Protein in water t=   0.00000 step= 0
325732
    1DG5    H5T    1   8.996   9.470   7.596
    1DG5    O5'    2   8.997   9.409   7.522
    1DG5    C5'    3   9.034   9.483   7.408
    1DG5   H5'1    4   8.980   9.577   7.396
    1DG5   H5'2    5   9.021   9.434   7.311
    1DG5    C4'    6   9.186   9.519   7.400
    1DG5    H4'    7   9.200   9.559   7.300
    1DG5    O4'    8   9.232   9.596   7.509
    1DG5    C1'    9   9.340   9.531   7.566
    1DG5    H1'   10   9.432   9.559   7.515
    1DG5     N9   11   9.341   9.590   7.703
    1DG5     C8   12   9.265   9.567   7.808
    1DG5     H8   13   9.192   9.487   7.813
    1DG5     N7   14   9.263   9.666   7.893
    1DG5     C5   15   9.358   9.758   7.846
    1DG5     C6   16   9.410   9.882   7.893
    1DG5     O6   17   9.370   9.960   7.982
    1DG5     N1   18   9.518   9.930   7.815
    1DG5     H1   19   9.559  10.020   7.835
    1DG5     C2   20   9.560   9.871   7.698
    1DG5     N2   21   9.659   9.931   7.635
    1DG5    H21   22   9.679  10.026   7.663
    1DG5    H22   23   9.693   9.880   7.555
    1DG5     N3   24   9.501   9.761   7.646
    1DG5     C4   25   9.404   9.708   7.733
    1DG5    C3'   26   9.263   9.385   7.414
    1DG5    H3'   27   9.190   9.304   7.410
    1DG5    C2'   28   9.322   9.381   7.552
    1DG5   H2'1   29   9.255   9.351   7.633
    1DG5   H2'2   30   9.424   9.346   7.569
    1DG5    O3'   31   9.351   9.385   7.303
    2DC       P   32   9.446   9.263   7.276
    2DC     O1P   33   9.496   9.279   7.141
    2DC     O2P   34   9.385   9.136   7.312
    2DC     O5'   35   9.565   9.286   7.382
    2DC     C5'   36   9.654   9.401   7.376
    2DC    H5'1   37   9.616   9.497   7.343
    2DC    H5'2   38   9.731   9.379   7.302
    2DC     C4'   39   9.731   9.429   7.504
    2DC     H4'   40   9.810   9.502   7.487
    2DC     O4'   41   9.653   9.477   7.615
    2DC     C1'   42   9.722   9.431   7.730
    2DC     H1'   43   9.818   9.483   7.730
    2DC      N1   44   9.649   9.455   7.859
    2DC      C6   45   9.566   9.369   7.922
    2DC      H6   46   9.555   9.270   7.880
    2DC      C5   47   9.496   9.404   8.034
    2DC      H5   48   9.423   9.338   8.078
    2DC      C4   49   9.520   9.540   8.084
    2DC      N4   50   9.467   9.591   8.187
    2DC     H41   51   9.484   9.690   8.199
    2DC     H42   52   9.378   9.549   8.212
    2DC      N3   53   9.609   9.620   8.028
    2DC      C2   54   9.676   9.583   7.916
    2DC      O2   55   9.759   9.655   7.862
    2DC     C3'   56   9.806   9.306   7.553
    2DC     H3'   57   9.786   9.211   7.505
    2DC     C2'   58   9.756   9.286   7.694
    2DC    H2'1   59   9.667   9.224   7.702
    2DC    H2'2   60   9.833   9.240   7.756
    2DC     O3'   61   9.943   9.343   7.574
    3DA       P   62  10.059   9.298   7.474
    3DA     O1P   63  10.001   9.328   7.339
    3DA     O2P   64  10.106   9.161   7.512
    3DA     O5'   65  10.179   9.401   7.498
    3DA     C5'   66  10.161   9.539   7.478
    3DA    H5'1   67  10.065   9.580   7.510
    3DA    H5'2   68  10.168   9.552   7.370
    3DA     C4'   69  10.262   9.621   7.561
    3DA     H4'   70  10.265   9.713   7.504
    3DA     O4'   71  10.217   9.656   7.694
    3DA     C1'   72  10.276   9.571   7.791
    3DA     H1'   73  10.338   9.639   7.850
    3DA      N9   74  10.168   9.518   7.875
    3DA      C8   75  10.097   9.404   7.866
    3DA      H8   76  10.112   9.327   7.791
    3DA      N7   77  10.001   9.395   7.957
    3DA      C5   78  10.009   9.514   8.025
    3DA      C6   79   9.942   9.578   8.137
    3DA      N6   80   9.844   9.531   8.205
    3DA     H61   81   9.811   9.582   8.286
    3DA     H62   82   9.798   9.445   8.179
    3DA      N1   83   9.976   9.703   8.167
    3DA      C2   84  10.080   9.766   8.108
    3DA      H2   85  10.109   9.860   8.154
    3DA      N3   86  10.157   9.712   8.014
    3DA      C4   87  10.111   9.590   7.973
    3DA     C3'   88  10.400   9.549   7.583
    3DA     H3'   89  10.426   9.492   7.494
    3DA     C2'   90  10.370   9.473   7.713
    3DA    H2'1   91  10.320   9.379   7.689
    3DA    H2'2   92  10.460   9.446   7.769
    3DA     O3'   93  10.501   9.648   7.601
    4DT       P   94  10.651   9.611   7.632
    4DT     O1P   95  10.737   9.700   7.552
    4DT     O2P   96  10.667   9.463   7.617
    4DT     O5'   97  10.683   9.648   7.780
    4DT     C5'   98  10.674   9.787   7.828
    4DT    H5'1   99  10.583   9.833   7.789
    4DT    H5'2  100  10.767   9.837   7.801
    4DT     C4'  101  10.653   9.788   7.981
    4DT     H4'  102  10.657   9.887   8.027
    4DT     O4'  103  10.524   9.732   8.019
    4DT     C1'  104  10.538   9.638   8.127
    4DT     H1'  105  10.561   9.691   8.220
    4DT      N1  106  10.428   9.541   8.142
    4DT      C6  107  10.419   9.416   8.090
    4DT      H6  108  10.491   9.388   8.014
    4DT      C5  109  10.324   9.326   8.134
    4DT      C7  110  10.304   9.191   8.067
    4DT     H71  111  10.350   9.201   7.968
    4DT     H72  112  10.362   9.119   8.125
    4DT     H73  113  10.202   9.158   8.053
    4DT      C4  114  10.234   9.366   8.241
    4DT      O4  115  10.155   9.289   8.300
    4DT      N3  116  10.248   9.494   8.277
    4DT      H3  117  10.194   9.515   8.360
    4DT      C2  118  10.340   9.585   8.242
    4DT      O2  119  10.355   9.697   8.300
    4DT     C3'  120  10.750   9.691   8.060
    4DT     H3'  121  10.838   9.655   8.006
    4DT     C2'  122  10.667   9.566   8.084
    4DT    H2'1  123  10.666   9.505   7.993
    4DT    H2'2  124  10.705   9.519   8.175
    4DT     O3'  125  10.792   9.753   8.178
    5DG       P  126  10.903   9.681   8.264
    5DG     O1P  127  10.967   9.791   8.334
    5DG     O2P  128  10.981   9.579   8.191
    5DG     O5'  129  10.833   9.598   8.379
    5DG     C5'  130  10.764   9.676   8.469
    5DG    H5'1  131  10.689   9.736   8.418
    5DG    H5'2  132  10.836   9.743   8.517
    5DG     C4'  133  10.687   9.598   8.578
    5DG     H4'  134  10.646   9.668   8.652
    5DG     O4'  135  10.585   9.524   8.524
    5DG     C1'  136  10.563   9.417   8.620
    5DG     H1'  137  10.522   9.448   8.716
    5DG      N9  138  10.467   9.313   8.580
    5DG      C8  139  10.468   9.230   8.469
    5DG      H8  140  10.543   9.243   8.392
    5DG      N7  141  10.375   9.142   8.464
    5DG      C5  142  10.298   9.174   8.584
    5DG      C6  143  10.169   9.129   8.619
    5DG      O6  144  10.109   9.038   8.561
    5DG      N1  145  10.120   9.188   8.735
    5DG      H1  146  10.035   9.142   8.766
    5DG      C2  147  10.189   9.285   8.803
    5DG      N2  148  10.121   9.339   8.899
    5DG     H21  149  10.028   9.303   8.917
    5DG     H22  150  10.145   9.428   8.940
    5DG      N3  151  10.303   9.339   8.762
    5DG      C4  152  10.357   9.275   8.656
    5DG     C3'  153  10.776   9.500   8.653
    5DG     H3'  154  10.872   9.490   8.602
    5DG     C2'  155  10.708   9.367   8.643
    5DG    H2'1  156  10.738   9.313   8.554
    5DG    H2'2  157  10.704   9.306   8.734
    5DG     O3'  158  10.803   9.558   8.777
    6DT       P  159  10.863   9.469   8.898
    6DT     O1P  160  10.929   9.568   8.984
    6DT     O2P  161  10.945   9.358   8.852
    6DT     O5'  162  10.755   9.403   8.993
    6DT     C5'  163  10.660   9.489   9.057
    6DT    H5'1  164  10.612   9.542   8.974
    6DT    H5'2  165  10.711   9.560   9.122
    6DT     C4'  166  10.554   9.412   9.136
    6DT     H4'  167  10.494   9.488   9.185
    6DT     O4'  168  10.458   9.356   9.046
    6DT     C1'  169  10.421   9.233   9.108
    6DT     H1'  170  10.332   9.254   9.167
    6DT      N1  171  10.414   9.125   9.006
    6DT      C6  172  10.514   9.104   8.914
    6DT      H6  173  10.594   9.175   8.924
    6DT      C5  174  10.505   9.007   8.819
    6DT      C7  175  10.620   8.979   8.732
    6DT     H71  176  10.701   9.048   8.752
    6DT     H72  177  10.661   8.881   8.757
    6DT     H73  178  10.589   8.991   8.628
    6DT      C4  179  10.389   8.922   8.812
    6DT      O4  180  10.360   8.847   8.717
    6DT      N3  181  10.293   8.948   8.907
    6DT      H3  182  10.213   8.887   8.902
    6DT      C2  183  10.306   9.037   9.015
    6DT      O2  184  10.220   9.028   9.103
    6DT     C3'  185  10.608   9.309   9.237
    6DT     H3'  186  10.710   9.290   9.205
    6DT     C2'  187  10.515   9.187   9.221
    6DT    H2'1  188  10.569   9.096   9.196
    6DT    H2'2  189  10.457   9.191   9.314
    6DT     O3'  190  10.613   9.359   9.365
    7DG       P  191  10.691   9.281   9.480
    7DG     O1P  192  10.679   9.370   9.598
    7DG     O2P  193  10.824   9.238   9.438
    7DG     O5'  194  10.602   9.156   9.519
    7DG     C5'  195  10.473   9.171   9.591
    7DG    H5'1  196  10.412   9.231   9.524
    7DG    H5'2  197  10.477   9.236   9.678
    7DG     C4'  198  10.396   9.035   9.615
    7DG     H4'  199  10.307   9.044   9.676
    7DG     O4'  200  10.362   8.989   9.486
    7DG     C1'  201  10.410   8.856   9.474
    7DG     H1'  202  10.335   8.787   9.513
    7DG      N9  203  10.426   8.818   9.331
    7DG      C8  204  10.539   8.816   9.257
    7DG      H8  205  10.625   8.872   9.290
    7DG      N7  206  10.524   8.756   9.143
    7DG      C5  207  10.396   8.704   9.143
    7DG      C6  208  10.317   8.648   9.040
    7DG      O6  209  10.345   8.621   8.922
    7DG      N1  210  10.193   8.622   9.086
    7DG      H1  211  10.129   8.575   9.024
    7DG      C2  212  10.141   8.661   9.206
    7DG      N2  213  10.015   8.633   9.222
    7DG     H21  214   9.967   8.573   9.156
    7DG     H22  215   9.979   8.637   9.316
    7DG      N3  216  10.202   8.739   9.292
    7DG      C4  217  10.331   8.751   9.262
    7DG     C3'  218  10.480   8.918   9.683
    7DG     H3'  219  10.558   8.954   9.751
    7DG     C2'  220  10.532   8.845   9.559
    7DG    H2'1  221  10.615   8.902   9.516
    7DG    H2'2  222  10.552   8.739   9.572
    7DG     O3'  223  10.392   8.840   9.757
    8DC       P  224  10.384   8.837   9.918
    8DC     O1P  225  10.386   8.980   9.965
    8DC     O2P  226  10.483   8.739   9.966
    8DC     O5'  227  10.248   8.770   9.957
    8DC     C5'  228  10.119   8.819   9.920
    8DC    H5'1  229  10.130   8.905   9.853
    8DC    H5'2  230  10.062   8.855  10.005
    8DC     C4'  231  10.033   8.718   9.837
    8DC     H4'  232   9.937   8.767   9.826
    8DC     O4'  233  10.093   8.691   9.707
    8DC     C1'  234  10.085   8.542   9.696
    8DC     H1'  235   9.987   8.515   9.657
    8DC      N1  236  10.179   8.483   9.598
    8DC      C6  237  10.316   8.503   9.611
    8DC      H6  238  10.356   8.553   9.697
    8DC      C5  239  10.395   8.486   9.505
    8DC      H5  240  10.494   8.527   9.506
    8DC      C4  241  10.340   8.425   9.385
    8DC      N4  242  10.415   8.400   9.282
    8DC     H41  243  10.374   8.344   9.208
    8DC     H42  244  10.513   8.425   9.281
    8DC      N3  245  10.210   8.398   9.375
    8DC      C2  246  10.129   8.417   9.485
    8DC      O2  247  10.011   8.388   9.463
    8DC     C3'  248  10.023   8.589   9.915
    8DC     H3'  249  10.051   8.600  10.019
    8DC     C2'  250  10.104   8.486   9.831
    8DC    H2'1  251  10.209   8.495   9.860
    8DC    H2'2  252  10.058   8.387   9.837
    8DC     O3'  253   9.883   8.550   9.917
    9DG       P  254   9.828   8.422   9.993
    9DG     O1P  255   9.702   8.466  10.046
    9DG     O2P  256   9.923   8.371  10.095
    9DG     O5'  257   9.803   8.312   9.876
    9DG     C5'  258   9.698   8.315   9.790
    9DG    H5'1  259   9.606   8.342   9.841
    9DG    H5'2  260   9.716   8.390   9.713
    9DG     C4'  261   9.662   8.187   9.714
    9DG     H4'  262   9.563   8.199   9.669
    9DG     O4'  263   9.755   8.159   9.619
    9DG     C1'  264   9.826   8.042   9.657
    9DG     H1'  265   9.801   7.959   9.590
    9DG      N9  266   9.966   8.071   9.641
    9DG      C8  267  10.052   8.141   9.716
    9DG      H8  268  10.012   8.189   9.805
    9DG      N7  269  10.175   8.157   9.669
    9DG      C5  270  10.168   8.081   9.554
    9DG      C6  271  10.269   8.050   9.454
    9DG      O6  272  10.382   8.086   9.449
    9DG      N1  273  10.222   7.977   9.347
    9DG      H1  274  10.287   7.954   9.272
    9DG      C2  275  10.089   7.945   9.328
    9DG      N2  276  10.060   7.879   9.216
    9DG     H21  277  10.118   7.884   9.133
    9DG     H22  278   9.964   7.853   9.199
    9DG      N3  279   9.995   7.957   9.427
    9DG      C4  280  10.039   8.038   9.530
    9DG     C3'  281   9.645   8.063   9.804
    9DG     H3'  282   9.641   8.093   9.909
    9DG     C2'  283   9.777   7.990   9.788
    9DG    H2'1  284   9.851   8.014   9.865
    9DG    H2'2  285   9.777   7.881   9.787
    9DG     O3'  286   9.527   7.993   9.761
   10DT       P  287   9.486   7.855   9.825
   10DT     O1P  288   9.336   7.853   9.819
   10DT     O2P  289   9.561   7.834   9.953
   10DT     O5'  290   9.547   7.754   9.717
   10DT     C5'  291   9.489   7.754   9.584
   10DT    H5'1  292   9.480   7.856   9.546
   10DT    H5'2  293   9.391   7.707   9.581
   10DT     C4'  294   9.573   7.671   9.483
   10DT     H4'  295   9.527   7.681   9.385
   10DT     O4'  296   9.705   7.712   9.476
   10DT     C1'  297   9.786   7.593   9.460
   10DT     H1'  298   9.786   7.571   9.353
   10DT      N1  299   9.923   7.638   9.512
   10DT      C6  300   9.943   7.692   9.638
   10DT      H6  301   9.851   7.700   9.694
   10DT      C5  302  10.066   7.726   9.687
   10DT      C7  303  10.075   7.783   9.829
   10DT     H71  304  10.126   7.878   9.811
   10DT     H72  305   9.976   7.780   9.874
   10DT     H73  306  10.140   7.716   9.885
   10DT      C4  307  10.180   7.708   9.603
   10DT      O4  308  10.293   7.740   9.635
   10DT      N3  309  10.157   7.646   9.483
   10DT      H3  310  10.235   7.632   9.420
   10DT      C2  311  10.036   7.609   9.434
   10DT      O2  312  10.036   7.558   9.324
   10DT     C3'  313   9.568   7.522   9.519
   10DT     H3'  314   9.521   7.501   9.615
   10DT     C2'  315   9.713   7.484   9.542
   10DT    H2'1  316   9.742   7.492   9.647
   10DT    H2'2  317   9.735   7.385   9.503
   10DT     O3'  318   9.495   7.456   9.419
   11DA       P  319   9.457   7.303   9.431
   11DA     O1P  320   9.344   7.270   9.339
   11DA     O2P  321   9.443   7.262   9.573
   11DA     O5'  322   9.593   7.239   9.369
   11DA     C5'  323   9.643   7.287   9.243
   11DA    H5'1  324   9.651   7.396   9.243
   11DA    H5'2  325   9.577   7.260   9.162
   11DA     C4'  326   9.775   7.235   9.203
   11DA     H4'  327   9.786   7.261   9.098
   11DA     O4'  328   9.881   7.294   9.278
   11DA     C1'  329   9.949   7.188   9.341
   11DA     H1'  330  10.026   7.167   9.267
   11DA      N9  331  10.006   7.235   9.474
   11DA      C8  332   9.949   7.231   9.594
   11DA      H8  333   9.848   7.198   9.615
   11DA      N7  334  10.021   7.291   9.686
   11DA      C5  335  10.145   7.310   9.616
   11DA      C6  336  10.270   7.361   9.646
   11DA      N6  337  10.299   7.410   9.758
   11DA     H61  338  10.389   7.456   9.767
   11DA     H62  339  10.232   7.404   9.833
   11DA      N1  340  10.372   7.368   9.557
   11DA      C2  341  10.338   7.333   9.430
   11DA      H2  342  10.410   7.338   9.350
   11DA      N3  343  10.218   7.296   9.385
   11DA      C4  344  10.132   7.277   9.486
   11DA     C3'  345   9.783   7.084   9.227
   11DA     H3'  346   9.682   7.042   9.236
   11DA     C2'  347   9.862   7.067   9.358
   11DA    H2'1  348   9.801   7.076   9.447
   11DA    H2'2  349   9.917   6.972   9.355
   11DA     O3'  350   9.844   7.037   9.107
   12DT       P  351   9.906   6.890   9.087
   12DT     O1P  352   9.878   6.843   8.948
   12DT     O2P  353   9.861   6.804   9.197
   12DT     O5'  354  10.064   6.908   9.116
   12DT     C5'  355  10.149   6.974   9.024
   12DT    H5'1  356  10.130   7.081   9.032
   12DT    H5'2  357  10.119   6.943   8.924
   12DT     C4'  358  10.302   6.958   9.046
   12DT     H4'  359  10.354   6.994   8.956
   12DT     O4'  360  10.352   7.030   9.161
   12DT     C1'  361  10.422   6.941   9.248
   12DT     H1'  362  10.525   6.951   9.214
   12DT      N1  363  10.404   6.993   9.388
   12DT      C6  364  10.278   6.979   9.454
   12DT      H6  365  10.197   6.942   9.392
   12DT      C5  366  10.276   6.979   9.591
   12DT      C7  367  10.144   6.942   9.663
   12DT     H71  368  10.171   6.854   9.720
   12DT     H72  369  10.110   7.021   9.730
   12DT     H73  370  10.067   6.922   9.587
   12DT      C4  371  10.394   7.024   9.669
   12DT      O4  372  10.397   7.044   9.788
   12DT      N3  373  10.504   7.059   9.590
   12DT      H3  374  10.589   7.076   9.643
   12DT      C2  375  10.516   7.035   9.455
   12DT      O2  376  10.618   7.062   9.398
   12DT     C3'  377  10.344   6.808   9.065
   12DT     H3'  378  10.263   6.744   9.030
   12DT     C2'  379  10.368   6.798   9.215
   12DT    H2'1  380  10.274   6.786   9.268
   12DT    H2'2  381  10.430   6.714   9.245
   12DT     O3'  382  10.458   6.778   8.987
   13DG       P  383  10.517   6.625   8.981
   13DG     O1P  384  10.568   6.590   8.847
   13DG     O2P  385  10.426   6.536   9.055
   13DG     O5'  386  10.655   6.639   9.066
   13DG     C5'  387  10.757   6.739   9.021
   13DG    H5'1  388  10.713   6.839   9.028
   13DG    H5'2  389  10.779   6.720   8.917
   13DG     C4'  390  10.898   6.740   9.080
   13DG     H4'  391  10.953   6.799   9.006
   13DG     O4'  392  10.905   6.792   9.210
   13DG     C1'  393  10.906   6.699   9.316
   13DG     H1'  394  11.002   6.709   9.367
   13DG      N9  395  10.793   6.719   9.405
   13DG      C8  396  10.662   6.688   9.386
   13DG      H8  397  10.621   6.659   9.291
   13DG      N7  398  10.578   6.701   9.490
   13DG      C5  399  10.666   6.748   9.592
   13DG      C6  400  10.650   6.779   9.734
   13DG      O6  401  10.549   6.774   9.807
   13DG      N1  402  10.766   6.826   9.794
   13DG      H1  403  10.757   6.863   9.887
   13DG      C2  404  10.883   6.837   9.724
   13DG      N2  405  10.987   6.882   9.784
   13DG     H21  406  10.975   6.937   9.869
   13DG     H22  407  11.076   6.883   9.737
   13DG      N3  408  10.910   6.797   9.601
   13DG      C4  409  10.796   6.758   9.540
   13DG     C3'  410  10.944   6.594   9.101
   13DG     H3'  411  10.894   6.523   9.036
   13DG     C2'  412  10.914   6.558   9.246
   13DG    H2'1  413  10.817   6.509   9.252
   13DG    H2'2  414  10.985   6.488   9.291
   13DG     O3'  415  11.079   6.598   9.071
   14DC       P  416  11.177   6.464   9.070
   14DC     O1P  417  11.298   6.504   8.994
   14DC     O2P  418  11.099   6.345   9.032
   14DC     O5'  419  11.225   6.446   9.220
   14DC     C5'  420  11.295   6.552   9.291
   14DC    H5'1  421  11.246   6.646   9.268
   14DC    H5'2  422  11.398   6.553   9.256
   14DC     C4'  423  11.299   6.525   9.445
   14DC     H4'  424  11.366   6.594   9.494
   14DC     O4'  425  11.166   6.549   9.497
   14DC     C1'  426  11.151   6.449   9.594
   14DC     H1'  427  11.212   6.462   9.683
   14DC      N1  428  11.007   6.446   9.639
   14DC      C6  429  10.911   6.373   9.576
   14DC      H6  430  10.938   6.310   9.492
   14DC      C5  431  10.792   6.363   9.631
   14DC      H5  432  10.712   6.310   9.580
   14DC      C4  433  10.769   6.438   9.746
   14DC      N4  434  10.658   6.423   9.817
   14DC     H41  435  10.657   6.458   9.912
   14DC     H42  436  10.608   6.338   9.798
   14DC      N3  437  10.862   6.507   9.807
   14DC      C2  438  10.979   6.509   9.754
   14DC      O2  439  11.063   6.575   9.810
   14DC     C3'  440  11.338   6.377   9.480
   14DC     H3'  441  11.374   6.320   9.394
   14DC     C2'  442  11.203   6.328   9.521
   14DC    H2'1  443  11.141   6.297   9.437
   14DC    H2'2  444  11.209   6.247   9.594
   14DC     O3'  445  11.434   6.399   9.587
   15DG       P  446  11.538   6.287   9.632
   15DG     O1P  447  11.663   6.310   9.558
   15DG     O2P  448  11.461   6.157   9.616
   15DG     O5'  449  11.571   6.302   9.791
   15DG     C5'  450  11.611   6.421   9.838
   15DG    H5'1  451  11.703   6.454   9.790
   15DG    H5'2  452  11.537   6.496   9.812
   15DG     C4'  453  11.613   6.408   9.990
   15DG     H4'  454  11.676   6.486  10.032
   15DG     O4'  455  11.488   6.417  10.048
   15DG     C1'  456  11.454   6.292  10.105
   15DG     H1'  457  11.453   6.295  10.214
   15DG      N9  458  11.322   6.265  10.050
   15DG      C8  459  11.284   6.219   9.925
   15DG      H8  460  11.351   6.196   9.843
   15DG      N7  461  11.159   6.213   9.910
   15DG      C5  462  11.103   6.259  10.023
   15DG      C6  463  10.966   6.281  10.064
   15DG      O6  464  10.861   6.264  10.002
   15DG      N1  465  10.962   6.313  10.198
   15DG      H1  466  10.879   6.303  10.256
   15DG      C2  467  11.069   6.343  10.279
   15DG      N2  468  11.050   6.369  10.411
   15DG     H21  469  10.956   6.382  10.444
   15DG     H22  470  11.131   6.393  10.467
   15DG      N3  471  11.191   6.338  10.238
   15DG      C4  472  11.199   6.288  10.112
   15DG     C3'  473  11.680   6.276  10.035
   15DG     H3'  474  11.741   6.235   9.955
   15DG     C2'  475  11.562   6.186  10.066
   15DG    H2'1  476  11.538   6.128   9.977
   15DG    H2'2  477  11.578   6.123  10.154
   15DG     O3'  478  11.760   6.306  10.149
   16DT3      P  479  11.801   6.211  10.263
   16DT3    O1P  480  11.921   6.276  10.322
   16DT3    O2P  481  11.817   6.078  10.204
   16DT3    O5'  482  11.678   6.221  10.367
   16DT3    C5'  483  11.625   6.341  10.422
   16DT3   H5'1  484  11.574   6.397  10.344
   16DT3   H5'2  485  11.705   6.402  10.463
   16DT3    C4'  486  11.545   6.314  10.550
   16DT3    H4'  487  11.539   6.409  10.603
   16DT3    O4'  488  11.411   6.280  10.518
   16DT3    C1'  489  11.382   6.146  10.563
   16DT3    H1'  490  11.324   6.149  10.655
   16DT3     N1  491  11.296   6.077  10.464
   16DT3     C6  492  11.359   6.017  10.355
   16DT3     H6  493  11.465   6.014  10.335
   16DT3     C5  494  11.282   5.959  10.257
   16DT3     C7  495  11.356   5.901  10.133
   16DT3    H71  496  11.306   5.816  10.086
   16DT3    H72  497  11.361   5.983  10.062
   16DT3    H73  498  11.459   5.870  10.150
   16DT3     C4  499  11.140   5.948  10.262
   16DT3     O4  500  11.068   5.877  10.186
   16DT3     N3  501  11.087   6.003  10.374
   16DT3     H3  502  10.991   5.978  10.393
   16DT3     C2  503  11.156   6.059  10.479
   16DT3     O2  504  11.093   6.086  10.582
   16DT3    C3'  505  11.600   6.207  10.648
   16DT3    H3'  506  11.705   6.191  10.626
   16DT3    C2'  507  11.518   6.086  10.599
   16DT3   H2'1  508  11.584   6.043  10.524
   16DT3   H2'2  509  11.504   6.011  10.678
   16DT3    O3'  510  11.566   6.239  10.784
   16DT3    H3T  511  11.603   6.171  10.840
   17DC5    H5T  512  12.405   2.698  14.610
   17DC5    O5'  513  12.485   2.648  14.596
   17DC5    C5'  514  12.510   2.668  14.455
   17DC5   H5'1  515  12.605   2.621  14.429
   17DC5   H5'2  516  12.517   2.775  14.438
   17DC5    C4'  517  12.398   2.609  14.367
   17DC5    H4'  518  12.418   2.502  14.360
   17DC5    O4'  519  12.272   2.648  14.428
   17DC5    C1'  520  12.192   2.705  14.329
   17DC5    H1'  521  12.151   2.625  14.267
   17DC5     N1  522  12.068   2.772  14.382
   17DC5     C6  523  12.060   2.913  14.407
   17DC5     H6  524  12.147   2.975  14.391
   17DC5     C5  525  11.951   2.967  14.453
   17DC5     H5  526  11.952   3.072  14.474
   17DC5     C4  527  11.845   2.882  14.477
   17DC5     N4  528  11.733   2.930  14.528
   17DC5    H41  529  11.643   2.885  14.525
   17DC5    H42  530  11.735   3.029  14.545
   17DC5     N3  531  11.841   2.746  14.465
   17DC5     C2  532  11.956   2.696  14.415
   17DC5     O2  533  11.952   2.573  14.394
   17DC5    C3'  534  12.400   2.676  14.227
   17DC5    H3'  535  12.501   2.708  14.200
   17DC5    C2'  536  12.296   2.792  14.253
   17DC5   H2'1  537  12.338   2.871  14.316
   17DC5   H2'2  538  12.267   2.834  14.157
   17DC5    O3'  539  12.338   2.585  14.133
   18DG       P  540  12.357   2.603  13.972
   18DG     O1P  541  12.459   2.503  13.933
   18DG     O2P  542  12.375   2.744  13.942
   18DG     O5'  543  12.221   2.545  13.909
   18DG     C5'  544  12.180   2.409  13.928
   18DG    H5'1  545  12.142   2.407  14.030
   18DG    H5'2  546  12.270   2.348  13.925
   18DG     C4'  547  12.067   2.347  13.839
   18DG     H4'  548  12.084   2.242  13.817
   18DG     O4'  549  11.941   2.364  13.902
   18DG     C1'  550  11.881   2.476  13.846
   18DG     H1'  551  11.783   2.444  13.810
   18DG      N9  552  11.860   2.572  13.955
   18DG      C8  553  11.946   2.667  14.014
   18DG      H8  554  12.052   2.671  13.995
   18DG      N7  555  11.888   2.748  14.098
   18DG      C5  556  11.754   2.715  14.084
   18DG      C6  557  11.635   2.768  14.143
   18DG      O6  558  11.623   2.856  14.231
   18DG      N1  559  11.512   2.707  14.106
   18DG      H1  560  11.425   2.733  14.151
   18DG      C2  561  11.515   2.602  14.021
   18DG      N2  562  11.398   2.565  13.986
   18DG     H21  563  11.316   2.590  14.041
   18DG     H22  564  11.403   2.486  13.924
   18DG      N3  565  11.616   2.545  13.962
   18DG      C4  566  11.735   2.605  14.005
   18DG     C3'  567  12.059   2.400  13.697
   18DG     H3'  568  12.159   2.437  13.671
   18DG     C2'  569  11.967   2.520  13.725
   18DG    H2'1  570  12.021   2.611  13.752
   18DG    H2'2  571  11.908   2.541  13.635
   18DG     O3'  572  11.999   2.304  13.618
   19DC       P  573  12.005   2.316  13.458
   19DC     O1P  574  11.988   2.183  13.392
   19DC     O2P  575  12.120   2.402  13.417
   19DC     O5'  576  11.878   2.400  13.437
   19DC     C5'  577  11.749   2.340  13.422
   19DC    H5'1  578  11.733   2.291  13.518
   19DC    H5'2  579  11.747   2.272  13.336
   19DC     C4'  580  11.638   2.444  13.407
   19DC     H4'  581  11.542   2.395  13.390
   19DC     O4'  582  11.635   2.518  13.524
   19DC     C1'  583  11.621   2.654  13.504
   19DC     H1'  584  11.515   2.671  13.481
   19DC      N1  585  11.652   2.735  13.621
   19DC      C6  586  11.783   2.784  13.646
   19DC      H6  587  11.862   2.758  13.577
   19DC      C5  588  11.801   2.862  13.754
   19DC      H5  589  11.899   2.908  13.759
   19DC      C4  590  11.682   2.906  13.825
   19DC      N4  591  11.686   3.003  13.915
   19DC     H41  592  11.602   3.037  13.959
   19DC     H42  593  11.772   3.052  13.934
   19DC      N3  594  11.561   2.862  13.797
   19DC      C2  595  11.546   2.771  13.701
   19DC      O2  596  11.433   2.715  13.693
   19DC     C3'  597  11.669   2.551  13.297
   19DC     H3'  598  11.760   2.537  13.238
   19DC     C2'  599  11.693   2.677  13.372
   19DC    H2'1  600  11.801   2.681  13.387
   19DC    H2'2  601  11.655   2.760  13.314
   19DC     O3'  602  11.554   2.589  13.227
   20DA       P  603  11.512   2.527  13.091
   20DA     O1P  604  11.542   2.383  13.086
   20DA     O2P  605  11.561   2.618  12.989
   20DA     O5'  606  11.359   2.550  13.105
   20DA     C5'  607  11.283   2.454  13.173
   20DA    H5'1  608  11.278   2.357  13.124
   20DA    H5'2  609  11.328   2.433  13.270
   20DA     C4'  610  11.139   2.499  13.203
   20DA     H4'  611  11.087   2.409  13.234
   20DA     O4'  612  11.144   2.580  13.318
   20DA     C1'  613  11.109   2.716  13.279
   20DA     H1'  614  11.015   2.741  13.328
   20DA      N9  615  11.217   2.805  13.335
   20DA      C8  616  11.347   2.822  13.281
   20DA      H8  617  11.388   2.768  13.197
   20DA      N7  618  11.428   2.901  13.349
   20DA      C5  619  11.340   2.943  13.451
   20DA      C6  620  11.354   3.040  13.556
   20DA      N6  621  11.467   3.110  13.585
   20DA     H61  622  11.468   3.169  13.667
   20DA     H62  623  11.557   3.090  13.544
   20DA      N1  624  11.253   3.056  13.647
   20DA      C2  625  11.143   2.982  13.631
   20DA      H2  626  11.064   3.002  13.702
   20DA      N3  627  11.112   2.898  13.537
   20DA      C4  628  11.214   2.881  13.445
   20DA     C3'  629  11.060   2.575  13.092
   20DA     H3'  630  11.106   2.557  12.994
   20DA     C2'  631  11.085   2.717  13.130
   20DA    H2'1  632  11.171   2.758  13.076
   20DA    H2'2  633  11.000   2.779  13.101
   20DA     O3'  634  10.922   2.536  13.103
   21DC       P  635  10.810   2.583  12.995
   21DC     O1P  636  10.705   2.481  13.002
   21DC     O2P  637  10.879   2.601  12.863
   21DC     O5'  638  10.766   2.731  13.034
   21DC     C5'  639  10.712   2.754  13.161
   21DC    H5'1  640  10.789   2.726  13.233
   21DC    H5'2  641  10.629   2.686  13.182
   21DC     C4'  642  10.695   2.903  13.185
   21DC     H4'  643  10.618   2.915  13.262
   21DC     O4'  644  10.812   2.957  13.240
   21DC     C1'  645  10.836   3.076  13.174
   21DC     H1'  646  10.773   3.148  13.227
   21DC      N1  647  10.982   3.108  13.175
   21DC      C6  648  11.076   3.051  13.091
   21DC      H6  649  11.041   2.977  13.021
   21DC      C5  650  11.205   3.091  13.097
   21DC      H5  651  11.281   3.052  13.031
   21DC      C4  652  11.240   3.186  13.195
   21DC      N4  653  11.362   3.235  13.202
   21DC     H41  654  11.385   3.305  13.272
   21DC     H42  655  11.425   3.206  13.129
   21DC      N3  656  11.159   3.231  13.287
   21DC      C2  657  11.028   3.194  13.278
   21DC      O2  658  10.959   3.216  13.379
   21DC     C3'  659  10.650   2.985  13.067
   21DC     H3'  660  10.634   2.926  12.977
   21DC     C2'  661  10.778   3.056  13.036
   21DC    H2'1  662  10.834   2.991  12.969
   21DC    H2'2  663  10.759   3.151  12.986
   21DC     O3'  664  10.563   3.092  13.090
   22DG       P  665  10.421   3.107  13.041
   22DG     O1P  666  10.339   2.997  13.097
   22DG     O2P  667  10.424   3.117  12.890
   22DG     O5'  668  10.369   3.246  13.101
   22DG     C5'  669  10.358   3.274  13.242
   22DG    H5'1  670  10.437   3.220  13.294
   22DG    H5'2  671  10.264   3.236  13.281
   22DG     C4'  672  10.367   3.421  13.279
   22DG     H4'  673  10.322   3.427  13.379
   22DG     O4'  674  10.499   3.466  13.297
   22DG     C1'  675  10.541   3.554  13.198
   22DG     H1'  676  10.542   3.648  13.254
   22DG      N9  677  10.680   3.522  13.154
   22DG      C8  678  10.704   3.428  13.059
   22DG      H8  679  10.622   3.369  13.022
   22DG      N7  680  10.833   3.419  13.021
   22DG      C5  681  10.894   3.523  13.095
   22DG      C6  682  11.029   3.566  13.102
   22DG      O6  683  11.130   3.524  13.048
   22DG      N1  684  11.045   3.678  13.180
   22DG      H1  685  11.140   3.709  13.196
   22DG      C2  686  10.948   3.734  13.256
   22DG      N2  687  10.985   3.838  13.320
   22DG     H21  688  11.083   3.861  13.325
   22DG     H22  689  10.916   3.891  13.371
   22DG      N3  690  10.817   3.696  13.257
   22DG      C4  691  10.801   3.587  13.175
   22DG     C3'  692  10.311   3.520  13.174
   22DG     H3'  693  10.238   3.469  13.111
   22DG     C2'  694  10.429   3.555  13.086
   22DG    H2'1  695  10.449   3.474  13.016
   22DG    H2'2  696  10.428   3.651  13.034
   22DG     O3'  697  10.250   3.636  13.241
   23DC       P  698  10.162   3.749  13.171
   23DC     O1P  699  10.070   3.794  13.276
   23DC     O2P  700  10.102   3.695  13.048
   23DC     O5'  701  10.265   3.855  13.125
   23DC     C5'  702  10.321   3.951  13.216
   23DC    H5'1  703  10.363   3.899  13.302
   23DC    H5'2  704  10.247   4.021  13.256
   23DC     C4'  705  10.432   4.038  13.155
   23DC     H4'  706  10.462   4.115  13.226
   23DC     O4'  707  10.546   3.959  13.126
   23DC     C1'  708  10.572   3.982  12.988
   23DC     H1'  709  10.632   4.071  12.968
   23DC      N1  710  10.661   3.873  12.929
   23DC      C6  711  10.600   3.776  12.864
   23DC      H6  712  10.492   3.768  12.870
   23DC      C5  713  10.684   3.680  12.816
   23DC      H5  714  10.646   3.593  12.766
   23DC      C4  715  10.828   3.697  12.825
   23DC      N4  716  10.907   3.610  12.767
   23DC     H41  717  11.005   3.627  12.750
   23DC     H42  718  10.863   3.535  12.716
   23DC      N3  719  10.882   3.797  12.888
   23DC      C2  720  10.800   3.886  12.941
   23DC      O2  721  10.854   3.982  12.998
   23DC     C3'  722  10.381   4.103  13.019
   23DC     H3'  723  10.274   4.111  13.002
   23DC     C2'  724  10.436   4.007  12.917
   23DC    H2'1  725  10.381   3.914  12.906
   23DC    H2'2  726  10.460   4.056  12.822
   23DC     O3'  727  10.452   4.222  13.006
   24DA       P  728  10.393   4.356  13.044
   24DA     O1P  729  10.332   4.347  13.180
   24DA     O2P  730  10.308   4.393  12.929
   24DA     O5'  731  10.526   4.442  13.048
   24DA     C5'  732  10.590   4.490  13.165
   24DA    H5'1  733  10.596   4.406  13.234
   24DA    H5'2  734  10.532   4.570  13.210
   24DA     C4'  735  10.732   4.543  13.129
   24DA     H4'  736  10.778   4.568  13.224
   24DA     O4'  737  10.805   4.431  13.074
   24DA     C1'  738  10.848   4.461  12.941
   24DA     H1'  739  10.954   4.485  12.939
   24DA      N9  740  10.820   4.342  12.854
   24DA      C8  741  10.696   4.290  12.813
   24DA      H8  742  10.606   4.339  12.846
   24DA      N7  743  10.699   4.185  12.731
   24DA      C5  744  10.839   4.161  12.729
   24DA      C6  745  10.917   4.061  12.670
   24DA      N6  746  10.872   3.965  12.594
   24DA     H61  747  10.940   3.895  12.568
   24DA     H62  748  10.773   3.957  12.575
   24DA      N1  749  11.050   4.059  12.680
   24DA      C2  750  11.107   4.160  12.738
   24DA      H2  751  11.212   4.141  12.755
   24DA      N3  752  11.052   4.263  12.803
   24DA      C4  753  10.911   4.259  12.798
   24DA     C3'  754  10.745   4.658  13.027
   24DA     H3'  755  10.658   4.724  13.027
   24DA     C2'  756  10.760   4.579  12.895
   24DA    H2'1  757  10.660   4.553  12.862
   24DA    H2'2  758  10.820   4.633  12.821
   24DA     O3'  759  10.853   4.744  13.051
   25DC       P  760  10.891   4.875  12.967
   25DC     O1P  761  10.965   4.971  13.048
   25DC     O2P  762  10.780   4.925  12.888
   25DC     O5'  763  10.997   4.821  12.860
   25DC     C5'  764  11.121   4.773  12.902
   25DC    H5'1  765  11.112   4.689  12.971
   25DC    H5'2  766  11.177   4.848  12.959
   25DC     C4'  767  11.212   4.714  12.793
   25DC     H4'  768  11.310   4.703  12.839
   25DC     O4'  769  11.158   4.598  12.739
   25DC     C1'  770  11.162   4.605  12.598
   25DC     H1'  771  11.265   4.585  12.568
   25DC      N1  772  11.068   4.500  12.545
   25DC      C6  773  10.930   4.520  12.552
   25DC      H6  774  10.892   4.612  12.593
   25DC      C5  775  10.848   4.434  12.485
   25DC      H5  776  10.742   4.455  12.486
   25DC      C4  777  10.904   4.316  12.423
   25DC      N4  778  10.825   4.208  12.402
   25DC     H41  779  10.866   4.116  12.386
   25DC     H42  780  10.725   4.214  12.406
   25DC      N3  781  11.032   4.295  12.411
   25DC      C2  782  11.114   4.388  12.472
   25DC      O2  783  11.232   4.380  12.448
   25DC     C3'  784  11.214   4.818  12.685
   25DC     H3'  785  11.173   4.911  12.725
   25DC     C2'  786  11.138   4.752  12.568
   25DC    H2'1  787  11.033   4.778  12.587
   25DC    H2'2  788  11.174   4.789  12.472
   25DC     O3'  789  11.351   4.831  12.664
   26DG       P  790  11.408   4.908  12.536
   26DG     O1P  791  11.539   4.940  12.595
   26DG     O2P  792  11.319   5.027  12.495
   26DG     O5'  793  11.432   4.796  12.419
   26DG     C5'  794  11.509   4.682  12.443
   26DG    H5'1  795  11.442   4.598  12.458
   26DG    H5'2  796  11.576   4.702  12.527
   26DG     C4'  797  11.600   4.647  12.330
   26DG     H4'  798  11.686   4.595  12.373
   26DG     O4'  799  11.540   4.559  12.238
   26DG     C1'  800  11.468   4.629  12.139
   26DG     H1'  801  11.502   4.594  12.041
   26DG      N9  802  11.321   4.597  12.152
   26DG      C8  803  11.229   4.650  12.233
   26DG      H8  804  11.254   4.740  12.288
   26DG      N7  805  11.111   4.601  12.216
   26DG      C5  806  11.127   4.495  12.128
   26DG      C6  807  11.030   4.399  12.072
   26DG      O6  808  10.907   4.393  12.088
   26DG      N1  809  11.089   4.309  11.985
   26DG      H1  810  11.024   4.251  11.935
   26DG      C2  811  11.223   4.311  11.952
   26DG      N2  812  11.265   4.217  11.871
   26DG     H21  813  11.210   4.142  11.834
   26DG     H22  814  11.354   4.244  11.832
   26DG      N3  815  11.306   4.405  11.993
   26DG      C4  816  11.256   4.495  12.082
   26DG     C3'  817  11.647   4.759  12.245
   26DG     H3'  818  11.675   4.849  12.301
   26DG     C2'  819  11.527   4.772  12.149
   26DG    H2'1  820  11.453   4.842  12.190
   26DG    H2'2  821  11.556   4.813  12.052
   26DG     O3'  822  11.762   4.700  12.194
   27DC       P  823  11.857   4.782  12.097
   27DC     O1P  824  11.994   4.725  12.111
   27DC     O2P  825  11.839   4.924  12.140
   27DC     O5'  826  11.815   4.771  11.943
   27DC     C5'  827  11.822   4.649  11.868
   27DC    H5'1  828  11.802   4.567  11.937
   27DC    H5'2  829  11.923   4.636  11.830
   27DC     C4'  830  11.718   4.644  11.755
   27DC     H4'  831  11.748   4.553  11.703
   27DC     O4'  832  11.582   4.619  11.811
   27DC     C1'  833  11.493   4.688  11.726
   27DC     H1'  834  11.482   4.627  11.636
   27DC      N1  835  11.362   4.712  11.781
   27DC      C6  836  11.320   4.818  11.854
   27DC      H6  837  11.391   4.895  11.880
   27DC      C5  838  11.189   4.822  11.902
   27DC      H5  839  11.154   4.900  11.966
   27DC      C4  840  11.100   4.717  11.870
   27DC      N4  841  10.979   4.711  11.918
   27DC     H41  842  10.928   4.628  11.893
   27DC     H42  843  10.943   4.790  11.970
   27DC      N3  844  11.138   4.619  11.798
   27DC      C2  845  11.263   4.613  11.748
   27DC      O2  846  11.284   4.510  11.689
   27DC     C3'  847  11.709   4.761  11.658
   27DC     H3'  848  11.782   4.837  11.687
   27DC     C2'  849  11.573   4.811  11.688
   27DC    H2'1  850  11.574   4.885  11.769
   27DC    H2'2  851  11.530   4.864  11.602
   27DC     O3'  852  11.713   4.719  11.521
   28DG       P  853  11.843   4.689  11.446
   28DG     O1P  854  11.946   4.638  11.547
   28DG     O2P  855  11.885   4.804  11.368
   28DG     O5'  856  11.812   4.568  11.344
   28DG     C5'  857  11.762   4.439  11.388
   28DG    H5'1  858  11.752   4.424  11.495
   28DG    H5'2  859  11.839   4.370  11.352
   28DG     C4'  860  11.635   4.397  11.316
   28DG     H4'  861  11.629   4.289  11.332
   28DG     O4'  862  11.522   4.460  11.384
   28DG     C1'  863  11.438   4.499  11.277
   28DG     H1'  864  11.374   4.415  11.250
   28DG      N9  865  11.358   4.610  11.327
   28DG      C8  866  11.410   4.728  11.365
   28DG      H8  867  11.513   4.752  11.342
   28DG      N7  868  11.330   4.799  11.441
   28DG      C5  869  11.212   4.723  11.443
   28DG      C6  870  11.080   4.740  11.501
   28DG      O6  871  11.052   4.832  11.577
   28DG      N1  872  10.990   4.637  11.480
   28DG      H1  873  10.898   4.647  11.521
   28DG      C2  874  11.017   4.546  11.383
   28DG      N2  875  10.916   4.478  11.349
   28DG     H21  876  10.823   4.506  11.376
   28DG     H22  877  10.936   4.389  11.304
   28DG      N3  878  11.128   4.524  11.326
   28DG      C4  879  11.226   4.610  11.365
   28DG     C3'  880  11.630   4.426  11.164
   28DG     H3'  881  11.730   4.449  11.126
   28DG     C2'  882  11.535   4.544  11.162
   28DG    H2'1  883  11.588   4.636  11.185
   28DG    H2'2  884  11.478   4.546  11.069
   28DG     O3'  885  11.569   4.324  11.090
   29DC       P  886  11.563   4.319  10.930
   29DC     O1P  887  11.537   4.175  10.907
   29DC     O2P  888  11.681   4.379  10.868
   29DC     O5'  889  11.446   4.398  10.889
   29DC     C5'  890  11.311   4.356  10.907
   29DC    H5'1  891  11.288   4.329  11.010
   29DC    H5'2  892  11.290   4.268  10.846
   29DC     C4'  893  11.206   4.467  10.865
   29DC     H4'  894  11.115   4.409  10.847
   29DC     O4'  895  11.182   4.556  10.973
   29DC     C1'  896  11.160   4.684  10.919
   29DC     H1'  897  11.061   4.691  10.875
   29DC      N1  898  11.166   4.789  11.029
   29DC      C6  899  11.273   4.864  11.059
   29DC      H6  900  11.370   4.851  11.014
   29DC      C5  901  11.248   4.969  11.140
   29DC      H5  902  11.331   5.033  11.166
   29DC      C4  903  11.127   4.988  11.207
   29DC      N4  904  11.133   5.078  11.307
   29DC     H41  905  11.048   5.096  11.358
   29DC     H42  906  11.217   5.132  11.322
   29DC      N3  907  11.019   4.911  11.187
   29DC      C2  908  11.041   4.815  11.093
   29DC      O2  909  10.937   4.761  11.054
   29DC     C3'  910  11.245   4.549  10.748
   29DC     H3'  911  11.341   4.523  10.704
   29DC     C2'  912  11.261   4.693  10.809
   29DC    H2'1  913  11.363   4.714  10.842
   29DC    H2'2  914  11.232   4.771  10.738
   29DC     O3'  915  11.132   4.538  10.650
   30DA       P  916  11.164   4.549  10.494
   30DA     O1P  917  11.243   4.425  10.459
   30DA     O2P  918  11.230   4.676  10.461
   30DA     O5'  919  11.025   4.537  10.421
   30DA     C5'  920  10.929   4.446  10.476
   30DA    H5'1  921  10.958   4.398  10.569
   30DA    H5'2  922  10.910   4.370  10.400
   30DA     C4'  923  10.801   4.522  10.502
   30DA     H4'  924  10.731   4.446  10.536
   30DA     O4'  925  10.820   4.597  10.622
   30DA     C1'  926  10.752   4.718  10.601
   30DA     H1'  927  10.649   4.720  10.634
   30DA      N9  928  10.829   4.817  10.678
   30DA      C8  929  10.962   4.854  10.657
   30DA      H8  930  11.028   4.790  10.600
   30DA      N7  931  11.005   4.955  10.729
   30DA      C5  932  10.882   4.994  10.801
   30DA      C6  933  10.850   5.093  10.902
   30DA      N6  934  10.943   5.181  10.935
   30DA     H61  935  10.925   5.246  11.010
   30DA     H62  936  11.036   5.173  10.895
   30DA      N1  937  10.736   5.093  10.967
   30DA      C2  938  10.645   5.009  10.923
   30DA      H2  939  10.548   5.017  10.970
   30DA      N3  940  10.658   4.911  10.837
   30DA      C4  941  10.780   4.908  10.775
   30DA     C3'  942  10.749   4.606  10.391
   30DA     H3'  943  10.816   4.597  10.305
   30DA     C2'  944  10.748   4.748  10.449
   30DA    H2'1  945  10.839   4.796  10.415
   30DA    H2'2  946  10.654   4.804  10.440
   30DA     O3'  947  10.615   4.563  10.356
   31DT       P  948  10.542   4.617  10.240
   31DT     O1P  949  10.440   4.515  10.197
   31DT     O2P  950  10.632   4.670  10.137
   31DT     O5'  951  10.455   4.747  10.297
   31DT     C5'  952  10.374   4.752  10.406
   31DT    H5'1  953  10.424   4.696  10.485
   31DT    H5'2  954  10.276   4.709  10.384
   31DT     C4'  955  10.355   4.889  10.456
   31DT     H4'  956  10.264   4.898  10.515
   31DT     O4'  957  10.472   4.940  10.521
   31DT     C1'  958  10.471   5.078  10.532
   31DT     H1'  959  10.403   5.111  10.610
   31DT      N1  960  10.596   5.151  10.553
   31DT      C6  961  10.705   5.114  10.475
   31DT      H6  962  10.696   5.050  10.388
   31DT      C5  963  10.828   5.173  10.496
   31DT      C7  964  10.933   5.142  10.408
   31DT     H71  965  10.899   5.089  10.319
   31DT     H72  966  10.974   5.237  10.374
   31DT     H73  967  11.013   5.083  10.452
   31DT      C4  968  10.853   5.265  10.610
   31DT      O4  969  10.952   5.314  10.652
   31DT      N3  970  10.737   5.311  10.659
   31DT      H3  971  10.748   5.390  10.720
   31DT      C2  972  10.608   5.257  10.643
   31DT      O2  973  10.515   5.306  10.707
   31DT     C3'  974  10.332   4.996  10.342
   31DT     H3'  975  10.372   4.957  10.248
   31DT     C2'  976  10.417   5.107  10.393
   31DT    H2'1  977  10.497   5.133  10.324
   31DT    H2'2  978  10.360   5.200  10.394
   31DT     O3'  979  10.198   5.036  10.340
   32DA       P  980  10.126   5.099  10.215
   32DA     O1P  981   9.987   5.052  10.201
   32DA     O2P  982  10.220   5.092  10.102
   32DA     O5'  983  10.118   5.252  10.262
   32DA     C5'  984  10.069   5.298  10.396
   32DA    H5'1  985  10.085   5.214  10.462
   32DA    H5'2  986   9.961   5.317  10.390
   32DA     C4'  987  10.120   5.430  10.447
   32DA     H4'  988  10.064   5.458  10.536
   32DA     O4'  989  10.263   5.425  10.471
   32DA     C1'  990  10.324   5.529  10.399
   32DA     H1'  991  10.311   5.614  10.466
   32DA      N9  992  10.471   5.500  10.379
   32DA      C8  993  10.529   5.440  10.272
   32DA      H8  994  10.466   5.386  10.203
   32DA      N7  995  10.664   5.440  10.267
   32DA      C5  996  10.693   5.517  10.377
   32DA      C6  997  10.811   5.562  10.438
   32DA      N6  998  10.927   5.556  10.379
   32DA     H61  999  11.005   5.603  10.423
   32DA     H62 1000  10.934   5.524  10.284
   32DA      N1 1001  10.812   5.626  10.557
   32DA      C2 1002  10.696   5.641  10.619
   32DA      H2 1003  10.701   5.696  10.712
   32DA      N3 1004  10.575   5.601  10.573
   32DA      C4 1005  10.581   5.541  10.452
   32DA     C3' 1006  10.101   5.544  10.339
   32DA     H3' 1007  10.024   5.516  10.266
   32DA     C2' 1008  10.240   5.534  10.274
   32DA    H2'1 1009  10.256   5.444  10.214
   32DA    H2'2 1010  10.266   5.625  10.221
   32DA     O3' 1011  10.087   5.675  10.394
   33DA       P 1012   9.940   5.715  10.448
   33DA     O1P 1013   9.860   5.586  10.478
   33DA     O2P 1014   9.875   5.813  10.359
   33DA     O5' 1015   9.954   5.796  10.586
   33DA     C5' 1016  10.027   5.734  10.695
   33DA    H5'1 1017  10.053   5.634  10.660
   33DA    H5'2 1018   9.981   5.715  10.792
   33DA     C4' 1019  10.160   5.812  10.724
   33DA     H4' 1020  10.202   5.779  10.818
   33DA     O4' 1021  10.243   5.782  10.615
   33DA     C1' 1022  10.336   5.894  10.606
   33DA     H1' 1023  10.394   5.893  10.698
   33DA      N9 1024  10.421   5.889  10.486
   33DA      C8 1025  10.380   5.838  10.366
   33DA      H8 1026  10.279   5.805  10.343
   33DA      N7 1027  10.476   5.834  10.276
   33DA      C5 1028  10.590   5.882  10.348
   33DA      C6 1029  10.729   5.883  10.328
   33DA      N6 1030  10.796   5.856  10.216
   33DA     H61 1031  10.897   5.868  10.219
   33DA     H62 1032  10.747   5.810  10.141
   33DA      N1 1033  10.814   5.933  10.423
   33DA      C2 1034  10.762   5.954  10.548
   33DA      H2 1035  10.839   5.990  10.615
   33DA      N3 1036  10.632   5.950  10.579
   33DA      C4 1037  10.554   5.914  10.477
   33DA     C3' 1038  10.137   5.962  10.720
   33DA     H3' 1039  10.036   5.990  10.692
   33DA     C2' 1040  10.243   6.010  10.622
   33DA    H2'1 1041  10.188   6.035  10.532
   33DA    H2'2 1042  10.307   6.092  10.655
   33DA     O3' 1043  10.169   6.002  10.854
   34DC       P 1044  10.137   6.149  10.915
   34DC     O1P 1045  10.130   6.144  11.061
   34DC     O2P 1046  10.019   6.196  10.840
   34DC     O5' 1047  10.262   6.251  10.889
   34DC     C5' 1048  10.396   6.232  10.933
   34DC    H5'1 1049  10.418   6.125  10.922
   34DC    H5'2 1050  10.404   6.257  11.039
   34DC     C4' 1051  10.501   6.306  10.849
   34DC     H4' 1052  10.592   6.296  10.908
   34DC     O4' 1053  10.533   6.242  10.727
   34DC     C1' 1054  10.565   6.351  10.645
   34DC     H1' 1055  10.665   6.385  10.670
   34DC      N1 1056  10.569   6.297  10.506
   34DC      C6 1057  10.447   6.264  10.444
   34DC      H6 1058  10.352   6.271  10.496
   34DC      C5 1059  10.456   6.217  10.317
   34DC      H5 1060  10.367   6.183  10.267
   34DC      C4 1061  10.581   6.208  10.251
   34DC      N4 1062  10.584   6.167  10.125
   34DC     H41 1063  10.672   6.185  10.078
   34DC     H42 1064  10.501   6.140  10.075
   34DC      N3 1065  10.695   6.259  10.308
   34DC      C2 1066  10.687   6.304  10.433
   34DC      O2 1067  10.794   6.341  10.480
   34DC     C3' 1068  10.457   6.455  10.832
   34DC     H3' 1069  10.355   6.482  10.861
   34DC     C2' 1070  10.454   6.452  10.680
   34DC    H2'1 1071  10.355   6.427  10.643
   34DC    H2'2 1072  10.481   6.549  10.638
   34DC     O3' 1073  10.548   6.531  10.902
   35DG       P 1074  10.560   6.689  10.881
   35DG     O1P 1075  10.565   6.747  11.012
   35DG     O2P 1076  10.447   6.733  10.803
   35DG     O5' 1077  10.696   6.716  10.803
   35DG     C5' 1078  10.818   6.663  10.842
   35DG    H5'1 1079  10.840   6.680  10.947
   35DG    H5'2 1080  10.824   6.555  10.830
   35DG     C4' 1081  10.928   6.736  10.775
   35DG     H4' 1082  11.024   6.706  10.818
   35DG     O4' 1083  10.937   6.698  10.641
   35DG     C1' 1084  10.900   6.803  10.553
   35DG     H1' 1085  10.987   6.835  10.496
   35DG      N9 1086  10.804   6.746  10.454
   35DG      C8 1087  10.675   6.707  10.471
   35DG      H8 1088  10.634   6.713  10.571
   35DG      N7 1089  10.618   6.655  10.371
   35DG      C5 1090  10.716   6.653  10.271
   35DG      C6 1091  10.726   6.595  10.141
   35DG      O6 1092  10.644   6.521  10.091
   35DG      N1 1093  10.843   6.618  10.075
   35DG      H1 1094  10.858   6.571   9.987
   35DG      C2 1095  10.945   6.684  10.130
   35DG      N2 1096  11.052   6.701  10.062
   35DG     H21 1097  11.061   6.665   9.968
   35DG     H22 1098  11.131   6.731  10.117
   35DG      N3 1099  10.950   6.737  10.247
   35DG      C4 1100  10.832   6.716  10.319
   35DG     C3' 1101  10.922   6.888  10.777
   35DG     H3' 1102  10.867   6.934  10.859
   35DG     C2' 1103  10.847   6.915  10.640
   35DG    H2'1 1104  10.740   6.908  10.661
   35DG    H2'2 1105  10.871   7.013  10.600
   35DG     O3' 1106  11.050   6.942  10.778
   36DC       P 1107  11.102   7.092  10.787
   36DC     O1P 1108  11.243   7.076  10.834
   36DC     O2P 1109  11.002   7.175  10.860
   36DC     O5' 1110  11.112   7.150  10.632
   36DC     C5' 1111  11.212   7.117  10.538
   36DC    H5'1 1112  11.219   7.008  10.533
   36DC    H5'2 1113  11.313   7.151  10.559
   36DC     C4' 1114  11.158   7.154  10.398
   36DC     H4' 1115  11.248   7.162  10.338
   36DC     O4' 1116  11.060   7.064  10.347
   36DC     C1' 1117  10.967   7.146  10.287
   36DC     H1' 1118  11.008   7.193  10.198
   36DC      N1 1119  10.845   7.080  10.233
   36DC      C6 1120  10.734   7.057  10.306
   36DC      H6 1121  10.735   7.110  10.399
   36DC      C5 1122  10.634   6.983  10.260
   36DC      H5 1123  10.543   6.958  10.314
   36DC      C4 1124  10.643   6.934  10.126
   36DC      N4 1125  10.540   6.886  10.070
   36DC     H41 1126  10.555   6.864   9.972
   36DC     H42 1127  10.453   6.865  10.118
   36DC      N3 1128  10.748   6.953  10.053
   36DC      C2 1129  10.850   7.027  10.107
   36DC      O2 1130  10.954   7.032  10.038
   36DC     C3' 1131  11.091   7.299  10.403
   36DC     H3' 1132  11.103   7.351  10.498
   36DC     C2' 1133  10.945   7.265  10.383
   36DC    H2'1 1134  10.893   7.236  10.474
   36DC    H2'2 1135  10.890   7.346  10.335
   36DC     O3' 1136  11.145   7.380  10.289
   37DA       P 1137  11.216   7.513  10.319
   37DA     O1P 1138  11.318   7.493  10.421
   37DA     O2P 1139  11.123   7.626  10.326
   37DA     O5' 1140  11.301   7.542  10.192
   37DA     C5' 1141  11.395   7.449  10.139
   37DA    H5'1 1142  11.389   7.348  10.180
   37DA    H5'2 1143  11.499   7.481  10.138
   37DA     C4' 1144  11.369   7.427   9.990
   37DA     H4' 1145  11.458   7.373   9.958
   37DA     O4' 1146  11.259   7.340   9.987
   37DA     C1' 1147  11.166   7.404   9.899
   37DA     H1' 1148  11.184   7.365   9.798
   37DA      N9 1149  11.028   7.367   9.931
   37DA      C8 1150  10.954   7.398  10.044
   37DA      H8 1151  10.996   7.453  10.127
   37DA      N7 1152  10.829   7.362  10.048
   37DA      C5 1153  10.816   7.298   9.920
   37DA      C6 1154  10.704   7.237   9.861
   37DA      N6 1155  10.592   7.217   9.916
   37DA     H61 1156  10.523   7.164   9.864
   37DA     H62 1157  10.571   7.255  10.007
   37DA      N1 1158  10.715   7.189   9.737
   37DA      C2 1159  10.829   7.205   9.675
   37DA      H2 1160  10.828   7.173   9.572
   37DA      N3 1161  10.941   7.262   9.715
   37DA      C4 1162  10.931   7.310   9.842
   37DA     C3' 1163  11.344   7.546   9.899
   37DA     H3' 1164  11.368   7.641   9.947
   37DA     C2' 1165  11.191   7.549   9.892
   37DA    H2'1 1166  11.139   7.597   9.974
   37DA    H2'2 1167  11.156   7.600   9.803
   37DA     O3' 1168  11.410   7.536   9.776
   38DT       P 1169  11.382   7.636   9.652
   38DT     O1P 1170  11.503   7.626   9.573
   38DT     O2P 1171  11.339   7.766   9.702
   38DT     O5' 1172  11.264   7.583   9.558
   38DT     C5' 1173  11.282   7.457   9.493
   38DT    H5'1 1174  11.262   7.371   9.557
   38DT    H5'2 1175  11.379   7.452   9.443
   38DT     C4' 1176  11.174   7.449   9.380
   38DT     H4' 1177  11.205   7.369   9.313
   38DT     O4' 1178  11.052   7.401   9.441
   38DT     C1' 1179  10.951   7.493   9.413
   38DT     H1' 1180  10.907   7.457   9.320
   38DT      N1 1181  10.849   7.513   9.521
   38DT      C6 1182  10.872   7.609   9.629
   38DT      H6 1183  10.972   7.647   9.642
   38DT      C5 1184  10.780   7.636   9.725
   38DT      C7 1185  10.822   7.731   9.832
   38DT     H71 1186  10.804   7.681   9.928
   38DT     H72 1187  10.930   7.745   9.829
   38DT     H73 1188  10.768   7.825   9.823
   38DT      C4 1189  10.643   7.582   9.707
   38DT      O4 1190  10.538   7.609   9.772
   38DT      N3 1191  10.625   7.490   9.603
   38DT      H3 1192  10.530   7.463   9.582
   38DT      C2 1193  10.723   7.453   9.510
   38DT      O2 1194  10.703   7.370   9.423
   38DT     C3' 1195  11.146   7.580   9.299
   38DT     H3' 1196  11.228   7.651   9.312
   38DT     C2' 1197  11.026   7.625   9.377
   38DT    H2'1 1198  11.056   7.684   9.464
   38DT    H2'2 1199  10.969   7.693   9.315
   38DT     O3' 1200  11.108   7.541   9.166
   39DA       P 1201  11.153   7.619   9.034
   39DA     O1P 1202  11.270   7.542   8.978
   39DA     O2P 1203  11.164   7.766   9.057
   39DA     O5' 1204  11.028   7.591   8.935
   39DA     C5' 1205  11.016   7.466   8.871
   39DA    H5'1 1206  11.030   7.388   8.946
   39DA    H5'2 1207  11.088   7.451   8.790
   39DA     C4' 1208  10.872   7.463   8.803
   39DA     H4' 1209  10.867   7.372   8.744
   39DA     O4' 1210  10.766   7.468   8.904
   39DA     C1' 1211  10.701   7.594   8.900
   39DA     H1' 1212  10.598   7.573   8.870
   39DA      N9 1213  10.689   7.660   9.035
   39DA      C8 1214  10.782   7.745   9.101
   39DA      H8 1215  10.871   7.776   9.048
   39DA      N7 1216  10.744   7.777   9.222
   39DA      C5 1217  10.626   7.707   9.240
   39DA      C6 1218  10.525   7.704   9.336
   39DA      N6 1219  10.529   7.776   9.449
   39DA     H61 1220  10.453   7.762   9.515
   39DA     H62 1221  10.611   7.831   9.468
   39DA      N1 1222  10.412   7.640   9.321
   39DA      C2 1223  10.396   7.576   9.205
   39DA      H2 1224  10.297   7.533   9.192
   39DA      N3 1225  10.481   7.566   9.105
   39DA      C4 1226  10.589   7.642   9.127
   39DA     C3' 1227  10.838   7.574   8.704
   39DA     H3' 1228  10.928   7.610   8.654
   39DA     C2' 1229  10.777   7.678   8.792
   39DA    H2'1 1230  10.850   7.745   8.839
   39DA    H2'2 1231  10.718   7.742   8.727
   39DA     O3' 1232  10.755   7.532   8.605
   40DC       P 1233  10.720   7.609   8.464
   40DC     O1P 1234  10.692   7.508   8.361
   40DC     O2P 1235  10.829   7.710   8.442
   40DC     O5' 1236  10.586   7.684   8.502
   40DC     C5' 1237  10.469   7.602   8.537
   40DC    H5'1 1238  10.512   7.521   8.596
   40DC    H5'2 1239  10.424   7.559   8.448
   40DC     C4' 1240  10.361   7.682   8.607
   40DC     H4' 1241  10.272   7.619   8.610
   40DC     O4' 1242  10.402   7.732   8.733
   40DC     C1' 1243  10.359   7.864   8.749
   40DC     H1' 1244  10.250   7.871   8.753
   40DC      N1 1245  10.417   7.918   8.871
   40DC      C6 1246  10.540   7.974   8.868
   40DC      H6 1247  10.608   7.967   8.784
   40DC      C5 1248  10.587   8.041   8.981
   40DC      H5 1249  10.688   8.080   8.985
   40DC      C4 1250  10.506   8.032   9.097
   40DC      N4 1251  10.557   8.064   9.214
   40DC     H41 1252  10.500   8.053   9.297
   40DC     H42 1253  10.649   8.104   9.226
   40DC      N3 1254  10.388   7.965   9.101
   40DC      C2 1255  10.344   7.907   8.991
   40DC      O2 1256  10.229   7.855   8.992
   40DC     C3' 1257  10.321   7.801   8.528
   40DC     H3' 1258  10.362   7.792   8.427
   40DC     C2' 1259  10.387   7.915   8.610
   40DC    H2'1 1260  10.490   7.928   8.577
   40DC    H2'2 1261  10.354   8.019   8.606
   40DC     O3' 1262  10.181   7.816   8.527
   41DG       P 1263  10.084   7.769   8.408
   41DG     O1P 1264  10.130   7.642   8.365
   41DG     O2P 1265  10.074   7.876   8.308
   41DG     O5' 1266   9.941   7.757   8.475
   41DG     C5' 1267   9.912   7.669   8.578
   41DG    H5'1 1268   9.865   7.578   8.542
   41DG    H5'2 1269  10.007   7.639   8.621
   41DG     C4' 1270   9.833   7.734   8.691
   41DG     H4' 1271   9.783   7.648   8.737
   41DG     O4' 1272   9.908   7.799   8.791
   41DG     C1' 1273   9.864   7.936   8.798
   41DG     H1' 1274   9.798   7.942   8.884
   41DG      N9 1275   9.980   8.025   8.824
   41DG      C8 1276  10.076   8.060   8.733
   41DG      H8 1277  10.095   8.015   8.637
   41DG      N7 1278  10.160   8.145   8.785
   41DG      C5 1279  10.122   8.167   8.917
   41DG      C6 1280  10.184   8.230   9.030
   41DG      O6 1281  10.298   8.281   9.040
   41DG      N1 1282  10.105   8.241   9.142
   41DG      H1 1283  10.137   8.299   9.218
   41DG      C2 1284   9.977   8.195   9.138
   41DG      N2 1285   9.912   8.216   9.244
   41DG     H21 1286   9.955   8.264   9.321
   41DG     H22 1287   9.815   8.186   9.246
   41DG      N3 1288   9.917   8.125   9.040
   41DG      C4 1289   9.996   8.112   8.930
   41DG     C3' 1290   9.725   7.836   8.653
   41DG     H3' 1291   9.699   7.816   8.549
   41DG     C2' 1292   9.793   7.967   8.673
   41DG    H2'1 1293   9.860   7.984   8.589
   41DG    H2'2 1294   9.722   8.049   8.681
   41DG     O3' 1295   9.602   7.813   8.723
   42DC       P 1296   9.466   7.896   8.688
   42DC     O1P 1297   9.352   7.815   8.732
   42DC     O2P 1298   9.472   7.936   8.551
   42DC     O5' 1299   9.489   8.026   8.787
   42DC     C5' 1300   9.462   8.009   8.928
   42DC    H5'1 1301   9.523   7.931   8.972
   42DC    H5'2 1302   9.359   7.983   8.953
   42DC     C4' 1303   9.490   8.144   9.005
   42DC     H4' 1304   9.496   8.123   9.112
   42DC     O4' 1305   9.624   8.183   8.979
   42DC     C1' 1306   9.622   8.327   8.966
   42DC     H1' 1307   9.617   8.374   9.064
   42DC      N1 1308   9.750   8.364   8.900
   42DC      C6 1309   9.772   8.336   8.770
   42DC      H6 1310   9.695   8.290   8.710
   42DC      C5 1311   9.895   8.361   8.714
   42DC      H5 1312   9.901   8.343   8.608
   42DC      C4 1313   9.993   8.419   8.790
   42DC      N4 1314  10.110   8.458   8.746
   42DC     H41 1315  10.161   8.524   8.803
   42DC     H42 1316  10.140   8.422   8.657
   42DC      N3 1317   9.974   8.460   8.912
   42DC      C2 1318   9.854   8.436   8.970
   42DC      O2 1319   9.832   8.482   9.083
   42DC     C3' 1320   9.405   8.266   8.974
   42DC     H3' 1321   9.323   8.238   8.907
   42DC     C2' 1322   9.496   8.355   8.895
   42DC    H2'1 1323   9.497   8.305   8.798
   42DC    H2'2 1324   9.470   8.460   8.899
   42DC     O3' 1325   9.352   8.324   9.090
   43DA       P 1326   9.218   8.409   9.083
   43DA     O1P 1327   9.158   8.409   9.218
   43DA     O2P 1328   9.135   8.372   8.968
   43DA     O5' 1329   9.288   8.553   9.068
   43DA     C5' 1330   9.299   8.639   9.181
   43DA    H5'1 1331   9.368   8.589   9.249
   43DA    H5'2 1332   9.198   8.658   9.216
   43DA     C4' 1333   9.367   8.771   9.142
   43DA     H4' 1334   9.368   8.845   9.221
   43DA     O4' 1335   9.501   8.737   9.084
   43DA     C1' 1336   9.525   8.807   8.963
   43DA     H1' 1337   9.549   8.909   8.992
   43DA      N9 1338   9.635   8.762   8.872
   43DA      C8 1339   9.633   8.713   8.740
   43DA      H8 1340   9.541   8.690   8.688
   43DA      N7 1341   9.753   8.711   8.687
   43DA      C5 1342   9.843   8.746   8.788
   43DA      C6 1343   9.980   8.779   8.794
   43DA      N6 1344  10.069   8.757   8.699
   43DA     H61 1345  10.164   8.790   8.711
   43DA     H62 1346  10.037   8.711   8.615
   43DA      N1 1347  10.039   8.824   8.904
   43DA      C2 1348   9.959   8.858   9.008
   43DA      H2 1349  10.004   8.910   9.091
   43DA      N3 1350   9.824   8.853   9.010
   43DA      C4 1351   9.773   8.790   8.900
   43DA     C3' 1352   9.297   8.831   9.018
   43DA     H3' 1353   9.192   8.802   9.021
   43DA     C2' 1354   9.385   8.794   8.900
   43DA    H2'1 1355   9.367   8.692   8.868
   43DA    H2'2 1356   9.359   8.867   8.823
   43DA     O3' 1357   9.286   8.969   9.022
   44DC       P 1358   9.162   9.047   9.083
   44DC     O1P 1359   9.133   8.975   9.206
   44DC     O2P 1360   9.057   9.057   8.981
   44DC     O5' 1361   9.213   9.199   9.123
   44DC     C5' 1362   9.296   9.221   9.234
   44DC    H5'1 1363   9.316   9.119   9.268
   44DC    H5'2 1364   9.241   9.278   9.308
   44DC     C4' 1365   9.440   9.278   9.206
   44DC     H4' 1366   9.488   9.287   9.304
   44DC     O4' 1367   9.514   9.188   9.125
   44DC     C1' 1368   9.592   9.269   9.033
   44DC     H1' 1369   9.678   9.312   9.084
   44DC      N1 1370   9.643   9.184   8.921
   44DC      C6 1371   9.557   9.116   8.835
   44DC      H6 1372   9.450   9.118   8.854
   44DC      C5 1373   9.612   9.059   8.722
   44DC      H5 1374   9.544   9.011   8.653
   44DC      C4 1375   9.753   9.073   8.704
   44DC      N4 1376   9.811   9.027   8.601
   44DC     H41 1377   9.912   9.028   8.597
   44DC     H42 1378   9.758   8.965   8.541
   44DC      N3 1379   9.832   9.136   8.790
   44DC      C2 1380   9.778   9.191   8.900
   44DC      O2 1381   9.857   9.245   8.973
   44DC     C3' 1382   9.439   9.410   9.131
   44DC     H3' 1383   9.337   9.450   9.130
   44DC     C2' 1384   9.493   9.378   8.993
   44DC    H2'1 1385   9.414   9.331   8.934
   44DC    H2'2 1386   9.547   9.454   8.936
   44DC     O3' 1387   9.521   9.514   9.195
   45DA       P 1388   9.486   9.668   9.161
   45DA     O1P 1389   9.445   9.746   9.283
   45DA     O2P 1390   9.406   9.679   9.037
   45DA     O5' 1391   9.628   9.720   9.114
   45DA     C5' 1392   9.726   9.717   9.210
   45DA    H5'1 1393   9.746   9.614   9.238
   45DA    H5'2 1394   9.684   9.776   9.291
   45DA     C4' 1395   9.869   9.780   9.181
   45DA     H4' 1396   9.923   9.791   9.276
   45DA     O4' 1397   9.945   9.702   9.090
   45DA     C1' 1398   9.947   9.763   8.961
   45DA     H1' 1399  10.049   9.799   8.945
   45DA      N9 1400   9.917   9.670   8.853
   45DA      C8 1401   9.812   9.582   8.857
   45DA      H8 1402   9.750   9.573   8.945
   45DA      N7 1403   9.811   9.501   8.756
   45DA      C5 1404   9.918   9.541   8.676
   45DA      C6 1405   9.973   9.498   8.553
   45DA      N6 1406   9.926   9.400   8.479
   45DA     H61 1407   9.984   9.359   8.407
   45DA     H62 1408   9.845   9.345   8.504
   45DA      N1 1409  10.085   9.556   8.511
   45DA      C2 1410  10.142   9.655   8.583
   45DA      H2 1411  10.238   9.688   8.545
   45DA      N3 1412  10.100   9.696   8.700
   45DA      C4 1413   9.984   9.640   8.742
   45DA     C3' 1414   9.848   9.922   9.120
   45DA     H3' 1415   9.748   9.959   9.144
   45DA     C2' 1416   9.860   9.892   8.973
   45DA    H2'1 1417   9.764   9.898   8.922
   45DA    H2'2 1418   9.911   9.970   8.916
   45DA     O3' 1419   9.943  10.022   9.165
   46DT       P 1420   9.929  10.173   9.159
   46DT     O1P 1421  10.028  10.238   9.246
   46DT     O2P 1422   9.791  10.214   9.173
   46DT     O5' 1423   9.976  10.197   9.001
   46DT     C5' 1424  10.109  10.166   8.959
   46DT    H5'1 1425  10.118  10.058   8.971
   46DT    H5'2 1426  10.182  10.227   9.012
   46DT     C4' 1427  10.129  10.198   8.810
   46DT     H4' 1428  10.236  10.206   8.790
   46DT     O4' 1429  10.077  10.098   8.725
   46DT     C1' 1430  10.011  10.154   8.614
   46DT     H1' 1431  10.092  10.186   8.548
   46DT      N1 1432   9.926  10.041   8.557
   46DT      C6 1433   9.809   9.999   8.613
   46DT      H6 1434   9.770  10.061   8.693
   46DT      C5 1435   9.753   9.893   8.569
   46DT      C7 1436   9.628   9.838   8.642
   46DT     H71 1437   9.557   9.788   8.576
   46DT     H72 1438   9.648   9.763   8.719
   46DT     H73 1439   9.574   9.924   8.679
   46DT      C4 1440   9.804   9.815   8.459
   46DT      O4 1441   9.754   9.715   8.410
   46DT      N3 1442   9.920   9.864   8.402
   46DT      H3 1443   9.965   9.809   8.330
   46DT      C2 1444   9.983   9.980   8.445
   46DT      O2 1445  10.092  10.016   8.392
   46DT     C3' 1446  10.065  10.331   8.766
   46DT     H3' 1447  10.014  10.385   8.846
   46DT     C2' 1448   9.955  10.283   8.672
   46DT    H2'1 1449   9.869  10.259   8.734
   46DT    H2'2 1450   9.924  10.350   8.592
   46DT     O3' 1451  10.168  10.404   8.700
   47DG       P 1452  10.148  10.555   8.650
   47DG     O1P 1453  10.284  10.612   8.635
   47DG     O2P 1454  10.045  10.627   8.736
   47DG     O5' 1455  10.076  10.544   8.512
   47DG     C5' 1456  10.144  10.482   8.406
   47DG    H5'1 1457  10.200  10.393   8.434
   47DG    H5'2 1458  10.215  10.552   8.362
   47DG     C4' 1459  10.039  10.447   8.301
   47DG     H4' 1460  10.093  10.443   8.207
   47DG     O4' 1461   9.977  10.326   8.333
   47DG     C1' 1462   9.851  10.339   8.265
   47DG     H1' 1463   9.877  10.332   8.159
   47DG      N9 1464   9.748  10.230   8.306
   47DG      C8 1465   9.645  10.237   8.394
   47DG      H8 1466   9.634  10.314   8.469
   47DG      N7 1467   9.567  10.127   8.393
   47DG      C5 1468   9.631  10.047   8.298
   47DG      C6 1469   9.597   9.918   8.246
   47DG      O6 1470   9.508   9.843   8.277
   47DG      N1 1471   9.668   9.886   8.131
   47DG      H1 1472   9.661   9.791   8.095
   47DG      C2 1473   9.770   9.958   8.089
   47DG      N2 1474   9.838   9.904   7.988
   47DG     H21 1475   9.809   9.819   7.943
   47DG     H22 1476   9.926   9.950   7.969
   47DG      N3 1477   9.820  10.066   8.143
   47DG      C4 1478   9.743  10.110   8.246
   47DG     C3' 1479   9.936  10.555   8.267
   47DG     H3' 1480   9.944  10.647   8.326
   47DG     C2' 1481   9.813  10.482   8.302
   47DG    H2'1 1482   9.796  10.499   8.409
   47DG    H2'2 1483   9.723  10.519   8.253
   47DG     O3' 1484   9.943  10.586   8.128
   48DC3      P 1485   9.964  10.732   8.084
   48DC3    O1P 1486  10.089  10.786   8.136
   48DC3    O2P 1487   9.840  10.809   8.113
   48DC3    O5' 1488   9.974  10.743   7.928
   48DC3    C5' 1489  10.065  10.660   7.854
   48DC3   H5'1 1490  10.123  10.598   7.923
   48DC3   H5'2 1491  10.142  10.713   7.798
   48DC3    C4' 1492   9.992  10.578   7.744
   48DC3    H4' 1493  10.063  10.530   7.678
   48DC3    O4' 1494   9.927  10.474   7.810
   48DC3    C1' 1495   9.795  10.465   7.754
   48DC3    H1' 1496   9.799  10.406   7.662
   48DC3     N1 1497   9.702  10.400   7.862
   48DC3     C6 1498   9.645  10.468   7.974
   48DC3     H6 1499   9.676  10.570   7.991
   48DC3     C5 1500   9.554  10.406   8.052
   48DC3     H5 1501   9.505  10.455   8.135
   48DC3     C4 1502   9.523  10.269   8.024
   48DC3     N4 1503   9.428  10.206   8.086
   48DC3    H41 1504   9.398  10.121   8.042
   48DC3    H42 1505   9.370  10.261   8.148
   48DC3     N3 1506   9.586  10.203   7.929
   48DC3     C2 1507   9.675  10.262   7.849
   48DC3     O2 1508   9.721  10.187   7.758
   48DC3    C3' 1509   9.884  10.653   7.662
   48DC3    H3' 1510   9.889  10.761   7.674
   48DC3    C2' 1511   9.747  10.606   7.717
   48DC3   H2'1 1512   9.716  10.666   7.803
   48DC3   H2'2 1513   9.661  10.601   7.651
   48DC3    O3' 1514   9.892  10.631   7.519
   48DC3    H3T 1515   9.906  10.717   7.479
   49DT5    H5T 1516  11.201   6.369  11.138
   49DT5    O5' 1517  11.236   6.413  11.060
   49DT5    C5' 1518  11.272   6.302  10.979
   49DT5   H5'1 1519  11.375   6.276  11.003
   49DT5   H5'2 1520  11.271   6.344  10.878
   49DT5    C4' 1521  11.184   6.181  11.002
   49DT5    H4' 1522  11.079   6.209  11.004
   49DT5    O4' 1523  11.195   6.100  10.887
   49DT5    C1' 1524  11.159   5.973  10.927
   49DT5    H1' 1525  11.055   5.971  10.960
   49DT5     N1 1526  11.176   5.884  10.814
   49DT5     C6 1527  11.296   5.849  10.768
   49DT5     H6 1528  11.391   5.883  10.805
   49DT5     C5 1529  11.297   5.771  10.653
   49DT5     C7 1530  11.427   5.733  10.587
   49DT5    H71 1531  11.420   5.626  10.566
   49DT5    H72 1532  11.441   5.785  10.493
   49DT5    H73 1533  11.513   5.741  10.653
   49DT5     C4 1534  11.176   5.732  10.589
   49DT5     O4 1535  11.163   5.662  10.489
   49DT5     N3 1536  11.061   5.766  10.651
   49DT5     H3 1537  10.971   5.728  10.623
   49DT5     C2 1538  11.057   5.832  10.768
   49DT5     O2 1539  10.941   5.854  10.810
   49DT5    C3' 1540  11.230   6.096  11.121
   49DT5    H3' 1541  11.321   6.141  11.160
   49DT5    C2' 1542  11.249   5.959  11.054
   49DT5   H2'1 1543  11.352   5.947  11.020
   49DT5   H2'2 1544  11.215   5.874  11.112
   49DT5    O3' 1545  11.118   6.082  11.207
   50DA       P 1546  11.108   6.177  11.335
   50DA     O1P 1547  11.118   6.322  11.297
   50DA     O2P 1548  11.216   6.129  11.425
   50DA     O5' 1549  10.968   6.144  11.400
   50DA     C5' 1550  10.840   6.185  11.352
   50DA    H5'1 1551  10.845   6.216  11.248
   50DA    H5'2 1552  10.806   6.265  11.418
   50DA     C4' 1553  10.738   6.069  11.341
   50DA     H4' 1554  10.639   6.113  11.328
   50DA     O4' 1555  10.763   5.988  11.228
   50DA     C1' 1556  10.727   5.858  11.254
   50DA     H1' 1557  10.619   5.850  11.238
   50DA      N9 1558  10.821   5.772  11.172
   50DA      C8 1559  10.958   5.768  11.181
   50DA      H8 1560  11.011   5.826  11.255
   50DA      N7 1561  11.012   5.687  11.099
   50DA      C5 1562  10.901   5.626  11.035
   50DA      C6 1563  10.883   5.532  10.930
   50DA      N6 1564  10.985   5.468  10.874
   50DA     H61 1565  10.967   5.392  10.810
   50DA     H62 1566  11.077   5.499  10.903
   50DA      N1 1567  10.769   5.478  10.899
   50DA      C2 1568  10.665   5.530  10.956
   50DA      H2 1569  10.575   5.489  10.913
   50DA      N3 1570  10.659   5.628  11.045
   50DA      C4 1571  10.785   5.673  11.085
   50DA     C3' 1572  10.724   5.983  11.461
   50DA     H3' 1573  10.799   6.006  11.536
   50DA     C2' 1574  10.740   5.839  11.405
   50DA    H2'1 1575  10.836   5.800  11.436
   50DA    H2'2 1576  10.658   5.774  11.437
   50DA     O3' 1577  10.596   6.007  11.515
   51DT       P 1578  10.515   5.911  11.623
   51DT     O1P 1579  10.402   5.988  11.673
   51DT     O2P 1580  10.607   5.844  11.716
   51DT     O5' 1581  10.461   5.791  11.534
   51DT     C5' 1582  10.349   5.806  11.444
   51DT    H5'1 1583  10.363   5.885  11.370
   51DT    H5'2 1584  10.258   5.830  11.499
   51DT     C4' 1585  10.332   5.666  11.389
   51DT     H4' 1586  10.243   5.669  11.327
   51DT     O4' 1587  10.440   5.630  11.305
   51DT     C1' 1588  10.454   5.490  11.301
   51DT     H1' 1589  10.390   5.448  11.223
   51DT      N1 1590  10.594   5.443  11.283
   51DT      C6 1591  10.702   5.495  11.355
   51DT      H6 1592  10.679   5.564  11.435
   51DT      C5 1593  10.830   5.456  11.333
   51DT      C7 1594  10.937   5.512  11.414
   51DT     H71 1595  11.009   5.561  11.349
   51DT     H72 1596  10.899   5.583  11.488
   51DT     H73 1597  10.991   5.430  11.461
   51DT      C4 1598  10.859   5.364  11.229
   51DT      O4 1599  10.971   5.348  11.184
   51DT      N3 1600  10.746   5.302  11.174
   51DT      H3 1601  10.752   5.220  11.115
   51DT      C2 1602  10.617   5.331  11.201
   51DT      O2 1603  10.524   5.278  11.142
   51DT     C3' 1604  10.312   5.549  11.487
   51DT     H3' 1605  10.357   5.572  11.584
   51DT     C2' 1606  10.396   5.435  11.428
   51DT    H2'1 1607  10.474   5.408  11.500
   51DT    H2'2 1608  10.329   5.351  11.408
   51DT     O3' 1609  10.174   5.518  11.510
   52DG       P 1610  10.127   5.400  11.613
   52DG     O1P 1611   9.982   5.423  11.626
   52DG     O2P 1612  10.219   5.408  11.731
   52DG     O5' 1613  10.148   5.263  11.543
   52DG     C5' 1614  10.068   5.221  11.439
   52DG    H5'1 1615  10.105   5.267  11.347
   52DG    H5'2 1616   9.964   5.251  11.451
   52DG     C4' 1617  10.067   5.072  11.412
   52DG     H4' 1618   9.992   5.048  11.337
   52DG     O4' 1619  10.194   5.032  11.358
   52DG     C1' 1620  10.268   4.956  11.455
   52DG     H1' 1621  10.278   4.853  11.422
   52DG      N9 1622  10.405   5.019  11.463
   52DG      C8 1623  10.446   5.134  11.529
   52DG      H8 1624  10.375   5.200  11.576
   52DG      N7 1625  10.573   5.158  11.532
   52DG      C5 1626  10.621   5.059  11.450
   52DG      C6 1627  10.756   5.033  11.403
   52DG      O6 1628  10.862   5.102  11.422
   52DG      N1 1629  10.768   4.933  11.309
   52DG      H1 1630  10.860   4.918  11.270
   52DG      C2 1631  10.664   4.857  11.272
   52DG      N2 1632  10.683   4.757  11.192
   52DG     H21 1633  10.777   4.749  11.154
   52DG     H22 1634  10.605   4.698  11.169
   52DG      N3 1635  10.534   4.875  11.308
   52DG      C4 1636  10.518   4.978  11.395
   52DG     C3' 1637  10.045   4.988  11.540
   52DG     H3' 1638   9.981   5.030  11.618
   52DG     C2' 1639  10.190   4.951  11.579
   52DG    H2'1 1640  10.223   5.030  11.647
   52DG    H2'2 1641  10.190   4.855  11.631
   52DG     O3' 1642   9.976   4.874  11.493
   53DC       P 1643   9.916   4.752  11.579
   53DC     O1P 1644   9.791   4.702  11.514
   53DC     O2P 1645   9.905   4.803  11.719
   53DC     O5' 1646  10.025   4.632  11.578
   53DC     C5' 1647  10.062   4.565  11.464
   53DC    H5'1 1648  10.063   4.646  11.390
   53DC    H5'2 1649   9.979   4.503  11.430
   53DC     C4' 1650  10.194   4.480  11.472
   53DC     H4' 1651  10.211   4.413  11.387
   53DC     O4' 1652  10.299   4.580  11.461
   53DC     C1' 1653  10.399   4.544  11.550
   53DC     H1' 1654  10.447   4.456  11.507
   53DC      N1 1655  10.505   4.648  11.581
   53DC      C6 1656  10.474   4.746  11.680
   53DC      H6 1657  10.375   4.745  11.721
   53DC      C5 1658  10.570   4.840  11.717
   53DC      H5 1659  10.554   4.925  11.781
   53DC      C4 1660  10.697   4.819  11.657
   53DC      N4 1661  10.799   4.897  11.687
   53DC     H41 1662  10.884   4.858  11.649
   53DC     H42 1663  10.794   4.981  11.743
   53DC      N3 1664  10.729   4.722  11.572
   53DC      C2 1665  10.635   4.635  11.530
   53DC      O2 1666  10.670   4.546  11.450
   53DC     C3' 1667  10.209   4.404  11.595
   53DC     H3' 1668  10.117   4.382  11.650
   53DC     C2' 1669  10.312   4.496  11.668
   53DC    H2'1 1670  10.262   4.579  11.718
   53DC    H2'2 1671  10.369   4.431  11.734
   53DC     O3' 1672  10.280   4.280  11.576
   54DG       P 1673  10.200   4.147  11.541
   54DG     O1P 1674  10.109   4.162  11.428
   54DG     O2P 1675  10.147   4.096  11.666
   54DG     O5' 1676  10.321   4.057  11.485
   54DG     C5' 1677  10.356   4.052  11.342
   54DG    H5'1 1678  10.327   4.146  11.294
   54DG    H5'2 1679  10.290   3.981  11.291
   54DG     C4' 1680  10.500   4.014  11.310
   54DG     H4' 1681  10.507   3.993  11.204
   54DG     O4' 1682  10.596   4.115  11.357
   54DG     C1' 1683  10.663   4.055  11.461
   54DG     H1' 1684  10.761   4.022  11.429
   54DG      N9 1685  10.674   4.151  11.574
   54DG      C8 1686  10.572   4.190  11.657
   54DG      H8 1687  10.471   4.153  11.647
   54DG      N7 1688  10.612   4.282  11.739
   54DG      C5 1689  10.747   4.301  11.716
   54DG      C6 1690  10.837   4.396  11.768
   54DG      O6 1691  10.817   4.495  11.832
   54DG      N1 1692  10.964   4.379  11.721
   54DG      H1 1693  11.032   4.451  11.737
   54DG      C2 1694  10.997   4.288  11.624
   54DG      N2 1695  11.118   4.305  11.567
   54DG     H21 1696  11.183   4.371  11.607
   54DG     H22 1697  11.147   4.243  11.493
   54DG      N3 1698  10.917   4.205  11.562
   54DG      C4 1699  10.787   4.218  11.609
   54DG     C3' 1700  10.534   3.881  11.368
   54DG     H3' 1701  10.450   3.814  11.386
   54DG     C2' 1702  10.590   3.918  11.503
   54DG    H2'1 1703  10.516   3.943  11.580
   54DG    H2'2 1704  10.663   3.845  11.537
   54DG     O3' 1705  10.624   3.819  11.284
   55DC       P 1706  10.633   3.657  11.282
   55DC     O1P 1707  10.690   3.622  11.154
   55DC     O2P 1708  10.507   3.590  11.318
   55DC     O5' 1709  10.742   3.635  11.395
   55DC     C5' 1710  10.874   3.669  11.363
   55DC    H5'1 1711  10.874   3.751  11.291
   55DC    H5'2 1712  10.917   3.583  11.311
   55DC     C4' 1713  10.963   3.713  11.483
   55DC     H4' 1714  11.062   3.737  11.447
   55DC     O4' 1715  10.900   3.829  11.546
   55DC     C1' 1716  10.923   3.804  11.690
   55DC     H1' 1717  11.029   3.806  11.713
   55DC      N1 1718  10.860   3.909  11.773
   55DC      C6 1719  10.734   3.900  11.816
   55DC      H6 1720  10.672   3.818  11.780
   55DC      C5 1721  10.686   3.984  11.912
   55DC      H5 1722  10.595   3.958  11.963
   55DC      C4 1723  10.776   4.080  11.962
   55DC      N4 1724  10.734   4.175  12.035
   55DC     H41 1725  10.805   4.246  12.046
   55DC     H42 1726  10.645   4.164  12.081
   55DC      N3 1727  10.897   4.092  11.918
   55DC      C2 1728  10.945   3.995  11.834
   55DC      O2 1729  11.062   4.001  11.805
   55DC     C3' 1730  10.962   3.601  11.587
   55DC     H3' 1731  10.914   3.511  11.548
   55DC     C2' 1732  10.877   3.656  11.701
   55DC    H2'1 1733  10.770   3.651  11.680
   55DC    H2'2 1734  10.894   3.612  11.799
   55DC     O3' 1735  11.094   3.582  11.634
   56DG       P 1736  11.157   3.434  11.635
   56DG     O1P 1737  11.190   3.393  11.500
   56DG     O2P 1738  11.077   3.354  11.728
   56DG     O5' 1739  11.300   3.451  11.716
   56DG     C5' 1740  11.391   3.546  11.660
   56DG    H5'1 1741  11.341   3.612  11.589
   56DG    H5'2 1742  11.469   3.489  11.611
   56DG     C4' 1743  11.441   3.639  11.772
   56DG     H4' 1744  11.509   3.700  11.713
   56DG     O4' 1745  11.337   3.718  11.827
   56DG     C1' 1746  11.360   3.727  11.968
   56DG     H1' 1747  11.433   3.805  11.986
   56DG      N9 1748  11.233   3.752  12.031
   56DG      C8 1749  11.121   3.677  12.015
   56DG      H8 1750  11.121   3.603  11.937
   56DG      N7 1751  11.016   3.732  12.066
   56DG      C5 1752  11.062   3.851  12.128
   56DG      C6 1753  10.999   3.956  12.206
   56DG      O6 1754  10.883   3.971  12.240
   56DG      N1 1755  11.090   4.055  12.239
   56DG      H1 1756  11.056   4.141  12.280
   56DG      C2 1757  11.224   4.053  12.206
   56DG      N2 1758  11.290   4.139  12.277
   56DG     H21 1759  11.242   4.215  12.322
   56DG     H22 1760  11.390   4.148  12.287
   56DG      N3 1761  11.282   3.962  12.133
   56DG      C4 1762  11.195   3.862  12.098
   56DG     C3' 1763  11.514   3.570  11.887
   56DG     H3' 1764  11.510   3.463  11.870
   56DG     C2' 1765  11.422   3.601  12.009
   56DG    H2'1 1766  11.344   3.526  12.020
   56DG    H2'2 1767  11.483   3.617  12.098
   56DG     O3' 1768  11.643   3.635  11.913
   57DT       P 1769  11.758   3.573  12.003
   57DT     O1P 1770  11.882   3.613  11.932
   57DT     O2P 1771  11.730   3.436  12.043
   57DT     O5' 1772  11.749   3.666  12.135
   57DT     C5' 1773  11.778   3.804  12.128
   57DT    H5'1 1774  11.728   3.848  12.041
   57DT    H5'2 1775  11.885   3.823  12.120
   57DT     C4' 1776  11.730   3.887  12.247
   57DT     H4' 1777  11.765   3.990  12.238
   57DT     O4' 1778  11.590   3.893  12.251
   57DT     C1' 1779  11.551   3.923  12.385
   57DT     H1' 1780  11.538   4.030  12.397
   57DT      N1 1781  11.423   3.865  12.415
   57DT      C6 1782  11.377   3.741  12.365
   57DT      H6 1783  11.448   3.680  12.311
   57DT      C5 1784  11.249   3.700  12.381
   57DT      C7 1785  11.202   3.563  12.328
   57DT     H71 1786  11.118   3.582  12.261
   57DT     H72 1787  11.285   3.506  12.287
   57DT     H73 1788  11.160   3.512  12.414
   57DT      C4 1789  11.150   3.776  12.463
   57DT      O4 1790  11.033   3.752  12.481
   57DT      N3 1791  11.206   3.890  12.516
   57DT      H3 1792  11.147   3.955  12.566
   57DT      C2 1793  11.340   3.928  12.504
   57DT      O2 1794  11.385   4.013  12.578
   57DT     C3' 1795  11.765   3.818  12.380
   57DT     H3' 1796  11.750   3.710  12.382
   57DT     C2' 1797  11.660   3.877  12.482
   57DT    H2'1 1798  11.623   3.797  12.547
   57DT    H2'2 1799  11.688   3.965  12.539
   57DT     O3' 1800  11.896   3.842  12.428
   58DG       P 1801  11.946   3.785  12.569
   58DG     O1P 1802  12.090   3.787  12.559
   58DG     O2P 1803  11.873   3.651  12.582
   58DG     O5' 1804  11.896   3.883  12.691
   58DG     C5' 1805  11.921   4.024  12.681
   58DG    H5'1 1806  11.893   4.052  12.579
   58DG    H5'2 1807  12.028   4.035  12.696
   58DG     C4' 1808  11.842   4.101  12.782
   58DG     H4' 1809  11.869   4.205  12.761
   58DG     O4' 1810  11.699   4.070  12.783
   58DG     C1' 1811  11.656   4.007  12.896
   58DG     H1' 1812  11.606   4.077  12.963
   58DG      N9 1813  11.569   3.889  12.869
   58DG      C8 1814  11.595   3.776  12.799
   58DG      H8 1815  11.696   3.759  12.764
   58DG      N7 1816  11.494   3.702  12.767
   58DG      C5 1817  11.388   3.768  12.834
   58DG      C6 1818  11.245   3.747  12.823
   58DG      O6 1819  11.186   3.667  12.752
   58DG      N1 1820  11.175   3.840  12.885
   58DG      H1 1821  11.075   3.832  12.884
   58DG      C2 1822  11.227   3.941  12.967
   58DG      N2 1823  11.140   4.020  13.026
   58DG     H21 1824  11.042   4.000  13.018
   58DG     H22 1825  11.177   4.050  13.115
   58DG      N3 1826  11.363   3.968  12.978
   58DG      C4 1827  11.437   3.876  12.903
   58DG     C3' 1828  11.885   4.076  12.924
   58DG     H3' 1829  11.982   4.027  12.922
   58DG     C2' 1830  11.784   3.972  12.968
   58DG    H2'1 1831  11.818   3.873  12.939
   58DG    H2'2 1832  11.777   3.973  13.077
   58DG     O3' 1833  11.894   4.190  13.008
   59DC       P 1834  11.949   4.192  13.164
   59DC     O1P 1835  11.999   4.328  13.190
   59DC     O2P 1836  12.037   4.076  13.191
   59DC     O5' 1837  11.821   4.163  13.254
   59DC     C5' 1838  11.723   4.267  13.272
   59DC    H5'1 1839  11.686   4.299  13.175
   59DC    H5'2 1840  11.781   4.349  13.316
   59DC     C4' 1841  11.613   4.226  13.363
   59DC     H4' 1842  11.544   4.310  13.371
   59DC     O4' 1843  11.542   4.118  13.295
   59DC     C1' 1844  11.513   4.018  13.391
   59DC     H1' 1845  11.437   4.045  13.464
   59DC      N1 1846  11.489   3.892  13.311
   59DC      C6 1847  11.591   3.813  13.259
   59DC      H6 1848  11.694   3.842  13.276
   59DC      C5 1849  11.566   3.706  13.182
   59DC      H5 1850  11.644   3.655  13.127
   59DC      C4 1851  11.433   3.668  13.170
   59DC      N4 1852  11.402   3.555  13.112
   59DC     H41 1853  11.304   3.533  13.098
   59DC     H42 1854  11.473   3.490  13.081
   59DC      N3 1855  11.330   3.741  13.209
   59DC      C2 1856  11.357   3.857  13.279
   59DC      O2 1857  11.261   3.927  13.311
   59DC     C3' 1858  11.663   4.173  13.495
   59DC     H3' 1859  11.771   4.183  13.508
   59DC     C2' 1860  11.636   4.022  13.473
   59DC    H2'1 1861  11.723   3.976  13.427
   59DC    H2'2 1862  11.619   3.968  13.566
   59DC     O3' 1863  11.593   4.250  13.595
   60DG       P 1864  11.567   4.186  13.739
   60DG     O1P 1865  11.541   4.296  13.838
   60DG     O2P 1866  11.665   4.081  13.771
   60DG     O5' 1867  11.426   4.118  13.718
   60DG     C5' 1868  11.303   4.191  13.676
   60DG    H5'1 1869  11.302   4.207  13.568
   60DG    H5'2 1870  11.299   4.288  13.725
   60DG     C4' 1871  11.175   4.116  13.722
   60DG     H4' 1872  11.097   4.191  13.708
   60DG     O4' 1873  11.154   3.995  13.642
   60DG     C1' 1874  11.187   3.884  13.721
   60DG     H1' 1875  11.090   3.836  13.737
   60DG      N9 1876  11.277   3.789  13.656
   60DG      C8 1877  11.409   3.793  13.641
   60DG      H8 1878  11.466   3.881  13.665
   60DG      N7 1879  11.464   3.702  13.573
   60DG      C5 1880  11.359   3.616  13.554
   60DG      C6 1881  11.353   3.496  13.482
   60DG      O6 1882  11.446   3.430  13.423
   60DG      N1 1883  11.225   3.452  13.482
   60DG      H1 1884  11.206   3.371  13.425
   60DG      C2 1885  11.114   3.500  13.543
   60DG      N2 1886  10.996   3.445  13.534
   60DG     H21 1887  10.983   3.356  13.488
   60DG     H22 1888  10.919   3.507  13.551
   60DG      N3 1889  11.119   3.619  13.599
   60DG      C4 1890  11.242   3.674  13.602
   60DG     C3' 1891  11.171   4.073  13.868
   60DG     H3' 1892  11.229   4.142  13.930
   60DG     C2' 1893  11.230   3.935  13.861
   60DG    H2'1 1894  11.339   3.940  13.854
   60DG    H2'2 1895  11.201   3.857  13.931
   60DG     O3' 1896  11.030   4.066  13.900
   61DT       P 1897  10.980   4.038  14.051
   61DT     O1P 1898  10.847   4.108  14.061
   61DT     O2P 1899  11.091   4.070  14.140
   61DT     O5' 1900  10.951   3.883  14.049
   61DT     C5' 1901  10.850   3.844  13.958
   61DT    H5'1 1902  10.863   3.873  13.854
   61DT    H5'2 1903  10.753   3.884  13.988
   61DT     C4' 1904  10.817   3.689  13.951
   61DT     H4' 1905  10.728   3.681  13.888
   61DT     O4' 1906  10.912   3.607  13.886
   61DT     C1' 1907  10.931   3.492  13.962
   61DT     H1' 1908  10.862   3.411  13.937
   61DT      N1 1909  11.069   3.450  13.918
   61DT      C6 1910  11.174   3.528  13.949
   61DT      H6 1911  11.162   3.614  14.013
   61DT      C5 1912  11.301   3.493  13.915
   61DT      C7 1913  11.420   3.579  13.955
   61DT     H71 1914  11.474   3.534  14.038
   61DT     H72 1915  11.489   3.591  13.871
   61DT     H73 1916  11.387   3.673  14.000
   61DT      C4 1917  11.323   3.371  13.843
   61DT      O4 1918  11.430   3.325  13.811
   61DT      N3 1919  11.217   3.295  13.814
   61DT      H3 1920  11.236   3.221  13.748
   61DT      C2 1921  11.085   3.327  13.844
   61DT      O2 1922  10.990   3.255  13.817
   61DT     C3' 1923  10.801   3.642  14.095
   61DT     H3' 1924  10.815   3.731  14.156
   61DT     C2' 1925  10.904   3.534  14.114
   61DT    H2'1 1926  10.994   3.573  14.160
   61DT    H2'2 1927  10.876   3.445  14.171
   61DT     O3' 1928  10.662   3.604  14.099
   62DG       P 1929  10.590   3.553  14.231
   62DG     O1P 1930  10.448   3.584  14.221
   62DG     O2P 1931  10.661   3.598  14.347
   62DG     O5' 1932  10.614   3.393  14.226
   62DG     C5' 1933  10.568   3.314  14.121
   62DG    H5'1 1934  10.571   3.365  14.025
   62DG    H5'2 1935  10.464   3.288  14.142
   62DG     C4' 1936  10.640   3.177  14.120
   62DG     H4' 1937  10.596   3.104  14.051
   62DG     O4' 1938  10.777   3.196  14.074
   62DG     C1' 1939  10.862   3.105  14.141
   62DG     H1' 1940  10.836   3.001  14.122
   62DG      N9 1941  11.009   3.125  14.139
   62DG      C8 1942  11.079   3.222  14.205
   62DG      H8 1943  11.025   3.294  14.265
   62DG      N7 1944  11.205   3.233  14.171
   62DG      C5 1945  11.224   3.111  14.100
   62DG      C6 1946  11.351   3.050  14.057
   62DG      O6 1947  11.465   3.094  14.065
   62DG      N1 1948  11.325   2.929  13.993
   62DG      H1 1949  11.400   2.894  13.935
   62DG      C2 1950  11.200   2.883  13.968
   62DG      N2 1951  11.200   2.791  13.871
   62DG     H21 1952  11.284   2.779  13.815
   62DG     H22 1953  11.109   2.757  13.845
   62DG      N3 1954  11.088   2.934  14.009
   62DG      C4 1955  11.106   3.049  14.074
   62DG     C3' 1956  10.652   3.113  14.261
   62DG     H3' 1957  10.595   3.164  14.339
   62DG     C2' 1958  10.806   3.124  14.286
   62DG    H2'1 1959  10.828   3.220  14.333
   62DG    H2'2 1960  10.850   3.038  14.336
   62DG     O3' 1961  10.625   2.974  14.262
   63DC       P 1962  10.569   2.908  14.390
   63DC     O1P 1963  10.424   2.935  14.377
   63DC     O2P 1964  10.643   2.958  14.508
   63DC     O5' 1965  10.590   2.747  14.375
   63DC     C5' 1966  10.590   2.686  14.249
   63DC    H5'1 1967  10.581   2.759  14.168
   63DC    H5'2 1968  10.511   2.613  14.242
   63DC     C4' 1969  10.728   2.612  14.223
   63DC     H4' 1970  10.729   2.568  14.123
   63DC     O4' 1971  10.831   2.710  14.225
   63DC     C1' 1972  10.954   2.638  14.249
   63DC     H1' 1973  10.985   2.584  14.159
   63DC      N1 1974  11.062   2.730  14.297
   63DC      C6 1975  11.032   2.842  14.372
   63DC      H6 1976  10.927   2.857  14.395
   63DC      C5 1977  11.133   2.927  14.403
   63DC      H5 1978  11.114   3.011  14.468
   63DC      C4 1979  11.260   2.901  14.350
   63DC      N4 1980  11.344   2.992  14.362
   63DC     H41 1981  11.440   2.976  14.333
   63DC     H42 1982  11.314   3.084  14.393
   63DC      N3 1983  11.291   2.792  14.281
   63DC      C2 1984  11.195   2.699  14.261
   63DC      O2 1985  11.218   2.597  14.201
   63DC     C3' 1986  10.773   2.504  14.330
   63DC     H3' 1987  10.714   2.520  14.420
   63DC     C2' 1988  10.923   2.531  14.347
   63DC    H2'1 1989  10.925   2.568  14.449
   63DC    H2'2 1990  10.985   2.443  14.331
   63DC     O3' 1991  10.741   2.377  14.271
   64DG3      P 1992  10.743   2.243  14.360
   64DG3    O1P 1993  10.669   2.136  14.289
   64DG3    O2P 1994  10.697   2.268  14.498
   64DG3    O5' 1995  10.892   2.204  14.369
   64DG3    C5' 1996  10.950   2.110  14.283
   64DG3   H5'1 1997  10.947   2.155  14.184
   64DG3   H5'2 1998  10.896   2.016  14.292
   64DG3    C4' 1999  11.091   2.095  14.325
   64DG3    H4' 2000  11.130   2.023  14.253
   64DG3    O4' 2001  11.176   2.215  14.319
   64DG3    C1' 2002  11.263   2.221  14.434
   64DG3    H1' 2003  11.364   2.185  14.413
   64DG3     N9 2004  11.289   2.364  14.471
   64DG3     C8 2005  11.196   2.445  14.539
   64DG3     H8 2006  11.097   2.412  14.564
   64DG3     N7 2007  11.250   2.556  14.579
   64DG3     C5 2008  11.377   2.554  14.524
   64DG3     C6 2009  11.489   2.649  14.520
   64DG3     O6 2010  11.503   2.761  14.567
   64DG3     N1 2011  11.592   2.616  14.443
   64DG3     H1 2012  11.666   2.685  14.443
   64DG3     C2 2013  11.596   2.506  14.367
   64DG3     N2 2014  11.707   2.483  14.303
   64DG3    H21 2015  11.783   2.548  14.314
   64DG3    H22 2016  11.722   2.401  14.245
   64DG3     N3 2017  11.511   2.406  14.378
   64DG3     C4 2018  11.402   2.438  14.453
   64DG3    C3' 2019  11.102   2.052  14.472
   64DG3    H3' 2020  11.006   2.062  14.522
   64DG3    C2' 2021  11.203   2.138  14.545
   64DG3   H2'1 2022  11.154   2.198  14.622
   64DG3   H2'2 2023  11.289   2.080  14.579
   64DG3    O3' 2024  11.147   1.918  14.485
   64DG3    H3T 2025  11.160   1.897  14.578
   65SOL     OW 2026  10.537  10.034   6.697
   65SOL    HW1 2027  10.483  10.096   6.745
   65SOL    HW2 2028  10.568  10.082   6.620
   66SOL     OW 2029   9.702   1.418   5.145
   66SOL    HW1 2030   9.633   1.358   5.174
   66SOL    HW2 2031   9.688   1.428   5.051
   67SOL     OW 2032   7.258  12.494   0.831
   67SOL    HW1 2033   7.317  12.568   0.816
   67SOL    HW2 2034   7.295  12.449   0.907
   68SOL     OW 2035  14.620   1.170   3.847
   68SOL    HW1 2036  14.604   1.187   3.940
   68SOL    HW2 2037  14.682   1.238   3.821
   69SOL     OW 2038   7.087  14.544   0.606
   69SOL    HW1 2039   7.166  14.545   0.550
   69SOL    HW2 2040   7.117  14.505   0.688
   70SOL     OW 2041   9.562   1.412   5.939
   70SOL    HW1 2042   9.509   1.482   5.977
   70SOL    HW2 2043   9.634   1.400   6.000
   71SOL     OW 2044   6.828   6.991   4.208
   71SOL    HW1 2045   6.877   7.043   4.272
   71SOL    HW2 2046   6.881   6.912   4.195
   72SOL     OW 2047   5.617   2.015   5.841
   72SOL    HW1 2048   5.615   2.006   5.936
   72SOL    HW2 2049   5.708   2.037   5.821
   73SOL     OW 2050   8.015   4.054  12.416
   73SOL    HW1 2051   8.022   3.960  12.401
   73SOL    HW2 2052   7.922   4.073  12.406
   74SOL     OW 2053   5.411   7.091  14.161
   74SOL    HW1 2054   5.496   7.101  14.118
   74SOL    HW2 2055   5.376   7.180  14.165
   75SOL     OW 2056   6.669   6.811  10.604
   75SOL    HW1 2057   6.582   6.816  10.645
   75SOL    HW2 2058   6.669   6.883  10.540
   76SOL     OW 2059   5.558   4.684   6.173
   76SOL    HW1 2060   5.536   4.638   6.254
   76SOL    HW2 2061   5.509   4.639   6.105
   77SOL     OW 2062  12.324  12.177   1.756
   77SOL    HW1 2063  12.339  12.244   1.823
   77SOL    HW2 2064  12.285  12.104   1.805
   78SOL     OW 2065  12.409  10.973   9.933
   78SOL    HW1 2066  12.369  11.025   9.864
   78SOL    HW2 2067  12.341  10.963   9.999
   79SOL     OW 2068   0.393   2.598   6.861
   79SOL    HW1 2069   0.405   2.526   6.922
   79SOL    HW2 2070   0.431   2.568   6.779
   80SOL     OW 2071   4.968  11.640   4.339
   80SOL    HW1 2072   4.926  11.715   4.380
   80SOL    HW2 2073   5.003  11.589   4.412
   81SOL     OW 2074   5.132  10.530   8.717
   81SOL    HW1 2075   5.137  10.585   8.639
   81SOL    HW2 2076   5.215  10.483   8.720
   82SOL     OW 2077  14.323   9.112   6.793
   82SOL    HW1 2078  14.321   9.064   6.710
   82SOL    HW2 2079  14.356   9.049   6.857
   83SOL     OW 2080  13.518  11.364  10.851
   83SOL    HW1 2081  13.458  11.311  10.904
   83SOL    HW2 2082  13.605  11.333  10.876
   84SOL     OW 2083   1.533   5.620  14.648
   84SOL    HW1 2084   1.452   5.665  14.670
   84SOL    HW2 2085   1.525   5.600  14.555
   85SOL     OW 2086  11.989   3.105  12.780
   85SOL    HW1 2087  11.909   3.151  12.752
   85SOL    HW2 2088  12.007   3.139  12.867
   86SOL     OW 2089   2.149   6.990  14.022
   86SOL    HW1 2090   2.140   6.897  14.004
   86SOL    HW2 2091   2.239   7.011  13.997
   87SOL     OW 2092   6.052   9.587   8.622
   87SOL    HW1 2093   6.017   9.674   8.640
   87SOL    HW2 2094   6.116   9.601   8.553
   88SOL     OW 2095   4.617   5.248   6.090
   88SOL    HW1 2096   4.538   5.230   6.141
   88SOL    HW2 2097   4.661   5.319   6.137
   89SOL     OW 2098   3.162   7.629   8.450
   89SOL    HW1 2099   3.111   7.709   8.437
   89SOL    HW2 2100   3.135   7.572   8.379
   90SOL     OW 2101   5.526  10.618  11.496
   90SOL    HW1 2102   5.466  10.692  11.492
   90SOL    HW2 2103   5.520  10.578  11.410
   91SOL     OW 2104   1.388   6.668   7.688
   91SOL    HW1 2105   1.473   6.657   7.645
   91SOL    HW2 2106   1.343   6.585   7.674
   92SOL     OW 2107   6.783   1.321  13.861
   92SOL    HW1 2108   6.820   1.245  13.905
   92SOL    HW2 2109   6.694   1.294  13.836
   93SOL     OW 2110   5.356   3.021  12.999
   93SOL    HW1 2111   5.292   3.082  13.033
   93SOL    HW2 2112   5.368   2.957  13.069
   94SOL     OW 2113  13.720   5.754   7.258
   94SOL    HW1 2114  13.777   5.687   7.219
   94SOL    HW2 2115  13.760   5.837   7.232
   95SOL     OW 2116   0.601   2.446   5.814
   95SOL    HW1 2117   0.543   2.434   5.738
   95SOL    HW2 2118   0.564   2.391   5.882
   96SOL     OW 2119  13.403   7.460  11.877
   96SOL    HW1 2120  13.443   7.425  11.798
   96SOL    HW2 2121  13.428   7.399  11.946
   97SOL     OW 2122  14.679  10.470  12.215
   97SOL    HW1 2123  14.682  10.431  12.127
   97SOL    HW2 2124  14.622  10.411  12.265
   98SOL     OW 2125   9.746   4.321   6.638
   98SOL    HW1 2126   9.756   4.276   6.722
   98SOL    HW2 2127   9.678   4.387   6.655
   99SOL     OW 2128   6.905  10.583   1.408
   99SOL    HW1 2129   6.892  10.609   1.316
   99SOL    HW2 2130   6.818  10.588   1.447
  100SOL     OW 2131   9.387   7.929  12.842
  100SOL    HW1 2132   9.368   8.005  12.896
  100SOL    HW2 2133   9.301   7.897  12.814
  101SOL     OW 2134   2.792   1.676   1.799
  101SOL    HW1 2135   2.883   1.694   1.777
  101SOL    HW2 2136   2.769   1.600   1.745
  102SOL     OW 2137  14.194  11.267  11.375
  102SOL    HW1 2138  14.256  11.319  11.426
  102SOL    HW2 2139  14.108  11.300  11.403
  103SOL     OW 2140  12.602   4.323  12.101
  103SOL    HW1 2141  12.515   4.354  12.075
  103SOL    HW2 2142  12.586   4.241  12.147
  104SOL     OW 2143  11.651   6.166   0.218
  104SOL    HW1 2144  11.564   6.204   0.230
  104SOL    HW2 2145  11.693   6.222   0.153
  105SOL     OW 2146  10.188   1.585   7.612
  105SOL    HW1 2147  10.144   1.663   7.576
  105SOL    HW2 2148  10.278   1.591   7.578
  106SOL     OW 2149  13.152   3.804  12.249
  106SOL    HW1 2150  13.102   3.797  12.330
  106SOL    HW2 2151  13.210   3.878  12.264
  107SOL     OW 2152  10.521   4.037  13.499
  107SOL    HW1 2153  10.604   4.043  13.450
  107SOL    HW2 2154  10.543   3.986  13.577
  108SOL     OW 2155  11.965  14.667   1.366
  108SOL    HW1 2156  11.960  14.571   1.358
  108SOL    HW2 2157  11.885  14.698   1.324
  109SOL     OW 2158   9.170   6.927   4.980
  109SOL    HW1 2159   9.193   6.911   5.072
  109SOL    HW2 2160   9.205   6.852   4.933
  110SOL     OW 2161   6.183   6.085   9.524
  110SOL    HW1 2162   6.235   6.045   9.454
  110SOL    HW2 2163   6.241   6.151   9.563
  111SOL     OW 2164   8.808   2.746   4.533
  111SOL    HW1 2165   8.765   2.706   4.458
  111SOL    HW2 2166   8.894   2.772   4.501
  112SOL     OW 2167   6.550   8.098   2.344
  112SOL    HW1 2168   6.556   8.060   2.257
  112SOL    HW2 2169   6.463   8.073   2.375
  113SOL     OW 2170   1.172   4.831   7.012
  113SOL    HW1 2171   1.209   4.919   6.997
  113SOL    HW2 2172   1.114   4.842   7.088
  114SOL     OW 2173   0.072  13.523   5.335
  114SOL    HW1 2174   0.067  13.443   5.386
  114SOL    HW2 2175   0.054  13.496   5.245
  115SOL     OW 2176   6.312   5.430   2.753
  115SOL    HW1 2177   6.366   5.504   2.779
  115SOL    HW2 2178   6.375   5.365   2.719
  116SOL     OW 2179   4.468   8.350   6.619
  116SOL    HW1 2180   4.480   8.256   6.630
  116SOL    HW2 2181   4.408   8.375   6.690
  117SOL     OW 2182  14.080   2.690   4.761
  117SOL    HW1 2183  14.069   2.690   4.666
  117SOL    HW2 2184  14.149   2.627   4.778
  118SOL     OW 2185   1.575  11.697   9.314
  118SOL    HW1 2186   1.549  11.755   9.242
  118SOL    HW2 2187   1.497  11.644   9.330
  119SOL     OW 2188   7.726   6.233   6.892
  119SOL    HW1 2189   7.693   6.186   6.815
  119SOL    HW2 2190   7.651   6.284   6.923
  120SOL     OW 2191  10.800  14.006   6.281
  120SOL    HW1 2192  10.738  14.047   6.221
  120SOL    HW2 2193  10.788  14.052   6.364
  121SOL     OW 2194  12.500  13.456   0.700
  121SOL    HW1 2195  12.511  13.375   0.750
  121SOL    HW2 2196  12.454  13.515   0.760
  122SOL     OW 2197   9.665   9.116  11.632
  122SOL    HW1 2198   9.692   9.043  11.576
  122SOL    HW2 2199   9.685   9.086  11.720
  123SOL     OW 2200   6.060   7.921   8.658
  123SOL    HW1 2201   6.127   7.854   8.671
  123SOL    HW2 2202   5.998   7.880   8.596
  124SOL     OW 2203  13.061  12.887  12.850
  124SOL    HW1 2204  13.108  12.889  12.766
  124SOL    HW2 2205  13.077  12.799  12.884
  125SOL     OW 2206   1.988   9.357   5.398
  125SOL    HW1 2207   2.003   9.399   5.483
  125SOL    HW2 2208   2.075   9.325   5.372
  126SOL     OW 2209  10.827   7.869  10.511
  126SOL    HW1 2210  10.755   7.870  10.448
  126SOL    HW2 2211  10.785   7.865  10.597
  127SOL     OW 2212  11.318   7.522  14.101
  127SOL    HW1 2213  11.269   7.444  14.129
  127SOL    HW2 2214  11.408   7.503  14.126
  128SOL     OW 2215  14.654   4.167   8.803
  128SOL    HW1 2216  14.614   4.253   8.790
  128SOL    HW2 2217  14.611   4.110   8.739
  129SOL     OW 2218   0.015   4.262   5.887
  129SOL    HW1 2219   0.103   4.298   5.897
  129SOL    HW2 2220  14.835   4.334   5.851
  130SOL     OW 2221  14.357  12.772   3.881
  130SOL    HW1 2222  14.349  12.866   3.900
  130SOL    HW2 2223  14.351  12.730   3.967
  131SOL     OW 2224   5.498  12.665   9.104
  131SOL    HW1 2225   5.524  12.583   9.061
  131SOL    HW2 2226   5.485  12.640   9.195
  132SOL     OW 2227   7.296   5.411   3.524
  132SOL    HW1 2228   7.321   5.486   3.577
  132SOL    HW2 2229   7.250   5.353   3.584
  133SOL     OW 2230   4.431   7.317   0.294
  133SOL    HW1 2231   4.400   7.407   0.285
  133SOL    HW2 2232   4.362   7.263   0.257
  134SOL     OW 2233   1.386   3.905   9.001
  134SOL    HW1 2234   1.426   3.887   9.087
  134SOL    HW2 2235   1.424   3.839   8.943
  135SOL     OW 2236   3.632   6.646   0.067
  135SOL    HW1 2237   3.555   6.703   0.065
  135SOL    HW2 2238   3.706   6.707   0.080
  136SOL     OW 2239   6.226   9.384   8.266
  136SOL    HW1 2240   6.299   9.387   8.204
  136SOL    HW2 2241   6.268   9.386   8.352
  137SOL     OW 2242  12.379   0.692   9.789
  137SOL    HW1 2243  12.289   0.680   9.820
  137SOL    HW2 2244  12.433   0.654   9.858
  138SOL     OW 2245   4.129  11.334   2.076
  138SOL    HW1 2246   4.159  11.416   2.037
  138SOL    HW2 2247   4.065  11.360   2.142
  139SOL     OW 2248   4.655   7.819   1.355
  139SOL    HW1 2249   4.573   7.867   1.368
  139SOL    HW2 2250   4.685   7.847   1.269
  140SOL     OW 2251   6.020   3.316   2.580
  140SOL    HW1 2252   5.942   3.332   2.634
  140SOL    HW2 2253   5.992   3.336   2.491
  141SOL     OW 2254  13.218  13.089  13.550
  141SOL    HW1 2255  13.195  13.129  13.467
  141SOL    HW2 2256  13.291  13.141  13.583
  142SOL     OW 2257   0.020   8.848   7.589
  142SOL    HW1 2258   0.036   8.903   7.512
  142SOL    HW2 2259  14.802   8.868   7.615
  143SOL     OW 2260   7.902   8.171  10.211
  143SOL    HW1 2261   7.986   8.174  10.165
  143SOL    HW2 2262   7.915   8.225  10.289
  144SOL     OW 2263   9.930  14.033   2.826
  144SOL    HW1 2264  10.017  14.067   2.807
  144SOL    HW2 2265   9.945  13.942   2.851
  145SOL     OW 2266  10.985  12.867   7.909
  145SOL    HW1 2267  10.928  12.942   7.926
  145SOL    HW2 2268  10.926  12.791   7.916
  146SOL     OW 2269   5.362  10.485  14.693
  146SOL    HW1 2270   5.282  10.538  14.686
  146SOL    HW2 2271   5.350  10.416  14.628
  147SOL     OW 2272   6.397  13.553  10.486
  147SOL    HW1 2273   6.438  13.636  10.513
  147SOL    HW2 2274   6.438  13.533  10.401
  148SOL     OW 2275  13.148   0.796   8.335
  148SOL    HW1 2276  13.064   0.802   8.290
  148SOL    HW2 2277  13.124   0.791   8.428
  149SOL     OW 2278   3.713   9.902   7.775
  149SOL    HW1 2279   3.765   9.862   7.846
  149SOL    HW2 2280   3.649   9.835   7.752
  150SOL     OW 2281   9.668   3.427  11.084
  150SOL    HW1 2282   9.688   3.513  11.046
  150SOL    HW2 2283   9.684   3.365  11.013
  151SOL     OW 2284   7.682  14.665   0.972
  151SOL    HW1 2285   7.645  14.753   0.970
  151SOL    HW2 2286   7.630  14.619   1.038
  152SOL     OW 2287   0.927   4.049   7.450
  152SOL    HW1 2288   1.004   4.105   7.445
  152SOL    HW2 2289   0.866   4.084   7.385
  153SOL     OW 2290   9.458   5.809   4.931
  153SOL    HW1 2291   9.389   5.757   4.971
  153SOL    HW2 2292   9.537   5.756   4.942
  154SOL     OW 2293  14.311   1.263   3.522
  154SOL    HW1 2294  14.331   1.213   3.443
  154SOL    HW2 2295  14.324   1.200   3.593
  155SOL     OW 2296   0.759   4.586   3.899
  155SOL    HW1 2297   0.744   4.659   3.959
  155SOL    HW2 2298   0.779   4.512   3.955
  156SOL     OW 2299  13.921   9.423   2.086
  156SOL    HW1 2300  13.958   9.394   2.169
  156SOL    HW2 2301  13.827   9.407   2.094
  157SOL     OW 2302   9.690   2.519   9.947
  157SOL    HW1 2303   9.629   2.544  10.016
  157SOL    HW2 2304   9.648   2.547   9.866
  158SOL     OW 2305   2.505  11.981   2.918
  158SOL    HW1 2306   2.523  11.901   2.868
  158SOL    HW2 2307   2.488  12.047   2.852
  159SOL     OW 2308   2.047   9.467   8.082
  159SOL    HW1 2309   1.955   9.469   8.058
  159SOL    HW2 2310   2.083   9.393   8.032
  160SOL     OW 2311  13.350   1.689   9.055
  160SOL    HW1 2312  13.422   1.648   9.105
  160SOL    HW2 2313  13.345   1.778   9.090
  161SOL     OW 2314  14.426   7.381   1.696
  161SOL    HW1 2315  14.472   7.374   1.613
  161SOL    HW2 2316  14.379   7.298   1.704
  162SOL     OW 2317   5.103  11.639  10.692
  162SOL    HW1 2318   5.189  11.675  10.670
  162SOL    HW2 2319   5.058  11.632  10.608
  163SOL     OW 2320  14.848  11.248  12.244
  163SOL    HW1 2321  14.829  11.195  12.321
  163SOL    HW2 2322   0.066  11.278  12.256
  164SOL     OW 2323  11.924  10.790   2.287
  164SOL    HW1 2324  11.912  10.881   2.312
  164SOL    HW2 2325  12.009  10.766   2.325
  165SOL     OW 2326   4.551  13.077   0.758
  165SOL    HW1 2327   4.640  13.043   0.771
  165SOL    HW2 2328   4.560  13.172   0.769
  166SOL     OW 2329  10.836   2.643   4.286
  166SOL    HW1 2330  10.921   2.675   4.315
  166SOL    HW2 2331  10.780   2.721   4.286
  167SOL     OW 2332   7.379   5.629   1.009
  167SOL    HW1 2333   7.452   5.570   1.028
  167SOL    HW2 2334   7.304   5.570   0.995
  168SOL     OW 2335   0.205   1.141   3.277
  168SOL    HW1 2336   0.186   1.123   3.185
  168SOL    HW2 2337   0.173   1.230   3.292
  169SOL     OW 2338   4.186   1.416   0.606
  169SOL    HW1 2339   4.160   1.340   0.555
  169SOL    HW2 2340   4.197   1.383   0.696
  170SOL     OW 2341  12.536   4.585   2.757
  170SOL    HW1 2342  12.573   4.657   2.808
  170SOL    HW2 2343  12.589   4.509   2.781
  171SOL     OW 2344  11.923   8.859   3.372
  171SOL    HW1 2345  11.997   8.864   3.432
  171SOL    HW2 2346  11.946   8.789   3.311
  172SOL     OW 2347   8.786  11.293   9.247
  172SOL    HW1 2348   8.760  11.278   9.338
  172SOL    HW2 2349   8.725  11.241   9.196
  173SOL     OW 2350   7.278   7.255   8.549
  173SOL    HW1 2351   7.235   7.335   8.581
  173SOL    HW2 2352   7.209   7.209   8.502
  174SOL     OW 2353  13.437   2.418  13.425
  174SOL    HW1 2354  13.429   2.391  13.334
  174SOL    HW2 2355  13.349   2.443  13.451
  175SOL     OW 2356   0.128  12.638  10.776
  175SOL    HW1 2357   0.088  12.709  10.827
  175SOL    HW2 2358   0.064  12.619  10.707
  176SOL     OW 2359  11.777  12.035   9.166
  176SOL    HW1 2360  11.801  12.120   9.203
  176SOL    HW2 2361  11.771  12.050   9.072
  177SOL     OW 2362   1.818  14.729   3.909
  177SOL    HW1 2363   1.792  14.680   3.831
  177SOL    HW2 2364   1.735  14.752   3.952
  178SOL     OW 2365  10.617  14.847   4.642
  178SOL    HW1 2366  10.686  14.824   4.579
  178SOL    HW2 2367  10.655  14.827   4.727
  179SOL     OW 2368   4.540  11.258  10.921
  179SOL    HW1 2369   4.462  11.284  10.873
  179SOL    HW2 2370   4.507  11.210  10.997
  180SOL     OW 2371   7.450   3.954  10.192
  180SOL    HW1 2372   7.472   3.963  10.100
  180SOL    HW2 2373   7.481   3.866  10.215
  181SOL     OW 2374  13.068  12.179   1.787
  181SOL    HW1 2375  13.128  12.105   1.798
  181SOL    HW2 2376  13.038  12.199   1.876
  182SOL     OW 2377  10.880   2.704   5.341
  182SOL    HW1 2378  10.891   2.697   5.436
  182SOL    HW2 2379  10.835   2.623   5.316
  183SOL     OW 2380   9.017   0.704  12.043
  183SOL    HW1 2381   9.027   0.794  12.074
  183SOL    HW2 2382   8.946   0.709  11.979
  184SOL     OW 2383   4.470   5.580   8.231
  184SOL    HW1 2384   4.445   5.669   8.209
  184SOL    HW2 2385   4.437   5.566   8.320
  185SOL     OW 2386   6.678   5.950   1.362
  185SOL    HW1 2387   6.732   5.921   1.288
  185SOL    HW2 2388   6.729   6.021   1.401
  186SOL     OW 2389  10.549  10.358   0.125
  186SOL    HW1 2390  10.626  10.316   0.086
  186SOL    HW2 2391  10.516  10.416   0.056
  187SOL     OW 2392   8.474   3.678  14.138
  187SOL    HW1 2393   8.555   3.644  14.174
  187SOL    HW2 2394   8.496   3.703  14.048
  188SOL     OW 2395   4.782   9.459   9.425
  188SOL    HW1 2396   4.834   9.527   9.381
  188SOL    HW2 2397   4.841   9.422   9.490
  189SOL     OW 2398   8.044   9.677   7.262
  189SOL    HW1 2399   8.012   9.681   7.172
  189SOL    HW2 2400   8.072   9.766   7.281
  190SOL     OW 2401   9.911  14.520   6.453
  190SOL    HW1 2402   9.997  14.480   6.469
  190SOL    HW2 2403   9.877  14.473   6.377
  191SOL     OW 2404   8.087   2.709   0.425
  191SOL    HW1 2405   8.173   2.674   0.401
  191SOL    HW2 2406   8.106   2.785   0.479
  192SOL     OW 2407  14.257   7.670   7.665
  192SOL    HW1 2408  14.214   7.595   7.625
  192SOL    HW2 2409  14.219   7.746   7.621
  193SOL     OW 2410  12.753   8.907   8.458
  193SOL    HW1 2411  12.683   8.868   8.510
  193SOL    HW2 2412  12.765   8.994   8.496
  194SOL     OW 2413   0.479  14.246   4.947
  194SOL    HW1 2414   0.414  14.274   4.882
  194SOL    HW2 2415   0.435  14.260   5.031
  195SOL     OW 2416  13.443   2.335   3.021
  195SOL    HW1 2417  13.466   2.256   2.973
  195SOL    HW2 2418  13.506   2.401   2.992
  196SOL     OW 2419   4.963   4.383   4.187
  196SOL    HW1 2420   4.953   4.359   4.279
  196SOL    HW2 2421   5.034   4.448   4.187
  197SOL     OW 2422  12.129  10.953   8.101
  197SOL    HW1 2423  12.181  10.915   8.030
  197SOL    HW2 2424  12.159  11.043   8.107
  198SOL     OW 2425   7.199  11.107   1.867
  198SOL    HW1 2426   7.270  11.102   1.932
  198SOL    HW2 2427   7.239  11.077   1.786
  199SOL     OW 2428  12.543   3.218   5.560
  199SOL    HW1 2429  12.481   3.194   5.492
  199SOL    HW2 2430  12.609   3.271   5.515
  200SOL     OW 2431   4.103   9.176   6.471
  200SOL    HW1 2432   4.187   9.132   6.488
  200SOL    HW2 2433   4.127   9.261   6.435
  201SOL     OW 2434   5.805   4.564   4.504
  201SOL    HW1 2435   5.731   4.505   4.492
  201SOL    HW2 2436   5.857   4.553   4.424
  202SOL     OW 2437  13.010  11.482   0.223
  202SOL    HW1 2438  13.033  11.550   0.286
  202SOL    HW2 2439  12.943  11.522   0.168
  203SOL     OW 2440   2.395   9.917   8.550
  203SOL    HW1 2441   2.375   9.919   8.644
  203SOL    HW2 2442   2.483   9.955   8.545
  204SOL     OW 2443  11.867   6.696  11.365
  204SOL    HW1 2444  11.957   6.705  11.397
  204SOL    HW2 2445  11.853   6.775  11.313
  205SOL     OW 2446   1.658  13.734   4.808
  205SOL    HW1 2447   1.653  13.639   4.796
  205SOL    HW2 2448   1.574  13.758   4.849
  206SOL     OW 2449  12.658   2.871   2.575
  206SOL    HW1 2450  12.669   2.785   2.533
  206SOL    HW2 2451  12.743   2.914   2.564
  207SOL     OW 2452   6.130  14.757  14.052
  207SOL    HW1 2453   6.110  14.702  14.128
  207SOL    HW2 2454   6.226  14.762  14.051
  208SOL     OW 2455  10.094   5.584   1.855
  208SOL    HW1 2456  10.113   5.545   1.770
  208SOL    HW2 2457  10.071   5.510   1.911
  209SOL     OW 2458  12.393  12.901   2.665
  209SOL    HW1 2459  12.369  12.875   2.576
  209SOL    HW2 2460  12.349  12.836   2.720
  210SOL     OW 2461  10.353   7.389  10.689
  210SOL    HW1 2462  10.313   7.445  10.622
  210SOL    HW2 2463  10.370   7.306  10.643
  211SOL     OW 2464   2.605  10.081  12.908
  211SOL    HW1 2465   2.576  10.075  12.999
  211SOL    HW2 2466   2.676  10.146  12.909
  212SOL     OW 2467   4.511  12.742   1.381
  212SOL    HW1 2468   4.600  12.710   1.393
  212SOL    HW2 2469   4.515  12.835   1.400
  213SOL     OW 2470   0.724   5.936  11.204
  213SOL    HW1 2471   0.788   5.908  11.138
  213SOL    HW2 2472   0.724   5.866  11.268
  214SOL     OW 2473   9.523  11.162   2.996
  214SOL    HW1 2474   9.611  11.150   3.031
  214SOL    HW2 2475   9.524  11.121   2.910
  215SOL     OW 2476  11.377  14.664  14.348
  215SOL    HW1 2477  11.419  14.605  14.409
  215SOL    HW2 2478  11.445  14.686  14.284
  216SOL     OW 2479   3.866   1.269   0.674
  216SOL    HW1 2480   3.945   1.284   0.621
  216SOL    HW2 2481   3.896   1.213   0.745
  217SOL     OW 2482  11.702   7.280   8.907
  217SOL    HW1 2483  11.771   7.217   8.930
  217SOL    HW2 2484  11.629   7.226   8.879
  218SOL     OW 2485  10.822   4.009  14.684
  218SOL    HW1 2486  10.831   3.951  14.609
  218SOL    HW2 2487  10.880   3.972  14.750
  219SOL     OW 2488   2.782   9.162  10.695
  219SOL    HW1 2489   2.854   9.138  10.637
  219SOL    HW2 2490   2.710   9.106  10.667
  220SOL     OW 2491   2.646   9.353   6.364
  220SOL    HW1 2492   2.683   9.276   6.322
  220SOL    HW2 2493   2.553   9.349   6.345
  221SOL     OW 2494   3.380   7.303  14.823
  221SOL    HW1 2495   3.393   7.301   0.045
  221SOL    HW2 2496   3.468   7.307  14.786
  222SOL     OW 2497   6.971  11.135   3.273
  222SOL    HW1 2498   6.975  11.115   3.180
  222SOL    HW2 2499   6.993  11.228   3.278
  223SOL     OW 2500   8.377   2.758  12.940
  223SOL    HW1 2501   8.304   2.820  12.942
  223SOL    HW2 2502   8.447   2.803  12.986
  224SOL     OW 2503  12.867   9.338   6.929
  224SOL    HW1 2504  12.957   9.370   6.916
  224SOL    HW2 2505  12.816   9.386   6.864
  225SOL     OW 2506  13.429   9.364  11.393
  225SOL    HW1 2507  13.376   9.404  11.462
  225SOL    HW2 2508  13.421   9.425  11.319
  226SOL     OW 2509   9.129  10.644  13.293
  226SOL    HW1 2510   9.088  10.727  13.270
  226SOL    HW2 2511   9.087  10.617  13.374
  227SOL     OW 2512   9.130  10.072  14.216
  227SOL    HW1 2513   9.105  10.143  14.275
  227SOL    HW2 2514   9.077  10.086  14.137
  228SOL     OW 2515  14.287   4.263  12.831
  228SOL    HW1 2516  14.358   4.228  12.885
  228SOL    HW2 2517  14.311   4.354  12.815
  229SOL     OW 2518   1.643  14.763  11.623
  229SOL    HW1 2519   1.603  14.847  11.646
  229SOL    HW2 2520   1.729  14.785  11.589
  230SOL     OW 2521  13.175  11.806  13.719
  230SOL    HW1 2522  13.168  11.883  13.663
  230SOL    HW2 2523  13.253  11.760  13.687
  231SOL     OW 2524  13.524   0.434  10.707
  231SOL    HW1 2525  13.477   0.493  10.648
  231SOL    HW2 2526  13.610   0.425  10.667
  232SOL     OW 2527   0.928  13.058  12.473
  232SOL    HW1 2528   0.913  13.093  12.386
  232SOL    HW2 2529   0.959  13.133  12.524
  233SOL     OW 2530   1.139   9.381   5.343
  233SOL    HW1 2531   1.196   9.316   5.385
  233SOL    HW2 2532   1.079   9.409   5.412
  234SOL     OW 2533   2.957   4.244   6.522
  234SOL    HW1 2534   2.952   4.272   6.430
  234SOL    HW2 2535   2.880   4.188   6.534
  235SOL     OW 2536   2.461  13.126  11.567
  235SOL    HW1 2537   2.550  13.151  11.542
  235SOL    HW2 2538   2.407  13.149  11.491
  236SOL     OW 2539   9.524  14.307   1.643
  236SOL    HW1 2540   9.609  14.294   1.602
  236SOL    HW2 2541   9.523  14.246   1.717
  237SOL     OW 2542  12.767  11.933  11.847
  237SOL    HW1 2543  12.741  12.015  11.805
  237SOL    HW2 2544  12.723  11.865  11.795
  238SOL     OW 2545   0.374   9.414  11.907
  238SOL    HW1 2546   0.412   9.494  11.870
  238SOL    HW2 2547   0.411   9.343  11.855
  239SOL     OW 2548  14.405   1.291   5.873
  239SOL    HW1 2549  14.392   1.360   5.939
  239SOL    HW2 2550  14.318   1.273   5.839
  240SOL     OW 2551   4.222  11.428   6.675
  240SOL    HW1 2552   4.256  11.364   6.612
  240SOL    HW2 2553   4.256  11.512   6.645
  241SOL     OW 2554  12.859  13.197   6.085
  241SOL    HW1 2555  12.795  13.234   6.146
  241SOL    HW2 2556  12.811  13.127   6.040
  242SOL     OW 2557   1.356  14.514   9.895
  242SOL    HW1 2558   1.282  14.504   9.835
  242SOL    HW2 2559   1.406  14.588   9.860
  243SOL     OW 2560   1.774   6.763   9.584
  243SOL    HW1 2561   1.750   6.829   9.649
  243SOL    HW2 2562   1.691   6.725   9.555
  244SOL     OW 2563   9.591   1.103  10.397
  244SOL    HW1 2564   9.530   1.046  10.444
  244SOL    HW2 2565   9.539   1.139  10.325
  245SOL     OW 2566   5.558  10.393   8.093
  245SOL    HW1 2567   5.477  10.354   8.060
  245SOL    HW2 2568   5.594  10.327   8.152
  246SOL     OW 2569   9.588   4.425  14.510
  246SOL    HW1 2570   9.630   4.395  14.430
  246SOL    HW2 2571   9.656   4.420  14.577
  247SOL     OW 2572  13.996  14.655   6.321
  247SOL    HW1 2573  13.989  14.644   6.416
  247SOL    HW2 2574  13.995  14.566   6.286
  248SOL     OW 2575   7.506   8.193   5.609
  248SOL    HW1 2576   7.487   8.105   5.578
  248SOL    HW2 2577   7.514   8.185   5.704
  249SOL     OW 2578   4.564  14.014   7.339
  249SOL    HW1 2579   4.622  14.019   7.415
  249SOL    HW2 2580   4.606  14.070   7.273
  250SOL     OW 2581   9.089   2.429  13.884
  250SOL    HW1 2582   9.070   2.465  13.971
  250SOL    HW2 2583   9.174   2.386  13.894
  251SOL     OW 2584   2.024   4.818  12.099
  251SOL    HW1 2585   2.035   4.906  12.137
  251SOL    HW2 2586   2.091   4.815  12.030
  252SOL     OW 2587   1.159   1.365   2.751
  252SOL    HW1 2588   1.184   1.295   2.690
  252SOL    HW2 2589   1.069   1.387   2.726
  253SOL     OW 2590  12.895   7.522   3.197
  253SOL    HW1 2591  12.968   7.475   3.238
  253SOL    HW2 2592  12.937   7.579   3.133
  254SOL     OW 2593   6.860   6.432   7.010
  254SOL    HW1 2594   6.952   6.450   7.030
  254SOL    HW2 2595   6.860   6.416   6.915
  255SOL     OW 2596   5.552   3.113   4.370
  255SOL    HW1 2597   5.531   3.183   4.308
  255SOL    HW2 2598   5.567   3.036   4.315
  256SOL     OW 2599  11.807  13.684   0.429
  256SOL    HW1 2600  11.778  13.645   0.346
  256SOL    HW2 2601  11.728  13.684   0.484
  257SOL     OW 2602   2.801   2.864   7.013
  257SOL    HW1 2603   2.722   2.916   6.996
  257SOL    HW2 2604   2.802   2.852   7.108
  258SOL     OW 2605   5.316  12.381   5.466
  258SOL    HW1 2606   5.250  12.342   5.524
  258SOL    HW2 2607   5.399  12.349   5.500
  259SOL     OW 2608   6.771   2.240   2.414
  259SOL    HW1 2609   6.791   2.184   2.340
  259SOL    HW2 2610   6.805   2.326   2.389
  260SOL     OW 2611   2.169   9.321   8.746
  260SOL    HW1 2612   2.198   9.394   8.690
  260SOL    HW2 2613   2.247   9.267   8.757
  261SOL     OW 2614   6.978   0.203   9.587
  261SOL    HW1 2615   6.895   0.241   9.614
  261SOL    HW2 2616   7.038   0.223   9.659
  262SOL     OW 2617  14.561   8.668  10.507
  262SOL    HW1 2618  14.495   8.737  10.512
  262SOL    HW2 2619  14.522   8.600  10.452
  263SOL     OW 2620  13.941  14.688   8.787
  263SOL    HW1 2621  13.883  14.747   8.834
  263SOL    HW2 2622  13.886  14.648   8.720
  264SOL     OW 2623  10.457   5.136   9.595
  264SOL    HW1 2624  10.538   5.175   9.561
  264SOL    HW2 2625  10.402   5.124   9.518
  265SOL     OW 2626   4.079   4.497   8.340
  265SOL    HW1 2627   4.009   4.557   8.367
  265SOL    HW2 2628   4.133   4.549   8.280
  266SOL     OW 2629  14.047   7.115  13.092
  266SOL    HW1 2630  14.105   7.058  13.143
  266SOL    HW2 2631  14.105   7.163  13.034
  267SOL     OW 2632   5.315  14.751   2.879
  267SOL    HW1 2633   5.239  14.782   2.928
  267SOL    HW2 2634   5.351  14.829   2.837
  268SOL     OW 2635   2.425   7.626  13.062
  268SOL    HW1 2636   2.393   7.694  13.121
  268SOL    HW2 2637   2.518   7.643  13.053
  269SOL     OW 2638   4.880   5.826   5.159
  269SOL    HW1 2639   4.921   5.830   5.073
  269SOL    HW2 2640   4.913   5.745   5.198
  270SOL     OW 2641   0.630   0.082   3.267
  270SOL    HW1 2642   0.715   0.077   3.224
  270SOL    HW2 2643   0.583   0.005   3.235
  271SOL     OW 2644  14.635  12.564   5.595
  271SOL    HW1 2645  14.557  12.547   5.541
  271SOL    HW2 2646  14.709  12.547   5.537
  272SOL     OW 2647  11.254   1.783  11.646
  272SOL    HW1 2648  11.336   1.829  11.662
  272SOL    HW2 2649  11.237   1.736  11.727
  273SOL     OW 2650   7.516  11.952   3.529
  273SOL    HW1 2651   7.600  11.936   3.572
  273SOL    HW2 2652   7.518  12.045   3.507
  274SOL     OW 2653  12.773  10.414   4.768
  274SOL    HW1 2654  12.775  10.508   4.783
  274SOL    HW2 2655  12.709  10.402   4.698
  275SOL     OW 2656  10.655   0.931  14.664
  275SOL    HW1 2657  10.647   0.999  14.597
  275SOL    HW2 2658  10.718   0.869  14.628
  276SOL     OW 2659   9.436   4.136  14.685
  276SOL    HW1 2660   9.443   4.210  14.745
  276SOL    HW2 2661   9.455   4.171  14.599
  277SOL     OW 2662  11.245   8.992   3.430
  277SOL    HW1 2663  11.206   8.957   3.510
  277SOL    HW2 2664  11.218   8.932   3.361
  278SOL     OW 2665   1.361  10.650   1.635
  278SOL    HW1 2666   1.276  10.686   1.660
  278SOL    HW2 2667   1.409  10.724   1.599
  279SOL     OW 2668   5.337  12.048  13.179
  279SOL    HW1 2669   5.312  12.047  13.087
  279SOL    HW2 2670   5.317  11.960  13.210
  280SOL     OW 2671   9.529   9.171   6.289
  280SOL    HW1 2672   9.617   9.208   6.292
  280SOL    HW2 2673   9.518   9.141   6.199
  281SOL     OW 2674  12.867   5.185   2.317
  281SOL    HW1 2675  12.804   5.137   2.371
  281SOL    HW2 2676  12.931   5.221   2.379
  282SOL     OW 2677  10.772  13.967   4.250
  282SOL    HW1 2678  10.732  14.007   4.173
  282SOL    HW2 2679  10.861  14.003   4.251
  283SOL     OW 2680   4.118  10.576   2.392
  283SOL    HW1 2681   4.188  10.610   2.447
  283SOL    HW2 2682   4.053  10.647   2.389
  284SOL     OW 2683   3.753   7.957   7.028
  284SOL    HW1 2684   3.820   7.967   7.095
  284SOL    HW2 2685   3.728   7.864   7.033
  285SOL     OW 2686  10.262   8.374   0.653
  285SOL    HW1 2687  10.339   8.319   0.666
  285SOL    HW2 2688  10.244   8.369   0.559
  286SOL     OW 2689   9.560  10.523   2.983
  286SOL    HW1 2690   9.581  10.431   2.999
  286SOL    HW2 2691   9.468  10.523   2.956
  287SOL     OW 2692  10.983  13.562   0.945
  287SOL    HW1 2693  11.021  13.650   0.949
  287SOL    HW2 2694  11.020  13.516   1.021
  288SOL     OW 2695  11.706   9.359  10.327
  288SOL    HW1 2696  11.683   9.416  10.254
  288SOL    HW2 2697  11.733   9.277  10.286
  289SOL     OW 2698   1.171  13.838   9.966
  289SOL    HW1 2699   1.152  13.924  10.005
  289SOL    HW2 2700   1.224  13.859   9.889
  290SOL     OW 2701   2.946   8.028  13.894
  290SOL    HW1 2702   3.000   7.973  13.951
  290SOL    HW2 2703   2.864   8.038  13.942
  291SOL     OW 2704   8.848  13.705   0.103
  291SOL    HW1 2705   8.889  13.644   0.041
  291SOL    HW2 2706   8.840  13.786   0.054
  292SOL     OW 2707   9.202  10.542  14.331
  292SOL    HW1 2708   9.256  10.601  14.383
  292SOL    HW2 2709   9.122  10.591  14.315
  293SOL     OW 2710   6.377   2.844   7.754
  293SOL    HW1 2711   6.298   2.824   7.804
  293SOL    HW2 2712   6.448   2.841   7.818
  294SOL     OW 2713   6.985   0.591   3.400
  294SOL    HW1 2714   6.928   0.647   3.347
  294SOL    HW2 2715   6.971   0.619   3.490
  295SOL     OW 2716   4.562   4.270   3.310
  295SOL    HW1 2717   4.655   4.250   3.326
  295SOL    HW2 2718   4.545   4.348   3.362
  296SOL     OW 2719   9.389  13.809   2.305
  296SOL    HW1 2720   9.408  13.716   2.322
  296SOL    HW2 2721   9.296  13.818   2.328
  297SOL     OW 2722   1.739  10.313   9.780
  297SOL    HW1 2723   1.658  10.286   9.825
  297SOL    HW2 2724   1.774  10.232   9.743
  298SOL     OW 2725   1.452   0.990   0.334
  298SOL    HW1 2726   1.425   0.992   0.242
  298SOL    HW2 2727   1.391   1.049   0.378
  299SOL     OW 2728  11.427  14.164   7.298
  299SOL    HW1 2729  11.344  14.206   7.319
  299SOL    HW2 2730  11.444  14.189   7.207
  300SOL     OW 2731  11.366  14.868  12.851
  300SOL    HW1 2732  11.331   0.034  12.771
  300SOL    HW2 2733  11.461   0.009  12.845
  301SOL     OW 2734   5.129  12.599  12.964
  301SOL    HW1 2735   5.212  12.629  12.928
  301SOL    HW2 2736   5.112  12.516  12.919
  302SOL     OW 2737  14.157   1.920  10.733
  302SOL    HW1 2738  14.090   1.854  10.753
  302SOL    HW2 2739  14.117   2.003  10.755
  303SOL     OW 2740  13.452   4.073  11.683
  303SOL    HW1 2741  13.480   4.037  11.767
  303SOL    HW2 2742  13.360   4.096  11.696
  304SOL     OW 2743   1.362  10.647   3.581
  304SOL    HW1 2744   1.384  10.709   3.650
  304SOL    HW2 2745   1.292  10.594   3.618
  305SOL     OW 2746  11.021  14.700   2.587
  305SOL    HW1 2747  11.008  14.608   2.564
  305SOL    HW2 2748  11.061  14.698   2.673
  306SOL     OW 2749  10.652  14.824   9.977
  306SOL    HW1 2750  10.743  14.850   9.990
  306SOL    HW2 2751  10.646  14.800   9.885
  307SOL     OW 2752   1.254   4.457   6.250
  307SOL    HW1 2753   1.339   4.481   6.285
  307SOL    HW2 2754   1.200   4.442   6.328
  308SOL     OW 2755   0.980  12.532  13.334
  308SOL    HW1 2756   0.910  12.498  13.389
  308SOL    HW2 2757   1.061  12.499  13.374
  309SOL     OW 2758   9.626   7.775   2.700
  309SOL    HW1 2759   9.680   7.700   2.674
  309SOL    HW2 2760   9.688   7.845   2.717
  310SOL     OW 2761  10.398   1.144  13.668
  310SOL    HW1 2762  10.456   1.219  13.683
  310SOL    HW2 2763  10.311   1.184  13.659
  311SOL     OW 2764   6.317   0.453  14.461
  311SOL    HW1 2765   6.246   0.420  14.406
  311SOL    HW2 2766   6.300   0.547  14.467
  312SOL     OW 2767   0.741   1.792   9.949
  312SOL    HW1 2768   0.682   1.734   9.902
  312SOL    HW2 2769   0.804   1.734   9.992
  313SOL     OW 2770   1.980   7.409   1.419
  313SOL    HW1 2771   1.894   7.373   1.440
  313SOL    HW2 2772   1.970   7.448   1.332
  314SOL     OW 2773   5.293   3.844   4.728
  314SOL    HW1 2774   5.369   3.837   4.786
  314SOL    HW2 2775   5.280   3.938   4.716
  315SOL     OW 2776   4.736  10.020   5.596
  315SOL    HW1 2777   4.735   9.979   5.510
  315SOL    HW2 2778   4.810  10.081   5.593
  316SOL     OW 2779  13.951   5.068   2.161
  316SOL    HW1 2780  14.030   5.017   2.174
  316SOL    HW2 2781  13.982   5.156   2.139
  317SOL     OW 2782   1.206   9.354   9.654
  317SOL    HW1 2783   1.128   9.315   9.615
  317SOL    HW2 2784   1.224   9.431   9.600
  318SOL     OW 2785  14.657  11.792  11.821
  318SOL    HW1 2786  14.717  11.732  11.778
  318SOL    HW2 2787  14.710  11.868  11.844
  319SOL     OW 2788   5.959   3.515  13.179
  319SOL    HW1 2789   6.032   3.530  13.239
  319SOL    HW2 2790   5.886   3.492  13.235
  320SOL     OW 2791  12.324  10.057   4.819
  320SOL    HW1 2792  12.265  10.128   4.845
  320SOL    HW2 2793  12.400  10.067   4.876
  321SOL     OW 2794   5.206  10.187   0.216
  321SOL    HW1 2795   5.230  10.258   0.155
  321SOL    HW2 2796   5.111  10.196   0.226
  322SOL     OW 2797  13.687   7.091   9.911
  322SOL    HW1 2798  13.632   7.125   9.841
  322SOL    HW2 2799  13.646   7.122   9.991
  323SOL     OW 2800   4.487   5.467   1.782
  323SOL    HW1 2801   4.579   5.492   1.773
  323SOL    HW2 2802   4.483   5.421   1.866
  324SOL     OW 2803   1.311   9.128   3.375
  324SOL    HW1 2804   1.363   9.075   3.314
  324SOL    HW2 2805   1.330   9.219   3.350
  325SOL     OW 2806  12.026  10.846  12.669
  325SOL    HW1 2807  11.955  10.795  12.629
  325SOL    HW2 2808  11.981  10.914  12.719
  326SOL     OW 2809   5.274   6.691  12.443
  326SOL    HW1 2810   5.185   6.724  12.454
  326SOL    HW2 2811   5.322   6.724  12.519
  327SOL     OW 2812   5.207   3.345  11.290
  327SOL    HW1 2813   5.280   3.381  11.240
  327SOL    HW2 2814   5.248   3.282  11.350
  328SOL     OW 2815   3.398   9.400   2.017
  328SOL    HW1 2816   3.453   9.467   1.976
  328SOL    HW2 2817   3.349   9.446   2.084
  329SOL     OW 2818   3.839  12.051   2.126
  329SOL    HW1 2819   3.931  12.066   2.104
  329SOL    HW2 2820   3.804  12.139   2.142
  330SOL     OW 2821   0.077   5.021   3.675
  330SOL    HW1 2822  14.871   5.000   3.727
  330SOL    HW2 2823   0.138   5.058   3.738
  331SOL     OW 2824   7.780  11.992  12.584
  331SOL    HW1 2825   7.700  11.975  12.634
  331SOL    HW2 2826   7.816  11.905  12.566
  332SOL     OW 2827   5.737  13.898   4.426
  332SOL    HW1 2828   5.813  13.899   4.368
  332SOL    HW2 2829   5.760  13.955   4.499
  333SOL     OW 2830   8.415  14.600  12.820
  333SOL    HW1 2831   8.339  14.647  12.854
  333SOL    HW2 2832   8.436  14.644  12.737
  334SOL     OW 2833   3.853   1.273   5.612
  334SOL    HW1 2834   3.792   1.199   5.617
  334SOL    HW2 2835   3.799   1.347   5.584
  335SOL     OW 2836   7.686   3.402   5.414
  335SOL    HW1 2837   7.734   3.476   5.451
  335SOL    HW2 2838   7.748   3.361   5.354
  336SOL     OW 2839   1.491   1.138  13.150
  336SOL    HW1 2840   1.508   1.189  13.071
  336SOL    HW2 2841   1.576   1.102  13.175
  337SOL     OW 2842   3.750  12.472   7.402
  337SOL    HW1 2843   3.659  12.476   7.374
  337SOL    HW2 2844   3.777  12.382   7.380
  338SOL     OW 2845   6.169   2.269  10.884
  338SOL    HW1 2846   6.175   2.289  10.978
  338SOL    HW2 2847   6.260   2.259  10.856
  339SOL     OW 2848  10.606   3.247   4.968
  339SOL    HW1 2849  10.624   3.239   4.874
  339SOL    HW2 2850  10.568   3.163   4.992
  340SOL     OW 2851  12.633   9.927   8.426
  340SOL    HW1 2852  12.723   9.959   8.422
  340SOL    HW2 2853  12.598   9.943   8.338
  341SOL     OW 2854  10.000   2.824   4.113
  341SOL    HW1 2855   9.918   2.858   4.150
  341SOL    HW2 2856   9.986   2.827   4.018
  342SOL     OW 2857   7.990  14.474   8.969
  342SOL    HW1 2858   7.972  14.567   8.958
  342SOL    HW2 2859   7.903  14.433   8.968
  343SOL     OW 2860  13.957   9.728   3.014
  343SOL    HW1 2861  13.967   9.636   3.038
  343SOL    HW2 2862  14.039   9.769   3.043
  344SOL     OW 2863   1.026   8.411  10.360
  344SOL    HW1 2864   0.992   8.453  10.439
  344SOL    HW2 2865   1.028   8.480  10.294
  345SOL     OW 2866  13.527  12.879   0.753
  345SOL    HW1 2867  13.449  12.871   0.807
  345SOL    HW2 2868  13.538  12.973   0.740
  346SOL     OW 2869   2.895   5.602  13.390
  346SOL    HW1 2870   2.836   5.677  13.402
  346SOL    HW2 2871   2.944   5.623  13.311
  347SOL     OW 2872  14.010   4.893   1.814
  347SOL    HW1 2873  13.923   4.904   1.852
  347SOL    HW2 2874  13.997   4.904   1.720
  348SOL     OW 2875  13.820   4.252   1.608
  348SOL    HW1 2876  13.725   4.241   1.611
  348SOL    HW2 2877  13.833   4.331   1.556
  349SOL     OW 2878   2.584  12.546   3.321
  349SOL    HW1 2879   2.640  12.541   3.244
  349SOL    HW2 2880   2.503  12.501   3.295
  350SOL     OW 2881   1.158   3.407  11.220
  350SOL    HW1 2882   1.182   3.499  11.206
  350SOL    HW2 2883   1.224   3.373  11.280
  351SOL     OW 2884   2.214  11.269  14.325
  351SOL    HW1 2885   2.242  11.345  14.275
  351SOL    HW2 2886   2.248  11.284  14.414
  352SOL     OW 2887   4.531  14.783   5.394
  352SOL    HW1 2888   4.597  14.787   5.463
  352SOL    HW2 2889   4.470  14.854   5.414
  353SOL     OW 2890  11.929   3.114   5.047
  353SOL    HW1 2891  11.911   3.174   4.975
  353SOL    HW2 2892  11.937   3.028   5.005
  354SOL     OW 2893   7.454   4.430  11.622
  354SOL    HW1 2894   7.426   4.349  11.663
  354SOL    HW2 2895   7.407   4.499  11.669
  355SOL     OW 2896  12.421   4.423   5.992
  355SOL    HW1 2897  12.478   4.489   5.953
  355SOL    HW2 2898  12.465   4.340   5.977
  356SOL     OW 2899   5.054   3.658  10.073
  356SOL    HW1 2900   5.142   3.691  10.093
  356SOL    HW2 2901   5.040   3.682   9.982
  357SOL     OW 2902  12.683  13.196   8.876
  357SOL    HW1 2903  12.691  13.291   8.882
  357SOL    HW2 2904  12.659  13.167   8.964
  358SOL     OW 2905   8.711   9.062  10.784
  358SOL    HW1 2906   8.803   9.085  10.768
  358SOL    HW2 2907   8.710   8.967  10.782
  359SOL     OW 2908   5.376   9.670   2.869
  359SOL    HW1 2909   5.371   9.642   2.778
  359SOL    HW2 2910   5.469   9.669   2.889
  360SOL     OW 2911   1.937  10.886  10.702
  360SOL    HW1 2912   2.027  10.851  10.698
  360SOL    HW2 2913   1.896  10.854  10.622
  361SOL     OW 2914   4.715   1.736   6.205
  361SOL    HW1 2915   4.774   1.808   6.182
  361SOL    HW2 2916   4.628   1.769   6.182
  362SOL     OW 2917   9.895   2.638  13.987
  362SOL    HW1 2918   9.984   2.617  13.956
  362SOL    HW2 2919   9.850   2.669  13.908
  363SOL     OW 2920   5.026   4.298   0.353
  363SOL    HW1 2921   5.049   4.315   0.261
  363SOL    HW2 2922   5.089   4.349   0.404
  364SOL     OW 2923   9.125   5.144   7.790
  364SOL    HW1 2924   9.193   5.123   7.725
  364SOL    HW2 2925   9.168   5.205   7.850
  365SOL     OW 2926   4.998   1.730  11.398
  365SOL    HW1 2927   4.932   1.717  11.329
  365SOL    HW2 2928   5.027   1.641  11.420
  366SOL     OW 2929   1.753  14.405  10.470
  366SOL    HW1 2930   1.663  14.428  10.446
  366SOL    HW2 2931   1.807  14.468  10.423
  367SOL     OW 2932   7.901   5.703   0.912
  367SOL    HW1 2933   7.821   5.675   0.868
  367SOL    HW2 2934   7.929   5.627   0.963
  368SOL     OW 2935   5.174   6.303   8.249
  368SOL    HW1 2936   5.241   6.372   8.250
  368SOL    HW2 2937   5.171   6.272   8.339
  369SOL     OW 2938   0.408   8.752   8.676
  369SOL    HW1 2939   0.417   8.675   8.732
  369SOL    HW2 2940   0.378   8.717   8.592
  370SOL     OW 2941  13.618  11.776   7.504
  370SOL    HW1 2942  13.628  11.818   7.589
  370SOL    HW2 2943  13.530  11.801   7.475
  371SOL     OW 2944  12.173  11.952   9.059
  371SOL    HW1 2945  12.167  12.046   9.073
  371SOL    HW2 2946  12.266  11.936   9.045
  372SOL     OW 2947   9.706   1.455  14.475
  372SOL    HW1 2948   9.662   1.533  14.509
  372SOL    HW2 2949   9.635   1.395  14.454
  373SOL     OW 2950   8.585   1.272   3.060
  373SOL    HW1 2951   8.615   1.307   2.976
  373SOL    HW2 2952   8.528   1.340   3.096
  374SOL     OW 2953   8.253  14.529  14.147
  374SOL    HW1 2954   8.315  14.496  14.083
  374SOL    HW2 2955   8.221  14.451  14.192
  375SOL     OW 2956   1.021   9.078   8.501
  375SOL    HW1 2957   0.955   9.131   8.456
  375SOL    HW2 2958   0.994   9.080   8.593
  376SOL     OW 2959   9.482   8.038  11.086
  376SOL    HW1 2960   9.391   8.065  11.087
  376SOL    HW2 2961   9.530   8.115  11.056
  377SOL     OW 2962  13.231   8.827   8.609
  377SOL    HW1 2963  13.234   8.746   8.660
  377SOL    HW2 2964  13.145   8.865   8.627
  378SOL     OW 2965   5.810  10.205   2.923
  378SOL    HW1 2966   5.718  10.191   2.900
  378SOL    HW2 2967   5.830  10.292   2.889
  379SOL     OW 2968   7.894  13.152  11.082
  379SOL    HW1 2969   7.866  13.152  10.991
  379SOL    HW2 2970   7.892  13.059  11.108
  380SOL     OW 2971   4.368  10.312   0.247
  380SOL    HW1 2972   4.334  10.292   0.159
  380SOL    HW2 2973   4.383  10.226   0.286
  381SOL     OW 2974   9.465   7.353   3.425
  381SOL    HW1 2975   9.372   7.370   3.409
  381SOL    HW2 2976   9.485   7.278   3.369
  382SOL     OW 2977  14.193  10.474   3.810
  382SOL    HW1 2978  14.147  10.419   3.873
  382SOL    HW2 2979  14.263  10.418   3.776
  383SOL     OW 2980   3.333   5.822  14.119
  383SOL    HW1 2981   3.263   5.824  14.185
  383SOL    HW2 2982   3.294   5.775  14.045
  384SOL     OW 2983  12.319   5.078   2.009
  384SOL    HW1 2984  12.397   5.069   2.064
  384SOL    HW2 2985  12.342   5.143   1.943
  385SOL     OW 2986   2.709  12.749  10.236
  385SOL    HW1 2987   2.708  12.835  10.277
  385SOL    HW2 2988   2.802  12.732  10.217
  386SOL     OW 2989  13.992  11.941   8.436
  386SOL    HW1 2990  13.947  12.008   8.489
  386SOL    HW2 2991  14.073  11.924   8.484
  387SOL     OW 2992  10.781  11.980   5.214
  387SOL    HW1 2993  10.804  11.942   5.129
  387SOL    HW2 2994  10.700  11.935   5.239
  388SOL     OW 2995  12.800  14.816   7.022
  388SOL    HW1 2996  12.836   0.019   7.069
  388SOL    HW2 2997  12.778  14.850   6.935
  389SOL     OW 2998   6.792   5.725   9.826
  389SOL    HW1 2999   6.885   5.747   9.829
  389SOL    HW2 3000   6.758   5.776   9.753
  390SOL     OW 3001   0.674   5.459   3.063
  390SOL    HW1 3002   0.654   5.552   3.058
  390SOL    HW2 3003   0.592   5.415   3.039
  391SOL     OW 3004   9.128  11.863  14.095
  391SOL    HW1 3005   9.182  11.810  14.036
  391SOL    HW2 3006   9.118  11.947  14.051
  392SOL     OW 3007  10.081   5.490   0.217
  392SOL    HW1 3008  10.154   5.437   0.185
  392SOL    HW2 3009  10.023   5.427   0.260
  393SOL     OW 3010   5.989   1.149   5.050
  393SOL    HW1 3011   5.962   1.231   5.009
  393SOL    HW2 3012   6.065   1.173   5.104
  394SOL     OW 3013   7.693  14.001   7.926
  394SOL    HW1 3014   7.614  13.962   7.889
  394SOL    HW2 3015   7.753  14.008   7.852
  395SOL     OW 3016   0.794  13.146   6.741
  395SOL    HW1 3017   0.712  13.191   6.763
  395SOL    HW2 3018   0.774  13.098   6.661
  396SOL     OW 3019  12.891  12.951   7.166
  396SOL    HW1 3020  12.971  12.916   7.205
  396SOL    HW2 3021  12.910  12.954   7.072
  397SOL     OW 3022   0.495   3.271   2.107
  397SOL    HW1 3023   0.470   3.319   2.186
  397SOL    HW2 3024   0.527   3.338   2.047
  398SOL     OW 3025  10.353   1.910   7.589
  398SOL    HW1 3026  10.261   1.925   7.568
  398SOL    HW2 3027  10.379   1.838   7.531
  399SOL     OW 3028   2.143   1.892  11.346
  399SOL    HW1 3029   2.131   1.900  11.440
  399SOL    HW2 3030   2.154   1.982  11.315
  400SOL     OW 3031   2.027   7.953   5.714
  400SOL    HW1 3032   2.007   7.866   5.749
  400SOL    HW2 3033   1.955   7.972   5.654
  401SOL     OW 3034  14.512   3.429  12.471
  401SOL    HW1 3035  14.424   3.467  12.474
  401SOL    HW2 3036  14.543   3.432  12.562
  402SOL     OW 3037  12.864  11.936   7.804
  402SOL    HW1 3038  12.869  11.841   7.792
  402SOL    HW2 3039  12.780  11.960   7.765
  403SOL     OW 3040   2.447   6.466   4.307
  403SOL    HW1 3041   2.534   6.461   4.347
  403SOL    HW2 3042   2.462   6.444   4.215
  404SOL     OW 3043   0.920   5.828   7.822
  404SOL    HW1 3044   0.998   5.779   7.799
  404SOL    HW2 3045   0.895   5.794   7.908
  405SOL     OW 3046   3.064  10.641  14.450
  405SOL    HW1 3047   3.106  10.684  14.525
  405SOL    HW2 3048   3.137  10.615  14.394
  406SOL     OW 3049   8.467   8.736   3.691
  406SOL    HW1 3050   8.441   8.826   3.671
  406SOL    HW2 3051   8.533   8.744   3.759
  407SOL     OW 3052  12.992   1.601  11.252
  407SOL    HW1 3053  12.979   1.513  11.218
  407SOL    HW2 3054  13.080   1.626  11.220
  408SOL     OW 3055   0.090  12.366   0.457
  408SOL    HW1 3056   0.026  12.382   0.387
  408SOL    HW2 3057   0.075  12.275   0.482
  409SOL     OW 3058   4.753  12.034   4.974
  409SOL    HW1 3059   4.732  11.941   4.980
  409SOL    HW2 3060   4.679  12.072   4.926
  410SOL     OW 3061   8.678   7.735   1.569
  410SOL    HW1 3062   8.646   7.777   1.650
  410SOL    HW2 3063   8.689   7.807   1.508
  411SOL     OW 3064   4.619   0.410   2.524
  411SOL    HW1 3065   4.707   0.378   2.506
  411SOL    HW2 3066   4.597   0.464   2.448
  412SOL     OW 3067  13.753   6.130   8.750
  412SOL    HW1 3068  13.743   6.156   8.842
  412SOL    HW2 3069  13.686   6.181   8.704
  413SOL     OW 3070  10.924  13.519  11.632
  413SOL    HW1 3071  10.955  13.525  11.542
  413SOL    HW2 3072  10.995  13.476  11.680
  414SOL     OW 3073   3.027  13.960   7.712
  414SOL    HW1 3074   3.052  13.874   7.677
  414SOL    HW2 3075   2.931  13.959   7.712
  415SOL     OW 3076  12.861   1.567   7.380
  415SOL    HW1 3077  12.851   1.586   7.473
  415SOL    HW2 3078  12.816   1.483   7.367
  416SOL     OW 3079   4.375   9.142   3.281
  416SOL    HW1 3080   4.449   9.201   3.297
  416SOL    HW2 3081   4.380   9.124   3.187
  417SOL     OW 3082   0.561   7.479  13.218
  417SOL    HW1 3083   0.564   7.435  13.303
  417SOL    HW2 3084   0.497   7.429  13.168
  418SOL     OW 3085   6.022   3.828   6.774
  418SOL    HW1 3086   6.017   3.905   6.830
  418SOL    HW2 3087   5.936   3.786   6.785
  419SOL     OW 3088   8.911  12.762   1.388
  419SOL    HW1 3089   8.919  12.822   1.462
  419SOL    HW2 3090   8.829  12.787   1.346
  420SOL     OW 3091  13.742   5.981   4.741
  420SOL    HW1 3092  13.738   5.962   4.647
  420SOL    HW2 3093  13.833   5.967   4.765
  421SOL     OW 3094   3.498   9.934  14.136
  421SOL    HW1 3095   3.566   9.872  14.109
  421SOL    HW2 3096   3.482   9.987  14.058
  422SOL     OW 3097   1.849  10.758   2.629
  422SOL    HW1 3098   1.916  10.692   2.648
  422SOL    HW2 3099   1.835  10.751   2.535
  423SOL     OW 3100   4.422   4.951   5.107
  423SOL    HW1 3101   4.444   4.913   5.022
  423SOL    HW2 3102   4.338   4.910   5.131
  424SOL     OW 3103   7.481  12.174   0.081
  424SOL    HW1 3104   7.461  12.223   0.002
  424SOL    HW2 3105   7.505  12.241   0.145
  425SOL     OW 3106   4.988   4.809  11.353
  425SOL    HW1 3107   4.944   4.746  11.411
  425SOL    HW2 3108   5.041   4.754  11.295
  426SOL     OW 3109   9.720   6.085   5.001
  426SOL    HW1 3110   9.699   6.028   5.075
  426SOL    HW2 3111   9.773   6.155   5.039
  427SOL     OW 3112   9.407   3.774   3.770
  427SOL    HW1 3113   9.331   3.821   3.805
  427SOL    HW2 3114   9.445   3.835   3.707
  428SOL     OW 3115   1.483  12.646  14.809
  428SOL    HW1 3116   1.419  12.717  14.809
  428SOL    HW2 3117   1.496  12.625  14.716
  429SOL     OW 3118   8.180   9.791   4.184
  429SOL    HW1 3119   8.155   9.883   4.195
  429SOL    HW2 3120   8.203   9.784   4.091
  430SOL     OW 3121  12.139   2.242  14.857
  430SOL    HW1 3122  12.221   2.234   0.035
  430SOL    HW2 3123  12.071   2.249   0.051
  431SOL     OW 3124  10.368  11.598   5.525
  431SOL    HW1 3125  10.280  11.587   5.561
  431SOL    HW2 3126  10.413  11.517   5.548
  432SOL     OW 3127  12.012  12.437   9.561
  432SOL    HW1 3128  12.033  12.417   9.469
  432SOL    HW2 3129  12.022  12.532   9.568
  433SOL     OW 3130   6.372  10.298  14.267
  433SOL    HW1 3131   6.333  10.225  14.218
  433SOL    HW2 3132   6.297  10.342  14.308
  434SOL     OW 3133   5.710   3.403   2.688
  434SOL    HW1 3134   5.720   3.380   2.780
  434SOL    HW2 3135   5.750   3.489   2.680
  435SOL     OW 3136   9.941   9.358   9.723
  435SOL    HW1 3137   9.917   9.330   9.635
  435SOL    HW2 3138   9.870   9.326   9.779
  436SOL     OW 3139  12.126   9.339   3.585
  436SOL    HW1 3140  12.040   9.315   3.619
  436SOL    HW2 3141  12.112   9.358   3.492
  437SOL     OW 3142  11.365   9.361  10.771
  437SOL    HW1 3143  11.387   9.268  10.768
  437SOL    HW2 3144  11.269   9.362  10.768
  438SOL     OW 3145   4.502   8.178  12.901
  438SOL    HW1 3146   4.518   8.156  12.809
  438SOL    HW2 3147   4.440   8.112  12.931
  439SOL     OW 3148  10.236   4.046  13.544
  439SOL    HW1 3149  10.193   4.120  13.588
  439SOL    HW2 3150  10.328   4.072  13.539
  440SOL     OW 3151   4.430  12.567   4.493
  440SOL    HW1 3152   4.486  12.617   4.433
  440SOL    HW2 3153   4.375  12.514   4.436
  441SOL     OW 3154  11.494   5.429   1.560
  441SOL    HW1 3155  11.539   5.480   1.493
  441SOL    HW2 3156  11.410   5.473   1.571
  442SOL     OW 3157  14.239   6.415   9.514
  442SOL    HW1 3158  14.261   6.402   9.606
  442SOL    HW2 3159  14.270   6.336   9.470
  443SOL     OW 3160   0.547  12.296   0.978
  443SOL    HW1 3161   0.566  12.382   1.016
  443SOL    HW2 3162   0.632  12.251   0.977
  444SOL     OW 3163   6.103  10.017   4.544
  444SOL    HW1 3164   6.145   9.962   4.479
  444SOL    HW2 3165   6.064  10.089   4.494
  445SOL     OW 3166  13.103   5.167   9.406
  445SOL    HW1 3167  13.115   5.084   9.452
  445SOL    HW2 3168  13.152   5.231   9.459
  446SOL     OW 3169   5.083  13.721   8.156
  446SOL    HW1 3170   5.115  13.647   8.105
  446SOL    HW2 3171   5.161  13.773   8.175
  447SOL     OW 3172   0.297   3.012   7.117
  447SOL    HW1 3173   0.218   3.063   7.133
  447SOL    HW2 3174   0.369   3.069   7.145
  448SOL     OW 3175   1.619   6.317   2.156
  448SOL    HW1 3176   1.644   6.304   2.064
  448SOL    HW2 3177   1.644   6.236   2.199
  449SOL     OW 3178   7.796   6.924   3.014
  449SOL    HW1 3179   7.820   6.955   3.102
  449SOL    HW2 3180   7.702   6.943   3.007
  450SOL     OW 3181   4.087   5.576  12.079
  450SOL    HW1 3182   4.115   5.508  12.019
  450SOL    HW2 3183   4.044   5.529  12.150
  451SOL     OW 3184  10.531   7.954  14.767
  451SOL    HW1 3185  10.436   7.941  14.762
  451SOL    HW2 3186  10.553   8.001  14.687
  452SOL     OW 3187  11.485   6.002   6.651
  452SOL    HW1 3188  11.398   5.974   6.679
  452SOL    HW2 3189  11.527   6.035   6.730
  453SOL     OW 3190  12.949   5.659  13.895
  453SOL    HW1 3191  12.877   5.651  13.832
  453SOL    HW2 3192  12.993   5.574  13.892
  454SOL     OW 3193   5.789  10.340   8.489
  454SOL    HW1 3194   5.844  10.295   8.553
  454SOL    HW2 3195   5.701  10.304   8.504
  455SOL     OW 3196  12.945   3.571   3.043
  455SOL    HW1 3197  12.870   3.533   2.998
  455SOL    HW2 3198  13.017   3.563   2.980
  456SOL     OW 3199   4.451  14.451   3.001
  456SOL    HW1 3200   4.472  14.545   3.000
  456SOL    HW2 3201   4.504  14.414   2.931
  457SOL     OW 3202   4.276   1.698   0.985
  457SOL    HW1 3203   4.247   1.677   0.896
  457SOL    HW2 3204   4.204   1.670   1.041
  458SOL     OW 3205  14.390   9.944   1.797
  458SOL    HW1 3206  14.419   9.857   1.826
  458SOL    HW2 3207  14.349   9.982   1.875
  459SOL     OW 3208   4.646  13.490   4.899
  459SOL    HW1 3209   4.731  13.527   4.875
  459SOL    HW2 3210   4.606  13.556   4.955
  460SOL     OW 3211   2.024   3.987   0.029
  460SOL    HW1 3212   2.004   4.076   0.056
  460SOL    HW2 3213   2.063   3.996  14.814
  461SOL     OW 3214   1.465  13.705   9.567
  461SOL    HW1 3215   1.398  13.637   9.567
  461SOL    HW2 3216   1.535  13.670   9.621
  462SOL     OW 3217   9.048   0.872   9.406
  462SOL    HW1 3218   9.130   0.918   9.388
  462SOL    HW2 3219   9.023   0.901   9.494
  463SOL     OW 3220   2.566   3.196  12.227
  463SOL    HW1 3221   2.502   3.236  12.286
  463SOL    HW2 3222   2.528   3.207  12.140
  464SOL     OW 3223  13.282  12.092   1.094
  464SOL    HW1 3224  13.200  12.136   1.073
  464SOL    HW2 3225  13.294  12.107   1.188
  465SOL     OW 3226   0.158   0.037   2.886
  465SOL    HW1 3227   0.168  14.816   2.904
  465SOL    HW2 3228   0.089   0.042   2.820
  466SOL     OW 3229   4.750   3.703  10.168
  466SOL    HW1 3230   4.821   3.767  10.165
  466SOL    HW2 3231   4.704   3.722  10.250
  467SOL     OW 3232   9.443  10.685  10.732
  467SOL    HW1 3233   9.366  10.630  10.714
  467SOL    HW2 3234   9.515  10.641  10.686
  468SOL     OW 3235   3.926   9.488   9.500
  468SOL    HW1 3236   3.892   9.542   9.429
  468SOL    HW2 3237   3.910   9.540   9.579
  469SOL     OW 3238  13.154   3.932   1.827
  469SOL    HW1 3239  13.220   3.920   1.759
  469SOL    HW2 3240  13.195   3.898   1.906
  470SOL     OW 3241   5.064   3.269  12.230
  470SOL    HW1 3242   5.053   3.188  12.280
  470SOL    HW2 3243   5.138   3.251  12.172
  471SOL     OW 3244   7.747   7.435   3.969
  471SOL    HW1 3245   7.770   7.496   3.899
  471SOL    HW2 3246   7.689   7.371   3.926
  472SOL     OW 3247  13.665   2.947   7.800
  472SOL    HW1 3248  13.654   3.041   7.813
  472SOL    HW2 3249  13.576   2.914   7.786
  473SOL     OW 3250  10.303   1.533   3.405
  473SOL    HW1 3251  10.353   1.454   3.423
  473SOL    HW2 3252  10.366   1.592   3.363
  474SOL     OW 3253   0.270   2.217   7.342
  474SOL    HW1 3254   0.295   2.124   7.335
  474SOL    HW2 3255   0.211   2.232   7.269
  475SOL     OW 3256   8.937   1.238   3.077
  475SOL    HW1 3257   8.964   1.162   3.025
  475SOL    HW2 3258   8.911   1.304   3.012
  476SOL     OW 3259   9.489  14.231   1.222
  476SOL    HW1 3260   9.419  14.172   1.196
  476SOL    HW2 3261   9.457  14.273   1.302
  477SOL     OW 3262   2.579  13.808  13.657
  477SOL    HW1 3263   2.610  13.810  13.567
  477SOL    HW2 3264   2.485  13.825  13.651
  478SOL     OW 3265   3.983   9.968   2.036
  478SOL    HW1 3266   4.032   9.976   1.955
  478SOL    HW2 3267   3.904  10.019   2.021
  479SOL     OW 3268   4.845   0.069   2.211
  479SOL    HW1 3269   4.881   0.158   2.208
  479SOL    HW2 3270   4.849   0.044   2.303
  480SOL     OW 3271  11.219  14.861   0.801
  480SOL    HW1 3272  11.135   0.033   0.787
  480SOL    HW2 3273  11.254  14.850   0.713
  481SOL     OW 3274   9.584  11.354   8.039
  481SOL    HW1 3275   9.667  11.331   8.080
  481SOL    HW2 3276   9.565  11.442   8.072
  482SOL     OW 3277   7.041   2.486  12.064
  482SOL    HW1 3278   7.020   2.472  12.156
  482SOL    HW2 3279   7.041   2.581  12.053
  483SOL     OW 3280   6.477  12.129   1.605
  483SOL    HW1 3281   6.509  12.219   1.610
  483SOL    HW2 3282   6.507  12.088   1.686
  484SOL     OW 3283  14.479  10.806   8.727
  484SOL    HW1 3284  14.513  10.744   8.663
  484SOL    HW2 3285  14.408  10.759   8.771
  485SOL     OW 3286   1.819   9.007   6.312
  485SOL    HW1 3287   1.760   9.079   6.289
  485SOL    HW2 3288   1.764   8.929   6.308
  486SOL     OW 3289   0.184  10.678   9.400
  486SOL    HW1 3290   0.248  10.674   9.471
  486SOL    HW2 3291   0.223  10.738   9.336
  487SOL     OW 3292   2.317   2.772  11.439
  487SOL    HW1 3293   2.337   2.813  11.355
  487SOL    HW2 3294   2.366   2.689  11.437
  488SOL     OW 3295   1.232   6.864  10.985
  488SOL    HW1 3296   1.147   6.896  11.013
  488SOL    HW2 3297   1.212   6.795  10.922
  489SOL     OW 3298   7.716   7.018  10.994
  489SOL    HW1 3299   7.648   6.960  10.962
  489SOL    HW2 3300   7.747   7.065  10.917
  490SOL     OW 3301   4.909   0.198  13.240
  490SOL    HW1 3302   4.953   0.183  13.324
  490SOL    HW2 3303   4.965   0.153  13.176
  491SOL     OW 3304   0.840  10.073   7.941
  491SOL    HW1 3305   0.776  10.075   7.869
  491SOL    HW2 3306   0.807  10.005   8.000
  492SOL     OW 3307   0.100  12.047  10.212
  492SOL    HW1 3308   0.127  11.961  10.179
  492SOL    HW2 3309   0.007  12.052  10.192
  493SOL     OW 3310  14.401  12.372   1.583
  493SOL    HW1 3311  14.435  12.285   1.564
  493SOL    HW2 3312  14.352  12.396   1.504
  494SOL     OW 3313  13.526   1.577   0.610
  494SOL    HW1 3314  13.455   1.522   0.576
  494SOL    HW2 3315  13.492   1.666   0.604
  495SOL     OW 3316   5.310  13.019   0.394
  495SOL    HW1 3317   5.383  12.959   0.410
  495SOL    HW2 3318   5.259  12.977   0.325
  496SOL     OW 3319   7.671  12.150  14.654
  496SOL    HW1 3320   7.636  12.165  14.566
  496SOL    HW2 3321   7.667  12.236  14.696
  497SOL     OW 3322   1.895   9.036   0.775
  497SOL    HW1 3323   1.861   9.125   0.785
  497SOL    HW2 3324   1.918   9.030   0.682
  498SOL     OW 3325   3.534  13.641  14.826
  498SOL    HW1 3326   3.519  13.705   0.023
  498SOL    HW2 3327   3.586  13.572  14.867
  499SOL     OW 3328   7.096   8.589  12.775
  499SOL    HW1 3329   7.117   8.545  12.692
  499SOL    HW2 3330   7.139   8.536  12.842
  500SOL     OW 3331   4.598   9.456   7.177
  500SOL    HW1 3332   4.644   9.384   7.220
  500SOL    HW2 3333   4.511   9.422   7.159
  501SOL     OW 3334   6.441  10.524   3.717
  501SOL    HW1 3335   6.367  10.578   3.742
  501SOL    HW2 3336   6.414  10.482   3.635
  502SOL     OW 3337   1.961   5.054  12.457
  502SOL    HW1 3338   1.941   5.130  12.513
  502SOL    HW2 3339   1.979   4.983  12.519
  503SOL     OW 3340  10.413  11.867  10.793
  503SOL    HW1 3341  10.347  11.895  10.857
  503SOL    HW2 3342  10.385  11.779  10.768
  504SOL     OW 3343   2.136  11.125   0.369
  504SOL    HW1 3344   2.190  11.170   0.434
  504SOL    HW2 3345   2.161  11.033   0.377
  505SOL     OW 3346   2.853   4.450   9.440
  505SOL    HW1 3347   2.857   4.372   9.385
  505SOL    HW2 3348   2.920   4.436   9.507
  506SOL     OW 3349  13.634   0.794   2.813
  506SOL    HW1 3350  13.638   0.710   2.858
  506SOL    HW2 3351  13.659   0.858   2.880
  507SOL     OW 3352  11.969  14.532   9.555
  507SOL    HW1 3353  11.885  14.558   9.593
  507SOL    HW2 3354  12.019  14.497   9.629
  508SOL     OW 3355   0.803   9.276   3.818
  508SOL    HW1 3356   0.897   9.265   3.836
  508SOL    HW2 3357   0.767   9.188   3.831
  509SOL     OW 3358  10.062   3.714   3.238
  509SOL    HW1 3359  10.095   3.782   3.179
  509SOL    HW2 3360  10.070   3.753   3.326
  510SOL     OW 3361   6.938   0.627   5.875
  510SOL    HW1 3362   6.946   0.662   5.786
  510SOL    HW2 3363   7.011   0.666   5.922
  511SOL     OW 3364  13.821   7.481  10.394
  511SOL    HW1 3365  13.875   7.427  10.336
  511SOL    HW2 3366  13.747   7.508  10.340
  512SOL     OW 3367   9.831   3.040   1.650
  512SOL    HW1 3368   9.827   2.955   1.692
  512SOL    HW2 3369   9.845   3.021   1.557
  513SOL     OW 3370  14.420   2.728   5.596
  513SOL    HW1 3371  14.397   2.658   5.656
  513SOL    HW2 3372  14.513   2.744   5.612
  514SOL     OW 3373   1.437   7.680   0.523
  514SOL    HW1 3374   1.441   7.711   0.613
  514SOL    HW2 3375   1.384   7.745   0.477
  515SOL     OW 3376   7.558   2.628   7.216
  515SOL    HW1 3377   7.467   2.652   7.236
  515SOL    HW2 3378   7.587   2.578   7.292
  516SOL     OW 3379   1.052  12.489   5.749
  516SOL    HW1 3380   1.047  12.498   5.654
  516SOL    HW2 3381   1.144  12.476   5.768
  517SOL     OW 3382  12.153   7.193   0.082
  517SOL    HW1 3383  12.214   7.166   0.013
  517SOL    HW2 3384  12.124   7.280   0.055
  518SOL     OW 3385   2.300   7.150  14.464
  518SOL    HW1 3386   2.270   7.221  14.521
  518SOL    HW2 3387   2.389   7.175  14.438
  519SOL     OW 3388  10.615  11.365  13.809
  519SOL    HW1 3389  10.529  11.404  13.826
  519SOL    HW2 3390  10.671  11.440  13.789
  520SOL     OW 3391   4.679  12.520  14.389
  520SOL    HW1 3392   4.662  12.534  14.296
  520SOL    HW2 3393   4.760  12.469  14.391
  521SOL     OW 3394   3.416   0.704   8.741
  521SOL    HW1 3395   3.388   0.617   8.770
  521SOL    HW2 3396   3.426   0.754   8.821
  522SOL     OW 3397  14.826   6.718   7.755
  522SOL    HW1 3398  14.772   6.749   7.828
  522SOL    HW2 3399   0.006   6.794   7.730
  523SOL     OW 3400  12.853   2.456   7.876
  523SOL    HW1 3401  12.880   2.528   7.819
  523SOL    HW2 3402  12.876   2.485   7.964
  524SOL     OW 3403  14.203   2.073   8.722
  524SOL    HW1 3404  14.210   2.160   8.760
  524SOL    HW2 3405  14.193   2.088   8.628
  525SOL     OW 3406   9.890  10.337   0.717
  525SOL    HW1 3407   9.830  10.301   0.652
  525SOL    HW2 3408   9.867  10.293   0.798
  526SOL     OW 3409  10.817   1.847  12.506
  526SOL    HW1 3410  10.739   1.894  12.479
  526SOL    HW2 3411  10.878   1.915  12.533
  527SOL     OW 3412   3.557   2.558   5.282
  527SOL    HW1 3413   3.640   2.548   5.236
  527SOL    HW2 3414   3.502   2.609   5.222
  528SOL     OW 3415   9.330   3.298  10.728
  528SOL    HW1 3416   9.321   3.204  10.709
  528SOL    HW2 3417   9.300   3.341  10.648
  529SOL     OW 3418   0.831   4.081  12.367
  529SOL    HW1 3419   0.920   4.116  12.359
  529SOL    HW2 3420   0.838   3.991  12.337
  530SOL     OW 3421  13.095   4.596   9.263
  530SOL    HW1 3422  13.060   4.683   9.280
  530SOL    HW2 3423  13.018   4.540   9.256
  531SOL     OW 3424   7.391   7.560  11.958
  531SOL    HW1 3425   7.375   7.539  12.050
  531SOL    HW2 3426   7.410   7.475  11.917
  532SOL     OW 3427   5.357  13.240  12.214
  532SOL    HW1 3428   5.418  13.195  12.156
  532SOL    HW2 3429   5.413  13.274  12.285
  533SOL     OW 3430   0.355   2.076  10.325
  533SOL    HW1 3431   0.301   2.005  10.293
  533SOL    HW2 3432   0.423   2.087  10.259
  534SOL     OW 3433  13.305   6.566   7.560
  534SOL    HW1 3434  13.352   6.648   7.579
  534SOL    HW2 3435  13.342   6.502   7.620
  535SOL     OW 3436   8.024  13.445  12.468
  535SOL    HW1 3437   8.074  13.507  12.413
  535SOL    HW2 3438   8.074  13.440  12.549
  536SOL     OW 3439  11.460   1.510  13.706
  536SOL    HW1 3440  11.443   1.603  13.718
  536SOL    HW2 3441  11.393   1.467  13.760
  537SOL     OW 3442  10.173  14.691   4.957
  537SOL    HW1 3443  10.166  14.766   5.015
  537SOL    HW2 3444  10.105  14.631   4.987
  538SOL     OW 3445  14.173  11.231   4.578
  538SOL    HW1 3446  14.109  11.238   4.507
  538SOL    HW2 3447  14.257  11.253   4.537
  539SOL     OW 3448   8.819   7.077   1.473
  539SOL    HW1 3449   8.798   7.146   1.536
  539SOL    HW2 3450   8.914   7.075   1.471
  540SOL     OW 3451   2.653   3.879   4.948
  540SOL    HW1 3452   2.566   3.870   4.909
  540SOL    HW2 3453   2.698   3.943   4.893
  541SOL     OW 3454   2.477   0.721   7.199
  541SOL    HW1 3455   2.447   0.632   7.214
  541SOL    HW2 3456   2.562   0.726   7.245
  542SOL     OW 3457   4.819   2.526   3.433
  542SOL    HW1 3458   4.759   2.495   3.364
  542SOL    HW2 3459   4.761   2.567   3.498
  543SOL     OW 3460   3.612  13.244  14.266
  543SOL    HW1 3461   3.601  13.289  14.182
  543SOL    HW2 3462   3.631  13.315  14.328
  544SOL     OW 3463   7.443   1.468  11.677
  544SOL    HW1 3464   7.360   1.506  11.705
  544SOL    HW2 3465   7.461   1.399  11.740
  545SOL     OW 3466   7.163   1.056  12.293
  545SOL    HW1 3467   7.109   0.999  12.349
  545SOL    HW2 3468   7.242   1.072  12.345
  546SOL     OW 3469  10.427   7.145  10.566
  546SOL    HW1 3470  10.397   7.161  10.476
  546SOL    HW2 3471  10.432   7.050  10.573
  547SOL     OW 3472   4.059   1.126   3.313
  547SOL    HW1 3473   4.145   1.139   3.272
  547SOL    HW2 3474   4.074   1.145   3.406
  548SOL     OW 3475   0.000   6.768   8.343
  548SOL    HW1 3476  14.853   6.677   8.321
  548SOL    HW2 3477   0.014   6.811   8.258
  549SOL     OW 3478   9.672   4.049   8.224
  549SOL    HW1 3479   9.698   4.070   8.313
  549SOL    HW2 3480   9.616   4.122   8.198
  550SOL     OW 3481   2.871   6.550   7.388
  550SOL    HW1 3482   2.790   6.517   7.428
  550SOL    HW2 3483   2.864   6.527   7.296
  551SOL     OW 3484   4.300   9.927   5.534
  551SOL    HW1 3485   4.379   9.905   5.584
  551SOL    HW2 3486   4.293   9.856   5.469
  552SOL     OW 3487  12.279  10.010   5.700
  552SOL    HW1 3488  12.207  10.040   5.755
  552SOL    HW2 3489  12.267  10.057   5.618
  553SOL     OW 3490  11.507   4.514  13.699
  553SOL    HW1 3491  11.413   4.529  13.694
  553SOL    HW2 3492  11.516   4.437  13.755
  554SOL     OW 3493   2.272   7.218  11.714
  554SOL    HW1 3494   2.297   7.131  11.685
  554SOL    HW2 3495   2.227   7.204  11.798
  555SOL     OW 3496   0.427  10.487  11.376
  555SOL    HW1 3497   0.487  10.479  11.302
  555SOL    HW2 3498   0.485  10.496  11.453
  556SOL     OW 3499  11.653   3.951   7.349
  556SOL    HW1 3500  11.627   4.004   7.274
  556SOL    HW2 3501  11.745   3.930   7.332
  557SOL     OW 3502  13.536   2.923   9.872
  557SOL    HW1 3503  13.467   2.909   9.807
  557SOL    HW2 3504  13.615   2.939   9.821
  558SOL     OW 3505   6.937   3.763  14.205
  558SOL    HW1 3506   6.946   3.812  14.123
  558SOL    HW2 3507   7.018   3.712  14.211
  559SOL     OW 3508   7.952   5.810   8.832
  559SOL    HW1 3509   7.929   5.902   8.824
  559SOL    HW2 3510   8.020   5.807   8.899
  560SOL     OW 3511   4.826   5.072   7.155
  560SOL    HW1 3512   4.816   4.978   7.143
  560SOL    HW2 3513   4.907   5.094   7.108
  561SOL     OW 3514  14.634   6.576   4.244
  561SOL    HW1 3515  14.653   6.669   4.252
  561SOL    HW2 3516  14.710   6.539   4.200
  562SOL     OW 3517   7.406   6.043  13.458
  562SOL    HW1 3518   7.319   6.062  13.422
  562SOL    HW2 3519   7.415   6.104  13.531
  563SOL     OW 3520   8.871  14.696  12.899
  563SOL    HW1 3521   8.797  14.740  12.857
  563SOL    HW2 3522   8.850  14.697  12.992
  564SOL     OW 3523   8.932   8.717  10.209
  564SOL    HW1 3524   9.003   8.680  10.157
  564SOL    HW2 3525   8.935   8.811  10.191
  565SOL     OW 3526  11.865  14.459   2.174
  565SOL    HW1 3527  11.862  14.407   2.094
  565SOL    HW2 3528  11.782  14.441   2.218
  566SOL     OW 3529   2.706   5.600   5.363
  566SOL    HW1 3530   2.733   5.686   5.396
  566SOL    HW2 3531   2.612   5.609   5.348
  567SOL     OW 3532   9.319   5.960   1.144
  567SOL    HW1 3533   9.229   5.932   1.158
  567SOL    HW2 3534   9.372   5.890   1.183
  568SOL     OW 3535  13.906   4.884   2.809
  568SOL    HW1 3536  13.994   4.918   2.828
  568SOL    HW2 3537  13.921   4.811   2.749
  569SOL     OW 3538  11.766   6.437  12.147
  569SOL    HW1 3539  11.727   6.444  12.060
  569SOL    HW2 3540  11.777   6.343  12.162
  570SOL     OW 3541  10.056   8.592   6.446
  570SOL    HW1 3542  10.144   8.619   6.421
  570SOL    HW2 3543   9.998   8.655   6.404
  571SOL     OW 3544  11.434   5.249  11.488
  571SOL    HW1 3545  11.528   5.230  11.495
  571SOL    HW2 3546  11.392   5.178  11.535
  572SOL     OW 3547   6.999   9.413   5.316
  572SOL    HW1 3548   6.938   9.447   5.251
  572SOL    HW2 3549   7.085   9.426   5.277
  573SOL     OW 3550   5.238   3.158   9.853
  573SOL    HW1 3551   5.282   3.243   9.854
  573SOL    HW2 3552   5.191   3.154   9.937
  574SOL     OW 3553   6.469   4.941  14.639
  574SOL    HW1 3554   6.519   4.924  14.560
  574SOL    HW2 3555   6.532   4.978  14.700
  575SOL     OW 3556  13.458   9.765  14.435
  575SOL    HW1 3557  13.371   9.762  14.395
  575SOL    HW2 3558  13.447   9.719  14.519
  576SOL     OW 3559  12.401   9.510   1.987
  576SOL    HW1 3560  12.312   9.543   1.982
  576SOL    HW2 3561  12.432   9.509   1.896
  577SOL     OW 3562   4.529   7.589  11.463
  577SOL    HW1 3563   4.505   7.542  11.384
  577SOL    HW2 3564   4.620   7.614  11.449
  578SOL     OW 3565  10.915  12.278   2.452
  578SOL    HW1 3566  10.966  12.359   2.459
  578SOL    HW2 3567  10.960  12.216   2.510
  579SOL     OW 3568   0.929   0.550   2.058
  579SOL    HW1 3569   0.900   0.628   2.010
  579SOL    HW2 3570   0.930   0.577   2.150
  580SOL     OW 3571  13.523   6.544   6.056
  580SOL    HW1 3572  13.515   6.639   6.065
  580SOL    HW2 3573  13.466   6.523   5.982
  581SOL     OW 3574   4.158   6.868   2.236
  581SOL    HW1 3575   4.188   6.859   2.327
  581SOL    HW2 3576   4.231   6.910   2.191
  582SOL     OW 3577   2.584   1.199   1.443
  582SOL    HW1 3578   2.513   1.138   1.463
  582SOL    HW2 3579   2.617   1.226   1.529
  583SOL     OW 3580   6.837   6.143  14.135
  583SOL    HW1 3581   6.918   6.095  14.122
  583SOL    HW2 3582   6.864   6.231  14.161
  584SOL     OW 3583   5.848   3.768   8.665
  584SOL    HW1 3584   5.784   3.710   8.624
  584SOL    HW2 3585   5.838   3.752   8.759
  585SOL     OW 3586   7.286  12.403   1.092
  585SOL    HW1 3587   7.222  12.337   1.117
  585SOL    HW2 3588   7.336  12.420   1.171
  586SOL     OW 3589   8.339   3.991  13.318
  586SOL    HW1 3590   8.268   3.931  13.294
  586SOL    HW2 3591   8.295   4.073  13.342
  587SOL     OW 3592  12.446   0.083  11.376
  587SOL    HW1 3593  12.522   0.026  11.366
  587SOL    HW2 3594  12.472   0.147  11.443
  588SOL     OW 3595  10.824   1.921   0.520
  588SOL    HW1 3596  10.756   1.968   0.472
  588SOL    HW2 3597  10.792   1.832   0.527
  589SOL     OW 3598   9.316  12.958  13.048
  589SOL    HW1 3599   9.354  12.877  13.081
  589SOL    HW2 3600   9.296  12.939  12.956
  590SOL     OW 3601  11.384  13.574   7.614
  590SOL    HW1 3602  11.314  13.546   7.556
  590SOL    HW2 3603  11.347  13.566   7.702
  591SOL     OW 3604  13.584  14.797   8.537
  591SOL    HW1 3605  13.607  14.761   8.451
  591SOL    HW2 3606  13.546   0.010   8.517
  592SOL     OW 3607   6.195  10.306  14.615
  592SOL    HW1 3608   6.285  10.338  14.620
  592SOL    HW2 3609   6.149  10.354  14.684
  593SOL     OW 3610   2.738   3.847   2.402
  593SOL    HW1 3611   2.696   3.847   2.489
  593SOL    HW2 3612   2.803   3.778   2.407
  594SOL     OW 3613   3.806   9.514  12.613
  594SOL    HW1 3614   3.852   9.454  12.672
  594SOL    HW2 3615   3.727   9.467  12.587
  595SOL     OW 3616  10.044   0.431   2.977
  595SOL    HW1 3617  10.069   0.348   2.937
  595SOL    HW2 3618   9.950   0.423   2.992
  596SOL     OW 3619   6.346   3.773   0.231
  596SOL    HW1 3620   6.264   3.737   0.266
  596SOL    HW2 3621   6.340   3.759   0.137
  597SOL     OW 3622  13.343   3.399   4.948
  597SOL    HW1 3623  13.390   3.477   4.919
  597SOL    HW2 3624  13.340   3.343   4.870
  598SOL     OW 3625   8.547   9.034   7.476
  598SOL    HW1 3626   8.519   9.044   7.567
  598SOL    HW2 3627   8.512   9.112   7.431
  599SOL     OW 3628  14.481   6.561   3.576
  599SOL    HW1 3629  14.395   6.548   3.535
  599SOL    HW2 3630  14.489   6.488   3.638
  600SOL     OW 3631   1.541  13.803   1.126
  600SOL    HW1 3632   1.604  13.745   1.083
  600SOL    HW2 3633   1.551  13.783   1.219
  601SOL     OW 3634   2.126  12.443   9.485
  601SOL    HW1 3635   2.129  12.423   9.392
  601SOL    HW2 3636   2.159  12.364   9.528
  602SOL     OW 3637  12.630  14.484   1.173
  602SOL    HW1 3638  12.558  14.430   1.206
  602SOL    HW2 3639  12.602  14.512   1.086
  603SOL     OW 3640  13.752  12.480  12.109
  603SOL    HW1 3641  13.805  12.502  12.033
  603SOL    HW2 3642  13.664  12.466  12.074
  604SOL     OW 3643   9.004  11.444   2.996
  604SOL    HW1 3644   9.053  11.513   2.951
  604SOL    HW2 3645   9.042  11.362   2.964
  605SOL     OW 3646   8.320   0.109   9.590
  605SOL    HW1 3647   8.300   0.203   9.599
  605SOL    HW2 3648   8.235   0.068   9.575
  606SOL     OW 3649   0.497   8.606  10.342
  606SOL    HW1 3650   0.407   8.637  10.352
  606SOL    HW2 3651   0.519   8.626  10.252
  607SOL     OW 3652  14.547  10.480   7.086
  607SOL    HW1 3653  14.481  10.433   7.137
  607SOL    HW2 3654  14.558  10.427   7.007
  608SOL     OW 3655  13.181  14.749   2.164
  608SOL    HW1 3656  13.200  14.843   2.156
  608SOL    HW2 3657  13.261  14.706   2.136
  609SOL     OW 3658   4.569   7.259   5.049
  609SOL    HW1 3659   4.591   7.325   4.984
  609SOL    HW2 3660   4.628   7.186   5.031
  610SOL     OW 3661  10.924   9.437   5.033
  610SOL    HW1 3662  10.831   9.425   5.012
  610SOL    HW2 3663  10.932   9.407   5.123
  611SOL     OW 3664   2.025   0.943  11.488
  611SOL    HW1 3665   1.947   0.887  11.483
  611SOL    HW2 3666   2.083   0.909  11.420
  612SOL     OW 3667   8.573   4.633  10.993
  612SOL    HW1 3668   8.587   4.703  10.929
  612SOL    HW2 3669   8.659   4.621  11.034
  613SOL     OW 3670  14.651   5.678   8.398
  613SOL    HW1 3671  14.613   5.615   8.459
  613SOL    HW2 3672  14.740   5.645   8.382
  614SOL     OW 3673   7.920   0.977  14.018
  614SOL    HW1 3674   7.990   1.010  13.963
  614SOL    HW2 3675   7.953   0.985  14.107
  615SOL     OW 3676   9.543   4.631   7.859
  615SOL    HW1 3677   9.573   4.690   7.929
  615SOL    HW2 3678   9.605   4.558   7.861
  616SOL     OW 3679   1.365   5.550  13.500
  616SOL    HW1 3680   1.375   5.456  13.515
  616SOL    HW2 3681   1.426   5.591  13.561
  617SOL     OW 3682   6.109  11.212   0.947
  617SOL    HW1 3683   6.089  11.224   1.040
  617SOL    HW2 3684   6.197  11.176   0.945
  618SOL     OW 3685   4.397   8.826   2.410
  618SOL    HW1 3686   4.303   8.842   2.405
  618SOL    HW2 3687   4.436   8.913   2.416
  619SOL     OW 3688   1.123  14.084  10.050
  619SOL    HW1 3689   1.089  14.155   9.996
  619SOL    HW2 3690   1.064  14.081  10.125
  620SOL     OW 3691   3.485  10.386   9.946
  620SOL    HW1 3692   3.493  10.400  10.040
  620SOL    HW2 3693   3.480  10.291   9.935
  621SOL     OW 3694   3.410   9.713   9.501
  621SOL    HW1 3695   3.427   9.786   9.441
  621SOL    HW2 3696   3.422   9.635   9.448
  622SOL     OW 3697   0.193  10.776   3.488
  622SOL    HW1 3698   0.168  10.806   3.400
  622SOL    HW2 3699   0.202  10.857   3.538
  623SOL     OW 3700   2.461  11.206   3.579
  623SOL    HW1 3701   2.474  11.297   3.606
  623SOL    HW2 3702   2.420  11.165   3.655
  624SOL     OW 3703   0.421   8.672   6.094
  624SOL    HW1 3704   0.336   8.700   6.128
  624SOL    HW2 3705   0.483   8.692   6.164
  625SOL     OW 3706   5.652   4.777   5.003
  625SOL    HW1 3707   5.708   4.741   5.071
  625SOL    HW2 3708   5.665   4.719   4.928
  626SOL     OW 3709   6.787  11.238  10.745
  626SOL    HW1 3710   6.828  11.162  10.785
  626SOL    HW2 3711   6.787  11.221  10.651
  627SOL     OW 3712   3.598   0.094   1.711
  627SOL    HW1 3713   3.545   0.015   1.700
  627SOL    HW2 3714   3.595   0.138   1.626
  628SOL     OW 3715  14.574   1.394   2.981
  628SOL    HW1 3716  14.554   1.302   3.000
  628SOL    HW2 3717  14.493   1.428   2.943
  629SOL     OW 3718   7.641  11.760   0.894
  629SOL    HW1 3719   7.609  11.850   0.895
  629SOL    HW2 3720   7.734  11.767   0.915
  630SOL     OW 3721   1.804   1.390  13.524
  630SOL    HW1 3722   1.793   1.431  13.438
  630SOL    HW2 3723   1.769   1.454  13.585
  631SOL     OW 3724  14.769   3.483  10.677
  631SOL    HW1 3725  14.735   3.528  10.754
  631SOL    HW2 3726  14.864   3.481  10.691
  632SOL     OW 3727   1.593   3.458  13.539
  632SOL    HW1 3728   1.627   3.542  13.509
  632SOL    HW2 3729   1.504   3.454  13.503
  633SOL     OW 3730  11.400   9.299   8.523
  633SOL    HW1 3731  11.440   9.363   8.463
  633SOL    HW2 3732  11.349   9.242   8.466
  634SOL     OW 3733  10.953   7.558  12.238
  634SOL    HW1 3734  10.976   7.486  12.179
  634SOL    HW2 3735  10.998   7.538  12.320
  635SOL     OW 3736   4.777  10.821  13.042
  635SOL    HW1 3737   4.843  10.806  13.110
  635SOL    HW2 3738   4.827  10.826  12.961
  636SOL     OW 3739   8.326  13.435  10.715
  636SOL    HW1 3740   8.330  13.455  10.621
  636SOL    HW2 3741   8.237  13.460  10.741
  637SOL     OW 3742  12.432   5.236   8.168
  637SOL    HW1 3743  12.409   5.323   8.134
  637SOL    HW2 3744  12.527   5.235   8.169
  638SOL     OW 3745   5.098   3.841  11.953
  638SOL    HW1 3746   5.096   3.800  11.867
  638SOL    HW2 3747   5.116   3.933  11.934
  639SOL     OW 3748   3.102  14.815  10.988
  639SOL    HW1 3749   3.121   0.020  11.042
  639SOL    HW2 3750   3.173  14.754  11.009
  640SOL     OW 3751   9.991   9.949   0.726
  640SOL    HW1 3752   9.973   9.874   0.783
  640SOL    HW2 3753   9.907   9.970   0.686
  641SOL     OW 3754  14.655   7.013  14.547
  641SOL    HW1 3755  14.708   7.024  14.625
  641SOL    HW2 3756  14.603   6.935  14.563
  642SOL     OW 3757   4.594   8.807   6.873
  642SOL    HW1 3758   4.665   8.745   6.860
  642SOL    HW2 3759   4.576   8.842   6.786
  643SOL     OW 3760   2.697  10.888  13.218
  643SOL    HW1 3761   2.746  10.964  13.185
  643SOL    HW2 3762   2.751  10.813  13.194
  644SOL     OW 3763  12.974   8.411   4.488
  644SOL    HW1 3764  12.973   8.355   4.565
  644SOL    HW2 3765  13.011   8.494   4.518
  645SOL     OW 3766  12.193   1.126   5.338
  645SOL    HW1 3767  12.208   1.128   5.244
  645SOL    HW2 3768  12.112   1.075   5.349
  646SOL     OW 3769   5.395   8.736   5.226
  646SOL    HW1 3770   5.375   8.713   5.135
  646SOL    HW2 3771   5.394   8.652   5.272
  647SOL     OW 3772  11.749   1.973   4.120
  647SOL    HW1 3773  11.843   1.993   4.119
  647SOL    HW2 3774  11.715   2.014   4.041
  648SOL     OW 3775   4.788  14.703  13.486
  648SOL    HW1 3776   4.701  14.706  13.524
  648SOL    HW2 3777   4.777  14.732  13.396
  649SOL     OW 3778   7.302  11.387   6.355
  649SOL    HW1 3779   7.240  11.450   6.394
  649SOL    HW2 3780   7.278  11.386   6.262
  650SOL     OW 3781   8.426  10.571   5.325
  650SOL    HW1 3782   8.432  10.479   5.353
  650SOL    HW2 3783   8.494  10.615   5.375
  651SOL     OW 3784  13.371   5.626   5.087
  651SOL    HW1 3785  13.329   5.550   5.127
  651SOL    HW2 3786  13.459   5.629   5.125
  652SOL     OW 3787   7.971  11.564   3.416
  652SOL    HW1 3788   7.993  11.529   3.329
  652SOL    HW2 3789   7.951  11.656   3.401
  653SOL     OW 3790   5.926   8.664   4.614
  653SOL    HW1 3791   5.918   8.599   4.544
  653SOL    HW2 3792   5.870   8.631   4.684
  654SOL     OW 3793  11.327  11.954  10.333
  654SOL    HW1 3794  11.271  12.025  10.300
  654SOL    HW2 3795  11.275  11.875  10.320
  655SOL     OW 3796   6.455   3.081   4.425
  655SOL    HW1 3797   6.482   3.081   4.334
  655SOL    HW2 3798   6.382   3.020   4.428
  656SOL     OW 3799   4.712   3.469  14.730
  656SOL    HW1 3800   4.738   3.551  14.687
  656SOL    HW2 3801   4.784   3.409  14.712
  657SOL     OW 3802  10.980   9.600  10.397
  657SOL    HW1 3803  10.944   9.571  10.313
  657SOL    HW2 3804  10.920   9.565  10.462
  658SOL     OW 3805   1.449  13.859  11.834
  658SOL    HW1 3806   1.380  13.899  11.887
  658SOL    HW2 3807   1.435  13.765  11.843
  659SOL     OW 3808   8.013  12.040  14.244
  659SOL    HW1 3809   8.071  12.036  14.168
  659SOL    HW2 3810   7.995  11.949  14.266
  660SOL     OW 3811   6.774   3.320   7.906
  660SOL    HW1 3812   6.859   3.286   7.934
  660SOL    HW2 3813   6.734   3.353   7.986
  661SOL     OW 3814   8.508   7.176   9.068
  661SOL    HW1 3815   8.433   7.137   9.023
  661SOL    HW2 3816   8.583   7.125   9.037
  662SOL     OW 3817  12.601  12.170  12.509
  662SOL    HW1 3818  12.576  12.177  12.601
  662SOL    HW2 3819  12.570  12.252  12.470
  663SOL     OW 3820   7.625   5.709   1.906
  663SOL    HW1 3821   7.681   5.779   1.871
  663SOL    HW2 3822   7.557   5.698   1.840
  664SOL     OW 3823   7.458   8.020  14.264
  664SOL    HW1 3824   7.538   8.073  14.267
  664SOL    HW2 3825   7.388   8.080  14.288
  665SOL     OW 3826  14.559   4.581   1.064
  665SOL    HW1 3827  14.634   4.635   1.087
  665SOL    HW2 3828  14.584   4.540   0.981
  666SOL     OW 3829  14.586   4.467  14.345
  666SOL    HW1 3830  14.563   4.374  14.336
  666SOL    HW2 3831  14.506   4.514  14.321
  667SOL     OW 3832   4.633   7.993  11.132
  667SOL    HW1 3833   4.685   8.003  11.211
  667SOL    HW2 3834   4.685   7.938  11.075
  668SOL     OW 3835   1.157  10.157  13.183
  668SOL    HW1 3836   1.098  10.197  13.248
  668SOL    HW2 3837   1.238  10.141  13.231
  669SOL     OW 3838   6.113   4.052   8.411
  669SOL    HW1 3839   6.127   3.977   8.469
  669SOL    HW2 3840   6.170   4.035   8.336
  670SOL     OW 3841   8.311   5.436   7.751
  670SOL    HW1 3842   8.261   5.369   7.797
  670SOL    HW2 3843   8.271   5.519   7.778
  671SOL     OW 3844   4.306   5.272   2.657
  671SOL    HW1 3845   4.394   5.235   2.648
  671SOL    HW2 3846   4.301   5.300   2.748
  672SOL     OW 3847   4.946   1.017   3.465
  672SOL    HW1 3848   4.952   1.111   3.448
  672SOL    HW2 3849   4.853   0.997   3.453
  673SOL     OW 3850  11.750   2.736  14.745
  673SOL    HW1 3851  11.764   2.812  14.688
  673SOL    HW2 3852  11.777   2.661  14.692
  674SOL     OW 3853   0.606   3.682   8.733
  674SOL    HW1 3854   0.532   3.709   8.678
  674SOL    HW2 3855   0.580   3.705   8.822
  675SOL     OW 3856   5.625   8.973   8.541
  675SOL    HW1 3857   5.697   8.999   8.483
  675SOL    HW2 3858   5.554   8.951   8.481
  676SOL     OW 3859  11.086   6.507   3.576
  676SOL    HW1 3860  11.167   6.537   3.533
  676SOL    HW2 3861  11.018   6.564   3.541
  677SOL     OW 3862   0.846   3.182   4.647
  677SOL    HW1 3863   0.817   3.192   4.557
  677SOL    HW2 3864   0.794   3.245   4.697
  678SOL     OW 3865  14.469   8.338  10.660
  678SOL    HW1 3866  14.529   8.317  10.589
  678SOL    HW2 3867  14.491   8.275  10.729
  679SOL     OW 3868   8.114  14.519  11.914
  679SOL    HW1 3869   8.022  14.537  11.895
  679SOL    HW2 3870   8.159  14.536  11.831
  680SOL     OW 3871  14.281   0.407   0.958
  680SOL    HW1 3872  14.347   0.473   0.978
  680SOL    HW2 3873  14.200   0.457   0.948
  681SOL     OW 3874   0.020   8.758   3.855
  681SOL    HW1 3875   0.074   8.826   3.814
  681SOL    HW2 3876   0.083   8.704   3.903
  682SOL     OW 3877   8.164   6.752   4.092
  682SOL    HW1 3878   8.118   6.722   4.013
  682SOL    HW2 3879   8.095   6.774   4.154
  683SOL     OW 3880   8.162   2.425   0.962
  683SOL    HW1 3881   8.107   2.437   1.039
  683SOL    HW2 3882   8.219   2.502   0.962
  684SOL     OW 3883   4.303   2.689  14.707
  684SOL    HW1 3884   4.361   2.735  14.646
  684SOL    HW2 3885   4.352   2.611  14.732
  685SOL     OW 3886   6.388   0.619   7.466
  685SOL    HW1 3887   6.399   0.686   7.533
  685SOL    HW2 3888   6.425   0.540   7.506
  686SOL     OW 3889   6.161   8.238  12.941
  686SOL    HW1 3890   6.252   8.263  12.925
  686SOL    HW2 3891   6.138   8.184  12.865
  687SOL     OW 3892  12.282  11.226   5.935
  687SOL    HW1 3893  12.295  11.209   6.028
  687SOL    HW2 3894  12.198  11.185   5.914
  688SOL     OW 3895   8.405  13.467   3.494
  688SOL    HW1 3896   8.347  13.505   3.559
  688SOL    HW2 3897   8.467  13.415   3.545
  689SOL     OW 3898  13.655  13.429  13.768
  689SOL    HW1 3899  13.661  13.345  13.813
  689SOL    HW2 3900  13.616  13.408  13.683
  690SOL     OW 3901   5.603  13.190   6.567
  690SOL    HW1 3902   5.523  13.242   6.571
  690SOL    HW2 3903   5.591  13.123   6.634
  691SOL     OW 3904  14.493  14.244  13.960
  691SOL    HW1 3905  14.441  14.170  13.928
  691SOL    HW2 3906  14.428  14.311  13.980
  692SOL     OW 3907   8.964  13.548  10.244
  692SOL    HW1 3908   8.955  13.555  10.149
  692SOL    HW2 3909   8.925  13.464  10.266
  693SOL     OW 3910   5.405   2.321  10.423
  693SOL    HW1 3911   5.343   2.248  10.430
  693SOL    HW2 3912   5.414   2.335  10.328
  694SOL     OW 3913  13.070   6.242   2.101
  694SOL    HW1 3914  13.029   6.242   2.015
  694SOL    HW2 3915  13.131   6.316   2.099
  695SOL     OW 3916   7.650  10.587   1.960
  695SOL    HW1 3917   7.644  10.525   2.032
  695SOL    HW2 3918   7.660  10.533   1.882
  696SOL     OW 3919  11.912  12.097   7.219
  696SOL    HW1 3920  11.922  12.161   7.290
  696SOL    HW2 3921  11.818  12.077   7.218
  697SOL     OW 3922   9.113  10.666   5.259
  697SOL    HW1 3923   9.149  10.585   5.222
  697SOL    HW2 3924   9.133  10.662   5.352
  698SOL     OW 3925  10.992   9.375   2.254
  698SOL    HW1 3926  10.975   9.304   2.316
  698SOL    HW2 3927  11.044   9.439   2.302
  699SOL     OW 3928   3.554   3.108   0.954
  699SOL    HW1 3929   3.494   3.040   0.985
  699SOL    HW2 3930   3.601   3.068   0.881
  700SOL     OW 3931  14.318  10.322   0.481
  700SOL    HW1 3932  14.388  10.276   0.434
  700SOL    HW2 3933  14.245  10.260   0.481
  701SOL     OW 3934   9.756   4.523   9.539
  701SOL    HW1 3935   9.802   4.579   9.601
  701SOL    HW2 3936   9.739   4.442   9.586
  702SOL     OW 3937  10.366   5.506   5.830
  702SOL    HW1 3938  10.454   5.488   5.864
  702SOL    HW2 3939  10.315   5.429   5.857
  703SOL     OW 3940  12.036   0.108   4.225
  703SOL    HW1 3941  11.953   0.116   4.273
  703SOL    HW2 3942  12.094   0.062   4.285
  704SOL     OW 3943   0.793  13.643  11.095
  704SOL    HW1 3944   0.759  13.556  11.075
  704SOL    HW2 3945   0.831  13.673  11.013
  705SOL     OW 3946   5.325   4.348  10.114
  705SOL    HW1 3947   5.254   4.411  10.100
  705SOL    HW2 3948   5.394   4.377  10.055
  706SOL     OW 3949   3.709   9.153   4.952
  706SOL    HW1 3950   3.797   9.182   4.930
  706SOL    HW2 3951   3.719   9.101   5.032
  707SOL     OW 3952   2.477  14.860   5.157
  707SOL    HW1 3953   2.566  14.832   5.179
  707SOL    HW2 3954   2.489   0.074   5.117
  708SOL     OW 3955  11.619  10.327  12.635
  708SOL    HW1 3956  11.593  10.315  12.544
  708SOL    HW2 3957  11.563  10.398  12.667
  709SOL     OW 3958   4.303   6.564   0.404
  709SOL    HW1 3959   4.386   6.532   0.437
  709SOL    HW2 3960   4.317   6.573   0.309
  710SOL     OW 3961   8.138   2.016   7.401
  710SOL    HW1 3962   8.150   2.110   7.385
  710SOL    HW2 3963   8.051   2.010   7.441
  711SOL     OW 3964   7.492  13.385   6.092
  711SOL    HW1 3965   7.418  13.377   6.032
  711SOL    HW2 3966   7.533  13.468   6.068
  712SOL     OW 3967   2.234   1.212   5.626
  712SOL    HW1 3968   2.177   1.151   5.674
  712SOL    HW2 3969   2.176   1.257   5.565
  713SOL     OW 3970   7.204  13.897   7.763
  713SOL    HW1 3971   7.168  13.959   7.827
  713SOL    HW2 3972   7.211  13.948   7.682
  714SOL     OW 3973  10.945   4.574   0.213
  714SOL    HW1 3974  10.932   4.560   0.306
  714SOL    HW2 3975  10.910   4.661   0.196
  715SOL     OW 3976   6.030  11.962  10.729
  715SOL    HW1 3977   6.118  11.963  10.765
  715SOL    HW2 3978   5.988  12.039  10.766
  716SOL     OW 3979  13.384   1.569   3.728
  716SOL    HW1 3980  13.434   1.557   3.647
  716SOL    HW2 3981  13.335   1.488   3.739
  717SOL     OW 3982  12.370   3.296   3.401
  717SOL    HW1 3983  12.365   3.242   3.322
  717SOL    HW2 3984  12.431   3.249   3.458
  718SOL     OW 3985  13.933   5.414   5.653
  718SOL    HW1 3986  14.004   5.352   5.670
  718SOL    HW2 3987  13.966   5.470   5.583
  719SOL     OW 3988  10.623   1.961  13.765
  719SOL    HW1 3989  10.625   1.956  13.669
  719SOL    HW2 3990  10.667   2.044  13.785
  720SOL     OW 3991   6.690  14.296  10.325
  720SOL    HW1 3992   6.741  14.374  10.305
  720SOL    HW2 3993   6.753  14.224  10.324
  721SOL     OW 3994   4.232   7.660   5.138
  721SOL    HW1 3995   4.316   7.706   5.130
  721SOL    HW2 3996   4.248   7.574   5.099
  722SOL     OW 3997   1.136   7.478   3.728
  722SOL    HW1 3998   1.197   7.427   3.781
  722SOL    HW2 3999   1.082   7.524   3.792
  723SOL     OW 4000  14.226   7.853  13.096
  723SOL    HW1 4001  14.172   7.845  13.174
  723SOL    HW2 4002  14.192   7.930  13.051
  724SOL     OW 4003   7.958   1.480  12.965
  724SOL    HW1 4004   7.923   1.558  12.921
  724SOL    HW2 4005   7.932   1.491  13.057
  725SOL     OW 4006   6.445  12.921   3.606
  725SOL    HW1 4007   6.467  12.968   3.525
  725SOL    HW2 4008   6.468  12.830   3.587
  726SOL     OW 4009   8.406   7.553   0.834
  726SOL    HW1 4010   8.392   7.459   0.817
  726SOL    HW2 4011   8.474   7.578   0.771
  727SOL     OW 4012   5.538   6.623   2.708
  727SOL    HW1 4013   5.532   6.574   2.627
  727SOL    HW2 4014   5.484   6.574   2.770
  728SOL     OW 4015   8.585   8.211   4.489
  728SOL    HW1 4016   8.677   8.223   4.513
  728SOL    HW2 4017   8.572   8.267   4.413
  729SOL     OW 4018   9.003   5.581   6.512
  729SOL    HW1 4019   9.072   5.524   6.478
  729SOL    HW2 4020   8.986   5.547   6.600
  730SOL     OW 4021   9.343   6.243   4.654
  730SOL    HW1 4022   9.410   6.284   4.599
  730SOL    HW2 4023   9.298   6.317   4.695
  731SOL     OW 4024   3.969   3.786   7.058
  731SOL    HW1 4025   3.902   3.769   7.124
  731SOL    HW2 4026   3.975   3.703   7.010
  732SOL     OW 4027  11.895   4.115   8.785
  732SOL    HW1 4028  11.921   4.026   8.808
  732SOL    HW2 4029  11.977   4.164   8.780
  733SOL     OW 4030  13.586   5.715   2.100
  733SOL    HW1 4031  13.512   5.701   2.159
  733SOL    HW2 4032  13.581   5.642   2.038
  734SOL     OW 4033   6.426  12.240  11.951
  734SOL    HW1 4034   6.416  12.175  11.881
  734SOL    HW2 4035   6.408  12.191  12.031
  735SOL     OW 4036   7.115   6.597   9.738
  735SOL    HW1 4037   7.022   6.617   9.745
  735SOL    HW2 4038   7.151   6.663   9.678
  736SOL     OW 4039   4.191   4.122   8.930
  736SOL    HW1 4040   4.123   4.119   8.863
  736SOL    HW2 4041   4.198   4.031   8.960
  737SOL     OW 4042  12.931   3.714  12.400
  737SOL    HW1 4043  12.842   3.733  12.369
  737SOL    HW2 4044  12.945   3.776  12.471
  738SOL     OW 4045   4.148   5.127  13.709
  738SOL    HW1 4046   4.217   5.061  13.703
  738SOL    HW2 4047   4.112   5.132  13.621
  739SOL     OW 4048   5.965   4.445   8.857
  739SOL    HW1 4049   6.042   4.411   8.902
  739SOL    HW2 4050   5.995   4.463   8.768
  740SOL     OW 4051   3.229   2.671   1.720
  740SOL    HW1 4052   3.295   2.655   1.652
  740SOL    HW2 4053   3.280   2.696   1.797
  741SOL     OW 4054   0.411  11.351   3.428
  741SOL    HW1 4055   0.319  11.359   3.402
  741SOL    HW2 4056   0.441  11.271   3.385
  742SOL     OW 4057   1.115   6.462   9.104
  742SOL    HW1 4058   1.132   6.515   9.026
  742SOL    HW2 4059   1.185   6.486   9.165
  743SOL     OW 4060  14.308  10.356   5.307
  743SOL    HW1 4061  14.388  10.304   5.301
  743SOL    HW2 4062  14.317  10.403   5.389
  744SOL     OW 4063   7.017   3.313  13.012
  744SOL    HW1 4064   7.099   3.323  12.963
  744SOL    HW2 4065   6.985   3.402  13.024
  745SOL     OW 4066   1.584   0.836  11.390
  745SOL    HW1 4067   1.635   0.805  11.466
  745SOL    HW2 4068   1.644   0.829  11.316
  746SOL     OW 4069   2.791   3.896   1.643
  746SOL    HW1 4070   2.722   3.888   1.577
  746SOL    HW2 4071   2.790   3.812   1.689
  747SOL     OW 4072   8.570   4.831  13.519
  747SOL    HW1 4073   8.533   4.838  13.607
  747SOL    HW2 4074   8.656   4.872  13.527
  748SOL     OW 4075   5.477   6.759   0.919
  748SOL    HW1 4076   5.426   6.681   0.941
  748SOL    HW2 4077   5.538   6.729   0.852
  749SOL     OW 4078   5.994   2.342   0.951
  749SOL    HW1 4079   6.001   2.375   0.861
  749SOL    HW2 4080   5.934   2.402   0.995
  750SOL     OW 4081  13.112   8.089  14.763
  750SOL    HW1 4082  13.120   8.185  14.758
  750SOL    HW2 4083  13.021   8.073  14.786
  751SOL     OW 4084   8.668   8.674   8.559
  751SOL    HW1 4085   8.755   8.669   8.520
  751SOL    HW2 4086   8.608   8.655   8.487
  752SOL     OW 4087  11.054   0.197  11.033
  752SOL    HW1 4088  11.001   0.138  11.086
  752SOL    HW2 4089  11.123   0.141  10.996
  753SOL     OW 4090   9.349   2.521   9.352
  753SOL    HW1 4091   9.283   2.519   9.283
  753SOL    HW2 4092   9.298   2.535   9.432
  754SOL     OW 4093  13.920   7.918  12.364
  754SOL    HW1 4094  13.937   7.889  12.454
  754SOL    HW2 4095  13.998   7.893  12.315
  755SOL     OW 4096   8.774   8.771   1.254
  755SOL    HW1 4097   8.791   8.827   1.178
  755SOL    HW2 4098   8.830   8.807   1.323
  756SOL     OW 4099  10.036  13.587  11.092
  756SOL    HW1 4100   9.975  13.640  11.143
  756SOL    HW2 4101  10.119  13.593  11.139
  757SOL     OW 4102  12.259  11.975   0.300
  757SOL    HW1 4103  12.331  12.037   0.311
  757SOL    HW2 4104  12.280  11.902   0.358
  758SOL     OW 4105   0.118   6.314   7.849
  758SOL    HW1 4106   0.025   6.332   7.834
  758SOL    HW2 4107   0.156   6.400   7.868
  759SOL     OW 4108   6.185   0.732   8.731
  759SOL    HW1 4109   6.208   0.752   8.822
  759SOL    HW2 4110   6.202   0.638   8.723
  760SOL     OW 4111  10.420   6.550   4.336
  760SOL    HW1 4112  10.332   6.578   4.312
  760SOL    HW2 4113  10.454   6.505   4.259
  761SOL     OW 4114   0.123   3.049   9.253
  761SOL    HW1 4115   0.153   2.958   9.250
  761SOL    HW2 4116   0.045   3.051   9.199
  762SOL     OW 4117   9.962   2.270   1.707
  762SOL    HW1 4118  10.035   2.228   1.660
  762SOL    HW2 4119   9.935   2.205   1.772
  763SOL     OW 4120  13.269   7.089   1.247
  763SOL    HW1 4121  13.278   6.994   1.238
  763SOL    HW2 4122  13.236   7.119   1.163
  764SOL     OW 4123   3.074   6.916   9.943
  764SOL    HW1 4124   3.163   6.940   9.967
  764SOL    HW2 4125   3.031   6.895  10.026
  765SOL     OW 4126   6.805  13.402   2.903
  765SOL    HW1 4127   6.896  13.426   2.885
  765SOL    HW2 4128   6.804  13.306   2.896
  766SOL     OW 4129  12.622  13.090   9.772
  766SOL    HW1 4130  12.695  13.047   9.817
  766SOL    HW2 4131  12.544  13.053   9.811
  767SOL     OW 4132   3.127  12.887   5.112
  767SOL    HW1 4133   3.164  12.973   5.132
  767SOL    HW2 4134   3.033  12.897   5.130
  768SOL     OW 4135   6.818   1.340   3.401
  768SOL    HW1 4136   6.817   1.249   3.372
  768SOL    HW2 4137   6.911   1.364   3.400
  769SOL     OW 4138  13.197   6.134   2.683
  769SOL    HW1 4139  13.135   6.106   2.751
  769SOL    HW2 4140  13.258   6.060   2.674
  770SOL     OW 4141   0.813  12.678   2.215
  770SOL    HW1 4142   0.878  12.747   2.228
  770SOL    HW2 4143   0.866  12.599   2.199
  771SOL     OW 4144   5.237   8.553   8.596
  771SOL    HW1 4145   5.203   8.488   8.535
  771SOL    HW2 4146   5.223   8.514   8.683
  772SOL     OW 4147   8.356  12.226   2.371
  772SOL    HW1 4148   8.393  12.150   2.325
  772SOL    HW2 4149   8.414  12.238   2.447
  773SOL     OW 4150  14.226   4.420   6.726
  773SOL    HW1 4151  14.205   4.508   6.757
  773SOL    HW2 4152  14.166   4.406   6.652
  774SOL     OW 4153   9.931   5.751   7.929
  774SOL    HW1 4154   9.954   5.803   8.006
  774SOL    HW2 4155   9.938   5.812   7.856
  775SOL     OW 4156   8.015   5.140   8.158
  775SOL    HW1 4157   7.927   5.168   8.134
  775SOL    HW2 4158   8.041   5.198   8.229
  776SOL     OW 4159   7.542   7.107  12.112
  776SOL    HW1 4160   7.565   7.140  12.198
  776SOL    HW2 4161   7.607   7.145  12.053
  777SOL     OW 4162  12.967  10.966  10.764
  777SOL    HW1 4163  12.986  10.873  10.755
  777SOL    HW2 4164  12.874  10.974  10.743
  778SOL     OW 4165   3.727   1.630   3.264
  778SOL    HW1 4166   3.782   1.689   3.212
  778SOL    HW2 4167   3.784   1.557   3.285
  779SOL     OW 4168   0.569   6.308  13.195
  779SOL    HW1 4169   0.474   6.320  13.192
  779SOL    HW2 4170   0.595   6.298  13.103
  780SOL     OW 4171   8.606  11.015  14.793
  780SOL    HW1 4172   8.647  10.932  14.767
  780SOL    HW2 4173   8.514  10.992  14.808
  781SOL     OW 4174  11.117   8.464  14.794
  781SOL    HW1 4175  11.091   8.406  14.866
  781SOL    HW2 4176  11.096   8.552  14.826
  782SOL     OW 4177   9.790   6.592   1.426
  782SOL    HW1 4178   9.703   6.552   1.421
  782SOL    HW2 4179   9.780   6.663   1.490
  783SOL     OW 4180  10.738   2.748  11.908
  783SOL    HW1 4181  10.802   2.803  11.953
  783SOL    HW2 4182  10.708   2.803  11.835
  784SOL     OW 4183   8.707   3.243   8.843
  784SOL    HW1 4184   8.691   3.288   8.759
  784SOL    HW2 4185   8.683   3.307   8.909
  785SOL     OW 4186   4.053   7.443   8.386
  785SOL    HW1 4187   3.991   7.425   8.315
  785SOL    HW2 4188   4.139   7.434   8.345
  786SOL     OW 4189   5.237   3.717   7.340
  786SOL    HW1 4190   5.155   3.755   7.370
  786SOL    HW2 4191   5.227   3.623   7.355
  787SOL     OW 4192   6.311   7.959  14.755
  787SOL    HW1 4193   6.220   7.949  14.727
  787SOL    HW2 4194   6.326   7.884  14.813
  788SOL     OW 4195  13.507   1.486   4.946
  788SOL    HW1 4196  13.440   1.553   4.960
  788SOL    HW2 4197  13.588   1.527   4.974
  789SOL     OW 4198  14.465   1.953   5.601
  789SOL    HW1 4199  14.466   2.015   5.674
  789SOL    HW2 4200  14.458   2.008   5.523
  790SOL     OW 4201  14.384   3.033   4.256
  790SOL    HW1 4202  14.413   3.008   4.344
  790SOL    HW2 4203  14.461   3.020   4.200
  791SOL     OW 4204   1.849   3.139   7.226
  791SOL    HW1 4205   1.844   3.154   7.320
  791SOL    HW2 4206   1.760   3.118   7.200
  792SOL     OW 4207   4.881   1.651   2.018
  792SOL    HW1 4208   4.970   1.658   2.053
  792SOL    HW2 4209   4.882   1.706   1.940
  793SOL     OW 4210   2.244   0.060  11.708
  793SOL    HW1 4211   2.315   0.078  11.646
  793SOL    HW2 4212   2.251   0.129  11.773
  794SOL     OW 4213  14.734  11.581   8.821
  794SOL    HW1 4214  14.790  11.505   8.836
  794SOL    HW2 4215  14.645  11.547   8.829
  795SOL     OW 4216  11.243  11.541  13.863
  795SOL    HW1 4217  11.151  11.560  13.847
  795SOL    HW2 4218  11.260  11.573  13.952
  796SOL     OW 4219  10.216   9.093   3.679
  796SOL    HW1 4220  10.225   9.067   3.770
  796SOL    HW2 4221  10.143   9.154   3.678
  797SOL     OW 4222   9.194   9.377   1.179
  797SOL    HW1 4223   9.177   9.461   1.136
  797SOL    HW2 4224   9.254   9.398   1.251
  798SOL     OW 4225   9.703   5.605   0.033
  798SOL    HW1 4226   9.662   5.672  14.851
  798SOL    HW2 4227   9.764   5.561  14.846
  799SOL     OW 4228   2.399   7.749   2.425
  799SOL    HW1 4229   2.366   7.684   2.488
  799SOL    HW2 4230   2.457   7.805   2.478
  800SOL     OW 4231   7.691   3.146   0.532
  800SOL    HW1 4232   7.606   3.178   0.562
  800SOL    HW2 4233   7.671   3.088   0.459
  801SOL     OW 4234  10.050   5.364  10.770
  801SOL    HW1 4235  10.099   5.285  10.747
  801SOL    HW2 4236  10.118   5.426  10.798
  802SOL     OW 4237   2.092   6.339   1.024
  802SOL    HW1 4238   2.006   6.355   1.062
  802SOL    HW2 4239   2.074   6.302   0.938
  803SOL     OW 4240  10.502   5.023   6.125
  803SOL    HW1 4241  10.412   4.994   6.139
  803SOL    HW2 4242  10.505   5.047   6.032
  804SOL     OW 4243   6.264   8.514   7.559
  804SOL    HW1 4244   6.237   8.571   7.486
  804SOL    HW2 4245   6.226   8.429   7.538
  805SOL     OW 4246   0.616   6.913   7.710
  805SOL    HW1 4247   0.612   6.817   7.708
  805SOL    HW2 4248   0.686   6.935   7.648
  806SOL     OW 4249   1.187   8.746   5.789
  806SOL    HW1 4250   1.250   8.681   5.757
  806SOL    HW2 4251   1.241   8.814   5.828
  807SOL     OW 4252   1.186   5.397   0.787
  807SOL    HW1 4253   1.190   5.323   0.728
  807SOL    HW2 4254   1.132   5.367   0.860
  808SOL     OW 4255   5.846  12.476  12.432
  808SOL    HW1 4256   5.812  12.506  12.348
  808SOL    HW2 4257   5.770  12.445  12.480
  809SOL     OW 4258   1.666   8.687   4.883
  809SOL    HW1 4259   1.729   8.720   4.819
  809SOL    HW2 4260   1.665   8.753   4.952
  810SOL     OW 4261   3.135   1.561  13.915
  810SOL    HW1 4262   3.066   1.616  13.879
  810SOL    HW2 4263   3.202   1.559  13.846
  811SOL     OW 4264   0.741   2.006   2.230
  811SOL    HW1 4265   0.732   2.000   2.135
  811SOL    HW2 4266   0.674   1.947   2.264
  812SOL     OW 4267   8.858   8.283   2.880
  812SOL    HW1 4268   8.894   8.214   2.825
  812SOL    HW2 4269   8.826   8.349   2.819
  813SOL     OW 4270   1.773   1.837   0.855
  813SOL    HW1 4271   1.825   1.791   0.789
  813SOL    HW2 4272   1.785   1.930   0.834
  814SOL     OW 4273   5.516   6.107   3.606
  814SOL    HW1 4274   5.583   6.042   3.584
  814SOL    HW2 4275   5.548   6.149   3.686
  815SOL     OW 4276   1.712   8.847  10.352
  815SOL    HW1 4277   1.704   8.846  10.448
  815SOL    HW2 4278   1.793   8.894  10.335
  816SOL     OW 4279   7.973   3.656  11.377
  816SOL    HW1 4280   7.934   3.728  11.326
  816SOL    HW2 4281   8.014   3.700  11.451
  817SOL     OW 4282   5.131   3.342   8.616
  817SOL    HW1 4283   5.148   3.256   8.657
  817SOL    HW2 4284   5.212   3.391   8.631
  818SOL     OW 4285  12.171  13.937  10.960
  818SOL    HW1 4286  12.214  13.921  10.876
  818SOL    HW2 4287  12.144  14.029  10.957
  819SOL     OW 4288   5.521   6.429  13.271
  819SOL    HW1 4289   5.464   6.379  13.212
  819SOL    HW2 4290   5.510   6.520  13.244
  820SOL     OW 4291  11.687   1.910   4.763
  820SOL    HW1 4292  11.738   1.844   4.809
  820SOL    HW2 4293  11.601   1.870   4.750
  821SOL     OW 4294   4.535   0.277   5.772
  821SOL    HW1 4295   4.609   0.246   5.825
  821SOL    HW2 4296   4.482   0.200   5.758
  822SOL     OW 4297   8.225   3.832   0.219
  822SOL    HW1 4298   8.207   3.738   0.225
  822SOL    HW2 4299   8.193   3.856   0.132
  823SOL     OW 4300  10.299   9.972   5.199
  823SOL    HW1 4301  10.247   9.893   5.181
  823SOL    HW2 4302  10.389   9.941   5.200
  824SOL     OW 4303   1.949   6.217  14.853
  824SOL    HW1 4304   1.939   6.129   0.017
  824SOL    HW2 4305   1.976   6.203  14.763
  825SOL     OW 4306   4.636  14.158   6.611
  825SOL    HW1 4307   4.641  14.089   6.545
  825SOL    HW2 4308   4.712  14.145   6.666
  826SOL     OW 4309   0.569   6.297   0.275
  826SOL    HW1 4310   0.495   6.305   0.214
  826SOL    HW2 4311   0.543   6.226   0.334
  827SOL     OW 4312   5.634   0.022   7.226
  827SOL    HW1 4313   5.565  14.847   7.180
  827SOL    HW2 4314   5.615   0.008   7.319
  828SOL     OW 4315  12.439   6.323   5.943
  828SOL    HW1 4316  12.412   6.334   5.852
  828SOL    HW2 4317  12.535   6.315   5.938
  829SOL     OW 4318  14.840  10.446   5.181
  829SOL    HW1 4319   0.035  10.379   5.195
  829SOL    HW2 4320  14.810  10.469   5.269
  830SOL     OW 4321  11.863   2.402  12.636
  830SOL    HW1 4322  11.895   2.472  12.694
  830SOL    HW2 4323  11.770   2.422  12.624
  831SOL     OW 4324   2.988   1.897   2.205
  831SOL    HW1 4325   2.954   1.961   2.142
  831SOL    HW2 4326   2.981   1.813   2.159
  832SOL     OW 4327   0.025   9.776   7.554
  832SOL    HW1 4328   0.016   9.781   7.459
  832SOL    HW2 4329  14.808   9.769   7.586
  833SOL     OW 4330   2.329   4.823   7.286
  833SOL    HW1 4331   2.260   4.811   7.220
  833SOL    HW2 4332   2.288   4.799   7.369
  834SOL     OW 4333   9.073  11.003   0.048
  834SOL    HW1 4334   9.108  11.091   0.030
  834SOL    HW2 4335   9.062  10.963  14.834
  835SOL     OW 4336   9.154   4.799   0.548
  835SOL    HW1 4337   9.148   4.751   0.466
  835SOL    HW2 4338   9.162   4.731   0.615
  836SOL     OW 4339  10.246  11.429   1.092
  836SOL    HW1 4340  10.171  11.465   1.045
  836SOL    HW2 4341  10.319  11.436   1.029
  837SOL     OW 4342   0.389   9.181   4.669
  837SOL    HW1 4343   0.467   9.139   4.632
  837SOL    HW2 4344   0.319   9.158   4.608
  838SOL     OW 4345   0.992   8.133   3.761
  838SOL    HW1 4346   0.968   8.084   3.839
  838SOL    HW2 4347   0.994   8.069   3.691
  839SOL     OW 4348  10.178   6.106  12.609
  839SOL    HW1 4349  10.203   6.108  12.517
  839SOL    HW2 4350  10.120   6.030  12.617
  840SOL     OW 4351   2.090  11.236  13.561
  840SOL    HW1 4352   2.168  11.203  13.518
  840SOL    HW2 4353   2.109  11.328  13.578
  841SOL     OW 4354   3.858   2.544  13.204
  841SOL    HW1 4355   3.774   2.586  13.183
  841SOL    HW2 4356   3.916   2.616  13.228
  842SOL     OW 4357  12.002   7.510   8.410
  842SOL    HW1 4358  12.074   7.570   8.423
  842SOL    HW2 4359  11.935   7.538   8.473
  843SOL     OW 4360   1.461   8.892  13.101
  843SOL    HW1 4361   1.450   8.887  13.006
  843SOL    HW2 4362   1.440   8.983  13.123
  844SOL     OW 4363   1.238   4.194  12.714
  844SOL    HW1 4364   1.168   4.258  12.728
  844SOL    HW2 4365   1.267   4.209  12.625
  845SOL     OW 4366   8.513   6.912   4.605
  845SOL    HW1 4367   8.456   6.848   4.561
  845SOL    HW2 4368   8.602   6.885   4.582
  846SOL     OW 4369  14.023   6.019   1.635
  846SOL    HW1 4370  14.026   5.925   1.618
  846SOL    HW2 4371  14.066   6.059   1.559
  847SOL     OW 4372   1.636   7.947   3.104
  847SOL    HW1 4373   1.627   7.901   3.187
  847SOL    HW2 4374   1.728   7.973   3.101
  848SOL     OW 4375  13.228  14.528   0.277
  848SOL    HW1 4376  13.278  14.606   0.301
  848SOL    HW2 4377  13.258  14.506   0.189
  849SOL     OW 4378   2.798   3.062   3.452
  849SOL    HW1 4379   2.711   3.052   3.492
  849SOL    HW2 4380   2.858   3.069   3.526
  850SOL     OW 4381   0.654   7.652   6.671
  850SOL    HW1 4382   0.642   7.574   6.725
  850SOL    HW2 4383   0.608   7.722   6.718
  851SOL     OW 4384   9.092   2.092   2.432
  851SOL    HW1 4385   9.138   2.025   2.482
  851SOL    HW2 4386   9.115   2.074   2.341
  852SOL     OW 4387  12.281  14.231   6.107
  852SOL    HW1 4388  12.187  14.233   6.089
  852SOL    HW2 4389  12.306  14.323   6.109
  853SOL     OW 4390   4.868   9.194  14.374
  853SOL    HW1 4391   4.786   9.194  14.424
  853SOL    HW2 4392   4.857   9.262  14.308
  854SOL     OW 4393   4.091  10.427  10.912
  854SOL    HW1 4394   4.100  10.453  10.820
  854SOL    HW2 4395   4.147  10.487  10.960
  855SOL     OW 4396   6.532   3.021   9.492
  855SOL    HW1 4397   6.455   2.970   9.515
  855SOL    HW2 4398   6.515   3.108   9.528
  856SOL     OW 4399   5.396   3.681   6.552
  856SOL    HW1 4400   5.450   3.638   6.486
  856SOL    HW2 4401   5.326   3.723   6.502
  857SOL     OW 4402   4.473  14.060   2.487
  857SOL    HW1 4403   4.389  14.105   2.497
  857SOL    HW2 4404   4.500  14.080   2.397
  858SOL     OW 4405   0.123  12.268   1.278
  858SOL    HW1 4406   0.074  12.232   1.204
  858SOL    HW2 4407   0.071  12.244   1.355
  859SOL     OW 4408   3.369   2.625   8.775
  859SOL    HW1 4409   3.286   2.658   8.741
  859SOL    HW2 4410   3.353   2.611   8.868
  860SOL     OW 4411   4.626  13.952   5.517
  860SOL    HW1 4412   4.613  13.883   5.582
  860SOL    HW2 4413   4.721  13.955   5.504
  861SOL     OW 4414   3.449   8.235   3.169
  861SOL    HW1 4415   3.366   8.274   3.144
  861SOL    HW2 4416   3.489   8.208   3.087
  862SOL     OW 4417   5.418   7.588   9.588
  862SOL    HW1 4418   5.434   7.517   9.526
  862SOL    HW2 4419   5.505   7.621   9.610
  863SOL     OW 4420   8.168  11.117   4.781
  863SOL    HW1 4421   8.127  11.070   4.854
  863SOL    HW2 4422   8.242  11.062   4.756
  864SOL     OW 4423  11.222  14.700  11.774
  864SOL    HW1 4424  11.190  14.768  11.833
  864SOL    HW2 4425  11.161  14.701  11.700
  865SOL     OW 4426   4.972   2.504   6.729
  865SOL    HW1 4427   5.048   2.542   6.684
  865SOL    HW2 4428   4.899   2.560   6.703
  866SOL     OW 4429   5.264   2.414   5.674
  866SOL    HW1 4430   5.299   2.467   5.602
  866SOL    HW2 4431   5.330   2.346   5.688
  867SOL     OW 4432  12.515  10.390   2.517
  867SOL    HW1 4433  12.495  10.322   2.581
  867SOL    HW2 4434  12.606  10.373   2.493
  868SOL     OW 4435  11.190  12.042   6.915
  868SOL    HW1 4436  11.120  12.106   6.916
  868SOL    HW2 4437  11.162  11.974   6.977
  869SOL     OW 4438   3.540  11.893   4.716
  869SOL    HW1 4439   3.504  11.975   4.751
  869SOL    HW2 4440   3.468  11.855   4.665
  870SOL     OW 4441   2.799  11.683   3.412
  870SOL    HW1 4442   2.718  11.644   3.444
  870SOL    HW2 4443   2.783  11.700   3.319
  871SOL     OW 4444  14.249  10.346  12.753
  871SOL    HW1 4445  14.326  10.356  12.810
  871SOL    HW2 4446  14.174  10.350  12.813
  872SOL     OW 4447  13.458  13.677   6.873
  872SOL    HW1 4448  13.474  13.764   6.836
  872SOL    HW2 4449  13.517  13.672   6.948
  873SOL     OW 4450   8.484   8.703  10.783
  873SOL    HW1 4451   8.501   8.715  10.690
  873SOL    HW2 4452   8.406   8.648  10.787
  874SOL     OW 4453  13.206   6.721  13.058
  874SOL    HW1 4454  13.261   6.729  13.135
  874SOL    HW2 4455  13.149   6.646  13.076
  875SOL     OW 4456   6.623  14.273  13.605
  875SOL    HW1 4457   6.673  14.282  13.687
  875SOL    HW2 4458   6.689  14.252  13.539
  876SOL     OW 4459   2.975   6.443   8.011
  876SOL    HW1 4460   3.064   6.427   8.040
  876SOL    HW2 4461   2.978   6.529   7.969
  877SOL     OW 4462   2.270  13.304   8.950
  877SOL    HW1 4463   2.299  13.309   8.859
  877SOL    HW2 4464   2.178  13.278   8.943
  878SOL     OW 4465  13.521   0.795  12.434
  878SOL    HW1 4466  13.465   0.871  12.415
  878SOL    HW2 4467  13.488   0.761  12.516
  879SOL     OW 4468   3.568   9.900   9.332
  879SOL    HW1 4469   3.494   9.959   9.316
  879SOL    HW2 4470   3.556   9.829   9.269
  880SOL     OW 4471   3.513  14.325   6.036
  880SOL    HW1 4472   3.478  14.360   6.118
  880SOL    HW2 4473   3.441  14.331   5.974
  881SOL     OW 4474   1.947   8.400   2.138
  881SOL    HW1 4475   1.978   8.487   2.113
  881SOL    HW2 4476   1.980   8.387   2.227
  882SOL     OW 4477   4.248   6.969  14.172
  882SOL    HW1 4478   4.278   6.903  14.109
  882SOL    HW2 4479   4.248   6.924  14.256
  883SOL     OW 4480  11.415   3.110   9.970
  883SOL    HW1 4481  11.351   3.129  10.038
  883SOL    HW2 4482  11.467   3.190   9.963
  884SOL     OW 4483  14.125   0.050   3.624
  884SOL    HW1 4484  14.091   0.075   3.538
  884SOL    HW2 4485  14.102  14.829   3.633
  885SOL     OW 4486   1.451  11.577   9.829
  885SOL    HW1 4487   1.395  11.652   9.851
  885SOL    HW2 4488   1.507  11.566   9.906
  886SOL     OW 4489   6.678   8.059  14.072
  886SOL    HW1 4490   6.653   8.071  13.980
  886SOL    HW2 4491   6.597   8.076  14.121
  887SOL     OW 4492   7.790   2.827   9.236
  887SOL    HW1 4493   7.853   2.897   9.250
  887SOL    HW2 4494   7.705   2.867   9.253
  888SOL     OW 4495  14.820   0.466  11.047
  888SOL    HW1 4496  14.776   0.387  11.078
  888SOL    HW2 4497  14.767   0.495  10.974
  889SOL     OW 4498   5.725   9.767   6.693
  889SOL    HW1 4499   5.737   9.783   6.786
  889SOL    HW2 4500   5.644   9.716   6.687
  890SOL     OW 4501  12.575   9.706  13.954
  890SOL    HW1 4502  12.588   9.677  14.044
  890SOL    HW2 4503  12.505   9.649  13.921
  891SOL     OW 4504  14.004  10.321  12.900
  891SOL    HW1 4505  13.980  10.412  12.915
  891SOL    HW2 4506  13.933  10.287  12.845
  892SOL     OW 4507   8.238  11.286  12.956
  892SOL    HW1 4508   8.170  11.220  12.945
  892SOL    HW2 4509   8.301  11.268  12.887
  893SOL     OW 4510  13.408   7.550   0.775
  893SOL    HW1 4511  13.475   7.484   0.756
  893SOL    HW2 4512  13.423   7.619   0.710
  894SOL     OW 4513   3.124  11.166   3.197
  894SOL    HW1 4514   3.176  11.141   3.273
  894SOL    HW2 4515   3.043  11.202   3.235
  895SOL     OW 4516   9.271   1.360   0.105
  895SOL    HW1 4517   9.331   1.393   0.038
  895SOL    HW2 4518   9.221   1.291   0.060
  896SOL     OW 4519   7.901   2.241   8.367
  896SOL    HW1 4520   7.827   2.184   8.344
  896SOL    HW2 4521   7.915   2.293   8.288
  897SOL     OW 4522   8.708   8.916  13.092
  897SOL    HW1 4523   8.633   8.864  13.121
  897SOL    HW2 4524   8.762   8.928  13.170
  898SOL     OW 4525   8.554   7.506   5.316
  898SOL    HW1 4526   8.527   7.519   5.407
  898SOL    HW2 4527   8.491   7.442   5.282
  899SOL     OW 4528   2.694  13.274   5.125
  899SOL    HW1 4529   2.671  13.181   5.127
  899SOL    HW2 4530   2.703  13.298   5.218
  900SOL     OW 4531  10.085   5.333   7.162
  900SOL    HW1 4532  10.029   5.272   7.114
  900SOL    HW2 4533  10.060   5.322   7.253
  901SOL     OW 4534   9.359   7.465   6.675
  901SOL    HW1 4535   9.289   7.531   6.673
  901SOL    HW2 4536   9.313   7.383   6.694
  902SOL     OW 4537  13.443   2.794   3.994
  902SOL    HW1 4538  13.425   2.847   3.916
  902SOL    HW2 4539  13.375   2.819   4.056
  903SOL     OW 4540  13.840   2.359   5.416
  903SOL    HW1 4541  13.915   2.405   5.379
  903SOL    HW2 4542  13.771   2.369   5.351
  904SOL     OW 4543   9.581   0.760   6.563
  904SOL    HW1 4544   9.665   0.767   6.517
  904SOL    HW2 4545   9.530   0.834   6.529
  905SOL     OW 4546   5.395   0.624  13.081
  905SOL    HW1 4547   5.386   0.530  13.068
  905SOL    HW2 4548   5.330   0.645  13.148
  906SOL     OW 4549   6.450   5.413   3.310
  906SOL    HW1 4550   6.391   5.433   3.237
  906SOL    HW2 4551   6.532   5.385   3.267
  907SOL     OW 4552  12.994  13.551  12.505
  907SOL    HW1 4553  13.016  13.517  12.419
  907SOL    HW2 4554  12.984  13.645  12.492
  908SOL     OW 4555   6.406   5.487   1.047
  908SOL    HW1 4556   6.437   5.487   1.138
  908SOL    HW2 4557   6.457   5.556   1.005
  909SOL     OW 4558   8.264  13.461  13.053
  909SOL    HW1 4559   8.271  13.366  13.050
  909SOL    HW2 4560   8.269  13.489  12.961
  910SOL     OW 4561   8.632   0.386  14.401
  910SOL    HW1 4562   8.598   0.349  14.319
  910SOL    HW2 4563   8.567   0.362  14.467
  911SOL     OW 4564   2.015   7.672  10.070
  911SOL    HW1 4565   2.090   7.730  10.058
  911SOL    HW2 4566   1.945   7.713  10.018
  912SOL     OW 4567   1.431  14.081  11.416
  912SOL    HW1 4568   1.435  14.062  11.509
  912SOL    HW2 4569   1.512  14.044  11.381
  913SOL     OW 4570  10.804   7.848   4.805
  913SOL    HW1 4571  10.713   7.859   4.833
  913SOL    HW2 4572  10.833   7.936   4.783
  914SOL     OW 4573  14.042   3.355  10.614
  914SOL    HW1 4574  14.089   3.411  10.551
  914SOL    HW2 4575  14.087   3.370  10.697
  915SOL     OW 4576   5.058   3.579   4.353
  915SOL    HW1 4577   4.965   3.581   4.377
  915SOL    HW2 4578   5.060   3.609   4.262
  916SOL     OW 4579   1.251  13.095   9.482
  916SOL    HW1 4580   1.283  13.006   9.470
  916SOL    HW2 4581   1.315  13.149   9.435
  917SOL     OW 4582   5.052  12.509   1.690
  917SOL    HW1 4583   5.132  12.463   1.717
  917SOL    HW2 4584   5.005  12.525   1.772
  918SOL     OW 4585   1.007  10.939   8.308
  918SOL    HW1 4586   1.042  10.907   8.225
  918SOL    HW2 4587   1.077  10.925   8.371
  919SOL     OW 4588  10.365   4.609   5.864
  919SOL    HW1 4589  10.378   4.597   5.958
  919SOL    HW2 4590  10.432   4.553   5.823
  920SOL     OW 4591   5.422  13.007   4.500
  920SOL    HW1 4592   5.458  13.044   4.420
  920SOL    HW2 4593   5.442  13.072   4.567
  921SOL     OW 4594  11.933   5.474  10.503
  921SOL    HW1 4595  11.953   5.425  10.423
  921SOL    HW2 4596  11.838   5.477  10.507
  922SOL     OW 4597   0.849   0.693  13.116
  922SOL    HW1 4598   0.892   0.625  13.168
  922SOL    HW2 4599   0.810   0.646  13.042
  923SOL     OW 4600   7.527   9.079   0.806
  923SOL    HW1 4601   7.544   9.015   0.875
  923SOL    HW2 4602   7.432   9.082   0.799
  924SOL     OW 4603   5.616   4.837   0.938
  924SOL    HW1 4604   5.656   4.768   0.885
  924SOL    HW2 4605   5.529   4.849   0.900
  925SOL     OW 4606  13.108  10.846  13.614
  925SOL    HW1 4607  13.140  10.782  13.551
  925SOL    HW2 4608  13.091  10.795  13.693
  926SOL     OW 4609   1.311  13.261   0.545
  926SOL    HW1 4610   1.289  13.200   0.475
  926SOL    HW2 4611   1.347  13.206   0.615
  927SOL     OW 4612   0.525  11.219   7.407
  927SOL    HW1 4613   0.608  11.259   7.432
  927SOL    HW2 4614   0.463  11.249   7.474
  928SOL     OW 4615   3.553  14.018   1.980
  928SOL    HW1 4616   3.501  14.028   1.900
  928SOL    HW2 4617   3.510  13.948   2.028
  929SOL     OW 4618   9.415  12.360   0.028
  929SOL    HW1 4619   9.467  12.433   0.062
  929SOL    HW2 4620   9.360  12.400  14.833
  930SOL     OW 4621   9.578   1.119   8.155
  930SOL    HW1 4622   9.524   1.168   8.092
  930SOL    HW2 4623   9.517   1.098   8.226
  931SOL     OW 4624  11.379   3.427   0.536
  931SOL    HW1 4625  11.291   3.396   0.517
  931SOL    HW2 4626  11.434   3.348   0.531
  932SOL     OW 4627  14.768  14.492  13.094
  932SOL    HW1 4628  14.712  14.569  13.082
  932SOL    HW2 4629  14.730  14.446  13.169
  933SOL     OW 4630   6.261   7.508   6.384
  933SOL    HW1 4631   6.175   7.500   6.426
  933SOL    HW2 4632   6.294   7.593   6.412
  934SOL     OW 4633   3.251  14.308   3.868
  934SOL    HW1 4634   3.269  14.391   3.826
  934SOL    HW2 4635   3.316  14.302   3.938
  935SOL     OW 4636  10.977   1.189  10.149
  935SOL    HW1 4637  10.992   1.099  10.178
  935SOL    HW2 4638  10.992   1.242  10.227
  936SOL     OW 4639   4.016  12.330   4.013
  936SOL    HW1 4640   3.983  12.410   3.972
  936SOL    HW2 4641   3.949  12.306   4.076
  937SOL     OW 4642  12.556   4.068  12.200
  937SOL    HW1 4643  12.470   4.080  12.160
  937SOL    HW2 4644  12.547   3.989  12.254
  938SOL     OW 4645   0.201  11.729  12.366
  938SOL    HW1 4646   0.290  11.738  12.399
  938SOL    HW2 4647   0.209  11.677  12.286
  939SOL     OW 4648   3.367  11.724   6.891
  939SOL    HW1 4649   3.391  11.809   6.854
  939SOL    HW2 4650   3.385  11.662   6.820
  940SOL     OW 4651   4.708   7.842   3.418
  940SOL    HW1 4652   4.662   7.856   3.500
  940SOL    HW2 4653   4.662   7.897   3.355
  941SOL     OW 4654   6.453   3.673   6.609
  941SOL    HW1 4655   6.420   3.747   6.660
  941SOL    HW2 4656   6.489   3.613   6.675
  942SOL     OW 4657   5.272   4.247   3.961
  942SOL    HW1 4658   5.264   4.152   3.949
  942SOL    HW2 4659   5.189   4.273   4.001
  943SOL     OW 4660   6.122  11.289   3.988
  943SOL    HW1 4661   6.102  11.375   4.025
  943SOL    HW2 4662   6.041  11.261   3.946
  944SOL     OW 4663   6.649   5.228   6.059
  944SOL    HW1 4664   6.730   5.255   6.103
  944SOL    HW2 4665   6.605   5.172   6.122
  945SOL     OW 4666   6.534   8.122   7.470
  945SOL    HW1 4667   6.455   8.092   7.424
  945SOL    HW2 4668   6.509   8.207   7.508
  946SOL     OW 4669   1.678  12.427   6.641
  946SOL    HW1 4670   1.606  12.477   6.602
  946SOL    HW2 4671   1.637  12.380   6.714
  947SOL     OW 4672   3.862  13.598  11.650
  947SOL    HW1 4673   3.898  13.662  11.589
  947SOL    HW2 4674   3.768  13.613  11.649
  948SOL     OW 4675   7.405   8.749  11.803
  948SOL    HW1 4676   7.328   8.703  11.769
  948SOL    HW2 4677   7.472   8.735  11.736
  949SOL     OW 4678   9.885   8.137   2.124
  949SOL    HW1 4679   9.893   8.123   2.219
  949SOL    HW2 4680   9.946   8.073   2.086
  950SOL     OW 4681   1.498   0.846   8.519
  950SOL    HW1 4682   1.486   0.758   8.556
  950SOL    HW2 4683   1.522   0.900   8.594
  951SOL     OW 4684   3.432   3.308  14.494
  951SOL    HW1 4685   3.521   3.293  14.463
  951SOL    HW2 4686   3.443   3.351  14.579
  952SOL     OW 4687  12.545   7.722   3.417
  952SOL    HW1 4688  12.617   7.661   3.398
  952SOL    HW2 4689  12.534   7.717   3.512
  953SOL     OW 4690  12.848   5.407  12.641
  953SOL    HW1 4691  12.827   5.499  12.658
  953SOL    HW2 4692  12.770   5.373  12.596
  954SOL     OW 4693   5.922   6.000   5.766
  954SOL    HW1 4694   5.952   6.090   5.754
  954SOL    HW2 4695   5.945   5.980   5.857
  955SOL     OW 4696  12.564  12.538   4.138
  955SOL    HW1 4697  12.569  12.633   4.149
  955SOL    HW2 4698  12.644  12.516   4.089
  956SOL     OW 4699  10.614   5.591   4.052
  956SOL    HW1 4700  10.691   5.537   4.069
  956SOL    HW2 4701  10.601   5.641   4.132
  957SOL     OW 4702  10.667   0.230  12.166
  957SOL    HW1 4703  10.598   0.222  12.231
  957SOL    HW2 4704  10.659   0.320  12.133
  958SOL     OW 4705   7.242   4.577   9.955
  958SOL    HW1 4706   7.272   4.662   9.985
  958SOL    HW2 4707   7.228   4.588   9.861
  959SOL     OW 4708  14.427   7.976   5.966
  959SOL    HW1 4709  14.399   7.929   6.045
  959SOL    HW2 4710  14.457   7.907   5.906
  960SOL     OW 4711  11.721   2.073   0.822
  960SOL    HW1 4712  11.779   2.148   0.817
  960SOL    HW2 4713  11.680   2.068   0.736
  961SOL     OW 4714   5.408   5.365   1.673
  961SOL    HW1 4715   5.325   5.346   1.629
  961SOL    HW2 4716   5.411   5.303   1.745
  962SOL     OW 4717   2.249   4.925   5.880
  962SOL    HW1 4718   2.314   4.855   5.880
  962SOL    HW2 4719   2.274   4.981   5.954
  963SOL     OW 4720   6.610   0.960   0.411
  963SOL    HW1 4721   6.559   1.036   0.439
  963SOL    HW2 4722   6.580   0.943   0.322
  964SOL     OW 4723   2.436   8.574  13.045
  964SOL    HW1 4724   2.405   8.509  12.982
  964SOL    HW2 4725   2.510   8.532  13.088
  965SOL     OW 4726   9.551   5.749   5.770
  965SOL    HW1 4727   9.546   5.793   5.855
  965SOL    HW2 4728   9.463   5.716   5.754
  966SOL     OW 4729  13.964   1.126   0.286
  966SOL    HW1 4730  13.900   1.148   0.354
  966SOL    HW2 4731  13.956   1.032   0.275
  967SOL     OW 4732  10.309   7.787   4.032
  967SOL    HW1 4733  10.342   7.708   4.074
  967SOL    HW2 4734  10.242   7.820   4.092
  968SOL     OW 4735  14.654   5.912  11.167
  968SOL    HW1 4736  14.749   5.907  11.154
  968SOL    HW2 4737  14.644   5.964  11.247
  969SOL     OW 4738   2.124  12.697  12.942
  969SOL    HW1 4739   2.195  12.678  13.003
  969SOL    HW2 4740   2.148  12.648  12.862
  970SOL     OW 4741   0.074   4.087  12.792
  970SOL    HW1 4742  14.861   4.131  12.790
  970SOL    HW2 4743   0.058   4.006  12.840
  971SOL     OW 4744   3.385   0.076   9.795
  971SOL    HW1 4745   3.437   0.089   9.874
  971SOL    HW2 4746   3.296   0.065   9.827
  972SOL     OW 4747  13.036   1.245  12.839
  972SOL    HW1 4748  13.050   1.334  12.807
  972SOL    HW2 4749  13.121   1.202  12.829
  973SOL     OW 4750  14.005   6.787   2.921
  973SOL    HW1 4751  14.043   6.706   2.952
  973SOL    HW2 4752  14.025   6.851   2.989
  974SOL     OW 4753   4.861  13.454   4.514
  974SOL    HW1 4754   4.817  13.375   4.482
  974SOL    HW2 4755   4.881  13.434   4.606
  975SOL     OW 4756  11.938   2.588   1.532
  975SOL    HW1 4757  11.844   2.605   1.536
  975SOL    HW2 4758  11.972   2.617   1.617
  976SOL     OW 4759   7.073   5.580   8.965
  976SOL    HW1 4760   7.082   5.491   9.000
  976SOL    HW2 4761   7.148   5.591   8.908
  977SOL     OW 4762   4.622   1.257   9.570
  977SOL    HW1 4763   4.537   1.214   9.580
  977SOL    HW2 4764   4.630   1.271   9.475
  978SOL     OW 4765   0.685   7.378   8.540
  978SOL    HW1 4766   0.705   7.341   8.627
  978SOL    HW2 4767   0.759   7.435   8.521
  979SOL     OW 4768   1.601  10.893   3.123
  979SOL    HW1 4769   1.627  10.948   3.048
  979SOL    HW2 4770   1.675  10.901   3.184
  980SOL     OW 4771   5.469   4.653  10.550
  980SOL    HW1 4772   5.416   4.623  10.476
  980SOL    HW2 4773   5.534   4.583  10.564
  981SOL     OW 4774  13.579   7.331   8.848
  981SOL    HW1 4775  13.596   7.398   8.914
  981SOL    HW2 4776  13.516   7.272   8.889
  982SOL     OW 4777   7.552   0.820   7.286
  982SOL    HW1 4778   7.488   0.752   7.308
  982SOL    HW2 4779   7.513   0.866   7.211
  983SOL     OW 4780  11.074   8.132  14.528
  983SOL    HW1 4781  11.104   8.072  14.596
  983SOL    HW2 4782  11.147   8.138  14.467
  984SOL     OW 4783  14.007   8.996  13.343
  984SOL    HW1 4784  13.975   8.915  13.381
  984SOL    HW2 4785  14.041   9.046  13.417
  985SOL     OW 4786   4.216   2.449  12.364
  985SOL    HW1 4787   4.236   2.401  12.284
  985SOL    HW2 4788   4.283   2.517  12.369
  986SOL     OW 4789  12.369  12.120   2.698
  986SOL    HW1 4790  12.310  12.072   2.640
  986SOL    HW2 4791  12.455  12.115   2.656
  987SOL     OW 4792   3.990  14.120  10.152
  987SOL    HW1 4793   3.929  14.141  10.223
  987SOL    HW2 4794   3.938  14.132  10.072
  988SOL     OW 4795  11.303   2.780   8.553
  988SOL    HW1 4796  11.257   2.851   8.510
  988SOL    HW2 4797  11.389   2.778   8.511
  989SOL     OW 4798   4.300   4.096   4.903
  989SOL    HW1 4799   4.342   4.136   4.827
  989SOL    HW2 4800   4.300   4.002   4.884
  990SOL     OW 4801   9.970   1.409  14.482
  990SOL    HW1 4802   9.878   1.433  14.494
  990SOL    HW2 4803   9.968   1.315  14.464
  991SOL     OW 4804  14.396   6.782  13.876
  991SOL    HW1 4805  14.330   6.722  13.911
  991SOL    HW2 4806  14.354   6.868  13.876
  992SOL     OW 4807  12.293   9.126   4.317
  992SOL    HW1 4808  12.350   9.192   4.277
  992SOL    HW2 4809  12.317   9.126   4.409
  993SOL     OW 4810   2.169  11.947   1.561
  993SOL    HW1 4811   2.203  12.019   1.507
  993SOL    HW2 4812   2.074  11.958   1.558
  994SOL     OW 4813   1.981  14.360   6.213
  994SOL    HW1 4814   1.930  14.327   6.139
  994SOL    HW2 4815   1.956  14.303   6.286
  995SOL     OW 4816   6.409   8.901   2.680
  995SOL    HW1 4817   6.372   8.944   2.603
  995SOL    HW2 4818   6.498   8.936   2.686
  996SOL     OW 4819   6.875  10.704   5.987
  996SOL    HW1 4820   6.934  10.712   5.912
  996SOL    HW2 4821   6.895  10.781   6.041
  997SOL     OW 4822   1.090   5.308   6.081
  997SOL    HW1 4823   1.091   5.265   6.166
  997SOL    HW2 4824   1.179   5.339   6.068
  998SOL     OW 4825  12.105  11.906  11.437
  998SOL    HW1 4826  12.036  11.857  11.393
  998SOL    HW2 4827  12.096  11.995  11.403
  999SOL     OW 4828   8.238   9.250   0.660
  999SOL    HW1 4829   8.269   9.168   0.698
  999SOL    HW2 4830   8.307   9.274   0.597
 1000SOL     OW 4831   4.161   4.711   3.706
 1000SOL    HW1 4832   4.159   4.807   3.701
 1000SOL    HW2 4833   4.070   4.686   3.724
 1001SOL     OW 4834  10.337   7.229   1.033
 1001SOL    HW1 4835  10.343   7.150   0.978
 1001SOL    HW2 4836  10.269   7.282   0.990
 1002SOL     OW 4837   5.910  11.743   7.249
 1002SOL    HW1 4838   5.849  11.818   7.248
 1002SOL    HW2 4839   5.908  11.712   7.339
 1003SOL     OW 4840   5.203   4.775   7.529
 1003SOL    HW1 4841   5.267   4.804   7.465
 1003SOL    HW2 4842   5.234   4.812   7.612
 1004SOL     OW 4843  12.289   4.279   5.567
 1004SOL    HW1 4844  12.258   4.196   5.602
 1004SOL    HW2 4845  12.223   4.343   5.593
 1005SOL     OW 4846   8.700   5.309   2.528
 1005SOL    HW1 4847   8.748   5.226   2.529
 1005SOL    HW2 4848   8.725   5.353   2.609
 1006SOL     OW 4849   9.128  10.052   0.437
 1006SOL    HW1 4850   9.034  10.035   0.440
 1006SOL    HW2 4851   9.136  10.145   0.458
 1007SOL     OW 4852  12.954   1.934  11.377
 1007SOL    HW1 4853  12.932   1.842  11.390
 1007SOL    HW2 4854  12.998   1.960  11.457
 1008SOL     OW 4855   0.207   2.542   4.877
 1008SOL    HW1 4856   0.185   2.453   4.906
 1008SOL    HW2 4857   0.200   2.596   4.956
 1009SOL     OW 4858  10.616   0.041   9.269
 1009SOL    HW1 4859  10.654  14.826   9.279
 1009SOL    HW2 4860  10.599   0.070   9.359
 1010SOL     OW 4861  11.206  11.273   5.691
 1010SOL    HW1 4862  11.155  11.350   5.716
 1010SOL    HW2 4863  11.217  11.223   5.773
 1011SOL     OW 4864   4.993   8.778  12.503
 1011SOL    HW1 4865   5.050   8.704  12.484
 1011SOL    HW2 4866   4.953   8.800  12.418
 1012SOL     OW 4867   9.179   8.752   5.147
 1012SOL    HW1 4868   9.135   8.835   5.130
 1012SOL    HW2 4869   9.211   8.724   5.061
 1013SOL     OW 4870   6.239   9.295   0.760
 1013SOL    HW1 4871   6.213   9.387   0.764
 1013SOL    HW2 4872   6.320   9.291   0.811
 1014SOL     OW 4873   5.098   1.095   5.552
 1014SOL    HW1 4874   5.046   1.015   5.556
 1014SOL    HW2 4875   5.058   1.152   5.618
 1015SOL     OW 4876   9.209   9.073   8.603
 1015SOL    HW1 4877   9.220   9.103   8.512
 1015SOL    HW2 4878   9.236   9.147   8.656
 1016SOL     OW 4879  10.727  14.684  14.610
 1016SOL    HW1 4880  10.799  14.737  14.645
 1016SOL    HW2 4881  10.736  14.692  14.515
 1017SOL     OW 4882  11.084  13.739   5.662
 1017SOL    HW1 4883  11.017  13.760   5.726
 1017SOL    HW2 4884  11.057  13.654   5.626
 1018SOL     OW 4885   1.806   5.370  14.577
 1018SOL    HW1 4886   1.790   5.276  14.567
 1018SOL    HW2 4887   1.727   5.411  14.543
 1019SOL     OW 4888  10.851   5.526  14.749
 1019SOL    HW1 4889  10.825   5.603  14.799
 1019SOL    HW2 4890  10.930   5.552  14.703
 1020SOL     OW 4891   2.953   9.143   6.705
 1020SOL    HW1 4892   3.018   9.099   6.759
 1020SOL    HW2 4893   2.989   9.139   6.616
 1021SOL     OW 4894  10.742  14.308   9.597
 1021SOL    HW1 4895  10.684  14.365   9.647
 1021SOL    HW2 4896  10.772  14.362   9.525
 1022SOL     OW 4897  10.686   2.857  11.060
 1022SOL    HW1 4898  10.594   2.857  11.033
 1022SOL    HW2 4899  10.703   2.766  11.084
 1023SOL     OW 4900   3.595   9.149   4.396
 1023SOL    HW1 4901   3.637   9.080   4.346
 1023SOL    HW2 4902   3.566   9.213   4.331
 1024SOL     OW 4903   4.311   6.396   3.194
 1024SOL    HW1 4904   4.256   6.318   3.192
 1024SOL    HW2 4905   4.316   6.420   3.286
 1025SOL     OW 4906   0.882  14.391   4.738
 1025SOL    HW1 4907   0.967  14.411   4.778
 1025SOL    HW2 4908   0.900  14.316   4.682
 1026SOL     OW 4909   3.437   8.481   3.758
 1026SOL    HW1 4910   3.409   8.490   3.667
 1026SOL    HW2 4911   3.471   8.567   3.782
 1027SOL     OW 4912   5.537   2.095  10.483
 1027SOL    HW1 4913   5.484   2.063  10.556
 1027SOL    HW2 4914   5.502   2.182  10.465
 1028SOL     OW 4915   9.309  14.450   4.300
 1028SOL    HW1 4916   9.290  14.543   4.294
 1028SOL    HW2 4917   9.404  14.445   4.310
 1029SOL     OW 4918  10.878   3.552   0.091
 1029SOL    HW1 4919  10.917   3.468   0.066
 1029SOL    HW2 4920  10.820   3.574   0.018
 1030SOL     OW 4921  13.275   9.772   3.178
 1030SOL    HW1 4922  13.185   9.739   3.175
 1030SOL    HW2 4923  13.299   9.768   3.270
 1031SOL     OW 4924   5.508   0.302   5.066
 1031SOL    HW1 4925   5.509   0.209   5.085
 1031SOL    HW2 4926   5.601   0.326   5.059
 1032SOL     OW 4927   7.439   2.499  14.633
 1032SOL    HW1 4928   7.451   2.494  14.728
 1032SOL    HW2 4929   7.348   2.477  14.618
 1033SOL     OW 4930   4.142   1.783   0.279
 1033SOL    HW1 4931   4.230   1.803   0.249
 1033SOL    HW2 4932   4.143   1.689   0.295
 1034SOL     OW 4933   7.264   1.135   4.475
 1034SOL    HW1 4934   7.303   1.149   4.561
 1034SOL    HW2 4935   7.268   1.040   4.462
 1035SOL     OW 4936   3.212   9.411   1.304
 1035SOL    HW1 4937   3.283   9.460   1.346
 1035SOL    HW2 4938   3.244   9.394   1.215
 1036SOL     OW 4939   6.313  14.299   8.425
 1036SOL    HW1 4940   6.247  14.237   8.457
 1036SOL    HW2 4941   6.298  14.378   8.477
 1037SOL     OW 4942   4.784   6.883  14.743
 1037SOL    HW1 4943   4.828   6.847  14.666
 1037SOL    HW2 4944   4.732   6.956  14.709
 1038SOL     OW 4945  14.237   1.955   7.018
 1038SOL    HW1 4946  14.257   2.019   7.086
 1038SOL    HW2 4947  14.311   1.894   7.020
 1039SOL     OW 4948   0.810  13.113   1.295
 1039SOL    HW1 4949   0.805  13.206   1.318
 1039SOL    HW2 4950   0.720  13.087   1.280
 1040SOL     OW 4951   8.667  13.430  14.242
 1040SOL    HW1 4952   8.741  13.371  14.226
 1040SOL    HW2 4953   8.642  13.415  14.333
 1041SOL     OW 4954   6.243  10.163  13.528
 1041SOL    HW1 4955   6.172  10.109  13.565
 1041SOL    HW2 4956   6.321  10.109  13.538
 1042SOL     OW 4957   1.440   5.797   5.703
 1042SOL    HW1 4958   1.482   5.795   5.789
 1042SOL    HW2 4959   1.378   5.869   5.708
 1043SOL     OW 4960   4.568   3.531   4.868
 1043SOL    HW1 4961   4.494   3.591   4.866
 1043SOL    HW2 4962   4.621   3.555   4.791
 1044SOL     OW 4963   0.135   0.530   9.593
 1044SOL    HW1 4964   0.213   0.537   9.648
 1044SOL    HW2 4965   0.086   0.611   9.609
 1045SOL     OW 4966  12.161   3.770   1.181
 1045SOL    HW1 4967  12.201   3.690   1.146
 1045SOL    HW2 4968  12.205   3.841   1.134
 1046SOL     OW 4969   4.884   4.761  14.434
 1046SOL    HW1 4970   4.838   4.723  14.509
 1046SOL    HW2 4971   4.828   4.834  14.406
 1047SOL     OW 4972   8.931  13.356  13.508
 1047SOL    HW1 4973   8.977  13.297  13.568
 1047SOL    HW2 4974   8.984  13.356  13.429
 1048SOL     OW 4975   2.744   3.820  14.747
 1048SOL    HW1 4976   2.680   3.749  14.754
 1048SOL    HW2 4977   2.700   3.887  14.694
 1049SOL     OW 4978   7.712   1.956  10.681
 1049SOL    HW1 4979   7.692   1.871  10.643
 1049SOL    HW2 4980   7.630   2.005  10.674
 1050SOL     OW 4981   9.508   3.498  13.142
 1050SOL    HW1 4982   9.548   3.430  13.196
 1050SOL    HW2 4983   9.559   3.496  13.061
 1051SOL     OW 4984   0.751   4.149  11.944
 1051SOL    HW1 4985   0.744   4.226  12.000
 1051SOL    HW2 4986   0.836   4.111  11.967
 1052SOL     OW 4987   3.602  11.626   8.569
 1052SOL    HW1 4988   3.558  11.550   8.531
 1052SOL    HW2 4989   3.680  11.639   8.515
 1053SOL     OW 4990  10.713  11.408  11.631
 1053SOL    HW1 4991  10.659  11.449  11.562
 1053SOL    HW2 4992  10.736  11.322  11.595
 1054SOL     OW 4993  10.931   8.510   6.306
 1054SOL    HW1 4994  10.976   8.506   6.390
 1054SOL    HW2 4995  10.861   8.445   6.313
 1055SOL     OW 4996   2.828   1.833  14.412
 1055SOL    HW1 4997   2.749   1.880  14.385
 1055SOL    HW2 4998   2.900   1.883  14.373
 1056SOL     OW 4999  12.047   8.850   8.869
 1056SOL    HW1 5000  12.043   8.841   8.964
 1056SOL    HW2 5001  12.057   8.944   8.854
 1057SOL     OW 5002  13.667  13.655   1.668
 1057SOL    HW1 5003  13.586  13.648   1.720
 1057SOL    HW2 5004  13.732  13.609   1.721
 1058SOL     OW 5005   4.895   8.074   9.294
 1058SOL    HW1 5006   4.844   7.999   9.263
 1058SOL    HW2 5007   4.844   8.110   9.366
 1059SOL     OW 5008  10.731   7.173   1.093
 1059SOL    HW1 5009  10.724   7.225   1.173
 1059SOL    HW2 5010  10.676   7.220   1.029
 1060SOL     OW 5011   3.530   4.646  13.943
 1060SOL    HW1 5012   3.497   4.561  13.974
 1060SOL    HW2 5013   3.500   4.651  13.852
 1061SOL     OW 5014   4.104   1.482  10.450
 1061SOL    HW1 5015   4.086   1.544  10.379
 1061SOL    HW2 5016   4.042   1.505  10.519
 1062SOL     OW 5017   7.044  12.839   5.635
 1062SOL    HW1 5018   7.110  12.818   5.700
 1062SOL    HW2 5019   6.966  12.790   5.663
 1063SOL     OW 5020   3.489   7.439   2.695
 1063SOL    HW1 5021   3.551   7.452   2.623
 1063SOL    HW2 5022   3.442   7.522   2.700
 1064SOL     OW 5023   8.612  10.973   3.184
 1064SOL    HW1 5024   8.557  10.915   3.236
 1064SOL    HW2 5025   8.551  11.024   3.132
 1065SOL     OW 5026   5.014   5.346   2.854
 1065SOL    HW1 5027   5.058   5.417   2.807
 1065SOL    HW2 5028   4.937   5.388   2.893
 1066SOL     OW 5029   6.608   5.121  12.437
 1066SOL    HW1 5030   6.606   5.209  12.477
 1066SOL    HW2 5031   6.630   5.063  12.509
 1067SOL     OW 5032   6.226  14.730   5.856
 1067SOL    HW1 5033   6.185  14.669   5.917
 1067SOL    HW2 5034   6.221  14.686   5.771
 1068SOL     OW 5035   7.534   0.956   8.905
 1068SOL    HW1 5036   7.524   0.908   8.823
 1068SOL    HW2 5037   7.516   0.891   8.973
 1069SOL     OW 5038   3.287   5.101   6.800
 1069SOL    HW1 5039   3.375   5.065   6.788
 1069SOL    HW2 5040   3.235   5.026   6.829
 1070SOL     OW 5041   2.188   1.190   4.164
 1070SOL    HW1 5042   2.196   1.196   4.259
 1070SOL    HW2 5043   2.240   1.264   4.131
 1071SOL     OW 5044   2.997  11.713  10.488
 1071SOL    HW1 5045   2.972  11.791  10.440
 1071SOL    HW2 5046   3.092  11.706  10.476
 1072SOL     OW 5047   2.998   4.495   2.988
 1072SOL    HW1 5048   2.956   4.411   3.008
 1072SOL    HW2 5049   3.061   4.474   2.919
 1073SOL     OW 5050   9.166   0.628  13.713
 1073SOL    HW1 5051   9.202   0.540  13.701
 1073SOL    HW2 5052   9.090   0.615  13.770
 1074SOL     OW 5053   4.252   9.497   4.860
 1074SOL    HW1 5054   4.182   9.497   4.795
 1074SOL    HW2 5055   4.329   9.467   4.812
 1075SOL     OW 5056   3.493   4.685   0.251
 1075SOL    HW1 5057   3.490   4.704   0.157
 1075SOL    HW2 5058   3.574   4.635   0.262
 1076SOL     OW 5059  14.453  14.607  14.500
 1076SOL    HW1 5060  14.421  14.644  14.418
 1076SOL    HW2 5061  14.547  14.627  14.500
 1077SOL     OW 5062   8.304  13.686   0.862
 1077SOL    HW1 5063   8.326  13.776   0.886
 1077SOL    HW2 5064   8.268  13.693   0.773
 1078SOL     OW 5065   8.677  11.634   5.280
 1078SOL    HW1 5066   8.693  11.565   5.215
 1078SOL    HW2 5067   8.697  11.592   5.364
 1079SOL     OW 5068  10.275   1.126   1.149
 1079SOL    HW1 5069  10.205   1.094   1.207
 1079SOL    HW2 5070  10.350   1.071   1.169
 1080SOL     OW 5071  12.058   6.773   6.843
 1080SOL    HW1 5072  12.022   6.712   6.779
 1080SOL    HW2 5073  12.151   6.749   6.849
 1081SOL     OW 5074   5.929  10.934   2.866
 1081SOL    HW1 5075   5.955  10.974   2.783
 1081SOL    HW2 5076   6.011  10.906   2.906
 1082SOL     OW 5077   2.680  12.307  12.180
 1082SOL    HW1 5078   2.644  12.231  12.132
 1082SOL    HW2 5079   2.756  12.272  12.227
 1083SOL     OW 5080   8.134   2.869  11.203
 1083SOL    HW1 5081   8.224   2.848  11.229
 1083SOL    HW2 5082   8.133   2.965  11.198
 1084SOL     OW 5083   0.255  13.826   6.346
 1084SOL    HW1 5084   0.219  13.790   6.427
 1084SOL    HW2 5085   0.180  13.830   6.286
 1085SOL     OW 5086  13.833   0.707   5.657
 1085SOL    HW1 5087  13.741   0.720   5.681
 1085SOL    HW2 5088  13.835   0.713   5.562
 1086SOL     OW 5089  11.792   4.455   2.423
 1086SOL    HW1 5090  11.740   4.385   2.384
 1086SOL    HW2 5091  11.844   4.490   2.351
 1087SOL     OW 5092   3.038  10.133  10.261
 1087SOL    HW1 5093   2.982  10.056  10.254
 1087SOL    HW2 5094   3.027  10.162  10.352
 1088SOL     OW 5095   5.638   5.356   4.962
 1088SOL    HW1 5096   5.612   5.447   4.947
 1088SOL    HW2 5097   5.574   5.304   4.914
 1089SOL     OW 5098   7.103  12.214   1.130
 1089SOL    HW1 5099   7.015  12.179   1.144
 1089SOL    HW2 5100   7.141  12.158   1.062
 1090SOL     OW 5101  12.532   7.117   4.747
 1090SOL    HW1 5102  12.506   7.056   4.678
 1090SOL    HW2 5103  12.609   7.163   4.711
 1091SOL     OW 5104   8.066   6.125  12.534
 1091SOL    HW1 5105   8.128   6.089  12.598
 1091SOL    HW2 5106   8.062   6.059  12.466
 1092SOL     OW 5107  11.038  11.136  10.040
 1092SOL    HW1 5108  10.969  11.078  10.007
 1092SOL    HW2 5109  11.058  11.194   9.967
 1093SOL     OW 5110   7.704   2.164   7.450
 1093SOL    HW1 5111   7.633   2.102   7.461
 1093SOL    HW2 5112   7.744   2.171   7.536
 1094SOL     OW 5113  14.130   4.604   0.409
 1094SOL    HW1 5114  14.225   4.603   0.399
 1094SOL    HW2 5115  14.115   4.647   0.493
 1095SOL     OW 5116   9.213   8.848   2.050
 1095SOL    HW1 5117   9.306   8.859   2.067
 1095SOL    HW2 5118   9.208   8.813   1.961
 1096SOL     OW 5119   5.113   7.171   5.110
 1096SOL    HW1 5120   5.044   7.234   5.131
 1096SOL    HW2 5121   5.154   7.207   5.031
 1097SOL     OW 5122  11.134  14.547  13.445
 1097SOL    HW1 5123  11.185  14.473  13.411
 1097SOL    HW2 5124  11.066  14.506  13.498
 1098SOL     OW 5125   4.146  13.299  12.898
 1098SOL    HW1 5126   4.167  13.390  12.915
 1098SOL    HW2 5127   4.213  13.271  12.835
 1099SOL     OW 5128  11.658  11.798   4.856
 1099SOL    HW1 5129  11.681  11.869   4.797
 1099SOL    HW2 5130  11.660  11.719   4.801
 1100SOL     OW 5131  12.581  13.178   4.535
 1100SOL    HW1 5132  12.618  13.224   4.459
 1100SOL    HW2 5133  12.654  13.126   4.568
 1101SOL     OW 5134   1.098  13.761   2.778
 1101SOL    HW1 5135   1.185  13.779   2.814
 1101SOL    HW2 5136   1.115  13.740   2.686
 1102SOL     OW 5137   2.293  12.186   9.060
 1102SOL    HW1 5138   2.291  12.093   9.038
 1102SOL    HW2 5139   2.352  12.225   8.996
 1103SOL     OW 5140  12.557  12.925  14.310
 1103SOL    HW1 5141  12.516  12.943  14.225
 1103SOL    HW2 5142  12.635  12.874  14.288
 1104SOL     OW 5143   0.779  14.109  11.413
 1104SOL    HW1 5144   0.712  14.044  11.435
 1104SOL    HW2 5145   0.775  14.117  11.318
 1105SOL     OW 5146   7.020  13.527   0.531
 1105SOL    HW1 5147   7.020  13.568   0.444
 1105SOL    HW2 5148   6.998  13.435   0.514
 1106SOL     OW 5149   2.915  12.860   0.766
 1106SOL    HW1 5150   2.989  12.921   0.765
 1106SOL    HW2 5151   2.951  12.778   0.798
 1107SOL     OW 5152  12.321   3.779   9.410
 1107SOL    HW1 5153  12.318   3.846   9.478
 1107SOL    HW2 5154  12.356   3.824   9.333
 1108SOL     OW 5155  13.481  10.515   4.463
 1108SOL    HW1 5156  13.566  10.484   4.497
 1108SOL    HW2 5157  13.445  10.439   4.417
 1109SOL     OW 5158   6.809   7.001   9.959
 1109SOL    HW1 5159   6.812   6.915  10.001
 1109SOL    HW2 5160   6.893   7.007   9.912
 1110SOL     OW 5161   3.536   1.327   2.590
 1110SOL    HW1 5162   3.448   1.297   2.566
 1110SOL    HW2 5163   3.526   1.363   2.678
 1111SOL     OW 5164   3.417   7.393  11.089
 1111SOL    HW1 5165   3.485   7.327  11.102
 1111SOL    HW2 5166   3.386   7.378  11.000
 1112SOL     OW 5167  14.194  12.668   3.148
 1112SOL    HW1 5168  14.289  12.665   3.135
 1112SOL    HW2 5169  14.172  12.584   3.189
 1113SOL     OW 5170   3.249   8.035  13.266
 1113SOL    HW1 5171   3.156   8.042  13.245
 1113SOL    HW2 5172   3.278   8.126  13.273
 1114SOL     OW 5173   5.696  12.871  13.148
 1114SOL    HW1 5174   5.705  12.964  13.126
 1114SOL    HW2 5175   5.722  12.824  13.069
 1115SOL     OW 5176   6.998   1.515   0.419
 1115SOL    HW1 5177   6.912   1.556   0.413
 1115SOL    HW2 5178   6.980   1.421   0.418
 1116SOL     OW 5179  13.432   0.269   4.198
 1116SOL    HW1 5180  13.474   0.203   4.144
 1116SOL    HW2 5181  13.340   0.243   4.201
 1117SOL     OW 5182  11.807  11.141   3.733
 1117SOL    HW1 5183  11.849  11.194   3.665
 1117SOL    HW2 5184  11.856  11.059   3.733
 1118SOL     OW 5185   8.068  13.128  12.445
 1118SOL    HW1 5186   8.145  13.157  12.493
 1118SOL    HW2 5187   8.023  13.208  12.419
 1119SOL     OW 5188  10.757  13.034  14.862
 1119SOL    HW1 5189  10.804  13.084   0.058
 1119SOL    HW2 5190  10.701  13.098  14.820
 1120SOL     OW 5191   1.765   7.360   3.299
 1120SOL    HW1 5192   1.752   7.414   3.221
 1120SOL    HW2 5193   1.775   7.423   3.371
 1121SOL     OW 5194  12.710   9.275   5.573
 1121SOL    HW1 5195  12.702   9.325   5.491
 1121SOL    HW2 5196  12.737   9.188   5.545
 1122SOL     OW 5197  13.379   7.025   7.773
 1122SOL    HW1 5198  13.444   7.095   7.775
 1122SOL    HW2 5199  13.295   7.071   7.769
 1123SOL     OW 5200  12.582   1.029   5.516
 1123SOL    HW1 5201  12.501   0.991   5.549
 1123SOL    HW2 5202  12.561   1.122   5.503
 1124SOL     OW 5203   0.468   8.575   4.766
 1124SOL    HW1 5204   0.424   8.655   4.736
 1124SOL    HW2 5205   0.557   8.603   4.788
 1125SOL     OW 5206  13.525   8.894   5.376
 1125SOL    HW1 5207  13.442   8.853   5.402
 1125SOL    HW2 5208  13.558   8.839   5.305
 1126SOL     OW 5209   7.945  12.850  11.936
 1126SOL    HW1 5210   7.916  12.931  11.894
 1126SOL    HW2 5211   8.025  12.875  11.983
 1127SOL     OW 5212   2.451   1.870   4.108
 1127SOL    HW1 5213   2.514   1.929   4.149
 1127SOL    HW2 5214   2.490   1.783   4.121
 1128SOL     OW 5215  11.499  12.171   3.332
 1128SOL    HW1 5216  11.415  12.215   3.342
 1128SOL    HW2 5217  11.527  12.151   3.422
 1129SOL     OW 5218  14.094  14.439   5.198
 1129SOL    HW1 5219  14.092  14.457   5.104
 1129SOL    HW2 5220  14.006  14.407   5.218
 1130SOL     OW 5221   0.195  14.399   0.614
 1130SOL    HW1 5222   0.282  14.440   0.612
 1130SOL    HW2 5223   0.203  14.321   0.560
 1131SOL     OW 5224   0.229   3.773   4.643
 1131SOL    HW1 5225   0.166   3.800   4.576
 1131SOL    HW2 5226   0.201   3.818   4.723
 1132SOL     OW 5227   6.869   0.518  11.337
 1132SOL    HW1 5228   6.876   0.486  11.427
 1132SOL    HW2 5229   6.946   0.573  11.325
 1133SOL     OW 5230   2.151  12.562  14.096
 1133SOL    HW1 5231   2.129  12.469  14.103
 1133SOL    HW2 5232   2.171  12.575  14.003
 1134SOL     OW 5233  12.707   3.793   8.047
 1134SOL    HW1 5234  12.730   3.884   8.028
 1134SOL    HW2 5235  12.628   3.798   8.100
 1135SOL     OW 5236   4.842   0.639  13.886
 1135SOL    HW1 5237   4.839   0.560  13.940
 1135SOL    HW2 5238   4.881   0.705  13.943
 1136SOL     OW 5239   4.294  11.133  13.924
 1136SOL    HW1 5240   4.218  11.171  13.881
 1136SOL    HW2 5241   4.315  11.194  13.995
 1137SOL     OW 5242   1.135   0.974   2.398
 1137SOL    HW1 5243   1.144   0.909   2.468
 1137SOL    HW2 5244   1.047   0.958   2.363
 1138SOL     OW 5245  14.027   7.822  13.257
 1138SOL    HW1 5246  13.950   7.860  13.300
 1138SOL    HW2 5247  13.992   7.775  13.182
 1139SOL     OW 5248   4.595  11.599  13.327
 1139SOL    HW1 5249   4.679  11.638  13.302
 1139SOL    HW2 5250   4.588  11.521  13.273
 1140SOL     OW 5251   1.091   1.673   3.418
 1140SOL    HW1 5252   1.169   1.716   3.453
 1140SOL    HW2 5253   1.020   1.700   3.477
 1141SOL     OW 5254   2.485  10.603   8.086
 1141SOL    HW1 5255   2.490  10.609   8.181
 1141SOL    HW2 5256   2.543  10.672   8.054
 1142SOL     OW 5257   1.206   7.062  12.933
 1142SOL    HW1 5258   1.158   6.981  12.915
 1142SOL    HW2 5259   1.138   7.128  12.945
 1143SOL     OW 5260   4.830  10.173   5.931
 1143SOL    HW1 5261   4.817  10.254   5.980
 1143SOL    HW2 5262   4.746  10.128   5.936
 1144SOL     OW 5263  12.321   0.342  10.632
 1144SOL    HW1 5264  12.291   0.265  10.585
 1144SOL    HW2 5265  12.380   0.307  10.699
 1145SOL     OW 5266   6.558  10.576   7.238
 1145SOL    HW1 5267   6.517  10.653   7.199
 1145SOL    HW2 5268   6.561  10.596   7.332
 1146SOL     OW 5269   4.940   1.092   8.517
 1146SOL    HW1 5270   5.036   1.083   8.523
 1146SOL    HW2 5271   4.908   1.038   8.589
 1147SOL     OW 5272   0.808   9.706  12.120
 1147SOL    HW1 5273   0.733   9.750  12.080
 1147SOL    HW2 5274   0.771   9.625  12.157
 1148SOL     OW 5275   5.404  10.616  13.658
 1148SOL    HW1 5276   5.484  10.581  13.697
 1148SOL    HW2 5277   5.333  10.568  13.701
 1149SOL     OW 5278  13.637   8.997  11.133
 1149SOL    HW1 5279  13.641   8.909  11.169
 1149SOL    HW2 5280  13.588   9.048  11.197
 1150SOL     OW 5281   6.688  10.287   8.090
 1150SOL    HW1 5282   6.753  10.358   8.090
 1150SOL    HW2 5283   6.661  10.279   8.181
 1151SOL     OW 5284   9.699   5.268   9.678
 1151SOL    HW1 5285   9.644   5.321   9.736
 1151SOL    HW2 5286   9.774   5.243   9.732
 1152SOL     OW 5287   0.118   7.240   7.646
 1152SOL    HW1 5288   0.155   7.185   7.714
 1152SOL    HW2 5289   0.116   7.328   7.685
 1153SOL     OW 5290   6.322  12.477  14.234
 1153SOL    HW1 5291   6.312  12.445  14.145
 1153SOL    HW2 5292   6.278  12.562  14.234
 1154SOL     OW 5293  13.818   6.037  13.455
 1154SOL    HW1 5294  13.804   5.993  13.372
 1154SOL    HW2 5295  13.907   6.015  13.480
 1155SOL     OW 5296   5.172   3.124  13.197
 1155SOL    HW1 5297   5.151   3.085  13.282
 1155SOL    HW2 5298   5.216   3.205  13.219
 1156SOL     OW 5299  12.247  13.424   1.924
 1156SOL    HW1 5300  12.181  13.384   1.980
 1156SOL    HW2 5301  12.331  13.399   1.963
 1157SOL     OW 5302   8.855   4.635   1.660
 1157SOL    HW1 5303   8.807   4.718   1.653
 1157SOL    HW2 5304   8.937   4.651   1.614
 1158SOL     OW 5305  13.477  10.380   9.863
 1158SOL    HW1 5306  13.405  10.434   9.831
 1158SOL    HW2 5307  13.446  10.347   9.948
 1159SOL     OW 5308  12.802   3.353   1.862
 1159SOL    HW1 5309  12.815   3.447   1.879
 1159SOL    HW2 5310  12.886   3.313   1.886
 1160SOL     OW 5311   1.104   2.698  10.423
 1160SOL    HW1 5312   1.191   2.661  10.436
 1160SOL    HW2 5313   1.105   2.780  10.473
 1161SOL     OW 5314   1.453  10.252   7.401
 1161SOL    HW1 5315   1.401  10.216   7.473
 1161SOL    HW2 5316   1.402  10.232   7.322
 1162SOL     OW 5317   0.715   6.559   1.936
 1162SOL    HW1 5318   0.735   6.508   1.857
 1162SOL    HW2 5319   0.636   6.518   1.971
 1163SOL     OW 5320   7.056  12.896   4.089
 1163SOL    HW1 5321   7.033  12.952   4.016
 1163SOL    HW2 5322   7.104  12.954   4.149
 1164SOL     OW 5323   4.138   2.177  10.624
 1164SOL    HW1 5324   4.199   2.189  10.552
 1164SOL    HW2 5325   4.184   2.120  10.686
 1165SOL     OW 5326   2.945   2.911  14.421
 1165SOL    HW1 5327   2.854   2.885  14.424
 1165SOL    HW2 5328   2.994   2.830  14.408
 1166SOL     OW 5329   2.066   6.175   9.303
 1166SOL    HW1 5330   2.028   6.187   9.390
 1166SOL    HW2 5331   2.156   6.208   9.312
 1167SOL     OW 5332   7.064   6.125   9.268
 1167SOL    HW1 5333   7.013   6.192   9.314
 1167SOL    HW2 5334   7.151   6.162   9.259
 1168SOL     OW 5335  10.419  10.389   2.021
 1168SOL    HW1 5336  10.380  10.421   1.939
 1168SOL    HW2 5337  10.418  10.294   2.012
 1169SOL     OW 5338   0.192  10.375  11.456
 1169SOL    HW1 5339   0.152  10.347  11.373
 1169SOL    HW2 5340   0.270  10.423  11.429
 1170SOL     OW 5341   2.935   2.414  12.816
 1170SOL    HW1 5342   2.864   2.356  12.844
 1170SOL    HW2 5343   2.897   2.502  12.820
 1171SOL     OW 5344   1.083   4.523  10.356
 1171SOL    HW1 5345   1.119   4.513  10.268
 1171SOL    HW2 5346   0.993   4.490  10.349
 1172SOL     OW 5347   7.050   9.207   0.237
 1172SOL    HW1 5348   7.087   9.124   0.267
 1172SOL    HW2 5349   7.091   9.273   0.293
 1173SOL     OW 5350   3.281   1.785   7.026
 1173SOL    HW1 5351   3.371   1.772   7.055
 1173SOL    HW2 5352   3.285   1.779   6.931
 1174SOL     OW 5353   0.428   0.566  13.290
 1174SOL    HW1 5354   0.431   0.538  13.198
 1174SOL    HW2 5355   0.487   0.641  13.294
 1175SOL     OW 5356  12.466  12.319   8.956
 1175SOL    HW1 5357  12.516  12.240   8.936
 1175SOL    HW2 5358  12.480  12.334   9.049
 1176SOL     OW 5359  10.841  12.308  11.534
 1176SOL    HW1 5360  10.802  12.373  11.592
 1176SOL    HW2 5361  10.923  12.282  11.578
 1177SOL     OW 5362   6.282   4.058  14.211
 1177SOL    HW1 5363   6.236   4.023  14.287
 1177SOL    HW2 5364   6.374   4.055  14.236
 1178SOL     OW 5365   1.957   2.671   2.676
 1178SOL    HW1 5366   1.896   2.706   2.741
 1178SOL    HW2 5367   1.902   2.635   2.607
 1179SOL     OW 5368   0.525   2.722   8.314
 1179SOL    HW1 5369   0.483   2.655   8.261
 1179SOL    HW2 5370   0.581   2.770   8.253
 1180SOL     OW 5371   1.411   4.954   6.394
 1180SOL    HW1 5372   1.355   4.877   6.401
 1180SOL    HW2 5373   1.364   5.013   6.335
 1181SOL     OW 5374  12.364   7.309   5.776
 1181SOL    HW1 5375  12.345   7.398   5.805
 1181SOL    HW2 5376  12.282   7.280   5.736
 1182SOL     OW 5377  13.580   1.972  11.714
 1182SOL    HW1 5378  13.543   1.935  11.634
 1182SOL    HW2 5379  13.656   2.022  11.685
 1183SOL     OW 5380   0.959  11.769   9.388
 1183SOL    HW1 5381   0.980  11.798   9.299
 1183SOL    HW2 5382   1.021  11.699   9.406
 1184SOL     OW 5383  14.747  10.505  14.673
 1184SOL    HW1 5384  14.681  10.437  14.659
 1184SOL    HW2 5385  14.804  10.500  14.597
 1185SOL     OW 5386  12.705  13.785  10.095
 1185SOL    HW1 5387  12.661  13.728  10.032
 1185SOL    HW2 5388  12.783  13.816  10.050
 1186SOL     OW 5389   5.294  12.699  13.787
 1186SOL    HW1 5390   5.280  12.605  13.782
 1186SOL    HW2 5391   5.286  12.729  13.696
 1187SOL     OW 5392  11.911  12.425   0.428
 1187SOL    HW1 5393  11.885  12.464   0.512
 1187SOL    HW2 5394  11.836  12.440   0.371
 1188SOL     OW 5395   1.123   5.104   2.450
 1188SOL    HW1 5396   1.152   5.100   2.541
 1188SOL    HW2 5397   1.156   5.188   2.418
 1189SOL     OW 5398   1.453   6.556   5.029
 1189SOL    HW1 5399   1.373   6.504   5.022
 1189SOL    HW2 5400   1.454   6.588   5.119
 1190SOL     OW 5401   3.670  11.528   2.554
 1190SOL    HW1 5402   3.621  11.525   2.636
 1190SOL    HW2 5403   3.605  11.518   2.485
 1191SOL     OW 5404  14.550  14.350   9.395
 1191SOL    HW1 5405  14.543  14.402   9.315
 1191SOL    HW2 5406  14.606  14.401   9.453
 1192SOL     OW 5407   5.922   5.564   9.217
 1192SOL    HW1 5408   5.843   5.608   9.185
 1192SOL    HW2 5409   5.988   5.582   9.151
 1193SOL     OW 5410  10.524   9.717  10.674
 1193SOL    HW1 5411  10.576   9.640  10.695
 1193SOL    HW2 5412  10.525   9.769  10.754
 1194SOL     OW 5413  10.260  12.937   4.167
 1194SOL    HW1 5414  10.288  12.901   4.251
 1194SOL    HW2 5415  10.213  12.866   4.124
 1195SOL     OW 5416   0.499   8.170   4.242
 1195SOL    HW1 5417   0.467   8.158   4.153
 1195SOL    HW2 5418   0.422   8.160   4.298
 1196SOL     OW 5419   3.968   1.228   8.864
 1196SOL    HW1 5420   3.988   1.149   8.914
 1196SOL    HW2 5421   4.053   1.273   8.856
 1197SOL     OW 5422   8.898  11.921   8.063
 1197SOL    HW1 5423   8.817  11.888   8.102
 1197SOL    HW2 5424   8.960  11.924   8.135
 1198SOL     OW 5425   4.997   3.530   0.922
 1198SOL    HW1 5426   5.037   3.459   0.972
 1198SOL    HW2 5427   4.905   3.529   0.949
 1199SOL     OW 5428  11.357  13.542   8.748
 1199SOL    HW1 5429  11.308  13.562   8.828
 1199SOL    HW2 5430  11.392  13.626   8.719
 1200SOL     OW 5431   8.660   3.045   9.001
 1200SOL    HW1 5432   8.621   2.969   8.958
 1200SOL    HW2 5433   8.674   3.108   8.931
 1201SOL     OW 5434  12.814   8.015  12.750
 1201SOL    HW1 5435  12.867   7.983  12.677
 1201SOL    HW2 5436  12.876   8.027  12.822
 1202SOL     OW 5437  10.629   7.395   7.849
 1202SOL    HW1 5438  10.557   7.452   7.874
 1202SOL    HW2 5439  10.659   7.356   7.931
 1203SOL     OW 5440   8.192   5.405  14.188
 1203SOL    HW1 5441   8.172   5.499  14.187
 1203SOL    HW2 5442   8.107   5.362  14.176
 1204SOL     OW 5443   2.366   5.367  10.041
 1204SOL    HW1 5444   2.323   5.332  10.119
 1204SOL    HW2 5445   2.355   5.462  10.048
 1205SOL     OW 5446   7.487   4.328  12.359
 1205SOL    HW1 5447   7.466   4.323  12.452
 1205SOL    HW2 5448   7.408   4.296  12.315
 1206SOL     OW 5449  10.298  11.993  14.611
 1206SOL    HW1 5450  10.375  12.034  14.650
 1206SOL    HW2 5451  10.235  11.988  14.683
 1207SOL     OW 5452  10.889   2.350   8.011
 1207SOL    HW1 5453  10.861   2.406   8.084
 1207SOL    HW2 5454  10.904   2.265   8.051
 1208SOL     OW 5455   0.006   7.814   7.683
 1208SOL    HW1 5456  14.849   7.726   7.707
 1208SOL    HW2 5457   0.014   7.860   7.766
 1209SOL     OW 5458   1.443   7.564   7.308
 1209SOL    HW1 5459   1.526   7.521   7.290
 1209SOL    HW2 5460   1.377   7.505   7.272
 1210SOL     OW 5461   2.243  12.288   2.442
 1210SOL    HW1 5462   2.286  12.373   2.428
 1210SOL    HW2 5463   2.279  12.232   2.373
 1211SOL     OW 5464  14.313   5.286   1.354
 1211SOL    HW1 5465  14.387   5.235   1.322
 1211SOL    HW2 5466  14.266   5.312   1.275
 1212SOL     OW 5467   0.506   1.108   7.681
 1212SOL    HW1 5468   0.492   1.073   7.593
 1212SOL    HW2 5469   0.601   1.122   7.686
 1213SOL     OW 5470   6.885   5.248   8.547
 1213SOL    HW1 5471   6.862   5.159   8.522
 1213SOL    HW2 5472   6.906   5.242   8.641
 1214SOL     OW 5473   0.151   3.240   5.810
 1214SOL    HW1 5474   0.119   3.206   5.894
 1214SOL    HW2 5475   0.078   3.293   5.776
 1215SOL     OW 5476   6.127  13.035   0.182
 1215SOL    HW1 5477   6.121  12.997   0.270
 1215SOL    HW2 5478   6.150  13.127   0.197
 1216SOL     OW 5479  13.822   3.065   4.643
 1216SOL    HW1 5480  13.774   2.985   4.620
 1216SOL    HW2 5481  13.767   3.108   4.708
 1217SOL     OW 5482   3.137   6.623   5.115
 1217SOL    HW1 5483   3.108   6.705   5.154
 1217SOL    HW2 5484   3.084   6.614   5.035
 1218SOL     OW 5485   7.533   9.026   2.952
 1218SOL    HW1 5486   7.521   9.063   2.864
 1218SOL    HW2 5487   7.526   8.931   2.939
 1219SOL     OW 5488  14.064  14.336  13.164
 1219SOL    HW1 5489  14.011  14.293  13.231
 1219SOL    HW2 5490  14.145  14.359  13.209
 1220SOL     OW 5491   4.309  10.239   7.348
 1220SOL    HW1 5492   4.282  10.163   7.297
 1220SOL    HW2 5493   4.404  10.243   7.338
 1221SOL     OW 5494  14.801  11.360  14.486
 1221SOL    HW1 5495  14.865  11.390  14.421
 1221SOL    HW2 5496  14.819  11.266  14.497
 1222SOL     OW 5497   1.935   2.620   4.083
 1222SOL    HW1 5498   1.935   2.663   3.997
 1222SOL    HW2 5499   1.879   2.543   4.072
 1223SOL     OW 5500   7.434   9.742   4.280
 1223SOL    HW1 5501   7.430   9.662   4.228
 1223SOL    HW2 5502   7.512   9.731   4.336
 1224SOL     OW 5503   6.755   7.795   9.454
 1224SOL    HW1 5504   6.671   7.749   9.458
 1224SOL    HW2 5505   6.782   7.787   9.363
 1225SOL     OW 5506   4.268   5.628  13.709
 1225SOL    HW1 5507   4.311   5.543  13.701
 1225SOL    HW2 5508   4.297   5.677  13.632
 1226SOL     OW 5509   3.914   2.121  11.335
 1226SOL    HW1 5510   3.991   2.170  11.303
 1226SOL    HW2 5511   3.841   2.182  11.323
 1227SOL     OW 5512   5.662   9.343   6.937
 1227SOL    HW1 5513   5.706   9.374   6.857
 1227SOL    HW2 5514   5.596   9.281   6.905
 1228SOL     OW 5515   8.356  14.683   6.837
 1228SOL    HW1 5516   8.430  14.665   6.780
 1228SOL    HW2 5517   8.305  14.750   6.791
 1229SOL     OW 5518  14.483   8.328  12.551
 1229SOL    HW1 5519  14.459   8.290  12.636
 1229SOL    HW2 5520  14.405   8.376  12.523
 1230SOL     OW 5521   7.522   1.658   1.771
 1230SOL    HW1 5522   7.550   1.715   1.843
 1230SOL    HW2 5523   7.432   1.633   1.794
 1231SOL     OW 5524   5.439   5.158   2.180
 1231SOL    HW1 5525   5.369   5.198   2.231
 1231SOL    HW2 5526   5.414   5.066   2.173
 1232SOL     OW 5527   5.718   3.629   1.120
 1232SOL    HW1 5528   5.752   3.684   1.049
 1232SOL    HW2 5529   5.709   3.689   1.194
 1233SOL     OW 5530   6.393   8.519   7.295
 1233SOL    HW1 5531   6.470   8.516   7.238
 1233SOL    HW2 5532   6.319   8.521   7.234
 1234SOL     OW 5533  11.690   4.470   1.278
 1234SOL    HW1 5534  11.674   4.533   1.208
 1234SOL    HW2 5535  11.785   4.456   1.278
 1235SOL     OW 5536   0.238  12.920   1.431
 1235SOL    HW1 5537   0.243  12.905   1.337
 1235SOL    HW2 5538   0.159  12.973   1.443
 1236SOL     OW 5539   0.033   0.722  10.363
 1236SOL    HW1 5540   0.032   0.793  10.299
 1236SOL    HW2 5541   0.110   0.740  10.418
 1237SOL     OW 5542   9.522  10.921   1.810
 1237SOL    HW1 5543   9.586  10.885   1.749
 1237SOL    HW2 5544   9.569  10.927   1.893
 1238SOL     OW 5545   3.705   0.834   8.103
 1238SOL    HW1 5546   3.780   0.817   8.046
 1238SOL    HW2 5547   3.719   0.777   8.179
 1239SOL     OW 5548   3.837  11.300   4.335
 1239SOL    HW1 5549   3.911  11.257   4.291
 1239SOL    HW2 5550   3.765  11.293   4.272
 1240SOL     OW 5551   9.612   1.501   3.418
 1240SOL    HW1 5552   9.592   1.560   3.491
 1240SOL    HW2 5553   9.597   1.554   3.340
 1241SOL     OW 5554   0.139   0.331  12.698
 1241SOL    HW1 5555   0.193   0.262  12.660
 1241SOL    HW2 5556   0.201   0.385  12.747
 1242SOL     OW 5557   1.211  13.467   8.277
 1242SOL    HW1 5558   1.209  13.553   8.318
 1242SOL    HW2 5559   1.243  13.484   8.188
 1243SOL     OW 5560   8.251   5.395   0.851
 1243SOL    HW1 5561   8.201   5.403   0.769
 1243SOL    HW2 5562   8.213   5.320   0.896
 1244SOL     OW 5563  10.458   6.490  12.235
 1244SOL    HW1 5564  10.417   6.423  12.290
 1244SOL    HW2 5565  10.544   6.504  12.274
 1245SOL     OW 5566   7.586  12.388  12.664
 1245SOL    HW1 5567   7.641  12.364  12.738
 1245SOL    HW2 5568   7.514  12.438  12.702
 1246SOL     OW 5569   1.520  12.821  11.650
 1246SOL    HW1 5570   1.577  12.887  11.689
 1246SOL    HW2 5571   1.516  12.845  11.557
 1247SOL     OW 5572   7.157   1.643  14.747
 1247SOL    HW1 5573   7.120   1.685  14.824
 1247SOL    HW2 5574   7.223   1.583  14.782
 1248SOL     OW 5575  11.459  12.868   5.838
 1248SOL    HW1 5576  11.531  12.927   5.861
 1248SOL    HW2 5577  11.498  12.780   5.841
 1249SOL     OW 5578  14.246  13.587  10.439
 1249SOL    HW1 5579  14.305  13.607  10.511
 1249SOL    HW2 5580  14.165  13.634  10.461
 1250SOL     OW 5581   0.984   7.064   9.803
 1250SOL    HW1 5582   0.972   7.158   9.813
 1250SOL    HW2 5583   1.057   7.042   9.862
 1251SOL     OW 5584   1.683  13.842   0.499
 1251SOL    HW1 5585   1.616  13.840   0.430
 1251SOL    HW2 5586   1.748  13.904   0.467
 1252SOL     OW 5587  10.129   9.984  10.335
 1252SOL    HW1 5588  10.220   9.969  10.309
 1252SOL    HW2 5589  10.083  10.002  10.253
 1253SOL     OW 5590   3.012   3.185  13.031
 1253SOL    HW1 5591   3.052   3.099  13.023
 1253SOL    HW2 5592   3.067   3.242  12.976
 1254SOL     OW 5593   1.040   6.134   9.999
 1254SOL    HW1 5594   0.962   6.085  10.025
 1254SOL    HW2 5595   1.052   6.199  10.067
 1255SOL     OW 5596   5.696  12.837   7.326
 1255SOL    HW1 5597   5.697  12.932   7.315
 1255SOL    HW2 5598   5.615  12.809   7.285
 1256SOL     OW 5599   8.217  12.681  12.968
 1256SOL    HW1 5600   8.241  12.758  12.915
 1256SOL    HW2 5601   8.298  12.630  12.973
 1257SOL     OW 5602   2.352   1.269   7.335
 1257SOL    HW1 5603   2.322   1.309   7.254
 1257SOL    HW2 5604   2.348   1.339   7.400
 1258SOL     OW 5605  11.720   0.561  11.271
 1258SOL    HW1 5606  11.731   0.608  11.188
 1258SOL    HW2 5607  11.724   0.629  11.338
 1259SOL     OW 5608  11.405   9.869   9.319
 1259SOL    HW1 5609  11.381   9.778   9.337
 1259SOL    HW2 5610  11.440   9.867   9.230
 1260SOL     OW 5611   1.128   6.929   9.622
 1260SOL    HW1 5612   1.151   6.856   9.679
 1260SOL    HW2 5613   1.063   6.979   9.673
 1261SOL     OW 5614  11.689  12.164  11.257
 1261SOL    HW1 5615  11.597  12.187  11.268
 1261SOL    HW2 5616  11.735  12.215  11.323
 1262SOL     OW 5617   4.148   4.903   4.688
 1262SOL    HW1 5618   4.107   4.885   4.604
 1262SOL    HW2 5619   4.124   4.994   4.707
 1263SOL     OW 5620   4.813  13.520   1.724
 1263SOL    HW1 5621   4.823  13.598   1.669
 1263SOL    HW2 5622   4.728  13.484   1.699
 1264SOL     OW 5623  11.272   0.737   2.952
 1264SOL    HW1 5624  11.257   0.661   2.896
 1264SOL    HW2 5625  11.254   0.812   2.895
 1265SOL     OW 5626   0.326   6.361   6.084
 1265SOL    HW1 5627   0.330   6.401   6.171
 1265SOL    HW2 5628   0.374   6.422   6.028
 1266SOL     OW 5629   8.524   9.407   9.672
 1266SOL    HW1 5630   8.444   9.356   9.687
 1266SOL    HW2 5631   8.493   9.498   9.667
 1267SOL     OW 5632   2.407  12.739  14.001
 1267SOL    HW1 5633   2.319  12.777  14.003
 1267SOL    HW2 5634   2.460  12.804  13.953
 1268SOL     OW 5635  13.628   5.512   7.077
 1268SOL    HW1 5636  13.552   5.536   7.131
 1268SOL    HW2 5637  13.704   5.526   7.133
 1269SOL     OW 5638   1.554   9.905  10.958
 1269SOL    HW1 5639   1.556   9.812  10.939
 1269SOL    HW2 5640   1.625   9.918  11.021
 1270SOL     OW 5641   5.438  11.878  10.391
 1270SOL    HW1 5642   5.407  11.957  10.348
 1270SOL    HW2 5643   5.499  11.908  10.458
 1271SOL     OW 5644  10.576   4.312   4.354
 1271SOL    HW1 5645  10.518   4.384   4.376
 1271SOL    HW2 5646  10.664   4.346   4.369
 1272SOL     OW 5647  14.826   6.492  10.329
 1272SOL    HW1 5648  14.800   6.399  10.328
 1272SOL    HW2 5649   0.049   6.490  10.330
 1273SOL     OW 5650   9.082   9.085  13.178
 1273SOL    HW1 5651   9.101   9.022  13.109
 1273SOL    HW2 5652   9.158   9.143  13.180
 1274SOL     OW 5653  12.732   8.041   4.504
 1274SOL    HW1 5654  12.761   8.129   4.481
 1274SOL    HW2 5655  12.763   7.986   4.432
 1275SOL     OW 5656   0.109   4.142   2.601
 1275SOL    HW1 5657   0.151   4.217   2.560
 1275SOL    HW2 5658   0.043   4.179   2.659
 1276SOL     OW 5659   7.473   9.933   7.545
 1276SOL    HW1 5660   7.467   9.983   7.463
 1276SOL    HW2 5661   7.563   9.902   7.547
 1277SOL     OW 5662   2.167   0.817   5.620
 1277SOL    HW1 5663   2.150   0.832   5.527
 1277SOL    HW2 5664   2.229   0.744   5.622
 1278SOL     OW 5665   5.599   1.564  14.069
 1278SOL    HW1 5666   5.653   1.510  14.126
 1278SOL    HW2 5667   5.660   1.625  14.028
 1279SOL     OW 5668   9.714   2.020   7.205
 1279SOL    HW1 5669   9.766   2.096   7.232
 1279SOL    HW2 5670   9.625   2.055   7.196
 1280SOL     OW 5671   3.927   3.439   7.970
 1280SOL    HW1 5672   3.923   3.525   8.012
 1280SOL    HW2 5673   3.870   3.383   8.023
 1281SOL     OW 5674   3.532   4.710  14.845
 1281SOL    HW1 5675   3.531   4.786  14.787
 1281SOL    HW2 5676   3.568   4.639  14.791
 1282SOL     OW 5677   0.651  12.901   1.527
 1282SOL    HW1 5678   0.617  12.850   1.601
 1282SOL    HW2 5679   0.585  12.968   1.513
 1283SOL     OW 5680  14.795   6.048   1.851
 1283SOL    HW1 5681  14.780   6.015   1.940
 1283SOL    HW2 5682  14.776   5.973   1.794
 1284SOL     OW 5683  12.500   7.794  12.967
 1284SOL    HW1 5684  12.510   7.866  13.029
 1284SOL    HW2 5685  12.551   7.722  13.005
 1285SOL     OW 5686  11.937   3.645  13.051
 1285SOL    HW1 5687  11.928   3.610  13.139
 1285SOL    HW2 5688  11.988   3.725  13.061
 1286SOL     OW 5689   2.615  14.275   0.500
 1286SOL    HW1 5690   2.560  14.298   0.574
 1286SOL    HW2 5691   2.615  14.179   0.499
 1287SOL     OW 5692  10.951   7.871  12.820
 1287SOL    HW1 5693  11.033   7.910  12.791
 1287SOL    HW2 5694  10.903   7.852  12.739
 1288SOL     OW 5695   8.806  14.768   0.932
 1288SOL    HW1 5696   8.745  14.701   0.962
 1288SOL    HW2 5697   8.887  14.750   0.981
 1289SOL     OW 5698   5.806  11.922  11.666
 1289SOL    HW1 5699   5.817  11.835  11.705
 1289SOL    HW2 5700   5.765  11.905  11.581
 1290SOL     OW 5701   1.012   5.342   6.586
 1290SOL    HW1 5702   0.993   5.248   6.585
 1290SOL    HW2 5703   1.068   5.354   6.663
 1291SOL     OW 5704  12.356  12.479   7.164
 1291SOL    HW1 5705  12.446  12.468   7.194
 1291SOL    HW2 5706  12.329  12.391   7.138
 1292SOL     OW 5707  14.831   2.385  11.403
 1292SOL    HW1 5708  14.816   2.369  11.496
 1292SOL    HW2 5709  14.754   2.347  11.360
 1293SOL     OW 5710   7.301  12.043   0.314
 1293SOL    HW1 5711   7.395  12.034   0.328
 1293SOL    HW2 5712   7.276  12.120   0.366
 1294SOL     OW 5713  12.129  13.368  10.652
 1294SOL    HW1 5714  12.177  13.328  10.579
 1294SOL    HW2 5715  12.075  13.297  10.686
 1295SOL     OW 5716   5.736  12.064   3.042
 1295SOL    HW1 5717   5.770  12.076   2.953
 1295SOL    HW2 5718   5.649  12.106   3.041
 1296SOL     OW 5719   4.563   1.236   2.523
 1296SOL    HW1 5720   4.475   1.228   2.486
 1296SOL    HW2 5721   4.621   1.238   2.447
 1297SOL     OW 5722   8.535   5.028   6.998
 1297SOL    HW1 5723   8.451   5.024   6.952
 1297SOL    HW2 5724   8.568   4.938   6.995
 1298SOL     OW 5725  14.496   8.028   4.023
 1298SOL    HW1 5726  14.490   7.949   4.077
 1298SOL    HW2 5727  14.443   8.009   3.946
 1299SOL     OW 5728   8.877   3.566  14.676
 1299SOL    HW1 5729   8.865   3.661  14.677
 1299SOL    HW2 5730   8.881   3.544  14.582
 1300SOL     OW 5731  13.385  11.503   4.099
 1300SOL    HW1 5732  13.294  11.476   4.099
 1300SOL    HW2 5733  13.384  11.590   4.141
 1301SOL     OW 5734  10.664  10.683  14.510
 1301SOL    HW1 5735  10.607  10.760  14.504
 1301SOL    HW2 5736  10.745  10.716  14.549
 1302SOL     OW 5737   2.348   8.520   7.585
 1302SOL    HW1 5738   2.364   8.446   7.643
 1302SOL    HW2 5739   2.435   8.546   7.555
 1303SOL     OW 5740   0.337   5.350   7.701
 1303SOL    HW1 5741   0.331   5.396   7.785
 1303SOL    HW2 5742   0.329   5.257   7.724
 1304SOL     OW 5743   8.311   4.450  11.014
 1304SOL    HW1 5744   8.321   4.356  11.029
 1304SOL    HW2 5745   8.400   4.483  11.009
 1305SOL     OW 5746   7.513   0.337   7.718
 1305SOL    HW1 5747   7.454   0.408   7.693
 1305SOL    HW2 5748   7.534   0.354   7.809
 1306SOL     OW 5749   6.004  12.486  10.244
 1306SOL    HW1 5750   5.973  12.574  10.224
 1306SOL    HW2 5751   5.938  12.428  10.207
 1307SOL     OW 5752   3.364   7.658  11.611
 1307SOL    HW1 5753   3.401   7.630  11.527
 1307SOL    HW2 5754   3.438   7.655  11.672
 1308SOL     OW 5755  13.048   1.652   9.804
 1308SOL    HW1 5756  12.961   1.626   9.833
 1308SOL    HW2 5757  13.053   1.624   9.713
 1309SOL     OW 5758   8.248   9.145   1.722
 1309SOL    HW1 5759   8.292   9.209   1.666
 1309SOL    HW2 5760   8.214   9.079   1.661
 1310SOL     OW 5761   0.498   8.126   7.196
 1310SOL    HW1 5762   0.402   8.120   7.199
 1310SOL    HW2 5763   0.526   8.091   7.280
 1311SOL     OW 5764   8.050  13.966  10.511
 1311SOL    HW1 5765   7.961  13.934  10.523
 1311SOL    HW2 5766   8.040  14.047  10.460
 1312SOL     OW 5767  14.595   3.526   7.882
 1312SOL    HW1 5768  14.633   3.495   7.964
 1312SOL    HW2 5769  14.602   3.451   7.823
 1313SOL     OW 5770  13.084  12.708  10.675
 1313SOL    HW1 5771  13.151  12.761  10.720
 1313SOL    HW2 5772  13.027  12.678  10.745
 1314SOL     OW 5773   1.387  12.103   0.905
 1314SOL    HW1 5774   1.383  12.097   1.000
 1314SOL    HW2 5775   1.469  12.058   0.882
 1315SOL     OW 5776   5.436   8.597  11.223
 1315SOL    HW1 5777   5.444   8.511  11.263
 1315SOL    HW2 5778   5.345   8.602  11.194
 1316SOL     OW 5779  12.423   2.158   6.394
 1316SOL    HW1 5780  12.344   2.104   6.392
 1316SOL    HW2 5781  12.488   2.105   6.440
 1317SOL     OW 5782  12.197   9.974   0.716
 1317SOL    HW1 5783  12.169   9.927   0.637
 1317SOL    HW2 5784  12.171   9.916   0.788
 1318SOL     OW 5785  11.318   0.124  13.127
 1318SOL    HW1 5786  11.272   0.134  13.044
 1318SOL    HW2 5787  11.386   0.191  13.126
 1319SOL     OW 5788  11.595  12.077  10.714
 1319SOL    HW1 5789  11.586  12.040  10.802
 1319SOL    HW2 5790  11.560  12.009  10.656
 1320SOL     OW 5791   8.158   1.711  10.107
 1320SOL    HW1 5792   8.116   1.785  10.062
 1320SOL    HW2 5793   8.149   1.638  10.046
 1321SOL     OW 5794   9.086   3.139   8.296
 1321SOL    HW1 5795   9.004   3.105   8.260
 1321SOL    HW2 5796   9.115   3.070   8.356
 1322SOL     OW 5797   2.103   6.480   6.204
 1322SOL    HW1 5798   2.060   6.424   6.139
 1322SOL    HW2 5799   2.179   6.515   6.158
 1323SOL     OW 5800  12.056   1.183   8.371
 1323SOL    HW1 5801  12.088   1.097   8.396
 1323SOL    HW2 5802  11.971   1.191   8.415
 1324SOL     OW 5803   7.676   0.369  11.577
 1324SOL    HW1 5804   7.591   0.396  11.612
 1324SOL    HW2 5805   7.725   0.338  11.653
 1325SOL     OW 5806   6.933   3.432  11.170
 1325SOL    HW1 5807   6.886   3.451  11.251
 1325SOL    HW2 5808   6.971   3.516  11.145
 1326SOL     OW 5809  14.476   8.123  13.512
 1326SOL    HW1 5810  14.530   8.080  13.579
 1326SOL    HW2 5811  14.430   8.052  13.468
 1327SOL     OW 5812  11.008   2.287   3.234
 1327SOL    HW1 5813  10.950   2.352   3.195
 1327SOL    HW2 5814  11.061   2.336   3.297
 1328SOL     OW 5815   3.033  10.617   9.142
 1328SOL    HW1 5816   3.007  10.526   9.128
 1328SOL    HW2 5817   3.115  10.611   9.190
 1329SOL     OW 5818   6.438  12.211  11.282
 1329SOL    HW1 5819   6.416  12.291  11.233
 1329SOL    HW2 5820   6.379  12.145  11.246
 1330SOL     OW 5821   3.937   7.438  13.320
 1330SOL    HW1 5822   4.007   7.487  13.277
 1330SOL    HW2 5823   3.979   7.396  13.394
 1331SOL     OW 5824   4.424   4.421   0.834
 1331SOL    HW1 5825   4.330   4.427   0.848
 1331SOL    HW2 5826   4.433   4.384   0.746
 1332SOL     OW 5827   7.255   5.116   8.694
 1332SOL    HW1 5828   7.272   5.208   8.715
 1332SOL    HW2 5829   7.171   5.097   8.736
 1333SOL     OW 5830   8.883   8.506   2.724
 1333SOL    HW1 5831   8.866   8.501   2.629
 1333SOL    HW2 5832   8.969   8.467   2.735
 1334SOL     OW 5833   2.983   1.019  12.202
 1334SOL    HW1 5834   2.909   1.027  12.141
 1334SOL    HW2 5835   2.960   0.945  12.258
 1335SOL     OW 5836   5.467  14.247  14.705
 1335SOL    HW1 5837   5.476  14.286  14.618
 1335SOL    HW2 5838   5.436  14.158  14.689
 1336SOL     OW 5839   1.424  14.100   3.931
 1336SOL    HW1 5840   1.424  14.014   3.974
 1336SOL    HW2 5841   1.421  14.079   3.838
 1337SOL     OW 5842   9.950   7.278  12.969
 1337SOL    HW1 5843   9.957   7.189  12.937
 1337SOL    HW2 5844   9.915   7.328  12.895
 1338SOL     OW 5845   6.502  11.808   6.895
 1338SOL    HW1 5846   6.425  11.783   6.843
 1338SOL    HW2 5847   6.466  11.862   6.965
 1339SOL     OW 5848   6.842  10.791   7.481
 1339SOL    HW1 5849   6.843  10.880   7.443
 1339SOL    HW2 5850   6.930  10.779   7.514
 1340SOL     OW 5851   8.951   7.218   1.098
 1340SOL    HW1 5852   8.900   7.140   1.076
 1340SOL    HW2 5853   8.892   7.270   1.153
 1341SOL     OW 5854   7.429  10.913   8.074
 1341SOL    HW1 5855   7.466  10.965   8.002
 1341SOL    HW2 5856   7.477  10.830   8.069
 1342SOL     OW 5857   7.040   9.680   7.178
 1342SOL    HW1 5858   7.051   9.770   7.208
 1342SOL    HW2 5859   7.093   9.627   7.238
 1343SOL     OW 5860   9.733  11.801   0.525
 1343SOL    HW1 5861   9.756  11.749   0.447
 1343SOL    HW2 5862   9.796  11.873   0.524
 1344SOL     OW 5863   4.915   2.545   4.033
 1344SOL    HW1 5864   5.011   2.553   4.027
 1344SOL    HW2 5865   4.893   2.483   3.963
 1345SOL     OW 5866  14.172   7.881   8.493
 1345SOL    HW1 5867  14.242   7.919   8.546
 1345SOL    HW2 5868  14.211   7.803   8.454
 1346SOL     OW 5869   6.419   3.459   0.171
 1346SOL    HW1 5870   6.452   3.484   0.257
 1346SOL    HW2 5871   6.484   3.398   0.137
 1347SOL     OW 5872   7.679   0.225   7.459
 1347SOL    HW1 5873   7.631   0.149   7.426
 1347SOL    HW2 5874   7.738   0.189   7.525
 1348SOL     OW 5875  11.806   0.192  13.313
 1348SOL    HW1 5876  11.773   0.278  13.286
 1348SOL    HW2 5877  11.824   0.147  13.230
 1349SOL     OW 5878   4.137  11.640   5.407
 1349SOL    HW1 5879   4.148  11.554   5.449
 1349SOL    HW2 5880   4.135  11.702   5.480
 1350SOL     OW 5881   1.148   4.847   3.420
 1350SOL    HW1 5882   1.079   4.833   3.485
 1350SOL    HW2 5883   1.162   4.761   3.381
 1351SOL     OW 5884  10.442  14.706   8.523
 1351SOL    HW1 5885  10.431  14.623   8.568
 1351SOL    HW2 5886  10.536  14.711   8.504
 1352SOL     OW 5887  11.792  10.281   2.330
 1352SOL    HW1 5888  11.865  10.237   2.373
 1352SOL    HW2 5889  11.796  10.252   2.239
 1353SOL     OW 5890   4.168  13.209   1.277
 1353SOL    HW1 5891   4.101  13.277   1.264
 1353SOL    HW2 5892   4.135  13.133   1.229
 1354SOL     OW 5893   6.821   5.187   1.670
 1354SOL    HW1 5894   6.863   5.124   1.612
 1354SOL    HW2 5895   6.798   5.261   1.614
 1355SOL     OW 5896   3.374   7.126  13.315
 1355SOL    HW1 5897   3.368   7.111  13.221
 1355SOL    HW2 5898   3.392   7.220  13.323
 1356SOL     OW 5899   7.575  11.178  11.881
 1356SOL    HW1 5900   7.502  11.127  11.914
 1356SOL    HW2 5901   7.544  11.269  11.882
 1357SOL     OW 5902   9.751  10.365   5.865
 1357SOL    HW1 5903   9.844  10.373   5.842
 1357SOL    HW2 5904   9.751  10.319   5.948
 1358SOL     OW 5905   6.606  13.593   0.527
 1358SOL    HW1 5906   6.626  13.505   0.559
 1358SOL    HW2 5907   6.684  13.620   0.479
 1359SOL     OW 5908  10.943   8.352   0.933
 1359SOL    HW1 5909  11.014   8.337   0.995
 1359SOL    HW2 5910  10.971   8.308   0.852
 1360SOL     OW 5911   1.911  14.767  13.545
 1360SOL    HW1 5912   1.853  14.744  13.471
 1360SOL    HW2 5913   1.859  14.829  13.597
 1361SOL     OW 5914  10.302   3.537   1.626
 1361SOL    HW1 5915  10.395   3.560   1.617
 1361SOL    HW2 5916  10.277   3.503   1.540
 1362SOL     OW 5917   8.664   2.071  14.102
 1362SOL    HW1 5918   8.709   2.153  14.125
 1362SOL    HW2 5919   8.586   2.100  14.055
 1363SOL     OW 5920   7.522   8.913   1.058
 1363SOL    HW1 5921   7.521   8.822   1.029
 1363SOL    HW2 5922   7.614   8.938   1.057
 1364SOL     OW 5923   5.906   1.089   1.011
 1364SOL    HW1 5924   5.949   1.064   0.930
 1364SOL    HW2 5925   5.834   1.026   1.020
 1365SOL     OW 5926   6.081   3.849  11.417
 1365SOL    HW1 5927   6.004   3.866  11.472
 1365SOL    HW2 5928   6.155   3.874  11.472
 1366SOL     OW 5929   1.047   1.914   4.809
 1366SOL    HW1 5930   1.130   1.960   4.796
 1366SOL    HW2 5931   1.053   1.837   4.753
 1367SOL     OW 5932   0.907   9.071  11.344
 1367SOL    HW1 5933   0.996   9.075  11.310
 1367SOL    HW2 5934   0.911   9.118  11.427
 1368SOL     OW 5935  13.983   1.925   0.084
 1368SOL    HW1 5936  14.074   1.948   0.102
 1368SOL    HW2 5937  13.935   2.007   0.095
 1369SOL     OW 5938   4.258   2.358   1.729
 1369SOL    HW1 5939   4.254   2.385   1.637
 1369SOL    HW2 5940   4.346   2.323   1.740
 1370SOL     OW 5941   6.091   6.655   1.106
 1370SOL    HW1 5942   6.067   6.572   1.064
 1370SOL    HW2 5943   6.031   6.719   1.069
 1371SOL     OW 5944   1.514   2.700   5.547
 1371SOL    HW1 5945   1.427   2.662   5.561
 1371SOL    HW2 5946   1.548   2.653   5.471
 1372SOL     OW 5947  10.816   8.485   4.158
 1372SOL    HW1 5948  10.859   8.559   4.114
 1372SOL    HW2 5949  10.726   8.515   4.173
 1373SOL     OW 5950  12.712  10.469  13.703
 1373SOL    HW1 5951  12.770  10.393  13.705
 1373SOL    HW2 5952  12.752  10.528  13.639
 1374SOL     OW 5953  13.910  11.112   5.991
 1374SOL    HW1 5954  13.852  11.180   6.026
 1374SOL    HW2 5955  13.860  11.030   6.002
 1375SOL     OW 5956  12.721   8.437   4.072
 1375SOL    HW1 5957  12.774   8.506   4.111
 1375SOL    HW2 5958  12.708   8.374   4.143
 1376SOL     OW 5959   3.236   6.352   8.104
 1376SOL    HW1 5960   3.229   6.304   8.186
 1376SOL    HW2 5961   3.314   6.316   8.062
 1377SOL     OW 5962  12.753  12.035  10.887
 1377SOL    HW1 5963  12.803  12.115  10.897
 1377SOL    HW2 5964  12.728  12.033  10.795
 1378SOL     OW 5965   7.979   1.718  13.674
 1378SOL    HW1 5966   7.934   1.683  13.751
 1378SOL    HW2 5967   8.003   1.808  13.699
 1379SOL     OW 5968   6.639  12.836  12.267
 1379SOL    HW1 5969   6.566  12.824  12.206
 1379SOL    HW2 5970   6.708  12.778  12.233
 1380SOL     OW 5971   1.014   1.393  13.619
 1380SOL    HW1 5972   1.022   1.475  13.668
 1380SOL    HW2 5973   0.922   1.367  13.629
 1381SOL     OW 5974   6.487   7.200   7.541
 1381SOL    HW1 5975   6.566   7.198   7.487
 1381SOL    HW2 5976   6.463   7.292   7.545
 1382SOL     OW 5977   5.233   5.289   6.338
 1382SOL    HW1 5978   5.258   5.199   6.358
 1382SOL    HW2 5979   5.316   5.335   6.324
 1383SOL     OW 5980   6.607  11.702  14.094
 1383SOL    HW1 5981   6.678  11.765  14.101
 1383SOL    HW2 5982   6.650  11.618  14.078
 1384SOL     OW 5983   1.160   7.986  11.349
 1384SOL    HW1 5984   1.230   7.982  11.284
 1384SOL    HW2 5985   1.179   8.065  11.400
 1385SOL     OW 5986   8.099   5.226  10.283
 1385SOL    HW1 5987   8.155   5.171  10.228
 1385SOL    HW2 5988   8.057   5.165  10.344
 1386SOL     OW 5989   8.567   6.207   1.347
 1386SOL    HW1 5990   8.486   6.157   1.359
 1386SOL    HW2 5991   8.627   6.145   1.306
 1387SOL     OW 5992   3.943   3.352   6.513
 1387SOL    HW1 5993   3.873   3.351   6.579
 1387SOL    HW2 5994   4.023   3.362   6.564
 1388SOL     OW 5995   2.664  12.090   5.937
 1388SOL    HW1 5996   2.649  12.181   5.911
 1388SOL    HW2 5997   2.612  12.039   5.875
 1389SOL     OW 5998  14.481   3.334   2.530
 1389SOL    HW1 5999  14.448   3.343   2.440
 1389SOL    HW2 6000  14.573   3.312   2.520
 1390SOL     OW 6001   5.252   9.144   9.309
 1390SOL    HW1 6002   5.259   9.129   9.214
 1390SOL    HW2 6003   5.182   9.085   9.337
 1391SOL     OW 6004   3.789  14.380   5.240
 1391SOL    HW1 6005   3.751  14.460   5.279
 1391SOL    HW2 6006   3.788  14.317   5.312
 1392SOL     OW 6007   1.008   6.043   4.737
 1392SOL    HW1 6008   0.977   6.040   4.828
 1392SOL    HW2 6009   0.932   6.071   4.686
 1393SOL     OW 6010  11.559  13.269   8.134
 1393SOL    HW1 6011  11.606  13.344   8.170
 1393SOL    HW2 6012  11.600  13.254   8.049
 1394SOL     OW 6013  12.076   5.144   3.025
 1394SOL    HW1 6014  12.072   5.219   3.086
 1394SOL    HW2 6015  12.165   5.112   3.033
 1395SOL     OW 6016   3.100   7.524   1.885
 1395SOL    HW1 6017   3.176   7.466   1.876
 1395SOL    HW2 6018   3.088   7.532   1.980
 1396SOL     OW 6019  14.857   9.386   5.273
 1396SOL    HW1 6020  14.791   9.454   5.273
 1396SOL    HW2 6021   0.046   9.411   5.203
 1397SOL     OW 6022   0.756  11.826  11.785
 1397SOL    HW1 6023   0.823  11.894  11.778
 1397SOL    HW2 6024   0.738  11.820  11.879
 1398SOL     OW 6025   9.686   3.612  12.229
 1398SOL    HW1 6026   9.761   3.638  12.283
 1398SOL    HW2 6027   9.713   3.635  12.140
 1399SOL     OW 6028   2.348   4.277   1.588
 1399SOL    HW1 6029   2.291   4.338   1.634
 1399SOL    HW2 6030   2.345   4.306   1.496
 1400SOL     OW 6031   4.353   5.026   0.683
 1400SOL    HW1 6032   4.402   5.020   0.764
 1400SOL    HW2 6033   4.392   4.960   0.625
 1401SOL     OW 6034   4.887   8.355   4.901
 1401SOL    HW1 6035   4.826   8.341   4.829
 1401SOL    HW2 6036   4.883   8.448   4.919
 1402SOL     OW 6037  14.599   7.163   1.211
 1402SOL    HW1 6038  14.627   7.076   1.241
 1402SOL    HW2 6039  14.680   7.206   1.185
 1403SOL     OW 6040  11.877   2.430  11.507
 1403SOL    HW1 6041  11.851   2.522  11.500
 1403SOL    HW2 6042  11.810   2.382  11.458
 1404SOL     OW 6043   9.013   4.035   1.870
 1404SOL    HW1 6044   8.963   3.959   1.844
 1404SOL    HW2 6045   9.100   4.001   1.890
 1405SOL     OW 6046  10.744   7.702  13.650
 1405SOL    HW1 6047  10.682   7.652  13.703
 1405SOL    HW2 6048  10.700   7.714  13.566
 1406SOL     OW 6049   3.303  11.029   8.774
 1406SOL    HW1 6050   3.258  11.099   8.726
 1406SOL    HW2 6051   3.246  10.953   8.765
 1407SOL     OW 6052  10.260   4.549   7.222
 1407SOL    HW1 6053  10.319   4.616   7.257
 1407SOL    HW2 6054  10.240   4.578   7.133
 1408SOL     OW 6055   3.608  10.992   8.237
 1408SOL    HW1 6056   3.660  11.040   8.173
 1408SOL    HW2 6057   3.659  10.997   8.318
 1409SOL     OW 6058   8.850   5.215  12.748
 1409SOL    HW1 6059   8.867   5.266  12.668
 1409SOL    HW2 6060   8.755   5.217  12.757
 1410SOL     OW 6061   1.307  14.577  12.684
 1410SOL    HW1 6062   1.327  14.543  12.771
 1410SOL    HW2 6063   1.226  14.627  12.695
 1411SOL     OW 6064   5.517  10.078   4.928
 1411SOL    HW1 6065   5.536  10.041   4.842
 1411SOL    HW2 6066   5.559  10.018   4.990
 1412SOL     OW 6067   2.926   1.165   0.352
 1412SOL    HW1 6068   2.838   1.141   0.322
 1412SOL    HW2 6069   2.975   1.083   0.351
 1413SOL     OW 6070   0.108   6.436  11.699
 1413SOL    HW1 6071   0.016   6.455  11.679
 1413SOL    HW2 6072   0.145   6.406  11.616
 1414SOL     OW 6073  13.592   8.584   7.606
 1414SOL    HW1 6074  13.564   8.560   7.518
 1414SOL    HW2 6075  13.554   8.671   7.620
 1415SOL     OW 6076   2.562   0.772  14.375
 1415SOL    HW1 6077   2.651   0.749  14.401
 1415SOL    HW2 6078   2.554   0.865  14.396
 1416SOL     OW 6079   4.129   5.352   9.316
 1416SOL    HW1 6080   4.129   5.362   9.411
 1416SOL    HW2 6081   4.107   5.259   9.302
 1417SOL     OW 6082  12.230   7.159   0.713
 1417SOL    HW1 6083  12.291   7.217   0.759
 1417SOL    HW2 6084  12.203   7.209   0.636
 1418SOL     OW 6085   7.725  14.081   5.514
 1418SOL    HW1 6086   7.671  14.107   5.590
 1418SOL    HW2 6087   7.665  14.086   5.440
 1419SOL     OW 6088   6.557   0.420   3.063
 1419SOL    HW1 6089   6.610   0.479   3.117
 1419SOL    HW2 6090   6.583   0.438   2.973
 1420SOL     OW 6091  11.259   8.748   0.515
 1420SOL    HW1 6092  11.247   8.780   0.426
 1420SOL    HW2 6093  11.229   8.657   0.512
 1421SOL     OW 6094   5.299   7.332  11.541
 1421SOL    HW1 6095   5.308   7.267  11.611
 1421SOL    HW2 6096   5.350   7.407  11.572
 1422SOL     OW 6097   9.394   3.122  11.304
 1422SOL    HW1 6098   9.403   3.207  11.261
 1422SOL    HW2 6099   9.351   3.067  11.238
 1423SOL     OW 6100   7.926   9.713   0.501
 1423SOL    HW1 6101   7.856   9.729   0.437
 1423SOL    HW2 6102   7.953   9.622   0.485
 1424SOL     OW 6103   9.639   8.282   4.746
 1424SOL    HW1 6104   9.620   8.373   4.726
 1424SOL    HW2 6105   9.554   8.243   4.764
 1425SOL     OW 6106   2.803   2.566   5.549
 1425SOL    HW1 6107   2.759   2.613   5.619
 1425SOL    HW2 6108   2.892   2.600   5.549
 1426SOL     OW 6109  11.233   1.499   3.814
 1426SOL    HW1 6110  11.209   1.564   3.880
 1426SOL    HW2 6111  11.236   1.416   3.863
 1427SOL     OW 6112   1.985  14.115   2.600
 1427SOL    HW1 6113   1.939  14.069   2.671
 1427SOL    HW2 6114   2.045  14.174   2.645
 1428SOL     OW 6115   9.592   5.779   3.162
 1428SOL    HW1 6116   9.648   5.836   3.109
 1428SOL    HW2 6117   9.639   5.696   3.167
 1429SOL     OW 6118   8.941   9.634   2.377
 1429SOL    HW1 6119   9.004   9.565   2.360
 1429SOL    HW2 6120   8.864   9.610   2.326
 1430SOL     OW 6121  14.832  13.353  10.911
 1430SOL    HW1 6122   0.011  13.290  10.861
 1430SOL    HW2 6123  14.866  13.439  10.884
 1431SOL     OW 6124   5.427   0.023  11.705
 1431SOL    HW1 6125   5.367  14.843  11.758
 1431SOL    HW2 6126   5.496   0.050  11.765
 1432SOL     OW 6127   3.782  11.223   2.262
 1432SOL    HW1 6128   3.859  11.279   2.257
 1432SOL    HW2 6129   3.817  11.134   2.253
 1433SOL     OW 6130  10.532   4.239   3.727
 1433SOL    HW1 6131  10.565   4.170   3.668
 1433SOL    HW2 6132  10.439   4.244   3.707
 1434SOL     OW 6133  10.389  10.020  14.225
 1434SOL    HW1 6134  10.321  10.077  14.260
 1434SOL    HW2 6135  10.448  10.004  14.299
 1435SOL     OW 6136   0.500   3.020   8.832
 1435SOL    HW1 6137   0.540   3.022   8.745
 1435SOL    HW2 6138   0.476   3.111   8.849
 1436SOL     OW 6139   0.210   6.643  13.706
 1436SOL    HW1 6140   0.269   6.630  13.780
 1436SOL    HW2 6141   0.267   6.637  13.629
 1437SOL     OW 6142  12.918   6.568   4.980
 1437SOL    HW1 6143  12.889   6.480   5.003
 1437SOL    HW2 6144  12.940   6.609   5.063
 1438SOL     OW 6145   7.615   0.601   9.479
 1438SOL    HW1 6146   7.574   0.685   9.501
 1438SOL    HW2 6147   7.542   0.538   9.480
 1439SOL     OW 6148   9.701  12.629  12.772
 1439SOL    HW1 6149   9.736  12.651  12.858
 1439SOL    HW2 6150   9.779  12.617  12.717
 1440SOL     OW 6151   7.912   4.378   6.692
 1440SOL    HW1 6152   7.899   4.458   6.743
 1440SOL    HW2 6153   7.849   4.316   6.727
 1441SOL     OW 6154  11.297   3.173   4.209
 1441SOL    HW1 6155  11.341   3.090   4.229
 1441SOL    HW2 6156  11.240   3.153   4.135
 1442SOL     OW 6157  13.502  11.729   6.740
 1442SOL    HW1 6158  13.565  11.800   6.725
 1442SOL    HW2 6159  13.462  11.715   6.655
 1443SOL     OW 6160  13.490   8.428   9.907
 1443SOL    HW1 6161  13.423   8.395   9.968
 1443SOL    HW2 6162  13.517   8.351   9.857
 1444SOL     OW 6163  14.162  11.913  12.743
 1444SOL    HW1 6164  14.141  11.896  12.651
 1444SOL    HW2 6165  14.236  11.973  12.740
 1445SOL     OW 6166   6.477   8.713   7.563
 1445SOL    HW1 6167   6.409   8.646   7.562
 1445SOL    HW2 6168   6.445   8.780   7.503
 1446SOL     OW 6169   6.359  14.417   0.205
 1446SOL    HW1 6170   6.277  14.388   0.244
 1446SOL    HW2 6171   6.354  14.513   0.208
 1447SOL     OW 6172  13.992   8.958  10.508
 1447SOL    HW1 6173  13.926   8.967  10.440
 1447SOL    HW2 6174  14.042   8.880  10.484
 1448SOL     OW 6175   8.112  12.941  12.169
 1448SOL    HW1 6176   8.084  13.021  12.125
 1448SOL    HW2 6177   8.203  12.929  12.143
 1449SOL     OW 6178   4.950   3.456   4.971
 1449SOL    HW1 6179   4.939   3.396   5.044
 1449SOL    HW2 6180   4.912   3.410   4.896
 1450SOL     OW 6181  14.375   0.642  13.224
 1450SOL    HW1 6182  14.423   0.594  13.156
 1450SOL    HW2 6183  14.431   0.717  13.245
 1451SOL     OW 6184   8.127   3.779  13.547
 1451SOL    HW1 6185   8.146   3.801  13.456
 1451SOL    HW2 6186   8.035   3.755  13.548
 1452SOL     OW 6187   7.378   6.723   8.338
 1452SOL    HW1 6188   7.429   6.798   8.367
 1452SOL    HW2 6189   7.427   6.647   8.370
 1453SOL     OW 6190   9.002   5.930   8.897
 1453SOL    HW1 6191   9.076   5.900   8.950
 1453SOL    HW2 6192   9.003   6.025   8.907
 1454SOL     OW 6193   6.531   7.951   5.356
 1454SOL    HW1 6194   6.443   7.952   5.318
 1454SOL    HW2 6195   6.516   7.949   5.450
 1455SOL     OW 6196  11.684   3.836   0.156
 1455SOL    HW1 6197  11.635   3.918   0.151
 1455SOL    HW2 6198  11.774   3.862   0.173
 1456SOL     OW 6199  11.059  13.026  13.037
 1456SOL    HW1 6200  11.000  12.960  13.074
 1456SOL    HW2 6201  11.007  13.106  13.037
 1457SOL     OW 6202   8.885  10.715  11.844
 1457SOL    HW1 6203   8.837  10.783  11.797
 1457SOL    HW2 6204   8.822  10.677  11.905
 1458SOL     OW 6205   4.857   2.647  14.660
 1458SOL    HW1 6206   4.812   2.588  14.599
 1458SOL    HW2 6207   4.786   2.687  14.710
 1459SOL     OW 6208  12.400   0.272   2.031
 1459SOL    HW1 6209  12.381   0.185   1.994
 1459SOL    HW2 6210  12.470   0.306   1.976
 1460SOL     OW 6211  13.177   6.553   3.292
 1460SOL    HW1 6212  13.116   6.522   3.225
 1460SOL    HW2 6213  13.221   6.627   3.251
 1461SOL     OW 6214   4.907   9.095  10.543
 1461SOL    HW1 6215   4.834   9.155  10.559
 1461SOL    HW2 6216   4.982   9.137  10.585
 1462SOL     OW 6217   5.528   8.099   9.744
 1462SOL    HW1 6218   5.570   8.122   9.661
 1462SOL    HW2 6219   5.451   8.049   9.718
 1463SOL     OW 6220   9.514   9.404   2.580
 1463SOL    HW1 6221   9.548   9.439   2.661
 1463SOL    HW2 6222   9.551   9.460   2.511
 1464SOL     OW 6223  14.233   4.233   3.281
 1464SOL    HW1 6224  14.294   4.225   3.354
 1464SOL    HW2 6225  14.157   4.278   3.319
 1465SOL     OW 6226   1.944   4.131   2.666
 1465SOL    HW1 6227   1.978   4.216   2.692
 1465SOL    HW2 6228   1.857   4.126   2.705
 1466SOL     OW 6229  14.827   5.108  10.093
 1466SOL    HW1 6230  14.773   5.030  10.087
 1466SOL    HW2 6231  14.831   5.127  10.187
 1467SOL     OW 6232  10.009   8.980   7.146
 1467SOL    HW1 6233   9.971   9.065   7.125
 1467SOL    HW2 6234  10.084   8.971   7.088
 1468SOL     OW 6235  13.813  13.421   9.366
 1468SOL    HW1 6236  13.801  13.516   9.358
 1468SOL    HW2 6237  13.905  13.407   9.341
 1469SOL     OW 6238   0.765   4.208  10.116
 1469SOL    HW1 6239   0.799   4.119  10.124
 1469SOL    HW2 6240   0.801   4.240  10.034
 1470SOL     OW 6241   7.099  10.534   7.215
 1470SOL    HW1 6242   7.012  10.565   7.191
 1470SOL    HW2 6243   7.095  10.524   7.310
 1471SOL     OW 6244  11.919  10.960  14.266
 1471SOL    HW1 6245  11.951  10.984  14.352
 1471SOL    HW2 6246  11.833  10.921  14.283
 1472SOL     OW 6247   4.331   2.193   0.185
 1472SOL    HW1 6248   4.294   2.169   0.100
 1472SOL    HW2 6249   4.279   2.269   0.212
 1473SOL     OW 6250  14.374   8.409   9.278
 1473SOL    HW1 6251  14.412   8.411   9.366
 1473SOL    HW2 6252  14.342   8.499   9.264
 1474SOL     OW 6253   3.410  12.982   9.673
 1474SOL    HW1 6254   3.343  13.036   9.717
 1474SOL    HW2 6255   3.360  12.914   9.628
 1475SOL     OW 6256   3.549  10.147   2.668
 1475SOL    HW1 6257   3.633  10.180   2.698
 1475SOL    HW2 6258   3.515  10.215   2.609
 1476SOL     OW 6259  13.146  10.992  10.092
 1476SOL    HW1 6260  13.173  11.037  10.172
 1476SOL    HW2 6261  13.092  11.056  10.046
 1477SOL     OW 6262  14.149  12.714   6.780
 1477SOL    HW1 6263  14.145  12.763   6.862
 1477SOL    HW2 6264  14.068  12.736   6.734
 1478SOL     OW 6265  12.777   8.951   4.460
 1478SOL    HW1 6266  12.807   8.861   4.476
 1478SOL    HW2 6267  12.719   8.943   4.385
 1479SOL     OW 6268   9.822  11.710   2.314
 1479SOL    HW1 6269   9.791  11.621   2.329
 1479SOL    HW2 6270   9.916  11.706   2.335
 1480SOL     OW 6271   3.402   1.566   8.362
 1480SOL    HW1 6272   3.388   1.473   8.344
 1480SOL    HW2 6273   3.361   1.580   8.448
 1481SOL     OW 6274   4.914   4.744   0.101
 1481SOL    HW1 6275   4.881   4.672   0.155
 1481SOL    HW2 6276   4.941   4.811   0.163
 1482SOL     OW 6277   7.751   5.035   3.216
 1482SOL    HW1 6278   7.731   4.947   3.186
 1482SOL    HW2 6279   7.838   5.028   3.256
 1483SOL     OW 6280  10.877   1.079   7.641
 1483SOL    HW1 6281  10.833   1.040   7.717
 1483SOL    HW2 6282  10.963   1.104   7.674
 1484SOL     OW 6283   4.549   2.878   5.756
 1484SOL    HW1 6284   4.548   2.856   5.849
 1484SOL    HW2 6285   4.513   2.801   5.713
 1485SOL     OW 6286   9.881   6.409   3.993
 1485SOL    HW1 6287   9.959   6.464   3.985
 1485SOL    HW2 6288   9.815   6.467   4.031
 1486SOL     OW 6289  12.823  13.714   0.415
 1486SOL    HW1 6290  12.806  13.669   0.498
 1486SOL    HW2 6291  12.799  13.805   0.431
 1487SOL     OW 6292   8.617   4.222   1.904
 1487SOL    HW1 6293   8.627   4.161   1.977
 1487SOL    HW2 6294   8.706   4.240   1.874
 1488SOL     OW 6295   8.981  10.319   8.438
 1488SOL    HW1 6296   8.962  10.230   8.468
 1488SOL    HW2 6297   9.074  10.317   8.415
 1489SOL     OW 6298   7.304   3.092   5.754
 1489SOL    HW1 6299   7.309   3.187   5.753
 1489SOL    HW2 6300   7.279   3.070   5.844
 1490SOL     OW 6301   8.676  10.846   3.901
 1490SOL    HW1 6302   8.707  10.768   3.856
 1490SOL    HW2 6303   8.755  10.889   3.933
 1491SOL     OW 6304   0.893   8.989   0.824
 1491SOL    HW1 6305   0.821   9.050   0.840
 1491SOL    HW2 6306   0.907   8.992   0.730
 1492SOL     OW 6307   0.860   0.868  12.663
 1492SOL    HW1 6308   0.858   0.915  12.747
 1492SOL    HW2 6309   0.808   0.923  12.604
 1493SOL     OW 6310  14.018   2.726   0.243
 1493SOL    HW1 6311  13.932   2.699   0.211
 1493SOL    HW2 6312  14.033   2.811   0.202
 1494SOL     OW 6313   3.602  13.099   2.354
 1494SOL    HW1 6314   3.546  13.023   2.374
 1494SOL    HW2 6315   3.542  13.163   2.315
 1495SOL     OW 6316   7.989   6.582   1.280
 1495SOL    HW1 6317   8.049   6.516   1.315
 1495SOL    HW2 6318   7.980   6.646   1.350
 1496SOL     OW 6319   4.044   2.687  14.211
 1496SOL    HW1 6320   3.998   2.721  14.135
 1496SOL    HW2 6321   4.081   2.764  14.254
 1497SOL     OW 6322   8.987  14.431   6.121
 1497SOL    HW1 6323   9.040  14.510   6.111
 1497SOL    HW2 6324   8.904  14.452   6.078
 1498SOL     OW 6325   0.951   9.620   4.847
 1498SOL    HW1 6326   0.984   9.651   4.931
 1498SOL    HW2 6327   1.001   9.670   4.782
 1499SOL     OW 6328   2.124  12.709   8.234
 1499SOL    HW1 6329   2.209  12.690   8.193
 1499SOL    HW2 6330   2.061  12.656   8.186
 1500SOL     OW 6331   0.728   0.844  11.861
 1500SOL    HW1 6332   0.649   0.898  11.865
 1500SOL    HW2 6333   0.734   0.818  11.769
 1501SOL     OW 6334  10.450  12.921   4.363
 1501SOL    HW1 6335  10.544  12.910   4.377
 1501SOL    HW2 6336  10.412  12.913   4.451
 1502SOL     OW 6337   9.451   5.544   6.515
 1502SOL    HW1 6338   9.420   5.546   6.606
 1502SOL    HW2 6339   9.517   5.614   6.510
 1503SOL     OW 6340   3.019   0.579   8.581
 1503SOL    HW1 6341   3.109   0.600   8.558
 1503SOL    HW2 6342   3.002   0.496   8.535
 1504SOL     OW 6343   9.885   7.951  12.171
 1504SOL    HW1 6344   9.839   7.868  12.177
 1504SOL    HW2 6345   9.914   7.956  12.080
 1505SOL     OW 6346  12.246   0.223   8.301
 1505SOL    HW1 6347  12.194   0.146   8.323
 1505SOL    HW2 6348  12.229   0.239   8.208
 1506SOL     OW 6349   6.016   1.141   9.014
 1506SOL    HW1 6350   5.998   1.060   8.966
 1506SOL    HW2 6351   5.993   1.211   8.954
 1507SOL     OW 6352   0.820   7.104  11.179
 1507SOL    HW1 6353   0.755   7.035  11.169
 1507SOL    HW2 6354   0.841   7.130  11.089
 1508SOL     OW 6355  10.945  13.302   4.452
 1508SOL    HW1 6356  10.890  13.365   4.498
 1508SOL    HW2 6357  10.953  13.336   4.363
 1509SOL     OW 6358  14.435   0.530   6.333
 1509SOL    HW1 6359  14.383   0.609   6.321
 1509SOL    HW2 6360  14.477   0.542   6.418
 1510SOL     OW 6361   2.595   2.839   8.060
 1510SOL    HW1 6362   2.541   2.895   8.004
 1510SOL    HW2 6363   2.680   2.835   8.015
 1511SOL     OW 6364   1.915   3.755  14.483
 1511SOL    HW1 6365   1.999   3.785  14.450
 1511SOL    HW2 6366   1.869   3.834  14.511
 1512SOL     OW 6367   4.708   8.828   7.259
 1512SOL    HW1 6368   4.785   8.841   7.202
 1512SOL    HW2 6369   4.737   8.858   7.345
 1513SOL     OW 6370   2.277   3.994   3.091
 1513SOL    HW1 6371   2.325   3.921   3.129
 1513SOL    HW2 6372   2.239   3.959   3.011
 1514SOL     OW 6373   6.567  13.703  10.278
 1514SOL    HW1 6374   6.585  13.631  10.218
 1514SOL    HW2 6375   6.486  13.743  10.243
 1515SOL     OW 6376   3.809   1.436   8.813
 1515SOL    HW1 6377   3.734   1.411   8.868
 1515SOL    HW2 6378   3.872   1.366   8.825
 1516SOL     OW 6379  13.568   4.425   8.547
 1516SOL    HW1 6380  13.653   4.430   8.591
 1516SOL    HW2 6381  13.509   4.475   8.603
 1517SOL     OW 6382   1.117   8.553   4.966
 1517SOL    HW1 6383   1.039   8.602   4.990
 1517SOL    HW2 6384   1.179   8.569   5.038
 1518SOL     OW 6385   3.277   2.150  12.453
 1518SOL    HW1 6386   3.208   2.173  12.515
 1518SOL    HW2 6387   3.358   2.180  12.495
 1519SOL     OW 6388  10.501  12.634   0.102
 1519SOL    HW1 6389  10.423  12.591   0.067
 1519SOL    HW2 6390  10.557  12.562   0.132
 1520SOL     OW 6391   7.108   3.380   6.692
 1520SOL    HW1 6392   7.155   3.328   6.626
 1520SOL    HW2 6393   7.028   3.408   6.648
 1521SOL     OW 6394   0.672  11.222   1.455
 1521SOL    HW1 6395   0.649  11.315   1.459
 1521SOL    HW2 6396   0.590  11.178   1.434
 1522SOL     OW 6397   2.290   2.172  11.660
 1522SOL    HW1 6398   2.214   2.126  11.695
 1522SOL    HW2 6399   2.265   2.264  11.657
 1523SOL     OW 6400  14.619   3.875  11.828
 1523SOL    HW1 6401  14.696   3.919  11.863
 1523SOL    HW2 6402  14.591   3.930  11.754
 1524SOL     OW 6403   4.522   9.366   4.429
 1524SOL    HW1 6404   4.609   9.327   4.417
 1524SOL    HW2 6405   4.471   9.335   4.355
 1525SOL     OW 6406  14.580   4.979   6.681
 1525SOL    HW1 6407  14.536   5.025   6.610
 1525SOL    HW2 6408  14.593   5.045   6.749
 1526SOL     OW 6409   8.019   2.663   9.787
 1526SOL    HW1 6410   8.031   2.676   9.882
 1526SOL    HW2 6411   7.925   2.651   9.776
 1527SOL     OW 6412  10.239  13.879   6.418
 1527SOL    HW1 6413  10.254  13.968   6.448
 1527SOL    HW2 6414  10.145  13.875   6.398
 1528SOL     OW 6415   7.666   4.471   8.031
 1528SOL    HW1 6416   7.728   4.456   8.102
 1528SOL    HW2 6417   7.705   4.540   7.978
 1529SOL     OW 6418  12.675   3.694   0.464
 1529SOL    HW1 6419  12.635   3.732   0.386
 1529SOL    HW2 6420  12.738   3.759   0.492
 1530SOL     OW 6421   3.387  12.169   8.723
 1530SOL    HW1 6422   3.480  12.146   8.717
 1530SOL    HW2 6423   3.383  12.235   8.792
 1531SOL     OW 6424   8.453  12.543  14.746
 1531SOL    HW1 6425   8.528  12.484  14.748
 1531SOL    HW2 6426   8.388  12.498  14.692
 1532SOL     OW 6427  11.996   8.685   6.998
 1532SOL    HW1 6428  11.993   8.678   7.093
 1532SOL    HW2 6429  12.053   8.759   6.981
 1533SOL     OW 6430   7.187  13.238  12.756
 1533SOL    HW1 6431   7.118  13.229  12.691
 1533SOL    HW2 6432   7.268  13.224  12.707
 1534SOL     OW 6433   0.071  12.035   3.081
 1534SOL    HW1 6434   0.105  11.967   3.024
 1534SOL    HW2 6435   0.090  12.117   3.035
 1535SOL     OW 6436   1.749  14.352   2.451
 1535SOL    HW1 6437   1.826  14.307   2.485
 1535SOL    HW2 6438   1.716  14.402   2.525
 1536SOL     OW 6439   0.301  12.538   8.845
 1536SOL    HW1 6440   0.282  12.455   8.889
 1536SOL    HW2 6441   0.370  12.579   8.899
 1537SOL     OW 6442  13.492   0.637   2.090
 1537SOL    HW1 6443  13.422   0.573   2.078
 1537SOL    HW2 6444  13.567   0.585   2.121
 1538SOL     OW 6445  11.064   5.519   3.486
 1538SOL    HW1 6446  10.973   5.544   3.468
 1538SOL    HW2 6447  11.104   5.597   3.524
 1539SOL     OW 6448   1.803   6.806  10.460
 1539SOL    HW1 6449   1.769   6.793  10.372
 1539SOL    HW2 6450   1.845   6.723  10.483
 1540SOL     OW 6451   5.125   3.519   6.592
 1540SOL    HW1 6452   5.139   3.613   6.592
 1540SOL    HW2 6453   5.200   3.483   6.544
 1541SOL     OW 6454   5.646   9.543  12.365
 1541SOL    HW1 6455   5.718   9.493  12.325
 1541SOL    HW2 6456   5.608   9.592  12.292
 1542SOL     OW 6457   0.376  12.593   9.355
 1542SOL    HW1 6458   0.321  12.598   9.434
 1542SOL    HW2 6459   0.461  12.626   9.383
 1543SOL     OW 6460  10.350  11.833   7.473
 1543SOL    HW1 6461  10.381  11.810   7.561
 1543SOL    HW2 6462  10.367  11.754   7.421
 1544SOL     OW 6463   3.354  14.159   8.018
 1544SOL    HW1 6464   3.279  14.217   8.007
 1544SOL    HW2 6465   3.320  14.071   8.000
 1545SOL     OW 6466   0.502   6.982   7.963
 1545SOL    HW1 6467   0.509   6.953   7.872
 1545SOL    HW2 6468   0.545   7.067   7.965
 1546SOL     OW 6469  12.822  14.241  13.998
 1546SOL    HW1 6470  12.899  14.299  14.000
 1546SOL    HW2 6471  12.841  14.181  13.926
 1547SOL     OW 6472   4.097  12.334  12.918
 1547SOL    HW1 6473   4.095  12.298  13.007
 1547SOL    HW2 6474   4.038  12.279  12.868
 1548SOL     OW 6475   1.176   9.360  14.775
 1548SOL    HW1 6476   1.233   9.312  14.836
 1548SOL    HW2 6477   1.223   9.441  14.756
 1549SOL     OW 6478   6.577   6.484   1.753
 1549SOL    HW1 6479   6.566   6.504   1.660
 1549SOL    HW2 6480   6.522   6.406   1.767
 1550SOL     OW 6481  14.753   0.776  13.828
 1550SOL    HW1 6482  14.738   0.868  13.850
 1550SOL    HW2 6483  14.681   0.729  13.869
 1551SOL     OW 6484   2.688   7.422   5.421
 1551SOL    HW1 6485   2.753   7.422   5.351
 1551SOL    HW2 6486   2.705   7.503   5.469
 1552SOL     OW 6487   9.945   3.489   5.028
 1552SOL    HW1 6488  10.024   3.443   4.999
 1552SOL    HW2 6489   9.905   3.429   5.092
 1553SOL     OW 6490   3.734   3.931  12.800
 1553SOL    HW1 6491   3.713   3.881  12.721
 1553SOL    HW2 6492   3.799   3.995  12.772
 1554SOL     OW 6493  10.205   6.567   9.508
 1554SOL    HW1 6494  10.253   6.525   9.437
 1554SOL    HW2 6495  10.273   6.602   9.565
 1555SOL     OW 6496   3.527  11.686   9.024
 1555SOL    HW1 6497   3.607  11.730   9.051
 1555SOL    HW2 6498   3.466  11.699   9.097
 1556SOL     OW 6499   0.895   9.543   5.732
 1556SOL    HW1 6500   0.854   9.527   5.647
 1556SOL    HW2 6501   0.890   9.638   5.744
 1557SOL     OW 6502   9.006  12.743   8.040
 1557SOL    HW1 6503   9.026  12.808   7.973
 1557SOL    HW2 6504   9.072  12.675   8.029
 1558SOL     OW 6505  14.184   0.561  14.596
 1558SOL    HW1 6506  14.130   0.637  14.619
 1558SOL    HW2 6507  14.274   0.591  14.608
 1559SOL     OW 6508   9.349   5.951  13.948
 1559SOL    HW1 6509   9.420   5.998  13.904
 1559SOL    HW2 6510   9.356   5.862  13.916
 1560SOL     OW 6511   1.411  14.409   8.190
 1560SOL    HW1 6512   1.502  14.385   8.207
 1560SOL    HW2 6513   1.401  14.398   8.095
 1561SOL     OW 6514  13.398   4.030   7.380
 1561SOL    HW1 6515  13.466   3.965   7.396
 1561SOL    HW2 6516  13.386   4.029   7.285
 1562SOL     OW 6517  13.092   9.761   4.445
 1562SOL    HW1 6518  13.177   9.728   4.416
 1562SOL    HW2 6519  13.111   9.847   4.482
 1563SOL     OW 6520   0.413   0.781  10.997
 1563SOL    HW1 6521   0.456   0.798  10.913
 1563SOL    HW2 6522   0.387   0.689  10.993
 1564SOL     OW 6523   2.816  14.268   9.959
 1564SOL    HW1 6524   2.785  14.213  10.030
 1564SOL    HW2 6525   2.848  14.348  10.002
 1565SOL     OW 6526   5.879  11.955   6.335
 1565SOL    HW1 6527   5.822  11.912   6.399
 1565SOL    HW2 6528   5.927  12.020   6.385
 1566SOL     OW 6529   5.161   8.332   5.621
 1566SOL    HW1 6530   5.174   8.420   5.655
 1566SOL    HW2 6531   5.162   8.275   5.698
 1567SOL     OW 6532   7.993   9.989   4.278
 1567SOL    HW1 6533   7.925   9.927   4.251
 1567SOL    HW2 6534   7.978  10.065   4.222
 1568SOL     OW 6535  13.302  12.145   5.306
 1568SOL    HW1 6536  13.245  12.215   5.275
 1568SOL    HW2 6537  13.386  12.188   5.321
 1569SOL     OW 6538   4.961   4.999  13.542
 1569SOL    HW1 6539   4.937   4.992  13.634
 1569SOL    HW2 6540   5.038   4.943  13.533
 1570SOL     OW 6541   1.995   4.402   6.193
 1570SOL    HW1 6542   2.083   4.404   6.154
 1570SOL    HW2 6543   2.011   4.388   6.287
 1571SOL     OW 6544   3.468   7.916  10.841
 1571SOL    HW1 6545   3.453   7.946  10.931
 1571SOL    HW2 6546   3.517   7.987  10.800
 1572SOL     OW 6547  12.351   4.376   7.217
 1572SOL    HW1 6548  12.303   4.428   7.281
 1572SOL    HW2 6549  12.297   4.298   7.205
 1573SOL     OW 6550   9.120  11.135  11.092
 1573SOL    HW1 6551   9.120  11.047  11.056
 1573SOL    HW2 6552   9.208  11.147  11.128
 1574SOL     OW 6553   8.127   0.056   9.218
 1574SOL    HW1 6554   8.094  14.840   9.199
 1574SOL    HW2 6555   8.215   0.057   9.181
 1575SOL     OW 6556   0.797   0.644   4.572
 1575SOL    HW1 6557   0.784   0.718   4.513
 1575SOL    HW2 6558   0.892   0.632   4.575
 1576SOL     OW 6559   4.548   7.621   9.327
 1576SOL    HW1 6560   4.593   7.672   9.259
 1576SOL    HW2 6561   4.517   7.687   9.389
 1577SOL     OW 6562   2.717   1.275   7.464
 1577SOL    HW1 6563   2.638   1.307   7.507
 1577SOL    HW2 6564   2.787   1.292   7.528
 1578SOL     OW 6565   4.335   9.258  14.455
 1578SOL    HW1 6566   4.318   9.177  14.406
 1578SOL    HW2 6567   4.310   9.237  14.545
 1579SOL     OW 6568   2.381  11.353   0.246
 1579SOL    HW1 6569   2.293  11.373   0.215
 1579SOL    HW2 6570   2.437  11.363   0.169
 1580SOL     OW 6571   9.309  11.233   5.062
 1580SOL    HW1 6572   9.326  11.266   5.150
 1580SOL    HW2 6573   9.289  11.311   5.011
 1581SOL     OW 6574  14.694   6.433  12.141
 1581SOL    HW1 6575  14.699   6.525  12.117
 1581SOL    HW2 6576  14.651   6.433  12.227
 1582SOL     OW 6577   5.164  11.062   5.363
 1582SOL    HW1 6578   5.155  11.156   5.350
 1582SOL    HW2 6579   5.189  11.029   5.277
 1583SOL     OW 6580  14.860   2.932   1.207
 1583SOL    HW1 6581   0.012   2.859   1.150
 1583SOL    HW2 6582  14.766   2.923   1.219
 1584SOL     OW 6583  14.509   0.480   8.718
 1584SOL    HW1 6584  14.517   0.543   8.646
 1584SOL    HW2 6585  14.448   0.413   8.685
 1585SOL     OW 6586  14.120   0.066   7.344
 1585SOL    HW1 6587  14.203   0.019   7.340
 1585SOL    HW2 6588  14.140   0.144   7.396
 1586SOL     OW 6589   4.556   5.249  14.283
 1586SOL    HW1 6590   4.586   5.209  14.365
 1586SOL    HW2 6591   4.491   5.314  14.309
 1587SOL     OW 6592  12.890   4.329   1.294
 1587SOL    HW1 6593  12.857   4.300   1.379
 1587SOL    HW2 6594  12.837   4.406   1.273
 1588SOL     OW 6595   3.643   7.817   8.395
 1588SOL    HW1 6596   3.586   7.874   8.345
 1588SOL    HW2 6597   3.586   7.748   8.428
 1589SOL     OW 6598  13.642   7.182   9.359
 1589SOL    HW1 6599  13.604   7.104   9.399
 1589SOL    HW2 6600  13.569   7.224   9.314
 1590SOL     OW 6601   2.257   9.183  13.206
 1590SOL    HW1 6602   2.172   9.161  13.169
 1590SOL    HW2 6603   2.273   9.115  13.271
 1591SOL     OW 6604  14.383   0.367  11.356
 1591SOL    HW1 6605  14.347   0.391  11.271
 1591SOL    HW2 6606  14.411   0.277  11.346
 1592SOL     OW 6607   9.483   0.809   4.661
 1592SOL    HW1 6608   9.561   0.864   4.669
 1592SOL    HW2 6609   9.504   0.747   4.591
 1593SOL     OW 6610   7.406   4.462   3.238
 1593SOL    HW1 6611   7.465   4.496   3.305
 1593SOL    HW2 6612   7.464   4.419   3.175
 1594SOL     OW 6613  11.985  13.367   8.519
 1594SOL    HW1 6614  11.987  13.337   8.428
 1594SOL    HW2 6615  11.895  13.398   8.531
 1595SOL     OW 6616   9.883   0.330  13.983
 1595SOL    HW1 6617   9.970   0.355  13.952
 1595SOL    HW2 6618   9.898   0.258  14.043
 1596SOL     OW 6619   6.159   7.082   4.179
 1596SOL    HW1 6620   6.104   7.143   4.228
 1596SOL    HW2 6621   6.098   7.034   4.123
 1597SOL     OW 6622   8.917   4.767   1.898
 1597SOL    HW1 6623   8.830   4.803   1.914
 1597SOL    HW2 6624   8.908   4.673   1.917
 1598SOL     OW 6625   3.760   7.960  12.849
 1598SOL    HW1 6626   3.820   7.939  12.920
 1598SOL    HW2 6627   3.793   7.910  12.774
 1599SOL     OW 6628   5.175  10.031  12.414
 1599SOL    HW1 6629   5.255  10.027  12.362
 1599SOL    HW2 6630   5.204  10.060  12.501
 1600SOL     OW 6631   2.534  12.429  14.338
 1600SOL    HW1 6632   2.563  12.506  14.387
 1600SOL    HW2 6633   2.538  12.457  14.246
 1601SOL     OW 6634  12.781   1.532   3.446
 1601SOL    HW1 6635  12.734   1.557   3.526
 1601SOL    HW2 6636  12.761   1.602   3.383
 1602SOL     OW 6637   1.981   7.557   9.385
 1602SOL    HW1 6638   1.977   7.517   9.472
 1602SOL    HW2 6639   2.067   7.599   9.381
 1603SOL     OW 6640  11.618   4.873  13.161
 1603SOL    HW1 6641  11.640   4.819  13.237
 1603SOL    HW2 6642  11.607   4.811  13.090
 1604SOL     OW 6643   8.309  13.233   2.551
 1604SOL    HW1 6644   8.242  13.278   2.498
 1604SOL    HW2 6645   8.263  13.211   2.632
 1605SOL     OW 6646   9.697  13.088   4.142
 1605SOL    HW1 6647   9.772  13.033   4.118
 1605SOL    HW2 6648   9.711  13.111   4.233
 1606SOL     OW 6649   0.368   2.168   4.966
 1606SOL    HW1 6650   0.319   2.088   4.985
 1606SOL    HW2 6651   0.304   2.238   4.977
 1607SOL     OW 6652  13.688   8.126  12.507
 1607SOL    HW1 6653  13.642   8.049  12.540
 1607SOL    HW2 6654  13.687   8.116  12.412
 1608SOL     OW 6655   1.851  13.726  11.792
 1608SOL    HW1 6656   1.898  13.645  11.807
 1608SOL    HW2 6657   1.915  13.783  11.749
 1609SOL     OW 6658  13.387   3.866  10.832
 1609SOL    HW1 6659  13.393   3.873  10.927
 1609SOL    HW2 6660  13.367   3.774  10.816
 1610SOL     OW 6661  13.029   5.342   4.729
 1610SOL    HW1 6662  13.096   5.347   4.797
 1610SOL    HW2 6663  12.947   5.360   4.775
 1611SOL     OW 6664   0.511   9.179  12.359
 1611SOL    HW1 6665   0.482   9.251  12.302
 1611SOL    HW2 6666   0.473   9.100  12.319
 1612SOL     OW 6667   7.203   9.659   2.514
 1612SOL    HW1 6668   7.116   9.620   2.521
 1612SOL    HW2 6669   7.196   9.742   2.562
 1613SOL     OW 6670   4.539  13.274  10.543
 1613SOL    HW1 6671   4.474  13.274  10.473
 1613SOL    HW2 6672   4.591  13.353  10.528
 1614SOL     OW 6673   0.270  11.196   1.665
 1614SOL    HW1 6674   0.302  11.144   1.739
 1614SOL    HW2 6675   0.215  11.136   1.615
 1615SOL     OW 6676   9.077   7.124   8.849
 1615SOL    HW1 6677   9.027   7.176   8.912
 1615SOL    HW2 6678   9.151   7.090   8.900
 1616SOL     OW 6679   4.200   3.867   5.083
 1616SOL    HW1 6680   4.176   3.788   5.131
 1616SOL    HW2 6681   4.118   3.916   5.074
 1617SOL     OW 6682   1.294   9.242   0.416
 1617SOL    HW1 6683   1.234   9.291   0.361
 1617SOL    HW2 6684   1.338   9.182   0.356
 1618SOL     OW 6685  12.103   3.513  14.496
 1618SOL    HW1 6686  12.018   3.493  14.533
 1618SOL    HW2 6687  12.086   3.529  14.403
 1619SOL     OW 6688   4.545   2.108   2.610
 1619SOL    HW1 6689   4.571   2.175   2.673
 1619SOL    HW2 6690   4.451   2.121   2.599
 1620SOL     OW 6691   6.726   5.257  10.073
 1620SOL    HW1 6692   6.796   5.321  10.088
 1620SOL    HW2 6693   6.746   5.221   9.986
 1621SOL     OW 6694   6.906   5.906   9.338
 1621SOL    HW1 6695   6.954   5.969   9.285
 1621SOL    HW2 6696   6.915   5.823   9.291
 1622SOL     OW 6697  13.122  11.564  11.062
 1622SOL    HW1 6698  13.037  11.598  11.090
 1622SOL    HW2 6699  13.107  11.530  10.973
 1623SOL     OW 6700   3.740  11.574   1.744
 1623SOL    HW1 6701   3.698  11.646   1.697
 1623SOL    HW2 6702   3.669  11.534   1.795
 1624SOL     OW 6703   3.465   5.671  12.656
 1624SOL    HW1 6704   3.443   5.745  12.713
 1624SOL    HW2 6705   3.501   5.605  12.714
 1625SOL     OW 6706  10.024  12.845  12.842
 1625SOL    HW1 6707  10.094  12.906  12.819
 1625SOL    HW2 6708   9.995  12.809  12.758
 1626SOL     OW 6709  14.201   3.369   6.795
 1626SOL    HW1 6710  14.172   3.317   6.720
 1626SOL    HW2 6711  14.296   3.354   6.799
 1627SOL     OW 6712  14.289   3.858  12.655
 1627SOL    HW1 6713  14.319   3.868  12.565
 1627SOL    HW2 6714  14.195   3.872  12.651
 1628SOL     OW 6715   0.245   0.521  12.892
 1628SOL    HW1 6716   0.175   0.505  12.956
 1628SOL    HW2 6717   0.320   0.546  12.946
 1629SOL     OW 6718  11.174  10.401   5.772
 1629SOL    HW1 6719  11.186  10.452   5.852
 1629SOL    HW2 6720  11.263  10.385   5.740
 1630SOL     OW 6721   5.535   4.646   6.930
 1630SOL    HW1 6722   5.564   4.555   6.925
 1630SOL    HW2 6723   5.439   4.641   6.932
 1631SOL     OW 6724   9.477   4.202   5.433
 1631SOL    HW1 6725   9.430   4.243   5.505
 1631SOL    HW2 6726   9.569   4.204   5.461
 1632SOL     OW 6727  10.064   4.798   6.064
 1632SOL    HW1 6728   9.982   4.821   6.109
 1632SOL    HW2 6729  10.048   4.710   6.031
 1633SOL     OW 6730   4.204   4.545  12.106
 1633SOL    HW1 6731   4.219   4.634  12.076
 1633SOL    HW2 6732   4.113   4.544  12.135
 1634SOL     OW 6733   2.359  11.393   4.667
 1634SOL    HW1 6734   2.395  11.315   4.625
 1634SOL    HW2 6735   2.410  11.466   4.631
 1635SOL     OW 6736  14.694  14.189   9.069
 1635SOL    HW1 6737  14.684  14.145   9.154
 1635SOL    HW2 6738  14.781  14.229   9.074
 1636SOL     OW 6739  14.709   8.494  12.301
 1636SOL    HW1 6740  14.648   8.566  12.321
 1636SOL    HW2 6741  14.724   8.452  12.385
 1637SOL     OW 6742  13.260  11.421   2.078
 1637SOL    HW1 6743  13.340  11.471   2.062
 1637SOL    HW2 6744  13.260  11.405   2.172
 1638SOL     OW 6745   7.251   5.329   0.600
 1638SOL    HW1 6746   7.250   5.366   0.688
 1638SOL    HW2 6747   7.231   5.236   0.613
 1639SOL     OW 6748  13.746  11.423  10.432
 1639SOL    HW1 6749  13.696  11.373  10.496
 1639SOL    HW2 6750  13.708  11.398  10.348
 1640SOL     OW 6751   3.274   1.646   1.597
 1640SOL    HW1 6752   3.332   1.711   1.635
 1640SOL    HW2 6753   3.311   1.562   1.623
 1641SOL     OW 6754  11.633  11.131  11.961
 1641SOL    HW1 6755  11.623  11.204  11.899
 1641SOL    HW2 6756  11.727  11.125  11.977
 1642SOL     OW 6757  10.541  11.724   0.289
 1642SOL    HW1 6758  10.598  11.647   0.289
 1642SOL    HW2 6759  10.474  11.704   0.224
 1643SOL     OW 6760   0.592   2.357  14.573
 1643SOL    HW1 6761   0.646   2.374  14.651
 1643SOL    HW2 6762   0.648   2.305  14.516
 1644SOL     OW 6763   1.140   5.902  11.767
 1644SOL    HW1 6764   1.089   5.878  11.844
 1644SOL    HW2 6765   1.231   5.885  11.792
 1645SOL     OW 6766  12.908  10.663  13.545
 1645SOL    HW1 6767  12.917  10.754  13.575
 1645SOL    HW2 6768  12.868  10.671  13.458
 1646SOL     OW 6769   0.274   4.172   1.069
 1646SOL    HW1 6770   0.243   4.201   0.983
 1646SOL    HW2 6771   0.214   4.211   1.131
 1647SOL     OW 6772  13.918   6.911  11.333
 1647SOL    HW1 6773  13.922   6.829  11.285
 1647SOL    HW2 6774  14.007   6.947  11.327
 1648SOL     OW 6775   5.687   7.655   1.754
 1648SOL    HW1 6776   5.640   7.731   1.720
 1648SOL    HW2 6777   5.780   7.678   1.743
 1649SOL     OW 6778   9.497   7.851   4.632
 1649SOL    HW1 6779   9.452   7.771   4.606
 1649SOL    HW2 6780   9.567   7.862   4.568
 1650SOL     OW 6781   3.705   1.799  11.279
 1650SOL    HW1 6782   3.732   1.812  11.370
 1650SOL    HW2 6783   3.658   1.716  11.279
 1651SOL     OW 6784  14.213  13.749  12.880
 1651SOL    HW1 6785  14.271  13.817  12.845
 1651SOL    HW2 6786  14.135  13.754  12.824
 1652SOL     OW 6787  13.666   7.325   8.397
 1652SOL    HW1 6788  13.649   7.378   8.319
 1652SOL    HW2 6789  13.645   7.382   8.471
 1653SOL     OW 6790  12.338   0.759   5.842
 1653SOL    HW1 6791  12.369   0.786   5.928
 1653SOL    HW2 6792  12.333   0.664   5.848
 1654SOL     OW 6793  14.400   8.839   5.085
 1654SOL    HW1 6794  14.369   8.788   5.160
 1654SOL    HW2 6795  14.479   8.881   5.116
 1655SOL     OW 6796   9.263   1.830   3.797
 1655SOL    HW1 6797   9.252   1.822   3.702
 1655SOL    HW2 6798   9.292   1.743   3.825
 1656SOL     OW 6799  11.738   0.388   4.481
 1656SOL    HW1 6800  11.808   0.452   4.468
 1656SOL    HW2 6801  11.659   0.441   4.494
 1657SOL     OW 6802   0.121  14.440   1.168
 1657SOL    HW1 6803   0.037  14.414   1.130
 1657SOL    HW2 6804   0.180  14.366   1.150
 1658SOL     OW 6805   3.133   2.546  13.432
 1658SOL    HW1 6806   3.194   2.496  13.379
 1658SOL    HW2 6807   3.186   2.578  13.506
 1659SOL     OW 6808   3.098   5.412  12.675
 1659SOL    HW1 6809   3.121   5.341  12.615
 1659SOL    HW2 6810   3.143   5.391  12.756
 1660SOL     OW 6811   4.589   0.576   4.012
 1660SOL    HW1 6812   4.544   0.548   3.932
 1660SOL    HW2 6813   4.519   0.611   4.068
 1661SOL     OW 6814   9.393   8.050   6.234
 1661SOL    HW1 6815   9.356   8.011   6.314
 1661SOL    HW2 6816   9.317   8.078   6.184
 1662SOL     OW 6817   1.644   4.437   6.763
 1662SOL    HW1 6818   1.721   4.381   6.757
 1662SOL    HW2 6819   1.583   4.387   6.817
 1663SOL     OW 6820   6.660   3.383   1.662
 1663SOL    HW1 6821   6.710   3.362   1.741
 1663SOL    HW2 6822   6.679   3.310   1.602
 1664SOL     OW 6823   9.039   0.645   7.159
 1664SOL    HW1 6824   9.047   0.656   7.064
 1664SOL    HW2 6825   9.128   0.655   7.192
 1665SOL     OW 6826  13.575   0.243   1.273
 1665SOL    HW1 6827  13.520   0.196   1.336
 1665SOL    HW2 6828  13.620   0.174   1.224
 1666SOL     OW 6829  13.005   1.033  14.719
 1666SOL    HW1 6830  12.992   0.984  14.637
 1666SOL    HW2 6831  12.920   1.073  14.737
 1667SOL     OW 6832   1.448  10.857   6.295
 1667SOL    HW1 6833   1.461  10.939   6.247
 1667SOL    HW2 6834   1.357  10.834   6.278
 1668SOL     OW 6835  12.561   6.250   7.368
 1668SOL    HW1 6836  12.574   6.179   7.304
 1668SOL    HW2 6837  12.623   6.232   7.438
 1669SOL     OW 6838   3.592  12.459   2.364
 1669SOL    HW1 6839   3.652  12.458   2.439
 1669SOL    HW2 6840   3.609  12.543   2.321
 1670SOL     OW 6841   1.404   7.893   5.171
 1670SOL    HW1 6842   1.401   7.977   5.126
 1670SOL    HW2 6843   1.385   7.829   5.103
 1671SOL     OW 6844   9.512   1.643   3.635
 1671SOL    HW1 6845   9.568   1.653   3.712
 1671SOL    HW2 6846   9.426   1.620   3.671
 1672SOL     OW 6847  14.345   2.525   2.272
 1672SOL    HW1 6848  14.396   2.477   2.337
 1672SOL    HW2 6849  14.327   2.610   2.312
 1673SOL     OW 6850  14.655   4.198   4.211
 1673SOL    HW1 6851  14.576   4.224   4.259
 1673SOL    HW2 6852  14.645   4.237   4.124
 1674SOL     OW 6853   5.763   3.761   1.380
 1674SOL    HW1 6854   5.671   3.784   1.369
 1674SOL    HW2 6855   5.762   3.683   1.435
 1675SOL     OW 6856   0.269   2.332  10.299
 1675SOL    HW1 6857   0.292   2.239  10.299
 1675SOL    HW2 6858   0.175   2.333  10.284
 1676SOL     OW 6859   8.338   7.616  11.927
 1676SOL    HW1 6860   8.342   7.703  11.888
 1676SOL    HW2 6861   8.244   7.595  11.930
 1677SOL     OW 6862   0.751   8.071  14.402
 1677SOL    HW1 6863   0.676   8.109  14.355
 1677SOL    HW2 6864   0.822   8.132  14.385
 1678SOL     OW 6865  12.833   6.938   0.969
 1678SOL    HW1 6866  12.778   6.995   1.022
 1678SOL    HW2 6867  12.887   6.890   1.032
 1679SOL     OW 6868   7.726   4.660   2.294
 1679SOL    HW1 6869   7.671   4.723   2.340
 1679SOL    HW2 6870   7.770   4.712   2.226
 1680SOL     OW 6871   4.035   8.184  13.347
 1680SOL    HW1 6872   4.050   8.250  13.416
 1680SOL    HW2 6873   3.990   8.232  13.277
 1681SOL     OW 6874   4.675  11.945   0.793
 1681SOL    HW1 6875   4.657  11.883   0.863
 1681SOL    HW2 6876   4.590  11.982   0.771
 1682SOL     OW 6877   3.837   2.605  10.922
 1682SOL    HW1 6878   3.860   2.555  11.001
 1682SOL    HW2 6879   3.793   2.541  10.866
 1683SOL     OW 6880   5.214   7.025   6.674
 1683SOL    HW1 6881   5.142   7.088   6.667
 1683SOL    HW2 6882   5.219   7.005   6.767
 1684SOL     OW 6883  10.517  11.176   9.507
 1684SOL    HW1 6884  10.488  11.119   9.578
 1684SOL    HW2 6885  10.447  11.241   9.499
 1685SOL     OW 6886   8.095  11.607   4.057
 1685SOL    HW1 6887   8.063  11.694   4.030
 1685SOL    HW2 6888   8.184  11.603   4.024
 1686SOL     OW 6889  10.712   3.309  12.569
 1686SOL    HW1 6890  10.642   3.318  12.634
 1686SOL    HW2 6891  10.793   3.308  12.620
 1687SOL     OW 6892   1.324  14.774  11.181
 1687SOL    HW1 6893   1.340  14.863  11.214
 1687SOL    HW2 6894   1.331  14.718  11.259
 1688SOL     OW 6895   6.298   4.444  11.961
 1688SOL    HW1 6896   6.232   4.486  11.906
 1688SOL    HW2 6897   6.368   4.420  11.900
 1689SOL     OW 6898  14.294   9.548  10.304
 1689SOL    HW1 6899  14.261   9.628  10.264
 1689SOL    HW2 6900  14.383   9.569  10.332
 1690SOL     OW 6901  10.787   1.647  14.139
 1690SOL    HW1 6902  10.735   1.716  14.098
 1690SOL    HW2 6903  10.804   1.679  14.227
 1691SOL     OW 6904  13.085   8.927  13.570
 1691SOL    HW1 6905  13.012   8.934  13.632
 1691SOL    HW2 6906  13.071   8.842  13.528
 1692SOL     OW 6907  10.922   5.813  12.423
 1692SOL    HW1 6908  10.916   5.876  12.494
 1692SOL    HW2 6909  10.883   5.857  12.348
 1693SOL     OW 6910   2.074  10.229   0.230
 1693SOL    HW1 6911   2.128  10.307   0.215
 1693SOL    HW2 6912   2.027  10.216   0.148
 1694SOL     OW 6913   3.394   4.342   5.741
 1694SOL    HW1 6914   3.484   4.311   5.734
 1694SOL    HW2 6915   3.382   4.401   5.667
 1695SOL     OW 6916  12.611   3.290  12.796
 1695SOL    HW1 6917  12.534   3.240  12.823
 1695SOL    HW2 6918  12.656   3.232  12.734
 1696SOL     OW 6919  12.946   5.735  14.795
 1696SOL    HW1 6920  12.899   5.811  14.832
 1696SOL    HW2 6921  13.034   5.768  14.777
 1697SOL     OW 6922   9.325   5.942   3.940
 1697SOL    HW1 6923   9.397   5.918   3.998
 1697SOL    HW2 6924   9.258   5.978   3.998
 1698SOL     OW 6925  11.522   9.727  13.175
 1698SOL    HW1 6926  11.438   9.708  13.133
 1698SOL    HW2 6927  11.579   9.756  13.104
 1699SOL     OW 6928   2.776  13.645   8.569
 1699SOL    HW1 6929   2.815  13.712   8.625
 1699SOL    HW2 6930   2.714  13.693   8.514
 1700SOL     OW 6931   9.451   7.823  11.287
 1700SOL    HW1 6932   9.442   7.895  11.224
 1700SOL    HW2 6933   9.533   7.779  11.262
 1701SOL     OW 6934   7.304   5.983   7.649
 1701SOL    HW1 6935   7.390   5.944   7.666
 1701SOL    HW2 6936   7.320   6.077   7.647
 1702SOL     OW 6937   0.767  11.103   2.347
 1702SOL    HW1 6938   0.704  11.130   2.281
 1702SOL    HW2 6939   0.769  11.175   2.410
 1703SOL     OW 6940  12.262  13.587  11.867
 1703SOL    HW1 6941  12.300  13.500  11.881
 1703SOL    HW2 6942  12.199  13.574  11.796
 1704SOL     OW 6943   2.452  13.366   5.484
 1704SOL    HW1 6944   2.505  13.336   5.558
 1704SOL    HW2 6945   2.492  13.450   5.459
 1705SOL     OW 6946   1.653   8.568   3.086
 1705SOL    HW1 6947   1.728   8.592   3.141
 1705SOL    HW2 6948   1.578   8.612   3.127
 1706SOL     OW 6949  10.992  13.326  14.062
 1706SOL    HW1 6950  10.914  13.376  14.083
 1706SOL    HW2 6951  11.000  13.333  13.967
 1707SOL     OW 6952   2.475  12.817  13.385
 1707SOL    HW1 6953   2.444  12.889  13.440
 1707SOL    HW2 6954   2.562  12.796  13.420
 1708SOL     OW 6955   4.951   6.573   9.875
 1708SOL    HW1 6956   4.922   6.545   9.962
 1708SOL    HW2 6957   5.017   6.508   9.850
 1709SOL     OW 6958   5.445  12.303   9.521
 1709SOL    HW1 6959   5.515  12.361   9.551
 1709SOL    HW2 6960   5.427  12.246   9.596
 1710SOL     OW 6961  12.610   4.795  12.145
 1710SOL    HW1 6962  12.529   4.747  12.165
 1710SOL    HW2 6963  12.593   4.884  12.175
 1711SOL     OW 6964  13.039  13.002   6.373
 1711SOL    HW1 6965  13.129  13.033   6.378
 1711SOL    HW2 6966  12.987  13.070   6.416
 1712SOL     OW 6967   0.779  13.730  12.308
 1712SOL    HW1 6968   0.730  13.670  12.365
 1712SOL    HW2 6969   0.861  13.684  12.291
 1713SOL     OW 6970  12.746   9.883  13.848
 1713SOL    HW1 6971  12.690   9.815  13.886
 1713SOL    HW2 6972  12.687   9.955  13.829
 1714SOL     OW 6973   8.446   7.970   7.794
 1714SOL    HW1 6974   8.400   8.036   7.741
 1714SOL    HW2 6975   8.389   7.893   7.792
 1715SOL     OW 6976  11.592   5.577   3.941
 1715SOL    HW1 6977  11.574   5.561   3.848
 1715SOL    HW2 6978  11.687   5.565   3.949
 1716SOL     OW 6979   1.867   1.188   5.514
 1716SOL    HW1 6980   1.807   1.120   5.544
 1716SOL    HW2 6981   1.815   1.268   5.513
 1717SOL     OW 6982  10.604  10.638   6.248
 1717SOL    HW1 6983  10.584  10.588   6.328
 1717SOL    HW2 6984  10.518  10.656   6.209
 1718SOL     OW 6985   9.836  14.274  12.110
 1718SOL    HW1 6986   9.805  14.262  12.021
 1718SOL    HW2 6987   9.823  14.189  12.153
 1719SOL     OW 6988   3.620  14.376  12.804
 1719SOL    HW1 6989   3.611  14.433  12.881
 1719SOL    HW2 6990   3.542  14.396  12.751
 1720SOL     OW 6991   2.463   5.066   9.328
 1720SOL    HW1 6992   2.370   5.046   9.338
 1720SOL    HW2 6993   2.482   5.128   9.399
 1721SOL     OW 6994   5.816   5.753   5.051
 1721SOL    HW1 6995   5.778   5.674   5.012
 1721SOL    HW2 6996   5.774   5.760   5.137
 1722SOL     OW 6997   7.076  11.837   4.075
 1722SOL    HW1 6998   7.145  11.774   4.056
 1722SOL    HW2 6999   7.023  11.795   4.143
 1723SOL     OW 7000   5.501   1.548   8.441
 1723SOL    HW1 7001   5.405   1.551   8.443
 1723SOL    HW2 7002   5.525   1.498   8.519
 1724SOL     OW 7003   7.074   8.149   5.320
 1724SOL    HW1 7004   6.991   8.101   5.317
 1724SOL    HW2 7005   7.105   8.149   5.230
 1725SOL     OW 7006   5.036   5.211   8.295
 1725SOL    HW1 7007   5.003   5.226   8.207
 1725SOL    HW2 7008   5.016   5.119   8.313
 1726SOL     OW 7009   5.252   7.717   2.816
 1726SOL    HW1 7010   5.287   7.753   2.898
 1726SOL    HW2 7011   5.163   7.751   2.811
 1727SOL     OW 7012  10.314   8.820   6.054
 1727SOL    HW1 7013  10.267   8.872   5.988
 1727SOL    HW2 7014  10.314   8.875   6.132
 1728SOL     OW 7015  12.959   2.235   7.152
 1728SOL    HW1 7016  12.880   2.278   7.120
 1728SOL    HW2 7017  13.026   2.303   7.152
 1729SOL     OW 7018   3.159   6.133  13.421
 1729SOL    HW1 7019   3.194   6.066  13.480
 1729SOL    HW2 7020   3.132   6.204  13.480
 1730SOL     OW 7021  11.858  12.268   8.420
 1730SOL    HW1 7022  11.844  12.356   8.384
 1730SOL    HW2 7023  11.950  12.268   8.448
 1731SOL     OW 7024   9.972   4.004   7.228
 1731SOL    HW1 7025   9.960   3.930   7.168
 1731SOL    HW2 7026  10.064   4.028   7.217
 1732SOL     OW 7027   8.488   8.911  12.082
 1732SOL    HW1 7028   8.437   8.985  12.050
 1732SOL    HW2 7029   8.557   8.900  12.017
 1733SOL     OW 7030   3.334   9.612   1.420
 1733SOL    HW1 7031   3.277   9.682   1.452
 1733SOL    HW2 7032   3.422   9.651   1.419
 1734SOL     OW 7033  11.299   8.665   7.827
 1734SOL    HW1 7034  11.371   8.713   7.786
 1734SOL    HW2 7035  11.276   8.717   7.903
 1735SOL     OW 7036   8.856   9.296  13.165
 1735SOL    HW1 7037   8.921   9.234  13.198
 1735SOL    HW2 7038   8.887   9.320  13.079
 1736SOL     OW 7039  14.240  11.849   9.001
 1736SOL    HW1 7040  14.216  11.941   8.992
 1736SOL    HW2 7041  14.230  11.831   9.094
 1737SOL     OW 7042  13.667   9.960   5.649
 1737SOL    HW1 7043  13.699   9.996   5.732
 1737SOL    HW2 7044  13.709  10.012   5.581
 1738SOL     OW 7045  12.365   5.211   4.717
 1738SOL    HW1 7046  12.435   5.273   4.697
 1738SOL    HW2 7047  12.285   5.263   4.713
 1739SOL     OW 7048   9.141  10.582   1.698
 1739SOL    HW1 7049   9.188  10.551   1.621
 1739SOL    HW2 7050   9.193  10.657   1.728
 1740SOL     OW 7051   6.481  11.821   8.840
 1740SOL    HW1 7052   6.403  11.875   8.851
 1740SOL    HW2 7053   6.472  11.782   8.753
 1741SOL     OW 7054   7.622   5.098   6.048
 1741SOL    HW1 7055   7.691   5.142   6.098
 1741SOL    HW2 7056   7.612   5.151   5.969
 1742SOL     OW 7057   5.491   8.050  12.900
 1742SOL    HW1 7058   5.432   8.044  12.825
 1742SOL    HW2 7059   5.542   8.129  12.884
 1743SOL     OW 7060  11.244   9.557   8.320
 1743SOL    HW1 7061  11.184   9.611   8.268
 1743SOL    HW2 7062  11.193   9.479   8.342
 1744SOL     OW 7063   7.102   8.408   1.337
 1744SOL    HW1 7064   7.041   8.463   1.385
 1744SOL    HW2 7065   7.062   8.395   1.252
 1745SOL     OW 7066   0.853   3.852   4.711
 1745SOL    HW1 7067   0.822   3.861   4.621
 1745SOL    HW2 7068   0.918   3.922   4.721
 1746SOL     OW 7069   3.489   1.450   7.612
 1746SOL    HW1 7070   3.541   1.436   7.532
 1746SOL    HW2 7071   3.549   1.426   7.683
 1747SOL     OW 7072  10.184  13.357  14.063
 1747SOL    HW1 7073  10.278  13.373  14.068
 1747SOL    HW2 7074  10.147  13.411  14.133
 1748SOL     OW 7075  10.012   3.307   7.409
 1748SOL    HW1 7076   9.925   3.270   7.427
 1748SOL    HW2 7077  10.072   3.234   7.422
 1749SOL     OW 7078   7.147   7.852  11.705
 1749SOL    HW1 7079   7.054   7.875  11.709
 1749SOL    HW2 7080   7.148   7.768  11.659
 1750SOL     OW 7081   0.193   3.382   2.917
 1750SOL    HW1 7082   0.239   3.374   2.833
 1750SOL    HW2 7083   0.103   3.356   2.897
 1751SOL     OW 7084   9.771   4.603  13.635
 1751SOL    HW1 7085   9.765   4.535  13.568
 1751SOL    HW2 7086   9.841   4.661  13.605
 1752SOL     OW 7087  10.360  14.422   9.881
 1752SOL    HW1 7088  10.368  14.514   9.854
 1752SOL    HW2 7089  10.304  14.425   9.959
 1753SOL     OW 7090   4.145   0.904   6.100
 1753SOL    HW1 7091   4.154   0.936   6.190
 1753SOL    HW2 7092   4.051   0.892   6.088
 1754SOL     OW 7093  14.667  13.243   1.586
 1754SOL    HW1 7094  14.745  13.287   1.551
 1754SOL    HW2 7095  14.593  13.285   1.541
 1755SOL     OW 7096   1.179  10.427  13.577
 1755SOL    HW1 7097   1.150  10.353  13.524
 1755SOL    HW2 7098   1.108  10.491  13.571
 1756SOL     OW 7099   2.047   8.604  11.901
 1756SOL    HW1 7100   2.101   8.664  11.850
 1756SOL    HW2 7101   1.975   8.658  11.933
 1757SOL     OW 7102   9.021  14.598   5.188
 1757SOL    HW1 7103   8.970  14.663   5.236
 1757SOL    HW2 7104   9.011  14.623   5.096
 1758SOL     OW 7105   1.144  13.533  13.205
 1758SOL    HW1 7106   1.161  13.441  13.226
 1758SOL    HW2 7107   1.230  13.567  13.178
 1759SOL     OW 7108   0.600  11.600   9.483
 1759SOL    HW1 7109   0.666  11.658   9.520
 1759SOL    HW2 7110   0.630  11.512   9.505
 1760SOL     OW 7111   8.614  11.792  10.174
 1760SOL    HW1 7112   8.592  11.837  10.256
 1760SOL    HW2 7113   8.683  11.845  10.135
 1761SOL     OW 7114  13.636  12.480   3.714
 1761SOL    HW1 7115  13.725  12.451   3.695
 1761SOL    HW2 7116  13.586  12.399   3.726
 1762SOL     OW 7117  12.665   5.574  14.793
 1762SOL    HW1 7118  12.607   5.603  14.864
 1762SOL    HW2 7119  12.653   5.639  14.724
 1763SOL     OW 7120   7.629   2.323  11.334
 1763SOL    HW1 7121   7.708   2.368  11.303
 1763SOL    HW2 7122   7.656   2.281  11.415
 1764SOL     OW 7123   4.024  11.686   2.240
 1764SOL    HW1 7124   3.983  11.743   2.305
 1764SOL    HW2 7125   3.995  11.720   2.156
 1765SOL     OW 7126   7.601  10.229   5.405
 1765SOL    HW1 7127   7.624  10.309   5.357
 1765SOL    HW2 7128   7.679  10.208   5.456
 1766SOL     OW 7129  12.293   2.779  12.989
 1766SOL    HW1 7130  12.313   2.774  12.896
 1766SOL    HW2 7131  12.220   2.718  13.001
 1767SOL     OW 7132  14.110   5.848  10.708
 1767SOL    HW1 7133  14.198   5.886  10.699
 1767SOL    HW2 7134  14.088   5.861  10.800
 1768SOL     OW 7135   4.795   6.960  12.249
 1768SOL    HW1 7136   4.824   7.022  12.182
 1768SOL    HW2 7137   4.710   6.929  12.219
 1769SOL     OW 7138  12.466  11.837   3.161
 1769SOL    HW1 7139  12.373  11.840   3.141
 1769SOL    HW2 7140  12.502  11.774   3.099
 1770SOL     OW 7141   7.058   7.043   7.178
 1770SOL    HW1 7142   7.070   7.120   7.233
 1770SOL    HW2 7143   7.066   7.076   7.088
 1771SOL     OW 7144   3.654   9.513   1.817
 1771SOL    HW1 7145   3.677   9.606   1.806
 1771SOL    HW2 7146   3.715   9.482   1.884
 1772SOL     OW 7147  11.785  11.241   0.118
 1772SOL    HW1 7148  11.872  11.229   0.082
 1772SOL    HW2 7149  11.742  11.303   0.060
 1773SOL     OW 7150  11.495  11.659  12.258
 1773SOL    HW1 7151  11.432  11.613  12.314
 1773SOL    HW2 7152  11.580  11.641  12.297
 1774SOL     OW 7153   8.548  10.851   0.472
 1774SOL    HW1 7154   8.595  10.929   0.444
 1774SOL    HW2 7155   8.585  10.830   0.557
 1775SOL     OW 7156   6.463  11.641   4.631
 1775SOL    HW1 7157   6.373  11.674   4.630
 1775SOL    HW2 7158   6.508  11.694   4.697
 1776SOL     OW 7159   3.263  14.182   5.164
 1776SOL    HW1 7160   3.324  14.223   5.103
 1776SOL    HW2 7161   3.240  14.098   5.123
 1777SOL     OW 7162   1.813   9.803  13.529
 1777SOL    HW1 7163   1.882   9.739  13.546
 1777SOL    HW2 7164   1.796   9.843  13.614
 1778SOL     OW 7165   5.940   6.771   3.486
 1778SOL    HW1 7166   5.897   6.770   3.571
 1778SOL    HW2 7167   5.997   6.848   3.488
 1779SOL     OW 7168  14.419  14.689  12.238
 1779SOL    HW1 7169  14.503  14.728  12.212
 1779SOL    HW2 7170  14.353  14.748  12.202
 1780SOL     OW 7171   2.402   1.009   6.614
 1780SOL    HW1 7172   2.393   1.085   6.670
 1780SOL    HW2 7173   2.455   1.039   6.541
 1781SOL     OW 7174  13.177  11.269   0.341
 1781SOL    HW1 7175  13.120  11.202   0.377
 1781SOL    HW2 7176  13.121  11.322   0.284
 1782SOL     OW 7177   7.328   1.229  12.440
 1782SOL    HW1 7178   7.344   1.296  12.506
 1782SOL    HW2 7179   7.327   1.276  12.357
 1783SOL     OW 7180   1.445  11.289   1.134
 1783SOL    HW1 7181   1.419  11.239   1.212
 1783SOL    HW2 7182   1.497  11.227   1.082
 1784SOL     OW 7183  14.133  10.510   7.540
 1784SOL    HW1 7184  14.044  10.494   7.508
 1784SOL    HW2 7185  14.156  10.430   7.588
 1785SOL     OW 7186  13.969  14.365   3.324
 1785SOL    HW1 7187  13.956  14.319   3.241
 1785SOL    HW2 7188  14.034  14.311   3.371
 1786SOL     OW 7189   0.174   3.115   1.128
 1786SOL    HW1 7190   0.114   3.041   1.136
 1786SOL    HW2 7191   0.254   3.087   1.172
 1787SOL     OW 7192   7.921   6.752   7.989
 1787SOL    HW1 7193   7.932   6.723   8.079
 1787SOL    HW2 7194   7.905   6.846   7.995
 1788SOL     OW 7195   6.004   7.346   6.876
 1788SOL    HW1 7196   5.960   7.269   6.838
 1788SOL    HW2 7197   5.947   7.420   6.853
 1789SOL     OW 7198   5.732   7.941   5.787
 1789SOL    HW1 7199   5.771   8.019   5.826
 1789SOL    HW2 7200   5.704   7.889   5.862
 1790SOL     OW 7201   4.971   6.680   2.313
 1790SOL    HW1 7202   4.952   6.706   2.223
 1790SOL    HW2 7203   5.067   6.677   2.317
 1791SOL     OW 7204   0.435  13.813  12.487
 1791SOL    HW1 7205   0.350  13.854  12.472
 1791SOL    HW2 7206   0.477  13.813  12.400
 1792SOL     OW 7207  11.442   5.295  10.469
 1792SOL    HW1 7208  11.382   5.273  10.541
 1792SOL    HW2 7209  11.390   5.350  10.411
 1793SOL     OW 7210  11.435   8.684   2.893
 1793SOL    HW1 7211  11.529   8.692   2.912
 1793SOL    HW2 7212  11.407   8.610   2.947
 1794SOL     OW 7213  11.922   6.829  14.322
 1794SOL    HW1 7214  11.861   6.755  14.330
 1794SOL    HW2 7215  11.936   6.858  14.412
 1795SOL     OW 7216   7.065  10.850  13.349
 1795SOL    HW1 7217   6.971  10.866  13.335
 1795SOL    HW2 7218   7.073  10.754  13.351
 1796SOL     OW 7219  10.837   9.553  13.684
 1796SOL    HW1 7220  10.862   9.514  13.768
 1796SOL    HW2 7221  10.745   9.528  13.673
 1797SOL     OW 7222  14.856   5.059   7.254
 1797SOL    HW1 7223  14.765   5.089   7.256
 1797SOL    HW2 7224   0.027   5.117   7.191
 1798SOL     OW 7225   7.107   9.630   2.910
 1798SOL    HW1 7226   7.170   9.605   2.842
 1798SOL    HW2 7227   7.140   9.712   2.945
 1799SOL     OW 7228   3.359   0.941   4.846
 1799SOL    HW1 7229   3.377   0.854   4.882
 1799SOL    HW2 7230   3.314   0.988   4.916
 1800SOL     OW 7231   1.610   3.997  10.013
 1800SOL    HW1 7232   1.577   4.086   9.998
 1800SOL    HW2 7233   1.704   4.004   9.995
 1801SOL     OW 7234  13.938   5.512  13.624
 1801SOL    HW1 7235  13.873   5.501  13.693
 1801SOL    HW2 7236  14.022   5.490  13.665
 1802SOL     OW 7237  11.698   6.434  11.900
 1802SOL    HW1 7238  11.655   6.506  11.854
 1802SOL    HW2 7239  11.712   6.367  11.834
 1803SOL     OW 7240   7.000   5.068   9.175
 1803SOL    HW1 7241   7.088   5.043   9.147
 1803SOL    HW2 7242   7.010   5.157   9.209
 1804SOL     OW 7243   8.770   2.829   3.932
 1804SOL    HW1 7244   8.769   2.736   3.908
 1804SOL    HW2 7245   8.798   2.829   4.023
 1805SOL     OW 7246   6.151   1.330  10.479
 1805SOL    HW1 7247   6.212   1.261  10.505
 1805SOL    HW2 7248   6.139   1.382  10.558
 1806SOL     OW 7249   4.588   4.730   7.004
 1806SOL    HW1 7250   4.645   4.742   7.080
 1806SOL    HW2 7251   4.590   4.814   6.958
 1807SOL     OW 7252   1.998   9.028   9.716
 1807SOL    HW1 7253   1.998   9.087   9.641
 1807SOL    HW2 7254   2.022   8.943   9.680
 1808SOL     OW 7255   6.123   8.671   8.401
 1808SOL    HW1 7256   6.047   8.691   8.455
 1808SOL    HW2 7257   6.110   8.720   8.320
 1809SOL     OW 7258   3.646   4.055   9.892
 1809SOL    HW1 7259   3.668   4.114   9.964
 1809SOL    HW2 7260   3.720   3.995   9.886
 1810SOL     OW 7261   4.806   4.832   1.264
 1810SOL    HW1 7262   4.874   4.782   1.309
 1810SOL    HW2 7263   4.851   4.910   1.233
 1811SOL     OW 7264   6.796   4.812  11.186
 1811SOL    HW1 7265   6.785   4.839  11.277
 1811SOL    HW2 7266   6.851   4.734  11.190
 1812SOL     OW 7267   3.762   4.933   1.286
 1812SOL    HW1 7268   3.672   4.953   1.260
 1812SOL    HW2 7269   3.784   5.002   1.349
 1813SOL     OW 7270   2.350   8.561   3.518
 1813SOL    HW1 7271   2.290   8.493   3.551
 1813SOL    HW2 7272   2.415   8.570   3.588
 1814SOL     OW 7273   7.008   9.866   9.714
 1814SOL    HW1 7274   6.987   9.892   9.624
 1814SOL    HW2 7275   7.000   9.771   9.714
 1815SOL     OW 7276   0.600  11.442   6.656
 1815SOL    HW1 7277   0.577  11.355   6.688
 1815SOL    HW2 7278   0.566  11.502   6.723
 1816SOL     OW 7279  13.118  11.707   1.783
 1816SOL    HW1 7280  13.207  11.697   1.751
 1816SOL    HW2 7281  13.072  11.628   1.754
 1817SOL     OW 7282   8.060   5.628   8.229
 1817SOL    HW1 7283   8.041   5.576   8.151
 1817SOL    HW2 7284   7.980   5.623   8.282
 1818SOL     OW 7285  12.453   0.828   0.188
 1818SOL    HW1 7286  12.477   0.748   0.142
 1818SOL    HW2 7287  12.455   0.805   0.280
 1819SOL     OW 7288   3.221   6.921  11.358
 1819SOL    HW1 7289   3.152   6.911  11.423
 1819SOL    HW2 7290   3.223   6.837  11.312
 1820SOL     OW 7291  12.804  10.847   7.462
 1820SOL    HW1 7292  12.763  10.837   7.376
 1820SOL    HW2 7293  12.801  10.759   7.500
 1821SOL     OW 7294   1.217   8.146  10.941
 1821SOL    HW1 7295   1.191   8.190  10.861
 1821SOL    HW2 7296   1.211   8.053  10.921
 1822SOL     OW 7297  12.078   4.893   3.154
 1822SOL    HW1 7298  12.144   4.936   3.207
 1822SOL    HW2 7299  12.071   4.947   3.075
 1823SOL     OW 7300   8.359  12.028   5.012
 1823SOL    HW1 7301   8.267  12.006   4.998
 1823SOL    HW2 7302   8.376  12.099   4.951
 1824SOL     OW 7303  11.463   7.761   7.323
 1824SOL    HW1 7304  11.465   7.709   7.403
 1824SOL    HW2 7305  11.376   7.745   7.286
 1825SOL     OW 7306   3.343  10.222   0.536
 1825SOL    HW1 7307   3.346  10.317   0.547
 1825SOL    HW2 7308   3.306  10.189   0.618
 1826SOL     OW 7309   7.208   6.633   1.811
 1826SOL    HW1 7310   7.251   6.717   1.820
 1826SOL    HW2 7311   7.275   6.569   1.834
 1827SOL     OW 7312   8.178  10.787   0.632
 1827SOL    HW1 7313   8.219  10.865   0.594
 1827SOL    HW2 7314   8.102  10.821   0.678
 1828SOL     OW 7315  13.306   7.062   5.266
 1828SOL    HW1 7316  13.312   7.042   5.360
 1828SOL    HW2 7317  13.397   7.073   5.238
 1829SOL     OW 7318   3.237   2.915  11.057
 1829SOL    HW1 7319   3.245   3.006  11.027
 1829SOL    HW2 7320   3.206   2.868  10.980
 1830SOL     OW 7321  14.288   7.669  12.588
 1830SOL    HW1 7322  14.345   7.593  12.577
 1830SOL    HW2 7323  14.298   7.719  12.507
 1831SOL     OW 7324  12.154  12.057   4.889
 1831SOL    HW1 7325  12.153  12.149   4.865
 1831SOL    HW2 7326  12.134  12.057   4.983
 1832SOL     OW 7327   9.313   4.247   9.440
 1832SOL    HW1 7328   9.355   4.307   9.502
 1832SOL    HW2 7329   9.382   4.187   9.413
 1833SOL     OW 7330   2.631   7.603  11.237
 1833SOL    HW1 7331   2.558   7.543  11.253
 1833SOL    HW2 7332   2.589   7.686  11.214
 1834SOL     OW 7333   3.712  10.154  11.583
 1834SOL    HW1 7334   3.776  10.191  11.644
 1834SOL    HW2 7335   3.714  10.213  11.508
 1835SOL     OW 7336   2.850   0.448   7.331
 1835SOL    HW1 7337   2.902   0.465   7.410
 1835SOL    HW2 7338   2.892   0.371   7.291
 1836SOL     OW 7339   5.032   7.562   5.741
 1836SOL    HW1 7340   5.000   7.473   5.730
 1836SOL    HW2 7341   5.004   7.608   5.661
 1837SOL     OW 7342   8.832  14.262   2.052
 1837SOL    HW1 7343   8.759  14.217   2.010
 1837SOL    HW2 7344   8.896  14.193   2.069
 1838SOL     OW 7345   7.755  12.339   9.581
 1838SOL    HW1 7346   7.663  12.367   9.583
 1838SOL    HW2 7347   7.792  12.374   9.663
 1839SOL     OW 7348   4.665  11.038   4.915
 1839SOL    HW1 7349   4.682  11.077   4.829
 1839SOL    HW2 7350   4.633  11.111   4.968
 1840SOL     OW 7351  10.571   1.419   0.097
 1840SOL    HW1 7352  10.658   1.386   0.119
 1840SOL    HW2 7353  10.550   1.376   0.014
 1841SOL     OW 7354   7.225   9.671  11.755
 1841SOL    HW1 7355   7.176   9.752  11.771
 1841SOL    HW2 7356   7.239   9.634  11.842
 1842SOL     OW 7357  13.054   1.906   9.304
 1842SOL    HW1 7358  13.016   1.947   9.382
 1842SOL    HW2 7359  12.987   1.913   9.237
 1843SOL     OW 7360   9.498   9.188  13.081
 1843SOL    HW1 7361   9.459   9.156  13.000
 1843SOL    HW2 7362   9.563   9.253  13.052
 1844SOL     OW 7363   9.283   4.168   4.448
 1844SOL    HW1 7364   9.204   4.171   4.395
 1844SOL    HW2 7365   9.278   4.247   4.503
 1845SOL     OW 7366  14.236   5.538  10.416
 1845SOL    HW1 7367  14.144   5.544  10.444
 1845SOL    HW2 7368  14.285   5.527  10.497
 1846SOL     OW 7369   2.767   0.405  13.587
 1846SOL    HW1 7370   2.787   0.498  13.594
 1846SOL    HW2 7371   2.675   0.398  13.615
 1847SOL     OW 7372  14.343   8.102   9.829
 1847SOL    HW1 7373  14.270   8.079   9.886
 1847SOL    HW2 7374  14.318   8.185   9.790
 1848SOL     OW 7375  13.582   9.601   7.284
 1848SOL    HW1 7376  13.588   9.538   7.212
 1848SOL    HW2 7377  13.641   9.566   7.351
 1849SOL     OW 7378   9.739  11.941   7.713
 1849SOL    HW1 7379   9.651  11.926   7.746
 1849SOL    HW2 7380   9.797  11.905   7.780
 1850SOL     OW 7381   0.426   0.870   9.580
 1850SOL    HW1 7382   0.345   0.913   9.555
 1850SOL    HW2 7383   0.469   0.932   9.640
 1851SOL     OW 7384   2.313  12.932   5.443
 1851SOL    HW1 7385   2.259  12.922   5.364
 1851SOL    HW2 7386   2.391  12.978   5.414
 1852SOL     OW 7387   1.629   3.770   0.199
 1852SOL    HW1 7388   1.721   3.793   0.191
 1852SOL    HW2 7389   1.618   3.693   0.143
 1853SOL     OW 7390   8.232   8.885   3.346
 1853SOL    HW1 7391   8.286   8.955   3.310
 1853SOL    HW2 7392   8.147   8.896   3.305
 1854SOL     OW 7393   4.237  10.829   0.355
 1854SOL    HW1 7394   4.242  10.804   0.263
 1854SOL    HW2 7395   4.225  10.924   0.353
 1855SOL     OW 7396  14.324   4.812   1.621
 1855SOL    HW1 7397  14.304   4.905   1.609
 1855SOL    HW2 7398  14.370   4.787   1.541
 1856SOL     OW 7399   9.494   4.184   4.281
 1856SOL    HW1 7400   9.438   4.193   4.359
 1856SOL    HW2 7401   9.448   4.234   4.213
 1857SOL     OW 7402  11.913   6.024   6.729
 1857SOL    HW1 7403  11.900   5.929   6.732
 1857SOL    HW2 7404  11.902   6.047   6.637
 1858SOL     OW 7405  11.233   8.532  13.298
 1858SOL    HW1 7406  11.287   8.530  13.377
 1858SOL    HW2 7407  11.143   8.534  13.330
 1859SOL     OW 7408   8.426  12.176  12.620
 1859SOL    HW1 7409   8.361  12.223  12.671
 1859SOL    HW2 7410   8.510  12.200  12.660
 1860SOL     OW 7411   2.932   7.340  12.447
 1860SOL    HW1 7412   2.872   7.413  12.431
 1860SOL    HW2 7413   3.011   7.381  12.483
 1861SOL     OW 7414   3.954   6.412  12.985
 1861SOL    HW1 7415   4.022   6.468  13.023
 1861SOL    HW2 7416   3.974   6.409  12.892
 1862SOL     OW 7417   9.109   1.383   8.487
 1862SOL    HW1 7418   9.155   1.342   8.414
 1862SOL    HW2 7419   9.064   1.310   8.530
 1863SOL     OW 7420   3.414  12.331  13.093
 1863SOL    HW1 7421   3.330  12.362  13.125
 1863SOL    HW2 7422   3.442  12.265  13.156
 1864SOL     OW 7423  10.100  12.794  12.184
 1864SOL    HW1 7424  10.016  12.780  12.227
 1864SOL    HW2 7425  10.116  12.888  12.195
 1865SOL     OW 7426   2.647   8.719  10.289
 1865SOL    HW1 7427   2.652   8.758  10.201
 1865SOL    HW2 7428   2.598   8.638  10.275
 1866SOL     OW 7429   1.863  12.984   2.115
 1866SOL    HW1 7430   1.948  13.027   2.127
 1866SOL    HW2 7431   1.823  12.984   2.202
 1867SOL     OW 7432   3.642   6.217   3.690
 1867SOL    HW1 7433   3.617   6.157   3.620
 1867SOL    HW2 7434   3.558   6.249   3.724
 1868SOL     OW 7435   8.833   0.579   0.726
 1868SOL    HW1 7436   8.746   0.605   0.696
 1868SOL    HW2 7437   8.842   0.622   0.811
 1869SOL     OW 7438   2.138  11.579  12.248
 1869SOL    HW1 7439   2.089  11.659  12.227
 1869SOL    HW2 7440   2.105  11.514  12.186
 1870SOL     OW 7441  13.448  11.566  10.026
 1870SOL    HW1 7442  13.475  11.541  10.114
 1870SOL    HW2 7443  13.509  11.520   9.968
 1871SOL     OW 7444   4.938   6.399   8.148
 1871SOL    HW1 7445   4.945   6.494   8.136
 1871SOL    HW2 7446   5.027   6.371   8.172
 1872SOL     OW 7447  11.094   3.345   2.891
 1872SOL    HW1 7448  11.133   3.287   2.825
 1872SOL    HW2 7449  11.004   3.357   2.861
 1873SOL     OW 7450   0.788   1.429  13.776
 1873SOL    HW1 7451   0.815   1.414  13.866
 1873SOL    HW2 7452   0.769   1.522  13.771
 1874SOL     OW 7453   0.229   8.119  11.248
 1874SOL    HW1 7454   0.250   8.114  11.342
 1874SOL    HW2 7455   0.187   8.035  11.228
 1875SOL     OW 7456   0.060  12.461  12.246
 1875SOL    HW1 7457  14.870  12.389  12.233
 1875SOL    HW2 7458   0.016  12.520  12.308
 1876SOL     OW 7459   2.209  13.569  13.072
 1876SOL    HW1 7460   2.278  13.503  13.069
 1876SOL    HW2 7461   2.254  13.651  13.091
 1877SOL     OW 7462  13.891  10.709   4.718
 1877SOL    HW1 7463  13.811  10.710   4.665
 1877SOL    HW2 7464  13.888  10.626   4.764
 1878SOL     OW 7465   3.492  12.052   2.386
 1878SOL    HW1 7466   3.542  11.989   2.333
 1878SOL    HW2 7467   3.413  12.005   2.410
 1879SOL     OW 7468  12.531   4.851  10.707
 1879SOL    HW1 7469  12.545   4.800  10.627
 1879SOL    HW2 7470  12.448   4.897  10.691
 1880SOL     OW 7471   9.041   6.525   2.388
 1880SOL    HW1 7472   9.106   6.538   2.457
 1880SOL    HW2 7473   8.963   6.570   2.421
 1881SOL     OW 7474  12.640  10.888  14.536
 1881SOL    HW1 7475  12.619  10.796  14.517
 1881SOL    HW2 7476  12.633  10.932  14.451
 1882SOL     OW 7477   5.649   9.177   1.853
 1882SOL    HW1 7478   5.613   9.146   1.936
 1882SOL    HW2 7479   5.705   9.251   1.877
 1883SOL     OW 7480  13.990   3.638   1.367
 1883SOL    HW1 7481  13.919   3.682   1.320
 1883SOL    HW2 7482  13.994   3.551   1.329
 1884SOL     OW 7483   1.655   9.677   8.538
 1884SOL    HW1 7484   1.607   9.623   8.475
 1884SOL    HW2 7485   1.669   9.619   8.613
 1885SOL     OW 7486   5.990   6.444   6.839
 1885SOL    HW1 7487   5.983   6.531   6.800
 1885SOL    HW2 7488   5.964   6.384   6.770
 1886SOL     OW 7489  11.313   2.342  12.487
 1886SOL    HW1 7490  11.224   2.325  12.457
 1886SOL    HW2 7491  11.303   2.403  12.559
 1887SOL     OW 7492  11.736   0.350   2.564
 1887SOL    HW1 7493  11.780   0.287   2.621
 1887SOL    HW2 7494  11.686   0.296   2.503
 1888SOL     OW 7495  11.654  11.067   3.992
 1888SOL    HW1 7496  11.692  11.154   4.004
 1888SOL    HW2 7497  11.640  11.060   3.897
 1889SOL     OW 7498   0.295   3.258   4.713
 1889SOL    HW1 7499   0.379   3.253   4.758
 1889SOL    HW2 7500   0.286   3.349   4.688
 1890SOL     OW 7501   6.695   2.073   2.145
 1890SOL    HW1 7502   6.730   1.989   2.173
 1890SOL    HW2 7503   6.608   2.053   2.110
 1891SOL     OW 7504  13.231  14.016  10.740
 1891SOL    HW1 7505  13.209  13.983  10.653
 1891SOL    HW2 7506  13.230  14.111  10.731
 1892SOL     OW 7507  10.040   1.508   0.979
 1892SOL    HW1 7508  10.083   1.588   1.009
 1892SOL    HW2 7509  10.083   1.437   1.028
 1893SOL     OW 7510  11.874  12.177  12.248
 1893SOL    HW1 7511  11.929  12.141  12.317
 1893SOL    HW2 7512  11.891  12.271  12.249
 1894SOL     OW 7513   3.946  14.180  13.471
 1894SOL    HW1 7514   4.036  14.183  13.436
 1894SOL    HW2 7515   3.912  14.268  13.456
 1895SOL     OW 7516   8.818   1.614  13.087
 1895SOL    HW1 7517   8.909   1.586  13.093
 1895SOL    HW2 7518   8.808   1.645  12.997
 1896SOL     OW 7519   5.422   1.994   0.373
 1896SOL    HW1 7520   5.412   2.089   0.381
 1896SOL    HW2 7521   5.423   1.962   0.464
 1897SOL     OW 7522   9.626  12.812  11.395
 1897SOL    HW1 7523   9.698  12.782  11.340
 1897SOL    HW2 7524   9.626  12.751  11.469
 1898SOL     OW 7525   1.421   2.469   4.392
 1898SOL    HW1 7526   1.370   2.505   4.319
 1898SOL    HW2 7527   1.426   2.375   4.373
 1899SOL     OW 7528  12.208   6.903   0.723
 1899SOL    HW1 7529  12.172   6.875   0.806
 1899SOL    HW2 7530  12.202   6.999   0.725
 1900SOL     OW 7531   3.172   2.915   6.101
 1900SOL    HW1 7532   3.162   2.822   6.081
 1900SOL    HW2 7533   3.262   2.924   6.130
 1901SOL     OW 7534  10.190   3.894  12.075
 1901SOL    HW1 7535  10.100   3.922  12.057
 1901SOL    HW2 7536  10.240   3.927  12.000
 1902SOL     OW 7537  11.928   1.064  12.753
 1902SOL    HW1 7538  11.894   1.106  12.674
 1902SOL    HW2 7539  12.023   1.077  12.749
 1903SOL     OW 7540  12.038   4.131   4.664
 1903SOL    HW1 7541  11.987   4.210   4.650
 1903SOL    HW2 7542  12.127   4.155   4.637
 1904SOL     OW 7543  11.239   8.792  13.540
 1904SOL    HW1 7544  11.151   8.823  13.560
 1904SOL    HW2 7545  11.241   8.703  13.575
 1905SOL     OW 7546   2.298  13.242  13.691
 1905SOL    HW1 7547   2.248  13.262  13.770
 1905SOL    HW2 7548   2.236  13.194  13.636
 1906SOL     OW 7549   2.465  12.662   4.290
 1906SOL    HW1 7550   2.387  12.713   4.269
 1906SOL    HW2 7551   2.536  12.727   4.292
 1907SOL     OW 7552   7.692   2.829   7.466
 1907SOL    HW1 7553   7.640   2.856   7.542
 1907SOL    HW2 7554   7.681   2.901   7.403
 1908SOL     OW 7555   3.989   1.268   9.907
 1908SOL    HW1 7556   4.054   1.321   9.954
 1908SOL    HW2 7557   3.910   1.322   9.906
 1909SOL     OW 7558   5.195   2.860   7.519
 1909SOL    HW1 7559   5.119   2.866   7.461
 1909SOL    HW2 7560   5.158   2.836   7.604
 1910SOL     OW 7561  13.405   3.967  14.776
 1910SOL    HW1 7562  13.356   4.024  14.836
 1910SOL    HW2 7563  13.406   3.882  14.818
 1911SOL     OW 7564   0.130  13.993  13.909
 1911SOL    HW1 7565   0.040  13.990  13.941
 1911SOL    HW2 7566   0.122  14.011  13.816
 1912SOL     OW 7567  13.820  14.055   6.305
 1912SOL    HW1 7568  13.773  14.134   6.332
 1912SOL    HW2 7569  13.770  13.984   6.344
 1913SOL     OW 7570   1.612   3.437   4.681
 1913SOL    HW1 7571   1.534   3.404   4.636
 1913SOL    HW2 7572   1.672   3.463   4.611
 1914SOL     OW 7573  12.885   5.941  14.526
 1914SOL    HW1 7574  12.865   5.984  14.609
 1914SOL    HW2 7575  12.879   5.848  14.545
 1915SOL     OW 7576  10.919   4.524   1.797
 1915SOL    HW1 7577  10.978   4.504   1.869
 1915SOL    HW2 7578  10.860   4.591   1.832
 1916SOL     OW 7579   2.038  12.381  11.459
 1916SOL    HW1 7580   1.987  12.303  11.481
 1916SOL    HW2 7581   2.102  12.388  11.530
 1917SOL     OW 7582   7.361  11.272  11.392
 1917SOL    HW1 7583   7.412  11.344  11.356
 1917SOL    HW2 7584   7.343  11.216  11.317
 1918SOL     OW 7585   9.576   7.440   0.851
 1918SOL    HW1 7586   9.521   7.470   0.778
 1918SOL    HW2 7587   9.587   7.516   0.907
 1919SOL     OW 7588   6.308  14.476   3.582
 1919SOL    HW1 7589   6.389  14.465   3.631
 1919SOL    HW2 7590   6.319  14.560   3.536
 1920SOL     OW 7591  10.019  11.244   4.940
 1920SOL    HW1 7592   9.984  11.203   4.861
 1920SOL    HW2 7593   9.955  11.311   4.962
 1921SOL     OW 7594   8.098   4.744   0.581
 1921SOL    HW1 7595   8.047   4.801   0.524
 1921SOL    HW2 7596   8.125   4.672   0.524
 1922SOL     OW 7597   5.889   3.489   9.378
 1922SOL    HW1 7598   5.849   3.495   9.465
 1922SOL    HW2 7599   5.828   3.436   9.327
 1923SOL     OW 7600   0.726   4.607   5.238
 1923SOL    HW1 7601   0.728   4.518   5.202
 1923SOL    HW2 7602   0.801   4.651   5.197
 1924SOL     OW 7603  10.189   8.273   6.103
 1924SOL    HW1 7604  10.225   8.353   6.065
 1924SOL    HW2 7605  10.115   8.303   6.156
 1925SOL     OW 7606   5.674  10.198  10.331
 1925SOL    HW1 7607   5.745  10.260  10.346
 1925SOL    HW2 7608   5.662  10.153  10.415
 1926SOL     OW 7609   8.730   7.701   8.447
 1926SOL    HW1 7610   8.664   7.656   8.499
 1926SOL    HW2 7611   8.730   7.655   8.363
 1927SOL     OW 7612   8.900  12.372  10.187
 1927SOL    HW1 7613   8.915  12.355  10.279
 1927SOL    HW2 7614   8.987  12.390  10.151
 1928SOL     OW 7615   4.249   1.297   1.836
 1928SOL    HW1 7616   4.204   1.365   1.886
 1928SOL    HW2 7617   4.336   1.334   1.817
 1929SOL     OW 7618   1.333   5.071  13.979
 1929SOL    HW1 7619   1.256   5.097  13.929
 1929SOL    HW2 7620   1.373   5.153  14.006
 1930SOL     OW 7621   3.453   1.652   8.935
 1930SOL    HW1 7622   3.437   1.664   9.029
 1930SOL    HW2 7623   3.495   1.733   8.907
 1931SOL     OW 7624   6.064   5.941  12.372
 1931SOL    HW1 7625   6.065   6.036  12.383
 1931SOL    HW2 7626   6.131   5.909  12.432
 1932SOL     OW 7627  12.995   5.317  10.572
 1932SOL    HW1 7628  12.909   5.339  10.535
 1932SOL    HW2 7629  12.974   5.266  10.651
 1933SOL     OW 7630   2.187   2.511   4.130
 1933SOL    HW1 7631   2.093   2.527   4.117
 1933SOL    HW2 7632   2.223   2.507   4.042
 1934SOL     OW 7633   7.698   6.756   8.528
 1934SOL    HW1 7634   7.627   6.810   8.493
 1934SOL    HW2 7635   7.701   6.778   8.621
 1935SOL     OW 7636   6.052  14.491  12.276
 1935SOL    HW1 7637   6.100  14.545  12.339
 1935SOL    HW2 7638   6.120  14.457  12.218
 1936SOL     OW 7639  10.282   7.019   2.928
 1936SOL    HW1 7640  10.200   7.070   2.929
 1936SOL    HW2 7641  10.350   7.084   2.913
 1937SOL     OW 7642  10.329   7.810   7.979
 1937SOL    HW1 7643  10.238   7.838   7.965
 1937SOL    HW2 7644  10.358   7.860   8.055
 1938SOL     OW 7645   8.210   3.027  10.226
 1938SOL    HW1 7646   8.299   3.060  10.243
 1938SOL    HW2 7647   8.195   3.047  10.134
 1939SOL     OW 7648   4.302   1.840   4.729
 1939SOL    HW1 7649   4.352   1.798   4.800
 1939SOL    HW2 7650   4.367   1.856   4.661
 1940SOL     OW 7651   1.473   1.570   8.797
 1940SOL    HW1 7652   1.398   1.626   8.774
 1940SOL    HW2 7653   1.531   1.628   8.847
 1941SOL     OW 7654  11.613  10.200   5.189
 1941SOL    HW1 7655  11.527  10.244   5.187
 1941SOL    HW2 7656  11.668  10.253   5.131
 1942SOL     OW 7657  14.297  11.927   3.785
 1942SOL    HW1 7658  14.360  11.862   3.817
 1942SOL    HW2 7659  14.294  11.912   3.690
 1943SOL     OW 7660   0.545   3.419  13.145
 1943SOL    HW1 7661   0.497   3.348  13.187
 1943SOL    HW2 7662   0.480   3.486  13.129
 1944SOL     OW 7663  14.616  11.804   0.827
 1944SOL    HW1 7664  14.696  11.755   0.846
 1944SOL    HW2 7665  14.558  11.785   0.901
 1945SOL     OW 7666  12.347   6.108   5.191
 1945SOL    HW1 7667  12.315   6.190   5.155
 1945SOL    HW2 7668  12.306   6.040   5.137
 1946SOL     OW 7669   9.613   2.767  14.815
 1946SOL    HW1 7670   9.685   2.706  14.798
 1946SOL    HW2 7671   9.584   2.747   0.031
 1947SOL     OW 7672  11.754  12.555   3.349
 1947SOL    HW1 7673  11.753  12.624   3.415
 1947SOL    HW2 7674  11.823  12.495   3.377
 1948SOL     OW 7675   5.901   2.220   3.085
 1948SOL    HW1 7676   5.896   2.313   3.106
 1948SOL    HW2 7677   5.941   2.179   3.161
 1949SOL     OW 7678  10.829  10.576   8.027
 1949SOL    HW1 7679  10.890  10.614   8.091
 1949SOL    HW2 7680  10.849  10.483   8.027
 1950SOL     OW 7681   4.985   3.557   8.203
 1950SOL    HW1 7682   5.055   3.601   8.250
 1950SOL    HW2 7683   5.018   3.468   8.189
 1951SOL     OW 7684   1.150  10.516   3.717
 1951SOL    HW1 7685   1.096  10.593   3.732
 1951SOL    HW2 7686   1.117  10.479   3.635
 1952SOL     OW 7687  10.299   7.737   3.294
 1952SOL    HW1 7688  10.344   7.810   3.335
 1952SOL    HW2 7689  10.210   7.741   3.328
 1953SOL     OW 7690   9.457  10.416   7.362
 1953SOL    HW1 7691   9.505  10.496   7.384
 1953SOL    HW2 7692   9.502  10.347   7.411
 1954SOL     OW 7693   3.810  10.486  12.923
 1954SOL    HW1 7694   3.872  10.488  12.996
 1954SOL    HW2 7695   3.852  10.429  12.858
 1955SOL     OW 7696  10.756  12.387   8.651
 1955SOL    HW1 7697  10.714  12.348   8.575
 1955SOL    HW2 7698  10.823  12.324   8.677
 1956SOL     OW 7699  12.730   4.607   8.313
 1956SOL    HW1 7700  12.739   4.515   8.338
 1956SOL    HW2 7701  12.736   4.607   8.217
 1957SOL     OW 7702  10.739  14.191  10.390
 1957SOL    HW1 7703  10.648  14.194  10.421
 1957SOL    HW2 7704  10.749  14.269  10.335
 1958SOL     OW 7705  10.640   9.359   1.485
 1958SOL    HW1 7706  10.595   9.281   1.453
 1958SOL    HW2 7707  10.576   9.429   1.477
 1959SOL     OW 7708   6.249   1.904   3.434
 1959SOL    HW1 7709   6.282   1.864   3.353
 1959SOL    HW2 7710   6.294   1.857   3.504
 1960SOL     OW 7711   9.499   6.121   7.726
 1960SOL    HW1 7712   9.542   6.036   7.712
 1960SOL    HW2 7713   9.445   6.133   7.649
 1961SOL     OW 7714  12.283   8.844  13.812
 1961SOL    HW1 7715  12.298   8.754  13.783
 1961SOL    HW2 7716  12.343   8.897  13.760
 1962SOL     OW 7717   3.515   4.898  14.629
 1962SOL    HW1 7718   3.511   4.892  14.534
 1962SOL    HW2 7719   3.541   4.988  14.647
 1963SOL     OW 7720  11.898   0.474  11.526
 1963SOL    HW1 7721  11.816   0.485  11.477
 1963SOL    HW2 7722  11.939   0.561  11.523
 1964SOL     OW 7723  11.651  11.502  10.345
 1964SOL    HW1 7724  11.605  11.422  10.371
 1964SOL    HW2 7725  11.744  11.478  10.345
 1965SOL     OW 7726   1.021   4.638   2.450
 1965SOL    HW1 7727   1.067   4.631   2.534
 1965SOL    HW2 7728   1.034   4.729   2.423
 1966SOL     OW 7729  12.757   9.242   3.318
 1966SOL    HW1 7730  12.691   9.173   3.319
 1966SOL    HW2 7731  12.730   9.301   3.389
 1967SOL     OW 7732   1.870   0.471   6.103
 1967SOL    HW1 7733   1.868   0.415   6.026
 1967SOL    HW2 7734   1.863   0.560   6.069
 1968SOL     OW 7735  14.128  10.734   3.842
 1968SOL    HW1 7736  14.160  10.645   3.826
 1968SOL    HW2 7737  14.183  10.767   3.912
 1969SOL     OW 7738   9.896   2.284   3.363
 1969SOL    HW1 7739   9.939   2.228   3.298
 1969SOL    HW2 7740   9.938   2.261   3.446
 1970SOL     OW 7741   4.343  11.052   5.425
 1970SOL    HW1 7742   4.405  11.098   5.368
 1970SOL    HW2 7743   4.398  11.000   5.484
 1971SOL     OW 7744   7.932   9.122   6.264
 1971SOL    HW1 7745   7.892   9.203   6.233
 1971SOL    HW2 7746   7.988   9.093   6.192
 1972SOL     OW 7747  11.867  13.040  11.222
 1972SOL    HW1 7748  11.872  13.120  11.275
 1972SOL    HW2 7749  11.793  12.992  11.258
 1973SOL     OW 7750   4.902  12.933  11.741
 1973SOL    HW1 7751   4.874  12.888  11.821
 1973SOL    HW2 7752   4.834  13.000  11.726
 1974SOL     OW 7753   6.305   8.175   0.102
 1974SOL    HW1 7754   6.282   8.122   0.025
 1974SOL    HW2 7755   6.369   8.238   0.070
 1975SOL     OW 7756   5.062  14.856  10.474
 1975SOL    HW1 7757   5.133  14.866  10.411
 1975SOL    HW2 7758   5.015   0.067  10.471
 1976SOL     OW 7759  11.341  10.845  12.142
 1976SOL    HW1 7760  11.283  10.771  12.123
 1976SOL    HW2 7761  11.430  10.809  12.132
 1977SOL     OW 7762   0.974   8.955   8.781
 1977SOL    HW1 7763   0.986   8.968   8.875
 1977SOL    HW2 7764   0.886   8.989   8.764
 1978SOL     OW 7765   6.913   8.228  14.069
 1978SOL    HW1 7766   6.837   8.178  14.040
 1978SOL    HW2 7767   6.949   8.176  14.141
 1979SOL     OW 7768   6.114   2.340   7.767
 1979SOL    HW1 7769   6.146   2.353   7.856
 1979SOL    HW2 7770   6.019   2.327   7.777
 1980SOL     OW 7771   0.527   6.790  10.132
 1980SOL    HW1 7772   0.442   6.819  10.166
 1980SOL    HW2 7773   0.587   6.862  10.153
 1981SOL     OW 7774   8.425   3.856  12.742
 1981SOL    HW1 7775   8.433   3.941  12.698
 1981SOL    HW2 7776   8.513   3.838  12.775
 1982SOL     OW 7777   8.562   3.716   8.466
 1982SOL    HW1 7778   8.634   3.725   8.528
 1982SOL    HW2 7779   8.502   3.655   8.508
 1983SOL     OW 7780  12.602   6.286  12.453
 1983SOL    HW1 7781  12.553   6.239  12.520
 1983SOL    HW2 7782  12.659   6.220  12.414
 1984SOL     OW 7783   3.989   2.483  11.900
 1984SOL    HW1 7784   3.921   2.504  11.965
 1984SOL    HW2 7785   4.034   2.407  11.936
 1985SOL     OW 7786  12.732  14.127   7.169
 1985SOL    HW1 7787  12.813  14.077   7.167
 1985SOL    HW2 7788  12.758  14.214   7.200
 1986SOL     OW 7789  10.170  12.785   6.647
 1986SOL    HW1 7790  10.176  12.875   6.617
 1986SOL    HW2 7791  10.149  12.792   6.741
 1987SOL     OW 7792   6.314   1.111   8.311
 1987SOL    HW1 7793   6.331   1.109   8.405
 1987SOL    HW2 7794   6.335   1.201   8.285
 1988SOL     OW 7795   7.153   5.613  14.732
 1988SOL    HW1 7796   7.115   5.699  14.717
 1988SOL    HW2 7797   7.130   5.562  14.654
 1989SOL     OW 7798  14.146   6.431  11.450
 1989SOL    HW1 7799  14.192   6.382  11.518
 1989SOL    HW2 7800  14.137   6.519  11.486
 1990SOL     OW 7801   9.286  12.021   3.914
 1990SOL    HW1 7802   9.205  12.055   3.876
 1990SOL    HW2 7803   9.259  11.945   3.965
 1991SOL     OW 7804  10.146   3.800  10.647
 1991SOL    HW1 7805  10.210   3.870  10.663
 1991SOL    HW2 7806  10.197   3.730  10.606
 1992SOL     OW 7807   6.330   5.694  14.220
 1992SOL    HW1 7808   6.315   5.619  14.163
 1992SOL    HW2 7809   6.274   5.679  14.296
 1993SOL     OW 7810   8.639   1.068  10.174
 1993SOL    HW1 7811   8.721   1.102  10.210
 1993SOL    HW2 7812   8.651   0.973  10.170
 1994SOL     OW 7813  14.636   6.273  11.723
 1994SOL    HW1 7814  14.564   6.214  11.700
 1994SOL    HW2 7815  14.680   6.293  11.640
 1995SOL     OW 7816   8.241   2.224   2.181
 1995SOL    HW1 7817   8.180   2.282   2.226
 1995SOL    HW2 7818   8.199   2.206   2.097
 1996SOL     OW 7819   0.595   5.418   1.258
 1996SOL    HW1 7820   0.527   5.454   1.314
 1996SOL    HW2 7821   0.552   5.401   1.175
 1997SOL     OW 7822   1.678   1.218   6.784
 1997SOL    HW1 7823   1.723   1.216   6.700
 1997SOL    HW2 7824   1.590   1.251   6.764
 1998SOL     OW 7825   3.437  12.662   3.952
 1998SOL    HW1 7826   3.414  12.739   3.900
 1998SOL    HW2 7827   3.472  12.600   3.888
 1999SOL     OW 7828   0.404   8.352   4.907
 1999SOL    HW1 7829   0.440   8.430   4.864
 1999SOL    HW2 7830   0.420   8.366   5.000
 2000SOL     OW 7831   9.986   0.206   1.345
 2000SOL    HW1 7832   9.988   0.183   1.252
 2000SOL    HW2 7833   9.909   0.161   1.379
 2001SOL     OW 7834   2.114   7.305   3.783
 2001SOL    HW1 7835   2.128   7.302   3.688
 2001SOL    HW2 7836   2.194   7.268   3.820
 2002SOL     OW 7837  13.855  13.083   7.600
 2002SOL    HW1 7838  13.932  13.073   7.657
 2002SOL    HW2 7839  13.887  13.061   7.513
 2003SOL     OW 7840  14.426   1.807   1.451
 2003SOL    HW1 7841  14.368   1.881   1.470
 2003SOL    HW2 7842  14.418   1.751   1.528
 2004SOL     OW 7843   3.498   7.927   2.072
 2004SOL    HW1 7844   3.468   7.885   1.991
 2004SOL    HW2 7845   3.590   7.947   2.056
 2005SOL     OW 7846   5.979   6.293  13.867
 2005SOL    HW1 7847   6.055   6.293  13.925
 2005SOL    HW2 7848   6.006   6.346  13.792
 2006SOL     OW 7849  12.621   5.981   6.863
 2006SOL    HW1 7850  12.606   6.063   6.815
 2006SOL    HW2 7851  12.701   5.998   6.913
 2007SOL     OW 7852   9.930   0.487   7.453
 2007SOL    HW1 7853   9.890   0.421   7.397
 2007SOL    HW2 7854  10.022   0.463   7.457
 2008SOL     OW 7855  13.872  10.092   6.851
 2008SOL    HW1 7856  13.863  10.003   6.884
 2008SOL    HW2 7857  13.791  10.136   6.875
 2009SOL     OW 7858   4.489   7.488   4.125
 2009SOL    HW1 7859   4.487   7.504   4.031
 2009SOL    HW2 7860   4.555   7.420   4.137
 2010SOL     OW 7861   5.215   6.644  14.168
 2010SOL    HW1 7862   5.249   6.722  14.123
 2010SOL    HW2 7863   5.123   6.664  14.184
 2011SOL     OW 7864   3.152   4.858   4.618
 2011SOL    HW1 7865   3.118   4.913   4.688
 2011SOL    HW2 7866   3.120   4.898   4.537
 2012SOL     OW 7867  12.117   4.863  14.483
 2012SOL    HW1 7868  12.106   4.956  14.460
 2012SOL    HW2 7869  12.144   4.864  14.574
 2013SOL     OW 7870   9.262   3.528   9.613
 2013SOL    HW1 7871   9.342   3.579   9.624
 2013SOL    HW2 7872   9.194   3.579   9.657
 2014SOL     OW 7873   0.233  12.652  13.063
 2014SOL    HW1 7874   0.311  12.706  13.062
 2014SOL    HW2 7875   0.249  12.588  13.133
 2015SOL     OW 7876   4.944  11.305   7.747
 2015SOL    HW1 7877   5.012  11.273   7.807
 2015SOL    HW2 7878   4.862  11.276   7.787
 2016SOL     OW 7879   4.048  10.106  10.578
 2016SOL    HW1 7880   4.017  10.138  10.493
 2016SOL    HW2 7881   3.983  10.137  10.640
 2017SOL     OW 7882   8.653  14.168   1.703
 2017SOL    HW1 7883   8.610  14.131   1.781
 2017SOL    HW2 7884   8.706  14.096   1.669
 2018SOL     OW 7885   8.417  11.188   8.993
 2018SOL    HW1 7886   8.481  11.166   9.060
 2018SOL    HW2 7887   8.345  11.126   9.006
 2019SOL     OW 7888   4.981  13.062   3.635
 2019SOL    HW1 7889   4.943  13.107   3.710
 2019SOL    HW2 7890   4.907  13.021   3.591
 2020SOL     OW 7891   6.692   9.280   2.946
 2020SOL    HW1 7892   6.695   9.325   2.862
 2020SOL    HW2 7893   6.733   9.342   3.007
 2021SOL     OW 7894   3.533   7.840   0.256
 2021SOL    HW1 7895   3.464   7.869   0.316
 2021SOL    HW2 7896   3.526   7.899   0.181
 2022SOL     OW 7897   2.298  14.808   1.989
 2022SOL    HW1 7898   2.256  14.722   1.985
 2022SOL    HW2 7899   2.276  14.850   1.906
 2023SOL     OW 7900   9.246  12.408   8.335
 2023SOL    HW1 7901   9.210  12.332   8.289
 2023SOL    HW2 7902   9.170  12.463   8.353
 2024SOL     OW 7903   5.051  14.194   8.017
 2024SOL    HW1 7904   4.969  14.146   8.026
 2024SOL    HW2 7905   5.117  14.127   8.000
 2025SOL     OW 7906   2.958   0.763   2.642
 2025SOL    HW1 7907   2.890   0.826   2.621
 2025SOL    HW2 7908   3.040   0.811   2.634
 2026SOL     OW 7909  11.834   8.594  14.118
 2026SOL    HW1 7910  11.900   8.660  14.139
 2026SOL    HW2 7911  11.768   8.641  14.068
 2027SOL     OW 7912  10.803   3.712   9.688
 2027SOL    HW1 7913  10.744   3.780   9.721
 2027SOL    HW2 7914  10.849   3.681   9.766
 2028SOL     OW 7915   2.589   5.890  14.653
 2028SOL    HW1 7916   2.508   5.850  14.620
 2028SOL    HW2 7917   2.564   5.926  14.739
 2029SOL     OW 7918   0.883  13.044  13.485
 2029SOL    HW1 7919   0.906  12.978  13.419
 2029SOL    HW2 7920   0.847  13.117  13.435
 2030SOL     OW 7921   3.448   8.041   4.714
 2030SOL    HW1 7922   3.503   8.118   4.730
 2030SOL    HW2 7923   3.505   7.967   4.734
 2031SOL     OW 7924   8.457  10.636   0.336
 2031SOL    HW1 7925   8.545  10.640   0.298
 2031SOL    HW2 7926   8.455  10.709   0.399
 2032SOL     OW 7927   0.713   6.707  14.142
 2032SOL    HW1 7928   0.719   6.618  14.106
 2032SOL    HW2 7929   0.668   6.758  14.075
 2033SOL     OW 7930   6.307   5.947   0.724
 2033SOL    HW1 7931   6.294   5.863   0.769
 2033SOL    HW2 7932   6.254   6.009   0.775
 2034SOL     OW 7933   0.921  12.444   3.978
 2034SOL    HW1 7934   0.964  12.404   4.053
 2034SOL    HW2 7935   0.907  12.372   3.917
 2035SOL     OW 7936  14.244   7.141   7.249
 2035SOL    HW1 7937  14.212   7.068   7.196
 2035SOL    HW2 7938  14.234   7.111   7.340
 2036SOL     OW 7939   5.422  12.012   5.357
 2036SOL    HW1 7940   5.338  12.031   5.400
 2036SOL    HW2 7941   5.401  12.013   5.264
 2037SOL     OW 7942   5.112  14.201  10.469
 2037SOL    HW1 7943   5.197  14.185  10.512
 2037SOL    HW2 7944   5.128  14.274  10.410
 2038SOL     OW 7945   2.115  14.837   0.575
 2038SOL    HW1 7946   2.032  14.790   0.580
 2038SOL    HW2 7947   2.118   0.019   0.654
 2039SOL     OW 7948   6.658   9.195   1.583
 2039SOL    HW1 7949   6.580   9.246   1.605
 2039SOL    HW2 7950   6.643   9.165   1.494
 2040SOL     OW 7951  11.889   6.205   9.693
 2040SOL    HW1 7952  11.905   6.276   9.755
 2040SOL    HW2 7953  11.797   6.215   9.669
 2041SOL     OW 7954  14.408   6.288   0.978
 2041SOL    HW1 7955  14.464   6.213   0.994
 2041SOL    HW2 7956  14.427   6.349   1.049
 2042SOL     OW 7957   7.789  11.162   5.184
 2042SOL    HW1 7958   7.715  11.174   5.243
 2042SOL    HW2 7959   7.788  11.240   5.129
 2043SOL     OW 7960   9.902  14.595   2.436
 2043SOL    HW1 7961   9.985  14.560   2.403
 2043SOL    HW2 7962   9.868  14.527   2.494
 2044SOL     OW 7963   7.172  12.968   7.651
 2044SOL    HW1 7964   7.158  13.051   7.697
 2044SOL    HW2 7965   7.251  12.983   7.599
 2045SOL     OW 7966   5.553   9.090   9.807
 2045SOL    HW1 7967   5.544   9.067   9.714
 2045SOL    HW2 7968   5.605   9.019   9.844
 2046SOL     OW 7969  12.786   6.535   7.286
 2046SOL    HW1 7970  12.855   6.514   7.223
 2046SOL    HW2 7971  12.813   6.491   7.367
 2047SOL     OW 7972   1.137  14.773   2.682
 2047SOL    HW1 7973   1.148  14.764   2.777
 2047SOL    HW2 7974   1.066  14.711   2.661
 2048SOL     OW 7975  11.046   4.663   8.471
 2048SOL    HW1 7976  10.958   4.699   8.469
 2048SOL    HW2 7977  11.103   4.740   8.480
 2049SOL     OW 7978  14.614   0.917   0.486
 2049SOL    HW1 7979  14.522   0.915   0.458
 2049SOL    HW2 7980  14.664   0.904   0.405
 2050SOL     OW 7981  11.766   5.487   9.437
 2050SOL    HW1 7982  11.784   5.400   9.401
 2050SOL    HW2 7983  11.759   5.473   9.532
 2051SOL     OW 7984   2.363  11.503   5.376
 2051SOL    HW1 7985   2.296  11.534   5.438
 2051SOL    HW2 7986   2.324  11.516   5.290
 2052SOL     OW 7987   5.027   7.045   5.767
 2052SOL    HW1 7988   5.086   6.990   5.820
 2052SOL    HW2 7989   5.066   7.043   5.679
 2053SOL     OW 7990   0.058   3.152   2.421
 2053SOL    HW1 7991   0.146   3.189   2.432
 2053SOL    HW2 7992   0.051   3.088   2.492
 2054SOL     OW 7993  14.736   8.728  10.288
 2054SOL    HW1 7994  14.827   8.714  10.314
 2054SOL    HW2 7995  14.685   8.705  10.365
 2055SOL     OW 7996   2.772  14.814   2.456
 2055SOL    HW1 7997   2.680  14.831   2.436
 2055SOL    HW2 7998   2.794   0.005   2.524
 2056SOL     OW 7999  12.169   6.086   5.681
 2056SOL    HW1 8000  12.196   6.020   5.616
 2056SOL    HW2 8001  12.207   6.168   5.648
 2057SOL     OW 8002   9.581   2.744   8.803
 2057SOL    HW1 8003   9.544   2.661   8.832
 2057SOL    HW2 8004   9.512   2.808   8.818
 2058SOL     OW 8005  10.649   1.542  14.562
 2058SOL    HW1 8006  10.639   1.620  14.617
 2058SOL    HW2 8007  10.608   1.566  14.479
 2059SOL     OW 8008   4.156   1.737   8.003
 2059SOL    HW1 8009   4.194   1.686   8.074
 2059SOL    HW2 8010   4.136   1.822   8.042
 2060SOL     OW 8011   1.805   4.595  13.497
 2060SOL    HW1 8012   1.894   4.572  13.524
 2060SOL    HW2 8013   1.784   4.533  13.427
 2061SOL     OW 8014   7.777   8.118   5.798
 2061SOL    HW1 8015   7.867   8.149   5.791
 2061SOL    HW2 8016   7.747   8.113   5.707
 2062SOL     OW 8017   1.445   7.184  11.904
 2062SOL    HW1 8018   1.465   7.154  11.993
 2062SOL    HW2 8019   1.366   7.135  11.879
 2063SOL     OW 8020  14.586   8.210   6.610
 2063SOL    HW1 8021  14.625   8.267   6.676
 2063SOL    HW2 8022  14.493   8.231   6.614
 2064SOL     OW 8023  14.119   4.596   7.559
 2064SOL    HW1 8024  14.079   4.514   7.530
 2064SOL    HW2 8025  14.207   4.593   7.521
 2065SOL     OW 8026  12.143   0.538   8.955
 2065SOL    HW1 8027  12.220   0.483   8.963
 2065SOL    HW2 8028  12.130   0.575   9.043
 2066SOL     OW 8029   4.130  10.356  11.430
 2066SOL    HW1 8030   4.078  10.414  11.375
 2066SOL    HW2 8031   4.110  10.268  11.397
 2067SOL     OW 8032  11.967   9.879   9.419
 2067SOL    HW1 8033  11.941   9.792   9.390
 2067SOL    HW2 8034  11.886   9.930   9.417
 2068SOL     OW 8035   6.230   0.544   4.771
 2068SOL    HW1 8036   6.221   0.600   4.694
 2068SOL    HW2 8037   6.196   0.459   4.743
 2069SOL     OW 8038   1.793  12.913   8.902
 2069SOL    HW1 8039   1.837  12.944   8.981
 2069SOL    HW2 8040   1.704  12.894   8.930
 2070SOL     OW 8041  12.599   5.417  11.339
 2070SOL    HW1 8042  12.689   5.385  11.332
 2070SOL    HW2 8043  12.607   5.512  11.327
 2071SOL     OW 8044   0.923  10.275   2.469
 2071SOL    HW1 8045   0.872  10.229   2.536
 2071SOL    HW2 8046   1.010  10.284   2.508
 2072SOL     OW 8047   8.435  12.815  10.912
 2072SOL    HW1 8048   8.345  12.848  10.910
 2072SOL    HW2 8049   8.467  12.837  10.999
 2073SOL     OW 8050   0.651   2.795  11.106
 2073SOL    HW1 8051   0.637   2.790  11.011
 2073SOL    HW2 8052   0.615   2.712  11.139
 2074SOL     OW 8053   6.466   8.387  10.993
 2074SOL    HW1 8054   6.505   8.302  11.015
 2074SOL    HW2 8055   6.541   8.443  10.972
 2075SOL     OW 8056   7.578   1.996   5.509
 2075SOL    HW1 8057   7.587   1.926   5.444
 2075SOL    HW2 8058   7.533   2.067   5.462
 2076SOL     OW 8059   0.396   4.050  10.440
 2076SOL    HW1 8060   0.450   4.125  10.415
 2076SOL    HW2 8061   0.436   3.975  10.395
 2077SOL     OW 8062   9.640  11.014   2.518
 2077SOL    HW1 8063   9.633  11.082   2.451
 2077SOL    HW2 8064   9.734  11.001   2.529
 2078SOL     OW 8065  11.037   9.032   2.383
 2078SOL    HW1 8066  11.097   9.101   2.412
 2078SOL    HW2 8067  11.061   9.016   2.292
 2079SOL     OW 8068   5.964   4.348  13.959
 2079SOL    HW1 8069   6.012   4.380  13.882
 2079SOL    HW2 8070   6.019   4.372  14.033
 2080SOL     OW 8071   1.484   9.749  14.374
 2080SOL    HW1 8072   1.479   9.687  14.447
 2080SOL    HW2 8073   1.508   9.832  14.415
 2081SOL     OW 8074   4.420  13.341   1.261
 2081SOL    HW1 8075   4.458  13.325   1.347
 2081SOL    HW2 8076   4.332  13.305   1.267
 2082SOL     OW 8077   9.503  13.438   5.001
 2082SOL    HW1 8078   9.488  13.499   4.930
 2082SOL    HW2 8079   9.423  13.442   5.054
 2083SOL     OW 8080   8.198   9.206   3.292
 2083SOL    HW1 8081   8.214   9.268   3.362
 2083SOL    HW2 8082   8.282   9.162   3.279
 2084SOL     OW 8083   5.025  13.330   1.928
 2084SOL    HW1 8084   5.033  13.342   1.834
 2084SOL    HW2 8085   4.948  13.274   1.938
 2085SOL     OW 8086  12.041   6.014   4.958
 2085SOL    HW1 8087  11.986   5.992   4.882
 2085SOL    HW2 8088  12.024   5.943   5.021
 2086SOL     OW 8089   2.412  12.822   0.082
 2086SOL    HW1 8090   2.490  12.860   0.123
 2086SOL    HW2 8091   2.367  12.897   0.043
 2087SOL     OW 8092   4.839   1.843   9.815
 2087SOL    HW1 8093   4.928   1.876   9.830
 2087SOL    HW2 8094   4.851   1.772   9.752
 2088SOL     OW 8095   0.048   7.168   6.616
 2088SOL    HW1 8096   0.071   7.085   6.573
 2088SOL    HW2 8097   0.099   7.234   6.569
 2089SOL     OW 8098   8.166   7.518   5.185
 2089SOL    HW1 8099   8.228   7.452   5.217
 2089SOL    HW2 8100   8.131   7.559   5.264
 2090SOL     OW 8101   9.861   8.894   6.887
 2090SOL    HW1 8102   9.874   8.819   6.829
 2090SOL    HW2 8103   9.806   8.859   6.958
 2091SOL     OW 8104  11.194  12.425   8.919
 2091SOL    HW1 8105  11.137  12.350   8.899
 2091SOL    HW2 8106  11.242  12.398   8.997
 2092SOL     OW 8107   5.979  12.809   2.461
 2092SOL    HW1 8108   6.001  12.814   2.368
 2092SOL    HW2 8109   5.923  12.732   2.469
 2093SOL     OW 8110   3.955   3.142   1.637
 2093SOL    HW1 8111   3.967   3.223   1.589
 2093SOL    HW2 8112   4.024   3.084   1.604
 2094SOL     OW 8113  14.401   8.794   9.759
 2094SOL    HW1 8114  14.308   8.777   9.744
 2094SOL    HW2 8115  14.446   8.752   9.685
 2095SOL     OW 8116   2.288  10.652   9.202
 2095SOL    HW1 8117   2.331  10.729   9.240
 2095SOL    HW2 8118   2.351  10.581   9.215
 2096SOL     OW 8119   2.759   6.477  13.957
 2096SOL    HW1 8120   2.742   6.458  13.865
 2096SOL    HW2 8121   2.739   6.396  14.003
 2097SOL     OW 8122   5.672   2.930   7.445
 2097SOL    HW1 8123   5.686   2.842   7.480
 2097SOL    HW2 8124   5.597   2.964   7.493
 2098SOL     OW 8125   4.716   1.994  13.011
 2098SOL    HW1 8126   4.660   2.055  12.964
 2098SOL    HW2 8127   4.786   1.973  12.949
 2099SOL     OW 8128   0.266  10.634   0.724
 2099SOL    HW1 8129   0.349  10.682   0.725
 2099SOL    HW2 8130   0.212  10.679   0.659
 2100SOL     OW 8131   9.622   4.802   9.214
 2100SOL    HW1 8132   9.634   4.707   9.220
 2100SOL    HW2 8133   9.529   4.813   9.196
 2101SOL     OW 8134   3.705   6.482  14.180
 2101SOL    HW1 8135   3.756   6.529  14.246
 2101SOL    HW2 8136   3.754   6.495  14.099
 2102SOL     OW 8137  13.119   8.255   0.239
 2102SOL    HW1 8138  13.120   8.339   0.285
 2102SOL    HW2 8139  13.178   8.267   0.165
 2103SOL     OW 8140  11.505   0.995  11.272
 2103SOL    HW1 8141  11.565   1.055  11.316
 2103SOL    HW2 8142  11.420   1.038  11.275
 2104SOL     OW 8143   4.411   1.913  13.892
 2104SOL    HW1 8144   4.473   1.967  13.843
 2104SOL    HW2 8145   4.364   1.864  13.824
 2105SOL     OW 8146   2.568   9.081   8.108
 2105SOL    HW1 8147   2.577   9.116   8.019
 2105SOL    HW2 8148   2.526   8.996   8.096
 2106SOL     OW 8149   0.708   5.224   7.104
 2106SOL    HW1 8150   0.661   5.285   7.047
 2106SOL    HW2 8151   0.710   5.267   7.189
 2107SOL     OW 8152  11.145   4.755   4.454
 2107SOL    HW1 8153  11.179   4.810   4.525
 2107SOL    HW2 8154  11.102   4.682   4.499
 2108SOL     OW 8155   4.041  11.349   0.383
 2108SOL    HW1 8156   4.081  11.392   0.309
 2108SOL    HW2 8157   3.979  11.287   0.345
 2109SOL     OW 8158   8.665  10.498  13.805
 2109SOL    HW1 8159   8.754  10.501  13.840
 2109SOL    HW2 8160   8.654  10.407  13.776
 2110SOL     OW 8161   0.404   1.564  13.543
 2110SOL    HW1 8162   0.413   1.659  13.540
 2110SOL    HW2 8163   0.329   1.545  13.487
 2111SOL     OW 8164   5.507   8.270   9.073
 2111SOL    HW1 8165   5.457   8.305   8.999
 2111SOL    HW2 8166   5.540   8.348   9.119
 2112SOL     OW 8167   0.606   2.294   2.471
 2112SOL    HW1 8168   0.644   2.265   2.388
 2112SOL    HW2 8169   0.650   2.376   2.490
 2113SOL     OW 8170  12.315   6.489   9.236
 2113SOL    HW1 8171  12.255   6.550   9.194
 2113SOL    HW2 8172  12.268   6.405   9.237
 2114SOL     OW 8173   3.403  14.040   2.835
 2114SOL    HW1 8174   3.310  14.036   2.856
 2114SOL    HW2 8175   3.437  14.111   2.890
 2115SOL     OW 8176   1.661   2.420  12.517
 2115SOL    HW1 8177   1.583   2.365  12.504
 2115SOL    HW2 8178   1.669   2.426  12.612
 2116SOL     OW 8179   8.397   6.290   0.572
 2116SOL    HW1 8180   8.393   6.324   0.661
 2116SOL    HW2 8181   8.307   6.266   0.551
 2117SOL     OW 8182  10.192   0.056   6.100
 2117SOL    HW1 8183  10.282   0.038   6.073
 2117SOL    HW2 8184  10.172  14.859   6.164
 2118SOL     OW 8185   8.113   7.109   3.631
 2118SOL    HW1 8186   8.208   7.117   3.640
 2118SOL    HW2 8187   8.091   7.168   3.560
 2119SOL     OW 8188  13.842   7.643   2.827
 2119SOL    HW1 8189  13.767   7.589   2.806
 2119SOL    HW2 8190  13.912   7.611   2.769
 2120SOL     OW 8191  12.690  10.410   8.109
 2120SOL    HW1 8192  12.774  10.455   8.110
 2120SOL    HW2 8193  12.640  10.451   8.039
 2121SOL     OW 8194  14.255   1.089  11.288
 2121SOL    HW1 8195  14.329   1.086  11.349
 2121SOL    HW2 8196  14.295   1.102  11.202
 2122SOL     OW 8197  11.080   9.683   6.677
 2122SOL    HW1 8198  10.992   9.646   6.688
 2122SOL    HW2 8199  11.117   9.683   6.765
 2123SOL     OW 8200  13.523   9.123  13.038
 2123SOL    HW1 8201  13.611   9.105  13.072
 2123SOL    HW2 8202  13.534   9.200  12.983
 2124SOL     OW 8203   8.842   8.365  13.509
 2124SOL    HW1 8204   8.823   8.455  13.483
 2124SOL    HW2 8205   8.756   8.325  13.522
 2125SOL     OW 8206   0.555  10.901   3.308
 2125SOL    HW1 8207   0.646  10.878   3.290
 2125SOL    HW2 8208   0.507  10.871   3.231
 2126SOL     OW 8209  13.331   1.030  13.482
 2126SOL    HW1 8210  13.261   0.985  13.529
 2126SOL    HW2 8211  13.329   0.993  13.394
 2127SOL     OW 8212   9.842  10.032  10.744
 2127SOL    HW1 8213   9.821  10.054  10.653
 2127SOL    HW2 8214   9.923  10.081  10.762
 2128SOL     OW 8215  14.439  10.731  12.038
 2128SOL    HW1 8216  14.488  10.730  12.120
 2128SOL    HW2 8217  14.373  10.662  12.048
 2129SOL     OW 8218   5.211   3.269   1.873
 2129SOL    HW1 8219   5.149   3.199   1.894
 2129SOL    HW2 8220   5.259   3.238   1.796
 2130SOL     OW 8221   9.382   3.760  12.074
 2130SOL    HW1 8222   9.390   3.668  12.046
 2130SOL    HW2 8223   9.441   3.767  12.149
 2131SOL     OW 8224   6.034  13.975   6.994
 2131SOL    HW1 8225   6.031  13.897   7.049
 2131SOL    HW2 8226   6.067  13.944   6.910
 2132SOL     OW 8227   4.702  11.261  14.386
 2132SOL    HW1 8228   4.730  11.352  14.382
 2132SOL    HW2 8229   4.761  11.215  14.326
 2133SOL     OW 8230   2.676   7.949   9.791
 2133SOL    HW1 8231   2.729   7.996   9.726
 2133SOL    HW2 8232   2.630   7.883   9.740
 2134SOL     OW 8233   9.832   1.616  11.468
 2134SOL    HW1 8234   9.778   1.618  11.389
 2134SOL    HW2 8235   9.770   1.597  11.539
 2135SOL     OW 8236  11.451   5.634   2.661
 2135SOL    HW1 8237  11.513   5.576   2.618
 2135SOL    HW2 8238  11.490   5.652   2.747
 2136SOL     OW 8239   9.188   4.523  13.382
 2136SOL    HW1 8240   9.188   4.429  13.400
 2136SOL    HW2 8241   9.095   4.546  13.376
 2137SOL     OW 8242   7.758  14.445   2.943
 2137SOL    HW1 8243   7.836  14.437   2.998
 2137SOL    HW2 8244   7.715  14.360   2.951
 2138SOL     OW 8245   7.997  11.695   4.957
 2138SOL    HW1 8246   8.053  11.710   5.033
 2138SOL    HW2 8247   8.048  11.637   4.901
 2139SOL     OW 8248   5.495   5.093   2.536
 2139SOL    HW1 8249   5.565   5.158   2.546
 2139SOL    HW2 8250   5.415   5.144   2.546
 2140SOL     OW 8251   8.721   6.393  10.181
 2140SOL    HW1 8252   8.782   6.322  10.202
 2140SOL    HW2 8253   8.775   6.457  10.134
 2141SOL     OW 8254   5.701   6.342   9.491
 2141SOL    HW1 8255   5.789   6.318   9.521
 2141SOL    HW2 8256   5.658   6.377   9.569
 2142SOL     OW 8257   7.559   9.261   4.208
 2142SOL    HW1 8258   7.510   9.248   4.127
 2142SOL    HW2 8259   7.646   9.288   4.180
 2143SOL     OW 8260   4.826   2.897   5.697
 2143SOL    HW1 8261   4.741   2.854   5.698
 2143SOL    HW2 8262   4.808   2.987   5.672
 2144SOL     OW 8263  14.818  14.699  11.083
 2144SOL    HW1 8264  14.865  14.662  11.009
 2144SOL    HW2 8265   0.013  14.740  11.137
 2145SOL     OW 8266  13.403   4.998  10.546
 2145SOL    HW1 8267  13.494   4.995  10.573
 2145SOL    HW2 8268  13.395   4.931  10.478
 2146SOL     OW 8269  12.812   4.072   3.169
 2146SOL    HW1 8270  12.852   4.148   3.126
 2146SOL    HW2 8271  12.851   3.997   3.124
 2147SOL     OW 8272   6.945   2.148  11.778
 2147SOL    HW1 8273   6.991   2.080  11.826
 2147SOL    HW2 8274   7.001   2.225  11.785
 2148SOL     OW 8275   7.027   6.615   5.162
 2148SOL    HW1 8276   7.115   6.653   5.156
 2148SOL    HW2 8277   7.042   6.521   5.161
 2149SOL     OW 8278   4.750  12.442  12.229
 2149SOL    HW1 8279   4.768  12.492  12.150
 2149SOL    HW2 8280   4.666  12.400  12.213
 2150SOL     OW 8281   9.374  10.294  14.570
 2150SOL    HW1 8282   9.355  10.267  14.480
 2150SOL    HW2 8283   9.426  10.374  14.560
 2151SOL     OW 8284   9.010   2.695  10.358
 2151SOL    HW1 8285   9.066   2.617  10.368
 2151SOL    HW2 8286   9.070   2.764  10.329
 2152SOL     OW 8287  14.320   3.723   0.471
 2152SOL    HW1 8288  14.298   3.813   0.497
 2152SOL    HW2 8289  14.298   3.720   0.377
 2153SOL     OW 8290   1.676   6.742  13.923
 2153SOL    HW1 8291   1.752   6.748  13.866
 2153SOL    HW2 8292   1.666   6.648  13.940
 2154SOL     OW 8293   7.989   4.792   1.369
 2154SOL    HW1 8294   8.063   4.835   1.411
 2154SOL    HW2 8295   7.944   4.863   1.321
 2155SOL     OW 8296  11.571   3.189  14.560
 2155SOL    HW1 8297  11.476   3.201  14.551
 2155SOL    HW2 8298  11.601   3.168  14.472
 2156SOL     OW 8299   7.757   9.023   5.897
 2156SOL    HW1 8300   7.716   8.976   5.825
 2156SOL    HW2 8301   7.835   9.063   5.859
 2157SOL     OW 8302  14.751   6.859   2.919
 2157SOL    HW1 8303  14.663   6.822   2.908
 2157SOL    HW2 8304  14.737   6.953   2.925
 2158SOL     OW 8305   4.359  14.087   8.199
 2158SOL    HW1 8306   4.412  14.042   8.133
 2158SOL    HW2 8307   4.270  14.058   8.181
 2159SOL     OW 8308   5.938   9.596   8.223
 2159SOL    HW1 8309   5.998   9.609   8.296
 2159SOL    HW2 8310   5.994   9.595   8.146
 2160SOL     OW 8311   7.481   7.668  11.724
 2160SOL    HW1 8312   7.571   7.661  11.755
 2160SOL    HW2 8313   7.428   7.630  11.795
 2161SOL     OW 8314   2.085   5.449   2.309
 2161SOL    HW1 8315   2.069   5.473   2.400
 2161SOL    HW2 8316   2.003   5.471   2.263
 2162SOL     OW 8317   2.956  14.638   0.491
 2162SOL    HW1 8318   2.950  14.565   0.552
 2162SOL    HW2 8319   2.873  14.637   0.443
 2163SOL     OW 8320   6.067  11.318   4.343
 2163SOL    HW1 8321   6.079  11.231   4.304
 2163SOL    HW2 8322   6.039  11.374   4.270
 2164SOL     OW 8323  12.805   0.266   7.409
 2164SOL    HW1 8324  12.729   0.211   7.428
 2164SOL    HW2 8325  12.872   0.205   7.377
 2165SOL     OW 8326   6.751  12.643   5.628
 2165SOL    HW1 8327   6.779  12.659   5.718
 2165SOL    HW2 8328   6.688  12.571   5.635
 2166SOL     OW 8329  10.836   5.800  13.079
 2166SOL    HW1 8330  10.832   5.890  13.046
 2166SOL    HW2 8331  10.845   5.746  13.000
 2167SOL     OW 8332  12.325   9.858  12.192
 2167SOL    HW1 8333  12.236   9.854  12.157
 2167SOL    HW2 8334  12.356   9.767  12.189
 2168SOL     OW 8335   6.048  11.225   4.672
 2168SOL    HW1 8336   6.105  11.234   4.595
 2168SOL    HW2 8337   6.070  11.300   4.727
 2169SOL     OW 8338  11.826   1.375   7.103
 2169SOL    HW1 8339  11.914   1.339   7.119
 2169SOL    HW2 8340  11.805   1.349   7.014
 2170SOL     OW 8341  10.558   9.453  11.100
 2170SOL    HW1 8342  10.555   9.358  11.085
 2170SOL    HW2 8343  10.586   9.462  11.191
 2171SOL     OW 8344   1.993   4.670   5.377
 2171SOL    HW1 8345   2.016   4.734   5.444
 2171SOL    HW2 8346   1.927   4.714   5.323
 2172SOL     OW 8347   3.765  10.682   7.109
 2172SOL    HW1 8348   3.740  10.591   7.122
 2172SOL    HW2 8349   3.692  10.733   7.144
 2173SOL     OW 8350   5.032  12.539   2.114
 2173SOL    HW1 8351   4.995  12.569   2.031
 2173SOL    HW2 8352   5.107  12.596   2.128
 2174SOL     OW 8353   5.735  12.112   7.487
 2174SOL    HW1 8354   5.664  12.131   7.549
 2174SOL    HW2 8355   5.790  12.048   7.533
 2175SOL     OW 8356   9.693   2.994  13.677
 2175SOL    HW1 8357   9.783   2.998  13.711
 2175SOL    HW2 8358   9.644   3.053  13.735
 2176SOL     OW 8359   4.288   9.507   3.816
 2176SOL    HW1 8360   4.273   9.415   3.839
 2176SOL    HW2 8361   4.380   9.511   3.791
 2177SOL     OW 8362  11.529   8.821   7.292
 2177SOL    HW1 8363  11.565   8.899   7.251
 2177SOL    HW2 8364  11.454   8.797   7.237
 2178SOL     OW 8365   4.813   3.336   5.619
 2178SOL    HW1 8366   4.780   3.309   5.705
 2178SOL    HW2 8367   4.855   3.257   5.584
 2179SOL     OW 8368  13.378  12.949   6.708
 2179SOL    HW1 8369  13.341  12.862   6.698
 2179SOL    HW2 8370  13.459  12.935   6.757
 2180SOL     OW 8371   8.749   6.195  12.983
 2180SOL    HW1 8372   8.807   6.132  13.026
 2180SOL    HW2 8373   8.688   6.141  12.934
 2181SOL     OW 8374  13.628  10.224   9.671
 2181SOL    HW1 8375  13.658  10.297   9.617
 2181SOL    HW2 8376  13.582  10.266   9.743
 2182SOL     OW 8377   9.307   6.338  13.459
 2182SOL    HW1 8378   9.286   6.372  13.546
 2182SOL    HW2 8379   9.261   6.397  13.399
 2183SOL     OW 8380   2.090  11.995  10.285
 2183SOL    HW1 8381   2.139  11.971  10.364
 2183SOL    HW2 8382   2.148  12.056  10.239
 2184SOL     OW 8383   5.626   1.636   0.933
 2184SOL    HW1 8384   5.680   1.589   0.996
 2184SOL    HW2 8385   5.627   1.582   0.854
 2185SOL     OW 8386  10.806  11.460  14.621
 2185SOL    HW1 8387  10.836  11.423  14.705
 2185SOL    HW2 8388  10.874  11.435  14.559
 2186SOL     OW 8389  11.083  12.898   0.861
 2186SOL    HW1 8390  11.057  12.990   0.857
 2186SOL    HW2 8391  11.153  12.895   0.927
 2187SOL     OW 8392   5.490   0.546  11.533
 2187SOL    HW1 8393   5.419   0.500  11.577
 2187SOL    HW2 8394   5.560   0.481  11.526
 2188SOL     OW 8395  14.117  13.976  12.566
 2188SOL    HW1 8396  14.029  13.937  12.573
 2188SOL    HW2 8397  14.113  14.030  12.488
 2189SOL     OW 8398   3.327  10.201   1.055
 2189SOL    HW1 8399   3.240  10.180   1.022
 2189SOL    HW2 8400   3.377  10.224   0.977
 2190SOL     OW 8401   8.573   2.134   8.659
 2190SOL    HW1 8402   8.494   2.082   8.645
 2190SOL    HW2 8403   8.544   2.208   8.712
 2191SOL     OW 8404   9.324  13.470   4.613
 2191SOL    HW1 8405   9.309  13.378   4.632
 2191SOL    HW2 8406   9.400  13.493   4.667
 2192SOL     OW 8407   5.298  14.371   0.722
 2192SOL    HW1 8408   5.246  14.380   0.642
 2192SOL    HW2 8409   5.386  14.398   0.696
 2193SOL     OW 8410  13.782   1.771   0.204
 2193SOL    HW1 8411  13.869   1.807   0.186
 2193SOL    HW2 8412  13.769   1.704   0.137
 2194SOL     OW 8413   3.143   1.449   2.415
 2194SOL    HW1 8414   3.053   1.456   2.448
 2194SOL    HW2 8415   3.183   1.380   2.469
 2195SOL     OW 8416  11.310   4.557   3.232
 2195SOL    HW1 8417  11.293   4.539   3.324
 2195SOL    HW2 8418  11.367   4.486   3.203
 2196SOL     OW 8419   4.398  13.891  10.766
 2196SOL    HW1 8420   4.318  13.939  10.744
 2196SOL    HW2 8421   4.406  13.902  10.861
 2197SOL     OW 8422  12.252   8.512   8.575
 2197SOL    HW1 8423  12.203   8.549   8.648
 2197SOL    HW2 8424  12.197   8.527   8.498
 2198SOL     OW 8425   8.748   5.663  13.178
 2198SOL    HW1 8426   8.681   5.619  13.231
 2198SOL    HW2 8427   8.804   5.592  13.147
 2199SOL     OW 8428   3.428   5.782   6.651
 2199SOL    HW1 8429   3.393   5.788   6.740
 2199SOL    HW2 8430   3.418   5.690   6.627
 2200SOL     OW 8431   6.014   9.474   5.717
 2200SOL    HW1 8432   6.051   9.444   5.800
 2200SOL    HW2 8433   5.971   9.397   5.680
 2201SOL     OW 8434  10.798   6.978  13.105
 2201SOL    HW1 8435  10.808   6.884  13.090
 2201SOL    HW2 8436  10.744   6.984  13.184
 2202SOL     OW 8437   4.235  13.421  11.163
 2202SOL    HW1 8438   4.323  13.435  11.129
 2202SOL    HW2 8439   4.224  13.488  11.231
 2203SOL     OW 8440   2.335  13.188   7.143
 2203SOL    HW1 8441   2.313  13.202   7.235
 2203SOL    HW2 8442   2.362  13.096   7.138
 2204SOL     OW 8443   0.175   0.710   5.666
 2204SOL    HW1 8444   0.089   0.711   5.624
 2204SOL    HW2 8445   0.227   0.772   5.614
 2205SOL     OW 8446   8.127   7.561   0.902
 2205SOL    HW1 8447   8.135   7.466   0.892
 2205SOL    HW2 8448   8.217   7.591   0.915
 2206SOL     OW 8449   2.560   1.888   5.655
 2206SOL    HW1 8450   2.549   1.954   5.586
 2206SOL    HW2 8451   2.471   1.871   5.686
 2207SOL     OW 8452   2.961   9.106   1.923
 2207SOL    HW1 8453   2.977   9.178   1.862
 2207SOL    HW2 8454   2.871   9.078   1.903
 2208SOL     OW 8455   1.153   8.851   2.433
 2208SOL    HW1 8456   1.185   8.808   2.353
 2208SOL    HW2 8457   1.074   8.802   2.457
 2209SOL     OW 8458  12.882   6.905   5.827
 2209SOL    HW1 8459  12.914   6.816   5.818
 2209SOL    HW2 8460  12.953   6.952   5.871
 2210SOL     OW 8461   9.537   2.418   0.302
 2210SOL    HW1 8462   9.563   2.333   0.336
 2210SOL    HW2 8463   9.597   2.434   0.229
 2211SOL     OW 8464   6.627  11.478   0.220
 2211SOL    HW1 8465   6.662  11.415   0.283
 2211SOL    HW2 8466   6.654  11.563   0.254
 2212SOL     OW 8467   3.910   4.608   6.464
 2212SOL    HW1 8468   3.869   4.692   6.487
 2212SOL    HW2 8469   3.974   4.630   6.397
 2213SOL     OW 8470   7.334   3.165   4.556
 2213SOL    HW1 8471   7.349   3.232   4.622
 2213SOL    HW2 8472   7.239   3.154   4.554
 2214SOL     OW 8473  13.680   7.796   2.086
 2214SOL    HW1 8474  13.728   7.762   2.161
 2214SOL    HW2 8475  13.668   7.889   2.105
 2215SOL     OW 8476  10.805  10.053   9.508
 2215SOL    HW1 8477  10.832   9.970   9.467
 2215SOL    HW2 8478  10.762  10.026   9.589
 2216SOL     OW 8479   4.652   0.947  10.097
 2216SOL    HW1 8480   4.655   0.922  10.005
 2216SOL    HW2 8481   4.562   0.927  10.125
 2217SOL     OW 8482   1.350   2.959  12.679
 2217SOL    HW1 8483   1.328   2.879  12.632
 2217SOL    HW2 8484   1.388   2.928  12.761
 2218SOL     OW 8485  10.185   2.075  11.744
 2218SOL    HW1 8486  10.253   2.138  11.767
 2218SOL    HW2 8487  10.172   2.023  11.824
 2219SOL     OW 8488   5.742   8.754   1.485
 2219SOL    HW1 8489   5.796   8.697   1.431
 2219SOL    HW2 8490   5.658   8.708   1.493
 2220SOL     OW 8491   6.185   0.697  11.619
 2220SOL    HW1 8492   6.182   0.680  11.525
 2220SOL    HW2 8493   6.264   0.653  11.649
 2221SOL     OW 8494   6.271  12.860   7.686
 2221SOL    HW1 8495   6.301  12.931   7.743
 2221SOL    HW2 8496   6.352  12.818   7.656
 2222SOL     OW 8497   4.776   4.482  13.231
 2222SOL    HW1 8498   4.871   4.471  13.232
 2222SOL    HW2 8499   4.761   4.572  13.260
 2223SOL     OW 8500   5.101   0.586  12.592
 2223SOL    HW1 8501   5.054   0.512  12.552
 2223SOL    HW2 8502   5.034   0.653  12.603
 2224SOL     OW 8503   2.568   2.294   4.083
 2224SOL    HW1 8504   2.511   2.370   4.090
 2224SOL    HW2 8505   2.631   2.317   4.015
 2225SOL     OW 8506  14.286   0.128  11.630
 2225SOL    HW1 8507  14.264   0.105  11.720
 2225SOL    HW2 8508  14.262   0.221  11.623
 2226SOL     OW 8509  12.986  13.065  10.600
 2226SOL    HW1 8510  12.960  13.009  10.673
 2226SOL    HW2 8511  13.044  13.130  10.639
 2227SOL     OW 8512  13.821   8.345  12.606
 2227SOL    HW1 8513  13.785   8.272  12.556
 2227SOL    HW2 8514  13.808   8.319  12.698
 2228SOL     OW 8515   5.867   3.979   1.608
 2228SOL    HW1 8516   5.884   3.925   1.531
 2228SOL    HW2 8517   5.883   4.069   1.578
 2229SOL     OW 8518   4.663   5.394   8.088
 2229SOL    HW1 8519   4.639   5.359   8.002
 2229SOL    HW2 8520   4.588   5.447   8.114
 2230SOL     OW 8521  13.292   1.819   3.759
 2230SOL    HW1 8522  13.281   1.848   3.850
 2230SOL    HW2 8523  13.348   1.741   3.766
 2231SOL     OW 8524   4.958   4.925   8.355
 2231SOL    HW1 8525   4.863   4.929   8.359
 2231SOL    HW2 8526   4.986   4.915   8.446
 2232SOL     OW 8527   1.506   5.965   1.370
 2232SOL    HW1 8528   1.555   6.019   1.307
 2232SOL    HW2 8529   1.420   6.008   1.375
 2233SOL     OW 8530  10.792   8.348  13.213
 2233SOL    HW1 8531  10.712   8.339  13.263
 2233SOL    HW2 8532  10.842   8.416  13.259
 2234SOL     OW 8533   4.120   1.954  12.918
 2234SOL    HW1 8534   4.069   2.002  12.983
 2234SOL    HW2 8535   4.175   2.020  12.877
 2235SOL     OW 8536  14.290   0.122  14.667
 2235SOL    HW1 8537  14.291   0.119  14.572
 2235SOL    HW2 8538  14.366   0.175  14.690
 2236SOL     OW 8539   4.817  13.403   0.230
 2236SOL    HW1 8540   4.744  13.354   0.191
 2236SOL    HW2 8541   4.858  13.446   0.155
 2237SOL     OW 8542  12.257  10.223   6.148
 2237SOL    HW1 8543  12.173  10.221   6.103
 2237SOL    HW2 8544  12.259  10.142   6.199
 2238SOL     OW 8545   4.763  13.490   8.989
 2238SOL    HW1 8546   4.821  13.535   9.051
 2238SOL    HW2 8547   4.675  13.514   9.017
 2239SOL     OW 8548  13.733   7.039   7.514
 2239SOL    HW1 8549  13.808   6.982   7.528
 2239SOL    HW2 8550  13.705   7.022   7.424
 2240SOL     OW 8551  11.319   3.451   9.698
 2240SOL    HW1 8552  11.298   3.534   9.655
 2240SOL    HW2 8553  11.326   3.389   9.626
 2241SOL     OW 8554   9.138   5.236  13.676
 2241SOL    HW1 8555   9.142   5.196  13.589
 2241SOL    HW2 8556   9.213   5.295  13.679
 2242SOL     OW 8557   1.298  14.206   9.367
 2242SOL    HW1 8558   1.316  14.290   9.409
 2242SOL    HW2 8559   1.379  14.155   9.379
 2243SOL     OW 8560   8.616  10.286   5.940
 2243SOL    HW1 8561   8.526  10.253   5.940
 2243SOL    HW2 8562   8.607  10.380   5.957
 2244SOL     OW 8563   8.659  11.950  11.378
 2244SOL    HW1 8564   8.732  11.936  11.317
 2244SOL    HW2 8565   8.687  11.905  11.458
 2245SOL     OW 8566   2.096  11.303   1.471
 2245SOL    HW1 8567   2.152  11.227   1.458
 2245SOL    HW2 8568   2.155  11.372   1.500
 2246SOL     OW 8569   2.498   7.311   8.672
 2246SOL    HW1 8570   2.490   7.279   8.762
 2246SOL    HW2 8571   2.465   7.240   8.618
 2247SOL     OW 8572  10.758  13.580  12.570
 2247SOL    HW1 8573  10.698  13.653  12.588
 2247SOL    HW2 8574  10.716  13.504  12.609
 2248SOL     OW 8575   2.171   0.593   1.484
 2248SOL    HW1 8576   2.211   0.637   1.410
 2248SOL    HW2 8577   2.237   0.597   1.553
 2249SOL     OW 8578  11.918   4.034  13.665
 2249SOL    HW1 8579  11.928   4.126  13.643
 2249SOL    HW2 8580  11.830   4.027  13.703
 2250SOL     OW 8581   7.481   4.809   0.477
 2250SOL    HW1 8582   7.505   4.717   0.468
 2250SOL    HW2 8583   7.564   4.857   0.473
 2251SOL     OW 8584   2.794   3.646   8.362
 2251SOL    HW1 8585   2.826   3.668   8.274
 2251SOL    HW2 8586   2.872   3.620   8.410
 2252SOL     OW 8587   9.063   1.027   2.933
 2252SOL    HW1 8588   9.029   1.041   2.845
 2252SOL    HW2 8589   9.128   0.958   2.923
 2253SOL     OW 8590   8.479   0.805   3.103
 2253SOL    HW1 8591   8.504   0.781   3.192
 2253SOL    HW2 8592   8.547   0.866   3.074
 2254SOL     OW 8593  10.856  13.948   8.717
 2254SOL    HW1 8594  10.933  13.911   8.760
 2254SOL    HW2 8595  10.811  13.873   8.680
 2255SOL     OW 8596  12.279   7.593  14.442
 2255SOL    HW1 8597  12.231   7.626  14.518
 2255SOL    HW2 8598  12.256   7.653  14.371
 2256SOL     OW 8599   7.759   0.577   1.449
 2256SOL    HW1 8600   7.750   0.650   1.510
 2256SOL    HW2 8601   7.705   0.602   1.374
 2257SOL     OW 8602  12.453   2.463  10.388
 2257SOL    HW1 8603  12.361   2.465  10.362
 2257SOL    HW2 8604  12.485   2.551  10.370
 2258SOL     OW 8605   9.940   6.685   9.420
 2258SOL    HW1 8606   9.949   6.733   9.338
 2258SOL    HW2 8607  10.008   6.617   9.416
 2259SOL     OW 8608  13.989  14.839   9.747
 2259SOL    HW1 8609  13.905   0.012   9.749
 2259SOL    HW2 8610  13.985  14.778   9.821
 2260SOL     OW 8611   9.843   8.607  11.763
 2260SOL    HW1 8612   9.909   8.546  11.728
 2260SOL    HW2 8613   9.883   8.644  11.841
 2261SOL     OW 8614  12.441  12.526   4.847
 2261SOL    HW1 8615  12.384  12.601   4.831
 2261SOL    HW2 8616  12.421  12.500   4.937
 2262SOL     OW 8617  12.282  12.782   1.510
 2262SOL    HW1 8618  12.313  12.735   1.587
 2262SOL    HW2 8619  12.216  12.726   1.472
 2263SOL     OW 8620   4.815   2.501   0.600
 2263SOL    HW1 8621   4.894   2.550   0.621
 2263SOL    HW2 8622   4.819   2.489   0.505
 2264SOL     OW 8623   4.579   1.875   7.039
 2264SOL    HW1 8624   4.630   1.832   6.971
 2264SOL    HW2 8625   4.554   1.959   7.001
 2265SOL     OW 8626  12.249   1.777   2.724
 2265SOL    HW1 8627  12.340   1.795   2.747
 2265SOL    HW2 8628  12.253   1.707   2.660
 2266SOL     OW 8629  14.576  14.718   4.282
 2266SOL    HW1 8630  14.525  14.644   4.249
 2266SOL    HW2 8631  14.607  14.763   4.204
 2267SOL     OW 8632   2.764   5.235  12.566
 2267SOL    HW1 8633   2.841   5.284  12.540
 2267SOL    HW2 8634   2.796   5.173  12.631
 2268SOL     OW 8635   7.367   8.732   9.836
 2268SOL    HW1 8636   7.431   8.664   9.819
 2268SOL    HW2 8637   7.291   8.707   9.783
 2269SOL     OW 8638  10.863   9.763   9.763
 2269SOL    HW1 8639  10.938   9.821   9.752
 2269SOL    HW2 8640  10.890   9.681   9.722
 2270SOL     OW 8641  13.280  13.043  10.276
 2270SOL    HW1 8642  13.185  13.056  10.278
 2270SOL    HW2 8643  13.304  13.060  10.186
 2271SOL     OW 8644   6.046  10.753  12.092
 2271SOL    HW1 8645   6.087  10.834  12.062
 2271SOL    HW2 8646   5.957  10.758  12.057
 2272SOL     OW 8647   2.873   0.184   7.614
 2272SOL    HW1 8648   2.821   0.212   7.689
 2272SOL    HW2 8649   2.907   0.265   7.577
 2273SOL     OW 8650  13.429   0.186   8.964
 2273SOL    HW1 8651  13.345   0.159   8.928
 2273SOL    HW2 8652  13.487   0.192   8.887
 2274SOL     OW 8653  13.579   4.045   5.478
 2274SOL    HW1 8654  13.535   4.074   5.558
 2274SOL    HW2 8655  13.664   4.013   5.508
 2275SOL     OW 8656   1.745  13.566   0.542
 2275SOL    HW1 8657   1.714  13.657   0.543
 2275SOL    HW2 8658   1.835  13.571   0.571
 2276SOL     OW 8659  11.081   0.900   8.627
 2276SOL    HW1 8660  11.153   0.957   8.600
 2276SOL    HW2 8661  11.013   0.960   8.657
 2277SOL     OW 8662   2.501  13.937  12.466
 2277SOL    HW1 8663   2.571  13.965  12.407
 2277SOL    HW2 8664   2.504  13.842  12.465
 2278SOL     OW 8665   2.904  11.610  12.930
 2278SOL    HW1 8666   2.879  11.604  13.022
 2278SOL    HW2 8667   2.976  11.548  12.921
 2279SOL     OW 8668   1.260   3.272   0.410
 2279SOL    HW1 8669   1.345   3.229   0.399
 2279SOL    HW2 8670   1.272   3.360   0.374
 2280SOL     OW 8671  14.866   0.415   1.885
 2280SOL    HW1 8672   0.027   0.474   1.817
 2280SOL    HW2 8673   0.065   0.351   1.897
 2281SOL     OW 8674   5.563  11.869   9.301
 2281SOL    HW1 8675   5.490  11.814   9.329
 2281SOL    HW2 8676   5.530  11.959   9.312
 2282SOL     OW 8677  12.566   4.361   7.940
 2282SOL    HW1 8678  12.497   4.427   7.945
 2282SOL    HW2 8679  12.560   4.327   7.850
 2283SOL     OW 8680   1.847   2.249   9.046
 2283SOL    HW1 8681   1.808   2.163   9.030
 2283SOL    HW2 8682   1.799   2.283   9.122
 2284SOL     OW 8683   1.081  11.373   7.030
 2284SOL    HW1 8684   1.137  11.410   6.961
 2284SOL    HW2 8685   0.998  11.419   7.021
 2285SOL     OW 8686   2.755  11.068  11.328
 2285SOL    HW1 8687   2.753  10.983  11.372
 2285SOL    HW2 8688   2.824  11.117  11.375
 2286SOL     OW 8689  10.501   5.714   8.852
 2286SOL    HW1 8690  10.537   5.790   8.898
 2286SOL    HW2 8691  10.435   5.751   8.794
 2287SOL     OW 8692  12.583  13.065   5.479
 2287SOL    HW1 8693  12.674  13.078   5.455
 2287SOL    HW2 8694  12.534  13.120   5.417
 2288SOL     OW 8695   5.159   0.517   7.321
 2288SOL    HW1 8696   5.112   0.480   7.246
 2288SOL    HW2 8697   5.248   0.483   7.312
 2289SOL     OW 8698   0.390  10.471   7.583
 2289SOL    HW1 8699   0.403  10.565   7.595
 2289SOL    HW2 8700   0.477  10.437   7.565
 2290SOL     OW 8701  14.406   8.201   6.275
 2290SOL    HW1 8702  14.358   8.132   6.321
 2290SOL    HW2 8703  14.359   8.282   6.297
 2291SOL     OW 8704   3.804  13.268   9.022
 2291SOL    HW1 8705   3.733  13.268   9.086
 2291SOL    HW2 8706   3.843  13.355   9.030
 2292SOL     OW 8707   5.211   2.922   7.839
 2292SOL    HW1 8708   5.245   3.010   7.859
 2292SOL    HW2 8709   5.155   2.935   7.763
 2293SOL     OW 8710   7.260   3.146   3.163
 2293SOL    HW1 8711   7.205   3.100   3.099
 2293SOL    HW2 8712   7.335   3.176   3.112
 2294SOL     OW 8713   2.875  10.415   8.508
 2294SOL    HW1 8714   2.854  10.381   8.422
 2294SOL    HW2 8715   2.913  10.341   8.555
 2295SOL     OW 8716   2.531   6.441  13.548
 2295SOL    HW1 8717   2.489   6.407  13.469
 2295SOL    HW2 8718   2.540   6.535  13.531
 2296SOL     OW 8719   5.381  11.178  12.250
 2296SOL    HW1 8720   5.443  11.245  12.279
 2296SOL    HW2 8721   5.435  11.099  12.242
 2297SOL     OW 8722  11.092   1.352  11.724
 2297SOL    HW1 8723  11.092   1.286  11.794
 2297SOL    HW2 8724  11.176   1.397  11.735
 2298SOL     OW 8725   9.525  10.071   1.467
 2298SOL    HW1 8726   9.465  10.072   1.541
 2298SOL    HW2 8727   9.515  10.158   1.427
 2299SOL     OW 8728  12.764   1.079   8.749
 2299SOL    HW1 8729  12.695   1.052   8.690
 2299SOL    HW2 8730  12.803   1.156   8.708
 2300SOL     OW 8731   2.241   5.105   8.816
 2300SOL    HW1 8732   2.260   5.052   8.738
 2300SOL    HW2 8733   2.323   5.104   8.866
 2301SOL     OW 8734   5.954  12.588   6.030
 2301SOL    HW1 8735   6.025  12.589   5.965
 2301SOL    HW2 8736   5.877  12.559   5.980
 2302SOL     OW 8737   8.670  11.246   8.783
 2302SOL    HW1 8738   8.694  11.338   8.792
 2302SOL    HW2 8739   8.580  11.241   8.815
 2303SOL     OW 8740  14.770  13.638   6.617
 2303SOL    HW1 8741  14.860  13.660   6.596
 2303SOL    HW2 8742  14.720  13.715   6.587
 2304SOL     OW 8743   1.959   3.324   4.887
 2304SOL    HW1 8744   2.031   3.267   4.913
 2304SOL    HW2 8745   1.919   3.278   4.813
 2305SOL     OW 8746   8.238   4.133   3.833
 2305SOL    HW1 8747   8.316   4.112   3.782
 2305SOL    HW2 8748   8.171   4.149   3.767
 2306SOL     OW 8749   2.258  14.660   4.331
 2306SOL    HW1 8750   2.201  14.622   4.264
 2306SOL    HW2 8751   2.199  14.709   4.388
 2307SOL     OW 8752   2.661   9.010  11.606
 2307SOL    HW1 8753   2.644   8.978  11.517
 2307SOL    HW2 8754   2.754   9.033  11.605
 2308SOL     OW 8755  12.239  11.640   1.132
 2308SOL    HW1 8756  12.304  11.676   1.072
 2308SOL    HW2 8757  12.290  11.604   1.204
 2309SOL     OW 8758   9.460   9.902   8.910
 2309SOL    HW1 8759   9.464   9.809   8.932
 2309SOL    HW2 8760   9.372   9.914   8.873
 2310SOL     OW 8761   7.174   2.503  14.673
 2310SOL    HW1 8762   7.127   2.571  14.722
 2310SOL    HW2 8763   7.177   2.429  14.733
 2311SOL     OW 8764  12.802   1.422  14.037
 2311SOL    HW1 8765  12.783   1.507  13.997
 2311SOL    HW2 8766  12.895   1.409  14.022
 2312SOL     OW 8767   9.189   8.049   9.232
 2312SOL    HW1 8768   9.153   8.040   9.143
 2312SOL    HW2 8769   9.181   8.142   9.251
 2313SOL     OW 8770   7.884   2.880  11.966
 2313SOL    HW1 8771   7.804   2.847  12.007
 2313SOL    HW2 8772   7.872   2.974  11.960
 2314SOL     OW 8773   4.279  14.352   5.348
 2314SOL    HW1 8774   4.244  14.401   5.274
 2314SOL    HW2 8775   4.287  14.262   5.314
 2315SOL     OW 8776   3.897  13.505   4.970
 2315SOL    HW1 8777   3.970  13.443   4.970
 2315SOL    HW2 8778   3.930  13.580   5.019
 2316SOL     OW 8779  12.981   9.919  11.898
 2316SOL    HW1 8780  12.902   9.898  11.848
 2316SOL    HW2 8781  12.951   9.978  11.966
 2317SOL     OW 8782   7.611   9.687  10.137
 2317SOL    HW1 8783   7.670   9.682  10.212
 2317SOL    HW2 8784   7.583   9.596  10.122
 2318SOL     OW 8785   9.076   6.686  10.658
 2318SOL    HW1 8786   9.122   6.724  10.584
 2318SOL    HW2 8787   9.145   6.656  10.717
 2319SOL     OW 8788   6.740  11.897   2.991
 2319SOL    HW1 8789   6.748  11.979   2.942
 2319SOL    HW2 8790   6.687  11.920   3.068
 2320SOL     OW 8791   5.936   3.000   7.451
 2320SOL    HW1 8792   5.958   3.039   7.536
 2320SOL    HW2 8793   5.847   2.967   7.462
 2321SOL     OW 8794   9.757  13.838   0.832
 2321SOL    HW1 8795   9.745  13.879   0.917
 2321SOL    HW2 8796   9.759  13.744   0.849
 2322SOL     OW 8797   3.930  10.937  10.004
 2322SOL    HW1 8798   3.954  11.030  10.005
 2322SOL    HW2 8799   4.006  10.892  10.042
 2323SOL     OW 8800  14.702   0.301  10.108
 2323SOL    HW1 8801  14.670   0.372  10.164
 2323SOL    HW2 8802  14.773   0.341  10.058
 2324SOL     OW 8803   4.676  13.035   5.999
 2324SOL    HW1 8804   4.669  13.040   6.094
 2324SOL    HW2 8805   4.653  13.123   5.969
 2325SOL     OW 8806   2.077   9.443  12.395
 2325SOL    HW1 8807   2.157   9.494  12.403
 2325SOL    HW2 8808   2.058   9.414  12.484
 2326SOL     OW 8809   3.869   0.376   1.841
 2326SOL    HW1 8810   3.893   0.395   1.750
 2326SOL    HW2 8811   3.863   0.281   1.845
 2327SOL     OW 8812   3.980   1.230   3.040
 2327SOL    HW1 8813   3.952   1.144   3.071
 2327SOL    HW2 8814   4.076   1.224   3.037
 2328SOL     OW 8815   9.594  11.789  11.465
 2328SOL    HW1 8816   9.557  11.876  11.480
 2328SOL    HW2 8817   9.637  11.796  11.379
 2329SOL     OW 8818   9.976  11.153  14.341
 2329SOL    HW1 8819  10.058  11.170  14.296
 2329SOL    HW2 8820   9.989  11.187  14.429
 2330SOL     OW 8821   1.256  14.628  12.049
 2330SOL    HW1 8822   1.335  14.605  12.098
 2330SOL    HW2 8823   1.275  14.598  11.959
 2331SOL     OW 8824  12.361  10.220   1.638
 2331SOL    HW1 8825  12.303  10.173   1.698
 2331SOL    HW2 8826  12.305  10.247   1.566
 2332SOL     OW 8827   1.418  13.046  10.411
 2332SOL    HW1 8828   1.510  13.021  10.422
 2332SOL    HW2 8829   1.387  12.992  10.338
 2333SOL     OW 8830  14.728   2.371  12.038
 2333SOL    HW1 8831  14.702   2.431  11.968
 2333SOL    HW2 8832  14.818   2.396  12.059
 2334SOL     OW 8833   5.245  14.432   0.115
 2334SOL    HW1 8834   5.288  14.348   0.129
 2334SOL    HW2 8835   5.191  14.420   0.037
 2335SOL     OW 8836   8.508   3.011  10.801
 2335SOL    HW1 8837   8.528   3.088  10.855
 2335SOL    HW2 8838   8.565   3.021  10.724
 2336SOL     OW 8839   0.779   1.588   6.274
 2336SOL    HW1 8840   0.841   1.522   6.306
 2336SOL    HW2 8841   0.834   1.662   6.248
 2337SOL     OW 8842   5.261   5.888   3.391
 2337SOL    HW1 8843   5.206   5.817   3.359
 2337SOL    HW2 8844   5.336   5.889   3.331
 2338SOL     OW 8845  13.042   7.143   4.594
 2338SOL    HW1 8846  13.033   7.117   4.502
 2338SOL    HW2 8847  13.030   7.062   4.643
 2339SOL     OW 8848   4.039  14.029   8.694
 2339SOL    HW1 8849   4.134  14.031   8.708
 2339SOL    HW2 8850   4.006  13.968   8.761
 2340SOL     OW 8851   1.256   9.725   0.561
 2340SOL    HW1 8852   1.280   9.638   0.531
 2340SOL    HW2 8853   1.259   9.719   0.657
 2341SOL     OW 8854   7.973  11.855   0.602
 2341SOL    HW1 8855   8.044  11.915   0.581
 2341SOL    HW2 8856   8.017  11.771   0.617
 2342SOL     OW 8857  14.132   9.226   2.649
 2342SOL    HW1 8858  14.120   9.140   2.689
 2342SOL    HW2 8859  14.164   9.282   2.720
 2343SOL     OW 8860   9.361  11.701  14.330
 2343SOL    HW1 8861   9.438  11.728  14.280
 2343SOL    HW2 8862   9.391  11.700  14.421
 2344SOL     OW 8863  13.223   5.524   9.270
 2344SOL    HW1 8864  13.176   5.452   9.229
 2344SOL    HW2 8865  13.157   5.569   9.322
 2345SOL     OW 8866   0.485  10.459  13.532
 2345SOL    HW1 8867   0.513  10.415  13.612
 2345SOL    HW2 8868   0.442  10.538  13.562
 2346SOL     OW 8869  12.411   4.020   2.630
 2346SOL    HW1 8870  12.322   3.990   2.616
 2346SOL    HW2 8871  12.405   4.116   2.630
 2347SOL     OW 8872   1.201   4.452   8.995
 2347SOL    HW1 8873   1.165   4.366   9.014
 2347SOL    HW2 8874   1.135   4.493   8.939
 2348SOL     OW 8875   7.595   0.615  14.031
 2348SOL    HW1 8876   7.690   0.608  14.021
 2348SOL    HW2 8877   7.561   0.601  13.942
 2349SOL     OW 8878   5.270   3.299  13.594
 2349SOL    HW1 8879   5.290   3.299  13.500
 2349SOL    HW2 8880   5.354   3.310  13.637
 2350SOL     OW 8881  13.402   0.720   3.540
 2350SOL    HW1 8882  13.435   0.651   3.598
 2350SOL    HW2 8883  13.460   0.794   3.556
 2351SOL     OW 8884   7.220  14.245  13.685
 2351SOL    HW1 8885   7.242  14.328  13.644
 2351SOL    HW2 8886   7.294  14.188  13.667
 2352SOL     OW 8887   1.024   9.169   0.997
 2352SOL    HW1 8888   0.973   9.171   1.077
 2352SOL    HW2 8889   1.001   9.086   0.956
 2353SOL     OW 8890   0.859   7.783  13.418
 2353SOL    HW1 8891   0.850   7.810  13.509
 2353SOL    HW2 8892   0.887   7.692  13.422
 2354SOL     OW 8893  13.840   9.017   9.988
 2354SOL    HW1 8894  13.871   8.941  10.038
 2354SOL    HW2 8895  13.775   8.981   9.928
 2355SOL     OW 8896   9.617  10.894   7.069
 2355SOL    HW1 8897   9.687  10.954   7.042
 2355SOL    HW2 8898   9.625  10.820   7.009
 2356SOL     OW 8899   6.647   9.907   6.181
 2356SOL    HW1 8900   6.693   9.861   6.251
 2356SOL    HW2 8901   6.703   9.982   6.162
 2357SOL     OW 8902  12.135   0.750  11.803
 2357SOL    HW1 8903  12.163   0.665  11.839
 2357SOL    HW2 8904  12.048   0.763  11.841
 2358SOL     OW 8905  14.254   0.625   9.443
 2358SOL    HW1 8906  14.165   0.640   9.475
 2358SOL    HW2 8907  14.259   0.531   9.429
 2359SOL     OW 8908  11.239  12.427   0.220
 2359SOL    HW1 8909  11.284  12.490   0.164
 2359SOL    HW2 8910  11.147  12.434   0.195
 2360SOL     OW 8911   3.589  12.112   9.817
 2360SOL    HW1 8912   3.601  12.040   9.879
 2360SOL    HW2 8913   3.565  12.069   9.735
 2361SOL     OW 8914   2.366  11.530  11.486
 2361SOL    HW1 8915   2.414  11.600  11.529
 2361SOL    HW2 8916   2.421  11.453  11.498
 2362SOL     OW 8917   3.048   8.015   7.794
 2362SOL    HW1 8918   3.121   7.963   7.761
 2362SOL    HW2 8919   3.076   8.042   7.882
 2363SOL     OW 8920  13.500   0.484   1.676
 2363SOL    HW1 8921  13.495   0.513   1.585
 2363SOL    HW2 8922  13.519   0.564   1.725
 2364SOL     OW 8923  13.658   6.422  12.048
 2364SOL    HW1 8924  13.563   6.432  12.059
 2364SOL    HW2 8925  13.668   6.344  11.994
 2365SOL     OW 8926  11.559   5.314   6.973
 2365SOL    HW1 8927  11.470   5.289   6.999
 2365SOL    HW2 8928  11.551   5.407   6.951
 2366SOL     OW 8929   8.545  12.652   1.055
 2366SOL    HW1 8930   8.572  12.606   0.975
 2366SOL    HW2 8931   8.523  12.583   1.117
 2367SOL     OW 8932   5.696  11.291   5.908
 2367SOL    HW1 8933   5.671  11.383   5.913
 2367SOL    HW2 8934   5.770  11.290   5.848
 2368SOL     OW 8935  11.397   1.555   7.549
 2368SOL    HW1 8936  11.438   1.474   7.579
 2368SOL    HW2 8937  11.377   1.603   7.630
 2369SOL     OW 8938   1.062   8.911  13.617
 2369SOL    HW1 8939   1.133   8.970  13.642
 2369SOL    HW2 8940   1.099   8.858  13.546
 2370SOL     OW 8941  12.339   9.412   2.350
 2370SOL    HW1 8942  12.289   9.367   2.283
 2370SOL    HW2 8943  12.304   9.501   2.350
 2371SOL     OW 8944   0.453   3.869   7.709
 2371SOL    HW1 8945   0.467   3.864   7.803
 2371SOL    HW2 8946   0.486   3.785   7.675
 2372SOL     OW 8947  10.088   5.893   5.971
 2372SOL    HW1 8948  10.028   5.872   5.900
 2372SOL    HW2 8949  10.130   5.809   5.991
 2373SOL     OW 8950   6.421  12.191   1.159
 2373SOL    HW1 8951   6.425  12.231   1.073
 2373SOL    HW2 8952   6.477  12.247   1.214
 2374SOL     OW 8953  12.314   1.793  13.520
 2374SOL    HW1 8954  12.404   1.771  13.545
 2374SOL    HW2 8955  12.262   1.721  13.556
 2375SOL     OW 8956   7.280   3.973  12.100
 2375SOL    HW1 8957   7.272   3.928  12.184
 2375SOL    HW2 8958   7.348   4.038  12.113
 2376SOL     OW 8959  12.641   9.941   3.889
 2376SOL    HW1 8960  12.594  10.024   3.892
 2376SOL    HW2 8961  12.717   9.959   3.834
 2377SOL     OW 8962   7.379   7.365  10.967
 2377SOL    HW1 8963   7.353   7.273  10.959
 2377SOL    HW2 8964   7.440   7.367  11.040
 2378SOL     OW 8965   3.016   5.921   4.569
 2378SOL    HW1 8966   2.976   5.980   4.633
 2378SOL    HW2 8967   3.013   5.969   4.486
 2379SOL     OW 8968   5.219  10.160  12.090
 2379SOL    HW1 8969   5.249  10.180  12.001
 2379SOL    HW2 8970   5.286  10.197  12.147
 2380SOL     OW 8971  13.690   4.689   5.572
 2380SOL    HW1 8972  13.639   4.609   5.582
 2380SOL    HW2 8973  13.679   4.736   5.655
 2381SOL     OW 8974  12.931   2.890  12.533
 2381SOL    HW1 8975  12.905   2.963  12.478
 2381SOL    HW2 8976  12.851   2.862  12.576
 2382SOL     OW 8977  10.874   6.741  14.550
 2382SOL    HW1 8978  10.827   6.757  14.468
 2382SOL    HW2 8979  10.814   6.688  14.602
 2383SOL     OW 8980  14.482   3.940   8.687
 2383SOL    HW1 8981  14.434   3.871   8.641
 2383SOL    HW2 8982  14.463   4.020   8.638
 2384SOL     OW 8983   0.534   2.597  13.946
 2384SOL    HW1 8984   0.625   2.627  13.943
 2384SOL    HW2 8985   0.504   2.620  14.034
 2385SOL     OW 8986   6.629  12.005  13.555
 2385SOL    HW1 8987   6.685  11.935  13.588
 2385SOL    HW2 8988   6.688  12.081  13.547
 2386SOL     OW 8989   5.821   5.151   2.712
 2386SOL    HW1 8990   5.771   5.075   2.741
 2386SOL    HW2 8991   5.793   5.222   2.770
 2387SOL     OW 8992   8.549  12.036   3.460
 2387SOL    HW1 8993   8.612  12.102   3.431
 2387SOL    HW2 8994   8.591  11.994   3.535
 2388SOL     OW 8995   1.039   3.814   5.096
 2388SOL    HW1 8996   1.113   3.786   5.151
 2388SOL    HW2 8997   0.963   3.770   5.134
 2389SOL     OW 8998   4.294   2.874   4.049
 2389SOL    HW1 8999   4.284   2.803   3.986
 2389SOL    HW2 9000   4.209   2.918   4.050
 2390SOL     OW 9001   9.939   9.422   4.086
 2390SOL    HW1 9002  10.015   9.417   4.027
 2390SOL    HW2 9003   9.945   9.341   4.138
 2391SOL     OW 9004   0.613  12.477   1.181
 2391SOL    HW1 9005   0.598  12.564   1.217
 2391SOL    HW2 9006   0.533  12.428   1.201
 2392SOL     OW 9007  13.267   1.076   5.859
 2392SOL    HW1 9008  13.285   1.167   5.836
 2392SOL    HW2 9009  13.216   1.081   5.939
 2393SOL     OW 9010  13.527   1.567   8.077
 2393SOL    HW1 9011  13.583   1.543   8.003
 2393SOL    HW2 9012  13.525   1.663   8.075
 2394SOL     OW 9013  13.381  11.327  11.086
 2394SOL    HW1 9014  13.353  11.256  11.143
 2394SOL    HW2 9015  13.336  11.404  11.121
 2395SOL     OW 9016  14.562   5.898  13.690
 2395SOL    HW1 9017  14.514   5.859  13.763
 2395SOL    HW2 9018  14.611   5.825  13.651
 2396SOL     OW 9019   7.072  10.929   8.662
 2396SOL    HW1 9020   7.026  10.855   8.700
 2396SOL    HW2 9021   7.162  10.919   8.691
 2397SOL     OW 9022  14.092   0.459   5.891
 2397SOL    HW1 9023  14.162   0.507   5.937
 2397SOL    HW2 9024  14.019   0.521   5.888
 2398SOL     OW 9025   9.755   1.340   2.122
 2398SOL    HW1 9026   9.737   1.348   2.028
 2398SOL    HW2 9027   9.851   1.339   2.128
 2399SOL     OW 9028   3.465   8.788   4.098
 2399SOL    HW1 9029   3.377   8.754   4.113
 2399SOL    HW2 9030   3.453   8.881   4.080
 2400SOL     OW 9031   2.192   7.457  11.080
 2400SOL    HW1 9032   2.153   7.461  11.168
 2400SOL    HW2 9033   2.116   7.455  11.021
 2401SOL     OW 9034  13.593   8.665  11.004
 2401SOL    HW1 9035  13.669   8.694  11.054
 2401SOL    HW2 9036  13.629   8.618  10.929
 2402SOL     OW 9037  10.168  10.669   0.692
 2402SOL    HW1 9038  10.127  10.710   0.768
 2402SOL    HW2 9039  10.242  10.620   0.727
 2403SOL     OW 9040   0.666   3.304   8.943
 2403SOL    HW1 9041   0.580   3.296   8.901
 2403SOL    HW2 9042   0.646   3.311   9.036
 2404SOL     OW 9043   2.979   2.670  13.179
 2404SOL    HW1 9044   3.072   2.687  13.193
 2404SOL    HW2 9045   2.936   2.755  13.191
 2405SOL     OW 9046  10.336   2.569   6.710
 2405SOL    HW1 9047  10.303   2.658   6.712
 2405SOL    HW2 9048  10.380   2.562   6.626
 2406SOL     OW 9049   2.748   5.751   7.237
 2406SOL    HW1 9050   2.808   5.693   7.285
 2406SOL    HW2 9051   2.806   5.811   7.191
 2407SOL     OW 9052   3.305   8.024   0.103
 2407SOL    HW1 9053   3.344   8.032   0.016
 2407SOL    HW2 9054   3.219   7.986   0.088
 2408SOL     OW 9055  12.041   7.973   6.256
 2408SOL    HW1 9056  12.062   7.921   6.179
 2408SOL    HW2 9057  11.948   7.958   6.272
 2409SOL     OW 9058   1.049   7.273  12.873
 2409SOL    HW1 9059   1.059   7.357  12.916
 2409SOL    HW2 9060   1.097   7.282  12.790
 2410SOL     OW 9061   5.044   2.626  11.299
 2410SOL    HW1 9062   5.087   2.596  11.218
 2410SOL    HW2 9063   4.954   2.595  11.291
 2411SOL     OW 9064   6.501   0.147   3.760
 2411SOL    HW1 9065   6.591   0.125   3.785
 2411SOL    HW2 9066   6.509   0.232   3.716
 2412SOL     OW 9067   7.115   5.241  10.126
 2412SOL    HW1 9068   7.074   5.326  10.142
 2412SOL    HW2 9069   7.180   5.258  10.058
 2413SOL     OW 9070  10.114   1.493   6.733
 2413SOL    HW1 9071  10.113   1.525   6.823
 2413SOL    HW2 9072  10.025   1.507   6.701
 2414SOL     OW 9073  10.583   9.359  14.427
 2414SOL    HW1 9074  10.500   9.327  14.392
 2414SOL    HW2 9075  10.648   9.295  14.396
 2415SOL     OW 9076  11.138   3.063  10.730
 2415SOL    HW1 9077  11.086   3.040  10.807
 2415SOL    HW2 9078  11.073   3.072  10.660
 2416SOL     OW 9079  10.096   4.397   3.560
 2416SOL    HW1 9080  10.062   4.440   3.639
 2416SOL    HW2 9081  10.139   4.467   3.511
 2417SOL     OW 9082   2.131   0.785  11.803
 2417SOL    HW1 9083   2.090   0.862  11.763
 2417SOL    HW2 9084   2.127   0.718  11.734
 2418SOL     OW 9085   1.243   0.895   0.831
 2418SOL    HW1 9086   1.156   0.892   0.791
 2418SOL    HW2 9087   1.304   0.879   0.759
 2419SOL     OW 9088   0.463   6.833   9.293
 2419SOL    HW1 9089   0.453   6.865   9.203
 2419SOL    HW2 9090   0.422   6.901   9.347
 2420SOL     OW 9091   6.874   7.319   0.211
 2420SOL    HW1 9092   6.915   7.321   0.298
 2420SOL    HW2 9093   6.836   7.231   0.204
 2421SOL     OW 9094   9.846  14.855   2.448
 2421SOL    HW1 9095   9.752  14.850   2.429
 2421SOL    HW2 9096   9.876  14.765   2.438
 2422SOL     OW 9097   9.931   9.488   4.726
 2422SOL    HW1 9098   9.837   9.494   4.743
 2422SOL    HW2 9099   9.956   9.577   4.701
 2423SOL     OW 9100   1.807   7.369   9.604
 2423SOL    HW1 9101   1.855   7.286   9.614
 2423SOL    HW2 9102   1.716   7.347   9.623
 2424SOL     OW 9103   1.313  12.060   8.166
 2424SOL    HW1 9104   1.360  12.046   8.084
 2424SOL    HW2 9105   1.327  12.152   8.186
 2425SOL     OW 9106  11.818   3.278   9.934
 2425SOL    HW1 9107  11.911   3.300   9.939
 2425SOL    HW2 9108  11.815   3.193   9.891
 2426SOL     OW 9109  13.128  12.962   7.825
 2426SOL    HW1 9110  13.046  12.937   7.868
 2426SOL    HW2 9111  13.181  12.882   7.826
 2427SOL     OW 9112   3.749   1.377  10.006
 2427SOL    HW1 9113   3.690   1.324  10.058
 2427SOL    HW2 9114   3.801   1.425  10.070
 2428SOL     OW 9115   2.195   7.400   6.842
 2428SOL    HW1 9116   2.239   7.483   6.861
 2428SOL    HW2 9117   2.205   7.388   6.748
 2429SOL     OW 9118   6.790  10.009   6.470
 2429SOL    HW1 9119   6.704  10.051   6.462
 2429SOL    HW2 9120   6.851  10.081   6.487
 2430SOL     OW 9121   4.377   2.958  11.950
 2430SOL    HW1 9122   4.463   2.917  11.957
 2430SOL    HW2 9123   4.315   2.886  11.963
 2431SOL     OW 9124  12.582  11.071   7.517
 2431SOL    HW1 9125  12.607  11.126   7.592
 2431SOL    HW2 9126  12.657  11.077   7.457
 2432SOL     OW 9127   6.030  14.351   4.105
 2432SOL    HW1 9128   6.057  14.413   4.037
 2432SOL    HW2 9129   6.103  14.353   4.168
 2433SOL     OW 9130   8.494   9.330  14.653
 2433SOL    HW1 9131   8.495   9.426  14.643
 2433SOL    HW2 9132   8.402   9.310  14.673
 2434SOL     OW 9133   6.009   9.779   5.368
 2434SOL    HW1 9134   6.024   9.873   5.368
 2434SOL    HW2 9135   6.037   9.750   5.455
 2435SOL     OW 9136  13.963   9.122   0.332
 2435SOL    HW1 9137  14.029   9.188   0.316
 2435SOL    HW2 9138  13.955   9.119   0.428
 2436SOL     OW 9139  10.928   3.287   7.095
 2436SOL    HW1 9140  10.904   3.274   7.004
 2436SOL    HW2 9141  10.929   3.199   7.133
 2437SOL     OW 9142   7.193   2.204  11.549
 2437SOL    HW1 9143   7.100   2.203  11.573
 2437SOL    HW2 9144   7.193   2.228  11.456
 2438SOL     OW 9145   3.322  14.339   9.199
 2438SOL    HW1 9146   3.231  14.317   9.219
 2438SOL    HW2 9147   3.368  14.330   9.283
 2439SOL     OW 9148  11.487   5.113   2.936
 2439SOL    HW1 9149  11.523   5.190   2.979
 2439SOL    HW2 9150  11.533   5.108   2.852
 2440SOL     OW 9151   9.937   5.822   2.814
 2440SOL    HW1 9152  10.006   5.883   2.839
 2440SOL    HW2 9153   9.892   5.801   2.895
 2441SOL     OW 9154  13.832  14.723   2.355
 2441SOL    HW1 9155  13.788  14.744   2.273
 2441SOL    HW2 9156  13.777  14.764   2.422
 2442SOL     OW 9157   6.001  12.331  10.474
 2442SOL    HW1 9158   6.024  12.393  10.405
 2442SOL    HW2 9159   6.034  12.247  10.443
 2443SOL     OW 9160   9.652  10.515  10.173
 2443SOL    HW1 9161   9.743  10.489  10.158
 2443SOL    HW2 9162   9.601  10.463  10.111
 2444SOL     OW 9163   9.298   2.706   8.929
 2444SOL    HW1 9164   9.339   2.699   9.015
 2444SOL    HW2 9165   9.208   2.731   8.947
 2445SOL     OW 9166  10.779   2.353   9.660
 2445SOL    HW1 9167  10.684   2.339   9.662
 2445SOL    HW2 9168  10.791   2.428   9.602
 2446SOL     OW 9169  11.478  12.987  14.647
 2446SOL    HW1 9170  11.543  12.920  14.623
 2446SOL    HW2 9171  11.529  13.068  14.653
 2447SOL     OW 9172   5.052   8.083   3.676
 2447SOL    HW1 9173   5.035   8.064   3.768
 2447SOL    HW2 9174   4.965   8.101   3.639
 2448SOL     OW 9175  10.414   8.042   1.042
 2448SOL    HW1 9176  10.479   7.982   1.077
 2448SOL    HW2 9177  10.331   8.013   1.080
 2449SOL     OW 9178   6.534   6.806   9.094
 2449SOL    HW1 9179   6.495   6.864   9.159
 2449SOL    HW2 9180   6.622   6.789   9.126
 2450SOL     OW 9181   0.942   9.913   6.331
 2450SOL    HW1 9182   1.004   9.965   6.280
 2450SOL    HW2 9183   0.935   9.830   6.284
 2451SOL     OW 9184   1.393   9.425  11.403
 2451SOL    HW1 9185   1.362   9.485  11.336
 2451SOL    HW2 9186   1.321   9.362  11.414
 2452SOL     OW 9187   0.279  12.620   0.171
 2452SOL    HW1 9188   0.336  12.569   0.227
 2452SOL    HW2 9189   0.326  12.628   0.088
 2453SOL     OW 9190   7.249   8.323   9.735
 2453SOL    HW1 9191   7.218   8.376   9.662
 2453SOL    HW2 9192   7.234   8.233   9.708
 2454SOL     OW 9193  11.967  13.621   1.207
 2454SOL    HW1 9194  12.022  13.697   1.189
 2454SOL    HW2 9195  12.028  13.551   1.229
 2455SOL     OW 9196   7.572   2.223   5.894
 2455SOL    HW1 9197   7.543   2.240   5.805
 2455SOL    HW2 9198   7.576   2.127   5.900
 2456SOL     OW 9199   5.341   7.349  14.171
 2456SOL    HW1 9200   5.245   7.357  14.175
 2456SOL    HW2 9201   5.371   7.371  14.259
 2457SOL     OW 9202   0.341   5.480   0.102
 2457SOL    HW1 9203   0.320   5.537   0.176
 2457SOL    HW2 9204   0.404   5.530   0.050
 2458SOL     OW 9205   1.193   9.118  10.435
 2458SOL    HW1 9206   1.182   9.170  10.515
 2458SOL    HW2 9207   1.288   9.114  10.423
 2459SOL     OW 9208  13.310  13.906   9.855
 2459SOL    HW1 9209  13.393  13.911   9.903
 2459SOL    HW2 9210  13.302  13.814   9.832
 2460SOL     OW 9211   9.036   8.822   3.739
 2460SOL    HW1 9212   8.947   8.854   3.726
 2460SOL    HW2 9213   9.030   8.728   3.724
 2461SOL     OW 9214  12.774   0.583  12.804
 2461SOL    HW1 9215  12.825   0.628  12.871
 2461SOL    HW2 9216  12.748   0.501  12.846
 2462SOL     OW 9217  10.558   7.783  12.798
 2462SOL    HW1 9218  10.583   7.766  12.707
 2462SOL    HW2 9219  10.598   7.712  12.848
 2463SOL     OW 9220  10.828   9.975  11.686
 2463SOL    HW1 9221  10.765  10.008  11.621
 2463SOL    HW2 9222  10.779   9.909  11.735
 2464SOL     OW 9223   2.965   3.757  14.295
 2464SOL    HW1 9224   3.013   3.819  14.349
 2464SOL    HW2 9225   3.029   3.725  14.231
 2465SOL     OW 9226   1.077   8.226  10.685
 2465SOL    HW1 9227   1.069   8.144  10.636
 2465SOL    HW2 9228   0.988   8.243  10.719
 2466SOL     OW 9229   4.916  11.757   5.049
 2466SOL    HW1 9230   4.950  11.773   5.137
 2466SOL    HW2 9231   4.825  11.730   5.062
 2467SOL     OW 9232  13.825  13.362   0.825
 2467SOL    HW1 9233  13.800  13.424   0.894
 2467SOL    HW2 9234  13.785  13.396   0.745
 2468SOL     OW 9235  12.777   2.265   3.433
 2468SOL    HW1 9236  12.819   2.184   3.404
 2468SOL    HW2 9237  12.850   2.322   3.458
 2469SOL     OW 9238   5.561   8.226   5.829
 2469SOL    HW1 9239   5.524   8.167   5.896
 2469SOL    HW2 9240   5.635   8.268   5.873
 2470SOL     OW 9241  10.621   5.578  13.566
 2470SOL    HW1 9242  10.693   5.585  13.503
 2470SOL    HW2 9243  10.542   5.588  13.512
 2471SOL     OW 9244   3.692   8.955   8.378
 2471SOL    HW1 9245   3.734   9.028   8.331
 2471SOL    HW2 9246   3.684   8.886   8.312
 2472SOL     OW 9247   1.690  11.492   0.998
 2472SOL    HW1 9248   1.615  11.433   1.004
 2472SOL    HW2 9249   1.756  11.453   1.056
 2473SOL     OW 9250   8.600   2.089   4.719
 2473SOL    HW1 9251   8.630   1.999   4.724
 2473SOL    HW2 9252   8.535   2.089   4.649
 2474SOL     OW 9253   4.692   7.725   2.264
 2474SOL    HW1 9254   4.644   7.688   2.339
 2474SOL    HW2 9255   4.637   7.797   2.234
 2475SOL     OW 9256   1.425  11.677  10.683
 2475SOL    HW1 9257   1.415  11.589  10.720
 2475SOL    HW2 9258   1.460  11.663  10.595
 2476SOL     OW 9259  13.764  14.420   1.132
 2476SOL    HW1 9260  13.728  14.458   1.213
 2476SOL    HW2 9261  13.756  14.325   1.146
 2477SOL     OW 9262  14.507   9.411  12.875
 2477SOL    HW1 9263  14.585   9.428  12.822
 2477SOL    HW2 9264  14.456   9.492  12.869
 2478SOL     OW 9265   6.038   3.621   5.537
 2478SOL    HW1 9266   6.072   3.649   5.622
 2478SOL    HW2 9267   6.105   3.561   5.503
 2479SOL     OW 9268   3.661   0.716   5.898
 2479SOL    HW1 9269   3.655   0.679   5.986
 2479SOL    HW2 9270   3.601   0.790   5.898
 2480SOL     OW 9271   3.341   1.126   1.315
 2480SOL    HW1 9272   3.266   1.079   1.352
 2480SOL    HW2 9273   3.403   1.133   1.388
 2481SOL     OW 9274   0.316   3.894   8.461
 2481SOL    HW1 9275   0.383   3.886   8.393
 2481SOL    HW2 9276   0.234   3.882   8.414
 2482SOL     OW 9277  10.216   9.338   9.417
 2482SOL    HW1 9278  10.182   9.251   9.397
 2482SOL    HW2 9279  10.157   9.398   9.371
 2483SOL     OW 9280   3.443  13.677  13.859
 2483SOL    HW1 9281   3.435  13.746  13.925
 2483SOL    HW2 9282   3.421  13.596  13.905
 2484SOL     OW 9283  10.818   9.288   0.667
 2484SOL    HW1 9284  10.753   9.303   0.598
 2484SOL    HW2 9285  10.838   9.195   0.662
 2485SOL     OW 9286  13.461   0.168   8.442
 2485SOL    HW1 9287  13.405   0.244   8.459
 2485SOL    HW2 9288  13.435   0.138   8.355
 2486SOL     OW 9289  12.402   2.520   2.676
 2486SOL    HW1 9290  12.442   2.435   2.656
 2486SOL    HW2 9291  12.313   2.499   2.706
 2487SOL     OW 9292  10.510   0.548  12.913
 2487SOL    HW1 9293  10.571   0.486  12.874
 2487SOL    HW2 9294  10.426   0.503  12.911
 2488SOL     OW 9295   0.766   2.212   0.292
 2488SOL    HW1 9296   0.686   2.255   0.321
 2488SOL    HW2 9297   0.758   2.123   0.324
 2489SOL     OW 9298   5.799   2.143   7.355
 2489SOL    HW1 9299   5.854   2.221   7.359
 2489SOL    HW2 9300   5.859   2.074   7.326
 2490SOL     OW 9301   4.836   9.915  14.052
 2490SOL    HW1 9302   4.826   9.873  14.137
 2490SOL    HW2 9303   4.863  10.005  14.072
 2491SOL     OW 9304   4.183   5.639   2.524
 2491SOL    HW1 9305   4.132   5.672   2.451
 2491SOL    HW2 9306   4.148   5.685   2.600
 2492SOL     OW 9307   6.676   6.933   1.363
 2492SOL    HW1 9308   6.620   6.924   1.440
 2492SOL    HW2 9309   6.619   6.972   1.296
 2493SOL     OW 9310   7.834  12.769   2.756
 2493SOL    HW1 9311   7.833  12.838   2.689
 2493SOL    HW2 9312   7.742  12.755   2.777
 2494SOL     OW 9313  13.435   0.407  13.906
 2494SOL    HW1 9314  13.380   0.483  13.885
 2494SOL    HW2 9315  13.402   0.337  13.850
 2495SOL     OW 9316   0.569   3.880   8.344
 2495SOL    HW1 9317   0.655   3.913   8.371
 2495SOL    HW2 9318   0.587   3.798   8.298
 2496SOL     OW 9319  14.275   9.552  12.004
 2496SOL    HW1 9320  14.187   9.550  11.966
 2496SOL    HW2 9321  14.308   9.640  11.984
 2497SOL     OW 9322   5.447  14.837  10.841
 2497SOL    HW1 9323   5.496   0.032  10.889
 2497SOL    HW2 9324   5.395   0.015  10.777
 2498SOL     OW 9325  12.932   4.180  14.647
 2498SOL    HW1 9326  12.886   4.113  14.698
 2498SOL    HW2 9327  12.967   4.133  14.571
 2499SOL     OW 9328  14.497  12.862   1.454
 2499SOL    HW1 9329  14.440  12.909   1.392
 2499SOL    HW2 9330  14.438  12.834   1.524
 2500SOL     OW 9331   6.948   6.408  11.649
 2500SOL    HW1 9332   6.936   6.409  11.744
 2500SOL    HW2 9333   6.876   6.355  11.616
 2501SOL     OW 9334  14.715  10.468   1.784
 2501SOL    HW1 9335  14.633  10.420   1.767
 2501SOL    HW2 9336  14.712  10.489   1.877
 2502SOL     OW 9337   7.402   3.637   9.219
 2502SOL    HW1 9338   7.350   3.573   9.171
 2502SOL    HW2 9339   7.444   3.690   9.151
 2503SOL     OW 9340  12.626   4.859  11.737
 2503SOL    HW1 9341  12.661   4.945  11.762
 2503SOL    HW2 9342  12.575   4.831  11.813
 2504SOL     OW 9343  11.466   4.334   8.863
 2504SOL    HW1 9344  11.545   4.291   8.831
 2504SOL    HW2 9345  11.405   4.329   8.790
 2505SOL     OW 9346   5.548  10.726  13.146
 2505SOL    HW1 9347   5.468  10.738  13.095
 2505SOL    HW2 9348   5.520  10.682  13.226
 2506SOL     OW 9349   1.710   1.262   3.492
 2506SOL    HW1 9350   1.643   1.325   3.518
 2506SOL    HW2 9351   1.746   1.229   3.575
 2507SOL     OW 9352   7.540   4.380   7.364
 2507SOL    HW1 9353   7.581   4.344   7.286
 2507SOL    HW2 9354   7.598   4.353   7.436
 2508SOL     OW 9355   1.241  12.630   7.682
 2508SOL    HW1 9356   1.179  12.559   7.697
 2508SOL    HW2 9357   1.208  12.675   7.605
 2509SOL     OW 9358  10.660   6.276   0.672
 2509SOL    HW1 9359  10.643   6.261   0.765
 2509SOL    HW2 9360  10.755   6.287   0.666
 2510SOL     OW 9361   3.654   6.458   6.961
 2510SOL    HW1 9362   3.617   6.370   6.959
 2510SOL    HW2 9363   3.648   6.489   6.871
 2511SOL     OW 9364   3.458   8.476   9.196
 2511SOL    HW1 9365   3.416   8.546   9.246
 2511SOL    HW2 9366   3.550   8.500   9.193
 2512SOL     OW 9367   2.655  11.772   5.018
 2512SOL    HW1 9368   2.735  11.752   4.969
 2512SOL    HW2 9369   2.682  11.768   5.110
 2513SOL     OW 9370  11.460   8.078   5.133
 2513SOL    HW1 9371  11.468   7.988   5.163
 2513SOL    HW2 9372  11.549   8.103   5.109
 2514SOL     OW 9373   9.127   5.784  13.769
 2514SOL    HW1 9374   9.063   5.817  13.832
 2514SOL    HW2 9375   9.156   5.861  13.721
 2515SOL     OW 9376   5.285   4.507   8.554
 2515SOL    HW1 9377   5.250   4.593   8.579
 2515SOL    HW2 9378   5.318   4.470   8.635
 2516SOL     OW 9379   8.958  10.227   9.147
 2516SOL    HW1 9380   9.034  10.176   9.118
 2516SOL    HW2 9381   8.885  10.194   9.094
 2517SOL     OW 9382   4.472   5.284   4.424
 2517SOL    HW1 9383   4.476   5.361   4.481
 2517SOL    HW2 9384   4.543   5.227   4.455
 2518SOL     OW 9385  12.345   5.855  13.296
 2518SOL    HW1 9386  12.428   5.845  13.249
 2518SOL    HW2 9387  12.291   5.783  13.264
 2519SOL     OW 9388  12.362   1.108  14.472
 2519SOL    HW1 9389  12.333   1.183  14.524
 2519SOL    HW2 9390  12.435   1.072  14.522
 2520SOL     OW 9391   5.354   1.718  14.613
 2520SOL    HW1 9392   5.290   1.779  14.652
 2520SOL    HW2 9393   5.428   1.719  14.673
 2521SOL     OW 9394   9.442  11.884   7.696
 2521SOL    HW1 9395   9.432  11.948   7.626
 2521SOL    HW2 9396   9.369  11.824   7.684
 2522SOL     OW 9397   3.895   1.454  10.667
 2522SOL    HW1 9398   3.880   1.545  10.692
 2522SOL    HW2 9399   3.834   1.440  10.594
 2523SOL     OW 9400   1.239   7.778  12.415
 2523SOL    HW1 9401   1.251   7.843  12.346
 2523SOL    HW2 9402   1.327   7.763  12.450
 2524SOL     OW 9403   7.270  10.875  10.196
 2524SOL    HW1 9404   7.319  10.809  10.245
 2524SOL    HW2 9405   7.311  10.959  10.221
 2525SOL     OW 9406   9.878  14.237   1.096
 2525SOL    HW1 9407   9.812  14.287   1.048
 2525SOL    HW2 9408   9.962  14.268   1.061
 2526SOL     OW 9409  14.388   8.467   3.130
 2526SOL    HW1 9410  14.454   8.435   3.069
 2526SOL    HW2 9411  14.434   8.532   3.183
 2527SOL     OW 9412   6.894   3.696   7.595
 2527SOL    HW1 9413   6.946   3.709   7.675
 2527SOL    HW2 9414   6.833   3.626   7.617
 2528SOL     OW 9415   1.321  13.689  12.027
 2528SOL    HW1 9416   1.316  13.737  12.109
 2528SOL    HW2 9417   1.341  13.599  12.053
 2529SOL     OW 9418  13.612   9.131   3.962
 2529SOL    HW1 9419  13.563   9.105   3.884
 2529SOL    HW2 9420  13.683   9.068   3.969
 2530SOL     OW 9421   5.064  12.981  12.734
 2530SOL    HW1 9422   5.118  13.035  12.792
 2530SOL    HW2 9423   5.032  13.042  12.668
 2531SOL     OW 9424   8.910   4.585  14.585
 2531SOL    HW1 9425   8.870   4.672  14.578
 2531SOL    HW2 9426   8.837   4.527  14.607
 2532SOL     OW 9427  11.440  14.534  13.734
 2532SOL    HW1 9428  11.495  14.583  13.672
 2532SOL    HW2 9429  11.461  14.442  13.717
 2533SOL     OW 9430  14.187   9.776  10.201
 2533SOL    HW1 9431  14.242   9.854  10.208
 2533SOL    HW2 9432  14.133   9.777  10.280
 2534SOL     OW 9433   0.109   9.172   9.053
 2534SOL    HW1 9434   0.084   9.173   8.960
 2534SOL    HW2 9435   0.108   9.080   9.077
 2535SOL     OW 9436   1.694   5.357   4.549
 2535SOL    HW1 9437   1.741   5.287   4.502
 2535SOL    HW2 9438   1.625   5.384   4.490
 2536SOL     OW 9439   4.793   7.289   1.287
 2536SOL    HW1 9440   4.807   7.370   1.335
 2536SOL    HW2 9441   4.846   7.299   1.208
 2537SOL     OW 9442   1.272   5.563  12.601
 2537SOL    HW1 9443   1.210   5.506  12.646
 2537SOL    HW2 9444   1.285   5.636  12.662
 2538SOL     OW 9445   2.908   7.410  13.274
 2538SOL    HW1 9446   2.983   7.392  13.217
 2538SOL    HW2 9447   2.945   7.412  13.362
 2539SOL     OW 9448   5.807  13.396  14.638
 2539SOL    HW1 9449   5.718  13.403  14.671
 2539SOL    HW2 9450   5.850  13.334  14.697
 2540SOL     OW 9451   8.613   2.578   6.319
 2540SOL    HW1 9452   8.631   2.587   6.412
 2540SOL    HW2 9453   8.634   2.663   6.281
 2541SOL     OW 9454   2.795   9.364  14.349
 2541SOL    HW1 9455   2.849   9.442  14.354
 2541SOL    HW2 9456   2.849   9.294  14.387
 2542SOL     OW 9457   1.528  10.954   6.881
 2542SOL    HW1 9458   1.463  11.015   6.846
 2542SOL    HW2 9459   1.590  10.942   6.809
 2543SOL     OW 9460   6.842   2.094   6.900
 2543SOL    HW1 9461   6.828   2.176   6.948
 2543SOL    HW2 9462   6.886   2.037   6.963
 2544SOL     OW 9463   7.205   7.649   6.617
 2544SOL    HW1 9464   7.293   7.627   6.585
 2544SOL    HW2 9465   7.199   7.744   6.606
 2545SOL     OW 9466   0.740  10.675   2.960
 2545SOL    HW1 9467   0.703  10.695   2.874
 2545SOL    HW2 9468   0.682  10.609   2.997
 2546SOL     OW 9469  10.747  14.034   2.785
 2546SOL    HW1 9470  10.728  14.081   2.866
 2546SOL    HW2 9471  10.661  14.017   2.746
 2547SOL     OW 9472   4.419   2.974   7.408
 2547SOL    HW1 9473   4.323   2.970   7.405
 2547SOL    HW2 9474   4.445   2.890   7.446
 2548SOL     OW 9475  12.899  14.400  14.666
 2548SOL    HW1 9476  12.828  14.338  14.685
 2548SOL    HW2 9477  12.901  14.458  14.742
 2549SOL     OW 9478   2.995   5.990   5.171
 2549SOL    HW1 9479   3.049   5.943   5.107
 2549SOL    HW2 9480   3.059   6.033   5.228
 2550SOL     OW 9481  13.937   3.573  12.755
 2550SOL    HW1 9482  13.872   3.593  12.822
 2550SOL    HW2 9483  13.926   3.480  12.738
 2551SOL     OW 9484   5.127   0.577   6.198
 2551SOL    HW1 9485   5.090   0.527   6.271
 2551SOL    HW2 9486   5.071   0.556   6.123
 2552SOL     OW 9487   7.850  14.051   3.950
 2552SOL    HW1 9488   7.920  14.002   3.993
 2552SOL    HW2 9489   7.773  13.994   3.956
 2553SOL     OW 9490  14.076   1.184  13.669
 2553SOL    HW1 9491  14.008   1.250  13.681
 2553SOL    HW2 9492  14.039   1.122  13.606
 2554SOL     OW 9493   9.929   5.469   9.147
 2554SOL    HW1 9494   9.888   5.384   9.161
 2554SOL    HW2 9495   9.974   5.488   9.230
 2555SOL     OW 9496   4.057  12.331   5.999
 2555SOL    HW1 9497   4.017  12.294   5.920
 2555SOL    HW2 9498   4.147  12.352   5.972
 2556SOL     OW 9499   4.213  13.218   8.675
 2556SOL    HW1 9500   4.251  13.306   8.673
 2556SOL    HW2 9501   4.270  13.168   8.732
 2557SOL     OW 9502  14.391   3.987   0.550
 2557SOL    HW1 9503  14.418   3.993   0.641
 2557SOL    HW2 9504  14.471   3.963   0.502
 2558SOL     OW 9505   6.323   4.369   9.780
 2558SOL    HW1 9506   6.300   4.286   9.822
 2558SOL    HW2 9507   6.407   4.394   9.820
 2559SOL     OW 9508   7.347   2.997   8.792
 2559SOL    HW1 9509   7.413   2.950   8.741
 2559SOL    HW2 9510   7.340   3.083   8.751
 2560SOL     OW 9511  14.629   1.081   9.136
 2560SOL    HW1 9512  14.540   1.080   9.100
 2560SOL    HW2 9513  14.683   1.044   9.067
 2561SOL     OW 9514   0.294   7.946   7.395
 2561SOL    HW1 9515   0.222   7.904   7.348
 2561SOL    HW2 9516   0.253   7.987   7.471
 2562SOL     OW 9517  10.065   5.833   4.690
 2562SOL    HW1 9518  10.005   5.803   4.758
 2562SOL    HW2 9519  10.014   5.897   4.640
 2563SOL     OW 9520   4.264   7.069   9.370
 2563SOL    HW1 9521   4.204   7.047   9.298
 2563SOL    HW2 9522   4.349   7.036   9.341
 2564SOL     OW 9523   8.391   2.386   5.583
 2564SOL    HW1 9524   8.453   2.452   5.551
 2564SOL    HW2 9525   8.333   2.369   5.509
 2565SOL     OW 9526  12.316   0.705   5.151
 2565SOL    HW1 9527  12.318   0.614   5.123
 2565SOL    HW2 9528  12.361   0.706   5.235
 2566SOL     OW 9529   8.429   2.734   6.856
 2566SOL    HW1 9530   8.399   2.776   6.936
 2566SOL    HW2 9531   8.428   2.640   6.876
 2567SOL     OW 9532   4.445   5.542  10.976
 2567SOL    HW1 9533   4.505   5.558  10.904
 2567SOL    HW2 9534   4.421   5.450  10.969
 2568SOL     OW 9535   5.026  11.382   1.566
 2568SOL    HW1 9536   5.107  11.422   1.600
 2568SOL    HW2 9537   5.044  11.289   1.564
 2569SOL     OW 9538  10.552   1.700  12.188
 2569SOL    HW1 9539  10.510   1.700  12.102
 2569SOL    HW2 9540  10.553   1.793  12.214
 2570SOL     OW 9541  11.386   0.098   8.711
 2570SOL    HW1 9542  11.406   0.079   8.619
 2570SOL    HW2 9543  11.435   0.033   8.761
 2571SOL     OW 9544  14.477   4.555  10.916
 2571SOL    HW1 9545  14.436   4.638  10.940
 2571SOL    HW2 9546  14.408   4.506  10.872
 2572SOL     OW 9547   8.823   0.532   9.497
 2572SOL    HW1 9548   8.843   0.602   9.560
 2572SOL    HW2 9549   8.756   0.479   9.541
 2573SOL     OW 9550  12.746   5.001   4.405
 2573SOL    HW1 9551  12.702   5.075   4.447
 2573SOL    HW2 9552  12.690   4.925   4.425
 2574SOL     OW 9553   6.844   0.221   4.411
 2574SOL    HW1 9554   6.918   0.242   4.354
 2574SOL    HW2 9555   6.771   0.271   4.375
 2575SOL     OW 9556  12.333   4.539  14.030
 2575SOL    HW1 9557  12.250   4.495  14.044
 2575SOL    HW2 9558  12.330   4.569  13.939
 2576SOL     OW 9559   3.116  11.906  11.565
 2576SOL    HW1 9560   3.105  11.840  11.633
 2576SOL    HW2 9561   3.039  11.894  11.509
 2577SOL     OW 9562  13.750  12.660   9.386
 2577SOL    HW1 9563  13.760  12.584   9.329
 2577SOL    HW2 9564  13.724  12.731   9.326
 2578SOL     OW 9565   2.239   4.813  11.921
 2578SOL    HW1 9566   2.279   4.735  11.961
 2578SOL    HW2 9567   2.312   4.875  11.913
 2579SOL     OW 9568  13.387   7.036  11.054
 2579SOL    HW1 9569  13.352   7.094  10.986
 2579SOL    HW2 9570  13.477   7.018  11.027
 2580SOL     OW 9571  11.105  11.323  12.295
 2580SOL    HW1 9572  11.034  11.369  12.338
 2580SOL    HW2 9573  11.075  11.232  12.288
 2581SOL     OW 9574   9.254   9.864   8.227
 2581SOL    HW1 9575   9.283   9.884   8.138
 2581SOL    HW2 9576   9.335   9.844   8.275
 2582SOL     OW 9577   9.143   2.145   6.751
 2582SOL    HW1 9578   9.079   2.200   6.795
 2582SOL    HW2 9579   9.121   2.152   6.658
 2583SOL     OW 9580   4.503   5.305   3.452
 2583SOL    HW1 9581   4.449   5.294   3.531
 2583SOL    HW2 9582   4.444   5.285   3.380
 2584SOL     OW 9583  13.585  12.496  13.721
 2584SOL    HW1 9584  13.599  12.412  13.765
 2584SOL    HW2 9585  13.577  12.474  13.628
 2585SOL     OW 9586  12.001   9.995  12.517
 2585SOL    HW1 9587  11.914  10.022  12.545
 2585SOL    HW2 9588  11.989   9.907  12.482
 2586SOL     OW 9589   2.791   5.955   2.746
 2586SOL    HW1 9590   2.798   5.954   2.650
 2586SOL    HW2 9591   2.701   5.931   2.764
 2587SOL     OW 9592   9.950   2.328  11.875
 2587SOL    HW1 9593   9.933   2.337  11.782
 2587SOL    HW2 9594  10.036   2.370  11.888
 2588SOL     OW 9595   0.878   9.723   7.098
 2588SOL    HW1 9596   0.886   9.721   7.003
 2588SOL    HW2 9597   0.831   9.804   7.117
 2589SOL     OW 9598   2.264   2.453   5.194
 2589SOL    HW1 9599   2.170   2.434   5.189
 2589SOL    HW2 9600   2.269   2.539   5.235
 2590SOL     OW 9601  13.600  10.740   2.923
 2590SOL    HW1 9602  13.652  10.799   2.868
 2590SOL    HW2 9603  13.510  10.757   2.896
 2591SOL     OW 9604   3.810   1.098   9.244
 2591SOL    HW1 9605   3.751   1.084   9.170
 2591SOL    HW2 9606   3.807   1.193   9.259
 2592SOL     OW 9607  13.777   0.140   9.183
 2592SOL    HW1 9608  13.792   0.137   9.088
 2592SOL    HW2 9609  13.817   0.060   9.216
 2593SOL     OW 9610   4.131  11.354  14.696
 2593SOL    HW1 9611   4.139  11.309  14.780
 2593SOL    HW2 9612   4.091  11.289  14.637
 2594SOL     OW 9613   4.255  12.560  13.141
 2594SOL    HW1 9614   4.289  12.646  13.166
 2594SOL    HW2 9615   4.250  12.564  13.045
 2595SOL     OW 9616   6.568   3.260  11.923
 2595SOL    HW1 9617   6.474   3.245  11.938
 2595SOL    HW2 9618   6.598   3.181  11.879
 2596SOL     OW 9619   3.931   4.807  10.913
 2596SOL    HW1 9620   3.956   4.715  10.924
 2596SOL    HW2 9621   4.014   4.854  10.908
 2597SOL     OW 9622   2.080  10.492   1.825
 2597SOL    HW1 9623   2.027  10.532   1.756
 2597SOL    HW2 9624   2.037  10.408   1.842
 2598SOL     OW 9625   0.744   0.443   7.125
 2598SOL    HW1 9626   0.689   0.386   7.178
 2598SOL    HW2 9627   0.685   0.510   7.092
 2599SOL     OW 9628  12.328  14.724  11.365
 2599SOL    HW1 9629  12.350  14.818  11.364
 2599SOL    HW2 9630  12.397  14.684  11.418
 2600SOL     OW 9631   3.033  12.448   3.776
 2600SOL    HW1 9632   3.083  12.367   3.785
 2600SOL    HW2 9633   3.048  12.475   3.685
 2601SOL     OW 9634   4.177   3.171  12.242
 2601SOL    HW1 9635   4.216   3.253  12.213
 2601SOL    HW2 9636   4.178   3.115  12.165
 2602SOL     OW 9637   7.622   8.841   4.875
 2602SOL    HW1 9638   7.606   8.751   4.901
 2602SOL    HW2 9639   7.717   8.851   4.876
 2603SOL     OW 9640  11.157  10.033   2.151
 2603SOL    HW1 9641  11.171  10.001   2.240
 2603SOL    HW2 9642  11.131  10.125   2.162
 2604SOL     OW 9643   6.019   7.137   0.502
 2604SOL    HW1 9644   6.092   7.101   0.552
 2604SOL    HW2 9645   6.033   7.232   0.503
 2605SOL     OW 9646   1.216   7.938  13.689
 2605SOL    HW1 9647   1.263   7.931  13.772
 2605SOL    HW2 9648   1.264   7.881  13.629
 2606SOL     OW 9649   4.485   4.099   1.226
 2606SOL    HW1 9650   4.401   4.132   1.192
 2606SOL    HW2 9651   4.550   4.138   1.168
 2607SOL     OW 9652   5.650   7.720   4.671
 2607SOL    HW1 9653   5.568   7.672   4.683
 2607SOL    HW2 9654   5.715   7.668   4.718
 2608SOL     OW 9655   0.380   9.751   0.800
 2608SOL    HW1 9656   0.312   9.744   0.733
 2608SOL    HW2 9657   0.403   9.660   0.822
 2609SOL     OW 9658   9.783   7.153   0.105
 2609SOL    HW1 9659   9.843   7.111   0.166
 2609SOL    HW2 9660   9.836   7.221   0.063
 2610SOL     OW 9661  12.570   7.896   6.452
 2610SOL    HW1 9662  12.522   7.911   6.370
 2610SOL    HW2 9663  12.503   7.870   6.515
 2611SOL     OW 9664   7.410   4.835   1.027
 2611SOL    HW1 9665   7.451   4.813   0.944
 2611SOL    HW2 9666   7.339   4.772   1.036
 2612SOL     OW 9667   0.919   4.155   1.377
 2612SOL    HW1 9668   0.871   4.165   1.294
 2612SOL    HW2 9669   0.905   4.063   1.402
 2613SOL     OW 9670   3.247   4.819  12.606
 2613SOL    HW1 9671   3.324   4.860  12.567
 2613SOL    HW2 9672   3.261   4.725  12.594
 2614SOL     OW 9673   9.185   8.908   4.627
 2614SOL    HW1 9674   9.156   8.824   4.591
 2614SOL    HW2 9675   9.108   8.964   4.619
 2615SOL     OW 9676   2.850  10.790  10.205
 2615SOL    HW1 9677   2.906  10.763  10.277
 2615SOL    HW2 9678   2.843  10.885  10.214
 2616SOL     OW 9679   1.821  12.556  13.436
 2616SOL    HW1 9680   1.769  12.529  13.360
 2616SOL    HW2 9681   1.756  12.586  13.500
 2617SOL     OW 9682   6.587  13.366  13.521
 2617SOL    HW1 9683   6.661  13.360  13.581
 2617SOL    HW2 9684   6.550  13.453  13.536
 2618SOL     OW 9685   6.235   7.542  10.762
 2618SOL    HW1 9686   6.239   7.570  10.671
 2618SOL    HW2 9687   6.270   7.453  10.762
 2619SOL     OW 9688   6.299  13.420  10.189
 2619SOL    HW1 9689   6.263  13.343  10.233
 2619SOL    HW2 9690   6.224  13.460  10.146
 2620SOL     OW 9691   8.708  12.781   2.211
 2620SOL    HW1 9692   8.680  12.709   2.269
 2620SOL    HW2 9693   8.791  12.752   2.175
 2621SOL     OW 9694  14.368   6.292   8.009
 2621SOL    HW1 9695  14.296   6.318   8.066
 2621SOL    HW2 9696  14.426   6.369   8.006
 2622SOL     OW 9697   0.636   1.138  12.194
 2622SOL    HW1 9698   0.575   1.187  12.249
 2622SOL    HW2 9699   0.580   1.096  12.129
 2623SOL     OW 9700   4.756   1.508  10.142
 2623SOL    HW1 9701   4.758   1.467  10.056
 2623SOL    HW2 9702   4.668   1.492  10.175
 2624SOL     OW 9703   6.689   5.670   4.689
 2624SOL    HW1 9704   6.771   5.701   4.650
 2624SOL    HW2 9705   6.636   5.749   4.700
 2625SOL     OW 9706  10.786   8.893   7.352
 2625SOL    HW1 9707  10.820   8.958   7.414
 2625SOL    HW2 9708  10.733   8.944   7.290
 2626SOL     OW 9709  14.701   9.221  11.548
 2626SOL    HW1 9710  14.684   9.278  11.473
 2626SOL    HW2 9711  14.694   9.278  11.624
 2627SOL     OW 9712  12.784   7.897  10.475
 2627SOL    HW1 9713  12.805   7.808  10.502
 2627SOL    HW2 9714  12.724   7.887  10.401
 2628SOL     OW 9715  12.804   6.309   6.519
 2628SOL    HW1 9716  12.825   6.367   6.446
 2628SOL    HW2 9717  12.791   6.223   6.480
 2629SOL     OW 9718   4.497   3.020  14.312
 2629SOL    HW1 9719   4.582   3.013  14.267
 2629SOL    HW2 9720   4.506   3.096  14.369
 2630SOL     OW 9721  13.461  11.049  11.822
 2630SOL    HW1 9722  13.534  11.081  11.769
 2630SOL    HW2 9723  13.386  11.052  11.764
 2631SOL     OW 9724   6.036   0.386  12.689
 2631SOL    HW1 9725   5.980   0.340  12.752
 2631SOL    HW2 9726   6.109   0.325  12.674
 2632SOL     OW 9727   2.053   3.492  13.890
 2632SOL    HW1 9728   2.056   3.409  13.937
 2632SOL    HW2 9729   1.975   3.486  13.836
 2633SOL     OW 9730  11.559   2.683   2.304
 2633SOL    HW1 9731  11.464   2.677   2.297
 2633SOL    HW2 9732  11.579   2.655   2.394
 2634SOL     OW 9733   8.549   3.387   1.327
 2634SOL    HW1 9734   8.560   3.481   1.313
 2634SOL    HW2 9735   8.486   3.360   1.261
 2635SOL     OW 9736   7.327  12.296   1.951
 2635SOL    HW1 9737   7.253  12.350   1.979
 2635SOL    HW2 9738   7.399  12.321   2.010
 2636SOL     OW 9739  13.689  13.385  10.467
 2636SOL    HW1 9740  13.598  13.397  10.442
 2636SOL    HW2 9741  13.708  13.458  10.526
 2637SOL     OW 9742  13.156   4.569   6.625
 2637SOL    HW1 9743  13.150   4.665   6.628
 2637SOL    HW2 9744  13.182   4.544   6.714
 2638SOL     OW 9745   6.229   9.412  10.257
 2638SOL    HW1 9746   6.210   9.360  10.335
 2638SOL    HW2 9747   6.143   9.448  10.231
 2639SOL     OW 9748   4.335  13.477   8.670
 2639SOL    HW1 9749   4.324  13.523   8.753
 2639SOL    HW2 9750   4.293  13.535   8.605
 2640SOL     OW 9751   8.121   6.032  10.422
 2640SOL    HW1 9752   8.125   6.127  10.428
 2640SOL    HW2 9753   8.029   6.012  10.407
 2641SOL     OW 9754   6.204   5.443   3.152
 2641SOL    HW1 9755   6.169   5.498   3.081
 2641SOL    HW2 9756   6.241   5.367   3.107
 2642SOL     OW 9757  10.766   0.640   1.699
 2642SOL    HW1 9758  10.743   0.729   1.672
 2642SOL    HW2 9759  10.857   0.647   1.727
 2643SOL     OW 9760  14.555   8.273   0.520
 2643SOL    HW1 9761  14.461   8.292   0.515
 2643SOL    HW2 9762  14.597   8.352   0.486
 2644SOL     OW 9763  14.018  11.090  10.857
 2644SOL    HW1 9764  13.927  11.092  10.827
 2644SOL    HW2 9765  14.041  11.182  10.871
 2645SOL     OW 9766  11.822   5.709  12.858
 2645SOL    HW1 9767  11.867   5.794  12.859
 2645SOL    HW2 9768  11.747   5.723  12.800
 2646SOL     OW 9769   5.271  10.035  10.208
 2646SOL    HW1 9770   5.186  10.061  10.174
 2646SOL    HW2 9771   5.307  10.115  10.248
 2647SOL     OW 9772   3.534   6.775  10.046
 2647SOL    HW1 9773   3.582   6.744  10.123
 2647SOL    HW2 9774   3.601   6.813   9.989
 2648SOL     OW 9775  14.406   7.928   3.287
 2648SOL    HW1 9776  14.318   7.935   3.249
 2648SOL    HW2 9777  14.462   7.901   3.214
 2649SOL     OW 9778  12.118  11.290   5.567
 2649SOL    HW1 9779  12.178  11.216   5.560
 2649SOL    HW2 9780  12.151  11.342   5.640
 2650SOL     OW 9781  13.324   6.888   9.677
 2650SOL    HW1 9782  13.264   6.847   9.615
 2650SOL    HW2 9783  13.366   6.814   9.721
 2651SOL     OW 9784  14.767   5.490   8.666
 2651SOL    HW1 9785  14.821   5.423   8.709
 2651SOL    HW2 9786  14.799   5.573   8.701
 2652SOL     OW 9787   5.556  14.785  14.237
 2652SOL    HW1 9788   5.607  14.865  14.230
 2652SOL    HW2 9789   5.621  14.716  14.253
 2653SOL     OW 9790   3.163   9.614   0.628
 2653SOL    HW1 9791   3.248   9.641   0.594
 2653SOL    HW2 9792   3.105   9.613   0.551
 2654SOL     OW 9793   5.591  14.382   1.604
 2654SOL    HW1 9794   5.684  14.403   1.593
 2654SOL    HW2 9795   5.573  14.319   1.534
 2655SOL     OW 9796  14.239  10.562   3.483
 2655SOL    HW1 9797  14.264  10.641   3.532
 2655SOL    HW2 9798  14.313  10.548   3.423
 2656SOL     OW 9799   1.452  12.227   0.442
 2656SOL    HW1 9800   1.394  12.154   0.466
 2656SOL    HW2 9801   1.480  12.263   0.526
 2657SOL     OW 9802  13.269   8.102   8.708
 2657SOL    HW1 9803  13.319   8.158   8.649
 2657SOL    HW2 9804  13.335   8.058   8.761
 2658SOL     OW 9805   8.860   8.968   2.065
 2658SOL    HW1 9806   8.775   8.960   2.109
 2658SOL    HW2 9807   8.894   9.053   2.094
 2659SOL     OW 9808  14.166  12.702  13.590
 2659SOL    HW1 9809  14.260  12.692  13.576
 2659SOL    HW2 9810  14.151  12.797  13.585
 2660SOL     OW 9811  10.149   4.319  14.381
 2660SOL    HW1 9812  10.165   4.227  14.398
 2660SOL    HW2 9813  10.222   4.365  14.423
 2661SOL     OW 9814  13.840   8.622   5.404
 2661SOL    HW1 9815  13.906   8.577   5.457
 2661SOL    HW2 9816  13.889   8.690   5.358
 2662SOL     OW 9817   7.647   3.984  11.262
 2662SOL    HW1 9818   7.648   3.940  11.347
 2662SOL    HW2 9819   7.566   3.953  11.220
 2663SOL     OW 9820   7.164  10.842   8.071
 2663SOL    HW1 9821   7.107  10.909   8.035
 2663SOL    HW2 9822   7.252  10.880   8.066
 2664SOL     OW 9823  13.876  11.338  11.784
 2664SOL    HW1 9824  13.789  11.353  11.820
 2664SOL    HW2 9825  13.924  11.293  11.853
 2665SOL     OW 9826   9.563  11.696  14.078
 2665SOL    HW1 9827   9.624  11.649  14.134
 2665SOL    HW2 9828   9.573  11.788  14.104
 2666SOL     OW 9829  13.379  10.102  14.553
 2666SOL    HW1 9830  13.456  10.076  14.503
 2666SOL    HW2 9831  13.305  10.081  14.497
 2667SOL     OW 9832  11.750  12.912  12.692
 2667SOL    HW1 9833  11.832  12.932  12.737
 2667SOL    HW2 9834  11.687  12.899  12.763
 2668SOL     OW 9835   7.470  11.476   4.556
 2668SOL    HW1 9836   7.480  11.516   4.642
 2668SOL    HW2 9837   7.377  11.451   4.552
 2669SOL     OW 9838   3.533  12.865   6.527
 2669SOL    HW1 9839   3.586  12.792   6.560
 2669SOL    HW2 9840   3.583  12.900   6.454
 2670SOL     OW 9841   3.881   1.145   7.361
 2670SOL    HW1 9842   3.892   1.202   7.285
 2670SOL    HW2 9843   3.807   1.183   7.408
 2671SOL     OW 9844   3.850  12.306   1.306
 2671SOL    HW1 9845   3.911  12.319   1.379
 2671SOL    HW2 9846   3.826  12.213   1.311
 2672SOL     OW 9847   0.444   7.163  10.043
 2672SOL    HW1 9848   0.425   7.139   9.952
 2672SOL    HW2 9849   0.450   7.258  10.042
 2673SOL     OW 9850  10.068   0.936   5.944
 2673SOL    HW1 9851  10.048   0.888   5.864
 2673SOL    HW2 9852  10.013   1.014   5.940
 2674SOL     OW 9853   5.516   3.713  10.408
 2674SOL    HW1 9854   5.605   3.730  10.439
 2674SOL    HW2 9855   5.505   3.618  10.417
 2675SOL     OW 9856  12.225  10.994   5.197
 2675SOL    HW1 9857  12.172  11.062   5.156
 2675SOL    HW2 9858  12.182  10.977   5.281
 2676SOL     OW 9859   6.113   4.750   3.998
 2676SOL    HW1 9860   6.184   4.801   3.959
 2676SOL    HW2 9861   6.150   4.662   4.009
 2677SOL     OW 9862  13.611   7.261   5.717
 2677SOL    HW1 9863  13.552   7.188   5.734
 2677SOL    HW2 9864  13.697   7.220   5.708
 2678SOL     OW 9865   8.690  10.934   8.537
 2678SOL    HW1 9866   8.768  10.942   8.483
 2678SOL    HW2 9867   8.711  10.981   8.618
 2679SOL     OW 9868  11.747   5.997  11.526
 2679SOL    HW1 9869  11.828   6.037  11.492
 2679SOL    HW2 9870  11.681   6.065  11.513
 2680SOL     OW 9871   3.975   3.125  12.030
 2680SOL    HW1 9872   4.023   3.171  11.962
 2680SOL    HW2 9873   3.974   3.033  12.002
 2681SOL     OW 9874   2.159   6.403   9.960
 2681SOL    HW1 9875   2.201   6.380   9.877
 2681SOL    HW2 9876   2.216   6.364  10.027
 2682SOL     OW 9877  10.621   8.528   5.460
 2682SOL    HW1 9878  10.602   8.573   5.377
 2682SOL    HW2 9879  10.536   8.513   5.499
 2683SOL     OW 9880   5.332  14.697   0.200
 2683SOL    HW1 9881   5.257  14.740   0.158
 2683SOL    HW2 9882   5.316  14.603   0.188
 2684SOL     OW 9883  10.188   6.689   7.309
 2684SOL    HW1 9884  10.147   6.643   7.382
 2684SOL    HW2 9885  10.213   6.774   7.345
 2685SOL     OW 9886   4.088   1.225   0.476
 2685SOL    HW1 9887   4.011   1.223   0.419
 2685SOL    HW2 9888   4.119   1.134   0.477
 2686SOL     OW 9889  13.434  10.394   5.261
 2686SOL    HW1 9890  13.338  10.385   5.256
 2686SOL    HW2 9891  13.465  10.309   5.291
 2687SOL     OW 9892   8.176  11.831  14.584
 2687SOL    HW1 9893   8.210  11.920  14.590
 2687SOL    HW2 9894   8.096  11.840  14.532
 2688SOL     OW 9895  10.363   9.296   4.675
 2688SOL    HW1 9896  10.321   9.233   4.617
 2688SOL    HW2 9897  10.436   9.331   4.624
 2689SOL     OW 9898   3.767   4.515  14.120
 2689SOL    HW1 9899   3.810   4.563  14.190
 2689SOL    HW2 9900   3.676   4.545  14.123
 2690SOL     OW 9901   8.713  10.683  12.062
 2690SOL    HW1 9902   8.648  10.753  12.070
 2690SOL    HW2 9903   8.661  10.603  12.060
 2691SOL     OW 9904   9.274  13.046  14.506
 2691SOL    HW1 9905   9.296  12.963  14.465
 2691SOL    HW2 9906   9.356  13.075  14.546
 2692SOL     OW 9907   7.711  10.087   3.144
 2692SOL    HW1 9908   7.795  10.044   3.129
 2692SOL    HW2 9909   7.675  10.046   3.222
 2693SOL     OW 9910   2.151   2.220  13.760
 2693SOL    HW1 9911   2.112   2.262  13.684
 2693SOL    HW2 9912   2.109   2.135  13.766
 2694SOL     OW 9913  14.640  13.564   4.998
 2694SOL    HW1 9914  14.625  13.548   4.905
 2694SOL    HW2 9915  14.555  13.548   5.039
 2695SOL     OW 9916   0.736   9.918   4.883
 2695SOL    HW1 9917   0.700   9.909   4.795
 2695SOL    HW2 9918   0.739   9.829   4.917
 2696SOL     OW 9919   5.955   8.437   2.488
 2696SOL    HW1 9920   6.001   8.354   2.479
 2696SOL    HW2 9921   5.886   8.420   2.552
 2697SOL     OW 9922   5.589   6.538  12.379
 2697SOL    HW1 9923   5.543   6.474  12.325
 2697SOL    HW2 9924   5.530   6.553  12.454
 2698SOL     OW 9925  13.718   7.747   7.207
 2698SOL    HW1 9926  13.679   7.779   7.289
 2698SOL    HW2 9927  13.802   7.710   7.234
 2699SOL     OW 9928  13.190  14.249   1.805
 2699SOL    HW1 9929  13.248  14.178   1.780
 2699SOL    HW2 9930  13.120  14.247   1.739
 2700SOL     OW 9931  11.120   2.681   6.077
 2700SOL    HW1 9932  11.168   2.650   6.153
 2700SOL    HW2 9933  11.049   2.617   6.065
 2701SOL     OW 9934  12.285   7.693   7.598
 2701SOL    HW1 9935  12.318   7.758   7.537
 2701SOL    HW2 9936  12.362   7.663   7.646
 2702SOL     OW 9937   1.685  14.338  14.073
 2702SOL    HW1 9938   1.732  14.406  14.120
 2702SOL    HW2 9939   1.593  14.364  14.078
 2703SOL     OW 9940   5.166   3.762   8.070
 2703SOL    HW1 9941   5.103   3.698   8.038
 2703SOL    HW2 9942   5.188   3.815   7.994
 2704SOL     OW 9943   2.231   2.508  12.213
 2704SOL    HW1 9944   2.196   2.530  12.127
 2704SOL    HW2 9945   2.316   2.552  12.216
 2705SOL     OW 9946   9.178  10.901   2.369
 2705SOL    HW1 9947   9.165  10.951   2.289
 2705SOL    HW2 9948   9.132  10.952   2.436
 2706SOL     OW 9949   9.893   1.391   8.649
 2706SOL    HW1 9950   9.831   1.364   8.717
 2706SOL    HW2 9951   9.853   1.360   8.568
 2707SOL     OW 9952  14.023   0.584   8.772
 2707SOL    HW1 9953  13.943   0.619   8.733
 2707SOL    HW2 9954  14.092   0.641   8.738
 2708SOL     OW 9955   9.077  12.483   1.679
 2708SOL    HW1 9956   8.986  12.476   1.708
 2708SOL    HW2 9957   9.129  12.465   1.758
 2709SOL     OW 9958   6.744  12.134   3.308
 2709SOL    HW1 9959   6.790  12.057   3.273
 2709SOL    HW2 9960   6.705  12.103   3.390
 2710SOL     OW 9961   2.654  10.974   2.555
 2710SOL    HW1 9962   2.641  10.880   2.564
 2710SOL    HW2 9963   2.615  10.996   2.470
 2711SOL     OW 9964   5.913   5.492  12.047
 2711SOL    HW1 9965   5.961   5.471  11.967
 2711SOL    HW2 9966   5.947   5.576  12.075
 2712SOL     OW 9967   4.471   7.461   2.295
 2712SOL    HW1 9968   4.376   7.461   2.279
 2712SOL    HW2 9969   4.485   7.539   2.349
 2713SOL     OW 9970   2.680   3.437  12.409
 2713SOL    HW1 9971   2.644   3.413  12.324
 2713SOL    HW2 9972   2.617   3.500  12.445
 2714SOL     OW 9973  10.888  10.269   4.709
 2714SOL    HW1 9974  10.850  10.288   4.623
 2714SOL    HW2 9975  10.914  10.355   4.742
 2715SOL     OW 9976   8.319   6.692   6.492
 2715SOL    HW1 9977   8.399   6.639   6.493
 2715SOL    HW2 9978   8.248   6.629   6.501
 2716SOL     OW 9979   3.999   3.850  14.711
 2716SOL    HW1 9980   4.092   3.835  14.694
 2716SOL    HW2 9981   3.956   3.826  14.629
 2717SOL     OW 9982  12.613   2.827  11.057
 2717SOL    HW1 9983  12.704   2.855  11.062
 2717SOL    HW2 9984  12.617   2.731  11.057
 2718SOL     OW 9985   9.331   8.501   8.650
 2718SOL    HW1 9986   9.314   8.582   8.601
 2718SOL    HW2 9987   9.392   8.452   8.595
 2719SOL     OW 9988   0.159   0.404   4.453
 2719SOL    HW1 9989   0.098   0.478   4.464
 2719SOL    HW2 9990   0.142   0.349   4.529
 2720SOL     OW 9991   3.546   2.156   3.161
 2720SOL    HW1 9992   3.637   2.185   3.158
 2720SOL    HW2 9993   3.536   2.098   3.086
 2721SOL     OW 9994   0.810  12.685  13.179
 2721SOL    HW1 9995   0.876  12.635  13.227
 2721SOL    HW2 9996   0.854  12.709  13.097
 2722SOL     OW 9997   9.091   4.605   8.565
 2722SOL    HW1 9998   9.154   4.588   8.636
 2722SOL    HW2 9999   9.094   4.525   8.512
 2723SOL     OW10000   6.780   4.165   7.798
 2723SOL    HW110001   6.749   4.103   7.732
 2723SOL    HW210002   6.707   4.172   7.861
 2724SOL     OW10003   0.077  10.318   2.320
 2724SOL    HW110004   0.142  10.301   2.252
 2724SOL    HW210005   0.034  10.233   2.334
 2725SOL     OW10006   5.201   3.704   0.903
 2725SOL    HW110007   5.181   3.769   0.971
 2725SOL    HW210008   5.121   3.654   0.894
 2726SOL     OW10009  11.013  13.999  11.664
 2726SOL    HW110010  10.962  13.971  11.589
 2726SOL    HW210011  11.083  13.935  11.672
 2727SOL     OW10012   0.076   3.090  14.187
 2727SOL    HW110013   0.069   2.996  14.207
 2727SOL    HW210014  14.867   3.128  14.220
 2728SOL     OW10015  12.959  14.298   0.598
 2728SOL    HW110016  12.865  14.287   0.583
 2728SOL    HW210017  12.993  14.208   0.607
 2729SOL     OW10018   6.527  14.016   6.135
 2729SOL    HW110019   6.485  13.937   6.170
 2729SOL    HW210020   6.540  13.997   6.042
 2730SOL     OW10021  11.341   5.137  10.223
 2730SOL    HW110022  11.318   5.127  10.131
 2730SOL    HW210023  11.301   5.061  10.266
 2731SOL     OW10024   5.027   1.485   2.538
 2731SOL    HW110025   4.933   1.472   2.524
 2731SOL    HW210026   5.036   1.493   2.633
 2732SOL     OW10027  14.171  12.714   3.546
 2732SOL    HW110028  14.110  12.753   3.608
 2732SOL    HW210029  14.238  12.782   3.532
 2733SOL     OW10030   9.955   2.040   5.213
 2733SOL    HW110031   9.931   2.061   5.304
 2733SOL    HW210032  10.044   2.007   5.219
 2734SOL     OW10033   6.233   3.164   6.124
 2734SOL    HW110034   6.242   3.073   6.154
 2734SOL    HW210035   6.157   3.197   6.172
 2735SOL     OW10036   2.482   1.516   2.306
 2735SOL    HW110037   2.549   1.578   2.336
 2735SOL    HW210038   2.425   1.567   2.250
 2736SOL     OW10039   3.042   8.631  14.821
 2736SOL    HW110040   3.051   8.723  14.793
 2736SOL    HW210041   3.125   8.591  14.796
 2737SOL     OW10042  11.611  11.822   4.557
 2737SOL    HW110043  11.698  11.786   4.571
 2737SOL    HW210044  11.626  11.903   4.507
 2738SOL     OW10045   8.223  11.745  13.923
 2738SOL    HW110046   8.168  11.674  13.889
 2738SOL    HW210047   8.174  11.778  13.998
 2739SOL     OW10048   3.049   2.120   7.265
 2739SOL    HW110049   3.100   2.195   7.293
 2739SOL    HW210050   3.094   2.044   7.302
 2740SOL     OW10051   2.994  13.486  11.672
 2740SOL    HW110052   3.089  13.494  11.681
 2740SOL    HW210053   2.974  13.398  11.705
 2741SOL     OW10054   0.629   0.477   9.855
 2741SOL    HW110055   0.646   0.387   9.881
 2741SOL    HW210056   0.631   0.526   9.938
 2742SOL     OW10057  11.883  13.665  12.933
 2742SOL    HW110058  11.808  13.607  12.950
 2742SOL    HW210059  11.843  13.747  12.906
 2743SOL     OW10060  13.016   5.252   7.433
 2743SOL    HW110061  12.953   5.280   7.500
 2743SOL    HW210062  13.100   5.286   7.463
 2744SOL     OW10063   7.176   3.891   9.587
 2744SOL    HW110064   7.138   3.952   9.524
 2744SOL    HW210065   7.186   3.809   9.538
 2745SOL     OW10066  11.469   5.090  13.653
 2745SOL    HW110067  11.432   5.002  13.655
 2745SOL    HW210068  11.497   5.102  13.562
 2746SOL     OW10069   4.152   6.199  13.762
 2746SOL    HW110070   4.113   6.235  13.841
 2746SOL    HW210071   4.088   6.135  13.731
 2747SOL     OW10072   8.974   9.366  12.948
 2747SOL    HW110073   8.953   9.441  12.891
 2747SOL    HW210074   9.058   9.334  12.915
 2748SOL     OW10075   5.223   3.875   2.082
 2748SOL    HW110076   5.135   3.913   2.085
 2748SOL    HW210077   5.277   3.942   2.040
 2749SOL     OW10078  11.020  14.718   9.227
 2749SOL    HW110079  11.036  14.812   9.216
 2749SOL    HW210080  10.925  14.711   9.236
 2750SOL     OW10081   5.353   0.233  11.081
 2750SOL    HW110082   5.355   0.138  11.065
 2750SOL    HW210083   5.290   0.267  11.017
 2751SOL     OW10084   1.796   8.642   2.493
 2751SOL    HW110085   1.785   8.724   2.541
 2751SOL    HW210086   1.872   8.600   2.533
 2752SOL     OW10087   8.662  12.564   9.560
 2752SOL    HW110088   8.578  12.571   9.606
 2752SOL    HW210089   8.655  12.482   9.510
 2753SOL     OW10090   5.549   6.775  10.756
 2753SOL    HW110091   5.530   6.682  10.750
 2753SOL    HW210092   5.639   6.779  10.789
 2754SOL     OW10093   7.479  10.175   6.161
 2754SOL    HW110094   7.473  10.118   6.237
 2754SOL    HW210095   7.516  10.257   6.195
 2755SOL     OW10096   6.216   7.714  11.937
 2755SOL    HW110097   6.174   7.799  11.918
 2755SOL    HW210098   6.169   7.682  12.014
 2756SOL     OW10099   3.477   6.927   2.713
 2756SOL    HW110100   3.411   6.933   2.644
 2756SOL    HW210101   3.470   7.009   2.760
 2757SOL     OW10102   3.507  13.508  14.238
 2757SOL    HW110103   3.449  13.489  14.312
 2757SOL    HW210104   3.452  13.496  14.161
 2758SOL     OW10105  11.747  11.211   1.414
 2758SOL    HW110106  11.824  11.239   1.365
 2758SOL    HW210107  11.691  11.289   1.417
 2759SOL     OW10108   7.916   9.074   4.318
 2759SOL    HW110109   7.963   9.076   4.402
 2759SOL    HW210110   7.952   8.998   4.273
 2760SOL     OW10111   7.622   5.689   7.118
 2760SOL    HW110112   7.572   5.608   7.113
 2760SOL    HW210113   7.558   5.756   7.140
 2761SOL     OW10114   8.301  11.015   0.519
 2761SOL    HW110115   8.343  11.073   0.584
 2761SOL    HW210116   8.373  10.966   0.481
 2762SOL     OW10117  10.644   3.877  12.328
 2762SOL    HW110118  10.733   3.895  12.296
 2762SOL    HW210119  10.625   3.951  12.387
 2763SOL     OW10120   7.127   9.173  13.275
 2763SOL    HW110121   7.053   9.230  13.259
 2763SOL    HW210122   7.123   9.108  13.205
 2764SOL     OW10123   3.915  12.528   7.098
 2764SOL    HW110124   4.006  12.497   7.095
 2764SOL    HW210125   3.899  12.546   7.190
 2765SOL     OW10126   4.956  11.223   2.906
 2765SOL    HW110127   5.009  11.297   2.935
 2765SOL    HW210128   5.019  11.155   2.886
 2766SOL     OW10129  12.144  11.892   1.485
 2766SOL    HW110130  12.222  11.839   1.471
 2766SOL    HW210131  12.174  11.966   1.537
 2767SOL     OW10132   5.332   2.359   8.223
 2767SOL    HW110133   5.389   2.432   8.195
 2767SOL    HW210134   5.244   2.397   8.224
 2768SOL     OW10135  10.175   6.306  12.162
 2768SOL    HW110136  10.217   6.329  12.245
 2768SOL    HW210137  10.245   6.312  12.098
 2769SOL     OW10138  10.347   0.151   5.752
 2769SOL    HW110139  10.384   0.122   5.835
 2769SOL    HW210140  10.395   0.101   5.686
 2770SOL     OW10141  12.063   8.756   0.345
 2770SOL    HW110142  12.085   8.786   0.433
 2770SOL    HW210143  12.092   8.664   0.344
 2771SOL     OW10144   7.276   6.689   3.178
 2771SOL    HW110145   7.361   6.646   3.178
 2771SOL    HW210146   7.249   6.691   3.086
 2772SOL     OW10147   4.520  14.089   2.207
 2772SOL    HW110148   4.426  14.087   2.191
 2772SOL    HW210149   4.553  14.154   2.145
 2773SOL     OW10150   6.525   9.109   6.951
 2773SOL    HW110151   6.570   9.046   6.894
 2773SOL    HW210152   6.579   9.188   6.945
 2774SOL     OW10153   4.766   3.607   4.325
 2774SOL    HW110154   4.723   3.539   4.378
 2774SOL    HW210155   4.699   3.634   4.262
 2775SOL     OW10156   8.970   8.579   0.183
 2775SOL    HW110157   9.039   8.597   0.247
 2775SOL    HW210158   8.903   8.530   0.231
 2776SOL     OW10159   6.905   4.374   1.868
 2776SOL    HW110160   6.921   4.292   1.915
 2776SOL    HW210161   6.857   4.429   1.930
 2777SOL     OW10162  13.339   3.149  11.600
 2777SOL    HW110163  13.402   3.163  11.530
 2777SOL    HW210164  13.254   3.148  11.556
 2778SOL     OW10165   3.259   3.482   1.048
 2778SOL    HW110166   3.351   3.477   1.019
 2778SOL    HW210167   3.208   3.462   0.969
 2779SOL     OW10168  13.742   4.269   6.281
 2779SOL    HW110169  13.785   4.197   6.328
 2779SOL    HW210170  13.750   4.344   6.340
 2780SOL     OW10171   3.912   2.664   8.309
 2780SOL    HW110172   4.005   2.641   8.299
 2780SOL    HW210173   3.900   2.741   8.254
 2781SOL     OW10174   9.528   1.484   2.600
 2781SOL    HW110175   9.572   1.490   2.515
 2781SOL    HW210176   9.524   1.574   2.632
 2782SOL     OW10177  13.960   7.510  11.660
 2782SOL    HW110178  14.036   7.480  11.610
 2782SOL    HW210179  13.885   7.476  11.612
 2783SOL     OW10180  12.413   8.236  12.057
 2783SOL    HW110181  12.373   8.319  12.083
 2783SOL    HW210182  12.355   8.202  11.988
 2784SOL     OW10183   3.090  14.498  12.110
 2784SOL    HW110184   3.014  14.489  12.167
 2784SOL    HW210185   3.110  14.592  12.110
 2785SOL     OW10186   9.085   5.536  12.875
 2785SOL    HW110187   9.180   5.528  12.869
 2785SOL    HW210188   9.055   5.537  12.784
 2786SOL     OW10189   1.841  13.913  13.826
 2786SOL    HW110190   1.794  13.895  13.908
 2786SOL    HW210191   1.833  14.008  13.814
 2787SOL     OW10192   7.988   9.869  10.799
 2787SOL    HW110193   7.930   9.902  10.869
 2787SOL    HW210194   7.929   9.852  10.726
 2788SOL     OW10195  12.039   4.307   0.443
 2788SOL    HW110196  12.056   4.394   0.480
 2788SOL    HW210197  12.120   4.286   0.396
 2789SOL     OW10198   6.860  13.148  13.519
 2789SOL    HW110199   6.856  13.058  13.486
 2789SOL    HW210200   6.784  13.155  13.576
 2790SOL     OW10201   3.522   1.066   3.746
 2790SOL    HW110202   3.509   1.108   3.661
 2790SOL    HW210203   3.433   1.049   3.778
 2791SOL     OW10204   9.743   6.757  13.727
 2791SOL    HW110205   9.667   6.815  13.734
 2791SOL    HW210206   9.819   6.815  13.736
 2792SOL     OW10207  10.915  12.767   6.871
 2792SOL    HW110208  10.980  12.773   6.941
 2792SOL    HW210209  10.834  12.800   6.909
 2793SOL     OW10210  11.671   9.187   2.594
 2793SOL    HW110211  11.663   9.188   2.499
 2793SOL    HW210212  11.729   9.261   2.614
 2794SOL     OW10213  12.515   7.095   7.806
 2794SOL    HW110214  12.426   7.062   7.792
 2794SOL    HW210215  12.515   7.125   7.897
 2795SOL     OW10216   3.418   9.592  11.382
 2795SOL    HW110217   3.376   9.622  11.301
 2795SOL    HW210218   3.352   9.606  11.450
 2796SOL     OW10219  10.139  10.413   6.746
 2796SOL    HW110220  10.153  10.332   6.796
 2796SOL    HW210221  10.123  10.479   6.813
 2797SOL     OW10222  13.908   3.731   4.504
 2797SOL    HW110223  13.901   3.812   4.556
 2797SOL    HW210224  13.827   3.684   4.522
 2798SOL     OW10225   0.397  11.478  13.482
 2798SOL    HW110226   0.371  11.494  13.391
 2798SOL    HW210227   0.345  11.539  13.534
 2799SOL     OW10228   2.280   0.415   8.035
 2799SOL    HW110229   2.225   0.417   8.113
 2799SOL    HW210230   2.353   0.357   8.059
 2800SOL     OW10231   3.989  12.845   8.156
 2800SOL    HW110232   3.934  12.824   8.232
 2800SOL    HW210233   3.931  12.834   8.081
 2801SOL     OW10234   8.075   5.117   0.446
 2801SOL    HW110235   8.096   5.049   0.383
 2801SOL    HW210236   8.015   5.074   0.508
 2802SOL     OW10237  12.138   8.495  10.427
 2802SOL    HW110238  12.162   8.428  10.363
 2802SOL    HW210239  12.080   8.554  10.379
 2803SOL     OW10240   0.002   3.982   9.770
 2803SOL    HW110241  14.783   4.010   9.765
 2803SOL    HW210242   0.001   3.890   9.744
 2804SOL     OW10243   9.623  14.157   6.523
 2804SOL    HW110244   9.649  14.102   6.449
 2804SOL    HW210245   9.701  14.207   6.544
 2805SOL     OW10246   1.248  11.659   2.346
 2805SOL    HW110247   1.272  11.631   2.435
 2805SOL    HW210248   1.172  11.605   2.324
 2806SOL     OW10249   5.850   9.163   8.639
 2806SOL    HW110250   5.829   9.129   8.727
 2806SOL    HW210251   5.767   9.156   8.591
 2807SOL     OW10252  12.808  13.806  14.629
 2807SOL    HW110253  12.829  13.721  14.589
 2807SOL    HW210254  12.875  13.817  14.697
 2808SOL     OW10255  10.745   1.384   1.820
 2808SOL    HW110256  10.722   1.468   1.782
 2808SOL    HW210257  10.808   1.346   1.758
 2809SOL     OW10258   0.581   2.208   4.805
 2809SOL    HW110259   0.513   2.182   4.867
 2809SOL    HW210260   0.662   2.172   4.841
 2810SOL     OW10261   0.007  11.765   7.555
 2810SOL    HW110262  14.860  11.758   7.462
 2810SOL    HW210263  14.804  11.723   7.598
 2811SOL     OW10264   2.996   9.100  14.193
 2811SOL    HW110265   2.997   9.037  14.266
 2811SOL    HW210266   3.084   9.137  14.193
 2812SOL     OW10267   3.190   6.879   5.250
 2812SOL    HW110268   3.219   6.970   5.238
 2812SOL    HW210269   3.270   6.827   5.242
 2813SOL     OW10270   0.945   6.783  14.262
 2813SOL    HW110271   0.957   6.864  14.213
 2813SOL    HW210272   0.856   6.755  14.242
 2814SOL     OW10273  11.687   6.606   6.850
 2814SOL    HW110274  11.725   6.665   6.914
 2814SOL    HW210275  11.626   6.661   6.800
 2815SOL     OW10276   6.996   5.017   7.313
 2815SOL    HW110277   6.993   5.095   7.368
 2815SOL    HW210278   7.069   4.966   7.347
 2816SOL     OW10279  11.405   5.725   6.390
 2816SOL    HW110280  11.433   5.634   6.380
 2816SOL    HW210281  11.458   5.758   6.463
 2817SOL     OW10282  13.811   9.996   5.104
 2817SOL    HW110283  13.886  10.055   5.094
 2817SOL    HW210284  13.737  10.046   5.068
 2818SOL     OW10285   2.295  11.925  12.425
 2818SOL    HW110286   2.263  11.965  12.505
 2818SOL    HW210287   2.318  11.835  12.451
 2819SOL     OW10288  13.363  14.005   9.305
 2819SOL    HW110289  13.408  14.005   9.220
 2819SOL    HW210290  13.277  13.967   9.287
 2820SOL     OW10291   1.554  12.920  12.415
 2820SOL    HW110292   1.563  12.997  12.358
 2820SOL    HW210293   1.519  12.852  12.357
 2821SOL     OW10294  12.343   9.323   9.137
 2821SOL    HW110295  12.367   9.255   9.074
 2821SOL    HW210296  12.258   9.295   9.171
 2822SOL     OW10297   2.580   2.815   4.231
 2822SOL    HW110298   2.513   2.874   4.266
 2822SOL    HW210299   2.653   2.823   4.292
 2823SOL     OW10300   2.814   5.225   1.861
 2823SOL    HW110301   2.756   5.229   1.937
 2823SOL    HW210302   2.874   5.153   1.880
 2824SOL     OW10303   7.023   2.978   9.998
 2824SOL    HW110304   6.965   3.051   9.977
 2824SOL    HW210305   7.063   2.953   9.914
 2825SOL     OW10306   4.287  10.230  11.857
 2825SOL    HW110307   4.353  10.252  11.922
 2825SOL    HW210308   4.326  10.158  11.808
 2826SOL     OW10309  12.522   6.864  10.348
 2826SOL    HW110310  12.588   6.922  10.387
 2826SOL    HW210311  12.456   6.855  10.416
 2827SOL     OW10312   8.956  11.505   8.542
 2827SOL    HW110313   8.938  11.550   8.624
 2827SOL    HW210314   8.930  11.567   8.474
 2828SOL     OW10315   1.606   3.103   4.231
 2828SOL    HW110316   1.675   3.145   4.181
 2828SOL    HW210317   1.651   3.059   4.303
 2829SOL     OW10318   2.129  12.481   8.519
 2829SOL    HW110319   2.205  12.498   8.575
 2829SOL    HW210320   2.149  12.526   8.437
 2830SOL     OW10321  14.814   2.817  13.729
 2830SOL    HW110322  14.823   2.728  13.765
 2830SOL    HW210323  14.778   2.804  13.642
 2831SOL     OW10324  13.388   6.719   3.418
 2831SOL    HW110325  13.467   6.772   3.431
 2831SOL    HW210326  13.417   6.646   3.364
 2832SOL     OW10327   0.579  11.098  10.359
 2832SOL    HW110328   0.534  11.182  10.368
 2832SOL    HW210329   0.525  11.049  10.297
 2833SOL     OW10330  12.871  13.699   5.657
 2833SOL    HW110331  12.954  13.708   5.704
 2833SOL    HW210332  12.887  13.629   5.595
 2834SOL     OW10333   0.672  10.926  10.558
 2834SOL    HW110334   0.619  11.001  10.529
 2834SOL    HW210335   0.726  10.904  10.483
 2835SOL     OW10336  10.731   1.576  11.095
 2835SOL    HW110337  10.774   1.595  11.178
 2835SOL    HW210338  10.659   1.518  11.118
 2836SOL     OW10339   5.411   0.764   5.289
 2836SOL    HW110340   5.435   0.846   5.246
 2836SOL    HW210341   5.352   0.790   5.360
 2837SOL     OW10342  11.117  14.322   8.375
 2837SOL    HW110343  11.064  14.329   8.454
 2837SOL    HW210344  11.206  14.343   8.404
 2838SOL     OW10345   1.313   6.949   5.071
 2838SOL    HW110346   1.373   6.906   5.009
 2838SOL    HW210347   1.359   7.029   5.097
 2839SOL     OW10348   6.455  10.558  12.218
 2839SOL    HW110349   6.371  10.519  12.194
 2839SOL    HW210350   6.449  10.570  12.312
 2840SOL     OW10351   5.245  11.961   5.099
 2840SOL    HW110352   5.189  12.029   5.061
 2840SOL    HW210353   5.288  11.920   5.023
 2841SOL     OW10354   0.085   2.210  13.792
 2841SOL    HW110355   0.098   2.286  13.848
 2841SOL    HW210356   0.084   2.246  13.703
 2842SOL     OW10357   6.265  12.987  12.818
 2842SOL    HW110358   6.237  12.916  12.760
 2842SOL    HW210359   6.340  12.950  12.865
 2843SOL     OW10360   3.509  11.685   4.017
 2843SOL    HW110361   3.552  11.744   3.955
 2843SOL    HW210362   3.543  11.712   4.102
 2844SOL     OW10363   0.423   3.408  13.474
 2844SOL    HW110364   0.464   3.340  13.420
 2844SOL    HW210365   0.497   3.456  13.512
 2845SOL     OW10366   5.498  11.799   8.800
 2845SOL    HW110367   5.407  11.798   8.829
 2845SOL    HW210368   5.549  11.800   8.881
 2846SOL     OW10369   5.091   5.931   0.054
 2846SOL    HW110370   5.071   6.024   0.046
 2846SOL    HW210371   5.007   5.886   0.040
 2847SOL     OW10372  12.363  12.989   4.541
 2847SOL    HW110373  12.442  13.043   4.543
 2847SOL    HW210374  12.306  13.028   4.607
 2848SOL     OW10375   1.260   7.228   2.953
 2848SOL    HW110376   1.280   7.136   2.970
 2848SOL    HW210377   1.330   7.276   2.998
 2849SOL     OW10378   0.478   2.609  10.602
 2849SOL    HW110379   0.489   2.539  10.538
 2849SOL    HW210380   0.566   2.626  10.636
 2850SOL     OW10381   2.412   2.711   3.193
 2850SOL    HW110382   2.429   2.691   3.101
 2850SOL    HW210383   2.388   2.803   3.193
 2851SOL     OW10384   4.029   4.690  13.043
 2851SOL    HW110385   4.096   4.702  12.975
 2851SOL    HW210386   3.956   4.649  12.997
 2852SOL     OW10387  12.649   2.502  11.686
 2852SOL    HW110388  12.560   2.489  11.653
 2852SOL    HW210389  12.704   2.502  11.607
 2853SOL     OW10390   7.805  13.393   5.875
 2853SOL    HW110391   7.719  13.355   5.891
 2853SOL    HW210392   7.865  13.319   5.878
 2854SOL     OW10393   9.768  11.106  11.748
 2854SOL    HW110394   9.844  11.114  11.690
 2854SOL    HW210395   9.711  11.179  11.722
 2855SOL     OW10396   5.128   1.698   3.581
 2855SOL    HW110397   5.199   1.751   3.617
 2855SOL    HW210398   5.156   1.608   3.594
 2856SOL     OW10399   6.875  10.899   9.375
 2856SOL    HW110400   6.891  10.964   9.443
 2856SOL    HW210401   6.790  10.922   9.338
 2857SOL     OW10402   4.713  11.863   9.268
 2857SOL    HW110403   4.627  11.901   9.250
 2857SOL    HW210404   4.710  11.777   9.226
 2858SOL     OW10405   3.743   2.569  12.104
 2858SOL    HW110406   3.829   2.585  12.144
 2858SOL    HW210407   3.691   2.529  12.174
 2859SOL     OW10408   7.489   9.922   6.036
 2859SOL    HW110409   7.476  10.006   6.079
 2859SOL    HW210410   7.562   9.882   6.084
 2860SOL     OW10411   6.825  12.515  14.000
 2860SOL    HW110412   6.791  12.586  13.947
 2860SOL    HW210413   6.749  12.461  14.022
 2861SOL     OW10414   7.964  12.188   6.315
 2861SOL    HW110415   7.935  12.275   6.344
 2861SOL    HW210416   7.920  12.127   6.374
 2862SOL     OW10417   6.404   8.008   3.513
 2862SOL    HW110418   6.391   7.917   3.539
 2862SOL    HW210419   6.464   8.043   3.579
 2863SOL     OW10420  11.125   9.939   7.015
 2863SOL    HW110421  11.149   9.878   7.085
 2863SOL    HW210422  11.204   9.991   7.001
 2864SOL     OW10423   3.318  10.834  11.181
 2864SOL    HW110424   3.263  10.908  11.204
 2864SOL    HW210425   3.406  10.859  11.209
 2865SOL     OW10426   9.628   2.919   3.492
 2865SOL    HW110427   9.581   2.925   3.575
 2865SOL    HW210428   9.594   2.992   3.440
 2866SOL     OW10429  14.863   9.733   7.272
 2866SOL    HW110430   0.054   9.676   7.228
 2866SOL    HW210431  14.871   9.817   7.226
 2867SOL     OW10432  11.174   2.440   4.594
 2867SOL    HW110433  11.224   2.400   4.665
 2867SOL    HW210434  11.210   2.528   4.585
 2868SOL     OW10435   1.243   8.461   3.406
 2868SOL    HW110436   1.222   8.368   3.411
 2868SOL    HW210437   1.338   8.464   3.395
 2869SOL     OW10438   6.108   9.038   8.653
 2869SOL    HW110439   6.094   8.959   8.704
 2869SOL    HW210440   6.021   9.075   8.641
 2870SOL     OW10441   4.949   2.915   2.158
 2870SOL    HW110442   4.988   2.982   2.216
 2870SOL    HW210443   4.863   2.951   2.135
 2871SOL     OW10444   3.696   8.572   9.668
 2871SOL    HW110445   3.705   8.510   9.595
 2871SOL    HW210446   3.757   8.539   9.734
 2872SOL     OW10447  11.933  10.086   3.446
 2872SOL    HW110448  11.874  10.014   3.466
 2872SOL    HW210449  11.958  10.072   3.355
 2873SOL     OW10450   5.605   8.672   8.204
 2873SOL    HW110451   5.643   8.623   8.277
 2873SOL    HW210452   5.574   8.604   8.144
 2874SOL     OW10453   6.302   6.649   0.355
 2874SOL    HW110454   6.239   6.616   0.292
 2874SOL    HW210455   6.350   6.572   0.385
 2875SOL     OW10456   2.020   5.805   3.979
 2875SOL    HW110457   2.115   5.810   3.971
 2875SOL    HW210458   1.988   5.884   3.935
 2876SOL     OW10459   1.777   4.687   3.806
 2876SOL    HW110460   1.690   4.669   3.768
 2876SOL    HW210461   1.770   4.776   3.841
 2877SOL     OW10462   7.879   5.708   3.083
 2877SOL    HW110463   7.843   5.627   3.047
 2877SOL    HW210464   7.805   5.769   3.085
 2878SOL     OW10465   8.687   8.371   3.312
 2878SOL    HW110466   8.594   8.362   3.290
 2878SOL    HW210467   8.687   8.377   3.408
 2879SOL     OW10468  11.186   3.575   3.769
 2879SOL    HW110469  11.103   3.624   3.771
 2879SOL    HW210470  11.214   3.572   3.860
 2880SOL     OW10471   3.049  12.152  12.810
 2880SOL    HW110472   3.048  12.247  12.808
 2880SOL    HW210473   2.978  12.127  12.750
 2881SOL     OW10474   9.515   6.281   5.504
 2881SOL    HW110475   9.561   6.356   5.465
 2881SOL    HW210476   9.540   6.282   5.596
 2882SOL     OW10477  11.883   8.469   4.617
 2882SOL    HW110478  11.823   8.501   4.550
 2882SOL    HW210479  11.893   8.543   4.677
 2883SOL     OW10480   4.631   8.254   0.505
 2883SOL    HW110481   4.706   8.273   0.450
 2883SOL    HW210482   4.660   8.277   0.594
 2884SOL     OW10483   1.217   4.551   9.763
 2884SOL    HW110484   1.168   4.607   9.823
 2884SOL    HW210485   1.294   4.603   9.739
 2885SOL     OW10486   6.328   4.006  11.158
 2885SOL    HW110487   6.394   3.990  11.090
 2885SOL    HW210488   6.299   3.919  11.185
 2886SOL     OW10489  13.555   9.865   6.622
 2886SOL    HW110490  13.507   9.877   6.704
 2886SOL    HW210491  13.501   9.805   6.571
 2887SOL     OW10492   5.189  11.250   4.017
 2887SOL    HW110493   5.114  11.305   3.996
 2887SOL    HW210494   5.176  11.171   3.964
 2888SOL     OW10495  10.296  10.296  13.776
 2888SOL    HW110496  10.258  10.227  13.831
 2888SOL    HW210497  10.323  10.251  13.696
 2889SOL     OW10498   2.578   6.721   7.462
 2889SOL    HW110499   2.606   6.698   7.374
 2889SOL    HW210500   2.495   6.768   7.449
 2890SOL     OW10501   4.472   8.615  11.966
 2890SOL    HW110502   4.452   8.669  12.043
 2890SOL    HW210503   4.567   8.620  11.958
 2891SOL     OW10504   3.428   2.901   6.682
 2891SOL    HW110505   3.515   2.935   6.658
 2891SOL    HW210506   3.397   2.961   6.749
 2892SOL     OW10507   9.016  11.578  10.870
 2892SOL    HW110508   9.059  11.494  10.889
 2892SOL    HW210509   8.940  11.555  10.817
 2893SOL     OW10510  12.879   3.313   5.189
 2893SOL    HW110511  12.888   3.218   5.185
 2893SOL    HW210512  12.941   3.345   5.123
 2894SOL     OW10513  10.434   5.544   4.868
 2894SOL    HW110514  10.392   5.627   4.890
 2894SOL    HW210515  10.514   5.543   4.922
 2895SOL     OW10516   1.476   4.934   1.043
 2895SOL    HW110517   1.425   5.001   1.088
 2895SOL    HW210518   1.567   4.956   1.063
 2896SOL     OW10519   1.458   7.849  10.533
 2896SOL    HW110520   1.409   7.925  10.500
 2896SOL    HW210521   1.458   7.860  10.628
 2897SOL     OW10522  12.337  13.922   2.365
 2897SOL    HW110523  12.404  13.924   2.296
 2897SOL    HW210524  12.274  13.989   2.337
 2898SOL     OW10525   4.102  11.510   0.186
 2898SOL    HW110526   4.078  11.509   0.093
 2898SOL    HW210527   4.182  11.563   0.189
 2899SOL     OW10528   4.408  11.125   8.866
 2899SOL    HW110529   4.385  11.211   8.832
 2899SOL    HW210530   4.397  11.066   8.792
 2900SOL     OW10531   8.526   8.273  14.085
 2900SOL    HW110532   8.506   8.217  14.161
 2900SOL    HW210533   8.598   8.227  14.040
 2901SOL     OW10534   4.476  14.628   3.348
 2901SOL    HW110535   4.389  14.641   3.310
 2901SOL    HW210536   4.537  14.663   3.283
 2902SOL     OW10537   7.199   9.147  12.356
 2902SOL    HW110538   7.108   9.146  12.385
 2902SOL    HW210539   7.210   9.064  12.309
 2903SOL     OW10540  12.938   2.004   9.536
 2903SOL    HW110541  12.938   1.974   9.626
 2903SOL    HW210542  12.913   2.096   9.541
 2904SOL     OW10543   1.013   6.204   2.848
 2904SOL    HW110544   1.000   6.286   2.896
 2904SOL    HW210545   0.991   6.136   2.911
 2905SOL     OW10546   9.140  14.749  11.366
 2905SOL    HW110547   9.194  14.798  11.305
 2905SOL    HW210548   9.065  14.805  11.384
 2906SOL     OW10549   8.997   6.445   0.748
 2906SOL    HW110550   9.024   6.529   0.711
 2906SOL    HW210551   9.015   6.454   0.842
 2907SOL     OW10552   5.322  13.884   3.838
 2907SOL    HW110553   5.385  13.880   3.767
 2907SOL    HW210554   5.372  13.916   3.913
 2908SOL     OW10555  14.549   8.573   8.635
 2908SOL    HW110556  14.496   8.536   8.564
 2908SOL    HW210557  14.573   8.661   8.604
 2909SOL     OW10558  13.872   3.956  14.042
 2909SOL    HW110559  13.895   3.868  14.011
 2909SOL    HW210560  13.777   3.955  14.049
 2910SOL     OW10561  12.425   8.014   6.199
 2910SOL    HW110562  12.455   8.015   6.108
 2910SOL    HW210563  12.339   8.055   6.196
 2911SOL     OW10564  13.917  10.571   0.360
 2911SOL    HW110565  14.012  10.560   0.351
 2911SOL    HW210566  13.904  10.665   0.364
 2912SOL     OW10567   4.457  10.678   3.216
 2912SOL    HW110568   4.378  10.731   3.210
 2912SOL    HW210569   4.487  10.690   3.306
 2913SOL     OW10570  10.596   3.295   3.255
 2913SOL    HW110571  10.507   3.276   3.224
 2913SOL    HW210572  10.584   3.361   3.323
 2914SOL     OW10573   0.849   9.840  10.254
 2914SOL    HW110574   0.841   9.850  10.349
 2914SOL    HW210575   0.925   9.894  10.231
 2915SOL     OW10576   0.842  12.072   1.863
 2915SOL    HW110577   0.827  11.978   1.863
 2915SOL    HW210578   0.794  12.104   1.786
 2916SOL     OW10579  13.294   2.501  14.305
 2916SOL    HW110580  13.361   2.435  14.321
 2916SOL    HW210581  13.255   2.518  14.391
 2917SOL     OW10582   0.587  13.046   2.706
 2917SOL    HW110583   0.601  12.952   2.696
 2917SOL    HW210584   0.560  13.076   2.619
 2918SOL     OW10585  12.631  14.135   5.183
 2918SOL    HW110586  12.683  14.146   5.263
 2918SOL    HW210587  12.653  14.212   5.130
 2919SOL     OW10588   1.112   3.694   4.875
 2919SOL    HW110589   1.125   3.610   4.920
 2919SOL    HW210590   1.080   3.753   4.943
 2920SOL     OW10591   7.576   7.203   0.133
 2920SOL    HW110592   7.531   7.210   0.217
 2920SOL    HW210593   7.668   7.190   0.156
 2921SOL     OW10594  13.008  12.366  11.730
 2921SOL    HW110595  13.102  12.358  11.715
 2921SOL    HW210596  12.969  12.353  11.643
 2922SOL     OW10597   0.582   9.884   0.921
 2922SOL    HW110598   0.516   9.847   0.863
 2922SOL    HW210599   0.665   9.851   0.888
 2923SOL     OW10600   7.851   6.803   2.139
 2923SOL    HW110601   7.834   6.720   2.184
 2923SOL    HW210602   7.939   6.793   2.103
 2924SOL     OW10603   3.444   7.598   9.609
 2924SOL    HW110604   3.380   7.658   9.570
 2924SOL    HW210605   3.398   7.559   9.683
 2925SOL     OW10606  14.443  10.607   1.952
 2925SOL    HW110607  14.413  10.642   2.035
 2925SOL    HW210608  14.480  10.682   1.906
 2926SOL     OW10609   3.693   5.605   1.595
 2926SOL    HW110610   3.781   5.575   1.572
 2926SOL    HW210611   3.680   5.683   1.543
 2927SOL     OW10612   5.596   5.635   4.951
 2927SOL    HW110613   5.594   5.686   4.870
 2927SOL    HW210614   5.543   5.686   5.013
 2928SOL     OW10615   7.124   8.483   8.077
 2928SOL    HW110616   7.139   8.567   8.034
 2928SOL    HW210617   7.208   8.463   8.119
 2929SOL     OW10618  13.978   9.276   4.063
 2929SOL    HW110619  13.955   9.194   4.105
 2929SOL    HW210620  13.904   9.334   4.080
 2930SOL     OW10621   5.067   4.333   1.676
 2930SOL    HW110622   5.118   4.380   1.609
 2930SOL    HW210623   4.999   4.287   1.626
 2931SOL     OW10624   3.415   7.208   2.490
 2931SOL    HW110625   3.376   7.121   2.480
 2931SOL    HW210626   3.407   7.227   2.584
 2932SOL     OW10627   1.460  13.346  14.035
 2932SOL    HW110628   1.513  13.370  14.111
 2932SOL    HW210629   1.522  13.349  13.961
 2933SOL     OW10630   2.888  13.225   7.202
 2933SOL    HW110631   2.905  13.145   7.152
 2933SOL    HW210632   2.910  13.296   7.142
 2934SOL     OW10633   8.014   1.990  11.460
 2934SOL    HW110634   8.050   1.903  11.443
 2934SOL    HW210635   8.039   2.041  11.382
 2935SOL     OW10636  13.552   5.558   8.980
 2935SOL    HW110637  13.503   5.527   9.057
 2935SOL    HW210638  13.529   5.651   8.974
 2936SOL     OW10639  12.389  10.764  10.237
 2936SOL    HW110640  12.323  10.806  10.182
 2936SOL    HW210641  12.400  10.823  10.311
 2937SOL     OW10642   9.262  14.394   0.876
 2937SOL    HW110643   9.169  14.393   0.899
 2937SOL    HW210644   9.280  14.305   0.847
 2938SOL     OW10645   2.167  12.797   6.639
 2938SOL    HW110646   2.077  12.766   6.647
 2938SOL    HW210647   2.200  12.797   6.729
 2939SOL     OW10648  10.947   3.040  11.443
 2939SOL    HW110649  10.995   2.957  11.444
 2939SOL    HW210650  10.925   3.054  11.351
 2940SOL     OW10651   4.117   7.791  13.828
 2940SOL    HW110652   4.199   7.815  13.871
 2940SOL    HW210653   4.075   7.875  13.808
 2941SOL     OW10654   5.209   3.341   0.548
 2941SOL    HW110655   5.283   3.399   0.532
 2941SOL    HW210656   5.147   3.394   0.599
 2942SOL     OW10657   3.793  12.191   0.632
 2942SOL    HW110658   3.803  12.258   0.700
 2942SOL    HW210659   3.865  12.208   0.571
 2943SOL     OW10660  14.167   6.917   8.851
 2943SOL    HW110661  14.124   6.884   8.930
 2943SOL    HW210662  14.208   6.999   8.879
 2944SOL     OW10663  10.840   7.403   7.223
 2944SOL    HW110664  10.784   7.389   7.147
 2944SOL    HW210665  10.781   7.436   7.291
 2945SOL     OW10666  14.689   3.630   4.325
 2945SOL    HW110667  14.617   3.691   4.344
 2945SOL    HW210668  14.675   3.604   4.234
 2946SOL     OW10669   7.292   8.496  13.016
 2946SOL    HW110670   7.339   8.435  12.958
 2946SOL    HW210671   7.325   8.582  12.991
 2947SOL     OW10672   4.114  12.409   7.810
 2947SOL    HW110673   4.144  12.443   7.894
 2947SOL    HW210674   4.108  12.314   7.824
 2948SOL     OW10675   7.440  13.069   4.212
 2948SOL    HW110676   7.490  13.029   4.283
 2948SOL    HW210677   7.506  13.111   4.157
 2949SOL     OW10678   6.539   2.336   5.694
 2949SOL    HW110679   6.519   2.429   5.705
 2949SOL    HW210680   6.471   2.291   5.745
 2950SOL     OW10681  13.048   7.204   6.314
 2950SOL    HW110682  13.031   7.237   6.402
 2950SOL    HW210683  12.988   7.130   6.304
 2951SOL     OW10684   0.429   8.193   2.361
 2951SOL    HW110685   0.474   8.251   2.300
 2951SOL    HW210686   0.409   8.115   2.310
 2952SOL     OW10687   2.025   1.255   9.467
 2952SOL    HW110688   2.050   1.206   9.388
 2952SOL    HW210689   1.944   1.298   9.442
 2953SOL     OW10690   6.655   4.010   4.336
 2953SOL    HW110691   6.562   4.011   4.357
 2953SOL    HW210692   6.662   4.061   4.255
 2954SOL     OW10693   6.791   6.591  14.111
 2954SOL    HW110694   6.740   6.575  14.032
 2954SOL    HW210695   6.765   6.679  14.139
 2955SOL     OW10696   7.812   4.246   7.524
 2955SOL    HW110697   7.790   4.201   7.605
 2955SOL    HW210698   7.863   4.322   7.552
 2956SOL     OW10699   8.133  13.971  11.858
 2956SOL    HW110700   8.199  14.037  11.836
 2956SOL    HW210701   8.161  13.936  11.942
 2957SOL     OW10702   0.270   1.751   3.201
 2957SOL    HW110703   0.174   1.748   3.206
 2957SOL    HW210704   0.295   1.664   3.171
 2958SOL     OW10705   3.131   7.819   0.019
 2958SOL    HW110706   3.061   7.765  14.854
 2958SOL    HW210707   3.211   7.773  14.868
 2959SOL     OW10708   5.086   8.164   4.532
 2959SOL    HW110709   4.991   8.152   4.524
 2959SOL    HW210710   5.105   8.240   4.477
 2960SOL     OW10711   1.885   6.103   7.070
 2960SOL    HW110712   1.845   6.056   7.143
 2960SOL    HW210713   1.856   6.055   6.993
 2961SOL     OW10714   7.801   7.107   8.547
 2961SOL    HW110715   7.820   7.022   8.587
 2961SOL    HW210716   7.801   7.169   8.620
 2962SOL     OW10717   9.308  13.907   9.410
 2962SOL    HW110718   9.238  13.968   9.385
 2962SOL    HW210719   9.282  13.824   9.370
 2963SOL     OW10720  13.215  12.198   8.437
 2963SOL    HW110721  13.228  12.282   8.393
 2963SOL    HW210722  13.121  12.182   8.429
 2964SOL     OW10723   7.530   6.257   2.912
 2964SOL    HW110724   7.600   6.265   2.977
 2964SOL    HW210725   7.574   6.270   2.827
 2965SOL     OW10726   8.500   5.653  12.292
 2965SOL    HW110727   8.430   5.704  12.252
 2965SOL    HW210728   8.503   5.572  12.242
 2966SOL     OW10729   8.255   0.668  13.539
 2966SOL    HW110730   8.307   0.723  13.480
 2966SOL    HW210731   8.191   0.625  13.483
 2967SOL     OW10732   4.677   2.203  14.490
 2967SOL    HW110733   4.664   2.182  14.398
 2967SOL    HW210734   4.691   2.118  14.532
 2968SOL     OW10735   2.236   0.534  12.541
 2968SOL    HW110736   2.252   0.518  12.634
 2968SOL    HW210737   2.157   0.484  12.521
 2969SOL     OW10738  10.638   4.890  13.669
 2969SOL    HW110739  10.620   4.961  13.730
 2969SOL    HW210740  10.688   4.930  13.598
 2970SOL     OW10741  13.070   1.256   8.825
 2970SOL    HW110742  13.109   1.204   8.754
 2970SOL    HW210743  13.090   1.346   8.801
 2971SOL     OW10744  12.391   5.524   3.076
 2971SOL    HW110745  12.388   5.610   3.034
 2971SOL    HW210746  12.318   5.524   3.138
 2972SOL     OW10747   4.206   8.629  11.255
 2972SOL    HW110748   4.233   8.539  11.270
 2972SOL    HW210749   4.193   8.666  11.342
 2973SOL     OW10750   5.220  11.431   2.586
 2973SOL    HW110751   5.206  11.519   2.552
 2973SOL    HW210752   5.133  11.393   2.592
 2974SOL     OW10753  12.427   5.763  11.657
 2974SOL    HW110754  12.398   5.732  11.572
 2974SOL    HW210755  12.347   5.765  11.710
 2975SOL     OW10756   4.332   0.326   2.342
 2975SOL    HW110757   4.382   0.369   2.273
 2975SOL    HW210758   4.373   0.240   2.352
 2976SOL     OW10759   9.457   5.574  13.552
 2976SOL    HW110760   9.418   5.612  13.473
 2976SOL    HW210761   9.548   5.557  13.527
 2977SOL     OW10762   5.823   9.197   4.039
 2977SOL    HW110763   5.729   9.192   4.026
 2977SOL    HW210764   5.838   9.160   4.126
 2978SOL     OW10765   1.805   9.431  11.851
 2978SOL    HW110766   1.786   9.459  11.941
 2978SOL    HW210767   1.735   9.370  11.829
 2979SOL     OW10768   9.266   6.603   3.997
 2979SOL    HW110769   9.285   6.521   4.043
 2979SOL    HW210770   9.341   6.659   4.015
 2980SOL     OW10771   8.126  12.786  14.571
 2980SOL    HW110772   8.128  12.789  14.667
 2980SOL    HW210773   8.068  12.713  14.551
 2981SOL     OW10774  12.455  14.246   1.155
 2981SOL    HW110775  12.368  14.268   1.122
 2981SOL    HW210776  12.448  14.155   1.183
 2982SOL     OW10777   1.987   7.061   4.347
 2982SOL    HW110778   1.972   6.973   4.381
 2982SOL    HW210779   1.945   7.119   4.409
 2983SOL     OW10780   0.975   3.259   1.930
 2983SOL    HW110781   0.925   3.224   1.856
 2983SOL    HW210782   1.029   3.186   1.960
 2984SOL     OW10783   8.433   9.129   0.457
 2984SOL    HW110784   8.358   9.071   0.458
 2984SOL    HW210785   8.480   9.106   0.377
 2985SOL     OW10786   2.458  10.642  10.192
 2985SOL    HW110787   2.488  10.651  10.102
 2985SOL    HW210788   2.508  10.706  10.241
 2986SOL     OW10789   2.434   4.318   3.899
 2986SOL    HW110790   2.510   4.271   3.932
 2986SOL    HW210791   2.426   4.394   3.957
 2987SOL     OW10792   4.093  14.524  11.773
 2987SOL    HW110793   4.172  14.578  11.768
 2987SOL    HW210794   4.117  14.442  11.729
 2988SOL     OW10795  14.240   8.730   2.113
 2988SOL    HW110796  14.250   8.655   2.054
 2988SOL    HW210797  14.314   8.723   2.173
 2989SOL     OW10798   7.603   8.231  13.932
 2989SOL    HW110799   7.696   8.214  13.950
 2989SOL    HW210800   7.603   8.314  13.884
 2990SOL     OW10801  12.455   2.148   1.973
 2990SOL    HW110802  12.518   2.096   2.022
 2990SOL    HW210803  12.478   2.239   1.994
 2991SOL     OW10804  13.751   0.526  11.680
 2991SOL    HW110805  13.792   0.608  11.653
 2991SOL    HW210806  13.783   0.512  11.769
 2992SOL     OW10807   1.957  12.732  12.653
 2992SOL    HW110808   1.868  12.745  12.685
 2992SOL    HW210809   1.965  12.793  12.580
 2993SOL     OW10810   1.663  10.950   9.867
 2993SOL    HW110811   1.729  10.989   9.924
 2993SOL    HW210812   1.654  10.860   9.897
 2994SOL     OW10813   6.992  13.568  11.616
 2994SOL    HW110814   7.075  13.522  11.606
 2994SOL    HW210815   6.940  13.541  11.540
 2995SOL     OW10816  14.325  10.463   6.481
 2995SOL    HW110817  14.260  10.461   6.551
 2995SOL    HW210818  14.396  10.517   6.515
 2996SOL     OW10819   2.566   4.570  12.913
 2996SOL    HW110820   2.502   4.637  12.938
 2996SOL    HW210821   2.540   4.492  12.962
 2997SOL     OW10822   7.473  11.692   9.606
 2997SOL    HW110823   7.494  11.767   9.661
 2997SOL    HW210824   7.409  11.724   9.543
 2998SOL     OW10825   8.105   9.085   6.052
 2998SOL    HW110826   8.191   9.127   6.052
 2998SOL    HW210827   8.074   9.092   5.962
 2999SOL     OW10828  12.741   7.355  14.045
 2999SOL    HW110829  12.738   7.301  14.125
 2999SOL    HW210830  12.793   7.431  14.070
 3000SOL     OW10831   3.472   8.842   8.903
 3000SOL    HW110832   3.475   8.794   8.820
 3000SOL    HW210833   3.411   8.791   8.957
 3001SOL     OW10834  11.109   9.281   5.553
 3001SOL    HW110835  11.101   9.310   5.644
 3001SOL    HW210836  11.138   9.359   5.506
 3002SOL     OW10837  12.851   6.754  10.606
 3002SOL    HW110838  12.803   6.705  10.673
 3002SOL    HW210839  12.883   6.688  10.545
 3003SOL     OW10840   1.063  13.331   6.535
 3003SOL    HW110841   1.011  13.338   6.455
 3003SOL    HW210842   1.000  13.336   6.606
 3004SOL     OW10843  12.680   4.898   6.553
 3004SOL    HW110844  12.670   4.950   6.473
 3004SOL    HW210845  12.700   4.810   6.521
 3005SOL     OW10846  14.005  10.145   5.889
 3005SOL    HW110847  13.913  10.122   5.899
 3005SOL    HW210848  14.004  10.225   5.837
 3006SOL     OW10849   9.581  10.814   8.266
 3006SOL    HW110850   9.675  10.801   8.250
 3006SOL    HW210851   9.546  10.726   8.274
 3007SOL     OW10852  11.762  13.509  12.074
 3007SOL    HW110853  11.821  13.513  12.148
 3007SOL    HW210854  11.812  13.465  12.005
 3008SOL     OW10855   2.715   4.426   2.690
 3008SOL    HW110856   2.627   4.399   2.663
 3008SOL    HW210857   2.724   4.515   2.654
 3009SOL     OW10858   6.942  14.551   1.682
 3009SOL    HW110859   7.015  14.500   1.648
 3009SOL    HW210860   6.884  14.565   1.607
 3010SOL     OW10861   5.099   7.832  12.604
 3010SOL    HW110862   5.092   7.921  12.571
 3010SOL    HW210863   5.029   7.824  12.668
 3011SOL     OW10864   6.655   9.849   1.228
 3011SOL    HW110865   6.690   9.921   1.282
 3011SOL    HW210866   6.679   9.874   1.138
 3012SOL     OW10867   9.608   3.570   5.067
 3012SOL    HW110868   9.596   3.482   5.032
 3012SOL    HW210869   9.634   3.623   4.992
 3013SOL     OW10870   7.300  11.997  12.294
 3013SOL    HW110871   7.357  11.977  12.368
 3013SOL    HW210872   7.225  12.042  12.333
 3014SOL     OW10873  13.051   9.003   5.823
 3014SOL    HW110874  13.058   9.093   5.855
 3014SOL    HW210875  13.119   8.997   5.756
 3015SOL     OW10876  11.072   9.374   6.973
 3015SOL    HW110877  11.009   9.337   6.911
 3015SOL    HW210878  11.129   9.300   6.996
 3016SOL     OW10879  10.771  14.157   8.374
 3016SOL    HW110880  10.798  14.201   8.293
 3016SOL    HW210881  10.793  14.065   8.360
 3017SOL     OW10882   8.472   9.892  10.519
 3017SOL    HW110883   8.410   9.825  10.547
 3017SOL    HW210884   8.552   9.873  10.569
 3018SOL     OW10885  12.231  10.837   1.399
 3018SOL    HW110886  12.208  10.782   1.474
 3018SOL    HW210887  12.201  10.925   1.424
 3019SOL     OW10888   9.393   8.109   4.647
 3019SOL    HW110889   9.316   8.052   4.646
 3019SOL    HW210890   9.467   8.051   4.633
 3020SOL     OW10891   4.668   4.706  13.042
 3020SOL    HW110892   4.740   4.644  13.029
 3020SOL    HW210893   4.659   4.713  13.137
 3021SOL     OW10894   7.447   9.012   6.871
 3021SOL    HW110895   7.497   9.027   6.791
 3021SOL    HW210896   7.368   8.966   6.842
 3022SOL     OW10897   6.477   9.112   9.441
 3022SOL    HW110898   6.480   9.106   9.346
 3022SOL    HW210899   6.568   9.128   9.467
 3023SOL     OW10900   8.923   7.320  13.502
 3023SOL    HW110901   8.902   7.411  13.483
 3023SOL    HW210902   8.893   7.271  13.426
 3024SOL     OW10903   3.621   4.892   3.564
 3024SOL    HW110904   3.659   4.927   3.484
 3024SOL    HW210905   3.682   4.916   3.633
 3025SOL     OW10906   2.422   4.381   0.183
 3025SOL    HW110907   2.467   4.430   0.251
 3025SOL    HW210908   2.421   4.291   0.215
 3026SOL     OW10909   2.551   9.752   7.713
 3026SOL    HW110910   2.593   9.808   7.778
 3026SOL    HW210911   2.458   9.755   7.736
 3027SOL     OW10912   9.215   6.817   2.883
 3027SOL    HW110913   9.236   6.857   2.798
 3027SOL    HW210914   9.149   6.876   2.921
 3028SOL     OW10915   5.172   1.149   2.058
 3028SOL    HW110916   5.175   1.066   2.105
 3028SOL    HW210917   5.217   1.133   1.976
 3029SOL     OW10918   3.586   4.693  12.410
 3029SOL    HW110919   3.576   4.621  12.348
 3029SOL    HW210920   3.583   4.772  12.355
 3030SOL     OW10921  11.457  11.552   4.941
 3030SOL    HW110922  11.546  11.531   4.912
 3030SOL    HW210923  11.442  11.495   5.016
 3031SOL     OW10924  13.251  14.187  12.835
 3031SOL    HW110925  13.183  14.250  12.810
 3031SOL    HW210926  13.305  14.235  12.898
 3032SOL     OW10927   4.834   2.880   3.571
 3032SOL    HW110928   4.824   2.793   3.609
 3032SOL    HW210929   4.752   2.925   3.592
 3033SOL     OW10930  11.575   5.638  10.280
 3033SOL    HW110931  11.507   5.626  10.213
 3033SOL    HW210932  11.611   5.725  10.261
 3034SOL     OW10933   8.343  14.383   3.666
 3034SOL    HW110934   8.317  14.462   3.712
 3034SOL    HW210935   8.430  14.362   3.700
 3035SOL     OW10936   3.087   4.076  10.979
 3035SOL    HW110937   3.009   4.107  10.934
 3035SOL    HW210938   3.124   4.154  11.019
 3036SOL     OW10939  10.023   7.886   6.904
 3036SOL    HW110940   9.986   7.961   6.950
 3036SOL    HW210941   9.963   7.869   6.832
 3037SOL     OW10942   3.584   8.950   0.210
 3037SOL    HW110943   3.515   8.937   0.145
 3037SOL    HW210944   3.564   8.886   0.279
 3038SOL     OW10945   8.603   4.591   9.888
 3038SOL    HW110946   8.540   4.587   9.960
 3038SOL    HW210947   8.571   4.662   9.832
 3039SOL     OW10948   8.592  13.443  12.915
 3039SOL    HW110949   8.542  13.515  12.877
 3039SOL    HW210950   8.565  13.366  12.865
 3040SOL     OW10951   1.998   5.668   5.471
 3040SOL    HW110952   2.025   5.582   5.441
 3040SOL    HW210953   2.076   5.723   5.459
 3041SOL     OW10954  10.648  11.307  10.156
 3041SOL    HW110955  10.555  11.292  10.174
 3041SOL    HW210956  10.663  11.398  10.182
 3042SOL     OW10957  13.596   6.979   9.553
 3042SOL    HW110958  13.549   6.907   9.512
 3042SOL    HW210959  13.540   7.006   9.626
 3043SOL     OW10960   9.944  10.354   6.566
 3043SOL    HW110961   9.869  10.305   6.602
 3043SOL    HW210962  10.005  10.362   6.639
 3044SOL     OW10963   8.926  10.520   3.207
 3044SOL    HW110964   8.863  10.585   3.175
 3044SOL    HW210965   8.927  10.453   3.138
 3045SOL     OW10966  13.485   3.944   7.057
 3045SOL    HW110967  13.461   4.036   7.069
 3045SOL    HW210968  13.414   3.895   7.098
 3046SOL     OW10969   5.696   0.541   1.762
 3046SOL    HW110970   5.641   0.618   1.773
 3046SOL    HW210971   5.742   0.533   1.846
 3047SOL     OW10972   5.912   8.189  14.366
 3047SOL    HW110973   5.991   8.174  14.417
 3047SOL    HW210974   5.941   8.186  14.275
 3048SOL     OW10975   3.355   6.552   0.363
 3048SOL    HW110976   3.295   6.493   0.317
 3048SOL    HW210977   3.426   6.495   0.394
 3049SOL     OW10978   3.569   1.557  14.483
 3049SOL    HW110979   3.660   1.566  14.456
 3049SOL    HW210980   3.531   1.498  14.418
 3050SOL     OW10981  13.549   8.006  14.728
 3050SOL    HW110982  13.576   8.018  14.819
 3050SOL    HW210983  13.571   8.090  14.686
 3051SOL     OW10984   0.671  13.779   3.515
 3051SOL    HW110985   0.734  13.830   3.565
 3051SOL    HW210986   0.637  13.715   3.577
 3052SOL     OW10987  14.243   2.470   4.772
 3052SOL    HW110988  14.275   2.392   4.726
 3052SOL    HW210989  14.241   2.444   4.864
 3053SOL     OW10990   1.655   2.308   2.770
 3053SOL    HW110991   1.705   2.280   2.694
 3053SOL    HW210992   1.593   2.372   2.735
 3054SOL     OW10993  14.837  12.626   3.397
 3054SOL    HW110994  14.785  12.551   3.424
 3054SOL    HW210995   0.023  12.643   3.471
 3055SOL     OW10996  14.794   6.229   7.609
 3055SOL    HW110997  14.818   6.309   7.563
 3055SOL    HW210998  14.750   6.260   7.688
 3056SOL     OW10999  14.823   1.482   8.481
 3056SOL    HW111000  14.797   1.555   8.425
 3056SOL    HW211001  14.841   1.522   8.566
 3057SOL     OW11002   6.879  11.385  11.567
 3057SOL    HW111003   6.831  11.458  11.607
 3057SOL    HW211004   6.937  11.427  11.503
 3058SOL     OW11005  11.800   2.398  12.232
 3058SOL    HW111006  11.782   2.428  12.143
 3058SOL    HW211007  11.720   2.417  12.280
 3059SOL     OW11008  13.333   5.386   8.640
 3059SOL    HW111009  13.252   5.436   8.653
 3059SOL    HW211010  13.403   5.451   8.651
 3060SOL     OW11011   8.034   4.166   8.888
 3060SOL    HW111012   7.941   4.192   8.890
 3060SOL    HW211013   8.066   4.185   8.976
 3061SOL     OW11014   9.732   5.626  10.170
 3061SOL    HW111015   9.774   5.583  10.096
 3061SOL    HW211016   9.787   5.703  10.187
 3062SOL     OW11017   1.762  11.401   2.350
 3062SOL    HW111018   1.681  11.450   2.366
 3062SOL    HW211019   1.809  11.405   2.433
 3063SOL     OW11020  13.803   1.760   7.483
 3063SOL    HW111021  13.735   1.825   7.467
 3063SOL    HW211022  13.847   1.790   7.563
 3064SOL     OW11023   6.468  12.155   9.040
 3064SOL    HW111024   6.512  12.082   9.084
 3064SOL    HW211025   6.472  12.133   8.947
 3065SOL     OW11026   1.930   5.345   6.436
 3065SOL    HW111027   1.843   5.317   6.465
 3065SOL    HW211028   1.990   5.282   6.475
 3066SOL     OW11029   3.012   3.876  11.945
 3066SOL    HW111030   3.079   3.869  11.877
 3066SOL    HW211031   3.048   3.829  12.020
 3067SOL     OW11032   5.909  10.523   5.713
 3067SOL    HW111033   5.977  10.458   5.729
 3067SOL    HW211034   5.956  10.607   5.713
 3068SOL     OW11035  11.130   4.732   3.879
 3068SOL    HW111036  11.102   4.757   3.791
 3068SOL    HW211037  11.054   4.688   3.917
 3069SOL     OW11038   5.298   7.331   4.931
 3069SOL    HW111039   5.249   7.361   4.854
 3069SOL    HW211040   5.361   7.267   4.897
 3070SOL     OW11041  11.725   6.361   5.808
 3070SOL    HW111042  11.810   6.353   5.852
 3070SOL    HW211043  11.743   6.415   5.731
 3071SOL     OW11044   5.380   7.429   4.516
 3071SOL    HW111045   5.336   7.461   4.437
 3071SOL    HW211046   5.387   7.506   4.572
 3072SOL     OW11047  12.660   3.988  12.530
 3072SOL    HW111048  12.663   4.078  12.499
 3072SOL    HW211049  12.751   3.969  12.556
 3073SOL     OW11050   4.942  14.612  10.446
 3073SOL    HW111051   4.998  14.689  10.433
 3073SOL    HW211052   4.897  14.630  10.529
 3074SOL     OW11053  10.602   8.948   3.340
 3074SOL    HW111054  10.691   8.977   3.358
 3074SOL    HW211055  10.613   8.859   3.304
 3075SOL     OW11056   8.871   0.739   9.689
 3075SOL    HW111057   8.916   0.814   9.649
 3075SOL    HW211058   8.913   0.728   9.773
 3076SOL     OW11059   0.899   3.073   4.011
 3076SOL    HW111060   0.902   3.029   4.096
 3076SOL    HW211061   0.819   3.041   3.970
 3077SOL     OW11062  14.042   4.628   6.408
 3077SOL    HW111063  14.072   4.687   6.478
 3077SOL    HW211064  14.086   4.661   6.330
 3078SOL     OW11065   9.066  14.023  13.553
 3078SOL    HW111066   9.113  13.996  13.474
 3078SOL    HW211067   8.986  14.066  13.520
 3079SOL     OW11068   0.987   0.096   4.079
 3079SOL    HW111069   0.909   0.141   4.109
 3079SOL    HW211070   1.029   0.158   4.019
 3080SOL     OW11071  12.136   0.474   8.235
 3080SOL    HW111072  12.169   0.535   8.169
 3080SOL    HW211073  12.214   0.428   8.266
 3081SOL     OW11074   3.133   0.541  10.700
 3081SOL    HW111075   3.207   0.558  10.759
 3081SOL    HW211076   3.164   0.568  10.614
 3082SOL     OW11077  11.533   5.213   5.748
 3082SOL    HW111078  11.573   5.296   5.723
 3082SOL    HW211079  11.463   5.236   5.808
 3083SOL     OW11080  10.920   9.125   7.484
 3083SOL    HW111081  10.913   9.069   7.562
 3083SOL    HW211082  10.984   9.192   7.509
 3084SOL     OW11083   9.798   8.196   6.676
 3084SOL    HW111084   9.761   8.108   6.684
 3084SOL    HW211085   9.852   8.192   6.597
 3085SOL     OW11086  12.042   6.377   0.887
 3085SOL    HW111087  12.084   6.387   0.802
 3085SOL    HW211088  11.952   6.352   0.867
 3086SOL     OW11089   9.364   2.788   1.772
 3086SOL    HW111090   9.444   2.795   1.824
 3086SOL    HW211091   9.308   2.858   1.804
 3087SOL     OW11092   6.515  10.291   2.294
 3087SOL    HW111093   6.486  10.382   2.301
 3087SOL    HW211094   6.515  10.259   2.384
 3088SOL     OW11095   7.589   4.347   3.446
 3088SOL    HW111096   7.518   4.284   3.436
 3088SOL    HW211097   7.567   4.396   3.526
 3089SOL     OW11098   7.090  11.568   8.794
 3089SOL    HW111099   7.165  11.557   8.852
 3089SOL    HW211100   7.110  11.511   8.719
 3090SOL     OW11101  10.908  13.223  12.142
 3090SOL    HW111102  10.853  13.251  12.215
 3090SOL    HW211103  10.847  13.216  12.068
 3091SOL     OW11104   0.896   0.348   5.054
 3091SOL    HW111105   0.875   0.421   4.996
 3091SOL    HW211106   0.813   0.304   5.068
 3092SOL     OW11107   1.703  14.199  13.844
 3092SOL    HW111108   1.746  14.258  13.782
 3092SOL    HW211109   1.701  14.248  13.926
 3093SOL     OW11110  10.269  13.150   7.943
 3093SOL    HW111111  10.250  13.059   7.921
 3093SOL    HW211112  10.193  13.179   7.994
 3094SOL     OW11113   1.705   8.487  11.911
 3094SOL    HW111114   1.640   8.453  11.973
 3094SOL    HW211115   1.741   8.408  11.870
 3095SOL     OW11116   8.860   2.570   6.763
 3095SOL    HW111117   8.804   2.642   6.732
 3095SOL    HW211118   8.949   2.596   6.737
 3096SOL     OW11119  11.802   7.378   3.960
 3096SOL    HW111120  11.882   7.350   3.917
 3096SOL    HW211121  11.814   7.472   3.975
 3097SOL     OW11122   5.547   5.028   0.019
 3097SOL    HW111123   5.496   5.022   0.101
 3097SOL    HW211124   5.586   5.115   0.023
 3098SOL     OW11125  11.015   4.360   3.244
 3098SOL    HW111126  11.039   4.422   3.174
 3098SOL    HW211127  11.054   4.398   3.323
 3099SOL     OW11128  11.149   0.237  12.868
 3099SOL    HW111129  11.106   0.279  12.942
 3099SOL    HW211130  11.081   0.233  12.800
 3100SOL     OW11131  14.411   0.230  12.958
 3100SOL    HW111132  14.445   0.164  12.897
 3100SOL    HW211133  14.490   0.274  12.991
 3101SOL     OW11134   1.696   2.370   0.199
 3101SOL    HW111135   1.617   2.392   0.247
 3101SOL    HW211136   1.748   2.318   0.260
 3102SOL     OW11137   0.667  13.168  14.089
 3102SOL    HW111138   0.745  13.150  14.141
 3102SOL    HW211139   0.660  13.094  14.029
 3103SOL     OW11140   0.724   2.026  14.811
 3103SOL    HW111141   0.642   2.038  14.763
 3103SOL    HW211142   0.773   1.962  14.759
 3104SOL     OW11143   1.915   5.842   6.931
 3104SOL    HW111144   1.874   5.793   6.860
 3104SOL    HW211145   1.979   5.899   6.887
 3105SOL     OW11146   8.496   3.425   7.019
 3105SOL    HW111147   8.419   3.450   7.070
 3105SOL    HW211148   8.466   3.352   6.965
 3106SOL     OW11149  11.522   1.085  12.712
 3106SOL    HW111150  11.488   1.146  12.647
 3106SOL    HW211151  11.483   1.113  12.794
 3107SOL     OW11152  12.848   3.714   6.318
 3107SOL    HW111153  12.935   3.676   6.328
 3107SOL    HW211154  12.805   3.659   6.252
 3108SOL     OW11155   2.657   4.078   8.255
 3108SOL    HW111156   2.695   4.063   8.341
 3108SOL    HW211157   2.666   3.993   8.210
 3109SOL     OW11158   4.720   7.149  12.499
 3109SOL    HW111159   4.721   7.096  12.419
 3109SOL    HW211160   4.812   7.173  12.512
 3110SOL     OW11161   3.192   5.364   0.859
 3110SOL    HW111162   3.104   5.345   0.891
 3110SOL    HW211163   3.192   5.458   0.844
 3111SOL     OW11164  12.334  14.504   9.410
 3111SOL    HW111165  12.396  14.490   9.338
 3111SOL    HW211166  12.355  14.591   9.443
 3112SOL     OW11167   0.106  10.329   5.994
 3112SOL    HW111168   0.054  10.365   5.923
 3112SOL    HW211169   0.088  10.235   5.993
 3113SOL     OW11170   4.688   5.540   2.516
 3113SOL    HW111171   4.675   5.546   2.421
 3113SOL    HW211172   4.600   5.525   2.551
 3114SOL     OW11173   4.990   7.140   0.830
 3114SOL    HW111174   4.936   7.162   0.753
 3114SOL    HW211175   4.956   7.056   0.860
 3115SOL     OW11176   9.202   6.175   4.377
 3115SOL    HW111177   9.249   6.182   4.460
 3115SOL    HW211178   9.270   6.182   4.310
 3116SOL     OW11179  12.746   9.104   6.567
 3116SOL    HW111180  12.720   9.146   6.485
 3116SOL    HW211181  12.733   9.010   6.551
 3117SOL     OW11182   9.053  11.576   6.400
 3117SOL    HW111183   9.030  11.520   6.474
 3117SOL    HW211184   9.018  11.662   6.423
 3118SOL     OW11185  13.376  12.730  14.720
 3118SOL    HW111186  13.301  12.671  14.722
 3118SOL    HW211187  13.452  12.673  14.731
 3119SOL     OW11188   2.234  11.624   4.359
 3119SOL    HW111189   2.150  11.583   4.343
 3119SOL    HW211190   2.299  11.557   4.337
 3120SOL     OW11191  14.842  13.832   6.893
 3120SOL    HW111192   0.049  13.835   6.946
 3120SOL    HW211193  14.784  13.771   6.940
 3121SOL     OW11194   0.441  11.126   0.593
 3121SOL    HW111195   0.390  11.088   0.664
 3121SOL    HW211196   0.380  11.129   0.519
 3122SOL     OW11197  13.470   8.667  10.611
 3122SOL    HW111198  13.415   8.638  10.538
 3122SOL    HW211199  13.469   8.763  10.604
 3123SOL     OW11200  14.455   4.635  12.202
 3123SOL    HW111201  14.479   4.706  12.142
 3123SOL    HW211202  14.359   4.638  12.205
 3124SOL     OW11203   7.976   3.965  10.721
 3124SOL    HW111204   7.967   3.993  10.812
 3124SOL    HW211205   7.902   3.907  10.706
 3125SOL     OW11206   4.847  10.733   2.506
 3125SOL    HW111207   4.915  10.666   2.520
 3125SOL    HW211208   4.831  10.769   2.593
 3126SOL     OW11209   5.333  13.716   8.506
 3126SOL    HW111210   5.370  13.753   8.426
 3126SOL    HW211211   5.246  13.756   8.513
 3127SOL     OW11212   9.608   9.294   3.632
 3127SOL    HW111213   9.575   9.222   3.686
 3127SOL    HW211214   9.655   9.252   3.560
 3128SOL     OW11215   9.409  13.739   6.323
 3128SOL    HW111216   9.333  13.723   6.267
 3128SOL    HW211217   9.378  13.800   6.390
 3129SOL     OW11218   9.915   2.295   6.336
 3129SOL    HW111219   9.964   2.238   6.278
 3129SOL    HW211220   9.823   2.276   6.316
 3130SOL     OW11221   2.052   4.502  11.598
 3130SOL    HW111222   2.090   4.431  11.545
 3130SOL    HW211223   2.031   4.461  11.681
 3131SOL     OW11224   2.754  13.991  10.289
 3131SOL    HW111225   2.757  13.952  10.377
 3131SOL    HW211226   2.669  13.965  10.255
 3132SOL     OW11227   8.435   2.152  13.978
 3132SOL    HW111228   8.447   2.235  13.932
 3132SOL    HW211229   8.422   2.087  13.909
 3133SOL     OW11230   4.724  10.166   9.861
 3133SOL    HW111231   4.766  10.219   9.929
 3133SOL    HW211232   4.666  10.227   9.815
 3134SOL     OW11233   1.537   7.978  14.626
 3134SOL    HW111234   1.537   7.883  14.620
 3134SOL    HW211235   1.523   7.997  14.719
 3135SOL     OW11236   4.994   2.892  14.750
 3135SOL    HW111237   4.930   2.871  14.818
 3135SOL    HW211238   4.955   2.859  14.669
 3136SOL     OW11239   9.507   8.691   0.276
 3136SOL    HW111240   9.514   8.618   0.338
 3136SOL    HW211241   9.540   8.656   0.194
 3137SOL     OW11242  12.201   0.107   4.596
 3137SOL    HW111243  12.147   0.029   4.591
 3137SOL    HW211244  12.139   0.180   4.588
 3138SOL     OW11245  11.683  13.994  12.629
 3138SOL    HW111246  11.596  14.010  12.594
 3138SOL    HW211247  11.724  14.080  12.634
 3139SOL     OW11248   2.607   5.253  11.675
 3139SOL    HW111249   2.587   5.343  11.650
 3139SOL    HW211250   2.606   5.204  11.592
 3140SOL     OW11251   3.485  10.997   1.866
 3140SOL    HW111252   3.554  11.043   1.914
 3140SOL    HW211253   3.512  10.905   1.866
 3141SOL     OW11254  12.438   1.272   8.705
 3141SOL    HW111255  12.511   1.321   8.744
 3141SOL    HW211256  12.375   1.339   8.679
 3142SOL     OW11257  10.561   2.654  10.454
 3142SOL    HW111258  10.591   2.627  10.541
 3142SOL    HW211259  10.615   2.604  10.393
 3143SOL     OW11260   7.697   7.871   7.110
 3143SOL    HW111261   7.783   7.905   7.086
 3143SOL    HW211262   7.649   7.869   7.027
 3144SOL     OW11263   6.690   6.375  11.532
 3144SOL    HW111264   6.597   6.390  11.549
 3144SOL    HW211265   6.694   6.287  11.496
 3145SOL     OW11266   0.938  10.085  12.994
 3145SOL    HW111267   0.853  10.069  13.035
 3145SOL    HW211268   0.983  10.145  13.054
 3146SOL     OW11269  12.248   8.192  11.840
 3146SOL    HW111270  12.276   8.154  11.757
 3146SOL    HW211271  12.174   8.249  11.817
 3147SOL     OW11272   9.196   9.340   3.804
 3147SOL    HW111273   9.278   9.299   3.779
 3147SOL    HW211274   9.217   9.392   3.882
 3148SOL     OW11275   1.557   4.013  12.269
 3148SOL    HW111276   1.593   4.022  12.181
 3148SOL    HW211277   1.523   3.924  12.272
 3149SOL     OW11278   9.640   1.653   6.921
 3149SOL    HW111279   9.705   1.724   6.917
 3149SOL    HW211280   9.560   1.696   6.951
 3150SOL     OW11281  13.728   3.653   2.281
 3150SOL    HW111282  13.692   3.605   2.207
 3150SOL    HW211283  13.804   3.698   2.245
 3151SOL     OW11284   2.276   5.530   3.371
 3151SOL    HW111285   2.316   5.444   3.364
 3151SOL    HW211286   2.219   5.537   3.294
 3152SOL     OW11287   0.205  11.739   8.216
 3152SOL    HW111288   0.229  11.775   8.131
 3152SOL    HW211289   0.132  11.680   8.198
 3153SOL     OW11290   2.966  13.121   3.245
 3153SOL    HW111291   2.977  13.099   3.153
 3153SOL    HW211292   2.954  13.216   3.246
 3154SOL     OW11293  14.335  11.387   4.837
 3154SOL    HW111294  14.373  11.364   4.921
 3154SOL    HW211295  14.404  11.436   4.792
 3155SOL     OW11296   1.784   0.246   7.861
 3155SOL    HW111297   1.695   0.273   7.884
 3155SOL    HW211298   1.838   0.323   7.882
 3156SOL     OW11299   2.186  10.620  14.606
 3156SOL    HW111300   2.236  10.630  14.688
 3156SOL    HW211301   2.106  10.670  14.622
 3157SOL     OW11302  12.375   3.040   4.848
 3157SOL    HW111303  12.461   3.079   4.864
 3157SOL    HW211304  12.368   2.969   4.911
 3158SOL     OW11305   1.687  14.389   8.186
 3158SOL    HW111306   1.723  14.359   8.102
 3158SOL    HW211307   1.756  14.445   8.222
 3159SOL     OW11308   5.721  13.286  10.916
 3159SOL    HW111309   5.738  13.248  11.002
 3159SOL    HW211310   5.660  13.358  10.934
 3160SOL     OW11311   7.736   5.902   3.364
 3160SOL    HW111312   7.644   5.895   3.392
 3160SOL    HW211313   7.780   5.831   3.410
 3161SOL     OW11314  14.822   2.720   9.309
 3161SOL    HW111315  14.808   2.635   9.268
 3161SOL    HW211316   0.045   2.731   9.310
 3162SOL     OW11317  11.613   3.242   6.063
 3162SOL    HW111318  11.618   3.318   6.005
 3162SOL    HW211319  11.693   3.193   6.045
 3163SOL     OW11320  13.292   0.204  13.305
 3163SOL    HW111321  13.289   0.284  13.357
 3163SOL    HW211322  13.300   0.134  13.370
 3164SOL     OW11323   3.735   6.582  13.293
 3164SOL    HW111324   3.771   6.498  13.323
 3164SOL    HW211325   3.781   6.647  13.346
 3165SOL     OW11326   4.845  12.419  12.786
 3165SOL    HW111327   4.842  12.409  12.881
 3165SOL    HW211328   4.766  12.469  12.765
 3166SOL     OW11329   4.636   1.171  11.999
 3166SOL    HW111330   4.670   1.258  11.980
 3166SOL    HW211331   4.704   1.129  12.051
 3167SOL     OW11332  13.780  11.286  14.528
 3167SOL    HW111333  13.845  11.260  14.463
 3167SOL    HW211334  13.697  11.252  14.493
 3168SOL     OW11335   2.009  12.402  10.682
 3168SOL    HW111336   2.010  12.346  10.605
 3168SOL    HW211337   1.942  12.363  10.739
 3169SOL     OW11338  13.294   1.708  12.127
 3169SOL    HW111339  13.365   1.761  12.093
 3169SOL    HW211340  13.216   1.737  12.079
 3170SOL     OW11341   0.206  12.625  13.597
 3170SOL    HW111342   0.158  12.652  13.518
 3170SOL    HW211343   0.137  12.603  13.660
 3171SOL     OW11344   6.098  14.779   8.327
 3171SOL    HW111345   6.081  14.758   8.419
 3171SOL    HW211346   6.176  14.834   8.329
 3172SOL     OW11347  14.388   5.948   2.865
 3172SOL    HW111348  14.316   5.891   2.840
 3172SOL    HW211349  14.370   5.970   2.956
 3173SOL     OW11350  10.714  10.553   3.368
 3173SOL    HW111351  10.777  10.507   3.422
 3173SOL    HW211352  10.763  10.577   3.289
 3174SOL     OW11353   2.863  14.531   3.161
 3174SOL    HW111354   2.898  14.576   3.238
 3174SOL    HW211355   2.876  14.593   3.089
 3175SOL     OW11356  14.747  14.333  14.611
 3175SOL    HW111357  14.802  14.392  14.663
 3175SOL    HW211358  14.735  14.256  14.666
 3176SOL     OW11359  10.481   9.695  12.491
 3176SOL    HW111360  10.544   9.686  12.562
 3176SOL    HW211361  10.436   9.611  12.488
 3177SOL     OW11362   9.290   2.398  10.982
 3177SOL    HW111363   9.251   2.484  10.963
 3177SOL    HW211364   9.377   2.402  10.943
 3178SOL     OW11365   1.934   5.949   1.361
 3178SOL    HW111366   1.899   6.021   1.414
 3178SOL    HW211367   1.967   5.991   1.282
 3179SOL     OW11368   3.855   6.170   9.942
 3179SOL    HW111369   3.820   6.250   9.904
 3179SOL    HW211370   3.942   6.194   9.972
 3180SOL     OW11371   9.075   8.572   6.329
 3180SOL    HW111372   9.163   8.579   6.367
 3180SOL    HW211373   9.022   8.630   6.383
 3181SOL     OW11374  12.912  10.728  10.177
 3181SOL    HW111375  12.852  10.742  10.251
 3181SOL    HW211376  12.854  10.705  10.104
 3182SOL     OW11377  11.221   1.889   7.085
 3182SOL    HW111378  11.262   1.940   7.015
 3182SOL    HW211379  11.295   1.852   7.134
 3183SOL     OW11380   8.160   8.815   0.139
 3183SOL    HW111381   8.242   8.815   0.187
 3183SOL    HW211382   8.150   8.724   0.109
 3184SOL     OW11383   5.231   5.186   7.261
 3184SOL    HW111384   5.194   5.099   7.247
 3184SOL    HW211385   5.187   5.241   7.196
 3185SOL     OW11386   4.584   0.389   0.519
 3185SOL    HW111387   4.622   0.472   0.550
 3185SOL    HW211388   4.589   0.395   0.423
 3186SOL     OW11389   9.402   7.200   0.834
 3186SOL    HW111390   9.495   7.178   0.829
 3186SOL    HW211391   9.393   7.253   0.913
 3187SOL     OW11392  13.992  14.288   8.686
 3187SOL    HW111393  14.012  14.359   8.746
 3187SOL    HW211394  14.056  14.220   8.708
 3188SOL     OW11395  13.725   1.630   8.468
 3188SOL    HW111396  13.657   1.567   8.490
 3188SOL    HW211397  13.760   1.659   8.552
 3189SOL     OW11398   5.575  13.789  14.299
 3189SOL    HW111399   5.576  13.747  14.386
 3189SOL    HW211400   5.616  13.724  14.242
 3190SOL     OW11401   8.175   1.400  12.703
 3190SOL    HW111402   8.197   1.493  12.716
 3190SOL    HW211403   8.092   1.402  12.655
 3191SOL     OW11404   9.354   3.231   4.166
 3191SOL    HW111405   9.269   3.189   4.177
 3191SOL    HW211406   9.412   3.183   4.225
 3192SOL     OW11407   6.696  13.182  13.773
 3192SOL    HW111408   6.733  13.253  13.825
 3192SOL    HW211409   6.611  13.215  13.744
 3193SOL     OW11410   7.176  13.792   4.402
 3193SOL    HW111411   7.109  13.821   4.339
 3193SOL    HW211412   7.160  13.698   4.413
 3194SOL     OW11413  11.462   7.681   8.871
 3194SOL    HW111414  11.535   7.624   8.847
 3194SOL    HW211415  11.389   7.622   8.888
 3195SOL     OW11416  13.017   8.302   9.802
 3195SOL    HW111417  13.023   8.207   9.806
 3195SOL    HW211418  13.018   8.330   9.894
 3196SOL     OW11419   3.376   7.316   6.466
 3196SOL    HW111420   3.429   7.393   6.446
 3196SOL    HW211421   3.419   7.276   6.541
 3197SOL     OW11422   7.463  13.231   7.786
 3197SOL    HW111423   7.394  13.196   7.841
 3197SOL    HW211424   7.512  13.290   7.844
 3198SOL     OW11425   6.824  13.804   1.772
 3198SOL    HW111426   6.753  13.817   1.709
 3198SOL    HW211427   6.804  13.721   1.814
 3199SOL     OW11428   1.439  14.476   7.243
 3199SOL    HW111429   1.430  14.458   7.149
 3199SOL    HW211430   1.526  14.514   7.253
 3200SOL     OW11431   3.442   4.112   6.275
 3200SOL    HW111432   3.507   4.139   6.210
 3200SOL    HW211433   3.491   4.107   6.357
 3201SOL     OW11434   0.060  11.993   9.817
 3201SOL    HW111435  14.854  11.940   9.828
 3201SOL    HW211436   0.093  11.969   9.730
 3202SOL     OW11437  13.546  11.319   1.878
 3202SOL    HW111438  13.477  11.253   1.867
 3202SOL    HW211439  13.623  11.280   1.838
 3203SOL     OW11440   1.740  12.431   5.553
 3203SOL    HW111441   1.814  12.414   5.494
 3203SOL    HW211442   1.755  12.374   5.628
 3204SOL     OW11443   3.090   9.922   9.038
 3204SOL    HW111444   3.184   9.940   9.040
 3204SOL    HW211445   3.059   9.948   9.124
 3205SOL     OW11446   4.743   5.195   3.494
 3205SOL    HW111447   4.660   5.242   3.487
 3205SOL    HW211448   4.767   5.176   3.403
 3206SOL     OW11449  10.106  12.489   4.807
 3206SOL    HW111450  10.027  12.438   4.825
 3206SOL    HW211451  10.135  12.520   4.893
 3207SOL     OW11452   9.275   4.525   8.766
 3207SOL    HW111453   9.349   4.465   8.756
 3207SOL    HW211454   9.280   4.552   8.858
 3208SOL     OW11455   1.274   3.500   6.011
 3208SOL    HW111456   1.355   3.528   5.970
 3208SOL    HW211457   1.279   3.405   6.011
 3209SOL     OW11458   2.909   2.564   2.340
 3209SOL    HW111459   2.819   2.574   2.369
 3209SOL    HW211460   2.962   2.580   2.418
 3210SOL     OW11461   4.659  14.540   7.962
 3210SOL    HW111462   4.594  14.470   7.952
 3210SOL    HW211463   4.665  14.580   7.875
 3211SOL     OW11464   7.068   8.211   8.903
 3211SOL    HW111465   7.032   8.237   8.987
 3211SOL    HW211466   6.995   8.171   8.856
 3212SOL     OW11467  11.207   4.029   6.017
 3212SOL    HW111468  11.299   4.021   6.040
 3212SOL    HW211469  11.195   3.968   5.944
 3213SOL     OW11470   4.140   3.803  13.814
 3213SOL    HW111471   4.111   3.716  13.840
 3213SOL    HW211472   4.232   3.807  13.842
 3214SOL     OW11473   7.892   1.987  10.193
 3214SOL    HW111474   7.873   2.072  10.233
 3214SOL    HW211475   7.964   1.951  10.245
 3215SOL     OW11476   4.839  12.851  12.257
 3215SOL    HW111477   4.806  12.794  12.327
 3215SOL    HW211478   4.934  12.845  12.265
 3216SOL     OW11479  14.096   1.770   6.716
 3216SOL    HW111480  14.191   1.773   6.719
 3216SOL    HW211481  14.068   1.787   6.806
 3217SOL     OW11482  14.751   9.805   1.759
 3217SOL    HW111483  14.793   9.736   1.707
 3217SOL    HW211484  14.775   9.886   1.715
 3218SOL     OW11485  13.740   4.389  12.144
 3218SOL    HW111486  13.713   4.466  12.093
 3218SOL    HW211487  13.834   4.399  12.154
 3219SOL     OW11488   0.099   3.370   9.378
 3219SOL    HW111489   0.035   3.350   9.310
 3219SOL    HW211490   0.145   3.287   9.393
 3220SOL     OW11491   9.620   2.486  12.906
 3220SOL    HW111492   9.613   2.580  12.892
 3220SOL    HW211493   9.649   2.477  12.997
 3221SOL     OW11494  10.277   0.121   9.820
 3221SOL    HW111495  10.258   0.057   9.889
 3221SOL    HW211496  10.363   0.156   9.844
 3222SOL     OW11497  11.520   2.737   8.367
 3222SOL    HW111498  11.470   2.673   8.316
 3222SOL    HW211499  11.497   2.821   8.329
 3223SOL     OW11500   4.285   4.610   6.268
 3223SOL    HW111501   4.348   4.539   6.256
 3223SOL    HW211502   4.260   4.604   6.360
 3224SOL     OW11503  10.472   0.592   0.445
 3224SOL    HW111504  10.398   0.536   0.469
 3224SOL    HW211505  10.541   0.567   0.506
 3225SOL     OW11506   0.575   8.791   7.323
 3225SOL    HW111507   0.610   8.726   7.383
 3225SOL    HW211508   0.493   8.753   7.290
 3226SOL     OW11509   1.179   0.255   0.515
 3226SOL    HW111510   1.125   0.260   0.436
 3226SOL    HW211511   1.186   0.161   0.534
 3227SOL     OW11512   3.837   0.178   7.236
 3227SOL    HW111513   3.896   0.122   7.286
 3227SOL    HW211514   3.798   0.237   7.301
 3228SOL     OW11515   7.209   9.944  14.675
 3228SOL    HW111516   7.156  10.023  14.661
 3228SOL    HW211517   7.210   9.902  14.589
 3229SOL     OW11518  11.268   0.432   9.588
 3229SOL    HW111519  11.331   0.393   9.649
 3229SOL    HW211520  11.245   0.516   9.628
 3230SOL     OW11521   6.260   9.223   7.920
 3230SOL    HW111522   6.247   9.246   7.828
 3230SOL    HW211523   6.171   9.216   7.956
 3231SOL     OW11524   3.463   0.974   3.316
 3231SOL    HW111525   3.483   1.008   3.229
 3231SOL    HW211526   3.496   1.041   3.376
 3232SOL     OW11527  10.690   4.799   7.458
 3232SOL    HW111528  10.702   4.850   7.378
 3232SOL    HW211529  10.752   4.727   7.451
 3233SOL     OW11530   4.460   0.720   9.781
 3233SOL    HW111531   4.426   0.730   9.870
 3233SOL    HW211532   4.476   0.810   9.752
 3234SOL     OW11533   7.554   0.630   8.935
 3234SOL    HW111534   7.470   0.629   8.982
 3234SOL    HW211535   7.617   0.661   9.000
 3235SOL     OW11536  14.852   3.640   5.776
 3235SOL    HW111537  14.790   3.660   5.706
 3235SOL    HW211538  14.827   3.698   5.847
 3236SOL     OW11539  14.564   5.920  10.502
 3236SOL    HW111540  14.630   5.983  10.531
 3236SOL    HW211541  14.566   5.926  10.407
 3237SOL     OW11542   4.328  13.866   7.278
 3237SOL    HW111543   4.289  13.873   7.365
 3237SOL    HW211544   4.420  13.892   7.291
 3238SOL     OW11545   8.207   8.772  14.266
 3238SOL    HW111546   8.142   8.748  14.332
 3238SOL    HW211547   8.282   8.803  14.316
 3239SOL     OW11548  10.384   4.500   4.433
 3239SOL    HW111549  10.343   4.430   4.483
 3239SOL    HW211550  10.399   4.570   4.497
 3240SOL     OW11551  14.500  12.604  11.619
 3240SOL    HW111552  14.480  12.632  11.708
 3240SOL    HW211553  14.569  12.664  11.590
 3241SOL     OW11554   1.943   1.259   4.499
 3241SOL    HW111555   1.923   1.348   4.527
 3241SOL    HW211556   2.018   1.233   4.552
 3242SOL     OW11557  12.264  10.201   8.283
 3242SOL    HW111558  12.320  10.159   8.348
 3242SOL    HW211559  12.224  10.274   8.331
 3243SOL     OW11560  11.725   2.799  12.260
 3243SOL    HW111561  11.808   2.831  12.297
 3243SOL    HW211562  11.673   2.774  12.336
 3244SOL     OW11563   3.177   8.351   2.880
 3244SOL    HW111564   3.233   8.381   2.951
 3244SOL    HW211565   3.209   8.397   2.803
 3245SOL     OW11566  12.505  12.982   5.194
 3245SOL    HW111567  12.429  12.984   5.252
 3245SOL    HW211568  12.553  13.062   5.213
 3246SOL     OW11569  11.947   7.153   0.385
 3246SOL    HW111570  11.937   7.063   0.354
 3246SOL    HW211571  11.910   7.206   0.314
 3247SOL     OW11572   1.806   2.973  13.558
 3247SOL    HW111573   1.874   2.954  13.493
 3247SOL    HW211574   1.770   3.057  13.530
 3248SOL     OW11575   5.542  14.441   0.631
 3248SOL    HW111576   5.604  14.513   0.623
 3248SOL    HW211577   5.548  14.395   0.548
 3249SOL     OW11578   1.047   9.445   2.883
 3249SOL    HW111579   1.129   9.445   2.834
 3249SOL    HW211580   1.019   9.353   2.884
 3250SOL     OW11581  14.797  12.014   7.710
 3250SOL    HW111582  14.829  11.950   7.647
 3250SOL    HW211583  14.755  11.962   7.779
 3251SOL     OW11584   8.972   7.343   5.110
 3251SOL    HW111585   9.002   7.306   5.027
 3251SOL    HW211586   8.886   7.304   5.125
 3252SOL     OW11587  13.103   8.234   3.088
 3252SOL    HW111588  13.118   8.285   3.009
 3252SOL    HW211589  13.064   8.152   3.057
 3253SOL     OW11590   7.058   5.899  11.250
 3253SOL    HW111591   6.991   5.892  11.318
 3253SOL    HW211592   7.073   5.993  11.241
 3254SOL     OW11593   2.156  13.674   8.220
 3254SOL    HW111594   2.169  13.609   8.289
 3254SOL    HW211595   2.158  13.758   8.266
 3255SOL     OW11596   7.445   4.138   0.768
 3255SOL    HW111597   7.516   4.075   0.776
 3255SOL    HW211598   7.425   4.142   0.675
 3256SOL     OW11599   7.073   9.738   3.763
 3256SOL    HW111600   7.049   9.829   3.749
 3256SOL    HW211601   7.167   9.739   3.780
 3257SOL     OW11602  10.469  13.338  14.856
 3257SOL    HW111603  10.379  13.357  14.832
 3257SOL    HW211604  10.476  13.243  14.846
 3258SOL     OW11605   4.361   8.763  12.189
 3258SOL    HW111606   4.434   8.825  12.201
 3258SOL    HW211607   4.321   8.757  12.275
 3259SOL     OW11608   6.259  13.909   5.275
 3259SOL    HW111609   6.193  13.861   5.225
 3259SOL    HW211610   6.302  13.965   5.209
 3260SOL     OW11611   7.591   8.286   5.879
 3260SOL    HW111612   7.676   8.243   5.869
 3260SOL    HW211613   7.567   8.272   5.970
 3261SOL     OW11614  11.416   3.794   9.093
 3261SOL    HW111615  11.383   3.881   9.070
 3261SOL    HW211616  11.511   3.803   9.092
 3262SOL     OW11617  13.880  12.337   3.751
 3262SOL    HW111618  13.964  12.310   3.788
 3262SOL    HW211619  13.898  12.347   3.657
 3263SOL     OW11620   2.292   9.400   3.741
 3263SOL    HW111621   2.290   9.493   3.720
 3263SOL    HW211622   2.311   9.357   3.657
 3264SOL     OW11623   3.814   3.263   3.958
 3264SOL    HW111624   3.784   3.173   3.969
 3264SOL    HW211625   3.847   3.267   3.868
 3265SOL     OW11626   6.189   3.438  10.802
 3265SOL    HW111627   6.253   3.443  10.731
 3265SOL    HW211628   6.226   3.374  10.864
 3266SOL     OW11629  10.047   6.721   8.772
 3266SOL    HW111630  10.024   6.802   8.727
 3266SOL    HW211631   9.984   6.713   8.843
 3267SOL     OW11632   9.606   2.260  12.274
 3267SOL    HW111633   9.527   2.249  12.326
 3267SOL    HW211634   9.658   2.182  12.291
 3268SOL     OW11635   2.033   3.570  10.058
 3268SOL    HW111636   2.047   3.593  10.150
 3268SOL    HW211637   1.940   3.548  10.054
 3269SOL     OW11638  13.563   6.142   9.968
 3269SOL    HW111639  13.605   6.069   9.922
 3269SOL    HW211640  13.511   6.099  10.037
 3270SOL     OW11641  12.459   0.467   1.408
 3270SOL    HW111642  12.513   0.395   1.375
 3270SOL    HW211643  12.374   0.456   1.364
 3271SOL     OW11644   4.565   3.849  14.451
 3271SOL    HW111645   4.621   3.913  14.408
 3271SOL    HW211646   4.552   3.781  14.386
 3272SOL     OW11647  13.586  13.230   5.721
 3272SOL    HW111648  13.653  13.164   5.739
 3272SOL    HW211649  13.595  13.293   5.794
 3273SOL     OW11650   0.017   4.815  12.348
 3273SOL    HW111651  14.805   4.844  12.314
 3273SOL    HW211652   0.035   4.733  12.302
 3274SOL     OW11653   4.431   6.648  10.533
 3274SOL    HW111654   4.440   6.576  10.595
 3274SOL    HW211655   4.408   6.606  10.450
 3275SOL     OW11656   5.508   7.616  11.038
 3275SOL    HW111657   5.600   7.644  11.044
 3275SOL    HW211658   5.506   7.560  10.960
 3276SOL     OW11659  13.988   1.700   9.177
 3276SOL    HW111660  13.969   1.653   9.258
 3276SOL    HW211661  14.017   1.632   9.116
 3277SOL     OW11662  14.193   5.332   0.205
 3277SOL    HW111663  14.184   5.380   0.123
 3277SOL    HW211664  14.186   5.240   0.181
 3278SOL     OW11665  12.892   8.051   0.306
 3278SOL    HW111666  12.960   8.111   0.275
 3278SOL    HW211667  12.835   8.105   0.360
 3279SOL     OW11668   6.916  14.255   6.158
 3279SOL    HW111669   6.970  14.211   6.092
 3279SOL    HW211670   6.940  14.213   6.241
 3280SOL     OW11671   7.558   7.996  14.611
 3280SOL    HW111672   7.533   8.037  14.694
 3280SOL    HW211673   7.620   8.057  14.572
 3281SOL     OW11674   2.122   1.102   6.270
 3281SOL    HW111675   2.151   1.075   6.357
 3281SOL    HW211676   2.189   1.068   6.210
 3282SOL     OW11677   4.040  10.109  12.482
 3282SOL    HW111678   3.978  10.075  12.546
 3282SOL    HW211679   4.121  10.061  12.499
 3283SOL     OW11680   4.724  13.278   1.021
 3283SOL    HW111681   4.657  13.228   1.067
 3283SOL    HW211682   4.676  13.329   0.957
 3284SOL     OW11683   8.061  12.064   2.196
 3284SOL    HW111684   8.021  11.991   2.149
 3284SOL    HW211685   8.112  12.110   2.129
 3285SOL     OW11686   6.573  10.226   9.324
 3285SOL    HW111687   6.609  10.174   9.396
 3285SOL    HW211688   6.603  10.181   9.245
 3286SOL     OW11689  10.222   2.202   8.937
 3286SOL    HW111690  10.168   2.282   8.938
 3286SOL    HW211691  10.310   2.234   8.919
 3287SOL     OW11692   6.057   8.010  10.936
 3287SOL    HW111693   5.973   8.016  10.892
 3287SOL    HW211694   6.106   7.945  10.886
 3288SOL     OW11695  14.190  12.836  12.398
 3288SOL    HW111696  14.101  12.805  12.416
 3288SOL    HW211697  14.218  12.787  12.321
 3289SOL     OW11698  10.848   9.012   0.647
 3289SOL    HW111699  10.943   9.011   0.640
 3289SOL    HW211700  10.825   8.922   0.669
 3290SOL     OW11701   1.528   6.974   6.586
 3290SOL    HW111702   1.595   6.962   6.519
 3290SOL    HW211703   1.546   6.908   6.652
 3291SOL     OW11704   4.721   0.076   1.091
 3291SOL    HW111705   4.643   0.044   1.137
 3291SOL    HW211706   4.732   0.015   1.017
 3292SOL     OW11707   3.852   7.122   4.943
 3292SOL    HW111708   3.836   7.146   4.852
 3292SOL    HW211709   3.765   7.118   4.983
 3293SOL     OW11710  11.602  11.587   8.341
 3293SOL    HW111711  11.525  11.642   8.354
 3293SOL    HW211712  11.653  11.633   8.274
 3294SOL     OW11713   5.280   0.979   7.288
 3294SOL    HW111714   5.321   0.905   7.244
 3294SOL    HW211715   5.316   0.977   7.376
 3295SOL     OW11716   9.150   7.269   5.933
 3295SOL    HW111717   9.195   7.188   5.959
 3295SOL    HW211718   9.071   7.270   5.987
 3296SOL     OW11719   0.749   0.408   5.567
 3296SOL    HW111720   0.764   0.317   5.594
 3296SOL    HW211721   0.706   0.449   5.642
 3297SOL     OW11722  13.142   7.455  14.092
 3297SOL    HW111723  13.162   7.492  14.178
 3297SOL    HW211724  13.226   7.424  14.059
 3298SOL     OW11725   5.504   8.164   6.503
 3298SOL    HW111726   5.519   8.194   6.413
 3298SOL    HW211727   5.590   8.140   6.535
 3299SOL     OW11728  14.214  10.171  10.660
 3299SOL    HW111729  14.224  10.085  10.618
 3299SOL    HW211730  14.298  10.214  10.646
 3300SOL     OW11731  14.180   7.404   7.611
 3300SOL    HW111732  14.097   7.433   7.572
 3300SOL    HW211733  14.232   7.374   7.537
 3301SOL     OW11734  14.138  10.102  13.021
 3301SOL    HW111735  14.101  10.169  12.964
 3301SOL    HW211736  14.124  10.136  13.109
 3302SOL     OW11737   6.205   6.414   7.187
 3302SOL    HW111738   6.186   6.356   7.261
 3302SOL    HW211739   6.213   6.501   7.227
 3303SOL     OW11740   9.115   1.593  10.919
 3303SOL    HW111741   9.025   1.624  10.911
 3303SOL    HW211742   9.164   1.668  10.952
 3304SOL     OW11743  14.374   3.163   8.670
 3304SOL    HW111744  14.456   3.189   8.710
 3304SOL    HW211745  14.374   3.207   8.584
 3305SOL     OW11746   0.700  11.543   4.440
 3305SOL    HW111747   0.638  11.610   4.466
 3305SOL    HW211748   0.755  11.529   4.517
 3306SOL     OW11749   1.038   4.964   8.044
 3306SOL    HW111750   1.009   5.003   8.126
 3306SOL    HW211751   0.976   4.892   8.029
 3307SOL     OW11752  13.924   3.999  10.264
 3307SOL    HW111753  13.970   3.997  10.348
 3307SOL    HW211754  13.831   3.991  10.288
 3308SOL     OW11755   1.720   9.268   6.550
 3308SOL    HW111756   1.752   9.358   6.545
 3308SOL    HW211757   1.644   9.267   6.491
 3309SOL     OW11758  12.517   5.248  13.510
 3309SOL    HW111759  12.597   5.299  13.502
 3309SOL    HW211760  12.450   5.312  13.535
 3310SOL     OW11761  10.028   2.850  12.046
 3310SOL    HW111762   9.997   2.760  12.039
 3310SOL    HW211763  10.120   2.842  12.069
 3311SOL     OW11764   2.139   9.599   0.536
 3311SOL    HW111765   2.118   9.689   0.512
 3311SOL    HW211766   2.135   9.598   0.632
 3312SOL     OW11767   8.267   9.715   6.182
 3312SOL    HW111768   8.219   9.788   6.219
 3312SOL    HW211769   8.313   9.676   6.256
 3313SOL     OW11770   2.835  11.845   4.663
 3313SOL    HW111771   2.843  11.928   4.711
 3313SOL    HW211772   2.842  11.778   4.731
 3314SOL     OW11773   9.030   9.096  14.299
 3314SOL    HW111774   9.078   9.131  14.374
 3314SOL    HW211775   9.042   9.161  14.230
 3315SOL     OW11776   7.612  10.168  13.331
 3315SOL    HW111777   7.530  10.183  13.283
 3315SOL    HW211778   7.677  10.219  13.284
 3316SOL     OW11779   0.760   1.080   1.943
 3316SOL    HW111780   0.725   1.098   2.031
 3316SOL    HW211781   0.833   1.020   1.959
 3317SOL     OW11782  14.562   4.464   1.570
 3317SOL    HW111783  14.572   4.532   1.636
 3317SOL    HW211784  14.467   4.455   1.560
 3318SOL     OW11785   8.731   7.660   1.265
 3318SOL    HW111786   8.642   7.653   1.297
 3318SOL    HW211787   8.732   7.740   1.213
 3319SOL     OW11788   8.778   5.039  14.789
 3319SOL    HW111789   8.778   4.945  14.810
 3319SOL    HW211790   8.866   5.056  14.758
 3320SOL     OW11791   6.828   2.130   8.604
 3320SOL    HW111792   6.902   2.129   8.543
 3320SOL    HW211793   6.858   2.185   8.676
 3321SOL     OW11794   3.755   0.248   6.970
 3321SOL    HW111795   3.746   0.199   7.052
 3321SOL    HW211796   3.828   0.205   6.924
 3322SOL     OW11797   5.927   5.482  13.425
 3322SOL    HW111798   5.930   5.479  13.329
 3322SOL    HW211799   5.983   5.409  13.452
 3323SOL     OW11800  10.844   4.321  14.209
 3323SOL    HW111801  10.938   4.310  14.218
 3323SOL    HW211802  10.817   4.255  14.145
 3324SOL     OW11803   1.693   6.442   4.376
 3324SOL    HW111804   1.721   6.442   4.467
 3324SOL    HW211805   1.762   6.397   4.329
 3325SOL     OW11806   0.111   6.151   6.458
 3325SOL    HW111807   0.075   6.134   6.371
 3325SOL    HW211808   0.132   6.064   6.493
 3326SOL     OW11809   2.054   0.048   5.039
 3326SOL    HW111810   1.984   0.079   4.981
 3326SOL    HW211811   2.011  14.860   5.099
 3327SOL     OW11812   0.634  10.543  12.592
 3327SOL    HW111813   0.624  10.611  12.658
 3327SOL    HW211814   0.603  10.463  12.635
 3328SOL     OW11815   1.451   1.444  12.914
 3328SOL    HW111816   1.452   1.353  12.884
 3328SOL    HW211817   1.531   1.452  12.967
 3329SOL     OW11818  12.283   0.210  12.539
 3329SOL    HW111819  12.218   0.139  12.537
 3329SOL    HW211820  12.231   0.289  12.557
 3330SOL     OW11821  14.569  12.075   9.992
 3330SOL    HW111822  14.485  12.101   9.955
 3330SOL    HW211823  14.615  12.033   9.919
 3331SOL     OW11824   1.351  14.155   2.101
 3331SOL    HW111825   1.339  14.157   2.196
 3331SOL    HW211826   1.445  14.171   2.089
 3332SOL     OW11827  11.122   0.512   1.057
 3332SOL    HW111828  11.197   0.517   0.999
 3332SOL    HW211829  11.159   0.490   1.142
 3333SOL     OW11830  10.137  11.194  11.828
 3333SOL    HW111831  10.190  11.115  11.836
 3333SOL    HW211832  10.119  11.201  11.734
 3334SOL     OW11833  12.931   5.649   4.369
 3334SOL    HW111834  13.014   5.636   4.414
 3334SOL    HW211835  12.942   5.731   4.320
 3335SOL     OW11836   7.677   4.101   1.427
 3335SOL    HW111837   7.746   4.147   1.380
 3335SOL    HW211838   7.712   4.088   1.515
 3336SOL     OW11839  11.888  13.661   0.938
 3336SOL    HW111840  11.803  13.628   0.908
 3336SOL    HW211841  11.897  13.627   1.026
 3337SOL     OW11842   2.915   2.855   8.956
 3337SOL    HW111843   2.879   2.768   8.938
 3337SOL    HW211844   2.982   2.841   9.023
 3338SOL     OW11845   6.403   2.382   1.100
 3338SOL    HW111846   6.484   2.406   1.145
 3338SOL    HW211847   6.345   2.457   1.113
 3339SOL     OW11848   5.447   4.748   9.730
 3339SOL    HW111849   5.500   4.817   9.690
 3339SOL    HW211850   5.410   4.700   9.656
 3340SOL     OW11851  14.358  11.090   5.754
 3340SOL    HW111852  14.441  11.044   5.742
 3340SOL    HW211853  14.358  11.159   5.688
 3341SOL     OW11854   8.325  14.768   5.241
 3341SOL    HW111855   8.395  14.828   5.267
 3341SOL    HW211856   8.253  14.788   5.301
 3342SOL     OW11857   0.910   2.985   5.322
 3342SOL    HW111858   0.923   3.080   5.315
 3342SOL    HW211859   0.849   2.964   5.251
 3343SOL     OW11860  13.143   9.263   6.033
 3343SOL    HW111861  13.057   9.244   5.997
 3343SOL    HW211862  13.175   9.337   5.983
 3344SOL     OW11863   6.468   7.485   0.231
 3344SOL    HW111864   6.476   7.466   0.325
 3344SOL    HW211865   6.548   7.534   0.210
 3345SOL     OW11866   9.864   1.061  13.468
 3345SOL    HW111867   9.857   1.017  13.552
 3345SOL    HW211868   9.952   1.039  13.437
 3346SOL     OW11869   9.354   0.491   9.806
 3346SOL    HW111870   9.342   0.451   9.892
 3346SOL    HW211871   9.449   0.506   9.800
 3347SOL     OW11872  14.243   0.317   6.380
 3347SOL    HW111873  14.314   0.381   6.386
 3347SOL    HW211874  14.168   0.366   6.348
 3348SOL     OW11875   4.075   7.196   2.158
 3348SOL    HW111876   4.133   7.247   2.102
 3348SOL    HW211877   4.132   7.129   2.197
 3349SOL     OW11878  12.336   9.867   8.928
 3349SOL    HW111879  12.278   9.939   8.907
 3349SOL    HW211880  12.422   9.908   8.941
 3350SOL     OW11881   6.238   2.113   2.518
 3350SOL    HW111882   6.297   2.167   2.571
 3350SOL    HW211883   6.152   2.154   2.528
 3351SOL     OW11884   9.790  11.151   7.062
 3351SOL    HW111885   9.777  11.159   6.968
 3351SOL    HW211886   9.879  11.118   7.072
 3352SOL     OW11887   2.674  10.637   7.311
 3352SOL    HW111888   2.618  10.682   7.248
 3352SOL    HW211889   2.763  10.664   7.288
 3353SOL     OW11890   7.313   8.436   6.725
 3353SOL    HW111891   7.257   8.479   6.661
 3353SOL    HW211892   7.259   8.365   6.761
 3354SOL     OW11893  14.208   2.601  10.823
 3354SOL    HW111894  14.151   2.625  10.895
 3354SOL    HW211895  14.214   2.506  10.827
 3355SOL     OW11896  14.539  11.723   5.453
 3355SOL    HW111897  14.602  11.697   5.520
 3355SOL    HW211898  14.488  11.793   5.495
 3356SOL     OW11899   0.297   1.878   6.944
 3356SOL    HW111900   0.271   1.918   6.861
 3356SOL    HW211901   0.225   1.898   7.004
 3357SOL     OW11902   5.171   7.264  13.407
 3357SOL    HW111903   5.120   7.239  13.484
 3357SOL    HW211904   5.226   7.336  13.438
 3358SOL     OW11905   8.342  10.217   3.216
 3358SOL    HW111906   8.276  10.238   3.281
 3358SOL    HW211907   8.407  10.165   3.263
 3359SOL     OW11908   4.778   6.441  11.100
 3359SOL    HW111909   4.845   6.374  11.083
 3359SOL    HW211910   4.753   6.472  11.014
 3360SOL     OW11911   1.860  10.646   7.249
 3360SOL    HW111912   1.780  10.698   7.252
 3360SOL    HW211913   1.894  10.649   7.338
 3361SOL     OW11914   5.657   1.297  10.335
 3361SOL    HW111915   5.657   1.372  10.275
 3361SOL    HW211916   5.748   1.288  10.363
 3362SOL     OW11917   4.444   0.844   7.148
 3362SOL    HW111918   4.486   0.782   7.088
 3362SOL    HW211919   4.514   0.873   7.205
 3363SOL     OW11920   6.783   7.809   6.305
 3363SOL    HW111921   6.858   7.787   6.360
 3363SOL    HW211922   6.710   7.819   6.367
 3364SOL     OW11923   9.820   6.358  13.408
 3364SOL    HW111924   9.845   6.444  13.443
 3364SOL    HW211925   9.757   6.324  13.472
 3365SOL     OW11926   6.048   6.439   2.845
 3365SOL    HW111927   6.065   6.362   2.899
 3365SOL    HW211928   6.058   6.513   2.905
 3366SOL     OW11929   0.529  11.682   8.047
 3366SOL    HW111930   0.522  11.776   8.029
 3366SOL    HW211931   0.572  11.677   8.133
 3367SOL     OW11932   8.890   6.065   6.246
 3367SOL    HW111933   8.889   5.989   6.304
 3367SOL    HW211934   8.976   6.063   6.204
 3368SOL     OW11935   5.450   9.323   3.356
 3368SOL    HW111936   5.491   9.407   3.371
 3368SOL    HW211937   5.372   9.324   3.412
 3369SOL     OW11938  12.952  10.420  12.796
 3369SOL    HW111939  12.949  10.515  12.788
 3369SOL    HW211940  13.041  10.396  12.769
 3370SOL     OW11941  11.256   8.818  12.965
 3370SOL    HW111942  11.172   8.844  12.927
 3370SOL    HW211943  11.260   8.866  13.048
 3371SOL     OW11944   7.013  14.252  11.467
 3371SOL    HW111945   6.944  14.248  11.401
 3371SOL    HW211946   6.968  14.271  11.549
 3372SOL     OW11947   6.340   7.851   4.429
 3372SOL    HW111948   6.246   7.872   4.431
 3372SOL    HW211949   6.358   7.814   4.515
 3373SOL     OW11950  10.067   4.811   9.824
 3373SOL    HW111951  10.011   4.832   9.898
 3373SOL    HW211952  10.119   4.890   9.810
 3374SOL     OW11953  13.593   1.036  12.193
 3374SOL    HW111954  13.617   1.066  12.105
 3374SOL    HW211955  13.513   1.083  12.213
 3375SOL     OW11956  10.429   0.256   2.841
 3375SOL    HW111957  10.444   0.347   2.866
 3375SOL    HW211958  10.337   0.253   2.814
 3376SOL     OW11959  12.661   4.095   0.693
 3376SOL    HW111960  12.667   4.053   0.778
 3376SOL    HW211961  12.752   4.102   0.663
 3377SOL     OW11962  11.677   8.613   6.309
 3377SOL    HW111963  11.686   8.707   6.324
 3377SOL    HW211964  11.678   8.575   6.396
 3378SOL     OW11965   8.325   8.218   5.406
 3378SOL    HW111966   8.342   8.165   5.328
 3378SOL    HW211967   8.412   8.244   5.437
 3379SOL     OW11968   8.650  12.866   2.888
 3379SOL    HW111969   8.616  12.843   2.975
 3379SOL    HW211970   8.606  12.948   2.866
 3380SOL     OW11971   5.449   5.486   5.599
 3380SOL    HW111972   5.493   5.564   5.563
 3380SOL    HW211973   5.491   5.471   5.683
 3381SOL     OW11974  13.651   8.644   8.899
 3381SOL    HW111975  13.595   8.657   8.975
 3381SOL    HW211976  13.640   8.724   8.847
 3382SOL     OW11977   5.315   7.700  12.561
 3382SOL    HW111978   5.388   7.760  12.549
 3382SOL    HW211979   5.238   7.756  12.569
 3383SOL     OW11980   2.958   2.056   6.522
 3383SOL    HW111981   2.981   2.002   6.446
 3383SOL    HW211982   3.017   2.131   6.517
 3384SOL     OW11983   4.636  11.472   9.408
 3384SOL    HW111984   4.585  11.395   9.383
 3384SOL    HW211985   4.719  11.436   9.441
 3385SOL     OW11986   6.109   9.762   0.619
 3385SOL    HW111987   6.034   9.821   0.621
 3385SOL    HW211988   6.153   9.782   0.537
 3386SOL     OW11989   9.068   5.377   7.522
 3386SOL    HW111990   9.088   5.422   7.440
 3386SOL    HW211991   9.101   5.436   7.590
 3387SOL     OW11992   8.948  14.281  14.659
 3387SOL    HW111993   8.883  14.279  14.588
 3387SOL    HW211994   8.948  14.372  14.688
 3388SOL     OW11995   6.687   2.438   4.079
 3388SOL    HW111996   6.634   2.434   4.158
 3388SOL    HW211997   6.677   2.351   4.039
 3389SOL     OW11998   0.348   9.697  12.199
 3389SOL    HW111999   0.440   9.699  12.171
 3389SOL    HW212000   0.352   9.723  12.291
 3390SOL     OW12001   9.653  12.390   5.893
 3390SOL    HW112002   9.617  12.357   5.975
 3390SOL    HW212003   9.712  12.321   5.862
 3391SOL     OW12004   0.771  10.913  11.846
 3391SOL    HW112005   0.695  10.961  11.813
 3391SOL    HW212006   0.757  10.823  11.817
 3392SOL     OW12007  12.510   1.861   0.065
 3392SOL    HW112008  12.494   1.929  14.872
 3392SOL    HW212009  12.592   1.819   0.038
 3393SOL     OW12010   6.603   0.192  11.576
 3393SOL    HW112011   6.528   0.149  11.618
 3393SOL    HW212012   6.675   0.180  11.638
 3394SOL     OW12013  10.621  13.902  10.505
 3394SOL    HW112014  10.560  13.975  10.490
 3394SOL    HW212015  10.604  13.841  10.433
 3395SOL     OW12016   0.242  14.154   8.348
 3395SOL    HW112017   0.233  14.090   8.277
 3395SOL    HW212018   0.335  14.178   8.347
 3396SOL     OW12019   7.336  11.657  13.937
 3396SOL    HW112020   7.246  11.681  13.916
 3396SOL    HW212021   7.385  11.739  13.932
 3397SOL     OW12022   4.541   9.973  12.267
 3397SOL    HW112023   4.552   9.955  12.174
 3397SOL    HW212024   4.626   9.951  12.306
 3398SOL     OW12025   7.857   6.198   0.947
 3398SOL    HW112026   7.833   6.223   0.858
 3398SOL    HW212027   7.793   6.241   1.003
 3399SOL     OW12028   4.144  13.583  11.371
 3399SOL    HW112029   4.211  13.601  11.437
 3399SOL    HW212030   4.080  13.528  11.416
 3400SOL     OW12031   5.066   6.870   8.340
 3400SOL    HW112032   5.082   6.897   8.249
 3400SOL    HW212033   5.126   6.924   8.391
 3401SOL     OW12034   6.349   7.433   4.708
 3401SOL    HW112035   6.373   7.424   4.616
 3401SOL    HW212036   6.255   7.455   4.706
 3402SOL     OW12037  10.050   2.983   4.662
 3402SOL    HW112038  10.131   3.016   4.700
 3402SOL    HW212039   9.981   3.019   4.718
 3403SOL     OW12040  10.437  13.443   4.383
 3403SOL    HW112041  10.439  13.356   4.344
 3403SOL    HW212042  10.512  13.488   4.344
 3404SOL     OW12043   9.255  13.671   4.898
 3404SOL    HW112044   9.229  13.593   4.947
 3404SOL    HW212045   9.202  13.669   4.818
 3405SOL     OW12046  10.253   1.296   0.507
 3405SOL    HW112047  10.310   1.347   0.564
 3405SOL    HW212048  10.191   1.360   0.472
 3406SOL     OW12049  11.333  12.595   4.189
 3406SOL    HW112050  11.390  12.522   4.163
 3406SOL    HW212051  11.393  12.663   4.220
 3407SOL     OW12052   7.440  10.557   6.432
 3407SOL    HW112053   7.420  10.493   6.501
 3407SOL    HW212054   7.488  10.626   6.476
 3408SOL     OW12055   5.778   5.069  12.274
 3408SOL    HW112056   5.846   5.008  12.244
 3408SOL    HW212057   5.801   5.152  12.232
 3409SOL     OW12058   2.646   1.000   7.952
 3409SOL    HW112059   2.642   0.905   7.960
 3409SOL    HW212060   2.576   1.022   7.890
 3410SOL     OW12061   6.020   0.803   3.245
 3410SOL    HW112062   6.053   0.862   3.177
 3410SOL    HW212063   5.936   0.772   3.210
 3411SOL     OW12064   2.791   3.628   5.100
 3411SOL    HW112065   2.864   3.688   5.113
 3411SOL    HW212066   2.799   3.565   5.171
 3412SOL     OW12067   6.335  11.191   1.426
 3412SOL    HW112068   6.380  11.198   1.510
 3412SOL    HW212069   6.342  11.099   1.402
 3413SOL     OW12070   9.612   0.516   6.965
 3413SOL    HW112071   9.627   0.607   6.991
 3413SOL    HW212072   9.633   0.514   6.872
 3414SOL     OW12073   6.938   8.814  11.314
 3414SOL    HW112074   7.003   8.828  11.382
 3414SOL    HW212075   6.980   8.846  11.234
 3415SOL     OW12076  11.424  13.410   2.530
 3415SOL    HW112077  11.339  13.453   2.541
 3415SOL    HW212078  11.435  13.358   2.610
 3416SOL     OW12079   3.850   0.872  13.002
 3416SOL    HW112080   3.935   0.829  13.005
 3416SOL    HW212081   3.869   0.964  13.021
 3417SOL     OW12082   5.267   1.720   6.512
 3417SOL    HW112083   5.264   1.795   6.453
 3417SOL    HW212084   5.185   1.674   6.497
 3418SOL     OW12085   5.317   6.333   6.793
 3418SOL    HW112086   5.266   6.336   6.874
 3418SOL    HW212087   5.264   6.379   6.729
 3419SOL     OW12088   2.472  10.227  10.473
 3419SOL    HW112089   2.445  10.265  10.390
 3419SOL    HW212090   2.488  10.135  10.453
 3420SOL     OW12091   0.866   3.485   7.504
 3420SOL    HW112092   0.848   3.577   7.486
 3420SOL    HW212093   0.911   3.454   7.425
 3421SOL     OW12094   8.353   1.221   4.570
 3421SOL    HW112095   8.298   1.152   4.534
 3421SOL    HW212096   8.299   1.264   4.636
 3422SOL     OW12097  10.688   2.690   2.484
 3422SOL    HW112098  10.714   2.758   2.423
 3422SOL    HW212099  10.609   2.723   2.526
 3423SOL     OW12100  10.066   2.427   8.024
 3423SOL    HW112101  10.083   2.336   8.050
 3423SOL    HW212102   9.996   2.420   7.959
 3424SOL     OW12103   2.258   9.584   8.160
 3424SOL    HW112104   2.315   9.551   8.091
 3424SOL    HW212105   2.169   9.559   8.133
 3425SOL     OW12106  11.450   2.750  10.318
 3425SOL    HW112107  11.411   2.743  10.230
 3425SOL    HW212108  11.391   2.808  10.366
 3426SOL     OW12109   1.243   6.093  11.294
 3426SOL    HW112110   1.156   6.065  11.323
 3426SOL    HW212111   1.302   6.026  11.328
 3427SOL     OW12112   1.688   5.213   6.470
 3427SOL    HW112113   1.604   5.216   6.425
 3427SOL    HW212114   1.683   5.136   6.526
 3428SOL     OW12115   0.959   6.339   6.589
 3428SOL    HW112116   0.938   6.428   6.618
 3428SOL    HW212117   0.894   6.319   6.521
 3429SOL     OW12118  12.965   4.205  11.876
 3429SOL    HW112119  12.876   4.176  11.856
 3429SOL    HW212120  13.015   4.124  11.883
 3430SOL     OW12121   7.732  14.794  13.146
 3430SOL    HW112122   7.744   0.017  13.154
 3430SOL    HW212123   7.661  14.784  13.082
 3431SOL     OW12124  13.836  13.098  12.012
 3431SOL    HW112125  13.910  13.151  11.981
 3431SOL    HW212126  13.768  13.163  12.034
 3432SOL     OW12127   0.632  12.384   5.566
 3432SOL    HW112128   0.710  12.329   5.573
 3432SOL    HW212129   0.651  12.444   5.494
 3433SOL     OW12130   6.502  14.011  10.469
 3433SOL    HW112131   6.479  14.042  10.381
 3433SOL    HW212132   6.592  14.040  10.482
 3434SOL     OW12133   7.647   3.102   1.234
 3434SOL    HW112134   7.720   3.154   1.201
 3434SOL    HW212135   7.670   3.012   1.212
 3435SOL     OW12136  13.866  10.614   6.125
 3435SOL    HW112137  13.928  10.687   6.133
 3435SOL    HW212138  13.780  10.656   6.119
 3436SOL     OW12139   1.360  13.040   2.578
 3436SOL    HW112140   1.273  13.023   2.614
 3436SOL    HW212141   1.390  13.119   2.623
 3437SOL     OW12142   3.257   9.722  11.178
 3437SOL    HW112143   3.251   9.758  11.090
 3437SOL    HW212144   3.188   9.766  11.227
 3438SOL     OW12145  14.572   8.819   3.174
 3438SOL    HW112146  14.610   8.760   3.239
 3438SOL    HW212147  14.635   8.819   3.102
 3439SOL     OW12148  11.845  11.411   8.787
 3439SOL    HW112149  11.921  11.392   8.841
 3439SOL    HW212150  11.784  11.454   8.847
 3440SOL     OW12151  12.337  11.107   4.177
 3440SOL    HW112152  12.326  11.015   4.150
 3440SOL    HW212153  12.427  11.128   4.155
 3441SOL     OW12154   8.903   2.120   8.298
 3441SOL    HW112155   8.899   2.182   8.226
 3441SOL    HW212156   8.870   2.038   8.262
 3442SOL     OW12157   7.655   7.330   9.982
 3442SOL    HW112158   7.567   7.332   9.943
 3442SOL    HW212159   7.690   7.418   9.966
 3443SOL     OW12160   0.829  14.234   1.092
 3443SOL    HW112161   0.911  14.276   1.119
 3443SOL    HW212162   0.856  14.166   1.031
 3444SOL     OW12163   7.432  12.043   2.203
 3444SOL    HW112164   7.359  11.990   2.236
 3444SOL    HW212165   7.458  12.098   2.277
 3445SOL     OW12166   7.296   0.684   1.345
 3445SOL    HW112167   7.315   0.701   1.437
 3445SOL    HW212168   7.201   0.696   1.338
 3446SOL     OW12169   2.657   6.134  12.017
 3446SOL    HW112170   2.599   6.128  12.093
 3446SOL    HW212171   2.730   6.076  12.038
 3447SOL     OW12172  11.574   9.760  12.418
 3447SOL    HW112173  11.507   9.703  12.381
 3447SOL    HW212174  11.606   9.811  12.344
 3448SOL     OW12175   2.114   5.852  10.750
 3448SOL    HW112176   2.114   5.859  10.846
 3448SOL    HW212177   2.035   5.900  10.723
 3449SOL     OW12178  12.615   1.644   6.291
 3449SOL    HW112179  12.623   1.622   6.384
 3449SOL    HW212180  12.531   1.605   6.265
 3450SOL     OW12181  13.528   3.989   8.142
 3450SOL    HW112182  13.436   3.993   8.170
 3450SOL    HW212183  13.563   3.913   8.188
 3451SOL     OW12184  13.708   0.922   5.285
 3451SOL    HW112185  13.673   0.931   5.374
 3451SOL    HW212186  13.803   0.928   5.297
 3452SOL     OW12187   6.205   8.579   4.342
 3452SOL    HW112188   6.123   8.538   4.368
 3452SOL    HW212189   6.249   8.512   4.290
 3453SOL     OW12190  11.533  14.229   0.262
 3453SOL    HW112191  11.591  14.305   0.271
 3453SOL    HW212192  11.566  14.165   0.325
 3454SOL     OW12193   4.927  10.572  11.206
 3454SOL    HW112194   4.863  10.523  11.256
 3454SOL    HW212195   4.904  10.664  11.221
 3455SOL     OW12196   1.232   7.373  13.096
 3455SOL    HW112197   1.177   7.306  13.135
 3455SOL    HW212198   1.310   7.326  13.065
 3456SOL     OW12199   5.784   5.950   6.632
 3456SOL    HW112200   5.689   5.957   6.641
 3456SOL    HW212201   5.814   5.925   6.720
 3457SOL     OW12202  14.755   2.316  14.353
 3457SOL    HW112203  14.766   2.293  14.445
 3457SOL    HW212204  14.661   2.326  14.341
 3458SOL     OW12205   0.886   2.103  12.839
 3458SOL    HW112206   0.879   2.025  12.784
 3458SOL    HW212207   0.968   2.144  12.812
 3459SOL     OW12208   4.416   7.617   7.168
 3459SOL    HW112209   4.362   7.539   7.158
 3459SOL    HW212210   4.467   7.602   7.247
 3460SOL     OW12211  12.955  10.844   0.288
 3460SOL    HW112212  12.893  10.915   0.272
 3460SOL    HW212213  12.924  10.772   0.233
 3461SOL     OW12214  10.284  11.185  10.533
 3461SOL    HW112215  10.212  11.153  10.587
 3461SOL    HW212216  10.243  11.242  10.469
 3462SOL     OW12217   0.010  11.049  14.216
 3462SOL    HW112218  14.862  11.128  14.166
 3462SOL    HW212219  14.826  10.981  14.179
 3463SOL     OW12220  11.901   5.540   5.300
 3463SOL    HW112221  11.988   5.577   5.284
 3463SOL    HW212222  11.919   5.455   5.341
 3464SOL     OW12223   8.682   3.010   6.056
 3464SOL    HW112224   8.652   3.086   6.007
 3464SOL    HW212225   8.696   2.943   5.988
 3465SOL     OW12226   2.396   0.515   2.869
 3465SOL    HW112227   2.342   0.436   2.858
 3465SOL    HW212228   2.477   0.495   2.822
 3466SOL     OW12229   0.687   9.799  14.257
 3466SOL    HW112230   0.781   9.809  14.273
 3466SOL    HW212231   0.650   9.885  14.279
 3467SOL     OW12232   9.123   3.125   9.098
 3467SOL    HW112233   9.060   3.072   9.147
 3467SOL    HW212234   9.073   3.202   9.072
 3468SOL     OW12235  13.065   3.915   4.742
 3468SOL    HW112236  13.130   3.853   4.709
 3468SOL    HW212237  13.001   3.861   4.789
 3469SOL     OW12238   1.103  13.323   1.228
 3469SOL    HW112239   1.138  13.237   1.251
 3469SOL    HW212240   1.072  13.359   1.311
 3470SOL     OW12241   2.181  12.623  13.812
 3470SOL    HW112242   2.097  12.668  13.828
 3470SOL    HW212243   2.242  12.694  13.790
 3471SOL     OW12244   6.077  13.919   2.615
 3471SOL    HW112245   6.131  13.924   2.694
 3471SOL    HW212246   6.125  13.862   2.556
 3472SOL     OW12247  14.394   1.510   5.163
 3472SOL    HW112248  14.457   1.532   5.095
 3472SOL    HW212249  14.447   1.492   5.241
 3473SOL     OW12250  11.501   0.478   2.718
 3473SOL    HW112251  11.543   0.564   2.721
 3473SOL    HW212252  11.551   0.430   2.651
 3474SOL     OW12253   0.373   3.146   5.003
 3474SOL    HW112254   0.391   3.164   5.096
 3474SOL    HW212255   0.357   3.232   4.965
 3475SOL     OW12256   0.480  11.748   1.601
 3475SOL    HW112257   0.498  11.805   1.676
 3475SOL    HW212258   0.534  11.670   1.616
 3476SOL     OW12259   6.863   6.346   2.253
 3476SOL    HW112260   6.851   6.438   2.277
 3476SOL    HW212261   6.909   6.307   2.327
 3477SOL     OW12262   3.869  14.418   6.253
 3477SOL    HW112263   3.829  14.402   6.168
 3477SOL    HW212264   3.874  14.332   6.295
 3478SOL     OW12265   1.120   5.254  10.162
 3478SOL    HW112266   1.097   5.162  10.170
 3478SOL    HW212267   1.049   5.293  10.110
 3479SOL     OW12268  12.473  14.002   8.114
 3479SOL    HW112269  12.396  14.057   8.102
 3479SOL    HW212270  12.450  13.944   8.186
 3480SOL     OW12271   5.250   5.383   5.805
 3480SOL    HW112272   5.344   5.380   5.789
 3480SOL    HW212273   5.212   5.416   5.724
 3481SOL     OW12274   1.274   3.459   7.045
 3481SOL    HW112275   1.273   3.396   7.116
 3481SOL    HW212276   1.201   3.433   6.988
 3482SOL     OW12277   4.088   6.417   3.696
 3482SOL    HW112278   4.113   6.431   3.605
 3482SOL    HW212279   4.032   6.491   3.718
 3483SOL     OW12280   1.626  12.676   9.411
 3483SOL    HW112281   1.616  12.581   9.422
 3483SOL    HW212282   1.720  12.691   9.412
 3484SOL     OW12283   1.701  14.758  13.907
 3484SOL    HW112284   1.666  14.819  13.972
 3484SOL    HW212285   1.763  14.811  13.856
 3485SOL     OW12286  13.980  10.006   7.594
 3485SOL    HW112287  14.016   9.951   7.525
 3485SOL    HW212288  13.888  10.017   7.571
 3486SOL     OW12289   9.818  12.717  13.004
 3486SOL    HW112290   9.842  12.725  13.096
 3486SOL    HW212291   9.877  12.778  12.959
 3487SOL     OW12292   5.919  10.609   1.017
 3487SOL    HW112293   5.830  10.578   1.032
 3487SOL    HW212294   5.975  10.533   1.035
 3488SOL     OW12295   3.494   3.157   1.776
 3488SOL    HW112296   3.453   3.212   1.842
 3488SOL    HW212297   3.523   3.218   1.709
 3489SOL     OW12298   9.309   6.654  11.159
 3489SOL    HW112299   9.364   6.623  11.086
 3489SOL    HW212300   9.259   6.726  11.121
 3490SOL     OW12301   6.419   0.900  10.526
 3490SOL    HW112302   6.348   0.841  10.553
 3490SOL    HW212303   6.497   0.864  10.568
 3491SOL     OW12304   5.532   0.060   5.357
 3491SOL    HW112305   5.565   0.001   5.425
 3491SOL    HW212306   5.610   0.108   5.327
 3492SOL     OW12307   1.238   9.180  12.164
 3492SOL    HW112308   1.259   9.092  12.197
 3492SOL    HW212309   1.146   9.175  12.138
 3493SOL     OW12310   8.266   5.480   4.819
 3493SOL    HW112311   8.357   5.456   4.832
 3493SOL    HW212312   8.258   5.567   4.859
 3494SOL     OW12313  11.281   6.751   7.023
 3494SOL    HW112314  11.281   6.655   7.022
 3494SOL    HW212315  11.200   6.775   6.977
 3495SOL     OW12316  14.308  14.459  11.159
 3495SOL    HW112317  14.287  14.550  11.138
 3495SOL    HW212318  14.269  14.445  11.245
 3496SOL     OW12319   2.278   2.365   1.451
 3496SOL    HW112320   2.250   2.456   1.442
 3496SOL    HW212321   2.370   2.370   1.476
 3497SOL     OW12322   8.865   2.806   1.287
 3497SOL    HW112323   8.771   2.811   1.275
 3497SOL    HW212324   8.897   2.893   1.264
 3498SOL     OW12325  11.859   5.662   2.178
 3498SOL    HW112326  11.771   5.668   2.141
 3498SOL    HW212327  11.844   5.643   2.271
 3499SOL     OW12328   6.508   4.440   6.524
 3499SOL    HW112329   6.433   4.462   6.468
 3499SOL    HW212330   6.566   4.389   6.468
 3500SOL     OW12331   7.274  13.168   8.369
 3500SOL    HW112332   7.232  13.083   8.359
 3500SOL    HW212333   7.327  13.159   8.449
 3501SOL     OW12334   8.583   6.612  12.241
 3501SOL    HW112335   8.606   6.671  12.168
 3501SOL    HW212336   8.609   6.660  12.319
 3502SOL     OW12337  13.378   5.353  14.145
 3502SOL    HW112338  13.343   5.266  14.164
 3502SOL    HW212339  13.441   5.370  14.215
 3503SOL     OW12340   2.286  10.126   2.487
 3503SOL    HW112341   2.367  10.178   2.486
 3503SOL    HW212342   2.245  10.144   2.402
 3504SOL     OW12343  14.820   2.545  14.090
 3504SOL    HW112344   0.004   2.503  14.154
 3504SOL    HW212345  14.750   2.482  14.074
 3505SOL     OW12346   4.501   3.129  10.052
 3505SOL    HW112347   4.517   3.082  10.134
 3505SOL    HW212348   4.407   3.149  10.054
 3506SOL     OW12349   4.636  12.704   8.068
 3506SOL    HW112350   4.696  12.760   8.117
 3506SOL    HW212351   4.645  12.733   7.977
 3507SOL     OW12352  13.338   9.354   3.056
 3507SOL    HW112353  13.358   9.430   3.002
 3507SOL    HW212354  13.243   9.349   3.057
 3508SOL     OW12355   6.151  13.561   4.619
 3508SOL    HW112356   6.135  13.472   4.651
 3508SOL    HW212357   6.071  13.585   4.574
 3509SOL     OW12358   0.064   3.246   8.139
 3509SOL    HW112359   0.077   3.151   8.128
 3509SOL    HW212360   0.066   3.280   8.050
 3510SOL     OW12361   9.671  14.808   9.397
 3510SOL    HW112362   9.650  14.812   9.304
 3510SOL    HW212363   9.734  14.736   9.405
 3511SOL     OW12364   1.521   6.539   2.278
 3511SOL    HW112365   1.556   6.464   2.230
 3511SOL    HW212366   1.491   6.501   2.361
 3512SOL     OW12367   2.007  10.023   3.958
 3512SOL    HW112368   2.035  10.004   4.047
 3512SOL    HW212369   1.976  10.113   3.961
 3513SOL     OW12370   8.914   7.879   4.083
 3513SOL    HW112371   8.880   7.931   4.155
 3513SOL    HW212372   8.965   7.940   4.031
 3514SOL     OW12373   3.534   6.438   8.272
 3514SOL    HW112374   3.519   6.417   8.364
 3514SOL    HW212375   3.514   6.356   8.225
 3515SOL     OW12376   2.847  10.266  14.554
 3515SOL    HW112377   2.753  10.247  14.562
 3515SOL    HW212378   2.869  10.237  14.465
 3516SOL     OW12379   3.884   9.994   9.273
 3516SOL    HW112380   3.878  10.023   9.364
 3516SOL    HW212381   3.820  10.047   9.226
 3517SOL     OW12382   3.432  13.552  13.148
 3517SOL    HW112383   3.504  13.540  13.210
 3517SOL    HW212384   3.361  13.498  13.183
 3518SOL     OW12385   3.474   6.061  10.590
 3518SOL    HW112386   3.428   6.034  10.670
 3518SOL    HW212387   3.413   6.040  10.520
 3519SOL     OW12388   1.614  11.067  13.759
 3519SOL    HW112389   1.681  11.083  13.692
 3519SOL    HW212390   1.563  10.993  13.725
 3520SOL     OW12391  14.836   8.433  12.063
 3520SOL    HW112392  14.829   8.478  12.147
 3520SOL    HW212393   0.030   8.366  12.077
 3521SOL     OW12394   7.164   7.433   2.941
 3521SOL    HW112395   7.089   7.421   2.999
 3521SOL    HW212396   7.216   7.503   2.982
 3522SOL     OW12397   4.812   5.701  14.565
 3522SOL    HW112398   4.894   5.748  14.552
 3522SOL    HW212399   4.744   5.769  14.559
 3523SOL     OW12400  12.803  11.610   6.245
 3523SOL    HW112401  12.712  11.602   6.216
 3523SOL    HW212402  12.851  11.632   6.165
 3524SOL     OW12403   2.477   3.249   1.487
 3524SOL    HW112404   2.535   3.302   1.433
 3524SOL    HW212405   2.498   3.159   1.463
 3525SOL     OW12406   0.907   9.694   3.733
 3525SOL    HW112407   0.900   9.603   3.761
 3525SOL    HW212408   0.840   9.704   3.665
 3526SOL     OW12409  11.785  10.957  14.658
 3526SOL    HW112410  11.775  10.956  14.563
 3526SOL    HW212411  11.695  10.967  14.691
 3527SOL     OW12412   2.747   2.059   3.046
 3527SOL    HW112413   2.756   2.079   2.953
 3527SOL    HW212414   2.653   2.042   3.057
 3528SOL     OW12415  12.794  14.461   4.751
 3528SOL    HW112416  12.793  14.406   4.829
 3528SOL    HW212417  12.707  14.451   4.713
 3529SOL     OW12418  13.282   7.494  10.209
 3529SOL    HW112419  13.212   7.552  10.237
 3529SOL    HW212420  13.297   7.437  10.285
 3530SOL     OW12421   1.312  11.778   7.291
 3530SOL    HW112422   1.267  11.695   7.279
 3530SOL    HW212423   1.403  11.754   7.310
 3531SOL     OW12424   7.466   9.659   3.312
 3531SOL    HW112425   7.372   9.648   3.298
 3531SOL    HW212426   7.506   9.635   3.229
 3532SOL     OW12427   5.314   9.067  14.780
 3532SOL    HW112428   5.220   9.053  14.769
 3532SOL    HW212429   5.321   9.155  14.818
 3533SOL     OW12430   9.817   8.341   1.246
 3533SOL    HW112431   9.741   8.291   1.216
 3533SOL    HW212432   9.871   8.276   1.291
 3534SOL     OW12433   4.758   5.986  13.013
 3534SOL    HW112434   4.780   5.894  13.004
 3534SOL    HW212435   4.684   6.000  12.953
 3535SOL     OW12436   4.999  12.775   6.234
 3535SOL    HW112437   4.903  12.765   6.234
 3535SOL    HW212438   5.015  12.851   6.178
 3536SOL     OW12439   9.793   8.894   0.510
 3536SOL    HW112440   9.781   8.868   0.418
 3536SOL    HW212441   9.871   8.949   0.509
 3537SOL     OW12442   8.676   4.982   3.055
 3537SOL    HW112443   8.767   4.950   3.053
 3537SOL    HW212444   8.676   5.048   3.124
 3538SOL     OW12445   2.040   2.381   4.377
 3538SOL    HW112446   1.954   2.421   4.389
 3538SOL    HW212447   2.092   2.414   4.451
 3539SOL     OW12448   7.362   6.172  10.440
 3539SOL    HW112449   7.377   6.265  10.459
 3539SOL    HW212450   7.281   6.171  10.389
 3540SOL     OW12451   3.940   4.045  13.534
 3540SOL    HW112452   3.913   3.959  13.501
 3540SOL    HW212453   3.862   4.078  13.580
 3541SOL     OW12454   7.101  13.381  10.980
 3541SOL    HW112455   7.179  13.331  11.005
 3541SOL    HW212456   7.109  13.463  11.027
 3542SOL     OW12457   7.339   8.301   9.977
 3542SOL    HW112458   7.280   8.300   9.902
 3542SOL    HW212459   7.397   8.226   9.964
 3543SOL     OW12460   5.772   6.036   8.199
 3543SOL    HW112461   5.812   6.119   8.226
 3543SOL    HW212462   5.806   5.972   8.261
 3544SOL     OW12463   8.068  14.844  12.508
 3544SOL    HW112464   8.109  14.841  12.594
 3544SOL    HW212465   7.985  14.798  12.519
 3545SOL     OW12466   2.107   9.891   9.158
 3545SOL    HW112467   2.147   9.849   9.082
 3545SOL    HW212468   2.018   9.912   9.129
 3546SOL     OW12469  10.410  14.118   3.574
 3546SOL    HW112470  10.434  14.186   3.637
 3546SOL    HW212471  10.328  14.082   3.608
 3547SOL     OW12472   3.724   5.450  11.054
 3547SOL    HW112473   3.681   5.373  11.017
 3547SOL    HW212474   3.737   5.508  10.978
 3548SOL     OW12475   0.732   1.798  11.506
 3548SOL    HW112476   0.740   1.757  11.420
 3548SOL    HW212477   0.803   1.862  11.509
 3549SOL     OW12478   8.282   9.022   5.822
 3549SOL    HW112479   8.344   8.952   5.804
 3549SOL    HW212480   8.202   8.995   5.777
 3550SOL     OW12481   2.321  10.164  12.549
 3550SOL    HW112482   2.233  10.173  12.512
 3550SOL    HW212483   2.307  10.143  12.641
 3551SOL     OW12484   4.466  12.703  10.984
 3551SOL    HW112485   4.469  12.633  11.050
 3551SOL    HW212486   4.442  12.658  10.903
 3552SOL     OW12487   7.168   8.862   3.203
 3552SOL    HW112488   7.233   8.931   3.194
 3552SOL    HW212489   7.084   8.905   3.183
 3553SOL     OW12490   8.604   3.535   1.939
 3553SOL    HW112491   8.628   3.467   2.002
 3553SOL    HW212492   8.686   3.580   1.919
 3554SOL     OW12493  14.746  13.686  11.542
 3554SOL    HW112494  14.674  13.748  11.529
 3554SOL    HW212495  14.778  13.704  11.630
 3555SOL     OW12496   0.530   0.107  13.388
 3555SOL    HW112497   0.531   0.202  13.401
 3555SOL    HW212498   0.601   0.075  13.444
 3556SOL     OW12499   7.476   1.676   2.372
 3556SOL    HW112500   7.480   1.640   2.283
 3556SOL    HW212501   7.394   1.643   2.407
 3557SOL     OW12502   5.041   2.397   2.925
 3557SOL    HW112503   5.019   2.323   2.982
 3557SOL    HW212504   5.011   2.474   2.973
 3558SOL     OW12505   0.641   0.838   1.051
 3558SOL    HW112506   0.607   0.920   1.085
 3558SOL    HW212507   0.717   0.863   0.998
 3559SOL     OW12508  10.987   7.639   0.913
 3559SOL    HW112509  11.064   7.693   0.895
 3559SOL    HW212510  11.018   7.574   0.976
 3560SOL     OW12511   9.515  12.101  11.168
 3560SOL    HW112512   9.499  12.046  11.091
 3560SOL    HW212513   9.438  12.158  11.173
 3561SOL     OW12514  13.409   1.398   7.054
 3561SOL    HW112515  13.314   1.401   7.067
 3561SOL    HW212516  13.429   1.477   7.005
 3562SOL     OW12517  11.392  10.656   7.181
 3562SOL    HW112518  11.357  10.623   7.263
 3562SOL    HW212519  11.321  10.710   7.145
 3563SOL     OW12520   2.700  12.346  10.813
 3563SOL    HW112521   2.686  12.344  10.718
 3563SOL    HW212522   2.616  12.378  10.848
 3564SOL     OW12523  11.147   7.494   2.033
 3564SOL    HW112524  11.235   7.477   2.064
 3564SOL    HW212525  11.157   7.566   1.971
 3565SOL     OW12526   8.953   1.482  11.633
 3565SOL    HW112527   8.873   1.435  11.610
 3565SOL    HW212528   9.019   1.447  11.573
 3566SOL     OW12529   8.501  13.814   3.907
 3566SOL    HW112530   8.557  13.759   3.852
 3566SOL    HW212531   8.416  13.814   3.863
 3567SOL     OW12532   7.759   5.720   6.398
 3567SOL    HW112533   7.770   5.640   6.449
 3567SOL    HW212534   7.709   5.779   6.455
 3568SOL     OW12535   2.851   3.532   3.685
 3568SOL    HW112536   2.935   3.530   3.640
 3568SOL    HW212537   2.836   3.442   3.714
 3569SOL     OW12538   4.716   0.150  11.563
 3569SOL    HW112539   4.667   0.153  11.645
 3569SOL    HW212540   4.660   0.196  11.500
 3570SOL     OW12541   8.805   5.074   6.275
 3570SOL    HW112542   8.857   5.124   6.338
 3570SOL    HW212543   8.717   5.071   6.314
 3571SOL     OW12544   3.746   5.124   6.668
 3571SOL    HW112545   3.691   5.070   6.725
 3571SOL    HW212546   3.741   5.211   6.706
 3572SOL     OW12547   1.733   7.776   1.367
 3572SOL    HW112548   1.694   7.697   1.405
 3572SOL    HW212549   1.759   7.829   1.442
 3573SOL     OW12550   0.834   7.856   2.551
 3573SOL    HW112551   0.868   7.829   2.466
 3573SOL    HW212552   0.898   7.823   2.614
 3574SOL     OW12553   7.848  14.404   9.929
 3574SOL    HW112554   7.848  14.499   9.913
 3574SOL    HW212555   7.930  14.388   9.976
 3575SOL     OW12556   3.687   7.394   0.766
 3575SOL    HW112557   3.648   7.424   0.848
 3575SOL    HW212558   3.780   7.416   0.774
 3576SOL     OW12559  13.895   7.053  12.517
 3576SOL    HW112560  13.920   7.030  12.606
 3576SOL    HW212561  13.814   7.004  12.502
 3577SOL     OW12562  11.838   3.533  14.574
 3577SOL    HW112563  11.776   3.581  14.629
 3577SOL    HW212564  11.806   3.546  14.485
 3578SOL     OW12565   3.398   8.001   8.315
 3578SOL    HW112566   3.447   8.068   8.363
 3578SOL    HW212567   3.325   7.979   8.373
 3579SOL     OW12568   0.781   7.148  12.343
 3579SOL    HW112569   0.813   7.073  12.293
 3579SOL    HW212570   0.736   7.202  12.278
 3580SOL     OW12571  11.065   6.935   3.177
 3580SOL    HW112572  11.085   6.964   3.266
 3580SOL    HW212573  11.125   6.986   3.121
 3581SOL     OW12574  11.047  12.323   4.149
 3581SOL    HW112575  11.127  12.271   4.161
 3581SOL    HW212576  11.021  12.346   4.238
 3582SOL     OW12577  11.610   0.111   6.770
 3582SOL    HW112578  11.515   0.118   6.759
 3582SOL    HW212579  11.624   0.019   6.793
 3583SOL     OW12580   6.401   4.973   7.759
 3583SOL    HW112581   6.327   4.913   7.765
 3583SOL    HW212582   6.366   5.057   7.790
 3584SOL     OW12583   6.073   8.372   3.395
 3584SOL    HW112584   5.989   8.330   3.406
 3584SOL    HW212585   6.134   8.321   3.449
 3585SOL     OW12586   2.911   5.813  14.032
 3585SOL    HW112587   2.991   5.862  14.017
 3585SOL    HW212588   2.911   5.745  13.966
 3586SOL     OW12589   0.120  12.485  12.736
 3586SOL    HW112590   0.170  12.404  12.737
 3586SOL    HW212591   0.040  12.465  12.785
 3587SOL     OW12592  12.931   1.492   0.519
 3587SOL    HW112593  12.939   1.448   0.435
 3587SOL    HW212594  12.837   1.499   0.534
 3588SOL     OW12595   2.152   1.425  10.094
 3588SOL    HW112596   2.224   1.414  10.157
 3588SOL    HW212597   2.110   1.507  10.119
 3589SOL     OW12598   3.357  13.785   9.532
 3589SOL    HW112599   3.413  13.737   9.593
 3589SOL    HW212600   3.356  13.731   9.453
 3590SOL     OW12601   4.097  14.711   0.801
 3590SOL    HW112602   4.081  14.805   0.810
 3590SOL    HW212603   4.178  14.696   0.849
 3591SOL     OW12604  13.083   3.946   8.845
 3591SOL    HW112605  13.169   3.975   8.876
 3591SOL    HW212606  13.022   3.978   8.911
 3592SOL     OW12607   7.506  13.128  14.269
 3592SOL    HW112608   7.445  13.057  14.248
 3592SOL    HW212609   7.574  13.122  14.202
 3593SOL     OW12610  12.337   5.762  12.963
 3593SOL    HW112611  12.284   5.700  13.012
 3593SOL    HW212612  12.342   5.839  13.019
 3594SOL     OW12613   7.081  10.102  10.948
 3594SOL    HW112614   7.004  10.156  10.928
 3594SOL    HW212615   7.044  10.016  10.970
 3595SOL     OW12616   0.346   3.031  14.628
 3595SOL    HW112617   0.295   3.066  14.555
 3595SOL    HW212618   0.339   2.936  14.618
 3596SOL     OW12619  14.539   2.290   0.815
 3596SOL    HW112620  14.559   2.197   0.815
 3596SOL    HW212621  14.575   2.323   0.733
 3597SOL     OW12622  11.678   5.650   3.187
 3597SOL    HW112623  11.697   5.558   3.205
 3597SOL    HW212624  11.704   5.662   3.096
 3598SOL     OW12625   6.277  14.180   0.983
 3598SOL    HW112626   6.295  14.242   1.054
 3598SOL    HW212627   6.246  14.101   1.028
 3599SOL     OW12628  13.341  14.845  13.007
 3599SOL    HW112629  13.345   0.068  13.018
 3599SOL    HW212630  13.289  14.815  13.081
 3600SOL     OW12631   9.267  10.263   6.552
 3600SOL    HW112632   9.176  10.272   6.526
 3600SOL    HW212633   9.266  10.274   6.647
 3601SOL     OW12634   3.292  11.887  13.052
 3601SOL    HW112635   3.210  11.863  13.009
 3601SOL    HW212636   3.355  11.822  13.021
 3602SOL     OW12637   1.996   7.447   4.738
 3602SOL    HW112638   1.951   7.521   4.778
 3602SOL    HW212639   2.088   7.471   4.740
 3603SOL     OW12640  11.281   1.598   0.404
 3603SOL    HW112641  11.207   1.641   0.446
 3603SOL    HW212642  11.318   1.542   0.471
 3604SOL     OW12643   9.508   0.710   4.273
 3604SOL    HW112644   9.510   0.673   4.185
 3604SOL    HW212645   9.415   0.720   4.292
 3605SOL     OW12646  13.218   8.617  13.282
 3605SOL    HW112647  13.185   8.621  13.372
 3605SOL    HW212648  13.273   8.694  13.273
 3606SOL     OW12649  12.453   9.113   8.298
 3606SOL    HW112650  12.430   9.204   8.278
 3606SOL    HW212651  12.399   9.061   8.238
 3607SOL     OW12652   8.648   8.473   1.550
 3607SOL    HW112653   8.590   8.405   1.584
 3607SOL    HW212654   8.734   8.451   1.584
 3608SOL     OW12655  11.146  13.144   0.588
 3608SOL    HW112656  11.209  13.163   0.658
 3608SOL    HW212657  11.178  13.063   0.549
 3609SOL     OW12658  13.998   3.836  13.541
 3609SOL    HW112659  13.920   3.891  13.541
 3609SOL    HW212660  14.008   3.807  13.450
 3610SOL     OW12661   9.816   2.012  14.004
 3610SOL    HW112662   9.834   2.100  13.973
 3610SOL    HW212663   9.879   1.956  13.958
 3611SOL     OW12664   3.382   8.474  14.205
 3611SOL    HW112665   3.410   8.551  14.255
 3611SOL    HW212666   3.347   8.509  14.124
 3612SOL     OW12667   1.733   3.402  11.177
 3612SOL    HW112668   1.692   3.381  11.093
 3612SOL    HW212669   1.716   3.326  11.232
 3613SOL     OW12670   1.914   4.448   4.603
 3613SOL    HW112671   1.897   4.433   4.696
 3613SOL    HW212672   1.827   4.452   4.563
 3614SOL     OW12673   4.768   6.075  13.280
 3614SOL    HW112674   4.766   6.022  13.201
 3614SOL    HW212675   4.822   6.151  13.257
 3615SOL     OW12676   2.819   4.213   2.012
 3615SOL    HW112677   2.821   4.301   1.974
 3615SOL    HW212678   2.791   4.157   1.939
 3616SOL     OW12679  10.570  12.963  14.108
 3616SOL    HW112680  10.519  13.025  14.160
 3616SOL    HW212681  10.541  12.977  14.018
 3617SOL     OW12682   2.171   5.234   3.531
 3617SOL    HW112683   2.246   5.187   3.492
 3617SOL    HW212684   2.096   5.208   3.478
 3618SOL     OW12685  14.788   3.362   1.561
 3618SOL    HW112686  14.788   3.429   1.493
 3618SOL    HW212687  14.698   3.329   1.562
 3619SOL     OW12688  10.087   5.017   1.930
 3619SOL    HW112689  10.064   5.108   1.908
 3619SOL    HW212690  10.039   4.965   1.865
 3620SOL     OW12691   8.352   5.339  13.980
 3620SOL    HW112692   8.295   5.345  14.057
 3620SOL    HW212693   8.300   5.374  13.908
 3621SOL     OW12694   7.848   2.017   1.525
 3621SOL    HW112695   7.767   1.991   1.567
 3621SOL    HW212696   7.834   1.999   1.432
 3622SOL     OW12697  12.063   1.669  13.016
 3622SOL    HW112698  12.156   1.663  13.034
 3622SOL    HW212699  12.047   1.606  12.947
 3623SOL     OW12700  14.654  10.622   3.656
 3623SOL    HW112701  14.728  10.586   3.607
 3623SOL    HW212702  14.628  10.551   3.715
 3624SOL     OW12703   8.815   3.526   4.290
 3624SOL    HW112704   8.789   3.613   4.260
 3624SOL    HW212705   8.735   3.490   4.329
 3625SOL     OW12706   9.167   8.397   8.249
 3625SOL    HW112707   9.114   8.437   8.180
 3625SOL    HW212708   9.218   8.330   8.204
 3626SOL     OW12709   2.249  14.663   7.375
 3626SOL    HW112710   2.155  14.682   7.371
 3626SOL    HW212711   2.255  14.570   7.352
 3627SOL     OW12712   9.391  14.591   1.218
 3627SOL    HW112713   9.442  14.551   1.289
 3627SOL    HW212714   9.305  14.551   1.226
 3628SOL     OW12715   2.721   1.324  11.431
 3628SOL    HW112716   2.627   1.321  11.448
 3628SOL    HW212717   2.759   1.266  11.497
 3629SOL     OW12718  10.550   6.935   1.457
 3629SOL    HW112719  10.629   6.987   1.439
 3629SOL    HW212720  10.552   6.865   1.392
 3630SOL     OW12721  13.574  14.685   2.036
 3630SOL    HW112722  13.480  14.674   2.053
 3630SOL    HW212723  13.608  14.596   2.028
 3631SOL     OW12724   5.280   6.778   1.605
 3631SOL    HW112725   5.369   6.754   1.577
 3631SOL    HW212726   5.292   6.820   1.690
 3632SOL     OW12727   4.467  10.610   0.809
 3632SOL    HW112728   4.446  10.582   0.898
 3632SOL    HW212729   4.480  10.704   0.816
 3633SOL     OW12730   8.158   1.215  13.627
 3633SOL    HW112731   8.100   1.165  13.570
 3633SOL    HW212732   8.158   1.303  13.591
 3634SOL     OW12733   4.667   4.533   3.006
 3634SOL    HW112734   4.577   4.501   2.992
 3634SOL    HW212735   4.659   4.593   3.080
 3635SOL     OW12736   4.610   1.404  12.251
 3635SOL    HW112737   4.642   1.335  12.192
 3635SOL    HW212738   4.661   1.481  12.227
 3636SOL     OW12739  12.294  13.294   5.154
 3636SOL    HW112740  12.204  13.264   5.169
 3636SOL    HW212741  12.289  13.344   5.072
 3637SOL     OW12742   3.832   5.762   8.640
 3637SOL    HW112743   3.851   5.843   8.593
 3637SOL    HW212744   3.825   5.695   8.571
 3638SOL     OW12745   8.451   9.823  13.580
 3638SOL    HW112746   8.368   9.775  13.586
 3638SOL    HW212747   8.437   9.886  13.509
 3639SOL     OW12748   4.610  12.793   6.690
 3639SOL    HW112749   4.608  12.869   6.748
 3639SOL    HW212750   4.527  12.748   6.706
 3640SOL     OW12751   8.188   9.982   2.943
 3640SOL    HW112752   8.168   9.945   3.029
 3640SOL    HW212753   8.175   9.909   2.882
 3641SOL     OW12754  11.632   9.112   3.552
 3641SOL    HW112755  11.625   9.053   3.477
 3641SOL    HW212756  11.694   9.179   3.523
 3642SOL     OW12757  13.062   0.449   3.101
 3642SOL    HW112758  13.122   0.396   3.050
 3642SOL    HW212759  13.101   0.454   3.189
 3643SOL     OW12760  14.372   3.840  13.832
 3643SOL    HW112761  14.323   3.894  13.770
 3643SOL    HW212762  14.443   3.897  13.864
 3644SOL     OW12763  12.813   5.511   6.157
 3644SOL    HW112764  12.823   5.605   6.165
 3644SOL    HW212765  12.858   5.475   6.233
 3645SOL     OW12766  10.622   2.671   1.019
 3645SOL    HW112767  10.640   2.604   1.085
 3645SOL    HW212768  10.547   2.638   0.970
 3646SOL     OW12769  14.063   7.706   3.616
 3646SOL    HW112770  14.132   7.646   3.587
 3646SOL    HW212771  14.080   7.787   3.567
 3647SOL     OW12772   2.330  10.362  13.773
 3647SOL    HW112773   2.337  10.385  13.680
 3647SOL    HW212774   2.391  10.421  13.817
 3648SOL     OW12775   0.798   8.558  11.298
 3648SOL    HW112776   0.730   8.496  11.271
 3648SOL    HW212777   0.880   8.513  11.281
 3649SOL     OW12778   7.010   4.439   5.397
 3649SOL    HW112779   7.020   4.510   5.334
 3649SOL    HW212780   6.916   4.436   5.416
 3650SOL     OW12781   6.002   0.084   0.621
 3650SOL    HW112782   5.993   0.161   0.678
 3650SOL    HW212783   5.944   0.019   0.661
 3651SOL     OW12784   2.153   8.979  12.524
 3651SOL    HW112785   2.192   8.962  12.610
 3651SOL    HW212786   2.084   8.913  12.516
 3652SOL     OW12787   7.588  12.712   6.730
 3652SOL    HW112788   7.503  12.741   6.697
 3652SOL    HW212789   7.652  12.744   6.665
 3653SOL     OW12790   8.621   5.689   1.877
 3653SOL    HW112791   8.673   5.618   1.840
 3653SOL    HW212792   8.532   5.654   1.879
 3654SOL     OW12793   4.885  13.171   6.392
 3654SOL    HW112794   4.922  13.096   6.439
 3654SOL    HW212795   4.938  13.178   6.313
 3655SOL     OW12796   4.982   9.110   7.789
 3655SOL    HW112797   5.064   9.068   7.814
 3655SOL    HW212798   4.914   9.052   7.823
 3656SOL     OW12799   3.763  11.038   6.223
 3656SOL    HW112800   3.800  11.103   6.163
 3656SOL    HW212801   3.790  10.954   6.186
 3657SOL     OW12802   4.070  10.857   7.513
 3657SOL    HW112803   4.165  10.847   7.502
 3657SOL    HW212804   4.033  10.782   7.466
 3658SOL     OW12805   9.271   3.271   5.831
 3658SOL    HW112806   9.364   3.266   5.811
 3658SOL    HW212807   9.244   3.180   5.841
 3659SOL     OW12808   2.056   4.873   0.771
 3659SOL    HW112809   2.111   4.864   0.849
 3659SOL    HW212810   2.117   4.891   0.700
 3660SOL     OW12811  11.346   8.586   4.052
 3660SOL    HW112812  11.277   8.628   4.000
 3660SOL    HW212813  11.388   8.659   4.099
 3661SOL     OW12814   6.585   9.077   8.515
 3661SOL    HW112815   6.578   9.036   8.601
 3661SOL    HW212816   6.505   9.052   8.469
 3662SOL     OW12817   8.971   7.380   8.669
 3662SOL    HW112818   8.890   7.329   8.665
 3662SOL    HW212819   8.998   7.377   8.761
 3663SOL     OW12820   7.396  14.232  14.368
 3663SOL    HW112821   7.368  14.291  14.298
 3663SOL    HW212822   7.314  14.194  14.402
 3664SOL     OW12823   5.235   7.969   4.927
 3664SOL    HW112824   5.228   7.982   4.833
 3664SOL    HW212825   5.329   7.977   4.945
 3665SOL     OW12826   5.663  11.837  10.103
 3665SOL    HW112827   5.616  11.793  10.174
 3665SOL    HW212828   5.625  11.800  10.023
 3666SOL     OW12829  14.792  12.935  10.161
 3666SOL    HW112830  14.716  12.978  10.200
 3666SOL    HW212831  14.792  12.963  10.070
 3667SOL     OW12832  13.167   7.219  14.334
 3667SOL    HW112833  13.260   7.235  14.318
 3667SOL    HW212834  13.164   7.186  14.424
 3668SOL     OW12835  10.242   5.754  12.801
 3668SOL    HW112836  10.296   5.800  12.865
 3668SOL    HW212837  10.258   5.799  12.719
 3669SOL     OW12838   5.595  13.586   7.818
 3669SOL    HW112839   5.587  13.542   7.734
 3669SOL    HW212840   5.662  13.536   7.865
 3670SOL     OW12841  10.679   8.358   0.518
 3670SOL    HW112842  10.755   8.415   0.517
 3670SOL    HW212843  10.617   8.400   0.578
 3671SOL     OW12844   5.782   9.381   6.137
 3671SOL    HW112845   5.773   9.347   6.048
 3671SOL    HW212846   5.833   9.462   6.127
 3672SOL     OW12847   3.953   1.434   7.273
 3672SOL    HW112848   4.045   1.411   7.281
 3672SOL    HW212849   3.952   1.530   7.270
 3673SOL     OW12850   5.608  14.033   2.852
 3673SOL    HW112851   5.652  14.055   2.770
 3673SOL    HW212852   5.658  14.077   2.920
 3674SOL     OW12853   1.783   8.079   5.539
 3674SOL    HW112854   1.739   8.129   5.608
 3674SOL    HW212855   1.779   8.135   5.462
 3675SOL     OW12856   4.390   3.627   2.813
 3675SOL    HW112857   4.417   3.537   2.794
 3675SOL    HW212858   4.424   3.645   2.900
 3676SOL     OW12859  12.201  13.900  12.645
 3676SOL    HW112860  12.110  13.892  12.618
 3676SOL    HW212861  12.212  13.992  12.665
 3677SOL     OW12862   9.684   4.490  11.363
 3677SOL    HW112863   9.757   4.428  11.365
 3677SOL    HW212864   9.718   4.568  11.407
 3678SOL     OW12865   9.183  13.085   3.232
 3678SOL    HW112866   9.176  13.175   3.201
 3678SOL    HW212867   9.095  13.049   3.221
 3679SOL     OW12868   6.530  13.168   6.298
 3679SOL    HW112869   6.437  13.185   6.308
 3679SOL    HW212870   6.549  13.192   6.207
 3680SOL     OW12871  10.560   6.751  13.663
 3680SOL    HW112872  10.653   6.738  13.646
 3680SOL    HW212873  10.541   6.838  13.629
 3681SOL     OW12874  13.907   1.421   1.527
 3681SOL    HW112875  13.993   1.398   1.563
 3681SOL    HW212876  13.880   1.343   1.478
 3682SOL     OW12877  10.430   0.516   3.585
 3682SOL    HW112878  10.351   0.509   3.531
 3682SOL    HW212879  10.397   0.534   3.673
 3683SOL     OW12880   8.870  10.776   6.238
 3683SOL    HW112881   8.963  10.778   6.217
 3683SOL    HW212882   8.827  10.755   6.155
 3684SOL     OW12883  13.948  10.139   2.498
 3684SOL    HW112884  13.994  10.071   2.548
 3684SOL    HW212885  13.869  10.156   2.548
 3685SOL     OW12886   4.261   3.505   2.240
 3685SOL    HW112887   4.352   3.532   2.227
 3685SOL    HW212888   4.231   3.556   2.315
 3686SOL     OW12889   7.033  10.478   7.479
 3686SOL    HW112890   6.978  10.455   7.555
 3686SOL    HW212891   7.112  10.515   7.517
 3687SOL     OW12892  14.069   1.061   5.752
 3687SOL    HW112893  14.075   0.999   5.825
 3687SOL    HW212894  14.093   1.009   5.675
 3688SOL     OW12895  13.459   7.221   8.131
 3688SOL    HW112896  13.482   7.140   8.084
 3688SOL    HW212897  13.438   7.192   8.219
 3689SOL     OW12898   8.509  12.168   4.120
 3689SOL    HW112899   8.590  12.217   4.101
 3689SOL    HW212900   8.445  12.236   4.143
 3690SOL     OW12901   8.817   4.426   1.273
 3690SOL    HW112902   8.868   4.348   1.294
 3690SOL    HW212903   8.757   4.397   1.204
 3691SOL     OW12904  10.520  13.630  13.266
 3691SOL    HW112905  10.452  13.695  13.284
 3691SOL    HW212906  10.576  13.633  13.344
 3692SOL     OW12907  10.527  14.726  13.276
 3692SOL    HW112908  10.488  14.804  13.315
 3692SOL    HW212909  10.582  14.760  13.205
 3693SOL     OW12910   6.083  10.604  10.814
 3693SOL    HW112911   6.048  10.601  10.725
 3693SOL    HW212912   6.063  10.518  10.851
 3694SOL     OW12913   5.446   1.939   9.549
 3694SOL    HW112914   5.437   2.034   9.552
 3694SOL    HW212915   5.541   1.925   9.538
 3695SOL     OW12916   4.964   6.011   7.016
 3695SOL    HW112917   4.962   6.044   6.926
 3695SOL    HW212918   5.027   5.939   7.013
 3696SOL     OW12919  14.169  11.545   9.641
 3696SOL    HW112920  14.252  11.579   9.673
 3696SOL    HW212921  14.104  11.573   9.706
 3697SOL     OW12922   9.064  13.582  13.586
 3697SOL    HW112923   9.009  13.517  13.631
 3697SOL    HW212924   9.024  13.591  13.499
 3698SOL     OW12925  10.878  13.999   7.756
 3698SOL    HW112926  10.968  13.976   7.779
 3698SOL    HW212927  10.861  14.080   7.803
 3699SOL     OW12928   4.885  14.163  12.063
 3699SOL    HW112929   4.974  14.198  12.057
 3699SOL    HW212930   4.849  14.175  11.975
 3700SOL     OW12931   4.758  10.303   1.373
 3700SOL    HW112932   4.777  10.392   1.341
 3700SOL    HW212933   4.840  10.274   1.411
 3701SOL     OW12934   1.957   9.995  11.871
 3701SOL    HW112935   1.922  10.015  11.785
 3701SOL    HW212936   1.892   9.935  11.909
 3702SOL     OW12937   2.423   3.593   6.351
 3702SOL    HW112938   2.498   3.575   6.295
 3702SOL    HW212939   2.433   3.533   6.425
 3703SOL     OW12940   7.282  10.748   4.841
 3703SOL    HW112941   7.241  10.742   4.754
 3703SOL    HW212942   7.353  10.810   4.829
 3704SOL     OW12943   5.609   5.086   5.162
 3704SOL    HW112944   5.657   5.138   5.098
 3704SOL    HW212945   5.672   5.071   5.232
 3705SOL     OW12946  14.730   3.403   7.129
 3705SOL    HW112947  14.639   3.402   7.100
 3705SOL    HW212948  14.730   3.455   7.209
 3706SOL     OW12949  10.704   6.421   3.755
 3706SOL    HW112950  10.748   6.496   3.795
 3706SOL    HW212951  10.696   6.357   3.826
 3707SOL     OW12952   4.551   2.323   5.605
 3707SOL    HW112953   4.495   2.252   5.637
 3707SOL    HW212954   4.624   2.279   5.563
 3708SOL     OW12955   1.592   6.044   8.170
 3708SOL    HW112956   1.646   5.965   8.175
 3708SOL    HW212957   1.583   6.061   8.076
 3709SOL     OW12958   8.359   0.844   8.766
 3709SOL    HW112959   8.413   0.915   8.732
 3709SOL    HW212960   8.397   0.764   8.728
 3710SOL     OW12961  10.257  10.997   0.541
 3710SOL    HW112962  10.196  11.050   0.592
 3710SOL    HW212963  10.210  10.916   0.524
 3711SOL     OW12964  13.507  13.730   8.276
 3711SOL    HW112965  13.551  13.716   8.192
 3711SOL    HW212966  13.446  13.802   8.259
 3712SOL     OW12967   9.935   3.768   7.065
 3712SOL    HW112968   9.959   3.776   6.973
 3712SOL    HW212969   9.912   3.676   7.076
 3713SOL     OW12970  11.483   6.232   1.091
 3713SOL    HW112971  11.431   6.297   1.044
 3713SOL    HW212972  11.428   6.153   1.091
 3714SOL     OW12973   1.895   7.447   6.677
 3714SOL    HW112974   1.960   7.485   6.618
 3714SOL    HW212975   1.823   7.422   6.619
 3715SOL     OW12976   0.748   3.881  10.490
 3715SOL    HW112977   0.764   3.834  10.408
 3715SOL    HW212978   0.763   3.973  10.467
 3716SOL     OW12979   6.356   3.874   6.747
 3716SOL    HW112980   6.267   3.841   6.760
 3716SOL    HW212981   6.346   3.968   6.732
 3717SOL     OW12982  12.291   3.609   7.930
 3717SOL    HW112983  12.224   3.541   7.935
 3717SOL    HW212984  12.374   3.562   7.938
 3718SOL     OW12985  12.197  13.246  14.266
 3718SOL    HW112986  12.211  13.167  14.317
 3718SOL    HW212987  12.280  13.262  14.221
 3719SOL     OW12988   2.623   0.263   6.106
 3719SOL    HW112989   2.622   0.345   6.156
 3719SOL    HW212990   2.625   0.195   6.173
 3720SOL     OW12991   5.728   0.646  11.065
 3720SOL    HW112992   5.820   0.666  11.078
 3720SOL    HW212993   5.686   0.731  11.055
 3721SOL     OW12994  10.753   2.355   2.330
 3721SOL    HW112995  10.796   2.297   2.394
 3721SOL    HW212996  10.745   2.439   2.375
 3722SOL     OW12997  14.354   3.195   6.596
 3722SOL    HW112998  14.422   3.141   6.556
 3722SOL    HW212999  14.287   3.133   6.625
 3723SOL     OW13000   0.128   5.129   0.628
 3723SOL    HW113001   0.049   5.114   0.679
 3723SOL    HW213002   0.115   5.078   0.548
 3724SOL     OW13003   5.410  11.971   1.023
 3724SOL    HW113004   5.481  11.928   0.975
 3724SOL    HW213005   5.354  12.009   0.955
 3725SOL     OW13006   8.282   1.751   0.724
 3725SOL    HW113007   8.205   1.695   0.712
 3725SOL    HW213008   8.262   1.805   0.800
 3726SOL     OW13009   0.147   3.547  14.679
 3726SOL    HW113010   0.149   3.510  14.768
 3726SOL    HW213011   0.134   3.641  14.693
 3727SOL     OW13012   6.563   4.679  11.194
 3727SOL    HW113013   6.626   4.743  11.162
 3727SOL    HW213014   6.478   4.713  11.167
 3728SOL     OW13015   4.833   8.096   1.794
 3728SOL    HW113016   4.808   8.046   1.717
 3728SOL    HW213017   4.919   8.133   1.772
 3729SOL     OW13018   1.295   6.992  14.520
 3729SOL    HW113019   1.336   6.978  14.604
 3729SOL    HW213020   1.362   7.034  14.466
 3730SOL     OW13021   5.962  13.174   0.957
 3730SOL    HW113022   5.944  13.175   1.051
 3730SOL    HW213023   5.875  13.163   0.917
 3731SOL     OW13024   9.499  10.279  13.782
 3731SOL    HW113025   9.542  10.206  13.825
 3731SOL    HW213026   9.528  10.357  13.831
 3732SOL     OW13027   8.311   9.459   0.871
 3732SOL    HW113028   8.290   9.387   0.811
 3732SOL    HW213029   8.241   9.457   0.936
 3733SOL     OW13030  11.639   9.072   8.634
 3733SOL    HW113031  11.730   9.098   8.650
 3733SOL    HW213032  11.603   9.056   8.721
 3734SOL     OW13033  12.115   8.294   0.488
 3734SOL    HW113034  12.170   8.216   0.482
 3734SOL    HW213035  12.028   8.261   0.511
 3735SOL     OW13036   3.312   8.570  11.273
 3735SOL    HW113037   3.288   8.501  11.211
 3735SOL    HW213038   3.228   8.608  11.299
 3736SOL     OW13039   2.133   7.966   5.368
 3736SOL    HW113040   2.082   7.996   5.292
 3736SOL    HW213041   2.108   7.874   5.377
 3737SOL     OW13042  12.488   4.764  12.460
 3737SOL    HW113043  12.448   4.719  12.535
 3737SOL    HW213044  12.565   4.711  12.440
 3738SOL     OW13045   5.331   8.820  10.099
 3738SOL    HW113046   5.351   8.744  10.044
 3738SOL    HW213047   5.334   8.786  10.189
 3739SOL     OW13048  11.495   0.093  11.479
 3739SOL    HW113049  11.492   0.021  11.543
 3739SOL    HW213050  11.586   0.124  11.482
 3740SOL     OW13051   1.244  11.355  11.531
 3740SOL    HW113052   1.187  11.284  11.500
 3740SOL    HW213053   1.207  11.434  11.492
 3741SOL     OW13054  11.246  10.581  12.078
 3741SOL    HW113055  11.269  10.555  11.989
 3741SOL    HW213056  11.166  10.532  12.098
 3742SOL     OW13057   7.910   8.874   4.975
 3742SOL    HW113058   7.928   8.823   4.897
 3742SOL    HW213059   7.908   8.810   5.046
 3743SOL     OW13060   3.998   5.702   4.341
 3743SOL    HW113061   4.021   5.779   4.289
 3743SOL    HW213062   3.907   5.716   4.366
 3744SOL     OW13063  13.931   5.909   0.804
 3744SOL    HW113064  13.899   5.989   0.762
 3744SOL    HW213065  14.025   5.924   0.816
 3745SOL     OW13066   4.699   2.853   5.083
 3745SOL    HW113067   4.658   2.826   5.165
 3745SOL    HW213068   4.646   2.811   5.015
 3746SOL     OW13069   7.435   5.580  10.037
 3746SOL    HW113070   7.528   5.556  10.037
 3746SOL    HW213071   7.435   5.675  10.044
 3747SOL     OW13072   9.051   5.415  10.805
 3747SOL    HW113073   9.108   5.456  10.871
 3747SOL    HW213074   9.034   5.485  10.742
 3748SOL     OW13075   4.335   3.269   1.351
 3748SOL    HW113076   4.243   3.296   1.355
 3748SOL    HW213077   4.356   3.246   1.441
 3749SOL     OW13078   5.942  13.548   6.409
 3749SOL    HW113079   5.883  13.501   6.468
 3749SOL    HW213080   5.907  13.533   6.322
 3750SOL     OW13081  13.285   3.039   6.763
 3750SOL    HW113082  13.206   3.080   6.797
 3750SOL    HW213083  13.355   3.069   6.821
 3751SOL     OW13084   3.199   1.713  10.809
 3751SOL    HW113085   3.168   1.631  10.847
 3751SOL    HW213086   3.122   1.753  10.770
 3752SOL     OW13087  13.501   1.625   3.204
 3752SOL    HW113088  13.450   1.555   3.244
 3752SOL    HW213089  13.589   1.589   3.195
 3753SOL     OW13090   9.859   4.574   4.526
 3753SOL    HW113091   9.866   4.633   4.601
 3753SOL    HW213092   9.765   4.564   4.512
 3754SOL     OW13093   2.707   4.364   5.021
 3754SOL    HW113094   2.617   4.352   4.991
 3754SOL    HW213095   2.701   4.429   5.091
 3755SOL     OW13096   9.292  11.344   4.161
 3755SOL    HW113097   9.381  11.371   4.138
 3755SOL    HW213098   9.252  11.423   4.198
 3756SOL     OW13099  10.964   5.983  12.672
 3756SOL    HW113100  10.929   5.937  12.748
 3756SOL    HW213101  10.987   6.070  12.706
 3757SOL     OW13102   5.401   8.102  13.573
 3757SOL    HW113103   5.435   8.015  13.554
 3757SOL    HW213104   5.395   8.145  13.488
 3758SOL     OW13105   3.330   3.451   9.023
 3758SOL    HW113106   3.373   3.398   9.090
 3758SOL    HW213107   3.370   3.424   8.941
 3759SOL     OW13108   9.525  13.899   1.303
 3759SOL    HW113109   9.478  13.890   1.386
 3759SOL    HW213110   9.470  13.956   1.250
 3760SOL     OW13111   4.708   8.360   9.255
 3760SOL    HW113112   4.683   8.277   9.213
 3760SOL    HW213113   4.777   8.394   9.198
 3761SOL     OW13114   2.758  11.095   9.807
 3761SOL    HW113115   2.697  11.115   9.878
 3761SOL    HW213116   2.845  11.103   9.846
 3762SOL     OW13117   6.884   6.027  11.056
 3762SOL    HW113118   6.902   6.007  10.965
 3762SOL    HW213119   6.964   6.067  11.089
 3763SOL     OW13120   2.892   1.363   1.850
 3763SOL    HW113121   2.974   1.358   1.899
 3763SOL    HW213122   2.918   1.390   1.762
 3764SOL     OW13123  12.317  10.030  10.988
 3764SOL    HW113124  12.283   9.961  11.045
 3764SOL    HW213125  12.293  10.111  11.032
 3765SOL     OW13126   1.956   9.099   8.913
 3765SOL    HW113127   2.025   9.042   8.879
 3765SOL    HW213128   2.001   9.158   8.973
 3766SOL     OW13129  13.099   0.878   4.235
 3766SOL    HW113130  13.171   0.941   4.236
 3766SOL    HW213131  13.024   0.928   4.203
 3767SOL     OW13132  11.183   8.415   6.204
 3767SOL    HW113133  11.269   8.442   6.237
 3767SOL    HW213134  11.121   8.473   6.248
 3768SOL     OW13135   0.340   1.824   6.216
 3768SOL    HW113136   0.328   1.862   6.129
 3768SOL    HW213137   0.435   1.824   6.230
 3769SOL     OW13138   4.492  12.589  12.523
 3769SOL    HW113139   4.409  12.541  12.524
 3769SOL    HW213140   4.526  12.578  12.612
 3770SOL     OW13141   0.849   5.753   9.273
 3770SOL    HW113142   0.864   5.740   9.367
 3770SOL    HW213143   0.755   5.741   9.262
 3771SOL     OW13144   5.389  10.799   2.175
 3771SOL    HW113145   5.338  10.736   2.125
 3771SOL    HW213146   5.324  10.854   2.217
 3772SOL     OW13147   2.308   5.333  14.131
 3772SOL    HW113148   2.372   5.398  14.104
 3772SOL    HW213149   2.271   5.367  14.212
 3773SOL     OW13150   1.377   9.065   5.134
 3773SOL    HW113151   1.346   9.022   5.215
 3773SOL    HW213152   1.464   9.028   5.120
 3774SOL     OW13153   8.666  10.274   3.773
 3774SOL    HW113154   8.724  10.286   3.698
 3774SOL    HW213155   8.722  10.288   3.850
 3775SOL     OW13156   5.277   0.616   5.675
 3775SOL    HW113157   5.345   0.677   5.702
 3775SOL    HW213158   5.323   0.534   5.658
 3776SOL     OW13159   1.107   0.598   0.996
 3776SOL    HW113160   1.170   0.574   0.927
 3776SOL    HW213161   1.127   0.538   1.068
 3777SOL     OW13162   6.089  11.350   6.224
 3777SOL    HW113163   6.070  11.291   6.151
 3777SOL    HW213164   6.004  11.364   6.266
 3778SOL     OW13165  12.949   8.045   2.245
 3778SOL    HW113166  12.916   8.040   2.155
 3778SOL    HW213167  12.995   7.962   2.258
 3779SOL     OW13168  14.024  10.815  13.581
 3779SOL    HW113169  14.070  10.862  13.650
 3779SOL    HW213170  13.970  10.750  13.626
 3780SOL     OW13171   8.486   7.476  10.970
 3780SOL    HW113172   8.528   7.390  10.970
 3780SOL    HW213173   8.543   7.530  11.023
 3781SOL     OW13174   2.171   4.718  13.267
 3781SOL    HW113175   2.258   4.681  13.279
 3781SOL    HW213176   2.170   4.749  13.177
 3782SOL     OW13177  12.121   0.040   2.897
 3782SOL    HW113178  12.119   0.047   2.992
 3782SOL    HW213179  12.214   0.045   2.875
 3783SOL     OW13180  12.212   9.850  11.189
 3783SOL    HW113181  12.181   9.785  11.126
 3783SOL    HW213182  12.280   9.804  11.239
 3784SOL     OW13183   4.570   5.261   9.291
 3784SOL    HW113184   4.496   5.200   9.298
 3784SOL    HW213185   4.578   5.277   9.197
 3785SOL     OW13186  14.399   0.142   1.499
 3785SOL    HW113187  14.448   0.062   1.515
 3785SOL    HW213188  14.415   0.197   1.575
 3786SOL     OW13189   1.763  13.730   9.362
 3786SOL    HW113190   1.767  13.681   9.444
 3786SOL    HW213191   1.825  13.802   9.375
 3787SOL     OW13192  14.194   1.028  13.174
 3787SOL    HW113193  14.165   1.064  13.090
 3787SOL    HW213194  14.180   1.099  13.237
 3788SOL     OW13195   4.098   5.048   6.260
 3788SOL    HW113196   4.092   5.083   6.171
 3788SOL    HW213197   4.090   5.125   6.317
 3789SOL     OW13198   7.576   2.539  12.879
 3789SOL    HW113199   7.489   2.519  12.846
 3789SOL    HW213200   7.636   2.505  12.812
 3790SOL     OW13201   5.643   9.726   2.559
 3790SOL    HW113202   5.679   9.773   2.634
 3790SOL    HW213203   5.702   9.746   2.487
 3791SOL     OW13204   8.121   6.046   4.924
 3791SOL    HW113205   8.150   6.076   4.837
 3791SOL    HW213206   8.029   6.023   4.911
 3792SOL     OW13207   9.783  10.725  14.060
 3792SOL    HW113208   9.839  10.650  14.078
 3792SOL    HW213209   9.797  10.784  14.135
 3793SOL     OW13210  14.162  11.530   5.628
 3793SOL    HW113211  14.228  11.516   5.560
 3793SOL    HW213212  14.176  11.460   5.691
 3794SOL     OW13213   5.275   7.078   2.714
 3794SOL    HW113214   5.321   7.162   2.721
 3794SOL    HW213215   5.316   7.022   2.779
 3795SOL     OW13216   0.390   5.437   5.364
 3795SOL    HW113217   0.298   5.418   5.383
 3795SOL    HW213218   0.389   5.477   5.277
 3796SOL     OW13219   6.732   1.810   4.809
 3796SOL    HW113220   6.710   1.756   4.734
 3796SOL    HW213221   6.806   1.864   4.779
 3797SOL     OW13222   6.230   6.497  12.562
 3797SOL    HW113223   6.196   6.415  12.526
 3797SOL    HW213224   6.277   6.471  12.642
 3798SOL     OW13225   7.069   1.806   4.138
 3798SOL    HW113226   6.977   1.819   4.116
 3798SOL    HW213227   7.068   1.790   4.233
 3799SOL     OW13228  13.950  13.647  12.503
 3799SOL    HW113229  14.005  13.631  12.427
 3799SOL    HW213230  13.873  13.592  12.488
 3800SOL     OW13231   0.494   4.877   0.712
 3800SOL    HW113232   0.443   4.929   0.650
 3800SOL    HW213233   0.576   4.858   0.666
 3801SOL     OW13234   1.792  10.004   1.903
 3801SOL    HW113235   1.702  10.031   1.887
 3801SOL    HW213236   1.811  10.032   1.992
 3802SOL     OW13237   6.946   9.922  13.489
 3802SOL    HW113238   7.039   9.910  13.470
 3802SOL    HW213239   6.927   9.859  13.558
 3803SOL     OW13240  11.981   1.681   2.224
 3803SOL    HW113241  11.997   1.774   2.238
 3803SOL    HW213242  11.972   1.672   2.129
 3804SOL     OW13243   8.798   6.680   7.255
 3804SOL    HW113244   8.829   6.766   7.282
 3804SOL    HW213245   8.876   6.624   7.258
 3805SOL     OW13246  12.230  13.096  11.980
 3805SOL    HW113247  12.136  13.102  11.959
 3805SOL    HW213248  12.232  13.091  12.075
 3806SOL     OW13249   6.183  14.276   6.360
 3806SOL    HW113250   6.229  14.193   6.350
 3806SOL    HW213251   6.090  14.254   6.352
 3807SOL     OW13252   7.048   7.303   2.017
 3807SOL    HW113253   6.963   7.280   1.980
 3807SOL    HW213254   7.111   7.250   1.967
 3808SOL     OW13255   6.357  13.502   4.107
 3808SOL    HW113256   6.351  13.406   4.103
 3808SOL    HW213257   6.419  13.525   4.038
 3809SOL     OW13258  10.070  13.306   9.413
 3809SOL    HW113259  10.086  13.365   9.340
 3809SOL    HW213260  10.143  13.243   9.409
 3810SOL     OW13261  13.060  11.486   1.296
 3810SOL    HW113262  12.978  11.460   1.338
 3810SOL    HW213263  13.113  11.521   1.368
 3811SOL     OW13264   4.921  13.043   8.223
 3811SOL    HW113265   4.936  13.034   8.129
 3811SOL    HW213266   4.861  12.971   8.245
 3812SOL     OW13267   4.925   8.488   3.146
 3812SOL    HW113268   4.979   8.417   3.181
 3812SOL    HW213269   4.945   8.564   3.202
 3813SOL     OW13270   4.139  10.640  11.864
 3813SOL    HW113271   4.213  10.700  11.854
 3813SOL    HW213272   4.146  10.580  11.790
 3814SOL     OW13273   5.500   7.831  11.871
 3814SOL    HW113274   5.569   7.843  11.936
 3814SOL    HW213275   5.541   7.776  11.804
 3815SOL     OW13276   1.771   3.297   1.383
 3815SOL    HW113277   1.734   3.315   1.296
 3815SOL    HW213278   1.850   3.246   1.366
 3816SOL     OW13279   5.535   3.895  10.661
 3816SOL    HW113280   5.516   3.922  10.750
 3816SOL    HW213281   5.516   3.801  10.660
 3817SOL     OW13282  11.546  13.306  11.838
 3817SOL    HW113283  11.472  13.259  11.800
 3817SOL    HW213284  11.510  13.346  11.917
 3818SOL     OW13285  13.894  14.849   8.507
 3818SOL    HW113286  13.824  14.784   8.511
 3818SOL    HW213287  13.888   0.013   8.418
 3819SOL     OW13288  13.285   3.819   7.189
 3819SOL    HW113289  13.245   3.838   7.274
 3819SOL    HW213290  13.211   3.817   7.128
 3820SOL     OW13291   9.566   3.697   0.570
 3820SOL    HW113292   9.517   3.709   0.651
 3820SOL    HW213293   9.500   3.668   0.506
 3821SOL     OW13294  14.272   8.308   4.669
 3821SOL    HW113295  14.272   8.270   4.757
 3821SOL    HW213296  14.292   8.234   4.611
 3822SOL     OW13297   8.622   3.221   0.227
 3822SOL    HW113298   8.691   3.279   0.196
 3822SOL    HW213299   8.543   3.250   0.181
 3823SOL     OW13300   6.148  12.008   5.783
 3823SOL    HW113301   6.199  12.049   5.714
 3823SOL    HW213302   6.161  12.063   5.860
 3824SOL     OW13303   2.435   1.968   6.372
 3824SOL    HW113304   2.526   1.946   6.353
 3824SOL    HW213305   2.426   2.059   6.346
 3825SOL     OW13306  12.567   4.142  14.569
 3825SOL    HW113307  12.599   4.183  14.649
 3825SOL    HW213308  12.571   4.211  14.503
 3826SOL     OW13309  14.274  11.485   0.010
 3826SOL    HW113310  14.322  11.449   0.085
 3826SOL    HW213311  14.183  11.458   0.025
 3827SOL     OW13312   1.788   9.098   1.327
 3827SOL    HW113313   1.709   9.146   1.354
 3827SOL    HW213314   1.758   9.034   1.264
 3828SOL     OW13315   0.790  12.714   7.389
 3828SOL    HW113316   0.720  12.757   7.438
 3828SOL    HW213317   0.777  12.621   7.404
 3829SOL     OW13318  14.375   1.329   0.659
 3829SOL    HW113319  14.429   1.349   0.736
 3829SOL    HW213320  14.294   1.293   0.695
 3830SOL     OW13321  13.026  14.200   3.331
 3830SOL    HW113322  12.940  14.215   3.291
 3830SOL    HW213323  13.030  14.105   3.343
 3831SOL     OW13324  14.024   8.622   6.891
 3831SOL    HW113325  13.943   8.662   6.858
 3831SOL    HW213326  13.998   8.577   6.971
 3832SOL     OW13327   5.678   4.811  12.448
 3832SOL    HW113328   5.724   4.893  12.465
 3832SOL    HW213329   5.692   4.795  12.354
 3833SOL     OW13330  11.708   7.585  11.246
 3833SOL    HW113331  11.650   7.523  11.202
 3833SOL    HW213332  11.700   7.564  11.339
 3834SOL     OW13333  12.351   0.512   2.840
 3834SOL    HW113334  12.388   0.595   2.872
 3834SOL    HW213335  12.425   0.451   2.840
 3835SOL     OW13336  14.128   5.666  13.047
 3835SOL    HW113337  14.214   5.670  13.006
 3835SOL    HW213338  14.141   5.611  13.124
 3836SOL     OW13339  12.482   9.278  13.974
 3836SOL    HW113340  12.539   9.230  13.913
 3836SOL    HW213341  12.473   9.365  13.935
 3837SOL     OW13342   2.301   9.329   5.487
 3837SOL    HW113343   2.391   9.306   5.465
 3837SOL    HW213344   2.265   9.366   5.407
 3838SOL     OW13345   2.501  10.800   2.222
 3838SOL    HW113346   2.521  10.800   2.128
 3838SOL    HW213347   2.520  10.711   2.251
 3839SOL     OW13348   8.433   2.354   2.766
 3839SOL    HW113349   8.485   2.327   2.691
 3839SOL    HW213350   8.489   2.334   2.842
 3840SOL     OW13351   7.028  11.477  14.846
 3840SOL    HW113352   6.933  11.470  14.845
 3840SOL    HW213353   7.046  11.564   0.010
 3841SOL     OW13354   3.977   9.836   3.208
 3841SOL    HW113355   4.063   9.826   3.167
 3841SOL    HW213356   3.995   9.882   3.290
 3842SOL     OW13357  12.413  11.136   6.147
 3842SOL    HW113358  12.372  11.116   6.231
 3842SOL    HW213359  12.506  11.147   6.167
 3843SOL     OW13360   8.809   1.630   3.664
 3843SOL    HW113361   8.901   1.642   3.641
 3843SOL    HW213362   8.762   1.689   3.605
 3844SOL     OW13363  12.567   1.928   6.402
 3844SOL    HW113364  12.578   1.836   6.380
 3844SOL    HW213365  12.578   1.932   6.497
 3845SOL     OW13366   2.825  11.344  11.691
 3845SOL    HW113367   2.827  11.418  11.752
 3845SOL    HW213368   2.835  11.267  11.746
 3846SOL     OW13369   4.496  13.900   8.481
 3846SOL    HW113370   4.464  13.931   8.566
 3846SOL    HW213371   4.534  13.978   8.440
 3847SOL     OW13372   3.226   1.084   3.510
 3847SOL    HW113373   3.315   1.071   3.476
 3847SOL    HW213374   3.231   1.168   3.557
 3848SOL     OW13375   5.602   2.117   6.743
 3848SOL    HW113376   5.619   2.042   6.800
 3848SOL    HW213377   5.631   2.193   6.794
 3849SOL     OW13378   8.420  12.653  10.654
 3849SOL    HW113379   8.352  12.686  10.596
 3849SOL    HW213380   8.420  12.714  10.728
 3850SOL     OW13381   6.379  14.248  11.667
 3850SOL    HW113382   6.432  14.238  11.588
 3850SOL    HW213383   6.408  14.332  11.704
 3851SOL     OW13384   9.252  10.282   8.331
 3851SOL    HW113385   9.263  10.197   8.374
 3851SOL    HW213386   9.297  10.344   8.388
 3852SOL     OW13387   4.177   2.333   2.245
 3852SOL    HW113388   4.182   2.326   2.150
 3852SOL    HW213389   4.088   2.363   2.262
 3853SOL     OW13390  13.887   8.099   5.720
 3853SOL    HW113391  13.827   8.096   5.646
 3853SOL    HW213392  13.897   8.193   5.739
 3854SOL     OW13393  11.099   1.511   3.590
 3854SOL    HW113394  11.130   1.498   3.679
 3854SOL    HW213395  11.176   1.541   3.541
 3855SOL     OW13396   1.644   7.633  10.087
 3855SOL    HW113397   1.653   7.613  10.180
 3855SOL    HW213398   1.549   7.633  10.071
 3856SOL     OW13399   9.252   0.224   3.925
 3856SOL    HW113400   9.343   0.226   3.894
 3856SOL    HW213401   9.206   0.284   3.866
 3857SOL     OW13402  13.329   5.510  10.495
 3857SOL    HW113403  13.396   5.566  10.455
 3857SOL    HW213404  13.247   5.535  10.452
 3858SOL     OW13405   4.520   0.867   8.686
 3858SOL    HW113406   4.504   0.947   8.736
 3858SOL    HW213407   4.553   0.898   8.601
 3859SOL     OW13408   6.694  13.326  10.295
 3859SOL    HW113409   6.693  13.381  10.217
 3859SOL    HW213410   6.622  13.264  10.283
 3860SOL     OW13411   3.342   6.558  13.928
 3860SOL    HW113412   3.270   6.617  13.950
 3860SOL    HW213413   3.417   6.616  13.912
 3861SOL     OW13414   1.806   2.683   7.818
 3861SOL    HW113415   1.879   2.745   7.814
 3861SOL    HW213416   1.775   2.677   7.728
 3862SOL     OW13417  14.571   9.675  10.448
 3862SOL    HW113418  14.590   9.596  10.398
 3862SOL    HW213419  14.614   9.746  10.399
 3863SOL     OW13420  11.200   0.417  12.128
 3863SOL    HW113421  11.204   0.457  12.041
 3863SOL    HW213422  11.227   0.326  12.114
 3864SOL     OW13423  13.639   5.221  11.111
 3864SOL    HW113424  13.587   5.213  11.190
 3864SOL    HW213425  13.580   5.259  11.046
 3865SOL     OW13426   9.566   8.812   2.989
 3865SOL    HW113427   9.504   8.741   2.973
 3865SOL    HW213428   9.638   8.771   3.037
 3866SOL     OW13429  14.105   9.523   3.341
 3866SOL    HW113430  14.079   9.581   3.413
 3866SOL    HW213431  14.109   9.436   3.381
 3867SOL     OW13432   5.705   7.336   1.355
 3867SOL    HW113433   5.709   7.369   1.445
 3867SOL    HW213434   5.650   7.258   1.361
 3868SOL     OW13435   6.350  10.070   7.983
 3868SOL    HW113436   6.302  10.111   7.911
 3868SOL    HW213437   6.304   9.988   7.999
 3869SOL     OW13438   1.738  10.931  11.635
 3869SOL    HW113439   1.677  10.916  11.707
 3869SOL    HW213440   1.697  10.888  11.560
 3870SOL     OW13441   9.077   0.082   9.427
 3870SOL    HW113442   9.169   0.106   9.414
 3870SOL    HW213443   9.080  14.865   9.462
 3871SOL     OW13444  12.675  11.699  11.153
 3871SOL    HW113445  12.616  11.677  11.081
 3871SOL    HW213446  12.701  11.789  11.136
 3872SOL     OW13447   5.325   3.823  12.162
 3872SOL    HW113448   5.378   3.884  12.111
 3872SOL    HW213449   5.249   3.805  12.107
 3873SOL     OW13450   8.303  11.222  14.300
 3873SOL    HW113451   8.208  11.213  14.303
 3873SOL    HW213452   8.332  11.151  14.243
 3874SOL     OW13453   4.012   5.334   3.479
 3874SOL    HW113454   4.028   5.302   3.390
 3874SOL    HW213455   3.936   5.284   3.509
 3875SOL     OW13456   7.866   8.527   5.360
 3875SOL    HW113457   7.778   8.513   5.326
 3875SOL    HW213458   7.891   8.443   5.398
 3876SOL     OW13459  11.867   7.921   0.492
 3876SOL    HW113460  11.801   7.979   0.456
 3876SOL    HW213461  11.931   7.909   0.421
 3877SOL     OW13462   3.004  11.449  13.839
 3877SOL    HW113463   2.916  11.471  13.868
 3877SOL    HW213464   3.009  11.481  13.749
 3878SOL     OW13465   1.123   8.495  14.507
 3878SOL    HW113466   1.125   8.590  14.498
 3878SOL    HW213467   1.198   8.464  14.457
 3879SOL     OW13468   1.014  11.625   1.868
 3879SOL    HW113469   1.084  11.613   1.932
 3879SOL    HW213470   1.041  11.573   1.793
 3880SOL     OW13471  12.873   3.487   6.080
 3880SOL    HW113472  12.890   3.558   6.018
 3880SOL    HW213473  12.892   3.407   6.031
 3881SOL     OW13474  14.406  13.757   4.776
 3881SOL    HW113475  14.401  13.705   4.856
 3881SOL    HW213476  14.442  13.841   4.805
 3882SOL     OW13477  12.771  12.335   4.610
 3882SOL    HW113478  12.688  12.287   4.618
 3882SOL    HW213479  12.771  12.394   4.686
 3883SOL     OW13480  13.919   0.849   5.030
 3883SOL    HW113481  13.835   0.878   4.993
 3883SOL    HW213482  13.898   0.768   5.076
 3884SOL     OW13483  13.910   3.360  13.178
 3884SOL    HW113484  13.964   3.437  13.160
 3884SOL    HW213485  13.872   3.337  13.093
 3885SOL     OW13486   6.282  14.096   7.089
 3885SOL    HW113487   6.231  14.131   7.162
 3885SOL    HW213488   6.226  14.028   7.051
 3886SOL     OW13489  12.662  12.527   1.465
 3886SOL    HW113490  12.633  12.613   1.494
 3886SOL    HW213491  12.633  12.467   1.534
 3887SOL     OW13492   8.036  11.206   2.931
 3887SOL    HW113493   8.014  11.130   2.878
 3887SOL    HW213494   7.973  11.273   2.904
 3888SOL     OW13495   6.942  10.674   0.622
 3888SOL    HW113496   7.004  10.690   0.550
 3888SOL    HW213497   6.943  10.754   0.673
 3889SOL     OW13498   7.087   2.562   2.722
 3889SOL    HW113499   7.167   2.556   2.775
 3889SOL    HW213500   7.043   2.479   2.735
 3890SOL     OW13501   6.709   8.545   2.167
 3890SOL    HW113502   6.687   8.525   2.258
 3890SOL    HW213503   6.799   8.515   2.157
 3891SOL     OW13504   4.373   5.183   5.712
 3891SOL    HW113505   4.429   5.255   5.740
 3891SOL    HW213506   4.432   5.122   5.668
 3892SOL     OW13507  14.097  13.445   5.508
 3892SOL    HW113508  14.053  13.504   5.568
 3892SOL    HW213509  14.027  13.390   5.472
 3893SOL     OW13510  10.347   9.331  10.245
 3893SOL    HW113511  10.327   9.282  10.324
 3893SOL    HW213512  10.426   9.289  10.210
 3894SOL     OW13513   4.559   2.315   2.853
 3894SOL    HW113514   4.496   2.367   2.905
 3894SOL    HW213515   4.636   2.371   2.847
 3895SOL     OW13516   3.189   4.455   3.399
 3895SOL    HW113517   3.148   4.385   3.349
 3895SOL    HW213518   3.243   4.410   3.464
 3896SOL     OW13519   9.106   5.963   8.341
 3896SOL    HW113520   9.156   6.036   8.378
 3896SOL    HW213521   9.159   5.933   8.268
 3897SOL     OW13522   2.699  13.037  11.910
 3897SOL    HW113523   2.626  13.069  11.963
 3897SOL    HW213524   2.775  13.041  11.968
 3898SOL     OW13525  11.995  10.780   7.763
 3898SOL    HW113526  11.912  10.748   7.799
 3898SOL    HW213527  12.057  10.773   7.836
 3899SOL     OW13528  12.656   7.580  13.086
 3899SOL    HW113529  12.692   7.542  13.006
 3899SOL    HW213530  12.591   7.517  13.115
 3900SOL     OW13531   3.971  14.038  14.821
 3900SOL    HW113532   4.015  14.106  14.769
 3900SOL    HW213533   3.889  14.021  14.774
 3901SOL     OW13534  14.186   9.595   8.779
 3901SOL    HW113535  14.226   9.599   8.865
 3901SOL    HW213536  14.117   9.530   8.788
 3902SOL     OW13537  11.225   1.198   4.349
 3902SOL    HW113538  11.258   1.175   4.262
 3902SOL    HW213539  11.274   1.277   4.373
 3903SOL     OW13540  10.781  13.012  10.759
 3903SOL    HW113541  10.736  13.094  10.779
 3903SOL    HW213542  10.818  12.984  10.842
 3904SOL     OW13543  11.229   2.341   0.577
 3904SOL    HW113544  11.228   2.252   0.543
 3904SOL    HW213545  11.141   2.355   0.610
 3905SOL     OW13546  12.016  12.357   6.722
 3905SOL    HW113547  11.981  12.441   6.749
 3905SOL    HW213548  12.111  12.371   6.716
 3906SOL     OW13549  13.409   1.738  13.924
 3906SOL    HW113550  13.341   1.793  13.965
 3906SOL    HW213551  13.403   1.654  13.970
 3907SOL     OW13552   4.441  10.811  10.925
 3907SOL    HW113553   4.441  10.894  10.974
 3907SOL    HW213554   4.525  10.771  10.947
 3908SOL     OW13555   4.521   3.014   0.961
 3908SOL    HW113556   4.426   3.027   0.967
 3908SOL    HW213557   4.554   3.035   1.048
 3909SOL     OW13558   9.752   4.253  10.568
 3909SOL    HW113559   9.720   4.300  10.491
 3909SOL    HW213560   9.821   4.309  10.603
 3910SOL     OW13561   3.571  12.339  14.306
 3910SOL    HW113562   3.480  12.368  14.299
 3910SOL    HW213563   3.622  12.409  14.266
 3911SOL     OW13564  11.099  10.349  10.304
 3911SOL    HW113565  11.041  10.338  10.229
 3911SOL    HW213566  11.041  10.381  10.374
 3912SOL     OW13567  14.818   5.141   1.579
 3912SOL    HW113568  14.859   5.226   1.593
 3912SOL    HW213569  14.834   5.093   1.661
 3913SOL     OW13570   0.753   8.065   4.412
 3913SOL    HW113571   0.659   8.053   4.426
 3913SOL    HW213572   0.764   8.058   4.318
 3914SOL     OW13573  10.257   9.394  11.467
 3914SOL    HW113574  10.227   9.466  11.411
 3914SOL    HW213575  10.307   9.338  11.408
 3915SOL     OW13576   8.508   2.904   3.112
 3915SOL    HW113577   8.520   2.892   3.207
 3915SOL    HW213578   8.553   2.987   3.093
 3916SOL     OW13579   3.816   9.725  10.645
 3916SOL    HW113580   3.791   9.815  10.625
 3916SOL    HW213581   3.816   9.680  10.561
 3917SOL     OW13582  12.213   5.606   3.327
 3917SOL    HW113583  12.257   5.521   3.335
 3917SOL    HW213584  12.160   5.613   3.407
 3918SOL     OW13585  11.919   7.108   5.543
 3918SOL    HW113586  11.949   7.038   5.485
 3918SOL    HW213587  11.959   7.187   5.506
 3919SOL     OW13588   3.161   9.152  13.673
 3919SOL    HW113589   3.132   9.173  13.762
 3919SOL    HW213590   3.153   9.234  13.625
 3920SOL     OW13591  11.763   5.940  14.772
 3920SOL    HW113592  11.839   5.885  14.787
 3920SOL    HW213593  11.799   6.024  14.744
 3921SOL     OW13594   0.114  10.289   6.321
 3921SOL    HW113595   0.198  10.334   6.329
 3921SOL    HW213596   0.054  10.341   6.374
 3922SOL     OW13597  14.625   6.067  11.401
 3922SOL    HW113598  14.596   6.126  11.331
 3922SOL    HW213599  14.551   6.063  11.462
 3923SOL     OW13600   9.242   1.484  12.201
 3923SOL    HW113601   9.155   1.452  12.177
 3923SOL    HW213602   9.263   1.548  12.134
 3924SOL     OW13603   5.548  10.752   5.182
 3924SOL    HW113604   5.524  10.699   5.258
 3924SOL    HW213605   5.619  10.808   5.213
 3925SOL     OW13606   5.594  11.114   9.926
 3925SOL    HW113607   5.520  11.174   9.934
 3925SOL    HW213608   5.607  11.081  10.015
 3926SOL     OW13609  13.199   5.640   5.394
 3926SOL    HW113610  13.109   5.650   5.426
 3926SOL    HW213611  13.247   5.608   5.471
 3927SOL     OW13612   7.515  14.376   4.534
 3927SOL    HW113613   7.584  14.354   4.471
 3927SOL    HW213614   7.510  14.472   4.532
 3928SOL     OW13615   1.847   3.550   4.525
 3928SOL    HW113616   1.849   3.620   4.590
 3928SOL    HW213617   1.935   3.513   4.527
 3929SOL     OW13618  12.391  10.120   8.524
 3929SOL    HW113619  12.425  10.201   8.563
 3929SOL    HW213620  12.469  10.072   8.497
 3930SOL     OW13621  13.491   1.215  11.732
 3930SOL    HW113622  13.452   1.294  11.696
 3930SOL    HW213623  13.456   1.144  11.679
 3931SOL     OW13624   6.039   5.093  10.174
 3931SOL    HW113625   6.012   5.146  10.249
 3931SOL    HW213626   5.963   5.036  10.157
 3932SOL     OW13627   7.554   9.706  13.216
 3932SOL    HW113628   7.648   9.701  13.196
 3932SOL    HW213629   7.539   9.633  13.276
 3933SOL     OW13630   9.723  14.679   4.162
 3933SOL    HW113631   9.738  14.744   4.231
 3933SOL    HW213632   9.687  14.730   4.089
 3934SOL     OW13633   0.870   4.355   0.675
 3934SOL    HW113634   0.947   4.397   0.636
 3934SOL    HW213635   0.855   4.403   0.756
 3935SOL     OW13636  10.239   7.837  12.986
 3935SOL    HW113637  10.162   7.888  13.008
 3935SOL    HW213638  10.250   7.850  12.891
 3936SOL     OW13639   6.904   4.103  10.166
 3936SOL    HW113640   6.970   4.105  10.097
 3936SOL    HW213641   6.954   4.119  10.246
 3937SOL     OW13642  13.282   2.925  12.930
 3937SOL    HW113643  13.232   2.880  12.998
 3937SOL    HW213644  13.216   2.955  12.868
 3938SOL     OW13645   1.938   1.657   5.003
 3938SOL    HW113646   1.970   1.619   5.085
 3938SOL    HW213647   1.854   1.614   4.987
 3939SOL     OW13648  14.282   6.718   2.728
 3939SOL    HW113649  14.231   6.690   2.804
 3939SOL    HW213650  14.268   6.650   2.662
 3940SOL     OW13651   3.004   8.777   6.367
 3940SOL    HW113652   2.952   8.725   6.305
 3940SOL    HW213653   2.944   8.795   6.439
 3941SOL     OW13654   5.734   9.433   6.675
 3941SOL    HW113655   5.758   9.380   6.599
 3941SOL    HW213656   5.795   9.507   6.672
 3942SOL     OW13657   5.623  13.102   7.392
 3942SOL    HW113658   5.535  13.095   7.430
 3942SOL    HW213659   5.681  13.069   7.460
 3943SOL     OW13660   3.166  11.774   7.071
 3943SOL    HW113661   3.167  11.869   7.084
 3943SOL    HW213662   3.244  11.757   7.018
 3944SOL     OW13663   3.925   2.056   5.608
 3944SOL    HW113664   4.004   2.023   5.651
 3944SOL    HW213665   3.889   1.981   5.561
 3945SOL     OW13666   6.512   8.685   9.580
 3945SOL    HW113667   6.561   8.762   9.607
 3945SOL    HW213668   6.424   8.718   9.560
 3946SOL     OW13669   0.583   7.421  12.531
 3946SOL    HW113670   0.634   7.483  12.583
 3946SOL    HW213671   0.602   7.336  12.571
 3947SOL     OW13672   5.318   4.550   1.695
 3947SOL    HW113673   5.349   4.627   1.647
 3947SOL    HW213674   5.244   4.583   1.746
 3948SOL     OW13675   7.047   2.669   5.563
 3948SOL    HW113676   7.105   2.738   5.532
 3948SOL    HW213677   7.042   2.683   5.658
 3949SOL     OW13678   7.198   1.336   2.862
 3949SOL    HW113679   7.197   1.253   2.815
 3949SOL    HW213680   7.290   1.347   2.889
 3950SOL     OW13681   2.930  14.704  13.740
 3950SOL    HW113682   2.891  14.623  13.773
 3950SOL    HW213683   2.860  14.770  13.749
 3951SOL     OW13684   0.834   8.132   9.496
 3951SOL    HW113685   0.916   8.091   9.468
 3951SOL    HW213686   0.804   8.078   9.569
 3952SOL     OW13687   5.671   5.396   0.494
 3952SOL    HW113688   5.755   5.370   0.456
 3952SOL    HW213689   5.677   5.491   0.504
 3953SOL     OW13690   8.307   4.795   9.492
 3953SOL    HW113691   8.252   4.872   9.482
 3953SOL    HW213692   8.256   4.736   9.548
 3954SOL     OW13693  11.140   5.528   9.372
 3954SOL    HW113694  11.207   5.595   9.390
 3954SOL    HW213695  11.126   5.533   9.277
 3955SOL     OW13696  13.233  14.442   7.414
 3955SOL    HW113697  13.154  14.455   7.361
 3955SOL    HW213698  13.216  14.361   7.463
 3956SOL     OW13699  14.829   4.893  11.502
 3956SOL    HW113700  14.804   4.985  11.504
 3956SOL    HW213701  14.803   4.859  11.588
 3957SOL     OW13702   0.434  14.476  10.855
 3957SOL    HW113703   0.465  14.529  10.929
 3957SOL    HW213704   0.339  14.473  10.865
 3958SOL     OW13705   5.707   6.754  12.279
 3958SOL    HW113706   5.764   6.783  12.350
 3958SOL    HW213707   5.655   6.683  12.317
 3959SOL     OW13708   7.637   2.825  12.074
 3959SOL    HW113709   7.567   2.883  12.103
 3959SOL    HW213710   7.595   2.764  12.013
 3960SOL     OW13711   6.337   1.957  13.290
 3960SOL    HW113712   6.278   1.881  13.296
 3960SOL    HW213713   6.325   2.002  13.374
 3961SOL     OW13714   4.794   1.062  13.930
 3961SOL    HW113715   4.776   1.126  13.999
 3961SOL    HW213716   4.838   0.990  13.974
 3962SOL     OW13717   8.470   9.261   3.576
 3962SOL    HW113718   8.394   9.319   3.583
 3962SOL    HW213719   8.504   9.276   3.488
 3963SOL     OW13720   1.784  11.242  14.198
 3963SOL    HW113721   1.722  11.266  14.129
 3963SOL    HW213722   1.791  11.146  14.191
 3964SOL     OW13723   9.014   8.929  11.008
 3964SOL    HW113724   9.094   8.881  11.030
 3964SOL    HW213725   8.980   8.959  11.092
 3965SOL     OW13726   1.941   8.770   6.059
 3965SOL    HW113727   2.011   8.828   6.088
 3965SOL    HW213728   1.902   8.737   6.140
 3966SOL     OW13729   5.617   1.790  14.816
 3966SOL    HW113730   5.557   1.824   0.010
 3966SOL    HW213731   5.659   1.715  14.857
 3967SOL     OW13732   5.313   9.927   8.893
 3967SOL    HW113733   5.290   9.834   8.890
 3967SOL    HW213734   5.248   9.969   8.837
 3968SOL     OW13735   3.287  13.070   3.631
 3968SOL    HW113736   3.237  13.151   3.623
 3968SOL    HW213737   3.376  13.099   3.649
 3969SOL     OW13738  11.604   5.236   9.111
 3969SOL    HW113739  11.652   5.248   9.193
 3969SOL    HW213740  11.656   5.174   9.061
 3970SOL     OW13741  10.948  10.360   0.360
 3970SOL    HW113742  10.895  10.339   0.437
 3970SOL    HW213743  11.011  10.288   0.354
 3971SOL     OW13744   7.504   7.748  13.756
 3971SOL    HW113745   7.532   7.756  13.847
 3971SOL    HW213746   7.584   7.762  13.705
 3972SOL     OW13747  14.223  11.988  11.080
 3972SOL    HW113748  14.174  11.914  11.043
 3972SOL    HW213749  14.311  11.954  11.094
 3973SOL     OW13750  11.514  11.279   0.546
 3973SOL    HW113751  11.503  11.277   0.641
 3973SOL    HW213752  11.607  11.258   0.532
 3974SOL     OW13753  10.866   3.023   0.284
 3974SOL    HW113754  10.812   3.061   0.214
 3974SOL    HW213755  10.951   3.065   0.274
 3975SOL     OW13756  12.895   1.838   6.811
 3975SOL    HW113757  12.900   1.931   6.836
 3975SOL    HW213758  12.960   1.828   6.742
 3976SOL     OW13759   1.102   9.460  14.105
 3976SOL    HW113760   1.013   9.493  14.094
 3976SOL    HW213761   1.091   9.366  14.119
 3977SOL     OW13762   5.245   4.434  12.963
 3977SOL    HW113763   5.193   4.358  12.936
 3977SOL    HW213764   5.258   4.484  12.883
 3978SOL     OW13765   4.422   6.147   7.797
 3978SOL    HW113766   4.455   6.079   7.855
 3978SOL    HW213767   4.409   6.223   7.854
 3979SOL     OW13768   2.488  14.377  14.781
 3979SOL    HW113769   2.490  14.325  14.700
 3979SOL    HW213770   2.410  14.432  14.772
 3980SOL     OW13771   9.167   8.500  12.495
 3980SOL    HW113772   9.179   8.568  12.562
 3980SOL    HW213773   9.246   8.504  12.442
 3981SOL     OW13774   0.245   1.362   9.300
 3981SOL    HW113775   0.339   1.373   9.286
 3981SOL    HW213776   0.227   1.272   9.273
 3982SOL     OW13777   6.824   4.112   2.784
 3982SOL    HW113778   6.896   4.063   2.744
 3982SOL    HW213779   6.750   4.096   2.725
 3983SOL     OW13780   8.605   2.913   2.524
 3983SOL    HW113781   8.597   2.843   2.459
 3983SOL    HW213782   8.666   2.878   2.589
 3984SOL     OW13783  10.871   4.820  14.637
 3984SOL    HW113784  10.898   4.820  14.545
 3984SOL    HW213785  10.907   4.900  14.673
 3985SOL     OW13786  14.297   1.419   7.275
 3985SOL    HW113787  14.308   1.350   7.211
 3985SOL    HW213788  14.386   1.437   7.307
 3986SOL     OW13789   7.382   7.422   1.487
 3986SOL    HW113790   7.358   7.339   1.528
 3986SOL    HW213791   7.477   7.419   1.478
 3987SOL     OW13792   9.837   2.661  14.608
 3987SOL    HW113793   9.755   2.665  14.559
 3987SOL    HW213794   9.845   2.570  14.635
 3988SOL     OW13795   5.833   7.303   5.966
 3988SOL    HW113796   5.765   7.236   5.968
 3988SOL    HW213797   5.911   7.261   6.001
 3989SOL     OW13798   9.416   5.045   0.936
 3989SOL    HW113799   9.388   5.007   0.853
 3989SOL    HW213800   9.370   5.129   0.940
 3990SOL     OW13801   5.575  12.258  12.571
 3990SOL    HW113802   5.484  12.282  12.589
 3990SOL    HW213803   5.585  12.273  12.477
 3991SOL     OW13804   9.229   0.158   9.727
 3991SOL    HW113805   9.137   0.174   9.704
 3991SOL    HW213806   9.270   0.244   9.720
 3992SOL     OW13807   1.193   3.764  13.106
 3992SOL    HW113808   1.237   3.803  13.181
 3992SOL    HW213809   1.221   3.818  13.032
 3993SOL     OW13810  14.432   7.797   0.508
 3993SOL    HW113811  14.506   7.764   0.457
 3993SOL    HW213812  14.470   7.858   0.569
 3994SOL     OW13813   9.250   3.230  12.538
 3994SOL    HW113814   9.303   3.282  12.598
 3994SOL    HW213815   9.308   3.160  12.508
 3995SOL     OW13816   4.520   5.032   8.153
 3995SOL    HW113817   4.542   5.077   8.235
 3995SOL    HW213818   4.495   4.944   8.180
 3996SOL     OW13819   6.931  14.134   2.985
 3996SOL    HW113820   7.000  14.185   3.027
 3996SOL    HW213821   6.914  14.062   3.046
 3997SOL     OW13822   6.456   8.120  10.765
 3997SOL    HW113823   6.437   8.112  10.859
 3997SOL    HW213824   6.543   8.081  10.755
 3998SOL     OW13825   1.596  11.568  12.893
 3998SOL    HW113826   1.592  11.602  12.804
 3998SOL    HW213827   1.640  11.636  12.944
 3999SOL     OW13828  14.075   4.594  12.858
 3999SOL    HW113829  14.081   4.615  12.951
 3999SOL    HW213830  14.166   4.589  12.829
 4000SOL     OW13831   3.657  14.620   2.865
 4000SOL    HW113832   3.562  14.629   2.870
 4000SOL    HW213833   3.689  14.706   2.840
 4001SOL     OW13834   2.455  10.414  11.371
 4001SOL    HW113835   2.477  10.321  11.374
 4001SOL    HW213836   2.369  10.417  11.329
 4002SOL     OW13837  14.475  13.975   5.203
 4002SOL    HW113838  14.462  14.069   5.188
 4002SOL    HW213839  14.413  13.952   5.272
 4003SOL     OW13840   5.181   9.419  11.105
 4003SOL    HW113841   5.273   9.434  11.083
 4003SOL    HW213842   5.174   9.324  11.118
 4004SOL     OW13843   3.423   5.167   8.760
 4004SOL    HW113844   3.371   5.198   8.835
 4004SOL    HW213845   3.417   5.237   8.696
 4005SOL     OW13846   8.475   2.139   7.568
 4005SOL    HW113847   8.476   2.045   7.551
 4005SOL    HW213848   8.566   2.161   7.590
 4006SOL     OW13849  13.710   1.979   3.180
 4006SOL    HW113850  13.756   2.062   3.166
 4006SOL    HW213851  13.760   1.915   3.130
 4007SOL     OW13852   1.171   0.262   2.149
 4007SOL    HW113853   1.118   0.218   2.214
 4007SOL    HW213854   1.127   0.346   2.135
 4008SOL     OW13855  12.420  13.325   1.088
 4008SOL    HW113856  12.371  13.249   1.057
 4008SOL    HW213857  12.510  13.295   1.095
 4009SOL     OW13858   4.676   0.193   1.707
 4009SOL    HW113859   4.754   0.209   1.760
 4009SOL    HW213860   4.641   0.281   1.690
 4010SOL     OW13861  13.827   5.927  14.540
 4010SOL    HW113862  13.838   5.936  14.635
 4010SOL    HW213863  13.916   5.920  14.506
 4011SOL     OW13864   6.463   5.571  14.479
 4011SOL    HW113865   6.465   5.497  14.418
 4011SOL    HW213866   6.516   5.639  14.437
 4012SOL     OW13867   9.480  11.896   8.299
 4012SOL    HW113868   9.487  11.989   8.276
 4012SOL    HW213869   9.499  11.849   8.218
 4013SOL     OW13870   3.484   3.894   4.281
 4013SOL    HW113871   3.463   3.865   4.370
 4013SOL    HW213872   3.556   3.956   4.292
 4014SOL     OW13873  11.047   9.951  14.745
 4014SOL    HW113874  10.986  10.003  14.797
 4014SOL    HW213875  10.991   9.896  14.690
 4015SOL     OW13876  13.237  11.633  13.440
 4015SOL    HW113877  13.251  11.666  13.352
 4015SOL    HW213878  13.224  11.539  13.429
 4016SOL     OW13879  14.292  12.496  11.469
 4016SOL    HW113880  14.213  12.541  11.501
 4016SOL    HW213881  14.363  12.532  11.522
 4017SOL     OW13882  11.377   4.711   0.890
 4017SOL    HW113883  11.371   4.786   0.950
 4017SOL    HW213884  11.345   4.746   0.806
 4018SOL     OW13885   1.554   3.178   9.178
 4018SOL    HW113886   1.562   3.261   9.131
 4018SOL    HW213887   1.464   3.150   9.160
 4019SOL     OW13888   6.318   4.740  10.123
 4019SOL    HW113889   6.283   4.723  10.211
 4019SOL    HW213890   6.243   4.774  10.074
 4020SOL     OW13891   7.497   7.318  10.680
 4020SOL    HW113892   7.423   7.360  10.636
 4020SOL    HW213893   7.489   7.346  10.771
 4021SOL     OW13894   4.515   3.073   1.240
 4021SOL    HW113895   4.513   3.010   1.312
 4021SOL    HW213896   4.443   3.133   1.258
 4022SOL     OW13897   2.107  11.206   3.850
 4022SOL    HW113898   2.107  11.236   3.941
 4022SOL    HW213899   2.136  11.283   3.800
 4023SOL     OW13900  13.458   5.035   2.889
 4023SOL    HW113901  13.480   5.087   2.967
 4023SOL    HW213902  13.452   5.100   2.818
 4024SOL     OW13903   8.558   2.252   9.609
 4024SOL    HW113904   8.478   2.293   9.574
 4024SOL    HW213905   8.551   2.261   9.704
 4025SOL     OW13906   8.297  11.533   3.736
 4025SOL    HW113907   8.289  11.454   3.683
 4025SOL    HW213908   8.208  11.567   3.742
 4026SOL     OW13909   5.145   9.810  10.557
 4026SOL    HW113910   5.088   9.784  10.630
 4026SOL    HW213911   5.106   9.767  10.480
 4027SOL     OW13912   7.182   5.143   0.001
 4027SOL    HW113913   7.115   5.078  14.850
 4027SOL    HW213914   7.192   5.136   0.095
 4028SOL     OW13915   1.975   0.110   3.457
 4028SOL    HW113916   2.041   0.170   3.492
 4028SOL    HW213917   1.931   0.160   3.389
 4029SOL     OW13918   1.116   1.040   4.919
 4029SOL    HW113919   1.039   1.014   4.869
 4029SOL    HW213920   1.103   1.133   4.936
 4030SOL     OW13921   6.111   7.610   2.866
 4030SOL    HW113922   6.019   7.622   2.888
 4030SOL    HW213923   6.158   7.662   2.930
 4031SOL     OW13924   3.536  13.739  13.575
 4031SOL    HW113925   3.490  13.728  13.658
 4031SOL    HW213926   3.469  13.773  13.515
 4032SOL     OW13927   7.706  10.463  13.807
 4032SOL    HW113928   7.631  10.484  13.753
 4032SOL    HW213929   7.675  10.394  13.865
 4033SOL     OW13930  10.174   3.912   6.087
 4033SOL    HW113931  10.144   3.830   6.127
 4033SOL    HW213932  10.157   3.901   5.994
 4034SOL     OW13933   8.878  14.593   9.193
 4034SOL    HW113934   8.949  14.533   9.213
 4034SOL    HW213935   8.921  14.677   9.178
 4035SOL     OW13936   2.396   1.606   5.272
 4035SOL    HW113937   2.426   1.523   5.235
 4035SOL    HW213938   2.376   1.586   5.363
 4036SOL     OW13939  13.428  13.444   3.377
 4036SOL    HW113940  13.378  13.523   3.356
 4036SOL    HW213941  13.493  13.474   3.440
 4037SOL     OW13942   1.272   9.511  11.715
 4037SOL    HW113943   1.316   9.531  11.799
 4037SOL    HW213944   1.335   9.538  11.649
 4038SOL     OW13945   4.825  13.165  11.318
 4038SOL    HW113946   4.780  13.120  11.389
 4038SOL    HW213947   4.755  13.202  11.264
 4039SOL     OW13948  13.171   5.067   0.418
 4039SOL    HW113949  13.075   5.076   0.420
 4039SOL    HW213950  13.186   4.973   0.408
 4040SOL     OW13951  13.982  10.038  10.742
 4040SOL    HW113952  13.971  10.037  10.837
 4040SOL    HW213953  14.070  10.074  10.728
 4041SOL     OW13954   8.273   9.085   4.321
 4041SOL    HW113955   8.359   9.126   4.331
 4041SOL    HW213956   8.211   9.156   4.341
 4042SOL     OW13957   2.332   5.854   2.300
 4042SOL    HW113958   2.427   5.851   2.312
 4042SOL    HW213959   2.314   5.780   2.241
 4043SOL     OW13960   0.730   0.654   1.267
 4043SOL    HW113961   0.728   0.722   1.199
 4043SOL    HW213962   0.821   0.655   1.298
 4044SOL     OW13963   6.283   0.604  13.195
 4044SOL    HW113964   6.255   0.545  13.125
 4044SOL    HW213965   6.204   0.621  13.245
 4045SOL     OW13966  14.048   8.968   2.760
 4045SOL    HW113967  13.959   9.001   2.746
 4045SOL    HW213968  14.037   8.896   2.822
 4046SOL     OW13969  14.423   4.406  11.787
 4046SOL    HW113970  14.484   4.425  11.858
 4046SOL    HW213971  14.337   4.426  11.824
 4047SOL     OW13972  14.715  13.608  14.139
 4047SOL    HW113973  14.741  13.517  14.153
 4047SOL    HW213974  14.765  13.636  14.063
 4048SOL     OW13975   7.189   2.524   5.356
 4048SOL    HW113976   7.209   2.431   5.369
 4048SOL    HW213977   7.123   2.544   5.423
 4049SOL     OW13978   6.130   5.848   3.013
 4049SOL    HW113979   6.141   5.933   3.055
 4049SOL    HW213980   6.090   5.867   2.929
 4050SOL     OW13981   2.609   9.416  12.439
 4050SOL    HW113982   2.588   9.495  12.489
 4050SOL    HW213983   2.592   9.344  12.500
 4051SOL     OW13984  13.966  11.319   7.500
 4051SOL    HW113985  14.021  11.259   7.551
 4051SOL    HW213986  13.879  11.279   7.502
 4052SOL     OW13987   1.865   6.426   1.671
 4052SOL    HW113988   1.928   6.466   1.730
 4052SOL    HW213989   1.878   6.472   1.588
 4053SOL     OW13990   5.999   7.625  14.798
 4053SOL    HW113991   5.972   7.573  14.722
 4053SOL    HW213992   5.980   7.570   0.001
 4054SOL     OW13993   3.215   8.142  10.111
 4054SOL    HW113994   3.292   8.198  10.123
 4054SOL    HW213995   3.245   8.074  10.050
 4055SOL     OW13996   5.688   9.767   4.147
 4055SOL    HW113997   5.680   9.815   4.065
 4055SOL    HW213998   5.707   9.835   4.213
 4056SOL     OW13999   7.169   4.465   9.397
 4056SOL    HW114000   7.117   4.515   9.459
 4056SOL    HW214001   7.104   4.424   9.338
 4057SOL     OW14002   4.715   0.907   9.836
 4057SOL    HW114003   4.714   0.812   9.824
 4057SOL    HW214004   4.747   0.941   9.753
 4058SOL     OW14005   0.920   4.162   0.361
 4058SOL    HW114006   1.008   4.190   0.335
 4058SOL    HW214007   0.934   4.119   0.446
 4059SOL     OW14008  10.153   3.437   3.210
 4059SOL    HW114009  10.103   3.509   3.247
 4059SOL    HW214010  10.242   3.471   3.200
 4060SOL     OW14011  11.280   6.547   1.799
 4060SOL    HW114012  11.233   6.622   1.837
 4060SOL    HW214013  11.228   6.471   1.825
 4061SOL     OW14014  14.387   5.718  14.247
 4061SOL    HW114015  14.318   5.740  14.184
 4061SOL    HW214016  14.390   5.792  14.306
 4062SOL     OW14017   4.012  12.718  12.988
 4062SOL    HW114018   3.946  12.784  12.970
 4062SOL    HW214019   4.094  12.767  12.996
 4063SOL     OW14020   5.374   0.259  12.674
 4063SOL    HW114021   5.410   0.339  12.636
 4063SOL    HW214022   5.334   0.212  12.601
 4064SOL     OW14023  12.265   5.747  14.181
 4064SOL    HW114024  12.238   5.831  14.143
 4064SOL    HW214025  12.187   5.691  14.174
 4065SOL     OW14026  13.283   1.715  12.387
 4065SOL    HW114027  13.234   1.730  12.305
 4065SOL    HW214028  13.375   1.725  12.362
 4066SOL     OW14029   0.436  11.493   8.996
 4066SOL    HW114030   0.481  11.574   9.018
 4066SOL    HW214031   0.482  11.459   8.920
 4067SOL     OW14032  14.470   8.292   4.105
 4067SOL    HW114033  14.543   8.351   4.124
 4067SOL    HW214034  14.512   8.212   4.074
 4068SOL     OW14035  14.588  14.817  10.005
 4068SOL    HW114036  14.641  14.838   9.928
 4068SOL    HW214037  14.551   0.029  10.032
 4069SOL     OW14038  10.700  12.177   2.787
 4069SOL    HW114039  10.764  12.235   2.828
 4069SOL    HW214040  10.621  12.187   2.840
 4070SOL     OW14041  10.844  14.607   7.491
 4070SOL    HW114042  10.837  14.525   7.444
 4070SOL    HW214043  10.765  14.612   7.544
 4071SOL     OW14044   1.286   0.526  12.508
 4071SOL    HW114045   1.241   0.610  12.522
 4071SOL    HW214046   1.366   0.533  12.560
 4072SOL     OW14047   0.510   6.564   5.872
 4072SOL    HW114048   0.528   6.602   5.958
 4072SOL    HW214049   0.418   6.584   5.855
 4073SOL     OW14050  11.863   0.382   8.326
 4073SOL    HW114051  11.950   0.384   8.286
 4073SOL    HW214052  11.807   0.339   8.261
 4074SOL     OW14053   5.407   3.624  11.874
 4074SOL    HW114054   5.394   3.719  11.875
 4074SOL    HW214055   5.407   3.601  11.781
 4075SOL     OW14056   2.979   9.898   5.842
 4075SOL    HW114057   2.926   9.949   5.903
 4075SOL    HW214058   2.991   9.813   5.884
 4076SOL     OW14059   6.239   3.832  12.277
 4076SOL    HW114060   6.163   3.878  12.312
 4076SOL    HW214061   6.203   3.774  12.209
 4077SOL     OW14062   0.911  11.770   2.078
 4077SOL    HW114063   0.989  11.827   2.078
 4077SOL    HW214064   0.927  11.707   2.008
 4078SOL     OW14065  14.770   4.609   0.361
 4078SOL    HW114066  14.724   4.544   0.309
 4078SOL    HW214067  14.858   4.612   0.324
 4079SOL     OW14068  14.406   6.135  12.420
 4079SOL    HW114069  14.456   6.093  12.349
 4079SOL    HW214070  14.335   6.074  12.439
 4080SOL     OW14071   5.527   3.665   3.142
 4080SOL    HW114072   5.620   3.674   3.164
 4080SOL    HW214073   5.489   3.750   3.163
 4081SOL     OW14074   3.487  13.954   0.936
 4081SOL    HW114075   3.472  13.971   1.029
 4081SOL    HW214076   3.479  14.040   0.895
 4082SOL     OW14077   4.190   8.508   5.585
 4082SOL    HW114078   4.117   8.569   5.577
 4082SOL    HW214079   4.249   8.549   5.649
 4083SOL     OW14080   9.421  12.515   1.164
 4083SOL    HW114081   9.342  12.551   1.123
 4083SOL    HW214082   9.467  12.592   1.198
 4084SOL     OW14083  12.085  11.917   1.803
 4084SOL    HW114084  12.098  11.920   1.898
 4084SOL    HW214085  12.044  12.001   1.782
 4085SOL     OW14086   9.682  10.260  13.020
 4085SOL    HW114087   9.635  10.262  13.103
 4085SOL    HW214088   9.762  10.211  13.038
 4086SOL     OW14089   5.922  11.425   0.586
 4086SOL    HW114090   6.011  11.433   0.620
 4086SOL    HW214091   5.870  11.397   0.662
 4087SOL     OW14092   4.076  13.803   9.099
 4087SOL    HW114093   4.069  13.710   9.119
 4087SOL    HW214094   4.111  13.842   9.179
 4088SOL     OW14095   7.365  13.189   7.143
 4088SOL    HW114096   7.372  13.097   7.170
 4088SOL    HW214097   7.439  13.232   7.186
 4089SOL     OW14098   1.893   2.275  12.453
 4089SOL    HW114099   1.982   2.309  12.457
 4089SOL    HW214100   1.846   2.322  12.522
 4090SOL     OW14101  10.495   5.282   2.788
 4090SOL    HW114102  10.430   5.224   2.827
 4090SOL    HW214103  10.452   5.319   2.711
 4091SOL     OW14104   3.535   4.442   9.095
 4091SOL    HW114105   3.573   4.506   9.155
 4091SOL    HW214106   3.445   4.472   9.082
 4092SOL     OW14107   3.761  10.729  10.719
 4092SOL    HW114108   3.763  10.666  10.790
 4092SOL    HW214109   3.709  10.802  10.752
 4093SOL     OW14110   1.308   7.113  10.877
 4093SOL    HW114111   1.292   7.174  10.950
 4093SOL    HW214112   1.285   7.027  10.912
 4094SOL     OW14113   5.246  11.267   8.492
 4094SOL    HW114114   5.200  11.345   8.459
 4094SOL    HW214115   5.210  11.252   8.579
 4095SOL     OW14116   9.861   2.590  11.995
 4095SOL    HW114117   9.784   2.534  11.981
 4095SOL    HW214118   9.924   2.533  12.038
 4096SOL     OW14119   2.344   5.248   9.797
 4096SOL    HW114120   2.298   5.165   9.811
 4096SOL    HW214121   2.341   5.291   9.882
 4097SOL     OW14122   1.434   6.142  14.066
 4097SOL    HW114123   1.349   6.098  14.068
 4097SOL    HW214124   1.494   6.077  14.030
 4098SOL     OW14125   7.361   7.550   9.564
 4098SOL    HW114126   7.400   7.473   9.523
 4098SOL    HW214127   7.427   7.582   9.625
 4099SOL     OW14128   4.780   0.809  12.348
 4099SOL    HW114129   4.706   0.870  12.351
 4099SOL    HW214130   4.750   0.738  12.291
 4100SOL     OW14131   6.000  11.048   2.616
 4100SOL    HW114132   5.966  11.137   2.623
 4100SOL    HW214133   5.984  11.023   2.525
 4101SOL     OW14134   7.384  13.394   1.150
 4101SOL    HW114135   7.335  13.373   1.230
 4101SOL    HW214136   7.318  13.425   1.089
 4102SOL     OW14137  10.722   9.273   5.133
 4102SOL    HW114138  10.646   9.247   5.082
 4102SOL    HW214139  10.772   9.192   5.146
 4103SOL     OW14140   8.905   2.598  11.413
 4103SOL    HW114141   8.943   2.552  11.338
 4103SOL    HW214142   8.867   2.678  11.374
 4104SOL     OW14143  10.424  13.680   5.111
 4104SOL    HW114144  10.460  13.765   5.134
 4104SOL    HW214145  10.353  13.700   5.050
 4105SOL     OW14146   0.208  10.521   1.274
 4105SOL    HW114147   0.198  10.432   1.307
 4105SOL    HW214148   0.204  10.511   1.179
 4106SOL     OW14149  11.928  12.769   0.209
 4106SOL    HW114150  11.964  12.814   0.285
 4106SOL    HW214151  12.005  12.741   0.159
 4107SOL     OW14152   5.234  12.720   2.158
 4107SOL    HW114153   5.314  12.705   2.208
 4107SOL    HW214154   5.250  12.803   2.113
 4108SOL     OW14155   9.565   1.529   6.336
 4108SOL    HW114156   9.606   1.559   6.417
 4108SOL    HW214157   9.586   1.436   6.332
 4109SOL     OW14158   8.579   6.623  14.239
 4109SOL    HW114159   8.576   6.684  14.313
 4109SOL    HW214160   8.489   6.591  14.231
 4110SOL     OW14161   9.162   1.583  11.393
 4110SOL    HW114162   9.187   1.673  11.412
 4110SOL    HW214163   9.110   1.588  11.313
 4111SOL     OW14164  10.897   9.028   0.280
 4111SOL    HW114165  10.816   9.058   0.239
 4111SOL    HW214166  10.870   8.992   0.364
 4112SOL     OW14167  11.553   3.080   1.942
 4112SOL    HW114168  11.568   3.023   1.866
 4112SOL    HW214169  11.587   3.165   1.916
 4113SOL     OW14170   4.024   4.048   4.200
 4113SOL    HW114171   4.067   3.970   4.166
 4113SOL    HW214172   4.081   4.078   4.271
 4114SOL     OW14173  11.505  14.442   2.019
 4114SOL    HW114174  11.481  14.534   2.006
 4114SOL    HW214175  11.508  14.406   1.930
 4115SOL     OW14176   5.516   2.367   4.753
 4115SOL    HW114177   5.546   2.368   4.844
 4115SOL    HW214178   5.422   2.349   4.760
 4116SOL     OW14179   0.970   3.600   8.930
 4116SOL    HW114180   0.940   3.509   8.938
 4116SOL    HW214181   1.065   3.595   8.937
 4117SOL     OW14182   6.782  13.926   9.112
 4117SOL    HW114183   6.716  13.868   9.075
 4117SOL    HW214184   6.859  13.871   9.126
 4118SOL     OW14185  13.828   4.271   3.113
 4118SOL    HW114186  13.843   4.249   3.205
 4118SOL    HW214187  13.789   4.192   3.075
 4119SOL     OW14188   6.091   0.525  14.015
 4119SOL    HW114189   6.043   0.584  13.956
 4119SOL    HW214190   6.033   0.450  14.026
 4120SOL     OW14191   6.230   2.873   4.074
 4120SOL    HW114192   6.264   2.893   3.987
 4120SOL    HW214193   6.197   2.783   4.066
 4121SOL     OW14194   1.691   7.183   2.782
 4121SOL    HW114195   1.631   7.142   2.720
 4121SOL    HW214196   1.669   7.276   2.778
 4122SOL     OW14197  12.113   3.139  14.710
 4122SOL    HW114198  12.062   3.059  14.725
 4122SOL    HW214199  12.050   3.210  14.724
 4123SOL     OW14200   0.203  14.482   5.751
 4123SOL    HW114201   0.184  14.389   5.754
 4123SOL    HW214202   0.124  14.522   5.715
 4124SOL     OW14203   9.173   7.038  14.013
 4124SOL    HW114204   9.232   7.112  14.032
 4124SOL    HW214205   9.132   7.017  14.097
 4125SOL     OW14206  12.032  14.788   6.608
 4125SOL    HW114207  11.984  14.706   6.619
 4125SOL    HW214208  12.080  14.799   6.690
 4126SOL     OW14209   6.601  12.338  13.060
 4126SOL    HW114210   6.538  12.267  13.070
 4126SOL    HW214211   6.565  12.393  12.990
 4127SOL     OW14212   5.771   8.794   4.335
 4127SOL    HW114213   5.798   8.718   4.283
 4127SOL    HW214214   5.847   8.814   4.390
 4128SOL     OW14215  13.356   9.208  14.139
 4128SOL    HW114216  13.339   9.188  14.047
 4128SOL    HW214217  13.274   9.185  14.184
 4129SOL     OW14218   8.014  11.573   3.674
 4129SOL    HW114219   7.986  11.559   3.584
 4129SOL    HW214220   7.954  11.520   3.726
 4130SOL     OW14221  11.276   2.535   9.378
 4130SOL    HW114222  11.352   2.501   9.425
 4130SOL    HW214223  11.204   2.526   9.441
 4131SOL     OW14224   1.707   9.257  12.365
 4131SOL    HW114225   1.643   9.188  12.384
 4131SOL    HW214226   1.780   9.239  12.425
 4132SOL     OW14227   7.476  11.842  11.133
 4132SOL    HW114228   7.475  11.899  11.057
 4132SOL    HW214229   7.534  11.770  11.109
 4133SOL     OW14230   5.615  12.435   3.624
 4133SOL    HW114231   5.617  12.363   3.562
 4133SOL    HW214232   5.666  12.504   3.583
 4134SOL     OW14233   7.610   8.035  13.560
 4134SOL    HW114234   7.660   8.030  13.478
 4134SOL    HW214235   7.619   7.948  13.599
 4135SOL     OW14236   3.421  10.747  12.729
 4135SOL    HW114237   3.360  10.680  12.758
 4135SOL    HW214238   3.497  10.737  12.786
 4136SOL     OW14239   2.265   5.953  14.485
 4136SOL    HW114240   2.307   5.869  14.465
 4136SOL    HW214241   2.174   5.941  14.460
 4137SOL     OW14242  14.372   1.643  11.002
 4137SOL    HW114243  14.411   1.710  11.058
 4137SOL    HW214244  14.387   1.674  10.913
 4138SOL     OW14245  13.172  10.661  10.241
 4138SOL    HW114246  13.206  10.732  10.294
 4138SOL    HW214247  13.083  10.689  10.217
 4139SOL     OW14248  11.653   2.183  11.130
 4139SOL    HW114249  11.733   2.219  11.092
 4139SOL    HW214250  11.669   2.089  11.137
 4140SOL     OW14251   1.672   4.925  12.566
 4140SOL    HW114252   1.744   4.981  12.536
 4140SOL    HW214253   1.714   4.859  12.621
 4141SOL     OW14254  12.242   3.472   4.944
 4141SOL    HW114255  12.244   3.428   5.029
 4141SOL    HW214256  12.320   3.527   4.943
 4142SOL     OW14257   8.841   0.558   6.736
 4142SOL    HW114258   8.900   0.596   6.670
 4142SOL    HW214259   8.850   0.464   6.725
 4143SOL     OW14260  12.136   9.781   7.980
 4143SOL    HW114261  12.117   9.825   8.063
 4143SOL    HW214262  12.231   9.769   7.980
 4144SOL     OW14263   5.008   4.400   0.844
 4144SOL    HW114264   5.009   4.307   0.821
 4144SOL    HW214265   4.924   4.413   0.888
 4145SOL     OW14266   8.225  12.775   1.613
 4145SOL    HW114267   8.207  12.838   1.683
 4145SOL    HW214268   8.273  12.704   1.656
 4146SOL     OW14269   0.292  13.980   6.068
 4146SOL    HW114270   0.197  13.964   6.074
 4146SOL    HW214271   0.331  13.893   6.073
 4147SOL     OW14272  11.798  12.818   0.849
 4147SOL    HW114273  11.802  12.907   0.883
 4147SOL    HW214274  11.872  12.773   0.891
 4148SOL     OW14275  10.715  10.522  11.818
 4148SOL    HW114276  10.652  10.549  11.750
 4148SOL    HW214277  10.660  10.497  11.892
 4149SOL     OW14278  14.809   9.721  12.187
 4149SOL    HW114279   0.019   9.739  12.142
 4149SOL    HW214280  14.790   9.801  12.235
 4150SOL     OW14281   9.266   5.052   3.297
 4150SOL    HW114282   9.345   5.105   3.287
 4150SOL    HW214283   9.290   4.984   3.359
 4151SOL     OW14284   8.875  13.067  12.173
 4151SOL    HW114285   8.786  13.082  12.141
 4151SOL    HW214286   8.915  13.010  12.107
 4152SOL     OW14287  13.751   6.388   9.139
 4152SOL    HW114288  13.773   6.417   9.228
 4152SOL    HW214289  13.675   6.440   9.115
 4153SOL     OW14290   2.601   5.829   4.596
 4153SOL    HW114291   2.636   5.835   4.507
 4153SOL    HW214292   2.675   5.852   4.652
 4154SOL     OW14293   9.476  11.901   4.402
 4154SOL    HW114294   9.512  11.874   4.317
 4154SOL    HW214295   9.425  11.979   4.381
 4155SOL     OW14296   7.658   7.132  11.229
 4155SOL    HW114297   7.737   7.140  11.282
 4155SOL    HW214298   7.688   7.095  11.146
 4156SOL     OW14299   7.301  14.811   7.950
 4156SOL    HW114300   7.263   0.003   7.891
 4156SOL    HW214301   7.395  14.832   7.951
 4157SOL     OW14302  10.175   3.297   2.632
 4157SOL    HW114303  10.137   3.217   2.669
 4157SOL    HW214304  10.262   3.303   2.671
 4158SOL     OW14305  13.409   8.708   4.909
 4158SOL    HW114306  13.327   8.746   4.941
 4158SOL    HW214307  13.391   8.614   4.903
 4159SOL     OW14308   8.844  12.659  14.828
 4159SOL    HW114309   8.775  12.597  14.852
 4159SOL    HW214310   8.830  12.734   0.013
 4160SOL     OW14311   0.409  13.721   7.098
 4160SOL    HW114312   0.443  13.758   7.179
 4160SOL    HW214313   0.454  13.770   7.029
 4161SOL     OW14314   8.742  10.559   9.265
 4161SOL    HW114315   8.733  10.648   9.298
 4161SOL    HW214316   8.835  10.539   9.275
 4162SOL     OW14317   5.865   8.275   6.722
 4162SOL    HW114318   5.910   8.238   6.798
 4162SOL    HW214319   5.923   8.344   6.691
 4163SOL     OW14320  11.726   3.166   6.637
 4163SOL    HW114321  11.801   3.109   6.654
 4163SOL    HW214322  11.686   3.131   6.558
 4164SOL     OW14323   7.875   2.120  12.439
 4164SOL    HW114324   7.928   2.200  12.447
 4164SOL    HW214325   7.936   2.054  12.407
 4165SOL     OW14326   7.509   2.025   1.380
 4165SOL    HW114327   7.554   2.018   1.465
 4165SOL    HW214328   7.580   2.034   1.316
 4166SOL     OW14329   6.903   6.073  13.513
 4166SOL    HW114330   6.904   6.114  13.600
 4166SOL    HW214331   6.810   6.063  13.493
 4167SOL     OW14332   8.028   3.414   5.436
 4167SOL    HW114333   8.109   3.439   5.481
 4167SOL    HW214334   7.958   3.441   5.496
 4168SOL     OW14335   9.269  13.120   7.042
 4168SOL    HW114336   9.289  13.072   7.123
 4168SOL    HW214337   9.239  13.206   7.072
 4169SOL     OW14338   6.512   7.291  10.147
 4169SOL    HW114339   6.495   7.357  10.215
 4169SOL    HW214340   6.544   7.342  10.073
 4170SOL     OW14341   4.978  12.695  12.570
 4170SOL    HW114342   4.884  12.702  12.555
 4170SOL    HW214343   5.018  12.724  12.488
 4171SOL     OW14344   0.981  11.928   2.845
 4171SOL    HW114345   1.049  11.865   2.868
 4171SOL    HW214346   0.958  11.970   2.928
 4172SOL     OW14347   2.839   9.103  12.215
 4172SOL    HW114348   2.849   9.185  12.263
 4172SOL    HW214349   2.862   9.035  12.278
 4173SOL     OW14350   1.611   1.973   3.879
 4173SOL    HW114351   1.674   2.034   3.842
 4173SOL    HW214352   1.534   1.980   3.823
 4174SOL     OW14353  11.364   8.429   9.233
 4174SOL    HW114354  11.344   8.458   9.322
 4174SOL    HW214355  11.457   8.407   9.236
 4175SOL     OW14356  13.388   5.825   0.328
 4175SOL    HW114357  13.465   5.812   0.272
 4175SOL    HW214358  13.356   5.912   0.306
 4176SOL     OW14359  13.088   2.061  12.429
 4176SOL    HW114360  13.026   1.989  12.427
 4176SOL    HW214361  13.034   2.140  12.431
 4177SOL     OW14362  14.088   7.910   4.467
 4177SOL    HW114363  14.155   7.968   4.502
 4177SOL    HW214364  14.090   7.833   4.524
 4178SOL     OW14365   1.196   3.361   7.534
 4178SOL    HW114366   1.217   3.268   7.544
 4178SOL    HW214367   1.112   3.371   7.579
 4179SOL     OW14368   9.967  13.872  14.124
 4179SOL    HW114369   9.991  13.905  14.211
 4179SOL    HW214370  10.011  13.930  14.063
 4180SOL     OW14371   4.755   9.505  10.805
 4180SOL    HW114372   4.711   9.433  10.849
 4180SOL    HW214373   4.830   9.526  10.862
 4181SOL     OW14374   5.263   5.029   8.630
 4181SOL    HW114375   5.348   5.026   8.674
 4181SOL    HW214376   5.283   5.051   8.539
 4182SOL     OW14377   4.468   1.960   1.271
 4182SOL    HW114378   4.403   1.969   1.340
 4182SOL    HW214379   4.468   2.045   1.227
 4183SOL     OW14380   5.461  13.291   9.694
 4183SOL    HW114381   5.374  13.263   9.668
 4183SOL    HW214382   5.504  13.212   9.727
 4184SOL     OW14383   1.771   5.410   3.012
 4184SOL    HW114384   1.852   5.380   2.971
 4184SOL    HW214385   1.786   5.397   3.106
 4185SOL     OW14386  12.190  10.499   6.190
 4185SOL    HW114387  12.095  10.514   6.191
 4185SOL    HW214388  12.200  10.407   6.213
 4186SOL     OW14389   9.017   4.222   4.353
 4186SOL    HW114390   8.978   4.250   4.435
 4186SOL    HW214391   8.991   4.130   4.344
 4187SOL     OW14392  13.022   4.448   3.114
 4187SOL    HW114393  13.038   4.418   3.203
 4187SOL    HW214394  12.968   4.526   3.124
 4188SOL     OW14395   5.830   1.982   7.605
 4188SOL    HW114396   5.901   1.924   7.576
 4188SOL    HW214397   5.837   2.058   7.547
 4189SOL     OW14398   0.349  10.569   2.104
 4189SOL    HW114399   0.279  10.521   2.060
 4189SOL    HW214400   0.364  10.520   2.185
 4190SOL     OW14401  13.647   6.474   3.075
 4190SOL    HW114402  13.564   6.480   3.027
 4190SOL    HW214403  13.621   6.478   3.167
 4191SOL     OW14404   6.560   2.591   7.130
 4191SOL    HW114405   6.548   2.640   7.211
 4191SOL    HW214406   6.512   2.641   7.064
 4192SOL     OW14407   2.224   6.909   9.386
 4192SOL    HW114408   2.178   6.848   9.444
 4192SOL    HW214409   2.193   6.885   9.298
 4193SOL     OW14410   3.859  10.273   2.228
 4193SOL    HW114411   3.908  10.305   2.153
 4193SOL    HW214412   3.773  10.315   2.221
 4194SOL     OW14413   8.204   5.446   9.516
 4194SOL    HW114414   8.259   5.411   9.586
 4194SOL    HW214415   8.263   5.454   9.441
 4195SOL     OW14416   0.387   4.174   9.989
 4195SOL    HW114417   0.314   4.201   9.933
 4195SOL    HW214418   0.383   4.079   9.990
 4196SOL     OW14419   1.312   3.675  14.498
 4196SOL    HW114420   1.233   3.634  14.532
 4196SOL    HW214421   1.282   3.754  14.454
 4197SOL     OW14422   7.524  10.382   1.188
 4197SOL    HW114423   7.484  10.340   1.265
 4197SOL    HW214424   7.608  10.337   1.177
 4198SOL     OW14425   6.083   0.416  11.872
 4198SOL    HW114426   6.166   0.403  11.826
 4198SOL    HW214427   6.021   0.360  11.825
 4199SOL     OW14428  13.324   3.073   4.875
 4199SOL    HW114429  13.384   3.058   4.948
 4199SOL    HW214430  13.290   2.987   4.852
 4200SOL     OW14431   0.068   7.830   0.744
 4200SOL    HW114432   0.063   7.751   0.797
 4200SOL    HW214433   0.046   7.800   0.655
 4201SOL     OW14434   1.568  13.447   6.941
 4201SOL    HW114435   1.557  13.507   7.015
 4201SOL    HW214436   1.501  13.473   6.878
 4202SOL     OW14437   9.760   3.429  11.330
 4202SOL    HW114438   9.717   3.419  11.245
 4202SOL    HW214439   9.694   3.399  11.394
 4203SOL     OW14440   8.980   0.246   9.658
 4203SOL    HW114441   8.905   0.190   9.637
 4203SOL    HW214442   9.034   0.244   9.578
 4204SOL     OW14443   6.451  13.525  14.592
 4204SOL    HW114444   6.506  13.492  14.662
 4204SOL    HW214445   6.483  13.481  14.513
 4205SOL     OW14446   4.026   3.715  12.592
 4205SOL    HW114447   4.012   3.723  12.686
 4205SOL    HW214448   4.046   3.622  12.578
 4206SOL     OW14449   0.877   9.945   7.558
 4206SOL    HW114450   0.891   9.917   7.648
 4206SOL    HW214451   0.822   9.876   7.520
 4207SOL     OW14452   5.792   2.934  14.515
 4207SOL    HW114453   5.856   2.991  14.558
 4207SOL    HW214454   5.738   2.994  14.463
 4208SOL     OW14455  14.826   8.920   1.848
 4208SOL    HW114456  14.789   8.867   1.919
 4208SOL    HW214457  14.749   8.951   1.799
 4209SOL     OW14458  13.522   9.967  10.177
 4209SOL    HW114459  13.514   9.872  10.182
 4209SOL    HW214460  13.554   9.993  10.263
 4210SOL     OW14461  11.828  11.305   1.889
 4210SOL    HW114462  11.812  11.369   1.958
 4210SOL    HW214463  11.923  11.292   1.889
 4211SOL     OW14464   8.003   1.328  10.577
 4211SOL    HW114465   8.086   1.374  10.562
 4211SOL    HW214466   7.948   1.392  10.621
 4212SOL     OW14467   8.770  10.235   7.229
 4212SOL    HW114468   8.738  10.325   7.218
 4212SOL    HW214469   8.865  10.245   7.237
 4213SOL     OW14470   3.312  12.733   3.017
 4213SOL    HW114471   3.298  12.827   3.025
 4213SOL    HW214472   3.229  12.694   3.046
 4214SOL     OW14473   6.878   3.889   4.679
 4214SOL    HW114474   6.877   3.870   4.585
 4214SOL    HW214475   6.970   3.904   4.700
 4215SOL     OW14476   5.375  14.670   4.012
 4215SOL    HW114477   5.438  14.737   3.986
 4215SOL    HW214478   5.292  14.701   3.974
 4216SOL     OW14479   8.629   6.601   8.706
 4216SOL    HW114480   8.680   6.542   8.761
 4216SOL    HW214481   8.694   6.663   8.671
 4217SOL     OW14482  12.526   4.241   0.244
 4217SOL    HW114483  12.441   4.250   0.287
 4217SOL    HW214484  12.514   4.279   0.157
 4218SOL     OW14485   7.539   7.418   0.961
 4218SOL    HW114486   7.556   7.463   1.044
 4218SOL    HW214487   7.511   7.330   0.987
 4219SOL     OW14488   7.837  11.092   6.788
 4219SOL    HW114489   7.833  11.107   6.694
 4219SOL    HW214490   7.746  11.085   6.816
 4220SOL     OW14491  10.901   0.024   7.441
 4220SOL    HW114492  10.834   0.049   7.504
 4220SOL    HW214493  10.890  14.801   7.430
 4221SOL     OW14494   4.812   4.632   7.455
 4221SOL    HW114495   4.770   4.549   7.478
 4221SOL    HW214496   4.740   4.694   7.444
 4222SOL     OW14497   2.647   0.181   2.903
 4222SOL    HW114498   2.671   0.135   2.983
 4222SOL    HW214499   2.551   0.179   2.901
 4223SOL     OW14500   4.620  13.283   6.389
 4223SOL    HW114501   4.713  13.296   6.403
 4223SOL    HW214502   4.597  13.346   6.320
 4224SOL     OW14503   3.621   9.908   5.488
 4224SOL    HW114504   3.582   9.930   5.403
 4224SOL    HW214505   3.698   9.965   5.494
 4225SOL     OW14506   6.729   3.616  10.455
 4225SOL    HW114507   6.790   3.544  10.442
 4225SOL    HW214508   6.777   3.695  10.430
 4226SOL     OW14509   1.350  13.139   3.086
 4226SOL    HW114510   1.312  13.138   3.174
 4226SOL    HW214511   1.279  13.110   3.029
 4227SOL     OW14512   1.338   5.340  14.149
 4227SOL    HW114513   1.321   5.274  14.217
 4227SOL    HW214514   1.313   5.423  14.189
 4228SOL     OW14515   4.455   1.703   0.392
 4228SOL    HW114516   4.478   1.690   0.484
 4228SOL    HW214517   4.385   1.640   0.376
 4229SOL     OW14518  12.040  14.313   0.151
 4229SOL    HW114519  12.087  14.393   0.177
 4229SOL    HW214520  12.002  14.334   0.066
 4230SOL     OW14521  12.576  10.906  10.977
 4230SOL    HW114522  12.596  10.931  11.067
 4230SOL    HW214523  12.485  10.876  10.980
 4231SOL     OW14524   4.606   5.932   5.637
 4231SOL    HW114525   4.639   5.858   5.689
 4231SOL    HW214526   4.642   6.009   5.680
 4232SOL     OW14527   4.276   4.603  13.981
 4232SOL    HW114528   4.194   4.652  13.991
 4232SOL    HW214529   4.340   4.669  13.955
 4233SOL     OW14530   8.958   5.402   3.842
 4233SOL    HW114531   8.903   5.369   3.912
 4233SOL    HW214532   8.935   5.495   3.834
 4234SOL     OW14533  12.708  11.480   1.624
 4234SOL    HW114534  12.645  11.546   1.655
 4234SOL    HW214535  12.659  11.398   1.626
 4235SOL     OW14536   1.499  12.871   3.195
 4235SOL    HW114537   1.498  12.950   3.249
 4235SOL    HW214538   1.558  12.811   3.241
 4236SOL     OW14539   7.322   8.527   4.505
 4236SOL    HW114540   7.407   8.566   4.527
 4236SOL    HW214541   7.292   8.488   4.587
 4237SOL     OW14542  11.342  10.562   1.417
 4237SOL    HW114543  11.383  10.645   1.395
 4237SOL    HW214544  11.407  10.516   1.470
 4238SOL     OW14545   7.472   5.345   4.576
 4238SOL    HW114546   7.539   5.412   4.568
 4238SOL    HW214547   7.501   5.274   4.518
 4239SOL     OW14548   3.785  10.441  12.284
 4239SOL    HW114549   3.825  10.522  12.253
 4239SOL    HW214550   3.844  10.409  12.352
 4240SOL     OW14551   9.268   1.276  10.449
 4240SOL    HW114552   9.278   1.282  10.544
 4240SOL    HW214553   9.311   1.355  10.416
 4241SOL     OW14554   3.467  14.843   4.369
 4241SOL    HW114555   3.498   0.059   4.392
 4241SOL    HW214556   3.463  14.843   4.273
 4242SOL     OW14557  14.680   4.789   1.706
 4242SOL    HW114558  14.633   4.869   1.727
 4242SOL    HW214559  14.718   4.761   1.789
 4243SOL     OW14560  13.422   8.997  10.640
 4243SOL    HW114561  13.498   8.990  10.583
 4243SOL    HW214562  13.457   8.995  10.729
 4244SOL     OW14563   7.102   6.159   7.078
 4244SOL    HW114564   7.076   6.096   7.146
 4244SOL    HW214565   7.104   6.243   7.123
 4245SOL     OW14566  10.805  11.354   6.818
 4245SOL    HW114567  10.730  11.316   6.865
 4245SOL    HW214568  10.772  11.437   6.785
 4246SOL     OW14569   2.530  13.800   8.158
 4246SOL    HW114570   2.472  13.741   8.111
 4246SOL    HW214571   2.588  13.835   8.091
 4247SOL     OW14572   8.802  12.884   4.058
 4247SOL    HW114573   8.784  12.969   4.018
 4247SOL    HW214574   8.872  12.901   4.121
 4248SOL     OW14575  10.861   3.942  11.137
 4248SOL    HW114576  10.945   3.986  11.123
 4248SOL    HW214577  10.836   3.966  11.226
 4249SOL     OW14578   0.623   9.965   3.740
 4249SOL    HW114579   0.644   9.908   3.666
 4249SOL    HW214580   0.601   9.906   3.811
 4250SOL     OW14581  14.770   2.915   7.385
 4250SOL    HW114582  14.787   2.901   7.292
 4250SOL    HW214583  14.751   2.828   7.419
 4251SOL     OW14584   3.589  14.467   9.868
 4251SOL    HW114585   3.589  14.406   9.942
 4251SOL    HW214586   3.567  14.552   9.906
 4252SOL     OW14587   6.420   3.969   1.020
 4252SOL    HW114588   6.502   3.938   1.057
 4252SOL    HW214589   6.393   4.040   1.078
 4253SOL     OW14590   1.335  12.331   8.983
 4253SOL    HW114591   1.355  12.271   9.056
 4253SOL    HW214592   1.399  12.402   8.992
 4254SOL     OW14593   9.873  12.607   3.297
 4254SOL    HW114594   9.945  12.551   3.266
 4254SOL    HW214595   9.796  12.550   3.294
 4255SOL     OW14596   0.009  10.161   1.909
 4255SOL    HW114597  14.861  10.101   1.837
 4255SOL    HW214598  14.796  10.198   1.933
 4256SOL     OW14599   5.579   5.369   3.921
 4256SOL    HW114600   5.538   5.331   3.999
 4256SOL    HW214601   5.673   5.360   3.937
 4257SOL     OW14602   2.803   6.046   9.736
 4257SOL    HW114603   2.857   6.088   9.803
 4257SOL    HW214604   2.864   5.991   9.687
 4258SOL     OW14605  14.018   9.787  10.417
 4258SOL    HW114606  13.977   9.781  10.504
 4258SOL    HW214607  14.006   9.879  10.391
 4259SOL     OW14608   3.401   8.137   8.773
 4259SOL    HW114609   3.474   8.108   8.828
 4259SOL    HW214610   3.391   8.230   8.793
 4260SOL     OW14611   8.471   2.793   8.913
 4260SOL    HW114612   8.493   2.824   8.825
 4260SOL    HW214613   8.412   2.719   8.898
 4261SOL     OW14614   6.734  10.407  14.497
 4261SOL    HW114615   6.684  10.421  14.417
 4261SOL    HW214616   6.819  10.447  14.480
 4262SOL     OW14617  14.224   9.054  12.636
 4262SOL    HW114618  14.157   9.109  12.677
 4262SOL    HW214619  14.307   9.094  12.661
 4263SOL     OW14620  14.722   9.215   4.413
 4263SOL    HW114621  14.642   9.163   4.402
 4263SOL    HW214622  14.694   9.294   4.458
 4264SOL     OW14623  13.218  10.129   8.666
 4264SOL    HW114624  13.211  10.034   8.670
 4264SOL    HW214625  13.224  10.157   8.757
 4265SOL     OW14626  13.164   4.404  12.511
 4265SOL    HW114627  13.242   4.351  12.492
 4265SOL    HW214628  13.093   4.340  12.520
 4266SOL     OW14629   3.214   5.897   2.109
 4266SOL    HW114630   3.215   5.842   2.031
 4266SOL    HW214631   3.203   5.836   2.182
 4267SOL     OW14632  12.674   6.855   7.760
 4267SOL    HW114633  12.635   6.942   7.771
 4267SOL    HW214634  12.763   6.865   7.793
 4268SOL     OW14635   7.068   1.202   7.293
 4268SOL    HW114636   7.095   1.255   7.218
 4268SOL    HW214637   6.981   1.171   7.270
 4269SOL     OW14638  11.628   5.761   8.666
 4269SOL    HW114639  11.537   5.788   8.658
 4269SOL    HW214640  11.634   5.720   8.752
 4270SOL     OW14641   0.526   8.987  10.662
 4270SOL    HW114642   0.558   8.940  10.739
 4270SOL    HW214643   0.441   8.947  10.643
 4271SOL     OW14644   0.486   1.449   8.917
 4271SOL    HW114645   0.559   1.392   8.894
 4271SOL    HW214646   0.495   1.463   9.011
 4272SOL     OW14647   9.701   0.757   4.880
 4272SOL    HW114648   9.625   0.730   4.931
 4272SOL    HW214649   9.705   0.694   4.807
 4273SOL     OW14650   0.199   3.351  10.918
 4273SOL    HW114651   0.197   3.357  10.822
 4273SOL    HW214652   0.286   3.384  10.942
 4274SOL     OW14653  12.928   8.711   8.896
 4274SOL    HW114654  12.991   8.667   8.839
 4274SOL    HW214655  12.916   8.651   8.969
 4275SOL     OW14656   2.312   5.589   2.680
 4275SOL    HW114657   2.330   5.677   2.649
 4275SOL    HW214658   2.398   5.547   2.686
 4276SOL     OW14659   1.253   4.068   8.378
 4276SOL    HW114660   1.160   4.091   8.373
 4276SOL    HW214661   1.265   4.034   8.466
 4277SOL     OW14662   5.452  12.101   6.990
 4277SOL    HW114663   5.452  12.084   7.084
 4277SOL    HW214664   5.504  12.181   6.980
 4278SOL     OW14665   4.341   0.421   2.642
 4278SOL    HW114666   4.434   0.419   2.622
 4278SOL    HW214667   4.300   0.372   2.571
 4279SOL     OW14668  10.618  10.945   1.508
 4279SOL    HW114669  10.685  10.923   1.443
 4279SOL    HW214670  10.617  10.870   1.567
 4280SOL     OW14671   1.460   6.523  14.577
 4280SOL    HW114672   1.382   6.571  14.548
 4280SOL    HW214673   1.495   6.576  14.649
 4281SOL     OW14674  11.596   0.167   2.086
 4281SOL    HW114675  11.553   0.185   2.170
 4281SOL    HW214676  11.662   0.101   2.107
 4282SOL     OW14677   6.348   2.232   0.857
 4282SOL    HW114678   6.444   2.236   0.854
 4282SOL    HW214679   6.323   2.302   0.916
 4283SOL     OW14680  13.276   9.060   4.132
 4283SOL    HW114681  13.359   9.020   4.157
 4283SOL    HW214682  13.218   9.042   4.206
 4284SOL     OW14683   2.096   5.483   3.579
 4284SOL    HW114684   2.114   5.390   3.592
 4284SOL    HW214685   2.165   5.513   3.520
 4285SOL     OW14686   9.043  10.832  11.042
 4285SOL    HW114687   9.058  10.779  11.120
 4285SOL    HW214688   8.959  10.874  11.058
 4286SOL     OW14689  14.492  10.337  14.625
 4286SOL    HW114690  14.411  10.335  14.573
 4286SOL    HW214691  14.466  10.302  14.710
 4287SOL     OW14692   1.052   1.260  10.458
 4287SOL    HW114693   0.983   1.239  10.395
 4287SOL    HW214694   1.127   1.208  10.430
 4288SOL     OW14695   6.517   4.024   4.752
 4288SOL    HW114696   6.536   3.939   4.712
 4288SOL    HW214697   6.458   4.003   4.824
 4289SOL     OW14698   0.259  13.777   3.067
 4289SOL    HW114699   0.164  13.767   3.065
 4289SOL    HW214700   0.287  13.731   3.146
 4290SOL     OW14701  13.930   3.767  13.835
 4290SOL    HW114702  13.838   3.794  13.840
 4290SOL    HW214703  13.946   3.755  13.742
 4291SOL     OW14704   0.696   4.261   2.033
 4291SOL    HW114705   0.762   4.282   1.968
 4291SOL    HW214706   0.680   4.167   2.022
 4292SOL     OW14707   3.030   9.818   1.217
 4292SOL    HW114708   3.102   9.771   1.259
 4292SOL    HW214709   2.999   9.758   1.148
 4293SOL     OW14710   9.408   7.187  14.050
 4293SOL    HW114711   9.437   7.196  14.141
 4293SOL    HW214712   9.465   7.245  14.000
 4294SOL     OW14713   4.268   3.696  14.108
 4294SOL    HW114714   4.189   3.721  14.060
 4294SOL    HW214715   4.255   3.730  14.196
 4295SOL     OW14716   5.663   8.049   2.003
 4295SOL    HW114717   5.697   8.129   2.043
 4295SOL    HW214718   5.636   8.076   1.915
 4296SOL     OW14719   5.040   5.516   5.006
 4296SOL    HW114720   5.120   5.465   5.019
 4296SOL    HW214721   5.004   5.525   5.094
 4297SOL     OW14722   3.706  11.176   1.922
 4297SOL    HW114723   3.745  11.120   1.989
 4297SOL    HW214724   3.753  11.259   1.930
 4298SOL     OW14725   5.385  13.105   8.047
 4298SOL    HW114726   5.295  13.129   8.069
 4298SOL    HW214727   5.439  13.174   8.087
 4299SOL     OW14728  14.761   3.987  11.094
 4299SOL    HW114729  14.800   3.925  11.032
 4299SOL    HW214730  14.805   4.070  11.076
 4300SOL     OW14731   7.571   5.762   5.382
 4300SOL    HW114732   7.518   5.825   5.430
 4300SOL    HW214733   7.599   5.808   5.303
 4301SOL     OW14734   5.741   0.494   8.659
 4301SOL    HW114735   5.646   0.489   8.646
 4301SOL    HW214736   5.768   0.568   8.605
 4302SOL     OW14737  14.059  12.000   4.910
 4302SOL    HW114738  14.046  11.905   4.908
 4302SOL    HW214739  13.973  12.036   4.934
 4303SOL     OW14740   2.113   5.672   1.216
 4303SOL    HW114741   2.120   5.626   1.300
 4303SOL    HW214742   2.094   5.763   1.240
 4304SOL     OW14743  13.482   1.084   7.375
 4304SOL    HW114744  13.398   1.129   7.386
 4304SOL    HW214745  13.512   1.111   7.289
 4305SOL     OW14746   9.514   6.154   6.127
 4305SOL    HW114747   9.572   6.228   6.116
 4305SOL    HW214748   9.469   6.145   6.043
 4306SOL     OW14749   7.237  10.831   7.645
 4306SOL    HW114750   7.267  10.918   7.671
 4306SOL    HW214751   7.142  10.840   7.635
 4307SOL     OW14752   6.455   0.103   6.290
 4307SOL    HW114753   6.367   0.130   6.262
 4307SOL    HW214754   6.447   0.084   6.383
 4308SOL     OW14755   7.542   0.869  11.668
 4308SOL    HW114756   7.467   0.827  11.711
 4308SOL    HW214757   7.598   0.796  11.641
 4309SOL     OW14758  11.847   1.527   3.021
 4309SOL    HW114759  11.934   1.528   3.062
 4309SOL    HW214760  11.856   1.467   2.948
 4310SOL     OW14761   0.306   6.093   6.102
 4310SOL    HW114762   0.388   6.060   6.067
 4310SOL    HW214763   0.317   6.188   6.102
 4311SOL     OW14764  12.743   0.952   3.299
 4311SOL    HW114765  12.812   1.015   3.320
 4311SOL    HW214766  12.780   0.899   3.229
 4312SOL     OW14767   5.675  13.331   7.992
 4312SOL    HW114768   5.589  13.345   8.033
 4312SOL    HW214769   5.736  13.375   8.051
 4313SOL     OW14770   5.089  10.973   8.839
 4313SOL    HW114771   5.039  10.952   8.918
 4313SOL    HW214772   5.179  10.949   8.859
 4314SOL     OW14773  12.873   0.620   5.810
 4314SOL    HW114774  12.864   0.565   5.887
 4314SOL    HW214775  12.785   0.627   5.775
 4315SOL     OW14776   2.787   2.370   9.612
 4315SOL    HW114777   2.765   2.417   9.693
 4315SOL    HW214778   2.703   2.360   9.567
 4316SOL     OW14779  10.829   6.842   4.024
 4316SOL    HW114780  10.817   6.937   4.027
 4316SOL    HW214781  10.748   6.806   4.061
 4317SOL     OW14782  14.445   4.813   3.157
 4317SOL    HW114783  14.451   4.838   3.064
 4317SOL    HW214784  14.535   4.817   3.189
 4318SOL     OW14785   3.594   0.202   4.433
 4318SOL    HW114786   3.566   0.285   4.395
 4318SOL    HW214787   3.634   0.226   4.517
 4319SOL     OW14788   3.260   1.823  14.717
 4319SOL    HW114789   3.312   1.826  14.636
 4319SOL    HW214790   3.325   1.828  14.787
 4320SOL     OW14791   0.061   6.394   5.682
 4320SOL    HW114792   0.052   6.303   5.656
 4320SOL    HW214793  14.844   6.427   5.686
 4321SOL     OW14794  10.016   1.241  12.667
 4321SOL    HW114795   9.925   1.219  12.688
 4321SOL    HW214796  10.059   1.251  12.752
 4322SOL     OW14797   0.258   0.418   8.510
 4322SOL    HW114798   0.170   0.441   8.540
 4322SOL    HW214799   0.306   0.396   8.589
 4323SOL     OW14800   5.930  14.039  13.936
 4323SOL    HW114801   5.879  13.963  13.908
 4323SOL    HW214802   6.021  14.014  13.920
 4324SOL     OW14803   6.574   7.344   8.496
 4324SOL    HW114804   6.642   7.405   8.466
 4324SOL    HW214805   6.500   7.359   8.438
 4325SOL     OW14806   3.019   3.021  12.200
 4325SOL    HW114807   3.037   2.931  12.229
 4325SOL    HW214808   2.951   3.011  12.134
 4326SOL     OW14809   5.239   0.317   5.158
 4326SOL    HW114810   5.259   0.358   5.243
 4326SOL    HW214811   5.319   0.328   5.107
 4327SOL     OW14812   6.761   7.202   0.706
 4327SOL    HW114813   6.744   7.113   0.738
 4327SOL    HW214814   6.682   7.251   0.728
 4328SOL     OW14815  11.451   4.315  11.632
 4328SOL    HW114816  11.472   4.355  11.547
 4328SOL    HW214817  11.386   4.373  11.671
 4329SOL     OW14818   8.568   9.818  10.918
 4329SOL    HW114819   8.564   9.777  10.831
 4329SOL    HW214820   8.483   9.797  10.958
 4330SOL     OW14821  10.913  13.573   0.529
 4330SOL    HW114822  10.955  13.571   0.443
 4330SOL    HW214823  10.934  13.659   0.565
 4331SOL     OW14824  11.897   7.658   5.726
 4331SOL    HW114825  11.861   7.746   5.731
 4331SOL    HW214826  11.928   7.649   5.635
 4332SOL     OW14827   7.887  11.443   4.164
 4332SOL    HW114828   7.914  11.353   4.182
 4332SOL    HW214829   7.965  11.485   4.128
 4333SOL     OW14830  11.584   4.577   9.512
 4333SOL    HW114831  11.566   4.657   9.463
 4333SOL    HW214832  11.584   4.508   9.446
 4334SOL     OW14833   0.201   6.393   0.443
 4334SOL    HW114834   0.277   6.334   0.446
 4334SOL    HW214835   0.171   6.400   0.533
 4335SOL     OW14836   6.405   5.391   9.692
 4335SOL    HW114837   6.483   5.419   9.740
 4335SOL    HW214838   6.394   5.299   9.715
 4336SOL     OW14839  10.942   8.642   3.231
 4336SOL    HW114840  10.889   8.631   3.152
 4336SOL    HW214841  10.900   8.587   3.297
 4337SOL     OW14842  10.002   3.391   3.998
 4337SOL    HW114843  10.020   3.297   3.993
 4337SOL    HW214844   9.935   3.406   3.931
 4338SOL     OW14845   2.649  14.506   7.007
 4338SOL    HW114846   2.608  14.498   6.921
 4338SOL    HW214847   2.712  14.434   7.011
 4339SOL     OW14848   8.544  10.620  12.343
 4339SOL    HW114849   8.637  10.637  12.329
 4339SOL    HW214850   8.534  10.526  12.329
 4340SOL     OW14851   0.877   5.298  10.032
 4340SOL    HW114852   0.824   5.272  10.107
 4340SOL    HW214853   0.864   5.228   9.968
 4341SOL     OW14854   9.424   3.931  14.108
 4341SOL    HW114855   9.505   3.940  14.058
 4341SOL    HW214856   9.398   3.839  14.095
 4342SOL     OW14857   0.250  13.919   0.913
 4342SOL    HW114858   0.206  14.003   0.921
 4342SOL    HW214859   0.210  13.865   0.982
 4343SOL     OW14860  11.701   5.740  11.451
 4343SOL    HW114861  11.766   5.740  11.381
 4343SOL    HW214862  11.710   5.826  11.492
 4344SOL     OW14863   6.483  14.857  11.713
 4344SOL    HW114864   6.507  14.820  11.798
 4344SOL    HW214865   6.415  14.798  11.680
 4345SOL     OW14866   1.679  10.547  13.246
 4345SOL    HW114867   1.653  10.573  13.158
 4345SOL    HW214868   1.599  10.551  13.297
 4346SOL     OW14869  10.578  11.409  13.125
 4346SOL    HW114870  10.566  11.483  13.067
 4346SOL    HW214871  10.672  11.404  13.138
 4347SOL     OW14872   4.294  11.849   2.244
 4347SOL    HW114873   4.284  11.785   2.315
 4347SOL    HW214874   4.207  11.886   2.233
 4348SOL     OW14875  12.932  13.654   6.265
 4348SOL    HW114876  12.868  13.695   6.207
 4348SOL    HW214877  13.015  13.695   6.240
 4349SOL     OW14878  10.820   2.257   9.310
 4349SOL    HW114879  10.734   2.278   9.348
 4349SOL    HW214880  10.843   2.334   9.259
 4350SOL     OW14881  14.219   2.385   5.051
 4350SOL    HW114882  14.168   2.319   5.003
 4350SOL    HW214883  14.179   2.388   5.138
 4351SOL     OW14884   7.190   1.340   3.595
 4351SOL    HW114885   7.151   1.253   3.604
 4351SOL    HW214886   7.130   1.397   3.643
 4352SOL     OW14887  12.623  13.535  14.827
 4352SOL    HW114888  12.699  13.589  14.804
 4352SOL    HW214889  12.607  13.554   0.047
 4353SOL     OW14890   4.863  12.278   4.680
 4353SOL    HW114891   4.920  12.295   4.755
 4353SOL    HW214892   4.787  12.334   4.695
 4354SOL     OW14893   0.092  14.599  10.874
 4354SOL    HW114894   0.052  14.533  10.817
 4354SOL    HW214895   0.122  14.668  10.814
 4355SOL     OW14896   2.999  14.738   6.400
 4355SOL    HW114897   3.060  14.811   6.400
 4355SOL    HW214898   2.935  14.759   6.468
 4356SOL     OW14899   8.023  11.791   1.616
 4356SOL    HW114900   8.072  11.840   1.683
 4356SOL    HW214901   7.931  11.814   1.633
 4357SOL     OW14902  10.525   7.856   4.786
 4357SOL    HW114903  10.447   7.806   4.762
 4357SOL    HW214904  10.542   7.911   4.710
 4358SOL     OW14905   7.426   5.340   3.292
 4358SOL    HW114906   7.373   5.374   3.364
 4358SOL    HW214907   7.513   5.327   3.330
 4359SOL     OW14908  10.408  14.459   3.143
 4359SOL    HW114909  10.378  14.454   3.052
 4359SOL    HW214910  10.371  14.542   3.176
 4360SOL     OW14911  13.685   0.859   0.339
 4360SOL    HW114912  13.698   0.874   0.245
 4360SOL    HW214913  13.754   0.798   0.363
 4361SOL     OW14914   4.021   2.992   1.101
 4361SOL    HW114915   4.023   3.081   1.066
 4361SOL    HW214916   3.964   2.998   1.178
 4362SOL     OW14917   6.799  10.467   0.143
 4362SOL    HW114918   6.799  10.417   0.062
 4362SOL    HW214919   6.867  10.427   0.197
 4363SOL     OW14920   2.132  10.246  10.685
 4363SOL    HW114921   2.139  10.271  10.593
 4363SOL    HW214922   2.051  10.196  10.691
 4364SOL     OW14923   6.233  13.303   2.050
 4364SOL    HW114924   6.306  13.332   2.104
 4364SOL    HW214925   6.229  13.208   2.064
 4365SOL     OW14926   0.772   9.041   5.202
 4365SOL    HW114927   0.747   9.005   5.117
 4365SOL    HW214928   0.743   8.976   5.265
 4366SOL     OW14929   2.754  10.212   3.012
 4366SOL    HW114930   2.746  10.300   3.048
 4366SOL    HW214931   2.829  10.173   3.056
 4367SOL     OW14932   2.241  13.521  10.768
 4367SOL    HW114933   2.181  13.514  10.694
 4367SOL    HW214934   2.236  13.436  10.812
 4368SOL     OW14935   1.222   5.026   3.854
 4368SOL    HW114936   1.184   5.097   3.905
 4368SOL    HW214937   1.307   5.059   3.826
 4369SOL     OW14938  11.175   2.500   4.271
 4369SOL    HW114939  11.107   2.457   4.218
 4369SOL    HW214940  11.129   2.572   4.314
 4370SOL     OW14941  12.055  12.335   1.304
 4370SOL    HW114942  12.110  12.283   1.362
 4370SOL    HW214943  12.050  12.284   1.223
 4371SOL     OW14944   2.117  11.664   7.101
 4371SOL    HW114945   2.071  11.740   7.065
 4371SOL    HW214946   2.202  11.699   7.129
 4372SOL     OW14947   7.037   2.521   3.903
 4372SOL    HW114948   7.130   2.502   3.897
 4372SOL    HW214949   7.015   2.562   3.819
 4373SOL     OW14950  14.004   8.814   8.024
 4373SOL    HW114951  13.916   8.827   8.061
 4373SOL    HW214952  14.063   8.824   8.099
 4374SOL     OW14953   0.868   0.254   2.884
 4374SOL    HW114954   0.934   0.240   2.816
 4374SOL    HW214955   0.784   0.241   2.840
 4375SOL     OW14956  11.544   4.288   1.127
 4375SOL    HW114957  11.596   4.346   1.182
 4375SOL    HW214958  11.575   4.200   1.149
 4376SOL     OW14959  10.739  11.663   4.556
 4376SOL    HW114960  10.671  11.686   4.493
 4376SOL    HW214961  10.792  11.597   4.511
 4377SOL     OW14962   9.469   0.040   6.367
 4377SOL    HW114963   9.426  14.835   6.332
 4377SOL    HW214964   9.430   0.052   6.454
 4378SOL     OW14965   6.051  11.373   2.014
 4378SOL    HW114966   5.995  11.446   1.989
 4378SOL    HW214967   6.041  11.309   1.944
 4379SOL     OW14968  12.115  12.624   0.653
 4379SOL    HW114969  12.150  12.713   0.649
 4379SOL    HW214970  12.192  12.570   0.669
 4380SOL     OW14971   2.849   8.140   5.607
 4380SOL    HW114972   2.805   8.056   5.615
 4380SOL    HW214973   2.779   8.205   5.614
 4381SOL     OW14974  12.063  14.682  11.397
 4381SOL    HW114975  12.068  14.621  11.471
 4381SOL    HW214976  12.151  14.683  11.361
 4382SOL     OW14977   1.884   8.094   3.137
 4382SOL    HW114978   1.940   8.143   3.197
 4382SOL    HW214979   1.899   8.134   3.052
 4383SOL     OW14980  10.780  14.509   8.016
 4383SOL    HW114981  10.701  14.486   8.066
 4383SOL    HW214982  10.853  14.486   8.073
 4384SOL     OW14983   5.547   0.299   4.521
 4384SOL    HW114984   5.488   0.281   4.594
 4384SOL    HW214985   5.609   0.363   4.556
 4385SOL     OW14986   0.560   0.856   4.836
 4385SOL    HW114987   0.549   0.817   4.749
 4385SOL    HW214988   0.645   0.900   4.832
 4386SOL     OW14989   7.129   8.739   6.921
 4386SOL    HW114990   7.176   8.678   6.978
 4386SOL    HW214991   7.040   8.741   6.956
 4387SOL     OW14992   5.189   2.288  11.959
 4387SOL    HW114993   5.143   2.350  12.016
 4387SOL    HW214994   5.279   2.321  11.956
 4388SOL     OW14995  10.963  13.798   4.975
 4388SOL    HW114996  11.058  13.787   4.989
 4388SOL    HW214997  10.943  13.884   5.011
 4389SOL     OW14998   0.298   6.940  11.893
 4389SOL    HW114999   0.385   6.959  11.929
 4389SOL    HW215000   0.287   7.005  11.824
 4390SOL     OW15001   4.482   8.924   4.538
 4390SOL    HW115002   4.533   8.942   4.617
 4390SOL    HW215003   4.454   9.010   4.507
 4391SOL     OW15004   6.679   4.379   4.100
 4391SOL    HW115005   6.634   4.386   4.185
 4391SOL    HW215006   6.740   4.306   4.112
 4392SOL     OW15007   7.799   0.031   0.644
 4392SOL    HW115008   7.786   0.047   0.738
 4392SOL    HW215009   7.873  14.844   0.640
 4393SOL     OW15010   7.754   2.819  14.224
 4393SOL    HW115011   7.722   2.769  14.299
 4393SOL    HW215012   7.676   2.840  14.174
 4394SOL     OW15013   4.898   9.877   0.944
 4394SOL    HW115014   4.847   9.920   1.013
 4394SOL    HW215015   4.853   9.902   0.863
 4395SOL     OW15016   0.428   3.945   1.022
 4395SOL    HW115017   0.373   4.022   1.032
 4395SOL    HW215018   0.419   3.921   0.929
 4396SOL     OW15019  14.286  11.133   8.265
 4396SOL    HW115020  14.242  11.095   8.341
 4396SOL    HW215021  14.267  11.071   8.194
 4397SOL     OW15022  10.583   6.643   1.574
 4397SOL    HW115023  10.668   6.646   1.530
 4397SOL    HW215024  10.603   6.655   1.666
 4398SOL     OW15025  11.711   4.200   5.905
 4398SOL    HW115026  11.637   4.258   5.927
 4398SOL    HW215027  11.786   4.240   5.949
 4399SOL     OW15028  14.382   8.036   4.284
 4399SOL    HW115029  14.371   7.941   4.291
 4399SOL    HW215030  14.354   8.056   4.195
 4400SOL     OW15031  11.799  14.452  10.351
 4400SOL    HW115032  11.737  14.519  10.379
 4400SOL    HW215033  11.874  14.461  10.409
 4401SOL     OW15034   0.213  10.016   1.038
 4401SOL    HW115035   0.282   9.973   1.088
 4401SOL    HW215036   0.226  10.109   1.054
 4402SOL     OW15037  14.863  13.379   5.123
 4402SOL    HW115038  14.773  13.411   5.125
 4402SOL    HW215039  14.859  13.290   5.157
 4403SOL     OW15040   7.905   7.708  14.040
 4403SOL    HW115041   7.851   7.787  14.035
 4403SOL    HW215042   7.843   7.636  14.038
 4404SOL     OW15043   5.791   3.605   1.724
 4404SOL    HW115044   5.716   3.632   1.671
 4404SOL    HW215045   5.756   3.592   1.812
 4405SOL     OW15046   9.049   2.995   4.940
 4405SOL    HW115047   8.979   2.974   5.002
 4405SOL    HW215048   9.035   2.934   4.867
 4406SOL     OW15049   2.641  11.535  11.210
 4406SOL    HW115050   2.619  11.442  11.217
 4406SOL    HW215051   2.729  11.535  11.172
 4407SOL     OW15052  12.227   5.151  10.897
 4407SOL    HW115053  12.143   5.175  10.857
 4407SOL    HW215054  12.225   5.193  10.983
 4408SOL     OW15055  14.633   5.946   3.424
 4408SOL    HW115056  14.697   6.016   3.408
 4408SOL    HW215057  14.682   5.865   3.412
 4409SOL     OW15058  10.913   2.045  12.194
 4409SOL    HW115059  10.929   2.088  12.110
 4409SOL    HW215060  10.936   1.954  12.179
 4410SOL     OW15061  14.208  10.147   0.224
 4410SOL    HW115062  14.171  10.150   0.312
 4410SOL    HW215063  14.159  10.212   0.175
 4411SOL     OW15064  10.657   3.933   2.006
 4411SOL    HW115065  10.651   3.950   2.100
 4411SOL    HW215066  10.567   3.912   1.980
 4412SOL     OW15067   3.150   5.665   7.953
 4412SOL    HW115068   3.149   5.571   7.935
 4412SOL    HW215069   3.223   5.677   8.014
 4413SOL     OW15070   4.926   8.782  11.661
 4413SOL    HW115071   4.834   8.795  11.683
 4413SOL    HW215072   4.953   8.865  11.621
 4414SOL     OW15073   8.916   5.815   8.651
 4414SOL    HW115074   8.930   5.853   8.738
 4414SOL    HW215075   8.996   5.766   8.634
 4415SOL     OW15076   3.648   8.261   8.360
 4415SOL    HW115077   3.655   8.203   8.436
 4415SOL    HW215078   3.684   8.210   8.288
 4416SOL     OW15079   0.598   2.807  10.844
 4416SOL    HW115080   0.660   2.842  10.779
 4416SOL    HW215081   0.598   2.713  10.829
 4417SOL     OW15082   3.675   2.271   6.531
 4417SOL    HW115083   3.704   2.206   6.467
 4417SOL    HW215084   3.687   2.355   6.487
 4418SOL     OW15085   4.300  11.508   1.180
 4418SOL    HW115086   4.213  11.490   1.216
 4418SOL    HW215087   4.284  11.552   1.097
 4419SOL     OW15088  13.170   0.231  14.054
 4419SOL    HW115089  13.242   0.215  14.116
 4419SOL    HW215090  13.150   0.324  14.065
 4420SOL     OW15091   4.099  14.039   2.469
 4420SOL    HW115092   4.042  14.092   2.525
 4420SOL    HW215093   4.068  13.950   2.481
 4421SOL     OW15094  13.483   5.066   1.778
 4421SOL    HW115095  13.388   5.068   1.791
 4421SOL    HW215096  13.495   5.016   1.697
 4422SOL     OW15097  10.780   5.699   9.010
 4422SOL    HW115098  10.834   5.694   9.089
 4422SOL    HW215099  10.709   5.759   9.034
 4423SOL     OW15100  12.230   6.375  11.733
 4423SOL    HW115101  12.237   6.351  11.825
 4423SOL    HW215102  12.259   6.467  11.730
 4424SOL     OW15103   6.285  11.805  14.852
 4424SOL    HW115104   6.362  11.841  14.808
 4424SOL    HW215105   6.279  11.853   0.062
 4425SOL     OW15106  10.365   4.557   7.777
 4425SOL    HW115107  10.326   4.624   7.721
 4425SOL    HW215108  10.422   4.507   7.718
 4426SOL     OW15109   1.778  10.781   0.014
 4426SOL    HW115110   1.841  10.812   0.079
 4426SOL    HW215111   1.693  10.797   0.054
 4427SOL     OW15112   5.711   0.216   0.403
 4427SOL    HW115113   5.705   0.148   0.470
 4427SOL    HW215114   5.620   0.237   0.382
 4428SOL     OW15115   0.933   5.823   1.992
 4428SOL    HW115116   0.881   5.829   2.072
 4428SOL    HW215117   0.876   5.859   1.923
 4429SOL     OW15118   8.299  11.636   9.827
 4429SOL    HW115119   8.364  11.627   9.897
 4429SOL    HW215120   8.258  11.549   9.822
 4430SOL     OW15121   9.114   6.111   1.345
 4430SOL    HW115122   9.107   6.072   1.433
 4430SOL    HW215123   9.105   6.037   1.286
 4431SOL     OW15124   1.691  10.905   2.111
 4431SOL    HW115125   1.631  10.933   2.042
 4431SOL    HW215126   1.641  10.917   2.192
 4432SOL     OW15127   0.731   0.183   3.857
 4432SOL    HW115128   0.827   0.178   3.850
 4432SOL    HW215129   0.715   0.192   3.951
 4433SOL     OW15130  12.297   6.709   9.508
 4433SOL    HW115131  12.223   6.763   9.535
 4433SOL    HW215132  12.260   6.622   9.494
 4434SOL     OW15133   7.434   9.000   4.587
 4434SOL    HW115134   7.513   9.021   4.537
 4434SOL    HW215135   7.430   8.904   4.585
 4435SOL     OW15136  12.396  13.172   6.358
 4435SOL    HW115137  12.366  13.114   6.428
 4435SOL    HW215138  12.408  13.257   6.401
 4436SOL     OW15139  11.406   8.645  10.941
 4436SOL    HW115140  11.327   8.662  10.890
 4436SOL    HW215141  11.468   8.609  10.878
 4437SOL     OW15142   9.712   5.320   7.194
 4437SOL    HW115143   9.632   5.325   7.142
 4437SOL    HW215144   9.775   5.276   7.137
 4438SOL     OW15145   2.133  11.889   4.299
 4438SOL    HW115146   2.183  11.811   4.324
 4438SOL    HW215147   2.051  11.881   4.348
 4439SOL     OW15148  10.842   7.324   2.356
 4439SOL    HW115149  10.897   7.380   2.412
 4439SOL    HW215150  10.905   7.278   2.300
 4440SOL     OW15151   0.136  11.254  13.695
 4440SOL    HW115152   0.118  11.308  13.773
 4440SOL    HW215153   0.061  11.195  13.689
 4441SOL     OW15154   2.331   7.801   7.209
 4441SOL    HW115155   2.250   7.770   7.250
 4441SOL    HW215156   2.386   7.828   7.282
 4442SOL     OW15157   6.361   3.821  10.155
 4442SOL    HW115158   6.407   3.819  10.239
 4442SOL    HW215159   6.356   3.914  10.133
 4443SOL     OW15160   6.347   6.302  13.278
 4443SOL    HW115161   6.303   6.223  13.309
 4443SOL    HW215162   6.400   6.272  13.204
 4444SOL     OW15163   6.581   6.210   1.896
 4444SOL    HW115164   6.610   6.149   1.828
 4444SOL    HW215165   6.634   6.187   1.973
 4445SOL     OW15166   6.208   7.380   3.908
 4445SOL    HW115167   6.180   7.439   3.978
 4445SOL    HW215168   6.299   7.404   3.891
 4446SOL     OW15169  14.514  10.114   1.174
 4446SOL    HW115170  14.428  10.076   1.194
 4446SOL    HW215171  14.494  10.193   1.123
 4447SOL     OW15172  14.593   5.972   2.069
 4447SOL    HW115173  14.587   5.882   2.038
 4447SOL    HW215174  14.643   5.966   2.151
 4448SOL     OW15175  13.239  12.145   7.408
 4448SOL    HW115176  13.265  12.157   7.317
 4448SOL    HW215177  13.169  12.209   7.422
 4449SOL     OW15178   8.770  10.290   6.587
 4449SOL    HW115179   8.741  10.205   6.620
 4449SOL    HW215180   8.823  10.269   6.509
 4450SOL     OW15181  10.007   6.144   3.393
 4450SOL    HW115182  10.033   6.149   3.301
 4450SOL    HW215183  10.050   6.219   3.434
 4451SOL     OW15184   0.843   9.608   6.774
 4451SOL    HW115185   0.890   9.533   6.738
 4451SOL    HW215186   0.906   9.680   6.771
 4452SOL     OW15187  10.036  14.081  12.714
 4452SOL    HW115188  10.103  14.021  12.746
 4452SOL    HW215189  10.072  14.168  12.729
 4453SOL     OW15190   3.396  12.949   2.107
 4453SOL    HW115191   3.485  12.927   2.079
 4453SOL    HW215192   3.364  13.009   2.040
 4454SOL     OW15193   6.529   2.127   1.098
 4454SOL    HW115194   6.549   2.121   1.005
 4454SOL    HW215195   6.468   2.201   1.105
 4455SOL     OW15196  13.798   4.382   8.689
 4455SOL    HW115197  13.817   4.300   8.735
 4455SOL    HW215198  13.884   4.418   8.667
 4456SOL     OW15199   4.654   0.073   7.056
 4456SOL    HW115200   4.686  14.855   7.063
 4456SOL    HW215201   4.560   0.064   7.038
 4457SOL     OW15202  11.098   7.305   7.495
 4457SOL    HW115203  11.189   7.275   7.487
 4457SOL    HW215204  11.103   7.399   7.476
 4458SOL     OW15205   1.853   6.209  12.142
 4458SOL    HW115206   1.795   6.282  12.165
 4458SOL    HW215207   1.882   6.229  12.053
 4459SOL     OW15208   3.627   8.542   8.547
 4459SOL    HW115209   3.715   8.572   8.522
 4459SOL    HW215210   3.643   8.459   8.592
 4460SOL     OW15211   9.327   2.527  11.608
 4460SOL    HW115212   9.318   2.615  11.646
 4460SOL    HW215213   9.238   2.492  11.608
 4461SOL     OW15214  11.231   0.058   2.852
 4461SOL    HW115215  11.269   0.061   2.940
 4461SOL    HW215216  11.137   0.069   2.866
 4462SOL     OW15217   1.076  10.527   5.455
 4462SOL    HW115218   1.049  10.589   5.522
 4462SOL    HW215219   1.166  10.552   5.433
 4463SOL     OW15220   5.217  10.763  10.735
 4463SOL    HW115221   5.312  10.766  10.731
 4463SOL    HW215222   5.192  10.842  10.782
 4464SOL     OW15223  14.389   6.168   8.523
 4464SOL    HW115224  14.355   6.124   8.445
 4464SOL    HW215225  14.469   6.120   8.545
 4465SOL     OW15226   2.352   3.323   4.273
 4465SOL    HW115227   2.339   3.315   4.179
 4465SOL    HW215228   2.398   3.405   4.285
 4466SOL     OW15229   0.968  14.257  13.445
 4466SOL    HW115230   1.043  14.312  13.467
 4466SOL    HW215231   0.961  14.263  13.350
 4467SOL     OW15232   2.519   4.932  13.601
 4467SOL    HW115233   2.459   4.989  13.649
 4467SOL    HW215234   2.519   4.850  13.650
 4468SOL     OW15235   7.895   7.568   8.700
 4468SOL    HW115236   7.829   7.633   8.674
 4468SOL    HW215237   7.948   7.613   8.766
 4469SOL     OW15238  12.537  11.318  12.309
 4469SOL    HW115239  12.475  11.302  12.237
 4469SOL    HW215240  12.500  11.271  12.384
 4470SOL     OW15241  12.528   8.410   5.247
 4470SOL    HW115242  12.617   8.412   5.282
 4470SOL    HW215243  12.473   8.387   5.322
 4471SOL     OW15244  12.657  11.884   7.009
 4471SOL    HW115245  12.653  11.792   7.033
 4471SOL    HW215246  12.701  11.927   7.083
 4472SOL     OW15247   0.288   8.762  12.839
 4472SOL    HW115248   0.380   8.787  12.831
 4472SOL    HW215249   0.265   8.730  12.752
 4473SOL     OW15250   9.127   1.472   7.342
 4473SOL    HW115251   9.108   1.553   7.293
 4473SOL    HW215252   9.092   1.488   7.429
 4474SOL     OW15253   6.050   7.627   9.610
 4474SOL    HW115254   6.044   7.703   9.667
 4474SOL    HW215255   5.996   7.561   9.651
 4475SOL     OW15256   2.202   6.501   1.238
 4475SOL    HW115257   2.177   6.460   1.321
 4475SOL    HW215258   2.162   6.445   1.171
 4476SOL     OW15259   8.232   7.881  10.144
 4476SOL    HW115260   8.250   7.949  10.209
 4476SOL    HW215261   8.251   7.922  10.060
 4477SOL     OW15262  10.144  11.975   8.344
 4477SOL    HW115263  10.164  11.930   8.426
 4477SOL    HW215264  10.060  11.938   8.316
 4478SOL     OW15265   1.084   3.915   4.067
 4478SOL    HW115266   1.089   3.820   4.078
 4478SOL    HW215267   1.166   3.948   4.103
 4479SOL     OW15268   2.777   3.646  12.149
 4479SOL    HW115269   2.826   3.616  12.225
 4479SOL    HW215270   2.687   3.619  12.166
 4480SOL     OW15271  13.432  13.418  12.263
 4480SOL    HW115272  13.396  13.421  12.175
 4480SOL    HW215273  13.467  13.505  12.278
 4481SOL     OW15274  13.280   8.042   3.218
 4481SOL    HW115275  13.249   8.038   3.308
 4481SOL    HW215276  13.206   8.076   3.168
 4482SOL     OW15277   6.085  11.689   2.741
 4482SOL    HW115278   6.051  11.653   2.659
 4482SOL    HW215279   6.008  11.723   2.786
 4483SOL     OW15280   1.780   0.764   0.726
 4483SOL    HW115281   1.803   0.697   0.661
 4483SOL    HW215282   1.824   0.843   0.696
 4484SOL     OW15283  12.017   6.082   1.794
 4484SOL    HW115284  12.016   6.101   1.888
 4484SOL    HW215285  11.925   6.087   1.768
 4485SOL     OW15286  12.451   5.976  11.045
 4485SOL    HW115287  12.390   5.916  11.003
 4485SOL    HW215288  12.517   5.919  11.085
 4486SOL     OW15289   5.762  14.558  11.310
 4486SOL    HW115290   5.720  14.473  11.322
 4486SOL    HW215291   5.762  14.598  11.397
 4487SOL     OW15292  10.710   9.784  11.838
 4487SOL    HW115293  10.649   9.719  11.803
 4487SOL    HW215294  10.755   9.739  11.909
 4488SOL     OW15295   8.560  12.134   2.640
 4488SOL    HW115296   8.600  12.213   2.605
 4488SOL    HW215297   8.613  12.062   2.604
 4489SOL     OW15298   0.581  10.125   2.322
 4489SOL    HW115299   0.581  10.033   2.296
 4489SOL    HW215300   0.605  10.124   2.414
 4490SOL     OW15301   5.523   6.762   9.261
 4490SOL    HW115302   5.453   6.751   9.196
 4490SOL    HW215303   5.491   6.832   9.319
 4491SOL     OW15304   3.453   4.832   4.578
 4491SOL    HW115305   3.358   4.842   4.569
 4491SOL    HW215306   3.464   4.771   4.651
 4492SOL     OW15307  11.940  10.460  12.277
 4492SOL    HW115308  12.004  10.432  12.344
 4492SOL    HW215309  11.983  10.533  12.233
 4493SOL     OW15310  14.832   9.791   3.972
 4493SOL    HW115311  14.819   9.807   3.878
 4493SOL    HW215312  14.752   9.748   4.000
 4494SOL     OW15313   2.151  12.936   4.522
 4494SOL    HW115314   2.131  13.021   4.562
 4494SOL    HW215315   2.212  12.956   4.451
 4495SOL     OW15316   1.393  14.553   3.665
 4495SOL    HW115317   1.351  14.564   3.579
 4495SOL    HW215318   1.411  14.459   3.671
 4496SOL     OW15319   8.895   9.016   2.390
 4496SOL    HW115320   8.957   9.088   2.396
 4496SOL    HW215321   8.950   8.938   2.378
 4497SOL     OW15322  13.705   1.321   9.344
 4497SOL    HW115323  13.716   1.236   9.301
 4497SOL    HW215324  13.729   1.306   9.435
 4498SOL     OW15325   3.927   9.548   0.409
 4498SOL    HW115326   3.891   9.567   0.496
 4498SOL    HW215327   3.891   9.616   0.352
 4499SOL     OW15328   0.717   8.861   2.506
 4499SOL    HW115329   0.777   8.791   2.529
 4499SOL    HW215330   0.751   8.938   2.551
 4500SOL     OW15331   7.906   6.612  13.693
 4500SOL    HW115332   7.894   6.535  13.638
 4500SOL    HW215333   7.824   6.661  13.685
 4501SOL     OW15334   5.574  10.930   3.424
 4501SOL    HW115335   5.579  10.954   3.331
 4501SOL    HW215336   5.644  10.865   3.436
 4502SOL     OW15337   3.987   2.397  14.032
 4502SOL    HW115338   4.081   2.409  14.050
 4502SOL    HW215339   3.965   2.468  13.971
 4503SOL     OW15340   6.539   4.160  13.802
 4503SOL    HW115341   6.445   4.141  13.807
 4503SOL    HW215342   6.550   4.240  13.854
 4504SOL     OW15343   7.454   0.498  13.219
 4504SOL    HW115344   7.529   0.489  13.160
 4504SOL    HW215345   7.481   0.566  13.281
 4505SOL     OW15346   2.389   2.751  12.115
 4505SOL    HW115347   2.340   2.824  12.154
 4505SOL    HW215348   2.343   2.731  12.034
 4506SOL     OW15349  10.006   6.579   5.734
 4506SOL    HW115350  10.009   6.596   5.640
 4506SOL    HW215351  10.018   6.665   5.775
 4507SOL     OW15352  14.202   4.792   3.354
 4507SOL    HW115353  14.207   4.882   3.319
 4507SOL    HW215354  14.137   4.749   3.298
 4508SOL     OW15355  13.713   1.739  14.533
 4508SOL    HW115356  13.707   1.811  14.595
 4508SOL    HW215357  13.798   1.699  14.550
 4509SOL     OW15358   6.056   0.023   1.279
 4509SOL    HW115359   6.050  14.832   1.351
 4509SOL    HW215360   6.035   0.107   1.319
 4510SOL     OW15361  14.725   2.468  13.314
 4510SOL    HW115362  14.648   2.466  13.371
 4510SOL    HW215363  14.699   2.523  13.240
 4511SOL     OW15364   9.407   2.248  12.505
 4511SOL    HW115365   9.416   2.288  12.591
 4511SOL    HW215366   9.400   2.155  12.522
 4512SOL     OW15367  12.210  11.345   3.654
 4512SOL    HW115368  12.185  11.283   3.585
 4512SOL    HW215369  12.237  11.289   3.727
 4513SOL     OW15370  12.258   7.670  11.393
 4513SOL    HW115371  12.202   7.592  11.391
 4513SOL    HW215372  12.320   7.653  11.464
 4514SOL     OW15373   3.917  13.209   0.281
 4514SOL    HW115374   3.914  13.215   0.186
 4514SOL    HW215375   3.935  13.117   0.299
 4515SOL     OW15376   7.786   9.898  14.694
 4515SOL    HW115377   7.769   9.834  14.763
 4515SOL    HW215378   7.707   9.896  14.640
 4516SOL     OW15379   8.298   8.884   5.339
 4516SOL    HW115380   8.388   8.914   5.356
 4516SOL    HW215381   8.304   8.788   5.339
 4517SOL     OW15382  14.703  14.509  10.372
 4517SOL    HW115383  14.709  14.435  10.311
 4517SOL    HW215384  14.612  14.508  10.402
 4518SOL     OW15385   0.962   8.708   7.279
 4518SOL    HW115386   0.984   8.800   7.295
 4518SOL    HW215387   0.912   8.710   7.198
 4519SOL     OW15388   6.350  11.063  14.865
 4519SOL    HW115389   6.424  11.059   0.053
 4519SOL    HW215390   6.322  11.154  14.866
 4520SOL     OW15391   9.795   0.003   4.310
 4520SOL    HW115392   9.863   0.010   4.377
 4520SOL    HW215393   9.833   0.043   4.232
 4521SOL     OW15394   0.238  11.697  13.559
 4521SOL    HW115395   0.298  11.766  13.530
 4521SOL    HW215396   0.186  11.675  13.482
 4522SOL     OW15397   7.810   0.639   1.945
 4522SOL    HW115398   7.844   0.551   1.966
 4522SOL    HW215399   7.718   0.636   1.970
 4523SOL     OW15400   6.333   2.242   7.368
 4523SOL    HW115401   6.331   2.284   7.282
 4523SOL    HW215402   6.314   2.313   7.429
 4524SOL     OW15403  13.002   2.096   2.096
 4524SOL    HW115404  13.058   2.019   2.104
 4524SOL    HW215405  12.990   2.107   2.002
 4525SOL     OW15406   3.790   5.619   0.952
 4525SOL    HW115407   3.699   5.644   0.964
 4525SOL    HW215408   3.806   5.553   1.019
 4526SOL     OW15409  11.847  12.602  12.042
 4526SOL    HW115410  11.828  12.616  11.950
 4526SOL    HW215411  11.764  12.615  12.087
 4527SOL     OW15412   4.118  13.922   7.092
 4527SOL    HW115413   4.182  13.889   7.155
 4527SOL    HW215414   4.152  13.895   7.006
 4528SOL     OW15415   7.713   5.933   3.092
 4528SOL    HW115416   7.741   5.939   3.184
 4528SOL    HW215417   7.619   5.918   3.097
 4529SOL     OW15418   4.291  12.338   1.530
 4529SOL    HW115419   4.352  12.280   1.575
 4529SOL    HW215420   4.318  12.426   1.558
 4530SOL     OW15421   2.327  12.030   0.197
 4530SOL    HW115422   2.277  12.112   0.190
 4530SOL    HW215423   2.417  12.058   0.214
 4531SOL     OW15424   0.851   8.428   8.301
 4531SOL    HW115425   0.857   8.480   8.382
 4531SOL    HW215426   0.923   8.461   8.246
 4532SOL     OW15427   1.927  12.860   5.366
 4532SOL    HW115428   1.967  12.942   5.395
 4532SOL    HW215429   1.849  12.887   5.318
 4533SOL     OW15430   9.703   3.987   4.259
 4533SOL    HW115431   9.753   3.973   4.178
 4533SOL    HW215432   9.661   4.072   4.245
 4534SOL     OW15433   6.134   6.859   9.248
 4534SOL    HW115434   6.086   6.938   9.223
 4534SOL    HW215435   6.158   6.873   9.339
 4535SOL     OW15436   8.053   9.196  10.066
 4535SOL    HW115437   7.980   9.135  10.067
 4535SOL    HW215438   8.045   9.245  10.147
 4536SOL     OW15439  12.599   2.016  12.683
 4536SOL    HW115440  12.559   2.025  12.597
 4536SOL    HW215441  12.650   2.096  12.694
 4537SOL     OW15442   4.244  13.287  13.294
 4537SOL    HW115443   4.323  13.316  13.247
 4537SOL    HW215444   4.277  13.236  13.367
 4538SOL     OW15445  13.388   2.104   5.816
 4538SOL    HW115446  13.325   2.172   5.791
 4538SOL    HW215447  13.473   2.148   5.815
 4539SOL     OW15448  12.085  12.748   7.412
 4539SOL    HW115449  12.176  12.770   7.389
 4539SOL    HW215450  12.061  12.679   7.351
 4540SOL     OW15451  10.046   3.798   2.668
 4540SOL    HW115452  10.009   3.710   2.677
 4540SOL    HW215453   9.972   3.857   2.680
 4541SOL     OW15454  12.463   7.034   1.328
 4541SOL    HW115455  12.389   7.072   1.375
 4541SOL    HW215456  12.436   7.034   1.236
 4542SOL     OW15457   4.594  14.243   0.377
 4542SOL    HW115458   4.537  14.216   0.305
 4542SOL    HW215459   4.572  14.335   0.391
 4543SOL     OW15460   1.249   6.388   4.987
 4543SOL    HW115461   1.165   6.347   4.969
 4543SOL    HW215462   1.312   6.316   4.991
 4544SOL     OW15463   1.345   5.452  10.675
 4544SOL    HW115464   1.285   5.378  10.664
 4544SOL    HW215465   1.317   5.515  10.609
 4545SOL     OW15466  13.804   1.572   6.489
 4545SOL    HW115467  13.813   1.542   6.580
 4545SOL    HW215468  13.853   1.653   6.485
 4546SOL     OW15469   0.836   5.160   9.018
 4546SOL    HW115470   0.743   5.174   9.033
 4546SOL    HW215471   0.860   5.091   9.080
 4547SOL     OW15472  11.247   0.846   5.932
 4547SOL    HW115473  11.217   0.761   5.900
 4547SOL    HW215474  11.226   0.907   5.862
 4548SOL     OW15475  11.585  12.284   1.092
 4548SOL    HW115476  11.625  12.315   1.011
 4548SOL    HW215477  11.518  12.350   1.112
 4549SOL     OW15478   1.614   0.641   7.967
 4549SOL    HW115479   1.698   0.598   7.986
 4549SOL    HW215480   1.554   0.568   7.950
 4550SOL     OW15481  12.671  14.370  10.528
 4550SOL    HW115482  12.728  14.294  10.512
 4550SOL    HW215483  12.606  14.338  10.591
 4551SOL     OW15484   0.674   1.774  10.519
 4551SOL    HW115485   0.643   1.859  10.551
 4551SOL    HW215486   0.700   1.791  10.428
 4552SOL     OW15487   5.020   4.947   1.588
 4552SOL    HW115488   4.930   4.975   1.600
 4552SOL    HW215489   5.021   4.906   1.501
 4553SOL     OW15490  10.260   0.940   2.489
 4553SOL    HW115491  10.242   0.897   2.405
 4553SOL    HW215492  10.244   0.872   2.554
 4554SOL     OW15493   1.713   0.298   8.583
 4554SOL    HW115494   1.684   0.314   8.673
 4554SOL    HW215495   1.764   0.376   8.559
 4555SOL     OW15496   6.145   9.630  11.425
 4555SOL    HW115497   6.170   9.594  11.511
 4555SOL    HW215498   6.165   9.560  11.363
 4556SOL     OW15499   5.114   1.136   0.237
 4556SOL    HW115500   5.188   1.168   0.289
 4556SOL    HW215501   5.152   1.067   0.182
 4557SOL     OW15502   0.255   4.290  11.882
 4557SOL    HW115503   0.196   4.334  11.821
 4557SOL    HW215504   0.335   4.275  11.832
 4558SOL     OW15505   7.369   8.755   4.330
 4558SOL    HW115506   7.434   8.709   4.276
 4558SOL    HW215507   7.402   8.747   4.420
 4559SOL     OW15508   1.889  10.966   3.830
 4559SOL    HW115509   1.805  10.997   3.798
 4559SOL    HW215510   1.949  11.040   3.818
 4560SOL     OW15511   8.977   1.829   3.251
 4560SOL    HW115512   9.034   1.906   3.256
 4560SOL    HW215513   9.032   1.760   3.215
 4561SOL     OW15514  13.057   2.923   6.419
 4561SOL    HW115515  12.985   2.979   6.388
 4561SOL    HW215516  13.029   2.896   6.506
 4562SOL     OW15517  11.029  11.094  11.979
 4562SOL    HW115518  10.938  11.096  11.947
 4562SOL    HW215519  11.072  11.029  11.924
 4563SOL     OW15520   1.867   1.899   4.026
 4563SOL    HW115521   1.866   1.810   3.990
 4563SOL    HW215522   1.789   1.940   3.990
 4564SOL     OW15523   6.418  14.397   7.205
 4564SOL    HW115524   6.462  14.318   7.235
 4564SOL    HW215525   6.467  14.469   7.245
 4565SOL     OW15526  12.032  11.801   8.400
 4565SOL    HW115527  11.972  11.753   8.457
 4565SOL    HW215528  11.975  11.848   8.339
 4566SOL     OW15529  12.638   1.174   4.176
 4566SOL    HW115530  12.602   1.190   4.089
 4566SOL    HW215531  12.590   1.098   4.209
 4567SOL     OW15532   3.515  11.456   1.175
 4567SOL    HW115533   3.428  11.474   1.210
 4567SOL    HW215534   3.500  11.400   1.099
 4568SOL     OW15535  14.122   4.102   1.792
 4568SOL    HW115536  14.192   4.167   1.800
 4568SOL    HW215537  14.043   4.153   1.775
 4569SOL     OW15538   8.042   4.637   1.624
 4569SOL    HW115539   8.010   4.670   1.540
 4569SOL    HW215540   7.997   4.692   1.689
 4570SOL     OW15541   7.409   5.722  13.865
 4570SOL    HW115542   7.413   5.692  13.774
 4570SOL    HW215543   7.496   5.701  13.900
 4571SOL     OW15544   7.715   9.077   0.238
 4571SOL    HW115545   7.672   9.076   0.152
 4571SOL    HW215546   7.742   8.986   0.253
 4572SOL     OW15547   2.261  14.182   0.543
 4572SOL    HW115548   2.215  14.244   0.486
 4572SOL    HW215549   2.205  14.175   0.620
 4573SOL     OW15550  13.034  10.218  14.552
 4573SOL    HW115551  13.032  10.187  14.643
 4573SOL    HW215552  13.121  10.193  14.520
 4574SOL     OW15553   8.053   8.235   3.742
 4574SOL    HW115554   8.113   8.309   3.734
 4574SOL    HW215555   8.092   8.166   3.688
 4575SOL     OW15556   9.184   0.338  11.498
 4575SOL    HW115557   9.132   0.373  11.570
 4575SOL    HW215558   9.261   0.301  11.541
 4576SOL     OW15559   8.778   0.846   0.877
 4576SOL    HW115560   8.702   0.841   0.934
 4576SOL    HW215561   8.837   0.907   0.921
 4577SOL     OW15562  13.189  14.745   3.198
 4577SOL    HW115563  13.158  14.655   3.196
 4577SOL    HW215564  13.158  14.783   3.115
 4578SOL     OW15565   9.780   9.682   3.790
 4578SOL    HW115566   9.832   9.734   3.851
 4578SOL    HW215567   9.750   9.607   3.842
 4579SOL     OW15568  12.342   7.200  11.882
 4579SOL    HW115569  12.342   7.217  11.788
 4579SOL    HW215570  12.424   7.152  11.898
 4580SOL     OW15571   9.219  14.367   6.559
 4580SOL    HW115572   9.210  14.290   6.615
 4580SOL    HW215573   9.195  14.441   6.615
 4581SOL     OW15574   8.040  14.359   0.410
 4581SOL    HW115575   8.038  14.395   0.499
 4581SOL    HW215576   8.048  14.436   0.353
 4582SOL     OW15577   6.625  14.526  13.093
 4582SOL    HW115578   6.647  14.617  13.110
 4582SOL    HW215579   6.643  14.481  13.176
 4583SOL     OW15580   9.290   8.493  13.117
 4583SOL    HW115581   9.343   8.452  13.185
 4583SOL    HW215582   9.221   8.540  13.164
 4584SOL     OW15583  10.070   7.273   1.819
 4584SOL    HW115584   9.989   7.319   1.841
 4584SOL    HW215585  10.046   7.181   1.815
 4585SOL     OW15586  12.444   2.906  10.404
 4585SOL    HW115587  12.391   2.915  10.483
 4585SOL    HW215588  12.473   2.815  10.405
 4586SOL     OW15589   6.995   9.195   1.076
 4586SOL    HW115590   7.021   9.106   1.052
 4586SOL    HW215591   7.076   9.245   1.075
 4587SOL     OW15592  10.517  13.149   9.598
 4587SOL    HW115593  10.549  13.109   9.679
 4587SOL    HW215594  10.453  13.214   9.628
 4588SOL     OW15595  10.860  14.843   0.297
 4588SOL    HW115596  10.862   0.050   0.244
 4588SOL    HW215597  10.786  14.792   0.261
 4589SOL     OW15598  14.826  11.163   1.768
 4589SOL    HW115599  14.844  11.255   1.749
 4589SOL    HW215600  14.734  11.160   1.794
 4590SOL     OW15601   1.703  14.253   5.664
 4590SOL    HW115602   1.784  14.224   5.623
 4590SOL    HW215603   1.731  14.304   5.740
 4591SOL     OW15604   6.883   0.765   1.014
 4591SOL    HW115605   6.832   0.837   1.052
 4591SOL    HW215606   6.894   0.789   0.922
 4592SOL     OW15607   3.583  13.265  12.417
 4592SOL    HW115608   3.601  13.173  12.396
 4592SOL    HW215609   3.670  13.305  12.423
 4593SOL     OW15610   8.004  11.374  14.816
 4593SOL    HW115611   8.052  11.340   0.019
 4593SOL    HW215612   8.014  11.469  14.822
 4594SOL     OW15613   5.749   7.052   9.618
 4594SOL    HW115614   5.689   7.120   9.586
 4594SOL    HW215615   5.812   7.041   9.547
 4595SOL     OW15616   5.411   1.082   2.636
 4595SOL    HW115617   5.342   1.146   2.651
 4595SOL    HW215618   5.371   1.015   2.581
 4596SOL     OW15619   5.178  12.926   4.427
 4596SOL    HW115620   5.187  12.907   4.334
 4596SOL    HW215621   5.257  12.974   4.450
 4597SOL     OW15622   0.698   8.494   4.950
 4597SOL    HW115623   0.731   8.584   4.959
 4597SOL    HW215624   0.687   8.464   5.040
 4598SOL     OW15625   3.734   1.624  12.623
 4598SOL    HW115626   3.823   1.658  12.624
 4598SOL    HW215627   3.745   1.529  12.615
 4599SOL     OW15628   1.296   5.448   4.648
 4599SOL    HW115629   1.268   5.436   4.738
 4599SOL    HW215630   1.300   5.543   4.636
 4600SOL     OW15631   6.419   9.239   2.712
 4600SOL    HW115632   6.504   9.282   2.714
 4600SOL    HW215633   6.422   9.175   2.783
 4601SOL     OW15634   7.287   8.472  11.130
 4601SOL    HW115635   7.326   8.424  11.057
 4601SOL    HW215636   7.217   8.524  11.090
 4602SOL     OW15637  12.225   2.309   1.550
 4602SOL    HW115638  12.183   2.229   1.581
 4602SOL    HW215639  12.257   2.287   1.463
 4603SOL     OW15640   6.802   1.065  12.581
 4603SOL    HW115641   6.773   0.975  12.594
 4603SOL    HW215642   6.768   1.112  12.657
 4604SOL     OW15643   0.952  12.314  13.617
 4604SOL    HW115644   0.917  12.362  13.692
 4604SOL    HW215645   1.040  12.350  13.605
 4605SOL     OW15646   1.043  13.003   9.853
 4605SOL    HW115647   1.094  13.080   9.876
 4605SOL    HW215648   1.099  12.929   9.875
 4606SOL     OW15649   4.267   3.431   5.446
 4606SOL    HW115650   4.259   3.344   5.406
 4606SOL    HW215651   4.332   3.476   5.392
 4607SOL     OW15652   5.839  10.055   1.092
 4607SOL    HW115653   5.835   9.972   1.044
 4607SOL    HW215654   5.805  10.120   1.031
 4608SOL     OW15655  12.140   2.475   2.768
 4608SOL    HW115656  12.122   2.424   2.689
 4608SOL    HW215657  12.054   2.485   2.809
 4609SOL     OW15658  13.913   5.356  14.446
 4609SOL    HW115659  13.951   5.415  14.511
 4609SOL    HW215660  13.844   5.309  14.492
 4610SOL     OW15661   5.280  10.514   4.101
 4610SOL    HW115662   5.261  10.423   4.078
 4610SOL    HW215663   5.347  10.509   4.170
 4611SOL     OW15664   6.765  12.748   9.483
 4611SOL    HW115665   6.793  12.726   9.394
 4611SOL    HW215666   6.783  12.841   9.491
 4612SOL     OW15667   0.965   5.745   5.932
 4612SOL    HW115668   0.956   5.834   5.967
 4612SOL    HW215669   1.017   5.756   5.853
 4613SOL     OW15670  10.169   8.728  13.904
 4613SOL    HW115671  10.147   8.752  13.994
 4613SOL    HW215672  10.252   8.680  13.912
 4614SOL     OW15673   1.165   5.064  12.584
 4614SOL    HW115674   1.087   5.019  12.616
 4614SOL    HW215675   1.232   4.995  12.581
 4615SOL     OW15676   9.980   7.482   7.468
 4615SOL    HW115677  10.036   7.553   7.497
 4615SOL    HW215678   9.891   7.510   7.492
 4616SOL     OW15679   8.820   8.433   0.353
 4616SOL    HW115680   8.806   8.411   0.445
 4616SOL    HW215681   8.777   8.363   0.304
 4617SOL     OW15682   0.002   7.348  12.459
 4617SOL    HW115683   0.087   7.392  12.469
 4617SOL    HW215684   0.004   7.277  12.523
 4618SOL     OW15685  13.225  14.633  10.653
 4618SOL    HW115686  13.276  14.605  10.577
 4618SOL    HW215687  13.290  14.646  10.722
 4619SOL     OW15688  13.174  13.561   5.207
 4619SOL    HW115689  13.217  13.608   5.136
 4619SOL    HW215690  13.091  13.608   5.220
 4620SOL     OW15691  10.737   2.849   4.684
 4620SOL    HW115692  10.693   2.932   4.705
 4620SOL    HW215693  10.816   2.850   4.738
 4621SOL     OW15694  13.985   6.896   2.021
 4621SOL    HW115695  14.073   6.900   2.059
 4621SOL    HW215696  13.929   6.866   2.092
 4622SOL     OW15697   0.882   6.692  14.841
 4622SOL    HW115698   0.976   6.680  14.853
 4622SOL    HW215699   0.843   6.613   0.005
 4623SOL     OW15700   0.670  12.420   8.373
 4623SOL    HW115701   0.687  12.337   8.418
 4623SOL    HW215702   0.591  12.404   8.322
 4624SOL     OW15703   5.988   9.762  14.513
 4624SOL    HW115704   5.931   9.718  14.449
 4624SOL    HW215705   5.944   9.845  14.531
 4625SOL     OW15706   2.965   1.242  14.340
 4625SOL    HW115707   3.013   1.167  14.375
 4625SOL    HW215708   3.024   1.280  14.275
 4626SOL     OW15709   0.689   6.448   9.804
 4626SOL    HW115710   0.722   6.366   9.840
 4626SOL    HW215711   0.645   6.492   9.877
 4627SOL     OW15712   9.124   6.368  11.192
 4627SOL    HW115713   9.083   6.454  11.186
 4627SOL    HW215714   9.162   6.353  11.106
 4628SOL     OW15715   4.687   6.391   8.522
 4628SOL    HW115716   4.769   6.440   8.515
 4628SOL    HW215717   4.623   6.455   8.552
 4629SOL     OW15718   8.930   5.871  13.973
 4629SOL    HW115719   8.894   5.783  13.961
 4629SOL    HW215720   8.854   5.928  13.974
 4630SOL     OW15721   0.246   5.627  13.133
 4630SOL    HW115722   0.272   5.596  13.220
 4630SOL    HW215723   0.155   5.598  13.124
 4631SOL     OW15724  12.473   3.795   2.826
 4631SOL    HW115725  12.493   3.850   2.750
 4631SOL    HW215726  12.378   3.783   2.822
 4632SOL     OW15727  10.745  14.451  12.211
 4632SOL    HW115728  10.814  14.414  12.155
 4632SOL    HW215729  10.714  14.527  12.162
 4633SOL     OW15730  11.805   0.078  14.094
 4633SOL    HW115731  11.736   0.114  14.150
 4633SOL    HW215732  11.823   0.148  14.031
 4634SOL     OW15733  12.064  12.643  10.825
 4634SOL    HW115734  12.052  12.704  10.753
 4634SOL    HW215735  12.038  12.692  10.903
 4635SOL     OW15736  11.864   5.747   3.642
 4635SOL    HW115737  11.824   5.661   3.657
 4635SOL    HW215738  11.820   5.781   3.564
 4636SOL     OW15739   9.777   6.330  12.741
 4636SOL    HW115740   9.757   6.416  12.779
 4636SOL    HW215741   9.691   6.290  12.724
 4637SOL     OW15742   0.397  13.098  14.126
 4637SOL    HW115743   0.391  13.042  14.048
 4637SOL    HW215744   0.481  13.144  14.116
 4638SOL     OW15745  12.335   9.769   4.833
 4638SOL    HW115746  12.344   9.843   4.774
 4638SOL    HW215747  12.305   9.697   4.778
 4639SOL     OW15748   0.030   3.320  12.777
 4639SOL    HW115749   0.018   3.328  12.871
 4639SOL    HW215750  14.816   3.293  12.744
 4640SOL     OW15751   1.408   7.430   6.270
 4640SOL    HW115752   1.349   7.440   6.345
 4640SOL    HW215753   1.400   7.513   6.223
 4641SOL     OW15754  14.523   4.547   3.060
 4641SOL    HW115755  14.511   4.616   2.995
 4641SOL    HW215756  14.450   4.557   3.121
 4642SOL     OW15757  10.657   5.459   5.030
 4642SOL    HW115758  10.656   5.469   5.126
 4642SOL    HW215759  10.739   5.413   5.012
 4643SOL     OW15760   6.462   0.865  13.984
 4643SOL    HW115761   6.448   0.871  14.079
 4643SOL    HW215762   6.517   0.940  13.963
 4644SOL     OW15763  10.083   9.313   6.211
 4644SOL    HW115764  10.094   9.335   6.304
 4644SOL    HW215765  10.146   9.368   6.166
 4645SOL     OW15766   6.757  10.466   2.336
 4645SOL    HW115767   6.696  10.392   2.324
 4645SOL    HW215768   6.826  10.431   2.393
 4646SOL     OW15769   5.628   0.698  12.783
 4646SOL    HW115770   5.539   0.685  12.815
 4646SOL    HW215771   5.679   0.630  12.828
 4647SOL     OW15772  11.572   7.321   5.540
 4647SOL    HW115773  11.487   7.363   5.529
 4647SOL    HW215774  11.556   7.229   5.520
 4648SOL     OW15775  14.361   0.626   0.693
 4648SOL    HW115776  14.308   0.680   0.634
 4648SOL    HW215777  14.332   0.537   0.676
 4649SOL     OW15778   5.219   0.865   5.467
 4649SOL    HW115779   5.131   0.844   5.500
 4649SOL    HW215780   5.274   0.864   5.544
 4650SOL     OW15781  12.114   7.016   6.041
 4650SOL    HW115782  12.156   7.064   6.112
 4650SOL    HW215783  12.067   7.083   5.991
 4651SOL     OW15784  12.361   2.928  10.678
 4651SOL    HW115785  12.293   2.976  10.725
 4651SOL    HW215786  12.444   2.961  10.714
 4652SOL     OW15787   9.486  10.393   5.258
 4652SOL    HW115788   9.497  10.320   5.319
 4652SOL    HW215789   9.563  10.448   5.273
 4653SOL     OW15790  10.298   7.173  13.371
 4653SOL    HW115791  10.313   7.125  13.289
 4653SOL    HW215792  10.324   7.263  13.350
 4654SOL     OW15793   7.458   7.121   3.728
 4654SOL    HW115794   7.425   7.058   3.664
 4654SOL    HW215795   7.542   7.150   3.693
 4655SOL     OW15796  12.791  10.889   5.062
 4655SOL    HW115797  12.716  10.855   5.111
 4655SOL    HW215798  12.789  10.841   4.979
 4656SOL     OW15799  11.604  13.832   7.987
 4656SOL    HW115800  11.644  13.854   8.072
 4656SOL    HW215801  11.626  13.907   7.931
 4657SOL     OW15802   1.107   3.035  13.905
 4657SOL    HW115803   1.147   3.038  13.819
 4657SOL    HW215804   1.032   2.976  13.895
 4658SOL     OW15805   4.235   5.480   0.519
 4658SOL    HW115806   4.266   5.569   0.534
 4658SOL    HW215807   4.248   5.436   0.603
 4659SOL     OW15808  10.835   8.481   3.416
 4659SOL    HW115809  10.771   8.481   3.487
 4659SOL    HW215810  10.812   8.404   3.364
 4660SOL     OW15811   5.191   9.821   3.045
 4660SOL    HW115812   5.240   9.840   3.125
 4660SOL    HW215813   5.246   9.760   2.997
 4661SOL     OW15814   8.970   2.274   0.018
 4661SOL    HW115815   8.935   2.236  14.810
 4661SOL    HW215816   8.983   2.200   0.077
 4662SOL     OW15817   9.091   4.964  10.756
 4662SOL    HW115818   9.043   4.889  10.792
 4662SOL    HW215819   9.144   4.927  10.685
 4663SOL     OW15820   8.766   9.748  13.457
 4663SOL    HW115821   8.825   9.693  13.406
 4663SOL    HW215822   8.738   9.692  13.530
 4664SOL     OW15823   5.801  13.853   5.989
 4664SOL    HW115824   5.839  13.935   6.021
 4664SOL    HW215825   5.868  13.787   6.008
 4665SOL     OW15826   7.062  10.035   0.309
 4665SOL    HW115827   7.022   9.968   0.365
 4665SOL    HW215828   7.057   9.999   0.221
 4666SOL     OW15829  12.033   2.801   1.717
 4666SOL    HW115830  12.064   2.860   1.786
 4666SOL    HW215831  12.010   2.859   1.645
 4667SOL     OW15832   3.384   4.054   1.621
 4667SOL    HW115833   3.382   4.136   1.669
 4667SOL    HW215834   3.321   3.998   1.665
 4668SOL     OW15835   8.869   8.707   0.610
 4668SOL    HW115836   8.857   8.789   0.562
 4668SOL    HW215837   8.963   8.690   0.604
 4669SOL     OW15838   0.919   1.978   0.942
 4669SOL    HW115839   0.994   2.031   0.916
 4669SOL    HW215840   0.866   2.037   0.996
 4670SOL     OW15841   3.981   5.112   0.561
 4670SOL    HW115842   4.063   5.161   0.566
 4670SOL    HW215843   3.968   5.078   0.650
 4671SOL     OW15844   4.451   0.829   6.134
 4671SOL    HW115845   4.366   0.861   6.105
 4671SOL    HW215846   4.433   0.740   6.166
 4672SOL     OW15847   0.248   1.594   6.844
 4672SOL    HW115848   0.259   1.690   6.843
 4672SOL    HW215849   0.177   1.577   6.782
 4673SOL     OW15850  12.783   9.222  11.764
 4673SOL    HW115851  12.829   9.277  11.700
 4673SOL    HW215852  12.772   9.138  11.720
 4674SOL     OW15853   4.752  12.168  10.400
 4674SOL    HW115854   4.780  12.253  10.435
 4674SOL    HW215855   4.812  12.152  10.327
 4675SOL     OW15856   6.527   4.405  11.820
 4675SOL    HW115857   6.617   4.433  11.805
 4675SOL    HW215858   6.477   4.447  11.751
 4676SOL     OW15859   6.038   4.390   5.493
 4676SOL    HW115860   6.115   4.403   5.549
 4676SOL    HW215861   6.062   4.432   5.410
 4677SOL     OW15862   4.901  11.264   4.352
 4677SOL    HW115863   4.992  11.243   4.332
 4677SOL    HW215864   4.881  11.210   4.428
 4678SOL     OW15865   1.470   3.767   7.830
 4678SOL    HW115866   1.446   3.718   7.751
 4678SOL    HW215867   1.527   3.838   7.798
 4679SOL     OW15868   7.327  12.789   6.710
 4679SOL    HW115869   7.359  12.841   6.783
 4679SOL    HW215870   7.259  12.733   6.748
 4680SOL     OW15871   0.477  14.158   6.018
 4680SOL    HW115872   0.393  14.114   6.034
 4680SOL    HW215873   0.543  14.091   6.034
 4681SOL     OW15874   9.073  14.862   8.262
 4681SOL    HW115875   9.095  14.792   8.201
 4681SOL    HW215876   8.978  14.863   8.265
 4682SOL     OW15877   7.466   5.234  10.712
 4682SOL    HW115878   7.391   5.289  10.733
 4682SOL    HW215879   7.534   5.262  10.774
 4683SOL     OW15880  14.261   2.340   8.752
 4683SOL    HW115881  14.274   2.396   8.828
 4683SOL    HW215882  14.346   2.336   8.710
 4684SOL     OW15883   6.295  14.068   7.800
 4684SOL    HW115884   6.316  14.032   7.886
 4684SOL    HW215885   6.377  14.063   7.751
 4685SOL     OW15886   6.490   1.353   4.920
 4685SOL    HW115887   6.493   1.328   5.012
 4685SOL    HW215888   6.488   1.270   4.872
 4686SOL     OW15889   0.194   5.610  10.497
 4686SOL    HW115890   0.289   5.600  10.501
 4686SOL    HW215891   0.173   5.668  10.571
 4687SOL     OW15892  13.718   0.150   5.726
 4687SOL    HW115893  13.703   0.240   5.697
 4687SOL    HW215894  13.659   0.140   5.802
 4688SOL     OW15895  14.695   9.113   2.905
 4688SOL    HW115896  14.763   9.139   2.967
 4688SOL    HW215897  14.717   9.158   2.824
 4689SOL     OW15898   5.538  12.602  13.507
 4689SOL    HW115899   5.569  12.577  13.594
 4689SOL    HW215900   5.618  12.614  13.456
 4690SOL     OW15901  11.242  12.482  12.569
 4690SOL    HW115902  11.193  12.560  12.544
 4690SOL    HW215903  11.274  12.501  12.657
 4691SOL     OW15904   8.091  12.450   6.030
 4691SOL    HW115905   8.114  12.457   6.122
 4691SOL    HW215906   8.079  12.356   6.015
 4692SOL     OW15907   1.942   0.387   9.621
 4692SOL    HW115908   1.976   0.353   9.703
 4692SOL    HW215909   1.878   0.322   9.592
 4693SOL     OW15910   1.664   6.889   0.259
 4693SOL    HW115911   1.580   6.935   0.264
 4693SOL    HW215912   1.645   6.808   0.213
 4694SOL     OW15913   2.886  13.314  13.460
 4694SOL    HW115914   2.814  13.279  13.407
 4694SOL    HW215915   2.940  13.362  13.397
 4695SOL     OW15916  11.747   6.788  13.971
 4695SOL    HW115917  11.825   6.733  13.976
 4695SOL    HW215918  11.756   6.837  13.890
 4696SOL     OW15919   8.009  11.625   6.360
 4696SOL    HW115920   8.061  11.585   6.290
 4696SOL    HW215921   8.073  11.644   6.428
 4697SOL     OW15922   5.649   6.395   3.237
 4697SOL    HW115923   5.579   6.360   3.291
 4697SOL    HW215924   5.667   6.481   3.274
 4698SOL     OW15925   1.533   4.396   0.334
 4698SOL    HW115926   1.470   4.358   0.395
 4698SOL    HW215927   1.612   4.343   0.346
 4699SOL     OW15928   9.676  12.054   6.434
 4699SOL    HW115929   9.734  12.122   6.399
 4699SOL    HW215930   9.662  12.080   6.525
 4700SOL     OW15931  12.626  14.275   1.541
 4700SOL    HW115932  12.687  14.201   1.549
 4700SOL    HW215933  12.652  14.319   1.460
 4701SOL     OW15934  10.759  12.770   2.152
 4701SOL    HW115935  10.816  12.826   2.204
 4701SOL    HW215936  10.705  12.832   2.102
 4702SOL     OW15937   0.085  10.102   5.732
 4702SOL    HW115938   0.147  10.043   5.775
 4702SOL    HW215939   0.072  10.065   5.645
 4703SOL     OW15940   1.503   0.685  11.798
 4703SOL    HW115941   1.500   0.742  11.875
 4703SOL    HW215942   1.437   0.723  11.739
 4704SOL     OW15943  11.636   0.221   1.064
 4704SOL    HW115944  11.545   0.219   1.094
 4704SOL    HW215945  11.630   0.214   0.968
 4705SOL     OW15946   4.429  11.799  14.446
 4705SOL    HW115947   4.371  11.748  14.388
 4705SOL    HW215948   4.506  11.817  14.392
 4706SOL     OW15949   8.529   1.044   5.830
 4706SOL    HW115950   8.564   1.129   5.805
 4706SOL    HW215951   8.565   1.028   5.918
 4707SOL     OW15952   1.917  10.753  13.669
 4707SOL    HW115953   1.912  10.847  13.649
 4707SOL    HW215954   1.973  10.717  13.601
 4708SOL     OW15955   6.017   4.402  12.720
 4708SOL    HW115956   6.021   4.399  12.815
 4708SOL    HW215957   5.924   4.392  12.700
 4709SOL     OW15958   4.365   7.519   6.124
 4709SOL    HW115959   4.415   7.589   6.166
 4709SOL    HW215960   4.400   7.439   6.161
 4710SOL     OW15961  12.475   7.080   1.923
 4710SOL    HW115962  12.505   7.144   1.987
 4710SOL    HW215963  12.533   7.090   1.848
 4711SOL     OW15964   4.791  14.044   8.040
 4711SOL    HW115965   4.726  13.978   8.064
 4711SOL    HW215966   4.760  14.124   8.082
 4712SOL     OW15967   4.824   1.098   5.888
 4712SOL    HW115968   4.797   1.145   5.966
 4712SOL    HW215969   4.902   1.144   5.857
 4713SOL     OW15970   9.549  13.035   6.904
 4713SOL    HW115971   9.568  13.122   6.870
 4713SOL    HW215972   9.457  13.039   6.930
 4714SOL     OW15973  10.644   9.356   1.781
 4714SOL    HW115974  10.616   9.342   1.690
 4714SOL    HW215975  10.739   9.345   1.779
 4715SOL     OW15976   0.553   1.232  12.917
 4715SOL    HW115977   0.639   1.208  12.882
 4715SOL    HW215978   0.490   1.187  12.861
 4716SOL     OW15979  13.496   2.987   6.269
 4716SOL    HW115980  13.443   2.985   6.189
 4716SOL    HW215981  13.446   3.043   6.329
 4717SOL     OW15982  12.157  12.697   4.287
 4717SOL    HW115983  12.130  12.695   4.195
 4717SOL    HW215984  12.202  12.613   4.301
 4718SOL     OW15985   1.511  13.716   9.228
 4718SOL    HW115986   1.437  13.678   9.275
 4718SOL    HW215987   1.582  13.716   9.292
 4719SOL     OW15988  10.249   1.211   7.788
 4719SOL    HW115989  10.159   1.233   7.764
 4719SOL    HW215990  10.300   1.228   7.709
 4720SOL     OW15991   0.729   3.725   7.817
 4720SOL    HW115992   0.732   3.641   7.862
 4720SOL    HW215993   0.686   3.707   7.733
 4721SOL     OW15994   3.040  11.437   9.840
 4721SOL    HW115995   2.985  11.380   9.894
 4721SOL    HW215996   3.109  11.467   9.900
 4722SOL     OW15997  11.398  13.293   9.494
 4722SOL    HW115998  11.455  13.283   9.570
 4722SOL    HW215999  11.348  13.373   9.512
 4723SOL     OW16000  14.291  13.851  11.322
 4723SOL    HW116001  14.340  13.843  11.240
 4723SOL    HW216002  14.268  13.944  11.328
 4724SOL     OW16003   9.416   5.150   7.745
 4724SOL    HW116004   9.394   5.110   7.661
 4724SOL    HW216005   9.406   5.078   7.808
 4725SOL     OW16006   6.474   3.290   9.588
 4725SOL    HW116007   6.559   3.328   9.612
 4725SOL    HW216008   6.412   3.362   9.599
 4726SOL     OW16009  13.651   7.770   6.821
 4726SOL    HW116010  13.580   7.812   6.772
 4726SOL    HW216011  13.606   7.705   6.876
 4727SOL     OW16012  12.875  12.883   6.152
 4727SOL    HW116013  12.790  12.902   6.191
 4727SOL    HW216014  12.932  12.951   6.186
 4728SOL     OW16015  11.873   6.302   4.436
 4728SOL    HW116016  11.838   6.216   4.461
 4728SOL    HW216017  11.795   6.356   4.420
 4729SOL     OW16018   6.963   4.867   9.410
 4729SOL    HW116019   6.868   4.859   9.400
 4729SOL    HW216020   6.988   4.937   9.349
 4730SOL     OW16021  10.148   2.478   1.784
 4730SOL    HW116022  10.131   2.491   1.878
 4730SOL    HW216023  10.094   2.403   1.760
 4731SOL     OW16024   3.466   5.146   9.986
 4731SOL    HW116025   3.478   5.055  10.014
 4731SOL    HW216026   3.543   5.192  10.020
 4732SOL     OW16027   2.827   3.778   0.852
 4732SOL    HW116028   2.830   3.689   0.885
 4732SOL    HW216029   2.912   3.791   0.809
 4733SOL     OW16030  11.502   1.836  14.776
 4733SOL    HW116031  11.426   1.837  14.835
 4733SOL    HW216032  11.468   1.872  14.694
 4734SOL     OW16033  11.906  10.812  10.928
 4734SOL    HW116034  11.921  10.749  10.857
 4734SOL    HW216035  11.816  10.797  10.956
 4735SOL     OW16036   7.208   2.764   5.928
 4735SOL    HW116037   7.148   2.690   5.941
 4735SOL    HW216038   7.203   2.814   6.009
 4736SOL     OW16039  14.072  10.063   7.992
 4736SOL    HW116040  14.023  10.095   8.068
 4736SOL    HW216041  14.115  10.141   7.958
 4737SOL     OW16042   7.915   5.856   4.153
 4737SOL    HW116043   7.832   5.859   4.200
 4737SOL    HW216044   7.973   5.913   4.202
 4738SOL     OW16045   2.900   4.010   9.101
 4738SOL    HW116046   2.884   4.024   9.008
 4738SOL    HW216047   2.884   3.917   9.115
 4739SOL     OW16048   2.440   3.202  10.517
 4739SOL    HW116049   2.406   3.278  10.470
 4739SOL    HW216050   2.364   3.163  10.559
 4740SOL     OW16051  14.439   0.767   0.197
 4740SOL    HW116052  14.396   0.789   0.280
 4740SOL    HW216053  14.389   0.693   0.164
 4741SOL     OW16054  12.381   5.999   1.326
 4741SOL    HW116055  12.398   5.942   1.401
 4741SOL    HW216056  12.292   5.976   1.299
 4742SOL     OW16057  10.110  14.516  13.062
 4742SOL    HW116058  10.159  14.436  13.084
 4742SOL    HW216059  10.032  14.512  13.117
 4743SOL     OW16060   3.135  13.113  13.184
 4743SOL    HW116061   3.047  13.135  13.152
 4743SOL    HW216062   3.191  13.183  13.152
 4744SOL     OW16063   8.164   8.128   2.922
 4744SOL    HW116064   8.077   8.148   2.957
 4744SOL    HW216065   8.200   8.064   2.982
 4745SOL     OW16066   8.775  14.738  13.147
 4745SOL    HW116067   8.698  14.683  13.136
 4745SOL    HW216068   8.829  14.692  13.211
 4746SOL     OW16069   8.760   1.501   1.103
 4746SOL    HW116070   8.668   1.519   1.084
 4746SOL    HW216071   8.796   1.470   1.020
 4747SOL     OW16072   6.429  14.666   9.973
 4747SOL    HW116073   6.432  14.702   9.885
 4747SOL    HW216074   6.449  14.741  10.030
 4748SOL     OW16075   3.159   0.103  14.748
 4748SOL    HW116076   3.215   0.092  14.672
 4748SOL    HW216077   3.188   0.035  14.809
 4749SOL     OW16078  12.229  12.247  11.397
 4749SOL    HW116079  12.173  12.211  11.329
 4749SOL    HW216080  12.186  12.328  11.424
 4750SOL     OW16081   2.545  12.375   2.934
 4750SOL    HW116082   2.502  12.438   2.876
 4750SOL    HW216083   2.601  12.323   2.875
 4751SOL     OW16084   3.500   3.775   4.532
 4751SOL    HW116085   3.504   3.844   4.599
 4751SOL    HW216086   3.490   3.694   4.582
 4752SOL     OW16087  13.906   9.401   1.550
 4752SOL    HW116088  13.914   9.461   1.475
 4752SOL    HW216089  13.966   9.437   1.615
 4753SOL     OW16090  12.689   6.197   4.292
 4753SOL    HW116091  12.653   6.243   4.368
 4753SOL    HW216092  12.781   6.222   4.291
 4754SOL     OW16093  14.802   9.709   6.907
 4754SOL    HW116094  14.744   9.780   6.934
 4754SOL    HW216095  14.855   9.746   6.836
 4755SOL     OW16096   2.245   2.123   9.972
 4755SOL    HW116097   2.208   2.173   9.898
 4755SOL    HW216098   2.241   2.032   9.944
 4756SOL     OW16099   2.946  10.958   5.739
 4756SOL    HW116100   3.013  10.893   5.715
 4756SOL    HW216101   2.911  10.927   5.823
 4757SOL     OW16102   1.766   8.977   9.355
 4757SOL    HW116103   1.802   9.036   9.421
 4757SOL    HW216104   1.758   8.893   9.400
 4758SOL     OW16105   4.821   5.270   0.940
 4758SOL    HW116106   4.889   5.265   0.873
 4758SOL    HW216107   4.743   5.299   0.893
 4759SOL     OW16108   3.416   0.479   1.091
 4759SOL    HW116109   3.501   0.497   1.132
 4759SOL    HW216110   3.358   0.456   1.163
 4760SOL     OW16111   3.758   9.601   3.533
 4760SOL    HW116112   3.819   9.585   3.461
 4760SOL    HW216113   3.806   9.659   3.593
 4761SOL     OW16114  11.997   8.511   9.540
 4761SOL    HW116115  11.986   8.592   9.489
 4761SOL    HW216116  11.950   8.445   9.490
 4762SOL     OW16117  14.402  10.344   4.126
 4762SOL    HW116118  14.374  10.357   4.217
 4762SOL    HW216119  14.371  10.423   4.080
 4763SOL     OW16120   3.715   3.464   4.117
 4763SOL    HW116121   3.753   3.392   4.066
 4763SOL    HW216122   3.707   3.429   4.206
 4764SOL     OW16123   0.559  13.915  11.432
 4764SOL    HW116124   0.543  13.848  11.498
 4764SOL    HW216125   0.550  13.868  11.349
 4765SOL     OW16126  12.542  14.007  12.139
 4765SOL    HW116127  12.523  13.921  12.177
 4765SOL    HW216128  12.551  13.990  12.045
 4766SOL     OW16129  14.833  13.984  12.385
 4766SOL    HW116130  14.765  13.930  12.426
 4766SOL    HW216131  14.823  14.070  12.425
 4767SOL     OW16132   3.116   0.690   9.602
 4767SOL    HW116133   3.191   0.667   9.548
 4767SOL    HW216134   3.113   0.785   9.601
 4768SOL     OW16135  10.312  10.533  14.473
 4768SOL    HW116136  10.263  10.489  14.403
 4768SOL    HW216137  10.403  10.510  14.457
 4769SOL     OW16138   8.478   0.895  14.208
 4769SOL    HW116139   8.476   0.963  14.140
 4769SOL    HW216140   8.557   0.845  14.190
 4770SOL     OW16141  13.044  14.251   1.162
 4770SOL    HW116142  13.019  14.224   1.074
 4770SOL    HW216143  13.051  14.169   1.211
 4771SOL     OW16144   3.313  13.498   6.269
 4771SOL    HW116145   3.397  13.488   6.314
 4771SOL    HW216146   3.296  13.412   6.232
 4772SOL     OW16147   7.363  13.911   4.550
 4772SOL    HW116148   7.303  13.863   4.493
 4772SOL    HW216149   7.341  14.003   4.535
 4773SOL     OW16150   8.353   9.116   6.856
 4773SOL    HW116151   8.417   9.054   6.824
 4773SOL    HW216152   8.299   9.066   6.918
 4774SOL     OW16153   9.564   2.620   8.448
 4774SOL    HW116154   9.495   2.553   8.443
 4774SOL    HW216155   9.530   2.693   8.396
 4775SOL     OW16156   2.531   5.518  11.927
 4775SOL    HW116157   2.580   5.568  11.862
 4775SOL    HW216158   2.447   5.500  11.885
 4776SOL     OW16159  13.444  12.486   4.717
 4776SOL    HW116160  13.516  12.445   4.765
 4776SOL    HW216161  13.384  12.415   4.698
 4777SOL     OW16162   9.924   6.975  11.730
 4777SOL    HW116163   9.857   6.961  11.662
 4777SOL    HW216164   9.983   6.900  11.721
 4778SOL     OW16165   8.789   6.892   4.591
 4778SOL    HW116166   8.845   6.887   4.669
 4778SOL    HW216167   8.834   6.955   4.534
 4779SOL     OW16168   3.284  11.600  11.314
 4779SOL    HW116169   3.197  11.600  11.275
 4779SOL    HW216170   3.280  11.534  11.383
 4780SOL     OW16171   0.801   4.034  11.423
 4780SOL    HW116172   0.745   3.989  11.487
 4780SOL    HW216173   0.759   4.018  11.339
 4781SOL     OW16174   7.596  12.798  10.302
 4781SOL    HW116175   7.685  12.821  10.276
 4781SOL    HW216176   7.604  12.711  10.341
 4782SOL     OW16177  13.280   6.632  14.188
 4782SOL    HW116178  13.343   6.694  14.225
 4782SOL    HW216179  13.261   6.571  14.260
 4783SOL     OW16180   5.821  12.278   3.852
 4783SOL    HW116181   5.833  12.318   3.766
 4783SOL    HW216182   5.907  12.281   3.893
 4784SOL     OW16183   6.974   7.900   0.861
 4784SOL    HW116184   7.028   7.917   0.938
 4784SOL    HW216185   6.897   7.955   0.873
 4785SOL     OW16186  13.218   3.004   3.544
 4785SOL    HW116187  13.163   2.975   3.472
 4785SOL    HW216188  13.205   3.099   3.548
 4786SOL     OW16189   3.497  10.098  13.069
 4786SOL    HW116190   3.402  10.101  13.084
 4786SOL    HW216191   3.511  10.160  12.997
 4787SOL     OW16192  10.171   0.615  10.645
 4787SOL    HW116193  10.137   0.621  10.734
 4787SOL    HW216194  10.264   0.593  10.656
 4788SOL     OW16195   5.041  10.798  14.416
 4788SOL    HW116196   5.094  10.877  14.423
 4788SOL    HW216197   4.951  10.830  14.418
 4789SOL     OW16198   8.223   1.489   0.121
 4789SOL    HW116199   8.186   1.409   0.156
 4789SOL    HW216200   8.285   1.519   0.188
 4790SOL     OW16201   5.872   6.129   5.234
 4790SOL    HW116202   5.934   6.193   5.271
 4790SOL    HW216203   5.918   6.093   5.158
 4791SOL     OW16204   2.762   8.087   1.104
 4791SOL    HW116205   2.675   8.086   1.144
 4791SOL    HW216206   2.749   8.049   1.017
 4792SOL     OW16207   7.556   8.290  10.359
 4792SOL    HW116208   7.595   8.353  10.419
 4792SOL    HW216209   7.489   8.339  10.312
 4793SOL     OW16210   5.402   1.312   9.025
 4793SOL    HW116211   5.374   1.391   9.072
 4793SOL    HW216212   5.369   1.239   9.078
 4794SOL     OW16213   8.556   1.293  10.603
 4794SOL    HW116214   8.526   1.359  10.665
 4794SOL    HW216215   8.575   1.216  10.657
 4795SOL     OW16216  13.693   3.569   3.728
 4795SOL    HW116217  13.620   3.512   3.750
 4795SOL    HW216218  13.766   3.509   3.711
 4796SOL     OW16219   2.417  12.495   2.709
 4796SOL    HW116220   2.323  12.507   2.701
 4796SOL    HW216221   2.455  12.568   2.660
 4797SOL     OW16222   2.581  14.675  11.182
 4797SOL    HW116223   2.649  14.733  11.218
 4797SOL    HW216224   2.630  14.601  11.145
 4798SOL     OW16225   7.500  10.955   4.869
 4798SOL    HW116226   7.497  11.046   4.839
 4798SOL    HW216227   7.583  10.921   4.833
 4799SOL     OW16228  10.876   6.077   2.827
 4799SOL    HW116229  10.791   6.120   2.837
 4799SOL    HW216230  10.895   6.042   2.914
 4800SOL     OW16231   0.820   5.845   8.888
 4800SOL    HW116232   0.803   5.939   8.887
 4800SOL    HW216233   0.815   5.819   8.796
 4801SOL     OW16234   2.940   6.941   0.020
 4801SOL    HW116235   2.903   7.028   0.005
 4801SOL    HW216236   2.865   6.884   0.032
 4802SOL     OW16237  14.740   6.341   2.706
 4802SOL    HW116238  14.685   6.415   2.734
 4802SOL    HW216239  14.687   6.263   2.725
 4803SOL     OW16240   4.743  14.863  12.047
 4803SOL    HW116241   4.694  14.782  12.060
 4803SOL    HW216242   4.832  14.842  12.073
 4804SOL     OW16243   2.473  14.813   5.829
 4804SOL    HW116244   2.541  14.752   5.857
 4804SOL    HW216245   2.430  14.769   5.756
 4805SOL     OW16246  14.433   1.671   9.798
 4805SOL    HW116247  14.484   1.597   9.764
 4805SOL    HW216248  14.469   1.748   9.754
 4806SOL     OW16249  11.504  14.777   8.892
 4806SOL    HW116250  11.432  14.743   8.944
 4806SOL    HW216251  11.560  14.822   8.954
 4807SOL     OW16252  12.126   6.402   7.610
 4807SOL    HW116253  12.216   6.433   7.602
 4807SOL    HW216254  12.123   6.358   7.695
 4808SOL     OW16255  12.577   2.422   8.802
 4808SOL    HW116256  12.660   2.402   8.758
 4808SOL    HW216257  12.514   2.362   8.765
 4809SOL     OW16258   6.436   3.825   6.397
 4809SOL    HW116259   6.439   3.759   6.466
 4809SOL    HW216260   6.491   3.790   6.327
 4810SOL     OW16261   5.210  13.640  14.825
 4810SOL    HW116262   5.282  13.599  14.872
 4810SOL    HW216263   5.210  13.731  14.856
 4811SOL     OW16264  14.466  11.953   7.389
 4811SOL    HW116265  14.544  11.978   7.338
 4811SOL    HW216266  14.443  12.033   7.437
 4812SOL     OW16267   4.546  11.969   8.924
 4812SOL    HW116268   4.482  11.940   8.988
 4812SOL    HW216269   4.499  12.032   8.870
 4813SOL     OW16270   2.786   6.610  13.383
 4813SOL    HW116271   2.860   6.667  13.404
 4813SOL    HW216272   2.815   6.559  13.308
 4814SOL     OW16273   3.155  10.971   1.516
 4814SOL    HW116274   3.060  10.980   1.525
 4814SOL    HW216275   3.190  11.059   1.529
 4815SOL     OW16276  14.191  14.148   8.794
 4815SOL    HW116277  14.203  14.135   8.888
 4815SOL    HW216278  14.241  14.227   8.774
 4816SOL     OW16279   6.767   0.084   6.219
 4816SOL    HW116280   6.796   0.024   6.150
 4816SOL    HW216281   6.674   0.067   6.228
 4817SOL     OW16282  13.406   6.351   5.163
 4817SOL    HW116283  13.496   6.348   5.133
 4817SOL    HW216284  13.355   6.315   5.091
 4818SOL     OW16285   9.380  11.445   8.422
 4818SOL    HW116286   9.319  11.472   8.491
 4818SOL    HW216287   9.465  11.440   8.466
 4819SOL     OW16288   4.748   4.782   0.996
 4819SOL    HW116289   4.795   4.750   1.073
 4819SOL    HW216290   4.772   4.722   0.926
 4820SOL     OW16291  10.669   0.758  12.661
 4820SOL    HW116292  10.657   0.825  12.727
 4820SOL    HW216293  10.699   0.805  12.583
 4821SOL     OW16294   2.415   3.372   0.580
 4821SOL    HW116295   2.396   3.345   0.490
 4821SOL    HW216296   2.340   3.426   0.605
 4822SOL     OW16297   1.190   3.232   1.639
 4822SOL    HW116298   1.231   3.233   1.553
 4822SOL    HW216299   1.263   3.231   1.701
 4823SOL     OW16300   9.217  10.890  10.340
 4823SOL    HW116301   9.281  10.943  10.292
 4823SOL    HW216302   9.140  10.889  10.284
 4824SOL     OW16303   6.915   7.988   2.610
 4824SOL    HW116304   6.963   7.909   2.590
 4824SOL    HW216305   6.825   7.970   2.581
 4825SOL     OW16306  11.751  12.747   3.123
 4825SOL    HW116307  11.690  12.815   3.151
 4825SOL    HW216308  11.761  12.690   3.200
 4826SOL     OW16309   4.958   9.860  10.176
 4826SOL    HW116310   4.870   9.885  10.205
 4826SOL    HW216311   4.999   9.942  10.149
 4827SOL     OW16312   7.534   1.828   4.561
 4827SOL    HW116313   7.513   1.738   4.539
 4827SOL    HW216314   7.553   1.826   4.655
 4828SOL     OW16315  11.716   5.492  12.524
 4828SOL    HW116316  11.696   5.409  12.566
 4828SOL    HW216317  11.728   5.470  12.431
 4829SOL     OW16318  14.787   5.991   1.206
 4829SOL    HW116319  14.865   5.987   1.150
 4829SOL    HW216320  14.823   6.000   1.295
 4830SOL     OW16321   9.691  13.601   9.408
 4830SOL    HW116322   9.708  13.522   9.459
 4830SOL    HW216323   9.773  13.650   9.412
 4831SOL     OW16324  14.626   0.501   9.173
 4831SOL    HW116325  14.607   0.594   9.160
 4831SOL    HW216326  14.582   0.458   9.100
 4832SOL     OW16327  13.167   2.681   9.827
 4832SOL    HW116328  13.087   2.644   9.791
 4832SOL    HW216329  13.232   2.670   9.757
 4833SOL     OW16330   9.763   5.150   2.700
 4833SOL    HW116331   9.846   5.187   2.730
 4833SOL    HW216332   9.706   5.153   2.777
 4834SOL     OW16333  13.851   5.769   0.260
 4834SOL    HW116334  13.851   5.706   0.332
 4834SOL    HW216335  13.937   5.811   0.264
 4835SOL     OW16336  10.256  10.953   1.139
 4835SOL    HW116337  10.331  10.998   1.100
 4835SOL    HW216338  10.280  10.942   1.231
 4836SOL     OW16339   8.404  12.069  14.021
 4836SOL    HW116340   8.410  11.978  14.048
 4836SOL    HW216341   8.371  12.115  14.098
 4837SOL     OW16342   0.395   1.907  12.221
 4837SOL    HW116343   0.358   1.819  12.222
 4837SOL    HW216344   0.351   1.953  12.293
 4838SOL     OW16345   6.491  12.501   8.372
 4838SOL    HW116346   6.397  12.519   8.378
 4838SOL    HW216347   6.499  12.408   8.396
 4839SOL     OW16348   3.340   8.038  12.364
 4839SOL    HW116349   3.338   7.969  12.298
 4839SOL    HW216350   3.311   7.995  12.444
 4840SOL     OW16351  10.000  14.668   2.959
 4840SOL    HW116352   9.996  14.572   2.963
 4840SOL    HW216353   9.918  14.697   2.999
 4841SOL     OW16354   6.401   8.886  14.078
 4841SOL    HW116355   6.310   8.915  14.076
 4841SOL    HW216356   6.447   8.947  14.021
 4842SOL     OW16357   7.410   0.227   6.482
 4842SOL    HW116358   7.501   0.210   6.462
 4842SOL    HW216359   7.378   0.279   6.408
 4843SOL     OW16360  14.208  14.818  10.014
 4843SOL    HW116361  14.120  14.784   9.996
 4843SOL    HW216362  14.263  14.740  10.021
 4844SOL     OW16363   6.239   5.782   4.804
 4844SOL    HW116364   6.164   5.725   4.786
 4844SOL    HW216365   6.215   5.866   4.765
 4845SOL     OW16366  13.319   1.580   9.463
 4845SOL    HW116367  13.396   1.631   9.437
 4845SOL    HW216368  13.348   1.489   9.457
 4846SOL     OW16369   1.471   8.927  12.513
 4846SOL    HW116370   1.383   8.892  12.530
 4846SOL    HW216371   1.520   8.853  12.477
 4847SOL     OW16372  13.306  10.805   5.392
 4847SOL    HW116373  13.350  10.862   5.329
 4847SOL    HW216374  13.354  10.722   5.387
 4848SOL     OW16375   8.837   5.960   3.165
 4848SOL    HW116376   8.885   5.911   3.097
 4848SOL    HW216377   8.859   6.052   3.148
 4849SOL     OW16378  12.966  14.636   3.842
 4849SOL    HW116379  13.007  14.580   3.776
 4849SOL    HW216380  13.012  14.614   3.923
 4850SOL     OW16381  13.268   5.812   4.329
 4850SOL    HW116382  13.305   5.872   4.263
 4850SOL    HW216383  13.281   5.725   4.292
 4851SOL     OW16384   8.262  11.394   0.456
 4851SOL    HW116385   8.213  11.395   0.373
 4851SOL    HW216386   8.336  11.453   0.441
 4852SOL     OW16387   6.356   1.083   5.312
 4852SOL    HW116388   6.276   1.136   5.311
 4852SOL    HW216389   6.357   1.043   5.399
 4853SOL     OW16390   7.651  13.587   8.595
 4853SOL    HW116391   7.715  13.547   8.536
 4853SOL    HW216392   7.697  13.663   8.632
 4854SOL     OW16393   0.049   5.475  11.177
 4854SOL    HW116394  14.847   5.414  11.172
 4854SOL    HW216395   0.116   5.426  11.224
 4855SOL     OW16396   8.936  13.954  14.390
 4855SOL    HW116397   8.976  13.883  14.340
 4855SOL    HW216398   8.912  14.019  14.324
 4856SOL     OW16399   1.916  10.078   0.374
 4856SOL    HW116400   1.964  10.145   0.325
 4856SOL    HW216401   1.828  10.114   0.382
 4857SOL     OW16402  14.071   3.139   7.865
 4857SOL    HW116403  14.027   3.101   7.941
 4857SOL    HW216404  14.113   3.219   7.899
 4858SOL     OW16405   6.192  12.579   9.585
 4858SOL    HW116406   6.173  12.642   9.655
 4858SOL    HW216407   6.285  12.594   9.565
 4859SOL     OW16408   7.390   6.525   0.840
 4859SOL    HW116409   7.365   6.568   0.758
 4859SOL    HW216410   7.333   6.564   0.906
 4860SOL     OW16411  13.157  10.550   6.263
 4860SOL    HW116412  13.204  10.617   6.314
 4860SOL    HW216413  13.064  10.570   6.277
 4861SOL     OW16414   3.627   3.042   8.457
 4861SOL    HW116415   3.648   3.028   8.549
 4861SOL    HW216416   3.692   3.106   8.428
 4862SOL     OW16417   1.824   6.721   1.333
 4862SOL    HW116418   1.771   6.786   1.379
 4862SOL    HW216419   1.833   6.756   1.244
 4863SOL     OW16420  10.652  12.607  13.438
 4863SOL    HW116421  10.570  12.559  13.445
 4863SOL    HW216422  10.717  12.540  13.415
 4864SOL     OW16423  13.332   3.801   6.229
 4864SOL    HW116424  13.246   3.778   6.193
 4864SOL    HW216425  13.375   3.717   6.245
 4865SOL     OW16426   7.153  14.082  12.165
 4865SOL    HW116427   7.085  14.130  12.117
 4865SOL    HW216428   7.134  13.990  12.147
 4866SOL     OW16429  10.451   1.563   5.772
 4866SOL    HW116430  10.371   1.604   5.739
 4866SOL    HW216431  10.521   1.608   5.724
 4867SOL     OW16432   1.319  11.376  11.921
 4867SOL    HW116433   1.254  11.401  11.854
 4867SOL    HW216434   1.336  11.456  11.969
 4868SOL     OW16435   0.954   2.066  11.951
 4868SOL    HW116436   1.018   2.010  11.907
 4868SOL    HW216437   0.869   2.034  11.921
 4869SOL     OW16438  10.225   9.933   4.580
 4869SOL    HW116439  10.209   9.962   4.490
 4869SOL    HW216440  10.194  10.005   4.634
 4870SOL     OW16441   6.406   9.960  11.018
 4870SOL    HW116442   6.320   9.941  11.057
 4870SOL    HW216443   6.423   9.885  10.961
 4871SOL     OW16444   4.857   9.663  12.483
 4871SOL    HW116445   4.868   9.748  12.525
 4871SOL    HW216446   4.926   9.608  12.520
 4872SOL     OW16447   0.464   1.828   0.216
 4872SOL    HW116448   0.536   1.864   0.268
 4872SOL    HW216449   0.443   1.745   0.258
 4873SOL     OW16450   6.363   0.075   5.987
 4873SOL    HW116451   6.310   0.008   5.945
 4873SOL    HW216452   6.411   0.029   6.056
 4874SOL     OW16453   7.043  11.956   9.345
 4874SOL    HW116454   7.134  11.961   9.375
 4874SOL    HW216455   7.025  11.863   9.334
 4875SOL     OW16456   1.408  11.537   4.209
 4875SOL    HW116457   1.477  11.470   4.209
 4875SOL    HW216458   1.327  11.487   4.196
 4876SOL     OW16459  10.853   5.166   7.514
 4876SOL    HW116460  10.865   5.086   7.565
 4876SOL    HW216461  10.780   5.211   7.557
 4877SOL     OW16462   6.244   2.278   2.922
 4877SOL    HW116463   6.264   2.314   3.008
 4877SOL    HW216464   6.153   2.303   2.906
 4878SOL     OW16465   9.770  13.130   6.177
 4878SOL    HW116466   9.784  13.074   6.253
 4878SOL    HW216467   9.738  13.212   6.213
 4879SOL     OW16468   0.002  10.951   8.165
 4879SOL    HW116469   0.095  10.973   8.177
 4879SOL    HW216470  14.845  11.010   8.095
 4880SOL     OW16471   1.967   8.292   9.051
 4880SOL    HW116472   1.891   8.270   9.105
 4880SOL    HW216473   2.042   8.276   9.107
 4881SOL     OW16474   1.585  10.472   1.604
 4881SOL    HW116475   1.507  10.522   1.580
 4881SOL    HW216476   1.563  10.381   1.581
 4882SOL     OW16477  13.304   2.203   0.667
 4882SOL    HW116478  13.343   2.180   0.751
 4882SOL    HW216479  13.361   2.163   0.602
 4883SOL     OW16480   2.962  10.995   2.470
 4883SOL    HW116481   2.906  10.921   2.494
 4883SOL    HW216482   3.046  10.955   2.447
 4884SOL     OW16483  12.571   6.551  12.100
 4884SOL    HW116484  12.585   6.603  12.021
 4884SOL    HW216485  12.636   6.481  12.094
 4885SOL     OW16486   0.400   7.301   8.946
 4885SOL    HW116487   0.441   7.239   9.006
 4885SOL    HW216488   0.381   7.250   8.868
 4886SOL     OW16489   8.225   7.284  13.977
 4886SOL    HW116490   8.141   7.273  13.931
 4886SOL    HW216491   8.264   7.197  13.977
 4887SOL     OW16492   2.069  13.988   4.792
 4887SOL    HW116493   2.136  13.956   4.852
 4887SOL    HW216494   2.005  13.916   4.787
 4888SOL     OW16495   0.613   9.683  12.403
 4888SOL    HW116496   0.586   9.770  12.374
 4888SOL    HW216497   0.707   9.690  12.416
 4889SOL     OW16498   4.090  12.151  14.671
 4889SOL    HW116499   4.145  12.125  14.597
 4889SOL    HW216500   4.147  12.142  14.747
 4890SOL     OW16501   5.251   5.098  12.552
 4890SOL    HW116502   5.221   5.189  12.560
 4890SOL    HW216503   5.198   5.049  12.614
 4891SOL     OW16504   1.748   4.684   6.882
 4891SOL    HW116505   1.685   4.754   6.866
 4891SOL    HW216506   1.699   4.604   6.863
 4892SOL     OW16507   9.735   8.452  14.481
 4892SOL    HW116508   9.820   8.495  14.488
 4892SOL    HW216509   9.752   8.360  14.499
 4893SOL     OW16510   4.650  12.816   0.672
 4893SOL    HW116511   4.718  12.813   0.739
 4893SOL    HW216512   4.587  12.749   0.699
 4894SOL     OW16513   5.462  14.608   3.075
 4894SOL    HW116514   5.425  14.552   3.143
 4894SOL    HW216515   5.386  14.651   3.035
 4895SOL     OW16516  10.121   4.349   6.412
 4895SOL    HW116517  10.197   4.334   6.469
 4895SOL    HW216518  10.123   4.276   6.350
 4896SOL     OW16519  13.406   3.172   3.915
 4896SOL    HW116520  13.379   3.100   3.858
 4896SOL    HW216521  13.495   3.150   3.942
 4897SOL     OW16522   4.923   0.451   1.181
 4897SOL    HW116523   4.942   0.357   1.189
 4897SOL    HW216524   4.957   0.475   1.096
 4898SOL     OW16525  12.577   7.334   1.988
 4898SOL    HW116526  12.511   7.351   1.921
 4898SOL    HW216527  12.658   7.322   1.939
 4899SOL     OW16528   6.888  11.847   4.922
 4899SOL    HW116529   6.825  11.896   4.869
 4899SOL    HW216530   6.932  11.789   4.859
 4900SOL     OW16531   1.795   5.464  10.572
 4900SOL    HW116532   1.768   5.544  10.527
 4900SOL    HW216533   1.795   5.397  10.503
 4901SOL     OW16534   3.628   7.936   0.862
 4901SOL    HW116535   3.711   7.961   0.821
 4901SOL    HW216536   3.595   8.016   0.902
 4902SOL     OW16537  14.074  13.488   0.457
 4902SOL    HW116538  14.095  13.581   0.466
 4902SOL    HW216539  14.148  13.442   0.495
 4903SOL     OW16540   8.706   5.890  10.937
 4903SOL    HW116541   8.777   5.902  10.874
 4903SOL    HW216542   8.683   5.798  10.929
 4904SOL     OW16543   9.874   4.864   1.754
 4904SOL    HW116544   9.859   4.902   1.667
 4904SOL    HW216545   9.931   4.789   1.737
 4905SOL     OW16546   5.302   0.059   9.291
 4905SOL    HW116547   5.327  14.870   9.360
 4905SOL    HW216548   5.248   0.007   9.231
 4906SOL     OW16549   9.255  13.757   1.463
 4906SOL    HW116550   9.192  13.717   1.403
 4906SOL    HW216551   9.317  13.688   1.483
 4907SOL     OW16552  10.226  11.387  12.817
 4907SOL    HW116553  10.263  11.334  12.887
 4907SOL    HW216554  10.238  11.335  12.738
 4908SOL     OW16555   2.294   5.869  12.824
 4908SOL    HW116556   2.272   5.786  12.782
 4908SOL    HW216557   2.223   5.928  12.799
 4909SOL     OW16558   7.568  13.001   5.908
 4909SOL    HW116559   7.582  13.091   5.877
 4909SOL    HW216560   7.649  12.955   5.887
 4910SOL     OW16561   1.272  12.848   8.502
 4910SOL    HW116562   1.309  12.776   8.553
 4910SOL    HW216563   1.348  12.900   8.477
 4911SOL     OW16564  14.566   8.041  11.489
 4911SOL    HW116565  14.623   8.016  11.416
 4911SOL    HW216566  14.552   7.960  11.537
 4912SOL     OW16567  11.880   5.761   8.942
 4912SOL    HW116568  11.867   5.675   8.902
 4912SOL    HW216569  11.798   5.778   8.989
 4913SOL     OW16570   0.632  12.961   6.955
 4913SOL    HW116571   0.562  13.026   6.951
 4913SOL    HW216572   0.712  13.013   6.962
 4914SOL     OW16573  10.388   2.732   1.875
 4914SOL    HW116574  10.429   2.806   1.919
 4914SOL    HW216575  10.319   2.771   1.822
 4915SOL     OW16576   6.023  14.360  11.302
 4915SOL    HW116577   6.017  14.371  11.397
 4915SOL    HW216578   6.018  14.449  11.267
 4916SOL     OW16579   3.097   7.521  11.287
 4916SOL    HW116580   3.014   7.546  11.246
 4916SOL    HW216581   3.100   7.426  11.278
 4917SOL     OW16582   0.570  10.214   3.333
 4917SOL    HW116583   0.548  10.168   3.414
 4917SOL    HW216584   0.564  10.146   3.266
 4918SOL     OW16585  13.726   1.180  14.263
 4918SOL    HW116586  13.712   1.213  14.174
 4918SOL    HW216587  13.778   1.100  14.251
 4919SOL     OW16588  10.622   6.046   0.216
 4919SOL    HW116589  10.576   5.967   0.189
 4919SOL    HW216590  10.604   6.053   0.310
 4920SOL     OW16591   8.336  12.060   6.123
 4920SOL    HW116592   8.352  11.972   6.157
 4920SOL    HW216593   8.351  12.053   6.029
 4921SOL     OW16594   8.761   4.870  13.114
 4921SOL    HW116595   8.736   4.878  13.022
 4921SOL    HW216596   8.856   4.856  13.112
 4922SOL     OW16597   8.557  11.128  13.855
 4922SOL    HW116598   8.565  11.035  13.836
 4922SOL    HW216599   8.479  11.135  13.910
 4923SOL     OW16600   1.730  12.792   2.856
 4923SOL    HW116601   1.675  12.756   2.786
 4923SOL    HW216602   1.670  12.847   2.907
 4924SOL     OW16603  13.934  13.845  10.069
 4924SOL    HW116604  13.881  13.894  10.131
 4924SOL    HW216605  13.965  13.769  10.118
 4925SOL     OW16606   2.313  12.683  14.317
 4925SOL    HW116607   2.397  12.710  14.282
 4925SOL    HW216608   2.270  12.638  14.244
 4926SOL     OW16609  14.434   0.422   9.639
 4926SOL    HW116610  14.495   0.408   9.567
 4926SOL    HW216611  14.485   0.404   9.718
 4927SOL     OW16612   7.452  12.023   5.120
 4927SOL    HW116613   7.500  12.025   5.203
 4927SOL    HW216614   7.383  12.089   5.131
 4928SOL     OW16615   2.700   6.542  12.642
 4928SOL    HW116616   2.775   6.561  12.699
 4928SOL    HW216617   2.723   6.459  12.600
 4929SOL     OW16618   2.800   4.555   1.176
 4929SOL    HW116619   2.728   4.572   1.236
 4929SOL    HW216620   2.852   4.487   1.219
 4930SOL     OW16621   0.378  14.294   0.348
 4930SOL    HW116622   0.420  14.323   0.267
 4930SOL    HW216623   0.410  14.356   0.414
 4931SOL     OW16624   6.820   1.060   8.338
 4931SOL    HW116625   6.798   1.008   8.262
 4931SOL    HW216626   6.914   1.048   8.349
 4932SOL     OW16627   4.266   8.093  12.346
 4932SOL    HW116628   4.359   8.111  12.361
 4932SOL    HW216629   4.254   8.108  12.252
 4933SOL     OW16630  14.170   5.909   5.591
 4933SOL    HW116631  14.157   5.946   5.504
 4933SOL    HW216632  14.223   5.975   5.636
 4934SOL     OW16633  11.554   3.377   5.009
 4934SOL    HW116634  11.572   3.283   5.018
 4934SOL    HW216635  11.539   3.406   5.099
 4935SOL     OW16636   4.429   4.395   1.332
 4935SOL    HW116637   4.452   4.313   1.290
 4935SOL    HW216638   4.511   4.424   1.374
 4936SOL     OW16639  13.702  11.428   8.192
 4936SOL    HW116640  13.760  11.434   8.268
 4936SOL    HW216641  13.756  11.458   8.119
 4937SOL     OW16642   5.048   2.994   3.241
 4937SOL    HW116643   4.955   2.972   3.251
 4937SOL    HW216644   5.056   3.081   3.280
 4938SOL     OW16645  10.028  13.569  10.626
 4938SOL    HW116646  10.090  13.497  10.643
 4938SOL    HW216647  10.074  13.627  10.566
 4939SOL     OW16648   0.149   6.264  14.201
 4939SOL    HW116649   0.140   6.177  14.239
 4939SOL    HW216650   0.066   6.279  14.155
 4940SOL     OW16651   0.075   0.802   4.892
 4940SOL    HW116652   0.166   0.831   4.890
 4940SOL    HW216653   0.030   0.866   4.947
 4941SOL     OW16654   8.002   6.624   9.099
 4941SOL    HW116655   7.991   6.533   9.125
 4941SOL    HW216656   8.057   6.620   9.021
 4942SOL     OW16657   5.708  11.232   4.680
 4942SOL    HW116658   5.803  11.224   4.689
 4942SOL    HW216659   5.673  11.173   4.747
 4943SOL     OW16660   8.680   3.119  10.597
 4943SOL    HW116661   8.752   3.135  10.658
 4943SOL    HW216662   8.673   3.200  10.546
 4944SOL     OW16663   3.385   2.782   6.436
 4944SOL    HW116664   3.381   2.858   6.378
 4944SOL    HW216665   3.385   2.818   6.524
 4945SOL     OW16666   8.135   3.443   9.999
 4945SOL    HW116667   8.051   3.488  10.007
 4945SOL    HW216668   8.200   3.513   9.992
 4946SOL     OW16669   6.977   3.988   5.843
 4946SOL    HW116670   6.953   3.909   5.795
 4946SOL    HW216671   6.982   4.056   5.775
 4947SOL     OW16672   3.161   1.298   1.620
 4947SOL    HW116673   3.206   1.318   1.537
 4947SOL    HW216674   3.219   1.333   1.687
 4948SOL     OW16675   3.615   1.308   2.985
 4948SOL    HW116676   3.683   1.303   2.918
 4948SOL    HW216677   3.590   1.217   3.001
 4949SOL     OW16678  14.850   8.345  14.743
 4949SOL    HW116679  14.785   8.397  14.790
 4949SOL    HW216680  14.862   8.390  14.660
 4950SOL     OW16681   8.464   9.625   4.927
 4950SOL    HW116682   8.443   9.532   4.919
 4950SOL    HW216683   8.384   9.665   4.960
 4951SOL     OW16684  14.645   7.901   2.317
 4951SOL    HW116685  14.669   7.837   2.384
 4951SOL    HW216686  14.577   7.858   2.265
 4952SOL     OW16687   8.760   6.831  14.130
 4952SOL    HW116688   8.723   6.756  14.176
 4952SOL    HW216689   8.830   6.862  14.188
 4953SOL     OW16690   0.914   2.162   4.807
 4953SOL    HW116691   0.949   2.079   4.775
 4953SOL    HW216692   0.897   2.146   4.900
 4954SOL     OW16693   7.937   2.490   4.114
 4954SOL    HW116694   7.909   2.405   4.080
 4954SOL    HW216695   7.907   2.552   4.048
 4955SOL     OW16696  10.145   4.792  13.892
 4955SOL    HW116697  10.184   4.838  13.966
 4955SOL    HW216698  10.138   4.701  13.920
 4956SOL     OW16699   5.654   6.218  14.654
 4956SOL    HW116700   5.702   6.294  14.624
 4956SOL    HW216701   5.568   6.251  14.679
 4957SOL     OW16702  11.133   3.002   5.421
 4957SOL    HW116703  11.068   2.987   5.489
 4957SOL    HW216704  11.090   2.972   5.340
 4958SOL     OW16705  10.157   6.526   8.953
 4958SOL    HW116706  10.143   6.575   8.872
 4958SOL    HW216707  10.249   6.538   8.973
 4959SOL     OW16708   2.657   2.946   3.674
 4959SOL    HW116709   2.571   2.940   3.631
 4959SOL    HW216710   2.651   3.024   3.729
 4960SOL     OW16711  12.369  14.122   3.374
 4960SOL    HW116712  12.322  14.156   3.450
 4960SOL    HW216713  12.404  14.200   3.330
 4961SOL     OW16714   8.663   7.141   7.906
 4961SOL    HW116715   8.585   7.112   7.858
 4961SOL    HW216716   8.679   7.073   7.971
 4962SOL     OW16717   2.092   9.657  14.126
 4962SOL    HW116718   2.150   9.685  14.055
 4962SOL    HW216719   2.110   9.719  14.197
 4963SOL     OW16720  13.445   5.517   2.883
 4963SOL    HW116721  13.514   5.582   2.894
 4963SOL    HW216722  13.490   5.442   2.842
 4964SOL     OW16723   0.629  12.133   1.286
 4964SOL    HW116724   0.660  12.083   1.212
 4964SOL    HW216725   0.695  12.202   1.299
 4965SOL     OW16726   2.085  11.462  12.876
 4965SOL    HW116727   2.127  11.421  12.801
 4965SOL    HW216728   2.033  11.533  12.839
 4966SOL     OW16729   8.877   9.361   9.466
 4966SOL    HW116730   8.878   9.266   9.460
 4966SOL    HW216731   8.959   9.383   9.510
 4967SOL     OW16732  12.934   6.920   7.170
 4967SOL    HW116733  12.994   6.949   7.238
 4967SOL    HW216734  12.852   6.901   7.216
 4968SOL     OW16735   4.384   7.135  12.301
 4968SOL    HW116736   4.333   7.163  12.377
 4968SOL    HW216737   4.454   7.200  12.294
 4969SOL     OW16738   8.811   2.506  13.454
 4969SOL    HW116739   8.818   2.550  13.539
 4969SOL    HW216740   8.901   2.494  13.426
 4970SOL     OW16741  12.376   2.135   7.211
 4970SOL    HW116742  12.446   2.148   7.274
 4970SOL    HW216743  12.327   2.218   7.211
 4971SOL     OW16744  11.928   3.520   5.883
 4971SOL    HW116745  12.021   3.515   5.902
 4971SOL    HW216746  11.899   3.603   5.922
 4972SOL     OW16747   6.397  11.873   1.201
 4972SOL    HW116748   6.322  11.876   1.261
 4972SOL    HW216749   6.416  11.964   1.182
 4973SOL     OW16750   2.904   7.324   1.850
 4973SOL    HW116751   2.948   7.402   1.883
 4973SOL    HW216752   2.886   7.272   1.929
 4974SOL     OW16753   4.593   8.912  12.232
 4974SOL    HW116754   4.615   8.999  12.199
 4974SOL    HW216755   4.676   8.877  12.266
 4975SOL     OW16756   8.918   6.832   3.309
 4975SOL    HW116757   8.854   6.804   3.244
 4975SOL    HW216758   8.918   6.928   3.302
 4976SOL     OW16759  13.133   2.601   0.703
 4976SOL    HW116760  13.185   2.588   0.782
 4976SOL    HW216761  13.061   2.658   0.731
 4977SOL     OW16762  10.384  12.077  11.326
 4977SOL    HW116763  10.433  12.020  11.266
 4977SOL    HW216764  10.422  12.060  11.412
 4978SOL     OW16765   2.218   8.633  13.667
 4978SOL    HW116766   2.221   8.541  13.640
 4978SOL    HW216767   2.186   8.631  13.757
 4979SOL     OW16768   8.187   7.818   9.534
 4979SOL    HW116769   8.265   7.859   9.497
 4979SOL    HW216770   8.222   7.746   9.588
 4980SOL     OW16771   2.675  12.872  11.036
 4980SOL    HW116772   2.702  12.785  11.009
 4980SOL    HW216773   2.711  12.883  11.124
 4981SOL     OW16774   9.668   6.335  14.548
 4981SOL    HW116775   9.667   6.241  14.531
 4981SOL    HW216776   9.739   6.369  14.492
 4982SOL     OW16777   5.379   7.050  10.238
 4982SOL    HW116778   5.324   7.109  10.187
 4982SOL    HW216779   5.452   7.105  10.268
 4983SOL     OW16780   9.649  12.361  13.805
 4983SOL    HW116781   9.598  12.442  13.810
 4983SOL    HW216782   9.661  12.334  13.896
 4984SOL     OW16783  12.428  11.755  14.710
 4984SOL    HW116784  12.388  11.748  14.797
 4984SOL    HW216785  12.356  11.736  14.649
 4985SOL     OW16786   0.299   3.319   3.159
 4985SOL    HW116787   0.240   3.376   3.209
 4985SOL    HW216788   0.268   3.324   3.069
 4986SOL     OW16789   4.610   9.673  14.393
 4986SOL    HW116790   4.671   9.609  14.431
 4986SOL    HW216791   4.659   9.712  14.321
 4987SOL     OW16792  12.996   9.994   3.859
 4987SOL    HW116793  13.065  10.056   3.837
 4987SOL    HW216794  12.916  10.036   3.828
 4988SOL     OW16795   8.308   3.522   2.943
 4988SOL    HW116796   8.270   3.594   2.993
 4988SOL    HW216797   8.347   3.465   3.009
 4989SOL     OW16798   1.448   3.692   1.279
 4989SOL    HW116799   1.427   3.782   1.304
 4989SOL    HW216800   1.431   3.641   1.359
 4990SOL     OW16801  13.522   9.813  10.942
 4990SOL    HW116802  13.590   9.832  11.007
 4990SOL    HW216803  13.444   9.855  10.975
 4991SOL     OW16804   6.646   2.924   4.990
 4991SOL    HW116805   6.565   2.974   4.981
 4991SOL    HW216806   6.641   2.857   4.922
 4992SOL     OW16807   3.287   1.031   5.362
 4992SOL    HW116808   3.222   1.064   5.424
 4992SOL    HW216809   3.295   1.100   5.296
 4993SOL     OW16810   5.428  10.521   3.731
 4993SOL    HW116811   5.480  10.512   3.811
 4993SOL    HW216812   5.379  10.439   3.725
 4994SOL     OW16813   9.532   8.452   6.346
 4994SOL    HW116814   9.477   8.423   6.273
 4994SOL    HW216815   9.556   8.372   6.392
 4995SOL     OW16816   1.362   0.910   5.938
 4995SOL    HW116817   1.309   0.884   5.864
 4995SOL    HW216818   1.376   0.829   5.987
 4996SOL     OW16819   3.693   6.226   7.868
 4996SOL    HW116820   3.727   6.309   7.834
 4996SOL    HW216821   3.771   6.180   7.900
 4997SOL     OW16822   3.618   2.343   7.618
 4997SOL    HW116823   3.712   2.357   7.609
 4997SOL    HW216824   3.591   2.403   7.687
 4998SOL     OW16825  12.234   4.439  11.334
 4998SOL    HW116826  12.324   4.468  11.319
 4998SOL    HW216827  12.237   4.344  11.321
 4999SOL     OW16828  11.032   2.060   6.911
 4999SOL    HW116829  11.083   2.065   6.830
 4999SOL    HW216830  11.023   1.966   6.928
 5000SOL     OW16831  11.958   3.008   6.671
 5000SOL    HW116832  11.949   2.944   6.741
 5000SOL    HW216833  11.993   3.086   6.714
 5001SOL     OW16834   3.931   5.154  12.560
 5001SOL    HW116835   3.981   5.141  12.479
 5001SOL    HW216836   3.965   5.237  12.595
 5002SOL     OW16837   4.246   7.165   3.993
 5002SOL    HW116838   4.305   7.098   3.959
 5002SOL    HW216839   4.293   7.202   4.068
 5003SOL     OW16840  10.921   5.715   6.346
 5003SOL    HW116841  11.003   5.735   6.391
 5003SOL    HW216842  10.868   5.670   6.412
 5004SOL     OW16843  14.030   3.456   2.581
 5004SOL    HW116844  14.000   3.370   2.610
 5004SOL    HW216845  13.954   3.493   2.535
 5005SOL     OW16846   2.402   8.315   5.936
 5005SOL    HW116847   2.425   8.400   5.973
 5005SOL    HW216848   2.399   8.256   6.011
 5006SOL     OW16849   3.533   3.077   4.565
 5006SOL    HW116850   3.487   3.153   4.530
 5006SOL    HW216851   3.503   3.004   4.511
 5007SOL     OW16852   2.691   0.899   0.609
 5007SOL    HW116853   2.699   0.816   0.656
 5007SOL    HW216854   2.739   0.884   0.527
 5008SOL     OW16855  11.805   4.468   3.335
 5008SOL    HW116856  11.790   4.484   3.242
 5008SOL    HW216857  11.813   4.556   3.373
 5009SOL     OW16858  10.961   6.195   5.009
 5009SOL    HW116859  10.912   6.236   5.081
 5009SOL    HW216860  10.902   6.201   4.934
 5010SOL     OW16861   0.531   1.733   8.820
 5010SOL    HW116862   0.516   1.639   8.829
 5010SOL    HW216863   0.572   1.744   8.735
 5011SOL     OW16864   9.846   3.264   7.755
 5011SOL    HW116865   9.817   3.267   7.664
 5011SOL    HW216866   9.894   3.346   7.768
 5012SOL     OW16867   5.077   7.058   0.381
 5012SOL    HW116868   5.027   7.129   0.340
 5012SOL    HW216869   5.103   7.093   0.466
 5013SOL     OW16870  12.722   4.480   2.336
 5013SOL    HW116871  12.807   4.436   2.347
 5013SOL    HW216872  12.723   4.551   2.400
 5014SOL     OW16873   9.249   3.900  12.743
 5014SOL    HW116874   9.169   3.926  12.789
 5014SOL    HW216875   9.249   3.954  12.664
 5015SOL     OW16876   8.195   4.675   2.830
 5015SOL    HW116877   8.156   4.589   2.816
 5015SOL    HW216878   8.233   4.699   2.746
 5016SOL     OW16879   4.650   4.984  10.057
 5016SOL    HW116880   4.567   4.937  10.068
 5016SOL    HW216881   4.697   4.934   9.991
 5017SOL     OW16882   6.862   0.017  10.362
 5017SOL    HW116883   6.838  14.807  10.405
 5017SOL    HW216884   6.955   0.029  10.382
 5018SOL     OW16885   8.618  10.516   7.844
 5018SOL    HW116886   8.684  10.514   7.914
 5018SOL    HW216887   8.666  10.542   7.766
 5019SOL     OW16888   3.926  11.159   3.448
 5019SOL    HW116889   3.837  11.141   3.418
 5019SOL    HW216890   3.917  11.178   3.542
 5020SOL     OW16891   4.059   4.762   3.077
 5020SOL    HW116892   4.061   4.725   2.988
 5020SOL    HW216893   4.089   4.852   3.066
 5021SOL     OW16894   0.682   7.974   7.868
 5021SOL    HW116895   0.641   7.963   7.782
 5021SOL    HW216896   0.705   7.885   7.895
 5022SOL     OW16897  10.755  14.107   9.907
 5022SOL    HW116898  10.778  14.124   9.998
 5022SOL    HW216899  10.663  14.134   9.900
 5023SOL     OW16900   0.180   7.028  12.556
 5023SOL    HW116901   0.109   7.074  12.601
 5023SOL    HW216902   0.144   7.007  12.470
 5024SOL     OW16903   9.986   8.007  13.112
 5024SOL    HW116904  10.016   8.000  13.202
 5024SOL    HW216905   9.892   8.023  13.120
 5025SOL     OW16906   7.558  13.925   6.914
 5025SOL    HW116907   7.553  13.999   6.854
 5025SOL    HW216908   7.648  13.894   6.908
 5026SOL     OW16909  11.640  10.351   3.027
 5026SOL    HW116910  11.691  10.405   2.967
 5026SOL    HW216911  11.692  10.348   3.107
 5027SOL     OW16912   5.265   4.007   4.082
 5027SOL    HW116913   5.204   4.005   4.156
 5027SOL    HW216914   5.278   3.915   4.060
 5028SOL     OW16915   2.466   4.530  10.148
 5028SOL    HW116916   2.430   4.608  10.105
 5028SOL    HW216917   2.511   4.564  10.225
 5029SOL     OW16918   3.338   8.980   0.063
 5029SOL    HW116919   3.243   8.979   0.071
 5029SOL    HW216920   3.357   9.065   0.023
 5030SOL     OW16921   1.954  10.038  12.227
 5030SOL    HW116922   1.948  10.111  12.165
 5030SOL    HW216923   1.973   9.962  12.172
 5031SOL     OW16924   5.126   6.513   6.676
 5031SOL    HW116925   5.111   6.582   6.612
 5031SOL    HW216926   5.110   6.555   6.761
 5032SOL     OW16927   6.631   9.854   7.583
 5032SOL    HW116928   6.723   9.832   7.568
 5032SOL    HW216929   6.591   9.851   7.496
 5033SOL     OW16930   0.075   3.167   7.197
 5033SOL    HW116931   0.004   3.142   7.137
 5033SOL    HW216932   0.047   3.252   7.233
 5034SOL     OW16933  13.970   5.814  10.222
 5034SOL    HW116934  14.007   5.874  10.285
 5034SOL    HW216935  13.875   5.827  10.229
 5035SOL     OW16936   2.925  12.966   0.322
 5035SOL    HW116937   2.887  12.906   0.386
 5035SOL    HW216938   2.995  13.011   0.370
 5036SOL     OW16939   6.937  10.909  13.671
 5036SOL    HW116940   7.022  10.905  13.627
 5036SOL    HW216941   6.893  10.984  13.630
 5037SOL     OW16942   2.291  13.726   9.158
 5037SOL    HW116943   2.360  13.785   9.126
 5037SOL    HW216944   2.242  13.701   9.080
 5038SOL     OW16945  14.310   3.729   3.334
 5038SOL    HW116946  14.353   3.805   3.372
 5038SOL    HW216947  14.382   3.671   3.308
 5039SOL     OW16948   0.409   3.279  13.780
 5039SOL    HW116949   0.358   3.353  13.749
 5039SOL    HW216950   0.500   3.310  13.778
 5040SOL     OW16951   5.191   7.353  14.621
 5040SOL    HW116952   5.232   7.394  14.545
 5040SOL    HW216953   5.146   7.277  14.585
 5041SOL     OW16954   0.666  13.946  10.835
 5041SOL    HW116955   0.631  13.917  10.919
 5041SOL    HW216956   0.610  13.904  10.769
 5042SOL     OW16957   4.760   8.957  13.133
 5042SOL    HW116958   4.785   8.886  13.074
 5042SOL    HW216959   4.668   8.940  13.153
 5043SOL     OW16960   5.955  13.213  12.385
 5043SOL    HW116961   5.991  13.147  12.444
 5043SOL    HW216962   5.956  13.171  12.299
 5044SOL     OW16963   0.303   4.747  11.833
 5044SOL    HW116964   0.263   4.834  11.828
 5044SOL    HW216965   0.323   4.724  11.742
 5045SOL     OW16966  11.490   5.839   3.792
 5045SOL    HW116967  11.493   5.743   3.791
 5045SOL    HW216968  11.494   5.864   3.699
 5046SOL     OW16969   6.227   0.642  11.035
 5046SOL    HW116970   6.314   0.619  11.002
 5046SOL    HW216971   6.172   0.645  10.957
 5047SOL     OW16972  10.206  11.403  14.421
 5047SOL    HW116973  10.225  11.392  14.328
 5047SOL    HW216974  10.209  11.498  14.435
 5048SOL     OW16975   9.703   6.110   1.877
 5048SOL    HW116976   9.679   6.059   1.955
 5048SOL    HW216977   9.726   6.196   1.911
 5049SOL     OW16978  11.481   1.352   1.478
 5049SOL    HW116979  11.544   1.406   1.430
 5049SOL    HW216980  11.473   1.272   1.427
 5050SOL     OW16981  11.601  11.415   9.503
 5050SOL    HW116982  11.540  11.385   9.436
 5050SOL    HW216983  11.652  11.484   9.460
 5051SOL     OW16984  10.126   3.215   2.203
 5051SOL    HW116985  10.121   3.302   2.244
 5051SOL    HW216986  10.158   3.158   2.273
 5052SOL     OW16987  14.473   8.852  13.875
 5052SOL    HW116988  14.473   8.764  13.836
 5052SOL    HW216989  14.505   8.909  13.805
 5053SOL     OW16990  13.580   8.588   5.486
 5053SOL    HW116991  13.669   8.600   5.452
 5053SOL    HW216992  13.580   8.634   5.570
 5054SOL     OW16993   6.533  14.350   8.643
 5054SOL    HW116994   6.459  14.316   8.593
 5054SOL    HW216995   6.494  14.384   8.724
 5055SOL     OW16996   7.842  10.105  13.760
 5055SOL    HW116997   7.910  10.120  13.825
 5055SOL    HW216998   7.886  10.121  13.676
 5056SOL     OW16999  11.667   5.582   6.984
 5056SOL    HW117000  11.725   5.569   6.909
 5056SOL    HW217001  11.721   5.630   7.047
 5057SOL     OW17002   1.111   9.509   3.943
 5057SOL    HW117003   1.095   9.499   3.849
 5057SOL    HW217004   1.060   9.438   3.983
 5058SOL     OW17005  13.076   1.545   9.558
 5058SOL    HW117006  13.070   1.463   9.606
 5058SOL    HW217007  13.168   1.551   9.532
 5059SOL     OW17008   8.004   6.974   7.697
 5059SOL    HW117009   7.961   6.960   7.612
 5059SOL    HW217010   7.937   6.951   7.761
 5060SOL     OW17011   0.398  11.630   3.788
 5060SOL    HW117012   0.378  11.616   3.695
 5060SOL    HW217013   0.468  11.568   3.807
 5061SOL     OW17014   6.638  14.411  12.454
 5061SOL    HW117015   6.600  14.325  12.435
 5061SOL    HW217016   6.573  14.473  12.422
 5062SOL     OW17017   6.444   2.415   0.199
 5062SOL    HW117018   6.368   2.420   0.141
 5062SOL    HW217019   6.518   2.397   0.141
 5063SOL     OW17020   2.013   2.648   6.634
 5063SOL    HW117021   1.961   2.611   6.563
 5063SOL    HW217022   2.031   2.574   6.692
 5064SOL     OW17023   0.903   2.108   7.771
 5064SOL    HW117024   0.935   2.020   7.791
 5064SOL    HW217025   0.857   2.099   7.688
 5065SOL     OW17026   8.590   0.300   8.028
 5065SOL    HW117027   8.659   0.352   7.988
 5065SOL    HW217028   8.552   0.250   7.955
 5066SOL     OW17029   7.858   0.381  13.999
 5066SOL    HW117030   7.893   0.465  14.029
 5066SOL    HW217031   7.867   0.323  14.075
 5067SOL     OW17032  12.885   2.805  14.614
 5067SOL    HW117033  12.887   2.847  14.528
 5067SOL    HW217034  12.853   2.716  14.596
 5068SOL     OW17035   3.015   6.022   4.307
 5068SOL    HW117036   2.950   6.092   4.315
 5068SOL    HW217037   3.021   6.005   4.213
 5069SOL     OW17038   8.254   8.777   9.813
 5069SOL    HW117039   8.336   8.779   9.862
 5069SOL    HW217040   8.219   8.865   9.821
 5070SOL     OW17041   7.774   8.829  13.033
 5070SOL    HW117042   7.701   8.885  13.008
 5070SOL    HW217043   7.814   8.875  13.107
 5071SOL     OW17044   2.132  10.343  14.292
 5071SOL    HW117045   2.204  10.360  14.353
 5071SOL    HW217046   2.070  10.291  14.342
 5072SOL     OW17047  10.793   1.882  12.943
 5072SOL    HW117048  10.851   1.958  12.951
 5072SOL    HW217049  10.850   1.813  12.909
 5073SOL     OW17050   1.759   5.304   2.511
 5073SOL    HW117051   1.783   5.249   2.585
 5073SOL    HW217052   1.724   5.384   2.550
 5074SOL     OW17053   4.826  10.875   4.440
 5074SOL    HW117054   4.762  10.812   4.474
 5074SOL    HW217055   4.787  10.907   4.358
 5075SOL     OW17056   6.205   5.784   6.038
 5075SOL    HW117057   6.120   5.748   6.014
 5075SOL    HW217058   6.235   5.728   6.109
 5076SOL     OW17059   5.206   3.413   7.590
 5076SOL    HW117060   5.148   3.388   7.518
 5076SOL    HW217061   5.177   3.502   7.614
 5077SOL     OW17062   9.913  10.352   1.570
 5077SOL    HW117063   9.952  10.356   1.657
 5077SOL    HW217064   9.859  10.273   1.571
 5078SOL     OW17065  13.826   6.752   5.702
 5078SOL    HW117066  13.879   6.672   5.706
 5078SOL    HW217067  13.796   6.756   5.611
 5079SOL     OW17068   3.709   7.265   7.685
 5079SOL    HW117069   3.673   7.329   7.746
 5079SOL    HW217070   3.696   7.305   7.599
 5080SOL     OW17071   5.042  14.506  14.737
 5080SOL    HW117072   5.024  14.503  14.643
 5080SOL    HW217073   5.029  14.416  14.767
 5081SOL     OW17074   4.551   7.700   6.247
 5081SOL    HW117075   4.540   7.745   6.330
 5081SOL    HW217076   4.600   7.761   6.192
 5082SOL     OW17077   3.951   0.332   2.655
 5082SOL    HW117078   4.004   0.272   2.707
 5082SOL    HW217079   3.965   0.304   2.564
 5083SOL     OW17080   5.688   6.803  11.969
 5083SOL    HW117081   5.684   6.798  12.064
 5083SOL    HW217082   5.761   6.863  11.951
 5084SOL     OW17083  14.489   3.417   7.374
 5084SOL    HW117084  14.555   3.352   7.399
 5084SOL    HW217085  14.463   3.393   7.285
 5085SOL     OW17086   2.436  12.687   6.581
 5085SOL    HW117087   2.410  12.658   6.494
 5085SOL    HW217088   2.357  12.724   6.619
 5086SOL     OW17089  13.900   9.749   8.302
 5086SOL    HW117090  13.935   9.802   8.373
 5086SOL    HW217091  13.812   9.724   8.332
 5087SOL     OW17092   9.996   8.484  14.547
 5087SOL    HW117093  10.008   8.412  14.608
 5087SOL    HW217094  10.072   8.479  14.489
 5088SOL     OW17095   9.564   6.716   8.209
 5088SOL    HW117096   9.532   6.633   8.176
 5088SOL    HW217097   9.525   6.782   8.152
 5089SOL     OW17098  12.984   9.989   3.464
 5089SOL    HW117099  12.989   9.899   3.497
 5089SOL    HW217100  12.939  10.038   3.533
 5090SOL     OW17101   6.029   7.248   9.450
 5090SOL    HW117102   6.106   7.205   9.487
 5090SOL    HW217103   5.985   7.180   9.400
 5091SOL     OW17104   4.088   5.370  11.252
 5091SOL    HW117105   4.080   5.459  11.219
 5091SOL    HW217106   4.166   5.335  11.207
 5092SOL     OW17107   4.404   6.321   8.017
 5092SOL    HW117108   4.312   6.296   8.022
 5092SOL    HW217109   4.435   6.315   8.107
 5093SOL     OW17110   4.329  11.726   3.711
 5093SOL    HW117111   4.390  11.654   3.694
 5093SOL    HW217112   4.384  11.803   3.719
 5094SOL     OW17113   9.485  12.650  10.478
 5094SOL    HW117114   9.441  12.570  10.508
 5094SOL    HW217115   9.570  12.648  10.523
 5095SOL     OW17116   1.286  14.584   3.216
 5095SOL    HW117117   1.286  14.496   3.179
 5095SOL    HW217118   1.368  14.590   3.265
 5096SOL     OW17119   3.880  14.599   0.963
 5096SOL    HW117120   3.811  14.663   0.947
 5096SOL    HW217121   3.928  14.594   0.881
 5097SOL     OW17122  10.540  11.609  12.954
 5097SOL    HW117123  10.618  11.589  12.902
 5097SOL    HW217124  10.505  11.690  12.916
 5098SOL     OW17125   8.937   1.439   3.924
 5098SOL    HW117126   8.885   1.515   3.898
 5098SOL    HW217127   8.938   1.383   3.846
 5099SOL     OW17128   6.009   2.315   7.357
 5099SOL    HW117129   6.080   2.369   7.391
 5099SOL    HW217130   6.004   2.338   7.264
 5100SOL     OW17131   5.550   5.181   5.716
 5100SOL    HW117132   5.570   5.226   5.798
 5100SOL    HW217133   5.631   5.188   5.664
 5101SOL     OW17134   7.713   4.649   3.504
 5101SOL    HW117135   7.678   4.629   3.591
 5101SOL    HW217136   7.783   4.712   3.520
 5102SOL     OW17137   6.910   7.212  14.700
 5102SOL    HW117138   7.003   7.222  14.721
 5102SOL    HW217139   6.872   7.298  14.720
 5103SOL     OW17140   3.369   8.840   3.149
 5103SOL    HW117141   3.355   8.893   3.070
 5103SOL    HW217142   3.340   8.896   3.221
 5104SOL     OW17143   4.696   8.040  10.107
 5104SOL    HW117144   4.729   8.129  10.114
 5104SOL    HW217145   4.627   8.045  10.041
 5105SOL     OW17146  10.080   8.914  12.028
 5105SOL    HW117147  10.066   8.920  11.934
 5105SOL    HW217148  10.166   8.871  12.037
 5106SOL     OW17149   5.033   8.135   0.611
 5106SOL    HW117150   5.008   8.214   0.659
 5106SOL    HW217151   5.027   8.065   0.675
 5107SOL     OW17152   2.964  12.147   1.147
 5107SOL    HW117153   3.013  12.216   1.192
 5107SOL    HW217154   2.959  12.076   1.212
 5108SOL     OW17155   1.406   3.246  12.227
 5108SOL    HW117156   1.338   3.251  12.295
 5108SOL    HW217157   1.459   3.324  12.241
 5109SOL     OW17158  14.400  10.084   3.450
 5109SOL    HW117159  14.360  10.136   3.519
 5109SOL    HW217160  14.493  10.102   3.457
 5110SOL     OW17161  12.580   7.477   8.586
 5110SOL    HW117162  12.541   7.529   8.656
 5110SOL    HW217163  12.541   7.390   8.596
 5111SOL     OW17164   8.986  10.266  10.862
 5111SOL    HW117165   8.935  10.287  10.783
 5111SOL    HW217166   9.043  10.342  10.874
 5112SOL     OW17167   4.241   6.406   2.752
 5112SOL    HW117168   4.155   6.423   2.790
 5112SOL    HW217169   4.234   6.318   2.715
 5113SOL     OW17170   9.165   1.986   5.789
 5113SOL    HW117171   9.261   1.980   5.792
 5113SOL    HW217172   9.146   2.029   5.706
 5114SOL     OW17173   2.224   0.152   7.315
 5114SOL    HW117174   2.273   0.188   7.389
 5114SOL    HW217175   2.216   0.225   7.254
 5115SOL     OW17176  12.568   0.438   7.558
 5115SOL    HW117177  12.561   0.362   7.615
 5115SOL    HW217178  12.651   0.426   7.512
 5116SOL     OW17179   4.139   0.431  10.097
 5116SOL    HW117180   4.200   0.365  10.132
 5116SOL    HW217181   4.083   0.382  10.037
 5117SOL     OW17182  12.665   2.354  14.001
 5117SOL    HW117183  12.581   2.397  13.982
 5117SOL    HW217184  12.669   2.281  13.939
 5118SOL     OW17185   1.481  13.738   4.556
 5118SOL    HW117186   1.524  13.653   4.544
 5118SOL    HW217187   1.535  13.800   4.507
 5119SOL     OW17188   5.671   0.764   0.316
 5119SOL    HW117189   5.678   0.813   0.397
 5119SOL    HW217190   5.759   0.768   0.278
 5120SOL     OW17191   8.716  12.021  13.597
 5120SOL    HW117192   8.623  12.006  13.579
 5120SOL    HW217193   8.728  11.988  13.686
 5121SOL     OW17194  13.257   2.653   3.298
 5121SOL    HW117195  13.340   2.700   3.292
 5121SOL    HW217196  13.275   2.567   3.261
 5122SOL     OW17197   1.260   2.226   9.656
 5122SOL    HW117198   1.295   2.306   9.694
 5122SOL    HW217199   1.175   2.251   9.621
 5123SOL     OW17200   3.056   2.435  14.133
 5123SOL    HW117201   3.056   2.343  14.105
 5123SOL    HW217202   3.134   2.443  14.189
 5124SOL     OW17203  11.576  13.915  10.454
 5124SOL    HW117204  11.576  13.826  10.418
 5124SOL    HW217205  11.519  13.909  10.531
 5125SOL     OW17206  11.585   0.365  12.598
 5125SOL    HW117207  11.501   0.384  12.639
 5125SOL    HW217208  11.569   0.380  12.504
 5126SOL     OW17209   9.179  10.335   2.768
 5126SOL    HW117210   9.220  10.256   2.733
 5126SOL    HW217211   9.156  10.386   2.690
 5127SOL     OW17212   5.786   4.877   3.025
 5127SOL    HW117213   5.854   4.900   2.961
 5127SOL    HW217214   5.757   4.961   3.060
 5128SOL     OW17215   1.249  13.048   0.391
 5128SOL    HW117216   1.267  12.958   0.364
 5128SOL    HW217217   1.195  13.039   0.470
 5129SOL     OW17218   3.934   3.363   5.539
 5129SOL    HW117219   3.974   3.360   5.626
 5129SOL    HW217220   3.913   3.272   5.519
 5130SOL     OW17221   1.884   3.132   4.667
 5130SOL    HW117222   1.819   3.094   4.609
 5130SOL    HW217223   1.947   3.175   4.608
 5131SOL     OW17224   4.530  10.044  11.647
 5131SOL    HW117225   4.619  10.076  11.663
 5131SOL    HW217226   4.540   9.952  11.625
 5132SOL     OW17227   7.640  11.787   9.161
 5132SOL    HW117228   7.553  11.779   9.200
 5132SOL    HW217229   7.626  11.771   9.068
 5133SOL     OW17230   7.999   4.763  12.239
 5133SOL    HW117231   8.004   4.674  12.274
 5133SOL    HW217232   7.938   4.808  12.298
 5134SOL     OW17233   0.201   4.976   2.100
 5134SOL    HW117234   0.273   4.916   2.118
 5134SOL    HW217235   0.237   5.063   2.115
 5135SOL     OW17236  12.780  14.152  13.507
 5135SOL    HW117237  12.719  14.178  13.438
 5135SOL    HW217238  12.827  14.077  13.470
 5136SOL     OW17239  13.110  13.883   8.868
 5136SOL    HW117240  13.141  13.832   8.943
 5136SOL    HW217241  13.147  13.970   8.883
 5137SOL     OW17242  14.789  13.400  10.554
 5137SOL    HW117243  14.705  13.375  10.516
 5137SOL    HW217244  14.768  13.427  10.643
 5138SOL     OW17245   2.030   1.598   8.820
 5138SOL    HW117246   1.983   1.649   8.754
 5138SOL    HW217247   1.978   1.610   8.900
 5139SOL     OW17248   7.658   1.957   2.192
 5139SOL    HW117249   7.715   1.928   2.263
 5139SOL    HW217250   7.687   2.046   2.174
 5140SOL     OW17251   7.874   4.111   7.292
 5140SOL    HW117252   7.844   4.022   7.310
 5140SOL    HW217253   7.877   4.154   7.378
 5141SOL     OW17254   9.043   4.831   6.562
 5141SOL    HW117255   8.968   4.890   6.557
 5141SOL    HW217256   9.004   4.744   6.563
 5142SOL     OW17257  14.591   6.114   4.689
 5142SOL    HW117258  14.668   6.166   4.666
 5142SOL    HW217259  14.609   6.084   4.779
 5143SOL     OW17260   6.600   4.240  13.048
 5143SOL    HW117261   6.617   4.291  13.127
 5143SOL    HW217262   6.686   4.227  13.008
 5144SOL     OW17263   8.645  13.887  14.516
 5144SOL    HW117264   8.736  13.911  14.500
 5144SOL    HW217265   8.628  13.918  14.605
 5145SOL     OW17266   1.690   7.613   8.234
 5145SOL    HW117267   1.626   7.611   8.163
 5145SOL    HW217268   1.775   7.609   8.190
 5146SOL     OW17269   7.377   9.947   9.884
 5146SOL    HW117270   7.385   9.854   9.862
 5146SOL    HW217271   7.371   9.991   9.799
 5147SOL     OW17272  14.258   8.686   5.266
 5147SOL    HW117273  14.206   8.651   5.193
 5147SOL    HW217274  14.196   8.697   5.337
 5148SOL     OW17275  14.522  13.209   0.122
 5148SOL    HW117276  14.520  13.302   0.148
 5148SOL    HW217277  14.441  13.197   0.072
 5149SOL     OW17278  10.178   3.824   5.173
 5149SOL    HW117279  10.152   3.911   5.203
 5149SOL    HW217280  10.127   3.810   5.093
 5150SOL     OW17281   0.288   4.598   5.883
 5150SOL    HW117282   0.302   4.514   5.927
 5150SOL    HW217283   0.331   4.588   5.799
 5151SOL     OW17284   7.503  14.426   8.415
 5151SOL    HW117285   7.485  14.462   8.329
 5151SOL    HW217286   7.535  14.337   8.397
 5152SOL     OW17287   0.426  13.925   0.690
 5152SOL    HW117288   0.445  13.831   0.688
 5152SOL    HW217289   0.375  13.937   0.770
 5153SOL     OW17290   8.103   6.701  13.900
 5153SOL    HW117291   8.023   6.689  13.849
 5153SOL    HW217292   8.156   6.624  13.880
 5154SOL     OW17293   5.910   8.125  13.385
 5154SOL    HW117294   5.994   8.082  13.404
 5154SOL    HW217295   5.914   8.144  13.291
 5155SOL     OW17296   2.969  14.262   3.920
 5155SOL    HW117297   2.962  14.308   3.836
 5155SOL    HW217298   3.054  14.287   3.954
 5156SOL     OW17299   6.035   3.016   7.941
 5156SOL    HW117300   5.955   2.974   7.973
 5156SOL    HW217301   6.092   2.944   7.916
 5157SOL     OW17302   7.987   9.399  10.692
 5157SOL    HW117303   8.022   9.335  10.754
 5157SOL    HW217304   7.894   9.376  10.684
 5158SOL     OW17305   7.129   5.305   2.814
 5158SOL    HW117306   7.221   5.318   2.789
 5158SOL    HW217307   7.133   5.250   2.892
 5159SOL     OW17308  11.822   3.464  11.322
 5159SOL    HW117309  11.748   3.406  11.302
 5159SOL    HW217310  11.833   3.458  11.417
 5160SOL     OW17311   6.140  10.025  11.276
 5160SOL    HW117312   6.183   9.993  11.356
 5160SOL    HW217313   6.054   9.982  11.277
 5161SOL     OW17314  14.494   0.388   8.977
 5161SOL    HW117315  14.508   0.417   8.887
 5161SOL    HW217316  14.461   0.299   8.969
 5162SOL     OW17317  11.967   2.344  10.450
 5162SOL    HW117318  11.927   2.359  10.364
 5162SOL    HW217319  11.942   2.254  10.473
 5163SOL     OW17320  14.767   2.343   9.729
 5163SOL    HW117321  14.754   2.307   9.817
 5163SOL    HW217322  14.707   2.417   9.724
 5164SOL     OW17323   9.866  10.034   5.228
 5164SOL    HW117324   9.891  10.074   5.312
 5164SOL    HW217325   9.807   9.963   5.253
 5165SOL     OW17326  10.071   7.407  13.700
 5165SOL    HW117327  10.100   7.494  13.671
 5165SOL    HW217328  10.009   7.379  13.632
 5166SOL     OW17329  11.540   2.412   7.194
 5166SOL    HW117330  11.482   2.469   7.144
 5166SOL    HW217331  11.481   2.357   7.247
 5167SOL     OW17332  10.394   3.042   1.920
 5167SOL    HW117333  10.481   3.001   1.925
 5167SOL    HW217334  10.390   3.077   1.831
 5168SOL     OW17335  12.717   2.124   8.432
 5168SOL    HW117336  12.640   2.162   8.390
 5168SOL    HW217337  12.748   2.058   8.371
 5169SOL     OW17338  13.742   7.302  11.499
 5169SOL    HW117339  13.756   7.261  11.414
 5169SOL    HW217340  13.673   7.366  11.484
 5170SOL     OW17341   6.067   2.724  10.672
 5170SOL    HW117342   6.140   2.778  10.641
 5170SOL    HW217343   6.067   2.735  10.767
 5171SOL     OW17344  12.535   0.170   7.405
 5171SOL    HW117345  12.477   0.109   7.360
 5171SOL    HW217346  12.552   0.239   7.341
 5172SOL     OW17347   6.416  11.377  13.000
 5172SOL    HW117348   6.354  11.449  12.993
 5172SOL    HW217349   6.432  11.351  12.909
 5173SOL     OW17350   9.585  14.009  10.837
 5173SOL    HW117351   9.672  13.985  10.871
 5173SOL    HW217352   9.549  14.068  10.903
 5174SOL     OW17353   8.476   1.648   7.897
 5174SOL    HW117354   8.458   1.740   7.874
 5174SOL    HW217355   8.541   1.620   7.832
 5175SOL     OW17356   8.677   3.906   6.013
 5175SOL    HW117357   8.681   3.933   5.921
 5175SOL    HW217358   8.611   3.964   6.052
 5176SOL     OW17359  12.038   3.203   3.928
 5176SOL    HW117360  12.030   3.234   3.838
 5176SOL    HW217361  12.077   3.276   3.976
 5177SOL     OW17362  12.063  13.049   1.854
 5177SOL    HW117363  12.004  12.976   1.836
 5177SOL    HW217364  12.013  13.127   1.830
 5178SOL     OW17365  13.910   6.907  10.331
 5178SOL    HW117366  13.912   6.821  10.374
 5178SOL    HW217367  13.884   6.968  10.399
 5179SOL     OW17368   2.068   0.407   7.846
 5179SOL    HW117369   2.104   0.459   7.775
 5179SOL    HW217370   2.136   0.407   7.914
 5180SOL     OW17371  12.866   0.136   3.110
 5180SOL    HW117372  12.889   0.206   3.172
 5180SOL    HW217373  12.834   0.182   3.033
 5181SOL     OW17374   4.240   6.396   7.321
 5181SOL    HW117375   4.222   6.431   7.233
 5181SOL    HW217376   4.279   6.311   7.306
 5182SOL     OW17377  11.417   0.343   8.033
 5182SOL    HW117378  11.398   0.418   8.090
 5182SOL    HW217379  11.331   0.307   8.012
 5183SOL     OW17380  11.774  11.187   0.393
 5183SOL    HW117381  11.782  11.229   0.307
 5183SOL    HW217382  11.720  11.109   0.376
 5184SOL     OW17383   9.538   9.935  11.828
 5184SOL    HW117384   9.613   9.883  11.856
 5184SOL    HW217385   9.576  10.019  11.802
 5185SOL     OW17386   6.988   0.611  12.525
 5185SOL    HW117387   6.975   0.580  12.615
 5185SOL    HW217388   6.949   0.543  12.471
 5186SOL     OW17389   5.753   2.396  10.123
 5186SOL    HW117390   5.761   2.470  10.182
 5186SOL    HW217391   5.786   2.321  10.173
 5187SOL     OW17392   3.255   6.878  12.614
 5187SOL    HW117393   3.283   6.848  12.700
 5187SOL    HW217394   3.282   6.969  12.609
 5188SOL     OW17395   9.459  13.529  13.109
 5188SOL    HW117396   9.478  13.446  13.153
 5188SOL    HW217397   9.467  13.595  13.177
 5189SOL     OW17398   3.344  13.014   6.009
 5189SOL    HW117399   3.405  12.958   6.057
 5189SOL    HW217400   3.398  13.059   5.944
 5190SOL     OW17401   4.926   2.318  12.496
 5190SOL    HW117402   4.949   2.394  12.550
 5190SOL    HW217403   4.966   2.244  12.540
 5191SOL     OW17404   0.628   0.588   6.860
 5191SOL    HW117405   0.649   0.583   6.767
 5191SOL    HW217406   0.538   0.558   6.866
 5192SOL     OW17407   8.262   6.956   2.314
 5192SOL    HW117408   8.229   6.939   2.226
 5192SOL    HW217409   8.349   6.916   2.315
 5193SOL     OW17410   0.968  12.907   8.195
 5193SOL    HW117411   1.049  12.876   8.234
 5193SOL    HW217412   0.940  12.835   8.138
 5194SOL     OW17413   7.008   6.717   6.758
 5194SOL    HW117414   6.928   6.754   6.796
 5194SOL    HW217415   6.977   6.659   6.688
 5195SOL     OW17416   4.101   8.903  10.677
 5195SOL    HW117417   4.034   8.837  10.658
 5195SOL    HW217418   4.079   8.935  10.764
 5196SOL     OW17419  10.854  11.952  10.716
 5196SOL    HW117420  10.880  11.991  10.633
 5196SOL    HW217421  10.855  11.858  10.700
 5197SOL     OW17422   2.161   0.327  14.806
 5197SOL    HW117423   2.213   0.399  14.842
 5197SOL    HW217424   2.209   0.300  14.728
 5198SOL     OW17425   4.622  13.441   6.169
 5198SOL    HW117426   4.656  13.522   6.207
 5198SOL    HW217427   4.684  13.420   6.099
 5199SOL     OW17428  12.946   9.595   9.265
 5199SOL    HW117429  12.881   9.574   9.331
 5199SOL    HW217430  12.910   9.671   9.218
 5200SOL     OW17431   2.675   9.107   7.234
 5200SOL    HW117432   2.653   9.014   7.240
 5200SOL    HW217433   2.697   9.121   7.142
 5201SOL     OW17434  13.117   1.945   1.616
 5201SOL    HW117435  13.103   1.850   1.615
 5201SOL    HW217436  13.056   1.977   1.683
 5202SOL     OW17437   0.110  10.957   9.703
 5202SOL    HW117438   0.124  10.866   9.730
 5202SOL    HW217439   0.023  10.957   9.664
 5203SOL     OW17440  11.550  12.565   9.469
 5203SOL    HW117441  11.475  12.625   9.470
 5203SOL    HW217442  11.581  12.567   9.378
 5204SOL     OW17443  11.705   4.426   1.821
 5204SOL    HW117444  11.700   4.413   1.726
 5204SOL    HW217445  11.626   4.474   1.842
 5205SOL     OW17446   4.831   3.457  14.194
 5205SOL    HW117447   4.814   3.456  14.099
 5205SOL    HW217448   4.863   3.369  14.213
 5206SOL     OW17449  13.221   1.220   2.926
 5206SOL    HW117450  13.230   1.239   2.833
 5206SOL    HW217451  13.144   1.270   2.953
 5207SOL     OW17452   9.524   3.511   4.567
 5207SOL    HW117453   9.523   3.600   4.532
 5207SOL    HW217454   9.434   3.481   4.560
 5208SOL     OW17455   6.200  11.229  13.878
 5208SOL    HW117456   6.144  11.250  13.804
 5208SOL    HW217457   6.222  11.137  13.866
 5209SOL     OW17458   4.830  11.093  11.305
 5209SOL    HW117459   4.826  11.066  11.397
 5209SOL    HW217460   4.788  11.179  11.303
 5210SOL     OW17461   5.661   1.001   6.709
 5210SOL    HW117462   5.602   0.933   6.744
 5210SOL    HW217463   5.610   1.044   6.641
 5211SOL     OW17464  13.091   4.170   1.020
 5211SOL    HW117465  13.047   4.089   1.043
 5211SOL    HW217466  13.132   4.199   1.102
 5212SOL     OW17467  13.299  14.333  12.140
 5212SOL    HW117468  13.333  14.296  12.058
 5212SOL    HW217469  13.374  14.332  12.199
 5213SOL     OW17470   8.828   1.762   2.106
 5213SOL    HW117471   8.897   1.744   2.170
 5213SOL    HW217472   8.812   1.856   2.113
 5214SOL     OW17473   9.218   6.929   0.229
 5214SOL    HW117474   9.274   6.965   0.160
 5214SOL    HW217475   9.175   7.006   0.267
 5215SOL     OW17476  10.146   2.357  11.192
 5215SOL    HW117477  10.110   2.399  11.271
 5215SOL    HW217478  10.240   2.360  11.204
 5216SOL     OW17479   1.732   9.204   3.639
 5216SOL    HW117480   1.815   9.238   3.605
 5216SOL    HW217481   1.666   9.266   3.610
 5217SOL     OW17482  14.408  12.286   0.481
 5217SOL    HW117483  14.378  12.305   0.570
 5217SOL    HW217484  14.504  12.288   0.487
 5218SOL     OW17485  11.653   0.759   7.875
 5218SOL    HW117486  11.579   0.799   7.830
 5218SOL    HW217487  11.654   0.668   7.844
 5219SOL     OW17488   8.056   4.514   8.695
 5219SOL    HW117489   8.121   4.579   8.721
 5219SOL    HW217490   8.070   4.503   8.600
 5220SOL     OW17491   5.380   8.368   0.923
 5220SOL    HW117492   5.455   8.350   0.867
 5220SOL    HW217493   5.415   8.422   0.993
 5221SOL     OW17494   1.087   7.071   9.051
 5221SOL    HW117495   1.182   7.080   9.041
 5221SOL    HW217496   1.050   7.142   9.000
 5222SOL     OW17497   1.527   1.754   7.532
 5222SOL    HW117498   1.618   1.779   7.548
 5222SOL    HW217499   1.481   1.838   7.525
 5223SOL     OW17500   6.976   7.164   3.265
 5223SOL    HW117501   6.935   7.091   3.218
 5223SOL    HW217502   6.943   7.158   3.354
 5224SOL     OW17503   4.396  13.114   8.887
 5224SOL    HW117504   4.450  13.187   8.858
 5224SOL    HW217505   4.429  13.092   8.974
 5225SOL     OW17506  12.199   0.465  12.353
 5225SOL    HW117507  12.166   0.457  12.443
 5225SOL    HW217508  12.140   0.410  12.301
 5226SOL     OW17509   9.138  14.826   5.771
 5226SOL    HW117510   9.155  14.870   5.687
 5226SOL    HW217511   9.057  14.778   5.756
 5227SOL     OW17512  10.567  14.031   6.096
 5227SOL    HW117513  10.501  14.101   6.097
 5227SOL    HW217514  10.517  13.952   6.116
 5228SOL     OW17515  14.060  14.182   8.423
 5228SOL    HW117516  14.037  14.090   8.427
 5228SOL    HW217517  14.014  14.222   8.497
 5229SOL     OW17518   6.491  11.401   1.892
 5229SOL    HW117519   6.410  11.445   1.914
 5229SOL    HW217520   6.478  11.311   1.921
 5230SOL     OW17521  11.150  11.823   7.320
 5230SOL    HW117522  11.169  11.856   7.408
 5230SOL    HW217523  11.100  11.743   7.335
 5231SOL     OW17524   4.003   9.314   4.394
 5231SOL    HW117525   3.963   9.253   4.332
 5231SOL    HW217526   4.009   9.397   4.346
 5232SOL     OW17527  13.857  13.851   4.802
 5232SOL    HW117528  13.878  13.943   4.785
 5232SOL    HW217529  13.872  13.840   4.896
 5233SOL     OW17530   2.864   3.738   1.970
 5233SOL    HW117531   2.807   3.796   2.019
 5233SOL    HW217532   2.816   3.718   1.889
 5234SOL     OW17533  13.358  10.242   7.190
 5234SOL    HW117534  13.279  10.202   7.151
 5234SOL    HW217535  13.339  10.335   7.192
 5235SOL     OW17536   3.623   7.582   5.334
 5235SOL    HW117537   3.709   7.544   5.354
 5235SOL    HW217538   3.589   7.608   5.420
 5236SOL     OW17539  14.605  13.908   9.683
 5236SOL    HW117540  14.596  13.930   9.591
 5236SOL    HW217541  14.681  13.958   9.713
 5237SOL     OW17542   6.818   3.788  11.506
 5237SOL    HW117543   6.743   3.795  11.446
 5237SOL    HW217544   6.791   3.836  11.584
 5238SOL     OW17545   0.496  11.920  12.042
 5238SOL    HW117546   0.451  11.949  11.962
 5238SOL    HW217547   0.536  11.999  12.077
 5239SOL     OW17548  10.988   5.007   1.312
 5239SOL    HW117549  11.051   5.073   1.343
 5239SOL    HW217550  10.904   5.054   1.309
 5240SOL     OW17551   4.471  12.823  12.806
 5240SOL    HW117552   4.417  12.892  12.843
 5240SOL    HW217553   4.519  12.787  12.881
 5241SOL     OW17554  13.864  11.993   0.692
 5241SOL    HW117555  13.946  12.037   0.669
 5241SOL    HW217556  13.823  11.973   0.608
 5242SOL     OW17557   8.098   2.962   9.676
 5242SOL    HW117558   8.184   2.959   9.636
 5242SOL    HW217559   8.049   2.891   9.634
 5243SOL     OW17560   0.982  14.238   2.741
 5243SOL    HW117561   0.937  14.287   2.809
 5243SOL    HW217562   0.993  14.150   2.778
 5244SOL     OW17563   6.914  12.826  12.591
 5244SOL    HW117564   6.915  12.864  12.503
 5244SOL    HW217565   6.984  12.760  12.589
 5245SOL     OW17566   7.466  14.654  12.384
 5245SOL    HW117567   7.494  14.723  12.443
 5245SOL    HW217568   7.464  14.575  12.439
 5246SOL     OW17569   6.542  13.119  10.235
 5246SOL    HW117570   6.584  13.054  10.178
 5246SOL    HW217571   6.461  13.076  10.264
 5247SOL     OW17572  13.914   4.511   2.990
 5247SOL    HW117573  13.904   4.430   3.041
 5247SOL    HW217574  13.943   4.481   2.904
 5248SOL     OW17575   7.979   2.827   8.509
 5248SOL    HW117576   7.927   2.777   8.572
 5248SOL    HW217577   7.974   2.775   8.428
 5249SOL     OW17578   0.567   8.703  11.387
 5249SOL    HW117579   0.653   8.719  11.350
 5249SOL    HW217580   0.574   8.733  11.478
 5250SOL     OW17581   4.188   8.619   1.377
 5250SOL    HW117582   4.226   8.539   1.414
 5250SOL    HW217583   4.096   8.615   1.401
 5251SOL     OW17584  12.959   8.289   4.734
 5251SOL    HW117585  13.017   8.259   4.804
 5251SOL    HW217586  12.885   8.329   4.779
 5252SOL     OW17587   6.268  12.786  13.931
 5252SOL    HW117588   6.269  12.797  14.026
 5252SOL    HW217589   6.334  12.848  13.899
 5253SOL     OW17590  12.297  10.088   7.841
 5253SOL    HW117591  12.311  10.009   7.790
 5253SOL    HW217592  12.313  10.160   7.780
 5254SOL     OW17593  14.144   3.902   5.016
 5254SOL    HW117594  14.170   3.994   5.007
 5254SOL    HW217595  14.172   3.861   4.934
 5255SOL     OW17596   0.396   4.019   0.215
 5255SOL    HW117597   0.329   4.047   0.278
 5255SOL    HW217598   0.476   4.063   0.243
 5256SOL     OW17599  13.069   6.709   7.879
 5256SOL    HW117600  13.015   6.787   7.868
 5256SOL    HW217601  13.143   6.723   7.820
 5257SOL     OW17602   6.702   5.452   2.556
 5257SOL    HW117603   6.786   5.408   2.566
 5257SOL    HW217604   6.725   5.543   2.540
 5258SOL     OW17605   2.834  14.202   8.712
 5258SOL    HW117606   2.755  14.154   8.688
 5258SOL    HW217607   2.815  14.293   8.691
 5259SOL     OW17608  10.471   7.559  10.054
 5259SOL    HW117609  10.466   7.615   9.976
 5259SOL    HW217610  10.554   7.582  10.095
 5260SOL     OW17611  10.566  12.038   8.295
 5260SOL    HW117612  10.530  11.973   8.236
 5260SOL    HW217613  10.554  12.001   8.383
 5261SOL     OW17614   2.598  13.034   1.903
 5261SOL    HW117615   2.507  13.031   1.873
 5261SOL    HW217616   2.645  12.976   1.842
 5262SOL     OW17617   6.872  13.324   0.808
 5262SOL    HW117618   6.950  13.323   0.751
 5262SOL    HW217619   6.798  13.322   0.748
 5263SOL     OW17620  11.839   0.408  14.220
 5263SOL    HW117621  11.750   0.403  14.184
 5263SOL    HW217622  11.839   0.343  14.290
 5264SOL     OW17623  13.054   4.508   1.002
 5264SOL    HW117624  13.078   4.483   1.091
 5264SOL    HW217625  13.063   4.427   0.951
 5265SOL     OW17626   8.127   9.372   4.149
 5265SOL    HW117627   8.105   9.440   4.213
 5265SOL    HW217628   8.047   9.359   4.099
 5266SOL     OW17629   7.655   7.396  13.779
 5266SOL    HW117630   7.560   7.389  13.780
 5266SOL    HW217631   7.673   7.470  13.721
 5267SOL     OW17632  14.841   6.974  12.321
 5267SOL    HW117633  14.796   6.914  12.380
 5267SOL    HW217634   0.021   6.917  12.265
 5268SOL     OW17635   9.855  10.723   4.887
 5268SOL    HW117636   9.950  10.729   4.880
 5268SOL    HW217637   9.839  10.711   4.980
 5269SOL     OW17638   3.201  10.715   8.656
 5269SOL    HW117639   3.158  10.785   8.607
 5269SOL    HW217640   3.180  10.733   8.748
 5270SOL     OW17641   5.287  11.667   3.196
 5270SOL    HW117642   5.350  11.612   3.243
 5270SOL    HW217643   5.330  11.684   3.112
 5271SOL     OW17644   0.875   9.807   7.805
 5271SOL    HW117645   0.860   9.782   7.896
 5271SOL    HW217646   0.800   9.773   7.757
 5272SOL     OW17647  11.140   8.207   4.321
 5272SOL    HW117648  11.190   8.285   4.343
 5272SOL    HW217649  11.149   8.150   4.397
 5273SOL     OW17650   9.906   9.613  14.531
 5273SOL    HW117651   9.945   9.611  14.618
 5273SOL    HW217652   9.929   9.529  14.491
 5274SOL     OW17653  13.578   2.359   0.935
 5274SOL    HW117654  13.632   2.308   0.995
 5274SOL    HW217655  13.637   2.426   0.900
 5275SOL     OW17656  11.247   6.697   7.586
 5275SOL    HW117657  11.258   6.740   7.671
 5275SOL    HW217658  11.208   6.612   7.608
 5276SOL     OW17659   0.821   9.932   0.431
 5276SOL    HW117660   0.755   9.941   0.500
 5276SOL    HW217661   0.769   9.923   0.350
 5277SOL     OW17662   4.330   5.976   1.239
 5277SOL    HW117663   4.307   5.989   1.147
 5277SOL    HW217664   4.265   6.026   1.288
 5278SOL     OW17665  13.388  14.806   6.285
 5278SOL    HW117666  13.297  14.780   6.297
 5278SOL    HW217667  13.418  14.753   6.211
 5279SOL     OW17668   3.287   0.453   2.994
 5279SOL    HW117669   3.334   0.536   2.986
 5279SOL    HW217670   3.328   0.396   2.929
 5280SOL     OW17671   0.332  12.817   7.273
 5280SOL    HW117672   0.293  12.761   7.340
 5280SOL    HW217673   0.412  12.771   7.246
 5281SOL     OW17674   6.401   8.989   3.159
 5281SOL    HW117675   6.460   8.920   3.129
 5281SOL    HW217676   6.398   9.051   3.087
 5282SOL     OW17677  12.117  11.553   9.595
 5282SOL    HW117678  12.055  11.593   9.656
 5282SOL    HW217679  12.066  11.488   9.547
 5283SOL     OW17680   5.539   4.509   0.019
 5283SOL    HW117681   5.558   4.417  14.872
 5283SOL    HW217682   5.616   4.557  14.860
 5284SOL     OW17683   3.931   4.915   5.578
 5284SOL    HW117684   4.019   4.939   5.608
 5284SOL    HW217685   3.879   4.994   5.590
 5285SOL     OW17686  13.335   4.588  10.163
 5285SOL    HW117687  13.251   4.633  10.163
 5285SOL    HW217688  13.314   4.498  10.187
 5286SOL     OW17689  10.400   3.346  11.429
 5286SOL    HW117690  10.472   3.409  11.427
 5286SOL    HW217691  10.325   3.397  11.461
 5287SOL     OW17692  12.298   8.261  14.782
 5287SOL    HW117693  12.288   8.204  14.858
 5287SOL    HW217694  12.378   8.310  14.799
 5288SOL     OW17695   0.886   1.878   8.783
 5288SOL    HW117696   0.945   1.804   8.770
 5288SOL    HW217697   0.823   1.872   8.711
 5289SOL     OW17698   2.067   1.121   3.109
 5289SOL    HW117699   2.001   1.131   3.177
 5289SOL    HW217700   2.098   1.031   3.119
 5290SOL     OW17701  12.901   4.160   7.034
 5290SOL    HW117702  12.825   4.143   7.090
 5290SOL    HW217703  12.976   4.140   7.090
 5291SOL     OW17704  13.652   7.634  11.710
 5291SOL    HW117705  13.655   7.727  11.731
 5291SOL    HW217706  13.625   7.631  11.618
 5292SOL     OW17707  12.715  13.326   3.607
 5292SOL    HW117708  12.626  13.359   3.611
 5292SOL    HW217709  12.706  13.230   3.612
 5293SOL     OW17710  11.271   1.588   9.186
 5293SOL    HW117711  11.349   1.634   9.156
 5293SOL    HW217712  11.223   1.567   9.105
 5294SOL     OW17713   0.580   3.814  13.241
 5294SOL    HW117714   0.538   3.835  13.325
 5294SOL    HW217715   0.508   3.789  13.183
 5295SOL     OW17716   8.246   9.477  14.770
 5295SOL    HW117717   8.202   9.422  14.706
 5295SOL    HW217718   8.220   9.441  14.855
 5296SOL     OW17719  13.662  11.716   1.919
 5296SOL    HW117720  13.657  11.774   1.995
 5296SOL    HW217721  13.687  11.774   1.847
 5297SOL     OW17722  12.913  11.448  13.469
 5297SOL    HW117723  12.907  11.379  13.536
 5297SOL    HW217724  12.967  11.409  13.400
 5298SOL     OW17725   1.348  10.017   0.785
 5298SOL    HW117726   1.292  10.088   0.751
 5298SOL    HW217727   1.291   9.970   0.847
 5299SOL     OW17728   9.762   2.004  12.253
 5299SOL    HW117729   9.790   2.015  12.162
 5299SOL    HW217730   9.754   1.909  12.263
 5300SOL     OW17731   8.259   3.473   5.559
 5300SOL    HW117732   8.320   3.409   5.522
 5300SOL    HW217733   8.301   3.557   5.543
 5301SOL     OW17734   8.149   5.912  14.710
 5301SOL    HW117735   8.094   5.839  14.738
 5301SOL    HW217736   8.208   5.927  14.784
 5302SOL     OW17737  10.929   2.102  13.808
 5302SOL    HW117738  10.911   2.121  13.900
 5302SOL    HW217739  11.000   2.163  13.785
 5303SOL     OW17740   2.128   9.249   9.046
 5303SOL    HW117741   2.198   9.277   8.987
 5303SOL    HW217742   2.170   9.188   9.106
 5304SOL     OW17743  14.372   7.830  12.372
 5304SOL    HW117744  14.293   7.882  12.357
 5304SOL    HW217745  14.430   7.889  12.421
 5305SOL     OW17746   3.212  13.822   5.862
 5305SOL    HW117747   3.146  13.803   5.796
 5305SOL    HW217748   3.181  13.777   5.941
 5306SOL     OW17749   7.114  12.037   3.770
 5306SOL    HW117750   7.197  12.018   3.813
 5306SOL    HW217751   7.123  12.126   3.737
 5307SOL     OW17752   5.445   3.285   6.153
 5307SOL    HW117753   5.350   3.279   6.166
 5307SOL    HW217754   5.480   3.210   6.202
 5308SOL     OW17755   9.131  14.029  10.036
 5308SOL    HW117756   9.108  14.109  10.083
 5308SOL    HW217757   9.150  13.966  10.105
 5309SOL     OW17758   0.303   5.371   2.769
 5309SOL    HW117759   0.250   5.410   2.838
 5309SOL    HW217760   0.378   5.430   2.761
 5310SOL     OW17761  10.736   2.119   5.905
 5310SOL    HW117762  10.829   2.132   5.885
 5310SOL    HW217763  10.710   2.045   5.850
 5311SOL     OW17764   7.250   2.012   1.488
 5311SOL    HW117765   7.336   2.036   1.454
 5311SOL    HW217766   7.263   2.004   1.583
 5312SOL     OW17767   1.276   8.845   4.242
 5312SOL    HW117768   1.187   8.811   4.256
 5312SOL    HW217769   1.280   8.924   4.296
 5313SOL     OW17770   1.992   9.824   8.592
 5313SOL    HW117771   2.039   9.776   8.524
 5313SOL    HW217772   1.905   9.784   8.594
 5314SOL     OW17773  10.353   5.960   3.131
 5314SOL    HW117774  10.371   5.936   3.222
 5314SOL    HW217775  10.435   5.945   3.085
 5315SOL     OW17776  13.314   4.448   7.112
 5315SOL    HW117777  13.307   4.519   7.048
 5315SOL    HW217778  13.294   4.490   7.196
 5316SOL     OW17779   4.714   2.027   0.974
 5316SOL    HW117780   4.651   2.099   0.971
 5316SOL    HW217781   4.661   1.948   0.975
 5317SOL     OW17782   8.926  11.430   3.856
 5317SOL    HW117783   9.007  11.445   3.807
 5317SOL    HW217784   8.876  11.511   3.847
 5318SOL     OW17785   8.175   5.091  10.705
 5318SOL    HW117786   8.204   5.181  10.717
 5318SOL    HW217787   8.170   5.055  10.793
 5319SOL     OW17788   7.047  14.559   5.486
 5319SOL    HW117789   7.015  14.649   5.480
 5319SOL    HW217790   7.142  14.568   5.489
 5320SOL     OW17791   0.479   8.378  14.076
 5320SOL    HW117792   0.416   8.423  14.132
 5320SOL    HW217793   0.432   8.301  14.043
 5321SOL     OW17794   7.724  10.837   4.767
 5321SOL    HW117795   7.693  10.747   4.757
 5321SOL    HW217796   7.778  10.852   4.689
 5322SOL     OW17797   7.281   7.228   4.292
 5322SOL    HW117798   7.210   7.260   4.349
 5322SOL    HW217799   7.297   7.300   4.231
 5323SOL     OW17800   4.201   0.022   8.732
 5323SOL    HW117801   4.241  14.836   8.669
 5323SOL    HW217802   4.149  14.837   8.789
 5324SOL     OW17803   6.594   2.234  11.260
 5324SOL    HW117804   6.681   2.270  11.242
 5324SOL    HW217805   6.534   2.290  11.212
 5325SOL     OW17806  11.898   7.269   7.529
 5325SOL    HW117807  11.827   7.205   7.529
 5325SOL    HW217808  11.960   7.235   7.594
 5326SOL     OW17809   1.327   8.495   9.830
 5326SOL    HW117810   1.258   8.560   9.821
 5326SOL    HW217811   1.281   8.413   9.845
 5327SOL     OW17812   5.104   8.186  14.415
 5327SOL    HW117813   5.113   8.215  14.505
 5327SOL    HW217814   5.010   8.186  14.398
 5328SOL     OW17815   4.038  13.518   9.720
 5328SOL    HW117816   4.040  13.583   9.790
 5328SOL    HW217817   3.952  13.476   9.729
 5329SOL     OW17818   3.666   8.836   1.796
 5329SOL    HW117819   3.733   8.870   1.854
 5329SOL    HW217820   3.611   8.911   1.774
 5330SOL     OW17821  12.531  13.143   7.418
 5330SOL    HW117822  12.464  13.076   7.404
 5330SOL    HW217823  12.535  13.153   7.513
 5331SOL     OW17824   2.674  14.676   7.212
 5331SOL    HW117825   2.691  14.609   7.145
 5331SOL    HW217826   2.580  14.692   7.207
 5332SOL     OW17827  12.888   5.825   6.123
 5332SOL    HW117828  12.867   5.804   6.214
 5332SOL    HW217829  12.832   5.899   6.101
 5333SOL     OW17830   4.739   6.323  13.777
 5333SOL    HW117831   4.781   6.403  13.809
 5333SOL    HW217832   4.718   6.342  13.686
 5334SOL     OW17833   8.389  12.597  11.853
 5334SOL    HW117834   8.387  12.553  11.938
 5334SOL    HW217835   8.378  12.690  11.874
 5335SOL     OW17836   5.138   8.361   9.957
 5335SOL    HW117837   5.156   8.288   9.898
 5335SOL    HW217838   5.213   8.364  10.016
 5336SOL     OW17839   1.558   8.297   5.519
 5336SOL    HW117840   1.512   8.220   5.553
 5336SOL    HW217841   1.511   8.371   5.557
 5337SOL     OW17842  13.241  13.856  10.957
 5337SOL    HW117843  13.167  13.797  10.951
 5337SOL    HW217844  13.233  13.913  10.880
 5338SOL     OW17845  10.845   8.292   2.553
 5338SOL    HW117846  10.783   8.363   2.566
 5338SOL    HW217847  10.794   8.221   2.514
 5339SOL     OW17848   9.423   4.089   3.155
 5339SOL    HW117849   9.436   4.002   3.193
 5339SOL    HW217850   9.380   4.139   3.224
 5340SOL     OW17851   4.413   0.002  10.462
 5340SOL    HW117852   4.362   0.047  10.530
 5340SOL    HW217853   4.504   0.010  10.491
 5341SOL     OW17854   2.209   3.245   7.564
 5341SOL    HW117855   2.195   3.320   7.505
 5341SOL    HW217856   2.257   3.282   7.638
 5342SOL     OW17857   4.887   7.737  14.685
 5342SOL    HW117858   4.892   7.820  14.638
 5342SOL    HW217859   4.919   7.758  14.773
 5343SOL     OW17860  11.820   8.093  11.527
 5343SOL    HW117861  11.888   8.049  11.477
 5343SOL    HW217862  11.737   8.061  11.491
 5344SOL     OW17863  10.048   2.562   5.999
 5344SOL    HW117864  10.055   2.622   5.926
 5344SOL    HW217865  10.091   2.482   5.969
 5345SOL     OW17866   2.262   1.222   0.313
 5345SOL    HW117867   2.322   1.177   0.253
 5345SOL    HW217868   2.232   1.153   0.373
 5346SOL     OW17869  14.694   6.560  10.029
 5346SOL    HW117870  14.695   6.500   9.955
 5346SOL    HW217871  14.767   6.533  10.083
 5347SOL     OW17872   8.077   9.112   0.934
 5347SOL    HW117873   8.163   9.074   0.915
 5347SOL    HW217874   8.025   9.094   0.856
 5348SOL     OW17875  12.812  12.812   2.039
 5348SOL    HW117876  12.824  12.736   2.097
 5348SOL    HW217877  12.878  12.801   1.971
 5349SOL     OW17878  10.784   3.288   5.900
 5349SOL    HW117879  10.717   3.318   5.839
 5349SOL    HW217880  10.864   3.281   5.848
 5350SOL     OW17881  14.093   3.469   3.789
 5350SOL    HW117882  14.074   3.557   3.756
 5350SOL    HW217883  14.139   3.426   3.717
 5351SOL     OW17884  12.560   9.724   3.111
 5351SOL    HW117885  12.646   9.742   3.073
 5351SOL    HW217886  12.572   9.740   3.204
 5352SOL     OW17887   9.584  11.127   6.234
 5352SOL    HW117888   9.642  11.056   6.206
 5352SOL    HW217889   9.642  11.192   6.271
 5353SOL     OW17890   5.907  11.599  10.186
 5353SOL    HW117891   5.817  11.611  10.214
 5353SOL    HW217892   5.919  11.660  10.113
 5354SOL     OW17893   5.516  13.372   9.153
 5354SOL    HW117894   5.595  13.378   9.208
 5354SOL    HW217895   5.465  13.450   9.176
 5355SOL     OW17896   9.410   3.979  12.396
 5355SOL    HW117897   9.360   4.035  12.455
 5355SOL    HW217898   9.457   4.039  12.339
 5356SOL     OW17899  12.510   1.158   2.444
 5356SOL    HW117900  12.476   1.100   2.376
 5356SOL    HW217901  12.603   1.136   2.450
 5357SOL     OW17902   7.571   6.442   7.917
 5357SOL    HW117903   7.621   6.471   7.841
 5357SOL    HW217904   7.631   6.451   7.991
 5358SOL     OW17905  11.170   5.790  13.094
 5358SOL    HW117906  11.190   5.732  13.021
 5358SOL    HW217907  11.105   5.743  13.146
 5359SOL     OW17908   1.531  14.169   9.795
 5359SOL    HW117909   1.511  14.086   9.751
 5359SOL    HW217910   1.462  14.178   9.861
 5360SOL     OW17911  12.131  10.846   6.546
 5360SOL    HW117912  12.054  10.788   6.544
 5360SOL    HW217913  12.150  10.862   6.453
 5361SOL     OW17914   5.434  10.733   1.800
 5361SOL    HW117915   5.422  10.808   1.858
 5361SOL    HW217916   5.403  10.658   1.852
 5362SOL     OW17917   2.026  14.784   0.872
 5362SOL    HW117918   1.967  14.752   0.940
 5362SOL    HW217919   2.114  14.769   0.906
 5363SOL     OW17920  12.209   6.811  14.710
 5363SOL    HW117921  12.254   6.896  14.711
 5363SOL    HW217922  12.235   6.771  14.627
 5364SOL     OW17923   4.487   0.054   0.575
 5364SOL    HW117924   4.448   0.099   0.500
 5364SOL    HW217925   4.550  14.866   0.536
 5365SOL     OW17926   4.618   3.678   6.982
 5365SOL    HW117927   4.641   3.762   7.022
 5365SOL    HW217928   4.522   3.678   6.980
 5366SOL     OW17929   7.709   5.133  12.742
 5366SOL    HW117930   7.802   5.150  12.757
 5366SOL    HW217931   7.681   5.202  12.682
 5367SOL     OW17932  13.087   4.575   3.716
 5367SOL    HW117933  13.160   4.580   3.654
 5367SOL    HW217934  13.018   4.626   3.675
 5368SOL     OW17935   1.771   2.489   4.844
 5368SOL    HW117936   1.713   2.424   4.805
 5368SOL    HW217937   1.835   2.438   4.893
 5369SOL     OW17938   0.557   2.291   7.989
 5369SOL    HW117939   0.562   2.315   7.897
 5369SOL    HW217940   0.463   2.295   8.010
 5370SOL     OW17941   9.499   1.096  13.410
 5370SOL    HW117942   9.421   1.042  13.397
 5370SOL    HW217943   9.477   1.152  13.484
 5371SOL     OW17944   8.807   4.394  13.279
 5371SOL    HW117945   8.772   4.381  13.191
 5371SOL    HW217946   8.900   4.408  13.266
 5372SOL     OW17947  14.522  13.437   0.745
 5372SOL    HW117948  14.446  13.378   0.755
 5372SOL    HW217949  14.503  13.511   0.803
 5373SOL     OW17950  11.429   0.299  14.450
 5373SOL    HW117951  11.375   0.220  14.445
 5373SOL    HW217952  11.384   0.363  14.395
 5374SOL     OW17953  12.372  11.923  12.683
 5374SOL    HW117954  12.438  11.854  12.685
 5374SOL    HW217955  12.364  11.946  12.590
 5375SOL     OW17956   0.662   7.045   5.091
 5375SOL    HW117957   0.656   7.070   5.184
 5375SOL    HW217958   0.626   7.120   5.044
 5376SOL     OW17959   7.281  13.566  10.158
 5376SOL    HW117960   7.227  13.487  10.151
 5376SOL    HW217961   7.218  13.636  10.179
 5377SOL     OW17962   4.867   0.692   4.287
 5377SOL    HW117963   4.924   0.769   4.280
 5377SOL    HW217964   4.804   0.714   4.356
 5378SOL     OW17965   1.145  11.566   9.477
 5378SOL    HW117966   1.213  11.632   9.466
 5378SOL    HW217967   1.170  11.518   9.555
 5379SOL     OW17968   1.348   6.842   2.765
 5379SOL    HW117969   1.354   6.873   2.856
 5379SOL    HW217970   1.405   6.901   2.716
 5380SOL     OW17971   7.464   5.985   4.594
 5380SOL    HW117972   7.440   5.966   4.504
 5380SOL    HW217973   7.535   6.048   4.587
 5381SOL     OW17974   2.761   6.200  10.924
 5381SOL    HW117975   2.738   6.170  11.012
 5381SOL    HW217976   2.802   6.124  10.883
 5382SOL     OW17977   7.682   9.656   6.006
 5382SOL    HW117978   7.622   9.581   6.001
 5382SOL    HW217979   7.703   9.663   6.099
 5383SOL     OW17980   2.973  11.571   5.577
 5383SOL    HW117981   2.991  11.477   5.587
 5383SOL    HW217982   2.910  11.591   5.646
 5384SOL     OW17983  14.506  12.741   0.677
 5384SOL    HW117984  14.493  12.822   0.628
 5384SOL    HW217985  14.430  12.687   0.655
 5385SOL     OW17986  10.368   3.759   8.075
 5385SOL    HW117987  10.390   3.750   7.982
 5385SOL    HW217988  10.426   3.697   8.119
 5386SOL     OW17989   3.178   5.077   0.591
 5386SOL    HW117990   3.092   5.118   0.603
 5386SOL    HW217991   3.237   5.151   0.576
 5387SOL     OW17992   1.140   8.177  11.543
 5387SOL    HW117993   1.212   8.215  11.593
 5387SOL    HW217994   1.121   8.094  11.585
 5388SOL     OW17995   8.479   0.381  10.282
 5388SOL    HW117996   8.391   0.355  10.254
 5388SOL    HW217997   8.532   0.375  10.202
 5389SOL     OW17998   6.687   2.420   8.801
 5389SOL    HW117999   6.653   2.505   8.830
 5389SOL    HW218000   6.667   2.360   8.873
 5390SOL     OW18001  11.713   5.363   6.267
 5390SOL    HW118002  11.801   5.325   6.262
 5390SOL    HW218003  11.666   5.307   6.328
 5391SOL     OW18004  13.941   1.460  13.995
 5391SOL    HW118005  13.896   1.381  14.024
 5391SOL    HW218006  13.884   1.532  14.022
 5392SOL     OW18007   6.277   1.966   6.497
 5392SOL    HW118008   6.306   2.032   6.434
 5392SOL    HW218009   6.307   1.999   6.582
 5393SOL     OW18010  12.205  12.241   8.273
 5393SOL    HW118011  12.281  12.212   8.223
 5393SOL    HW218012  12.207  12.188   8.353
 5394SOL     OW18013  13.713   8.253   9.376
 5394SOL    HW118014  13.792   8.217   9.417
 5394SOL    HW218015  13.693   8.191   9.305
 5395SOL     OW18016   3.310  12.022  11.895
 5395SOL    HW118017   3.370  11.972  11.841
 5395SOL    HW218018   3.274  12.088  11.836
 5396SOL     OW18019   6.316   0.381   2.489
 5396SOL    HW118020   6.388   0.441   2.509
 5396SOL    HW218021   6.358   0.295   2.482
 5397SOL     OW18022   9.504  12.366  10.594
 5397SOL    HW118023   9.574  12.321  10.642
 5397SOL    HW218024   9.490  12.312  10.516
 5398SOL     OW18025   5.457  14.280   3.812
 5398SOL    HW118026   5.522  14.308   3.876
 5398SOL    HW218027   5.500  14.212   3.761
 5399SOL     OW18028   9.132   7.408   5.533
 5399SOL    HW118029   9.125   7.449   5.447
 5399SOL    HW218030   9.084   7.326   5.525
 5400SOL     OW18031  13.800  10.940   2.807
 5400SOL    HW118032  13.816  10.874   2.740
 5400SOL    HW218033  13.850  10.910   2.883
 5401SOL     OW18034   4.766  14.514   3.478
 5401SOL    HW118035   4.708  14.445   3.508
 5401SOL    HW218036   4.771  14.575   3.552
 5402SOL     OW18037  10.094   8.240   3.808
 5402SOL    HW118038  10.088   8.242   3.904
 5402SOL    HW218039  10.185   8.215   3.790
 5403SOL     OW18040   3.546   2.220   3.761
 5403SOL    HW118041   3.482   2.171   3.709
 5403SOL    HW218042   3.494   2.264   3.828
 5404SOL     OW18043   2.407  11.621  11.059
 5404SOL    HW118044   2.485  11.617  11.115
 5404SOL    HW218045   2.336  11.646  11.118
 5405SOL     OW18046   3.769  11.950  13.981
 5405SOL    HW118047   3.816  11.867  13.982
 5405SOL    HW218048   3.691  11.933  13.928
 5406SOL     OW18049   1.011  12.713   9.191
 5406SOL    HW118050   0.958  12.685   9.117
 5406SOL    HW218051   0.994  12.648   9.259
 5407SOL     OW18052  12.251   7.800  11.958
 5407SOL    HW118053  12.205   7.876  11.995
 5407SOL    HW218054  12.216   7.792  11.869
 5408SOL     OW18055   1.141   1.934   0.501
 5408SOL    HW118056   1.189   1.951   0.420
 5408SOL    HW218057   1.110   2.020   0.529
 5409SOL     OW18058   3.374   0.379  10.433
 5409SOL    HW118059   3.337   0.346  10.350
 5409SOL    HW218060   3.320   0.456  10.453
 5410SOL     OW18061   5.744  12.814   6.691
 5410SOL    HW118062   5.758  12.784   6.781
 5410SOL    HW218063   5.671  12.875   6.697
 5411SOL     OW18064  11.369   0.578  11.304
 5411SOL    HW118065  11.420   0.613  11.377
 5411SOL    HW218066  11.394   0.631  11.229
 5412SOL     OW18067   3.434  14.847  10.623
 5412SOL    HW118068   3.360  14.789  10.640
 5412SOL    HW218069   3.400   0.063  10.638
 5413SOL     OW18070   4.670   3.549   9.007
 5413SOL    HW118071   4.758   3.580   8.987
 5413SOL    HW218072   4.626   3.546   8.922
 5414SOL     OW18073   2.743  13.347  13.720
 5414SOL    HW118074   2.737  13.362  13.626
 5414SOL    HW218075   2.715  13.429  13.760
 5415SOL     OW18076   8.703   6.961   8.146
 5415SOL    HW118077   8.762   6.924   8.082
 5415SOL    HW218078   8.732   6.925   8.230
 5416SOL     OW18079  10.864   8.104   4.701
 5416SOL    HW118080  10.805   8.175   4.724
 5416SOL    HW218081  10.932   8.144   4.647
 5417SOL     OW18082   5.931  13.796  12.947
 5417SOL    HW118083   5.973  13.875  12.915
 5417SOL    HW218084   5.842  13.800  12.913
 5418SOL     OW18085   2.473  14.397   5.926
 5418SOL    HW118086   2.388  14.358   5.907
 5418SOL    HW218087   2.492  14.370   6.015
 5419SOL     OW18088  13.961  12.142  13.728
 5419SOL    HW118089  13.932  12.213  13.671
 5419SOL    HW218090  13.991  12.074  13.668
 5420SOL     OW18091  12.516  11.545   6.851
 5420SOL    HW118092  12.585  11.595   6.808
 5420SOL    HW218093  12.515  11.461   6.803
 5421SOL     OW18094   4.236   9.092   4.502
 5421SOL    HW118095   4.238   9.052   4.589
 5421SOL    HW218096   4.237   9.186   4.519
 5422SOL     OW18097  13.625   0.511   7.698
 5422SOL    HW118098  13.621   0.565   7.777
 5422SOL    HW218099  13.683   0.439   7.721
 5423SOL     OW18100   1.069   7.926   8.447
 5423SOL    HW118101   1.055   7.902   8.539
 5423SOL    HW218102   1.023   8.010   8.437
 5424SOL     OW18103  10.141   3.878  12.709
 5424SOL    HW118104  10.198   3.921  12.646
 5424SOL    HW218105  10.079   3.945  12.736
 5425SOL     OW18106   6.160  10.698   1.901
 5425SOL    HW118107   6.083  10.713   1.957
 5425SOL    HW218108   6.124  10.698   1.812
 5426SOL     OW18109   5.596   7.915  11.244
 5426SOL    HW118110   5.545   7.990  11.275
 5426SOL    HW218111   5.685   7.949  11.234
 5427SOL     OW18112   5.625  12.096  10.157
 5427SOL    HW118113   5.552  12.096  10.218
 5427SOL    HW218114   5.644  12.003  10.143
 5428SOL     OW18115   3.632   6.625   9.559
 5428SOL    HW118116   3.666   6.548   9.512
 5428SOL    HW218117   3.678   6.699   9.520
 5429SOL     OW18118  12.036   1.528   7.916
 5429SOL    HW118119  11.971   1.564   7.856
 5429SOL    HW218120  11.991   1.457   7.961
 5430SOL     OW18121   1.622  14.624   3.108
 5430SOL    HW118122   1.681  14.551   3.087
 5430SOL    HW218123   1.547  14.583   3.151
 5431SOL     OW18124   6.367   8.590  11.998
 5431SOL    HW118125   6.312   8.526  12.042
 5431SOL    HW218126   6.307   8.635  11.937
 5432SOL     OW18127   8.104   4.813   2.586
 5432SOL    HW118128   8.061   4.835   2.503
 5432SOL    HW218129   8.063   4.870   2.651
 5433SOL     OW18130   4.793  10.341   9.341
 5433SOL    HW118131   4.717  10.355   9.284
 5433SOL    HW218132   4.867  10.335   9.281
 5434SOL     OW18133  13.442  14.527   4.084
 5434SOL    HW118134  13.377  14.498   4.148
 5434SOL    HW218135  13.509  14.571   4.136
 5435SOL     OW18136   4.944   2.376  13.280
 5435SOL    HW118137   4.964   2.283  13.286
 5435SOL    HW218138   4.883   2.392  13.352
 5436SOL     OW18139   6.359  10.529   8.854
 5436SOL    HW118140   6.290  10.572   8.905
 5436SOL    HW218141   6.312  10.472   8.794
 5437SOL     OW18142   9.048   0.080  10.205
 5437SOL    HW118143   9.136   0.076  10.166
 5437SOL    HW218144   8.991   0.042  10.137
 5438SOL     OW18145   4.990   9.695   1.880
 5438SOL    HW118146   4.955   9.705   1.969
 5438SOL    HW218147   4.970   9.779   1.838
 5439SOL     OW18148  13.264   1.239   7.380
 5439SOL    HW118149  13.311   1.322   7.374
 5439SOL    HW218150  13.191   1.256   7.438
 5440SOL     OW18151   7.905   8.767   4.725
 5440SOL    HW118152   7.851   8.761   4.647
 5440SOL    HW218153   7.991   8.793   4.692
 5441SOL     OW18154   7.469   6.695   6.695
 5441SOL    HW118155   7.452   6.654   6.610
 5441SOL    HW218156   7.562   6.679   6.711
 5442SOL     OW18157   2.461   8.772   8.588
 5442SOL    HW118158   2.446   8.866   8.575
 5442SOL    HW218159   2.473   8.763   8.682
 5443SOL     OW18160   5.468   3.730  12.346
 5443SOL    HW118161   5.410   3.785  12.292
 5443SOL    HW218162   5.524   3.793  12.392
 5444SOL     OW18163   5.651   1.494   2.811
 5444SOL    HW118164   5.686   1.549   2.881
 5444SOL    HW218165   5.601   1.426   2.856
 5445SOL     OW18166  14.787   2.791   6.540
 5445SOL    HW118167  14.694   2.797   6.560
 5445SOL    HW218168  14.804   2.697   6.530
 5446SOL     OW18169  13.080   5.676   3.078
 5446SOL    HW118170  13.155   5.618   3.092
 5446SOL    HW218171  13.021   5.626   3.022
 5447SOL     OW18172   8.340   8.487   2.668
 5447SOL    HW118173   8.312   8.432   2.596
 5447SOL    HW218174   8.428   8.514   2.645
 5448SOL     OW18175  13.934  11.406   5.426
 5448SOL    HW118176  14.020  11.372   5.450
 5448SOL    HW218177  13.916  11.474   5.491
 5449SOL     OW18178  11.555   5.989   4.302
 5449SOL    HW118179  11.476   6.038   4.277
 5449SOL    HW218180  11.577   5.938   4.225
 5450SOL     OW18181  13.868   7.296   0.762
 5450SOL    HW118182  13.790   7.248   0.733
 5450SOL    HW218183  13.937   7.230   0.766
 5451SOL     OW18184   9.006   8.987  14.033
 5451SOL    HW118185   9.087   9.035  14.053
 5451SOL    HW218186   8.974   8.958  14.118
 5452SOL     OW18187   0.669   5.689   2.469
 5452SOL    HW118188   0.653   5.781   2.449
 5452SOL    HW218189   0.736   5.662   2.405
 5453SOL     OW18190  13.245   0.517   5.136
 5453SOL    HW118191  13.272   0.531   5.045
 5453SOL    HW218192  13.182   0.445   5.131
 5454SOL     OW18193  11.644   7.013  12.495
 5454SOL    HW118194  11.553   7.043  12.485
 5454SOL    HW218195  11.675   7.003  12.405
 5455SOL     OW18196  13.117   4.219   4.108
 5455SOL    HW118197  13.117   4.262   4.193
 5455SOL    HW218198  13.119   4.291   4.044
 5456SOL     OW18199   4.300  10.866   3.789
 5456SOL    HW118200   4.260  10.784   3.761
 5456SOL    HW218201   4.280  10.928   3.718
 5457SOL     OW18202   6.037   0.661   0.404
 5457SOL    HW118203   6.013   0.730   0.341
 5457SOL    HW218204   6.120   0.627   0.372
 5458SOL     OW18205  14.523  13.567  11.248
 5458SOL    HW118206  14.527  13.646  11.195
 5458SOL    HW218207  14.614  13.548  11.270
 5459SOL     OW18208   3.885   7.962   7.274
 5459SOL    HW118209   3.881   8.032   7.338
 5459SOL    HW218210   3.884   7.881   7.326
 5460SOL     OW18211  14.696   1.605  11.121
 5460SOL    HW118212  14.654   1.527  11.086
 5460SOL    HW218213  14.722   1.581  11.210
 5461SOL     OW18214   6.653  12.860   0.038
 5461SOL    HW118215   6.596  12.936   0.048
 5461SOL    HW218216   6.659  12.847  14.815
 5462SOL     OW18217   0.958  12.080  14.755
 5462SOL    HW118218   0.942  12.032  14.837
 5462SOL    HW218219   0.980  12.169  14.783
 5463SOL     OW18220   9.149  12.402   1.307
 5463SOL    HW118221   9.177  12.328   1.361
 5463SOL    HW218222   9.144  12.475   1.368
 5464SOL     OW18223   7.450  10.187   7.067
 5464SOL    HW118224   7.376  10.137   7.101
 5464SOL    HW218225   7.411  10.266   7.029
 5465SOL     OW18226   1.078  13.369  11.405
 5465SOL    HW118227   1.137  13.409  11.469
 5465SOL    HW218228   1.049  13.442  11.350
 5466SOL     OW18229   0.341   0.500   2.773
 5466SOL    HW118230   0.378   0.587   2.789
 5466SOL    HW218231   0.247   0.514   2.767
 5467SOL     OW18232   6.072   2.574   4.693
 5467SOL    HW118233   6.123   2.635   4.640
 5467SOL    HW218234   5.984   2.613   4.696
 5468SOL     OW18235   1.199   4.582   8.588
 5468SOL    HW118236   1.160   4.508   8.634
 5468SOL    HW218237   1.133   4.609   8.525
 5469SOL     OW18238   4.659   6.547  13.298
 5469SOL    HW118239   4.642   6.544  13.204
 5469SOL    HW218240   4.577   6.581  13.336
 5470SOL     OW18241   1.978   5.784   4.251
 5470SOL    HW118242   2.041   5.718   4.281
 5470SOL    HW218243   1.948   5.752   4.166
 5471SOL     OW18244   6.919   0.035   7.699
 5471SOL    HW118245   6.987  14.851   7.664
 5471SOL    HW218246   6.861  14.848   7.747
 5472SOL     OW18247  14.404  14.115   0.122
 5472SOL    HW118248  14.315  14.124   0.156
 5472SOL    HW218249  14.424  14.022   0.133
 5473SOL     OW18250   5.752   1.211   5.354
 5473SOL    HW118251   5.678   1.247   5.304
 5473SOL    HW218252   5.773   1.279   5.418
 5474SOL     OW18253   9.556  14.832   1.233
 5474SOL    HW118254   9.540  14.737   1.232
 5474SOL    HW218255   9.623  14.845   1.165
 5475SOL     OW18256   5.327   4.875   3.728
 5475SOL    HW118257   5.250   4.825   3.755
 5475SOL    HW218258   5.308   4.964   3.757
 5476SOL     OW18259   1.126  11.639  12.430
 5476SOL    HW118260   1.110  11.584  12.508
 5476SOL    HW218261   1.216  11.670  12.442
 5477SOL     OW18262   9.712  10.133   0.022
 5477SOL    HW118263   9.734  10.041   0.036
 5477SOL    HW218264   9.644  10.131  14.827
 5478SOL     OW18265   4.323   0.780  12.268
 5478SOL    HW118266   4.396   0.718  12.266
 5478SOL    HW218267   4.314   0.809  12.178
 5479SOL     OW18268   2.996   7.450   1.427
 5479SOL    HW118269   2.917   7.407   1.396
 5479SOL    HW218270   3.033   7.389   1.491
 5480SOL     OW18271   4.972   8.231  11.367
 5480SOL    HW118272   5.031   8.278  11.308
 5480SOL    HW218273   4.928   8.167  11.312
 5481SOL     OW18274   7.052   0.088   6.057
 5481SOL    HW118275   7.009   0.005   6.078
 5481SOL    HW218276   6.997   0.126   5.988
 5482SOL     OW18277   1.799   8.057   2.419
 5482SOL    HW118278   1.778   8.145   2.450
 5482SOL    HW218279   1.731   8.001   2.457
 5483SOL     OW18280   0.926  10.689   4.541
 5483SOL    HW118281   1.013  10.707   4.503
 5483SOL    HW218282   0.865  10.718   4.474
 5484SOL     OW18283  11.881  14.428  12.868
 5484SOL    HW118284  11.968  14.429  12.907
 5484SOL    HW218285  11.835  14.502  12.909
 5485SOL     OW18286   6.613   6.950   7.595
 5485SOL    HW118287   6.607   7.019   7.528
 5485SOL    HW218288   6.537   6.894   7.579
 5486SOL     OW18289  11.753   0.162   3.970
 5486SOL    HW118290  11.793   0.076   3.986
 5486SOL    HW218291  11.812   0.204   3.907
 5487SOL     OW18292   8.548   8.968  14.689
 5487SOL    HW118293   8.628   9.013  14.717
 5487SOL    HW218294   8.532   9.000  14.600
 5488SOL     OW18295  14.336  12.056   6.456
 5488SOL    HW118296  14.315  12.033   6.547
 5488SOL    HW218297  14.419  12.104   6.462
 5489SOL     OW18298  12.528   5.246   5.327
 5489SOL    HW118299  12.568   5.219   5.410
 5489SOL    HW218300  12.508   5.164   5.282
 5490SOL     OW18301  14.173   2.489   3.285
 5490SOL    HW118302  14.158   2.480   3.379
 5490SOL    HW218303  14.146   2.405   3.247
 5491SOL     OW18304   8.254   6.006   9.621
 5491SOL    HW118305   8.264   5.962   9.706
 5491SOL    HW218306   8.277   5.939   9.557
 5492SOL     OW18307  10.493   1.261   5.621
 5492SOL    HW118308  10.452   1.301   5.544
 5492SOL    HW218309  10.444   1.297   5.695
 5493SOL     OW18310  14.139  11.867  12.461
 5493SOL    HW118311  14.191  11.787  12.459
 5493SOL    HW218312  14.080  11.859  12.386
 5494SOL     OW18313   9.881  12.686   6.236
 5494SOL    HW118314   9.930  12.768   6.226
 5494SOL    HW218315   9.933  12.634   6.297
 5495SOL     OW18316  11.075   2.391  10.148
 5495SOL    HW118317  11.004   2.406  10.086
 5495SOL    HW218318  11.092   2.297  10.144
 5496SOL     OW18319   6.526  10.839  12.695
 5496SOL    HW118320   6.551  10.930  12.709
 5496SOL    HW218321   6.573  10.791  12.763
 5497SOL     OW18322  10.402  10.951   2.549
 5497SOL    HW118323  10.312  10.935   2.579
 5497SOL    HW218324  10.394  11.022   2.485
 5498SOL     OW18325   4.343   5.334  11.160
 5498SOL    HW118326   4.355   5.270  11.089
 5498SOL    HW218327   4.430   5.370  11.176
 5499SOL     OW18328  12.414  12.104   5.802
 5499SOL    HW118329  12.445  12.048   5.730
 5499SOL    HW218330  12.320  12.114   5.787
 5500SOL     OW18331  11.080  10.135   0.669
 5500SOL    HW118332  11.160  10.123   0.618
 5500SOL    HW218333  11.102  10.203   0.732
 5501SOL     OW18334   6.531  12.965   4.708
 5501SOL    HW118335   6.445  12.939   4.676
 5501SOL    HW218336   6.538  13.058   4.684
 5502SOL     OW18337  11.481  14.370  10.183
 5502SOL    HW118338  11.390  14.350  10.204
 5502SOL    HW218339  11.531  14.302  10.227
 5503SOL     OW18340   5.491   5.557   7.328
 5503SOL    HW118341   5.470   5.519   7.242
 5503SOL    HW218342   5.420   5.527   7.385
 5504SOL     OW18343   7.587   3.751   0.339
 5504SOL    HW118344   7.680   3.732   0.325
 5504SOL    HW218345   7.557   3.786   0.255
 5505SOL     OW18346  11.720  12.080   8.909
 5505SOL    HW118347  11.716  11.987   8.890
 5505SOL    HW218348  11.724  12.123   8.824
 5506SOL     OW18349  12.029   3.826   5.188
 5506SOL    HW118350  12.084   3.769   5.242
 5506SOL    HW218351  12.054   3.915   5.214
 5507SOL     OW18352   3.169   6.355   3.622
 5507SOL    HW118353   3.174   6.387   3.713
 5507SOL    HW218354   3.128   6.427   3.574
 5508SOL     OW18355  14.698  12.331  11.348
 5508SOL    HW118356  14.607  12.302  11.344
 5508SOL    HW218357  14.709  12.365  11.437
 5509SOL     OW18358   9.405  10.016   3.346
 5509SOL    HW118359   9.416  10.056   3.259
 5509SOL    HW218360   9.381   9.925   3.327
 5510SOL     OW18361   6.000   5.066   8.813
 5510SOL    HW118362   6.009   5.130   8.884
 5510SOL    HW218363   6.057   4.993   8.839
 5511SOL     OW18364   0.696  12.693  12.128
 5511SOL    HW118365   0.630  12.761  12.109
 5511SOL    HW218366   0.687  12.678  12.222
 5512SOL     OW18367  11.173  11.702   0.772
 5512SOL    HW118368  11.163  11.683   0.678
 5512SOL    HW218369  11.128  11.786   0.784
 5513SOL     OW18370   0.118   2.080   9.999
 5513SOL    HW118371   0.070   2.102  10.079
 5513SOL    HW218372   0.127   2.163   9.952
 5514SOL     OW18373   6.557   5.405  12.006
 5514SOL    HW118374   6.615   5.346  12.054
 5514SOL    HW218375   6.549   5.482  12.063
 5515SOL     OW18376   9.134  13.094   8.041
 5515SOL    HW118377   9.038  13.088   8.037
 5515SOL    HW218378   9.156  13.165   7.981
 5516SOL     OW18379   5.312  12.620  12.447
 5516SOL    HW118380   5.284  12.637  12.357
 5516SOL    HW218381   5.289  12.528  12.463
 5517SOL     OW18382  12.887   9.271   3.623
 5517SOL    HW118383  12.921   9.328   3.692
 5517SOL    HW218384  12.842   9.330   3.563
 5518SOL     OW18385   6.833   5.177   2.364
 5518SOL    HW118386   6.894   5.142   2.300
 5518SOL    HW218387   6.810   5.264   2.331
 5519SOL     OW18388  12.208  14.446   4.304
 5519SOL    HW118389  12.163  14.371   4.344
 5519SOL    HW218390  12.296  14.414   4.286
 5520SOL     OW18391  13.868  11.973  13.923
 5520SOL    HW118392  13.802  11.921  13.877
 5520SOL    HW218393  13.892  12.041  13.860
 5521SOL     OW18394   1.092   5.815   1.647
 5521SOL    HW118395   1.150   5.758   1.595
 5521SOL    HW218396   1.044   5.865   1.581
 5522SOL     OW18397   4.583   6.835  12.114
 5522SOL    HW118398   4.567   6.743  12.135
 5522SOL    HW218399   4.496   6.876  12.116
 5523SOL     OW18400  11.693  10.473   7.391
 5523SOL    HW118401  11.633  10.405   7.359
 5523SOL    HW218402  11.771  10.464   7.336
 5524SOL     OW18403   2.516   4.005   9.320
 5524SOL    HW118404   2.509   4.038   9.230
 5524SOL    HW218405   2.500   4.082   9.375
 5525SOL     OW18406   0.956   2.796   6.612
 5525SOL    HW118407   1.001   2.716   6.586
 5525SOL    HW218408   0.992   2.865   6.556
 5526SOL     OW18409   0.038  13.545  11.760
 5526SOL    HW118410  14.856  13.473  11.728
 5526SOL    HW218411  14.851  13.597  11.814
 5527SOL     OW18412  14.550   5.054   9.956
 5527SOL    HW118413  14.483   5.006  10.004
 5527SOL    HW218414  14.562   5.135  10.006
 5528SOL     OW18415   0.421   8.422   3.411
 5528SOL    HW118416   0.435   8.327   3.410
 5528SOL    HW218417   0.491   8.455   3.467
 5529SOL     OW18418  13.042  14.310   4.361
 5529SOL    HW118419  13.107  14.279   4.424
 5529SOL    HW218420  13.076  14.395   4.332
 5530SOL     OW18421  11.777   0.511  13.906
 5530SOL    HW118422  11.728   0.477  13.981
 5530SOL    HW218423  11.816   0.593  13.938
 5531SOL     OW18424   9.001  11.569   7.176
 5531SOL    HW118425   8.967  11.604   7.094
 5531SOL    HW218426   8.934  11.506   7.204
 5532SOL     OW18427  11.141  13.866   8.048
 5532SOL    HW118428  11.188  13.793   8.087
 5532SOL    HW218429  11.091  13.827   7.976
 5533SOL     OW18430   3.032   1.374   0.642
 5533SOL    HW118431   3.050   1.359   0.734
 5533SOL    HW218432   3.039   1.288   0.601
 5534SOL     OW18433  11.451   7.368  13.120
 5534SOL    HW118434  11.361   7.337  13.107
 5534SOL    HW218435  11.443   7.462  13.133
 5535SOL     OW18436   0.871   0.942   1.440
 5535SOL    HW118437   0.879   0.848   1.427
 5535SOL    HW218438   0.959   0.971   1.465
 5536SOL     OW18439  12.273   1.651   1.263
 5536SOL    HW118440  12.332   1.588   1.306
 5536SOL    HW218441  12.331   1.722   1.235
 5537SOL     OW18442   4.371   0.310   7.951
 5537SOL    HW118443   4.453   0.313   7.902
 5537SOL    HW218444   4.324   0.236   7.914
 5538SOL     OW18445   2.691   3.842  14.249
 5538SOL    HW118446   2.770   3.815  14.297
 5538SOL    HW218447   2.715   3.926  14.210
 5539SOL     OW18448   1.659   1.097   2.465
 5539SOL    HW118449   1.574   1.089   2.422
 5539SOL    HW218450   1.719   1.122   2.395
 5540SOL     OW18451   6.485  12.374   1.943
 5540SOL    HW118452   6.461  12.374   1.851
 5540SOL    HW218453   6.514  12.463   1.961
 5541SOL     OW18454   6.888   9.085  14.518
 5541SOL    HW118455   6.799   9.102  14.489
 5541SOL    HW218456   6.881   9.073  14.613
 5542SOL     OW18457  14.698   4.830   4.669
 5542SOL    HW118458  14.630   4.794   4.612
 5542SOL    HW218459  14.760   4.758   4.680
 5543SOL     OW18460   4.091   9.239   3.658
 5543SOL    HW118461   4.160   9.208   3.717
 5543SOL    HW218462   4.123   9.219   3.570
 5544SOL     OW18463   7.912   4.713   6.594
 5544SOL    HW118464   7.862   4.636   6.624
 5544SOL    HW218465   7.895   4.779   6.661
 5545SOL     OW18466   3.760   5.628   0.220
 5545SOL    HW118467   3.765   5.680   0.301
 5545SOL    HW218468   3.668   5.634   0.194
 5546SOL     OW18469   8.058   2.273  13.261
 5546SOL    HW118470   7.976   2.251  13.217
 5546SOL    HW218471   8.058   2.221  13.341
 5547SOL     OW18472   2.987   5.765  13.016
 5547SOL    HW118473   2.962   5.715  12.939
 5547SOL    HW218474   2.912   5.822  13.033
 5548SOL     OW18475   0.414   0.395  11.707
 5548SOL    HW118476   0.461   0.418  11.627
 5548SOL    HW218477   0.380   0.478  11.740
 5549SOL     OW18478  11.681   5.234  12.582
 5549SOL    HW118479  11.703   5.203  12.494
 5549SOL    HW218480  11.661   5.154  12.632
 5550SOL     OW18481   2.303  14.696   8.336
 5550SOL    HW118482   2.255  14.703   8.418
 5550SOL    HW218483   2.266  14.766   8.281
 5551SOL     OW18484   4.037   5.974   7.342
 5551SOL    HW118485   3.989   5.996   7.422
 5551SOL    HW218486   3.978   5.913   7.297
 5552SOL     OW18487   2.405   0.363  12.042
 5552SOL    HW118488   2.427   0.270  12.036
 5552SOL    HW218489   2.320   0.365  12.087
 5553SOL     OW18490  11.984   4.589   0.807
 5553SOL    HW118491  11.985   4.682   0.783
 5553SOL    HW218492  11.892   4.571   0.828
 5554SOL     OW18493   1.269  13.122   9.111
 5554SOL    HW118494   1.203  13.167   9.059
 5554SOL    HW218495   1.269  13.168   9.195
 5555SOL     OW18496   8.218   0.687  14.170
 5555SOL    HW118497   8.180   0.733  14.095
 5555SOL    HW218498   8.310   0.712  14.169
 5556SOL     OW18499  11.239   1.977   7.923
 5556SOL    HW118500  11.186   1.994   7.845
 5556SOL    HW218501  11.206   2.039   7.988
 5557SOL     OW18502   8.519   7.291  13.613
 5557SOL    HW118503   8.598   7.253  13.652
 5557SOL    HW218504   8.530   7.278  13.519
 5558SOL     OW18505  13.796   2.211  11.420
 5558SOL    HW118506  13.807   2.247  11.507
 5558SOL    HW218507  13.871   2.243  11.370
 5559SOL     OW18508   7.524   5.895   6.452
 5559SOL    HW118509   7.487   5.837   6.387
 5559SOL    HW218510   7.460   5.897   6.523
 5560SOL     OW18511   8.945  13.073  10.536
 5560SOL    HW118512   9.036  13.103  10.534
 5560SOL    HW218513   8.930  13.046  10.626
 5561SOL     OW18514   8.927  12.829   3.360
 5561SOL    HW118515   8.917  12.881   3.280
 5561SOL    HW218516   8.979  12.753   3.334
 5562SOL     OW18517  10.623   0.864   9.177
 5562SOL    HW118518  10.659   0.833   9.261
 5562SOL    HW218519  10.548   0.917   9.202
 5563SOL     OW18520   7.619   8.166   2.666
 5563SOL    HW118521   7.666   8.118   2.734
 5563SOL    HW218522   7.675   8.161   2.589
 5564SOL     OW18523   2.999  12.180  13.096
 5564SOL    HW118524   3.031  12.139  13.016
 5564SOL    HW218525   2.965  12.107  13.148
 5565SOL     OW18526  13.420   3.074   8.595
 5565SOL    HW118527  13.371   3.154   8.578
 5565SOL    HW218528  13.470   3.094   8.675
 5566SOL     OW18529   2.488   7.928   8.902
 5566SOL    HW118530   2.536   7.991   8.848
 5566SOL    HW218531   2.438   7.982   8.963
 5567SOL     OW18532   6.988   4.598   9.537
 5567SOL    HW118533   6.952   4.679   9.501
 5567SOL    HW218534   6.912   4.553   9.575
 5568SOL     OW18535   9.263   9.728  13.544
 5568SOL    HW118536   9.253   9.789  13.617
 5568SOL    HW218537   9.356   9.706  13.544
 5569SOL     OW18538   7.956   9.157   6.760
 5569SOL    HW118539   8.033   9.207   6.785
 5569SOL    HW218540   7.918   9.206   6.687
 5570SOL     OW18541  12.929   3.101  11.673
 5570SOL    HW118542  12.837   3.129  11.672
 5570SOL    HW218543  12.950   3.092  11.766
 5571SOL     OW18544   9.872  13.632   4.066
 5571SOL    HW118545   9.839  13.673   4.145
 5571SOL    HW218546   9.918  13.702   4.020
 5572SOL     OW18547  13.133   0.986   7.376
 5572SOL    HW118548  13.160   0.972   7.285
 5572SOL    HW218549  13.167   1.073   7.397
 5573SOL     OW18550   5.379   8.045   9.179
 5573SOL    HW118551   5.289   8.075   9.193
 5573SOL    HW218552   5.424   8.121   9.141
 5574SOL     OW18553   2.706   7.059  13.275
 5574SOL    HW118554   2.794   7.096  13.270
 5574SOL    HW218555   2.705   7.011  13.358
 5575SOL     OW18556   6.193   8.336  11.843
 5575SOL    HW118557   6.286   8.315  11.832
 5575SOL    HW218558   6.175   8.320  11.936
 5576SOL     OW18559   6.745   7.693   0.873
 5576SOL    HW118560   6.782   7.632   0.809
 5576SOL    HW218561   6.788   7.776   0.855
 5577SOL     OW18562  10.923   8.949   0.919
 5577SOL    HW118563  10.989   8.918   0.856
 5577SOL    HW218564  10.854   8.988   0.865
 5578SOL     OW18565   3.496   5.980   0.252
 5578SOL    HW118566   3.591   5.969   0.254
 5578SOL    HW218567   3.481   6.042   0.181
 5579SOL     OW18568  12.237   5.397   1.002
 5579SOL    HW118569  12.324   5.413   1.039
 5579SOL    HW218570  12.253   5.337   0.929
 5580SOL     OW18571   0.106   0.683  12.123
 5580SOL    HW118572   0.159   0.679  12.202
 5580SOL    HW218573   0.059   0.600  12.121
 5581SOL     OW18574  12.585  13.033   6.962
 5581SOL    HW118575  12.650  13.015   6.894
 5581SOL    HW218576  12.629  13.093   7.022
 5582SOL     OW18577   3.694  11.186   6.569
 5582SOL    HW118578   3.689  11.090   6.561
 5582SOL    HW218579   3.609  11.217   6.538
 5583SOL     OW18580   0.731   4.890  10.878
 5583SOL    HW118581   0.668   4.928  10.817
 5583SOL    HW218582   0.783   4.965  10.909
 5584SOL     OW18583  12.882  12.621  10.845
 5584SOL    HW118584  12.850  12.547  10.896
 5584SOL    HW218585  12.809  12.645  10.788
 5585SOL     OW18586   0.401   6.256  11.210
 5585SOL    HW118587   0.485   6.252  11.256
 5585SOL    HW218588   0.424   6.247  11.117
 5586SOL     OW18589   6.127   2.330  12.820
 5586SOL    HW118590   6.043   2.364  12.790
 5586SOL    HW218591   6.122   2.236  12.803
 5587SOL     OW18592   9.455   7.749  11.564
 5587SOL    HW118593   9.530   7.804  11.587
 5587SOL    HW218594   9.419   7.789  11.486
 5588SOL     OW18595   3.523   1.706   1.293
 5588SOL    HW118596   3.581   1.701   1.369
 5588SOL    HW218597   3.445   1.751   1.325
 5589SOL     OW18598  10.777   9.008   2.444
 5589SOL    HW118599  10.744   9.034   2.357
 5589SOL    HW218600  10.873   9.010   2.434
 5590SOL     OW18601   9.981   3.344   9.164
 5590SOL    HW118602   9.948   3.255   9.157
 5590SOL    HW218603  10.062   3.336   9.216
 5591SOL     OW18604  10.321   9.429   3.007
 5591SOL    HW118605  10.397   9.469   2.965
 5591SOL    HW218606  10.313   9.473   3.092
 5592SOL     OW18607  11.578   5.739   6.598
 5592SOL    HW118608  11.586   5.826   6.637
 5592SOL    HW218609  11.589   5.679   6.671
 5593SOL     OW18610  10.180   7.878   2.696
 5593SOL    HW118611  10.255   7.829   2.728
 5593SOL    HW218612  10.154   7.933   2.771
 5594SOL     OW18613   6.616   9.521   6.706
 5594SOL    HW118614   6.558   9.543   6.779
 5594SOL    HW218615   6.653   9.605   6.679
 5595SOL     OW18616   1.570   5.962   5.470
 5595SOL    HW118617   1.544   5.943   5.560
 5595SOL    HW218618   1.620   5.885   5.444
 5596SOL     OW18619   6.661   7.222  12.903
 5596SOL    HW118620   6.570   7.241  12.878
 5596SOL    HW218621   6.659   7.132  12.933
 5597SOL     OW18622  14.031   6.564  10.187
 5597SOL    HW118623  14.121   6.551  10.159
 5597SOL    HW218624  13.983   6.489  10.152
 5598SOL     OW18625   6.952  14.602   4.366
 5598SOL    HW118626   6.926  14.627   4.278
 5598SOL    HW218627   6.993  14.516   4.356
 5599SOL     OW18628  10.497   6.672   2.433
 5599SOL    HW118629  10.561   6.716   2.377
 5599SOL    HW218630  10.414   6.716   2.414
 5600SOL     OW18631   9.260   0.525   6.176
 5600SOL    HW118632   9.199   0.457   6.205
 5600SOL    HW218633   9.303   0.487   6.100
 5601SOL     OW18634   3.695  12.943  10.652
 5601SOL    HW118635   3.688  12.857  10.611
 5601SOL    HW218636   3.749  12.993  10.591
 5602SOL     OW18637   7.763   4.952   5.361
 5602SOL    HW118638   7.754   4.978   5.453
 5602SOL    HW218639   7.737   4.860   5.359
 5603SOL     OW18640   1.417  12.669  13.084
 5603SOL    HW118641   1.335  12.634  13.050
 5603SOL    HW218642   1.485  12.625  13.033
 5604SOL     OW18643   6.759  11.330  10.111
 5604SOL    HW118644   6.823  11.261  10.129
 5604SOL    HW218645   6.697  11.289  10.051
 5605SOL     OW18646   1.501   1.495   3.476
 5605SOL    HW118647   1.492   1.560   3.545
 5605SOL    HW218648   1.462   1.415   3.513
 5606SOL     OW18649  14.235  13.183   4.741
 5606SOL    HW118650  14.173  13.110   4.739
 5606SOL    HW218651  14.217  13.232   4.661
 5607SOL     OW18652   9.547  14.247   4.889
 5607SOL    HW118653   9.531  14.311   4.820
 5607SOL    HW218654   9.460  14.215   4.913
 5608SOL     OW18655  12.597  13.769   9.516
 5608SOL    HW118656  12.532  13.700   9.530
 5608SOL    HW218657  12.618  13.765   9.422
 5609SOL     OW18658   6.626   7.564   5.750
 5609SOL    HW118659   6.545   7.587   5.795
 5609SOL    HW218660   6.690   7.551   5.820
 5610SOL     OW18661   9.139  10.490  10.924
 5610SOL    HW118662   9.099  10.526  11.004
 5610SOL    HW218663   9.211  10.437  10.955
 5611SOL     OW18664   5.808   1.677   6.849
 5611SOL    HW118665   5.761   1.754   6.880
 5611SOL    HW218666   5.740   1.622   6.809
 5612SOL     OW18667   1.612   7.866  13.694
 5612SOL    HW118668   1.594   7.799  13.628
 5612SOL    HW218669   1.611   7.949  13.646
 5613SOL     OW18670  11.311  13.775  13.136
 5613SOL    HW118671  11.232  13.765  13.083
 5613SOL    HW218672  11.382  13.751  13.077
 5614SOL     OW18673   7.060  14.046   9.061
 5614SOL    HW118674   7.055  14.066   9.154
 5614SOL    HW218675   6.970  14.058   9.029
 5615SOL     OW18676   7.343   2.606   1.049
 5615SOL    HW118677   7.292   2.631   0.972
 5615SOL    HW218678   7.427   2.651   1.037
 5616SOL     OW18679   8.542   1.311   3.893
 5616SOL    HW118680   8.576   1.342   3.977
 5616SOL    HW218681   8.573   1.221   3.886
 5617SOL     OW18682   2.916   1.469   1.585
 5617SOL    HW118683   3.000   1.437   1.551
 5617SOL    HW218684   2.887   1.533   1.519
 5618SOL     OW18685   9.043  10.489  11.944
 5618SOL    HW118686   9.014  10.571  11.903
 5618SOL    HW218687   9.092  10.517  12.022
 5619SOL     OW18688  13.441   4.108   5.254
 5619SOL    HW118689  13.482   4.076   5.334
 5619SOL    HW218690  13.459   4.202   5.254
 5620SOL     OW18691   0.814  14.281  12.681
 5620SOL    HW118692   0.810  14.340  12.606
 5620SOL    HW218693   0.723  14.257  12.698
 5621SOL     OW18694   5.772   0.874   7.597
 5621SOL    HW118695   5.836   0.805   7.613
 5621SOL    HW218696   5.824   0.952   7.579
 5622SOL     OW18697   8.804   2.181   2.415
 5622SOL    HW118698   8.863   2.144   2.480
 5622SOL    HW218699   8.857   2.245   2.367
 5623SOL     OW18700   7.632   8.948   9.387
 5623SOL    HW118701   7.728   8.955   9.379
 5623SOL    HW218702   7.603   9.038   9.399
 5624SOL     OW18703   3.892  10.069  13.570
 5624SOL    HW118704   3.970  10.107  13.610
 5624SOL    HW218705   3.917  10.052  13.479
 5625SOL     OW18706   7.234   4.615   6.440
 5625SOL    HW118707   7.191   4.530   6.450
 5625SOL    HW218708   7.259   4.619   6.347
 5626SOL     OW18709  12.131   3.470   7.734
 5626SOL    HW118710  12.219   3.486   7.701
 5626SOL    HW218711  12.114   3.378   7.715
 5627SOL     OW18712   1.977  12.409   4.931
 5627SOL    HW118713   2.014  12.415   4.842
 5627SOL    HW218714   1.888  12.444   4.922
 5628SOL     OW18715  13.538   2.814   0.639
 5628SOL    HW118716  13.603   2.879   0.663
 5628SOL    HW218717  13.532   2.819   0.544
 5629SOL     OW18718   3.757   0.381   7.418
 5629SOL    HW118719   3.714   0.443   7.476
 5629SOL    HW218720   3.754   0.422   7.332
 5630SOL     OW18721   5.814   1.337  14.559
 5630SOL    HW118722   5.865   1.367  14.634
 5630SOL    HW218723   5.732   1.387  14.564
 5631SOL     OW18724  13.562   7.020  11.690
 5631SOL    HW118725  13.610   6.950  11.647
 5631SOL    HW218726  13.541   7.081  11.620
 5632SOL     OW18727  10.883   8.444  10.922
 5632SOL    HW118728  10.863   8.533  10.896
 5632SOL    HW218729  10.973   8.429  10.892
 5633SOL     OW18730   4.368  11.810  10.312
 5633SOL    HW118731   4.309  11.759  10.367
 5633SOL    HW218732   4.356  11.901  10.341
 5634SOL     OW18733  14.243  11.567   7.144
 5634SOL    HW118734  14.189  11.502   7.188
 5634SOL    HW218735  14.324  11.520   7.123
 5635SOL     OW18736  13.756   5.011   8.354
 5635SOL    HW118737  13.740   5.105   8.350
 5635SOL    HW218738  13.820   4.994   8.285
 5636SOL     OW18739   0.775   8.819   1.988
 5636SOL    HW118740   0.793   8.913   1.984
 5636SOL    HW218741   0.699   8.812   2.045
 5637SOL     OW18742   3.715  12.961  13.351
 5637SOL    HW118743   3.692  13.033  13.411
 5637SOL    HW218744   3.709  13.000  13.264
 5638SOL     OW18745   0.280  11.743   6.016
 5638SOL    HW118746   0.266  11.836   5.998
 5638SOL    HW218747   0.366  11.724   5.978
 5639SOL     OW18748  13.050   0.068   5.774
 5639SOL    HW118749  13.066  14.850   5.749
 5639SOL    HW218750  13.008   0.108   5.697
 5640SOL     OW18751   6.825  11.354  14.605
 5640SOL    HW118752   6.808  11.402  14.686
 5640SOL    HW218753   6.746  11.367  14.553
 5641SOL     OW18754   7.210  12.934   8.640
 5641SOL    HW118755   7.260  12.877   8.581
 5641SOL    HW218756   7.258  13.016   8.641
 5642SOL     OW18757  11.214  10.242   8.261
 5642SOL    HW118758  11.132  10.291   8.253
 5642SOL    HW218759  11.196  10.157   8.221
 5643SOL     OW18760  12.448   2.212  12.979
 5643SOL    HW118761  12.410   2.268  13.047
 5643SOL    HW218762  12.439   2.262  12.898
 5644SOL     OW18763  11.152   9.728   1.724
 5644SOL    HW118764  11.179   9.637   1.736
 5644SOL    HW218765  11.166   9.745   1.631
 5645SOL     OW18766   6.313   2.961  10.121
 5645SOL    HW118767   6.336   3.038  10.069
 5645SOL    HW218768   6.392   2.907  10.119
 5646SOL     OW18769   8.744   8.655  10.587
 5646SOL    HW118770   8.688   8.616  10.654
 5646SOL    HW218771   8.830   8.616  10.602
 5647SOL     OW18772  13.344   2.377  14.591
 5647SOL    HW118773  13.252   2.351  14.593
 5647SOL    HW218774  13.392   2.294  14.596
 5648SOL     OW18775  11.736   8.639   5.169
 5648SOL    HW118776  11.641   8.639   5.181
 5648SOL    HW218777  11.754   8.564   5.113
 5649SOL     OW18778  14.514   5.151   4.666
 5649SOL    HW118779  14.490   5.195   4.748
 5649SOL    HW218780  14.436   5.154   4.612
 5650SOL     OW18781  12.756   6.729   0.776
 5650SOL    HW118782  12.777   6.754   0.865
 5650SOL    HW218783  12.686   6.788   0.749
 5651SOL     OW18784   0.052   9.626   3.540
 5651SOL    HW118785   0.019   9.548   3.495
 5651SOL    HW218786  14.848   9.658   3.589
 5652SOL     OW18787  10.412  14.206   6.797
 5652SOL    HW118788  10.432  14.120   6.833
 5652SOL    HW218789  10.328  14.230   6.836
 5653SOL     OW18790   2.410   3.687   7.161
 5653SOL    HW118791   2.371   3.726   7.239
 5653SOL    HW218792   2.347   3.704   7.091
 5654SOL     OW18793  13.953   8.665   8.832
 5654SOL    HW118794  13.966   8.593   8.770
 5654SOL    HW218795  13.902   8.625   8.903
 5655SOL     OW18796   7.524   4.054   7.471
 5655SOL    HW118797   7.523   4.126   7.534
 5655SOL    HW218798   7.559   3.980   7.520
 5656SOL     OW18799  14.419  13.809  11.096
 5656SOL    HW118800  14.512  13.810  11.071
 5656SOL    HW218801  14.372  13.799  11.014
 5657SOL     OW18802  12.889   0.651  13.102
 5657SOL    HW118803  12.889   0.747  13.097
 5657SOL    HW218804  12.797   0.628  13.117
 5658SOL     OW18805   6.360  13.593   3.727
 5658SOL    HW118806   6.446  13.618   3.693
 5658SOL    HW218807   6.298  13.626   3.661
 5659SOL     OW18808  10.704   3.160   0.140
 5659SOL    HW118809  10.682   3.251   0.160
 5659SOL    HW218810  10.674   3.147   0.050
 5660SOL     OW18811   7.235   5.949  10.206
 5660SOL    HW118812   7.227   6.028  10.259
 5660SOL    HW218813   7.182   5.967  10.128
 5661SOL     OW18814   0.727  12.380  14.092
 5661SOL    HW118815   0.696  12.292  14.110
 5661SOL    HW218816   0.685  12.435  14.158
 5662SOL     OW18817  10.418   1.241  10.512
 5662SOL    HW118818  10.440   1.187  10.589
 5662SOL    HW218819  10.327   1.218  10.492
 5663SOL     OW18820   4.646  10.251   0.138
 5663SOL    HW118821   4.586  10.279   0.208
 5663SOL    HW218822   4.692  10.330   0.113
 5664SOL     OW18823   1.331   7.608   5.589
 5664SOL    HW118824   1.340   7.692   5.543
 5664SOL    HW218825   1.371   7.544   5.531
 5665SOL     OW18826   4.783   9.981   2.850
 5665SOL    HW118827   4.760  10.064   2.811
 5665SOL    HW218828   4.876   9.991   2.874
 5666SOL     OW18829   2.038   9.570  11.065
 5666SOL    HW118830   2.025   9.652  11.113
 5666SOL    HW218831   1.950   9.538  11.047
 5667SOL     OW18832   8.515   7.429   8.462
 5667SOL    HW118833   8.564   7.463   8.387
 5667SOL    HW218834   8.547   7.479   8.536
 5668SOL     OW18835   1.952   2.855  14.158
 5668SOL    HW118836   1.881   2.798  14.187
 5668SOL    HW218837   2.009   2.863  14.235
 5669SOL     OW18838  14.745   8.746   4.080
 5669SOL    HW118839  14.696   8.824   4.108
 5669SOL    HW218840  14.777   8.768   3.993
 5670SOL     OW18841   4.134  13.063   7.970
 5670SOL    HW118842   4.086  12.995   7.922
 5670SOL    HW218843   4.208  13.017   8.010
 5671SOL     OW18844   9.723  12.271  11.151
 5671SOL    HW118845   9.688  12.332  11.086
 5671SOL    HW218846   9.665  12.195  11.147
 5672SOL     OW18847   1.207   4.714   5.141
 5672SOL    HW118848   1.282   4.712   5.201
 5672SOL    HW218849   1.184   4.622   5.128
 5673SOL     OW18850   7.457   0.322  10.218
 5673SOL    HW118851   7.475   0.389  10.283
 5673SOL    HW218852   7.368   0.293  10.236
 5674SOL     OW18853   8.971   8.030   0.045
 5674SOL    HW118854   8.928   8.050  14.834
 5674SOL    HW218855   9.009   8.113   0.073
 5675SOL     OW18856   7.350   0.009  10.501
 5675SOL    HW118857   7.379   0.029  10.411
 5675SOL    HW218858   7.427  14.843  10.543
 5676SOL     OW18859  10.457  14.382   1.294
 5676SOL    HW118860  10.460  14.474   1.319
 5676SOL    HW218861  10.414  14.381   1.209
 5677SOL     OW18862   1.695   3.266   2.092
 5677SOL    HW118863   1.630   3.325   2.130
 5677SOL    HW218864   1.739   3.226   2.167
 5678SOL     OW18865   1.468  12.560   3.416
 5678SOL    HW118866   1.545  12.616   3.423
 5678SOL    HW218867   1.477  12.517   3.330
 5679SOL     OW18868   0.930  10.902  13.894
 5679SOL    HW118869   1.009  10.862  13.931
 5679SOL    HW218870   0.920  10.861  13.808
 5680SOL     OW18871  10.631   3.612   2.080
 5680SOL    HW118872  10.699   3.544   2.085
 5680SOL    HW218873  10.620   3.642   2.170
 5681SOL     OW18874   4.473   2.378   3.926
 5681SOL    HW118875   4.523   2.439   3.980
 5681SOL    HW218876   4.529   2.360   3.851
 5682SOL     OW18877  10.521   3.253  10.093
 5682SOL    HW118878  10.571   3.295  10.024
 5682SOL    HW218879  10.431   3.281  10.078
 5683SOL     OW18880  11.961   8.953   2.346
 5683SOL    HW118881  11.868   8.972   2.340
 5683SOL    HW218882  11.967   8.883   2.412
 5684SOL     OW18883   1.438  11.744  11.807
 5684SOL    HW118884   1.453  11.651  11.792
 5684SOL    HW218885   1.465  11.786  11.726
 5685SOL     OW18886   2.210   0.921  12.808
 5685SOL    HW118887   2.200   1.014  12.786
 5685SOL    HW218888   2.300   0.914  12.841
 5686SOL     OW18889   6.629   0.769   3.013
 5686SOL    HW118890   6.716   0.743   2.981
 5686SOL    HW218891   6.572   0.759   2.937
 5687SOL     OW18892   4.381   2.606   8.965
 5687SOL    HW118893   4.462   2.653   8.985
 5687SOL    HW218894   4.391   2.580   8.873
 5688SOL     OW18895  10.755   7.077   3.227
 5688SOL    HW118896  10.812   7.001   3.238
 5688SOL    HW218897  10.731   7.102   3.316
 5689SOL     OW18898   3.964   8.847   7.202
 5689SOL    HW118899   4.022   8.885   7.268
 5689SOL    HW218900   3.894   8.911   7.191
 5690SOL     OW18901  12.868   8.809   1.694
 5690SOL    HW118902  12.788   8.767   1.664
 5690SOL    HW218903  12.907   8.745   1.754
 5691SOL     OW18904   6.957   3.898   8.731
 5691SOL    HW118905   6.906   3.920   8.809
 5691SOL    HW218906   6.964   3.981   8.684
 5692SOL     OW18907   1.108  12.821   1.031
 5692SOL    HW118908   1.152  12.890   1.080
 5692SOL    HW218909   1.176  12.756   1.015
 5693SOL     OW18910   2.057   0.250  12.492
 5693SOL    HW118911   2.037   0.251  12.586
 5693SOL    HW218912   2.146   0.217  12.487
 5694SOL     OW18913   7.303  12.518   0.505
 5694SOL    HW118914   7.304  12.579   0.431
 5694SOL    HW218915   7.214  12.482   0.504
 5695SOL     OW18916   8.927   4.652  12.140
 5695SOL    HW118917   8.976   4.575  12.110
 5695SOL    HW218918   8.843   4.616  12.169
 5696SOL     OW18919  11.562   9.133   6.072
 5696SOL    HW118920  11.484   9.100   6.028
 5696SOL    HW218921  11.603   9.192   6.008
 5697SOL     OW18922  12.919   2.303   8.505
 5697SOL    HW118923  12.829   2.308   8.472
 5697SOL    HW218924  12.951   2.218   8.475
 5698SOL     OW18925  10.043  10.001  11.809
 5698SOL    HW118926  10.047   9.936  11.739
 5698SOL    HW218927  10.133  10.007  11.842
 5699SOL     OW18928  11.422  11.330   6.382
 5699SOL    HW118929  11.472  11.367   6.455
 5699SOL    HW218930  11.454  11.240   6.374
 5700SOL     OW18931  11.821   6.524   5.591
 5700SOL    HW118932  11.783   6.555   5.508
 5700SOL    HW218933  11.867   6.443   5.567
 5701SOL     OW18934   2.936   2.954   1.481
 5701SOL    HW118935   3.016   2.936   1.530
 5701SOL    HW218936   2.932   3.049   1.475
 5702SOL     OW18937  13.081   7.186   5.159
 5702SOL    HW118938  13.162   7.189   5.210
 5702SOL    HW218939  13.011   7.194   5.223
 5703SOL     OW18940  11.983  13.978  14.245
 5703SOL    HW118941  11.907  13.998  14.190
 5703SOL    HW218942  11.951  13.985  14.335
 5704SOL     OW18943  10.805   0.458  11.600
 5704SOL    HW118944  10.803   0.551  11.577
 5704SOL    HW218945  10.868   0.419  11.540
 5705SOL     OW18946   2.767  11.502   2.328
 5705SOL    HW118947   2.769  11.413   2.363
 5705SOL    HW218948   2.713  11.551   2.390
 5706SOL     OW18949   1.618   6.116   7.571
 5706SOL    HW118950   1.667   6.148   7.647
 5706SOL    HW218951   1.532   6.156   7.580
 5707SOL     OW18952   8.769   3.008  11.088
 5707SOL    HW118953   8.812   3.008  11.003
 5707SOL    HW218954   8.825   3.062  11.144
 5708SOL     OW18955   1.097   8.092   2.849
 5708SOL    HW118956   1.094   8.143   2.769
 5708SOL    HW218957   1.031   8.130   2.906
 5709SOL     OW18958  13.900   1.183  14.825
 5709SOL    HW118959  13.805   1.176  14.831
 5709SOL    HW218960  13.926   1.231   0.031
 5710SOL     OW18961  14.601   1.980   0.579
 5710SOL    HW118962  14.687   2.000   0.541
 5710SOL    HW218963  14.608   2.006   0.671
 5711SOL     OW18964  12.735   7.836   3.888
 5711SOL    HW118965  12.796   7.778   3.933
 5711SOL    HW218966  12.650   7.815   3.925
 5712SOL     OW18967   2.247  14.220  12.292
 5712SOL    HW118968   2.226  14.237  12.200
 5712SOL    HW218969   2.340  14.240  12.300
 5713SOL     OW18970   5.479  10.650  11.890
 5713SOL    HW118971   5.389  10.615  11.894
 5713SOL    HW218972   5.468  10.744  11.900
 5714SOL     OW18973  13.450  12.240   7.550
 5714SOL    HW118974  13.371  12.206   7.508
 5714SOL    HW218975  13.429  12.331   7.571
 5715SOL     OW18976   3.209   3.241   8.615
 5715SOL    HW118977   3.132   3.295   8.598
 5715SOL    HW218978   3.246   3.223   8.528
 5716SOL     OW18979   1.563   5.138   9.998
 5716SOL    HW118980   1.607   5.222  10.004
 5716SOL    HW218981   1.489   5.145  10.058
 5717SOL     OW18982   3.410   2.024   3.605
 5717SOL    HW118983   3.412   2.021   3.510
 5717SOL    HW218984   3.467   1.952   3.633
 5718SOL     OW18985   5.954   1.760   4.948
 5718SOL    HW118986   5.997   1.832   4.996
 5718SOL    HW218987   5.868   1.796   4.924
 5719SOL     OW18988  10.504  12.178  13.862
 5719SOL    HW118989  10.518  12.272  13.877
 5719SOL    HW218990  10.507  12.139  13.950
 5720SOL     OW18991   4.206  12.863   9.288
 5720SOL    HW118992   4.164  12.777   9.283
 5720SOL    HW218993   4.191  12.901   9.202
 5721SOL     OW18994   0.845  12.883   4.099
 5721SOL    HW118995   0.899  12.956   4.068
 5721SOL    HW218996   0.909  12.815   4.122
 5722SOL     OW18997   8.674   0.297   6.963
 5722SOL    HW118998   8.725   0.378   6.971
 5722SOL    HW218999   8.632   0.286   7.048
 5723SOL     OW19000   6.015   0.096   2.360
 5723SOL    HW119001   6.058   0.018   2.395
 5723SOL    HW219002   6.052   0.169   2.410
 5724SOL     OW19003   7.242   7.105  10.917
 5724SOL    HW119004   7.263   7.021  10.875
 5724SOL    HW219005   7.192   7.153  10.851
 5725SOL     OW19006  14.836   0.305   7.911
 5725SOL    HW119007  14.767   0.260   7.959
 5725SOL    HW219008  14.837   0.263   7.825
 5726SOL     OW19009  14.688   1.947   9.214
 5726SOL    HW119010  14.746   1.879   9.249
 5726SOL    HW219011  14.607   1.939   9.265
 5727SOL     OW19012  13.437   9.180   9.757
 5727SOL    HW119013  13.401   9.193   9.669
 5727SOL    HW219014  13.455   9.269   9.789
 5728SOL     OW19015   7.358  11.971  10.466
 5728SOL    HW119016   7.344  11.923  10.385
 5728SOL    HW219017   7.303  11.926  10.530
 5729SOL     OW19018  10.310   9.727  11.598
 5729SOL    HW119019  10.295   9.717  11.504
 5729SOL    HW219020  10.223   9.728  11.637
 5730SOL     OW19021   9.262   7.586   1.452
 5730SOL    HW119022   9.238   7.575   1.544
 5730SOL    HW219023   9.209   7.660   1.422
 5731SOL     OW19024   2.424   4.367  12.076
 5731SOL    HW119025   2.377   4.294  12.035
 5731SOL    HW219026   2.412   4.354  12.170
 5732SOL     OW19027   2.064   4.906   9.007
 5732SOL    HW119028   2.022   4.992   8.999
 5732SOL    HW219029   2.157   4.924   8.997
 5733SOL     OW19030  14.855   6.401  12.448
 5733SOL    HW119031  14.854   6.458  12.525
 5733SOL    HW219032  14.764   6.372  12.438
 5734SOL     OW19033  12.520   5.282   6.603
 5734SOL    HW119034  12.503   5.299   6.511
 5734SOL    HW219035  12.486   5.359   6.649
 5735SOL     OW19036   7.132  11.666   5.727
 5735SOL    HW119037   7.067  11.736   5.730
 5735SOL    HW219038   7.184  11.678   5.806
 5736SOL     OW19039  10.113  12.346   2.422
 5736SOL    HW119040  10.177  12.307   2.481
 5736SOL    HW219041  10.094  12.432   2.459
 5737SOL     OW19042  12.521   7.585   7.711
 5737SOL    HW119043  12.558   7.499   7.730
 5737SOL    HW219044  12.556   7.608   7.625
 5738SOL     OW19045   8.172   8.223   8.363
 5738SOL    HW119046   8.174   8.318   8.373
 5738SOL    HW219047   8.090   8.206   8.316
 5739SOL     OW19048   6.947  12.093   6.235
 5739SOL    HW119049   6.999  12.128   6.308
 5739SOL    HW219050   6.857  12.100   6.265
 5740SOL     OW19051   9.713   6.784  12.751
 5740SOL    HW119052   9.674   6.698  12.769
 5740SOL    HW219053   9.644   6.846  12.773
 5741SOL     OW19054   8.219   9.814   6.703
 5741SOL    HW119055   8.237   9.868   6.780
 5741SOL    HW219056   8.293   9.753   6.699
 5742SOL     OW19057   1.373  12.922   1.592
 5742SOL    HW119058   1.387  12.849   1.652
 5742SOL    HW219059   1.357  12.998   1.649
 5743SOL     OW19060   1.896   5.879   9.192
 5743SOL    HW119061   1.807   5.911   9.204
 5743SOL    HW219062   1.931   5.871   9.281
 5744SOL     OW19063   6.743   3.976   6.214
 5744SOL    HW119064   6.732   3.891   6.173
 5744SOL    HW219065   6.779   3.957   6.301
 5745SOL     OW19066  13.322   1.384   5.835
 5745SOL    HW119067  13.323   1.475   5.806
 5745SOL    HW219068  13.231   1.357   5.825
 5746SOL     OW19069   1.975   5.539   8.847
 5746SOL    HW119070   2.026   5.466   8.814
 5746SOL    HW219071   1.886   5.521   8.819
 5747SOL     OW19072   2.115  10.145   7.094
 5747SOL    HW119073   2.104  10.195   7.175
 5747SOL    HW219074   2.188  10.190   7.049
 5748SOL     OW19075  13.387   3.699  13.565
 5748SOL    HW119076  13.378   3.607  13.590
 5748SOL    HW219077  13.303   3.721  13.525
 5749SOL     OW19078   1.634   0.467   0.111
 5749SOL    HW119079   1.701   0.489   0.046
 5749SOL    HW219080   1.562   0.527   0.093
 5750SOL     OW19081   3.186   7.615  12.831
 5750SOL    HW119082   3.228   7.648  12.751
 5750SOL    HW219083   3.216   7.674  12.900
 5751SOL     OW19084  11.372   3.423   2.918
 5751SOL    HW119085  11.277   3.426   2.930
 5751SOL    HW219086  11.394   3.330   2.927
 5752SOL     OW19087  10.129  12.253   9.230
 5752SOL    HW119088  10.108  12.253   9.137
 5752SOL    HW219089  10.065  12.193   9.269
 5753SOL     OW19090  13.541   5.838  10.613
 5753SOL    HW119091  13.595   5.868  10.686
 5753SOL    HW219092  13.520   5.917  10.565
 5754SOL     OW19093  13.320  11.859  11.766
 5754SOL    HW119094  13.227  11.879  11.781
 5754SOL    HW219095  13.319  11.772  11.724
 5755SOL     OW19096   0.043   9.138   5.360
 5755SOL    HW119097   0.108   9.110   5.296
 5755SOL    HW219098   0.022   9.227   5.335
 5756SOL     OW19099  13.223   5.311  13.702
 5756SOL    HW119100  13.136   5.346  13.680
 5756SOL    HW219101  13.262   5.290  13.617
 5757SOL     OW19102   6.010  13.589  11.161
 5757SOL    HW119103   6.049  13.657  11.217
 5757SOL    HW219104   6.016  13.626  11.072
 5758SOL     OW19105  11.171   2.528   5.636
 5758SOL    HW119106  11.228   2.564   5.568
 5758SOL    HW219107  11.091   2.581   5.632
 5759SOL     OW19108  11.226   1.850  10.527
 5759SOL    HW119109  11.145   1.825  10.572
 5759SOL    HW219110  11.222   1.945  10.521
 5760SOL     OW19111  14.318   9.875   8.559
 5760SOL    HW119112  14.322   9.830   8.644
 5760SOL    HW219113  14.332   9.967   8.580
 5761SOL     OW19114  12.518   4.704   8.077
 5761SOL    HW119115  12.449   4.662   8.128
 5761SOL    HW219116  12.475   4.731   7.996
 5762SOL     OW19117  12.809  10.039   5.299
 5762SOL    HW119118  12.835  10.132   5.297
 5762SOL    HW219119  12.864  10.001   5.368
 5763SOL     OW19120   1.181  10.283  11.712
 5763SOL    HW119121   1.250  10.286  11.646
 5763SOL    HW219122   1.212  10.341  11.781
 5764SOL     OW19123   4.289  11.630  14.782
 5764SOL    HW119124   4.249  11.562  14.727
 5764SOL    HW219125   4.318  11.697  14.720
 5765SOL     OW19126   6.923   8.289  13.484
 5765SOL    HW119127   6.948   8.304  13.575
 5765SOL    HW219128   6.966   8.206  13.461
 5766SOL     OW19129   6.941   6.921   1.380
 5766SOL    HW119130   6.966   6.926   1.472
 5766SOL    HW219131   6.846   6.907   1.381
 5767SOL     OW19132   6.001   3.001   1.727
 5767SOL    HW119133   5.945   3.045   1.663
 5767SOL    HW219134   5.993   3.054   1.807
 5768SOL     OW19135   3.604   4.118   8.000
 5768SOL    HW119136   3.684   4.065   8.008
 5768SOL    HW219137   3.580   4.110   7.908
 5769SOL     OW19138   0.091  10.238   8.521
 5769SOL    HW119139   0.160  10.293   8.558
 5769SOL    HW219140   0.127  10.205   8.439
 5770SOL     OW19141  10.880  13.286   3.128
 5770SOL    HW119142  10.890  13.212   3.188
 5770SOL    HW219143  10.899  13.250   3.042
 5771SOL     OW19144  12.702  14.867   9.100
 5771SOL    HW119145  12.658   0.075   9.127
 5771SOL    HW219146  12.672  14.851   9.011
 5772SOL     OW19147   9.603  14.469   5.296
 5772SOL    HW119148   9.580  14.377   5.307
 5772SOL    HW219149   9.681  14.481   5.350
 5773SOL     OW19150   4.893   4.432   5.935
 5773SOL    HW119151   4.969   4.373   5.938
 5773SOL    HW219152   4.823   4.383   5.979
 5774SOL     OW19153   7.788   9.658  11.855
 5774SOL    HW119154   7.776   9.727  11.790
 5774SOL    HW219155   7.825   9.585  11.806
 5775SOL     OW19156   8.537   5.096  10.608
 5775SOL    HW119157   8.500   5.008  10.605
 5775SOL    HW219158   8.539   5.124  10.517
 5776SOL     OW19159   8.072  11.008   0.350
 5776SOL    HW119160   8.002  10.943   0.352
 5776SOL    HW219161   8.137  10.975   0.413
 5777SOL     OW19162   5.036   7.407   1.641
 5777SOL    HW119163   4.943   7.385   1.645
 5777SOL    HW219164   5.062   7.385   1.552
 5778SOL     OW19165   8.978   6.535   3.399
 5778SOL    HW119166   8.954   6.627   3.393
 5778SOL    HW219167   9.007   6.523   3.489
 5779SOL     OW19168  11.513   3.958   3.653
 5779SOL    HW119169  11.555   3.878   3.620
 5779SOL    HW219170  11.426   3.929   3.682
 5780SOL     OW19171   7.797   9.395  10.419
 5780SOL    HW119172   7.761   9.307  10.408
 5780SOL    HW219173   7.866   9.401  10.353
 5781SOL     OW19174   9.328  14.230   7.318
 5781SOL    HW119175   9.374  14.265   7.242
 5781SOL    HW219176   9.341  14.135   7.314
 5782SOL     OW19177   5.201   3.425   5.910
 5782SOL    HW119178   5.170   3.454   5.995
 5782SOL    HW219179   5.249   3.500   5.875
 5783SOL     OW19180   0.617   2.783   5.760
 5783SOL    HW119181   0.687   2.835   5.720
 5783SOL    HW219182   0.650   2.693   5.759
 5784SOL     OW19183   4.189   9.534   4.134
 5784SOL    HW119184   4.207   9.522   4.041
 5784SOL    HW219185   4.216   9.451   4.174
 5785SOL     OW19186   6.552   5.202   2.932
 5785SOL    HW119187   6.542   5.253   2.851
 5785SOL    HW219188   6.585   5.117   2.902
 5786SOL     OW19189  11.167  10.685   8.304
 5786SOL    HW119190  11.142  10.762   8.355
 5786SOL    HW219191  11.084  10.647   8.276
 5787SOL     OW19192   8.892   5.424   5.467
 5787SOL    HW119193   8.831   5.377   5.411
 5787SOL    HW219194   8.837   5.488   5.513
 5788SOL     OW19195  13.209   8.631   3.930
 5788SOL    HW119196  13.175   8.564   3.872
 5788SOL    HW219197  13.220   8.587   4.014
 5789SOL     OW19198   8.071  11.287   8.364
 5789SOL    HW119199   7.981  11.256   8.371
 5789SOL    HW219200   8.123  11.207   8.351
 5790SOL     OW19201  13.210  14.382  11.637
 5790SOL    HW119202  13.185  14.443  11.567
 5790SOL    HW219203  13.281  14.427  11.683
 5791SOL     OW19204  13.092   8.881  14.401
 5791SOL    HW119205  13.048   8.868  14.317
 5791SOL    HW219206  13.051   8.816  14.460
 5792SOL     OW19207   3.591   5.780   2.836
 5792SOL    HW119208   3.599   5.745   2.747
 5792SOL    HW219209   3.622   5.709   2.892
 5793SOL     OW19210  10.174   3.795   7.588
 5793SOL    HW119211  10.184   3.889   7.601
 5793SOL    HW219212  10.224   3.755   7.660
 5794SOL     OW19213  13.912  11.516   8.030
 5794SOL    HW119214  13.979  11.575   8.064
 5794SOL    HW219215  13.899  11.543   7.939
 5795SOL     OW19216   3.628  12.217   4.559
 5795SOL    HW119217   3.673  12.149   4.609
 5795SOL    HW219218   3.535  12.203   4.578
 5796SOL     OW19219  14.845   9.326   2.289
 5796SOL    HW119220  14.846   9.232   2.272
 5796SOL    HW219221  14.754   9.344   2.313
 5797SOL     OW19222  11.844   5.660  14.468
 5797SOL    HW119223  11.769   5.603  14.450
 5797SOL    HW219224  11.909   5.602  14.507
 5798SOL     OW19225   6.567   1.991   0.421
 5798SOL    HW119226   6.484   1.982   0.373
 5798SOL    HW219227   6.634   1.982   0.353
 5799SOL     OW19228   3.230   5.283   4.433
 5799SOL    HW119229   3.199   5.261   4.521
 5799SOL    HW219230   3.151   5.291   4.380
 5800SOL     OW19231   6.513   7.997   2.064
 5800SOL    HW119232   6.418   7.987   2.054
 5800SOL    HW219233   6.548   7.988   1.976
 5801SOL     OW19234   4.416  13.674   6.317
 5801SOL    HW119235   4.341  13.727   6.345
 5801SOL    HW219236   4.421  13.687   6.223
 5802SOL     OW19237   6.712  12.696   3.079
 5802SOL    HW119238   6.638  12.653   3.037
 5802SOL    HW219239   6.678  12.728   3.162
 5803SOL     OW19240  10.208   2.322  14.275
 5803SOL    HW119241  10.247   2.384  14.213
 5803SOL    HW219242  10.167   2.255  14.220
 5804SOL     OW19243   5.389   5.652   3.928
 5804SOL    HW119244   5.382   5.659   3.833
 5804SOL    HW219245   5.374   5.559   3.946
 5805SOL     OW19246   0.293   8.507   2.677
 5805SOL    HW119247   0.299   8.521   2.772
 5805SOL    HW219248   0.249   8.423   2.667
 5806SOL     OW19249   3.921   3.436  14.741
 5806SOL    HW119250   3.855   3.487  14.788
 5806SOL    HW219251   3.974   3.396  14.809
 5807SOL     OW19252   2.283  12.021   3.860
 5807SOL    HW119253   2.322  11.979   3.784
 5807SOL    HW219254   2.302  11.962   3.933
 5808SOL     OW19255  12.363   9.138   8.874
 5808SOL    HW119256  12.389   9.046   8.879
 5808SOL    HW219257  12.423   9.177   8.811
 5809SOL     OW19258   1.068   4.863   8.954
 5809SOL    HW119259   1.105   4.879   9.041
 5809SOL    HW219260   1.090   4.942   8.905
 5810SOL     OW19261  12.870   4.035   6.347
 5810SOL    HW119262  12.827   3.949   6.349
 5810SOL    HW219263  12.816   4.087   6.287
 5811SOL     OW19264   7.682   9.983   6.971
 5811SOL    HW119265   7.700  10.041   6.897
 5811SOL    HW219266   7.673  10.042   7.046
 5812SOL     OW19267   7.847   0.332  10.529
 5812SOL    HW119268   7.790   0.396  10.487
 5812SOL    HW219269   7.817   0.329  10.620
 5813SOL     OW19270   4.849   5.826   4.068
 5813SOL    HW119271   4.900   5.766   4.015
 5813SOL    HW219272   4.863   5.797   4.158
 5814SOL     OW19273  11.877  11.871   5.123
 5814SOL    HW119274  11.900  11.964   5.123
 5814SOL    HW219275  11.960  11.827   5.140
 5815SOL     OW19276  11.473   6.899  11.957
 5815SOL    HW119277  11.536   6.838  11.996
 5815SOL    HW219278  11.388   6.859  11.973
 5816SOL     OW19279   4.288  14.055   1.539
 5816SOL    HW119280   4.316  14.115   1.608
 5816SOL    HW219281   4.194  14.045   1.551
 5817SOL     OW19282   4.932  11.151  10.091
 5817SOL    HW119283   4.962  11.192  10.172
 5817SOL    HW219284   4.837  11.159  10.094
 5818SOL     OW19285   8.440   5.770  12.913
 5818SOL    HW119286   8.457   5.676  12.916
 5818SOL    HW219287   8.522   5.809  12.884
 5819SOL     OW19288  14.761  12.269   7.881
 5819SOL    HW119289  14.763  12.203   7.812
 5819SOL    HW219290  14.671  12.303   7.879
 5820SOL     OW19291   1.743   7.423   5.185
 5820SOL    HW119292   1.739   7.371   5.266
 5820SOL    HW219293   1.789   7.367   5.123
 5821SOL     OW19294   3.499   8.285   2.232
 5821SOL    HW119295   3.435   8.334   2.284
 5821SOL    HW219296   3.461   8.197   2.224
 5822SOL     OW19297   7.769   3.862   4.813
 5822SOL    HW119298   7.848   3.876   4.865
 5822SOL    HW219299   7.701   3.842   4.878
 5823SOL     OW19300   9.592   1.022   1.025
 5823SOL    HW119301   9.506   0.987   1.003
 5823SOL    HW219302   9.630   0.956   1.083
 5824SOL     OW19303   3.487  13.494   5.918
 5824SOL    HW119304   3.515  13.570   5.970
 5824SOL    HW219305   3.560  13.432   5.926
 5825SOL     OW19306   2.132   7.803  14.543
 5825SOL    HW119307   2.122   7.788  14.637
 5825SOL    HW219308   2.060   7.755  14.503
 5826SOL     OW19309  10.070   6.600   0.000
 5826SOL    HW119310  10.129   6.657   0.049
 5826SOL    HW219311  10.126   6.529  14.841
 5827SOL     OW19312   6.956   2.030   8.357
 5827SOL    HW119313   6.938   2.026   8.263
 5827SOL    HW219314   6.876   1.999   8.398
 5828SOL     OW19315   9.702   0.858   7.690
 5828SOL    HW119316   9.785   0.904   7.676
 5828SOL    HW219317   9.725   0.765   7.689
 5829SOL     OW19318  11.924   7.137  14.761
 5829SOL    HW119319  11.901   7.050  14.730
 5829SOL    HW219320  12.001   7.124  14.816
 5830SOL     OW19321  10.793   8.752   0.674
 5830SOL    HW119322  10.836   8.703   0.744
 5830SOL    HW219323  10.792   8.692   0.599
 5831SOL     OW19324   8.488  12.251  13.342
 5831SOL    HW119325   8.482  12.327  13.285
 5831SOL    HW219326   8.582  12.240  13.358
 5832SOL     OW19327  13.996   4.054  13.291
 5832SOL    HW119328  14.015   3.960  13.298
 5832SOL    HW219329  14.078   4.097  13.316
 5833SOL     OW19330   6.148   3.747   9.527
 5833SOL    HW119331   6.070   3.748   9.471
 5833SOL    HW219332   6.212   3.800   9.479
 5834SOL     OW19333  11.858   0.451   7.033
 5834SOL    HW119334  11.947   0.453   7.069
 5834SOL    HW219335  11.868   0.479   6.942
 5835SOL     OW19336  14.869   1.785   2.978
 5835SOL    HW119337   0.051   1.734   2.918
 5835SOL    HW219338  14.779   1.760   2.956
 5836SOL     OW19339   9.633   5.295  13.791
 5836SOL    HW119340   9.636   5.234  13.865
 5836SOL    HW219341   9.717   5.281  13.746
 5837SOL     OW19342  12.201   4.282   1.544
 5837SOL    HW119343  12.243   4.228   1.611
 5837SOL    HW219344  12.114   4.300   1.579
 5838SOL     OW19345   8.961   5.747   9.408
 5838SOL    HW119346   9.032   5.697   9.367
 5838SOL    HW219347   8.984   5.749   9.501
 5839SOL     OW19348  14.139   5.819  14.130
 5839SOL    HW119349  14.137   5.871  14.050
 5839SOL    HW219350  14.055   5.773  14.131
 5840SOL     OW19351   9.721   9.544  12.506
 5840SOL    HW119352   9.647   9.485  12.491
 5840SOL    HW219353   9.798   9.491  12.489
 5841SOL     OW19354   0.264   6.514   2.373
 5841SOL    HW119355   0.191   6.572   2.356
 5841SOL    HW219356   0.339   6.556   2.331
 5842SOL     OW19357  11.056   6.899   0.997
 5842SOL    HW119358  11.097   6.910   0.911
 5842SOL    HW219359  10.965   6.924   0.984
 5843SOL     OW19360   6.581   4.148   8.384
 5843SOL    HW119361   6.597   4.207   8.458
 5843SOL    HW219362   6.664   4.102   8.372
 5844SOL     OW19363   3.186   6.461   7.142
 5844SOL    HW119364   3.146   6.484   7.058
 5844SOL    HW219365   3.176   6.541   7.195
 5845SOL     OW19366   9.641   5.325   3.745
 5845SOL    HW119367   9.628   5.419   3.761
 5845SOL    HW219368   9.596   5.282   3.818
 5846SOL     OW19369   4.274   6.837  10.291
 5846SOL    HW119370   4.275   6.741  10.291
 5846SOL    HW219371   4.332   6.861  10.218
 5847SOL     OW19372   0.582   7.818   3.000
 5847SOL    HW119373   0.649   7.800   2.933
 5847SOL    HW219374   0.630   7.817   3.082
 5848SOL     OW19375   8.059   9.395   0.507
 5848SOL    HW119376   8.097   9.335   0.571
 5848SOL    HW219377   8.124   9.464   0.498
 5849SOL     OW19378  10.704   8.251  12.379
 5849SOL    HW119379  10.730   8.163  12.351
 5849SOL    HW219380  10.735   8.258  12.469
 5850SOL     OW19381  11.665   6.053   4.898
 5850SOL    HW119382  11.747   6.017   4.864
 5850SOL    HW219383  11.599   5.986   4.879
 5851SOL     OW19384   7.172   6.387   7.173
 5851SOL    HW119385   7.246   6.380   7.234
 5851SOL    HW219386   7.110   6.445   7.217
 5852SOL     OW19387  12.531   8.637   0.820
 5852SOL    HW119388  12.501   8.576   0.754
 5852SOL    HW219389  12.626   8.632   0.818
 5853SOL     OW19390  11.567  10.162   0.620
 5853SOL    HW119391  11.605  10.238   0.665
 5853SOL    HW219392  11.612  10.087   0.658
 5854SOL     OW19393   3.502   2.340  12.085
 5854SOL    HW119394   3.517   2.329  12.179
 5854SOL    HW219395   3.473   2.431  12.076
 5855SOL     OW19396   4.395   1.399  14.769
 5855SOL    HW119397   4.372   1.464  14.702
 5855SOL    HW219398   4.313   1.383  14.816
 5856SOL     OW19399   7.921   8.267   5.483
 5856SOL    HW119400   7.976   8.219   5.422
 5856SOL    HW219401   7.868   8.200   5.526
 5857SOL     OW19402   7.717   0.635   6.410
 5857SOL    HW119403   7.720   0.598   6.322
 5857SOL    HW219404   7.785   0.703   6.410
 5858SOL     OW19405   3.966   3.674   7.813
 5858SOL    HW119406   4.036   3.731   7.843
 5858SOL    HW219407   4.000   3.633   7.733
 5859SOL     OW19408   9.159  10.070   2.992
 5859SOL    HW119409   9.199  10.074   2.906
 5859SOL    HW219410   9.228  10.038   3.050
 5860SOL     OW19411  11.044   3.036   7.832
 5860SOL    HW119412  11.097   2.985   7.893
 5860SOL    HW219413  10.954   3.022   7.862
 5861SOL     OW19414   7.144   2.913   1.739
 5861SOL    HW119415   7.204   2.858   1.690
 5861SOL    HW219416   7.086   2.852   1.784
 5862SOL     OW19417   7.347   4.512  12.137
 5862SOL    HW119418   7.327   4.423  12.106
 5862SOL    HW219419   7.315   4.570  12.068
 5863SOL     OW19420   2.032   3.977   9.268
 5863SOL    HW119421   1.939   3.972   9.245
 5863SOL    HW219422   2.063   4.056   9.223
 5864SOL     OW19423   3.207  11.614   6.420
 5864SOL    HW119424   3.165  11.533   6.449
 5864SOL    HW219425   3.221  11.601   6.326
 5865SOL     OW19426   4.408   6.265   9.292
 5865SOL    HW119427   4.351   6.289   9.365
 5865SOL    HW219428   4.358   6.199   9.244
 5866SOL     OW19429   8.646   4.688  13.972
 5866SOL    HW119430   8.661   4.631  14.048
 5866SOL    HW219431   8.718   4.667  13.912
 5867SOL     OW19432   2.721  11.419   4.363
 5867SOL    HW119433   2.748  11.339   4.319
 5867SOL    HW219434   2.798  11.447   4.413
 5868SOL     OW19435  13.017  14.747   8.358
 5868SOL    HW119436  12.944  14.719   8.413
 5868SOL    HW219437  12.978  14.770   8.274
 5869SOL     OW19438  10.481   1.742  11.169
 5869SOL    HW119439  10.393   1.713  11.189
 5869SOL    HW219440  10.506   1.693  11.091
 5870SOL     OW19441  14.859   0.812  14.781
 5870SOL    HW119442  14.832   0.730  14.822
 5870SOL    HW219443  14.826   0.806  14.691
 5871SOL     OW19444   4.851   2.512   0.938
 5871SOL    HW119445   4.799   2.490   1.015
 5871SOL    HW219446   4.846   2.435   0.882
 5872SOL     OW19447   1.923   9.648   4.482
 5872SOL    HW119448   1.872   9.726   4.462
 5872SOL    HW219449   1.886   9.615   4.564
 5873SOL     OW19450  12.196  12.021  14.060
 5873SOL    HW119451  12.136  11.964  14.108
 5873SOL    HW219452  12.237  12.075  14.127
 5874SOL     OW19453  12.257  12.228   4.055
 5874SOL    HW119454  12.322  12.183   4.002
 5874SOL    HW219455  12.296  12.234   4.143
 5875SOL     OW19456   7.011   9.092   3.781
 5875SOL    HW119457   7.088   9.096   3.723
 5875SOL    HW219458   6.975   9.181   3.779
 5876SOL     OW19459   4.660  13.774  13.001
 5876SOL    HW119460   4.703  13.779  13.087
 5876SOL    HW219461   4.620  13.860  12.990
 5877SOL     OW19462   9.082   4.793   1.274
 5877SOL    HW119463   9.167   4.815   1.235
 5877SOL    HW219464   9.036   4.744   1.206
 5878SOL     OW19465  10.252  12.795   7.359
 5878SOL    HW119466  10.330  12.796   7.303
 5878SOL    HW219467  10.232  12.703   7.372
 5879SOL     OW19468   1.101   8.725  14.185
 5879SOL    HW119469   1.156   8.662  14.137
 5879SOL    HW219470   1.106   8.805  14.133
 5880SOL     OW19471   2.641   3.340  11.637
 5880SOL    HW119472   2.546   3.348  11.629
 5880SOL    HW219473   2.676   3.391  11.564
 5881SOL     OW19474  10.331   8.954  13.735
 5881SOL    HW119475  10.275   9.025  13.765
 5881SOL    HW219476  10.408   8.998  13.698
 5882SOL     OW19477   8.948   6.543  14.496
 5882SOL    HW119478   9.035   6.516  14.525
 5882SOL    HW219479   8.889   6.509  14.564
 5883SOL     OW19480  11.714  12.152   5.801
 5883SOL    HW119481  11.703  12.071   5.850
 5883SOL    HW219482  11.625  12.185   5.790
 5884SOL     OW19483   8.567  12.989   9.426
 5884SOL    HW119484   8.517  13.069   9.436
 5884SOL    HW219485   8.614  12.978   9.509
 5885SOL     OW19486  10.551  10.573   7.265
 5885SOL    HW119487  10.544  10.665   7.291
 5885SOL    HW219488  10.620  10.573   7.198
 5886SOL     OW19489   5.049   5.833   6.726
 5886SOL    HW119490   5.070   5.741   6.709
 5886SOL    HW219491   4.984   5.855   6.659
 5887SOL     OW19492  11.620   4.611   4.093
 5887SOL    HW119493  11.630   4.616   3.998
 5887SOL    HW219494  11.645   4.521   4.116
 5888SOL     OW19495   0.022  12.499   6.801
 5888SOL    HW119496   0.047  12.459   6.884
 5888SOL    HW219497   0.070  12.449   6.735
 5889SOL     OW19498   4.217   6.115  12.954
 5889SOL    HW119499   4.224   6.132  12.860
 5889SOL    HW219500   4.267   6.186  12.995
 5890SOL     OW19501  10.580   8.666   2.281
 5890SOL    HW119502  10.494   8.626   2.266
 5890SOL    HW219503  10.572   8.707   2.367
 5891SOL     OW19504  13.378   7.513   2.954
 5891SOL    HW119505  13.303   7.461   2.926
 5891SOL    HW219506  13.340   7.597   2.982
 5892SOL     OW19507   9.697  12.230   0.598
 5892SOL    HW119508   9.650  12.305   0.635
 5892SOL    HW219509   9.732  12.183   0.674
 5893SOL     OW19510  13.411   1.611   4.025
 5893SOL    HW119511  13.412   1.583   3.934
 5893SOL    HW219512  13.502   1.601   4.054
 5894SOL     OW19513   0.363   3.489   1.868
 5894SOL    HW119514   0.345   3.408   1.820
 5894SOL    HW219515   0.454   3.510   1.846
 5895SOL     OW19516  12.621   5.741  11.412
 5895SOL    HW119517  12.634   5.831  11.443
 5895SOL    HW219518  12.530   5.737  11.384
 5896SOL     OW19519   8.038   6.896   8.480
 5896SOL    HW119520   8.016   6.840   8.555
 5896SOL    HW219521   8.065   6.979   8.520
 5897SOL     OW19522  13.158   9.372   1.283
 5897SOL    HW119523  13.167   9.439   1.350
 5897SOL    HW219524  13.221   9.396   1.215
 5898SOL     OW19525   9.886   2.544  13.692
 5898SOL    HW119526   9.856   2.454  13.678
 5898SOL    HW219527   9.808   2.591  13.720
 5899SOL     OW19528  13.594  14.372   4.297
 5899SOL    HW119529  13.556  14.451   4.335
 5899SOL    HW219530  13.686  14.374   4.324
 5900SOL     OW19531  11.674   8.380   1.233
 5900SOL    HW119532  11.586   8.341   1.235
 5900SOL    HW219533  11.659   8.473   1.248
 5901SOL     OW19534   0.271  13.376   0.732
 5901SOL    HW119535   0.206  13.382   0.663
 5901SOL    HW219536   0.253  13.451   0.789
 5902SOL     OW19537   4.681   1.204   7.496
 5902SOL    HW119538   4.680   1.127   7.553
 5902SOL    HW219539   4.700   1.277   7.554
 5903SOL     OW19540   1.380   7.948   4.665
 5903SOL    HW119541   1.442   7.900   4.719
 5903SOL    HW219542   1.387   8.039   4.695
 5904SOL     OW19543  12.211   0.515   6.292
 5904SOL    HW119544  12.172   0.530   6.206
 5904SOL    HW219545  12.149   0.553   6.354
 5905SOL     OW19546  13.045  13.860   5.943
 5905SOL    HW119547  13.085  13.845   6.029
 5905SOL    HW219548  13.076  13.787   5.889
 5906SOL     OW19549  13.951   4.387   2.412
 5906SOL    HW119550  13.858   4.411   2.420
 5906SOL    HW219551  13.966   4.324   2.483
 5907SOL     OW19552   7.178   7.726   4.077
 5907SOL    HW119553   7.103   7.743   4.134
 5907SOL    HW219554   7.142   7.727   3.989
 5908SOL     OW19555   5.800  11.311   3.421
 5908SOL    HW119556   5.895  11.302   3.417
 5908SOL    HW219557   5.781  11.332   3.512
 5909SOL     OW19558  10.746  14.679   7.812
 5909SOL    HW119559  10.744  14.765   7.854
 5909SOL    HW219560  10.775  14.620   7.881
 5910SOL     OW19561   9.658  14.461   7.590
 5910SOL    HW119562   9.710  14.390   7.627
 5910SOL    HW219563   9.683  14.463   7.498
 5911SOL     OW19564  11.689   9.542  11.471
 5911SOL    HW119565  11.614   9.547  11.413
 5911SOL    HW219566  11.739   9.467  11.440
 5912SOL     OW19567   1.568   6.623   7.950
 5912SOL    HW119568   1.575   6.713   7.918
 5912SOL    HW219569   1.648   6.580   7.919
 5913SOL     OW19570   0.877   3.606   0.080
 5913SOL    HW119571   0.895   3.589  14.860
 5913SOL    HW219572   0.798   3.661   0.078
 5914SOL     OW19573   8.638   5.692   9.938
 5914SOL    HW119574   8.698   5.745   9.991
 5914SOL    HW219575   8.661   5.713   9.847
 5915SOL     OW19576   4.410   4.848   8.451
 5915SOL    HW119577   4.319   4.826   8.467
 5915SOL    HW219578   4.425   4.823   8.359
 5916SOL     OW19579   9.776  12.067  10.951
 5916SOL    HW119580   9.787  12.089  10.858
 5916SOL    HW219581   9.863  12.044  10.981
 5917SOL     OW19582   9.406   3.458   7.514
 5917SOL    HW119583   9.374   3.385   7.566
 5917SOL    HW219584   9.447   3.417   7.438
 5918SOL     OW19585   3.273   0.185  11.126
 5918SOL    HW119586   3.313   0.209  11.210
 5918SOL    HW219587   3.341   0.204  11.061
 5919SOL     OW19588   9.220  14.452   6.299
 5919SOL    HW119589   9.197  14.405   6.379
 5919SOL    HW219590   9.278  14.393   6.252
 5920SOL     OW19591   1.725   2.665   0.976
 5920SOL    HW119592   1.745   2.671   1.070
 5920SOL    HW219593   1.644   2.716   0.965
 5921SOL     OW19594   0.048  11.115   4.393
 5921SOL    HW119595   0.100  11.195   4.407
 5921SOL    HW219596   0.090  11.072   4.318
 5922SOL     OW19597  13.670   8.918   3.704
 5922SOL    HW119598  13.668   8.855   3.631
 5922SOL    HW219599  13.597   8.977   3.686
 5923SOL     OW19600   8.151   2.960  14.229
 5923SOL    HW119601   8.183   2.953  14.319
 5923SOL    HW219602   8.158   2.871  14.194
 5924SOL     OW19603  11.721   2.381   4.827
 5924SOL    HW119604  11.803   2.345   4.794
 5924SOL    HW219605  11.724   2.474   4.804
 5925SOL     OW19606   7.419   7.088   5.165
 5925SOL    HW119607   7.359   7.137   5.221
 5925SOL    HW219608   7.363   7.053   5.096
 5926SOL     OW19609   3.635   7.627   4.445
 5926SOL    HW119610   3.576   7.687   4.490
 5926SOL    HW219611   3.656   7.671   4.363
 5927SOL     OW19612   8.231  12.759  12.538
 5927SOL    HW119613   8.305  12.800  12.493
 5927SOL    HW219614   8.158  12.770  12.477
 5928SOL     OW19615  13.862   5.057   5.024
 5928SOL    HW119616  13.938   5.015   4.985
 5928SOL    HW219617  13.790   4.997   5.005
 5929SOL     OW19618  10.324   3.147  12.042
 5929SOL    HW119619  10.302   3.064  12.084
 5929SOL    HW219620  10.413   3.135  12.010
 5930SOL     OW19621   1.261   9.884   4.471
 5930SOL    HW119622   1.253   9.930   4.387
 5930SOL    HW219623   1.278   9.793   4.446
 5931SOL     OW19624   8.302   6.733  14.489
 5931SOL    HW119625   8.312   6.828  14.481
 5931SOL    HW219626   8.244   6.721  14.564
 5932SOL     OW19627   4.990   2.266   4.858
 5932SOL    HW119628   4.976   2.178   4.823
 5932SOL    HW219629   4.918   2.317   4.823
 5933SOL     OW19630  14.117   8.975  10.200
 5933SOL    HW119631  14.025   9.002  10.211
 5933SOL    HW219632  14.167   9.053  10.225
 5934SOL     OW19633  14.207  14.192   0.442
 5934SOL    HW119634  14.266  14.257   0.479
 5934SOL    HW219635  14.190  14.131   0.515
 5935SOL     OW19636  13.967  13.074   8.826
 5935SOL    HW119637  14.002  12.987   8.846
 5935SOL    HW219638  13.952  13.072   8.732
 5936SOL     OW19639  12.330  13.162   7.073
 5936SOL    HW119640  12.284  13.160   6.989
 5936SOL    HW219641  12.420  13.137   7.052
 5937SOL     OW19642   5.694   7.328   0.496
 5937SOL    HW119643   5.620   7.269   0.480
 5937SOL    HW219644   5.746   7.282   0.562
 5938SOL     OW19645  10.186  10.117   0.609
 5938SOL    HW119646  10.182  10.209   0.584
 5938SOL    HW219647  10.102  10.081   0.581
 5939SOL     OW19648   0.025   6.876  11.111
 5939SOL    HW119649  14.837   6.865  11.185
 5939SOL    HW219650   0.010   6.799  11.057
 5940SOL     OW19651   4.181  10.652  13.249
 5940SOL    HW119652   4.171  10.689  13.337
 5940SOL    HW219653   4.208  10.725  13.195
 5941SOL     OW19654   3.404   1.830  12.930
 5941SOL    HW119655   3.376   1.799  13.016
 5941SOL    HW219656   3.429   1.750  12.883
 5942SOL     OW19657   8.952   3.969   0.731
 5942SOL    HW119658   9.025   3.970   0.668
 5942SOL    HW219659   8.973   3.898   0.791
 5943SOL     OW19660   3.223  13.985   0.535
 5943SOL    HW119661   3.301  14.011   0.486
 5943SOL    HW219662   3.162  14.058   0.524
 5944SOL     OW19663  11.465   5.468   6.347
 5944SOL    HW119664  11.421   5.386   6.367
 5944SOL    HW219665  11.545   5.442   6.301
 5945SOL     OW19666  10.137   6.422   6.717
 5945SOL    HW119667  10.170   6.342   6.676
 5945SOL    HW219668  10.125   6.399   6.809
 5946SOL     OW19669   0.409   9.639   3.262
 5946SOL    HW119670   0.415   9.675   3.174
 5946SOL    HW219671   0.319   9.606   3.268
 5947SOL     OW19672   3.038   3.048   3.609
 5947SOL    HW119673   3.064   2.958   3.590
 5947SOL    HW219674   3.110   3.101   3.574
 5948SOL     OW19675   3.053  14.570   5.662
 5948SOL    HW119676   3.065  14.508   5.734
 5948SOL    HW219677   3.048  14.515   5.584
 5949SOL     OW19678   3.882   6.680   4.516
 5949SOL    HW119679   3.963   6.693   4.465
 5949SOL    HW219680   3.889   6.742   4.588
 5950SOL     OW19681  10.990  11.381   7.956
 5950SOL    HW119682  10.978  11.302   7.903
 5950SOL    HW219683  11.082  11.379   7.981
 5951SOL     OW19684   5.212   7.977  13.713
 5951SOL    HW119685   5.170   7.929  13.642
 5951SOL    HW219686   5.265   8.043  13.668
 5952SOL     OW19687   1.131  11.496  10.411
 5952SOL    HW119688   1.092  11.541  10.336
 5952SOL    HW219689   1.135  11.563  10.480
 5953SOL     OW19690   4.207   3.736   4.220
 5953SOL    HW119691   4.177   3.647   4.203
 5953SOL    HW219692   4.230   3.771   4.134
 5954SOL     OW19693  11.901  12.722   8.046
 5954SOL    HW119694  11.911  12.722   8.142
 5954SOL    HW219695  11.989  12.708   8.013
 5955SOL     OW19696   1.956  11.633   1.554
 5955SOL    HW119697   2.019  11.587   1.499
 5955SOL    HW219698   1.891  11.667   1.492
 5956SOL     OW19699   1.167   3.096   1.932
 5956SOL    HW119700   1.239   3.155   1.910
 5956SOL    HW219701   1.210   3.018   1.967
 5957SOL     OW19702   2.607   0.614   2.552
 5957SOL    HW119703   2.659   0.563   2.613
 5957SOL    HW219704   2.671   0.656   2.494
 5958SOL     OW19705   2.033  11.407   9.277
 5958SOL    HW119706   2.114  11.407   9.226
 5958SOL    HW219707   2.057  11.444   9.361
 5959SOL     OW19708   9.568   2.054   1.412
 5959SOL    HW119709   9.620   2.098   1.479
 5959SOL    HW219710   9.600   2.090   1.329
 5960SOL     OW19711   3.852  12.663   0.837
 5960SOL    HW119712   3.941  12.686   0.865
 5960SOL    HW219713   3.848  12.568   0.846
 5961SOL     OW19714  14.006  13.115  10.599
 5961SOL    HW119715  14.055  13.195  10.584
 5961SOL    HW219716  13.925  13.143  10.642
 5962SOL     OW19717  14.769  14.547  11.703
 5962SOL    HW119718  14.849  14.506  11.738
 5962SOL    HW219719  14.788  14.562  11.611
 5963SOL     OW19720   8.992   8.150  14.400
 5963SOL    HW119721   8.902   8.168  14.372
 5963SOL    HW219722   9.017   8.072  14.350
 5964SOL     OW19723   2.326   4.729  12.216
 5964SOL    HW119724   2.413   4.703  12.247
 5964SOL    HW219725   2.284   4.769  12.292
 5965SOL     OW19726  14.259   7.501  12.266
 5965SOL    HW119727  14.189   7.498  12.331
 5965SOL    HW219728  14.290   7.592  12.267
 5966SOL     OW19729   4.037   5.490   1.831
 5966SOL    HW119730   4.054   5.545   1.908
 5966SOL    HW219731   4.045   5.549   1.756
 5967SOL     OW19732  12.885   9.383   4.607
 5967SOL    HW119733  12.896   9.290   4.624
 5967SOL    HW219734  12.930   9.427   4.679
 5968SOL     OW19735  10.781   1.844   7.284
 5968SOL    HW119736  10.870   1.877   7.296
 5968SOL    HW219737  10.752   1.822   7.373
 5969SOL     OW19738   3.692   3.286   8.403
 5969SOL    HW119739   3.659   3.315   8.488
 5969SOL    HW219740   3.619   3.301   8.343
 5970SOL     OW19741   1.324   4.111   4.812
 5970SOL    HW119742   1.238   4.114   4.769
 5970SOL    HW219743   1.359   4.200   4.803
 5971SOL     OW19744   2.899  11.941   3.558
 5971SOL    HW119745   2.856  11.872   3.507
 5971SOL    HW219746   2.829  12.002   3.580
 5972SOL     OW19747  11.435   5.240   1.761
 5972SOL    HW119748  11.496   5.257   1.833
 5972SOL    HW219749  11.463   5.299   1.691
 5973SOL     OW19750   1.892   0.865   4.504
 5973SOL    HW119751   1.915   0.943   4.554
 5973SOL    HW219752   1.946   0.795   4.541
 5974SOL     OW19753   7.900   6.099   9.864
 5974SOL    HW119754   7.925   6.141   9.782
 5974SOL    HW219755   7.977   6.049   9.889
 5975SOL     OW19756  12.747   4.977  11.454
 5975SOL    HW119757  12.680   4.929  11.503
 5975SOL    HW219758  12.698   5.037  11.398
 5976SOL     OW19759  11.156   8.875   7.363
 5976SOL    HW119760  11.166   8.795   7.311
 5976SOL    HW219761  11.119   8.845   7.446
 5977SOL     OW19762  11.276  12.887   2.987
 5977SOL    HW119763  11.300  12.855   2.900
 5977SOL    HW219764  11.283  12.983   2.980
 5978SOL     OW19765   6.973   7.007  10.531
 5978SOL    HW119766   6.887   7.007  10.572
 5978SOL    HW219767   6.955   6.990  10.438
 5979SOL     OW19768   0.170  14.797  11.782
 5979SOL    HW119769   0.098  14.808  11.844
 5979SOL    HW219770   0.229  14.870  11.801
 5980SOL     OW19771  13.434  10.781  14.654
 5980SOL    HW119772  13.350  10.789  14.700
 5980SOL    HW219773  13.457  10.688  14.664
 5981SOL     OW19774   4.964   8.056   7.866
 5981SOL    HW119775   4.920   7.975   7.841
 5981SOL    HW219776   5.052   8.029   7.892
 5982SOL     OW19777   0.855   4.075   1.716
 5982SOL    HW119778   0.862   3.986   1.751
 5982SOL    HW219779   0.797   4.067   1.640
 5983SOL     OW19780   0.235  13.514   2.258
 5983SOL    HW119781   0.242  13.606   2.233
 5983SOL    HW219782   0.324  13.480   2.250
 5984SOL     OW19783  11.054   8.295   4.981
 5984SOL    HW119784  11.091   8.383   4.994
 5984SOL    HW219785  11.083   8.245   5.057
 5985SOL     OW19786  11.239  10.381   2.317
 5985SOL    HW119787  11.183  10.458   2.306
 5985SOL    HW219788  11.296  10.404   2.390
 5986SOL     OW19789   7.506  11.841  13.241
 5986SOL    HW119790   7.425  11.839  13.190
 5986SOL    HW219791   7.506  11.926  13.284
 5987SOL     OW19792  12.236   5.551  11.166
 5987SOL    HW119793  12.185   5.584  11.241
 5987SOL    HW219794  12.246   5.627  11.109
 5988SOL     OW19795  13.625   1.596   1.949
 5988SOL    HW119796  13.632   1.557   1.861
 5988SOL    HW219797  13.551   1.656   1.942
 5989SOL     OW19798   2.538  10.947   1.417
 5989SOL    HW119799   2.488  10.871   1.387
 5989SOL    HW219800   2.610  10.954   1.355
 5990SOL     OW19801   9.263   4.397   7.853
 5990SOL    HW119802   9.183   4.448   7.858
 5990SOL    HW219803   9.333   4.462   7.843
 5991SOL     OW19804   0.311   8.629   0.217
 5991SOL    HW119805   0.263   8.571   0.157
 5991SOL    HW219806   0.375   8.572   0.259
 5992SOL     OW19807   8.722  11.050   7.783
 5992SOL    HW119808   8.754  11.120   7.726
 5992SOL    HW219809   8.656  11.092   7.838
 5993SOL     OW19810   4.852   5.091   3.726
 5993SOL    HW119811   4.845   5.141   3.644
 5993SOL    HW219812   4.812   5.007   3.705
 5994SOL     OW19813   5.321  10.675   4.567
 5994SOL    HW119814   5.231  10.687   4.538
 5994SOL    HW219815   5.358  10.764   4.567
 5995SOL     OW19816   6.768   0.070   3.827
 5995SOL    HW119817   6.852   0.027   3.813
 5995SOL    HW219818   6.788   0.164   3.827
 5996SOL     OW19819   6.434  14.468   1.795
 5996SOL    HW119820   6.487  14.503   1.866
 5996SOL    HW219821   6.360  14.528   1.788
 5997SOL     OW19822   2.341   6.004  12.517
 5997SOL    HW119823   2.417   5.953  12.544
 5997SOL    HW219824   2.347   6.009  12.422
 5998SOL     OW19825   4.097   1.863   9.839
 5998SOL    HW119826   4.188   1.892   9.834
 5998SOL    HW219827   4.058   1.891   9.756
 5999SOL     OW19828   0.345   7.149  10.592
 5999SOL    HW119829   0.341   7.245  10.587
 5999SOL    HW219830   0.304   7.127  10.675
 6000SOL     OW19831   1.519   2.889  10.777
 6000SOL    HW119832   1.529   2.889  10.872
 6000SOL    HW219833   1.442   2.835  10.761
 6001SOL     OW19834   8.834  13.292   7.725
 6001SOL    HW119835   8.767  13.254   7.782
 6001SOL    HW219836   8.809  13.266   7.637
 6002SOL     OW19837   9.734  11.289   8.287
 6002SOL    HW119838   9.792  11.357   8.321
 6002SOL    HW219839   9.776  11.207   8.312
 6003SOL     OW19840  13.306   1.652   4.604
 6003SOL    HW119841  13.383   1.596   4.613
 6003SOL    HW219842  13.336   1.738   4.633
 6004SOL     OW19843  10.198  10.531   3.346
 6004SOL    HW119844  10.291  10.526   3.322
 6004SOL    HW219845  10.197  10.527   3.441
 6005SOL     OW19846   2.131  13.578   3.384
 6005SOL    HW119847   2.084  13.520   3.444
 6005SOL    HW219848   2.134  13.663   3.428
 6006SOL     OW19849  11.559   8.319   6.244
 6006SOL    HW119850  11.547   8.309   6.149
 6006SOL    HW219851  11.652   8.338   6.254
 6007SOL     OW19852   4.123   0.131  12.572
 6007SOL    HW119853   4.038   0.172  12.587
 6007SOL    HW219854   4.103   0.039  12.556
 6008SOL     OW19855   0.320   7.812  10.247
 6008SOL    HW119856   0.388   7.878  10.240
 6008SOL    HW219857   0.279   7.827  10.332
 6009SOL     OW19858   3.327   4.550   0.763
 6009SOL    HW119859   3.390   4.481   0.741
 6009SOL    HW219860   3.341   4.618   0.698
 6010SOL     OW19861  10.647  10.946  12.098
 6010SOL    HW119862  10.614  10.965  12.187
 6010SOL    HW219863  10.691  10.862  12.107
 6011SOL     OW19864  12.650   0.464   9.076
 6011SOL    HW119865  12.736   0.421   9.076
 6011SOL    HW219866  12.623   0.463   9.168
 6012SOL     OW19867   5.383   2.968   9.482
 6012SOL    HW119868   5.445   2.944   9.551
 6012SOL    HW219869   5.300   2.983   9.528
 6013SOL     OW19870   4.423  10.067   8.386
 6013SOL    HW119871   4.417  10.015   8.466
 6013SOL    HW219872   4.390  10.009   8.318
 6014SOL     OW19873  13.285   9.034  13.143
 6014SOL    HW119874  13.364   9.060  13.095
 6014SOL    HW219875  13.273   8.941  13.122
 6015SOL     OW19876  14.234   8.222   3.294
 6015SOL    HW119877  14.256   8.130   3.301
 6015SOL    HW219878  14.315   8.268   3.313
 6016SOL     OW19879   7.895   3.740   2.686
 6016SOL    HW119880   7.831   3.693   2.739
 6016SOL    HW219881   7.869   3.832   2.692
 6017SOL     OW19882   1.532   1.810  11.793
 6017SOL    HW119883   1.588   1.879  11.756
 6017SOL    HW219884   1.456   1.808  11.736
 6018SOL     OW19885   5.475   5.757  11.328
 6018SOL    HW119886   5.565   5.786  11.345
 6018SOL    HW219887   5.427   5.838  11.310
 6019SOL     OW19888  11.782   2.223  14.182
 6019SOL    HW119889  11.794   2.235  14.088
 6019SOL    HW219890  11.870   2.231  14.219
 6020SOL     OW19891   0.043  11.360   7.477
 6020SOL    HW119892   0.117  11.420   7.484
 6020SOL    HW219893   0.015  11.344   7.567
 6021SOL     OW19894   2.684  13.793   7.187
 6021SOL    HW119895   2.752  13.852   7.222
 6021SOL    HW219896   2.712  13.775   7.097
 6022SOL     OW19897   5.721   3.032  10.257
 6022SOL    HW119898   5.693   3.050  10.347
 6022SOL    HW219899   5.817   3.032  10.261
 6023SOL     OW19900   5.592   5.914   1.692
 6023SOL    HW119901   5.563   5.956   1.610
 6023SOL    HW219902   5.681   5.945   1.704
 6024SOL     OW19903   5.285  10.976   7.093
 6024SOL    HW119904   5.285  10.980   7.189
 6024SOL    HW219905   5.377  10.969   7.069
 6025SOL     OW19906   1.189  10.443   4.358
 6025SOL    HW119907   1.145  10.359   4.353
 6025SOL    HW219908   1.282  10.423   4.352
 6026SOL     OW19909   0.542  14.199   5.735
 6026SOL    HW119910   0.499  14.131   5.683
 6026SOL    HW219911   0.489  14.206   5.814
 6027SOL     OW19912  11.638   3.404   1.078
 6027SOL    HW119913  11.550   3.389   1.044
 6027SOL    HW219914  11.667   3.318   1.111
 6028SOL     OW19915   4.443  11.502   9.605
 6028SOL    HW119916   4.428  11.409   9.622
 6028SOL    HW219917   4.507  11.503   9.534
 6029SOL     OW19918   2.954   3.939   5.791
 6029SOL    HW119919   2.916   3.913   5.875
 6029SOL    HW219920   2.999   4.021   5.808
 6030SOL     OW19921  13.212   6.582   5.234
 6030SOL    HW119922  13.138   6.523   5.251
 6030SOL    HW219923  13.285   6.523   5.215
 6031SOL     OW19924  14.630   1.061   5.486
 6031SOL    HW119925  14.667   1.114   5.557
 6031SOL    HW219926  14.537   1.051   5.510
 6032SOL     OW19927   6.012   4.925  12.409
 6032SOL    HW119928   5.976   4.971  12.485
 6032SOL    HW219929   6.105   4.913  12.430
 6033SOL     OW19930  11.265  14.104   1.959
 6033SOL    HW119931  11.327  14.109   2.031
 6033SOL    HW219932  11.247  14.010   1.949
 6034SOL     OW19933   9.508   4.628  14.321
 6034SOL    HW119934   9.436   4.649  14.380
 6034SOL    HW219935   9.568   4.576  14.374
 6035SOL     OW19936   4.689   4.890   4.486
 6035SOL    HW119937   4.680   4.795   4.491
 6035SOL    HW219938   4.607   4.920   4.445
 6036SOL     OW19939   3.828  13.540   3.109
 6036SOL    HW119940   3.772  13.509   3.179
 6036SOL    HW219941   3.770  13.587   3.050
 6037SOL     OW19942  12.881   9.205   4.916
 6037SOL    HW119943  12.811   9.269   4.932
 6037SOL    HW219944  12.856   9.162   4.834
 6038SOL     OW19945  14.305   4.329   9.421
 6038SOL    HW119946  14.274   4.402   9.475
 6038SOL    HW219947  14.339   4.266   9.483
 6039SOL     OW19948  14.670  11.289   3.707
 6039SOL    HW119949  14.585  11.285   3.751
 6039SOL    HW219950  14.657  11.348   3.633
 6040SOL     OW19951   1.881  14.076   3.783
 6040SOL    HW119952   1.936  14.101   3.709
 6040SOL    HW219953   1.930  14.106   3.860
 6041SOL     OW19954  12.696   7.736  11.736
 6041SOL    HW119955  12.691   7.742  11.831
 6041SOL    HW219956  12.615   7.778  11.705
 6042SOL     OW19957  10.745   9.071   5.576
 6042SOL    HW119958  10.711   8.992   5.534
 6042SOL    HW219959  10.691   9.083   5.654
 6043SOL     OW19960  14.463   3.350   7.046
 6043SOL    HW119961  14.408   3.282   7.085
 6043SOL    HW219962  14.486   3.316   6.960
 6044SOL     OW19963   6.111  11.465   0.822
 6044SOL    HW119964   6.098  11.376   0.854
 6044SOL    HW219965   6.206  11.474   0.813
 6045SOL     OW19966   2.705   5.139   6.251
 6045SOL    HW119967   2.778   5.111   6.306
 6045SOL    HW219968   2.719   5.233   6.238
 6046SOL     OW19969   8.075   5.940   5.456
 6046SOL    HW119970   8.144   5.989   5.502
 6046SOL    HW219971   8.012   5.918   5.524
 6047SOL     OW19972  11.528   6.662   2.085
 6047SOL    HW119973  11.556   6.578   2.121
 6047SOL    HW219974  11.578   6.671   2.003
 6048SOL     OW19975   7.010   0.663   0.068
 6048SOL    HW119976   7.024   0.608   0.145
 6048SOL    HW219977   7.060   0.621  14.871
 6049SOL     OW19978  13.178   1.536  11.738
 6049SOL    HW119979  13.113   1.594  11.778
 6049SOL    HW219980  13.212   1.484  11.811
 6050SOL     OW19981   1.431   0.884  12.917
 6050SOL    HW119982   1.526   0.885  12.928
 6050SOL    HW219983   1.400   0.831  12.990
 6051SOL     OW19984   8.616   8.006   5.654
 6051SOL    HW119985   8.528   7.973   5.633
 6051SOL    HW219986   8.675   7.948   5.607
 6052SOL     OW19987   7.953   1.223   3.701
 6052SOL    HW119988   8.023   1.288   3.705
 6052SOL    HW219989   7.881   1.261   3.753
 6053SOL     OW19990   9.791  12.981   1.743
 6053SOL    HW119991   9.844  12.911   1.706
 6053SOL    HW219992   9.763  13.033   1.667
 6054SOL     OW19993  12.705   1.632   6.819
 6054SOL    HW119994  12.740   1.721   6.811
 6054SOL    HW219995  12.670   1.612   6.732
 6055SOL     OW19996  13.432   6.291   0.290
 6055SOL    HW119997  13.475   6.357   0.235
 6055SOL    HW219998  13.413   6.337   0.372
 6056SOL     OW19999   6.354   4.188   1.177
 6056SOL    HW120000   6.275   4.233   1.149
 6056SOL    HW220001   6.347   4.182   1.272
 6057SOL     OW20002   4.302  12.202   5.401
 6057SOL    HW120003   4.292  12.110   5.425
 6057SOL    HW220004   4.221  12.244   5.430
 6058SOL     OW20005   8.258  10.475   6.803
 6058SOL    HW120006   8.164  10.493   6.800
 6058SOL    HW220007   8.299  10.551   6.761
 6059SOL     OW20008  12.243   6.577   1.535
 6059SOL    HW120009  12.249   6.659   1.582
 6059SOL    HW220010  12.238   6.602   1.443
 6060SOL     OW20011  10.333   3.213   3.181
 6060SOL    HW120012  10.294   3.138   3.227
 6060SOL    HW220013  10.281   3.288   3.209
 6061SOL     OW20014  11.319  11.072   0.511
 6061SOL    HW120015  11.395  11.125   0.531
 6061SOL    HW220016  11.353  10.983   0.505
 6062SOL     OW20017  13.309   8.999  12.087
 6062SOL    HW120018  13.225   9.000  12.041
 6062SOL    HW220019  13.375   8.999  12.017
 6063SOL     OW20020   1.899   9.440  10.621
 6063SOL    HW120021   1.936   9.386  10.551
 6063SOL    HW220022   1.819   9.393  10.647
 6064SOL     OW20023  13.324   0.111  12.721
 6064SOL    HW120024  13.297   0.120  12.812
 6064SOL    HW220025  13.274   0.178  12.674
 6065SOL     OW20026   6.281  11.770   2.527
 6065SOL    HW120027   6.214  11.753   2.594
 6065SOL    HW220028   6.309  11.683   2.500
 6066SOL     OW20029   1.218   9.653   4.677
 6066SOL    HW120030   1.227   9.730   4.621
 6066SOL    HW220031   1.249   9.681   4.763
 6067SOL     OW20032  11.071  10.661  12.333
 6067SOL    HW120033  11.067  10.567  12.348
 6067SOL    HW220034  11.160  10.686  12.358
 6068SOL     OW20035  10.175  11.446   2.908
 6068SOL    HW120036  10.087  11.435   2.871
 6068SOL    HW220037  10.173  11.532   2.950
 6069SOL     OW20038  10.380   7.323  12.849
 6069SOL    HW120039  10.387   7.228  12.860
 6069SOL    HW220040  10.378   7.337  12.755
 6070SOL     OW20041   3.849  12.617  10.892
 6070SOL    HW120042   3.827  12.710  10.895
 6070SOL    HW220043   3.806  12.585  10.813
 6071SOL     OW20044   7.743   0.917   9.887
 6071SOL    HW120045   7.817   0.875   9.842
 6071SOL    HW220046   7.713   0.984   9.826
 6072SOL     OW20047  14.855  13.327   0.146
 6072SOL    HW120048  14.863  13.247   0.094
 6072SOL    HW220049  14.818  13.298   0.229
 6073SOL     OW20050   8.111   1.944   2.147
 6073SOL    HW120051   8.111   2.037   2.123
 6073SOL    HW220052   8.203   1.918   2.140
 6074SOL     OW20053  14.591   0.008   3.301
 6074SOL    HW120054  14.549   0.012   3.387
 6074SOL    HW220055  14.522   0.032   3.239
 6075SOL     OW20056   5.612   4.972   2.765
 6075SOL    HW120057   5.560   4.894   2.788
 6075SOL    HW220058   5.549   5.031   2.724
 6076SOL     OW20059   2.727   5.082   9.236
 6076SOL    HW120060   2.633   5.067   9.245
 6076SOL    HW220061   2.739   5.175   9.256
 6077SOL     OW20062  14.323   5.594   4.333
 6077SOL    HW120063  14.339   5.564   4.423
 6077SOL    HW220064  14.320   5.689   4.339
 6078SOL     OW20065   1.116   7.279   4.772
 6078SOL    HW120066   1.174   7.203   4.769
 6078SOL    HW220067   1.138   7.329   4.693
 6079SOL     OW20068   0.059  13.996  11.266
 6079SOL    HW120069   0.067  14.037  11.352
 6079SOL    HW220070   0.105  14.055  11.206
 6080SOL     OW20071   2.080   6.467  12.938
 6080SOL    HW120072   2.094   6.390  12.884
 6080SOL    HW220073   2.052   6.535  12.877
 6081SOL     OW20074  12.574   7.722   5.522
 6081SOL    HW120075  12.480   7.739   5.533
 6081SOL    HW220076  12.580   7.626   5.524
 6082SOL     OW20077   4.657   3.930   4.341
 6082SOL    HW120078   4.681   3.897   4.428
 6082SOL    HW220079   4.562   3.920   4.338
 6083SOL     OW20080  11.708   7.455   6.412
 6083SOL    HW120081  11.717   7.408   6.495
 6083SOL    HW220082  11.766   7.531   6.421
 6084SOL     OW20083   1.831  13.593   2.947
 6084SOL    HW120084   1.895  13.556   3.007
 6084SOL    HW220085   1.786  13.517   2.910
 6085SOL     OW20086   2.892   7.619   6.231
 6085SOL    HW120087   2.961   7.668   6.276
 6085SOL    HW220088   2.867   7.676   6.158
 6086SOL     OW20089   7.726   6.645   6.751
 6086SOL    HW120090   7.731   6.629   6.845
 6086SOL    HW220091   7.806   6.694   6.730
 6087SOL     OW20092  13.100   0.530   7.063
 6087SOL    HW120093  13.062   0.617   7.070
 6087SOL    HW220094  13.118   0.519   6.969
 6088SOL     OW20095  10.401  13.015   2.132
 6088SOL    HW120096  10.435  12.933   2.096
 6088SOL    HW220097  10.306  13.006   2.127
 6089SOL     OW20098  13.283   6.598   9.561
 6089SOL    HW120099  13.359   6.632   9.608
 6089SOL    HW220100  13.310   6.510   9.533
 6090SOL     OW20101   8.530  12.987   2.181
 6090SOL    HW120102   8.442  12.952   2.172
 6090SOL    HW220103   8.582  12.914   2.213
 6091SOL     OW20104  13.035   7.541   6.144
 6091SOL    HW120105  12.988   7.471   6.097
 6091SOL    HW220106  13.055   7.606   6.076
 6092SOL     OW20107  11.567   2.276  14.747
 6092SOL    HW120108  11.603   2.261  14.660
 6092SOL    HW220109  11.547   2.370  14.748
 6093SOL     OW20110  12.495  11.015  14.748
 6093SOL    HW120111  12.550  11.010  14.670
 6093SOL    HW220112  12.407  11.028  14.715
 6094SOL     OW20113   0.085   2.799   2.015
 6094SOL    HW120114   0.099   2.869   2.079
 6094SOL    HW220115  14.867   2.770   2.031
 6095SOL     OW20116   2.263   4.777  12.477
 6095SOL    HW120117   2.288   4.704  12.535
 6095SOL    HW220118   2.185   4.814  12.519
 6096SOL     OW20119   1.839   2.886   3.701
 6096SOL    HW120120   1.875   2.820   3.760
 6096SOL    HW220121   1.753   2.907   3.737
 6097SOL     OW20122   0.122   5.726   3.175
 6097SOL    HW120123   0.069   5.768   3.244
 6097SOL    HW220124   0.185   5.672   3.223
 6098SOL     OW20125   1.977  11.814   5.611
 6098SOL    HW120126   2.032  11.768   5.547
 6098SOL    HW220127   1.895  11.831   5.564
 6099SOL     OW20128   7.732  11.605   6.313
 6099SOL    HW120129   7.726  11.641   6.224
 6099SOL    HW220130   7.818  11.632   6.344
 6100SOL     OW20131  12.125   4.456   4.485
 6100SOL    HW120132  12.136   4.547   4.513
 6100SOL    HW220133  12.140   4.458   4.390
 6101SOL     OW20134  11.432   9.969   4.546
 6101SOL    HW120135  11.484   9.889   4.553
 6101SOL    HW220136  11.349   9.948   4.590
 6102SOL     OW20137  12.037   7.892  10.087
 6102SOL    HW120138  12.096   7.821  10.059
 6102SOL    HW220139  12.010   7.868  10.175
 6103SOL     OW20140   8.698   7.088   3.415
 6103SOL    HW120141   8.675   7.178   3.435
 6103SOL    HW220142   8.696   7.043   3.500
 6104SOL     OW20143   5.214   3.301  10.552
 6104SOL    HW120144   5.143   3.240  10.575
 6104SOL    HW220145   5.292   3.264  10.594
 6105SOL     OW20146   8.318  14.194  10.236
 6105SOL    HW120147   8.389  14.244  10.276
 6105SOL    HW220148   8.335  14.104  10.262
 6106SOL     OW20149  13.939   2.077  12.663
 6106SOL    HW120150  13.859   2.069  12.714
 6106SOL    HW220151  13.929   2.159  12.614
 6107SOL     OW20152   8.810   4.309  12.043
 6107SOL    HW120153   8.810   4.284  12.135
 6107SOL    HW220154   8.722   4.288  12.012
 6108SOL     OW20155   6.204   5.087   5.081
 6108SOL    HW120156   6.229   5.176   5.057
 6108SOL    HW220157   6.158   5.097   5.164
 6109SOL     OW20158   8.982  11.831   6.519
 6109SOL    HW120159   8.966  11.815   6.612
 6109SOL    HW220160   8.929  11.908   6.498
 6110SOL     OW20161  12.263  10.656   5.985
 6110SOL    HW120162  12.354  10.642   5.960
 6110SOL    HW220163  12.250  10.599   6.061
 6111SOL     OW20164   2.051   8.030   2.576
 6111SOL    HW120165   2.116   7.979   2.527
 6111SOL    HW220166   1.968   8.011   2.532
 6112SOL     OW20167  11.716   9.092  10.108
 6112SOL    HW120168  11.729   9.168  10.052
 6112SOL    HW220169  11.682   9.024  10.050
 6113SOL     OW20170  10.394   0.988   7.053
 6113SOL    HW120171  10.370   1.022   7.139
 6113SOL    HW220172  10.315   1.000   7.000
 6114SOL     OW20173   7.236   1.025   5.811
 6114SOL    HW120174   7.319   0.990   5.780
 6114SOL    HW220175   7.176   0.951   5.808
 6115SOL     OW20176   6.727   3.687   5.605
 6115SOL    HW120177   6.693   3.744   5.536
 6115SOL    HW220178   6.684   3.603   5.590
 6116SOL     OW20179   7.507   9.741   5.502
 6116SOL    HW120180   7.427   9.732   5.450
 6116SOL    HW220181   7.555   9.814   5.461
 6117SOL     OW20182   7.347   7.202   0.350
 6117SOL    HW120183   7.315   7.268   0.411
 6117SOL    HW220184   7.269   7.177   0.299
 6118SOL     OW20185  13.765   9.340   0.961
 6118SOL    HW120186  13.695   9.316   1.022
 6118SOL    HW220187  13.807   9.256   0.939
 6119SOL     OW20188  13.436  12.231   3.195
 6119SOL    HW120189  13.379  12.270   3.261
 6119SOL    HW220190  13.486  12.305   3.160
 6120SOL     OW20191   6.754   8.863   9.566
 6120SOL    HW120192   6.774   8.906   9.649
 6120SOL    HW220193   6.724   8.934   9.509
 6121SOL     OW20194  14.707  13.928   5.338
 6121SOL    HW120195  14.633  13.918   5.278
 6121SOL    HW220196  14.693  14.013   5.379
 6122SOL     OW20197   7.749  13.296   7.086
 6122SOL    HW120198   7.802  13.235   7.035
 6122SOL    HW220199   7.713  13.244   7.157
 6123SOL     OW20200   7.542   2.535   9.934
 6123SOL    HW120201   7.520   2.613   9.882
 6123SOL    HW220202   7.556   2.569  10.023
 6124SOL     OW20203   7.275   0.313  11.368
 6124SOL    HW120204   7.272   0.407  11.387
 6124SOL    HW220205   7.185   0.291  11.344
 6125SOL     OW20206  10.702  13.195  11.955
 6125SOL    HW120207  10.699  13.195  11.859
 6125SOL    HW220208  10.622  13.242  11.981
 6126SOL     OW20209   1.724   2.794   8.222
 6126SOL    HW120210   1.725   2.849   8.144
 6126SOL    HW220211   1.801   2.823   8.272
 6127SOL     OW20212   1.086   8.540  11.705
 6127SOL    HW120213   1.009   8.591  11.731
 6127SOL    HW220214   1.133   8.523  11.787
 6128SOL     OW20215   7.244  14.193   1.443
 6128SOL    HW120216   7.300  14.146   1.505
 6128SOL    HW220217   7.217  14.127   1.379
 6129SOL     OW20218   9.292   8.999  10.596
 6129SOL    HW120219   9.197   9.012  10.601
 6129SOL    HW220220   9.315   8.962  10.681
 6130SOL     OW20221   5.948   6.278   0.123
 6130SOL    HW120222   5.961   6.192   0.161
 6130SOL    HW220223   6.031   6.298   0.079
 6131SOL     OW20224   9.283  11.827   6.070
 6131SOL    HW120225   9.257  11.912   6.107
 6131SOL    HW220226   9.304  11.774   6.147
 6132SOL     OW20227  13.518   5.700   7.438
 6132SOL    HW120228  13.581   5.727   7.371
 6132SOL    HW220229  13.478   5.620   7.402
 6133SOL     OW20230   2.411   0.476  11.034
 6133SOL    HW120231   2.421   0.512  10.946
 6133SOL    HW220232   2.325   0.436  11.034
 6134SOL     OW20233  13.965   0.539   9.798
 6134SOL    HW120234  13.947   0.449   9.824
 6134SOL    HW220235  14.060   0.542   9.786
 6135SOL     OW20236   8.127   6.376   6.304
 6135SOL    HW120237   8.188   6.449   6.292
 6135SOL    HW220238   8.052   6.414   6.349
 6136SOL     OW20239   1.922   7.974  11.682
 6136SOL    HW120240   1.939   7.990  11.775
 6136SOL    HW220241   2.008   7.984  11.640
 6137SOL     OW20242   3.163   3.363   5.895
 6137SOL    HW120243   3.107   3.287   5.911
 6137SOL    HW220244   3.186   3.394   5.983
 6138SOL     OW20245   0.139   7.673  13.757
 6138SOL    HW120246   0.065   7.616  13.734
 6138SOL    HW220247   0.106   7.726  13.829
 6139SOL     OW20248   1.338  12.776  14.055
 6139SOL    HW120249   1.427  12.788  14.021
 6139SOL    HW220250   1.312  12.862  14.086
 6140SOL     OW20251   4.210   5.274   0.708
 6140SOL    HW120252   4.150   5.220   0.760
 6140SOL    HW220253   4.275   5.212   0.675
 6141SOL     OW20254   3.708   0.940  13.553
 6141SOL    HW120255   3.675   0.861  13.510
 6141SOL    HW220256   3.780   0.909  13.608
 6142SOL     OW20257   6.220  10.958   4.002
 6142SOL    HW120258   6.231  11.053   3.996
 6142SOL    HW220259   6.292  10.922   3.950
 6143SOL     OW20260   5.483   5.747   0.023
 6143SOL    HW120261   5.514   5.810  14.830
 6143SOL    HW220262   5.435   5.801   0.086
 6144SOL     OW20263  14.484   5.165  11.658
 6144SOL    HW120264  14.400   5.121  11.671
 6144SOL    HW220265  14.461   5.256  11.638
 6145SOL     OW20266  12.781   4.918   0.178
 6145SOL    HW120267  12.765   4.842   0.234
 6145SOL    HW220268  12.813   4.985   0.238
 6146SOL     OW20269   3.543   1.713  13.269
 6146SOL    HW120270   3.527   1.683  13.359
 6146SOL    HW220271   3.457   1.706  13.227
 6147SOL     OW20272   7.917   4.323   5.610
 6147SOL    HW120273   7.890   4.279   5.529
 6147SOL    HW220274   7.836   4.341   5.657
 6148SOL     OW20275   5.096   4.355   5.180
 6148SOL    HW120276   5.036   4.372   5.253
 6148SOL    HW220277   5.182   4.379   5.214
 6149SOL     OW20278  12.692   1.802  14.711
 6149SOL    HW120279  12.740   1.855  14.648
 6149SOL    HW220280  12.760   1.751  14.756
 6150SOL     OW20281   4.299  10.391   9.268
 6150SOL    HW120282   4.352  10.311   9.277
 6150SOL    HW220283   4.289  10.402   9.173
 6151SOL     OW20284   8.338   0.114  10.372
 6151SOL    HW120285   8.412   0.073  10.327
 6151SOL    HW220286   8.281   0.145  10.302
 6152SOL     OW20287   7.482  13.553  12.209
 6152SOL    HW120288   7.478  13.620  12.142
 6152SOL    HW220289   7.456  13.472  12.165
 6153SOL     OW20290  10.653   5.939  12.700
 6153SOL    HW120291  10.714   5.963  12.769
 6153SOL    HW220292  10.661   5.844  12.693
 6154SOL     OW20293   6.733   6.320   3.870
 6154SOL    HW120294   6.673   6.247   3.856
 6154SOL    HW220295   6.738   6.330   3.965
 6155SOL     OW20296  13.521  11.062  10.870
 6155SOL    HW120297  13.433  11.027  10.853
 6155SOL    HW220298  13.545  11.026  10.955
 6156SOL     OW20299   7.624  11.248  12.955
 6156SOL    HW120300   7.692  11.263  13.021
 6156SOL    HW220301   7.619  11.330  12.906
 6157SOL     OW20302   4.633  14.222   7.151
 6157SOL    HW120303   4.690  14.286   7.193
 6157SOL    HW220304   4.640  14.242   7.057
 6158SOL     OW20305   4.565  13.288   2.951
 6158SOL    HW120306   4.595  13.354   2.889
 6158SOL    HW220307   4.621  13.300   3.028
 6159SOL     OW20308   1.661   9.109  11.132
 6159SOL    HW120309   1.618   9.119  11.216
 6159SOL    HW220310   1.755   9.113  11.152
 6160SOL     OW20311  10.213  11.741   8.829
 6160SOL    HW120312  10.244  11.744   8.920
 6160SOL    HW220313  10.180  11.653   8.817
 6161SOL     OW20314  10.660   4.431   3.293
 6161SOL    HW120315  10.592   4.372   3.259
 6161SOL    HW220316  10.721   4.372   3.338
 6162SOL     OW20317   9.503  12.451  12.676
 6162SOL    HW120318   9.557  12.521  12.712
 6162SOL    HW220319   9.417  12.464  12.715
 6163SOL     OW20320  11.077   4.511   6.888
 6163SOL    HW120321  11.113   4.461   6.961
 6163SOL    HW220322  10.984   4.518   6.908
 6164SOL     OW20323   8.215   3.864   7.568
 6164SOL    HW120324   8.209   3.769   7.563
 6164SOL    HW220325   8.247   3.882   7.656
 6165SOL     OW20326   7.294   8.134   6.727
 6165SOL    HW120327   7.388   8.117   6.740
 6165SOL    HW220328   7.256   8.124   6.814
 6166SOL     OW20329   3.234   1.378  10.303
 6166SOL    HW120330   3.321   1.418  10.308
 6166SOL    HW220331   3.176   1.442  10.344
 6167SOL     OW20332   1.628   1.941  13.965
 6167SOL    HW120333   1.611   1.889  13.886
 6167SOL    HW220334   1.653   1.876  14.031
 6168SOL     OW20335   8.684  10.826   2.739
 6168SOL    HW120336   8.764  10.776   2.723
 6168SOL    HW220337   8.689  10.849   2.832
 6169SOL     OW20338   3.016   2.678   4.096
 6169SOL    HW120339   3.050   2.734   4.026
 6169SOL    HW220340   3.005   2.592   4.055
 6170SOL     OW20341   4.554   5.600  13.218
 6170SOL    HW120342   4.595   5.666  13.273
 6170SOL    HW220343   4.623   5.573  13.157
 6171SOL     OW20344   8.320   8.556   2.346
 6171SOL    HW120345   8.284   8.641   2.322
 6171SOL    HW220346   8.411   8.574   2.367
 6172SOL     OW20347   1.952   8.003   0.998
 6172SOL    HW120348   2.047   8.007   0.985
 6172SOL    HW220349   1.920   7.952   0.924
 6173SOL     OW20350   2.530  13.746   8.832
 6173SOL    HW120351   2.517  13.798   8.753
 6173SOL    HW220352   2.519  13.808   8.904
 6174SOL     OW20353   4.272   2.046  11.112
 6174SOL    HW120354   4.296   1.967  11.159
 6174SOL    HW220355   4.210   2.017  11.045
 6175SOL     OW20356   8.692  14.278  12.796
 6175SOL    HW120357   8.764  14.336  12.772
 6175SOL    HW220358   8.730  14.190  12.795
 6176SOL     OW20359   8.840  13.637  13.955
 6176SOL    HW120360   8.866  13.729  13.964
 6176SOL    HW220361   8.773  13.624  14.021
 6177SOL     OW20362   2.380  11.056  10.697
 6177SOL    HW120363   2.333  10.984  10.740
 6177SOL    HW220364   2.356  11.048  10.604
 6178SOL     OW20365   2.387   6.197   7.150
 6178SOL    HW120366   2.425   6.121   7.195
 6178SOL    HW220367   2.323   6.158   7.089
 6179SOL     OW20368   0.790  13.423   0.954
 6179SOL    HW120369   0.745  13.500   0.919
 6179SOL    HW220370   0.847  13.458   1.023
 6180SOL     OW20371   1.410   4.434   1.796
 6180SOL    HW120372   1.423   4.454   1.889
 6180SOL    HW220373   1.317   4.412   1.789
 6181SOL     OW20374  10.828   7.913   9.463
 6181SOL    HW120375  10.806   7.864   9.384
 6181SOL    HW220376  10.837   8.003   9.434
 6182SOL     OW20377  13.337   2.743   9.319
 6182SOL    HW120378  13.418   2.761   9.368
 6182SOL    HW220379  13.280   2.699   9.382
 6183SOL     OW20380   9.090   0.139   4.981
 6183SOL    HW120381   9.056   0.175   4.900
 6183SOL    HW220382   9.185   0.134   4.967
 6184SOL     OW20383   9.220   0.684   9.672
 6184SOL    HW120384   9.215   0.632   9.592
 6184SOL    HW220385   9.274   0.632   9.731
 6185SOL     OW20386   5.254   5.428   1.981
 6185SOL    HW120387   5.251   5.483   1.903
 6185SOL    HW220388   5.303   5.479   2.045
 6186SOL     OW20389  10.827  11.510   1.822
 6186SOL    HW120390  10.827  11.592   1.872
 6186SOL    HW220391  10.763  11.454   1.867
 6187SOL     OW20392   4.248   9.131   1.293
 6187SOL    HW120393   4.235   9.037   1.307
 6187SOL    HW220394   4.184   9.155   1.226
 6188SOL     OW20395   6.357  12.580  13.011
 6188SOL    HW120396   6.379  12.674  13.012
 6188SOL    HW220397   6.411  12.544  12.940
 6189SOL     OW20398   5.022  12.452  10.986
 6189SOL    HW120399   4.998  12.544  11.001
 6189SOL    HW220400   5.072  12.454  10.904
 6190SOL     OW20401  12.874   1.289   3.551
 6190SOL    HW120402  12.899   1.219   3.491
 6190SOL    HW220403  12.843   1.360   3.494
 6191SOL     OW20404   4.863   8.694   6.569
 6191SOL    HW120405   4.821   8.745   6.499
 6191SOL    HW220406   4.811   8.614   6.574
 6192SOL     OW20407   8.233   3.681   3.715
 6192SOL    HW120408   8.190   3.596   3.710
 6192SOL    HW220409   8.308   3.674   3.656
 6193SOL     OW20410   6.962   4.735   9.863
 6193SOL    HW120411   7.020   4.808   9.887
 6193SOL    HW220412   6.940   4.751   9.771
 6194SOL     OW20413  13.622   8.161  11.739
 6194SOL    HW120414  13.542   8.205  11.712
 6194SOL    HW220415  13.644   8.104  11.666
 6195SOL     OW20416   3.185   2.448   2.218
 6195SOL    HW120417   3.172   2.353   2.213
 6195SOL    HW220418   3.097   2.485   2.212
 6196SOL     OW20419  13.628   6.772   2.762
 6196SOL    HW120420  13.657   6.682   2.782
 6196SOL    HW220421  13.707   6.816   2.731
 6197SOL     OW20422   8.509   1.725   9.227
 6197SOL    HW120423   8.538   1.703   9.316
 6197SOL    HW220424   8.559   1.667   9.170
 6198SOL     OW20425   1.622  13.054   5.016
 6198SOL    HW120426   1.643  13.145   4.996
 6198SOL    HW220427   1.581  13.021   4.936
 6199SOL     OW20428  14.507   6.008   6.047
 6199SOL    HW120429  14.493   5.967   6.133
 6199SOL    HW220430  14.572   6.077   6.064
 6200SOL     OW20431  13.876  10.799   3.951
 6200SOL    HW120432  13.896  10.796   4.044
 6200SOL    HW220433  13.958  10.774   3.908
 6201SOL     OW20434   5.810  14.215   6.333
 6201SOL    HW120435   5.848  14.197   6.419
 6201SOL    HW220436   5.726  14.169   6.334
 6202SOL     OW20437   7.093  13.288   3.394
 6202SOL    HW120438   7.014  13.339   3.373
 6202SOL    HW220439   7.160  13.354   3.411
 6203SOL     OW20440   7.168   5.787  14.449
 6203SOL    HW120441   7.098   5.735  14.488
 6203SOL    HW220442   7.226   5.722  14.409
 6204SOL     OW20443   8.613   6.562  10.480
 6204SOL    HW120444   8.564   6.616  10.542
 6204SOL    HW220445   8.553   6.547  10.408
 6205SOL     OW20446   2.210   0.865   0.089
 6205SOL    HW120447   2.262   0.945   0.079
 6205SOL    HW220448   2.146   0.869   0.018
 6206SOL     OW20449   7.473  10.439  10.933
 6206SOL    HW120450   7.490  10.389  11.012
 6206SOL    HW220451   7.507  10.527  10.952
 6207SOL     OW20452   0.663   0.235   9.960
 6207SOL    HW120453   0.619   0.178   9.898
 6207SOL    HW220454   0.697   0.176  10.028
 6208SOL     OW20455   1.901   9.905   1.687
 6208SOL    HW120456   1.935   9.975   1.631
 6208SOL    HW220457   1.883   9.947   1.771
 6209SOL     OW20458   2.300   7.507  14.391
 6209SOL    HW120459   2.251   7.464  14.461
 6209SOL    HW220460   2.301   7.443  14.320
 6210SOL     OW20461   0.453   8.305   8.926
 6210SOL    HW120462   0.374   8.295   8.873
 6210SOL    HW220463   0.497   8.382   8.889
 6211SOL     OW20464  11.048   2.009   5.473
 6211SOL    HW120465  11.029   2.090   5.428
 6211SOL    HW220466  11.143   2.002   5.471
 6212SOL     OW20467   9.102  12.860   6.059
 6212SOL    HW120468   9.131  12.768   6.062
 6212SOL    HW220469   9.015  12.858   6.100
 6213SOL     OW20470   6.226   0.931   8.118
 6213SOL    HW120471   6.298   0.873   8.091
 6213SOL    HW220472   6.259   0.975   8.196
 6214SOL     OW20473   9.494  13.320   0.803
 6214SOL    HW120474   9.512  13.388   0.738
 6214SOL    HW220475   9.553  13.339   0.876
 6215SOL     OW20476   8.393   6.113  10.721
 6215SOL    HW120477   8.464   6.049  10.724
 6215SOL    HW220478   8.313   6.061  10.726
 6216SOL     OW20479   8.788   1.365  12.577
 6216SOL    HW120480   8.855   1.311  12.536
 6216SOL    HW220481   8.754   1.420  12.506
 6217SOL     OW20482   8.948   3.934  14.143
 6217SOL    HW120483   8.998   3.958  14.065
 6217SOL    HW220484   8.993   3.857  14.177
 6218SOL     OW20485   2.292  11.017   6.621
 6218SOL    HW120486   2.280  11.061   6.705
 6218SOL    HW220487   2.251  11.076   6.557
 6219SOL     OW20488  13.495   3.468   6.721
 6219SOL    HW120489  13.525   3.497   6.635
 6219SOL    HW220490  13.565   3.497   6.781
 6220SOL     OW20491   1.715   9.097   8.760
 6220SOL    HW120492   1.790   9.115   8.817
 6220SOL    HW220493   1.723   9.004   8.737
 6221SOL     OW20494   5.679  13.324   3.661
 6221SOL    HW120495   5.710  13.384   3.728
 6221SOL    HW220496   5.663  13.242   3.707
 6222SOL     OW20497   1.044   0.721  11.928
 6222SOL    HW120498   0.986   0.767  11.989
 6222SOL    HW220499   1.102   0.670  11.985
 6223SOL     OW20500   1.127  10.592  12.951
 6223SOL    HW120501   1.159  10.663  13.006
 6223SOL    HW220502   1.062  10.633  12.893
 6224SOL     OW20503   9.249  11.403  10.840
 6224SOL    HW120504   9.267  11.476  10.781
 6224SOL    HW220505   9.267  11.437  10.927
 6225SOL     OW20506  12.673  14.574   9.002
 6225SOL    HW120507  12.747  14.527   9.041
 6225SOL    HW220508  12.661  14.532   8.917
 6226SOL     OW20509   8.748  11.595  13.345
 6226SOL    HW120510   8.769  11.688  13.340
 6226SOL    HW220511   8.802  11.562  13.418
 6227SOL     OW20512   0.198  14.094   7.093
 6227SOL    HW120513   0.193  14.118   7.186
 6227SOL    HW220514   0.183  14.000   7.092
 6228SOL     OW20515   7.980   2.744   0.066
 6228SOL    HW120516   8.070   2.720   0.044
 6228SOL    HW220517   7.962   2.820   0.010
 6229SOL     OW20518   2.350   7.896   9.343
 6229SOL    HW120519   2.419   7.963   9.341
 6229SOL    HW220520   2.275   7.939   9.302
 6230SOL     OW20521   4.792   5.414   1.227
 6230SOL    HW120522   4.809   5.406   1.133
 6230SOL    HW220523   4.703   5.448   1.232
 6231SOL     OW20524   2.522   5.863   2.792
 6231SOL    HW120525   2.483   5.809   2.860
 6231SOL    HW220526   2.454   5.869   2.724
 6232SOL     OW20527   2.081  12.489   0.967
 6232SOL    HW120528   2.056  12.415   0.912
 6232SOL    HW220529   2.124  12.550   0.907
 6233SOL     OW20530  11.559   3.634   7.924
 6233SOL    HW120531  11.572   3.627   7.830
 6233SOL    HW220532  11.545   3.543   7.953
 6234SOL     OW20533   0.890   1.283   3.077
 6234SOL    HW120534   0.974   1.279   3.032
 6234SOL    HW220535   0.909   1.329   3.159
 6235SOL     OW20536   6.611   3.038  13.830
 6235SOL    HW120537   6.578   3.094  13.900
 6235SOL    HW220538   6.553   3.055  13.756
 6236SOL     OW20539   7.199   1.495   7.826
 6236SOL    HW120540   7.198   1.578   7.778
 6236SOL    HW220541   7.289   1.485   7.856
 6237SOL     OW20542   8.923   8.820   1.470
 6237SOL    HW120543   8.878   8.855   1.547
 6237SOL    HW220544   8.982   8.753   1.505
 6238SOL     OW20545  12.193   6.054  14.052
 6238SOL    HW120546  12.152   6.055  14.138
 6238SOL    HW220547  12.163   6.134  14.010
 6239SOL     OW20548   0.644   9.167   4.549
 6239SOL    HW120549   0.651   9.262   4.550
 6239SOL    HW220550   0.625   9.146   4.457
 6240SOL     OW20551   0.318  12.742   0.736
 6240SOL    HW120552   0.263  12.681   0.688
 6240SOL    HW220553   0.305  12.826   0.692
 6241SOL     OW20554  10.994  12.777   4.750
 6241SOL    HW120555  11.061  12.809   4.811
 6241SOL    HW220556  10.926  12.845   4.752
 6242SOL     OW20557   1.207   9.550   9.446
 6242SOL    HW120558   1.225   9.643   9.428
 6242SOL    HW220559   1.278   9.503   9.402
 6243SOL     OW20560   2.619   6.500   3.694
 6243SOL    HW120561   2.610   6.594   3.713
 6243SOL    HW220562   2.712   6.488   3.677
 6244SOL     OW20563   8.140   1.908   0.900
 6244SOL    HW120564   8.215   1.932   0.954
 6244SOL    HW220565   8.077   1.870   0.962
 6245SOL     OW20566  12.942  12.358   9.076
 6245SOL    HW120567  12.900  12.414   9.141
 6245SOL    HW220568  12.910  12.270   9.096
 6246SOL     OW20569   2.391  10.384  10.268
 6246SOL    HW120570   2.339  10.372  10.188
 6246SOL    HW220571   2.413  10.477  10.268
 6247SOL     OW20572   1.041   0.227   3.220
 6247SOL    HW120573   1.123   0.183   3.197
 6247SOL    HW220574   1.048   0.242   3.315
 6248SOL     OW20575  13.683   5.890   6.759
 6248SOL    HW120576  13.641   5.924   6.839
 6248SOL    HW220577  13.609   5.870   6.701
 6249SOL     OW20578   0.123  10.302  10.901
 6249SOL    HW120579   0.041  10.344  10.928
 6249SOL    HW220580   0.110  10.283  10.808
 6250SOL     OW20581   2.966   1.085  10.299
 6250SOL    HW120582   3.031   1.130  10.244
 6250SOL    HW220583   3.015   1.012  10.338
 6251SOL     OW20584   9.196   5.925  12.666
 6251SOL    HW120585   9.233   5.912  12.578
 6251SOL    HW220586   9.260   5.885  12.725
 6252SOL     OW20587   2.852  14.114   3.446
 6252SOL    HW120588   2.919  14.152   3.501
 6252SOL    HW220589   2.828  14.184   3.384
 6253SOL     OW20590   9.608   0.020  14.401
 6253SOL    HW120591   9.569   0.067  14.327
 6253SOL    HW220592   9.702   0.026  14.387
 6254SOL     OW20593  10.132  13.647  14.102
 6254SOL    HW120594  10.223  13.674  14.111
 6254SOL    HW220595  10.083  13.729  14.102
 6255SOL     OW20596   0.680  13.101   0.098
 6255SOL    HW120597   0.689  13.196   0.107
 6255SOL    HW220598   0.593  13.081   0.133
 6256SOL     OW20599   7.663   3.724   7.957
 6256SOL    HW120600   7.638   3.815   7.944
 6256SOL    HW220601   7.580   3.676   7.963
 6257SOL     OW20602   7.384   9.878  13.805
 6257SOL    HW120603   7.435   9.833  13.737
 6257SOL    HW220604   7.384   9.970  13.778
 6258SOL     OW20605   8.535   8.328   5.601
 6258SOL    HW120606   8.476   8.403   5.604
 6258SOL    HW220607   8.601   8.352   5.535
 6259SOL     OW20608  14.049  10.672   4.425
 6259SOL    HW120609  14.016  10.746   4.475
 6259SOL    HW220610  14.143  10.687   4.418
 6260SOL     OW20611  10.413   8.331  13.442
 6260SOL    HW120612  10.417   8.417  13.482
 6260SOL    HW220613  10.424   8.347  13.348
 6261SOL     OW20614  14.367   5.198   4.234
 6261SOL    HW120615  14.388   5.142   4.160
 6261SOL    HW220616  14.295   5.252   4.203
 6262SOL     OW20617   7.467   4.646   0.788
 6262SOL    HW120618   7.505   4.564   0.820
 6262SOL    HW220619   7.508   4.660   0.703
 6263SOL     OW20620  14.378   4.201   4.328
 6263SOL    HW120621  14.409   4.135   4.389
 6263SOL    HW220622  14.296   4.166   4.294
 6264SOL     OW20623  10.473   4.707   4.604
 6264SOL    HW120624  10.530   4.740   4.534
 6264SOL    HW220625  10.526   4.715   4.683
 6265SOL     OW20626   2.070   0.141  13.844
 6265SOL    HW120627   2.115   0.061  13.817
 6265SOL    HW220628   2.077   0.142  13.939
 6266SOL     OW20629   5.216   4.157  13.277
 6266SOL    HW120630   5.239   4.095  13.347
 6266SOL    HW220631   5.120   4.161  13.279
 6267SOL     OW20632   3.256  13.949   7.136
 6267SOL    HW120633   3.340  13.990   7.156
 6267SOL    HW220634   3.227  13.990   7.054
 6268SOL     OW20635  10.703   9.635   2.249
 6268SOL    HW120636  10.610   9.624   2.234
 6268SOL    HW220637  10.727   9.565   2.310
 6269SOL     OW20638   8.875   8.439  12.584
 6269SOL    HW120639   8.869   8.511  12.646
 6269SOL    HW220640   8.965   8.442  12.552
 6270SOL     OW20641   4.329   5.584   0.100
 6270SOL    HW120642   4.253   5.628   0.062
 6270SOL    HW220643   4.318   5.492   0.075
 6271SOL     OW20644   9.527   4.935  12.686
 6271SOL    HW120645   9.563   4.987  12.758
 6271SOL    HW220646   9.588   4.862  12.676
 6272SOL     OW20647   7.600   0.469   0.124
 6272SOL    HW120648   7.599   0.389   0.071
 6272SOL    HW220649   7.657   0.448   0.198
 6273SOL     OW20650   7.750  14.049  14.780
 6273SOL    HW120651   7.790  14.086  14.859
 6273SOL    HW220652   7.656  14.050  14.798
 6274SOL     OW20653   1.041   5.326   5.801
 6274SOL    HW120654   1.030   5.306   5.894
 6274SOL    HW220655   0.952   5.336   5.767
 6275SOL     OW20656  11.781  12.491   8.300
 6275SOL    HW120657  11.827  12.575   8.301
 6275SOL    HW220658  11.689  12.514   8.291
 6276SOL     OW20659  13.193   0.445   3.515
 6276SOL    HW120660  13.171   0.503   3.588
 6276SOL    HW220661  13.252   0.496   3.461
 6277SOL     OW20662   6.268  11.236  12.683
 6277SOL    HW120663   6.313  11.162  12.723
 6277SOL    HW220664   6.338  11.291  12.647
 6278SOL     OW20665   0.093   3.875   7.259
 6278SOL    HW120666   0.122   3.785   7.249
 6278SOL    HW220667   0.012   3.880   7.208
 6279SOL     OW20668  11.898   2.885   0.531
 6279SOL    HW120669  11.946   2.956   0.490
 6279SOL    HW220670  11.869   2.830   0.458
 6280SOL     OW20671   0.581   8.105   4.919
 6280SOL    HW120672   0.512   8.168   4.900
 6280SOL    HW220673   0.548   8.022   4.884
 6281SOL     OW20674   8.898   2.526   5.030
 6281SOL    HW120675   8.878   2.432   5.029
 6281SOL    HW220676   8.834   2.565   4.971
 6282SOL     OW20677   5.922   5.771   9.943
 6282SOL    HW120678   5.918   5.834   9.870
 6282SOL    HW220679   6.015   5.769   9.967
 6283SOL     OW20680  11.627   9.606   4.937
 6283SOL    HW120681  11.598   9.656   4.860
 6283SOL    HW220682  11.546   9.587   4.984
 6284SOL     OW20683  11.834   9.683   7.941
 6284SOL    HW120684  11.806   9.774   7.949
 6284SOL    HW220685  11.929   9.686   7.955
 6285SOL     OW20686   0.875   8.423  13.688
 6285SOL    HW120687   0.941   8.493  13.686
 6285SOL    HW220688   0.803   8.456  13.635
 6286SOL     OW20689   8.465   3.425   6.450
 6286SOL    HW120690   8.552   3.388   6.463
 6286SOL    HW220691   8.480   3.510   6.409
 6287SOL     OW20692   6.409   9.508   7.175
 6287SOL    HW120693   6.342   9.539   7.236
 6287SOL    HW220694   6.492   9.518   7.223
 6288SOL     OW20695  13.505  10.460  13.352
 6288SOL    HW120696  13.468  10.539  13.313
 6288SOL    HW220697  13.429  10.412  13.387
 6289SOL     OW20698  14.501   5.091   6.981
 6289SOL    HW120699  14.495   5.187   6.972
 6289SOL    HW220700  14.425   5.058   6.932
 6290SOL     OW20701   9.109   7.581  11.054
 6290SOL    HW120702   9.158   7.580  11.136
 6290SOL    HW220703   9.157   7.643  10.999
 6291SOL     OW20704   7.424   1.181   0.519
 6291SOL    HW120705   7.428   1.159   0.426
 6291SOL    HW220706   7.487   1.252   0.529
 6292SOL     OW20707   8.430  12.208   8.618
 6292SOL    HW120708   8.490  12.282   8.607
 6292SOL    HW220709   8.353  12.231   8.566
 6293SOL     OW20710  14.332   6.933   7.454
 6293SOL    HW120711  14.427   6.934   7.442
 6293SOL    HW220712  14.302   6.861   7.399
 6294SOL     OW20713   9.826  11.651   6.523
 6294SOL    HW120714   9.862  11.725   6.572
 6294SOL    HW220715   9.902  11.612   6.480
 6295SOL     OW20716   9.223   8.642  10.944
 6295SOL    HW120717   9.152   8.619  10.885
 6295SOL    HW220718   9.286   8.571  10.935
 6296SOL     OW20719   0.738   3.815   5.549
 6296SOL    HW120720   0.688   3.873   5.607
 6296SOL    HW220721   0.685   3.736   5.542
 6297SOL     OW20722  10.452   3.675  13.839
 6297SOL    HW120723  10.510   3.605  13.870
 6297SOL    HW220724  10.384   3.630  13.790
 6298SOL     OW20725   3.937   5.323  13.329
 6298SOL    HW120726   3.945   5.313  13.234
 6298SOL    HW220727   3.888   5.404  13.341
 6299SOL     OW20728   1.866   3.436   4.250
 6299SOL    HW120729   1.816   3.461   4.328
 6299SOL    HW220730   1.912   3.515   4.224
 6300SOL     OW20731   5.166   9.067   9.873
 6300SOL    HW120732   5.132   8.988   9.913
 6300SOL    HW220733   5.246   9.086   9.922
 6301SOL     OW20734  11.155   7.994  13.372
 6301SOL    HW120735  11.237   7.949  13.354
 6301SOL    HW220736  11.110   7.938  13.435
 6302SOL     OW20737   7.594   6.581   2.095
 6302SOL    HW120738   7.648   6.561   2.171
 6302SOL    HW220739   7.535   6.651   2.124
 6303SOL     OW20740   1.849   6.588  14.810
 6303SOL    HW120741   1.880   6.573  14.721
 6303SOL    HW220742   1.891   6.521  14.862
 6304SOL     OW20743   8.334   7.147   9.287
 6304SOL    HW120744   8.409   7.167   9.231
 6304SOL    HW220745   8.359   7.066   9.332
 6305SOL     OW20746   9.706   1.810   4.213
 6305SOL    HW120747   9.789   1.849   4.241
 6305SOL    HW220748   9.641   1.841   4.276
 6306SOL     OW20749   8.555   7.318   3.096
 6306SOL    HW120750   8.618   7.247   3.111
 6306SOL    HW220751   8.579   7.353   3.011
 6307SOL     OW20752   1.464  10.790   2.575
 6307SOL    HW120753   1.442  10.791   2.668
 6307SOL    HW220754   1.396  10.736   2.535
 6308SOL     OW20755  14.575   9.486   9.651
 6308SOL    HW120756  14.498   9.517   9.698
 6308SOL    HW220757  14.635   9.456   9.719
 6309SOL     OW20758   9.899   4.090   3.486
 6309SOL    HW120759   9.910   4.184   3.499
 6309SOL    HW220760   9.815   4.082   3.441
 6310SOL     OW20761   9.724   4.953   5.937
 6310SOL    HW120762   9.743   4.909   6.020
 6310SOL    HW220763   9.678   4.888   5.885
 6311SOL     OW20764   0.030  14.524   6.615
 6311SOL    HW120765   0.055  14.530   6.708
 6311SOL    HW220766   0.007  14.614   6.591
 6312SOL     OW20767   0.500   9.266  11.374
 6312SOL    HW120768   0.500   9.172  11.358
 6312SOL    HW220769   0.582   9.282  11.421
 6313SOL     OW20770   9.500   3.242   3.756
 6313SOL    HW120771   9.480   3.291   3.836
 6313SOL    HW220772   9.516   3.309   3.690
 6314SOL     OW20773   2.818   3.912  12.137
 6314SOL    HW120774   2.791   3.821  12.151
 6314SOL    HW220775   2.872   3.909  12.058
 6315SOL     OW20776  10.708   9.975   9.758
 6315SOL    HW120777  10.623   9.957   9.797
 6315SOL    HW220778  10.762   9.899   9.782
 6316SOL     OW20779  11.101   1.672   2.153
 6316SOL    HW120780  11.069   1.750   2.199
 6316SOL    HW220781  11.169   1.705   2.094
 6317SOL     OW20782   0.833   1.891   0.656
 6317SOL    HW120783   0.821   1.854   0.744
 6317SOL    HW220784   0.816   1.984   0.667
 6318SOL     OW20785  12.258   5.604  10.084
 6318SOL    HW120786  12.271   5.609   9.989
 6318SOL    HW220787  12.229   5.692  10.109
 6319SOL     OW20788   0.847   2.569  11.777
 6319SOL    HW120789   0.843   2.625  11.855
 6319SOL    HW220790   0.841   2.630  11.704
 6320SOL     OW20791   3.191   9.697  12.145
 6320SOL    HW120792   3.201   9.788  12.172
 6320SOL    HW220793   3.099   9.677  12.160
 6321SOL     OW20794   8.138  11.567   5.583
 6321SOL    HW120795   8.226  11.594   5.558
 6321SOL    HW220796   8.127  11.482   5.540
 6322SOL     OW20797   5.144   7.445   7.252
 6322SOL    HW120798   5.162   7.449   7.346
 6322SOL    HW220799   5.188   7.522   7.216
 6323SOL     OW20800  10.677   1.004   6.741
 6323SOL    HW120801  10.709   1.008   6.651
 6323SOL    HW220802  10.582   0.997   6.732
 6324SOL     OW20803   2.004   9.125   2.940
 6324SOL    HW120804   2.092   9.093   2.959
 6324SOL    HW220805   1.954   9.047   2.916
 6325SOL     OW20806   6.017  14.077   3.346
 6325SOL    HW120807   5.989  14.164   3.374
 6325SOL    HW220808   5.976  14.017   3.409
 6326SOL     OW20809  13.336  13.009   6.297
 6326SOL    HW120810  13.326  12.923   6.255
 6326SOL    HW220811  13.419  13.003   6.344
 6327SOL     OW20812   4.469  11.947   4.216
 6327SOL    HW120813   4.557  11.953   4.254
 6327SOL    HW220814   4.477  11.986   4.129
 6328SOL     OW20815  11.867   7.892  12.484
 6328SOL    HW120816  11.910   7.867  12.403
 6328SOL    HW220817  11.898   7.828  12.548
 6329SOL     OW20818   8.851   9.988   2.208
 6329SOL    HW120819   8.855  10.077   2.175
 6329SOL    HW220820   8.874   9.933   2.133
 6330SOL     OW20821   4.213  10.052   4.833
 6330SOL    HW120822   4.250   9.972   4.872
 6330SOL    HW220823   4.119  10.047   4.852
 6331SOL     OW20824  11.283   4.650   1.176
 6331SOL    HW120825  11.212   4.615   1.122
 6331SOL    HW220826  11.241   4.718   1.229
 6332SOL     OW20827   2.509   4.498   6.949
 6332SOL    HW120828   2.562   4.463   7.021
 6332SOL    HW220829   2.561   4.570   6.913
 6333SOL     OW20830   9.370  12.968   4.065
 6333SOL    HW120831   9.407  12.887   4.031
 6333SOL    HW220832   9.402  13.036   4.006
 6334SOL     OW20833  13.478   8.612  11.971
 6334SOL    HW120834  13.483   8.630  12.065
 6334SOL    HW220835  13.535   8.537  11.958
 6335SOL     OW20836  13.747   0.243   4.013
 6335SOL    HW120837  13.811   0.192   3.964
 6335SOL    HW220838  13.750   0.330   3.973
 6336SOL     OW20839   5.045   6.833  12.446
 6336SOL    HW120840   5.073   6.924  12.442
 6336SOL    HW220841   4.984   6.823  12.372
 6337SOL     OW20842  14.414   0.830  10.102
 6337SOL    HW120843  14.389   0.920  10.126
 6337SOL    HW220844  14.454   0.840  10.015
 6338SOL     OW20845   2.189   2.660   6.075
 6338SOL    HW120846   2.283   2.674   6.062
 6338SOL    HW220847   2.152   2.748   6.073
 6339SOL     OW20848   3.513   0.530   5.691
 6339SOL    HW120849   3.570   0.587   5.742
 6339SOL    HW220850   3.492   0.580   5.612
 6340SOL     OW20851   8.279   6.622  14.257
 6340SOL    HW120852   8.293   6.672  14.337
 6340SOL    HW220853   8.194   6.579  14.271
 6341SOL     OW20854   7.699  14.816   7.884
 6341SOL    HW120855   7.712  14.836   7.791
 6341SOL    HW220856   7.649  14.734   7.883
 6342SOL     OW20857  12.352   5.226  14.632
 6342SOL    HW120858  12.397   5.293  14.579
 6342SOL    HW220859  12.375   5.143  14.590
 6343SOL     OW20860   3.565   2.581  14.212
 6343SOL    HW120861   3.658   2.562  14.227
 6343SOL    HW220862   3.548   2.661  14.261
 6344SOL     OW20863   1.965   2.740   7.164
 6344SOL    HW120864   1.937   2.806   7.101
 6344SOL    HW220865   2.028   2.686   7.116
 6345SOL     OW20866   3.950   1.332  11.364
 6345SOL    HW120867   3.962   1.427  11.360
 6345SOL    HW220868   3.893   1.319  11.440
 6346SOL     OW20869  11.133   8.489   0.594
 6346SOL    HW120870  11.148   8.495   0.689
 6346SOL    HW220871  11.172   8.406   0.569
 6347SOL     OW20872  10.435  13.966   6.935
 6347SOL    HW120873  10.487  13.967   7.016
 6347SOL    HW220874  10.463  13.887   6.889
 6348SOL     OW20875  13.243  12.679   5.197
 6348SOL    HW120876  13.230  12.771   5.222
 6348SOL    HW220877  13.322  12.653   5.243
 6349SOL     OW20878   2.186   5.129   5.222
 6349SOL    HW120879   2.187   5.146   5.128
 6349SOL    HW220880   2.227   5.206   5.261
 6350SOL     OW20881   7.931   1.549  14.644
 6350SOL    HW120882   7.849   1.596  14.628
 6350SOL    HW220883   7.967   1.532  14.557
 6351SOL     OW20884   5.931   1.813  13.130
 6351SOL    HW120885   5.911   1.882  13.067
 6351SOL    HW220886   5.848   1.765  13.140
 6352SOL     OW20887  14.196   6.189   2.541
 6352SOL    HW120888  14.107   6.208   2.512
 6352SOL    HW220889  14.251   6.241   2.483
 6353SOL     OW20890  10.667   0.610   9.677
 6353SOL    HW120891  10.584   0.625   9.723
 6353SOL    HW220892  10.668   0.675   9.608
 6354SOL     OW20893   0.895   2.892   4.269
 6354SOL    HW120894   0.802   2.906   4.287
 6354SOL    HW220895   0.933   2.875   4.355
 6355SOL     OW20896   4.105   8.770   8.965
 6355SOL    HW120897   4.134   8.679   8.965
 6355SOL    HW220898   4.165   8.814   9.026
 6356SOL     OW20899   9.444   9.869   6.592
 6356SOL    HW120900   9.482   9.878   6.680
 6356SOL    HW220901   9.462   9.778   6.568
 6357SOL     OW20902   8.024   2.224  14.435
 6357SOL    HW120903   8.030   2.226  14.531
 6357SOL    HW220904   8.051   2.136  14.411
 6358SOL     OW20905   9.346   6.887   9.516
 6358SOL    HW120906   9.348   6.932   9.432
 6358SOL    HW220907   9.318   6.955   9.578
 6359SOL     OW20908   8.716   8.835   2.544
 6359SOL    HW120909   8.793   8.884   2.515
 6359SOL    HW220910   8.679   8.887   2.615
 6360SOL     OW20911   7.443   7.309  11.882
 6360SOL    HW120912   7.384   7.247  11.839
 6360SOL    HW220913   7.526   7.261  11.891
 6361SOL     OW20914   3.287  11.914   2.497
 6361SOL    HW120915   3.292  11.831   2.544
 6361SOL    HW220916   3.194  11.923   2.475
 6362SOL     OW20917   5.493   0.033   3.507
 6362SOL    HW120918   5.399   0.024   3.520
 6362SOL    HW220919   5.517  14.832   3.450
 6363SOL     OW20920   1.243  10.402   8.878
 6363SOL    HW120921   1.216  10.486   8.914
 6363SOL    HW220922   1.188  10.338   8.924
 6364SOL     OW20923   8.135  14.649   9.275
 6364SOL    HW120924   8.191  14.669   9.200
 6364SOL    HW220925   8.108  14.558   9.262
 6365SOL     OW20926   1.688   9.706   2.565
 6365SOL    HW120927   1.739   9.771   2.614
 6365SOL    HW220928   1.753   9.641   2.537
 6366SOL     OW20929   9.357   9.079  12.838
 6366SOL    HW120930   9.318   9.166  12.845
 6366SOL    HW220931   9.398   9.078  12.751
 6367SOL     OW20932   3.918   0.695   7.972
 6367SOL    HW120933   3.916   0.744   7.890
 6367SOL    HW220934   3.960   0.612   7.950
 6368SOL     OW20935  12.457   9.308  11.751
 6368SOL    HW120936  12.424   9.398  11.753
 6368SOL    HW220937  12.479   9.288  11.842
 6369SOL     OW20938  12.153  11.102   1.417
 6369SOL    HW120939  12.093  11.157   1.366
 6369SOL    HW220940  12.240  11.123   1.382
 6370SOL     OW20941  10.227   4.897  12.425
 6370SOL    HW120942  10.251   4.925  12.337
 6370SOL    HW220943  10.300   4.927  12.480
 6371SOL     OW20944   0.039   7.990   6.756
 6371SOL    HW120945  14.829   7.943   6.741
 6371SOL    HW220946   0.033   8.069   6.703
 6372SOL     OW20947   8.245  13.170   9.984
 6372SOL    HW120948   8.333  13.138  10.002
 6372SOL    HW220949   8.250  13.207   9.896
 6373SOL     OW20950   1.685   5.557   2.618
 6373SOL    HW120951   1.684   5.630   2.555
 6373SOL    HW220952   1.594   5.549   2.646
 6374SOL     OW20953   9.131  14.469  14.066
 6374SOL    HW120954   9.157  14.381  14.038
 6374SOL    HW220955   9.064  14.495  14.003
 6375SOL     OW20956  11.478   2.583  12.736
 6375SOL    HW120957  11.514   2.580  12.825
 6375SOL    HW220958  11.394   2.536  12.743
 6376SOL     OW20959   0.099   8.984   2.867
 6376SOL    HW120960   0.096   9.075   2.897
 6376SOL    HW220961   0.182   8.950   2.900
 6377SOL     OW20962   4.571   9.531  11.638
 6377SOL    HW120963   4.532   9.463  11.584
 6377SOL    HW220964   4.517   9.533  11.717
 6378SOL     OW20965   4.642   1.608   0.944
 6378SOL    HW120966   4.591   1.577   0.868
 6378SOL    HW220967   4.608   1.695   0.962
 6379SOL     OW20968   3.405   8.450   0.751
 6379SOL    HW120969   3.485   8.441   0.802
 6379SOL    HW220970   3.403   8.541   0.724
 6380SOL     OW20971   7.695  14.858   8.363
 6380SOL    HW120972   7.653   0.016   8.444
 6380SOL    HW220973   7.694  14.763   8.369
 6381SOL     OW20974   3.749  13.734   4.181
 6381SOL    HW120975   3.842  13.717   4.167
 6381SOL    HW220976   3.746  13.824   4.215
 6382SOL     OW20977   1.222  11.223   2.993
 6382SOL    HW120978   1.275  11.263   2.924
 6382SOL    HW220979   1.248  11.131   2.992
 6383SOL     OW20980   5.664   6.688   7.189
 6383SOL    HW120981   5.627   6.600   7.188
 6383SOL    HW220982   5.758   6.675   7.193
 6384SOL     OW20983   5.658  11.203  14.554
 6384SOL    HW120984   5.615  11.201  14.640
 6384SOL    HW220985   5.727  11.268  14.562
 6385SOL     OW20986   0.540  12.702  11.371
 6385SOL    HW120987   0.497  12.734  11.291
 6385SOL    HW220988   0.605  12.769  11.391
 6386SOL     OW20989  13.686   5.029   8.773
 6386SOL    HW120990  13.601   5.022   8.730
 6386SOL    HW220991  13.722   5.112   8.743
 6387SOL     OW20992   1.569  13.746   3.932
 6387SOL    HW120993   1.614  13.784   4.007
 6387SOL    HW220994   1.636  13.739   3.864
 6388SOL     OW20995   5.738   2.875  12.960
 6388SOL    HW120996   5.761   2.792  12.918
 6388SOL    HW220997   5.664   2.908  12.908
 6389SOL     OW20998   2.619  11.714  14.203
 6389SOL    HW120999   2.552  11.780  14.184
 6389SOL    HW221000   2.579  11.631  14.178
 6390SOL     OW21001   9.209   4.204  13.316
 6390SOL    HW121002   9.304   4.188  13.314
 6390SOL    HW221003   9.171   4.116  13.318
 6391SOL     OW21004   2.502   9.423   7.117
 6391SOL    HW121005   2.517   9.414   7.023
 6391SOL    HW221006   2.413   9.391   7.131
 6392SOL     OW21007  12.561   9.704   2.120
 6392SOL    HW121008  12.514   9.638   2.069
 6392SOL    HW221009  12.614   9.655   2.181
 6393SOL     OW21010   0.648   7.097   6.181
 6393SOL    HW121011   0.666   7.190   6.171
 6393SOL    HW221012   0.636   7.085   6.275
 6394SOL     OW21013  11.441   4.024   9.624
 6394SOL    HW121014  11.504   4.096   9.628
 6394SOL    HW221015  11.356   4.067   9.612
 6395SOL     OW21016   9.500   3.239  11.878
 6395SOL    HW121017   9.447   3.160  11.883
 6395SOL    HW221018   9.583   3.216  11.919
 6396SOL     OW21019   2.773   2.472   3.934
 6396SOL    HW121020   2.865   2.462   3.910
 6396SOL    HW221021   2.744   2.551   3.887
 6397SOL     OW21022  13.029   3.060   8.752
 6397SOL    HW121023  12.974   3.108   8.814
 6397SOL    HW221024  13.113   3.050   8.796
 6398SOL     OW21025  10.307  10.553   4.778
 6398SOL    HW121026  10.347  10.546   4.865
 6398SOL    HW221027  10.330  10.472   4.734
 6399SOL     OW21028   2.484   0.415   7.122
 6399SOL    HW121029   2.389   0.407   7.111
 6399SOL    HW221030   2.501   0.378   7.209
 6400SOL     OW21031  11.555   9.026   9.623
 6400SOL    HW121032  11.468   9.011   9.659
 6400SOL    HW221033  11.549   9.113   9.582
 6401SOL     OW21034   8.975   0.699   2.163
 6401SOL    HW121035   8.971   0.793   2.184
 6401SOL    HW221036   8.942   0.656   2.241
 6402SOL     OW21037   7.762   9.300   3.086
 6402SOL    HW121038   7.853   9.296   3.058
 6402SOL    HW221039   7.725   9.215   3.063
 6403SOL     OW21040  12.478  13.391  13.841
 6403SOL    HW121041  12.406  13.367  13.899
 6403SOL    HW221042  12.474  13.328  13.769
 6404SOL     OW21043  14.045  14.455  10.450
 6404SOL    HW121044  13.983  14.383  10.461
 6404SOL    HW221045  14.073  14.475  10.539
 6405SOL     OW21046   7.783   8.558  11.445
 6405SOL    HW121047   7.801   8.584  11.536
 6405SOL    HW221048   7.688   8.571  11.435
 6406SOL     OW21049   5.136   5.847   0.809
 6406SOL    HW121050   5.067   5.855   0.743
 6406SOL    HW221051   5.206   5.799   0.766
 6407SOL     OW21052  14.710   9.553  12.379
 6407SOL    HW121053  14.788   9.497  12.378
 6407SOL    HW221054  14.725   9.615  12.307
 6408SOL     OW21055   1.172   8.086  13.289
 6408SOL    HW121056   1.076   8.084  13.293
 6408SOL    HW221057   1.200   8.049  13.373
 6409SOL     OW21058   3.726  12.837   4.116
 6409SOL    HW121059   3.806  12.884   4.137
 6409SOL    HW221060   3.749  12.783   4.040
 6410SOL     OW21061   8.155   8.625   0.821
 6410SOL    HW121062   8.227   8.631   0.758
 6410SOL    HW221063   8.090   8.569   0.778
 6411SOL     OW21064  11.029  10.174   0.987
 6411SOL    HW121065  11.008  10.236   0.918
 6411SOL    HW221066  11.059  10.096   0.941
 6412SOL     OW21067   1.089   0.395  12.340
 6412SOL    HW121068   1.130   0.316  12.305
 6412SOL    HW221069   1.155   0.435  12.396
 6413SOL     OW21070  10.662   1.194  13.946
 6413SOL    HW121071  10.732   1.176  13.883
 6413SOL    HW221072  10.680   1.284  13.976
 6414SOL     OW21073   2.682   7.462  10.842
 6414SOL    HW121074   2.722   7.376  10.851
 6414SOL    HW221075   2.588   7.446  10.856
 6415SOL     OW21076  10.929  10.376   0.035
 6415SOL    HW121077  10.880  10.440   0.085
 6415SOL    HW221078  11.012  10.419   0.014
 6416SOL     OW21079  14.060   3.291  14.149
 6416SOL    HW121080  14.089   3.340  14.072
 6416SOL    HW221081  14.108   3.331  14.222
 6417SOL     OW21082   6.394   0.356   9.045
 6417SOL    HW121083   6.372   0.304   8.967
 6417SOL    HW221084   6.445   0.296   9.100
 6418SOL     OW21085   2.830  12.276   2.432
 6418SOL    HW121086   2.834  12.218   2.356
 6418SOL    HW221087   2.737  12.285   2.450
 6419SOL     OW21088   0.564   7.137   6.952
 6419SOL    HW121089   0.628   7.068   6.932
 6419SOL    HW221090   0.587   7.167   7.040
 6420SOL     OW21091   3.840   3.942  12.315
 6420SOL    HW121092   3.909   3.877  12.325
 6420SOL    HW221093   3.878   4.022  12.351
 6421SOL     OW21094   8.097  11.096   8.118
 6421SOL    HW121095   8.010  11.108   8.158
 6421SOL    HW221096   8.117  11.004   8.133
 6422SOL     OW21097   1.634   7.305  13.877
 6422SOL    HW121098   1.721   7.288  13.840
 6422SOL    HW221099   1.584   7.341  13.804
 6423SOL     OW21100  14.068  14.578   9.456
 6423SOL    HW121101  14.114  14.652   9.495
 6423SOL    HW221102  13.976  14.592   9.480
 6424SOL     OW21103   3.878   6.550   0.978
 6424SOL    HW121104   3.871   6.642   0.953
 6424SOL    HW221105   3.850   6.548   1.070
 6425SOL     OW21106  11.646  13.805   1.238
 6425SOL    HW121107  11.589  13.790   1.163
 6425SOL    HW221108  11.591  13.786   1.314
 6426SOL     OW21109   2.621   0.151   8.992
 6426SOL    HW121110   2.526   0.149   9.008
 6426SOL    HW221111   2.659   0.116   9.072
 6427SOL     OW21112   9.420   3.754   4.656
 6427SOL    HW121113   9.338   3.737   4.608
 6427SOL    HW221114   9.475   3.800   4.593
 6428SOL     OW21115  10.054  11.276   1.294
 6428SOL    HW121116  10.009  11.208   1.244
 6428SOL    HW221117  10.131  11.297   1.241
 6429SOL     OW21118   5.050   5.216   6.695
 6429SOL    HW121119   5.125   5.234   6.752
 6429SOL    HW221120   4.983   5.279   6.722
 6430SOL     OW21121   1.522   3.923   8.538
 6430SOL    HW121122   1.543   3.904   8.630
 6430SOL    HW221123   1.587   3.873   8.488
 6431SOL     OW21124   0.519  14.091   5.255
 6431SOL    HW121125   0.567  14.025   5.306
 6431SOL    HW221126   0.429  14.059   5.253
 6432SOL     OW21127   8.720  13.155  13.605
 6432SOL    HW121128   8.741  13.215  13.677
 6432SOL    HW221129   8.804  13.135  13.564
 6433SOL     OW21130  14.359   9.107  10.821
 6433SOL    HW121131  14.339   9.171  10.890
 6433SOL    HW221132  14.282   9.049  10.820
 6434SOL     OW21133   9.662   6.183   9.726
 6434SOL    HW121134   9.592   6.154   9.669
 6434SOL    HW221135   9.734   6.205   9.667
 6435SOL     OW21136   3.193   6.938   9.659
 6435SOL    HW121137   3.259   6.986   9.709
 6435SOL    HW221138   3.164   6.869   9.718
 6436SOL     OW21139  13.174  12.682   6.933
 6436SOL    HW121140  13.220  12.765   6.927
 6436SOL    HW221141  13.236  12.617   6.901
 6437SOL     OW21142  10.317  11.006   6.136
 6437SOL    HW121143  10.236  10.972   6.097
 6437SOL    HW221144  10.386  10.949   6.102
 6438SOL     OW21145  11.457  11.824   2.425
 6438SOL    HW121146  11.379  11.779   2.457
 6438SOL    HW221147  11.424  11.907   2.390
 6439SOL     OW21148  11.155   5.301   5.291
 6439SOL    HW121149  11.170   5.395   5.283
 6439SOL    HW221150  11.072   5.286   5.245
 6440SOL     OW21151  10.647   0.044  14.161
 6440SOL    HW121152  10.562   0.004  14.145
 6440SOL    HW221153  10.628   0.120  14.217
 6441SOL     OW21154   5.089   6.021  12.282
 6441SOL    HW121155   5.099   5.966  12.205
 6441SOL    HW221156   5.093   5.960  12.356
 6442SOL     OW21157  13.953   1.151  11.315
 6442SOL    HW121158  13.955   1.165  11.409
 6442SOL    HW221159  14.045   1.151  11.289
 6443SOL     OW21160   4.709   5.488  11.868
 6443SOL    HW121161   4.616   5.473  11.851
 6443SOL    HW221162   4.746   5.509  11.782
 6444SOL     OW21163  12.175   1.982   4.512
 6444SOL    HW121164  12.177   1.893   4.475
 6444SOL    HW221165  12.099   2.023   4.471
 6445SOL     OW21166   4.473  11.193  11.333
 6445SOL    HW121167   4.460  11.214  11.425
 6445SOL    HW221168   4.537  11.258  11.302
 6446SOL     OW21169  12.223   9.571  10.608
 6446SOL    HW121170  12.193   9.566  10.517
 6446SOL    HW221171  12.295   9.633  10.606
 6447SOL     OW21172   1.164   6.548  12.529
 6447SOL    HW121173   1.171   6.542  12.434
 6447SOL    HW221174   1.214   6.473  12.562
 6448SOL     OW21175   0.408   0.114   3.971
 6448SOL    HW121176   0.488   0.141   4.014
 6448SOL    HW221177   0.363   0.060   4.037
 6449SOL     OW21178   0.238  12.097   4.537
 6449SOL    HW121179   0.298  12.068   4.468
 6449SOL    HW221180   0.295  12.120   4.610
 6450SOL     OW21181  14.630  11.475   7.352
 6450SOL    HW121182  14.539  11.446   7.342
 6450SOL    HW221183  14.673  11.446   7.271
 6451SOL     OW21184   7.775  11.478   7.667
 6451SOL    HW121185   7.746  11.544   7.731
 6451SOL    HW221186   7.825  11.528   7.602
 6452SOL     OW21187   6.968   4.285   2.510
 6452SOL    HW121188   7.042   4.274   2.568
 6452SOL    HW221189   6.998   4.252   2.425
 6453SOL     OW21190   2.859   1.394   5.165
 6453SOL    HW121191   2.938   1.429   5.207
 6453SOL    HW221192   2.809   1.471   5.139
 6454SOL     OW21193  13.359   9.247  13.814
 6454SOL    HW121194  13.359   9.289  13.728
 6454SOL    HW221195  13.274   9.203  13.820
 6455SOL     OW21196   3.089   6.484   7.552
 6455SOL    HW121197   3.019   6.512   7.493
 6455SOL    HW221198   3.044   6.452   7.630
 6456SOL     OW21199  13.147   8.833   2.941
 6456SOL    HW121200  13.169   8.742   2.962
 6456SOL    HW221201  13.116   8.829   2.850
 6457SOL     OW21202   6.536   5.913   5.677
 6457SOL    HW121203   6.506   5.848   5.740
 6457SOL    HW221204   6.625   5.884   5.653
 6458SOL     OW21205   1.114   1.199  10.791
 6458SOL    HW121206   1.048   1.212  10.723
 6458SOL    HW221207   1.196   1.226  10.750
 6459SOL     OW21208   3.600   9.191  11.597
 6459SOL    HW121209   3.521   9.246  11.594
 6459SOL    HW221210   3.620   9.173  11.505
 6460SOL     OW21211   8.856   8.263   4.661
 6460SOL    HW121212   8.837   8.170   4.649
 6460SOL    HW221213   8.811   8.286   4.742
 6461SOL     OW21214  13.526  10.324   7.429
 6461SOL    HW121215  13.483  10.257   7.376
 6461SOL    HW221216  13.454  10.377   7.464
 6462SOL     OW21217   0.112   3.063   4.773
 6462SOL    HW121218   0.165   3.142   4.782
 6462SOL    HW221219   0.170   2.992   4.797
 6463SOL     OW21220   8.507  12.850   4.232
 6463SOL    HW121221   8.597  12.873   4.208
 6463SOL    HW221222   8.508  12.845   4.328
 6464SOL     OW21223   4.126  10.349  13.017
 6464SOL    HW121224   4.100  10.329  12.927
 6464SOL    HW221225   4.061  10.411  13.048
 6465SOL     OW21226   4.883   9.858  13.789
 6465SOL    HW121227   4.807   9.820  13.746
 6465SOL    HW221228   4.849   9.896  13.870
 6466SOL     OW21229  12.284   8.938  14.060
 6466SOL    HW121230  12.239   9.020  14.081
 6466SOL    HW221231  12.284   8.935  13.964
 6467SOL     OW21232   4.769   1.125   4.610
 6467SOL    HW121233   4.711   1.050   4.619
 6467SOL    HW221234   4.827   1.102   4.538
 6468SOL     OW21235   6.822   4.771  13.383
 6468SOL    HW121236   6.798   4.852  13.427
 6468SOL    HW221237   6.834   4.707  13.453
 6469SOL     OW21238  13.575  10.988   4.491
 6469SOL    HW121239  13.586  11.070   4.540
 6469SOL    HW221240  13.569  11.015   4.399
 6470SOL     OW21241   4.589   2.006   6.220
 6470SOL    HW121242   4.602   2.052   6.137
 6470SOL    HW221243   4.525   1.938   6.199
 6471SOL     OW21244   3.398  10.180  12.799
 6471SOL    HW121245   3.452  10.258  12.811
 6471SOL    HW221246   3.308  10.213  12.797
 6472SOL     OW21247   4.483   3.570   3.072
 6472SOL    HW121248   4.422   3.499   3.094
 6472SOL    HW221249   4.562   3.550   3.122
 6473SOL     OW21250  11.116   5.228   2.037
 6473SOL    HW121251  11.144   5.251   1.949
 6473SOL    HW221252  11.185   5.261   2.094
 6474SOL     OW21253   9.702   8.072   6.308
 6474SOL    HW121254   9.610   8.092   6.291
 6474SOL    HW221255   9.742   8.068   6.221
 6475SOL     OW21256   4.345   8.458   9.148
 6475SOL    HW121257   4.421   8.509   9.122
 6475SOL    HW221258   4.343   8.384   9.087
 6476SOL     OW21259  14.390   5.331   3.067
 6476SOL    HW121260  14.481   5.358   3.062
 6476SOL    HW221261  14.382   5.262   3.001
 6477SOL     OW21262   6.845   9.307   1.761
 6477SOL    HW121263   6.783   9.302   1.689
 6477SOL    HW221264   6.795   9.280   1.838
 6478SOL     OW21265  11.371   3.006   5.859
 6478SOL    HW121266  11.372   3.024   5.953
 6478SOL    HW221267  11.282   3.027   5.831
 6479SOL     OW21268   9.275  12.536  14.746
 6479SOL    HW121269   9.182  12.550  14.730
 6479SOL    HW221270   9.318  12.613  14.709
 6480SOL     OW21271   2.453   4.505   8.497
 6480SOL    HW121272   2.392   4.529   8.427
 6480SOL    HW221273   2.397   4.472   8.567
 6481SOL     OW21274  14.714  13.684   8.432
 6481SOL    HW121275  14.745  13.666   8.520
 6481SOL    HW221276  14.771  13.633   8.375
 6482SOL     OW21277  13.785   0.075   9.845
 6482SOL    HW121278  13.706   0.073   9.792
 6482SOL    HW221279  13.764   0.134   9.918
 6483SOL     OW21280   3.587   4.356   8.784
 6483SOL    HW121281   3.604   4.420   8.853
 6483SOL    HW221282   3.656   4.290   8.795
 6484SOL     OW21283  10.572  14.749   5.244
 6484SOL    HW121284  10.661  14.770   5.271
 6484SOL    HW221285  10.547  14.675   5.300
 6485SOL     OW21286   0.141   8.229   3.860
 6485SOL    HW121287   0.172   8.299   3.916
 6485SOL    HW221288   0.156   8.261   3.771
 6486SOL     OW21289   5.551   9.145  13.433
 6486SOL    HW121290   5.580   9.060  13.464
 6486SOL    HW221291   5.502   9.182  13.507
 6487SOL     OW21292   2.355   4.122   3.492
 6487SOL    HW121293   2.369   4.150   3.401
 6487SOL    HW221294   2.328   4.202   3.537
 6488SOL     OW21295   7.846   0.413   8.785
 6488SOL    HW121296   7.914   0.427   8.718
 6488SOL    HW221297   7.863   0.479   8.851
 6489SOL     OW21298   6.935  14.194   1.513
 6489SOL    HW121299   6.929  14.153   1.599
 6489SOL    HW221300   7.019  14.165   1.478
 6490SOL     OW21301   0.391   4.931   3.429
 6490SOL    HW121302   0.326   4.907   3.494
 6490SOL    HW221303   0.475   4.913   3.471
 6491SOL     OW21304  12.436  14.203  11.388
 6491SOL    HW121305  12.396  14.121  11.359
 6491SOL    HW221306  12.513  14.175  11.438
 6492SOL     OW21307   4.236  13.720  11.807
 6492SOL    HW121308   4.156  13.767  11.831
 6492SOL    HW221309   4.283  13.710  11.890
 6493SOL     OW21310  10.937  11.916   7.774
 6493SOL    HW121311  10.991  11.937   7.697
 6493SOL    HW221312  11.000  11.890   7.841
 6494SOL     OW21313  11.925   3.505   8.492
 6494SOL    HW121314  11.987   3.504   8.419
 6494SOL    HW221315  11.842   3.531   8.453
 6495SOL     OW21316   7.609   8.501  12.646
 6495SOL    HW121317   7.679   8.563  12.665
 6495SOL    HW221318   7.653   8.418  12.629
 6496SOL     OW21319  14.758  12.391   3.507
 6496SOL    HW121320  14.809  12.330   3.453
 6496SOL    HW221321  14.778  12.365   3.597
 6497SOL     OW21322   3.145   9.805   5.511
 6497SOL    HW121323   3.107   9.812   5.424
 6497SOL    HW221324   3.229   9.851   5.503
 6498SOL     OW21325   3.239   7.595   1.444
 6498SOL    HW121326   3.247   7.672   1.388
 6498SOL    HW221327   3.162   7.549   1.410
 6499SOL     OW21328   6.115  13.525   8.488
 6499SOL    HW121329   6.135  13.615   8.463
 6499SOL    HW221330   6.180  13.472   8.442
 6500SOL     OW21331   5.071   4.627  11.167
 6500SOL    HW121332   4.989   4.579  11.181
 6500SOL    HW221333   5.139   4.559  11.172
 6501SOL     OW21334   7.862  13.533   1.557
 6501SOL    HW121335   7.844  13.440   1.545
 6501SOL    HW221336   7.957  13.541   1.547
 6502SOL     OW21337   1.452   9.697   5.936
 6502SOL    HW121338   1.480   9.787   5.954
 6502SOL    HW221339   1.362   9.693   5.970
 6503SOL     OW21340   5.150   7.312   3.635
 6503SOL    HW121341   5.241   7.324   3.662
 6503SOL    HW221342   5.144   7.219   3.613
 6504SOL     OW21343   1.398   3.529   6.525
 6504SOL    HW121344   1.375   3.576   6.444
 6504SOL    HW221345   1.481   3.569   6.552
 6505SOL     OW21346   6.211   9.992  10.708
 6505SOL    HW121347   6.305   9.975  10.699
 6505SOL    HW221348   6.202  10.085  10.687
 6506SOL     OW21349   1.670   2.598   8.816
 6506SOL    HW121350   1.587   2.645   8.801
 6506SOL    HW221351   1.732   2.641   8.757
 6507SOL     OW21352  10.926  11.945   1.517
 6507SOL    HW121353  10.986  11.997   1.463
 6507SOL    HW221354  10.877  11.892   1.454
 6508SOL     OW21355   9.466   7.313   8.150
 6508SOL    HW121356   9.388   7.367   8.136
 6508SOL    HW221357   9.537   7.375   8.163
 6509SOL     OW21358   4.186   7.735   3.539
 6509SOL    HW121359   4.221   7.658   3.493
 6509SOL    HW221360   4.092   7.731   3.525
 6510SOL     OW21361  12.345   6.232   3.780
 6510SOL    HW121362  12.419   6.181   3.815
 6510SOL    HW221363  12.339   6.205   3.688
 6511SOL     OW21364   5.939   5.079   6.854
 6511SOL    HW121365   6.011   5.109   6.909
 6511SOL    HW221366   5.860   5.097   6.907
 6512SOL     OW21367  11.797  14.330  11.625
 6512SOL    HW121368  11.829  14.250  11.666
 6512SOL    HW221369  11.787  14.307  11.532
 6513SOL     OW21370  13.797  12.208   3.316
 6513SOL    HW121371  13.841  12.124   3.323
 6513SOL    HW221372  13.803  12.231   3.223
 6514SOL     OW21373  12.019   8.302  12.925
 6514SOL    HW121374  12.041   8.382  12.972
 6514SOL    HW221375  12.014   8.235  12.993
 6515SOL     OW21376   7.249   2.783   3.824
 6515SOL    HW121377   7.329   2.747   3.785
 6515SOL    HW221378   7.180   2.755   3.764
 6516SOL     OW21379   0.181  11.598   7.848
 6516SOL    HW121380   0.232  11.600   7.767
 6516SOL    HW221381   0.239  11.555   7.911
 6517SOL     OW21382   0.082   3.677   6.160
 6517SOL    HW121383   0.168   3.661   6.198
 6517SOL    HW221384   0.050   3.590   6.136
 6518SOL     OW21385   5.408   1.684   1.479
 6518SOL    HW121386   5.386   1.678   1.386
 6518SOL    HW221387   5.332   1.726   1.519
 6519SOL     OW21388  12.332   0.459  12.841
 6519SOL    HW121389  12.371   0.373  12.856
 6519SOL    HW221390  12.394   0.503  12.782
 6520SOL     OW21391   0.672   8.833  13.313
 6520SOL    HW121392   0.740   8.860  13.251
 6520SOL    HW221393   0.708   8.853  13.399
 6521SOL     OW21394   6.999  10.505   5.020
 6521SOL    HW121395   7.037  10.572   5.076
 6521SOL    HW221396   7.022  10.532   4.931
 6522SOL     OW21397   3.093   2.373   4.352
 6522SOL    HW121398   3.151   2.357   4.278
 6522SOL    HW221399   3.115   2.461   4.381
 6523SOL     OW21400   6.185  14.592  12.487
 6523SOL    HW121401   6.241  14.628  12.556
 6523SOL    HW221402   6.158  14.507  12.520
 6524SOL     OW21403   6.025   3.694   6.166
 6524SOL    HW121404   6.053   3.620   6.220
 6524SOL    HW221405   6.091   3.761   6.182
 6525SOL     OW21406   9.414   8.152  13.688
 6525SOL    HW121407   9.505   8.124  13.694
 6525SOL    HW221408   9.419   8.242  13.656
 6526SOL     OW21409   4.768   1.410   3.951
 6526SOL    HW121410   4.851   1.364   3.939
 6526SOL    HW221411   4.736   1.425   3.862
 6527SOL     OW21412   3.594   8.126   6.460
 6527SOL    HW121413   3.610   8.044   6.413
 6527SOL    HW221414   3.678   8.146   6.502
 6528SOL     OW21415   8.686  14.304   8.508
 6528SOL    HW121416   8.602  14.348   8.523
 6528SOL    HW221417   8.732  14.311   8.591
 6529SOL     OW21418   5.002  10.449   9.817
 6529SOL    HW121419   5.003  10.545   9.815
 6529SOL    HW221420   4.924  10.425   9.768
 6530SOL     OW21421  11.852   5.040   0.251
 6530SOL    HW121422  11.888   4.996   0.328
 6530SOL    HW221423  11.758   5.047   0.269
 6531SOL     OW21424  13.858   7.867   1.845
 6531SOL    HW121425  13.807   7.817   1.909
 6531SOL    HW221426  13.897   7.938   1.896
 6532SOL     OW21427   1.293  10.760   7.035
 6532SOL    HW121428   1.225  10.693   7.036
 6532SOL    HW221429   1.362  10.725   7.092
 6533SOL     OW21430  12.859  12.383   6.344
 6533SOL    HW121431  12.847  12.393   6.250
 6533SOL    HW221432  12.932  12.321   6.353
 6534SOL     OW21433   7.425  12.351  10.539
 6534SOL    HW121434   7.387  12.379  10.622
 6534SOL    HW221435   7.458  12.263  10.557
 6535SOL     OW21436   0.896   1.755   1.616
 6535SOL    HW121437   0.876   1.836   1.568
 6535SOL    HW221438   0.833   1.691   1.581
 6536SOL     OW21439  10.888  14.091   3.527
 6536SOL    HW121440  10.972  14.092   3.482
 6536SOL    HW221441  10.867  13.998   3.537
 6537SOL     OW21442   2.347   2.917   1.968
 6537SOL    HW121443   2.398   2.852   1.919
 6537SOL    HW221444   2.412   2.965   2.019
 6538SOL     OW21445  14.529   9.254   4.949
 6538SOL    HW121446  14.449   9.205   4.930
 6538SOL    HW221447  14.597   9.209   4.898
 6539SOL     OW21448   8.060  12.744   8.933
 6539SOL    HW121449   8.149  12.774   8.953
 6539SOL    HW221450   8.031  12.802   8.863
 6540SOL     OW21451  13.891   2.185  14.865
 6540SOL    HW121452  13.901   2.263  14.811
 6540SOL    HW221453  13.851   2.217   0.074
 6541SOL     OW21454  13.762   5.807   9.624
 6541SOL    HW121455  13.710   5.870   9.575
 6541SOL    HW221456  13.716   5.724   9.613
 6542SOL     OW21457  12.443   9.390   8.451
 6542SOL    HW121458  12.470   9.480   8.432
 6542SOL    HW221459  12.363   9.377   8.400
 6543SOL     OW21460  11.996   3.917   8.475
 6543SOL    HW121461  11.968   3.846   8.417
 6543SOL    HW221462  11.947   3.994   8.444
 6544SOL     OW21463   3.953  11.053   2.451
 6544SOL    HW121464   4.041  11.021   2.432
 6544SOL    HW221465   3.895  10.991   2.407
 6545SOL     OW21466   7.191   6.252  13.560
 6545SOL    HW121467   7.188   6.188  13.631
 6545SOL    HW221468   7.160   6.203  13.483
 6546SOL     OW21469  12.304  11.650  14.116
 6546SOL    HW121470  12.227  11.691  14.156
 6546SOL    HW221471  12.378  11.700  14.150
 6547SOL     OW21472   3.683   4.565  10.268
 6547SOL    HW121473   3.733   4.644  10.249
 6547SOL    HW221474   3.591   4.594  10.264
 6548SOL     OW21475   4.510   3.207   2.051
 6548SOL    HW121476   4.604   3.225   2.060
 6548SOL    HW221477   4.473   3.228   2.137
 6549SOL     OW21478   5.738   9.246   5.049
 6549SOL    HW121479   5.704   9.333   5.068
 6549SOL    HW221480   5.713   9.231   4.957
 6550SOL     OW21481   6.343   1.673  12.697
 6550SOL    HW121482   6.374   1.651  12.785
 6550SOL    HW221483   6.292   1.597  12.670
 6551SOL     OW21484  11.697   2.190  10.687
 6551SOL    HW121485  11.683   2.149  10.601
 6551SOL    HW221486  11.761   2.134  10.730
 6552SOL     OW21487   4.404   6.666   8.916
 6552SOL    HW121488   4.449   6.602   8.971
 6552SOL    HW221489   4.471   6.730   8.893
 6553SOL     OW21490   2.610   3.991   0.422
 6553SOL    HW121491   2.626   3.926   0.353
 6553SOL    HW221492   2.633   3.946   0.503
 6554SOL     OW21493   9.579   1.312  13.236
 6554SOL    HW121494   9.508   1.249  13.227
 6554SOL    HW221495   9.657   1.265  13.208
 6555SOL     OW21496   2.915   8.543   1.921
 6555SOL    HW121497   2.973   8.472   1.949
 6555SOL    HW221498   2.845   8.499   1.873
 6556SOL     OW21499   3.016   3.097   9.394
 6556SOL    HW121500   2.984   3.186   9.408
 6556SOL    HW221501   3.092   3.089   9.451
 6557SOL     OW21502   9.574   8.924   6.614
 6557SOL    HW121503   9.621   9.002   6.643
 6557SOL    HW221504   9.609   8.907   6.526
 6558SOL     OW21505   7.632  12.402  14.745
 6558SOL    HW121506   7.651  12.477  14.688
 6558SOL    HW221507   7.677  12.423  14.826
 6559SOL     OW21508  12.525   9.474  10.397
 6559SOL    HW121509  12.440   9.429  10.391
 6559SOL    HW221510  12.584   9.420  10.345
 6560SOL     OW21511  10.902   3.290   9.077
 6560SOL    HW121512  10.814   3.260   9.053
 6560SOL    HW221513  10.954   3.209   9.084
 6561SOL     OW21514   7.107  11.992   9.678
 6561SOL    HW121515   7.159  12.063   9.640
 6561SOL    HW221516   7.171  11.935   9.721
 6562SOL     OW21517  11.733   9.568   5.494
 6562SOL    HW121518  11.666   9.615   5.444
 6562SOL    HW221519  11.811   9.574   5.440
 6563SOL     OW21520  12.226   6.562   2.917
 6563SOL    HW121521  12.164   6.543   2.846
 6563SOL    HW221522  12.201   6.502   2.987
 6564SOL     OW21523  13.620  12.036  11.025
 6564SOL    HW121524  13.553  11.971  11.003
 6564SOL    HW221525  13.647  12.073  10.940
 6565SOL     OW21526   9.888  12.234   8.019
 6565SOL    HW121527   9.933  12.278   8.091
 6565SOL    HW221528   9.820  12.182   8.062
 6566SOL     OW21529   5.562  11.360   8.173
 6566SOL    HW121530   5.646  11.319   8.193
 6566SOL    HW221531   5.536  11.404   8.254
 6567SOL     OW21532  10.022   5.319   3.709
 6567SOL    HW121533  10.047   5.230   3.732
 6567SOL    HW221534   9.992   5.313   3.619
 6568SOL     OW21535   5.205   5.996   5.051
 6568SOL    HW121536   5.254   6.039   4.981
 6568SOL    HW221537   5.135   5.949   5.006
 6569SOL     OW21538   6.333   8.383   6.019
 6569SOL    HW121539   6.278   8.461   6.009
 6569SOL    HW221540   6.395   8.406   6.089
 6570SOL     OW21541   6.628   1.678   8.921
 6570SOL    HW121542   6.578   1.715   8.994
 6570SOL    HW221543   6.576   1.602   8.893
 6571SOL     OW21544  12.419  11.347   0.321
 6571SOL    HW121545  12.324  11.360   0.325
 6571SOL    HW221546  12.430  11.279   0.254
 6572SOL     OW21547  11.073   0.801   1.716
 6572SOL    HW121548  11.089   0.799   1.622
 6572SOL    HW221549  11.021   0.880   1.730
 6573SOL     OW21550   4.203   3.054   2.387
 6573SOL    HW121551   4.139   3.043   2.317
 6573SOL    HW221552   4.278   3.096   2.345
 6574SOL     OW21553  13.019   1.410   3.765
 6574SOL    HW121554  12.976   1.371   3.689
 6574SOL    HW221555  13.109   1.378   3.762
 6575SOL     OW21556   6.673   5.297   5.788
 6575SOL    HW121557   6.582   5.304   5.759
 6575SOL    HW221558   6.667   5.279   5.882
 6576SOL     OW21559   5.092   5.363   3.222
 6576SOL    HW121560   5.117   5.289   3.167
 6576SOL    HW221561   5.092   5.329   3.311
 6577SOL     OW21562   9.112  14.862   2.605
 6577SOL    HW121563   9.095  14.790   2.666
 6577SOL    HW221564   9.202  14.849   2.577
 6578SOL     OW21565   4.541   8.840   9.970
 6578SOL    HW121566   4.544   8.907  10.039
 6578SOL    HW221567   4.492   8.882   9.899
 6579SOL     OW21568   7.881   8.331   4.008
 6579SOL    HW121569   7.818   8.295   3.946
 6579SOL    HW221570   7.897   8.420   3.979
 6580SOL     OW21571   1.572  14.850  14.176
 6580SOL    HW121572   1.567  14.806  14.261
 6580SOL    HW221573   1.497   0.036  14.174
 6581SOL     OW21574  14.386  14.481   2.225
 6581SOL    HW121575  14.428  14.425   2.291
 6581SOL    HW221576  14.336  14.545   2.276
 6582SOL     OW21577   0.851  10.548   1.090
 6582SOL    HW121578   0.768  10.534   1.043
 6582SOL    HW221579   0.843  10.637   1.125
 6583SOL     OW21580   5.137   8.993   1.987
 6583SOL    HW121581   5.120   9.081   2.021
 6583SOL    HW221582   5.071   8.981   1.918
 6584SOL     OW21583  14.777   7.958  12.638
 6584SOL    HW121584  14.736   8.003  12.713
 6584SOL    HW221585  14.831   7.890  12.678
 6585SOL     OW21586   6.989  14.725  10.933
 6585SOL    HW121587   6.911  14.742  10.879
 6585SOL    HW221588   7.025  14.811  10.951
 6586SOL     OW21589   9.801   8.962   1.465
 6586SOL    HW121590   9.883   8.969   1.513
 6586SOL    HW221591   9.774   9.053   1.450
 6587SOL     OW21592  11.121   3.035   3.516
 6587SOL    HW121593  11.027   3.037   3.500
 6587SOL    HW221594  11.159   3.093   3.450
 6588SOL     OW21595  11.450   9.459   8.739
 6588SOL    HW121596  11.357   9.473   8.758
 6588SOL    HW221597  11.451   9.389   8.675
 6589SOL     OW21598   9.891   1.151   7.334
 6589SOL    HW121599   9.808   1.128   7.376
 6589SOL    HW221600   9.887   1.246   7.323
 6590SOL     OW21601  13.243  13.220  12.297
 6590SOL    HW121602  13.311  13.278  12.329
 6590SOL    HW221603  13.291  13.145  12.261
 6591SOL     OW21604   3.824  14.726  10.052
 6591SOL    HW121605   3.885  14.797  10.074
 6591SOL    HW221606   3.876  14.646  10.059
 6592SOL     OW21607  12.313   1.902   7.094
 6592SOL    HW121608  12.359   1.982   7.119
 6592SOL    HW221609  12.229   1.932   7.059
 6593SOL     OW21610   4.239   4.317   4.063
 6593SOL    HW121611   4.302   4.263   4.016
 6593SOL    HW221612   4.284   4.400   4.079
 6594SOL     OW21613   1.139   7.861  10.900
 6594SOL    HW121614   1.059   7.889  10.944
 6594SOL    HW221615   1.130   7.766  10.893
 6595SOL     OW21616   2.289   3.556   4.552
 6595SOL    HW121617   2.349   3.596   4.616
 6595SOL    HW221618   2.222   3.513   4.606
 6596SOL     OW21619   6.580  10.205   6.424
 6596SOL    HW121620   6.565  10.271   6.492
 6596SOL    HW221621   6.494  10.166   6.410
 6597SOL     OW21622  14.537  14.729   7.018
 6597SOL    HW121623  14.582  14.663   7.071
 6597SOL    HW221624  14.460  14.752   7.070
 6598SOL     OW21625   1.502   1.745   9.796
 6598SOL    HW121626   1.568   1.780   9.856
 6598SOL    HW221627   1.441   1.818   9.783
 6599SOL     OW21628   2.208   0.348   2.753
 6599SOL    HW121629   2.191   0.441   2.737
 6599SOL    HW221630   2.229   0.312   2.667
 6600SOL     OW21631   6.094   9.087  14.761
 6600SOL    HW121632   6.176   9.044  14.739
 6600SOL    HW221633   6.117   9.180  14.769
 6601SOL     OW21634   9.843  13.690   2.366
 6601SOL    HW121635   9.870  13.675   2.276
 6601SOL    HW221636   9.914  13.654   2.419
 6602SOL     OW21637   9.647   1.060  12.933
 6602SOL    HW121638   9.644   0.966  12.949
 6602SOL    HW221639   9.555   1.086  12.924
 6603SOL     OW21640   4.174  13.002   7.618
 6603SOL    HW121641   4.246  12.983   7.558
 6603SOL    HW221642   4.217  13.028   7.700
 6604SOL     OW21643   3.289  14.769   8.675
 6604SOL    HW121644   3.256  14.852   8.711
 6604SOL    HW221645   3.215  14.735   8.624
 6605SOL     OW21646   0.704   4.279   4.723
 6605SOL    HW121647   0.705   4.270   4.628
 6605SOL    HW221648   0.712   4.190   4.756
 6606SOL     OW21649  13.166   2.615  14.047
 6606SOL    HW121650  13.214   2.697  14.038
 6606SOL    HW221651  13.217   2.563  14.109
 6607SOL     OW21652  10.072   5.115   5.200
 6607SOL    HW121653  10.013   5.051   5.161
 6607SOL    HW221654  10.153   5.066   5.217
 6608SOL     OW21655   6.895  11.892   9.839
 6608SOL    HW121656   6.985  11.916   9.817
 6608SOL    HW221657   6.843  11.970   9.818
 6609SOL     OW21658  14.332   1.941   0.871
 6609SOL    HW121659  14.285   1.939   0.788
 6609SOL    HW221660  14.284   1.882   0.929
 6610SOL     OW21661  12.643   2.734  11.442
 6610SOL    HW121662  12.729   2.740  11.400
 6610SOL    HW221663  12.659   2.683  11.521
 6611SOL     OW21664  11.171   6.114  11.905
 6611SOL    HW121665  11.126   6.190  11.943
 6611SOL    HW221666  11.222   6.150  11.832
 6612SOL     OW21667  11.388   9.453   9.763
 6612SOL    HW121668  11.321   9.522   9.765
 6612SOL    HW221669  11.343   9.374   9.791
 6613SOL     OW21670   1.458   1.202  14.734
 6613SOL    HW121671   1.399   1.256  14.786
 6613SOL    HW221672   1.474   1.124  14.787
 6614SOL     OW21673   1.012  12.761  12.103
 6614SOL    HW121674   0.989  12.730  12.015
 6614SOL    HW221675   0.928  12.775  12.147
 6615SOL     OW21676   2.015  12.784   7.256
 6615SOL    HW121677   2.056  12.867   7.230
 6615SOL    HW221678   1.981  12.748   7.174
 6616SOL     OW21679  10.416  12.919   7.672
 6616SOL    HW121680  10.383  12.882   7.590
 6616SOL    HW221681  10.388  13.010   7.671
 6617SOL     OW21682   0.298   9.680  10.242
 6617SOL    HW121683   0.337   9.644  10.162
 6617SOL    HW221684   0.232   9.615  10.268
 6618SOL     OW21685   6.372   5.290   8.053
 6618SOL    HW121686   6.346   5.380   8.074
 6618SOL    HW221687   6.290   5.243   8.043
 6619SOL     OW21688   8.898   8.422  14.048
 6619SOL    HW121689   8.970   8.467  14.093
 6619SOL    HW221690   8.930   8.411  13.958
 6620SOL     OW21691   0.915   6.184   3.735
 6620SOL    HW121692   0.888   6.252   3.673
 6620SOL    HW221693   0.880   6.213   3.820
 6621SOL     OW21694   3.039   5.194   1.257
 6621SOL    HW121695   3.034   5.276   1.207
 6621SOL    HW221696   2.996   5.130   1.201
 6622SOL     OW21697   4.976   8.451  11.170
 6622SOL    HW121698   4.911   8.440  11.101
 6622SOL    HW221699   4.925   8.460  11.250
 6623SOL     OW21700   4.147   3.282   1.805
 6623SOL    HW121701   4.078   3.218   1.821
 6623SOL    HW221702   4.144   3.340   1.881
 6624SOL     OW21703  14.650  12.957   4.865
 6624SOL    HW121704  14.592  12.884   4.886
 6624SOL    HW221705  14.734  12.934   4.903
 6625SOL     OW21706  13.485   6.114   6.665
 6625SOL    HW121707  13.521   6.199   6.639
 6625SOL    HW221708  13.527   6.094   6.749
 6626SOL     OW21709   5.412   0.434   7.297
 6626SOL    HW121710   5.506   0.449   7.284
 6626SOL    HW221711   5.396   0.346   7.262
 6627SOL     OW21712   3.177   2.620  11.083
 6627SOL    HW121713   3.185   2.655  10.995
 6627SOL    HW221714   3.229   2.539  11.082
 6628SOL     OW21715   5.436  10.474   5.816
 6628SOL    HW121716   5.489  10.536   5.766
 6628SOL    HW221717   5.387  10.529   5.878
 6629SOL     OW21718  10.099  11.297  13.781
 6629SOL    HW121719  10.059  11.275  13.697
 6629SOL    HW221720  10.158  11.370  13.762
 6630SOL     OW21721  11.530   6.610   7.601
 6630SOL    HW121722  11.436   6.623   7.586
 6630SOL    HW221723  11.537   6.595   7.695
 6631SOL     OW21724  11.448   0.653   7.417
 6631SOL    HW121725  11.411   0.604   7.343
 6631SOL    HW221726  11.440   0.593   7.491
 6632SOL     OW21727   0.861  13.157  11.404
 6632SOL    HW121728   0.781  13.195  11.441
 6632SOL    HW221729   0.931  13.215  11.432
 6633SOL     OW21730   5.677   3.075   1.345
 6633SOL    HW121731   5.660   3.013   1.416
 6633SOL    HW221732   5.606   3.060   1.283
 6634SOL     OW21733   1.786   4.365  10.362
 6634SOL    HW121734   1.793   4.368  10.267
 6634SOL    HW221735   1.803   4.273  10.384
 6635SOL     OW21736   5.767   0.720   8.472
 6635SOL    HW121737   5.722   0.795   8.434
 6635SOL    HW221738   5.848   0.755   8.507
 6636SOL     OW21739  12.943   8.869   4.954
 6636SOL    HW121740  12.968   8.833   4.869
 6636SOL    HW221741  12.876   8.809   4.987
 6637SOL     OW21742  14.123   1.833  11.872
 6637SOL    HW121743  14.137   1.738  11.864
 6637SOL    HW221744  14.041   1.849  11.826
 6638SOL     OW21745   2.248  11.161  10.223
 6638SOL    HW121746   2.187  11.234  10.217
 6638SOL    HW221747   2.225  11.103  10.151
 6639SOL     OW21748   3.966  12.636   7.744
 6639SOL    HW121749   3.968  12.692   7.822
 6639SOL    HW221750   4.028  12.566   7.764
 6640SOL     OW21751   0.390   9.274   1.555
 6640SOL    HW121752   0.475   9.236   1.529
 6640SOL    HW221753   0.344   9.289   1.472
 6641SOL     OW21754   0.282  14.719   6.464
 6641SOL    HW121755   0.352  14.702   6.527
 6641SOL    HW221756   0.234  14.636   6.458
 6642SOL     OW21757  10.353  14.392  12.935
 6642SOL    HW121758  10.372  14.356  13.022
 6642SOL    HW221759  10.420  14.459  12.922
 6643SOL     OW21760   1.886  12.530   3.220
 6643SOL    HW121761   1.971  12.539   3.178
 6643SOL    HW221762   1.879  12.437   3.242
 6644SOL     OW21763  14.658   9.009   4.105
 6644SOL    HW121764  14.738   9.047   4.144
 6644SOL    HW221765  14.597   9.082   4.101
 6645SOL     OW21766   0.325   9.216   6.365
 6645SOL    HW121767   0.252   9.275   6.349
 6645SOL    HW221768   0.290   9.149   6.423
 6646SOL     OW21769   8.161   2.388   0.085
 6646SOL    HW121770   8.111   2.414   0.162
 6646SOL    HW221771   8.226   2.326   0.119
 6647SOL     OW21772   6.692  12.446  13.293
 6647SOL    HW121773   6.775  12.409  13.325
 6647SOL    HW221774   6.678  12.404  13.209
 6648SOL     OW21775  14.689   6.952  13.763
 6648SOL    HW121776  14.698   6.913  13.850
 6648SOL    HW221777  14.760   6.912  13.713
 6649SOL     OW21778   0.197   6.143   9.161
 6649SOL    HW121779   0.252   6.147   9.240
 6649SOL    HW221780   0.122   6.090   9.187
 6650SOL     OW21781  12.478   3.678  13.488
 6650SOL    HW121782  12.444   3.704  13.573
 6650SOL    HW221783  12.413   3.708  13.425
 6651SOL     OW21784   6.395   8.994   4.899
 6651SOL    HW121785   6.343   8.952   4.967
 6651SOL    HW221786   6.378   9.088   4.910
 6652SOL     OW21787  10.288   3.588  10.531
 6652SOL    HW121788  10.374   3.618  10.562
 6652SOL    HW221789  10.284   3.496  10.556
 6653SOL     OW21790   8.257   3.785   6.883
 6653SOL    HW121791   8.333   3.795   6.941
 6653SOL    HW221792   8.294   3.758   6.799
 6654SOL     OW21793  14.492   3.225   3.015
 6654SOL    HW121794  14.534   3.283   3.079
 6654SOL    HW221795  14.483   3.279   2.936
 6655SOL     OW21796   5.694   8.749   2.067
 6655SOL    HW121797   5.616   8.805   2.064
 6655SOL    HW221798   5.766   8.810   2.085
 6656SOL     OW21799   3.428   6.355   7.123
 6656SOL    HW121800   3.348   6.403   7.145
 6656SOL    HW221801   3.398   6.284   7.065
 6657SOL     OW21802   7.144   6.372   8.998
 6657SOL    HW121803   7.080   6.303   8.985
 6657SOL    HW221804   7.111   6.423   9.072
 6658SOL     OW21805  13.877   7.479   2.350
 6658SOL    HW121806  13.869   7.461   2.444
 6658SOL    HW221807  13.831   7.561   2.337
 6659SOL     OW21808  11.627   1.942  11.585
 6659SOL    HW121809  11.630   2.038  11.590
 6659SOL    HW221810  11.543   1.922  11.545
 6660SOL     OW21811  11.908   8.284   1.830
 6660SOL    HW121812  11.999   8.306   1.815
 6660SOL    HW221813  11.906   8.247   1.919
 6661SOL     OW21814  12.821   5.097  13.706
 6661SOL    HW121815  12.731   5.118  13.733
 6661SOL    HW221816  12.820   5.003  13.693
 6662SOL     OW21817   1.560   2.545  11.808
 6662SOL    HW121818   1.598   2.583  11.887
 6662SOL    HW221819   1.622   2.476  11.783
 6663SOL     OW21820   1.060   7.320   8.901
 6663SOL    HW121821   1.095   7.358   8.982
 6663SOL    HW221822   0.967   7.343   8.903
 6664SOL     OW21823   9.503  10.647  11.907
 6664SOL    HW121824   9.585  10.656  11.956
 6664SOL    HW221825   9.493  10.731  11.862
 6665SOL     OW21826  13.137   4.380   4.330
 6665SOL    HW121827  13.197   4.420   4.267
 6665SOL    HW221828  13.060   4.438   4.331
 6666SOL     OW21829  13.402   8.812   4.187
 6666SOL    HW121830  13.396   8.840   4.278
 6666SOL    HW221831  13.418   8.718   4.190
 6667SOL     OW21832  12.832  11.696   8.153
 6667SOL    HW121833  12.843  11.741   8.237
 6667SOL    HW221834  12.899  11.628   8.154
 6668SOL     OW21835  13.300  10.224   3.038
 6668SOL    HW121836  13.234  10.225   3.107
 6668SOL    HW221837  13.326  10.132   3.031
 6669SOL     OW21838   5.751   6.057   9.148
 6669SOL    HW121839   5.801   6.027   9.073
 6669SOL    HW221840   5.735   6.150   9.131
 6670SOL     OW21841  12.069   7.720   6.921
 6670SOL    HW121842  12.007   7.681   6.859
 6670SOL    HW221843  12.014   7.752   6.992
 6671SOL     OW21844  12.456   2.230   2.660
 6671SOL    HW121845  12.386   2.196   2.716
 6671SOL    HW221846  12.457   2.171   2.585
 6672SOL     OW21847   3.852   9.762   5.548
 6672SOL    HW121848   3.757   9.777   5.547
 6672SOL    HW221849   3.886   9.826   5.485
 6673SOL     OW21850   4.261   3.188   4.932
 6673SOL    HW121851   4.290   3.124   4.998
 6673SOL    HW221852   4.191   3.236   4.976
 6674SOL     OW21853   7.122   4.289   0.852
 6674SOL    HW121854   7.144   4.208   0.806
 6674SOL    HW221855   7.182   4.292   0.926
 6675SOL     OW21856  12.807  14.604   5.038
 6675SOL    HW121857  12.794  14.667   4.966
 6675SOL    HW221858  12.738  14.625   5.101
 6676SOL     OW21859   9.564  11.272  13.899
 6676SOL    HW121860   9.592  11.364  13.900
 6676SOL    HW221861   9.615  11.231  13.829
 6677SOL     OW21862   2.594   9.938   9.338
 6677SOL    HW121863   2.557  10.019   9.372
 6677SOL    HW221864   2.517   9.886   9.312
 6678SOL     OW21865   0.965   5.534   2.523
 6678SOL    HW121866   0.958   5.593   2.448
 6678SOL    HW221867   0.949   5.447   2.486
 6679SOL     OW21868   6.902  11.912   3.866
 6679SOL    HW121869   6.983  11.930   3.819
 6679SOL    HW221870   6.930  11.862   3.943
 6680SOL     OW21871   1.535  13.616   7.161
 6680SOL    HW121872   1.518  13.581   7.249
 6680SOL    HW221873   1.523  13.710   7.170
 6681SOL     OW21874   3.044   5.261   6.466
 6681SOL    HW121875   3.090   5.300   6.391
 6681SOL    HW221876   2.957   5.301   6.463
 6682SOL     OW21877  12.983  11.857   0.952
 6682SOL    HW121878  13.016  11.767   0.949
 6682SOL    HW221879  13.057  11.911   0.924
 6683SOL     OW21880   2.879   6.625   5.410
 6683SOL    HW121881   2.850   6.599   5.498
 6683SOL    HW221882   2.911   6.715   5.421
 6684SOL     OW21883   8.884   5.875   2.719
 6684SOL    HW121884   8.825   5.924   2.662
 6684SOL    HW221885   8.849   5.786   2.719
 6685SOL     OW21886   5.936  13.745  14.086
 6685SOL    HW121887   5.969  13.833  14.105
 6685SOL    HW221888   5.972  13.691  14.157
 6686SOL     OW21889   8.327  11.025   0.182
 6686SOL    HW121890   8.261  11.026   0.251
 6686SOL    HW221891   8.410  11.040   0.227
 6687SOL     OW21892   7.442   1.432   2.896
 6687SOL    HW121893   7.441   1.527   2.883
 6687SOL    HW221894   7.418   1.420   2.987
 6688SOL     OW21895  10.742  10.909   4.468
 6688SOL    HW121896  10.823  10.951   4.439
 6688SOL    HW221897  10.731  10.936   4.559
 6689SOL     OW21898   2.747   7.759   1.467
 6689SOL    HW121899   2.807   7.820   1.510
 6689SOL    HW221900   2.798   7.722   1.394
 6690SOL     OW21901  12.752   0.360  12.155
 6690SOL    HW121902  12.711   0.447  12.153
 6690SOL    HW221903  12.818   0.364  12.086
 6691SOL     OW21904   2.757   9.915  11.534
 6691SOL    HW121905   2.768   9.975  11.460
 6691SOL    HW221906   2.698   9.847  11.502
 6692SOL     OW21907  11.509  13.910  10.970
 6692SOL    HW121908  11.428  13.935  10.926
 6692SOL    HW221909  11.555  13.854  10.907
 6693SOL     OW21910  11.449   5.974   7.772
 6693SOL    HW121911  11.420   6.001   7.685
 6693SOL    HW221912  11.398   6.028   7.832
 6694SOL     OW21913   3.796   0.656   4.568
 6694SOL    HW121914   3.760   0.739   4.599
 6694SOL    HW221915   3.753   0.590   4.623
 6695SOL     OW21916   8.941   7.614  10.448
 6695SOL    HW121917   8.876   7.631  10.516
 6695SOL    HW221918   8.908   7.661  10.371
 6696SOL     OW21919  13.243   1.943  13.973
 6696SOL    HW121920  13.177   2.002  14.010
 6696SOL    HW221921  13.272   1.986  13.893
 6697SOL     OW21922   7.604   3.690   7.190
 6697SOL    HW121923   7.554   3.673   7.270
 6697SOL    HW221924   7.586   3.614   7.134
 6698SOL     OW21925   8.855  11.749   8.392
 6698SOL    HW121926   8.917  11.786   8.455
 6698SOL    HW221927   8.801  11.824   8.365
 6699SOL     OW21928   9.040   1.354   5.408
 6699SOL    HW121929   8.973   1.326   5.471
 6699SOL    HW221930   9.084   1.273   5.384
 6700SOL     OW21931  14.870  14.390   8.651
 6700SOL    HW121932   0.051  14.348   8.718
 6700SOL    HW221933   0.023  14.347   8.569
 6701SOL     OW21934   1.633   2.479   7.175
 6701SOL    HW121935   1.696   2.529   7.227
 6701SOL    HW221936   1.673   2.473   7.088
 6702SOL     OW21937  13.113   7.471  14.540
 6702SOL    HW121938  13.203   7.497  14.560
 6702SOL    HW221939  13.116   7.375  14.536
 6703SOL     OW21940   3.247   2.688   2.915
 6703SOL    HW121941   3.224   2.599   2.943
 6703SOL    HW221942   3.311   2.675   2.845
 6704SOL     OW21943  12.561  13.548   3.924
 6704SOL    HW121944  12.632  13.605   3.897
 6704SOL    HW221945  12.569  13.543   4.019
 6705SOL     OW21946   2.030   6.798   6.835
 6705SOL    HW121947   2.103   6.827   6.890
 6705SOL    HW221948   2.056   6.711   6.804
 6706SOL     OW21949  12.327  12.260   8.614
 6706SOL    HW121950  12.381  12.279   8.537
 6706SOL    HW221951  12.377  12.196   8.664
 6707SOL     OW21952   0.390   5.526  11.368
 6707SOL    HW121953   0.350   5.603  11.327
 6707SOL    HW221954   0.437   5.561  11.444
 6708SOL     OW21955   8.147   5.109   7.148
 6708SOL    HW121956   8.056   5.097   7.176
 6708SOL    HW221957   8.148   5.196   7.108
 6709SOL     OW21958  13.751   6.168  12.800
 6709SOL    HW121959  13.680   6.171  12.735
 6709SOL    HW221960  13.706   6.154  12.883
 6710SOL     OW21961   9.038   6.802  11.295
 6710SOL    HW121962   9.014   6.776  11.206
 6710SOL    HW221963   9.127   6.770  11.306
 6711SOL     OW21964  13.369   9.642   2.225
 6711SOL    HW121965  13.387   9.637   2.319
 6711SOL    HW221966  13.451   9.675   2.187
 6712SOL     OW21967  10.731   8.691   9.854
 6712SOL    HW121968  10.773   8.777   9.854
 6712SOL    HW221969  10.638   8.710   9.865
 6713SOL     OW21970   7.117  12.121   6.025
 6713SOL    HW121971   7.197  12.165   6.054
 6713SOL    HW221972   7.057  12.131   6.098
 6714SOL     OW21973  12.178   2.245   7.906
 6714SOL    HW121974  12.107   2.184   7.888
 6714SOL    HW221975  12.258   2.196   7.888
 6715SOL     OW21976  12.556  14.213  11.813
 6715SOL    HW121977  12.575  14.119  11.817
 6715SOL    HW221978  12.623  14.253  11.869
 6716SOL     OW21979  14.016   1.218   8.819
 6716SOL    HW121980  13.983   1.283   8.882
 6716SOL    HW221981  14.046   1.145   8.874
 6717SOL     OW21982   3.137   4.897   0.796
 6717SOL    HW121983   3.088   4.826   0.753
 6717SOL    HW221984   3.148   4.963   0.728
 6718SOL     OW21985  13.608   0.870   9.086
 6718SOL    HW121986  13.611   0.789   9.137
 6718SOL    HW221987  13.557   0.930   9.139
 6719SOL     OW21988  12.829  14.534   7.010
 6719SOL    HW121989  12.836  14.628   6.992
 6719SOL    HW221990  12.739  14.511   6.986
 6720SOL     OW21991   5.662   5.609   9.118
 6720SOL    HW121992   5.646   5.631   9.026
 6720SOL    HW221993   5.654   5.513   9.121
 6721SOL     OW21994   5.521   0.601   4.082
 6721SOL    HW121995   5.508   0.526   4.140
 6721SOL    HW221996   5.468   0.671   4.121
 6722SOL     OW21997   4.779   2.810   8.715
 6722SOL    HW121998   4.816   2.896   8.690
 6722SOL    HW221999   4.791   2.806   8.810
 6723SOL     OW22000   9.099   1.090   8.461
 6723SOL    HW122001   9.108   1.022   8.528
 6723SOL    HW222002   9.017   1.069   8.416
 6724SOL     OW22003   7.356   0.023  14.355
 6724SOL    HW122004   7.446   0.027  14.388
 6724SOL    HW222005   7.302   0.047  14.430
 6725SOL     OW22006  11.278  11.637   2.478
 6725SOL    HW122007  11.199  11.612   2.526
 6725SOL    HW222008  11.336  11.562   2.486
 6726SOL     OW22009  11.720   9.297   7.982
 6726SOL    HW122010  11.662   9.227   8.012
 6726SOL    HW222011  11.678   9.378   8.012
 6727SOL     OW22012  11.785  11.358   5.486
 6727SOL    HW122013  11.785  11.353   5.390
 6727SOL    HW222014  11.719  11.294   5.512
 6728SOL     OW22015   6.719   7.203  12.538
 6728SOL    HW122016   6.802   7.251  12.539
 6728SOL    HW222017   6.741   7.117  12.501
 6729SOL     OW22018   3.159  11.454   0.273
 6729SOL    HW122019   3.131  11.536   0.232
 6729SOL    HW222020   3.078  11.412   0.300
 6730SOL     OW22021  12.529  13.902   2.842
 6730SOL    HW122022  12.478  13.981   2.826
 6730SOL    HW222023  12.541  13.900   2.937
 6731SOL     OW22024   7.423   4.545   1.985
 6731SOL    HW122025   7.346   4.511   2.029
 6731SOL    HW222026   7.496   4.518   2.041
 6732SOL     OW22027   0.183   4.535   1.990
 6732SOL    HW122028   0.179   4.446   2.023
 6732SOL    HW222029   0.229   4.584   2.058
 6733SOL     OW22030  11.763   3.044   1.686
 6733SOL    HW122031  11.752   3.126   1.637
 6733SOL    HW222032  11.797   2.982   1.622
 6734SOL     OW22033  13.963  10.040  10.286
 6734SOL    HW122034  13.958  10.132  10.312
 6734SOL    HW222035  13.990  10.043  10.194
 6735SOL     OW22036   6.307   7.543  10.483
 6735SOL    HW122037   6.391   7.579  10.511
 6735SOL    HW222038   6.305   7.557  10.389
 6736SOL     OW22039  14.362  10.309   1.387
 6736SOL    HW122040  14.323  10.237   1.338
 6736SOL    HW222041  14.335  10.388   1.340
 6737SOL     OW22042  14.440   2.535  10.444
 6737SOL    HW122043  14.475   2.594  10.377
 6737SOL    HW222044  14.371   2.585  10.487
 6738SOL     OW22045   6.308   5.127   9.035
 6738SOL    HW122046   6.387   5.109   8.984
 6738SOL    HW222047   6.291   5.220   9.020
 6739SOL     OW22048   3.206   5.645   2.670
 6739SOL    HW122049   3.111   5.651   2.684
 6739SOL    HW222050   3.239   5.731   2.695
 6740SOL     OW22051   3.233  10.292   4.650
 6740SOL    HW122052   3.304  10.243   4.609
 6740SOL    HW222053   3.154  10.261   4.605
 6741SOL     OW22054   8.762  14.734   3.390
 6741SOL    HW122055   8.836  14.687   3.428
 6741SOL    HW222056   8.750  14.694   3.303
 6742SOL     OW22057   4.700   4.549   1.174
 6742SOL    HW122058   4.734   4.606   1.243
 6742SOL    HW222059   4.630   4.600   1.133
 6743SOL     OW22060   3.564  10.126   1.263
 6743SOL    HW122061   3.481  10.095   1.299
 6743SOL    HW222062   3.540  10.168   1.180
 6744SOL     OW22063   0.360   8.125  10.067
 6744SOL    HW122064   0.408   8.044  10.047
 6744SOL    HW222065   0.419   8.195  10.039
 6745SOL     OW22066   5.537   1.249   3.949
 6745SOL    HW122067   5.476   1.246   4.023
 6745SOL    HW222068   5.554   1.157   3.928
 6746SOL     OW22069   2.713  10.925   7.749
 6746SOL    HW122070   2.695  10.928   7.655
 6746SOL    HW222071   2.757  10.841   7.763
 6747SOL     OW22072   2.242  13.474  11.472
 6747SOL    HW122073   2.286  13.442  11.550
 6747SOL    HW222074   2.198  13.396  11.436
 6748SOL     OW22075  13.846   7.318   3.121
 6748SOL    HW122076  13.867   7.237   3.168
 6748SOL    HW222077  13.931   7.351   3.092
 6749SOL     OW22078  10.580   0.923   8.168
 6749SOL    HW122079  10.489   0.900   8.187
 6749SOL    HW222080  10.589   0.912   8.074
 6750SOL     OW22081  12.906   4.105  12.285
 6750SOL    HW122082  12.990   4.151  12.294
 6750SOL    HW222083  12.913   4.057  12.203
 6751SOL     OW22084   1.783  13.963   0.878
 6751SOL    HW122085   1.854  13.911   0.915
 6751SOL    HW222086   1.806  13.972   0.785
 6752SOL     OW22087   4.723  13.247   3.174
 6752SOL    HW122088   4.715  13.333   3.216
 6752SOL    HW222089   4.780  13.197   3.231
 6753SOL     OW22090  10.454  12.573  11.151
 6753SOL    HW122091  10.522  12.526  11.199
 6753SOL    HW222092  10.480  12.563  11.059
 6754SOL     OW22093   5.082  12.232   9.124
 6754SOL    HW122094   5.066  12.314   9.171
 6754SOL    HW222095   4.994  12.198   9.105
 6755SOL     OW22096   9.586   4.857   3.202
 6755SOL    HW122097   9.565   4.805   3.279
 6755SOL    HW222098   9.501   4.885   3.168
 6756SOL     OW22099   6.139   8.207   2.601
 6756SOL    HW122100   6.194   8.167   2.533
 6756SOL    HW222101   6.053   8.168   2.587
 6757SOL     OW22102  13.574   4.042   3.674
 6757SOL    HW122103  13.487   4.045   3.636
 6757SOL    HW222104  13.568   3.976   3.743
 6758SOL     OW22105   4.104   7.675   0.924
 6758SOL    HW122106   4.064   7.588   0.916
 6758SOL    HW222107   4.095   7.698   1.017
 6759SOL     OW22108   6.508  13.309   6.727
 6759SOL    HW122109   6.446  13.249   6.687
 6759SOL    HW222110   6.578  13.319   6.663
 6760SOL     OW22111   1.878   3.755   0.093
 6760SOL    HW122112   1.879   3.703   0.013
 6760SOL    HW222113   1.925   3.835   0.070
 6761SOL     OW22114  13.883   2.008  14.088
 6761SOL    HW122115  13.885   1.924  14.135
 6761SOL    HW222116  13.817   1.995  14.020
 6762SOL     OW22117   8.505  13.186   4.355
 6762SOL    HW122118   8.592  13.160   4.387
 6762SOL    HW222119   8.517  13.197   4.261
 6763SOL     OW22120   4.571  10.407   9.998
 6763SOL    HW122121   4.525  10.379   9.919
 6763SOL    HW222122   4.520  10.371  10.070
 6764SOL     OW22123  11.411  10.859  14.474
 6764SOL    HW122124  11.383  10.825  14.389
 6764SOL    HW222125  11.425  10.782  14.528
 6765SOL     OW22126   3.135   9.362  14.162
 6765SOL    HW122127   3.042   9.372  14.142
 6765SOL    HW222128   3.159   9.445  14.203
 6766SOL     OW22129   9.834   3.993  10.686
 6766SOL    HW122130   9.796   3.936  10.753
 6766SOL    HW222131   9.761   4.047  10.656
 6767SOL     OW22132   6.307  13.330   3.689
 6767SOL    HW122133   6.328  13.419   3.716
 6767SOL    HW222134   6.230  13.307   3.742
 6768SOL     OW22135  10.444   0.088   0.977
 6768SOL    HW122136  10.535   0.076   0.949
 6768SOL    HW222137  10.450   0.096   1.073
 6769SOL     OW22138   6.675   4.090  12.772
 6769SOL    HW122139   6.599   4.097  12.829
 6769SOL    HW222140   6.647   4.034  12.699
 6770SOL     OW22141   1.127   6.273  14.106
 6770SOL    HW122142   1.208   6.293  14.057
 6770SOL    HW222143   1.153   6.207  14.170
 6771SOL     OW22144  12.550   7.769   2.807
 6771SOL    HW122145  12.547   7.760   2.902
 6771SOL    HW222146  12.468   7.729   2.777
 6772SOL     OW22147   9.804  14.421   8.898
 6772SOL    HW122148   9.741  14.462   8.840
 6772SOL    HW222149   9.876  14.395   8.840
 6773SOL     OW22150   5.468   4.295  11.819
 6773SOL    HW122151   5.373   4.296  11.804
 6773SOL    HW222152   5.495   4.385  11.800
 6774SOL     OW22153   9.713   2.436   9.524
 6774SOL    HW122154   9.703   2.341   9.510
 6774SOL    HW222155   9.701   2.474   9.437
 6775SOL     OW22156   9.940   2.315  12.214
 6775SOL    HW122157   9.865   2.291  12.159
 6775SOL    HW222158   9.934   2.255  12.289
 6776SOL     OW22159   0.462  14.680   7.007
 6776SOL    HW122160   0.533  14.640   7.057
 6776SOL    HW222161   0.411  14.728   7.071
 6777SOL     OW22162  14.262   0.543   9.800
 6777SOL    HW122163  14.310   0.525   9.718
 6777SOL    HW222164  14.322   0.515   9.869
 6778SOL     OW22165  11.298  12.579   2.660
 6778SOL    HW122166  11.360  12.541   2.723
 6778SOL    HW222167  11.351  12.640   2.609
 6779SOL     OW22168   5.086   6.271   5.053
 6779SOL    HW122169   5.167   6.318   5.072
 6779SOL    HW222170   5.109   6.178   5.062
 6780SOL     OW22171   7.324  11.117  10.455
 6780SOL    HW122172   7.320  11.136  10.361
 6780SOL    HW222173   7.418  11.121  10.476
 6781SOL     OW22174  10.630   6.886   0.319
 6781SOL    HW122175  10.679   6.965   0.296
 6781SOL    HW222176  10.653   6.870   0.410
 6782SOL     OW22177   5.842  13.419   0.254
 6782SOL    HW122178   5.797  13.379   0.328
 6782SOL    HW222179   5.926  13.448   0.290
 6783SOL     OW22180   0.874   1.365  10.062
 6783SOL    HW122181   0.859   1.282  10.018
 6783SOL    HW222182   0.786   1.398  10.081
 6784SOL     OW22183   5.944   2.230  10.718
 6784SOL    HW122184   6.025   2.271  10.746
 6784SOL    HW222185   5.970   2.166  10.652
 6785SOL     OW22186   2.617  10.162   8.801
 6785SOL    HW122187   2.638  10.172   8.708
 6785SOL    HW222188   2.687  10.210   8.847
 6786SOL     OW22189   5.302   9.604   5.809
 6786SOL    HW122190   5.243   9.675   5.834
 6786SOL    HW222191   5.272   9.528   5.859
 6787SOL     OW22192  10.104   1.355   7.510
 6787SOL    HW122193  10.031   1.379   7.453
 6787SOL    HW222194  10.127   1.436   7.555
 6788SOL     OW22195  10.348   7.094  13.963
 6788SOL    HW122196  10.343   7.159  14.033
 6788SOL    HW222197  10.378   7.014  14.006
 6789SOL     OW22198  13.651  13.219  12.192
 6789SOL    HW122199  13.580  13.278  12.169
 6789SOL    HW222200  13.650  13.216  12.288
 6790SOL     OW22201   0.653  13.457   0.538
 6790SOL    HW122202   0.725  13.460   0.601
 6790SOL    HW222203   0.692  13.419   0.459
 6791SOL     OW22204   8.273  13.940   5.361
 6791SOL    HW122205   8.288  13.919   5.453
 6791SOL    HW222206   8.355  13.915   5.317
 6792SOL     OW22207  12.022   1.713   6.471
 6792SOL    HW122208  12.054   1.633   6.429
 6792SOL    HW222209  11.953   1.744   6.413
 6793SOL     OW22210   2.951   5.118   9.094
 6793SOL    HW122211   2.870   5.096   9.140
 6793SOL    HW222212   2.946   5.213   9.081
 6794SOL     OW22213   7.033   4.946   3.712
 6794SOL    HW122214   7.054   4.968   3.803
 6794SOL    HW222215   7.090   4.873   3.691
 6795SOL     OW22216   8.800  12.790   9.530
 6795SOL    HW122217   8.730  12.724   9.537
 6795SOL    HW222218   8.776  12.856   9.595
 6796SOL     OW22219   6.811   4.463  13.732
 6796SOL    HW122220   6.790   4.389  13.676
 6796SOL    HW222221   6.881   4.431  13.789
 6797SOL     OW22222   3.647   5.348   7.421
 6797SOL    HW122223   3.576   5.403   7.390
 6797SOL    HW222224   3.633   5.342   7.516
 6798SOL     OW22225   9.502  12.035   9.160
 6798SOL    HW122226   9.501  12.092   9.082
 6798SOL    HW222227   9.590  12.044   9.195
 6799SOL     OW22228   7.011   1.167  10.259
 6799SOL    HW122229   7.053   1.247  10.292
 6799SOL    HW222230   6.929   1.161  10.308
 6800SOL     OW22231   5.870   9.977   1.696
 6800SOL    HW122232   5.943  10.013   1.646
 6800SOL    HW222233   5.909   9.912   1.754
 6801SOL     OW22234   7.584   4.659  13.011
 6801SOL    HW122235   7.584   4.733  12.951
 6801SOL    HW222236   7.670   4.660  13.052
 6802SOL     OW22237   5.874   0.089   4.596
 6802SOL    HW122238   5.882   0.005   4.551
 6802SOL    HW222239   5.917   0.152   4.537
 6803SOL     OW22240   0.929   7.776   2.316
 6803SOL    HW122241   1.006   7.746   2.364
 6803SOL    HW222242   0.957   7.857   2.272
 6804SOL     OW22243   9.056   7.986   3.614
 6804SOL    HW122244   9.049   8.023   3.702
 6804SOL    HW222245   9.065   8.063   3.556
 6805SOL     OW22246  13.084  12.894   8.431
 6805SOL    HW122247  13.147  12.892   8.503
 6805SOL    HW222248  13.061  12.986   8.421
 6806SOL     OW22249  12.285  11.592   5.524
 6806SOL    HW122250  12.375  11.589   5.557
 6806SOL    HW222251  12.231  11.558   5.595
 6807SOL     OW22252   4.749  14.317   7.374
 6807SOL    HW122253   4.841  14.311   7.347
 6807SOL    HW222254   4.736  14.242   7.431
 6808SOL     OW22255   4.810  14.419   8.807
 6808SOL    HW122256   4.785  14.418   8.715
 6808SOL    HW222257   4.858  14.337   8.821
 6809SOL     OW22258   1.334   7.012   6.845
 6809SOL    HW122259   1.347   6.954   6.770
 6809SOL    HW222260   1.347   7.100   6.810
 6810SOL     OW22261   3.969   9.073   6.695
 6810SOL    HW122262   3.880   9.093   6.665
 6810SOL    HW222263   4.025   9.124   6.636
 6811SOL     OW22264   0.507   6.637  10.373
 6811SOL    HW122265   0.496   6.688  10.293
 6811SOL    HW222266   0.524   6.702  10.441
 6812SOL     OW22267  12.677   6.671   9.287
 6812SOL    HW122268  12.630   6.599   9.328
 6812SOL    HW222269  12.617   6.745   9.292
 6813SOL     OW22270   2.799   0.689  13.646
 6813SOL    HW122271   2.748   0.684  13.565
 6813SOL    HW222272   2.881   0.730  13.620
 6814SOL     OW22273  11.993   5.638   6.304
 6814SOL    HW122274  12.058   5.687   6.254
 6814SOL    HW222275  12.013   5.546   6.285
 6815SOL     OW22276  10.877  10.767  11.839
 6815SOL    HW122277  10.824  10.687  11.844
 6815SOL    HW222278  10.954  10.748  11.892
 6816SOL     OW22279   0.071   3.862   8.295
 6816SOL    HW122280   0.060   3.806   8.218
 6816SOL    HW222281   0.004   3.832   8.356
 6817SOL     OW22282   3.921  12.836   1.774
 6817SOL    HW122283   3.963  12.888   1.706
 6817SOL    HW222284   3.839  12.881   1.792
 6818SOL     OW22285  11.533  11.296  10.043
 6818SOL    HW122286  11.537  11.385  10.078
 6818SOL    HW222287  11.503  11.308   9.953
 6819SOL     OW22288   5.410   4.694  14.330
 6819SOL    HW122289   5.367   4.686  14.416
 6819SOL    HW222290   5.413   4.605  14.297
 6820SOL     OW22291   2.453   7.751   9.112
 6820SOL    HW122292   2.388   7.799   9.162
 6820SOL    HW222293   2.446   7.786   9.023
 6821SOL     OW22294   4.387   0.785  10.036
 6821SOL    HW122295   4.360   0.749  10.120
 6821SOL    HW222296   4.305   0.812   9.994
 6822SOL     OW22297   7.205  10.363  12.834
 6822SOL    HW122298   7.167  10.377  12.747
 6822SOL    HW222299   7.152  10.417  12.892
 6823SOL     OW22300   7.709  10.191   1.308
 6823SOL    HW122301   7.675  10.105   1.334
 6823SOL    HW222302   7.803  10.176   1.296
 6824SOL     OW22303  10.348   6.885  11.532
 6824SOL    HW122304  10.385   6.973  11.521
 6824SOL    HW222305  10.410   6.827  11.487
 6825SOL     OW22306   6.396  12.983   0.081
 6825SOL    HW122307   6.302  12.983   0.098
 6825SOL    HW222308   6.431  13.050   0.139
 6826SOL     OW22309  13.419  10.850  10.658
 6826SOL    HW122310  13.381  10.825  10.574
 6826SOL    HW222311  13.460  10.770  10.691
 6827SOL     OW22312   2.259  11.258   6.475
 6827SOL    HW122313   2.308  11.336   6.447
 6827SOL    HW222314   2.172  11.290   6.496
 6828SOL     OW22315  12.700   6.573   8.885
 6828SOL    HW122316  12.659   6.540   8.965
 6828SOL    HW222317  12.653   6.653   8.865
 6829SOL     OW22318   7.091   2.918   9.742
 6829SOL    HW122319   7.023   2.862   9.705
 6829SOL    HW222320   7.159   2.920   9.675
 6830SOL     OW22321   2.093   3.935   6.013
 6830SOL    HW122322   2.067   3.942   6.105
 6830SOL    HW222323   2.051   4.010   5.971
 6831SOL     OW22324  14.035   8.399  13.503
 6831SOL    HW122325  13.971   8.422  13.570
 6831SOL    HW222326  14.021   8.465  13.434
 6832SOL     OW22327  12.728   0.750   6.144
 6832SOL    HW122328  12.714   0.755   6.238
 6832SOL    HW222329  12.777   0.830   6.123
 6833SOL     OW22330  10.672   0.080   1.364
 6833SOL    HW122331  10.658   0.108   1.455
 6833SOL    HW222332  10.766   0.090   1.350
 6834SOL     OW22333   7.727  13.460   3.156
 6834SOL    HW122334   7.746  13.398   3.085
 6834SOL    HW222335   7.633  13.451   3.171
 6835SOL     OW22336   6.646  10.794   1.629
 6835SOL    HW122337   6.671  10.772   1.719
 6835SOL    HW222338   6.728  10.817   1.586
 6836SOL     OW22339  14.701  14.393   3.235
 6836SOL    HW122340  14.668  14.311   3.273
 6836SOL    HW222341  14.705  14.454   3.309
 6837SOL     OW22342  13.607   3.539   5.585
 6837SOL    HW122343  13.628   3.611   5.525
 6837SOL    HW222344  13.521   3.562   5.620
 6838SOL     OW22345   5.394  14.201  13.557
 6838SOL    HW122346   5.384  14.252  13.638
 6838SOL    HW222347   5.465  14.140  13.576
 6839SOL     OW22348   0.061   7.806   8.336
 6839SOL    HW122349   0.095   7.768   8.255
 6839SOL    HW222350   0.005   7.878   8.307
 6840SOL     OW22351   3.171  14.323   9.768
 6840SOL    HW122352   3.169  14.408   9.812
 6840SOL    HW222353   3.202  14.262   9.835
 6841SOL     OW22354   8.666  12.819   1.684
 6841SOL    HW122355   8.599  12.840   1.619
 6841SOL    HW222356   8.624  12.839   1.768
 6842SOL     OW22357  13.458   2.538   6.436
 6842SOL    HW122358  13.538   2.586   6.413
 6842SOL    HW222359  13.390   2.606   6.441
 6843SOL     OW22360  13.470   7.896   8.810
 6843SOL    HW122361  13.554   7.898   8.855
 6843SOL    HW222362  13.485   7.840   8.733
 6844SOL     OW22363  10.088   0.215   6.613
 6844SOL    HW122364  10.121   0.177   6.531
 6844SOL    HW222365  10.008   0.165   6.631
 6845SOL     OW22366   6.229   3.533   6.585
 6845SOL    HW122367   6.297   3.601   6.583
 6845SOL    HW222368   6.252   3.479   6.661
 6846SOL     OW22369  11.770   9.473  13.745
 6846SOL    HW122370  11.801   9.420  13.671
 6846SOL    HW222371  11.680   9.442  13.759
 6847SOL     OW22372  10.244   9.826   9.063
 6847SOL    HW122373  10.246   9.852   8.971
 6847SOL    HW222374  10.263   9.732   9.061
 6848SOL     OW22375  11.732   1.416  13.708
 6848SOL    HW122376  11.723   1.380  13.619
 6848SOL    HW222377  11.642   1.438  13.733
 6849SOL     OW22378   9.768   1.022   4.818
 6849SOL    HW122379   9.785   1.071   4.899
 6849SOL    HW222380   9.736   0.937   4.848
 6850SOL     OW22381   7.287  10.208   1.649
 6850SOL    HW122382   7.207  10.193   1.700
 6850SOL    HW222383   7.354  10.157   1.694
 6851SOL     OW22384  14.601  13.240   7.345
 6851SOL    HW122385  14.575  13.185   7.271
 6851SOL    HW222386  14.556  13.201   7.420
 6852SOL     OW22387   0.940  12.782   8.762
 6852SOL    HW122388   1.002  12.823   8.823
 6852SOL    HW222389   0.883  12.729   8.818
 6853SOL     OW22390   4.356  13.247   7.657
 6853SOL    HW122391   4.387  13.337   7.662
 6853SOL    HW222392   4.284  13.250   7.594
 6854SOL     OW22393   2.149   9.704   8.955
 6854SOL    HW122394   2.056   9.680   8.952
 6854SOL    HW222395   2.183   9.681   8.868
 6855SOL     OW22396  12.786   6.703   2.529
 6855SOL    HW122397  12.818   6.691   2.618
 6855SOL    HW222398  12.826   6.785   2.500
 6856SOL     OW22399   4.370   3.496   3.653
 6856SOL    HW122400   4.330   3.474   3.569
 6856SOL    HW222401   4.386   3.590   3.647
 6857SOL     OW22402  13.101   1.707   6.999
 6857SOL    HW122403  13.043   1.777   7.028
 6857SOL    HW222404  13.172   1.752   6.953
 6858SOL     OW22405   6.436   7.902  14.372
 6858SOL    HW122406   6.408   7.976  14.317
 6858SOL    HW222407   6.511   7.936  14.421
 6859SOL     OW22408   5.018   9.408   9.112
 6859SOL    HW122409   4.945   9.470   9.118
 6859SOL    HW222410   5.056   9.408   9.200
 6860SOL     OW22411   7.202  12.952   0.812
 6860SOL    HW122412   7.234  12.883   0.754
 6860SOL    HW222413   7.121  12.916   0.848
 6861SOL     OW22414  14.800   7.429   7.106
 6861SOL    HW122415  14.772   7.430   7.197
 6861SOL    HW222416   0.015   7.390   7.107
 6862SOL     OW22417  12.762   8.407   7.420
 6862SOL    HW122418  12.834   8.463   7.450
 6862SOL    HW222419  12.802   8.321   7.408
 6863SOL     OW22420  14.725   5.917   6.414
 6863SOL    HW122421  14.708   6.005   6.449
 6863SOL    HW222422  14.798   5.930   6.353
 6864SOL     OW22423  12.778   7.219   5.169
 6864SOL    HW122424  12.696   7.186   5.207
 6864SOL    HW222425  12.801   7.154   5.103
 6865SOL     OW22426   0.749  12.853   0.233
 6865SOL    HW122427   0.762  12.941   0.198
 6865SOL    HW222428   0.662  12.829   0.202
 6866SOL     OW22429   8.120   6.829   9.235
 6866SOL    HW122430   8.086   6.747   9.198
 6866SOL    HW222431   8.214   6.814   9.245
 6867SOL     OW22432   3.292  11.553  13.201
 6867SOL    HW122433   3.217  11.604  13.230
 6867SOL    HW222434   3.318  11.593  13.118
 6868SOL     OW22435  13.273   4.091   3.678
 6868SOL    HW122436  13.231   4.071   3.595
 6868SOL    HW222437  13.244   4.021   3.738
 6869SOL     OW22438   1.653   2.593  11.278
 6869SOL    HW122439   1.679   2.532  11.209
 6869SOL    HW222440   1.558   2.583  11.284
 6870SOL     OW22441   6.307  11.968  11.193
 6870SOL    HW122442   6.311  11.872  11.192
 6870SOL    HW222443   6.229  11.988  11.245
 6871SOL     OW22444   7.298   0.990  13.837
 6871SOL    HW122445   7.229   0.972  13.902
 6871SOL    HW222446   7.287   0.922  13.771
 6872SOL     OW22447   3.939   6.080  11.898
 6872SOL    HW122448   4.025   6.037  11.901
 6872SOL    HW222449   3.876   6.008  11.896
 6873SOL     OW22450   1.167  11.796   4.498
 6873SOL    HW122451   1.151  11.707   4.469
 6873SOL    HW222452   1.199  11.842   4.421
 6874SOL     OW22453   6.172  12.472   7.902
 6874SOL    HW122454   6.260  12.442   7.879
 6874SOL    HW222455   6.176  12.567   7.892
 6875SOL     OW22456  12.310   7.428  12.613
 6875SOL    HW122457  12.240   7.380  12.657
 6875SOL    HW222458  12.387   7.372  12.625
 6876SOL     OW22459   3.838  12.887   3.507
 6876SOL    HW122460   3.843  12.899   3.412
 6876SOL    HW222461   3.920  12.924   3.540
 6877SOL     OW22462   1.197  12.467  13.546
 6877SOL    HW122463   1.268  12.463  13.482
 6877SOL    HW222464   1.223  12.536  13.607
 6878SOL     OW22465   2.252   0.844  10.783
 6878SOL    HW122466   2.172   0.888  10.810
 6878SOL    HW222467   2.304   0.912  10.740
 6879SOL     OW22468   3.107   0.294   9.899
 6879SOL    HW122469   3.115   0.199   9.898
 6879SOL    HW222470   3.184   0.325   9.851
 6880SOL     OW22471  10.403  12.647   0.376
 6880SOL    HW122472  10.403  12.593   0.455
 6880SOL    HW222473  10.481  12.619   0.328
 6881SOL     OW22474  13.278   7.618   6.956
 6881SOL    HW122475  13.185   7.640   6.949
 6881SOL    HW222476  13.280   7.540   7.012
 6882SOL     OW22477   3.777  11.720   3.322
 6882SOL    HW122478   3.824  11.728   3.405
 6882SOL    HW222479   3.842  11.683   3.262
 6883SOL     OW22480   3.180   6.375   6.536
 6883SOL    HW122481   3.241   6.447   6.551
 6883SOL    HW222482   3.144   6.356   6.623
 6884SOL     OW22483   2.616  13.621  12.168
 6884SOL    HW122484   2.577  13.538  12.141
 6884SOL    HW222485   2.669  13.648  12.093
 6885SOL     OW22486   4.338  13.155   8.384
 6885SOL    HW122487   4.270  13.094   8.355
 6885SOL    HW222488   4.306  13.191   8.466
 6886SOL     OW22489  12.184   3.855   1.732
 6886SOL    HW122490  12.256   3.852   1.794
 6886SOL    HW222491  12.188   3.771   1.686
 6887SOL     OW22492  12.139   8.905   8.443
 6887SOL    HW122493  12.227   8.875   8.469
 6887SOL    HW222494  12.142   9.000   8.455
 6888SOL     OW22495   1.209   7.669  10.320
 6888SOL    HW122496   1.176   7.704  10.402
 6888SOL    HW222497   1.304   7.659  10.335
 6889SOL     OW22498   6.942   2.450   1.831
 6889SOL    HW122499   6.917   2.393   1.904
 6889SOL    HW222500   6.861   2.498   1.810
 6890SOL     OW22501   1.292   8.780   7.418
 6890SOL    HW122502   1.387   8.768   7.426
 6890SOL    HW222503   1.281   8.872   7.394
 6891SOL     OW22504   0.135   1.465  13.101
 6891SOL    HW122505   0.050   1.506  13.115
 6891SOL    HW222506   0.121   1.372  13.123
 6892SOL     OW22507  11.359  10.386   5.136
 6892SOL    HW122508  11.287  10.441   5.106
 6892SOL    HW222509  11.434  10.445   5.143
 6893SOL     OW22510   5.119   7.709   1.042
 6893SOL    HW122511   5.121   7.804   1.046
 6893SOL    HW222512   5.035   7.688   1.002
 6894SOL     OW22513  13.261   5.672   2.643
 6894SOL    HW122514  13.172   5.637   2.638
 6894SOL    HW222515  13.312   5.603   2.685
 6895SOL     OW22516  10.535   6.476   5.284
 6895SOL    HW122517  10.522   6.382   5.292
 6895SOL    HW222518  10.533   6.508   5.375
 6896SOL     OW22519  13.119   8.550   8.767
 6896SOL    HW122520  13.213   8.567   8.778
 6896SOL    HW222521  13.115   8.479   8.703
 6897SOL     OW22522  12.053  13.159   0.569
 6897SOL    HW122523  11.967  13.198   0.581
 6897SOL    HW222524  12.098  13.219   0.508
 6898SOL     OW22525   9.057   2.817   4.444
 6898SOL    HW122526   9.074   2.802   4.351
 6898SOL    HW222527   9.111   2.892   4.467
 6899SOL     OW22528   3.157   2.488   4.712
 6899SOL    HW122529   3.154   2.411   4.654
 6899SOL    HW222530   3.092   2.469   4.780
 6900SOL     OW22531  10.978  14.807  11.530
 6900SOL    HW122532  10.924  14.784  11.606
 6900SOL    HW222533  10.926  14.779  11.455
 6901SOL     OW22534   3.069  13.358  10.857
 6901SOL    HW122535   3.131  13.334  10.788
 6901SOL    HW222536   3.068  13.283  10.915
 6902SOL     OW22537  10.291   7.439   1.826
 6902SOL    HW122538  10.288   7.508   1.759
 6902SOL    HW222539  10.211   7.388   1.811
 6903SOL     OW22540   2.727   8.404   7.034
 6903SOL    HW122541   2.657   8.470   7.036
 6903SOL    HW222542   2.681   8.320   7.028
 6904SOL     OW22543   1.297   3.942  10.018
 6904SOL    HW122544   1.248   4.009  10.065
 6904SOL    HW222545   1.305   3.870  10.080
 6905SOL     OW22546  10.161  14.723  11.868
 6905SOL    HW122547  10.215  14.732  11.947
 6905SOL    HW222548  10.097  14.656  11.890
 6906SOL     OW22549  13.318   3.414   8.864
 6906SOL    HW122550  13.350   3.396   8.775
 6906SOL    HW222551  13.306   3.328   8.902
 6907SOL     OW22552   4.586   8.278  10.894
 6907SOL    HW122553   4.667   8.270  10.943
 6907SOL    HW222554   4.524   8.222  10.941
 6908SOL     OW22555   4.323   5.701   1.185
 6908SOL    HW122556   4.237   5.660   1.180
 6908SOL    HW222557   4.309   5.783   1.231
 6909SOL     OW22558   4.328   5.167   6.762
 6909SOL    HW122559   4.234   5.155   6.773
 6909SOL    HW222560   4.359   5.083   6.727
 6910SOL     OW22561  13.766  13.101   6.074
 6910SOL    HW122562  13.671  13.100   6.057
 6910SOL    HW222563  13.781  13.024   6.128
 6911SOL     OW22564   7.471   5.453   3.025
 6911SOL    HW122565   7.377   5.453   3.008
 6911SOL    HW222566   7.482   5.398   3.102
 6912SOL     OW22567  13.717   8.129   8.482
 6912SOL    HW122568  13.698   8.215   8.447
 6912SOL    HW222569  13.680   8.068   8.418
 6913SOL     OW22570   8.120   8.338   6.524
 6913SOL    HW122571   8.087   8.269   6.582
 6913SOL    HW222572   8.213   8.345   6.545
 6914SOL     OW22573   7.591  10.916   3.524
 6914SOL    HW122574   7.610  10.966   3.445
 6914SOL    HW222575   7.642  10.958   3.593
 6915SOL     OW22576  13.545   5.112   9.084
 6915SOL    HW122577  13.607   5.082   9.018
 6915SOL    HW222578  13.597   5.169   9.141
 6916SOL     OW22579   6.762   0.489   1.266
 6916SOL    HW122580   6.754   0.530   1.352
 6916SOL    HW222581   6.748   0.560   1.204
 6917SOL     OW22582  10.366  12.541   7.576
 6917SOL    HW122583  10.284  12.520   7.532
 6917SOL    HW222584  10.339  12.582   7.658
 6918SOL     OW22585   0.014   8.609   0.360
 6918SOL    HW122586   0.033   8.702   0.347
 6918SOL    HW222587   0.100   8.567   0.362
 6919SOL     OW22588   4.245   4.255  14.225
 6919SOL    HW122589   4.267   4.322  14.160
 6919SOL    HW222590   4.322   4.250  14.281
 6920SOL     OW22591   2.726   8.537  13.477
 6920SOL    HW122592   2.787   8.610  13.484
 6920SOL    HW222593   2.705   8.531  13.384
 6921SOL     OW22594   2.063  10.790   4.557
 6921SOL    HW122595   2.019  10.705   4.561
 6921SOL    HW222596   2.114  10.795   4.639
 6922SOL     OW22597   4.217   9.428   1.485
 6922SOL    HW122598   4.164   9.367   1.434
 6922SOL    HW222599   4.154   9.482   1.532
 6923SOL     OW22600   7.728   1.546  11.730
 6923SOL    HW122601   7.806   1.588  11.693
 6923SOL    HW222602   7.656   1.573  11.673
 6924SOL     OW22603  11.911  11.052  12.860
 6924SOL    HW122604  11.922  11.147  12.863
 6924SOL    HW222605  11.829  11.038  12.812
 6925SOL     OW22606  13.643  13.930   2.992
 6925SOL    HW122607  13.565  13.878   3.012
 6925SOL    HW222608  13.643  13.939   2.897
 6926SOL     OW22609   7.583   7.688   4.903
 6926SOL    HW122610   7.538   7.697   4.819
 6926SOL    HW222611   7.664   7.641   4.882
 6927SOL     OW22612  10.648  13.613   1.097
 6927SOL    HW122613  10.588  13.542   1.075
 6927SOL    HW222614  10.734  13.571   1.103
 6928SOL     OW22615   8.761   3.357   6.180
 6928SOL    HW122616   8.819   3.428   6.208
 6928SOL    HW222617   8.713   3.332   6.260
 6929SOL     OW22618   8.683  11.184   0.113
 6929SOL    HW122619   8.673  11.126   0.038
 6929SOL    HW222620   8.758  11.239   0.092
 6930SOL     OW22621  11.994   1.833   7.598
 6930SOL    HW122622  11.981   1.928   7.597
 6930SOL    HW222623  12.070   1.819   7.542
 6931SOL     OW22624   0.599   8.297   2.147
 6931SOL    HW122625   0.664   8.247   2.197
 6931SOL    HW222626   0.637   8.304   2.059
 6932SOL     OW22627   5.613   1.180   0.885
 6932SOL    HW122628   5.639   1.092   0.909
 6932SOL    HW222629   5.555   1.208   0.956
 6933SOL     OW22630   2.366   2.397   1.819
 6933SOL    HW122631   2.397   2.311   1.791
 6933SOL    HW222632   2.398   2.407   1.908
 6934SOL     OW22633   3.703   9.463   1.521
 6934SOL    HW122634   3.640   9.514   1.469
 6934SOL    HW222635   3.674   9.474   1.611
 6935SOL     OW22636   7.967   2.869   6.588
 6935SOL    HW122637   8.030   2.798   6.578
 6935SOL    HW222638   7.952   2.901   6.499
 6936SOL     OW22639   6.937   4.277   3.590
 6936SOL    HW122640   6.938   4.371   3.571
 6936SOL    HW222641   6.848   4.258   3.618
 6937SOL     OW22642   5.301  14.408   7.089
 6937SOL    HW122643   5.363  14.387   7.159
 6937SOL    HW222644   5.278  14.324   7.051
 6938SOL     OW22645   4.281   4.783  12.390
 6938SOL    HW122646   4.188   4.792  12.409
 6938SOL    HW222647   4.300   4.690  12.405
 6939SOL     OW22648   8.026   9.482  13.831
 6939SOL    HW122649   8.064   9.480  13.743
 6939SOL    HW222650   7.954   9.419  13.828
 6940SOL     OW22651  10.104   6.527   9.749
 6940SOL    HW122652  10.115   6.524   9.654
 6940SOL    HW222653  10.189   6.557   9.782
 6941SOL     OW22654  10.087   7.306  12.565
 6941SOL    HW122655  10.018   7.350  12.615
 6941SOL    HW222656  10.169   7.339  12.603
 6942SOL     OW22657   9.711  11.219  12.539
 6942SOL    HW122658   9.802  11.198  12.523
 6942SOL    HW222659   9.674  11.140  12.578
 6943SOL     OW22660   9.095   6.040   4.064
 6943SOL    HW122661   9.037   6.012   4.134
 6943SOL    HW222662   9.064   6.126   4.039
 6944SOL     OW22663   9.613  11.394   8.792
 6944SOL    HW122664   9.601  11.323   8.729
 6944SOL    HW222665   9.524  11.421   8.814
 6945SOL     OW22666   5.787  14.205  14.520
 6945SOL    HW122667   5.725  14.277  14.529
 6945SOL    HW222668   5.733  14.132  14.487
 6946SOL     OW22669  13.668   7.328  11.230
 6946SOL    HW122670  13.730   7.265  11.191
 6946SOL    HW222671  13.643   7.385  11.156
 6947SOL     OW22672   4.532   8.853   1.884
 6947SOL    HW122673   4.446   8.813   1.871
 6947SOL    HW222674   4.560   8.825   1.971
 6948SOL     OW22675   6.510  11.173   1.641
 6948SOL    HW122676   6.602  11.180   1.617
 6948SOL    HW222677   6.490  11.080   1.634
 6949SOL     OW22678   7.767  11.861   2.647
 6949SOL    HW122679   7.849  11.840   2.602
 6949SOL    HW222680   7.702  11.868   2.576
 6950SOL     OW22681   8.649  10.128   6.292
 6950SOL    HW122682   8.667  10.071   6.218
 6950SOL    HW222683   8.566  10.096   6.328
 6951SOL     OW22684  10.168   7.206   2.080
 6951SOL    HW122685  10.144   7.248   1.997
 6951SOL    HW222686  10.220   7.130   2.055
 6952SOL     OW22687   1.256  13.971   0.327
 6952SOL    HW122688   1.196  13.943   0.396
 6952SOL    HW222689   1.280  13.889   0.282
 6953SOL     OW22690   3.890   7.522   7.835
 6953SOL    HW122691   3.797   7.504   7.823
 6953SOL    HW222692   3.897   7.553   7.925
 6954SOL     OW22693  13.827   1.621   8.029
 6954SOL    HW122694  13.765   1.588   7.964
 6954SOL    HW222695  13.880   1.544   8.053
 6955SOL     OW22696  12.813  12.778  14.222
 6955SOL    HW122697  12.890  12.742  14.266
 6955SOL    HW222698  12.846  12.854  14.174
 6956SOL     OW22699   9.917  12.164  13.068
 6956SOL    HW122700   9.854  12.230  13.097
 6956SOL    HW222701   9.980  12.214  13.015
 6957SOL     OW22702   1.615  10.995   5.470
 6957SOL    HW122703   1.652  10.921   5.422
 6957SOL    HW222704   1.684  11.020   5.531
 6958SOL     OW22705   3.573   4.719  12.717
 6958SOL    HW122706   3.590   4.701  12.625
 6958SOL    HW222707   3.559   4.814  12.721
 6959SOL     OW22708   5.435  10.807  12.724
 6959SOL    HW122709   5.408  10.756  12.647
 6959SOL    HW222710   5.359  10.862  12.744
 6960SOL     OW22711  12.120   7.401   9.974
 6960SOL    HW122712  12.128   7.316  10.018
 6960SOL    HW222713  12.032   7.431   9.997
 6961SOL     OW22714   2.452   4.842   7.632
 6961SOL    HW122715   2.427   4.770   7.575
 6961SOL    HW222716   2.545   4.828   7.650
 6962SOL     OW22717   0.741  13.834   4.147
 6962SOL    HW122718   0.766  13.793   4.229
 6962SOL    HW222719   0.816  13.888   4.122
 6963SOL     OW22720   2.053  13.359   3.888
 6963SOL    HW122721   2.123  13.306   3.927
 6963SOL    HW222722   2.056  13.441   3.938
 6964SOL     OW22723   8.494   8.276   8.892
 6964SOL    HW122724   8.482   8.344   8.826
 6964SOL    HW222725   8.547   8.317   8.960
 6965SOL     OW22726  10.161   7.101   7.244
 6965SOL    HW122727  10.160   7.144   7.329
 6965SOL    HW222728  10.069   7.079   7.227
 6966SOL     OW22729   3.445   2.980   3.161
 6966SOL    HW122730   3.367   3.002   3.211
 6966SOL    HW222731   3.501   3.057   3.170
 6967SOL     OW22732   9.618  14.536   6.257
 6967SOL    HW122733   9.665  14.593   6.318
 6967SOL    HW222734   9.555  14.489   6.312
 6968SOL     OW22735   7.141   7.920   9.073
 6968SOL    HW122736   7.166   7.980   9.002
 6968SOL    HW222737   7.045   7.921   9.072
 6969SOL     OW22738   0.593   3.130  14.464
 6969SOL    HW122739   0.580   3.197  14.396
 6969SOL    HW222740   0.576   3.047  14.419
 6970SOL     OW22741   3.638  13.510   3.821
 6970SOL    HW122742   3.610  13.461   3.898
 6970SOL    HW222743   3.732  13.521   3.832
 6971SOL     OW22744   2.513  12.471   7.804
 6971SOL    HW122745   2.511  12.562   7.776
 6971SOL    HW222746   2.576  12.469   7.877
 6972SOL     OW22747  12.632   5.294  14.670
 6972SOL    HW122748  12.658   5.344  14.748
 6972SOL    HW222749  12.682   5.335  14.599
 6973SOL     OW22750   9.607   0.949  12.487
 6973SOL    HW122751   9.623   0.855  12.493
 6973SOL    HW222752   9.674   0.981  12.427
 6974SOL     OW22753   6.664   3.458  14.003
 6974SOL    HW122754   6.652   3.367  14.031
 6974SOL    HW222755   6.720   3.452  13.925
 6975SOL     OW22756   1.803  13.209   0.891
 6975SOL    HW122757   1.792  13.114   0.900
 6975SOL    HW222758   1.761  13.230   0.807
 6976SOL     OW22759   7.935   1.406   7.742
 6976SOL    HW122760   7.975   1.332   7.789
 6976SOL    HW222761   7.883   1.365   7.673
 6977SOL     OW22762  13.534  12.070  14.130
 6977SOL    HW122763  13.479  12.104  14.061
 6977SOL    HW222764  13.479  12.008  14.177
 6978SOL     OW22765  13.267  12.506   4.383
 6978SOL    HW122766  13.277  12.439   4.315
 6978SOL    HW222767  13.208  12.466   4.447
 6979SOL     OW22768   8.693   4.075   2.213
 6979SOL    HW122769   8.734   4.025   2.283
 6979SOL    HW222770   8.724   4.165   2.226
 6980SOL     OW22771  13.190   5.857   9.403
 6980SOL    HW122772  13.149   5.772   9.386
 6980SOL    HW222773  13.140   5.893   9.476
 6981SOL     OW22774  12.786  11.956   2.141
 6981SOL    HW122775  12.693  11.948   2.118
 6981SOL    HW222776  12.832  11.915   2.067
 6982SOL     OW22777   3.966   3.949  10.617
 6982SOL    HW122778   3.939   4.037  10.588
 6982SOL    HW222779   3.950   3.893  10.541
 6983SOL     OW22780   0.023   2.664  10.100
 6983SOL    HW122781   0.065   2.670  10.015
 6983SOL    HW222782   0.078   2.603  10.149
 6984SOL     OW22783   1.182  11.830   3.149
 6984SOL    HW122784   1.200  11.736   3.145
 6984SOL    HW222785   1.211  11.855   3.237
 6985SOL     OW22786   2.724  13.981   8.332
 6985SOL    HW122787   2.765  13.995   8.417
 6985SOL    HW222788   2.787  13.929   8.282
 6986SOL     OW22789   5.185   8.310   8.469
 6986SOL    HW122790   5.127   8.309   8.545
 6986SOL    HW222791   5.143   8.250   8.406
 6987SOL     OW22792   2.329   3.932   6.939
 6987SOL    HW122793   2.424   3.943   6.942
 6987SOL    HW222794   2.296   3.982   7.014
 6988SOL     OW22795   1.222   2.687  13.603
 6988SOL    HW122796   1.309   2.718  13.579
 6988SOL    HW222797   1.223   2.594  13.579
 6989SOL     OW22798  13.749  11.083  12.776
 6989SOL    HW122799  13.807  11.144  12.820
 6989SOL    HW222800  13.691  11.050  12.845
 6990SOL     OW22801   0.773   2.136   1.115
 6990SOL    HW122802   0.704   2.072   1.132
 6990SOL    HW222803   0.793   2.173   1.200
 6991SOL     OW22804   6.882  12.763   5.041
 6991SOL    HW122805   6.966  12.767   5.086
 6991SOL    HW222806   6.879  12.844   4.989
 6992SOL     OW22807   5.996   5.834  10.593
 6992SOL    HW122808   6.036   5.769  10.536
 6992SOL    HW222809   5.955   5.783  10.663
 6993SOL     OW22810  11.783  11.629   4.632
 6993SOL    HW122811  11.830  11.654   4.552
 6993SOL    HW222812  11.821  11.545   4.656
 6994SOL     OW22813  12.998   7.339   0.936
 6994SOL    HW122814  13.075   7.396   0.926
 6994SOL    HW222815  12.995   7.319   1.029
 6995SOL     OW22816   3.200   4.750   1.952
 6995SOL    HW122817   3.189   4.684   1.884
 6995SOL    HW222818   3.118   4.748   2.001
 6996SOL     OW22819  11.206   0.748   1.465
 6996SOL    HW122820  11.232   0.760   1.373
 6996SOL    HW222821  11.281   0.782   1.515
 6997SOL     OW22822   2.459   6.454   6.104
 6997SOL    HW122823   2.466   6.427   6.012
 6997SOL    HW222824   2.547   6.438   6.140
 6998SOL     OW22825   9.028   2.921  14.376
 6998SOL    HW122826   8.983   2.839  14.395
 6998SOL    HW222827   8.958   2.984  14.358
 6999SOL     OW22828   0.107   5.467  12.177
 6999SOL    HW122829   0.020   5.502  12.196
 6999SOL    HW222830   0.115   5.391  12.235
 7000SOL     OW22831   2.895  14.771   4.751
 7000SOL    HW122832   2.973  14.737   4.706
 7000SOL    HW222833   2.859  14.695   4.796
 7001SOL     OW22834   3.429   3.585  13.179
 7001SOL    HW122835   3.458   3.673  13.203
 7001SOL    HW222836   3.502   3.550  13.127
 7002SOL     OW22837  12.212  12.846  11.818
 7002SOL    HW122838  12.209  12.929  11.865
 7002SOL    HW222839  12.161  12.786  11.873
 7003SOL     OW22840  14.065   7.902  11.432
 7003SOL    HW122841  14.050   7.903  11.337
 7003SOL    HW222842  13.979   7.885  11.469
 7004SOL     OW22843   9.149   2.376   7.182
 7004SOL    HW122844   9.127   2.423   7.101
 7004SOL    HW222845   9.202   2.438   7.232
 7005SOL     OW22846   4.057   8.660  14.375
 7005SOL    HW122847   3.983   8.605  14.402
 7005SOL    HW222848   4.050   8.738  14.430
 7006SOL     OW22849  11.698   2.270   1.668
 7006SOL    HW122850  11.739   2.214   1.734
 7006SOL    HW222851  11.606   2.243   1.668
 7007SOL     OW22852  13.580   3.346   3.023
 7007SOL    HW122853  13.584   3.440   3.004
 7007SOL    HW222854  13.603   3.340   3.116
 7008SOL     OW22855   6.288  12.208   8.008
 7008SOL    HW122856   6.201  12.237   7.981
 7008SOL    HW222857   6.320  12.277   8.066
 7009SOL     OW22858   2.368  12.224   8.394
 7009SOL    HW122859   2.362  12.278   8.472
 7009SOL    HW222860   2.389  12.136   8.427
 7010SOL     OW22861  12.881   5.945  12.592
 7010SOL    HW122862  12.933   5.877  12.549
 7010SOL    HW222863  12.795   5.905  12.603
 7011SOL     OW22864  14.060   1.986  14.354
 7011SOL    HW122865  14.031   1.900  14.323
 7011SOL    HW222866  14.142   2.002  14.308
 7012SOL     OW22867   2.314  13.928  11.753
 7012SOL    HW122868   2.351  13.840  11.761
 7012SOL    HW222869   2.383  13.979  11.709
 7013SOL     OW22870  10.502   5.662   9.449
 7013SOL    HW122871  10.492   5.693   9.539
 7013SOL    HW222872  10.412   5.656   9.417
 7014SOL     OW22873   6.066   6.860  11.591
 7014SOL    HW122874   6.053   6.925  11.522
 7014SOL    HW222875   6.024   6.898  11.668
 7015SOL     OW22876   6.951  11.075   4.503
 7015SOL    HW122877   6.970  11.164   4.473
 7015SOL    HW222878   6.888  11.042   4.439
 7016SOL     OW22879   7.272  10.435   5.785
 7016SOL    HW122880   7.239  10.407   5.700
 7016SOL    HW222881   7.276  10.355   5.837
 7017SOL     OW22882   5.357   1.335   9.783
 7017SOL    HW122883   5.401   1.420   9.785
 7017SOL    HW222884   5.408   1.282   9.721
 7018SOL     OW22885   4.413   8.497   1.725
 7018SOL    HW122886   4.470   8.424   1.749
 7018SOL    HW222887   4.460   8.542   1.655
 7019SOL     OW22888   4.642   7.381  13.522
 7019SOL    HW122889   4.600   7.465  13.502
 7019SOL    HW222890   4.730   7.404  13.550
 7020SOL     OW22891   6.936  14.783   0.678
 7020SOL    HW122892   6.996  14.710   0.665
 7020SOL    HW222893   6.890  14.791   0.595
 7021SOL     OW22894   3.347   5.916   1.746
 7021SOL    HW122895   3.427   5.873   1.776
 7021SOL    HW222896   3.374   5.964   1.667
 7022SOL     OW22897   5.732   6.349  11.974
 7022SOL    HW122898   5.790   6.409  12.022
 7022SOL    HW222899   5.645   6.368  12.009
 7023SOL     OW22900   5.319  13.304   3.178
 7023SOL    HW122901   5.261  13.244   3.224
 7023SOL    HW222902   5.326  13.380   3.235
 7024SOL     OW22903   8.211   5.887  13.956
 7024SOL    HW122904   8.223   5.923  14.044
 7024SOL    HW222905   8.179   5.961  13.904
 7025SOL     OW22906   2.528  13.042  13.124
 7025SOL    HW122907   2.482  13.051  13.040
 7025SOL    HW222908   2.479  12.975  13.171
 7026SOL     OW22909   1.696  10.861   2.824
 7026SOL    HW122910   1.747  10.833   2.748
 7026SOL    HW222911   1.610  10.822   2.812
 7027SOL     OW22912   3.764   8.691  10.486
 7027SOL    HW122913   3.747   8.782  10.463
 7027SOL    HW222914   3.820   8.695  10.563
 7028SOL     OW22915   7.251   8.189  14.280
 7028SOL    HW122916   7.229   8.254  14.213
 7028SOL    HW222917   7.169   8.173  14.326
 7029SOL     OW22918  10.715   1.065   9.547
 7029SOL    HW122919  10.811   1.070   9.546
 7029SOL    HW222920  10.687   1.120   9.475
 7030SOL     OW22921  14.494   6.556  13.526
 7030SOL    HW122922  14.427   6.617  13.495
 7030SOL    HW222923  14.514   6.502  13.449
 7031SOL     OW22924  14.240   5.925  12.451
 7031SOL    HW122925  14.150   5.955  12.436
 7031SOL    HW222926  14.232   5.864  12.524
 7032SOL     OW22927  12.829   7.591   5.762
 7032SOL    HW122928  12.844   7.543   5.843
 7032SOL    HW222929  12.746   7.556   5.728
 7033SOL     OW22930   8.976   7.737   3.658
 7033SOL    HW122931   8.995   7.830   3.667
 7033SOL    HW222932   9.054   7.701   3.615
 7034SOL     OW22933  12.175   6.711  12.590
 7034SOL    HW122934  12.210   6.796  12.566
 7034SOL    HW222935  12.104   6.695  12.527
 7035SOL     OW22936  10.968  12.669  12.728
 7035SOL    HW122937  10.926  12.726  12.793
 7035SOL    HW222938  11.061  12.690  12.733
 7036SOL     OW22939  14.498  11.525   1.698
 7036SOL    HW122940  14.536  11.613   1.697
 7036SOL    HW222941  14.437  11.526   1.772
 7037SOL     OW22942   7.790   0.326  10.813
 7037SOL    HW122943   7.696   0.337  10.829
 7037SOL    HW222944   7.832   0.365  10.890
 7038SOL     OW22945   8.759  10.274   0.316
 7038SOL    HW122946   8.724  10.201   0.367
 7038SOL    HW222947   8.780  10.341   0.381
 7039SOL     OW22948   1.216   1.011   4.306
 7039SOL    HW122949   1.287   0.976   4.359
 7039SOL    HW222950   1.152   1.042   4.370
 7040SOL     OW22951   4.425   4.175   8.560
 7040SOL    HW122952   4.437   4.203   8.651
 7040SOL    HW222953   4.352   4.113   8.564
 7041SOL     OW22954   5.679   4.773  14.412
 7041SOL    HW122955   5.593   4.781  14.371
 7041SOL    HW222956   5.665   4.798  14.503
 7042SOL     OW22957  11.175   5.876  13.682
 7042SOL    HW122958  11.208   5.863  13.771
 7042SOL    HW222959  11.136   5.792  13.658
 7043SOL     OW22960   6.968  12.925   2.132
 7043SOL    HW122961   7.048  12.876   2.112
 7043SOL    HW222962   6.898  12.876   2.087
 7044SOL     OW22963   6.609   6.131  13.426
 7044SOL    HW122964   6.666   6.184  13.370
 7044SOL    HW222965   6.590   6.188  13.501
 7045SOL     OW22966  10.593  13.191  11.118
 7045SOL    HW122967  10.525  13.251  11.149
 7045SOL    HW222968  10.656  13.189  11.190
 7046SOL     OW22969  10.619  13.183   8.391
 7046SOL    HW122970  10.528  13.209   8.374
 7046SOL    HW222971  10.626  13.096   8.352
 7047SOL     OW22972   6.882  14.724   1.407
 7047SOL    HW122973   6.850  14.765   1.488
 7047SOL    HW222974   6.906  14.798   1.351
 7048SOL     OW22975  11.855  11.914   7.826
 7048SOL    HW122976  11.764  11.895   7.849
 7048SOL    HW222977  11.852  11.938   7.733
 7049SOL     OW22978   4.477   5.769   7.483
 7049SOL    HW122979   4.521   5.766   7.568
 7049SOL    HW222980   4.388   5.798   7.504
 7050SOL     OW22981   5.759  12.795   3.408
 7050SOL    HW122982   5.791  12.879   3.375
 7050SOL    HW222983   5.781  12.797   3.501
 7051SOL     OW22984   0.802   8.730   8.731
 7051SOL    HW122985   0.733   8.746   8.796
 7051SOL    HW222986   0.882   8.763   8.772
 7052SOL     OW22987  10.637  11.608   9.357
 7052SOL    HW122988  10.591  11.577   9.279
 7052SOL    HW222989  10.681  11.688   9.330
 7053SOL     OW22990   3.818   3.522   7.122
 7053SOL    HW122991   3.762   3.480   7.188
 7053SOL    HW222992   3.791   3.484   7.039
 7054SOL     OW22993  12.961   6.826   3.620
 7054SOL    HW122994  13.052   6.846   3.600
 7054SOL    HW222995  12.926   6.788   3.540
 7055SOL     OW22996   2.380  14.267   4.307
 7055SOL    HW122997   2.331  14.185   4.304
 7055SOL    HW222998   2.334  14.324   4.245
 7056SOL     OW22999   7.226   9.634   0.306
 7056SOL    HW123000   7.240   9.650   0.212
 7056SOL    HW223001   7.287   9.692   0.350
 7057SOL     OW23002  12.212   4.486   7.433
 7057SOL    HW123003  12.204   4.421   7.502
 7057SOL    HW223004  12.218   4.570   7.479
 7058SOL     OW23005  11.017  11.588   8.239
 7058SOL    HW123006  11.059  11.674   8.234
 7058SOL    HW223007  10.935  11.605   8.285
 7059SOL     OW23008   1.766   1.609   3.559
 7059SOL    HW123009   1.754   1.547   3.486
 7059SOL    HW223010   1.775   1.553   3.636
 7060SOL     OW23011  10.369  12.397  14.182
 7060SOL    HW123012  10.427  12.345  14.237
 7060SOL    HW223013  10.367  12.483  14.223
 7061SOL     OW23014   7.897   3.873  11.234
 7061SOL    HW123015   7.909   3.886  11.140
 7061SOL    HW223016   7.815   3.918  11.253
 7062SOL     OW23017   8.904   0.330   9.352
 7062SOL    HW123018   8.859   0.367   9.429
 7062SOL    HW223019   8.906   0.236   9.369
 7063SOL     OW23020   3.252   6.668  11.206
 7063SOL    HW123021   3.167   6.626  11.202
 7063SOL    HW223022   3.280   6.675  11.115
 7064SOL     OW23023   5.348  10.810   6.186
 7064SOL    HW123024   5.369  10.733   6.239
 7064SOL    HW223025   5.398  10.881   6.227
 7065SOL     OW23026   0.504  13.018   7.585
 7065SOL    HW123027   0.520  12.932   7.546
 7065SOL    HW223028   0.591  13.057   7.593
 7066SOL     OW23029  13.035   8.321  10.083
 7066SOL    HW123030  13.053   8.234  10.120
 7066SOL    HW223031  12.999   8.371  10.156
 7067SOL     OW23032   5.917   3.710   2.071
 7067SOL    HW123033   5.948   3.623   2.045
 7067SOL    HW223034   5.989   3.769   2.048
 7068SOL     OW23035  10.403   8.853   8.455
 7068SOL    HW123036  10.367   8.931   8.412
 7068SOL    HW223037  10.388   8.868   8.549
 7069SOL     OW23038   5.199  11.752   5.720
 7069SOL    HW123039   5.286  11.788   5.737
 7069SOL    HW223040   5.212  11.657   5.720
 7070SOL     OW23041  10.659   7.489   2.055
 7070SOL    HW123042  10.657   7.445   2.140
 7070SOL    HW223043  10.747   7.472   2.021
 7071SOL     OW23044   6.737   1.889   5.288
 7071SOL    HW123045   6.646   1.878   5.260
 7071SOL    HW223046   6.784   1.914   5.208
 7072SOL     OW23047   5.539  12.222   5.501
 7072SOL    HW123048   5.612  12.278   5.475
 7072SOL    HW223049   5.516  12.174   5.422
 7073SOL     OW23050   5.063   7.937   3.187
 7073SOL    HW123051   5.001   8.004   3.157
 7073SOL    HW223052   5.009   7.875   3.236
 7074SOL     OW23053   3.001   0.673   0.574
 7074SOL    HW123054   3.089   0.703   0.599
 7074SOL    HW223055   2.951   0.675   0.655
 7075SOL     OW23056  11.111   9.743   0.033
 7075SOL    HW123057  11.113   9.835   0.006
 7075SOL    HW223058  11.045   9.703  14.850
 7076SOL     OW23059   6.755   6.061   2.844
 7076SOL    HW123060   6.773   6.074   2.937
 7076SOL    HW223061   6.840   6.039   2.806
 7077SOL     OW23062   1.707  12.826  14.828
 7077SOL    HW123063   1.619  12.790  14.841
 7077SOL    HW223064   1.694  12.908  14.781
 7078SOL     OW23065   3.508   2.755   2.378
 7078SOL    HW123066   3.546   2.756   2.466
 7078SOL    HW223067   3.572   2.707   2.325
 7079SOL     OW23068  10.506   0.383   5.928
 7079SOL    HW123069  10.559   0.327   5.871
 7079SOL    HW223070  10.433   0.411   5.874
 7080SOL     OW23071   0.464  11.382  11.601
 7080SOL    HW123072   0.510  11.435  11.536
 7080SOL    HW223073   0.412  11.320  11.550
 7081SOL     OW23074   2.304   3.422  10.363
 7081SOL    HW123075   2.332   3.390  10.277
 7081SOL    HW223076   2.352   3.503  10.375
 7082SOL     OW23077   5.028   0.616  13.367
 7082SOL    HW123078   5.063   0.680  13.306
 7082SOL    HW223079   5.105   0.577  13.407
 7083SOL     OW23080   9.057  11.696   1.808
 7083SOL    HW123081   9.148  11.672   1.792
 7083SOL    HW223082   9.043  11.777   1.759
 7084SOL     OW23083   4.957   5.525  12.003
 7084SOL    HW123084   4.877   5.520  11.950
 7084SOL    HW223085   5.019   5.467  11.958
 7085SOL     OW23086   5.523   1.398  13.272
 7085SOL    HW123087   5.599   1.422  13.219
 7085SOL    HW223088   5.546   1.424  13.361
 7086SOL     OW23089  14.025   7.567   3.214
 7086SOL    HW123090  14.024   7.529   3.126
 7086SOL    HW223091  13.934   7.591   3.231
 7087SOL     OW23092   9.408   1.886  10.025
 7087SOL    HW123093   9.450   1.937  10.095
 7087SOL    HW223094   9.462   1.807  10.018
 7088SOL     OW23095  11.262  11.270   1.208
 7088SOL    HW123096  11.255  11.247   1.301
 7088SOL    HW223097  11.173  11.294   1.183
 7089SOL     OW23098   9.075  14.263   5.740
 7089SOL    HW123099   9.131  14.279   5.816
 7089SOL    HW223100   9.135  14.260   5.666
 7090SOL     OW23101  13.548   8.082   0.130
 7090SOL    HW123102  13.491   8.147   0.171
 7090SOL    HW223103  13.518   7.998   0.164
 7091SOL     OW23104   6.616  10.309   3.378
 7091SOL    HW123105   6.600  10.254   3.456
 7091SOL    HW223106   6.648  10.248   3.312
 7092SOL     OW23107   2.968   6.343   5.935
 7092SOL    HW123108   3.035   6.411   5.924
 7092SOL    HW223109   2.991   6.299   6.017
 7093SOL     OW23110  12.860  10.907   1.086
 7093SOL    HW123111  12.919  10.894   1.160
 7093SOL    HW223112  12.911  10.879   1.010
 7094SOL     OW23113   7.576  10.212  10.129
 7094SOL    HW123114   7.578  10.116  10.127
 7094SOL    HW223115   7.508  10.236  10.065
 7095SOL     OW23116  10.641  14.253   4.278
 7095SOL    HW123117  10.731  14.223   4.267
 7095SOL    HW223118  10.647  14.348   4.268
 7096SOL     OW23119  13.674  14.482   6.771
 7096SOL    HW123120  13.585  14.506   6.743
 7096SOL    HW223121  13.667  14.468   6.865
 7097SOL     OW23122  10.432  14.378   3.903
 7097SOL    HW123123  10.446  14.447   3.837
 7097SOL    HW223124  10.474  14.301   3.865
 7098SOL     OW23125   3.281   6.421   0.905
 7098SOL    HW123126   3.231   6.341   0.889
 7098SOL    HW223127   3.233   6.489   0.857
 7099SOL     OW23128  11.526   3.114   0.787
 7099SOL    HW123129  11.608   3.135   0.743
 7099SOL    HW223130  11.475   3.067   0.720
 7100SOL     OW23131  13.354   0.730  14.819
 7100SOL    HW123132  13.288   0.768   0.005
 7100SOL    HW223133  13.345   0.636  14.830
 7101SOL     OW23134   5.448   3.846   7.225
 7101SOL    HW123135   5.509   3.801   7.282
 7101SOL    HW223136   5.365   3.800   7.238
 7102SOL     OW23137   0.331   2.082  13.152
 7102SOL    HW123138   0.423   2.056  13.165
 7102SOL    HW223139   0.305   2.119  13.237
 7103SOL     OW23140   1.513  10.106   4.391
 7103SOL    HW123141   1.480  10.092   4.480
 7103SOL    HW223142   1.608  10.102   4.400
 7104SOL     OW23143   6.477   1.647  11.608
 7104SOL    HW123144   6.399   1.698  11.631
 7104SOL    HW223145   6.462   1.561  11.648
 7105SOL     OW23146  12.119   9.543  12.117
 7105SOL    HW123147  12.048   9.501  12.068
 7105SOL    HW223148  12.113   9.635  12.093
 7106SOL     OW23149  14.294   8.947   6.592
 7106SOL    HW123150  14.237   8.938   6.516
 7106SOL    HW223151  14.271   8.874   6.649
 7107SOL     OW23152  13.976  12.306   9.528
 7107SOL    HW123153  13.961  12.287   9.435
 7107SOL    HW223154  13.981  12.401   9.532
 7108SOL     OW23155   6.823   0.504  12.834
 7108SOL    HW123156   6.810   0.426  12.888
 7108SOL    HW223157   6.856   0.570  12.894
 7109SOL     OW23158   9.559  14.686   8.392
 7109SOL    HW123159   9.645  14.652   8.368
 7109SOL    HW223160   9.573  14.779   8.407
 7110SOL     OW23161   2.172  13.225  13.931
 7110SOL    HW123162   2.224  13.175  13.994
 7110SOL    HW223163   2.115  13.160  13.890
 7111SOL     OW23164   2.387  10.684  12.742
 7111SOL    HW123165   2.401  10.757  12.680
 7111SOL    HW223166   2.351  10.614  12.688
 7112SOL     OW23167   9.849   1.728   1.700
 7112SOL    HW123168   9.788   1.801   1.697
 7112SOL    HW223169   9.893   1.730   1.615
 7113SOL     OW23170  14.656   5.684   0.541
 7113SOL    HW123171  14.582   5.741   0.560
 7113SOL    HW223172  14.674   5.698   0.448
 7114SOL     OW23173  14.845  11.282   9.159
 7114SOL    HW123174  14.832  11.374   9.183
 7114SOL    HW223175  14.773  11.236   9.202
 7115SOL     OW23176  14.658   9.791   7.695
 7115SOL    HW123177  14.657   9.882   7.725
 7115SOL    HW223178  14.685   9.742   7.773
 7116SOL     OW23179   8.434   1.643  13.043
 7116SOL    HW123180   8.339   1.641  13.030
 7116SOL    HW223181   8.459   1.551  13.048
 7117SOL     OW23182   1.949   0.236   5.342
 7117SOL    HW123183   2.040   0.212   5.324
 7117SOL    HW223184   1.953   0.326   5.374
 7118SOL     OW23185   1.329   5.917   0.416
 7118SOL    HW123186   1.377   5.874   0.487
 7118SOL    HW223187   1.279   5.847   0.375
 7119SOL     OW23188   0.630  11.117   6.571
 7119SOL    HW123189   0.586  11.033   6.557
 7119SOL    HW223190   0.574  11.181   6.527
 7120SOL     OW23191  11.644   1.968  13.263
 7120SOL    HW123192  11.601   1.949  13.346
 7120SOL    HW223193  11.606   1.905  13.201
 7121SOL     OW23194   8.910  10.209   6.377
 7121SOL    HW123195   8.819  10.191   6.352
 7121SOL    HW223196   8.950  10.242   6.297
 7122SOL     OW23197   0.913  11.651  12.228
 7122SOL    HW123198   0.843  11.594  12.261
 7122SOL    HW223199   0.987  11.633  12.286
 7123SOL     OW23200  12.077   0.417  12.949
 7123SOL    HW123201  12.163   0.446  12.920
 7123SOL    HW223202  12.088   0.323  12.968
 7124SOL     OW23203  10.801   0.329  11.856
 7124SOL    HW123204  10.806   0.408  11.910
 7124SOL    HW223205  10.806   0.361  11.766
 7125SOL     OW23206   3.098   4.246   3.259
 7125SOL    HW123207   3.169   4.182   3.259
 7125SOL    HW223208   3.061   4.241   3.171
 7126SOL     OW23209   7.506  10.283   1.973
 7126SOL    HW123210   7.516  10.230   2.052
 7126SOL    HW223211   7.414  10.271   1.948
 7127SOL     OW23212   1.496   4.203   2.460
 7127SOL    HW123213   1.542   4.119   2.455
 7127SOL    HW223214   1.483   4.228   2.368
 7128SOL     OW23215  11.459  11.541   7.510
 7128SOL    HW123216  11.393  11.484   7.472
 7128SOL    HW223217  11.523  11.482   7.550
 7129SOL     OW23218  11.385  12.626   3.078
 7129SOL    HW123219  11.435  12.634   2.997
 7129SOL    HW223220  11.331  12.705   3.081
 7130SOL     OW23221   1.953   4.095   2.011
 7130SOL    HW123222   1.876   4.073   1.960
 7130SOL    HW223223   1.979   4.012   2.052
 7131SOL     OW23224  11.411  13.266   5.495
 7131SOL    HW123225  11.364  13.320   5.558
 7131SOL    HW223226  11.496  13.251   5.537
 7132SOL     OW23227   7.298  10.306   8.532
 7132SOL    HW123228   7.207  10.328   8.510
 7132SOL    HW223229   7.310  10.218   8.498
 7133SOL     OW23230   0.212   1.575  12.454
 7133SOL    HW123231   0.232   1.592  12.362
 7133SOL    HW223232   0.248   1.650  12.501
 7134SOL     OW23233   1.168   1.106   3.722
 7134SOL    HW123234   1.116   1.100   3.642
 7134SOL    HW223235   1.233   1.174   3.704
 7135SOL     OW23236  11.365   0.634  12.512
 7135SOL    HW123237  11.428   0.700  12.539
 7135SOL    HW223238  11.290   0.647  12.570
 7136SOL     OW23239   0.512   1.366   5.584
 7136SOL    HW123240   0.578   1.312   5.541
 7136SOL    HW223241   0.436   1.309   5.595
 7137SOL     OW23242  10.119  14.496   1.125
 7137SOL    HW123243  10.123  14.547   1.206
 7137SOL    HW223244  10.097  14.560   1.058
 7138SOL     OW23245   6.361  14.512  12.916
 7138SOL    HW123246   6.267  14.533  12.920
 7138SOL    HW223247   6.399  14.557  12.991
 7139SOL     OW23248   3.015   9.504   4.316
 7139SOL    HW123249   2.931   9.533   4.353
 7139SOL    HW223250   3.059   9.585   4.291
 7140SOL     OW23251   9.843  13.124   7.253
 7140SOL    HW123252   9.749  13.145   7.252
 7140SOL    HW223253   9.846  13.033   7.284
 7141SOL     OW23254  13.594   4.999  14.389
 7141SOL    HW123255  13.547   4.936  14.334
 7141SOL    HW223256  13.535   5.074  14.395
 7142SOL     OW23257   6.023   5.873   1.122
 7142SOL    HW123258   6.027   5.936   1.195
 7142SOL    HW223259   6.084   5.908   1.057
 7143SOL     OW23260   3.770  12.417  12.603
 7143SOL    HW123261   3.718  12.491  12.633
 7143SOL    HW223262   3.724  12.340  12.638
 7144SOL     OW23263  11.108  13.847   3.673
 7144SOL    HW123264  11.128  13.754   3.672
 7144SOL    HW223265  11.192  13.890   3.682
 7145SOL     OW23266   5.480  12.676   2.292
 7145SOL    HW123267   5.503  12.621   2.368
 7145SOL    HW223268   5.563  12.686   2.244
 7146SOL     OW23269   4.557  13.787   3.761
 7146SOL    HW123270   4.519  13.837   3.833
 7146SOL    HW223271   4.482  13.763   3.707
 7147SOL     OW23272   1.671   1.972  12.279
 7147SOL    HW123273   1.583   1.973  12.317
 7147SOL    HW223274   1.696   2.064  12.275
 7148SOL     OW23275   8.204   8.014   3.356
 7148SOL    HW123276   8.157   8.008   3.439
 7148SOL    HW223277   8.211   8.108   3.340
 7149SOL     OW23278   7.567   7.723   7.289
 7149SOL    HW123279   7.507   7.786   7.252
 7149SOL    HW223280   7.654   7.753   7.262
 7150SOL     OW23281   8.301   5.793  10.461
 7150SOL    HW123282   8.265   5.717  10.415
 7150SOL    HW223283   8.252   5.867  10.426
 7151SOL     OW23284  10.681   4.600   0.634
 7151SOL    HW123285  10.613   4.583   0.699
 7151SOL    HW223286  10.639   4.659   0.570
 7152SOL     OW23287  14.172  14.462   2.827
 7152SOL    HW123288  14.256  14.499   2.800
 7152SOL    HW223289  14.161  14.384   2.771
 7153SOL     OW23290   3.889   0.828   6.016
 7153SOL    HW123291   3.865   0.915   5.986
 7153SOL    HW223292   3.808   0.777   6.011
 7154SOL     OW23293   7.587   7.661  13.061
 7154SOL    HW123294   7.491   7.663  13.057
 7154SOL    HW223295   7.615   7.722  12.993
 7155SOL     OW23296  13.157   5.860  13.937
 7155SOL    HW123297  13.113   5.776  13.922
 7155SOL    HW223298  13.087   5.924  13.943
 7156SOL     OW23299  12.660  13.427   3.081
 7156SOL    HW123300  12.674  13.393   2.992
 7156SOL    HW223301  12.635  13.350   3.132
 7157SOL     OW23302   6.100  13.393  13.344
 7157SOL    HW123303   6.066  13.475  13.380
 7157SOL    HW223304   6.153  13.356  13.414
 7158SOL     OW23305   7.234   7.874   2.111
 7158SOL    HW123306   7.159   7.924   2.079
 7158SOL    HW223307   7.200   7.824   2.186
 7159SOL     OW23308   0.398   1.851   7.724
 7159SOL    HW123309   0.436   1.787   7.664
 7159SOL    HW223310   0.473   1.905   7.752
 7160SOL     OW23311   6.000   4.569   2.110
 7160SOL    HW123312   5.984   4.639   2.173
 7160SOL    HW223313   5.947   4.496   2.141
 7161SOL     OW23314   7.524   6.506  13.240
 7161SOL    HW123315   7.545   6.433  13.299
 7161SOL    HW223316   7.579   6.578  13.272
 7162SOL     OW23317   8.538   6.321   4.895
 7162SOL    HW123318   8.543   6.415   4.912
 7162SOL    HW223319   8.593   6.308   4.818
 7163SOL     OW23320   2.664   3.991   7.857
 7163SOL    HW123321   2.606   3.988   7.934
 7163SOL    HW223322   2.721   4.066   7.874
 7164SOL     OW23323  12.261   0.623   7.657
 7164SOL    HW123324  12.297   0.588   7.576
 7164SOL    HW223325  12.168   0.599   7.654
 7165SOL     OW23326   3.144   3.230   6.978
 7165SOL    HW123327   3.109   3.311   7.014
 7165SOL    HW223328   3.151   3.171   7.053
 7166SOL     OW23329   1.744  14.330   3.736
 7166SOL    HW123330   1.788  14.252   3.703
 7166SOL    HW223331   1.782  14.402   3.686
 7167SOL     OW23332  12.619   8.264   9.397
 7167SOL    HW123333  12.616   8.171   9.418
 7167SOL    HW223334  12.690   8.299   9.451
 7168SOL     OW23335  13.804   6.850   6.328
 7168SOL    HW123336  13.857   6.902   6.268
 7168SOL    HW223337  13.854   6.850   6.410
 7169SOL     OW23338   3.242  12.733   7.815
 7169SOL    HW123339   3.236  12.699   7.904
 7169SOL    HW223340   3.160  12.782   7.802
 7170SOL     OW23341   6.275   7.002   7.568
 7170SOL    HW123342   6.333   7.077   7.582
 7170SOL    HW223343   6.285   6.949   7.647
 7171SOL     OW23344  11.451   2.157   9.764
 7171SOL    HW123345  11.477   2.066   9.772
 7171SOL    HW223346  11.433   2.169   9.671
 7172SOL     OW23347   5.320   2.909   6.147
 7172SOL    HW123348   5.287   2.853   6.218
 7172SOL    HW223349   5.246   2.967   6.127
 7173SOL     OW23350  14.619   1.106   8.633
 7173SOL    HW123351  14.682   1.132   8.566
 7173SOL    HW223352  14.547   1.169   8.623
 7174SOL     OW23353   4.075  11.621  10.069
 7174SOL    HW123354   4.034  11.542  10.035
 7174SOL    HW223355   4.166  11.616  10.039
 7175SOL     OW23356   2.664  13.166   4.476
 7175SOL    HW123357   2.718  13.187   4.552
 7175SOL    HW223358   2.585  13.127   4.513
 7176SOL     OW23359  13.687   7.585   1.930
 7176SOL    HW123360  13.717   7.504   1.971
 7176SOL    HW223361  13.688   7.649   2.000
 7177SOL     OW23362  10.727   0.352   9.011
 7177SOL    HW123363  10.699   0.441   9.033
 7177SOL    HW223364  10.741   0.354   8.916
 7178SOL     OW23365   9.748   8.922   7.226
 7178SOL    HW123366   9.833   8.953   7.195
 7178SOL    HW223367   9.685   8.968   7.171
 7179SOL     OW23368   2.359  14.670  13.119
 7179SOL    HW123369   2.294  14.710  13.061
 7179SOL    HW223370   2.431  14.645  13.061
 7180SOL     OW23371   4.685   2.785   1.116
 7180SOL    HW123372   4.709   2.773   1.024
 7180SOL    HW223373   4.589   2.788   1.116
 7181SOL     OW23374   7.480   8.580  11.333
 7181SOL    HW123375   7.437   8.663  11.313
 7181SOL    HW223376   7.416   8.513  11.307
 7182SOL     OW23377  14.847   3.549   9.848
 7182SOL    HW123378  14.844   3.528   9.755
 7182SOL    HW223379  14.761   3.523   9.881
 7183SOL     OW23380   3.733   1.581   2.944
 7183SOL    HW123381   3.680   1.507   2.976
 7183SOL    HW223382   3.684   1.659   2.972
 7184SOL     OW23383  14.001   9.745   5.802
 7184SOL    HW123384  14.092   9.768   5.823
 7184SOL    HW223385  14.006   9.657   5.766
 7185SOL     OW23386   0.166   2.546   6.226
 7185SOL    HW123387   0.197   2.593   6.303
 7185SOL    HW223388   0.237   2.556   6.162
 7186SOL     OW23389  11.871  12.516   9.870
 7186SOL    HW123390  11.895  12.583   9.934
 7186SOL    HW223391  11.923  12.440   9.895
 7187SOL     OW23392   8.046   0.589  11.235
 7187SOL    HW123393   7.999   0.669  11.210
 7187SOL    HW223394   8.002   0.519  11.187
 7188SOL     OW23395  12.055   0.301  11.702
 7188SOL    HW123396  12.009   0.358  11.640
 7188SOL    HW223397  12.102   0.239  11.646
 7189SOL     OW23398   5.936  14.467   6.293
 7189SOL    HW123399   5.871  14.397   6.285
 7189SOL    HW223400   5.974  14.474   6.206
 7190SOL     OW23401   2.954   9.419   3.045
 7190SOL    HW123402   2.961   9.455   2.957
 7190SOL    HW223403   2.974   9.492   3.103
 7191SOL     OW23404   0.221  12.467  10.347
 7191SOL    HW123405   0.247  12.409  10.419
 7191SOL    HW223406   0.137  12.432  10.317
 7192SOL     OW23407   5.131  14.387   5.441
 7192SOL    HW123408   5.073  14.324   5.482
 7192SOL    HW223409   5.138  14.458   5.504
 7193SOL     OW23410   5.395   1.527   2.468
 7193SOL    HW123411   5.409   1.584   2.544
 7193SOL    HW223412   5.331   1.574   2.414
 7194SOL     OW23413   3.442  12.678  12.912
 7194SOL    HW123414   3.481  12.609  12.858
 7194SOL    HW223415   3.350  12.680  12.884
 7195SOL     OW23416   9.795  11.682  13.089
 7195SOL    HW123417   9.819  11.604  13.040
 7195SOL    HW223418   9.850  11.751  13.052
 7196SOL     OW23419   2.214  14.133   0.160
 7196SOL    HW123420   2.299  14.094   0.140
 7196SOL    HW223421   2.233  14.223   0.184
 7197SOL     OW23422   6.145   7.719   7.898
 7197SOL    HW123423   6.125   7.696   7.807
 7197SOL    HW223424   6.240   7.721   7.902
 7198SOL     OW23425   3.042   1.370   7.378
 7198SOL    HW123426   2.981   1.348   7.308
 7198SOL    HW223427   2.990   1.365   7.458
 7199SOL     OW23428   8.913   2.007   0.795
 7199SOL    HW123429   8.890   1.932   0.740
 7199SOL    HW223430   8.873   1.988   0.880
 7200SOL     OW23431   5.501   1.277   1.114
 7200SOL    HW123432   5.556   1.231   1.177
 7200SOL    HW223433   5.412   1.248   1.135
 7201SOL     OW23434   5.683   1.272   9.934
 7201SOL    HW123435   5.731   1.264  10.016
 7201SOL    HW223436   5.607   1.214   9.945
 7202SOL     OW23437   9.325   6.308  14.038
 7202SOL    HW123438   9.291   6.398  14.034
 7202SOL    HW223439   9.412   6.318  14.076
 7203SOL     OW23440   1.184  13.400   3.254
 7203SOL    HW123441   1.106  13.429   3.300
 7203SOL    HW223442   1.186  13.305   3.268
 7204SOL     OW23443  10.716   1.517  12.347
 7204SOL    HW123444  10.754   1.556  12.426
 7204SOL    HW223445  10.668   1.588  12.306
 7205SOL     OW23446   0.581   6.771   4.785
 7205SOL    HW123447   0.637   6.742   4.856
 7205SOL    HW223448   0.633   6.835   4.737
 7206SOL     OW23449  11.602  12.915  11.159
 7206SOL    HW123450  11.535  12.870  11.108
 7206SOL    HW223451  11.577  13.007  11.155
 7207SOL     OW23452   0.021   2.586   0.359
 7207SOL    HW123453  14.809   2.561   0.397
 7207SOL    HW223454   0.067   2.632   0.430
 7208SOL     OW23455  10.346   5.814  12.516
 7208SOL    HW123456  10.409   5.745  12.494
 7208SOL    HW223457  10.260   5.776  12.495
 7209SOL     OW23458  13.013   0.682  11.590
 7209SOL    HW123459  13.066   0.744  11.540
 7209SOL    HW223460  13.032   0.704  11.682
 7210SOL     OW23461  14.521   4.730   3.435
 7210SOL    HW123462  14.441   4.734   3.382
 7210SOL    HW223463  14.490   4.744   3.525
 7211SOL     OW23464   4.403   5.063   9.209
 7211SOL    HW123465   4.404   4.973   9.242
 7211SOL    HW223466   4.319   5.098   9.238
 7212SOL     OW23467  10.050  13.059  12.103
 7212SOL    HW123468  10.048  13.150  12.073
 7212SOL    HW223469  10.079  13.009  12.027
 7213SOL     OW23470   1.105  12.475  10.099
 7213SOL    HW123471   1.026  12.509  10.140
 7213SOL    HW223472   1.120  12.390  10.142
 7214SOL     OW23473   3.189  14.294  11.699
 7214SOL    HW123474   3.106  14.342  11.689
 7214SOL    HW223475   3.206  14.296  11.793
 7215SOL     OW23476   9.673  11.359  13.205
 7215SOL    HW123477   9.741  11.312  13.156
 7215SOL    HW223478   9.719  11.428  13.252
 7216SOL     OW23479  11.807  14.402   7.634
 7216SOL    HW123480  11.767  14.413   7.548
 7216SOL    HW223481  11.893  14.363   7.616
 7217SOL     OW23482   2.856   9.750   1.690
 7217SOL    HW123483   2.882   9.708   1.608
 7217SOL    HW223484   2.770   9.714   1.709
 7218SOL     OW23485   7.429   1.515  14.843
 7218SOL    HW123486   7.483   1.440  14.817
 7218SOL    HW223487   7.422   1.508   0.066
 7219SOL     OW23488  14.002   4.567   1.568
 7219SOL    HW123489  13.996   4.653   1.528
 7219SOL    HW223490  13.942   4.512   1.518
 7220SOL     OW23491  11.282   6.808  13.884
 7220SOL    HW123492  11.232   6.828  13.805
 7220SOL    HW223493  11.345   6.880  13.892
 7221SOL     OW23494   9.753  10.366   0.136
 7221SOL    HW123495   9.661  10.391   0.134
 7221SOL    HW223496   9.754  10.274   0.110
 7222SOL     OW23497  14.264  12.409   4.421
 7222SOL    HW123498  14.170  12.407   4.406
 7222SOL    HW223499  14.302  12.372   4.342
 7223SOL     OW23500  10.292   0.225   8.467
 7223SOL    HW123501  10.295   0.152   8.529
 7223SOL    HW223502  10.317   0.302   8.519
 7224SOL     OW23503   8.326   5.342   9.727
 7224SOL    HW123504   8.320   5.380   9.815
 7224SOL    HW223505   8.411   5.298   9.726
 7225SOL     OW23506   0.706  13.550  12.512
 7225SOL    HW123507   0.763  13.597  12.573
 7225SOL    HW223508   0.647  13.501  12.569
 7226SOL     OW23509   5.057   7.050   4.197
 7226SOL    HW123510   5.108   7.081   4.272
 7226SOL    HW223511   5.015   6.970   4.228
 7227SOL     OW23512   6.860   8.611  10.635
 7227SOL    HW123513   6.800   8.538  10.622
 7227SOL    HW223514   6.812   8.687  10.603
 7228SOL     OW23515   2.199   0.782   7.484
 7228SOL    HW123516   2.118   0.832   7.495
 7228SOL    HW223517   2.257   0.841   7.435
 7229SOL     OW23518   0.480   1.947  14.679
 7229SOL    HW123519   0.481   1.907  14.592
 7229SOL    HW223520   0.457   1.875  14.738
 7230SOL     OW23521   4.165   7.792   7.420
 7230SOL    HW123522   4.104   7.749   7.480
 7230SOL    HW223523   4.131   7.770   7.333
 7231SOL     OW23524   1.440   7.339   5.448
 7231SOL    HW123525   1.403   7.342   5.359
 7231SOL    HW223526   1.444   7.246   5.468
 7232SOL     OW23527   7.357   5.912   7.048
 7232SOL    HW123528   7.370   5.869   6.964
 7232SOL    HW223529   7.373   6.005   7.031
 7233SOL     OW23530  11.002   8.468   8.903
 7233SOL    HW123531  11.072   8.493   8.964
 7233SOL    HW223532  11.004   8.535   8.835
 7234SOL     OW23533   5.074   4.033   5.249
 7234SOL    HW123534   5.069   3.971   5.176
 7234SOL    HW223535   4.983   4.057   5.267
 7235SOL     OW23536   1.068  12.247   0.511
 7235SOL    HW123537   1.095  12.338   0.495
 7235SOL    HW223538   1.095  12.200   0.433
 7236SOL     OW23539   1.461   6.132   9.224
 7236SOL    HW123540   1.517   6.078   9.168
 7236SOL    HW223541   1.498   6.221   9.217
 7237SOL     OW23542  13.878  12.122   2.128
 7237SOL    HW123543  13.913  12.208   2.107
 7237SOL    HW223544  13.873  12.077   2.044
 7238SOL     OW23545   4.000   9.497  12.137
 7238SOL    HW123546   3.945   9.439  12.084
 7238SOL    HW223547   4.034   9.440  12.207
 7239SOL     OW23548   2.555  10.033   0.382
 7239SOL    HW123549   2.586  10.121   0.405
 7239SOL    HW223550   2.467  10.029   0.419
 7240SOL     OW23551  13.512   6.269   2.768
 7240SOL    HW123552  13.436   6.212   2.768
 7240SOL    HW223553  13.557   6.250   2.850
 7241SOL     OW23554  11.258  10.879   5.194
 7241SOL    HW123555  11.248  10.868   5.288
 7241SOL    HW223556  11.317  10.809   5.167
 7242SOL     OW23557   9.135  12.214   8.149
 7242SOL    HW123558   9.050  12.239   8.113
 7242SOL    HW223559   9.127  12.120   8.163
 7243SOL     OW23560  11.260   5.802   0.951
 7243SOL    HW123561  11.246   5.711   0.924
 7243SOL    HW223562  11.236   5.804   1.043
 7244SOL     OW23563  10.415   8.129   6.257
 7244SOL    HW123564  10.337   8.150   6.206
 7244SOL    HW223565  10.386   8.135   6.348
 7245SOL     OW23566   6.972   7.009   5.958
 7245SOL    HW123567   7.021   6.939   5.917
 7245SOL    HW223568   7.006   7.013   6.048
 7246SOL     OW23569   8.609   0.218   4.608
 7246SOL    HW123570   8.623   0.124   4.606
 7246SOL    HW223571   8.513   0.228   4.611
 7247SOL     OW23572   2.388   3.900   8.313
 7247SOL    HW123573   2.335   3.972   8.347
 7247SOL    HW223574   2.425   3.858   8.391
 7248SOL     OW23575   1.384  10.266   5.426
 7248SOL    HW123576   1.425  10.230   5.347
 7248SOL    HW223577   1.397  10.361   5.418
 7249SOL     OW23578   6.884   2.910   1.484
 7249SOL    HW123579   6.974   2.941   1.495
 7249SOL    HW223580   6.891   2.833   1.428
 7250SOL     OW23581  12.392  11.809   3.708
 7250SOL    HW123582  12.376  11.755   3.630
 7250SOL    HW223583  12.455  11.759   3.760
 7251SOL     OW23584   5.785  14.586   2.537
 7251SOL    HW123585   5.849  14.515   2.532
 7251SOL    HW223586   5.777  14.617   2.446
 7252SOL     OW23587  10.086  11.623   2.398
 7252SOL    HW123588  10.150  11.686   2.363
 7252SOL    HW223589  10.125  11.538   2.381
 7253SOL     OW23590   7.373  12.176  10.017
 7253SOL    HW123591   7.420  12.230  10.080
 7253SOL    HW223592   7.287  12.162  10.057
 7254SOL     OW23593   9.447   3.399   3.974
 7254SOL    HW123594   9.402   3.372   4.054
 7254SOL    HW223595   9.531   3.432   4.005
 7255SOL     OW23596   7.164   9.203  14.859
 7255SOL    HW123597   7.109   9.251  14.797
 7255SOL    HW223598   7.107   9.187   0.062
 7256SOL     OW23599  10.873   7.405  11.168
 7256SOL    HW123600  10.890   7.312  11.174
 7256SOL    HW223601  10.933   7.437  11.100
 7257SOL     OW23602  12.420   2.492   5.306
 7257SOL    HW123603  12.329   2.489   5.335
 7257SOL    HW223604  12.471   2.473   5.385
 7258SOL     OW23605   0.380  14.231   2.071
 7258SOL    HW123606   0.433  14.305   2.099
 7258SOL    HW223607   0.442  14.158   2.066
 7259SOL     OW23608   9.305   9.560  11.996
 7259SOL    HW123609   9.331   9.563  11.904
 7259SOL    HW223610   9.373   9.608  12.042
 7260SOL     OW23611   6.910   2.419   1.105
 7260SOL    HW123612   6.976   2.405   1.173
 7260SOL    HW223613   6.961   2.427   1.025
 7261SOL     OW23614   5.979   5.994   0.193
 7261SOL    HW123615   5.961   5.920   0.250
 7261SOL    HW223616   6.071   5.984   0.168
 7262SOL     OW23617   6.119   4.327   5.800
 7262SOL    HW123618   6.110   4.370   5.886
 7262SOL    HW223619   6.152   4.396   5.742
 7263SOL     OW23620   8.989   6.249  11.732
 7263SOL    HW123621   9.074   6.228  11.694
 7263SOL    HW223622   8.957   6.323  11.681
 7264SOL     OW23623   3.323   9.827  14.378
 7264SOL    HW123624   3.358   9.853  14.293
 7264SOL    HW223625   3.364   9.887  14.440
 7265SOL     OW23626   8.172  14.721  10.031
 7265SOL    HW123627   8.247  14.777  10.012
 7265SOL    HW223628   8.097  14.781  10.032
 7266SOL     OW23629   4.535  13.165   9.765
 7266SOL    HW123630   4.614  13.189   9.716
 7266SOL    HW223631   4.537  13.221   9.843
 7267SOL     OW23632   2.338  10.273   6.998
 7267SOL    HW123633   2.377  10.249   6.914
 7267SOL    HW223634   2.403  10.329   7.040
 7268SOL     OW23635  14.572   1.469   5.698
 7268SOL    HW123636  14.620   1.386   5.706
 7268SOL    HW223637  14.605   1.523   5.771
 7269SOL     OW23638  13.408   7.924   0.368
 7269SOL    HW123639  13.356   7.980   0.425
 7269SOL    HW223640  13.351   7.906   0.293
 7270SOL     OW23641   9.300  10.043   5.659
 7270SOL    HW123642   9.246  10.031   5.581
 7270SOL    HW223643   9.364  10.110   5.635
 7271SOL     OW23644   5.184  11.526   6.464
 7271SOL    HW123645   5.181  11.505   6.371
 7271SOL    HW223646   5.110  11.479   6.501
 7272SOL     OW23647  13.908   6.971  10.824
 7272SOL    HW123648  13.962   6.922  10.885
 7272SOL    HW223649  13.870   6.905  10.765
 7273SOL     OW23650   0.079   0.714   6.372
 7273SOL    HW123651   0.081   0.793   6.427
 7273SOL    HW223652   0.126   0.648   6.422
 7274SOL     OW23653   8.461  11.922  12.546
 7274SOL    HW123654   8.483  11.854  12.609
 7274SOL    HW223655   8.440  11.999  12.599
 7275SOL     OW23656   8.254   2.613   9.613
 7275SOL    HW123657   8.169   2.648   9.639
 7275SOL    HW223658   8.287   2.569   9.691
 7276SOL     OW23659   9.262  14.627   6.913
 7276SOL    HW123660   9.213  14.585   6.983
 7276SOL    HW223661   9.330  14.677   6.958
 7277SOL     OW23662   4.297   4.758   7.609
 7277SOL    HW123663   4.363   4.705   7.655
 7277SOL    HW223664   4.243   4.694   7.563
 7278SOL     OW23665   3.108  11.922   0.715
 7278SOL    HW123666   3.098  11.883   0.629
 7278SOL    HW223667   3.200  11.948   0.720
 7279SOL     OW23668  11.663   7.690   7.166
 7279SOL    HW123669  11.688   7.608   7.210
 7279SOL    HW223670  11.596   7.728   7.223
 7280SOL     OW23671  11.884   7.234  14.135
 7280SOL    HW123672  11.843   7.187  14.062
 7280SOL    HW223673  11.875   7.326  14.113
 7281SOL     OW23674   2.220  10.262   9.242
 7281SOL    HW123675   2.176  10.213   9.311
 7281SOL    HW223676   2.149  10.297   9.188
 7282SOL     OW23677  13.984   0.306  12.189
 7282SOL    HW123678  14.005   0.308  12.096
 7282SOL    HW223679  13.891   0.286  12.193
 7283SOL     OW23680   7.023   6.991   3.795
 7283SOL    HW123681   7.075   7.008   3.716
 7283SOL    HW223682   6.990   7.077   3.822
 7284SOL     OW23683   3.304   4.595  14.747
 7284SOL    HW123684   3.376   4.646  14.785
 7284SOL    HW223685   3.318   4.506  14.780
 7285SOL     OW23686   6.503  11.117   4.296
 7285SOL    HW123687   6.487  11.024   4.312
 7285SOL    HW223688   6.445  11.138   4.223
 7286SOL     OW23689   2.720  10.671   6.430
 7286SOL    HW123690   2.767  10.751   6.406
 7286SOL    HW223691   2.627  10.694   6.421
 7287SOL     OW23692   1.578   8.611   9.168
 7287SOL    HW123693   1.586   8.518   9.191
 7287SOL    HW223694   1.659   8.630   9.120
 7288SOL     OW23695   5.940   4.115  10.864
 7288SOL    HW123696   5.994   4.191  10.844
 7288SOL    HW223697   6.002   4.049  10.896
 7289SOL     OW23698  13.706   0.220   3.301
 7289SOL    HW123699  13.676   0.282   3.368
 7289SOL    HW223700  13.785   0.181   3.339
 7290SOL     OW23701   7.466  13.949   5.895
 7290SOL    HW123702   7.391  13.967   5.952
 7290SOL    HW223703   7.430  13.953   5.807
 7291SOL     OW23704  13.537  14.329   3.901
 7291SOL    HW123705  13.486  14.352   3.979
 7291SOL    HW223706  13.589  14.253   3.928
 7292SOL     OW23707   3.312  10.849   5.684
 7292SOL    HW123708   3.363  10.914   5.636
 7292SOL    HW223709   3.374  10.811   5.747
 7293SOL     OW23710  10.902  13.554  10.411
 7293SOL    HW123711  10.980  13.546  10.466
 7293SOL    HW223712  10.938  13.563  10.322
 7294SOL     OW23713   3.149   8.233   6.548
 7294SOL    HW123714   3.155   8.190   6.634
 7294SOL    HW223715   3.074   8.191   6.506
 7295SOL     OW23716   4.656   0.904   3.042
 7295SOL    HW123717   4.655   0.991   3.002
 7295SOL    HW223718   4.749   0.883   3.051
 7296SOL     OW23719  13.182  10.762  11.623
 7296SOL    HW123720  13.180  10.676  11.665
 7296SOL    HW223721  13.263  10.761  11.571
 7297SOL     OW23722  10.251  11.344   8.473
 7297SOL    HW123723  10.342  11.358   8.447
 7297SOL    HW223724  10.257  11.289   8.551
 7298SOL     OW23725   1.602   1.071  10.055
 7298SOL    HW123726   1.532   1.074   9.990
 7298SOL    HW223727   1.575   1.134  10.122
 7299SOL     OW23728   2.900  13.061   9.372
 7299SOL    HW123729   2.892  13.038   9.465
 7299SOL    HW223730   2.853  13.144   9.364
 7300SOL     OW23731   9.570   0.547   7.393
 7300SOL    HW123732   9.542   0.505   7.474
 7300SOL    HW223733   9.553   0.482   7.325
 7301SOL     OW23734   6.115   1.889  10.827
 7301SOL    HW123735   6.051   1.893  10.899
 7301SOL    HW223736   6.136   1.980  10.809
 7302SOL     OW23737   3.867  13.163  14.857
 7302SOL    HW123738   3.958  13.188  14.842
 7302SOL    HW223739   3.819  13.205  14.786
 7303SOL     OW23740   2.802  11.756   0.968
 7303SOL    HW123741   2.738  11.769   1.038
 7303SOL    HW223742   2.775  11.819   0.900
 7304SOL     OW23743  13.281  13.256   4.633
 7304SOL    HW123744  13.300  13.168   4.663
 7304SOL    HW223745  13.316  13.260   4.544
 7305SOL     OW23746   3.618  12.747  13.502
 7305SOL    HW123747   3.523  12.739  13.492
 7305SOL    HW223748   3.642  12.820  13.446
 7306SOL     OW23749   5.018  13.482  11.634
 7306SOL    HW123750   4.928  13.481  11.667
 7306SOL    HW223751   5.021  13.409  11.571
 7307SOL     OW23752   9.365   3.180   8.151
 7307SOL    HW123753   9.382   3.263   8.195
 7307SOL    HW223754   9.275   3.158   8.177
 7308SOL     OW23755  11.825   2.842   2.438
 7308SOL    HW123756  11.815   2.899   2.514
 7308SOL    HW223757  11.808   2.900   2.363
 7309SOL     OW23758   3.384   5.357   8.538
 7309SOL    HW123759   3.431   5.353   8.455
 7309SOL    HW223760   3.336   5.440   8.535
 7310SOL     OW23761   0.758  10.719  14.345
 7310SOL    HW123762   0.676  10.670  14.353
 7310SOL    HW223763   0.826  10.651  14.345
 7311SOL     OW23764   7.382   7.022   7.304
 7311SOL    HW123765   7.341   6.950   7.257
 7311SOL    HW223766   7.372   7.097   7.247
 7312SOL     OW23767   0.895  10.330  11.705
 7312SOL    HW123768   0.987  10.306  11.720
 7312SOL    HW223769   0.863  10.264  11.644
 7313SOL     OW23770  14.813   0.663  11.209
 7313SOL    HW123771   0.023   0.703  11.181
 7313SOL    HW223772  14.799   0.591  11.147
 7314SOL     OW23773   2.069  12.950  12.831
 7314SOL    HW123774   2.051  12.954  12.737
 7314SOL    HW223775   2.077  12.857  12.850
 7315SOL     OW23776   6.175   6.302   5.200
 7315SOL    HW123777   6.152   6.276   5.290
 7315SOL    HW223778   6.229   6.229   5.168
 7316SOL     OW23779   6.071  12.739   5.803
 7316SOL    HW123780   6.160  12.755   5.833
 7316SOL    HW223781   6.017  12.794   5.860
 7317SOL     OW23782  11.117  10.536   7.242
 7317SOL    HW123783  11.173  10.489   7.180
 7317SOL    HW223784  11.091  10.471   7.306
 7318SOL     OW23785   5.613  10.670  12.874
 7318SOL    HW123786   5.622  10.725  12.951
 7318SOL    HW223787   5.536  10.704  12.828
 7319SOL     OW23788   0.626  10.603   2.708
 7319SOL    HW123789   0.706  10.612   2.657
 7319SOL    HW223790   0.610  10.509   2.711
 7320SOL     OW23791   2.029  10.015   1.405
 7320SOL    HW123792   2.033   9.927   1.367
 7320SOL    HW223793   2.115  10.053   1.387
 7321SOL     OW23794   6.147  12.046   2.231
 7321SOL    HW123795   6.242  12.036   2.236
 7321SOL    HW223796   6.131  12.083   2.144
 7322SOL     OW23797   7.730   7.928   1.355
 7322SOL    HW123798   7.635   7.937   1.341
 7322SOL    HW223799   7.768   8.002   1.308
 7323SOL     OW23800  14.508   9.065   3.364
 7323SOL    HW123801  14.567   9.118   3.418
 7323SOL    HW223802  14.564   8.997   3.327
 7324SOL     OW23803   2.475  12.471  14.078
 7324SOL    HW123804   2.392  12.451  14.034
 7324SOL    HW223805   2.499  12.558  14.045
 7325SOL     OW23806   9.041   1.579   1.647
 7325SOL    HW123807   8.999   1.526   1.715
 7325SOL    HW223808   9.135   1.567   1.662
 7326SOL     OW23809  10.791   9.491  10.539
 7326SOL    HW123810  10.754   9.495  10.627
 7326SOL    HW223811  10.718   9.461  10.484
 7327SOL     OW23812   8.153   6.894   1.296
 7327SOL    HW123813   8.246   6.878   1.278
 7327SOL    HW223814   8.147   6.895   1.392
 7328SOL     OW23815   0.704   8.253  14.792
 7328SOL    HW123816   0.774   8.218  14.848
 7328SOL    HW223817   0.692   8.185  14.725
 7329SOL     OW23818   8.122   7.828  12.508
 7329SOL    HW123819   8.169   7.749  12.535
 7329SOL    HW223820   8.177   7.900  12.539
 7330SOL     OW23821  10.107   8.136   0.097
 7330SOL    HW123822  10.033   8.103   0.149
 7330SOL    HW223823  10.182   8.087   0.130
 7331SOL     OW23824  13.016  12.541  12.052
 7331SOL    HW123825  13.005  12.636  12.047
 7331SOL    HW223826  12.949  12.512  12.115
 7332SOL     OW23827  12.430   6.816  12.194
 7332SOL    HW123828  12.457   6.776  12.111
 7332SOL    HW223829  12.507   6.807  12.251
 7333SOL     OW23830   1.193   5.102  10.723
 7333SOL    HW123831   1.271   5.048  10.725
 7333SOL    HW223832   1.176   5.123  10.815
 7334SOL     OW23833   3.689  10.097   0.354
 7334SOL    HW123834   3.614  10.047   0.386
 7334SOL    HW223835   3.650  10.169   0.304
 7335SOL     OW23836  13.371  14.368  14.207
 7335SOL    HW123837  13.380  14.295  14.146
 7335SOL    HW223838  13.287  14.408  14.184
 7336SOL     OW23839   7.529   9.828   1.342
 7336SOL    HW123840   7.552   9.870   1.425
 7336SOL    HW223841   7.614   9.811   1.300
 7337SOL     OW23842   3.069   5.622   1.459
 7337SOL    HW123843   2.996   5.560   1.453
 7337SOL    HW223844   3.045   5.691   1.397
 7338SOL     OW23845  12.625  12.790   1.617
 7338SOL    HW123846  12.663  12.873   1.648
 7338SOL    HW223847  12.540  12.785   1.660
 7339SOL     OW23848   9.255  12.526  10.295
 7339SOL    HW123849   9.245  12.458  10.361
 7339SOL    HW223850   9.167  12.541  10.262
 7340SOL     OW23851   6.412   3.990   3.083
 7340SOL    HW123852   6.390   3.906   3.124
 7340SOL    HW223853   6.462   4.037   3.149
 7341SOL     OW23854  12.600   3.874   3.688
 7341SOL    HW123855  12.634   3.947   3.739
 7341SOL    HW223856  12.647   3.879   3.604
 7342SOL     OW23857   0.406  14.046  13.530
 7342SOL    HW123858   0.361  13.973  13.488
 7342SOL    HW223859   0.496  14.016  13.542
 7343SOL     OW23860   8.750   0.613   4.569
 7343SOL    HW123861   8.676   0.571   4.614
 7343SOL    HW223862   8.816   0.622   4.638
 7344SOL     OW23863   5.028   6.601   3.799
 7344SOL    HW123864   4.955   6.544   3.775
 7344SOL    HW223865   5.099   6.575   3.741
 7345SOL     OW23866   0.847   4.064  14.748
 7345SOL    HW123867   0.884   4.151  14.759
 7345SOL    HW223868   0.756   4.080  14.721
 7346SOL     OW23869   0.835   2.912  14.271
 7346SOL    HW123870   0.867   2.997  14.240
 7346SOL    HW223871   0.833   2.920  14.366
 7347SOL     OW23872  14.158   1.567   9.982
 7347SOL    HW123873  14.252   1.584   9.979
 7347SOL    HW223874  14.141   1.508   9.909
 7348SOL     OW23875   9.477   7.461   4.803
 7348SOL    HW123876   9.570   7.442   4.811
 7348SOL    HW223877   9.467   7.550   4.836
 7349SOL     OW23878   4.982   0.466   5.222
 7349SOL    HW123879   5.041   0.398   5.256
 7349SOL    HW223880   5.032   0.508   5.153
 7350SOL     OW23881  11.677   2.202   8.150
 7350SOL    HW123882  11.767   2.234   8.159
 7350SOL    HW223883  11.660   2.203   8.056
 7351SOL     OW23884   7.162  11.024  12.853
 7351SOL    HW123885   7.171  11.012  12.758
 7351SOL    HW223886   7.217  11.101  12.872
 7352SOL     OW23887  12.652   4.011  11.594
 7352SOL    HW123888  12.596   4.011  11.672
 7352SOL    HW223889  12.676   4.103  11.582
 7353SOL     OW23890   4.641   6.592  11.268
 7353SOL    HW123891   4.696   6.531  11.217
 7353SOL    HW223892   4.566   6.539  11.294
 7354SOL     OW23893   0.822   6.553   3.210
 7354SOL    HW123894   0.848   6.637   3.172
 7354SOL    HW223895   0.840   6.489   3.141
 7355SOL     OW23896  11.050   1.435   0.724
 7355SOL    HW123897  11.096   1.410   0.805
 7355SOL    HW223898  11.001   1.514   0.749
 7356SOL     OW23899  10.079   7.744   6.246
 7356SOL    HW123900  10.002   7.700   6.211
 7356SOL    HW223901  10.049   7.785   6.327
 7357SOL     OW23902   8.886   0.146  11.974
 7357SOL    HW123903   8.960   0.167  11.917
 7357SOL    HW223904   8.912   0.180  12.060
 7358SOL     OW23905  12.180   9.077   6.318
 7358SOL    HW123906  12.166   8.992   6.276
 7358SOL    HW223907  12.273   9.095   6.305
 7359SOL     OW23908   1.330  14.361   6.092
 7359SOL    HW123909   1.415  14.339   6.053
 7359SOL    HW223910   1.351  14.416   6.167
 7360SOL     OW23911  10.206   9.979   4.916
 7360SOL    HW123912  10.128   9.938   4.880
 7360SOL    HW223913  10.191   9.983   5.010
 7361SOL     OW23914  14.594   2.370   6.363
 7361SOL    HW123915  14.652   2.315   6.312
 7361SOL    HW223916  14.506   2.350   6.330
 7362SOL     OW23917  14.856   7.791   7.420
 7362SOL    HW123918   0.033   7.709   7.421
 7362SOL    HW223919   0.002   7.831   7.505
 7363SOL     OW23920   5.701   5.584   0.101
 7363SOL    HW123921   5.764   5.632   0.047
 7363SOL    HW223922   5.623   5.640   0.102
 7364SOL     OW23923  11.597   4.938   7.883
 7364SOL    HW123924  11.561   4.990   7.954
 7364SOL    HW223925  11.524   4.927   7.822
 7365SOL     OW23926   1.748   4.793   1.527
 7365SOL    HW123927   1.723   4.858   1.592
 7365SOL    HW223928   1.704   4.713   1.557
 7366SOL     OW23929  13.557   7.883   1.542
 7366SOL    HW123930  13.578   7.804   1.592
 7366SOL    HW223931  13.582   7.955   1.601
 7367SOL     OW23932  12.095   4.110   7.807
 7367SOL    HW123933  12.129   4.163   7.879
 7367SOL    HW223934  12.091   4.021   7.844
 7368SOL     OW23935   0.038   2.534   4.063
 7368SOL    HW123936   0.045   2.568   4.152
 7368SOL    HW223937   0.125   2.547   4.026
 7369SOL     OW23938   6.831   7.882   3.884
 7369SOL    HW123939   6.919   7.918   3.882
 7369SOL    HW223940   6.800   7.887   3.794
 7370SOL     OW23941   2.291  13.413  12.303
 7370SOL    HW123942   2.220  13.356  12.273
 7370SOL    HW223943   2.354  13.413  12.231
 7371SOL     OW23944   5.000   3.621   4.059
 7371SOL    HW123945   4.914   3.661   4.046
 7371SOL    HW223946   4.985   3.527   4.052
 7372SOL     OW23947   3.869   8.273  10.089
 7372SOL    HW123948   3.874   8.180  10.111
 7372SOL    HW223949   3.785   8.302  10.125
 7373SOL     OW23950   9.774   5.417   1.225
 7373SOL    HW123951   9.746   5.423   1.134
 7373SOL    HW223952   9.805   5.327   1.235
 7374SOL     OW23953   5.916   8.864   2.161
 7374SOL    HW123954   5.956   8.949   2.180
 7374SOL    HW223955   5.987   8.812   2.123
 7375SOL     OW23956   9.930  13.201   3.017
 7375SOL    HW123957   9.906  13.109   3.002
 7375SOL    HW223958   9.947  13.206   3.111
 7376SOL     OW23959   4.069   5.043   9.752
 7376SOL    HW123960   4.078   4.984   9.677
 7376SOL    HW223961   4.153   5.036   9.798
 7377SOL     OW23962   9.691   5.886  10.714
 7377SOL    HW123963   9.777   5.904  10.675
 7377SOL    HW223964   9.645   5.835  10.647
 7378SOL     OW23965   7.088   2.681  14.488
 7378SOL    HW123966   7.008   2.630  14.472
 7378SOL    HW223967   7.145   2.622  14.537
 7379SOL     OW23968   2.049   8.254  11.494
 7379SOL    HW123969   1.995   8.321  11.537
 7379SOL    HW223970   2.080   8.199  11.566
 7380SOL     OW23971   3.149   8.643  10.841
 7380SOL    HW123972   3.182   8.697  10.769
 7380SOL    HW223973   3.225   8.634  10.900
 7381SOL     OW23974   5.442   3.028   6.967
 7381SOL    HW123975   5.412   3.018   7.057
 7381SOL    HW223976   5.525   3.075   6.974
 7382SOL     OW23977   6.503  10.541   1.203
 7382SOL    HW123978   6.549  10.594   1.269
 7382SOL    HW223979   6.555  10.462   1.196
 7383SOL     OW23980  10.121  13.367   4.882
 7383SOL    HW123981  10.180  13.297   4.912
 7383SOL    HW223982  10.180  13.439   4.859
 7384SOL     OW23983  11.253   7.915   1.642
 7384SOL    HW123984  11.294   7.998   1.666
 7384SOL    HW223985  11.159   7.932   1.648
 7385SOL     OW23986  10.041   0.841  12.792
 7385SOL    HW123987  10.113   0.880  12.743
 7385SOL    HW223988  10.022   0.903  12.863
 7386SOL     OW23989   6.606   6.915  12.005
 7386SOL    HW123990   6.574   6.939  12.092
 7386SOL    HW223991   6.533   6.932  11.946
 7387SOL     OW23992   6.385  14.497  11.799
 7387SOL    HW123993   6.445  14.561  11.837
 7387SOL    HW223994   6.323  14.550  11.748
 7388SOL     OW23995   2.700   9.754   8.252
 7388SOL    HW123996   2.714   9.846   8.229
 7388SOL    HW223997   2.788   9.717   8.257
 7389SOL     OW23998   0.614  11.552  11.431
 7389SOL    HW123999   0.664  11.613  11.377
 7389SOL    HW224000   0.652  11.561  11.518
 7390SOL     OW24001  11.093   2.141  11.172
 7390SOL    HW124002  11.143   2.073  11.128
 7390SOL    HW224003  11.039   2.179  11.103
 7391SOL     OW24004   8.500   4.361  12.091
 7391SOL    HW124005   8.473   4.273  12.065
 7391SOL    HW224006   8.419   4.412  12.093
 7392SOL     OW24007  11.633  10.892   3.068
 7392SOL    HW124008  11.632  10.964   3.131
 7392SOL    HW224009  11.634  10.813   3.122
 7393SOL     OW24010   2.089  13.889  12.231
 7393SOL    HW124011   2.152  13.883  12.159
 7393SOL    HW224012   2.143  13.905  12.308
 7394SOL     OW24013   8.181   3.419   6.313
 7394SOL    HW124014   8.161   3.468   6.233
 7394SOL    HW224015   8.276   3.418   6.318
 7395SOL     OW24016   8.622   1.795   5.863
 7395SOL    HW124017   8.716   1.808   5.879
 7395SOL    HW224018   8.581   1.875   5.898
 7396SOL     OW24019   7.710   0.744   3.306
 7396SOL    HW124020   7.750   0.740   3.393
 7396SOL    HW224021   7.637   0.681   3.311
 7397SOL     OW24022  12.648  10.574   0.872
 7397SOL    HW124023  12.593  10.500   0.899
 7397SOL    HW224024  12.698  10.595   0.950
 7398SOL     OW24025   0.599   4.297   9.797
 7398SOL    HW124026   0.537   4.239   9.842
 7398SOL    HW224027   0.575   4.289   9.704
 7399SOL     OW24028   7.774  12.032   6.088
 7399SOL    HW124029   7.822  12.026   6.171
 7399SOL    HW224030   7.808  11.959   6.036
 7400SOL     OW24031   0.384   9.655   7.801
 7400SOL    HW124032   0.324   9.581   7.788
 7400SOL    HW224033   0.437   9.630   7.876
 7401SOL     OW24034   7.253   0.405   4.393
 7401SOL    HW124035   7.213   0.369   4.314
 7401SOL    HW224036   7.185   0.459   4.432
 7402SOL     OW24037   3.928   9.811   1.458
 7402SOL    HW124038   3.841   9.849   1.449
 7402SOL    HW224039   3.950   9.780   1.370
 7403SOL     OW24040   8.388   1.907   7.099
 7403SOL    HW124041   8.380   2.001   7.111
 7403SOL    HW224042   8.373   1.893   7.006
 7404SOL     OW24043  10.180  12.616  10.172
 7404SOL    HW124044  10.189  12.612  10.267
 7404SOL    HW224045  10.198  12.707  10.150
 7405SOL     OW24046   7.310  10.481   4.313
 7405SOL    HW124047   7.308  10.467   4.219
 7405SOL    HW224048   7.308  10.576   4.324
 7406SOL     OW24049   2.205   9.610   7.374
 7406SOL    HW124050   2.298   9.613   7.395
 7406SOL    HW224051   2.195   9.666   7.297
 7407SOL     OW24052   9.361   1.574   8.481
 7407SOL    HW124053   9.272   1.606   8.462
 7407SOL    HW224054   9.400   1.559   8.396
 7408SOL     OW24055   4.994   1.392   7.131
 7408SOL    HW124056   4.905   1.425   7.128
 7408SOL    HW224057   5.010   1.372   7.223
 7409SOL     OW24058   7.320   7.605   1.929
 7409SOL    HW124059   7.258   7.600   2.002
 7409SOL    HW224060   7.404   7.579   1.967
 7410SOL     OW24061   6.473  13.241   7.142
 7410SOL    HW124062   6.435  13.158   7.113
 7410SOL    HW224063   6.530  13.218   7.215
 7411SOL     OW24064  10.766  14.804   6.257
 7411SOL    HW124065  10.829  14.870   6.227
 7411SOL    HW224066  10.795  14.723   6.215
 7412SOL     OW24067  13.436   5.773   6.761
 7412SOL    HW124068  13.389   5.837   6.816
 7412SOL    HW224069  13.444   5.695   6.816
 7413SOL     OW24070   7.597   2.362  11.800
 7413SOL    HW124071   7.518   2.334  11.755
 7413SOL    HW224072   7.565   2.421  11.869
 7414SOL     OW24073   2.183   4.187  13.151
 7414SOL    HW124074   2.123   4.262  13.144
 7414SOL    HW224075   2.202   4.180  13.244
 7415SOL     OW24076  12.430   6.746   3.101
 7415SOL    HW124077  12.508   6.796   3.080
 7415SOL    HW224078  12.362   6.781   3.043
 7416SOL     OW24079  14.862   3.236   4.170
 7416SOL    HW124080  14.856   3.170   4.101
 7416SOL    HW224081  14.866   3.186   4.251
 7417SOL     OW24082   1.002  14.869   8.042
 7417SOL    HW124083   1.083  14.837   8.000
 7417SOL    HW224084   1.030   0.025   8.129
 7418SOL     OW24085  13.429  14.268  13.912
 7418SOL    HW124086  13.399  14.196  13.856
 7418SOL    HW224087  13.497  14.229  13.967
 7419SOL     OW24088   1.981   3.770   9.841
 7419SOL    HW124089   1.995   3.712   9.916
 7419SOL    HW224090   1.937   3.715   9.776
 7420SOL     OW24091  10.985   1.947   2.296
 7420SOL    HW124092  11.045   2.015   2.328
 7420SOL    HW224093  10.978   1.885   2.368
 7421SOL     OW24094   0.926  13.472   8.640
 7421SOL    HW124095   0.914  13.384   8.674
 7421SOL    HW224096   1.021  13.481   8.630
 7422SOL     OW24097  10.404   2.099   4.292
 7422SOL    HW124098  10.425   2.063   4.205
 7422SOL    HW224099  10.370   2.186   4.274
 7423SOL     OW24100   3.270  13.241   6.177
 7423SOL    HW124101   3.297  13.171   6.118
 7423SOL    HW224102   3.182  13.264   6.148
 7424SOL     OW24103  14.205   8.535   9.546
 7424SOL    HW124104  14.122   8.504   9.510
 7424SOL    HW224105  14.233   8.604   9.485
 7425SOL     OW24106  14.308  14.585   8.596
 7425SOL    HW124107  14.281  14.671   8.629
 7425SOL    HW224108  14.383  14.603   8.540
 7426SOL     OW24109  10.306   9.513   4.247
 7426SOL    HW124110  10.253   9.515   4.326
 7426SOL    HW224111  10.292   9.599   4.207
 7427SOL     OW24112   3.447  14.768   1.150
 7427SOL    HW124113   3.417  14.771   1.241
 7427SOL    HW224114   3.539  14.743   1.156
 7428SOL     OW24115   6.011  13.818   6.555
 7428SOL    HW124116   5.929  13.863   6.578
 7428SOL    HW224117   5.982  13.737   6.513
 7429SOL     OW24118  13.368   6.417  10.217
 7429SOL    HW124119  13.374   6.511  10.197
 7429SOL    HW224120  13.286   6.390  10.177
 7430SOL     OW24121   3.221  11.943  13.490
 7430SOL    HW124122   3.298  11.891  13.466
 7430SOL    HW224123   3.210  11.928  13.584
 7431SOL     OW24124  12.524  13.027  14.043
 7431SOL    HW124125  12.610  13.053  14.009
 7431SOL    HW224126  12.500  12.951  13.989
 7432SOL     OW24127   7.032   2.489  13.513
 7432SOL    HW124128   6.974   2.499  13.588
 7432SOL    HW224129   7.010   2.403  13.477
 7433SOL     OW24130   7.158  12.115   4.167
 7433SOL    HW124131   7.224  12.103   4.235
 7433SOL    HW224132   7.125  12.026   4.150
 7434SOL     OW24133   0.554   5.838  13.458
 7434SOL    HW124134   0.592   5.921  13.487
 7434SOL    HW224135   0.597   5.819  13.374
 7435SOL     OW24136   9.881   4.936   9.978
 7435SOL    HW124137   9.813   4.873  10.001
 7435SOL    HW224138   9.905   4.978  10.060
 7436SOL     OW24139   6.213  14.126   5.828
 7436SOL    HW124140   6.208  14.042   5.875
 7436SOL    HW224141   6.303  14.156   5.842
 7437SOL     OW24142   3.143   0.790   6.358
 7437SOL    HW124143   3.193   0.859   6.401
 7437SOL    HW224144   3.064   0.781   6.412
 7438SOL     OW24145   9.772   5.892   7.379
 7438SOL    HW124146   9.738   5.828   7.317
 7438SOL    HW224147   9.855   5.855   7.409
 7439SOL     OW24148  13.431   4.805   6.587
 7439SOL    HW124149  13.524   4.786   6.579
 7439SOL    HW224150  13.428   4.895   6.621
 7440SOL     OW24151   1.280  13.611   1.405
 7440SOL    HW124152   1.192  13.635   1.434
 7440SOL    HW224153   1.333  13.615   1.484
 7441SOL     OW24154   1.265   1.095   7.172
 7441SOL    HW124155   1.344   1.082   7.119
 7441SOL    HW224156   1.236   1.007   7.195
 7442SOL     OW24157   6.820  12.266   0.126
 7442SOL    HW124158   6.833  12.172   0.123
 7442SOL    HW224159   6.758  12.285   0.056
 7443SOL     OW24160   7.151   6.823  11.466
 7443SOL    HW124161   7.143   6.874  11.386
 7443SOL    HW224162   7.230   6.857  11.509
 7444SOL     OW24163   6.772   0.024   7.433
 7444SOL    HW124164   6.728   0.105   7.406
 7444SOL    HW224165   6.800   0.040   7.523
 7445SOL     OW24166   2.262   9.385   5.754
 7445SOL    HW124167   2.283   9.341   5.672
 7445SOL    HW224168   2.205   9.457   5.729
 7446SOL     OW24169  11.283  12.276   7.248
 7446SOL    HW124170  11.190  12.299   7.247
 7446SOL    HW224171  11.299  12.244   7.337
 7447SOL     OW24172   4.241   2.670   7.708
 7447SOL    HW124173   4.149   2.695   7.708
 7447SOL    HW224174   4.241   2.575   7.717
 7448SOL     OW24175   1.203   4.705   9.417
 7448SOL    HW124176   1.246   4.623   9.395
 7448SOL    HW224177   1.220   4.763   9.343
 7449SOL     OW24178   4.356   9.853   8.224
 7449SOL    HW124179   4.345   9.824   8.134
 7449SOL    HW224180   4.283   9.812   8.271
 7450SOL     OW24181   6.615  11.543   2.100
 7450SOL    HW124182   6.561  11.502   2.168
 7450SOL    HW224183   6.683  11.478   2.082
 7451SOL     OW24184  13.421  12.893  10.516
 7451SOL    HW124185  13.490  12.955  10.535
 7451SOL    HW224186  13.369  12.934  10.447
 7452SOL     OW24187  12.990   7.749   5.213
 7452SOL    HW124188  12.917   7.785   5.263
 7452SOL    HW224189  12.956   7.668   5.175
 7453SOL     OW24190   7.629  12.022  14.193
 7453SOL    HW124191   7.674  11.945  14.159
 7453SOL    HW224192   7.536  11.998  14.193
 7454SOL     OW24193   1.115   1.541   7.795
 7454SOL    HW124194   1.162   1.617   7.830
 7454SOL    HW224195   1.108   1.480   7.868
 7455SOL     OW24196  13.292   0.133   0.582
 7455SOL    HW124197  13.292   0.135   0.486
 7455SOL    HW224198  13.217   0.078   0.605
 7456SOL     OW24199   7.710   6.249   6.082
 7456SOL    HW124200   7.725   6.203   6.164
 7456SOL    HW224201   7.797   6.283   6.058
 7457SOL     OW24202  12.802  11.990  12.503
 7457SOL    HW124203  12.757  11.923  12.452
 7457SOL    HW224204  12.746  12.067  12.499
 7458SOL     OW24205   2.980   2.468   6.198
 7458SOL    HW124206   2.936   2.489   6.281
 7458SOL    HW224207   3.052   2.411   6.223
 7459SOL     OW24208   1.090   8.612  12.823
 7459SOL    HW124209   1.169   8.608  12.769
 7459SOL    HW224210   1.028   8.664  12.771
 7460SOL     OW24211   4.625   3.276   6.287
 7460SOL    HW124212   4.595   3.359   6.324
 7460SOL    HW224213   4.598   3.280   6.195
 7461SOL     OW24214   7.784   0.454   0.737
 7461SOL    HW124215   7.725   0.382   0.716
 7461SOL    HW224216   7.735   0.509   0.799
 7462SOL     OW24217  10.997   7.612   0.612
 7462SOL    HW124218  11.081   7.585   0.649
 7462SOL    HW224219  10.965   7.681   0.670
 7463SOL     OW24220   2.366  10.737   9.616
 7463SOL    HW124221   2.413  10.656   9.594
 7463SOL    HW224222   2.354  10.782   9.532
 7464SOL     OW24223   9.875   1.068   9.809
 7464SOL    HW124224   9.873   1.154   9.851
 7464SOL    HW224225   9.811   1.075   9.738
 7465SOL     OW24226  11.776  11.710   4.065
 7465SOL    HW124227  11.863  11.704   4.026
 7465SOL    HW224228  11.717  11.671   3.999
 7466SOL     OW24229   7.572  12.779  10.745
 7466SOL    HW124230   7.663  12.781  10.776
 7466SOL    HW224231   7.551  12.686  10.739
 7467SOL     OW24232  13.628   3.027   0.983
 7467SOL    HW124233  13.657   3.008   0.894
 7467SOL    HW224234  13.555   3.088   0.972
 7468SOL     OW24235   7.497   4.992   5.240
 7468SOL    HW124236   7.532   4.946   5.164
 7468SOL    HW224237   7.574   5.017   5.291
 7469SOL     OW24238  14.625  13.761   0.344
 7469SOL    HW124239  14.562  13.808   0.289
 7469SOL    HW224240  14.661  13.693   0.287
 7470SOL     OW24241   1.798   4.767  10.862
 7470SOL    HW124242   1.745   4.750  10.939
 7470SOL    HW224243   1.776   4.857  10.837
 7471SOL     OW24244   7.215   4.754   3.412
 7471SOL    HW124245   7.309   4.766   3.398
 7471SOL    HW224246   7.207   4.741   3.507
 7472SOL     OW24247  12.270  10.201  11.210
 7472SOL    HW124248  12.241  10.137  11.274
 7472SOL    HW224249  12.324  10.262  11.260
 7473SOL     OW24250   9.241  11.595   4.413
 7473SOL    HW124251   9.318  11.643   4.445
 7473SOL    HW224252   9.232  11.522   4.474
 7474SOL     OW24253   6.745  10.339  11.266
 7474SOL    HW124254   6.701  10.256  11.252
 7474SOL    HW224255   6.818  10.318  11.324
 7475SOL     OW24256  10.654  12.713   3.707
 7475SOL    HW124257  10.581  12.654   3.727
 7475SOL    HW224258  10.720  12.656   3.666
 7476SOL     OW24259   3.266   5.855   7.758
 7476SOL    HW124260   3.315   5.912   7.818
 7476SOL    HW224261   3.222   5.793   7.816
 7477SOL     OW24262   6.692   1.415  12.058
 7477SOL    HW124263   6.783   1.417  12.088
 7477SOL    HW224264   6.697   1.432  11.964
 7478SOL     OW24265   3.109   0.448   5.473
 7478SOL    HW124266   3.170   0.451   5.546
 7478SOL    HW224267   3.144   0.380   5.415
 7479SOL     OW24268   0.011  10.678   6.564
 7479SOL    HW124269   0.051  10.685   6.477
 7479SOL    HW224270  14.837  10.761   6.576
 7480SOL     OW24271   8.147   4.885   4.612
 7480SOL    HW124272   8.154   4.966   4.663
 7480SOL    HW224273   8.171   4.912   4.523
 7481SOL     OW24274  12.147  14.766   4.018
 7481SOL    HW124275  12.211  14.777   3.948
 7481SOL    HW224276  12.125  14.855   4.044
 7482SOL     OW24277  11.713   0.831  12.353
 7482SOL    HW124278  11.634   0.856  12.306
 7482SOL    HW224279  11.714   0.735  12.348
 7483SOL     OW24280   7.546  10.743   0.400
 7483SOL    HW124281   7.500  10.686   0.462
 7483SOL    HW224282   7.603  10.685   0.350
 7484SOL     OW24283   5.447   2.984  10.229
 7484SOL    HW124284   5.541   2.997  10.214
 7484SOL    HW224285   5.425   2.906  10.178
 7485SOL     OW24286  12.411  12.570   8.149
 7485SOL    HW124287  12.397  12.511   8.076
 7485SOL    HW224288  12.506  12.582   8.153
 7486SOL     OW24289  10.748   2.903   6.093
 7486SOL    HW124290  10.676   2.884   6.153
 7486SOL    HW224291  10.769   2.995   6.110
 7487SOL     OW24292  10.332   3.060   0.509
 7487SOL    HW124293  10.362   3.117   0.580
 7487SOL    HW224294  10.345   3.111   0.430
 7488SOL     OW24295   7.460   2.475   0.045
 7488SOL    HW124296   7.526   2.526   0.092
 7488SOL    HW224297   7.389   2.463   0.108
 7489SOL     OW24298   9.538  10.474   0.539
 7489SOL    HW124299   9.584  10.546   0.581
 7489SOL    HW224300   9.493  10.429   0.611
 7490SOL     OW24301   1.715   1.583  10.138
 7490SOL    HW124302   1.627   1.575  10.102
 7490SOL    HW224303   1.718   1.519  10.209
 7491SOL     OW24304   8.569   3.727   3.225
 7491SOL    HW124305   8.593   3.712   3.134
 7491SOL    HW224306   8.473   3.733   3.224
 7492SOL     OW24307   4.227   2.223  14.289
 7492SOL    HW124308   4.170   2.175  14.348
 7492SOL    HW224309   4.210   2.316  14.307
 7493SOL     OW24310   8.537   2.241   6.712
 7493SOL    HW124311   8.504   2.190   6.638
 7493SOL    HW224312   8.461   2.251   6.770
 7494SOL     OW24313   4.607   8.621   4.230
 7494SOL    HW124314   4.606   8.536   4.186
 7494SOL    HW224315   4.654   8.679   4.169
 7495SOL     OW24316   5.917   4.757   9.344
 7495SOL    HW124317   5.822   4.766   9.339
 7495SOL    HW224318   5.936   4.679   9.293
 7496SOL     OW24319  12.677   0.262   1.947
 7496SOL    HW124320  12.758   0.250   1.897
 7496SOL    HW224321  12.645   0.174   1.962
 7497SOL     OW24322   0.373  11.182  10.653
 7497SOL    HW124323   0.407  11.117  10.715
 7497SOL    HW224324   0.308  11.231  10.703
 7498SOL     OW24325   4.845   2.311   6.434
 7498SOL    HW124326   4.882   2.366   6.366
 7498SOL    HW224327   4.771   2.361   6.468
 7499SOL     OW24328  14.465  10.147   4.926
 7499SOL    HW124329  14.521  10.116   4.855
 7499SOL    HW224330  14.521  10.149   5.003
 7500SOL     OW24331  12.231   6.423   2.546
 7500SOL    HW124332  12.300   6.445   2.483
 7500SOL    HW224333  12.156   6.476   2.519
 7501SOL     OW24334  13.986  11.023   0.891
 7501SOL    HW124335  14.061  11.019   0.951
 7501SOL    HW224336  13.959  10.932   0.880
 7502SOL     OW24337  13.204   2.040   7.819
 7502SOL    HW124338  13.183   1.981   7.891
 7502SOL    HW224339  13.119   2.071   7.788
 7503SOL     OW24340  11.287   7.595  10.670
 7503SOL    HW124341  11.308   7.572  10.580
 7503SOL    HW224342  11.201   7.557  10.686
 7504SOL     OW24343   2.072   9.021   4.907
 7504SOL    HW124344   2.116   9.056   4.985
 7504SOL    HW224345   2.125   9.051   4.834
 7505SOL     OW24346   2.383  13.328  13.046
 7505SOL    HW124347   2.403  13.261  12.981
 7505SOL    HW224348   2.317  13.289  13.102
 7506SOL     OW24349  14.763   8.725  13.647
 7506SOL    HW124350  14.754   8.766  13.561
 7506SOL    HW224351  14.684   8.673  13.658
 7507SOL     OW24352   1.457   4.460   3.488
 7507SOL    HW124353   1.432   4.373   3.457
 7507SOL    HW224354   1.485   4.506   3.409
 7508SOL     OW24355   6.139  13.305   0.176
 7508SOL    HW124356   6.124  13.384   0.227
 7508SOL    HW224357   6.195  13.333   0.104
 7509SOL     OW24358   5.180   9.027  13.712
 7509SOL    HW124359   5.197   8.942  13.752
 7509SOL    HW224360   5.209   9.091  13.777
 7510SOL     OW24361  13.795  11.900   4.219
 7510SOL    HW124362  13.864  11.870   4.159
 7510SOL    HW224363  13.822  11.988   4.245
 7511SOL     OW24364   6.906  10.640   6.834
 7511SOL    HW124365   6.860  10.696   6.896
 7511SOL    HW224366   6.866  10.660   6.749
 7512SOL     OW24367   0.771  10.811   1.112
 7512SOL    HW124368   0.850  10.857   1.085
 7512SOL    HW224369   0.713  10.816   1.036
 7513SOL     OW24370  13.464   4.464  13.036
 7513SOL    HW124371  13.508   4.454  12.952
 7513SOL    HW224372  13.506   4.540  13.076
 7514SOL     OW24373  13.718   1.312  14.555
 7514SOL    HW124374  13.797   1.305  14.502
 7514SOL    HW224375  13.676   1.226  14.546
 7515SOL     OW24376  12.842   5.173   9.315
 7515SOL    HW124377  12.791   5.165   9.396
 7515SOL    HW224378  12.932   5.188   9.344
 7516SOL     OW24379   1.655   3.496  11.918
 7516SOL    HW124380   1.629   3.541  11.837
 7516SOL    HW224381   1.611   3.411  11.913
 7517SOL     OW24382   2.869   6.457   1.120
 7517SOL    HW124383   2.889   6.365   1.102
 7517SOL    HW224384   2.815   6.454   1.199
 7518SOL     OW24385   3.410  11.106   5.656
 7518SOL    HW124386   3.399  11.166   5.730
 7518SOL    HW224387   3.403  11.162   5.578
 7519SOL     OW24388   5.412  14.696   4.361
 7519SOL    HW124389   5.402  14.791   4.360
 7519SOL    HW224390   5.325  14.662   4.342
 7520SOL     OW24391   5.177   7.404  11.825
 7520SOL    HW124392   5.204   7.314  11.806
 7520SOL    HW224393   5.082   7.399  11.836
 7521SOL     OW24394   9.232   6.048   4.785
 7521SOL    HW124395   9.280   6.090   4.714
 7521SOL    HW224396   9.262   6.092   4.865
 7522SOL     OW24397  14.649   6.435   5.661
 7522SOL    HW124398  14.609   6.508   5.708
 7522SOL    HW224399  14.623   6.358   5.712
 7523SOL     OW24400   8.291  10.035   0.528
 7523SOL    HW124401   8.348  10.090   0.474
 7523SOL    HW224402   8.208  10.082   0.531
 7524SOL     OW24403  14.529   5.056   8.830
 7524SOL    HW124404  14.533   5.095   8.917
 7524SOL    HW224405  14.616   5.066   8.794
 7525SOL     OW24406  12.079   4.094   5.657
 7525SOL    HW124407  12.058   4.110   5.749
 7525SOL    HW224408  12.078   3.999   5.648
 7526SOL     OW24409   5.809  13.483   2.068
 7526SOL    HW124410   5.800  13.414   2.133
 7526SOL    HW224411   5.871  13.544   2.106
 7527SOL     OW24412  11.730  12.728  12.508
 7527SOL    HW124413  11.725  12.805  12.566
 7527SOL    HW224414  11.822  12.701  12.511
 7528SOL     OW24415  14.124   9.002  13.077
 7528SOL    HW124416  14.115   9.001  13.173
 7528SOL    HW224417  14.126   8.910  13.053
 7529SOL     OW24418   6.063   2.741  14.436
 7529SOL    HW124419   6.155   2.755  14.413
 7529SOL    HW224420   6.025   2.698  14.359
 7530SOL     OW24421   5.484   3.302   5.720
 7530SOL    HW124422   5.456   3.328   5.807
 7530SOL    HW224423   5.521   3.214   5.732
 7531SOL     OW24424   4.707  13.769   6.072
 7531SOL    HW124425   4.686  13.850   6.025
 7531SOL    HW224426   4.799  13.752   6.049
 7532SOL     OW24427  12.321   2.549   8.757
 7532SOL    HW124428  12.360   2.498   8.686
 7532SOL    HW224429  12.389   2.613   8.780
 7533SOL     OW24430   8.722  10.041   5.772
 7533SOL    HW124431   8.809  10.079   5.785
 7533SOL    HW224432   8.663  10.098   5.821
 7534SOL     OW24433   3.922   2.162   0.911
 7534SOL    HW124434   3.891   2.141   0.999
 7534SOL    HW224435   3.936   2.077   0.869
 7535SOL     OW24436  12.926   6.731  12.568
 7535SOL    HW124437  12.932   6.709  12.475
 7535SOL    HW224438  12.888   6.654  12.609
 7536SOL     OW24439   4.271   0.317  10.310
 7536SOL    HW124440   4.202   0.273  10.359
 7536SOL    HW224441   4.347   0.315  10.369
 7537SOL     OW24442  14.233   6.549   8.190
 7537SOL    HW124443  14.189   6.597   8.259
 7537SOL    HW224444  14.202   6.459   8.200
 7538SOL     OW24445   8.055   6.522  10.787
 7538SOL    HW124446   8.150   6.514  10.790
 7538SOL    HW224447   8.039   6.607  10.745
 7539SOL     OW24448   5.063  10.935   4.850
 7539SOL    HW124449   4.984  10.982   4.822
 7539SOL    HW224450   5.029  10.863   4.904
 7540SOL     OW24451   0.487   8.121   6.248
 7540SOL    HW124452   0.458   8.034   6.219
 7540SOL    HW224453   0.464   8.179   6.176
 7541SOL     OW24454  11.843   4.331   2.690
 7541SOL    HW124455  11.822   4.329   2.597
 7541SOL    HW224456  11.764   4.362   2.733
 7542SOL     OW24457  10.931   2.397   4.118
 7542SOL    HW124458  10.891   2.454   4.183
 7542SOL    HW224459  10.892   2.311   4.134
 7543SOL     OW24460   1.618  12.003   1.752
 7543SOL    HW124461   1.625  12.096   1.732
 7543SOL    HW224462   1.609  11.960   1.667
 7544SOL     OW24463   1.430   7.646   2.056
 7544SOL    HW124464   1.517   7.605   2.063
 7544SOL    HW224465   1.369   7.573   2.065
 7545SOL     OW24466   4.940   2.899   4.975
 7545SOL    HW124467   4.856   2.870   5.010
 7545SOL    HW224468   4.973   2.824   4.925
 7546SOL     OW24469  11.184  12.028  11.877
 7546SOL    HW124470  11.122  11.969  11.834
 7546SOL    HW224471  11.266  11.978  11.882
 7547SOL     OW24472  13.493   0.652   1.062
 7547SOL    HW124473  13.468   0.687   1.147
 7547SOL    HW224474  13.490   0.557   1.073
 7548SOL     OW24475   6.031  12.700   8.923
 7548SOL    HW124476   6.062  12.614   8.951
 7548SOL    HW224477   6.100  12.732   8.864
 7549SOL     OW24478   4.400   1.997   8.400
 7549SOL    HW124479   4.410   1.916   8.351
 7549SOL    HW224480   4.429   1.976   8.488
 7550SOL     OW24481  14.348   7.199  10.476
 7550SOL    HW124482  14.341   7.291  10.502
 7550SOL    HW224483  14.311   7.197  10.388
 7551SOL     OW24484  14.392   1.231  10.793
 7551SOL    HW124485  14.462   1.181  10.751
 7551SOL    HW224486  14.437   1.297  10.845
 7552SOL     OW24487  14.249   1.796   5.664
 7552SOL    HW124488  14.327   1.837   5.626
 7552SOL    HW224489  14.276   1.706   5.682
 7553SOL     OW24490   4.254   1.522   0.364
 7553SOL    HW124491   4.248   1.467   0.442
 7553SOL    HW224492   4.274   1.461   0.293
 7554SOL     OW24493   3.540   9.780  14.782
 7554SOL    HW124494   3.548   9.875  14.776
 7554SOL    HW224495   3.587   9.757  14.862
 7555SOL     OW24496   6.828   9.068   3.998
 7555SOL    HW124497   6.874   9.137   4.046
 7555SOL    HW224498   6.894   9.029   3.941
 7556SOL     OW24499   4.247  11.521  14.523
 7556SOL    HW124500   4.201  11.462  14.584
 7556SOL    HW224501   4.315  11.466  14.484
 7557SOL     OW24502   3.667   6.458   3.538
 7557SOL    HW124503   3.662   6.373   3.582
 7557SOL    HW224504   3.625   6.443   3.453
 7558SOL     OW24505   5.418   3.480   3.337
 7558SOL    HW124506   5.362   3.405   3.323
 7558SOL    HW224507   5.414   3.529   3.255
 7559SOL     OW24508   0.123   6.890   3.347
 7559SOL    HW124509   0.124   6.817   3.408
 7559SOL    HW224510   0.126   6.850   3.261
 7560SOL     OW24511   5.352   6.431   8.809
 7560SOL    HW124512   5.297   6.437   8.887
 7560SOL    HW224513   5.439   6.409   8.843
 7561SOL     OW24514   6.877  11.121   7.730
 7561SOL    HW124515   6.799  11.139   7.678
 7561SOL    HW224516   6.936  11.194   7.710
 7562SOL     OW24517   3.352   8.159   7.787
 7562SOL    HW124518   3.326   8.104   7.712
 7562SOL    HW224519   3.377   8.242   7.748
 7563SOL     OW24520  11.855   4.418   7.269
 7563SOL    HW124521  11.893   4.503   7.290
 7563SOL    HW224522  11.787   4.436   7.205
 7564SOL     OW24523  13.309   4.626   5.504
 7564SOL    HW124524  13.214   4.626   5.493
 7564SOL    HW224525  13.325   4.698   5.566
 7565SOL     OW24526   5.034   2.583   9.412
 7565SOL    HW124527   5.028   2.613   9.503
 7565SOL    HW224528   4.944   2.570   9.385
 7566SOL     OW24529   5.048  13.832   6.263
 7566SOL    HW124530   4.977  13.845   6.325
 7566SOL    HW224531   5.021  13.756   6.211
 7567SOL     OW24532  12.637   5.747  12.168
 7567SOL    HW124533  12.559   5.706  12.130
 7567SOL    HW224534  12.616   5.757  12.261
 7568SOL     OW24535   4.589   8.035   5.745
 7568SOL    HW124536   4.619   8.115   5.703
 7568SOL    HW224537   4.532   7.993   5.680
 7569SOL     OW24538   0.915  10.953   6.361
 7569SOL    HW124539   1.008  10.973   6.366
 7569SOL    HW224540   0.878  11.023   6.306
 7570SOL     OW24541   0.192  14.336   1.866
 7570SOL    HW124542   0.251  14.315   1.794
 7570SOL    HW224543   0.220  14.278   1.937
 7571SOL     OW24544   5.888   3.120   6.215
 7571SOL    HW124545   5.844   3.043   6.178
 7571SOL    HW224546   5.828   3.150   6.284
 7572SOL     OW24547  12.423   4.975   9.017
 7572SOL    HW124548  12.513   4.987   9.049
 7572SOL    HW224549  12.384   4.912   9.077
 7573SOL     OW24550   3.924   3.073   4.459
 7573SOL    HW124551   3.953   3.071   4.550
 7573SOL    HW224552   3.916   2.980   4.435
 7574SOL     OW24553  14.263  13.793   5.392
 7574SOL    HW124554  14.254  13.843   5.473
 7574SOL    HW224555  14.210  13.842   5.328
 7575SOL     OW24556   9.672   0.724   1.533
 7575SOL    HW124557   9.712   0.740   1.447
 7575SOL    HW224558   9.704   0.638   1.558
 7576SOL     OW24559   1.762  14.603   6.989
 7576SOL    HW124560   1.857  14.610   6.983
 7576SOL    HW224561   1.735  14.566   6.905
 7577SOL     OW24562   5.855   2.822  10.506
 7577SOL    HW124563   5.793   2.781  10.446
 7577SOL    HW224564   5.929   2.762  10.510
 7578SOL     OW24565   3.919  13.544  12.948
 7578SOL    HW124566   3.857  13.496  13.003
 7578SOL    HW224567   3.906  13.507  12.860
 7579SOL     OW24568   4.284   4.485  12.361
 7579SOL    HW124569   4.266   4.486  12.267
 7579SOL    HW224570   4.341   4.410  12.374
 7580SOL     OW24571   2.053  10.374   3.224
 7580SOL    HW124572   1.996  10.406   3.293
 7580SOL    HW224573   2.086  10.290   3.257
 7581SOL     OW24574   6.901   4.357   6.457
 7581SOL    HW124575   6.871   4.267   6.443
 7581SOL    HW224576   6.996   4.350   6.461
 7582SOL     OW24577   3.867  11.633   5.246
 7582SOL    HW124578   3.928  11.624   5.319
 7582SOL    HW224579   3.868  11.547   5.204
 7583SOL     OW24580  11.548  11.141   5.024
 7583SOL    HW124581  11.604  11.170   4.951
 7583SOL    HW224582  11.502  11.220   5.052
 7584SOL     OW24583   8.408   3.955  12.379
 7584SOL    HW124584   8.399   4.008  12.458
 7584SOL    HW224585   8.502   3.936  12.375
 7585SOL     OW24586   7.791  13.658   2.387
 7585SOL    HW124587   7.733  13.689   2.317
 7585SOL    HW224588   7.803  13.734   2.444
 7586SOL     OW24589   7.549   9.986   9.641
 7586SOL    HW124590   7.516  10.071   9.610
 7586SOL    HW224591   7.609  10.009   9.712
 7587SOL     OW24592   1.697  13.088   1.819
 7587SOL    HW124593   1.756  13.018   1.847
 7587SOL    HW224594   1.637  13.100   1.893
 7588SOL     OW24595   8.622   5.450  14.514
 7588SOL    HW124596   8.637   5.357  14.533
 7588SOL    HW224597   8.568   5.480  14.587
 7589SOL     OW24598   5.518   1.151  11.059
 7589SOL    HW124599   5.517   1.242  11.089
 7589SOL    HW224600   5.426   1.131  11.041
 7590SOL     OW24601   6.782   0.834   9.846
 7590SOL    HW124602   6.845   0.779   9.799
 7590SOL    HW224603   6.703   0.831   9.792
 7591SOL     OW24604  12.946   9.520  10.960
 7591SOL    HW124605  12.879   9.495  10.897
 7591SOL    HW224606  12.956   9.615  10.948
 7592SOL     OW24607  10.514   4.160   1.876
 7592SOL    HW124608  10.573   4.106   1.929
 7592SOL    HW224609  10.499   4.109   1.797
 7593SOL     OW24610   3.069   1.994   8.317
 7593SOL    HW124611   3.041   1.951   8.236
 7593SOL    HW224612   2.987   2.007   8.366
 7594SOL     OW24613   6.677  12.525  10.583
 7594SOL    HW124614   6.770  12.512  10.602
 7594SOL    HW224615   6.646  12.585  10.650
 7595SOL     OW24616  14.792   3.455   4.731
 7595SOL    HW124617  14.758   3.544   4.744
 7595SOL    HW224618  14.788   3.442   4.636
 7596SOL     OW24619   8.742   4.541   2.234
 7596SOL    HW124620   8.706   4.519   2.319
 7596SOL    HW224621   8.688   4.614   2.203
 7597SOL     OW24622   4.533  12.008   1.466
 7597SOL    HW124623   4.485  12.046   1.540
 7597SOL    HW224624   4.595  11.947   1.507
 7598SOL     OW24625   6.841  13.433   5.377
 7598SOL    HW124626   6.878  13.345   5.367
 7598SOL    HW224627   6.789  13.446   5.298
 7599SOL     OW24628  12.630  12.061   7.639
 7599SOL    HW124629  12.551  12.042   7.690
 7599SOL    HW224630  12.618  12.014   7.557
 7600SOL     OW24631  13.163   1.980   7.190
 7600SOL    HW124632  13.253   1.948   7.199
 7600SOL    HW224633  13.173   2.071   7.164
 7601SOL     OW24634   6.045   2.280   3.805
 7601SOL    HW124635   5.987   2.253   3.734
 7601SOL    HW224636   6.110   2.209   3.810
 7602SOL     OW24637   8.467   3.079   1.059
 7602SOL    HW124638   8.434   3.157   1.103
 7602SOL    HW224639   8.509   3.113   0.979
 7603SOL     OW24640   5.212   9.310   8.290
 7603SOL    HW124641   5.198   9.371   8.218
 7603SOL    HW224642   5.210   9.223   8.249
 7604SOL     OW24643   4.760   6.900  13.783
 7604SOL    HW124644   4.686   6.860  13.828
 7604SOL    HW224645   4.767   6.851  13.701
 7605SOL     OW24646   4.083  13.991   4.029
 7605SOL    HW124647   4.055  14.006   3.938
 7605SOL    HW224648   4.011  14.025   4.082
 7606SOL     OW24649  14.408   7.054   9.890
 7606SOL    HW124650  14.470   6.986   9.863
 7606SOL    HW224651  14.328   7.007   9.913
 7607SOL     OW24652   6.943  10.819   4.870
 7607SOL    HW124653   7.010  10.791   4.932
 7607SOL    HW224654   6.993  10.843   4.791
 7608SOL     OW24655  10.976  11.046  12.265
 7608SOL    HW124656  10.979  11.060  12.170
 7608SOL    HW224657  10.908  10.979  12.277
 7609SOL     OW24658  13.177   4.128   0.005
 7609SOL    HW124659  13.091   4.087  14.870
 7609SOL    HW224660  13.167   4.213  14.833
 7610SOL     OW24661   9.440  12.661   4.622
 7610SOL    HW124662   9.483  12.605   4.687
 7610SOL    HW224663   9.450  12.750   4.657
 7611SOL     OW24664   3.631   8.170   0.143
 7611SOL    HW124665   3.720   8.203   0.137
 7611SOL    HW224666   3.628   8.122   0.226
 7612SOL     OW24667   2.843  11.497   6.406
 7612SOL    HW124668   2.848  11.593   6.405
 7612SOL    HW224669   2.772  11.477   6.345
 7613SOL     OW24670   1.466   6.404   8.496
 7613SOL    HW124671   1.520   6.336   8.456
 7613SOL    HW224672   1.393   6.415   8.435
 7614SOL     OW24673  12.270   9.095  14.431
 7614SOL    HW124674  12.311   9.139  14.505
 7614SOL    HW224675  12.296   9.148  14.355
 7615SOL     OW24676   5.391  11.362  11.750
 7615SOL    HW124677   5.358  11.345  11.838
 7615SOL    HW224678   5.447  11.287  11.730
 7616SOL     OW24679   2.238   4.583   8.352
 7616SOL    HW124680   2.284   4.631   8.283
 7616SOL    HW224681   2.147   4.580   8.324
 7617SOL     OW24682  13.578   9.133   6.704
 7617SOL    HW124683  13.644   9.080   6.750
 7617SOL    HW224684  13.503   9.134   6.763
 7618SOL     OW24685  11.222   2.783   3.366
 7618SOL    HW124686  11.193   2.857   3.420
 7618SOL    HW224687  11.151   2.771   3.303
 7619SOL     OW24688   2.509   2.355   8.789
 7619SOL    HW124689   2.495   2.363   8.883
 7619SOL    HW224690   2.513   2.445   8.757
 7620SOL     OW24691  10.328   6.099   4.419
 7620SOL    HW124692  10.302   6.071   4.331
 7620SOL    HW224693  10.251   6.144   4.453
 7621SOL     OW24694   5.069   2.381  13.024
 7621SOL    HW124695   5.007   2.451  13.005
 7621SOL    HW224696   5.048   2.354  13.113
 7622SOL     OW24697   2.939   6.478  10.204
 7622SOL    HW124698   2.962   6.565  10.172
 7622SOL    HW224699   3.021   6.443  10.240
 7623SOL     OW24700   6.339  12.048  10.542
 7623SOL    HW124701   6.426  12.047  10.502
 7623SOL    HW224702   6.314  11.956  10.546
 7624SOL     OW24703  11.707   5.019  11.330
 7624SOL    HW124704  11.773   4.950  11.324
 7624SOL    HW224705  11.710   5.048  11.421
 7625SOL     OW24706   0.731  12.192   7.881
 7625SOL    HW124707   0.740  12.115   7.937
 7625SOL    HW224708   0.685  12.159   7.803
 7626SOL     OW24709   9.472   2.215   7.643
 7626SOL    HW124710   9.419   2.257   7.711
 7626SOL    HW224711   9.440   2.125   7.639
 7627SOL     OW24712   7.913   5.350   5.124
 7627SOL    HW124713   7.994   5.393   5.152
 7627SOL    HW224714   7.901   5.279   5.187
 7628SOL     OW24715  13.719   0.756   3.637
 7628SOL    HW124716  13.682   0.709   3.712
 7628SOL    HW224717  13.720   0.848   3.665
 7629SOL     OW24718   9.143   5.890  13.250
 7629SOL    HW124719   9.212   5.956  13.256
 7629SOL    HW224720   9.175   5.827  13.185
 7630SOL     OW24721   7.131  12.314  11.652
 7630SOL    HW124722   7.204  12.254  11.637
 7630SOL    HW224723   7.173  12.397  11.677
 7631SOL     OW24724   1.058   6.924   6.561
 7631SOL    HW124725   1.070   6.961   6.649
 7631SOL    HW224726   1.101   6.839   6.565
 7632SOL     OW24727   7.886   8.345  13.697
 7632SOL    HW124728   7.873   8.254  13.722
 7632SOL    HW224729   7.981   8.358  13.701
 7633SOL     OW24730   2.815  13.868  12.924
 7633SOL    HW124731   2.910  13.866  12.913
 7633SOL    HW224732   2.801  13.926  12.999
 7634SOL     OW24733  11.422   8.962   3.965
 7634SOL    HW124734  11.493   8.919   4.012
 7634SOL    HW224735  11.357   8.982   4.032
 7635SOL     OW24736   0.143   9.052   9.969
 7635SOL    HW124737   0.193   9.128  10.000
 7635SOL    HW224738   0.185   8.977  10.011
 7636SOL     OW24739   7.737   9.595  13.838
 7636SOL    HW124740   7.758   9.504  13.818
 7636SOL    HW224741   7.778   9.645  13.767
 7637SOL     OW24742   2.529   9.798   0.597
 7637SOL    HW124743   2.495   9.778   0.510
 7637SOL    HW224744   2.618   9.764   0.597
 7638SOL     OW24745   7.092   1.574   2.765
 7638SOL    HW124746   7.124   1.493   2.805
 7638SOL    HW224747   7.018   1.600   2.820
 7639SOL     OW24748  10.885   8.336   4.382
 7639SOL    HW124749  10.858   8.395   4.312
 7639SOL    HW224750  10.973   8.309   4.356
 7640SOL     OW24751   5.603  13.834   1.901
 7640SOL    HW124752   5.547  13.807   1.828
 7640SOL    HW224753   5.542  13.850   1.973
 7641SOL     OW24754   3.775   6.740   6.974
 7641SOL    HW124755   3.715   6.813   6.989
 7641SOL    HW224756   3.720   6.662   6.984
 7642SOL     OW24757  11.170  12.633  14.084
 7642SOL    HW124758  11.245  12.604  14.136
 7642SOL    HW224759  11.184  12.727  14.071
 7643SOL     OW24760  10.514   7.012  13.567
 7643SOL    HW124761  10.514   7.050  13.655
 7643SOL    HW224762  10.437   7.051  13.525
 7644SOL     OW24763   5.340   4.736   0.121
 7644SOL    HW124764   5.398   4.670   0.084
 7644SOL    HW224765   5.384   4.767   0.199
 7645SOL     OW24766   5.766  11.945   8.399
 7645SOL    HW124767   5.708  11.981   8.466
 7645SOL    HW224768   5.713  11.881   8.352
 7646SOL     OW24769   0.008   1.933   4.353
 7646SOL    HW124770   0.073   1.898   4.292
 7646SOL    HW224771  14.857   1.858   4.409
 7647SOL     OW24772   8.190   6.008   2.659
 7647SOL    HW124773   8.110   6.050   2.691
 7647SOL    HW224774   8.180   6.006   2.564
 7648SOL     OW24775   1.723   2.546  12.248
 7648SOL    HW124776   1.693   2.556  12.338
 7648SOL    HW224777   1.756   2.457  12.242
 7649SOL     OW24778   3.673   2.136  10.666
 7649SOL    HW124779   3.612   2.124  10.739
 7649SOL    HW224780   3.690   2.047  10.634
 7650SOL     OW24781   2.676  11.448  11.905
 7650SOL    HW124782   2.712  11.377  11.958
 7650SOL    HW224783   2.709  11.528  11.945
 7651SOL     OW24784   4.882   6.797   9.138
 7651SOL    HW124785   4.959   6.768   9.187
 7651SOL    HW224786   4.870   6.732   9.070
 7652SOL     OW24787   9.490   6.634   9.593
 7652SOL    HW124788   9.421   6.692   9.560
 7652SOL    HW224789   9.571   6.683   9.578
 7653SOL     OW24790   9.879  10.167  13.415
 7653SOL    HW124791   9.884  10.152  13.321
 7653SOL    HW224792   9.804  10.114  13.444
 7654SOL     OW24793   8.103  11.806  12.663
 7654SOL    HW124794   8.041  11.768  12.602
 7654SOL    HW224795   8.151  11.731  12.698
 7655SOL     OW24796  11.456   1.426  12.719
 7655SOL    HW124797  11.392   1.372  12.674
 7655SOL    HW224798  11.405   1.480  12.779
 7656SOL     OW24799   0.932   6.136  12.942
 7656SOL    HW124800   0.945   6.065  13.004
 7656SOL    HW224801   1.020   6.155  12.909
 7657SOL     OW24802   5.807   8.901  10.067
 7657SOL    HW124803   5.714   8.885  10.051
 7657SOL    HW224804   5.836   8.826  10.119
 7658SOL     OW24805   5.883   7.678   3.394
 7658SOL    HW124806   5.858   7.619   3.466
 7658SOL    HW224807   5.865   7.766   3.427
 7659SOL     OW24808   5.135   5.566   9.036
 7659SOL    HW124809   5.113   5.629   9.104
 7659SOL    HW224810   5.051   5.541   8.998
 7660SOL     OW24811   3.406   3.151  11.154
 7660SOL    HW124812   3.327   3.145  11.208
 7660SOL    HW224813   3.375   3.142  11.064
 7661SOL     OW24814   1.751  12.165   4.017
 7661SOL    HW124815   1.835  12.212   4.016
 7661SOL    HW224816   1.708  12.192   3.936
 7662SOL     OW24817  13.076  14.505   6.835
 7662SOL    HW124818  13.099  14.412   6.832
 7662SOL    HW224819  12.993  14.507   6.883
 7663SOL     OW24820  11.451  10.833   8.690
 7663SOL    HW124821  11.472  10.887   8.766
 7663SOL    HW224822  11.444  10.744   8.725
 7664SOL     OW24823   7.270   4.013   8.324
 7664SOL    HW124824   7.293   4.106   8.323
 7664SOL    HW224825   7.218   4.003   8.404
 7665SOL     OW24826   7.269   3.368   7.597
 7665SOL    HW124827   7.248   3.460   7.611
 7665SOL    HW224828   7.314   3.366   7.512
 7666SOL     OW24829   0.206  13.282  14.117
 7666SOL    HW124830   0.263  13.358  14.131
 7666SOL    HW224831   0.265  13.207  14.124
 7667SOL     OW24832  14.099   7.633   0.800
 7667SOL    HW124833  14.036   7.565   0.822
 7667SOL    HW224834  14.045   7.711   0.782
 7668SOL     OW24835  14.675   7.283   6.562
 7668SOL    HW124836  14.703   7.365   6.604
 7668SOL    HW224837  14.755   7.231   6.556
 7669SOL     OW24838   2.110   4.250  11.451
 7669SOL    HW124839   2.142   4.182  11.391
 7669SOL    HW224840   2.028   4.280  11.411
 7670SOL     OW24841  12.082  13.880   4.454
 7670SOL    HW124842  12.059  13.788   4.447
 7670SOL    HW224843  12.030  13.923   4.386
 7671SOL     OW24844  10.230   8.269   3.120
 7671SOL    HW124845  10.251   8.355   3.155
 7671SOL    HW224846  10.210   8.285   3.027
 7672SOL     OW24847   6.377   1.131  10.233
 7672SOL    HW124848   6.334   1.214  10.253
 7672SOL    HW224849   6.471   1.152  10.231
 7673SOL     OW24850   0.980   2.559  10.910
 7673SOL    HW124851   1.057   2.538  10.963
 7673SOL    HW224852   0.916   2.492  10.933
 7674SOL     OW24853   8.859  14.333   5.572
 7674SOL    HW124854   8.886  14.327   5.481
 7674SOL    HW224855   8.934  14.299   5.622
 7675SOL     OW24856   0.804  10.077   0.753
 7675SOL    HW124857   0.708  10.070   0.752
 7675SOL    HW224858   0.821  10.170   0.738
 7676SOL     OW24859   6.371   6.181   6.773
 7676SOL    HW124860   6.462   6.208   6.787
 7676SOL    HW224861   6.320   6.240   6.829
 7677SOL     OW24862   2.335   5.294   5.827
 7677SOL    HW124863   2.247   5.255   5.826
 7677SOL    HW224864   2.338   5.347   5.747
 7678SOL     OW24865   2.486  11.854  10.408
 7678SOL    HW124866   2.547  11.805  10.353
 7678SOL    HW224867   2.443  11.787  10.462
 7679SOL     OW24868   4.216   3.646  13.117
 7679SOL    HW124869   4.122   3.637  13.129
 7679SOL    HW224870   4.245   3.706  13.186
 7680SOL     OW24871   6.364  12.598  12.509
 7680SOL    HW124872   6.328  12.510  12.519
 7680SOL    HW224873   6.315  12.652  12.571
 7681SOL     OW24874   8.171   9.365   7.648
 7681SOL    HW124875   8.234   9.388   7.715
 7681SOL    HW224876   8.218   9.378   7.565
 7682SOL     OW24877   4.869  12.854   9.489
 7682SOL    HW124878   4.811  12.930   9.501
 7682SOL    HW224879   4.817  12.791   9.440
 7683SOL     OW24880   7.393   6.064   0.842
 7683SOL    HW124881   7.424   6.141   0.890
 7683SOL    HW224882   7.303   6.051   0.873
 7684SOL     OW24883   3.812   0.640  10.077
 7684SOL    HW124884   3.741   0.697  10.047
 7684SOL    HW224885   3.850   0.606   9.996
 7685SOL     OW24886   7.975  14.775   8.092
 7685SOL    HW124887   7.892  14.773   8.045
 7685SOL    HW224888   8.015  14.858   8.068
 7686SOL     OW24889   4.160   4.315   3.790
 7686SOL    HW124890   4.065   4.326   3.798
 7686SOL    HW224891   4.195   4.337   3.876
 7687SOL     OW24892   0.558   1.633   8.265
 7687SOL    HW124893   0.584   1.724   8.254
 7687SOL    HW224894   0.564   1.617   8.359
 7688SOL     OW24895   7.081   9.944  13.096
 7688SOL    HW124896   7.143   9.932  13.025
 7688SOL    HW224897   7.088   9.865  13.149
 7689SOL     OW24898   7.726   4.579   6.127
 7689SOL    HW124899   7.742   4.652   6.188
 7689SOL    HW224900   7.770   4.504   6.167
 7690SOL     OW24901  10.371   3.219   4.471
 7690SOL    HW124902  10.329   3.245   4.389
 7690SOL    HW224903  10.442   3.282   4.483
 7691SOL     OW24904   0.156  13.266   6.418
 7691SOL    HW124905   0.142  13.202   6.348
 7691SOL    HW224906   0.142  13.216   6.499
 7692SOL     OW24907   5.814  10.545   3.572
 7692SOL    HW124908   5.804  10.475   3.637
 7692SOL    HW224909   5.877  10.511   3.509
 7693SOL     OW24910  12.791   5.264   4.585
 7693SOL    HW124911  12.698   5.246   4.596
 7693SOL    HW224912  12.811   5.328   4.653
 7694SOL     OW24913  11.898   9.251  12.470
 7694SOL    HW124914  11.842   9.220  12.399
 7694SOL    HW224915  11.948   9.323  12.432
 7695SOL     OW24916   2.136   3.438  14.865
 7695SOL    HW124917   2.149   3.528  14.836
 7695SOL    HW224918   2.193   3.386  14.808
 7696SOL     OW24919   6.109   2.336   8.037
 7696SOL    HW124920   6.020   2.345   8.071
 7696SOL    HW224921   6.141   2.255   8.077
 7697SOL     OW24922   2.053   2.040  10.340
 7697SOL    HW124923   2.106   1.962  10.322
 7697SOL    HW224924   1.994   2.046  10.265
 7698SOL     OW24925  13.380   0.213  10.548
 7698SOL    HW124926  13.385   0.309  10.547
 7698SOL    HW224927  13.392   0.188  10.456
 7699SOL     OW24928   0.997   2.372   4.658
 7699SOL    HW124929   0.963   2.312   4.725
 7699SOL    HW224930   1.034   2.444   4.709
 7700SOL     OW24931   6.136  11.030   1.557
 7700SOL    HW124932   6.182  11.105   1.520
 7700SOL    HW224933   6.206  10.977   1.597
 7701SOL     OW24934   6.595   8.927  14.651
 7701SOL    HW124935   6.583   8.867  14.577
 7701SOL    HW224936   6.582   9.014  14.613
 7702SOL     OW24937   8.473   1.642  12.397
 7702SOL    HW124938   8.498   1.567  12.343
 7702SOL    HW224939   8.479   1.717  12.338
 7703SOL     OW24940   9.369  13.936   1.638
 7703SOL    HW124941   9.377  13.861   1.697
 7703SOL    HW224942   9.305  13.908   1.573
 7704SOL     OW24943   8.407   3.149  11.224
 7704SOL    HW124944   8.449   3.065  11.242
 7704SOL    HW224945   8.478   3.208  11.201
 7705SOL     OW24946   1.873   1.477   1.484
 7705SOL    HW124947   1.893   1.515   1.399
 7705SOL    HW224948   1.881   1.550   1.545
 7706SOL     OW24949   1.376   7.654   6.139
 7706SOL    HW124950   1.284   7.680   6.140
 7706SOL    HW224951   1.424   7.738   6.136
 7707SOL     OW24952   6.599  12.031   5.165
 7707SOL    HW124953   6.564  12.084   5.094
 7707SOL    HW224954   6.661  12.090   5.210
 7708SOL     OW24955  12.895   4.738  12.668
 7708SOL    HW124956  12.949   4.813  12.695
 7708SOL    HW224957  12.833   4.727  12.740
 7709SOL     OW24958   0.021  12.620  12.521
 7709SOL    HW124959   0.076  12.572  12.583
 7709SOL    HW224960  14.809  12.629  12.566
 7710SOL     OW24961   5.349   6.041  13.129
 7710SOL    HW124962   5.428   6.004  13.168
 7710SOL    HW224963   5.282   5.974  13.140
 7711SOL     OW24964  10.125  11.993  14.155
 7711SOL    HW124965  10.147  11.948  14.074
 7711SOL    HW224966  10.046  12.043  14.134
 7712SOL     OW24967  12.550  12.020   8.127
 7712SOL    HW124968  12.493  11.978   8.190
 7712SOL    HW224969  12.591  11.948   8.078
 7713SOL     OW24970  11.240   2.259   3.039
 7713SOL    HW124971  11.223   2.350   3.014
 7713SOL    HW224972  11.159   2.230   3.081
 7714SOL     OW24973   6.724  13.377  11.615
 7714SOL    HW124974   6.805  13.421  11.589
 7714SOL    HW224975   6.723  13.386  11.711
 7715SOL     OW24976  11.371   0.884   3.868
 7715SOL    HW124977  11.448   0.836   3.898
 7715SOL    HW224978  11.314   0.817   3.831
 7716SOL     OW24979  11.668   9.207   8.357
 7716SOL    HW124980  11.746   9.153   8.341
 7716SOL    HW224981  11.638   9.179   8.444
 7717SOL     OW24982   0.273   4.430   1.390
 7717SOL    HW124983   0.186   4.402   1.420
 7717SOL    HW224984   0.316   4.462   1.470
 7718SOL     OW24985   7.301   4.716   8.402
 7718SOL    HW124986   7.383   4.693   8.358
 7718SOL    HW224987   7.242   4.740   8.331
 7719SOL     OW24988   6.453  12.375   5.807
 7719SOL    HW124989   6.544  12.398   5.789
 7719SOL    HW224990   6.438  12.406   5.897
 7720SOL     OW24991  11.110  12.287   5.580
 7720SOL    HW124992  11.094  12.194   5.599
 7720SOL    HW224993  11.161  12.286   5.499
 7721SOL     OW24994   1.532   3.875   4.206
 7721SOL    HW124995   1.568   3.813   4.270
 7721SOL    HW224996   1.598   3.944   4.201
 7722SOL     OW24997  10.312  11.574   1.446
 7722SOL    HW124998  10.305  11.552   1.539
 7722SOL    HW224999  10.272  11.500   1.401
 7723SOL     OW25000   9.747   1.155   9.565
 7723SOL    HW125001   9.683   1.189   9.503
 7723SOL    HW225002   9.813   1.111   9.511
 7724SOL     OW25003  12.025   8.615  12.011
 7724SOL    HW125004  11.993   8.684  11.953
 7724SOL    HW225005  11.992   8.638  12.098
 7725SOL     OW25006   8.036   4.195  14.447
 7725SOL    HW125007   8.130   4.177  14.444
 7725SOL    HW225008   8.029   4.278  14.496
 7726SOL     OW25009   0.819   1.557  13.339
 7726SOL    HW125010   0.766   1.532  13.415
 7726SOL    HW225011   0.799   1.491  13.273
 7727SOL     OW25012  12.808  12.792  11.322
 7727SOL    HW125013  12.821  12.717  11.381
 7727SOL    HW225014  12.722  12.826  11.344
 7728SOL     OW25015  14.412   4.193   8.607
 7728SOL    HW125016  14.368   4.188   8.522
 7728SOL    HW225017  14.413   4.286   8.628
 7729SOL     OW25018   7.076   0.997  10.971
 7729SOL    HW125019   7.104   0.989  11.062
 7729SOL    HW225020   7.154   1.025  10.924
 7730SOL     OW25021  14.328  14.369   8.740
 7730SOL    HW125022  14.424  14.372   8.739
 7730SOL    HW225023  14.301  14.452   8.700
 7731SOL     OW25024   1.094  13.923   0.991
 7731SOL    HW125025   1.185  13.898   0.976
 7731SOL    HW225026   1.075  13.894   1.081
 7732SOL     OW25027   3.534   4.513  11.303
 7732SOL    HW125028   3.471   4.504  11.231
 7732SOL    HW225029   3.619   4.502  11.261
 7733SOL     OW25030   1.256   6.642   0.506
 7733SOL    HW125031   1.171   6.598   0.502
 7733SOL    HW225032   1.235   6.735   0.494
 7734SOL     OW25033  13.850   4.240   4.148
 7734SOL    HW125034  13.861   4.154   4.188
 7734SOL    HW225035  13.801   4.290   4.213
 7735SOL     OW25036   7.158   4.359   8.718
 7735SOL    HW125037   7.202   4.376   8.635
 7735SOL    HW225038   7.156   4.443   8.763
 7736SOL     OW25039   6.452  11.246  10.880
 7736SOL    HW125040   6.393  11.218  10.951
 7736SOL    HW225041   6.527  11.284  10.925
 7737SOL     OW25042  14.013   8.993   9.368
 7737SOL    HW125043  14.002   9.057   9.297
 7737SOL    HW225044  14.037   9.046   9.443
 7738SOL     OW25045  11.789   3.296  12.713
 7738SOL    HW125046  11.790   3.388  12.736
 7738SOL    HW225047  11.697   3.277  12.693
 7739SOL     OW25048  12.035  13.931   6.248
 7739SOL    HW125049  11.994  14.017   6.244
 7739SOL    HW225050  12.055  13.910   6.156
 7740SOL     OW25051   7.182  13.711  13.204
 7740SOL    HW125052   7.178  13.735  13.111
 7740SOL    HW225053   7.269  13.672  13.215
 7741SOL     OW25054   7.880   3.819   5.991
 7741SOL    HW125055   7.874   3.829   5.896
 7741SOL    HW225056   7.818   3.749   6.011
 7742SOL     OW25057   7.164   2.898   9.079
 7742SOL    HW125058   7.259   2.908   9.084
 7742SOL    HW225059   7.150   2.804   9.068
 7743SOL     OW25060   7.115   6.054   1.354
 7743SOL    HW125061   7.153   5.969   1.334
 7743SOL    HW225062   7.127   6.064   1.448
 7744SOL     OW25063  13.570   9.183   8.933
 7744SOL    HW125064  13.518   9.131   8.993
 7744SOL    HW225065  13.659   9.148   8.940
 7745SOL     OW25066  11.910   6.692   2.909
 7745SOL    HW125067  11.948   6.717   2.993
 7745SOL    HW225068  11.847   6.623   2.930
 7746SOL     OW25069  10.711   9.255   9.838
 7746SOL    HW125070  10.690   9.303   9.758
 7746SOL    HW225071  10.786   9.302   9.874
 7747SOL     OW25072  11.547  10.222  12.355
 7747SOL    HW125073  11.569  10.150  12.414
 7747SOL    HW225074  11.496  10.181  12.285
 7748SOL     OW25075   1.326  13.751   8.185
 7748SOL    HW125076   1.302  13.720   8.097
 7748SOL    HW225077   1.250  13.801   8.214
 7749SOL     OW25078  14.785   6.207   3.150
 7749SOL    HW125079  14.805   6.234   3.240
 7749SOL    HW225080  14.803   6.113   3.150
 7750SOL     OW25081   9.291   4.182   8.492
 7750SOL    HW125082   9.233   4.106   8.478
 7750SOL    HW225083   9.236   4.257   8.470
 7751SOL     OW25084   2.192   2.630   4.393
 7751SOL    HW125085   2.205   2.578   4.314
 7751SOL    HW225086   2.098   2.638   4.403
 7752SOL     OW25087  14.720   8.685   3.353
 7752SOL    HW125088  14.783   8.688   3.281
 7752SOL    HW225089  14.745   8.607   3.403
 7753SOL     OW25090   9.890   9.038   5.759
 7753SOL    HW125091   9.880   9.132   5.771
 7753SOL    HW225092   9.803   9.002   5.777
 7754SOL     OW25093   9.045   7.502  10.232
 7754SOL    HW125094   9.070   7.590  10.202
 7754SOL    HW225095   9.007   7.516  10.318
 7755SOL     OW25096  13.292   4.335   5.569
 7755SOL    HW125097  13.278   4.429   5.579
 7755SOL    HW225098  13.336   4.326   5.484
 7756SOL     OW25099   7.117   3.681   9.863
 7756SOL    HW125100   7.130   3.725   9.779
 7756SOL    HW225101   7.106   3.752   9.926
 7757SOL     OW25102  11.597  11.004   7.001
 7757SOL    HW125103  11.641  10.931   7.044
 7757SOL    HW225104  11.508  11.002   7.035
 7758SOL     OW25105  13.975   9.836   5.544
 7758SOL    HW125106  13.944   9.751   5.511
 7758SOL    HW225107  13.968   9.828   5.639
 7759SOL     OW25108   9.451   6.832   8.969
 7759SOL    HW125109   9.425   6.764   8.906
 7759SOL    HW225110   9.543   6.813   8.988
 7760SOL     OW25111   6.621   8.510   1.055
 7760SOL    HW125112   6.686   8.521   0.986
 7760SOL    HW225113   6.589   8.599   1.073
 7761SOL     OW25114  13.552   2.311   5.825
 7761SOL    HW125115  13.493   2.375   5.785
 7761SOL    HW225116  13.565   2.344   5.914
 7762SOL     OW25117   4.815  14.651   4.956
 7762SOL    HW125118   4.877  14.719   4.981
 7762SOL    HW225119   4.766  14.687   4.883
 7763SOL     OW25120   7.681   3.305   9.471
 7763SOL    HW125121   7.737   3.311   9.549
 7763SOL    HW225122   7.641   3.218   9.478
 7764SOL     OW25123   9.431   0.885   2.501
 7764SOL    HW125124   9.386   0.827   2.440
 7764SOL    HW225125   9.485   0.941   2.446
 7765SOL     OW25126  10.867  14.211   8.769
 7765SOL    HW125127  10.859  14.118   8.747
 7765SOL    HW225128  10.782  14.235   8.806
 7766SOL     OW25129   8.658   8.563   7.351
 7766SOL    HW125130   8.583   8.622   7.364
 7766SOL    HW225131   8.728   8.620   7.319
 7767SOL     OW25132   5.214  10.160   1.759
 7767SOL    HW125133   5.154  10.123   1.824
 7767SOL    HW225134   5.161  10.224   1.712
 7768SOL     OW25135   8.565  10.373  12.249
 7768SOL    HW125136   8.520  10.290  12.238
 7768SOL    HW225137   8.657  10.349  12.261
 7769SOL     OW25138   8.451  12.509  13.200
 7769SOL    HW125139   8.482  12.600  13.202
 7769SOL    HW225140   8.451  12.486  13.107
 7770SOL     OW25141  11.982  12.777  13.776
 7770SOL    HW125142  12.037  12.854  13.792
 7770SOL    HW225143  12.021  12.734  13.700
 7771SOL     OW25144   8.686  13.496   2.299
 7771SOL    HW125145   8.780  13.475   2.302
 7771SOL    HW225146   8.655  13.482   2.388
 7772SOL     OW25147   5.099  13.748   5.659
 7772SOL    HW125148   5.110  13.833   5.702
 7772SOL    HW225149   5.178  13.737   5.606
 7773SOL     OW25150  11.240   5.755  14.372
 7773SOL    HW125151  11.295   5.772  14.296
 7773SOL    HW225152  11.301   5.731  14.442
 7774SOL     OW25153  11.794   2.456   0.058
 7774SOL    HW125154  11.699   2.467   0.059
 7774SOL    HW225155  11.818   2.463  14.838
 7775SOL     OW25156   8.661   5.558   6.793
 7775SOL    HW125157   8.660   5.502   6.871
 7775SOL    HW225158   8.612   5.508   6.727
 7776SOL     OW25159   8.984   3.580   6.835
 7776SOL    HW125160   9.023   3.608   6.918
 7776SOL    HW225161   8.891   3.568   6.855
 7777SOL     OW25162   5.701  14.350   3.954
 7777SOL    HW125163   5.648  14.367   4.032
 7777SOL    HW225164   5.750  14.431   3.941
 7778SOL     OW25165   0.479   9.816  13.889
 7778SOL    HW125166   0.416   9.822  13.818
 7778SOL    HW225167   0.426   9.811  13.969
 7779SOL     OW25168   9.320   3.985   5.322
 7779SOL    HW125169   9.377   4.040   5.376
 7779SOL    HW225170   9.259   3.945   5.385
 7780SOL     OW25171   5.525   7.882  12.500
 7780SOL    HW125172   5.545   7.938  12.426
 7780SOL    HW225173   5.563   7.927  12.576
 7781SOL     OW25174   2.768   4.460  14.359
 7781SOL    HW125175   2.699   4.472  14.424
 7781SOL    HW225176   2.775   4.365  14.350
 7782SOL     OW25177  13.188   8.256   2.617
 7782SOL    HW125178  13.097   8.240   2.590
 7782SOL    HW225179  13.180   8.302   2.701
 7783SOL     OW25180  13.793  12.508   7.320
 7783SOL    HW125181  13.755  12.421   7.313
 7783SOL    HW225182  13.816  12.517   7.413
 7784SOL     OW25183   8.475  13.452   2.751
 7784SOL    HW125184   8.490  13.497   2.835
 7784SOL    HW225185   8.381  13.439   2.747
 7785SOL     OW25186  12.743   0.028  13.293
 7785SOL    HW125187  12.651   0.001  13.285
 7785SOL    HW225188  12.788  14.852  13.224
 7786SOL     OW25189   2.081  10.811   2.347
 7786SOL    HW125190   2.032  10.816   2.265
 7786SOL    HW225191   2.069  10.721   2.378
 7787SOL     OW25192  10.451  10.368  13.030
 7787SOL    HW125193  10.460  10.382  13.124
 7787SOL    HW225194  10.410  10.448  12.997
 7788SOL     OW25195   4.940   6.716  14.156
 7788SOL    HW125196   4.922   6.801  14.116
 7788SOL    HW225197   4.859   6.666  14.145
 7789SOL     OW25198  13.972  14.518  12.968
 7789SOL    HW125199  13.995  14.463  13.043
 7789SOL    HW225200  14.005  14.605  12.991
 7790SOL     OW25201  12.152   7.370   8.684
 7790SOL    HW125202  12.105   7.306   8.738
 7790SOL    HW225203  12.152   7.450   8.738
 7791SOL     OW25204   8.041  11.499  11.014
 7791SOL    HW125205   7.958  11.531  10.980
 7791SOL    HW225206   8.062  11.424  10.959
 7792SOL     OW25207   5.786   3.597   3.895
 7792SOL    HW125208   5.830   3.555   3.969
 7792SOL    HW225209   5.696   3.565   3.899
 7793SOL     OW25210   0.699  11.389   7.565
 7793SOL    HW125211   0.702  11.412   7.658
 7793SOL    HW225212   0.701  11.473   7.519
 7794SOL     OW25213   3.030   4.627  14.477
 7794SOL    HW125214   2.935   4.629  14.466
 7794SOL    HW225215   3.058   4.717  14.463
 7795SOL     OW25216  10.371   0.619  10.934
 7795SOL    HW125217  10.432   0.682  10.894
 7795SOL    HW225218  10.358   0.652  11.023
 7796SOL     OW25219   3.118   3.216   2.905
 7796SOL    HW125220   3.102   3.149   2.971
 7796SOL    HW225221   3.213   3.226   2.903
 7797SOL     OW25222   9.190  12.936   7.287
 7797SOL    HW125223   9.277  12.962   7.319
 7797SOL    HW225224   9.129  12.977   7.348
 7798SOL     OW25225   2.040  11.752  10.175
 7798SOL    HW125226   2.057  11.843  10.197
 7798SOL    HW225227   2.060  11.745  10.082
 7799SOL     OW25228  11.463   2.195   9.501
 7799SOL    HW125229  11.395   2.166   9.439
 7799SOL    HW225230  11.545   2.166   9.461
 7800SOL     OW25231   9.553  13.516   4.719
 7800SOL    HW125232   9.567  13.604   4.755
 7800SOL    HW225233   9.641  13.481   4.705
 7801SOL     OW25234   7.338   2.710   1.974
 7801SOL    HW125235   7.397   2.682   2.043
 7801SOL    HW225236   7.384   2.782   1.930
 7802SOL     OW25237   1.033   5.507  12.002
 7802SOL    HW125238   1.100   5.456  12.046
 7802SOL    HW225239   0.980   5.443  11.955
 7803SOL     OW25240   5.615  12.452   8.541
 7803SOL    HW125241   5.669  12.375   8.524
 7803SOL    HW225242   5.525  12.421   8.532
 7804SOL     OW25243  10.018   2.830   6.790
 7804SOL    HW125244  10.108   2.841   6.821
 7804SOL    HW225245   9.964   2.844   6.868
 7805SOL     OW25246   8.995   2.337   7.796
 7805SOL    HW125247   8.915   2.364   7.751
 7805SOL    HW225248   9.055   2.410   7.785
 7806SOL     OW25249  12.255  11.424  13.614
 7806SOL    HW125250  12.207  11.495  13.572
 7806SOL    HW225251  12.304  11.383  13.543
 7807SOL     OW25252   6.630  14.854   1.113
 7807SOL    HW125253   6.659  14.829   1.025
 7807SOL    HW225254   6.537  14.870   1.104
 7808SOL     OW25255   4.800   6.905   2.929
 7808SOL    HW125256   4.751   6.928   2.850
 7808SOL    HW225257   4.876   6.963   2.928
 7809SOL     OW25258   3.542   9.679  14.505
 7809SOL    HW125259   3.463   9.675  14.451
 7809SOL    HW225260   3.515   9.729  14.582
 7810SOL     OW25261   3.797   9.643  12.238
 7810SOL    HW125262   3.851   9.702  12.290
 7810SOL    HW225263   3.860   9.597  12.182
 7811SOL     OW25264   3.143   6.882   1.139
 7811SOL    HW125265   3.083   6.814   1.108
 7811SOL    HW225266   3.092   6.932   1.203
 7812SOL     OW25267  11.603  11.169   1.767
 7812SOL    HW125268  11.671  11.201   1.826
 7812SOL    HW225269  11.562  11.248   1.731
 7813SOL     OW25270  10.370  13.787  14.069
 7813SOL    HW125271  10.385  13.874  14.031
 7813SOL    HW225272  10.443  13.734  14.038
 7814SOL     OW25273  11.127  13.220  11.563
 7814SOL    HW125274  11.159  13.297  11.610
 7814SOL    HW225275  11.066  13.178  11.623
 7815SOL     OW25276  10.781   5.995   2.292
 7815SOL    HW125277  10.695   6.000   2.250
 7815SOL    HW225278  10.765   6.022   2.383
 7816SOL     OW25279  13.141   0.593   4.113
 7816SOL    HW125280  13.223   0.568   4.157
 7816SOL    HW225281  13.141   0.689   4.118
 7817SOL     OW25282   6.385   4.507   5.404
 7817SOL    HW125283   6.433   4.589   5.416
 7817SOL    HW225284   6.352   4.512   5.314
 7818SOL     OW25285  10.889  13.205   1.632
 7818SOL    HW125286  10.848  13.221   1.717
 7818SOL    HW225287  10.838  13.258   1.571
 7819SOL     OW25288  14.214   2.525   7.683
 7819SOL    HW125289  14.309   2.532   7.684
 7819SOL    HW225290  14.194   2.477   7.602
 7820SOL     OW25291   1.805   5.368   8.649
 7820SOL    HW125292   1.885   5.317   8.649
 7820SOL    HW225293   1.785   5.381   8.556
 7821SOL     OW25294  11.296   4.238   4.841
 7821SOL    HW125295  11.339   4.261   4.923
 7821SOL    HW225296  11.366   4.205   4.785
 7822SOL     OW25297   8.196  10.460   7.578
 7822SOL    HW125298   8.133  10.531   7.567
 7822SOL    HW225299   8.279  10.498   7.550
 7823SOL     OW25300   9.871  14.739  11.113
 7823SOL    HW125301   9.960  14.703  11.116
 7823SOL    HW225302   9.874  14.805  11.043
 7824SOL     OW25303   5.992   7.151   2.454
 7824SOL    HW125304   5.922   7.090   2.476
 7824SOL    HW225305   6.069   7.119   2.501
 7825SOL     OW25306   8.827  13.776   8.619
 7825SOL    HW125307   8.892  13.800   8.685
 7825SOL    HW225308   8.746  13.762   8.669
 7826SOL     OW25309   6.389  12.385  10.880
 7826SOL    HW125310   6.389  12.413  10.788
 7826SOL    HW225311   6.363  12.293  10.877
 7827SOL     OW25312   9.342   5.053   9.390
 7827SOL    HW125313   9.323   5.146   9.379
 7827SOL    HW225314   9.425   5.050   9.438
 7828SOL     OW25315   2.257   4.115  13.756
 7828SOL    HW125316   2.284   4.046  13.696
 7828SOL    HW225317   2.201   4.071  13.819
 7829SOL     OW25318   4.374   9.396  12.305
 7829SOL    HW125319   4.405   9.343  12.378
 7829SOL    HW225320   4.280   9.406  12.321
 7830SOL     OW25321   6.203   9.566   5.273
 7830SOL    HW125322   6.137   9.635   5.284
 7830SOL    HW225323   6.161   9.501   5.217
 7831SOL     OW25324   6.962   4.354  14.004
 7831SOL    HW125325   7.012   4.283  14.043
 7831SOL    HW225326   6.940   4.411  14.078
 7832SOL     OW25327   6.915   3.386  12.366
 7832SOL    HW125328   6.821   3.387  12.346
 7832SOL    HW225329   6.945   3.474  12.345
 7833SOL     OW25330  10.294   8.762  14.541
 7833SOL    HW125331  10.292   8.697  14.470
 7833SOL    HW225332  10.294   8.710  14.621
 7834SOL     OW25333  13.092   8.461   3.769
 7834SOL    HW125334  13.050   8.468   3.683
 7834SOL    HW225335  13.021   8.436   3.828
 7835SOL     OW25336   4.656  11.519  10.506
 7835SOL    HW125337   4.653  11.613  10.521
 7835SOL    HW225338   4.749  11.500  10.495
 7836SOL     OW25339   8.072   5.317   5.687
 7836SOL    HW125340   8.049   5.404   5.653
 7836SOL    HW225341   7.993   5.288   5.732
 7837SOL     OW25342   0.326   5.783   9.409
 7837SOL    HW125343   0.399   5.843   9.396
 7837SOL    HW225344   0.296   5.800   9.498
 7838SOL     OW25345   1.656   6.102   9.433
 7838SOL    HW125346   1.578   6.065   9.390
 7838SOL    HW225347   1.718   6.116   9.361
 7839SOL     OW25348   6.724   5.885   1.989
 7839SOL    HW125349   6.710   5.805   2.039
 7839SOL    HW225350   6.714   5.956   2.052
 7840SOL     OW25351   3.753   6.708   3.494
 7840SOL    HW125352   3.833   6.687   3.445
 7840SOL    HW225353   3.710   6.623   3.505
 7841SOL     OW25354   7.381   4.700   9.493
 7841SOL    HW125355   7.475   4.712   9.479
 7841SOL    HW225356   7.343   4.709   9.406
 7842SOL     OW25357   9.866  11.211   6.341
 7842SOL    HW125358   9.905  11.158   6.271
 7842SOL    HW225359   9.845  11.294   6.298
 7843SOL     OW25360   0.587   3.876  12.567
 7843SOL    HW125361   0.535   3.922  12.501
 7843SOL    HW225362   0.623   3.946  12.621
 7844SOL     OW25363  13.196  10.848   2.615
 7844SOL    HW125364  13.216  10.818   2.526
 7844SOL    HW225365  13.246  10.929   2.624
 7845SOL     OW25366  10.361   8.140  12.614
 7845SOL    HW125367  10.388   8.184  12.533
 7845SOL    HW225368  10.435   8.086  12.638
 7846SOL     OW25369   9.131   4.018   5.120
 7846SOL    HW125370   9.202   4.011   5.183
 7846SOL    HW225371   9.054   3.988   5.168
 7847SOL     OW25372   4.180   1.192  13.010
 7847SOL    HW125373   4.227   1.118  12.972
 7847SOL    HW225374   4.146   1.160  13.094
 7848SOL     OW25375  14.745   7.423   7.423
 7848SOL    HW125376  14.740   7.335   7.386
 7848SOL    HW225377  14.654   7.450   7.433
 7849SOL     OW25378   9.680   1.285   8.802
 7849SOL    HW125379   9.600   1.295   8.749
 7849SOL    HW225380   9.673   1.197   8.839
 7850SOL     OW25381  12.336   1.623  10.942
 7850SOL    HW125382  12.261   1.652  10.891
 7850SOL    HW225383  12.381   1.560  10.886
 7851SOL     OW25384   9.210  13.026   9.322
 7851SOL    HW125385   9.241  13.070   9.402
 7851SOL    HW225386   9.137  12.971   9.352
 7852SOL     OW25387   2.826  14.096  12.677
 7852SOL    HW125388   2.816  14.035  12.603
 7852SOL    HW225389   2.800  14.181  12.641
 7853SOL     OW25390   6.053  12.869   2.703
 7853SOL    HW125391   6.026  12.850   2.613
 7853SOL    HW225392   5.981  12.835   2.757
 7854SOL     OW25393  14.127   2.734   6.823
 7854SOL    HW125394  14.187   2.659   6.823
 7854SOL    HW225395  14.052   2.705   6.874
 7855SOL     OW25396  10.003   0.011   9.355
 7855SOL    HW125397  10.005   0.102   9.384
 7855SOL    HW225398   9.911  14.867   9.333
 7856SOL     OW25399  11.320   6.826  13.529
 7856SOL    HW125400  11.256   6.757  13.548
 7856SOL    HW225401  11.271   6.908  13.540
 7857SOL     OW25402   6.672   4.794  12.230
 7857SOL    HW125403   6.747   4.853  12.235
 7857SOL    HW225404   6.626   4.807  12.313
 7858SOL     OW25405   5.040   1.222   0.913
 7858SOL    HW125406   4.961   1.257   0.955
 7858SOL    HW225407   5.111   1.242   0.974
 7859SOL     OW25408  14.539  14.638  10.908
 7859SOL    HW125409  14.466  14.670  10.962
 7859SOL    HW225410  14.617  14.679  10.947
 7860SOL     OW25411   4.656   0.888   7.356
 7860SOL    HW125412   4.730   0.920   7.304
 7860SOL    HW225413   4.667   0.930   7.442
 7861SOL     OW25414   5.510   2.348   7.363
 7861SOL    HW125415   5.453   2.424   7.374
 7861SOL    HW225416   5.592   2.384   7.329
 7862SOL     OW25417   9.517  10.096   5.087
 7862SOL    HW125418   9.538  10.100   5.180
 7862SOL    HW225419   9.440  10.039   5.083
 7863SOL     OW25420  10.772   5.968   3.474
 7863SOL    HW125421  10.706   5.959   3.543
 7863SOL    HW225422  10.854   5.944   3.517
 7864SOL     OW25423  14.301   2.958  14.309
 7864SOL    HW125424  14.333   2.947  14.220
 7864SOL    HW225425  14.292   2.870  14.344
 7865SOL     OW25426  13.513   6.108  14.789
 7865SOL    HW125427  13.605   6.084  14.789
 7865SOL    HW225428  13.483   6.094   0.006
 7866SOL     OW25429   1.578   1.625   5.517
 7866SOL    HW125430   1.540   1.688   5.578
 7866SOL    HW225431   1.625   1.679   5.454
 7867SOL     OW25432   1.466  11.739  11.129
 7867SOL    HW125433   1.428  11.697  11.052
 7867SOL    HW225434   1.398  11.732  11.196
 7868SOL     OW25435   9.779   3.385   9.401
 7868SOL    HW125436   9.694   3.411   9.364
 7868SOL    HW225437   9.834   3.368   9.324
 7869SOL     OW25438  14.525  14.528   1.725
 7869SOL    HW125439  14.523  14.527   1.821
 7869SOL    HW225440  14.541  14.619   1.702
 7870SOL     OW25441  14.785  11.126  11.183
 7870SOL    HW125442  14.836  11.077  11.248
 7870SOL    HW225443  14.724  11.061  11.147
 7871SOL     OW25444   3.524   9.175   7.224
 7871SOL    HW125445   3.533   9.172   7.320
 7871SOL    HW225446   3.510   9.268   7.205
 7872SOL     OW25447   7.650   6.750   0.595
 7872SOL    HW125448   7.615   6.665   0.568
 7872SOL    HW225449   7.602   6.813   0.542
 7873SOL     OW25450   9.989   6.662  12.883
 7873SOL    HW125451   9.908   6.692  12.841
 7873SOL    HW225452  10.028   6.603  12.819
 7874SOL     OW25453   9.241   6.842  12.091
 7874SOL    HW125454   9.303   6.884  12.150
 7874SOL    HW225455   9.293   6.820  12.013
 7875SOL     OW25456   9.370   9.928   1.922
 7875SOL    HW125457   9.397   9.967   2.004
 7875SOL    HW225458   9.353   9.836   1.943
 7876SOL     OW25459   8.734   9.770   8.813
 7876SOL    HW125460   8.782   9.689   8.823
 7876SOL    HW225461   8.772   9.829   8.878
 7877SOL     OW25462   3.486   1.690  14.089
 7877SOL    HW125463   3.429   1.616  14.068
 7877SOL    HW225464   3.436   1.742  14.151
 7878SOL     OW25465  10.607   0.878   1.934
 7878SOL    HW125466  10.641   0.963   1.960
 7878SOL    HW225467  10.590   0.887   1.840
 7879SOL     OW25468   0.482   5.920   0.120
 7879SOL    HW125469   0.515   5.986   0.060
 7879SOL    HW225470   0.556   5.862   0.137
 7880SOL     OW25471  11.273  11.673  14.104
 7880SOL    HW125472  11.255  11.766  14.098
 7880SOL    HW225473  11.285  11.657  14.198
 7881SOL     OW25474   1.017  10.150   7.056
 7881SOL    HW125475   1.025  10.073   7.113
 7881SOL    HW225476   0.947  10.202   7.096
 7882SOL     OW25477  10.511  14.093  12.749
 7882SOL    HW125478  10.430  14.144  12.752
 7882SOL    HW225479  10.536  14.082  12.841
 7883SOL     OW25480   4.622   9.147  10.612
 7883SOL    HW125481   4.529   9.169  10.610
 7883SOL    HW225482   4.624   9.052  10.609
 7884SOL     OW25483   6.293  11.273  14.197
 7884SOL    HW125484   6.291  11.275  14.101
 7884SOL    HW225485   6.329  11.357  14.222
 7885SOL     OW25486  14.180   6.193   3.501
 7885SOL    HW125487  14.093   6.198   3.540
 7885SOL    HW225488  14.219   6.278   3.518
 7886SOL     OW25489  11.525   8.147   1.533
 7886SOL    HW125490  11.483   8.136   1.618
 7886SOL    HW225491  11.618   8.153   1.553
 7887SOL     OW25492  14.421   2.739   4.034
 7887SOL    HW125493  14.480   2.673   4.072
 7887SOL    HW225494  14.362   2.689   3.978
 7888SOL     OW25495   6.973   7.473   5.799
 7888SOL    HW125496   7.011   7.506   5.881
 7888SOL    HW225497   6.940   7.387   5.822
 7889SOL     OW25498   5.296   8.819   9.673
 7889SOL    HW125499   5.376   8.800   9.721
 7889SOL    HW225500   5.298   8.914   9.658
 7890SOL     OW25501   2.563  13.160   9.122
 7890SOL    HW125502   2.489  13.205   9.162
 7890SOL    HW225503   2.577  13.205   9.039
 7891SOL     OW25504   9.781   4.169   8.930
 7891SOL    HW125505   9.853   4.214   8.973
 7891SOL    HW225506   9.793   4.186   8.837
 7892SOL     OW25507   9.749   2.502   3.580
 7892SOL    HW125508   9.833   2.459   3.562
 7892SOL    HW225509   9.718   2.462   3.661
 7893SOL     OW25510   6.411   9.856   6.926
 7893SOL    HW125511   6.357   9.863   7.005
 7893SOL    HW225512   6.419   9.947   6.895
 7894SOL     OW25513  14.300   8.282   2.512
 7894SOL    HW125514  14.336   8.293   2.601
 7894SOL    HW225515  14.375   8.252   2.460
 7895SOL     OW25516   5.526   5.493   0.834
 7895SOL    HW125517   5.550   5.429   0.902
 7895SOL    HW225518   5.596   5.487   0.770
 7896SOL     OW25519  10.587   1.123  12.760
 7896SOL    HW125520  10.557   1.118  12.670
 7896SOL    HW225521  10.559   1.210  12.790
 7897SOL     OW25522  11.097  12.830   5.521
 7897SOL    HW125523  11.015  12.781   5.525
 7897SOL    HW225524  11.164  12.763   5.514
 7898SOL     OW25525   4.886   7.788   8.982
 7898SOL    HW125526   4.957   7.762   9.040
 7898SOL    HW225527   4.917   7.767   8.894
 7899SOL     OW25528  13.666   7.734  11.231
 7899SOL    HW125529  13.751   7.711  11.194
 7899SOL    HW225530  13.608   7.747  11.156
 7900SOL     OW25531   4.406  11.955  12.978
 7900SOL    HW125532   4.389  11.985  13.068
 7900SOL    HW225533   4.492  11.915  12.981
 7901SOL     OW25534   9.205   5.932   0.518
 7901SOL    HW125535   9.146   5.996   0.557
 7901SOL    HW225536   9.146   5.865   0.482
 7902SOL     OW25537   7.251   2.534   2.379
 7902SOL    HW125538   7.224   2.500   2.293
 7902SOL    HW225539   7.228   2.627   2.376
 7903SOL     OW25540   1.316   8.553  14.065
 7903SOL    HW125541   1.340   8.478  14.011
 7903SOL    HW225542   1.291   8.621  14.002
 7904SOL     OW25543   1.022   6.909  12.772
 7904SOL    HW125544   1.022   6.840  12.838
 7904SOL    HW225545   0.960   6.974  12.805
 7905SOL     OW25546   8.649   2.878   0.876
 7905SOL    HW125547   8.637   2.912   0.965
 7905SOL    HW225548   8.687   2.951   0.827
 7906SOL     OW25549  12.160   6.752   3.720
 7906SOL    HW125550  12.245   6.769   3.680
 7906SOL    HW225551  12.172   6.668   3.765
 7907SOL     OW25552   6.152   2.610  10.918
 7907SOL    HW125553   6.164   2.659  10.999
 7907SOL    HW225554   6.126   2.522  10.946
 7908SOL     OW25555   3.956   1.006  11.081
 7908SOL    HW125556   3.877   0.961  11.051
 7908SOL    HW225557   3.934   1.099  11.075
 7909SOL     OW25558   5.214   0.859   2.518
 7909SOL    HW125559   5.201   0.906   2.436
 7909SOL    HW225560   5.152   0.898   2.579
 7910SOL     OW25561   3.811  11.387   8.904
 7910SOL    HW125562   3.751  11.459   8.885
 7910SOL    HW225563   3.870  11.422   8.971
 7911SOL     OW25564   0.627   3.641  11.994
 7911SOL    HW125565   0.624   3.642  11.898
 7911SOL    HW225566   0.635   3.734  12.018
 7912SOL     OW25567   2.846   6.091   2.995
 7912SOL    HW125568   2.833   6.043   2.913
 7912SOL    HW225569   2.863   6.181   2.967
 7913SOL     OW25570   6.007   5.508   1.722
 7913SOL    HW125571   6.036   5.493   1.812
 7913SOL    HW225572   6.043   5.435   1.672
 7914SOL     OW25573   8.833   2.299   5.698
 7914SOL    HW125574   8.828   2.384   5.655
 7914SOL    HW225575   8.864   2.240   5.630
 7915SOL     OW25576   2.570   1.680   3.191
 7915SOL    HW125577   2.529   1.755   3.147
 7915SOL    HW225578   2.503   1.612   3.189
 7916SOL     OW25579  12.075   1.228   7.187
 7916SOL    HW125580  12.110   1.184   7.109
 7916SOL    HW225581  12.153   1.257   7.235
 7917SOL     OW25582   3.482   7.485   4.870
 7917SOL    HW125583   3.530   7.480   4.952
 7917SOL    HW225584   3.416   7.554   4.885
 7918SOL     OW25585   8.617   4.791   1.870
 7918SOL    HW125586   8.617   4.751   1.957
 7918SOL    HW225587   8.595   4.719   1.811
 7919SOL     OW25588   8.504   8.355   7.972
 7919SOL    HW125589   8.482   8.312   8.054
 7919SOL    HW225590   8.429   8.338   7.915
 7920SOL     OW25591   5.248   5.620  12.046
 7920SOL    HW125592   5.326   5.621  11.990
 7920SOL    HW225593   5.210   5.533  12.032
 7921SOL     OW25594  11.067  11.973   4.235
 7921SOL    HW125595  11.118  12.054   4.242
 7921SOL    HW225596  11.019  11.967   4.318
 7922SOL     OW25597   9.058   2.642  13.726
 7922SOL    HW125598   8.977   2.691  13.734
 7922SOL    HW225599   9.051   2.573  13.792
 7923SOL     OW25600   6.691  12.348  12.333
 7923SOL    HW125601   6.599  12.324  12.322
 7923SOL    HW225602   6.733  12.270  12.369
 7924SOL     OW25603   1.407   0.529   5.501
 7924SOL    HW125604   1.361   0.599   5.455
 7924SOL    HW225605   1.425   0.463   5.434
 7925SOL     OW25606   8.603   8.400   4.001
 7925SOL    HW125607   8.545   8.345   3.948
 7925SOL    HW225608   8.624   8.474   3.945
 7926SOL     OW25609   5.702   1.192   1.322
 7926SOL    HW125610   5.681   1.240   1.402
 7926SOL    HW225611   5.794   1.166   1.334
 7927SOL     OW25612  12.514  13.365  13.060
 7927SOL    HW125613  12.540  13.452  13.089
 7927SOL    HW225614  12.586  13.335  13.005
 7928SOL     OW25615   8.134   0.892  13.272
 7928SOL    HW125616   8.196   0.819  13.271
 7928SOL    HW225617   8.052   0.853  13.301
 7929SOL     OW25618   2.701   5.180  14.860
 7929SOL    HW125619   2.641   5.191  14.786
 7929SOL    HW225620   2.710   5.085  14.870
 7930SOL     OW25621   1.202   5.522   5.669
 7930SOL    HW125622   1.151   5.601   5.654
 7930SOL    HW225623   1.159   5.479   5.742
 7931SOL     OW25624  11.662   7.554   5.284
 7931SOL    HW125625  11.623   7.595   5.206
 7931SOL    HW225626  11.602   7.576   5.355
 7932SOL     OW25627  12.812   0.849   8.058
 7932SOL    HW125628  12.827   0.789   7.985
 7932SOL    HW225629  12.737   0.903   8.030
 7933SOL     OW25630   2.002  14.764   3.653
 7933SOL    HW125631   1.989  14.826   3.581
 7933SOL    HW225632   1.962  14.806   3.729
 7934SOL     OW25633   2.149  14.612  12.367
 7934SOL    HW125634   2.162  14.523  12.398
 7934SOL    HW225635   2.089  14.652  12.431
 7935SOL     OW25636  12.243   2.356   9.599
 7935SOL    HW125637  12.328   2.346   9.558
 7935SOL    HW225638  12.181   2.353   9.527
 7936SOL     OW25639   0.075   6.807  12.732
 7936SOL    HW125640   0.090   6.896  12.703
 7936SOL    HW225641   0.105   6.806  12.823
 7937SOL     OW25642  12.265   9.625  12.663
 7937SOL    HW125643  12.269   9.562  12.592
 7937SOL    HW225644  12.295   9.576  12.740
 7938SOL     OW25645  10.614  10.226   9.011
 7938SOL    HW125646  10.555  10.168   9.060
 7938SOL    HW225647  10.701  10.206   9.045
 7939SOL     OW25648   6.026  10.368   9.954
 7939SOL    HW125649   6.028  10.456   9.992
 7939SOL    HW225650   5.940  10.362   9.912
 7940SOL     OW25651   6.571  13.814  14.295
 7940SOL    HW125652   6.575  13.902  14.258
 7940SOL    HW225653   6.511  13.822  14.369
 7941SOL     OW25654   0.433   1.167  10.910
 7941SOL    HW125655   0.490   1.125  10.845
 7941SOL    HW225656   0.494   1.207  10.973
 7942SOL     OW25657   4.543   9.140   3.861
 7942SOL    HW125658   4.566   9.077   3.929
 7942SOL    HW225659   4.627   9.175   3.832
 7943SOL     OW25660   1.623   8.328   4.582
 7943SOL    HW125661   1.604   8.364   4.669
 7943SOL    HW225662   1.543   8.343   4.532
 7944SOL     OW25663   0.925  11.918   6.344
 7944SOL    HW125664   0.884  11.957   6.267
 7944SOL    HW225665   0.926  11.824   6.324
 7945SOL     OW25666  12.383  10.358   7.710
 7945SOL    HW125667  12.434  10.411   7.771
 7945SOL    HW225668  12.309  10.414   7.685
 7946SOL     OW25669   9.289  13.428   1.341
 7946SOL    HW125670   9.274  13.374   1.263
 7946SOL    HW225671   9.212  13.485   1.347
 7947SOL     OW25672   9.633   3.283  14.332
 7947SOL    HW125673   9.728   3.271  14.334
 7947SOL    HW225674   9.598   3.200  14.365
 7948SOL     OW25675   5.360  12.349   8.162
 7948SOL    HW125676   5.432  12.323   8.219
 7948SOL    HW225677   5.303  12.272   8.159
 7949SOL     OW25678   6.495  13.984   2.589
 7949SOL    HW125679   6.565  14.035   2.630
 7949SOL    HW225680   6.440  13.955   2.662
 7950SOL     OW25681  10.922   1.230   1.632
 7950SOL    HW125682  11.006   1.270   1.610
 7950SOL    HW225683  10.897   1.181   1.553
 7951SOL     OW25684   0.686   2.324  13.876
 7951SOL    HW125685   0.666   2.412  13.908
 7951SOL    HW225686   0.621   2.307  13.808
 7952SOL     OW25687   2.913  12.681  11.401
 7952SOL    HW125688   2.899  12.588  11.419
 7952SOL    HW225689   3.008  12.692  11.398
 7953SOL     OW25690  10.278   3.796   8.502
 7953SOL    HW125691  10.221   3.830   8.571
 7953SOL    HW225692  10.356   3.851   8.506
 7954SOL     OW25693   0.442   8.368  10.547
 7954SOL    HW125694   0.493   8.388  10.468
 7954SOL    HW225695   0.351   8.367  10.517
 7955SOL     OW25696  13.819  10.629  12.640
 7955SOL    HW125697  13.726  10.650  12.626
 7955SOL    HW225698  13.862  10.715  12.640
 7956SOL     OW25699  11.276   7.749   4.215
 7956SOL    HW125700  11.241   7.699   4.289
 7956SOL    HW225701  11.295   7.836   4.252
 7957SOL     OW25702  11.997   9.857   4.192
 7957SOL    HW125703  12.064   9.910   4.236
 7957SOL    HW225704  12.043   9.775   4.170
 7958SOL     OW25705   0.355   6.609  13.223
 7958SOL    HW125706   0.443   6.635  13.195
 7958SOL    HW225707   0.340   6.525  13.180
 7959SOL     OW25708  11.968  12.465  13.107
 7959SOL    HW125709  12.010  12.420  13.033
 7959SOL    HW225710  11.973  12.403  13.179
 7960SOL     OW25711   1.507   3.859   6.394
 7960SOL    HW125712   1.532   3.790   6.456
 7960SOL    HW225713   1.541   3.829   6.310
 7961SOL     OW25714   2.898   8.084   4.336
 7961SOL    HW125715   2.843   8.008   4.360
 7961SOL    HW225716   2.985   8.047   4.322
 7962SOL     OW25717  12.682   7.315   3.174
 7962SOL    HW125718  12.622   7.382   3.142
 7962SOL    HW225719  12.767   7.360   3.179
 7963SOL     OW25720  12.899   8.908  14.181
 7963SOL    HW125721  12.968   8.899  14.116
 7963SOL    HW225722  12.911   8.995  14.218
 7964SOL     OW25723   7.500   0.360   9.420
 7964SOL    HW125724   7.534   0.272   9.438
 7964SOL    HW225725   7.526   0.378   9.329
 7965SOL     OW25726   4.465   3.414   8.500
 7965SOL    HW125727   4.449   3.378   8.588
 7965SOL    HW225728   4.479   3.337   8.445
 7966SOL     OW25729  10.341   0.910   7.597
 7966SOL    HW125730  10.409   0.977   7.605
 7966SOL    HW225731  10.264   0.959   7.568
 7967SOL     OW25732  13.605   6.665   4.874
 7967SOL    HW125733  13.668   6.594   4.885
 7967SOL    HW225734  13.539   6.631   4.813
 7968SOL     OW25735   3.066  10.628   6.647
 7968SOL    HW125736   3.031  10.711   6.680
 7968SOL    HW225737   3.160  10.644   6.637
 7969SOL     OW25738   0.948   7.498   6.907
 7969SOL    HW125739   0.856   7.473   6.894
 7969SOL    HW225740   0.996   7.452   6.838
 7970SOL     OW25741  12.331  14.367   4.897
 7970SOL    HW125742  12.288  14.364   4.811
 7970SOL    HW225743  12.393  14.294   4.895
 7971SOL     OW25744   1.469  12.778   1.037
 7971SOL    HW125745   1.477  12.692   1.078
 7971SOL    HW225746   1.408  12.826   1.094
 7972SOL     OW25747  10.825   6.755   4.473
 7972SOL    HW125748  10.847   6.684   4.533
 7972SOL    HW225749  10.798   6.827   4.530
 7973SOL     OW25750  12.803   2.423   4.740
 7973SOL    HW125751  12.757   2.348   4.778
 7973SOL    HW225752  12.773   2.498   4.792
 7974SOL     OW25753  12.554   9.641  12.235
 7974SOL    HW125754  12.568   9.586  12.312
 7974SOL    HW225755  12.592   9.592  12.163
 7975SOL     OW25756   2.553  13.369   4.039
 7975SOL    HW125757   2.647  13.374   4.050
 7975SOL    HW225758   2.520  13.342   4.125
 7976SOL     OW25759   4.659  12.763   7.031
 7976SOL    HW125760   4.668  12.846   6.986
 7976SOL    HW225761   4.735  12.759   7.089
 7977SOL     OW25762   8.605  13.752   9.016
 7977SOL    HW125763   8.554  13.828   9.044
 7977SOL    HW225764   8.587  13.685   9.081
 7978SOL     OW25765   4.436  11.938   9.315
 7978SOL    HW125766   4.431  12.027   9.350
 7978SOL    HW225767   4.404  11.883   9.386
 7979SOL     OW25768   5.269   7.588   7.528
 7979SOL    HW125769   5.338   7.622   7.470
 7979SOL    HW225770   5.315   7.531   7.589
 7980SOL     OW25771  13.030   7.154  11.824
 7980SOL    HW125772  13.121   7.136  11.797
 7980SOL    HW225773  13.038   7.223  11.889
 7981SOL     OW25774  11.880  12.252   7.548
 7981SOL    HW125775  11.855  12.330   7.597
 7981SOL    HW225776  11.958  12.279   7.499
 7982SOL     OW25777   1.211   3.021   6.871
 7982SOL    HW125778   1.135   3.048   6.820
 7982SOL    HW225779   1.202   2.926   6.880
 7983SOL     OW25780   2.156   3.970   2.751
 7983SOL    HW125781   2.088   4.037   2.741
 7983SOL    HW225782   2.116   3.891   2.717
 7984SOL     OW25783  13.961   4.601  11.651
 7984SOL    HW125784  14.006   4.519  11.628
 7984SOL    HW225785  13.898   4.575  11.718
 7985SOL     OW25786   8.554   8.699   8.096
 7985SOL    HW125787   8.507   8.762   8.151
 7985SOL    HW225788   8.646   8.709   8.121
 7986SOL     OW25789  10.601   4.200   9.756
 7986SOL    HW125790  10.657   4.277   9.760
 7986SOL    HW225791  10.518   4.233   9.720
 7987SOL     OW25792  13.709   9.811   8.812
 7987SOL    HW125793  13.762   9.814   8.732
 7987SOL    HW225794  13.741   9.883   8.865
 7988SOL     OW25795   3.716   6.881   9.883
 7988SOL    HW125796   3.703   6.908   9.792
 7988SOL    HW225797   3.781   6.943   9.917
 7989SOL     OW25798   9.507   0.392  11.219
 7989SOL    HW125799   9.523   0.298  11.223
 7989SOL    HW225800   9.514   0.421  11.310
 7990SOL     OW25801   9.741   3.374  10.020
 7990SOL    HW125802   9.767   3.375  10.112
 7990SOL    HW225803   9.754   3.464   9.990
 7991SOL     OW25804  10.557  14.524   4.694
 7991SOL    HW125805  10.557  14.538   4.600
 7991SOL    HW225806  10.645  14.550   4.722
 7992SOL     OW25807   0.444   6.866   8.341
 7992SOL    HW125808   0.385   6.870   8.417
 7992SOL    HW225809   0.430   6.949   8.295
 7993SOL     OW25810   4.036   4.138  11.370
 7993SOL    HW125811   3.967   4.104  11.314
 7993SOL    HW225812   4.095   4.184  11.310
 7994SOL     OW25813   1.877  12.998  11.290
 7994SOL    HW125814   1.821  13.022  11.215
 7994SOL    HW225815   1.848  13.055  11.361
 7995SOL     OW25816  11.532   4.904  10.447
 7995SOL    HW125817  11.444   4.940  10.440
 7995SOL    HW225818  11.554   4.913  10.540
 7996SOL     OW25819  11.068   6.429  13.278
 7996SOL    HW125820  11.048   6.520  13.302
 7996SOL    HW225821  11.161   6.430  13.255
 7997SOL     OW25822   9.650  12.596   7.316
 7997SOL    HW125823   9.714  12.532   7.287
 7997SOL    HW225824   9.565  12.559   7.290
 7998SOL     OW25825   2.297  11.754  14.242
 7998SOL    HW125826   2.335  11.698  14.174
 7998SOL    HW225827   2.320  11.843  14.216
 7999SOL     OW25828   9.304  10.850   6.621
 7999SOL    HW125829   9.333  10.843   6.530
 7999SOL    HW225830   9.219  10.806   6.623
 8000SOL     OW25831   8.445   3.886   2.485
 8000SOL    HW125832   8.363   3.911   2.444
 8000SOL    HW225833   8.512   3.903   2.419
 8001SOL     OW25834   4.913   2.743   4.252
 8001SOL    HW125835   4.989   2.731   4.309
 8001SOL    HW225836   4.927   2.683   4.179
 8002SOL     OW25837  10.785   6.364   4.581
 8002SOL    HW125838  10.707   6.317   4.551
 8002SOL    HW225839  10.857   6.302   4.570
 8003SOL     OW25840  12.358   3.712  12.562
 8003SOL    HW125841  12.266   3.740  12.564
 8003SOL    HW225842  12.355   3.623  12.527
 8004SOL     OW25843   6.760   0.525   4.564
 8004SOL    HW125844   6.736   0.526   4.471
 8004SOL    HW225845   6.759   0.433   4.588
 8005SOL     OW25846   2.765   6.971   4.450
 8005SOL    HW125847   2.835   6.907   4.446
 8005SOL    HW225848   2.723   6.956   4.535
 8006SOL     OW25849   6.736  10.743   7.858
 8006SOL    HW125850   6.685  10.802   7.914
 8006SOL    HW225851   6.673  10.677   7.829
 8007SOL     OW25852   5.676   3.708   1.971
 8007SOL    HW125853   5.761   3.696   2.011
 8007SOL    HW225854   5.621   3.746   2.040
 8008SOL     OW25855  11.305   9.570   3.051
 8008SOL    HW125856  11.278   9.493   3.000
 8008SOL    HW225857  11.225   9.620   3.063
 8009SOL     OW25858   5.042   1.519   1.447
 8009SOL    HW125859   5.107   1.557   1.388
 8009SOL    HW225860   5.088   1.448   1.491
 8010SOL     OW25861   0.213  11.986   6.902
 8010SOL    HW125862   0.212  12.080   6.920
 8010SOL    HW225863   0.250  11.979   6.813
 8011SOL     OW25864   7.519   2.532   4.994
 8011SOL    HW125865   7.458   2.507   4.925
 8011SOL    HW225866   7.465   2.547   5.071
 8012SOL     OW25867   0.331   5.854   2.698
 8012SOL    HW125868   0.401   5.835   2.760
 8012SOL    HW225869   0.251   5.821   2.740
 8013SOL     OW25870  13.678  12.705   7.154
 8013SOL    HW125871  13.747  12.746   7.103
 8013SOL    HW225872  13.724  12.655   7.221
 8014SOL     OW25873   0.015   1.371   6.048
 8014SOL    HW125874   0.011   1.327   6.133
 8014SOL    HW225875   0.034   1.301   5.985
 8015SOL     OW25876  13.050   0.105   0.087
 8015SOL    HW125877  12.997   0.164   0.140
 8015SOL    HW225878  13.123   0.081   0.144
 8016SOL     OW25879   8.324  13.039   0.097
 8016SOL    HW125880   8.266  12.996   0.160
 8016SOL    HW225881   8.372  13.103   0.149
 8017SOL     OW25882   4.045   6.194   3.884
 8017SOL    HW125883   4.022   6.248   3.808
 8017SOL    HW225884   4.115   6.242   3.928
 8018SOL     OW25885   0.389   7.593   7.451
 8018SOL    HW125886   0.384   7.649   7.373
 8018SOL    HW225887   0.299   7.561   7.463
 8019SOL     OW25888  10.822  13.268   5.725
 8019SOL    HW125889  10.766  13.254   5.649
 8019SOL    HW225890  10.764  13.301   5.793
 8020SOL     OW25891   8.081  11.775  14.837
 8020SOL    HW125892   8.000  11.729  14.861
 8020SOL    HW225893   8.085  11.769  14.742
 8021SOL     OW25894   3.667  11.602   6.080
 8021SOL    HW125895   3.661  11.508   6.096
 8021SOL    HW225896   3.731  11.611   6.009
 8022SOL     OW25897  11.533   0.148   4.731
 8022SOL    HW125898  11.585   0.075   4.697
 8022SOL    HW225899  11.472   0.169   4.659
 8023SOL     OW25900  11.618  12.436   1.332
 8023SOL    HW125901  11.555  12.400   1.270
 8023SOL    HW225902  11.565  12.462   1.408
 8024SOL     OW25903   5.573  10.204   5.464
 8024SOL    HW125904   5.511  10.230   5.396
 8024SOL    HW225905   5.530  10.231   5.546
 8025SOL     OW25906   5.506  11.486   9.320
 8025SOL    HW125907   5.444  11.413   9.323
 8025SOL    HW225908   5.583  11.450   9.276
 8026SOL     OW25909   0.683   5.437   8.024
 8026SOL    HW125910   0.590   5.430   8.049
 8026SOL    HW225911   0.682   5.459   7.931
 8027SOL     OW25912   7.641   2.563   7.458
 8027SOL    HW125913   7.662   2.656   7.460
 8027SOL    HW225914   7.561   2.556   7.511
 8028SOL     OW25915   8.502   6.619   7.989
 8028SOL    HW125916   8.492   6.704   8.033
 8028SOL    HW225917   8.416   6.601   7.952
 8029SOL     OW25918   2.820   5.748   9.852
 8029SOL    HW125919   2.790   5.822   9.799
 8029SOL    HW225920   2.804   5.672   9.796
 8030SOL     OW25921  12.338   4.444   7.788
 8030SOL    HW125922  12.409   4.469   7.729
 8030SOL    HW225923  12.329   4.349   7.776
 8031SOL     OW25924   2.502   8.048   0.952
 8031SOL    HW125925   2.471   8.136   0.929
 8031SOL    HW225926   2.487   8.043   1.047
 8032SOL     OW25927  12.342   2.652  10.692
 8032SOL    HW125928  12.248   2.631  10.693
 8032SOL    HW225929  12.346   2.746  10.709
 8033SOL     OW25930   8.061   4.483   2.643
 8033SOL    HW125931   7.978   4.521   2.672
 8033SOL    HW225932   8.060   4.493   2.548
 8034SOL     OW25933   4.905   8.826   6.838
 8034SOL    HW125934   4.942   8.745   6.873
 8034SOL    HW225935   4.890   8.807   6.746
 8035SOL     OW25936   9.099   5.362   2.417
 8035SOL    HW125937   9.052   5.445   2.428
 8035SOL    HW225938   9.120   5.334   2.505
 8036SOL     OW25939  11.726   5.120   5.946
 8036SOL    HW125940  11.815   5.147   5.924
 8036SOL    HW225941  11.673   5.154   5.874
 8037SOL     OW25942  12.040  11.821  14.744
 8037SOL    HW125943  11.950  11.790  14.735
 8037SOL    HW225944  12.050  11.838  14.838
 8038SOL     OW25945   3.632   2.584  12.668
 8038SOL    HW125946   3.543   2.592  12.636
 8038SOL    HW225947   3.634   2.500  12.714
 8039SOL     OW25948   0.359   4.685   3.870
 8039SOL    HW125949   0.404   4.744   3.931
 8039SOL    HW225950   0.303   4.631   3.927
 8040SOL     OW25951   6.072   2.456  10.598
 8040SOL    HW125952   6.066   2.550  10.582
 8040SOL    HW225953   6.143   2.447  10.661
 8041SOL     OW25954   0.493   8.605   6.636
 8041SOL    HW125955   0.517   8.677   6.578
 8041SOL    HW225956   0.532   8.627   6.720
 8042SOL     OW25957  13.638  12.644   6.636
 8042SOL    HW125958  13.605  12.710   6.697
 8042SOL    HW225959  13.679  12.578   6.692
 8043SOL     OW25960   2.341   6.101   9.557
 8043SOL    HW125961   2.321   6.008   9.568
 8043SOL    HW225962   2.418   6.102   9.500
 8044SOL     OW25963  13.734  12.663   7.952
 8044SOL    HW125964  13.828  12.647   7.946
 8044SOL    HW225965  13.715  12.721   7.879
 8045SOL     OW25966   8.676  11.805   2.705
 8045SOL    HW125967   8.582  11.791   2.718
 8045SOL    HW225968   8.715  11.719   2.720
 8046SOL     OW25969  10.521   9.128   6.029
 8046SOL    HW125970  10.545   9.046   6.072
 8046SOL    HW225971  10.432   9.146   6.060
 8047SOL     OW25972  11.194   1.982   9.350
 8047SOL    HW125973  11.262   1.954   9.288
 8047SOL    HW225974  11.135   1.907   9.357
 8048SOL     OW25975   3.224   4.201  10.472
 8048SOL    HW125976   3.133   4.186  10.447
 8048SOL    HW225977   3.224   4.196  10.568
 8049SOL     OW25978  13.914  14.005   1.894
 8049SOL    HW125979  13.914  14.069   1.822
 8049SOL    HW225980  13.920  14.058   1.973
 8050SOL     OW25981  13.315  10.928   6.277
 8050SOL    HW125982  13.303  10.849   6.329
 8050SOL    HW225983  13.313  10.897   6.186
 8051SOL     OW25984   9.519   8.067   1.423
 8051SOL    HW125985   9.473   7.998   1.376
 8051SOL    HW225986   9.526   8.035   1.513
 8052SOL     OW25987   3.909   1.080  11.908
 8052SOL    HW125988   3.841   1.050  11.847
 8052SOL    HW225989   3.862   1.137  11.969
 8053SOL     OW25990  10.487   4.923   9.745
 8053SOL    HW125991  10.420   4.942   9.810
 8053SOL    HW225992  10.511   5.009   9.710
 8054SOL     OW25993  12.685   7.050  10.986
 8054SOL    HW125994  12.697   6.956  11.003
 8054SOL    HW225995  12.603   7.055  10.937
 8055SOL     OW25996   0.191   2.978   5.129
 8055SOL    HW125997   0.239   3.007   5.051
 8055SOL    HW225998   0.131   3.051   5.149
 8056SOL     OW25999   6.213   6.700  11.418
 8056SOL    HW126000   6.292   6.676  11.467
 8056SOL    HW226001   6.163   6.756  11.478
 8057SOL     OW26002  13.533   3.359  13.556
 8057SOL    HW126003  13.503   3.270  13.570
 8057SOL    HW226004  13.453   3.408  13.533
 8058SOL     OW26005   5.383   0.004  13.885
 8058SOL    HW126006   5.470  14.865  13.923
 8058SOL    HW226007   5.385   0.092  13.846
 8059SOL     OW26008  11.942   8.055   5.748
 8059SOL    HW126009  11.922   8.062   5.654
 8059SOL    HW226010  11.948   8.146   5.777
 8060SOL     OW26011  11.573  11.029  13.132
 8060SOL    HW126012  11.558  10.997  13.043
 8060SOL    HW226013  11.564  10.951  13.187
 8061SOL     OW26014   4.930   9.973   7.017
 8061SOL    HW126015   4.931   9.966   6.921
 8061SOL    HW226016   4.990   9.905   7.047
 8062SOL     OW26017   5.700   2.067   0.638
 8062SOL    HW126018   5.645   1.989   0.632
 8062SOL    HW226019   5.789   2.034   0.625
 8063SOL     OW26020   9.075  11.346   1.114
 8063SOL    HW126021   9.077  11.438   1.142
 8063SOL    HW226022   9.166  11.326   1.094
 8064SOL     OW26023   6.702   2.728   4.447
 8064SOL    HW126024   6.667   2.802   4.495
 8064SOL    HW226025   6.795   2.726   4.469
 8065SOL     OW26026  12.055   6.633   1.853
 8065SOL    HW126027  11.991   6.696   1.885
 8065SOL    HW226028  12.119   6.686   1.805
 8066SOL     OW26029   2.823   2.969   8.730
 8066SOL    HW126030   2.842   2.934   8.817
 8066SOL    HW226031   2.849   2.899   8.669
 8067SOL     OW26032   0.313   2.531  13.758
 8067SOL    HW126033   0.306   2.613  13.710
 8067SOL    HW226034   0.385   2.545  13.819
 8068SOL     OW26035  11.147   9.688   0.473
 8068SOL    HW126036  11.110   9.760   0.525
 8068SOL    HW226037  11.082   9.618   0.478
 8069SOL     OW26038   8.818   5.514   7.381
 8069SOL    HW126039   8.897   5.502   7.433
 8069SOL    HW226040   8.768   5.433   7.394
 8070SOL     OW26041  12.721   1.554   6.043
 8070SOL    HW126042  12.705   1.600   6.126
 8070SOL    HW226043  12.811   1.577   6.021
 8071SOL     OW26044  14.618  11.122   2.118
 8071SOL    HW126045  14.534  11.085   2.146
 8071SOL    HW226046  14.620  11.108   2.023
 8072SOL     OW26047   1.986  11.687   5.320
 8072SOL    HW126048   2.004  11.770   5.277
 8072SOL    HW226049   2.060  11.673   5.379
 8073SOL     OW26050   2.103  13.545   4.347
 8073SOL    HW126051   2.093  13.570   4.255
 8073SOL    HW226052   2.192  13.574   4.370
 8074SOL     OW26053   2.386  10.328   5.213
 8074SOL    HW126054   2.452  10.272   5.253
 8074SOL    HW226055   2.315  10.332   5.276
 8075SOL     OW26056   7.047   4.304  12.088
 8075SOL    HW126057   7.030   4.398  12.098
 8075SOL    HW226058   6.994   4.263  12.156
 8076SOL     OW26059   4.820  12.508   8.166
 8076SOL    HW126060   4.763  12.585   8.164
 8076SOL    HW226061   4.776  12.444   8.110
 8077SOL     OW26062   8.073  11.435   2.710
 8077SOL    HW126063   7.986  11.472   2.726
 8077SOL    HW226064   8.103  11.478   2.629
 8078SOL     OW26065   0.808   4.046   5.092
 8078SOL    HW126066   0.823   4.012   5.180
 8078SOL    HW226067   0.751   4.122   5.105
 8079SOL     OW26068   8.036  10.091   9.292
 8079SOL    HW126069   8.062  10.020   9.351
 8079SOL    HW226070   7.949  10.117   9.323
 8080SOL     OW26071   7.446   2.233   7.283
 8080SOL    HW126072   7.520   2.185   7.321
 8080SOL    HW226073   7.462   2.324   7.308
 8081SOL     OW26074  12.405  14.333   7.835
 8081SOL    HW126075  12.463  14.359   7.907
 8081SOL    HW226076  12.356  14.258   7.869
 8082SOL     OW26077   2.156  11.539   0.573
 8082SOL    HW126078   2.214  11.589   0.516
 8082SOL    HW226079   2.167  11.448   0.545
 8083SOL     OW26080  11.112   9.154  10.148
 8083SOL    HW126081  11.047   9.109  10.201
 8083SOL    HW226082  11.147   9.222  10.205
 8084SOL     OW26083  11.178   8.678   3.827
 8084SOL    HW126084  11.143   8.638   3.747
 8084SOL    HW226085  11.229   8.752   3.796
 8085SOL     OW26086   5.311   7.792  11.091
 8085SOL    HW126087   5.297   7.774  11.184
 8085SOL    HW226088   5.379   7.729  11.065
 8086SOL     OW26089  12.787  11.458  10.179
 8086SOL    HW126090  12.719  11.519  10.151
 8086SOL    HW226091  12.739  11.380  10.208
 8087SOL     OW26092   7.823  11.460  12.965
 8087SOL    HW126093   7.846  11.389  13.025
 8087SOL    HW226094   7.789  11.529  13.022
 8088SOL     OW26095  13.421  14.178   7.606
 8088SOL    HW126096  13.359  14.126   7.657
 8088SOL    HW226097  13.393  14.166   7.515
 8089SOL     OW26098  11.785   1.834  13.546
 8089SOL    HW126099  11.868   1.875  13.520
 8089SOL    HW226100  11.723   1.907  13.552
 8090SOL     OW26101   0.046   3.686   8.100
 8090SOL    HW126102   0.070   3.628   8.172
 8090SOL    HW226103   0.056   3.632   8.021
 8091SOL     OW26104   5.101   6.127   0.574
 8091SOL    HW126105   5.184   6.079   0.564
 8091SOL    HW226106   5.096   6.183   0.497
 8092SOL     OW26107   7.703  12.633  12.920
 8092SOL    HW126108   7.752  12.613  12.841
 8092SOL    HW226109   7.769  12.657  12.984
 8093SOL     OW26110  10.312   2.849  12.821
 8093SOL    HW126111  10.386   2.886  12.772
 8093SOL    HW226112  10.332   2.867  12.913
 8094SOL     OW26113  14.611   7.015   4.649
 8094SOL    HW126114  14.614   6.920   4.660
 8094SOL    HW226115  14.580   7.048   4.733
 8095SOL     OW26116   2.966   4.269   8.756
 8095SOL    HW126117   2.895   4.222   8.799
 8095SOL    HW226118   3.045   4.243   8.802
 8096SOL     OW26119  11.910   9.843  10.935
 8096SOL    HW126120  11.839   9.781  10.951
 8096SOL    HW226121  11.989   9.790  10.937
 8097SOL     OW26122   6.452   6.396  14.540
 8097SOL    HW126123   6.491   6.427  14.458
 8097SOL    HW226124   6.473   6.303  14.543
 8098SOL     OW26125  12.982   1.663   5.008
 8098SOL    HW126126  13.043   1.637   4.939
 8098SOL    HW226127  12.976   1.587   5.065
 8099SOL     OW26128  13.814   7.088   2.837
 8099SOL    HW126129  13.812   7.057   2.927
 8099SOL    HW226130  13.858   7.019   2.788
 8100SOL     OW26131  11.720   3.323   7.042
 8100SOL    HW126132  11.758   3.345   7.127
 8100SOL    HW226133  11.625   3.321   7.058
 8101SOL     OW26134  14.658   0.229  11.403
 8101SOL    HW126135  14.615   0.165  11.461
 8101SOL    HW226136  14.738   0.253  11.449
 8102SOL     OW26137   7.006   6.354   9.794
 8102SOL    HW126138   7.039   6.437   9.760
 8102SOL    HW226139   6.911   6.361   9.789
 8103SOL     OW26140  12.949   5.252  14.450
 8103SOL    HW126141  12.960   5.167  14.493
 8103SOL    HW226142  12.936   5.231  14.358
 8104SOL     OW26143   7.732   8.959   3.650
 8104SOL    HW126144   7.740   8.878   3.599
 8104SOL    HW226145   7.638   8.971   3.660
 8105SOL     OW26146  12.426   6.020  10.154
 8105SOL    HW126147  12.424   6.077  10.077
 8105SOL    HW226148  12.387   6.073  10.224
 8106SOL     OW26149   7.074   4.080  12.821
 8106SOL    HW126150   7.163   4.071  12.855
 8106SOL    HW226151   7.022   4.018  12.872
 8107SOL     OW26152   4.465   7.548   5.415
 8107SOL    HW126153   4.453   7.463   5.371
 8107SOL    HW226154   4.475   7.525   5.508
 8108SOL     OW26155   6.586  12.479   2.509
 8108SOL    HW126156   6.591  12.573   2.525
 8108SOL    HW226157   6.620  12.468   2.420
 8109SOL     OW26158  12.524   3.311  12.140
 8109SOL    HW126159  12.437   3.337  12.171
 8109SOL    HW226160  12.513   3.303  12.045
 8110SOL     OW26161   7.938   6.754   5.582
 8110SOL    HW126162   7.992   6.828   5.556
 8110SOL    HW226163   7.861   6.794   5.624
 8111SOL     OW26164   3.491   7.476  13.032
 8111SOL    HW126165   3.408   7.509  13.066
 8111SOL    HW226166   3.555   7.542  13.055
 8112SOL     OW26167   7.950   9.911   6.197
 8112SOL    HW126168   7.976   9.953   6.115
 8112SOL    HW226169   8.017   9.938   6.260
 8113SOL     OW26170   1.684  11.881  11.116
 8113SOL    HW126171   1.607  11.826  11.103
 8113SOL    HW226172   1.664  11.935  11.192
 8114SOL     OW26173   2.671   5.385   9.920
 8114SOL    HW126174   2.731   5.422   9.985
 8114SOL    HW226175   2.588   5.376   9.967
 8115SOL     OW26176  12.759   4.012  13.918
 8115SOL    HW126177  12.740   3.943  13.855
 8115SOL    HW226178  12.852   4.031  13.906
 8116SOL     OW26179   8.769   1.758   0.697
 8116SOL    HW126180   8.712   1.827   0.663
 8116SOL    HW226181   8.764   1.689   0.631
 8117SOL     OW26182  13.359   2.267  12.161
 8117SOL    HW126183  13.373   2.305  12.247
 8117SOL    HW226184  13.393   2.332  12.099
 8118SOL     OW26185   9.202   1.968   0.927
 8118SOL    HW126186   9.180   2.013   0.845
 8118SOL    HW226187   9.117   1.955   0.969
 8119SOL     OW26188  13.509   5.220   3.783
 8119SOL    HW126189  13.603   5.199   3.785
 8119SOL    HW226190  13.473   5.160   3.718
 8120SOL     OW26191  11.212   0.730   5.619
 8120SOL    HW126192  11.203   0.676   5.698
 8120SOL    HW226193  11.217   0.819   5.652
 8121SOL     OW26194   6.304   2.050   5.599
 8121SOL    HW126195   6.226   2.105   5.589
 8121SOL    HW226196   6.274   1.963   5.573
 8122SOL     OW26197   1.906   0.022  10.480
 8122SOL    HW126198   1.846   0.094  10.500
 8122SOL    HW226199   1.978   0.063  10.433
 8123SOL     OW26200   5.068   6.993   9.290
 8123SOL    HW126201   5.052   6.976   9.197
 8123SOL    HW226202   5.081   6.907   9.328
 8124SOL     OW26203   6.517   7.670  13.042
 8124SOL    HW126204   6.601   7.660  13.086
 8124SOL    HW226205   6.536   7.649  12.950
 8125SOL     OW26206   5.352   6.601   1.342
 8125SOL    HW126207   5.329   6.675   1.286
 8125SOL    HW226208   5.369   6.640   1.428
 8126SOL     OW26209   6.830   7.588  14.590
 8126SOL    HW126210   6.799   7.522  14.652
 8126SOL    HW226211   6.925   7.592  14.605
 8127SOL     OW26212   6.906  13.797   4.009
 8127SOL    HW126213   6.908  13.701   4.017
 8127SOL    HW226214   6.951  13.815   3.927
 8128SOL     OW26215   5.073   0.446   1.888
 8128SOL    HW126216   5.142   0.468   1.951
 8128SOL    HW226217   5.112   0.379   1.832
 8129SOL     OW26218   4.699   6.385  13.531
 8129SOL    HW126219   4.631   6.438  13.490
 8129SOL    HW226220   4.773   6.389  13.470
 8130SOL     OW26221   1.835   0.381   6.362
 8130SOL    HW126222   1.847   0.394   6.268
 8130SOL    HW226223   1.829   0.469   6.399
 8131SOL     OW26224   2.253  13.230   3.044
 8131SOL    HW126225   2.242  13.187   2.959
 8131SOL    HW226226   2.342  13.264   3.042
 8132SOL     OW26227  14.369  12.355   7.320
 8132SOL    HW126228  14.462  12.377   7.326
 8132SOL    HW226229  14.323  12.431   7.356
 8133SOL     OW26230  14.069   9.010   5.093
 8133SOL    HW126231  14.102   8.967   5.014
 8133SOL    HW226232  14.042   9.097   5.062
 8134SOL     OW26233   1.678   5.530   6.607
 8134SOL    HW126234   1.697   5.444   6.644
 8134SOL    HW226235   1.589   5.523   6.572
 8135SOL     OW26236   4.862  12.036   9.424
 8135SOL    HW126237   4.835  11.968   9.362
 8135SOL    HW226238   4.801  12.108   9.408
 8136SOL     OW26239   0.567   8.441   4.281
 8136SOL    HW126240   0.649   8.486   4.258
 8136SOL    HW226241   0.588   8.348   4.275
 8137SOL     OW26242  11.724   2.949   8.264
 8137SOL    HW126243  11.727   3.032   8.312
 8137SOL    HW226244  11.632   2.937   8.242
 8138SOL     OW26245  10.131   5.403  13.595
 8138SOL    HW126246  10.148   5.350  13.518
 8138SOL    HW226247  10.121   5.492  13.562
 8139SOL     OW26248  10.640   3.848   0.880
 8139SOL    HW126249  10.665   3.940   0.890
 8139SOL    HW226250  10.672   3.805   0.959
 8140SOL     OW26251  14.544  12.133   5.520
 8140SOL    HW126252  14.502  12.219   5.512
 8140SOL    HW226253  14.635  12.153   5.543
 8141SOL     OW26254   4.731  12.121  12.977
 8141SOL    HW126255   4.773  12.192  13.026
 8141SOL    HW226256   4.783  12.113  12.897
 8142SOL     OW26257  12.255  13.097  14.489
 8142SOL    HW126258  12.257  13.041  14.567
 8142SOL    HW226259  12.328  13.158  14.501
 8143SOL     OW26260   3.074   5.083  12.136
 8143SOL    HW126261   2.998   5.111  12.189
 8143SOL    HW226262   3.134   5.045  12.200
 8144SOL     OW26263   5.531   9.141   2.114
 8144SOL    HW126264   5.501   9.050   2.114
 8144SOL    HW226265   5.450   9.193   2.107
 8145SOL     OW26266  10.158   7.893   5.335
 8145SOL    HW126267  10.065   7.898   5.312
 8145SOL    HW226268  10.164   7.933   5.422
 8146SOL     OW26269   0.598   4.248  10.654
 8146SOL    HW126270   0.587   4.340  10.679
 8146SOL    HW226271   0.634   4.252  10.566
 8147SOL     OW26272   6.742   8.621   7.580
 8147SOL    HW126273   6.654   8.660   7.586
 8147SOL    HW226274   6.727   8.537   7.536
 8148SOL     OW26275   1.283   8.335  10.319
 8148SOL    HW126276   1.189   8.332  10.301
 8148SOL    HW226277   1.322   8.357  10.234
 8149SOL     OW26278   6.664   4.013   6.720
 8149SOL    HW126279   6.634   4.071   6.790
 8149SOL    HW226280   6.589   4.006   6.661
 8150SOL     OW26281   8.908   4.809   8.544
 8150SOL    HW126282   8.826   4.783   8.586
 8150SOL    HW226283   8.961   4.729   8.542
 8151SOL     OW26284   2.162   7.362  13.942
 8151SOL    HW126285   2.238   7.354  13.885
 8151SOL    HW226286   2.104   7.423  13.897
 8152SOL     OW26287   2.721  10.814   5.096
 8152SOL    HW126288   2.700  10.903   5.125
 8152SOL    HW226289   2.649  10.761   5.129
 8153SOL     OW26290   9.745  13.467  12.564
 8153SOL    HW126291   9.803  13.529  12.609
 8153SOL    HW226292   9.680  13.444  12.630
 8154SOL     OW26293   9.572   7.017   8.659
 8154SOL    HW126294   9.575   6.935   8.609
 8154SOL    HW226295   9.662   7.032   8.688
 8155SOL     OW26296   7.315  12.445  13.783
 8155SOL    HW126297   7.254  12.485  13.845
 8155SOL    HW226298   7.305  12.497  13.703
 8156SOL     OW26299   9.574   0.686   0.307
 8156SOL    HW126300   9.504   0.751   0.300
 8156SOL    HW226301   9.619   0.707   0.389
 8157SOL     OW26302  14.489   0.531   4.339
 8157SOL    HW126303  14.473   0.513   4.431
 8157SOL    HW226304  14.490   0.445   4.297
 8158SOL     OW26305   9.807   3.433  10.277
 8158SOL    HW126306   9.893   3.410  10.313
 8158SOL    HW226307   9.791   3.521  10.309
 8159SOL     OW26308   5.153   5.835   8.657
 8159SOL    HW126309   5.173   5.915   8.704
 8159SOL    HW226310   5.225   5.825   8.594
 8160SOL     OW26311   0.412   3.087   9.235
 8160SOL    HW126312   0.375   3.032   9.166
 8160SOL    HW226313   0.457   3.026   9.293
 8161SOL     OW26314   0.931   8.163   8.401
 8161SOL    HW126315   0.889   8.160   8.315
 8161SOL    HW226316   0.986   8.241   8.398
 8162SOL     OW26317  11.653   5.660   0.227
 8162SOL    HW126318  11.748   5.664   0.240
 8162SOL    HW226319  11.621   5.745   0.258
 8163SOL     OW26320  10.642  12.954   8.120
 8163SOL    HW126321  10.557  12.936   8.161
 8163SOL    HW226322  10.706  12.942   8.190
 8164SOL     OW26323   4.423   8.596   0.829
 8164SOL    HW126324   4.402   8.604   0.736
 8164SOL    HW226325   4.340   8.570   0.870
 8165SOL     OW26326  14.021  12.573  14.311
 8165SOL    HW126327  13.952  12.591  14.375
 8165SOL    HW226328  13.986  12.501  14.258
 8166SOL     OW26329   7.997   3.935   4.975
 8166SOL    HW126330   7.987   4.024   4.941
 8166SOL    HW226331   8.055   3.944   5.051
 8167SOL     OW26332  10.074  12.029   2.012
 8167SOL    HW126333  10.163  12.058   2.031
 8167SOL    HW226334  10.026  12.041   2.094
 8168SOL     OW26335   8.570  14.706   1.609
 8168SOL    HW126336   8.531  14.641   1.550
 8168SOL    HW226337   8.573  14.787   1.558
 8169SOL     OW26338  10.806   4.228   4.573
 8169SOL    HW126339  10.759   4.249   4.653
 8169SOL    HW226340  10.767   4.145   4.544
 8170SOL     OW26341   7.429  14.505  10.358
 8170SOL    HW126342   7.342  14.467  10.367
 8170SOL    HW226343   7.421  14.592  10.396
 8171SOL     OW26344   7.657   2.162  13.661
 8171SOL    HW126345   7.599   2.226  13.620
 8171SOL    HW226346   7.676   2.198  13.747
 8172SOL     OW26347  11.895   4.681   8.660
 8172SOL    HW126348  11.943   4.603   8.630
 8172SOL    HW226349  11.953   4.754   8.639
 8173SOL     OW26350   6.818   1.277  13.433
 8173SOL    HW126351   6.791   1.302  13.345
 8173SOL    HW226352   6.796   1.184  13.439
 8174SOL     OW26353   4.836   3.306   9.063
 8174SOL    HW126354   4.856   3.261   9.145
 8174SOL    HW226355   4.754   3.352   9.080
 8175SOL     OW26356   5.430  12.919  10.188
 8175SOL    HW126357   5.513  12.941  10.230
 8175SOL    HW226358   5.424  12.823  10.194
 8176SOL     OW26359  11.003   8.478   1.572
 8176SOL    HW126360  10.997   8.514   1.483
 8176SOL    HW226361  10.971   8.548   1.628
 8177SOL     OW26362  10.230   1.128   3.093
 8177SOL    HW126363  10.172   1.158   3.163
 8177SOL    HW226364  10.301   1.082   3.139
 8178SOL     OW26365   6.365  11.032   6.063
 8178SOL    HW126366   6.419  11.035   5.983
 8178SOL    HW226367   6.427  11.049   6.134
 8179SOL     OW26368  10.675  12.961  13.632
 8179SOL    HW126369  10.599  12.913  13.663
 8179SOL    HW226370  10.688  12.930  13.542
 8180SOL     OW26371   7.062  14.656   7.663
 8180SOL    HW126372   7.153  14.663   7.636
 8180SOL    HW226373   7.038  14.564   7.645
 8181SOL     OW26374   3.219  11.170  13.231
 8181SOL    HW126375   3.282  11.156  13.301
 8181SOL    HW226376   3.140  11.199  13.275
 8182SOL     OW26377   8.907   8.256   9.222
 8182SOL    HW126378   9.002   8.268   9.216
 8182SOL    HW226379   8.873   8.344   9.241
 8183SOL     OW26380   4.431   4.131  10.507
 8183SOL    HW126381   4.380   4.096  10.434
 8183SOL    HW226382   4.494   4.191  10.466
 8184SOL     OW26383   4.704   2.552  10.865
 8184SOL    HW126384   4.728   2.644  10.856
 8184SOL    HW226385   4.778   2.513  10.912
 8185SOL     OW26386   5.593  13.562  14.149
 8185SOL    HW126387   5.505  13.589  14.175
 8185SOL    HW226388   5.594  13.467  14.160
 8186SOL     OW26389  12.527  12.902   6.529
 8186SOL    HW126390  12.524  12.811   6.501
 8186SOL    HW226391  12.435  12.927   6.542
 8187SOL     OW26392   6.764  10.291   6.660
 8187SOL    HW126393   6.838  10.285   6.600
 8187SOL    HW226394   6.776  10.374   6.706
 8188SOL     OW26395  13.665   8.866   9.816
 8188SOL    HW126396  13.580   8.889   9.853
 8188SOL    HW226397  13.681   8.777   9.846
 8189SOL     OW26398  14.814   7.137  12.640
 8189SOL    HW126399  14.741   7.082  12.611
 8189SOL    HW226400  14.792   7.162  12.730
 8190SOL     OW26401   3.564  13.711  11.303
 8190SOL    HW126402   3.498  13.724  11.371
 8190SOL    HW226403   3.564  13.617  11.287
 8191SOL     OW26404   7.782   0.080   3.818
 8191SOL    HW126405   7.824   0.009   3.770
 8191SOL    HW226406   7.844   0.101   3.889
 8192SOL     OW26407   9.194   4.455   2.721
 8192SOL    HW126408   9.223   4.497   2.639
 8192SOL    HW226409   9.273   4.412   2.754
 8193SOL     OW26410  10.156   0.260   2.780
 8193SOL    HW126411  10.131   0.169   2.798
 8193SOL    HW226412  10.095   0.289   2.712
 8194SOL     OW26413  13.783  10.562   4.414
 8194SOL    HW126414  13.768  10.489   4.475
 8194SOL    HW226415  13.865  10.602   4.444
 8195SOL     OW26416   9.629   1.142   3.583
 8195SOL    HW126417   9.582   1.119   3.503
 8195SOL    HW226418   9.607   1.073   3.646
 8196SOL     OW26419  13.493   4.881   4.887
 8196SOL    HW126420  13.490   4.794   4.928
 8196SOL    HW226421  13.480   4.864   4.794
 8197SOL     OW26422   2.947  10.952  14.665
 8197SOL    HW126423   2.951  11.047  14.673
 8197SOL    HW226424   2.883  10.925  14.731
 8198SOL     OW26425   9.241   0.527   2.303
 8198SOL    HW126426   9.301   0.595   2.271
 8198SOL    HW226427   9.243   0.459   2.236
 8199SOL     OW26428   6.875  14.159   9.834
 8199SOL    HW126429   6.815  14.234   9.844
 8199SOL    HW226430   6.948  14.180   9.892
 8200SOL     OW26431   7.214   9.345   6.244
 8200SOL    HW126432   7.220   9.424   6.191
 8200SOL    HW226433   7.120   9.330   6.255
 8201SOL     OW26434   3.735  12.084  12.493
 8201SOL    HW126435   3.749  12.040  12.576
 8201SOL    HW226436   3.731  12.013  12.429
 8202SOL     OW26437   2.191   2.648  10.401
 8202SOL    HW126438   2.183   2.587  10.328
 8202SOL    HW226439   2.144   2.726  10.372
 8203SOL     OW26440   4.064  10.741  14.631
 8203SOL    HW126441   4.063  10.660  14.580
 8203SOL    HW226442   4.157  10.764  14.638
 8204SOL     OW26443   4.793   9.676   1.134
 8204SOL    HW126444   4.878   9.641   1.161
 8204SOL    HW226445   4.742   9.680   1.215
 8205SOL     OW26446  11.335   1.265  11.531
 8205SOL    HW126447  11.270   1.330  11.501
 8205SOL    HW226448  11.395   1.315  11.586
 8206SOL     OW26449   0.371  12.942   6.759
 8206SOL    HW126450   0.329  13.020   6.797
 8206SOL    HW226451   0.327  12.869   6.803
 8207SOL     OW26452   4.317  11.158   9.130
 8207SOL    HW126453   4.301  11.066   9.150
 8207SOL    HW226454   4.321  11.161   9.034
 8208SOL     OW26455   2.905  11.824  13.908
 8208SOL    HW126456   2.898  11.783  13.822
 8208SOL    HW226457   2.877  11.757  13.969
 8209SOL     OW26458   9.432  10.048  13.445
 8209SOL    HW126459   9.405   9.981  13.507
 8209SOL    HW226460   9.405  10.131  13.484
 8210SOL     OW26461   2.239   6.107   2.356
 8210SOL    HW126462   2.292   6.042   2.311
 8210SOL    HW226463   2.159   6.061   2.379
 8211SOL     OW26464   5.191   7.534  10.931
 8211SOL    HW126465   5.175   7.579  11.014
 8211SOL    HW226466   5.149   7.448  10.942
 8212SOL     OW26467  11.834  10.152   0.268
 8212SOL    HW126468  11.754  10.180   0.225
 8212SOL    HW226469  11.887  10.232   0.276
 8213SOL     OW26470   8.032  10.301  11.664
 8213SOL    HW126471   8.094  10.271  11.730
 8213SOL    HW226472   7.946  10.289  11.705
 8214SOL     OW26473   2.474   5.475  10.539
 8214SOL    HW126474   2.437   5.555  10.503
 8214SOL    HW226475   2.557   5.463  10.493
 8215SOL     OW26476   8.209   0.013   6.701
 8215SOL    HW126477   8.206   0.105   6.729
 8215SOL    HW226478   8.176   0.015   6.611
 8216SOL     OW26479   2.074   8.607   8.059
 8216SOL    HW126480   2.019   8.536   8.025
 8216SOL    HW226481   2.019   8.649   8.125
 8217SOL     OW26482   2.980   6.920   3.122
 8217SOL    HW126483   2.944   6.966   3.197
 8217SOL    HW226484   3.048   6.864   3.158
 8218SOL     OW26485   5.683  14.759   2.991
 8218SOL    HW126486   5.597  14.719   3.003
 8218SOL    HW226487   5.694  14.764   2.896
 8219SOL     OW26488  11.349   9.049   0.800
 8219SOL    HW126489  11.359   9.143   0.816
 8219SOL    HW226490  11.356   9.040   0.705
 8220SOL     OW26491   0.063   0.497   2.655
 8220SOL    HW126492  14.858   0.441   2.658
 8220SOL    HW226493   0.028   0.586   2.668
 8221SOL     OW26494   9.855   2.208  13.661
 8221SOL    HW126495   9.760   2.196  13.659
 8221SOL    HW226496   9.890   2.138  13.606
 8222SOL     OW26497   2.032  10.499   8.457
 8222SOL    HW126498   2.092  10.525   8.527
 8222SOL    HW226499   2.016  10.406   8.471
 8223SOL     OW26500   6.639   2.228   2.646
 8223SOL    HW126501   6.653   2.218   2.552
 8223SOL    HW226502   6.566   2.289   2.654
 8224SOL     OW26503  14.493   7.614  13.632
 8224SOL    HW126504  14.569   7.635  13.687
 8224SOL    HW226505  14.516   7.531  13.590
 8225SOL     OW26506   4.907  12.205  13.736
 8225SOL    HW126507   4.895  12.228  13.644
 8225SOL    HW226508   4.848  12.131  13.751
 8226SOL     OW26509   7.513   9.447   5.850
 8226SOL    HW126510   7.589   9.395   5.876
 8226SOL    HW226511   7.530   9.470   5.758
 8227SOL     OW26512  14.652   3.598   4.041
 8227SOL    HW126513  14.573   3.554   4.008
 8227SOL    HW226514  14.719   3.575   3.977
 8228SOL     OW26515  13.755  13.351   8.015
 8228SOL    HW126516  13.773  13.314   8.101
 8228SOL    HW226517  13.755  13.446   8.030
 8229SOL     OW26518   3.868   8.451   4.485
 8229SOL    HW126519   3.823   8.466   4.568
 8229SOL    HW226520   3.961   8.459   4.506
 8230SOL     OW26521  13.754   5.578   2.602
 8230SOL    HW126522  13.847   5.578   2.582
 8230SOL    HW226523  13.721   5.658   2.564
 8231SOL     OW26524   6.168   8.141   3.788
 8231SOL    HW126525   6.199   8.164   3.876
 8231SOL    HW226526   6.230   8.183   3.729
 8232SOL     OW26527   3.927  11.237  12.961
 8232SOL    HW126528   3.900  11.201  12.877
 8232SOL    HW226529   3.931  11.331  12.947
 8233SOL     OW26530  13.041   2.090   8.372
 8233SOL    HW126531  12.964   2.033   8.368
 8233SOL    HW226532  13.059   2.113   8.281
 8234SOL     OW26533   1.316  14.712   3.882
 8234SOL    HW126534   1.335  14.644   3.817
 8234SOL    HW226535   1.221  14.710   3.891
 8235SOL     OW26536   8.314   9.703   0.774
 8235SOL    HW126537   8.313   9.615   0.812
 8235SOL    HW226538   8.223   9.732   0.779
 8236SOL     OW26539   8.691   4.624  10.681
 8236SOL    HW126540   8.691   4.541  10.729
 8236SOL    HW226541   8.734   4.603  10.598
 8237SOL     OW26542   6.692  11.324   3.862
 8237SOL    HW126543   6.734  11.404   3.894
 8237SOL    HW226544   6.728  11.311   3.774
 8238SOL     OW26545  13.077   5.862   1.442
 8238SOL    HW126546  13.019   5.806   1.494
 8238SOL    HW226547  13.079   5.944   1.491
 8239SOL     OW26548   6.966  12.129   7.108
 8239SOL    HW126549   7.019  12.144   7.186
 8239SOL    HW226550   6.876  12.130   7.141
 8240SOL     OW26551  10.536   0.423   3.143
 8240SOL    HW126552  10.583   0.490   3.193
 8240SOL    HW226553  10.502   0.470   3.067
 8241SOL     OW26554   2.248   9.933  11.722
 8241SOL    HW126555   2.326   9.908  11.772
 8241SOL    HW226556   2.209  10.004  11.772
 8242SOL     OW26557  13.692   0.902   4.911
 8242SOL    HW126558  13.624   0.915   4.977
 8242SOL    HW226559  13.644   0.872   4.833
 8243SOL     OW26560   3.381  10.207  12.407
 8243SOL    HW126561   3.289  10.233  12.400
 8243SOL    HW226562   3.430  10.289  12.407
 8244SOL     OW26563  13.826   3.769   1.801
 8244SOL    HW126564  13.837   3.846   1.857
 8244SOL    HW226565  13.913   3.756   1.762
 8245SOL     OW26566  11.191   6.322   1.313
 8245SOL    HW126567  11.243   6.348   1.237
 8245SOL    HW226568  11.255   6.293   1.378
 8246SOL     OW26569  13.545  11.474   0.410
 8246SOL    HW126570  13.497  11.393   0.428
 8246SOL    HW226571  13.636  11.446   0.400
 8247SOL     OW26572   6.837   0.611  13.653
 8247SOL    HW126573   6.863   0.666  13.726
 8247SOL    HW226574   6.910   0.551  13.640
 8248SOL     OW26575   4.111   4.600   7.504
 8248SOL    HW126576   4.042   4.650   7.547
 8248SOL    HW226577   4.072   4.514   7.488
 8249SOL     OW26578  11.872  13.450  11.505
 8249SOL    HW126579  11.849  13.424  11.595
 8249SOL    HW226580  11.962  13.419  11.493
 8250SOL     OW26581   9.694   4.460   0.129
 8250SOL    HW126582   9.722   4.491   0.215
 8250SOL    HW226583   9.741   4.516   0.066
 8251SOL     OW26584   2.575   2.421   9.464
 8251SOL    HW126585   2.565   2.497   9.408
 8251SOL    HW226586   2.488   2.406   9.500
 8252SOL     OW26587   9.871   3.971  13.048
 8252SOL    HW126588   9.781   4.005  13.051
 8252SOL    HW226589   9.904   3.984  13.137
 8253SOL     OW26590   8.894  13.256   2.467
 8253SOL    HW126591   8.839  13.297   2.534
 8253SOL    HW226592   8.834  13.239   2.395
 8254SOL     OW26593  13.377   6.372   8.037
 8254SOL    HW126594  13.329   6.453   8.050
 8254SOL    HW226595  13.309   6.304   8.032
 8255SOL     OW26596  13.722   7.087   3.418
 8255SOL    HW126597  13.813   7.083   3.387
 8255SOL    HW226598  13.721   7.032   3.496
 8256SOL     OW26599   8.804  10.695  13.165
 8256SOL    HW126600   8.730  10.689  13.225
 8256SOL    HW226601   8.838  10.605  13.160
 8257SOL     OW26602   2.444   2.173   3.294
 8257SOL    HW126603   2.522   2.165   3.349
 8257SOL    HW226604   2.434   2.267   3.280
 8258SOL     OW26605  13.233   2.284   1.395
 8258SOL    HW126606  13.178   2.361   1.378
 8258SOL    HW226607  13.241   2.240   1.311
 8259SOL     OW26608   4.470  12.574   6.951
 8259SOL    HW126609   4.555  12.617   6.956
 8259SOL    HW226610   4.431  12.608   6.870
 8260SOL     OW26611  13.190  12.357   7.171
 8260SOL    HW126612  13.164  12.358   7.263
 8260SOL    HW226613  13.230  12.443   7.156
 8261SOL     OW26614  14.616   1.315   6.557
 8261SOL    HW126615  14.615   1.375   6.482
 8261SOL    HW226616  14.682   1.249   6.534
 8262SOL     OW26617   0.080  13.545   1.977
 8262SOL    HW126618   0.104  13.569   2.066
 8262SOL    HW226619   0.099  13.623   1.925
 8263SOL     OW26620  11.961  14.392   0.962
 8263SOL    HW126621  11.882  14.397   1.015
 8263SOL    HW226622  11.974  14.481   0.929
 8264SOL     OW26623   0.305   1.107  14.220
 8264SOL    HW126624   0.235   1.054  14.182
 8264SOL    HW226625   0.343   1.153  14.145
 8265SOL     OW26626   0.364   1.286   8.514
 8265SOL    HW126627   0.393   1.211   8.462
 8265SOL    HW226628   0.427   1.291   8.586
 8266SOL     OW26629   8.849   8.270  10.407
 8266SOL    HW126630   8.779   8.286  10.471
 8266SOL    HW226631   8.904   8.348  10.412
 8267SOL     OW26632   8.266   7.797   0.644
 8267SOL    HW126633   8.342   7.817   0.700
 8267SOL    HW226634   8.193   7.788   0.705
 8268SOL     OW26635  10.282   7.947  10.903
 8268SOL    HW126636  10.199   7.991  10.886
 8268SOL    HW226637  10.261   7.854  10.905
 8269SOL     OW26638  11.906   9.063   6.565
 8269SOL    HW126639  11.867   9.139   6.608
 8269SOL    HW226640  11.960   9.100   6.495
 8270SOL     OW26641   9.734  12.941   1.213
 8270SOL    HW126642   9.709  13.014   1.269
 8270SOL    HW226643   9.701  12.864   1.257
 8271SOL     OW26644   3.082  10.483   0.481
 8271SOL    HW126645   3.085  10.579   0.480
 8271SOL    HW226646   3.174  10.456   0.478
 8272SOL     OW26647   7.929   1.231  12.758
 8272SOL    HW126648   7.970   1.308  12.798
 8272SOL    HW226649   7.841   1.260  12.735
 8273SOL     OW26650  11.461  12.436   5.512
 8273SOL    HW126651  11.439  12.437   5.606
 8273SOL    HW226652  11.510  12.517   5.498
 8274SOL     OW26653  10.879   7.597   5.974
 8274SOL    HW126654  10.948   7.663   5.968
 8274SOL    HW226655  10.905   7.529   5.912
 8275SOL     OW26656   8.887   0.305   1.759
 8275SOL    HW126657   8.824   0.334   1.693
 8275SOL    HW226658   8.842   0.234   1.805
 8276SOL     OW26659  11.338  14.440   7.432
 8276SOL    HW126660  11.263  14.496   7.412
 8276SOL    HW226661  11.336  14.430   7.527
 8277SOL     OW26662   9.150   4.282   0.974
 8277SOL    HW126663   9.080   4.335   0.935
 8277SOL    HW226664   9.202   4.253   0.898
 8278SOL     OW26665   7.836   4.562  11.564
 8278SOL    HW126666   7.915   4.607  11.535
 8278SOL    HW226667   7.853   4.470  11.545
 8279SOL     OW26668  11.711   8.690   3.031
 8279SOL    HW126669  11.773   8.625   2.999
 8279SOL    HW226670  11.692   8.663   3.121
 8280SOL     OW26671  10.497   6.242   6.093
 8280SOL    HW126672  10.439   6.244   6.169
 8280SOL    HW226673  10.477   6.159   6.049
 8281SOL     OW26674  11.471   5.226   5.103
 8281SOL    HW126675  11.505   5.299   5.050
 8281SOL    HW226676  11.378   5.223   5.081
 8282SOL     OW26677   2.905  14.442  13.872
 8282SOL    HW126678   2.994  14.466  13.895
 8282SOL    HW226679   2.900  14.348  13.889
 8283SOL     OW26680   7.063   8.784   4.003
 8283SOL    HW126681   7.066   8.706   4.057
 8283SOL    HW226682   7.131   8.841   4.039
 8284SOL     OW26683   8.124   7.631  10.332
 8284SOL    HW126684   8.062   7.691  10.290
 8284SOL    HW226685   8.205   7.642  10.283
 8285SOL     OW26686   2.682  13.893   1.646
 8285SOL    HW126687   2.624  13.964   1.620
 8285SOL    HW226688   2.703  13.848   1.564
 8286SOL     OW26689   1.488   6.935  14.181
 8286SOL    HW126690   1.412   6.941  14.123
 8286SOL    HW226691   1.557   6.983  14.135
 8287SOL     OW26692   7.984   7.184  12.839
 8287SOL    HW126693   7.902   7.222  12.870
 8287SOL    HW226694   8.032   7.257  12.802
 8288SOL     OW26695   4.915   3.923   6.746
 8288SOL    HW126696   4.902   3.960   6.659
 8288SOL    HW226697   5.005   3.890   6.745
 8289SOL     OW26698   9.843  12.827   0.822
 8289SOL    HW126699   9.920  12.813   0.768
 8289SOL    HW226700   9.771  12.789   0.772
 8290SOL     OW26701   1.449   3.417   3.213
 8290SOL    HW126702   1.495   3.335   3.199
 8290SOL    HW226703   1.398   3.403   3.293
 8291SOL     OW26704   0.601   9.484   2.127
 8291SOL    HW126705   0.521   9.492   2.179
 8291SOL    HW226706   0.596   9.556   2.064
 8292SOL     OW26707   7.928   9.929   9.912
 8292SOL    HW126708   7.842   9.919   9.953
 8292SOL    HW226709   7.911   9.979   9.832
 8293SOL     OW26710   7.357   3.760   7.827
 8293SOL    HW126711   7.336   3.669   7.847
 8293SOL    HW226712   7.312   3.810   7.895
 8294SOL     OW26713   8.920   0.649   9.254
 8294SOL    HW126714   8.888   0.602   9.331
 8294SOL    HW226715   8.972   0.721   9.290
 8295SOL     OW26716   3.244  12.614   4.760
 8295SOL    HW126717   3.264  12.577   4.846
 8295SOL    HW226718   3.288  12.556   4.698
 8296SOL     OW26719   9.891   4.052  13.838
 8296SOL    HW126720   9.892   3.978  13.777
 8296SOL    HW226721   9.983   4.063  13.863
 8297SOL     OW26722   6.518   2.660   4.876
 8297SOL    HW126723   6.589   2.617   4.924
 8297SOL    HW226724   6.438   2.628   4.918
 8298SOL     OW26725   9.990   1.817  14.226
 8298SOL    HW126726   9.961   1.831  14.136
 8298SOL    HW226727   9.947   1.736  14.253
 8299SOL     OW26728   0.331  11.307   2.937
 8299SOL    HW126729   0.421  11.330   2.912
 8299SOL    HW226730   0.300  11.252   2.864
 8300SOL     OW26731   5.361   2.129  14.149
 8300SOL    HW126732   5.341   2.161  14.060
 8300SOL    HW226733   5.447   2.167  14.169
 8301SOL     OW26734   9.713  11.241   4.961
 8301SOL    HW126735   9.734  11.148   4.950
 8301SOL    HW226736   9.645  11.258   4.896
 8302SOL     OW26737   8.969   2.689   2.923
 8302SOL    HW126738   8.923   2.670   2.841
 8302SOL    HW226739   9.062   2.682   2.900
 8303SOL     OW26740   0.680   2.604   7.232
 8303SOL    HW126741   0.647   2.689   7.261
 8303SOL    HW226742   0.606   2.563   7.188
 8304SOL     OW26743   1.768   7.704   1.107
 8304SOL    HW126744   1.766   7.748   1.193
 8304SOL    HW226745   1.832   7.754   1.056
 8305SOL     OW26746   9.862  11.648   9.039
 8305SOL    HW126747   9.947  11.638   9.081
 8305SOL    HW226748   9.836  11.559   9.016
 8306SOL     OW26749   2.227   8.449  12.090
 8306SOL    HW126750   2.176   8.494  12.022
 8306SOL    HW226751   2.282   8.518  12.127
 8307SOL     OW26752   4.825  10.050   1.133
 8307SOL    HW126753   4.895  10.092   1.084
 8307SOL    HW226754   4.869  10.004   1.204
 8308SOL     OW26755   0.613   9.544  13.212
 8308SOL    HW126756   0.693   9.570  13.167
 8308SOL    HW226757   0.562   9.498  13.145
 8309SOL     OW26758  10.257  12.855  14.189
 8309SOL    HW126759  10.197  12.930  14.194
 8309SOL    HW226760  10.210  12.790  14.137
 8310SOL     OW26761  10.651   5.983  14.238
 8310SOL    HW126762  10.742   5.966  14.217
 8310SOL    HW226763  10.608   5.990  14.152
 8311SOL     OW26764   6.692  10.207   2.577
 8311SOL    HW126765   6.629  10.209   2.649
 8311SOL    HW226766   6.758  10.272   2.602
 8312SOL     OW26767   2.723  12.895   5.610
 8312SOL    HW126768   2.708  12.884   5.516
 8312SOL    HW226769   2.685  12.979   5.631
 8313SOL     OW26770  12.358  13.925  13.768
 8313SOL    HW126771  12.400  13.852  13.814
 8313SOL    HW226772  12.386  14.002  13.817
 8314SOL     OW26773   9.133   4.308   8.829
 8314SOL    HW126774   9.171   4.392   8.801
 8314SOL    HW226775   9.148   4.305   8.923
 8315SOL     OW26776  12.818   5.483   8.122
 8315SOL    HW126777  12.743   5.535   8.148
 8315SOL    HW226778  12.893   5.528   8.160
 8316SOL     OW26779   7.300  14.057   7.542
 8316SOL    HW126780   7.258  14.137   7.509
 8316SOL    HW226781   7.391  14.066   7.515
 8317SOL     OW26782  11.639   4.287   3.900
 8317SOL    HW126783  11.709   4.228   3.927
 8317SOL    HW226784  11.660   4.308   3.809
 8318SOL     OW26785  14.025   8.912  12.132
 8318SOL    HW126786  14.082   8.936  12.205
 8318SOL    HW226787  14.084   8.898  12.059
 8319SOL     OW26788   7.396   6.316   6.517
 8319SOL    HW126789   7.390   6.246   6.582
 8319SOL    HW226790   7.445   6.277   6.445
 8320SOL     OW26791   0.508   7.186   3.537
 8320SOL    HW126792   0.540   7.134   3.463
 8320SOL    HW226793   0.431   7.138   3.569
 8321SOL     OW26794  13.070   0.120  10.929
 8321SOL    HW126795  13.103   0.109  10.840
 8321SOL    HW226796  12.988   0.169  10.919
 8322SOL     OW26797   8.760   2.976  14.582
 8322SOL    HW126798   8.775   3.044  14.516
 8322SOL    HW226799   8.799   3.011  14.662
 8323SOL     OW26800   4.346   8.675   4.549
 8323SOL    HW126801   4.263   8.663   4.594
 8323SOL    HW226802   4.371   8.766   4.568
 8324SOL     OW26803   1.329   3.335  11.393
 8324SOL    HW126804   1.352   3.260  11.448
 8324SOL    HW226805   1.403   3.394  11.402
 8325SOL     OW26806   4.985   1.395  14.467
 8325SOL    HW126807   4.936   1.372  14.388
 8325SOL    HW226808   4.963   1.326  14.530
 8326SOL     OW26809  11.195  14.433   0.367
 8326SOL    HW126810  11.286  14.464   0.373
 8326SOL    HW226811  11.148  14.506   0.328
 8327SOL     OW26812   7.307   4.855  14.398
 8327SOL    HW126813   7.230   4.803  14.421
 8327SOL    HW226814   7.346   4.879  14.482
 8328SOL     OW26815   7.464  14.333   1.806
 8328SOL    HW126816   7.441  14.415   1.761
 8328SOL    HW226817   7.553  14.314   1.775
 8329SOL     OW26818   9.698  14.546   2.693
 8329SOL    HW126819   9.694  14.638   2.720
 8329SOL    HW226820   9.613  14.529   2.652
 8330SOL     OW26821   2.522   4.287   8.192
 8330SOL    HW126822   2.457   4.233   8.148
 8330SOL    HW226823   2.597   4.228   8.205
 8331SOL     OW26824  13.478   5.788  12.348
 8331SOL    HW126825  13.489   5.693  12.343
 8331SOL    HW226826  13.485   5.818  12.257
 8332SOL     OW26827  12.090   1.069   3.371
 8332SOL    HW126828  12.142   1.023   3.437
 8332SOL    HW226829  12.024   1.116   3.422
 8333SOL     OW26830   0.835  12.860  14.321
 8333SOL    HW126831   0.903  12.807  14.363
 8333SOL    HW226832   0.855  12.854  14.227
 8334SOL     OW26833  12.543   4.646   9.536
 8334SOL    HW126834  12.611   4.680   9.594
 8334SOL    HW226835  12.562   4.684   9.451
 8335SOL     OW26836   3.268   6.303   4.689
 8335SOL    HW126837   3.357   6.337   4.703
 8335SOL    HW226838   3.257   6.302   4.594
 8336SOL     OW26839  12.740   8.402   8.591
 8336SOL    HW126840  12.800   8.333   8.562
 8336SOL    HW226841  12.751   8.472   8.527
 8337SOL     OW26842   1.540   1.398   9.162
 8337SOL    HW126843   1.496   1.411   9.246
 8337SOL    HW226844   1.485   1.445   9.099
 8338SOL     OW26845  14.597   1.389   2.509
 8338SOL    HW126846  14.640   1.397   2.594
 8338SOL    HW226847  14.534   1.461   2.507
 8339SOL     OW26848   1.102  12.742   3.879
 8339SOL    HW126849   1.192  12.759   3.907
 8339SOL    HW226850   1.081  12.656   3.915
 8340SOL     OW26851  10.121  13.192   0.837
 8340SOL    HW126852  10.038  13.238   0.826
 8340SOL    HW226853  10.167  13.242   0.904
 8341SOL     OW26854   0.757   7.700  13.982
 8341SOL    HW126855   0.687   7.735  13.927
 8341SOL    HW226856   0.837   7.713  13.931
 8342SOL     OW26857   9.729  13.468   8.693
 8342SOL    HW126858   9.647  13.512   8.716
 8342SOL    HW226859   9.725  13.384   8.738
 8343SOL     OW26860  13.042   6.585  10.374
 8343SOL    HW126861  13.049   6.511  10.314
 8343SOL    HW226862  13.093   6.655  10.333
 8344SOL     OW26863   1.584  14.353   3.955
 8344SOL    HW126864   1.532  14.276   3.978
 8344SOL    HW226865   1.605  14.341   3.863
 8345SOL     OW26866   5.629   2.272   1.001
 8345SOL    HW126867   5.694   2.206   1.024
 8345SOL    HW226868   5.675   2.355   1.012
 8346SOL     OW26869   1.032   8.019  10.526
 8346SOL    HW126870   0.999   8.059  10.445
 8346SOL    HW226871   0.976   7.942  10.539
 8347SOL     OW26872  13.285  13.040   4.898
 8347SOL    HW126873  13.291  13.131   4.927
 8347SOL    HW226874  13.193  13.029   4.874
 8348SOL     OW26875   1.397   3.580   1.498
 8348SOL    HW126876   1.408   3.625   1.582
 8348SOL    HW226877   1.426   3.490   1.516
 8349SOL     OW26878   5.630  11.447  11.524
 8349SOL    HW126879   5.671  11.363  11.547
 8349SOL    HW226880   5.568  11.426  11.455
 8350SOL     OW26881   7.306  11.397   2.185
 8350SOL    HW126882   7.383  11.357   2.227
 8350SOL    HW226883   7.333  11.410   2.094
 8351SOL     OW26884   2.938   0.568   5.942
 8351SOL    HW126885   2.945   0.503   5.871
 8351SOL    HW226886   2.845   0.569   5.964
 8352SOL     OW26887   9.841   6.251   0.971
 8352SOL    HW126888   9.747   6.264   0.973
 8352SOL    HW226889   9.857   6.206   0.888
 8353SOL     OW26890  14.780  10.771   7.954
 8353SOL    HW126891  14.832  10.794   8.031
 8353SOL    HW226892  14.795  10.677   7.942
 8354SOL     OW26893   5.895   3.977  13.037
 8354SOL    HW126894   5.837   3.948  13.107
 8354SOL    HW226895   5.910   4.070  13.054
 8355SOL     OW26896  13.040   6.579   8.563
 8355SOL    HW126897  13.050   6.671   8.539
 8355SOL    HW226898  13.129   6.545   8.565
 8356SOL     OW26899   5.846   0.719   4.856
 8356SOL    HW126900   5.833   0.626   4.839
 8356SOL    HW226901   5.758   0.753   4.873
 8357SOL     OW26902  10.803   7.517   0.410
 8357SOL    HW126903  10.883   7.523   0.463
 8357SOL    HW226904  10.834   7.500   0.321
 8358SOL     OW26905   2.018   8.744   0.036
 8358SOL    HW126906   2.050   8.657   0.013
 8358SOL    HW226907   2.039   8.799  14.833
 8359SOL     OW26908  10.097  13.722  14.490
 8359SOL    HW126909  10.138  13.792  14.440
 8359SOL    HW226910  10.004  13.725  14.466
 8360SOL     OW26911   5.669   5.756   8.872
 8360SOL    HW126912   5.717   5.821   8.821
 8360SOL    HW226913   5.577   5.777   8.858
 8361SOL     OW26914  11.205  14.572   3.334
 8361SOL    HW126915  11.192  14.665   3.316
 8361SOL    HW226916  11.153  14.554   3.412
 8362SOL     OW26917   9.511  12.455  11.759
 8362SOL    HW126918   9.451  12.382  11.770
 8362SOL    HW226919   9.496  12.511  11.835
 8363SOL     OW26920   1.339  12.889   6.825
 8363SOL    HW126921   1.315  12.841   6.905
 8363SOL    HW226922   1.323  12.981   6.846
 8364SOL     OW26923   9.929   2.970  12.492
 8364SOL    HW126924   9.895   2.887  12.458
 8364SOL    HW226925   9.965   2.948  12.578
 8365SOL     OW26926   8.540   2.425  14.707
 8365SOL    HW126927   8.597   2.349  14.715
 8365SOL    HW226928   8.477   2.402  14.639
 8366SOL     OW26929  13.003   3.348   0.444
 8366SOL    HW126930  13.089   3.329   0.405
 8366SOL    HW226931  12.966   3.414   0.386
 8367SOL     OW26932   3.650  11.183  11.783
 8367SOL    HW126933   3.725  11.193  11.843
 8367SOL    HW226934   3.637  11.270  11.747
 8368SOL     OW26935   8.114   6.544   1.809
 8368SOL    HW126936   8.075   6.518   1.725
 8368SOL    HW226937   8.039   6.556   1.867
 8369SOL     OW26938   7.543   3.871   7.658
 8369SOL    HW126939   7.471   3.842   7.714
 8369SOL    HW226940   7.603   3.796   7.656
 8370SOL     OW26941  10.452   6.863  14.258
 8370SOL    HW126942  10.525   6.924  14.264
 8370SOL    HW226943  10.395   6.886  14.331
 8371SOL     OW26944   8.980   4.273  13.508
 8371SOL    HW126945   8.888   4.262  13.484
 8371SOL    HW226946   9.026   4.207  13.456
 8372SOL     OW26947   2.796  12.255  10.043
 8372SOL    HW126948   2.754  12.322  10.098
 8372SOL    HW226949   2.783  12.286   9.954
 8373SOL     OW26950  12.134  13.873  12.170
 8373SOL    HW126951  12.203  13.909  12.225
 8373SOL    HW226952  12.126  13.781  12.197
 8374SOL     OW26953  12.688  12.492   6.501
 8374SOL    HW126954  12.756  12.472   6.437
 8374SOL    HW226955  12.706  12.434   6.575
 8375SOL     OW26956  12.597   8.530  13.625
 8375SOL    HW126957  12.564   8.469  13.558
 8375SOL    HW226958  12.691   8.532  13.610
 8376SOL     OW26959  11.801  11.260   9.243
 8376SOL    HW126960  11.735  11.205   9.286
 8376SOL    HW226961  11.853  11.296   9.315
 8377SOL     OW26962  14.131   0.746   7.648
 8377SOL    HW126963  14.075   0.780   7.578
 8377SOL    HW226964  14.218   0.743   7.609
 8378SOL     OW26965   6.195   7.667   4.804
 8378SOL    HW126966   6.171   7.750   4.845
 8378SOL    HW226967   6.168   7.600   4.867
 8379SOL     OW26968   5.226   5.358  10.072
 8379SOL    HW126969   5.291   5.418  10.111
 8379SOL    HW226970   5.277   5.281  10.048
 8380SOL     OW26971   7.871   7.984  11.737
 8380SOL    HW126972   7.950   7.938  11.708
 8380SOL    HW226973   7.820   7.996  11.657
 8381SOL     OW26974   6.889  10.885   1.520
 8381SOL    HW126975   6.888  10.947   1.447
 8381SOL    HW226976   6.969  10.834   1.507
 8382SOL     OW26977   0.515   8.790   6.438
 8382SOL    HW126978   0.449   8.856   6.456
 8382SOL    HW226979   0.593   8.840   6.412
 8383SOL     OW26980   4.986   5.222  12.886
 8383SOL    HW126981   5.005   5.135  12.852
 8383SOL    HW226982   5.064   5.246  12.937
 8384SOL     OW26983   1.511  10.596  13.032
 8384SOL    HW126984   1.518  10.691  13.047
 8384SOL    HW226985   1.495  10.588  12.938
 8385SOL     OW26986  13.976   8.148  10.704
 8385SOL    HW126987  14.024   8.217  10.749
 8385SOL    HW226988  13.884   8.165  10.725
 8386SOL     OW26989  13.145  13.086   6.837
 8386SOL    HW126990  13.208  13.151   6.866
 8386SOL    HW226991  13.197  13.018   6.794
 8387SOL     OW26992  12.103   0.039   3.176
 8387SOL    HW126993  12.065   0.092   3.246
 8387SOL    HW226994  12.058  14.827   3.182
 8388SOL     OW26995   4.033   6.160  14.572
 8388SOL    HW126996   4.042   6.078  14.522
 8388SOL    HW226997   4.004   6.131  14.658
 8389SOL     OW26998   8.477  12.117  13.032
 8389SOL    HW126999   8.417  12.043  13.039
 8389SOL    HW227000   8.449  12.177  13.101
 8390SOL     OW27001  14.288   6.980  11.591
 8390SOL    HW127002  14.339   6.916  11.541
 8390SOL    HW227003  14.348   7.054  11.601
 8391SOL     OW27004   5.298   1.667   2.951
 8391SOL    HW127005   5.209   1.654   2.919
 8391SOL    HW227006   5.303   1.761   2.969
 8392SOL     OW27007  10.403  14.512   7.364
 8392SOL    HW127008  10.312  14.529   7.339
 8392SOL    HW227009  10.454  14.533   7.286
 8393SOL     OW27010   1.002   0.582   2.818
 8393SOL    HW127011   1.015   0.513   2.882
 8393SOL    HW227012   0.967   0.655   2.868
 8394SOL     OW27013  11.507   0.331  12.316
 8394SOL    HW127014  11.465   0.375  12.242
 8394SOL    HW227015  11.575   0.276  12.276
 8395SOL     OW27016   6.007  13.449   3.587
 8395SOL    HW127017   6.006  13.431   3.681
 8395SOL    HW227018   6.087  13.407   3.555
 8396SOL     OW27019  14.674   3.905   4.128
 8396SOL    HW127020  14.747   3.858   4.168
 8396SOL    HW227021  14.678   3.992   4.167
 8397SOL     OW27022   0.848   4.928  13.901
 8397SOL    HW127023   0.924   4.883  13.864
 8397SOL    HW227024   0.812   4.978  13.827
 8398SOL     OW27025   4.969   5.194   5.801
 8398SOL    HW127026   5.027   5.131   5.842
 8398SOL    HW227027   4.891   5.144   5.779
 8399SOL     OW27028   6.287  10.716   4.384
 8399SOL    HW127029   6.366  10.749   4.426
 8399SOL    HW227030   6.223  10.708   4.455
 8400SOL     OW27031   5.065  10.197  13.875
 8400SOL    HW127032   5.006  10.206  13.950
 8400SOL    HW227033   5.142  10.152  13.910
 8401SOL     OW27034   0.976  11.994   7.321
 8401SOL    HW127035   0.940  11.929   7.261
 8401SOL    HW227036   1.059  11.956   7.350
 8402SOL     OW27037   3.804   7.935   1.990
 8402SOL    HW127038   3.819   7.939   2.085
 8402SOL    HW227039   3.812   7.843   1.968
 8403SOL     OW27040   7.404   3.363  13.030
 8403SOL    HW127041   7.498   3.380  13.019
 8403SOL    HW227042   7.363   3.410  12.958
 8404SOL     OW27043   2.593  10.829  10.337
 8404SOL    HW127044   2.678  10.786  10.325
 8404SOL    HW227045   2.596  10.905  10.280
 8405SOL     OW27046  14.812   5.257   7.516
 8405SOL    HW127047  14.870   5.184   7.492
 8405SOL    HW227048  14.736   5.215   7.557
 8406SOL     OW27049   9.511  10.204  12.581
 8406SOL    HW127050   9.577  10.196  12.650
 8406SOL    HW227051   9.560  10.230  12.503
 8407SOL     OW27052   3.890   7.963  11.123
 8407SOL    HW127053   3.864   7.881  11.082
 8407SOL    HW227054   3.973   7.986  11.083
 8408SOL     OW27055   9.234   1.022  10.687
 8408SOL    HW127056   9.252   1.097  10.744
 8408SOL    HW227057   9.191   0.959  10.744
 8409SOL     OW27058   9.678   7.539  10.717
 8409SOL    HW127059   9.618   7.474  10.755
 8409SOL    HW227060   9.621   7.601  10.672
 8410SOL     OW27061   2.812   7.605  12.409
 8410SOL    HW127062   2.762   7.657  12.472
 8410SOL    HW227063   2.747   7.579  12.343
 8411SOL     OW27064   5.063   7.572  11.482
 8411SOL    HW127065   5.127   7.509  11.515
 8411SOL    HW227066   5.023   7.608  11.562
 8412SOL     OW27067  14.139   5.576  11.637
 8412SOL    HW127068  14.135   5.670  11.619
 8412SOL    HW227069  14.109   5.568  11.728
 8413SOL     OW27070  11.884   5.550  11.738
 8413SOL    HW127071  11.949   5.481  11.745
 8413SOL    HW227072  11.856   5.548  11.646
 8414SOL     OW27073   1.673   0.368   1.031
 8414SOL    HW127074   1.650   0.453   0.995
 8414SOL    HW227075   1.662   0.378   1.125
 8415SOL     OW27076   8.432   2.821   0.341
 8415SOL    HW127077   8.383   2.742   0.363
 8415SOL    HW227078   8.366   2.890   0.337
 8416SOL     OW27079  13.439  11.232  14.808
 8416SOL    HW127080  13.353  11.190  14.813
 8416SOL    HW227081  13.485  11.186  14.738
 8417SOL     OW27082   6.667  14.401  11.190
 8417SOL    HW127083   6.734  14.427  11.126
 8417SOL    HW227084   6.717  14.358  11.260
 8418SOL     OW27085  10.150   6.794   8.072
 8418SOL    HW127086  10.171   6.870   8.127
 8418SOL    HW227087  10.226   6.784   8.015
 8419SOL     OW27088  11.775   6.615   8.495
 8419SOL    HW127089  11.808   6.568   8.571
 8419SOL    HW227090  11.714   6.679   8.531
 8420SOL     OW27091  11.431  13.073   3.954
 8420SOL    HW127092  11.356  13.112   3.999
 8420SOL    HW227093  11.396  13.047   3.869
 8421SOL     OW27094   4.914   8.358   6.435
 8421SOL    HW127095   4.839   8.412   6.459
 8421SOL    HW227096   4.981   8.421   6.406
 8422SOL     OW27097   7.845   1.241  13.710
 8422SOL    HW127098   7.848   1.230  13.805
 8422SOL    HW227099   7.878   1.329  13.695
 8423SOL     OW27100   4.307  14.687   5.223
 8423SOL    HW127101   4.367  14.639   5.280
 8423SOL    HW227102   4.285  14.624   5.154
 8424SOL     OW27103  14.706   4.316   1.127
 8424SOL    HW127104  14.665   4.263   1.059
 8424SOL    HW227105  14.647   4.391   1.138
 8425SOL     OW27106   9.661   0.058   2.128
 8425SOL    HW127107   9.631   0.092   2.212
 8425SOL    HW227108   9.628  14.840   2.125
 8426SOL     OW27109  14.785   9.514   1.141
 8426SOL    HW127110  14.828   9.429   1.139
 8426SOL    HW227111  14.850   9.574   1.103
 8427SOL     OW27112   6.258   9.528   2.909
 8427SOL    HW127113   6.274   9.474   2.985
 8427SOL    HW227114   6.203   9.474   2.852
 8428SOL     OW27115  13.369  13.192  10.660
 8428SOL    HW127116  13.437  13.125  10.666
 8428SOL    HW227117  13.390  13.254  10.731
 8429SOL     OW27118  13.029   2.070  10.638
 8429SOL    HW127119  13.013   2.045  10.729
 8429SOL    HW227120  13.002   2.162  10.633
 8430SOL     OW27121   3.755  13.608  13.849
 8430SOL    HW127122   3.739  13.637  13.759
 8430SOL    HW227123   3.718  13.677  13.903
 8431SOL     OW27124   2.495   9.690  14.103
 8431SOL    HW127125   2.480   9.742  14.024
 8431SOL    HW227126   2.524   9.605  14.071
 8432SOL     OW27127  10.469   4.916   8.141
 8432SOL    HW127128  10.500   5.006   8.151
 8432SOL    HW227129  10.407   4.904   8.213
 8433SOL     OW27130  12.684   4.458  11.050
 8433SOL    HW127131  12.631   4.513  10.992
 8433SOL    HW227132  12.744   4.413  10.991
 8434SOL     OW27133   4.499   2.916  14.616
 8434SOL    HW127134   4.525   3.001  14.651
 8434SOL    HW227135   4.528   2.918  14.524
 8435SOL     OW27136   2.039   2.379   2.847
 8435SOL    HW127137   1.971   2.363   2.912
 8435SOL    HW227138   2.027   2.309   2.782
 8436SOL     OW27139  12.722   1.407   7.662
 8436SOL    HW127140  12.666   1.368   7.594
 8436SOL    HW227141  12.664   1.467   7.709
 8437SOL     OW27142   0.540   1.698   7.555
 8437SOL    HW127143   0.613   1.637   7.548
 8437SOL    HW227144   0.479   1.670   7.487
 8438SOL     OW27145  11.383   1.774   4.184
 8438SOL    HW127146  11.475   1.790   4.202
 8438SOL    HW227147  11.337   1.825   4.251
 8439SOL     OW27148   3.449   2.621   1.520
 8439SOL    HW127149   3.522   2.637   1.579
 8439SOL    HW227150   3.490   2.598   1.436
 8440SOL     OW27151   8.951   0.629   4.772
 8440SOL    HW127152   8.931   0.563   4.838
 8440SOL    HW227153   8.988   0.702   4.822
 8441SOL     OW27154   9.775   5.765   0.472
 8441SOL    HW127155   9.691   5.720   0.468
 8441SOL    HW227156   9.794   5.791   0.382
 8442SOL     OW27157  11.076   1.873   7.737
 8442SOL    HW127158  10.990   1.845   7.707
 8442SOL    HW227159  11.084   1.836   7.825
 8443SOL     OW27160   7.527   6.528   4.195
 8443SOL    HW127161   7.584   6.596   4.231
 8443SOL    HW227162   7.535   6.538   4.100
 8444SOL     OW27163   2.952   8.424   4.848
 8444SOL    HW127164   2.942   8.439   4.755
 8444SOL    HW227165   3.046   8.433   4.864
 8445SOL     OW27166   9.509  10.688  12.772
 8445SOL    HW127167   9.416  10.696  12.794
 8445SOL    HW227168   9.535  10.605  12.812
 8446SOL     OW27169   8.107   4.755   3.125
 8446SOL    HW127170   8.065   4.750   3.039
 8446SOL    HW227171   8.172   4.824   3.116
 8447SOL     OW27172  13.523   0.486   8.982
 8447SOL    HW127173  13.614   0.508   8.962
 8447SOL    HW227174  13.527   0.443   9.067
 8448SOL     OW27175   2.885   9.802   4.904
 8448SOL    HW127176   2.848   9.715   4.890
 8448SOL    HW227177   2.846   9.832   4.986
 8449SOL     OW27178   6.769   1.853   1.305
 8449SOL    HW127179   6.801   1.941   1.324
 8449SOL    HW227180   6.674   1.863   1.298
 8450SOL     OW27181   7.195   5.359  11.803
 8450SOL    HW127182   7.201   5.264  11.817
 8450SOL    HW227183   7.189   5.396  11.891
 8451SOL     OW27184  13.918  13.589   5.660
 8451SOL    HW127185  13.906  13.658   5.594
 8451SOL    HW227186  13.831  13.578   5.699
 8452SOL     OW27187   4.956   1.593   1.706
 8452SOL    HW127188   4.907   1.667   1.742
 8452SOL    HW227189   4.943   1.599   1.612
 8453SOL     OW27190   3.525   3.739   8.512
 8453SOL    HW127191   3.484   3.684   8.579
 8453SOL    HW227192   3.451   3.774   8.462
 8454SOL     OW27193  10.676  10.388   2.713
 8454SOL    HW127194  10.770  10.403   2.707
 8454SOL    HW227195  10.645  10.452   2.776
 8455SOL     OW27196  12.235  11.531   9.928
 8455SOL    HW127197  12.149  11.565   9.902
 8455SOL    HW227198  12.292  11.608   9.927
 8456SOL     OW27199   1.330   2.621   4.198
 8456SOL    HW127200   1.413   2.603   4.154
 8456SOL    HW227201   1.282   2.676   4.137
 8457SOL     OW27202   6.692   9.422   2.721
 8457SOL    HW127203   6.762   9.486   2.713
 8457SOL    HW227204   6.663   9.407   2.631
 8458SOL     OW27205  10.016   1.730   3.970
 8458SOL    HW127206  10.018   1.635   3.959
 8458SOL    HW227207  10.101   1.752   4.006
 8459SOL     OW27208  10.870   0.468   8.326
 8459SOL    HW127209  10.960   0.448   8.299
 8459SOL    HW227210  10.879   0.547   8.380
 8460SOL     OW27211  12.449  11.050   5.718
 8460SOL    HW127212  12.425  11.100   5.796
 8460SOL    HW227213  12.511  10.984   5.749
 8461SOL     OW27214  10.574   9.700   0.209
 8461SOL    HW127215  10.611   9.787   0.195
 8461SOL    HW227216  10.543   9.672   0.122
 8462SOL     OW27217   3.027   8.385   3.511
 8462SOL    HW127218   2.992   8.304   3.548
 8462SOL    HW227219   3.088   8.418   3.578
 8463SOL     OW27220  10.058   1.685  13.678
 8463SOL    HW127221  10.027   1.648  13.595
 8463SOL    HW227222  10.111   1.615  13.717
 8464SOL     OW27223   0.224   3.670   0.152
 8464SOL    HW127224   0.271   3.730   0.095
 8464SOL    HW227225   0.261   3.685   0.239
 8465SOL     OW27226   9.462   8.546   3.625
 8465SOL    HW127227   9.458   8.451   3.633
 8465SOL    HW227228   9.539   8.571   3.676
 8466SOL     OW27229   2.693   0.553   6.629
 8466SOL    HW127230   2.618   0.579   6.577
 8466SOL    HW227231   2.655   0.521   6.711
 8467SOL     OW27232   5.973   5.754   0.002
 8467SOL    HW127233   5.962   5.839  14.833
 8467SOL    HW227234   5.974   5.773   0.096
 8468SOL     OW27235   1.093   1.430  11.052
 8468SOL    HW127236   1.133   1.384  11.126
 8468SOL    HW227237   1.130   1.389  10.974
 8469SOL     OW27238   7.292   3.087   7.644
 8469SOL    HW127239   7.239   3.166   7.654
 8469SOL    HW227240   7.336   3.099   7.560
 8470SOL     OW27241   7.071   2.645   6.377
 8470SOL    HW127242   7.021   2.594   6.440
 8470SOL    HW227243   7.158   2.654   6.417
 8471SOL     OW27244  13.382   9.006   3.130
 8471SOL    HW127245  13.289   8.984   3.137
 8471SOL    HW227246  13.390   9.048   3.044
 8472SOL     OW27247   7.574   9.800  10.427
 8472SOL    HW127248   7.506   9.741  10.458
 8472SOL    HW227249   7.536   9.888  10.433
 8473SOL     OW27250   0.612   8.329  10.773
 8473SOL    HW127251   0.583   8.386  10.844
 8473SOL    HW227252   0.537   8.322  10.715
 8474SOL     OW27253   0.256   9.668  12.741
 8474SOL    HW127254   0.245   9.703  12.830
 8474SOL    HW227255   0.350   9.674  12.724
 8475SOL     OW27256  12.357  14.627   0.441
 8475SOL    HW127257  12.299  14.572   0.493
 8475SOL    HW227258  12.381  14.573   0.366
 8476SOL     OW27259   6.225   2.832   8.509
 8476SOL    HW127260   6.224   2.864   8.419
 8476SOL    HW227261   6.295   2.883   8.552
 8477SOL     OW27262   7.600   2.430   6.328
 8477SOL    HW127263   7.636   2.371   6.261
 8477SOL    HW227264   7.524   2.383   6.362
 8478SOL     OW27265   3.795   1.003  13.846
 8478SOL    HW127266   3.889   1.016  13.831
 8478SOL    HW227267   3.790   0.934  13.912
 8479SOL     OW27268  10.980   9.018   7.746
 8479SOL    HW127269  11.067   9.057   7.759
 8479SOL    HW227270  10.919   9.082   7.784
 8480SOL     OW27271   1.631   3.174   1.805
 8480SOL    HW127272   1.556   3.213   1.759
 8480SOL    HW227273   1.629   3.215   1.892
 8481SOL     OW27274  12.750   1.985   0.405
 8481SOL    HW127275  12.771   2.066   0.358
 8481SOL    HW227276  12.705   2.014   0.484
 8482SOL     OW27277  14.714  12.251   6.022
 8482SOL    HW127278  14.700  12.170   5.974
 8482SOL    HW227279  14.794  12.288   5.985
 8483SOL     OW27280   1.253  13.990   1.938
 8483SOL    HW127281   1.167  13.970   1.975
 8483SOL    HW227282   1.294  14.050   2.000
 8484SOL     OW27283  13.436   6.028  11.800
 8484SOL    HW127284  13.512   6.081  11.822
 8484SOL    HW227285  13.470   5.939  11.792
 8485SOL     OW27286   5.331   5.183  10.437
 8485SOL    HW127287   5.272   5.242  10.486
 8485SOL    HW227288   5.404   5.239  10.410
 8486SOL     OW27289   9.894   7.031  14.700
 8486SOL    HW127290   9.983   7.030  14.737
 8486SOL    HW227291   9.840   7.068  14.770
 8487SOL     OW27292   9.127   2.913   1.436
 8487SOL    HW127293   9.193   2.919   1.367
 8487SOL    HW227294   9.054   2.868   1.395
 8488SOL     OW27295  10.705   3.899   5.475
 8488SOL    HW127296  10.673   3.831   5.416
 8488SOL    HW227297  10.715   3.977   5.420
 8489SOL     OW27298   5.408   6.714  12.686
 8489SOL    HW127299   5.384   6.759  12.767
 8489SOL    HW227300   5.462   6.777  12.639
 8490SOL     OW27301   0.457  14.038   9.279
 8490SOL    HW127302   0.537  13.995   9.249
 8490SOL    HW227303   0.481  14.079   9.362
 8491SOL     OW27304   9.674   1.064  13.717
 8491SOL    HW127305   9.754   1.117  13.727
 8491SOL    HW227306   9.704   0.981  13.681
 8492SOL     OW27307  12.946   3.396  10.238
 8492SOL    HW127308  12.996   3.314  10.248
 8492SOL    HW227309  12.862   3.378  10.278
 8493SOL     OW27310   9.446   9.775  13.164
 8493SOL    HW127311   9.380   9.827  13.210
 8493SOL    HW227312   9.502   9.840  13.121
 8494SOL     OW27313   9.035   4.215  11.930
 8494SOL    HW127314   9.020   4.151  11.861
 8494SOL    HW227315   8.947   4.238  11.960
 8495SOL     OW27316   4.831  11.407   4.878
 8495SOL    HW127317   4.787  11.476   4.829
 8495SOL    HW227318   4.906  11.383   4.823
 8496SOL     OW27319  10.757   3.222   4.518
 8496SOL    HW127320  10.668   3.258   4.521
 8496SOL    HW227321  10.781   3.211   4.610
 8497SOL     OW27322   5.673   9.271   4.408
 8497SOL    HW127323   5.630   9.224   4.479
 8497SOL    HW227324   5.702   9.203   4.348
 8498SOL     OW27325   5.295   5.230   2.687
 8498SOL    HW127326   5.355   5.280   2.742
 8498SOL    HW227327   5.223   5.291   2.669
 8499SOL     OW27328   3.627  14.649   4.444
 8499SOL    HW127329   3.668  14.708   4.507
 8499SOL    HW227330   3.557  14.701   4.405
 8500SOL     OW27331   7.969  10.761  12.578
 8500SOL    HW127332   8.053  10.765  12.624
 8500SOL    HW227333   7.937  10.672  12.593
 8501SOL     OW27334   3.091  12.641   7.241
 8501SOL    HW127335   3.100  12.549   7.267
 8501SOL    HW227336   3.144  12.689   7.305
 8502SOL     OW27337   7.346  11.880   3.869
 8502SOL    HW127338   7.334  11.805   3.927
 8502SOL    HW227339   7.355  11.842   3.782
 8503SOL     OW27340   3.455   8.614   4.680
 8503SOL    HW127341   3.390   8.552   4.713
 8503SOL    HW227342   3.462   8.595   4.587
 8504SOL     OW27343   7.998   8.045  13.097
 8504SOL    HW127344   7.928   8.101  13.061
 8504SOL    HW227345   8.061   8.038  13.026
 8505SOL     OW27346   8.210   4.891   0.796
 8505SOL    HW127347   8.162   4.814   0.766
 8505SOL    HW227348   8.166   4.918   0.877
 8506SOL     OW27349  14.412  11.792   7.180
 8506SOL    HW127350  14.330  11.744   7.192
 8506SOL    HW227351  14.425  11.839   7.262
 8507SOL     OW27352  11.163  13.825  12.793
 8507SOL    HW127353  11.106  13.885  12.841
 8507SOL    HW227354  11.250  13.866  12.796
 8508SOL     OW27355   7.743   1.819  11.486
 8508SOL    HW127356   7.785   1.900  11.514
 8508SOL    HW227357   7.815   1.757  11.474
 8509SOL     OW27358   5.679   4.451   9.291
 8509SOL    HW127359   5.702   4.482   9.379
 8509SOL    HW227360   5.612   4.511   9.261
 8510SOL     OW27361   1.871  13.248  13.777
 8510SOL    HW127362   1.909  13.306  13.711
 8510SOL    HW227363   1.782  13.282  13.790
 8511SOL     OW27364   3.029   7.360  10.354
 8511SOL    HW127365   3.106   7.406  10.384
 8511SOL    HW227366   2.988   7.419  10.290
 8512SOL     OW27367  11.958  12.865  13.258
 8512SOL    HW127368  11.922  12.777  13.243
 8512SOL    HW227369  11.883  12.923  13.245
 8513SOL     OW27370  10.180  13.805   3.509
 8513SOL    HW127371  10.186  13.886   3.561
 8513SOL    HW227372  10.245  13.747   3.547
 8514SOL     OW27373   5.984   3.269   6.737
 8514SOL    HW127374   5.894   3.291   6.710
 8514SOL    HW227375   5.990   3.175   6.724
 8515SOL     OW27376   4.854   2.871   0.674
 8515SOL    HW127377   4.853   2.791   0.622
 8515SOL    HW227378   4.936   2.914   0.650
 8516SOL     OW27379  14.140  14.872   0.466
 8516SOL    HW127380  14.161  14.847   0.556
 8516SOL    HW227381  14.220   0.039   0.432
 8517SOL     OW27382  12.425  10.377  14.118
 8517SOL    HW127383  12.473  10.447  14.073
 8517SOL    HW227384  12.350  10.359  14.061
 8518SOL     OW27385   8.236  10.704   5.862
 8518SOL    HW127386   8.206  10.617   5.838
 8518SOL    HW227387   8.158  10.759   5.857
 8519SOL     OW27388   5.691   8.837  13.180
 8519SOL    HW127389   5.716   8.917  13.225
 8519SOL    HW227390   5.669   8.865  13.091
 8520SOL     OW27391   1.765   1.399   6.439
 8520SOL    HW127392   1.757   1.494   6.441
 8520SOL    HW227393   1.850   1.383   6.398
 8521SOL     OW27394  10.411   4.220   5.877
 8521SOL    HW127395  10.490   4.168   5.870
 8521SOL    HW227396  10.390   4.221   5.970
 8522SOL     OW27397  14.339  12.808   6.299
 8522SOL    HW127398  14.283  12.731   6.289
 8522SOL    HW227399  14.371  12.802   6.389
 8523SOL     OW27400   5.485   1.852   8.082
 8523SOL    HW127401   5.520   1.912   8.147
 8523SOL    HW227402   5.511   1.765   8.112
 8524SOL     OW27403  11.465  13.683   1.411
 8524SOL    HW127404  11.500  13.705   1.498
 8524SOL    HW227405  11.400  13.615   1.428
 8525SOL     OW27406   5.786   1.266   6.772
 8525SOL    HW127407   5.749   1.294   6.688
 8525SOL    HW227408   5.749   1.179   6.786
 8526SOL     OW27409  10.293   3.663   0.769
 8526SOL    HW127410  10.293   3.758   0.752
 8526SOL    HW227411  10.215   3.648   0.821
 8527SOL     OW27412   8.312  13.551   0.089
 8527SOL    HW127413   8.407  13.550   0.097
 8527SOL    HW227414   8.289  13.644   0.091
 8528SOL     OW27415  14.776   2.377   6.794
 8528SOL    HW127416  14.851   2.437   6.800
 8528SOL    HW227417  14.709   2.428   6.749
 8529SOL     OW27418  10.867   6.070   1.614
 8529SOL    HW127419  10.953   6.081   1.656
 8529SOL    HW227420  10.804   6.083   1.684
 8530SOL     OW27421   9.732  13.700   9.881
 8530SOL    HW127422   9.709  13.786   9.845
 8530SOL    HW227423   9.688  13.637   9.825
 8531SOL     OW27424   5.761  10.798  10.414
 8531SOL    HW127425   5.785  10.776  10.504
 8531SOL    HW227426   5.685  10.744  10.395
 8532SOL     OW27427  11.856  12.265   9.702
 8532SOL    HW127428  11.919  12.329   9.668
 8532SOL    HW227429  11.781  12.270   9.643
 8533SOL     OW27430   2.224   0.412   8.476
 8533SOL    HW127431   2.297   0.453   8.430
 8533SOL    HW227432   2.150   0.421   8.416
 8534SOL     OW27433   5.747  13.415  10.266
 8534SOL    HW127434   5.674  13.424  10.204
 8534SOL    HW227435   5.721  13.468  10.341
 8535SOL     OW27436  13.974   4.839  13.297
 8535SOL    HW127437  14.014   4.926  13.302
 8535SOL    HW227438  13.903   4.842  13.361
 8536SOL     OW27439   4.441   2.229  14.100
 8536SOL    HW127440   4.410   2.154  14.152
 8536SOL    HW227441   4.535   2.233  14.117
 8537SOL     OW27442  13.739  12.586  10.240
 8537SOL    HW127443  13.670  12.640  10.280
 8537SOL    HW227444  13.819  12.613  10.284
 8538SOL     OW27445  13.537   1.954   8.620
 8538SOL    HW127446  13.551   1.905   8.538
 8538SOL    HW227447  13.603   1.919   8.680
 8539SOL     OW27448   7.088   2.534  13.156
 8539SOL    HW127449   7.025   2.575  13.098
 8539SOL    HW227450   7.037   2.474  13.210
 8540SOL     OW27451   3.749  13.888  11.350
 8540SOL    HW127452   3.810  13.830  11.395
 8540SOL    HW227453   3.674  13.832  11.328
 8541SOL     OW27454  10.088  12.905   4.394
 8541SOL    HW127455  10.064  12.828   4.445
 8541SOL    HW227456  10.182  12.916   4.407
 8542SOL     OW27457   9.973   9.722   2.992
 8542SOL    HW127458   9.916   9.733   2.916
 8542SOL    HW227459   9.918   9.679   3.057
 8543SOL     OW27460  12.504   5.329   9.035
 8543SOL    HW127461  12.590   5.336   9.075
 8543SOL    HW227462  12.520   5.333   8.941
 8544SOL     OW27463  14.589   7.722  12.186
 8544SOL    HW127464  14.675   7.725  12.228
 8544SOL    HW227465  14.532   7.772  12.244
 8545SOL     OW27466   3.988  11.973  13.767
 8545SOL    HW127467   3.975  12.027  13.689
 8545SOL    HW227468   3.930  12.011  13.833
 8546SOL     OW27469   2.996  12.684   0.033
 8546SOL    HW127470   3.022  12.592   0.026
 8546SOL    HW227471   2.991  12.714  14.815
 8547SOL     OW27472   5.953   1.479   3.064
 8547SOL    HW127473   6.022   1.475   2.998
 8547SOL    HW227474   5.992   1.437   3.141
 8548SOL     OW27475   9.983   4.519  12.706
 8548SOL    HW127476   9.994   4.608  12.741
 8548SOL    HW227477   9.953   4.533  12.616
 8549SOL     OW27478  13.616   8.958   0.104
 8549SOL    HW127479  13.598   8.940   0.196
 8549SOL    HW227480  13.705   8.926   0.090
 8550SOL     OW27481   5.744  10.679   0.650
 8550SOL    HW127482   5.751  10.590   0.615
 8550SOL    HW227483   5.830  10.719   0.631
 8551SOL     OW27484   2.149   6.517  14.328
 8551SOL    HW127485   2.193   6.468  14.258
 8551SOL    HW227486   2.220   6.545  14.385
 8552SOL     OW27487   6.847  12.651  14.293
 8552SOL    HW127488   6.931  12.628  14.255
 8552SOL    HW227489   6.819  12.571  14.338
 8553SOL     OW27490   3.481   7.501   8.928
 8553SOL    HW127491   3.522   7.447   8.995
 8553SOL    HW227492   3.395   7.521   8.964
 8554SOL     OW27493   5.215   9.513   6.777
 8554SOL    HW127494   5.230   9.479   6.689
 8554SOL    HW227495   5.143   9.459   6.811
 8555SOL     OW27496   0.680   4.774   8.983
 8555SOL    HW127497   0.757   4.807   9.030
 8555SOL    HW227498   0.707   4.690   8.947
 8556SOL     OW27499   8.896   7.787  12.063
 8556SOL    HW127500   8.898   7.882  12.060
 8556SOL    HW227501   8.956   7.763  12.134
 8557SOL     OW27502   6.030   0.114   7.860
 8557SOL    HW127503   5.982   0.154   7.933
 8557SOL    HW227504   6.090   0.183   7.831
 8558SOL     OW27505   6.897  11.506   9.661
 8558SOL    HW127506   6.839  11.502   9.585
 8558SOL    HW227507   6.981  11.470   9.630
 8559SOL     OW27508   2.615   4.963   8.676
 8559SOL    HW127509   2.625   5.054   8.650
 8559SOL    HW227510   2.705   4.933   8.692
 8560SOL     OW27511   5.111   3.055   9.645
 8560SOL    HW127512   5.094   2.972   9.690
 8560SOL    HW227513   5.169   3.103   9.705
 8561SOL     OW27514   3.017   3.990   7.936
 8561SOL    HW127515   3.016   3.955   8.025
 8561SOL    HW227516   2.995   4.083   7.946
 8562SOL     OW27517  13.144  13.358   9.980
 8562SOL    HW127518  13.191  13.340   9.899
 8562SOL    HW227519  13.196  13.317  10.049
 8563SOL     OW27520  12.893   8.544   1.445
 8563SOL    HW127521  12.838   8.483   1.395
 8563SOL    HW227522  12.960   8.488   1.485
 8564SOL     OW27523  12.276   2.797   5.564
 8564SOL    HW127524  12.362   2.783   5.604
 8564SOL    HW227525  12.214   2.790   5.636
 8565SOL     OW27526   8.816  13.784   1.138
 8565SOL    HW127527   8.832  13.824   1.223
 8565SOL    HW227528   8.891  13.810   1.085
 8566SOL     OW27529   1.248   6.940   1.227
 8566SOL    HW127530   1.310   6.976   1.163
 8566SOL    HW227531   1.166   6.931   1.178
 8567SOL     OW27532  10.603   7.326  10.184
 8567SOL    HW127533  10.581   7.415  10.212
 8567SOL    HW227534  10.695   7.330  10.160
 8568SOL     OW27535   2.468   2.452   5.631
 8568SOL    HW127536   2.533   2.501   5.682
 8568SOL    HW227537   2.415   2.519   5.588
 8569SOL     OW27538   5.533   7.487  10.794
 8569SOL    HW127539   5.490   7.412  10.754
 8569SOL    HW227540   5.625   7.477  10.770
 8570SOL     OW27541   7.917   2.517   4.831
 8570SOL    HW127542   7.889   2.432   4.796
 8570SOL    HW227543   7.991   2.542   4.776
 8571SOL     OW27544   8.454   7.413  13.061
 8571SOL    HW127545   8.391   7.375  13.000
 8571SOL    HW227546   8.535   7.366  13.045
 8572SOL     OW27547   3.829   6.292   5.503
 8572SOL    HW127548   3.916   6.252   5.507
 8572SOL    HW227549   3.769   6.224   5.535
 8573SOL     OW27550   5.455   5.118   5.405
 8573SOL    HW127551   5.416   5.198   5.439
 8573SOL    HW227552   5.504   5.146   5.327
 8574SOL     OW27553  12.103   3.137   9.904
 8574SOL    HW127554  12.100   3.042   9.896
 8574SOL    HW227555  12.098   3.169   9.814
 8575SOL     OW27556   9.269   7.185   4.592
 8575SOL    HW127557   9.228   7.103   4.562
 8575SOL    HW227558   9.262   7.244   4.517
 8576SOL     OW27559  13.850   0.314   2.151
 8576SOL    HW127560  13.795   0.262   2.093
 8576SOL    HW227561  13.816   0.297   2.239
 8577SOL     OW27562   6.315   9.976   9.329
 8577SOL    HW127563   6.399   9.993   9.371
 8577SOL    HW227564   6.292  10.059   9.287
 8578SOL     OW27565   6.814   5.247   3.741
 8578SOL    HW127566   6.755   5.264   3.668
 8578SOL    HW227567   6.887   5.199   3.703
 8579SOL     OW27568   4.180  11.232   3.382
 8579SOL    HW127569   4.094  11.242   3.423
 8579SOL    HW227570   4.188  11.307   3.324
 8580SOL     OW27571  13.624   0.766  13.090
 8580SOL    HW127572  13.704   0.816  13.108
 8580SOL    HW227573  13.652   0.697  13.030
 8581SOL     OW27574  10.543   9.645   2.957
 8581SOL    HW127575  10.547   9.684   3.044
 8581SOL    HW227576  10.584   9.710   2.900
 8582SOL     OW27577   0.015   9.252   1.173
 8582SOL    HW127578   0.076   9.196   1.222
 8582SOL    HW227579   0.045   9.247   1.083
 8583SOL     OW27580   9.552   1.511  11.419
 8583SOL    HW127581   9.537   1.417  11.412
 8583SOL    HW227582   9.515   1.549  11.339
 8584SOL     OW27583  11.360  11.085   4.331
 8584SOL    HW127584  11.318  11.132   4.403
 8584SOL    HW227585  11.303  11.009   4.317
 8585SOL     OW27586  13.158   3.152  14.136
 8585SOL    HW127587  13.153   3.119  14.046
 8585SOL    HW227588  13.121   3.240  14.132
 8586SOL     OW27589  14.292   2.830   2.306
 8586SOL    HW127590  14.211   2.865   2.269
 8586SOL    HW227591  14.352   2.905   2.309
 8587SOL     OW27592   8.882   9.981   5.469
 8587SOL    HW127593   8.828   9.972   5.391
 8587SOL    HW227594   8.879  10.074   5.490
 8588SOL     OW27595   7.886   9.021   0.729
 8588SOL    HW127596   7.926   8.937   0.707
 8588SOL    HW227597   7.891   9.072   0.648
 8589SOL     OW27598   5.940   4.496   0.442
 8589SOL    HW127599   5.989   4.565   0.487
 8589SOL    HW227600   5.880   4.543   0.384
 8590SOL     OW27601   5.214  13.852  12.993
 8590SOL    HW127602   5.255  13.890  12.916
 8590SOL    HW227603   5.231  13.758  12.986
 8591SOL     OW27604   2.803   8.581   5.155
 8591SOL    HW127605   2.800   8.671   5.121
 8591SOL    HW227606   2.766   8.528   5.085
 8592SOL     OW27607  14.824   1.003   2.829
 8592SOL    HW127608  14.865   1.086   2.807
 8592SOL    HW227609  14.849   0.988   2.921
 8593SOL     OW27610   9.422   6.728   7.541
 8593SOL    HW127611   9.394   6.755   7.628
 8593SOL    HW227612   9.445   6.635   7.550
 8594SOL     OW27613  11.196   1.623   6.820
 8594SOL    HW127614  11.267   1.590   6.875
 8594SOL    HW227615  11.239   1.648   6.738
 8595SOL     OW27616   4.962   7.115  14.312
 8595SOL    HW127617   5.015   7.180  14.266
 8595SOL    HW227618   4.926   7.060  14.243
 8596SOL     OW27619   9.905   7.470   3.188
 8596SOL    HW127620   9.979   7.462   3.128
 8596SOL    HW227621   9.903   7.388   3.236
 8597SOL     OW27622   5.624   7.586   2.568
 8597SOL    HW127623   5.538   7.627   2.577
 8597SOL    HW227624   5.682   7.641   2.620
 8598SOL     OW27625  11.406   0.697   4.880
 8598SOL    HW127626  11.487   0.748   4.885
 8598SOL    HW227627  11.426   0.615   4.926
 8599SOL     OW27628   3.283  14.529   7.791
 8599SOL    HW127629   3.237  14.479   7.723
 8599SOL    HW227630   3.286  14.470   7.866
 8600SOL     OW27631   7.181  10.803  14.335
 8600SOL    HW127632   7.129  10.862  14.390
 8600SOL    HW227633   7.271  10.817  14.363
 8601SOL     OW27634   4.798  14.164   1.870
 8601SOL    HW127635   4.885  14.138   1.838
 8601SOL    HW227636   4.740  14.095   1.838
 8602SOL     OW27637   0.995   9.834   1.614
 8602SOL    HW127638   1.042   9.750   1.614
 8602SOL    HW227639   1.048   9.890   1.557
 8603SOL     OW27640   7.839  14.398   3.702
 8603SOL    HW127641   7.818  14.434   3.616
 8603SOL    HW227642   7.881  14.470   3.748
 8604SOL     OW27643   5.480   0.400  13.414
 8604SOL    HW127644   5.519   0.400  13.327
 8604SOL    HW227645   5.554   0.393  13.474
 8605SOL     OW27646  13.178   6.524  10.648
 8605SOL    HW127647  13.160   6.556  10.559
 8605SOL    HW227648  13.176   6.603  10.702
 8606SOL     OW27649   6.799  12.637  10.876
 8606SOL    HW127650   6.824  12.720  10.917
 8606SOL    HW227651   6.714  12.655  10.834
 8607SOL     OW27652   7.259  10.788  11.942
 8607SOL    HW127653   7.180  10.797  11.997
 8607SOL    HW227654   7.290  10.699  11.960
 8608SOL     OW27655   7.105   1.464   8.908
 8608SOL    HW127656   7.017   1.485   8.940
 8608SOL    HW227657   7.119   1.373   8.935
 8609SOL     OW27658   5.874   5.228   5.426
 8609SOL    HW127659   5.809   5.250   5.359
 8609SOL    HW227660   5.842   5.147   5.465
 8610SOL     OW27661   2.338  12.566   8.072
 8610SOL    HW127662   2.292  12.568   7.988
 8610SOL    HW227663   2.369  12.476   8.081
 8611SOL     OW27664   3.116  13.637   1.657
 8611SOL    HW127665   3.093  13.729   1.644
 8611SOL    HW227666   3.034  13.594   1.680
 8612SOL     OW27667  11.441   9.546  11.315
 8612SOL    HW127668  11.449   9.640  11.327
 8612SOL    HW227669  11.396   9.516  11.394
 8613SOL     OW27670  13.322   4.852   8.710
 8613SOL    HW127671  13.371   4.808   8.641
 8613SOL    HW227672  13.323   4.944   8.686
 8614SOL     OW27673  10.839  12.846   5.643
 8614SOL    HW127674  10.835  12.818   5.552
 8614SOL    HW227675  10.882  12.774   5.690
 8615SOL     OW27676   8.829   8.129   0.437
 8615SOL    HW127677   8.755   8.075   0.467
 8615SOL    HW227678   8.835   8.199   0.501
 8616SOL     OW27679   7.867   8.160  13.976
 8616SOL    HW127680   7.929   8.128  13.910
 8616SOL    HW227681   7.904   8.132  14.060
 8617SOL     OW27682   3.451  14.343   8.630
 8617SOL    HW127683   3.377  14.312   8.578
 8617SOL    HW227684   3.413  14.407   8.690
 8618SOL     OW27685   8.741  14.824  13.554
 8618SOL    HW127686   8.706  14.742  13.521
 8618SOL    HW227687   8.751  14.810  13.648
 8619SOL     OW27688   9.973   0.257   9.520
 8619SOL    HW127689   9.905   0.245   9.453
 8619SOL    HW227690   9.953   0.342   9.559
 8620SOL     OW27691  14.402   3.052   2.574
 8620SOL    HW127692  14.411   3.148   2.571
 8620SOL    HW227693  14.492   3.020   2.582
 8621SOL     OW27694   2.137   0.864   1.186
 8621SOL    HW127695   2.143   0.857   1.091
 8621SOL    HW227696   2.193   0.938   1.208
 8622SOL     OW27697   7.732  12.301  11.748
 8622SOL    HW127698   7.793  12.238  11.709
 8622SOL    HW227699   7.709  12.360  11.676
 8623SOL     OW27700  14.288   4.454   5.096
 8623SOL    HW127701  14.195   4.461   5.117
 8623SOL    HW227702  14.318   4.544   5.088
 8624SOL     OW27703   8.735  13.810  10.006
 8624SOL    HW127704   8.827  13.834   9.995
 8624SOL    HW227705   8.730  13.774  10.095
 8625SOL     OW27706   2.346  12.734   1.142
 8625SOL    HW127707   2.358  12.699   1.053
 8625SOL    HW227708   2.432  12.723   1.183
 8626SOL     OW27709  10.409   0.941   8.815
 8626SOL    HW127710  10.441   1.027   8.843
 8626SOL    HW227711  10.382   0.897   8.895
 8627SOL     OW27712  11.651   8.834  12.890
 8627SOL    HW127713  11.711   8.887  12.839
 8627SOL    HW227714  11.706   8.768  12.932
 8628SOL     OW27715   0.031   2.999   9.971
 8628SOL    HW127716  14.870   2.927  10.025
 8628SOL    HW227717  14.863   3.078  10.007
 8629SOL     OW27718   4.588   5.050   0.012
 8629SOL    HW127719   4.629   4.997  14.817
 8629SOL    HW227720   4.528   4.990   0.057
 8630SOL     OW27721   7.820   3.519  12.793
 8630SOL    HW127722   7.753   3.548  12.731
 8630SOL    HW227723   7.770   3.482  12.866
 8631SOL     OW27724   5.155   1.501   4.857
 8631SOL    HW127725   5.097   1.485   4.784
 8631SOL    HW227726   5.112   1.459   4.932
 8632SOL     OW27727   0.992  11.798   3.770
 8632SOL    HW127728   0.995  11.791   3.675
 8632SOL    HW227729   0.932  11.728   3.798
 8633SOL     OW27730   6.756  14.763  10.796
 8633SOL    HW127731   6.765  14.717  10.712
 8633SOL    HW227732   6.685  14.717  10.841
 8634SOL     OW27733   9.530   0.665   5.259
 8634SOL    HW127734   9.586   0.658   5.336
 8634SOL    HW227735   9.552   0.587   5.207
 8635SOL     OW27736   5.376  10.457   8.445
 8635SOL    HW127737   5.308  10.522   8.461
 8635SOL    HW227738   5.402  10.472   8.354
 8636SOL     OW27739   4.193   4.751  13.480
 8636SOL    HW127740   4.200   4.802  13.561
 8636SOL    HW227741   4.284   4.734  13.455
 8637SOL     OW27742   2.340   8.725  10.779
 8637SOL    HW127743   2.366   8.742  10.688
 8637SOL    HW227744   2.286   8.800  10.803
 8638SOL     OW27745  10.833   9.756   1.450
 8638SOL    HW127746  10.837   9.804   1.532
 8638SOL    HW227747  10.917   9.773   1.408
 8639SOL     OW27748   8.011   4.480  12.245
 8639SOL    HW127749   7.947   4.429  12.196
 8639SOL    HW227750   8.072   4.512  12.179
 8640SOL     OW27751   3.874   8.024  13.465
 8640SOL    HW127752   3.868   7.938  13.423
 8640SOL    HW227753   3.936   8.073  13.412
 8641SOL     OW27754  12.390  14.716   7.293
 8641SOL    HW127755  12.388  14.635   7.344
 8641SOL    HW227756  12.481  14.723   7.263
 8642SOL     OW27757   4.125  10.649   4.555
 8642SOL    HW127758   4.108  10.585   4.486
 8642SOL    HW227759   4.056  10.635   4.619
 8643SOL     OW27760   1.011   9.089   4.274
 8643SOL    HW127761   1.056   9.164   4.312
 8643SOL    HW227762   1.021   9.020   4.340
 8644SOL     OW27763   8.063  11.812   9.420
 8644SOL    HW127764   8.027  11.818   9.508
 8644SOL    HW227765   8.106  11.727   9.416
 8645SOL     OW27766  10.952   4.302  11.093
 8645SOL    HW127767  11.001   4.353  11.029
 8645SOL    HW227768  10.883   4.259  11.041
 8646SOL     OW27769   1.116  13.756  11.419
 8646SOL    HW127770   1.097  13.704  11.341
 8646SOL    HW227771   1.037  13.751  11.472
 8647SOL     OW27772   8.993  14.455   2.182
 8647SOL    HW127773   8.929  14.421   2.120
 8647SOL    HW227774   9.073  14.406   2.163
 8648SOL     OW27775  14.512   9.742   2.324
 8648SOL    HW127776  14.593   9.715   2.280
 8648SOL    HW227777  14.482   9.818   2.273
 8649SOL     OW27778  10.134  10.767  14.246
 8649SOL    HW127779  10.146  10.674  14.262
 8649SOL    HW227780  10.195  10.810  14.305
 8650SOL     OW27781  11.956  10.307  13.826
 8650SOL    HW127782  11.915  10.387  13.795
 8650SOL    HW227783  11.923  10.239  13.767
 8651SOL     OW27784   8.622  12.384   0.254
 8651SOL    HW127785   8.593  12.461   0.302
 8651SOL    HW227786   8.562  12.314   0.282
 8652SOL     OW27787   5.593   3.473   0.154
 8652SOL    HW127788   5.659   3.434   0.098
 8652SOL    HW227789   5.512   3.427   0.133
 8653SOL     OW27790   3.033   5.944   4.029
 8653SOL    HW127791   3.109   6.001   4.040
 8653SOL    HW227792   2.963   6.003   4.000
 8654SOL     OW27793   7.015   9.450  14.820
 8654SOL    HW127794   7.007   9.522   0.009
 8654SOL    HW227795   7.051   9.490  14.740
 8655SOL     OW27796   1.812   4.435   5.352
 8655SOL    HW127797   1.724   4.434   5.389
 8655SOL    HW227798   1.867   4.471   5.422
 8656SOL     OW27799   8.350   3.769  11.787
 8656SOL    HW127800   8.265   3.790  11.747
 8656SOL    HW227801   8.395   3.717  11.720
 8657SOL     OW27802   8.171   4.170   0.822
 8657SOL    HW127803   8.116   4.226   0.877
 8657SOL    HW227804   8.124   4.167   0.738
 8658SOL     OW27805   9.755   1.573   9.282
 8658SOL    HW127806   9.780   1.506   9.346
 8658SOL    HW227807   9.784   1.537   9.198
 8659SOL     OW27808   1.600   5.197   4.778
 8659SOL    HW127809   1.672   5.259   4.767
 8659SOL    HW227810   1.553   5.228   4.856
 8660SOL     OW27811   6.667   8.347  11.248
 8660SOL    HW127812   6.642   8.421  11.303
 8660SOL    HW227813   6.718   8.387  11.177
 8661SOL     OW27814   3.689   2.321  13.983
 8661SOL    HW127815   3.622   2.364  13.929
 8661SOL    HW227816   3.761   2.384  13.988
 8662SOL     OW27817   4.711  12.305  11.875
 8662SOL    HW127818   4.751  12.390  11.854
 8662SOL    HW227819   4.756  12.243  11.817
 8663SOL     OW27820  14.642   9.598   0.417
 8663SOL    HW127821  14.575   9.650   0.462
 8663SOL    HW227822  14.665   9.649   0.340
 8664SOL     OW27823   2.459  14.093   7.423
 8664SOL    HW127824   2.519  14.024   7.453
 8664SOL    HW227825   2.498  14.174   7.455
 8665SOL     OW27826  14.442   6.452  11.904
 8665SOL    HW127827  14.488   6.385  11.854
 8665SOL    HW227828  14.486   6.534  11.881
 8666SOL     OW27829  13.949   1.064   0.808
 8666SOL    HW127830  13.956   1.015   0.726
 8666SOL    HW227831  13.855   1.068   0.825
 8667SOL     OW27832   7.484   6.946   2.896
 8667SOL    HW127833   7.389   6.955   2.906
 8667SOL    HW227834   7.495   6.872   2.837
 8668SOL     OW27835   4.891   3.287   1.690
 8668SOL    HW127836   4.973   3.288   1.640
 8668SOL    HW227837   4.888   3.200   1.730
 8669SOL     OW27838   9.821   6.985  10.931
 8669SOL    HW127839   9.778   6.900  10.915
 8669SOL    HW227840   9.852   7.012  10.845
 8670SOL     OW27841   0.797   9.255   7.913
 8670SOL    HW127842   0.702   9.264   7.924
 8670SOL    HW227843   0.812   9.269   7.820
 8671SOL     OW27844   9.910   9.175   2.415
 8671SOL    HW127845   9.814   9.172   2.416
 8671SOL    HW227846   9.931   9.260   2.454
 8672SOL     OW27847   2.748   7.167   1.455
 8672SOL    HW127848   2.703   7.190   1.537
 8672SOL    HW227849   2.736   7.245   1.400
 8673SOL     OW27850   8.555   8.850   6.619
 8673SOL    HW127851   8.566   8.822   6.710
 8673SOL    HW227852   8.621   8.802   6.570
 8674SOL     OW27853  10.633   3.366  11.092
 8674SOL    HW127854  10.658   3.446  11.140
 8674SOL    HW227855  10.715   3.326  11.066
 8675SOL     OW27856   8.308   1.102  10.130
 8675SOL    HW127857   8.356   1.183  10.117
 8675SOL    HW227858   8.222   1.129  10.160
 8676SOL     OW27859   0.993   1.020   4.502
 8676SOL    HW127860   0.979   1.109   4.536
 8676SOL    HW227861   1.017   0.969   4.579
 8677SOL     OW27862  12.107   8.332  12.580
 8677SOL    HW127863  12.162   8.404  12.549
 8677SOL    HW227864  12.024   8.374  12.604
 8678SOL     OW27865   7.420   1.189   3.365
 8678SOL    HW127866   7.456   1.126   3.302
 8678SOL    HW227867   7.433   1.148   3.450
 8679SOL     OW27868   4.429   9.105   2.569
 8679SOL    HW127869   4.487   9.043   2.614
 8679SOL    HW227870   4.341   9.070   2.584
 8680SOL     OW27871  12.511   0.783   3.219
 8680SOL    HW127872  12.438   0.756   3.274
 8680SOL    HW227873  12.548   0.859   3.265
 8681SOL     OW27874   9.616  11.325  11.699
 8681SOL    HW127875   9.522  11.306  11.707
 8681SOL    HW227876   9.620  11.420  11.684
 8682SOL     OW27877  13.673  14.482   1.792
 8682SOL    HW127878  13.694  14.491   1.885
 8682SOL    HW227879  13.579  14.498   1.787
 8683SOL     OW27880   0.341   0.171   0.911
 8683SOL    HW127881   0.356   0.108   0.982
 8683SOL    HW227882   0.321   0.253   0.955
 8684SOL     OW27883   9.500   5.618   9.967
 8684SOL    HW127884   9.557   5.675  10.018
 8684SOL    HW227885   9.446   5.573  10.032
 8685SOL     OW27886   8.575   2.302   1.756
 8685SOL    HW127887   8.608   2.269   1.673
 8685SOL    HW227888   8.635   2.267   1.822
 8686SOL     OW27889   2.066  12.615  14.681
 8686SOL    HW127890   2.149  12.649  14.646
 8686SOL    HW227891   2.018  12.693  14.708
 8687SOL     OW27892   3.309   3.017   9.761
 8687SOL    HW127893   3.218   3.034   9.735
 8687SOL    HW227894   3.331   3.089   9.819
 8688SOL     OW27895   8.189   6.515   9.371
 8688SOL    HW127896   8.228   6.560   9.446
 8688SOL    HW227897   8.257   6.453   9.343
 8689SOL     OW27898   1.934  11.685   2.390
 8689SOL    HW127899   1.904  11.661   2.477
 8689SOL    HW227900   1.857  11.719   2.345
 8690SOL     OW27901   9.598   4.500   4.489
 8690SOL    HW127902   9.540   4.576   4.488
 8690SOL    HW227903   9.539   4.425   4.491
 8691SOL     OW27904  10.880   4.379  13.426
 8691SOL    HW127905  10.829   4.307  13.390
 8691SOL    HW227906  10.823   4.418  13.492
 8692SOL     OW27907  13.800  14.615  11.464
 8692SOL    HW127908  13.800  14.695  11.410
 8692SOL    HW227909  13.729  14.562  11.429
 8693SOL     OW27910  12.372   0.274   6.008
 8693SOL    HW127911  12.419   0.311   6.082
 8693SOL    HW227912  12.300   0.225   6.046
 8694SOL     OW27913   8.598   2.641  12.011
 8694SOL    HW127914   8.677   2.661  11.960
 8694SOL    HW227915   8.568   2.726  12.043
 8695SOL     OW27916   0.481  10.501   3.977
 8695SOL    HW127917   0.435  10.571   3.931
 8695SOL    HW227918   0.453  10.510   4.068
 8696SOL     OW27919   9.575   8.160   6.056
 8696SOL    HW127920   9.556   8.086   5.998
 8696SOL    HW227921   9.495   8.170   6.109
 8697SOL     OW27922   5.279   4.185  10.615
 8697SOL    HW127923   5.336   4.258  10.638
 8697SOL    HW227924   5.316   4.148  10.536
 8698SOL     OW27925   4.388   1.982  12.384
 8698SOL    HW127926   4.372   2.074  12.407
 8698SOL    HW227927   4.397   1.938  12.468
 8699SOL     OW27928  12.287   9.326  10.497
 8699SOL    HW127929  12.250   9.410  10.526
 8699SOL    HW227930  12.231   9.260  10.538
 8700SOL     OW27931   0.099  14.176   4.572
 8700SOL    HW127932   0.010  14.210   4.577
 8700SOL    HW227933   0.108  14.146   4.481
 8701SOL     OW27934   2.744   0.362   9.673
 8701SOL    HW127935   2.704   0.346   9.758
 8701SOL    HW227936   2.767   0.455   9.674
 8702SOL     OW27937   8.780   2.584  14.653
 8702SOL    HW127938   8.824   2.586  14.738
 8702SOL    HW227939   8.746   2.495  14.646
 8703SOL     OW27940   0.230   4.954   6.861
 8703SOL    HW127941   0.201   4.893   6.928
 8703SOL    HW227942   0.215   4.907   6.778
 8704SOL     OW27943   6.815   3.165  12.142
 8704SOL    HW127944   6.891   3.133  12.192
 8704SOL    HW227945   6.823   3.260  12.144
 8705SOL     OW27946   0.579  14.172   3.791
 8705SOL    HW127947   0.596  14.229   3.866
 8705SOL    HW227948   0.592  14.084   3.825
 8706SOL     OW27949   3.744  13.072   2.599
 8706SOL    HW127950   3.698  12.993   2.625
 8706SOL    HW227951   3.696  13.104   2.522
 8707SOL     OW27952  13.684  13.674   7.156
 8707SOL    HW127953  13.714  13.763   7.141
 8707SOL    HW227954  13.763  13.620   7.147
 8708SOL     OW27955   5.345   1.736  10.597
 8708SOL    HW127956   5.383   1.663  10.548
 8708SOL    HW227957   5.261   1.702  10.628
 8709SOL     OW27958   0.808   6.038  10.257
 8709SOL    HW127959   0.779   6.130  10.254
 8709SOL    HW227960   0.730   5.988  10.231
 8710SOL     OW27961  13.125  11.226   7.577
 8710SOL    HW127962  13.190  11.235   7.507
 8710SOL    HW227963  13.147  11.143   7.619
 8711SOL     OW27964  13.514  11.993   7.730
 8711SOL    HW127965  13.538  12.064   7.670
 8711SOL    HW227966  13.597  11.949   7.749
 8712SOL     OW27967   6.534   7.505  10.851
 8712SOL    HW127968   6.458   7.550  10.889
 8712SOL    HW227969   6.547   7.429  10.908
 8713SOL     OW27970   1.514   1.429  11.090
 8713SOL    HW127971   1.453   1.477  11.146
 8713SOL    HW227972   1.553   1.363  11.147
 8714SOL     OW27973   5.819  11.332   0.834
 8714SOL    HW127974   5.852  11.302   0.918
 8714SOL    HW227975   5.759  11.263   0.805
 8715SOL     OW27976   8.358  14.731  14.774
 8715SOL    HW127977   8.302  14.671  14.824
 8715SOL    HW227978   8.424  14.674  14.735
 8716SOL     OW27979   9.130   3.770   5.865
 8716SOL    HW127980   9.084   3.852   5.882
 8716SOL    HW227981   9.222   3.790   5.885
 8717SOL     OW27982  10.008  13.907  10.310
 8717SOL    HW127983   9.914  13.915  10.298
 8717SOL    HW227984  10.024  13.933  10.400
 8718SOL     OW27985   7.610   6.914  12.798
 8718SOL    HW127986   7.517   6.935  12.786
 8718SOL    HW227987   7.614   6.872  12.884
 8719SOL     OW27988   4.310   0.197   8.931
 8719SOL    HW127989   4.286   0.148   8.852
 8719SOL    HW227990   4.405   0.205   8.926
 8720SOL     OW27991   4.095   8.126   3.386
 8720SOL    HW127992   4.174   8.072   3.376
 8720SOL    HW227993   4.124   8.199   3.442
 8721SOL     OW27994  14.589  13.898  13.732
 8721SOL    HW127995  14.644  13.957  13.681
 8721SOL    HW227996  14.521  13.954  13.769
 8722SOL     OW27997  11.189  13.536   2.608
 8722SOL    HW127998  11.131  13.488   2.667
 8722SOL    HW227999  11.198  13.623   2.649
 8723SOL     OW28000  11.326   9.952   3.100
 8723SOL    HW128001  11.378  10.029   3.078
 8723SOL    HW228002  11.244   9.965   3.053
 8724SOL     OW28003  10.011  14.530  14.267
 8724SOL    HW128004  10.012  14.477  14.188
 8724SOL    HW228005  10.094  14.512  14.310
 8725SOL     OW28006   9.358  14.763   2.457
 8725SOL    HW128007   9.396  14.676   2.456
 8725SOL    HW228008   9.291  14.762   2.389
 8726SOL     OW28009  11.345  14.242   8.107
 8726SOL    HW128010  11.287  14.287   8.046
 8726SOL    HW228011  11.348  14.299   8.183
 8727SOL     OW28012  13.432  11.845   4.496
 8727SOL    HW128013  13.499  11.894   4.448
 8727SOL    HW228014  13.471  11.830   4.582
 8728SOL     OW28015   8.067   6.100   1.469
 8728SOL    HW128016   8.008   6.128   1.399
 8728SOL    HW228017   8.039   6.149   1.546
 8729SOL     OW28018  10.085  10.611  13.541
 8729SOL    HW128019  10.004  10.601  13.590
 8729SOL    HW228020  10.073  10.558  13.462
 8730SOL     OW28021   5.546  10.638  12.491
 8730SOL    HW128022   5.606  10.639  12.565
 8730SOL    HW228023   5.602  10.660  12.415
 8731SOL     OW28024  13.830   3.265   0.157
 8731SOL    HW128025  13.910   3.274   0.105
 8731SOL    HW228026  13.760   3.261   0.093
 8732SOL     OW28027  10.350  10.398   7.166
 8732SOL    HW128028  10.411  10.357   7.105
 8732SOL    HW228029  10.406  10.451   7.223
 8733SOL     OW28030   7.422   6.035   2.715
 8733SOL    HW128031   7.446   6.102   2.779
 8733SOL    HW228032   7.444   6.074   2.630
 8734SOL     OW28033   5.417   6.158  11.958
 8734SOL    HW128034   5.372   6.074  11.950
 8734SOL    HW228035   5.392   6.191  12.045
 8735SOL     OW28036   0.968  11.547   3.264
 8735SOL    HW128037   0.893  11.591   3.225
 8735SOL    HW228038   0.993  11.480   3.200
 8736SOL     OW28039   8.550  11.332   1.370
 8736SOL    HW128040   8.627  11.296   1.415
 8736SOL    HW228041   8.476  11.289   1.412
 8737SOL     OW28042  13.941  12.182  11.699
 8737SOL    HW128043  14.024  12.189  11.745
 8737SOL    HW228044  13.952  12.235  11.620
 8738SOL     OW28045  11.638   6.782   0.618
 8738SOL    HW128046  11.696   6.835   0.673
 8738SOL    HW228047  11.689   6.704   0.596
 8739SOL     OW28048   7.073   6.169  11.204
 8739SOL    HW128049   7.015   6.244  11.195
 8739SOL    HW228050   7.159   6.207  11.222
 8740SOL     OW28051   8.626   6.467   5.733
 8740SOL    HW128052   8.614   6.385   5.781
 8740SOL    HW228053   8.596   6.535   5.793
 8741SOL     OW28054   5.616   4.928   9.608
 8741SOL    HW128055   5.582   5.009   9.569
 8741SOL    HW228056   5.623   4.867   9.535
 8742SOL     OW28057   1.739   2.289   8.188
 8742SOL    HW128058   1.799   2.221   8.220
 8742SOL    HW228059   1.663   2.240   8.155
 8743SOL     OW28060   1.101  13.799   7.396
 8743SOL    HW128061   1.153  13.726   7.429
 8743SOL    HW228062   1.141  13.877   7.435
 8744SOL     OW28063  13.328  13.841   0.039
 8744SOL    HW128064  13.288  13.890   0.111
 8744SOL    HW228065  13.325  13.749   0.067
 8745SOL     OW28066   9.561  10.885   9.498
 8745SOL    HW128067   9.574  10.791   9.486
 8745SOL    HW228068   9.581  10.901   9.590
 8746SOL     OW28069  11.671  11.922   9.764
 8746SOL    HW128070  11.602  11.859   9.785
 8746SOL    HW228071  11.633  12.007   9.787
 8747SOL     OW28072  14.361   5.998   5.813
 8747SOL    HW128073  14.273   6.018   5.843
 8747SOL    HW228074  14.415   6.001   5.893
 8748SOL     OW28075  14.645   6.337   1.945
 8748SOL    HW128076  14.734   6.343   1.979
 8748SOL    HW228077  14.591   6.383   2.010
 8749SOL     OW28078   0.311   9.644  13.521
 8749SOL    HW128079   0.389   9.588  13.532
 8749SOL    HW228080   0.244   9.600  13.573
 8750SOL     OW28081   8.019  13.954   1.482
 8750SOL    HW128082   8.068  13.958   1.564
 8750SOL    HW228083   7.933  13.992   1.503
 8751SOL     OW28084   9.036   0.393  10.123
 8751SOL    HW128085   8.982   0.355  10.192
 8751SOL    HW228086   9.046   0.485  10.147
 8752SOL     OW28087  10.173   3.401   5.322
 8752SOL    HW128088  10.128   3.478   5.357
 8752SOL    HW228089  10.266   3.423   5.329
 8753SOL     OW28090  11.834   4.338   7.975
 8753SOL    HW128091  11.783   4.407   8.018
 8753SOL    HW228092  11.778   4.307   7.904
 8754SOL     OW28093   3.854  10.922   6.972
 8754SOL    HW128094   3.798  10.848   6.997
 8754SOL    HW228095   3.904  10.942   7.051
 8755SOL     OW28096   4.633  14.071   3.466
 8755SOL    HW128097   4.540  14.062   3.444
 8755SOL    HW228098   4.639  14.159   3.504
 8756SOL     OW28099   5.995   3.601   4.843
 8756SOL    HW128100   5.929   3.536   4.820
 8756SOL    HW228101   5.971   3.630   4.931
 8757SOL     OW28102   0.742   4.831   9.928
 8757SOL    HW128103   0.793   4.757   9.961
 8757SOL    HW228104   0.676   4.791   9.871
 8758SOL     OW28105   9.832   5.737   1.525
 8758SOL    HW128106   9.794   5.822   1.506
 8758SOL    HW228107   9.876   5.711   1.444
 8759SOL     OW28108  13.780   3.360  14.097
 8759SOL    HW128109  13.771   3.376  14.191
 8759SOL    HW228110  13.863   3.313  14.089
 8760SOL     OW28111   3.819   2.982  14.286
 8760SOL    HW128112   3.895   3.023  14.327
 8760SOL    HW228113   3.805   2.902  14.337
 8761SOL     OW28114   8.978   7.519   7.247
 8761SOL    HW128115   8.976   7.563   7.162
 8761SOL    HW228116   9.060   7.548   7.287
 8762SOL     OW28117   5.455  13.846   3.107
 8762SOL    HW128118   5.369  13.887   3.118
 8762SOL    HW228119   5.444  13.786   3.034
 8763SOL     OW28120  10.789   7.314   5.561
 8763SOL    HW128121  10.835   7.231   5.546
 8763SOL    HW228122  10.696   7.293   5.548
 8764SOL     OW28123  11.232   7.722   1.885
 8764SOL    HW128124  11.249   7.711   1.792
 8764SOL    HW228125  11.219   7.816   1.896
 8765SOL     OW28126   8.552   8.310   4.245
 8765SOL    HW128127   8.581   8.323   4.154
 8765SOL    HW228128   8.459   8.288   4.237
 8766SOL     OW28129   5.642  10.861   2.552
 8766SOL    HW128130   5.633  10.782   2.500
 8766SOL    HW228131   5.556  10.874   2.592
 8767SOL     OW28132   3.026  14.032   6.944
 8767SOL    HW128133   3.061  14.006   6.859
 8767SOL    HW228134   3.076  14.110   6.968
 8768SOL     OW28135  13.802   1.844   8.302
 8768SOL    HW128136  13.712   1.860   8.330
 8768SOL    HW228137  13.818   1.751   8.321
 8769SOL     OW28138   7.836  14.264  11.894
 8769SOL    HW128139   7.904  14.244  11.959
 8769SOL    HW228140   7.846  14.357  11.875
 8770SOL     OW28141  13.030   1.290   6.745
 8770SOL    HW128142  13.021   1.354   6.816
 8770SOL    HW228143  12.941   1.280   6.711
 8771SOL     OW28144   1.863   4.416   8.408
 8771SOL    HW128145   1.772   4.392   8.393
 8771SOL    HW228146   1.862   4.468   8.488
 8772SOL     OW28147  14.246   1.895  14.162
 8772SOL    HW128148  14.272   1.809  14.194
 8772SOL    HW228149  14.314   1.919  14.098
 8773SOL     OW28150   6.175   9.355   7.707
 8773SOL    HW128151   6.136   9.322   7.626
 8773SOL    HW228152   6.248   9.409   7.678
 8774SOL     OW28153   7.862   4.980   1.223
 8774SOL    HW128154   7.792   4.999   1.161
 8774SOL    HW228155   7.856   5.049   1.289
 8775SOL     OW28156   7.129  13.065   4.532
 8775SOL    HW128157   7.217  13.054   4.567
 8775SOL    HW228158   7.071  13.032   4.601
 8776SOL     OW28159   3.272  11.134  14.769
 8776SOL    HW128160   3.289  11.053  14.720
 8776SOL    HW228161   3.246  11.197  14.702
 8777SOL     OW28162  10.564  11.415   0.550
 8777SOL    HW128163  10.515  11.491   0.579
 8777SOL    HW228164  10.587  11.433   0.459
 8778SOL     OW28165   2.708  10.734   4.580
 8778SOL    HW128166   2.719  10.740   4.675
 8778SOL    HW228167   2.634  10.792   4.562
 8779SOL     OW28168   8.150  13.533   2.534
 8779SOL    HW128169   8.147  13.625   2.510
 8779SOL    HW228170   8.182  13.532   2.624
 8780SOL     OW28171   2.612   8.820   8.330
 8780SOL    HW128172   2.622   8.900   8.381
 8780SOL    HW228173   2.636   8.750   8.391
 8781SOL     OW28174   3.149  12.355   8.428
 8781SOL    HW128175   3.171  12.382   8.518
 8781SOL    HW228176   3.105  12.431   8.390
 8782SOL     OW28177  11.811   0.801   9.300
 8782SOL    HW128178  11.745   0.734   9.316
 8782SOL    HW228179  11.778   0.879   9.344
 8783SOL     OW28180   5.404   1.657  13.229
 8783SOL    HW128181   5.399   1.562  13.239
 8783SOL    HW228182   5.327   1.690  13.276
 8784SOL     OW28183   8.610  11.830   9.774
 8784SOL    HW128184   8.664  11.895   9.819
 8784SOL    HW228185   8.564  11.880   9.706
 8785SOL     OW28186  12.113   9.837  12.942
 8785SOL    HW128187  12.188   9.803  12.893
 8785SOL    HW228188  12.080   9.762  12.991
 8786SOL     OW28189   9.392  13.893  10.416
 8786SOL    HW128190   9.378  13.875  10.323
 8786SOL    HW228191   9.472  13.846  10.438
 8787SOL     OW28192   9.027   9.785   4.906
 8787SOL    HW128193   9.033   9.690   4.899
 8787SOL    HW228194   9.085   9.818   4.837
 8788SOL     OW28195   2.167  14.441   1.023
 8788SOL    HW128196   2.160  14.357   1.070
 8788SOL    HW228197   2.200  14.502   1.089
 8789SOL     OW28198  14.020   6.121   9.082
 8789SOL    HW128199  14.012   6.200   9.028
 8789SOL    HW228200  13.930   6.093   9.096
 8790SOL     OW28201   3.330  13.885  10.755
 8790SOL    HW128202   3.401  13.947  10.772
 8790SOL    HW228203   3.358  13.803  10.795
 8791SOL     OW28204   6.224   1.751   5.495
 8791SOL    HW128205   6.231   1.752   5.399
 8791SOL    HW228206   6.314   1.749   5.525
 8792SOL     OW28207   7.886   3.548  12.225
 8792SOL    HW128208   7.919   3.520  12.139
 8792SOL    HW228209   7.906   3.474  12.283
 8793SOL     OW28210  13.482   4.968   1.509
 8793SOL    HW128211  13.399   4.934   1.476
 8793SOL    HW228212  13.513   5.027   1.440
 8794SOL     OW28213   9.215   0.749   3.387
 8794SOL    HW128214   9.259   0.737   3.471
 8794SOL    HW228215   9.216   0.844   3.374
 8795SOL     OW28216  13.487  11.367   0.809
 8795SOL    HW128217  13.428  11.368   0.734
 8795SOL    HW228218  13.560  11.423   0.784
 8796SOL     OW28219   0.515   2.567  11.475
 8796SOL    HW128220   0.594   2.615  11.451
 8796SOL    HW228221   0.454   2.634  11.505
 8797SOL     OW28222   6.507   5.555   3.086
 8797SOL    HW128223   6.449   5.589   3.019
 8797SOL    HW228224   6.593   5.548   3.044
 8798SOL     OW28225   1.556   8.059  13.970
 8798SOL    HW128226   1.587   7.976  13.932
 8798SOL    HW228227   1.626   8.121  13.951
 8799SOL     OW28228  11.610  12.695   4.644
 8799SOL    HW128229  11.643  12.606   4.628
 8799SOL    HW228230  11.533  12.682   4.699
 8800SOL     OW28231   5.593   3.255  11.096
 8800SOL    HW128232   5.664   3.280  11.037
 8800SOL    HW228233   5.585   3.160  11.087
 8801SOL     OW28234  10.896   0.918   4.586
 8801SOL    HW128235  10.914   0.829   4.617
 8801SOL    HW228236  10.976   0.944   4.541
 8802SOL     OW28237   8.867   1.409   7.221
 8802SOL    HW128238   8.853   1.315   7.233
 8802SOL    HW228239   8.942   1.430   7.277
 8803SOL     OW28240   1.767   0.443   9.298
 8803SOL    HW128241   1.762   0.416   9.390
 8803SOL    HW228242   1.822   0.376   9.257
 8804SOL     OW28243  11.360   0.893   3.402
 8804SOL    HW128244  11.388   0.814   3.357
 8804SOL    HW228245  11.428   0.910   3.467
 8805SOL     OW28246   0.336   1.158   5.648
 8805SOL    HW128247   0.313   1.136   5.738
 8805SOL    HW228248   0.299   1.086   5.596
 8806SOL     OW28249   8.297   1.406   4.015
 8806SOL    HW128250   8.373   1.358   3.982
 8806SOL    HW228251   8.287   1.480   3.955
 8807SOL     OW28252   8.382  14.474  11.416
 8807SOL    HW128253   8.357  14.382  11.408
 8807SOL    HW228254   8.476  14.475  11.400
 8808SOL     OW28255   9.795   1.862   6.974
 8808SOL    HW128256   9.766   1.933   7.031
 8808SOL    HW228257   9.891   1.861   6.983
 8809SOL     OW28258   7.175   8.759   2.592
 8809SOL    HW128259   7.225   8.754   2.674
 8809SOL    HW228260   7.136   8.847   2.594
 8810SOL     OW28261   6.088   4.816  13.402
 8810SOL    HW128262   6.176   4.792  13.430
 8810SOL    HW228263   6.102   4.876  13.328
 8811SOL     OW28264  11.384  13.948  12.880
 8811SOL    HW128265  11.446  13.999  12.827
 8811SOL    HW228266  11.378  13.996  12.962
 8812SOL     OW28267   7.161   2.834  11.099
 8812SOL    HW128268   7.110   2.755  11.079
 8812SOL    HW228269   7.098   2.892  11.142
 8813SOL     OW28270   0.625   1.054   1.507
 8813SOL    HW128271   0.673   1.096   1.579
 8813SOL    HW228272   0.694   1.018   1.450
 8814SOL     OW28273   4.354   0.439  14.138
 8814SOL    HW128274   4.412   0.368  14.111
 8814SOL    HW228275   4.366   0.445  14.232
 8815SOL     OW28276   9.590   6.067  12.755
 8815SOL    HW128277   9.667   6.023  12.720
 8815SOL    HW228278   9.520   6.002  12.750
 8816SOL     OW28279  12.060   7.052  13.591
 8816SOL    HW128280  12.077   6.985  13.525
 8816SOL    HW228281  11.965   7.063  13.589
 8817SOL     OW28282  11.445   6.819   7.260
 8817SOL    HW128283  11.534   6.816   7.223
 8817SOL    HW228284  11.388   6.802   7.186
 8818SOL     OW28285   5.112   6.898  13.862
 8818SOL    HW128286   5.182   6.890  13.927
 8818SOL    HW228287   5.150   6.861  13.782
 8819SOL     OW28288   1.428   9.410   9.838
 8819SOL    HW128289   1.336   9.417   9.812
 8819SOL    HW228290   1.425   9.370   9.925
 8820SOL     OW28291   1.857   6.318  10.962
 8820SOL    HW128292   1.774   6.285  10.928
 8820SOL    HW228293   1.875   6.397  10.910
 8821SOL     OW28294  10.647   3.561   6.444
 8821SOL    HW128295  10.667   3.654   6.434
 8821SOL    HW228296  10.563   3.550   6.399
 8822SOL     OW28297   1.580   1.404   8.580
 8822SOL    HW128298   1.581   1.315   8.615
 8822SOL    HW228299   1.582   1.461   8.657
 8823SOL     OW28300   5.178   2.521  13.366
 8823SOL    HW128301   5.139   2.433  13.367
 8823SOL    HW228302   5.142   2.564  13.444
 8824SOL     OW28303  13.259   5.166  10.769
 8824SOL    HW128304  13.169   5.139  10.751
 8824SOL    HW228305  13.311   5.120  10.704
 8825SOL     OW28306  13.743   9.400   2.670
 8825SOL    HW128307  13.713   9.318   2.710
 8825SOL    HW228308  13.826   9.418   2.715
 8826SOL     OW28309   0.475  11.673   0.053
 8826SOL    HW128310   0.553  11.638   0.096
 8826SOL    HW228311   0.478  11.637  14.836
 8827SOL     OW28312   5.187  14.594   8.518
 8827SOL    HW128313   5.275  14.621   8.491
 8827SOL    HW228314   5.138  14.676   8.524
 8828SOL     OW28315   2.895  11.983   3.054
 8828SOL    HW128316   2.954  12.026   3.116
 8828SOL    HW228317   2.935  11.998   2.968
 8829SOL     OW28318   8.128   2.437   4.326
 8829SOL    HW128319   8.100   2.520   4.365
 8829SOL    HW228320   8.097   2.442   4.235
 8830SOL     OW28321   3.323  13.511   3.854
 8830SOL    HW128322   3.357  13.425   3.881
 8830SOL    HW228323   3.340  13.515   3.760
 8831SOL     OW28324  11.827   5.512   6.754
 8831SOL    HW128325  11.886   5.511   6.680
 8831SOL    HW228326  11.808   5.420   6.771
 8832SOL     OW28327   3.033   6.801  14.256
 8832SOL    HW128328   2.948   6.769  14.226
 8832SOL    HW228329   3.088   6.722  14.256
 8833SOL     OW28330   1.472   4.189   5.960
 8833SOL    HW128331   1.560   4.226   5.969
 8833SOL    HW228332   1.469   4.158   5.869
 8834SOL     OW28333  12.651   3.187  11.729
 8834SOL    HW128334  12.637   3.254  11.795
 8834SOL    HW228335  12.565   3.172  11.690
 8835SOL     OW28336   3.301   7.857   4.024
 8835SOL    HW128337   3.328   7.945   3.999
 8835SOL    HW228338   3.351   7.799   3.966
 8836SOL     OW28339  10.754   7.939   6.219
 8836SOL    HW128340  10.699   8.011   6.190
 8836SOL    HW228341  10.762   7.950   6.314
 8837SOL     OW28342  12.187   9.243   1.275
 8837SOL    HW128343  12.195   9.267   1.367
 8837SOL    HW228344  12.094   9.248   1.256
 8838SOL     OW28345  11.646   5.183  10.278
 8838SOL    HW128346  11.615   5.234  10.203
 8838SOL    HW228347  11.567   5.164  10.328
 8839SOL     OW28348   1.652   5.171   5.453
 8839SOL    HW128349   1.578   5.156   5.395
 8839SOL    HW228350   1.723   5.199   5.395
 8840SOL     OW28351   4.527   0.581  12.325
 8840SOL    HW128352   4.479   0.499  12.338
 8840SOL    HW228353   4.537   0.588  12.230
 8841SOL     OW28354  10.964  11.379   1.637
 8841SOL    HW128355  10.926  11.441   1.700
 8841SOL    HW228356  10.947  11.419   1.551
 8842SOL     OW28357   7.870   1.528  13.210
 8842SOL    HW128358   7.918   1.549  13.290
 8842SOL    HW228359   7.800   1.470  13.240
 8843SOL     OW28360   2.019   8.773   9.009
 8843SOL    HW128361   1.926   8.775   9.032
 8843SOL    HW228362   2.064   8.792   9.091
 8844SOL     OW28363   8.125  14.124  13.073
 8844SOL    HW128364   8.135  14.212  13.036
 8844SOL    HW228365   8.031  14.106  13.066
 8845SOL     OW28366   0.205   5.012  11.827
 8845SOL    HW128367   0.168   5.035  11.912
 8845SOL    HW228368   0.248   5.093  11.798
 8846SOL     OW28369   1.948   8.801  12.480
 8846SOL    HW128370   1.938   8.737  12.550
 8846SOL    HW228371   1.910   8.758  12.403
 8847SOL     OW28372   6.066  13.314  11.137
 8847SOL    HW128373   6.060  13.398  11.091
 8847SOL    HW228374   6.159  13.293  11.138
 8848SOL     OW28375   6.776   3.468  13.404
 8848SOL    HW128376   6.773   3.385  13.358
 8848SOL    HW228377   6.722   3.455  13.482
 8849SOL     OW28378   8.018   6.385  11.692
 8849SOL    HW128379   7.930   6.377  11.655
 8849SOL    HW228380   8.055   6.463  11.650
 8850SOL     OW28381   2.230   9.804   7.202
 8850SOL    HW128382   2.259   9.895   7.195
 8850SOL    HW228383   2.253   9.766   7.117
 8851SOL     OW28384  13.765   4.034   1.267
 8851SOL    HW128385  13.837   4.024   1.330
 8851SOL    HW228386  13.747   3.945   1.237
 8852SOL     OW28387   1.295   1.327  11.922
 8852SOL    HW128388   1.308   1.416  11.954
 8852SOL    HW228389   1.205   1.328  11.887
 8853SOL     OW28390   1.390   0.437   8.713
 8853SOL    HW128391   1.409   0.410   8.623
 8853SOL    HW228392   1.425   0.367   8.767
 8854SOL     OW28393  14.505  11.689   8.956
 8854SOL    HW128394  14.422  11.731   8.976
 8854SOL    HW228395  14.482  11.613   8.902
 8855SOL     OW28396   4.547   0.350   8.255
 8855SOL    HW128397   4.475   0.287   8.255
 8855SOL    HW228398   4.617   0.307   8.205
 8856SOL     OW28399   3.733  12.731  12.727
 8856SOL    HW128400   3.742  12.679  12.806
 8856SOL    HW228401   3.792  12.805  12.739
 8857SOL     OW28402   0.186  11.405   0.564
 8857SOL    HW128403   0.244  11.471   0.524
 8857SOL    HW228404   0.231  11.379   0.644
 8858SOL     OW28405   8.337  12.704   2.433
 8858SOL    HW128406   8.310  12.762   2.505
 8858SOL    HW228407   8.303  12.618   2.458
 8859SOL     OW28408  14.299   1.029   6.829
 8859SOL    HW128409  14.301   1.099   6.764
 8859SOL    HW228410  14.391   1.005   6.840
 8860SOL     OW28411  12.187   2.271  14.590
 8860SOL    HW128412  12.140   2.281  14.672
 8860SOL    HW228413  12.273   2.310  14.606
 8861SOL     OW28414  12.878   5.991   1.694
 8861SOL    HW128415  12.847   6.027   1.611
 8861SOL    HW228416  12.798   5.968   1.742
 8862SOL     OW28417   2.355   5.556  14.775
 8862SOL    HW128418   2.309   5.514  14.703
 8862SOL    HW228419   2.447   5.535  14.760
 8863SOL     OW28420   2.996   0.946  11.654
 8863SOL    HW128421   2.969   1.005  11.585
 8863SOL    HW228422   2.945   0.973  11.730
 8864SOL     OW28423  12.259   2.759  13.341
 8864SOL    HW128424  12.191   2.731  13.280
 8864SOL    HW228425  12.251   2.855  13.344
 8865SOL     OW28426  14.237  11.708   5.897
 8865SOL    HW128427  14.192  11.659   5.966
 8865SOL    HW228428  14.292  11.643   5.854
 8866SOL     OW28429   3.120  11.426  12.550
 8866SOL    HW128430   3.196  11.370  12.567
 8866SOL    HW228431   3.158  11.509  12.521
 8867SOL     OW28432   7.698   7.853   5.079
 8867SOL    HW128433   7.650   7.823   5.002
 8867SOL    HW228434   7.631   7.866   5.146
 8868SOL     OW28435   1.690   7.787   0.760
 8868SOL    HW128436   1.779   7.798   0.795
 8868SOL    HW228437   1.702   7.786   0.665
 8869SOL     OW28438   3.529  11.528   3.078
 8869SOL    HW128439   3.589  11.454   3.082
 8869SOL    HW228440   3.509  11.548   3.170
 8870SOL     OW28441  10.903   0.660   3.711
 8870SOL    HW128442  10.909   0.574   3.752
 8870SOL    HW228443  10.991   0.676   3.676
 8871SOL     OW28444   3.694   1.043   5.897
 8871SOL    HW128445   3.600   1.031   5.916
 8871SOL    HW228446   3.697   1.060   5.803
 8872SOL     OW28447   7.658   4.426   8.434
 8872SOL    HW128448   7.667   4.479   8.512
 8872SOL    HW228449   7.670   4.336   8.464
 8873SOL     OW28450   2.042   4.843  12.612
 8873SOL    HW128451   2.084   4.906  12.671
 8873SOL    HW228452   1.982   4.794  12.668
 8874SOL     OW28453   3.524   1.809   5.203
 8874SOL    HW128454   3.445   1.836   5.156
 8874SOL    HW228455   3.546   1.885   5.258
 8875SOL     OW28456   2.683   1.963   3.782
 8875SOL    HW128457   2.684   2.056   3.757
 8875SOL    HW228458   2.593   1.935   3.766
 8876SOL     OW28459   7.504   5.864   8.794
 8876SOL    HW128460   7.540   5.837   8.879
 8876SOL    HW228461   7.551   5.812   8.730
 8877SOL     OW28462  14.527  11.577  13.094
 8877SOL    HW128463  14.445  11.609  13.132
 8877SOL    HW228464  14.595  11.609  13.154
 8878SOL     OW28465  14.149   6.537   7.929
 8878SOL    HW128466  14.162   6.450   7.892
 8878SOL    HW228467  14.194   6.535   8.013
 8879SOL     OW28468   3.121  11.233   8.756
 8879SOL    HW128469   3.187  11.279   8.703
 8879SOL    HW228470   3.120  11.281   8.839
 8880SOL     OW28471   9.063   6.243   0.155
 8880SOL    HW128472   9.044   6.232   0.248
 8880SOL    HW228473   8.980   6.229   0.110
 8881SOL     OW28474   8.167   5.305   7.990
 8881SOL    HW128475   8.262   5.301   7.999
 8881SOL    HW228476   8.134   5.247   8.059
 8882SOL     OW28477   5.577  11.267  12.668
 8882SOL    HW128478   5.551  11.215  12.745
 8882SOL    HW228479   5.498  11.272  12.615
 8883SOL     OW28480   4.275   8.744   1.867
 8883SOL    HW128481   4.186   8.778   1.855
 8883SOL    HW228482   4.262   8.650   1.883
 8884SOL     OW28483   9.348   5.285   8.158
 8884SOL    HW128484   9.442   5.283   8.174
 8884SOL    HW228485   9.310   5.233   8.229
 8885SOL     OW28486   5.801  10.196  11.052
 8885SOL    HW128487   5.881  10.239  11.023
 8885SOL    HW228488   5.825  10.104  11.064
 8886SOL     OW28489  10.137  10.044   1.673
 8886SOL    HW128490  10.178   9.961   1.648
 8886SOL    HW228491  10.043  10.030   1.658
 8887SOL     OW28492   4.563   5.909  13.743
 8887SOL    HW128493   4.621   5.938  13.673
 8887SOL    HW228494   4.544   5.989  13.792
 8888SOL     OW28495   5.916   8.818   6.290
 8888SOL    HW128496   5.995   8.766   6.270
 8888SOL    HW228497   5.921   8.893   6.231
 8889SOL     OW28498  11.056  11.821   7.059
 8889SOL    HW128499  11.064  11.727   7.073
 8889SOL    HW228500  11.080  11.860   7.144
 8890SOL     OW28501   0.877   6.286   9.299
 8890SOL    HW128502   0.889   6.195   9.269
 8890SOL    HW228503   0.907   6.285   9.389
 8891SOL     OW28504   2.514  13.330   9.525
 8891SOL    HW128505   2.525  13.419   9.490
 8891SOL    HW228506   2.509  13.342   9.620
 8892SOL     OW28507   9.558   7.294  13.829
 8892SOL    HW128508   9.530   7.355  13.760
 8892SOL    HW228509   9.554   7.208  13.787
 8893SOL     OW28510  11.969  12.000   6.620
 8893SOL    HW128511  11.913  11.936   6.576
 8893SOL    HW228512  11.942  12.085   6.585
 8894SOL     OW28513  10.759   6.763  12.113
 8894SOL    HW128514  10.816   6.738  12.041
 8894SOL    HW228515  10.694   6.821  12.074
 8895SOL     OW28516   8.237   4.179   4.461
 8895SOL    HW128517   8.163   4.156   4.517
 8895SOL    HW228518   8.208   4.155   4.373
 8896SOL     OW28519   5.667   2.760  10.996
 8896SOL    HW128520   5.725   2.788  10.926
 8896SOL    HW228521   5.636   2.674  10.969
 8897SOL     OW28522  13.705   4.224   2.677
 8897SOL    HW128523  13.652   4.295   2.639
 8897SOL    HW228524  13.792   4.239   2.641
 8898SOL     OW28525   7.965   9.937   9.045
 8898SOL    HW128526   8.008   9.976   9.121
 8898SOL    HW228527   7.953  10.010   8.985
 8899SOL     OW28528   1.259   8.576   5.207
 8899SOL    HW128529   1.346   8.607   5.232
 8899SOL    HW228530   1.260   8.483   5.230
 8900SOL     OW28531  11.928   9.532  14.543
 8900SOL    HW128532  11.873   9.455  14.528
 8900SOL    HW228533  11.990   9.504  14.611
 8901SOL     OW28534   0.021   4.234  10.773
 8901SOL    HW128535   0.080   4.159  10.770
 8901SOL    HW228536  14.849   4.234  10.688
 8902SOL     OW28537   2.171  14.676   9.215
 8902SOL    HW128538   2.167  14.591   9.172
 8902SOL    HW228539   2.083  14.712   9.204
 8903SOL     OW28540   0.362  10.860   9.312
 8903SOL    HW128541   0.366  10.912   9.232
 8903SOL    HW228542   0.453  10.837   9.331
 8904SOL     OW28543   6.181   7.186   7.200
 8904SOL    HW128544   6.151   7.162   7.288
 8904SOL    HW228545   6.269   7.149   7.194
 8905SOL     OW28546   0.490   7.140   2.498
 8905SOL    HW128547   0.566   7.149   2.555
 8905SOL    HW228548   0.480   7.226   2.457
 8906SOL     OW28549   9.899  14.580   9.095
 8906SOL    HW128550   9.984  14.588   9.053
 8906SOL    HW228551   9.847  14.527   9.034
 8907SOL     OW28552   4.434   0.897   4.398
 8907SOL    HW128553   4.431   0.948   4.317
 8907SOL    HW228554   4.376   0.823   4.382
 8908SOL     OW28555   6.587  13.379   2.716
 8908SOL    HW128556   6.671  13.388   2.760
 8908SOL    HW228557   6.525  13.355   2.785
 8909SOL     OW28558   6.920   7.389   4.812
 8909SOL    HW128559   6.844   7.437   4.778
 8909SOL    HW228560   6.890   7.351   4.894
 8910SOL     OW28561   0.611  12.822   6.570
 8910SOL    HW128562   0.691  12.854   6.611
 8910SOL    HW228563   0.542  12.841   6.632
 8911SOL     OW28564   6.881   5.631  11.604
 8911SOL    HW128565   6.797   5.672  11.582
 8911SOL    HW228566   6.928   5.698  11.654
 8912SOL     OW28567   5.018  13.568  10.931
 8912SOL    HW128568   5.078  13.551  10.858
 8912SOL    HW228569   4.951  13.625  10.894
 8913SOL     OW28570  13.608  10.369   4.912
 8913SOL    HW128571  13.524  10.408   4.887
 8913SOL    HW228572  13.584  10.294   4.967
 8914SOL     OW28573  13.333   8.685  11.122
 8914SOL    HW128574  13.424   8.676  11.094
 8914SOL    HW228575  13.335   8.753  11.190
 8915SOL     OW28576   9.122   7.926  14.342
 8915SOL    HW128577   9.132   7.924  14.437
 8915SOL    HW228578   9.193   7.871  14.310
 8916SOL     OW28579   5.301   8.772   6.756
 8916SOL    HW128580   5.327   8.834   6.824
 8916SOL    HW228581   5.318   8.686   6.795
 8917SOL     OW28582  10.635  13.126   9.035
 8917SOL    HW128583  10.596  13.068   9.100
 8917SOL    HW228584  10.691  13.185   9.086
 8918SOL     OW28585  10.778  10.897   2.019
 8918SOL    HW128586  10.770  10.992   2.010
 8918SOL    HW228587  10.870  10.882   2.037
 8919SOL     OW28588   8.563   1.757  13.832
 8919SOL    HW128589   8.541   1.702  13.908
 8919SOL    HW228590   8.485   1.812  13.820
 8920SOL     OW28591   0.941   4.619   4.655
 8920SOL    HW128592   0.998   4.691   4.626
 8920SOL    HW228593   0.996   4.541   4.650
 8921SOL     OW28594   8.302   7.962   3.104
 8921SOL    HW128595   8.382   7.917   3.078
 8921SOL    HW228596   8.322   7.998   3.190
 8922SOL     OW28597   7.602   5.233   9.135
 8922SOL    HW128598   7.624   5.235   9.228
 8922SOL    HW228599   7.543   5.308   9.123
 8923SOL     OW28600   9.211  14.231   9.691
 8923SOL    HW128601   9.205  14.137   9.710
 8923SOL    HW228602   9.281  14.237   9.625
 8924SOL     OW28603   7.634  11.634   6.898
 8924SOL    HW128604   7.676  11.567   6.952
 8924SOL    HW228605   7.702  11.700   6.883
 8925SOL     OW28606   7.480   3.740   2.908
 8925SOL    HW128607   7.415   3.800   2.874
 8925SOL    HW228608   7.533   3.716   2.832
 8926SOL     OW28609   2.915  13.856  11.638
 8926SOL    HW128610   2.910  13.859  11.542
 8926SOL    HW228611   2.825  13.839  11.666
 8927SOL     OW28612  13.936  13.753   4.404
 8927SOL    HW128613  13.940  13.658   4.396
 8927SOL    HW228614  14.027  13.782   4.394
 8928SOL     OW28615   1.162   0.517   0.692
 8928SOL    HW128616   1.142   0.426   0.672
 8928SOL    HW228617   1.213   0.548   0.617
 8929SOL     OW28618  13.934   9.976   3.452
 8929SOL    HW128619  13.853  10.025   3.462
 8929SOL    HW228620  13.989  10.005   3.525
 8930SOL     OW28621   9.357   2.113   8.695
 8930SOL    HW128622   9.298   2.186   8.713
 8930SOL    HW228623   9.305   2.035   8.716
 8931SOL     OW28624   4.716   8.018   2.898
 8931SOL    HW128625   4.811   8.012   2.888
 8931SOL    HW228626   4.692   8.097   2.850
 8932SOL     OW28627   6.187   3.452   2.793
 8932SOL    HW128628   6.128   3.398   2.740
 8932SOL    HW228629   6.153   3.445   2.882
 8933SOL     OW28630  12.934   9.708   8.015
 8933SOL    HW128631  12.915   9.729   8.107
 8933SOL    HW228632  13.012   9.654   8.018
 8934SOL     OW28633   9.394   8.203  12.974
 8934SOL    HW128634   9.392   8.162  13.060
 8934SOL    HW228635   9.435   8.288  12.988
 8935SOL     OW28636   7.226   9.936   8.643
 8935SOL    HW128637   7.299   9.944   8.705
 8935SOL    HW228638   7.258   9.978   8.563
 8936SOL     OW28639  10.636  13.183   7.325
 8936SOL    HW128640  10.628  13.265   7.374
 8936SOL    HW228641  10.727  13.157   7.335
 8937SOL     OW28642  12.479   7.934   8.970
 8937SOL    HW128643  12.405   7.933   8.910
 8937SOL    HW228644  12.489   8.025   8.996
 8938SOL     OW28645  13.603  13.156   7.868
 8938SOL    HW128646  13.667  13.222   7.894
 8938SOL    HW228647  13.533  13.164   7.933
 8939SOL     OW28648   9.992   5.431   4.943
 8939SOL    HW128649   9.942   5.350   4.933
 8939SOL    HW228650  10.076   5.403   4.980
 8940SOL     OW28651   5.548   3.533   7.364
 8940SOL    HW128652   5.471   3.532   7.307
 8940SOL    HW228653   5.622   3.544   7.304
 8941SOL     OW28654   4.876   1.477   0.387
 8941SOL    HW128655   4.868   1.572   0.393
 8941SOL    HW228656   4.859   1.457   0.295
 8942SOL     OW28657   7.918   1.259   9.687
 8942SOL    HW128658   7.834   1.213   9.690
 8942SOL    HW228659   7.981   1.192   9.662
 8943SOL     OW28660   7.620  13.728   8.246
 8943SOL    HW128661   7.647  13.643   8.280
 8943SOL    HW228662   7.545  13.753   8.299
 8944SOL     OW28663   1.241   7.597   8.517
 8944SOL    HW128664   1.249   7.624   8.426
 8944SOL    HW228665   1.238   7.501   8.513
 8945SOL     OW28666   0.260  11.754  13.857
 8945SOL    HW128667   0.345  11.710  13.866
 8945SOL    HW228668   0.222  11.718  13.777
 8946SOL     OW28669   1.573  14.131   1.222
 8946SOL    HW128670   1.497  14.173   1.181
 8946SOL    HW228671   1.621  14.091   1.149
 8947SOL     OW28672  14.680   7.606   0.110
 8947SOL    HW128673  14.643   7.570   0.029
 8947SOL    HW228674  14.744   7.671   0.080
 8948SOL     OW28675   5.761  12.266   2.555
 8948SOL    HW128676   5.837  12.209   2.543
 8948SOL    HW228677   5.689  12.207   2.578
 8949SOL     OW28678   8.491   6.244  13.633
 8949SOL    HW128679   8.557   6.222  13.699
 8949SOL    HW228680   8.472   6.336  13.648
 8950SOL     OW28681   4.095  14.455   0.722
 8950SOL    HW128682   4.076  14.548   0.733
 8950SOL    HW228683   4.115  14.424   0.810
 8951SOL     OW28684   3.094   2.300   6.570
 8951SOL    HW128685   3.131   2.272   6.654
 8951SOL    HW228686   3.020   2.356   6.594
 8952SOL     OW28687   2.007   0.028   9.688
 8952SOL    HW128688   1.933   0.073   9.647
 8952SOL    HW228689   2.027   0.080   9.766
 8953SOL     OW28690  10.856  10.812  12.404
 8953SOL    HW128691  10.927  10.750  12.386
 8953SOL    HW228692  10.864  10.832  12.497
 8954SOL     OW28693  12.323   6.918   4.554
 8954SOL    HW128694  12.271   6.888   4.628
 8954SOL    HW228695  12.282   6.877   4.477
 8955SOL     OW28696  14.133   3.583  13.947
 8955SOL    HW128697  14.054   3.628  13.920
 8955SOL    HW228698  14.122   3.493  13.916
 8956SOL     OW28699   7.364   8.787   2.791
 8956SOL    HW128700   7.405   8.872   2.771
 8956SOL    HW228701   7.400   8.763   2.877
 8957SOL     OW28702   6.473  13.644   1.917
 8957SOL    HW128703   6.401  13.680   1.865
 8957SOL    HW228704   6.539  13.618   1.853
 8958SOL     OW28705  10.307   6.373   3.959
 8958SOL    HW128706  10.387   6.394   4.008
 8958SOL    HW228707  10.287   6.452   3.910
 8959SOL     OW28708  13.050  11.425  10.093
 8959SOL    HW128709  13.086  11.345  10.055
 8959SOL    HW228710  12.961  11.401  10.118
 8960SOL     OW28711   9.196   2.900  13.494
 8960SOL    HW128712   9.205   2.892  13.399
 8960SOL    HW228713   9.192   2.994  13.511
 8961SOL     OW28714  11.842   9.338   9.501
 8961SOL    HW128715  11.860   9.354   9.408
 8961SOL    HW228716  11.751   9.309   9.503
 8962SOL     OW28717   1.461   7.915  11.266
 8962SOL    HW128718   1.555   7.899  11.252
 8962SOL    HW228719   1.417   7.854  11.206
 8963SOL     OW28720   0.788   0.347   4.123
 8963SOL    HW128721   0.789   0.400   4.203
 8963SOL    HW228722   0.864   0.377   4.074
 8964SOL     OW28723   8.865   5.300   8.078
 8964SOL    HW128724   8.809   5.304   8.156
 8964SOL    HW228725   8.939   5.357   8.099
 8965SOL     OW28726   6.828   0.226  11.762
 8965SOL    HW128727   6.774   0.296  11.799
 8965SOL    HW228728   6.891   0.206  11.831
 8966SOL     OW28729  10.067   6.153  12.343
 8966SOL    HW128730  10.037   6.217  12.408
 8966SOL    HW228731  10.109   6.204  12.275
 8967SOL     OW28732   7.734   3.324   8.713
 8967SOL    HW128733   7.691   3.392   8.661
 8967SOL    HW228734   7.817   3.310   8.669
 8968SOL     OW28735   8.274   2.728  11.519
 8968SOL    HW128736   8.228   2.760  11.597
 8968SOL    HW228737   8.326   2.654  11.550
 8969SOL     OW28738  13.352  12.645   0.130
 8969SOL    HW128739  13.301  12.650   0.049
 8969SOL    HW228740  13.400  12.728   0.134
 8970SOL     OW28741  10.425   9.634  11.299
 8970SOL    HW128742  10.369   9.711  11.300
 8970SOL    HW228743  10.375   9.569  11.250
 8971SOL     OW28744  14.508   2.620   8.086
 8971SOL    HW128745  14.477   2.564   8.015
 8971SOL    HW228746  14.550   2.561   8.148
 8972SOL     OW28747  10.537  11.860  13.200
 8972SOL    HW128748  10.513  11.776  13.240
 8972SOL    HW228749  10.612  11.839  13.145
 8973SOL     OW28750   5.993   5.790   5.494
 8973SOL    HW128751   6.042   5.868   5.519
 8973SOL    HW228752   6.043   5.751   5.423
 8974SOL     OW28753  14.205  14.021  14.056
 8974SOL    HW128754  14.247  14.070  14.126
 8974SOL    HW228755  14.118  14.059  14.048
 8975SOL     OW28756  10.164  14.152  13.612
 8975SOL    HW128757  10.138  14.071  13.570
 8975SOL    HW228758  10.110  14.220  13.570
 8976SOL     OW28759   8.870   7.816   0.201
 8976SOL    HW128760   8.927   7.866   0.143
 8976SOL    HW228761   8.805   7.879   0.231
 8977SOL     OW28762   5.234   9.581  11.954
 8977SOL    HW128763   5.174   9.562  11.882
 8977SOL    HW228764   5.289   9.653  11.922
 8978SOL     OW28765  12.579   1.146  12.121
 8978SOL    HW128766  12.535   1.103  12.195
 8978SOL    HW228767  12.596   1.235  12.152
 8979SOL     OW28768  12.009   9.683   8.498
 8979SOL    HW128769  12.041   9.667   8.409
 8979SOL    HW228770  12.088   9.702   8.549
 8980SOL     OW28771  12.560   8.468  11.982
 8980SOL    HW128772  12.471   8.454  12.013
 8980SOL    HW228773  12.606   8.386  12.000
 8981SOL     OW28774   9.169  13.546   6.247
 8981SOL    HW128775   9.159  13.527   6.154
 8981SOL    HW228776   9.085  13.521   6.286
 8982SOL     OW28777  14.804  13.835   0.841
 8982SOL    HW128778   0.005  13.827   0.902
 8982SOL    HW228779  14.763  13.919   0.864
 8983SOL     OW28780   5.789   4.110   8.257
 8983SOL    HW128781   5.847   4.095   8.332
 8983SOL    HW228782   5.800   4.032   8.203
 8984SOL     OW28783   4.502  10.712  14.862
 8984SOL    HW128784   4.449  10.661   0.051
 8984SOL    HW228785   4.588  10.718   0.031
 8985SOL     OW28786   3.089   4.276   2.523
 8985SOL    HW128787   3.026   4.299   2.592
 8985SOL    HW228788   3.045   4.207   2.473
 8986SOL     OW28789   5.232  11.113  11.875
 8986SOL    HW128790   5.194  11.189  11.919
 8986SOL    HW228791   5.163  11.047  11.878
 8987SOL     OW28792   3.905   7.690   0.387
 8987SOL    HW128793   3.906   7.690   0.482
 8987SOL    HW228794   3.826   7.641   0.363
 8988SOL     OW28795   7.964   0.243  11.229
 8988SOL    HW128796   7.995   0.203  11.311
 8988SOL    HW228797   7.971   0.173  11.164
 8989SOL     OW28798  11.186   4.658   8.122
 8989SOL    HW128799  11.176   4.570   8.159
 8989SOL    HW228800  11.280   4.674   8.124
 8990SOL     OW28801  13.871   6.589   8.144
 8990SOL    HW128802  13.859   6.530   8.069
 8990SOL    HW228803  13.789   6.637   8.150
 8991SOL     OW28804  14.310   9.975  11.914
 8991SOL    HW128805  14.236   9.986  11.854
 8991SOL    HW228806  14.271   9.980  12.001
 8992SOL     OW28807   0.201  14.654   2.959
 8992SOL    HW128808   0.272  14.603   2.920
 8992SOL    HW228809   0.146  14.590   3.003
 8993SOL     OW28810   8.768  12.281   5.628
 8993SOL    HW128811   8.699  12.284   5.695
 8993SOL    HW228812   8.723  12.301   5.546
 8994SOL     OW28813   9.865   1.396   2.637
 8994SOL    HW128814   9.937   1.338   2.615
 8994SOL    HW228815   9.831   1.425   2.552
 8995SOL     OW28816  12.223  10.881   3.558
 8995SOL    HW128817  12.316  10.867   3.570
 8995SOL    HW228818  12.204  10.850   3.469
 8996SOL     OW28819  14.599  12.100   2.846
 8996SOL    HW128820  14.669  12.121   2.785
 8996SOL    HW228821  14.643  12.069   2.925
 8997SOL     OW28822   0.943   6.398  13.931
 8997SOL    HW128823   0.930   6.314  13.888
 8997SOL    HW228824   1.014   6.383  13.994
 8998SOL     OW28825   9.279   9.547   3.983
 8998SOL    HW128826   9.212   9.568   4.049
 8998SOL    HW228827   9.362   9.566   4.027
 8999SOL     OW28828   8.274   2.690   3.157
 8999SOL    HW128829   8.327   2.668   3.234
 8999SOL    HW228830   8.327   2.754   3.109
 9000SOL     OW28831   1.929  10.382  10.007
 9000SOL    HW128832   1.886  10.296  10.002
 9000SOL    HW228833   1.916  10.420   9.921
 9001SOL     OW28834  13.366  10.059   1.399
 9001SOL    HW128835  13.421   9.981   1.407
 9001SOL    HW228836  13.282  10.033   1.437
 9002SOL     OW28837   2.488   2.056   9.188
 9002SOL    HW128838   2.511   2.031   9.098
 9002SOL    HW228839   2.570   2.052   9.235
 9003SOL     OW28840   6.954   0.186   1.778
 9003SOL    HW128841   6.982   0.273   1.752
 9003SOL    HW228842   6.929   0.195   1.870
 9004SOL     OW28843   6.785   1.393   7.282
 9004SOL    HW128844   6.754   1.335   7.213
 9004SOL    HW228845   6.733   1.369   7.359
 9005SOL     OW28846   0.668   5.818   6.354
 9005SOL    HW128847   0.692   5.746   6.296
 9005SOL    HW228848   0.653   5.777   6.439
 9006SOL     OW28849   3.182   2.201   1.472
 9006SOL    HW128850   3.227   2.176   1.552
 9006SOL    HW228851   3.142   2.286   1.492
 9007SOL     OW28852   8.407  10.941   9.604
 9007SOL    HW128853   8.488  10.941   9.554
 9007SOL    HW228854   8.426  10.996   9.681
 9008SOL     OW28855   0.950  14.410   7.202
 9008SOL    HW128856   0.916  14.364   7.278
 9008SOL    HW228857   1.012  14.474   7.238
 9009SOL     OW28858  13.418  14.089  12.358
 9009SOL    HW128859  13.394  14.014  12.304
 9009SOL    HW228860  13.357  14.086  12.432
 9010SOL     OW28861  12.198   0.353   7.345
 9010SOL    HW128862  12.127   0.386   7.400
 9010SOL    HW228863  12.180   0.260   7.336
 9011SOL     OW28864  13.246   7.114   1.896
 9011SOL    HW128865  13.296   7.110   1.978
 9011SOL    HW228866  13.278   7.194   1.853
 9012SOL     OW28867  11.469   8.832   1.492
 9012SOL    HW128868  11.388   8.876   1.520
 9012SOL    HW228869  11.533   8.903   1.485
 9013SOL     OW28870   5.719   6.642   4.782
 9013SOL    HW128871   5.690   6.725   4.744
 9013SOL    HW228872   5.717   6.657   4.876
 9014SOL     OW28873  10.208  11.666  11.781
 9014SOL    HW128874  10.252  11.596  11.830
 9014SOL    HW228875  10.123  11.675  11.823
 9015SOL     OW28876  14.293  10.463   6.190
 9015SOL    HW128877  14.207  10.426   6.172
 9015SOL    HW228878  14.310  10.441   6.282
 9016SOL     OW28879   6.790   8.174   2.271
 9016SOL    HW128880   6.767   8.259   2.309
 9016SOL    HW228881   6.724   8.114   2.306
 9017SOL     OW28882  10.701   1.774  11.690
 9017SOL    HW128883  10.721   1.688  11.652
 9017SOL    HW228884  10.786   1.816  11.701
 9018SOL     OW28885   7.341   9.235   7.849
 9018SOL    HW128886   7.395   9.171   7.803
 9018SOL    HW228887   7.398   9.271   7.917
 9019SOL     OW28888   5.208   5.824   4.714
 9019SOL    HW128889   5.201   5.918   4.728
 9019SOL    HW228890   5.118   5.791   4.725
 9020SOL     OW28891  13.489   6.751  13.603
 9020SOL    HW128892  13.400   6.717  13.590
 9020SOL    HW228893  13.546   6.675  13.589
 9021SOL     OW28894   7.581   6.222  10.778
 9021SOL    HW128895   7.599   6.161  10.706
 9021SOL    HW228896   7.668   6.248  10.809
 9022SOL     OW28897   4.177   8.736   3.437
 9022SOL    HW128898   4.219   8.811   3.479
 9022SOL    HW228899   4.103   8.716   3.493
 9023SOL     OW28900   8.285   1.034   9.432
 9023SOL    HW128901   8.375   1.066   9.438
 9023SOL    HW228902   8.294   0.946   9.394
 9024SOL     OW28903   2.284   6.591   3.493
 9024SOL    HW128904   2.365   6.564   3.451
 9024SOL    HW228905   2.237   6.640   3.426
 9025SOL     OW28906   5.879   0.206   1.023
 9025SOL    HW128907   5.934   0.130   1.008
 9025SOL    HW228908   5.798   0.170   1.060
 9026SOL     OW28909   4.814   8.143   6.264
 9026SOL    HW128910   4.824   8.176   6.353
 9026SOL    HW228911   4.851   8.213   6.209
 9027SOL     OW28912   2.479   2.548   4.159
 9027SOL    HW128913   2.384   2.544   4.151
 9027SOL    HW228914   2.497   2.641   4.172
 9028SOL     OW28915  12.054  11.883   2.079
 9028SOL    HW128916  12.092  11.966   2.107
 9028SOL    HW228917  11.961  11.901   2.067
 9029SOL     OW28918   5.552  12.070   2.376
 9029SOL    HW128919   5.554  12.119   2.294
 9029SOL    HW228920   5.554  11.978   2.348
 9030SOL     OW28921   6.246  12.348   8.737
 9030SOL    HW128922   6.314  12.397   8.783
 9030SOL    HW228923   6.180  12.414   8.714
 9031SOL     OW28924   8.110   6.035   2.374
 9031SOL    HW128925   8.122   5.990   2.290
 9031SOL    HW228926   8.138   6.125   2.357
 9032SOL     OW28927   6.061   2.266   6.785
 9032SOL    HW128928   6.087   2.280   6.694
 9032SOL    HW228929   5.991   2.329   6.800
 9033SOL     OW28930   3.455   6.110   0.488
 9033SOL    HW128931   3.403   6.045   0.535
 9033SOL    HW228932   3.456   6.078   0.397
 9034SOL     OW28933   9.901   0.933  14.613
 9034SOL    HW128934   9.849   0.867  14.567
 9034SOL    HW228935   9.864   0.935  14.701
 9035SOL     OW28936   2.261  11.040  12.590
 9035SOL    HW128937   2.179  11.090  12.586
 9035SOL    HW228938   2.325  11.103  12.624
 9036SOL     OW28939  13.482   3.130   9.252
 9036SOL    HW128940  13.495   3.044   9.213
 9036SOL    HW228941  13.400   3.122   9.301
 9037SOL     OW28942  12.274   6.415  11.058
 9037SOL    HW128943  12.365   6.439  11.041
 9037SOL    HW228944  12.273   6.388  11.149
 9038SOL     OW28945   4.184   4.975  11.236
 9038SOL    HW128946   4.242   4.918  11.186
 9038SOL    HW228947   4.242   5.044  11.270
 9039SOL     OW28948  11.052   1.741  13.573
 9039SOL    HW128949  10.987   1.742  13.643
 9039SOL    HW228950  11.030   1.816  13.518
 9040SOL     OW28951  12.067   1.641   3.448
 9040SOL    HW128952  12.082   1.700   3.374
 9040SOL    HW228953  12.126   1.567   3.432
 9041SOL     OW28954  13.757   9.079   5.241
 9041SOL    HW128955  13.843   9.102   5.276
 9041SOL    HW228956  13.743   8.988   5.270
 9042SOL     OW28957  11.991   9.994  14.476
 9042SOL    HW128958  11.994   9.983  14.571
 9042SOL    HW228959  11.900  10.020  14.457
 9043SOL     OW28960   8.303   5.340  12.548
 9043SOL    HW128961   8.379   5.391  12.578
 9043SOL    HW228962   8.248   5.403  12.501
 9044SOL     OW28963   5.793  11.808   1.075
 9044SOL    HW128964   5.841  11.749   1.017
 9044SOL    HW228965   5.779  11.757   1.154
 9045SOL     OW28966   4.104   9.534  14.116
 9045SOL    HW128967   4.120   9.499  14.203
 9045SOL    HW228968   4.168   9.489  14.060
 9046SOL     OW28969  11.484   4.069  10.661
 9046SOL    HW128970  11.566   4.103  10.626
 9046SOL    HW228971  11.493   4.079  10.756
 9047SOL     OW28972   8.612   8.199  12.087
 9047SOL    HW128973   8.667   8.187  12.165
 9047SOL    HW228974   8.534   8.244  12.118
 9048SOL     OW28975   1.932   7.942   6.656
 9048SOL    HW128976   1.963   8.019   6.704
 9048SOL    HW228977   1.962   7.867   6.707
 9049SOL     OW28978   1.157   4.052   1.297
 9049SOL    HW128979   1.206   4.133   1.286
 9049SOL    HW228980   1.070   4.081   1.326
 9050SOL     OW28981   8.509   5.037   1.911
 9050SOL    HW128982   8.533   5.058   2.001
 9050SOL    HW228983   8.539   4.947   1.899
 9051SOL     OW28984  13.287   4.509   3.520
 9051SOL    HW128985  13.379   4.508   3.496
 9051SOL    HW228986  13.246   4.446   3.461
 9052SOL     OW28987   3.138  12.081   9.870
 9052SOL    HW128988   3.105  12.128   9.793
 9052SOL    HW228989   3.161  11.994   9.836
 9053SOL     OW28990   3.934  11.287   3.968
 9053SOL    HW128991   3.900  11.365   4.011
 9053SOL    HW228992   3.867  11.220   3.983
 9054SOL     OW28993   4.175   5.942   3.870
 9054SOL    HW128994   4.128   6.023   3.854
 9054SOL    HW228995   4.120   5.874   3.832
 9055SOL     OW28996  14.273   3.111   9.611
 9055SOL    HW128997  14.194   3.147   9.652
 9055SOL    HW228998  14.305   3.181   9.553
 9056SOL     OW28999   4.550   6.779   7.925
 9056SOL    HW129000   4.601   6.764   7.845
 9056SOL    HW229001   4.605   6.746   7.995
 9057SOL     OW29002   0.361   7.518   0.550
 9057SOL    HW129003   0.304   7.593   0.537
 9057SOL    HW229004   0.329   7.453   0.487
 9058SOL     OW29005   2.439   4.586  13.296
 9058SOL    HW129006   2.470   4.498  13.319
 9058SOL    HW229007   2.508   4.645  13.327
 9059SOL     OW29008  10.657   4.032   9.492
 9059SOL    HW129009  10.613   3.959   9.535
 9059SOL    HW229010  10.595   4.105   9.499
 9060SOL     OW29011   4.222  13.747   2.317
 9060SOL    HW129012   4.308  13.749   2.274
 9060SOL    HW229013   4.160  13.769   2.248
 9061SOL     OW29014  13.400   1.634  11.609
 9061SOL    HW129015  13.440   1.550  11.589
 9061SOL    HW229016  13.307   1.615  11.622
 9062SOL     OW29017   2.199   1.183  12.778
 9062SOL    HW129018   2.137   1.202  12.849
 9062SOL    HW229019   2.282   1.222  12.807
 9063SOL     OW29020   5.694  12.221  14.813
 9063SOL    HW129021   5.619  12.244  14.868
 9063SOL    HW229022   5.766  12.212   0.003
 9064SOL     OW29023   3.350   9.553   2.563
 9064SOL    HW129024   3.261   9.528   2.589
 9064SOL    HW229025   3.386   9.473   2.524
 9065SOL     OW29026  11.417  10.582  13.562
 9065SOL    HW129027  11.377  10.626  13.487
 9065SOL    HW229028  11.394  10.490  13.550
 9066SOL     OW29029   7.473   4.865  10.310
 9066SOL    HW129030   7.395   4.817  10.337
 9066SOL    HW229031   7.476   4.941  10.369
 9067SOL     OW29032  11.068   2.454   9.548
 9067SOL    HW129033  11.088   2.375   9.497
 9067SOL    HW229034  10.981   2.480   9.518
 9068SOL     OW29035  11.834  14.672  12.964
 9068SOL    HW129036  11.747  14.712  12.958
 9068SOL    HW229037  11.849  14.661  13.058
 9069SOL     OW29038  10.474   1.697  14.322
 9069SOL    HW129039  10.476   1.791  14.337
 9069SOL    HW229040  10.557   1.677  14.279
 9070SOL     OW29041   4.055   8.047  14.042
 9070SOL    HW129042   3.964   8.046  14.012
 9070SOL    HW229043   4.051   8.083  14.131
 9071SOL     OW29044   9.674   1.000   6.173
 9071SOL    HW129045   9.599   1.023   6.228
 9071SOL    HW229046   9.700   0.913   6.204
 9072SOL     OW29047   7.324   5.147   6.193
 9072SOL    HW129048   7.401   5.160   6.137
 9072SOL    HW229049   7.335   5.210   6.264
 9073SOL     OW29050   7.965   5.748  10.370
 9073SOL    HW129051   7.904   5.790  10.310
 9073SOL    HW229052   8.016   5.688  10.315
 9074SOL     OW29053  13.796   0.364   3.092
 9074SOL    HW129054  13.797   0.290   3.032
 9074SOL    HW229055  13.781   0.325   3.178
 9075SOL     OW29056   7.747  13.758   1.441
 9075SOL    HW129057   7.756  13.678   1.492
 9075SOL    HW229058   7.740  13.827   1.506
 9076SOL     OW29059   2.963   0.436   1.818
 9076SOL    HW129060   2.918   0.502   1.764
 9076SOL    HW229061   2.940   0.352   1.778
 9077SOL     OW29062   6.768   1.294   1.980
 9077SOL    HW129063   6.703   1.226   1.998
 9077SOL    HW229064   6.748   1.364   2.042
 9078SOL     OW29065   9.996  13.622  12.574
 9078SOL    HW129066  10.037  13.606  12.658
 9078SOL    HW229067  10.044  13.697  12.538
 9079SOL     OW29068  11.195   9.668  12.812
 9079SOL    HW129069  11.194   9.629  12.899
 9079SOL    HW229070  11.193   9.762  12.828
 9080SOL     OW29071  12.030   3.067   4.234
 9080SOL    HW129072  11.947   3.070   4.188
 9080SOL    HW229073  12.092   3.108   4.174
 9081SOL     OW29074  13.208   5.770  11.706
 9081SOL    HW129075  13.157   5.818  11.641
 9081SOL    HW229076  13.165   5.685  11.713
 9082SOL     OW29077  13.584   0.391   6.638
 9082SOL    HW129078  13.515   0.380   6.573
 9082SOL    HW229079  13.584   0.484   6.658
 9083SOL     OW29080   2.058   4.061   6.998
 9083SOL    HW129081   2.008   4.065   6.917
 9083SOL    HW229082   2.075   4.153   7.020
 9084SOL     OW29083   7.310  10.073  11.565
 9084SOL    HW129084   7.325   9.980  11.546
 9084SOL    HW229085   7.269  10.107  11.485
 9085SOL     OW29086   0.766  12.603   6.519
 9085SOL    HW129087   0.702  12.669   6.546
 9085SOL    HW229088   0.845  12.626   6.569
 9086SOL     OW29089   7.824   1.732  14.322
 9086SOL    HW129090   7.806   1.782  14.243
 9086SOL    HW229091   7.753   1.754  14.382
 9087SOL     OW29092  12.812   0.769   7.788
 9087SOL    HW129093  12.840   0.731   7.705
 9087SOL    HW229094  12.774   0.854   7.765
 9088SOL     OW29095   3.688  14.234   5.024
 9088SOL    HW129096   3.635  14.291   5.080
 9088SOL    HW229097   3.777  14.267   5.034
 9089SOL     OW29098   2.369  11.224   2.233
 9089SOL    HW129099   2.363  11.313   2.266
 9089SOL    HW229100   2.293  11.180   2.271
 9090SOL     OW29101  10.079   9.750  13.128
 9090SOL    HW129102  10.057   9.755  13.221
 9090SOL    HW229103  10.172   9.726  13.126
 9091SOL     OW29104   2.815   3.403   6.773
 9091SOL    HW129105   2.764   3.409   6.692
 9091SOL    HW229106   2.781   3.324   6.816
 9092SOL     OW29107   6.098  13.307   4.672
 9092SOL    HW129108   6.143  13.263   4.744
 9092SOL    HW229109   6.133  13.267   4.593
 9093SOL     OW29110  11.147   1.257  12.118
 9093SOL    HW129111  11.063   1.243  12.161
 9093SOL    HW229112  11.127   1.248  12.024
 9094SOL     OW29113   8.465   2.602   1.131
 9094SOL    HW129114   8.511   2.686   1.140
 9094SOL    HW229115   8.524   2.538   1.171
 9095SOL     OW29116  14.397   1.196   0.417
 9095SOL    HW129117  14.364   1.252   0.488
 9095SOL    HW229118  14.484   1.168   0.447
 9096SOL     OW29119   8.417   0.365  12.915
 9096SOL    HW129120   8.369   0.372  12.997
 9096SOL    HW229121   8.428   0.455  12.885
 9097SOL     OW29122   3.068   6.249  14.218
 9097SOL    HW129123   3.144   6.292  14.178
 9097SOL    HW229124   3.021   6.210  14.143
 9098SOL     OW29125   1.833   2.675   6.810
 9098SOL    HW129126   1.837   2.770   6.801
 9098SOL    HW229127   1.885   2.643   6.736
 9099SOL     OW29128   9.759   1.822  14.709
 9099SOL    HW129129   9.841   1.809  14.661
 9099SOL    HW229130   9.742   1.738  14.750
 9100SOL     OW29131   3.738   0.484   3.898
 9100SOL    HW129132   3.831   0.461   3.891
 9100SOL    HW229133   3.692   0.401   3.885
 9101SOL     OW29134  14.351   0.966   3.709
 9101SOL    HW129135  14.446   0.956   3.709
 9101SOL    HW229136  14.335   1.039   3.769
 9102SOL     OW29137  12.865   0.618  13.493
 9102SOL    HW129138  12.808   0.641  13.566
 9102SOL    HW229139  12.805   0.585  13.425
 9103SOL     OW29140   1.589   6.951   0.702
 9103SOL    HW129141   1.682   6.973   0.693
 9103SOL    HW229142   1.544   7.032   0.679
 9104SOL     OW29143   2.013   1.669  10.108
 9104SOL    HW129144   1.965   1.726  10.168
 9104SOL    HW229145   1.949   1.649  10.040
 9105SOL     OW29146   1.429   7.152  13.050
 9105SOL    HW129147   1.356   7.110  13.004
 9105SOL    HW229148   1.501   7.150  12.987
 9106SOL     OW29149   1.617   6.059  13.886
 9106SOL    HW129150   1.705   6.075  13.853
 9106SOL    HW229151   1.559   6.094  13.819
 9107SOL     OW29152  12.238  10.343  13.495
 9107SOL    HW129153  12.163  10.284  13.488
 9107SOL    HW229154  12.204  10.428  13.466
 9108SOL     OW29155   0.523   8.985  11.329
 9108SOL    HW129156   0.550   8.981  11.421
 9108SOL    HW229157   0.439   8.939  11.326
 9109SOL     OW29158   8.573   6.477  13.865
 9109SOL    HW129159   8.514   6.499  13.793
 9109SOL    HW229160   8.551   6.540  13.934
 9110SOL     OW29161   0.057   6.769   4.394
 9110SOL    HW129162   0.132   6.714   4.416
 9110SOL    HW229163   0.024   6.800   4.478
 9111SOL     OW29164   6.708   7.602   0.188
 9111SOL    HW129165   6.765   7.531   0.158
 9111SOL    HW229166   6.712   7.667   0.119
 9112SOL     OW29167  14.651   1.434   5.095
 9112SOL    HW129168  14.633   1.376   5.021
 9112SOL    HW229169  14.669   1.375   5.168
 9113SOL     OW29170   5.361  12.582   0.526
 9113SOL    HW129171   5.373  12.487   0.524
 9113SOL    HW229172   5.280  12.597   0.476
 9114SOL     OW29173  14.102   5.382  10.234
 9114SOL    HW129174  14.158   5.435  10.290
 9114SOL    HW229175  14.153   5.368  10.154
 9115SOL     OW29176   5.740   2.770   2.040
 9115SOL    HW129177   5.655   2.755   1.999
 9115SOL    HW229178   5.723   2.836   2.107
 9116SOL     OW29179  13.709   0.161   1.983
 9116SOL    HW129180  13.742   0.076   2.011
 9116SOL    HW229181  13.727   0.163   1.889
 9117SOL     OW29182  10.792   3.897   3.171
 9117SOL    HW129183  10.776   3.870   3.080
 9117SOL    HW229184  10.836   3.981   3.164
 9118SOL     OW29185   7.899  10.338   3.809
 9118SOL    HW129186   7.982  10.382   3.829
 9118SOL    HW229187   7.852  10.400   3.753
 9119SOL     OW29188   4.496  11.352  11.922
 9119SOL    HW129189   4.534  11.365  12.008
 9119SOL    HW229190   4.448  11.433  11.904
 9120SOL     OW29191  13.236   8.744   5.970
 9120SOL    HW129192  13.224   8.743   6.065
 9120SOL    HW229193  13.148   8.747   5.934
 9121SOL     OW29194   8.713  13.597   7.530
 9121SOL    HW129195   8.805  13.593   7.505
 9121SOL    HW229196   8.688  13.506   7.545
 9122SOL     OW29197   9.461  10.890   1.288
 9122SOL    HW129198   9.412  10.958   1.335
 9122SOL    HW229199   9.398  10.819   1.276
 9123SOL     OW29200   5.188   5.411  12.552
 9123SOL    HW129201   5.235   5.424  12.635
 9123SOL    HW229202   5.217   5.484  12.497
 9124SOL     OW29203  13.976  14.627   1.119
 9124SOL    HW129204  14.048  14.646   1.058
 9124SOL    HW229205  13.904  14.597   1.063
 9125SOL     OW29206  11.339   9.124  13.949
 9125SOL    HW129207  11.354   9.040  13.992
 9125SOL    HW229208  11.286   9.103  13.872
 9126SOL     OW29209  12.965   4.867   2.368
 9126SOL    HW129210  13.016   4.938   2.328
 9126SOL    HW229211  12.991   4.868   2.460
 9127SOL     OW29212  12.395   3.570   0.053
 9127SOL    HW129213  12.388   3.608  14.838
 9127SOL    HW229214  12.378   3.477   0.041
 9128SOL     OW29215  10.344  13.860   4.174
 9128SOL    HW129216  10.341  13.897   4.262
 9128SOL    HW229217  10.292  13.780   4.180
 9129SOL     OW29218   8.478   9.235   7.688
 9129SOL    HW129219   8.427   9.291   7.748
 9129SOL    HW229220   8.416   9.211   7.620
 9130SOL     OW29221   6.738   1.093   2.190
 9130SOL    HW129222   6.783   1.097   2.274
 9130SOL    HW229223   6.645   1.089   2.213
 9131SOL     OW29224  12.253  11.688   8.256
 9131SOL    HW129225  12.180  11.717   8.311
 9131SOL    HW229226  12.228  11.600   8.228
 9132SOL     OW29227   9.619  11.007  12.691
 9132SOL    HW129228   9.615  10.913  12.708
 9132SOL    HW229229   9.646  11.046  12.774
 9133SOL     OW29230   0.570  13.600   9.403
 9133SOL    HW129231   0.497  13.598   9.342
 9133SOL    HW229232   0.529  13.610   9.489
 9134SOL     OW29233   6.284  10.099   7.691
 9134SOL    HW129234   6.305  10.031   7.627
 9134SOL    HW229235   6.328  10.177   7.658
 9135SOL     OW29236  13.279   8.898   7.065
 9135SOL    HW129237  13.192   8.934   7.049
 9135SOL    HW229238  13.297   8.919   7.157
 9136SOL     OW29239   2.656   2.453   1.194
 9136SOL    HW129240   2.566   2.485   1.190
 9136SOL    HW229241   2.710   2.529   1.173
 9137SOL     OW29242  14.310  10.159   1.696
 9137SOL    HW129243  14.337  10.164   1.604
 9137SOL    HW229244  14.325  10.067   1.720
 9138SOL     OW29245   0.112  10.813   5.634
 9138SOL    HW129246   0.038  10.753   5.645
 9138SOL    HW229247   0.146  10.793   5.546
 9139SOL     OW29248  11.644   7.647   2.587
 9139SOL    HW129249  11.688   7.705   2.526
 9139SOL    HW229250  11.667   7.559   2.559
 9140SOL     OW29251   5.490  13.543  13.104
 9140SOL    HW129252   5.465  13.572  13.192
 9140SOL    HW229253   5.407  13.530  13.058
 9141SOL     OW29254  12.088   0.506  14.146
 9141SOL    HW129255  12.135   0.490  14.228
 9141SOL    HW229256  12.000   0.470  14.161
 9142SOL     OW29257   2.140   1.938   3.956
 9142SOL    HW129258   2.044   1.940   3.957
 9142SOL    HW229259   2.164   1.940   4.048
 9143SOL     OW29260   2.268  11.505   1.503
 9143SOL    HW129261   2.311  11.490   1.587
 9143SOL    HW229262   2.325  11.567   1.457
 9144SOL     OW29263   8.045   8.583  11.381
 9144SOL    HW129264   7.958   8.542  11.379
 9144SOL    HW229265   8.096   8.532  11.318
 9145SOL     OW29266   5.537   5.939   8.285
 9145SOL    HW129267   5.508   6.014   8.338
 9145SOL    HW229268   5.624   5.964   8.254
 9146SOL     OW29269   2.813   2.227   9.978
 9146SOL    HW129270   2.845   2.159  10.038
 9146SOL    HW229271   2.723   2.243  10.007
 9147SOL     OW29272   6.925  12.992   8.772
 9147SOL    HW129273   6.958  13.081   8.783
 9147SOL    HW229274   7.003  12.940   8.751
 9148SOL     OW29275   5.305   1.524  13.508
 9148SOL    HW129276   5.354   1.469  13.569
 9148SOL    HW229277   5.213   1.506  13.527
 9149SOL     OW29278   4.024   9.521   0.885
 9149SOL    HW129279   4.112   9.485   0.886
 9149SOL    HW229280   4.036   9.615   0.900
 9150SOL     OW29281  11.026   3.252  14.565
 9150SOL    HW129282  10.988   3.337  14.543
 9150SOL    HW229283  10.957   3.188  14.547
 9151SOL     OW29284  14.741   2.221   4.695
 9151SOL    HW129285  14.777   2.308   4.677
 9151SOL    HW229286  14.677   2.235   4.765
 9152SOL     OW29287   7.770   5.510   3.367
 9152SOL    HW129288   7.749   5.541   3.279
 9152SOL    HW229289   7.728   5.424   3.373
 9153SOL     OW29290   3.758   5.753   5.221
 9153SOL    HW129291   3.765   5.816   5.293
 9153SOL    HW229292   3.828   5.779   5.160
 9154SOL     OW29293   6.971   1.196   4.060
 9154SOL    HW129294   6.893   1.249   4.075
 9154SOL    HW229295   6.940   1.106   4.058
 9155SOL     OW29296   3.435  11.662  11.616
 9155SOL    HW129297   3.423  11.746  11.660
 9155SOL    HW229298   3.441  11.684  11.523
 9156SOL     OW29299  10.900   7.932   1.919
 9156SOL    HW129300  10.880   7.841   1.897
 9156SOL    HW229301  10.820   7.966   1.957
 9157SOL     OW29302  10.236  10.620   7.528
 9157SOL    HW129303  10.209  10.533   7.498
 9157SOL    HW229304  10.294  10.603   7.602
 9158SOL     OW29305   8.579   8.324  11.392
 9158SOL    HW129306   8.525   8.254  11.356
 9158SOL    HW229307   8.649   8.278  11.438
 9159SOL     OW29308   8.057   4.060   6.586
 9159SOL    HW129309   8.039   3.990   6.648
 9159SOL    HW229310   8.103   4.127   6.638
 9160SOL     OW29311   4.112   9.979   7.250
 9160SOL    HW129312   4.089   9.911   7.313
 9160SOL    HW229313   4.200   9.956   7.221
 9161SOL     OW29314  11.532  12.458   1.606
 9161SOL    HW129315  11.568  12.542   1.635
 9161SOL    HW229316  11.437  12.472   1.606
 9162SOL     OW29317   0.043  14.365   8.383
 9162SOL    HW129318  14.842  14.321   8.339
 9162SOL    HW229319   0.120  14.316   8.356
 9163SOL     OW29320   7.783   0.768   8.449
 9163SOL    HW129321   7.744   0.748   8.364
 9163SOL    HW229322   7.865   0.719   8.449
 9164SOL     OW29323   9.876   6.036  11.139
 9164SOL    HW129324   9.848   6.055  11.050
 9164SOL    HW229325   9.967   6.067  11.143
 9165SOL     OW29326   1.086   1.163  11.576
 9165SOL    HW129327   1.079   1.252  11.610
 9165SOL    HW229328   1.002   1.123  11.599
 9166SOL     OW29329   8.983  14.711   4.907
 9166SOL    HW129330   9.023  14.773   4.846
 9166SOL    HW229331   8.889  14.716   4.889
 9167SOL     OW29332   0.784  12.633   8.081
 9167SOL    HW129333   0.751  12.718   8.109
 9167SOL    HW229334   0.842  12.604   8.151
 9168SOL     OW29335  10.201   4.579  11.109
 9168SOL    HW129336  10.119   4.614  11.074
 9168SOL    HW229337  10.174   4.509  11.168
 9169SOL     OW29338   9.625   7.158   7.584
 9169SOL    HW129339   9.716   7.168   7.613
 9169SOL    HW229340   9.631   7.160   7.488
 9170SOL     OW29341  10.667   6.801   3.572
 9170SOL    HW129342  10.721   6.858   3.626
 9170SOL    HW229343  10.637   6.857   3.500
 9171SOL     OW29344  12.356   4.228  11.641
 9171SOL    HW129345  12.382   4.164  11.575
 9171SOL    HW229346  12.407   4.306  11.621
 9172SOL     OW29347   9.471   7.733   4.899
 9172SOL    HW129348   9.469   7.790   4.822
 9172SOL    HW229349   9.410   7.774   4.961
 9173SOL     OW29350   7.224   8.055   4.255
 9173SOL    HW129351   7.171   8.093   4.186
 9173SOL    HW229352   7.232   8.124   4.320
 9174SOL     OW29353   1.501   7.590   8.029
 9174SOL    HW129354   1.420   7.635   8.053
 9174SOL    HW229355   1.501   7.591   7.933
 9175SOL     OW29356   5.393  13.737   5.913
 9175SOL    HW129357   5.440  13.804   5.863
 9175SOL    HW229358   5.323  13.785   5.957
 9176SOL     OW29359   8.511  10.732  10.476
 9176SOL    HW129360   8.450  10.770  10.413
 9176SOL    HW229361   8.467  10.741  10.561
 9177SOL     OW29362   4.751   4.897   1.806
 9177SOL    HW129363   4.728   4.813   1.767
 9177SOL    HW229364   4.724   4.962   1.741
 9178SOL     OW29365   5.152   8.032   1.307
 9178SOL    HW129366   5.208   8.028   1.230
 9178SOL    HW229367   5.096   7.955   1.301
 9179SOL     OW29368  10.562   4.022  10.295
 9179SOL    HW129369  10.650   4.059  10.281
 9179SOL    HW229370  10.504   4.098  10.290
 9180SOL     OW29371  10.467  12.265   8.055
 9180SOL    HW129372  10.425  12.203   8.115
 9180SOL    HW229373  10.396  12.300   8.002
 9181SOL     OW29374  11.386  10.290   3.748
 9181SOL    HW129375  11.297  10.263   3.726
 9181SOL    HW229376  11.389  10.293   3.843
 9182SOL     OW29377   7.195   0.139  12.958
 9182SOL    HW129378   7.279   0.117  12.999
 9182SOL    HW229379   7.158   0.055  12.933
 9183SOL     OW29380   1.378   9.553  13.486
 9183SOL    HW129381   1.407   9.519  13.571
 9183SOL    HW229382   1.290   9.518  13.476
 9184SOL     OW29383   0.567   4.602   9.823
 9184SOL    HW129384   0.586   4.510   9.842
 9184SOL    HW229385   0.472   4.608   9.826
 9185SOL     OW29386   0.653   0.573   6.567
 9185SOL    HW129387   0.711   0.504   6.535
 9185SOL    HW229388   0.592   0.589   6.495
 9186SOL     OW29389   7.116   0.909  14.024
 9186SOL    HW129390   7.047   0.865  14.074
 9186SOL    HW229391   7.197   0.865  14.052
 9187SOL     OW29392   8.553   7.761   2.099
 9187SOL    HW129393   8.498   7.832   2.067
 9187SOL    HW229394   8.521   7.744   2.188
 9188SOL     OW29395  10.167   5.114  13.590
 9188SOL    HW129396  10.085   5.087  13.548
 9188SOL    HW229397  10.141   5.182  13.652
 9189SOL     OW29398   2.566  12.203   5.381
 9189SOL    HW129399   2.655  12.208   5.416
 9189SOL    HW229400   2.567  12.262   5.306
 9190SOL     OW29401   2.443  11.350   1.232
 9190SOL    HW129402   2.493  11.379   1.156
 9190SOL    HW229403   2.469  11.411   1.302
 9191SOL     OW29404  10.600   7.710  11.772
 9191SOL    HW129405  10.581   7.726  11.679
 9191SOL    HW229406  10.685   7.751  11.787
 9192SOL     OW29407   7.803  13.487   3.716
 9192SOL    HW129408   7.768  13.555   3.773
 9192SOL    HW229409   7.725  13.449   3.674
 9193SOL     OW29410  14.593   2.193   6.900
 9193SOL    HW129411  14.539   2.174   6.823
 9193SOL    HW229412  14.669   2.240   6.865
 9194SOL     OW29413   1.255   2.923   7.252
 9194SOL    HW129414   1.211   2.884   7.328
 9194SOL    HW229415   1.257   3.017   7.272
 9195SOL     OW29416  14.268  13.765  14.645
 9195SOL    HW129417  14.282  13.672  14.661
 9195SOL    HW229418  14.337  13.808  14.696
 9196SOL     OW29419  12.769  11.648   0.786
 9196SOL    HW129420  12.698  11.707   0.811
 9196SOL    HW229421  12.725  11.564   0.768
 9197SOL     OW29422   1.172  14.201   3.228
 9197SOL    HW129423   1.173  14.111   3.262
 9197SOL    HW229424   1.154  14.191   3.135
 9198SOL     OW29425   3.060   8.781   0.790
 9198SOL    HW129426   3.009   8.730   0.853
 9198SOL    HW229427   3.065   8.869   0.828
 9199SOL     OW29428  11.499   5.490   5.036
 9199SOL    HW129429  11.575   5.535   4.999
 9199SOL    HW229430  11.497   5.518   5.128
 9200SOL     OW29431  12.856  11.736   9.545
 9200SOL    HW129432  12.868  11.692   9.629
 9200SOL    HW229433  12.869  11.829   9.565
 9201SOL     OW29434  13.045  10.144   5.081
 9201SOL    HW129435  12.956  10.156   5.047
 9201SOL    HW229436  13.102  10.169   5.008
 9202SOL     OW29437  13.826   4.770   8.669
 9202SOL    HW129438  13.826   4.864   8.690
 9202SOL    HW229439  13.917   4.743   8.680
 9203SOL     OW29440   8.974   7.118   0.753
 9203SOL    HW129441   8.992   7.070   0.833
 9203SOL    HW229442   9.013   7.065   0.684
 9204SOL     OW29443   0.133   6.517  10.801
 9204SOL    HW129444   0.223   6.489  10.815
 9204SOL    HW229445   0.109   6.478  10.717
 9205SOL     OW29446   4.969   1.064  11.828
 9205SOL    HW129447   5.042   1.039  11.884
 9205SOL    HW229448   4.921   1.130  11.877
 9206SOL     OW29449   0.718   1.174  10.884
 9206SOL    HW129450   0.774   1.106  10.847
 9206SOL    HW229451   0.731   1.249  10.826
 9207SOL     OW29452   8.101  11.266  10.864
 9207SOL    HW129453   8.183  11.270  10.913
 9207SOL    HW229454   8.110  11.190  10.807
 9208SOL     OW29455  10.594   9.067   4.221
 9208SOL    HW129456  10.516   9.122   4.222
 9208SOL    HW229457  10.560   8.977   4.227
 9209SOL     OW29458   3.474   2.781  14.396
 9209SOL    HW129459   3.457   2.746  14.484
 9209SOL    HW229460   3.540   2.849  14.410
 9210SOL     OW29461   2.973  10.677  11.701
 9210SOL    HW129462   2.891  10.646  11.739
 9210SOL    HW229463   3.016  10.598  11.669
 9211SOL     OW29464   6.398  12.910   4.151
 9211SOL    HW129465   6.471  12.861   4.190
 9211SOL    HW229466   6.414  12.906   4.057
 9212SOL     OW29467   7.280   9.090   9.389
 9212SOL    HW129468   7.369   9.104   9.421
 9212SOL    HW229469   7.259   9.171   9.343
 9213SOL     OW29470  14.328  14.213   1.028
 9213SOL    HW129471  14.310  14.245   0.940
 9213SOL    HW229472  14.251  14.162   1.052
 9214SOL     OW29473  13.635   1.791   6.934
 9214SOL    HW129474  13.548   1.817   6.963
 9214SOL    HW229475  13.645   1.701   6.964
 9215SOL     OW29476   6.403   4.575   9.621
 9215SOL    HW129477   6.380   4.503   9.680
 9215SOL    HW229478   6.388   4.654   9.673
 9216SOL     OW29479  10.783   2.514   2.125
 9216SOL    HW129480  10.777   2.447   2.194
 9216SOL    HW229481  10.868   2.500   2.085
 9217SOL     OW29482   8.201   6.804  13.119
 9217SOL    HW129483   8.276   6.789  13.063
 9217SOL    HW229484   8.168   6.890  13.094
 9218SOL     OW29485   9.518   5.510   9.279
 9218SOL    HW129486   9.582   5.484   9.346
 9218SOL    HW229487   9.571   5.524   9.201
 9219SOL     OW29488  11.590  10.607  12.489
 9219SOL    HW129489  11.532  10.564  12.427
 9219SOL    HW229490  11.562  10.575  12.575
 9220SOL     OW29491   1.620   6.702   7.327
 9220SOL    HW129492   1.561   6.715   7.253
 9220SOL    HW229493   1.637   6.608   7.330
 9221SOL     OW29494   6.478   5.000  11.801
 9221SOL    HW129495   6.568   5.006  11.832
 9221SOL    HW229496   6.449   5.091  11.795
 9222SOL     OW29497  10.184   3.153  14.032
 9222SOL    HW129498  10.184   3.086  13.963
 9222SOL    HW229499  10.092   3.178  14.040
 9223SOL     OW29500   2.935   4.462  13.811
 9223SOL    HW129501   2.882   4.535  13.843
 9223SOL    HW229502   3.025   4.493  13.818
 9224SOL     OW29503  14.250  11.494   6.161
 9224SOL    HW129504  14.241  11.524   6.252
 9224SOL    HW229505  14.190  11.420   6.153
 9225SOL     OW29506   4.231   5.248  10.334
 9225SOL    HW129507   4.317   5.290  10.331
 9225SOL    HW229508   4.250   5.156  10.352
 9226SOL     OW29509   5.047   3.740   9.807
 9226SOL    HW129510   5.012   3.694   9.730
 9226SOL    HW229511   5.123   3.788   9.773
 9227SOL     OW29512   2.246   3.795   8.021
 9227SOL    HW129513   2.175   3.848   7.982
 9227SOL    HW229514   2.211   3.766   8.105
 9228SOL     OW29515   3.573   5.468  13.375
 9228SOL    HW129516   3.582   5.376  13.349
 9228SOL    HW229517   3.663   5.496  13.395
 9229SOL     OW29518   5.554  12.977   5.113
 9229SOL    HW129519   5.471  13.023   5.124
 9229SOL    HW229520   5.542  12.925   5.033
 9230SOL     OW29521   1.876   3.224   3.262
 9230SOL    HW129522   1.845   3.267   3.182
 9230SOL    HW229523   1.880   3.293   3.327
 9231SOL     OW29524   0.793  10.987   9.322
 9231SOL    HW129525   0.817  11.034   9.402
 9231SOL    HW229526   0.760  11.054   9.263
 9232SOL     OW29527  11.521   8.031  10.025
 9232SOL    HW129528  11.551   7.970   9.957
 9232SOL    HW229529  11.463   7.979  10.080
 9233SOL     OW29530  14.597  13.147   2.576
 9233SOL    HW129531  14.527  13.170   2.514
 9233SOL    HW229532  14.661  13.218   2.567
 9234SOL     OW29533   1.750   6.103  13.510
 9234SOL    HW129534   1.666   6.134  13.545
 9234SOL    HW229535   1.728   6.019  13.469
 9235SOL     OW29536  13.656  13.749   0.777
 9235SOL    HW129537  13.645  13.844   0.778
 9235SOL    HW229538  13.740  13.735   0.733
 9236SOL     OW29539   1.632  10.296   6.574
 9236SOL    HW129540   1.609  10.281   6.665
 9236SOL    HW229541   1.552  10.331   6.535
 9237SOL     OW29542   6.226   1.198   9.185
 9237SOL    HW129543   6.141   1.212   9.141
 9237SOL    HW229544   6.213   1.119   9.238
 9238SOL     OW29545   8.467   2.703   2.433
 9238SOL    HW129546   8.454   2.609   2.446
 9238SOL    HW229547   8.439   2.743   2.515
 9239SOL     OW29548  11.148   0.165   8.425
 9239SOL    HW129549  11.086   0.194   8.491
 9239SOL    HW229550  11.228   0.215   8.442
 9240SOL     OW29551   8.331  14.809   7.879
 9240SOL    HW129552   8.329  14.815   7.783
 9240SOL    HW229553   8.278   0.010   7.909
 9241SOL     OW29554  10.714   8.424   9.278
 9241SOL    HW129555  10.765   8.504   9.261
 9241SOL    HW229556  10.743   8.362   9.212
 9242SOL     OW29557   4.542  11.650  12.926
 9242SOL    HW129558   4.559  11.712  12.996
 9242SOL    HW229559   4.456  11.614  12.946
 9243SOL     OW29560   3.052   0.900   2.049
 9243SOL    HW129561   2.961   0.884   2.024
 9243SOL    HW229562   3.048   0.929   2.140
 9244SOL     OW29563  11.260   9.070   7.750
 9244SOL    HW129564  11.290   9.027   7.671
 9244SOL    HW229565  11.290   9.014   7.821
 9245SOL     OW29566   6.632  10.210  13.714
 9245SOL    HW129567   6.631  10.138  13.776
 9245SOL    HW229568   6.717  10.202  13.669
 9246SOL     OW29569   5.364   7.032   9.157
 9246SOL    HW129570   5.394   7.105   9.103
 9246SOL    HW229571   5.315   6.976   9.096
 9247SOL     OW29572   1.854   0.842   4.894
 9247SOL    HW129573   1.767   0.854   4.931
 9247SOL    HW229574   1.863   0.914   4.831
 9248SOL     OW29575  13.378   9.581   8.622
 9248SOL    HW129576  13.421   9.613   8.702
 9248SOL    HW229577  13.427   9.621   8.551
 9249SOL     OW29578   1.462  11.592   5.328
 9249SOL    HW129579   1.490  11.632   5.410
 9249SOL    HW229580   1.460  11.664   5.265
 9250SOL     OW29581   6.008   5.564  14.319
 9250SOL    HW129582   5.956   5.571  14.239
 9250SOL    HW229583   6.025   5.471  14.329
 9251SOL     OW29584   7.836   0.345   1.967
 9251SOL    HW129585   7.854   0.359   1.874
 9251SOL    HW229586   7.876   0.261   1.988
 9252SOL     OW29587   4.335  10.614   5.849
 9252SOL    HW129588   4.400  10.552   5.816
 9252SOL    HW229589   4.341  10.607   5.944
 9253SOL     OW29590  10.008   4.658   7.417
 9253SOL    HW129591   9.964   4.592   7.364
 9253SOL    HW229592   9.939   4.698   7.468
 9254SOL     OW29593  13.706  13.940   8.219
 9254SOL    HW129594  13.714  13.983   8.134
 9254SOL    HW229595  13.718  14.010   8.282
 9255SOL     OW29596   6.852   1.773   6.328
 9255SOL    HW129597   6.946   1.780   6.342
 9255SOL    HW229598   6.813   1.816   6.404
 9256SOL     OW29599   8.655   4.000   8.018
 9256SOL    HW129600   8.679   4.092   8.003
 9256SOL    HW229601   8.594   4.003   8.092
 9257SOL     OW29602  12.954   8.237   0.961
 9257SOL    HW129603  12.916   8.191   1.035
 9257SOL    HW229604  12.973   8.168   0.897
 9258SOL     OW29605   9.883   3.124  10.160
 9258SOL    HW129606   9.860   3.038  10.194
 9258SOL    HW229607   9.826   3.136  10.084
 9259SOL     OW29608   0.231  10.863  14.330
 9259SOL    HW129609   0.174  10.940  14.330
 9259SOL    HW229610   0.173  10.791  14.353
 9260SOL     OW29611   6.048   7.779   4.093
 9260SOL    HW129612   5.996   7.754   4.170
 9260SOL    HW229613   6.041   7.874   4.090
 9261SOL     OW29614   3.443   6.436   4.028
 9261SOL    HW129615   3.431   6.518   4.076
 9261SOL    HW229616   3.524   6.448   3.979
 9262SOL     OW29617   0.664   3.052   3.865
 9262SOL    HW129618   0.592   2.993   3.889
 9262SOL    HW229619   0.698   3.016   3.784
 9263SOL     OW29620  10.024   4.796   7.702
 9263SOL    HW129621   9.938   4.785   7.744
 9263SOL    HW229622  10.083   4.742   7.755
 9264SOL     OW29623  14.607   9.671   6.256
 9264SOL    HW129624  14.559   9.636   6.181
 9264SOL    HW229625  14.697   9.641   6.242
 9265SOL     OW29626  13.040  12.300  14.704
 9265SOL    HW129627  12.946  12.298  14.690
 9265SOL    HW229628  13.078  12.310  14.616
 9266SOL     OW29629  12.968  14.270   5.548
 9266SOL    HW129630  13.056  14.306   5.550
 9266SOL    HW229631  12.959  14.223   5.631
 9267SOL     OW29632   5.317  13.346   1.730
 9267SOL    HW129633   5.365  13.380   1.655
 9267SOL    HW229634   5.225  13.366   1.711
 9268SOL     OW29635  13.100   2.210   3.753
 9268SOL    HW129636  13.136   2.133   3.797
 9268SOL    HW229637  13.007   2.209   3.778
 9269SOL     OW29638  12.178   6.579   8.390
 9269SOL    HW129639  12.161   6.584   8.484
 9269SOL    HW229640  12.247   6.643   8.374
 9270SOL     OW29641   4.732  10.965   0.622
 9270SOL    HW129642   4.760  10.980   0.531
 9270SOL    HW229643   4.645  11.004   0.626
 9271SOL     OW29644   1.246   8.762  10.104
 9271SOL    HW129645   1.247   8.850  10.064
 9271SOL    HW229646   1.337   8.745  10.127
 9272SOL     OW29647  13.802   7.201  13.819
 9272SOL    HW129648  13.800   7.206  13.723
 9272SOL    HW229649  13.777   7.289  13.848
 9273SOL     OW29650   8.836   4.668   8.298
 9273SOL    HW129651   8.834   4.724   8.375
 9273SOL    HW229652   8.759   4.612   8.307
 9274SOL     OW29653  12.794  11.494   4.280
 9274SOL    HW129654  12.885  11.465   4.274
 9274SOL    HW229655  12.781  11.513   4.373
 9275SOL     OW29656   2.311   6.843   7.574
 9275SOL    HW129657   2.298   6.799   7.490
 9275SOL    HW229658   2.380   6.793   7.618
 9276SOL     OW29659  13.605   6.153   7.206
 9276SOL    HW129660  13.650   6.194   7.133
 9276SOL    HW229661  13.631   6.203   7.283
 9277SOL     OW29662   4.461   4.065   2.092
 9277SOL    HW129663   4.461   4.050   1.998
 9277SOL    HW229664   4.369   4.059   2.117
 9278SOL     OW29665   9.951   7.204   2.238
 9278SOL    HW129666   9.880   7.181   2.178
 9278SOL    HW229667  10.030   7.206   2.183
 9279SOL     OW29668   3.399   6.806   7.160
 9279SOL    HW129669   3.308   6.794   7.187
 9279SOL    HW229670   3.443   6.726   7.188
 9280SOL     OW29671   1.418   2.478  10.024
 9280SOL    HW129672   1.340   2.529  10.047
 9280SOL    HW229673   1.419   2.480   9.928
 9281SOL     OW29674   1.361   6.354   0.761
 9281SOL    HW129675   1.271   6.354   0.730
 9281SOL    HW229676   1.409   6.302   0.697
 9282SOL     OW29677   0.147   5.445   4.278
 9282SOL    HW129678   0.216   5.490   4.326
 9282SOL    HW229679   0.117   5.377   4.338
 9283SOL     OW29680  14.195   6.708  12.733
 9283SOL    HW129681  14.155   6.765  12.798
 9283SOL    HW229682  14.189   6.620  12.769
 9284SOL     OW29683  14.048   4.035  11.718
 9284SOL    HW129684  14.006   4.079  11.792
 9284SOL    HW229685  13.988   4.049  11.645
 9285SOL     OW29686   7.370   9.881  10.211
 9285SOL    HW129687   7.386   9.937  10.135
 9285SOL    HW229688   7.437   9.813  10.205
 9286SOL     OW29689  12.680   4.302  11.651
 9286SOL    HW129690  12.661   4.280  11.742
 9286SOL    HW229691  12.696   4.396  11.652
 9287SOL     OW29692   3.104   3.872  14.555
 9287SOL    HW129693   3.046   3.948  14.551
 9287SOL    HW229694   3.191   3.909  14.571
 9288SOL     OW29695  11.525   2.753  12.457
 9288SOL    HW129696  11.550   2.733  12.547
 9288SOL    HW229697  11.446   2.701  12.442
 9289SOL     OW29698   7.438   5.458  10.434
 9289SOL    HW129699   7.432   5.427  10.343
 9289SOL    HW229700   7.405   5.385  10.487
 9290SOL     OW29701  12.305   9.629   2.676
 9290SOL    HW129702  12.210   9.621   2.684
 9290SOL    HW229703  12.328   9.699   2.737
 9291SOL     OW29704  11.557   2.282  12.641
 9291SOL    HW129705  11.521   2.296  12.729
 9291SOL    HW229706  11.482   2.292  12.582
 9292SOL     OW29707  12.642  10.461   6.575
 9292SOL    HW129708  12.660  10.421   6.659
 9292SOL    HW229709  12.551  10.437   6.556
 9293SOL     OW29710   0.454  14.410   4.018
 9293SOL    HW129711   0.399  14.365   3.954
 9293SOL    HW229712   0.441  14.503   4.000
 9294SOL     OW29713   5.983   1.607  11.361
 9294SOL    HW129714   5.960   1.575  11.274
 9294SOL    HW229715   5.945   1.695  11.366
 9295SOL     OW29716  10.506   4.229   8.670
 9295SOL    HW129717  10.583   4.217   8.614
 9295SOL    HW229718  10.538   4.208   8.758
 9296SOL     OW29719   2.369   5.655   8.313
 9296SOL    HW129720   2.451   5.609   8.295
 9296SOL    HW229721   2.302   5.587   8.314
 9297SOL     OW29722  11.185   7.509  13.314
 9297SOL    HW129723  11.153   7.450  13.245
 9297SOL    HW229724  11.106   7.532  13.363
 9298SOL     OW29725   7.720  11.071  12.276
 9298SOL    HW129726   7.653  11.133  12.247
 9298SOL    HW229727   7.719  11.002  12.210
 9299SOL     OW29728   1.270   4.396  11.016
 9299SOL    HW129729   1.304   4.351  10.939
 9299SOL    HW229730   1.265   4.488  10.991
 9300SOL     OW29731  12.955   5.512   5.723
 9300SOL    HW129732  12.913   5.468   5.649
 9300SOL    HW229733  12.928   5.461   5.799
 9301SOL     OW29734   6.681  14.104   6.537
 9301SOL    HW129735   6.616  14.172   6.520
 9301SOL    HW229736   6.761  14.137   6.496
 9302SOL     OW29737   6.096   6.693  10.705
 9302SOL    HW129738   6.065   6.604  10.686
 9302SOL    HW229739   6.019   6.748  10.691
 9303SOL     OW29740   1.481   3.589   5.610
 9303SOL    HW129741   1.394   3.625   5.594
 9303SOL    HW229742   1.524   3.594   5.524
 9304SOL     OW29743   8.092   4.470   7.816
 9304SOL    HW129744   8.106   4.564   7.827
 9304SOL    HW229745   8.071   4.438   7.904
 9305SOL     OW29746  10.472   6.127   5.557
 9305SOL    HW129747  10.426   6.207   5.582
 9305SOL    HW229748  10.411   6.082   5.498
 9306SOL     OW29749   9.567   5.446  12.155
 9306SOL    HW129750   9.636   5.506  12.127
 9306SOL    HW229751   9.575   5.371  12.096
 9307SOL     OW29752   8.297   4.127   6.425
 9307SOL    HW129753   8.254   4.147   6.341
 9307SOL    HW229754   8.226   4.097   6.481
 9308SOL     OW29755   3.498  13.768  12.071
 9308SOL    HW129756   3.502  13.819  12.152
 9308SOL    HW229757   3.573  13.709  12.075
 9309SOL     OW29758  10.709   1.905  11.200
 9309SOL    HW129759  10.700   1.933  11.109
 9309SOL    HW229760  10.633   1.848  11.215
 9310SOL     OW29761   4.835   3.732   8.070
 9310SOL    HW129762   4.745   3.757   8.091
 9310SOL    HW229763   4.868   3.693   8.151
 9311SOL     OW29764   3.203   9.461   7.574
 9311SOL    HW129765   3.197   9.557   7.578
 9311SOL    HW229766   3.297   9.443   7.576
 9312SOL     OW29767   2.415  10.685  11.999
 9312SOL    HW129768   2.504  10.699  11.967
 9312SOL    HW229769   2.358  10.707  11.925
 9313SOL     OW29770  14.012   6.580   6.036
 9313SOL    HW129771  13.934   6.633   6.021
 9313SOL    HW229772  13.980   6.491   6.048
 9314SOL     OW29773  11.934   7.966   8.932
 9314SOL    HW129774  11.848   7.977   8.892
 9314SOL    HW229775  11.988   7.926   8.864
 9315SOL     OW29776   2.307  13.946  14.784
 9315SOL    HW129777   2.392  13.976  14.750
 9315SOL    HW229778   2.327  13.865  14.831
 9316SOL     OW29779  12.555   2.416   5.871
 9316SOL    HW129780  12.500   2.390   5.945
 9316SOL    HW229781  12.564   2.511   5.879
 9317SOL     OW29782   3.455   9.897   9.882
 9317SOL    HW129783   3.394   9.952   9.833
 9317SOL    HW229784   3.490   9.837   9.817
 9318SOL     OW29785   8.975   9.766  12.696
 9318SOL    HW129786   8.958   9.847  12.649
 9318SOL    HW229787   9.008   9.705  12.630
 9319SOL     OW29788  13.364  14.820   3.635
 9319SOL    HW129789  13.402  14.748   3.686
 9319SOL    HW229790  13.336  14.779   3.553
 9320SOL     OW29791   7.941  11.781  11.350
 9320SOL    HW129792   7.951  11.858  11.294
 9320SOL    HW229793   8.016  11.726  11.328
 9321SOL     OW29794   6.675  13.538   7.616
 9321SOL    HW129795   6.650  13.450   7.588
 9321SOL    HW229796   6.675  13.535   7.711
 9322SOL     OW29797  10.344  10.430   2.484
 9322SOL    HW129798  10.373  10.498   2.423
 9322SOL    HW229799  10.389  10.351   2.454
 9323SOL     OW29800  10.482  12.819  12.590
 9323SOL    HW129801  10.505  12.811  12.498
 9323SOL    HW229802  10.387  12.830  12.590
 9324SOL     OW29803  14.090   8.548   1.431
 9324SOL    HW129804  14.125   8.514   1.350
 9324SOL    HW229805  14.159   8.605   1.465
 9325SOL     OW29806   2.406  11.990  14.124
 9325SOL    HW129807   2.400  12.019  14.033
 9325SOL    HW229808   2.472  12.046  14.163
 9326SOL     OW29809   6.946   5.921   6.620
 9326SOL    HW129810   7.021   5.939   6.676
 9326SOL    HW229811   6.892   5.861   6.672
 9327SOL     OW29812  13.516   8.649  10.172
 9327SOL    HW129813  13.476   8.607  10.096
 9327SOL    HW229814  13.478   8.603  10.247
 9328SOL     OW29815   3.572   2.073   7.699
 9328SOL    HW129816   3.555   2.061   7.793
 9328SOL    HW229817   3.588   2.166   7.689
 9329SOL     OW29818   4.833   2.127   0.246
 9329SOL    HW129819   4.780   2.205   0.229
 9329SOL    HW229820   4.776   2.069   0.295
 9330SOL     OW29821   8.870  14.169   8.896
 9330SOL    HW129822   8.812  14.122   8.956
 9330SOL    HW229823   8.939  14.204   8.952
 9331SOL     OW29824   3.142   9.494   1.888
 9331SOL    HW129825   3.130   9.448   1.971
 9331SOL    HW229826   3.234   9.522   1.890
 9332SOL     OW29827   9.452   4.362   6.355
 9332SOL    HW129828   9.451   4.443   6.305
 9332SOL    HW229829   9.520   4.375   6.421
 9333SOL     OW29830  10.191   3.376   5.050
 9333SOL    HW129831  10.207   3.400   5.141
 9333SOL    HW229832  10.275   3.392   5.007
 9334SOL     OW29833   7.408  14.444  10.700
 9334SOL    HW129834   7.489  14.406  10.734
 9334SOL    HW229835   7.386  14.389  10.625
 9335SOL     OW29836  11.204  13.191   2.551
 9335SOL    HW129837  11.169  13.132   2.484
 9335SOL    HW229838  11.163  13.161   2.633
 9336SOL     OW29839  13.264  10.070   6.514
 9336SOL    HW129840  13.222  10.084   6.430
 9336SOL    HW229841  13.355  10.095   6.500
 9337SOL     OW29842   5.724   3.113   2.672
 9337SOL    HW129843   5.730   3.205   2.644
 9337SOL    HW229844   5.672   3.116   2.752
 9338SOL     OW29845   8.506   2.272  12.008
 9338SOL    HW129846   8.476   2.296  12.096
 9338SOL    HW229847   8.572   2.204  12.024
 9339SOL     OW29848  11.429   4.619   4.710
 9339SOL    HW129849  11.362   4.559   4.679
 9339SOL    HW229850  11.489   4.629   4.636
 9340SOL     OW29851  11.890   1.836   6.037
 9340SOL    HW129852  11.815   1.838   5.977
 9340SOL    HW229853  11.862   1.779   6.109
 9341SOL     OW29854   8.749   8.251   7.047
 9341SOL    HW129855   8.776   8.217   6.962
 9341SOL    HW229856   8.769   8.180   7.109
 9342SOL     OW29857   2.148  10.316   7.306
 9342SOL    HW129858   2.129  10.376   7.378
 9342SOL    HW229859   2.211  10.254   7.343
 9343SOL     OW29860   8.100   7.515  12.779
 9343SOL    HW129861   8.016   7.558  12.794
 9343SOL    HW229862   8.124   7.539  12.689
 9344SOL     OW29863  13.988  14.707   5.939
 9344SOL    HW129864  14.046  14.682   6.010
 9344SOL    HW229865  13.979  14.802   5.949
 9345SOL     OW29866   1.865   8.886  11.038
 9345SOL    HW129867   1.897   8.872  11.127
 9345SOL    HW229868   1.911   8.964  11.008
 9346SOL     OW29869   9.950  14.347   0.733
 9346SOL    HW129870  10.034  14.302   0.743
 9346SOL    HW229871   9.887  14.289   0.776
 9347SOL     OW29872   7.990  10.040  12.579
 9347SOL    HW129873   7.996  10.082  12.665
 9347SOL    HW229874   8.074  10.059  12.537
 9348SOL     OW29875  13.779   6.075  10.216
 9348SOL    HW129876  13.745   6.110  10.298
 9348SOL    HW229877  13.736   5.990  10.206
 9349SOL     OW29878   8.018   2.231   1.549
 9349SOL    HW129879   8.066   2.207   1.469
 9349SOL    HW229880   7.939   2.178   1.547
 9350SOL     OW29881  10.089  12.545  10.457
 9350SOL    HW129882  10.149  12.619  10.463
 9350SOL    HW229883  10.139  12.470  10.487
 9351SOL     OW29884   7.397   6.024   9.007
 9351SOL    HW129885   7.352   5.963   9.066
 9351SOL    HW229886   7.372   5.996   8.919
 9352SOL     OW29887   0.449   4.196   8.022
 9352SOL    HW129888   0.372   4.249   8.039
 9352SOL    HW229889   0.444   4.174   7.929
 9353SOL     OW29890   7.742   2.944   4.963
 9353SOL    HW129891   7.651   2.969   4.945
 9353SOL    HW229892   7.771   3.005   5.030
 9354SOL     OW29893   1.722   6.762   4.560
 9354SOL    HW129894   1.629   6.773   4.579
 9354SOL    HW229895   1.745   6.677   4.598
 9355SOL     OW29896   3.994   3.820   5.830
 9355SOL    HW129897   3.967   3.896   5.881
 9355SOL    HW229898   3.970   3.745   5.884
 9356SOL     OW29899   8.979   7.668   4.240
 9356SOL    HW129900   9.063   7.684   4.283
 9356SOL    HW229901   8.962   7.748   4.191
 9357SOL     OW29902  12.836   6.240  13.661
 9357SOL    HW129903  12.815   6.284  13.579
 9357SOL    HW229904  12.930   6.254  13.673
 9358SOL     OW29905   9.896   6.088   4.061
 9358SOL    HW129906   9.964   6.154   4.075
 9358SOL    HW229907   9.939   6.021   4.008
 9359SOL     OW29908   4.010   0.970   1.401
 9359SOL    HW129909   4.072   1.021   1.350
 9359SOL    HW229910   3.954   1.035   1.444
 9360SOL     OW29911   5.626   6.362  10.916
 9360SOL    HW129912   5.700   6.317  10.956
 9360SOL    HW229913   5.558   6.296  10.910
 9361SOL     OW29914   0.414  10.117  13.679
 9361SOL    HW129915   0.358  10.058  13.629
 9361SOL    HW229916   0.503  10.094  13.652
 9362SOL     OW29917   8.971  11.634   8.161
 9362SOL    HW129918   8.900  11.576   8.134
 9362SOL    HW229919   8.931  11.693   8.225
 9363SOL     OW29920   7.012   8.337  13.761
 9363SOL    HW129921   7.087   8.302  13.810
 9363SOL    HW229922   6.945   8.351  13.828
 9364SOL     OW29923  14.730   4.837   0.199
 9364SOL    HW129924  14.765   4.756   0.236
 9364SOL    HW229925  14.806   4.880   0.160
 9365SOL     OW29926   9.868   4.662   2.967
 9365SOL    HW129927   9.828   4.576   2.956
 9365SOL    HW229928   9.941   4.647   3.027
 9366SOL     OW29929  14.835   0.550  10.626
 9366SOL    HW129930   0.054   0.577  10.613
 9366SOL    HW229931  14.839   0.455  10.630
 9367SOL     OW29932   3.776   3.869   0.283
 9367SOL    HW129933   3.842   3.801   0.279
 9367SOL    HW229934   3.823   3.949   0.258
 9368SOL     OW29935   0.342   3.053  10.101
 9368SOL    HW129936   0.416   3.077  10.157
 9368SOL    HW229937   0.311   2.970  10.135
 9369SOL     OW29938   7.797  12.061   8.279
 9369SOL    HW129939   7.864  12.087   8.343
 9369SOL    HW229940   7.732  12.014   8.331
 9370SOL     OW29941   7.434   8.026   1.930
 9370SOL    HW129942   7.483   7.955   1.971
 9370SOL    HW229943   7.366   7.981   1.880
 9371SOL     OW29944   0.705  13.895   2.788
 9371SOL    HW129945   0.736  13.969   2.736
 9371SOL    HW229946   0.738  13.912   2.876
 9372SOL     OW29947  12.683  12.640  13.000
 9372SOL    HW129948  12.709  12.551  12.976
 9372SOL    HW229949  12.706  12.693  12.924
 9373SOL     OW29950  13.723   2.198  10.654
 9373SOL    HW129951  13.664   2.123  10.645
 9373SOL    HW229952  13.677   2.270  10.611
 9374SOL     OW29953   5.293  11.797   7.160
 9374SOL    HW129954   5.291  11.781   7.066
 9374SOL    HW229955   5.320  11.714   7.198
 9375SOL     OW29956  11.628  14.796   6.092
 9375SOL    HW129957  11.642  14.847   6.172
 9375SOL    HW229958  11.711  14.750   6.078
 9376SOL     OW29959  12.764   3.298   5.806
 9376SOL    HW129960  12.681   3.345   5.800
 9376SOL    HW229961  12.810   3.320   5.724
 9377SOL     OW29962   5.397  11.700  13.889
 9377SOL    HW129963   5.474  11.714  13.835
 9377SOL    HW229964   5.426  11.641  13.959
 9378SOL     OW29965   8.379   2.460  13.987
 9378SOL    HW129966   8.432   2.448  13.908
 9378SOL    HW229967   8.304   2.512  13.958
 9379SOL     OW29968   3.071   6.576   1.604
 9379SOL    HW129969   3.131   6.625   1.548
 9379SOL    HW229970   3.032   6.510   1.546
 9380SOL     OW29971  10.335   7.993   8.168
 9380SOL    HW129972  10.262   7.960   8.220
 9380SOL    HW229973  10.411   7.982   8.225
 9381SOL     OW29974  10.152   8.497   5.825
 9381SOL    HW129975  10.059   8.476   5.832
 9381SOL    HW229976  10.180   8.512   5.916
 9382SOL     OW29977  14.434   4.116  11.853
 9382SOL    HW129978  14.443   4.199  11.805
 9382SOL    HW229979  14.360   4.072  11.812
 9383SOL     OW29980   3.639   7.687   7.422
 9383SOL    HW129981   3.561   7.672   7.369
 9383SOL    HW229982   3.698   7.615   7.399
 9384SOL     OW29983   7.351   7.553   6.209
 9384SOL    HW129984   7.380   7.467   6.238
 9384SOL    HW229985   7.296   7.536   6.132
 9385SOL     OW29986   8.467  11.155   5.474
 9385SOL    HW129987   8.494  11.214   5.404
 9385SOL    HW229988   8.501  11.070   5.448
 9386SOL     OW29989   7.764   9.333   5.900
 9386SOL    HW129990   7.749   9.249   5.944
 9386SOL    HW229991   7.847   9.322   5.854
 9387SOL     OW29992   6.706  14.761   7.808
 9387SOL    HW129993   6.626  14.741   7.759
 9387SOL    HW229994   6.681  14.831   7.867
 9388SOL     OW29995   7.043   8.808   6.326
 9388SOL    HW129996   7.066   8.847   6.410
 9388SOL    HW229997   7.053   8.879   6.263
 9389SOL     OW29998  13.262  11.493   7.023
 9389SOL    HW129999  13.224  11.431   7.085
 9389SOL    HW230000  13.186  11.537   6.984
 9390SOL     OW30001   2.550   0.693   7.620
 9390SOL    HW130002   2.460   0.727   7.620
 9390SOL    HW230003   2.539   0.598   7.628
 9391SOL     OW30004  12.579   5.928   5.230
 9391SOL    HW130005  12.539   5.843   5.250
 9391SOL    HW230006  12.515   5.973   5.177
 9392SOL     OW30007  11.752   0.244  11.561
 9392SOL    HW130008  11.823   0.308  11.552
 9392SOL    HW230009  11.795   0.167  11.600
 9393SOL     OW30010  10.857  12.652   5.105
 9393SOL    HW130011  10.765  12.631   5.088
 9393SOL    HW230012  10.861  12.748   5.102
 9394SOL     OW30013  12.686  11.666   1.175
 9394SOL    HW130014  12.667  11.604   1.104
 9394SOL    HW230015  12.644  11.628   1.252
 9395SOL     OW30016   6.396   2.450  12.799
 9395SOL    HW130017   6.350   2.430  12.880
 9395SOL    HW230018   6.403   2.366  12.754
 9396SOL     OW30019   2.481   6.844   1.944
 9396SOL    HW130020   2.530   6.765   1.921
 9396SOL    HW230021   2.391   6.825   1.918
 9397SOL     OW30022   5.295   0.449   5.434
 9397SOL    HW130023   5.370   0.409   5.479
 9397SOL    HW230024   5.303   0.542   5.453
 9398SOL     OW30025   8.091   9.401  13.556
 9398SOL    HW130026   8.123   9.318  13.591
 9398SOL    HW230027   8.170   9.447  13.529
 9399SOL     OW30028   0.314   5.483  12.798
 9399SOL    HW130029   0.352   5.553  12.745
 9399SOL    HW230030   0.363   5.404  12.772
 9400SOL     OW30031   8.225   5.933  11.425
 9400SOL    HW130032   8.285   5.931  11.500
 9400SOL    HW230033   8.169   5.857  11.437
 9401SOL     OW30034   9.746   4.154   5.591
 9401SOL    HW130035   9.682   4.086   5.613
 9401SOL    HW230036   9.831   4.114   5.610
 9402SOL     OW30037   2.348   7.732   9.860
 9402SOL    HW130038   2.413   7.695   9.920
 9402SOL    HW230039   2.359   7.682   9.779
 9403SOL     OW30040   2.364   7.849  10.882
 9403SOL    HW130041   2.432   7.798  10.839
 9403SOL    HW230042   2.289   7.842  10.824
 9404SOL     OW30043  12.504  13.139   0.414
 9404SOL    HW130044  12.593  13.104   0.408
 9404SOL    HW230045  12.484  13.139   0.507
 9405SOL     OW30046  12.609   6.601  10.325
 9405SOL    HW130047  12.577   6.686  10.352
 9405SOL    HW230048  12.595   6.545  10.402
 9406SOL     OW30049   5.746   1.359  11.679
 9406SOL    HW130050   5.836   1.377  11.652
 9406SOL    HW230051   5.755   1.316  11.764
 9407SOL     OW30052   3.190  10.918  10.883
 9407SOL    HW130053   3.188  10.962  10.968
 9407SOL    HW230054   3.129  10.845  10.892
 9408SOL     OW30055   5.338   9.765   6.149
 9408SOL    HW130056   5.339   9.687   6.206
 9408SOL    HW230057   5.420   9.758   6.100
 9409SOL     OW30058  10.395  14.210  11.188
 9409SOL    HW130059  10.477  14.233  11.143
 9409SOL    HW230060  10.350  14.152  11.126
 9410SOL     OW30061  12.966   5.303  10.958
 9410SOL    HW130062  12.923   5.221  10.935
 9410SOL    HW230063  13.033   5.279  11.022
 9411SOL     OW30064   0.495   2.622  14.517
 9411SOL    HW130065   0.570   2.674  14.546
 9411SOL    HW230066   0.512   2.535  14.553
 9412SOL     OW30067   0.388   9.904   3.512
 9412SOL    HW130068   0.471   9.892   3.465
 9412SOL    HW230069   0.326   9.847   3.467
 9413SOL     OW30070   5.428  13.868   3.588
 9413SOL    HW130071   5.334  13.883   3.576
 9413SOL    HW230072   5.450  13.804   3.521
 9414SOL     OW30073   5.303   6.511   7.739
 9414SOL    HW130074   5.272   6.480   7.825
 9414SOL    HW230075   5.321   6.430   7.690
 9415SOL     OW30076  10.245   8.559   5.240
 9415SOL    HW130077  10.293   8.476   5.230
 9415SOL    HW230078  10.161   8.544   5.196
 9416SOL     OW30079   9.418  11.092   6.720
 9416SOL    HW130080   9.371  11.073   6.802
 9416SOL    HW230081   9.408  11.012   6.668
 9417SOL     OW30082   7.230  14.360   4.913
 9417SOL    HW130083   7.235  14.307   4.833
 9417SOL    HW230084   7.143  14.340   4.949
 9418SOL     OW30085   1.733   7.328  10.489
 9418SOL    HW130086   1.790   7.333  10.412
 9418SOL    HW230087   1.659   7.274  10.460
 9419SOL     OW30088   9.846   7.734  13.519
 9419SOL    HW130089   9.844   7.650  13.567
 9419SOL    HW230090   9.796   7.717  13.439
 9420SOL     OW30091   2.460   1.324   4.033
 9420SOL    HW130092   2.528   1.346   3.969
 9420SOL    HW230093   2.486   1.237   4.065
 9421SOL     OW30094  11.682  13.369   3.002
 9421SOL    HW130095  11.772  13.359   2.970
 9421SOL    HW230096  11.685  13.335   3.092
 9422SOL     OW30097   7.839  11.543   2.356
 9422SOL    HW130098   7.880  11.572   2.275
 9422SOL    HW230099   7.745  11.551   2.340
 9423SOL     OW30100   7.036   0.221  11.940
 9423SOL    HW130101   7.018   0.231  12.033
 9423SOL    HW230102   7.076   0.134  11.933
 9424SOL     OW30103  13.463   8.694   9.087
 9424SOL    HW130104  13.523   8.745   9.141
 9424SOL    HW230105  13.376   8.711   9.125
 9425SOL     OW30106   4.469  11.928   3.808
 9425SOL    HW130107   4.444  12.006   3.858
 9425SOL    HW230108   4.516  11.874   3.871
 9426SOL     OW30109   5.952  11.361   7.617
 9426SOL    HW130110   5.992  11.293   7.673
 9426SOL    HW230111   5.860  11.336   7.613
 9427SOL     OW30112   6.359  10.044   7.382
 9427SOL    HW130113   6.394   9.960   7.352
 9427SOL    HW230114   6.430  10.107   7.366
 9428SOL     OW30115   2.952   7.614  10.212
 9428SOL    HW130116   3.010   7.673  10.260
 9428SOL    HW230117   2.864   7.648  10.230
 9429SOL     OW30118  13.269   5.458   0.154
 9429SOL    HW130119  13.180   5.485   0.180
 9429SOL    HW230120  13.300   5.404   0.226
 9430SOL     OW30121   2.838   7.145  13.885
 9430SOL    HW130122   2.873   7.225  13.927
 9430SOL    HW230123   2.821   7.171  13.795
 9431SOL     OW30124  10.754   8.222   8.596
 9431SOL    HW130125  10.664   8.220   8.628
 9431SOL    HW230126  10.786   8.132   8.609
 9432SOL     OW30127   1.899   0.965  12.779
 9432SOL    HW130128   1.834   1.009  12.724
 9432SOL    HW230129   1.975   0.953  12.722
 9433SOL     OW30130  11.709   6.275   7.812
 9433SOL    HW130131  11.635   6.326   7.842
 9433SOL    HW230132  11.780   6.339   7.802
 9434SOL     OW30133   3.738   9.400  14.841
 9434SOL    HW130134   3.669   9.439   0.023
 9434SOL    HW230135   3.722   9.435  14.754
 9435SOL     OW30136   6.512   8.815   4.739
 9435SOL    HW130137   6.490   8.887   4.798
 9435SOL    HW230138   6.529   8.741   4.798
 9436SOL     OW30139   5.782   4.955   8.699
 9436SOL    HW130140   5.845   4.976   8.767
 9436SOL    HW230141   5.759   4.863   8.715
 9437SOL     OW30142   5.068   2.652  14.207
 9437SOL    HW130143   5.133   2.694  14.262
 9437SOL    HW230144   5.081   2.558  14.219
 9438SOL     OW30145   1.392   5.064   9.730
 9438SOL    HW130146   1.385   5.115   9.810
 9438SOL    HW230147   1.484   5.074   9.703
 9439SOL     OW30148  12.226   7.051   1.731
 9439SOL    HW130149  12.139   7.090   1.737
 9439SOL    HW230150  12.286   7.124   1.743
 9440SOL     OW30151   8.800   8.059   9.063
 9440SOL    HW130152   8.846   8.129   9.111
 9440SOL    HW230153   8.778   7.995   9.130
 9441SOL     OW30154   8.704  10.198  11.485
 9441SOL    HW130155   8.682  10.268  11.547
 9441SOL    HW230156   8.789  10.224  11.448
 9442SOL     OW30157   0.412   5.328   6.284
 9442SOL    HW130158   0.370   5.300   6.365
 9442SOL    HW230159   0.500   5.356   6.310
 9443SOL     OW30160  11.112  10.637  14.646
 9443SOL    HW130161  11.036  10.672  14.599
 9443SOL    HW230162  11.160  10.715  14.674
 9444SOL     OW30163   7.261   2.129  11.074
 9444SOL    HW130164   7.336   2.070  11.080
 9444SOL    HW230165   7.260   2.175  11.159
 9445SOL     OW30166  13.564   7.179  12.992
 9445SOL    HW130167  13.568   7.212  12.902
 9445SOL    HW230168  13.654   7.180  13.023
 9446SOL     OW30169   3.262  14.648  10.703
 9446SOL    HW130170   3.171  14.617  10.701
 9446SOL    HW230171   3.279  14.666  10.795
 9447SOL     OW30172   6.414   4.798   3.870
 9447SOL    HW130173   6.469   4.876   3.877
 9447SOL    HW230174   6.455   4.746   3.801
 9448SOL     OW30175   2.228   0.289   3.521
 9448SOL    HW130176   2.209   0.343   3.597
 9448SOL    HW230177   2.286   0.220   3.555
 9449SOL     OW30178   8.093  12.184   6.063
 9449SOL    HW130179   8.173  12.140   6.092
 9449SOL    HW230180   8.037  12.185   6.140
 9450SOL     OW30181   9.539   1.278   8.391
 9450SOL    HW130182   9.514   1.298   8.481
 9450SOL    HW230183   9.499   1.194   8.372
 9451SOL     OW30184  14.730   5.340   4.715
 9451SOL    HW130185  14.725   5.387   4.631
 9451SOL    HW230186  14.709   5.250   4.692
 9452SOL     OW30187   6.969   5.281   4.442
 9452SOL    HW130188   6.964   5.263   4.536
 9452SOL    HW230189   7.041   5.343   4.433
 9453SOL     OW30190   1.579   7.162   9.917
 9453SOL    HW130191   1.627   7.241   9.942
 9453SOL    HW230192   1.540   7.130   9.999
 9454SOL     OW30193   1.925  10.528   2.093
 9454SOL    HW130194   1.952  10.512   2.003
 9454SOL    HW230195   1.869  10.453   2.115
 9455SOL     OW30196  14.855   9.611   0.718
 9455SOL    HW130197   0.034   9.532   0.737
 9455SOL    HW230198  14.870   9.628   0.625
 9456SOL     OW30199   2.380   3.620   7.497
 9456SOL    HW130200   2.357   3.689   7.435
 9456SOL    HW230201   2.311   3.622   7.563
 9457SOL     OW30202  12.182  10.989  10.077
 9457SOL    HW130203  12.104  10.961  10.028
 9457SOL    HW230204  12.174  11.084  10.081
 9458SOL     OW30205   5.276  14.694  10.607
 9458SOL    HW130206   5.223  14.753  10.552
 9458SOL    HW230207   5.365  14.707  10.577
 9459SOL     OW30208   9.551  14.497  12.034
 9459SOL    HW130209   9.581  14.417  11.990
 9459SOL    HW230210   9.560  14.478  12.127
 9460SOL     OW30211   2.036   3.203  12.361
 9460SOL    HW130212   1.950   3.245  12.368
 9460SOL    HW230213   2.083   3.231  12.439
 9461SOL     OW30214   8.998  10.303   8.027
 9461SOL    HW130215   8.931  10.289   7.960
 9461SOL    HW230216   8.984  10.392   8.057
 9462SOL     OW30217   7.411   7.908   9.550
 9462SOL    HW130218   7.380   7.818   9.557
 9462SOL    HW230219   7.336   7.961   9.576
 9463SOL     OW30220   4.531  10.682   1.564
 9463SOL    HW130221   4.467  10.646   1.503
 9463SOL    HW230222   4.606  10.705   1.509
 9464SOL     OW30223  10.966  13.474  14.453
 9464SOL    HW130224  10.900  13.482  14.384
 9464SOL    HW230225  10.915  13.464  14.533
 9465SOL     OW30226  14.468   2.273  13.160
 9465SOL    HW130227  14.500   2.338  13.222
 9465SOL    HW230228  14.377   2.257  13.186
 9466SOL     OW30229   2.198   7.810   7.814
 9466SOL    HW130230   2.204   7.902   7.841
 9466SOL    HW230231   2.111   7.782   7.844
 9467SOL     OW30232   5.734  13.719  10.919
 9467SOL    HW130233   5.651  13.756  10.889
 9467SOL    HW230234   5.710  13.640  10.968
 9468SOL     OW30235  12.151  10.929   6.271
 9468SOL    HW130236  12.075  10.895   6.225
 9468SOL    HW230237  12.129  11.020   6.289
 9469SOL     OW30238   4.624  10.071   4.996
 9469SOL    HW130239   4.702  10.121   5.020
 9469SOL    HW230240   4.637  10.046   4.905
 9470SOL     OW30241   4.718   7.074   1.629
 9470SOL    HW130242   4.665   7.011   1.678
 9470SOL    HW230243   4.796   7.088   1.684
 9471SOL     OW30244  13.961   2.588   3.739
 9471SOL    HW130245  14.046   2.620   3.706
 9471SOL    HW230246  13.949   2.504   3.695
 9472SOL     OW30247   7.084   5.934   6.374
 9472SOL    HW130248   7.171   5.974   6.369
 9472SOL    HW230249   7.041   5.981   6.446
 9473SOL     OW30250   3.955  10.877   6.583
 9473SOL    HW130251   3.959  10.802   6.643
 9473SOL    HW230252   3.992  10.950   6.632
 9474SOL     OW30253   5.766   6.510  13.528
 9474SOL    HW130254   5.758   6.424  13.487
 9474SOL    HW230255   5.830   6.557  13.474
 9475SOL     OW30256  12.137   2.368   9.332
 9475SOL    HW130257  12.138   2.463   9.318
 9475SOL    HW230258  12.216   2.336   9.290
 9476SOL     OW30259   8.004   7.964   5.974
 9476SOL    HW130260   7.969   8.053   5.975
 9476SOL    HW230261   8.039   7.951   6.062
 9477SOL     OW30262   5.271   4.165   0.059
 9477SOL    HW130263   5.280   4.176  14.837
 9477SOL    HW230264   5.207   4.231   0.085
 9478SOL     OW30265   7.009   4.617  11.236
 9478SOL    HW130266   6.957   4.543  11.268
 9478SOL    HW230267   7.085   4.620  11.294
 9479SOL     OW30268   7.508   0.547   3.309
 9479SOL    HW130269   7.435   0.588   3.263
 9479SOL    HW230270   7.563   0.511   3.240
 9480SOL     OW30271   4.633   1.772  13.649
 9480SOL    HW130272   4.714   1.823  13.648
 9480SOL    HW230273   4.616   1.756  13.742
 9481SOL     OW30274  11.012   2.253  10.737
 9481SOL    HW130275  10.937   2.291  10.784
 9481SOL    HW230276  11.017   2.302  10.656
 9482SOL     OW30277   7.697   7.796  14.684
 9482SOL    HW130278   7.655   7.766  14.765
 9482SOL    HW230279   7.640   7.867  14.653
 9483SOL     OW30280   8.614   1.431  13.035
 9483SOL    HW130281   8.690   1.488  13.047
 9483SOL    HW230282   8.616   1.409  12.942
 9484SOL     OW30283   4.001  12.079   5.364
 9484SOL    HW130284   3.923  12.071   5.309
 9484SOL    HW230285   4.058  12.008   5.335
 9485SOL     OW30286   5.926   3.742  12.327
 9485SOL    HW130287   5.945   3.764  12.418
 9485SOL    HW230288   5.919   3.646  12.327
 9486SOL     OW30289  10.501   8.372   8.005
 9486SOL    HW130290  10.446   8.366   7.927
 9486SOL    HW230291  10.442   8.348   8.077
 9487SOL     OW30292   1.197  14.853  10.271
 9487SOL    HW130293   1.239   0.038  10.336
 9487SOL    HW230294   1.113   0.023  10.253
 9488SOL     OW30295  10.580   5.552   3.069
 9488SOL    HW130296  10.532   5.576   2.989
 9488SOL    HW230297  10.524   5.487   3.112
 9489SOL     OW30298   9.214   3.885   0.640
 9489SOL    HW130299   9.255   3.840   0.714
 9489SOL    HW230300   9.212   3.818   0.571
 9490SOL     OW30301   0.067   8.722  11.424
 9490SOL    HW130302   0.104   8.644  11.465
 9490SOL    HW230303  14.845   8.706  11.422
 9491SOL     OW30304   0.680   6.025  13.705
 9491SOL    HW130305   0.750   5.961  13.719
 9491SOL    HW230306   0.604   5.987  13.749
 9492SOL     OW30307  14.046   2.736  13.739
 9492SOL    HW130308  14.077   2.659  13.785
 9492SOL    HW230309  13.988   2.702  13.670
 9493SOL     OW30310   5.728   3.177   4.597
 9493SOL    HW130311   5.786   3.253   4.606
 9493SOL    HW230312   5.708   3.174   4.503
 9494SOL     OW30313   4.003   2.309   8.630
 9494SOL    HW130314   3.932   2.363   8.596
 9494SOL    HW230315   4.038   2.358   8.704
 9495SOL     OW30316   4.824   2.254   1.239
 9495SOL    HW130317   4.789   2.341   1.220
 9495SOL    HW230318   4.918   2.262   1.223
 9496SOL     OW30319   4.586  12.334  13.573
 9496SOL    HW130320   4.664  12.307  13.524
 9496SOL    HW230321   4.567  12.422  13.543
 9497SOL     OW30322   2.246  11.548  14.769
 9497SOL    HW130323   2.327  11.508  14.802
 9497SOL    HW230324   2.266  11.569  14.678
 9498SOL     OW30325   1.082  10.925   7.123
 9498SOL    HW130326   1.017  10.905   7.056
 9498SOL    HW230327   1.159  10.874   7.098
 9499SOL     OW30328   4.326   2.041   5.334
 9499SOL    HW130329   4.288   1.993   5.260
 9499SOL    HW230330   4.373   1.974   5.384
 9500SOL     OW30331   7.503  14.582   7.813
 9500SOL    HW130332   7.475  14.498   7.849
 9500SOL    HW230333   7.565  14.559   7.744
 9501SOL     OW30334  10.481  11.105   8.464
 9501SOL    HW130335  10.516  11.106   8.375
 9501SOL    HW230336  10.441  11.018   8.473
 9502SOL     OW30337   3.989  11.704  12.152
 9502SOL    HW130338   4.061  11.669  12.204
 9502SOL    HW230339   4.021  11.788  12.120
 9503SOL     OW30340   3.421   2.220   6.625
 9503SOL    HW130341   3.380   2.158   6.565
 9503SOL    HW230342   3.512   2.224   6.596
 9504SOL     OW30343   6.886   1.029  12.990
 9504SOL    HW130344   6.920   0.956  12.938
 9504SOL    HW230345   6.793   1.034  12.966
 9505SOL     OW30346  11.588   4.166   8.474
 9505SOL    HW130347  11.662   4.225   8.464
 9505SOL    HW230348  11.627   4.078   8.471
 9506SOL     OW30349  14.710   4.544   3.550
 9506SOL    HW130350  14.666   4.459   3.549
 9506SOL    HW230351  14.648   4.603   3.506
 9507SOL     OW30352  12.184   3.302   0.284
 9507SOL    HW130353  12.225   3.286   0.198
 9507SOL    HW230354  12.258   3.310   0.344
 9508SOL     OW30355   6.826   6.766  13.639
 9508SOL    HW130356   6.889   6.818  13.689
 9508SOL    HW230357   6.756   6.827  13.617
 9509SOL     OW30358  14.865  13.853   4.105
 9509SOL    HW130359  14.803  13.894   4.044
 9509SOL    HW230360   0.053  13.805   4.048
 9510SOL     OW30361  14.788   9.251   8.077
 9510SOL    HW130362  14.797   9.321   8.012
 9510SOL    HW230363  14.723   9.191   8.039
 9511SOL     OW30364   0.216   1.461  13.374
 9511SOL    HW130365   0.231   1.518  13.299
 9511SOL    HW230366   0.186   1.378  13.335
 9512SOL     OW30367   3.389  12.476   0.690
 9512SOL    HW130368   3.444  12.413   0.736
 9512SOL    HW230369   3.301  12.438   0.693
 9513SOL     OW30370   6.522   2.751  14.027
 9513SOL    HW130371   6.436   2.752  13.986
 9513SOL    HW230372   6.570   2.822  13.983
 9514SOL     OW30373  11.633   7.082   8.542
 9514SOL    HW130374  11.569   7.112   8.478
 9514SOL    HW230375  11.605   7.122   8.624
 9515SOL     OW30376   3.471   2.010  11.860
 9515SOL    HW130377   3.528   2.045  11.929
 9515SOL    HW230378   3.528   2.000  11.784
 9516SOL     OW30379   3.035   2.200   9.625
 9516SOL    HW130380   2.946   2.231   9.611
 9516SOL    HW230381   3.074   2.265   9.683
 9517SOL     OW30382   0.329  10.924   6.664
 9517SOL    HW130383   0.236  10.918   6.687
 9517SOL    HW230384   0.331  10.916   6.569
 9518SOL     OW30385   0.727   2.511  11.198
 9518SOL    HW130386   0.686   2.461  11.127
 9518SOL    HW230387   0.779   2.446  11.245
 9519SOL     OW30388   2.841  10.440   1.627
 9519SOL    HW130389   2.852  10.521   1.676
 9519SOL    HW230390   2.900  10.378   1.671
 9520SOL     OW30391  12.469  10.556  12.888
 9520SOL    HW130392  12.495  10.466  12.868
 9520SOL    HW230393  12.551  10.605  12.887
 9521SOL     OW30394   0.096  10.357  14.568
 9521SOL    HW130395   0.170  10.400  14.612
 9521SOL    HW230396   0.054  10.306  14.636
 9522SOL     OW30397   0.397   3.455  10.374
 9522SOL    HW130398   0.411   3.529  10.432
 9522SOL    HW230399   0.302   3.449  10.364
 9523SOL     OW30400   4.272  12.587   2.185
 9523SOL    HW130401   4.363  12.588   2.155
 9523SOL    HW230402   4.226  12.643   2.122
 9524SOL     OW30403   9.467   4.592   9.567
 9524SOL    HW130404   9.554   4.555   9.557
 9524SOL    HW230405   9.420   4.565   9.488
 9525SOL     OW30406  10.855  14.399  10.258
 9525SOL    HW130407  10.780  14.372  10.204
 9525SOL    HW230408  10.916  14.439  10.197
 9526SOL     OW30409   5.796   6.361   4.795
 9526SOL    HW130410   5.767   6.452   4.791
 9526SOL    HW230411   5.776   6.333   4.884
 9527SOL     OW30412  11.086   9.333  10.774
 9527SOL    HW130413  11.028   9.331  10.698
 9527SOL    HW230414  11.034   9.375  10.842
 9528SOL     OW30415  10.741  10.118   6.932
 9528SOL    HW130416  10.766  10.032   6.965
 9528SOL    HW230417  10.740  10.108   6.837
 9529SOL     OW30418   1.717  12.640   7.917
 9529SOL    HW130419   1.697  12.568   7.857
 9529SOL    HW230420   1.632  12.679   7.936
 9530SOL     OW30421   9.241   0.615   2.561
 9530SOL    HW130422   9.206   0.701   2.538
 9530SOL    HW230423   9.249   0.569   2.478
 9531SOL     OW30424   1.738  10.771  11.916
 9531SOL    HW130425   1.733  10.810  12.003
 9531SOL    HW230426   1.674  10.820  11.864
 9532SOL     OW30427   1.838   1.616  14.520
 9532SOL    HW130428   1.897   1.661  14.581
 9532SOL    HW230429   1.887   1.612  14.438
 9533SOL     OW30430   2.484   9.909  13.111
 9533SOL    HW130431   2.452   9.871  13.029
 9533SOL    HW230432   2.567   9.864  13.127
 9534SOL     OW30433   3.259   5.723  12.474
 9534SOL    HW130434   3.192   5.703  12.539
 9534SOL    HW230435   3.342   5.698  12.516
 9535SOL     OW30436   4.919  13.011   7.921
 9535SOL    HW130437   4.925  12.915   7.924
 9535SOL    HW230438   4.982  13.037   7.854
 9536SOL     OW30439  11.629   0.947  14.696
 9536SOL    HW130440  11.625   1.028  14.746
 9536SOL    HW230441  11.644   0.975  14.606
 9537SOL     OW30442   9.426   1.338   8.645
 9537SOL    HW130443   9.369   1.288   8.704
 9537SOL    HW230444   9.366   1.393   8.595
 9538SOL     OW30445   1.263  12.352   7.033
 9538SOL    HW130446   1.297  12.398   7.110
 9538SOL    HW230447   1.169  12.347   7.047
 9539SOL     OW30448  10.799  14.639   0.557
 9539SOL    HW130449  10.848  14.720   0.570
 9539SOL    HW230450  10.709  14.662   0.579
 9540SOL     OW30451   3.363   1.834   3.859
 9540SOL    HW130452   3.272   1.806   3.863
 9540SOL    HW230453   3.409   1.760   3.820
 9541SOL     OW30454   2.935   4.250   6.234
 9541SOL    HW130455   2.898   4.270   6.148
 9541SOL    HW230456   3.025   4.282   6.228
 9542SOL     OW30457   2.149   5.121   4.598
 9542SOL    HW130458   2.082   5.190   4.599
 9542SOL    HW230459   2.232   5.168   4.594
 9543SOL     OW30460  12.327   4.473   4.826
 9543SOL    HW130461  12.396   4.532   4.794
 9543SOL    HW230462  12.361   4.438   4.909
 9544SOL     OW30463   6.436   1.291   0.205
 9544SOL    HW130464   6.468   1.335   0.284
 9544SOL    HW230465   6.434   1.198   0.228
 9545SOL     OW30466   7.282  12.948   6.486
 9545SOL    HW130467   7.351  13.013   6.480
 9545SOL    HW230468   7.308  12.891   6.558
 9546SOL     OW30469   2.661   9.896  10.244
 9546SOL    HW130470   2.754   9.882  10.263
 9546SOL    HW230471   2.623   9.921  10.328
 9547SOL     OW30472  13.830  14.493   9.640
 9547SOL    HW130473  13.894  14.470   9.707
 9547SOL    HW230474  13.770  14.553   9.684
 9548SOL     OW30475  14.340   3.873   1.556
 9548SOL    HW130476  14.372   3.948   1.606
 9548SOL    HW230477  14.357   3.897   1.465
 9549SOL     OW30478  12.792   7.576   1.371
 9549SOL    HW130479  12.703   7.588   1.404
 9549SOL    HW230480  12.839   7.656   1.395
 9550SOL     OW30481   8.947   5.091   3.927
 9550SOL    HW130482   9.018   5.062   3.870
 9550SOL    HW230483   8.868   5.077   3.875
 9551SOL     OW30484   1.583   2.292   3.735
 9551SOL    HW130485   1.656   2.323   3.789
 9551SOL    HW230486   1.623   2.266   3.653
 9552SOL     OW30487   7.480   4.793   4.044
 9552SOL    HW130488   7.464   4.729   3.975
 9552SOL    HW230489   7.458   4.748   4.125
 9553SOL     OW30490   8.048   6.246   7.067
 9553SOL    HW130491   8.017   6.251   7.158
 9553SOL    HW230492   8.130   6.296   7.068
 9554SOL     OW30493  11.376   0.932   6.863
 9554SOL    HW130494  11.292   0.933   6.817
 9554SOL    HW230495  11.358   0.888   6.946
 9555SOL     OW30496   4.383   1.594   3.058
 9555SOL    HW130497   4.437   1.550   3.123
 9555SOL    HW230498   4.312   1.633   3.109
 9556SOL     OW30499   1.962   5.775   7.433
 9556SOL    HW130500   1.945   5.734   7.349
 9556SOL    HW230501   2.004   5.707   7.485
 9557SOL     OW30502   9.330   5.170   5.209
 9557SOL    HW130503   9.388   5.133   5.276
 9557SOL    HW230504   9.390   5.202   5.141
 9558SOL     OW30505  11.620   9.377   4.380
 9558SOL    HW130506  11.687   9.442   4.359
 9558SOL    HW230507  11.605   9.389   4.474
 9559SOL     OW30508   2.928   2.329   5.361
 9559SOL    HW130509   2.879   2.323   5.443
 9559SOL    HW230510   2.863   2.314   5.293
 9560SOL     OW30511   3.620   0.140  11.254
 9560SOL    HW130512   3.543   0.178  11.296
 9560SOL    HW230513   3.650   0.208  11.193
 9561SOL     OW30514   5.504   4.015   7.643
 9561SOL    HW130515   5.486   4.063   7.724
 9561SOL    HW230516   5.417   3.992   7.610
 9562SOL     OW30517   7.721   2.329   8.914
 9562SOL    HW130518   7.778   2.277   8.857
 9562SOL    HW230519   7.644   2.348   8.861
 9563SOL     OW30520   9.233   2.520  10.201
 9563SOL    HW130521   9.217   2.466  10.278
 9563SOL    HW230522   9.247   2.457  10.130
 9564SOL     OW30523  13.723  14.428   2.049
 9564SOL    HW130524  13.805  14.455   2.089
 9564SOL    HW230525  13.724  14.332   2.055
 9565SOL     OW30526   5.974   3.498  10.168
 9565SOL    HW130527   5.913   3.447  10.115
 9565SOL    HW230528   6.061   3.465  10.144
 9566SOL     OW30529  13.467   1.084   0.981
 9566SOL    HW130530  13.456   1.178   0.978
 9566SOL    HW230531  13.548   1.071   1.031
 9567SOL     OW30532   8.611  14.620   9.814
 9567SOL    HW130533   8.548  14.562   9.770
 9567SOL    HW230534   8.566  14.705   9.818
 9568SOL     OW30535  10.385   6.243  14.330
 9568SOL    HW130536  10.310   6.294  14.300
 9568SOL    HW230537  10.416   6.289  14.408
 9569SOL     OW30538   9.014  14.688  11.840
 9569SOL    HW130539   8.943  14.669  11.778
 9569SOL    HW230540   9.052  14.770  11.808
 9570SOL     OW30541   1.988   0.562   0.169
 9570SOL    HW130542   2.074   0.571   0.128
 9570SOL    HW230543   1.986   0.471   0.200
 9571SOL     OW30544  10.044   4.805   6.737
 9571SOL    HW130545  10.026   4.722   6.693
 9571SOL    HW230546  10.132   4.829   6.709
 9572SOL     OW30547   6.992  10.463   0.842
 9572SOL    HW130548   7.030  10.544   0.809
 9572SOL    HW230549   6.936  10.491   0.914
 9573SOL     OW30550   2.621   4.364   9.917
 9573SOL    HW130551   2.677   4.303   9.868
 9573SOL    HW230552   2.550   4.386   9.856
 9574SOL     OW30553   2.368   8.262  13.963
 9574SOL    HW130554   2.445   8.318  13.972
 9574SOL    HW230555   2.294   8.323  13.956
 9575SOL     OW30556  10.473   7.295   0.316
 9575SOL    HW130557  10.407   7.229   0.296
 9575SOL    HW230558  10.498   7.277   0.407
 9576SOL     OW30559   9.269  13.404   8.738
 9576SOL    HW130560   9.176  13.417   8.757
 9576SOL    HW230561   9.275  13.314   8.706
 9577SOL     OW30562   4.506  14.767   0.248
 9577SOL    HW130563   4.561  14.775   0.326
 9577SOL    HW230564   4.569  14.756   0.176
 9578SOL     OW30565  10.866  12.357   7.700
 9578SOL    HW130566  10.905  12.443   7.682
 9578SOL    HW230567  10.775  12.377   7.723
 9579SOL     OW30568   7.018   9.148  11.974
 9579SOL    HW130569   7.011   9.096  12.054
 9579SOL    HW230570   6.931   9.140  11.933
 9580SOL     OW30571  11.674   9.698   0.735
 9580SOL    HW130572  11.744   9.692   0.670
 9580SOL    HW230573  11.598   9.660   0.690
 9581SOL     OW30574   3.190   4.949   8.076
 9581SOL    HW130575   3.257   5.002   8.033
 9581SOL    HW230576   3.207   4.960   8.170
 9582SOL     OW30577  14.754   5.243   0.923
 9582SOL    HW130578  14.662   5.229   0.946
 9582SOL    HW230579  14.779   5.164   0.876
 9583SOL     OW30580   8.175   6.884   6.593
 9583SOL    HW130581   8.225   6.810   6.558
 9583SOL    HW230582   8.240   6.935   6.641
 9584SOL     OW30583   8.792   4.243   3.405
 9584SOL    HW130584   8.748   4.232   3.490
 9584SOL    HW230585   8.870   4.188   3.412
 9585SOL     OW30586   3.470   0.398   2.380
 9585SOL    HW130587   3.532   0.377   2.450
 9585SOL    HW230588   3.516   0.462   2.326
 9586SOL     OW30589  10.029   0.486   1.109
 9586SOL    HW130590  10.107   0.463   1.160
 9586SOL    HW230591   9.991   0.402   1.084
 9587SOL     OW30592  13.261  11.813  12.171
 9587SOL    HW130593  13.314  11.853  12.239
 9587SOL    HW230594  13.257  11.878  12.101
 9588SOL     OW30595   2.810   4.754   1.769
 9588SOL    HW130596   2.850   4.829   1.724
 9588SOL    HW230597   2.818   4.682   1.707
 9589SOL     OW30598   3.547   1.388   8.908
 9589SOL    HW130599   3.476   1.357   8.851
 9589SOL    HW230600   3.527   1.481   8.922
 9590SOL     OW30601  12.172   1.071   6.960
 9590SOL    HW130602  12.246   1.109   6.913
 9590SOL    HW230603  12.211   1.025   7.034
 9591SOL     OW30604   4.750   1.687  11.267
 9591SOL    HW130605   4.695   1.764  11.278
 9591SOL    HW230606   4.734   1.659  11.176
 9592SOL     OW30607   6.803  14.200   0.382
 9592SOL    HW130608   6.869  14.269   0.382
 9592SOL    HW230609   6.796  14.174   0.474
 9593SOL     OW30610  10.536  11.021   5.322
 9593SOL    HW130611  10.515  11.042   5.413
 9593SOL    HW230612  10.565  10.930   5.324
 9594SOL     OW30613   0.554   7.395  14.837
 9594SOL    HW130614   0.537   7.403  14.744
 9594SOL    HW230615   0.535   7.304  14.858
 9595SOL     OW30616   8.564   5.369   6.317
 9595SOL    HW130617   8.654   5.401   6.323
 9595SOL    HW230618   8.518   5.436   6.266
 9596SOL     OW30619   6.235   8.830  12.324
 9596SOL    HW130620   6.149   8.829  12.366
 9596SOL    HW230621   6.281   8.755  12.361
 9597SOL     OW30622   8.256  14.167  12.716
 9597SOL    HW130623   8.280  14.099  12.778
 9597SOL    HW230624   8.325  14.233  12.725
 9598SOL     OW30625   7.722   7.186  11.911
 9598SOL    HW130626   7.784   7.118  11.884
 9598SOL    HW230627   7.772   7.267  11.908
 9599SOL     OW30628  10.008  11.066   1.120
 9599SOL    HW130629   9.983  11.052   1.029
 9599SOL    HW230630  10.081  11.005   1.134
 9600SOL     OW30631  10.532   8.643   7.967
 9600SOL    HW130632  10.517   8.551   7.986
 9600SOL    HW230633  10.444   8.680   7.954
 9601SOL     OW30634   0.415   0.009   8.738
 9601SOL    HW130635   0.412  14.787   8.754
 9601SOL    HW230636   0.502   0.036   8.767
 9602SOL     OW30637  13.080   1.375  13.982
 9602SOL    HW130638  13.071   1.345  14.072
 9602SOL    HW230639  13.139   1.311  13.941
 9603SOL     OW30640   7.149  11.200   9.361
 9603SOL    HW130641   7.221  11.191   9.299
 9603SOL    HW230642   7.131  11.294   9.364
 9604SOL     OW30643   7.073   2.143   2.211
 9604SOL    HW130644   7.045   2.189   2.290
 9604SOL    HW230645   7.062   2.051   2.231
 9605SOL     OW30646   3.787  12.206   7.331
 9605SOL    HW130647   3.848  12.168   7.268
 9605SOL    HW230648   3.789  12.146   7.406
 9606SOL     OW30649   6.961  10.867   7.733
 9606SOL    HW130650   6.938  10.954   7.701
 9606SOL    HW230651   6.883  10.837   7.779
 9607SOL     OW30652   3.015   1.314   3.868
 9607SOL    HW130653   3.080   1.369   3.824
 9607SOL    HW230654   2.937   1.322   3.813
 9608SOL     OW30655   8.077   0.609   9.236
 9608SOL    HW130656   8.086   0.515   9.245
 9608SOL    HW230657   8.003   0.632   9.292
 9609SOL     OW30658   3.549   3.801  11.857
 9609SOL    HW130659   3.503   3.879  11.827
 9609SOL    HW230660   3.605   3.833  11.928
 9610SOL     OW30661   8.506   0.290   1.348
 9610SOL    HW130662   8.540   0.379   1.336
 9610SOL    HW230663   8.544   0.241   1.275
 9611SOL     OW30664   5.482   8.617   1.418
 9611SOL    HW130665   5.480   8.673   1.340
 9611SOL    HW230666   5.438   8.537   1.392
 9612SOL     OW30667   5.287  11.330  13.494
 9612SOL    HW130668   5.236  11.265  13.542
 9612SOL    HW230669   5.313  11.285  13.413
 9613SOL     OW30670  12.737   1.458  11.124
 9613SOL    HW130671  12.729   1.395  11.052
 9613SOL    HW230672  12.726   1.405  11.203
 9614SOL     OW30673   5.857   9.293   9.017
 9614SOL    HW130674   5.927   9.263   9.074
 9614SOL    HW230675   5.901   9.342   8.948
 9615SOL     OW30676   0.175  12.781  12.407
 9615SOL    HW130677   0.125  12.705  12.437
 9615SOL    HW230678   0.151  12.852  12.466
 9616SOL     OW30679   3.744   0.123   9.060
 9616SOL    HW130680   3.839   0.131   9.070
 9616SOL    HW230681   3.718   0.205   9.017
 9617SOL     OW30682   4.156   0.928   6.361
 9617SOL    HW130683   4.229   0.930   6.422
 9617SOL    HW230684   4.087   0.880   6.407
 9618SOL     OW30685  12.270  11.292  10.092
 9618SOL    HW130686  12.256  11.357  10.023
 9618SOL    HW230687  12.340  11.329  10.146
 9619SOL     OW30688   7.386  10.297   8.035
 9619SOL    HW130689   7.401  10.254   7.951
 9619SOL    HW230690   7.460  10.269   8.089
 9620SOL     OW30691   9.040   6.646   8.917
 9620SOL    HW130692   9.079   6.571   8.873
 9620SOL    HW230693   9.112   6.685   8.967
 9621SOL     OW30694  10.103   4.768  12.749
 9621SOL    HW130695  10.174   4.720  12.706
 9621SOL    HW230696  10.144   4.849  12.780
 9622SOL     OW30697  10.874  12.196  13.076
 9622SOL    HW130698  10.884  12.273  13.019
 9622SOL    HW230699  10.921  12.219  13.156
 9623SOL     OW30700  12.196   1.101  14.824
 9623SOL    HW130701  12.100   1.099  14.825
 9623SOL    HW230702  12.220   1.141   0.036
 9624SOL     OW30703   2.816   6.038   3.257
 9624SOL    HW130704   2.781   6.061   3.171
 9624SOL    HW230705   2.821   6.121   3.304
 9625SOL     OW30706   2.165  11.652   5.520
 9625SOL    HW130707   2.138  11.575   5.571
 9625SOL    HW230708   2.199  11.714   5.584
 9626SOL     OW30709  11.572   1.921   1.845
 9626SOL    HW130710  11.631   1.996   1.846
 9626SOL    HW230711  11.619   1.852   1.892
 9627SOL     OW30712   5.926   6.546   7.148
 9627SOL    HW130713   5.916   6.495   7.067
 9627SOL    HW230714   6.019   6.568   7.151
 9628SOL     OW30715   0.401   0.696  14.690
 9628SOL    HW130716   0.465   0.700  14.760
 9628SOL    HW230717   0.434   0.756  14.623
 9629SOL     OW30718   8.467  13.902   2.194
 9629SOL    HW130719   8.383  13.857   2.180
 9629SOL    HW230720   8.532  13.843   2.154
 9630SOL     OW30721   6.312   1.916  11.366
 9630SOL    HW130722   6.305   1.960  11.450
 9630SOL    HW230723   6.404   1.923  11.342
 9631SOL     OW30724   7.862  11.950   1.441
 9631SOL    HW130725   7.829  11.917   1.524
 9631SOL    HW230726   7.812  11.901   1.375
 9632SOL     OW30727  10.347   4.262   9.665
 9632SOL    HW130728  10.292   4.202   9.614
 9632SOL    HW230729  10.343   4.345   9.616
 9633SOL     OW30730   3.271   1.582   0.979
 9633SOL    HW130731   3.316   1.623   0.904
 9633SOL    HW230732   3.181   1.571   0.949
 9634SOL     OW30733   0.247  10.265   0.050
 9634SOL    HW130734   0.289  10.288   0.133
 9634SOL    HW230735   0.280  10.330  14.860
 9635SOL     OW30736  12.986   1.070   0.845
 9635SOL    HW130737  12.952   1.011   0.778
 9635SOL    HW230738  13.081   1.073   0.829
 9636SOL     OW30739   1.600   8.089   2.624
 9636SOL    HW130740   1.665   8.159   2.616
 9636SOL    HW230741   1.527   8.129   2.670
 9637SOL     OW30742   3.703   8.942   2.263
 9637SOL    HW130743   3.651   8.887   2.206
 9637SOL    HW230744   3.743   8.882   2.326
 9638SOL     OW30745  10.570   0.299   9.849
 9638SOL    HW130746  10.551   0.254   9.767
 9638SOL    HW230747  10.662   0.326   9.841
 9639SOL     OW30748  10.087   1.884   7.015
 9639SOL    HW130749  10.152   1.834   7.065
 9639SOL    HW230750  10.133   1.963   6.988
 9640SOL     OW30751   0.953   2.954  11.069
 9640SOL    HW130752   0.972   2.869  11.110
 9640SOL    HW230753   0.866   2.977  11.102
 9641SOL     OW30754   4.965   7.118   7.331
 9641SOL    HW130755   4.961   7.025   7.352
 9641SOL    HW230756   5.051   7.130   7.292
 9642SOL     OW30757  13.639   9.849  10.681
 9642SOL    HW130758  13.612   9.815  10.766
 9642SOL    HW230759  13.634   9.944  10.690
 9643SOL     OW30760  11.897  10.090   8.730
 9643SOL    HW130761  11.819  10.102   8.784
 9643SOL    HW230762  11.939  10.176   8.728
 9644SOL     OW30763   7.127   8.569   4.269
 9644SOL    HW130764   7.068   8.563   4.344
 9644SOL    HW230765   7.198   8.626   4.298
 9645SOL     OW30766   9.320   3.572   1.446
 9645SOL    HW130767   9.385   3.611   1.504
 9645SOL    HW230768   9.371   3.532   1.376
 9646SOL     OW30769   3.454   8.643   7.255
 9646SOL    HW130770   3.376   8.590   7.271
 9646SOL    HW230771   3.510   8.588   7.201
 9647SOL     OW30772  11.178   7.039  13.674
 9647SOL    HW130773  11.263   7.071  13.705
 9647SOL    HW230774  11.115   7.071  13.739
 9648SOL     OW30775   7.709   6.021   2.447
 9648SOL    HW130776   7.716   6.051   2.356
 9648SOL    HW230777   7.751   5.936   2.447
 9649SOL     OW30778   5.824   7.488   8.931
 9649SOL    HW130779   5.909   7.447   8.944
 9649SOL    HW230780   5.820   7.507   8.837
 9650SOL     OW30781   7.343  10.501  12.020
 9650SOL    HW130782   7.300  10.424  12.059
 9650SOL    HW230783   7.400  10.534  12.090
 9651SOL     OW30784   3.150   0.037   9.955
 9651SOL    HW130785   3.210  14.842   9.988
 9651SOL    HW230786   3.091   0.055  10.028
 9652SOL     OW30787   7.734  12.328  10.495
 9652SOL    HW130788   7.682  12.254  10.462
 9652SOL    HW230789   7.733  12.317  10.590
 9653SOL     OW30790  12.584   8.243   7.100
 9653SOL    HW130791  12.611   8.278   7.015
 9653SOL    HW230792  12.642   8.168   7.114
 9654SOL     OW30793   0.505  10.852  12.867
 9654SOL    HW130794   0.470  10.915  12.930
 9654SOL    HW230795   0.432  10.831  12.810
 9655SOL     OW30796   7.287  12.991   1.570
 9655SOL    HW130797   7.378  13.022   1.574
 9655SOL    HW230798   7.246  13.045   1.503
 9656SOL     OW30799   5.660   3.497  14.231
 9656SOL    HW130800   5.733   3.542  14.188
 9656SOL    HW230801   5.629   3.434  14.165
 9657SOL     OW30802   2.318   1.114  11.385
 9657SOL    HW130803   2.324   1.169  11.463
 9657SOL    HW230804   2.359   1.032  11.411
 9658SOL     OW30805  10.636   4.509   2.752
 9658SOL    HW130806  10.700   4.490   2.684
 9658SOL    HW230807  10.669   4.464   2.830
 9659SOL     OW30808   2.979   9.981   1.627
 9659SOL    HW130809   2.943  10.060   1.668
 9659SOL    HW230810   2.915   9.913   1.647
 9660SOL     OW30811   6.151   4.414  13.732
 9660SOL    HW130812   6.223   4.351  13.729
 9660SOL    HW230813   6.131   4.432  13.641
 9661SOL     OW30814   4.484   6.317   2.993
 9661SOL    HW130815   4.463   6.376   2.921
 9661SOL    HW230816   4.439   6.354   3.069
 9662SOL     OW30817  13.911   8.789  13.850
 9662SOL    HW130818  13.984   8.768  13.792
 9662SOL    HW230819  13.879   8.873  13.818
 9663SOL     OW30820   0.584   5.268  11.100
 9663SOL    HW130821   0.556   5.176  11.092
 9663SOL    HW230822   0.524   5.316  11.043
 9664SOL     OW30823   2.206  13.525  11.064
 9664SOL    HW130824   2.147  13.537  11.138
 9664SOL    HW230825   2.172  13.449  11.017
 9665SOL     OW30826   2.351  13.134   7.933
 9665SOL    HW130827   2.272  13.179   7.961
 9665SOL    HW230828   2.412  13.145   8.006
 9666SOL     OW30829  13.813   2.477  13.394
 9666SOL    HW130830  13.761   2.413  13.443
 9666SOL    HW230831  13.771   2.561  13.413
 9667SOL     OW30832  10.608  13.047   9.899
 9667SOL    HW130833  10.612  13.111   9.970
 9667SOL    HW230834  10.531  12.993   9.919
 9668SOL     OW30835  11.469   8.824   2.081
 9668SOL    HW130836  11.453   8.851   2.171
 9668SOL    HW230837  11.545   8.768   2.086
 9669SOL     OW30838  10.713  10.505   2.092
 9669SOL    HW130839  10.732  10.525   2.000
 9669SOL    HW230840  10.633  10.452   2.089
 9670SOL     OW30841  10.186   1.634   2.126
 9670SOL    HW130842  10.148   1.566   2.070
 9670SOL    HW230843  10.275   1.645   2.094
 9671SOL     OW30844   5.268   2.673   5.531
 9671SOL    HW130845   5.191   2.657   5.477
 9671SOL    HW230846   5.238   2.736   5.597
 9672SOL     OW30847   8.932   1.150   4.623
 9672SOL    HW130848   8.876   1.074   4.640
 9672SOL    HW230849   8.880   1.225   4.650
 9673SOL     OW30850   5.562   4.448   7.193
 9673SOL    HW130851   5.620   4.436   7.118
 9673SOL    HW230852   5.499   4.376   7.186
 9674SOL     OW30853   4.511   0.739   0.327
 9674SOL    HW130854   4.559   0.822   0.336
 9674SOL    HW230855   4.471   0.744   0.240
 9675SOL     OW30856  11.632   5.591   1.354
 9675SOL    HW130857  11.720   5.552   1.355
 9675SOL    HW230858  11.644   5.679   1.320
 9676SOL     OW30859  11.444  14.776  14.054
 9676SOL    HW130860  11.469  14.820  13.973
 9676SOL    HW230861  11.350  14.791  14.062
 9677SOL     OW30862   3.800  10.977  11.954
 9677SOL    HW130863   3.891  11.001  11.969
 9677SOL    HW230864   3.798  10.946  11.863
 9678SOL     OW30865  11.222  14.218   5.908
 9678SOL    HW130866  11.254  14.242   5.996
 9678SOL    HW230867  11.206  14.303   5.865
 9679SOL     OW30868  11.577  10.495   1.539
 9679SOL    HW130869  11.625  10.563   1.587
 9679SOL    HW230870  11.645  10.445   1.494
 9680SOL     OW30871  13.483  11.702   9.199
 9680SOL    HW130872  13.410  11.759   9.174
 9680SOL    HW230873  13.541  11.759   9.250
 9681SOL     OW30874   2.443   1.213   5.788
 9681SOL    HW130875   2.374   1.193   5.725
 9681SOL    HW230876   2.422   1.159   5.864
 9682SOL     OW30877  11.186   2.382   4.984
 9682SOL    HW130878  11.094   2.360   4.998
 9682SOL    HW230879  11.193   2.473   5.013
 9683SOL     OW30880  12.031   0.275  13.505
 9683SOL    HW130881  11.936   0.278  13.503
 9683SOL    HW230882  12.059   0.319  13.426
 9684SOL     OW30883  11.086  12.008   2.367
 9684SOL    HW130884  11.130  12.039   2.447
 9684SOL    HW230885  10.993  12.011   2.388
 9685SOL     OW30886   8.403   7.441  13.835
 9685SOL    HW130887   8.427   7.376  13.769
 9685SOL    HW230888   8.353   7.392  13.900
 9686SOL     OW30889   0.445  11.957   3.574
 9686SOL    HW130890   0.507  11.940   3.503
 9686SOL    HW230891   0.402  12.039   3.548
 9687SOL     OW30892  12.318  14.471   9.724
 9687SOL    HW130893  12.383  14.487   9.655
 9687SOL    HW230894  12.310  14.376   9.728
 9688SOL     OW30895   6.379  13.176  14.668
 9688SOL    HW130896   6.370  13.248  14.605
 9688SOL    HW230897   6.364  13.217  14.753
 9689SOL     OW30898   7.826   2.232  14.753
 9689SOL    HW130899   7.907   2.276  14.779
 9689SOL    HW230900   7.855   2.156  14.703
 9690SOL     OW30901  14.743  12.745  11.603
 9690SOL    HW130902  14.836  12.762  11.612
 9690SOL    HW230903  14.708  12.823  11.558
 9691SOL     OW30904   2.533   1.631  11.303
 9691SOL    HW130905   2.590   1.641  11.378
 9691SOL    HW230906   2.502   1.540  11.308
 9692SOL     OW30907   6.616   4.973   3.912
 9692SOL    HW130908   6.654   5.058   3.936
 9692SOL    HW230909   6.673   4.909   3.953
 9693SOL     OW30910   5.414  12.896   4.903
 9693SOL    HW130911   5.349  12.903   4.833
 9693SOL    HW230912   5.385  12.821   4.955
 9694SOL     OW30913  14.819   9.989   3.195
 9694SOL    HW130914  14.751   9.955   3.137
 9694SOL    HW230915  14.842  10.074   3.157
 9695SOL     OW30916   9.379   2.861  10.880
 9695SOL    HW130917   9.473   2.871  10.897
 9695SOL    HW230918   9.337   2.907  10.952
 9696SOL     OW30919   4.038   1.437  13.374
 9696SOL    HW130920   4.030   1.432  13.470
 9696SOL    HW230921   4.092   1.361  13.350
 9697SOL     OW30922  14.219   0.075   6.243
 9697SOL    HW130923  14.133   0.092   6.206
 9697SOL    HW230924  14.238   0.152   6.296
 9698SOL     OW30925   0.669   4.543  11.416
 9698SOL    HW130926   0.736   4.480  11.443
 9698SOL    HW230927   0.677   4.615  11.478
 9699SOL     OW30928  13.945   9.256  14.295
 9699SOL    HW130929  14.014   9.316  14.268
 9699SOL    HW230930  13.977   9.170  14.269
 9700SOL     OW30931   0.149   5.146   6.032
 9700SOL    HW130932   0.193   5.069   5.995
 9700SOL    HW230933   0.218   5.212   6.038
 9701SOL     OW30934  13.450   0.641   4.101
 9701SOL    HW130935  13.411   0.601   4.179
 9701SOL    HW230936  13.540   0.662   4.127
 9702SOL     OW30937   0.097   3.925   4.228
 9702SOL    HW130938   0.100   3.894   4.138
 9702SOL    HW230939   0.178   3.975   4.239
 9703SOL     OW30940   6.047   5.766   3.880
 9703SOL    HW130941   6.062   5.674   3.904
 9703SOL    HW230942   6.029   5.809   3.964
 9704SOL     OW30943   0.582   4.233  13.758
 9704SOL    HW130944   0.652   4.288  13.722
 9704SOL    HW230945   0.502   4.282  13.740
 9705SOL     OW30946  12.624   1.498   3.945
 9705SOL    HW130947  12.692   1.550   3.988
 9705SOL    HW230948  12.669   1.420   3.912
 9706SOL     OW30949  10.606  11.136  13.506
 9706SOL    HW130950  10.527  11.085  13.516
 9706SOL    HW230951  10.678  11.074  13.521
 9707SOL     OW30952   8.152   9.900   4.483
 9707SOL    HW130953   8.110   9.896   4.397
 9707SOL    HW230954   8.094   9.952   4.537
 9708SOL     OW30955   7.302   3.730   0.849
 9708SOL    HW130956   7.369   3.691   0.792
 9708SOL    HW230957   7.350   3.754   0.928
 9709SOL     OW30958  11.335   9.641  10.742
 9709SOL    HW130959  11.417   9.687  10.727
 9709SOL    HW230960  11.359   9.548  10.745
 9710SOL     OW30961   6.929  10.045   7.700
 9710SOL    HW130962   7.017  10.063   7.667
 9710SOL    HW230963   6.931   9.952   7.722
 9711SOL     OW30964  13.509   2.709  11.603
 9711SOL    HW130965  13.598   2.683  11.578
 9711SOL    HW230966  13.456   2.631  11.591
 9712SOL     OW30967  13.186   9.531  12.462
 9712SOL    HW130968  13.186   9.436  12.466
 9712SOL    HW230969  13.123   9.553  12.393
 9713SOL     OW30970   9.301   0.918   3.624
 9713SOL    HW130971   9.295   0.995   3.681
 9713SOL    HW230972   9.395   0.900   3.618
 9714SOL     OW30973  10.159   2.100   9.212
 9714SOL    HW130974  10.107   2.178   9.234
 9714SOL    HW230975  10.151   2.093   9.117
 9715SOL     OW30976  14.226  13.332   1.957
 9715SOL    HW130977  14.300  13.383   1.924
 9715SOL    HW230978  14.169  13.396   1.999
 9716SOL     OW30979   5.336  10.850   7.546
 9716SOL    HW130980   5.314  10.884   7.459
 9716SOL    HW230981   5.422  10.810   7.535
 9717SOL     OW30982   9.463   8.564  10.024
 9717SOL    HW130983   9.539   8.507  10.034
 9717SOL    HW230984   9.417   8.530   9.947
 9718SOL     OW30985  10.243   6.426   1.423
 9718SOL    HW130986  10.267   6.505   1.471
 9718SOL    HW230987  10.153   6.407   1.450
 9719SOL     OW30988   1.617   7.598   3.219
 9719SOL    HW130989   1.613   7.679   3.269
 9719SOL    HW230990   1.689   7.613   3.157
 9720SOL     OW30991   1.193   3.078   8.165
 9720SOL    HW130992   1.273   3.115   8.128
 9720SOL    HW230993   1.169   3.008   8.104
 9721SOL     OW30994   9.816   6.283   2.057
 9721SOL    HW130995   9.851   6.201   2.092
 9721SOL    HW230996   9.785   6.331   2.134
 9722SOL     OW30997  10.795   3.633  12.462
 9722SOL    HW130998  10.871   3.685  12.489
 9722SOL    HW230999  10.763   3.677  12.384
 9723SOL     OW31000  12.346   1.204   1.843
 9723SOL    HW131001  12.376   1.114   1.857
 9723SOL    HW231002  12.406   1.240   1.778
 9724SOL     OW31003   7.242   6.542  13.273
 9724SOL    HW131004   7.217   6.458  13.312
 9724SOL    HW231005   7.338   6.541  13.276
 9725SOL     OW31006  10.774  11.166   9.679
 9725SOL    HW131007  10.721  11.088   9.661
 9725SOL    HW231008  10.709  11.236   9.687
 9726SOL     OW31009   1.767   0.662   9.693
 9726SOL    HW131010   1.729   0.739   9.735
 9726SOL    HW231011   1.810   0.614   9.763
 9727SOL     OW31012   5.653   4.657  10.005
 9727SOL    HW131013   5.691   4.717   9.941
 9727SOL    HW231014   5.601   4.712  10.063
 9728SOL     OW31015   4.326   3.682   6.110
 9728SOL    HW131016   4.245   3.719   6.075
 9728SOL    HW231017   4.343   3.604   6.057
 9729SOL     OW31018   8.269  13.169   0.432
 9729SOL    HW131019   8.260  13.246   0.488
 9729SOL    HW231020   8.346  13.188   0.377
 9730SOL     OW31021   3.829   7.901   0.230
 9730SOL    HW131022   3.782   7.945   0.301
 9730SOL    HW231023   3.867   7.823   0.271
 9731SOL     OW31024   9.426   4.316   3.820
 9731SOL    HW131025   9.335   4.308   3.792
 9731SOL    HW231026   9.474   4.255   3.764
 9732SOL     OW31027   3.201   3.638  11.232
 9732SOL    HW131028   3.231   3.547  11.230
 9732SOL    HW231029   3.219   3.671  11.145
 9733SOL     OW31030   3.870  13.827   0.502
 9733SOL    HW131031   3.885  13.852   0.593
 9733SOL    HW231032   3.898  13.903   0.451
 9734SOL     OW31033   5.084  11.324   3.697
 9734SOL    HW131034   5.092  11.231   3.719
 9734SOL    HW231035   5.033  11.361   3.769
 9735SOL     OW31036   2.472   0.067  14.351
 9735SOL    HW131037   2.397   0.010  14.364
 9735SOL    HW231038   2.488   0.064  14.256
 9736SOL     OW31039   8.607   2.145   5.587
 9736SOL    HW131040   8.600   2.210   5.657
 9736SOL    HW231041   8.545   2.175   5.520
 9737SOL     OW31042   8.258  11.762   5.913
 9737SOL    HW131043   8.293  11.767   6.002
 9737SOL    HW231044   8.224  11.673   5.905
 9738SOL     OW31045   2.394   5.797  11.619
 9738SOL    HW131046   2.325   5.844  11.575
 9738SOL    HW231047   2.366   5.792  11.711
 9739SOL     OW31048   0.394   3.769   1.250
 9739SOL    HW131049   0.349   3.818   1.319
 9739SOL    HW231050   0.415   3.834   1.184
 9740SOL     OW31051   8.288  14.611   3.778
 9740SOL    HW131052   8.363  14.652   3.823
 9740SOL    HW231053   8.216  14.617   3.841
 9741SOL     OW31054  13.902  12.607  11.883
 9741SOL    HW131055  13.873  12.679  11.828
 9741SOL    HW231056  13.984  12.638  11.922
 9742SOL     OW31057   8.569   9.899   2.686
 9742SOL    HW131058   8.572   9.937   2.598
 9742SOL    HW231059   8.509   9.955   2.735
 9743SOL     OW31060   2.123  12.182  12.299
 9743SOL    HW131061   2.188  12.145  12.359
 9743SOL    HW231062   2.040  12.144  12.327
 9744SOL     OW31063  11.447  14.346   5.648
 9744SOL    HW131064  11.425  14.256   5.626
 9744SOL    HW231065  11.466  14.388   5.564
 9745SOL     OW31066  11.094   8.789  11.400
 9745SOL    HW131067  11.049   8.872  11.414
 9745SOL    HW231068  11.076   8.767  11.309
 9746SOL     OW31069   1.075   8.587   4.487
 9746SOL    HW131070   1.149   8.540   4.525
 9746SOL    HW231071   1.031   8.628   4.562
 9747SOL     OW31072   4.903   6.012   2.318
 9747SOL    HW131073   4.855   5.982   2.395
 9747SOL    HW231074   4.839   6.008   2.247
 9748SOL     OW31075   7.783   0.411   6.203
 9748SOL    HW131076   7.704   0.368   6.169
 9748SOL    HW231077   7.850   0.343   6.201
 9749SOL     OW31078   4.782   1.079  10.754
 9749SOL    HW131079   4.790   1.168  10.720
 9749SOL    HW231080   4.857   1.032  10.717
 9750SOL     OW31081   4.122   6.570   2.201
 9750SOL    HW131082   4.154   6.660   2.208
 9750SOL    HW231083   4.165   6.523   2.273
 9751SOL     OW31084   4.755   8.450   9.681
 9751SOL    HW131085   4.806   8.466   9.760
 9751SOL    HW231086   4.805   8.384   9.633
 9752SOL     OW31087   2.236   3.886   4.024
 9752SOL    HW131088   2.194   3.815   3.975
 9752SOL    HW231089   2.257   3.951   3.957
 9753SOL     OW31090   4.298  12.503   4.025
 9753SOL    HW131091   4.354  12.472   3.955
 9753SOL    HW231092   4.238  12.430   4.042
 9754SOL     OW31093  10.960   7.013  13.524
 9754SOL    HW131094  11.047   7.042  13.552
 9754SOL    HW231095  10.938   6.942  13.583
 9755SOL     OW31096   6.813   9.871   1.492
 9755SOL    HW131097   6.795   9.952   1.443
 9755SOL    HW231098   6.882   9.895   1.553
 9756SOL     OW31099  14.712   5.671  10.071
 9756SOL    HW131100  14.754   5.584  10.072
 9756SOL    HW231101  14.618   5.652  10.064
 9757SOL     OW31102   8.335   9.059   0.008
 9757SOL    HW131103   8.243   9.039  14.867
 9757SOL    HW231104   8.382   9.002  14.820
 9758SOL     OW31105   7.555   4.997   3.421
 9758SOL    HW131106   7.630   5.012   3.363
 9758SOL    HW231107   7.504   5.078   3.416
 9759SOL     OW31108   4.163  11.010   9.712
 9759SOL    HW131109   4.119  11.091   9.739
 9759SOL    HW231110   4.092  10.950   9.692
 9760SOL     OW31111  13.935   4.570   5.882
 9760SOL    HW131112  13.885   4.498   5.844
 9760SOL    HW231113  13.872   4.642   5.888
 9761SOL     OW31114   8.070   8.108   9.763
 9761SOL    HW131115   8.101   8.028   9.805
 9761SOL    HW231116   8.074   8.174   9.833
 9762SOL     OW31117   2.638   4.754   4.058
 9762SOL    HW131118   2.708   4.691   4.074
 9762SOL    HW231119   2.666   4.801   3.979
 9763SOL     OW31120  13.916  13.676   5.968
 9763SOL    HW131121  13.948  13.757   5.927
 9763SOL    HW231122  13.831  13.660   5.927
 9764SOL     OW31123  10.768   3.792   1.571
 9764SOL    HW131124  10.766   3.885   1.592
 9764SOL    HW231125  10.740   3.749   1.652
 9765SOL     OW31126   6.360  11.193  11.906
 9765SOL    HW131127   6.363  11.157  11.995
 9765SOL    HW231128   6.447  11.232  11.894
 9766SOL     OW31129   4.387   3.732  12.791
 9766SOL    HW131130   4.421   3.748  12.879
 9766SOL    HW231131   4.464   3.716  12.737
 9767SOL     OW31132   0.457  13.807   7.366
 9767SOL    HW131133   0.547  13.838   7.363
 9767SOL    HW231134   0.411  13.871   7.420
 9768SOL     OW31135   7.966   3.824   7.025
 9768SOL    HW131136   7.890   3.808   7.081
 9768SOL    HW231137   8.040   3.825   7.086
 9769SOL     OW31138   6.340  13.028   1.231
 9769SOL    HW131139   6.261  13.023   1.285
 9769SOL    HW231140   6.337  13.115   1.192
 9770SOL     OW31141  12.982   0.766  11.079
 9770SOL    HW131142  12.979   0.794  10.987
 9770SOL    HW231143  12.949   0.676  11.077
 9771SOL     OW31144  14.722   8.835   1.432
 9771SOL    HW131145  14.781   8.790   1.492
 9771SOL    HW231146  14.678   8.900   1.486
 9772SOL     OW31147   6.630  13.877   8.724
 9772SOL    HW131148   6.633  13.892   8.819
 9772SOL    HW231149   6.643  13.964   8.686
 9773SOL     OW31150  10.646   0.285  13.383
 9773SOL    HW131151  10.669   0.314  13.295
 9773SOL    HW231152  10.652   0.189  13.379
 9774SOL     OW31153   7.445   7.767   9.236
 9774SOL    HW131154   7.366   7.748   9.185
 9774SOL    HW231155   7.444   7.862   9.248
 9775SOL     OW31156   4.538  10.462   4.749
 9775SOL    HW131157   4.560  10.550   4.780
 9775SOL    HW231158   4.464  10.435   4.804
 9776SOL     OW31159   4.512  11.128   1.990
 9776SOL    HW131160   4.477  11.040   2.003
 9776SOL    HW231161   4.554  11.125   1.904
 9777SOL     OW31162   9.196  13.517   5.947
 9777SOL    HW131163   9.146  13.435   5.949
 9777SOL    HW231164   9.132  13.585   5.965
 9778SOL     OW31165   3.439   2.703  10.059
 9778SOL    HW131166   3.491   2.734  10.134
 9778SOL    HW231167   3.472   2.753   9.985
 9779SOL     OW31168   3.271  11.491   1.860
 9779SOL    HW131169   3.366  11.486   1.871
 9779SOL    HW231170   3.259  11.540   1.779
 9780SOL     OW31171   6.369   1.820   0.081
 9780SOL    HW131172   6.321   1.750   0.125
 9780SOL    HW231173   6.331   1.824  14.865
 9781SOL     OW31174   1.731   6.219   7.798
 9781SOL    HW131175   1.815   6.183   7.824
 9781SOL    HW231176   1.740   6.314   7.811
 9782SOL     OW31177   5.219   1.222   1.154
 9782SOL    HW131178   5.237   1.133   1.183
 9782SOL    HW231179   5.130   1.240   1.183
 9783SOL     OW31180   2.211   7.896   6.373
 9783SOL    HW131181   2.171   7.831   6.315
 9783SOL    HW231182   2.196   7.979   6.330
 9784SOL     OW31183  10.051   9.107   3.957
 9784SOL    HW131184   9.963   9.108   3.995
 9784SOL    HW231185  10.045   9.163   3.880
 9785SOL     OW31186   8.687   6.198   7.345
 9785SOL    HW131187   8.727   6.269   7.395
 9785SOL    HW231188   8.678   6.234   7.256
 9786SOL     OW31189  11.172   8.998   3.047
 9786SOL    HW131190  11.152   9.028   2.958
 9786SOL    HW231191  11.151   8.905   3.046
 9787SOL     OW31192   1.778   8.202   6.083
 9787SOL    HW131193   1.834   8.150   6.026
 9787SOL    HW231194   1.703   8.144   6.101
 9788SOL     OW31195   1.120  12.118   0.258
 9788SOL    HW131196   1.112  12.024   0.279
 9788SOL    HW231197   1.041  12.137   0.206
 9789SOL     OW31198  14.075   5.866   0.507
 9789SOL    HW131199  14.051   5.945   0.556
 9789SOL    HW231200  14.081   5.895   0.416
 9790SOL     OW31201   2.607   4.339  13.979
 9790SOL    HW131202   2.592   4.416  14.033
 9790SOL    HW231203   2.584   4.366  13.891
 9791SOL     OW31204   4.082  13.998  11.637
 9791SOL    HW131205   4.064  14.064  11.570
 9791SOL    HW231206   4.177  14.002  11.650
 9792SOL     OW31207   0.959   3.604  11.312
 9792SOL    HW131208   0.911   3.529  11.276
 9792SOL    HW231209   0.903   3.680  11.294
 9793SOL     OW31210  14.665   1.920   8.949
 9793SOL    HW131211  14.739   1.869   8.915
 9793SOL    HW231212  14.690   1.939   9.040
 9794SOL     OW31213   8.358   3.734   9.366
 9794SOL    HW131214   8.323   3.800   9.305
 9794SOL    HW231215   8.449   3.761   9.380
 9795SOL     OW31216  13.974  10.399   8.259
 9795SOL    HW131217  14.039  10.377   8.192
 9795SOL    HW231218  14.022  10.396   8.342
 9796SOL     OW31219   2.113   6.530   2.075
 9796SOL    HW131220   2.188   6.475   2.097
 9796SOL    HW231221   2.048   6.511   2.142
 9797SOL     OW31222  12.245  14.396   0.554
 9797SOL    HW131223  12.225  14.346   0.633
 9797SOL    HW231224  12.340  14.386   0.543
 9798SOL     OW31225   0.427  14.510   0.590
 9798SOL    HW131226   0.489  14.467   0.648
 9798SOL    HW231227   0.398  14.587   0.639
 9799SOL     OW31228  13.939   4.849   0.075
 9799SOL    HW131229  13.930   4.773   0.132
 9799SOL    HW231230  13.942   4.924   0.135
 9800SOL     OW31231   2.770   9.012  10.981
 9800SOL    HW131232   2.844   9.032  10.924
 9800SOL    HW231233   2.694   9.018  10.924
 9801SOL     OW31234   8.224   3.164  12.407
 9801SOL    HW131235   8.289   3.145  12.475
 9801SOL    HW231236   8.190   3.251  12.430
 9802SOL     OW31237   1.772   1.933   5.086
 9802SOL    HW131238   1.857   1.954   5.047
 9802SOL    HW231239   1.735   1.865   5.029
 9803SOL     OW31240   7.777   1.034   6.014
 9803SOL    HW131241   7.721   1.110   5.998
 9803SOL    HW231242   7.866   1.069   6.017
 9804SOL     OW31243   4.632  14.630  12.159
 9804SOL    HW131244   4.715  14.586  12.141
 9804SOL    HW231245   4.569  14.558  12.167
 9805SOL     OW31246   7.248   9.599  12.276
 9805SOL    HW131247   7.289   9.671  12.323
 9805SOL    HW231248   7.177   9.570  12.333
 9806SOL     OW31249  13.241   1.370   0.585
 9806SOL    HW131250  13.293   1.371   0.665
 9806SOL    HW231251  13.199   1.456   0.582
 9807SOL     OW31252   4.711   1.213   1.810
 9807SOL    HW131253   4.758   1.256   1.882
 9807SOL    HW231254   4.756   1.244   1.731
 9808SOL     OW31255  14.648   5.179   4.342
 9808SOL    HW131256  14.653   5.219   4.429
 9808SOL    HW231257  14.559   5.197   4.313
 9809SOL     OW31258   7.669  10.752  12.869
 9809SOL    HW131259   7.690  10.777  12.779
 9809SOL    HW231260   7.576  10.729  12.866
 9810SOL     OW31261   3.119  10.961  10.156
 9810SOL    HW131262   3.038  10.973  10.206
 9810SOL    HW231263   3.183  11.014  10.203
 9811SOL     OW31264  12.180  14.159  12.729
 9811SOL    HW131265  12.154  14.188  12.641
 9811SOL    HW231266  12.216  14.237  12.771
 9812SOL     OW31267  12.671  10.987  10.066
 9812SOL    HW131268  12.576  10.984  10.054
 9812SOL    HW231269  12.702  10.904  10.029
 9813SOL     OW31270  10.344  14.564   2.881
 9813SOL    HW131271  10.352  14.649   2.925
 9813SOL    HW231272  10.414  14.564   2.815
 9814SOL     OW31273  12.719  11.022   0.363
 9814SOL    HW131274  12.709  11.019   0.268
 9814SOL    HW231275  12.668  11.098   0.390
 9815SOL     OW31276   5.717   6.932   7.643
 9815SOL    HW131277   5.793   6.880   7.671
 9815SOL    HW231278   5.655   6.868   7.610
 9816SOL     OW31279   1.853   8.718  12.036
 9816SOL    HW131280   1.779   8.666  12.005
 9816SOL    HW231281   1.845   8.801  11.989
 9817SOL     OW31282   7.194   6.958   4.299
 9817SOL    HW131283   7.135   7.033   4.307
 9817SOL    HW231284   7.214   6.952   4.206
 9818SOL     OW31285   2.405   5.012   5.648
 9818SOL    HW131286   2.401   4.940   5.584
 9818SOL    HW231287   2.360   4.977   5.725
 9819SOL     OW31288   5.793   0.748   3.068
 9819SOL    HW131289   5.736   0.673   3.050
 9819SOL    HW231290   5.876   0.726   3.028
 9820SOL     OW31291   1.961  12.006   6.798
 9820SOL    HW131292   1.997  11.955   6.726
 9820SOL    HW231293   1.871  12.025   6.773
 9821SOL     OW31294  13.074  12.127   3.455
 9821SOL    HW131295  13.000  12.180   3.484
 9821SOL    HW231296  13.034  12.052   3.410
 9822SOL     OW31297   2.047  12.489  12.454
 9822SOL    HW131298   2.082  12.443  12.377
 9822SOL    HW231299   2.089  12.575  12.451
 9823SOL     OW31300   5.718   1.038   5.039
 9823SOL    HW131301   5.732   1.056   4.946
 9823SOL    HW231302   5.787   1.086   5.083
 9824SOL     OW31303   1.452   6.973  13.306
 9824SOL    HW131304   1.383   6.940  13.249
 9824SOL    HW231305   1.476   7.058  13.269
 9825SOL     OW31306   5.203   3.381   4.459
 9825SOL    HW131307   5.207   3.341   4.372
 9825SOL    HW231308   5.171   3.470   4.443
 9826SOL     OW31309   7.990  14.081   6.836
 9826SOL    HW131310   7.920  14.017   6.851
 9826SOL    HW231311   7.966  14.124   6.754
 9827SOL     OW31312   3.942   2.028  12.594
 9827SOL    HW131313   3.919   2.087  12.522
 9827SOL    HW231314   4.011   1.973  12.558
 9828SOL     OW31315   1.998  10.222   4.462
 9828SOL    HW131316   2.071  10.165   4.436
 9828SOL    HW231317   2.004  10.227   4.557
 9829SOL     OW31318   1.757  11.600   5.446
 9829SOL    HW131319   1.714  11.681   5.471
 9829SOL    HW231320   1.834  11.627   5.396
 9830SOL     OW31321   3.045  12.354  10.280
 9830SOL    HW131322   3.010  12.388  10.198
 9830SOL    HW231323   3.133  12.324  10.258
 9831SOL     OW31324   4.998   5.635   5.535
 9831SOL    HW131325   5.077   5.685   5.554
 9831SOL    HW231326   5.025   5.544   5.541
 9832SOL     OW31327  12.978   6.195  11.722
 9832SOL    HW131328  13.071   6.217  11.728
 9832SOL    HW231329  12.932   6.276  11.744
 9833SOL     OW31330   6.522   8.802  11.738
 9833SOL    HW131331   6.571   8.839  11.664
 9833SOL    HW231332   6.548   8.710  11.741
 9834SOL     OW31333   4.081  13.576   4.649
 9834SOL    HW131334   4.061  13.536   4.564
 9834SOL    HW231335   3.999  13.615   4.677
 9835SOL     OW31336  11.116   6.139   1.737
 9835SOL    HW131337  11.151   6.067   1.789
 9835SOL    HW231338  11.164   6.216   1.767
 9836SOL     OW31339   8.488   1.446   8.539
 9836SOL    HW131340   8.507   1.462   8.446
 9836SOL    HW231341   8.555   1.497   8.585
 9837SOL     OW31342  11.608   5.640   2.103
 9837SOL    HW131343  11.537   5.637   2.167
 9837SOL    HW231344  11.565   5.626   2.019
 9838SOL     OW31345   2.658  13.411  10.510
 9838SOL    HW131346   2.703  13.492  10.488
 9838SOL    HW231347   2.714  13.369  10.575
 9839SOL     OW31348   5.969   6.003   4.386
 9839SOL    HW131349   6.040   6.050   4.429
 9839SOL    HW231350   5.945   6.057   4.311
 9840SOL     OW31351   0.586  13.250   1.007
 9840SOL    HW131352   0.621  13.162   0.997
 9840SOL    HW231353   0.659  13.308   0.983
 9841SOL     OW31354   4.107   9.379  12.394
 9841SOL    HW131355   4.118   9.284  12.408
 9841SOL    HW231356   4.113   9.416  12.482
 9842SOL     OW31357   0.960   6.261   7.217
 9842SOL    HW131358   1.049   6.255   7.183
 9842SOL    HW231359   0.941   6.355   7.216
 9843SOL     OW31360   7.261  12.691  12.248
 9843SOL    HW131361   7.187  12.726  12.197
 9843SOL    HW231362   7.246  12.596  12.249
 9844SOL     OW31363   4.600   5.617   8.952
 9844SOL    HW131364   4.621   5.533   8.911
 9844SOL    HW231365   4.653   5.618   9.032
 9845SOL     OW31366   5.495  13.751   4.843
 9845SOL    HW131367   5.521  13.810   4.772
 9845SOL    HW231368   5.570  13.750   4.902
 9846SOL     OW31369  14.411   5.503   9.224
 9846SOL    HW131370  14.347   5.466   9.162
 9846SOL    HW231371  14.477   5.543   9.168
 9847SOL     OW31372   8.572   7.383   1.330
 9847SOL    HW131373   8.632   7.410   1.260
 9847SOL    HW231374   8.630   7.350   1.399
 9848SOL     OW31375  14.677   5.487  12.182
 9848SOL    HW131376  14.610   5.520  12.122
 9848SOL    HW231377  14.666   5.540  12.261
 9849SOL     OW31378   4.661   9.505   8.540
 9849SOL    HW131379   4.583   9.450   8.543
 9849SOL    HW231380   4.666   9.533   8.448
 9850SOL     OW31381   5.612   7.202  10.321
 9850SOL    HW131382   5.574   7.236  10.402
 9850SOL    HW231383   5.702   7.181  10.343
 9851SOL     OW31384  12.511   7.745   6.729
 9851SOL    HW131385  12.468   7.811   6.783
 9851SOL    HW231386  12.526   7.671   6.787
 9852SOL     OW31387   6.636   1.377   9.965
 9852SOL    HW131388   6.710   1.436   9.983
 9852SOL    HW231389   6.642   1.310  10.033
 9853SOL     OW31390   1.845  14.388  13.664
 9853SOL    HW131391   1.765  14.436  13.685
 9853SOL    HW231392   1.914  14.453  13.668
 9854SOL     OW31393   4.382   5.420   7.502
 9854SOL    HW131394   4.382   5.362   7.426
 9854SOL    HW231395   4.470   5.457   7.503
 9855SOL     OW31396   8.345   8.116   7.559
 9855SOL    HW131397   8.395   8.065   7.495
 9855SOL    HW231398   8.358   8.207   7.532
 9856SOL     OW31399   7.499   3.827   0.077
 9856SOL    HW131400   7.488   3.771   0.000
 9856SOL    HW231401   7.464   3.912   0.050
 9857SOL     OW31402  11.156   1.315   9.408
 9857SOL    HW131403  11.190   1.243   9.356
 9857SOL    HW231404  11.129   1.381   9.343
 9858SOL     OW31405   6.240  12.020   6.087
 9858SOL    HW131406   6.297  11.945   6.105
 9858SOL    HW231407   6.160  11.981   6.052
 9859SOL     OW31408   1.518   9.538  10.557
 9859SOL    HW131409   1.455   9.510  10.490
 9859SOL    HW231410   1.559   9.457  10.586
 9860SOL     OW31411   3.327   3.273   4.449
 9860SOL    HW131412   3.301   3.364   4.463
 9860SOL    HW231413   3.250   3.232   4.411
 9861SOL     OW31414   1.085   4.163   8.063
 9861SOL    HW131415   1.054   4.156   8.153
 9861SOL    HW231416   1.005   4.167   8.010
 9862SOL     OW31417  14.711   6.846   6.648
 9862SOL    HW131418  14.678   6.870   6.735
 9862SOL    HW231419  14.633   6.840   6.593
 9863SOL     OW31420   8.059   8.368   7.996
 9863SOL    HW131421   8.131   8.421   8.032
 9863SOL    HW231422   7.980   8.420   8.012
 9864SOL     OW31423   7.479   1.392   8.303
 9864SOL    HW131424   7.556   1.446   8.285
 9864SOL    HW231425   7.406   1.438   8.261
 9865SOL     OW31426  10.467   3.136  11.649
 9865SOL    HW131427  10.517   3.215  11.672
 9865SOL    HW231428  10.392   3.169  11.601
 9866SOL     OW31429   9.137   0.169  11.837
 9866SOL    HW131430   9.217   0.172  11.784
 9866SOL    HW231431   9.169   0.157  11.927
 9867SOL     OW31432   4.073   9.273   5.703
 9867SOL    HW131433   4.037   9.355   5.737
 9867SOL    HW231434   4.066   9.281   5.608
 9868SOL     OW31435   9.004   5.550  12.590
 9868SOL    HW131436   8.923   5.593  12.618
 9868SOL    HW231437   8.979   5.459  12.573
 9869SOL     OW31438  13.272   1.080  14.809
 9869SOL    HW131439  13.179   1.069  14.791
 9869SOL    HW231440  13.294   1.003  14.863
 9870SOL     OW31441   0.937   0.848   7.412
 9870SOL    HW131442   0.918   0.786   7.482
 9870SOL    HW231443   1.024   0.825   7.382
 9871SOL     OW31444   6.841   9.340  13.254
 9871SOL    HW131445   6.837   9.309  13.344
 9871SOL    HW231446   6.798   9.425  13.256
 9872SOL     OW31447   4.300   8.962   8.531
 9872SOL    HW131448   4.293   8.905   8.454
 9872SOL    HW231449   4.378   9.015   8.514
 9873SOL     OW31450   9.397  13.454  12.367
 9873SOL    HW131451   9.465  13.512  12.401
 9873SOL    HW231452   9.339  13.438  12.442
 9874SOL     OW31453   1.657   9.105  12.098
 9874SOL    HW131454   1.739   9.141  12.132
 9874SOL    HW231455   1.600   9.181  12.088
 9875SOL     OW31456   2.701   3.899  10.189
 9875SOL    HW131457   2.715   3.811  10.154
 9875SOL    HW231458   2.784   3.944  10.174
 9876SOL     OW31459   9.043   6.145   5.298
 9876SOL    HW131460   9.043   6.100   5.213
 9876SOL    HW231461   9.132   6.180   5.306
 9877SOL     OW31462  14.566   0.961   2.754
 9877SOL    HW131463  14.655   0.969   2.789
 9877SOL    HW231464  14.576   0.965   2.659
 9878SOL     OW31465  12.870   7.002   6.327
 9878SOL    HW131466  12.831   6.930   6.376
 9878SOL    HW231467  12.809   7.075   6.339
 9879SOL     OW31468  10.072   3.029   7.431
 9879SOL    HW131469  10.047   2.937   7.425
 9879SOL    HW231470  10.148   3.030   7.490
 9880SOL     OW31471  11.381   5.819   8.843
 9880SOL    HW131472  11.312   5.767   8.801
 9880SOL    HW231473  11.368   5.907   8.808
 9881SOL     OW31474  12.857  13.660  11.431
 9881SOL    HW131475  12.887  13.678  11.342
 9881SOL    HW231476  12.933  13.678  11.486
 9882SOL     OW31477   5.031   2.597  13.604
 9882SOL    HW131478   5.093   2.659  13.643
 9882SOL    HW231479   4.949   2.647  13.598
 9883SOL     OW31480   2.452  10.213   8.136
 9883SOL    HW131481   2.392  10.144   8.106
 9883SOL    HW231482   2.398  10.270   8.190
 9884SOL     OW31483  13.694  12.770   5.126
 9884SOL    HW131484  13.740  12.724   5.196
 9884SOL    HW231485  13.691  12.861   5.155
 9885SOL     OW31486   9.242   0.170   7.603
 9885SOL    HW131487   9.220   0.185   7.695
 9885SOL    HW231488   9.328   0.128   7.606
 9886SOL     OW31489   5.889   3.765   9.423
 9886SOL    HW131490   5.845   3.790   9.505
 9886SOL    HW231491   5.897   3.669   9.428
 9887SOL     OW31492   6.018   0.072  11.382
 9887SOL    HW131493   6.004   0.104  11.292
 9887SOL    HW231494   6.096   0.119  11.411
 9888SOL     OW31495   6.235  14.078  10.787
 9888SOL    HW131496   6.173  14.121  10.847
 9888SOL    HW231497   6.293  14.028  10.845
 9889SOL     OW31498  12.762   6.209   7.832
 9889SOL    HW131499  12.783   6.301   7.821
 9889SOL    HW231500  12.815   6.181   7.907
 9890SOL     OW31501  14.380  10.952   7.179
 9890SOL    HW131502  14.354  10.874   7.131
 9890SOL    HW231503  14.317  10.959   7.251
 9891SOL     OW31504   8.756   5.445   0.281
 9891SOL    HW131505   8.777   5.529   0.324
 9891SOL    HW231506   8.665   5.456   0.253
 9892SOL     OW31507   6.544   6.669   2.848
 9892SOL    HW131508   6.635   6.698   2.853
 9892SOL    HW231509   6.530   6.649   2.756
 9893SOL     OW31510  10.386   5.441   2.594
 9893SOL    HW131511  10.398   5.533   2.619
 9893SOL    HW231512  10.291   5.431   2.583
 9894SOL     OW31513   8.813   1.806  14.699
 9894SOL    HW131514   8.880   1.865  14.663
 9894SOL    HW231515   8.810   1.732  14.639
 9895SOL     OW31516   4.220   0.687   0.688
 9895SOL    HW131517   4.311   0.708   0.709
 9895SOL    HW231518   4.185   0.647   0.768
 9896SOL     OW31519   3.901   2.080   8.729
 9896SOL    HW131520   3.909   2.175   8.720
 9896SOL    HW231521   3.971   2.045   8.675
 9897SOL     OW31522   1.434  14.504   4.575
 9897SOL    HW131523   1.468  14.576   4.629
 9897SOL    HW231524   1.468  14.522   4.487
 9898SOL     OW31525   6.008   0.137  14.155
 9898SOL    HW131526   6.042   0.058  14.114
 9898SOL    HW231527   6.013   0.204  14.087
 9899SOL     OW31528   7.582   4.682   9.016
 9899SOL    HW131529   7.640   4.691   9.092
 9899SOL    HW231530   7.542   4.595   9.027
 9900SOL     OW31531  14.193   0.561   7.385
 9900SOL    HW131532  14.274   0.601   7.417
 9900SOL    HW231533  14.189   0.584   7.293
 9901SOL     OW31534   5.190  14.243  14.234
 9901SOL    HW131535   5.245  14.186  14.181
 9901SOL    HW231536   5.170  14.317  14.177
 9902SOL     OW31537   7.772   5.880   4.625
 9902SOL    HW131538   7.802   5.792   4.645
 9902SOL    HW231539   7.816   5.936   4.689
 9903SOL     OW31540   3.095  13.440   1.057
 9903SOL    HW131541   3.141  13.386   0.993
 9903SOL    HW231542   3.069  13.518   1.008
 9904SOL     OW31543   2.868  10.973   4.675
 9904SOL    HW131544   2.803  10.903   4.666
 9904SOL    HW231545   2.919  10.948   4.753
 9905SOL     OW31546   3.275   7.692   6.159
 9905SOL    HW131547   3.207   7.626   6.170
 9905SOL    HW231548   3.240   7.751   6.092
 9906SOL     OW31549  11.443  14.730   5.456
 9906SOL    HW131550  11.494  14.732   5.537
 9906SOL    HW231551  11.437  14.637   5.434
 9907SOL     OW31552   6.487   3.577   4.062
 9907SOL    HW131553   6.406   3.627   4.073
 9907SOL    HW231554   6.458   3.486   4.056
 9908SOL     OW31555   1.344   1.817   5.431
 9908SOL    HW131556   1.271   1.826   5.492
 9908SOL    HW231557   1.392   1.900   5.438
 9909SOL     OW31558  13.410   6.850   2.393
 9909SOL    HW131559  13.470   6.843   2.319
 9909SOL    HW231560  13.458   6.902   2.458
 9910SOL     OW31561   1.328  13.017   7.546
 9910SOL    HW131562   1.264  12.953   7.577
 9910SOL    HW231563   1.403  13.006   7.603
 9911SOL     OW31564   4.819   6.325   3.540
 9911SOL    HW131565   4.875   6.365   3.474
 9911SOL    HW231566   4.859   6.348   3.624
 9912SOL     OW31567   7.822  13.086   6.467
 9912SOL    HW131568   7.909  13.099   6.504
 9912SOL    HW231569   7.828  13.119   6.377
 9913SOL     OW31570   7.667   6.462   0.132
 9913SOL    HW131571   7.577   6.433   0.118
 9913SOL    HW231572   7.689   6.435   0.221
 9914SOL     OW31573   1.284   4.550   4.849
 9914SOL    HW131574   1.361   4.606   4.860
 9914SOL    HW231575   1.245   4.545   4.936
 9915SOL     OW31576   6.381  12.564   3.778
 9915SOL    HW131577   6.293  12.573   3.815
 9915SOL    HW231578   6.375  12.485   3.724
 9916SOL     OW31579   2.524   1.464   6.523
 9916SOL    HW131580   2.558   1.538   6.473
 9916SOL    HW231581   2.571   1.388   6.489
 9917SOL     OW31582   2.967  13.167   3.544
 9917SOL    HW131583   2.950  13.143   3.453
 9917SOL    HW231584   3.037  13.232   3.539
 9918SOL     OW31585   7.874  14.719   9.206
 9918SOL    HW131586   7.936  14.683   9.270
 9918SOL    HW231587   7.800  14.659   9.209
 9919SOL     OW31588   7.167  10.189  13.926
 9919SOL    HW131589   7.122  10.146  13.853
 9919SOL    HW231590   7.198  10.272  13.890
 9920SOL     OW31591   4.271   6.413   8.750
 9920SOL    HW131592   4.218   6.486   8.781
 9920SOL    HW231593   4.250   6.407   8.657
 9921SOL     OW31594   2.427  10.831   8.980
 9921SOL    HW131595   2.408  10.924   8.992
 9921SOL    HW231596   2.479  10.806   9.057
 9922SOL     OW31597   4.554   3.796   8.580
 9922SOL    HW131598   4.643   3.767   8.600
 9922SOL    HW231599   4.502   3.767   8.655
 9923SOL     OW31600  12.486   4.751   8.390
 9923SOL    HW131601  12.519   4.836   8.359
 9923SOL    HW231602  12.559   4.691   8.375
 9924SOL     OW31603   2.252  11.098   1.416
 9924SOL    HW131604   2.281  11.044   1.343
 9924SOL    HW231605   2.319  11.084   1.484
 9925SOL     OW31606   4.736  12.610   8.567
 9925SOL    HW131607   4.827  12.638   8.576
 9925SOL    HW231608   4.740  12.533   8.510
 9926SOL     OW31609   4.517   5.035  14.114
 9926SOL    HW131610   4.611   5.040  14.102
 9926SOL    HW231611   4.499   5.084  14.194
 9927SOL     OW31612   8.278  13.091  10.294
 9927SOL    HW131613   8.340  13.152  10.255
 9927SOL    HW231614   8.250  13.133  10.376
 9928SOL     OW31615   4.769   3.075  10.926
 9928SOL    HW131616   4.779   3.069  11.021
 9928SOL    HW231617   4.829   3.145  10.900
 9929SOL     OW31618   7.961   2.490   2.161
 9929SOL    HW131619   7.875   2.521   2.191
 9929SOL    HW231620   7.984   2.422   2.224
 9930SOL     OW31621   2.908   9.224   7.128
 9930SOL    HW131622   2.995   9.258   7.108
 9930SOL    HW231623   2.869   9.290   7.185
 9931SOL     OW31624   7.076   9.021  13.063
 9931SOL    HW131625   7.060   8.951  13.126
 9931SOL    HW231626   7.029   8.994  12.984
 9932SOL     OW31627  12.528  10.667   6.844
 9932SOL    HW131628  12.547  10.664   6.750
 9932SOL    HW231629  12.446  10.716   6.850
 9933SOL     OW31630  10.984  12.862  12.474
 9933SOL    HW131631  10.969  12.950  12.439
 9933SOL    HW231632  10.949  12.866  12.563
 9934SOL     OW31633   4.626   4.525  13.915
 9934SOL    HW131634   4.706   4.571  13.941
 9934SOL    HW231635   4.579   4.587  13.861
 9935SOL     OW31636   3.165  12.319   2.967
 9935SOL    HW131637   3.208  12.252   3.020
 9935SOL    HW231638   3.072  12.302   2.978
 9936SOL     OW31639  10.908  14.473  13.571
 9936SOL    HW131640  10.842  14.533  13.536
 9936SOL    HW231641  10.861  14.424  13.639
 9937SOL     OW31642   6.871  12.632  11.872
 9937SOL    HW131643   6.815  12.707  11.891
 9937SOL    HW231644   6.811  12.561  11.851
 9938SOL     OW31645   0.165   1.634  11.653
 9938SOL    HW131646   0.165   1.584  11.572
 9938SOL    HW231647   0.082   1.682  11.651
 9939SOL     OW31648  12.449   4.777  13.501
 9939SOL    HW131649  12.389   4.850  13.515
 9939SOL    HW231650  12.526   4.816  13.460
 9940SOL     OW31651  11.798   2.264   5.053
 9940SOL    HW131652  11.746   2.306   4.985
 9940SOL    HW231653  11.835   2.186   5.010
 9941SOL     OW31654   5.127   6.484  13.639
 9941SOL    HW131655   5.118   6.533  13.720
 9941SOL    HW231656   5.221   6.464  13.634
 9942SOL     OW31657   2.544  12.615   6.818
 9942SOL    HW131658   2.504  12.644   6.736
 9942SOL    HW231659   2.617  12.560   6.791
 9943SOL     OW31660   8.981   1.195  12.437
 9943SOL    HW131661   9.026   1.244  12.368
 9943SOL    HW231662   9.050   1.153  12.487
 9944SOL     OW31663  12.395  11.354   0.803
 9944SOL    HW131664  12.452  11.329   0.730
 9944SOL    HW231665  12.319  11.393   0.761
 9945SOL     OW31666   8.617   0.170   3.654
 9945SOL    HW131667   8.598   0.201   3.565
 9945SOL    HW231668   8.712   0.172   3.660
 9946SOL     OW31669  13.529   9.161   9.225
 9946SOL    HW131670  13.578   9.176   9.306
 9946SOL    HW231671  13.578   9.093   9.180
 9947SOL     OW31672   0.926   0.772   5.418
 9947SOL    HW131673   0.916   0.856   5.374
 9947SOL    HW231674   0.865   0.774   5.491
 9948SOL     OW31675   2.813   4.939   1.413
 9948SOL    HW131676   2.772   4.950   1.499
 9948SOL    HW231677   2.748   4.974   1.351
 9949SOL     OW31678  11.334   1.110   2.518
 9949SOL    HW131679  11.285   1.170   2.574
 9949SOL    HW231680  11.287   1.113   2.434
 9950SOL     OW31681   3.097  14.843   8.104
 9950SOL    HW131682   3.187  14.834   8.137
 9950SOL    HW231683   3.042  14.832   8.181
 9951SOL     OW31684   6.511   2.110  10.337
 9951SOL    HW131685   6.574   2.168  10.380
 9951SOL    HW231686   6.463   2.166  10.278
 9952SOL     OW31687  13.990  12.352   2.110
 9952SOL    HW131688  14.015  12.404   2.186
 9952SOL    HW231689  13.971  12.417   2.042
 9953SOL     OW31690   8.673  13.658  10.236
 9953SOL    HW131691   8.716  13.683  10.318
 9953SOL    HW231692   8.615  13.587  10.261
 9954SOL     OW31693  14.128  11.255   9.841
 9954SOL    HW131694  14.198  11.244   9.906
 9954SOL    HW231695  14.150  11.193   9.772
 9955SOL     OW31696   8.544  14.844  11.592
 9955SOL    HW131697   8.581  14.759  11.571
 9955SOL    HW231698   8.606   0.011  11.654
 9956SOL     OW31699  14.667  11.552   9.129
 9956SOL    HW131700  14.626  11.626   9.084
 9956SOL    HW231701  14.623  11.475   9.093
 9957SOL     OW31702   1.952  13.082   1.128
 9957SOL    HW131703   2.043  13.100   1.104
 9957SOL    HW231704   1.944  12.987   1.120
 9958SOL     OW31705   0.113   2.850  13.980
 9958SOL    HW131706   0.053   2.834  13.907
 9958SOL    HW231707   0.091   2.782  14.044
 9959SOL     OW31708   8.822   7.377   7.895
 9959SOL    HW131709   8.894   7.338   7.946
 9959SOL    HW231710   8.755   7.309   7.893
 9960SOL     OW31711   3.666  11.362   3.355
 9960SOL    HW131712   3.736  11.319   3.404
 9960SOL    HW231713   3.603  11.389   3.422
 9961SOL     OW31714   0.172   1.941  12.633
 9961SOL    HW131715   0.102   1.896  12.680
 9961SOL    HW231716   0.239   1.874  12.619
 9962SOL     OW31717  12.271  13.233   8.896
 9962SOL    HW131718  12.346  13.195   8.850
 9962SOL    HW231719  12.195  13.184   8.862
 9963SOL     OW31720   6.318   4.251  13.045
 9963SOL    HW131721   6.297   4.166  13.084
 9963SOL    HW231722   6.413   4.259  13.055
 9964SOL     OW31723  11.645  11.628   9.298
 9964SOL    HW131724  11.578  11.676   9.250
 9964SOL    HW231725  11.701  11.696   9.336
 9965SOL     OW31726  11.981   0.358   4.171
 9965SOL    HW131727  12.053   0.413   4.203
 9965SOL    HW231728  11.992   0.275   4.217
 9966SOL     OW31729   1.615   5.492  12.853
 9966SOL    HW131730   1.680   5.536  12.907
 9966SOL    HW231731   1.593   5.555  12.784
 9967SOL     OW31732  10.839   7.051   8.893
 9967SOL    HW131733  10.870   6.964   8.869
 9967SOL    HW231734  10.897   7.111   8.846
 9968SOL     OW31735   0.928  11.291  13.069
 9968SOL    HW131736   0.969  11.246  13.143
 9968SOL    HW231737   0.840  11.253  13.063
 9969SOL     OW31738  13.412   1.734   8.435
 9969SOL    HW131739  13.413   1.648   8.392
 9969SOL    HW231740  13.369   1.718   8.520
 9970SOL     OW31741   8.432  11.828   6.570
 9970SOL    HW131742   8.429  11.903   6.511
 9970SOL    HW231743   8.508  11.777   6.541
 9971SOL     OW31744   4.641  12.184   9.298
 9971SOL    HW131745   4.688  12.244   9.240
 9971SOL    HW231746   4.554  12.177   9.260
 9972SOL     OW31747   7.083   3.317  12.018
 9972SOL    HW131748   7.120   3.235  11.984
 9972SOL    HW231749   7.026   3.348  11.947
 9973SOL     OW31750   7.735   5.185   8.081
 9973SOL    HW131751   7.655   5.232   8.103
 9973SOL    HW231752   7.745   5.196   7.987
 9974SOL     OW31753   2.965   8.612   9.172
 9974SOL    HW131754   2.966   8.653   9.258
 9974SOL    HW231755   2.958   8.684   9.110
 9975SOL     OW31756   3.589   4.432  14.731
 9975SOL    HW131757   3.509   4.415  14.681
 9975SOL    HW231758   3.593   4.362  14.796
 9976SOL     OW31759   4.102   4.241   8.416
 9976SOL    HW131760   4.025   4.237   8.472
 9976SOL    HW231761   4.102   4.331   8.382
 9977SOL     OW31762   2.916   7.129   8.916
 9977SOL    HW131763   2.901   7.058   8.979
 9977SOL    HW231764   2.997   7.104   8.871
 9978SOL     OW31765   0.296   4.100   6.898
 9978SOL    HW131766   0.270   4.018   6.857
 9978SOL    HW231767   0.220   4.157   6.887
 9979SOL     OW31768   6.201  13.894  14.104
 9979SOL    HW131769   6.291  13.895  14.070
 9979SOL    HW231770   6.204  13.951  14.181
 9980SOL     OW31771   7.040   7.751   2.523
 9980SOL    HW131772   7.049   7.676   2.581
 9980SOL    HW231773   7.069   7.718   2.437
 9981SOL     OW31774   8.014   6.340   5.924
 9981SOL    HW131775   8.086   6.366   5.866
 9981SOL    HW231776   8.055   6.286   5.991
 9982SOL     OW31777   9.380   2.174   5.587
 9982SOL    HW131778   9.298   2.192   5.541
 9982SOL    HW231779   9.431   2.255   5.577
 9983SOL     OW31780  14.553  12.807  10.619
 9983SOL    HW131781  14.523  12.798  10.529
 9983SOL    HW231782  14.517  12.731  10.664
 9984SOL     OW31783   7.147  12.727   7.781
 9984SOL    HW131784   7.154  12.798   7.717
 9984SOL    HW231785   7.201  12.756   7.855
 9985SOL     OW31786  13.490   4.618  13.393
 9985SOL    HW131787  13.465   4.596  13.303
 9985SOL    HW231788  13.419   4.674  13.424
 9986SOL     OW31789  13.121  11.808  12.994
 9986SOL    HW131790  13.088  11.725  13.029
 9986SOL    HW231791  13.192  11.782  12.934
 9987SOL     OW31792   1.956   4.701   4.467
 9987SOL    HW131793   1.968   4.649   4.547
 9987SOL    HW231794   1.924   4.638   4.402
 9988SOL     OW31795  11.948  12.703   9.511
 9988SOL    HW131796  11.948  12.793   9.478
 9988SOL    HW231797  11.887  12.657   9.453
 9989SOL     OW31798   1.434   6.880   2.140
 9989SOL    HW131799   1.388   6.806   2.101
 9989SOL    HW231800   1.420   6.870   2.234
 9990SOL     OW31801   7.979   1.886   9.697
 9990SOL    HW131802   8.015   1.835   9.625
 9990SOL    HW231803   7.889   1.905   9.670
 9991SOL     OW31804   8.187  14.000   4.535
 9991SOL    HW131805   8.144  14.002   4.621
 9991SOL    HW231806   8.163  13.914   4.499
 9992SOL     OW31807   3.409  12.165  14.668
 9992SOL    HW131808   3.352  12.112  14.612
 9992SOL    HW231809   3.461  12.102  14.717
 9993SOL     OW31810   1.088  13.404   4.085
 9993SOL    HW131811   1.178  13.377   4.072
 9993SOL    HW231812   1.043  13.380   4.004
 9994SOL     OW31813   2.638  11.546   5.305
 9994SOL    HW131814   2.547  11.548   5.335
 9994SOL    HW231815   2.632  11.532   5.211
 9995SOL     OW31816   1.259   9.095   9.712
 9995SOL    HW131817   1.278   9.188   9.698
 9995SOL    HW231818   1.178   9.080   9.662
 9996SOL     OW31819   8.532  14.005   7.570
 9996SOL    HW131820   8.481  14.078   7.606
 9996SOL    HW231821   8.572  14.041   7.491
 9997SOL     OW31822   7.389  13.761   8.760
 9997SOL    HW131823   7.453  13.813   8.711
 9997SOL    HW231824   7.311  13.817   8.765
 9998SOL     OW31825  14.432   5.954   0.467
 9998SOL    HW131826  14.500   5.999   0.416
 9998SOL    HW231827  14.384   5.902   0.402
 9999SOL     OW31828   5.769   7.155  13.348
 9999SOL    HW131829   5.850   7.207  13.349
 9999SOL    HW231830   5.750   7.140  13.441
10000SOL     OW31831  13.141   6.262   3.642
10000SOL    HW131832  13.151   6.356   3.656
10000SOL    HW231833  13.109   6.228   3.725
10001SOL     OW31834   3.248   8.007   0.744
10001SOL    HW131835   3.333   8.037   0.710
10001SOL    HW231836   3.192   8.085   0.740
10002SOL     OW31837   3.312   0.769   2.048
10002SOL    HW131838   3.221   0.796   2.061
10002SOL    HW231839   3.361   0.816   2.116
10003SOL     OW31840   5.510   9.763  10.016
10003SOL    HW131841   5.442   9.750   9.950
10003SOL    HW231842   5.591   9.771   9.966
10004SOL     OW31843   5.640   9.603   8.879
10004SOL    HW131844   5.604   9.554   8.805
10004SOL    HW231845   5.575   9.594   8.948
10005SOL     OW31846   2.232   7.378  10.515
10005SOL    HW131847   2.225   7.313  10.445
10005SOL    HW231848   2.233   7.326  10.595
10006SOL     OW31849  11.306   8.750  10.441
10006SOL    HW131850  11.391   8.790  10.463
10006SOL    HW231851  11.320   8.713  10.353
10007SOL     OW31852   9.255   9.236   3.029
10007SOL    HW131853   9.328   9.181   3.060
10007SOL    HW231854   9.295   9.294   2.965
10008SOL     OW31855   1.603   8.141   6.934
10008SOL    HW131856   1.577   8.100   6.851
10008SOL    HW231857   1.672   8.202   6.911
10009SOL     OW31858   1.178  11.929  14.133
10009SOL    HW131859   1.256  11.908  14.082
10009SOL    HW231860   1.168  11.854  14.192
10010SOL     OW31861   1.381  11.983   6.034
10010SOL    HW131862   1.336  12.067   6.045
10010SOL    HW231863   1.371  11.939   6.118
10011SOL     OW31864   9.705   6.874   7.707
10011SOL    HW131865   9.767   6.822   7.655
10011SOL    HW231866   9.664   6.932   7.643
10012SOL     OW31867  11.817   3.664   7.033
10012SOL    HW131868  11.728   3.700   7.039
10012SOL    HW231869  11.813   3.582   7.082
10013SOL     OW31870   3.437   1.844   0.069
10013SOL    HW131871   3.367   1.803   0.121
10013SOL    HW231872   3.516   1.794   0.091
10014SOL     OW31873  10.333   1.733  10.188
10014SOL    HW131874  10.312   1.768  10.102
10014SOL    HW231875  10.335   1.810  10.246
10015SOL     OW31876   2.748   9.997   3.755
10015SOL    HW131877   2.812   9.937   3.715
10015SOL    HW231878   2.671   9.943   3.772
10016SOL     OW31879   5.909   6.715  12.709
10016SOL    HW131880   5.926   6.754  12.794
10016SOL    HW231881   5.922   6.621  12.722
10017SOL     OW31882  12.304  14.378   8.415
10017SOL    HW131883  12.278  14.449   8.358
10017SOL    HW231884  12.373  14.332   8.367
10018SOL     OW31885  11.605  10.341   0.221
10018SOL    HW131886  11.547  10.272   0.253
10018SOL    HW231887  11.568  10.422   0.257
10019SOL     OW31888   6.413   1.466  12.094
10019SOL    HW131889   6.505   1.445  12.074
10019SOL    HW231890   6.396   1.545  12.042
10020SOL     OW31891   2.259  12.325   4.287
10020SOL    HW131892   2.241  12.255   4.224
10020SOL    HW231893   2.218  12.295   4.368
10021SOL     OW31894  13.106  11.644  12.323
10021SOL    HW131895  13.018  11.623  12.292
10021SOL    HW231896  13.144  11.697  12.253
10022SOL     OW31897  12.342   4.484   1.663
10022SOL    HW131898  12.285   4.421   1.618
10022SOL    HW231899  12.344   4.455   1.754
10023SOL     OW31900   3.369  12.247   9.903
10023SOL    HW131901   3.451  12.202   9.880
10023SOL    HW231902   3.300  12.184   9.880
10024SOL     OW31903   9.382  12.739   3.448
10024SOL    HW131904   9.463  12.755   3.496
10024SOL    HW231905   9.404  12.757   3.356
10025SOL     OW31906  11.325   1.629   1.549
10025SOL    HW131907  11.325   1.554   1.610
10025SOL    HW231908  11.324   1.706   1.606
10026SOL     OW31909   1.180  11.463   6.776
10026SOL    HW131910   1.091  11.452   6.743
10026SOL    HW231911   1.223  11.520   6.711
10027SOL     OW31912   1.401  12.561  13.337
10027SOL    HW131913   1.395  12.639  13.392
10027SOL    HW231914   1.428  12.594  13.252
10028SOL     OW31915   6.723   2.671  11.956
10028SOL    HW131916   6.768   2.648  11.874
10028SOL    HW231917   6.786   2.724  12.004
10029SOL     OW31918  11.859   0.026  11.865
10029SOL    HW131919  11.894  14.869  11.781
10029SOL    HW231920  11.934   0.022  11.924
10030SOL     OW31921   9.195   2.116   2.776
10030SOL    HW131922   9.266   2.158   2.726
10030SOL    HW231923   9.119   2.171   2.760
10031SOL     OW31924   5.892  13.937  14.620
10031SOL    HW131925   5.864  14.028  14.629
10031SOL    HW231926   5.817  13.886  14.652
10032SOL     OW31927  10.839  10.513   1.838
10032SOL    HW131928  10.910  10.498   1.775
10032SOL    HW231929  10.770  10.453   1.811
10033SOL     OW31930   1.542   4.116   9.303
10033SOL    HW131931   1.610   4.183   9.295
10033SOL    HW231932   1.469   4.161   9.346
10034SOL     OW31933   8.543   8.586  12.155
10034SOL    HW131934   8.521   8.617  12.067
10034SOL    HW231935   8.520   8.658  12.213
10035SOL     OW31936   7.728  14.453   3.411
10035SOL    HW131937   7.753  14.361   3.400
10035SOL    HW231938   7.798  14.502   3.368
10036SOL     OW31939   6.685   1.958   3.228
10036SOL    HW131940   6.648   1.872   3.250
10036SOL    HW231941   6.611   2.018   3.235
10037SOL     OW31942   5.938   4.848   3.778
10037SOL    HW131943   5.990   4.807   3.847
10037SOL    HW231944   5.892   4.920   3.821
10038SOL     OW31945   8.092   8.373   2.828
10038SOL    HW131946   8.156   8.435   2.864
10038SOL    HW231947   8.123   8.287   2.857
10039SOL     OW31948   3.090   9.325  14.690
10039SOL    HW131949   3.055   9.408  14.722
10039SOL    HW231950   3.181   9.323  14.722
10040SOL     OW31951  10.421   0.854   7.880
10040SOL    HW131952  10.329   0.853   7.906
10040SOL    HW231953  10.419   0.840   7.785
10041SOL     OW31954  11.790  10.401   4.383
10041SOL    HW131955  11.843  10.363   4.314
10041SOL    HW231956  11.842  10.390   4.462
10042SOL     OW31957   5.183  11.362   8.181
10042SOL    HW131958   5.134  11.414   8.118
10042SOL    HW231959   5.160  11.399   8.266
10043SOL     OW31960  11.968   2.829   7.655
10043SOL    HW131961  12.054   2.812   7.617
10043SOL    HW231962  11.972   2.791   7.743
10044SOL     OW31963   6.397   1.804   3.224
10044SOL    HW131964   6.439   1.720   3.243
10044SOL    HW231965   6.418   1.821   3.132
10045SOL     OW31966  11.124   6.995   3.423
10045SOL    HW131967  11.066   7.071   3.432
10045SOL    HW231968  11.156   6.980   3.512
10046SOL     OW31969   8.337   4.253  14.056
10046SOL    HW131970   8.410   4.295  14.010
10046SOL    HW231971   8.284   4.215  13.986
10047SOL     OW31972   9.519  11.820   9.337
10047SOL    HW131973   9.612  11.798   9.342
10047SOL    HW231974   9.510  11.866   9.253
10048SOL     OW31975   9.142   5.939  14.159
10048SOL    HW131976   9.224   5.946  14.110
10048SOL    HW231977   9.077   5.911  14.095
10049SOL     OW31978   5.448  11.300   3.945
10049SOL    HW131979   5.494  11.350   4.013
10049SOL    HW231980   5.357  11.301   3.972
10050SOL     OW31981   4.749   5.129   4.815
10050SOL    HW131982   4.797   5.146   4.896
10050SOL    HW231983   4.712   5.041   4.828
10051SOL     OW31984   3.385   6.111   1.515
10051SOL    HW131985   3.441   6.178   1.476
10051SOL    HW231986   3.301   6.153   1.527
10052SOL     OW31987  11.158   6.452   3.146
10052SOL    HW131988  11.201   6.389   3.204
10052SOL    HW231989  11.136   6.526   3.202
10053SOL     OW31990  14.711   5.231   5.472
10053SOL    HW131991  14.736   5.215   5.381
10053SOL    HW231992  14.702   5.143   5.509
10054SOL     OW31993   2.972   6.083  10.491
10054SOL    HW131994   2.912   6.051  10.558
10054SOL    HW231995   2.914   6.110  10.419
10055SOL     OW31996   9.540  11.578   9.780
10055SOL    HW131997   9.517  11.663   9.817
10055SOL    HW231998   9.457  11.543   9.747
10056SOL     OW31999   2.682   6.919  13.519
10056SOL    HW132000   2.640   6.833  13.510
10056SOL    HW232001   2.747   6.906  13.588
10057SOL     OW32002  11.434   0.468  13.012
10057SOL    HW132003  11.395   0.515  13.086
10057SOL    HW232004  11.422   0.526  12.937
10058SOL     OW32005  12.741  14.314   9.718
10058SOL    HW132006  12.832  14.337   9.702
10058SOL    HW232007  12.746  14.240   9.780
10059SOL     OW32008   9.436   1.299   4.666
10059SOL    HW132009   9.343   1.309   4.646
10059SOL    HW232010   9.465   1.387   4.691
10060SOL     OW32011  13.624   5.321   2.722
10060SOL    HW132012  13.663   5.234   2.716
10060SOL    HW232013  13.689   5.379   2.682
10061SOL     OW32014   4.651  12.085   7.803
10061SOL    HW132015   4.715  12.157   7.806
10061SOL    HW232016   4.638  12.061   7.894
10062SOL     OW32017   3.028   6.155   9.471
10062SOL    HW132018   2.985   6.118   9.394
10062SOL    HW232019   3.063   6.080   9.518
10063SOL     OW32020   0.505   6.555   9.986
10063SOL    HW132021   0.552   6.636  10.005
10063SOL    HW232022   0.416   6.572  10.016
10064SOL     OW32023  11.337   5.002   1.391
10064SOL    HW132024  11.262   4.945   1.376
10064SOL    HW232025  11.413   4.947   1.374
10065SOL     OW32026   2.271  14.535  11.166
10065SOL    HW132027   2.330  14.505  11.098
10065SOL    HW232028   2.304  14.622  11.190
10066SOL     OW32029   4.722   3.862   8.852
10066SOL    HW132030   4.763   3.835   8.770
10066SOL    HW232031   4.628   3.848   8.837
10067SOL     OW32032   9.438  10.091   3.082
10067SOL    HW132033   9.447  10.176   3.124
10067SOL    HW232034   9.466  10.105   2.991
10068SOL     OW32035   0.006   4.047   0.708
10068SOL    HW132036  14.806   4.097   0.671
10068SOL    HW232037   0.071   4.113   0.732
10069SOL     OW32038   5.091   3.441   7.910
10069SOL    HW132039   5.177   3.472   7.937
10069SOL    HW232040   5.065   3.381   7.979
10070SOL     OW32041   2.319  12.293   7.761
10070SOL    HW132042   2.388  12.352   7.792
10070SOL    HW232043   2.349  12.265   7.674
10071SOL     OW32044   7.291   2.424   0.263
10071SOL    HW132045   7.347   2.458   0.332
10071SOL    HW232046   7.234   2.361   0.307
10072SOL     OW32047   7.704  14.526  10.645
10072SOL    HW132048   7.736  14.436  10.651
10072SOL    HW232049   7.688  14.540  10.551
10073SOL     OW32050   9.352  10.619  14.804
10073SOL    HW132051   9.373  10.534  14.842
10073SOL    HW232052   9.412  10.680  14.846
10074SOL     OW32053   5.018   7.208   6.656
10074SOL    HW132054   5.003   7.282   6.714
10074SOL    HW232055   4.933   7.165   6.650
10075SOL     OW32056   4.406   0.680   3.452
10075SOL    HW132057   4.316   0.672   3.420
10075SOL    HW232058   4.456   0.711   3.376
10076SOL     OW32059   2.808   1.916  11.605
10076SOL    HW132060   2.828   1.975  11.679
10076SOL    HW232061   2.773   1.974  11.538
10077SOL     OW32062  14.403   4.543   4.845
10077SOL    HW132063  14.442   4.538   4.933
10077SOL    HW232064  14.369   4.632   4.839
10078SOL     OW32065   8.602   0.068   2.428
10078SOL    HW132066   8.694   0.071   2.455
10078SOL    HW232067   8.577  14.849   2.436
10079SOL     OW32068  14.718   0.205   6.474
10079SOL    HW132069  14.645   0.175   6.420
10079SOL    HW232070  14.795   0.161   6.436
10080SOL     OW32071   3.659  10.695  14.058
10080SOL    HW132072   3.658  10.734  14.146
10080SOL    HW232073   3.590  10.741  14.010
10081SOL     OW32074  14.413   7.352   9.000
10081SOL    HW132075  14.440   7.442   8.982
10081SOL    HW232076  14.484   7.315   9.053
10082SOL     OW32077  13.494  10.076   0.488
10082SOL    HW132078  13.576  10.119   0.467
10082SOL    HW232079  13.440  10.144   0.527
10083SOL     OW32080   8.312  11.794   1.841
10083SOL    HW132081   8.348  11.818   1.756
10083SOL    HW232082   8.262  11.713   1.824
10084SOL     OW32083   7.533  10.746   4.423
10084SOL    HW132084   7.602  10.680   4.417
10084SOL    HW232085   7.470  10.709   4.485
10085SOL     OW32086  13.896   5.004  14.676
10085SOL    HW132087  13.944   5.087  14.684
10085SOL    HW232088  13.915   4.957  14.756
10086SOL     OW32089   5.373   7.840   1.403
10086SOL    HW132090   5.323   7.761   1.380
10086SOL    HW232091   5.350   7.858   1.494
10087SOL     OW32092   7.646   8.583   4.980
10087SOL    HW132093   7.686   8.498   4.997
10087SOL    HW232094   7.639   8.625   5.066
10088SOL     OW32095   6.985  10.903   5.738
10088SOL    HW132096   7.031  10.929   5.817
10088SOL    HW232097   7.053  10.895   5.671
10089SOL     OW32098  13.723  11.765  13.565
10089SOL    HW132099  13.796  11.712  13.533
10089SOL    HW232100  13.658  11.762  13.495
10090SOL     OW32101  13.585   0.126  11.976
10090SOL    HW132102  13.548   0.049  12.020
10090SOL    HW232103  13.528   0.141  11.901
10091SOL     OW32104   3.041  13.471   9.096
10091SOL    HW132105   3.016  13.390   9.140
10091SOL    HW232106   2.963  13.498   9.048
10092SOL     OW32107   4.401   5.095  11.359
10092SOL    HW132108   4.371   5.178  11.398
10092SOL    HW232109   4.476   5.119  11.306
10093SOL     OW32110   1.179  10.549   6.570
10093SOL    HW132111   1.226  10.625   6.603
10093SOL    HW232112   1.087  10.566   6.593
10094SOL     OW32113  13.656  14.728   8.964
10094SOL    HW132114  13.565  14.722   8.934
10094SOL    HW232115  13.679  14.820   8.953
10095SOL     OW32116   4.266   8.387   6.243
10095SOL    HW132117   4.246   8.294   6.230
10095SOL    HW232118   4.200   8.417   6.305
10096SOL     OW32119   0.713   6.509   9.335
10096SOL    HW132120   0.672   6.497   9.421
10096SOL    HW232121   0.757   6.426   9.318
10097SOL     OW32122   0.281   8.537  10.043
10097SOL    HW132123   0.302   8.573   9.957
10097SOL    HW232124   0.191   8.565  10.060
10098SOL     OW32125  13.882   7.709   3.977
10098SOL    HW132126  13.890   7.805   3.979
10098SOL    HW232127  13.966   7.679   3.943
10099SOL     OW32128   2.699   8.961   0.827
10099SOL    HW132129   2.621   8.995   0.872
10099SOL    HW232130   2.705   9.014   0.748
10100SOL     OW32131   5.931   5.435   9.982
10100SOL    HW132132   5.953   5.367   9.918
10100SOL    HW232133   5.948   5.517   9.936
10101SOL     OW32134  13.536   2.261   3.732
10101SOL    HW132135  13.606   2.216   3.685
10101SOL    HW232136  13.456   2.233   3.687
10102SOL     OW32137   7.550  10.560   5.060
10102SOL    HW132138   7.504  10.479   5.083
10102SOL    HW232139   7.571  10.550   4.968
10103SOL     OW32140   2.843  12.444  13.656
10103SOL    HW132141   2.924  12.393  13.667
10103SOL    HW232142   2.807  12.453  13.744
10104SOL     OW32143   6.686   3.110   2.712
10104SOL    HW132144   6.665   3.187   2.765
10104SOL    HW232145   6.602   3.067   2.698
10105SOL     OW32146   8.079   2.821   5.964
10105SOL    HW132147   8.062   2.751   5.902
10105SOL    HW232148   8.151   2.788   6.018
10106SOL     OW32149  12.235  12.031   3.611
10106SOL    HW132150  12.259  12.101   3.550
10106SOL    HW232151  12.308  11.969   3.607
10107SOL     OW32152   6.431  11.068  12.421
10107SOL    HW132153   6.499  11.009  12.388
10107SOL    HW232154   6.361  11.010  12.450
10108SOL     OW32155   4.085   9.024   5.794
10108SOL    HW132156   4.024   8.996   5.726
10108SOL    HW232157   4.092   9.119   5.782
10109SOL     OW32158   7.128   2.228   0.406
10109SOL    HW132159   7.035   2.251   0.412
10109SOL    HW232160   7.130   2.135   0.430
10110SOL     OW32161   7.131   7.824   0.639
10110SOL    HW132162   7.066   7.819   0.709
10110SOL    HW232163   7.107   7.902   0.588
10111SOL     OW32164  13.998   2.809   3.452
10111SOL    HW132165  13.913   2.766   3.456
10111SOL    HW232166  13.986   2.890   3.503
10112SOL     OW32167   6.761   3.512   4.060
10112SOL    HW132168   6.763   3.461   3.979
10112SOL    HW232169   6.675   3.554   4.060
10113SOL     OW32170   4.792   5.586   3.703
10113SOL    HW132171   4.763   5.552   3.618
10113SOL    HW232172   4.796   5.509   3.759
10114SOL     OW32173   3.558   0.317  12.596
10114SOL    HW132174   3.518   0.404  12.607
10114SOL    HW232175   3.652   0.334  12.600
10115SOL     OW32176   2.769   7.269   2.360
10115SOL    HW132177   2.839   7.235   2.303
10115SOL    HW232178   2.758   7.203   2.427
10116SOL     OW32179   9.973   3.697  10.851
10116SOL    HW132180  10.016   3.736  10.775
10116SOL    HW232181  10.031   3.625  10.876
10117SOL     OW32182   9.030   0.034   0.665
10117SOL    HW132183   9.107   0.068   0.619
10117SOL    HW232184   8.967   0.106   0.662
10118SOL     OW32185   4.246   5.830   8.398
10118SOL    HW132186   4.295   5.749   8.412
10118SOL    HW232187   4.240   5.871   8.484
10119SOL     OW32188  14.141  10.228   2.757
10119SOL    HW132189  14.122  10.135   2.741
10119SOL    HW232190  14.061  10.262   2.797
10120SOL     OW32191  13.388  12.037   6.474
10120SOL    HW132192  13.297  12.015   6.494
10120SOL    HW232193  13.384  12.129   6.447
10121SOL     OW32194   4.738   0.244   0.192
10121SOL    HW132195   4.693   0.327   0.207
10121SOL    HW232196   4.754   0.242   0.098
10122SOL     OW32197   3.226   6.719   1.427
10122SOL    HW132198   3.270   6.707   1.343
10122SOL    HW232199   3.220   6.814   1.438
10123SOL     OW32200   6.467   2.146   3.224
10123SOL    HW132201   6.386   2.106   3.193
10123SOL    HW232202   6.440   2.200   3.299
10124SOL     OW32203   8.120   9.816   5.962
10124SOL    HW132204   8.048   9.754   5.970
10124SOL    HW232205   8.199   9.763   5.977
10125SOL     OW32206   7.248   1.757   7.721
10125SOL    HW132207   7.158   1.784   7.703
10125SOL    HW232208   7.272   1.701   7.647
10126SOL     OW32209  13.215   6.538   8.861
10126SOL    HW132210  13.130   6.582   8.865
10126SOL    HW232211  13.274   6.602   8.822
10127SOL     OW32212   8.670  13.635   8.150
10127SOL    HW132213   8.706  13.685   8.077
10127SOL    HW232214   8.648  13.702   8.216
10128SOL     OW32215   6.643   7.532   7.870
10128SOL    HW132216   6.655   7.622   7.898
10128SOL    HW232217   6.693   7.526   7.788
10129SOL     OW32218   9.894   0.499   3.984
10129SOL    HW132219   9.807   0.472   4.013
10129SOL    HW232220   9.952   0.431   4.017
10130SOL     OW32221   8.356   9.790   7.991
10130SOL    HW132222   8.349   9.801   8.086
10130SOL    HW232223   8.318   9.870   7.955
10131SOL     OW32224   5.136  13.012   5.032
10131SOL    HW132225   5.199  12.976   4.968
10131SOL    HW232226   5.181  13.004   5.116
10132SOL     OW32227  12.423   8.745   1.288
10132SOL    HW132228  12.486   8.813   1.265
10132SOL    HW232229  12.425   8.684   1.213
10133SOL     OW32230   4.083  11.549   6.025
10133SOL    HW132231   4.093  11.639   5.995
10133SOL    HW232232   4.079  11.555   6.120
10134SOL     OW32233  12.059   6.612   2.678
10134SOL    HW132234  12.006   6.647   2.749
10134SOL    HW232235  12.104   6.688   2.642
10135SOL     OW32236   3.117  14.231   7.829
10135SOL    HW132237   3.096  14.138   7.831
10135SOL    HW232238   3.035  14.275   7.854
10136SOL     OW32239   9.834  12.854  13.282
10136SOL    HW132240   9.909  12.912  13.264
10136SOL    HW232241   9.850  12.821  13.370
10137SOL     OW32242   5.703   7.008  14.417
10137SOL    HW132243   5.648   7.075  14.459
10137SOL    HW232244   5.654   6.980  14.341
10138SOL     OW32245   0.984  12.788   0.787
10138SOL    HW132246   0.900  12.833   0.798
10138SOL    HW232247   1.018  12.778   0.876
10139SOL     OW32248  14.172  11.364  11.776
10139SOL    HW132249  14.116  11.417  11.832
10139SOL    HW232250  14.149  11.274  11.797
10140SOL     OW32251   9.887   1.446   7.337
10140SOL    HW132252   9.849   1.447   7.425
10140SOL    HW232253   9.837   1.512   7.289
10141SOL     OW32254   1.768   8.824  14.060
10141SOL    HW132255   1.792   8.897  14.003
10141SOL    HW232256   1.847   8.771  14.067
10142SOL     OW32257  10.509  12.877   3.891
10142SOL    HW132258  10.536  12.818   3.820
10142SOL    HW232259  10.507  12.821   3.969
10143SOL     OW32260  14.658  11.315  13.171
10143SOL    HW132261  14.570  11.327  13.208
10143SOL    HW232262  14.698  11.402  13.177
10144SOL     OW32263   3.089   1.273   6.322
10144SOL    HW132264   3.172   1.281   6.369
10144SOL    HW232265   3.087   1.349   6.264
10145SOL     OW32266  11.225  10.450  10.725
10145SOL    HW132267  11.249  10.359  10.746
10145SOL    HW232268  11.305  10.500  10.739
10146SOL     OW32269  13.770   5.601   0.446
10146SOL    HW132270  13.757   5.539   0.517
10146SOL    HW232271  13.744   5.553   0.367
10147SOL     OW32272  14.144   6.354   2.000
10147SOL    HW132273  14.146   6.311   1.914
10147SOL    HW232274  14.214   6.312   2.049
10148SOL     OW32275   6.900   3.486   4.664
10148SOL    HW132276   6.841   3.500   4.590
10148SOL    HW232277   6.898   3.568   4.712
10149SOL     OW32278   5.174   8.169  10.345
10149SOL    HW132279   5.230   8.125  10.409
10149SOL    HW232280   5.149   8.100  10.283
10150SOL     OW32281   0.082  10.618  10.908
10150SOL    HW132282   0.146  10.579  10.848
10150SOL    HW232283   0.066  10.705  10.873
10151SOL     OW32284  12.064   5.288  12.071
10151SOL    HW132285  12.141   5.232  12.059
10151SOL    HW232286  12.007   5.267  11.997
10152SOL     OW32287  10.909   5.075   8.609
10152SOL    HW132288  10.866   5.063   8.693
10152SOL    HW232289  10.995   5.111   8.630
10153SOL     OW32290  14.347  14.755   7.339
10153SOL    HW132291  14.319  14.753   7.431
10153SOL    HW232292  14.276  14.711   7.292
10154SOL     OW32293  12.552   6.504   9.093
10154SOL    HW132294  12.612   6.550   9.152
10154SOL    HW232295  12.475   6.487   9.146
10155SOL     OW32296   5.284  12.781   1.584
10155SOL    HW132297   5.211  12.764   1.644
10155SOL    HW232298   5.361  12.784   1.641
10156SOL     OW32299   6.210  13.918   5.996
10156SOL    HW132300   6.125  13.879   5.979
10156SOL    HW232301   6.258  13.852   6.047
10157SOL     OW32302  10.524   0.581  10.341
10157SOL    HW132303  10.487   0.598  10.255
10157SOL    HW232304  10.556   0.666  10.371
10158SOL     OW32305   5.080   5.561   1.230
10158SOL    HW132306   4.991   5.545   1.261
10158SOL    HW232307   5.070   5.571   1.136
10159SOL     OW32308   6.011   9.988  12.015
10159SOL    HW132309   5.994   9.990  11.920
10159SOL    HW232310   6.077   9.920  12.025
10160SOL     OW32311   7.270   6.825   6.356
10160SOL    HW132312   7.181   6.847   6.384
10160SOL    HW232313   7.325   6.891   6.399
10161SOL     OW32314   2.397  13.087   4.535
10161SOL    HW132315   2.380  13.040   4.616
10161SOL    HW232316   2.387  13.180   4.558
10162SOL     OW32317   8.152   5.352   1.845
10162SOL    HW132318   8.209   5.276   1.853
10162SOL    HW232319   8.075   5.331   1.898
10163SOL     OW32320   5.345   8.657  10.364
10163SOL    HW132321   5.284   8.662  10.437
10163SOL    HW232322   5.345   8.564  10.339
10164SOL     OW32323  14.512   9.055   4.363
10164SOL    HW132324  14.517   9.001   4.284
10164SOL    HW232325  14.464   9.000   4.425
10165SOL     OW32326   5.943  12.614   9.921
10165SOL    HW132327   5.933  12.540   9.861
10165SOL    HW232328   5.865  12.611   9.976
10166SOL     OW32329  11.586   1.009   9.732
10166SOL    HW132330  11.527   1.075   9.766
10166SOL    HW232331  11.674   1.043   9.751
10167SOL     OW32332   9.802   2.917   6.973
10167SOL    HW132333   9.708   2.897   6.974
10167SOL    HW232334   9.806   3.011   6.993
10168SOL     OW32335   0.724   6.638   2.372
10168SOL    HW132336   0.767   6.599   2.296
10168SOL    HW232337   0.787   6.702   2.405
10169SOL     OW32338  12.716   6.813   7.306
10169SOL    HW132339  12.764   6.730   7.313
10169SOL    HW232340  12.680   6.827   7.394
10170SOL     OW32341  14.021  11.125   2.718
10170SOL    HW132342  13.933  11.127   2.682
10170SOL    HW232343  14.019  11.056   2.784
10171SOL     OW32344   7.631  12.452   5.179
10171SOL    HW132345   7.554  12.431   5.127
10171SOL    HW232346   7.663  12.535   5.141
10172SOL     OW32347  11.290  11.219   4.067
10172SOL    HW132348  11.282  11.146   4.129
10172SOL    HW232349  11.366  11.268   4.098
10173SOL     OW32350   9.634  13.546   6.179
10173SOL    HW132351   9.589  13.461   6.173
10173SOL    HW232352   9.576  13.601   6.231
10174SOL     OW32353   4.130   0.038   6.252
10174SOL    HW132354   4.189   0.061   6.324
10174SOL    HW232355   4.185  14.867   6.188
10175SOL     OW32356  13.997  13.569  11.932
10175SOL    HW132357  14.074  13.624  11.922
10175SOL    HW232358  14.029  13.480  11.915
10176SOL     OW32359   6.835   2.845   6.165
10176SOL    HW132360   6.866   2.780   6.229
10176SOL    HW232361   6.839   2.799   6.081
10177SOL     OW32362   1.762   1.468  13.927
10177SOL    HW132363   1.847   1.458  13.969
10177SOL    HW232364   1.720   1.539  13.976
10178SOL     OW32365  12.180   9.663   9.499
10178SOL    HW132366  12.126   9.604   9.553
10178SOL    HW232367  12.124   9.739   9.484
10179SOL     OW32368   2.886   5.421   1.448
10179SOL    HW132369   2.918   5.390   1.364
10179SOL    HW232370   2.790   5.416   1.441
10180SOL     OW32371   0.821   2.136   4.020
10180SOL    HW132372   0.899   2.081   4.026
10180SOL    HW232373   0.826   2.193   4.096
10181SOL     OW32374   8.939  13.534   5.096
10181SOL    HW132375   8.968  13.567   5.181
10181SOL    HW232376   8.876  13.466   5.117
10182SOL     OW32377  14.363   2.732  13.173
10182SOL    HW132378  14.356   2.810  13.118
10182SOL    HW232379  14.457   2.712  13.174
10183SOL     OW32380   1.797   6.015   2.929
10183SOL    HW132381   1.811   6.080   2.997
10183SOL    HW232382   1.776   6.065   2.851
10184SOL     OW32383  10.871   0.206   6.164
10184SOL    HW132384  10.909   0.193   6.077
10184SOL    HW232385  10.861   0.301   6.172
10185SOL     OW32386   3.315   5.094   1.478
10185SOL    HW132387   3.330   5.033   1.550
10185SOL    HW232388   3.326   5.042   1.399
10186SOL     OW32389   7.252   2.236  10.803
10186SOL    HW132390   7.278   2.227  10.895
10186SOL    HW232391   7.160   2.208  10.801
10187SOL     OW32392   4.755   7.480   8.600
10187SOL    HW132393   4.690   7.473   8.669
10187SOL    HW232394   4.704   7.482   8.519
10188SOL     OW32395  12.567   1.216   9.373
10188SOL    HW132396  12.576   1.133   9.326
10188SOL    HW232397  12.550   1.280   9.305
10189SOL     OW32398  14.488   9.987   9.424
10189SOL    HW132399  14.521   9.897   9.428
10189SOL    HW232400  14.563  10.042   9.446
10190SOL     OW32401  14.659  11.580   6.541
10190SOL    HW132402  14.639  11.507   6.601
10190SOL    HW232403  14.574  11.617   6.519
10191SOL     OW32404  13.352  10.804   2.846
10191SOL    HW132405  13.300  10.823   2.768
10191SOL    HW232406  13.289  10.808   2.918
10192SOL     OW32407   9.639  10.880  11.870
10192SOL    HW132408   9.635  10.905  11.962
10192SOL    HW232409   9.684  10.953  11.827
10193SOL     OW32410  13.217   1.207  13.812
10193SOL    HW132411  13.295   1.216  13.757
10193SOL    HW232412  13.147   1.186  13.751
10194SOL     OW32413  12.873   3.302   4.200
10194SOL    HW132414  12.937   3.332   4.135
10194SOL    HW232415  12.788   3.325   4.163
10195SOL     OW32416   8.778   8.487   9.622
10195SOL    HW132417   8.783   8.497   9.717
10195SOL    HW232418   8.865   8.512   9.591
10196SOL     OW32419  13.814   3.797   3.650
10196SOL    HW132420  13.760   3.717   3.649
10196SOL    HW232421  13.903   3.766   3.633
10197SOL     OW32422   5.844   7.003   9.861
10197SOL    HW132423   5.797   7.019   9.780
10197SOL    HW232424   5.848   6.908   9.870
10198SOL     OW32425  10.350  11.962   1.268
10198SOL    HW132426  10.344  11.932   1.359
10198SOL    HW232427  10.438  12.000   1.261
10199SOL     OW32428   8.095   3.775   9.669
10199SOL    HW132429   8.186   3.793   9.644
10199SOL    HW232430   8.059   3.862   9.688
10200SOL     OW32431   9.411   6.738   1.336
10200SOL    HW132432   9.324   6.734   1.374
10200SOL    HW232433   9.454   6.658   1.367
10201SOL     OW32434   4.489   0.057  14.300
10201SOL    HW132435   4.512   0.090  14.387
10201SOL    HW232436   4.394   0.053  14.300
10202SOL     OW32437   7.656   5.829   9.713
10202SOL    HW132438   7.646   5.877   9.795
10202SOL    HW232439   7.616   5.885   9.647
10203SOL     OW32440  11.430  13.407   4.192
10203SOL    HW132441  11.380  13.330   4.167
10203SOL    HW232442  11.388  13.439   4.272
10204SOL     OW32443   4.978   7.892  12.115
10204SOL    HW132444   4.982   7.834  12.039
10204SOL    HW232445   4.969   7.833  12.190
10205SOL     OW32446   1.561   4.939   3.660
10205SOL    HW132447   1.498   4.969   3.595
10205SOL    HW232448   1.544   4.845   3.669
10206SOL     OW32449   2.128   1.044  13.433
10206SOL    HW132450   2.194   1.109  13.454
10206SOL    HW232451   2.078   1.032  13.514
10207SOL     OW32452   7.951  12.601   8.401
10207SOL    HW132453   7.956  12.688   8.361
10207SOL    HW232454   7.984  12.613   8.490
10208SOL     OW32455  10.317   9.980   3.926
10208SOL    HW132456  10.365   9.948   4.003
10208SOL    HW232457  10.256   9.909   3.905
10209SOL     OW32458   3.140   8.471  12.586
10209SOL    HW132459   3.155   8.385  12.545
10209SOL    HW232460   3.188   8.532  12.530
10210SOL     OW32461  10.329   2.615  14.482
10210SOL    HW132462  10.242   2.652  14.467
10210SOL    HW232463  10.361   2.593  14.395
10211SOL     OW32464   3.611   0.248   5.540
10211SOL    HW132465   3.521   0.215   5.550
10211SOL    HW232466   3.617   0.318   5.605
10212SOL     OW32467   8.849   9.963   0.461
10212SOL    HW132468   8.856   9.951   0.366
10212SOL    HW232469   8.839   9.875   0.496
10213SOL     OW32470   7.817  11.688  11.074
10213SOL    HW132471   7.809  11.659  11.165
10213SOL    HW232472   7.868  11.769  11.079
10214SOL     OW32473   2.299   5.805  11.156
10214SOL    HW132474   2.344   5.889  11.155
10214SOL    HW232475   2.251   5.804  11.239
10215SOL     OW32476   3.388   6.697   9.675
10215SOL    HW132477   3.408   6.777   9.723
10215SOL    HW232478   3.472   6.669   9.639
10216SOL     OW32479   5.066  10.757   7.505
10216SOL    HW132480   5.144  10.813   7.505
10216SOL    HW232481   5.058  10.726   7.415
10217SOL     OW32482   4.540   0.565   6.954
10217SOL    HW132483   4.602   0.637   6.960
10217SOL    HW232484   4.591   0.487   6.976
10218SOL     OW32485   4.863   2.188   7.963
10218SOL    HW132486   4.864   2.281   7.988
10218SOL    HW232487   4.945   2.174   7.917
10219SOL     OW32488   7.643   7.477   3.604
10219SOL    HW132489   7.651   7.383   3.586
10219SOL    HW232490   7.553   7.488   3.635
10220SOL     OW32491  10.797  10.873  10.227
10220SOL    HW132492  10.787  10.887  10.133
10220SOL    HW232493  10.760  10.785  10.241
10221SOL     OW32494   2.740  11.312  13.427
10221SOL    HW132495   2.671  11.369  13.392
10221SOL    HW232496   2.694  11.249  13.483
10222SOL     OW32497   9.635   0.612   0.052
10222SOL    HW132498   9.639   0.636   0.144
10222SOL    HW232499   9.674   0.687   0.006
10223SOL     OW32500   1.335  14.198  13.065
10223SOL    HW132501   1.410  14.146  13.037
10223SOL    HW232502   1.295  14.146  13.135
10224SOL     OW32503   5.460   1.066   2.124
10224SOL    HW132504   5.527   0.998   2.114
10224SOL    HW232505   5.464   1.116   2.043
10225SOL     OW32506  13.015   0.137  11.716
10225SOL    HW132507  13.036   0.150  11.623
10225SOL    HW232508  13.061   0.208  11.761
10226SOL     OW32509   9.266   9.300   2.509
10226SOL    HW132510   9.260   9.205   2.510
10226SOL    HW232511   9.355   9.319   2.539
10227SOL     OW32512   0.869   1.408   6.859
10227SOL    HW132513   0.795   1.349   6.875
10227SOL    HW232514   0.847   1.489   6.905
10228SOL     OW32515   4.751  12.824   2.187
10228SOL    HW132516   4.746  12.911   2.227
10228SOL    HW232517   4.815  12.776   2.240
10229SOL     OW32518   6.459   3.373  11.266
10229SOL    HW132519   6.378   3.373  11.318
10229SOL    HW232520   6.437   3.424  11.188
10230SOL     OW32521   4.962   4.758   4.629
10230SOL    HW132522   4.891   4.738   4.690
10230SOL    HW232523   4.929   4.833   4.579
10231SOL     OW32524   2.903   8.674   6.823
10231SOL    HW132525   2.945   8.596   6.788
10231SOL    HW232526   2.960   8.702   6.894
10232SOL     OW32527   8.858   1.109   8.310
10232SOL    HW132528   8.836   1.018   8.288
10232SOL    HW232529   8.802   1.130   8.384
10233SOL     OW32530   0.922   7.625   1.379
10233SOL    HW132531   0.832   7.595   1.388
10233SOL    HW232532   0.916   7.714   1.345
10234SOL     OW32533   2.628  12.535   9.041
10234SOL    HW132534   2.609  12.625   9.016
10234SOL    HW232535   2.696  12.507   8.980
10235SOL     OW32536   2.189  10.155   4.116
10235SOL    HW132537   2.266  10.161   4.173
10235SOL    HW232538   2.156  10.245   4.113
10236SOL     OW32539   9.724   3.196   9.633
10236SOL    HW132540   9.800   3.154   9.675
10236SOL    HW232541   9.762   3.267   9.581
10237SOL     OW32542   1.107   3.915  10.280
10237SOL    HW132543   1.062   3.921  10.364
10237SOL    HW232544   1.057   3.973  10.222
10238SOL     OW32545   9.432  14.540  12.538
10238SOL    HW132546   9.447  14.532  12.632
10238SOL    HW232547   9.360  14.480  12.520
10239SOL     OW32548  12.407   5.265   0.791
10239SOL    HW132549  12.439   5.217   0.714
10239SOL    HW232550  12.402   5.199   0.860
10240SOL     OW32551   8.377   2.548   7.189
10240SOL    HW132552   8.327   2.628   7.203
10240SOL    HW232553   8.348   2.489   7.258
10241SOL     OW32554  10.975  11.834  10.043
10241SOL    HW132555  10.990  11.759   9.986
10241SOL    HW232556  10.888  11.819  10.080
10242SOL     OW32557   3.531   2.810  13.623
10242SOL    HW132558   3.569   2.825  13.536
10242SOL    HW232559   3.439   2.791  13.607
10243SOL     OW32560  10.829   1.788  10.256
10243SOL    HW132561  10.773   1.758  10.328
10243SOL    HW232562  10.824   1.884  10.262
10244SOL     OW32563  11.686   5.880   6.155
10244SOL    HW132564  11.717   5.848   6.240
10244SOL    HW232565  11.649   5.967   6.173
10245SOL     OW32566   3.457   3.893   9.972
10245SOL    HW132567   3.494   3.979   9.949
10245SOL    HW232568   3.488   3.835   9.903
10246SOL     OW32569   6.392  12.304   7.764
10246SOL    HW132570   6.414  12.254   7.685
10246SOL    HW232571   6.350  12.240   7.822
10247SOL     OW32572   6.584   5.350  10.273
10247SOL    HW132573   6.633   5.432  10.274
10247SOL    HW232574   6.628   5.297  10.207
10248SOL     OW32575  11.054   9.234   0.321
10248SOL    HW132576  11.073   9.260   0.231
10248SOL    HW232577  10.998   9.157   0.312
10249SOL     OW32578   1.209  10.014   6.623
10249SOL    HW132579   1.114  10.015   6.608
10249SOL    HW232580   1.218  10.009   6.718
10250SOL     OW32581   4.008   3.733   0.257
10250SOL    HW132582   4.058   3.654   0.276
10250SOL    HW232583   4.058   3.804   0.299
10251SOL     OW32584   9.873   3.139   7.100
10251SOL    HW132585   9.829   3.102   7.176
10251SOL    HW232586   9.833   3.226   7.090
10252SOL     OW32587  14.442  11.666   6.436
10252SOL    HW132588  14.352  11.685   6.408
10252SOL    HW232589  14.491  11.745   6.416
10253SOL     OW32590   5.586   9.602  14.288
10253SOL    HW132591   5.560   9.513  14.264
10253SOL    HW232592   5.527   9.658  14.237
10254SOL     OW32593  14.790  10.087   7.686
10254SOL    HW132594  14.809  10.094   7.593
10254SOL    HW232595  14.814  10.172   7.723
10255SOL     OW32596   8.650   6.200   0.491
10255SOL    HW132597   8.616   6.187   0.402
10255SOL    HW232598   8.581   6.251   0.535
10256SOL     OW32599   7.655  13.496   4.570
10256SOL    HW132600   7.686  13.583   4.595
10256SOL    HW232601   7.563  13.509   4.548
10257SOL     OW32602  11.738   6.046   7.639
10257SOL    HW132603  11.794   6.112   7.599
10257SOL    HW232604  11.689   6.094   7.706
10258SOL     OW32605  13.523  12.735   1.565
10258SOL    HW132606  13.600  12.757   1.616
10258SOL    HW232607  13.517  12.640   1.570
10259SOL     OW32608  10.913  11.159   7.834
10259SOL    HW132609  10.947  11.094   7.895
10259SOL    HW232610  10.928  11.122   7.748
10260SOL     OW32611   2.543   9.546   1.679
10260SOL    HW132612   2.571   9.462   1.643
10260SOL    HW232613   2.569   9.543   1.771
10261SOL     OW32614   4.943   4.640  12.935
10261SOL    HW132615   4.970   4.559  12.892
10261SOL    HW232616   5.024   4.688  12.948
10262SOL     OW32617   4.780  10.051   7.489
10262SOL    HW132618   4.781  10.091   7.401
10262SOL    HW232619   4.872  10.035   7.509
10263SOL     OW32620   1.688  12.556   3.025
10263SOL    HW132621   1.767  12.565   3.078
10263SOL    HW232622   1.697  12.624   2.958
10264SOL     OW32623   4.663   3.050   0.125
10264SOL    HW132624   4.607   3.115   0.170
10264SOL    HW232625   4.743   3.049   0.177
10265SOL     OW32626   2.564   8.907   6.114
10265SOL    HW132627   2.475   8.937   6.099
10265SOL    HW232628   2.617   8.951   6.047
10266SOL     OW32629  13.574   8.064  13.581
10266SOL    HW132630  13.598   8.081  13.673
10266SOL    HW232631  13.506   7.997  13.586
10267SOL     OW32632   0.856   9.093   2.625
10267SOL    HW132633   0.870   9.156   2.554
10267SOL    HW232634   0.943   9.073   2.658
10268SOL     OW32635   9.571  14.631   5.571
10268SOL    HW132636   9.601  14.706   5.621
10268SOL    HW232637   9.514  14.669   5.504
10269SOL     OW32638  10.458   0.739   3.777
10269SOL    HW132639  10.533   0.799   3.766
10269SOL    HW232640  10.470   0.702   3.864
10270SOL     OW32641  12.667  10.302  10.503
10270SOL    HW132642  12.625  10.219  10.478
10270SOL    HW232643  12.628  10.367  10.444
10271SOL     OW32644   0.179  10.657  13.012
10271SOL    HW132645   0.102  10.712  13.028
10271SOL    HW232646   0.222  10.699  12.938
10272SOL     OW32647   0.271   1.807   8.164
10272SOL    HW132648   0.298   1.738   8.104
10272SOL    HW232649   0.321   1.884   8.135
10273SOL     OW32650   2.714   9.609   3.262
10273SOL    HW132651   2.679   9.537   3.210
10273SOL    HW232652   2.639   9.667   3.276
10274SOL     OW32653   2.793   9.053   6.934
10274SOL    HW132654   2.775   9.087   6.846
10274SOL    HW232655   2.831   9.128   6.981
10275SOL     OW32656  14.650  13.888   2.811
10275SOL    HW132657  14.709  13.837   2.866
10275SOL    HW232658  14.708  13.948   2.763
10276SOL     OW32659   1.240   7.558  13.306
10276SOL    HW132660   1.199   7.491  13.361
10276SOL    HW232661   1.296   7.509  13.246
10277SOL     OW32662  10.699   3.773  10.064
10277SOL    HW132663  10.733   3.823  10.139
10277SOL    HW232664  10.675   3.840  10.000
10278SOL     OW32665   5.968   4.120   5.943
10278SOL    HW132666   6.017   4.179   5.886
10278SOL    HW232667   5.945   4.045   5.887
10279SOL     OW32668   3.411   4.795   7.262
10279SOL    HW132669   3.363   4.872   7.232
10279SOL    HW232670   3.478   4.780   7.195
10280SOL     OW32671   9.730  14.644  10.691
10280SOL    HW132672   9.692  14.698  10.760
10280SOL    HW232673   9.810  14.689  10.665
10281SOL     OW32674  13.159   3.277   6.279
10281SOL    HW132675  13.093   3.226   6.232
10281SOL    HW232676  13.112   3.355   6.308
10282SOL     OW32677   8.569   5.302   5.805
10282SOL    HW132678   8.652   5.292   5.851
10282SOL    HW232679   8.518   5.363   5.860
10283SOL     OW32680   9.269   2.699   1.056
10283SOL    HW132681   9.185   2.745   1.059
10283SOL    HW232682   9.273   2.652   1.140
10284SOL     OW32683   9.162   7.669   5.349
10284SOL    HW132684   9.113   7.649   5.269
10284SOL    HW232685   9.107   7.734   5.394
10285SOL     OW32686   7.453   7.567   9.824
10285SOL    HW132687   7.375   7.603   9.866
10285SOL    HW232688   7.518   7.637   9.828
10286SOL     OW32689   1.677   2.346   2.288
10286SOL    HW132690   1.585   2.347   2.314
10286SOL    HW232691   1.676   2.373   2.196
10287SOL     OW32692   7.654   4.700   5.291
10287SOL    HW132693   7.623   4.651   5.367
10287SOL    HW232694   7.612   4.657   5.216
10288SOL     OW32695  13.821   7.350   9.509
10288SOL    HW132696  13.769   7.276   9.477
10288SOL    HW232697  13.885   7.366   9.440
10289SOL     OW32698   9.496   0.275   6.037
10289SOL    HW132699   9.584   0.259   6.002
10289SOL    HW232700   9.482   0.205   6.101
10290SOL     OW32701  13.164  14.179   8.978
10290SOL    HW132702  13.073  14.186   9.008
10290SOL    HW232703  13.208  14.254   9.017
10291SOL     OW32704   7.389  14.045   1.626
10291SOL    HW132705   7.360  13.981   1.561
10291SOL    HW232706   7.458  14.001   1.675
10292SOL     OW32707   6.270   8.069   2.391
10292SOL    HW132708   6.239   8.077   2.301
10292SOL    HW232709   6.257   7.977   2.413
10293SOL     OW32710   4.224   3.738   8.537
10293SOL    HW132711   4.309   3.728   8.494
10293SOL    HW232712   4.207   3.832   8.536
10294SOL     OW32713   8.199  12.309  12.731
10294SOL    HW132714   8.124  12.250  12.718
10294SOL    HW232715   8.171  12.392  12.694
10295SOL     OW32716  14.507   7.597   8.990
10295SOL    HW132717  14.541   7.660   9.053
10295SOL    HW232718  14.535   7.631   8.905
10296SOL     OW32719   5.621   0.890   1.276
10296SOL    HW132720   5.624   0.965   1.337
10296SOL    HW232721   5.690   0.831   1.308
10297SOL     OW32722  10.593   9.314   3.848
10297SOL    HW132723  10.584   9.233   3.798
10297SOL    HW232724  10.536   9.302   3.924
10298SOL     OW32725   5.990   8.145  14.023
10298SOL    HW132726   5.895   8.146  14.035
10298SOL    HW232727   6.005   8.075  13.959
10299SOL     OW32728   1.716  14.756  14.474
10299SOL    HW132729   1.658  14.741  14.548
10299SOL    HW232730   1.748  14.846  14.485
10300SOL     OW32731   6.925   9.997  11.330
10300SOL    HW132732   6.886   9.977  11.246
10300SOL    HW232733   6.963  10.085  11.320
10301SOL     OW32734   7.237   6.704   2.897
10301SOL    HW132735   7.198   6.715   2.810
10301SOL    HW232736   7.313   6.647   2.881
10302SOL     OW32737   5.161   2.139   4.084
10302SOL    HW132738   5.231   2.183   4.036
10302SOL    HW232739   5.087   2.137   4.024
10303SOL     OW32740  11.618  10.166   4.729
10303SOL    HW132741  11.592  10.220   4.655
10303SOL    HW232742  11.542  10.167   4.787
10304SOL     OW32743  11.382  13.304   6.596
10304SOL    HW132744  11.367  13.393   6.629
10304SOL    HW232745  11.385  13.249   6.674
10305SOL     OW32746   1.290   5.575   9.401
10305SOL    HW132747   1.257   5.492   9.366
10305SOL    HW232748   1.276   5.568   9.496
10306SOL     OW32749  12.448   7.338   9.938
10306SOL    HW132750  12.434   7.384   9.856
10306SOL    HW232751  12.417   7.248   9.921
10307SOL     OW32752  10.476   2.410   4.630
10307SOL    HW132753  10.570   2.394   4.623
10307SOL    HW232754  10.469   2.505   4.633
10308SOL     OW32755  11.967   1.224   9.635
10308SOL    HW132756  11.997   1.288   9.700
10308SOL    HW232757  12.005   1.254   9.553
10309SOL     OW32758  13.328   5.238   2.126
10309SOL    HW132759  13.323   5.312   2.065
10309SOL    HW232760  13.411   5.194   2.103
10310SOL     OW32761   7.471   6.898   5.860
10310SOL    HW132762   7.413   6.973   5.846
10310SOL    HW232763   7.465   6.880   5.954
10311SOL     OW32764   4.554   4.069  11.164
10311SOL    HW132765   4.532   3.997  11.222
10311SOL    HW232766   4.568   4.144  11.222
10312SOL     OW32767   6.082   4.387  13.022
10312SOL    HW132768   6.119   4.475  13.025
10312SOL    HW232769   6.153   4.330  13.055
10313SOL     OW32770  10.710   5.694   7.566
10313SOL    HW132771  10.630   5.657   7.604
10313SOL    HW232772  10.780   5.661   7.622
10314SOL     OW32773  14.789  11.959   6.541
10314SOL    HW132774  14.851  11.920   6.479
10314SOL    HW232775  14.703  11.947   6.499
10315SOL     OW32776  13.528  13.773  10.456
10315SOL    HW132777  13.494  13.854  10.419
10315SOL    HW232778  13.452  13.728  10.492
10316SOL     OW32779   1.547   9.880   3.375
10316SOL    HW132780   1.640   9.859   3.387
10316SOL    HW232781   1.502   9.835   3.446
10317SOL     OW32782   4.253   9.049   6.775
10317SOL    HW132783   4.308   8.974   6.756
10317SOL    HW232784   4.171   9.031   6.730
10318SOL     OW32785   3.734   9.089  11.350
10318SOL    HW132786   3.759   9.182  11.351
10318SOL    HW232787   3.816   9.043  11.368
10319SOL     OW32788  12.000  11.945  13.870
10319SOL    HW132789  12.031  11.890  13.798
10319SOL    HW232790  12.080  11.984  13.906
10320SOL     OW32791  12.491   0.276   2.736
10320SOL    HW132792  12.479   0.340   2.666
10320SOL    HW232793  12.575   0.234   2.717
10321SOL     OW32794  14.831  10.902   6.898
10321SOL    HW132795   0.030  10.878   6.958
10321SOL    HW232796  14.760  10.931   6.956
10322SOL     OW32797   7.328   9.456   5.415
10322SOL    HW132798   7.417   9.437   5.443
10322SOL    HW232799   7.291   9.370   5.394
10323SOL     OW32800   8.594  10.212  13.740
10323SOL    HW132801   8.501  10.191  13.748
10323SOL    HW232802   8.636  10.128  13.719
10324SOL     OW32803   7.041  13.430   2.771
10324SOL    HW132804   7.001  13.469   2.693
10324SOL    HW232805   7.014  13.339   2.769
10325SOL     OW32806   3.040   0.096   0.611
10325SOL    HW132807   2.993   0.032   0.663
10325SOL    HW232808   2.975   0.130   0.549
10326SOL     OW32809   5.488   6.609   3.931
10326SOL    HW132810   5.449   6.581   3.848
10326SOL    HW232811   5.417   6.599   3.995
10327SOL     OW32812   6.296   4.980  14.847
10327SOL    HW132813   6.347   4.974  14.766
10327SOL    HW232814   6.362   4.975   0.044
10328SOL     OW32815   4.197   7.370   1.963
10328SOL    HW132816   4.197   7.342   1.871
10328SOL    HW232817   4.290   7.377   1.986
10329SOL     OW32818   9.242   5.457  14.127
10329SOL    HW132819   9.242   5.365  14.104
10329SOL    HW232820   9.181   5.498  14.066
10330SOL     OW32821   0.292   6.322  13.176
10330SOL    HW132822   0.262   6.281  13.095
10330SOL    HW232823   0.244   6.277  13.245
10331SOL     OW32824   4.051  10.360   2.901
10331SOL    HW132825   4.032  10.453   2.892
10331SOL    HW232826   4.077  10.332   2.813
10332SOL     OW32827   8.453  13.346   5.479
10332SOL    HW132828   8.443  13.293   5.401
10332SOL    HW232829   8.364  13.352   5.516
10333SOL     OW32830  14.372  13.104   8.005
10333SOL    HW132831  14.365  13.094   7.910
10333SOL    HW232832  14.395  13.196   8.018
10334SOL     OW32833   6.127   0.329   5.723
10334SOL    HW132834   6.082   0.414   5.727
10334SOL    HW232835   6.179   0.334   5.643
10335SOL     OW32836   4.756  12.346   1.990
10335SOL    HW132837   4.792  12.273   1.940
10335SOL    HW232838   4.670  12.315   2.019
10336SOL     OW32839   4.626   2.789   9.301
10336SOL    HW132840   4.537   2.757   9.288
10336SOL    HW232841   4.679   2.710   9.310
10337SOL     OW32842   5.720   6.399   7.690
10337SOL    HW132843   5.807   6.393   7.731
10337SOL    HW232844   5.669   6.330   7.733
10338SOL     OW32845  14.774  12.384   0.267
10338SOL    HW132846  14.780  12.475   0.238
10338SOL    HW232847  14.810  12.333   0.194
10339SOL     OW32848   1.431  11.694   8.864
10339SOL    HW132849   1.517  11.654   8.879
10339SOL    HW232850   1.450  11.787   8.853
10340SOL     OW32851   3.047   6.188  13.664
10340SOL    HW132852   2.953   6.170  13.661
10340SOL    HW232853   3.054   6.280  13.640
10341SOL     OW32854  13.099  14.235  10.466
10341SOL    HW132855  13.129  14.239  10.557
10341SOL    HW232856  13.158  14.173  10.424
10342SOL     OW32857   5.437   0.991   0.521
10342SOL    HW132858   5.433   1.082   0.552
10342SOL    HW232859   5.471   0.998   0.431
10343SOL     OW32860   0.531   3.460   4.471
10343SOL    HW132861   0.460   3.476   4.534
10343SOL    HW232862   0.533   3.538   4.417
10344SOL     OW32863   2.838   6.957   0.427
10344SOL    HW132864   2.807   6.868   0.413
10344SOL    HW232865   2.844   6.966   0.523
10345SOL     OW32866  14.533  10.753   7.774
10345SOL    HW132867  14.592  10.743   7.849
10345SOL    HW232868  14.553  10.841   7.740
10346SOL     OW32869   8.023   2.394   7.163
10346SOL    HW132870   8.015   2.456   7.091
10346SOL    HW232871   8.062   2.315   7.124
10347SOL     OW32872   0.732   0.256  14.496
10347SOL    HW132873   0.677   0.221  14.566
10347SOL    HW232874   0.671   0.288  14.430
10348SOL     OW32875   3.114   0.744   8.970
10348SOL    HW132876   3.209   0.754   8.963
10348SOL    HW232877   3.079   0.830   8.946
10349SOL     OW32878  10.719   1.169   7.430
10349SOL    HW132879  10.790   1.176   7.494
10349SOL    HW232880  10.733   1.241   7.370
10350SOL     OW32881   8.538   0.189  13.546
10350SOL    HW132882   8.610   0.126  13.547
10350SOL    HW232883   8.581   0.274  13.556
10351SOL     OW32884   2.622   0.628  12.347
10351SOL    HW132885   2.572   0.705  12.320
10351SOL    HW232886   2.623   0.571  12.270
10352SOL     OW32887   7.744   7.484  14.019
10352SOL    HW132888   7.713   7.434  14.095
10352SOL    HW232889   7.682   7.463  13.950
10353SOL     OW32890   6.505  14.298  12.042
10353SOL    HW132891   6.465  14.380  12.013
10353SOL    HW232892   6.465  14.231  11.986
10354SOL     OW32893  13.404   7.036  14.152
10354SOL    HW132894  13.489   7.033  14.109
10354SOL    HW232895  13.402   7.123  14.193
10355SOL     OW32896   7.201   5.659   1.791
10355SOL    HW132897   7.165   5.574   1.763
10355SOL    HW232898   7.210   5.651   1.886
10356SOL     OW32899  12.057  12.320   3.233
10356SOL    HW132900  11.990  12.367   3.282
10356SOL    HW232901  12.008  12.257   3.179
10357SOL     OW32902   6.169  12.107   7.677
10357SOL    HW132903   6.188  12.173   7.610
10357SOL    HW232904   6.133  12.156   7.750
10358SOL     OW32905  13.173   2.484  10.018
10358SOL    HW132906  13.144   2.557   9.963
10358SOL    HW232907  13.216   2.424   9.957
10359SOL     OW32908  12.975   4.553  14.560
10359SOL    HW132909  12.995   4.624  14.499
10359SOL    HW232910  13.028   4.479  14.530
10360SOL     OW32911  13.626  14.579  10.553
10360SOL    HW132912  13.539  14.544  10.537
10360SOL    HW232913  13.662  14.524  10.623
10361SOL     OW32914   6.943  11.572   3.008
10361SOL    HW132915   6.865  11.548   2.959
10361SOL    HW232916   6.911  11.602   3.093
10362SOL     OW32917   2.966   8.757  14.296
10362SOL    HW132918   2.955   8.678  14.348
10362SOL    HW232919   2.920   8.825  14.344
10363SOL     OW32920   9.826   4.726   9.706
10363SOL    HW132921   9.791   4.760   9.788
10363SOL    HW232922   9.920   4.746   9.710
10364SOL     OW32923   1.519  10.951   2.293
10364SOL    HW132924   1.428  10.933   2.318
10364SOL    HW232925   1.554  11.003   2.366
10365SOL     OW32926   5.368   8.863   5.568
10365SOL    HW132927   5.309   8.828   5.501
10365SOL    HW232928   5.448   8.887   5.520
10366SOL     OW32929   9.018   6.048   0.714
10366SOL    HW132930   9.045   5.957   0.730
10366SOL    HW232931   8.994   6.081   0.800
10367SOL     OW32932   2.518   1.768  14.078
10367SOL    HW132933   2.424   1.770  14.061
10367SOL    HW232934   2.549   1.854  14.052
10368SOL     OW32935   7.235   3.631   5.664
10368SOL    HW132936   7.185   3.630   5.583
10368SOL    HW232937   7.223   3.720   5.698
10369SOL     OW32938   0.349   7.680  12.335
10369SOL    HW132939   0.297   7.627  12.395
10369SOL    HW232940   0.427   7.703  12.386
10370SOL     OW32941   3.591   3.326  10.661
10370SOL    HW132942   3.552   3.397  10.711
10370SOL    HW232943   3.668   3.300  10.712
10371SOL     OW32944  10.810   9.779   9.082
10371SOL    HW132945  10.862   9.706   9.049
10371SOL    HW232946  10.754   9.804   9.009
10372SOL     OW32947   4.389   7.366   4.770
10372SOL    HW132948   4.344   7.378   4.687
10372SOL    HW232949   4.377   7.273   4.791
10373SOL     OW32950   0.757   4.513   8.885
10373SOL    HW132951   0.726   4.448   8.948
10373SOL    HW232952   0.784   4.461   8.809
10374SOL     OW32953   9.480   5.306  14.154
10374SOL    HW132954   9.415   5.375  14.163
10374SOL    HW232955   9.533   5.313  14.234
10375SOL     OW32956   0.314   2.110  14.357
10375SOL    HW132957   0.257   2.060  14.415
10375SOL    HW232958   0.315   2.198  14.395
10376SOL     OW32959   5.025   6.798   0.269
10376SOL    HW132960   4.947   6.822   0.219
10376SOL    HW232961   5.073   6.880   0.281
10377SOL     OW32962  13.152   4.832  12.299
10377SOL    HW132963  13.220   4.887  12.336
10377SOL    HW232964  13.149   4.856  12.206
10378SOL     OW32965  13.413   2.181  12.622
10378SOL    HW132966  13.372   2.094  12.628
10378SOL    HW232967  13.433   2.204  12.713
10379SOL     OW32968   8.681  10.414   9.736
10379SOL    HW132969   8.666  10.339   9.678
10379SOL    HW232970   8.597  10.461   9.736
10380SOL     OW32971  13.592   8.036   9.633
10380SOL    HW132972  13.678   7.998   9.613
10380SOL    HW232973  13.556   7.980   9.702
10381SOL     OW32974   1.003  14.208   4.554
10381SOL    HW132975   0.972  14.118   4.561
10381SOL    HW232976   1.076  14.204   4.492
10382SOL     OW32977   6.921  12.218  11.797
10382SOL    HW132978   6.853  12.284  11.798
10382SOL    HW232979   6.987  12.252  11.737
10383SOL     OW32980  13.714   1.537  14.250
10383SOL    HW132981  13.675   1.623  14.233
10383SOL    HW232982  13.641   1.483  14.280
10384SOL     OW32983  14.784   0.190   0.357
10384SOL    HW132984  14.808   0.099   0.378
10384SOL    HW232985  14.703   0.204   0.406
10385SOL     OW32986   0.262   6.859   6.358
10385SOL    HW132987   0.218   6.829   6.279
10385SOL    HW232988   0.208   6.825   6.430
10386SOL     OW32989   6.226  13.763  12.655
10386SOL    HW132990   6.314  13.749  12.689
10386SOL    HW232991   6.171  13.703  12.706
10387SOL     OW32992   7.821   4.551   1.910
10387SOL    HW132993   7.755   4.542   1.979
10387SOL    HW232994   7.784   4.615   1.849
10388SOL     OW32995  12.697  12.873   4.450
10388SOL    HW132996  12.695  12.827   4.534
10388SOL    HW232997  12.788  12.868   4.422
10389SOL     OW32998   2.649   7.503   3.592
10389SOL    HW132999   2.667   7.550   3.673
10389SOL    HW233000   2.728   7.514   3.539
10390SOL     OW33001  13.412   5.479   7.258
10390SOL    HW133002  13.397   5.385   7.264
10390SOL    HW233003  13.329   5.519   7.283
10391SOL     OW33004  14.712   2.629   2.184
10391SOL    HW133005  14.690   2.536   2.191
10391SOL    HW233006  14.691   2.666   2.270
10392SOL     OW33007   9.523  14.102  13.376
10392SOL    HW133008   9.475  14.036  13.326
10392SOL    HW233009   9.533  14.175  13.316
10393SOL     OW33010  13.771   8.718  11.212
10393SOL    HW133011  13.863   8.738  11.227
10393SOL    HW233012  13.739   8.686  11.296
10394SOL     OW33013  11.705  11.549  14.414
10394SOL    HW133014  11.786  11.570  14.367
10394SOL    HW233015  11.730  11.479  14.474
10395SOL     OW33016   4.093  12.060   4.347
10395SOL    HW133017   4.063  11.974   4.315
10395SOL    HW233018   4.024  12.120   4.321
10396SOL     OW33019  12.525   8.191   8.310
10396SOL    HW133020  12.515   8.267   8.367
10396SOL    HW233021  12.437   8.155   8.301
10397SOL     OW33022   3.918  12.956  13.623
10397SOL    HW133023   3.996  12.979  13.673
10397SOL    HW233024   3.890  13.038  13.583
10398SOL     OW33025   0.515   9.208  10.035
10398SOL    HW133026   0.591   9.151  10.041
10398SOL    HW233027   0.533   9.278  10.098
10399SOL     OW33028   5.422   4.640  13.410
10399SOL    HW133029   5.495   4.666  13.465
10399SOL    HW233030   5.427   4.544  13.407
10400SOL     OW33031   3.482  14.091   7.206
10400SOL    HW133032   3.543  14.098   7.280
10400SOL    HW233033   3.538  14.090   7.128
10401SOL     OW33034   5.034   1.650  13.706
10401SOL    HW133035   5.054   1.580  13.644
10401SOL    HW233036   4.952   1.623  13.747
10402SOL     OW33037   3.105   9.609   3.185
10402SOL    HW133038   3.175   9.630   3.124
10402SOL    HW233039   3.085   9.693   3.227
10403SOL     OW33040  12.766   5.590   3.340
10403SOL    HW133041  12.714   5.563   3.264
10403SOL    HW233042  12.704   5.639   3.394
10404SOL     OW33043   1.278   2.348  13.572
10404SOL    HW133044   1.196   2.387  13.541
10404SOL    HW233045   1.346   2.396  13.525
10405SOL     OW33046   6.197   1.269   9.800
10405SOL    HW133047   6.183   1.201   9.865
10405SOL    HW233048   6.243   1.339   9.847
10406SOL     OW33049   2.097   8.128  14.813
10406SOL    HW133050   2.013   8.138  14.858
10406SOL    HW233051   2.082   8.168  14.727
10407SOL     OW33052   0.449   5.652   5.548
10407SOL    HW133053   0.364   5.683   5.579
10407SOL    HW233054   0.430   5.572   5.501
10408SOL     OW33055   8.989   6.925  13.094
10408SOL    HW133056   8.915   6.868  13.114
10408SOL    HW233057   9.059   6.895  13.153
10409SOL     OW33058   6.431   7.208   2.824
10409SOL    HW133059   6.463   7.143   2.761
10409SOL    HW233060   6.473   7.184   2.906
10410SOL     OW33061   3.597   5.485  11.603
10410SOL    HW133062   3.555   5.511  11.685
10410SOL    HW233063   3.543   5.414  11.569
10411SOL     OW33064   7.396  14.649   8.981
10411SOL    HW133065   7.426  14.738   8.968
10411SOL    HW233066   7.445  14.597   8.917
10412SOL     OW33067   8.267  11.971   4.700
10412SOL    HW133068   8.301  12.051   4.661
10412SOL    HW233069   8.211  12.000   4.771
10413SOL     OW33070   1.738   7.088  12.206
10413SOL    HW133071   1.748   7.077  12.300
10413SOL    HW233072   1.668   7.154  12.197
10414SOL     OW33073   7.186   8.578   6.250
10414SOL    HW133074   7.136   8.658   6.262
10414SOL    HW233075   7.124   8.507   6.267
10415SOL     OW33076  12.032   3.559   6.455
10415SOL    HW133077  11.955   3.611   6.433
10415SOL    HW233078  12.009   3.514   6.536
10416SOL     OW33079  12.514   8.029   0.336
10416SOL    HW133080  12.559   7.946   0.345
10416SOL    HW233081  12.568   8.091   0.386
10417SOL     OW33082  12.644   9.096   3.681
10417SOL    HW133083  12.719   9.151   3.657
10417SOL    HW233084  12.664   9.011   3.642
10418SOL     OW33085   5.208   7.437   2.849
10418SOL    HW133086   5.297   7.404   2.835
10418SOL    HW233087   5.218   7.532   2.850
10419SOL     OW33088   2.811  13.187   2.012
10419SOL    HW133089   2.795  13.202   2.105
10419SOL    HW233090   2.733  13.143   1.980
10420SOL     OW33091   1.075   4.382  12.393
10420SOL    HW133092   0.981   4.394  12.406
10420SOL    HW233093   1.082   4.294  12.356
10421SOL     OW33094   0.047   2.633   1.745
10421SOL    HW133095  14.842   2.583   1.718
10421SOL    HW233096   0.029   2.723   1.716
10422SOL     OW33097   9.655  13.528   4.414
10422SOL    HW133098   9.724  13.489   4.359
10422SOL    HW233099   9.627  13.456   4.471
10423SOL     OW33100  11.930  11.865   7.435
10423SOL    HW133101  11.862  11.918   7.476
10423SOL    HW233102  11.889  11.780   7.420
10424SOL     OW33103  14.504  10.008   6.755
10424SOL    HW133104  14.474   9.927   6.714
10424SOL    HW233105  14.459  10.077   6.707
10425SOL     OW33106  11.807   9.329   5.246
10425SOL    HW133107  11.871   9.258   5.235
10425SOL    HW233108  11.858   9.409   5.239
10426SOL     OW33109  11.640   0.146   3.612
10426SOL    HW133110  11.641   0.211   3.542
10426SOL    HW233111  11.571   0.175   3.671
10427SOL     OW33112  11.621   1.831   7.523
10427SOL    HW133113  11.662   1.744   7.522
10427SOL    HW233114  11.562   1.829   7.598
10428SOL     OW33115   0.721   5.295  13.869
10428SOL    HW133116   0.678   5.229  13.924
10428SOL    HW233117   0.667   5.374  13.880
10429SOL     OW33118   4.331  12.132   8.903
10429SOL    HW133119   4.276  12.062   8.867
10429SOL    HW233120   4.270  12.186   8.953
10430SOL     OW33121  11.285  11.916   2.734
10430SOL    HW133122  11.208  11.862   2.750
10430SOL    HW233123  11.349  11.886   2.800
10431SOL     OW33124  13.090   3.799   7.010
10431SOL    HW133125  13.088   3.805   6.915
10431SOL    HW233126  13.007   3.838   7.039
10432SOL     OW33127   1.249   5.940   6.032
10432SOL    HW133128   1.200   5.989   5.965
10432SOL    HW233129   1.222   5.979   6.115
10433SOL     OW33130   6.571  14.775   5.351
10433SOL    HW133131   6.629  14.710   5.310
10433SOL    HW233132   6.493  14.776   5.296
10434SOL     OW33133   2.557   9.738  11.037
10434SOL    HW133134   2.542   9.806  10.972
10434SOL    HW233135   2.507   9.766  11.113
10435SOL     OW33136   0.147  13.494  13.527
10435SOL    HW133137   0.167  13.421  13.585
10435SOL    HW233138   0.116  13.563  13.584
10436SOL     OW33139   9.646   1.243  14.698
10436SOL    HW133140   9.738   1.247  14.724
10436SOL    HW233141   9.649   1.209  14.608
10437SOL     OW33142   0.536   6.258   3.557
10437SOL    HW133143   0.577   6.191   3.502
10437SOL    HW233144   0.560   6.341   3.515
10438SOL     OW33145   3.994   0.767   4.392
10438SOL    HW133146   3.927   0.738   4.453
10438SOL    HW233147   3.952   0.765   4.307
10439SOL     OW33148  10.486   1.262   9.635
10439SOL    HW133149  10.422   1.193   9.620
10439SOL    HW233150  10.560   1.239   9.578
10440SOL     OW33151   0.552  10.470  10.194
10440SOL    HW133152   0.565  10.408  10.266
10440SOL    HW233153   0.591  10.552  10.227
10441SOL     OW33154   6.650   7.086   9.433
10441SOL    HW133155   6.743   7.065   9.425
10441SOL    HW233156   6.648   7.162   9.491
10442SOL     OW33157   9.987   6.194   2.425
10442SOL    HW133158  10.056   6.259   2.434
10442SOL    HW233159  10.033   6.110   2.427
10443SOL     OW33160  13.996  14.504   9.139
10443SOL    HW133161  13.970  14.451   9.064
10443SOL    HW233162  13.972  14.452   9.215
10444SOL     OW33163   9.012   1.912   7.060
10444SOL    HW133164   8.927   1.955   7.047
10444SOL    HW233165   9.025   1.861   6.980
10445SOL     OW33166   4.825   0.750   3.828
10445SOL    HW133167   4.891   0.744   3.758
10445SOL    HW233168   4.821   0.661   3.863
10446SOL     OW33169   1.214   3.527   2.296
10446SOL    HW133170   1.210   3.560   2.386
10446SOL    HW233171   1.160   3.448   2.297
10447SOL     OW33172   9.055  11.092  13.591
10447SOL    HW133173   8.974  11.043  13.577
10447SOL    HW233174   9.028  11.171  13.636
10448SOL     OW33175   3.980  11.461   1.733
10448SOL    HW133176   4.037  11.526   1.692
10448SOL    HW233177   3.901  11.509   1.756
10449SOL     OW33178  10.147   1.206   3.867
10449SOL    HW133179  10.212   1.148   3.908
10449SOL    HW233180  10.091   1.147   3.817
10450SOL     OW33181  10.444   0.959  13.330
10450SOL    HW133182  10.411   1.049  13.329
10450SOL    HW233183  10.443   0.934  13.423
10451SOL     OW33184   5.268   5.970  12.861
10451SOL    HW133185   5.198   6.035  12.859
10451SOL    HW233186   5.319   5.993  12.939
10452SOL     OW33187   8.693   8.753   6.398
10452SOL    HW133188   8.700   8.676   6.342
10452SOL    HW233189   8.624   8.806   6.358
10453SOL     OW33190   4.701   1.294   0.971
10453SOL    HW133191   4.682   1.388   0.966
10453SOL    HW233192   4.651   1.255   0.899
10454SOL     OW33193   2.398   7.245   9.762
10454SOL    HW133194   2.372   7.212   9.848
10454SOL    HW233195   2.341   7.198   9.701
10455SOL     OW33196  12.568   4.138   3.050
10455SOL    HW133197  12.639   4.101   3.103
10455SOL    HW233198  12.559   4.078   2.977
10456SOL     OW33199   0.514   7.681  10.474
10456SOL    HW133200   0.447   7.648  10.415
10456SOL    HW233201   0.471   7.754  10.520
10457SOL     OW33202  10.090  12.576   1.297
10457SOL    HW133203  10.158  12.511   1.315
10457SOL    HW233204  10.012  12.525   1.277
10458SOL     OW33205   5.738   2.265   2.264
10458SOL    HW133206   5.763   2.207   2.192
10458SOL    HW233207   5.816   2.318   2.280
10459SOL     OW33208  10.160  11.419   0.654
10459SOL    HW133209  10.068  11.424   0.627
10459SOL    HW233210  10.210  11.434   0.574
10460SOL     OW33211   9.792   0.451   6.397
10460SOL    HW133212   9.717   0.477   6.345
10460SOL    HW233213   9.852   0.411   6.334
10461SOL     OW33214  11.273  10.293  13.584
10461SOL    HW133215  11.345  10.278  13.646
10461SOL    HW233216  11.214  10.219  13.598
10462SOL     OW33217  12.018   3.243  11.622
10462SOL    HW133218  11.953   3.223  11.689
10462SOL    HW233219  11.971   3.229  11.539
10463SOL     OW33220   5.731   3.155   7.311
10463SOL    HW133221   5.651   3.205   7.293
10463SOL    HW233222   5.700   3.074   7.350
10464SOL     OW33223   0.521   0.615   0.939
10464SOL    HW133224   0.445   0.658   0.900
10464SOL    HW233225   0.571   0.685   0.979
10465SOL     OW33226   4.329   1.074   4.587
10465SOL    HW133227   4.358   1.021   4.513
10465SOL    HW233228   4.272   1.141   4.549
10466SOL     OW33229   8.509   3.096   8.300
10466SOL    HW133230   8.446   3.165   8.322
10466SOL    HW233231   8.460   3.014   8.313
10467SOL     OW33232   4.123   2.206   5.956
10467SOL    HW133233   4.215   2.230   5.953
10467SOL    HW233234   4.120   2.116   5.924
10468SOL     OW33235  13.318   7.653   4.029
10468SOL    HW133236  13.292   7.744   4.016
10468SOL    HW233237  13.344   7.649   4.122
10469SOL     OW33238  14.385   0.833   2.907
10469SOL    HW133239  14.436   0.786   2.973
10469SOL    HW233240  14.450   0.877   2.852
10470SOL     OW33241   3.892  10.721  12.713
10470SOL    HW133242   3.880  10.765  12.798
10470SOL    HW233243   3.863  10.631  12.729
10471SOL     OW33244   4.944   6.526   8.565
10471SOL    HW133245   5.014   6.464   8.588
10471SOL    HW233246   4.964   6.605   8.616
10472SOL     OW33247   0.017   2.312   2.050
10472SOL    HW133248   0.075   2.274   2.116
10472SOL    HW233249   0.076   2.337   1.979
10473SOL     OW33250  10.030  14.000   4.963
10473SOL    HW133251   9.977  14.021   4.886
10473SOL    HW233252  10.118  14.031   4.940
10474SOL     OW33253  13.577   7.287  14.526
10474SOL    HW133254  13.618   7.336  14.596
10474SOL    HW233255  13.621   7.202  14.528
10475SOL     OW33256  13.019   8.481  14.319
10475SOL    HW133257  13.096   8.506  14.267
10475SOL    HW233258  12.949   8.537  14.286
10476SOL     OW33259  10.384   3.903   1.982
10476SOL    HW133260  10.350   3.910   2.071
10476SOL    HW233261  10.321   3.849   1.935
10477SOL     OW33262   3.091  12.198  14.343
10477SOL    HW133263   3.082  12.116  14.293
10477SOL    HW233264   3.008  12.207  14.389
10478SOL     OW33265   5.789  13.551   7.145
10478SOL    HW133266   5.730  13.488   7.185
10478SOL    HW233267   5.877  13.515   7.159
10479SOL     OW33268   2.914   4.262  11.775
10479SOL    HW133269   2.906   4.352  11.743
10479SOL    HW233270   2.965   4.269  11.856
10480SOL     OW33271   2.539   1.280   8.748
10480SOL    HW133272   2.626   1.242   8.762
10480SOL    HW233273   2.529   1.281   8.653
10481SOL     OW33274   2.226   8.080   7.714
10481SOL    HW133275   2.272   8.164   7.707
10481SOL    HW233276   2.140   8.096   7.675
10482SOL     OW33277   3.461   6.896   5.033
10482SOL    HW133278   3.387   6.931   4.983
10482SOL    HW233279   3.430   6.811   5.066
10483SOL     OW33280   4.806   5.044   4.146
10483SOL    HW133281   4.724   5.032   4.099
10483SOL    HW233282   4.850   4.959   4.141
10484SOL     OW33283  13.129   3.094   9.806
10484SOL    HW133284  13.060   3.031   9.784
10484SOL    HW233285  13.088   3.180   9.794
10485SOL     OW33286  11.685   6.938   6.418
10485SOL    HW133287  11.739   6.915   6.494
10485SOL    HW233288  11.596   6.944   6.452
10486SOL     OW33289   6.874   2.605  14.184
10486SOL    HW133290   6.887   2.700  14.191
10486SOL    HW233291   6.779   2.594  14.181
10487SOL     OW33292   5.040   5.337   3.700
10487SOL    HW133293   5.105   5.357   3.767
10487SOL    HW233294   4.967   5.299   3.749
10488SOL     OW33295   9.128   2.692   6.705
10488SOL    HW133296   9.165   2.742   6.779
10488SOL    HW233297   9.103   2.759   6.641
10489SOL     OW33298   5.483  14.609  13.600
10489SOL    HW133299   5.500  14.611  13.695
10489SOL    HW233300   5.388  14.595  13.594
10490SOL     OW33301  14.448   9.327   9.036
10490SOL    HW133302  14.536   9.336   9.073
10490SOL    HW233303  14.460   9.338   8.942
10491SOL     OW33304   0.395  12.853   2.258
10491SOL    HW133305   0.447  12.813   2.328
10491SOL    HW233306   0.447  12.841   2.179
10492SOL     OW33307  14.534   9.840   9.899
10492SOL    HW133308  14.520   9.880   9.985
10492SOL    HW233309  14.451   9.852   9.853
10493SOL     OW33310  11.803   9.449  11.699
10493SOL    HW133311  11.741   9.386  11.662
10493SOL    HW233312  11.797   9.525  11.642
10494SOL     OW33313   4.850   8.657   9.374
10494SOL    HW133314   4.788   8.585   9.363
10494SOL    HW233315   4.804   8.721   9.428
10495SOL     OW33316   5.351  12.468  10.261
10495SOL    HW133317   5.333  12.508  10.176
10495SOL    HW233318   5.264  12.452  10.298
10496SOL     OW33319   3.911   1.904  10.627
10496SOL    HW133320   3.974   1.840  10.594
10496SOL    HW233321   3.965   1.978  10.656
10497SOL     OW33322  11.647  14.808   4.621
10497SOL    HW133323  11.693  14.730   4.591
10497SOL    HW233324  11.594  14.835   4.546
10498SOL     OW33325   9.443  13.229   2.284
10498SOL    HW133326   9.519  13.253   2.337
10498SOL    HW233327   9.368  13.256   2.336
10499SOL     OW33328  13.890   3.544   7.691
10499SOL    HW133329  13.822   3.492   7.732
10499SOL    HW233330  13.972   3.504   7.720
10500SOL     OW33331   7.221   0.555   8.047
10500SOL    HW133332   7.252   0.467   8.027
10500SOL    HW233333   7.271   0.613   7.989
10501SOL     OW33334   9.931   7.497   6.000
10501SOL    HW133335  10.018   7.458   5.995
10501SOL    HW233336   9.893   7.483   5.914
10502SOL     OW33337   8.481  12.419   7.608
10502SOL    HW133338   8.483  12.448   7.699
10502SOL    HW233339   8.562  12.369   7.597
10503SOL     OW33340  13.902  14.143   8.961
10503SOL    HW133341  13.968  14.147   9.030
10503SOL    HW233342  13.903  14.230   8.921
10504SOL     OW33343   2.907   2.535   7.012
10504SOL    HW133344   2.881   2.558   7.101
10504SOL    HW233345   2.843   2.577   6.955
10505SOL     OW33346   8.149  12.436   2.292
10505SOL    HW133347   8.186  12.353   2.320
10505SOL    HW233348   8.124  12.423   2.201
10506SOL     OW33349  14.484   5.121   9.077
10506SOL    HW133350  14.513   5.148   9.164
10506SOL    HW233351  14.394   5.152   9.070
10507SOL     OW33352  13.995   8.195  11.827
10507SOL    HW133353  14.046   8.242  11.761
10507SOL    HW233354  14.058   8.174  11.896
10508SOL     OW33355  12.496  14.208  13.625
10508SOL    HW133356  12.585  14.219  13.590
10508SOL    HW233357  12.506  14.226  13.719
10509SOL     OW33358   8.806   2.370  13.845
10509SOL    HW133359   8.899   2.389  13.859
10509SOL    HW233360   8.771   2.357  13.933
10510SOL     OW33361  11.666   5.948   9.586
10510SOL    HW133362  11.606   5.882   9.551
10510SOL    HW233363  11.611   6.022   9.610
10511SOL     OW33364   3.375  14.784   3.567
10511SOL    HW133365   3.465  14.751   3.570
10511SOL    HW233366   3.380  14.860   3.509
10512SOL     OW33367   8.326   5.579   8.095
10512SOL    HW133368   8.315   5.490   8.127
10512SOL    HW233369   8.283   5.580   8.009
10513SOL     OW33370   4.959   0.618   8.523
10513SOL    HW133371   4.879   0.608   8.473
10513SOL    HW233372   4.931   0.618   8.615
10514SOL     OW33373  14.598   9.210   2.009
10514SOL    HW133374  14.549   9.131   1.988
10514SOL    HW233375  14.682   9.179   2.041
10515SOL     OW33376   7.577   5.386  12.850
10515SOL    HW133377   7.532   5.357  12.930
10515SOL    HW233378   7.662   5.343  12.853
10516SOL     OW33379   2.911   4.447   9.036
10516SOL    HW133380   2.907   4.533   8.994
10516SOL    HW233381   2.821   4.428   9.060
10517SOL     OW33382   9.828   6.682  14.659
10517SOL    HW133383   9.807   6.599  14.615
10517SOL    HW233384   9.811   6.749  14.592
10518SOL     OW33385   7.568   8.502   7.566
10518SOL    HW133386   7.555   8.578   7.510
10518SOL    HW233387   7.480   8.478   7.594
10519SOL     OW33388   8.320   0.191   4.615
10519SOL    HW133389   8.308   0.197   4.709
10519SOL    HW233390   8.285   0.273   4.580
10520SOL     OW33391  14.401   4.205  14.108
10520SOL    HW133392  14.451   4.286  14.121
10520SOL    HW233393  14.314   4.226  14.142
10521SOL     OW33394   5.934   0.195  11.156
10521SOL    HW133395   5.986   0.203  11.077
10521SOL    HW233396   5.935   0.282  11.195
10522SOL     OW33397   8.837   3.345   3.630
10522SOL    HW133398   8.839   3.281   3.702
10522SOL    HW233399   8.902   3.410   3.654
10523SOL     OW33400   6.203   7.124   9.634
10523SOL    HW133401   6.248   7.208   9.630
10523SOL    HW233402   6.147   7.131   9.712
10524SOL     OW33403  10.315  10.743   9.629
10524SOL    HW133404  10.221  10.739   9.647
10524SOL    HW233405  10.347  10.654   9.644
10525SOL     OW33406  11.060   4.751   0.724
10525SOL    HW133407  11.059   4.811   0.650
10525SOL    HW233408  11.077   4.807   0.800
10526SOL     OW33409   3.129   7.349  13.115
10526SOL    HW133410   3.093   7.364  13.027
10526SOL    HW233411   3.186   7.425  13.130
10527SOL     OW33412   5.882   0.387  11.622
10527SOL    HW133413   5.818   0.338  11.571
10527SOL    HW233414   5.834   0.462  11.657
10528SOL     OW33415   1.206  11.201   0.891
10528SOL    HW133416   1.153  11.278   0.875
10528SOL    HW233417   1.211  11.194   0.986
10529SOL     OW33418   4.442  11.384   4.125
10529SOL    HW133419   4.429  11.303   4.176
10529SOL    HW233420   4.530  11.414   4.151
10530SOL     OW33421  10.912   1.198  12.818
10530SOL    HW133422  10.849   1.261  12.781
10530SOL    HW233423  10.915   1.127  12.754
10531SOL     OW33424   1.007  11.893  12.169
10531SOL    HW133425   1.102  11.887  12.163
10531SOL    HW233426   0.979  11.806  12.197
10532SOL     OW33427   8.332  13.008   6.617
10532SOL    HW133428   8.395  13.065   6.661
10532SOL    HW233429   8.376  12.923   6.613
10533SOL     OW33430   5.550  11.178   2.115
10533SOL    HW133431   5.464  11.176   2.158
10533SOL    HW233432   5.533  11.223   2.032
10534SOL     OW33433   8.685   8.066   3.943
10534SOL    HW133434   8.686   7.971   3.928
10534SOL    HW233435   8.593   8.087   3.959
10535SOL     OW33436   8.097  14.799   3.227
10535SOL    HW133437   8.128  14.870   3.282
10535SOL    HW233438   8.075  14.841   3.144
10536SOL     OW33439   3.241   2.594  12.248
10536SOL    HW133440   3.149   2.595  12.271
10536SOL    HW233441   3.278   2.520  12.297
10537SOL     OW33442  10.366   1.767   6.722
10537SOL    HW133443  10.338   1.853   6.752
10537SOL    HW233444  10.333   1.706   6.788
10538SOL     OW33445  13.098  13.103   5.461
10538SOL    HW133446  13.117  13.177   5.403
10538SOL    HW233447  13.167  13.106   5.527
10539SOL     OW33448   8.268   5.940  10.223
10539SOL    HW133449   8.225   5.987  10.295
10539SOL    HW233450   8.356   5.978  10.219
10540SOL     OW33451   0.325   1.330   2.050
10540SOL    HW133452   0.285   1.399   1.998
10540SOL    HW233453   0.380   1.282   1.987
10541SOL     OW33454  14.112   3.899   2.743
10541SOL    HW133455  14.058   3.824   2.767
10541SOL    HW233456  14.098   3.962   2.814
10542SOL     OW33457   1.618  11.505  14.083
10542SOL    HW133458   1.696  11.496  14.028
10542SOL    HW233459   1.570  11.423  14.070
10543SOL     OW33460  14.409   6.061  13.211
10543SOL    HW133461  14.491   6.107  13.195
10543SOL    HW233462  14.356   6.079  13.134
10544SOL     OW33463   5.158  10.858   6.674
10544SOL    HW133464   5.142  10.825   6.585
10544SOL    HW233465   5.216  10.933   6.662
10545SOL     OW33466   4.333   2.065   2.819
10545SOL    HW133467   4.413   2.013   2.809
10545SOL    HW233468   4.360   2.140   2.872
10546SOL     OW33469   4.383   7.713  12.897
10546SOL    HW133470   4.379   7.624  12.933
10546SOL    HW233471   4.469   7.719  12.856
10547SOL     OW33472   8.951   0.798   8.767
10547SOL    HW133473   8.980   0.757   8.848
10547SOL    HW233474   8.876   0.852   8.793
10548SOL     OW33475   1.201   9.843   5.398
10548SOL    HW133476   1.246   9.829   5.315
10548SOL    HW233477   1.269   9.832   5.464
10549SOL     OW33478  13.670   3.094   3.926
10549SOL    HW133479  13.656   3.064   3.836
10549SOL    HW233480  13.745   3.043   3.957
10550SOL     OW33481   4.988  12.988  10.429
10550SOL    HW133482   4.982  12.896  10.454
10550SOL    HW233483   5.082  13.003  10.416
10551SOL     OW33484  13.436   1.997  10.814
10551SOL    HW133485  13.343   2.021  10.819
10551SOL    HW233486  13.466   1.999  10.905
10552SOL     OW33487   6.433   3.110   4.825
10552SOL    HW133488   6.339   3.089   4.819
10552SOL    HW233489   6.476   3.038   4.779
10553SOL     OW33490   1.381   1.992   8.107
10553SOL    HW133491   1.416   2.001   8.195
10553SOL    HW233492   1.396   1.900   8.084
10554SOL     OW33493   9.238   5.261   8.636
10554SOL    HW133494   9.187   5.334   8.669
10554SOL    HW233495   9.190   5.183   8.665
10555SOL     OW33496  13.142  14.715   0.744
10555SOL    HW133497  13.207  14.745   0.807
10555SOL    HW233498  13.166  14.623   0.728
10556SOL     OW33499   7.352   6.783  14.698
10556SOL    HW133500   7.296   6.789  14.620
10556SOL    HW233501   7.323   6.855  14.754
10557SOL     OW33502   6.794   2.766  12.570
10557SOL    HW133503   6.876   2.813  12.587
10557SOL    HW233504   6.743   2.778  12.650
10558SOL     OW33505   5.712   7.607   3.608
10558SOL    HW133506   5.710   7.662   3.686
10558SOL    HW233507   5.645   7.540   3.623
10559SOL     OW33508   8.246  12.881  13.862
10559SOL    HW133509   8.306  12.813  13.893
10559SOL    HW233510   8.237  12.939  13.938
10560SOL     OW33511  13.359   0.141  11.815
10560SOL    HW133512  13.365   0.222  11.764
10560SOL    HW233513  13.303   0.164  11.889
10561SOL     OW33514   4.602   7.095  13.531
10561SOL    HW133515   4.533   7.074  13.468
10561SOL    HW233516   4.633   7.181  13.505
10562SOL     OW33517   9.619   8.023   5.017
10562SOL    HW133518   9.650   8.098   5.069
10562SOL    HW233519   9.526   8.039   5.005
10563SOL     OW33520  10.530  10.282  14.327
10563SOL    HW133521  10.503  10.354  14.270
10563SOL    HW233522  10.573  10.324  14.401
10564SOL     OW33523   3.083   4.191   2.992
10564SOL    HW133524   3.144   4.119   2.975
10564SOL    HW233525   3.041   4.208   2.907
10565SOL     OW33526   4.494   4.034   3.463
10565SOL    HW133527   4.459   4.105   3.409
10565SOL    HW233528   4.448   4.041   3.546
10566SOL     OW33529   8.402   9.798   5.677
10566SOL    HW133530   8.409   9.760   5.765
10566SOL    HW233531   8.457   9.742   5.622
10567SOL     OW33532   4.989   3.561   6.859
10567SOL    HW133533   5.074   3.570   6.817
10567SOL    HW233534   4.927   3.548   6.787
10568SOL     OW33535  12.295  10.345  12.124
10568SOL    HW133536  12.351  10.421  12.138
10568SOL    HW233537  12.248  10.334  12.206
10569SOL     OW33538   2.704   0.548   1.903
10569SOL    HW133539   2.716   0.594   1.820
10569SOL    HW233540   2.610   0.526   1.905
10570SOL     OW33541   2.495   7.532   4.977
10570SOL    HW133542   2.437   7.594   5.022
10570SOL    HW233543   2.546   7.586   4.917
10571SOL     OW33544   2.025   2.650  11.586
10571SOL    HW133545   2.054   2.662  11.495
10571SOL    HW233546   1.930   2.656  11.582
10572SOL     OW33547   8.482  12.525   8.797
10572SOL    HW133548   8.396  12.485   8.787
10572SOL    HW233549   8.542  12.450   8.805
10573SOL     OW33550   3.045  14.010   6.677
10573SOL    HW133551   3.035  13.949   6.604
10573SOL    HW233552   3.137  14.038   6.672
10574SOL     OW33553  13.576  13.097  13.110
10574SOL    HW133554  13.638  13.154  13.065
10574SOL    HW233555  13.630  13.036  13.160
10575SOL     OW33556   2.858   0.668  10.360
10575SOL    HW133557   2.915   0.712  10.296
10575SOL    HW233558   2.782   0.725  10.368
10576SOL     OW33559   0.273   2.763  14.603
10576SOL    HW133560   0.198   2.712  14.573
10576SOL    HW233561   0.349   2.718  14.567
10577SOL     OW33562  14.274   5.670   0.584
10577SOL    HW133563  14.219   5.747   0.567
10577SOL    HW233564  14.310   5.648   0.498
10578SOL     OW33565   7.462   1.783  10.851
10578SOL    HW133566   7.504   1.713  10.901
10578SOL    HW233567   7.486   1.863  10.898
10579SOL     OW33568  13.352  14.142  14.678
10579SOL    HW133569  13.284  14.078  14.657
10579SOL    HW233570  13.334  14.216  14.619
10580SOL     OW33571   4.655   9.442  12.745
10580SOL    HW133572   4.749   9.446  12.725
10580SOL    HW233573   4.643   9.354  12.782
10581SOL     OW33574  13.641   5.285   9.265
10581SOL    HW133575  13.589   5.269   9.343
10581SOL    HW233576  13.695   5.360   9.287
10582SOL     OW33577   1.213   3.117   3.919
10582SOL    HW133578   1.208   3.110   4.015
10582SOL    HW233579   1.281   3.182   3.903
10583SOL     OW33580   8.274   6.954   7.096
10583SOL    HW133581   8.313   6.973   7.010
10583SOL    HW233582   8.182   6.978   7.087
10584SOL     OW33583   8.134  12.720  10.536
10584SOL    HW133584   8.155  12.805  10.499
10584SOL    HW233585   8.113  12.665  10.461
10585SOL     OW33586  12.374  12.439  11.892
10585SOL    HW133587  12.424  12.518  11.873
10585SOL    HW233588  12.295  12.447  11.839
10586SOL     OW33589   8.519   5.396  12.177
10586SOL    HW133590   8.554   5.310  12.153
10586SOL    HW233591   8.447   5.376  12.237
10587SOL     OW33592  12.951   7.653   9.129
10587SOL    HW133593  12.878   7.603   9.093
10587SOL    HW233594  12.909   7.724   9.179
10588SOL     OW33595  13.480  13.896   1.960
10588SOL    HW133596  13.465  13.957   2.032
10588SOL    HW233597  13.575  13.885   1.957
10589SOL     OW33598   0.231   5.230  14.389
10589SOL    HW133599   0.261   5.184  14.467
10589SOL    HW233600   0.222   5.321  14.417
10590SOL     OW33601   4.903  10.452  12.313
10590SOL    HW133602   4.879  10.493  12.396
10590SOL    HW233603   4.819  10.428  12.273
10591SOL     OW33604   3.647  10.674  12.364
10591SOL    HW133605   3.584  10.740  12.392
10591SOL    HW233606   3.653  10.686  12.269
10592SOL     OW33607  14.170   6.407   0.546
10592SOL    HW133608  14.247   6.456   0.574
10592SOL    HW233609  14.199   6.357   0.469
10593SOL     OW33610  10.297  10.426  14.030
10593SOL    HW133611  10.339  10.343  14.010
10593SOL    HW233612  10.261  10.456  13.947
10594SOL     OW33613   2.494   1.677   3.588
10594SOL    HW133614   2.472   1.766   3.618
10594SOL    HW233615   2.411   1.643   3.554
10595SOL     OW33616  11.153   4.790   1.363
10595SOL    HW133617  11.130   4.730   1.434
10595SOL    HW233618  11.084   4.857   1.365
10596SOL     OW33619   6.118  14.520   3.350
10596SOL    HW133620   6.065  14.594   3.381
10596SOL    HW233621   6.182  14.506   3.420
10597SOL     OW33622   3.390   8.361  11.960
10597SOL    HW133623   3.385   8.281  12.013
10597SOL    HW233624   3.302   8.372  11.925
10598SOL     OW33625  13.863  13.048  12.818
10598SOL    HW133626  13.815  12.974  12.784
10598SOL    HW233627  13.867  13.110  12.745
10599SOL     OW33628  14.637  10.341  13.626
10599SOL    HW133629  14.710  10.353  13.565
10599SOL    HW233630  14.672  10.283  13.693
10600SOL     OW33631  14.553   0.338  14.125
10600SOL    HW133632  14.492   0.410  14.138
10600SOL    HW233633  14.612   0.368  14.055
10601SOL     OW33634   6.464   5.260   9.369
10601SOL    HW133635   6.466   5.352   9.342
10601SOL    HW233636   6.387   5.223   9.327
10602SOL     OW33637   8.341   7.071  10.944
10602SOL    HW133638   8.382   7.068  11.031
10602SOL    HW233639   8.414   7.061  10.883
10603SOL     OW33640  14.601   6.174   2.437
10603SOL    HW133641  14.613   6.159   2.531
10603SOL    HW233642  14.635   6.095   2.395
10604SOL     OW33643   0.731  12.482  14.868
10604SOL    HW133644   0.756  12.552  14.807
10604SOL    HW233645   0.714  12.407  14.812
10605SOL     OW33646   3.340  11.193  11.683
10605SOL    HW133647   3.327  11.139  11.761
10605SOL    HW233648   3.428  11.170  11.652
10606SOL     OW33649   4.015   9.050   9.220
10606SOL    HW133650   4.000   9.064   9.127
10606SOL    HW233651   3.934   9.010   9.252
10607SOL     OW33652  11.219   1.037   5.032
10607SOL    HW133653  11.192   0.965   5.089
10607SOL    HW233654  11.200   1.007   4.943
10608SOL     OW33655  13.751   6.003  14.837
10608SOL    HW133656  13.744   6.003   0.060
10608SOL    HW233657  13.730   5.913  14.812
10609SOL     OW33658  12.208  14.049  11.315
10609SOL    HW133659  12.174  14.090  11.394
10609SOL    HW233660  12.212  14.121  11.251
10610SOL     OW33661   0.752   7.678   8.287
10610SOL    HW133662   0.829   7.650   8.336
10610SOL    HW233663   0.784   7.749   8.231
10611SOL     OW33664   7.790  11.813   3.587
10611SOL    HW133665   7.840  11.817   3.505
10611SOL    HW233666   7.757  11.723   3.590
10612SOL     OW33667   7.854  12.322   9.847
10612SOL    HW133668   7.946  12.347   9.850
10612SOL    HW233669   7.853  12.230   9.877
10613SOL     OW33670  14.045  14.339   2.023
10613SOL    HW133671  14.056  14.300   2.109
10613SOL    HW233672  14.128  14.322   1.978
10614SOL     OW33673   3.959   8.428  10.747
10614SOL    HW133674   3.934   8.388  10.664
10614SOL    HW233675   3.914   8.376  10.814
10615SOL     OW33676   4.915  13.632   5.167
10615SOL    HW133677   4.852  13.701   5.184
10615SOL    HW233678   4.863  13.552   5.164
10616SOL     OW33679   7.764   6.653   3.191
10616SOL    HW133680   7.851   6.635   3.227
10616SOL    HW233681   7.772   6.738   3.149
10617SOL     OW33682  10.417   9.691   5.770
10617SOL    HW133683  10.458   9.607   5.791
10617SOL    HW233684  10.436   9.704   5.677
10618SOL     OW33685   9.555   6.376   4.503
10618SOL    HW133686   9.625   6.315   4.480
10618SOL    HW233687   9.600   6.454   4.532
10619SOL     OW33688   0.485   8.872   0.808
10619SOL    HW133689   0.555   8.892   0.746
10619SOL    HW233690   0.530   8.831   0.882
10620SOL     OW33691   3.055   5.872   0.720
10620SOL    HW133692   3.020   5.865   0.632
10620SOL    HW233693   2.977   5.870   0.777
10621SOL     OW33694   1.478  12.354  14.028
10621SOL    HW133695   1.383  12.347  14.020
10621SOL    HW233696   1.512  12.279  13.978
10622SOL     OW33697   2.345   9.507  13.710
10622SOL    HW133698   2.347   9.457  13.792
10622SOL    HW233699   2.261   9.485  13.670
10623SOL     OW33700   5.162  10.038   0.749
10623SOL    HW133701   5.181  10.074   0.836
10623SOL    HW233702   5.070  10.013   0.752
10624SOL     OW33703  11.652   9.280   5.602
10624SOL    HW133704  11.696   9.349   5.552
10624SOL    HW233705  11.567   9.319   5.625
10625SOL     OW33706  11.963   3.601   3.267
10625SOL    HW133707  12.009   3.662   3.324
10625SOL    HW233708  12.032   3.548   3.228
10626SOL     OW33709   8.090   3.508  10.370
10626SOL    HW133710   8.102   3.511  10.465
10626SOL    HW233711   8.175   3.531  10.335
10627SOL     OW33712  13.023  10.345   5.750
10627SOL    HW133713  13.101  10.349   5.805
10627SOL    HW233714  12.955  10.389   5.801
10628SOL     OW33715   7.513   0.223   2.296
10628SOL    HW133716   7.539   0.278   2.222
10628SOL    HW233717   7.494   0.138   2.257
10629SOL     OW33718  11.293  10.551   9.970
10629SOL    HW133719  11.205  10.577   9.943
10629SOL    HW233720  11.286  10.536  10.064
10630SOL     OW33721  13.629  13.597   4.209
10630SOL    HW133722  13.649  13.615   4.301
10630SOL    HW233723  13.537  13.624   4.199
10631SOL     OW33724   9.517   6.288  10.903
10631SOL    HW133725   9.526   6.331  10.818
10631SOL    HW233726   9.606   6.259  10.924
10632SOL     OW33727   8.284   0.469   2.410
10632SOL    HW133728   8.274   0.472   2.506
10632SOL    HW233729   8.330   0.387   2.394
10633SOL     OW33730   4.136   2.353   1.967
10633SOL    HW133731   4.073   2.284   1.948
10633SOL    HW233732   4.189   2.360   1.887
10634SOL     OW33733  10.392   6.342   4.858
10634SOL    HW133734  10.395   6.414   4.921
10634SOL    HW233735  10.366   6.383   4.776
10635SOL     OW33736  14.103   3.505   4.725
10635SOL    HW133737  14.041   3.553   4.780
10635SOL    HW233738  14.051   3.475   4.651
10636SOL     OW33739   1.058   9.017   4.785
10636SOL    HW133740   1.095   9.105   4.779
10636SOL    HW233741   1.067   8.994   4.878
10637SOL     OW33742   3.659   4.777   4.988
10637SOL    HW133743   3.572   4.738   4.975
10637SOL    HW233744   3.695   4.731   5.063
10638SOL     OW33745  13.791   0.352   3.563
10638SOL    HW133746  13.871   0.395   3.592
10638SOL    HW233747  13.738   0.423   3.526
10639SOL     OW33748  10.050   0.092   7.150
10639SOL    HW133749  10.105   0.117   7.224
10639SOL    HW233750  10.112   0.056   7.086
10640SOL     OW33751   7.995  11.031  13.578
10640SOL    HW133752   7.914  10.986  13.601
10640SOL    HW233753   8.057  11.006  13.646
10641SOL     OW33754  10.868   0.803   6.906
10641SOL    HW133755  10.813   0.733   6.942
10641SOL    HW233756  10.812   0.849   6.844
10642SOL     OW33757   2.062   9.431  13.406
10642SOL    HW133758   2.102   9.363  13.460
10642SOL    HW233759   1.991   9.466  13.461
10643SOL     OW33760   6.392  12.680  14.513
10643SOL    HW133761   6.467  12.692  14.454
10643SOL    HW233762   6.320  12.656  14.455
10644SOL     OW33763   8.014   6.749   6.273
10644SOL    HW133764   8.004   6.830   6.323
10644SOL    HW233765   7.962   6.685   6.321
10645SOL     OW33766   3.834   4.232   4.705
10645SOL    HW133767   3.783   4.313   4.711
10645SOL    HW233768   3.909   4.247   4.764
10646SOL     OW33769   0.559   7.116  14.800
10646SOL    HW133770   0.494   7.051  14.828
10646SOL    HW233771   0.571   7.099  14.706
10647SOL     OW33772  13.037  13.232   3.925
10647SOL    HW133773  12.959  13.244   3.979
10647SOL    HW233774  13.036  13.306   3.864
10648SOL     OW33775   5.506  14.399   9.662
10648SOL    HW133776   5.493  14.480   9.711
10648SOL    HW233777   5.554  14.427   9.584
10649SOL     OW33778   0.419  13.258   3.153
10649SOL    HW133779   0.352  13.251   3.222
10649SOL    HW233780   0.501  13.270   3.200
10650SOL     OW33781   1.705  11.189  13.511
10650SOL    HW133782   1.737  11.242  13.438
10650SOL    HW233783   1.617  11.222  13.527
10651SOL     OW33784  13.117  13.833  12.714
10651SOL    HW133785  13.037  13.810  12.665
10651SOL    HW233786  13.088  13.839  12.805
10652SOL     OW33787   7.229  10.205   6.370
10652SOL    HW133788   7.199  10.245   6.288
10652SOL    HW233789   7.248  10.280   6.428
10653SOL     OW33790   6.660   3.398  12.291
10653SOL    HW133791   6.577   3.438  12.265
10653SOL    HW233792   6.637   3.342  12.365
10654SOL     OW33793   2.537   6.618   0.215
10654SOL    HW133794   2.549   6.664   0.298
10654SOL    HW233795   2.445   6.632   0.193
10655SOL     OW33796   3.104   5.667   3.995
10655SOL    HW133797   3.101   5.762   4.004
10655SOL    HW233798   3.146   5.651   3.911
10656SOL     OW33799   8.913   7.241  14.430
10656SOL    HW133800   8.958   7.325  14.439
10656SOL    HW233801   8.919   7.201  14.516
10657SOL     OW33802  13.552  11.248  10.569
10657SOL    HW133803  13.573  11.165  10.611
10657SOL    HW233804  13.477  11.281  10.618
10658SOL     OW33805  13.019   6.288  11.007
10658SOL    HW133806  12.997   6.273  11.099
10658SOL    HW233807  13.083   6.220  10.986
10659SOL     OW33808  11.238   3.999   1.442
10659SOL    HW133809  11.249   3.911   1.407
10659SOL    HW233810  11.321   4.018   1.486
10660SOL     OW33811   1.389   5.762   7.980
10660SOL    HW133812   1.377   5.692   7.916
10660SOL    HW233813   1.440   5.828   7.934
10661SOL     OW33814  13.527   5.341  13.166
10661SOL    HW133815  13.563   5.300  13.245
10661SOL    HW233816  13.599   5.340  13.104
10662SOL     OW33817  14.216   9.670  13.384
10662SOL    HW133818  14.132   9.715  13.373
10662SOL    HW233819  14.271   9.732  13.431
10663SOL     OW33820  14.654   5.194   0.491
10663SOL    HW133821  14.579   5.237   0.452
10663SOL    HW233822  14.709   5.265   0.524
10664SOL     OW33823   4.634   5.846   3.820
10664SOL    HW133824   4.717   5.836   3.865
10664SOL    HW233825   4.571   5.869   3.889
10665SOL     OW33826   8.976  10.256  12.966
10665SOL    HW133827   8.914  10.208  12.912
10665SOL    HW233828   9.055  10.202  12.966
10666SOL     OW33829   5.845  11.672  11.774
10666SOL    HW133830   5.757  11.636  11.784
10666SOL    HW233831   5.887  11.656  11.859
10667SOL     OW33832   1.734   7.479   5.660
10667SOL    HW133833   1.676   7.410   5.690
10667SOL    HW233834   1.683   7.526   5.594
10668SOL     OW33835  14.100   0.108  10.516
10668SOL    HW133836  14.021   0.076  10.560
10668SOL    HW233837  14.096   0.070  10.429
10669SOL     OW33838   6.321   6.287   5.493
10669SOL    HW133839   6.372   6.290   5.574
10669SOL    HW233840   6.307   6.378   5.470
10670SOL     OW33841   7.083   1.794   2.995
10670SOL    HW133842   7.044   1.712   3.025
10670SOL    HW233843   7.106   1.841   3.075
10671SOL     OW33844   9.663  13.642   2.561
10671SOL    HW133845   9.735  13.663   2.502
10671SOL    HW233846   9.636  13.726   2.597
10672SOL     OW33847   1.301   6.311   8.742
10672SOL    HW133848   1.380   6.281   8.698
10672SOL    HW233849   1.229   6.284   8.685
10673SOL     OW33850   2.200   1.054  10.350
10673SOL    HW133851   2.249   0.976  10.376
10673SOL    HW233852   2.109   1.034  10.372
10674SOL     OW33853   7.314   4.464   8.037
10674SOL    HW133854   7.330   4.553   8.008
10674SOL    HW233855   7.233   4.469   8.088
10675SOL     OW33856   0.077   4.385   4.744
10675SOL    HW133857   0.158   4.346   4.777
10675SOL    HW233858   0.009   4.320   4.764
10676SOL     OW33859   7.769   7.631   7.689
10676SOL    HW133860   7.817   7.654   7.610
10676SOL    HW233861   7.693   7.581   7.657
10677SOL     OW33862   0.164  13.924  10.897
10677SOL    HW133863   0.210  13.887  10.822
10677SOL    HW233864   0.094  13.976  10.859
10678SOL     OW33865   2.374   0.455   3.962
10678SOL    HW133866   2.456   0.501   3.981
10678SOL    HW233867   2.377   0.440   3.868
10679SOL     OW33868  12.067  14.629  11.069
10679SOL    HW133869  12.004  14.689  11.109
10679SOL    HW233870  12.144  14.683  11.051
10680SOL     OW33871   8.498   4.185   4.552
10680SOL    HW133872   8.406   4.167   4.531
10680SOL    HW233873   8.496   4.271   4.594
10681SOL     OW33874   9.177   1.031  12.642
10681SOL    HW133875   9.154   0.944  12.673
10681SOL    HW233876   9.167   1.088  12.718
10682SOL     OW33877  13.104   1.618   3.340
10682SOL    HW133878  13.081   1.673   3.266
10682SOL    HW233879  13.116   1.679   3.413
10683SOL     OW33880  11.948  12.807   8.706
10683SOL    HW133881  11.907  12.842   8.627
10683SOL    HW233882  12.034  12.777   8.676
10684SOL     OW33883   2.703   9.538  14.832
10684SOL    HW133884   2.657   9.605   0.011
10684SOL    HW233885   2.658   9.456  14.854
10685SOL     OW33886   0.346   8.569   9.771
10685SOL    HW133887   0.334   8.531   9.684
10685SOL    HW233888   0.336   8.663   9.758
10686SOL     OW33889   4.060   3.539  12.205
10686SOL    HW133890   4.148   3.509  12.181
10686SOL    HW233891   4.014   3.460  12.233
10687SOL     OW33892   6.239  12.784  12.288
10687SOL    HW133893   6.172  12.766  12.222
10687SOL    HW233894   6.321  12.760  12.245
10688SOL     OW33895  12.676   1.421   0.243
10688SOL    HW133896  12.655   1.376   0.325
10688SOL    HW233897  12.599   1.406   0.188
10689SOL     OW33898  12.033   1.191   5.729
10689SOL    HW133899  11.956   1.134   5.726
10689SOL    HW233900  12.004   1.268   5.779
10690SOL     OW33901   9.258   4.563   6.576
10690SOL    HW133902   9.188   4.586   6.637
10690SOL    HW233903   9.215   4.554   6.491
10691SOL     OW33904  10.697   4.529   6.329
10691SOL    HW133905  10.679   4.571   6.413
10691SOL    HW233906  10.791   4.544   6.314
10692SOL     OW33907   9.135  12.163   5.796
10692SOL    HW133908   9.053  12.135   5.756
10692SOL    HW233909   9.203  12.133   5.736
10693SOL     OW33910   0.248  10.395   8.109
10693SOL    HW133911   0.273  10.339   8.035
10693SOL    HW233912   0.219  10.333   8.176
10694SOL     OW33913   7.964   2.614  12.105
10694SOL    HW133914   8.057   2.633  12.116
10694SOL    HW233915   7.940   2.662  12.025
10695SOL     OW33916  12.675  13.770   7.963
10695SOL    HW133917  12.662  13.789   7.870
10695SOL    HW233918  12.614  13.699   7.982
10696SOL     OW33919   1.478   6.462   3.351
10696SOL    HW133920   1.471   6.521   3.426
10696SOL    HW233921   1.529   6.388   3.384
10697SOL     OW33922  11.201   2.819   9.846
10697SOL    HW133923  11.141   2.749   9.822
10697SOL    HW233924  11.266   2.776   9.902
10698SOL     OW33925   9.418   9.720   9.745
10698SOL    HW133926   9.352   9.785   9.768
10698SOL    HW233927   9.482   9.768   9.693
10699SOL     OW33928  11.197   2.790   6.394
10699SOL    HW133929  11.241   2.705   6.396
10699SOL    HW233930  11.110   2.772   6.360
10700SOL     OW33931   0.773   0.182  10.228
10700SOL    HW133932   0.694   0.236  10.239
10700SOL    HW233933   0.749   0.097  10.265
10701SOL     OW33934   8.623   9.820   6.973
10701SOL    HW133935   8.679   9.787   6.903
10701SOL    HW233936   8.661   9.904   6.998
10702SOL     OW33937   3.933  11.306  11.764
10702SOL    HW133938   3.998  11.363  11.724
10702SOL    HW233939   3.900  11.253  11.692
10703SOL     OW33940   7.752   7.370  10.605
10703SOL    HW133941   7.658   7.365  10.623
10703SOL    HW233942   7.759   7.424  10.527
10704SOL     OW33943  14.305   5.207   4.506
10704SOL    HW133944  14.315   5.192   4.412
10704SOL    HW233945  14.234   5.148   4.533
10705SOL     OW33946   9.246   5.650   7.487
10705SOL    HW133947   9.262   5.744   7.475
10705SOL    HW233948   9.177   5.630   7.424
10706SOL     OW33949   5.666   6.058   4.329
10706SOL    HW133950   5.696   6.016   4.248
10706SOL    HW233951   5.619   5.988   4.375
10707SOL     OW33952  14.294   5.357   6.654
10707SOL    HW133953  14.236   5.429   6.627
10707SOL    HW233954  14.382   5.388   6.634
10708SOL     OW33955  10.667   5.187   3.666
10708SOL    HW133956  10.604   5.254   3.639
10708SOL    HW233957  10.642   5.110   3.616
10709SOL     OW33958   4.189  13.105   0.536
10709SOL    HW133959   4.215  13.075   0.449
10709SOL    HW233960   4.097  13.081   0.544
10710SOL     OW33961  11.259   4.721  14.466
10710SOL    HW133962  11.246   4.698  14.558
10710SOL    HW233963  11.316   4.652  14.431
10711SOL     OW33964   2.082   8.801   5.512
10711SOL    HW133965   2.139   8.740   5.560
10711SOL    HW233966   2.109   8.791   5.420
10712SOL     OW33967  11.758   0.880   9.007
10712SOL    HW133968  11.837   0.839   8.972
10712SOL    HW233969  11.789   0.951   9.062
10713SOL     OW33970   0.749   0.736  11.609
10713SOL    HW133971   0.842   0.717  11.599
10713SOL    HW233972   0.705   0.651  11.598
10714SOL     OW33973   8.589   5.476   2.262
10714SOL    HW133974   8.643   5.525   2.323
10714SOL    HW233975   8.650   5.442   2.196
10715SOL     OW33976   5.716   8.400   2.619
10715SOL    HW133977   5.708   8.327   2.557
10715SOL    HW233978   5.656   8.467   2.586
10716SOL     OW33979   2.379  12.977  11.142
10716SOL    HW133980   2.342  12.894  11.171
10716SOL    HW233981   2.459  12.953  11.094
10717SOL     OW33982   0.237   4.485  13.469
10717SOL    HW133983   0.211   4.576  13.453
10717SOL    HW233984   0.273   4.455  13.386
10718SOL     OW33985  10.655  11.710   6.475
10718SOL    HW133986  10.677  11.695   6.383
10718SOL    HW233987  10.703  11.789   6.499
10719SOL     OW33988   6.955  11.975  13.769
10719SOL    HW133989   7.041  12.015  13.775
10719SOL    HW233990   6.931  11.980  13.677
10720SOL     OW33991  14.356   0.178  11.889
10720SOL    HW133992  14.350   0.230  11.968
10720SOL    HW233993  14.438   0.206  11.848
10721SOL     OW33994   8.473   9.701   8.732
10721SOL    HW133995   8.565   9.730   8.728
10721SOL    HW233996   8.472   9.635   8.802
10722SOL     OW33997   8.003   0.062   7.161
10722SOL    HW133998   8.058  14.857   7.174
10722SOL    HW233999   7.915   0.027   7.146
10723SOL     OW34000  11.226  13.043   8.205
10723SOL    HW134001  11.194  13.070   8.119
10723SOL    HW234002  11.213  12.948   8.207
10724SOL     OW34003   8.584  14.641  13.381
10724SOL    HW134004   8.522  14.702  13.340
10724SOL    HW234005   8.565  14.557  13.340
10725SOL     OW34006   0.935   0.914   2.741
10725SOL    HW134007   0.885   0.835   2.721
10725SOL    HW234008   0.878   0.986   2.715
10726SOL     OW34009  10.480  12.813  13.800
10726SOL    HW134010  10.503  12.782  13.887
10726SOL    HW234011  10.403  12.761  13.776
10727SOL     OW34012   6.057  12.949   0.517
10727SOL    HW134013   6.057  13.041   0.541
10727SOL    HW234014   6.149  12.925   0.510
10728SOL     OW34015   6.655  13.435   0.968
10728SOL    HW134016   6.601  13.404   0.896
10728SOL    HW234017   6.738  13.390   0.958
10729SOL     OW34018  12.063   4.426  14.518
10729SOL    HW134019  12.014   4.370  14.459
10729SOL    HW234020  12.005   4.500  14.535
10730SOL     OW34021   4.229  10.120  13.147
10730SOL    HW134022   4.172  10.064  13.094
10730SOL    HW234023   4.223  10.207  13.106
10731SOL     OW34024   4.862   2.644  11.878
10731SOL    HW134025   4.792   2.702  11.850
10731SOL    HW234026   4.817   2.562  11.901
10732SOL     OW34027   3.862  10.555   1.897
10732SOL    HW134028   3.923  10.545   1.824
10732SOL    HW234029   3.838  10.647   1.896
10733SOL     OW34030   4.881  14.063  12.561
10733SOL    HW134031   4.889  13.968  12.562
10733SOL    HW234032   4.956  14.093  12.510
10734SOL     OW34033  13.634   8.183   8.754
10734SOL    HW134034  13.685   8.122   8.807
10734SOL    HW234035  13.648   8.152   8.664
10735SOL     OW34036   3.836   3.580   4.567
10735SOL    HW134037   3.756   3.616   4.606
10735SOL    HW234038   3.870   3.520   4.632
10736SOL     OW34039   5.256  10.324   2.117
10736SOL    HW134040   5.168  10.288   2.106
10736SOL    HW234041   5.311  10.248   2.134
10737SOL     OW34042  11.482   5.844   4.832
10737SOL    HW134043  11.504   5.826   4.741
10737SOL    HW234044  11.399   5.799   4.847
10738SOL     OW34045  12.054   2.299   0.676
10738SOL    HW134046  12.009   2.379   0.706
10738SOL    HW234047  12.063   2.246   0.755
10739SOL     OW34048  12.325   7.753  10.813
10739SOL    HW134049  12.385   7.797  10.753
10739SOL    HW234050  12.240   7.756  10.769
10740SOL     OW34051   0.416   4.972   7.839
10740SOL    HW134052   0.347   5.038   7.850
10740SOL    HW234053   0.436   4.944   7.929
10741SOL     OW34054  13.509  14.333  13.623
10741SOL    HW134055  13.460  14.254  13.646
10741SOL    HW234056  13.547  14.364  13.706
10742SOL     OW34057   4.036  13.661  12.030
10742SOL    HW134058   4.122  13.688  12.060
10742SOL    HW234059   3.999  13.739  11.988
10743SOL     OW34060  10.376  11.477  13.857
10743SOL    HW134061  10.319  11.456  13.931
10743SOL    HW234062  10.333  11.550  13.813
10744SOL     OW34063   2.856  10.543   0.316
10744SOL    HW134064   2.796  10.605   0.357
10744SOL    HW234065   2.938  10.553   0.365
10745SOL     OW34066  14.237   5.791  13.463
10745SOL    HW134067  14.279   5.877  13.469
10745SOL    HW234068  14.308   5.728  13.474
10746SOL     OW34069   7.152   2.232  10.425
10746SOL    HW134070   7.185   2.230  10.335
10746SOL    HW234071   7.218   2.282  10.473
10747SOL     OW34072   8.806   0.193  11.170
10747SOL    HW134073   8.823   0.265  11.230
10747SOL    HW234074   8.717   0.165  11.191
10748SOL     OW34075   3.620  14.201   2.984
10748SOL    HW134076   3.690  14.266   2.970
10748SOL    HW234077   3.665  14.123   3.014
10749SOL     OW34078   7.039   9.207   1.600
10749SOL    HW134079   7.097   9.135   1.625
10749SOL    HW234080   7.002   9.237   1.683
10750SOL     OW34081   9.988   4.591   1.954
10750SOL    HW134082   9.946   4.655   2.012
10750SOL    HW234083  10.044   4.539   2.012
10751SOL     OW34084   6.941   8.258   4.798
10751SOL    HW134085   6.920   8.321   4.867
10751SOL    HW234086   6.884   8.183   4.815
10752SOL     OW34087   9.136   6.455   5.335
10752SOL    HW134088   9.083   6.447   5.414
10752SOL    HW234089   9.200   6.384   5.342
10753SOL     OW34090  12.726   5.844   8.800
10753SOL    HW134091  12.741   5.787   8.724
10753SOL    HW234092  12.807   5.892   8.810
10754SOL     OW34093  13.940   4.282   6.992
10754SOL    HW134094  13.872   4.267   6.926
10754SOL    HW234095  13.945   4.377   7.000
10755SOL     OW34096   0.382  13.101   9.561
10755SOL    HW134097   0.427  13.073   9.640
10755SOL    HW234098   0.448  13.150   9.512
10756SOL     OW34099  10.530   0.941  12.262
10756SOL    HW134100  10.538   0.878  12.190
10756SOL    HW234101  10.446   0.984  12.247
10757SOL     OW34102   9.492  13.015  13.401
10757SOL    HW134103   9.496  12.959  13.323
10757SOL    HW234104   9.581  13.046  13.413
10758SOL     OW34105  12.111   1.755   5.573
10758SOL    HW134106  12.083   1.736   5.662
10758SOL    HW234107  12.204   1.779   5.582
10759SOL     OW34108   8.632   1.982   7.283
10759SOL    HW134109   8.709   1.984   7.339
10759SOL    HW234110   8.567   1.932   7.332
10760SOL     OW34111   6.087  11.708  12.072
10760SOL    HW134112   6.057  11.786  12.117
10760SOL    HW234113   6.181  11.704  12.091
10761SOL     OW34114   2.395  10.249   3.486
10761SOL    HW134115   2.444  10.168   3.473
10761SOL    HW234116   2.389  10.289   3.399
10762SOL     OW34117   9.573   5.966   4.408
10762SOL    HW134118   9.625   5.887   4.400
10762SOL    HW234119   9.549   5.970   4.501
10763SOL     OW34120   8.135  11.087  13.890
10763SOL    HW134121   8.156  10.999  13.858
10763SOL    HW234122   8.060  11.073  13.949
10764SOL     OW34123   6.949   4.874   8.714
10764SOL    HW134124   6.909   4.909   8.634
10764SOL    HW234125   7.034   4.839   8.684
10765SOL     OW34126  13.959   6.330   9.723
10765SOL    HW134127  13.998   6.248   9.756
10765SOL    HW234128  14.034   6.388   9.710
10766SOL     OW34129  12.207   8.514  12.329
10766SOL    HW134130  12.125   8.544  12.369
10766SOL    HW234131  12.269   8.511  12.402
10767SOL     OW34132   5.369   6.949   0.192
10767SOL    HW134133   5.297   7.010   0.206
10767SOL    HW234134   5.447   7.004   0.184
10768SOL     OW34135   4.322  13.344   3.117
10768SOL    HW134136   4.258  13.282   3.083
10768SOL    HW234137   4.403  13.323   3.070
10769SOL     OW34138   6.255   9.920   8.818
10769SOL    HW134139   6.318   9.992   8.824
10769SOL    HW234140   6.255   9.880   8.905
10770SOL     OW34141  12.530   0.745  13.931
10770SOL    HW134142  12.600   0.686  13.960
10770SOL    HW234143  12.512   0.800  14.008
10771SOL     OW34144   3.072  12.314  13.708
10771SOL    HW134145   3.051  12.299  13.801
10771SOL    HW234146   3.162  12.346  13.708
10772SOL     OW34147   8.251  11.847  10.345
10772SOL    HW134148   8.295  11.931  10.332
10772SOL    HW234149   8.253  11.834  10.440
10773SOL     OW34150  13.445   4.734   9.676
10773SOL    HW134151  13.510   4.679   9.720
10773SOL    HW234152  13.412   4.680   9.605
10774SOL     OW34153   4.799   2.347  13.817
10774SOL    HW134154   4.720   2.400  13.816
10774SOL    HW234155   4.828   2.348  13.908
10775SOL     OW34156   6.926   4.279   1.608
10775SOL    HW134157   7.010   4.319   1.584
10775SOL    HW234158   6.909   4.309   1.697
10776SOL     OW34159  12.291   0.717  10.264
10776SOL    HW134160  12.210   0.692  10.220
10776SOL    HW234161  12.355   0.650  10.238
10777SOL     OW34162   3.659   9.413   0.995
10777SOL    HW134163   3.666   9.504   0.965
10777SOL    HW234164   3.596   9.417   1.067
10778SOL     OW34165   3.820   9.617   0.649
10778SOL    HW134166   3.873   9.573   0.716
10778SOL    HW234167   3.730   9.614   0.684
10779SOL     OW34168   2.498   9.679   3.464
10779SOL    HW134169   2.509   9.770   3.436
10779SOL    HW234170   2.414   9.678   3.510
10780SOL     OW34171  14.750   7.505  13.391
10780SOL    HW134172  14.735   7.599  13.388
10780SOL    HW234173  14.806   7.487  13.316
10781SOL     OW34174   1.833   5.030  13.752
10781SOL    HW134175   1.927   5.044  13.744
10781SOL    HW234176   1.806   4.996  13.667
10782SOL     OW34177  14.038  13.215   2.867
10782SOL    HW134178  14.049  13.246   2.957
10782SOL    HW234179  14.103  13.264   2.817
10783SOL     OW34180   3.706   6.853   1.137
10783SOL    HW134181   3.706   6.826   1.045
10783SOL    HW234182   3.667   6.940   1.136
10784SOL     OW34183   5.697   0.193   8.833
10784SOL    HW134184   5.754   0.271   8.835
10784SOL    HW234185   5.747   0.129   8.782
10785SOL     OW34186   1.069   4.846   2.054
10785SOL    HW134187   1.114   4.771   2.016
10785SOL    HW234188   1.037   4.895   1.978
10786SOL     OW34189   0.464   1.058   6.258
10786SOL    HW134190   0.368   1.062   6.262
10786SOL    HW234191   0.482   1.033   6.167
10787SOL     OW34192   7.430   5.697   6.225
10787SOL    HW134193   7.484   5.654   6.291
10787SOL    HW234194   7.348   5.648   6.224
10788SOL     OW34195   4.550   1.448   6.759
10788SOL    HW134196   4.550   1.355   6.737
10788SOL    HW234197   4.643   1.469   6.775
10789SOL     OW34198   3.763   4.162  10.105
10789SOL    HW134199   3.720   4.243  10.129
10789SOL    HW234200   3.853   4.188  10.085
10790SOL     OW34201  14.289  14.683   6.327
10790SOL    HW134202  14.288  14.777   6.309
10790SOL    HW234203  14.206  14.667   6.372
10791SOL     OW34204   6.099   2.122   9.888
10791SOL    HW134205   6.121   2.167   9.970
10791SOL    HW234206   6.167   2.149   9.827
10792SOL     OW34207   0.463   6.748   7.457
10792SOL    HW134208   0.479   6.690   7.532
10792SOL    HW234209   0.542   6.740   7.404
10793SOL     OW34210   5.639   8.300  12.890
10793SOL    HW134211   5.715   8.322  12.944
10793SOL    HW234212   5.676   8.286  12.802
10794SOL     OW34213   8.475  11.571   4.257
10794SOL    HW134214   8.443  11.544   4.171
10794SOL    HW234215   8.463  11.494   4.312
10795SOL     OW34216   6.965  11.601   0.690
10795SOL    HW134217   6.896  11.635   0.633
10795SOL    HW234218   6.948  11.640   0.776
10796SOL     OW34219  11.684  12.129   0.513
10796SOL    HW134220  11.610  12.154   0.568
10796SOL    HW234221  11.658  12.158   0.425
10797SOL     OW34222   1.117   0.485   2.597
10797SOL    HW134223   1.109   0.463   2.690
10797SOL    HW234224   1.044   0.439   2.555
10798SOL     OW34225   6.781   2.740   7.049
10798SOL    HW134226   6.837   2.705   7.118
10798SOL    HW234227   6.700   2.691   7.057
10799SOL     OW34228   4.571   0.800   9.341
10799SOL    HW134229   4.480   0.816   9.363
10799SOL    HW234230   4.582   0.840   9.255
10800SOL     OW34231   7.552   5.072   7.655
10800SOL    HW134232   7.552   5.059   7.560
10800SOL    HW234233   7.463   5.098   7.676
10801SOL     OW34234   6.793  10.506   9.835
10801SOL    HW134235   6.797  10.446   9.760
10801SOL    HW234236   6.847  10.464   9.902
10802SOL     OW34237   9.727   4.525   4.959
10802SOL    HW134238   9.681   4.604   4.931
10802SOL    HW234239   9.677   4.453   4.921
10803SOL     OW34240  10.822  11.912  11.193
10803SOL    HW134241  10.813  11.995  11.145
10803SOL    HW234242  10.744  11.862  11.169
10804SOL     OW34243   8.896   9.944   5.102
10804SOL    HW134244   8.831   9.877   5.126
10804SOL    HW234245   8.949   9.902   5.035
10805SOL     OW34246   2.530   7.179   4.009
10805SOL    HW134247   2.548   7.095   4.050
10805SOL    HW234248   2.500   7.235   4.081
10806SOL     OW34249  13.436  10.484   6.949
10806SOL    HW134250  13.383  10.510   7.024
10806SOL    HW234251  13.459  10.392   6.966
10807SOL     OW34252   7.804  12.010   5.635
10807SOL    HW134253   7.871  12.057   5.685
10807SOL    HW234254   7.813  11.919   5.663
10808SOL     OW34255  11.742  13.054   3.167
10808SOL    HW134256  11.811  13.078   3.105
10808SOL    HW234257  11.788  13.041   3.250
10809SOL     OW34258   6.432   0.919  10.908
10809SOL    HW134259   6.363   0.977  10.939
10809SOL    HW234260   6.386   0.850  10.861
10810SOL     OW34261   1.648   1.628   2.068
10810SOL    HW134262   1.596   1.570   2.125
10810SOL    HW234263   1.674   1.572   1.995
10811SOL     OW34264   8.325   1.935  10.193
10811SOL    HW134265   8.266   1.867  10.161
10811SOL    HW234266   8.268   1.995  10.241
10812SOL     OW34267   0.062   8.953   0.781
10812SOL    HW134268  14.871   9.025   0.789
10812SOL    HW234269   0.139   8.984   0.828
10813SOL     OW34270  11.554   8.277   5.975
10813SOL    HW134271  11.491   8.275   5.903
10813SOL    HW234272  11.639   8.282   5.933
10814SOL     OW34273   0.600  14.753  14.628
10814SOL    HW134274   0.514  14.767  14.589
10814SOL    HW234275   0.654  14.718  14.558
10815SOL     OW34276   7.594   4.448   3.705
10815SOL    HW134277   7.687   4.464   3.687
10815SOL    HW234278   7.591   4.356   3.733
10816SOL     OW34279  12.033   8.558   5.739
10816SOL    HW134280  12.068   8.640   5.774
10816SOL    HW234281  12.034   8.569   5.644
10817SOL     OW34282   2.179   5.993   4.886
10817SOL    HW134283   2.215   6.031   4.966
10817SOL    HW234284   2.246   6.010   4.819
10818SOL     OW34285   2.249  10.262   4.625
10818SOL    HW134286   2.187  10.227   4.689
10818SOL    HW234287   2.335  10.247   4.664
10819SOL     OW34288   3.087   1.793   9.956
10819SOL    HW134289   3.088   1.881   9.992
10819SOL    HW234290   2.996   1.777   9.932
10820SOL     OW34291   0.705   4.305   8.578
10820SOL    HW134292   0.686   4.293   8.671
10820SOL    HW234293   0.618   4.309   8.536
10821SOL     OW34294  11.564   0.592   6.044
10821SOL    HW134295  11.569   0.513   5.990
10821SOL    HW234296  11.651   0.630   6.040
10822SOL     OW34297  12.675   2.431   7.335
10822SOL    HW134298  12.696   2.502   7.397
10822SOL    HW234299  12.726   2.452   7.257
10823SOL     OW34300  10.132   4.798   3.615
10823SOL    HW134301  10.204   4.750   3.574
10823SOL    HW234302  10.074   4.821   3.542
10824SOL     OW34303   2.985   5.870   8.891
10824SOL    HW134304   3.031   5.884   8.808
10824SOL    HW234305   2.895   5.897   8.873
10825SOL     OW34306   5.455   8.860   8.338
10825SOL    HW134307   5.485   8.785   8.286
10825SOL    HW234308   5.364   8.840   8.360
10826SOL     OW34309   1.026   5.570   3.727
10826SOL    HW134310   1.015   5.483   3.688
10826SOL    HW234311   0.951   5.620   3.694
10827SOL     OW34312   3.615   5.797   1.808
10827SOL    HW134313   3.664   5.750   1.741
10827SOL    HW234314   3.638   5.889   1.795
10828SOL     OW34315  13.626   7.712   4.451
10828SOL    HW134316  13.602   7.622   4.475
10828SOL    HW234317  13.711   7.702   4.408
10829SOL     OW34318   0.306  10.645  14.169
10829SOL    HW134319   0.257  10.682  14.095
10829SOL    HW234320   0.239  10.603  14.223
10830SOL     OW34321   4.680   9.857  13.596
10830SOL    HW134322   4.614   9.830  13.532
10830SOL    HW234323   4.665   9.950  13.608
10831SOL     OW34324   8.681  14.514   2.026
10831SOL    HW134325   8.706  14.557   2.108
10831SOL    HW234326   8.746  14.446   2.014
10832SOL     OW34327  13.809   9.853  12.441
10832SOL    HW134328  13.857   9.885  12.517
10832SOL    HW234329  13.868   9.789  12.400
10833SOL     OW34330   6.956  14.805   0.984
10833SOL    HW134331   6.996  14.718   0.979
10833SOL    HW234332   6.897  14.808   0.908
10834SOL     OW34333   3.695  13.493   2.188
10834SOL    HW134334   3.655  13.469   2.104
10834SOL    HW234335   3.789  13.499   2.169
10835SOL     OW34336   2.139   5.806  13.610
10835SOL    HW134337   2.060   5.762  13.577
10835SOL    HW234338   2.156   5.874  13.545
10836SOL     OW34339   4.484  10.980   0.123
10836SOL    HW134340   4.501  10.890   0.093
10836SOL    HW234341   4.473  11.030   0.042
10837SOL     OW34342   3.463  13.727   6.873
10837SOL    HW134343   3.399  13.701   6.938
10837SOL    HW234344   3.463  13.823   6.877
10838SOL     OW34345   8.219   5.476   8.861
10838SOL    HW134346   8.249   5.398   8.909
10838SOL    HW234347   8.243   5.458   8.770
10839SOL     OW34348  10.980   4.796   4.841
10839SOL    HW134349  10.969   4.885   4.808
10839SOL    HW234350  11.071   4.775   4.821
10840SOL     OW34351   9.539   8.530   4.665
10840SOL    HW134352   9.484   8.556   4.739
10840SOL    HW234353   9.519   8.595   4.597
10841SOL     OW34354   8.217   5.694  10.011
10841SOL    HW134355   8.272   5.756  10.058
10841SOL    HW234356   8.136   5.689  10.063
10842SOL     OW34357   8.174   3.975  12.962
10842SOL    HW134358   8.093   3.948  12.919
10842SOL    HW234359   8.193   4.061  12.927
10843SOL     OW34360   2.086   3.984   8.619
10843SOL    HW134361   2.104   3.908   8.675
10843SOL    HW234362   2.173   4.018   8.596
10844SOL     OW34363  14.758   6.958  10.587
10844SOL    HW134364  14.693   7.016  10.547
10844SOL    HW234365  14.760   6.880  10.531
10845SOL     OW34366   7.550   4.694   1.464
10845SOL    HW134367   7.567   4.785   1.439
10845SOL    HW234368   7.569   4.643   1.385
10846SOL     OW34369  11.539   8.595   8.634
10846SOL    HW134370  11.632   8.614   8.639
10846SOL    HW234371  11.532   8.523   8.571
10847SOL     OW34372   2.795  14.836   0.176
10847SOL    HW134373   2.763   0.051   0.149
10847SOL    HW234374   2.854  14.810   0.105
10848SOL     OW34375  11.012   9.898  10.297
10848SOL    HW134376  11.010   9.808  10.330
10848SOL    HW234377  11.103   9.911  10.269
10849SOL     OW34378  13.585  11.620   3.350
10849SOL    HW134379  13.537  11.658   3.276
10849SOL    HW234380  13.625  11.696   3.394
10850SOL     OW34381   2.820   3.566   2.459
10850SOL    HW134382   2.756   3.496   2.444
10850SOL    HW234383   2.904   3.528   2.436
10851SOL     OW34384   6.895   8.333   4.499
10851SOL    HW134385   6.860   8.421   4.510
10851SOL    HW234386   6.946   8.317   4.579
10852SOL     OW34387   1.758   4.158   1.138
10852SOL    HW134388   1.794   4.228   1.192
10852SOL    HW234389   1.832   4.099   1.122
10853SOL     OW34390   3.079   7.653  11.548
10853SOL    HW134391   3.083   7.586  11.480
10853SOL    HW234392   3.167   7.656  11.585
10854SOL     OW34393  13.959   6.251  10.870
10854SOL    HW134394  13.916   6.167  10.888
10854SOL    HW234395  13.914   6.285  10.793
10855SOL     OW34396  11.501   8.397  13.421
10855SOL    HW134397  11.422   8.359  13.458
10855SOL    HW234398  11.550   8.430  13.496
10856SOL     OW34399   0.136  11.919  12.090
10856SOL    HW134400   0.212  11.963  12.128
10856SOL    HW234401   0.118  11.846  12.148
10857SOL     OW34402   7.502   3.968   9.074
10857SOL    HW134403   7.488   4.063   9.067
10857SOL    HW234404   7.595   3.958   9.091
10858SOL     OW34405   9.184   2.261  10.751
10858SOL    HW134406   9.204   2.302  10.835
10858SOL    HW234407   9.264   2.213  10.728
10859SOL     OW34408  12.670   0.100   3.536
10859SOL    HW134409  12.622   0.037   3.590
10859SOL    HW234410  12.760   0.093   3.567
10860SOL     OW34411   3.259  13.729  14.385
10860SOL    HW134412   3.192  13.664  14.365
10860SOL    HW234413   3.301  13.697  14.465
10861SOL     OW34414   9.477  14.384   7.114
10861SOL    HW134415   9.506  14.319   7.049
10861SOL    HW234416   9.534  14.460   7.098
10862SOL     OW34417  14.161   9.313   3.514
10862SOL    HW134418  14.232   9.373   3.495
10862SOL    HW234419  14.168   9.296   3.608
10863SOL     OW34420  10.648   5.664   1.704
10863SOL    HW134421  10.708   5.653   1.630
10863SOL    HW234422  10.682   5.741   1.751
10864SOL     OW34423  11.225   2.467  11.096
10864SOL    HW134424  11.291   2.531  11.068
10864SOL    HW234425  11.274   2.385  11.105
10865SOL     OW34426   7.826  10.432   2.200
10865SOL    HW134427   7.863  10.344   2.207
10865SOL    HW234428   7.883  10.477   2.138
10866SOL     OW34429  12.894   7.862  10.180
10866SOL    HW134430  12.965   7.912  10.140
10866SOL    HW234431  12.815   7.912  10.157
10867SOL     OW34432   8.661   2.184   0.245
10867SOL    HW134433   8.651   2.191   0.340
10867SOL    HW234434   8.581   2.141   0.216
10868SOL     OW34435  14.759   4.824  12.837
10868SOL    HW134436  14.688   4.779  12.882
10868SOL    HW234437  14.798   4.880  12.904
10869SOL     OW34438   4.099   0.902  13.857
10869SOL    HW134439   4.171   0.839  13.860
10869SOL    HW234440   4.132   0.973  13.802
10870SOL     OW34441   6.651   0.967  14.621
10870SOL    HW134442   6.657   1.044  14.677
10870SOL    HW234443   6.651   1.001  14.532
10871SOL     OW34444   5.817  12.703   5.073
10871SOL    HW134445   5.779  12.705   4.985
10871SOL    HW234446   5.911  12.715   5.059
10872SOL     OW34447   7.577   9.351   0.876
10872SOL    HW134448   7.506   9.380   0.933
10872SOL    HW234449   7.555   9.260   0.855
10873SOL     OW34450   3.347   3.111  11.600
10873SOL    HW134451   3.288   3.120  11.674
10873SOL    HW234452   3.413   3.049  11.630
10874SOL     OW34453   4.600   0.143  14.535
10874SOL    HW134454   4.575   0.065  14.585
10874SOL    HW234455   4.592   0.215  14.597
10875SOL     OW34456  10.633   1.609   9.089
10875SOL    HW134457  10.586   1.580   9.010
10875SOL    HW234458  10.609   1.701   9.098
10876SOL     OW34459   8.195   6.333  14.485
10876SOL    HW134460   8.257   6.331  14.413
10876SOL    HW234461   8.160   6.423  14.484
10877SOL     OW34462   5.376   3.615  12.670
10877SOL    HW134463   5.312   3.600  12.601
10877SOL    HW234464   5.326   3.605  12.751
10878SOL     OW34465  11.719  12.879   2.824
10878SOL    HW134466  11.722  12.966   2.786
10878SOL    HW234467  11.785  12.880   2.893
10879SOL     OW34468  13.398   0.011   7.949
10879SOL    HW134469  13.402   0.069   8.025
10879SOL    HW234470  13.361   0.065   7.879
10880SOL     OW34471  12.427   1.018  12.911
10880SOL    HW134472  12.424   0.927  12.940
10880SOL    HW234473  12.478   1.062  12.979
10881SOL     OW34474   3.737   6.478   9.807
10881SOL    HW134475   3.656   6.509   9.848
10881SOL    HW234476   3.738   6.519   9.721
10882SOL     OW34477  10.227   5.028   9.845
10882SOL    HW134478  10.241   5.059   9.934
10882SOL    HW234479  10.244   5.103   9.789
10883SOL     OW34480   2.289   0.231   9.607
10883SOL    HW134481   2.223   0.252   9.541
10883SOL    HW234482   2.248   0.257   9.690
10884SOL     OW34483   4.280   9.697  12.899
10884SOL    HW134484   4.320   9.675  12.815
10884SOL    HW234485   4.226   9.621  12.920
10885SOL     OW34486   0.088   2.874   6.348
10885SOL    HW134487   0.065   2.805   6.410
10885SOL    HW234488   0.030   2.947   6.370
10886SOL     OW34489   9.238   2.954   6.175
10886SOL    HW134490   9.228   2.866   6.138
10886SOL    HW234491   9.157   2.969   6.223
10887SOL     OW34492  12.887   1.615  12.199
10887SOL    HW134493  12.856   1.627  12.109
10887SOL    HW234494  12.846   1.534  12.228
10888SOL     OW34495   1.860  11.041   8.871
10888SOL    HW134496   1.845  10.972   8.935
10888SOL    HW234497   1.886  10.994   8.791
10889SOL     OW34498   0.807   3.288   4.176
10889SOL    HW134499   0.715   3.301   4.153
10889SOL    HW234500   0.839   3.225   4.111
10890SOL     OW34501  12.511   9.830   3.400
10890SOL    HW134502  12.448   9.759   3.389
10890SOL    HW234503  12.590   9.788   3.432
10891SOL     OW34504  10.005   7.165   9.977
10891SOL    HW134505   9.994   7.219   9.899
10891SOL    HW234506   9.917   7.131   9.995
10892SOL     OW34507  12.441   9.594   8.734
10892SOL    HW134508  12.369   9.655   8.748
10892SOL    HW234509  12.511   9.648   8.696
10893SOL     OW34510   9.731   0.068   6.374
10893SOL    HW134511   9.747   0.158   6.404
10893SOL    HW234512   9.639   0.052   6.395
10894SOL     OW34513   2.178   3.306   3.188
10894SOL    HW134514   2.198   3.227   3.238
10894SOL    HW234515   2.101   3.283   3.137
10895SOL     OW34516   5.934   6.000  14.741
10895SOL    HW134517   5.890   6.007  14.656
10895SOL    HW234518   5.904   6.076  14.790
10896SOL     OW34519   7.798  13.145  12.363
10896SOL    HW134520   7.711  13.106  12.377
10896SOL    HW234521   7.796  13.228  12.410
10897SOL     OW34522  11.563  13.578  13.549
10897SOL    HW134523  11.565  13.616  13.637
10897SOL    HW234524  11.639  13.520  13.545
10898SOL     OW34525   4.558  10.131   1.383
10898SOL    HW134526   4.622  10.200   1.401
10898SOL    HW234527   4.601  10.075   1.318
10899SOL     OW34528   3.864   7.108  11.494
10899SOL    HW134529   3.943   7.096  11.443
10899SOL    HW234530   3.811   7.030  11.476
10900SOL     OW34531   8.155   7.301   6.693
10900SOL    HW134532   8.151   7.310   6.598
10900SOL    HW234533   8.149   7.207   6.708
10901SOL     OW34534  14.625  13.772  12.459
10901SOL    HW134535  14.618  13.679  12.480
10901SOL    HW234536  14.581  13.817  12.531
10902SOL     OW34537   4.302   7.959   3.424
10902SOL    HW134538   4.271   7.878   3.467
10902SOL    HW234539   4.311   8.021   3.496
10903SOL     OW34540  12.554   0.378   4.546
10903SOL    HW134541  12.503   0.395   4.467
10903SOL    HW234542  12.538   0.286   4.566
10904SOL     OW34543  14.325   4.922   7.653
10904SOL    HW134544  14.326   5.017   7.641
10904SOL    HW234545  14.339   4.886   7.565
10905SOL     OW34546   9.205   7.936   1.638
10905SOL    HW134547   9.296   7.956   1.660
10905SOL    HW234548   9.157   8.016   1.662
10906SOL     OW34549  10.462   6.233  14.074
10906SOL    HW134550  10.459   6.219  14.169
10906SOL    HW234551  10.472   6.145  14.037
10907SOL     OW34552  14.749   9.316   7.775
10907SOL    HW134553  14.777   9.292   7.686
10907SOL    HW234554  14.697   9.241   7.805
10908SOL     OW34555   6.502  10.868   2.666
10908SOL    HW134556   6.443  10.927   2.713
10908SOL    HW234557   6.487  10.887   2.574
10909SOL     OW34558   2.932   1.833   6.700
10909SOL    HW134559   2.998   1.855   6.766
10909SOL    HW234560   2.942   1.900   6.633
10910SOL     OW34561  12.002  13.206  12.232
10910SOL    HW134562  11.926  13.149  12.237
10910SOL    HW234563  12.075  13.152  12.263
10911SOL     OW34564   9.566  13.698   5.281
10911SOL    HW134565   9.545  13.781   5.238
10911SOL    HW234566   9.646  13.668   5.237
10912SOL     OW34567  10.231   3.844   7.164
10912SOL    HW134568  10.213   3.773   7.225
10912SOL    HW234569  10.205   3.809   7.078
10913SOL     OW34570  12.966  10.259   8.389
10913SOL    HW134571  12.964  10.342   8.436
10913SOL    HW234572  13.014  10.278   8.308
10914SOL     OW34573   9.185   2.622  12.395
10914SOL    HW134574   9.221   2.538  12.367
10914SOL    HW234575   9.130   2.650  12.321
10915SOL     OW34576   0.793   6.873   8.395
10915SOL    HW134577   0.832   6.934   8.457
10915SOL    HW234578   0.863   6.811   8.374
10916SOL     OW34579   2.083  11.139  11.539
10916SOL    HW134580   2.124  11.226  11.536
10916SOL    HW234581   2.149  11.080  11.502
10917SOL     OW34582   2.180   5.798  13.195
10917SOL    HW134583   2.207   5.721  13.145
10917SOL    HW234584   2.187   5.771  13.286
10918SOL     OW34585   4.458   6.391   5.138
10918SOL    HW134586   4.506   6.473   5.126
10918SOL    HW234587   4.467   6.372   5.231
10919SOL     OW34588   9.586  13.229   7.238
10919SOL    HW134589   9.600  13.294   7.306
10919SOL    HW234590   9.558  13.278   7.161
10920SOL     OW34591  13.363   1.374   0.811
10920SOL    HW134592  13.324   1.369   0.898
10920SOL    HW234593  13.453   1.343   0.824
10921SOL     OW34594   9.915   3.767  14.776
10921SOL    HW134595   9.998   3.739  14.814
10921SOL    HW234596   9.933   3.779  14.683
10922SOL     OW34597   4.786   7.084   6.639
10922SOL    HW134598   4.737   7.011   6.677
10922SOL    HW234599   4.767   7.078   6.545
10923SOL     OW34600  11.289   0.724   1.859
10923SOL    HW134601  11.261   0.724   1.951
10923SOL    HW234602  11.213   0.757   1.811
10924SOL     OW34603   0.863  12.070  11.482
10924SOL    HW134604   0.913  12.147  11.508
10924SOL    HW234605   0.772  12.095  11.495
10925SOL     OW34606  12.424  10.264   5.860
10925SOL    HW134607  12.458  10.198   5.801
10925SOL    HW234608  12.341  10.292   5.820
10926SOL     OW34609  12.203  10.617   8.638
10926SOL    HW134610  12.183  10.634   8.730
10926SOL    HW234611  12.118  10.618   8.594
10927SOL     OW34612   3.140  10.428  13.868
10927SOL    HW134613   3.102  10.358  13.816
10927SOL    HW234614   3.068  10.489  13.884
10928SOL     OW34615   8.627   5.325   7.875
10928SOL    HW134616   8.675   5.305   7.956
10928SOL    HW234617   8.585   5.409   7.893
10929SOL     OW34618   1.019   0.236   3.857
10929SOL    HW134619   1.049   0.326   3.845
10929SOL    HW234620   1.088   0.182   3.819
10930SOL     OW34621  12.004   1.053   3.017
10930SOL    HW134622  12.047   1.136   3.036
10930SOL    HW234623  12.062   0.986   3.054
10931SOL     OW34624   3.680   4.785   4.443
10931SOL    HW134625   3.744   4.842   4.487
10931SOL    HW234626   3.598   4.801   4.489
10932SOL     OW34627  10.290  11.017   4.221
10932SOL    HW134628  10.330  10.941   4.178
10932SOL    HW234629  10.343  11.031   4.300
10933SOL     OW34630  14.135  14.278   8.011
10933SOL    HW134631  14.176  14.219   8.074
10933SOL    HW234632  14.189  14.271   7.933
10934SOL     OW34633  13.001  11.361  13.870
10934SOL    HW134634  12.977  11.453  13.868
10934SOL    HW234635  12.930  11.316  13.825
10935SOL     OW34636   4.072   1.210   2.141
10935SOL    HW134637   4.100   1.148   2.074
10935SOL    HW234638   4.025   1.157   2.205
10936SOL     OW34639   4.148  14.678   4.025
10936SOL    HW134640   4.125  14.719   4.109
10936SOL    HW234641   4.206  14.742   3.983
10937SOL     OW34642  12.047   7.004   3.684
10937SOL    HW134643  12.100   7.047   3.617
10937SOL    HW234644  12.089   6.919   3.698
10938SOL     OW34645   5.323  14.345   6.140
10938SOL    HW134646   5.349  14.321   6.229
10938SOL    HW234647   5.233  14.375   6.148
10939SOL     OW34648   2.413   6.697   0.686
10939SOL    HW134649   2.364   6.615   0.693
10939SOL    HW234650   2.346   6.765   0.690
10940SOL     OW34651  12.630  12.478   5.292
10940SOL    HW134652  12.706  12.450   5.242
10940SOL    HW234653  12.613  12.567   5.263
10941SOL     OW34654   2.527   3.191   3.509
10941SOL    HW134655   2.468   3.147   3.446
10941SOL    HW234656   2.528   3.282   3.481
10942SOL     OW34657  11.071   8.829   6.323
10942SOL    HW134658  10.975   8.830   6.326
10942SOL    HW234659  11.097   8.839   6.415
10943SOL     OW34660  11.652  10.139   8.920
10943SOL    HW134661  11.624  10.074   8.855
10943SOL    HW234662  11.574  10.156   8.972
10944SOL     OW34663   4.235   7.364   9.230
10944SOL    HW134664   4.326   7.345   9.206
10944SOL    HW234665   4.199   7.408   9.153
10945SOL     OW34666  13.071   5.081  13.320
10945SOL    HW134667  13.149   5.113  13.365
10945SOL    HW234668  12.998   5.125  13.363
10946SOL     OW34669  12.315   1.134  11.470
10946SOL    HW134670  12.255   1.098  11.404
10946SOL    HW234671  12.309   1.073  11.543
10947SOL     OW34672   0.071  13.686  14.821
10947SOL    HW134673   0.128  13.690   0.025
10947SOL    HW234674   0.072  13.595  14.795
10948SOL     OW34675   4.020   5.840   1.223
10948SOL    HW134676   4.030   5.782   1.147
10948SOL    HW234677   3.949   5.899   1.199
10949SOL     OW34678  13.219   5.964   1.218
10949SOL    HW134679  13.162   5.937   1.290
10949SOL    HW234680  13.159   6.003   1.154
10950SOL     OW34681   9.037   9.004  10.425
10950SOL    HW134682   8.995   9.002  10.339
10950SOL    HW234683   9.057   9.096  10.439
10951SOL     OW34684   5.304   7.322  10.757
10951SOL    HW134685   5.271   7.395  10.810
10951SOL    HW234686   5.296   7.245  10.813
10952SOL     OW34687   9.555  13.860  13.859
10952SOL    HW134688   9.615  13.928  13.889
10952SOL    HW234689   9.557  13.794  13.928
10953SOL     OW34690   5.482  12.835   0.514
10953SOL    HW134691   5.453  12.746   0.530
10953SOL    HW234692   5.463  12.882   0.596
10954SOL     OW34693  13.278  14.676   6.910
10954SOL    HW134694  13.362  14.632   6.924
10954SOL    HW234695  13.217  14.605   6.890
10955SOL     OW34696  13.759   3.230   7.571
10955SOL    HW134697  13.736   3.205   7.661
10955SOL    HW234698  13.832   3.172   7.548
10956SOL     OW34699   9.233  14.142   0.732
10956SOL    HW134700   9.148  14.161   0.693
10956SOL    HW234701   9.286  14.109   0.660
10957SOL     OW34702  11.952   9.924   6.335
10957SOL    HW134703  11.873   9.870   6.331
10957SOL    HW234704  11.923  10.011   6.307
10958SOL     OW34705   2.806   6.234   3.827
10958SOL    HW134706   2.876   6.181   3.788
10958SOL    HW234707   2.847   6.272   3.906
10959SOL     OW34708   3.966  12.672  13.602
10959SOL    HW134709   4.003  12.664  13.514
10959SOL    HW234710   3.939  12.763  13.609
10960SOL     OW34711   6.610   6.441  13.316
10960SOL    HW134712   6.514   6.436  13.316
10960SOL    HW234713   6.634   6.409  13.229
10961SOL     OW34714   2.205   7.541  11.424
10961SOL    HW134715   2.265   7.609  11.396
10961SOL    HW234716   2.185   7.562  11.515
10962SOL     OW34717   3.168   9.717   4.224
10962SOL    HW134718   3.171   9.682   4.135
10962SOL    HW234719   3.249   9.767   4.233
10963SOL     OW34720  13.204   0.066   6.953
10963SOL    HW134721  13.247  14.857   6.925
10963SOL    HW234722  13.165   0.101   6.873
10964SOL     OW34723   2.163  11.413  11.833
10964SOL    HW134724   2.256  11.426  11.816
10964SOL    HW234725   2.119  11.436  11.752
10965SOL     OW34726  13.626   1.192   6.224
10965SOL    HW134727  13.564   1.261   6.200
10965SOL    HW234728  13.699   1.204   6.163
10966SOL     OW34729   6.564  10.052  13.102
10966SOL    HW134730   6.617  10.002  13.165
10966SOL    HW234731   6.571  10.003  13.020
10967SOL     OW34732  13.753   1.511   2.942
10967SOL    HW134733  13.809   1.461   2.882
10967SOL    HW234734  13.678   1.537   2.888
10968SOL     OW34735   1.090  11.865   8.522
10968SOL    HW134736   1.118  11.864   8.430
10968SOL    HW234737   1.102  11.956   8.550
10969SOL     OW34738   8.132   1.232  11.436
10969SOL    HW134739   8.084   1.199  11.512
10969SOL    HW234740   8.192   1.162  11.412
10970SOL     OW34741   5.924  11.600  13.188
10970SOL    HW134742   5.935  11.506  13.200
10970SOL    HW234743   5.896  11.632  13.274
10971SOL     OW34744   3.018  12.077  10.100
10971SOL    HW134745   3.066  12.078  10.017
10971SOL    HW234746   2.961  12.154  10.096
10972SOL     OW34747  12.584   4.110   4.361
10972SOL    HW134748  12.658   4.122   4.420
10972SOL    HW234749  12.590   4.018   4.334
10973SOL     OW34750   8.355   1.812   1.320
10973SOL    HW134751   8.447   1.794   1.339
10973SOL    HW234752   8.322   1.732   1.280
10974SOL     OW34753  12.318  10.938   9.244
10974SOL    HW134754  12.403  10.913   9.281
10974SOL    HW234755  12.292  11.016   9.293
10975SOL     OW34756   9.390   4.873   6.210
10975SOL    HW134757   9.319   4.888   6.272
10975SOL    HW234758   9.439   4.955   6.210
10976SOL     OW34759  13.581   5.432   9.868
10976SOL    HW134760  13.546   5.344   9.855
10976SOL    HW234761  13.671   5.417   9.898
10977SOL     OW34762   7.026  14.237   7.158
10977SOL    HW134763   7.027  14.316   7.105
10977SOL    HW234764   6.937  14.232   7.193
10978SOL     OW34765   5.495  11.805   2.054
10978SOL    HW134766   5.405  11.780   2.073
10978SOL    HW234767   5.529  11.838   2.138
10979SOL     OW34768   9.690   4.699   6.452
10979SOL    HW134769   9.680   4.784   6.493
10979SOL    HW234770   9.658   4.637   6.518
10980SOL     OW34771  13.334  11.261  12.810
10980SOL    HW134772  13.345  11.281  12.717
10980SOL    HW234773  13.240  11.267  12.825
10981SOL     OW34774   9.855   6.063  10.502
10981SOL    HW134775   9.803   6.029  10.429
10981SOL    HW234776   9.889   5.984  10.545
10982SOL     OW34777  12.652  12.071   3.104
10982SOL    HW134778  12.565  12.104   3.125
10982SOL    HW234779  12.637  11.985   3.066
10983SOL     OW34780   7.170   5.518  13.968
10983SOL    HW134781   7.252   5.482  13.934
10983SOL    HW234782   7.150   5.591  13.910
10984SOL     OW34783   2.582   9.648   4.685
10984SOL    HW134784   2.627   9.608   4.760
10984SOL    HW234785   2.606   9.740   4.690
10985SOL     OW34786  13.659  14.064   7.664
10985SOL    HW134787  13.701  14.127   7.605
10985SOL    HW234788  13.565  14.080   7.654
10986SOL     OW34789   6.905   6.570   7.586
10986SOL    HW134790   6.813   6.566   7.560
10986SOL    HW234791   6.907   6.633   7.658
10987SOL     OW34792   4.039   5.093  13.469
10987SOL    HW134793   4.061   5.038  13.394
10987SOL    HW234794   4.012   5.176  13.431
10988SOL     OW34795  12.964  13.439   0.129
10988SOL    HW134796  12.978  13.424   0.223
10988SOL    HW234797  12.873  13.470   0.124
10989SOL     OW34798   8.043   8.192   5.784
10989SOL    HW134799   8.117   8.252   5.792
10989SOL    HW234800   8.071   8.128   5.719
10990SOL     OW34801   4.783   1.248   0.032
10990SOL    HW134802   4.856   1.307   0.049
10990SOL    HW234803   4.766   1.256  14.811
10991SOL     OW34804   7.584   0.561   9.955
10991SOL    HW134805   7.553   0.650   9.936
10991SOL    HW234806   7.660   0.550   9.898
10992SOL     OW34807  10.031   6.947   0.196
10992SOL    HW134808   9.948   6.925   0.237
10992SOL    HW234809  10.089   6.874   0.217
10993SOL     OW34810  10.339   3.498   5.623
10993SOL    HW134811  10.271   3.548   5.578
10993SOL    HW234812  10.296   3.418   5.651
10994SOL     OW34813   7.872  14.314   4.024
10994SOL    HW134814   7.881  14.220   4.011
10994SOL    HW234815   7.796  14.324   4.081
10995SOL     OW34816   3.910   8.288  11.457
10995SOL    HW134817   3.841   8.262  11.396
10995SOL    HW234818   3.878   8.369  11.497
10996SOL     OW34819   3.513   1.490  10.201
10996SOL    HW134820   3.535   1.582  10.209
10996SOL    HW234821   3.443   1.487  10.136
10997SOL     OW34822   8.901   9.481  11.963
10997SOL    HW134823   8.970   9.523  11.911
10997SOL    HW234824   8.860   9.420  11.902
10998SOL     OW34825   2.725   7.118   9.999
10998SOL    HW134826   2.680   7.039  10.026
10998SOL    HW234827   2.666   7.189  10.024
10999SOL     OW34828   7.836  11.431   5.945
10999SOL    HW134829   7.793  11.391   6.022
10999SOL    HW234830   7.898  11.364   5.915
11000SOL     OW34831   7.305   0.634  11.697
11000SOL    HW134832   7.324   0.543  11.674
11000SOL    HW234833   7.251   0.628  11.776
11001SOL     OW34834   8.595   1.593   7.655
11001SOL    HW134835   8.628   1.608   7.566
11001SOL    HW234836   8.527   1.527   7.645
11002SOL     OW34837  12.124   8.368   2.072
11002SOL    HW134838  12.056   8.432   2.094
11002SOL    HW234839  12.178   8.412   2.007
11003SOL     OW34840   9.889   9.849  12.963
11003SOL    HW134841   9.945   9.797  13.021
11003SOL    HW234842   9.905   9.814  12.876
11004SOL     OW34843   6.024   8.463   8.903
11004SOL    HW134844   6.004   8.487   8.994
11004SOL    HW234845   5.967   8.520   8.851
11005SOL     OW34846   7.428   7.969   3.338
11005SOL    HW134847   7.341   7.940   3.310
11005SOL    HW234848   7.431   8.061   3.312
11006SOL     OW34849   6.197   7.415  13.606
11006SOL    HW134850   6.175   7.495  13.654
11006SOL    HW234851   6.122   7.358  13.619
11007SOL     OW34852   3.672   3.466  12.666
11007SOL    HW134853   3.694   3.383  12.707
11007SOL    HW234854   3.600   3.444  12.606
11008SOL     OW34855   3.696  11.151   8.971
11008SOL    HW134856   3.755  11.218   8.936
11008SOL    HW234857   3.682  11.176   9.062
11009SOL     OW34858   2.306   7.479   7.417
11009SOL    HW134859   2.308   7.515   7.506
11009SOL    HW234860   2.397   7.461   7.396
11010SOL     OW34861  11.467  10.974  10.855
11010SOL    HW134862  11.374  10.979  10.874
11010SOL    HW234863  11.476  11.016  10.769
11011SOL     OW34864   0.975  10.069   5.647
11011SOL    HW134865   0.919  10.140   5.680
11011SOL    HW234866   1.034  10.112   5.585
11012SOL     OW34867   3.697   7.470  10.789
11012SOL    HW134868   3.764   7.439  10.728
11012SOL    HW234869   3.687   7.563  10.769
11013SOL     OW34870  14.314   4.545   3.226
11013SOL    HW134871  14.253   4.618   3.220
11013SOL    HW234872  14.301   4.509   3.314
11014SOL     OW34873   4.114  10.150   1.740
11014SOL    HW134874   4.177  10.174   1.672
11014SOL    HW234875   4.161  10.165   1.822
11015SOL     OW34876   8.017   4.592  12.771
11015SOL    HW134877   8.025   4.680  12.734
11015SOL    HW234878   8.107   4.566  12.791
11016SOL     OW34879   8.555   9.207  12.284
11016SOL    HW134880   8.557   9.292  12.327
11016SOL    HW234881   8.472   9.168  12.311
11017SOL     OW34882   9.362   2.351   1.268
11017SOL    HW134883   9.457   2.345   1.253
11017SOL    HW234884   9.325   2.287   1.207
11018SOL     OW34885  10.681   2.836   8.432
11018SOL    HW134886  10.658   2.753   8.390
11018SOL    HW234887  10.598   2.879   8.448
11019SOL     OW34888   0.189   8.075   1.160
11019SOL    HW134889   0.200   8.006   1.226
11019SOL    HW234890   0.106   8.055   1.118
11020SOL     OW34891  12.393   9.350   1.104
11020SOL    HW134892  12.342   9.294   1.164
11020SOL    HW234893  12.476   9.365   1.150
11021SOL     OW34894   7.563   8.531   3.898
11021SOL    HW134895   7.543   8.596   3.966
11021SOL    HW234896   7.596   8.455   3.945
11022SOL     OW34897  10.996   2.974  10.950
11022SOL    HW134898  11.026   2.911  11.015
11022SOL    HW234899  10.970   3.051  11.002
11023SOL     OW34900  11.198  10.197  14.688
11023SOL    HW134901  11.161  10.113  14.714
11023SOL    HW234902  11.266  10.214  14.754
11024SOL     OW34903   8.760   3.703   8.675
11024SOL    HW134904   8.855   3.708   8.670
11024SOL    HW234905   8.740   3.708   8.768
11025SOL     OW34906   7.843   2.012   7.984
11025SOL    HW134907   7.881   1.967   8.059
11025SOL    HW234908   7.749   2.011   7.999
11026SOL     OW34909   0.709   0.517   4.331
11026SOL    HW134910   0.621   0.483   4.348
11026SOL    HW234911   0.754   0.509   4.415
11027SOL     OW34912  10.704   1.670   0.578
11027SOL    HW134913  10.632   1.651   0.517
11027SOL    HW234914  10.671   1.641   0.663
11028SOL     OW34915   2.247   0.555  12.902
11028SOL    HW134916   2.244   0.480  12.961
11028SOL    HW234917   2.165   0.601  12.917
11029SOL     OW34918  10.784  14.858   3.389
11029SOL    HW134919  10.708  14.854   3.446
11029SOL    HW234920  10.859  14.866   3.448
11030SOL     OW34921  13.792  10.200  12.775
11030SOL    HW134922  13.754  10.137  12.836
11030SOL    HW234923  13.745  10.185  12.693
11031SOL     OW34924   5.817   4.178   7.838
11031SOL    HW134925   5.792   4.113   7.903
11031SOL    HW234926   5.870   4.129   7.774
11032SOL     OW34927  14.643   8.405  11.428
11032SOL    HW134928  14.700   8.351  11.483
11032SOL    HW234929  14.637   8.356  11.346
11033SOL     OW34930   0.193   9.051  10.436
11033SOL    HW134931   0.115   9.092  10.473
11033SOL    HW234932   0.235   9.121  10.386
11034SOL     OW34933  11.589   6.963   0.940
11034SOL    HW134934  11.514   7.018   0.963
11034SOL    HW234935  11.555   6.874   0.939
11035SOL     OW34936  13.114   4.992   8.548
11035SOL    HW134937  13.176   5.046   8.500
11035SOL    HW234938  13.104   4.913   8.494
11036SOL     OW34939   4.104   8.660  13.428
11036SOL    HW134940   4.191   8.668  13.390
11036SOL    HW234941   4.119   8.664  13.523
11037SOL     OW34942   6.283   4.669   5.937
11037SOL    HW134943   6.208   4.610   5.945
11037SOL    HW234944   6.350   4.617   5.892
11038SOL     OW34945  11.437   3.540   4.702
11038SOL    HW134946  11.440   3.632   4.677
11038SOL    HW234947  11.525   3.521   4.736
11039SOL     OW34948  10.736  11.185   5.059
11039SOL    HW134949  10.796  11.134   5.113
11039SOL    HW234950  10.691  11.120   5.005
11040SOL     OW34951   1.062   0.789   8.395
11040SOL    HW134952   1.031   0.879   8.393
11040SOL    HW234953   1.132   0.789   8.460
11041SOL     OW34954   3.831  10.506   8.579
11041SOL    HW134955   3.859  10.451   8.505
11041SOL    HW234956   3.877  10.469   8.654
11042SOL     OW34957   1.880   0.109  12.284
11042SOL    HW134958   1.878   0.013  12.282
11042SOL    HW234959   1.935   0.130  12.360
11043SOL     OW34960   2.446  11.532   4.891
11043SOL    HW134961   2.420  11.473   4.820
11043SOL    HW234962   2.454  11.617   4.849
11044SOL     OW34963  13.028   9.244   9.643
11044SOL    HW134964  13.119   9.214   9.639
11044SOL    HW234965  12.983   9.178   9.696
11045SOL     OW34966   1.416   7.814   4.086
11045SOL    HW134967   1.421   7.877   4.158
11045SOL    HW234968   1.426   7.729   4.129
11046SOL     OW34969   9.931   9.291  10.893
11046SOL    HW134970   9.980   9.372  10.882
11046SOL    HW234971   9.949   9.242  10.812
11047SOL     OW34972  14.603   3.495   9.955
11047SOL    HW134973  14.578   3.404   9.938
11047SOL    HW234974  14.522   3.537   9.982
11048SOL     OW34975  14.523  13.621  11.756
11048SOL    HW134976  14.434  13.639  11.785
11048SOL    HW234977  14.514  13.601  11.662
11049SOL     OW34978   3.303   6.786  10.800
11049SOL    HW134979   3.336   6.876  10.807
11049SOL    HW234980   3.370   6.732  10.841
11050SOL     OW34981  13.902  11.149   5.549
11050SOL    HW134982  13.899  11.243   5.537
11050SOL    HW234983  13.821  11.116   5.510
11051SOL     OW34984  10.872  13.220   3.424
11051SOL    HW134985  10.809  13.240   3.493
11051SOL    HW234986  10.885  13.125   3.430
11052SOL     OW34987   9.592   4.527   9.198
11052SOL    HW134988   9.514   4.511   9.251
11052SOL    HW234989   9.657   4.465   9.230
11053SOL     OW34990   9.765   0.110   2.691
11053SOL    HW134991   9.815   0.189   2.670
11053SOL    HW234992   9.775   0.054   2.615
11054SOL     OW34993   7.141  12.336   5.555
11054SOL    HW134994   7.094  12.412   5.522
11054SOL    HW234995   7.133  12.271   5.485
11055SOL     OW34996   0.173   7.171  11.450
11055SOL    HW134997   0.180   7.185  11.355
11055SOL    HW234998   0.141   7.081  11.458
11056SOL     OW34999   5.150  13.817   5.141
11056SOL    HW135000   5.078  13.754   5.140
11056SOL    HW235001   5.195  13.803   5.058
11057SOL     OW35002   7.155   5.305   9.027
11057SOL    HW135003   7.226   5.251   8.993
11057SOL    HW235004   7.154   5.287   9.121
11058SOL     OW35005   0.294   2.227   3.713
11058SOL    HW135006   0.283   2.197   3.803
11058SOL    HW235007   0.238   2.304   3.707
11059SOL     OW35008  11.490   1.439  12.044
11059SOL    HW135009  11.463   1.454  12.135
11059SOL    HW235010  11.502   1.344  12.038
11060SOL     OW35011   7.107  11.847  10.595
11060SOL    HW135012   7.066  11.848  10.681
11060SOL    HW235013   7.034  11.832  10.534
11061SOL     OW35014   4.552   7.663   2.488
11061SOL    HW135015   4.589   7.737   2.536
11061SOL    HW235016   4.489   7.624   2.548
11062SOL     OW35017  13.192   9.617   1.435
11062SOL    HW135018  13.222   9.683   1.372
11062SOL    HW235019  13.267   9.605   1.493
11063SOL     OW35020  14.450  12.025  14.299
11063SOL    HW135021  14.439  12.071  14.216
11063SOL    HW235022  14.363  11.993  14.321
11064SOL     OW35023   4.498   5.224   6.966
11064SOL    HW135024   4.432   5.174   6.918
11064SOL    HW235025   4.491   5.313   6.932
11065SOL     OW35026   7.473  11.949   5.955
11065SOL    HW135027   7.549  12.000   5.926
11065SOL    HW235028   7.510  11.879   6.009
11066SOL     OW35029  12.281   4.652   2.704
11066SOL    HW135030  12.282   4.747   2.691
11066SOL    HW235031  12.372   4.631   2.726
11067SOL     OW35032   0.666   7.914   8.786
11067SOL    HW135033   0.667   7.979   8.856
11067SOL    HW235034   0.692   7.963   8.707
11068SOL     OW35035   1.855   8.335   1.576
11068SOL    HW135036   1.790   8.265   1.569
11068SOL    HW235037   1.939   8.289   1.570
11069SOL     OW35038   6.140   0.838   3.801
11069SOL    HW135039   6.104   0.760   3.757
11069SOL    HW235040   6.101   0.837   3.888
11070SOL     OW35041   4.104   5.930   7.912
11070SOL    HW135042   4.191   5.963   7.892
11070SOL    HW235043   4.108   5.904   8.004
11071SOL     OW35044   2.907   4.269   2.760
11071SOL    HW135045   2.876   4.181   2.738
11071SOL    HW235046   2.838   4.327   2.726
11072SOL     OW35047   2.297   4.474  13.091
11072SOL    HW135048   2.351   4.395  13.093
11072SOL    HW235049   2.310   4.514  13.177
11073SOL     OW35050   3.334   8.047   4.328
11073SOL    HW135051   3.302   8.135   4.306
11073SOL    HW235052   3.422   8.061   4.362
11074SOL     OW35053   5.732   0.768   7.242
11074SOL    HW135054   5.657   0.801   7.291
11074SOL    HW235055   5.701   0.759   7.152
11075SOL     OW35056  13.396  14.362   6.271
11075SOL    HW135057  13.314  14.372   6.318
11075SOL    HW235058  13.399  14.437   6.212
11076SOL     OW35059   2.989   6.243  14.829
11076SOL    HW135060   3.036   6.182   0.014
11076SOL    HW235061   3.031   6.232  14.743
11077SOL     OW35062  13.860   9.119   7.102
11077SOL    HW135063  13.902   9.084   7.180
11077SOL    HW235064  13.917   9.091   7.030
11078SOL     OW35065   9.867   6.092   0.700
11078SOL    HW135066   9.837   6.103   0.610
11078SOL    HW235067   9.792   6.054   0.746
11079SOL     OW35068   8.340   9.675  10.085
11079SOL    HW135069   8.365   9.746  10.025
11079SOL    HW235070   8.255   9.702  10.119
11080SOL     OW35071   5.261  12.639  12.168
11080SOL    HW135072   5.186  12.604  12.120
11080SOL    HW235073   5.328  12.651  12.101
11081SOL     OW35074   6.829  13.410   4.741
11081SOL    HW135075   6.850  13.353   4.667
11081SOL    HW235076   6.747  13.375   4.776
11082SOL     OW35077   8.661  10.401  12.860
11082SOL    HW135078   8.689  10.428  12.772
11082SOL    HW235079   8.721  10.449  12.918
11083SOL     OW35080   4.839  12.144  11.677
11083SOL    HW135081   4.918  12.090  11.680
11083SOL    HW235082   4.775  12.091  11.630
11084SOL     OW35083   4.926   5.392   2.523
11084SOL    HW135084   4.916   5.317   2.465
11084SOL    HW235085   4.851   5.448   2.503
11085SOL     OW35086  12.182   8.748   4.641
11085SOL    HW135087  12.196   8.681   4.709
11085SOL    HW235088  12.249   8.729   4.575
11086SOL     OW35089   5.615   4.522   2.123
11086SOL    HW135090   5.640   4.588   2.058
11086SOL    HW235091   5.699   4.485   2.151
11087SOL     OW35092   2.306  13.490   1.196
11087SOL    HW135093   2.271  13.434   1.265
11087SOL    HW235094   2.372  13.437   1.153
11088SOL     OW35095   9.940   0.462   0.574
11088SOL    HW135096   9.959   0.502   0.659
11088SOL    HW235097   9.844   0.454   0.572
11089SOL     OW35098  14.521   3.438   9.417
11089SOL    HW135099  14.550   3.518   9.459
11089SOL    HW235100  14.425   3.446   9.413
11090SOL     OW35101   5.589   0.055  14.783
11090SOL    HW135102   5.664   0.039  14.841
11090SOL    HW235103   5.628   0.067  14.696
11091SOL     OW35104   9.683   2.741  11.621
11091SOL    HW135105   9.604   2.744  11.675
11091SOL    HW235106   9.693   2.648  11.599
11092SOL     OW35107  12.277  11.033   7.713
11092SOL    HW135108  12.347  11.093   7.737
11092SOL    HW235109  12.266  11.046   7.619
11093SOL     OW35110   3.586   9.156   7.489
11093SOL    HW135111   3.666   9.207   7.482
11093SOL    HW235112   3.616   9.066   7.504
11094SOL     OW35113   9.118  10.621  11.218
11094SOL    HW135114   9.027  10.590  11.212
11094SOL    HW235115   9.134  10.627  11.312
11095SOL     OW35116  11.111   2.296   1.359
11095SOL    HW135117  11.079   2.387   1.357
11095SOL    HW235118  11.156   2.285   1.276
11096SOL     OW35119   3.137   4.254   9.273
11096SOL    HW135120   3.213   4.197   9.285
11096SOL    HW235121   3.064   4.205   9.309
11097SOL     OW35122  13.027  12.597  13.092
11097SOL    HW135123  12.976  12.594  13.012
11097SOL    HW235124  13.117  12.615  13.064
11098SOL     OW35125   3.949  14.408  11.954
11098SOL    HW135126   4.001  14.463  11.895
11098SOL    HW235127   3.986  14.321  11.943
11099SOL     OW35128   3.657   8.463  11.093
11099SOL    HW135129   3.676   8.517  11.170
11099SOL    HW235130   3.606   8.521  11.036
11100SOL     OW35131   3.454  13.164   1.379
11100SOL    HW135132   3.516  13.110   1.330
11100SOL    HW235133   3.412  13.219   1.312
11101SOL     OW35134   8.590   4.518   4.876
11101SOL    HW135135   8.545   4.459   4.937
11101SOL    HW235136   8.574   4.605   4.911
11102SOL     OW35137   6.256   5.995   1.750
11102SOL    HW135138   6.220   6.069   1.702
11102SOL    HW235139   6.314   5.951   1.687
11103SOL     OW35140  14.280   9.853   9.750
11103SOL    HW135141  14.207   9.822   9.804
11103SOL    HW235142  14.239   9.876   9.666
11104SOL     OW35143   3.611   2.820   8.289
11104SOL    HW135144   3.682   2.756   8.301
11104SOL    HW235145   3.612   2.872   8.370
11105SOL     OW35146   5.725   8.037   8.212
11105SOL    HW135147   5.778   8.029   8.133
11105SOL    HW235148   5.788   8.044   8.283
11106SOL     OW35149   7.441  13.553   2.208
11106SOL    HW135150   7.478  13.482   2.260
11106SOL    HW235151   7.368  13.586   2.260
11107SOL     OW35152   0.946   8.579   1.365
11107SOL    HW135153   0.958   8.562   1.272
11107SOL    HW235154   0.923   8.493   1.402
11108SOL     OW35155   5.457   0.703   1.849
11108SOL    HW135156   5.373   0.711   1.803
11108SOL    HW235157   5.437   0.729   1.939
11109SOL     OW35158   4.401   6.465   1.962
11109SOL    HW135159   4.461   6.429   1.897
11109SOL    HW235160   4.448   6.540   1.999
11110SOL     OW35161   5.050  10.059   7.605
11110SOL    HW135162   5.116  10.057   7.674
11110SOL    HW235163   5.093  10.019   7.530
11111SOL     OW35164   5.886   3.221   3.381
11111SOL    HW135165   5.936   3.182   3.453
11111SOL    HW235166   5.902   3.164   3.306
11112SOL     OW35167   7.675   6.084   1.697
11112SOL    HW135168   7.714   6.121   1.617
11112SOL    HW235169   7.582   6.075   1.676
11113SOL     OW35170  11.182   7.552   7.434
11113SOL    HW135171  11.192   7.604   7.513
11113SOL    HW235172  11.106   7.590   7.389
11114SOL     OW35173   1.425   6.519  12.074
11114SOL    HW135174   1.416   6.579  12.000
11114SOL    HW235175   1.516   6.488  12.070
11115SOL     OW35176  10.978   9.685  13.500
11115SOL    HW135177  10.918   9.687  13.425
11115SOL    HW235178  10.926   9.649  13.571
11116SOL     OW35179   9.236   9.695   1.771
11116SOL    HW135180   9.293   9.720   1.699
11116SOL    HW235181   9.283   9.623   1.814
11117SOL     OW35182  14.760   9.256   0.044
11117SOL    HW135183  14.670   9.224   0.051
11117SOL    HW235184  14.788   9.228  14.830
11118SOL     OW35185   6.999   0.661   8.440
11118SOL    HW135186   6.978   0.568   8.438
11118SOL    HW235187   7.046   0.676   8.357
11119SOL     OW35188   0.824   3.218   9.706
11119SOL    HW135189   0.912   3.180   9.707
11119SOL    HW235190   0.780   3.178   9.781
11120SOL     OW35191  14.451   5.417   7.649
11120SOL    HW135192  14.427   5.482   7.584
11120SOL    HW235193  14.441   5.461   7.733
11121SOL     OW35194   9.080   0.860  13.387
11121SOL    HW135195   9.111   0.798  13.321
11121SOL    HW235196   8.985   0.856  13.382
11122SOL     OW35197   7.054  13.357   7.035
11122SOL    HW135198   7.045  13.453   7.032
11122SOL    HW235199   7.019  13.328   6.951
11123SOL     OW35200   2.573   1.284  14.715
11123SOL    HW135201   2.609   1.292  14.804
11123SOL    HW235202   2.518   1.206  14.719
11124SOL     OW35203  13.566   4.376   6.871
11124SOL    HW135204  13.551   4.468   6.888
11124SOL    HW235205  13.590   4.339   6.956
11125SOL     OW35206  12.432   8.192   5.620
11125SOL    HW135207  12.469   8.110   5.587
11125SOL    HW235208  12.507   8.237   5.659
11126SOL     OW35209   6.674  14.794   3.517
11126SOL    HW135210   6.670  14.758   3.428
11126SOL    HW235211   6.652   0.014   3.506
11127SOL     OW35212   4.582   0.825   6.864
11127SOL    HW135213   4.608   0.905   6.909
11127SOL    HW235214   4.580   0.849   6.771
11128SOL     OW35215   2.604   6.935  10.192
11128SOL    HW135216   2.598   6.965  10.283
11128SOL    HW235217   2.611   6.840  10.198
11129SOL     OW35218   5.038   5.215  14.076
11129SOL    HW135219   5.043   5.310  14.085
11129SOL    HW235220   5.008   5.201  13.986
11130SOL     OW35221   0.881  13.775  12.898
11130SOL    HW135222   0.845  13.699  12.944
11130SOL    HW235223   0.806  13.817  12.857
11131SOL     OW35224   6.650  11.605   6.167
11131SOL    HW135225   6.671  11.640   6.080
11131SOL    HW235226   6.724  11.631   6.222
11132SOL     OW35227   5.409   0.118   2.731
11132SOL    HW135228   5.382   0.176   2.802
11132SOL    HW235229   5.481   0.164   2.687
11133SOL     OW35230   2.701   6.283   5.975
11133SOL    HW135231   2.732   6.339   6.046
11133SOL    HW235232   2.777   6.273   5.917
11134SOL     OW35233  12.604   5.723  14.581
11134SOL    HW135234  12.682   5.706  14.528
11134SOL    HW235235  12.541   5.759  14.519
11135SOL     OW35236   9.326   3.004  10.658
11135SOL    HW135237   9.358   2.984  10.570
11135SOL    HW235238   9.369   2.940  10.715
11136SOL     OW35239  10.609   3.175   7.177
11136SOL    HW135240  10.668   3.191   7.103
11136SOL    HW235241  10.651   3.217   7.252
11137SOL     OW35242   3.525   0.212  14.763
11137SOL    HW135243   3.594   0.230  14.827
11137SOL    HW235244   3.539   0.277  14.695
11138SOL     OW35245   9.027   0.419   1.549
11138SOL    HW135246   9.049   0.509   1.573
11138SOL    HW235247   8.991   0.381   1.628
11139SOL     OW35248   0.885   8.530   5.465
11139SOL    HW135249   0.803   8.498   5.429
11139SOL    HW235250   0.937   8.555   5.389
11140SOL     OW35251   2.107   2.089   9.046
11140SOL    HW135252   2.072   2.178   9.040
11140SOL    HW235253   2.041   2.034   9.003
11141SOL     OW35254  12.099   8.741  13.497
11141SOL    HW135255  12.124   8.659  13.540
11141SOL    HW235256  12.181   8.789  13.487
11142SOL     OW35257   7.749   9.290  11.963
11142SOL    HW135258   7.811   9.361  11.979
11142SOL    HW235259   7.763   9.265  11.872
11143SOL     OW35260  10.487   7.256   7.600
11143SOL    HW135261  10.497   7.267   7.505
11143SOL    HW235262  10.551   7.316   7.638
11144SOL     OW35263   1.136   4.889   4.912
11144SOL    HW135264   1.041   4.900   4.923
11144SOL    HW235265   1.162   4.831   4.983
11145SOL     OW35266  14.846  14.359   3.841
11145SOL    HW135267  14.792  14.423   3.794
11145SOL    HW235268  14.851  14.394   3.930
11146SOL     OW35269   0.047   0.966  14.368
11146SOL    HW135270   0.119   0.958  14.432
11146SOL    HW235271  14.843   0.988  14.421
11147SOL     OW35272   8.742   4.170   5.423
11147SOL    HW135273   8.708   4.152   5.335
11147SOL    HW235274   8.837   4.163   5.414
11148SOL     OW35275   7.832   0.128   9.296
11148SOL    HW135276   7.805   0.158   9.209
11148SOL    HW235277   7.862   0.038   9.282
11149SOL     OW35278  13.580  14.836  10.671
11149SOL    HW135279  13.529  14.781  10.730
11149SOL    HW235280  13.639  14.776  10.626
11150SOL     OW35281   6.650   3.686   6.289
11150SOL    HW135282   6.700   3.662   6.211
11150SOL    HW235283   6.594   3.610   6.305
11151SOL     OW35284   8.846  11.180   3.810
11151SOL    HW135285   8.900  11.113   3.769
11151SOL    HW235286   8.897  11.261   3.803
11152SOL     OW35287   2.025  10.923   5.443
11152SOL    HW135288   1.988  11.011   5.454
11152SOL    HW235289   2.041  10.892   5.532
11153SOL     OW35290   5.633   6.769  14.181
11153SOL    HW135291   5.654   6.682  14.213
11153SOL    HW235292   5.718   6.806  14.154
11154SOL     OW35293  12.563   7.177   9.372
11154SOL    HW135294  12.603   7.245   9.318
11154SOL    HW235295  12.475   7.165   9.334
11155SOL     OW35296  13.275  10.919   6.831
11155SOL    HW135297  13.359  10.949   6.867
11155SOL    HW235298  13.291  10.829   6.804
11156SOL     OW35299   7.003  10.578   8.733
11156SOL    HW135300   7.021  10.549   8.822
11156SOL    HW235301   6.924  10.632   8.740
11157SOL     OW35302   9.493   3.286   0.182
11157SOL    HW135303   9.542   3.282   0.100
11157SOL    HW235304   9.541   3.350   0.235
11158SOL     OW35305  10.463   0.602   8.824
11158SOL    HW135306  10.460   0.685   8.777
11158SOL    HW235307  10.481   0.536   8.757
11159SOL     OW35308   9.471   1.229  11.427
11159SOL    HW135309   9.379   1.255  11.425
11159SOL    HW235310   9.488   1.193  11.340
11160SOL     OW35311  10.798  12.240   5.174
11160SOL    HW135312  10.769  12.220   5.084
11160SOL    HW235313  10.784  12.158   5.222
11161SOL     OW35314   6.548  11.333   2.640
11161SOL    HW135315   6.620  11.272   2.628
11161SOL    HW235316   6.470  11.284   2.612
11162SOL     OW35317  12.599   7.855  12.705
11162SOL    HW135318  12.552   7.837  12.787
11162SOL    HW235319  12.673   7.909  12.731
11163SOL     OW35320  10.659   7.516   5.823
11163SOL    HW135321  10.588   7.556   5.873
11163SOL    HW235322  10.733   7.514   5.883
11164SOL     OW35323   7.617   6.283   2.663
11164SOL    HW135324   7.570   6.286   2.580
11164SOL    HW235325   7.708   6.264   2.639
11165SOL     OW35326   4.975  14.282   0.977
11165SOL    HW135327   4.984  14.312   0.887
11165SOL    HW235328   4.941  14.358   1.025
11166SOL     OW35329   5.508   9.459   8.689
11166SOL    HW135330   5.562   9.386   8.717
11166SOL    HW235331   5.419   9.424   8.683
11167SOL     OW35332  12.584  13.885   3.126
11167SOL    HW135333  12.631  13.839   3.195
11167SOL    HW235334  12.649  13.943   3.086
11168SOL     OW35335   3.237   3.777   5.937
11168SOL    HW135336   3.265   3.831   5.862
11168SOL    HW235337   3.254   3.687   5.910
11169SOL     OW35338  10.006   5.108   9.041
11169SOL    HW135339   9.961   5.149   9.115
11169SOL    HW235340   9.936   5.092   8.977
11170SOL     OW35341   3.060   2.166  10.484
11170SOL    HW135342   3.151   2.136  10.477
11170SOL    HW235343   3.031   2.135  10.569
11171SOL     OW35344   0.588  13.377  12.703
11171SOL    HW135345   0.527  13.350  12.633
11171SOL    HW235346   0.633  13.297  12.728
11172SOL     OW35347   5.099   7.821   4.609
11172SOL    HW135348   5.047   7.838   4.530
11172SOL    HW235349   5.037   7.828   4.681
11173SOL     OW35350   5.901   3.749   0.274
11173SOL    HW135351   5.912   3.758   0.179
11173SOL    HW235352   5.815   3.709   0.285
11174SOL     OW35353  13.440   1.362   0.140
11174SOL    HW135354  13.524   1.394   0.173
11174SOL    HW235355  13.403   1.313   0.214
11175SOL     OW35356   4.204   2.512   6.984
11175SOL    HW135357   4.207   2.417   6.973
11175SOL    HW235358   4.119   2.537   6.948
11176SOL     OW35359   9.245  14.754  12.653
11176SOL    HW135360   9.245  14.658  12.644
11176SOL    HW235361   9.155  14.780  12.634
11177SOL     OW35362   2.980   1.694   7.514
11177SOL    HW135363   2.952   1.699   7.422
11177SOL    HW235364   3.045   1.623   7.515
11178SOL     OW35365  12.831   2.487   9.334
11178SOL    HW135366  12.881   2.559   9.297
11178SOL    HW235367  12.749   2.526   9.363
11179SOL     OW35368   6.217   1.866  13.017
11179SOL    HW135369   6.265   1.784  13.005
11179SOL    HW235370   6.158   1.850  13.090
11180SOL     OW35371   4.764  10.809  14.370
11180SOL    HW135372   4.677  10.789  14.403
11180SOL    HW235373   4.787  10.733  14.316
11181SOL     OW35374  12.388   2.153  13.548
11181SOL    HW135375  12.393   2.244  13.578
11181SOL    HW235376  12.316   2.115  13.600
11182SOL     OW35377   8.215   8.603   5.365
11182SOL    HW135378   8.204   8.535   5.432
11182SOL    HW235379   8.126   8.627   5.340
11183SOL     OW35380   9.854  13.757  11.662
11183SOL    HW135381   9.833  13.815  11.588
11183SOL    HW235382   9.904  13.685  11.624
11184SOL     OW35383   0.917   3.490   2.070
11184SOL    HW135384   0.910   3.397   2.050
11184SOL    HW235385   1.010   3.505   2.087
11185SOL     OW35386   5.442  12.315  13.482
11185SOL    HW135387   5.471  12.231  13.518
11185SOL    HW235388   5.511  12.341  13.422
11186SOL     OW35389   5.122   5.896  10.182
11186SOL    HW135390   5.074   5.949  10.119
11186SOL    HW235391   5.214   5.918  10.166
11187SOL     OW35392  14.514   7.564   9.529
11187SOL    HW135393  14.585   7.618   9.494
11187SOL    HW235394  14.485   7.611   9.607
11188SOL     OW35395  10.122  13.363   1.717
11188SOL    HW135396  10.167  13.327   1.794
11188SOL    HW235397  10.107  13.288   1.660
11189SOL     OW35398   0.878   3.866   1.393
11189SOL    HW135399   0.905   3.824   1.312
11189SOL    HW235400   0.911   3.809   1.462
11190SOL     OW35401   6.091   4.712   3.106
11190SOL    HW135402   6.151   4.784   3.086
11190SOL    HW235403   6.039   4.701   3.027
11191SOL     OW35404   2.207   3.716   5.894
11191SOL    HW135405   2.145   3.773   5.940
11191SOL    HW235406   2.247   3.774   5.829
11192SOL     OW35407  11.943   6.288   2.403
11192SOL    HW135408  11.915   6.371   2.441
11192SOL    HW235409  11.867   6.257   2.355
11193SOL     OW35410   9.300   8.906   2.935
11193SOL    HW135411   9.376   8.929   2.990
11193SOL    HW235412   9.339   8.881   2.851
11194SOL     OW35413  12.432  10.119   9.534
11194SOL    HW135414  12.470  10.048   9.481
11194SOL    HW235415  12.338  10.100   9.535
11195SOL     OW35416  10.774  11.584   8.000
11195SOL    HW135417  10.844  11.526   8.031
11195SOL    HW235418  10.747  11.633   8.077
11196SOL     OW35419   6.294  11.398   4.611
11196SOL    HW135420   6.279  11.374   4.703
11196SOL    HW235421   6.364  11.463   4.614
11197SOL     OW35422  11.957  11.668   0.719
11197SOL    HW135423  11.944  11.709   0.805
11197SOL    HW235424  11.916  11.730   0.657
11198SOL     OW35425  11.702  12.818   9.346
11198SOL    HW135426  11.667  12.838   9.433
11198SOL    HW235427  11.722  12.904   9.308
11199SOL     OW35428  12.835  13.340   7.837
11199SOL    HW135429  12.855  13.252   7.807
11199SOL    HW235430  12.804  13.328   7.927
11200SOL     OW35431   6.136   5.971   6.824
11200SOL    HW135432   6.180   6.039   6.874
11200SOL    HW235433   6.050   6.007   6.805
11201SOL     OW35434   1.895   1.168   8.771
11201SOL    HW135435   1.904   1.188   8.678
11201SOL    HW235436   1.889   1.072   8.774
11202SOL     OW35437   1.898   4.698   6.417
11202SOL    HW135438   1.968   4.640   6.449
11202SOL    HW235439   1.889   4.675   6.324
11203SOL     OW35440   6.745   5.893  12.307
11203SOL    HW135441   6.742   5.896  12.403
11203SOL    HW235442   6.707   5.976  12.279
11204SOL     OW35443  13.348   7.312   2.521
11204SOL    HW135444  13.282   7.320   2.590
11204SOL    HW235445  13.431   7.303   2.568
11205SOL     OW35446   6.819   0.805   4.769
11205SOL    HW135447   6.808   0.734   4.832
11205SOL    HW235448   6.907   0.838   4.784
11206SOL     OW35449   9.137   3.254   0.113
11206SOL    HW135450   9.149   3.163   0.088
11206SOL    HW235451   9.112   3.250   0.205
11207SOL     OW35452   3.534  14.739  14.115
11207SOL    HW135453   3.590  14.672  14.075
11207SOL    HW235454   3.528  14.807  14.049
11208SOL     OW35455   5.297   9.252  12.453
11208SOL    HW135456   5.224   9.263  12.391
11208SOL    HW235457   5.305   9.337  12.496
11209SOL     OW35458  10.250   1.815   4.129
11209SOL    HW135459  10.227   1.872   4.202
11209SOL    HW235460  10.332   1.851   4.095
11210SOL     OW35461   7.241   4.381   4.357
11210SOL    HW135462   7.151   4.413   4.370
11210SOL    HW235463   7.256   4.322   4.431
11211SOL     OW35464  14.333   7.708   5.962
11211SOL    HW135465  14.270   7.746   5.901
11211SOL    HW235466  14.366   7.630   5.917
11212SOL     OW35467  11.548   7.033  12.846
11212SOL    HW135468  11.630   7.001  12.808
11212SOL    HW235469  11.562   7.128  12.855
11213SOL     OW35470  11.544  10.805   0.489
11213SOL    HW135471  11.558  10.719   0.529
11213SOL    HW235472  11.600  10.864   0.539
11214SOL     OW35473   8.605  12.495   3.169
11214SOL    HW135474   8.579  12.587   3.166
11214SOL    HW235475   8.523  12.448   3.184
11215SOL     OW35476   8.504  14.514  14.811
11215SOL    HW135477   8.579  14.456  14.823
11215SOL    HW235478   8.449  14.469  14.747
11216SOL     OW35479   4.150   9.165  11.654
11216SOL    HW135480   4.222   9.112  11.619
11216SOL    HW235481   4.103   9.197  11.578
11217SOL     OW35482   0.276   3.504   4.616
11217SOL    HW135483   0.302   3.590   4.649
11217SOL    HW235484   0.182   3.511   4.599
11218SOL     OW35485   8.006   3.523   9.644
11218SOL    HW135486   7.921   3.540   9.604
11218SOL    HW235487   8.038   3.610   9.669
11219SOL     OW35488   1.328  10.517   6.194
11219SOL    HW135489   1.295  10.438   6.151
11219SOL    HW235490   1.372  10.565   6.124
11220SOL     OW35491   7.758   7.711   4.349
11220SOL    HW135492   7.707   7.791   4.362
11220SOL    HW235493   7.695   7.640   4.358
11221SOL     OW35494  13.156   8.508   4.890
11221SOL    HW135495  13.086   8.454   4.927
11221SOL    HW235496  13.236   8.476   4.931
11222SOL     OW35497  13.245   0.054  10.148
11222SOL    HW135498  13.330   0.098  10.153
11222SOL    HW235499  13.206   0.068  10.235
11223SOL     OW35500   2.997   0.514   9.000
11223SOL    HW135501   3.044   0.598   8.999
11223SOL    HW235502   2.911   0.535   8.963
11224SOL     OW35503  10.970   2.377   6.039
11224SOL    HW135504  10.887   2.406   6.075
11224SOL    HW235505  10.950   2.353   5.948
11225SOL     OW35506  14.615   2.425   7.737
11225SOL    HW135507  14.570   2.384   7.810
11225SOL    HW235508  14.557   2.497   7.711
11226SOL     OW35509  11.000  13.907  13.151
11226SOL    HW135510  11.010  14.001  13.136
11226SOL    HW235511  11.037  13.893  13.239
11227SOL     OW35512   4.337  12.130  13.367
11227SOL    HW135513   4.318  12.224  13.368
11227SOL    HW235514   4.387  12.117  13.286
11228SOL     OW35515   2.054  14.400  14.511
11228SOL    HW135516   1.975  14.448  14.487
11228SOL    HW235517   2.095  14.377  14.428
11229SOL     OW35518  11.090  10.149   4.085
11229SOL    HW135519  11.096  10.194   4.001
11229SOL    HW235520  11.150  10.075   4.077
11230SOL     OW35521  10.601   6.480   1.895
11230SOL    HW135522  10.659   6.404   1.888
11230SOL    HW235523  10.579   6.484   1.988
11231SOL     OW35524  11.943  13.734  13.332
11231SOL    HW135525  11.977  13.784  13.257
11231SOL    HW235526  12.006  13.750  13.402
11232SOL     OW35527   3.788   3.338   9.582
11232SOL    HW135528   3.715   3.306   9.635
11232SOL    HW235529   3.854   3.367   9.645
11233SOL     OW35530   9.755   5.534  13.033
11233SOL    HW135531   9.691   5.468  13.008
11233SOL    HW235532   9.806   5.550  12.954
11234SOL     OW35533  13.600   3.112   7.365
11234SOL    HW135534  13.654   3.155   7.430
11234SOL    HW235535  13.534   3.178   7.341
11235SOL     OW35536   1.692   1.129   5.174
11235SOL    HW135537   1.668   1.149   5.264
11235SOL    HW235538   1.610   1.138   5.124
11236SOL     OW35539   8.194   6.213   6.512
11236SOL    HW135540   8.183   6.260   6.594
11236SOL    HW235541   8.150   6.267   6.447
11237SOL     OW35542   4.090   6.935  13.362
11237SOL    HW135543   4.100   7.008  13.424
11237SOL    HW235544   4.163   6.946  13.301
11238SOL     OW35545   6.117   6.205  13.009
11238SOL    HW135546   6.183   6.161  13.062
11238SOL    HW235547   6.048   6.139  12.996
11239SOL     OW35548   7.048   7.241   3.937
11239SOL    HW135549   7.091   7.308   3.990
11239SOL    HW235550   6.962   7.230   3.977
11240SOL     OW35551   1.701   5.540   3.363
11240SOL    HW135552   1.609   5.566   3.356
11240SOL    HW235553   1.700   5.446   3.348
11241SOL     OW35554   8.808   4.766  12.432
11241SOL    HW135555   8.885   4.714  12.456
11241SOL    HW235556   8.827   4.853  12.466
11242SOL     OW35557  10.920   2.003  13.548
11242SOL    HW135558  10.908   2.018  13.641
11242SOL    HW235559  10.986   2.067  13.521
11243SOL     OW35560   5.419   3.054   0.568
11243SOL    HW135561   5.411   3.112   0.492
11243SOL    HW235562   5.363   3.094   0.635
11244SOL     OW35563   7.008  11.023   0.034
11244SOL    HW135564   7.066  11.020   0.110
11244SOL    HW235565   7.047  11.088  14.848
11245SOL     OW35566  10.914   1.246  11.551
11245SOL    HW135567  10.860   1.184  11.599
11245SOL    HW235568  10.992   1.256  11.606
11246SOL     OW35569   5.085   5.998   1.603
11246SOL    HW135570   5.099   6.091   1.621
11246SOL    HW235571   5.018   5.996   1.534
11247SOL     OW35572   7.098   8.107   3.482
11247SOL    HW135573   7.035   8.036   3.479
11247SOL    HW235574   7.158   8.090   3.409
11248SOL     OW35575  13.242   2.083  13.344
11248SOL    HW135576  13.164   2.081  13.399
11248SOL    HW235577  13.215   2.042  13.262
11249SOL     OW35578   5.767  13.403   1.119
11249SOL    HW135579   5.716  13.393   1.039
11249SOL    HW235580   5.848  13.447   1.091
11250SOL     OW35581   7.884   0.621  10.733
11250SOL    HW135582   7.938   0.558  10.781
11250SOL    HW235583   7.940   0.652  10.662
11251SOL     OW35584   2.513  13.204   8.453
11251SOL    HW135585   2.513  13.152   8.373
11251SOL    HW235586   2.532  13.293   8.423
11252SOL     OW35587   4.689   7.087   8.334
11252SOL    HW135588   4.700   7.092   8.239
11252SOL    HW235589   4.762   7.136   8.370
11253SOL     OW35590  12.252   9.601   7.595
11253SOL    HW135591  12.181   9.554   7.551
11253SOL    HW235592  12.243   9.578   7.687
11254SOL     OW35593  13.679   9.818  11.529
11254SOL    HW135594  13.634   9.781  11.606
11254SOL    HW235595  13.743   9.751  11.506
11255SOL     OW35596   1.016   1.358   2.058
11255SOL    HW135597   1.029   1.447   2.026
11255SOL    HW235598   1.075   1.351   2.134
11256SOL     OW35599   6.125   7.632   1.377
11256SOL    HW135600   6.039   7.612   1.414
11256SOL    HW235601   6.176   7.553   1.392
11257SOL     OW35602   5.692   5.657  13.485
11257SOL    HW135603   5.753   5.584  13.478
11257SOL    HW235604   5.608   5.616  13.507
11258SOL     OW35605   7.443   4.783  11.383
11258SOL    HW135606   7.396   4.844  11.440
11258SOL    HW235607   7.424   4.813  11.295
11259SOL     OW35608   6.901   8.722   3.762
11259SOL    HW135609   6.944   8.765   3.836
11259SOL    HW235610   6.864   8.794   3.711
11260SOL     OW35611   8.107   7.393  12.108
11260SOL    HW135612   8.161   7.363  12.035
11260SOL    HW235613   8.067   7.313  12.142
11261SOL     OW35614   4.149   9.525   9.173
11261SOL    HW135615   4.164   9.439   9.212
11261SOL    HW235616   4.158   9.586   9.246
11262SOL     OW35617  13.858  14.741   7.345
11262SOL    HW135618  13.827  14.718   7.432
11262SOL    HW235619  13.934  14.797   7.360
11263SOL     OW35620   0.382  14.266  12.467
11263SOL    HW135621   0.448  14.198  12.473
11263SOL    HW235622   0.303  14.227  12.505
11264SOL     OW35623  10.944   1.826   9.426
11264SOL    HW135624  10.853   1.844   9.402
11264SOL    HW235625  10.973   1.761   9.362
11265SOL     OW35626   7.070  11.838  10.915
11265SOL    HW135627   7.074  11.933  10.925
11265SOL    HW235628   7.005  11.810  10.979
11266SOL     OW35629  13.911  14.109   9.661
11266SOL    HW135630  14.005  14.116   9.678
11266SOL    HW235631  13.905  14.060   9.579
11267SOL     OW35632   7.525  13.667   7.069
11267SOL    HW135633   7.436  13.634   7.064
11267SOL    HW235634   7.527  13.739   7.005
11268SOL     OW35635   9.776  12.674  12.214
11268SOL    HW135636   9.689  12.714  12.208
11268SOL    HW235637   9.771  12.597  12.158
11269SOL     OW35638   3.215   8.706   4.149
11269SOL    HW135639   3.123   8.734   4.145
11269SOL    HW235640   3.214   8.617   4.115
11270SOL     OW35641   0.523   1.021  11.778
11270SOL    HW135642   0.575   1.030  11.698
11270SOL    HW235643   0.437   0.993  11.747
11271SOL     OW35644   8.971  11.298  13.364
11271SOL    HW135645   8.892  11.301  13.417
11271SOL    HW235646   9.041  11.324  13.424
11272SOL     OW35647  11.481  13.285   1.113
11272SOL    HW135648  11.570  13.273   1.147
11272SOL    HW235649  11.486  13.365   1.061
11273SOL     OW35650  10.847  12.000   3.045
11273SOL    HW135651  10.916  11.937   3.065
11273SOL    HW235652  10.888  12.063   2.986
11274SOL     OW35653   5.805   6.093   1.621
11274SOL    HW135654   5.895   6.107   1.652
11274SOL    HW235655   5.780   6.177   1.582
11275SOL     OW35656   4.189   3.403   0.728
11275SOL    HW135657   4.194   3.498   0.741
11275SOL    HW235658   4.277   3.378   0.699
11276SOL     OW35659  12.549   3.987  13.164
11276SOL    HW135660  12.533   3.941  13.082
11276SOL    HW235661  12.464   4.024  13.188
11277SOL     OW35662   7.006   7.133   9.476
11277SOL    HW135663   6.987   7.166   9.388
11277SOL    HW235664   7.042   7.209   9.523
11278SOL     OW35665  13.678   9.130   8.466
11278SOL    HW135666  13.745   9.071   8.500
11278SOL    HW235667  13.625   9.075   8.408
11279SOL     OW35668  11.015  10.624   0.397
11279SOL    HW135669  10.959  10.656   0.467
11279SOL    HW235670  10.988  10.533   0.383
11280SOL     OW35671  12.971  11.222   3.091
11280SOL    HW135672  13.064  11.209   3.109
11280SOL    HW235673  12.964  11.314   3.067
11281SOL     OW35674   2.813   5.728  14.755
11281SOL    HW135675   2.740   5.763  14.703
11281SOL    HW235676   2.773   5.658  14.808
11282SOL     OW35677   0.827   0.689   2.632
11282SOL    HW135678   0.769   0.681   2.707
11282SOL    HW235679   0.894   0.622   2.647
11283SOL     OW35680   7.715   0.992   1.649
11283SOL    HW135681   7.684   1.069   1.698
11283SOL    HW235682   7.766   1.029   1.577
11284SOL     OW35683  10.937   3.297   5.377
11284SOL    HW135684  10.902   3.211   5.353
11284SOL    HW235685  11.022   3.300   5.333
11285SOL     OW35686   4.003   9.612   4.314
11285SOL    HW135687   3.942   9.685   4.306
11285SOL    HW235688   4.048   9.608   4.230
11286SOL     OW35689   8.686   7.608   7.126
11286SOL    HW135690   8.722   7.690   7.159
11286SOL    HW235691   8.595   7.628   7.106
11287SOL     OW35692   2.279  11.030  10.450
11287SOL    HW135693   2.301  11.076  10.369
11287SOL    HW235694   2.193  10.993  10.434
11288SOL     OW35695   4.115   0.714   9.993
11288SOL    HW135696   4.066   0.743  10.070
11288SOL    HW235697   4.133   0.621  10.009
11289SOL     OW35698   2.565   8.742   6.530
11289SOL    HW135699   2.521   8.670   6.485
11289SOL    HW235700   2.539   8.820   6.480
11290SOL     OW35701   7.871  13.500  10.031
11290SOL    HW135702   7.867  13.556  10.109
11290SOL    HW235703   7.782  13.468  10.021
11291SOL     OW35704  10.289  10.003   7.193
11291SOL    HW135705  10.310   9.914   7.165
11291SOL    HW235706  10.333  10.013   7.277
11292SOL     OW35707   5.618  14.599   7.681
11292SOL    HW135708   5.628  14.582   7.774
11292SOL    HW235709   5.656  14.523   7.637
11293SOL     OW35710   6.680   2.308  12.488
11293SOL    HW135711   6.689   2.283  12.396
11293SOL    HW235712   6.620   2.382  12.486
11294SOL     OW35713  14.732   6.309  12.750
11294SOL    HW135714  14.640   6.331  12.765
11294SOL    HW235715  14.774   6.394  12.733
11295SOL     OW35716  13.955   5.363   9.325
11295SOL    HW135717  13.896   5.437   9.315
11295SOL    HW235718  13.983   5.342   9.236
11296SOL     OW35719   7.861   3.115  11.694
11296SOL    HW135720   7.858   3.026  11.659
11296SOL    HW235721   7.828   3.170  11.623
11297SOL     OW35722   2.835   1.050   9.271
11297SOL    HW135723   2.793   1.050   9.356
11297SOL    HW235724   2.764   1.034   9.208
11298SOL     OW35725  14.588  12.405   5.211
11298SOL    HW135726  14.681  12.407   5.190
11298SOL    HW235727  14.557  12.322   5.176
11299SOL     OW35728   4.546  14.342   4.618
11299SOL    HW135729   4.569  14.274   4.554
11299SOL    HW235730   4.615  14.335   4.685
11300SOL     OW35731   4.763  10.594   9.953
11300SOL    HW135732   4.695  10.529   9.970
11300SOL    HW235733   4.717  10.678   9.955
11301SOL     OW35734   6.623   1.008  11.910
11301SOL    HW135735   6.719   1.013  11.902
11301SOL    HW235736   6.600   1.084  11.964
11302SOL     OW35737   1.825   8.346  14.403
11302SOL    HW135738   1.854   8.338  14.494
11302SOL    HW235739   1.737   8.307  14.402
11303SOL     OW35740   2.882   1.661   2.067
11303SOL    HW135741   2.969   1.622   2.052
11303SOL    HW235742   2.843   1.667   1.980
11304SOL     OW35743   0.739   2.886   5.120
11304SOL    HW135744   0.780   2.804   5.150
11304SOL    HW235745   0.651   2.861   5.094
11305SOL     OW35746   8.027   0.004   1.748
11305SOL    HW135747   8.061  14.867   1.659
11305SOL    HW235748   8.076  14.813   1.800
11306SOL     OW35749   2.104   1.538   9.434
11306SOL    HW135750   2.094   1.612   9.374
11306SOL    HW235751   2.181   1.491   9.402
11307SOL     OW35752  11.276  10.294  13.112
11307SOL    HW135753  11.260  10.361  13.045
11307SOL    HW235754  11.230  10.326  13.190
11308SOL     OW35755   2.779  11.585   7.566
11308SOL    HW135756   2.807  11.584   7.658
11308SOL    HW235757   2.858  11.610   7.518
11309SOL     OW35758   2.734   7.340   8.388
11309SOL    HW135759   2.663   7.276   8.387
11309SOL    HW235760   2.690   7.425   8.399
11310SOL     OW35761   6.882   2.998   6.899
11310SOL    HW135762   6.844   2.927   6.951
11310SOL    HW235763   6.938   2.954   6.836
11311SOL     OW35764   8.865  11.750   4.051
11311SOL    HW135765   8.919  11.694   4.106
11311SOL    HW235766   8.814  11.802   4.113
11312SOL     OW35767  10.751   2.585   0.383
11312SOL    HW135768  10.661   2.555   0.389
11312SOL    HW235769  10.744   2.671   0.341
11313SOL     OW35770   5.046   0.100   6.700
11313SOL    HW135771   4.958   0.102   6.740
11313SOL    HW235772   5.103   0.068   6.770
11314SOL     OW35773   2.110  11.889  14.003
11314SOL    HW135774   2.094  11.903  14.097
11314SOL    HW235775   2.204  11.907  13.993
11315SOL     OW35776   3.341  11.425  14.328
11315SOL    HW135777   3.376  11.505  14.289
11315SOL    HW235778   3.292  11.383  14.258
11316SOL     OW35779   4.147   0.717   8.125
11316SOL    HW135780   4.058   0.731   8.091
11316SOL    HW235781   4.175   0.635   8.086
11317SOL     OW35782  13.331  10.978   9.296
11317SOL    HW135783  13.235  10.983   9.304
11317SOL    HW235784  13.350  11.013   9.209
11318SOL     OW35785   3.251   0.686   1.139
11318SOL    HW135786   3.292   0.606   1.107
11318SOL    HW235787   3.323   0.748   1.150
11319SOL     OW35788  11.470   3.713   4.009
11319SOL    HW135789  11.554   3.734   4.050
11319SOL    HW235790  11.492   3.690   3.919
11320SOL     OW35791  10.504   6.472   2.159
11320SOL    HW135792  10.414   6.461   2.189
11320SOL    HW235793  10.557   6.468   2.239
11321SOL     OW35794  13.542   5.286  10.585
11321SOL    HW135795  13.602   5.242  10.524
11321SOL    HW235796  13.464   5.305  10.532
11322SOL     OW35797   2.613   7.927   2.055
11322SOL    HW135798   2.619   7.838   2.019
11322SOL    HW235799   2.519   7.939   2.071
11323SOL     OW35800   9.001  12.606  11.439
11323SOL    HW135801   9.095  12.600  11.422
11323SOL    HW235802   8.962  12.617  11.352
11324SOL     OW35803   4.798  11.749   2.467
11324SOL    HW135804   4.719  11.727   2.515
11324SOL    HW235805   4.851  11.800   2.529
11325SOL     OW35806  10.685   8.065   2.742
11325SOL    HW135807  10.723   8.098   2.824
11325SOL    HW235808  10.633   7.989   2.769
11326SOL     OW35809  13.264   1.118   8.062
11326SOL    HW135810  13.286   1.048   8.001
11326SOL    HW235811  13.178   1.094   8.097
11327SOL     OW35812   3.778   5.841  12.415
11327SOL    HW135813   3.728   5.923  12.409
11327SOL    HW235814   3.854   5.864  12.469
11328SOL     OW35815   6.146   0.824   6.036
11328SOL    HW135816   6.205   0.836   6.110
11328SOL    HW235817   6.202   0.789   5.967
11329SOL     OW35818   1.070   2.897  13.649
11329SOL    HW135819   1.127   2.822  13.661
11329SOL    HW235820   1.065   2.908  13.554
11330SOL     OW35821  13.676  11.584  13.749
11330SOL    HW135822  13.582  11.575  13.765
11330SOL    HW235823  13.684  11.661  13.692
11331SOL     OW35824  11.286   8.440   3.632
11331SOL    HW135825  11.264   8.523   3.590
11331SOL    HW235826  11.202   8.399   3.650
11332SOL     OW35827  14.385   4.214   0.223
11332SOL    HW135828  14.432   4.244   0.300
11332SOL    HW235829  14.407   4.121   0.215
11333SOL     OW35830  13.651   9.217   4.886
11333SOL    HW135831  13.722   9.281   4.887
11333SOL    HW235832  13.621   9.212   4.977
11334SOL     OW35833   4.843   2.587   4.925
11334SOL    HW135834   4.841   2.510   4.868
11334SOL    HW235835   4.753   2.621   4.921
11335SOL     OW35836   8.396   7.893  14.001
11335SOL    HW135837   8.426   7.971  13.954
11335SOL    HW235838   8.309   7.876  13.967
11336SOL     OW35839   7.652  13.393   4.294
11336SOL    HW135840   7.657  13.396   4.389
11336SOL    HW235841   7.742  13.374   4.266
11337SOL     OW35842   6.338   0.125   2.400
11337SOL    HW135843   6.420   0.098   2.441
11337SOL    HW235844   6.278   0.051   2.414
11338SOL     OW35845   0.266  12.617   6.060
11338SOL    HW135846   0.240  12.584   6.146
11338SOL    HW235847   0.305  12.542   6.016
11339SOL     OW35848   7.054  11.282  11.792
11339SOL    HW135849   7.069  11.188  11.779
11339SOL    HW235850   7.089  11.323  11.712
11340SOL     OW35851   1.320   2.250   4.838
11340SOL    HW135852   1.267   2.211   4.768
11340SOL    HW235853   1.410   2.242   4.807
11341SOL     OW35854   8.069   7.067  10.838
11341SOL    HW135855   8.068   7.027  10.925
11341SOL    HW235856   8.161   7.063  10.811
11342SOL     OW35857  11.630   0.520   2.137
11342SOL    HW135858  11.631   0.571   2.056
11342SOL    HW235859  11.546   0.475   2.135
11343SOL     OW35860   4.181   2.076   4.899
11343SOL    HW135861   4.133   2.028   4.966
11343SOL    HW235862   4.233   2.009   4.854
11344SOL     OW35863   2.091   5.173  10.983
11344SOL    HW135864   2.074   5.261  11.018
11344SOL    HW235865   2.021   5.159  10.918
11345SOL     OW35866  12.620   2.559   4.327
11345SOL    HW135867  12.560   2.527   4.394
11345SOL    HW235868  12.683   2.612   4.375
11346SOL     OW35869  13.896  10.478   3.708
11346SOL    HW135870  13.814  10.523   3.730
11346SOL    HW235871  13.953  10.547   3.674
11347SOL     OW35872   9.482   5.292   5.010
11347SOL    HW135873   9.558   5.284   4.952
11347SOL    HW235874   9.407   5.300   4.952
11348SOL     OW35875  13.238   0.726   9.465
11348SOL    HW135876  13.331   0.711   9.485
11348SOL    HW235877  13.231   0.822   9.459
11349SOL     OW35878   2.375  14.045  13.493
11349SOL    HW135879   2.456  14.009  13.457
11349SOL    HW235880   2.344  14.107  13.427
11350SOL     OW35881   7.342   9.861  10.690
11350SOL    HW135882   7.422   9.817  10.719
11350SOL    HW235883   7.272   9.800  10.714
11351SOL     OW35884   5.646  10.631   3.371
11351SOL    HW135885   5.709  10.611   3.302
11351SOL    HW235886   5.691  10.608   3.452
11352SOL     OW35887   1.382  11.573   7.587
11352SOL    HW135888   1.292  11.605   7.588
11352SOL    HW235889   1.376  11.484   7.552
11353SOL     OW35890  13.166  11.365  13.303
11353SOL    HW135891  13.121  11.280  13.292
11353SOL    HW235892  13.258  11.345  13.290
11354SOL     OW35893   3.453   6.641   0.973
11354SOL    HW135894   3.413   6.565   0.930
11354SOL    HW235895   3.491   6.692   0.902
11355SOL     OW35896   2.673   6.083   6.921
11355SOL    HW135897   2.639   6.146   6.857
11355SOL    HW235898   2.690   6.135   7.000
11356SOL     OW35899  12.755   9.459   9.440
11356SOL    HW135900  12.775   9.543   9.482
11356SOL    HW235901  12.671   9.433   9.477
11357SOL     OW35902  10.239   0.303   1.113
11357SOL    HW135903  10.293   0.313   1.035
11357SOL    HW235904  10.288   0.245   1.170
11358SOL     OW35905  12.678   1.764   3.341
11358SOL    HW135906  12.610   1.749   3.406
11358SOL    HW235907  12.729   1.838   3.375
11359SOL     OW35908   7.923   6.650   3.965
11359SOL    HW135909   7.902   6.573   4.018
11359SOL    HW235910   7.842   6.670   3.918
11360SOL     OW35911  11.858   3.240  12.160
11360SOL    HW135912  11.807   3.310  12.118
11360SOL    HW235913  11.948   3.258  12.135
11361SOL     OW35914   1.233   3.598   3.440
11361SOL    HW135915   1.169   3.668   3.431
11361SOL    HW235916   1.316   3.643   3.457
11362SOL     OW35917  10.033   6.260  12.840
11362SOL    HW135918   9.945   6.272  12.805
11362SOL    HW235919  10.085   6.233  12.764
11363SOL     OW35920   6.216   0.884   1.284
11363SOL    HW135921   6.147   0.849   1.341
11363SOL    HW235922   6.266   0.942   1.341
11364SOL     OW35923   5.140   6.890  11.777
11364SOL    HW135924   5.045   6.895  11.783
11364SOL    HW235925   5.168   6.860  11.863
11365SOL     OW35926   9.195  10.481   2.543
11365SOL    HW135927   9.270  10.484   2.602
11365SOL    HW235928   9.225  10.524   2.464
11366SOL     OW35929  11.449   8.360   7.782
11366SOL    HW135930  11.428   8.433   7.723
11366SOL    HW235931  11.508   8.398   7.847
11367SOL     OW35932  12.739   0.324  12.939
11367SOL    HW135933  12.801   0.252  12.932
11367SOL    HW235934  12.692   0.308  13.020
11368SOL     OW35935  14.593   1.115  12.235
11368SOL    HW135936  14.679   1.072  12.237
11368SOL    HW235937  14.531   1.046  12.258
11369SOL     OW35938   5.683   5.043  10.253
11369SOL    HW135939   5.723   5.101  10.318
11369SOL    HW235940   5.711   5.079  10.168
11370SOL     OW35941  10.519   9.088  11.550
11370SOL    HW135942  10.469   9.096  11.631
11370SOL    HW235943  10.576   9.165  11.550
11371SOL     OW35944   0.174   7.484   7.761
11371SOL    HW135945   0.083   7.513   7.754
11371SOL    HW235946   0.224   7.565   7.769
11372SOL     OW35947  13.655  13.150   3.159
11372SOL    HW135948  13.746  13.122   3.157
11372SOL    HW235949  13.608  13.083   3.110
11373SOL     OW35950   5.410  11.076   8.344
11373SOL    HW135951   5.360  11.139   8.395
11373SOL    HW235952   5.494  11.069   8.389
11374SOL     OW35953  12.865   1.938  11.115
11374SOL    HW135954  12.888   1.949  11.207
11374SOL    HW235955  12.819   1.854  11.111
11375SOL     OW35956   6.642   8.328   7.131
11375SOL    HW135957   6.701   8.359   7.062
11375SOL    HW235958   6.559   8.370   7.111
11376SOL     OW35959   2.345   2.387  12.639
11376SOL    HW135960   2.387   2.307  12.609
11376SOL    HW235961   2.397   2.415  12.715
11377SOL     OW35962   9.543   5.837   6.035
11377SOL    HW135963   9.521   5.927   6.011
11377SOL    HW235964   9.607   5.845   6.105
11378SOL     OW35965  12.171  12.728   2.092
11378SOL    HW135966  12.107  12.688   2.033
11378SOL    HW235967  12.239  12.662   2.103
11379SOL     OW35968   1.237  11.824   9.537
11379SOL    HW135969   1.143  11.833   9.556
11379SOL    HW235970   1.277  11.810   9.623
11380SOL     OW35971  14.825  11.148   7.987
11380SOL    HW135972  14.743  11.172   7.944
11380SOL    HW235973  14.864  11.231   8.012
11381SOL     OW35974   9.613   2.747  12.857
11381SOL    HW135975   9.653   2.816  12.804
11381SOL    HW235976   9.609   2.783  12.945
11382SOL     OW35977   9.005   5.279  11.393
11382SOL    HW135978   9.005   5.311  11.303
11382SOL    HW235979   8.913   5.262  11.414
11383SOL     OW35980  10.816  10.074   7.545
11383SOL    HW135981  10.872  10.118   7.480
11383SOL    HW235982  10.729  10.110   7.528
11384SOL     OW35983   3.149   3.761   2.002
11384SOL    HW135984   3.151   3.690   2.066
11384SOL    HW235985   3.081   3.820   2.033
11385SOL     OW35986  12.005   4.066   3.789
11385SOL    HW135987  11.984   4.159   3.789
11385SOL    HW235988  12.022   4.045   3.881
11386SOL     OW35989  12.597   6.716   6.701
11386SOL    HW135990  12.535   6.656   6.660
11386SOL    HW235991  12.569   6.720   6.793
11387SOL     OW35992  10.380   1.225  12.038
11387SOL    HW135993  10.311   1.264  12.092
11387SOL    HW235994  10.359   1.132  12.036
11388SOL     OW35995  11.059  11.787  11.791
11388SOL    HW135996  11.090  11.726  11.724
11388SOL    HW235997  11.080  11.745  11.874
11389SOL     OW35998   1.013   3.543  10.080
11389SOL    HW135999   1.051   3.462  10.045
11389SOL    HW236000   0.990   3.594  10.002
11390SOL     OW36001   4.553  13.902  11.608
11390SOL    HW136002   4.604  13.953  11.545
11390SOL    HW236003   4.614  13.835  11.639
11391SOL     OW36004   2.842   6.221   9.083
11391SOL    HW136005   2.766   6.165   9.098
11391SOL    HW236006   2.905   6.194   9.150
11392SOL     OW36007  14.793  12.707  12.016
11392SOL    HW136008  14.771  12.800  12.005
11392SOL    HW236009  14.745  12.680  12.094
11393SOL     OW36010   6.136   6.843  12.296
11393SOL    HW136011   6.214   6.821  12.245
11393SOL    HW236012   6.094   6.759  12.312
11394SOL     OW36013  11.686   4.927   5.000
11394SOL    HW136014  11.621   4.878   5.051
11394SOL    HW236015  11.770   4.900   5.035
11395SOL     OW36016   4.663  11.130   5.580
11395SOL    HW136017   4.584  11.183   5.585
11395SOL    HW236018   4.685  11.112   5.671
11396SOL     OW36019  13.747  12.873  12.085
11396SOL    HW136020  13.794  12.956  12.089
11396SOL    HW236021  13.790  12.817  12.150
11397SOL     OW36022   2.200   4.595   0.929
11397SOL    HW136023   2.198   4.677   0.979
11397SOL    HW236024   2.221   4.528   0.994
11398SOL     OW36025   1.173  11.402  12.224
11398SOL    HW136026   1.269  11.405  12.228
11398SOL    HW236027   1.144  11.479  12.271
11399SOL     OW36028   7.810   3.599  10.844
11399SOL    HW136029   7.714   3.602  10.849
11399SOL    HW236030   7.828   3.526  10.784
11400SOL     OW36031   7.964  11.003   3.890
11400SOL    HW136032   7.936  10.917   3.922
11400SOL    HW236033   8.036  11.028   3.949
11401SOL     OW36034  14.407  11.679   8.047
11401SOL    HW136035  14.437  11.606   8.101
11401SOL    HW236036  14.435  11.656   7.958
11402SOL     OW36037   5.780   1.572  13.387
11402SOL    HW136038   5.757   1.561  13.479
11402SOL    HW236039   5.873   1.554  13.383
11403SOL     OW36040  11.378   4.573   0.090
11403SOL    HW136041  11.335   4.623   0.021
11403SOL    HW236042  11.309   4.519   0.128
11404SOL     OW36043   1.330   2.896   4.428
11404SOL    HW136044   1.384   2.822   4.400
11404SOL    HW236045   1.247   2.857   4.452
11405SOL     OW36046   1.840   8.259   3.899
11405SOL    HW136047   1.749   8.264   3.927
11405SOL    HW236048   1.874   8.347   3.914
11406SOL     OW36049   2.619  14.713   0.954
11406SOL    HW136050   2.628  14.619   0.941
11406SOL    HW236051   2.593  14.747   0.869
11407SOL     OW36052   8.056   0.943  11.394
11407SOL    HW136053   7.965   0.972  11.385
11407SOL    HW236054   8.055   0.883  11.468
11408SOL     OW36055   1.850   9.684   6.190
11408SOL    HW136056   1.788   9.617   6.162
11408SOL    HW236057   1.803   9.734   6.257
11409SOL     OW36058   2.224   8.162   2.726
11409SOL    HW136059   2.175   8.107   2.665
11409SOL    HW236060   2.282   8.214   2.671
11410SOL     OW36061   0.600  13.674  13.684
11410SOL    HW136062   0.610  13.592  13.637
11410SOL    HW236063   0.558  13.733  13.622
11411SOL     OW36064   1.326  10.084   4.653
11411SOL    HW136065   1.271  10.149   4.609
11411SOL    HW236066   1.308  10.003   4.606
11412SOL     OW36067  10.191   9.661   0.924
11412SOL    HW136068  10.228   9.641   1.010
11412SOL    HW236069  10.264   9.694   0.872
11413SOL     OW36070   3.146   6.734  13.955
11413SOL    HW136071   3.106   6.782  13.883
11413SOL    HW236072   3.072   6.694  14.001
11414SOL     OW36073   7.224   6.858   4.721
11414SOL    HW136074   7.283   6.836   4.648
11414SOL    HW236075   7.165   6.924   4.685
11415SOL     OW36076   2.876  14.238  10.295
11415SOL    HW136077   2.805  14.282  10.341
11415SOL    HW236078   2.850  14.146  10.294
11416SOL     OW36079   1.530   8.973   2.485
11416SOL    HW136080   1.509   8.880   2.479
11416SOL    HW236081   1.612   8.982   2.437
11417SOL     OW36082   6.099  10.542   0.361
11417SOL    HW136083   6.155  10.606   0.318
11417SOL    HW236084   6.113  10.557   0.455
11418SOL     OW36085   4.917   1.630  12.455
11418SOL    HW136086   4.986   1.697  12.455
11418SOL    HW236087   4.885   1.628  12.365
11419SOL     OW36088   1.897   9.286  10.357
11419SOL    HW136089   1.824   9.347  10.350
11419SOL    HW236090   1.970   9.331  10.314
11420SOL     OW36091   3.956   0.702   2.095
11420SOL    HW136092   3.873   0.744   2.071
11420SOL    HW236093   3.931   0.615   2.124
11421SOL     OW36094   4.258  12.053   2.541
11421SOL    HW136095   4.321  12.066   2.611
11421SOL    HW236096   4.255  11.958   2.529
11422SOL     OW36097   2.704   9.554   1.918
11422SOL    HW136098   2.648   9.505   1.978
11422SOL    HW236099   2.758   9.609   1.975
11423SOL     OW36100   5.263   5.005  10.232
11423SOL    HW136101   5.317   5.066  10.181
11423SOL    HW236102   5.228   5.059  10.303
11424SOL     OW36103   6.600  14.818   2.821
11424SOL    HW136104   6.627  14.813   2.912
11424SOL    HW236105   6.657  14.757   2.775
11425SOL     OW36106   4.954   0.383   2.817
11425SOL    HW136107   4.864   0.348   2.819
11425SOL    HW236108   4.995   0.337   2.744
11426SOL     OW36109   7.166   4.546  10.500
11426SOL    HW136110   7.198   4.630  10.466
11426SOL    HW236111   7.170   4.487  10.425
11427SOL     OW36112   7.575   9.739   2.815
11427SOL    HW136113   7.565   9.750   2.910
11427SOL    HW236114   7.490   9.705   2.786
11428SOL     OW36115  12.601   3.398   0.511
11428SOL    HW136116  12.606   3.494   0.518
11428SOL    HW236117  12.651   3.366   0.586
11429SOL     OW36118   2.065   3.298   4.490
11429SOL    HW136119   2.019   3.244   4.427
11429SOL    HW236120   2.142   3.330   4.444
11430SOL     OW36121   8.741   9.955  14.754
11430SOL    HW136122   8.805  10.009  14.801
11430SOL    HW236123   8.782   9.868  14.750
11431SOL     OW36124   6.048   8.633   7.374
11431SOL    HW136125   5.972   8.639   7.432
11431SOL    HW236126   6.012   8.605   7.290
11432SOL     OW36127   2.532  12.061   6.787
11432SOL    HW136128   2.559  12.144   6.749
11432SOL    HW236129   2.568  11.995   6.728
11433SOL     OW36130   5.685  13.080   2.934
11433SOL    HW136131   5.626  13.114   2.867
11433SOL    HW236132   5.635  13.089   3.016
11434SOL     OW36133   6.043   0.069  14.799
11434SOL    HW136134   5.974   0.005  14.789
11434SOL    HW236135   6.067   0.064   0.020
11435SOL     OW36136  13.490   9.016  11.625
11435SOL    HW136137  13.580   9.031  11.654
11435SOL    HW236138  13.454   8.956  11.690
11436SOL     OW36139   6.715  12.214   3.849
11436SOL    HW136140   6.774  12.257   3.910
11436SOL    HW236141   6.757  12.131   3.828
11437SOL     OW36142   0.816  12.642   5.351
11437SOL    HW136143   0.769  12.568   5.312
11437SOL    HW236144   0.749  12.689   5.400
11438SOL     OW36145   2.806  12.843   2.763
11438SOL    HW136146   2.787  12.756   2.797
11438SOL    HW236147   2.902  12.850   2.769
11439SOL     OW36148   4.111  13.349   5.020
11439SOL    HW136149   4.187  13.382   4.973
11439SOL    HW236150   4.145  13.282   5.079
11440SOL     OW36151   0.120   4.575   4.482
11440SOL    HW136152   0.103   4.497   4.535
11440SOL    HW236153   0.089   4.553   4.395
11441SOL     OW36154   5.115   2.809   6.418
11441SOL    HW136155   5.077   2.732   6.462
11441SOL    HW236156   5.040   2.858   6.386
11442SOL     OW36157   6.741  12.205   4.378
11442SOL    HW136158   6.650  12.204   4.408
11442SOL    HW236159   6.735  12.204   4.283
11443SOL     OW36160   1.239   8.813  12.542
11443SOL    HW136161   1.261   8.751  12.611
11443SOL    HW236162   1.148   8.838  12.560
11444SOL     OW36163   2.001   6.562  14.537
11444SOL    HW136164   1.912   6.559  14.502
11444SOL    HW236165   2.057   6.544  14.461
11445SOL     OW36166  12.548   1.991  14.361
11445SOL    HW136167  12.463   2.026  14.387
11445SOL    HW236168  12.531   1.947  14.278
11446SOL     OW36169   6.499   9.357  12.667
11446SOL    HW136170   6.433   9.397  12.724
11446SOL    HW236171   6.456   9.349  12.582
11447SOL     OW36172  10.486   7.021   5.342
11447SOL    HW136173  10.574   6.986   5.330
11447SOL    HW236174  10.496   7.090   5.408
11448SOL     OW36175   0.489   6.037   0.375
11448SOL    HW136176   0.512   6.004   0.288
11448SOL    HW236177   0.495   5.961   0.432
11449SOL     OW36178  10.451   3.878   6.182
11449SOL    HW136179  10.361   3.907   6.172
11449SOL    HW236180  10.452   3.788   6.150
11450SOL     OW36181  12.893  13.076   7.761
11450SOL    HW136182  12.973  13.038   7.725
11450SOL    HW236183  12.824  13.012   7.742
11451SOL     OW36184   5.002  12.765   2.360
11451SOL    HW136185   5.039  12.818   2.431
11451SOL    HW236186   5.078  12.726   2.317
11452SOL     OW36187   3.658   7.704   2.964
11452SOL    HW136188   3.574   7.709   3.009
11452SOL    HW236189   3.693   7.794   2.968
11453SOL     OW36190  14.118  10.606   2.635
11453SOL    HW136191  14.194  10.598   2.693
11453SOL    HW236192  14.133  10.688   2.588
11454SOL     OW36193   9.259   0.250   4.207
11454SOL    HW136194   9.275   0.262   4.114
11454SOL    HW236195   9.174   0.293   4.222
11455SOL     OW36196  13.561  12.794   6.870
11455SOL    HW136197  13.511  12.731   6.922
11455SOL    HW236198  13.636  12.817   6.925
11456SOL     OW36199   4.000   1.796   6.369
11456SOL    HW136200   3.979   1.859   6.300
11456SOL    HW236201   4.009   1.849   6.448
11457SOL     OW36202   0.337   9.325  10.807
11457SOL    HW136203   0.411   9.332  10.747
11457SOL    HW236204   0.376   9.323  10.894
11458SOL     OW36205   4.698  14.438   4.034
11458SOL    HW136206   4.708  14.524   4.073
11458SOL    HW236207   4.725  14.377   4.103
11459SOL     OW36208   4.976   6.555   0.933
11459SOL    HW136209   5.033   6.588   1.003
11459SOL    HW236210   4.906   6.509   0.979
11460SOL     OW36211   4.277   1.996   1.044
11460SOL    HW136212   4.188   1.966   1.064
11460SOL    HW236213   4.285   1.985   0.950
11461SOL     OW36214  12.514   9.935   8.186
11461SOL    HW136215  12.520  10.017   8.139
11461SOL    HW236216  12.490   9.870   8.119
11462SOL     OW36217  12.358   5.390   7.438
11462SOL    HW136218  12.280   5.444   7.424
11462SOL    HW236219  12.383   5.359   7.351
11463SOL     OW36220   0.772   8.750   5.553
11463SOL    HW136221   0.826   8.811   5.603
11463SOL    HW236222   0.826   8.672   5.544
11464SOL     OW36223   1.599   3.241   4.900
11464SOL    HW136224   1.519   3.292   4.888
11464SOL    HW236225   1.643   3.245   4.815
11465SOL     OW36226  13.924  14.345   5.714
11465SOL    HW136227  13.940  14.349   5.809
11465SOL    HW236228  13.919  14.437   5.687
11466SOL     OW36229  13.381   2.668   2.407
11466SOL    HW136230  13.388   2.607   2.480
11466SOL    HW236231  13.471   2.695   2.390
11467SOL     OW36232   8.579  14.642   3.603
11467SOL    HW136233   8.576  14.702   3.528
11467SOL    HW236234   8.672  14.618   3.610
11468SOL     OW36235  13.074   4.878   6.272
11468SOL    HW136236  13.050   4.959   6.317
11468SOL    HW236237  13.165   4.892   6.245
11469SOL     OW36238   9.210   6.999  11.671
11469SOL    HW136239   9.149   6.972  11.603
11469SOL    HW236240   9.278   7.048  11.625
11470SOL     OW36241  13.097  10.380  14.056
11470SOL    HW136242  13.060  10.468  14.064
11470SOL    HW236243  13.177  10.384  14.108
11471SOL     OW36244  11.539  13.157  11.517
11471SOL    HW136245  11.499  13.172  11.603
11471SOL    HW236246  11.509  13.070  11.491
11472SOL     OW36247   3.253   0.755   1.403
11472SOL    HW136248   3.179   0.809   1.374
11472SOL    HW236249   3.326   0.783   1.348
11473SOL     OW36250   4.502   8.191  14.412
11473SOL    HW136251   4.511   8.100  14.384
11473SOL    HW236252   4.432   8.190  14.477
11474SOL     OW36253  14.724   8.544   0.758
11474SOL    HW136254  14.755   8.521   0.846
11474SOL    HW236255  14.766   8.479   0.701
11475SOL     OW36256   8.339  14.757   7.239
11475SOL    HW136257   8.320  14.823   7.305
11475SOL    HW236258   8.380  14.806   7.167
11476SOL     OW36259  12.596   1.502  11.503
11476SOL    HW136260  12.552   1.473  11.423
11476SOL    HW236261  12.533   1.489  11.573
11477SOL     OW36262  14.064  14.458   1.327
11477SOL    HW136263  14.010  14.495   1.257
11477SOL    HW236264  14.003  14.448   1.401
11478SOL     OW36265   1.930   8.300  10.801
11478SOL    HW136266   1.853   8.328  10.752
11478SOL    HW236267   1.917   8.336  10.889
11479SOL     OW36268   0.815  14.501   5.076
11479SOL    HW136269   0.851  14.560   5.010
11479SOL    HW236270   0.791  14.558   5.149
11480SOL     OW36271  13.374  13.934   6.167
11480SOL    HW136272  13.415  13.996   6.106
11480SOL    HW236273  13.367  13.982   6.249
11481SOL     OW36274   7.125   7.395   3.527
11481SOL    HW136275   7.190   7.381   3.459
11481SOL    HW236276   7.172   7.380   3.609
11482SOL     OW36277   1.054   9.992   1.809
11482SOL    HW136278   1.005   9.958   1.884
11482SOL    HW236279   1.018   9.944   1.734
11483SOL     OW36280  12.927   3.860   3.998
11483SOL    HW136281  12.934   3.780   3.946
11483SOL    HW236282  12.882   3.922   3.940
11484SOL     OW36283   0.007  14.152  11.573
11484SOL    HW136284   0.005  14.190  11.485
11484SOL    HW236285  14.801  14.097  11.577
11485SOL     OW36286   7.987   1.761   3.638
11485SOL    HW136287   7.986   1.851   3.671
11485SOL    HW236288   8.052   1.762   3.568
11486SOL     OW36289   2.923   8.703  13.367
11486SOL    HW136290   2.859   8.741  13.308
11486SOL    HW236291   2.997   8.680  13.310
11487SOL     OW36292   1.341  10.111   7.609
11487SOL    HW136293   1.277  10.098   7.539
11487SOL    HW236294   1.289  10.113   7.689
11488SOL     OW36295  12.749  14.595  10.401
11488SOL    HW136296  12.713  14.512  10.433
11488SOL    HW236297  12.844  14.586  10.410
11489SOL     OW36298  12.709   3.628   1.173
11489SOL    HW136299  12.700   3.586   1.087
11489SOL    HW236300  12.700   3.721   1.155
11490SOL     OW36301   4.671   8.683   8.853
11490SOL    HW136302   4.758   8.715   8.878
11490SOL    HW236303   4.623   8.679   8.936
11491SOL     OW36304   9.292  12.501  10.741
11491SOL    HW136305   9.257  12.532  10.658
11491SOL    HW236306   9.360  12.438  10.717
11492SOL     OW36307   1.281  10.163   1.509
11492SOL    HW136308   1.366  10.207   1.512
11492SOL    HW236309   1.299  10.074   1.541
11493SOL     OW36310  11.043   5.512   0.284
11493SOL    HW136311  10.970   5.492   0.343
11493SOL    HW236312  11.079   5.594   0.319
11494SOL     OW36313   5.797  13.615   6.877
11494SOL    HW136314   5.889  13.605   6.854
11494SOL    HW236315   5.792  13.590   6.969
11495SOL     OW36316  13.161   7.240  12.518
11495SOL    HW136317  13.093   7.307  12.517
11495SOL    HW236318  13.159   7.205  12.607
11496SOL     OW36319  11.492   4.533  13.175
11496SOL    HW136320  11.543   4.583  13.111
11496SOL    HW236321  11.431   4.481  13.121
11497SOL     OW36322   6.955  11.733   8.229
11497SOL    HW136323   7.031  11.678   8.212
11497SOL    HW236324   6.884  11.692   8.179
11498SOL     OW36325   1.970  10.448   4.922
11498SOL    HW136326   1.913  10.475   4.850
11498SOL    HW236327   2.057  10.482   4.898
11499SOL     OW36328   4.755   7.878   6.144
11499SOL    HW136329   4.781   7.947   6.204
11499SOL    HW236330   4.810   7.803   6.167
11500SOL     OW36331   9.492   2.921   0.991
11500SOL    HW136332   9.481   2.956   0.902
11500SOL    HW236333   9.454   2.833   0.987
11501SOL     OW36334   7.427   4.080   2.590
11501SOL    HW136335   7.509   4.120   2.561
11501SOL    HW236336   7.437   4.074   2.686
11502SOL     OW36337   4.023   6.412   2.554
11502SOL    HW136338   3.967   6.336   2.539
11502SOL    HW236339   4.104   6.391   2.509
11503SOL     OW36340   2.909   5.712   6.306
11503SOL    HW136341   2.991   5.755   6.332
11503SOL    HW236342   2.896   5.644   6.373
11504SOL     OW36343   5.816  11.045   1.770
11504SOL    HW136344   5.789  11.031   1.861
11504SOL    HW236345   5.772  10.976   1.721
11505SOL     OW36346   1.494   1.072   3.807
11505SOL    HW136347   1.451   1.155   3.825
11505SOL    HW236348   1.553   1.059   3.882
11506SOL     OW36349   3.439   8.515  12.741
11506SOL    HW136350   3.441   8.423  12.767
11506SOL    HW236351   3.350   8.530  12.710
11507SOL     OW36352  11.201   9.482   1.301
11507SOL    HW136353  11.227   9.440   1.219
11507SOL    HW236354  11.196   9.410   1.364
11508SOL     OW36355   0.975  10.367   7.565
11508SOL    HW136356   1.043  10.312   7.605
11508SOL    HW236357   0.897  10.312   7.565
11509SOL     OW36358   8.979   9.060   7.985
11509SOL    HW136359   9.049   9.108   7.941
11509SOL    HW236360   8.987   9.085   8.077
11510SOL     OW36361  13.087   1.350   4.618
11510SOL    HW136362  13.175   1.358   4.580
11510SOL    HW236363  13.052   1.270   4.580
11511SOL     OW36364   0.132   5.466  13.363
11511SOL    HW136365   0.199   5.422  13.415
11511SOL    HW236366   0.082   5.395  13.324
11512SOL     OW36367  12.767   9.923   8.915
11512SOL    HW136368  12.818   9.941   8.837
11512SOL    HW236369  12.717  10.004   8.930
11513SOL     OW36370   0.705  13.642   7.265
11513SOL    HW136371   0.624  13.645   7.213
11513SOL    HW236372   0.728  13.549   7.267
11514SOL     OW36373  11.128   8.743  12.546
11514SOL    HW136374  11.185   8.816  12.571
11514SOL    HW236375  11.186   8.683  12.500
11515SOL     OW36376   0.414   7.685   8.118
11515SOL    HW136377   0.454   7.659   8.201
11515SOL    HW236378   0.358   7.611   8.094
11516SOL     OW36379   0.037   3.791  10.687
11516SOL    HW136380  14.843   3.820  10.624
11516SOL    HW236381   0.099   3.739  10.635
11517SOL     OW36382  12.257   9.812   5.110
11517SOL    HW136383  12.296   9.895   5.136
11517SOL    HW236384  12.277   9.803   5.017
11518SOL     OW36385   7.986   3.788   6.245
11518SOL    HW136386   8.063   3.745   6.208
11518SOL    HW236387   7.934   3.814   6.169
11519SOL     OW36388  10.348  14.669   0.193
11519SOL    HW136389  10.428  14.643   0.145
11519SOL    HW236390  10.279  14.617   0.153
11520SOL     OW36391   8.887   8.922   2.957
11520SOL    HW136392   8.942   8.987   2.912
11520SOL    HW236393   8.892   8.945   3.049
11521SOL     OW36394   9.786  14.273   1.563
11521SOL    HW136395   9.845  14.348   1.571
11521SOL    HW236396   9.773  14.262   1.468
11522SOL     OW36397   1.278   8.067   3.662
11522SOL    HW136398   1.367   8.068   3.628
11522SOL    HW236399   1.282   8.008   3.738
11523SOL     OW36400   4.441   3.259   7.093
11523SOL    HW136401   4.511   3.210   7.136
11523SOL    HW236402   4.402   3.311   7.163
11524SOL     OW36403   0.220  11.013   0.754
11524SOL    HW136404   0.199  10.939   0.697
11524SOL    HW236405   0.138  11.063   0.758
11525SOL     OW36406   3.636   8.984  11.802
11525SOL    HW136407   3.718   8.944  11.772
11525SOL    HW236408   3.615   9.048  11.734
11526SOL     OW36409  11.801   2.173   5.684
11526SOL    HW136410  11.892   2.145   5.693
11526SOL    HW236411  11.782   2.221   5.765
11527SOL     OW36412   8.478   2.237   5.352
11527SOL    HW136413   8.494   2.172   5.283
11527SOL    HW236414   8.386   2.260   5.342
11528SOL     OW36415   8.120   8.989  14.035
11528SOL    HW136416   8.141   8.916  14.094
11528SOL    HW236417   8.033   8.966  14.000
11529SOL     OW36418   0.390  11.431   5.246
11529SOL    HW136419   0.302  11.415   5.277
11529SOL    HW236420   0.421  11.346   5.215
11530SOL     OW36421   2.622   4.552  12.148
11530SOL    HW136422   2.582   4.474  12.109
11530SOL    HW236423   2.598   4.623  12.089
11531SOL     OW36424   3.876   3.442  10.475
11531SOL    HW136425   3.792   3.479  10.450
11531SOL    HW236426   3.941   3.505  10.442
11532SOL     OW36427   4.983  13.437  12.955
11532SOL    HW136428   4.904  13.486  12.974
11532SOL    HW236429   4.988  13.434  12.859
11533SOL     OW36430   6.257  13.383  11.613
11533SOL    HW136431   6.214  13.456  11.568
11533SOL    HW236432   6.185  13.325  11.638
11534SOL     OW36433  11.645   8.845   9.985
11534SOL    HW136434  11.629   8.753   9.964
11534SOL    HW236435  11.558   8.882   9.999
11535SOL     OW36436  10.230  11.762   3.737
11535SOL    HW136437  10.201  11.807   3.658
11535SOL    HW236438  10.311  11.807   3.761
11536SOL     OW36439  13.232   6.869  14.003
11536SOL    HW136440  13.293   6.923  14.055
11536SOL    HW236441  13.226   6.787  14.052
11537SOL     OW36442  12.552   6.485   9.422
11537SOL    HW136443  12.551   6.438   9.505
11537SOL    HW236444  12.461   6.509   9.406
11538SOL     OW36445  12.613   0.051   6.003
11538SOL    HW136446  12.693   0.011   6.037
11538SOL    HW236447  12.558   0.064   6.080
11539SOL     OW36448  10.401  13.858  13.329
11539SOL    HW136449  10.420  13.842  13.421
11539SOL    HW236450  10.397  13.953  13.321
11540SOL     OW36451  11.500  10.508   7.908
11540SOL    HW136452  11.570  10.451   7.939
11540SOL    HW236453  11.491  10.575   7.976
11541SOL     OW36454   5.363  10.662   8.103
11541SOL    HW136455   5.347  10.571   8.075
11541SOL    HW236456   5.294  10.712   8.060
11542SOL     OW36457  11.845   1.239   9.931
11542SOL    HW136458  11.763   1.269   9.969
11542SOL    HW236459  11.820   1.166   9.875
11543SOL     OW36460  14.484   7.789   0.056
11543SOL    HW136461  14.517   7.863   0.107
11543SOL    HW236462  14.552   7.722   0.063
11544SOL     OW36463   2.771   2.516  13.198
11544SOL    HW136464   2.726   2.571  13.133
11544SOL    HW236465   2.855   2.560  13.212
11545SOL     OW36466   4.885   8.069   4.809
11545SOL    HW136467   4.864   8.120   4.731
11545SOL    HW236468   4.886   7.978   4.779
11546SOL     OW36469   5.173   7.587   3.167
11546SOL    HW136470   5.239   7.547   3.224
11546SOL    HW236471   5.217   7.663   3.130
11547SOL     OW36472   5.826   3.634   4.451
11547SOL    HW136473   5.921   3.645   4.446
11547SOL    HW236474   5.797   3.704   4.510
11548SOL     OW36475   4.891  10.503  12.899
11548SOL    HW136476   4.910  10.543  12.984
11548SOL    HW236477   4.895  10.575  12.836
11549SOL     OW36478   9.866  11.440   6.172
11549SOL    HW136479   9.834  11.525   6.204
11549SOL    HW236480   9.885  11.454   6.080
11550SOL     OW36481   8.059  13.167   4.337
11550SOL    HW136482   8.130  13.229   4.356
11550SOL    HW236483   8.083  13.088   4.385
11551SOL     OW36484   2.949   5.560  14.591
11551SOL    HW136485   2.916   5.592  14.675
11551SOL    HW236486   2.871   5.527  14.546
11552SOL     OW36487  12.285   5.261   5.237
11552SOL    HW136488  12.279   5.189   5.301
11552SOL    HW236489  12.360   5.313   5.267
11553SOL     OW36490   7.765   9.731   3.283
11553SOL    HW136491   7.723   9.657   3.239
11553SOL    HW236492   7.696   9.771   3.335
11554SOL     OW36493   1.144  13.869   7.126
11554SOL    HW136494   1.119  13.844   7.215
11554SOL    HW236495   1.102  13.803   7.070
11555SOL     OW36496  12.282   3.813   8.347
11555SOL    HW136497  12.310   3.775   8.431
11555SOL    HW236498  12.189   3.831   8.359
11556SOL     OW36499  12.887   4.410   9.074
11556SOL    HW136500  12.947   4.419   9.001
11556SOL    HW236501  12.823   4.480   9.062
11557SOL     OW36502  13.594   9.964  14.070
11557SOL    HW136503  13.506   9.999  14.082
11557SOL    HW236504  13.581   9.875  14.037
11558SOL     OW36505  13.362   0.787   4.498
11558SOL    HW136506  13.269   0.776   4.517
11558SOL    HW236507  13.380   0.726   4.427
11559SOL     OW36508   1.520   0.009  12.729
11559SOL    HW136509   1.504   0.086  12.784
11559SOL    HW236510   1.602  14.844  12.764
11560SOL     OW36511   0.090   2.195   1.168
11560SOL    HW136512   0.086   2.244   1.250
11560SOL    HW236513   0.003   2.206   1.129
11561SOL     OW36514   8.262  14.407   5.703
11561SOL    HW136515   8.183  14.354   5.696
11561SOL    HW236516   8.334  14.345   5.691
11562SOL     OW36517   1.949   4.636   2.575
11562SOL    HW136518   2.004   4.596   2.507
11562SOL    HW236519   1.879   4.680   2.527
11563SOL     OW36520  14.396   2.379   9.390
11563SOL    HW136521  14.416   2.286   9.395
11563SOL    HW236522  14.338   2.387   9.315
11564SOL     OW36523  10.704  12.965   9.424
11564SOL    HW136524  10.679  13.052   9.456
11564SOL    HW236525  10.636  12.943   9.361
11565SOL     OW36526   4.040   1.232   6.065
11565SOL    HW136527   3.952   1.210   6.098
11565SOL    HW236528   4.032   1.228   5.970
11566SOL     OW36529   4.070   3.592   8.342
11566SOL    HW136530   4.146   3.624   8.392
11566SOL    HW236531   4.097   3.505   8.312
11567SOL     OW36532   8.462   0.832  14.458
11567SOL    HW136533   8.442   0.919  14.492
11567SOL    HW236534   8.484   0.847  14.366
11568SOL     OW36535   4.561  14.600  10.639
11568SOL    HW136536   4.507  14.564  10.568
11568SOL    HW236537   4.580  14.525  10.695
11569SOL     OW36538   9.052  14.586   2.404
11569SOL    HW136539   9.021  14.533   2.331
11569SOL    HW236540   8.972  14.620   2.445
11570SOL     OW36541   1.079   6.243   8.431
11570SOL    HW136542   1.015   6.216   8.496
11570SOL    HW236543   1.162   6.204   8.459
11571SOL     OW36544  10.332  10.128   7.556
11571SOL    HW136545  10.417  10.084   7.558
11571SOL    HW236546  10.269  10.059   7.536
11572SOL     OW36547   1.071   5.757  13.366
11572SOL    HW136548   1.049   5.834  13.418
11572SOL    HW236549   1.115   5.699  13.429
11573SOL     OW36550  12.767   4.852  13.608
11573SOL    HW136551  12.770   4.759  13.588
11573SOL    HW236552  12.715   4.891  13.538
11574SOL     OW36553   1.846   8.848   8.789
11574SOL    HW136554   1.780   8.783   8.812
11574SOL    HW236555   1.924   8.821   8.836
11575SOL     OW36556   2.283   7.543   6.017
11575SOL    HW136557   2.373   7.519   6.042
11575SOL    HW236558   2.266   7.492   5.939
11576SOL     OW36559   7.746   2.505   3.478
11576SOL    HW136560   7.828   2.549   3.497
11576SOL    HW236561   7.714   2.475   3.563
11577SOL     OW36562   5.309   0.492  11.877
11577SOL    HW136563   5.247   0.468  11.808
11577SOL    HW236564   5.257   0.541  11.941
11578SOL     OW36565   3.715   7.419   5.582
11578SOL    HW136566   3.685   7.508   5.602
11578SOL    HW236567   3.793   7.407   5.636
11579SOL     OW36568   5.895   7.086   7.436
11579SOL    HW136569   5.831   7.080   7.365
11579SOL    HW236570   5.847   7.059   7.514
11580SOL     OW36571  14.633  11.037   9.602
11580SOL    HW136572  14.608  11.104   9.666
11580SOL    HW236573  14.576  10.963   9.621
11581SOL     OW36574  14.129  10.962   5.387
11581SOL    HW136575  14.079  11.029   5.433
11581SOL    HW236576  14.079  10.945   5.308
11582SOL     OW36577  10.320   6.710  13.892
11582SOL    HW136578  10.263   6.637  13.867
11582SOL    HW236579  10.407   6.683  13.862
11583SOL     OW36580   8.556   5.890   8.289
11583SOL    HW136581   8.644   5.915   8.318
11583SOL    HW236582   8.569   5.851   8.203
11584SOL     OW36583   9.840   3.683  11.372
11584SOL    HW136584   9.804   3.597  11.354
11584SOL    HW236585   9.862   3.719  11.287
11585SOL     OW36586   5.099  10.031   5.863
11585SOL    HW136587   5.028  10.094   5.848
11585SOL    HW236588   5.119  10.040   5.956
11586SOL     OW36589   4.976  11.185   8.317
11586SOL    HW136590   4.982  11.168   8.411
11586SOL    HW236591   5.065  11.171   8.285
11587SOL     OW36592   3.939   2.293  12.166
11587SOL    HW136593   3.966   2.383  12.149
11587SOL    HW236594   3.983   2.241  12.098
11588SOL     OW36595  13.531  11.778   4.042
11588SOL    HW136596  13.572  11.791   3.957
11588SOL    HW236597  13.604  11.771   4.103
11589SOL     OW36598   0.568   1.278   1.340
11589SOL    HW136599   0.554   1.216   1.412
11589SOL    HW236600   0.662   1.296   1.342
11590SOL     OW36601   7.601   5.842  10.833
11590SOL    HW136602   7.548   5.899  10.777
11590SOL    HW236603   7.541   5.814  10.903
11591SOL     OW36604  10.642   7.549   4.802
11591SOL    HW136605  10.702   7.478   4.781
11591SOL    HW236606  10.693   7.628   4.789
11592SOL     OW36607  12.758  14.513   2.580
11592SOL    HW136608  12.795  14.555   2.657
11592SOL    HW236609  12.722  14.584   2.528
11593SOL     OW36610  10.042   6.211   5.450
11593SOL    HW136611  10.073   6.121   5.440
11593SOL    HW236612  10.022   6.219   5.544
11594SOL     OW36613   1.039  10.597   7.038
11594SOL    HW136614   0.950  10.630   7.024
11594SOL    HW236615   1.049  10.527   6.973
11595SOL     OW36616  13.749  12.970   4.452
11595SOL    HW136617  13.659  12.972   4.484
11595SOL    HW236618  13.783  12.886   4.481
11596SOL     OW36619  11.782   2.820   9.526
11596SOL    HW136620  11.788   2.857   9.438
11596SOL    HW236621  11.705   2.861   9.564
11597SOL     OW36622   5.316   8.876   8.650
11597SOL    HW136623   5.312   8.960   8.604
11597SOL    HW236624   5.282   8.812   8.588
11598SOL     OW36625   6.935   7.587   3.504
11598SOL    HW136626   6.875   7.569   3.576
11598SOL    HW236627   7.004   7.520   3.514
11599SOL     OW36628   9.480  13.186   6.378
11599SOL    HW136629   9.417  13.153   6.313
11599SOL    HW236630   9.477  13.122   6.449
11600SOL     OW36631  14.459   2.065   8.574
11600SOL    HW136632  14.373   2.035   8.544
11600SOL    HW236633  14.504   1.986   8.602
11601SOL     OW36634  13.352   0.141   4.778
11601SOL    HW136635  13.352   0.086   4.700
11601SOL    HW236636  13.435   0.122   4.821
11602SOL     OW36637  12.417   6.841  13.771
11602SOL    HW136638  12.428   6.803  13.684
11602SOL    HW236639  12.411   6.935  13.755
11603SOL     OW36640   2.139   8.429  14.502
11603SOL    HW136641   2.159   8.352  14.448
11603SOL    HW236642   2.191   8.499  14.464
11604SOL     OW36643   8.558   2.004   1.263
11604SOL    HW136644   8.528   1.989   1.353
11604SOL    HW236645   8.529   2.093   1.243
11605SOL     OW36646   3.159   3.240   8.075
11605SOL    HW136647   3.165   3.263   7.983
11605SOL    HW236648   3.086   3.292   8.109
11606SOL     OW36649  11.317  11.600   3.514
11606SOL    HW136650  11.396  11.622   3.563
11606SOL    HW236651  11.267  11.544   3.574
11607SOL     OW36652  13.398   5.937  11.524
11607SOL    HW136653  13.311   5.897  11.521
11607SOL    HW236654  13.406   5.971  11.613
11608SOL     OW36655   7.332   9.787  11.497
11608SOL    HW136656   7.245   9.789  11.459
11608SOL    HW236657   7.323   9.731  11.575
11609SOL     OW36658   1.918   9.600  12.231
11609SOL    HW136659   1.974   9.560  12.298
11609SOL    HW236660   1.972   9.600  12.152
11610SOL     OW36661   4.808   5.095   2.518
11610SOL    HW136662   4.815   5.160   2.448
11610SOL    HW236663   4.769   5.018   2.476
11611SOL     OW36664   3.975   4.002   5.028
11611SOL    HW136665   3.970   4.084   4.978
11611SOL    HW236666   3.887   3.990   5.064
11612SOL     OW36667   8.657   1.691   4.466
11612SOL    HW136668   8.690   1.606   4.494
11612SOL    HW236669   8.569   1.696   4.504
11613SOL     OW36670   8.742  11.711   2.146
11613SOL    HW136671   8.829  11.677   2.124
11613SOL    HW236672   8.756  11.803   2.165
11614SOL     OW36673   2.221  11.209   5.934
11614SOL    HW136674   2.203  11.303   5.936
11614SOL    HW236675   2.243  11.187   6.024
11615SOL     OW36676   1.782  13.708  12.965
11615SOL    HW136677   1.857  13.655  12.938
11615SOL    HW236678   1.755  13.754  12.886
11616SOL     OW36679   0.296  11.504   2.221
11616SOL    HW136680   0.271  11.420   2.182
11616SOL    HW236681   0.217  11.558   2.214
11617SOL     OW36682   3.249   3.934   3.069
11617SOL    HW136683   3.278   3.969   3.153
11617SOL    HW236684   3.185   3.866   3.092
11618SOL     OW36685  10.753   5.662   9.993
11618SOL    HW136686  10.741   5.589   9.932
11618SOL    HW236687  10.804   5.625  10.065
11619SOL     OW36688  12.315   2.841  14.667
11619SOL    HW136689  12.248   2.783  14.630
11619SOL    HW236690  12.303   2.924  14.621
11620SOL     OW36691   2.526   8.324   5.172
11620SOL    HW136692   2.506   8.387   5.241
11620SOL    HW236693   2.603   8.360   5.128
11621SOL     OW36694   2.343   3.509   8.881
11621SOL    HW136695   2.382   3.587   8.919
11621SOL    HW236696   2.347   3.444   8.952
11622SOL     OW36697   9.714   3.646  13.718
11622SOL    HW136698   9.644   3.588  13.749
11622SOL    HW236699   9.674   3.693  13.645
11623SOL     OW36700   6.539   9.863  10.027
11623SOL    HW136701   6.475   9.800  10.058
11623SOL    HW236702   6.624   9.825  10.049
11624SOL     OW36703   1.682   5.906   4.023
11624SOL    HW136704   1.620   5.902   4.095
11624SOL    HW236705   1.711   5.815   4.012
11625SOL     OW36706  10.758  13.000  13.103
11625SOL    HW136707  10.797  13.081  13.071
11625SOL    HW236708  10.669  13.023  13.126
11626SOL     OW36709  10.300   9.760   2.661
11626SOL    HW136710  10.292   9.805   2.576
11626SOL    HW236711  10.311   9.831   2.724
11627SOL     OW36712   0.815   4.968   3.931
11627SOL    HW136713   0.864   5.050   3.921
11627SOL    HW236714   0.865   4.904   3.880
11628SOL     OW36715   9.689   2.222   1.578
11628SOL    HW136716   9.783   2.221   1.592
11628SOL    HW236717   9.667   2.316   1.574
11629SOL     OW36718   8.425  12.245   1.585
11629SOL    HW136719   8.500  12.286   1.542
11629SOL    HW236720   8.386  12.189   1.518
11630SOL     OW36721   3.386   6.755   4.588
11630SOL    HW136722   3.447   6.823   4.557
11630SOL    HW236723   3.401   6.681   4.530
11631SOL     OW36724   4.300  13.636  13.189
11631SOL    HW136725   4.234  13.688  13.236
11631SOL    HW236726   4.379  13.642  13.243
11632SOL     OW36727  14.392   0.992   2.353
11632SOL    HW136728  14.314   1.047   2.361
11632SOL    HW236729  14.457   1.036   2.408
11633SOL     OW36730   0.696  10.495   2.310
11633SOL    HW136731   0.685  10.414   2.360
11633SOL    HW236732   0.734  10.556   2.372
11634SOL     OW36733   0.812   7.022   5.510
11634SOL    HW136734   0.811   7.004   5.604
11634SOL    HW236735   0.900   7.057   5.493
11635SOL     OW36736   4.484   1.228   5.069
11635SOL    HW136737   4.496   1.322   5.077
11635SOL    HW236738   4.414   1.218   5.005
11636SOL     OW36739  11.920   7.401   9.061
11636SOL    HW136740  11.872   7.342   9.003
11636SOL    HW236741  11.878   7.391   9.146
11637SOL     OW36742   5.869   9.642  14.299
11637SOL    HW136743   5.775   9.621  14.301
11637SOL    HW236744   5.883   9.680  14.212
11638SOL     OW36745   5.871   8.782   8.481
11638SOL    HW136746   5.868   8.870   8.443
11638SOL    HW236747   5.850   8.795   8.574
11639SOL     OW36748   0.401  10.656  10.027
11639SOL    HW136749   0.450  10.592  10.079
11639SOL    HW236750   0.367  10.606   9.953
11640SOL     OW36751   8.725   8.633   4.365
11640SOL    HW136752   8.629   8.637   4.368
11640SOL    HW236753   8.754   8.679   4.443
11641SOL     OW36754   7.791   8.499   2.349
11641SOL    HW136755   7.884   8.481   2.366
11641SOL    HW236756   7.758   8.419   2.307
11642SOL     OW36757   9.264   6.232   3.264
11642SOL    HW136758   9.253   6.327   3.271
11642SOL    HW236759   9.264   6.214   3.170
11643SOL     OW36760   3.353   6.779  14.170
11643SOL    HW136761   3.310   6.819  14.095
11643SOL    HW236762   3.286   6.722  14.209
11644SOL     OW36763   5.453   9.980   2.526
11644SOL    HW136764   5.456   9.924   2.448
11644SOL    HW236765   5.374  10.033   2.515
11645SOL     OW36766   7.274   2.560   1.297
11645SOL    HW136767   7.211   2.488   1.307
11645SOL    HW236768   7.301   2.554   1.205
11646SOL     OW36769   2.438   2.083   8.704
11646SOL    HW136770   2.451   2.175   8.724
11646SOL    HW236771   2.422   2.042   8.789
11647SOL     OW36772   9.238  13.845  10.205
11647SOL    HW136773   9.224  13.778  10.138
11647SOL    HW236774   9.230  13.798  10.288
11648SOL     OW36775   1.902   3.492   6.923
11648SOL    HW136776   1.982   3.513   6.972
11648SOL    HW236777   1.866   3.578   6.900
11649SOL     OW36778   5.443   9.574   9.425
11649SOL    HW136779   5.489   9.520   9.361
11649SOL    HW236780   5.470   9.541   9.510
11650SOL     OW36781   8.557   1.036   4.081
11650SOL    HW136782   8.592   1.106   4.136
11650SOL    HW236783   8.494   0.990   4.137
11651SOL     OW36784  12.624   7.987   5.594
11651SOL    HW136785  12.575   7.913   5.558
11651SOL    HW236786  12.703   7.992   5.539
11652SOL     OW36787   8.290   7.990   8.052
11652SOL    HW136788   8.260   7.912   8.006
11652SOL    HW236789   8.376   8.009   8.014
11653SOL     OW36790   1.447   2.213  11.982
11653SOL    HW136791   1.385   2.275  11.945
11653SOL    HW236792   1.527   2.264  11.998
11654SOL     OW36793  11.499   3.625   0.124
11654SOL    HW136794  11.474   3.635   0.216
11654SOL    HW236795  11.575   3.684   0.114
11655SOL     OW36796  10.260   7.765  11.214
11655SOL    HW136797  10.278   7.687  11.265
11655SOL    HW236798  10.211   7.822  11.274
11656SOL     OW36799   5.520   3.109   7.781
11656SOL    HW136800   5.435   3.151   7.788
11656SOL    HW236801   5.512   3.051   7.705
11657SOL     OW36802   7.930   6.496   4.328
11657SOL    HW136803   7.988   6.456   4.394
11657SOL    HW236804   7.963   6.585   4.319
11658SOL     OW36805   4.277   8.035   5.722
11658SOL    HW136806   4.338   8.020   5.650
11658SOL    HW236807   4.231   8.116   5.698
11659SOL     OW36808   4.135   2.478   9.134
11659SOL    HW136809   4.215   2.515   9.099
11659SOL    HW236810   4.085   2.553   9.167
11660SOL     OW36811  12.531   8.241   5.930
11660SOL    HW136812  12.498   8.289   5.853
11660SOL    HW236813  12.593   8.303   5.971
11661SOL     OW36814   5.640   5.453  12.042
11661SOL    HW136815   5.620   5.542  12.015
11661SOL    HW236816   5.734   5.452  12.057
11662SOL     OW36817  12.213   3.204   5.870
11662SOL    HW136818  12.179   3.126   5.915
11662SOL    HW236819  12.180   3.197   5.781
11663SOL     OW36820   7.215  13.543   0.980
11663SOL    HW136821   7.223  13.506   0.892
11663SOL    HW236822   7.121  13.542   0.998
11664SOL     OW36823   6.190   3.943  14.470
11664SOL    HW136824   6.284   3.941  14.489
11664SOL    HW236825   6.150   3.971  14.553
11665SOL     OW36826  13.114  12.295   3.127
11665SOL    HW136827  13.193  12.269   3.175
11665SOL    HW236828  13.050  12.228   3.148
11666SOL     OW36829  10.661   7.504  10.448
11666SOL    HW136830  10.659   7.409  10.458
11666SOL    HW236831  10.741   7.532  10.492
11667SOL     OW36832   0.961   9.576   8.448
11667SOL    HW136833   0.916   9.655   8.416
11667SOL    HW236834   0.890   9.519   8.479
11668SOL     OW36835  11.353   1.884   9.150
11668SOL    HW136836  11.356   1.828   9.073
11668SOL    HW236837  11.324   1.969   9.116
11669SOL     OW36838   8.618   6.651   0.148
11669SOL    HW136839   8.657   6.704   0.217
11669SOL    HW236840   8.528   6.683   0.142
11670SOL     OW36841  12.851   9.680   6.683
11670SOL    HW136842  12.781   9.677   6.749
11670SOL    HW236843  12.816   9.737   6.614
11671SOL     OW36844   7.317   1.041   5.496
11671SOL    HW136845   7.267   1.110   5.541
11671SOL    HW236846   7.404   1.079   5.484
11672SOL     OW36847  11.246   9.492  14.008
11672SOL    HW136848  11.276   9.463  13.922
11672SOL    HW236849  11.312   9.556  14.036
11673SOL     OW36850  10.587   8.819  11.521
11673SOL    HW136851  10.559   8.911  11.524
11673SOL    HW236852  10.539   8.782  11.447
11674SOL     OW36853   1.404  11.458  12.371
11674SOL    HW136854   1.474  11.523  12.368
11674SOL    HW236855   1.446  11.375  12.348
11675SOL     OW36856  12.187  13.758   3.336
11675SOL    HW136857  12.234  13.815   3.274
11675SOL    HW236858  12.155  13.819   3.403
11676SOL     OW36859   4.837  14.299  12.986
11676SOL    HW136860   4.821  14.325  12.895
11676SOL    HW236861   4.793  14.365  13.038
11677SOL     OW36862  14.662   7.865   0.738
11677SOL    HW136863  14.724   7.794   0.724
11677SOL    HW236864  14.674   7.923   0.663
11678SOL     OW36865  11.055  14.103   9.375
11678SOL    HW136866  11.146  14.121   9.350
11678SOL    HW236867  11.055  14.110   9.471
11679SOL     OW36868   6.675   8.399   8.154
11679SOL    HW136869   6.634   8.357   8.229
11679SOL    HW236870   6.615   8.469   8.129
11680SOL     OW36871  11.703  12.251   8.692
11680SOL    HW136872  11.625  12.296   8.659
11680SOL    HW236873  11.751  12.225   8.614
11681SOL     OW36874  11.044  10.917  10.331
11681SOL    HW136875  10.956  10.933  10.298
11681SOL    HW236876  11.074  11.003  10.360
11682SOL     OW36877   4.101   4.654   9.947
11682SOL    HW136878   4.150   4.577   9.917
11682SOL    HW236879   4.051   4.682   9.870
11683SOL     OW36880   1.018   8.906  10.347
11683SOL    HW136881   1.096   8.958  10.366
11683SOL    HW236882   0.953   8.934  10.411
11684SOL     OW36883   1.328   3.720  14.012
11684SOL    HW136884   1.283   3.636  14.024
11684SOL    HW236885   1.289   3.756  13.932
11685SOL     OW36886   1.166   4.912  11.696
11685SOL    HW136887   1.209   4.978  11.641
11685SOL    HW236888   1.231   4.891  11.762
11686SOL     OW36889   9.320   4.528   9.338
11686SOL    HW136890   9.297   4.435   9.326
11686SOL    HW236891   9.242   4.567   9.377
11687SOL     OW36892   0.051   9.192  14.249
11687SOL    HW136893   0.093   9.260  14.303
11687SOL    HW236894   0.011   9.240  14.176
11688SOL     OW36895   8.980  11.934   7.535
11688SOL    HW136896   8.963  12.003   7.472
11688SOL    HW236897   9.035  11.872   7.488
11689SOL     OW36898  13.205   2.124  14.452
11689SOL    HW136899  13.268   2.086  14.514
11689SOL    HW236900  13.139   2.165  14.508
11690SOL     OW36901   1.529   9.502   1.686
11690SOL    HW136902   1.499   9.492   1.595
11690SOL    HW236903   1.471   9.569   1.722
11691SOL     OW36904   4.027   7.263  10.960
11691SOL    HW136905   4.022   7.233  10.869
11691SOL    HW236906   3.950   7.319  10.971
11692SOL     OW36907   6.234   4.938   4.814
11692SOL    HW136908   6.232   5.002   4.885
11692SOL    HW236909   6.243   4.990   4.735
11693SOL     OW36910  12.945  11.732   7.396
11693SOL    HW136911  12.953  11.824   7.420
11693SOL    HW236912  13.013  11.688   7.446
11694SOL     OW36913   6.107  12.342  11.396
11694SOL    HW136914   6.070  12.393  11.469
11694SOL    HW236915   6.117  12.405  11.325
11695SOL     OW36916  14.329  10.086   2.046
11695SOL    HW136917  14.383  10.047   2.115
11695SOL    HW236918  14.316  10.176   2.074
11696SOL     OW36919   4.328   7.295  12.876
11696SOL    HW136920   4.408   7.324  12.833
11696SOL    HW236921   4.317   7.204  12.847
11697SOL     OW36922   8.447   3.085   2.249
11697SOL    HW136923   8.495   3.047   2.175
11697SOL    HW236924   8.445   3.179   2.231
11698SOL     OW36925   0.621   4.945   2.755
11698SOL    HW136926   0.650   5.006   2.822
11698SOL    HW236927   0.692   4.943   2.691
11699SOL     OW36928   2.391   2.025  13.347
11699SOL    HW136929   2.432   1.979  13.274
11699SOL    HW236930   2.311   1.976  13.365
11700SOL     OW36931  14.350   0.959  10.693
11700SOL    HW136932  14.288   0.962  10.766
11700SOL    HW236933  14.433   0.935  10.734
11701SOL     OW36934  14.382   0.139   1.813
11701SOL    HW136935  14.340   0.054   1.818
11701SOL    HW236936  14.375   0.175   1.902
11702SOL     OW36937   0.321   0.008  14.824
11702SOL    HW136938   0.275   0.088  14.799
11702SOL    HW236939   0.360   0.028   0.036
11703SOL     OW36940   5.674   9.998  14.438
11703SOL    HW136941   5.756  10.035  14.405
11703SOL    HW236942   5.615  10.001  14.363
11704SOL     OW36943   4.719   6.510  11.837
11704SOL    HW136944   4.704   6.452  11.762
11704SOL    HW236945   4.797   6.559  11.813
11705SOL     OW36946   3.361  13.776  12.478
11705SOL    HW136947   3.405  13.813  12.554
11705SOL    HW236948   3.409  13.812  12.403
11706SOL     OW36949   8.908  14.242   7.826
11706SOL    HW136950   8.873  14.249   7.915
11706SOL    HW236951   8.843  14.189   7.779
11707SOL     OW36952   2.313  10.061  13.287
11707SOL    HW136953   2.252  10.091  13.219
11707SOL    HW236954   2.373  10.002  13.241
11708SOL     OW36955  14.614  10.208   5.588
11708SOL    HW136956  14.668  10.132   5.612
11708SOL    HW236957  14.557  10.176   5.518
11709SOL     OW36958  13.720   5.978   7.760
11709SOL    HW136959  13.765   5.989   7.844
11709SOL    HW236960  13.788   5.994   7.694
11710SOL     OW36961   4.108  11.781   4.974
11710SOL    HW136962   4.143  11.715   4.915
11710SOL    HW236963   4.156  11.769   5.056
11711SOL     OW36964  10.663   9.075   6.885
11711SOL    HW136965  10.588   9.130   6.862
11711SOL    HW236966  10.626   8.989   6.903
11712SOL     OW36967  10.766  12.634  11.913
11712SOL    HW136968  10.712  12.579  11.970
11712SOL    HW236969  10.847  12.584  11.903
11713SOL     OW36970   9.943   1.389  11.871
11713SOL    HW136971  10.032   1.355  11.877
11713SOL    HW236972   9.953   1.478  11.836
11714SOL     OW36973  10.718  10.502  13.601
11714SOL    HW136974  10.705  10.415  13.640
11714SOL    HW236975  10.809  10.524  13.621
11715SOL     OW36976  13.674   4.678   1.740
11715SOL    HW136977  13.587   4.694   1.776
11715SOL    HW236978  13.728   4.747   1.776
11716SOL     OW36979  13.162   3.686   3.622
11716SOL    HW136980  13.219   3.718   3.552
11716SOL    HW236981  13.077   3.725   3.604
11717SOL     OW36982  12.678   5.100   7.294
11717SOL    HW136983  12.599   5.059   7.259
11717SOL    HW236984  12.646   5.168   7.354
11718SOL     OW36985   6.489  14.579   5.520
11718SOL    HW136986   6.517  14.658   5.472
11718SOL    HW236987   6.462  14.518   5.451
11719SOL     OW36988   1.827  12.955   5.887
11719SOL    HW136989   1.837  13.049   5.875
11719SOL    HW236990   1.736  12.944   5.915
11720SOL     OW36991  13.258   7.159   3.297
11720SOL    HW136992  13.347   7.133   3.273
11720SOL    HW236993  13.203   7.086   3.267
11721SOL     OW36994   6.324   4.322   0.508
11721SOL    HW136995   6.395   4.385   0.494
11721SOL    HW236996   6.368   4.245   0.544
11722SOL     OW36997  14.616   9.421   1.314
11722SOL    HW136998  14.671   9.355   1.356
11722SOL    HW236999  14.676   9.471   1.258
11723SOL     OW37000   0.844   7.866   9.631
11723SOL    HW137001   0.873   7.808   9.561
11723SOL    HW237002   0.751   7.877   9.616
11724SOL     OW37003   9.468   5.910   6.718
11724SOL    HW137004   9.523   5.910   6.639
11724SOL    HW237005   9.400   5.846   6.700
11725SOL     OW37006   8.412  12.980  12.458
11725SOL    HW137007   8.472  12.955  12.529
11725SOL    HW237008   8.370  13.060  12.489
11726SOL     OW37009   4.583   8.037   7.636
11726SOL    HW137010   4.637   7.960   7.617
11726SOL    HW237011   4.543   8.060   7.552
11727SOL     OW37012   4.142   7.058   7.568
11727SOL    HW137013   4.150   6.990   7.635
11727SOL    HW237014   4.120   7.010   7.488
11728SOL     OW37015   9.773  11.018   7.944
11728SOL    HW137016   9.748  11.053   8.029
11728SOL    HW237017   9.816  10.935   7.963
11729SOL     OW37018   4.764   3.454   6.991
11729SOL    HW137019   4.693   3.519   6.993
11729SOL    HW237020   4.837   3.500   6.949
11730SOL     OW37021   7.214   1.885   2.213
11730SOL    HW137022   7.158   1.807   2.212
11730SOL    HW237023   7.234   1.899   2.305
11731SOL     OW37024  11.546   1.320   4.316
11731SOL    HW137025  11.499   1.282   4.390
11731SOL    HW237026  11.636   1.330   4.347
11732SOL     OW37027   6.135  10.657   4.591
11732SOL    HW137028   6.140  10.685   4.683
11732SOL    HW237029   6.184  10.575   4.588
11733SOL     OW37030   8.781  14.033  12.803
11733SOL    HW137031   8.827  14.004  12.724
11733SOL    HW237032   8.737  13.954  12.835
11734SOL     OW37033  12.860   7.961  10.923
11734SOL    HW137034  12.818   7.897  10.866
11734SOL    HW237035  12.813   8.043  10.906
11735SOL     OW37036   0.040  11.440   4.845
11735SOL    HW137037   0.000  11.476   4.924
11735SOL    HW237038   0.127  11.480   4.842
11736SOL     OW37039   3.927   9.202   6.094
11736SOL    HW137040   3.884   9.223   6.010
11736SOL    HW237041   3.855   9.201   6.157
11737SOL     OW37042  11.810  11.353   1.014
11737SOL    HW137043  11.769  11.416   0.955
11737SOL    HW237044  11.834  11.405   1.091
11738SOL     OW37045   8.976   4.741  11.880
11738SOL    HW137046   9.072   4.736  11.888
11738SOL    HW237047   8.945   4.747  11.970
11739SOL     OW37048   0.307   1.261   0.268
11739SOL    HW137049   0.278   1.208   0.193
11739SOL    HW237050   0.329   1.197   0.335
11740SOL     OW37051   6.135   6.700   2.962
11740SOL    HW137052   6.109   6.757   3.034
11740SOL    HW237053   6.209   6.650   2.997
11741SOL     OW37054   9.619  14.726   7.352
11741SOL    HW137055   9.628  14.814   7.387
11741SOL    HW237056   9.698  14.680   7.381
11742SOL     OW37057   1.302   0.128   1.332
11742SOL    HW137058   1.344   0.201   1.378
11742SOL    HW237059   1.374   0.082   1.289
11743SOL     OW37060  13.875   5.227   1.599
11743SOL    HW137061  13.789   5.268   1.600
11743SOL    HW237062  13.900   5.220   1.692
11744SOL     OW37063   5.642   6.061   0.226
11744SOL    HW137064   5.642   6.051   0.321
11744SOL    HW237065   5.722   6.017   0.197
11745SOL     OW37066   7.403  10.006   8.857
11745SOL    HW137067   7.475   9.944   8.866
11745SOL    HW237068   7.440  10.090   8.886
11746SOL     OW37069   0.405  13.420  11.315
11746SOL    HW137070   0.393  13.341  11.262
11746SOL    HW237071   0.335  13.417  11.380
11747SOL     OW37072   4.744   6.851   1.868
11747SOL    HW137073   4.803   6.913   1.825
11747SOL    HW237074   4.713   6.898   1.945
11748SOL     OW37075   8.546  13.008  13.488
11748SOL    HW137076   8.478  12.975  13.546
11748SOL    HW237077   8.590  13.077  13.539
11749SOL     OW37078   2.538   7.103   6.321
11749SOL    HW137079   2.516   7.057   6.401
11749SOL    HW237080   2.489   7.185   6.326
11750SOL     OW37081   0.983  14.798   9.713
11750SOL    HW137082   0.975   0.016   9.681
11750SOL    HW237083   1.076  14.777   9.704
11751SOL     OW37084   5.451  13.006  12.971
11751SOL    HW137085   5.430  12.913  12.977
11751SOL    HW237086   5.372  13.050  13.004
11752SOL     OW37087   3.363   7.078   3.155
11752SOL    HW137088   3.448   7.069   3.111
11752SOL    HW237089   3.299   7.048   3.090
11753SOL     OW37090   7.059   8.946  11.755
11753SOL    HW137091   7.034   8.908  11.839
11753SOL    HW237092   6.987   9.006  11.734
11754SOL     OW37093   0.023   3.414   6.161
11754SOL    HW137094  14.806   3.425   6.195
11754SOL    HW237095   0.011   3.406   6.067
11755SOL     OW37096   0.864   2.482   2.605
11755SOL    HW137097   0.805   2.463   2.677
11755SOL    HW237098   0.919   2.404   2.598
11756SOL     OW37099   4.586   8.482   4.995
11756SOL    HW137100   4.638   8.538   4.937
11756SOL    HW237101   4.495   8.507   4.978
11757SOL     OW37102   8.074   9.600  10.524
11757SOL    HW137103   8.052   9.536  10.591
11757SOL    HW237104   7.996   9.656  10.518
11758SOL     OW37105   4.830  13.176   3.862
11758SOL    HW137106   4.781  13.096   3.844
11758SOL    HW237107   4.782  13.218   3.933
11759SOL     OW37108   2.560  10.010   5.812
11759SOL    HW137109   2.651  10.035   5.829
11759SOL    HW237110   2.521  10.088   5.773
11760SOL     OW37111  13.656   5.258   2.334
11760SOL    HW137112  13.693   5.327   2.278
11760SOL    HW237113  13.587   5.302   2.383
11761SOL     OW37114   4.622   0.099   3.600
11761SOL    HW137115   4.582   0.134   3.520
11761SOL    HW237116   4.684   0.167   3.627
11762SOL     OW37117   6.012   9.281  12.145
11762SOL    HW137118   6.012   9.240  12.059
11762SOL    HW237119   6.024   9.209  12.207
11763SOL     OW37120   1.833   9.063   6.694
11763SOL    HW137121   1.807   9.136   6.638
11763SOL    HW237122   1.921   9.040   6.664
11764SOL     OW37123   8.429   5.444   4.404
11764SOL    HW137124   8.422   5.452   4.499
11764SOL    HW237125   8.423   5.534   4.372
11765SOL     OW37126   2.735  10.058   6.543
11765SOL    HW137127   2.688  10.001   6.483
11765SOL    HW237128   2.820  10.015   6.554
11766SOL     OW37129  14.809  11.100  14.470
11766SOL    HW137130  14.825  11.018  14.516
11766SOL    HW237131  14.847  11.086  14.383
11767SOL     OW37132  12.141   4.138   7.175
11767SOL    HW137133  12.111   4.076   7.109
11767SOL    HW237134  12.126   4.224   7.136
11768SOL     OW37135  11.823  11.304  12.956
11768SOL    HW137136  11.815  11.351  12.873
11768SOL    HW237137  11.906  11.335  12.993
11769SOL     OW37138   4.788  14.216  12.307
11769SOL    HW137139   4.873  14.214  12.352
11769SOL    HW237140   4.810  14.202  12.215
11770SOL     OW37141   7.947   2.891  14.700
11770SOL    HW137142   7.975   2.822  14.640
11770SOL    HW237143   7.856   2.908  14.676
11771SOL     OW37144   3.549   0.820   7.275
11771SOL    HW137145   3.602   0.781   7.205
11771SOL    HW237146   3.610   0.832   7.347
11772SOL     OW37147   2.429   8.290   2.635
11772SOL    HW137148   2.465   8.378   2.645
11772SOL    HW237149   2.454   8.265   2.546
11773SOL     OW37150  10.400   3.843   0.255
11773SOL    HW137151  10.465   3.853   0.326
11773SOL    HW237152  10.427   3.907   0.189
11774SOL     OW37153   0.417   4.290   4.034
11774SOL    HW137154   0.381   4.370   4.072
11774SOL    HW237155   0.509   4.291   4.062
11775SOL     OW37156  10.615  10.646   9.678
11775SOL    HW137157  10.656  10.649   9.591
11775SOL    HW237158  10.683  10.612   9.736
11776SOL     OW37159   5.076   7.331   5.514
11776SOL    HW137160   4.990   7.365   5.541
11776SOL    HW237161   5.133   7.408   5.512
11777SOL     OW37162   8.323   2.903  11.956
11777SOL    HW137163   8.337   2.938  12.044
11777SOL    HW237164   8.353   2.973  11.898
11778SOL     OW37165   9.816   2.851  10.154
11778SOL    HW137166   9.835   2.788  10.224
11778SOL    HW237167   9.722   2.845  10.141
11779SOL     OW37168   0.276   6.423   2.628
11779SOL    HW137169   0.298   6.441   2.537
11779SOL    HW237170   0.361   6.408   2.671
11780SOL     OW37171   6.024   9.837  10.588
11780SOL    HW137172   6.108   9.872  10.617
11780SOL    HW237173   6.047   9.762  10.533
11781SOL     OW37174  11.963   3.225   9.667
11781SOL    HW137175  11.918   3.309   9.665
11781SOL    HW237176  11.910   3.167   9.613
11782SOL     OW37177   2.649  13.931   0.870
11782SOL    HW137178   2.640  13.934   0.775
11782SOL    HW237179   2.643  13.838   0.892
11783SOL     OW37180  13.199  12.996  11.899
11783SOL    HW137181  13.241  12.977  11.816
11783SOL    HW237182  13.151  13.078  11.885
11784SOL     OW37183   4.437   3.518  13.577
11784SOL    HW137184   4.486   3.542  13.655
11784SOL    HW237185   4.347   3.507  13.608
11785SOL     OW37186   2.237   6.084   2.891
11785SOL    HW137187   2.145   6.078   2.918
11785SOL    HW237188   2.279   6.007   2.929
11786SOL     OW37189   2.770   1.101  12.053
11786SOL    HW137190   2.762   1.195  12.036
11786SOL    HW237191   2.711   1.060  11.989
11787SOL     OW37192   2.828   1.376   6.800
11787SOL    HW137193   2.885   1.317   6.849
11787SOL    HW237194   2.834   1.460   6.846
11788SOL     OW37195   9.958   5.646   8.745
11788SOL    HW137196   9.925   5.558   8.729
11788SOL    HW237197   9.893   5.686   8.802
11789SOL     OW37198   2.846   4.244   3.135
11789SOL    HW137199   2.831   4.204   3.220
11789SOL    HW237200   2.887   4.174   3.083
11790SOL     OW37201  10.718   8.105   6.498
11790SOL    HW137202  10.812   8.094   6.507
11790SOL    HW237203  10.690   8.145   6.580
11791SOL     OW37204   2.789   1.676   2.353
11791SOL    HW137205   2.884   1.678   2.360
11791SOL    HW237206   2.772   1.675   2.259
11792SOL     OW37207  14.382   7.733  12.900
11792SOL    HW137208  14.293   7.712  12.871
11792SOL    HW237209  14.370   7.784  12.980
11793SOL     OW37210   4.116   2.592   2.916
11793SOL    HW137211   4.050   2.659   2.895
11793SOL    HW237212   4.091   2.562   3.003
11794SOL     OW37213   9.056   9.159   1.081
11794SOL    HW137214   8.988   9.139   1.146
11794SOL    HW237215   9.110   9.227   1.123
11795SOL     OW37216   4.834   0.276  14.806
11795SOL    HW137217   4.873   0.256  14.721
11795SOL    HW237218   4.893   0.341  14.844
11796SOL     OW37219   8.600  11.937   4.972
11796SOL    HW137220   8.508  11.961   4.983
11796SOL    HW237221   8.646  12.022   4.968
11797SOL     OW37222   2.462   0.284   5.358
11797SOL    HW137223   2.385   0.255   5.309
11797SOL    HW237224   2.431   0.296   5.448
11798SOL     OW37225   8.742   2.517   2.037
11798SOL    HW137226   8.831   2.550   2.023
11798SOL    HW237227   8.729   2.521   2.132
11799SOL     OW37228  10.724   2.427   3.471
11799SOL    HW137229  10.807   2.448   3.515
11799SOL    HW237230  10.747   2.420   3.378
11800SOL     OW37231   6.940   3.163  14.016
11800SOL    HW137232   6.935   3.075  13.977
11800SOL    HW237233   7.010   3.206  13.967
11801SOL     OW37234   2.731  14.047   7.033
11801SOL    HW137235   2.770  14.006   7.110
11801SOL    HW237236   2.756  13.990   6.960
11802SOL     OW37237   1.938   4.860   9.915
11802SOL    HW137238   1.847   4.862   9.944
11802SOL    HW237239   1.985   4.814   9.985
11803SOL     OW37240   3.146   6.591  14.548
11803SOL    HW137241   3.102   6.652  14.607
11803SOL    HW237242   3.237   6.621  14.546
11804SOL     OW37243  13.767   8.073   6.484
11804SOL    HW137244  13.746   8.003   6.422
11804SOL    HW237245  13.814   8.028   6.555
11805SOL     OW37246  10.819   3.095  12.065
11805SOL    HW137247  10.873   3.131  11.994
11805SOL    HW237248  10.860   3.012  12.088
11806SOL     OW37249  12.183   5.023   3.851
11806SOL    HW137250  12.140   4.948   3.891
11806SOL    HW237251  12.198   5.084   3.923
11807SOL     OW37252   4.582  13.246   5.812
11807SOL    HW137253   4.533  13.323   5.843
11807SOL    HW237254   4.645  13.282   5.749
11808SOL     OW37255   8.839   6.839   7.958
11808SOL    HW137256   8.786   6.808   7.885
11808SOL    HW237257   8.897   6.766   7.979
11809SOL     OW37258   0.900   8.288   1.508
11809SOL    HW137259   0.896   8.215   1.569
11809SOL    HW237260   0.825   8.344   1.531
11810SOL     OW37261   5.547  14.781   0.812
11810SOL    HW137262   5.579  14.705   0.861
11810SOL    HW237263   5.484  14.822   0.871
11811SOL     OW37264  11.041  10.632   3.723
11811SOL    HW137265  11.024  10.637   3.629
11811SOL    HW237266  10.956  10.610   3.761
11812SOL     OW37267   0.662   7.555  13.694
11812SOL    HW137268   0.656   7.642  13.656
11812SOL    HW237269   0.755   7.533  13.691
11813SOL     OW37270   4.817   4.347   2.886
11813SOL    HW137271   4.874   4.294   2.943
11813SOL    HW237272   4.776   4.409   2.945
11814SOL     OW37273  14.033   3.714   7.087
11814SOL    HW137274  13.963   3.747   7.030
11814SOL    HW237275  14.071   3.792   7.127
11815SOL     OW37276   9.733  14.299  13.807
11815SOL    HW137277   9.679  14.246  13.865
11815SOL    HW237278   9.681  14.310  13.728
11816SOL     OW37279   0.046   4.127   5.031
11816SOL    HW137280   0.062   4.049   5.084
11816SOL    HW237281  14.848   4.174   5.076
11817SOL     OW37282   8.271  13.678   1.234
11817SOL    HW137283   8.331  13.720   1.172
11817SOL    HW237284   8.207  13.747   1.255
11818SOL     OW37285   0.473   5.539   1.501
11818SOL    HW137286   0.547   5.582   1.543
11818SOL    HW237287   0.407   5.607   1.490
11819SOL     OW37288   8.802   5.497   9.260
11819SOL    HW137289   8.860   5.505   9.336
11819SOL    HW237290   8.835   5.562   9.198
11820SOL     OW37291   3.261   9.319   3.350
11820SOL    HW137292   3.213   9.330   3.432
11820SOL    HW237293   3.277   9.408   3.318
11821SOL     OW37294  14.276  12.133   4.915
11821SOL    HW137295  14.283  12.168   4.826
11821SOL    HW237296  14.194  12.083   4.914
11822SOL     OW37297   7.965  12.054   8.079
11822SOL    HW137298   8.009  11.971   8.096
11822SOL    HW237299   7.900  12.062   8.149
11823SOL     OW37300  13.747   9.548  11.232
11823SOL    HW137301  13.800   9.473  11.203
11823SOL    HW237302  13.794   9.582  11.309
11824SOL     OW37303   9.691   4.282  13.169
11824SOL    HW137304   9.762   4.336  13.133
11824SOL    HW237305   9.734   4.203  13.202
11825SOL     OW37306   3.701   7.185  10.643
11825SOL    HW137307   3.650   7.107  10.621
11825SOL    HW237308   3.669   7.252  10.582
11826SOL     OW37309  10.013   9.049   7.724
11826SOL    HW137310  10.080   8.982   7.727
11826SOL    HW237311  10.041   9.110   7.656
11827SOL     OW37312   3.676   4.344  12.332
11827SOL    HW137313   3.619   4.385  12.267
11827SOL    HW237314   3.753   4.316  12.282
11828SOL     OW37315   3.835   3.678   8.957
11828SOL    HW137316   3.876   3.735   9.021
11828SOL    HW237317   3.758   3.728   8.927
11829SOL     OW37318   1.360   6.584  13.106
11829SOL    HW137319   1.442   6.622  13.137
11829SOL    HW237320   1.373   6.490  13.112
11830SOL     OW37321  10.404   8.677   3.434
11830SOL    HW137322  10.342   8.604   3.439
11830SOL    HW237323  10.353   8.754   3.461
11831SOL     OW37324   7.971  12.205  10.197
11831SOL    HW137325   8.058  12.173  10.173
11831SOL    HW237326   7.917  12.126  10.202
11832SOL     OW37327   3.606   6.630   7.922
11832SOL    HW137328   3.530   6.675   7.886
11832SOL    HW237329   3.636   6.573   7.851
11833SOL     OW37330   2.191   9.561   2.990
11833SOL    HW137331   2.161   9.647   3.018
11833SOL    HW237332   2.113   9.521   2.951
11834SOL     OW37333   9.497   5.553   5.132
11834SOL    HW137334   9.520   5.490   5.064
11834SOL    HW237335   9.550   5.527   5.207
11835SOL     OW37336   0.346   0.457   4.935
11835SOL    HW137337   0.401   0.534   4.949
11835SOL    HW237338   0.402   0.396   4.886
11836SOL     OW37339   6.202   2.447   7.519
11836SOL    HW137340   6.233   2.522   7.569
11836SOL    HW237341   6.151   2.395   7.581
11837SOL     OW37342   3.696   8.771   2.555
11837SOL    HW137343   3.707   8.757   2.649
11837SOL    HW237344   3.633   8.843   2.549
11838SOL     OW37345  13.283  13.963  11.219
11838SOL    HW137346  13.321  13.927  11.138
11838SOL    HW237347  13.193  13.983  11.196
11839SOL     OW37348   6.026   5.706   3.402
11839SOL    HW137349   6.057   5.796   3.411
11839SOL    HW237350   5.986   5.686   3.487
11840SOL     OW37351   1.509   2.892   9.497
11840SOL    HW137352   1.519   2.870   9.405
11840SOL    HW237353   1.436   2.836   9.527
11841SOL     OW37354   1.464   5.078   1.304
11841SOL    HW137355   1.452   5.173   1.298
11841SOL    HW237356   1.379   5.041   1.279
11842SOL     OW37357  14.528   6.039   4.246
11842SOL    HW137358  14.578   5.969   4.204
11842SOL    HW237359  14.563   6.120   4.209
11843SOL     OW37360   2.311  10.115  12.841
11843SOL    HW137361   2.394  10.118  12.889
11843SOL    HW237362   2.253  10.063  12.897
11844SOL     OW37363   7.245   6.116   5.485
11844SOL    HW137364   7.225   6.096   5.393
11844SOL    HW237365   7.235   6.211   5.491
11845SOL     OW37366   5.172   8.170  11.556
11845SOL    HW137367   5.122   8.169  11.474
11845SOL    HW237368   5.119   8.117  11.616
11846SOL     OW37369   2.371   1.302  12.371
11846SOL    HW137370   2.384   1.308  12.466
11846SOL    HW237371   2.427   1.229  12.344
11847SOL     OW37372   7.821  14.619  14.286
11847SOL    HW137373   7.845  14.635  14.195
11847SOL    HW237374   7.862  14.536  14.308
11848SOL     OW37375   4.364   5.018   5.971
11848SOL    HW137376   4.371   5.068   6.052
11848SOL    HW237377   4.379   5.082   5.902
11849SOL     OW37378  12.001  10.652   3.712
11849SOL    HW137379  11.966  10.579   3.763
11849SOL    HW237380  12.007  10.619   3.623
11850SOL     OW37381   8.565   3.505   3.838
11850SOL    HW137382   8.477   3.482   3.807
11850SOL    HW237383   8.569   3.469   3.927
11851SOL     OW37384  14.094  12.998  13.609
11851SOL    HW137385  14.008  12.988  13.569
11851SOL    HW237386  14.077  13.003  13.703
11852SOL     OW37387  10.277  14.814   4.435
11852SOL    HW137388  10.370  14.796   4.420
11852SOL    HW237389  10.276   0.019   4.492
11853SOL     OW37390  11.271   1.089   9.190
11853SOL    HW137391  11.366   1.080   9.197
11853SOL    HW237392  11.257   1.170   9.141
11854SOL     OW37393   5.889  14.646   9.082
11854SOL    HW137394   5.953  14.659   9.013
11854SOL    HW237395   5.805  14.674   9.044
11855SOL     OW37396   7.158   8.738   4.780
11855SOL    HW137397   7.233   8.790   4.811
11855SOL    HW237398   7.196   8.656   4.749
11856SOL     OW37399   9.831   9.692  14.005
11856SOL    HW137400   9.789   9.681  14.090
11856SOL    HW237401   9.925   9.695  14.025
11857SOL     OW37402   9.518   2.532  12.227
11857SOL    HW137403   9.482   2.571  12.147
11857SOL    HW237404   9.558   2.450  12.198
11858SOL     OW37405  13.493   7.369   2.227
11858SOL    HW137406  13.485   7.463   2.214
11858SOL    HW237407  13.457   7.354   2.315
11859SOL     OW37408   3.421   9.767   2.211
11859SOL    HW137409   3.351   9.770   2.145
11859SOL    HW237410   3.463   9.852   2.205
11860SOL     OW37411  12.561   2.200   1.043
11860SOL    HW137412  12.555   2.174   1.135
11860SOL    HW237413  12.633   2.264   1.041
11861SOL     OW37414  14.872  10.479   8.861
11861SOL    HW137415   0.095  10.476   8.855
11861SOL    HW237416  14.850  10.413   8.927
11862SOL     OW37417  12.140  14.520  12.652
11862SOL    HW137418  12.173  14.477  12.731
11862SOL    HW237419  12.067  14.574  12.683
11863SOL     OW37420  10.522  12.030   3.268
11863SOL    HW137421  10.494  11.940   3.252
11863SOL    HW237422  10.601  12.021   3.321
11864SOL     OW37423   2.185   5.867  10.269
11864SOL    HW137424   2.218   5.906  10.188
11864SOL    HW237425   2.090   5.866  10.259
11865SOL     OW37426   6.232  14.833   1.723
11865SOL    HW137427   6.198  14.786   1.646
11865SOL    HW237428   6.321  14.857   1.699
11866SOL     OW37429  10.248  14.136   6.514
11866SOL    HW137430  10.213  14.224   6.501
11866SOL    HW237431  10.313  14.146   6.584
11867SOL     OW37432   1.372   8.086   9.332
11867SOL    HW137433   1.468   8.080   9.331
11867SOL    HW237434   1.352   8.159   9.274
11868SOL     OW37435   5.339   3.174   8.156
11868SOL    HW137436   5.359   3.094   8.108
11868SOL    HW237437   5.370   3.245   8.099
11869SOL     OW37438  10.073   0.831   7.262
11869SOL    HW137439   9.981   0.813   7.243
11869SOL    HW237440  10.120   0.798   7.185
11870SOL     OW37441   4.221  10.563  13.558
11870SOL    HW137442   4.316  10.558  13.550
11870SOL    HW237443   4.191  10.473  13.548
11871SOL     OW37444   6.730  11.984   4.758
11871SOL    HW137445   6.666  12.055   4.756
11871SOL    HW237446   6.811  12.023   4.726
11872SOL     OW37447   1.420   9.627   7.864
11872SOL    HW137448   1.402   9.642   7.956
11872SOL    HW237449   1.466   9.543   7.861
11873SOL     OW37450  10.600   7.369   4.454
11873SOL    HW137451  10.612   7.359   4.549
11873SOL    HW237452  10.510   7.342   4.438
11874SOL     OW37453   7.480  11.812   4.502
11874SOL    HW137454   7.569  11.781   4.518
11874SOL    HW237455   7.465  11.879   4.569
11875SOL     OW37456  10.959   3.427   8.365
11875SOL    HW137457  10.980   3.516   8.335
11875SOL    HW237458  11.003   3.420   8.449
11876SOL     OW37459   7.446   1.336   6.538
11876SOL    HW137460   7.518   1.379   6.584
11876SOL    HW237461   7.447   1.246   6.572
11877SOL     OW37462   4.197   6.748  12.536
11877SOL    HW137463   4.128   6.687  12.510
11877SOL    HW237464   4.231   6.783  12.454
11878SOL     OW37465   3.758   7.173   4.697
11878SOL    HW137466   3.723   7.262   4.705
11878SOL    HW237467   3.802   7.172   4.612
11879SOL     OW37468   1.182   4.587   0.273
11879SOL    HW137469   1.186   4.504   0.321
11879SOL    HW237470   1.270   4.597   0.236
11880SOL     OW37471  10.063  11.901  14.762
11880SOL    HW137472  10.005  11.976  14.773
11880SOL    HW237473  10.033  11.859  14.681
11881SOL     OW37474  10.238   5.068  14.868
11881SOL    HW137475  10.234   5.064   0.092
11881SOL    HW237476  10.149   5.048  14.840
11882SOL     OW37477   8.069   1.981  13.678
11882SOL    HW137478   8.117   1.985  13.595
11882SOL    HW237479   8.004   2.052  13.671
11883SOL     OW37480   9.628  11.760   5.643
11883SOL    HW137481   9.585  11.817   5.706
11883SOL    HW237482   9.579  11.678   5.648
11884SOL     OW37483  11.181   8.916   1.518
11884SOL    HW137484  11.090   8.900   1.493
11884SOL    HW237485  11.186   9.011   1.530
11885SOL     OW37486  12.272   6.349   0.429
11885SOL    HW137487  12.363   6.336   0.402
11885SOL    HW237488  12.246   6.432   0.389
11886SOL     OW37489  14.859   1.985   4.854
11886SOL    HW137490  14.791   1.988   4.921
11886SOL    HW237491  14.838   2.057   4.795
11887SOL     OW37492   4.000   2.703   6.892
11887SOL    HW137493   4.052   2.764   6.839
11887SOL    HW237494   3.936   2.667   6.831
11888SOL     OW37495  10.455  14.536   3.683
11888SOL    HW137496  10.528  14.598   3.672
11888SOL    HW237497  10.421  14.524   3.594
11889SOL     OW37498   4.562   4.862   5.324
11889SOL    HW137499   4.520   4.907   5.251
11889SOL    HW237500   4.655   4.859   5.301
11890SOL     OW37501   7.294  14.231  10.567
11890SOL    HW137502   7.331  14.148  10.539
11890SOL    HW237503   7.212  14.207  10.612
11891SOL     OW37504   9.140  14.481  11.381
11891SOL    HW137505   9.131  14.575  11.363
11891SOL    HW237506   9.142  14.476  11.477
11892SOL     OW37507   0.603   4.612   1.174
11892SOL    HW137508   0.642   4.650   1.095
11892SOL    HW237509   0.669   4.550   1.205
11893SOL     OW37510  12.485   5.622   7.641
11893SOL    HW137511  12.392   5.642   7.641
11893SOL    HW237512  12.527   5.703   7.611
11894SOL     OW37513  14.439  14.715   1.267
11894SOL    HW137514  14.430  14.622   1.249
11894SOL    HW237515  14.408  14.725   1.357
11895SOL     OW37516   3.916  10.847   7.732
11895SOL    HW137517   3.986  10.855   7.667
11895SOL    HW237518   3.853  10.787   7.692
11896SOL     OW37519   2.472  11.807   4.804
11896SOL    HW137520   2.452  11.900   4.809
11896SOL    HW237521   2.564  11.801   4.828
11897SOL     OW37522   5.351   9.514   7.093
11897SOL    HW137523   5.269   9.530   7.140
11897SOL    HW237524   5.342   9.565   7.012
11898SOL     OW37525   4.615   6.107  11.637
11898SOL    HW137526   4.555   6.136  11.707
11898SOL    HW237527   4.666   6.185  11.617
11899SOL     OW37528  10.796   0.678   0.087
11899SOL    HW137529  10.768   0.762   0.050
11899SOL    HW237530  10.716   0.626   0.094
11900SOL     OW37531   5.928   7.568  10.413
11900SOL    HW137532   5.912   7.508  10.340
11900SOL    HW237533   5.984   7.518  10.472
11901SOL     OW37534   3.433   1.389   9.189
11901SOL    HW137535   3.481   1.380   9.106
11901SOL    HW237536   3.424   1.299   9.221
11902SOL     OW37537   3.650   2.542   0.595
11902SOL    HW137538   3.619   2.624   0.635
11902SOL    HW237539   3.601   2.473   0.639
11903SOL     OW37540   4.933   9.499  12.918
11903SOL    HW137541   5.000   9.443  12.957
11903SOL    HW237542   4.851   9.469  12.958
11904SOL     OW37543   6.781   0.531   7.341
11904SOL    HW137544   6.828   0.557   7.262
11904SOL    HW237545   6.847   0.494   7.399
11905SOL     OW37546  11.734   3.033   9.860
11905SOL    HW137547  11.684   2.996   9.932
11905SOL    HW237548  11.820   2.992   9.867
11906SOL     OW37549   1.320   7.998   2.961
11906SOL    HW137550   1.238   8.032   2.926
11906SOL    HW237551   1.386   8.059   2.930
11907SOL     OW37552   6.690   6.902   6.426
11907SOL    HW137553   6.648   6.975   6.471
11907SOL    HW237554   6.627   6.830   6.435
11908SOL     OW37555  14.025  11.449   6.418
11908SOL    HW137556  13.957  11.507   6.384
11908SOL    HW237557  14.025  11.374   6.358
11909SOL     OW37558   1.214  12.851   4.511
11909SOL    HW137559   1.124  12.822   4.526
11909SOL    HW237560   1.248  12.791   4.445
11910SOL     OW37561  11.140  13.406  14.728
11910SOL    HW137562  11.045  13.391  14.726
11910SOL    HW237563  11.178  13.321  14.709
11911SOL     OW37564  14.637  13.676   5.662
11911SOL    HW137565  14.659  13.582   5.664
11911SOL    HW237566  14.705  13.715   5.607
11912SOL     OW37567   2.989   1.194   8.517
11912SOL    HW137568   3.022   1.111   8.551
11912SOL    HW237569   3.048   1.260   8.554
11913SOL     OW37570   1.244  13.167   6.843
11913SOL    HW137571   1.201  13.247   6.815
11913SOL    HW237572   1.203  13.146   6.927
11914SOL     OW37573  14.417  13.795  13.223
11914SOL    HW137574  14.400  13.729  13.156
11914SOL    HW237575  14.366  13.767  13.299
11915SOL     OW37576   5.199   1.854  13.825
11915SOL    HW137577   5.157   1.774  13.793
11915SOL    HW237578   5.259   1.824  13.894
11916SOL     OW37579   8.299   1.408   2.545
11916SOL    HW137580   8.352   1.339   2.584
11916SOL    HW237581   8.358   1.452   2.484
11917SOL     OW37582   5.062   0.841   9.350
11917SOL    HW137583   5.002   0.847   9.424
11917SOL    HW237584   5.062   0.748   9.327
11918SOL     OW37585   3.118  12.589  11.705
11918SOL    HW137586   3.154  12.529  11.771
11918SOL    HW237587   3.101  12.534  11.629
11919SOL     OW37588  14.798   9.298   9.416
11919SOL    HW137589  14.748   9.269   9.339
11919SOL    HW237590  14.750   9.374   9.449
11920SOL     OW37591   4.459  11.233   9.726
11920SOL    HW137592   4.428  11.184   9.651
11920SOL    HW237593   4.538  11.188   9.754
11921SOL     OW37594   7.745   4.063  14.811
11921SOL    HW137595   7.795   4.145  14.801
11921SOL    HW237596   7.662   4.091  14.850
11922SOL     OW37597  11.970   8.091  13.088
11922SOL    HW137598  11.898   8.142  13.126
11922SOL    HW237599  11.944   8.000  13.103
11923SOL     OW37600   5.957  14.802   9.282
11923SOL    HW137601   5.912  14.760   9.208
11923SOL    HW237602   5.961   0.022   9.258
11924SOL     OW37603   6.095   4.938  14.688
11924SOL    HW137604   6.024   4.991  14.653
11924SOL    HW237605   6.139   4.995  14.751
11925SOL     OW37606  11.646  10.611   4.229
11925SOL    HW137607  11.670  10.539   4.287
11925SOL    HW237608  11.559  10.638   4.259
11926SOL     OW37609  14.216   9.206   7.981
11926SOL    HW137610  14.226   9.264   8.056
11926SOL    HW237611  14.205   9.265   7.906
11927SOL     OW37612   5.641  12.339  14.235
11927SOL    HW137613   5.552  12.366  14.257
11927SOL    HW237614   5.690  12.421  14.227
11928SOL     OW37615   4.837   6.564  14.833
11928SOL    HW137616   4.804   6.654  14.834
11928SOL    HW237617   4.931   6.573  14.817
11929SOL     OW37618   2.591   7.788  11.506
11929SOL    HW137619   2.656   7.776  11.437
11929SOL    HW237620   2.627   7.740  11.581
11930SOL     OW37621   1.619   6.211   2.523
11930SOL    HW137622   1.536   6.197   2.568
11930SOL    HW237623   1.685   6.191   2.589
11931SOL     OW37624  10.829  11.440  13.422
11931SOL    HW137625  10.884  11.484  13.486
11931SOL    HW237626  10.740  11.452  13.454
11932SOL     OW37627  12.076  11.256  14.218
11932SOL    HW137628  12.029  11.291  14.142
11932SOL    HW237629  12.050  11.164  14.222
11933SOL     OW37630  12.378   5.330   1.890
11933SOL    HW137631  12.306   5.344   1.951
11933SOL    HW237632  12.379   5.408   1.835
11934SOL     OW37633  11.537  10.925   9.709
11934SOL    HW137634  11.520  10.840   9.750
11934SOL    HW237635  11.461  10.978   9.731
11935SOL     OW37636  11.126   3.701   8.543
11935SOL    HW137637  11.153   3.705   8.634
11935SOL    HW237638  11.173   3.773   8.501
11936SOL     OW37639  14.178   6.559   5.231
11936SOL    HW137640  14.247   6.492   5.229
11936SOL    HW237641  14.122   6.538   5.157
11937SOL     OW37642   8.709  11.509   9.875
11937SOL    HW137643   8.622  11.478   9.899
11937SOL    HW237644   8.697  11.553   9.791
11938SOL     OW37645   4.956   5.711   3.448
11938SOL    HW137646   4.897   5.636   3.443
11938SOL    HW237647   5.023   5.693   3.383
11939SOL     OW37648   6.886  13.109   3.479
11939SOL    HW137649   6.854  13.172   3.414
11939SOL    HW237650   6.808  13.086   3.530
11940SOL     OW37651   8.772   1.453   0.294
11940SOL    HW137652   8.737   1.489   0.212
11940SOL    HW237653   8.842   1.394   0.267
11941SOL     OW37654   3.796  14.367   9.249
11941SOL    HW137655   3.802  14.403   9.337
11941SOL    HW237656   3.763  14.278   9.260
11942SOL     OW37657  11.502   6.724   6.047
11942SOL    HW137658  11.587   6.763   6.024
11942SOL    HW237659  11.498   6.644   5.995
11943SOL     OW37660  12.989  11.172  11.603
11943SOL    HW137661  12.922  11.143  11.541
11943SOL    HW237662  12.999  11.266  11.585
11944SOL     OW37663   2.712   2.987  13.865
11944SOL    HW137664   2.669   2.949  13.942
11944SOL    HW237665   2.640   3.022  13.813
11945SOL     OW37666  10.689   1.916   8.628
11945SOL    HW137667  10.781   1.919   8.654
11945SOL    HW237668  10.676   1.827   8.597
11946SOL     OW37669   5.186   4.451   1.441
11946SOL    HW137670   5.236   4.521   1.482
11946SOL    HW237671   5.245   4.375   1.441
11947SOL     OW37672   8.533  14.619  13.069
11947SOL    HW137673   8.517  14.581  12.983
11947SOL    HW237674   8.456  14.674  13.085
11948SOL     OW37675   6.530   5.647   8.425
11948SOL    HW137676   6.530   5.658   8.330
11948SOL    HW237677   6.615   5.607   8.445
11949SOL     OW37678   7.986  13.498   2.309
11949SOL    HW137679   7.920  13.559   2.342
11949SOL    HW237680   8.038  13.474   2.386
11950SOL     OW37681  10.649   2.800   0.234
11950SOL    HW137682  10.723   2.843   0.193
11950SOL    HW237683  10.639   2.843   0.319
11951SOL     OW37684   1.204   6.770   7.485
11951SOL    HW137685   1.224   6.693   7.431
11951SOL    HW237686   1.242   6.750   7.570
11952SOL     OW37687   0.031   4.596  12.150
11952SOL    HW137688   0.002   4.670  12.096
11952SOL    HW237689   0.112   4.567  12.109
11953SOL     OW37690  13.044   2.426   2.037
11953SOL    HW137691  13.086   2.350   2.077
11953SOL    HW237692  13.019   2.396   1.949
11954SOL     OW37693   9.136   3.934  10.874
11954SOL    HW137694   9.128   4.014  10.821
11954SOL    HW237695   9.115   3.963  10.963
11955SOL     OW37696   5.624   6.647   0.707
11955SOL    HW137697   5.578   6.620   0.627
11955SOL    HW237698   5.677   6.721   0.680
11956SOL     OW37699   7.160   4.204   6.184
11956SOL    HW137700   7.147   4.184   6.277
11956SOL    HW237701   7.089   4.159   6.139
11957SOL     OW37702  11.477   9.833   1.996
11957SOL    HW137703  11.442   9.744   1.986
11957SOL    HW237704  11.455   9.876   1.914
11958SOL     OW37705   6.423   4.070   0.340
11958SOL    HW137706   6.409   3.997   0.279
11958SOL    HW237707   6.372   4.047   0.418
11959SOL     OW37708   3.673   4.909   2.413
11959SOL    HW137709   3.682   4.855   2.491
11959SOL    HW237710   3.602   4.868   2.363
11960SOL     OW37711   4.219   2.533   3.688
11960SOL    HW137712   4.296   2.551   3.742
11960SOL    HW237713   4.236   2.448   3.649
11961SOL     OW37714   9.956   6.253  11.478
11961SOL    HW137715   9.866   6.265  11.447
11961SOL    HW237716   9.978   6.164  11.452
11962SOL     OW37717  13.698  13.288   1.756
11962SOL    HW137718  13.613  13.333   1.754
11962SOL    HW237719  13.760  13.352   1.722
11963SOL     OW37720  11.497   3.685  11.359
11963SOL    HW137721  11.571   3.700  11.418
11963SOL    HW237722  11.486   3.590  11.358
11964SOL     OW37723   4.363  12.112   2.821
11964SOL    HW137724   4.446  12.090   2.863
11964SOL    HW237725   4.305  12.040   2.843
11965SOL     OW37726  13.021   0.758   8.588
11965SOL    HW137727  12.949   0.809   8.550
11965SOL    HW237728  12.980   0.707   8.658
11966SOL     OW37729   0.719   6.276  11.907
11966SOL    HW137730   0.725   6.261  11.813
11966SOL    HW237731   0.810   6.291  11.935
11967SOL     OW37732  14.099   8.657  10.461
11967SOL    HW137733  14.052   8.628  10.383
11967SOL    HW237734  14.186   8.618  10.453
11968SOL     OW37735  14.628   2.397   1.991
11968SOL    HW137736  14.646   2.426   1.901
11968SOL    HW237737  14.714   2.373   2.026
11969SOL     OW37738   7.250  12.700   1.054
11969SOL    HW137739   7.181  12.719   0.990
11969SOL    HW237740   7.235  12.609   1.080
11970SOL     OW37741   0.867   5.336   7.688
11970SOL    HW137742   0.902   5.412   7.734
11970SOL    HW237743   0.774   5.354   7.680
11971SOL     OW37744  14.390  12.372   9.988
11971SOL    HW137745  14.386  12.316   9.910
11971SOL    HW237746  14.327  12.442   9.970
11972SOL     OW37747  13.652  11.052   5.468
11972SOL    HW137748  13.621  11.142   5.477
11972SOL    HW237749  13.668  11.042   5.375
11973SOL     OW37750  14.031  12.860  13.268
11973SOL    HW137751  14.121  12.840  13.242
11973SOL    HW237752  14.026  12.832  13.360
11974SOL     OW37753  11.212  13.160   1.089
11974SOL    HW137754  11.249  13.234   1.137
11974SOL    HW237755  11.279  13.092   1.094
11975SOL     OW37756  14.447   7.348   9.861
11975SOL    HW137757  14.403   7.352   9.776
11975SOL    HW237758  14.429   7.260   9.894
11976SOL     OW37759   4.716   6.439   4.377
11976SOL    HW137760   4.768   6.482   4.308
11976SOL    HW237761   4.685   6.358   4.337
11977SOL     OW37762  12.869   6.694   2.133
11977SOL    HW137763  12.816   6.737   2.066
11977SOL    HW237764  12.895   6.764   2.193
11978SOL     OW37765   8.738  14.656   6.304
11978SOL    HW137766   8.810  14.613   6.350
11978SOL    HW237767   8.780  14.704   6.233
11979SOL     OW37768   7.897  13.539   5.579
11979SOL    HW137769   7.805  13.558   5.559
11979SOL    HW237770   7.931  13.622   5.615
11980SOL     OW37771   3.448   0.250   0.902
11980SOL    HW137772   3.360   0.214   0.895
11980SOL    HW237773   3.439   0.325   0.962
11981SOL     OW37774   4.167   6.430   5.279
11981SOL    HW137775   4.186   6.337   5.295
11981SOL    HW237776   4.237   6.476   5.324
11982SOL     OW37777  13.881  13.492   7.134
11982SOL    HW137778  13.863  13.422   7.197
11982SOL    HW237779  13.869  13.451   7.048
11983SOL     OW37780  14.295   1.112  14.696
11983SOL    HW137781  14.340   1.088  14.777
11983SOL    HW237782  14.353   1.178  14.656
11984SOL     OW37783  11.827   7.168  11.932
11984SOL    HW137784  11.909   7.204  11.899
11984SOL    HW237785  11.832   7.180  12.027
11985SOL     OW37786   6.239   3.237   3.274
11985SOL    HW137787   6.239   3.146   3.247
11985SOL    HW237788   6.233   3.234   3.370
11986SOL     OW37789  11.517  14.807   7.471
11986SOL    HW137790  11.501  14.744   7.542
11986SOL    HW237791  11.610  14.796   7.449
11987SOL     OW37792   8.638   7.264   6.731
11987SOL    HW137793   8.702   7.322   6.691
11987SOL    HW237794   8.644   7.183   6.680
11988SOL     OW37795   6.356   3.304  13.340
11988SOL    HW137796   6.416   3.324  13.268
11988SOL    HW237797   6.277   3.354  13.320
11989SOL     OW37798  11.637   5.523  11.929
11989SOL    HW137799  11.611   5.478  12.009
11989SOL    HW237800  11.663   5.611  11.958
11990SOL     OW37801   5.024   8.598   6.935
11990SOL    HW137802   4.993   8.583   7.025
11990SOL    HW237803   5.065   8.516   6.910
11991SOL     OW37804   0.922   1.172   9.802
11991SOL    HW137805   0.944   1.132   9.719
11991SOL    HW237806   0.953   1.262   9.795
11992SOL     OW37807  14.381   1.627  10.569
11992SOL    HW137808  14.293   1.589  10.581
11992SOL    HW237809  14.435   1.553  10.541
11993SOL     OW37810   8.632  12.300   2.430
11993SOL    HW137811   8.712  12.272   2.386
11993SOL    HW237812   8.648  12.392   2.454
11994SOL     OW37813   4.890   5.544   8.176
11994SOL    HW137814   4.806   5.502   8.155
11994SOL    HW237815   4.948   5.518   8.105
11995SOL     OW37816   8.418   2.296  11.086
11995SOL    HW137817   8.361   2.308  11.162
11995SOL    HW237818   8.359   2.270  11.015
11996SOL     OW37819   0.434  11.335  14.547
11996SOL    HW137820   0.407  11.244  14.560
11996SOL    HW237821   0.522  11.329  14.509
11997SOL     OW37822   0.694   3.850   0.768
11997SOL    HW137823   0.777   3.818   0.733
11997SOL    HW237824   0.647   3.884   0.691
11998SOL     OW37825  11.600   4.105   7.134
11998SOL    HW137826  11.578   4.068   7.048
11998SOL    HW237827  11.625   4.195   7.115
11999SOL     OW37828  13.252  11.062  11.655
11999SOL    HW137829  13.228  10.971  11.639
11999SOL    HW237830  13.186  11.113  11.607
12000SOL     OW37831   0.437   7.757   2.151
12000SOL    HW137832   0.441   7.735   2.244
12000SOL    HW237833   0.364   7.819   2.145
12001SOL     OW37834   7.169  10.748   0.165
12001SOL    HW137835   7.248  10.779   0.119
12001SOL    HW237836   7.156  10.811   0.235
12002SOL     OW37837  13.559   2.502   0.567
12002SOL    HW137838  13.471   2.486   0.533
12002SOL    HW237839  13.555   2.590   0.604
12003SOL     OW37840  10.108   7.644   6.659
12003SOL    HW137841  10.184   7.683   6.615
12003SOL    HW237842  10.143   7.564   6.699
12004SOL     OW37843  12.167   8.472  13.558
12004SOL    HW137844  12.173   8.455  13.464
12004SOL    HW237845  12.078   8.443  13.582
12005SOL     OW37846   4.154   5.598   9.778
12005SOL    HW137847   4.078   5.579   9.833
12005SOL    HW237848   4.222   5.624   9.840
12006SOL     OW37849  10.051   2.887  10.780
12006SOL    HW137850   9.988   2.902  10.851
12006SOL    HW237851  10.074   2.795  10.787
12007SOL     OW37852   0.468  13.371   7.184
12007SOL    HW137853   0.415  13.296   7.159
12007SOL    HW237854   0.431  13.444   7.134
12008SOL     OW37855   0.719  11.744   7.832
12008SOL    HW137856   0.724  11.753   7.927
12008SOL    HW237857   0.637  11.786   7.807
12009SOL     OW37858   4.074   3.123   4.729
12009SOL    HW137859   4.023   3.046   4.755
12009SOL    HW237860   4.152   3.119   4.785
12010SOL     OW37861  11.869   2.090  13.175
12010SOL    HW137862  11.798   2.030  13.195
12010SOL    HW237863  11.905   2.114  13.261
12011SOL     OW37864   4.241   9.571   0.584
12011SOL    HW137865   4.150   9.596   0.601
12011SOL    HW237866   4.249   9.483   0.619
12012SOL     OW37867  12.551   4.550   0.207
12012SOL    HW137868  12.538   4.534   0.113
12012SOL    HW237869  12.504   4.632   0.224
12013SOL     OW37870   5.069   3.048   4.562
12013SOL    HW137871   5.032   3.134   4.542
12013SOL    HW237872   5.035   3.027   4.649
12014SOL     OW37873   3.326   7.369   7.400
12014SOL    HW137874   3.317   7.300   7.466
12014SOL    HW237875   3.264   7.436   7.426
12015SOL     OW37876  12.101  13.571  10.925
12015SOL    HW137877  12.034  13.561  10.857
12015SOL    HW237878  12.053  13.563  11.007
12016SOL     OW37879   2.336  12.372   0.833
12016SOL    HW137880   2.407  12.365   0.896
12016SOL    HW237881   2.313  12.465   0.833
12017SOL     OW37882   8.148   6.278   5.108
12017SOL    HW137883   8.243   6.276   5.099
12017SOL    HW237884   8.115   6.225   5.036
12018SOL     OW37885  11.436  10.542   1.121
12018SOL    HW137886  11.528  10.526   1.144
12018SOL    HW237887  11.396  10.573   1.202
12019SOL     OW37888   0.451   6.941   5.359
12019SOL    HW137889   0.465   6.877   5.290
12019SOL    HW237890   0.399   6.895   5.425
12020SOL     OW37891  11.848   0.187   6.968
12020SOL    HW137892  11.832   0.278   6.990
12020SOL    HW237893  11.763   0.154   6.940
12021SOL     OW37894   1.282   8.541   2.577
12021SOL    HW137895   1.223   8.547   2.652
12021SOL    HW237896   1.224   8.538   2.501
12022SOL     OW37897   9.297   0.820   7.566
12022SOL    HW137898   9.261   0.758   7.630
12022SOL    HW237899   9.225   0.838   7.507
12023SOL     OW37900  10.127  11.730   7.229
12023SOL    HW137901  10.135  11.796   7.160
12023SOL    HW237902  10.216  11.694   7.238
12024SOL     OW37903   4.474   9.416   1.133
12024SOL    HW137904   4.565   9.429   1.107
12024SOL    HW237905   4.469   9.449   1.222
12025SOL     OW37906  14.367   2.113   2.314
12025SOL    HW137907  14.332   2.030   2.282
12025SOL    HW237908  14.375   2.168   2.236
12026SOL     OW37909   1.703   2.993   0.702
12026SOL    HW137910   1.681   2.969   0.612
12026SOL    HW237911   1.784   2.945   0.720
12027SOL     OW37912  10.329  13.043  11.644
12027SOL    HW137913  10.294  13.107  11.707
12027SOL    HW237914  10.404  13.004  11.690
12028SOL     OW37915  14.247   9.910   4.903
12028SOL    HW137916  14.255   9.816   4.922
12028SOL    HW237917  14.157   9.931   4.924
12029SOL     OW37918   6.034   5.924   0.539
12029SOL    HW137919   6.029   5.835   0.575
12029SOL    HW237920   6.023   5.981   0.615
12030SOL     OW37921   3.967   4.089  12.785
12030SOL    HW137922   3.961   4.175  12.743
12030SOL    HW237923   3.939   4.104  12.875
12031SOL     OW37924   8.350   1.521  14.435
12031SOL    HW137925   8.396   1.603  14.448
12031SOL    HW237926   8.262   1.537  14.468
12032SOL     OW37927   1.621   3.290   6.469
12032SOL    HW137928   1.701   3.336   6.493
12032SOL    HW237929   1.558   3.313   6.538
12033SOL     OW37930  13.400   9.825   6.227
12033SOL    HW137931  13.466   9.880   6.269
12033SOL    HW237932  13.359   9.777   6.300
12034SOL     OW37933  14.532  13.467   3.328
12034SOL    HW137934  14.578  13.384   3.320
12034SOL    HW237935  14.467  13.466   3.258
12035SOL     OW37936  12.927   8.119   9.388
12035SOL    HW137937  13.000   8.064   9.417
12035SOL    HW237938  12.930   8.195   9.446
12036SOL     OW37939  10.449   9.665  11.810
12036SOL    HW137940  10.410   9.697  11.729
12036SOL    HW237941  10.375   9.629  11.860
12037SOL     OW37942  10.720   0.061   0.903
12037SOL    HW137943  10.775   0.014   0.840
12037SOL    HW237944  10.735   0.015   0.986
12038SOL     OW37945   0.867   8.493   0.182
12038SOL    HW137946   0.847   8.403   0.208
12038SOL    HW237947   0.902   8.534   0.261
12039SOL     OW37948  11.692   9.532   8.861
12039SOL    HW137949  11.605   9.499   8.839
12039SOL    HW237950  11.735   9.547   8.777
12040SOL     OW37951  14.324   3.161   7.146
12040SOL    HW137952  14.237   3.154   7.184
12040SOL    HW237953  14.360   3.072   7.151
12041SOL     OW37954   8.639   0.345  12.693
12041SOL    HW137955   8.709   0.281  12.684
12041SOL    HW237956   8.589   0.317  12.769
12042SOL     OW37957   8.517  10.227   7.868
12042SOL    HW137958   8.491  10.254   7.779
12042SOL    HW237959   8.599  10.273   7.883
12043SOL     OW37960   9.359  10.717   2.002
12043SOL    HW137961   9.416  10.793   2.004
12043SOL    HW237962   9.417  10.642   1.991
12044SOL     OW37963  11.938   8.379  13.647
12044SOL    HW137964  11.845   8.354  13.653
12044SOL    HW237965  11.977   8.341  13.726
12045SOL     OW37966   8.046  11.556   7.199
12045SOL    HW137967   8.076  11.644   7.175
12045SOL    HW237968   8.127  11.506   7.211
12046SOL     OW37969  14.739   1.352  10.895
12046SOL    HW137970  14.654   1.396  10.901
12046SOL    HW237971  14.757   1.323  10.984
12047SOL     OW37972   5.627   8.957  14.081
12047SOL    HW137973   5.643   9.030  14.141
12047SOL    HW237974   5.579   8.893  14.133
12048SOL     OW37975  11.371   2.919   5.592
12048SOL    HW137976  11.298   2.973   5.562
12048SOL    HW237977  11.384   2.945   5.683
12049SOL     OW37978   9.020   2.286   4.145
12049SOL    HW137979   9.002   2.192   4.154
12049SOL    HW237980   9.104   2.290   4.099
12050SOL     OW37981   0.334   1.113   5.967
12050SOL    HW137982   0.293   1.167   6.034
12050SOL    HW237983   0.273   1.040   5.954
12051SOL     OW37984  11.416  13.058   6.123
12051SOL    HW137985  11.337  13.081   6.075
12051SOL    HW237986  11.424  13.126   6.190
12052SOL     OW37987   8.861   1.378   4.768
12052SOL    HW137988   8.775   1.351   4.800
12052SOL    HW237989   8.887   1.451   4.825
12053SOL     OW37990   5.557   6.278   9.217
12053SOL    HW137991   5.463   6.295   9.209
12053SOL    HW237992   5.590   6.351   9.269
12054SOL     OW37993  10.549   7.431   0.068
12054SOL    HW137994  10.542   7.521   0.038
12054SOL    HW237995  10.559   7.438   0.163
12055SOL     OW37996   0.616   5.221   5.441
12055SOL    HW137997   0.579   5.262   5.363
12055SOL    HW237998   0.564   5.255   5.513
12056SOL     OW37999  12.108   3.386   8.838
12056SOL    HW138000  12.029   3.341   8.868
12056SOL    HW238001  12.130   3.343   8.755
12057SOL     OW38002  13.672   3.968  13.376
12057SOL    HW138003  13.713   4.045  13.337
12057SOL    HW238004  13.684   3.899  13.311
12058SOL     OW38005   2.441   8.949  12.406
12058SOL    HW138006   2.497   8.978  12.334
12058SOL    HW238007   2.385   9.025  12.424
12059SOL     OW38008   3.890   2.349  14.517
12059SOL    HW138009   3.938   2.270  14.492
12059SOL    HW238010   3.838   2.371  14.439
12060SOL     OW38011   4.989  10.331   2.030
12060SOL    HW138012   4.905  10.285   2.030
12060SOL    HW238013   4.986  10.386   1.952
12061SOL     OW38014  12.750   0.891  10.272
12061SOL    HW138015  12.704   0.975  10.280
12061SOL    HW238016  12.787   0.875  10.359
12062SOL     OW38017  13.509  10.352  11.800
12062SOL    HW138018  13.558  10.272  11.816
12062SOL    HW238019  13.534  10.410  11.873
12063SOL     OW38020  11.649   0.425  10.278
12063SOL    HW138021  11.623   0.333  10.284
12063SOL    HW238022  11.744   0.424  10.272
12064SOL     OW38023   9.274   2.362   5.871
12064SOL    HW138024   9.321   2.445   5.883
12064SOL    HW238025   9.319   2.319   5.798
12065SOL     OW38026   4.030   3.165   2.574
12065SOL    HW138027   3.956   3.216   2.540
12065SOL    HW238028   4.067   3.122   2.496
12066SOL     OW38029   3.755   6.212   2.247
12066SOL    HW138030   3.806   6.294   2.246
12066SOL    HW238031   3.780   6.170   2.329
12067SOL     OW38032   3.724   4.565   6.861
12067SOL    HW138033   3.813   4.595   6.874
12067SOL    HW238034   3.733   4.471   6.843
12068SOL     OW38035   8.432  14.603  10.682
12068SOL    HW138036   8.347  14.563  10.703
12068SOL    HW238037   8.450  14.575  10.592
12069SOL     OW38038   9.113  12.720  13.878
12069SOL    HW138039   9.173  12.764  13.818
12069SOL    HW238040   9.031  12.711  13.829
12070SOL     OW38041   9.659   0.667   3.097
12070SOL    HW138042   9.705   0.601   3.046
12070SOL    HW238043   9.715   0.681   3.174
12071SOL     OW38044  13.399   7.753   0.608
12071SOL    HW138045  13.458   7.827   0.620
12071SOL    HW238046  13.362   7.765   0.520
12072SOL     OW38047   4.437   1.687  10.202
12072SOL    HW138048   4.433   1.594  10.222
12072SOL    HW238049   4.524   1.700  10.164
12073SOL     OW38050   7.016   8.861  12.786
12073SOL    HW138051   7.083   8.899  12.729
12073SOL    HW238052   7.052   8.777  12.813
12074SOL     OW38053  11.482   1.494  11.357
12074SOL    HW138054  11.544   1.562  11.382
12074SOL    HW238055  11.409   1.541  11.317
12075SOL     OW38056  12.420   7.820  13.291
12075SOL    HW138057  12.383   7.779  13.369
12075SOL    HW238058  12.514   7.803  13.297
12076SOL     OW38059  10.602  11.675   6.185
12076SOL    HW138060  10.576  11.584   6.169
12076SOL    HW238061  10.523  11.726   6.170
12077SOL     OW38062   5.012   0.207   3.333
12077SOL    HW138063   4.990   0.114   3.336
12077SOL    HW238064   5.098   0.213   3.374
12078SOL     OW38065  10.376   0.093  13.379
12078SOL    HW138066  10.428   0.156  13.430
12078SOL    HW238067  10.327   0.044  13.446
12079SOL     OW38068   0.115   5.204  12.312
12079SOL    HW138069   0.151   5.242  12.392
12079SOL    HW238070   0.191   5.178  12.261
12080SOL     OW38071   6.457   2.155   4.880
12080SOL    HW138072   6.427   2.232   4.831
12080SOL    HW238073   6.474   2.189   4.968
12081SOL     OW38074   9.862  14.448  10.885
12081SOL    HW138075   9.795  14.493  10.834
12081SOL    HW238076   9.945  14.472  10.843
12082SOL     OW38077  12.153   2.484  10.053
12082SOL    HW138078  12.247   2.467  10.047
12082SOL    HW238079  12.130   2.520   9.967
12083SOL     OW38080  11.986  11.806  10.078
12083SOL    HW138081  11.991  11.718  10.042
12083SOL    HW238082  11.983  11.863  10.001
12084SOL     OW38083   4.505   1.639  13.148
12084SOL    HW138084   4.523   1.602  13.062
12084SOL    HW238085   4.410   1.635  13.156
12085SOL     OW38086   1.546   5.519   2.262
12085SOL    HW138087   1.489   5.574   2.316
12085SOL    HW238088   1.491   5.446   2.234
12086SOL     OW38089   2.941   0.752  11.422
12086SOL    HW138090   3.022   0.796  11.396
12086SOL    HW238091   2.896   0.816  11.477
12087SOL     OW38092  13.158   1.138   3.742
12087SOL    HW138093  13.108   1.069   3.785
12087SOL    HW238094  13.178   1.103   3.656
12088SOL     OW38095   7.366   2.516  11.407
12088SOL    HW138096   7.432   2.543  11.342
12088SOL    HW238097   7.347   2.595  11.456
12089SOL     OW38098   2.020   2.751   7.468
12089SOL    HW138099   2.038   2.844   7.477
12089SOL    HW238100   1.987   2.741   7.379
12090SOL     OW38101   8.860   7.663  12.641
12090SOL    HW138102   8.804   7.595  12.676
12090SOL    HW238103   8.912   7.693  12.717
12091SOL     OW38104   1.086   3.963  10.993
12091SOL    HW138105   1.065   4.036  11.051
12091SOL    HW238106   1.179   3.947  11.008
12092SOL     OW38107   9.933   5.904   5.686
12092SOL    HW138108   9.901   5.825   5.730
12092SOL    HW238109   9.870   5.920   5.616
12093SOL     OW38110  10.152  13.189   4.096
12093SOL    HW138111  10.188  13.106   4.126
12093SOL    HW238112  10.072  13.200   4.148
12094SOL     OW38113   3.708   3.854  12.058
12094SOL    HW138114   3.743   3.904  12.131
12094SOL    HW238115   3.760   3.773  12.057
12095SOL     OW38116   9.030  12.665  10.208
12095SOL    HW138117   9.055  12.757  10.197
12095SOL    HW238118   8.956  12.667  10.268
12096SOL     OW38119   5.524  14.015  12.447
12096SOL    HW138120   5.455  13.949  12.434
12096SOL    HW238121   5.545  14.009  12.540
12097SOL     OW38122   9.093   5.622   3.172
12097SOL    HW138123   9.165   5.685   3.161
12097SOL    HW238124   9.129   5.540   3.139
12098SOL     OW38125  11.640   9.245  11.993
12098SOL    HW138126  11.576   9.269  11.926
12098SOL    HW238127  11.719   9.222  11.944
12099SOL     OW38128   2.015   4.558  14.352
12099SOL    HW138129   2.101   4.528  14.321
12099SOL    HW238130   2.036   4.618  14.423
12100SOL     OW38131   0.569   3.455   7.219
12100SOL    HW138132   0.619   3.528   7.184
12100SOL    HW238133   0.597   3.448   7.310
12101SOL     OW38134   6.928   5.018  14.320
12101SOL    HW138135   6.913   5.037  14.227
12101SOL    HW238136   6.964   5.099  14.355
12102SOL     OW38137  10.095   7.459   7.220
12102SOL    HW138138  10.176   7.407   7.222
12102SOL    HW238139  10.074   7.474   7.312
12103SOL     OW38140   4.461  12.312   1.997
12103SOL    HW138141   4.380  12.361   2.014
12103SOL    HW238142   4.445  12.225   2.035
12104SOL     OW38143   9.546  10.212   6.785
12104SOL    HW138144   9.496  10.291   6.762
12104SOL    HW238145   9.591  10.187   6.704
12105SOL     OW38146   1.216   7.664   5.272
12105SOL    HW138147   1.224   7.702   5.185
12105SOL    HW238148   1.235   7.571   5.259
12106SOL     OW38149  12.234   2.520   5.703
12106SOL    HW138150  12.298   2.536   5.634
12106SOL    HW238151  12.175   2.454   5.667
12107SOL     OW38152  13.892  11.734   5.327
12107SOL    HW138153  13.848  11.813   5.299
12107SOL    HW238154  13.975  11.765   5.365
12108SOL     OW38155   6.692   1.319   7.897
12108SOL    HW138156   6.762   1.253   7.890
12108SOL    HW238157   6.616   1.276   7.858
12109SOL     OW38158   8.676  10.075  14.030
12109SOL    HW138159   8.675  10.035  13.943
12109SOL    HW238160   8.606  10.140  14.028
12110SOL     OW38161   2.320   1.557  14.454
12110SOL    HW138162   2.309   1.652  14.455
12110SOL    HW238163   2.383   1.539  14.524
12111SOL     OW38164   9.125  10.838   5.501
12111SOL    HW138165   9.180  10.916   5.491
12111SOL    HW238166   9.050  10.869   5.553
12112SOL     OW38167   7.405   9.955  12.984
12112SOL    HW138168   7.419   9.931  12.893
12112SOL    HW238169   7.385  10.049  12.981
12113SOL     OW38170   3.516  10.811   8.937
12113SOL    HW138171   3.581  10.744   8.918
12113SOL    HW238172   3.529  10.877   8.869
12114SOL     OW38173   0.053   4.291   1.469
12114SOL    HW138174   0.056   4.246   1.385
12114SOL    HW238175  14.856   4.247   1.518
12115SOL     OW38176  10.560   4.463   5.744
12115SOL    HW138177  10.548   4.373   5.772
12115SOL    HW238178  10.581   4.456   5.651
12116SOL     OW38179  12.489  12.315   9.626
12116SOL    HW138180  12.440  12.369   9.564
12116SOL    HW238181  12.527  12.246   9.572
12117SOL     OW38182   1.116   3.823   7.293
12117SOL    HW138183   1.121   3.876   7.372
12117SOL    HW238184   1.054   3.868   7.236
12118SOL     OW38185   8.356   6.097   7.167
12118SOL    HW138186   8.320   6.013   7.138
12118SOL    HW238187   8.373   6.145   7.086
12119SOL     OW38188   5.602   2.579   2.767
12119SOL    HW138189   5.512   2.608   2.753
12119SOL    HW238190   5.650   2.613   2.691
12120SOL     OW38191   3.392   3.134  10.588
12120SOL    HW138192   3.464   3.182  10.628
12120SOL    HW238193   3.426   3.103  10.504
12121SOL     OW38194   7.788   3.300   9.213
12121SOL    HW138195   7.714   3.288   9.153
12121SOL    HW238196   7.747   3.322   9.297
12122SOL     OW38197   4.657  10.519   5.760
12122SOL    HW138198   4.601  10.441   5.766
12122SOL    HW238199   4.644  10.551   5.671
12123SOL     OW38200   5.060   4.458  13.200
12123SOL    HW138201   5.107   4.453  13.116
12123SOL    HW238202   5.129   4.456  13.266
12124SOL     OW38203   9.864  11.476   1.333
12124SOL    HW138204   9.775  11.452   1.309
12124SOL    HW238205   9.915  11.397   1.317
12125SOL     OW38206   2.715   8.916  11.855
12125SOL    HW138207   2.688   8.924  11.764
12125SOL    HW238208   2.784   8.981  11.866
12126SOL     OW38209  14.269  14.273  10.398
12126SOL    HW138210  14.180  14.295  10.425
12126SOL    HW238211  14.272  14.177  10.400
12127SOL     OW38212   4.265   0.918  12.687
12127SOL    HW138213   4.212   0.996  12.700
12127SOL    HW238214   4.276   0.912  12.592
12128SOL     OW38215  10.336   2.902   5.241
12128SOL    HW138216  10.349   2.899   5.335
12128SOL    HW238217  10.313   2.993   5.222
12129SOL     OW38218   5.713   4.487  10.223
12129SOL    HW138219   5.712   4.534  10.139
12129SOL    HW238220   5.622   4.484  10.250
12130SOL     OW38221   2.754   0.286  11.370
12130SOL    HW138222   2.745   0.349  11.442
12130SOL    HW238223   2.831   0.316  11.322
12131SOL     OW38224   8.550  11.561   6.925
12131SOL    HW138225   8.478  11.624   6.926
12131SOL    HW238226   8.593  11.574   6.841
12132SOL     OW38227   6.961  13.211  12.924
12132SOL    HW138228   6.993  13.144  12.985
12132SOL    HW238229   7.032  13.222  12.861
12133SOL     OW38230  13.801  12.470   6.796
12133SOL    HW138231  13.845  12.385   6.799
12133SOL    HW238232  13.765  12.482   6.884
12134SOL     OW38233  11.261   9.567   6.921
12134SOL    HW138234  11.327   9.523   6.975
12134SOL    HW238235  11.180   9.520   6.940
12135SOL     OW38236  11.539  13.555   0.992
12135SOL    HW138237  11.495  13.635   0.962
12135SOL    HW238238  11.595  13.530   0.918
12136SOL     OW38239   8.237   0.874  10.315
12136SOL    HW138240   8.222   0.967  10.332
12136SOL    HW238241   8.332   0.866  10.311
12137SOL     OW38242  13.314  11.688  12.550
12137SOL    HW138243  13.240  11.674  12.610
12137SOL    HW238244  13.275  11.689  12.463
12138SOL     OW38245   5.498   1.513  11.743
12138SOL    HW138246   5.575   1.460  11.723
12138SOL    HW238247   5.530   1.581  11.804
12139SOL     OW38248   1.793  11.869   3.413
12139SOL    HW138249   1.788  11.915   3.329
12139SOL    HW238250   1.796  11.939   3.479
12140SOL     OW38251  13.028   3.458   4.661
12140SOL    HW138252  12.977   3.481   4.584
12140SOL    HW238253  13.024   3.536   4.717
12141SOL     OW38254   9.828  13.723  11.217
12141SOL    HW138255   9.848  13.817  11.221
12141SOL    HW238256   9.744  13.718  11.173
12142SOL     OW38257  12.754  10.991   5.877
12142SOL    HW138258  12.707  11.051   5.936
12142SOL    HW238259  12.835  10.971   5.925
12143SOL     OW38260  13.118   9.318  10.353
12143SOL    HW138261  13.206   9.306  10.388
12143SOL    HW238262  13.129   9.309  10.258
12144SOL     OW38263   6.962   6.060  13.071
12144SOL    HW138264   6.940   5.969  13.090
12144SOL    HW238265   6.937   6.072  12.980
12145SOL     OW38266   4.151   6.069  11.596
12145SOL    HW138267   4.120   6.084  11.685
12145SOL    HW238268   4.194   5.983  11.599
12146SOL     OW38269  10.828  13.356   7.135
12146SOL    HW138270  10.884  13.407   7.078
12146SOL    HW238271  10.852  13.265   7.118
12147SOL     OW38272   8.638   1.482  11.844
12147SOL    HW138273   8.563   1.500  11.900
12147SOL    HW238274   8.698   1.555  11.861
12148SOL     OW38275   8.320   5.537  11.234
12148SOL    HW138276   8.355   5.459  11.189
12148SOL    HW238277   8.363   5.611  11.191
12149SOL     OW38278  11.928  12.093   4.713
12149SOL    HW138279  12.000  12.092   4.650
12149SOL    HW238280  11.964  12.049   4.791
12150SOL     OW38281  11.325  13.587   6.906
12150SOL    HW138282  11.300  13.529   6.978
12150SOL    HW238283  11.325  13.674   6.946
12151SOL     OW38284   1.324  11.002   7.640
12151SOL    HW138285   1.372  10.995   7.557
12151SOL    HW238286   1.347  10.922   7.688
12152SOL     OW38287   3.831   6.352  13.582
12152SOL    HW138288   3.811   6.287  13.650
12152SOL    HW238289   3.786   6.320  13.504
12153SOL     OW38290   9.192   4.785  12.647
12153SOL    HW138291   9.215   4.698  12.679
12153SOL    HW238292   9.119   4.813  12.702
12154SOL     OW38293   2.094   0.555   6.858
12154SOL    HW138294   2.158   0.613   6.900
12154SOL    HW238295   2.009   0.586   6.891
12155SOL     OW38296   7.365   7.447   4.125
12155SOL    HW138297   7.277   7.482   4.135
12155SOL    HW238298   7.415   7.518   4.085
12156SOL     OW38299  13.656   9.004   4.710
12156SOL    HW138300  13.562   8.986   4.708
12156SOL    HW238301  13.666   9.074   4.775
12157SOL     OW38302   2.563   4.032  10.982
12157SOL    HW138303   2.561   3.937  10.970
12157SOL    HW238304   2.495   4.050  11.046
12158SOL     OW38305   5.132  13.426   4.005
12158SOL    HW138306   5.215  13.394   3.970
12158SOL    HW238307   5.118  13.510   3.962
12159SOL     OW38308   1.141   9.773   3.127
12159SOL    HW138309   1.209   9.810   3.071
12159SOL    HW238310   1.189   9.726   3.196
12160SOL     OW38311   4.588   1.505   9.673
12160SOL    HW138312   4.678   1.538   9.677
12160SOL    HW238313   4.596   1.422   9.627
12161SOL     OW38314   7.905  11.282   9.902
12161SOL    HW138315   7.929  11.243   9.986
12161SOL    HW238316   7.913  11.211   9.839
12162SOL     OW38317   5.920   5.129   7.834
12162SOL    HW138318   5.827   5.148   7.846
12162SOL    HW238319   5.924   5.082   7.751
12163SOL     OW38320   4.675   0.251   6.676
12163SOL    HW138321   4.722   0.270   6.595
12163SOL    HW238322   4.614   0.324   6.687
12164SOL     OW38323  14.700   7.127   2.993
12164SOL    HW138324  14.777   7.175   3.024
12164SOL    HW238325  14.655   7.099   3.072
12165SOL     OW38326   3.911   2.272  13.282
12165SOL    HW138327   3.970   2.276  13.358
12165SOL    HW238328   3.890   2.364  13.264
12166SOL     OW38329  12.325  11.534   1.744
12166SOL    HW138330  12.347  11.441   1.744
12166SOL    HW238331  12.242  11.538   1.695
12167SOL     OW38332  11.806  10.721  11.934
12167SOL    HW138333  11.834  10.787  11.870
12167SOL    HW238334  11.710  10.721  11.928
12168SOL     OW38335   7.807  12.984   2.219
12168SOL    HW138336   7.733  13.042   2.199
12168SOL    HW238337   7.876  13.043   2.250
12169SOL     OW38338  11.517  13.911  11.793
12169SOL    HW138339  11.448  13.859  11.833
12169SOL    HW238340  11.571  13.940  11.866
12170SOL     OW38341   1.994   2.462   5.192
12170SOL    HW138342   1.977   2.555   5.206
12170SOL    HW238343   1.934   2.418   5.251
12171SOL     OW38344   8.548  14.606   7.326
12171SOL    HW138345   8.625  14.605   7.270
12171SOL    HW238346   8.486  14.664   7.281
12172SOL     OW38347   9.491  12.068  12.158
12172SOL    HW138348   9.447  12.058  12.242
12172SOL    HW238349   9.521  12.159  12.157
12173SOL     OW38350   7.117   3.230  11.465
12173SOL    HW138351   7.131   3.245  11.371
12173SOL    HW238352   7.189   3.277  11.508
12174SOL     OW38353  13.971   1.230   2.139
12174SOL    HW138354  14.019   1.231   2.056
12174SOL    HW238355  13.885   1.267   2.117
12175SOL     OW38356   0.693   9.919   0.189
12175SOL    HW138357   0.691  10.007   0.150
12175SOL    HW238358   0.720   9.862   0.117
12176SOL     OW38359   0.796   5.428   8.777
12176SOL    HW138360   0.846   5.475   8.710
12176SOL    HW238361   0.805   5.483   8.855
12177SOL     OW38362  11.046   5.513  12.761
12177SOL    HW138363  10.997   5.485  12.838
12177SOL    HW238364  11.116   5.447  12.753
12178SOL     OW38365   1.387   4.546   2.053
12178SOL    HW138366   1.340   4.622   2.020
12178SOL    HW238367   1.349   4.529   2.139
12179SOL     OW38368   1.573   2.887   3.827
12179SOL    HW138369   1.527   2.880   3.911
12179SOL    HW238370   1.564   2.979   3.802
12180SOL     OW38371   8.430   4.260   4.964
12180SOL    HW138372   8.445   4.184   4.907
12180SOL    HW238373   8.351   4.301   4.929
12181SOL     OW38374   3.302  10.682   2.155
12181SOL    HW138375   3.345  10.729   2.083
12181SOL    HW238376   3.229  10.637   2.113
12182SOL     OW38377   8.071   6.353  10.424
12182SOL    HW138378   8.008   6.412  10.467
12182SOL    HW238379   8.056   6.366  10.331
12183SOL     OW38380  11.125   0.659   7.372
12183SOL    HW138381  11.123   0.593   7.303
12183SOL    HW238382  11.059   0.722   7.346
12184SOL     OW38383  12.302  14.094  11.738
12184SOL    HW138384  12.335  14.011  11.771
12184SOL    HW238385  12.367  14.159  11.766
12185SOL     OW38386   9.598   0.272  13.954
12185SOL    HW138387   9.670   0.329  13.929
12185SOL    HW238388   9.519   0.323  13.935
12186SOL     OW38389   6.638  10.504   1.476
12186SOL    HW138390   6.619  10.592   1.510
12186SOL    HW238391   6.555  10.457   1.484
12187SOL     OW38392   6.309   4.181   5.920
12187SOL    HW138393   6.251   4.231   5.862
12187SOL    HW238394   6.397   4.199   5.886
12188SOL     OW38395   0.591  10.298   0.905
12188SOL    HW138396   0.623  10.257   0.985
12188SOL    HW238397   0.599  10.392   0.922
12189SOL     OW38398   2.991   3.338   0.270
12189SOL    HW138399   2.933   3.272   0.309
12189SOL    HW238400   2.936   3.384   0.207
12190SOL     OW38401   6.338   9.779   7.998
12190SOL    HW138402   6.397   9.783   7.922
12190SOL    HW238403   6.396   9.768   8.073
12191SOL     OW38404  14.809   0.839   5.542
12191SOL    HW138405  14.818   0.797   5.456
12191SOL    HW238406  14.747   0.911   5.527
12192SOL     OW38407   6.536  11.635  10.385
12192SOL    HW138408   6.536  11.650  10.291
12192SOL    HW238409   6.547  11.541  10.395
12193SOL     OW38410   6.830   9.001  13.318
12193SOL    HW138411   6.871   8.922  13.282
12193SOL    HW238412   6.808   9.054  13.241
12194SOL     OW38413   2.514   1.816   6.007
12194SOL    HW138414   2.522   1.737   5.954
12194SOL    HW238415   2.464   1.877   5.952
12195SOL     OW38416   8.708  11.926   5.300
12195SOL    HW138417   8.709  11.854   5.238
12195SOL    HW238418   8.629  11.976   5.278
12196SOL     OW38419   7.600   7.060   9.201
12196SOL    HW138420   7.637   7.042   9.287
12196SOL    HW238421   7.607   7.154   9.190
12197SOL     OW38422   8.027  11.015  11.825
12197SOL    HW138423   8.041  10.932  11.780
12197SOL    HW238424   7.996  11.074  11.756
12198SOL     OW38425  12.057   4.149   2.786
12198SOL    HW138426  11.993   4.219   2.775
12198SOL    HW238427  12.062   4.135   2.881
12199SOL     OW38428   5.173   8.628   3.770
12199SOL    HW138429   5.089   8.584   3.761
12199SOL    HW238430   5.183   8.679   3.689
12200SOL     OW38431   6.666   4.480   7.121
12200SOL    HW138432   6.653   4.568   7.157
12200SOL    HW238433   6.755   4.457   7.147
12201SOL     OW38434   6.825   2.923   3.416
12201SOL    HW138435   6.920   2.932   3.425
12201SOL    HW238436   6.794   2.910   3.506
12202SOL     OW38437   0.632   0.390  12.818
12202SOL    HW138438   0.600   0.398  12.728
12202SOL    HW238439   0.647   0.480  12.847
12203SOL     OW38440  10.180  14.248   7.762
12203SOL    HW138441  10.136  14.333   7.765
12203SOL    HW238442  10.259  14.264   7.711
12204SOL     OW38443   9.182   1.541   6.339
12204SOL    HW138444   9.226   1.534   6.255
12204SOL    HW238445   9.241   1.593   6.393
12205SOL     OW38446   6.067   9.916   9.320
12205SOL    HW138447   6.161   9.919   9.338
12205SOL    HW238448   6.030   9.863   9.391
12206SOL     OW38449  13.997   1.295   4.947
12206SOL    HW138450  14.029   1.353   5.016
12206SOL    HW238451  14.076   1.253   4.912
12207SOL     OW38452   8.764  11.325  13.524
12207SOL    HW138453   8.680  11.343  13.566
12207SOL    HW238454   8.825  11.310  13.596
12208SOL     OW38455   8.994  14.535  14.778
12208SOL    HW138456   8.941  14.523  14.857
12208SOL    HW238457   9.084  14.520  14.806
12209SOL     OW38458   8.701  10.000   6.705
12209SOL    HW138459   8.675  10.034   6.790
12209SOL    HW238460   8.748   9.919   6.724
12210SOL     OW38461   7.125   3.923  10.035
12210SOL    HW138462   7.185   3.982  10.081
12210SOL    HW238463   7.084   3.978   9.969
12211SOL     OW38464  12.049   0.793   5.251
12211SOL    HW138465  12.009   0.710   5.224
12211SOL    HW238466  12.143   0.776   5.249
12212SOL     OW38467   5.301   9.741   9.849
12212SOL    HW138468   5.317   9.824   9.803
12212SOL    HW238469   5.221   9.757   9.899
12213SOL     OW38470   1.351   3.417  12.951
12213SOL    HW138471   1.393   3.487  13.001
12213SOL    HW238472   1.374   3.337  12.999
12214SOL     OW38473  12.134   6.949  11.240
12214SOL    HW138474  12.077   6.942  11.316
12214SOL    HW238475  12.221   6.925  11.273
12215SOL     OW38476   3.027   0.200   7.969
12215SOL    HW138477   3.114   0.228   7.943
12215SOL    HW238478   3.039   0.113   8.007
12216SOL     OW38479  11.015   3.653   2.623
12216SOL    HW138480  10.958   3.587   2.664
12216SOL    HW238481  11.016   3.726   2.685
12217SOL     OW38482   1.269   8.448  13.560
12217SOL    HW138483   1.210   8.501  13.615
12217SOL    HW238484   1.229   8.361  13.560
12218SOL     OW38485  11.246   5.485   1.863
12218SOL    HW138486  11.213   5.404   1.824
12218SOL    HW238487  11.260   5.464   1.955
12219SOL     OW38488   3.583   6.676   2.783
12219SOL    HW138489   3.546   6.757   2.747
12219SOL    HW238490   3.582   6.615   2.709
12220SOL     OW38491   1.354   0.257   0.984
12220SOL    HW138492   1.333   0.344   1.019
12220SOL    HW238493   1.288   0.199   1.022
12221SOL     OW38494   6.054  10.595  10.114
12221SOL    HW138495   6.027  10.681  10.146
12221SOL    HW238496   6.149  10.603  10.102
12222SOL     OW38497  13.542  12.679  11.792
12222SOL    HW138498  13.535  12.726  11.709
12222SOL    HW238499  13.581  12.595  11.769
12223SOL     OW38500   3.325   3.637   9.902
12223SOL    HW138501   3.261   3.590   9.850
12223SOL    HW238502   3.310   3.730   9.883
12224SOL     OW38503   8.981  13.631   7.428
12224SOL    HW138504   9.016  13.657   7.513
12224SOL    HW238505   8.963  13.714   7.383
12225SOL     OW38506   5.000  13.633   3.613
12225SOL    HW138507   5.045  13.651   3.531
12225SOL    HW238508   4.913  13.672   3.602
12226SOL     OW38509   0.792   6.507  12.033
12226SOL    HW138510   0.872   6.454  12.028
12226SOL    HW238511   0.721   6.445  12.019
12227SOL     OW38512  14.650   8.106   9.788
12227SOL    HW138513  14.635   8.201   9.786
12227SOL    HW238514  14.735   8.097   9.831
12228SOL     OW38515  13.347  10.641   2.112
12228SOL    HW138516  13.382  10.562   2.154
12228SOL    HW238517  13.349  10.621   2.018
12229SOL     OW38518  14.160  12.785   1.156
12229SOL    HW138519  14.111  12.864   1.179
12229SOL    HW238520  14.175  12.741   1.239
12230SOL     OW38521   8.681   8.612  10.327
12230SOL    HW138522   8.711   8.605  10.418
12230SOL    HW238523   8.755   8.653  10.281
12231SOL     OW38524   2.897   1.053  11.140
12231SOL    HW138525   2.915   0.991  11.069
12231SOL    HW238526   2.802   1.067  11.135
12232SOL     OW38527  12.200   0.542  11.313
12232SOL    HW138528  12.129   0.520  11.372
12232SOL    HW238529  12.177   0.499  11.230
12233SOL     OW38530  10.292  13.342   3.195
12233SOL    HW138531  10.324  13.408   3.256
12233SOL    HW238532  10.371  13.302   3.158
12234SOL     OW38533  12.293   8.514   7.507
12234SOL    HW138534  12.375   8.470   7.527
12234SOL    HW238535  12.229   8.444   7.500
12235SOL     OW38536   9.215   3.927  11.330
12235SOL    HW138537   9.211   4.002  11.390
12235SOL    HW238538   9.302   3.932  11.292
12236SOL     OW38539   1.367   4.009  14.518
12236SOL    HW138540   1.368   3.949  14.443
12236SOL    HW238541   1.366   4.096  14.479
12237SOL     OW38542   1.237   7.313  13.740
12237SOL    HW138543   1.244   7.363  13.822
12237SOL    HW238544   1.271   7.226  13.763
12238SOL     OW38545   8.521   4.381  11.507
12238SOL    HW138546   8.474   4.410  11.429
12238SOL    HW238547   8.464   4.316  11.547
12239SOL     OW38548   6.134   3.531   9.297
12239SOL    HW138549   6.045   3.523   9.331
12239SOL    HW238550   6.166   3.441   9.290
12240SOL     OW38551  11.891   0.241  12.483
12240SOL    HW138552  11.824   0.304  12.510
12240SOL    HW238553  11.970   0.266  12.531
12241SOL     OW38554  10.542  10.012  13.914
12241SOL    HW138555  10.603   9.940  13.899
12241SOL    HW238556  10.459   9.981  13.877
12242SOL     OW38557   8.466   9.931  10.056
12242SOL    HW138558   8.453   9.961  10.146
12242SOL    HW238559   8.382   9.946  10.014
12243SOL     OW38560  12.957  10.571   1.008
12243SOL    HW138561  13.012  10.518   1.066
12243SOL    HW238562  12.886  10.601   1.065
12244SOL     OW38563  11.219  10.900   6.666
12244SOL    HW138564  11.261  10.891   6.752
12244SOL    HW238565  11.291  10.908   6.604
12245SOL     OW38566   2.623  13.313  14.843
12245SOL    HW138567   2.629  13.218  14.835
12245SOL    HW238568   2.714  13.343  14.839
12246SOL     OW38569   3.852   2.615   9.715
12246SOL    HW138570   3.900   2.533   9.720
12246SOL    HW238571   3.898   2.674   9.774
12247SOL     OW38572  11.052   0.856   8.022
12247SOL    HW138573  11.034   0.891   8.110
12247SOL    HW238574  11.002   0.775   8.018
12248SOL     OW38575   0.099   5.841   7.355
12248SOL    HW138576   0.048   5.915   7.322
12248SOL    HW238577   0.099   5.777   7.283
12249SOL     OW38578   1.185   5.441  11.074
12249SOL    HW138579   1.224   5.355  11.061
12249SOL    HW238580   1.095   5.423  11.101
12250SOL     OW38581  12.291  10.837  13.785
12250SOL    HW138582  12.387  10.844  13.781
12250SOL    HW238583  12.275  10.745  13.803
12251SOL     OW38584   2.475   6.481   5.094
12251SOL    HW138585   2.380   6.465   5.100
12251SOL    HW238586   2.513   6.421   5.159
12252SOL     OW38587  14.640   3.960   5.377
12252SOL    HW138588  14.574   4.012   5.424
12252SOL    HW238589  14.608   3.956   5.287
12253SOL     OW38590   5.169   6.011   4.284
12253SOL    HW138591   5.241   6.000   4.346
12253SOL    HW238592   5.210   6.002   4.198
12254SOL     OW38593  14.834  13.887   4.902
12254SOL    HW138594  14.821  13.964   4.846
12254SOL    HW238595   0.032  13.913   4.962
12255SOL     OW38596   9.938   1.877   4.641
12255SOL    HW138597   9.987   1.953   4.672
12255SOL    HW238598   9.982   1.802   4.681
12256SOL     OW38599   2.160   4.341   4.467
12256SOL    HW138600   2.139   4.285   4.542
12256SOL    HW238601   2.080   4.390   4.451
12257SOL     OW38602  11.768   7.297   7.144
12257SOL    HW138603  11.827   7.360   7.186
12257SOL    HW238604  11.771   7.220   7.201
12258SOL     OW38605   2.040   3.992  13.526
12258SOL    HW138606   1.959   4.024  13.486
12258SOL    HW238607   2.012   3.929  13.591
12259SOL     OW38608   6.708   7.425  12.003
12259SOL    HW138609   6.716   7.353  11.941
12259SOL    HW238610   6.744   7.391  12.084
12260SOL     OW38611   8.281   8.433   9.074
12260SOL    HW138612   8.359   8.389   9.107
12260SOL    HW238613   8.235   8.365   9.025
12261SOL     OW38614  10.482   6.940  14.661
12261SOL    HW138615  10.575   6.960  14.652
12261SOL    HW238616  10.446   7.015  14.709
12262SOL     OW38617   6.479   0.600  10.962
12262SOL    HW138618   6.523   0.589  11.046
12262SOL    HW238619   6.545   0.576  10.897
12263SOL     OW38620  10.227  10.708   2.036
12263SOL    HW138621  10.244  10.694   1.943
12263SOL    HW238622  10.297  10.766   2.065
12264SOL     OW38623   0.347   7.531   3.736
12264SOL    HW138624   0.291   7.460   3.766
12264SOL    HW238625   0.322   7.606   3.790
12265SOL     OW38626  11.723   7.996   5.364
12265SOL    HW138627  11.629   8.008   5.351
12265SOL    HW238628  11.731   7.953   5.449
12266SOL     OW38629  11.141  12.770   8.253
12266SOL    HW138630  11.088  12.717   8.194
12266SOL    HW238631  11.080  12.797   8.322
12267SOL     OW38632   7.927  11.891   6.333
12267SOL    HW138633   7.958  11.800   6.333
12267SOL    HW238634   8.002  11.942   6.362
12268SOL     OW38635   3.721  11.010   8.519
12268SOL    HW138636   3.746  10.920   8.501
12268SOL    HW238637   3.668  11.006   8.598
12269SOL     OW38638   2.163   5.994   7.779
12269SOL    HW138639   2.079   6.038   7.789
12269SOL    HW238640   2.169   5.935   7.854
12270SOL     OW38641  14.340   5.472   4.573
12270SOL    HW138642  14.352   5.378   4.555
12270SOL    HW238643  14.390   5.488   4.652
12271SOL     OW38644   6.879  12.999  12.342
12271SOL    HW138645   6.900  13.050  12.264
12271SOL    HW238646   6.783  12.996  12.343
12272SOL     OW38647   7.623   6.492  11.178
12272SOL    HW138648   7.669   6.576  11.165
12272SOL    HW238649   7.666   6.432  11.117
12273SOL     OW38650   2.932  11.928  10.369
12273SOL    HW138651   2.968  12.005  10.411
12273SOL    HW238652   2.904  11.958  10.283
12274SOL     OW38653   3.652   2.443   2.569
12274SOL    HW138654   3.615   2.471   2.653
12274SOL    HW238655   3.747   2.451   2.581
12275SOL     OW38656   8.045   5.942  12.332
12275SOL    HW138657   8.109   5.876  12.304
12275SOL    HW238658   8.000   5.967  12.251
12276SOL     OW38659  10.793   9.026   3.962
12276SOL    HW138660  10.820   9.053   4.050
12276SOL    HW238661  10.703   9.059   3.953
12277SOL     OW38662  11.012   6.252   7.099
12277SOL    HW138663  10.957   6.194   7.151
12277SOL    HW238664  10.968   6.337   7.103
12278SOL     OW38665   4.185   8.487   5.307
12278SOL    HW138666   4.216   8.405   5.269
12278SOL    HW238667   4.204   8.479   5.400
12279SOL     OW38668   6.741   9.136  13.107
12279SOL    HW138669   6.786   9.204  13.157
12279SOL    HW238670   6.786   9.137  13.022
12280SOL     OW38671   0.612  14.734  12.443
12280SOL    HW138672   0.625  14.715  12.350
12280SOL    HW238673   0.581  14.651  12.480
12281SOL     OW38674   1.866   3.433   9.120
12281SOL    HW138675   1.930   3.491   9.079
12281SOL    HW238676   1.917   3.356   9.147
12282SOL     OW38677   7.050  11.920  12.836
12282SOL    HW138678   7.051  11.984  12.907
12282SOL    HW238679   7.085  11.968  12.761
12283SOL     OW38680   5.980  12.872  14.498
12283SOL    HW138681   5.995  12.778  14.487
12283SOL    HW238682   6.033  12.895  14.575
12284SOL     OW38683  11.275   9.724   6.493
12284SOL    HW138684  11.316   9.810   6.508
12284SOL    HW238685  11.209   9.716   6.562
12285SOL     OW38686   6.849   2.867   8.893
12285SOL    HW138687   6.828   2.872   8.986
12285SOL    HW238688   6.788   2.927   8.851
12286SOL     OW38689  13.691  10.143   1.049
12286SOL    HW138690  13.640  10.064   1.029
12286SOL    HW238691  13.782  10.116   1.035
12287SOL     OW38692   5.573   9.307   7.676
12287SOL    HW138693   5.523   9.290   7.756
12287SOL    HW238694   5.658   9.338   7.707
12288SOL     OW38695   0.627   7.352  12.229
12288SOL    HW138696   0.548   7.301  12.211
12288SOL    HW238697   0.627   7.363  12.324
12289SOL     OW38698   2.210   9.393   4.924
12289SOL    HW138699   2.285   9.386   4.983
12289SOL    HW238700   2.233   9.465   4.865
12290SOL     OW38701   1.098   9.369   0.286
12290SOL    HW138702   1.055   9.428   0.224
12290SOL    HW238703   1.034   9.299   0.299
12291SOL     OW38704   0.153   6.597  11.380
12291SOL    HW138705   0.190   6.523  11.428
12291SOL    HW238706   0.082   6.559  11.328
12292SOL     OW38707  13.631   1.815  10.098
12292SOL    HW138708  13.692   1.796  10.027
12292SOL    HW238709  13.684   1.804  10.178
12293SOL     OW38710   5.758   9.471   4.724
12293SOL    HW138711   5.696   9.402   4.748
12293SOL    HW238712   5.823   9.426   4.669
12294SOL     OW38713  14.244   8.871  11.580
12294SOL    HW138714  14.167   8.914  11.542
12294SOL    HW238715  14.306   8.943  11.595
12295SOL     OW38716   9.514   0.097   7.616
12295SOL    HW138717   9.552   0.113   7.530
12295SOL    HW238718   9.590   0.084   7.674
12296SOL     OW38719   2.385   3.777   8.977
12296SOL    HW138720   2.353   3.785   9.066
12296SOL    HW238721   2.475   3.808   8.981
12297SOL     OW38722   1.940   4.030   3.617
12297SOL    HW138723   1.849   4.027   3.587
12297SOL    HW238724   1.949   3.955   3.674
12298SOL     OW38725  10.545  10.192  12.490
12298SOL    HW138726  10.475  10.127  12.488
12298SOL    HW238727  10.515  10.257  12.554
12299SOL     OW38728   1.185   1.635   8.497
12299SOL    HW138729   1.206   1.634   8.590
12299SOL    HW238730   1.089   1.638   8.494
12300SOL     OW38731  11.544  10.260  14.068
12300SOL    HW138732  11.456  10.283  14.099
12300SOL    HW238733  11.538  10.265  13.973
12301SOL     OW38734  11.168  13.774  13.839
12301SOL    HW138735  11.212  13.728  13.910
12301SOL    HW238736  11.194  13.728  13.759
12302SOL     OW38737   0.284   8.454  14.257
12302SOL    HW138738   0.240   8.536  14.236
12302SOL    HW238739   0.237   8.420  14.334
12303SOL     OW38740  10.600   1.725  10.028
12303SOL    HW138741  10.556   1.731  10.112
12303SOL    HW238742  10.531   1.736   9.963
12304SOL     OW38743   4.849  12.535   7.212
12304SOL    HW138744   4.881  12.471   7.148
12304SOL    HW238745   4.862  12.492   7.297
12305SOL     OW38746   8.236   1.912   1.769
12305SOL    HW138747   8.276   1.982   1.820
12305SOL    HW238748   8.310   1.856   1.744
12306SOL     OW38749   6.571   8.985   8.150
12306SOL    HW138750   6.481   9.017   8.163
12306SOL    HW238751   6.579   8.910   8.209
12307SOL     OW38752   6.118   0.726  13.419
12307SOL    HW138753   6.068   0.781  13.479
12307SOL    HW238754   6.181   0.680  13.474
12308SOL     OW38755   5.233   2.968   1.057
12308SOL    HW138756   5.256   3.012   0.975
12308SOL    HW238757   5.197   3.037   1.112
12309SOL     OW38758  12.115   1.679  11.679
12309SOL    HW138759  12.048   1.723  11.628
12309SOL    HW238760  12.130   1.596  11.633
12310SOL     OW38761   9.167   5.965  10.935
12310SOL    HW138762   9.221   5.899  10.890
12310SOL    HW238763   9.230   6.018  10.983
12311SOL     OW38764   9.093   5.208   6.676
12311SOL    HW138765   9.091   5.273   6.746
12311SOL    HW238766   9.183   5.175   6.676
12312SOL     OW38767   6.597   7.312   0.429
12312SOL    HW138768   6.621   7.262   0.351
12312SOL    HW238769   6.554   7.248   0.486
12313SOL     OW38770   4.815  10.992   3.079
12313SOL    HW138771   4.770  10.912   3.107
12313SOL    HW238772   4.908  10.973   3.091
12314SOL     OW38773  13.417   8.430   6.201
12314SOL    HW138774  13.498   8.444   6.150
12314SOL    HW238775  13.362   8.377   6.144
12315SOL     OW38776   7.505   7.977   3.639
12315SOL    HW138777   7.452   8.017   3.570
12315SOL    HW238778   7.543   7.900   3.597
12316SOL     OW38779   8.419   6.648  13.990
12316SOL    HW138780   8.383   6.648  14.079
12316SOL    HW238781   8.480   6.721  13.990
12317SOL     OW38782   7.568  10.635  12.321
12317SOL    HW138783   7.592  10.643  12.228
12317SOL    HW238784   7.634  10.687  12.367
12318SOL     OW38785   5.072  14.336   2.553
12318SOL    HW138786   5.120  14.297   2.481
12318SOL    HW238787   5.123  14.413   2.578
12319SOL     OW38788   8.668  11.265  12.418
12319SOL    HW138789   8.717  11.344  12.396
12319SOL    HW238790   8.651  11.274  12.512
12320SOL     OW38791   3.261   9.630   7.035
12320SOL    HW138792   3.172   9.641   7.001
12320SOL    HW238793   3.317   9.640   6.959
12321SOL     OW38794   6.252   6.048  10.647
12321SOL    HW138795   6.184   5.983  10.669
12321SOL    HW238796   6.326   5.995  10.615
12322SOL     OW38797   2.682   4.301  10.833
12322SOL    HW138798   2.685   4.357  10.910
12322SOL    HW238799   2.588   4.292  10.813
12323SOL     OW38800   7.064   2.990  14.437
12323SOL    HW138801   7.042   2.908  14.481
12323SOL    HW238802   7.150   2.973  14.397
12324SOL     OW38803   1.529   5.373   9.571
12324SOL    HW138804   1.553   5.384   9.478
12324SOL    HW238805   1.595   5.423   9.619
12325SOL     OW38806  14.627   5.230   3.220
12325SOL    HW138807  14.658   5.314   3.188
12325SOL    HW238808  14.674   5.165   3.167
12326SOL     OW38809   0.028   4.114   5.476
12326SOL    HW138810   0.011   4.168   5.399
12326SOL    HW238811  14.841   4.040   5.467
12327SOL     OW38812   4.853   1.245   8.836
12327SOL    HW138813   4.777   1.292   8.802
12327SOL    HW238814   4.928   1.297   8.809
12328SOL     OW38815   8.200   9.772   2.712
12328SOL    HW138816   8.235   9.745   2.798
12328SOL    HW238817   8.235   9.707   2.651
12329SOL     OW38818   4.716   8.313   4.698
12329SOL    HW138819   4.674   8.383   4.648
12329SOL    HW238820   4.748   8.252   4.632
12330SOL     OW38821  10.399  14.580   2.320
12330SOL    HW138822  10.490  14.582   2.349
12330SOL    HW238823  10.366  14.497   2.353
12331SOL     OW38824   6.927   4.068   0.086
12331SOL    HW138825   6.968   4.008   0.148
12331SOL    HW238826   6.900   4.143   0.139
12332SOL     OW38827   5.662  13.540   1.859
12332SOL    HW138828   5.575  13.529   1.898
12332SOL    HW238829   5.720  13.553   1.934
12333SOL     OW38830  13.830   1.197   7.099
12333SOL    HW138831  13.874   1.268   7.145
12333SOL    HW238832  13.737   1.212   7.114
12334SOL     OW38833   5.350   9.095  10.106
12334SOL    HW138834   5.306   9.121  10.187
12334SOL    HW238835   5.334   9.001  10.099
12335SOL     OW38836   1.763   0.849   2.483
12335SOL    HW138837   1.732   0.938   2.497
12335SOL    HW238838   1.851   0.861   2.445
12336SOL     OW38839  10.333  13.959   0.509
12336SOL    HW138840  10.299  14.015   0.439
12336SOL    HW238841  10.298  13.872   0.488
12337SOL     OW38842  13.620   5.871   0.185
12337SOL    HW138843  13.602   5.802   0.121
12337SOL    HW238844  13.697   5.841   0.233
12338SOL     OW38845   3.165  11.058   8.297
12338SOL    HW138846   3.153  10.994   8.227
12338SOL    HW238847   3.103  11.128   8.276
12339SOL     OW38848   9.309   9.074   0.518
12339SOL    HW138849   9.362   9.003   0.483
12339SOL    HW238850   9.313   9.064   0.613
12340SOL     OW38851   1.409  13.280   8.365
12340SOL    HW138852   1.347  13.346   8.336
12340SOL    HW238853   1.367  13.240   8.442
12341SOL     OW38854   4.013  10.742   0.530
12341SOL    HW138855   3.989  10.649   0.535
12341SOL    HW238856   4.089  10.743   0.472
12342SOL     OW38857  11.825  14.106   1.565
12342SOL    HW138858  11.731  14.104   1.549
12342SOL    HW238859  11.859  14.030   1.517
12343SOL     OW38860   8.919   5.478   9.602
12343SOL    HW138861   8.942   5.559   9.647
12343SOL    HW238862   9.002   5.432   9.590
12344SOL     OW38863  11.388   7.158   2.226
12344SOL    HW138864  11.410   7.067   2.248
12344SOL    HW238865  11.364   7.197   2.310
12345SOL     OW38866   1.097   7.739   0.396
12345SOL    HW138867   1.037   7.717   0.324
12345SOL    HW238868   1.184   7.737   0.357
12346SOL     OW38869  10.330   0.304   8.912
12346SOL    HW138870  10.369   0.360   8.845
12346SOL    HW238871  10.242   0.286   8.881
12347SOL     OW38872   1.527  12.420   4.236
12347SOL    HW138873   1.453  12.431   4.297
12347SOL    HW238874   1.491  12.367   4.165
12348SOL     OW38875   8.543   1.778  10.280
12348SOL    HW138876   8.598   1.756  10.204
12348SOL    HW238877   8.495   1.856  10.253
12349SOL     OW38878   7.818   6.342  14.685
12349SOL    HW138879   7.771   6.273  14.732
12349SOL    HW238880   7.898   6.301  14.655
12350SOL     OW38881   6.337  10.693  11.324
12350SOL    HW138882   6.267  10.684  11.388
12350SOL    HW238883   6.418  10.684  11.374
12351SOL     OW38884   5.321  11.285   9.756
12351SOL    HW138885   5.413  11.310   9.767
12351SOL    HW238886   5.277  11.324   9.832
12352SOL     OW38887  10.497   6.593   5.533
12352SOL    HW138888  10.550   6.617   5.609
12352SOL    HW238889  10.492   6.674   5.482
12353SOL     OW38890   9.442  10.458   2.671
12353SOL    HW138891   9.454  10.374   2.714
12353SOL    HW238892   9.516  10.465   2.610
12354SOL     OW38893   7.607  12.367   0.235
12354SOL    HW138894   7.688  12.402   0.272
12354SOL    HW238895   7.559  12.443   0.204
12355SOL     OW38896   4.496   6.894   6.001
12355SOL    HW138897   4.513   6.814   5.952
12355SOL    HW238898   4.508   6.869   6.093
12356SOL     OW38899   2.400   1.901   3.718
12356SOL    HW138900   2.392   1.943   3.803
12356SOL    HW238901   2.311   1.904   3.681
12357SOL     OW38902   3.569  14.485  14.869
12357SOL    HW138903   3.644  14.444  14.826
12357SOL    HW238904   3.505  14.414   0.006
12358SOL     OW38905   0.879   2.703   6.227
12358SOL    HW138906   0.820   2.649   6.173
12358SOL    HW238907   0.916   2.642   6.290
12359SOL     OW38908   7.433   9.813   8.090
12359SOL    HW138909   7.488   9.890   8.071
12359SOL    HW238910   7.345   9.839   8.062
12360SOL     OW38911   4.153   3.848   9.016
12360SOL    HW138912   4.076   3.864   9.071
12360SOL    HW238913   4.225   3.837   9.079
12361SOL     OW38914   5.036   8.117   7.012
12361SOL    HW138915   5.002   8.130   7.101
12361SOL    HW238916   4.966   8.070   6.966
12362SOL     OW38917   6.841   8.790   1.884
12362SOL    HW138918   6.748   8.792   1.862
12362SOL    HW238919   6.851   8.854   1.953
12363SOL     OW38920   9.823   4.477  14.068
12363SOL    HW138921   9.853   4.495  13.978
12363SOL    HW238922   9.904   4.470  14.119
12364SOL     OW38923   1.845   5.001   6.920
12364SOL    HW138924   1.832   5.048   7.003
12364SOL    HW238925   1.923   4.947   6.935
12365SOL     OW38926  10.717  12.227   1.704
12365SOL    HW138927  10.681  12.289   1.768
12365SOL    HW238928  10.686  12.141   1.735
12366SOL     OW38929   5.150   0.582   9.324
12366SOL    HW138930   5.125   0.489   9.321
12366SOL    HW238931   5.246   0.580   9.326
12367SOL     OW38932   7.188   4.342   9.679
12367SOL    HW138933   7.210   4.434   9.695
12367SOL    HW238934   7.099   4.332   9.713
12368SOL     OW38935  14.864   6.489   7.584
12368SOL    HW138936  14.870   6.567   7.640
12368SOL    HW238937   0.013   6.521   7.496
12369SOL     OW38938   7.131   6.128  14.331
12369SOL    HW138939   7.102   6.064  14.266
12369SOL    HW238940   7.089   6.210  14.304
12370SOL     OW38941   1.287   0.250   4.614
12370SOL    HW138942   1.230   0.187   4.571
12370SOL    HW238943   1.290   0.325   4.555
12371SOL     OW38944   9.423   2.848  12.185
12371SOL    HW138945   9.403   2.775  12.126
12371SOL    HW238946   9.501   2.820  12.233
12372SOL     OW38947   9.776   0.846   9.248
12372SOL    HW138948   9.703   0.849   9.310
12372SOL    HW238949   9.751   0.906   9.178
12373SOL     OW38950   7.810  13.297   2.296
12373SOL    HW138951   7.794  13.277   2.203
12373SOL    HW238952   7.876  13.365   2.294
12374SOL     OW38953   5.784   7.053   8.691
12374SOL    HW138954   5.838   7.104   8.630
12374SOL    HW238955   5.793   6.963   8.662
12375SOL     OW38956   8.278   4.956   0.224
12375SOL    HW138957   8.328   4.952   0.306
12375SOL    HW238958   8.343   4.984   0.158
12376SOL     OW38959  10.059   8.525   3.950
12376SOL    HW138960  10.005   8.598   3.919
12376SOL    HW238961  10.011   8.489   4.025
12377SOL     OW38962   2.551   8.679  13.848
12377SOL    HW138963   2.524   8.769  13.862
12377SOL    HW238964   2.645   8.679  13.867
12378SOL     OW38965  10.744   9.019  13.482
12378SOL    HW138966  10.768   8.961  13.409
12378SOL    HW238967  10.759   9.107  13.448
12379SOL     OW38968   8.549   5.047   7.459
12379SOL    HW138969   8.516   5.128   7.499
12379SOL    HW238970   8.486   5.027   7.390
12380SOL     OW38971   2.339   9.087   3.241
12380SOL    HW138972   2.394   9.089   3.319
12380SOL    HW238973   2.266   9.146   3.260
12381SOL     OW38974   8.891   4.963  12.122
12381SOL    HW138975   8.803   4.941  12.152
12381SOL    HW238976   8.942   4.883  12.135
12382SOL     OW38977   2.345   4.872   3.583
12382SOL    HW138978   2.403   4.840   3.652
12382SOL    HW238979   2.378   4.959   3.561
12383SOL     OW38980   6.155  11.548   8.405
12383SOL    HW138981   6.198  11.572   8.324
12383SOL    HW238982   6.061  11.553   8.385
12384SOL     OW38983  10.710  13.407   0.757
12384SOL    HW138984  10.673  13.485   0.716
12384SOL    HW238985  10.785  13.384   0.702
12385SOL     OW38986  14.480   6.006   0.738
12385SOL    HW138987  14.389   6.022   0.765
12385SOL    HW238988  14.473   5.973   0.648
12386SOL     OW38989   4.622  10.797   9.817
12386SOL    HW138990   4.660  10.883   9.799
12386SOL    HW238991   4.535  10.816   9.851
12387SOL     OW38992   9.545  12.601  11.151
12387SOL    HW138993   9.581  12.554  11.076
12387SOL    HW238994   9.494  12.672  11.113
12388SOL     OW38995   6.033   5.644   6.346
12388SOL    HW138996   6.115   5.678   6.380
12388SOL    HW238997   6.054   5.612   6.259
12389SOL     OW38998   3.337   8.229   6.357
12389SOL    HW138999   3.278   8.218   6.431
12389SOL    HW239000   3.420   8.191   6.386
12390SOL     OW39001   9.909  13.978   4.079
12390SOL    HW139002   9.945  13.918   4.013
12390SOL    HW239003   9.932  13.938   4.163
12391SOL     OW39004   2.294   1.334   6.434
12391SOL    HW139005   2.230   1.312   6.502
12391SOL    HW239006   2.362   1.384   6.481
12392SOL     OW39007   1.314   1.714  12.929
12392SOL    HW139008   1.368   1.636  12.918
12392SOL    HW239009   1.284   1.710  13.020
12393SOL     OW39010   6.612   4.792   4.906
12393SOL    HW139011   6.680   4.752   4.852
12393SOL    HW239012   6.660   4.843   4.971
12394SOL     OW39013  13.877  13.409   2.234
12394SOL    HW139014  13.801  13.356   2.260
12394SOL    HW239015  13.953  13.360   2.266
12395SOL     OW39016   5.909   7.266   6.468
12395SOL    HW139017   5.852   7.204   6.514
12395SOL    HW239018   5.924   7.227   6.382
12396SOL     OW39019   3.252   8.710   2.459
12396SOL    HW139020   3.283   8.745   2.376
12396SOL    HW239021   3.165   8.749   2.471
12397SOL     OW39022   0.844   7.459   4.519
12397SOL    HW139023   0.802   7.391   4.466
12397SOL    HW239024   0.930   7.471   4.478
12398SOL     OW39025  14.557  11.937   6.397
12398SOL    HW139026  14.596  11.976   6.319
12398SOL    HW239027  14.464  11.957   6.390
12399SOL     OW39028  11.878  14.557  11.764
12399SOL    HW139029  11.972  14.541  11.775
12399SOL    HW239030  11.849  14.488  11.704
12400SOL     OW39031   7.700   0.222   2.694
12400SOL    HW139032   7.749   0.298   2.726
12400SOL    HW239033   7.609   0.245   2.710
12401SOL     OW39034  13.641   3.767  12.512
12401SOL    HW139035  13.551   3.782  12.483
12401SOL    HW239036  13.666   3.848  12.557
12402SOL     OW39037   6.106   7.281   7.475
12402SOL    HW139038   6.160   7.271   7.553
12402SOL    HW239039   6.031   7.225   7.491
12403SOL     OW39040   3.938   0.521   0.338
12403SOL    HW139041   3.871   0.528   0.406
12403SOL    HW239042   3.899   0.564   0.261
12404SOL     OW39043   0.932   1.822   0.200
12404SOL    HW139044   1.024   1.809   0.176
12404SOL    HW239045   0.883   1.797   0.122
12405SOL     OW39046   5.715   1.058   5.605
12405SOL    HW139047   5.631   1.103   5.601
12405SOL    HW239048   5.773   1.109   5.548
12406SOL     OW39049   1.411   5.659   4.979
12406SOL    HW139050   1.337   5.669   5.039
12406SOL    HW239051   1.481   5.712   5.018
12407SOL     OW39052   0.904   3.884   0.262
12407SOL    HW139053   0.909   3.877   0.358
12407SOL    HW239054   0.990   3.919   0.237
12408SOL     OW39055   7.403  14.821   9.595
12408SOL    HW139056   7.369  14.846   9.509
12408SOL    HW239057   7.387  14.727   9.601
12409SOL     OW39058   3.617  14.626  10.639
12409SOL    HW139059   3.555  14.553  10.639
12409SOL    HW239060   3.562  14.704  10.647
12410SOL     OW39061   2.049  13.198  11.711
12410SOL    HW139062   2.016  13.268  11.767
12410SOL    HW239063   2.026  13.117  11.757
12411SOL     OW39064   7.120  10.967  10.673
12411SOL    HW139065   7.080  10.889  10.635
12411SOL    HW239066   7.169  11.006  10.601
12412SOL     OW39067  13.860   4.988   4.023
12412SOL    HW139068  13.944   4.952   3.994
12412SOL    HW239069  13.866   4.988   4.119
12413SOL     OW39070  12.191   1.269  13.919
12413SOL    HW139071  12.184   1.265  14.015
12413SOL    HW239072  12.100   1.278  13.889
12414SOL     OW39073   2.648  12.834   4.429
12414SOL    HW139074   2.743  12.839   4.416
12414SOL    HW239075   2.611  12.881   4.355
12415SOL     OW39076  13.304   7.899   1.961
12415SOL    HW139077  13.345   7.963   2.020
12415SOL    HW239078  13.216   7.934   1.945
12416SOL     OW39079   1.383   9.796  13.638
12416SOL    HW139080   1.396   9.720  13.581
12416SOL    HW239081   1.302   9.836  13.607
12417SOL     OW39082   5.393   3.240   4.613
12417SOL    HW139083   5.344   3.297   4.554
12417SOL    HW239084   5.457   3.196   4.557
12418SOL     OW39085   0.138   3.670  13.838
12418SOL    HW139086   0.050   3.635  13.823
12418SOL    HW239087   0.182   3.603  13.889
12419SOL     OW39088   0.078  14.560   7.696
12419SOL    HW139089   0.045  14.604   7.618
12419SOL    HW239090   0.155  14.610   7.722
12420SOL     OW39091   1.100   8.310   5.771
12420SOL    HW139092   1.069   8.393   5.805
12420SOL    HW239093   1.028   8.249   5.786
12421SOL     OW39094   6.161  12.607   7.603
12421SOL    HW139095   6.156  12.703   7.604
12421SOL    HW239096   6.233  12.586   7.662
12422SOL     OW39097   0.005   6.641   2.335
12422SOL    HW139098  14.802   6.583   2.323
12422SOL    HW239099  14.867   6.676   2.424
12423SOL     OW39100  12.084  10.654  12.905
12423SOL    HW139101  12.026  10.606  12.845
12423SOL    HW239102  12.032  10.729  12.933
12424SOL     OW39103   2.725   2.079   2.424
12424SOL    HW139104   2.802   2.023   2.431
12424SOL    HW239105   2.752   2.151   2.367
12425SOL     OW39106   1.415   1.971   5.779
12425SOL    HW139107   1.371   2.023   5.711
12425SOL    HW239108   1.382   1.882   5.765
12426SOL     OW39109   5.125  12.921   0.210
12426SOL    HW139110   5.069  12.996   0.192
12426SOL    HW239111   5.175  12.909   0.129
12427SOL     OW39112  14.088   5.600   3.182
12427SOL    HW139113  14.152   5.562   3.122
12427SOL    HW239114  14.140   5.634   3.254
12428SOL     OW39115   3.562   3.142   5.651
12428SOL    HW139116   3.506   3.085   5.705
12428SOL    HW239117   3.566   3.224   5.699
12429SOL     OW39118   2.369   4.735  10.010
12429SOL    HW139119   2.402   4.824  10.003
12429SOL    HW239120   2.391   4.694   9.926
12430SOL     OW39121  10.071   8.229   4.139
12430SOL    HW139122  10.089   8.141   4.171
12430SOL    HW239123  10.146   8.281   4.169
12431SOL     OW39124  11.226   9.841   6.122
12431SOL    HW139125  11.284   9.767   6.140
12431SOL    HW239126  11.141   9.802   6.104
12432SOL     OW39127   4.372  14.431  14.693
12432SOL    HW139128   4.390  14.479  14.612
12432SOL    HW239129   4.351  14.498  14.757
12433SOL     OW39130  14.316   9.159   0.397
12433SOL    HW139131  14.257   9.220   0.352
12433SOL    HW239132  14.342   9.207   0.477
12434SOL     OW39133   6.197  10.021   5.939
12434SOL    HW139134   6.120  10.077   5.935
12434SOL    HW239135   6.264  10.075   5.981
12435SOL     OW39136  11.983  14.273   4.138
12435SOL    HW139137  12.011  14.357   4.100
12435SOL    HW239138  11.888  14.271   4.125
12436SOL     OW39139   5.060   8.618   1.129
12436SOL    HW139140   5.038   8.711   1.129
12436SOL    HW239141   5.016   8.583   1.205
12437SOL     OW39142   6.847   8.897   1.310
12437SOL    HW139143   6.931   8.926   1.346
12437SOL    HW239144   6.824   8.819   1.360
12438SOL     OW39145   7.275   7.269   1.171
12438SOL    HW139146   7.361   7.293   1.206
12438SOL    HW239147   7.256   7.184   1.210
12439SOL     OW39148  12.316  13.619  10.394
12439SOL    HW139149  12.274  13.704  10.395
12439SOL    HW239150  12.352  13.608  10.482
12440SOL     OW39151   2.061   8.599   1.960
12440SOL    HW139152   2.035   8.562   1.876
12440SOL    HW239153   2.011   8.681   1.967
12441SOL     OW39154   3.169   3.337  14.784
12441SOL    HW139155   3.192   3.400  14.716
12441SOL    HW239156   3.152   3.255  14.736
12442SOL     OW39157   9.806  12.698  10.235
12442SOL    HW139158   9.830  12.769  10.295
12442SOL    HW239159   9.806  12.739  10.148
12443SOL     OW39160  13.811   0.280  10.070
12443SOL    HW139161  13.823   0.222  10.145
12443SOL    HW239162  13.898   0.286  10.030
12444SOL     OW39163  13.026  12.521  13.696
12444SOL    HW139164  13.117  12.492  13.690
12444SOL    HW239165  13.029  12.614  13.673
12445SOL     OW39166  12.868  10.065   4.686
12445SOL    HW139167  12.868  10.161   4.690
12445SOL    HW239168  12.875  10.045   4.593
12446SOL     OW39169   1.831  12.192   5.140
12446SOL    HW139170   1.859  12.107   5.105
12446SOL    HW239171   1.763  12.221   5.080
12447SOL     OW39172   7.477   3.650  12.406
12447SOL    HW139173   7.390   3.624  12.376
12447SOL    HW239174   7.463   3.734  12.449
12448SOL     OW39175   6.524  13.451   3.313
12448SOL    HW139176   6.503  13.464   3.220
12448SOL    HW239177   6.503  13.535   3.354
12449SOL     OW39178  14.640   1.571   0.568
12449SOL    HW139179  14.577   1.569   0.497
12449SOL    HW239180  14.589   1.594   0.646
12450SOL     OW39181  12.288   6.391   6.155
12450SOL    HW139182  12.219   6.416   6.093
12450SOL    HW239183  12.362   6.366   6.100
12451SOL     OW39184   2.549  11.691  12.660
12451SOL    HW139185   2.455  11.679  12.646
12451SOL    HW239186   2.575  11.756  12.595
12452SOL     OW39187  11.952   2.192   9.399
12452SOL    HW139188  11.979   2.100   9.393
12452SOL    HW239189  12.025   2.241   9.361
12453SOL     OW39190  12.538   8.068   7.473
12453SOL    HW139191  12.447   8.052   7.497
12453SOL    HW239192  12.533   8.136   7.405
12454SOL     OW39193   4.098   7.412  11.334
12454SOL    HW139194   4.120   7.319  11.344
12454SOL    HW239195   4.033   7.428  11.401
12455SOL     OW39196   9.039  13.531  14.331
12455SOL    HW139197   8.990  13.587  14.391
12455SOL    HW239198   8.988  13.450  14.328
12456SOL     OW39199   9.830   2.475   1.330
12456SOL    HW139200   9.797   2.444   1.415
12456SOL    HW239201   9.922   2.452   1.330
12457SOL     OW39202  11.060   3.398  10.745
12457SOL    HW139203  11.036   3.452  10.669
12457SOL    HW239204  11.154   3.384  10.735
12458SOL     OW39205   3.019   5.443  10.242
12458SOL    HW139206   2.941   5.455  10.188
12458SOL    HW239207   2.997   5.482  10.326
12459SOL     OW39208   5.902   7.575  14.411
12459SOL    HW139209   5.919   7.494  14.459
12459SOL    HW239210   5.955   7.567  14.331
12460SOL     OW39211  11.611  11.876   9.349
12460SOL    HW139212  11.626  11.926   9.268
12460SOL    HW239213  11.639  11.934   9.419
12461SOL     OW39214   6.421  14.215  10.248
12461SOL    HW139215   6.510  14.244  10.229
12461SOL    HW239216   6.365  14.289  10.226
12462SOL     OW39217   0.613   5.063   8.073
12462SOL    HW139218   0.618   5.041   8.166
12462SOL    HW239219   0.576   5.152   8.071
12463SOL     OW39220  12.363   2.749  11.294
12463SOL    HW139221  12.359   2.840  11.265
12463SOL    HW239222  12.456   2.727  11.288
12464SOL     OW39223   4.580   3.482  10.393
12464SOL    HW139224   4.566   3.574  10.414
12464SOL    HW239225   4.553   3.436  10.473
12465SOL     OW39226   4.709   3.085  10.260
12465SOL    HW139227   4.725   3.128  10.175
12465SOL    HW239228   4.796   3.064  10.293
12466SOL     OW39229   9.370   1.087  12.460
12466SOL    HW139230   9.457   1.053  12.481
12466SOL    HW239231   9.312   1.043  12.522
12467SOL     OW39232   6.353   8.037   6.604
12467SOL    HW139233   6.333   8.117   6.651
12467SOL    HW239234   6.268   7.993   6.594
12468SOL     OW39235  10.492   8.092   2.184
12468SOL    HW139236  10.569   8.065   2.234
12468SOL    HW239237  10.420   8.091   2.248
12469SOL     OW39238   7.711   0.142   8.123
12469SOL    HW139239   7.687   0.104   8.207
12469SOL    HW239240   7.715   0.068   8.063
12470SOL     OW39241  12.905   3.361   3.926
12470SOL    HW139242  12.822   3.316   3.916
12470SOL    HW239243  12.955   3.339   3.848
12471SOL     OW39244   0.604   9.211   4.142
12471SOL    HW139245   0.685   9.170   4.171
12471SOL    HW239246   0.544   9.138   4.126
12472SOL     OW39247   3.201  13.004   8.468
12472SOL    HW139248   3.170  13.016   8.378
12472SOL    HW239249   3.242  13.087   8.491
12473SOL     OW39250  12.003   7.668   4.242
12473SOL    HW139251  11.956   7.695   4.162
12473SOL    HW239252  12.046   7.748   4.272
12474SOL     OW39253  11.267  12.316   2.417
12474SOL    HW139254  11.211  12.266   2.477
12474SOL    HW239255  11.324  12.250   2.377
12475SOL     OW39256   8.882   2.926   9.135
12475SOL    HW139257   8.809   2.988   9.125
12475SOL    HW239258   8.910   2.908   9.046
12476SOL     OW39259   3.198   8.986  11.756
12476SOL    HW139260   3.165   9.076  11.757
12476SOL    HW239261   3.251   8.980  11.676
12477SOL     OW39262  13.670   8.502  10.726
12477SOL    HW139263  13.620   8.424  10.704
12477SOL    HW239264  13.607   8.574  10.716
12478SOL     OW39265   8.591  12.590   0.441
12478SOL    HW139266   8.676  12.617   0.476
12478SOL    HW239267   8.529  12.608   0.512
12479SOL     OW39268   0.979   4.026  12.053
12479SOL    HW139269   0.997   3.933  12.041
12479SOL    HW239270   1.024   4.048  12.135
12480SOL     OW39271  11.283   7.277   6.590
12480SOL    HW139272  11.196   7.314   6.573
12480SOL    HW239273  11.328   7.281   6.506
12481SOL     OW39274   4.566  13.028   1.165
12481SOL    HW139275   4.546  13.042   1.257
12481SOL    HW239276   4.481  13.014   1.123
12482SOL     OW39277   4.879  12.754  14.830
12482SOL    HW139278   4.970  12.784  14.828
12482SOL    HW239279   4.870  12.701  14.751
12483SOL     OW39280   2.146   6.974  12.889
12483SOL    HW139281   2.225   7.025  12.905
12483SOL    HW239282   2.177   6.891  12.854
12484SOL     OW39283  10.993  10.267  10.982
12484SOL    HW139284  10.930  10.282  10.912
12484SOL    HW239285  11.063  10.217  10.941
12485SOL     OW39286  10.745   8.147   0.729
12485SOL    HW139287  10.755   8.203   0.652
12485SOL    HW239288  10.816   8.083   0.722
12486SOL     OW39289   6.945   7.662   9.946
12486SOL    HW139290   6.941   7.571   9.916
12486SOL    HW239291   6.898   7.662  10.029
12487SOL     OW39292  10.711  10.537  13.153
12487SOL    HW139293  10.688  10.569  13.241
12487SOL    HW239294  10.705  10.614  13.097
12488SOL     OW39295   1.048   3.198   0.802
12488SOL    HW139296   1.142   3.186   0.795
12488SOL    HW239297   1.037   3.261   0.874
12489SOL     OW39298   2.336  13.913  14.177
12489SOL    HW139299   2.249  13.890  14.212
12489SOL    HW239300   2.366  13.832  14.135
12490SOL     OW39301   7.263  12.682  14.602
12490SOL    HW139302   7.306  12.657  14.520
12490SOL    HW239303   7.284  12.610  14.662
12491SOL     OW39304   2.534  13.385   7.450
12491SOL    HW139305   2.458  13.332   7.426
12491SOL    HW239306   2.516  13.471   7.413
12492SOL     OW39307  13.268   8.158   9.853
12492SOL    HW139308  13.262   8.178   9.759
12492SOL    HW239309  13.308   8.236   9.891
12493SOL     OW39310   7.957   0.637   6.100
12493SOL    HW139311   7.919   0.555   6.131
12493SOL    HW239312   7.929   0.703   6.163
12494SOL     OW39313   0.992   4.432   2.799
12494SOL    HW139314   1.074   4.397   2.835
12494SOL    HW239315   0.957   4.361   2.744
12495SOL     OW39316   7.224   2.379   2.129
12495SOL    HW139317   7.314   2.351   2.115
12495SOL    HW239318   7.173   2.298   2.133
12496SOL     OW39319   4.248  13.233   9.964
12496SOL    HW139320   4.168  13.181   9.973
12496SOL    HW239321   4.264  13.236   9.870
12497SOL     OW39322   7.931   5.002   2.095
12497SOL    HW139323   7.854   4.946   2.083
12497SOL    HW239324   7.899   5.078   2.143
12498SOL     OW39325  13.279  14.072  14.227
12498SOL    HW139326  13.350  14.011  14.250
12498SOL    HW239327  13.224  14.077  14.305
12499SOL     OW39328   0.009  10.825  11.749
12499SOL    HW139329   0.020  10.763  11.821
12499SOL    HW239330   0.007  10.770  11.671
12500SOL     OW39331   5.955  13.680  10.281
12500SOL    HW139332   5.881  13.729  10.318
12500SOL    HW239333   5.925  13.589  10.278
12501SOL     OW39334   3.187   0.154   0.836
12501SOL    HW139335   3.110   0.193   0.877
12501SOL    HW239336   3.161   0.140   0.744
12502SOL     OW39337   9.008   5.079   8.081
12502SOL    HW139338   9.031   5.080   8.174
12502SOL    HW239339   8.947   5.152   8.071
12503SOL     OW39340   9.888  13.432   1.075
12503SOL    HW139341   9.862  13.360   1.017
12503SOL    HW239342   9.980  13.449   1.052
12504SOL     OW39343   7.619   0.629  10.679
12504SOL    HW139344   7.581   0.608  10.765
12504SOL    HW239345   7.713   0.638  10.696
12505SOL     OW39346   3.962   0.721   7.455
12505SOL    HW139347   3.967   0.651   7.390
12505SOL    HW239348   3.879   0.765   7.437
12506SOL     OW39349   3.801  11.081  12.414
12506SOL    HW139350   3.872  11.033  12.456
12506SOL    HW239351   3.831  11.172  12.413
12507SOL     OW39352   9.345   7.677  14.445
12507SOL    HW139353   9.307   7.693  14.358
12507SOL    HW239354   9.269   7.658  14.501
12508SOL     OW39355  13.136   6.846  10.267
12508SOL    HW139356  13.041   6.841  10.276
12508SOL    HW239357  13.153   6.937  10.241
12509SOL     OW39358   0.400  11.633  11.732
12509SOL    HW139359   0.305  11.621  11.741
12509SOL    HW239360   0.430  11.551  11.693
12510SOL     OW39361   3.223   4.368   4.242
12510SOL    HW139362   3.162   4.431   4.282
12510SOL    HW239363   3.289   4.423   4.201
12511SOL     OW39364   1.857   7.166  13.788
12511SOL    HW139365   1.889   7.093  13.734
12511SOL    HW239366   1.920   7.171  13.860
12512SOL     OW39367   7.260   2.428  12.965
12512SOL    HW139368   7.346   2.426  13.007
12512SOL    HW239369   7.204   2.474  13.028
12513SOL     OW39370   6.695  13.823   0.029
12513SOL    HW139371   6.695  13.867   0.113
12513SOL    HW239372   6.603  13.802   0.013
12514SOL     OW39373   3.871   4.671  13.693
12514SOL    HW139374   3.862   4.590  13.743
12514SOL    HW239375   3.897   4.643  13.605
12515SOL     OW39376   8.162   2.663   5.177
12515SOL    HW139377   8.235   2.664   5.239
12515SOL    HW239378   8.160   2.751   5.140
12516SOL     OW39379  11.167   9.703   8.065
12516SOL    HW139380  11.128   9.757   7.996
12516SOL    HW239381  11.093   9.666   8.112
12517SOL     OW39382   4.592   7.585   1.484
12517SOL    HW139383   4.536   7.620   1.554
12517SOL    HW239384   4.623   7.662   1.437
12518SOL     OW39385   7.595  12.011   0.976
12518SOL    HW139386   7.559  12.086   0.929
12518SOL    HW239387   7.561  12.020   1.065
12519SOL     OW39388  13.291   2.873  11.444
12519SOL    HW139389  13.356   2.935  11.412
12519SOL    HW239390  13.343   2.804  11.487
12520SOL     OW39391  10.356  10.752   3.884
12520SOL    HW139392  10.342  10.658   3.873
12520SOL    HW239393  10.427  10.772   3.822
12521SOL     OW39394   0.745  10.985  14.272
12521SOL    HW139395   0.807  11.032  14.329
12521SOL    HW239396   0.743  10.896  14.307
12522SOL     OW39397   0.553   1.334   4.391
12522SOL    HW139398   0.585   1.424   4.390
12522SOL    HW239399   0.600   1.291   4.319
12523SOL     OW39400   5.277   3.537   2.750
12523SOL    HW139401   5.342   3.483   2.795
12523SOL    HW239402   5.240   3.592   2.819
12524SOL     OW39403  11.694   6.752   8.230
12524SOL    HW139404  11.628   6.685   8.248
12524SOL    HW239405  11.744   6.759   8.311
12525SOL     OW39406  12.294   7.883   7.357
12525SOL    HW139407  12.364   7.879   7.292
12525SOL    HW239408  12.220   7.921   7.310
12526SOL     OW39409   2.369   9.799   9.273
12526SOL    HW139410   2.328   9.717   9.247
12526SOL    HW239411   2.297   9.856   9.298
12527SOL     OW39412   7.835   9.583   2.899
12527SOL    HW139413   7.806   9.645   2.832
12527SOL    HW239414   7.812   9.497   2.863
12528SOL     OW39415  14.551   7.096  10.119
12528SOL    HW139416  14.523   7.069  10.032
12528SOL    HW239417  14.481   7.155  10.149
12529SOL     OW39418   8.900  13.896   9.338
12529SOL    HW139419   8.930  13.814   9.378
12529SOL    HW239420   8.875  13.871   9.249
12530SOL     OW39421   2.456  12.101   4.597
12530SOL    HW139422   2.450  12.112   4.692
12530SOL    HW239423   2.389  12.160   4.562
12531SOL     OW39424   2.585  12.707   1.325
12531SOL    HW139425   2.570  12.778   1.387
12531SOL    HW239426   2.591  12.628   1.379
12532SOL     OW39427   5.267   9.108   3.094
12532SOL    HW139428   5.353   9.148   3.107
12532SOL    HW239429   5.287   9.023   3.053
12533SOL     OW39430   8.769   5.860  10.643
12533SOL    HW139431   8.674   5.850  10.648
12533SOL    HW239432   8.793   5.811  10.564
12534SOL     OW39433   3.589  14.607  10.349
12534SOL    HW139434   3.536  14.572  10.420
12534SOL    HW239435   3.616  14.694  10.380
12535SOL     OW39436   6.209  13.943  10.526
12535SOL    HW139437   6.151  13.882  10.571
12535SOL    HW239438   6.263  13.981  10.595
12536SOL     OW39439   1.338   7.850   3.404
12536SOL    HW139440   1.421   7.898   3.404
12536SOL    HW239441   1.333   7.809   3.491
12537SOL     OW39442  13.005   9.718   3.916
12537SOL    HW139443  13.010   9.812   3.935
12537SOL    HW239444  13.050   9.676   3.989
12538SOL     OW39445   3.266   7.656   5.701
12538SOL    HW139446   3.238   7.566   5.689
12538SOL    HW239447   3.191   7.709   5.674
12539SOL     OW39448  14.293  14.025   9.433
12539SOL    HW139449  14.382  14.000   9.410
12539SOL    HW239450  14.279  14.108   9.388
12540SOL     OW39451   5.216   4.686   4.691
12540SOL    HW139452   5.290   4.723   4.643
12540SOL    HW239453   5.138   4.722   4.647
12541SOL     OW39454   5.367   3.986  12.488
12541SOL    HW139455   5.365   3.964  12.581
12541SOL    HW239456   5.458   4.013  12.472
12542SOL     OW39457   6.438   9.810   6.063
12542SOL    HW139458   6.464   9.811   5.971
12542SOL    HW239459   6.512   9.847   6.110
12543SOL     OW39460  11.984   4.092  12.335
12543SOL    HW139461  11.956   4.014  12.382
12543SOL    HW239462  11.919   4.159  12.357
12544SOL     OW39463  10.373   8.872   7.949
12544SOL    HW139464  10.464   8.900   7.938
12544SOL    HW239465  10.338   8.929   8.018
12545SOL     OW39466   9.229   5.248  12.840
12545SOL    HW139467   9.294   5.180  12.822
12545SOL    HW239468   9.229   5.302  12.761
12546SOL     OW39469   5.381  13.006   6.290
12546SOL    HW139470   5.438  12.951   6.235
12546SOL    HW239471   5.329  12.943   6.340
12547SOL     OW39472  12.146   8.321   5.820
12547SOL    HW139473  12.230   8.366   5.827
12547SOL    HW239474  12.087   8.385   5.779
12548SOL     OW39475   1.134   2.042  10.826
12548SOL    HW139476   1.155   1.957  10.865
12548SOL    HW239477   1.109   2.021  10.736
12549SOL     OW39478   1.794  13.342   6.832
12549SOL    HW139479   1.737  13.267   6.846
12549SOL    HW239480   1.739  13.418   6.853
12550SOL     OW39481   8.946   6.204   5.993
12550SOL    HW139482   8.993   6.287   5.982
12550SOL    HW239483   8.906   6.210   6.079
12551SOL     OW39484   1.374   6.765  10.312
12551SOL    HW139485   1.316   6.692  10.292
12551SOL    HW239486   1.321   6.844  10.297
12552SOL     OW39487  12.453  13.931  11.057
12552SOL    HW139488  12.471  13.955  10.966
12552SOL    HW239489  12.358  13.917  11.060
12553SOL     OW39490   1.852   8.871   4.776
12553SOL    HW139491   1.916   8.939   4.798
12553SOL    HW239492   1.819   8.897   4.690
12554SOL     OW39493  13.737   0.916  12.654
12554SOL    HW139494  13.811   0.965  12.691
12554SOL    HW239495  13.755   0.914  12.560
12555SOL     OW39496  14.807  13.664   4.748
12555SOL    HW139497   0.001  13.594   4.760
12555SOL    HW239498  14.805  13.708   4.833
12556SOL     OW39499   6.571   3.061   0.934
12556SOL    HW139500   6.538   3.057   1.023
12556SOL    HW239501   6.661   3.094   0.942
12557SOL     OW39502  13.656   6.718   7.863
12557SOL    HW139503  13.715   6.653   7.825
12557SOL    HW239504  13.706   6.799   7.862
12558SOL     OW39505  14.658   6.046   0.279
12558SOL    HW139506  14.742   6.092   0.271
12558SOL    HW239507  14.642   6.010   0.192
12559SOL     OW39508   0.917   3.900   1.942
12559SOL    HW139509   0.827   3.896   1.971
12559SOL    HW239510   0.967   3.855   2.009
12560SOL     OW39511  13.637  12.886   8.786
12560SOL    HW139512  13.615  12.972   8.750
12560SOL    HW239513  13.676  12.839   8.712
12561SOL     OW39514   2.082   6.442   3.697
12561SOL    HW139515   2.077   6.538   3.700
12561SOL    HW239516   2.170   6.424   3.665
12562SOL     OW39517   7.330   5.620  12.571
12562SOL    HW139518   7.338   5.637  12.477
12562SOL    HW239519   7.407   5.569  12.592
12563SOL     OW39520   9.502  13.876   5.099
12563SOL    HW139521   9.549  13.951   5.135
12563SOL    HW239522   9.409  13.897   5.114
12564SOL     OW39523   2.614  10.587   1.367
12564SOL    HW139524   2.614  10.601   1.462
12564SOL    HW239525   2.692  10.533   1.351
12565SOL     OW39526   5.731  11.844   1.817
12565SOL    HW139527   5.810  11.798   1.789
12565SOL    HW239528   5.661  11.805   1.765
12566SOL     OW39529   3.580  13.435   2.715
12566SOL    HW139530   3.642  13.454   2.645
12566SOL    HW239531   3.499  13.411   2.671
12567SOL     OW39532  12.205   2.157  11.880
12567SOL    HW139533  12.251   2.110  11.810
12567SOL    HW239534  12.135   2.204  11.834
12568SOL     OW39535  10.011   8.246   7.321
12568SOL    HW139536  10.101   8.213   7.317
12568SOL    HW239537   9.957   8.167   7.325
12569SOL     OW39538  12.304   5.971  12.229
12569SOL    HW139539  12.321   5.913  12.304
12569SOL    HW239540  12.211   5.989  12.234
12570SOL     OW39541   8.898  13.108   7.093
12570SOL    HW139542   8.890  13.199   7.120
12570SOL    HW239543   8.962  13.110   7.022
12571SOL     OW39544   2.077   1.926   5.785
12571SOL    HW139545   2.098   2.019   5.791
12571SOL    HW239546   2.038   1.905   5.870
12572SOL     OW39547   3.540   8.219   9.278
12572SOL    HW139548   3.504   8.292   9.227
12572SOL    HW239549   3.634   8.221   9.261
12573SOL     OW39550   0.239  13.961   7.559
12573SOL    HW139551   0.177  13.933   7.492
12573SOL    HW239552   0.185  13.978   7.636
12574SOL     OW39553   4.107   6.603   9.178
12574SOL    HW139554   4.063   6.528   9.218
12574SOL    HW239555   4.200   6.582   9.183
12575SOL     OW39556   8.099   2.230   1.279
12575SOL    HW139557   8.096   2.324   1.293
12575SOL    HW239558   8.192   2.211   1.263
12576SOL     OW39559  13.392  10.628   1.828
12576SOL    HW139560  13.373  10.674   1.745
12576SOL    HW239561  13.458  10.563   1.805
12577SOL     OW39562   5.550   7.814   8.749
12577SOL    HW139563   5.485   7.884   8.741
12577SOL    HW239564   5.568   7.808   8.843
12578SOL     OW39565  14.463   7.499   1.976
12578SOL    HW139566  14.432   7.588   1.959
12578SOL    HW239567  14.460   7.455   1.891
12579SOL     OW39568   5.350   8.534  11.727
12579SOL    HW139569   5.294   8.605  11.761
12579SOL    HW239570   5.426   8.579  11.690
12580SOL     OW39571   6.068   1.006   9.584
12580SOL    HW139572   6.040   1.098   9.585
12580SOL    HW239573   6.002   0.961   9.636
12581SOL     OW39574   8.375  14.001   5.082
12581SOL    HW139575   8.318  14.065   5.125
12581SOL    HW239576   8.460  14.044   5.078
12582SOL     OW39577   3.572   4.148  13.610
12582SOL    HW139578   3.597   4.060  13.583
12582SOL    HW239579   3.506   4.134  13.678
12583SOL     OW39580   8.467   0.898  12.958
12583SOL    HW139581   8.392   0.933  12.910
12583SOL    HW239582   8.523   0.975  12.973
12584SOL     OW39583   4.658  11.820  10.002
12584SOL    HW139584   4.654  11.759  10.075
12584SOL    HW239585   4.611  11.777   9.931
12585SOL     OW39586  12.180   2.026  10.268
12585SOL    HW139587  12.213   1.938  10.255
12585SOL    HW239588  12.085   2.018  10.257
12586SOL     OW39589  14.114  10.255   7.691
12586SOL    HW139590  14.119  10.185   7.626
12586SOL    HW239591  14.028  10.244   7.731
12587SOL     OW39592   5.808   7.398   3.278
12587SOL    HW139593   5.847   7.414   3.192
12587SOL    HW239594   5.786   7.485   3.311
12588SOL     OW39595  13.608   3.946   7.821
12588SOL    HW139596  13.677   4.005   7.791
12588SOL    HW239597  13.533   4.004   7.839
12589SOL     OW39598  12.978   9.678   4.859
12589SOL    HW139599  12.969   9.685   4.954
12589SOL    HW239600  12.928   9.752   4.824
12590SOL     OW39601   8.234   9.848   1.255
12590SOL    HW139602   8.310   9.889   1.213
12590SOL    HW239603   8.199   9.789   1.188
12591SOL     OW39604   5.609   8.878   5.805
12591SOL    HW139605   5.641   8.842   5.888
12591SOL    HW239606   5.514   8.878   5.814
12592SOL     OW39607   3.264   8.095  11.269
12592SOL    HW139608   3.268   8.015  11.322
12592SOL    HW239609   3.273   8.166  11.333
12593SOL     OW39610  11.159  11.576  12.026
12593SOL    HW139611  11.253  11.562  12.040
12593SOL    HW239612  11.122  11.488  12.020
12594SOL     OW39613  14.798  12.348   9.024
12594SOL    HW139614  14.772  12.303   9.105
12594SOL    HW239615   0.019  12.365   9.036
12595SOL     OW39616   1.598   2.421   7.527
12595SOL    HW139617   1.577   2.370   7.449
12595SOL    HW239618   1.514   2.431   7.572
12596SOL     OW39619   5.652   0.931   1.025
12596SOL    HW139620   5.658   0.844   0.984
12596SOL    HW239621   5.633   0.912   1.117
12597SOL     OW39622   3.288   2.331   5.427
12597SOL    HW139623   3.303   2.238   5.443
12597SOL    HW239624   3.270   2.337   5.333
12598SOL     OW39625  10.997  14.084   2.707
12598SOL    HW139626  10.909  14.047   2.698
12598SOL    HW239627  11.002  14.112   2.798
12599SOL     OW39628   8.772   7.569   6.042
12599SOL    HW139629   8.846   7.597   6.096
12599SOL    HW239630   8.808   7.563   5.953
12600SOL     OW39631  11.468   9.436   7.056
12600SOL    HW139632  11.479   9.418   7.149
12600SOL    HW239633  11.537   9.499   7.035
12601SOL     OW39634  13.891  13.816   5.441
12601SOL    HW139635  13.808  13.812   5.394
12601SOL    HW239636  13.923  13.905   5.425
12602SOL     OW39637  13.762   2.797   9.532
12602SOL    HW139638  13.857   2.803   9.537
12602SOL    HW239639  13.744   2.703   9.528
12603SOL     OW39640   9.346   9.313   0.841
12603SOL    HW139641   9.410   9.332   0.772
12603SOL    HW239642   9.262   9.344   0.804
12604SOL     OW39643   5.898   2.547  11.600
12604SOL    HW139644   5.812   2.583  11.620
12604SOL    HW239645   5.897   2.460  11.640
12605SOL     OW39646   7.035   6.607  14.734
12605SOL    HW139647   6.992   6.550  14.797
12605SOL    HW239648   7.128   6.593  14.748
12606SOL     OW39649   2.084   3.847   9.498
12606SOL    HW139650   2.001   3.865   9.542
12606SOL    HW239651   2.077   3.893   9.415
12607SOL     OW39652  10.235  10.685  12.047
12607SOL    HW139653  10.171  10.622  12.079
12607SOL    HW239654  10.272  10.644  11.968
12608SOL     OW39655   6.148  10.627  11.103
12608SOL    HW139656   6.199  10.685  11.161
12608SOL    HW239657   6.160  10.663  11.016
12609SOL     OW39658  13.985   3.445   9.911
12609SOL    HW139659  13.922   3.517   9.913
12609SOL    HW239660  13.973   3.399   9.994
12610SOL     OW39661  13.153  14.509  12.293
12610SOL    HW139662  13.193  14.472  12.214
12610SOL    HW239663  13.187  14.455  12.364
12611SOL     OW39664  12.638   5.647   2.353
12611SOL    HW139665  12.702   5.603   2.297
12611SOL    HW239666  12.567   5.584   2.364
12612SOL     OW39667  11.743   2.631   3.039
12612SOL    HW139668  11.691   2.643   3.118
12612SOL    HW239669  11.706   2.693   2.976
12613SOL     OW39670   6.369   5.284  13.272
12613SOL    HW139671   6.451   5.331  13.287
12613SOL    HW239672   6.358   5.231  13.351
12614SOL     OW39673   2.011   6.686  13.340
12614SOL    HW139674   1.944   6.619  13.356
12614SOL    HW239675   1.968   6.750  13.283
12615SOL     OW39676  13.764   3.095   7.107
12615SOL    HW139677  13.686   3.048   7.138
12615SOL    HW239678  13.783   3.158   7.176
12616SOL     OW39679   0.575  11.134   5.974
12616SOL    HW139680   0.640  11.189   6.017
12616SOL    HW239681   0.568  11.169   5.885
12617SOL     OW39682  13.347   3.597   1.611
12617SOL    HW139683  13.396   3.570   1.689
12617SOL    HW239684  13.303   3.517   1.582
12618SOL     OW39685  11.880   4.468   5.911
12618SOL    HW139686  11.909   4.379   5.930
12618SOL    HW239687  11.928   4.522   5.974
12619SOL     OW39688   8.709   9.957   3.953
12619SOL    HW139689   8.659  10.039   3.942
12619SOL    HW239690   8.698   9.912   3.870
12620SOL     OW39691   9.486   0.782  10.332
12620SOL    HW139692   9.460   0.709  10.276
12620SOL    HW239693   9.497   0.855  10.271
12621SOL     OW39694   1.723   5.769   1.315
12621SOL    HW139695   1.646   5.805   1.359
12621SOL    HW239696   1.790   5.838   1.322
12622SOL     OW39697   5.459   3.545   9.370
12622SOL    HW139698   5.382   3.488   9.371
12622SOL    HW239699   5.446   3.600   9.293
12623SOL     OW39700  14.232  13.585   7.203
12623SOL    HW139701  14.208  13.596   7.294
12623SOL    HW239702  14.169  13.639   7.154
12624SOL     OW39703  11.933  14.454  13.314
12624SOL    HW139704  11.954  14.511  13.387
12624SOL    HW239705  12.010  14.399  13.302
12625SOL     OW39706  12.921   5.137   8.023
12625SOL    HW139707  12.992   5.179   8.072
12625SOL    HW239708  12.965   5.093   7.950
12626SOL     OW39709   9.694   3.451   0.327
12626SOL    HW139710   9.722   3.512   0.259
12626SOL    HW239711   9.747   3.474   0.403
12627SOL     OW39712  11.871   0.644  12.573
12627SOL    HW139713  11.843   0.609  12.657
12627SOL    HW239714  11.822   0.594  12.507
12628SOL     OW39715  13.436   2.566   8.926
12628SOL    HW139716  13.465   2.482   8.891
12628SOL    HW239717  13.362   2.543   8.983
12629SOL     OW39718   3.624   9.431   8.684
12629SOL    HW139719   3.640   9.393   8.771
12629SOL    HW239720   3.625   9.356   8.625
12630SOL     OW39721  14.246  14.679   2.335
12630SOL    HW139722  14.213  14.769   2.330
12630SOL    HW239723  14.238  14.656   2.428
12631SOL     OW39724   3.835   6.478   9.375
12631SOL    HW139725   3.755   6.448   9.331
12631SOL    HW239726   3.906   6.433   9.329
12632SOL     OW39727  12.097  12.627  11.919
12632SOL    HW139728  12.041  12.600  11.992
12632SOL    HW239729  12.057  12.585  11.843
12633SOL     OW39730   4.569   3.119   9.169
12633SOL    HW139731   4.624   3.063   9.223
12633SOL    HW239732   4.585   3.089   9.079
12634SOL     OW39733  11.338   9.033   1.180
12634SOL    HW139734  11.415   9.071   1.223
12634SOL    HW239735  11.374   8.971   1.116
12635SOL     OW39736   0.489  11.627   0.815
12635SOL    HW139737   0.424  11.561   0.794
12635SOL    HW239738   0.447  11.710   0.792
12636SOL     OW39739   6.615   9.293   5.380
12636SOL    HW139740   6.605   9.243   5.460
12636SOL    HW239741   6.682   9.358   5.400
12637SOL     OW39742  11.158   3.760   7.547
12637SOL    HW139743  11.252   3.749   7.555
12637SOL    HW239744  11.139   3.739   7.455
12638SOL     OW39745   6.872   6.841   1.652
12638SOL    HW139746   6.908   6.930   1.650
12638SOL    HW239747   6.799   6.846   1.713
12639SOL     OW39748  13.161  12.036  13.386
12639SOL    HW139749  13.085  11.978  13.397
12639SOL    HW239750  13.142  12.086  13.307
12640SOL     OW39751   9.632   4.915   8.253
12640SOL    HW139752   9.611   4.870   8.335
12640SOL    HW239753   9.620   5.008   8.274
12641SOL     OW39754  14.353  14.549   9.657
12641SOL    HW139755  14.428  14.599   9.689
12641SOL    HW239756  14.298  14.613   9.612
12642SOL     OW39757   3.935  13.056   3.876
12642SOL    HW139758   3.976  13.022   3.796
12642SOL    HW239759   3.927  12.979   3.932
12643SOL     OW39760   5.856   5.190  14.203
12643SOL    HW139761   5.823   5.261  14.148
12643SOL    HW239762   5.781   5.131  14.213
12644SOL     OW39763   9.197   3.782   4.531
12644SOL    HW139764   9.171   3.846   4.596
12644SOL    HW239765   9.224   3.833   4.455
12645SOL     OW39766  11.104   0.968   5.427
12645SOL    HW139767  11.052   1.007   5.356
12645SOL    HW239768  11.154   0.899   5.384
12646SOL     OW39769   7.751   3.271  13.466
12646SOL    HW139770   7.805   3.227  13.532
12646SOL    HW239771   7.691   3.203  13.434
12647SOL     OW39772  13.343  10.229  14.231
12647SOL    HW139773  13.304  10.303  14.278
12647SOL    HW239774  13.305  10.152  14.273
12648SOL     OW39775  12.961  11.092  13.309
12648SOL    HW139776  13.024  11.063  13.375
12648SOL    HW239777  12.881  11.042  13.328
12649SOL     OW39778   4.757   7.876   7.887
12649SOL    HW139779   4.695   7.922   7.830
12649SOL    HW239780   4.725   7.892   7.976
12650SOL     OW39781   3.523   1.402   1.236
12650SOL    HW139782   3.525   1.495   1.212
12650SOL    HW239783   3.435   1.388   1.271
12651SOL     OW39784  10.391   1.810  12.942
12651SOL    HW139785  10.305   1.847  12.922
12651SOL    HW239786  10.453   1.872  12.903
12652SOL     OW39787   1.698   5.264   2.066
12652SOL    HW139788   1.746   5.198   2.018
12652SOL    HW239789   1.731   5.347   2.033
12653SOL     OW39790   2.590   3.519   1.552
12653SOL    HW139791   2.536   3.593   1.526
12653SOL    HW239792   2.595   3.464   1.474
12654SOL     OW39793   2.321   4.765  13.872
12654SOL    HW139794   2.345   4.676  13.901
12654SOL    HW239795   2.387   4.821  13.913
12655SOL     OW39796   1.415   4.549   6.462
12655SOL    HW139797   1.500   4.557   6.506
12655SOL    HW239798   1.351   4.564   6.531
12656SOL     OW39799  11.719   1.346  11.671
12656SOL    HW139800  11.639   1.298  11.694
12656SOL    HW239801  11.692   1.437  11.671
12657SOL     OW39802   3.991   7.195   2.561
12657SOL    HW139803   4.001   7.100   2.567
12657SOL    HW239804   3.917   7.207   2.501
12658SOL     OW39805   1.308   9.996  11.395
12658SOL    HW139806   1.389  10.037  11.427
12658SOL    HW239807   1.321   9.987  11.300
12659SOL     OW39808   9.853   5.291  11.212
12659SOL    HW139809   9.780   5.350  11.192
12659SOL    HW239810   9.931   5.338  11.181
12660SOL     OW39811   4.111   5.179   4.678
12660SOL    HW139812   4.188   5.210   4.725
12660SOL    HW239813   4.061   5.258   4.658
12661SOL     OW39814   0.750   1.492   8.672
12661SOL    HW139815   0.781   1.403   8.655
12661SOL    HW239816   0.830   1.545   8.678
12662SOL     OW39817   9.379  12.455   4.369
12662SOL    HW139818   9.381  12.457   4.465
12662SOL    HW239819   9.345  12.540   4.343
12663SOL     OW39820  10.642  14.686   6.659
12663SOL    HW139821  10.654  14.674   6.753
12663SOL    HW239822  10.617  14.778   6.649
12664SOL     OW39823   2.975   3.140   2.035
12664SOL    HW139824   2.914   3.188   2.090
12664SOL    HW239825   3.062   3.167   2.066
12665SOL     OW39826   5.153  12.588   1.011
12665SOL    HW139827   5.210  12.619   0.940
12665SOL    HW239828   5.078  12.550   0.967
12666SOL     OW39829  12.710   2.999   9.281
12666SOL    HW139830  12.706   3.089   9.313
12666SOL    HW239831  12.620   2.967   9.286
12667SOL     OW39832   3.285  12.426   7.454
12667SOL    HW139833   3.211  12.441   7.513
12667SOL    HW239834   3.357  12.402   7.512
12668SOL     OW39835   5.394  12.155   2.567
12668SOL    HW139836   5.457  12.116   2.507
12668SOL    HW239837   5.356  12.228   2.518
12669SOL     OW39838  11.704   8.439  12.168
12669SOL    HW139839  11.735   8.368  12.112
12669SOL    HW239840  11.756   8.432  12.248
12670SOL     OW39841   5.832  11.616   9.841
12670SOL    HW139842   5.744  11.620   9.877
12670SOL    HW239843   5.877  11.691   9.878
12671SOL     OW39844   6.326   7.204   5.416
12671SOL    HW139845   6.249   7.260   5.418
12671SOL    HW239846   6.397   7.259   5.447
12672SOL     OW39847   0.764  13.302   7.627
12672SOL    HW139848   0.715  13.294   7.545
12672SOL    HW239849   0.698  13.291   7.696
12673SOL     OW39850   4.189   7.368   2.466
12673SOL    HW139851   4.222   7.285   2.433
12673SOL    HW239852   4.133   7.345   2.541
12674SOL     OW39853  13.168  14.427  10.261
12674SOL    HW139854  13.176  14.396  10.351
12674SOL    HW239855  13.091  14.484  10.262
12675SOL     OW39856   3.132   0.528  11.434
12675SOL    HW139857   3.125   0.623  11.436
12675SOL    HW239858   3.095   0.498  11.517
12676SOL     OW39859   1.946   5.331   9.474
12676SOL    HW139860   1.983   5.394   9.412
12676SOL    HW239861   2.022   5.289   9.513
12677SOL     OW39862  12.732   4.315   7.580
12677SOL    HW139863  12.773   4.240   7.538
12677SOL    HW239864  12.655   4.333   7.526
12678SOL     OW39865   4.319   2.852   9.485
12678SOL    HW139866   4.343   2.939   9.516
12678SOL    HW239867   4.318   2.860   9.389
12679SOL     OW39868   8.653  12.438   6.085
12679SOL    HW139869   8.604  12.409   6.162
12679SOL    HW239870   8.608  12.517   6.056
12680SOL     OW39871   5.050   4.054  11.563
12680SOL    HW139872   5.104   4.061  11.484
12680SOL    HW239873   5.005   4.138  11.568
12681SOL     OW39874   2.198   3.130   5.701
12681SOL    HW139875   2.280   3.166   5.667
12681SOL    HW239876   2.139   3.205   5.705
12682SOL     OW39877  13.485  13.302   7.198
12682SOL    HW139878  13.426  13.343   7.261
12682SOL    HW239879  13.487  13.363   7.124
12683SOL     OW39880  11.181  11.316   0.872
12683SOL    HW139881  11.177  11.257   0.948
12683SOL    HW239882  11.109  11.287   0.816
12684SOL     OW39883  11.295   1.387   0.023
12684SOL    HW139884  11.251   1.419  14.816
12684SOL    HW239885  11.236   1.410   0.094
12685SOL     OW39886   9.909  13.250  12.979
12685SOL    HW139887   9.909  13.334  13.025
12685SOL    HW239888   9.920  13.274  12.887
12686SOL     OW39889   2.531  12.492  11.833
12686SOL    HW139890   2.543  12.499  11.738
12686SOL    HW239891   2.570  12.572  11.868
12687SOL     OW39892  12.577   8.930   1.197
12687SOL    HW139893  12.626   8.972   1.268
12687SOL    HW239894  12.644   8.906   1.133
12688SOL     OW39895  12.283   0.029   0.427
12688SOL    HW139896  12.318  14.817   0.453
12688SOL    HW239897  12.294   0.033   0.332
12689SOL     OW39898   0.377  10.143   2.734
12689SOL    HW139899   0.410  10.079   2.798
12689SOL    HW239900   0.342  10.089   2.663
12690SOL     OW39901   0.352   5.984   1.734
12690SOL    HW139902   0.370   5.947   1.821
12690SOL    HW239903   0.291   5.922   1.694
12691SOL     OW39904   4.137   8.882   5.122
12691SOL    HW139905   4.114   8.790   5.134
12691SOL    HW239906   4.223   8.880   5.080
12692SOL     OW39907   3.852   2.662   9.445
12692SOL    HW139908   3.881   2.626   9.529
12692SOL    HW239909   3.931   2.665   9.391
12693SOL     OW39910   7.899   4.070   6.957
12693SOL    HW139911   7.953   4.118   7.020
12693SOL    HW239912   7.905   3.978   6.985
12694SOL     OW39913  12.377   4.001  12.547
12694SOL    HW139914  12.347   3.911  12.560
12694SOL    HW239915  12.472   3.995  12.544
12695SOL     OW39916   3.547   1.619  12.833
12695SOL    HW139917   3.547   1.528  12.864
12695SOL    HW239918   3.564   1.612  12.739
12696SOL     OW39919   5.195   2.407  11.126
12696SOL    HW139920   5.290   2.404  11.119
12696SOL    HW239921   5.171   2.322  11.163
12697SOL     OW39922   0.309  14.482   9.307
12697SOL    HW139923   0.279  14.560   9.354
12697SOL    HW239924   0.320  14.416   9.376
12698SOL     OW39925   8.413   4.174   4.156
12698SOL    HW139926   8.482   4.120   4.193
12698SOL    HW239927   8.397   4.138   4.069
12699SOL     OW39928   9.247   1.923   7.380
12699SOL    HW139929   9.257   1.959   7.468
12699SOL    HW239930   9.217   1.997   7.327
12700SOL     OW39931   0.634  13.928  13.527
12700SOL    HW139932   0.688  13.985  13.582
12700SOL    HW239933   0.691  13.904  13.454
12701SOL     OW39934  11.074   1.576   5.368
12701SOL    HW139935  11.081   1.621   5.284
12701SOL    HW239936  11.077   1.483   5.346
12702SOL     OW39937   4.423   3.459  13.020
12702SOL    HW139938   4.347   3.517  13.014
12702SOL    HW239939   4.485   3.506  13.075
12703SOL     OW39940   4.902   1.527   9.193
12703SOL    HW139941   4.905   1.431   9.188
12703SOL    HW239942   4.912   1.545   9.287
12704SOL     OW39943   9.287   8.090   5.427
12704SOL    HW139944   9.293   8.041   5.509
12704SOL    HW239945   9.342   8.167   5.440
12705SOL     OW39946  11.346  12.973   7.480
12705SOL    HW139947  11.365  13.066   7.492
12705SOL    HW239948  11.284  12.970   7.407
12706SOL     OW39949  12.927   0.048  12.048
12706SOL    HW139950  12.854   0.100  12.015
12706SOL    HW239951  13.005   0.093  12.016
12707SOL     OW39952   2.166  12.960   0.443
12707SOL    HW139953   2.214  12.878   0.428
12707SOL    HW239954   2.075  12.933   0.450
12708SOL     OW39955   6.224  14.767   7.059
12708SOL    HW139956   6.263  14.727   6.982
12708SOL    HW239957   6.136  14.729   7.063
12709SOL     OW39958   0.188   1.336   7.924
12709SOL    HW139959   0.275   1.354   7.890
12709SOL    HW239960   0.138   1.415   7.907
12710SOL     OW39961  14.088   5.706  13.866
12710SOL    HW139962  14.002   5.720  13.905
12710SOL    HW239963  14.085   5.755  13.784
12711SOL     OW39964  12.010   3.526  11.711
12711SOL    HW139965  11.982   3.444  11.670
12711SOL    HW239966  11.949   3.538  11.783
12712SOL     OW39967   5.765   9.774   4.773
12712SOL    HW139968   5.844   9.777   4.827
12712SOL    HW239969   5.751   9.681   4.756
12713SOL     OW39970   4.487   4.755  10.381
12713SOL    HW139971   4.422   4.685  10.378
12713SOL    HW239972   4.571   4.710  10.372
12714SOL     OW39973  14.853   5.644   6.820
12714SOL    HW139974  14.834   5.732   6.787
12714SOL    HW239975   0.016   5.597   6.745
12715SOL     OW39976   6.007   3.059   4.554
12715SOL    HW139977   5.926   3.020   4.590
12715SOL    HW239978   6.076   3.028   4.612
12716SOL     OW39979   3.783  10.685  13.326
12716SOL    HW139980   3.834  10.644  13.256
12716SOL    HW239981   3.799  10.631  13.403
12717SOL     OW39982  12.198   4.791  10.414
12717SOL    HW139983  12.265   4.824  10.474
12717SOL    HW239984  12.247   4.739  10.350
12718SOL     OW39985   0.423  11.476   6.002
12718SOL    HW139986   0.339  11.474   5.955
12718SOL    HW239987   0.414  11.406   6.067
12719SOL     OW39988  11.921   2.302   1.469
12719SOL    HW139989  11.950   2.393   1.460
12719SOL    HW239990  11.893   2.295   1.561
12720SOL     OW39991   5.625  10.485   7.797
12720SOL    HW139992   5.663  10.565   7.833
12720SOL    HW239993   5.687  10.416   7.820
12721SOL     OW39994  14.100   1.516   0.913
12721SOL    HW139995  14.094   1.450   0.844
12721SOL    HW239996  14.141   1.471   0.986
12722SOL     OW39997   4.342   5.080   9.641
12722SOL    HW139998   4.406   5.068   9.711
12722SOL    HW239999   4.366   5.014   9.575
12723SOL     OW40000  13.761   9.304   5.681
12723SOL    HW140001  13.721   9.217   5.687
12723SOL    HW240002  13.689   9.362   5.656
12724SOL     OW40003  11.940   1.874   1.719
12724SOL    HW140004  11.980   1.787   1.720
12724SOL    HW240005  12.013   1.933   1.702
12725SOL     OW40006  11.219   1.000   5.673
12725SOL    HW140007  11.184   1.003   5.584
12725SOL    HW240008  11.258   1.087   5.686
12726SOL     OW40009   9.225   0.985   8.235
12726SOL    HW140010   9.161   1.013   8.169
12726SOL    HW240011   9.200   1.033   8.314
12727SOL     OW40012  11.613   7.507   2.217
12727SOL    HW140013  11.557   7.580   2.192
12727SOL    HW240014  11.670   7.543   2.285
12728SOL     OW40015  14.129   8.922   2.276
12728SOL    HW140016  14.177   8.865   2.216
12728SOL    HW240017  14.064   8.965   2.221
12729SOL     OW40018   2.030  13.593   8.486
12729SOL    HW140019   2.101  13.636   8.533
12729SOL    HW240020   2.074  13.535   8.424
12730SOL     OW40021   2.484  12.158   9.697
12730SOL    HW140022   2.496  12.199   9.611
12730SOL    HW240023   2.573  12.133   9.723
12731SOL     OW40024   3.774  14.054   1.004
12731SOL    HW140025   3.708  14.018   1.063
12731SOL    HW240026   3.786  13.985   0.938
12732SOL     OW40027   8.137   0.771   8.205
12732SOL    HW140028   8.207   0.777   8.269
12732SOL    HW240029   8.083   0.699   8.235
12733SOL     OW40030  12.004   9.379  14.821
12733SOL    HW140031  12.019   9.399   0.041
12733SOL    HW240032  11.913   9.402  14.805
12734SOL     OW40033   3.147   6.884   7.833
12734SOL    HW140034   3.113   6.928   7.912
12734SOL    HW240035   3.139   6.949   7.764
12735SOL     OW40036   4.964   7.948   7.496
12735SOL    HW140037   5.006   7.865   7.472
12735SOL    HW240038   5.037   8.009   7.510
12736SOL     OW40039  12.360   1.657  12.827
12736SOL    HW140040  12.298   1.715  12.783
12736SOL    HW240041  12.373   1.696  12.913
12737SOL     OW40042   5.499   0.385   1.876
12737SOL    HW140043   5.560   0.459   1.877
12737SOL    HW240044   5.432   0.409   1.812
12738SOL     OW40045   7.703   7.894   6.274
12738SOL    HW140046   7.773   7.830   6.286
12738SOL    HW240047   7.629   7.845   6.240
12739SOL     OW40048  11.526   0.304   2.337
12739SOL    HW140049  11.461   0.364   2.301
12739SOL    HW240050  11.493   0.283   2.425
12740SOL     OW40051   2.844  10.912   6.403
12740SOL    HW140052   2.927  10.958   6.401
12740SOL    HW240053   2.782  10.977   6.437
12741SOL     OW40054   3.427   8.291  13.363
12741SOL    HW140055   3.493   8.241  13.411
12741SOL    HW240056   3.363   8.317  13.429
12742SOL     OW40057  11.521   9.676   7.634
12742SOL    HW140058  11.513   9.681   7.730
12742SOL    HW240059  11.472   9.598   7.610
12743SOL     OW40060   8.051   5.407  13.255
12743SOL    HW140061   8.125   5.383  13.311
12743SOL    HW240062   8.023   5.492  13.288
12744SOL     OW40063   9.338   2.455   7.769
12744SOL    HW140064   9.410   2.511   7.797
12744SOL    HW240065   9.275   2.515   7.730
12745SOL     OW40066   9.243   3.000  13.250
12745SOL    HW140067   9.271   2.938  13.183
12745SOL    HW240068   9.250   3.086  13.206
12746SOL     OW40069  10.434   7.923  11.602
12746SOL    HW140070  10.455   7.833  11.579
12746SOL    HW240071  10.493   7.976  11.550
12747SOL     OW40072   4.610   1.643   6.462
12747SOL    HW140073   4.545   1.583   6.496
12747SOL    HW240074   4.589   1.650   6.368
12748SOL     OW40075   6.847  12.047   4.154
12748SOL    HW140076   6.899  12.035   4.075
12748SOL    HW240077   6.910  12.045   4.226
12749SOL     OW40078   6.755   8.706   6.344
12749SOL    HW140079   6.711   8.748   6.418
12749SOL    HW240080   6.829   8.765   6.324
12750SOL     OW40081   9.505   4.839   8.498
12750SOL    HW140082   9.558   4.769   8.537
12750SOL    HW240083   9.449   4.870   8.568
12751SOL     OW40084   3.060  12.405   6.979
12751SOL    HW140085   3.113  12.478   6.947
12751SOL    HW240086   3.080  12.400   7.073
12752SOL     OW40087   7.527   7.251   6.621
12752SOL    HW140088   7.616   7.241   6.654
12752SOL    HW240089   7.494   7.161   6.611
12753SOL     OW40090   6.984  14.099   6.414
12753SOL    HW140091   7.040  14.124   6.487
12753SOL    HW240092   6.961  14.008   6.431
12754SOL     OW40093   3.087  11.035   6.739
12754SOL    HW140094   3.026  10.964   6.722
12754SOL    HW240095   3.124  11.015   6.825
12755SOL     OW40096   3.973   1.214   9.622
12755SOL    HW140097   4.007   1.297   9.588
12755SOL    HW240098   3.972   1.226   9.717
12756SOL     OW40099   9.649   9.043   8.010
12756SOL    HW140100   9.664   9.010   8.099
12756SOL    HW240101   9.735   9.075   7.982
12757SOL     OW40102   2.856   7.445  11.920
12757SOL    HW140103   2.912   7.448  11.998
12757SOL    HW240104   2.914   7.418  11.849
12758SOL     OW40105  14.160   9.011   4.203
12758SOL    HW140106  14.082   9.000   4.148
12758SOL    HW240107  14.230   8.972   4.151
12759SOL     OW40108  11.666  10.434   6.461
12759SOL    HW140109  11.606  10.485   6.517
12759SOL    HW240110  11.666  10.347   6.500
12760SOL     OW40111  10.706   0.692   3.513
12760SOL    HW140112  10.628   0.652   3.551
12760SOL    HW240113  10.778   0.659   3.566
12761SOL     OW40114   9.286   5.184   6.340
12761SOL    HW140115   9.368   5.182   6.388
12761SOL    HW240116   9.244   5.100   6.360
12762SOL     OW40117  13.731   8.595   6.296
12762SOL    HW140118  13.676   8.560   6.226
12762SOL    HW240119  13.670   8.638   6.355
12763SOL     OW40120   5.402   3.883   2.508
12763SOL    HW140121   5.411   3.791   2.484
12763SOL    HW240122   5.326   3.885   2.566
12764SOL     OW40123   8.913   0.164   3.649
12764SOL    HW140124   8.939   0.083   3.604
12764SOL    HW240125   8.975   0.230   3.618
12765SOL     OW40126   6.619   1.392  14.460
12765SOL    HW140127   6.697   1.343  14.486
12765SOL    HW240128   6.652   1.479  14.437
12766SOL     OW40129   8.540   9.989   4.392
12766SOL    HW140130   8.510  10.001   4.482
12766SOL    HW240131   8.588  10.069   4.371
12767SOL     OW40132   3.299  12.280  10.708
12767SOL    HW140133   3.313  12.352  10.646
12767SOL    HW240134   3.220  12.305  10.757
12768SOL     OW40135   0.637   5.635   9.864
12768SOL    HW140136   0.718   5.629   9.915
12768SOL    HW240137   0.619   5.729   9.859
12769SOL     OW40138   7.691   0.702   0.020
12769SOL    HW140139   7.608   0.714  14.847
12769SOL    HW240140   7.701   0.607   0.028
12770SOL     OW40141  13.047  11.941   8.731
12770SOL    HW140142  12.995  11.914   8.806
12770SOL    HW240143  13.087  11.859   8.699
12771SOL     OW40144   0.543   9.800   1.400
12771SOL    HW140145   0.599   9.847   1.462
12771SOL    HW240146   0.592   9.720   1.379
12772SOL     OW40147   1.728   6.080   2.252
12772SOL    HW140148   1.664   6.075   2.322
12772SOL    HW240149   1.738   5.990   2.222
12773SOL     OW40150   0.943   9.692   4.107
12773SOL    HW140151   0.933   9.773   4.058
12773SOL    HW240152   1.015   9.646   4.062
12774SOL     OW40153  14.080   0.306   2.346
12774SOL    HW140154  14.132   0.383   2.325
12774SOL    HW240155  14.018   0.298   2.273
12775SOL     OW40156   0.556   1.967  14.361
12775SOL    HW140157   0.472   2.013  14.351
12775SOL    HW240158   0.614   2.033  14.400
12776SOL     OW40159   3.218  10.491   1.702
12776SOL    HW140160   3.187  10.511   1.790
12776SOL    HW240161   3.240  10.576   1.664
12777SOL     OW40162  13.680  13.249   2.271
12777SOL    HW140163  13.651  13.273   2.359
12777SOL    HW240164  13.606  13.201   2.234
12778SOL     OW40165   6.059   4.688   0.570
12778SOL    HW140166   5.989   4.751   0.585
12778SOL    HW240167   6.135   4.742   0.549
12779SOL     OW40168   8.281  10.127  13.245
12779SOL    HW140169   8.237  10.199  13.290
12779SOL    HW240170   8.374  10.140  13.265
12780SOL     OW40171   4.731   8.462   7.714
12780SOL    HW140172   4.669   8.502   7.653
12780SOL    HW240173   4.776   8.395   7.661
12781SOL     OW40174  10.389   5.119  13.089
12781SOL    HW140175  10.321   5.177  13.056
12781SOL    HW240176  10.343   5.056  13.145
12782SOL     OW40177   4.123   3.384  10.932
12782SOL    HW140178   4.174   3.464  10.920
12782SOL    HW240179   4.032   3.410  10.918
12783SOL     OW40180   5.224  13.509   6.731
12783SOL    HW140181   5.182  13.562   6.663
12783SOL    HW240182   5.179  13.424   6.725
12784SOL     OW40183  12.203   8.698   5.927
12784SOL    HW140184  12.228   8.695   6.019
12784SOL    HW240185  12.284   8.679   5.879
12785SOL     OW40186   6.303   9.660   7.385
12785SOL    HW140187   6.312   9.661   7.480
12785SOL    HW240188   6.373   9.719   7.354
12786SOL     OW40189  12.155   1.877  12.778
12786SOL    HW140190  12.242   1.916  12.790
12786SOL    HW240191  12.107   1.901  12.857
12787SOL     OW40192   1.483   4.718   8.566
12787SOL    HW140193   1.527   4.702   8.483
12787SOL    HW240194   1.403   4.667   8.561
12788SOL     OW40195  10.397   7.912   5.620
12788SOL    HW140196  10.410   7.876   5.708
12788SOL    HW240197  10.311   7.955   5.624
12789SOL     OW40198   4.704   1.908  12.707
12789SOL    HW140199   4.641   1.844  12.672
12789SOL    HW240200   4.781   1.856  12.730
12790SOL     OW40201   7.068  13.423  12.402
12790SOL    HW140202   7.067  13.517  12.417
12790SOL    HW240203   7.082  13.414  12.307
12791SOL     OW40204  11.448  11.170   3.467
12791SOL    HW140205  11.423  11.258   3.436
12791SOL    HW240206  11.366  11.120   3.463
12792SOL     OW40207  12.133   7.480   9.191
12792SOL    HW140208  12.198   7.491   9.121
12792SOL    HW240209  12.057   7.441   9.147
12793SOL     OW40210   0.198   3.518  13.553
12793SOL    HW140211   0.209   3.565  13.636
12793SOL    HW240212   0.280   3.471  13.540
12794SOL     OW40213   0.629   2.936  14.024
12794SOL    HW140214   0.686   2.903  14.094
12794SOL    HW240215   0.541   2.907  14.050
12795SOL     OW40216   0.526  13.521  13.962
12795SOL    HW140217   0.487  13.505  14.048
12795SOL    HW240218   0.513  13.615  13.946
12796SOL     OW40219   7.153   2.930  13.950
12796SOL    HW140220   7.070   2.912  13.906
12796SOL    HW240221   7.219   2.921  13.882
12797SOL     OW40222   9.422  13.877   8.688
12797SOL    HW140223   9.359  13.866   8.617
12797SOL    HW240224   9.490  13.932   8.652
12798SOL     OW40225   4.208   7.352  14.707
12798SOL    HW140226   4.257   7.430  14.682
12798SOL    HW240227   4.274   7.292  14.742
12799SOL     OW40228   5.365   5.064   1.397
12799SOL    HW140229   5.344   5.072   1.491
12799SOL    HW240230   5.331   4.978   1.372
12800SOL     OW40231   9.332   7.232   7.937
12800SOL    HW140232   9.382   7.252   8.016
12800SOL    HW240233   9.383   7.164   7.892
12801SOL     OW40234   5.779   6.875   0.647
12801SOL    HW140235   5.843   6.870   0.577
12801SOL    HW240236   5.706   6.925   0.610
12802SOL     OW40237  13.248   0.363   6.129
12802SOL    HW140238  13.320   0.324   6.178
12802SOL    HW240239  13.255   0.325   6.041
12803SOL     OW40240   9.883   5.729   9.795
12803SOL    HW140241   9.872   5.642   9.834
12803SOL    HW240242   9.866   5.789   9.867
12804SOL     OW40243   7.412  11.584  13.003
12804SOL    HW140244   7.403  11.643  12.927
12804SOL    HW240245   7.324  11.548  13.016
12805SOL     OW40246  12.771   3.765   5.807
12805SOL    HW140247  12.797   3.846   5.762
12805SOL    HW240248  12.810   3.695   5.756
12806SOL     OW40249   2.540   2.898   9.854
12806SOL    HW140250   2.493   2.980   9.835
12806SOL    HW240251   2.471   2.836   9.878
12807SOL     OW40252  10.530   9.295   0.565
12807SOL    HW140253  10.531   9.379   0.611
12807SOL    HW240254  10.448   9.253   0.593
12808SOL     OW40255  14.278   3.530   1.097
12808SOL    HW140256  14.198   3.477   1.092
12808SOL    HW240257  14.315   3.524   1.009
12809SOL     OW40258  11.946   5.677   7.863
12809SOL    HW140259  11.938   5.604   7.924
12809SOL    HW240260  11.858   5.715   7.858
12810SOL     OW40261   4.716   1.443   7.639
12810SOL    HW140262   4.622   1.429   7.631
12810SOL    HW240263   4.725   1.535   7.665
12811SOL     OW40264  14.542   3.080   3.270
12811SOL    HW140265  14.495   2.997   3.261
12811SOL    HW240266  14.598   3.084   3.192
12812SOL     OW40267   5.090   4.961   3.478
12812SOL    HW140268   5.085   4.920   3.565
12812SOL    HW240269   5.172   4.928   3.441
12813SOL     OW40270  14.106   0.041  10.260
12813SOL    HW140271  14.124  14.819  10.267
12813SOL    HW240272  14.119   0.061  10.168
12814SOL     OW40273   0.463   3.499   0.211
12814SOL    HW140274   0.514   3.445   0.151
12814SOL    HW240275   0.376   3.503   0.172
12815SOL     OW40276   2.925   2.526  11.123
12815SOL    HW140277   3.011   2.564  11.139
12815SOL    HW240278   2.868   2.602  11.108
12816SOL     OW40279  14.043   4.061  12.153
12816SOL    HW140280  14.111   4.112  12.108
12816SOL    HW240281  14.091   4.003  12.212
12817SOL     OW40282   5.213  12.180  13.763
12817SOL    HW140283   5.227  12.087  13.784
12817SOL    HW240284   5.121  12.195  13.782
12818SOL     OW40285   5.251   2.218  13.243
12818SOL    HW140286   5.240   2.133  13.286
12818SOL    HW240287   5.337   2.248  13.273
12819SOL     OW40288   2.240   0.969   1.729
12819SOL    HW140289   2.162   0.929   1.765
12819SOL    HW240290   2.271   1.027   1.798
12820SOL     OW40291  10.049  11.966   0.303
12820SOL    HW140292  10.023  12.053   0.270
12820SOL    HW240293  10.002  11.958   0.386
12821SOL     OW40294  14.000  10.871   5.162
12821SOL    HW140295  13.930  10.926   5.127
12821SOL    HW240296  14.042  10.833   5.084
12822SOL     OW40297   2.176  12.447  14.846
12822SOL    HW140298   2.189  12.393  14.768
12822SOL    HW240299   2.107  12.508  14.821
12823SOL     OW40300   8.514   5.420   6.606
12823SOL    HW140301   8.536   5.375   6.525
12823SOL    HW240302   8.429   5.384   6.631
12824SOL     OW40303   6.472  14.212   0.772
12824SOL    HW140304   6.503  14.125   0.747
12824SOL    HW240305   6.419  14.197   0.850
12825SOL     OW40306   3.570  14.112   7.693
12825SOL    HW140307   3.485  14.096   7.652
12825SOL    HW240308   3.628  14.048   7.654
12826SOL     OW40309  12.987   6.135   7.425
12826SOL    HW140310  13.008   6.050   7.386
12826SOL    HW240311  13.065   6.159   7.474
12827SOL     OW40312   7.490   0.685  12.572
12827SOL    HW140313   7.493   0.719  12.483
12827SOL    HW240314   7.512   0.760  12.627
12828SOL     OW40315  13.859  11.506   3.305
12828SOL    HW140316  13.829  11.499   3.215
12828SOL    HW240317  13.796  11.565   3.347
12829SOL     OW40318   2.684   4.250   0.527
12829SOL    HW140319   2.653   4.177   0.474
12829SOL    HW240320   2.642   4.239   0.612
12830SOL     OW40321   0.344   5.565   6.860
12830SOL    HW140322   0.319   5.580   6.769
12830SOL    HW240323   0.293   5.630   6.909
12831SOL     OW40324  14.101   1.562   9.651
12831SOL    HW140325  14.197   1.566   9.645
12831SOL    HW240326  14.070   1.637   9.601
12832SOL     OW40327   2.387   6.754  13.844
12832SOL    HW140328   2.475   6.780  13.815
12832SOL    HW240329   2.402   6.703  13.923
12833SOL     OW40330   9.219  11.960   9.108
12833SOL    HW140331   9.312  11.983   9.114
12833SOL    HW240332   9.217  11.865   9.123
12834SOL     OW40333   2.445  11.720   1.997
12834SOL    HW140334   2.525  11.769   2.018
12834SOL    HW240335   2.416  11.758   1.914
12835SOL     OW40336  10.155  12.110   9.534
12835SOL    HW140337  10.089  12.146   9.593
12835SOL    HW240338  10.105  12.060   9.470
12836SOL     OW40339  13.719  12.794   1.720
12836SOL    HW140340  13.695  12.881   1.687
12836SOL    HW240341  13.729  12.806   1.814
12837SOL     OW40342  10.149  14.353   5.375
12837SOL    HW140343  10.201  14.274   5.372
12837SOL    HW240344  10.211  14.423   5.397
12838SOL     OW40345   5.709   2.641   3.575
12838SOL    HW140346   5.624   2.684   3.566
12838SOL    HW240347   5.747   2.679   3.655
12839SOL     OW40348   9.109   8.281   3.577
12839SOL    HW140349   9.123   8.364   3.623
12839SOL    HW240350   9.078   8.306   3.490
12840SOL     OW40351  13.387   9.975   3.023
12840SOL    HW140352  13.371   9.907   3.089
12840SOL    HW240353  13.441   9.932   2.956
12841SOL     OW40354   8.610  12.321   8.920
12841SOL    HW140355   8.688  12.266   8.919
12841SOL    HW240356   8.543  12.267   8.961
12842SOL     OW40357   8.780   2.087  10.935
12842SOL    HW140358   8.831   2.043  11.004
12842SOL    HW240359   8.819   2.174  10.929
12843SOL     OW40360   5.512  13.532   9.463
12843SOL    HW140361   5.604  13.524   9.489
12843SOL    HW240362   5.465  13.479   9.527
12844SOL     OW40363   5.348  11.212   3.267
12844SOL    HW140364   5.309  11.127   3.249
12844SOL    HW240365   5.297  11.247   3.341
12845SOL     OW40366  14.797   2.945   7.846
12845SOL    HW140367   0.014   2.972   7.872
12845SOL    HW240368  14.755   2.921   7.929
12846SOL     OW40369  14.169   2.048   9.708
12846SOL    HW140370  14.155   1.981   9.775
12846SOL    HW240371  14.164   2.131   9.756
12847SOL     OW40372   9.330   7.993   7.575
12847SOL    HW140373   9.328   8.054   7.648
12847SOL    HW240374   9.257   7.933   7.592
12848SOL     OW40375   2.305   8.788   2.883
12848SOL    HW140376   2.303   8.883   2.871
12848SOL    HW240377   2.310   8.775   2.977
12849SOL     OW40378   8.441   6.750   4.165
12849SOL    HW140379   8.354   6.713   4.148
12849SOL    HW240380   8.427   6.812   4.236
12850SOL     OW40381   4.439   7.206   1.698
12850SOL    HW140382   4.428   7.117   1.666
12850SOL    HW240383   4.364   7.254   1.664
12851SOL     OW40384   0.812   0.947  10.761
12851SOL    HW140385   0.888   0.891  10.773
12851SOL    HW240386   0.804   0.957  10.666
12852SOL     OW40387   4.639  12.021   8.053
12852SOL    HW140388   4.565  11.962   8.068
12852SOL    HW240389   4.712  11.979   8.098
12853SOL     OW40390   3.934   0.836   1.148
12853SOL    HW140391   3.964   0.822   1.238
12853SOL    HW240392   4.012   0.863   1.101
12854SOL     OW40393   3.820  11.407   7.941
12854SOL    HW140394   3.883  11.404   7.869
12854SOL    HW240395   3.745  11.357   7.910
12855SOL     OW40396   8.535   6.467   1.822
12855SOL    HW140397   8.617   6.499   1.860
12855SOL    HW240398   8.562   6.426   1.740
12856SOL     OW40399  14.478   6.354   7.117
12856SOL    HW140400  14.402   6.372   7.174
12856SOL    HW240401  14.554   6.367   7.174
12857SOL     OW40402   3.521   1.365  14.302
12857SOL    HW140403   3.568   1.355  14.220
12857SOL    HW240404   3.445   1.307  14.294
12858SOL     OW40405   2.238  12.517   8.781
12858SOL    HW140406   2.285  12.498   8.862
12858SOL    HW240407   2.180  12.590   8.804
12859SOL     OW40408  10.517   2.395  13.255
12859SOL    HW140409  10.509   2.466  13.319
12859SOL    HW240410  10.542   2.439  13.174
12860SOL     OW40411   5.675  13.537  10.492
12860SOL    HW140412   5.742  13.587  10.538
12860SOL    HW240413   5.653  13.466  10.553
12861SOL     OW40414   3.624  14.272  10.085
12861SOL    HW140415   3.665  14.318  10.159
12861SOL    HW240416   3.562  14.212  10.125
12862SOL     OW40417   9.145  10.994   0.339
12862SOL    HW140418   9.126  10.979   0.246
12862SOL    HW240419   9.074  11.050   0.370
12863SOL     OW40420   8.955   4.640   8.060
12863SOL    HW140421   9.025   4.704   8.070
12863SOL    HW240422   8.929   4.619   8.150
12864SOL     OW40423  10.691   6.197   5.407
12864SOL    HW140424  10.612   6.168   5.453
12864SOL    HW240425  10.763   6.171   5.465
12865SOL     OW40426   3.408   4.679  13.669
12865SOL    HW140427   3.392   4.748  13.604
12865SOL    HW240428   3.446   4.607  13.619
12866SOL     OW40429   8.571   3.386  13.347
12866SOL    HW140430   8.579   3.437  13.428
12866SOL    HW240431   8.497   3.425  13.301
12867SOL     OW40432   0.752   9.649  12.843
12867SOL    HW140433   0.804   9.723  12.813
12867SOL    HW240434   0.675   9.649  12.786
12868SOL     OW40435   1.536   8.466  13.457
12868SOL    HW140436   1.447   8.493  13.477
12868SOL    HW240437   1.527   8.404  13.384
12869SOL     OW40438  11.171  13.817   1.843
12869SOL    HW140439  11.117  13.831   1.921
12869SOL    HW240440  11.112  13.775   1.780
12870SOL     OW40441   8.324  14.137   3.879
12870SOL    HW140442   8.253  14.196   3.854
12870SOL    HW240443   8.295  14.050   3.852
12871SOL     OW40444   6.484  13.010  11.054
12871SOL    HW140445   6.532  12.997  10.973
12871SOL    HW240446   6.552  13.020  11.121
12872SOL     OW40447  14.686  12.020  13.193
12872SOL    HW140448  14.755  12.086  13.201
12872SOL    HW240449  14.640  12.023  13.277
12873SOL     OW40450  12.963   1.255  13.134
12873SOL    HW140451  12.972   1.236  13.041
12873SOL    HW240452  12.975   1.350  13.141
12874SOL     OW40453   7.591   0.733   1.252
12874SOL    HW140454   7.586   0.825   1.279
12874SOL    HW240455   7.504   0.714   1.218
12875SOL     OW40456   3.197   7.594   0.318
12875SOL    HW140457   3.169   7.679   0.352
12875SOL    HW240458   3.191   7.603   0.222
12876SOL     OW40459   2.862   8.209  10.584
12876SOL    HW140460   2.798   8.274  10.556
12876SOL    HW240461   2.945   8.256  10.587
12877SOL     OW40462   1.098  10.085   8.911
12877SOL    HW140463   1.154  10.071   8.988
12877SOL    HW240464   1.160  10.093   8.838
12878SOL     OW40465  11.968  11.685   1.647
12878SOL    HW140466  11.993  11.777   1.636
12878SOL    HW240467  11.951  11.675   1.740
12879SOL     OW40468   7.559   8.694   9.438
12879SOL    HW140469   7.499   8.656   9.375
12879SOL    HW240470   7.567   8.786   9.412
12880SOL     OW40471   2.400  10.931   0.417
12880SOL    HW140472   2.374  10.945   0.508
12880SOL    HW240473   2.425  11.017   0.385
12881SOL     OW40474   3.806  11.322   7.559
12881SOL    HW140475   3.861  11.400   7.563
12881SOL    HW240476   3.833  11.278   7.478
12882SOL     OW40477   2.435  13.320  14.389
12882SOL    HW140478   2.444  13.330  14.483
12882SOL    HW240479   2.389  13.399  14.360
12883SOL     OW40480   1.927   1.719   5.373
12883SOL    HW140481   1.915   1.626   5.355
12883SOL    HW240482   1.843   1.759   5.351
12884SOL     OW40483   5.325  14.368   6.433
12884SOL    HW140484   5.237  14.396   6.457
12884SOL    HW240485   5.369  14.449   6.404
12885SOL     OW40486  13.144   0.208   4.297
12885SOL    HW140487  13.063   0.188   4.250
12885SOL    HW240488  13.119   0.277   4.359
12886SOL     OW40489  13.399   0.050   6.635
12886SOL    HW140490  13.464   0.074   6.702
12886SOL    HW240491  13.401  14.827   6.632
12887SOL     OW40492  12.520   5.207   4.422
12887SOL    HW140493  12.497   5.290   4.463
12887SOL    HW240494  12.543   5.230   4.332
12888SOL     OW40495   8.033   1.974   7.105
12888SOL    HW140496   7.947   1.942   7.076
12888SOL    HW240497   8.062   1.909   7.169
12889SOL     OW40498   5.493  13.507   8.628
12889SOL    HW140499   5.482  13.497   8.723
12889SOL    HW240500   5.423  13.566   8.602
12890SOL     OW40501  14.724   2.312   2.609
12890SOL    HW140502  14.797   2.269   2.653
12890SOL    HW240503  14.744   2.405   2.614
12891SOL     OW40504  12.964   9.771  14.088
12891SOL    HW140505  13.013   9.706  14.039
12891SOL    HW240506  12.987   9.855  14.048
12892SOL     OW40507   0.445   3.524   1.129
12892SOL    HW140508   0.438   3.598   1.189
12892SOL    HW240509   0.530   3.535   1.087
12893SOL     OW40510  10.105   9.541  11.307
12893SOL    HW140511  10.077   9.600  11.237
12893SOL    HW240512  10.024   9.512  11.349
12894SOL     OW40513   4.113   6.834  12.015
12894SOL    HW140514   4.184   6.824  11.951
12894SOL    HW240515   4.034   6.812  11.966
12895SOL     OW40516   7.903   8.492   6.423
12895SOL    HW140517   7.965   8.425   6.449
12895SOL    HW240518   7.891   8.546   6.502
12896SOL     OW40519   7.603   6.306  13.432
12896SOL    HW140520   7.546   6.366  13.478
12896SOL    HW240521   7.550   6.228  13.417
12897SOL     OW40522   3.474   3.111   8.973
12897SOL    HW140523   3.393   3.091   9.020
12897SOL    HW240524   3.448   3.171   8.903
12898SOL     OW40525  14.538   2.055  13.534
12898SOL    HW140526  14.632   2.053  13.513
12898SOL    HW240527  14.524   2.141  13.574
12899SOL     OW40528   9.688   5.764   5.520
12899SOL    HW140529   9.638   5.771   5.602
12899SOL    HW240530   9.737   5.682   5.529
12900SOL     OW40531   7.313   8.264  14.710
12900SOL    HW140532   7.383   8.211  14.747
12900SOL    HW240533   7.333   8.268  14.616
12901SOL     OW40534   1.284   4.212  12.074
12901SOL    HW140535   1.312   4.129  12.034
12901SOL    HW240536   1.215   4.244  12.016
12902SOL     OW40537   5.197   2.176   2.780
12902SOL    HW140538   5.238   2.167   2.866
12902SOL    HW240539   5.129   2.242   2.793
12903SOL     OW40540  12.022   3.031   2.800
12903SOL    HW140541  12.116   3.018   2.784
12903SOL    HW240542  11.982   2.948   2.775
12904SOL     OW40543   9.475   1.862  12.352
12904SOL    HW140544   9.561   1.825  12.332
12904SOL    HW240545   9.418   1.787  12.365
12905SOL     OW40546  12.788   5.492   0.620
12905SOL    HW140547  12.773   5.585   0.601
12905SOL    HW240548  12.814   5.490   0.712
12906SOL     OW40549   9.406   2.821   7.315
12906SOL    HW140550   9.483   2.836   7.260
12906SOL    HW240551   9.433   2.852   7.402
12907SOL     OW40552  11.248   3.870  10.608
12907SOL    HW140553  11.193   3.947  10.622
12907SOL    HW240554  11.326   3.905  10.565
12908SOL     OW40555   2.415  11.970   1.236
12908SOL    HW140556   2.350  11.921   1.187
12908SOL    HW240557   2.364  12.033   1.287
12909SOL     OW40558   3.052  12.706   0.423
12909SOL    HW140559   3.053  12.712   0.327
12909SOL    HW240560   3.111  12.776   0.452
12910SOL     OW40561   2.381   7.030   8.616
12910SOL    HW140562   2.338   6.951   8.584
12910SOL    HW240563   2.361   7.033   8.709
12911SOL     OW40564  12.390   0.025   2.805
12911SOL    HW140565  12.449  14.866   2.873
12911SOL    HW240566  12.414   0.117   2.793
12912SOL     OW40567   0.506   0.400   0.485
12912SOL    HW140568   0.536   0.472   0.542
12912SOL    HW240569   0.423   0.372   0.523
12913SOL     OW40570   6.557  13.947   3.321
12913SOL    HW140571   6.555  14.031   3.275
12913SOL    HW240572   6.639  13.906   3.293
12914SOL     OW40573   5.965   4.979   2.524
12914SOL    HW140574   5.942   5.056   2.575
12914SOL    HW240575   5.924   4.994   2.439
12915SOL     OW40576  14.785   7.737  11.074
12915SOL    HW140577  14.769   7.781  10.990
12915SOL    HW240578  14.771   7.644  11.054
12916SOL     OW40579   7.067  11.783   1.607
12916SOL    HW140580   7.073  11.873   1.641
12916SOL    HW240581   7.050  11.730   1.685
12917SOL     OW40582   4.120   2.437   8.099
12917SOL    HW140583   4.083   2.391   8.175
12917SOL    HW240584   4.119   2.372   8.029
12918SOL     OW40585  13.581   1.144  14.812
12918SOL    HW140586  13.564   1.164  14.720
12918SOL    HW240587  13.513   1.190  14.860
12919SOL     OW40588   3.679  10.626   1.108
12919SOL    HW140589   3.645  10.542   1.139
12919SOL    HW240590   3.625  10.691   1.153
12920SOL     OW40591   2.049  10.443   7.550
12920SOL    HW140592   1.971  10.497   7.543
12920SOL    HW240593   2.111  10.497   7.599
12921SOL     OW40594   9.694  10.034  13.551
12921SOL    HW140595   9.601  10.017  13.540
12921SOL    HW240596   9.732   9.948  13.567
12922SOL     OW40597   3.458   4.734  11.753
12922SOL    HW140598   3.494   4.803  11.696
12922SOL    HW240599   3.443   4.660  11.694
12923SOL     OW40600   1.824   0.267  13.271
12923SOL    HW140601   1.770   0.218  13.207
12923SOL    HW240602   1.766   0.337  13.301
12924SOL     OW40603   7.292   0.741   9.366
12924SOL    HW140604   7.205   0.720   9.400
12924SOL    HW240605   7.277   0.809   9.301
12925SOL     OW40606   5.714   0.960   3.208
12925SOL    HW140607   5.779   0.904   3.164
12925SOL    HW240608   5.742   0.962   3.299
12926SOL     OW40609   6.196   1.778  11.117
12926SOL    HW140610   6.260   1.838  11.156
12926SOL    HW240611   6.218   1.692  11.154
12927SOL     OW40612  14.781   6.416  13.269
12927SOL    HW140613  14.710   6.402  13.332
12927SOL    HW240614  14.824   6.496  13.300
12928SOL     OW40615   8.600   5.613   9.526
12928SOL    HW140616   8.631   5.525   9.546
12928SOL    HW240617   8.653   5.670   9.582
12929SOL     OW40618   2.101   0.008   3.944
12929SOL    HW140619   2.020  14.829   3.945
12929SOL    HW240620   2.087   0.075   4.012
12930SOL     OW40621   7.780   6.171   3.673
12930SOL    HW140622   7.811   6.085   3.644
12930SOL    HW240623   7.765   6.161   3.767
12931SOL     OW40624   9.358  14.160   0.485
12931SOL    HW140625   9.300  14.158   0.409
12931SOL    HW240626   9.419  14.088   0.470
12932SOL     OW40627   7.059   5.784   1.241
12932SOL    HW140628   6.991   5.845   1.214
12932SOL    HW240629   7.045   5.772   1.335
12933SOL     OW40630   2.626  14.471  12.876
12933SOL    HW140631   2.655  14.562  12.881
12933SOL    HW240632   2.544  14.469  12.925
12934SOL     OW40633   0.907  13.090   2.459
12934SOL    HW140634   0.884  13.171   2.504
12934SOL    HW240635   0.824  13.045   2.447
12935SOL     OW40636   5.476   4.376   8.967
12935SOL    HW140637   5.441   4.295   8.929
12935SOL    HW240638   5.561   4.350   9.003
12936SOL     OW40639   5.495   2.531   0.988
12936SOL    HW140640   5.493   2.436   1.002
12936SOL    HW240641   5.416   2.563   1.031
12937SOL     OW40642   6.612  12.231   4.752
12937SOL    HW140643   6.623  12.271   4.839
12937SOL    HW240644   6.520  12.245   4.730
12938SOL     OW40645   1.150   7.539  12.883
12938SOL    HW140646   1.078   7.586  12.923
12938SOL    HW240647   1.201   7.506  12.957
12939SOL     OW40648   7.028  14.542   5.900
12939SOL    HW140649   7.001  14.612   5.842
12939SOL    HW240650   6.959  14.475   5.892
12940SOL     OW40651   4.541   5.392   8.469
12940SOL    HW140652   4.481   5.318   8.480
12940SOL    HW240653   4.586   5.374   8.386
12941SOL     OW40654   9.635   9.578   9.450
12941SOL    HW140655   9.600   9.588   9.361
12941SOL    HW240656   9.566   9.613   9.507
12942SOL     OW40657  14.430  12.265  12.250
12942SOL    HW140658  14.335  12.269  12.250
12942SOL    HW240659  14.450  12.172  12.253
12943SOL     OW40660  13.560   1.860   0.326
12943SOL    HW140661  13.634   1.813   0.288
12943SOL    HW240662  13.548   1.936   0.270
12944SOL     OW40663  11.726   5.622   5.692
12944SOL    HW140664  11.799   5.560   5.696
12944SOL    HW240665  11.695   5.617   5.601
12945SOL     OW40666   7.800  14.201   3.298
12945SOL    HW140667   7.812  14.212   3.204
12945SOL    HW240668   7.889  14.188   3.333
12946SOL     OW40669   9.732   0.528   4.749
12946SOL    HW140670   9.689   0.531   4.663
12946SOL    HW240671   9.787   0.450   4.745
12947SOL     OW40672   0.665   3.617   0.949
12947SOL    HW140673   0.683   3.673   0.874
12947SOL    HW240674   0.676   3.528   0.916
12948SOL     OW40675  13.645  10.074  10.433
12948SOL    HW140676  13.681  10.161  10.454
12948SOL    HW240677  13.684  10.016  10.498
12949SOL     OW40678  12.401  12.718   4.585
12949SOL    HW140679  12.360  12.777   4.523
12949SOL    HW240680  12.461  12.773   4.635
12950SOL     OW40681  12.744  12.957  13.886
12950SOL    HW140682  12.721  12.986  13.798
12950SOL    HW240683  12.832  12.992  13.900
12951SOL     OW40684   0.743  11.784   8.845
12951SOL    HW140685   0.731  11.829   8.761
12951SOL    HW240686   0.837  11.789   8.862
12952SOL     OW40687   2.192   6.940   5.481
12952SOL    HW140688   2.175   7.027   5.445
12952SOL    HW240689   2.109   6.893   5.471
12953SOL     OW40690   4.446  13.989   4.362
12953SOL    HW140691   4.407  13.941   4.289
12953SOL    HW240692   4.376  14.047   4.393
12954SOL     OW40693  11.158   9.170   6.209
12954SOL    HW140694  11.128   9.158   6.119
12954SOL    HW240695  11.221   9.242   6.204
12955SOL     OW40696   8.447  14.007   5.767
12955SOL    HW140697   8.494  14.075   5.719
12955SOL    HW240698   8.454  13.929   5.713
12956SOL     OW40699   6.379  11.020   7.566
12956SOL    HW140700   6.316  10.956   7.599
12956SOL    HW240701   6.397  10.991   7.476
12957SOL     OW40702   6.783   9.968   3.355
12957SOL    HW140703   6.769   9.995   3.446
12957SOL    HW240704   6.711  10.009   3.307
12958SOL     OW40705   2.102   9.737   6.401
12958SOL    HW140706   2.166   9.763   6.467
12958SOL    HW240707   2.047   9.815   6.389
12959SOL     OW40708  12.110  12.306   7.417
12959SOL    HW140709  12.150  12.379   7.368
12959SOL    HW240710  12.176  12.237   7.415
12960SOL     OW40711   8.490  14.687  14.480
12960SOL    HW140712   8.395  14.688  14.468
12960SOL    HW240713   8.525  14.726  14.401
12961SOL     OW40714   8.475  14.636   1.858
12961SOL    HW140715   8.475  14.677   1.772
12961SOL    HW240716   8.563  14.654   1.892
12962SOL     OW40717   3.163   0.078   6.482
12962SOL    HW140718   3.258   0.075   6.472
12962SOL    HW240719   3.149   0.089   6.576
12963SOL     OW40720   8.361  10.562  14.069
12963SOL    HW140721   8.319  10.648  14.073
12963SOL    HW240722   8.301  10.505  14.118
12964SOL     OW40723   7.500  11.081   8.564
12964SOL    HW140724   7.523  11.164   8.604
12964SOL    HW240725   7.444  11.104   8.490
12965SOL     OW40726   6.426   9.399   8.058
12965SOL    HW140727   6.363   9.356   8.000
12965SOL    HW240728   6.477   9.326   8.094
12966SOL     OW40729   4.252   2.419  10.895
12966SOL    HW140730   4.164   2.395  10.864
12966SOL    HW240731   4.302   2.435  10.815
12967SOL     OW40732   8.579  13.639  10.981
12967SOL    HW140733   8.595  13.713  10.924
12967SOL    HW240734   8.484  13.629  10.983
12968SOL     OW40735   4.262   4.974   3.061
12968SOL    HW140736   4.320   4.899   3.046
12968SOL    HW240737   4.276   4.996   3.153
12969SOL     OW40738   3.176   7.972   8.442
12969SOL    HW140739   3.228   7.953   8.521
12969SOL    HW240740   3.093   7.927   8.457
12970SOL     OW40741   4.866  10.906  10.428
12970SOL    HW140742   4.885  10.957  10.507
12970SOL    HW240743   4.797  10.955  10.383
12971SOL     OW40744   7.844  10.208   9.469
12971SOL    HW140745   7.835  10.301   9.447
12971SOL    HW240746   7.817  10.203   9.561
12972SOL     OW40747   6.263   0.703  10.628
12972SOL    HW140748   6.240   0.643  10.699
12972SOL    HW240749   6.285   0.646  10.555
12973SOL     OW40750   3.429   8.861   0.547
12973SOL    HW140751   3.458   8.813   0.469
12973SOL    HW240752   3.502   8.919   0.568
12974SOL     OW40753  10.021  12.687   7.091
12974SOL    HW140754  10.066  12.622   7.146
12974SOL    HW240755   9.974  12.742   7.153
12975SOL     OW40756   9.053   2.902  11.996
12975SOL    HW140757   9.006   2.942  12.069
12975SOL    HW240758   9.060   2.972  11.931
12976SOL     OW40759   7.522   7.968   3.905
12976SOL    HW140760   7.608   7.927   3.899
12976SOL    HW240761   7.500   7.992   3.814
12977SOL     OW40762   0.897   6.399  12.979
12977SOL    HW140763   0.916   6.306  12.965
12977SOL    HW240764   0.886   6.435  12.891
12978SOL     OW40765   4.559   8.072   6.269
12978SOL    HW140766   4.561   8.001   6.332
12978SOL    HW240767   4.632   8.129   6.295
12979SOL     OW40768   2.567   8.342   5.720
12979SOL    HW140769   2.504   8.319   5.788
12979SOL    HW240770   2.648   8.360   5.769
12980SOL     OW40771   3.573  10.506   1.921
12980SOL    HW140772   3.521  10.436   1.880
12980SOL    HW240773   3.627  10.541   1.850
12981SOL     OW40774   5.671   0.129  10.988
12981SOL    HW140775   5.741   0.089  11.039
12981SOL    HW240776   5.685   0.223  10.998
12982SOL     OW40777  12.225   3.857  13.915
12982SOL    HW140778  12.254   3.948  13.923
12982SOL    HW240779  12.296   3.813  13.869
12983SOL     OW40780   9.256  11.380   0.394
12983SOL    HW140781   9.271  11.307   0.333
12983SOL    HW240782   9.292  11.456   0.349
12984SOL     OW40783   2.853  11.021   5.500
12984SOL    HW140784   2.862  10.989   5.589
12984SOL    HW240785   2.943  11.041   5.472
12985SOL     OW40786   4.722   0.465  12.505
12985SOL    HW140787   4.775   0.435  12.431
12985SOL    HW240788   4.660   0.527  12.467
12986SOL     OW40789   5.391   0.664   0.278
12986SOL    HW140790   5.478   0.694   0.304
12986SOL    HW240791   5.397   0.653   0.183
12987SOL     OW40792   9.206   1.328  11.429
12987SOL    HW140793   9.163   1.286  11.354
12987SOL    HW240794   9.195   1.421  11.415
12988SOL     OW40795   2.934   8.968   7.247
12988SOL    HW140796   2.874   8.920   7.304
12988SOL    HW240797   2.877   9.016   7.187
12989SOL     OW40798   3.911  14.770   3.468
12989SOL    HW140799   3.989  14.813   3.435
12989SOL    HW240800   3.847  14.777   3.397
12990SOL     OW40801  10.540   4.923   2.424
12990SOL    HW140802  10.576   4.851   2.476
12990SOL    HW240803  10.617   4.966   2.386
12991SOL     OW40804  14.057  11.537  11.987
12991SOL    HW140805  14.142  11.578  12.003
12991SOL    HW240806  14.005  11.557  12.064
12992SOL     OW40807  11.134  13.029   4.387
12992SOL    HW140808  11.161  12.945   4.422
12992SOL    HW240809  11.073  13.064   4.452
12993SOL     OW40810   6.565   6.842   8.662
12993SOL    HW140811   6.622   6.830   8.738
12993SOL    HW240812   6.476   6.827   8.695
12994SOL     OW40813   7.028  10.472  12.998
12994SOL    HW140814   7.003  10.386  13.033
12994SOL    HW240815   7.023  10.531  13.074
12995SOL     OW40816   9.112  12.572   7.649
12995SOL    HW140817   9.027  12.550   7.611
12995SOL    HW240818   9.174  12.559   7.578
12996SOL     OW40819  14.252   2.492   9.644
12996SOL    HW140820  14.337   2.511   9.684
12996SOL    HW240821  14.272   2.474   9.552
12997SOL     OW40822  14.513   4.019   6.987
12997SOL    HW140823  14.418   4.016   6.980
12997SOL    HW240824  14.545   3.978   6.906
12998SOL     OW40825   0.958  10.709   5.170
12998SOL    HW140826   0.969  10.614   5.168
12998SOL    HW240827   0.868  10.722   5.200
12999SOL     OW40828   5.574   3.717   2.838
12999SOL    HW140829   5.554   3.625   2.853
12999SOL    HW240830   5.660   3.730   2.877
13000SOL     OW40831   9.581   4.620   2.522
13000SOL    HW140832   9.671   4.654   2.521
13000SOL    HW240833   9.550   4.635   2.433
13001SOL     OW40834   2.143   7.006  10.628
13001SOL    HW140835   2.209   6.982  10.563
13001SOL    HW240836   2.060   6.983  10.586
13002SOL     OW40837   9.956  12.133  11.327
13002SOL    HW140838  10.029  12.173  11.279
13002SOL    HW240839   9.904  12.208  11.357
13003SOL     OW40840   0.420   4.253   3.266
13003SOL    HW140841   0.514   4.247   3.247
13003SOL    HW240842   0.416   4.277   3.358
13004SOL     OW40843   6.249   6.143   1.344
13004SOL    HW140844   6.247   6.158   1.250
13004SOL    HW240845   6.192   6.067   1.358
13005SOL     OW40846  11.377   7.337  10.800
13005SOL    HW140847  11.325   7.375  10.730
13005SOL    HW240848  11.346   7.247  10.807
13006SOL     OW40849   4.078   9.303   7.152
13006SOL    HW140850   4.041   9.227   7.106
13006SOL    HW240851   4.074   9.279   7.244
13007SOL     OW40852   5.913  10.324   6.489
13007SOL    HW140853   5.979  10.274   6.537
13007SOL    HW240854   5.963  10.380   6.430
13008SOL     OW40855  12.556  13.637   1.332
13008SOL    HW140856  12.644  13.670   1.346
13008SOL    HW240857  12.559  13.546   1.362
13009SOL     OW40858   5.649   7.830  13.138
13009SOL    HW140859   5.621   7.822  13.229
13009SOL    HW240860   5.569   7.820  13.087
13010SOL     OW40861  12.229   1.754  10.179
13010SOL    HW140862  12.294   1.737  10.248
13010SOL    HW240863  12.216   1.669  10.137
13011SOL     OW40864   3.616   5.522   4.716
13011SOL    HW140865   3.554   5.450   4.699
13011SOL    HW240866   3.568   5.581   4.774
13012SOL     OW40867   6.083   2.450   4.940
13012SOL    HW140868   6.086   2.464   4.845
13012SOL    HW240869   6.151   2.506   4.976
13013SOL     OW40870   8.478  11.101   5.056
13013SOL    HW140871   8.385  11.080   5.062
13013SOL    HW240872   8.520  11.044   5.121
13014SOL     OW40873  13.976   6.288   2.457
13014SOL    HW140874  13.897   6.290   2.510
13014SOL    HW240875  13.946   6.304   2.367
13015SOL     OW40876   0.107   2.795  10.820
13015SOL    HW140877   0.027   2.771  10.867
13015SOL    HW240878   0.112   2.733  10.748
13016SOL     OW40879   7.336   8.670   9.211
13016SOL    HW140880   7.423   8.702   9.190
13016SOL    HW240881   7.276   8.732   9.169
13017SOL     OW40882   0.674  12.106   5.085
13017SOL    HW140883   0.676  12.011   5.073
13017SOL    HW240884   0.740  12.139   5.023
13018SOL     OW40885   9.732   1.020   5.545
13018SOL    HW140886   9.786   1.076   5.489
13018SOL    HW240887   9.695   1.080   5.610
13019SOL     OW40888  11.425   1.993  12.773
13019SOL    HW140889  11.373   2.032  12.843
13019SOL    HW240890  11.515   1.998  12.804
13020SOL     OW40891   3.277  13.554  11.074
13020SOL    HW140892   3.309  13.476  11.029
13020SOL    HW240893   3.189  13.568  11.038
13021SOL     OW40894  11.128   8.781   2.099
13021SOL    HW140895  11.186   8.756   2.171
13021SOL    HW240896  11.130   8.707   2.038
13022SOL     OW40897  12.316   1.532  12.398
13022SOL    HW140898  12.358   1.476  12.463
13022SOL    HW240899  12.385   1.589  12.366
13023SOL     OW40900   4.458   2.689   6.798
13023SOL    HW140901   4.540   2.738   6.794
13023SOL    HW240902   4.485   2.597   6.792
13024SOL     OW40903   0.406  12.320   2.292
13024SOL    HW140904   0.345  12.343   2.222
13024SOL    HW240905   0.363  12.348   2.373
13025SOL     OW40906  14.056   9.570  14.651
13025SOL    HW140907  14.098   9.586  14.567
13025SOL    HW240908  13.989   9.639  14.658
13026SOL     OW40909   6.145   5.755   7.552
13026SOL    HW140910   6.240   5.758   7.564
13026SOL    HW240911   6.127   5.662   7.537
13027SOL     OW40912   3.602  13.031   2.857
13027SOL    HW140913   3.582  13.123   2.872
13027SOL    HW240914   3.695  13.029   2.834
13028SOL     OW40915   1.956   4.807   1.947
13028SOL    HW140916   1.951   4.812   2.042
13028SOL    HW240917   1.900   4.733   1.923
13029SOL     OW40918  11.364   9.760   8.832
13029SOL    HW140919  11.381   9.685   8.774
13029SOL    HW240920  11.270   9.757   8.849
13030SOL     OW40921  12.200   6.662  13.908
13030SOL    HW140922  12.186   6.756  13.894
13030SOL    HW240923  12.246   6.633  13.830
13031SOL     OW40924  13.823  11.557   7.755
13031SOL    HW140925  13.853  11.619   7.689
13031SOL    HW240926  13.749  11.511   7.713
13032SOL     OW40927   6.416  13.702   3.404
13032SOL    HW140928   6.401  13.778   3.348
13032SOL    HW240929   6.329  13.669   3.424
13033SOL     OW40930   0.229   3.312   8.617
13033SOL    HW140931   0.236   3.274   8.529
13033SOL    HW240932   0.170   3.387   8.606
13034SOL     OW40933   5.215   9.524   8.687
13034SOL    HW140934   5.182   9.601   8.640
13034SOL    HW240935   5.188   9.450   8.633
13035SOL     OW40936   3.702   1.149   9.006
13035SOL    HW140937   3.668   1.224   8.958
13035SOL    HW240938   3.778   1.120   8.956
13036SOL     OW40939   1.513   7.439   1.829
13036SOL    HW140940   1.606   7.457   1.816
13036SOL    HW240941   1.486   7.391   1.751
13037SOL     OW40942  10.198   9.536   4.528
13037SOL    HW140943  10.159   9.456   4.491
13037SOL    HW240944  10.135   9.566   4.593
13038SOL     OW40945  11.859  11.103  14.003
13038SOL    HW140946  11.851  11.035  14.070
13038SOL    HW240947  11.941  11.082  13.957
13039SOL     OW40948   5.132   5.786   6.325
13039SOL    HW140949   5.082   5.705   6.328
13039SOL    HW240950   5.076   5.850   6.369
13040SOL     OW40951   7.767   9.771   0.087
13040SOL    HW140952   7.744   9.765   0.179
13040SOL    HW240953   7.798   9.861   0.076
13041SOL     OW40954   5.184  13.076   7.807
13041SOL    HW140955   5.265  13.114   7.840
13041SOL    HW240956   5.195  12.981   7.821
13042SOL     OW40957   8.920   9.124   1.380
13042SOL    HW140958   8.987   9.056   1.382
13042SOL    HW240959   8.870   9.110   1.461
13043SOL     OW40960  14.204  14.546  14.669
13043SOL    HW140961  14.295  14.565  14.648
13043SOL    HW240962  14.188  14.459  14.632
13044SOL     OW40963   7.842   5.942  11.589
13044SOL    HW140964   7.756   5.926  11.628
13044SOL    HW240965   7.885   6.002  11.650
13045SOL     OW40966   1.702   2.073   5.895
13045SOL    HW140967   1.615   2.060   5.858
13045SOL    HW240968   1.687   2.125   5.974
13046SOL     OW40969   8.738   5.631   2.769
13046SOL    HW140970   8.729   5.541   2.800
13046SOL    HW240971   8.669   5.679   2.814
13047SOL     OW40972   6.092   9.258   6.280
13047SOL    HW140973   6.121   9.348   6.266
13047SOL    HW240974   6.062   9.256   6.371
13048SOL     OW40975   2.446   8.297   7.741
13048SOL    HW140976   2.525   8.317   7.792
13048SOL    HW240977   2.477   8.238   7.672
13049SOL     OW40978   2.412  11.690   8.603
13049SOL    HW140979   2.412  11.612   8.547
13049SOL    HW240980   2.320  11.715   8.610
13050SOL     OW40981  14.613   7.041   3.235
13050SOL    HW140982  14.615   7.118   3.292
13050SOL    HW240983  14.688   6.988   3.263
13051SOL     OW40984   1.351   7.677   0.803
13051SOL    HW140985   1.268   7.707   0.840
13051SOL    HW240986   1.416   7.696   0.870
13052SOL     OW40987   9.129  13.632   4.647
13052SOL    HW140988   9.149  13.718   4.611
13052SOL    HW240989   9.197  13.575   4.613
13053SOL     OW40990   5.557   3.427   5.961
13053SOL    HW140991   5.634   3.370   5.966
13053SOL    HW240992   5.490   3.381   6.011
13054SOL     OW40993   5.587  11.174  11.688
13054SOL    HW140994   5.542  11.133  11.614
13054SOL    HW240995   5.676  11.190  11.656
13055SOL     OW40996   0.858   6.762   3.520
13055SOL    HW140997   0.811   6.751   3.437
13055SOL    HW240998   0.793   6.799   3.579
13056SOL     OW40999   0.114   5.485   9.723
13056SOL    HW141000   0.076   5.432   9.653
13056SOL    HW241001   0.207   5.489   9.702
13057SOL     OW41002  11.294  10.403   6.525
13057SOL    HW141003  11.348  10.482   6.518
13057SOL    HW241004  11.265  10.402   6.616
13058SOL     OW41005   7.226   8.686   7.929
13058SOL    HW141006   7.216   8.753   7.861
13058SOL    HW241007   7.316   8.696   7.960
13059SOL     OW41008  10.261  10.288   1.637
13059SOL    HW141009  10.224  10.202   1.658
13059SOL    HW241010  10.215  10.314   1.556
13060SOL     OW41011  12.098  12.765   5.615
13060SOL    HW141012  12.146  12.737   5.693
13060SOL    HW241013  12.007  12.743   5.634
13061SOL     OW41014   0.504   2.912  14.313
13061SOL    HW141015   0.443   2.953  14.251
13061SOL    HW241016   0.479   2.820  14.314
13062SOL     OW41017  13.585   5.826  14.166
13062SOL    HW141018  13.621   5.914  14.178
13062SOL    HW241019  13.492   5.835  14.186
13063SOL     OW41020   7.984  11.204   2.139
13063SOL    HW141021   7.930  11.159   2.074
13063SOL    HW241022   8.019  11.134   2.195
13064SOL     OW41023  14.529   3.601  11.834
13064SOL    HW141024  14.592   3.672  11.824
13064SOL    HW241025  14.446   3.638  11.805
13065SOL     OW41026   0.607   5.406   7.703
13065SOL    HW141027   0.619   5.500   7.689
13065SOL    HW241028   0.519   5.388   7.671
13066SOL     OW41029  14.451   2.943   8.512
13066SOL    HW141030  14.403   3.002   8.571
13066SOL    HW241031  14.417   2.856   8.533
13067SOL     OW41032   5.640   4.884   7.894
13067SOL    HW141033   5.560   4.909   7.940
13067SOL    HW241034   5.709   4.889   7.961
13068SOL     OW41035   5.875   2.434   3.616
13068SOL    HW141036   5.827   2.353   3.599
13068SOL    HW241037   5.807   2.501   3.620
13069SOL     OW41038  14.696  14.274   8.250
13069SOL    HW141039  14.641  14.204   8.286
13069SOL    HW241040  14.674  14.277   8.157
13070SOL     OW41041   0.534  13.384   5.981
13070SOL    HW141042   0.461  13.382   6.044
13070SOL    HW241043   0.574  13.297   5.990
13071SOL     OW41044   6.810  10.081   1.298
13071SOL    HW141045   6.778  10.128   1.221
13071SOL    HW241046   6.835  10.150   1.359
13072SOL     OW41047  11.324   3.449  10.210
13072SOL    HW141048  11.339   3.467  10.117
13072SOL    HW241049  11.397   3.393  10.235
13073SOL     OW41050  12.783   3.279  11.373
13073SOL    HW141051  12.777   3.195  11.418
13073SOL    HW241052  12.873   3.283  11.341
13074SOL     OW41053  12.657   1.761  12.789
13074SOL    HW141054  12.576   1.710  12.783
13074SOL    HW241055  12.646   1.830  12.723
13075SOL     OW41056   7.959   9.583   3.412
13075SOL    HW141057   8.043   9.548   3.385
13075SOL    HW241058   7.908   9.589   3.332
13076SOL     OW41059  10.539  14.665   0.627
13076SOL    HW141060  10.508  14.741   0.578
13076SOL    HW241061  10.504  14.678   0.715
13077SOL     OW41062  13.085   9.479   3.590
13077SOL    HW141063  13.161   9.489   3.532
13077SOL    HW241064  13.099   9.396   3.634
13078SOL     OW41065   5.552  14.808   0.330
13078SOL    HW141066   5.465  14.825   0.293
13078SOL    HW241067   5.545  14.836   0.421
13079SOL     OW41068   1.714   6.759   4.167
13079SOL    HW141069   1.642   6.727   4.221
13079SOL    HW241070   1.694   6.730   4.078
13080SOL     OW41071   7.068   0.166  10.886
13080SOL    HW141072   7.092   0.134  10.799
13080SOL    HW241073   6.972   0.171  10.884
13081SOL     OW41074   1.142   2.859   8.458
13081SOL    HW141075   1.154   2.838   8.550
13081SOL    HW241076   1.137   2.954   8.454
13082SOL     OW41077   7.947   3.979  12.006
13082SOL    HW141078   7.856   3.976  11.977
13082SOL    HW241079   7.964   3.893  12.042
13083SOL     OW41080  12.297   3.712   7.071
13083SOL    HW141081  12.382   3.669   7.063
13083SOL    HW241082  12.236   3.654   7.026
13084SOL     OW41083   6.381   2.862   3.341
13084SOL    HW141084   6.287   2.859   3.324
13084SOL    HW241085   6.401   2.955   3.348
13085SOL     OW41086   2.027   5.094  14.583
13085SOL    HW141087   1.970   5.138  14.647
13085SOL    HW241088   2.074   5.028  14.634
13086SOL     OW41089   1.666  13.860  10.359
13086SOL    HW141090   1.660  13.765  10.365
13086SOL    HW241091   1.700  13.876  10.271
13087SOL     OW41092   5.297  10.250   5.904
13087SOL    HW141093   5.217  10.291   5.936
13087SOL    HW241094   5.327  10.307   5.834
13088SOL     OW41095   2.703  13.722   4.035
13088SOL    HW141096   2.620  13.746   4.076
13088SOL    HW241097   2.715  13.630   4.057
13089SOL     OW41098   0.072   9.211  13.729
13089SOL    HW141099   0.014   9.149  13.774
13089SOL    HW241100   0.145   9.157  13.697
13090SOL     OW41101   9.916   7.063   0.525
13090SOL    HW141102   9.852   6.996   0.551
13090SOL    HW241103   9.868   7.146   0.534
13091SOL     OW41104   8.295   3.792  11.316
13091SOL    HW141105   8.288   3.886  11.303
13091SOL    HW241106   8.242   3.754  11.245
13092SOL     OW41107  13.415  12.538   2.970
13092SOL    HW141108  13.414  12.580   2.884
13092SOL    HW241109  13.486  12.474   2.965
13093SOL     OW41110   4.962   1.729  14.337
13093SOL    HW141111   4.999   1.644  14.312
13093SOL    HW241112   4.937   1.717  14.429
13094SOL     OW41113  13.237   2.600  12.370
13094SOL    HW141114  13.259   2.599  12.463
13094SOL    HW241115  13.153   2.645  12.366
13095SOL     OW41116   3.973   0.801  13.273
13095SOL    HW141117   4.006   0.716  13.243
13095SOL    HW241118   3.926   0.837  13.198
13096SOL     OW41119  12.253   8.985   9.952
13096SOL    HW141120  12.182   9.047   9.934
13096SOL    HW241121  12.249   8.921   9.880
13097SOL     OW41122   7.561   0.331   7.986
13097SOL    HW141123   7.606   0.258   8.028
13097SOL    HW241124   7.622   0.405   7.996
13098SOL     OW41125   5.546  12.930   4.265
13098SOL    HW141126   5.620  12.871   4.278
13098SOL    HW241127   5.476  12.874   4.230
13099SOL     OW41128   0.947   9.835  13.293
13099SOL    HW141129   0.944   9.758  13.349
13099SOL    HW241130   0.868   9.830  13.240
13100SOL     OW41131   7.047  12.467   5.158
13100SOL    HW141132   7.085  12.389   5.115
13100SOL    HW241133   6.971  12.489   5.104
13101SOL     OW41134   8.668  14.312  14.518
13101SOL    HW141135   8.633  14.255  14.586
13101SOL    HW241136   8.597  14.322  14.455
13102SOL     OW41137   3.995   4.358  13.282
13102SOL    HW141138   4.010   4.425  13.348
13102SOL    HW241139   3.900   4.354  13.272
13103SOL     OW41140  13.872   4.640   8.959
13103SOL    HW141141  13.853   4.605   9.045
13103SOL    HW241142  13.792   4.626   8.909
13104SOL     OW41143   3.080  11.591   3.190
13104SOL    HW141144   3.175  11.585   3.180
13104SOL    HW241145   3.062  11.550   3.275
13105SOL     OW41146  13.278   6.587  14.817
13105SOL    HW141147  13.184   6.584  14.837
13105SOL    HW241148  13.315   6.638   0.017
13106SOL     OW41149   6.013   4.690  14.143
13106SOL    HW141150   5.975   4.717  14.060
13106SOL    HW241151   6.005   4.767  14.199
13107SOL     OW41152  14.234   7.909   4.807
13107SOL    HW141153  14.176   7.897   4.731
13107SOL    HW241154  14.322   7.906   4.771
13108SOL     OW41155   0.182   4.241   3.893
13108SOL    HW141156   0.265   4.253   3.939
13108SOL    HW241157   0.204   4.190   3.815
13109SOL     OW41158   3.741   9.150   8.907
13109SOL    HW141159   3.759   9.101   8.827
13109SOL    HW241160   3.810   9.216   8.911
13110SOL     OW41161   0.045  10.699   1.566
13110SOL    HW141162   0.069  10.608   1.550
13110SOL    HW241163   0.028  10.703   1.660
13111SOL     OW41164   4.696  10.914   6.837
13111SOL    HW141165   4.690  10.820   6.816
13111SOL    HW241166   4.786  10.938   6.815
13112SOL     OW41167   4.198   5.598   5.769
13112SOL    HW141168   4.195   5.600   5.673
13112SOL    HW241169   4.181   5.688   5.795
13113SOL     OW41170   8.494   4.189   8.185
13113SOL    HW141171   8.477   4.116   8.243
13113SOL    HW241172   8.421   4.249   8.199
13114SOL     OW41173   4.454  12.313   6.956
13114SOL    HW141174   4.447  12.409   6.959
13114SOL    HW241175   4.501  12.290   7.037
13115SOL     OW41176   4.652   4.005   6.319
13115SOL    HW141177   4.619   3.980   6.405
13115SOL    HW241178   4.574   4.011   6.264
13116SOL     OW41179   4.072  11.947  12.089
13116SOL    HW141180   4.023  12.029  12.083
13116SOL    HW241181   4.152  11.972  12.136
13117SOL     OW41182  14.176   3.866   9.273
13117SOL    HW141183  14.249   3.819   9.233
13117SOL    HW241184  14.113   3.880   9.202
13118SOL     OW41185   8.110  12.339   4.786
13118SOL    HW141186   8.156  12.420   4.808
13118SOL    HW241187   8.156  12.306   4.708
13119SOL     OW41188   9.832   3.871   8.938
13119SOL    HW141189   9.745   3.847   8.969
13119SOL    HW241190   9.835   3.966   8.949
13120SOL     OW41191   3.125   7.363   7.908
13120SOL    HW141192   3.042   7.365   7.956
13120SOL    HW241193   3.100   7.383   7.818
13121SOL     OW41194   3.069   7.283   6.961
13121SOL    HW141195   3.011   7.250   6.892
13121SOL    HW241196   3.152   7.299   6.917
13122SOL     OW41197   1.610   8.183   5.782
13122SOL    HW141198   1.608   8.279   5.782
13122SOL    HW241199   1.532   8.157   5.830
13123SOL     OW41200   4.800   1.028   9.611
13123SOL    HW141201   4.726   1.087   9.625
13123SOL    HW241202   4.863   1.081   9.562
13124SOL     OW41203  14.406  13.094  14.640
13124SOL    HW141204  14.335  13.102  14.577
13124SOL    HW241205  14.362  13.083  14.725
13125SOL     OW41206   6.407  11.520  14.189
13125SOL    HW141207   6.349  11.573  14.244
13125SOL    HW241208   6.451  11.584  14.133
13126SOL     OW41209   4.156  11.558   2.882
13126SOL    HW141210   4.197  11.508   2.812
13126SOL    HW241211   4.070  11.517   2.893
13127SOL     OW41212   6.489   3.591   7.962
13127SOL    HW141213   6.579   3.604   7.994
13127SOL    HW241214   6.466   3.676   7.923
13128SOL     OW41215  14.434  11.245   5.071
13128SOL    HW141216  14.352  11.258   5.119
13128SOL    HW241217  14.494  11.309   5.109
13129SOL     OW41218   1.873   2.910   9.778
13129SOL    HW141219   1.850   2.977   9.842
13129SOL    HW241220   1.913   2.840   9.830
13130SOL     OW41221  12.587  14.778  10.669
13130SOL    HW141222  12.581  14.825  10.752
13130SOL    HW241223  12.659  14.716  10.682
13131SOL     OW41224   2.434   5.483   7.307
13131SOL    HW141225   2.509   5.441   7.350
13131SOL    HW241226   2.383   5.410   7.271
13132SOL     OW41227  11.834   7.945  14.613
13132SOL    HW141228  11.844   7.915  14.703
13132SOL    HW241229  11.910   7.910  14.567
13133SOL     OW41230   7.559   5.738  11.648
13133SOL    HW141231   7.549   5.815  11.703
13133SOL    HW241232   7.594   5.671  11.706
13134SOL     OW41233  10.783   7.137   5.838
13134SOL    HW141234  10.754   7.092   5.759
13134SOL    HW241235  10.799   7.227   5.809
13135SOL     OW41236   5.804  11.625   3.166
13135SOL    HW141237   5.742  11.697   3.160
13135SOL    HW241238   5.755  11.554   3.208
13136SOL     OW41239   4.261  14.387  13.894
13136SOL    HW141240   4.193  14.390  13.961
13136SOL    HW241241   4.330  14.332  13.932
13137SOL     OW41242   8.749   2.233   1.984
13137SOL    HW141243   8.768   2.194   2.069
13137SOL    HW241244   8.736   2.326   2.003
13138SOL     OW41245   0.952   2.373   0.849
13138SOL    HW141246   0.863   2.356   0.880
13138SOL    HW241247   0.974   2.459   0.885
13139SOL     OW41248  14.069   1.665   0.044
13139SOL    HW141249  14.056   1.628  14.829
13139SOL    HW241250  14.025   1.750   0.041
13140SOL     OW41251  11.811   3.497   9.598
13140SOL    HW141252  11.868   3.561   9.555
13140SOL    HW241253  11.742   3.481   9.534
13141SOL     OW41254   8.939  12.063   5.619
13141SOL    HW141255   8.892  11.989   5.655
13141SOL    HW241256   8.872  12.127   5.597
13142SOL     OW41257   9.609   1.357   7.135
13142SOL    HW141258   9.691   1.330   7.095
13142SOL    HW241259   9.544   1.297   7.098
13143SOL     OW41260  12.187   6.577   8.681
13143SOL    HW141261  12.140   6.622   8.751
13143SOL    HW241262  12.179   6.484   8.701
13144SOL     OW41263  13.828   2.354   1.776
13144SOL    HW141264  13.753   2.300   1.802
13144SOL    HW241265  13.853   2.320   1.691
13145SOL     OW41266   7.843  13.060   0.957
13145SOL    HW141267   7.760  13.064   0.911
13145SOL    HW241268   7.909  13.084   0.892
13146SOL     OW41269   1.916   1.731   0.630
13146SOL    HW141270   1.987   1.667   0.626
13146SOL    HW241271   1.883   1.735   0.540
13147SOL     OW41272   8.856   1.294   0.054
13147SOL    HW141273   8.850   1.201   0.074
13147SOL    HW241274   8.945   1.319   0.081
13148SOL     OW41275  10.234   7.341   6.419
13148SOL    HW141276  10.174   7.410   6.394
13148SOL    HW241277  10.307   7.387   6.462
13149SOL     OW41278  14.803  14.228  10.505
13149SOL    HW141279  14.798  14.263  10.416
13149SOL    HW241280   0.011  14.174  10.505
13150SOL     OW41281   2.890  12.406   5.690
13150SOL    HW141282   2.853  12.358   5.764
13150SOL    HW241283   2.955  12.464   5.729
13151SOL     OW41284  10.320  10.798   3.577
13151SOL    HW141285  10.399  10.747   3.597
13151SOL    HW241286  10.327  10.816   3.483
13152SOL     OW41287   9.137   2.492   4.461
13152SOL    HW141288   9.101   2.507   4.373
13152SOL    HW241289   9.181   2.407   4.454
13153SOL     OW41290  11.042  11.207   5.254
13153SOL    HW141291  11.063  11.299   5.240
13153SOL    HW241292  11.102  11.179   5.324
13154SOL     OW41293   4.616   0.243  12.152
13154SOL    HW141294   4.617   0.313  12.086
13154SOL    HW241295   4.593   0.165  12.103
13155SOL     OW41296   2.811   7.540   1.128
13155SOL    HW141297   2.797   7.556   1.035
13155SOL    HW241298   2.889   7.591   1.150
13156SOL     OW41299   5.160  11.338   4.987
13156SOL    HW141300   5.100  11.337   4.912
13156SOL    HW241301   5.222  11.408   4.967
13157SOL     OW41302   8.807   0.745   1.346
13157SOL    HW141303   8.804   0.794   1.264
13157SOL    HW241304   8.893   0.762   1.382
13158SOL     OW41305  11.313   2.038   3.527
13158SOL    HW141306  11.233   2.078   3.560
13158SOL    HW241307  11.381   2.104   3.543
13159SOL     OW41308   6.526   7.789   0.321
13159SOL    HW141309   6.545   7.815   0.411
13159SOL    HW241310   6.593   7.724   0.300
13160SOL     OW41311   7.516   7.201   5.498
13160SOL    HW141312   7.473   7.258   5.562
13160SOL    HW241313   7.606   7.194   5.530
13161SOL     OW41314  11.476   4.578  14.356
13161SOL    HW141315  11.475   4.606  14.264
13161SOL    HW241316  11.472   4.483  14.353
13162SOL     OW41317   9.535  11.439   6.382
13162SOL    HW141318   9.594  11.512   6.365
13162SOL    HW241319   9.498  11.417   6.296
13163SOL     OW41320   4.554   4.588   5.836
13163SOL    HW141321   4.540   4.550   5.749
13163SOL    HW241322   4.533   4.518   5.897
13164SOL     OW41323   2.764   4.042   5.488
13164SOL    HW141324   2.785   4.021   5.397
13164SOL    HW241325   2.764   3.957   5.532
13165SOL     OW41326  10.340   4.887   5.196
13165SOL    HW141327  10.302   4.807   5.160
13165SOL    HW241328  10.313   4.887   5.288
13166SOL     OW41329   7.296  10.512   1.083
13166SOL    HW141330   7.383  10.496   1.120
13166SOL    HW241331   7.247  10.432   1.102
13167SOL     OW41332   5.460   9.303   6.363
13167SOL    HW141333   5.499   9.385   6.332
13167SOL    HW241334   5.405   9.329   6.437
13168SOL     OW41335   7.153  12.218  13.781
13168SOL    HW141336   7.179  12.310  13.773
13168SOL    HW241337   7.231  12.168  13.758
13169SOL     OW41338   7.487  14.324  13.868
13169SOL    HW141339   7.499  14.386  13.796
13169SOL    HW241340   7.394  14.302  13.866
13170SOL     OW41341  11.975  12.626   5.993
13170SOL    HW141342  11.956  12.603   6.084
13170SOL    HW241343  11.988  12.721   5.994
13171SOL     OW41344   8.424  11.715  13.733
13171SOL    HW141345   8.377  11.639  13.698
13171SOL    HW241346   8.378  11.735  13.815
13172SOL     OW41347   3.698  12.273  13.007
13172SOL    HW141348   3.758  12.279  13.081
13172SOL    HW241349   3.612  12.292  13.045
13173SOL     OW41350  10.057   3.848   5.854
13173SOL    HW141351   9.995   3.891   5.913
13173SOL    HW241352  10.036   3.885   5.768
13174SOL     OW41353   2.493   9.933  10.523
13174SOL    HW141354   2.403   9.952  10.551
13174SOL    HW241355   2.492   9.840  10.503
13175SOL     OW41356   1.236  13.937  14.800
13175SOL    HW141357   1.278  14.007  14.851
13175SOL    HW241358   1.176  13.895  14.861
13176SOL     OW41359   4.379   0.122  13.626
13176SOL    HW141360   4.431   0.044  13.606
13176SOL    HW241361   4.321   0.094  13.697
13177SOL     OW41362   3.455   0.739   4.593
13177SOL    HW141363   3.427   0.830   4.602
13177SOL    HW241364   3.468   0.727   4.499
13178SOL     OW41365   4.344  14.832  10.180
13178SOL    HW141366   4.356  14.739  10.160
13178SOL    HW241367   4.359  14.838  10.275
13179SOL     OW41368   8.370   5.940   0.561
13179SOL    HW141369   8.338   5.983   0.482
13179SOL    HW241370   8.403   5.856   0.531
13180SOL     OW41371   1.203   1.797  10.986
13180SOL    HW141372   1.250   1.736  10.928
13180SOL    HW241373   1.268   1.822  11.052
13181SOL     OW41374   9.941  13.717   9.316
13181SOL    HW141375  10.014  13.710   9.377
13181SOL    HW241376   9.962  13.655   9.246
13182SOL     OW41377   2.500   2.261   6.615
13182SOL    HW141378   2.566   2.203   6.576
13182SOL    HW241379   2.462   2.210   6.686
13183SOL     OW41380   1.482   9.178   8.270
13183SOL    HW141381   1.534   9.139   8.341
13183SOL    HW241382   1.393   9.148   8.286
13184SOL     OW41383  10.974   3.032   4.097
13184SOL    HW141384  11.052   3.055   4.047
13184SOL    HW241385  10.943   2.951   4.056
13185SOL     OW41386   5.321   7.510  13.518
13185SOL    HW141387   5.414   7.533  13.517
13185SOL    HW241388   5.289   7.540  13.603
13186SOL     OW41389   1.740   2.205   2.542
13186SOL    HW141390   1.800   2.215   2.468
13186SOL    HW241391   1.659   2.174   2.502
13187SOL     OW41392   3.197  14.002   7.404
13187SOL    HW141393   3.127  14.067   7.404
13187SOL    HW241394   3.236  14.010   7.317
13188SOL     OW41395   2.733   7.570  14.029
13188SOL    HW141396   2.706   7.646  14.079
13188SOL    HW241397   2.659   7.510  14.033
13189SOL     OW41398   2.480   4.029  12.086
13189SOL    HW141399   2.549   4.090  12.112
13189SOL    HW241400   2.417   4.083  12.039
13190SOL     OW41401   0.386   2.218   3.325
13190SOL    HW141402   0.301   2.199   3.285
13190SOL    HW241403   0.410   2.304   3.290
13191SOL     OW41404  10.012  12.388   0.688
13191SOL    HW141405  10.020  12.435   0.771
13191SOL    HW241406   9.955  12.444   0.635
13192SOL     OW41407  13.684   8.778   7.954
13192SOL    HW141408  13.698   8.786   8.048
13192SOL    HW241409  13.613   8.840   7.935
13193SOL     OW41410   4.451   9.084   3.023
13193SOL    HW141411   4.472   8.991   3.012
13193SOL    HW241412   4.508   9.129   2.961
13194SOL     OW41413   2.327   5.478   6.673
13194SOL    HW141414   2.390   5.537   6.632
13194SOL    HW241415   2.243   5.523   6.665
13195SOL     OW41416   6.769  14.294  14.580
13195SOL    HW141417   6.707  14.362  14.609
13195SOL    HW241418   6.738  14.214  14.622
13196SOL     OW41419  12.698  10.777   2.622
13196SOL    HW141420  12.750  10.841   2.671
13196SOL    HW241421  12.700  10.808   2.532
13197SOL     OW41422   5.312  12.161   8.369
13197SOL    HW141423   5.238  12.122   8.416
13197SOL    HW241424   5.381  12.166   8.435
13198SOL     OW41425  13.171   0.549   7.519
13198SOL    HW141426  13.225   0.570   7.443
13198SOL    HW241427  13.221   0.582   7.593
13199SOL     OW41428  12.460   8.463  14.341
13199SOL    HW141429  12.373   8.454  14.303
13199SOL    HW241430  12.519   8.426  14.275
13200SOL     OW41431   1.174  13.468   7.454
13200SOL    HW141432   1.224  13.405   7.402
13200SOL    HW241433   1.169  13.429   7.541
13201SOL     OW41434   5.608   8.319   6.274
13201SOL    HW141435   5.626   8.407   6.309
13201SOL    HW241436   5.678   8.265   6.309
13202SOL     OW41437  12.831  11.079   4.708
13202SOL    HW141438  12.874  11.068   4.624
13202SOL    HW241439  12.769  11.151   4.695
13203SOL     OW41440  10.689   3.393   8.300
13203SOL    HW141441  10.777   3.421   8.324
13203SOL    HW241442  10.652   3.359   8.382
13204SOL     OW41443   7.291   3.567  11.368
13204SOL    HW141444   7.294   3.504  11.440
13204SOL    HW241445   7.216   3.623  11.388
13205SOL     OW41446   5.081   8.722  10.950
13205SOL    HW141447   5.103   8.638  10.910
13205SOL    HW241448   5.041   8.772  10.879
13206SOL     OW41449   5.927   4.257  11.231
13206SOL    HW141450   6.019   4.279  11.215
13206SOL    HW241451   5.923   4.234  11.323
13207SOL     OW41452  10.570   6.653  14.074
13207SOL    HW141453  10.496   6.654  14.135
13207SOL    HW241454  10.551   6.583  14.013
13208SOL     OW41455   5.424   9.118   6.888
13208SOL    HW141456   5.405   9.072   6.970
13208SOL    HW241457   5.340   9.157   6.863
13209SOL     OW41458  11.878  12.639   5.720
13209SOL    HW141459  11.865  12.549   5.691
13209SOL    HW241460  11.931  12.631   5.800
13210SOL     OW41461   6.829   2.012  10.265
13210SOL    HW141462   6.835   2.053  10.351
13210SOL    HW241463   6.916   1.975  10.250
13211SOL     OW41464   7.851   1.727   2.118
13211SOL    HW141465   7.920   1.789   2.095
13211SOL    HW241466   7.866   1.652   2.060
13212SOL     OW41467   3.384   9.430   9.544
13212SOL    HW141468   3.412   9.419   9.634
13212SOL    HW241469   3.386   9.342   9.506
13213SOL     OW41470   4.875  10.849   2.776
13213SOL    HW141471   4.875  10.912   2.848
13213SOL    HW241472   4.926  10.892   2.707
13214SOL     OW41473   6.038   4.749   3.561
13214SOL    HW141474   5.998   4.795   3.635
13214SOL    HW241475   5.988   4.777   3.485
13215SOL     OW41476   3.915   8.630   0.997
13215SOL    HW141477   3.845   8.670   0.946
13215SOL    HW241478   3.957   8.704   1.042
13216SOL     OW41479  12.633  10.768  14.089
13216SOL    HW141480  12.643  10.791  14.181
13216SOL    HW241481  12.601  10.847  14.047
13217SOL     OW41482  13.544   6.366   6.580
13217SOL    HW141483  13.459   6.401   6.606
13217SOL    HW241484  13.553   6.391   6.488
13218SOL     OW41485  14.440   2.843   4.813
13218SOL    HW141486  14.375   2.814   4.878
13218SOL    HW241487  14.402   2.922   4.775
13219SOL     OW41488  14.817   2.267   3.490
13219SOL    HW141489   0.009   2.335   3.511
13219SOL    HW241490  14.732   2.308   3.508
13220SOL     OW41491   8.526   4.026   4.822
13220SOL    HW141492   8.514   4.014   4.728
13220SOL    HW241493   8.561   3.943   4.853
13221SOL     OW41494   2.474   8.244   3.708
13221SOL    HW141495   2.493   8.157   3.744
13221SOL    HW241496   2.380   8.242   3.688
13222SOL     OW41497   5.889   8.752   2.766
13222SOL    HW141498   5.974   8.708   2.759
13222SOL    HW241499   5.850   8.743   2.680
13223SOL     OW41500   7.162   4.457   2.023
13223SOL    HW141501   7.095   4.511   2.065
13223SOL    HW241502   7.129   4.367   2.032
13224SOL     OW41503  10.550  14.326   6.593
13224SOL    HW141504  10.521  14.417   6.595
13224SOL    HW241505  10.514  14.288   6.674
13225SOL     OW41506   3.235  14.087  14.056
13225SOL    HW141507   3.281  14.140  13.991
13225SOL    HW241508   3.165  14.143  14.089
13226SOL     OW41509   2.064  13.241   2.324
13226SOL    HW141510   1.987  13.275   2.369
13226SOL    HW241511   2.112  13.192   2.390
13227SOL     OW41512   1.874   1.234   7.864
13227SOL    HW141513   1.808   1.293   7.899
13227SOL    HW241514   1.858   1.233   7.769
13228SOL     OW41515   9.323   1.393  13.401
13228SOL    HW141516   9.412   1.393  13.436
13228SOL    HW241517   9.268   1.413  13.476
13229SOL     OW41518   3.392   2.781   9.503
13229SOL    HW141519   3.424   2.721   9.571
13229SOL    HW241520   3.299   2.758   9.494
13230SOL     OW41521   0.916   1.016   8.343
13230SOL    HW141522   0.877   0.941   8.298
13230SOL    HW241523   0.878   1.092   8.300
13231SOL     OW41524   4.114   7.609   7.221
13231SOL    HW141525   4.132   7.519   7.247
13231SOL    HW241526   4.134   7.612   7.128
13232SOL     OW41527   5.519  11.440   4.670
13232SOL    HW141528   5.465  11.422   4.593
13232SOL    HW241529   5.587  11.373   4.668
13233SOL     OW41530  10.868  13.976   2.453
13233SOL    HW141531  10.841  14.062   2.420
13233SOL    HW241532  10.842  13.914   2.385
13234SOL     OW41533  12.320   8.813   9.753
13234SOL    HW141534  12.350   8.742   9.696
13234SOL    HW241535  12.400   8.858   9.780
13235SOL     OW41536   1.858   8.287  14.670
13235SOL    HW141537   1.844   8.368  14.718
13235SOL    HW241538   1.849   8.217  14.735
13236SOL     OW41539  11.062  13.703  12.080
13236SOL    HW141540  10.996  13.640  12.107
13236SOL    HW241541  11.138  13.683  12.134
13237SOL     OW41542  10.785   3.628   6.993
13237SOL    HW141543  10.780   3.575   7.073
13237SOL    HW241544  10.746   3.712   7.017
13238SOL     OW41545   6.046   5.295   1.151
13238SOL    HW141546   5.999   5.291   1.068
13238SOL    HW241547   6.088   5.381   1.151
13239SOL     OW41548   5.416   4.383  10.433
13239SOL    HW141549   5.503   4.345  10.432
13239SOL    HW241550   5.411   4.435  10.352
13240SOL     OW41551  11.890   1.092  10.994
13240SOL    HW141552  11.891   1.046  10.910
13240SOL    HW241553  11.977   1.130  11.003
13241SOL     OW41554  14.047  13.958   3.049
13241SOL    HW141555  14.048  13.888   2.985
13241SOL    HW241556  13.972  13.939   3.106
13242SOL     OW41557  12.049  11.666   5.811
13242SOL    HW141558  12.000  11.608   5.869
13242SOL    HW241559  12.004  11.659   5.727
13243SOL     OW41560   4.532   7.001   9.075
13243SOL    HW141561   4.436   6.995   9.081
13243SOL    HW241562   4.560   7.026   9.164
13244SOL     OW41563   1.328   4.926   4.268
13244SOL    HW141564   1.412   4.957   4.234
13244SOL    HW241565   1.338   4.931   4.363
13245SOL     OW41566   5.269   7.641  11.978
13245SOL    HW141567   5.335   7.691  11.929
13245SOL    HW241568   5.267   7.556  11.935
13246SOL     OW41569   7.616  11.247   9.573
13246SOL    HW141570   7.530  11.231   9.611
13246SOL    HW241571   7.622  11.342   9.567
13247SOL     OW41572   4.547   5.770   2.628
13247SOL    HW141573   4.487   5.722   2.686
13247SOL    HW241574   4.634   5.745   2.660
13248SOL     OW41575   9.361   3.900   1.228
13248SOL    HW141576   9.283   3.956   1.227
13248SOL    HW241577   9.375   3.880   1.321
13249SOL     OW41578   3.361   9.102   9.831
13249SOL    HW141579   3.417   9.037   9.875
13249SOL    HW241580   3.419   9.177   9.816
13250SOL     OW41581   5.813   6.826  10.823
13250SOL    HW141582   5.816   6.874  10.906
13250SOL    HW241583   5.847   6.740  10.844
13251SOL     OW41584   9.203  14.623   6.643
13251SOL    HW141585   9.226  14.644   6.733
13251SOL    HW241586   9.262  14.677   6.590
13252SOL     OW41587   4.782  12.037   7.049
13252SOL    HW141588   4.710  11.977   7.036
13252SOL    HW241589   4.856  11.997   7.003
13253SOL     OW41590   7.028   5.381   0.088
13253SOL    HW141591   7.072   5.316   0.035
13253SOL    HW241592   6.967   5.331   0.142
13254SOL     OW41593  14.533   7.751   1.454
13254SOL    HW141594  14.590   7.743   1.530
13254SOL    HW241595  14.581   7.707   1.384
13255SOL     OW41596  12.088   9.698   7.270
13255SOL    HW141597  12.079   9.605   7.289
13255SOL    HW241598  11.999   9.728   7.254
13256SOL     OW41599  13.422   7.109   8.383
13256SOL    HW141600  13.339   7.134   8.425
13256SOL    HW241601  13.479   7.083   8.455
13257SOL     OW41602   3.047   1.273   8.923
13257SOL    HW141603   3.132   1.286   8.880
13257SOL    HW241604   3.020   1.361   8.950
13258SOL     OW41605   2.378  10.812   8.719
13258SOL    HW141606   2.290  10.842   8.743
13258SOL    HW241607   2.415  10.780   8.801
13259SOL     OW41608  14.018   2.735   4.502
13259SOL    HW141609  14.097   2.742   4.447
13259SOL    HW241610  13.947   2.718   4.439
13260SOL     OW41611  12.981   3.528   3.314
13260SOL    HW141612  12.979   3.547   3.220
13260SOL    HW241613  12.890   3.532   3.341
13261SOL     OW41614   3.329   5.248   9.004
13261SOL    HW141615   3.304   5.194   9.078
13261SOL    HW241616   3.353   5.332   9.042
13262SOL     OW41617   0.231   0.945  14.723
13262SOL    HW141618   0.302   0.881  14.715
13262SOL    HW241619   0.159   0.895  14.762
13263SOL     OW41620   6.810  13.982   2.422
13263SOL    HW141621   6.858  13.910   2.381
13263SOL    HW241622   6.794  13.952   2.511
13264SOL     OW41623   1.714   5.946   1.918
13264SOL    HW141624   1.622   5.928   1.899
13264SOL    HW241625   1.751   5.970   1.833
13265SOL     OW41626  10.177  14.308  14.178
13265SOL    HW141627  10.165  14.232  14.121
13265SOL    HW241628  10.256  14.288  14.228
13266SOL     OW41629   4.236   6.758  14.762
13266SOL    HW141630   4.315   6.761  14.707
13266SOL    HW241631   4.198   6.672  14.745
13267SOL     OW41632  10.086   6.240   0.103
13267SOL    HW141633  10.178   6.220   0.119
13267SOL    HW241634  10.078   6.242   0.008
13268SOL     OW41635   5.176   0.685  14.682
13268SOL    HW141636   5.093   0.643  14.703
13268SOL    HW241637   5.226   0.619  14.635
13269SOL     OW41638   3.970  13.064  10.764
13269SOL    HW141639   3.905  13.000  10.735
13269SOL    HW241640   3.935  13.148  10.734
13270SOL     OW41641  13.235   1.803   0.951
13270SOL    HW141642  13.161   1.863   0.938
13270SOL    HW241643  13.197   1.727   0.994
13271SOL     OW41644  11.166   2.206  13.548
13271SOL    HW141645  11.244   2.164  13.584
13271SOL    HW241646  11.173   2.297  13.574
13272SOL     OW41647  11.506   5.196   6.415
13272SOL    HW141648  11.419   5.163   6.394
13272SOL    HW241649  11.513   5.188   6.510
13273SOL     OW41650   8.728   5.109   3.291
13273SOL    HW141651   8.738   5.061   3.373
13273SOL    HW241652   8.807   5.163   3.285
13274SOL     OW41653  14.737  11.169  12.880
13274SOL    HW141654  14.832  11.170  12.891
13274SOL    HW241655  14.703  11.198  12.964
13275SOL     OW41656  12.219  11.190  13.710
13275SOL    HW141657  12.226  11.285  13.702
13275SOL    HW241658  12.190  11.175  13.800
13276SOL     OW41659   9.752   0.224  10.067
13276SOL    HW141660   9.835   0.176  10.069
13276SOL    HW241661   9.733   0.235   9.974
13277SOL     OW41662   7.550   3.159   0.834
13277SOL    HW141663   7.510   3.201   0.758
13277SOL    HW241664   7.483   3.163   0.902
13278SOL     OW41665   9.278  12.513   3.932
13278SOL    HW141666   9.245  12.574   3.866
13278SOL    HW241667   9.202  12.494   3.988
13279SOL     OW41668   1.645   7.561   0.378
13279SOL    HW141669   1.573   7.602   0.427
13279SOL    HW241670   1.640   7.468   0.402
13280SOL     OW41671  12.997   1.711   5.915
13280SOL    HW141672  13.005   1.784   5.855
13280SOL    HW241673  12.967   1.750   5.997
13281SOL     OW41674   0.839   9.287  11.495
13281SOL    HW141675   0.844   9.375  11.532
13281SOL    HW241676   0.860   9.299  11.402
13282SOL     OW41677   2.391   5.626   9.215
13282SOL    HW141678   2.301   5.595   9.203
13282SOL    HW241679   2.432   5.561   9.271
13283SOL     OW41680  10.554  11.780   5.409
13283SOL    HW141681  10.493  11.714   5.441
13283SOL    HW241682  10.577  11.750   5.321
13284SOL     OW41683   9.882   6.293   5.105
13284SOL    HW141684   9.917   6.357   5.167
13284SOL    HW241685   9.873   6.341   5.023
13285SOL     OW41686  13.207   8.924   1.512
13285SOL    HW141687  13.123   8.895   1.477
13285SOL    HW241688  13.268   8.911   1.440
13286SOL     OW41689   4.016  12.340  13.508
13286SOL    HW141690   4.097  12.291  13.492
13286SOL    HW241691   4.043  12.415  13.561
13287SOL     OW41692  10.662  13.725  10.968
13287SOL    HW141693  10.593  13.716  10.902
13287SOL    HW241694  10.743  13.729  10.918
13288SOL     OW41695   3.809   9.018   3.973
13288SOL    HW141696   3.801   8.929   3.941
13288SOL    HW241697   3.825   9.009   4.067
13289SOL     OW41698   0.478   1.403   0.490
13289SOL    HW141699   0.501   1.317   0.455
13289SOL    HW241700   0.559   1.436   0.528
13290SOL     OW41701   4.821  12.798   8.304
13290SOL    HW141702   4.843  12.814   8.396
13290SOL    HW241703   4.899  12.755   8.268
13291SOL     OW41704   8.392  12.693   7.165
13291SOL    HW141705   8.320  12.668   7.224
13291SOL    HW241706   8.362  12.773   7.122
13292SOL     OW41707  10.930   8.831   0.042
13292SOL    HW141708  11.007   8.854  14.862
13292SOL    HW241709  10.887   8.914   0.059
13293SOL     OW41710   5.065   6.620  11.098
13293SOL    HW141711   5.058   6.684  11.169
13293SOL    HW241712   5.159   6.605  11.089
13294SOL     OW41713   7.533   8.726   4.549
13294SOL    HW141714   7.625   8.741   4.530
13294SOL    HW241715   7.533   8.679   4.632
13295SOL     OW41716   4.010   6.741  10.580
13295SOL    HW141717   4.081   6.795  10.615
13295SOL    HW241718   3.988   6.681  10.651
13296SOL     OW41719   2.965  14.453   2.703
13296SOL    HW141720   2.913  14.436   2.782
13296SOL    HW241721   3.028  14.381   2.700
13297SOL     OW41722   3.446   9.637  12.686
13297SOL    HW141723   3.473   9.712  12.739
13297SOL    HW241724   3.354   9.654  12.666
13298SOL     OW41725   7.744   6.763   9.381
13298SOL    HW141726   7.817   6.804   9.428
13298SOL    HW241727   7.756   6.790   9.290
13299SOL     OW41728  12.497  13.611   7.133
13299SOL    HW141729  12.577  13.607   7.186
13299SOL    HW241730  12.492  13.525   7.092
13300SOL     OW41731   6.013   2.045   3.300
13300SOL    HW141732   5.966   1.966   3.330
13300SOL    HW241733   6.105   2.025   3.315
13301SOL     OW41734   7.064   0.178  13.254
13301SOL    HW141735   7.092   0.208  13.340
13301SOL    HW241736   7.146   0.169  13.204
13302SOL     OW41737   8.192  14.491   9.880
13302SOL    HW141738   8.194  14.581   9.911
13302SOL    HW241739   8.143  14.494   9.798
13303SOL     OW41740  10.477   3.692  12.217
13303SOL    HW141741  10.525   3.620  12.259
13303SOL    HW241742  10.520   3.771  12.250
13304SOL     OW41743  13.940   8.584  13.346
13304SOL    HW141744  13.892   8.596  13.264
13304SOL    HW241745  13.934   8.670  13.388
13305SOL     OW41746   0.890   7.507  10.051
13305SOL    HW141747   0.963   7.569  10.049
13305SOL    HW241748   0.836   7.535  10.124
13306SOL     OW41749   5.245   2.771  10.064
13306SOL    HW141750   5.182   2.743  10.131
13306SOL    HW241751   5.309   2.701  10.061
13307SOL     OW41752   0.067   6.757   6.529
13307SOL    HW141753   0.084   6.675   6.574
13307SOL    HW241754  14.863   6.795   6.574
13308SOL     OW41755   8.891   9.369   1.216
13308SOL    HW141756   8.895   9.310   1.292
13308SOL    HW241757   8.945   9.444   1.241
13309SOL     OW41758  11.817   6.648   0.287
13309SOL    HW141759  11.874   6.575   0.265
13309SOL    HW241760  11.819   6.653   0.383
13310SOL     OW41761  13.516   4.109   6.451
13310SOL    HW141762  13.601   4.066   6.450
13310SOL    HW241763  13.487   4.108   6.359
13311SOL     OW41764   9.760   1.889  12.751
13311SOL    HW141765   9.812   1.858  12.826
13311SOL    HW241766   9.816   1.873  12.675
13312SOL     OW41767  14.461   6.985   1.560
13312SOL    HW141768  14.510   7.019   1.635
13312SOL    HW241769  14.387   7.044   1.551
13313SOL     OW41770   6.331   9.244   7.234
13313SOL    HW141771   6.328   9.337   7.214
13313SOL    HW241772   6.422   9.219   7.217
13314SOL     OW41773  12.319   9.962   9.233
13314SOL    HW141774  12.414   9.971   9.245
13314SOL    HW241775  12.291  10.046   9.197
13315SOL     OW41776   1.683  13.459   6.251
13315SOL    HW141777   1.761  13.422   6.210
13315SOL    HW241778   1.612  13.399   6.226
13316SOL     OW41779   2.552   6.241  13.080
13316SOL    HW141780   2.530   6.155  13.044
13316SOL    HW241781   2.519   6.303  13.015
13317SOL     OW41782   9.394   8.252   7.154
13317SOL    HW141783   9.405   8.296   7.238
13317SOL    HW241784   9.368   8.322   7.093
13318SOL     OW41785   9.018   9.879   7.029
13318SOL    HW141786   9.102   9.844   7.060
13318SOL    HW241787   8.963   9.882   7.107
13319SOL     OW41788   4.927   4.587  12.511
13319SOL    HW141789   4.989   4.604  12.439
13319SOL    HW241790   4.946   4.498  12.538
13320SOL     OW41791   4.489  10.962  12.641
13320SOL    HW141792   4.454  11.051  12.642
13320SOL    HW241793   4.574  10.968  12.684
13321SOL     OW41794  13.838   4.948   1.237
13321SOL    HW141795  13.751   4.911   1.222
13321SOL    HW241796  13.894   4.905   1.173
13322SOL     OW41797   2.852   8.025   2.028
13322SOL    HW141798   2.899   7.972   1.964
13322SOL    HW241799   2.770   7.978   2.042
13323SOL     OW41800  11.160  11.291   7.657
13323SOL    HW141801  11.206  11.236   7.721
13323SOL    HW241802  11.133  11.230   7.588
13324SOL     OW41803   0.315  11.163   7.976
13324SOL    HW141804   0.391  11.108   7.958
13324SOL    HW241805   0.258  11.152   7.900
13325SOL     OW41806  11.264   1.857   6.223
13325SOL    HW141807  11.229   1.938   6.260
13325SOL    HW241808  11.308   1.813   6.296
13326SOL     OW41809  14.430   8.950  11.922
13326SOL    HW141810  14.336   8.962  11.938
13326SOL    HW241811  14.443   8.978  11.832
13327SOL     OW41812  13.081  10.110   4.179
13327SOL    HW141813  12.993  10.146   4.169
13327SOL    HW241814  13.135  10.161   4.119
13328SOL     OW41815  10.421   1.372   4.710
13328SOL    HW141816  10.447   1.436   4.777
13328SOL    HW241817  10.385   1.299   4.760
13329SOL     OW41818   4.773  10.168   1.915
13329SOL    HW141819   4.741  10.207   1.834
13329SOL    HW241820   4.694  10.147   1.965
13330SOL     OW41821   4.857  14.049   6.726
13330SOL    HW141822   4.927  14.111   6.744
13330SOL    HW241823   4.888  13.998   6.651
13331SOL     OW41824   4.547  14.548   8.429
13331SOL    HW141825   4.496  14.598   8.365
13331SOL    HW241826   4.490  14.476   8.455
13332SOL     OW41827  14.479   5.876   0.004
13332SOL    HW141828  14.507   5.937  14.808
13332SOL    HW241829  14.520   5.793  14.852
13333SOL     OW41830   2.861  14.565   2.041
13333SOL    HW141831   2.858  14.660   2.036
13333SOL    HW241832   2.793  14.543   2.106
13334SOL     OW41833   1.865   5.592   4.461
13334SOL    HW141834   1.802   5.521   4.473
13334SOL    HW241835   1.811   5.668   4.436
13335SOL     OW41836   0.617  13.701  14.540
13335SOL    HW141837   0.668  13.648  14.479
13335SOL    HW241838   0.621  13.654  14.623
13336SOL     OW41839   5.359  14.396  11.222
13336SOL    HW141840   5.334  14.402  11.130
13336SOL    HW241841   5.374  14.486  11.249
13337SOL     OW41842  10.485   9.974  11.147
13337SOL    HW141843  10.415   9.953  11.209
13337SOL    HW241844  10.451   9.946  11.062
13338SOL     OW41845   1.648  14.211   7.693
13338SOL    HW141846   1.668  14.285   7.751
13338SOL    HW241847   1.641  14.250   7.606
13339SOL     OW41848   7.536   3.082   4.315
13339SOL    HW141849   7.548   3.071   4.410
13339SOL    HW241850   7.445   3.111   4.306
13340SOL     OW41851   5.472  10.373  14.230
13340SOL    HW141852   5.417  10.433  14.280
13340SOL    HW241853   5.562  10.396  14.255
13341SOL     OW41854   2.967   0.248   7.140
13341SOL    HW141855   3.000   0.329   7.101
13341SOL    HW241856   2.907   0.212   7.075
13342SOL     OW41857   3.475   9.477   0.135
13342SOL    HW141858   3.463   9.569   0.158
13342SOL    HW241859   3.513   9.438   0.214
13343SOL     OW41860   3.078  14.684   2.787
13343SOL    HW141861   3.047  14.604   2.744
13343SOL    HW241862   3.088  14.747   2.716
13344SOL     OW41863   4.647   4.022  12.400
13344SOL    HW141864   4.668   4.099  12.454
13344SOL    HW241865   4.573   4.050  12.347
13345SOL     OW41866  12.320  11.757  11.493
13345SOL    HW141867  12.251  11.819  11.469
13345SOL    HW241868  12.294  11.724  11.579
13346SOL     OW41869   1.999  11.306   9.709
13346SOL    HW141870   1.956  11.388   9.732
13346SOL    HW241871   1.931  11.256   9.664
13347SOL     OW41872  13.706  14.006  14.390
13347SOL    HW141873  13.659  14.088  14.383
13347SOL    HW241874  13.723  13.979  14.300
13348SOL     OW41875   0.458   3.100  10.354
13348SOL    HW141876   0.505   3.154  10.417
13348SOL    HW241877   0.454   3.013  10.393
13349SOL     OW41878   1.644   2.605  13.846
13349SOL    HW141879   1.726   2.644  13.819
13349SOL    HW241880   1.669   2.525  13.893
13350SOL     OW41881  12.611   4.992  13.438
13350SOL    HW141882  12.656   5.033  13.364
13350SOL    HW241883  12.585   5.065  13.494
13351SOL     OW41884  13.831  14.382   4.415
13351SOL    HW141885  13.891  14.452   4.443
13351SOL    HW241886  13.888  14.318   4.373
13352SOL     OW41887   8.609   9.144   3.801
13352SOL    HW141888   8.700   9.115   3.787
13352SOL    HW241889   8.594   9.209   3.733
13353SOL     OW41890   6.146   5.459  13.654
13353SOL    HW141891   6.234   5.452  13.616
13353SOL    HW241892   6.161   5.477  13.746
13354SOL     OW41893   8.559   8.217  11.823
13354SOL    HW141894   8.540   8.304  11.787
13354SOL    HW241895   8.588   8.234  11.913
13355SOL     OW41896   7.812  10.995   4.235
13355SOL    HW141897   7.806  10.934   4.309
13355SOL    HW241898   7.849  11.075   4.274
13356SOL     OW41899   5.075   3.452   9.046
13356SOL    HW141900   5.164   3.423   9.024
13356SOL    HW241901   5.019   3.377   9.023
13357SOL     OW41902   1.779   7.299  11.345
13357SOL    HW141903   1.741   7.387  11.342
13357SOL    HW241904   1.705   7.241  11.324
13358SOL     OW41905  10.895  13.181  13.514
13358SOL    HW141906  10.820  13.129  13.543
13358SOL    HW241907  10.971  13.126  13.532
13359SOL     OW41908   3.426   0.840  13.452
13359SOL    HW141909   3.342   0.795  13.445
13359SOL    HW241910   3.437   0.885  13.368
13360SOL     OW41911  10.802  13.177   4.027
13360SOL    HW141912  10.853  13.125   4.089
13360SOL    HW241913  10.812  13.132   3.944
13361SOL     OW41914   4.705   8.368   1.179
13361SOL    HW141915   4.772   8.434   1.198
13361SOL    HW241916   4.624   8.405   1.214
13362SOL     OW41917   6.314   3.288  12.786
13362SOL    HW141918   6.299   3.201  12.747
13362SOL    HW241919   6.274   3.349  12.724
13363SOL     OW41920   1.774   0.429  13.550
13363SOL    HW141921   1.726   0.468  13.477
13363SOL    HW241922   1.864   0.422  13.518
13364SOL     OW41923  14.155  11.512   8.567
13364SOL    HW141924  14.134  11.548   8.481
13364SOL    HW241925  14.113  11.572   8.629
13365SOL     OW41926   5.566   8.988   7.319
13365SOL    HW141927   5.618   8.917   7.283
13365SOL    HW241928   5.492   8.997   7.259
13366SOL     OW41929   9.714  12.556   5.080
13366SOL    HW141930   9.640  12.498   5.062
13366SOL    HW241931   9.791  12.506   5.053
13367SOL     OW41932   9.020  12.844  12.426
13367SOL    HW141933   9.064  12.927  12.410
13367SOL    HW241934   9.080  12.796  12.484
13368SOL     OW41935   1.395   6.608   9.953
13368SOL    HW141936   1.425   6.672  10.016
13368SOL    HW241937   1.474   6.576   9.911
13369SOL     OW41938   8.219   8.423   6.829
13369SOL    HW141939   8.222   8.441   6.923
13369SOL    HW241940   8.242   8.506   6.787
13370SOL     OW41941   3.908  13.720   8.686
13370SOL    HW141942   3.910  13.755   8.596
13370SOL    HW241943   3.906  13.798   8.742
13371SOL     OW41944   3.427   1.662   9.205
13371SOL    HW141945   3.429   1.566   9.214
13371SOL    HW241946   3.362   1.691   9.269
13372SOL     OW41947   5.310   9.162   6.161
13372SOL    HW141948   5.394   9.199   6.187
13372SOL    HW241949   5.331   9.075   6.127
13373SOL     OW41950   8.986  11.682   2.084
13373SOL    HW141951   9.002  11.693   1.990
13373SOL    HW241952   9.047  11.613   2.111
13374SOL     OW41953  14.670   8.570   6.959
13374SOL    HW141954  14.602   8.632   6.985
13374SOL    HW241955  14.695   8.526   7.040
13375SOL     OW41956   0.717   5.395   2.656
13375SOL    HW141957   0.636   5.444   2.670
13375SOL    HW241958   0.785   5.452   2.691
13376SOL     OW41959   7.752   2.880   8.143
13376SOL    HW141960   7.670   2.831   8.148
13376SOL    HW241961   7.815   2.819   8.105
13377SOL     OW41962   3.593   9.866   5.896
13377SOL    HW141963   3.668   9.807   5.897
13377SOL    HW241964   3.618   9.938   5.953
13378SOL     OW41965   5.817   7.547   5.380
13378SOL    HW141966   5.899   7.557   5.428
13378SOL    HW241967   5.799   7.634   5.344
13379SOL     OW41968   4.383   0.175   4.452
13379SOL    HW141969   4.325   0.156   4.378
13379SOL    HW241970   4.471   0.159   4.417
13380SOL     OW41971   2.510   4.517  10.540
13380SOL    HW141972   2.527   4.509  10.633
13380SOL    HW241973   2.483   4.429  10.513
13381SOL     OW41974   0.129  12.968  13.467
13381SOL    HW141975   0.112  13.021  13.545
13381SOL    HW241976   0.174  13.027  13.408
13382SOL     OW41977   5.836  11.222  10.481
13382SOL    HW141978   5.850  11.300  10.534
13382SOL    HW241979   5.821  11.256  10.392
13383SOL     OW41980   2.212   3.938  11.407
13383SOL    HW141981   2.131   3.889  11.394
13383SOL    HW241982   2.239   3.916  11.496
13384SOL     OW41983  13.642   2.875   0.031
13384SOL    HW141984  13.580   2.844  14.837
13384SOL    HW241985  13.600   2.952   0.069
13385SOL     OW41986  12.170   3.802   4.930
13385SOL    HW141987  12.148   3.817   5.022
13385SOL    HW241988  12.093   3.835   4.882
13386SOL     OW41989   4.785  14.169   9.352
13386SOL    HW141990   4.802  14.165   9.258
13386SOL    HW241991   4.730  14.247   9.363
13387SOL     OW41992  12.886   2.391  11.096
13387SOL    HW141993  12.931   2.474  11.107
13387SOL    HW241994  12.936   2.345  11.028
13388SOL     OW41995   4.072  14.467   7.394
13388SOL    HW141996   4.111  14.400   7.336
13388SOL    HW241997   4.068  14.425   7.479
13389SOL     OW41998  12.236  11.158   9.749
13389SOL    HW141999  12.183  11.178   9.826
13389SOL    HW242000  12.171  11.137   9.681
13390SOL     OW42001   9.180   2.356   2.973
13390SOL    HW142002   9.254   2.296   2.967
13390SOL    HW242003   9.188   2.412   2.896
13391SOL     OW42004   0.428   8.390  12.239
13391SOL    HW142005   0.519   8.418  12.229
13391SOL    HW242006   0.429   8.338  12.320
13392SOL     OW42007  10.050  12.110  10.756
13392SOL    HW142008  10.020  12.030  10.800
13392SOL    HW242009   9.997  12.116  10.677
13393SOL     OW42010   0.822   7.262   5.857
13393SOL    HW142011   0.884   7.333   5.873
13393SOL    HW242012   0.737   7.300   5.878
13394SOL     OW42013   3.622  12.830   3.073
13394SOL    HW142014   3.532  12.797   3.078
13394SOL    HW242015   3.622  12.890   2.998
13395SOL     OW42016  12.792   1.408  14.301
13395SOL    HW142017  12.785   1.497  14.337
13395SOL    HW242018  12.800   1.420  14.207
13396SOL     OW42019   1.172  11.839  11.872
13396SOL    HW142020   1.143  11.891  11.947
13396SOL    HW242021   1.265  11.825  11.888
13397SOL     OW42022   0.227  14.265  12.788
13397SOL    HW142023   0.196  14.225  12.706
13397SOL    HW242024   0.200  14.203  12.856
13398SOL     OW42025   4.539   0.320  14.727
13398SOL    HW142026   4.618   0.297  14.776
13398SOL    HW242027   4.554   0.409  14.697
13399SOL     OW42028   0.407   9.530   0.470
13399SOL    HW142029   0.358   9.589   0.527
13399SOL    HW242030   0.378   9.442   0.497
13400SOL     OW42031   7.802   7.438   8.398
13400SOL    HW142032   7.833   7.380   8.328
13400SOL    HW242033   7.861   7.513   8.395
13401SOL     OW42034   3.134   2.983   6.618
13401SOL    HW142035   3.151   2.899   6.660
13401SOL    HW242036   3.060   3.019   6.666
13402SOL     OW42037   4.950  12.170   2.464
13402SOL    HW142038   4.924  12.184   2.555
13402SOL    HW242039   4.908  12.240   2.415
13403SOL     OW42040   5.105   3.118   6.957
13403SOL    HW142041   5.132   3.048   7.017
13403SOL    HW242042   5.089   3.073   6.874
13404SOL     OW42043   5.595   4.591   6.439
13404SOL    HW142044   5.635   4.505   6.448
13404SOL    HW242045   5.669   4.651   6.427
13405SOL     OW42046   2.438  12.155  13.890
13405SOL    HW142047   2.396  12.134  13.807
13405SOL    HW242048   2.531  12.140  13.876
13406SOL     OW42049   2.158   1.382   3.608
13406SOL    HW142050   2.108   1.373   3.689
13406SOL    HW242051   2.158   1.293   3.571
13407SOL     OW42052   7.473  11.348   5.070
13407SOL    HW142053   7.473  11.367   5.163
13407SOL    HW242054   7.385  11.372   5.040
13408SOL     OW42055  11.560   6.926   4.302
13408SOL    HW142056  11.606   6.943   4.219
13408SOL    HW242057  11.501   7.001   4.312
13409SOL     OW42058  13.820   0.083  10.268
13409SOL    HW142059  13.797   0.107  10.358
13409SOL    HW242060  13.912   0.056  10.274
13410SOL     OW42061  13.636   2.693   2.305
13410SOL    HW142062  13.637   2.745   2.224
13410SOL    HW242063  13.722   2.708   2.343
13411SOL     OW42064   2.049   0.398  10.162
13411SOL    HW142065   1.963   0.423  10.196
13411SOL    HW242066   2.046   0.423  10.069
13412SOL     OW42067   6.007   4.880   4.985
13412SOL    HW142068   6.020   4.839   4.899
13412SOL    HW242069   6.093   4.916   5.007
13413SOL     OW42070   7.731   8.001   7.933
13413SOL    HW142071   7.731   8.096   7.939
13413SOL    HW242072   7.691   7.971   8.014
13414SOL     OW42073   5.844   7.780   9.808
13414SOL    HW142074   5.790   7.846   9.851
13414SOL    HW242075   5.783   7.734   9.750
13415SOL     OW42076   3.354   8.589   8.638
13415SOL    HW142077   3.443   8.605   8.608
13415SOL    HW242078   3.301   8.590   8.558
13416SOL     OW42079  11.266   0.546   2.349
13416SOL    HW142080  11.261   0.626   2.400
13416SOL    HW242081  11.177   0.532   2.317
13417SOL     OW42082  10.290  13.357   7.127
13417SOL    HW142083  10.241  13.435   7.099
13417SOL    HW242084  10.249  13.332   7.210
13418SOL     OW42085   1.390   1.752   6.272
13418SOL    HW142086   1.307   1.714   6.246
13418SOL    HW242087   1.421   1.798   6.194
13419SOL     OW42088  13.588   7.903  14.043
13419SOL    HW142089  13.552   7.814  14.044
13419SOL    HW242090  13.515   7.958  14.015
13420SOL     OW42091   9.196   9.426   6.045
13420SOL    HW142092   9.210   9.362   5.976
13420SOL    HW242093   9.100   9.430   6.055
13421SOL     OW42094   5.990  14.607  11.205
13421SOL    HW142095   5.985  14.653  11.122
13421SOL    HW242096   5.901  14.610  11.240
13422SOL     OW42097   4.891  11.400  10.506
13422SOL    HW142098   4.959  11.369  10.446
13422SOL    HW242099   4.937  11.423  10.586
13423SOL     OW42100   6.194   0.682   4.534
13423SOL    HW142101   6.278   0.710   4.497
13423SOL    HW242102   6.152   0.763   4.563
13424SOL     OW42103   2.934  10.173  14.861
13424SOL    HW142104   2.937  10.167  14.766
13424SOL    HW242105   2.993  10.246   0.011
13425SOL     OW42106  11.025  14.614  12.067
13425SOL    HW142107  10.976  14.597  11.987
13425SOL    HW242108  11.038  14.527  12.106
13426SOL     OW42109   1.512   1.322   7.338
13426SOL    HW142110   1.430   1.277   7.358
13426SOL    HW242111   1.487   1.396   7.284
13427SOL     OW42112   8.616  13.456   5.653
13427SOL    HW142113   8.551  13.421   5.592
13427SOL    HW242114   8.700  13.439   5.612
13428SOL     OW42115   7.595  10.719   9.672
13428SOL    HW142116   7.502  10.739   9.667
13428SOL    HW242117   7.632  10.789   9.726
13429SOL     OW42118   8.930   5.262   4.395
13429SOL    HW142119   8.967   5.350   4.401
13429SOL    HW242120   8.992   5.206   4.443
13430SOL     OW42121   3.510  14.695  14.700
13430SOL    HW142122   3.482  14.661  14.614
13430SOL    HW242123   3.524  14.616  14.753
13431SOL     OW42124   5.652   1.441   7.355
13431SOL    HW142125   5.652   1.537   7.358
13431SOL    HW242126   5.561   1.416   7.367
13432SOL     OW42127  13.916   3.709   2.824
13432SOL    HW142128  13.880   3.627   2.789
13432SOL    HW242129  13.909   3.699   2.919
13433SOL     OW42130  10.154  14.172  11.507
13433SOL    HW142131  10.140  14.156  11.413
13433SOL    HW242132  10.126  14.262  11.520
13434SOL     OW42133  11.161   3.992  10.972
13434SOL    HW142134  11.227   4.019  11.036
13434SOL    HW242135  11.199   3.915  10.930
13435SOL     OW42136  11.006  14.646  13.852
13435SOL    HW142137  10.921  14.639  13.895
13435SOL    HW242138  10.987  14.692  13.770
13436SOL     OW42139   1.140  11.713   6.060
13436SOL    HW142140   1.215  11.761   6.095
13436SOL    HW242141   1.069  11.729   6.123
13437SOL     OW42142   8.238   1.977  13.296
13437SOL    HW142143   8.210   1.886  13.303
13437SOL    HW242144   8.176   2.016  13.234
13438SOL     OW42145  12.464   4.975   7.193
13438SOL    HW142146  12.518   4.914   7.143
13438SOL    HW242147  12.376   4.967   7.156
13439SOL     OW42148  14.166  13.615   3.829
13439SOL    HW142149  14.163  13.710   3.839
13439SOL    HW242150  14.224  13.585   3.899
13440SOL     OW42151   0.731   3.468   2.265
13440SOL    HW142152   0.779   3.522   2.328
13440SOL    HW242153   0.780   3.477   2.183
13441SOL     OW42154  12.592   4.833   5.743
13441SOL    HW142155  12.678   4.827   5.701
13441SOL    HW242156  12.531   4.797   5.678
13442SOL     OW42157  14.215   3.974   8.399
13442SOL    HW142158  14.234   4.066   8.380
13442SOL    HW242159  14.205   3.934   8.313
13443SOL     OW42160  13.569   6.393  12.997
13443SOL    HW142161  13.475   6.410  12.989
13443SOL    HW242162  13.607   6.428  12.917
13444SOL     OW42163   1.577   6.217   9.680
13444SOL    HW142164   1.587   6.158   9.755
13444SOL    HW242165   1.604   6.165   9.605
13445SOL     OW42166  13.776   0.233  14.539
13445SOL    HW142167  13.734   0.304  14.491
13445SOL    HW242168  13.865   0.264  14.556
13446SOL     OW42169   2.574  12.286   3.999
13446SOL    HW142170   2.655  12.291   3.950
13446SOL    HW242171   2.587  12.211   4.058
13447SOL     OW42172   8.333   9.798   9.084
13447SOL    HW142173   8.411   9.746   9.102
13447SOL    HW242174   8.339   9.872   9.145
13448SOL     OW42175   7.198  13.848  12.550
13448SOL    HW142176   7.219  13.933  12.512
13448SOL    HW242177   7.222  13.784  12.483
13449SOL     OW42178   6.333   0.084   0.712
13449SOL    HW142179   6.320   0.174   0.740
13449SOL    HW242180   6.248   0.042   0.725
13450SOL     OW42181   1.652   7.002   1.421
13450SOL    HW142182   1.627   7.080   1.372
13450SOL    HW242183   1.747   6.999   1.416
13451SOL     OW42184  10.475   8.388  11.090
13451SOL    HW142185  10.550   8.377  11.030
13451SOL    HW242186  10.433   8.302  11.092
13452SOL     OW42187   5.803   2.047   8.749
13452SOL    HW142188   5.709   2.041   8.764
13452SOL    HW242189   5.821   1.978   8.685
13453SOL     OW42190   5.705  14.532  13.446
13453SOL    HW142191   5.625  14.559  13.491
13453SOL    HW242192   5.771  14.530  13.515
13454SOL     OW42193   3.591  11.636  10.092
13454SOL    HW142194   3.529  11.642  10.165
13454SOL    HW242195   3.607  11.542  10.082
13455SOL     OW42196   5.005  12.502   8.586
13455SOL    HW142197   5.018  12.443   8.661
13455SOL    HW242198   5.012  12.590   8.623
13456SOL     OW42199   6.347   5.289   0.630
13456SOL    HW142200   6.442   5.273   0.633
13456SOL    HW242201   6.339   5.382   0.651
13457SOL     OW42202   7.115   0.416   1.754
13457SOL    HW142203   7.105   0.422   1.659
13457SOL    HW242204   7.099   0.505   1.785
13458SOL     OW42205   7.470   5.696   2.875
13458SOL    HW142206   7.453   5.750   2.952
13458SOL    HW242207   7.467   5.606   2.907
13459SOL     OW42208   9.969   8.437  13.790
13459SOL    HW142209  10.060   8.415  13.770
13459SOL    HW242210   9.965   8.533  13.786
13460SOL     OW42211   0.648   1.731  14.342
13460SOL    HW142212   0.612   1.705  14.427
13460SOL    HW242213   0.615   1.820  14.328
13461SOL     OW42214   6.999  12.595   0.746
13461SOL    HW142215   7.089  12.566   0.755
13461SOL    HW242216   6.950  12.516   0.723
13462SOL     OW42217   2.000   0.360   8.958
13462SOL    HW142218   2.091   0.340   8.938
13462SOL    HW242219   1.979   0.301   9.031
13463SOL     OW42220   4.983   5.527  11.204
13463SOL    HW142221   4.971   5.481  11.288
13463SOL    HW242222   5.070   5.566  11.211
13464SOL     OW42223  14.462   8.919   7.360
13464SOL    HW142224  14.520   8.859   7.406
13464SOL    HW242225  14.502   9.005   7.370
13465SOL     OW42226   9.621  10.428   6.419
13465SOL    HW142227   9.667  10.503   6.381
13465SOL    HW242228   9.562  10.398   6.350
13466SOL     OW42229  12.023  14.635   3.227
13466SOL    HW142230  12.003  14.574   3.298
13466SOL    HW242231  12.014  14.582   3.147
13467SOL     OW42232   2.364   8.101   7.418
13467SOL    HW142233   2.422   8.117   7.493
13467SOL    HW242234   2.406   8.030   7.371
13468SOL     OW42235  12.526   8.404  14.782
13468SOL    HW142236  12.542   8.471  14.715
13468SOL    HW242237  12.520   8.454  14.864
13469SOL     OW42238  14.026  12.170   8.634
13469SOL    HW142239  13.952  12.210   8.680
13469SOL    HW242240  14.048  12.231   8.564
13470SOL     OW42241   3.751  12.085   9.069
13470SOL    HW142242   3.772  12.166   9.021
13470SOL    HW242243   3.658  12.095   9.093
13471SOL     OW42244   7.215   6.489   8.282
13471SOL    HW142245   7.263   6.559   8.239
13471SOL    HW242246   7.271   6.412   8.273
13472SOL     OW42247   8.921  11.625  13.543
13472SOL    HW142248   8.907  11.651  13.634
13472SOL    HW242249   8.912  11.705  13.492
13473SOL     OW42250   5.264  13.215  11.565
13473SOL    HW142251   5.233  13.126  11.583
13473SOL    HW242252   5.198  13.251  11.506
13474SOL     OW42253  10.666   1.832   5.958
13474SOL    HW142254  10.760   1.841   5.968
13474SOL    HW242255  10.635   1.803   6.044
13475SOL     OW42256   1.441   7.481  14.749
13475SOL    HW142257   1.494   7.500  14.827
13475SOL    HW242258   1.351   7.475  14.782
13476SOL     OW42259   0.184  11.491   9.298
13476SOL    HW142260   0.263  11.544   9.304
13476SOL    HW242261   0.184  11.439   9.379
13477SOL     OW42262   7.226   7.695   9.887
13477SOL    HW142263   7.232   7.718   9.794
13477SOL    HW242264   7.134   7.671   9.899
13478SOL     OW42265   8.391   9.794   4.584
13478SOL    HW142266   8.337   9.781   4.506
13478SOL    HW242267   8.335   9.843   4.644
13479SOL     OW42268   6.228   4.752   4.582
13479SOL    HW142269   6.301   4.756   4.521
13479SOL    HW242270   6.224   4.659   4.607
13480SOL     OW42271   0.048  11.782   5.351
13480SOL    HW142272   0.058  11.868   5.391
13480SOL    HW242273  14.848  11.793   5.289
13481SOL     OW42274  13.408  13.324  10.915
13481SOL    HW142275  13.502  13.309  10.916
13481SOL    HW242276  13.399  13.419  10.902
13482SOL     OW42277   1.136   4.844   2.325
13482SOL    HW142278   1.140   4.931   2.365
13482SOL    HW242279   1.137   4.861   2.231
13483SOL     OW42280   5.493   5.927   1.953
13483SOL    HW142281   5.539   5.882   2.024
13483SOL    HW242282   5.550   5.917   1.877
13484SOL     OW42283   3.335   2.606   0.830
13484SOL    HW142284   3.240   2.597   0.823
13484SOL    HW242285   3.370   2.526   0.792
13485SOL     OW42286   7.640   2.847  11.448
13485SOL    HW142287   7.545   2.844  11.458
13485SOL    HW242288   7.657   2.931  11.404
13486SOL     OW42289   0.776   6.731   6.225
13486SOL    HW142290   0.844   6.666   6.243
13486SOL    HW242291   0.802   6.808   6.277
13487SOL     OW42292  14.401   4.577   5.897
13487SOL    HW142293  14.461   4.632   5.949
13487SOL    HW242294  14.324   4.566   5.953
13488SOL     OW42295   0.994   0.616   6.012
13488SOL    HW142296   0.979   0.668   5.933
13488SOL    HW242297   1.064   0.556   5.988
13489SOL     OW42298   7.760  10.793  12.394
13489SOL    HW142299   7.743  10.873  12.443
13489SOL    HW242300   7.850  10.770  12.415
13490SOL     OW42301   1.632  10.291  12.108
13490SOL    HW142302   1.686  10.370  12.111
13490SOL    HW242303   1.576  10.303  12.032
13491SOL     OW42304   7.883  13.311  12.677
13491SOL    HW142305   7.859  13.393  12.720
13491SOL    HW242306   7.916  13.337  12.591
13492SOL     OW42307   8.008  10.498   6.011
13492SOL    HW142308   8.081  10.554   6.038
13492SOL    HW242309   7.966  10.472   6.093
13493SOL     OW42310   0.006   7.992  10.140
13493SOL    HW142311  14.782   7.985  10.141
13493SOL    HW242312   0.036   7.909  10.103
13494SOL     OW42313  13.929   1.736  10.494
13494SOL    HW142314  13.928   1.772  10.583
13494SOL    HW242315  13.962   1.646  10.504
13495SOL     OW42316  11.190   9.169   1.738
13495SOL    HW142317  11.179   9.219   1.820
13495SOL    HW242318  11.246   9.095   1.763
13496SOL     OW42319   2.637  14.028  12.256
13496SOL    HW142320   2.580  14.105  12.256
13496SOL    HW242321   2.649  14.007  12.163
13497SOL     OW42322  10.137   6.472   2.771
13497SOL    HW142323  10.050   6.468   2.811
13497SOL    HW242324  10.196   6.442   2.840
13498SOL     OW42325   4.018   8.195   6.380
13498SOL    HW142326   4.057   8.168   6.297
13498SOL    HW242327   3.953   8.261   6.356
13499SOL     OW42328   8.802   2.723   2.238
13499SOL    HW142329   8.735   2.780   2.198
13499SOL    HW242330   8.884   2.768   2.222
13500SOL     OW42331   4.764   4.271   7.519
13500SOL    HW142332   4.742   4.292   7.428
13500SOL    HW242333   4.710   4.331   7.571
13501SOL     OW42334   8.444  14.105   2.667
13501SOL    HW142335   8.499  14.176   2.633
13501SOL    HW242336   8.449  14.037   2.600
13502SOL     OW42337  13.815   9.191   3.209
13502SOL    HW142338  13.777   9.260   3.155
13502SOL    HW242339  13.833   9.233   3.293
13503SOL     OW42340   8.042   7.606   5.468
13503SOL    HW142341   7.960   7.655   5.466
13503SOL    HW242342   8.043   7.565   5.555
13504SOL     OW42343  14.047  10.903   4.603
13504SOL    HW142344  14.014  10.840   4.667
13504SOL    HW242345  13.991  10.979   4.613
13505SOL     OW42346   7.298   4.481   2.329
13505SOL    HW142347   7.315   4.569   2.362
13505SOL    HW242348   7.202   4.477   2.319
13506SOL     OW42349   9.067  14.155   1.379
13506SOL    HW142350   9.016  14.237   1.381
13506SOL    HW242351   9.136  14.169   1.444
13507SOL     OW42352   3.917   8.274   5.795
13507SOL    HW142353   3.823   8.289   5.783
13507SOL    HW242354   3.945   8.229   5.715
13508SOL     OW42355   8.474   2.360  13.465
13508SOL    HW142356   8.541   2.418  13.430
13508SOL    HW242357   8.393   2.409  13.457
13509SOL     OW42358   7.151  13.548   6.272
13509SOL    HW142359   7.179  13.465   6.308
13509SOL    HW242360   7.199  13.556   6.189
13510SOL     OW42361   7.674   9.469   9.433
13510SOL    HW142362   7.681   9.489   9.340
13510SOL    HW242363   7.637   9.549   9.472
13511SOL     OW42364   8.390   6.074   4.071
13511SOL    HW142365   8.351   5.988   4.057
13511SOL    HW242366   8.362   6.126   3.995
13512SOL     OW42367  12.475  11.335   7.603
13512SOL    HW142368  12.397  11.328   7.548
13512SOL    HW242369  12.537  11.385   7.550
13513SOL     OW42370   0.983   1.003   8.613
13513SOL    HW142371   0.948   0.999   8.524
13513SOL    HW242372   1.066   0.956   8.609
13514SOL     OW42373   2.304   4.045  12.670
13514SOL    HW142374   2.380   4.053  12.729
13514SOL    HW242375   2.308   3.955  12.638
13515SOL     OW42376   9.883   1.161   2.839
13515SOL    HW142377   9.850   1.233   2.785
13515SOL    HW242378   9.836   1.168   2.922
13516SOL     OW42379   2.622   3.311   2.055
13516SOL    HW142380   2.588   3.395   2.085
13516SOL    HW242381   2.705   3.332   2.012
13517SOL     OW42382   9.251   7.729   0.750
13517SOL    HW142383   9.227   7.708   0.660
13517SOL    HW242384   9.167   7.746   0.794
13518SOL     OW42385  11.992   7.783  14.458
13518SOL    HW142386  11.949   7.714  14.508
13518SOL    HW242387  11.976   7.760  14.367
13519SOL     OW42388   2.952   2.233   5.827
13519SOL    HW142389   2.996   2.151   5.846
13519SOL    HW242390   3.013   2.281   5.771
13520SOL     OW42391  10.170  12.379  12.228
13520SOL    HW142392  10.181  12.368  12.133
13520SOL    HW242393  10.146  12.291  12.259
13521SOL     OW42394  10.570   2.894   1.434
13521SOL    HW142395  10.642   2.874   1.375
13521SOL    HW242396  10.602   2.868   1.520
13522SOL     OW42397   1.986   1.956  13.819
13522SOL    HW142398   1.989   1.891  13.890
13522SOL    HW242399   1.966   1.905  13.741
13523SOL     OW42400   0.787   0.057   7.876
13523SOL    HW142401   0.725   0.110   7.927
13523SOL    HW242402   0.853   0.030   7.940
13524SOL     OW42403   2.779   5.610   1.116
13524SOL    HW142404   2.712   5.546   1.136
13524SOL    HW242405   2.732   5.679   1.068
13525SOL     OW42406  14.781   7.467   2.594
13525SOL    HW142407  14.808   7.449   2.684
13525SOL    HW242408  14.729   7.391   2.569
13526SOL     OW42409  13.452  13.361   3.898
13526SOL    HW142410  13.469  13.297   3.829
13526SOL    HW242411  13.529  13.417   3.898
13527SOL     OW42412   6.510   4.650   3.068
13527SOL    HW142413   6.456   4.640   2.990
13527SOL    HW242414   6.553   4.735   3.058
13528SOL     OW42415   3.758   7.103   4.159
13528SOL    HW142416   3.825   7.151   4.111
13528SOL    HW242417   3.722   7.167   4.221
13529SOL     OW42418   7.062  10.177   1.773
13529SOL    HW142419   7.011  10.107   1.733
13529SOL    HW242420   6.997  10.244   1.794
13530SOL     OW42421  10.120   0.316   5.985
13530SOL    HW142422  10.160   0.247   6.038
13530SOL    HW242423  10.185   0.336   5.918
13531SOL     OW42424   2.345   7.804  12.514
13531SOL    HW142425   2.310   7.718  12.490
13531SOL    HW242426   2.388   7.835  12.434
13532SOL     OW42427   0.695   8.387  12.177
13532SOL    HW142428   0.774   8.428  12.211
13532SOL    HW242429   0.686   8.422  12.089
13533SOL     OW42430  11.778  10.430  10.596
13533SOL    HW142431  11.721  10.418  10.520
13533SOL    HW242432  11.769  10.349  10.646
13534SOL     OW42433   7.810  11.597   0.342
13534SOL    HW142434   7.847  11.681   0.319
13534SOL    HW242435   7.765  11.612   0.426
13535SOL     OW42436   4.991   8.012  11.721
13535SOL    HW142437   4.922   7.950  11.746
13535SOL    HW242438   5.070   7.978  11.763
13536SOL     OW42439   9.083  11.182   4.083
13536SOL    HW142440   9.152  11.247   4.094
13536SOL    HW242441   9.112  11.129   4.009
13537SOL     OW42442   1.593   6.867   8.980
13537SOL    HW142443   1.590   6.847   8.886
13537SOL    HW242444   1.630   6.955   8.984
13538SOL     OW42445   3.631  11.372  12.213
13538SOL    HW142446   3.722  11.391  12.193
13538SOL    HW242447   3.601  11.317  12.141
13539SOL     OW42448   6.693   2.795   5.566
13539SOL    HW142449   6.610   2.749   5.574
13539SOL    HW242450   6.759   2.725   5.570
13540SOL     OW42451   8.753  11.597   7.878
13540SOL    HW142452   8.762  11.665   7.811
13540SOL    HW242453   8.826  11.537   7.860
13541SOL     OW42454   1.407   1.204   2.907
13541SOL    HW142455   1.472   1.223   2.840
13541SOL    HW242456   1.407   1.282   2.963
13542SOL     OW42457   8.243   9.785  12.737
13542SOL    HW142458   8.244   9.877  12.711
13542SOL    HW242459   8.258   9.787  12.832
13543SOL     OW42460   7.861  13.781   4.164
13543SOL    HW142461   7.769  13.766   4.144
13543SOL    HW242462   7.887  13.704   4.215
13544SOL     OW42463   3.141   7.699  14.491
13544SOL    HW142464   3.210   7.641  14.522
13544SOL    HW242465   3.063   7.644  14.487
13545SOL     OW42466   3.282  11.891   3.319
13545SOL    HW142467   3.371  11.925   3.312
13545SOL    HW242468   3.285  11.828   3.391
13546SOL     OW42469   0.710   0.043   1.517
13546SOL    HW142470   0.659   0.105   1.466
13546SOL    HW242471   0.801   0.059   1.491
13547SOL     OW42472   2.987   5.017  14.172
13547SOL    HW142473   3.075   4.998  14.207
13547SOL    HW242474   2.997   5.101  14.128
13548SOL     OW42475   1.592  13.787  14.460
13548SOL    HW142476   1.576  13.822  14.373
13548SOL    HW242477   1.506  13.785  14.501
13549SOL     OW42478   3.271   1.346   3.699
13549SOL    HW142479   3.203   1.414   3.692
13549SOL    HW242480   3.342   1.377   3.643
13550SOL     OW42481  12.924  12.119   3.166
13550SOL    HW142482  12.829  12.132   3.159
13550SOL    HW242483  12.932  12.035   3.212
13551SOL     OW42484   3.823   8.229   7.363
13551SOL    HW142485   3.737   8.197   7.336
13551SOL    HW242486   3.814   8.324   7.364
13552SOL     OW42487   9.515   5.169   3.252
13552SOL    HW142488   9.591   5.139   3.202
13552SOL    HW242489   9.469   5.229   3.192
13553SOL     OW42490  13.767  12.771  12.703
13553SOL    HW142491  13.814  12.688  12.710
13553SOL    HW242492  13.675  12.747  12.707
13554SOL     OW42493   7.569  12.229   3.343
13554SOL    HW142494   7.642  12.239   3.282
13554SOL    HW242495   7.609  12.236   3.430
13555SOL     OW42496   7.987   2.499   6.280
13555SOL    HW142497   7.973   2.423   6.224
13555SOL    HW242498   7.996   2.462   6.368
13556SOL     OW42499   7.396   6.093   7.953
13556SOL    HW142500   7.484   6.091   7.990
13556SOL    HW242501   7.394   6.020   7.891
13557SOL     OW42502  12.356  14.540   2.749
13557SOL    HW142503  12.337  14.527   2.842
13557SOL    HW242504  12.424  14.476   2.729
13558SOL     OW42505   9.468   2.679   0.183
13558SOL    HW142506   9.526   2.613   0.221
13558SOL    HW242507   9.410   2.705   0.255
13559SOL     OW42508   9.293   3.666  10.296
13559SOL    HW142509   9.254   3.714  10.369
13559SOL    HW242510   9.232   3.595  10.279
13560SOL     OW42511  14.431   8.035   9.548
13560SOL    HW142512  14.429   8.050   9.643
13560SOL    HW242513  14.340   8.045   9.520
13561SOL     OW42514  10.877  11.163   1.191
13561SOL    HW142515  10.817  11.179   1.264
13561SOL    HW242516  10.917  11.248   1.174
13562SOL     OW42517  10.360   1.550   0.673
13562SOL    HW142518  10.366   1.615   0.603
13562SOL    HW242519  10.270   1.517   0.667
13563SOL     OW42520   1.095  10.298  10.681
13563SOL    HW142521   1.058  10.227  10.628
13563SOL    HW242522   1.138  10.356  10.617
13564SOL     OW42523  12.316   5.421   0.010
13564SOL    HW142524  12.222   5.437   0.000
13564SOL    HW242525  12.345   5.395  14.795
13565SOL     OW42526   7.138   9.083  13.565
13565SOL    HW142527   7.056   9.039  13.543
13565SOL    HW242528   7.178   9.103  13.481
13566SOL     OW42529  11.618  10.021   8.444
13566SOL    HW142530  11.551   9.962   8.478
13566SOL    HW242531  11.700   9.988   8.481
13567SOL     OW42532   3.746   2.666   4.542
13567SOL    HW142533   3.704   2.718   4.474
13567SOL    HW242534   3.713   2.702   4.624
13568SOL     OW42535   5.524   5.851   6.365
13568SOL    HW142536   5.611   5.816   6.386
13568SOL    HW242537   5.463   5.799   6.418
13569SOL     OW42538   2.428   3.487   4.958
13569SOL    HW142539   2.506   3.508   4.907
13569SOL    HW242540   2.404   3.569   5.000
13570SOL     OW42541   9.365   3.730  14.870
13570SOL    HW142542   9.285   3.730  14.816
13570SOL    HW242543   9.431   3.772  14.815
13571SOL     OW42544   7.262  10.433  13.829
13571SOL    HW142545   7.237  10.487  13.754
13571SOL    HW242546   7.320  10.489  13.880
13572SOL     OW42547   4.089  12.596   4.904
13572SOL    HW142548   4.093  12.691   4.899
13572SOL    HW242549   4.165  12.565   4.854
13573SOL     OW42550   1.302   8.571   5.994
13573SOL    HW142551   1.379   8.628   5.992
13573SOL    HW242552   1.326   8.501   6.055
13574SOL     OW42553   1.225   5.144   2.701
13574SOL    HW142554   1.222   5.150   2.796
13574SOL    HW242555   1.281   5.217   2.674
13575SOL     OW42556  13.498   1.610   2.811
13575SOL    HW142557  13.443   1.584   2.736
13575SOL    HW242558  13.450   1.578   2.887
13576SOL     OW42559  10.822  11.747  14.174
13576SOL    HW142560  10.901  11.694  14.187
13576SOL    HW242561  10.788  11.761  14.262
13577SOL     OW42562   1.271   8.233   9.693
13577SOL    HW142563   1.214   8.304   9.662
13577SOL    HW242564   1.320   8.206   9.615
13578SOL     OW42565   6.044   2.256   8.366
13578SOL    HW142566   5.994   2.326   8.324
13578SOL    HW242567   6.133   2.292   8.374
13579SOL     OW42568   9.781   2.187  12.033
13579SOL    HW142569   9.727   2.138  11.972
13579SOL    HW242570   9.852   2.223  11.980
13580SOL     OW42571   5.211   1.922   3.900
13580SOL    HW142572   5.146   1.991   3.890
13580SOL    HW242573   5.248   1.912   3.812
13581SOL     OW42574   1.354   2.894   2.430
13581SOL    HW142575   1.313   2.865   2.511
13581SOL    HW242576   1.311   2.977   2.409
13582SOL     OW42577  10.918   2.712  13.868
13582SOL    HW142578  10.834   2.744  13.833
13582SOL    HW242579  10.956   2.787  13.912
13583SOL     OW42580  13.049   4.542  10.352
13583SOL    HW142581  13.049   4.546  10.448
13583SOL    HW242582  12.994   4.615  10.324
13584SOL     OW42583   0.744   5.063   7.450
13584SOL    HW142584   0.732   4.969   7.433
13584SOL    HW242585   0.699   5.078   7.533
13585SOL     OW42586   1.551   6.924  12.038
13585SOL    HW142587   1.515   6.914  12.126
13585SOL    HW242588   1.636   6.966  12.052
13586SOL     OW42589   7.179   3.651   4.090
13586SOL    HW142590   7.158   3.606   4.172
13586SOL    HW242591   7.247   3.714   4.115
13587SOL     OW42592  11.873  10.304  12.686
13587SOL    HW142593  11.913  10.389  12.669
13587SOL    HW242594  11.784  10.312  12.652
13588SOL     OW42595   9.663   8.416  12.279
13588SOL    HW142596   9.747   8.461  12.282
13588SOL    HW242597   9.678   8.340  12.222
13589SOL     OW42598   1.267   5.344  12.062
13589SOL    HW142599   1.299   5.254  12.063
13589SOL    HW242600   1.312   5.384  11.987
13590SOL     OW42601   0.873  12.127  12.151
13590SOL    HW142602   0.854  12.142  12.059
13590SOL    HW242603   0.937  12.056  12.152
13591SOL     OW42604  12.272   2.946   7.607
13591SOL    HW142605  12.312   2.987   7.531
13591SOL    HW242606  12.257   2.855   7.580
13592SOL     OW42607   3.615   6.212  14.113
13592SOL    HW142608   3.656   6.283  14.164
13592SOL    HW242609   3.688   6.153  14.092
13593SOL     OW42610   0.522   0.779   4.588
13593SOL    HW142611   0.472   0.778   4.506
13593SOL    HW242612   0.611   0.752   4.561
13594SOL     OW42613   1.419   4.713  13.470
13594SOL    HW142614   1.323   4.716  13.475
13594SOL    HW242615   1.446   4.804  13.471
13595SOL     OW42616   6.266   9.891   5.732
13595SOL    HW142617   6.221   9.939   5.801
13595SOL    HW242618   6.209   9.816   5.712
13596SOL     OW42619   3.853  11.995  11.287
13596SOL    HW142620   3.929  11.986  11.345
13596SOL    HW242621   3.834  12.089  11.285
13597SOL     OW42622   4.588   3.164   8.406
13597SOL    HW142623   4.634   3.164   8.322
13597SOL    HW242624   4.508   3.114   8.390
13598SOL     OW42625   8.953   0.072  13.433
13598SOL    HW142626   9.030   0.041  13.480
13598SOL    HW242627   8.879   0.038  13.484
13599SOL     OW42628   3.033  13.778   5.678
13599SOL    HW142629   3.037  13.825   5.595
13599SOL    HW242630   2.999  13.692   5.655
13600SOL     OW42631   7.177   1.347   6.568
13600SOL    HW142632   7.268   1.377   6.573
13600SOL    HW242633   7.179   1.276   6.505
13601SOL     OW42634  14.092   2.941  12.622
13601SOL    HW142635  14.096   2.889  12.702
13601SOL    HW242636  14.169   2.915  12.572
13602SOL     OW42637   9.170   2.097   7.178
13602SOL    HW142638   9.105   2.050   7.126
13602SOL    HW242639   9.155   2.189   7.158
13603SOL     OW42640   8.747   7.508   9.005
13603SOL    HW142641   8.783   7.582   8.956
13603SOL    HW242642   8.805   7.498   9.080
13604SOL     OW42643   8.205  10.547  10.461
13604SOL    HW142644   8.279  10.520  10.516
13604SOL    HW242645   8.216  10.497  10.380
13605SOL     OW42646   5.153   6.634   8.179
13605SOL    HW142647   5.221   6.633   8.246
13605SOL    HW242648   5.072   6.651   8.228
13606SOL     OW42649  11.863   0.748  11.903
13606SOL    HW142650  11.770   0.758  11.922
13606SOL    HW242651  11.880   0.654  11.913
13607SOL     OW42652   8.898   1.154  13.061
13607SOL    HW142653   8.949   1.201  13.127
13607SOL    HW242654   8.834   1.104  13.111
13608SOL     OW42655  12.717   6.144  14.132
13608SOL    HW142656  12.755   6.159  14.219
13608SOL    HW242657  12.782   6.178  14.071
13609SOL     OW42658   5.076   5.141   5.172
13609SOL    HW142659   4.998   5.175   5.129
13609SOL    HW242660   5.123   5.094   5.103
13610SOL     OW42661   2.697  11.854  11.036
13610SOL    HW142662   2.790  11.868  11.055
13610SOL    HW242663   2.676  11.919  10.969
13611SOL     OW42664   3.491   7.719   3.827
13611SOL    HW142665   3.437   7.690   3.754
13611SOL    HW242666   3.511   7.639   3.875
13612SOL     OW42667   0.256   0.315  14.011
13612SOL    HW142668   0.201   0.385  13.976
13612SOL    HW242669   0.319   0.297  13.942
13613SOL     OW42670   0.077  13.933   8.184
13613SOL    HW142671   0.112  13.886   8.260
13613SOL    HW242672  14.855  13.926   8.192
13614SOL     OW42673  13.598   3.908   0.324
13614SOL    HW142674  13.534   3.876   0.260
13614SOL    HW242675  13.636   3.829   0.362
13615SOL     OW42676   5.679   2.955  12.058
13615SOL    HW142677   5.603   2.923  12.108
13615SOL    HW242678   5.720   2.876  12.024
13616SOL     OW42679   7.395   0.811   5.196
13616SOL    HW142680   7.466   0.833   5.136
13616SOL    HW242681   7.402   0.716   5.208
13617SOL     OW42682  10.860   1.589   1.566
13617SOL    HW142683  10.808   1.657   1.609
13617SOL    HW242684  10.802   1.513   1.561
13618SOL     OW42685   1.349   2.864  11.766
13618SOL    HW142686   1.332   2.891  11.856
13618SOL    HW242687   1.263   2.866  11.723
13619SOL     OW42688   5.217   0.126  11.283
13619SOL    HW142689   5.231   0.137  11.377
13619SOL    HW242690   5.283   0.182  11.242
13620SOL     OW42691  12.813   6.389   1.615
13620SOL    HW142692  12.828   6.340   1.696
13620SOL    HW242693  12.831   6.326   1.545
13621SOL     OW42694   6.293   2.584   1.459
13621SOL    HW142695   6.220   2.627   1.505
13621SOL    HW242696   6.281   2.608   1.367
13622SOL     OW42697  13.346   1.864   5.946
13622SOL    HW142698  13.342   1.803   5.872
13622SOL    HW242699  13.379   1.945   5.907
13623SOL     OW42700  14.827   9.911   1.212
13623SOL    HW142701  14.789   9.919   1.125
13623SOL    HW242702   0.039   9.869   1.198
13624SOL     OW42703   8.225   8.029  13.238
13624SOL    HW142704   8.270   8.000  13.159
13624SOL    HW242705   8.139   8.058  13.207
13625SOL     OW42706   0.748   0.857   8.189
13625SOL    HW142707   0.724   0.767   8.166
13625SOL    HW242708   0.667   0.907   8.177
13626SOL     OW42709   9.451  11.668  10.044
13626SOL    HW142710   9.471  11.750   9.999
13626SOL    HW242711   9.355  11.666  10.048
13627SOL     OW42712   4.262   4.321  11.026
13627SOL    HW142713   4.181   4.276  11.003
13627SOL    HW242714   4.283   4.289  11.114
13628SOL     OW42715   3.317  14.810   9.443
13628SOL    HW142716   3.348  14.733   9.396
13628SOL    HW242717   3.233  14.783   9.480
13629SOL     OW42718   9.328  13.171   1.205
13629SOL    HW142719   9.305  13.155   1.113
13629SOL    HW242720   9.422  13.189   1.204
13630SOL     OW42721  11.837   1.536  10.872
13630SOL    HW142722  11.894   1.489  10.811
13630SOL    HW242723  11.780   1.589  10.816
13631SOL     OW42724   4.812   2.752  10.239
13631SOL    HW142725   4.834   2.837  10.277
13631SOL    HW242726   4.775   2.773  10.153
13632SOL     OW42727   8.071  11.142   7.145
13632SOL    HW142728   8.070  11.145   7.049
13632SOL    HW242729   8.130  11.213   7.170
13633SOL     OW42730   4.094   4.692   9.326
13633SOL    HW142731   4.090   4.599   9.346
13633SOL    HW242732   4.076   4.736   9.409
13634SOL     OW42733   1.513  11.910  13.130
13634SOL    HW142734   1.447  11.845  13.106
13634SOL    HW242735   1.592  11.859  13.146
13635SOL     OW42736  11.913   1.761   7.018
13635SOL    HW142737  11.906   1.779   6.924
13635SOL    HW242738  11.995   1.713   7.027
13636SOL     OW42739  14.435   9.253  13.095
13636SOL    HW142740  14.428   9.331  13.150
13636SOL    HW242741  14.455   9.287  13.008
13637SOL     OW42742   1.620   9.962   1.579
13637SOL    HW142743   1.686   9.923   1.635
13637SOL    HW242744   1.626   9.912   1.497
13638SOL     OW42745   5.954  14.689   4.421
13638SOL    HW142746   6.008  14.612   4.439
13638SOL    HW242747   5.864  14.656   4.422
13639SOL     OW42748  14.523  11.309   9.472
13639SOL    HW142749  14.550  11.381   9.528
13639SOL    HW242750  14.430  11.297   9.490
13640SOL     OW42751   1.346  12.773   0.742
13640SOL    HW142752   1.359  12.867   0.732
13640SOL    HW242753   1.375  12.754   0.831
13641SOL     OW42754   2.259  12.060   6.782
13641SOL    HW142755   2.354  12.062   6.794
13641SOL    HW242756   2.233  11.971   6.807
13642SOL     OW42757  12.001  14.865   9.909
13642SOL    HW142758  11.969  14.809   9.979
13642SOL    HW242759  12.035  14.805   9.844
13643SOL     OW42760  10.770  14.315  13.712
13643SOL    HW142761  10.701  14.256  13.682
13643SOL    HW242762  10.783  14.292  13.804
13644SOL     OW42763   0.909  14.732  11.984
13644SOL    HW142764   0.937  14.751  11.894
13644SOL    HW242765   0.816  14.712  11.977
13645SOL     OW42766  10.759   5.475   4.376
13645SOL    HW142767  10.816   5.473   4.454
13645SOL    HW242768  10.740   5.568   4.363
13646SOL     OW42769  14.055   1.773  13.814
13646SOL    HW142770  14.012   1.795  13.731
13646SOL    HW242771  14.092   1.686  13.799
13647SOL     OW42772  12.814  13.277  10.159
13647SOL    HW142773  12.744  13.293  10.223
13647SOL    HW242774  12.870  13.354  10.165
13648SOL     OW42775   4.634   9.638   3.566
13648SOL    HW142776   4.642   9.616   3.473
13648SOL    HW242777   4.544   9.613   3.589
13649SOL     OW42778  10.498   4.294  10.789
13649SOL    HW142779  10.532   4.205  10.783
13649SOL    HW242780  10.547   4.334  10.861
13650SOL     OW42781   0.359   9.862  10.458
13650SOL    HW142782   0.337   9.820  10.375
13650SOL    HW242783   0.279   9.854  10.511
13651SOL     OW42784   9.393  10.416   3.930
13651SOL    HW142785   9.317  10.474   3.926
13651SOL    HW242786   9.354  10.328   3.936
13652SOL     OW42787   7.806   5.867  12.579
13652SOL    HW142788   7.716   5.872  12.548
13652SOL    HW242789   7.859   5.878  12.500
13653SOL     OW42790  14.263  11.722   4.113
13653SOL    HW142791  14.279  11.665   4.037
13653SOL    HW242792  14.229  11.662   4.180
13654SOL     OW42793   5.273   6.218  14.458
13654SOL    HW142794   5.356   6.172  14.458
13654SOL    HW242795   5.278   6.278  14.384
13655SOL     OW42796  13.473  10.708   9.571
13655SOL    HW142797  13.566  10.721   9.592
13655SOL    HW242798  13.448  10.787   9.523
13656SOL     OW42799   8.762   9.513  10.944
13656SOL    HW142800   8.807   9.574  11.002
13656SOL    HW242801   8.738   9.440  11.000
13657SOL     OW42802   0.427   8.022   2.884
13657SOL    HW142803   0.473   7.952   2.930
13657SOL    HW242804   0.349   7.979   2.849
13658SOL     OW42805   9.657   9.552   4.733
13658SOL    HW142806   9.665   9.620   4.666
13658SOL    HW242807   9.644   9.600   4.814
13659SOL     OW42808  10.618   4.779  12.730
13659SOL    HW142809  10.673   4.835  12.785
13659SOL    HW242810  10.542   4.758  12.785
13660SOL     OW42811  10.071   0.685  10.291
13660SOL    HW142812  10.000   0.649  10.238
13660SOL    HW242813  10.064   0.639  10.375
13661SOL     OW42814  14.406   3.565   3.682
13661SOL    HW142815  14.452   3.643   3.651
13661SOL    HW242816  14.394   3.511   3.604
13662SOL     OW42817   4.443   5.069   7.401
13662SOL    HW142818   4.383   4.998   7.374
13662SOL    HW242819   4.427   5.139   7.338
13663SOL     OW42820   0.283  11.365   0.210
13663SOL    HW142821   0.204  11.320   0.241
13663SOL    HW242822   0.252  11.453   0.186
13664SOL     OW42823   2.772   9.937   4.518
13664SOL    HW142824   2.776  10.001   4.590
13664SOL    HW242825   2.800   9.855   4.558
13665SOL     OW42826   4.273  14.393  11.594
13665SOL    HW142827   4.272  14.401  11.499
13665SOL    HW242828   4.339  14.325  11.612
13666SOL     OW42829   7.435   4.670  14.767
13666SOL    HW142830   7.376   4.699  14.836
13666SOL    HW242831   7.502   4.739  14.762
13667SOL     OW42832  11.277   5.990   7.188
13667SOL    HW142833  11.357   5.965   7.142
13667SOL    HW242834  11.305   6.006   7.278
13668SOL     OW42835  13.084  14.635   7.119
13668SOL    HW142836  13.154  14.698   7.136
13668SOL    HW242837  13.053  14.657   7.031
13669SOL     OW42838   8.858  11.464  10.686
13669SOL    HW142839   8.876  11.374  10.661
13669SOL    HW242840   8.800  11.497  10.617
13670SOL     OW42841   7.115   8.932   9.537
13670SOL    HW142842   7.035   8.984   9.545
13670SOL    HW242843   7.179   8.992   9.500
13671SOL     OW42844   7.986   9.984  14.507
13671SOL    HW142845   7.924   9.994  14.579
13671SOL    HW242846   8.020   9.894  14.517
13672SOL     OW42847   4.334   7.415   5.038
13672SOL    HW142848   4.352   7.412   4.944
13672SOL    HW242849   4.396   7.352   5.076
13673SOL     OW42850   5.961  14.860   3.717
13673SOL    HW142851   5.963  14.869   3.812
13673SOL    HW242852   5.891   0.045   3.688
13674SOL     OW42853   0.837   4.357  14.456
13674SOL    HW142854   0.929   4.342  14.479
13674SOL    HW242855   0.833   4.449  14.432
13675SOL     OW42856   8.344  11.416  10.791
13675SOL    HW142857   8.362  11.510  10.798
13675SOL    HW242858   8.331  11.387  10.882
13676SOL     OW42859   2.719  11.790   3.150
13676SOL    HW142860   2.740  11.762   3.061
13676SOL    HW242861   2.750  11.880   3.155
13677SOL     OW42862  14.668   2.853   0.953
13677SOL    HW142863  14.650   2.899   0.870
13677SOL    HW242864  14.587   2.861   1.003
13678SOL     OW42865   9.312  11.676   0.608
13678SOL    HW142866   9.381  11.741   0.620
13678SOL    HW242867   9.320  11.617   0.682
13679SOL     OW42868   5.334   5.840   8.457
13679SOL    HW142869   5.405   5.875   8.403
13679SOL    HW242870   5.335   5.746   8.440
13680SOL     OW42871   2.984   3.328   9.575
13680SOL    HW142872   2.908   3.375   9.610
13680SOL    HW242873   2.990   3.249   9.628
13681SOL     OW42874   9.730   9.420   7.057
13681SOL    HW142875   9.728   9.513   7.080
13681SOL    HW242876   9.651   9.384   7.097
13682SOL     OW42877   6.416  12.481  11.130
13682SOL    HW142878   6.402  12.464  11.037
13682SOL    HW242879   6.329  12.505  11.162
13683SOL     OW42880   1.944   8.625   5.260
13683SOL    HW142881   1.891   8.636   5.339
13683SOL    HW242882   1.930   8.534   5.235
13684SOL     OW42883   4.683   1.342   8.280
13684SOL    HW142884   4.667   1.410   8.214
13684SOL    HW242885   4.607   1.284   8.273
13685SOL     OW42886  10.322   6.500   0.795
13685SOL    HW142887  10.342   6.536   0.881
13685SOL    HW242888  10.242   6.450   0.808
13686SOL     OW42889  10.234   8.317  13.693
13686SOL    HW142890  10.214   8.239  13.641
13686SOL    HW242891  10.247   8.386  13.628
13687SOL     OW42892  14.058   2.244  11.047
13687SOL    HW142893  14.095   2.187  11.114
13687SOL    HW242894  13.993   2.189  11.003
13688SOL     OW42895   1.864   3.526   2.582
13688SOL    HW142896   1.847   3.573   2.663
13688SOL    HW242897   1.783   3.534   2.532
13689SOL     OW42898  12.010   4.183   9.537
13689SOL    HW142899  11.958   4.151   9.464
13689SOL    HW242900  12.025   4.276   9.518
13690SOL     OW42901   9.914  14.611   3.429
13690SOL    HW142902   9.949  14.598   3.342
13690SOL    HW242903   9.949  14.539   3.481
13691SOL     OW42904   5.760  14.294   5.220
13691SOL    HW142905   5.679  14.346   5.225
13691SOL    HW242906   5.764  14.249   5.304
13692SOL     OW42907   7.973   4.491  14.548
13692SOL    HW142908   8.068   4.502  14.538
13692SOL    HW242909   7.935   4.552  14.485
13693SOL     OW42910  12.099   9.286   6.164
13693SOL    HW142911  12.146   9.252   6.088
13693SOL    HW242912  12.071   9.209   6.212
13694SOL     OW42913   8.617   7.781  12.103
13694SOL    HW142914   8.593   7.693  12.133
13694SOL    HW242915   8.712   7.778  12.093
13695SOL     OW42916   0.037   2.530   0.085
13695SOL    HW142917   0.060   2.520   0.178
13695SOL    HW242918   0.106   2.485   0.038
13696SOL     OW42919   6.930  13.537   2.557
13696SOL    HW142920   6.841  13.571   2.546
13696SOL    HW242921   6.983  13.588   2.496
13697SOL     OW42922   5.153  11.851  14.359
13697SOL    HW142923   5.236  11.809  14.382
13697SOL    HW242924   5.157  11.936  14.401
13698SOL     OW42925  14.628  10.890  12.886
13698SOL    HW142926  14.652  10.983  12.885
13698SOL    HW242927  14.617  10.868  12.794
13699SOL     OW42928   9.560   5.430   0.209
13699SOL    HW142929   9.475   5.474   0.215
13699SOL    HW242930   9.612   5.487   0.152
13700SOL     OW42931   7.046  12.342   4.727
13700SOL    HW142932   6.997  12.421   4.703
13700SOL    HW242933   7.011  12.274   4.669
13701SOL     OW42934   1.026  11.243  12.041
13701SOL    HW142935   1.005  11.182  12.112
13701SOL    HW242936   1.081  11.310  12.083
13702SOL     OW42937  10.837  12.408   9.251
13702SOL    HW142938  10.794  12.331   9.288
13702SOL    HW242939  10.871  12.455   9.327
13703SOL     OW42940  12.111   9.521   1.138
13703SOL    HW142941  12.188   9.467   1.153
13703SOL    HW242942  12.057   9.469   1.078
13704SOL     OW42943   8.955   0.191   4.746
13704SOL    HW142944   8.879   0.187   4.689
13704SOL    HW242945   9.010   0.117   4.719
13705SOL     OW42946  12.688   3.101  14.245
13705SOL    HW142947  12.597   3.095  14.219
13705SOL    HW242948  12.695   3.187  14.287
13706SOL     OW42949   3.126  11.016   6.422
13706SOL    HW142950   3.157  11.052   6.340
13706SOL    HW242951   3.139  11.086   6.486
13707SOL     OW42952   3.703  11.695   8.801
13707SOL    HW142953   3.639  11.669   8.735
13707SOL    HW242954   3.652  11.705   8.881
13708SOL     OW42955   1.163   3.908   0.152
13708SOL    HW142956   1.214   3.853   0.212
13708SOL    HW242957   1.174   3.867   0.067
13709SOL     OW42958  13.624   3.051  14.580
13709SOL    HW142959  13.617   2.958  14.559
13709SOL    HW242960  13.534   3.077  14.603
13710SOL     OW42961   6.037  14.559   6.043
13710SOL    HW142962   5.945  14.583   6.028
13710SOL    HW242963   6.045  14.472   6.005
13711SOL     OW42964   6.146  10.575   1.437
13711SOL    HW142965   6.110  10.600   1.352
13711SOL    HW242966   6.241  10.570   1.422
13712SOL     OW42967   9.592   6.882   2.515
13712SOL    HW142968   9.580   6.975   2.537
13712SOL    HW242969   9.626   6.843   2.596
13713SOL     OW42970  10.065   0.462   4.307
13713SOL    HW142971  10.078   0.491   4.397
13713SOL    HW242972   9.971   0.449   4.300
13714SOL     OW42973  11.565   7.721  13.648
13714SOL    HW142974  11.515   7.640  13.635
13714SOL    HW242975  11.502   7.781  13.688
13715SOL     OW42976   5.501   9.183  13.951
13715SOL    HW142977   5.516   9.092  13.975
13715SOL    HW242978   5.583   9.211  13.910
13716SOL     OW42979   5.631   0.892  10.996
13716SOL    HW142980   5.582   0.969  11.024
13716SOL    HW242981   5.617   0.888  10.901
13717SOL     OW42982   1.285   3.304   5.242
13717SOL    HW142983   1.243   3.331   5.324
13717SOL    HW242984   1.251   3.216   5.226
13718SOL     OW42985   9.632   5.543   4.805
13718SOL    HW142986   9.665   5.455   4.788
13718SOL    HW242987   9.537   5.535   4.800
13719SOL     OW42988   9.243   4.136  11.481
13719SOL    HW142989   9.163   4.189  11.489
13719SOL    HW242990   9.289   4.151  11.564
13720SOL     OW42991  13.808   6.395   6.081
13720SOL    HW142992  13.719   6.410   6.051
13720SOL    HW242993  13.824   6.466   6.144
13721SOL     OW42994   9.774  14.271   0.452
13721SOL    HW142995   9.764  14.245   0.544
13721SOL    HW242996   9.685  14.288   0.422
13722SOL     OW42997   6.329   9.079   2.265
13722SOL    HW142998   6.418   9.047   2.255
13722SOL    HW242999   6.323   9.105   2.357
13723SOL     OW43000   8.192   1.128   7.643
13723SOL    HW143001   8.138   1.161   7.715
13723SOL    HW243002   8.202   1.035   7.662
13724SOL     OW43003   4.925   9.913   1.336
13724SOL    HW143004   4.962   9.892   1.421
13724SOL    HW243005   4.853   9.851   1.325
13725SOL     OW43006   7.372   0.259   1.037
13725SOL    HW143007   7.354   0.348   1.066
13725SOL    HW243008   7.379   0.266   0.942
13726SOL     OW43009   6.608   3.144  11.238
13726SOL    HW143010   6.639   3.117  11.325
13726SOL    HW243011   6.572   3.232  11.251
13727SOL     OW43012   2.259   0.904   7.131
13727SOL    HW143013   2.272   0.945   7.217
13727SOL    HW243014   2.329   0.839   7.125
13728SOL     OW43015  14.135   1.940  14.639
13728SOL    HW143016  14.164   1.848  14.633
13728SOL    HW243017  14.105   1.961  14.550
13729SOL     OW43018  12.920   4.168   2.104
13729SOL    HW143019  12.963   4.214   2.032
13729SOL    HW243020  12.953   4.079   2.100
13730SOL     OW43021   7.096   0.743  13.439
13730SOL    HW143022   7.115   0.655  13.408
13730SOL    HW243023   7.038   0.780  13.372
13731SOL     OW43024  12.665   1.066   0.926
13731SOL    HW143025  12.658   1.160   0.909
13731SOL    HW243026  12.741   1.057   0.984
13732SOL     OW43027   7.963   7.806  10.209
13732SOL    HW143028   8.031   7.846  10.156
13732SOL    HW243029   7.891   7.789  10.147
13733SOL     OW43030   5.998  13.928   1.465
13733SOL    HW143031   5.945  13.851   1.487
13733SOL    HW243032   5.937  14.002   1.470
13734SOL     OW43033   4.598   2.253   0.295
13734SOL    HW143034   4.548   2.333   0.278
13734SOL    HW243035   4.541   2.183   0.265
13735SOL     OW43036   8.867   0.428  11.318
13735SOL    HW143037   8.802   0.491  11.289
13735SOL    HW243038   8.898   0.462  11.401
13736SOL     OW43039   0.117   1.986   9.529
13736SOL    HW143040   0.156   1.989   9.616
13736SOL    HW243041   0.070   2.068   9.520
13737SOL     OW43042   0.011   4.554   5.453
13737SOL    HW143043  14.833   4.551   5.535
13737SOL    HW243044   0.086   4.611   5.473
13738SOL     OW43045  14.605   8.995  13.346
13738SOL    HW143046  14.620   9.017  13.254
13738SOL    HW243047  14.639   9.071  13.394
13739SOL     OW43048   6.479   0.927  12.539
13739SOL    HW143049   6.470   0.844  12.491
13739SOL    HW243050   6.509   0.989  12.473
13740SOL     OW43051   2.594  11.656   4.289
13740SOL    HW143052   2.641  11.573   4.280
13740SOL    HW243053   2.521  11.637   4.348
13741SOL     OW43054   7.849   8.443   9.241
13741SOL    HW143055   7.788   8.422   9.311
13741SOL    HW243056   7.798   8.496   9.179
13742SOL     OW43057   5.007   4.953   0.265
13742SOL    HW143058   4.928   5.007   0.256
13742SOL    HW243059   5.077   5.015   0.286
13743SOL     OW43060   9.125   5.440  12.115
13743SOL    HW143061   9.035   5.438  12.083
13743SOL    HW243062   9.172   5.492  12.050
13744SOL     OW43063   4.485   4.368  12.018
13744SOL    HW143064   4.541   4.375  12.095
13744SOL    HW243065   4.446   4.455  12.008
13745SOL     OW43066   0.069  12.307   8.614
13745SOL    HW143067  14.851  12.285   8.638
13745SOL    HW243068   0.063  12.336   8.523
13746SOL     OW43069   5.103  14.020   4.415
13746SOL    HW143070   5.155  14.062   4.484
13746SOL    HW243071   5.012  14.038   4.440
13747SOL     OW43072   8.871  11.942   0.385
13747SOL    HW143073   8.816  12.015   0.415
13747SOL    HW243074   8.947  11.945   0.444
13748SOL     OW43075   9.695   4.724  14.162
13748SOL    HW143076   9.620   4.685  14.207
13748SOL    HW243077   9.742   4.648  14.126
13749SOL     OW43078  10.419   6.245   2.710
13749SOL    HW143079  10.504   6.286   2.694
13749SOL    HW243080  10.392   6.212   2.624
13750SOL     OW43081   0.441   5.612   4.820
13750SOL    HW143082   0.439   5.669   4.743
13750SOL    HW243083   0.525   5.567   4.815
13751SOL     OW43084  10.891  12.001   0.038
13751SOL    HW143085  10.981  11.984   0.064
13751SOL    HW243086  10.857  12.060   0.106
13752SOL     OW43087   7.007   5.546   9.439
13752SOL    HW143088   6.992   5.539   9.533
13752SOL    HW243089   6.947   5.481   9.401
13753SOL     OW43090   1.612   5.624  13.335
13753SOL    HW143091   1.526   5.632  13.377
13753SOL    HW243092   1.597   5.562  13.263
13754SOL     OW43093   9.846   2.194   4.352
13754SOL    HW143094   9.904   2.228   4.420
13754SOL    HW243095   9.856   2.099   4.356
13755SOL     OW43096   5.675  14.771   1.618
13755SOL    HW143097   5.755  14.816   1.590
13755SOL    HW243098   5.673  14.692   1.565
13756SOL     OW43099   8.525   3.871   0.637
13756SOL    HW143100   8.541   3.812   0.563
13756SOL    HW243101   8.464   3.936   0.602
13757SOL     OW43102   1.390   6.821  12.826
13757SOL    HW143103   1.407   6.910  12.796
13757SOL    HW243104   1.353   6.777  12.749
13758SOL     OW43105   0.552   8.618   2.172
13758SOL    HW143106   0.638   8.578   2.190
13758SOL    HW243107   0.565   8.711   2.190
13759SOL     OW43108   2.774   2.202  13.521
13759SOL    HW143109   2.861   2.194  13.559
13759SOL    HW243110   2.773   2.136  13.451
13760SOL     OW43111  10.523   4.417   7.285
13760SOL    HW143112  10.437   4.445   7.254
13760SOL    HW243113  10.514   4.411   7.380
13761SOL     OW43114   1.895  11.657   2.658
13761SOL    HW143115   1.976  11.678   2.704
13761SOL    HW243116   1.892  11.561   2.657
13762SOL     OW43117  10.885   2.074   3.426
13762SOL    HW143118  10.816   2.015   3.396
13762SOL    HW243119  10.898   2.134   3.353
13763SOL     OW43120  11.099  13.206  11.035
13763SOL    HW143121  11.068  13.121  11.004
13763SOL    HW243122  11.029  13.237  11.093
13764SOL     OW43123  10.223  10.387  14.754
13764SOL    HW143124  10.196  10.472  14.719
13764SOL    HW243125  10.192  10.323  14.690
13765SOL     OW43126   8.459  11.275   7.418
13765SOL    HW143127   8.542  11.312   7.386
13765SOL    HW243128   8.482  11.186   7.445
13766SOL     OW43129   4.568   0.740   2.651
13766SOL    HW143130   4.592   0.648   2.642
13766SOL    HW243131   4.640   0.788   2.610
13767SOL     OW43132   2.027  14.814  13.215
13767SOL    HW143133   2.097  14.863  13.172
13767SOL    HW243134   2.068  14.732  13.241
13768SOL     OW43135   0.153   1.285  11.896
13768SOL    HW143136   0.110   1.332  11.967
13768SOL    HW243137   0.239   1.327  11.887
13769SOL     OW43138   6.370  10.817   1.177
13769SOL    HW143139   6.286  10.842   1.139
13769SOL    HW243140   6.431  10.814   1.103
13770SOL     OW43141   4.520   5.773   8.665
13770SOL    HW143142   4.616   5.772   8.669
13770SOL    HW243143   4.497   5.866   8.663
13771SOL     OW43144   0.550   1.893   3.116
13771SOL    HW143145   0.555   1.815   3.060
13771SOL    HW243146   0.493   1.866   3.188
13772SOL     OW43147   1.103   0.844   4.151
13772SOL    HW143148   1.130   0.904   4.221
13772SOL    HW243149   1.182   0.794   4.130
13773SOL     OW43150   2.528   5.202   2.866
13773SOL    HW143151   2.467   5.129   2.877
13773SOL    HW243152   2.576   5.205   2.949
13774SOL     OW43153   7.580  13.138  14.530
13774SOL    HW143154   7.557  13.228  14.549
13774SOL    HW243155   7.547  13.123  14.441
13775SOL     OW43156  11.000   6.962   2.290
13775SOL    HW143157  11.072   6.916   2.334
13775SOL    HW243158  10.962   7.018   2.358
13776SOL     OW43159   5.459   9.230  14.569
13776SOL    HW143160   5.527   9.297  14.570
13776SOL    HW243161   5.495   9.159  14.622
13777SOL     OW43162   5.275   0.141   8.626
13777SOL    HW143163   5.276   0.236   8.630
13777SOL    HW243164   5.281   0.121   8.532
13778SOL     OW43165  14.254   1.171   0.880
13778SOL    HW143166  14.330   1.197   0.932
13778SOL    HW243167  14.183   1.164   0.944
13779SOL     OW43168   4.762   3.994  11.397
13779SOL    HW143169   4.818   3.992  11.319
13779SOL    HW243170   4.712   4.075  11.388
13780SOL     OW43171  10.678   0.078   8.745
13780SOL    HW143172  10.617   0.063   8.817
13780SOL    HW243173  10.690   0.173   8.743
13781SOL     OW43174   5.988   1.035   7.861
13781SOL    HW143175   6.005   0.992   7.777
13781SOL    HW243176   5.898   1.067   7.854
13782SOL     OW43177   8.765   8.174   9.818
13782SOL    HW143178   8.770   8.098   9.761
13782SOL    HW243179   8.767   8.138   9.907
13783SOL     OW43180   5.350   4.740  11.358
13783SOL    HW143181   5.285   4.670  11.345
13783SOL    HW243182   5.348   4.757  11.452
13784SOL     OW43183   0.222  12.051   1.057
13784SOL    HW143184   0.264  12.036   1.142
13784SOL    HW243185   0.288  12.097   1.005
13785SOL     OW43186  10.594  12.273   4.678
13785SOL    HW143187  10.501  12.272   4.704
13785SOL    HW243188  10.618  12.365   4.679
13786SOL     OW43189   2.775   0.474   3.070
13786SOL    HW143190   2.694   0.424   3.064
13786SOL    HW243191   2.754   0.559   3.030
13787SOL     OW43192   1.098  11.685  10.638
13787SOL    HW143193   1.032  11.738  10.682
13787SOL    HW243194   1.085  11.597  10.673
13788SOL     OW43195   3.858   9.355  14.367
13788SOL    HW143196   3.926   9.416  14.394
13788SOL    HW243197   3.776   9.399  14.391
13789SOL     OW43198  11.766   0.712  10.404
13789SOL    HW143199  11.672   0.702  10.390
13789SOL    HW243200  11.776   0.798  10.445
13790SOL     OW43201   0.797   0.905  14.679
13790SOL    HW143202   0.738   0.857  14.737
13790SOL    HW243203   0.771   0.996  14.687
13791SOL     OW43204   0.175  11.350   4.447
13791SOL    HW143205   0.160  11.444   4.440
13791SOL    HW243206   0.264  11.338   4.413
13792SOL     OW43207   2.284   9.568   1.077
13792SOL    HW143208   2.356   9.630   1.072
13792SOL    HW243209   2.325   9.482   1.071
13793SOL     OW43210  14.018   9.802   5.103
13793SOL    HW143211  13.991   9.732   5.043
13793SOL    HW243212  13.948   9.867   5.096
13794SOL     OW43213   3.235  12.577   1.088
13794SOL    HW143214   3.265  12.630   1.161
13794SOL    HW243215   3.315  12.539   1.050
13795SOL     OW43216  10.267   6.848   2.408
13795SOL    HW143217  10.323   6.904   2.461
13795SOL    HW243218  10.180   6.889   2.413
13796SOL     OW43219  11.482   9.034  14.399
13796SOL    HW143220  11.517   9.111  14.353
13796SOL    HW243221  11.387   9.049  14.401
13797SOL     OW43222  12.208   6.035  11.195
13797SOL    HW143223  12.295   6.069  11.178
13797SOL    HW243224  12.160   6.045  11.113
13798SOL     OW43225   2.394  10.376   1.394
13798SOL    HW143226   2.433  10.453   1.353
13798SOL    HW243227   2.454  10.353   1.465
13799SOL     OW43228  11.385   8.495   6.686
13799SOL    HW143229  11.394   8.576   6.636
13799SOL    HW243230  11.473   8.479   6.721
13800SOL     OW43231  12.715   2.388   6.220
13800SOL    HW143232  12.734   2.348   6.305
13800SOL    HW243233  12.795   2.375   6.169
13801SOL     OW43234   1.767   2.993   4.471
13801SOL    HW143235   1.703   2.944   4.522
13801SOL    HW243236   1.820   2.926   4.428
13802SOL     OW43237   8.899   7.228   6.048
13802SOL    HW143238   8.858   7.156   6.097
13802SOL    HW243239   8.841   7.241   5.973
13803SOL     OW43240   0.561   1.839   9.051
13803SOL    HW143241   0.516   1.796   8.978
13803SOL    HW243242   0.494   1.853   9.117
13804SOL     OW43243  12.061  14.438   9.032
13804SOL    HW143244  12.110  14.447   9.114
13804SOL    HW243245  11.973  14.414   9.059
13805SOL     OW43246   4.489  11.431   9.017
13805SOL    HW143247   4.407  11.414   8.971
13805SOL    HW243248   4.557  11.401   8.956
13806SOL     OW43249   9.664  14.230   9.486
13806SOL    HW143250   9.572  14.211   9.468
13806SOL    HW243251   9.694  14.280   9.410
13807SOL     OW43252  10.790   3.750   9.097
13807SOL    HW143253  10.789   3.811   9.171
13807SOL    HW243254  10.800   3.663   9.137
13808SOL     OW43255   6.044  13.072  12.183
13808SOL    HW143256   6.112  13.048  12.246
13808SOL    HW243257   6.084  13.060  12.098
13809SOL     OW43258   5.245  11.659   1.649
13809SOL    HW143259   5.154  11.682   1.669
13809SOL    HW243260   5.255  11.678   1.556
13810SOL     OW43261   3.482  10.896   4.677
13810SOL    HW143262   3.554  10.941   4.632
13810SOL    HW243263   3.429  10.860   4.606
13811SOL     OW43264   8.465   0.861   5.236
13811SOL    HW143265   8.550   0.819   5.225
13811SOL    HW243266   8.406   0.789   5.260
13812SOL     OW43267   9.180  14.153  14.612
13812SOL    HW143268   9.087  14.175  14.617
13812SOL    HW243269   9.199  14.156  14.518
13813SOL     OW43270  12.979   7.214   9.769
13813SOL    HW143271  13.016   7.128   9.749
13813SOL    HW243272  12.907   7.224   9.706
13814SOL     OW43273   3.977   0.295   4.417
13814SOL    HW143274   4.005   0.288   4.509
13814SOL    HW243275   3.911   0.365   4.418
13815SOL     OW43276  12.279   6.772  10.119
13815SOL    HW143277  12.297   6.684  10.152
13815SOL    HW243278  12.364   6.817  10.122
13816SOL     OW43279  13.827  10.405   8.827
13816SOL    HW143280  13.779  10.419   8.909
13816SOL    HW243281  13.918  10.392   8.854
13817SOL     OW43282   4.069   3.413   6.154
13817SOL    HW143283   4.025   3.375   6.231
13817SOL    HW243284   4.055   3.348   6.085
13818SOL     OW43285  11.058  10.837   1.348
13818SOL    HW143286  11.083  10.907   1.408
13818SOL    HW243287  11.104  10.858   1.267
13819SOL     OW43288   3.740  14.304  11.743
13819SOL    HW143289   3.816  14.351  11.776
13819SOL    HW243290   3.745  14.314  11.648
13820SOL     OW43291  10.079  14.023  13.311
13820SOL    HW143292   9.987  14.024  13.285
13820SOL    HW243293  10.096  13.932  13.336
13821SOL     OW43294   4.578  12.017  12.416
13821SOL    HW143295   4.537  12.004  12.502
13821SOL    HW243296   4.651  11.955  12.414
13822SOL     OW43297  12.801   8.335   8.133
13822SOL    HW143298  12.728   8.382   8.093
13822SOL    HW243299  12.764   8.299   8.214
13823SOL     OW43300   3.059   3.242   0.590
13823SOL    HW143301   3.136   3.286   0.555
13823SOL    HW243302   3.041   3.171   0.528
13824SOL     OW43303  14.768   9.915   3.455
13824SOL    HW143304  14.772  10.010   3.467
13824SOL    HW243305  14.766   9.903   3.360
13825SOL     OW43306   2.921   5.341   2.727
13825SOL    HW143307   2.932   5.409   2.793
13825SOL    HW243308   2.957   5.379   2.647
13826SOL     OW43309   6.912  12.180   0.916
13826SOL    HW143310   6.995  12.150   0.877
13826SOL    HW243311   6.878  12.102   0.961
13827SOL     OW43312  11.055   0.405  13.632
13827SOL    HW143313  11.133   0.352  13.647
13827SOL    HW243314  10.984   0.355  13.673
13828SOL     OW43315   3.032  12.625   3.329
13828SOL    HW143316   2.986  12.708   3.343
13828SOL    HW243317   3.085  12.640   3.251
13829SOL     OW43318   7.907   4.425  14.030
13829SOL    HW143319   7.954   4.506  14.047
13829SOL    HW243320   7.830   4.429  14.087
13830SOL     OW43321  14.028   4.453   5.209
13830SOL    HW143322  13.995   4.502   5.285
13830SOL    HW243323  13.953   4.401   5.179
13831SOL     OW43324   7.590   2.598  13.702
13831SOL    HW143325   7.522   2.532  13.688
13831SOL    HW243326   7.578   2.625  13.793
13832SOL     OW43327  10.835  14.632   9.465
13832SOL    HW143328  10.797  14.658   9.550
13832SOL    HW243329  10.929  14.625   9.482
13833SOL     OW43330   4.985   0.491  10.616
13833SOL    HW143331   4.917   0.424  10.613
13833SOL    HW243332   4.990   0.516  10.708
13834SOL     OW43333   6.359   1.702  11.972
13834SOL    HW143334   6.357   1.778  12.029
13834SOL    HW243335   6.360   1.738  11.883
13835SOL     OW43336  12.176  10.846   5.809
13835SOL    HW143337  12.253  10.903   5.804
13835SOL    HW243338  12.188  10.797   5.890
13836SOL     OW43339   9.063  10.894   8.174
13836SOL    HW143340   9.158  10.899   8.162
13836SOL    HW243341   9.028  10.889   8.085
13837SOL     OW43342  11.193   2.655  12.385
13837SOL    HW143343  11.116   2.632  12.334
13837SOL    HW243344  11.165   2.648  12.477
13838SOL     OW43345  12.089   8.828  12.228
13838SOL    HW143346  12.096   8.914  12.185
13838SOL    HW243347  12.128   8.767  12.165
13839SOL     OW43348  14.288   1.547   5.699
13839SOL    HW143349  14.372   1.502   5.693
13839SOL    HW243350  14.223   1.477   5.687
13840SOL     OW43351   9.190   8.752  14.851
13840SOL    HW143352   9.225   8.751  14.762
13840SOL    HW243353   9.095   8.740  14.840
13841SOL     OW43354   5.042  13.049  11.161
13841SOL    HW143355   4.969  13.082  11.213
13841SOL    HW243356   5.030  13.091  11.075
13842SOL     OW43357   0.109   6.610  13.357
13842SOL    HW143358   0.119   6.549  13.430
13842SOL    HW243359   0.199   6.634  13.333
13843SOL     OW43360   8.707  10.421  10.946
13843SOL    HW143361   8.768  10.383  10.883
13843SOL    HW243362   8.668  10.345  10.991
13844SOL     OW43363  12.888   6.621  12.311
13844SOL    HW143364  12.794   6.605  12.310
13844SOL    HW243365  12.905   6.671  12.230
13845SOL     OW43366   4.870   8.621   5.805
13845SOL    HW143367   4.922   8.672   5.868
13845SOL    HW243368   4.891   8.530   5.825
13846SOL     OW43369   8.758  12.201   5.016
13846SOL    HW143370   8.802  12.219   4.933
13846SOL    HW243371   8.766  12.282   5.066
13847SOL     OW43372   6.617   9.212   7.306
13847SOL    HW143373   6.706   9.180   7.324
13847SOL    HW243374   6.629   9.281   7.241
13848SOL     OW43375   9.516   9.048   1.248
13848SOL    HW143376   9.484   9.074   1.162
13848SOL    HW243377   9.579   9.115   1.272
13849SOL     OW43378  13.383  11.403  13.090
13849SOL    HW143379  13.437  11.482  13.093
13849SOL    HW243380  13.359  11.394  12.998
13850SOL     OW43381  12.777   3.340   5.483
13850SOL    HW143382  12.788   3.358   5.390
13850SOL    HW243383  12.853   3.287   5.506
13851SOL     OW43384   6.013  12.281  12.314
13851SOL    HW143385   5.969  12.256  12.232
13851SOL    HW243386   5.967  12.360  12.343
13852SOL     OW43387   7.292  12.531  13.528
13852SOL    HW143388   7.222  12.528  13.463
13852SOL    HW243389   7.347  12.605  13.501
13853SOL     OW43390   1.034   2.734   2.822
13853SOL    HW143391   1.039   2.829   2.831
13853SOL    HW243392   1.053   2.701   2.910
13854SOL     OW43393   1.904  10.402  13.640
13854SOL    HW143394   1.883  10.312  13.663
13854SOL    HW243395   1.947  10.438  13.718
13855SOL     OW43396   2.581  12.995  14.247
13855SOL    HW143397   2.620  13.036  14.324
13855SOL    HW243398   2.654  12.955  14.201
13856SOL     OW43399   3.982   6.727   0.586
13856SOL    HW143400   3.944   6.762   0.667
13856SOL    HW243401   3.907   6.712   0.528
13857SOL     OW43402  14.139  12.017   2.837
13857SOL    HW143403  14.072  12.045   2.774
13857SOL    HW243404  14.150  11.924   2.821
13858SOL     OW43405  13.672   3.878  13.867
13858SOL    HW143406  13.614   3.802  13.869
13858SOL    HW243407  13.657   3.918  13.782
13859SOL     OW43408   7.399   6.037   3.562
13859SOL    HW143409   7.439   6.124   3.561
13859SOL    HW243410   7.307   6.053   3.541
13860SOL     OW43411   9.529   4.284   0.962
13860SOL    HW143412   9.535   4.232   1.042
13860SOL    HW243413   9.616   4.277   0.922
13861SOL     OW43414   5.527  12.502  10.545
13861SOL    HW143415   5.608  12.462  10.575
13861SOL    HW243416   5.467  12.429  10.534
13862SOL     OW43417   4.239  10.289   1.243
13862SOL    HW143418   4.171  10.314   1.306
13862SOL    HW243419   4.208  10.322   1.159
13863SOL     OW43420   3.104  13.264  14.064
13863SOL    HW143421   3.095  13.324  14.138
13863SOL    HW243422   3.059  13.308  13.992
13864SOL     OW43423   5.616  12.136  10.834
13864SOL    HW143424   5.647  12.143  10.924
13864SOL    HW243425   5.588  12.225  10.812
13865SOL     OW43426   2.149   0.818   8.453
13865SOL    HW143427   2.219   0.785   8.509
13865SOL    HW243428   2.163   0.913   8.451
13866SOL     OW43429  13.748   6.501   1.899
13866SOL    HW143430  13.714   6.488   1.988
13866SOL    HW243431  13.751   6.597   1.889
13867SOL     OW43432   6.441  10.148   5.694
13867SOL    HW143433   6.354  10.128   5.660
13867SOL    HW243434   6.437  10.122   5.786
13868SOL     OW43435   8.769  12.503   9.811
13868SOL    HW143436   8.683  12.463   9.818
13868SOL    HW243437   8.780  12.520   9.717
13869SOL     OW43438   3.424   9.497   4.477
13869SOL    HW143439   3.516   9.498   4.502
13869SOL    HW243440   3.390   9.582   4.506
13870SOL     OW43441   9.054  11.418  14.401
13870SOL    HW143442   9.063  11.507  14.366
13870SOL    HW243443   8.968  11.417  14.442
13871SOL     OW43444   6.591  13.616   4.000
13871SOL    HW143445   6.589  13.584   3.910
13871SOL    HW243446   6.606  13.710   3.993
13872SOL     OW43447   3.905   8.088   7.682
13872SOL    HW143448   3.888   8.008   7.632
13872SOL    HW243449   3.999   8.087   7.698
13873SOL     OW43450   2.621   0.530   4.034
13873SOL    HW143451   2.648   0.602   4.091
13873SOL    HW243452   2.701   0.481   4.016
13874SOL     OW43453  14.206   6.619  13.132
13874SOL    HW143454  14.187   6.537  13.177
13874SOL    HW243455  14.297   6.638  13.155
13875SOL     OW43456  11.657   2.267  13.908
13875SOL    HW143457  11.632   2.355  13.934
13875SOL    HW243458  11.593   2.210  13.951
13876SOL     OW43459  11.562  11.622   2.728
13876SOL    HW143460  11.485  11.586   2.685
13876SOL    HW243461  11.589  11.554   2.789
13877SOL     OW43462  11.707  14.758   0.939
13877SOL    HW143463  11.800  14.780   0.927
13877SOL    HW243464  11.678  14.814   1.011
13878SOL     OW43465   4.576   6.913   5.169
13878SOL    HW143466   4.619   6.953   5.093
13878SOL    HW243467   4.491   6.957   5.175
13879SOL     OW43468   9.104   2.671   5.159
13879SOL    HW143469   9.032   2.643   5.101
13879SOL    HW243470   9.093   2.617   5.238
13880SOL     OW43471   7.572  12.132   4.858
13880SOL    HW143472   7.557  12.125   4.953
13880SOL    HW243473   7.667  12.136   4.850
13881SOL     OW43474  12.614   0.939   5.789
13881SOL    HW143475  12.706   0.915   5.782
13881SOL    HW243476  12.592   0.978   5.704
13882SOL     OW43477   4.796   7.151   5.323
13882SOL    HW143478   4.709   7.149   5.282
13882SOL    HW243479   4.840   7.223   5.278
13883SOL     OW43480   4.698   8.788   4.421
13883SOL    HW143481   4.624   8.846   4.439
13883SOL    HW243482   4.664   8.722   4.361
13884SOL     OW43483  10.914   7.211   6.906
13884SOL    HW143484  10.976   7.269   6.948
13884SOL    HW243485  10.965   7.168   6.837
13885SOL     OW43486   6.363  10.265   5.142
13885SOL    HW143487   6.361  10.280   5.237
13885SOL    HW243488   6.282  10.216   5.125
13886SOL     OW43489  12.889  11.149   4.955
13886SOL    HW143490  12.846  11.130   4.871
13886SOL    HW243491  12.903  11.063   4.995
13887SOL     OW43492   1.214  11.820  12.869
13887SOL    HW143493   1.124  11.789  12.875
13887SOL    HW243494   1.263  11.764  12.929
13888SOL     OW43495   3.581  14.566   4.839
13888SOL    HW143496   3.562  14.643   4.894
13888SOL    HW243497   3.644  14.515   4.890
13889SOL     OW43498   5.283  12.802  12.646
13889SOL    HW143499   5.198  12.846  12.642
13889SOL    HW243500   5.271  12.721  12.597
13890SOL     OW43501  10.577  12.395   1.881
13890SOL    HW143502  10.522  12.455   1.831
13890SOL    HW243503  10.529  12.379   1.962
13891SOL     OW43504   1.984  12.858  14.864
13891SOL    HW143505   2.011  12.940  14.822
13891SOL    HW243506   1.888  12.860  14.859
13892SOL     OW43507   1.165   5.141  12.303
13892SOL    HW143508   1.069   5.135  12.295
13892SOL    HW243509   1.182   5.130  12.397
13893SOL     OW43510   5.681   9.912   3.899
13893SOL    HW143511   5.761   9.859   3.902
13893SOL    HW243512   5.667   9.929   3.806
13894SOL     OW43513   0.296   0.235   8.045
13894SOL    HW143514   0.232   0.264   8.110
13894SOL    HW243515   0.355   0.310   8.035
13895SOL     OW43516  13.870  10.159   9.797
13895SOL    HW143517  13.894  10.237   9.847
13895SOL    HW243518  13.791  10.184   9.750
13896SOL     OW43519  11.034   1.210   0.536
13896SOL    HW143520  11.022   1.294   0.581
13896SOL    HW243521  10.949   1.166   0.542
13897SOL     OW43522   9.704  12.514  14.773
13897SOL    HW143523   9.615  12.504  14.740
13897SOL    HW243524   9.695  12.568  14.851
13898SOL     OW43525  12.372  14.691  12.301
13898SOL    HW143526  12.416  14.711  12.218
13898SOL    HW243527  12.414  14.611  12.332
13899SOL     OW43528   2.652  11.472  11.492
13899SOL    HW143529   2.720  11.456  11.427
13899SOL    HW243530   2.686  11.433  11.572
13900SOL     OW43531  12.471   8.894  12.954
13900SOL    HW143532  12.495   8.801  12.956
13900SOL    HW243533  12.391   8.899  13.005
13901SOL     OW43534   1.101   9.588  13.017
13901SOL    HW143535   1.046   9.555  12.946
13901SOL    HW243536   1.100   9.683  13.007
13902SOL     OW43537   1.868   1.348  11.668
13902SOL    HW143538   1.836   1.259  11.681
13902SOL    HW243539   1.879   1.357  11.573
13903SOL     OW43540  14.185   4.280  13.863
13903SOL    HW143541  14.264   4.251  13.910
13903SOL    HW243542  14.130   4.202  13.860
13904SOL     OW43543   9.516   6.067  11.324
13904SOL    HW143544   9.441   6.094  11.377
13904SOL    HW243545   9.535   5.978  11.353
13905SOL     OW43546   2.389   4.679   5.891
13905SOL    HW143547   2.413   4.659   5.981
13905SOL    HW243548   2.330   4.607   5.866
13906SOL     OW43549   4.371   8.482   7.214
13906SOL    HW143550   4.306   8.552   7.219
13906SOL    HW243551   4.329   8.408   7.258
13907SOL     OW43552   6.572   4.256  14.464
13907SOL    HW143553   6.493   4.310  14.470
13907SOL    HW243554   6.625   4.281  14.541
13908SOL     OW43555  13.084   3.524   5.864
13908SOL    HW143556  13.166   3.497   5.823
13908SOL    HW243557  13.023   3.533   5.791
13909SOL     OW43558  10.403   2.602   6.448
13909SOL    HW143559  10.456   2.551   6.386
13909SOL    HW243560  10.351   2.660   6.392
13910SOL     OW43561   5.313   7.023   6.129
13910SOL    HW143562   5.235   6.971   6.151
13910SOL    HW243563   5.279   7.100   6.084
13911SOL     OW43564  14.709   8.257  14.137
13911SOL    HW143565  14.782   8.204  14.103
13911SOL    HW243566  14.713   8.246  14.231
13912SOL     OW43567   4.446  10.083   7.620
13912SOL    HW143568   4.540  10.093   7.612
13912SOL    HW243569   4.425  10.009   7.563
13913SOL     OW43570   2.238   9.072   4.695
13913SOL    HW143571   2.190   9.007   4.644
13913SOL    HW243572   2.266   9.138   4.631
13914SOL     OW43573   9.719   1.638  12.948
13914SOL    HW143574   9.780   1.565  12.936
13914SOL    HW243575   9.776   1.713  12.964
13915SOL     OW43576  10.695  13.933   5.349
13915SOL    HW143577  10.700  13.846   5.389
13915SOL    HW243578  10.768  13.981   5.387
13916SOL     OW43579  10.480   7.861   9.890
13916SOL    HW143580  10.512   7.795   9.829
13916SOL    HW243581  10.391   7.880   9.860
13917SOL     OW43582  10.864   1.869   1.429
13917SOL    HW143583  10.822   1.953   1.449
13917SOL    HW243584  10.831   1.847   1.341
13918SOL     OW43585   8.923  13.395   1.097
13918SOL    HW143586   8.995  13.429   1.044
13918SOL    HW243587   8.844  13.430   1.055
13919SOL     OW43588   5.874   1.036  10.298
13919SOL    HW143589   5.872   1.108  10.234
13919SOL    HW243590   5.940   0.975  10.263
13920SOL     OW43591   3.743   2.145   3.584
13920SOL    HW143592   3.704   2.173   3.667
13920SOL    HW243593   3.776   2.057   3.601
13921SOL     OW43594   0.316  11.397   0.811
13921SOL    HW143595   0.252  11.327   0.826
13921SOL    HW243596   0.362  11.406   0.894
13922SOL     OW43597   4.680   3.177   3.217
13922SOL    HW143598   4.615   3.204   3.152
13922SOL    HW243599   4.635   3.185   3.301
13923SOL     OW43600   7.022   4.537   2.357
13923SOL    HW143601   6.979   4.609   2.403
13923SOL    HW243602   7.016   4.463   2.417
13924SOL     OW43603   4.842   9.394   2.316
13924SOL    HW143604   4.896   9.341   2.375
13924SOL    HW243605   4.790   9.331   2.267
13925SOL     OW43606   8.281   3.785   3.245
13925SOL    HW143607   8.219   3.732   3.297
13925SOL    HW243608   8.227   3.823   3.176
13926SOL     OW43609  12.794   7.243   8.477
13926SOL    HW143610  12.737   7.166   8.473
13926SOL    HW243611  12.865   7.218   8.536
13927SOL     OW43612   2.934   4.450  10.288
13927SOL    HW143613   2.984   4.486  10.214
13927SOL    HW243614   2.851   4.497  10.286
13928SOL     OW43615   6.337   8.676  13.482
13928SOL    HW143616   6.263   8.621  13.454
13928SOL    HW243617   6.331   8.754  13.427
13929SOL     OW43618  11.661   5.452  10.452
13929SOL    HW143619  11.580   5.403  10.467
13929SOL    HW243620  11.637   5.519  10.388
13930SOL     OW43621  10.261   3.480  11.715
13930SOL    HW143622  10.311   3.537  11.657
13930SOL    HW243623  10.169   3.498  11.694
13931SOL     OW43624   6.212   3.136  12.499
13931SOL    HW143625   6.214   3.222  12.458
13931SOL    HW243626   6.205   3.075  12.426
13932SOL     OW43627  11.167   4.275  11.250
13932SOL    HW143628  11.081   4.255  11.214
13932SOL    HW243629  11.161   4.366  11.278
13933SOL     OW43630   7.699   7.248   4.778
13933SOL    HW143631   7.794   7.239   4.783
13933SOL    HW243632   7.671   7.257   4.869
13934SOL     OW43633   8.588   4.783   5.037
13934SOL    HW143634   8.595   4.871   5.001
13934SOL    HW243635   8.496   4.761   5.029
13935SOL     OW43636   6.685   2.372   0.071
13935SOL    HW143637   6.737   2.319   0.010
13935SOL    HW243638   6.750   2.422   0.121
13936SOL     OW43639  14.439   4.783   3.674
13936SOL    HW143640  14.495   4.773   3.752
13936SOL    HW243641  14.411   4.874   3.676
13937SOL     OW43642   6.329  11.312  11.156
13937SOL    HW143643   6.401  11.331  11.216
13937SOL    HW243644   6.305  11.222  11.174
13938SOL     OW43645   3.348   2.921   1.447
13938SOL    HW143646   3.270   2.906   1.500
13938SOL    HW243647   3.379   2.833   1.424
13939SOL     OW43648   7.922   6.256   9.338
13939SOL    HW143649   7.948   6.272   9.248
13939SOL    HW243650   7.908   6.343   9.375
13940SOL     OW43651  11.098   9.633   8.549
13940SOL    HW143652  11.172   9.600   8.498
13940SOL    HW243653  11.052   9.692   8.489
13941SOL     OW43654   0.778  12.435   2.522
13941SOL    HW143655   0.744  12.404   2.437
13941SOL    HW243656   0.821  12.517   2.502
13942SOL     OW43657   8.855   4.202  12.657
13942SOL    HW143658   8.808   4.284  12.671
13942SOL    HW243659   8.938   4.213  12.703
13943SOL     OW43660  12.027   7.687   4.930
13943SOL    HW143661  11.932   7.689   4.924
13943SOL    HW243662  12.056   7.756   4.870
13944SOL     OW43663   5.574  13.794  12.677
13944SOL    HW143664   5.605  13.726  12.736
13944SOL    HW243665   5.646  13.857  12.671
13945SOL     OW43666   9.399  11.580   0.892
13945SOL    HW143667   9.492  11.579   0.870
13945SOL    HW243668   9.364  11.500   0.853
13946SOL     OW43669   9.398   4.758   2.723
13946SOL    HW143670   9.484   4.778   2.760
13946SOL    HW243671   9.413   4.686   2.662
13947SOL     OW43672  12.025  14.316   1.613
13947SOL    HW143673  11.952  14.263   1.581
13947SOL    HW243674  11.984  14.387   1.662
13948SOL     OW43675   7.883  12.960   6.149
13948SOL    HW143676   7.805  13.008   6.175
13948SOL    HW243677   7.893  12.892   6.217
13949SOL     OW43678  10.687   8.216  11.749
13949SOL    HW143679  10.652   8.278  11.814
13949SOL    HW243680  10.771   8.187  11.787
13950SOL     OW43681  13.255   1.432   1.541
13950SOL    HW143682  13.181   1.446   1.600
13950SOL    HW243683  13.314   1.374   1.589
13951SOL     OW43684   1.071  10.098   3.360
13951SOL    HW143685   0.988  10.102   3.408
13951SOL    HW243686   1.045  10.100   3.268
13952SOL     OW43687   0.865   0.189   0.980
13952SOL    HW143688   0.865   0.267   1.034
13952SOL    HW243689   0.859   0.221   0.890
13953SOL     OW43690   6.543   7.817  10.115
13953SOL    HW143691   6.560   7.846  10.205
13953SOL    HW243692   6.623   7.837  10.068
13954SOL     OW43693   8.983   9.099   0.052
13954SOL    HW143694   9.043   9.028   0.031
13954SOL    HW243695   8.962   9.087   0.144
13955SOL     OW43696   4.995   5.490   9.867
13955SOL    HW143697   4.946   5.417   9.831
13955SOL    HW243698   5.014   5.464   9.957
13956SOL     OW43699   8.200   5.058   9.438
13956SOL    HW143700   8.277   5.107   9.408
13956SOL    HW243701   8.166   5.110   9.511
13957SOL     OW43702   9.955  10.543   3.651
13957SOL    HW143703   9.965  10.637   3.644
13957SOL    HW243704  10.040  10.511   3.681
13958SOL     OW43705   8.666  14.285   3.404
13958SOL    HW143706   8.674  14.258   3.495
13958SOL    HW243707   8.648  14.203   3.357
13959SOL     OW43708   3.407   4.709   5.657
13959SOL    HW143709   3.450   4.782   5.613
13959SOL    HW243710   3.373   4.655   5.586
13960SOL     OW43711   2.761   4.949   0.981
13960SOL    HW143712   2.751   4.956   0.886
13960SOL    HW243713   2.851   4.975   0.997
13961SOL     OW43714   0.258  11.165   2.688
13961SOL    HW143715   0.260  11.072   2.709
13961SOL    HW243716   0.333  11.178   2.630
13962SOL     OW43717   0.807   7.105   0.120
13962SOL    HW143718   0.808   7.061   0.205
13962SOL    HW243719   0.716   7.098   0.091
13963SOL     OW43720  12.237   6.491  10.170
13963SOL    HW143721  12.270   6.466  10.257
13963SOL    HW243722  12.146   6.515  10.185
13964SOL     OW43723   2.106   3.651   1.619
13964SOL    HW143724   2.119   3.559   1.598
13964SOL    HW243725   2.098   3.654   1.714
13965SOL     OW43726   4.371   9.756   4.182
13965SOL    HW143727   4.341   9.782   4.269
13965SOL    HW243728   4.307   9.690   4.154
13966SOL     OW43729  10.106  10.232  14.554
13966SOL    HW143730  10.092  10.142  14.583
13966SOL    HW243731  10.019  10.263  14.530
13967SOL     OW43732   2.220   3.896  11.699
13967SOL    HW143733   2.176   3.976  11.724
13967SOL    HW243734   2.295   3.890  11.758
13968SOL     OW43735   3.449  10.281   5.156
13968SOL    HW143736   3.509  10.207   5.162
13968SOL    HW243737   3.473  10.337   5.229
13969SOL     OW43738  13.906   6.062  11.062
13969SOL    HW143739  13.878   5.999  10.996
13969SOL    HW243740  13.977   6.018  11.109
13970SOL     OW43741  11.816   9.637   1.252
13970SOL    HW143742  11.882   9.665   1.189
13970SOL    HW243743  11.864   9.585   1.317
13971SOL     OW43744   5.272   7.668  12.258
13971SOL    HW143745   5.345   7.617  12.295
13971SOL    HW243746   5.266   7.638  12.167
13972SOL     OW43747   2.374  13.843   3.420
13972SOL    HW143748   2.407  13.911   3.479
13972SOL    HW243749   2.452  13.809   3.376
13973SOL     OW43750   7.583   3.972   7.212
13973SOL    HW143751   7.574   3.978   7.307
13973SOL    HW243752   7.642   3.898   7.198
13974SOL     OW43753   3.302   4.956   3.416
13974SOL    HW143754   3.333   5.045   3.433
13974SOL    HW243755   3.334   4.936   3.328
13975SOL     OW43756  12.604   9.448   0.672
13975SOL    HW143757  12.590   9.481   0.761
13975SOL    HW243758  12.517   9.453   0.631
13976SOL     OW43759  14.083   3.862   4.267
13976SOL    HW143760  14.014   3.926   4.284
13976SOL    HW243761  14.044   3.778   4.294
13977SOL     OW43762  11.481  10.923  11.736
13977SOL    HW143763  11.515  10.852  11.682
13977SOL    HW243764  11.514  11.003  11.694
13978SOL     OW43765   7.897  12.334  14.453
13978SOL    HW143766   7.889  12.427  14.475
13978SOL    HW243767   7.991  12.319  14.444
13979SOL     OW43768   1.040   1.861   6.442
13979SOL    HW143769   0.953   1.900   6.451
13979SOL    HW243770   1.095   1.909   6.504
13980SOL     OW43771   6.114  11.187   8.158
13980SOL    HW143772   6.209  11.191   8.171
13980SOL    HW243773   6.091  11.096   8.172
13981SOL     OW43774   5.368   7.186   8.878
13981SOL    HW143775   5.404   7.104   8.844
13981SOL    HW243776   5.443   7.246   8.876
13982SOL     OW43777  10.887   4.731   6.864
13982SOL    HW143778  10.949   4.782   6.916
13982SOL    HW243779  10.855   4.664   6.924
13983SOL     OW43780   2.767   1.767   5.864
13983SOL    HW143781   2.764   1.862   5.877
13983SOL    HW243782   2.729   1.753   5.778
13984SOL     OW43783   7.763  12.727   5.070
13984SOL    HW143784   7.831  12.660   5.072
13984SOL    HW243785   7.798  12.796   5.014
13985SOL     OW43786  14.346  12.888  13.736
13985SOL    HW143787  14.330  12.956  13.671
13985SOL    HW243788  14.393  12.820  13.688
13986SOL     OW43789  14.715   1.242   9.627
13986SOL    HW143790  14.783   1.226   9.562
13986SOL    HW243791  14.726   1.172   9.692
13987SOL     OW43792  13.835   3.521   9.200
13987SOL    HW143793  13.784   3.600   9.221
13987SOL    HW243794  13.774   3.449   9.216
13988SOL     OW43795   8.994   2.989   6.280
13988SOL    HW143796   8.938   3.044   6.335
13988SOL    HW243797   8.936   2.958   6.210
13989SOL     OW43798   6.742   0.211  11.337
13989SOL    HW143799   6.670   0.206  11.400
13989SOL    HW243800   6.724   0.140  11.275
13990SOL     OW43801   4.008   8.200   4.664
13990SOL    HW143802   4.043   8.124   4.710
13990SOL    HW243803   3.989   8.263   4.733
13991SOL     OW43804   1.423  14.652   9.222
13991SOL    HW143805   1.457  14.563   9.214
13991SOL    HW243806   1.457  14.683   9.306
13992SOL     OW43807  13.964  10.222  11.314
13992SOL    HW143808  13.922  10.246  11.396
13992SOL    HW243809  14.051  10.191  11.340
13993SOL     OW43810   1.058   1.141   0.096
13993SOL    HW143811   1.036   1.188   0.016
13993SOL    HW243812   0.983   1.155   0.154
13994SOL     OW43813   9.869   2.246   8.890
13994SOL    HW143814   9.861   2.317   8.953
13994SOL    HW243815   9.873   2.290   8.805
13995SOL     OW43816  12.600   9.264  10.251
13995SOL    HW143817  12.530   9.251  10.187
13995SOL    HW243818  12.675   9.293  10.199
13996SOL     OW43819   6.237  14.008  11.490
13996SOL    HW143820   6.265  14.016  11.399
13996SOL    HW243821   6.288  14.074  11.537
13997SOL     OW43822   0.919   5.684   7.474
13997SOL    HW143823   0.845   5.717   7.526
13997SOL    HW243824   0.911   5.728   7.389
13998SOL     OW43825   9.734  12.530   4.157
13998SOL    HW143826   9.709  12.585   4.083
13998SOL    HW243827   9.829  12.521   4.149
13999SOL     OW43828   8.786   7.432  13.759
13999SOL    HW143829   8.832   7.389  13.831
13999SOL    HW243830   8.826   7.396  13.680
14000SOL     OW43831  10.185  14.290  12.739
14000SOL    HW143832  10.256  14.287  12.675
14000SOL    HW243833  10.220  14.343  12.811
14001SOL     OW43834  11.941   0.543   3.308
14001SOL    HW143835  11.922   0.539   3.214
14001SOL    HW243836  11.920   0.634   3.332
14002SOL     OW43837  11.968   4.276  14.809
14002SOL    HW143838  11.942   4.357  14.853
14002SOL    HW243839  11.891   4.220  14.813
14003SOL     OW43840  12.986  11.200   2.717
14003SOL    HW143841  13.058  11.221   2.777
14003SOL    HW243842  12.959  11.112   2.743
14004SOL     OW43843   9.653   3.753  14.378
14004SOL    HW143844   9.637   3.779  14.469
14004SOL    HW243845   9.590   3.684  14.361
14005SOL     OW43846   9.875   7.598   8.200
14005SOL    HW143847   9.878   7.670   8.263
14005SOL    HW243848   9.851   7.522   8.253
14006SOL     OW43849   9.354  10.490   7.031
14006SOL    HW143850   9.323  10.419   7.089
14006SOL    HW243851   9.446  10.502   7.056
14007SOL     OW43852   4.787  12.067   0.259
14007SOL    HW143853   4.881  12.049   0.256
14007SOL    HW243854   4.754  12.011   0.329
14008SOL     OW43855  11.548   0.262  13.101
14008SOL    HW143856  11.625   0.305  13.138
14008SOL    HW243857  11.504   0.331  13.051
14009SOL     OW43858   8.925   0.552  14.203
14009SOL    HW143859   8.838   0.590  14.195
14009SOL    HW243860   8.917   0.486  14.273
14010SOL     OW43861   7.925   0.620   0.525
14010SOL    HW143862   7.880   0.561   0.586
14010SOL    HW243863   8.015   0.589   0.524
14011SOL     OW43864   5.881  11.658   1.691
14011SOL    HW143865   5.826  11.609   1.630
14011SOL    HW243866   5.966  11.614   1.689
14012SOL     OW43867  10.845  11.473   5.272
14012SOL    HW143868  10.808  11.514   5.194
14012SOL    HW243869  10.780  11.408   5.298
14013SOL     OW43870   1.500  13.731   5.407
14013SOL    HW143871   1.527  13.794   5.474
14013SOL    HW243872   1.517  13.645   5.447
14014SOL     OW43873  13.567  13.436   4.843
14014SOL    HW143874  13.558  13.341   4.836
14014SOL    HW243875  13.646  13.456   4.793
14015SOL     OW43876   4.146   6.455  12.790
14015SOL    HW143877   4.094   6.533  12.768
14015SOL    HW243878   4.219   6.489  12.842
14016SOL     OW43879   1.726   0.536  11.680
14016SOL    HW143880   1.679   0.473  11.626
14016SOL    HW243881   1.657   0.587  11.723
14017SOL     OW43882   4.445   9.139  14.705
14017SOL    HW143883   4.504   9.103  14.771
14017SOL    HW243884   4.395   9.206  14.750
14018SOL     OW43885   0.662   3.086   1.868
14018SOL    HW143886   0.631   3.174   1.845
14018SOL    HW243887   0.605   3.059   1.939
14019SOL     OW43888   4.330   5.472   4.245
14019SOL    HW143889   4.311   5.552   4.196
14019SOL    HW243890   4.425   5.460   4.236
14020SOL     OW43891   3.731  14.298   2.179
14020SOL    HW143892   3.665  14.302   2.247
14020SOL    HW243893   3.683  14.314   2.098
14021SOL     OW43894   8.550   3.775   4.899
14021SOL    HW143895   8.498   3.711   4.948
14021SOL    HW243896   8.535   3.754   4.807
14022SOL     OW43897   7.261   8.810  13.891
14022SOL    HW143898   7.181   8.816  13.943
14022SOL    HW243899   7.241   8.857  13.810
14023SOL     OW43900   8.175  13.050   3.350
14023SOL    HW143901   8.196  13.140   3.325
14023SOL    HW243902   8.260  13.012   3.376
14024SOL     OW43903  13.282   1.197  10.708
14024SOL    HW143904  13.292   1.124  10.770
14024SOL    HW243905  13.313   1.273  10.756
14025SOL     OW43906   8.647  13.674  14.150
14025SOL    HW143907   8.572  13.720  14.188
14025SOL    HW243908   8.649  13.590  14.195
14026SOL     OW43909   3.951  13.901  13.426
14026SOL    HW143910   3.879  13.874  13.369
14026SOL    HW243911   3.947  13.997  13.425
14027SOL     OW43912   5.015  10.299   1.629
14027SOL    HW143913   4.926  10.296   1.664
14027SOL    HW243914   5.010  10.248   1.548
14028SOL     OW43915  13.104   8.743   2.400
14028SOL    HW143916  13.082   8.650   2.392
14028SOL    HW243917  13.187   8.752   2.354
14029SOL     OW43918  13.670   3.571  10.361
14029SOL    HW143919  13.746   3.549  10.415
14029SOL    HW243920  13.613   3.620  10.420
14030SOL     OW43921   0.417   3.400   6.624
14030SOL    HW143922   0.389   3.329   6.566
14030SOL    HW243923   0.468   3.458   6.568
14031SOL     OW43924  10.976  10.315   1.622
14031SOL    HW143925  10.961  10.316   1.528
14031SOL    HW243926  10.892  10.292   1.660
14032SOL     OW43927   5.635  11.809   4.692
14032SOL    HW143928   5.618  11.738   4.754
14032SOL    HW243929   5.691  11.870   4.740
14033SOL     OW43930   0.386   7.279   5.126
14033SOL    HW143931   0.363   7.372   5.134
14033SOL    HW243932   0.477   7.280   5.095
14034SOL     OW43933  12.189   8.304   7.097
14034SOL    HW143934  12.177   8.234   7.032
14034SOL    HW243935  12.109   8.356   7.090
14035SOL     OW43936  14.172   8.240   9.218
14035SOL    HW143937  14.229   8.313   9.241
14035SOL    HW243938  14.217   8.198   9.144
14036SOL     OW43939   4.376  13.007   7.367
14036SOL    HW143940   4.317  13.081   7.353
14036SOL    HW243941   4.342  12.938   7.311
14037SOL     OW43942   3.246   2.032   4.048
14037SOL    HW143943   3.206   1.959   4.095
14037SOL    HW243944   3.295   1.990   3.977
14038SOL     OW43945  13.529  10.555  12.312
14038SOL    HW143946  13.545  10.461  12.327
14038SOL    HW243947  13.434  10.561  12.301
14039SOL     OW43948  14.363   2.712   8.625
14039SOL    HW143949  14.281   2.699   8.673
14039SOL    HW243950  14.344   2.681   8.536
14040SOL     OW43951   0.134   1.477   0.311
14040SOL    HW143952   0.045   1.443   0.308
14040SOL    HW243953   0.190   1.404   0.283
14041SOL     OW43954  13.241   3.451  13.528
14041SOL    HW143955  13.234   3.396  13.606
14041SOL    HW243956  13.151   3.482  13.512
14042SOL     OW43957   9.385  10.075   3.829
14042SOL    HW143958   9.354  10.102   3.916
14042SOL    HW243959   9.421   9.988   3.841
14043SOL     OW43960  10.938   4.396   3.653
14043SOL    HW143961  10.954   4.365   3.564
14043SOL    HW243962  11.018   4.377   3.701
14044SOL     OW43963   5.476   4.589  11.786
14044SOL    HW143964   5.444   4.611  11.874
14044SOL    HW243965   5.571   4.585  11.796
14045SOL     OW43966  13.014   1.308  11.218
14045SOL    HW143967  12.933   1.302  11.269
14045SOL    HW243968  13.077   1.255  11.268
14046SOL     OW43969  13.825  10.750  11.832
14046SOL    HW143970  13.825  10.790  11.745
14046SOL    HW243971  13.760  10.800  11.881
14047SOL     OW43972  10.973   3.395   1.890
14047SOL    HW143973  11.059   3.359   1.914
14047SOL    HW243974  10.968   3.385   1.795
14048SOL     OW43975   9.548  10.807   0.571
14048SOL    HW143976   9.574  10.803   0.663
14048SOL    HW243977   9.457  10.836   0.573
14049SOL     OW43978   9.590   2.867  13.125
14049SOL    HW143979   9.551   2.926  13.189
14049SOL    HW243980   9.614   2.789  13.176
14050SOL     OW43981  12.152   0.713   8.753
14050SOL    HW143982  12.121   0.649   8.689
14050SOL    HW243983  12.124   0.678   8.838
14051SOL     OW43984   2.618   1.377   1.185
14051SOL    HW143985   2.591   1.328   1.263
14051SOL    HW243986   2.537   1.389   1.135
14052SOL     OW43987  13.251  11.511   4.814
14052SOL    HW143988  13.191  11.466   4.755
14052SOL    HW243989  13.287  11.441   4.869
14053SOL     OW43990   7.511  11.465  14.386
14053SOL    HW143991   7.524  11.379  14.346
14053SOL    HW243992   7.508  11.447  14.480
14054SOL     OW43993   6.776   8.893   8.455
14054SOL    HW143994   6.710   8.841   8.410
14054SOL    HW243995   6.728   8.938   8.525
14055SOL     OW43996   5.379   9.680   2.603
14055SOL    HW143997   5.459   9.692   2.552
14055SOL    HW243998   5.353   9.769   2.627
14056SOL     OW43999   3.064  12.999   2.065
14056SOL    HW144000   3.091  12.998   2.156
14056SOL    HW244001   2.968  13.005   2.068
14057SOL     OW44002  10.673  14.670   3.671
14057SOL    HW144003  10.679  14.760   3.639
14057SOL    HW244004  10.714  14.617   3.602
14058SOL     OW44005   8.516   1.624   4.829
14058SOL    HW144006   8.579   1.601   4.897
14058SOL    HW244007   8.516   1.720   4.828
14059SOL     OW44008   3.292  10.057   5.386
14059SOL    HW144009   3.360  10.113   5.423
14059SOL    HW244010   3.220  10.063   5.449
14060SOL     OW44011  13.827   7.813  14.223
14060SOL    HW144012  13.732   7.824  14.226
14060SOL    HW244013  13.845   7.769  14.140
14061SOL     OW44014   6.459  11.243   0.710
14061SOL    HW144015   6.455  11.334   0.739
14061SOL    HW244016   6.421  11.193   0.782
14062SOL     OW44017  10.981  12.219   8.688
14062SOL    HW144018  11.001  12.149   8.626
14062SOL    HW244019  10.995  12.179   8.774
14063SOL     OW44020   4.372   1.884   9.885
14063SOL    HW144021   4.395   1.792   9.901
14063SOL    HW244022   4.431   1.911   9.814
14064SOL     OW44023   1.001   8.758   1.052
14064SOL    HW144024   0.932   8.762   0.985
14064SOL    HW244025   1.020   8.665   1.061
14065SOL     OW44026   4.745  12.905  10.165
14065SOL    HW144027   4.739  12.840  10.236
14065SOL    HW244028   4.659  12.905  10.124
14066SOL     OW44029   4.364   7.582   0.297
14066SOL    HW144030   4.438   7.627   0.256
14066SOL    HW244031   4.357   7.622   0.384
14067SOL     OW44032   6.695   9.898   1.858
14067SOL    HW144033   6.696   9.850   1.775
14067SOL    HW244034   6.603   9.920   1.873
14068SOL     OW44035  14.595  13.873   1.188
14068SOL    HW144036  14.581  13.944   1.126
14068SOL    HW244037  14.524  13.880   1.251
14069SOL     OW44038   3.733   8.787   3.239
14069SOL    HW144039   3.824   8.758   3.234
14069SOL    HW244040   3.725   8.853   3.170
14070SOL     OW44041   3.225   9.476   5.862
14070SOL    HW144042   3.239   9.540   5.792
14070SOL    HW244043   3.255   9.393   5.826
14071SOL     OW44044   5.540   5.456   9.988
14071SOL    HW144045   5.602   5.417   9.925
14071SOL    HW244046   5.472   5.496   9.933
14072SOL     OW44047   1.687   8.335   8.415
14072SOL    HW144048   1.628   8.314   8.342
14072SOL    HW244049   1.629   8.342   8.491
14073SOL     OW44050  12.510  13.940  14.244
14073SOL    HW144051  12.415  13.941  14.257
14073SOL    HW244052  12.539  14.025  14.277
14074SOL     OW44053   2.915   1.983  12.074
14074SOL    HW144054   2.993   2.003  12.023
14074SOL    HW244055   2.947   1.932  12.149
14075SOL     OW44056   6.655   1.319   8.171
14075SOL    HW144057   6.676   1.339   8.080
14075SOL    HW244058   6.735   1.337   8.219
14076SOL     OW44059  12.296   6.627  11.800
14076SOL    HW144060  12.235   6.653  11.869
14076SOL    HW244061  12.382   6.652  11.834
14077SOL     OW44062  10.213   5.223   5.468
14077SOL    HW144063  10.218   5.270   5.551
14077SOL    HW244064  10.119   5.207   5.456
14078SOL     OW44065   9.007   1.125   4.148
14078SOL    HW144066   8.927   1.079   4.122
14078SOL    HW244067   9.078   1.067   4.120
14079SOL     OW44068  13.063  14.101  11.457
14079SOL    HW144069  13.009  14.063  11.526
14079SOL    HW244070  13.148  14.117  11.498
14080SOL     OW44071  12.601   4.786  13.856
14080SOL    HW144072  12.518   4.750  13.826
14080SOL    HW244073  12.645   4.813  13.775
14081SOL     OW44074   6.873  13.843   8.133
14081SOL    HW144075   6.957  13.799   8.148
14081SOL    HW244076   6.884  13.930   8.169
14082SOL     OW44077   7.563  10.560   7.773
14082SOL    HW144078   7.591  10.648   7.797
14082SOL    HW244079   7.478  10.549   7.816
14083SOL     OW44080   1.374  10.766  11.985
14083SOL    HW144081   1.330  10.726  12.060
14083SOL    HW244082   1.463  10.783  12.015
14084SOL     OW44083   7.076   8.028   5.653
14084SOL    HW144084   7.071   7.948   5.704
14084SOL    HW244085   7.016   8.014   5.579
14085SOL     OW44086   6.521  10.378  11.454
14085SOL    HW144087   6.602  10.348  11.411
14085SOL    HW244088   6.452  10.355  11.392
14086SOL     OW44089   5.625  11.034   5.472
14086SOL    HW144090   5.665  11.005   5.390
14086SOL    HW244091   5.654  11.124   5.483
14087SOL     OW44092   3.611   8.649   0.939
14087SOL    HW144093   3.544   8.674   0.875
14087SOL    HW244094   3.608   8.718   1.004
14088SOL     OW44095   7.983   8.479  12.434
14088SOL    HW144096   7.910   8.510  12.488
14088SOL    HW244097   7.995   8.548  12.369
14089SOL     OW44098   8.224   0.619  10.518
14089SOL    HW144099   8.276   0.604  10.439
14089SOL    HW244100   8.158   0.683  10.491
14090SOL     OW44101  10.892   8.745   7.684
14090SOL    HW144102  10.911   8.835   7.710
14090SOL    HW244103  10.859   8.704   7.764
14091SOL     OW44104  11.345   4.659   0.485
14091SOL    HW144105  11.303   4.579   0.517
14091SOL    HW244106  11.285   4.692   0.418
14092SOL     OW44107   3.924  14.708   7.388
14092SOL    HW144108   3.992  14.644   7.410
14092SOL    HW244109   3.957  14.791   7.423
14093SOL     OW44110   0.381   4.682  14.020
14093SOL    HW144111   0.362   4.626  14.095
14093SOL    HW244112   0.378   4.623  13.944
14094SOL     OW44113   7.266   3.976  12.379
14094SOL    HW144114   7.260   3.903  12.441
14094SOL    HW244115   7.246   4.054  12.431
14095SOL     OW44116   3.362  13.611  14.613
14095SOL    HW144117   3.330  13.522  14.602
14095SOL    HW244118   3.433  13.603  14.677
14096SOL     OW44119   3.859  11.423  10.411
14096SOL    HW144120   3.773  11.439  10.372
14096SOL    HW244121   3.845  11.431  10.505
14097SOL     OW44122   8.045   9.965   7.279
14097SOL    HW144123   8.084   9.996   7.198
14097SOL    HW244124   8.081  10.022   7.347
14098SOL     OW44125   6.018   7.745  11.251
14098SOL    HW144126   5.978   7.703  11.327
14098SOL    HW244127   5.953   7.734  11.181
14099SOL     OW44128   9.876   3.520   0.536
14099SOL    HW144129   9.886   3.562   0.621
14099SOL    HW244130   9.906   3.586   0.473
14100SOL     OW44131  13.918   5.992   7.960
14100SOL    HW144132  14.004   5.993   8.002
14100SOL    HW244133  13.861   6.039   8.020
14101SOL     OW44134   7.156  11.898   0.537
14101SOL    HW144135   7.196  11.901   0.451
14101SOL    HW244136   7.083  11.960   0.533
14102SOL     OW44137   5.449  11.349  14.689
14102SOL    HW144138   5.503  11.408  14.740
14102SOL    HW244139   5.376  11.403  14.659
14103SOL     OW44140  13.595  12.546  12.539
14103SOL    HW144141  13.548  12.515  12.617
14103SOL    HW244142  13.529  12.545  12.470
14104SOL     OW44143  14.842   3.119   7.636
14104SOL    HW144144  14.809   3.065   7.708
14104SOL    HW244145   0.055   3.081   7.615
14105SOL     OW44146  10.983   3.472   7.795
14105SOL    HW144147  11.063   3.423   7.814
14105SOL    HW244148  11.008   3.564   7.806
14106SOL     OW44149  11.971   6.211   6.290
14106SOL    HW144150  11.899   6.209   6.227
14106SOL    HW244151  11.943   6.153   6.361
14107SOL     OW44152   0.082   3.076   6.012
14107SOL    HW144153   0.001   3.099   5.966
14107SOL    HW244154   0.069   2.986   6.041
14108SOL     OW44155   2.777   9.646   4.363
14108SOL    HW144156   2.772   9.698   4.283
14108SOL    HW244157   2.686   9.625   4.384
14109SOL     OW44158  10.351   8.648   0.519
14109SOL    HW144159  10.322   8.563   0.486
14109SOL    HW244160  10.447   8.644   0.514
14110SOL     OW44161   7.557  10.975  11.450
14110SOL    HW144162   7.625  11.021  11.501
14110SOL    HW244163   7.475  11.010  11.483
14111SOL     OW44164  12.463   0.363   0.674
14111SOL    HW144165  12.415   0.282   0.659
14111SOL    HW244166  12.555   0.336   0.676
14112SOL     OW44167   8.213   0.719  12.189
14112SOL    HW144168   8.193   0.805  12.154
14112SOL    HW244169   8.129   0.683  12.216
14113SOL     OW44170   1.056  10.791  11.876
14113SOL    HW144171   0.961  10.782  11.863
14113SOL    HW244172   1.066  10.877  11.916
14114SOL     OW44173   2.024   6.559   8.233
14114SOL    HW144174   1.941   6.513   8.222
14114SOL    HW244175   2.055   6.575   8.144
14115SOL     OW44176   3.295   0.815  10.806
14115SOL    HW144177   3.390   0.813  10.821
14115SOL    HW244178   3.285   0.819  10.711
14116SOL     OW44179   2.878   4.616   0.918
14116SOL    HW144180   2.828   4.624   0.999
14116SOL    HW244181   2.958   4.569   0.943
14117SOL     OW44182   7.890   5.061   7.181
14117SOL    HW144183   7.925   4.980   7.217
14117SOL    HW244184   7.851   5.036   7.098
14118SOL     OW44185   3.876   0.795   2.828
14118SOL    HW144186   3.881   0.700   2.840
14118SOL    HW244187   3.967   0.823   2.820
14119SOL     OW44188   0.459  11.673   2.688
14119SOL    HW144189   0.455  11.621   2.608
14119SOL    HW244190   0.377  11.724   2.688
14120SOL     OW44191   4.521   5.818   9.487
14120SOL    HW144192   4.461   5.752   9.452
14120SOL    HW244193   4.463   5.888   9.519
14121SOL     OW44194   9.309   7.360  10.337
14121SOL    HW144195   9.279   7.447  10.311
14121SOL    HW244196   9.326   7.367  10.431
14122SOL     OW44197  13.827  14.081   0.206
14122SOL    HW144198  13.787  14.164   0.182
14122SOL    HW244199  13.890  14.064   0.136
14123SOL     OW44200   4.483  10.648   9.249
14123SOL    HW144201   4.459  10.595   9.325
14123SOL    HW244202   4.399  10.672   9.210
14124SOL     OW44203   7.685   6.574   5.160
14124SOL    HW144204   7.779   6.562   5.154
14124SOL    HW244205   7.652   6.492   5.199
14125SOL     OW44206   5.718   3.138   7.969
14125SOL    HW144207   5.794   3.182   7.934
14125SOL    HW244208   5.658   3.127   7.895
14126SOL     OW44209  11.145  14.031   8.358
14126SOL    HW144210  11.102  14.026   8.444
14126SOL    HW244211  11.155  14.125   8.342
14127SOL     OW44212  10.789   8.877  14.644
14127SOL    HW144213  10.735   8.815  14.695
14127SOL    HW244214  10.794   8.955  14.700
14128SOL     OW44215   8.048   8.856  12.569
14128SOL    HW144216   8.020   8.809  12.647
14128SOL    HW244217   8.004   8.941  12.575
14129SOL     OW44218   7.096   2.328   4.462
14129SOL    HW144219   7.189   2.334   4.441
14129SOL    HW244220   7.054   2.313   4.378
14130SOL     OW44221  10.544   2.213  10.935
14130SOL    HW144222  10.480   2.141  10.933
14130SOL    HW244223  10.583   2.208  11.022
14131SOL     OW44224   8.540   2.772   1.632
14131SOL    HW144225   8.507   2.709   1.696
14131SOL    HW244226   8.624   2.736   1.603
14132SOL     OW44227   2.568  14.158   8.977
14132SOL    HW144228   2.606  14.130   8.894
14132SOL    HW244229   2.525  14.241   8.956
14133SOL     OW44230  11.491  14.209   4.221
14133SOL    HW144231  11.452  14.168   4.299
14133SOL    HW244232  11.444  14.291   4.212
14134SOL     OW44233   9.021   8.958   0.874
14134SOL    HW144234   9.016   9.015   0.951
14134SOL    HW244235   9.024   9.019   0.800
14135SOL     OW44236   0.712  12.693   8.871
14135SOL    HW144237   0.689  12.678   8.779
14135SOL    HW244238   0.636  12.739   8.907
14136SOL     OW44239   3.300   6.263   3.393
14136SOL    HW144240   3.256   6.178   3.394
14136SOL    HW244241   3.289   6.297   3.482
14137SOL     OW44242  12.953   9.814  14.651
14137SOL    HW144243  12.915   9.863  14.724
14137SOL    HW244244  12.961   9.878  14.580
14138SOL     OW44245  14.522   8.595   1.557
14138SOL    HW144246  14.485   8.509   1.535
14138SOL    HW244247  14.605   8.574   1.600
14139SOL     OW44248   6.439   6.237   8.401
14139SOL    HW144249   6.365   6.194   8.357
14139SOL    HW244250   6.412   6.244   8.492
14140SOL     OW44251   9.877   2.564   5.052
14140SOL    HW144252   9.869   2.477   5.013
14140SOL    HW244253   9.830   2.558   5.135
14141SOL     OW44254  13.675   5.841   0.591
14141SOL    HW144255  13.690   5.918   0.537
14141SOL    HW244256  13.722   5.771   0.547
14142SOL     OW44257  10.930   5.012  10.001
14142SOL    HW144258  10.843   5.026  10.038
14142SOL    HW244259  10.949   4.920  10.020
14143SOL     OW44260   2.533   7.700   3.777
14143SOL    HW144261   2.530   7.622   3.832
14143SOL    HW244262   2.451   7.745   3.794
14144SOL     OW44263   5.799  12.043   0.494
14144SOL    HW144264   5.834  12.000   0.572
14144SOL    HW244265   5.756  11.972   0.445
14145SOL     OW44266  13.245  12.070   2.755
14145SOL    HW144267  13.278  12.132   2.689
14145SOL    HW244268  13.160  12.106   2.780
14146SOL     OW44269   6.929   4.355   9.753
14146SOL    HW144270   6.882   4.413   9.812
14146SOL    HW244271   6.870   4.342   9.679
14147SOL     OW44272   0.866   7.503  13.426
14147SOL    HW144273   0.803   7.433  13.442
14147SOL    HW244274   0.945   7.475  13.472
14148SOL     OW44275  12.693  12.887   9.234
14148SOL    HW144276  12.775  12.880   9.282
14148SOL    HW244277  12.637  12.819   9.272
14149SOL     OW44278   2.052   3.402   6.414
14149SOL    HW144279   2.096   3.401   6.329
14149SOL    HW244280   1.959   3.404   6.393
14150SOL     OW44281   8.175  13.957   4.809
14150SOL    HW144282   8.183  13.863   4.821
14150SOL    HW244283   8.163  13.992   4.897
14151SOL     OW44284   3.941  14.499  10.084
14151SOL    HW144285   4.035  14.487  10.096
14151SOL    HW244286   3.901  14.431  10.138
14152SOL     OW44287   7.335   2.303   3.957
14152SOL    HW144288   7.298   2.225   3.997
14152SOL    HW244289   7.287   2.314   3.875
14153SOL     OW44290  13.551   9.821   1.411
14153SOL    HW144291  13.522   9.749   1.467
14153SOL    HW244292  13.541   9.789   1.322
14154SOL     OW44293   8.866   7.293   5.449
14154SOL    HW144294   8.866   7.264   5.358
14154SOL    HW244295   8.799   7.240   5.491
14155SOL     OW44296  14.653  13.165   9.253
14155SOL    HW144297  14.640  13.171   9.348
14155SOL    HW244298  14.581  13.111   9.222
14156SOL     OW44299   5.880  13.136   2.683
14156SOL    HW144300   5.789  13.164   2.692
14156SOL    HW244301   5.887  13.060   2.741
14157SOL     OW44302   3.602  12.998  12.350
14157SOL    HW144303   3.653  12.925  12.385
14157SOL    HW244304   3.512  12.978  12.375
14158SOL     OW44305   5.105  10.289   8.425
14158SOL    HW144306   5.128  10.238   8.503
14158SOL    HW244307   5.179  10.348   8.412
14159SOL     OW44308   1.659  13.743   9.817
14159SOL    HW144309   1.619  13.657   9.833
14159SOL    HW244310   1.646  13.792   9.898
14160SOL     OW44311  13.673   0.044  14.004
14160SOL    HW144312  13.658   0.009  13.917
14160SOL    HW244313  13.769   0.047  14.012
14161SOL     OW44314  12.372   4.479   6.266
14161SOL    HW144315  12.383   4.573   6.283
14161SOL    HW244316  12.339   4.475   6.176
14162SOL     OW44317   1.308   1.612  11.706
14162SOL    HW144318   1.355   1.585  11.785
14162SOL    HW244319   1.340   1.553  11.638
14163SOL     OW44320  11.107   0.003  11.955
14163SOL    HW144321  11.014   0.023  11.964
14163SOL    HW244322  11.123  14.808  12.021
14164SOL     OW44323  10.445   8.287   8.399
14164SOL    HW144324  10.452   8.297   8.494
14164SOL    HW244325  10.370   8.229   8.386
14165SOL     OW44326   6.738   3.013   5.383
14165SOL    HW144327   6.714   2.936   5.435
14165SOL    HW244328   6.807   3.056   5.433
14166SOL     OW44329  14.212   3.251   0.237
14166SOL    HW144330  14.274   3.245   0.165
14166SOL    HW244331  14.201   3.345   0.252
14167SOL     OW44332  10.581  10.944  14.442
14167SOL    HW144333  10.631  10.986  14.511
14167SOL    HW244334  10.554  11.016  14.385
14168SOL     OW44335  14.352  10.730   2.208
14168SOL    HW144336  14.327  10.688   2.291
14168SOL    HW244337  14.387  10.815   2.233
14169SOL     OW44338   9.311   5.263  10.026
14169SOL    HW144339   9.352   5.198  10.083
14169SOL    HW244340   9.238   5.217   9.985
14170SOL     OW44341   9.625   5.866   9.822
14170SOL    HW144342   9.614   5.945   9.769
14170SOL    HW244343   9.611   5.794   9.760
14171SOL     OW44344  10.160   7.537   2.079
14171SOL    HW144345  10.226   7.510   2.014
14171SOL    HW244346  10.192   7.620   2.113
14172SOL     OW44347  12.543   1.140   5.953
14172SOL    HW144348  12.567   1.065   5.898
14172SOL    HW244349  12.458   1.168   5.918
14173SOL     OW44350   6.473   1.041  13.589
14173SOL    HW144351   6.390   1.081  13.615
14173SOL    HW244352   6.498   1.089  13.510
14174SOL     OW44353   8.312   6.637   0.122
14174SOL    HW144354   8.262   6.645   0.041
14174SOL    HW244355   8.289   6.715   0.173
14175SOL     OW44356   2.999   3.088   7.597
14175SOL    HW144357   2.997   3.182   7.578
14175SOL    HW244358   2.912   3.069   7.634
14176SOL     OW44359   0.975   7.148   7.133
14176SOL    HW144360   1.065   7.115   7.128
14176SOL    HW244361   0.980   7.225   7.190
14177SOL     OW44362  10.506   5.170   1.008
14177SOL    HW144363  10.561   5.248   0.996
14177SOL    HW244364  10.561   5.097   0.982
14178SOL     OW44365   1.459  13.292  10.332
14178SOL    HW144366   1.432  13.207  10.369
14178SOL    HW244367   1.454  13.353  10.405
14179SOL     OW44368  13.360  12.404   9.737
14179SOL    HW144369  13.382  12.321   9.779
14179SOL    HW244370  13.441  12.433   9.695
14180SOL     OW44371   7.465  10.828  12.630
14180SOL    HW144372   7.523  10.901  12.609
14180SOL    HW244373   7.507  10.752  12.590
14181SOL     OW44374   1.598   3.443   2.602
14181SOL    HW144375   1.588   3.357   2.562
14181SOL    HW244376   1.536   3.443   2.675
14182SOL     OW44377   1.816  11.581  13.790
14182SOL    HW144378   1.902  11.622  13.794
14182SOL    HW244379   1.812  11.543  13.702
14183SOL     OW44380  12.462  10.974   2.454
14183SOL    HW144381  12.383  11.005   2.409
14183SOL    HW244382  12.531  10.981   2.388
14184SOL     OW44383   7.160   9.612   0.665
14184SOL    HW144384   7.251   9.586   0.670
14184SOL    HW244385   7.161   9.707   0.674
14185SOL     OW44386   7.722   5.831  11.322
14185SOL    HW144387   7.804   5.865  11.358
14185SOL    HW244388   7.666   5.818  11.398
14186SOL     OW44389  10.672   4.186   2.166
14186SOL    HW144390  10.732   4.119   2.200
14186SOL    HW244391  10.729   4.256   2.134
14187SOL     OW44392   1.136   4.465   4.053
14187SOL    HW144393   1.123   4.515   4.134
14187SOL    HW244394   1.157   4.532   3.988
14188SOL     OW44395  10.917   0.783   2.541
14188SOL    HW144396  10.921   0.873   2.509
14188SOL    HW244397  10.839   0.745   2.501
14189SOL     OW44398   3.191   5.827  11.789
14189SOL    HW144399   3.185   5.886  11.714
14189SOL    HW244400   3.105   5.832  11.830
14190SOL     OW44401   1.632  13.271   1.647
14190SOL    HW144402   1.611  13.218   1.571
14190SOL    HW244403   1.672  13.210   1.709
14191SOL     OW44404   8.055   8.611  12.042
14191SOL    HW144405   8.113   8.669  12.092
14191SOL    HW244406   7.972   8.615  12.088
14192SOL     OW44407   1.283  12.503   1.038
14192SOL    HW144408   1.376  12.485   1.052
14192SOL    HW244409   1.258  12.445   0.966
14193SOL     OW44410  12.567   1.263  14.026
14193SOL    HW144411  12.521   1.251  14.109
14193SOL    HW244412  12.644   1.315  14.049
14194SOL     OW44413  11.957   7.910   1.953
14194SOL    HW144414  11.910   7.973   2.008
14194SOL    HW244415  12.020   7.963   1.903
14195SOL     OW44416   6.726   7.916   8.601
14195SOL    HW144417   6.730   7.824   8.626
14195SOL    HW244418   6.634   7.931   8.579
14196SOL     OW44419   2.605   4.091   2.186
14196SOL    HW144420   2.580   4.065   2.097
14196SOL    HW244421   2.662   4.167   2.173
14197SOL     OW44422  11.469   0.030   0.906
14197SOL    HW144423  11.523  14.823   0.905
14197SOL    HW244424  11.380  14.870   0.898
14198SOL     OW44425   6.657  13.087  10.800
14198SOL    HW144426   6.604  13.017  10.763
14198SOL    HW244427   6.626  13.166  10.757
14199SOL     OW44428  10.111   3.663   6.176
14199SOL    HW144429  10.127   3.600   6.105
14199SOL    HW244430  10.048   3.619   6.234
14200SOL     OW44431   7.795   6.585   0.782
14200SOL    HW144432   7.747   6.502   0.775
14200SOL    HW244433   7.771   6.633   0.703
14201SOL     OW44434   2.476   7.220   8.946
14201SOL    HW144435   2.516   7.295   8.990
14201SOL    HW244436   2.398   7.201   8.998
14202SOL     OW44437   1.321  14.098  11.147
14202SOL    HW144438   1.412  14.083  11.120
14202SOL    HW244439   1.318  14.066  11.237
14203SOL     OW44440   7.065  13.157  12.152
14203SOL    HW144441   7.050  13.252  12.148
14203SOL    HW244442   7.034  13.124  12.068
14204SOL     OW44443   7.821  12.909   5.579
14204SOL    HW144444   7.756  12.880   5.515
14204SOL    HW244445   7.794  12.867   5.660
14205SOL     OW44446   1.099   9.367   5.742
14205SOL    HW144447   1.046   9.443   5.718
14205SOL    HW244448   1.169   9.404   5.797
14206SOL     OW44449  13.975   1.761   6.098
14206SOL    HW144450  14.019   1.846   6.109
14206SOL    HW244451  14.031   1.714   6.036
14207SOL     OW44452   8.901   1.583   6.996
14207SOL    HW144453   8.885   1.522   7.069
14207SOL    HW244454   8.814   1.611   6.969
14208SOL     OW44455   7.633   7.222  12.341
14208SOL    HW144456   7.623   7.317  12.345
14208SOL    HW244457   7.687   7.200  12.416
14209SOL     OW44458   6.677   5.489   6.320
14209SOL    HW144459   6.649   5.571   6.361
14209SOL    HW244460   6.673   5.506   6.226
14210SOL     OW44461  11.900  12.276  14.552
14210SOL    HW144462  11.813  12.283  14.512
14210SOL    HW244463  11.948  12.352  14.518
14211SOL     OW44464   4.844  11.755  14.045
14211SOL    HW144465   4.890  11.743  14.128
14211SOL    HW244466   4.904  11.719  13.979
14212SOL     OW44467   9.691  10.125   3.733
14212SOL    HW144468   9.722  10.216   3.729
14212SOL    HW244469   9.600  10.132   3.760
14213SOL     OW44470   5.458  13.626   9.223
14213SOL    HW144471   5.484  13.603   9.312
14213SOL    HW244472   5.526  13.686   9.193
14214SOL     OW44473  13.401   1.100   5.445
14214SOL    HW144474  13.429   1.127   5.357
14214SOL    HW244475  13.476   1.052   5.480
14215SOL     OW44476   7.157   2.244  10.007
14215SOL    HW144477   7.181   2.193   9.930
14215SOL    HW244478   7.208   2.205  10.078
14216SOL     OW44479   9.904   1.894  11.176
14216SOL    HW144480   9.905   1.927  11.086
14216SOL    HW244481   9.966   1.950  11.223
14217SOL     OW44482   7.591   0.977   9.208
14217SOL    HW144483   7.516   1.000   9.152
14217SOL    HW244484   7.595   0.881   9.203
14218SOL     OW44485   8.719  14.120  13.791
14218SOL    HW144486   8.667  14.102  13.869
14218SOL    HW244487   8.700  14.047  13.731
14219SOL     OW44488   5.903   3.267  12.972
14219SOL    HW144489   5.936   3.265  12.882
14219SOL    HW244490   5.814   3.300  12.964
14220SOL     OW44491  14.018  11.898   8.155
14220SOL    HW144492  14.027  11.981   8.108
14220SOL    HW244493  14.004  11.923   8.246
14221SOL     OW44494   8.683   2.957   2.093
14221SOL    HW144495   8.636   2.922   2.018
14221SOL    HW244496   8.767   2.986   2.057
14222SOL     OW44497   3.654   4.972  10.583
14222SOL    HW144498   3.584   4.909  10.566
14222SOL    HW244499   3.730   4.938  10.536
14223SOL     OW44500  12.572   2.151   5.755
14223SOL    HW144501  12.562   2.244   5.772
14223SOL    HW244502  12.541   2.108   5.835
14224SOL     OW44503  12.686  11.712   7.341
14224SOL    HW144504  12.781  11.711   7.354
14224SOL    HW244505  12.673  11.666   7.258
14225SOL     OW44506   6.102   5.811  14.374
14225SOL    HW144507   6.025   5.866  14.364
14225SOL    HW244508   6.069   5.721  14.372
14226SOL     OW44509   8.405  14.526   2.141
14226SOL    HW144510   8.450  14.577   2.074
14226SOL    HW244511   8.314  14.555   2.136
14227SOL     OW44512   9.460   3.596   2.797
14227SOL    HW144513   9.497   3.531   2.737
14227SOL    HW244514   9.367   3.599   2.774
14228SOL     OW44515   6.068  13.756   7.148
14228SOL    HW144516   6.037  13.701   7.076
14228SOL    HW244517   6.083  13.696   7.220
14229SOL     OW44518  13.907   5.921  12.935
14229SOL    HW144519  13.914   5.877  12.851
14229SOL    HW244520  13.998   5.938  12.960
14230SOL     OW44521  14.201   6.960   1.389
14230SOL    HW144522  14.128   6.998   1.338
14230SOL    HW244523  14.279   6.987   1.341
14231SOL     OW44524  10.903   7.275   6.291
14231SOL    HW144525  10.808   7.286   6.283
14231SOL    HW244526  10.920   7.190   6.251
14232SOL     OW44527  13.967  11.576  10.901
14232SOL    HW144528  13.904  11.576  10.974
14232SOL    HW244529  14.010  11.661  10.908
14233SOL     OW44530   5.812  13.071   7.086
14233SOL    HW144531   5.868  13.119   7.026
14233SOL    HW244532   5.810  13.126   7.165
14234SOL     OW44533   8.795   8.413   7.553
14234SOL    HW144534   8.728   8.442   7.492
14234SOL    HW244535   8.846   8.349   7.504
14235SOL     OW44536  12.598   6.432  12.710
14235SOL    HW144537  12.517   6.448  12.661
14235SOL    HW244538  12.593   6.340  12.735
14236SOL     OW44539   5.006  13.186   8.586
14236SOL    HW144540   4.961  13.248   8.643
14236SOL    HW244541   5.094  13.179   8.623
14237SOL     OW44542   5.684   7.121  11.020
14237SOL    HW144543   5.679   7.159  10.933
14237SOL    HW244544   5.606   7.154  11.065
14238SOL     OW44545   3.354   6.296  10.772
14238SOL    HW144546   3.398   6.211  10.764
14238SOL    HW244547   3.293   6.299  10.699
14239SOL     OW44548  11.655   5.013   9.509
14239SOL    HW144549  11.573   5.038   9.467
14239SOL    HW244550  11.630   4.955   9.580
14240SOL     OW44551   1.228   4.876   6.745
14240SOL    HW144552   1.176   4.849   6.821
14240SOL    HW244553   1.302   4.816   6.745
14241SOL     OW44554  12.237   8.301   2.633
14241SOL    HW144555  12.218   8.358   2.558
14241SOL    HW244556  12.208   8.351   2.709
14242SOL     OW44557   9.139  12.085   0.207
14242SOL    HW144558   9.132  12.180   0.195
14242SOL    HW244559   9.067  12.063   0.266
14243SOL     OW44560   3.876   1.078   7.687
14243SOL    HW144561   3.851   1.170   7.678
14243SOL    HW244562   3.972   1.079   7.692
14244SOL     OW44563   1.622   5.811   0.636
14244SOL    HW144564   1.643   5.801   0.729
14244SOL    HW244565   1.527   5.803   0.632
14245SOL     OW44566   4.626   0.341   7.191
14245SOL    HW144567   4.671   0.327   7.274
14245SOL    HW244568   4.624   0.254   7.150
14246SOL     OW44569   0.967   8.815  12.681
14246SOL    HW144570   0.916   8.807  12.600
14246SOL    HW244571   0.965   8.908  12.701
14247SOL     OW44572  12.917   6.206   0.787
14247SOL    HW144573  12.838   6.218   0.839
14247SOL    HW244574  12.885   6.186   0.699
14248SOL     OW44575  13.823  10.892   4.254
14248SOL    HW144576  13.794  10.983   4.250
14248SOL    HW244577  13.918  10.896   4.244
14249SOL     OW44578   6.804  12.392   3.298
14249SOL    HW144579   6.831  12.302   3.282
14249SOL    HW244580   6.804  12.433   3.211
14250SOL     OW44581   1.182   6.562   1.743
14250SOL    HW144582   1.275   6.538   1.740
14250SOL    HW244583   1.180   6.654   1.717
14251SOL     OW44584   3.733   3.898   0.555
14251SOL    HW144585   3.642   3.883   0.579
14251SOL    HW244586   3.737   3.875   0.462
14252SOL     OW44587  11.656   8.685  13.945
14252SOL    HW144588  11.593   8.618  13.970
14252SOL    HW244589  11.603   8.763  13.929
14253SOL     OW44590  14.268  14.003  10.705
14253SOL    HW144591  14.182  14.020  10.745
14253SOL    HW244592  14.308  13.937  10.762
14254SOL     OW44593   2.636   0.451   2.787
14254SOL    HW144594   2.713   0.500   2.816
14254SOL    HW244595   2.662   0.359   2.795
14255SOL     OW44596   9.206   5.371   9.673
14255SOL    HW144597   9.276   5.322   9.717
14255SOL    HW244598   9.246   5.455   9.651
14256SOL     OW44599  12.066  11.686  10.634
14256SOL    HW144600  12.016  11.712  10.556
14256SOL    HW244601  12.078  11.768  10.682
14257SOL     OW44602   7.868   1.407   2.775
14257SOL    HW144603   7.920   1.387   2.698
14257SOL    HW244604   7.888   1.498   2.795
14258SOL     OW44605  13.072   2.023  11.625
14258SOL    HW144606  13.084   1.949  11.684
14258SOL    HW244607  13.135   2.088  11.655
14259SOL     OW44608   2.624   5.964   1.358
14259SOL    HW144609   2.669   5.951   1.441
14259SOL    HW244610   2.622   6.059   1.346
14260SOL     OW44611   9.001  12.362   6.242
14260SOL    HW144612   9.035  12.349   6.154
14260SOL    HW244613   9.075  12.396   6.292
14261SOL     OW44614  12.306   1.604   0.820
14261SOL    HW144615  12.317   1.537   0.751
14261SOL    HW244616  12.390   1.650   0.821
14262SOL     OW44617  14.863   0.257   8.953
14262SOL    HW144618  14.774   0.242   8.921
14262SOL    HW244619   0.039   0.177   8.929
14263SOL     OW44620   9.318   2.167   9.428
14263SOL    HW144621   9.385   2.234   9.440
14263SOL    HW244622   9.352   2.111   9.357
14264SOL     OW44623   9.440   3.714   8.058
14264SOL    HW144624   9.350   3.734   8.030
14264SOL    HW244625   9.457   3.626   8.025
14265SOL     OW44626  10.827  13.188  12.741
14265SOL    HW144627  10.894  13.128  12.709
14265SOL    HW244628  10.746  13.137  12.739
14266SOL     OW44629   6.366   8.935   8.331
14266SOL    HW144630   6.401   8.845   8.327
14266SOL    HW244631   6.278   8.928   8.295
14267SOL     OW44632   9.601   5.776   8.606
14267SOL    HW144633   9.599   5.853   8.549
14267SOL    HW244634   9.512   5.769   8.640
14268SOL     OW44635  10.292  11.287   3.076
14268SOL    HW144636  10.303  11.360   3.014
14268SOL    HW244637  10.345  11.311   3.151
14269SOL     OW44638  10.330  13.310   3.929
14269SOL    HW144639  10.412  13.261   3.931
14269SOL    HW244640  10.286  13.288   4.011
14270SOL     OW44641   3.807  11.734   2.447
14270SOL    HW144642   3.873  11.746   2.516
14270SOL    HW244643   3.766  11.650   2.469
14271SOL     OW44644   3.907   5.988  10.181
14271SOL    HW144645   4.001   5.972  10.174
14271SOL    HW244646   3.887   6.047  10.109
14272SOL     OW44647   7.027   5.576   3.891
14272SOL    HW144648   6.944   5.604   3.931
14272SOL    HW244649   7.049   5.495   3.937
14273SOL     OW44650   6.265   8.857   4.375
14273SOL    HW144651   6.240   8.770   4.343
14273SOL    HW244652   6.341   8.881   4.322
14274SOL     OW44653   2.587   0.067  10.496
14274SOL    HW144654   2.513   0.060  10.557
14274SOL    HW244655   2.636   0.142  10.527
14275SOL     OW44656  14.754   3.102   6.918
14275SOL    HW144657  14.677   3.065   6.874
14275SOL    HW244658  14.735   3.196   6.924
14276SOL     OW44659   3.060   9.461   9.798
14276SOL    HW144660   3.070   9.367   9.814
14276SOL    HW244661   2.999   9.467   9.724
14277SOL     OW44662   4.890   0.154   1.863
14277SOL    HW144663   4.977   0.139   1.826
14277SOL    HW244664   4.864   0.068   1.898
14278SOL     OW44665  10.964   5.197   6.318
14278SOL    HW144666  10.901   5.151   6.262
14278SOL    HW244667  10.971   5.284   6.279
14279SOL     OW44668  13.885  11.322   3.685
14279SOL    HW144669  13.813  11.345   3.626
14279SOL    HW244670  13.956  11.297   3.626
14280SOL     OW44671   7.451   3.456  14.488
14280SOL    HW144672   7.424   3.377  14.441
14280SOL    HW244673   7.533   3.433  14.531
14281SOL     OW44674  11.406  14.021   3.159
14281SOL    HW144675  11.441  13.932   3.150
14281SOL    HW244676  11.423  14.044   3.251
14282SOL     OW44677   9.356   9.486  10.070
14282SOL    HW144678   9.432   9.485  10.012
14282SOL    HW244679   9.293   9.543  10.026
14283SOL     OW44680   2.581   4.687  11.211
14283SOL    HW144681   2.525   4.667  11.286
14283SOL    HW244682   2.550   4.772  11.180
14284SOL     OW44683   3.431   3.557  13.525
14284SOL    HW144684   3.352   3.578  13.574
14284SOL    HW244685   3.401   3.549  13.434
14285SOL     OW44686   8.716  13.504   1.518
14285SOL    HW144687   8.772  13.573   1.553
14285SOL    HW244688   8.668  13.545   1.446
14286SOL     OW44689   9.484   4.014   3.551
14286SOL    HW144690   9.561   4.061   3.583
14286SOL    HW244691   9.506   3.989   3.462
14287SOL     OW44692  14.786   3.509   1.221
14287SOL    HW144693  14.798   3.536   1.313
14287SOL    HW244694   0.003   3.499   1.188
14288SOL     OW44695  12.275   9.912  14.408
14288SOL    HW144696  12.337   9.910  14.481
14288SOL    HW244697  12.202   9.965  14.439
14289SOL     OW44698   1.370   0.163   2.604
14289SOL    HW144699   1.384   0.217   2.526
14289SOL    HW244700   1.364   0.226   2.676
14290SOL     OW44701  14.081  13.493   3.597
14290SOL    HW144702  14.112  13.548   3.669
14290SOL    HW244703  14.069  13.407   3.637
14291SOL     OW44704   1.535   6.542   4.092
14291SOL    HW144705   1.600   6.473   4.081
14291SOL    HW244706   1.554   6.604   4.021
14292SOL     OW44707   8.628  12.846  10.146
14292SOL    HW144708   8.705  12.860  10.201
14292SOL    HW244709   8.645  12.764  10.099
14293SOL     OW44710   2.065  10.694  13.432
14293SOL    HW144711   2.028  10.606  13.429
14293SOL    HW244712   2.039  10.734  13.349
14294SOL     OW44713   0.326   6.709  12.284
14294SOL    HW144714   0.319   6.704  12.380
14294SOL    HW244715   0.393   6.644  12.262
14295SOL     OW44716   2.830  12.153   1.978
14295SOL    HW144717   2.764  12.193   1.922
14295SOL    HW244718   2.914  12.183   1.942
14296SOL     OW44719   0.250  12.003   6.638
14296SOL    HW144720   0.169  11.992   6.588
14296SOL    HW244721   0.300  12.068   6.589
14297SOL     OW44722  14.283   1.960   7.828
14297SOL    HW144723  14.223   1.986   7.898
14297SOL    HW244724  14.284   2.035   7.768
14298SOL     OW44725   1.126   4.819  12.232
14298SOL    HW144726   1.169   4.857  12.309
14298SOL    HW244727   1.183   4.746  12.206
14299SOL     OW44728   5.581   7.645  11.661
14299SOL    HW144729   5.581   7.642  11.565
14299SOL    HW244730   5.574   7.553  11.687
14300SOL     OW44731  11.425   6.613  11.184
14300SOL    HW144732  11.354   6.571  11.136
14300SOL    HW244733  11.467   6.542  11.233
14301SOL     OW44734   3.381  10.747   4.446
14301SOL    HW144735   3.290  10.774   4.449
14301SOL    HW244736   3.419  10.798   4.374
14302SOL     OW44737  13.391   9.118   2.235
14302SOL    HW144738  13.438   9.181   2.289
14302SOL    HW244739  13.399   9.152   2.146
14303SOL     OW44740   8.119  10.663  13.424
14303SOL    HW144741   8.133  10.681  13.517
14303SOL    HW244742   8.033  10.621  13.421
14304SOL     OW44743  11.196   8.490   2.691
14304SOL    HW144744  11.152   8.454   2.613
14304SOL    HW244745  11.161   8.579   2.698
14305SOL     OW44746   3.567  13.792  12.992
14305SOL    HW144747   3.544  13.713  13.040
14305SOL    HW244748   3.650  13.770  12.950
14306SOL     OW44749  13.329  14.482  12.506
14306SOL    HW144750  13.413  14.463  12.463
14306SOL    HW244751  13.333  14.576  12.525
14307SOL     OW44752  12.275   5.940   5.445
14307SOL    HW144753  12.305   6.006   5.383
14307SOL    HW244754  12.188   5.915   5.413
14308SOL     OW44755   5.871   1.680   7.399
14308SOL    HW144756   5.916   1.596   7.391
14308SOL    HW244757   5.794   1.661   7.453
14309SOL     OW44758  14.789  10.484  13.960
14309SOL    HW144759  14.803  10.509  14.052
14309SOL    HW244760  14.836  10.401  13.950
14310SOL     OW44761   8.987   0.065   0.309
14310SOL    HW144762   8.941   0.110   0.238
14310SOL    HW244763   8.922   0.061   0.380
14311SOL     OW44764   0.332   3.203   2.406
14311SOL    HW144765   0.381   3.284   2.421
14311SOL    HW244766   0.396   3.144   2.368
14312SOL     OW44767  14.736  10.115  13.827
14312SOL    HW144768  14.763  10.158  13.909
14312SOL    HW244769  14.809  10.057  13.806
14313SOL     OW44770   4.908   5.032  11.116
14313SOL    HW144771   4.934   4.981  11.193
14313SOL    HW244772   4.828   4.989  11.086
14314SOL     OW44773   6.991   3.735   1.129
14314SOL    HW144774   6.912   3.687   1.152
14314SOL    HW244775   7.044   3.735   1.209
14315SOL     OW44776   9.653   0.331  12.537
14315SOL    HW144777   9.581   0.392  12.554
14315SOL    HW244778   9.702   0.371  12.466
14316SOL     OW44779   4.769  13.111  10.922
14316SOL    HW144780   4.826  13.034  10.919
14316SOL    HW244781   4.821  13.177  10.969
14317SOL     OW44782   3.580   9.392  11.268
14317SOL    HW144783   3.519   9.384  11.194
14317SOL    HW244784   3.524   9.406  11.344
14318SOL     OW44785  12.732   4.066   2.292
14318SOL    HW144786  12.655   4.041   2.240
14318SOL    HW244787  12.791   4.106   2.229
14319SOL     OW44788  13.150   0.802  12.651
14319SOL    HW144789  13.184   0.866  12.589
14319SOL    HW244790  13.229   0.767  12.694
14320SOL     OW44791  14.521   2.552   1.553
14320SOL    HW144792  14.472   2.629   1.522
14320SOL    HW244793  14.519   2.492   1.479
14321SOL     OW44794   4.087  12.096   7.695
14321SOL    HW144795   4.094  12.106   7.790
14321SOL    HW244796   4.025  12.165   7.668
14322SOL     OW44797  12.115  11.019   0.010
14322SOL    HW144798  12.067  11.100   0.025
14322SOL    HW244799  12.158  11.031  14.798
14323SOL     OW44800  12.386   9.303  13.610
14323SOL    HW144801  12.386   9.398  13.598
14323SOL    HW244802  12.435   9.269  13.535
14324SOL     OW44803   1.197  11.328   2.588
14324SOL    HW144804   1.171  11.312   2.498
14324SOL    HW244805   1.115  11.337   2.636
14325SOL     OW44806  11.957  11.514  10.314
14325SOL    HW144807  12.052  11.508  10.305
14325SOL    HW244808  11.940  11.607  10.327
14326SOL     OW44809   3.789   7.617  14.602
14326SOL    HW144810   3.736   7.690  14.568
14326SOL    HW244811   3.876   7.655  14.614
14327SOL     OW44812  12.174  12.098   4.377
14327SOL    HW144813  12.095  12.153   4.378
14327SOL    HW244814  12.162  12.038   4.451
14328SOL     OW44815  13.646   6.517  14.796
14328SOL    HW144816  13.630   6.432  14.754
14328SOL    HW244817  13.609   6.581  14.735
14329SOL     OW44818  10.465   4.504   0.848
14329SOL    HW144819  10.504   4.554   0.920
14329SOL    HW244820  10.376   4.539   0.840
14330SOL     OW44821  11.225   3.721   5.194
14330SOL    HW144822  11.138   3.759   5.183
14330SOL    HW244823  11.237   3.664   5.118
14331SOL     OW44824   3.892  10.570  14.307
14331SOL    HW144825   3.963  10.543  14.365
14331SOL    HW244826   3.934  10.628  14.243
14332SOL     OW44827   9.946   4.669   5.453
14332SOL    HW144828   9.911   4.581   5.462
14332SOL    HW244829  10.034   4.664   5.489
14333SOL     OW44830   9.958   7.681  11.234
14333SOL    HW144831   9.962   7.752  11.299
14333SOL    HW244832  10.034   7.626  11.253
14334SOL     OW44833   2.230   4.653   1.453
14334SOL    HW144834   2.148   4.687   1.489
14334SOL    HW244835   2.289   4.728   1.453
14335SOL     OW44836  13.432  10.236  10.086
14335SOL    HW144837  13.468  10.147  10.084
14335SOL    HW244838  13.499  10.289  10.128
14336SOL     OW44839   4.742   0.409   9.083
14336SOL    HW144840   4.828   0.389   9.045
14336SOL    HW244841   4.705   0.475   9.024
14337SOL     OW44842   3.052  10.595   0.913
14337SOL    HW144843   3.032  10.559   0.999
14337SOL    HW244844   2.969  10.633   0.884
14338SOL     OW44845  14.493  13.009   4.613
14338SOL    HW144846  14.416  12.983   4.663
14338SOL    HW244847  14.478  13.102   4.592
14339SOL     OW44848  14.349   5.150   2.839
14339SOL    HW144849  14.291   5.179   2.769
14339SOL    HW244850  14.429   5.121   2.795
14340SOL     OW44851  13.367  12.817  14.213
14340SOL    HW144852  13.426  12.742  14.225
14340SOL    HW244853  13.286  12.778  14.179
14341SOL     OW44854   6.871   7.589   7.630
14341SOL    HW144855   6.799   7.639   7.592
14341SOL    HW244856   6.923   7.655   7.677
14342SOL     OW44857   9.390   7.103   7.244
14342SOL    HW144858   9.385   7.175   7.306
14342SOL    HW244859   9.422   7.029   7.295
14343SOL     OW44860  10.062   4.605   4.142
14343SOL    HW144861  10.109   4.523   4.152
14343SOL    HW244862  10.127   4.667   4.109
14344SOL     OW44863   9.933   9.785   7.007
14344SOL    HW144864   9.968   9.717   7.065
14344SOL    HW244865   9.843   9.758   6.991
14345SOL     OW44866   7.811   2.880   0.657
14345SOL    HW144867   7.840   2.960   0.613
14345SOL    HW244868   7.881   2.860   0.719
14346SOL     OW44869   1.538   8.461   1.634
14346SOL    HW144870   1.566   8.470   1.725
14346SOL    HW244871   1.464   8.401   1.639
14347SOL     OW44872   0.697   3.921   5.914
14347SOL    HW144873   0.691   3.828   5.939
14347SOL    HW244874   0.659   3.968   5.988
14348SOL     OW44875   8.320   0.936  13.651
14348SOL    HW144876   8.249   0.972  13.598
14348SOL    HW244877   8.378   1.011  13.667
14349SOL     OW44878   9.125   0.440   9.246
14349SOL    HW144879   9.119   0.413   9.155
14349SOL    HW244880   9.041   0.414   9.284
14350SOL     OW44881  13.367   7.743   4.279
14350SOL    HW144882  13.434   7.739   4.347
14350SOL    HW244883  13.284   7.734   4.326
14351SOL     OW44884   7.506   0.904   4.408
14351SOL    HW144885   7.542   0.981   4.362
14351SOL    HW244886   7.455   0.859   4.341
14352SOL     OW44887   4.910   9.272  11.979
14352SOL    HW144888   4.912   9.366  11.961
14352SOL    HW244889   4.839   9.238  11.925
14353SOL     OW44890   0.692  12.615  10.388
14353SOL    HW144891   0.643  12.558  10.329
14353SOL    HW244892   0.625  12.663  10.436
14354SOL     OW44893   8.102   5.482  12.452
14354SOL    HW144894   8.142   5.569  12.440
14354SOL    HW244895   8.074   5.481  12.543
14355SOL     OW44896   2.313  13.110  12.911
14355SOL    HW144897   2.366  13.049  12.860
14355SOL    HW244898   2.234  13.060  12.934
14356SOL     OW44899  11.777  14.824   3.025
14356SOL    HW144900  11.842  14.819   2.955
14356SOL    HW244901  11.736  14.738   3.027
14357SOL     OW44902   0.330   4.889   8.257
14357SOL    HW144903   0.367   4.846   8.334
14357SOL    HW244904   0.238   4.900   8.278
14358SOL     OW44905   8.033  14.258   9.600
14358SOL    HW144906   8.091  14.221   9.666
14358SOL    HW244907   8.019  14.349   9.627
14359SOL     OW44908   2.427   7.275   0.258
14359SOL    HW144909   2.357   7.221   0.294
14359SOL    HW244910   2.473   7.218   0.197
14360SOL     OW44911   8.361   0.474   6.637
14360SOL    HW144912   8.386   0.447   6.549
14360SOL    HW244913   8.313   0.398   6.672
14361SOL     OW44914  12.564   7.198   5.319
14361SOL    HW144915  12.510   7.126   5.287
14361SOL    HW244916  12.544   7.203   5.413
14362SOL     OW44917   3.210   2.972   0.508
14362SOL    HW144918   3.129   2.953   0.555
14362SOL    HW244919   3.249   2.886   0.493
14363SOL     OW44920   8.744   4.881  11.780
14363SOL    HW144921   8.811   4.813  11.775
14363SOL    HW244922   8.791   4.959  11.810
14364SOL     OW44923   3.608  10.932  13.039
14364SOL    HW144924   3.515  10.956  13.032
14364SOL    HW244925   3.614  10.846  12.998
14365SOL     OW44926  12.166   3.969   9.811
14365SOL    HW144927  12.203   3.996   9.727
14365SOL    HW244928  12.219   3.895   9.838
14366SOL     OW44929  11.800   5.427   4.261
14366SOL    HW144930  11.809   5.397   4.352
14366SOL    HW244931  11.733   5.370   4.223
14367SOL     OW44932  14.410   2.230   3.265
14367SOL    HW144933  14.446   2.171   3.331
14367SOL    HW244934  14.367   2.172   3.202
14368SOL     OW44935   3.682   7.806   0.571
14368SOL    HW144936   3.658   7.714   0.572
14368SOL    HW244937   3.755   7.812   0.633
14369SOL     OW44938   0.045   2.135   7.545
14369SOL    HW144939   0.078   2.090   7.623
14369SOL    HW244940  14.853   2.075   7.507
14370SOL     OW44941  10.493   5.200   3.103
14370SOL    HW144942  10.570   5.230   3.055
14370SOL    HW244943  10.427   5.267   3.088
14371SOL     OW44944  14.221   9.614   8.492
14371SOL    HW144945  14.208   9.615   8.587
14371SOL    HW244946  14.242   9.705   8.471
14372SOL     OW44947  12.957   7.822  11.613
14372SOL    HW144948  12.961   7.805  11.707
14372SOL    HW244949  12.868   7.797  11.588
14373SOL     OW44950  10.053  11.247  14.577
14373SOL    HW144951  10.109  11.313  14.536
14373SOL    HW244952  10.111  11.201  14.637
14374SOL     OW44953   2.312   7.933   5.727
14374SOL    HW144954   2.347   8.019   5.708
14374SOL    HW244955   2.226   7.932   5.686
14375SOL     OW44956   9.717  12.133   4.390
14375SOL    HW144957   9.723  12.225   4.364
14375SOL    HW244958   9.624  12.112   4.382
14376SOL     OW44959   5.566   2.710   0.757
14376SOL    HW144960   5.626   2.637   0.743
14376SOL    HW244961   5.494   2.673   0.808
14377SOL     OW44962   4.113   0.897   2.901
14377SOL    HW144963   4.142   0.834   2.967
14377SOL    HW244964   4.177   0.890   2.831
14378SOL     OW44965   1.670   0.093   7.650
14378SOL    HW144966   1.723   0.120   7.725
14378SOL    HW244967   1.611   0.166   7.634
14379SOL     OW44968  10.596   2.633  11.698
14379SOL    HW144969  10.650   2.638  11.619
14379SOL    HW244970  10.552   2.718  11.702
14380SOL     OW44971   4.972   1.989  13.963
14380SOL    HW144972   4.981   1.988  14.058
14380SOL    HW244973   5.058   1.962  13.930
14381SOL     OW44974   6.844   1.407   8.680
14381SOL    HW144975   6.834   1.388   8.774
14381SOL    HW244976   6.769   1.365   8.639
14382SOL     OW44977  12.165  13.406   2.351
14382SOL    HW144978  12.132  13.335   2.406
14382SOL    HW244979  12.129  13.388   2.264
14383SOL     OW44980  11.643   1.535   1.985
14383SOL    HW144981  11.623   1.476   2.058
14383SOL    HW244982  11.687   1.479   1.921
14384SOL     OW44983   6.033   8.053   4.169
14384SOL    HW144984   6.076   8.134   4.195
14384SOL    HW244985   5.973   8.078   4.100
14385SOL     OW44986   2.332   2.464   9.985
14385SOL    HW144987   2.255   2.474  10.041
14385SOL    HW244988   2.406   2.470  10.045
14386SOL     OW44989   1.742   4.280   3.413
14386SOL    HW144990   1.837   4.281   3.414
14386SOL    HW244991   1.717   4.346   3.348
14387SOL     OW44992  13.882   0.982  14.130
14387SOL    HW144993  13.926   1.013  14.051
14387SOL    HW244994  13.953   0.966  14.192
14388SOL     OW44995  14.048  10.957   2.929
14388SOL    HW144996  14.137  10.955   2.964
14388SOL    HW244997  14.008  10.876   2.961
14389SOL     OW44998  13.138   1.346  10.979
14389SOL    HW144999  13.229   1.316  10.984
14389SOL    HW245000  13.100   1.325  11.064
14390SOL     OW45001   9.411   0.945  10.090
14390SOL    HW145002   9.433   0.889  10.016
14390SOL    HW245003   9.341   0.898  10.136
14391SOL     OW45004   8.617   9.176  11.342
14391SOL    HW145005   8.540   9.120  11.340
14391SOL    HW245006   8.637   9.193  11.250
14392SOL     OW45007  11.511   7.635   9.149
14392SOL    HW145008  11.464   7.688   9.085
14392SOL    HW245009  11.498   7.545   9.119
14393SOL     OW45010   2.074  13.214   4.565
14393SOL    HW145011   2.088  13.249   4.653
14393SOL    HW245012   1.985  13.241   4.543
14394SOL     OW45013   8.480   8.088  12.417
14394SOL    HW145014   8.552   8.030  12.440
14394SOL    HW245015   8.521   8.175  12.410
14395SOL     OW45016   0.881  12.231   9.657
14395SOL    HW145017   0.880  12.139   9.682
14395SOL    HW245018   0.974  12.251   9.643
14396SOL     OW45019   8.144   8.273  12.307
14396SOL    HW145020   8.110   8.338  12.370
14396SOL    HW245021   8.066   8.240  12.262
14397SOL     OW45022   2.917   3.894  12.416
14397SOL    HW145023   2.907   3.863  12.326
14397SOL    HW245024   3.011   3.887  12.434
14398SOL     OW45025   1.621  11.747  14.462
14398SOL    HW145026   1.587  11.695  14.534
14398SOL    HW245027   1.606  11.838  14.488
14399SOL     OW45028  14.856  12.200  14.095
14399SOL    HW145029   0.061  12.191  14.040
14399SOL    HW245030  14.791  12.144  14.054
14400SOL     OW45031   6.700  14.137   8.611
14400SOL    HW145032   6.639  14.207   8.635
14400SOL    HW245033   6.683  14.122   8.518
14401SOL     OW45034   5.033  14.635  11.895
14401SOL    HW145035   5.032  14.586  11.813
14401SOL    HW245036   5.079  14.716  11.874
14402SOL     OW45037  11.206  12.578   5.468
14402SOL    HW145038  11.239  12.502   5.419
14402SOL    HW245039  11.212  12.552   5.560
14403SOL     OW45040  12.857  12.867  12.535
14403SOL    HW145041  12.903  12.950  12.526
14403SOL    HW245042  12.790  12.868  12.466
14404SOL     OW45043  12.518   8.879   4.773
14404SOL    HW145044  12.465   8.862   4.851
14404SOL    HW245045  12.608   8.881   4.805
14405SOL     OW45046   0.895  12.795  10.279
14405SOL    HW145047   0.815  12.788  10.329
14405SOL    HW245048   0.896  12.716  10.224
14406SOL     OW45049   9.633  13.430   8.307
14406SOL    HW145050   9.654  13.358   8.367
14406SOL    HW245051   9.537  13.428   8.300
14407SOL     OW45052  14.129   1.158  10.664
14407SOL    HW145053  14.101   1.224  10.600
14407SOL    HW245054  14.225   1.166  10.665
14408SOL     OW45055  13.647  11.244   2.989
14408SOL    HW145056  13.632  11.205   2.903
14408SOL    HW245057  13.570  11.219   3.040
14409SOL     OW45058   0.808  13.015   7.502
14409SOL    HW145059   0.756  13.003   7.422
14409SOL    HW245060   0.865  13.089   7.483
14410SOL     OW45061   3.706   6.592   6.191
14410SOL    HW145062   3.772   6.538   6.147
14410SOL    HW245063   3.726   6.682   6.164
14411SOL     OW45064   4.373  11.323   4.812
14411SOL    HW145065   4.396  11.270   4.735
14411SOL    HW245066   4.320  11.265   4.866
14412SOL     OW45067   7.595   1.960   5.966
14412SOL    HW145068   7.577   1.953   6.060
14412SOL    HW245069   7.670   1.902   5.951
14413SOL     OW45070   8.641   0.547   3.084
14413SOL    HW145071   8.608   0.458   3.090
14413SOL    HW245072   8.735   0.537   3.069
14414SOL     OW45073   3.143   6.470   5.379
14414SOL    HW145074   3.175   6.513   5.299
14414SOL    HW245075   3.048   6.482   5.376
14415SOL     OW45076   8.788   1.577  12.796
14415SOL    HW145077   8.711   1.573  12.739
14415SOL    HW245078   8.851   1.517  12.756
14416SOL     OW45079  13.820   1.042   1.832
14416SOL    HW145080  13.762   1.039   1.756
14416SOL    HW245081  13.763   1.027   1.907
14417SOL     OW45082   9.294   6.781   7.787
14417SOL    HW145083   9.323   6.788   7.878
14417SOL    HW245084   9.206   6.743   7.793
14418SOL     OW45085   7.131  12.156   6.442
14418SOL    HW145086   7.215  12.189   6.412
14418SOL    HW245087   7.152  12.104   6.520
14419SOL     OW45088  12.519  13.980   6.158
14419SOL    HW145089  12.550  14.062   6.198
14419SOL    HW245090  12.510  14.001   6.065
14420SOL     OW45091   4.498   9.125   8.714
14420SOL    HW145092   4.496   9.077   8.631
14420SOL    HW245093   4.588   9.118   8.744
14421SOL     OW45094   3.377   5.933  10.099
14421SOL    HW145095   3.330   5.855  10.072
14421SOL    HW245096   3.466   5.902  10.118
14422SOL     OW45097   6.453  12.894  11.792
14422SOL    HW145098   6.411  12.974  11.762
14422SOL    HW245099   6.538  12.894  11.748
14423SOL     OW45100   6.944  10.794  12.331
14423SOL    HW145101   6.877  10.727  12.341
14423SOL    HW245102   6.897  10.877  12.341
14424SOL     OW45103   8.365   2.967   3.525
14424SOL    HW145104   8.288   3.012   3.493
14424SOL    HW245105   8.439   3.018   3.493
14425SOL     OW45106   0.299  10.502  12.589
14425SOL    HW145107   0.274  10.466  12.504
14425SOL    HW245108   0.395  10.500  12.589
14426SOL     OW45109   7.620  11.976   0.191
14426SOL    HW145110   7.714  11.992   0.181
14426SOL    HW245111   7.579  12.058   0.162
14427SOL     OW45112  10.242   2.320  14.630
14427SOL    HW145113  10.320   2.328  14.574
14427SOL    HW245114  10.254   2.237  14.676
14428SOL     OW45115  10.851   4.686   9.690
14428SOL    HW145116  10.928   4.716   9.642
14428SOL    HW245117  10.798   4.764   9.701
14429SOL     OW45118   3.489   5.382   4.437
14429SOL    HW145119   3.519   5.294   4.412
14429SOL    HW245120   3.394   5.373   4.448
14430SOL     OW45121   7.101   9.578   4.007
14430SOL    HW145122   7.085   9.630   3.928
14430SOL    HW245123   7.135   9.495   3.975
14431SOL     OW45124  13.352   1.821   7.503
14431SOL    HW145125  13.260   1.809   7.480
14431SOL    HW245126  13.376   1.742   7.551
14432SOL     OW45127   7.961   0.323   8.272
14432SOL    HW145128   7.977   0.236   8.309
14432SOL    HW245129   7.893   0.361   8.327
14433SOL     OW45130   9.508   0.034   3.716
14433SOL    HW145131   9.572   0.075   3.658
14433SOL    HW245132   9.554  14.831   3.754
14434SOL     OW45133   6.932   9.027   8.054
14434SOL    HW145134   7.027   9.027   8.042
14434SOL    HW245135   6.916   8.963   8.123
14435SOL     OW45136   9.079   0.456  12.527
14435SOL    HW145137   8.986   0.470  12.543
14435SOL    HW245138   9.103   0.522  12.462
14436SOL     OW45139   9.118  11.112   7.570
14436SOL    HW145140   9.149  11.031   7.609
14436SOL    HW245141   9.184  11.134   7.504
14437SOL     OW45142   5.277   2.574   7.478
14437SOL    HW145143   5.193   2.537   7.451
14437SOL    HW245144   5.263   2.669   7.475
14438SOL     OW45145  11.584  11.027   4.608
14438SOL    HW145146  11.531  10.993   4.680
14438SOL    HW245147  11.531  11.098   4.571
14439SOL     OW45148   2.215   3.052   5.437
14439SOL    HW145149   2.167   2.970   5.433
14439SOL    HW245150   2.190   3.091   5.521
14440SOL     OW45151   1.913   5.609   6.517
14440SOL    HW145152   1.946   5.525   6.487
14440SOL    HW245153   1.821   5.592   6.541
14441SOL     OW45154   6.305  13.291   0.514
14441SOL    HW145155   6.212  13.274   0.495
14441SOL    HW245156   6.304  13.368   0.571
14442SOL     OW45157  11.505   9.231   1.291
14442SOL    HW145158  11.414   9.258   1.308
14442SOL    HW245159  11.534   9.289   1.221
14443SOL     OW45160   4.701   4.714  13.327
14443SOL    HW145161   4.721   4.665  13.407
14443SOL    HW245162   4.728   4.804  13.346
14444SOL     OW45163  10.810   6.052  14.868
14444SOL    HW145164  10.889   6.038   0.049
14444SOL    HW245165  10.738   6.049   0.060
14445SOL     OW45166   1.823  12.089   8.389
14445SOL    HW145167   1.899  12.097   8.331
14445SOL    HW245168   1.748  12.086   8.329
14446SOL     OW45169   1.015   7.915   6.357
14446SOL    HW145170   1.089   7.879   6.406
14446SOL    HW245171   0.942   7.912   6.418
14447SOL     OW45172  10.263   9.238  14.857
14447SOL    HW145173  10.247   9.325   0.020
14447SOL    HW245174  10.358   9.230  14.857
14448SOL     OW45175  11.642  11.990  14.679
14448SOL    HW145176  11.548  12.005  14.692
14448SOL    HW245177  11.653  11.996  14.584
14449SOL     OW45178   3.993   9.737   5.230
14449SOL    HW145179   3.967   9.804   5.293
14449SOL    HW245180   4.018   9.787   5.152
14450SOL     OW45181  10.256  11.011  14.315
14450SOL    HW145182  10.237  10.989  14.406
14450SOL    HW245183  10.334  11.066  14.319
14451SOL     OW45184  14.750   9.166  13.534
14451SOL    HW145185  14.810   9.207  13.597
14451SOL    HW245186  14.748   9.227  13.460
14452SOL     OW45187   2.652   9.772  11.770
14452SOL    HW145188   2.656   9.849  11.827
14452SOL    HW245189   2.691   9.801  11.688
14453SOL     OW45190   9.063  14.627  10.240
14453SOL    HW145191   9.064  14.669  10.153
14453SOL    HW245192   9.145  14.655  10.280
14454SOL     OW45193   4.917   7.281  11.661
14454SOL    HW145194   4.828   7.301  11.634
14454SOL    HW245195   4.961   7.255  11.580
14455SOL     OW45196  13.753  14.512   3.432
14455SOL    HW145197  13.699  14.484   3.506
14455SOL    HW245198  13.830  14.455   3.437
14456SOL     OW45199   1.252   5.728   7.153
14456SOL    HW145200   1.235   5.757   7.242
14456SOL    HW245201   1.345   5.744   7.140
14457SOL     OW45202  11.087   0.600   7.630
14457SOL    HW145203  11.097   0.623   7.538
14457SOL    HW245204  11.033   0.521   7.630
14458SOL     OW45205   0.717   4.026   8.541
14458SOL    HW145206   0.764   4.047   8.622
14458SOL    HW245207   0.740   4.098   8.482
14459SOL     OW45208   5.898   2.491   2.334
14459SOL    HW145209   5.841   2.558   2.371
14459SOL    HW245210   5.968   2.481   2.398
14460SOL     OW45211  10.870   3.745  10.513
14460SOL    HW145212  10.833   3.665  10.476
14460SOL    HW245213  10.963   3.726  10.522
14461SOL     OW45214   5.321  11.203   2.278
14461SOL    HW145215   5.372  11.177   2.355
14461SOL    HW245216   5.303  11.296   2.292
14462SOL     OW45217   0.521   6.306   7.113
14462SOL    HW145218   0.453   6.253   7.155
14462SOL    HW245219   0.472   6.369   7.059
14463SOL     OW45220  14.749   1.380   0.326
14463SOL    HW145221  14.714   1.369   0.414
14463SOL    HW245222  14.740   1.294   0.286
14464SOL     OW45223  11.567   1.584   8.328
14464SOL    HW145224  11.492   1.547   8.282
14464SOL    HW245225  11.532   1.658   8.378
14465SOL     OW45226  14.413   7.826   2.177
14465SOL    HW145227  14.445   7.798   2.091
14465SOL    HW245228  14.374   7.912   2.161
14466SOL     OW45229   3.446   4.414  12.197
14466SOL    HW145230   3.371   4.464  12.229
14466SOL    HW245231   3.437   4.416  12.102
14467SOL     OW45232  13.416   0.831  13.939
14467SOL    HW145233  13.476   0.771  13.984
14467SOL    HW245234  13.334   0.825  13.988
14468SOL     OW45235   6.742   6.364   9.703
14468SOL    HW145236   6.773   6.454   9.706
14468SOL    HW245237   6.702   6.354   9.617
14469SOL     OW45238  13.899  12.022   5.484
14469SOL    HW145239  13.838  11.996   5.553
14469SOL    HW245240  13.964  12.076   5.529
14470SOL     OW45241  10.007   4.225   2.562
14470SOL    HW145242   9.982   4.316   2.578
14470SOL    HW245243   9.924   4.177   2.566
14471SOL     OW45244  11.736   0.663   5.711
14471SOL    HW145245  11.655   0.666   5.659
14471SOL    HW245246  11.750   0.753   5.738
14472SOL     OW45247   8.209  12.105  10.080
14472SOL    HW145248   8.191  12.011  10.072
14472SOL    HW245249   8.273  12.111  10.150
14473SOL     OW45250   7.680   0.481   3.525
14473SOL    HW145251   7.639   0.514   3.445
14473SOL    HW245252   7.722   0.399   3.499
14474SOL     OW45253   2.457  11.783  12.093
14474SOL    HW145254   2.379  11.818  12.050
14474SOL    HW245255   2.527  11.844  12.072
14475SOL     OW45256  10.212   7.171   5.973
14475SOL    HW145257  10.289   7.171   6.030
14475SOL    HW245258  10.202   7.262   5.946
14476SOL     OW45259   2.580  10.792   7.517
14476SOL    HW145260   2.617  10.818   7.432
14476SOL    HW245261   2.576  10.697   7.514
14477SOL     OW45262   0.559   2.368   3.967
14477SOL    HW145263   0.632   2.311   3.943
14477SOL    HW245264   0.595   2.457   3.963
14478SOL     OW45265  12.006   9.433   5.862
14478SOL    HW145266  12.079   9.481   5.901
14478SOL    HW245267  12.002   9.351   5.911
14479SOL     OW45268  13.942   0.594   2.906
14479SOL    HW145269  13.904   0.576   2.992
14479SOL    HW245270  14.011   0.529   2.895
14480SOL     OW45271  11.019  11.454  14.456
14480SOL    HW145272  11.094  11.396  14.450
14480SOL    HW245273  11.053  11.534  14.497
14481SOL     OW45274   8.945  14.798  11.107
14481SOL    HW145275   9.034  14.833  11.107
14481SOL    HW245276   8.891  14.868  11.073
14482SOL     OW45277  14.116   4.779   4.658
14482SOL    HW145278  14.146   4.734   4.579
14482SOL    HW245279  14.076   4.711   4.711
14483SOL     OW45280  13.669  10.548   6.708
14483SOL    HW145281  13.643  10.512   6.793
14483SOL    HW245282  13.757  10.584   6.724
14484SOL     OW45283   9.943  11.731  10.029
14484SOL    HW145284  10.012  11.668  10.049
14484SOL    HW245285   9.991  11.812  10.007
14485SOL     OW45286   2.164   1.034   0.484
14485SOL    HW145287   2.176   1.012   0.576
14485SOL    HW245288   2.116   0.960   0.447
14486SOL     OW45289   2.731   6.703  10.896
14486SOL    HW145290   2.727   6.609  10.915
14486SOL    HW245291   2.816   6.715  10.854
14487SOL     OW45292   3.049  14.542   1.313
14487SOL    HW145293   3.044  14.548   1.217
14487SOL    HW245294   2.975  14.594   1.343
14488SOL     OW45295   4.244   6.824  10.003
14488SOL    HW145296   4.330   6.783  10.003
14488SOL    HW245297   4.185   6.758   9.966
14489SOL     OW45298   0.356  12.424   1.249
14489SOL    HW145299   0.301  12.492   1.210
14489SOL    HW245300   0.309  12.342   1.231
14490SOL     OW45301   9.809   5.723  12.007
14490SOL    HW145302   9.718   5.738  11.979
14490SOL    HW245303   9.853   5.690  11.929
14491SOL     OW45304   4.625  13.863   1.161
14491SOL    HW145305   4.634  13.905   1.247
14491SOL    HW245306   4.714  13.833   1.140
14492SOL     OW45307   9.009  11.047  13.993
14492SOL    HW145308   8.934  11.104  14.006
14492SOL    HW245309   8.972  10.961  13.976
14493SOL     OW45310   4.759   6.031   8.026
14493SOL    HW145311   4.764   6.115   8.072
14493SOL    HW245312   4.767   5.965   8.095
14494SOL     OW45313   8.156  11.804  13.327
14494SOL    HW145314   8.091  11.747  13.287
14494SOL    HW245315   8.140  11.796  13.421
14495SOL     OW45316   4.006   5.077  12.823
14495SOL    HW145317   4.022   5.111  12.735
14495SOL    HW245318   4.081   5.020  12.841
14496SOL     OW45319   3.836   4.283   8.499
14496SOL    HW145320   3.783   4.363   8.492
14496SOL    HW245321   3.777   4.214   8.470
14497SOL     OW45322   7.749  13.418  12.388
14497SOL    HW145323   7.798  13.497  12.411
14497SOL    HW245324   7.658  13.438  12.412
14498SOL     OW45325   6.072   3.852   1.744
14498SOL    HW145326   6.079   3.869   1.838
14498SOL    HW245327   6.016   3.922   1.711
14499SOL     OW45328   5.251  13.484   2.965
14499SOL    HW145329   5.176  13.510   3.017
14499SOL    HW245330   5.298  13.420   3.019
14500SOL     OW45331   4.625   7.111   6.877
14500SOL    HW145332   4.693   7.067   6.825
14500SOL    HW245333   4.672   7.142   6.954
14501SOL     OW45334   5.334   3.593  13.696
14501SOL    HW145335   5.331   3.559  13.607
14501SOL    HW245336   5.386   3.529  13.745
14502SOL     OW45337   1.719   7.891   9.218
14502SOL    HW145338   1.685   7.940   9.293
14502SOL    HW245339   1.641   7.871   9.165
14503SOL     OW45340   5.663   2.889   9.383
14503SOL    HW145341   5.740   2.945   9.374
14503SOL    HW245342   5.651   2.880   9.478
14504SOL     OW45343   5.532   8.736  12.186
14504SOL    HW145344   5.592   8.779  12.248
14504SOL    HW245345   5.577   8.743  12.101
14505SOL     OW45346  11.391   8.864  10.098
14505SOL    HW145347  11.369   8.786  10.149
14505SOL    HW245348  11.366   8.937  10.153
14506SOL     OW45349   6.617  12.269   7.951
14506SOL    HW145350   6.542  12.327   7.959
14506SOL    HW245351   6.632  12.262   7.857
14507SOL     OW45352   8.319   9.222  13.161
14507SOL    HW145353   8.271   9.200  13.081
14507SOL    HW245354   8.411   9.220  13.134
14508SOL     OW45355  11.530  11.575   5.344
14508SOL    HW145356  11.521  11.584   5.438
14508SOL    HW245357  11.462  11.631   5.307
14509SOL     OW45358  14.461   5.308   0.325
14509SOL    HW145359  14.527   5.311   0.256
14509SOL    HW245360  14.382   5.277   0.283
14510SOL     OW45361  10.404  12.290   4.016
14510SOL    HW145362  10.446  12.317   3.934
14510SOL    HW245363  10.476  12.254   4.069
14511SOL     OW45364   6.600   8.584  11.384
14511SOL    HW145365   6.647   8.622  11.459
14511SOL    HW245366   6.518   8.633  11.380
14512SOL     OW45367   0.400   9.913  10.777
14512SOL    HW145368   0.318   9.929  10.729
14512SOL    HW245369   0.396   9.820  10.800
14513SOL     OW45370   6.856  12.367  11.250
14513SOL    HW145371   6.874  12.385  11.342
14513SOL    HW245372   6.765  12.393  11.237
14514SOL     OW45373   4.351   4.164  13.514
14514SOL    HW145374   4.288   4.124  13.574
14514SOL    HW245375   4.298   4.195  13.440
14515SOL     OW45376   1.056   7.842   7.677
14515SOL    HW145377   1.138   7.859   7.722
14515SOL    HW245378   1.030   7.755   7.705
14516SOL     OW45379   8.671   2.294   4.285
14516SOL    HW145380   8.687   2.200   4.300
14516SOL    HW245381   8.724   2.338   4.352
14517SOL     OW45382   4.712   8.629   1.050
14517SOL    HW145383   4.672   8.704   1.093
14517SOL    HW245384   4.642   8.564   1.046
14518SOL     OW45385   3.638  10.146   6.897
14518SOL    HW145386   3.629  10.104   6.983
14518SOL    HW245387   3.730  10.136   6.875
14519SOL     OW45388  14.042  11.428   1.948
14519SOL    HW145389  14.044  11.335   1.969
14519SOL    HW245390  14.089  11.470   2.020
14520SOL     OW45391   1.752   4.780   7.463
14520SOL    HW145392   1.765   4.867   7.499
14520SOL    HW245393   1.836   4.736   7.475
14521SOL     OW45394  11.546   9.074   6.335
14521SOL    HW145395  11.550   9.082   6.239
14521SOL    HW245396  11.488   8.999   6.350
14522SOL     OW45397   8.532   4.915  10.244
14522SOL    HW145398   8.449   4.953  10.273
14522SOL    HW245399   8.557   4.968  10.168
14523SOL     OW45400   7.079  13.022  13.057
14523SOL    HW145401   7.138  12.963  13.011
14523SOL    HW245402   7.136  13.094  13.085
14524SOL     OW45403  12.717   5.490   2.055
14524SOL    HW145404  12.803   5.484   2.097
14524SOL    HW245405  12.705   5.406   2.012
14525SOL     OW45406   8.435   2.025  10.816
14525SOL    HW145407   8.524   2.019  10.781
14525SOL    HW245408   8.446   2.018  10.911
14526SOL     OW45409  14.837   5.636   5.573
14526SOL    HW145410   0.002   5.575   5.637
14526SOL    HW245411  14.757   5.593   5.543
14527SOL     OW45412  13.738   7.071  12.263
14527SOL    HW145413  13.724   7.067  12.169
14527SOL    HW245414  13.833   7.084  12.273
14528SOL     OW45415   1.033   0.804   9.912
14528SOL    HW145416   0.978   0.787   9.988
14528SOL    HW245417   0.994   0.881   9.871
14529SOL     OW45418  13.323   0.863   0.579
14529SOL    HW145419  13.342   0.846   0.487
14529SOL    HW245420  13.401   0.834   0.625
14530SOL     OW45421   4.966   5.313  10.172
14530SOL    HW145422   4.962   5.247  10.240
14530SOL    HW245423   5.059   5.319  10.150
14531SOL     OW45424   0.091  11.998  13.732
14531SOL    HW145425   0.137  11.918  13.757
14531SOL    HW245426   0.150  12.069  13.758
14532SOL     OW45427   3.074  13.691   0.903
14532SOL    HW145428   3.032  13.653   0.826
14532SOL    HW245429   3.105  13.777   0.874
14533SOL     OW45430   4.711  13.477   6.905
14533SOL    HW145431   4.668  13.471   6.820
14533SOL    HW245432   4.719  13.387   6.935
14534SOL     OW45433  14.139  13.687   9.330
14534SOL    HW145434  14.179  13.608   9.365
14534SOL    HW245435  14.100  13.730   9.406
14535SOL     OW45436   6.898  12.825   2.875
14535SOL    HW145437   6.974  12.855   2.924
14535SOL    HW245438   6.843  12.781   2.940
14536SOL     OW45439  11.317  13.500   3.930
14536SOL    HW145440  11.288  13.409   3.926
14536SOL    HW245441  11.351  13.510   4.019
14537SOL     OW45442   6.341   8.690  10.906
14537SOL    HW145443   6.387   8.691  10.822
14537SOL    HW245444   6.280   8.617  10.899
14538SOL     OW45445   8.070  12.306   4.169
14538SOL    HW145446   8.134  12.241   4.200
14538SOL    HW245447   8.040  12.272   4.085
14539SOL     OW45448  12.203   8.354  13.245
14539SOL    HW145449  12.217   8.284  13.181
14539SOL    HW245450  12.133   8.407  13.208
14540SOL     OW45451   1.519   2.877   4.106
14540SOL    HW145452   1.560   2.960   4.129
14540SOL    HW245453   1.536   2.820   4.182
14541SOL     OW45454   9.262   3.247  13.145
14541SOL    HW145455   9.330   3.209  13.090
14541SOL    HW245456   9.305   3.318  13.192
14542SOL     OW45457   0.107   9.006   1.490
14542SOL    HW145458   0.101   8.919   1.529
14542SOL    HW245459   0.062   8.998   1.406
14543SOL     OW45460  12.488   3.722   1.482
14543SOL    HW145461  12.457   3.698   1.569
14543SOL    HW245462  12.556   3.657   1.462
14544SOL     OW45463   3.091   3.902   4.154
14544SOL    HW145464   3.079   3.900   4.249
14544SOL    HW245465   3.184   3.921   4.142
14545SOL     OW45466   2.812   1.937   9.997
14545SOL    HW145467   2.814   1.972   9.908
14545SOL    HW245468   2.723   1.905  10.008
14546SOL     OW45469  12.949   0.659   7.404
14546SOL    HW145470  12.986   0.703   7.328
14546SOL    HW245471  13.021   0.608   7.440
14547SOL     OW45472   5.891   2.392  12.710
14547SOL    HW145473   5.916   2.471  12.663
14547SOL    HW245474   5.842   2.340  12.645
14548SOL     OW45475   4.318  13.990   6.256
14548SOL    HW145476   4.261  14.067   6.260
14548SOL    HW245477   4.271  13.922   6.304
14549SOL     OW45478   9.645   3.163   9.143
14549SOL    HW145479   9.605   3.247   9.117
14549SOL    HW245480   9.578   3.098   9.125
14550SOL     OW45481   6.011  14.864   3.983
14550SOL    HW145482   5.976  14.852   4.072
14550SOL    HW245483   6.093  14.815   3.982
14551SOL     OW45484   1.646   7.239   0.076
14551SOL    HW145485   1.683   7.164   0.029
14551SOL    HW245486   1.614   7.202   0.158
14552SOL     OW45487   5.687   4.390   6.899
14552SOL    HW145488   5.778   4.385   6.870
14552SOL    HW245489   5.652   4.302   6.883
14553SOL     OW45490   9.384   2.660  14.667
14553SOL    HW145491   9.447   2.727  14.693
14553SOL    HW245492   9.409   2.583  14.718
14554SOL     OW45493   2.954  12.877   1.597
14554SOL    HW145494   2.987  12.820   1.528
14554SOL    HW245495   2.919  12.953   1.551
14555SOL     OW45496  14.059   1.164   4.133
14555SOL    HW145497  14.062   1.197   4.043
14555SOL    HW245498  14.003   1.226   4.180
14556SOL     OW45499   8.448  13.816   6.000
14556SOL    HW145500   8.363  13.773   6.005
14556SOL    HW245501   8.440  13.877   5.926
14557SOL     OW45502   6.003   3.017   3.232
14557SOL    HW145503   6.041   2.996   3.317
14557SOL    HW245504   6.074   3.005   3.169
14558SOL     OW45505   5.271  11.119   8.110
14558SOL    HW145506   5.233  11.203   8.136
14558SOL    HW245507   5.325  11.093   8.185
14559SOL     OW45508   6.574   8.752   8.314
14559SOL    HW145509   6.541   8.714   8.233
14559SOL    HW245510   6.590   8.677   8.371
14560SOL     OW45511   8.803   2.587   5.658
14560SOL    HW145512   8.742   2.564   5.728
14560SOL    HW245513   8.748   2.601   5.582
14561SOL     OW45514   6.718   9.475   8.816
14561SOL    HW145515   6.633   9.513   8.840
14561SOL    HW245516   6.697   9.385   8.791
14562SOL     OW45517  13.338   8.320  10.084
14562SOL    HW145518  13.270   8.387  10.085
14562SOL    HW245519  13.307   8.253  10.146
14563SOL     OW45520   5.051   4.097   8.952
14563SOL    HW145521   5.144   4.114   8.938
14563SOL    HW245522   5.015   4.083   8.865
14564SOL     OW45523  10.135   6.219   4.117
14564SOL    HW145524  10.204   6.271   4.075
14564SOL    HW245525  10.179   6.138   4.143
14565SOL     OW45526   7.187   1.457   7.088
14565SOL    HW145527   7.126   1.466   7.015
14565SOL    HW245528   7.151   1.513   7.157
14566SOL     OW45529  11.474   8.612   5.265
14566SOL    HW145530  11.402   8.662   5.303
14566SOL    HW245531  11.448   8.521   5.275
14567SOL     OW45532   2.027  11.322  14.715
14567SOL    HW145533   1.961  11.294  14.652
14567SOL    HW245534   2.025  11.418  14.711
14568SOL     OW45535   1.731  10.871   4.697
14568SOL    HW145536   1.744  10.913   4.782
14568SOL    HW245537   1.653  10.817   4.709
14569SOL     OW45538  14.393   2.364  11.497
14569SOL    HW145539  14.433   2.292  11.449
14569SOL    HW245540  14.358   2.324  11.576
14570SOL     OW45541   9.008  13.662   5.378
14570SOL    HW145542   9.041  13.728   5.438
14570SOL    HW245543   8.913  13.660   5.394
14571SOL     OW45544   3.307   5.356   4.120
14571SOL    HW145545   3.282   5.313   4.202
14571SOL    HW245546   3.226   5.356   4.068
14572SOL     OW45547   4.559   7.395   2.596
14572SOL    HW145548   4.486   7.396   2.658
14572SOL    HW245549   4.522   7.357   2.516
14573SOL     OW45550   8.377  12.968   7.583
14573SOL    HW145551   8.305  13.009   7.630
14573SOL    HW245552   8.416  13.038   7.531
14574SOL     OW45553  10.272  12.536  11.954
14574SOL    HW145554  10.277  12.485  11.873
14574SOL    HW245555  10.182  12.568  11.958
14575SOL     OW45556   2.338  13.957   4.319
14575SOL    HW145557   2.367  13.874   4.357
14575SOL    HW245558   2.297  14.004   4.392
14576SOL     OW45559   5.902   9.768  13.513
14576SOL    HW145560   5.855   9.843  13.477
14576SOL    HW245561   5.867   9.757  13.601
14577SOL     OW45562  13.471   0.926   3.758
14577SOL    HW145563  13.447   1.001   3.812
14577SOL    HW245564  13.559   0.947   3.727
14578SOL     OW45565   6.699   3.916   1.909
14578SOL    HW145566   6.782   3.880   1.878
14578SOL    HW245567   6.693   3.887   2.000
14579SOL     OW45568   1.445   7.746  12.099
14579SOL    HW145569   1.501   7.779  12.029
14579SOL    HW245570   1.359   7.786  12.083
14580SOL     OW45571  13.010  11.636   7.099
14580SOL    HW145572  12.965  11.703   7.150
14580SOL    HW245573  12.990  11.554   7.145
14581SOL     OW45574   3.305   6.363  12.244
14581SOL    HW145575   3.387   6.412  12.249
14581SOL    HW245576   3.245   6.411  12.302
14582SOL     OW45577   3.677   7.537   4.145
14582SOL    HW145578   3.585   7.538   4.118
14582SOL    HW245579   3.726   7.529   4.063
14583SOL     OW45580   3.588   2.874  12.786
14583SOL    HW145581   3.586   2.784  12.754
14583SOL    HW245582   3.577   2.928  12.707
14584SOL     OW45583   4.515   1.441  12.837
14584SOL    HW145584   4.610   1.433  12.822
14584SOL    HW245585   4.478   1.365  12.792
14585SOL     OW45586   8.400   8.945   7.753
14585SOL    HW145587   8.331   8.997   7.711
14585SOL    HW245588   8.410   8.984   7.840
14586SOL     OW45589   6.264   2.415   0.004
14586SOL    HW145590   6.244   2.471  14.802
14586SOL    HW245591   6.241   2.327  14.848
14587SOL     OW45592   6.532   6.971  12.276
14587SOL    HW145593   6.611   6.931  12.312
14587SOL    HW245594   6.490   7.013  12.351
14588SOL     OW45595  13.493   5.606   0.087
14588SOL    HW145596  13.426   5.606   0.155
14588SOL    HW245597  13.444   5.596   0.005
14589SOL     OW45598   7.838   6.448   4.093
14589SOL    HW145599   7.793   6.363   4.089
14589SOL    HW245600   7.868   6.456   4.183
14590SOL     OW45601   8.127  14.765   9.545
14590SOL    HW145602   8.125  14.716   9.463
14590SOL    HW245603   8.059  14.832   9.535
14591SOL     OW45604   2.508   8.750   0.638
14591SOL    HW145605   2.602   8.739   0.654
14591SOL    HW245606   2.482   8.670   0.591
14592SOL     OW45607   7.574   4.870   6.206
14592SOL    HW145608   7.661   4.848   6.239
14592SOL    HW245609   7.589   4.946   6.150
14593SOL     OW45610   6.844   6.565   2.422
14593SOL    HW145611   6.813   6.653   2.444
14593SOL    HW245612   6.768   6.509   2.439
14594SOL     OW45613   3.533   4.106  11.714
14594SOL    HW145614   3.448   4.148  11.731
14594SOL    HW245615   3.511   4.031  11.657
14595SOL     OW45616   4.433   5.208   3.803
14595SOL    HW145617   4.429   5.288   3.856
14595SOL    HW245618   4.366   5.220   3.736
14596SOL     OW45619  11.242   6.851   9.081
14596SOL    HW145620  11.239   6.867   8.987
14596SOL    HW245621  11.189   6.773   9.094
14597SOL     OW45622   0.872   1.416   8.399
14597SOL    HW145623   0.868   1.507   8.428
14597SOL    HW245624   0.869   1.421   8.303
14598SOL     OW45625  10.521   4.281  12.230
14598SOL    HW145626  10.504   4.258  12.139
14598SOL    HW245627  10.608   4.321  12.229
14599SOL     OW45628   2.423  10.899   0.968
14599SOL    HW145629   2.468  10.983   0.961
14599SOL    HW245630   2.369  10.907   1.046
14600SOL     OW45631   4.862  12.903   1.921
14600SOL    HW145632   4.820  12.873   2.002
14600SOL    HW245633   4.808  12.865   1.851
14601SOL     OW45634  10.439   0.687   2.365
14601SOL    HW145635  10.353   0.729   2.359
14601SOL    HW245636  10.470   0.683   2.274
14602SOL     OW45637   0.261   0.229   5.557
14602SOL    HW145638   0.305   0.312   5.535
14602SOL    HW245639   0.180   0.231   5.508
14603SOL     OW45640   6.374   0.943   3.561
14603SOL    HW145641   6.405   0.878   3.497
14603SOL    HW245642   6.395   0.904   3.646
14604SOL     OW45643   7.532  10.863   1.917
14604SOL    HW145644   7.598  10.794   1.925
14604SOL    HW245645   7.456  10.829   1.965
14605SOL     OW45646   4.500   5.250   5.155
14605SOL    HW145647   4.468   5.160   5.145
14605SOL    HW245648   4.491   5.288   5.068
14606SOL     OW45649   8.473  12.188  13.771
14606SOL    HW145650   8.437  12.129  13.705
14606SOL    HW245651   8.434  12.158  13.853
14607SOL     OW45652   1.110  13.187   4.676
14607SOL    HW145653   1.154  13.238   4.744
14607SOL    HW245654   1.075  13.111   4.722
14608SOL     OW45655   8.694   5.727  10.279
14608SOL    HW145656   8.623   5.703  10.338
14608SOL    HW245657   8.761   5.660  10.294
14609SOL     OW45658   9.974   3.475  13.670
14609SOL    HW145659   9.904   3.509  13.614
14609SOL    HW245660  10.009   3.400  13.622
14610SOL     OW45661   4.900   5.062  11.724
14610SOL    HW145662   4.864   5.118  11.793
14610SOL    HW245663   4.871   4.974  11.747
14611SOL     OW45664   8.328   3.131   3.248
14611SOL    HW145665   8.286   3.163   3.328
14611SOL    HW245666   8.421   3.124   3.271
14612SOL     OW45667   6.226  14.080   5.036
14612SOL    HW145668   6.166  14.154   5.024
14612SOL    HW245669   6.168  14.005   5.053
14613SOL     OW45670  13.784   5.774   3.906
14613SOL    HW145671  13.862   5.721   3.924
14613SOL    HW245672  13.795   5.852   3.961
14614SOL     OW45673   3.871   9.240   9.536
14614SOL    HW145674   3.941   9.175   9.543
14614SOL    HW245675   3.917   9.324   9.529
14615SOL     OW45676   6.259   3.165   8.873
14615SOL    HW145677   6.172   3.129   8.854
14615SOL    HW245678   6.262   3.171   8.969
14616SOL     OW45679  11.220   7.056   5.753
14616SOL    HW145680  11.302   7.051   5.803
14616SOL    HW245681  11.242   7.108   5.676
14617SOL     OW45682  14.661  11.344   2.322
14617SOL    HW145683  14.644  11.349   2.416
14617SOL    HW245684  14.629  11.257   2.297
14618SOL     OW45685   6.620  14.751   3.984
14618SOL    HW145686   6.544  14.770   4.040
14618SOL    HW245687   6.645  14.836   3.949
14619SOL     OW45688  13.280   2.936   0.975
14619SOL    HW145689  13.341   2.884   0.923
14619SOL    HW245690  13.292   2.905   1.065
14620SOL     OW45691   2.705   1.584  13.659
14620SOL    HW145692   2.768   1.655  13.648
14620SOL    HW245693   2.648   1.590  13.583
14621SOL     OW45694   3.534   9.854   8.279
14621SOL    HW145695   3.460   9.794   8.274
14621SOL    HW245696   3.534   9.899   8.195
14622SOL     OW45697   6.676  10.944  10.653
14622SOL    HW145698   6.619  11.019  10.665
14622SOL    HW245699   6.732  10.943  10.731
14623SOL     OW45700   7.426   5.316   0.404
14623SOL    HW145701   7.435   5.401   0.363
14623SOL    HW245702   7.360   5.329   0.473
14624SOL     OW45703  11.301   2.668  10.060
14624SOL    HW145704  11.210   2.697  10.067
14624SOL    HW245705  11.302   2.582  10.102
14625SOL     OW45706   2.283  13.264   7.392
14625SOL    HW145707   2.240  13.338   7.436
14625SOL    HW245708   2.225  13.189   7.409
14626SOL     OW45709  12.595  10.079  10.962
14626SOL    HW145710  12.500  10.082  10.950
14626SOL    HW245711  12.628  10.151  10.909
14627SOL     OW45712  12.565   1.495   2.483
14627SOL    HW145713  12.577   1.407   2.447
14627SOL    HW245714  12.629   1.549   2.437
14628SOL     OW45715   1.005   5.048   6.534
14628SOL    HW145716   0.975   5.055   6.625
14628SOL    HW245717   1.061   4.970   6.533
14629SOL     OW45718   9.003   7.503   1.864
14629SOL    HW145719   8.917   7.476   1.832
14629SOL    HW245720   8.991   7.512   1.959
14630SOL     OW45721   5.048   6.886   3.289
14630SOL    HW145722   5.044   6.940   3.210
14630SOL    HW245723   4.970   6.831   3.285
14631SOL     OW45724   0.107   9.356  11.881
14631SOL    HW145725   0.192   9.385  11.848
14631SOL    HW245726   0.124   9.271  11.922
14632SOL     OW45727  12.009   8.897   2.973
14632SOL    HW145728  12.008   8.972   2.915
14632SOL    HW245729  12.000   8.821   2.915
14633SOL     OW45730   1.639   7.099   5.295
14633SOL    HW145731   1.662   7.157   5.367
14633SOL    HW245732   1.566   7.047   5.328
14634SOL     OW45733  11.204   0.013   9.499
14634SOL    HW145734  11.264  14.848   9.435
14634SOL    HW245735  11.171   0.093   9.458
14635SOL     OW45736   8.650  10.670   3.374
14635SOL    HW145737   8.597  10.592   3.358
14635SOL    HW245738   8.725  10.660   3.314
14636SOL     OW45739  14.352   7.794  14.674
14636SOL    HW145740  14.398   7.796  14.757
14636SOL    HW245741  14.271   7.747  14.692
14637SOL     OW45742   3.993   2.575   7.527
14637SOL    HW145743   3.954   2.622   7.601
14637SOL    HW245744   3.919   2.532   7.484
14638SOL     OW45745  12.711   9.757   4.087
14638SOL    HW145746  12.685   9.827   4.027
14638SOL    HW245747  12.807   9.755   4.081
14639SOL     OW45748   3.612  12.609   5.293
14639SOL    HW145749   3.566  12.693   5.297
14639SOL    HW245750   3.684  12.624   5.232
14640SOL     OW45751   6.277   5.253   7.612
14640SOL    HW145752   6.203   5.201   7.582
14640SOL    HW245753   6.288   5.320   7.544
14641SOL     OW45754   1.967   7.988   1.281
14641SOL    HW145755   1.995   7.912   1.230
14641SOL    HW245756   1.930   8.049   1.218
14642SOL     OW45757   3.360  11.852   8.126
14642SOL    HW145758   3.300  11.800   8.179
14642SOL    HW245759   3.407  11.787   8.073
14643SOL     OW45760  11.163   2.717   0.928
14643SOL    HW145761  11.160   2.756   1.015
14643SOL    HW245762  11.126   2.783   0.870
14644SOL     OW45763   7.619   7.095   3.305
14644SOL    HW145764   7.574   7.152   3.243
14644SOL    HW245765   7.572   7.011   3.298
14645SOL     OW45766   2.331  11.986  11.780
14645SOL    HW145767   2.370  12.061  11.824
14645SOL    HW245768   2.294  11.933  11.851
14646SOL     OW45769  12.198  10.908   1.804
14646SOL    HW145770  12.111  10.939   1.776
14646SOL    HW245771  12.181  10.822   1.842
14647SOL     OW45772   7.974   0.211   6.223
14647SOL    HW145773   8.068   0.196   6.235
14647SOL    HW245774   7.950   0.156   6.149
14648SOL     OW45775   9.545  14.175   5.985
14648SOL    HW145776   9.621  14.154   5.930
14648SOL    HW245777   9.522  14.091   6.025
14649SOL     OW45778   3.586  13.967   0.022
14649SOL    HW145779   3.601  14.047   0.072
14649SOL    HW245780   3.582  13.898   0.088
14650SOL     OW45781   6.458  12.176   4.386
14650SOL    HW145782   6.455  12.207   4.296
14650SOL    HW245783   6.405  12.239   4.435
14651SOL     OW45784   4.383   9.897   9.434
14651SOL    HW145785   4.455   9.845   9.396
14651SOL    HW245786   4.396   9.891   9.528
14652SOL     OW45787   1.047  11.281   8.551
14652SOL    HW145788   1.092  11.341   8.610
14652SOL    HW245789   1.088  11.196   8.568
14653SOL     OW45790   3.920   7.925  14.712
14653SOL    HW145791   3.970   7.944  14.791
14653SOL    HW245792   3.829   7.922  14.741
14654SOL     OW45793   0.798   8.249   4.842
14654SOL    HW145794   0.748   8.171   4.868
14654SOL    HW245795   0.746   8.323   4.872
14655SOL     OW45796   4.081   6.445   3.030
14655SOL    HW145797   4.164   6.425   3.074
14655SOL    HW245798   4.035   6.501   3.092
14656SOL     OW45799  11.243   4.903  14.222
14656SOL    HW145800  11.317   4.963  14.224
14656SOL    HW245801  11.254   4.846  14.299
14657SOL     OW45802  14.206  12.579  10.199
14657SOL    HW145803  14.220  12.601  10.107
14657SOL    HW245804  14.286  12.533  10.225
14658SOL     OW45805  12.236   3.926  10.737
14658SOL    HW145806  12.311   3.900  10.685
14658SOL    HW245807  12.271   3.987  10.802
14659SOL     OW45808   1.752  11.781  13.431
14659SOL    HW145809   1.686  11.744  13.373
14659SOL    HW245810   1.711  11.859  13.468
14660SOL     OW45811  12.225  11.334   4.557
14660SOL    HW145812  12.306  11.323   4.506
14660SOL    HW245813  12.177  11.253   4.542
14661SOL     OW45814   2.378   0.147  13.543
14661SOL    HW145815   2.414   0.083  13.605
14661SOL    HW245816   2.299   0.105  13.510
14662SOL     OW45817   3.409  10.307  10.659
14662SOL    HW145818   3.379  10.318  10.569
14662SOL    HW245819   3.333  10.327  10.713
14663SOL     OW45820   1.341   2.068   9.012
14663SOL    HW145821   1.297   2.119   8.944
14663SOL    HW245822   1.298   1.983   9.009
14664SOL     OW45823   1.071  14.483   7.822
14664SOL    HW145824   1.151  14.437   7.795
14664SOL    HW245825   1.003  14.448   7.764
14665SOL     OW45826   0.656  12.738   1.305
14665SOL    HW145827   0.746  12.748   1.275
14665SOL    HW245828   0.651  12.791   1.385
14666SOL     OW45829  13.459   8.149  14.406
14666SOL    HW145830  13.499   8.215  14.463
14666SOL    HW245831  13.430   8.080  14.465
14667SOL     OW45832   3.473   4.848   7.733
14667SOL    HW145833   3.392   4.799   7.748
14667SOL    HW245834   3.523   4.838   7.814
14668SOL     OW45835   5.151   7.201   7.148
14668SOL    HW145836   5.155   7.293   7.172
14668SOL    HW245837   5.242   7.172   7.145
14669SOL     OW45838   5.195  12.108   6.274
14669SOL    HW145839   5.110  12.072   6.248
14669SOL    HW245840   5.180  12.144   6.361
14670SOL     OW45841   7.844   9.289   4.142
14670SOL    HW145842   7.874   9.211   4.188
14670SOL    HW245843   7.815   9.257   4.056
14671SOL     OW45844   1.302   1.041   2.113
14671SOL    HW145845   1.255   1.046   2.196
14671SOL    HW245846   1.308   0.948   2.094
14672SOL     OW45847  10.407  12.791  13.459
14672SOL    HW145848  10.498  12.774  13.434
14672SOL    HW245849  10.364  12.706  13.454
14673SOL     OW45850  13.471  11.088   1.597
14673SOL    HW145851  13.392  11.141   1.586
14673SOL    HW245852  13.469  11.060   1.689
14674SOL     OW45853   4.847   3.004   7.833
14674SOL    HW145854   4.859   2.920   7.788
14674SOL    HW245855   4.817   3.063   7.764
14675SOL     OW45856   1.248   1.957  14.415
14675SOL    HW145857   1.234   2.018  14.342
14675SOL    HW245858   1.312   2.002  14.471
14676SOL     OW45859   6.419   1.836   7.916
14676SOL    HW145860   6.365   1.913   7.932
14676SOL    HW245861   6.391   1.804   7.831
14677SOL     OW45862   3.895   2.570   7.987
14677SOL    HW145863   3.816   2.517   7.984
14677SOL    HW245864   3.959   2.517   8.035
14678SOL     OW45865  12.249  14.536   5.647
14678SOL    HW145866  12.228  14.448   5.678
14678SOL    HW245867  12.271  14.585   5.727
14679SOL     OW45868   5.258  11.199   6.202
14679SOL    HW145869   5.313  11.163   6.272
14679SOL    HW245870   5.320  11.229   6.136
14680SOL     OW45871   8.684   7.797   3.976
14680SOL    HW145872   8.711   7.718   3.929
14680SOL    HW245873   8.767   7.839   4.000
14681SOL     OW45874  11.615   3.045  13.189
14681SOL    HW145875  11.638   2.952  13.181
14681SOL    HW245876  11.547   3.047  13.256
14682SOL     OW45877   1.162   4.180   0.176
14682SOL    HW145878   1.171   4.085   0.163
14682SOL    HW245879   1.241   4.217   0.135
14683SOL     OW45880   2.746   1.446   6.219
14683SOL    HW145881   2.841   1.434   6.212
14683SOL    HW245882   2.711   1.406   6.139
14684SOL     OW45883   3.350  14.592   3.788
14684SOL    HW145884   3.332  14.647   3.712
14684SOL    HW245885   3.300  14.632   3.859
14685SOL     OW45886   1.987   8.440   3.121
14685SOL    HW145887   1.961   8.511   3.178
14685SOL    HW245888   2.074   8.415   3.150
14686SOL     OW45889   8.802   5.644  13.983
14686SOL    HW145890   8.783   5.624  14.075
14686SOL    HW245891   8.722   5.618  13.937
14687SOL     OW45892   4.479   7.410   2.014
14687SOL    HW145893   4.474   7.500   1.984
14687SOL    HW245894   4.502   7.416   2.107
14688SOL     OW45895  10.895  12.459   4.488
14688SOL    HW145896  10.911  12.406   4.566
14688SOL    HW245897  10.882  12.394   4.418
14689SOL     OW45898   5.364   5.195  11.181
14689SOL    HW145899   5.314   5.113  11.184
14689SOL    HW245900   5.343   5.233  11.095
14690SOL     OW45901   1.232   3.824   8.608
14690SOL    HW145902   1.320   3.794   8.586
14690SOL    HW245903   1.179   3.745   8.609
14691SOL     OW45904  13.953   2.787  10.694
14691SOL    HW145905  13.863   2.781  10.661
14691SOL    HW245906  13.954   2.867  10.746
14692SOL     OW45907  13.424   5.798   4.062
14692SOL    HW145908  13.336   5.762   4.057
14692SOL    HW245909  13.477   5.729   4.102
14693SOL     OW45910   7.391   9.453   6.681
14693SOL    HW145911   7.322   9.499   6.729
14693SOL    HW245912   7.367   9.361   6.686
14694SOL     OW45913   4.796   9.643   7.106
14694SOL    HW145914   4.734   9.571   7.105
14694SOL    HW245915   4.752   9.713   7.154
14695SOL     OW45916  11.334   3.385  11.119
14695SOL    HW145917  11.369   3.303  11.082
14695SOL    HW245918  11.391   3.404  11.193
14696SOL     OW45919   5.637  10.301   8.804
14696SOL    HW145920   5.623  10.287   8.710
14696SOL    HW245921   5.636  10.213   8.841
14697SOL     OW45922   0.937  10.470  10.100
14697SOL    HW145923   0.904  10.465  10.190
14697SOL    HW245924   0.921  10.561  10.075
14698SOL     OW45925  10.235   1.777   1.634
14698SOL    HW145926  10.159   1.767   1.578
14698SOL    HW245927  10.309   1.781   1.573
14699SOL     OW45928  12.808  10.714  12.640
14699SOL    HW145929  12.836  10.766  12.715
14699SOL    HW245930  12.714  10.731  12.632
14700SOL     OW45931  10.064   4.897   2.619
14700SOL    HW145932  10.147   4.923   2.579
14700SOL    HW245933  10.087   4.828   2.681
14701SOL     OW45934  13.128   7.586   5.770
14701SOL    HW145935  13.037   7.562   5.753
14701SOL    HW245936  13.157   7.630   5.690
14702SOL     OW45937  10.004  13.063   3.810
14702SOL    HW145938  10.006  13.150   3.849
14702SOL    HW245939  10.095  13.046   3.784
14703SOL     OW45940   3.024   7.037  14.132
14703SOL    HW145941   3.040   6.945  14.153
14703SOL    HW245942   2.955   7.036  14.066
14704SOL     OW45943   3.351   5.697   3.225
14704SOL    HW145944   3.350   5.615   3.176
14704SOL    HW245945   3.296   5.757   3.175
14705SOL     OW45946   8.027   8.345   0.381
14705SOL    HW145947   8.039   8.267   0.435
14705SOL    HW245948   8.111   8.357   0.338
14706SOL     OW45949  11.810   4.674  10.225
14706SOL    HW145950  11.723   4.653  10.260
14706SOL    HW245951  11.842   4.746  10.280
14707SOL     OW45952   9.684  10.827   5.597
14707SOL    HW145953   9.766  10.797   5.636
14707SOL    HW245954   9.707  10.847   5.506
14708SOL     OW45955   7.358   4.149   6.499
14708SOL    HW145956   7.336   4.059   6.475
14708SOL    HW245957   7.398   4.142   6.586
14709SOL     OW45958   8.835   0.365   4.522
14709SOL    HW145959   8.826   0.461   4.528
14709SOL    HW245960   8.745   0.333   4.533
14710SOL     OW45961   7.030   7.902   4.491
14710SOL    HW145962   7.071   7.964   4.430
14710SOL    HW245963   7.071   7.922   4.576
14711SOL     OW45964   4.859   7.600  10.109
14711SOL    HW145965   4.826   7.511  10.113
14711SOL    HW245966   4.780   7.655  10.109
14712SOL     OW45967   9.329   4.794   8.901
14712SOL    HW145968   9.331   4.819   8.993
14712SOL    HW245969   9.361   4.703   8.900
14713SOL     OW45970   5.636   2.989  12.710
14713SOL    HW145971   5.664   3.077  12.685
14713SOL    HW245972   5.663   2.934  12.636
14714SOL     OW45973  11.657   8.589  14.355
14714SOL    HW145974  11.706   8.618  14.432
14714SOL    HW245975  11.723   8.584  14.285
14715SOL     OW45976   6.465   8.833   1.421
14715SOL    HW145977   6.543   8.828   1.476
14715SOL    HW245978   6.400   8.777   1.465
14716SOL     OW45979   2.158   6.104   5.905
14716SOL    HW145980   2.217   6.052   5.958
14716SOL    HW245981   2.070   6.072   5.928
14717SOL     OW45982   7.881  11.885  12.263
14717SOL    HW145983   7.900  11.822  12.332
14717SOL    HW245984   7.891  11.836  12.182
14718SOL     OW45985   1.171   2.154  12.948
14718SOL    HW145986   1.150   2.155  12.855
14718SOL    HW245987   1.145   2.067  12.978
14719SOL     OW45988   0.351   6.548  13.923
14719SOL    HW145989   0.386   6.482  13.983
14719SOL    HW245990   0.305   6.610  13.979
14720SOL     OW45991   8.498  14.342   2.287
14720SOL    HW145992   8.496  14.425   2.239
14720SOL    HW245993   8.591  14.322   2.296
14721SOL     OW45994  10.725   6.462  14.422
14721SOL    HW145995  10.747   6.424  14.507
14721SOL    HW245996  10.632   6.482  14.427
14722SOL     OW45997   6.739   8.874  10.578
14722SOL    HW145998   6.655   8.916  10.558
14722SOL    HW245999   6.775   8.926  10.651
14723SOL     OW46000   2.303   0.782  10.516
14723SOL    HW146001   2.282   0.773  10.609
14723SOL    HW246002   2.398   0.790  10.514
14724SOL     OW46003   2.658   3.808  13.915
14724SOL    HW146004   2.736   3.764  13.881
14724SOL    HW246005   2.656   3.786  14.008
14725SOL     OW46006   0.567   2.088   9.769
14725SOL    HW146007   0.503   2.158   9.781
14725SOL    HW246008   0.567   2.073   9.674
14726SOL     OW46009   2.841   0.770  14.465
14726SOL    HW146010   2.859   0.724  14.547
14726SOL    HW246011   2.855   0.704  14.397
14727SOL     OW46012  10.365  11.814   6.605
14727SOL    HW146013  10.375  11.882   6.539
14727SOL    HW246014  10.447  11.765   6.602
14728SOL     OW46015  12.277  12.262   3.405
14728SOL    HW146016  12.197  12.277   3.354
14728SOL    HW246017  12.307  12.349   3.430
14729SOL     OW46018   1.151   0.417   0.193
14729SOL    HW146019   1.189   0.459   0.115
14729SOL    HW246020   1.158   0.323   0.174
14730SOL     OW46021   4.374  11.957   5.010
14730SOL    HW146022   4.334  11.933   5.093
14730SOL    HW246023   4.395  12.050   5.019
14731SOL     OW46024   9.956   8.958   1.083
14731SOL    HW146025   9.891   8.912   1.137
14731SOL    HW246026  10.013   8.888   1.050
14732SOL     OW46027  14.232   0.236  12.187
14732SOL    HW146028  14.138   0.246  12.203
14732SOL    HW246029  14.272   0.316  12.220
14733SOL     OW46030  12.865   2.436   3.854
14733SOL    HW146031  12.919   2.502   3.810
14733SOL    HW246032  12.864   2.464   3.946
14734SOL     OW46033   7.363   6.279   0.375
14734SOL    HW146034   7.417   6.332   0.434
14734SOL    HW246035   7.397   6.191   0.384
14735SOL     OW46036   6.121  14.636   4.701
14735SOL    HW146037   6.111  14.595   4.615
14735SOL    HW246038   6.199  14.691   4.692
14736SOL     OW46039   6.874   1.521  12.245
14736SOL    HW146040   6.941   1.499  12.180
14736SOL    HW246041   6.846   1.609  12.220
14737SOL     OW46042   7.662  12.972   3.080
14737SOL    HW146043   7.712  12.910   3.133
14737SOL    HW246044   7.725  13.009   3.019
14738SOL     OW46045   0.407  14.425   7.537
14738SOL    HW146046   0.469  14.352   7.530
14738SOL    HW246047   0.322  14.383   7.549
14739SOL     OW46048   1.416  12.141   6.940
14739SOL    HW146049   1.380  12.129   6.852
14739SOL    HW246050   1.375  12.222   6.971
14740SOL     OW46051   9.639   6.169   7.408
14740SOL    HW146052   9.666   6.249   7.363
14740SOL    HW246053   9.694   6.101   7.370
14741SOL     OW46054  10.136  10.542  10.494
14741SOL    HW146055  10.111  10.635  10.493
14741SOL    HW246056  10.190  10.532  10.572
14742SOL     OW46057   6.274   4.602   2.198
14742SOL    HW146058   6.285   4.560   2.283
14742SOL    HW246059   6.196   4.561   2.161
14743SOL     OW46060  14.358   7.393   2.896
14743SOL    HW146061  14.448   7.387   2.926
14743SOL    HW246062  14.347   7.483   2.867
14744SOL     OW46063   4.148  11.047   8.478
14744SOL    HW146064   4.146  11.015   8.568
14744SOL    HW246065   4.065  11.094   8.467
14745SOL     OW46066   9.012  12.416   9.843
14745SOL    HW146067   9.074  12.410   9.916
14745SOL    HW246068   8.926  12.401   9.883
14746SOL     OW46069  12.140  13.223  10.978
14746SOL    HW146070  12.186  13.293  10.932
14746SOL    HW246071  12.049  13.251  10.978
14747SOL     OW46072   3.417  13.715  10.113
14747SOL    HW146073   3.507  13.738  10.133
14747SOL    HW246074   3.365  13.788  10.148
14748SOL     OW46075   8.209  13.313   3.354
14748SOL    HW146076   8.284  13.340   3.406
14748SOL    HW246077   8.150  13.388   3.356
14749SOL     OW46078   8.905  11.960  11.233
14749SOL    HW146079   8.849  11.981  11.159
14749SOL    HW246080   8.961  11.889  11.202
14750SOL     OW46081  11.884  10.994   1.122
14750SOL    HW146082  11.936  11.064   1.162
14750SOL    HW246083  11.916  10.989   1.032
14751SOL     OW46084  13.372   8.831   3.928
14751SOL    HW146085  13.311   8.758   3.916
14751SOL    HW246086  13.390   8.832   4.022
14752SOL     OW46087   6.250   4.848  12.501
14752SOL    HW146088   6.295   4.798  12.434
14752SOL    HW246089   6.212   4.781  12.559
14753SOL     OW46090   0.236   3.879   3.417
14753SOL    HW146091   0.319   3.834   3.434
14753SOL    HW246092   0.169   3.813   3.435
14754SOL     OW46093  12.343  11.337  14.333
14754SOL    HW146094  12.337  11.271  14.402
14754SOL    HW246095  12.266  11.319  14.278
14755SOL     OW46096   5.382  13.535   7.515
14755SOL    HW146097   5.422  13.462   7.561
14755SOL    HW246098   5.355  13.498   7.431
14756SOL     OW46099   6.093  12.255   3.961
14756SOL    HW146100   6.055  12.168   3.969
14756SOL    HW246101   6.188  12.240   3.967
14757SOL     OW46102  12.252   3.453  14.029
14757SOL    HW146103  12.264   3.546  14.046
14757SOL    HW246104  12.158   3.443  14.018
14758SOL     OW46105   6.047   0.756  12.377
14758SOL    HW146106   6.131   0.727  12.342
14758SOL    HW246107   5.990   0.764  12.300
14759SOL     OW46108  12.673   8.130   7.720
14759SOL    HW146109  12.625   8.100   7.643
14759SOL    HW246110  12.628   8.087   7.794
14760SOL     OW46111   1.255   0.479  14.333
14760SOL    HW146112   1.313   0.555  14.333
14760SOL    HW246113   1.262   0.442  14.421
14761SOL     OW46114   3.091   5.882   8.633
14761SOL    HW146115   3.069   5.907   8.544
14761SOL    HW246116   3.184   5.903   8.642
14762SOL     OW46117   5.242  10.949   3.563
14762SOL    HW146118   5.300  11.025   3.563
14762SOL    HW246119   5.301  10.874   3.557
14763SOL     OW46120   8.659   3.212   2.334
14763SOL    HW146121   8.588   3.150   2.319
14763SOL    HW246122   8.684   3.198   2.425
14764SOL     OW46123   0.066  13.999  10.262
14764SOL    HW146124   0.081  13.986  10.169
14764SOL    HW246125   0.140  14.053  10.291
14765SOL     OW46126   8.638   1.951   7.810
14765SOL    HW146127   8.546   1.930   7.827
14765SOL    HW246128   8.665   2.003   7.886
14766SOL     OW46129  10.074  12.552   3.797
14766SOL    HW146130   9.981  12.570   3.810
14766SOL    HW246131  10.095  12.486   3.863
14767SOL     OW46132   3.782   8.089   6.016
14767SOL    HW146133   3.790   7.994   6.005
14767SOL    HW246134   3.858   8.125   5.969
14768SOL     OW46135   8.586  11.291  11.745
14768SOL    HW146136   8.624  11.254  11.825
14768SOL    HW246137   8.577  11.384  11.764
14769SOL     OW46138   7.448   9.294   5.079
14769SOL    HW146139   7.511   9.238   5.035
14769SOL    HW246140   7.501   9.363   5.119
14770SOL     OW46141   7.711   3.160   6.403
14770SOL    HW146142   7.627   3.119   6.424
14770SOL    HW246143   7.736   3.122   6.319
14771SOL     OW46144   4.243   3.407  14.038
14771SOL    HW146145   4.289   3.365  14.110
14771SOL    HW246146   4.272   3.498  14.040
14772SOL     OW46147  11.374   4.975   1.009
14772SOL    HW146148  11.418   5.031   1.074
14772SOL    HW246149  11.376   5.027   0.929
14773SOL     OW46150   0.612   5.676  14.810
14773SOL    HW146151   0.597   5.640  14.723
14773SOL    HW246152   0.633   5.769  14.795
14774SOL     OW46153   7.078  11.629   4.476
14774SOL    HW146154   7.124  11.545   4.477
14774SOL    HW246155   7.127  11.682   4.413
14775SOL     OW46156   7.035  11.636  12.946
14775SOL    HW146157   7.067  11.546  12.946
14775SOL    HW246158   7.057  11.669  13.033
14776SOL     OW46159   4.482   0.664   0.055
14776SOL    HW146160   4.399   0.692   0.018
14776SOL    HW246161   4.544   0.733   0.030
14777SOL     OW46162   8.315  12.496   1.699
14777SOL    HW146163   8.329  12.521   1.790
14777SOL    HW246164   8.328  12.401   1.698
14778SOL     OW46165   0.061   1.569   5.320
14778SOL    HW146166  14.869   1.553   5.389
14778SOL    HW246167   0.105   1.650   5.347
14779SOL     OW46168   5.474  14.044   8.901
14779SOL    HW146169   5.444  14.069   8.988
14779SOL    HW246170   5.500  13.952   8.910
14780SOL     OW46171  14.150   5.052  13.650
14780SOL    HW146172  14.141   5.097  13.734
14780SOL    HW246173  14.226   5.094  13.609
14781SOL     OW46174   0.998   2.666   5.671
14781SOL    HW146175   1.027   2.740   5.725
14781SOL    HW246176   1.024   2.690   5.582
14782SOL     OW46177  13.504   0.190  11.433
14782SOL    HW146178  13.470   0.241  11.360
14782SOL    HW246179  13.430   0.135  11.460
14783SOL     OW46180  10.933  10.285   8.335
14783SOL    HW146181  10.971  10.302   8.421
14783SOL    HW246182  10.844  10.256   8.353
14784SOL     OW46183  14.128   8.137  13.463
14784SOL    HW146184  14.105   8.207  13.524
14784SOL    HW246185  14.142   8.060  13.518
14785SOL     OW46186   3.266   3.948   7.048
14785SOL    HW146187   3.190   3.902   7.083
14785SOL    HW246188   3.245   4.041   7.058
14786SOL     OW46189   3.713   6.501   7.725
14786SOL    HW146190   3.694   6.445   7.650
14786SOL    HW246191   3.799   6.539   7.706
14787SOL     OW46192  12.653  10.693   3.705
14787SOL    HW146193  12.686  10.777   3.673
14787SOL    HW246194  12.564  10.712   3.735
14788SOL     OW46195   0.174  10.728   6.289
14788SOL    HW146196   0.090  10.757   6.254
14788SOL    HW246197   0.201  10.656   6.232
14789SOL     OW46198   0.741   6.108   8.369
14789SOL    HW146199   0.771   6.198   8.384
14789SOL    HW246200   0.811   6.068   8.317
14790SOL     OW46201   2.194  14.822  12.901
14790SOL    HW146202   2.105  14.807  12.869
14790SOL    HW246203   2.187   0.029  12.955
14791SOL     OW46204   3.297  10.779  10.039
14791SOL    HW146205   3.221  10.728  10.012
14791SOL    HW246206   3.266  10.829  10.115
14792SOL     OW46207   8.196  13.859   3.859
14792SOL    HW146208   8.210  13.894   3.947
14792SOL    HW246209   8.155  13.773   3.874
14793SOL     OW46210   6.521   9.610   2.813
14793SOL    HW146211   6.585   9.540   2.805
14793SOL    HW246212   6.437   9.566   2.826
14794SOL     OW46213   4.949   0.678   9.976
14794SOL    HW146214   4.992   0.606  10.022
14794SOL    HW246215   4.932   0.645   9.888
14795SOL     OW46216  10.342   6.175   1.942
14795SOL    HW146217  10.371   6.120   1.869
14795SOL    HW246218  10.358   6.264   1.913
14796SOL     OW46219   0.117   5.461  14.809
14796SOL    HW146220   0.175   5.433   0.008
14796SOL    HW246221   0.069   5.536  14.846
14797SOL     OW46222  12.725   6.903   4.067
14797SOL    HW146223  12.731   6.818   4.111
14797SOL    HW246224  12.680   6.885   3.985
14798SOL     OW46225  11.737   3.985  11.792
14798SOL    HW146226  11.655   4.013  11.834
14798SOL    HW246227  11.738   3.890  11.802
14799SOL     OW46228   5.245  13.248   5.951
14799SOL    HW146229   5.228  13.338   5.921
14799SOL    HW246230   5.200  13.192   5.887
14800SOL     OW46231   3.989   7.928   3.252
14800SOL    HW146232   4.005   8.010   3.300
14800SOL    HW246233   3.982   7.954   3.161
14801SOL     OW46234   9.911   3.122  11.251
14801SOL    HW146235   9.963   3.174  11.312
14801SOL    HW246236   9.826   3.113  11.293
14802SOL     OW46237   3.344  10.215   8.306
14802SOL    HW146238   3.345  10.287   8.369
14802SOL    HW246239   3.420  10.230   8.250
14803SOL     OW46240   3.252   3.582   6.860
14803SOL    HW146241   3.257   3.565   6.766
14803SOL    HW246242   3.159   3.581   6.880
14804SOL     OW46243   4.873   3.691   1.988
14804SOL    HW146244   4.837   3.633   1.921
14804SOL    HW246245   4.893   3.772   1.942
14805SOL     OW46246   0.165   0.769   3.656
14805SOL    HW146247   0.129   0.816   3.582
14805SOL    HW246248   0.223   0.703   3.617
14806SOL     OW46249   0.693   8.098  10.564
14806SOL    HW146250   0.678   8.175  10.619
14806SOL    HW246251   0.756   8.128  10.499
14807SOL     OW46252   7.233   3.977   8.928
14807SOL    HW146253   7.287   4.003   8.853
14807SOL    HW246254   7.294   3.935   8.988
14808SOL     OW46255  11.225  14.493  13.914
14808SOL    HW146256  11.142  14.530  13.883
14808SOL    HW246257  11.289  14.519  13.848
14809SOL     OW46258   3.735   4.857  13.869
14809SOL    HW146259   3.778   4.802  13.804
14809SOL    HW246260   3.641   4.837  13.860
14810SOL     OW46261   8.979  13.275   3.156
14810SOL    HW146262   9.003  13.326   3.233
14810SOL    HW246263   8.952  13.340   3.091
14811SOL     OW46264  11.036   4.029  14.397
14811SOL    HW146265  11.072   4.065  14.316
14811SOL    HW246266  10.947   4.004  14.374
14812SOL     OW46267  13.553   1.335  13.354
14812SOL    HW146268  13.512   1.277  13.289
14812SOL    HW246269  13.486   1.400  13.373
14813SOL     OW46270   6.907  13.910   9.791
14813SOL    HW146271   6.880  14.000   9.807
14813SOL    HW246272   6.885  13.894   9.699
14814SOL     OW46273   2.105   3.313  12.641
14814SOL    HW146274   2.183   3.368  12.654
14814SOL    HW246275   2.034   3.375  12.629
14815SOL     OW46276  12.390   1.339   6.710
14815SOL    HW146277  12.434   1.296   6.783
14815SOL    HW246278  12.337   1.270   6.670
14816SOL     OW46279  12.492   3.465   1.269
14816SOL    HW146280  12.420   3.497   1.215
14816SOL    HW246281  12.566   3.522   1.247
14817SOL     OW46282   6.128  14.038   0.356
14817SOL    HW146283   6.063  14.108   0.355
14817SOL    HW246284   6.108  13.986   0.278
14818SOL     OW46285   3.287   7.048   9.299
14818SOL    HW146286   3.314   7.062   9.208
14818SOL    HW246287   3.224   7.118   9.317
14819SOL     OW46288   3.198  12.352   2.266
14819SOL    HW146289   3.185  12.309   2.350
14819SOL    HW246290   3.231  12.439   2.288
14820SOL     OW46291   5.142   7.595   4.850
14820SOL    HW146292   5.121   7.519   4.796
14820SOL    HW246293   5.057   7.627   4.880
14821SOL     OW46294  13.230   8.326   7.245
14821SOL    HW146295  13.200   8.417   7.240
14821SOL    HW246296  13.211   8.300   7.335
14822SOL     OW46297   6.394  10.990   2.419
14822SOL    HW146298   6.327  11.057   2.435
14822SOL    HW246299   6.366  10.946   2.339
14823SOL     OW46300   6.732   0.464   4.289
14823SOL    HW146301   6.657   0.494   4.239
14823SOL    HW246302   6.807   0.480   4.232
14824SOL     OW46303   8.968  11.458  11.751
14824SOL    HW146304   8.921  11.514  11.811
14824SOL    HW246305   9.061  11.474  11.770
14825SOL     OW46306   3.164  10.250   5.076
14825SOL    HW146307   3.135  10.161   5.097
14825SOL    HW246308   3.259  10.247   5.087
14826SOL     OW46309   1.590   7.288   8.936
14826SOL    HW146310   1.517   7.280   8.997
14826SOL    HW246311   1.552   7.332   8.859
14827SOL     OW46312   0.944   2.235  10.924
14827SOL    HW146313   0.908   2.200  11.005
14827SOL    HW246314   1.009   2.170  10.897
14828SOL     OW46315   6.580   1.821   2.400
14828SOL    HW146316   6.539   1.750   2.350
14828SOL    HW246317   6.515   1.843   2.467
14829SOL     OW46318  13.592  14.309  11.058
14829SOL    HW146319  13.618  14.288  11.148
14829SOL    HW246320  13.496  14.307  11.059
14830SOL     OW46321   5.499  13.825   7.826
14830SOL    HW146322   5.518  13.732   7.837
14830SOL    HW246323   5.495  13.838   7.731
14831SOL     OW46324  11.277   2.664   2.256
14831SOL    HW146325  11.183   2.675   2.271
14831SOL    HW246326  11.289   2.681   2.163
14832SOL     OW46327   3.290   6.665   8.533
14832SOL    HW146328   3.246   6.728   8.477
14832SOL    HW246329   3.219   6.617   8.576
14833SOL     OW46330   6.651   8.169  12.782
14833SOL    HW146331   6.603   8.152  12.701
14833SOL    HW246332   6.656   8.084  12.826
14834SOL     OW46333  11.415  13.619   4.839
14834SOL    HW146334  11.509  13.637   4.839
14834SOL    HW246335  11.391  13.619   4.747
14835SOL     OW46336   2.690   4.978  11.094
14835SOL    HW146337   2.604   4.963  11.132
14835SOL    HW246338   2.685   4.936  11.008
14836SOL     OW46339   0.918   3.295   5.638
14836SOL    HW146340   0.838   3.320   5.685
14836SOL    HW246341   0.983   3.359   5.666
14837SOL     OW46342   4.565  13.460   7.963
14837SOL    HW146343   4.650  13.484   8.000
14837SOL    HW246344   4.519  13.414   8.033
14838SOL     OW46345   2.170   7.871  12.051
14838SOL    HW146346   2.177   7.964  12.029
14838SOL    HW246347   2.083   7.861  12.088
14839SOL     OW46348   7.260  13.499   3.468
14839SOL    HW146349   7.355  13.504   3.457
14839SOL    HW246350   7.247  13.502   3.563
14840SOL     OW46351  13.163  14.048   3.051
14840SOL    HW146352  13.089  14.008   3.095
14840SOL    HW246353  13.216  14.086   3.121
14841SOL     OW46354   8.200   5.398   5.294
14841SOL    HW146355   8.162   5.458   5.358
14841SOL    HW246356   8.283   5.438   5.270
14842SOL     OW46357   9.153  14.228   6.030
14842SOL    HW146358   9.225  14.228   6.093
14842SOL    HW246359   9.083  14.276   6.073
14843SOL     OW46360  11.811   4.579  14.501
14843SOL    HW146361  11.843   4.645  14.440
14843SOL    HW246362  11.812   4.622  14.586
14844SOL     OW46363   0.821   0.619  12.554
14844SOL    HW146364   0.740   0.598  12.600
14844SOL    HW246365   0.842   0.709  12.582
14845SOL     OW46366   3.875   3.978   5.409
14845SOL    HW146367   3.969   3.982   5.392
14845SOL    HW246368   3.868   3.931   5.492
14846SOL     OW46369   0.313   1.791  12.906
14846SOL    HW146370   0.314   1.780  13.001
14846SOL    HW246371   0.244   1.732  12.876
14847SOL     OW46372  12.618  14.392   8.079
14847SOL    HW146373  12.683  14.368   8.013
14847SOL    HW246374  12.660  14.460   8.131
14848SOL     OW46375   7.015   1.776  11.205
14848SOL    HW146376   6.951   1.713  11.172
14848SOL    HW246377   7.052   1.735  11.283
14849SOL     OW46378   6.138   3.698   9.051
14849SOL    HW146379   6.151   3.648   9.131
14849SOL    HW246380   6.133   3.789   9.080
14850SOL     OW46381  10.512   1.430  11.562
14850SOL    HW146382  10.600   1.451  11.529
14850SOL    HW246383  10.523   1.424  11.657
14851SOL     OW46384   6.632  12.922   6.803
14851SOL    HW146385   6.583  12.944   6.724
14851SOL    HW246386   6.702  12.987   6.806
14852SOL     OW46387   9.701   2.681   0.843
14852SOL    HW146388   9.728   2.743   0.911
14852SOL    HW246389   9.630   2.631   0.884
14853SOL     OW46390   9.833  12.192   8.510
14853SOL    HW146391   9.816  12.111   8.461
14853SOL    HW246392   9.845  12.259   8.442
14854SOL     OW46393   4.963  12.512   0.582
14854SOL    HW146394   4.999  12.423   0.584
14854SOL    HW246395   4.874  12.501   0.550
14855SOL     OW46396   2.579   3.503  14.309
14855SOL    HW146397   2.544   3.418  14.335
14855SOL    HW246398   2.535   3.566  14.366
14856SOL     OW46399   0.130   9.535   7.041
14856SOL    HW146400   0.061   9.567   6.983
14856SOL    HW246401   0.209   9.577   7.008
14857SOL     OW46402  11.848  14.693   2.801
14857SOL    HW146403  11.943  14.686   2.794
14857SOL    HW246404  11.814  14.620   2.749
14858SOL     OW46405  13.473  14.758   7.257
14858SOL    HW146406  13.385  14.795   7.248
14858SOL    HW246407  13.472  14.716   7.343
14859SOL     OW46408  13.216   9.849   7.400
14859SOL    HW146409  13.142   9.874   7.455
14859SOL    HW246410  13.196   9.888   7.314
14860SOL     OW46411   0.649   2.530   1.086
14860SOL    HW146412   0.737   2.560   1.066
14860SOL    HW246413   0.657   2.484   1.169
14861SOL     OW46414   6.491   7.554   5.120
14861SOL    HW146415   6.515   7.552   5.027
14861SOL    HW246416   6.450   7.469   5.135
14862SOL     OW46417  10.439   6.302  14.592
14862SOL    HW146418  10.469   6.378  14.642
14862SOL    HW246419  10.469   6.226  14.643
14863SOL     OW46420   9.422  10.845   4.738
14863SOL    HW146421   9.505  10.799   4.725
14863SOL    HW246422   9.448  10.930   4.774
14864SOL     OW46423  12.525  10.932   3.390
14864SOL    HW146424  12.530  10.977   3.306
14864SOL    HW246425  12.614  10.937   3.426
14865SOL     OW46426   1.250   1.454   7.075
14865SOL    HW146427   1.294   1.408   7.003
14865SOL    HW246428   1.319   1.465   7.141
14866SOL     OW46429   1.311   6.468   9.299
14866SOL    HW146430   1.367   6.452   9.223
14866SOL    HW246431   1.322   6.562   9.317
14867SOL     OW46432   8.371  12.863   0.993
14867SOL    HW146433   8.391  12.932   0.930
14867SOL    HW246434   8.454  12.818   1.006
14868SOL     OW46435   8.080   2.035  13.087
14868SOL    HW146436   8.031   1.959  13.057
14868SOL    HW246437   8.029   2.111  13.059
14869SOL     OW46438   3.067   4.517   1.849
14869SOL    HW146439   2.977   4.496   1.874
14869SOL    HW246440   3.059   4.551   1.759
14870SOL     OW46441  11.992   6.396   9.850
14870SOL    HW146442  12.065   6.347   9.889
14870SOL    HW246443  12.014   6.488   9.865
14871SOL     OW46444   4.196   6.305   0.805
14871SOL    HW146445   4.185   6.388   0.758
14871SOL    HW246446   4.193   6.239   0.737
14872SOL     OW46447   6.215   2.602   4.054
14872SOL    HW146448   6.287   2.612   3.991
14872SOL    HW246449   6.251   2.547   4.123
14873SOL     OW46450   8.045   7.083   9.232
14873SOL    HW146451   8.127   7.130   9.214
14873SOL    HW246452   8.065   6.991   9.214
14874SOL     OW46453   3.734   4.494   2.321
14874SOL    HW146454   3.641   4.486   2.303
14874SOL    HW246455   3.741   4.488   2.417
14875SOL     OW46456  10.168   8.395   6.609
14875SOL    HW146457  10.106   8.358   6.672
14875SOL    HW246458  10.116   8.454   6.555
14876SOL     OW46459  10.870   4.738   5.581
14876SOL    HW146460  10.962   4.726   5.556
14876SOL    HW246461  10.875   4.794   5.659
14877SOL     OW46462  12.486   6.109   6.268
14877SOL    HW146463  12.399   6.148   6.258
14877SOL    HW246464  12.546   6.183   6.275
14878SOL     OW46465   7.112   6.537   2.385
14878SOL    HW146466   7.144   6.589   2.312
14878SOL    HW246467   7.018   6.556   2.389
14879SOL     OW46468   6.860   6.058   5.798
14879SOL    HW146469   6.954   6.079   5.803
14879SOL    HW246470   6.823   6.095   5.877
14880SOL     OW46471   1.869   8.671  10.843
14880SOL    HW146472   1.878   8.755  10.889
14880SOL    HW246473   1.854   8.607  10.913
14881SOL     OW46474   2.109  10.248  12.375
14881SOL    HW146475   2.028  10.220  12.333
14881SOL    HW246476   2.177  10.229  12.310
14882SOL     OW46477   1.563   0.009   0.366
14882SOL    HW146478   1.560   0.023   0.271
14882SOL    HW246479   1.611  14.799   0.377
14883SOL     OW46480   4.529  13.505  12.154
14883SOL    HW146481   4.622  13.510  12.177
14883SOL    HW246482   4.526  13.441  12.082
14884SOL     OW46483  10.243   8.752  11.235
14884SOL    HW146484  10.208   8.791  11.155
14884SOL    HW246485  10.166   8.729  11.286
14885SOL     OW46486   5.940   6.594  11.596
14885SOL    HW146487   5.992   6.674  11.586
14885SOL    HW246488   5.918   6.568  11.507
14886SOL     OW46489   4.937   1.739   0.097
14886SOL    HW146490   4.924   1.755   0.191
14886SOL    HW246491   4.962   1.824   0.061
14887SOL     OW46492   8.832  13.946  12.309
14887SOL    HW146493   8.874  13.884  12.250
14887SOL    HW246494   8.878  14.028  12.295
14888SOL     OW46495   3.098   4.971  10.205
14888SOL    HW146496   3.106   5.056  10.249
14888SOL    HW246497   3.066   4.912  10.273
14889SOL     OW46498  14.346   7.268   2.452
14889SOL    HW146499  14.357   7.351   2.406
14889SOL    HW246500  14.258   7.273   2.488
14890SOL     OW46501   3.351  13.219   2.329
14890SOL    HW146502   3.274  13.162   2.337
14890SOL    HW246503   3.323  13.287   2.267
14891SOL     OW46504   8.329  12.637  13.575
14891SOL    HW146505   8.420  12.642  13.603
14891SOL    HW246506   8.287  12.713  13.617
14892SOL     OW46507  11.080   3.857   2.372
14892SOL    HW146508  11.100   3.864   2.465
14892SOL    HW246509  11.020   3.783   2.366
14893SOL     OW46510   7.278  11.618   7.590
14893SOL    HW146511   7.185  11.621   7.569
14893SOL    HW246512   7.284  11.555   7.662
14894SOL     OW46513   4.384  12.233  12.041
14894SOL    HW146514   4.301  12.195  12.068
14894SOL    HW246515   4.432  12.249  12.123
14895SOL     OW46516   3.621  10.458   7.235
14895SOL    HW146517   3.550  10.398   7.214
14895SOL    HW246518   3.699  10.402   7.237
14896SOL     OW46519   8.261  13.552   5.214
14896SOL    HW146520   8.253  13.497   5.292
14896SOL    HW246521   8.175  13.548   5.173
14897SOL     OW46522   4.247   9.270  12.728
14897SOL    HW146523   4.327   9.249  12.679
14897SOL    HW246524   4.193   9.192  12.718
14898SOL     OW46525   6.234   1.953   8.647
14898SOL    HW146526   6.175   2.026   8.666
14898SOL    HW246527   6.185   1.899   8.584
14899SOL     OW46528   2.765  12.679   6.038
14899SOL    HW146529   2.677  12.655   6.008
14899SOL    HW246530   2.764  12.774   6.043
14900SOL     OW46531   6.539   3.452   0.442
14900SOL    HW146532   6.585   3.454   0.526
14900SOL    HW246533   6.448   3.433   0.466
14901SOL     OW46534   6.505   9.197   1.162
14901SOL    HW146535   6.461   9.154   1.236
14901SOL    HW246536   6.599   9.188   1.182
14902SOL     OW46537   5.715  12.726  14.716
14902SOL    HW146538   5.730  12.819  14.730
14902SOL    HW246539   5.620  12.717  14.716
14903SOL     OW46540  13.390  10.965   0.998
14903SOL    HW146541  13.465  10.921   1.039
14903SOL    HW246542  13.428  11.014   0.925
14904SOL     OW46543   7.940   0.567   3.995
14904SOL    HW146544   7.923   0.520   3.913
14904SOL    HW246545   7.983   0.648   3.968
14905SOL     OW46546   0.189  10.919  13.164
14905SOL    HW146547   0.195  10.893  13.256
14905SOL    HW246548   0.122  10.862  13.127
14906SOL     OW46549  12.014   0.907   8.902
14906SOL    HW146550  12.052   0.945   8.981
14906SOL    HW246551  12.089   0.894   8.844
14907SOL     OW46552   6.675   0.799  11.477
14907SOL    HW146553   6.696   0.737  11.407
14907SOL    HW246554   6.700   0.753  11.557
14908SOL     OW46555   9.406   8.248  12.687
14908SOL    HW146556   9.342   8.319  12.683
14908SOL    HW246557   9.376   8.193  12.759
14909SOL     OW46558   3.979  14.518   0.451
14909SOL    HW146559   4.026  14.459   0.510
14909SOL    HW246560   4.042  14.585   0.428
14910SOL     OW46561  14.473   0.809  13.605
14910SOL    HW146562  14.416   0.855  13.544
14910SOL    HW246563  14.503   0.732  13.557
14911SOL     OW46564   2.746   0.363   1.392
14911SOL    HW146565   2.681   0.430   1.415
14911SOL    HW246566   2.764   0.379   1.299
14912SOL     OW46567   8.362   7.678   8.233
14912SOL    HW146568   8.313   7.734   8.293
14912SOL    HW246569   8.344   7.589   8.263
14913SOL     OW46570   6.017   8.854   3.124
14913SOL    HW146571   6.070   8.902   3.187
14913SOL    HW246572   6.074   8.841   3.049
14914SOL     OW46573  12.958   1.702  13.637
14914SOL    HW146574  12.922   1.757  13.567
14914SOL    HW246575  12.916   1.733  13.717
14915SOL     OW46576   2.434   5.863   9.761
14915SOL    HW146577   2.439   5.788   9.821
14915SOL    HW246578   2.343   5.863   9.731
14916SOL     OW46579   6.095   9.556   0.023
14916SOL    HW146580   6.153   9.590   0.091
14916SOL    HW246581   6.126   9.598  14.815
14917SOL     OW46582  14.014  11.288  10.260
14917SOL    HW146583  14.073  11.356  10.294
14917SOL    HW246584  14.006  11.226  10.332
14918SOL     OW46585   8.318   3.560   0.413
14918SOL    HW146586   8.255   3.510   0.466
14918SOL    HW246587   8.361   3.493   0.359
14919SOL     OW46588  12.710  12.211   8.206
14919SOL    HW146589  12.768  12.202   8.131
14919SOL    HW246590  12.648  12.138   8.198
14920SOL     OW46591   0.160   9.054   5.122
14920SOL    HW146592   0.155   9.122   5.055
14920SOL    HW246593   0.247   9.016   5.111
14921SOL     OW46594   4.730  14.472  10.351
14921SOL    HW146595   4.805  14.500  10.403
14921SOL    HW246596   4.699  14.552  10.309
14922SOL     OW46597   3.587  14.478   3.783
14922SOL    HW146598   3.498  14.507   3.800
14922SOL    HW246599   3.630  14.480   3.869
14923SOL     OW46600   5.977  10.878   5.949
14923SOL    HW146601   5.991  10.855   5.857
14923SOL    HW246602   5.891  10.920   5.951
14924SOL     OW46603   4.169   1.012   0.835
14924SOL    HW146604   4.179   0.959   0.914
14924SOL    HW246605   4.208   0.959   0.766
14925SOL     OW46606   2.530   5.251   0.269
14925SOL    HW146607   2.620   5.223   0.255
14925SOL    HW246608   2.523   5.334   0.220
14926SOL     OW46609   0.074   6.814   5.756
14926SOL    HW146610   0.005   6.825   5.821
14926SOL    HW246611   0.029   6.824   5.671
14927SOL     OW46612   5.958   3.307   5.528
14927SOL    HW146613   5.886   3.368   5.513
14927SOL    HW246614   5.939   3.270   5.614
14928SOL     OW46615   2.133   7.841   2.143
14928SOL    HW146616   2.158   7.764   2.092
14928SOL    HW246617   2.206   7.903   2.131
14929SOL     OW46618  12.495   2.847   9.659
14929SOL    HW146619  12.479   2.762   9.701
14929SOL    HW246620  12.414   2.867   9.613
14930SOL     OW46621  14.308  10.213   9.461
14930SOL    HW146622  14.367  10.139   9.455
14930SOL    HW246623  14.245  10.200   9.389
14931SOL     OW46624   8.034   7.430   2.513
14931SOL    HW146625   8.010   7.522   2.524
14931SOL    HW246626   8.130   7.429   2.514
14932SOL     OW46627   1.438  11.349  10.640
14932SOL    HW146628   1.426  11.351  10.545
14932SOL    HW246629   1.506  11.283  10.654
14933SOL     OW46630  14.715   0.447  12.357
14933SOL    HW146631  14.680   0.454  12.446
14933SOL    HW246632  14.791   0.389  12.366
14934SOL     OW46633   9.120   3.300   3.220
14934SOL    HW146634   9.070   3.228   3.258
14934SOL    HW246635   9.054   3.358   3.182
14935SOL     OW46636   6.128   0.478   4.286
14935SOL    HW146637   6.115   0.536   4.362
14935SOL    HW246638   6.182   0.407   4.320
14936SOL     OW46639   3.230  13.435  12.648
14936SOL    HW146640   3.205  13.466  12.561
14936SOL    HW246641   3.216  13.511  12.705
14937SOL     OW46642   5.132   6.401  11.898
14937SOL    HW146643   5.190   6.473  11.871
14937SOL    HW246644   5.182   6.355  11.966
14938SOL     OW46645  11.716   4.853   1.207
14938SOL    HW146646  11.681   4.942   1.200
14938SOL    HW246647  11.781   4.847   1.137
14939SOL     OW46648  12.339   5.053   6.358
14939SOL    HW146649  12.267   5.023   6.413
14939SOL    HW246650  12.297   5.081   6.277
14940SOL     OW46651  12.790   3.013   7.692
14940SOL    HW146652  12.854   3.054   7.750
14940SOL    HW246653  12.739   3.087   7.657
14941SOL     OW46654  13.583   7.920  14.339
14941SOL    HW146655  13.558   8.009  14.360
14941SOL    HW246656  13.541   7.902  14.254
14942SOL     OW46657   2.171   9.958  13.039
14942SOL    HW146658   2.198   9.892  13.102
14942SOL    HW246659   2.089   9.925  13.003
14943SOL     OW46660   2.393   8.135   3.397
14943SOL    HW146661   2.436   8.221   3.390
14943SOL    HW246662   2.461   8.073   3.369
14944SOL     OW46663  11.846  11.443   2.156
14944SOL    HW146664  11.869  11.386   2.229
14944SOL    HW246665  11.913  11.512   2.157
14945SOL     OW46666   2.208  11.318   8.129
14945SOL    HW146667   2.290  11.364   8.140
14945SOL    HW246668   2.155  11.374   8.073
14946SOL     OW46669  14.068  12.090  14.641
14946SOL    HW146670  14.125  12.076  14.565
14946SOL    HW246671  14.125  12.128  14.707
14947SOL     OW46672   6.482  14.203  10.814
14947SOL    HW146673   6.410  14.154  10.774
14947SOL    HW246674   6.516  14.258  10.743
14948SOL     OW46675   0.672   9.245   0.353
14948SOL    HW146676   0.683   9.282   0.441
14948SOL    HW246677   0.642   9.319   0.300
14949SOL     OW46678   5.107  11.501   8.435
14949SOL    HW146679   5.068  11.539   8.356
14949SOL    HW246680   5.058  11.540   8.507
14950SOL     OW46681   9.297   5.646   9.400
14950SOL    HW146682   9.298   5.645   9.496
14950SOL    HW246683   9.389   5.635   9.375
14951SOL     OW46684  10.666   0.675  13.096
14951SOL    HW146685  10.596   0.646  13.038
14951SOL    HW246686  10.683   0.765  13.069
14952SOL     OW46687   3.323   6.126   6.003
14952SOL    HW146688   3.296   6.177   5.927
14952SOL    HW246689   3.253   6.139   6.067
14953SOL     OW46690   6.847  14.712  14.367
14953SOL    HW146691   6.759  14.730  14.335
14953SOL    HW246692   6.850  14.616  14.376
14954SOL     OW46693  13.660  14.261   9.141
14954SOL    HW146694  13.660  14.185   9.083
14954SOL    HW246695  13.743  14.256   9.187
14955SOL     OW46696  10.072   2.840   3.618
14955SOL    HW146697   9.984   2.809   3.597
14955SOL    HW246698  10.089   2.805   3.705
14956SOL     OW46699  11.378   3.848   9.410
14956SOL    HW146700  11.298   3.901   9.415
14956SOL    HW246701  11.436   3.884   9.476
14957SOL     OW46702  13.631   2.770  14.220
14957SOL    HW146703  13.713   2.783  14.172
14957SOL    HW246704  13.630   2.676  14.240
14958SOL     OW46705   0.974   3.902  13.503
14958SOL    HW146706   1.066   3.875  13.504
14958SOL    HW246707   0.943   3.879  13.415
14959SOL     OW46708   3.007  14.653  11.300
14959SOL    HW146709   3.050  14.580  11.254
14959SOL    HW246710   3.068  14.726  11.291
14960SOL     OW46711   5.869   9.144   1.126
14960SOL    HW146712   5.787   9.105   1.156
14960SOL    HW246713   5.912   9.172   1.207
14961SOL     OW46714   2.945   9.336   5.891
14961SOL    HW146715   3.020   9.377   5.849
14961SOL    HW246716   2.975   9.314   5.979
14962SOL     OW46717  13.987   2.204   7.985
14962SOL    HW146718  13.931   2.178   7.913
14962SOL    HW246719  14.008   2.296   7.967
14963SOL     OW46720   9.588  14.726  11.763
14963SOL    HW146721   9.650  14.781  11.811
14963SOL    HW246722   9.543  14.676  11.832
14964SOL     OW46723  13.317  10.780  11.127
14964SOL    HW146724  13.293  10.695  11.089
14964SOL    HW246725  13.368  10.757  11.205
14965SOL     OW46726   4.604   8.362   4.148
14965SOL    HW146727   4.675   8.309   4.109
14965SOL    HW246728   4.526   8.306   4.140
14966SOL     OW46729   1.454  14.325  10.066
14966SOL    HW146730   1.476  14.381  10.141
14966SOL    HW246731   1.416  14.386  10.002
14967SOL     OW46732   9.438  12.955  12.530
14967SOL    HW146733   9.366  13.018  12.531
14967SOL    HW246734   9.511  13.001  12.571
14968SOL     OW46735   6.748   5.260   6.653
14968SOL    HW146736   6.691   5.195   6.612
14968SOL    HW246737   6.818   5.209   6.694
14969SOL     OW46738  14.816   8.829   4.970
14969SOL    HW146739  14.774   8.745   4.986
14969SOL    HW246740  14.751   8.879   4.920
14970SOL     OW46741   7.372  10.696   5.684
14970SOL    HW146742   7.433  10.626   5.661
14970SOL    HW246743   7.293  10.651   5.712
14971SOL     OW46744   7.253   9.002   8.880
14971SOL    HW146745   7.301   8.919   8.879
14971SOL    HW246746   7.237   9.019   8.973
14972SOL     OW46747  13.607  10.400  10.202
14972SOL    HW146748  13.523  10.429  10.238
14972SOL    HW246749  13.662  10.479  10.203
14973SOL     OW46750   2.548   1.082   3.182
14973SOL    HW146751   2.471   1.094   3.126
14973SOL    HW246752   2.532   1.138   3.258
14974SOL     OW46753  12.302  13.893   2.061
14974SOL    HW146754  12.356  13.971   2.048
14974SOL    HW246755  12.364  13.820   2.060
14975SOL     OW46756   9.705   7.874   2.179
14975SOL    HW146757   9.779   7.853   2.236
14975SOL    HW246758   9.721   7.964   2.151
14976SOL     OW46759   8.027   0.435  14.779
14976SOL    HW146760   8.052   0.353  14.822
14976SOL    HW246761   8.027   0.500  14.850
14977SOL     OW46762  12.318   9.824   8.468
14977SOL    HW146763  12.326   9.915   8.497
14977SOL    HW246764  12.390   9.779   8.511
14978SOL     OW46765   1.332   1.147   9.886
14978SOL    HW146766   1.351   1.067   9.838
14978SOL    HW246767   1.294   1.117   9.969
14979SOL     OW46768  10.910  10.015   2.906
14979SOL    HW146769  10.894   9.959   2.830
14979SOL    HW246770  10.983  10.070   2.879
14980SOL     OW46771   5.743   8.249  11.556
14980SOL    HW146772   5.804   8.180  11.583
14980SOL    HW246773   5.796   8.307  11.500
14981SOL     OW46774  11.400   3.163   1.314
14981SOL    HW146775  11.413   3.167   1.220
14981SOL    HW246776  11.488   3.179   1.351
14982SOL     OW46777  11.617  13.279   5.673
14982SOL    HW146778  11.695  13.225   5.657
14982SOL    HW246779  11.580  13.244   5.754
14983SOL     OW46780  10.059   4.509   9.834
14983SOL    HW146781  10.068   4.419   9.865
14983SOL    HW246782   9.967   4.530   9.849
14984SOL     OW46783   9.352   5.314   1.071
14984SOL    HW146784   9.318   5.390   1.118
14984SOL    HW246785   9.371   5.347   0.983
14985SOL     OW46786  14.131  14.624   7.122
14985SOL    HW146787  14.182  14.659   7.049
14985SOL    HW246788  14.105  14.536   7.093
14986SOL     OW46789   0.220  14.685  14.611
14986SOL    HW146790   0.268  14.739  14.674
14986SOL    HW246791   0.207  14.742  14.535
14987SOL     OW46792   2.246  12.767   9.123
14987SOL    HW146793   2.264  12.842   9.067
14987SOL    HW246794   2.150  12.762   9.127
14988SOL     OW46795  11.726   9.177  13.576
14988SOL    HW146796  11.797   9.192  13.638
14988SOL    HW246797  11.755   9.219  13.495
14989SOL     OW46798   5.708   1.936  10.698
14989SOL    HW146799   5.743   1.941  10.787
14989SOL    HW246800   5.770   1.985  10.645
14990SOL     OW46801   5.858   4.474   0.736
14990SOL    HW146802   5.899   4.453   0.652
14990SOL    HW246803   5.838   4.388   0.774
14991SOL     OW46804   3.627   8.716  12.770
14991SOL    HW146805   3.567   8.642  12.760
14991SOL    HW246806   3.666   8.704  12.857
14992SOL     OW46807   4.314  10.763   2.879
14992SOL    HW146808   4.299  10.830   2.947
14992SOL    HW246809   4.348  10.688   2.927
14993SOL     OW46810  10.664   1.053   3.275
14993SOL    HW146811  10.666   1.136   3.227
14993SOL    HW246812  10.734   1.001   3.236
14994SOL     OW46813   7.945   7.987   4.847
14994SOL    HW146814   7.948   8.061   4.786
14994SOL    HW246815   7.895   7.920   4.801
14995SOL     OW46816   3.016   9.788   4.551
14995SOL    HW146817   2.994   9.850   4.481
14995SOL    HW246818   3.093   9.742   4.519
14996SOL     OW46819   4.269  11.798   7.963
14996SOL    HW146820   4.319  11.767   7.888
14996SOL    HW246821   4.180  11.806   7.930
14997SOL     OW46822  12.223   9.493  10.882
14997SOL    HW146823  12.232   9.505  10.787
14997SOL    HW246824  12.257   9.405  10.898
14998SOL     OW46825  10.943  11.760   5.756
14998SOL    HW146826  10.875  11.724   5.700
14998SOL    HW246827  10.955  11.694   5.825
14999SOL     OW46828   9.321   4.518   1.021
14999SOL    HW146829   9.294   4.426   1.016
14999SOL    HW246830   9.297   4.545   1.110
15000SOL     OW46831  12.504  13.228  13.535
15000SOL    HW146832  12.524  13.215  13.443
15000SOL    HW246833  12.585  13.202  13.580
15001SOL     OW46834   9.215  13.641   0.113
15001SOL    HW146835   9.285  13.619   0.051
15001SOL    HW246836   9.165  13.560   0.123
15002SOL     OW46837  12.749   0.785   3.821
15002SOL    HW146838  12.808   0.724   3.864
15002SOL    HW246839  12.793   0.809   3.740
15003SOL     OW46840  11.864  10.159   7.146
15003SOL    HW146841  11.837  10.248   7.167
15003SOL    HW246842  11.956  10.155   7.173
15004SOL     OW46843  14.841   0.912  12.056
15004SOL    HW146844   0.018   0.833  12.077
15004SOL    HW246845  14.850   0.967  12.134
15005SOL     OW46846   6.663  13.310   6.502
15005SOL    HW146847   6.620  13.246   6.445
15005SOL    HW246848   6.694  13.378   6.443
15006SOL     OW46849   4.080   4.727   2.813
15006SOL    HW146850   4.165   4.766   2.795
15006SOL    HW246851   4.051   4.693   2.728
15007SOL     OW46852   7.098   3.732   3.269
15007SOL    HW146853   7.132   3.795   3.333
15007SOL    HW246854   7.134   3.648   3.296
15008SOL     OW46855   7.634  13.028   2.790
15008SOL    HW146856   7.685  13.007   2.712
15008SOL    HW246857   7.620  13.123   2.784
15009SOL     OW46858   2.346  11.842  11.462
15009SOL    HW146859   2.300  11.926  11.457
15009SOL    HW246860   2.399  11.838  11.383
15010SOL     OW46861   3.648   4.147   5.667
15010SOL    HW146862   3.711   4.218   5.650
15010SOL    HW246863   3.696   4.067   5.643
15011SOL     OW46864   7.585   2.365   3.007
15011SOL    HW146865   7.584   2.283   3.057
15011SOL    HW246866   7.533   2.345   2.929
15012SOL     OW46867   7.300  11.650   1.677
15012SOL    HW146868   7.234  11.695   1.625
15012SOL    HW246869   7.297  11.559   1.647
15013SOL     OW46870   4.167  12.057   3.487
15013SOL    HW146871   4.255  12.027   3.463
15013SOL    HW246872   4.168  12.151   3.472
15014SOL     OW46873  10.096   1.668   1.218
15014SOL    HW146874  10.185   1.668   1.252
15014SOL    HW246875  10.100   1.724   1.141
15015SOL     OW46876  10.671   9.435  11.384
15015SOL    HW146877  10.606   9.422  11.453
15015SOL    HW246878  10.741   9.373  11.406
15016SOL     OW46879   2.892  10.162   9.283
15016SOL    HW146880   2.962  10.217   9.319
15016SOL    HW246881   2.813  10.190   9.329
15017SOL     OW46882   9.860   1.464   9.042
15017SOL    HW146883   9.831   1.403   8.974
15017SOL    HW246884   9.949   1.435   9.064
15018SOL     OW46885   0.204  11.898   8.891
15018SOL    HW146886   0.201  11.870   8.800
15018SOL    HW246887   0.169  11.987   8.891
15019SOL     OW46888   5.018   5.007   9.912
15019SOL    HW146889   5.048   5.028  10.000
15019SOL    HW246890   5.095   4.969   9.869
15020SOL     OW46891   5.495   6.552   5.118
15020SOL    HW146892   5.576   6.506   5.140
15020SOL    HW246893   5.524   6.636   5.083
15021SOL     OW46894  10.084   9.552  14.727
15021SOL    HW146895  10.162   9.596  14.758
15021SOL    HW246896  10.112   9.504  14.649
15022SOL     OW46897   8.107   1.092   4.428
15022SOL    HW146898   8.046   1.118   4.497
15022SOL    HW246899   8.067   1.126   4.348
15023SOL     OW46900   1.809   2.144   7.303
15023SOL    HW146901   1.823   2.151   7.398
15023SOL    HW246902   1.884   2.189   7.264
15024SOL     OW46903   0.219   9.121  12.899
15024SOL    HW146904   0.208   9.214  12.878
15024SOL    HW246905   0.149   9.077  12.850
15025SOL     OW46906  14.274  11.816   1.698
15025SOL    HW146907  14.271  11.782   1.787
15025SOL    HW246908  14.354  11.869   1.695
15026SOL     OW46909   9.588   0.828  10.823
15026SOL    HW146910   9.677   0.803  10.797
15026SOL    HW246911   9.549   0.864  10.743
15027SOL     OW46912   2.042   0.715  10.104
15027SOL    HW146913   2.094   0.680  10.176
15027SOL    HW246914   1.953   0.684  10.121
15028SOL     OW46915   2.833   9.918   8.775
15028SOL    HW146916   2.905   9.876   8.822
15028SOL    HW246917   2.783   9.963   8.843
15029SOL     OW46918   5.414  12.597   2.870
15029SOL    HW146919   5.374  12.528   2.817
15029SOL    HW246920   5.448  12.552   2.947
15030SOL     OW46921   3.802   5.971   0.223
15030SOL    HW146922   3.848   5.899   0.267
15030SOL    HW246923   3.828   6.049   0.271
15031SOL     OW46924   0.038   4.879   9.324
15031SOL    HW146925  14.830   4.869   9.375
15031SOL    HW246926   0.084   4.796   9.334
15032SOL     OW46927   9.515   6.410   3.343
15032SOL    HW146928   9.444   6.471   3.360
15032SOL    HW246929   9.492   6.331   3.392
15033SOL     OW46930  10.086   8.975   3.344
15033SOL    HW146931  10.178   8.960   3.368
15033SOL    HW246932  10.043   8.994   3.427
15034SOL     OW46933  11.660   3.911   5.373
15034SOL    HW146934  11.695   3.856   5.443
15034SOL    HW246935  11.737   3.957   5.338
15035SOL     OW46936   2.306  13.062   0.013
15035SOL    HW146937   2.244  13.097   0.077
15035SOL    HW246938   2.255  13.054  14.804
15036SOL     OW46939  13.722  10.247  14.237
15036SOL    HW146940  13.805  10.262  14.191
15036SOL    HW246941  13.655  10.252  14.169
15037SOL     OW46942  13.283   9.287   9.180
15037SOL    HW146943  13.363   9.254   9.220
15037SOL    HW246944  13.219   9.288   9.252
15038SOL     OW46945   8.866   4.049   4.515
15038SOL    HW146946   8.795   3.988   4.535
15038SOL    HW246947   8.841   4.130   4.561
15039SOL     OW46948  10.569  10.798   3.169
15039SOL    HW146949  10.515  10.834   3.239
15039SOL    HW246950  10.643  10.756   3.214
15040SOL     OW46951   0.703  10.496   3.823
15040SOL    HW146952   0.764  10.551   3.873
15040SOL    HW246953   0.632  10.477   3.885
15041SOL     OW46954   3.882   7.787   4.561
15041SOL    HW146955   3.816   7.856   4.570
15041SOL    HW246956   3.858   7.741   4.481
15042SOL     OW46957  14.684   0.284   0.660
15042SOL    HW146958  14.739   0.321   0.728
15042SOL    HW246959  14.647   0.205   0.698
15043SOL     OW46960   3.248   2.787  13.096
15043SOL    HW146961   3.184   2.824  13.035
15043SOL    HW246962   3.280   2.862  13.146
15044SOL     OW46963   6.865   1.418  13.149
15044SOL    HW146964   6.949   1.463  13.157
15044SOL    HW246965   6.803   1.475  13.194
15045SOL     OW46966  10.653  14.299  11.074
15045SOL    HW146967  10.724  14.234  11.076
15045SOL    HW246968  10.684  14.366  11.013
15046SOL     OW46969   8.059   2.304   7.418
15046SOL    HW146970   8.006   2.373   7.458
15046SOL    HW246971   8.048   2.317   7.324
15047SOL     OW46972   9.372   4.815   6.927
15047SOL    HW146973   9.360   4.741   6.986
15047SOL    HW246974   9.463   4.809   6.899
15048SOL     OW46975   8.510   8.138   9.227
15048SOL    HW146976   8.476   8.199   9.292
15048SOL    HW246977   8.580   8.187   9.183
15049SOL     OW46978   7.959  12.151  14.688
15049SOL    HW146979   7.864  12.157  14.699
15049SOL    HW246980   7.971  12.130  14.596
15050SOL     OW46981  12.225   0.833   4.215
15050SOL    HW146982  12.151   0.788   4.257
15050SOL    HW246983  12.186   0.876   4.139
15051SOL     OW46984   6.108  14.468  13.745
15051SOL    HW146985   6.112  14.380  13.708
15051SOL    HW246986   6.180  14.471  13.808
15052SOL     OW46987  10.920  10.075  13.148
15052SOL    HW146988  10.849  10.135  13.171
15052SOL    HW246989  10.942  10.097  13.058
15053SOL     OW46990  12.768   1.943  14.486
15053SOL    HW146991  12.827   2.017  14.493
15053SOL    HW246992  12.699   1.972  14.426
15054SOL     OW46993  11.856   0.272   6.142
15054SOL    HW146994  11.796   0.217   6.193
15054SOL    HW246995  11.825   0.263   6.052
15055SOL     OW46996   3.440  10.083   4.816
15055SOL    HW146997   3.431  10.095   4.721
15055SOL    HW246998   3.458  10.171   4.849
15056SOL     OW46999   6.195   6.958  12.764
15056SOL    HW147000   6.289   6.937  12.762
15056SOL    HW247001   6.152   6.876  12.738
15057SOL     OW47002   3.939  13.225  11.669
15057SOL    HW147003   3.867  13.268  11.714
15057SOL    HW247004   3.960  13.150  11.724
15058SOL     OW47005   0.416  10.328  12.063
15058SOL    HW147006   0.400  10.257  12.001
15058SOL    HW247007   0.509  10.320  12.083
15059SOL     OW47008  12.810   5.378   4.860
15059SOL    HW147009  12.720   5.346   4.867
15059SOL    HW247010  12.800   5.471   4.839
15060SOL     OW47011   0.347   8.020  13.922
15060SOL    HW147012   0.308   8.034  13.835
15060SOL    HW247013   0.382   7.931  13.917
15061SOL     OW47014  13.959  10.813   0.319
15061SOL    HW147015  13.963  10.813   0.224
15061SOL    HW247016  13.998  10.897   0.344
15062SOL     OW47017  13.475   6.003   1.188
15062SOL    HW147018  13.389   5.963   1.197
15062SOL    HW247019  13.529   5.962   1.256
15063SOL     OW47020   9.956  10.397  11.834
15063SOL    HW147021   9.962  10.455  11.911
15063SOL    HW247022   9.863  10.398  11.811
15064SOL     OW47023  13.399   1.220   2.121
15064SOL    HW147024  13.320   1.166   2.124
15064SOL    HW247025  13.386   1.279   2.047
15065SOL     OW47026  13.350   0.875  10.390
15065SOL    HW147027  13.330   0.839  10.303
15065SOL    HW247028  13.267   0.867  10.438
15066SOL     OW47029   0.868   8.614   8.495
15066SOL    HW147030   0.849   8.655   8.580
15066SOL    HW247031   0.900   8.686   8.441
15067SOL     OW47032  13.193   1.273   1.339
15067SOL    HW147033  13.232   1.187   1.353
15067SOL    HW247034  13.243   1.331   1.397
15068SOL     OW47035  11.891   1.514   4.285
15068SOL    HW147036  11.948   1.572   4.337
15068SOL    HW247037  11.826   1.573   4.246
15069SOL     OW47038  12.863   6.119   0.548
15069SOL    HW147039  12.904   6.035   0.527
15069SOL    HW247040  12.852   6.162   0.463
15070SOL     OW47041   0.885   9.381   4.756
15070SOL    HW147042   0.923   9.448   4.813
15070SOL    HW247043   0.924   9.397   4.670
15071SOL     OW47044  13.377  14.078  13.748
15071SOL    HW147045  13.323  14.038  13.680
15071SOL    HW247046  13.446  14.014  13.764
15072SOL     OW47047   1.360   0.237   1.835
15072SOL    HW147048   1.325   0.325   1.822
15072SOL    HW247049   1.372   0.230   1.930
15073SOL     OW47050   1.191  13.962  12.939
15073SOL    HW147051   1.198  13.960  13.034
15073SOL    HW247052   1.189  14.055  12.916
15074SOL     OW47053   0.548  14.845   4.536
15074SOL    HW147054   0.635  14.817   4.508
15074SOL    HW247055   0.533  14.799   4.618
15075SOL     OW47056   7.601   7.567  12.309
15075SOL    HW147057   7.684   7.532  12.276
15075SOL    HW247058   7.607   7.661  12.293
15076SOL     OW47059   8.993   2.015   1.779
15076SOL    HW147060   9.068   2.049   1.732
15076SOL    HW247061   9.015   2.027   1.872
15077SOL     OW47062  11.050   1.850   9.665
15077SOL    HW147063  11.033   1.856   9.572
15077SOL    HW247064  11.019   1.934   9.701
15078SOL     OW47065   2.543  12.697   9.593
15078SOL    HW147066   2.485  12.740   9.530
15078SOL    HW247067   2.546  12.757   9.668
15079SOL     OW47068   5.928  12.997  13.996
15079SOL    HW147069   5.897  13.056  14.065
15079SOL    HW247070   5.935  12.912  14.040
15080SOL     OW47071   7.705   1.303   3.005
15080SOL    HW147072   7.763   1.333   2.936
15080SOL    HW247073   7.621   1.347   2.987
15081SOL     OW47074   6.744  13.244  14.523
15081SOL    HW147075   6.772  13.307  14.456
15081SOL    HW247076   6.664  13.205  14.488
15082SOL     OW47077   6.726   1.999   1.717
15082SOL    HW147078   6.749   2.046   1.636
15082SOL    HW247079   6.658   2.053   1.757
15083SOL     OW47080   6.297   7.155   8.459
15083SOL    HW147081   6.284   7.200   8.543
15083SOL    HW247082   6.368   7.093   8.475
15084SOL     OW47083  11.689  12.339   1.999
15084SOL    HW147084  11.631  12.312   2.071
15084SOL    HW247085  11.629  12.362   1.928
15085SOL     OW47086   7.371   6.637  12.345
15085SOL    HW147087   7.379   6.582  12.424
15085SOL    HW247088   7.409   6.584  12.275
15086SOL     OW47089  10.227   6.073  13.914
15086SOL    HW147090  10.278   6.149  13.888
15086SOL    HW247091  10.293   6.004  13.930
15087SOL     OW47092  11.726   9.194  10.635
15087SOL    HW147093  11.815   9.174  10.664
15087SOL    HW247094  11.725   9.173  10.542
15088SOL     OW47095  13.147   7.329  11.995
15088SOL    HW147096  13.225   7.306  12.044
15088SOL    HW247097  13.180   7.372  11.916
15089SOL     OW47098   1.758   7.093   8.976
15089SOL    HW147099   1.843   7.136   8.982
15089SOL    HW247100   1.700   7.161   8.940
15090SOL     OW47101   3.615   4.894   9.118
15090SOL    HW147102   3.687   4.942   9.075
15090SOL    HW247103   3.579   4.957   9.181
15091SOL     OW47104  13.989   0.157  13.828
15091SOL    HW147105  14.004   0.234  13.882
15091SOL    HW247106  13.984   0.191  13.738
15092SOL     OW47107  11.912   8.324   9.321
15092SOL    HW147108  11.858   8.251   9.291
15092SOL    HW247109  11.908   8.388   9.250
15093SOL     OW47110   4.367   7.349  10.673
15093SOL    HW147111   4.378   7.364  10.767
15093SOL    HW247112   4.275   7.368  10.656
15094SOL     OW47113   6.626   6.536   6.190
15094SOL    HW147114   6.632   6.583   6.107
15094SOL    HW247115   6.535   6.546   6.217
15095SOL     OW47116   8.289   1.137   5.134
15095SOL    HW147117   8.342   1.088   5.071
15095SOL    HW247118   8.323   1.226   5.131
15096SOL     OW47119   8.544   6.904  13.377
15096SOL    HW147120   8.455   6.869  13.382
15096SOL    HW247121   8.580   6.891  13.465
15097SOL     OW47122   6.876   8.253   0.734
15097SOL    HW147123   6.860   8.203   0.814
15097SOL    HW247124   6.940   8.319   0.760
15098SOL     OW47125  13.881   4.366  13.854
15098SOL    HW147126  13.790   4.385  13.875
15098SOL    HW247127  13.932   4.420  13.915
15099SOL     OW47128   2.604  13.503   8.044
15099SOL    HW147129   2.631  13.414   8.022
15099SOL    HW247130   2.683  13.555   8.034
15100SOL     OW47131   2.423   2.834   2.902
15100SOL    HW147132   2.337   2.819   2.863
15100SOL    HW247133   2.413   2.915   2.952
15101SOL     OW47134  14.566   4.415   5.761
15101SOL    HW147135  14.519   4.424   5.678
15101SOL    HW247136  14.526   4.481   5.818
15102SOL     OW47137   5.146  12.706   0.636
15102SOL    HW147138   5.080  12.638   0.632
15102SOL    HW247139   5.230  12.659   0.631
15103SOL     OW47140  14.088   5.712   4.669
15103SOL    HW147141  14.164   5.706   4.727
15103SOL    HW247142  14.018   5.665   4.716
15104SOL     OW47143  10.747   4.137   8.596
15104SOL    HW147144  10.767   4.071   8.530
15104SOL    HW247145  10.830   4.152   8.642
15105SOL     OW47146  11.216   5.095   9.307
15105SOL    HW147147  11.194   5.164   9.244
15105SOL    HW247148  11.163   5.116   9.384
15106SOL     OW47149   7.430  13.981  13.154
15106SOL    HW147150   7.518  14.018  13.165
15106SOL    HW247151   7.411  13.940  13.238
15107SOL     OW47152   1.923   2.550  12.634
15107SOL    HW147153   1.982   2.511  12.570
15107SOL    HW247154   1.951   2.513  12.718
15108SOL     OW47155   6.309   1.316   1.079
15108SOL    HW147156   6.323   1.389   1.139
15108SOL    HW247157   6.224   1.280   1.104
15109SOL     OW47158   7.787   8.930   6.821
15109SOL    HW147159   7.724   8.964   6.758
15109SOL    HW247160   7.866   8.983   6.806
15110SOL     OW47161  10.867  12.409  13.442
15110SOL    HW147162  10.876  12.322  13.402
15110SOL    HW247163  10.908  12.400  13.528
15111SOL     OW47164   5.406   3.900  11.696
15111SOL    HW147165   5.485   3.950  11.675
15111SOL    HW247166   5.389   3.848  11.617
15112SOL     OW47167   3.779   1.434  13.853
15112SOL    HW147168   3.799   1.504  13.790
15112SOL    HW247169   3.765   1.357  13.799
15113SOL     OW47170   9.686   4.204   0.062
15113SOL    HW147171   9.774   4.188   0.095
15113SOL    HW247172   9.656   4.281   0.111
15114SOL     OW47173   4.733   1.240   0.433
15114SOL    HW147174   4.781   1.172   0.385
15114SOL    HW247175   4.787   1.318   0.422
15115SOL     OW47176  10.469   9.732   4.354
15115SOL    HW147177  10.489   9.770   4.439
15115SOL    HW247178  10.403   9.664   4.373
15116SOL     OW47179  13.780  10.321   6.547
15116SOL    HW147180  13.773  10.387   6.616
15116SOL    HW247181  13.720  10.251   6.576
15117SOL     OW47182   1.433  10.678  10.535
15117SOL    HW147183   1.341  10.692  10.556
15117SOL    HW247184   1.434  10.663  10.441
15118SOL     OW47185   2.599   7.011   0.267
15118SOL    HW147186   2.647   7.001   0.184
15118SOL    HW247187   2.667   7.022   0.333
15119SOL     OW47188  13.596   0.448  11.140
15119SOL    HW147189  13.506   0.462  11.170
15119SOL    HW247190  13.636   0.535  11.141
15120SOL     OW47191  14.264  14.190   5.952
15120SOL    HW147192  14.260  14.284   5.935
15120SOL    HW247193  14.176  14.167   5.981
15121SOL     OW47194   3.891   9.126  14.565
15121SOL    HW147195   3.952   9.187  14.523
15121SOL    HW247196   3.894   9.150  14.658
15122SOL     OW47197   5.162   1.581   0.237
15122SOL    HW147198   5.182   1.666   0.198
15122SOL    HW247199   5.163   1.598   0.332
15123SOL     OW47200  10.289   0.056  11.735
15123SOL    HW147201  10.225  14.867  11.772
15123SOL    HW247202  10.368   0.042  11.788
15124SOL     OW47203   6.961   3.421   6.278
15124SOL    HW147204   6.893   3.386   6.220
15124SOL    HW247205   7.016   3.475   6.221
15125SOL     OW47206   8.743   5.358   2.819
15125SOL    HW147207   8.680   5.291   2.845
15125SOL    HW247208   8.827   5.311   2.815
15126SOL     OW47209  14.014   9.575   6.452
15126SOL    HW147210  14.020   9.606   6.542
15126SOL    HW247211  14.104   9.577   6.420
15127SOL     OW47212  13.790   8.452   4.229
15127SOL    HW147213  13.730   8.395   4.276
15127SOL    HW247214  13.851   8.393   4.186
15128SOL     OW47215  12.934   0.124   0.523
15128SOL    HW147216  12.971   0.175   0.451
15128SOL    HW247217  12.876   0.060   0.480
15129SOL     OW47218   4.633  14.754  13.241
15129SOL    HW147219   4.546  14.716  13.251
15129SOL    HW247220   4.620  14.830  13.184
15130SOL     OW47221   7.318  13.227   9.172
15130SOL    HW147222   7.388  13.166   9.195
15130SOL    HW247223   7.308  13.219   9.077
15131SOL     OW47224   3.584   8.930   5.915
15131SOL    HW147225   3.592   9.015   5.959
15131SOL    HW247226   3.608   8.866   5.982
15132SOL     OW47227  11.251   3.451   0.805
15132SOL    HW147228  11.310   3.458   0.730
15132SOL    HW247229  11.180   3.394   0.774
15133SOL     OW47230   8.954   9.072   4.162
15133SOL    HW147231   9.003   9.062   4.081
15133SOL    HW247232   8.979   8.997   4.215
15134SOL     OW47233   0.998   3.466   6.908
15134SOL    HW147234   0.992   3.510   6.993
15134SOL    HW247235   0.926   3.403   6.908
15135SOL     OW47236   6.249   9.165  11.038
15135SOL    HW147237   6.302   9.107  11.093
15135SOL    HW247238   6.200   9.218  11.100
15136SOL     OW47239   0.252   0.802  11.259
15136SOL    HW147240   0.305   0.737  11.214
15136SOL    HW247241   0.303   0.883  11.254
15137SOL     OW47242   9.661  12.301   8.658
15137SOL    HW147243   9.583  12.298   8.602
15137SOL    HW247244   9.730  12.261   8.604
15138SOL     OW47245  11.882  11.916   2.494
15138SOL    HW147246  11.880  11.895   2.401
15138SOL    HW247247  11.864  11.832   2.538
15139SOL     OW47248  12.582   6.676  11.586
15139SOL    HW147249  12.551   6.763  11.557
15139SOL    HW247250  12.629   6.693  11.667
15140SOL     OW47251  10.852   5.229   1.858
15140SOL    HW147252  10.788   5.161   1.878
15140SOL    HW247253  10.937   5.185   1.860
15141SOL     OW47254   4.402   2.787  13.108
15141SOL    HW147255   4.393   2.874  13.069
15141SOL    HW247256   4.319   2.771  13.151
15142SOL     OW47257   5.608  11.831   3.110
15142SOL    HW147258   5.513  11.840   3.098
15142SOL    HW247259   5.645  11.910   3.072
15143SOL     OW47260   8.789   3.251  13.547
15143SOL    HW147261   8.829   3.184  13.603
15143SOL    HW247262   8.851   3.263  13.475
15144SOL     OW47263   9.159   0.898   8.630
15144SOL    HW147264   9.092   0.868   8.692
15144SOL    HW247265   9.237   0.847   8.654
15145SOL     OW47266  12.855   5.114  12.127
15145SOL    HW147267  12.887   5.024  12.116
15145SOL    HW247268  12.925   5.159  12.172
15146SOL     OW47269  13.047   8.300  12.249
15146SOL    HW147270  13.093   8.289  12.165
15146SOL    HW247271  12.972   8.355  12.228
15147SOL     OW47272  12.482   8.221   4.021
15147SOL    HW147273  12.494   8.279   3.946
15147SOL    HW247274  12.535   8.144   3.999
15148SOL     OW47275  13.006  11.055  11.013
15148SOL    HW147276  13.099  11.071  11.025
15148SOL    HW247277  13.001  11.003  10.932
15149SOL     OW47278   2.778  11.173  14.221
15149SOL    HW147279   2.722  11.186  14.298
15149SOL    HW247280   2.740  11.228  14.153
15150SOL     OW47281   8.903   6.784   5.300
15150SOL    HW147282   8.878   6.801   5.391
15150SOL    HW247283   8.963   6.856   5.278
15151SOL     OW47284  10.040  13.505   5.653
15151SOL    HW147285  10.125  13.492   5.611
15151SOL    HW247286  10.004  13.583   5.611
15152SOL     OW47287  12.383   7.061   5.183
15152SOL    HW147288  12.412   7.026   5.099
15152SOL    HW247289  12.297   7.021   5.198
15153SOL     OW47290   0.906   9.187   9.637
15153SOL    HW147291   0.814   9.204   9.616
15153SOL    HW247292   0.954   9.216   9.560
15154SOL     OW47293   1.429   4.744   4.075
15154SOL    HW147294   1.452   4.819   4.020
15154SOL    HW247295   1.372   4.781   4.143
15155SOL     OW47296  13.402   4.085   6.187
15155SOL    HW147297  13.380   3.993   6.196
15155SOL    HW247298  13.346   4.117   6.116
15156SOL     OW47299   7.532   3.828  11.922
15156SOL    HW147300   7.523   3.875  12.004
15156SOL    HW247301   7.565   3.741  11.947
15157SOL     OW47302  13.083   0.624  10.437
15157SOL    HW147303  12.999   0.629  10.391
15157SOL    HW247304  13.099   0.713  10.467
15158SOL     OW47305   9.067  13.649  11.228
15158SOL    HW147306   9.137  13.678  11.170
15158SOL    HW247307   8.992  13.703  11.203
15159SOL     OW47308   9.751  12.339   3.884
15159SOL    HW147309   9.802  12.356   3.963
15159SOL    HW247310   9.674  12.292   3.914
15160SOL     OW47311   3.067   9.434   2.146
15160SOL    HW147312   3.015   9.514   2.137
15160SOL    HW247313   3.137   9.457   2.206
15161SOL     OW47314   1.091   6.577  11.863
15161SOL    HW147315   1.170   6.586  11.809
15161SOL    HW247316   1.066   6.667  11.884
15162SOL     OW47317   5.506  14.364   2.318
15162SOL    HW147318   5.599  14.353   2.298
15162SOL    HW247319   5.494  14.459   2.324
15163SOL     OW47320  14.838  12.603   0.116
15163SOL    HW147321  14.820  12.626   0.025
15163SOL    HW247322   0.062  12.602   0.121
15164SOL     OW47323  10.954  11.550   6.569
15164SOL    HW147324  10.859  11.560   6.571
15164SOL    HW247325  10.986  11.634   6.535
15165SOL     OW47326  14.442   2.539   3.216
15165SOL    HW147327  14.359   2.539   3.264
15165SOL    HW247328  14.479   2.452   3.231
15166SOL     OW47329   4.977   4.481   4.976
15166SOL    HW147330   5.051   4.541   4.982
15166SOL    HW247331   4.983   4.427   5.055
15167SOL     OW47332  10.858  12.393   5.513
15167SOL    HW147333  10.950  12.368   5.515
15167SOL    HW247334  10.858  12.486   5.492
15168SOL     OW47335  12.578   0.830  14.691
15168SOL    HW147336  12.518   0.783  14.749
15168SOL    HW247337  12.652   0.770  14.681
15169SOL     OW47338  10.801   9.125   4.636
15169SOL    HW147339  10.896   9.119   4.627
15169SOL    HW247340  10.779   9.210   4.597
15170SOL     OW47341  14.290   5.874   1.064
15170SOL    HW147342  14.368   5.928   1.078
15170SOL    HW247343  14.308   5.794   1.113
15171SOL     OW47344  10.264  11.653  12.702
15171SOL    HW147345  10.271  11.567  12.743
15171SOL    HW247346  10.277  11.637  12.609
15172SOL     OW47347   7.675   1.382   9.468
15172SOL    HW147348   7.725   1.395   9.548
15172SOL    HW247349   7.684   1.465   9.421
15173SOL     OW47350  12.088   6.042  13.218
15173SOL    HW147351  12.132   6.092  13.149
15173SOL    HW247352  12.060   5.961  13.176
15174SOL     OW47353   4.062  10.119  11.323
15174SOL    HW147354   4.063  10.135  11.229
15174SOL    HW247355   4.003  10.045  11.334
15175SOL     OW47356   4.810   2.729   6.522
15175SOL    HW147357   4.774   2.678   6.449
15175SOL    HW247358   4.829   2.815   6.484
15176SOL     OW47359  14.740  11.273  10.841
15176SOL    HW147360  14.663  11.280  10.897
15176SOL    HW247361  14.810  11.241  10.899
15177SOL     OW47362   2.317  12.000   5.524
15177SOL    HW147363   2.350  12.062   5.589
15177SOL    HW247364   2.309  11.917   5.572
15178SOL     OW47365   8.401  14.008   8.252
15178SOL    HW147366   8.465  14.063   8.206
15178SOL    HW247367   8.453  13.958   8.315
15179SOL     OW47368   8.500  13.362   4.689
15179SOL    HW147369   8.569  13.428   4.697
15179SOL    HW247370   8.426  13.408   4.650
15180SOL     OW47371  11.926  11.661   6.595
15180SOL    HW147372  11.885  11.689   6.677
15180SOL    HW247373  11.907  11.568   6.589
15181SOL     OW47374  11.725  12.605  11.555
15181SOL    HW147375  11.786  12.673  11.526
15181SOL    HW247376  11.638  12.641  11.537
15182SOL     OW47377   5.361  12.932   3.085
15182SOL    HW147378   5.448  12.972   3.085
15182SOL    HW247379   5.347  12.904   2.995
15183SOL     OW47380   1.148   3.641  13.366
15183SOL    HW147381   1.165   3.705  13.434
15183SOL    HW247382   1.134   3.693  13.287
15184SOL     OW47383  13.431   9.256  12.381
15184SOL    HW147384  13.522   9.229  12.394
15184SOL    HW247385  13.437   9.342  12.340
15185SOL     OW47386   3.896   5.000   8.715
15185SOL    HW147387   3.899   4.908   8.687
15185SOL    HW247388   3.908   5.050   8.633
15186SOL     OW47389   9.945  10.073   6.680
15186SOL    HW147390   9.977   9.986   6.706
15186SOL    HW247391   9.871  10.055   6.622
15187SOL     OW47392   7.192  10.753   1.075
15187SOL    HW147393   7.176  10.766   1.168
15187SOL    HW247394   7.209  10.659   1.066
15188SOL     OW47395   5.390  13.204   5.147
15188SOL    HW147396   5.368  13.213   5.240
15188SOL    HW247397   5.335  13.269   5.103
15189SOL     OW47398   0.098   2.232  14.845
15189SOL    HW147399   0.172   2.205  14.790
15189SOL    HW247400   0.022   2.229  14.786
15190SOL     OW47401  11.008   5.451   6.202
15190SOL    HW147402  11.102   5.459   6.188
15190SOL    HW247403  10.980   5.539   6.229
15191SOL     OW47404   4.406   3.807  13.834
15191SOL    HW147405   4.455   3.832  13.756
15191SOL    HW247406   4.422   3.878  13.897
15192SOL     OW47407   2.759   7.833   0.062
15192SOL    HW147408   2.809   7.777   0.003
15192SOL    HW247409   2.669   7.829   0.029
15193SOL     OW47410   1.468   8.110   0.988
15193SOL    HW147411   1.522   8.125   1.066
15193SOL    HW247412   1.466   8.196   0.944
15194SOL     OW47413   0.357   0.727   0.577
15194SOL    HW147414   0.273   0.765   0.601
15194SOL    HW247415   0.335   0.659   0.514
15195SOL     OW47416   9.257  10.451   1.947
15195SOL    HW147417   9.180  10.466   1.892
15195SOL    HW247418   9.263  10.530   2.001
15196SOL     OW47419   2.787   9.720   8.538
15196SOL    HW147420   2.845   9.796   8.533
15196SOL    HW247421   2.733   9.725   8.458
15197SOL     OW47422   5.353   8.027   0.330
15197SOL    HW147423   5.409   7.951   0.341
15197SOL    HW247424   5.408   8.091   0.284
15198SOL     OW47425   9.909  12.470  10.639
15198SOL    HW147426   9.858  12.547  10.616
15198SOL    HW247427   9.962  12.452  10.561
15199SOL     OW47428   8.263   2.763  13.311
15199SOL    HW147429   8.213   2.800  13.239
15199SOL    HW247430   8.319   2.834  13.341
15200SOL     OW47431   7.539   9.927  11.900
15200SOL    HW147432   7.519   9.841  11.935
15200SOL    HW247433   7.597   9.966  11.966
15201SOL     OW47434   0.489   4.425   2.055
15201SOL    HW147435   0.579   4.392   2.056
15201SOL    HW247436   0.497   4.518   2.077
15202SOL     OW47437  10.995   5.548   2.988
15202SOL    HW147438  10.926   5.598   3.032
15202SOL    HW247439  10.964   5.457   2.991
15203SOL     OW47440  10.996   6.039   7.771
15203SOL    HW147441  11.022   6.130   7.784
15203SOL    HW247442  11.000   6.025   7.677
15204SOL     OW47443   0.340   5.141   0.793
15204SOL    HW147444   0.295   5.134   0.709
15204SOL    HW247445   0.310   5.064   0.842
15205SOL     OW47446   2.383   9.212  12.943
15205SOL    HW147447   2.393   9.195  13.037
15205SOL    HW247448   2.293   9.245  12.934
15206SOL     OW47449   6.264  13.925   1.108
15206SOL    HW147450   6.298  13.877   1.184
15206SOL    HW247451   6.170  13.910   1.111
15207SOL     OW47452   4.784   0.869   0.718
15207SOL    HW147453   4.805   0.962   0.712
15207SOL    HW247454   4.813   0.842   0.805
15208SOL     OW47455   0.739   8.160   6.411
15208SOL    HW147456   0.669   8.129   6.355
15208SOL    HW247457   0.779   8.081   6.447
15209SOL     OW47458   2.431   7.791   8.267
15209SOL    HW147459   2.344   7.829   8.261
15209SOL    HW247460   2.441   7.741   8.186
15210SOL     OW47461  10.274   3.363   8.307
15210SOL    HW147462  10.262   3.457   8.291
15210SOL    HW247463  10.270   3.324   8.220
15211SOL     OW47464   2.063  11.397   5.630
15211SOL    HW147465   1.993  11.353   5.582
15211SOL    HW247466   2.032  11.400   5.721
15212SOL     OW47467  14.415   2.024   4.536
15212SOL    HW147468  14.487   2.035   4.473
15212SOL    HW247469  14.426   1.935   4.569
15213SOL     OW47470  11.984   3.764  13.751
15213SOL    HW147471  12.067   3.778  13.797
15213SOL    HW247472  11.979   3.837  13.689
15214SOL     OW47473  11.960   8.364   4.250
15214SOL    HW147474  11.996   8.452   4.236
15214SOL    HW247475  11.925   8.339   4.165
15215SOL     OW47476  11.187  13.800   7.262
15215SOL    HW147477  11.178  13.723   7.318
15215SOL    HW247478  11.245  13.859   7.311
15216SOL     OW47479  10.479   9.528   9.754
15216SOL    HW147480  10.540   9.483   9.695
15216SOL    HW247481  10.417   9.461   9.781
15217SOL     OW47482  11.679  10.568  12.202
15217SOL    HW147483  11.713  10.658  12.205
15217SOL    HW247484  11.721  10.525  12.277
15218SOL     OW47485   1.329   5.419   7.044
15218SOL    HW147486   1.267   5.392   7.112
15218SOL    HW247487   1.326   5.515   7.046
15219SOL     OW47488   7.561  10.327   0.924
15219SOL    HW147489   7.542  10.375   1.005
15219SOL    HW247490   7.558  10.235   0.949
15220SOL     OW47491   3.419  10.554   1.399
15220SOL    HW147492   3.401  10.615   1.470
15220SOL    HW247493   3.438  10.610   1.324
15221SOL     OW47494   5.636   2.871   3.217
15221SOL    HW147495   5.620   2.963   3.237
15221SOL    HW247496   5.618   2.825   3.299
15222SOL     OW47497   6.868   6.207   7.730
15222SOL    HW147498   6.928   6.252   7.671
15222SOL    HW247499   6.882   6.114   7.712
15223SOL     OW47500   1.629  10.861   8.514
15223SOL    HW147501   1.554  10.855   8.455
15223SOL    HW247502   1.669  10.775   8.512
15224SOL     OW47503   2.632   5.397   6.206
15224SOL    HW147504   2.694   5.387   6.133
15224SOL    HW247505   2.549   5.420   6.163
15225SOL     OW47506   0.354   5.725   7.799
15225SOL    HW147507   0.292   5.707   7.728
15225SOL    HW247508   0.362   5.821   7.800
15226SOL     OW47509  13.183   3.477  10.478
15226SOL    HW147510  13.156   3.385  10.488
15226SOL    HW247511  13.234   3.478  10.398
15227SOL     OW47512  11.056   1.309   5.250
15227SOL    HW147513  11.004   1.366   5.194
15227SOL    HW247514  11.074   1.232   5.196
15228SOL     OW47515   6.341   0.193   8.826
15228SOL    HW147516   6.268   0.154   8.777
15228SOL    HW247517   6.420   0.156   8.784
15229SOL     OW47518   7.600   6.745   9.905
15229SOL    HW147519   7.576   6.768   9.995
15229SOL    HW247520   7.689   6.710   9.912
15230SOL     OW47521   9.473   4.852  13.010
15230SOL    HW147522   9.400   4.913  13.020
15230SOL    HW247523   9.549   4.908  12.991
15231SOL     OW47524  14.614  12.990   7.596
15231SOL    HW147525  14.705  13.020   7.594
15231SOL    HW247526  14.617  12.903   7.558
15232SOL     OW47527   0.467  12.969  12.522
15232SOL    HW147528   0.420  13.030  12.465
15232SOL    HW247529   0.398  12.917  12.563
15233SOL     OW47530   0.741   2.730   5.496
15233SOL    HW147531   0.798   2.772   5.560
15233SOL    HW247532   0.750   2.783   5.417
15234SOL     OW47533   1.476  14.567  13.163
15234SOL    HW147534   1.458  14.644  13.109
15234SOL    HW247535   1.404  14.507  13.144
15235SOL     OW47536   6.161  14.000  10.266
15235SOL    HW147537   6.153  13.985  10.360
15235SOL    HW247538   6.165  14.095  10.257
15236SOL     OW47539   3.375   8.912  13.449
15236SOL    HW147540   3.383   8.952  13.536
15236SOL    HW247541   3.367   8.818  13.466
15237SOL     OW47542   1.373   7.846   5.459
15237SOL    HW147543   1.334   7.933   5.456
15237SOL    HW247544   1.387   7.824   5.367
15238SOL     OW47545   5.557   3.825   5.957
15238SOL    HW147546   5.602   3.780   5.885
15238SOL    HW247547   5.547   3.915   5.927
15239SOL     OW47548  13.740   4.081   7.270
15239SOL    HW147549  13.822   4.045   7.236
15239SOL    HW247550  13.684   4.004   7.283
15240SOL     OW47551   1.127  11.518  11.798
15240SOL    HW147552   1.063  11.506  11.868
15240SOL    HW247553   1.127  11.612  11.781
15241SOL     OW47554   8.848   4.524   1.985
15241SOL    HW147555   8.815   4.539   2.074
15241SOL    HW247556   8.876   4.432   1.985
15242SOL     OW47557   2.778  11.835  10.620
15242SOL    HW147558   2.716  11.778  10.665
15242SOL    HW247559   2.819  11.778  10.555
15243SOL     OW47560   9.046   9.614  10.004
15243SOL    HW147561   9.036   9.683   9.938
15243SOL    HW247562   8.977   9.551   9.984
15244SOL     OW47563   4.138   6.927  11.624
15244SOL    HW147564   4.125   6.995  11.557
15244SOL    HW247565   4.176   6.974  11.698
15245SOL     OW47566   5.174  14.099   9.606
15245SOL    HW147567   5.084  14.081   9.579
15245SOL    HW247568   5.190  14.035   9.676
15246SOL     OW47569   2.983   3.824   6.701
15246SOL    HW147570   2.992   3.739   6.745
15246SOL    HW247571   3.063   3.872   6.723
15247SOL     OW47572   5.255   2.707  14.393
15247SOL    HW147573   5.252   2.756  14.475
15247SOL    HW247574   5.345   2.675  14.388
15248SOL     OW47575   7.998   7.044  12.415
15248SOL    HW147576   8.073   6.993  12.386
15248SOL    HW247577   7.939   6.979  12.455
15249SOL     OW47578   0.348  10.875  11.957
15249SOL    HW147579   0.293  10.821  11.900
15249SOL    HW247580   0.411  10.814  11.995
15250SOL     OW47581   9.584  11.067   4.612
15250SOL    HW147582   9.555  11.139   4.556
15250SOL    HW247583   9.537  11.080   4.694
15251SOL     OW47584  11.663   9.350   3.993
15251SOL    HW147585  11.640   9.300   3.915
15251SOL    HW247586  11.690   9.436   3.960
15252SOL     OW47587  11.575   1.290  13.069
15252SOL    HW147588  11.590   1.383  13.087
15252SOL    HW247589  11.655   1.261  13.025
15253SOL     OW47590   7.754   3.266   7.164
15253SOL    HW147591   7.816   3.245   7.094
15253SOL    HW247592   7.688   3.322   7.121
15254SOL     OW47593   5.266   9.334   2.788
15254SOL    HW147594   5.335   9.329   2.854
15254SOL    HW247595   5.194   9.282   2.823
15255SOL     OW47596   4.753  10.304   2.170
15255SOL    HW147597   4.738  10.210   2.180
15255SOL    HW247598   4.837  10.320   2.214
15256SOL     OW47599  13.500   2.785   9.558
15256SOL    HW147600  13.451   2.855   9.599
15256SOL    HW247601  13.584   2.824   9.535
15257SOL     OW47602   3.148  11.500   4.202
15257SOL    HW147603   3.187  11.582   4.232
15257SOL    HW247604   3.074  11.527   4.148
15258SOL     OW47605   2.436   3.205   0.043
15258SOL    HW147606   2.473   3.240   0.124
15258SOL    HW247607   2.460   3.269  14.848
15259SOL     OW47608   9.128  14.486   8.526
15259SOL    HW147609   9.188  14.433   8.474
15259SOL    HW247610   9.062  14.425   8.559
15260SOL     OW47611   8.658   5.362   5.279
15260SOL    HW147612   8.600   5.374   5.354
15260SOL    HW247613   8.666   5.268   5.269
15261SOL     OW47614   7.958   2.505   1.676
15261SOL    HW147615   7.935   2.470   1.762
15261SOL    HW247616   7.994   2.430   1.628
15262SOL     OW47617   3.556   4.320   3.513
15262SOL    HW147618   3.527   4.303   3.423
15262SOL    HW247619   3.612   4.245   3.535
15263SOL     OW47620   9.234   8.317   4.009
15263SOL    HW147621   9.185   8.311   4.091
15263SOL    HW247622   9.324   8.338   4.036
15264SOL     OW47623   8.815   8.639  13.718
15264SOL    HW147624   8.765   8.572  13.764
15264SOL    HW247625   8.753   8.712  13.707
15265SOL     OW47626   9.751   5.610   6.859
15265SOL    HW147627   9.833   5.630   6.905
15265SOL    HW247628   9.693   5.683   6.880
15266SOL     OW47629   0.595   1.778   6.296
15266SOL    HW147630   0.647   1.698   6.297
15266SOL    HW247631   0.645   1.839   6.242
15267SOL     OW47632  13.506   0.785  12.097
15267SOL    HW147633  13.588   0.738  12.085
15267SOL    HW247634  13.529   0.859  12.153
15268SOL     OW47635  13.268   3.936   8.200
15268SOL    HW147636  13.258   3.914   8.108
15268SOL    HW247637  13.194   3.892   8.243
15269SOL     OW47638   0.824  14.056   8.171
15269SOL    HW147639   0.855  14.123   8.111
15269SOL    HW247640   0.805  14.103   8.252
15270SOL     OW47641  12.648   6.485  10.078
15270SOL    HW147642  12.636   6.528  10.162
15270SOL    HW247643  12.559   6.465  10.048
15271SOL     OW47644  13.296   7.964   5.466
15271SOL    HW147645  13.293   8.002   5.553
15271SOL    HW247646  13.229   7.895   5.468
15272SOL     OW47647  10.000  11.117   9.955
15272SOL    HW147648  10.087  11.155   9.954
15272SOL    HW247649  10.008  11.036   9.906
15273SOL     OW47650   1.078   3.597   3.175
15273SOL    HW147651   1.170   3.573   3.186
15273SOL    HW247652   1.048   3.543   3.102
15274SOL     OW47653   4.695   9.701   1.371
15274SOL    HW147654   4.653   9.624   1.409
15274SOL    HW247655   4.643   9.775   1.403
15275SOL     OW47656  12.873   7.197   2.412
15275SOL    HW147657  12.894   7.282   2.374
15275SOL    HW247658  12.904   7.202   2.502
15276SOL     OW47659  12.811   7.011   2.705
15276SOL    HW147660  12.886   6.953   2.718
15276SOL    HW247661  12.849   7.098   2.698
15277SOL     OW47662  13.345   2.228   4.187
15277SOL    HW147663  13.431   2.201   4.155
15277SOL    HW247664  13.329   2.172   4.263
15278SOL     OW47665  13.018  12.613  11.111
15278SOL    HW147666  13.067  12.556  11.053
15278SOL    HW247667  12.926  12.596  11.089
15279SOL     OW47668  14.116   8.595   7.474
15279SOL    HW147669  14.042   8.564   7.526
15279SOL    HW247670  14.075   8.639   7.398
15280SOL     OW47671   2.858  14.738   5.621
15280SOL    HW147672   2.799  14.710   5.692
15280SOL    HW247673   2.934  14.680   5.630
15281SOL     OW47674   0.595   5.171   8.537
15281SOL    HW147675   0.602   5.266   8.525
15281SOL    HW247676   0.650   5.152   8.613
15282SOL     OW47677  14.835  13.554   8.006
15282SOL    HW147678   0.057  13.564   8.017
15282SOL    HW247679  14.807  13.637   7.966
15283SOL     OW47680   2.624  12.571   3.585
15283SOL    HW147681   2.698  12.627   3.607
15283SOL    HW247682   2.621  12.570   3.490
15284SOL     OW47683   3.664   4.724   3.017
15284SOL    HW147684   3.672   4.630   2.999
15284SOL    HW247685   3.718   4.766   2.951
15285SOL     OW47686   7.973   0.988  14.303
15285SOL    HW147687   7.907   0.921  14.284
15285SOL    HW247688   7.975   0.994  14.398
15286SOL     OW47689  11.476   5.464   1.159
15286SOL    HW147690  11.536   5.495   1.227
15286SOL    HW247691  11.437   5.385   1.195
15287SOL     OW47692  14.745   8.423  10.237
15287SOL    HW147693  14.770   8.514  10.255
15287SOL    HW247694  14.791   8.400  10.157
15288SOL     OW47695   4.622   0.956   6.286
15288SOL    HW147696   4.586   1.044   6.287
15288SOL    HW247697   4.559   0.905   6.235
15289SOL     OW47698   2.671  10.405   1.077
15289SOL    HW147699   2.698  10.376   0.990
15289SOL    HW247700   2.752  10.411   1.127
15290SOL     OW47701   0.753   6.925   4.654
15290SOL    HW147702   0.830   6.869   4.661
15290SOL    HW247703   0.737   6.932   4.560
15291SOL     OW47704   5.693   2.036  13.641
15291SOL    HW147705   5.632   2.091  13.690
15291SOL    HW247706   5.743   1.989  13.708
15292SOL     OW47707   5.495   9.948  13.370
15292SOL    HW147708   5.544   9.872  13.338
15292SOL    HW247709   5.403   9.924  13.360
15293SOL     OW47710  12.984   2.800   3.377
15293SOL    HW147711  13.061   2.745   3.368
15293SOL    HW247712  12.925   2.772   3.308
15294SOL     OW47713   6.821   0.874   8.103
15294SOL    HW147714   6.871   0.921   8.036
15294SOL    HW247715   6.868   0.791   8.114
15295SOL     OW47716  10.435   9.709   1.987
15295SOL    HW147717  10.467   9.661   2.064
15295SOL    HW247718  10.348   9.673   1.971
15296SOL     OW47719   8.390  14.670   8.135
15296SOL    HW147720   8.393  14.578   8.109
15296SOL    HW247721   8.355  14.716   8.058
15297SOL     OW47722  12.270  12.499   1.072
15297SOL    HW147723  12.228  12.413   1.077
15297SOL    HW247724  12.359  12.480   1.042
15298SOL     OW47725   4.341   9.961  13.620
15298SOL    HW147726   4.340  10.015  13.540
15298SOL    HW247727   4.319   9.873  13.589
15299SOL     OW47728   7.854   3.748   0.288
15299SOL    HW147729   7.897   3.833   0.300
15299SOL    HW247730   7.918   3.695   0.241
15300SOL     OW47731  13.757  11.090  10.756
15300SOL    HW147732  13.678  11.089  10.809
15300SOL    HW247733  13.771  11.182  10.734
15301SOL     OW47734   3.869   3.950   3.443
15301SOL    HW147735   3.871   3.922   3.535
15301SOL    HW247736   3.958   3.933   3.411
15302SOL     OW47737   8.599  13.950  13.570
15302SOL    HW147738   8.547  13.871  13.582
15302SOL    HW247739   8.668  13.925  13.510
15303SOL     OW47740   8.223   2.252  12.445
15303SOL    HW147741   8.254   2.161  12.441
15303SOL    HW247742   8.204   2.266  12.538
15304SOL     OW47743  13.966   7.147   3.305
15304SOL    HW147744  14.010   7.086   3.245
15304SOL    HW247745  14.023   7.224   3.306
15305SOL     OW47746   3.389  10.061  14.512
15305SOL    HW147747   3.317  10.123  14.509
15305SOL    HW247748   3.458  10.102  14.460
15306SOL     OW47749   2.490  12.655   8.696
15306SOL    HW147750   2.441  12.664   8.614
15306SOL    HW247751   2.430  12.609   8.755
15307SOL     OW47752   4.278   8.728  12.444
15307SOL    HW147753   4.298   8.760  12.532
15307SOL    HW247754   4.182   8.731  12.439
15308SOL     OW47755   8.964   2.151  12.554
15308SOL    HW147756   8.885   2.133  12.504
15308SOL    HW247757   9.019   2.073  12.540
15309SOL     OW47758  12.899   6.609   2.822
15309SOL    HW147759  12.896   6.526   2.775
15309SOL    HW247760  12.840   6.596   2.897
15310SOL     OW47761   5.210   3.420   7.292
15310SOL    HW147762   5.135   3.383   7.245
15310SOL    HW247763   5.261   3.465   7.225
15311SOL     OW47764   8.380   6.990   5.454
15311SOL    HW147765   8.354   6.984   5.362
15311SOL    HW247766   8.462   6.942   5.459
15312SOL     OW47767  13.973   4.500  14.496
15312SOL    HW147768  13.937   4.588  14.506
15312SOL    HW247769  13.947   4.454  14.576
15313SOL     OW47770   9.280  12.183  11.119
15313SOL    HW147771   9.220  12.163  11.047
15313SOL    HW247772   9.267  12.277  11.135
15314SOL     OW47773  12.122   8.180   5.347
15314SOL    HW147774  12.047   8.176   5.407
15314SOL    HW247775  12.133   8.090   5.318
15315SOL     OW47776  12.024  14.159   1.295
15315SOL    HW147777  11.985  14.231   1.345
15315SOL    HW247778  11.952  14.123   1.244
15316SOL     OW47779   5.223  11.212   5.636
15316SOL    HW147780   5.270  11.267   5.573
15316SOL    HW247781   5.267  11.127   5.631
15317SOL     OW47782   9.390  11.179   7.134
15317SOL    HW147783   9.392  11.147   7.044
15317SOL    HW247784   9.401  11.274   7.127
15318SOL     OW47785   0.029  14.421  14.188
15318SOL    HW147786   0.079  14.380  14.258
15318SOL    HW247787  14.811  14.421  14.221
15319SOL     OW47788   2.300   9.571   4.744
15319SOL    HW147789   2.281   9.517   4.667
15319SOL    HW247790   2.385   9.610   4.725
15320SOL     OW47791   7.164   0.432   4.800
15320SOL    HW147792   7.189   0.346   4.767
15320SOL    HW247793   7.197   0.435   4.889
15321SOL     OW47794  13.927  13.689   0.629
15321SOL    HW147795  13.863  13.701   0.559
15321SOL    HW247796  13.944  13.594   0.630
15322SOL     OW47797   2.886   7.951  11.901
15322SOL    HW147798   2.908   7.912  11.985
15322SOL    HW247799   2.931   7.897  11.836
15323SOL     OW47800   8.642   0.524  12.359
15323SOL    HW147801   8.663   0.522  12.266
15323SOL    HW247802   8.586   0.601  12.370
15324SOL     OW47803  12.869  13.702   6.999
15324SOL    HW147804  12.911  13.648   6.933
15324SOL    HW247805  12.787  13.731   6.959
15325SOL     OW47806   7.655  10.195   5.083
15325SOL    HW147807   7.745  10.215   5.058
15325SOL    HW247808   7.663  10.144   5.163
15326SOL     OW47809  14.509   7.908  11.975
15326SOL    HW147810  14.543   7.826  12.011
15326SOL    HW247811  14.468   7.952  12.049
15327SOL     OW47812   7.386   1.550  13.286
15327SOL    HW147813   7.403   1.489  13.358
15327SOL    HW247814   7.411   1.636  13.320
15328SOL     OW47815  12.649   8.898   2.263
15328SOL    HW147816  12.639   8.819   2.316
15328SOL    HW247817  12.709   8.873   2.193
15329SOL     OW47818  13.141  14.157   9.781
15329SOL    HW147819  13.182  14.072   9.798
15329SOL    HW247820  13.117  14.190   9.867
15330SOL     OW47821   9.780   7.154  13.557
15330SOL    HW147822   9.869   7.164  13.522
15330SOL    HW247823   9.786   7.186  13.647
15331SOL     OW47824   3.054   4.831   7.495
15331SOL    HW147825   2.972   4.877   7.509
15331SOL    HW247826   3.121   4.899   7.499
15332SOL     OW47827  11.026   4.798   5.988
15332SOL    HW147828  10.961   4.828   5.925
15332SOL    HW247829  11.067   4.722   5.946
15333SOL     OW47830  11.800  12.753   3.526
15333SOL    HW147831  11.820  12.841   3.556
15333SOL    HW247832  11.843  12.696   3.589
15334SOL     OW47833  10.364   5.320   5.271
15334SOL    HW147834  10.447   5.272   5.269
15334SOL    HW247835  10.311   5.275   5.337
15335SOL     OW47836   0.284   8.763  10.409
15335SOL    HW147837   0.270   8.858  10.410
15335SOL    HW247838   0.335   8.745  10.488
15336SOL     OW47839   6.607   8.141   6.382
15336SOL    HW147840   6.616   8.214   6.444
15336SOL    HW247841   6.596   8.064   6.438
15337SOL     OW47842  11.146  10.884   1.038
15337SOL    HW147843  11.207  10.812   1.027
15337SOL    HW247844  11.200  10.963   1.031
15338SOL     OW47845   8.221  14.433   8.276
15338SOL    HW147846   8.279  14.415   8.351
15338SOL    HW247847   8.193  14.346   8.247
15339SOL     OW47848   4.713   9.744   6.642
15339SOL    HW147849   4.716   9.782   6.554
15339SOL    HW247850   4.790   9.687   6.646
15340SOL     OW47851   6.853   8.718  10.922
15340SOL    HW147852   6.845   8.674  10.837
15340SOL    HW247853   6.843   8.811  10.902
15341SOL     OW47854   3.452  14.869   7.941
15341SOL    HW147855   3.457  14.775   7.956
15341SOL    HW247856   3.402   0.006   7.860
15342SOL     OW47857   1.249   3.636  11.074
15342SOL    HW147858   1.159   3.670  11.068
15342SOL    HW247859   1.274   3.617  10.983
15343SOL     OW47860   6.768   2.778   3.197
15343SOL    HW147861   6.841   2.791   3.136
15343SOL    HW247862   6.802   2.807   3.282
15344SOL     OW47863   4.798  13.774   7.495
15344SOL    HW147864   4.765  13.697   7.449
15344SOL    HW247865   4.744  13.781   7.574
15345SOL     OW47866   9.639   9.226   5.288
15345SOL    HW147867   9.724   9.195   5.319
15345SOL    HW247868   9.628   9.311   5.330
15346SOL     OW47869   2.910  12.486   8.646
15346SOL    HW147870   2.863  12.559   8.605
15346SOL    HW247871   2.965  12.527   8.713
15347SOL     OW47872   4.345  11.718  12.188
15347SOL    HW147873   4.340  11.813  12.175
15347SOL    HW247874   4.274  11.699  12.249
15348SOL     OW47875   9.233   0.712  13.164
15348SOL    HW147876   9.276   0.671  13.089
15348SOL    HW247877   9.272   0.799  13.169
15349SOL     OW47878  10.940   2.405   0.539
15349SOL    HW147879  10.872   2.455   0.494
15349SOL    HW247880  10.895   2.362   0.612
15350SOL     OW47881   3.520   4.448  13.562
15350SOL    HW147882   3.536   4.354  13.572
15350SOL    HW247883   3.608   4.486  13.556
15351SOL     OW47884  13.167  12.145   2.189
15351SOL    HW147885  13.102  12.175   2.126
15351SOL    HW247886  13.158  12.050   2.189
15352SOL     OW47887  11.533   6.296   5.361
15352SOL    HW147888  11.478   6.260   5.292
15352SOL    HW247889  11.497   6.382   5.380
15353SOL     OW47890   2.390  12.806   9.360
15353SOL    HW147891   2.470  12.855   9.341
15353SOL    HW247892   2.352  12.789   9.273
15354SOL     OW47893   0.449   0.399   3.011
15354SOL    HW147894   0.512   0.348   2.961
15354SOL    HW247895   0.403   0.452   2.945
15355SOL     OW47896  13.738   4.715   6.945
15355SOL    HW147897  13.661   4.710   6.888
15355SOL    HW247898  13.806   4.756   6.891
15356SOL     OW47899   1.137   7.074   5.320
15356SOL    HW147900   1.092   7.068   5.236
15356SOL    HW247901   1.130   7.166   5.344
15357SOL     OW47902  12.412  12.585   6.858
15357SOL    HW147903  12.444  12.526   6.927
15357SOL    HW247904  12.488  12.637   6.834
15358SOL     OW47905   2.586  14.870   2.040
15358SOL    HW147906   2.491  14.862   2.029
15358SOL    HW247907   2.607   0.084   2.005
15359SOL     OW47908   8.592   1.945  14.806
15359SOL    HW147909   8.675   1.903  14.784
15359SOL    HW247910   8.526   1.876  14.792
15360SOL     OW47911   3.301   3.001  14.536
15360SOL    HW147912   3.361   3.010  14.611
15360SOL    HW247913   3.344   3.047  14.465
15361SOL     OW47914   8.209   1.358  14.663
15361SOL    HW147915   8.164   1.344  14.579
15361SOL    HW247916   8.155   1.311  14.726
15362SOL     OW47917  11.856   4.136   5.019
15362SOL    HW147918  11.943   4.175   5.003
15362SOL    HW247919  11.798   4.182   4.958
15363SOL     OW47920   5.769   7.087   0.864
15363SOL    HW147921   5.771   7.030   0.787
15363SOL    HW247922   5.775   7.175   0.828
15364SOL     OW47923   9.603   0.817  11.636
15364SOL    HW147924   9.630   0.854  11.552
15364SOL    HW247925   9.629   0.882  11.701
15365SOL     OW47926   6.646   7.164   5.347
15365SOL    HW147927   6.620   7.250   5.378
15365SOL    HW247928   6.617   7.104   5.415
15366SOL     OW47929   7.332   4.805   3.701
15366SOL    HW147930   7.404   4.766   3.751
15366SOL    HW247931   7.346   4.899   3.709
15367SOL     OW47932   5.224   3.535   6.184
15367SOL    HW147933   5.175   3.616   6.195
15367SOL    HW247934   5.316   3.562   6.180
15368SOL     OW47935   7.078  10.304   2.062
15368SOL    HW147936   7.155  10.259   2.026
15368SOL    HW247937   7.114  10.361   2.130
15369SOL     OW47938  12.534   7.573   6.195
15369SOL    HW147939  12.496   7.489   6.170
15369SOL    HW247940  12.476   7.638   6.155
15370SOL     OW47941   9.932   2.887   0.134
15370SOL    HW147942   9.936   2.929   0.048
15370SOL    HW247943   9.927   2.794   0.116
15371SOL     OW47944   2.721   1.120   9.510
15371SOL    HW147945   2.735   1.212   9.489
15371SOL    HW247946   2.677   1.121   9.595
15372SOL     OW47947   4.838   9.702  14.233
15372SOL    HW147948   4.820   9.632  14.171
15372SOL    HW247949   4.913   9.670  14.284
15373SOL     OW47950   0.239   4.156   0.406
15373SOL    HW147951   0.278   4.158   0.494
15373SOL    HW247952   0.264   4.240   0.368
15374SOL     OW47953   8.781   8.775   8.225
15374SOL    HW147954   8.837   8.787   8.149
15374SOL    HW247955   8.779   8.861   8.267
15375SOL     OW47956  13.587   3.581  14.041
15375SOL    HW147957  13.670   3.570  14.088
15375SOL    HW247958  13.563   3.673  14.057
15376SOL     OW47959   6.107   4.535  11.535
15376SOL    HW147960   6.022   4.513  11.497
15376SOL    HW247961   6.164   4.460  11.513
15377SOL     OW47962   8.873  11.245   6.375
15377SOL    HW147963   8.879  11.245   6.471
15377SOL    HW247964   8.964  11.254   6.346
15378SOL     OW47965  13.646  11.597   0.796
15378SOL    HW147966  13.667  11.671   0.853
15378SOL    HW247967  13.723  11.588   0.739
15379SOL     OW47968   2.509   7.760   0.386
15379SOL    HW147969   2.534   7.803   0.304
15379SOL    HW247970   2.484   7.672   0.359
15380SOL     OW47971   0.735   6.182   4.198
15380SOL    HW147972   0.719   6.090   4.218
15380SOL    HW247973   0.783   6.181   4.115
15381SOL     OW47974   4.594  11.316   2.656
15381SOL    HW147975   4.665  11.278   2.604
15381SOL    HW247976   4.607  11.279   2.744
15382SOL     OW47977   1.783   6.575   0.595
15382SOL    HW147978   1.814   6.626   0.521
15382SOL    HW247979   1.692   6.601   0.606
15383SOL     OW47980   8.659   3.451   8.629
15383SOL    HW147981   8.725   3.518   8.646
15383SOL    HW247982   8.577   3.491   8.660
15384SOL     OW47983  14.413  11.520  13.458
15384SOL    HW147984  14.404  11.478  13.372
15384SOL    HW247985  14.404  11.613  13.440
15385SOL     OW47986  14.176   2.007   5.802
15385SOL    HW147987  14.197   1.926   5.755
15385SOL    HW247988  14.159   2.071   5.733
15386SOL     OW47989   8.943  13.069  11.364
15386SOL    HW147990   8.960  13.146  11.309
15386SOL    HW247991   9.011  13.006  11.338
15387SOL     OW47992  13.052   2.967   1.440
15387SOL    HW147993  13.132   2.914   1.431
15387SOL    HW247994  13.081   3.057   1.425
15388SOL     OW47995   1.252  13.419  13.649
15388SOL    HW147996   1.236  13.421  13.744
15388SOL    HW247997   1.167  13.443  13.611
15389SOL     OW47998   0.378  12.797   4.400
15389SOL    HW147999   0.373  12.706   4.428
15389SOL    HW248000   0.353  12.795   4.307
15390SOL     OW48001   0.004   2.967  12.875
15390SOL    HW148002  14.854   2.883  12.833
15390SOL    HW248003  14.806   2.980  12.939
15391SOL     OW48004   2.692   4.471   7.159
15391SOL    HW148005   2.673   4.439   7.247
15391SOL    HW248006   2.749   4.547   7.173
15392SOL     OW48007  10.165   4.129   6.277
15392SOL    HW148008  10.126   4.048   6.243
15392SOL    HW248009  10.256   4.106   6.294
15393SOL     OW48010   2.474   0.471  14.022
15393SOL    HW148011   2.414   0.436  14.087
15393SOL    HW248012   2.418   0.507  13.954
15394SOL     OW48013   8.267  11.321   7.223
15394SOL    HW148014   8.320  11.395   7.193
15394SOL    HW248015   8.319  11.281   7.293
15395SOL     OW48016   0.012   5.373   4.003
15395SOL    HW148017   0.101   5.357   3.973
15395SOL    HW248018   0.004   5.321   4.083
15396SOL     OW48019   1.763   3.442  12.852
15396SOL    HW148020   1.818   3.444  12.931
15396SOL    HW248021   1.754   3.348  12.832
15397SOL     OW48022   8.089  13.119   1.608
15397SOL    HW148023   8.183  13.098   1.607
15397SOL    HW248024   8.076  13.172   1.530
15398SOL     OW48025  11.523   3.668   8.723
15398SOL    HW148026  11.578   3.727   8.673
15398SOL    HW248027  11.574   3.649   8.802
15399SOL     OW48028   5.036   6.394   3.375
15399SOL    HW148029   5.004   6.330   3.313
15399SOL    HW248030   5.073   6.464   3.321
15400SOL     OW48031   2.191  10.701  10.049
15400SOL    HW148032   2.142  10.697  10.131
15400SOL    HW248033   2.269  10.648  10.065
15401SOL     OW48034   4.832  11.242   3.183
15401SOL    HW148035   4.829  11.163   3.128
15401SOL    HW248036   4.838  11.208   3.273
15402SOL     OW48037   2.994  14.220  14.122
15402SOL    HW148038   2.912  14.209  14.073
15402SOL    HW248039   2.989  14.153  14.191
15403SOL     OW48040   5.678   1.317  12.160
15403SOL    HW148041   5.611   1.274  12.213
15403SOL    HW248042   5.685   1.405  12.196
15404SOL     OW48043   8.862   5.188  13.476
15404SOL    HW148044   8.768   5.185  13.460
15404SOL    HW248045   8.880   5.281  13.494
15405SOL     OW48046   3.166  11.339  11.815
15405SOL    HW148047   3.105  11.267  11.827
15405SOL    HW248048   3.224  11.310  11.745
15406SOL     OW48049   3.876   0.905   8.875
15406SOL    HW148050   3.842   0.849   8.944
15406SOL    HW248051   3.905   0.844   8.807
15407SOL     OW48052   7.712  10.311   7.066
15407SOL    HW148053   7.635  10.257   7.084
15407SOL    HW248054   7.727  10.300   6.972
15408SOL     OW48055   1.997  12.641  10.108
15408SOL    HW148056   1.969  12.549  10.110
15408SOL    HW248057   2.088  12.638  10.078
15409SOL     OW48058   4.070  11.754  11.265
15409SOL    HW148059   4.125  11.833  11.267
15409SOL    HW248060   4.005  11.772  11.198
15410SOL     OW48061  12.615  10.731   6.106
15410SOL    HW148062  12.698  10.732   6.153
15410SOL    HW248063  12.638  10.705   6.017
15411SOL     OW48064   1.743   9.453  14.401
15411SOL    HW148065   1.836   9.453  14.379
15411SOL    HW248066   1.736   9.393  14.476
15412SOL     OW48067   9.127   8.507   6.061
15412SOL    HW148068   9.126   8.538   6.152
15412SOL    HW248069   9.090   8.419   6.065
15413SOL     OW48070  13.999  11.709  11.552
15413SOL    HW148071  13.933  11.712  11.483
15413SOL    HW248072  13.949  11.695  11.632
15414SOL     OW48073  10.035   2.348   9.239
15414SOL    HW148074   9.953   2.384   9.206
15414SOL    HW248075  10.033   2.365   9.333
15415SOL     OW48076  10.248   0.493   6.515
15415SOL    HW148077  10.164   0.533   6.537
15415SOL    HW248078  10.230   0.440   6.437
15416SOL     OW48079   9.649   3.729  13.214
15416SOL    HW148080   9.628   3.782  13.137
15416SOL    HW248081   9.602   3.647  13.200
15417SOL     OW48082   9.707  14.190   2.844
15417SOL    HW148083   9.792  14.148   2.829
15417SOL    HW248084   9.662  14.183   2.760
15418SOL     OW48085  10.121   2.609   5.503
15418SOL    HW148086  10.038   2.657   5.504
15418SOL    HW248087  10.137   2.590   5.410
15419SOL     OW48088  10.979  11.566   5.931
15419SOL    HW148089  10.935  11.597   6.010
15419SOL    HW248090  11.031  11.491   5.960
15420SOL     OW48091   7.563  14.319   5.470
15420SOL    HW148092   7.484  14.318   5.525
15420SOL    HW248093   7.636  14.320   5.532
15421SOL     OW48094  14.576  14.215   6.535
15421SOL    HW148095  14.599  14.154   6.465
15421SOL    HW248096  14.553  14.296   6.490
15422SOL     OW48097   2.954   5.920  12.052
15422SOL    HW148098   2.925   5.942  11.964
15422SOL    HW248099   2.915   5.834  12.069
15423SOL     OW48100   0.986   9.611  11.157
15423SOL    HW148101   0.976   9.648  11.244
15423SOL    HW248102   1.018   9.684  11.103
15424SOL     OW48103  11.051   5.171   4.919
15424SOL    HW148104  11.109   5.153   4.844
15424SOL    HW248105  11.019   5.259   4.903
15425SOL     OW48106   7.059   0.625   3.720
15425SOL    HW148107   7.087   0.535   3.737
15425SOL    HW248108   7.131   0.663   3.670
15426SOL     OW48109   7.852   7.142   4.445
15426SOL    HW148110   7.837   7.179   4.532
15426SOL    HW248111   7.941   7.108   4.449
15427SOL     OW48112   8.465  10.220   9.183
15427SOL    HW148113   8.535  10.159   9.162
15427SOL    HW248114   8.510  10.299   9.213
15428SOL     OW48115   3.313   9.008   3.371
15428SOL    HW148116   3.290   9.036   3.459
15428SOL    HW248117   3.368   9.079   3.337
15429SOL     OW48118   9.043  10.165  10.537
15429SOL    HW148119   9.037  10.239  10.477
15429SOL    HW248120   8.974  10.180  10.601
15430SOL     OW48121   7.219   5.322  11.215
15430SOL    HW148122   7.182   5.277  11.138
15430SOL    HW248123   7.233   5.412  11.186
15431SOL     OW48124   5.425  10.267   4.751
15431SOL    HW148125   5.506  10.238   4.709
15431SOL    HW248126   5.424  10.222   4.836
15432SOL     OW48127   1.060  11.464   2.286
15432SOL    HW148128   0.969  11.488   2.268
15432SOL    HW248129   1.059  11.368   2.289
15433SOL     OW48130  11.587  13.399   8.804
15433SOL    HW148131  11.565  13.312   8.837
15433SOL    HW248132  11.503  13.439   8.783
15434SOL     OW48133   1.375   6.651   1.966
15434SOL    HW148134   1.359   6.731   1.916
15434SOL    HW248135   1.455   6.615   1.928
15435SOL     OW48136  12.485  11.768   5.866
15435SOL    HW148137  12.401  11.802   5.835
15435SOL    HW248138  12.544  11.843   5.863
15436SOL     OW48139   1.096   0.252   9.194
15436SOL    HW148140   1.125   0.338   9.162
15436SOL    HW248141   1.133   0.245   9.282
15437SOL     OW48142   0.724   0.662  12.883
15437SOL    HW148143   0.653   0.725  12.887
15437SOL    HW248144   0.777   0.690  12.808
15438SOL     OW48145   2.583   3.283   0.266
15438SOL    HW148146   2.666   3.270   0.314
15438SOL    HW248147   2.562   3.375   0.281
15439SOL     OW48148   5.447  12.568   3.821
15439SOL    HW148149   5.404  12.646   3.786
15439SOL    HW248150   5.484  12.524   3.744
15440SOL     OW48151  13.503  12.448  11.987
15440SOL    HW148152  13.548  12.450  11.902
15440SOL    HW248153  13.437  12.517  11.981
15441SOL     OW48154   6.214   2.154   9.088
15441SOL    HW148155   6.288   2.212   9.070
15441SOL    HW248156   6.240   2.069   9.052
15442SOL     OW48157  14.722   3.275   8.639
15442SOL    HW148158  14.671   3.274   8.558
15442SOL    HW248159  14.753   3.185   8.649
15443SOL     OW48160   8.887   9.705   6.335
15443SOL    HW148161   8.945   9.767   6.378
15443SOL    HW248162   8.870   9.638   6.401
15444SOL     OW48163   3.889   3.394   1.246
15444SOL    HW148164   3.843   3.469   1.284
15444SOL    HW248165   3.866   3.396   1.153
15445SOL     OW48166   4.083  13.932   8.230
15445SOL    HW148167   4.056  13.849   8.192
15445SOL    HW248168   4.122  13.910   8.314
15446SOL     OW48169   2.862   5.370   2.282
15446SOL    HW148170   2.799   5.300   2.298
15446SOL    HW248171   2.831   5.413   2.202
15447SOL     OW48172  12.798   7.343   4.858
15447SOL    HW148173  12.789   7.263   4.909
15447SOL    HW248174  12.778   7.317   4.768
15448SOL     OW48175   9.324  11.502   7.119
15448SOL    HW148176   9.238  11.467   7.142
15448SOL    HW248177   9.330  11.492   7.024
15449SOL     OW48178  10.324   6.858   3.209
15449SOL    HW148179  10.335   6.905   3.291
15449SOL    HW248180  10.246   6.896   3.169
15450SOL     OW48181  11.984   0.984  11.944
15450SOL    HW148182  11.966   0.903  11.991
15450SOL    HW248183  12.079   0.986  11.936
15451SOL     OW48184  13.137   7.447   9.747
15451SOL    HW148185  13.093   7.362   9.746
15451SOL    HW248186  13.084   7.502   9.690
15452SOL     OW48187  13.846  12.237  14.582
15452SOL    HW148188  13.823  12.236  14.675
15452SOL    HW248189  13.926  12.184  14.576
15453SOL     OW48190   7.709   9.734   8.396
15453SOL    HW148191   7.711   9.639   8.387
15453SOL    HW248192   7.762   9.766   8.323
15454SOL     OW48193   3.417   4.458   1.515
15454SOL    HW148194   3.427   4.411   1.597
15454SOL    HW248195   3.330   4.498   1.520
15455SOL     OW48196   3.071   0.987   1.392
15455SOL    HW148197   3.043   1.018   1.479
15455SOL    HW248198   3.034   1.051   1.332
15456SOL     OW48199  10.159  13.708   5.009
15456SOL    HW148200  10.085  13.753   4.969
15456SOL    HW248201  10.181  13.639   4.947
15457SOL     OW48202   5.664   6.543   2.347
15457SOL    HW148203   5.760   6.548   2.342
15457SOL    HW248204   5.634   6.608   2.283
15458SOL     OW48205  11.542   4.632   6.615
15458SOL    HW148206  11.529   4.648   6.522
15458SOL    HW248207  11.453   4.622   6.650
15459SOL     OW48208   4.551   4.965   0.897
15459SOL    HW148209   4.588   4.891   0.945
15459SOL    HW248210   4.611   4.978   0.823
15460SOL     OW48211   0.200   0.203  11.756
15460SOL    HW148212   0.292   0.216  11.735
15460SOL    HW248213   0.154   0.219  11.673
15461SOL     OW48214  10.876  11.301  14.005
15461SOL    HW148215  10.959  11.255  14.017
15461SOL    HW248216  10.886  11.382  14.056
15462SOL     OW48217  13.035  12.113   4.417
15462SOL    HW148218  13.094  12.093   4.343
15462SOL    HW248219  13.084  12.084   4.494
15463SOL     OW48220   6.913   7.884  10.177
15463SOL    HW148221   6.878   7.914  10.093
15463SOL    HW248222   6.969   7.956  10.206
15464SOL     OW48223  14.568  10.750  10.188
15464SOL    HW148224  14.599  10.805  10.260
15464SOL    HW248225  14.478  10.728  10.212
15465SOL     OW48226   4.284   9.058   7.695
15465SOL    HW148227   4.317   9.125   7.634
15465SOL    HW248228   4.248   8.990   7.638
15466SOL     OW48229   6.413   0.797   7.676
15466SOL    HW148230   6.330   0.817   7.719
15466SOL    HW248231   6.475   0.784   7.748
15467SOL     OW48232   8.863  12.601   4.282
15467SOL    HW148233   8.921  12.568   4.213
15467SOL    HW248234   8.782  12.552   4.270
15468SOL     OW48235  13.206   6.734   2.083
15468SOL    HW148236  13.273   6.753   2.018
15468SOL    HW248237  13.210   6.808   2.144
15469SOL     OW48238   6.448   1.752  12.467
15469SOL    HW148239   6.495   1.678  12.429
15469SOL    HW248240   6.406   1.717  12.545
15470SOL     OW48241   6.289   9.366   1.233
15470SOL    HW148242   6.362   9.325   1.188
15470SOL    HW248243   6.287   9.326   1.319
15471SOL     OW48244   1.873   5.208   0.003
15471SOL    HW148245   1.941   5.254   0.052
15471SOL    HW248246   1.794   5.215   0.057
15472SOL     OW48247   4.153   9.914   7.850
15472SOL    HW148248   4.231   9.866   7.878
15472SOL    HW248249   4.187   9.982   7.792
15473SOL     OW48250   5.672   6.346   2.683
15473SOL    HW148251   5.662   6.349   2.778
15473SOL    HW248252   5.745   6.406   2.665
15474SOL     OW48253   1.691  14.587  10.092
15474SOL    HW148254   1.737  14.607  10.173
15474SOL    HW248255   1.645  14.668  10.070
15475SOL     OW48256  11.072   5.502  14.181
15475SOL    HW148257  10.987   5.486  14.222
15475SOL    HW248258  11.135   5.461  14.240
15476SOL     OW48259   9.499   9.623   6.240
15476SOL    HW148260   9.473   9.711   6.216
15476SOL    HW248261   9.486   9.571   6.161
15477SOL     OW48262   9.870  13.223   6.796
15477SOL    HW148263   9.896  13.291   6.858
15477SOL    HW248264   9.924  13.147   6.819
15478SOL     OW48265   0.776   4.213  12.609
15478SOL    HW148266   0.811   4.165  12.534
15478SOL    HW248267   0.695   4.253  12.577
15479SOL     OW48268   8.153   1.021   6.148
15479SOL    HW148269   8.077   1.072   6.119
15479SOL    HW248270   8.170   0.960   6.076
15480SOL     OW48271  10.977   9.874   0.594
15480SOL    HW148272  10.904   9.894   0.536
15480SOL    HW248273  11.025   9.957   0.601
15481SOL     OW48274  12.721   7.143   1.784
15481SOL    HW148275  12.685   7.136   1.696
15481SOL    HW248276  12.812   7.115   1.775
15482SOL     OW48277   2.557  12.332   2.473
15482SOL    HW148278   2.503  12.396   2.426
15482SOL    HW248279   2.508  12.315   2.554
15483SOL     OW48280   6.948   1.931   0.360
15483SOL    HW148281   6.879   1.992   0.334
15483SOL    HW248282   6.936   1.920   0.454
15484SOL     OW48283   7.187   3.198  10.887
15484SOL    HW148284   7.271   3.154  10.879
15484SOL    HW248285   7.126   3.129  10.915
15485SOL     OW48286  10.484   3.070   2.760
15485SOL    HW148287  10.479   3.000   2.695
15485SOL    HW248288  10.441   3.033   2.837
15486SOL     OW48289   4.956   7.937  13.984
15486SOL    HW148290   4.895   7.945  13.911
15486SOL    HW248291   5.034   7.984  13.955
15487SOL     OW48292   2.265   7.426   2.013
15487SOL    HW148293   2.336   7.467   1.964
15487SOL    HW248294   2.284   7.446   2.104
15488SOL     OW48295  11.419   9.825  11.294
15488SOL    HW148296  11.452   9.908  11.328
15488SOL    HW248297  11.459   9.817  11.207
15489SOL     OW48298   9.939   5.018   4.428
15489SOL    HW148299   9.950   4.923   4.435
15489SOL    HW248300  10.014   5.047   4.377
15490SOL     OW48301  11.366   2.350   4.134
15490SOL    HW148302  11.300   2.382   4.196
15490SOL    HW248303  11.413   2.282   4.182
15491SOL     OW48304   5.135   9.743   6.423
15491SOL    HW148305   5.131   9.838   6.432
15491SOL    HW248306   5.228   9.724   6.415
15492SOL     OW48307  10.554   2.029   3.790
15492SOL    HW148308  10.549   2.075   3.706
15492SOL    HW248309  10.646   2.035   3.815
15493SOL     OW48310   9.762  10.184   9.588
15493SOL    HW148311   9.839  10.137   9.555
15493SOL    HW248312   9.711  10.118   9.633
15494SOL     OW48313  10.831   6.285   7.792
15494SOL    HW148314  10.814   6.377   7.770
15494SOL    HW248315  10.759   6.237   7.751
15495SOL     OW48316   2.158  13.707  10.480
15495SOL    HW148317   2.096  13.635  10.492
15495SOL    HW248318   2.159  13.751  10.565
15496SOL     OW48319  10.501   0.043   1.687
15496SOL    HW148320  10.503   0.129   1.644
15496SOL    HW248321  10.411   0.033   1.718
15497SOL     OW48322   3.014   6.456  12.268
15497SOL    HW148323   3.024   6.512  12.191
15497SOL    HW248324   2.975   6.513  12.334
15498SOL     OW48325   3.108   3.981   6.073
15498SOL    HW148326   3.031   3.959   6.126
15498SOL    HW248327   3.143   3.897   6.043
15499SOL     OW48328  14.455   3.641   2.648
15499SOL    HW148329  14.475   3.707   2.715
15499SOL    HW248330  14.485   3.681   2.566
15500SOL     OW48331   9.768   7.962  10.494
15500SOL    HW148332   9.734   7.972  10.405
15500SOL    HW248333   9.844   8.021  10.498
15501SOL     OW48334  11.283   2.782   2.611
15501SOL    HW148335  11.254   2.872   2.596
15501SOL    HW248336  11.370   2.779   2.570
15502SOL     OW48337   0.511  14.722  13.603
15502SOL    HW148338   0.592  14.772  13.606
15502SOL    HW248339   0.518  14.669  13.524
15503SOL     OW48340   0.192   6.850   8.110
15503SOL    HW148341   0.226   6.912   8.175
15503SOL    HW248342   0.262   6.784   8.102
15504SOL     OW48343   4.508   4.978   5.560
15504SOL    HW148344   4.554   4.946   5.482
15504SOL    HW248345   4.428   4.926   5.564
15505SOL     OW48346  11.516   6.382   6.790
15505SOL    HW148347  11.580   6.450   6.809
15505SOL    HW248348  11.450   6.391   6.859
15506SOL     OW48349   3.687   7.027   9.629
15506SOL    HW148350   3.779   7.053   9.624
15506SOL    HW248351   3.649   7.058   9.548
15507SOL     OW48352   9.237  12.609   0.821
15507SOL    HW148353   9.330  12.624   0.837
15507SOL    HW248354   9.235  12.538   0.756
15508SOL     OW48355   8.470  12.740   5.271
15508SOL    HW148356   8.512  12.744   5.357
15508SOL    HW248357   8.523  12.679   5.220
15509SOL     OW48358   2.374   9.340  11.145
15509SOL    HW148359   2.436   9.309  11.211
15509SOL    HW248360   2.289   9.335  11.188
15510SOL     OW48361  10.060   9.389  13.316
15510SOL    HW148362  10.137   9.375  13.261
15510SOL    HW248363   9.995   9.327  13.283
15511SOL     OW48364   3.685   6.948   5.442
15511SOL    HW148365   3.681   6.896   5.362
15511SOL    HW248366   3.614   6.914   5.496
15512SOL     OW48367  12.715   0.875   5.136
15512SOL    HW148368  12.696   0.841   5.224
15512SOL    HW248369  12.678   0.810   5.076
15513SOL     OW48370   5.951  12.928  11.554
15513SOL    HW148371   5.858  12.950  11.547
15513SOL    HW248372   5.992  13.009  11.584
15514SOL     OW48373   1.327   0.179  10.013
15514SOL    HW148374   1.240   0.146  10.038
15514SOL    HW248375   1.334   0.263  10.058
15515SOL     OW48376   1.222   6.925   3.558
15515SOL    HW148377   1.134   6.962   3.547
15515SOL    HW248378   1.271   6.956   3.482
15516SOL     OW48379  14.211   4.637   3.570
15516SOL    HW148380  14.298   4.642   3.610
15516SOL    HW248381  14.208   4.713   3.512
15517SOL     OW48382   2.897   9.800   3.279
15517SOL    HW148383   2.875   9.829   3.191
15517SOL    HW248384   2.850   9.717   3.289
15518SOL     OW48385  10.593  10.167   3.418
15518SOL    HW148386  10.579  10.075   3.441
15518SOL    HW248387  10.573  10.171   3.324
15519SOL     OW48388   7.222  13.771   2.182
15519SOL    HW148389   7.245  13.693   2.133
15519SOL    HW248390   7.176  13.826   2.119
15520SOL     OW48391   6.622  13.180   3.061
15520SOL    HW148392   6.561  13.107   3.075
15520SOL    HW248393   6.687  13.145   2.999
15521SOL     OW48394   2.204   8.599  11.481
15521SOL    HW148395   2.225   8.570  11.570
15521SOL    HW248396   2.235   8.528  11.425
15522SOL     OW48397  13.926   9.427  12.218
15522SOL    HW148398  14.021   9.428  12.225
15522SOL    HW248399  13.906   9.338  12.189
15523SOL     OW48400  11.603  11.227   5.664
15523SOL    HW148401  11.535  11.192   5.721
15523SOL    HW248402  11.556  11.251   5.584
15524SOL     OW48403   3.633   4.144   7.588
15524SOL    HW148404   3.586   4.065   7.614
15524SOL    HW248405   3.725   4.121   7.594
15525SOL     OW48406  11.762   5.911   0.935
15525SOL    HW148407  11.759   5.839   0.873
15525SOL    HW248408  11.795   5.985   0.883
15526SOL     OW48409   0.948   4.804   5.178
15526SOL    HW148410   0.915   4.829   5.264
15526SOL    HW248411   1.035   4.768   5.195
15527SOL     OW48412   5.937   8.525   5.020
15527SOL    HW148413   5.843   8.546   5.024
15527SOL    HW248414   5.980   8.609   5.002
15528SOL     OW48415  13.254   4.881   8.313
15528SOL    HW148416  13.240   4.976   8.309
15528SOL    HW248417  13.246   4.852   8.222
15529SOL     OW48418   4.578  14.676   5.826
15529SOL    HW148419   4.658  14.725   5.847
15529SOL    HW248420   4.510  14.743   5.823
15530SOL     OW48421  14.387   5.601  12.269
15530SOL    HW148422  14.440   5.658  12.324
15530SOL    HW248423  14.342   5.544  12.330
15531SOL     OW48424   6.662   3.464   9.021
15531SOL    HW148425   6.702   3.403   9.084
15531SOL    HW248426   6.736   3.507   8.979
15532SOL     OW48427   3.324  14.581  11.941
15532SOL    HW148428   3.270  14.612  12.014
15532SOL    HW248429   3.346  14.491  11.964
15533SOL     OW48430   4.758  13.718  11.690
15533SOL    HW148431   4.813  13.783  11.734
15533SOL    HW248432   4.771  13.638  11.741
15534SOL     OW48433  10.895  12.690   7.284
15534SOL    HW148434  10.969  12.638   7.252
15534SOL    HW248435  10.884  12.661   7.375
15535SOL     OW48436   3.617   0.627   6.411
15535SOL    HW148437   3.559   0.555   6.436
15535SOL    HW248438   3.696   0.613   6.463
15536SOL     OW48439   0.795   5.871   8.611
15536SOL    HW148440   0.707   5.843   8.636
15536SOL    HW248441   0.812   5.826   8.528
15537SOL     OW48442   5.316   8.071  12.680
15537SOL    HW148443   5.220   8.070  12.676
15537SOL    HW248444   5.344   8.096  12.592
15538SOL     OW48445   0.569   3.271   0.377
15538SOL    HW148446   0.568   3.348   0.320
15538SOL    HW248447   0.554   3.198   0.318
15539SOL     OW48448   8.093  13.224   7.312
15539SOL    HW148449   8.050  13.139   7.319
15539SOL    HW248450   8.065  13.258   7.227
15540SOL     OW48451   6.178   8.333   0.321
15540SOL    HW148452   6.264   8.369   0.343
15540SOL    HW248453   6.189   8.295   0.234
15541SOL     OW48454   3.754   8.514   3.171
15541SOL    HW148455   3.804   8.532   3.091
15541SOL    HW248456   3.789   8.577   3.234
15542SOL     OW48457   4.966   0.978   4.998
15542SOL    HW148458   5.026   0.931   5.056
15542SOL    HW248459   4.909   1.027   5.058
15543SOL     OW48460   2.075   8.306   6.516
15543SOL    HW148461   2.170   8.298   6.521
15543SOL    HW248462   2.057   8.325   6.424
15544SOL     OW48463  11.886   7.727  11.547
15544SOL    HW148464  11.798   7.692  11.563
15544SOL    HW248465  11.917   7.679  11.471
15545SOL     OW48466   5.937   9.046   5.532
15545SOL    HW148467   5.898   8.967   5.570
15545SOL    HW248468   6.031   9.038   5.551
15546SOL     OW48469  10.623   1.549   4.387
15546SOL    HW148470  10.713   1.517   4.396
15546SOL    HW248471  10.569   1.481   4.427
15547SOL     OW48472   8.038   2.229   3.762
15547SOL    HW148473   7.971   2.216   3.695
15547SOL    HW248474   7.991   2.226   3.845
15548SOL     OW48475  12.587   1.315   1.739
15548SOL    HW148476  12.596   1.221   1.758
15548SOL    HW248477  12.623   1.325   1.651
15549SOL     OW48478   6.851   9.519  11.499
15549SOL    HW148479   6.772   9.572  11.496
15549SOL    HW248480   6.881   9.526  11.590
15550SOL     OW48481   9.632  12.827   2.541
15550SOL    HW148482   9.595  12.816   2.453
15550SOL    HW248483   9.708  12.769   2.543
15551SOL     OW48484  14.848  12.560  13.034
15551SOL    HW148485  14.816  12.600  13.115
15551SOL    HW248486   0.062  12.600  13.021
15552SOL     OW48487   8.861   2.290   7.123
15552SOL    HW148488   8.775   2.333   7.125
15552SOL    HW248489   8.911   2.333   7.193
15553SOL     OW48490   0.821   1.239  11.125
15553SOL    HW148491   0.899   1.293  11.112
15553SOL    HW248492   0.785   1.229  11.037
15554SOL     OW48493  13.915  12.567   9.833
15554SOL    HW148494  13.940  12.620   9.909
15554SOL    HW248495  13.870  12.628   9.774
15555SOL     OW48496  14.707  14.808   6.218
15555SOL    HW148497  14.733   0.027   6.229
15555SOL    HW248498  14.689  14.799   6.124
15556SOL     OW48499   1.416   4.922   8.851
15556SOL    HW148500   1.410   4.848   8.910
15556SOL    HW248501   1.435   4.883   8.765
15557SOL     OW48502   9.371   9.613   8.780
15557SOL    HW148503   9.381   9.618   8.875
15557SOL    HW248504   9.292   9.664   8.762
15558SOL     OW48505  12.431   0.462  10.245
15558SOL    HW148506  12.508   0.501  10.286
15558SOL    HW248507  12.453   0.455  10.152
15559SOL     OW48508  10.771   6.291  12.131
15559SOL    HW148509  10.761   6.197  12.149
15559SOL    HW248510  10.702   6.310  12.067
15560SOL     OW48511   4.304   0.454   7.009
15560SOL    HW148512   4.376   0.508   6.976
15560SOL    HW248513   4.317   0.452   7.104
15561SOL     OW48514   7.080   7.410  11.237
15561SOL    HW148515   7.106   7.329  11.194
15561SOL    HW248516   7.144   7.474  11.208
15562SOL     OW48517   5.675   5.156   8.928
15562SOL    HW148518   5.742   5.091   8.954
15562SOL    HW248519   5.715   5.203   8.855
15563SOL     OW48520  11.091  10.279   9.301
15563SOL    HW148521  11.124  10.284   9.391
15563SOL    HW248522  11.153  10.332   9.251
15564SOL     OW48523   2.462  12.999   8.183
15564SOL    HW148524   2.514  12.923   8.208
15564SOL    HW248525   2.525  13.062   8.150
15565SOL     OW48526   8.232   4.683   4.773
15565SOL    HW148527   8.180   4.610   4.739
15565SOL    HW248528   8.206   4.758   4.718
15566SOL     OW48529   8.965  10.981   6.902
15566SOL    HW148530   8.950  10.944   6.989
15566SOL    HW248531   8.941  10.911   6.842
15567SOL     OW48532  14.108  11.781  10.429
15567SOL    HW148533  14.013  11.768  10.431
15567SOL    HW248534  14.131  11.774  10.337
15568SOL     OW48535   8.597   7.212  14.501
15568SOL    HW148536   8.553   7.261  14.571
15568SOL    HW248537   8.648   7.277  14.454
15569SOL     OW48538  14.867   8.812   5.257
15569SOL    HW148539   0.049   8.876   5.303
15569SOL    HW248540   0.011   8.830   5.164
15570SOL     OW48541  11.527   4.851   6.767
15570SOL    HW148542  11.535   4.771   6.714
15570SOL    HW248543  11.602   4.848   6.826
15571SOL     OW48544  10.952   9.622   4.832
15571SOL    HW148545  11.020   9.575   4.783
15571SOL    HW248546  10.950   9.579   4.918
15572SOL     OW48547   3.856  11.365  12.024
15572SOL    HW148548   3.933  11.375  12.080
15572SOL    HW248549   3.892  11.359  11.936
15573SOL     OW48550  13.658   0.421   5.670
15573SOL    HW148551  13.647   0.424   5.575
15573SOL    HW248552  13.663   0.514   5.696
15574SOL     OW48553   5.395   5.953  10.111
15574SOL    HW148554   5.372   5.944  10.019
15574SOL    HW248555   5.484   5.988  10.111
15575SOL     OW48556  10.331   3.297  10.332
15575SOL    HW148557  10.286   3.332  10.409
15575SOL    HW248558  10.412   3.347  10.327
15576SOL     OW48559   9.504   8.379   4.069
15576SOL    HW148560   9.527   8.471   4.053
15576SOL    HW248561   9.500   8.371   4.164
15577SOL     OW48562  11.698   2.231  11.656
15577SOL    HW148563  11.678   2.296  11.589
15577SOL    HW248564  11.698   2.280  11.738
15578SOL     OW48565   8.272  13.148   8.818
15578SOL    HW148566   8.301  13.149   8.910
15578SOL    HW248567   8.311  13.068   8.782
15579SOL     OW48568  14.120   8.667  14.765
15579SOL    HW148569  14.027   8.683  14.782
15579SOL    HW248570  14.128   8.571  14.767
15580SOL     OW48571  14.543   3.615  10.561
15580SOL    HW148572  14.613   3.561  10.596
15580SOL    HW248573  14.578   3.648  10.478
15581SOL     OW48574   9.650  13.449  11.510
15581SOL    HW148575   9.594  13.376  11.485
15581SOL    HW248576   9.683  13.424  11.597
15582SOL     OW48577   8.832   9.461  12.665
15582SOL    HW148578   8.874   9.375  12.674
15582SOL    HW248579   8.894   9.513  12.612
15583SOL     OW48580   7.956  11.714   2.807
15583SOL    HW148581   7.965  11.740   2.715
15583SOL    HW248582   8.044  11.723   2.843
15584SOL     OW48583   6.157  14.869  12.195
15584SOL    HW148584   6.117  14.820  12.267
15584SOL    HW248585   6.137   0.088  12.213
15585SOL     OW48586   8.877   6.772   1.561
15585SOL    HW148587   8.821   6.756   1.637
15585SOL    HW248588   8.834   6.845   1.515
15586SOL     OW48589   3.912   5.510   0.494
15586SOL    HW148590   3.929   5.489   0.586
15586SOL    HW248591   3.819   5.491   0.482
15587SOL     OW48592   4.741   3.326   0.755
15587SOL    HW148593   4.722   3.358   0.843
15587SOL    HW248594   4.714   3.234   0.757
15588SOL     OW48595   6.980  11.315  11.190
15588SOL    HW148596   6.994  11.403  11.224
15588SOL    HW248597   6.902  11.283  11.236
15589SOL     OW48598   5.581   6.165   7.719
15589SOL    HW148599   5.589   6.107   7.794
15589SOL    HW248600   5.582   6.107   7.643
15590SOL     OW48601   4.803  14.311   3.820
15590SOL    HW148602   4.806  14.343   3.910
15590SOL    HW248603   4.887  14.338   3.782
15591SOL     OW48604  14.640  10.998  11.530
15591SOL    HW148605  14.622  10.929  11.466
15591SOL    HW248606  14.693  10.956  11.598
15592SOL     OW48607  13.592   8.567  14.467
15592SOL    HW148608  13.630   8.646  14.429
15592SOL    HW248609  13.514   8.598  14.514
15593SOL     OW48610  14.265   8.777   7.621
15593SOL    HW148611  14.205   8.828   7.676
15593SOL    HW248612  14.208   8.718   7.572
15594SOL     OW48613  14.397   4.198   1.903
15594SOL    HW148614  14.366   4.207   1.993
15594SOL    HW248615  14.491   4.214   1.908
15595SOL     OW48616   5.840  13.615  13.119
15595SOL    HW148617   5.898  13.677  13.074
15595SOL    HW248618   5.753  13.634  13.085
15596SOL     OW48619  14.075  13.703   6.638
15596SOL    HW148620  14.152  13.670   6.592
15596SOL    HW248621  14.024  13.748   6.570
15597SOL     OW48622   2.716   9.929   5.424
15597SOL    HW148623   2.750   9.945   5.512
15597SOL    HW248624   2.635   9.880   5.438
15598SOL     OW48625   8.493   4.736   5.331
15598SOL    HW148626   8.576   4.755   5.375
15598SOL    HW248627   8.513   4.738   5.238
15599SOL     OW48628   3.778   2.690   8.774
15599SOL    HW148629   3.772   2.729   8.862
15599SOL    HW248630   3.868   2.706   8.747
15600SOL     OW48631   0.738  14.173   4.431
15600SOL    HW148632   0.672  14.199   4.367
15600SOL    HW248633   0.794  14.250   4.442
15601SOL     OW48634   9.449   6.324  12.767
15601SOL    HW148635   9.492   6.240  12.754
15601SOL    HW248636   9.490   6.360  12.845
15602SOL     OW48637   8.949   8.889   7.272
15602SOL    HW148638   9.033   8.914   7.309
15602SOL    HW248639   8.888   8.895   7.345
15603SOL     OW48640   1.460   3.737   3.519
15603SOL    HW148641   1.509   3.803   3.568
15603SOL    HW248642   1.526   3.676   3.488
15604SOL     OW48643   2.673   4.796   3.032
15604SOL    HW148644   2.625   4.840   3.102
15604SOL    HW248645   2.690   4.866   2.968
15605SOL     OW48646   3.993  14.235   2.208
15605SOL    HW148647   3.901  14.265   2.210
15605SOL    HW248648   4.032  14.274   2.286
15606SOL     OW48649   2.417  11.567   2.252
15606SOL    HW148650   2.431  11.625   2.177
15606SOL    HW248651   2.326  11.583   2.277
15607SOL     OW48652  14.278  14.763   6.912
15607SOL    HW148653  14.239  14.821   6.846
15607SOL    HW248654  14.367  14.748   6.880
15608SOL     OW48655   0.710  10.986  11.163
15608SOL    HW148656   0.775  11.001  11.094
15608SOL    HW248657   0.711  11.067  11.215
15609SOL     OW48658  10.129  13.763   9.498
15609SOL    HW148659  10.183  13.705   9.553
15609SOL    HW248660  10.189  13.833   9.472
15610SOL     OW48661   7.277   0.762  12.254
15610SOL    HW148662   7.213   0.744  12.323
15610SOL    HW248663   7.357   0.787  12.302
15611SOL     OW48664  12.446   0.403   8.897
15611SOL    HW148665  12.405   0.324   8.931
15611SOL    HW248666  12.524   0.415   8.951
15612SOL     OW48667   2.151   6.315  14.644
15612SOL    HW148668   2.120   6.265  14.568
15612SOL    HW248669   2.108   6.400  14.637
15613SOL     OW48670   3.540  14.776   0.275
15613SOL    HW148671   3.509  14.822   0.353
15613SOL    HW248672   3.539  14.842   0.206
15614SOL     OW48673  12.774   7.816   6.962
15614SOL    HW148674  12.694   7.767   6.944
15614SOL    HW248675  12.788   7.869   6.884
15615SOL     OW48676   1.899   1.671   1.673
15615SOL    HW148677   1.986   1.693   1.706
15615SOL    HW248678   1.838   1.718   1.730
15616SOL     OW48679  13.272  12.700   6.611
15616SOL    HW148680  13.206  12.697   6.542
15616SOL    HW248681  13.300  12.609   6.622
15617SOL     OW48682   9.167   6.986   2.268
15617SOL    HW148683   9.155   6.967   2.175
15617SOL    HW248684   9.234   6.924   2.297
15618SOL     OW48685   9.680   7.950  11.622
15618SOL    HW148686   9.632   8.021  11.663
15618SOL    HW248687   9.753   7.993  11.576
15619SOL     OW48688   7.032   6.101   3.941
15619SOL    HW148689   7.003   6.142   4.023
15619SOL    HW248690   7.089   6.167   3.901
15620SOL     OW48691  13.756   3.625   1.220
15620SOL    HW148692  13.707   3.639   1.301
15620SOL    HW248693  13.728   3.696   1.163
15621SOL     OW48694   8.276   7.337   0.258
15621SOL    HW148695   8.211   7.407   0.256
15621SOL    HW248696   8.358   7.381   0.282
15622SOL     OW48697   2.600  11.069   4.000
15622SOL    HW148698   2.569  11.059   4.090
15622SOL    HW248699   2.677  11.012   3.994
15623SOL     OW48700  10.297   3.959   2.258
15623SOL    HW148701  10.207   3.935   2.281
15623SOL    HW248702  10.349   3.929   2.332
15624SOL     OW48703   2.378   0.369  13.138
15624SOL    HW148704   2.426   0.315  13.200
15624SOL    HW248705   2.415   0.457  13.150
15625SOL     OW48706   6.208   2.228   1.533
15625SOL    HW148707   6.145   2.255   1.466
15625SOL    HW248708   6.282   2.288   1.521
15626SOL     OW48709   3.604   7.870  12.279
15626SOL    HW148710   3.612   7.919  12.197
15626SOL    HW248711   3.612   7.937  12.347
15627SOL     OW48712  14.571   2.198   0.329
15627SOL    HW148713  14.585   2.110   0.364
15627SOL    HW248714  14.658   2.238   0.330
15628SOL     OW48715  10.297  11.070   0.132
15628SOL    HW148716  10.343  11.111   0.205
15628SOL    HW248717  10.234  11.011   0.174
15629SOL     OW48718  11.648   8.833   5.836
15629SOL    HW148719  11.655   8.922   5.802
15629SOL    HW248720  11.726   8.821   5.890
15630SOL     OW48721   8.358   7.314   5.242
15630SOL    HW148722   8.392   7.277   5.160
15630SOL    HW248723   8.279   7.262   5.260
15631SOL     OW48724  10.283   6.661  12.069
15631SOL    HW148725  10.344   6.733  12.049
15631SOL    HW248726  10.337   6.597  12.116
15632SOL     OW48727   3.812   6.651   0.392
15632SOL    HW148728   3.833   6.562   0.364
15632SOL    HW248729   3.793   6.698   0.311
15633SOL     OW48730   8.189   8.391   6.244
15633SOL    HW148731   8.142   8.353   6.317
15633SOL    HW248732   8.171   8.485   6.249
15634SOL     OW48733   2.367  12.128   2.253
15634SOL    HW148734   2.420  12.080   2.316
15634SOL    HW248735   2.317  12.060   2.207
15635SOL     OW48736  13.275  14.285   9.374
15635SOL    HW148737  13.275  14.193   9.349
15635SOL    HW248738  13.302  14.285   9.466
15636SOL     OW48739   5.368  11.538   7.282
15636SOL    HW148740   5.463  11.547   7.292
15636SOL    HW248741   5.356  11.457   7.233
15637SOL     OW48742   8.593   2.771  10.055
15637SOL    HW148743   8.676   2.786  10.099
15637SOL    HW248744   8.561   2.688  10.090
15638SOL     OW48745   5.879   4.886   7.465
15638SOL    HW148746   5.807   4.943   7.438
15638SOL    HW248747   5.955   4.943   7.468
15639SOL     OW48748   5.095   2.090   5.115
15639SOL    HW148749   5.182   2.112   5.080
15639SOL    HW248750   5.078   2.157   5.181
15640SOL     OW48751   4.593   8.121  12.624
15640SOL    HW148752   4.522   8.140  12.562
15640SOL    HW248753   4.602   8.026  12.621
15641SOL     OW48754   0.857  10.450   7.820
15641SOL    HW148755   0.855  10.366   7.773
15641SOL    HW248756   0.818  10.512   7.760
15642SOL     OW48757  10.174  10.264   4.938
15642SOL    HW148758  10.248  10.272   4.999
15642SOL    HW248759  10.190  10.181   4.893
15643SOL     OW48760   8.652   9.274   4.721
15643SOL    HW148761   8.683   9.344   4.779
15643SOL    HW248762   8.710   9.279   4.644
15644SOL     OW48763   1.534   9.466  12.276
15644SOL    HW148764   1.450   9.461  12.323
15644SOL    HW248765   1.576   9.382  12.294
15645SOL     OW48766   7.584  12.214   4.464
15645SOL    HW148767   7.615  12.303   4.479
15645SOL    HW248768   7.660  12.158   4.479
15646SOL     OW48769  13.957   1.390  12.891
15646SOL    HW148770  14.026   1.456  12.885
15646SOL    HW248771  13.947   1.375  12.985
15647SOL     OW48772   2.879   6.632  12.832
15647SOL    HW148773   2.868   6.656  12.925
15647SOL    HW248774   2.926   6.706  12.794
15648SOL     OW48775   0.753   0.719  11.249
15648SOL    HW148776   0.700   0.655  11.201
15648SOL    HW248777   0.737   0.801  11.203
15649SOL     OW48778   3.092  14.464   6.452
15649SOL    HW148779   3.097  14.555   6.424
15649SOL    HW248780   3.043  14.420   6.383
15650SOL     OW48781  12.863   8.771   2.594
15650SOL    HW148782  12.844   8.842   2.655
15650SOL    HW248783  12.935   8.805   2.541
15651SOL     OW48784  13.727  13.811   1.947
15651SOL    HW148785  13.750  13.744   2.012
15651SOL    HW248786  13.806  13.863   1.938
15652SOL     OW48787   2.555   1.831  10.017
15652SOL    HW148788   2.530   1.747   9.978
15652SOL    HW248789   2.472   1.870  10.046
15653SOL     OW48790  13.859  14.279   1.804
15653SOL    HW148791  13.782  14.336   1.805
15653SOL    HW248792  13.911  14.310   1.879
15654SOL     OW48793   3.242   5.586   8.490
15654SOL    HW148794   3.153   5.585   8.455
15654SOL    HW248795   3.293   5.635   8.425
15655SOL     OW48796   8.441  13.260   8.323
15655SOL    HW148797   8.447  13.172   8.362
15655SOL    HW248798   8.516  13.307   8.358
15656SOL     OW48799   0.326   7.054  13.080
15656SOL    HW148800   0.383   7.073  13.005
15656SOL    HW248801   0.277   6.976  13.053
15657SOL     OW48802  13.101  13.924   9.252
15657SOL    HW148803  13.033  13.904   9.316
15657SOL    HW248804  13.056  13.973   9.183
15658SOL     OW48805   1.116  13.753   8.473
15658SOL    HW148806   1.079  13.768   8.386
15658SOL    HW248807   1.154  13.837   8.498
15659SOL     OW48808   2.924   4.161   7.193
15659SOL    HW148809   2.990   4.161   7.124
15659SOL    HW248810   2.957   4.099   7.258
15660SOL     OW48811   2.060  14.176   5.246
15660SOL    HW148812   2.034  14.128   5.324
15660SOL    HW248813   1.982  14.226   5.222
15661SOL     OW48814  11.539   3.418   8.579
15661SOL    HW148815  11.560   3.500   8.625
15661SOL    HW248816  11.457   3.389   8.618
15662SOL     OW48817   2.850   1.825   1.491
15662SOL    HW148818   2.943   1.825   1.472
15662SOL    HW248819   2.834   1.909   1.534
15663SOL     OW48820   8.586   9.694   7.620
15663SOL    HW148821   8.515   9.706   7.557
15663SOL    HW248822   8.622   9.608   7.600
15664SOL     OW48823   8.171   3.769   4.376
15664SOL    HW148824   8.103   3.813   4.427
15664SOL    HW248825   8.206   3.702   4.434
15665SOL     OW48826  12.620  10.034  10.421
15665SOL    HW148827  12.528  10.009  10.413
15665SOL    HW248828  12.660   9.963  10.470
15666SOL     OW48829  14.203   5.318   8.773
15666SOL    HW148830  14.121   5.360   8.747
15666SOL    HW248831  14.261   5.391   8.796
15667SOL     OW48832   9.938   8.706   7.170
15667SOL    HW148833   9.974   8.659   7.095
15667SOL    HW248834   9.985   8.790   7.171
15668SOL     OW48835   5.132   0.920   9.689
15668SOL    HW148836   5.094   0.966   9.614
15668SOL    HW248837   5.096   0.966   9.766
15669SOL     OW48838   4.783  10.903  11.859
15669SOL    HW148839   4.747  10.982  11.900
15669SOL    HW248840   4.713  10.838  11.867
15670SOL     OW48841  13.303   5.169   7.251
15670SOL    HW148842  13.379   5.157   7.308
15670SOL    HW248843  13.237   5.110   7.286
15671SOL     OW48844   8.758   6.030   2.094
15671SOL    HW148845   8.730   6.026   2.002
15671SOL    HW248846   8.795   5.944   2.111
15672SOL     OW48847  13.862   4.464  13.116
15672SOL    HW148848  13.848   4.434  13.026
15672SOL    HW248849  13.845   4.386  13.169
15673SOL     OW48850   7.141   3.368   3.957
15673SOL    HW148851   7.058   3.353   3.912
15673SOL    HW248852   7.119   3.428   4.029
15674SOL     OW48853   8.994  12.240   2.924
15674SOL    HW148854   8.974  12.325   2.963
15674SOL    HW248855   8.916  12.217   2.874
15675SOL     OW48856   3.060  12.439   6.092
15675SOL    HW148857   3.026  12.492   6.019
15675SOL    HW248858   3.011  12.357   6.087
15676SOL     OW48859   9.102  10.202   8.741
15676SOL    HW148860   9.163  10.128   8.745
15676SOL    HW248861   9.150  10.271   8.695
15677SOL     OW48862   9.808  10.556   8.810
15677SOL    HW148863   9.808  10.515   8.896
15677SOL    HW248864   9.899  10.581   8.795
15678SOL     OW48865  11.580   5.538  13.308
15678SOL    HW148866  11.628   5.545  13.225
15678SOL    HW248867  11.489   5.522  13.281
15679SOL     OW48868   0.128   2.574  13.043
15679SOL    HW148869   0.106   2.663  13.071
15679SOL    HW248870   0.195   2.546  13.106
15680SOL     OW48871   7.716   5.501   5.004
15680SOL    HW148872   7.715   5.449   4.923
15680SOL    HW248873   7.772   5.452   5.064
15681SOL     OW48874   1.894   5.124   5.313
15681SOL    HW148875   1.904   5.032   5.289
15681SOL    HW248876   1.921   5.172   5.235
15682SOL     OW48877   8.446   0.657   2.310
15682SOL    HW148878   8.398   0.590   2.358
15682SOL    HW248879   8.384   0.688   2.244
15683SOL     OW48880   8.339   4.450  10.134
15683SOL    HW148881   8.328   4.450  10.229
15683SOL    HW248882   8.391   4.528  10.115
15684SOL     OW48883   2.791   4.497   1.905
15684SOL    HW148884   2.711   4.483   1.855
15684SOL    HW248885   2.778   4.581   1.948
15685SOL     OW48886  12.529   4.170   5.907
15685SOL    HW148887  12.622   4.150   5.914
15685SOL    HW248888  12.486   4.085   5.898
15686SOL     OW48889   6.197   5.300  12.177
15686SOL    HW148890   6.261   5.228  12.184
15686SOL    HW248891   6.129   5.266  12.119
15687SOL     OW48892  13.622  11.114   2.741
15687SOL    HW148893  13.677  11.161   2.678
15687SOL    HW248894  13.681  11.052   2.784
15688SOL     OW48895   9.533  12.988   9.807
15688SOL    HW148896   9.472  13.047   9.762
15688SOL    HW248897   9.479  12.914   9.834
15689SOL     OW48898   3.346   2.274  12.808
15689SOL    HW148899   3.265   2.304  12.850
15689SOL    HW248900   3.414   2.289  12.874
15690SOL     OW48901   7.953   7.318   9.781
15690SOL    HW148902   7.992   7.271   9.707
15690SOL    HW248903   7.977   7.266   9.858
15691SOL     OW48904   0.880   6.943   6.376
15691SOL    HW148905   0.945   6.931   6.445
15691SOL    HW248906   0.854   7.035   6.382
15692SOL     OW48907  10.332  10.717  13.557
15692SOL    HW148908  10.246  10.680  13.538
15692SOL    HW248909  10.317  10.812  13.563
15693SOL     OW48910  11.719   3.959   6.524
15693SOL    HW148911  11.690   3.917   6.605
15693SOL    HW248912  11.811   3.980   6.540
15694SOL     OW48913   2.376  11.312   6.817
15694SOL    HW148914   2.329  11.349   6.742
15694SOL    HW248915   2.406  11.389   6.866
15695SOL     OW48916   2.361  13.453   3.331
15695SOL    HW148917   2.430  13.512   3.362
15695SOL    HW248918   2.280  13.502   3.345
15696SOL     OW48919  14.845   4.058   6.402
15696SOL    HW148920  14.856   4.111   6.323
15696SOL    HW248921  14.761   4.015   6.391
15697SOL     OW48922  12.000  10.604  10.112
15697SOL    HW148923  11.941  10.528  10.107
15697SOL    HW248924  12.058  10.594  10.037
15698SOL     OW48925   6.579  11.544   0.960
15698SOL    HW148926   6.569  11.639   0.959
15698SOL    HW248927   6.533  11.516   1.039
15699SOL     OW48928   4.613   1.719  13.942
15699SOL    HW148929   4.608   1.682  14.030
15699SOL    HW248930   4.553   1.794  13.944
15700SOL     OW48931   8.680   8.427  14.509
15700SOL    HW148932   8.770   8.405  14.533
15700SOL    HW248933   8.684   8.518  14.478
15701SOL     OW48934   5.066   4.701  12.313
15701SOL    HW148935   5.156   4.670  12.317
15701SOL    HW248936   5.073   4.792  12.283
15702SOL     OW48937   2.289   9.174   7.308
15702SOL    HW148938   2.213   9.228   7.332
15702SOL    HW248939   2.279   9.157   7.215
15703SOL     OW48940   1.334  11.995   0.629
15703SOL    HW148941   1.384  11.915   0.644
15703SOL    HW248942   1.318  12.030   0.717
15704SOL     OW48943   0.110   6.879  12.117
15704SOL    HW148944   0.165   6.801  12.116
15704SOL    HW248945   0.136   6.929  12.039
15705SOL     OW48946   8.599  10.958   0.939
15705SOL    HW148947   8.673  10.900   0.960
15705SOL    HW248948   8.591  11.015   1.016
15706SOL     OW48949   7.797   6.751   2.609
15706SOL    HW148950   7.847   6.671   2.594
15706SOL    HW248951   7.799   6.797   2.525
15707SOL     OW48952   9.123  13.809   3.432
15707SOL    HW148953   9.028  13.808   3.419
15707SOL    HW248954   9.155  13.737   3.378
15708SOL     OW48955   8.066   8.428  11.172
15708SOL    HW148956   8.035   8.510  11.134
15708SOL    HW248957   8.092   8.375  11.097
15709SOL     OW48958   9.517   6.333  10.052
15709SOL    HW148959   9.483   6.386   9.980
15709SOL    HW248960   9.612   6.329  10.036
15710SOL     OW48961  11.548   6.832   4.589
15710SOL    HW148962  11.636   6.857   4.619
15710SOL    HW248963  11.546   6.858   4.497
15711SOL     OW48964   7.416  13.391   4.123
15711SOL    HW148965   7.349  13.377   4.190
15711SOL    HW248966   7.499  13.377   4.169
15712SOL     OW48967   2.376   0.150  10.641
15712SOL    HW148968   2.283   0.167  10.627
15712SOL    HW248969   2.419   0.235  10.631
15713SOL     OW48970  11.040   2.083  14.826
15713SOL    HW148971  11.110   2.127   0.003
15713SOL    HW248972  11.077   1.996  14.806
15714SOL     OW48973   0.173   2.646   5.179
15714SOL    HW148974   0.198   2.733   5.209
15714SOL    HW248975   0.080   2.639   5.198
15715SOL     OW48976   1.262   4.535   4.362
15715SOL    HW148977   1.228   4.512   4.449
15715SOL    HW248978   1.200   4.600   4.328
15716SOL     OW48979   2.569   1.020   2.387
15716SOL    HW148980   2.539   1.111   2.388
15716SOL    HW248981   2.556   0.991   2.297
15717SOL     OW48982  14.732   7.193   7.302
15717SOL    HW148983  14.780   7.132   7.357
15717SOL    HW248984  14.748   7.162   7.213
15718SOL     OW48985   7.951  13.448   4.693
15718SOL    HW148986   8.036  13.474   4.656
15718SOL    HW248987   7.909  13.399   4.622
15719SOL     OW48988   6.888  11.510   3.749
15719SOL    HW148989   6.888  11.536   3.841
15719SOL    HW248990   6.951  11.569   3.707
15720SOL     OW48991  11.547   0.197   7.070
15720SOL    HW148992  11.561   0.290   7.085
15720SOL    HW248993  11.470   0.193   7.014
15721SOL     OW48994  12.960   8.218   8.585
15721SOL    HW148995  12.967   8.184   8.496
15721SOL    HW248996  13.015   8.297   8.584
15722SOL     OW48997   6.565  12.695   9.217
15722SOL    HW148998   6.609  12.779   9.232
15722SOL    HW248999   6.558  12.689   9.121
15723SOL     OW49000   8.431  14.267  10.512
15723SOL    HW149001   8.515  14.222  10.516
15723SOL    HW249002   8.398  14.263  10.602
15724SOL     OW49003   6.455   3.154  10.684
15724SOL    HW149004   6.419   3.110  10.607
15724SOL    HW249005   6.546   3.123  10.688
15725SOL     OW49006  12.516   2.677   8.938
15725SOL    HW149007  12.547   2.587   8.928
15725SOL    HW249008  12.596   2.729   8.948
15726SOL     OW49009   3.737   6.581  13.030
15726SOL    HW149010   3.722   6.576  13.124
15726SOL    HW249011   3.797   6.509  13.011
15727SOL     OW49012   3.317  13.355   3.250
15727SOL    HW149013   3.315  13.268   3.210
15727SOL    HW249014   3.409  13.382   3.245
15728SOL     OW49015   7.885   9.967  12.275
15728SOL    HW149016   7.854  10.055  12.298
15728SOL    HW249017   7.840   9.909  12.337
15729SOL     OW49018   3.791   8.401   9.429
15729SOL    HW149019   3.856   8.463   9.459
15729SOL    HW249020   3.812   8.320   9.476
15730SOL     OW49021  11.043   6.405   1.823
15730SOL    HW149022  10.989   6.412   1.744
15730SOL    HW249023  10.987   6.359   1.886
15731SOL     OW49024  11.090   5.559   8.517
15731SOL    HW149025  11.000   5.527   8.506
15731SOL    HW249026  11.144   5.493   8.475
15732SOL     OW49027   9.886   8.223  11.997
15732SOL    HW149028   9.828   8.210  12.072
15732SOL    HW249029   9.958   8.275  12.031
15733SOL     OW49030   7.581   0.224   3.673
15733SOL    HW149031   7.559   0.305   3.719
15733SOL    HW249032   7.646   0.182   3.728
15734SOL     OW49033  14.569   5.390  14.717
15734SOL    HW149034  14.567   5.391  14.622
15734SOL    HW249035  14.533   5.304  14.741
15735SOL     OW49036   9.540   0.524  14.626
15735SOL    HW149037   9.487   0.444  14.628
15735SOL    HW249038   9.500   0.581  14.691
15736SOL     OW49039  13.867   4.295   5.044
15736SOL    HW149040  13.792   4.331   4.998
15736SOL    HW249041  13.940   4.304   4.982
15737SOL     OW49042   6.356   1.656  13.046
15737SOL    HW149043   6.321   1.568  13.059
15737SOL    HW249044   6.434   1.659  13.101
15738SOL     OW49045   5.365   6.017   7.101
15738SOL    HW149046   5.302   5.952   7.132
15738SOL    HW249047   5.343   6.031   7.009
15739SOL     OW49048   4.724   0.611  12.069
15739SOL    HW149049   4.757   0.694  12.033
15739SOL    HW249050   4.687   0.566  11.994
15740SOL     OW49051   4.287   9.705  13.487
15740SOL    HW149052   4.296   9.625  13.435
15740SOL    HW249053   4.245   9.675  13.568
15741SOL     OW49054  11.023   0.903   9.497
15741SOL    HW149055  11.063   0.912   9.411
15741SOL    HW249056  11.022   0.992   9.533
15742SOL     OW49057  13.468  13.333   6.498
15742SOL    HW149058  13.515  13.416   6.489
15742SOL    HW249059  13.381  13.350   6.462
15743SOL     OW49060   3.609   7.717   2.639
15743SOL    HW149061   3.652   7.730   2.723
15743SOL    HW249062   3.619   7.624   2.621
15744SOL     OW49063   4.848  13.771   1.585
15744SOL    HW149064   4.849  13.783   1.490
15744SOL    HW249065   4.794  13.843   1.618
15745SOL     OW49066   5.380   8.443   9.518
15745SOL    HW149067   5.453   8.487   9.561
15745SOL    HW249068   5.311   8.508   9.514
15746SOL     OW49069  11.738  11.796  13.917
15746SOL    HW149070  11.669  11.858  13.894
15746SOL    HW249071  11.820  11.845  13.907
15747SOL     OW49072  10.790   2.198  13.235
15747SOL    HW149073  10.783   2.283  13.277
15747SOL    HW249074  10.745   2.208  13.151
15748SOL     OW49075  14.265   7.077  13.482
15748SOL    HW149076  14.183   7.055  13.526
15748SOL    HW249077  14.330   7.020  13.523
15749SOL     OW49078  10.359  11.941   6.840
15749SOL    HW149079  10.353  11.876   6.770
15749SOL    HW249080  10.282  11.925   6.894
15750SOL     OW49081  14.542   3.267   6.803
15750SOL    HW149082  14.569   3.353   6.771
15750SOL    HW249083  14.480   3.236   6.737
15751SOL     OW49084  11.335  14.160   2.711
15751SOL    HW149085  11.321  14.224   2.781
15751SOL    HW249086  11.353  14.078   2.757
15752SOL     OW49087   3.087   4.729  13.613
15752SOL    HW149088   3.099   4.690  13.699
15752SOL    HW249089   3.147   4.680  13.556
15753SOL     OW49090   5.141   6.087   7.813
15753SOL    HW149091   5.092   6.140   7.751
15753SOL    HW249092   5.228   6.126   7.815
15754SOL     OW49093   3.126   8.609  13.211
15754SOL    HW149094   3.174   8.533  13.243
15754SOL    HW249095   3.134   8.604  13.116
15755SOL     OW49096  11.921  14.817   3.749
15755SOL    HW149097  11.858  14.766   3.698
15755SOL    HW249098  11.997  14.825   3.692
15756SOL     OW49099  10.673   2.762   2.126
15756SOL    HW149100  10.752   2.815   2.137
15756SOL    HW249101  10.705   2.672   2.123
15757SOL     OW49102   5.094   7.820   7.759
15757SOL    HW149103   5.185   7.830   7.732
15757SOL    HW249104   5.049   7.785   7.681
15758SOL     OW49105  10.165   4.041  14.414
15758SOL    HW149106  10.109   4.079  14.482
15758SOL    HW249107  10.104   4.010  14.347
15759SOL     OW49108   0.522  10.226   0.662
15759SOL    HW149109   0.426  10.220   0.668
15759SOL    HW249110   0.549  10.260   0.747
15760SOL     OW49111   9.962  12.106   7.406
15760SOL    HW149112  10.005  12.053   7.473
15760SOL    HW249113   9.869  12.085   7.415
15761SOL     OW49114   1.697   1.257   1.493
15761SOL    HW149115   1.776   1.303   1.522
15761SOL    HW249116   1.633   1.326   1.478
15762SOL     OW49117   8.466   6.354  14.716
15762SOL    HW149118   8.503   6.275  14.676
15762SOL    HW249119   8.373   6.335  14.725
15763SOL     OW49120   2.809   7.530   9.071
15763SOL    HW149121   2.738   7.466   9.067
15763SOL    HW249122   2.788   7.585   9.147
15764SOL     OW49123   4.360   8.676   6.963
15764SOL    HW149124   4.440   8.727   6.949
15764SOL    HW249125   4.326   8.660   6.875
15765SOL     OW49126   0.620   6.395  14.722
15765SOL    HW149127   0.609   6.366  14.632
15765SOL    HW249128   0.577   6.481  14.726
15766SOL     OW49129   8.091   0.172   1.415
15766SOL    HW149130   8.057   0.114   1.347
15766SOL    HW249131   8.186   0.158   1.412
15767SOL     OW49132  11.266  12.214  13.160
15767SOL    HW149133  11.319  12.185  13.086
15767SOL    HW249134  11.217  12.136  13.187
15768SOL     OW49135   7.718   3.816   1.718
15768SOL    HW149136   7.627   3.814   1.689
15768SOL    HW249137   7.742   3.909   1.716
15769SOL     OW49138  13.114  14.031  13.402
15769SOL    HW149139  13.024  14.010  13.377
15769SOL    HW249140  13.144  14.094  13.336
15770SOL     OW49141   5.859  10.866   3.534
15770SOL    HW149142   5.941  10.914   3.525
15770SOL    HW249143   5.884  10.774   3.528
15771SOL     OW49144  10.036   2.858   7.086
15771SOL    HW149145   9.958   2.875   7.034
15771SOL    HW249146  10.003   2.817   7.166
15772SOL     OW49147  14.313   9.728  11.784
15772SOL    HW149148  14.323   9.755  11.693
15772SOL    HW249149  14.318   9.810  11.834
15773SOL     OW49150  14.646  10.612   0.208
15773SOL    HW149151  14.695  10.654   0.137
15773SOL    HW249152  14.695  10.532   0.227
15774SOL     OW49153   0.539   5.809  14.437
15774SOL    HW149154   0.549   5.716  14.459
15774SOL    HW249155   0.609   5.826  14.374
15775SOL     OW49156   8.830  14.399   0.747
15775SOL    HW149157   8.878  14.376   0.826
15775SOL    HW249158   8.864  14.485   0.723
15776SOL     OW49159   3.113  10.744   2.635
15776SOL    HW149160   3.148  10.738   2.546
15776SOL    HW249161   3.182  10.789   2.685
15777SOL     OW49162   5.140  12.854  14.802
15777SOL    HW149163   5.112  12.917  14.735
15777SOL    HW249164   5.221  12.817  14.769
15778SOL     OW49165   4.166  11.894   5.594
15778SOL    HW149166   4.205  11.968   5.641
15778SOL    HW249167   4.072  11.912   5.594
15779SOL     OW49168  12.519  12.088   4.027
15779SOL    HW149169  12.540  12.172   4.068
15779SOL    HW249170  12.604  12.046   4.013
15780SOL     OW49171   9.581   5.976   0.707
15780SOL    HW149172   9.537   6.018   0.633
15780SOL    HW249173   9.526   5.996   0.782
15781SOL     OW49174   4.169   5.634   6.622
15781SOL    HW149175   4.244   5.620   6.565
15781SOL    HW249176   4.105   5.680   6.567
15782SOL     OW49177  13.981   2.042  11.987
15782SOL    HW149178  13.997   1.957  11.947
15782SOL    HW249179  13.988   2.026  12.081
15783SOL     OW49180  14.020   2.738   2.245
15783SOL    HW149181  14.045   2.647   2.262
15783SOL    HW249182  14.045   2.753   2.153
15784SOL     OW49183   2.664   5.736  13.467
15784SOL    HW149184   2.624   5.823  13.464
15784SOL    HW249185   2.595   5.676  13.439
15785SOL     OW49186  13.185   6.456   4.631
15785SOL    HW149187  13.174   6.362   4.618
15785SOL    HW249188  13.277   6.466   4.657
15786SOL     OW49189   4.951   6.290  13.147
15786SOL    HW149190   4.949   6.368  13.092
15786SOL    HW249191   4.977   6.322  13.233
15787SOL     OW49192   2.805   3.754   5.509
15787SOL    HW149193   2.894   3.754   5.545
15787SOL    HW249194   2.811   3.702   5.429
15788SOL     OW49195   7.230   3.681   9.439
15788SOL    HW149196   7.201   3.598   9.478
15788SOL    HW249197   7.278   3.655   9.361
15789SOL     OW49198  11.589   2.772   3.680
15789SOL    HW149199  11.581   2.849   3.625
15789SOL    HW249200  11.501   2.735   3.683
15790SOL     OW49201  10.939   6.472   7.374
15790SOL    HW149202  10.978   6.556   7.348
15790SOL    HW249203  10.887   6.445   7.299
15791SOL     OW49204  12.468  10.370  11.625
15791SOL    HW149205  12.503  10.283  11.604
15791SOL    HW249206  12.382  10.352  11.663
15792SOL     OW49207  12.318  14.761   0.842
15792SOL    HW149208  12.243  14.789   0.894
15792SOL    HW249209  12.374  14.715   0.903
15793SOL     OW49210   9.593   3.291  12.790
15793SOL    HW149211   9.647   3.359  12.830
15793SOL    HW249212   9.648   3.252  12.723
15794SOL     OW49213   3.699  11.327   9.206
15794SOL    HW149214   3.604  11.318   9.201
15794SOL    HW249215   3.720  11.402   9.150
15795SOL     OW49216  14.142  14.185   0.166
15795SOL    HW149217  14.141  14.276   0.136
15795SOL    HW249218  14.176  14.189   0.255
15796SOL     OW49219   1.974   7.532  13.842
15796SOL    HW149220   1.890   7.516  13.797
15796SOL    HW249221   1.973   7.625  13.862
15797SOL     OW49222   8.818   6.722   3.082
15797SOL    HW149223   8.828   6.645   3.027
15797SOL    HW249224   8.734   6.760   3.055
15798SOL     OW49225  10.074   7.099   5.265
15798SOL    HW149226  10.044   7.015   5.230
15798SOL    HW249227  10.151   7.121   5.213
15799SOL     OW49228  10.633  12.615   3.025
15799SOL    HW149229  10.691  12.632   2.951
15799SOL    HW249230  10.680  12.552   3.079
15800SOL     OW49231   6.451   4.573   8.682
15800SOL    HW149232   6.546   4.584   8.688
15800SOL    HW249233   6.416   4.659   8.706
15801SOL     OW49234  10.997   1.851   1.010
15801SOL    HW149235  11.078   1.834   1.060
15801SOL    HW249236  11.018   1.927   0.956
15802SOL     OW49237   1.585   3.025  11.521
15802SOL    HW149238   1.661   3.026  11.579
15802SOL    HW249239   1.605   3.091  11.454
15803SOL     OW49240   1.347   8.278  13.181
15803SOL    HW149241   1.297   8.200  13.206
15803SOL    HW249242   1.281   8.342  13.155
15804SOL     OW49243   1.508   3.137   7.825
15804SOL    HW149244   1.516   3.174   7.737
15804SOL    HW249245   1.573   3.067   7.827
15805SOL     OW49246  12.988   3.537   4.358
15805SOL    HW149247  13.064   3.478   4.354
15805SOL    HW249248  12.935   3.512   4.282
15806SOL     OW49249   1.527   4.269   5.041
15806SOL    HW149250   1.583   4.191   5.042
15806SOL    HW249251   1.476   4.264   5.121
15807SOL     OW49252   1.806   0.145  14.504
15807SOL    HW149253   1.840   0.163  14.416
15807SOL    HW249254   1.846   0.210  14.560
15808SOL     OW49255  10.933   9.431  12.089
15808SOL    HW149256  10.991   9.491  12.041
15808SOL    HW249257  10.974   9.345  12.078
15809SOL     OW49258   1.112  12.267   4.161
15809SOL    HW149259   1.162  12.198   4.204
15809SOL    HW249260   1.154  12.278   4.076
15810SOL     OW49261  14.457  10.924  13.675
15810SOL    HW149262  14.422  10.864  13.741
15810SOL    HW249263  14.399  10.999  13.677
15811SOL     OW49264  14.452   6.934   8.913
15811SOL    HW149265  14.429   6.859   8.858
15811SOL    HW249266  14.404   7.007   8.875
15812SOL     OW49267  10.549   9.204   4.907
15812SOL    HW149268  10.467   9.198   4.859
15812SOL    HW249269  10.577   9.113   4.918
15813SOL     OW49270  11.311   7.959   8.089
15813SOL    HW149271  11.333   7.916   8.171
15813SOL    HW249272  11.362   8.040   8.089
15814SOL     OW49273   8.108  12.256   9.471
15814SOL    HW149274   8.066  12.209   9.543
15814SOL    HW249275   8.181  12.199   9.445
15815SOL     OW49276   9.379   0.350  12.922
15815SOL    HW149277   9.452   0.297  12.889
15815SOL    HW249278   9.305   0.323  12.869
15816SOL     OW49279  14.698  12.694  13.221
15816SOL    HW149280  14.688  12.776  13.172
15816SOL    HW249281  14.619  12.688  13.275
15817SOL     OW49282   5.746   0.744   6.947
15817SOL    HW149283   5.837   0.718   6.966
15817SOL    HW249284   5.728   0.709   6.860
15818SOL     OW49285   7.429   4.420   6.831
15818SOL    HW149286   7.461   4.332   6.810
15818SOL    HW249287   7.366   4.407   6.902
15819SOL     OW49288   0.562  14.610   8.302
15819SOL    HW149289   0.632  14.652   8.352
15819SOL    HW249290   0.520  14.550   8.364
15820SOL     OW49291   2.532  13.121   6.883
15820SOL    HW149292   2.531  13.092   6.974
15820SOL    HW249293   2.623  13.141   6.865
15821SOL     OW49294  14.753   5.992   5.350
15821SOL    HW149295  14.675   5.936   5.351
15821SOL    HW249296  14.718   6.081   5.342
15822SOL     OW49297  12.902   9.967   6.243
15822SOL    HW149298  12.906   9.996   6.152
15822SOL    HW249299  12.895   9.872   6.237
15823SOL     OW49300  10.520   6.451  13.905
15823SOL    HW149301  10.509   6.362  13.940
15823SOL    HW249302  10.443   6.465  13.851
15824SOL     OW49303   5.828  10.817   6.726
15824SOL    HW149304   5.834  10.852   6.815
15824SOL    HW249305   5.830  10.722   6.737
15825SOL     OW49306   0.450   5.818  12.439
15825SOL    HW149307   0.373   5.818  12.383
15825SOL    HW249308   0.480   5.909  12.437
15826SOL     OW49309  14.014   5.424   5.149
15826SOL    HW149310  14.075   5.440   5.077
15826SOL    HW249311  13.932   5.462   5.119
15827SOL     OW49312   5.796  14.540   1.277
15827SOL    HW149313   5.784  14.633   1.292
15827SOL    HW249314   5.838  14.508   1.358
15828SOL     OW49315   6.605   7.556   1.730
15828SOL    HW149316   6.664   7.598   1.792
15828SOL    HW249317   6.623   7.462   1.738
15829SOL     OW49318   3.337  14.004   3.467
15829SOL    HW149319   3.349  14.021   3.560
15829SOL    HW249320   3.251  13.961   3.461
15830SOL     OW49321   5.911   9.498   5.001
15830SOL    HW149322   5.853   9.487   4.925
15830SOL    HW249323   5.949   9.585   4.989
15831SOL     OW49324   7.212  14.344   1.960
15831SOL    HW149325   7.200  14.438   1.946
15831SOL    HW249326   7.306  14.330   1.952
15832SOL     OW49327   7.595   0.615   8.613
15832SOL    HW149328   7.582   0.623   8.707
15832SOL    HW249329   7.608   0.705   8.583
15833SOL     OW49330  10.670   1.168  12.083
15833SOL    HW149331  10.678   1.180  12.177
15833SOL    HW249332  10.575   1.163  12.068
15834SOL     OW49333   8.451   8.808  14.404
15834SOL    HW149334   8.539   8.783  14.375
15834SOL    HW249335   8.464   8.894  14.445
15835SOL     OW49336   2.938   2.835   5.841
15835SOL    HW149337   2.977   2.790   5.916
15835SOL    HW249338   3.002   2.901   5.816
15836SOL     OW49339  13.488   6.838  10.364
15836SOL    HW149340  13.476   6.763  10.307
15836SOL    HW249341  13.474   6.914  10.307
15837SOL     OW49342  14.098  10.367   8.936
15837SOL    HW149343  14.145  10.432   8.988
15837SOL    HW249344  14.116  10.284   8.980
15838SOL     OW49345  14.402  13.077   8.325
15838SOL    HW149346  14.412  13.108   8.235
15838SOL    HW249347  14.370  12.987   8.317
15839SOL     OW49348   1.960   3.294   7.834
15839SOL    HW149349   2.027   3.359   7.816
15839SOL    HW249350   1.885   3.321   7.781
15840SOL     OW49351   5.717   2.048   3.442
15840SOL    HW149352   5.659   1.972   3.440
15840SOL    HW249353   5.716   2.080   3.352
15841SOL     OW49354   4.862   8.324   0.330
15841SOL    HW149355   4.838   8.318   0.237
15841SOL    HW249356   4.915   8.246   0.346
15842SOL     OW49357   7.276   2.889   7.833
15842SOL    HW149358   7.200   2.919   7.882
15842SOL    HW249359   7.297   2.962   7.774
15843SOL     OW49360   9.441   5.704   1.249
15843SOL    HW149361   9.460   5.721   1.341
15843SOL    HW249362   9.518   5.659   1.216
15844SOL     OW49363   9.058   8.389   2.270
15844SOL    HW149364   9.066   8.417   2.179
15844SOL    HW249365   8.998   8.315   2.268
15845SOL     OW49366   2.793  10.064  11.311
15845SOL    HW149367   2.732  10.106  11.251
15845SOL    HW249368   2.829   9.990  11.261
15846SOL     OW49369  12.323   4.431  10.732
15846SOL    HW149370  12.256   4.362  10.725
15846SOL    HW249371  12.290   4.491  10.798
15847SOL     OW49372   6.744  12.823  10.219
15847SOL    HW149373   6.840  12.826  10.223
15847SOL    HW249374   6.722  12.865  10.136
15848SOL     OW49375   4.705  14.477  13.119
15848SOL    HW149376   4.620  14.469  13.076
15848SOL    HW249377   4.685  14.485  13.212
15849SOL     OW49378   0.541   5.710  13.690
15849SOL    HW149379   0.551   5.757  13.608
15849SOL    HW249380   0.454   5.735  13.721
15850SOL     OW49381   1.464   2.014  12.634
15850SOL    HW149382   1.466   1.983  12.725
15850SOL    HW249383   1.410   1.949  12.588
15851SOL     OW49384   1.500  12.046   2.107
15851SOL    HW149385   1.545  12.118   2.061
15851SOL    HW249386   1.550  12.035   2.188
15852SOL     OW49387   9.982   9.218   3.702
15852SOL    HW149388   9.911   9.188   3.646
15852SOL    HW249389   9.970   9.313   3.708
15853SOL     OW49390   1.788   1.447   9.480
15853SOL    HW149391   1.840   1.526   9.466
15853SOL    HW249392   1.720   1.474   9.541
15854SOL     OW49393  11.845   3.590   1.764
15854SOL    HW149394  11.884   3.610   1.849
15854SOL    HW249395  11.849   3.494   1.758
15855SOL     OW49396   6.065  10.759   9.638
15855SOL    HW149397   6.057  10.795   9.726
15855SOL    HW249398   6.155  10.777   9.613
15856SOL     OW49399  11.439   2.125  13.151
15856SOL    HW149400  11.457   2.219  13.152
15856SOL    HW249401  11.501   2.089  13.215
15857SOL     OW49402   2.276   2.903  12.498
15857SOL    HW149403   2.187   2.885  12.528
15857SOL    HW249404   2.271   2.897  12.403
15858SOL     OW49405   9.925   7.600   7.014
15858SOL    HW149406   9.927   7.505   7.022
15858SOL    HW249407   9.835   7.620   6.987
15859SOL     OW49408  12.661   1.449   1.985
15859SOL    HW149409  12.668   1.390   1.910
15859SOL    HW249410  12.567   1.455   2.002
15860SOL     OW49411   1.568  10.626  10.960
15860SOL    HW149412   1.560  10.690  10.889
15860SOL    HW249413   1.624  10.557  10.925
15861SOL     OW49414   4.270   0.896   1.498
15861SOL    HW149415   4.269   0.966   1.563
15861SOL    HW249416   4.186   0.903   1.453
15862SOL     OW49417   5.168   1.173   6.107
15862SOL    HW149418   5.231   1.139   6.171
15862SOL    HW249419   5.112   1.098   6.088
15863SOL     OW49420  14.301   8.419   7.183
15863SOL    HW149421  14.289   8.507   7.217
15863SOL    HW249422  14.232   8.409   7.117
15864SOL     OW49423  12.030   5.100   4.195
15864SOL    HW149424  12.124   5.116   4.199
15864SOL    HW249425  12.001   5.100   4.286
15865SOL     OW49426   6.967  10.306  12.648
15865SOL    HW149427   7.007  10.259  12.575
15865SOL    HW249428   6.967  10.243  12.720
15866SOL     OW49429   1.895  10.476   4.389
15866SOL    HW149430   1.845  10.469   4.307
15866SOL    HW249431   1.962  10.409   4.383
15867SOL     OW49432   7.142  13.879  10.546
15867SOL    HW149433   7.161  13.789  10.517
15867SOL    HW249434   7.124  13.871  10.639
15868SOL     OW49435  12.457  11.923   3.417
15868SOL    HW149436  12.478  11.891   3.329
15868SOL    HW249437  12.515  11.998   3.429
15869SOL     OW49438   5.195  13.612   1.230
15869SOL    HW149439   5.126  13.546   1.236
15869SOL    HW249440   5.256  13.576   1.165
15870SOL     OW49441  11.631  13.177   9.165
15870SOL    HW149442  11.536  13.187   9.164
15870SOL    HW249443  11.656  13.171   9.073
15871SOL     OW49444  13.529  10.520  14.625
15871SOL    HW149445  13.598  10.511  14.559
15871SOL    HW249446  13.510  10.430  14.652
15872SOL     OW49447   7.787   8.741   4.482
15872SOL    HW149448   7.817   8.793   4.408
15872SOL    HW249449   7.787   8.651   4.449
15873SOL     OW49450  13.937  13.197   4.489
15873SOL    HW149451  13.908  13.213   4.579
15873SOL    HW249452  13.906  13.109   4.469
15874SOL     OW49453   6.019   4.127   4.613
15874SOL    HW149454   5.989   4.140   4.523
15874SOL    HW249455   5.961   4.060   4.649
15875SOL     OW49456   9.758   1.460  10.258
15875SOL    HW149457   9.695   1.392  10.284
15875SOL    HW249458   9.704   1.538  10.245
15876SOL     OW49459   0.993   1.112   8.874
15876SOL    HW149460   1.070   1.083   8.922
15876SOL    HW249461   1.013   1.093   8.782
15877SOL     OW49462   0.213   8.146  10.284
15877SOL    HW149463   0.253   8.158  10.198
15877SOL    HW249464   0.147   8.077  10.269
15878SOL     OW49465  12.023   1.249   6.632
15878SOL    HW149466  12.032   1.345   6.630
15878SOL    HW249467  11.961   1.229   6.563
15879SOL     OW49468   0.493  13.197  12.941
15879SOL    HW149469   0.571  13.147  12.917
15879SOL    HW249470   0.525  13.286  12.957
15880SOL     OW49471   3.004   7.759   4.020
15880SOL    HW149472   2.928   7.806   4.056
15880SOL    HW249473   3.072   7.769   4.086
15881SOL     OW49474  11.802   3.454   9.148
15881SOL    HW149475  11.781   3.498   9.065
15881SOL    HW249476  11.716   3.436   9.188
15882SOL     OW49477  13.523   0.081   5.526
15882SOL    HW149478  13.616   0.101   5.512
15882SOL    HW249479  13.482   0.166   5.542
15883SOL     OW49480   7.358   5.688  10.528
15883SOL    HW149481   7.439   5.737  10.512
15883SOL    HW249482   7.368   5.607  10.478
15884SOL     OW49483   3.819   1.144  10.655
15884SOL    HW149484   3.887   1.168  10.717
15884SOL    HW249485   3.867   1.116  10.577
15885SOL     OW49486  13.883   4.739  12.503
15885SOL    HW149487  13.848   4.828  12.500
15885SOL    HW249488  13.970   4.749  12.541
15886SOL     OW49489   5.546  13.765   8.138
15886SOL    HW149490   5.620  13.706   8.121
15886SOL    HW249491   5.584  13.853   8.134
15887SOL     OW49492   8.148  13.550   1.560
15887SOL    HW149493   8.105  13.580   1.640
15887SOL    HW249494   8.223  13.609   1.550
15888SOL     OW49495   8.337   0.775   8.420
15888SOL    HW149496   8.372   0.774   8.509
15888SOL    HW249497   8.377   0.699   8.378
15889SOL     OW49498  10.400   0.986   4.140
15889SOL    HW149499  10.375   0.968   4.050
15889SOL    HW249500  10.411   1.081   4.143
15890SOL     OW49501  13.093   5.892  11.466
15890SOL    HW149502  13.027   5.961  11.456
15890SOL    HW249503  13.044   5.810  11.459
15891SOL     OW49504   2.386   7.514   2.617
15891SOL    HW149505   2.346   7.487   2.699
15891SOL    HW249506   2.480   7.505   2.632
15892SOL     OW49507   0.863   2.480   5.875
15892SOL    HW149508   0.773   2.459   5.848
15892SOL    HW249509   0.894   2.540   5.808
15893SOL     OW49510   3.504   6.864  11.156
15893SOL    HW149511   3.483   6.840  11.246
15893SOL    HW249512   3.467   6.951  11.145
15894SOL     OW49513   0.781   8.127   2.566
15894SOL    HW149514   0.792   8.032   2.572
15894SOL    HW249515   0.696   8.144   2.605
15895SOL     OW49516   2.053   3.754  10.577
15895SOL    HW149517   2.137   3.761  10.622
15895SOL    HW249518   1.990   3.797  10.636
15896SOL     OW49519   0.875   0.057   6.045
15896SOL    HW149520   0.836   0.109   5.974
15896SOL    HW249521   0.805   0.046   6.108
15897SOL     OW49522  11.808   2.911   2.165
15897SOL    HW149523  11.770   2.994   2.135
15897SOL    HW249524  11.757   2.843   2.120
15898SOL     OW49525   7.745  12.702   8.690
15898SOL    HW149526   7.810  12.772   8.702
15898SOL    HW249527   7.683  12.716   8.761
15899SOL     OW49528   5.855  11.072   4.900
15899SOL    HW149529   5.892  11.099   4.817
15899SOL    HW249530   5.885  10.982   4.912
15900SOL     OW49531  11.056   8.797  10.532
15900SOL    HW149532  11.108   8.869  10.569
15900SOL    HW249533  11.121   8.739  10.494
15901SOL     OW49534   1.836   1.832  10.260
15901SOL    HW149535   1.803   1.743  10.250
15901SOL    HW249536   1.763   1.880  10.300
15902SOL     OW49537  11.816   0.929  13.174
15902SOL    HW149538  11.895   0.888  13.139
15902SOL    HW249539  11.824   0.921  13.269
15903SOL     OW49540   9.790  10.571   1.097
15903SOL    HW149541   9.867  10.628   1.101
15903SOL    HW249542   9.747  10.583   1.182
15904SOL     OW49543  14.681   9.473  11.658
15904SOL    HW149544  14.698   9.552  11.607
15904SOL    HW249545  14.697   9.500  11.749
15905SOL     OW49546   2.298   8.011   3.644
15905SOL    HW149547   2.317   7.918   3.632
15905SOL    HW249548   2.355   8.056   3.582
15906SOL     OW49549   8.730   7.902  12.528
15906SOL    HW149550   8.766   7.822  12.567
15906SOL    HW249551   8.763   7.972  12.584
15907SOL     OW49552  12.180  11.769  12.273
15907SOL    HW149553  12.118  11.841  12.267
15907SOL    HW249554  12.143  11.711  12.339
15908SOL     OW49555  13.878   0.920   9.888
15908SOL    HW149556  13.972   0.903   9.889
15908SOL    HW249557  13.869   1.006   9.930
15909SOL     OW49558   0.119   3.824   6.508
15909SOL    HW149559   0.187   3.808   6.442
15909SOL    HW249560   0.092   3.915   6.492
15910SOL     OW49561  12.040  11.626   2.149
15910SOL    HW149562  12.053  11.713   2.110
15910SOL    HW249563  12.057  11.639   2.242
15911SOL     OW49564  12.930   6.521  13.837
15911SOL    HW149565  12.872   6.543  13.764
15911SOL    HW249566  12.873   6.480  13.902
15912SOL     OW49567   0.421   7.713   6.069
15912SOL    HW149568   0.422   7.742   5.977
15912SOL    HW249569   0.383   7.625   6.065
15913SOL     OW49570  12.886  12.201   5.490
15913SOL    HW149571  12.840  12.167   5.413
15913SOL    HW249572  12.817  12.219   5.553
15914SOL     OW49573  11.639  11.782   7.093
15914SOL    HW149574  11.574  11.808   7.158
15914SOL    HW249575  11.630  11.847   7.023
15915SOL     OW49576   5.570   4.400   3.349
15915SOL    HW149577   5.584   4.361   3.435
15915SOL    HW249578   5.589   4.492   3.361
15916SOL     OW49579   8.403  10.287  12.936
15916SOL    HW149580   8.375  10.379  12.940
15916SOL    HW249581   8.492  10.291  12.900
15917SOL     OW49582   8.690   7.659   0.378
15917SOL    HW149583   8.741   7.709   0.313
15917SOL    HW249584   8.741   7.579   0.392
15918SOL     OW49585   2.585  10.150  11.118
15918SOL    HW149586   2.552  10.104  11.041
15918SOL    HW249587   2.511  10.150  11.179
15919SOL     OW49588  12.922  10.742   3.870
15919SOL    HW149589  12.959  10.685   3.802
15919SOL    HW249590  12.878  10.681   3.930
15920SOL     OW49591  10.084   3.294   4.692
15920SOL    HW149592  10.057   3.301   4.600
15920SOL    HW249593  10.050   3.374   4.733
15921SOL     OW49594   1.743  13.840   3.098
15921SOL    HW149595   1.692  13.891   3.036
15921SOL    HW249596   1.763  13.759   3.051
15922SOL     OW49597   0.038   3.387  13.044
15922SOL    HW149598   0.079   3.473  13.051
15922SOL    HW249599  14.866   3.375  13.128
15923SOL     OW49600  14.365  10.213   6.646
15923SOL    HW149601  14.279  10.180   6.673
15923SOL    HW249602  14.348  10.261   6.565
15924SOL     OW49603  10.434  12.949  10.776
15924SOL    HW149604  10.355  12.901  10.752
15924SOL    HW249605  10.481  12.961  10.693
15925SOL     OW49606  12.739   2.635   4.952
15925SOL    HW149607  12.768   2.569   5.016
15925SOL    HW249608  12.680   2.692   5.001
15926SOL     OW49609   2.123  13.606  12.449
15926SOL    HW149610   2.180  13.535  12.418
15926SOL    HW249611   2.134  13.605  12.544
15927SOL     OW49612   1.928   4.407   4.296
15927SOL    HW149613   1.958   4.483   4.247
15927SOL    HW249614   1.926   4.336   4.231
15928SOL     OW49615   5.531   0.969   7.050
15928SOL    HW149616   5.626   0.975   7.060
15928SOL    HW249617   5.509   1.035   6.984
15929SOL     OW49618  11.838   2.552  11.160
15929SOL    HW149619  11.798   2.620  11.214
15929SOL    HW249620  11.923   2.536  11.202
15930SOL     OW49621   1.470   0.913   6.336
15930SOL    HW149622   1.507   0.891   6.421
15930SOL    HW249623   1.530   0.979   6.301
15931SOL     OW49624  14.739   1.912  13.728
15931SOL    HW149625  14.780   1.857  13.661
15931SOL    HW249626  14.665   1.952  13.684
15932SOL     OW49627   3.615   5.649   7.771
15932SOL    HW149628   3.565   5.707   7.714
15932SOL    HW249629   3.584   5.561   7.750
15933SOL     OW49630  11.728  14.489   2.639
15933SOL    HW149631  11.708  14.395   2.641
15933SOL    HW249632  11.655  14.528   2.591
15934SOL     OW49633   2.051   6.946   1.813
15934SOL    HW149634   2.076   7.028   1.770
15934SOL    HW249635   2.000   6.973   1.889
15935SOL     OW49636   8.522   7.699  11.143
15935SOL    HW149637   8.517   7.687  11.238
15935SOL    HW249638   8.615   7.685  11.122
15936SOL     OW49639  11.973   8.460  11.047
15936SOL    HW149640  11.899   8.452  10.988
15936SOL    HW249641  11.975   8.553  11.071
15937SOL     OW49642  13.092   7.382  11.051
15937SOL    HW149643  13.018   7.327  11.078
15937SOL    HW249644  13.158   7.319  11.022
15938SOL     OW49645  12.974   4.764   2.812
15938SOL    HW149646  12.879   4.761   2.812
15938SOL    HW249647  13.001   4.675   2.834
15939SOL     OW49648   6.130  11.650   0.533
15939SOL    HW149649   6.151  11.697   0.613
15939SOL    HW249650   6.197  11.582   0.526
15940SOL     OW49651  11.140   7.754  11.082
15940SOL    HW149652  11.083   7.782  11.153
15940SOL    HW249653  11.229   7.772  11.114
15941SOL     OW49654  12.819   9.493  13.901
15941SOL    HW149655  12.762   9.571  13.899
15941SOL    HW249656  12.772   9.428  13.850
15942SOL     OW49657   0.964   5.668   5.455
15942SOL    HW149658   0.923   5.754   5.453
15942SOL    HW249659   0.896   5.610   5.488
15943SOL     OW49660   0.098   5.808   9.241
15943SOL    HW149661   0.065   5.895   9.262
15943SOL    HW249662   0.162   5.788   9.310
15944SOL     OW49663   4.754   1.603  12.137
15944SOL    HW149664   4.704   1.559  12.068
15944SOL    HW249665   4.816   1.658  12.090
15945SOL     OW49666  14.262   3.045   4.633
15945SOL    HW149667  14.258   3.073   4.724
15945SOL    HW249668  14.185   3.085   4.592
15946SOL     OW49669  10.731  14.236   5.142
15946SOL    HW149670  10.752  14.147   5.113
15946SOL    HW249671  10.675  14.271   5.074
15947SOL     OW49672  13.237   3.667   0.196
15947SOL    HW149673  13.207   3.601   0.258
15947SOL    HW249674  13.167   3.672   0.131
15948SOL     OW49675   1.511   6.199  11.550
15948SOL    HW149676   1.605   6.212  11.564
15948SOL    HW249677   1.498   6.222  11.458
15949SOL     OW49678   8.368   2.995  12.248
15949SOL    HW149679   8.437   3.036  12.300
15949SOL    HW249680   8.288   3.038  12.276
15950SOL     OW49681   3.142  11.163   7.201
15950SOL    HW149682   3.053  11.154   7.167
15950SOL    HW249683   3.168  11.252   7.178
15951SOL     OW49684   9.350   0.777   1.211
15951SOL    HW149685   9.307   0.718   1.273
15951SOL    HW249686   9.285   0.846   1.195
15952SOL     OW49687   5.254   1.975  11.343
15952SOL    HW149688   5.237   1.907  11.408
15952SOL    HW249689   5.327   2.026  11.381
15953SOL     OW49690   1.968   9.524   5.636
15953SOL    HW149691   2.003   9.596   5.688
15953SOL    HW249692   1.904   9.482   5.693
15954SOL     OW49693  13.726   1.529  13.368
15954SOL    HW149694  13.671   1.452  13.379
15954SOL    HW249695  13.716   1.552  13.275
15955SOL     OW49696  11.284   0.966   7.434
15955SOL    HW149697  11.306   0.941   7.344
15955SOL    HW249698  11.366   1.000   7.470
15956SOL     OW49699   7.652  12.375   5.650
15956SOL    HW149700   7.711  12.302   5.668
15956SOL    HW249701   7.567  12.334   5.633
15957SOL     OW49702   0.575   1.298  10.306
15957SOL    HW149703   0.580   1.356  10.230
15957SOL    HW249704   0.482   1.275  10.313
15958SOL     OW49705   3.877   6.606   2.427
15958SOL    HW149706   3.905   6.522   2.466
15958SOL    HW249707   3.893   6.595   2.334
15959SOL     OW49708   9.019   3.836  12.552
15959SOL    HW149709   8.974   3.815  12.471
15959SOL    HW249710   9.089   3.771  12.558
15960SOL     OW49711   8.669  14.161   6.478
15960SOL    HW149712   8.641  14.073   6.504
15960SOL    HW249713   8.604  14.189   6.414
15961SOL     OW49714   8.912  10.977   5.620
15961SOL    HW149715   8.854  11.027   5.677
15961SOL    HW249716   8.896  11.013   5.532
15962SOL     OW49717  13.474  14.074   1.417
15962SOL    HW149718  13.401  14.019   1.390
15962SOL    HW249719  13.534  14.014   1.461
15963SOL     OW49720  14.851  10.768   1.104
15963SOL    HW149721   0.055  10.716   1.077
15963SOL    HW249722  14.796  10.707   1.152
15964SOL     OW49723  13.211  13.271   8.551
15964SOL    HW149724  13.130  13.234   8.517
15964SOL    HW249725  13.275  13.256   8.481
15965SOL     OW49726   3.610   3.682  12.341
15965SOL    HW149727   3.645   3.692  12.252
15965SOL    HW249728   3.633   3.592  12.366
15966SOL     OW49729   7.698  13.967   4.980
15966SOL    HW149730   7.708  14.002   4.892
15966SOL    HW249731   7.769  13.903   4.988
15967SOL     OW49732   1.270   2.896  10.558
15967SOL    HW149733   1.226   2.977  10.582
15967SOL    HW249734   1.237   2.832  10.621
15968SOL     OW49735   6.404  10.652   6.138
15968SOL    HW149736   6.353  10.675   6.061
15968SOL    HW249737   6.343  10.663   6.211
15969SOL     OW49738   0.510   7.816  13.462
15969SOL    HW149739   0.427   7.775  13.485
15969SOL    HW249740   0.531   7.782  13.375
15970SOL     OW49741   5.832   5.078   5.924
15970SOL    HW149742   5.792   5.139   5.862
15970SOL    HW249743   5.763   5.015   5.944
15971SOL     OW49744   1.684   2.892  12.448
15971SOL    HW149745   1.637   2.809  12.458
15971SOL    HW249746   1.761   2.883  12.505
15972SOL     OW49747   8.212  13.949  12.547
15972SOL    HW149748   8.223  14.015  12.616
15972SOL    HW249749   8.152  13.990  12.484
15973SOL     OW49750   3.794   9.015  14.202
15973SOL    HW149751   3.807   9.032  14.295
15973SOL    HW249752   3.714   9.062  14.179
15974SOL     OW49753  10.561   5.125   6.386
15974SOL    HW149754  10.526   5.214   6.378
15974SOL    HW249755  10.568   5.094   6.295
15975SOL     OW49756   1.323   3.783   8.139
15975SOL    HW149757   1.249   3.782   8.199
15975SOL    HW249758   1.302   3.851   8.075
15976SOL     OW49759   7.552   9.975   3.334
15976SOL    HW149760   7.566   9.956   3.427
15976SOL    HW249761   7.465  10.014   3.331
15977SOL     OW49762   8.512   8.834  12.327
15977SOL    HW149763   8.433   8.862  12.374
15977SOL    HW249764   8.500   8.868  12.238
15978SOL     OW49765   1.798   5.291  10.900
15978SOL    HW149766   1.842   5.372  10.926
15978SOL    HW249767   1.716   5.320  10.860
15979SOL     OW49768  14.750   1.595   4.254
15979SOL    HW149769  14.826   1.650   4.235
15979SOL    HW249770  14.770   1.511   4.214
15980SOL     OW49771  12.008   8.833  11.873
15980SOL    HW149772  12.074   8.798  11.813
15980SOL    HW249773  12.042   8.919  11.898
15981SOL     OW49774  10.535   0.927   0.493
15981SOL    HW149775  10.566   0.880   0.415
15981SOL    HW249776  10.532   0.861   0.562
15982SOL     OW49777   3.636   2.890   9.428
15982SOL    HW149778   3.700   2.822   9.450
15982SOL    HW249779   3.552   2.854   9.455
15983SOL     OW49780   3.377  11.087  13.435
15983SOL    HW149781   3.407  10.998  13.416
15983SOL    HW249782   3.457  11.133  13.463
15984SOL     OW49783   0.765  13.545  14.321
15984SOL    HW149784   0.849  13.565  14.280
15984SOL    HW249785   0.782  13.467  14.374
15985SOL     OW49786   8.040  13.494   9.369
15985SOL    HW149787   8.041  13.575   9.420
15985SOL    HW249788   7.954  13.455   9.389
15986SOL     OW49789   3.184  10.256  14.532
15986SOL    HW149790   3.207  10.337  14.576
15986SOL    HW249791   3.089  10.257  14.528
15987SOL     OW49792   8.396   5.210   9.355
15987SOL    HW149793   8.488   5.191   9.371
15987SOL    HW249794   8.391   5.305   9.356
15988SOL     OW49795  14.541   6.548   8.702
15988SOL    HW149796  14.626   6.570   8.740
15988SOL    HW249797  14.523   6.460   8.733
15989SOL     OW49798   8.286   7.061   8.955
15989SOL    HW149799   8.307   6.979   8.999
15989SOL    HW249800   8.296   7.041   8.862
15990SOL     OW49801   3.842   9.409   1.984
15990SOL    HW149802   3.831   9.350   2.059
15990SOL    HW249803   3.934   9.435   1.987
15991SOL     OW49804  10.911   0.272   2.324
15991SOL    HW149805  10.859   0.213   2.378
15991SOL    HW249806  10.946   0.336   2.386
15992SOL     OW49807  11.401  11.862   8.874
15992SOL    HW149808  11.365  11.868   8.963
15992SOL    HW249809  11.414  11.953   8.848
15993SOL     OW49810   7.377   6.308   5.741
15993SOL    HW149811   7.284   6.294   5.759
15993SOL    HW249812   7.402   6.383   5.796
15994SOL     OW49813   6.402   9.337   1.679
15994SOL    HW149814   6.347   9.404   1.638
15994SOL    HW249815   6.452   9.385   1.745
15995SOL     OW49816   3.104   3.682  10.203
15995SOL    HW149817   3.021   3.636  10.216
15995SOL    HW249818   3.096   3.762  10.256
15996SOL     OW49819  10.971  10.323  13.745
15996SOL    HW149820  10.983  10.405  13.697
15996SOL    HW249821  11.016  10.336  13.828
15997SOL     OW49822  12.824  14.854  13.023
15997SOL    HW149823  12.879   0.057  13.046
15997SOL    HW249824  12.885  14.781  13.018
15998SOL     OW49825   5.829  13.456   5.877
15998SOL    HW149826   5.739  13.474   5.850
15998SOL    HW249827   5.844  13.365   5.852
15999SOL     OW49828   3.184  12.735  12.553
15999SOL    HW149829   3.229  12.766  12.631
15999SOL    HW249830   3.094  12.763  12.564
16000SOL     OW49831  13.764   9.124   1.731
16000SOL    HW149832  13.772   9.124   1.826
16000SOL    HW249833  13.851   9.098   1.700
16001SOL     OW49834   5.471   1.081  14.207
16001SOL    HW149835   5.464   1.031  14.288
16001SOL    HW249836   5.440   1.168  14.230
16002SOL     OW49837   7.944   0.366   1.706
16002SOL    HW149838   8.035   0.398   1.701
16002SOL    HW249839   7.893   0.434   1.662
16003SOL     OW49840   3.447   3.574   4.306
16003SOL    HW149841   3.355   3.547   4.311
16003SOL    HW249842   3.455   3.643   4.372
16004SOL     OW49843   9.096   1.009   4.428
16004SOL    HW149844   9.133   1.069   4.362
16004SOL    HW249845   9.008   1.043   4.445
16005SOL     OW49846   8.883   0.585   6.186
16005SOL    HW149847   8.854   0.501   6.149
16005SOL    HW249848   8.830   0.650   6.140
16006SOL     OW49849  13.178  11.632   5.041
16006SOL    HW149850  13.091  11.596   5.054
16006SOL    HW249851  13.200  11.609   4.951
16007SOL     OW49852   1.894   1.494   5.233
16007SOL    HW149853   1.944   1.421   5.195
16007SOL    HW249854   1.819   1.505   5.174
16008SOL     OW49855  12.673  11.454   9.110
16008SOL    HW149856  12.664  11.513   9.184
16008SOL    HW249857  12.732  11.386   9.141
16009SOL     OW49858   2.152   8.226   1.953
16009SOL    HW149859   2.105   8.197   1.875
16009SOL    HW249860   2.083   8.259   2.011
16010SOL     OW49861  12.936   7.209   1.179
16010SOL    HW149862  12.844   7.184   1.174
16010SOL    HW249863  12.984   7.126   1.177
16011SOL     OW49864   7.649  14.358  13.145
16011SOL    HW149865   7.722  14.358  13.082
16011SOL    HW249866   7.666  14.435  13.200
16012SOL     OW49867   1.791  12.793  14.451
16012SOL    HW149868   1.717  12.794  14.390
16012SOL    HW249869   1.858  12.740  14.407
16013SOL     OW49870  13.684  11.243  13.183
16013SOL    HW149871  13.687  11.339  13.175
16013SOL    HW249872  13.591  11.222  13.181
16014SOL     OW49873   8.301  12.679   6.189
16014SOL    HW149874   8.285  12.598   6.238
16014SOL    HW249875   8.230  12.737   6.215
16015SOL     OW49876  11.677   5.296   5.459
16015SOL    HW149877  11.635   5.211   5.448
16015SOL    HW249878  11.626   5.356   5.405
16016SOL     OW49879   5.795   6.546  11.363
16016SOL    HW149880   5.740   6.622  11.347
16016SOL    HW249881   5.812   6.510  11.276
16017SOL     OW49882   6.827   9.700   3.332
16017SOL    HW149883   6.854   9.664   3.416
16017SOL    HW249884   6.801   9.790   3.351
16018SOL     OW49885   8.696  13.508   0.997
16018SOL    HW149886   8.698  13.583   1.056
16018SOL    HW249887   8.679  13.547   0.911
16019SOL     OW49888  14.801   9.928  13.137
16019SOL    HW149889  14.794   9.908  13.044
16019SOL    HW249890  14.830  10.019  13.140
16020SOL     OW49891   5.185   3.897   8.319
16020SOL    HW149892   5.154   3.878   8.231
16020SOL    HW249893   5.106   3.901   8.372
16021SOL     OW49894   0.020   6.209   0.316
16021SOL    HW149895   0.092   6.258   0.356
16021SOL    HW249896   0.054   6.184   0.230
16022SOL     OW49897   3.201   8.133   5.539
16022SOL    HW149898   3.145   8.120   5.616
16022SOL    HW249899   3.141   8.122   5.464
16023SOL     OW49900   2.786   2.860   9.720
16023SOL    HW149901   2.840   2.898   9.789
16023SOL    HW249902   2.696   2.876   9.748
16024SOL     OW49903  13.734   1.408   6.046
16024SOL    HW149904  13.681   1.428   5.969
16024SOL    HW249905  13.723   1.483   6.104
16025SOL     OW49906  14.102   9.862  12.933
16025SOL    HW149907  14.023   9.855  12.986
16025SOL    HW249908  14.141   9.945  12.958
16026SOL     OW49909   0.106  13.700  11.269
16026SOL    HW149910   0.184  13.735  11.226
16026SOL    HW249911   0.057  13.777  11.296
16027SOL     OW49912   2.924   5.935  12.728
16027SOL    HW149913   2.933   5.945  12.633
16027SOL    HW249914   2.912   5.841  12.742
16028SOL     OW49915   1.925   4.525   9.185
16028SOL    HW149916   2.007   4.572   9.202
16028SOL    HW249917   1.874   4.586   9.131
16029SOL     OW49918  11.337   4.124  14.191
16029SOL    HW149919  11.264   4.080  14.148
16029SOL    HW249920  11.414   4.073  14.165
16030SOL     OW49921   8.319  13.225   9.075
16030SOL    HW149922   8.361  13.212   9.161
16030SOL    HW249923   8.226  13.212   9.092
16031SOL     OW49924  10.581   8.508   8.412
16031SOL    HW149925  10.519   8.554   8.470
16031SOL    HW249926  10.533   8.431   8.384
16032SOL     OW49927   1.073   9.247  13.522
16032SOL    HW149928   1.001   9.283  13.574
16032SOL    HW249929   1.113   9.323  13.480
16033SOL     OW49930   1.354  12.493  10.760
16033SOL    HW149931   1.278  12.444  10.727
16033SOL    HW249932   1.368  12.460  10.848
16034SOL     OW49933  12.721  13.387   0.552
16034SOL    HW149934  12.782  13.435   0.608
16034SOL    HW249935  12.637  13.393   0.597
16035SOL     OW49936   3.436   6.986   8.418
16035SOL    HW149937   3.504   7.042   8.455
16035SOL    HW249938   3.457   6.981   8.325
16036SOL     OW49939  12.446   8.026  13.517
16036SOL    HW149940  12.367   8.013  13.568
16036SOL    HW249941  12.417   8.019  13.426
16037SOL     OW49942  11.593   0.766   0.288
16037SOL    HW149943  11.549   0.848   0.310
16037SOL    HW249944  11.659   0.791   0.223
16038SOL     OW49945  11.657  11.197   7.385
16038SOL    HW149946  11.738  11.245   7.371
16038SOL    HW249947  11.651  11.137   7.310
16039SOL     OW49948   3.615   6.327   4.410
16039SOL    HW149949   3.674   6.333   4.485
16039SOL    HW249950   3.613   6.234   4.388
16040SOL     OW49951   5.702   5.317  13.293
16040SOL    HW149952   5.735   5.387  13.237
16040SOL    HW249953   5.710   5.351  13.382
16041SOL     OW49954   7.900   5.510  10.966
16041SOL    HW149955   7.973   5.570  10.956
16041SOL    HW249956   7.835   5.538  10.901
16042SOL     OW49957   7.656  14.625   4.462
16042SOL    HW149958   7.615  14.658   4.382
16042SOL    HW249959   7.686  14.703   4.509
16043SOL     OW49960  10.515  14.824  11.900
16043SOL    HW149961  10.540   0.043  11.885
16043SOL    HW249962  10.510  14.785  11.813
16044SOL     OW49963   2.521   2.815   8.856
16044SOL    HW149964   2.498   2.783   8.943
16044SOL    HW249965   2.525   2.911   8.867
16045SOL     OW49966   6.502  11.205  14.347
16045SOL    HW149967   6.456  11.241  14.272
16045SOL    HW249968   6.433  11.166  14.401
16046SOL     OW49969   9.952  13.824   1.184
16046SOL    HW149970  10.024  13.872   1.142
16046SOL    HW249971   9.965  13.838   1.277
16047SOL     OW49972   3.145   5.757  10.423
16047SOL    HW149973   3.128   5.788  10.512
16047SOL    HW249974   3.240   5.762  10.413
16048SOL     OW49975  11.569  11.803  14.449
16048SOL    HW149976  11.615  11.722  14.467
16048SOL    HW249977  11.476  11.780  14.454
16049SOL     OW49978   7.703   6.666   4.357
16049SOL    HW149979   7.732   6.580   4.390
16049SOL    HW249980   7.713   6.725   4.432
16050SOL     OW49981   1.484   9.356  14.288
16050SOL    HW149982   1.494   9.271  14.331
16050SOL    HW249983   1.569   9.398  14.300
16051SOL     OW49984  12.745   6.499   3.021
16051SOL    HW149985  12.728   6.415   3.063
16051SOL    HW249986  12.684   6.502   2.947
16052SOL     OW49987   9.679   1.184   6.659
16052SOL    HW149988   9.649   1.243   6.729
16052SOL    HW249989   9.673   1.096   6.698
16053SOL     OW49990   5.426   5.923   5.653
16053SOL    HW149991   5.481   5.997   5.625
16053SOL    HW249992   5.412   5.939   5.747
16054SOL     OW49993  12.996   6.164   4.915
16054SOL    HW149994  13.003   6.206   4.829
16054SOL    HW249995  12.923   6.209   4.958
16055SOL     OW49996  13.062   6.333   6.927
16055SOL    HW149997  13.057   6.421   6.889
16055SOL    HW249998  13.066   6.348   7.022
16056SOL     OW49999  10.316  12.229   2.584
16056SOL    HW150000  10.362  12.154   2.622
16056SOL    HW250001  10.347  12.304   2.635
16057SOL     OW50002   5.950   5.376  10.972
16057SOL    HW150003   5.875   5.379  11.031
16057SOL    HW250004   5.911   5.379  10.884
16058SOL     OW50005   3.247  12.605   6.160
16058SOL    HW150006   3.190  12.533   6.134
16058SOL    HW250007   3.227  12.675   6.098
16059SOL     OW50008   9.401   7.168  11.550
16059SOL    HW150009   9.361   7.241  11.503
16059SOL    HW250010   9.484   7.153  11.505
16060SOL     OW50011  12.914  11.011   3.775
16060SOL    HW150012  13.005  11.001   3.804
16060SOL    HW250013  12.866  10.943   3.823
16061SOL     OW50014   0.040   7.698   6.271
16061SOL    HW150015   0.001   7.700   6.359
16061SOL    HW250016   0.131   7.725   6.285
16062SOL     OW50017   8.984  10.031  14.842
16062SOL    HW150018   9.020  10.101  14.789
16062SOL    HW250019   9.058   9.973  14.858
16063SOL     OW50020   9.487   7.428   7.619
16063SOL    HW150021   9.425   7.365   7.583
16063SOL    HW250022   9.554   7.375   7.662
16064SOL     OW50023   4.594  14.146  10.864
16064SOL    HW150024   4.667  14.093  10.896
16064SOL    HW250025   4.589  14.125  10.770
16065SOL     OW50026   7.785  13.768  13.432
16065SOL    HW150027   7.755  13.702  13.495
16065SOL    HW250028   7.730  13.754  13.355
16066SOL     OW50029  12.707   4.005   4.765
16066SOL    HW150030  12.695   3.969   4.853
16066SOL    HW250031  12.689   3.932   4.706
16067SOL     OW50032   6.402   5.148   9.803
16067SOL    HW150033   6.445   5.164   9.887
16067SOL    HW250034   6.325   5.095   9.824
16068SOL     OW50035   6.372  13.886   5.525
16068SOL    HW150036   6.332  13.894   5.439
16068SOL    HW250037   6.304  13.848   5.580
16069SOL     OW50038   0.007  13.115  13.662
16069SOL    HW150039  14.833  13.199  13.652
16069SOL    HW250040   0.030  13.111  13.755
16070SOL     OW50041   6.568   5.830   0.169
16070SOL    HW150042   6.486   5.781   0.173
16070SOL    HW250043   6.636   5.764   0.181
16071SOL     OW50044   7.910   4.344  13.391
16071SOL    HW150045   7.817   4.329  13.410
16071SOL    HW250046   7.925   4.434  13.419
16072SOL     OW50047   4.780   4.845  10.939
16072SOL    HW150048   4.853   4.799  10.896
16072SOL    HW250049   4.742   4.899  10.870
16073SOL     OW50050  14.763   4.256  14.727
16073SOL    HW150051  14.731   4.344  14.711
16073SOL    HW250052  14.684   4.205  14.746
16074SOL     OW50053   3.315   4.651   9.019
16074SOL    HW150054   3.346   4.660   9.110
16074SOL    HW250055   3.241   4.591   9.025
16075SOL     OW50056   4.047   6.605   7.405
16075SOL    HW150057   4.074   6.697   7.401
16075SOL    HW250058   4.122   6.556   7.372
16076SOL     OW50059   6.096   9.226   9.164
16076SOL    HW150060   6.172   9.168   9.153
16076SOL    HW250061   6.131   9.300   9.213
16077SOL     OW50062   9.025   2.568   9.143
16077SOL    HW150063   9.027   2.476   9.118
16077SOL    HW250064   8.948   2.577   9.199
16078SOL     OW50065  12.555   0.061   9.999
16078SOL    HW150066  12.616   0.019  10.060
16078SOL    HW250067  12.469   0.031  10.027
16079SOL     OW50068  14.320  11.671   0.299
16079SOL    HW150069  14.386  11.696   0.234
16079SOL    HW250070  14.237  11.690   0.257
16080SOL     OW50071   0.574  13.927  14.147
16080SOL    HW150072   0.609  13.839  14.138
16080SOL    HW250073   0.646  13.985  14.122
16081SOL     OW50074   8.949   6.287   7.083
16081SOL    HW150075   9.014   6.303   7.015
16081SOL    HW250076   8.882   6.354   7.069
16082SOL     OW50077   3.306   0.214   1.564
16082SOL    HW150078   3.293   0.275   1.637
16082SOL    HW250079   3.394   0.178   1.579
16083SOL     OW50080   3.792   0.791   1.504
16083SOL    HW150081   3.866   0.731   1.496
16083SOL    HW250082   3.757   0.799   1.415
16084SOL     OW50083  14.586   2.696   6.240
16084SOL    HW150084  14.577   2.688   6.335
16084SOL    HW250085  14.564   2.609   6.207
16085SOL     OW50086   4.900   9.473  12.277
16085SOL    HW150087   4.837   9.526  12.326
16085SOL    HW250088   4.854   9.450  12.196
16086SOL     OW50089   7.607   3.189  14.133
16086SOL    HW150090   7.688   3.152  14.169
16086SOL    HW250091   7.550   3.201  14.209
16087SOL     OW50092  12.686   6.028   9.616
16087SOL    HW150093  12.644   6.000   9.697
16087SOL    HW250094  12.654   5.967   9.550
16088SOL     OW50095   4.116  11.694   8.587
16088SOL    HW150096   4.086  11.608   8.558
16088SOL    HW250097   4.162  11.730   8.511
16089SOL     OW50098  11.972  11.995   0.561
16089SOL    HW150099  11.987  12.026   0.472
16089SOL    HW250100  11.882  12.020   0.580
16090SOL     OW50101   2.304   0.818   2.906
16090SOL    HW150102   2.363   0.893   2.906
16090SOL    HW250103   2.294   0.795   2.814
16091SOL     OW50104   0.969   5.803  11.935
16091SOL    HW150105   0.970   5.707  11.945
16091SOL    HW250106   0.895   5.820  11.877
16092SOL     OW50107   8.405   4.706   3.721
16092SOL    HW150108   8.359   4.739   3.798
16092SOL    HW250109   8.473   4.649   3.756
16093SOL     OW50110   1.567   9.507   1.111
16093SOL    HW150111   1.604   9.572   1.052
16093SOL    HW250112   1.636   9.490   1.174
16094SOL     OW50113  11.333  11.653   6.938
16094SOL    HW150114  11.369  11.659   7.026
16094SOL    HW250115  11.326  11.744   6.909
16095SOL     OW50116  14.827  14.060   9.729
16095SOL    HW150117   0.018  14.106   9.675
16095SOL    HW250118  14.850  14.082   9.819
16096SOL     OW50119   6.680   8.223   8.829
16096SOL    HW150120   6.661   8.292   8.766
16096SOL    HW250121   6.759   8.180   8.795
16097SOL     OW50122   1.918   4.867   5.911
16097SOL    HW150123   1.946   4.775   5.909
16097SOL    HW250124   1.992   4.913   5.952
16098SOL     OW50125   1.719   2.150   6.483
16098SOL    HW150126   1.710   2.153   6.578
16098SOL    HW250127   1.644   2.098   6.453
16099SOL     OW50128   6.465   9.817   4.176
16099SOL    HW150129   6.553   9.784   4.196
16099SOL    HW250130   6.444   9.777   4.092
16100SOL     OW50131  11.547  11.891   5.101
16100SOL    HW150132  11.542  11.834   5.025
16100SOL    HW250133  11.639  11.914   5.108
16101SOL     OW50134   0.918   6.345  12.303
16101SOL    HW150135   0.920   6.435  12.336
16101SOL    HW250136   0.825   6.321  12.308
16102SOL     OW50137   3.517   1.594   7.252
16102SOL    HW150138   3.441   1.573   7.306
16102SOL    HW250139   3.497   1.555   7.166
16103SOL     OW50140  13.608  13.763   5.309
16103SOL    HW150141  13.525  13.740   5.351
16103SOL    HW250142  13.640  13.680   5.275
16104SOL     OW50143  11.618  12.266  14.425
16104SOL    HW150144  11.655  12.179  14.411
16104SOL    HW250145  11.523  12.252  14.421
16105SOL     OW50146   3.589   6.685   4.796
16105SOL    HW150147   3.518   6.735   4.755
16105SOL    HW250148   3.642   6.751   4.840
16106SOL     OW50149  11.670   2.620   8.568
16106SOL    HW150150  11.675   2.712   8.594
16106SOL    HW250151  11.586   2.613   8.522
16107SOL     OW50152   2.585   3.090   8.865
16107SOL    HW150153   2.674   3.077   8.830
16107SOL    HW250154   2.597   3.152   8.937
16108SOL     OW50155  11.341   4.205   8.258
16108SOL    HW150156  11.271   4.148   8.292
16108SOL    HW250157  11.409   4.202   8.325
16109SOL     OW50158   6.876   3.221   8.207
16109SOL    HW150159   6.858   3.314   8.217
16109SOL    HW250160   6.947   3.203   8.270
16110SOL     OW50161   5.479   3.732   5.433
16110SOL    HW150162   5.553   3.786   5.460
16110SOL    HW250163   5.455   3.683   5.511
16111SOL     OW50164   4.778   5.408   4.758
16111SOL    HW150165   4.812   5.320   4.772
16111SOL    HW250166   4.744   5.435   4.843
16112SOL     OW50167   1.702   9.619   7.053
16112SOL    HW150168   1.650   9.605   6.974
16112SOL    HW250169   1.648   9.585   7.124
16113SOL     OW50170   7.104  12.608   8.432
16113SOL    HW150171   7.129  12.604   8.524
16113SOL    HW250172   7.028  12.667   8.430
16114SOL     OW50173   8.282   0.119  11.205
16114SOL    HW150174   8.280   0.095  11.298
16114SOL    HW250175   8.213   0.067  11.165
16115SOL     OW50176  11.786  13.017   9.616
16115SOL    HW150177  11.696  12.985   9.610
16115SOL    HW250178  11.789  13.091   9.555
16116SOL     OW50179   6.503   5.459  11.418
16116SOL    HW150180   6.521   5.375  11.459
16116SOL    HW250181   6.572   5.471  11.353
16117SOL     OW50182   3.441   4.742  10.225
16117SOL    HW150183   3.514   4.801  10.209
16117SOL    HW250184   3.364   4.788  10.191
16118SOL     OW50185  13.093  12.235  10.541
16118SOL    HW150186  13.018  12.237  10.481
16118SOL    HW250187  13.159  12.185  10.494
16119SOL     OW50188   5.900   1.142   7.477
16119SOL    HW150189   5.817   1.120   7.434
16119SOL    HW250190   5.966   1.135   7.408
16120SOL     OW50191   3.763   8.085  11.327
16120SOL    HW150192   3.820   8.048  11.260
16120SOL    HW250193   3.682   8.034  11.320
16121SOL     OW50194  11.202   2.894   4.962
16121SOL    HW150195  11.155   2.975   4.985
16121SOL    HW250196  11.175   2.831   5.029
16122SOL     OW50197   4.431   4.443   9.482
16122SOL    HW150198   4.512   4.457   9.433
16122SOL    HW250199   4.363   4.442   9.415
16123SOL     OW50200   6.831  10.042   9.983
16123SOL    HW150201   6.895   9.973   9.965
16123SOL    HW250202   6.759  10.024   9.923
16124SOL     OW50203   9.083   4.459  13.758
16124SOL    HW150204   9.042   4.400  13.694
16124SOL    HW250205   9.175   4.462  13.731
16125SOL     OW50206   6.801   1.611   9.995
16125SOL    HW150207   6.867   1.674   9.964
16125SOL    HW250208   6.753   1.659  10.062
16126SOL     OW50209   3.891   1.401   3.234
16126SOL    HW150210   3.966   1.402   3.293
16126SOL    HW250211   3.911   1.335   3.168
16127SOL     OW50212  10.506   5.583  14.408
16127SOL    HW150213  10.421   5.608  14.372
16127SOL    HW250214  10.560   5.563  14.331
16128SOL     OW50215   9.818  13.068  11.748
16128SOL    HW150216   9.897  13.078  11.802
16128SOL    HW250217   9.757  13.020  11.804
16129SOL     OW50218  14.290   7.883   8.055
16129SOL    HW150219  14.313   7.944   7.985
16129SOL    HW250220  14.285   7.798   8.012
16130SOL     OW50221   1.163   9.679   6.552
16130SOL    HW150222   1.140   9.587   6.537
16130SOL    HW250223   1.156   9.720   6.466
16131SOL     OW50224   5.019  12.565  12.016
16131SOL    HW150225   4.940  12.598  11.973
16131SOL    HW250226   5.086  12.564  11.947
16132SOL     OW50227  13.452   4.689   9.000
16132SOL    HW150228  13.413   4.602   8.995
16132SOL    HW250229  13.521   4.689   8.935
16133SOL     OW50230  14.763  13.580  10.759
16133SOL    HW150231  14.727  13.665  10.735
16133SOL    HW250232  14.839  13.600  10.813
16134SOL     OW50233   5.815   2.731  14.289
16134SOL    HW150234   5.799   2.806  14.347
16134SOL    HW250235   5.788   2.761  14.202
16135SOL     OW50236  14.690  13.809  11.045
16135SOL    HW150237  14.783  13.801  11.069
16135SOL    HW250238  14.687  13.887  10.989
16136SOL     OW50239  10.824   5.516   1.921
16136SOL    HW150240  10.862   5.430   1.901
16136SOL    HW250241  10.730   5.501   1.918
16137SOL     OW50242   3.382   8.254  12.733
16137SOL    HW150243   3.357   8.250  12.641
16137SOL    HW250244   3.411   8.165  12.755
16138SOL     OW50245   8.814   5.859   7.025
16138SOL    HW150246   8.739   5.800   7.015
16138SOL    HW250247   8.831   5.861   7.119
16139SOL     OW50248   3.582   3.463   0.436
16139SOL    HW150249   3.537   3.463   0.520
16139SOL    HW250250   3.557   3.546   0.395
16140SOL     OW50251   6.834   4.256  12.656
16140SOL    HW150252   6.779   4.185  12.690
16140SOL    HW250253   6.787   4.336  12.679
16141SOL     OW50254   7.058   4.227   2.264
16141SOL    HW150255   7.146   4.264   2.257
16141SOL    HW250256   7.046   4.179   2.182
16142SOL     OW50257   4.662  14.425   9.396
16142SOL    HW150258   4.599  14.386   9.457
16142SOL    HW250259   4.646  14.519   9.402
16143SOL     OW50260   7.495   7.247   6.111
16143SOL    HW150261   7.535   7.160   6.108
16143SOL    HW250262   7.468   7.258   6.202
16144SOL     OW50263   4.481  14.334   6.294
16144SOL    HW150264   4.413  14.365   6.234
16144SOL    HW250265   4.454  14.367   6.379
16145SOL     OW50266  12.562   4.338   3.425
16145SOL    HW150267  12.622   4.395   3.377
16145SOL    HW250268  12.478   4.384   3.423
16146SOL     OW50269  11.162   3.080  11.191
16146SOL    HW150270  11.120   2.999  11.164
16146SOL    HW250271  11.209   3.111  11.113
16147SOL     OW50272  13.659  12.923   9.257
16147SOL    HW150273  13.745  12.950   9.224
16147SOL    HW250274  13.599  12.936   9.182
16148SOL     OW50275  12.814   8.851   2.029
16148SOL    HW150276  12.775   8.933   1.998
16148SOL    HW250277  12.908   8.866   2.026
16149SOL     OW50278  14.597   4.703   3.891
16149SOL    HW150279  14.565   4.664   3.972
16149SOL    HW250280  14.639   4.631   3.844
16150SOL     OW50281   4.163  10.328   8.168
16150SOL    HW150282   4.205  10.358   8.087
16150SOL    HW250283   4.151  10.234   8.155
16151SOL     OW50284   2.081   1.978   0.382
16151SOL    HW150285   2.054   2.035   0.454
16151SOL    HW250286   2.136   1.912   0.424
16152SOL     OW50287   3.474   2.492   9.178
16152SOL    HW150288   3.546   2.502   9.115
16152SOL    HW250289   3.513   2.515   9.262
16153SOL     OW50290  12.242  11.168  13.123
16153SOL    HW150291  12.209  11.153  13.212
16153SOL    HW250292  12.193  11.244  13.092
16154SOL     OW50293   3.965  13.729  14.744
16154SOL    HW150294   3.996  13.813  14.712
16154SOL    HW250295   3.970  13.736  14.840
16155SOL     OW50296  10.601  11.381   4.495
16155SOL    HW150297  10.650  11.332   4.429
16155SOL    HW250298  10.535  11.430   4.445
16156SOL     OW50299   8.689   2.778   7.452
16156SOL    HW150300   8.596   2.761   7.463
16156SOL    HW250301   8.731   2.737   7.528
16157SOL     OW50302   4.784   8.067   9.705
16157SOL    HW150303   4.699   8.105   9.729
16157SOL    HW250304   4.780   8.059   9.610
16158SOL     OW50305  10.780   6.336   4.186
16158SOL    HW150306  10.742   6.304   4.268
16158SOL    HW250307  10.795   6.429   4.201
16159SOL     OW50308  11.611  12.415   4.485
16159SOL    HW150309  11.624  12.344   4.548
16159SOL    HW250310  11.517  12.412   4.466
16160SOL     OW50311   9.569  13.000  14.564
16160SOL    HW150312   9.627  12.973  14.635
16160SOL    HW250313   9.618  13.067  14.516
16161SOL     OW50314   1.908  13.027   4.775
16161SOL    HW150315   1.946  12.947   4.812
16161SOL    HW250316   1.980  13.090   4.775
16162SOL     OW50317   0.621  14.710   4.112
16162SOL    HW150318   0.601  14.796   4.147
16162SOL    HW250319   0.540  14.680   4.071
16163SOL     OW50320   7.369   4.337  12.637
16163SOL    HW150321   7.274   4.350  12.643
16163SOL    HW250322   7.403   4.369  12.721
16164SOL     OW50323   7.602   3.511   7.698
16164SOL    HW150324   7.576   3.531   7.788
16164SOL    HW250325   7.695   3.490   7.705
16165SOL     OW50326   0.906   6.790   3.099
16165SOL    HW150327   0.998   6.806   3.118
16165SOL    HW250328   0.889   6.839   3.019
16166SOL     OW50329   8.144  11.301   0.686
16166SOL    HW150330   8.178  11.321   0.774
16166SOL    HW250331   8.194  11.359   0.628
16167SOL     OW50332  11.713   3.377  13.805
16167SOL    HW150333  11.622   3.348  13.809
16167SOL    HW250334  11.730   3.391  13.712
16168SOL     OW50335   0.250   8.655   3.975
16168SOL    HW150336   0.292   8.716   4.036
16168SOL    HW250337   0.313   8.644   3.904
16169SOL     OW50338   9.159  11.479   2.613
16169SOL    HW150339   9.217  11.418   2.568
16169SOL    HW250340   9.215  11.523   2.677
16170SOL     OW50341   5.734  10.915   4.474
16170SOL    HW150342   5.688  10.850   4.421
16170SOL    HW250343   5.704  10.900   4.563
16171SOL     OW50344   6.483   1.504   7.696
16171SOL    HW150345   6.423   1.576   7.680
16171SOL    HW250346   6.447   1.459   7.773
16172SOL     OW50347   3.391  14.533   2.553
16172SOL    HW150348   3.405  14.443   2.582
16172SOL    HW250349   3.333  14.525   2.477
16173SOL     OW50350   3.573   5.216   3.744
16173SOL    HW150351   3.537   5.299   3.776
16173SOL    HW250352   3.560   5.155   3.816
16174SOL     OW50353  12.628   1.318   9.821
16174SOL    HW150354  12.671   1.249   9.872
16174SOL    HW250355  12.535   1.306   9.839
16175SOL     OW50356  11.902   0.958  10.750
16175SOL    HW150357  11.977   0.970  10.692
16175SOL    HW250358  11.847   0.894  10.705
16176SOL     OW50359   7.488   1.911  14.371
16176SOL    HW150360   7.457   1.870  14.451
16176SOL    HW250361   7.451   1.858  14.300
16177SOL     OW50362  10.002  11.475   4.276
16177SOL    HW150363  10.022  11.402   4.218
16177SOL    HW250364  10.087  11.511   4.300
16178SOL     OW50365   7.413   1.032   2.633
16178SOL    HW150366   7.454   1.101   2.685
16178SOL    HW250367   7.473   1.017   2.561
16179SOL     OW50368  12.969   8.632   1.874
16179SOL    HW150369  13.046   8.654   1.926
16179SOL    HW250370  12.902   8.609   1.938
16180SOL     OW50371  11.923   8.416   7.051
16180SOL    HW150372  11.923   8.508   7.025
16180SOL    HW250373  11.830   8.392   7.053
16181SOL     OW50374   8.693   9.547  13.621
16181SOL    HW150375   8.779   9.531  13.659
16181SOL    HW250376   8.686   9.484  13.549
16182SOL     OW50377   0.642   8.834  11.954
16182SOL    HW150378   0.591   8.879  11.887
16182SOL    HW250379   0.705   8.781  11.905
16183SOL     OW50380  12.238   6.791   1.712
16183SOL    HW150381  12.296   6.773   1.785
16183SOL    HW250382  12.227   6.886   1.712
16184SOL     OW50383   5.447  13.686   2.658
16184SOL    HW150384   5.459  13.654   2.569
16184SOL    HW250385   5.476  13.777   2.654
16185SOL     OW50386  14.672  12.294   8.686
16185SOL    HW150387  14.641  12.253   8.605
16185SOL    HW250388  14.655  12.229   8.754
16186SOL     OW50389   6.186   7.264  11.688
16186SOL    HW150390   6.206   7.351  11.724
16186SOL    HW250391   6.098   7.272  11.652
16187SOL     OW50392   4.665   4.385   9.656
16187SOL    HW150393   4.577   4.411   9.630
16187SOL    HW250394   4.683   4.436   9.734
16188SOL     OW50395   6.931   6.962   0.074
16188SOL    HW150396   6.914   6.934   0.164
16188SOL    HW250397   6.853   6.936   0.025
16189SOL     OW50398   8.828   0.291   2.054
16189SOL    HW150399   8.735   0.270   2.068
16189SOL    HW250400   8.848   0.257   1.967
16190SOL     OW50401   0.189   8.245  12.158
16190SOL    HW150402   0.261   8.305  12.139
16190SOL    HW250403   0.225   8.184  12.222
16191SOL     OW50404   0.605  13.989   4.850
16191SOL    HW150405   0.558  14.067   4.881
16191SOL    HW250406   0.673  13.975   4.915
16192SOL     OW50407   0.478  12.747  13.094
16192SOL    HW150408   0.518  12.675  13.046
16192SOL    HW250409   0.534  12.758  13.171
16193SOL     OW50410   8.489   7.720   5.124
16193SOL    HW150411   8.512   7.653   5.188
16193SOL    HW250412   8.442   7.673   5.056
16194SOL     OW50413   2.337  13.384   4.616
16194SOL    HW150414   2.259  13.425   4.579
16194SOL    HW250415   2.410  13.429   4.572
16195SOL     OW50416  14.100  12.129   0.625
16195SOL    HW150417  14.148  12.076   0.561
16195SOL    HW250418  14.148  12.117   0.707
16196SOL     OW50419   1.154   9.479  12.033
16196SOL    HW150420   1.195   9.543  12.092
16196SOL    HW250421   1.156   9.396  12.082
16197SOL     OW50422  14.419   1.037   6.291
16197SOL    HW150423  14.478   1.102   6.253
16197SOL    HW250424  14.362   1.011   6.218
16198SOL     OW50425  14.429   3.365   2.248
16198SOL    HW150426  14.431   3.460   2.238
16198SOL    HW250427  14.340   3.340   2.222
16199SOL     OW50428  12.785  13.706   8.417
16199SOL    HW150429  12.711  13.758   8.448
16199SOL    HW250430  12.843  13.700   8.493
16200SOL     OW50431   6.545  11.389  13.341
16200SOL    HW150432   6.451  11.370  13.344
16200SOL    HW250433   6.558  11.453  13.412
16201SOL     OW50434   7.120  13.002  11.933
16201SOL    HW150435   7.158  12.960  11.855
16201SOL    HW250436   7.088  12.929  11.986
16202SOL     OW50437   9.888  11.739  14.199
16202SOL    HW150438   9.976  11.708  14.221
16202SOL    HW250439   9.832  11.662  14.213
16203SOL     OW50440   4.571   4.510   2.561
16203SOL    HW150441   4.620   4.431   2.584
16203SOL    HW250442   4.570   4.510   2.465
16204SOL     OW50443   4.483  12.724   9.201
16204SOL    HW150444   4.457  12.657   9.138
16204SOL    HW250445   4.423  12.712   9.275
16205SOL     OW50446   1.071   3.574   1.510
16205SOL    HW150447   1.092   3.558   1.602
16205SOL    HW250448   1.129   3.645   1.484
16206SOL     OW50449   9.684  10.398  11.779
16206SOL    HW150450   9.673  10.446  11.698
16206SOL    HW250451   9.600  10.408  11.825
16207SOL     OW50452   7.454   1.649  10.387
16207SOL    HW150453   7.505   1.644  10.306
16207SOL    HW250454   7.518   1.675  10.454
16208SOL     OW50455   9.434   6.018   5.846
16208SOL    HW150456   9.428   6.058   5.759
16208SOL    HW250457   9.343   5.996   5.869
16209SOL     OW50458   3.917  10.655   3.246
16209SOL    HW150459   3.842  10.604   3.277
16209SOL    HW250460   3.899  10.671   3.153
16210SOL     OW50461  12.639  14.147  14.546
16210SOL    HW150462  12.727  14.147  14.586
16210SOL    HW250463  12.581  14.179  14.615
16211SOL     OW50464   7.842   8.133   1.159
16211SOL    HW150465   7.850   8.197   1.231
16211SOL    HW250466   7.853   8.185   1.080
16212SOL     OW50467   6.184   0.517   0.020
16212SOL    HW150468   6.109   0.475   0.062
16212SOL    HW250469   6.167   0.508  14.799
16213SOL     OW50470  14.422  12.780  11.038
16213SOL    HW150471  14.389  12.713  11.098
16213SOL    HW250472  14.484  12.734  10.982
16214SOL     OW50473   1.614  10.144   4.099
16214SOL    HW150474   1.639  10.136   4.191
16214SOL    HW250475   1.637  10.235   4.076
16215SOL     OW50476  13.858   7.835  11.639
16215SOL    HW150477  13.919   7.871  11.704
16215SOL    HW250478  13.876   7.741  11.639
16216SOL     OW50479   3.598  10.390   8.985
16216SOL    HW150480   3.625  10.305   8.950
16216SOL    HW250481   3.675  10.446   8.975
16217SOL     OW50482   4.947   6.572  12.429
16217SOL    HW150483   5.019   6.516  12.455
16217SOL    HW250484   4.974   6.660  12.456
16218SOL     OW50485   0.759   2.036  13.769
16218SOL    HW150486   0.729   2.120  13.735
16218SOL    HW250487   0.853   2.036  13.751
16219SOL     OW50488   3.572   4.464   2.587
16219SOL    HW150489   3.477   4.470   2.599
16219SOL    HW250490   3.596   4.380   2.624
16220SOL     OW50491   3.373   9.645   1.733
16220SOL    HW150492   3.400   9.637   1.641
16220SOL    HW250493   3.369   9.740   1.748
16221SOL     OW50494   8.679   1.922   4.293
16221SOL    HW150495   8.695   1.847   4.350
16221SOL    HW250496   8.584   1.926   4.284
16222SOL     OW50497   4.862   1.831   7.459
16222SOL    HW150498   4.893   1.788   7.379
16222SOL    HW250499   4.770   1.804   7.466
16223SOL     OW50500  12.088   5.283  11.452
16223SOL    HW150501  12.082   5.206  11.395
16223SOL    HW250502  12.172   5.323  11.429
16224SOL     OW50503   5.920  14.223  14.160
16224SOL    HW150504   5.977  14.285  14.114
16224SOL    HW250505   5.909  14.151  14.098
16225SOL     OW50506  11.147   5.955   4.463
16225SOL    HW150507  11.126   5.959   4.556
16225SOL    HW250508  11.189   6.039   4.444
16226SOL     OW50509  11.996   5.163   1.275
16226SOL    HW150510  11.978   5.225   1.204
16226SOL    HW250511  11.928   5.180   1.340
16227SOL     OW50512   8.226  11.169   1.153
16227SOL    HW150513   8.155  11.185   1.091
16227SOL    HW250514   8.288  11.114   1.106
16228SOL     OW50515   4.712  11.364   6.305
16228SOL    HW150516   4.774  11.438   6.308
16228SOL    HW250517   4.689  11.348   6.396
16229SOL     OW50518   6.988   0.853   7.158
16229SOL    HW150519   6.954   0.774   7.117
16229SOL    HW250520   6.933   0.866   7.235
16230SOL     OW50521  13.775   9.546   3.304
16230SOL    HW150522  13.791   9.473   3.363
16230SOL    HW250523  13.785   9.624   3.360
16231SOL     OW50524   8.498   0.233  14.627
16231SOL    HW150525   8.430   0.209  14.563
16231SOL    HW250526   8.454   0.292  14.687
16232SOL     OW50527   5.339   4.177   2.973
16232SOL    HW150528   5.367   4.268   2.962
16232SOL    HW250529   5.420   4.127   2.970
16233SOL     OW50530   0.188  12.775   9.481
16233SOL    HW150531   0.148  12.701   9.525
16233SOL    HW250532   0.122  12.845   9.484
16234SOL     OW50533  10.667   1.575   7.933
16234SOL    HW150534  10.587   1.557   7.983
16234SOL    HW250535  10.719   1.495   7.942
16235SOL     OW50536   5.908   7.437   8.015
16235SOL    HW150537   5.936   7.397   7.932
16235SOL    HW250538   5.841   7.376   8.048
16236SOL     OW50539   9.856   8.422   2.262
16236SOL    HW150540   9.766   8.390   2.257
16236SOL    HW250541   9.873   8.458   2.175
16237SOL     OW50542   3.479   2.129   7.288
16237SOL    HW150543   3.504   2.130   7.196
16237SOL    HW250544   3.460   2.220   7.310
16238SOL     OW50545   1.412   6.265   8.057
16238SOL    HW150546   1.433   6.313   8.137
16238SOL    HW250547   1.356   6.193   8.086
16239SOL     OW50548  11.619   1.192   6.257
16239SOL    HW150549  11.565   1.152   6.189
16239SOL    HW250550  11.679   1.122   6.283
16240SOL     OW50551   9.731  10.347   1.279
16240SOL    HW150552   9.801  10.412   1.279
16240SOL    HW250553   9.767  10.273   1.229
16241SOL     OW50554   5.575   3.300   5.214
16241SOL    HW150555   5.517   3.365   5.175
16241SOL    HW250556   5.663   3.326   5.186
16242SOL     OW50557  14.183  14.275  14.617
16242SOL    HW150558  14.117  14.205  14.614
16242SOL    HW250559  14.265  14.229  14.637
16243SOL     OW50560   9.879   4.677  14.549
16243SOL    HW150561   9.790   4.651  14.571
16243SOL    HW250562   9.931   4.650  14.625
16244SOL     OW50563  13.905  13.670   3.212
16244SOL    HW150564  13.894  13.647   3.304
16244SOL    HW250565  13.865  13.597   3.164
16245SOL     OW50566   4.308   4.193  10.724
16245SOL    HW150567   4.350   4.183  10.638
16245SOL    HW250568   4.301   4.103  10.757
16246SOL     OW50569   7.511   5.811   8.372
16246SOL    HW150570   7.591   5.835   8.325
16246SOL    HW250571   7.501   5.879   8.438
16247SOL     OW50572   3.830  13.777  12.425
16247SOL    HW150573   3.903  13.730  12.384
16247SOL    HW250574   3.861  13.867  12.433
16248SOL     OW50575   8.802  13.594  14.500
16248SOL    HW150576   8.743  13.661  14.466
16248SOL    HW250577   8.749  13.514  14.505
16249SOL     OW50578   1.166  11.446  10.747
16249SOL    HW150579   1.187  11.367  10.697
16249SOL    HW250580   1.223  11.442  10.824
16250SOL     OW50581   9.017   0.803   6.675
16250SOL    HW150582   9.010   0.869   6.606
16250SOL    HW250583   9.090   0.748   6.648
16251SOL     OW50584   5.781   5.835   5.626
16251SOL    HW150585   5.807   5.897   5.694
16251SOL    HW250586   5.864   5.805   5.588
16252SOL     OW50587  11.907  11.154  10.706
16252SOL    HW150588  11.863  11.228  10.749
16252SOL    HW250589  11.962  11.117  10.775
16253SOL     OW50590  14.343   9.205  11.208
16253SOL    HW150591  14.419   9.158  11.175
16253SOL    HW250592  14.358   9.213  11.302
16254SOL     OW50593   1.900  12.485   8.624
16254SOL    HW150594   1.991  12.467   8.600
16254SOL    HW250595   1.861  12.521   8.545
16255SOL     OW50596   8.869   3.103   1.916
16255SOL    HW150597   8.857   3.022   1.865
16255SOL    HW250598   8.912   3.163   1.855
16256SOL     OW50599   3.536   5.506   9.590
16256SOL    HW150600   3.622   5.549   9.593
16256SOL    HW250601   3.506   5.507   9.680
16257SOL     OW50602  13.439   2.574   9.718
16257SOL    HW150603  13.474   2.633   9.652
16257SOL    HW250604  13.492   2.590   9.796
16258SOL     OW50605   8.209   0.083   1.119
16258SOL    HW150606   8.271   0.016   1.149
16258SOL    HW250607   8.263   0.157   1.093
16259SOL     OW50608   8.129   8.899   2.862
16259SOL    HW150609   8.072   8.926   2.790
16259SOL    HW250610   8.195   8.842   2.821
16260SOL     OW50611   9.770  13.991   5.369
16260SOL    HW150612   9.807  14.006   5.282
16260SOL    HW250613   9.782  13.897   5.384
16261SOL     OW50614   4.057   4.984   3.951
16261SOL    HW150615   4.041   5.079   3.947
16261SOL    HW250616   4.029   4.959   4.039
16262SOL     OW50617   6.135   0.884   6.577
16262SOL    HW150618   6.095   0.900   6.491
16262SOL    HW250619   6.067   0.909   6.639
16263SOL     OW50620   2.709   3.677   9.762
16263SOL    HW150621   2.701   3.768   9.732
16263SOL    HW250622   2.796   3.673   9.801
16264SOL     OW50623  11.158   0.382  10.847
16264SOL    HW150624  11.211   0.452  10.884
16264SOL    HW250625  11.109   0.347  10.921
16265SOL     OW50626  12.829   0.266   6.516
16265SOL    HW150627  12.776   0.297   6.443
16265SOL    HW250628  12.779   0.290   6.594
16266SOL     OW50629   4.423   4.355   5.690
16266SOL    HW150630   4.406   4.345   5.597
16266SOL    HW250631   4.489   4.288   5.710
16267SOL     OW50632   2.772  12.018   8.205
16267SOL    HW150633   2.749  12.012   8.297
16267SOL    HW250634   2.710  12.080   8.168
16268SOL     OW50635  13.856   2.796   2.452
16268SOL    HW150636  13.878   2.885   2.477
16268SOL    HW250637  13.907   2.780   2.372
16269SOL     OW50638   3.889  14.512  12.638
16269SOL    HW150639   3.830  14.567  12.586
16269SOL    HW250640   3.887  14.552  12.726
16270SOL     OW50641   2.063   1.556   5.533
16270SOL    HW150642   2.045   1.549   5.627
16270SOL    HW250643   2.038   1.646   5.511
16271SOL     OW50644   9.274   2.237   8.195
16271SOL    HW150645   9.253   2.150   8.229
16271SOL    HW250646   9.316   2.221   8.111
16272SOL     OW50647   1.966   7.746   0.781
16272SOL    HW150648   1.970   7.783   0.693
16272SOL    HW250649   2.045   7.693   0.789
16273SOL     OW50650  13.979   4.307   7.547
16273SOL    HW150651  14.049   4.257   7.590
16273SOL    HW250652  14.013   4.323   7.459
16274SOL     OW50653   7.008   4.651   3.962
16274SOL    HW150654   6.994   4.556   3.963
16274SOL    HW250655   7.054   4.669   4.044
16275SOL     OW50656   4.366   5.478  12.177
16275SOL    HW150657   4.371   5.473  12.272
16275SOL    HW250658   4.342   5.389  12.150
16276SOL     OW50659   9.621   8.580  10.984
16276SOL    HW150660   9.694   8.590  11.044
16276SOL    HW250661   9.544   8.606  11.035
16277SOL     OW50662  11.795   9.891  13.048
16277SOL    HW150663  11.881   9.886  13.008
16277SOL    HW250664  11.799   9.969  13.103
16278SOL     OW50665   0.467   5.873   3.270
16278SOL    HW150666   0.552   5.895   3.309
16278SOL    HW250667   0.452   5.941   3.205
16279SOL     OW50668  14.442  12.003  11.701
16279SOL    HW150669  14.349  11.981  11.692
16279SOL    HW250670  14.484  11.920  11.724
16280SOL     OW50671   9.829  13.834   3.651
16280SOL    HW150672   9.823  13.887   3.572
16280SOL    HW250673   9.738  13.807   3.668
16281SOL     OW50674   3.774   5.261  14.870
16281SOL    HW150675   3.835   5.227   0.063
16281SOL    HW250676   3.721   5.324   0.047
16282SOL     OW50677   9.599   9.406   3.039
16282SOL    HW150678   9.615   9.320   3.001
16282SOL    HW250679   9.536   9.390   3.110
16283SOL     OW50680   4.285   2.463   5.933
16283SOL    HW150681   4.224   2.422   5.995
16283SOL    HW250682   4.336   2.390   5.897
16284SOL     OW50683   1.906   9.079  14.684
16284SOL    HW150684   1.859   9.005  14.724
16284SOL    HW250685   1.950   9.122  14.757
16285SOL     OW50686  13.834   0.916   3.043
16285SOL    HW150687  13.927   0.905   3.061
16285SOL    HW250688  13.831   0.977   2.969
16286SOL     OW50689  10.263   0.389   5.765
16286SOL    HW150690  10.320   0.424   5.696
16286SOL    HW250691  10.262   0.294   5.749
16287SOL     OW50692   6.900   2.216  12.056
16287SOL    HW150693   6.868   2.203  11.967
16287SOL    HW250694   6.946   2.300  12.053
16288SOL     OW50695   2.877  12.403   4.890
16288SOL    HW150696   2.784  12.380   4.888
16288SOL    HW250697   2.901  12.398   4.983
16289SOL     OW50698   3.934  11.741   1.459
16289SOL    HW150699   3.925  11.758   1.553
16289SOL    HW250700   3.845  11.718   1.431
16290SOL     OW50701   4.752  13.360   0.484
16290SOL    HW150702   4.670  13.310   0.481
16290SOL    HW250703   4.777  13.370   0.392
16291SOL     OW50704  13.008   2.664   7.772
16291SOL    HW150705  13.014   2.703   7.686
16291SOL    HW250706  13.022   2.736   7.833
16292SOL     OW50707   3.053   6.117   2.068
16292SOL    HW150708   3.107   6.039   2.080
16292SOL    HW250709   3.113   6.190   2.085
16293SOL     OW50710   6.310   8.974  13.817
16293SOL    HW150711   6.228   9.021  13.801
16293SOL    HW250712   6.283   8.884  13.834
16294SOL     OW50713   4.015   9.207  10.386
16294SOL    HW150714   4.062   9.287  10.408
16294SOL    HW250715   3.927   9.237  10.362
16295SOL     OW50716   8.281   6.030   5.598
16295SOL    HW150717   8.346   5.971   5.559
16295SOL    HW250718   8.284   6.108   5.543
16296SOL     OW50719   5.538   7.909  10.730
16296SOL    HW150720   5.594   7.862  10.668
16296SOL    HW250721   5.455   7.863  10.728
16297SOL     OW50722   5.040   5.166   7.031
16297SOL    HW150723   5.000   5.252   7.017
16297SOL    HW250724   5.119   5.167   6.977
16298SOL     OW50725  12.888   9.084   9.801
16298SOL    HW150726  12.801   9.046   9.785
16298SOL    HW250727  12.928   9.023   9.863
16299SOL     OW50728   3.617  12.537   2.053
16299SOL    HW150729   3.547  12.475   2.038
16299SOL    HW250730   3.588  12.618   2.010
16300SOL     OW50731   4.894  12.989   3.249
16300SOL    HW150732   4.815  12.967   3.299
16300SOL    HW250733   4.935  12.904   3.231
16301SOL     OW50734   1.997   6.962   4.635
16301SOL    HW150735   1.903   6.978   4.624
16301SOL    HW250736   2.008   6.869   4.619
16302SOL     OW50737   2.552   8.253   2.351
16302SOL    HW150738   2.628   8.278   2.299
16302SOL    HW250739   2.489   8.220   2.288
16303SOL     OW50740   9.580   1.225   2.699
16303SOL    HW150741   9.546   1.220   2.788
16303SOL    HW250742   9.562   1.315   2.671
16304SOL     OW50743   4.849   2.299  14.100
16304SOL    HW150744   4.803   2.215  14.102
16304SOL    HW250745   4.933   2.281  14.143
16305SOL     OW50746  10.737  11.194   6.228
16305SOL    HW150747  10.828  11.191   6.197
16305SOL    HW250748  10.741  11.158   6.316
16306SOL     OW50749   1.180   1.381   9.591
16306SOL    HW150750   1.239   1.307   9.607
16306SOL    HW250751   1.209   1.418   9.508
16307SOL     OW50752  13.831   1.656   9.963
16307SOL    HW150753  13.829   1.691   9.873
16307SOL    HW250754  13.899   1.589   9.961
16308SOL     OW50755   9.700   4.162   4.016
16308SOL    HW150756   9.611   4.159   4.051
16308SOL    HW250757   9.698   4.232   3.951
16309SOL     OW50758   5.063   4.926   3.770
16309SOL    HW150759   5.002   4.998   3.783
16309SOL    HW250760   5.035   4.858   3.832
16310SOL     OW50761  11.752   6.064   3.276
16310SOL    HW150762  11.813   6.128   3.313
16310SOL    HW250763  11.678   6.117   3.245
16311SOL     OW50764   6.004  13.425   7.086
16311SOL    HW150765   5.980  13.374   7.009
16311SOL    HW250766   6.057  13.365   7.139
16312SOL     OW50767   5.479   9.321   9.320
16312SOL    HW150768   5.551   9.265   9.349
16312SOL    HW250769   5.403   9.263   9.320
16313SOL     OW50770  13.857   8.460   2.695
16313SOL    HW150771  13.863   8.552   2.722
16313SOL    HW250772  13.938   8.421   2.727
16314SOL     OW50773  14.627   1.546  11.626
16314SOL    HW150774  14.662   1.595  11.700
16314SOL    HW250775  14.533   1.542  11.641
16315SOL     OW50776  14.624   3.702   2.129
16315SOL    HW150777  14.643   3.613   2.101
16315SOL    HW250778  14.709   3.739   2.152
16316SOL     OW50779  10.115  10.129   8.121
16316SOL    HW150780  10.020  10.138   8.130
16316SOL    HW250781  10.146  10.112   8.210
16317SOL     OW50782  10.889   1.448  10.018
16317SOL    HW150783  10.944   1.386  10.065
16317SOL    HW250784  10.799   1.423  10.042
16318SOL     OW50785   6.516  10.410   6.020
16318SOL    HW150786   6.606  10.389   6.044
16318SOL    HW250787   6.496  10.489   6.071
16319SOL     OW50788  11.607   4.842  14.367
16319SOL    HW150789  11.563   4.759  14.351
16319SOL    HW250790  11.698   4.826  14.344
16320SOL     OW50791  10.101   5.576   5.481
16320SOL    HW150792  10.112   5.508   5.414
16320SOL    HW250793  10.015   5.560   5.519
16321SOL     OW50794  13.319   0.585   3.313
16321SOL    HW150795  13.337   0.620   3.226
16321SOL    HW250796  13.313   0.662   3.369
16322SOL     OW50797   4.267   7.768   2.158
16322SOL    HW150798   4.196   7.785   2.219
16322SOL    HW250799   4.344   7.808   2.198
16323SOL     OW50800  11.206   6.713   6.617
16323SOL    HW150801  11.276   6.778   6.611
16323SOL    HW250802  11.159   6.736   6.697
16324SOL     OW50803   9.840  11.199  11.270
16324SOL    HW150804   9.845  11.111  11.233
16324SOL    HW250805   9.761  11.198  11.323
16325SOL     OW50806   6.722   3.362   6.937
16325SOL    HW150807   6.784   3.414   6.989
16325SOL    HW250808   6.655   3.425   6.910
16326SOL     OW50809   4.205   0.023   4.620
16326SOL    HW150810   4.253   0.085   4.565
16326SOL    HW250811   4.240  14.810   4.597
16327SOL     OW50812   0.131   6.885   2.012
16327SOL    HW150813   0.153   6.868   2.104
16327SOL    HW250814   0.068   6.817   1.990
16328SOL     OW50815   3.872  12.982   4.902
16328SOL    HW150816   3.908  13.006   4.817
16328SOL    HW250817   3.801  12.921   4.881
16329SOL     OW50818   1.575  14.595   8.481
16329SOL    HW150819   1.637  14.637   8.541
16329SOL    HW250820   1.539  14.522   8.532
16330SOL     OW50821   6.247   0.791   9.952
16330SOL    HW150822   6.337   0.810   9.978
16330SOL    HW250823   6.225   0.709   9.997
16331SOL     OW50824  14.862   3.812   3.603
16331SOL    HW150825  14.846   3.877   3.535
16331SOL    HW250826  14.831   3.852   3.684
16332SOL     OW50827   1.190   0.980   9.040
16332SOL    HW150828   1.252   1.050   9.062
16332SOL    HW250829   1.142   0.964   9.122
16333SOL     OW50830  11.295   6.462   2.108
16333SOL    HW150831  11.219   6.405   2.099
16333SOL    HW250832  11.298   6.511   2.026
16334SOL     OW50833   9.984  13.491   9.174
16334SOL    HW150834   9.911  13.432   9.154
16334SOL    HW250835  10.044  13.482   9.100
16335SOL     OW50836  13.337   4.576   8.251
16335SOL    HW150837  13.400   4.535   8.310
16335SOL    HW250838  13.390   4.619   8.184
16336SOL     OW50839  12.954   7.133   9.257
16336SOL    HW150840  12.986   7.223   9.265
16336SOL    HW250841  12.939   7.105   9.347
16337SOL     OW50842   0.152   1.512   1.229
16337SOL    HW150843   0.237   1.540   1.263
16337SOL    HW250844   0.173   1.464   1.149
16338SOL     OW50845   8.895   4.346   9.523
16338SOL    HW150846   8.811   4.343   9.477
16338SOL    HW250847   8.893   4.429   9.571
16339SOL     OW50848   9.293  14.582   8.843
16339SOL    HW150849   9.198  14.595   8.835
16339SOL    HW250850   9.328  14.608   8.758
16340SOL     OW50851   3.443  12.352  11.352
16340SOL    HW150852   3.360  12.375  11.309
16340SOL    HW250853   3.454  12.419  11.419
16341SOL     OW50854   8.588   3.391  11.237
16341SOL    HW150855   8.612   3.474  11.195
16341SOL    HW250856   8.592   3.409  11.331
16342SOL     OW50857   6.287   3.160   3.759
16342SOL    HW150858   6.281   3.172   3.854
16342SOL    HW250859   6.276   3.247   3.723
16343SOL     OW50860   1.221   3.164  10.593
16343SOL    HW150861   1.269   3.205  10.522
16343SOL    HW250862   1.182   3.238  10.641
16344SOL     OW50863   7.821   0.106   4.833
16344SOL    HW150864   7.747   0.146   4.879
16344SOL    HW250865   7.781   0.044   4.772
16345SOL     OW50866   8.906   3.163   6.022
16345SOL    HW150867   8.917   3.236   5.961
16345SOL    HW250868   8.845   3.196   6.088
16346SOL     OW50869   5.331   6.817   1.197
16346SOL    HW150870   5.363   6.907   1.204
16346SOL    HW250871   5.285   6.814   1.113
16347SOL     OW50872  11.668   4.730   5.442
16347SOL    HW150873  11.753   4.773   5.453
16347SOL    HW250874  11.667   4.704   5.350
16348SOL     OW50875   6.385   9.043   6.627
16348SOL    HW150876   6.424   8.955   6.626
16348SOL    HW250877   6.460   9.103   6.623
16349SOL     OW50878  10.372  13.167   6.302
16349SOL    HW150879  10.408  13.236   6.246
16349SOL    HW250880  10.339  13.101   6.241
16350SOL     OW50881   2.420   1.719  12.005
16350SOL    HW150882   2.443   1.768  12.084
16350SOL    HW250883   2.347   1.663  12.032
16351SOL     OW50884   3.061   2.654   0.728
16351SOL    HW150885   3.121   2.601   0.675
16351SOL    HW250886   2.974   2.622   0.705
16352SOL     OW50887  12.118   6.825  13.423
16352SOL    HW150888  12.180   6.759  13.393
16352SOL    HW250889  12.034   6.797  13.386
16353SOL     OW50890   9.221   7.352   8.536
16353SOL    HW150891   9.173   7.353   8.454
16353SOL    HW250892   9.155   7.372   8.603
16354SOL     OW50893   5.924   4.526   9.154
16354SOL    HW150894   5.916   4.600   9.093
16354SOL    HW250895   5.835   4.507   9.182
16355SOL     OW50896   5.270  14.127   4.612
16355SOL    HW150897   5.273  14.126   4.708
16355SOL    HW250898   5.356  14.161   4.586
16356SOL     OW50899   7.434  13.698   9.117
16356SOL    HW150900   7.451  13.648   9.037
16356SOL    HW250901   7.387  13.776   9.088
16357SOL     OW50902  12.891  13.251  14.566
16357SOL    HW150903  12.975  13.213  14.542
16357SOL    HW250904  12.845  13.180  14.612
16358SOL     OW50905  13.958   7.832   1.236
16358SOL    HW150906  13.951   7.738   1.253
16358SOL    HW250907  13.963   7.839   1.141
16359SOL     OW50908   9.168   9.960   6.789
16359SOL    HW150909   9.161   9.872   6.752
16359SOL    HW250910   9.117   9.956   6.870
16360SOL     OW50911   9.857   2.376   2.443
16360SOL    HW150912   9.826   2.286   2.452
16360SOL    HW250913   9.945   2.375   2.479
16361SOL     OW50914   6.379   2.832  13.141
16361SOL    HW150915   6.363   2.792  13.226
16361SOL    HW250916   6.440   2.903  13.159
16362SOL     OW50917   5.828   4.240  12.473
16362SOL    HW150918   5.750   4.244  12.418
16362SOL    HW250919   5.794   4.240  12.562
16363SOL     OW50920   5.990   8.625   8.107
16363SOL    HW150921   5.939   8.697   8.143
16363SOL    HW250922   5.951   8.608   8.021
16364SOL     OW50923   8.116  13.662  10.417
16364SOL    HW150924   8.121  13.689  10.325
16364SOL    HW250925   8.053  13.723  10.456
16365SOL     OW50926   0.656   7.354   4.120
16365SOL    HW150927   0.654   7.269   4.077
16365SOL    HW250928   0.625   7.416   4.054
16366SOL     OW50929   9.005  12.278   6.898
16366SOL    HW150930   8.970  12.189   6.909
16366SOL    HW250931   9.022  12.309   6.987
16367SOL     OW50932   6.253  13.320  14.443
16367SOL    HW150933   6.159  13.299  14.444
16367SOL    HW250934   6.256  13.412  14.469
16368SOL     OW50935   2.714  12.233   2.751
16368SOL    HW150936   2.630  12.194   2.729
16368SOL    HW250937   2.769  12.218   2.674
16369SOL     OW50938   9.235  13.739  12.398
16369SOL    HW150939   9.312  13.730  12.454
16369SOL    HW250940   9.214  13.650  12.370
16370SOL     OW50941   9.756   8.223   5.171
16370SOL    HW150942   9.838   8.211   5.125
16370SOL    HW250943   9.732   8.314   5.155
16371SOL     OW50944  12.775   2.278  14.485
16371SOL    HW150945  12.733   2.289  14.570
16371SOL    HW250946  12.703   2.286  14.422
16372SOL     OW50947   0.019  10.298  12.512
16372SOL    HW150948   0.009  10.389  12.485
16372SOL    HW250949  14.816  10.253  12.475
16373SOL     OW50950  12.931   9.621  13.223
16373SOL    HW150951  12.891   9.706  13.244
16373SOL    HW250952  12.928   9.615  13.128
16374SOL     OW50953  12.787   7.138   2.056
16374SOL    HW150954  12.756   7.125   1.966
16374SOL    HW250955  12.716   7.185   2.099
16375SOL     OW50956   0.187   1.600   9.194
16375SOL    HW150957   0.197   1.510   9.226
16375SOL    HW250958   0.221   1.598   9.105
16376SOL     OW50959  11.981   9.177   4.927
16376SOL    HW150960  11.968   9.156   5.020
16376SOL    HW250961  11.899   9.151   4.885
16377SOL     OW50962   9.978   4.247   8.383
16377SOL    HW150963   9.943   4.179   8.440
16377SOL    HW250964  10.040   4.202   8.326
16378SOL     OW50965  12.835   3.398   0.647
16378SOL    HW150966  12.817   3.330   0.712
16378SOL    HW250967  12.902   3.361   0.591
16379SOL     OW50968   0.713   6.067  13.366
16379SOL    HW150969   0.678   6.126  13.432
16379SOL    HW250970   0.689   6.107  13.282
16380SOL     OW50971  12.886  11.380  10.495
16380SOL    HW150972  12.921  11.339  10.575
16380SOL    HW250973  12.856  11.307  10.442
16381SOL     OW50974   9.810   5.333   3.311
16381SOL    HW150975   9.881   5.380   3.355
16381SOL    HW250976   9.781   5.269   3.376
16382SOL     OW50977   2.772  13.583   9.263
16382SOL    HW150978   2.766  13.584   9.167
16382SOL    HW250979   2.837  13.650   9.283
16383SOL     OW50980   8.002   9.351   9.842
16383SOL    HW150981   7.983   9.279   9.902
16383SOL    HW250982   8.092   9.377   9.863
16384SOL     OW50983   2.019  14.683   6.145
16384SOL    HW150984   1.952  14.622   6.116
16384SOL    HW250985   2.096  14.628   6.162
16385SOL     OW50986  12.739   6.734   4.877
16385SOL    HW150987  12.806   6.668   4.898
16385SOL    HW250988  12.671   6.721   4.943
16386SOL     OW50989  12.467  11.455   2.642
16386SOL    HW150990  12.507  11.507   2.572
16386SOL    HW250991  12.534  11.392   2.667
16387SOL     OW50992   3.911   1.931  14.231
16387SOL    HW150993   3.904   2.024  14.208
16387SOL    HW250994   3.988   1.900  14.183
16388SOL     OW50995  13.454   2.838   5.940
16388SOL    HW150996  13.392   2.908   5.961
16388SOL    HW250997  13.538   2.883   5.928
16389SOL     OW50998   5.561   7.246   9.531
16389SOL    HW150999   5.499   7.262   9.460
16389SOL    HW251000   5.510   7.201   9.598
16390SOL     OW51001   8.022   7.246   0.025
16390SOL    HW151002   7.997   7.331   0.061
16390SOL    HW251003   8.010   7.255  14.803
16391SOL     OW51004   7.666   1.471   7.565
16391SOL    HW151005   7.721   1.427   7.501
16391SOL    HW251006   7.611   1.402   7.602
16392SOL     OW51007   3.865   2.161  12.834
16392SOL    HW151008   3.887   2.121  12.750
16392SOL    HW251009   3.801   2.102  12.873
16393SOL     OW51010   1.908  13.464  12.057
16393SOL    HW151011   1.911  13.518  12.136
16393SOL    HW251012   1.953  13.517  11.990
16394SOL     OW51013   3.291   8.639   5.488
16394SOL    HW151014   3.279   8.587   5.409
16394SOL    HW251015   3.386   8.651   5.494
16395SOL     OW51016  12.457  11.711   6.472
16395SOL    HW151017  12.517  11.770   6.517
16395SOL    HW251018  12.370  11.736   6.504
16396SOL     OW51019   7.355   4.941   9.653
16396SOL    HW151020   7.382   4.850   9.640
16396SOL    HW251021   7.416   4.975   9.719
16397SOL     OW51022  10.400  13.120   1.021
16397SOL    HW151023  10.331  13.099   1.084
16397SOL    HW251024  10.408  13.215   1.026
16398SOL     OW51025  12.488   8.421  11.382
16398SOL    HW151026  12.440   8.477  11.322
16398SOL    HW251027  12.508   8.478  11.457
16399SOL     OW51028   0.531   3.040   0.222
16399SOL    HW151029   0.558   3.042   0.131
16399SOL    HW251030   0.501   2.950   0.237
16400SOL     OW51031   2.039   3.232  11.705
16400SOL    HW151032   2.110   3.217  11.767
16400SOL    HW251033   2.062   3.179  11.629
16401SOL     OW51034  13.676  12.204  12.770
16401SOL    HW151035  13.639  12.138  12.829
16401SOL    HW251036  13.680  12.161  12.685
16402SOL     OW51037  12.188   4.226   8.028
16402SOL    HW151038  12.153   4.184   8.107
16402SOL    HW251039  12.280   4.199   8.026
16403SOL     OW51040   4.958   0.166  11.307
16403SOL    HW151041   4.980   0.179  11.399
16403SOL    HW251042   5.029   0.110  11.274
16404SOL     OW51043   3.245  12.013   4.218
16404SOL    HW151044   3.184  11.990   4.148
16404SOL    HW251045   3.272  12.103   4.198
16405SOL     OW51046  10.876   6.239   2.237
16405SOL    HW151047  10.890   6.264   2.329
16405SOL    HW251048  10.853   6.146   2.241
16406SOL     OW51049  14.729   1.809   0.926
16406SOL    HW151050  14.722   1.737   0.989
16406SOL    HW251051  14.820   1.808   0.898
16407SOL     OW51052   8.638   6.822  12.752
16407SOL    HW151053   8.622   6.908  12.791
16407SOL    HW251054   8.626   6.837  12.658
16408SOL     OW51055   2.148   5.880   6.796
16408SOL    HW151056   2.162   5.800   6.744
16408SOL    HW251057   2.223   5.884   6.855
16409SOL     OW51058   6.217   3.290  11.654
16409SOL    HW151059   6.131   3.258  11.625
16409SOL    HW251060   6.280   3.241  11.601
16410SOL     OW51061   1.971   9.944  12.638
16410SOL    HW151062   1.911   9.960  12.566
16410SOL    HW251063   1.937   9.865  12.682
16411SOL     OW51064   8.083   1.719  10.534
16411SOL    HW151065   8.022   1.729  10.607
16411SOL    HW251066   8.157   1.671  10.571
16412SOL     OW51067  12.132   2.722  11.440
16412SOL    HW151068  12.122   2.808  11.483
16412SOL    HW251069  12.222   2.722  11.408
16413SOL     OW51070  11.799  10.236  12.215
16413SOL    HW151071  11.722  10.220  12.269
16413SOL    HW251072  11.825  10.326  12.235
16414SOL     OW51073  13.966   4.025  11.017
16414SOL    HW151074  13.999   3.981  11.095
16414SOL    HW251075  13.880   4.057  11.041
16415SOL     OW51076   4.945   5.825  13.576
16415SOL    HW151077   4.886   5.782  13.637
16415SOL    HW251078   5.033   5.803  13.607
16416SOL     OW51079   9.160  10.146   1.934
16416SOL    HW151080   9.211  10.066   1.949
16416SOL    HW251081   9.217  10.217   1.965
16417SOL     OW51082   1.669   2.293  13.545
16417SOL    HW151083   1.611   2.259  13.478
16417SOL    HW251084   1.642   2.249  13.625
16418SOL     OW51085   0.540   1.780  10.894
16418SOL    HW151086   0.522   1.867  10.860
16418SOL    HW251087   0.468   1.762  10.955
16419SOL     OW51088   3.141  11.385   5.921
16419SOL    HW151089   3.217  11.375   5.863
16419SOL    HW251090   3.095  11.301   5.914
16420SOL     OW51091  14.099   8.097  13.065
16420SOL    HW151092  14.048   8.138  13.134
16420SOL    HW251093  14.184   8.140  13.069
16421SOL     OW51094  11.809  13.089  14.173
16421SOL    HW151095  11.763  13.075  14.090
16421SOL    HW251096  11.856  13.171  14.161
16422SOL     OW51097   5.820   7.702   2.037
16422SOL    HW151098   5.769   7.693   2.117
16422SOL    HW251099   5.762   7.672   1.968
16423SOL     OW51100   5.676  10.970   9.671
16423SOL    HW151101   5.709  10.888   9.706
16423SOL    HW251102   5.650  11.020   9.749
16424SOL     OW51103   1.336   4.661   1.178
16424SOL    HW151104   1.372   4.733   1.127
16424SOL    HW251105   1.336   4.693   1.268
16425SOL     OW51106   5.575   2.889  10.566
16425SOL    HW151107   5.607   2.810  10.523
16425SOL    HW251108   5.520   2.857  10.637
16426SOL     OW51109   6.313   4.669   1.347
16426SOL    HW151110   6.263   4.659   1.265
16426SOL    HW251111   6.248   4.655   1.416
16427SOL     OW51112   0.632   9.788   5.471
16427SOL    HW151113   0.608   9.773   5.380
16427SOL    HW251114   0.723   9.758   5.477
16428SOL     OW51115   0.829   3.385  10.212
16428SOL    HW151116   0.907   3.377  10.157
16428SOL    HW251117   0.806   3.295  10.235
16429SOL     OW51118  11.584   7.352   4.289
16429SOL    HW151119  11.583   7.444   4.318
16429SOL    HW251120  11.614   7.304   4.366
16430SOL     OW51121   0.788   2.923  13.604
16430SOL    HW151122   0.730   2.980  13.655
16430SOL    HW251123   0.873   2.931  13.648
16431SOL     OW51124   9.589   5.509   2.886
16431SOL    HW151125   9.527   5.477   2.951
16431SOL    HW251126   9.544   5.500   2.802
16432SOL     OW51127  14.486  10.168  12.732
16432SOL    HW151128  14.575  10.204  12.741
16432SOL    HW251129  14.454  10.205  12.649
16433SOL     OW51130   1.503  14.510   2.667
16433SOL    HW151131   1.411  14.486   2.677
16433SOL    HW251132   1.503  14.605   2.678
16434SOL     OW51133   0.332   2.485  10.819
16434SOL    HW151134   0.312   2.560  10.874
16434SOL    HW251135   0.372   2.522  10.741
16435SOL     OW51136  12.377  10.763   4.505
16435SOL    HW151137  12.412  10.850   4.526
16435SOL    HW251138  12.296  10.757   4.556
16436SOL     OW51139  13.505   3.709   0.135
16436SOL    HW151140  13.532   3.632   0.084
16436SOL    HW251141  13.412   3.694   0.153
16437SOL     OW51142   7.617   7.787   0.089
16437SOL    HW151143   7.703   7.764   0.123
16437SOL    HW251144   7.585   7.855   0.148
16438SOL     OW51145   6.012   4.967   2.887
16438SOL    HW151146   6.012   5.053   2.846
16438SOL    HW251147   6.040   4.983   2.977
16439SOL     OW51148   0.547   4.402   7.304
16439SOL    HW151149   0.637   4.376   7.324
16439SOL    HW251150   0.554   4.491   7.271
16440SOL     OW51151   4.509   4.535  11.355
16440SOL    HW151152   4.504   4.565  11.264
16440SOL    HW251153   4.466   4.604  11.405
16441SOL     OW51154   2.149   6.129   7.011
16441SOL    HW151155   2.055   6.142   7.026
16441SOL    HW251156   2.160   6.034   7.009
16442SOL     OW51157   5.075   4.531   7.590
16442SOL    HW151158   4.990   4.566   7.562
16442SOL    HW251159   5.138   4.598   7.562
16443SOL     OW51160   0.637   2.575   4.517
16443SOL    HW151161   0.573   2.507   4.498
16443SOL    HW251162   0.586   2.656   4.517
16444SOL     OW51163  11.138   1.873  13.288
16444SOL    HW151164  11.055   1.873  13.241
16444SOL    HW251165  11.154   1.965  13.309
16445SOL     OW51166  12.970   0.316   1.857
16445SOL    HW151167  12.967   0.403   1.815
16445SOL    HW251168  12.968   0.255   1.783
16446SOL     OW51169   5.596   2.688  10.384
16446SOL    HW151170   5.657   2.620  10.357
16446SOL    HW251171   5.530   2.690  10.314
16447SOL     OW51172  14.623  11.153   3.149
16447SOL    HW151173  14.696  11.214   3.161
16447SOL    HW251174  14.601  11.124   3.238
16448SOL     OW51175  13.489   9.816  11.968
16448SOL    HW151176  13.541   9.836  12.046
16448SOL    HW251177  13.419   9.758  12.000
16449SOL     OW51178   0.116   1.299   5.368
16449SOL    HW151179   0.079   1.308   5.456
16449SOL    HW251180   0.103   1.385   5.328
16450SOL     OW51181  12.622   5.837  10.068
16450SOL    HW151182  12.568   5.826   9.990
16450SOL    HW251183  12.584   5.913  10.113
16451SOL     OW51184   1.336   9.211  14.095
16451SOL    HW151185   1.397   9.285  14.096
16451SOL    HW251186   1.391   9.136  14.073
16452SOL     OW51187   1.589   0.983   8.755
16452SOL    HW151188   1.609   1.073   8.781
16452SOL    HW251189   1.607   0.930   8.833
16453SOL     OW51190   0.228  12.233  13.759
16453SOL    HW151191   0.308  12.248  13.709
16453SOL    HW251192   0.257  12.231  13.850
16454SOL     OW51193   7.280   8.257   5.874
16454SOL    HW151194   7.337   8.313   5.927
16454SOL    HW251195   7.338   8.187   5.842
16455SOL     OW51196   2.800   9.633  12.915
16455SOL    HW151197   2.832   9.570  12.980
16455SOL    HW251198   2.705   9.624  12.916
16456SOL     OW51199  14.036  10.633   4.148
16456SOL    HW151200  14.125  10.626   4.114
16456SOL    HW251201  14.044  10.619   4.242
16457SOL     OW51202   0.248  14.495   8.201
16457SOL    HW151203   0.256  14.520   8.293
16457SOL    HW251204   0.154  14.484   8.187
16458SOL     OW51205   1.508   6.185   6.056
16458SOL    HW151206   1.488   6.194   5.963
16458SOL    HW251207   1.438   6.234   6.100
16459SOL     OW51208   7.669   9.907   9.982
16459SOL    HW151209   7.651   9.832  10.039
16459SOL    HW251210   7.585   9.928   9.942
16460SOL     OW51211   2.630   2.739   8.310
16460SOL    HW151212   2.569   2.674   8.277
16460SOL    HW251213   2.651   2.793   8.234
16461SOL     OW51214   5.482  11.773  11.904
16461SOL    HW151215   5.521  11.707  11.846
16461SOL    HW251216   5.393  11.741  11.920
16462SOL     OW51217   4.211   0.529  10.727
16462SOL    HW151218   4.152   0.460  10.697
16462SOL    HW251219   4.183   0.608  10.680
16463SOL     OW51220   8.512   0.886   0.306
16463SOL    HW151221   8.536   0.876   0.214
16463SOL    HW251222   8.590   0.921   0.347
16464SOL     OW51223  14.719   0.019   1.872
16464SOL    HW151224  14.784   0.034   1.804
16464SOL    HW251225  14.636   0.013   1.824
16465SOL     OW51226   0.901  13.459   0.355
16465SOL    HW151227   0.886  13.550   0.331
16465SOL    HW251228   0.988  13.458   0.395
16466SOL     OW51229  11.463   8.174   8.185
16466SOL    HW151230  11.486   8.167   8.278
16466SOL    HW251231  11.540   8.214   8.144
16467SOL     OW51232  12.203   0.685  14.578
16467SOL    HW151233  12.256   0.748  14.530
16467SOL    HW251234  12.138   0.654  14.514
16468SOL     OW51235   0.951   9.485   3.392
16468SOL    HW151236   0.963   9.437   3.310
16468SOL    HW251237   0.857   9.499   3.399
16469SOL     OW51238  13.767   4.903   1.902
16469SOL    HW151239  13.771   4.913   1.997
16469SOL    HW251240  13.675   4.917   1.880
16470SOL     OW51241   6.495   1.124   9.333
16470SOL    HW151242   6.402   1.122   9.354
16470SOL    HW251243   6.498   1.117   9.237
16471SOL     OW51244   7.004   6.161   7.365
16471SOL    HW151245   7.062   6.087   7.384
16471SOL    HW251246   7.014   6.220   7.439
16472SOL     OW51247   0.644   8.851   8.926
16472SOL    HW151248   0.552   8.877   8.926
16472SOL    HW251249   0.687   8.916   8.981
16473SOL     OW51250   8.125  13.697   4.922
16473SOL    HW151251   8.110  13.631   4.855
16473SOL    HW251252   8.202  13.667   4.970
16474SOL     OW51253   1.263  11.005  11.803
16474SOL    HW151254   1.248  10.913  11.781
16474SOL    HW251255   1.177  11.046  11.793
16475SOL     OW51256   3.156   4.032   0.391
16475SOL    HW151257   3.181   4.122   0.367
16475SOL    HW251258   3.141   3.989   0.307
16476SOL     OW51259   1.757  10.127   3.636
16476SOL    HW151260   1.701  10.135   3.559
16476SOL    HW251261   1.817  10.201   3.630
16477SOL     OW51262   1.394   3.971  10.461
16477SOL    HW151263   1.461   3.921  10.414
16477SOL    HW251264   1.313   3.923  10.445
16478SOL     OW51265   4.557  13.629   2.494
16478SOL    HW151266   4.647  13.627   2.526
16478SOL    HW251267   4.558  13.576   2.414
16479SOL     OW51268   8.289   6.377  11.891
16479SOL    HW151269   8.264   6.468  11.874
16479SOL    HW251270   8.206   6.331  11.903
16480SOL     OW51271   3.593   8.175   2.914
16480SOL    HW151272   3.675   8.196   2.869
16480SOL    HW251273   3.532   8.156   2.843
16481SOL     OW51274   8.354   0.144  13.771
16481SOL    HW151275   8.361   0.236  13.795
16481SOL    HW251276   8.424   0.130  13.707
16482SOL     OW51277   5.501   9.767   1.137
16482SOL    HW151278   5.464   9.795   1.220
16482SOL    HW251279   5.519   9.673   1.150
16483SOL     OW51280  14.425   5.858  14.541
16483SOL    HW151281  14.418   5.776  14.588
16483SOL    HW251282  14.404   5.925  14.606
16484SOL     OW51283   9.753  14.740   3.083
16484SOL    HW151284   9.692  14.685   3.133
16484SOL    HW251285   9.750  14.825   3.127
16485SOL     OW51286  12.453   9.011   1.728
16485SOL    HW151287  12.524   9.051   1.779
16485SOL    HW251288  12.430   8.932   1.776
16486SOL     OW51289   4.512   9.804   0.437
16486SOL    HW151290   4.579   9.736   0.430
16486SOL    HW251291   4.528   9.845   0.522
16487SOL     OW51292   3.659   8.895  14.420
16487SOL    HW151293   3.640   8.966  14.481
16487SOL    HW251294   3.588   8.900  14.356
16488SOL     OW51295   1.109   4.252   8.735
16488SOL    HW151296   1.195   4.211   8.739
16488SOL    HW251297   1.083   4.261   8.827
16489SOL     OW51298   7.703  11.081   3.311
16489SOL    HW151299   7.784  11.042   3.343
16489SOL    HW251300   7.680  11.028   3.234
16490SOL     OW51301   3.611   4.088   8.378
16490SOL    HW151302   3.654   4.050   8.302
16490SOL    HW251303   3.542   4.144   8.342
16491SOL     OW51304   6.191   4.302   2.143
16491SOL    HW151305   6.178   4.269   2.232
16491SOL    HW251306   6.124   4.370   2.133
16492SOL     OW51307   2.857  12.870  10.710
16492SOL    HW151308   2.892  12.957  10.728
16492SOL    HW251309   2.891  12.815  10.781
16493SOL     OW51310   9.094   5.228   1.544
16493SOL    HW151311   9.147   5.168   1.492
16493SOL    HW251312   9.103   5.312   1.500
16494SOL     OW51313   8.763   1.993   6.538
16494SOL    HW151314   8.706   1.985   6.462
16494SOL    HW251315   8.778   2.088   6.546
16495SOL     OW51316   0.710  10.436  11.388
16495SOL    HW151317   0.706  10.407  11.297
16495SOL    HW251318   0.798  10.412  11.417
16496SOL     OW51319   9.228   0.600   9.420
16496SOL    HW151320   9.293   0.659   9.382
16496SOL    HW251321   9.198   0.547   9.346
16497SOL     OW51322   2.987  12.956   8.818
16497SOL    HW151323   3.040  13.033   8.797
16497SOL    HW251324   2.915  12.990   8.872
16498SOL     OW51325   0.618   3.044   7.932
16498SOL    HW151326   0.695   3.042   7.876
16498SOL    HW251327   0.572   3.125   7.906
16499SOL     OW51328   3.254   7.841  12.170
16499SOL    HW151329   3.167   7.807  12.190
16499SOL    HW251330   3.256   7.848  12.074
16500SOL     OW51331   1.016   4.258   7.270
16500SOL    HW151332   0.974   4.217   7.195
16500SOL    HW251333   1.110   4.255   7.250
16501SOL     OW51334  13.700   8.009   4.073
16501SOL    HW151335  13.659   7.925   4.050
16501SOL    HW251336  13.793   7.996   4.052
16502SOL     OW51337  12.245  12.991   5.329
16502SOL    HW151338  12.217  13.056   5.394
16502SOL    HW251339  12.174  12.927   5.327
16503SOL     OW51340   5.614   1.291   5.941
16503SOL    HW151341   5.676   1.226   5.909
16503SOL    HW251342   5.553   1.304   5.869
16504SOL     OW51343   6.324   1.468   6.523
16504SOL    HW151344   6.339   1.502   6.611
16504SOL    HW251345   6.342   1.542   6.465
16505SOL     OW51346  12.914   6.891  13.724
16505SOL    HW151347  12.884   6.833  13.795
16505SOL    HW251348  12.971   6.955  13.767
16506SOL     OW51349   0.767  12.458   0.607
16506SOL    HW151350   0.746  12.424   0.520
16506SOL    HW251351   0.693  12.515   0.629
16507SOL     OW51352   5.283  12.143   9.715
16507SOL    HW151353   5.289  12.055   9.678
16507SOL    HW251354   5.296  12.130   9.809
16508SOL     OW51355   7.967   2.746   1.518
16508SOL    HW151356   8.050   2.793   1.511
16508SOL    HW251357   7.990   2.662   1.557
16509SOL     OW51358   3.716   6.502   4.223
16509SOL    HW151359   3.759   6.468   4.145
16509SOL    HW251360   3.693   6.424   4.274
16510SOL     OW51361   2.635   9.182   5.126
16510SOL    HW151362   2.724   9.154   5.102
16510SOL    HW251363   2.580   9.107   5.107
16511SOL     OW51364  10.979   4.981   1.950
16511SOL    HW151365  11.006   4.963   1.860
16511SOL    HW251366  11.041   5.046   1.982
16512SOL     OW51367   0.863   9.533  11.600
16512SOL    HW151368   0.803   9.600  11.566
16512SOL    HW251369   0.873   9.555  11.692
16513SOL     OW51370   2.160   9.100   1.911
16513SOL    HW151371   2.219   9.025   1.904
16513SOL    HW251372   2.216   9.176   1.897
16514SOL     OW51373   2.168   3.479  12.318
16514SOL    HW151374   2.093   3.420  12.330
16514SOL    HW251375   2.155   3.547  12.384
16515SOL     OW51376   4.165  10.193   4.589
16515SOL    HW151377   4.198  10.118   4.640
16515SOL    HW251378   4.112  10.243   4.651
16516SOL     OW51379  12.376   3.249   0.470
16516SOL    HW151380  12.343   3.242   0.560
16516SOL    HW251381  12.449   3.311   0.477
16517SOL     OW51382  10.731   3.432   7.184
16517SOL    HW151383  10.815   3.393   7.159
16517SOL    HW251384  10.744   3.460   7.274
16518SOL     OW51385  12.858  11.425   5.967
16518SOL    HW151386  12.811  11.406   5.886
16518SOL    HW251387  12.845  11.518   5.982
16519SOL     OW51388   4.923   6.294   5.982
16519SOL    HW151389   4.862   6.220   5.981
16519SOL    HW251390   5.003   6.260   5.941
16520SOL     OW51391   4.633   9.869  10.539
16520SOL    HW151392   4.551   9.901  10.577
16520SOL    HW251393   4.614   9.778  10.515
16521SOL     OW51394   1.888  13.924   7.111
16521SOL    HW151395   1.852  13.925   7.200
16521SOL    HW251396   1.858  14.006   7.073
16522SOL     OW51397   4.738   3.550   7.891
16522SOL    HW151398   4.660   3.595   7.859
16522SOL    HW251399   4.794   3.620   7.923
16523SOL     OW51400  10.349   7.304   8.494
16523SOL    HW151401  10.264   7.341   8.514
16523SOL    HW251402  10.336   7.255   8.413
16524SOL     OW51403  10.789   1.260   6.536
16524SOL    HW151404  10.818   1.333   6.482
16524SOL    HW251405  10.764   1.192   6.474
16525SOL     OW51406   7.309   2.739  14.870
16525SOL    HW151407   7.361   2.679  14.817
16525SOL    HW251408   7.334   2.719   0.088
16526SOL     OW51409   2.286   2.255   1.206
16526SOL    HW151410   2.273   2.293   1.293
16526SOL    HW251411   2.249   2.167   1.213
16527SOL     OW51412   9.245   8.317   4.776
16527SOL    HW151413   9.316   8.373   4.808
16527SOL    HW251414   9.287   8.232   4.758
16528SOL     OW51415   6.231   7.856   2.984
16528SOL    HW151416   6.287   7.853   2.907
16528SOL    HW251417   6.274   7.919   3.042
16529SOL     OW51418   7.946   9.099   5.134
16529SOL    HW151419   7.924   9.017   5.090
16529SOL    HW251420   7.862   9.136   5.160
16530SOL     OW51421  11.984  14.770   8.146
16530SOL    HW151422  12.013  14.679   8.146
16530SOL    HW251423  11.913  14.772   8.081
16531SOL     OW51424   4.414   3.045  13.018
16531SOL    HW151425   4.385   3.120  13.069
16531SOL    HW251426   4.393   3.068  12.927
16532SOL     OW51427  10.650   1.407   3.454
16532SOL    HW151428  10.716   1.395   3.522
16532SOL    HW251429  10.587   1.337   3.469
16533SOL     OW51430   3.720   2.537   6.458
16533SOL    HW151431   3.630   2.516   6.436
16533SOL    HW251432   3.760   2.563   6.375
16534SOL     OW51433   2.398   6.279  14.809
16534SOL    HW151434   2.372   6.363  14.846
16534SOL    HW251435   2.342   6.268  14.732
16535SOL     OW51436   9.546   7.554  11.025
16535SOL    HW151437   9.514   7.482  10.971
16535SOL    HW251438   9.516   7.633  10.981
16536SOL     OW51439   7.798   7.892   3.729
16536SOL    HW151440   7.802   7.980   3.690
16536SOL    HW251441   7.786   7.908   3.823
16537SOL     OW51442   7.118   6.644   9.122
16537SOL    HW151443   7.195   6.620   9.175
16537SOL    HW251444   7.095   6.732   9.152
16538SOL     OW51445  11.127  11.465   5.245
16538SOL    HW151446  11.151  11.470   5.337
16538SOL    HW251447  11.032  11.456   5.246
16539SOL     OW51448   0.936   4.906  13.423
16539SOL    HW151449   0.856   4.943  13.459
16539SOL    HW251450   0.945   4.947  13.337
16540SOL     OW51451   8.835  11.727   7.650
16540SOL    HW151452   8.901  11.788   7.616
16540SOL    HW251453   8.779  11.708   7.574
16541SOL     OW51454   2.061  14.818  10.096
16541SOL    HW151455   1.991  14.819  10.030
16541SOL    HW251456   2.121  14.751  10.065
16542SOL     OW51457   8.638   8.556   7.864
16542SOL    HW151458   8.624   8.607   7.944
16542SOL    HW251459   8.594   8.473   7.880
16543SOL     OW51460   0.395   2.558   9.707
16543SOL    HW151461   0.415   2.485   9.648
16543SOL    HW251462   0.423   2.636   9.660
16544SOL     OW51463  13.185   0.031  13.848
16544SOL    HW151464  13.169   0.098  13.914
16544SOL    HW251465  13.102  14.856  13.841
16545SOL     OW51466   1.629   6.270   4.019
16545SOL    HW151467   1.613   6.236   3.930
16545SOL    HW251468   1.713   6.232   4.044
16546SOL     OW51469  10.557  10.465   6.479
16546SOL    HW151470  10.641  10.464   6.524
16546SOL    HW251471  10.492  10.479   6.548
16547SOL     OW51472  10.027  10.884  13.052
16547SOL    HW151473   9.947  10.849  13.013
16547SOL    HW251474  10.070  10.932  12.981
16548SOL     OW51475  12.385   9.266   4.088
16548SOL    HW151476  12.382   9.330   4.159
16548SOL    HW251477  12.344   9.311   4.014
16549SOL     OW51478   3.907  10.761   6.202
16549SOL    HW151479   3.973  10.796   6.262
16549SOL    HW251480   3.958  10.720   6.131
16550SOL     OW51481   7.611   3.620  12.151
16550SOL    HW151482   7.568   3.642  12.234
16550SOL    HW251483   7.705   3.629  12.170
16551SOL     OW51484   6.310   2.924   6.213
16551SOL    HW151485   6.257   2.847   6.192
16551SOL    HW251486   6.388   2.888   6.255
16552SOL     OW51487  10.406   5.899   3.862
16552SOL    HW151488  10.429   5.810   3.836
16552SOL    HW251489  10.357   5.889   3.943
16553SOL     OW51490   9.660  13.927  12.397
16553SOL    HW151491   9.663  13.980  12.318
16553SOL    HW251492   9.706  13.980  12.463
16554SOL     OW51493  14.523  11.475   1.980
16554SOL    HW151494  14.459  11.405   1.990
16554SOL    HW251495  14.592  11.454   2.042
16555SOL     OW51496   0.214   2.820   4.515
16555SOL    HW151497   0.219   2.912   4.489
16555SOL    HW251498   0.218   2.822   4.611
16556SOL     OW51499   2.404  12.023  10.733
16556SOL    HW151500   2.490  12.041  10.695
16556SOL    HW251501   2.379  12.105  10.775
16557SOL     OW51502   0.285   4.686  13.265
16557SOL    HW151503   0.379   4.704  13.264
16557SOL    HW251504   0.252   4.737  13.339
16558SOL     OW51505  14.247   8.107   2.164
16558SOL    HW151506  14.332   8.112   2.207
16558SOL    HW251507  14.208   8.193   2.177
16559SOL     OW51508   0.277   6.695  14.166
16559SOL    HW151509   0.204   6.747  14.131
16559SOL    HW251510   0.324   6.755  14.224
16560SOL     OW51511   0.717  13.199  13.673
16560SOL    HW151512   0.796  13.223  13.721
16560SOL    HW251513   0.715  13.104  13.674
16561SOL     OW51514  13.047   0.175  11.426
16561SOL    HW151515  12.984   0.170  11.354
16561SOL    HW251516  13.069   0.268  11.431
16562SOL     OW51517  14.251  14.776   3.321
16562SOL    HW151518  14.265  14.804   3.230
16562SOL    HW251519  14.162  14.806   3.341
16563SOL     OW51520  12.074   5.494  14.552
16563SOL    HW151521  12.163   5.526  14.542
16563SOL    HW251522  12.063   5.480  14.646
16564SOL     OW51523  14.787  14.816  13.986
16564SOL    HW151524  14.817  14.809  14.077
16564SOL    HW251525  14.824  14.739  13.943
16565SOL     OW51526  12.312   7.192   3.694
16565SOL    HW151527  12.403   7.169   3.674
16565SOL    HW251528  12.274   7.216   3.610
16566SOL     OW51529   2.020  11.870  12.313
16566SOL    HW151530   2.099  11.899  12.359
16566SOL    HW251531   1.955  11.858  12.381
16567SOL     OW51532   3.440   2.922   6.172
16567SOL    HW151533   3.523   2.876   6.159
16567SOL    HW251534   3.459   2.989   6.238
16568SOL     OW51535   5.967   6.930   7.100
16568SOL    HW151536   5.991   6.857   7.043
16568SOL    HW251537   6.029   6.926   7.172
16569SOL     OW51538   6.970  11.218   8.342
16569SOL    HW151539   6.875  11.211   8.352
16569SOL    HW251540   6.981  11.278   8.268
16570SOL     OW51541  13.803  13.041   5.308
16570SOL    HW151542  13.881  13.096   5.304
16570SOL    HW251543  13.739  13.093   5.357
16571SOL     OW51544  12.752  12.230  11.200
16571SOL    HW151545  12.782  12.310  11.158
16571SOL    HW251546  12.674  12.257  11.250
16572SOL     OW51547   9.595  13.621   7.017
16572SOL    HW151548   9.690  13.630   7.009
16572SOL    HW251549   9.561  13.709   6.999
16573SOL     OW51550   0.446   7.426   6.483
16573SOL    HW151551   0.475   7.339   6.511
16573SOL    HW251552   0.446   7.422   6.388
16574SOL     OW51553   3.128  10.607   7.678
16574SOL    HW151554   3.187  10.566   7.742
16574SOL    HW251555   3.074  10.667   7.730
16575SOL     OW51556   4.944  14.008  10.298
16575SOL    HW151557   5.031  14.040  10.320
16575SOL    HW251558   4.892  14.087  10.284
16576SOL     OW51559   8.295   6.604   3.191
16576SOL    HW151560   8.213   6.623   3.145
16576SOL    HW251561   8.267   6.579   3.279
16577SOL     OW51562  11.473   4.140   0.873
16577SOL    HW151563  11.558   4.149   0.916
16577SOL    HW251564  11.436   4.061   0.911
16578SOL     OW51565   9.500   9.482   6.827
16578SOL    HW151566   9.578   9.438   6.793
16578SOL    HW251567   9.427   9.442   6.780
16579SOL     OW51568   7.414   9.663   0.045
16579SOL    HW151569   7.462   9.628   0.120
16579SOL    HW251570   7.467   9.737   0.015
16580SOL     OW51571   8.757   7.577   0.854
16580SOL    HW151572   8.706   7.601   0.777
16580SOL    HW251573   8.744   7.650   0.915
16581SOL     OW51574  11.090   2.820   5.210
16581SOL    HW151575  11.006   2.801   5.251
16581SOL    HW251576  11.129   2.734   5.192
16582SOL     OW51577  11.187   4.899   9.697
16582SOL    HW151578  11.254   4.967   9.697
16582SOL    HW251579  11.190   4.861   9.784
16583SOL     OW51580   0.899   3.869   9.250
16583SOL    HW151581   0.973   3.892   9.195
16583SOL    HW251582   0.868   3.785   9.214
16584SOL     OW51583   2.985   1.590   0.897
16584SOL    HW151584   2.997   1.496   0.887
16584SOL    HW251585   2.914   1.599   0.960
16585SOL     OW51586   9.802   2.549   7.221
16585SOL    HW151587   9.897   2.544   7.233
16585SOL    HW251588   9.770   2.590   7.301
16586SOL     OW51589   1.027   8.173   6.846
16586SOL    HW151590   1.041   8.096   6.901
16586SOL    HW251591   1.002   8.243   6.908
16587SOL     OW51592  13.893   8.676   6.509
16587SOL    HW151593  13.861   8.643   6.425
16587SOL    HW251594  13.945   8.753   6.487
16588SOL     OW51595  11.229   2.759  12.807
16588SOL    HW151596  11.232   2.673  12.767
16588SOL    HW251597  11.305   2.761  12.866
16589SOL     OW51598  11.420   4.563   8.654
16589SOL    HW151599  11.501   4.521   8.681
16589SOL    HW251600  11.426   4.568   8.558
16590SOL     OW51601   1.897  12.652   9.455
16590SOL    HW151602   1.952  12.728   9.437
16590SOL    HW251603   1.958  12.578   9.456
16591SOL     OW51604   0.389   0.911   1.555
16591SOL    HW151605   0.440   0.834   1.529
16591SOL    HW251606   0.446   0.985   1.537
16592SOL     OW51607  14.551  13.699   8.123
16592SOL    HW151608  14.594  13.642   8.187
16592SOL    HW251609  14.588  13.785   8.138
16593SOL     OW51610   8.182   9.795  10.969
16593SOL    HW151611   8.199   9.815  11.061
16593SOL    HW251612   8.087   9.809  10.959
16594SOL     OW51613   5.727   0.753   2.262
16594SOL    HW151614   5.771   0.832   2.231
16594SOL    HW251615   5.650   0.784   2.308
16595SOL     OW51616  13.266   3.393   8.392
16595SOL    HW151617  13.199   3.444   8.346
16595SOL    HW251618  13.282   3.317   8.335
16596SOL     OW51619  13.605   2.038   0.562
16596SOL    HW151620  13.596   1.981   0.486
16596SOL    HW251621  13.592   1.979   0.637
16597SOL     OW51622  12.909   5.975  13.763
16597SOL    HW151623  12.873   6.058  13.732
16597SOL    HW251624  12.854   5.908  13.721
16598SOL     OW51625   7.645  13.635   5.542
16598SOL    HW151626   7.616  13.594   5.460
16598SOL    HW251627   7.579  13.702   5.559
16599SOL     OW51628  11.042   5.663  11.794
16599SOL    HW151629  11.084   5.662  11.880
16599SOL    HW251630  11.019   5.571  11.777
16600SOL     OW51631   5.149  14.033  13.447
16600SOL    HW151632   5.075  14.091  13.466
16600SOL    HW251633   5.225  14.078  13.484
16601SOL     OW51634   7.116   5.141   5.054
16601SOL    HW151635   7.150   5.125   4.966
16601SOL    HW251636   7.025   5.167   5.041
16602SOL     OW51637   5.916  12.936  10.901
16602SOL    HW151638   5.995  12.989  10.894
16602SOL    HW251639   5.923  12.893  10.986
16603SOL     OW51640  14.826   0.732   0.843
16603SOL    HW151641  14.794   0.818   0.814
16603SOL    HW251642  14.803   0.728   0.936
16604SOL     OW51643   2.737   8.331   7.855
16604SOL    HW151644   2.823   8.312   7.892
16604SOL    HW251645   2.722   8.424   7.875
16605SOL     OW51646   5.401   7.308   0.366
16605SOL    HW151647   5.454   7.387   0.369
16605SOL    HW251648   5.314   7.337   0.339
16606SOL     OW51649   3.438   0.679   3.104
16606SOL    HW151650   3.391   0.759   3.126
16606SOL    HW251651   3.435   0.627   3.184
16607SOL     OW51652   3.384   8.973  10.845
16607SOL    HW151653   3.383   8.909  10.916
16607SOL    HW251654   3.475   9.005  10.842
16608SOL     OW51655   5.656   0.870   7.850
16608SOL    HW151656   5.590   0.803   7.832
16608SOL    HW251657   5.708   0.873   7.769
16609SOL     OW51658   1.011   8.647   5.237
16609SOL    HW151659   1.097   8.613   5.215
16609SOL    HW251660   1.028   8.729   5.284
16610SOL     OW51661   3.564   0.192   2.548
16610SOL    HW151662   3.650   0.173   2.512
16610SOL    HW251663   3.510   0.118   2.521
16611SOL     OW51664   1.904   3.265  10.846
16611SOL    HW151665   1.900   3.170  10.858
16611SOL    HW251666   1.998   3.284  10.839
16612SOL     OW51667   0.344   9.774   2.267
16612SOL    HW151668   0.345   9.680   2.287
16612SOL    HW251669   0.282   9.782   2.194
16613SOL     OW51670   6.370   6.679   7.027
16613SOL    HW151671   6.363   6.584   7.017
16613SOL    HW251672   6.463   6.694   7.045
16614SOL     OW51673   0.837   1.186  10.286
16614SOL    HW151674   0.864   1.143  10.204
16614SOL    HW251675   0.750   1.222  10.267
16615SOL     OW51676  13.815   8.084   0.062
16615SOL    HW151677  13.723   8.100   0.083
16615SOL    HW251678  13.838   8.006   0.112
16616SOL     OW51679   7.581   6.715   8.806
16616SOL    HW151680   7.581   6.717   8.902
16616SOL    HW251681   7.519   6.645   8.784
16617SOL     OW51682  13.403  13.648   4.003
16617SOL    HW151683  13.420  13.711   3.933
16617SOL    HW251684  13.376  13.568   3.958
16618SOL     OW51685   1.032  13.956  13.925
16618SOL    HW151686   1.005  13.984  13.838
16618SOL    HW251687   1.108  14.010  13.946
16619SOL     OW51688   0.152  13.097  12.156
16619SOL    HW151689   0.151  13.145  12.073
16619SOL    HW251690   0.167  13.006  12.131
16620SOL     OW51691  14.113   2.042   4.842
16620SOL    HW151692  14.199   2.003   4.827
16620SOL    HW251693  14.073   2.048   4.755
16621SOL     OW51694   9.068  11.464   5.663
16621SOL    HW151695   9.093  11.525   5.594
16621SOL    HW251696   9.123  11.388   5.649
16622SOL     OW51697   4.554   3.164   5.727
16622SOL    HW151698   4.522   3.193   5.812
16622SOL    HW251699   4.557   3.068   5.733
16623SOL     OW51700  12.139   7.674   0.393
16623SOL    HW151701  12.118   7.656   0.485
16623SOL    HW251702  12.230   7.644   0.384
16624SOL     OW51703  13.382   4.369   5.314
16624SOL    HW151704  13.445   4.407   5.252
16624SOL    HW251705  13.306   4.347   5.260
16625SOL     OW51706  12.047   9.038   3.198
16625SOL    HW151707  12.061   8.998   3.112
16625SOL    HW251708  12.012   8.968   3.253
16626SOL     OW51709   8.950   8.620   1.083
16626SOL    HW151710   8.878   8.600   1.144
16626SOL    HW251711   8.919   8.696   1.033
16627SOL     OW51712   4.317   9.516  13.275
16627SOL    HW151713   4.352   9.557  13.196
16627SOL    HW251714   4.280   9.433  13.245
16628SOL     OW51715   4.891   4.102  10.551
16628SOL    HW151716   4.848   4.028  10.593
16628SOL    HW251717   4.903   4.166  10.621
16629SOL     OW51718  14.248   3.115   7.675
16629SOL    HW151719  14.206   3.167   7.606
16629SOL    HW251720  14.187   3.120   7.749
16630SOL     OW51721  12.183   6.137  10.901
16630SOL    HW151722  12.107   6.171  10.853
16630SOL    HW251723  12.233   6.216  10.925
16631SOL     OW51724   3.691   8.496   8.129
16631SOL    HW151725   3.714   8.561   8.063
16631SOL    HW251726   3.680   8.415   8.080
16632SOL     OW51727   9.744  12.000   3.005
16632SOL    HW151728   9.741  12.095   3.012
16632SOL    HW251729   9.665  11.977   2.955
16633SOL     OW51730  12.997   6.477   9.700
16633SOL    HW151731  13.089   6.459   9.679
16633SOL    HW251732  12.957   6.494   9.614
16634SOL     OW51733  12.038   9.848   9.127
16634SOL    HW151734  12.062   9.883   9.213
16634SOL    HW251735  12.051   9.922   9.067
16635SOL     OW51736   0.202  12.100   5.690
16635SOL    HW151737   0.279  12.055   5.657
16635SOL    HW251738   0.186  12.060   5.775
16636SOL     OW51739   3.519  11.247  12.905
16636SOL    HW151740   3.494  11.246  12.998
16636SOL    HW251741   3.464  11.180  12.865
16637SOL     OW51742  13.876  10.115  14.465
16637SOL    HW151743  13.846  10.125  14.375
16637SOL    HW251744  13.802  10.076  14.511
16638SOL     OW51745   3.562  13.833   8.485
16638SOL    HW151746   3.635  13.877   8.443
16638SOL    HW251747   3.529  13.897   8.549
16639SOL     OW51748   1.575   1.582   3.204
16639SOL    HW151749   1.538   1.570   3.291
16639SOL    HW251750   1.562   1.675   3.185
16640SOL     OW51751  13.147  10.807   4.298
16640SOL    HW151752  13.181  10.743   4.236
16640SOL    HW251753  13.163  10.768   4.384
16641SOL     OW51754   2.489  14.111   2.771
16641SOL    HW151755   2.577  14.131   2.804
16641SOL    HW251756   2.483  14.159   2.688
16642SOL     OW51757  12.995  14.528   8.992
16642SOL    HW151758  13.061  14.550   9.058
16642SOL    HW251759  13.041  14.473   8.929
16643SOL     OW51760   3.746   7.505  14.864
16643SOL    HW151761   3.741   7.549  14.779
16643SOL    HW251762   3.835   7.471  14.868
16644SOL     OW51763  14.294   7.399   7.317
16644SOL    HW151764  14.276   7.480   7.269
16644SOL    HW251765  14.269   7.330   7.256
16645SOL     OW51766   2.068  13.839   2.166
16645SOL    HW151767   2.035  13.865   2.252
16645SOL    HW251768   1.998  13.863   2.106
16646SOL     OW51769   4.019  12.931   6.058
16646SOL    HW151770   4.105  12.901   6.087
16646SOL    HW251771   3.957  12.889   6.117
16647SOL     OW51772   4.987   7.733  12.343
16647SOL    HW151773   5.080   7.723  12.322
16647SOL    HW251774   4.983   7.721  12.438
16648SOL     OW51775  11.331   6.087   4.145
16648SOL    HW151776  11.386   6.123   4.075
16648SOL    HW251777  11.251   6.139   4.142
16649SOL     OW51778   7.075  14.145  10.731
16649SOL    HW151779   7.128  14.065  10.739
16649SOL    HW251780   6.995  14.124  10.778
16650SOL     OW51781   5.611   3.307   3.502
16650SOL    HW151782   5.705   3.317   3.486
16650SOL    HW251783   5.572   3.390   3.474
16651SOL     OW51784   7.383   0.388   3.907
16651SOL    HW151785   7.350   0.477   3.892
16651SOL    HW251786   7.478   0.397   3.907
16652SOL     OW51787   8.269  11.200   4.331
16652SOL    HW151788   8.305  11.126   4.379
16652SOL    HW251789   8.330  11.272   4.350
16653SOL     OW51790   4.377   6.030  14.358
16653SOL    HW151791   4.371   5.988  14.272
16653SOL    HW251792   4.389   5.957  14.420
16654SOL     OW51793  11.362  12.268   2.863
16654SOL    HW151794  11.448  12.227   2.864
16654SOL    HW251795  11.341  12.277   2.770
16655SOL     OW51796  13.486   3.450   7.836
16655SOL    HW151797  13.494   3.496   7.753
16655SOL    HW251798  13.574   3.454   7.874
16656SOL     OW51799  13.888   3.494   1.570
16656SOL    HW151800  13.934   3.412   1.553
16656SOL    HW251801  13.921   3.555   1.503
16657SOL     OW51802   6.435   0.318  13.562
16657SOL    HW151803   6.493   0.354  13.630
16657SOL    HW251804   6.443   0.223  13.572
16658SOL     OW51805  14.408   1.475  10.209
16658SOL    HW151806  14.493   1.520  10.210
16658SOL    HW251807  14.421   1.399  10.265
16659SOL     OW51808   6.869  12.475   2.995
16659SOL    HW151809   6.823  12.544   3.042
16659SOL    HW251810   6.824  12.468   2.911
16660SOL     OW51811   3.174   9.837   0.888
16660SOL    HW151812   3.181   9.744   0.866
16660SOL    HW251813   3.093   9.866   0.847
16661SOL     OW51814  13.952   3.317   7.211
16661SOL    HW151815  13.971   3.367   7.132
16661SOL    HW251816  13.980   3.375   7.283
16662SOL     OW51817   4.860   2.676   2.000
16662SOL    HW151818   4.915   2.718   2.065
16662SOL    HW251819   4.776   2.722   2.006
16663SOL     OW51820   6.580   6.998   9.785
16663SOL    HW151821   6.585   7.079   9.734
16663SOL    HW251822   6.641   7.012   9.858
16664SOL     OW51823   0.443  10.211   4.908
16664SOL    HW151824   0.457  10.219   5.003
16664SOL    HW251825   0.503  10.275   4.870
16665SOL     OW51826   2.694   0.479  11.599
16665SOL    HW151827   2.675   0.426  11.677
16665SOL    HW251828   2.745   0.553  11.633
16666SOL     OW51829   1.710   0.785   8.946
16666SOL    HW151830   1.739   0.823   9.029
16666SOL    HW251831   1.735   0.693   8.951
16667SOL     OW51832   8.415  10.375   5.583
16667SOL    HW151833   8.353  10.443   5.607
16667SOL    HW251834   8.376  10.294   5.617
16668SOL     OW51835  13.947   2.222   4.576
16668SOL    HW151836  13.878   2.233   4.512
16668SOL    HW251837  14.019   2.276   4.544
16669SOL     OW51838   1.784  13.177   0.079
16669SOL    HW151839   1.751  13.263   0.106
16669SOL    HW251840   1.771  13.121   0.155
16670SOL     OW51841  10.405   0.571  14.684
16670SOL    HW151842  10.326   0.528  14.652
16670SOL    HW251843  10.467   0.565  14.612
16671SOL     OW51844   2.457   2.551  13.341
16671SOL    HW151845   2.411   2.475  13.375
16671SOL    HW251846   2.527   2.568  13.403
16672SOL     OW51847   3.954   6.043  13.653
16672SOL    HW151848   3.865   6.009  13.667
16672SOL    HW251849   3.976   6.017  13.564
16673SOL     OW51850   0.073   5.088  12.050
16673SOL    HW151851   0.065   5.089  12.145
16673SOL    HW251852   0.016   5.159  12.021
16674SOL     OW51853   7.505   7.933   4.586
16674SOL    HW151854   7.467   7.851   4.619
16674SOL    HW251855   7.514   7.919   4.492
16675SOL     OW51856   1.196   1.083  14.575
16675SOL    HW151857   1.272   1.120  14.622
16675SOL    HW251858   1.166   1.012  14.633
16676SOL     OW51859   7.633   3.473   7.001
16676SOL    HW151860   7.550   3.441   6.966
16676SOL    HW251861   7.698   3.452   6.933
16677SOL     OW51862  12.696   6.454   8.052
16677SOL    HW151863  12.658   6.427   8.135
16677SOL    HW251864  12.636   6.420   7.986
16678SOL     OW51865   8.104  13.431   4.043
16678SOL    HW151866   8.135  13.519   4.064
16678SOL    HW251867   8.100  13.429   3.947
16679SOL     OW51868  13.085  12.041   0.015
16679SOL    HW151869  13.120  12.122  14.852
16679SOL    HW251870  13.007  12.023  14.834
16680SOL     OW51871   2.710   2.105  10.498
16680SOL    HW151872   2.802   2.127  10.485
16680SOL    HW251873   2.704   2.080  10.590
16681SOL     OW51874   0.723   6.535   6.909
16681SOL    HW151875   0.635   6.520   6.944
16681SOL    HW251876   0.722   6.493   6.823
16682SOL     OW51877   3.668   6.114   7.298
16682SOL    HW151878   3.627   6.037   7.259
16682SOL    HW251879   3.599   6.154   7.351
16683SOL     OW51880   3.474   1.175   6.716
16683SOL    HW151881   3.462   1.197   6.808
16683SOL    HW251882   3.424   1.094   6.704
16684SOL     OW51883   1.071   7.647  14.198
16684SOL    HW151884   1.117   7.604  14.270
16684SOL    HW251885   0.989   7.677  14.238
16685SOL     OW51886  12.762  14.289   3.315
16685SOL    HW151887  12.798  14.374   3.340
16685SOL    HW251888  12.670  14.294   3.341
16686SOL     OW51889  11.073   0.481   3.084
16686SOL    HW151890  10.982   0.506   3.069
16686SOL    HW251891  11.120   0.517   3.008
16687SOL     OW51892   3.199  14.316   0.360
16687SOL    HW151893   3.253  14.370   0.302
16687SOL    HW251894   3.149  14.260   0.301
16688SOL     OW51895   3.216   6.692   4.808
16688SOL    HW151896   3.241   6.768   4.861
16688SOL    HW251897   3.279   6.691   4.736
16689SOL     OW51898   2.308  14.000   5.210
16689SOL    HW151899   2.230  13.996   5.264
16689SOL    HW251900   2.380  13.975   5.269
16690SOL     OW51901   7.669   4.242   7.162
16690SOL    HW151902   7.626   4.161   7.135
16690SOL    HW251903   7.742   4.213   7.218
16691SOL     OW51904   2.406   8.804  11.239
16691SOL    HW151905   2.441   8.758  11.163
16691SOL    HW251906   2.331   8.752  11.266
16692SOL     OW51907  11.656   3.697   2.610
16692SOL    HW151908  11.677   3.686   2.517
16692SOL    HW251909  11.644   3.608   2.642
16693SOL     OW51910   5.960  12.951   3.972
16693SOL    HW151911   5.919  13.037   3.983
16693SOL    HW251912   6.045  12.970   3.932
16694SOL     OW51913   6.842   0.988   3.582
16694SOL    HW151914   6.807   1.041   3.653
16694SOL    HW251915   6.930   1.023   3.568
16695SOL     OW51916   8.960  14.400   1.020
16695SOL    HW151917   8.967  14.340   1.095
16695SOL    HW251918   8.989  14.484   1.054
16696SOL     OW51919   5.184   3.136   0.729
16696SOL    HW151920   5.208   3.208   0.671
16696SOL    HW251921   5.194   3.172   0.817
16697SOL     OW51922   8.265   4.205   8.727
16697SOL    HW151923   8.329   4.150   8.774
16697SOL    HW251924   8.180   4.173   8.756
16698SOL     OW51925  10.131  11.944   1.600
16698SOL    HW151926  10.212  11.892   1.601
16698SOL    HW251927  10.160  12.034   1.612
16699SOL     OW51928   9.665  13.866   6.432
16699SOL    HW151929   9.757  13.855   6.457
16699SOL    HW251930   9.622  13.787   6.465
16700SOL     OW51931   2.549   3.017   0.488
16700SOL    HW151932   2.479   3.072   0.522
16700SOL    HW251933   2.529   2.929   0.519
16701SOL     OW51934   1.385   3.018   6.529
16701SOL    HW151935   1.378   3.111   6.548
16701SOL    HW251936   1.413   2.978   6.611
16702SOL     OW51937  14.723  10.887   6.626
16702SOL    HW151938  14.751  10.868   6.716
16702SOL    HW251939  14.630  10.866   6.626
16703SOL     OW51940   5.508  12.634   0.167
16703SOL    HW151941   5.414  12.650   0.174
16703SOL    HW251942   5.548  12.713   0.203
16704SOL     OW51943   9.889   0.182  11.393
16704SOL    HW151944   9.845   0.245  11.449
16704SOL    HW251945   9.981   0.185  11.420
16705SOL     OW51946  11.053  11.581   5.472
16705SOL    HW151947  11.081  11.670   5.494
16705SOL    HW251948  10.986  11.594   5.404
16706SOL     OW51949   7.742  13.981   3.040
16706SOL    HW151950   7.767  13.960   3.130
16706SOL    HW251951   7.789  13.916   2.987
16707SOL     OW51952   4.529   2.942  13.851
16707SOL    HW151953   4.527   2.902  13.765
16707SOL    HW251954   4.452   2.908  13.896
16708SOL     OW51955  14.700  11.471   9.788
16708SOL    HW151956  14.662  11.496   9.704
16708SOL    HW251957  14.628  11.430   9.836
16709SOL     OW51958   2.241  11.834  14.868
16709SOL    HW151959   2.287  11.908   0.036
16709SOL    HW251960   2.201  11.789   0.070
16710SOL     OW51961  13.623   0.506   7.072
16710SOL    HW151962  13.563   0.450   7.122
16710SOL    HW251963  13.669   0.445   7.014
16711SOL     OW51964   1.868  12.262   7.482
16711SOL    HW151965   1.880  12.297   7.394
16711SOL    HW251966   1.868  12.167   7.471
16712SOL     OW51967  11.923   6.957   8.280
16712SOL    HW151968  11.847   6.984   8.229
16712SOL    HW251969  11.957   7.037   8.318
16713SOL     OW51970   3.682   0.068  13.302
16713SOL    HW151971   3.771   0.036  13.283
16713SOL    HW251972   3.636   0.061  13.219
16714SOL     OW51973  12.129  10.707  12.380
16714SOL    HW151974  12.217  10.719  12.345
16714SOL    HW251975  12.072  10.720  12.304
16715SOL     OW51976   7.043  14.537  10.496
16715SOL    HW151977   7.017  14.447  10.473
16715SOL    HW251978   7.084  14.529  10.582
16716SOL     OW51979   0.701   9.141   9.402
16716SOL    HW151980   0.757   9.068   9.375
16716SOL    HW251981   0.641   9.154   9.329
16717SOL     OW51982  13.212  10.730  12.940
16717SOL    HW151983  13.251  10.816  12.952
16717SOL    HW251984  13.271  10.670  12.985
16718SOL     OW51985   6.099  10.607   9.238
16718SOL    HW151986   6.025  10.550   9.215
16718SOL    HW251987   6.122  10.581   9.328
16719SOL     OW51988   5.263   4.743  13.206
16719SOL    HW151989   5.293   4.704  13.288
16719SOL    HW251990   5.281   4.837  13.216
16720SOL     OW51991   4.420  12.328   3.826
16720SOL    HW151992   4.390  12.393   3.763
16720SOL    HW251993   4.511  12.309   3.800
16721SOL     OW51994  12.368  14.726   8.727
16721SOL    HW151995  12.352  14.739   8.633
16721SOL    HW251996  12.324  14.643   8.748
16722SOL     OW51997   1.004   5.073  13.192
16722SOL    HW151998   0.981   5.006  13.128
16722SOL    HW251999   0.972   5.155  13.155
16723SOL     OW52000   2.798  12.916   2.164
16723SOL    HW152001   2.780  12.844   2.224
16723SOL    HW252002   2.714  12.962   2.156
16724SOL     OW52003   3.893   8.740   8.551
16724SOL    HW152004   3.827   8.777   8.610
16724SOL    HW252005   3.957   8.698   8.609
16725SOL     OW52006   4.455   0.331  10.511
16725SOL    HW152007   4.532   0.274  10.517
16725SOL    HW252008   4.440   0.362  10.600
16726SOL     OW52009  11.215  14.127   5.454
16726SOL    HW152010  11.308  14.120   5.476
16726SOL    HW252011  11.186  14.036   5.445
16727SOL     OW52012   8.020   1.533   2.324
16727SOL    HW152013   7.968   1.605   2.360
16727SOL    HW252014   8.038   1.477   2.400
16728SOL     OW52015  11.910   0.937  10.193
16728SOL    HW152016  11.889   0.845  10.176
16728SOL    HW252017  11.856   0.960  10.268
16729SOL     OW52018   3.499  12.367   5.983
16729SOL    HW152019   3.406  12.372   6.003
16729SOL    HW252020   3.524  12.277   6.005
16730SOL     OW52021   4.397   5.376  12.453
16730SOL    HW152022   4.379   5.390  12.546
16730SOL    HW252023   4.458   5.303  12.451
16731SOL     OW52024  14.027  14.684  12.508
16731SOL    HW152025  14.123  14.684  12.506
16731SOL    HW252026  14.006  14.670  12.600
16732SOL     OW52027   2.575   8.128   8.724
16732SOL    HW152028   2.538   8.101   8.640
16732SOL    HW252029   2.557   8.222   8.729
16733SOL     OW52030   5.699   4.250  13.571
16733SOL    HW152031   5.637   4.303  13.622
16733SOL    HW252032   5.644   4.199  13.512
16734SOL     OW52033  11.484  11.861   9.972
16734SOL    HW152034  11.448  11.926  10.031
16734SOL    HW252035  11.575  11.850  10.000
16735SOL     OW52036   0.170   6.560  12.921
16735SOL    HW152037   0.203   6.478  12.885
16735SOL    HW252038   0.090   6.536  12.967
16736SOL     OW52039   4.299   9.236   3.889
16736SOL    HW152040   4.263   9.169   3.946
16736SOL    HW252041   4.385   9.202   3.863
16737SOL     OW52042   3.161   0.632   2.363
16737SOL    HW152043   3.153   0.537   2.352
16737SOL    HW252044   3.254   0.650   2.354
16738SOL     OW52045  14.219  10.926   5.920
16738SOL    HW152046  14.126  10.923   5.894
16738SOL    HW252047  14.266  10.943   5.838
16739SOL     OW52048  14.650   6.885   1.937
16739SOL    HW152049  14.654   6.810   1.878
16739SOL    HW252050  14.723   6.872   1.998
16740SOL     OW52051   8.932  14.815   6.144
16740SOL    HW152052   8.956  14.743   6.085
16740SOL    HW252053   8.893   0.009   6.086
16741SOL     OW52054   5.252   4.874   7.233
16741SOL    HW152055   5.328   4.817   7.247
16741SOL    HW252056   5.184   4.816   7.202
16742SOL     OW52057   6.410  13.723   7.674
16742SOL    HW152058   6.456  13.658   7.727
16742SOL    HW252059   6.381  13.675   7.597
16743SOL     OW52060  14.104   2.127   6.523
16743SOL    HW152061  14.062   2.128   6.609
16743SOL    HW252062  14.079   2.210   6.483
16744SOL     OW52063   1.321   0.194  13.624
16744SOL    HW152064   1.258   0.264  13.609
16744SOL    HW252065   1.406   0.233  13.603
16745SOL     OW52066   0.334   9.285  10.368
16745SOL    HW152067   0.423   9.302  10.338
16745SOL    HW252068   0.315   9.356  10.429
16746SOL     OW52069  12.375   2.134  10.397
16746SOL    HW152070  12.305   2.100  10.341
16746SOL    HW252071  12.356   2.228  10.405
16747SOL     OW52072  10.597  13.407   1.769
16747SOL    HW152073  10.597  13.493   1.811
16747SOL    HW252074  10.558  13.422   1.683
16748SOL     OW52075  12.935  11.149   1.345
16748SOL    HW152076  12.989  11.144   1.266
16748SOL    HW252077  12.900  11.238   1.345
16749SOL     OW52078   4.126   2.469  11.659
16749SOL    HW152079   4.079   2.457  11.741
16749SOL    HW252080   4.058   2.483  11.594
16750SOL     OW52081  14.404  12.488  13.271
16750SOL    HW152082  14.337  12.427  13.240
16750SOL    HW252083  14.477  12.432  13.298
16751SOL     OW52084  11.897   4.730   4.226
16751SOL    HW152085  11.882   4.635   4.222
16751SOL    HW252086  11.975   4.740   4.281
16752SOL     OW52087   3.359   7.471   0.725
16752SOL    HW152088   3.399   7.555   0.746
16752SOL    HW252089   3.425   7.406   0.751
16753SOL     OW52090   7.917   4.753  11.184
16753SOL    HW152091   7.916   4.775  11.091
16753SOL    HW252092   7.825   4.744  11.208
16754SOL     OW52093   9.787   3.497   1.174
16754SOL    HW152094   9.736   3.558   1.120
16754SOL    HW252095   9.757   3.514   1.264
16755SOL     OW52096   6.282   6.767   9.930
16755SOL    HW152097   6.192   6.763   9.963
16755SOL    HW252098   6.330   6.817   9.997
16756SOL     OW52099   3.295   8.088  11.976
16756SOL    HW152100   3.259   8.046  11.898
16756SOL    HW252101   3.382   8.050  11.987
16757SOL     OW52102  12.358   2.365  11.679
16757SOL    HW152103  12.413   2.290  11.655
16757SOL    HW252104  12.298   2.375  11.606
16758SOL     OW52105  10.864  14.516  12.439
16758SOL    HW152106  10.822  14.466  12.369
16758SOL    HW252107  10.908  14.588  12.394
16759SOL     OW52108  10.981   6.232  12.461
16759SOL    HW152109  11.026   6.228  12.546
16759SOL    HW252110  10.899   6.185  12.475
16760SOL     OW52111   6.388   7.594   5.373
16760SOL    HW152112   6.434   7.580   5.291
16760SOL    HW252113   6.457   7.600   5.439
16761SOL     OW52114   0.100  11.557   5.490
16761SOL    HW152115   0.078  11.635   5.439
16761SOL    HW252116   0.045  11.488   5.453
16762SOL     OW52117  14.210   8.414  14.796
16762SOL    HW152118  14.279   8.449  14.852
16762SOL    HW252119  14.182   8.334  14.839
16763SOL     OW52120  14.388   7.523   2.335
16763SOL    HW152121  14.300   7.516   2.299
16763SOL    HW252122  14.387   7.604   2.387
16764SOL     OW52123   8.232  13.847  11.340
16764SOL    HW152124   8.204  13.852  11.432
16764SOL    HW252125   8.188  13.921  11.298
16765SOL     OW52126   7.249  10.559  14.179
16765SOL    HW152127   7.269  10.600  14.263
16765SOL    HW252128   7.313  10.597  14.119
16766SOL     OW52129  12.458   3.105  14.077
16766SOL    HW152130  12.470   3.183  14.024
16766SOL    HW252131  12.380   3.122  14.129
16767SOL     OW52132  10.621  10.197   5.166
16767SOL    HW152133  10.644  10.117   5.120
16767SOL    HW252134  10.689  10.260   5.141
16768SOL     OW52135   0.918  10.907   0.290
16768SOL    HW152136   0.978  10.870   0.226
16768SOL    HW252137   0.941  10.864   0.373
16769SOL     OW52138   7.300   9.795  11.017
16769SOL    HW152139   7.381   9.747  10.999
16769SOL    HW252140   7.316   9.883  10.983
16770SOL     OW52141   0.075  13.029  10.377
16770SOL    HW152142   0.115  12.959  10.428
16770SOL    HW252143   0.018  12.984  10.315
16771SOL     OW52144   0.074  10.249   9.427
16771SOL    HW152145   0.006  10.316   9.427
16771SOL    HW252146   0.027  10.167   9.442
16772SOL     OW52147   4.320  13.444   4.859
16772SOL    HW152148   4.408  13.407   4.868
16772SOL    HW252149   4.286  13.407   4.778
16773SOL     OW52150   9.190   9.617  11.209
16773SOL    HW152151   9.115   9.668  11.178
16773SOL    HW252152   9.260   9.636  11.146
16774SOL     OW52153   9.282   0.139   8.948
16774SOL    HW152154   9.333   0.220   8.942
16774SOL    HW252155   9.306   0.102   9.032
16775SOL     OW52156  12.505   2.026   4.936
16775SOL    HW152157  12.428   2.030   4.993
16775SOL    HW252158  12.483   1.959   4.872
16776SOL     OW52159  13.064   9.417  12.213
16776SOL    HW152160  13.156   9.438  12.201
16776SOL    HW252161  13.022   9.450  12.133
16777SOL     OW52162   0.688   5.163  12.546
16777SOL    HW152163   0.694   5.226  12.474
16777SOL    HW252164   0.596   5.163  12.570
16778SOL     OW52165   9.937   9.766  12.712
16778SOL    HW152166   9.963   9.674  12.710
16778SOL    HW252167   9.847   9.766  12.679
16779SOL     OW52168   1.766  13.566   9.593
16779SOL    HW152169   1.831  13.496   9.592
16779SOL    HW252170   1.771  13.602   9.681
16780SOL     OW52171   8.623  13.804   8.355
16780SOL    HW152172   8.692  13.754   8.397
16780SOL    HW252173   8.561  13.824   8.425
16781SOL     OW52174   3.346   2.421  14.245
16781SOL    HW152175   3.352   2.343  14.190
16781SOL    HW252176   3.426   2.470  14.227
16782SOL     OW52177   5.376   4.944  14.209
16782SOL    HW152178   5.355   4.865  14.260
16782SOL    HW252179   5.308   5.007  14.235
16783SOL     OW52180  12.764   7.405  12.335
16783SOL    HW152181  12.772   7.325  12.283
16783SOL    HW252182  12.702   7.459  12.286
16784SOL     OW52183  12.307   2.355  11.161
16784SOL    HW152184  12.315   2.286  11.226
16784SOL    HW252185  12.384   2.410  11.174
16785SOL     OW52186  12.931   9.731   1.586
16785SOL    HW152187  12.999   9.745   1.521
16785SOL    HW252188  12.920   9.816   1.629
16786SOL     OW52189  11.935   8.450   7.898
16786SOL    HW152190  12.015   8.498   7.919
16786SOL    HW252191  11.864   8.511   7.918
16787SOL     OW52192   5.479  11.000   6.342
16787SOL    HW152193   5.410  11.012   6.406
16787SOL    HW252194   5.552  10.961   6.391
16788SOL     OW52195   9.919  12.529   5.632
16788SOL    HW152196   9.826  12.526   5.612
16788SOL    HW252197   9.946  12.617   5.605
16789SOL     OW52198   2.944   1.562   7.851
16789SOL    HW152199   2.939   1.493   7.918
16789SOL    HW252200   3.022   1.612   7.876
16790SOL     OW52201  10.964   9.791   6.448
16790SOL    HW152202  10.955   9.886   6.441
16790SOL    HW252203  11.007   9.777   6.532
16791SOL     OW52204   5.914   5.951  11.968
16791SOL    HW152205   5.846   5.981  11.908
16791SOL    HW252206   5.983   5.917  11.911
16792SOL     OW52207   7.545   2.281  14.506
16792SOL    HW152208   7.636   2.290  14.476
16792SOL    HW252209   7.531   2.357  14.562
16793SOL     OW52210   6.512   0.265  11.098
16793SOL    HW152211   6.513   0.280  11.003
16793SOL    HW252212   6.467   0.181  11.108
16794SOL     OW52213   3.083   1.523   3.614
16794SOL    HW152214   2.991   1.499   3.623
16794SOL    HW252215   3.088   1.569   3.530
16795SOL     OW52216   6.977   5.717   9.158
16795SOL    HW152217   7.002   5.672   9.077
16795SOL    HW252218   7.001   5.655   9.228
16796SOL     OW52219   2.031   8.175   6.745
16796SOL    HW152220   2.121   8.156   6.772
16796SOL    HW252221   2.041   8.226   6.665
16797SOL     OW52222   1.401   6.139   1.633
16797SOL    HW152223   1.421   6.232   1.637
16797SOL    HW252224   1.376   6.124   1.542
16798SOL     OW52225  14.670   1.872   6.894
16798SOL    HW152226  14.673   1.839   6.804
16798SOL    HW252227  14.728   1.948   6.893
16799SOL     OW52228   0.962   6.561  12.719
16799SOL    HW152229   1.031   6.564  12.652
16799SOL    HW252230   1.009   6.560  12.802
16800SOL     OW52231  11.912  10.208   0.545
16800SOL    HW152232  11.987  10.249   0.588
16800SOL    HW252233  11.941  10.191   0.456
16801SOL     OW52234   5.643  12.116   6.224
16801SOL    HW152235   5.722  12.168   6.206
16801SOL    HW252236   5.676  12.034   6.262
16802SOL     OW52237   5.635   5.179   1.612
16802SOL    HW152238   5.602   5.254   1.563
16802SOL    HW252239   5.569   5.165   1.680
16803SOL     OW52240  12.340  14.807   8.457
16803SOL    HW152241  12.327  14.737   8.393
16803SOL    HW252242  12.261  14.861   8.449
16804SOL     OW52243   2.210   4.810   4.676
16804SOL    HW152244   2.220   4.895   4.634
16804SOL    HW252245   2.117   4.803   4.697
16805SOL     OW52246   8.368   6.700   8.362
16805SOL    HW152247   8.440   6.644   8.390
16805SOL    HW252248   8.361   6.767   8.429
16806SOL     OW52249  12.882   5.396  11.295
16806SOL    HW152250  12.927   5.421  11.376
16806SOL    HW252251  12.906   5.304  11.283
16807SOL     OW52252  12.285   6.704  14.471
16807SOL    HW152253  12.223   6.747  14.412
16807SOL    HW252254  12.283   6.612  14.444
16808SOL     OW52255  12.729  12.648   7.608
16808SOL    HW152256  12.729  12.701   7.528
16808SOL    HW252257  12.642  12.608   7.609
16809SOL     OW52258   7.427   2.389   6.078
16809SOL    HW152259   7.390   2.338   6.150
16809SOL    HW252260   7.462   2.323   6.018
16810SOL     OW52261  14.773   7.085  11.992
16810SOL    HW152262  14.796   7.046  11.908
16810SOL    HW252263  14.723   7.017  12.037
16811SOL     OW52264  11.741  10.794   7.115
16811SOL    HW152265  11.735  10.718   7.056
16811SOL    HW252266  11.782  10.760   7.194
16812SOL     OW52267   2.623   2.005  11.002
16812SOL    HW152268   2.551   2.042  11.054
16812SOL    HW252269   2.662   1.939  11.059
16813SOL     OW52270   2.076   1.414   7.047
16813SOL    HW152271   2.159   1.438   7.088
16813SOL    HW252272   2.054   1.489   6.992
16814SOL     OW52273  13.170  11.195   8.338
16814SOL    HW152274  13.163  11.188   8.433
16814SOL    HW252275  13.261  11.219   8.321
16815SOL     OW52276   8.972  12.991   9.802
16815SOL    HW152277   8.880  12.997   9.773
16815SOL    HW252278   8.983  12.900   9.827
16816SOL     OW52279   9.657  10.183   6.536
16816SOL    HW152280   9.604  10.128   6.479
16816SOL    HW252281   9.650  10.271   6.499
16817SOL     OW52282   1.142   6.508  10.558
16817SOL    HW152283   1.143   6.591  10.511
16817SOL    HW252284   1.221   6.462  10.529
16818SOL     OW52285   3.959  13.920   1.250
16818SOL    HW152286   3.964  14.009   1.284
16818SOL    HW252287   3.869  13.913   1.216
16819SOL     OW52288   9.504  12.650   1.858
16819SOL    HW152289   9.505  12.745   1.846
16819SOL    HW252290   9.556  12.615   1.786
16820SOL     OW52291  14.234  11.768  13.790
16820SOL    HW152292  14.245  11.741  13.882
16820SOL    HW252293  14.299  11.836  13.777
16821SOL     OW52294   2.818   7.623   0.474
16821SOL    HW152295   2.800   7.647   0.565
16821SOL    HW252296   2.792   7.700   0.424
16822SOL     OW52297   2.140   1.327   5.935
16822SOL    HW152298   2.180   1.377   6.006
16822SOL    HW252299   2.167   1.236   5.951
16823SOL     OW52300   5.875   8.249  11.214
16823SOL    HW152301   5.784   8.254  11.183
16823SOL    HW252302   5.911   8.336  11.197
16824SOL     OW52303   6.136   6.975   3.577
16824SOL    HW152304   6.177   7.002   3.659
16824SOL    HW252305   6.207   6.975   3.513
16825SOL     OW52306   0.532   1.756   7.036
16825SOL    HW152307   0.528   1.685   7.100
16825SOL    HW252308   0.442   1.764   7.003
16826SOL     OW52309  10.867  12.572  10.752
16826SOL    HW152310  10.949  12.618  10.733
16826SOL    HW252311  10.809  12.594  10.680
16827SOL     OW52312   6.690   6.456   0.008
16827SOL    HW152313   6.777   6.424   0.034
16827SOL    HW252314   6.695   6.460  14.785
16828SOL     OW52315   6.775   3.805  13.709
16828SOL    HW152316   6.684   3.777  13.722
16828SOL    HW252317   6.827   3.733  13.744
16829SOL     OW52318  13.757   8.074   5.469
16829SOL    HW152319  13.682   8.052   5.413
16829SOL    HW252320  13.821   8.005   5.452
16830SOL     OW52321   0.802   6.062   7.331
16830SOL    HW152322   0.707   6.064   7.321
16830SOL    HW252323   0.829   6.154   7.324
16831SOL     OW52324   7.031   4.674  14.761
16831SOL    HW152325   6.940   4.701  14.746
16831SOL    HW252326   7.027   4.579  14.766
16832SOL     OW52327   5.310  10.078  13.947
16832SOL    HW152328   5.281  10.080  14.039
16832SOL    HW252329   5.283   9.992  13.916
16833SOL     OW52330  11.873   1.319   8.029
16833SOL    HW152331  11.910   1.273   8.104
16833SOL    HW252332  11.836   1.399   8.066
16834SOL     OW52333   3.065   7.648   5.914
16834SOL    HW152334   3.028   7.695   5.839
16834SOL    HW252335   3.159   7.661   5.906
16835SOL     OW52336   4.496   1.039  11.808
16835SOL    HW152337   4.495   1.110  11.743
16835SOL    HW252338   4.569   1.061  11.865
16836SOL     OW52339   9.128  12.782  11.632
16836SOL    HW152340   9.147  12.694  11.664
16836SOL    HW252341   9.074  12.769  11.554
16837SOL     OW52342   5.692  13.980  12.219
16837SOL    HW152343   5.772  13.937  12.250
16837SOL    HW252344   5.648  14.010  12.299
16838SOL     OW52345   6.323   9.662  12.570
16838SOL    HW152346   6.310   9.725  12.499
16838SOL    HW252347   6.287   9.706  12.647
16839SOL     OW52348  10.873   3.334   3.933
16839SOL    HW152349  10.957   3.289   3.932
16839SOL    HW252350  10.811   3.271   3.897
16840SOL     OW52351   5.697   0.475   7.305
16840SOL    HW152352   5.787   0.459   7.277
16840SOL    HW252353   5.693   0.570   7.318
16841SOL     OW52354   9.059   6.343   1.043
16841SOL    HW152355   8.967   6.318   1.034
16841SOL    HW252356   9.102   6.266   1.079
16842SOL     OW52357   6.243   6.154   3.583
16842SOL    HW152358   6.333   6.146   3.550
16842SOL    HW252359   6.229   6.248   3.593
16843SOL     OW52360  11.058   1.706   0.474
16843SOL    HW152361  11.045   1.772   0.542
16843SOL    HW252362  10.989   1.642   0.490
16844SOL     OW52363   2.968   6.238   7.470
16844SOL    HW152364   2.889   6.276   7.508
16844SOL    HW252365   3.020   6.210   7.545
16845SOL     OW52366   7.274   3.907   6.401
16845SOL    HW152367   7.243   3.839   6.461
16845SOL    HW252368   7.304   3.858   6.324
16846SOL     OW52369   4.354  12.897   3.490
16846SOL    HW152370   4.383  12.816   3.532
16846SOL    HW252371   4.260  12.887   3.481
16847SOL     OW52372   8.860   7.289   8.351
16847SOL    HW152373   8.866   7.308   8.445
16847SOL    HW252374   8.824   7.201   8.347
16848SOL     OW52375   8.264  14.126   7.767
16848SOL    HW152376   8.274  14.054   7.704
16848SOL    HW252377   8.340  14.182   7.753
16849SOL     OW52378   2.267   4.166   5.279
16849SOL    HW152379   2.298   4.168   5.370
16849SOL    HW252380   2.282   4.076   5.250
16850SOL     OW52381   7.978  13.094   2.449
16850SOL    HW152382   7.954  13.183   2.477
16850SOL    HW252383   8.018  13.106   2.363
16851SOL     OW52384   4.648   6.481   9.346
16851SOL    HW152385   4.682   6.415   9.406
16851SOL    HW252386   4.677   6.565   9.383
16852SOL     OW52387   5.551  13.301   2.172
16852SOL    HW152388   5.476  13.318   2.115
16852SOL    HW252389   5.558  13.380   2.225
16853SOL     OW52390   4.143  11.899   0.545
16853SOL    HW152391   4.097  11.831   0.497
16853SOL    HW252392   4.078  11.935   0.605
16854SOL     OW52393   7.747  12.305  13.195
16854SOL    HW152394   7.798  12.350  13.263
16854SOL    HW252395   7.796  12.225  13.178
16855SOL     OW52396   6.762  13.983  13.931
16855SOL    HW152397   6.772  14.076  13.911
16855SOL    HW252398   6.773  13.939  13.846
16856SOL     OW52399   3.789   4.540  13.443
16856SOL    HW152400   3.883   4.539  13.462
16856SOL    HW252401   3.777   4.616  13.386
16857SOL     OW52402   1.375   1.670   9.232
16857SOL    HW152403   1.457   1.667   9.281
16857SOL    HW252404   1.339   1.757   9.250
16858SOL     OW52405   1.356   2.821   3.665
16858SOL    HW152406   1.409   2.848   3.740
16858SOL    HW252407   1.321   2.735   3.690
16859SOL     OW52408   8.051   5.612  11.202
16859SOL    HW152409   8.040   5.592  11.295
16859SOL    HW252410   8.139   5.581  11.180
16860SOL     OW52411   0.977   3.063   2.830
16860SOL    HW152412   0.901   3.120   2.819
16860SOL    HW252413   1.006   3.079   2.920
16861SOL     OW52414   8.623   9.400   9.406
16861SOL    HW152415   8.717   9.391   9.420
16861SOL    HW252416   8.588   9.423   9.492
16862SOL     OW52417   6.505   9.151  10.175
16862SOL    HW152418   6.443   9.190  10.113
16862SOL    HW252419   6.563   9.098  10.120
16863SOL     OW52420   9.467   3.541  11.567
16863SOL    HW152421   9.557   3.518  11.590
16863SOL    HW252422   9.473   3.629  11.532
16864SOL     OW52423   8.173   0.281   0.406
16864SOL    HW152424   8.228   0.203   0.417
16864SOL    HW252425   8.085   0.251   0.428
16865SOL     OW52426   8.023   5.672  14.750
16865SOL    HW152427   8.106   5.668  14.796
16865SOL    HW252428   7.959   5.634  14.811
16866SOL     OW52429  11.267  14.590  11.421
16866SOL    HW152430  11.236  14.511  11.465
16866SOL    HW252431  11.361  14.579  11.414
16867SOL     OW52432  12.353   1.422   3.597
16867SOL    HW152433  12.447   1.407   3.608
16867SOL    HW252434  12.340   1.514   3.623
16868SOL     OW52435   8.795   1.454   2.286
16868SOL    HW152436   8.714   1.440   2.237
16868SOL    HW252437   8.815   1.369   2.325
16869SOL     OW52438  13.213  12.824   5.744
16869SOL    HW152439  13.182  12.802   5.656
16869SOL    HW252440  13.155  12.894   5.773
16870SOL     OW52441   0.549   7.703  14.514
16870SOL    HW152442   0.555   7.746  14.428
16870SOL    HW252443   0.454   7.692  14.528
16871SOL     OW52444  14.385   6.110   6.998
16871SOL    HW152445  14.407   6.194   7.038
16871SOL    HW252446  14.297   6.122   6.963
16872SOL     OW52447   5.598   5.491   1.505
16872SOL    HW152448   5.556   5.478   1.419
16872SOL    HW252449   5.537   5.451   1.567
16873SOL     OW52450   8.501   1.529   1.178
16873SOL    HW152451   8.520   1.587   1.104
16873SOL    HW252452   8.533   1.576   1.255
16874SOL     OW52453   2.056  12.415   2.917
16874SOL    HW152454   2.073  12.321   2.903
16874SOL    HW252455   1.979  12.433   2.863
16875SOL     OW52456   6.949  12.815   1.397
16875SOL    HW152457   7.020  12.756   1.423
16875SOL    HW252458   6.988  12.902   1.403
16876SOL     OW52459  12.200   9.043   9.275
16876SOL    HW152460  12.191   8.992   9.355
16876SOL    HW252461  12.264   8.995   9.223
16877SOL     OW52462  13.661  13.991   2.262
16877SOL    HW152463  13.605  14.034   2.326
16877SOL    HW252464  13.667  13.900   2.293
16878SOL     OW52465  10.169  11.442  11.975
16878SOL    HW152466  10.129  11.366  11.933
16878SOL    HW252467  10.258  11.445  11.940
16879SOL     OW52468   3.719   0.566  12.062
16879SOL    HW152469   3.706   0.604  11.975
16879SOL    HW252470   3.745   0.475  12.045
16880SOL     OW52471  11.294  14.078  13.493
16880SOL    HW152472  11.376  14.038  13.524
16880SOL    HW252473  11.242  14.089  13.573
16881SOL     OW52474   3.659  13.053   7.317
16881SOL    HW152475   3.573  13.095   7.311
16881SOL    HW252476   3.651  12.991   7.389
16882SOL     OW52477   2.364   6.733  12.839
16882SOL    HW152478   2.403   6.647  12.826
16882SOL    HW252479   2.399   6.787  12.768
16883SOL     OW52480   0.695   5.637   6.174
16883SOL    HW152481   0.769   5.580   6.154
16883SOL    HW252482   0.618   5.587   6.146
16884SOL     OW52483   7.395  12.306  14.475
16884SOL    HW152484   7.488  12.307  14.455
16884SOL    HW252485   7.352  12.284  14.392
16885SOL     OW52486  12.070  13.077   6.199
16885SOL    HW152487  12.018  13.132   6.257
16885SOL    HW252488  12.071  12.991   6.242
16886SOL     OW52489  13.267  11.074   3.654
16886SOL    HW152490  13.212  11.071   3.732
16886SOL    HW252491  13.265  11.166   3.627
16887SOL     OW52492   4.344   7.129   2.292
16887SOL    HW152493   4.349   7.145   2.198
16887SOL    HW252494   4.435   7.133   2.322
16888SOL     OW52495   6.529   8.382   9.321
16888SOL    HW152496   6.541   8.368   9.415
16888SOL    HW252497   6.573   8.307   9.280
16889SOL     OW52498  12.040   8.851   2.587
16889SOL    HW152499  12.134   8.842   2.603
16889SOL    HW252500  12.010   8.915   2.651
16890SOL     OW52501   1.683   9.499   0.668
16890SOL    HW152502   1.725   9.559   0.606
16890SOL    HW252503   1.604   9.469   0.623
16891SOL     OW52504   5.287   4.383   3.349
16891SOL    HW152505   5.379   4.386   3.322
16891SOL    HW252506   5.279   4.301   3.397
16892SOL     OW52507   5.610   8.860   2.863
16892SOL    HW152508   5.592   8.768   2.844
16892SOL    HW252509   5.657   8.892   2.786
16893SOL     OW52510   3.315  11.132   4.378
16893SOL    HW152511   3.307  11.168   4.289
16893SOL    HW252512   3.410  11.132   4.394
16894SOL     OW52513   3.350   5.468   3.078
16894SOL    HW152514   3.329   5.476   2.985
16894SOL    HW252515   3.446   5.464   3.080
16895SOL     OW52516   0.120   6.323   2.825
16895SOL    HW152517   0.030   6.338   2.796
16895SOL    HW252518   0.173   6.348   2.750
16896SOL     OW52519   9.059   0.049   1.746
16896SOL    HW152520   9.006   0.004   1.812
16896SOL    HW252521   9.132   0.086   1.795
16897SOL     OW52522   9.191   7.660   3.287
16897SOL    HW152523   9.170   7.750   3.264
16897SOL    HW252524   9.166   7.609   3.210
16898SOL     OW52525   0.410   3.733  13.028
16898SOL    HW152526   0.368   3.788  12.961
16898SOL    HW252527   0.474   3.681  12.980
16899SOL     OW52528   9.246   7.155  14.455
16899SOL    HW152529   9.217   7.234  14.410
16899SOL    HW252530   9.173   7.133  14.513
16900SOL     OW52531  14.354  11.528   3.062
16900SOL    HW152532  14.398  11.532   3.147
16900SOL    HW252533  14.289  11.598   3.065
16901SOL     OW52534   1.265   0.374   6.357
16901SOL    HW152535   1.321   0.361   6.433
16901SOL    HW252536   1.207   0.446   6.382
16902SOL     OW52537   1.212   5.838   8.986
16902SOL    HW152538   1.199   5.932   8.968
16902SOL    HW252539   1.183   5.827   9.076
16903SOL     OW52540   0.835   3.171   2.511
16903SOL    HW152541   0.813   3.078   2.516
16903SOL    HW252542   0.752   3.213   2.486
16904SOL     OW52543   8.726   4.561   0.874
16904SOL    HW152544   8.641   4.561   0.918
16904SOL    HW252545   8.716   4.496   0.804
16905SOL     OW52546  11.418   7.247   9.713
16905SOL    HW152547  11.411   7.343   9.709
16905SOL    HW252548  11.338   7.219   9.757
16906SOL     OW52549  10.080   6.610  12.411
16906SOL    HW152550  10.037   6.650  12.335
16906SOL    HW252551  10.160   6.660  12.423
16907SOL     OW52552   0.348   2.160   2.044
16907SOL    HW152553   0.309   2.096   2.103
16907SOL    HW252554   0.413   2.205   2.098
16908SOL     OW52555   0.581   4.717   1.425
16908SOL    HW152556   0.676   4.718   1.438
16908SOL    HW252557   0.568   4.661   1.349
16909SOL     OW52558  14.115  11.269   0.845
16909SOL    HW152559  14.121  11.356   0.807
16909SOL    HW252560  14.025  11.240   0.827
16910SOL     OW52561   2.612  14.482   9.089
16910SOL    HW152562   2.631  14.435   9.170
16910SOL    HW252563   2.625  14.574   9.111
16911SOL     OW52564   4.649  12.944   2.653
16911SOL    HW152565   4.710  12.871   2.653
16911SOL    HW252566   4.703  13.021   2.670
16912SOL     OW52567  14.444   7.010   5.185
16912SOL    HW152568  14.390   6.936   5.215
16912SOL    HW252569  14.391   7.051   5.117
16913SOL     OW52570   5.292   0.200   7.761
16913SOL    HW152571   5.200   0.226   7.762
16913SOL    HW252572   5.318   0.202   7.853
16914SOL     OW52573   2.525   3.141   3.032
16914SOL    HW152574   2.587   3.140   2.959
16914SOL    HW252575   2.546   3.221   3.079
16915SOL     OW52576   0.230   9.342   3.308
16915SOL    HW152577   0.316   9.342   3.264
16915SOL    HW252578   0.249   9.316   3.398
16916SOL     OW52579   9.838   7.124   7.341
16916SOL    HW152580   9.870   7.187   7.405
16916SOL    HW252581   9.765   7.168   7.298
16917SOL     OW52582   6.766  12.678  14.652
16917SOL    HW152583   6.845  12.662  14.601
16917SOL    HW252584   6.732  12.591  14.672
16918SOL     OW52585  13.194   4.589   7.977
16918SOL    HW152586  13.266   4.636   8.019
16918SOL    HW252587  13.161   4.530   8.044
16919SOL     OW52588  11.189   5.746   3.585
16919SOL    HW152589  11.281   5.747   3.560
16919SOL    HW252590  11.159   5.836   3.569
16920SOL     OW52591   9.517   2.561   2.162
16920SOL    HW152592   9.599   2.611   2.164
16920SOL    HW252593   9.499   2.543   2.254
16921SOL     OW52594   5.994   9.792   6.714
16921SOL    HW152595   6.004   9.807   6.808
16921SOL    HW252596   5.911   9.743   6.707
16922SOL     OW52597   6.114  13.972   9.951
16922SOL    HW152598   6.038  13.916   9.967
16922SOL    HW252599   6.165  13.967  10.031
16923SOL     OW52600   2.177   2.877  12.865
16923SOL    HW152601   2.270   2.900  12.860
16923SOL    HW252602   2.162   2.858  12.957
16924SOL     OW52603   4.004   5.442   4.670
16924SOL    HW152604   4.071   5.469   4.607
16924SOL    HW252605   4.038   5.469   4.755
16925SOL     OW52606   2.475   2.620   8.684
16925SOL    HW152607   2.397   2.653   8.640
16925SOL    HW252608   2.488   2.679   8.758
16926SOL     OW52609   6.044   3.574   1.719
16926SOL    HW152610   5.952   3.596   1.730
16926SOL    HW252611   6.089   3.658   1.723
16927SOL     OW52612  11.427  12.021  11.588
16927SOL    HW152613  11.443  12.021  11.683
16927SOL    HW252614  11.471  11.943  11.556
16928SOL     OW52615   4.217   8.527   8.874
16928SOL    HW152616   4.180   8.440   8.887
16928SOL    HW252617   4.301   8.512   8.831
16929SOL     OW52618  12.210  10.581  13.760
16929SOL    HW152619  12.122  10.572  13.724
16929SOL    HW252620  12.210  10.522  13.836
16930SOL     OW52621  10.664   2.588  10.741
16930SOL    HW152622  10.741   2.638  10.716
16930SOL    HW252623  10.604   2.652  10.779
16931SOL     OW52624   5.298  11.653   9.880
16931SOL    HW152625   5.298  11.614   9.792
16931SOL    HW252626   5.206  11.665   9.901
16932SOL     OW52627   3.633   1.905  14.173
16932SOL    HW152628   3.723   1.870  14.175
16932SOL    HW252629   3.580   1.831  14.142
16933SOL     OW52630  11.436   4.317   9.573
16933SOL    HW152631  11.515   4.288   9.527
16933SOL    HW252632  11.467   4.380   9.637
16934SOL     OW52633   4.991   6.141  12.925
16934SOL    HW152634   4.918   6.080  12.935
16934SOL    HW252635   4.992   6.190  13.008
16935SOL     OW52636  14.036   2.176   9.276
16935SOL    HW152637  14.129   2.193   9.286
16935SOL    HW252638  14.020   2.184   9.182
16936SOL     OW52639  10.935  13.753   2.606
16936SOL    HW152640  11.022  13.776   2.638
16936SOL    HW252641  10.893  13.836   2.585
16937SOL     OW52642  11.397  10.441   8.324
16937SOL    HW152643  11.454  10.379   8.369
16937SOL    HW252644  11.325  10.387   8.290
16938SOL     OW52645   8.798  14.242  10.651
16938SOL    HW152646   8.749  14.216  10.573
16938SOL    HW252647   8.822  14.160  10.693
16939SOL     OW52648   3.561   8.185  13.820
16939SOL    HW152649   3.487   8.242  13.799
16939SOL    HW252650   3.522   8.101  13.843
16940SOL     OW52651   8.431  11.792   5.246
16940SOL    HW152652   8.480  11.870   5.222
16940SOL    HW252653   8.496  11.732   5.282
16941SOL     OW52654   2.790   4.038   6.358
16941SOL    HW152655   2.817   4.119   6.313
16941SOL    HW252656   2.742   3.989   6.291
16942SOL     OW52657   1.506  12.268  14.458
16942SOL    HW152658   1.428  12.235  14.413
16942SOL    HW252659   1.473  12.302  14.541
16943SOL     OW52660   4.520   5.020   7.875
16943SOL    HW152661   4.522   5.115   7.859
16943SOL    HW252662   4.517   5.011   7.970
16944SOL     OW52663  13.312   6.167   4.672
16944SOL    HW152664  13.316   6.118   4.590
16944SOL    HW252665  13.396   6.152   4.715
16945SOL     OW52666   0.133   5.206   0.303
16945SOL    HW152667   0.180   5.273   0.353
16945SOL    HW252668   0.099   5.252   0.227
16946SOL     OW52669   4.254   2.208   4.093
16946SOL    HW152670   4.310   2.251   4.029
16946SOL    HW252671   4.287   2.118   4.097
16947SOL     OW52672   2.487   0.956   8.239
16947SOL    HW152673   2.519   1.013   8.169
16947SOL    HW252674   2.545   0.880   8.236
16948SOL     OW52675   1.861  12.114   1.003
16948SOL    HW152676   1.947  12.153   0.994
16948SOL    HW252677   1.867  12.029   0.958
16949SOL     OW52678   1.658  14.084   9.294
16949SOL    HW152679   1.744  14.115   9.265
16949SOL    HW252680   1.663  14.085   9.390
16950SOL     OW52681  10.614  10.263   9.584
16950SOL    HW152682  10.656  10.330   9.639
16950SOL    HW252683  10.547  10.225   9.641
16951SOL     OW52684   8.233   0.903   5.500
16951SOL    HW152685   8.323   0.890   5.470
16951SOL    HW252686   8.238   0.977   5.560
16952SOL     OW52687   1.547  12.460   0.120
16952SOL    HW152688   1.546  12.529   0.054
16952SOL    HW252689   1.459  12.460   0.157
16953SOL     OW52690  14.415  14.026   4.419
16953SOL    HW152691  14.435  14.078   4.341
16953SOL    HW252692  14.480  14.055   4.484
16954SOL     OW52693   5.984  11.386  14.786
16954SOL    HW152694   5.915  11.369  14.850
16954SOL    HW252695   6.036  11.456  14.825
16955SOL     OW52696   4.778   7.635  11.403
16955SOL    HW152697   4.873   7.634  11.412
16955SOL    HW252698   4.759   7.563  11.344
16956SOL     OW52699  14.564   2.380  12.266
16956SOL    HW152700  14.616   2.374  12.186
16956SOL    HW252701  14.539   2.289  12.285
16957SOL     OW52702  10.067  13.435   6.608
16957SOL    HW152703  10.071  13.342   6.628
16957SOL    HW252704  10.128  13.476   6.670
16958SOL     OW52705  13.203   3.376   4.300
16958SOL    HW152706  13.197   3.320   4.223
16958SOL    HW252707  13.250   3.454   4.270
16959SOL     OW52708  11.830  12.301   4.939
16959SOL    HW152709  11.798  12.281   4.851
16959SOL    HW252710  11.759  12.351   4.980
16960SOL     OW52711   3.071   1.965  14.269
16960SOL    HW152712   3.076   2.009  14.354
16960SOL    HW252713   3.134   1.894  14.274
16961SOL     OW52714   7.913   8.359   8.613
16961SOL    HW152715   7.909   8.303   8.536
16961SOL    HW252716   7.925   8.448   8.577
16962SOL     OW52717  11.615   2.686   1.041
16962SOL    HW152718  11.687   2.625   1.026
16962SOL    HW252719  11.540   2.646   0.997
16963SOL     OW52720   0.545   6.291   5.839
16963SOL    HW152721   0.529   6.385   5.829
16963SOL    HW252722   0.475   6.250   5.789
16964SOL     OW52723  12.400   8.801   4.183
16964SOL    HW152724  12.474   8.817   4.125
16964SOL    HW252725  12.343   8.877   4.171
16965SOL     OW52726   5.686   0.664   4.476
16965SOL    HW152727   5.601   0.635   4.509
16965SOL    HW252728   5.671   0.753   4.445
16966SOL     OW52729   3.190  13.582   6.517
16966SOL    HW152730   3.278  13.604   6.548
16966SOL    HW252731   3.205  13.546   6.429
16967SOL     OW52732   9.656  14.543  11.105
16967SOL    HW152733   9.599  14.550  11.027
16967SOL    HW252734   9.708  14.623  11.103
16968SOL     OW52735   3.330   4.901   1.651
16968SOL    HW152736   3.330   4.925   1.744
16968SOL    HW252737   3.261   4.835   1.643
16969SOL     OW52738   8.311   9.803  11.219
16969SOL    HW152739   8.393   9.795  11.268
16969SOL    HW252740   8.251   9.846  11.279
16970SOL     OW52741   6.571   3.164   0.295
16970SOL    HW152742   6.484   3.137   0.325
16970SOL    HW252743   6.605   3.219   0.366
16971SOL     OW52744   8.022  11.746  14.122
16971SOL    HW152745   7.944  11.733  14.068
16971SOL    HW252746   8.031  11.665  14.172
16972SOL     OW52747   2.542   2.593   3.816
16972SOL    HW152748   2.583   2.642   3.745
16972SOL    HW252749   2.501   2.660   3.871
16973SOL     OW52750  12.009  10.740   0.179
16973SOL    HW152751  12.046  10.673   0.236
16973SOL    HW252752  12.084  10.794   0.153
16974SOL     OW52753   7.444   0.389  11.988
16974SOL    HW152754   7.375   0.365  12.050
16974SOL    HW252755   7.525   0.359  12.028
16975SOL     OW52756   4.895   2.253   3.131
16975SOL    HW152757   4.864   2.177   3.082
16975SOL    HW252758   4.827   2.270   3.196
16976SOL     OW52759   8.131  12.355  13.571
16976SOL    HW152760   8.189  12.287  13.536
16976SOL    HW252761   8.145  12.430  13.512
16977SOL     OW52762   1.437   8.143   4.973
16977SOL    HW152763   1.399   8.188   4.898
16977SOL    HW252764   1.521   8.187   4.988
16978SOL     OW52765   7.534  10.817  14.148
16978SOL    HW152766   7.512  10.737  14.196
16978SOL    HW252767   7.592  10.787  14.078
16979SOL     OW52768   3.740  10.222   5.439
16979SOL    HW152769   3.773  10.248   5.525
16979SOL    HW252770   3.778  10.285   5.378
16980SOL     OW52771   9.658   4.164   4.590
16980SOL    HW152772   9.616   4.124   4.666
16980SOL    HW252773   9.613   4.126   4.515
16981SOL     OW52774   1.802   2.799   2.890
16981SOL    HW152775   1.785   2.889   2.864
16981SOL    HW252776   1.760   2.790   2.976
16982SOL     OW52777   5.476   2.313  10.146
16982SOL    HW152778   5.565   2.344  10.162
16982SOL    HW252779   5.486   2.248  10.076
16983SOL     OW52780   3.033   2.831   5.363
16983SOL    HW152781   3.003   2.915   5.327
16983SOL    HW252782   2.976   2.766   5.322
16984SOL     OW52783   1.164  14.079   7.446
16984SOL    HW152784   1.231  14.145   7.460
16984SOL    HW252785   1.091  14.126   7.408
16985SOL     OW52786   5.985   3.031  13.872
16985SOL    HW152787   5.956   2.987  13.793
16985SOL    HW252788   6.072   2.995  13.890
16986SOL     OW52789   3.225   4.764   3.610
16986SOL    HW152790   3.311   4.742   3.645
16986SOL    HW252791   3.242   4.835   3.548
16987SOL     OW52792  14.295  13.224  13.099
16987SOL    HW152793  14.238  13.152  13.071
16987SOL    HW252794  14.238  13.301  13.097
16988SOL     OW52795   6.038  11.872   8.444
16988SOL    HW152796   6.008  11.791   8.485
16988SOL    HW252797   5.965  11.899   8.388
16989SOL     OW52798   4.748   1.843   9.219
16989SOL    HW152799   4.694   1.894   9.158
16989SOL    HW252800   4.824   1.818   9.167
16990SOL     OW52801  12.641   5.300  11.650
16990SOL    HW152802  12.667   5.273  11.738
16990SOL    HW252803  12.576   5.234  11.623
16991SOL     OW52804  11.920   0.578   4.485
16991SOL    HW152805  11.966   0.653   4.447
16991SOL    HW252806  11.916   0.598   4.578
16992SOL     OW52807  14.670   7.229  13.419
16992SOL    HW152808  14.723   7.308  13.408
16992SOL    HW252809  14.732   7.157  13.420
16993SOL     OW52810  11.998  11.293   1.312
16993SOL    HW152811  12.017  11.376   1.357
16993SOL    HW252812  12.026  11.308   1.222
16994SOL     OW52813   2.000   5.082   3.921
16994SOL    HW152814   2.065   5.072   3.990
16994SOL    HW252815   2.034   5.030   3.848
16995SOL     OW52816   9.521   7.514  13.989
16995SOL    HW152817   9.492   7.458  13.917
16995SOL    HW252818   9.564   7.455  14.051
16996SOL     OW52819  13.213   1.893   1.347
16996SOL    HW152820  13.251   1.805   1.344
16996SOL    HW252821  13.201   1.911   1.441
16997SOL     OW52822   0.041   0.108   4.479
16997SOL    HW152823  14.833   0.159   4.468
16997SOL    HW252824   0.070   0.089   4.390
16998SOL     OW52825   3.310   7.687   5.314
16998SOL    HW152826   3.377   7.619   5.317
16998SOL    HW252827   3.227   7.640   5.320
16999SOL     OW52828  12.273   4.188   1.298
16999SOL    HW152829  12.240   4.216   1.383
16999SOL    HW252830  12.279   4.092   1.306
17000SOL     OW52831  12.115   2.570   9.797
17000SOL    HW152832  12.022   2.587   9.778
17000SOL    HW252833  12.153   2.549   9.711
17001SOL     OW52834   5.450  13.045  14.764
17001SOL    HW152835   5.487  13.088  14.842
17001SOL    HW252836   5.427  12.957  14.794
17002SOL     OW52837  12.325   9.742   2.416
17002SOL    HW152838  12.251   9.691   2.449
17002SOL    HW252839  12.318   9.826   2.462
17003SOL     OW52840   3.965   7.408   0.753
17003SOL    HW152841   3.998   7.352   0.683
17003SOL    HW252842   4.016   7.384   0.830
17004SOL     OW52843   2.467  10.143   7.689
17004SOL    HW152844   2.561  10.142   7.668
17004SOL    HW252845   2.446  10.052   7.707
17005SOL     OW52846  11.904  13.929  10.879
17005SOL    HW152847  11.982  13.886  10.915
17005SOL    HW252848  11.934  13.972  10.799
17006SOL     OW52849   9.830  13.326   2.048
17006SOL    HW152850   9.919  13.353   2.070
17006SOL    HW252851   9.775  13.398   2.078
17007SOL     OW52852  13.852   2.935  10.907
17007SOL    HW152853  13.851   2.863  10.970
17007SOL    HW252854  13.880   3.011  10.957
17008SOL     OW52855   3.709  10.916   6.475
17008SOL    HW152856   3.794  10.878   6.496
17008SOL    HW252857   3.727  10.978   6.405
17009SOL     OW52858  12.568  13.801   3.696
17009SOL    HW152859  12.478  13.785   3.724
17009SOL    HW252860  12.574  13.764   3.608
17010SOL     OW52861   7.745  14.341   1.471
17010SOL    HW152862   7.730  14.415   1.413
17010SOL    HW252863   7.697  14.269   1.431
17011SOL     OW52864   0.024   9.378   0.238
17011SOL    HW152865  14.857   9.337   0.315
17011SOL    HW252866  14.833   9.361   0.168
17012SOL     OW52867   2.902  11.781   6.455
17012SOL    HW152868   2.888  11.815   6.543
17012SOL    HW252869   2.976  11.831   6.421
17013SOL     OW52870  10.841  14.736  14.352
17013SOL    HW152871  10.920  14.685  14.372
17013SOL    HW252872  10.867  14.792  14.279
17014SOL     OW52873   5.773   8.873   3.224
17014SOL    HW152874   5.858   8.889   3.184
17014SOL    HW252875   5.776   8.920   3.307
17015SOL     OW52876  11.058  14.792  13.265
17015SOL    HW152877  11.115  14.849  13.316
17015SOL    HW252878  11.088  14.703  13.286
17016SOL     OW52879   3.313   1.065   8.585
17016SOL    HW152880   3.240   1.003   8.587
17016SOL    HW252881   3.389   1.013   8.559
17017SOL     OW52882   2.912  13.846   8.191
17017SOL    HW152883   2.887  13.766   8.146
17017SOL    HW252884   2.997  13.827   8.230
17018SOL     OW52885   4.305   6.640  11.002
17018SOL    HW152886   4.400   6.629  11.004
17018SOL    HW252887   4.286   6.705  11.069
17019SOL     OW52888  10.756   0.729   2.182
17019SOL    HW152889  10.686   0.688   2.130
17019SOL    HW252890  10.726   0.819   2.195
17020SOL     OW52891   0.744   3.725  11.181
17020SOL    HW152892   0.660   3.679  11.180
17020SOL    HW252893   0.721   3.815  11.206
17021SOL     OW52894   1.648   4.985   5.648
17021SOL    HW152895   1.669   5.057   5.588
17021SOL    HW252896   1.638   5.027   5.733
17022SOL     OW52897   3.317   0.767  10.214
17022SOL    HW152898   3.349   0.809  10.135
17022SOL    HW252899   3.395   0.755  10.268
17023SOL     OW52900   0.064  13.399  14.760
17023SOL    HW152901   0.074  13.378  14.853
17023SOL    HW252902   0.153  13.407  14.728
17024SOL     OW52903   2.504   0.648   0.411
17024SOL    HW152904   2.419   0.629   0.450
17024SOL    HW252905   2.568   0.624   0.478
17025SOL     OW52906   2.273  10.445   2.381
17025SOL    HW152907   2.288  10.522   2.326
17025SOL    HW252908   2.200  10.399   2.339
17026SOL     OW52909  11.759   9.303   9.960
17026SOL    HW152910  11.721   9.301   9.872
17026SOL    HW252911  11.842   9.350   9.950
17027SOL     OW52912  13.901   9.851  13.115
17027SOL    HW152913  13.914   9.802  13.196
17027SOL    HW252914  13.829   9.910  13.133
17028SOL     OW52915   5.132   1.635  10.725
17028SOL    HW152916   5.117   1.684  10.805
17028SOL    HW252917   5.107   1.545  10.747
17029SOL     OW52918   1.339   5.305   2.484
17029SOL    HW152919   1.341   5.351   2.399
17029SOL    HW252920   1.387   5.362   2.543
17030SOL     OW52921   9.135  13.661  10.021
17030SOL    HW152922   9.225  13.648   9.990
17030SOL    HW252923   9.088  13.582   9.993
17031SOL     OW52924   9.256   2.655   8.070
17031SOL    HW152925   9.178   2.600   8.073
17031SOL    HW252926   9.224   2.742   8.046
17032SOL     OW52927   7.440   5.704  13.502
17032SOL    HW152928   7.418   5.797  13.502
17032SOL    HW252929   7.443   5.680  13.410
17033SOL     OW52930   3.888   1.425  13.143
17033SOL    HW152931   3.870   1.518  13.132
17033SOL    HW252932   3.935   1.419  13.227
17034SOL     OW52933  10.316   8.633  14.804
17034SOL    HW152934  10.318   8.540  14.781
17034SOL    HW252935  10.360   8.637   0.017
17035SOL     OW52936  11.888   8.338   2.619
17035SOL    HW152937  11.821   8.375   2.676
17035SOL    HW252938  11.961   8.400   2.624
17036SOL     OW52939   6.736   2.027   6.487
17036SOL    HW152940   6.771   2.080   6.415
17036SOL    HW252941   6.643   2.016   6.465
17037SOL     OW52942   4.428   7.436  14.356
17037SOL    HW152943   4.372   7.489  14.413
17037SOL    HW252944   4.410   7.346  14.381
17038SOL     OW52945   2.376  11.498   6.401
17038SOL    HW152946   2.452  11.493   6.343
17038SOL    HW252947   2.402  11.558   6.471
17039SOL     OW52948   5.097  12.607   5.593
17039SOL    HW152949   5.108  12.534   5.533
17039SOL    HW252950   5.186  12.630   5.620
17040SOL     OW52951  13.676  11.929   6.717
17040SOL    HW152952  13.642  12.014   6.691
17040SOL    HW252953  13.711  11.942   6.805
17041SOL     OW52954   8.534  11.823   3.945
17041SOL    HW152955   8.458  11.878   3.925
17041SOL    HW252956   8.497  11.747   3.989
17042SOL     OW52957   1.099   7.719   6.064
17042SOL    HW152958   1.005   7.710   6.044
17042SOL    HW252959   1.126   7.797   6.015
17043SOL     OW52960   5.526   3.611   3.594
17043SOL    HW152961   5.599   3.672   3.605
17043SOL    HW252962   5.523   3.594   3.500
17044SOL     OW52963  11.163  12.157  13.562
17044SOL    HW152964  11.126  12.217  13.627
17044SOL    HW252965  11.235  12.206  13.523
17045SOL     OW52966  13.076   2.538   8.391
17045SOL    HW152967  13.018   2.472   8.430
17045SOL    HW252968  13.160   2.525   8.436
17046SOL     OW52969   1.492   0.268   6.503
17046SOL    HW152970   1.566   0.236   6.451
17046SOL    HW252971   1.439   0.190   6.519
17047SOL     OW52972   9.562   6.452   4.025
17047SOL    HW152973   9.614   6.385   3.980
17047SOL    HW252974   9.473   6.416   4.027
17048SOL     OW52975  13.221   4.953   2.497
17048SOL    HW152976  13.309   4.962   2.533
17048SOL    HW252977  13.163   4.978   2.570
17049SOL     OW52978   8.166  12.837   9.254
17049SOL    HW152979   8.256  12.812   9.235
17049SOL    HW252980   8.158  12.926   9.220
17050SOL     OW52981   8.349   9.469   9.205
17050SOL    HW152982   8.388   9.384   9.221
17050SOL    HW252983   8.308   9.461   9.119
17051SOL     OW52984   5.735  13.220   0.418
17051SOL    HW152985   5.760  13.145   0.473
17051SOL    HW252986   5.644  13.238   0.442
17052SOL     OW52987   8.098   3.234   0.220
17052SOL    HW152988   8.029   3.268   0.277
17052SOL    HW252989   8.060   3.235   0.132
17053SOL     OW52990  10.572   2.959   3.351
17053SOL    HW152991  10.511   3.029   3.376
17053SOL    HW252992  10.656   3.004   3.339
17054SOL     OW52993  10.337  10.137  12.277
17054SOL    HW152994  10.343  10.055  12.326
17054SOL    HW252995  10.248  10.137  12.240
17055SOL     OW52996   5.180   4.462   2.615
17055SOL    HW152997   5.119   4.395   2.586
17055SOL    HW252998   5.141   4.498   2.694
17056SOL     OW52999   7.049  14.019   3.331
17056SOL    HW153000   7.093  13.948   3.379
17056SOL    HW253001   6.989  13.974   3.272
17057SOL     OW53002   2.869   4.166  14.293
17057SOL    HW153003   2.944   4.123  14.252
17057SOL    HW253004   2.793   4.136  14.241
17058SOL     OW53005   3.256  13.149   5.378
17058SOL    HW153006   3.301  13.078   5.424
17058SOL    HW253007   3.300  13.154   5.293
17059SOL     OW53008   4.811   3.025  13.428
17059SOL    HW153009   4.719   3.033  13.401
17059SOL    HW253010   4.847   3.113  13.413
17060SOL     OW53011   9.851   6.204   2.879
17060SOL    HW153012   9.887   6.256   2.950
17060SOL    HW253013   9.898   6.120   2.884
17061SOL     OW53014   8.985   4.574   7.320
17061SOL    HW153015   8.969   4.617   7.404
17061SOL    HW253016   8.921   4.502   7.318
17062SOL     OW53017  10.454  10.358   8.565
17062SOL    HW153018  10.481  10.274   8.604
17062SOL    HW253019  10.360  10.363   8.583
17063SOL     OW53020   2.190   6.986  12.533
17063SOL    HW153021   2.279   6.986  12.569
17063SOL    HW253022   2.168   6.893  12.523
17064SOL     OW53023   6.788   1.118   7.248
17064SOL    HW153024   6.728   1.125   7.174
17064SOL    HW253025   6.778   1.028   7.278
17065SOL     OW53026   2.545   1.379   7.648
17065SOL    HW153027   2.472   1.328   7.682
17065SOL    HW253028   2.596   1.403   7.725
17066SOL     OW53029  10.005   6.614  12.127
17066SOL    HW153030  10.020   6.678  12.058
17066SOL    HW253031  10.088   6.567  12.135
17067SOL     OW53032  14.505  12.889   5.763
17067SOL    HW153033  14.494  12.981   5.788
17067SOL    HW253034  14.546  12.848   5.840
17068SOL     OW53035  10.253   4.195   3.635
17068SOL    HW153036  10.182   4.254   3.610
17068SOL    HW253037  10.251   4.125   3.570
17069SOL     OW53038   2.341   1.177   3.067
17069SOL    HW153039   2.313   1.269   3.063
17069SOL    HW253040   2.259   1.128   3.077
17070SOL     OW53041   4.881  10.330   4.759
17070SOL    HW153042   4.839  10.315   4.844
17070SOL    HW253043   4.933  10.251   4.744
17071SOL     OW53044   0.870  14.040   7.046
17071SOL    HW153045   0.888  14.059   6.954
17071SOL    HW253046   0.945  13.990   7.075
17072SOL     OW53047   1.493   3.133   3.490
17072SOL    HW153048   1.523   3.215   3.530
17072SOL    HW253049   1.507   3.146   3.396
17073SOL     OW53050  12.181   5.385   2.332
17073SOL    HW153051  12.162   5.420   2.245
17073SOL    HW253052  12.262   5.428   2.359
17074SOL     OW53053  11.586   7.392  11.918
17074SOL    HW153054  11.561   7.382  12.009
17074SOL    HW253055  11.570   7.307  11.878
17075SOL     OW53056   3.126   4.505   5.013
17075SOL    HW153057   3.073   4.536   4.940
17075SOL    HW253058   3.131   4.411   5.001
17076SOL     OW53059  10.452   4.694  10.805
17076SOL    HW153060  10.488   4.649  10.881
17076SOL    HW253061  10.510   4.769  10.792
17077SOL     OW53062   3.216   2.423  10.829
17077SOL    HW153063   3.272   2.431  10.907
17077SOL    HW253064   3.278   2.406  10.757
17078SOL     OW53065   3.591   1.802   7.682
17078SOL    HW153066   3.559   1.772   7.597
17078SOL    HW253067   3.544   1.884   7.698
17079SOL     OW53068  11.630  12.564   8.823
17079SOL    HW153069  11.687  12.616   8.879
17079SOL    HW253070  11.570  12.628   8.784
17080SOL     OW53071   7.861  12.054   0.982
17080SOL    HW153072   7.865  12.143   0.948
17080SOL    HW253073   7.771  12.026   0.964
17081SOL     OW53074   0.807   2.594  13.921
17081SOL    HW153075   0.900   2.574  13.935
17081SOL    HW253076   0.776   2.626  14.005
17082SOL     OW53077   0.343   1.550   3.403
17082SOL    HW153078   0.414   1.551   3.467
17082SOL    HW253079   0.304   1.637   3.408
17083SOL     OW53080   5.946   4.878  14.331
17083SOL    HW153081   5.934   4.960  14.380
17083SOL    HW253082   5.861   4.835  14.335
17084SOL     OW53083   6.889  12.853  14.038
17084SOL    HW153084   6.910  12.793  13.966
17084SOL    HW253085   6.877  12.797  14.114
17085SOL     OW53086   7.039  10.313   0.595
17085SOL    HW153087   7.039  10.385   0.658
17085SOL    HW253088   7.114  10.329   0.538
17086SOL     OW53089   7.323   0.760  10.845
17086SOL    HW153090   7.305   0.827  10.911
17086SOL    HW253091   7.391   0.705  10.884
17087SOL     OW53092  12.400   7.754  10.171
17087SOL    HW153093  12.458   7.679  10.188
17087SOL    HW253094  12.329   7.717  10.118
17088SOL     OW53095   7.802   4.181  11.344
17088SOL    HW153096   7.847   4.209  11.264
17088SOL    HW253097   7.728   4.128  11.313
17089SOL     OW53098  11.442   4.131   1.648
17089SOL    HW153099  11.431   4.226   1.636
17089SOL    HW253100  11.388   4.111   1.724
17090SOL     OW53101  14.275   1.839   2.216
17090SOL    HW153102  14.239   1.826   2.129
17090SOL    HW253103  14.352   1.783   2.220
17091SOL     OW53104   0.166   1.428   3.200
17091SOL    HW153105   0.094   1.406   3.258
17091SOL    HW253106   0.234   1.464   3.257
17092SOL     OW53107   9.986  13.920   3.149
17092SOL    HW153108   9.994  13.952   3.059
17092SOL    HW253109  10.069  13.876   3.166
17093SOL     OW53110  10.796   5.470   8.114
17093SOL    HW153111  10.713   5.496   8.152
17093SOL    HW253112  10.773   5.400   8.053
17094SOL     OW53113  13.282   8.534  14.240
17094SOL    HW153114  13.265   8.626  14.262
17094SOL    HW253115  13.376   8.532  14.219
17095SOL     OW53116   6.973   5.872   0.906
17095SOL    HW153117   6.923   5.885   0.825
17095SOL    HW253118   7.053   5.827   0.878
17096SOL     OW53119   6.673   5.769   8.820
17096SOL    HW153120   6.755   5.742   8.778
17096SOL    HW253121   6.611   5.780   8.748
17097SOL     OW53122   3.074  10.239   2.768
17097SOL    HW153123   3.054  10.173   2.702
17097SOL    HW253124   3.086  10.189   2.849
17098SOL     OW53125  12.396   0.748   8.015
17098SOL    HW153126  12.455   0.679   8.043
17098SOL    HW253127  12.387   0.804   8.092
17099SOL     OW53128   6.287  12.300   9.705
17099SOL    HW153129   6.240  12.342   9.633
17099SOL    HW253130   6.379  12.314   9.685
17100SOL     OW53131   2.009   1.254   0.542
17100SOL    HW153132   2.069   1.182   0.522
17100SOL    HW253133   1.947   1.216   0.605
17101SOL     OW53134   3.933   3.557   1.587
17101SOL    HW153135   3.979   3.620   1.641
17101SOL    HW253136   3.878   3.508   1.648
17102SOL     OW53137   6.155  11.865   6.450
17102SOL    HW153138   6.101  11.932   6.409
17102SOL    HW253139   6.223  11.847   6.385
17103SOL     OW53140   5.117  10.901  14.061
17103SOL    HW153141   5.201  10.904  14.107
17103SOL    HW253142   5.139  10.920  13.970
17104SOL     OW53143  10.707   2.544   1.826
17104SOL    HW153144  10.619   2.514   1.804
17104SOL    HW253145  10.719   2.520   1.918
17105SOL     OW53146  14.531  13.064  14.132
17105SOL    HW153147  14.443  13.041  14.161
17105SOL    HW253148  14.582  13.073  14.212
17106SOL     OW53149   0.576  11.415   3.150
17106SOL    HW153150   0.577  11.331   3.196
17106SOL    HW253151   0.577  11.392   3.057
17107SOL     OW53152  10.020   4.547  14.319
17107SOL    HW153153  10.033   4.455  14.342
17107SOL    HW253154   9.967   4.582  14.391
17108SOL     OW53155  10.766   3.508   7.433
17108SOL    HW153156  10.695   3.532   7.493
17108SOL    HW253157  10.828   3.459   7.487
17109SOL     OW53158   0.192   1.372  13.874
17109SOL    HW153159   0.283   1.390  13.851
17109SOL    HW253160   0.178   1.282  13.845
17110SOL     OW53161   5.351  12.874   2.811
17110SOL    HW153162   5.373  12.781   2.813
17110SOL    HW253163   5.385  12.905   2.727
17111SOL     OW53164  10.917   9.842   9.365
17111SOL    HW153165  10.916   9.752   9.332
17111SOL    HW253166  10.951   9.894   9.293
17112SOL     OW53167  11.593  13.703   8.780
17112SOL    HW153168  11.679  13.730   8.813
17112SOL    HW253169  11.590  13.608   8.796
17113SOL     OW53170  10.543   2.316   6.818
17113SOL    HW153171  10.577   2.397   6.779
17113SOL    HW253172  10.621   2.273   6.855
17114SOL     OW53173  13.260  14.093   8.568
17114SOL    HW153174  13.319  14.093   8.492
17114SOL    HW253175  13.199  14.021   8.550
17115SOL     OW53176   0.649   7.709   8.994
17115SOL    HW153177   0.648   7.781   8.932
17115SOL    HW253178   0.568   7.661   8.977
17116SOL     OW53179   1.153   7.934   5.681
17116SOL    HW153180   1.070   7.970   5.650
17116SOL    HW253181   1.139   7.839   5.685
17117SOL     OW53182  13.460   3.908  11.095
17117SOL    HW153183  13.462   3.831  11.152
17117SOL    HW253184  13.437   3.980  11.153
17118SOL     OW53185   1.107  10.418   6.848
17118SOL    HW153186   1.053  10.339   6.848
17118SOL    HW253187   1.088  10.460   6.765
17119SOL     OW53188   2.235   4.528   7.301
17119SOL    HW153189   2.209   4.441   7.330
17119SOL    HW253190   2.248   4.519   7.206
17120SOL     OW53191   5.473   2.267   5.728
17120SOL    HW153192   5.509   2.179   5.736
17120SOL    HW253193   5.548   2.326   5.737
17121SOL     OW53194  11.273   2.396  10.678
17121SOL    HW153195  11.366   2.414  10.692
17121SOL    HW253196  11.242   2.360  10.762
17122SOL     OW53197   0.747  10.945  12.105
17122SOL    HW153198   0.759  10.933  12.011
17122SOL    HW253199   0.746  10.856  12.141
17123SOL     OW53200   3.571  12.060  12.171
17123SOL    HW153201   3.635  12.002  12.214
17123SOL    HW253202   3.512  12.087  12.242
17124SOL     OW53203   4.067   2.953   9.209
17124SOL    HW153204   3.976   2.979   9.218
17124SOL    HW253205   4.088   2.972   9.117
17125SOL     OW53206  13.864   9.465  13.085
17125SOL    HW153207  13.868   9.453  13.180
17125SOL    HW253208  13.934   9.410  13.051
17126SOL     OW53209  12.744   7.816  11.166
17126SOL    HW153210  12.655   7.787  11.147
17126SOL    HW253211  12.780   7.838  11.080
17127SOL     OW53212  14.276  12.163  14.814
17127SOL    HW153213  14.350  12.108  14.841
17127SOL    HW253214  14.314  12.248  14.796
17128SOL     OW53215   5.852  13.201   4.051
17128SOL    HW153216   5.761  13.213   4.078
17128SOL    HW253217   5.900  13.271   4.095
17129SOL     OW53218  14.283   5.238  12.165
17129SOL    HW153219  14.236   5.172  12.216
17129SOL    HW253220  14.318   5.298  12.231
17130SOL     OW53221   1.328   9.060  10.726
17130SOL    HW153222   1.249   9.102  10.761
17130SOL    HW253223   1.304   8.969  10.714
17131SOL     OW53224  11.837   8.229  12.003
17131SOL    HW153225  11.879   8.204  11.921
17131SOL    HW253226  11.910   8.246  12.063
17132SOL     OW53227   1.599   9.947  12.658
17132SOL    HW153228   1.603  10.000  12.578
17132SOL    HW253229   1.581  10.010  12.728
17133SOL     OW53230  10.411  13.810  10.749
17133SOL    HW153231  10.425  13.903  10.765
17133SOL    HW253232  10.481  13.784  10.690
17134SOL     OW53233  10.479   0.908   0.863
17134SOL    HW153234  10.527   0.832   0.832
17134SOL    HW253235  10.416   0.927   0.793
17135SOL     OW53236   1.712   0.842  10.216
17135SOL    HW153237   1.689   0.924  10.172
17135SOL    HW253238   1.768   0.869  10.288
17136SOL     OW53239   7.968  12.013  11.183
17136SOL    HW153240   8.059  11.986  11.194
17136SOL    HW253241   7.967  12.059  11.099
17137SOL     OW53242  11.352   8.522   8.837
17137SOL    HW153243  11.434   8.520   8.885
17137SOL    HW253244  11.329   8.429   8.825
17138SOL     OW53245  11.346  12.746  14.728
17138SOL    HW153246  11.326  12.729  14.635
17138SOL    HW253247  11.382  12.834  14.728
17139SOL     OW53248  12.175   6.731   6.050
17139SOL    HW153249  12.111   6.663   6.027
17139SOL    HW253250  12.123   6.811   6.055
17140SOL     OW53251   6.374   4.412  14.561
17140SOL    HW153252   6.387   4.411  14.656
17140SOL    HW253253   6.354   4.503  14.541
17141SOL     OW53254   8.889  13.434   8.383
17141SOL    HW153255   8.933  13.431   8.468
17141SOL    HW253256   8.801  13.466   8.404
17142SOL     OW53257   4.976   1.920  11.570
17142SOL    HW153258   4.997   1.846  11.513
17142SOL    HW253259   4.983   1.997  11.512
17143SOL     OW53260   0.435   6.011   5.375
17143SOL    HW153261   0.372   5.961   5.323
17143SOL    HW253262   0.495   5.944   5.409
17144SOL     OW53263   4.007   8.526   6.068
17144SOL    HW153264   3.989   8.614   6.101
17144SOL    HW253265   3.920   8.485   6.061
17145SOL     OW53266   4.004   6.564   6.403
17145SOL    HW153267   4.081   6.540   6.351
17145SOL    HW253268   4.039   6.590   6.488
17146SOL     OW53269  10.032  14.468   5.683
17146SOL    HW153270  10.121  14.492   5.656
17146SOL    HW253271  10.043  14.428   5.770
17147SOL     OW53272   7.786   0.425   8.495
17147SOL    HW153273   7.777   0.516   8.524
17147SOL    HW253274   7.719   0.377   8.544
17148SOL     OW53275   9.048   7.371   1.510
17148SOL    HW153276   9.106   7.370   1.586
17148SOL    HW253277   9.096   7.423   1.445
17149SOL     OW53278   5.415  13.056   1.072
17149SOL    HW153279   5.489  13.034   1.015
17149SOL    HW253280   5.404  12.980   1.128
17150SOL     OW53281   8.401   7.052   6.329
17150SOL    HW153282   8.335   6.986   6.307
17150SOL    HW253283   8.431   7.086   6.245
17151SOL     OW53284   0.207   9.932   9.031
17151SOL    HW153285   0.276   9.967   8.975
17151SOL    HW253286   0.214   9.982   9.113
17152SOL     OW53287  11.306   7.043  11.761
17152SOL    HW153288  11.313   6.956  11.722
17152SOL    HW253289  11.389   7.056  11.805
17153SOL     OW53290  11.244   2.140   1.561
17153SOL    HW153291  11.192   2.179   1.491
17153SOL    HW253292  11.183   2.080   1.604
17154SOL     OW53293   7.856   4.245  12.108
17154SOL    HW153294   7.777   4.238  12.054
17154SOL    HW253295   7.909   4.169  12.084
17155SOL     OW53296  12.418   1.366  11.346
17155SOL    HW153297  12.382   1.286  11.385
17155SOL    HW253298  12.362   1.383  11.270
17156SOL     OW53299   5.038   2.877   6.729
17156SOL    HW153300   5.025   2.817   6.803
17156SOL    HW253301   5.131   2.898   6.733
17157SOL     OW53302  11.354  13.502   6.352
17157SOL    HW153303  11.435  13.543   6.321
17157SOL    HW253304  11.350  13.527   6.445
17158SOL     OW53305   4.772   0.499   8.365
17158SOL    HW153306   4.680   0.515   8.343
17158SOL    HW253307   4.780   0.404   8.366
17159SOL     OW53308   2.896  13.492   3.652
17159SOL    HW153309   2.958  13.482   3.724
17159SOL    HW253310   2.878  13.586   3.648
17160SOL     OW53311   5.671   6.279  10.530
17160SOL    HW153312   5.602   6.216  10.509
17160SOL    HW253313   5.752   6.227  10.532
17161SOL     OW53314   8.647   7.845  13.513
17161SOL    HW153315   8.625   7.759  13.551
17161SOL    HW253316   8.605   7.845  13.427
17162SOL     OW53317  13.490   1.397   6.664
17162SOL    HW153318  13.519   1.313   6.698
17162SOL    HW253319  13.396   1.400   6.683
17163SOL     OW53320  13.200   5.670   4.055
17163SOL    HW153321  13.146   5.688   3.978
17163SOL    HW253322  13.156   5.596   4.098
17164SOL     OW53323   7.121   4.881   3.014
17164SOL    HW153324   7.045   4.829   2.989
17164SOL    HW253325   7.186   4.817   3.044
17165SOL     OW53326  10.424   7.412   5.698
17165SOL    HW153327  10.411   7.504   5.677
17165SOL    HW253328  10.516   7.407   5.724
17166SOL     OW53329   2.005   4.788  10.359
17166SOL    HW153330   2.024   4.762  10.269
17166SOL    HW253331   2.005   4.707  10.409
17167SOL     OW53332   4.065  10.346   9.467
17167SOL    HW153333   4.142  10.336   9.412
17167SOL    HW253334   4.057  10.262   9.512
17168SOL     OW53335   8.696  10.646   4.490
17168SOL    HW153336   8.713  10.678   4.579
17168SOL    HW253337   8.782  10.639   4.450
17169SOL     OW53338   2.517  13.090   5.350
17169SOL    HW153339   2.527  13.183   5.328
17169SOL    HW253340   2.602  13.065   5.385
17170SOL     OW53341  10.372  13.333   3.637
17170SOL    HW153342  10.358  13.240   3.616
17170SOL    HW253343  10.360  13.337   3.732
17171SOL     OW53344  10.317   3.117   6.920
17171SOL    HW153345  10.284   3.187   6.864
17171SOL    HW253346  10.254   3.112   6.992
17172SOL     OW53347   8.258  13.394   6.098
17172SOL    HW153348   8.341  13.433   6.069
17172SOL    HW253349   8.191  13.442   6.050
17173SOL     OW53350   3.521   1.977   6.843
17173SOL    HW153351   3.565   1.908   6.892
17173SOL    HW253352   3.507   1.941   6.756
17174SOL     OW53353  12.534   3.946  11.891
17174SOL    HW153354  12.450   3.988  11.908
17174SOL    HW253355  12.535   3.870  11.950
17175SOL     OW53356  10.834  10.248  10.750
17175SOL    HW153357  10.905  10.292  10.702
17175SOL    HW253358  10.786  10.319  10.792
17176SOL     OW53359   3.728  12.553  14.239
17176SOL    HW153360   3.820  12.527  14.233
17176SOL    HW253361   3.730  12.649  14.232
17177SOL     OW53362  12.454   1.175   3.269
17177SOL    HW153363  12.485   1.150   3.182
17177SOL    HW253364  12.488   1.263   3.283
17178SOL     OW53365   7.956  13.363  12.187
17178SOL    HW153366   7.896  13.349  12.260
17178SOL    HW253367   7.940  13.453  12.159
17179SOL     OW53368   0.531  11.941  10.625
17179SOL    HW153369   0.446  11.973  10.658
17179SOL    HW253370   0.561  11.879  10.692
17180SOL     OW53371   8.791  10.998  12.100
17180SOL    HW153372   8.810  10.996  12.194
17180SOL    HW253373   8.862  10.948  12.060
17181SOL     OW53374  12.283  11.135   7.462
17181SOL    HW153375  12.278  11.189   7.382
17181SOL    HW253376  12.352  11.072   7.443
17182SOL     OW53377   0.090   3.767   2.370
17182SOL    HW153378   0.020   3.781   2.434
17182SOL    HW253379   0.165   3.815   2.406
17183SOL     OW53380  11.057   0.395   9.134
17183SOL    HW153381  11.044   0.448   9.213
17183SOL    HW253382  11.069   0.460   9.064
17184SOL     OW53383   2.766   3.505   8.781
17184SOL    HW153384   2.712   3.536   8.709
17184SOL    HW253385   2.798   3.586   8.823
17185SOL     OW53386   5.668  11.615   3.672
17185SOL    HW153387   5.712  11.688   3.629
17185SOL    HW253388   5.716  11.603   3.755
17186SOL     OW53389   3.662   7.184  10.044
17186SOL    HW153390   3.640   7.118  10.109
17186SOL    HW253391   3.725   7.141   9.986
17187SOL     OW53392  11.362  12.125   8.773
17187SOL    HW153393  11.289  12.095   8.828
17187SOL    HW253394  11.339  12.214   8.748
17188SOL     OW53395   7.484   9.789  13.570
17188SOL    HW153396   7.556   9.845  13.540
17188SOL    HW253397   7.504   9.703  13.534
17189SOL     OW53398  12.750  12.952  12.153
17189SOL    HW153399  12.685  12.954  12.084
17189SOL    HW253400  12.704  12.918  12.229
17190SOL     OW53401   0.054  11.579   9.893
17190SOL    HW153402  14.854  11.545   9.840
17190SOL    HW253403   0.106  11.633   9.832
17191SOL     OW53404   8.426   9.529   8.353
17191SOL    HW153405   8.438   9.624   8.351
17191SOL    HW253406   8.373   9.513   8.431
17192SOL     OW53407  10.620   9.700   2.557
17192SOL    HW153408  10.680   9.637   2.518
17192SOL    HW253409  10.556   9.647   2.604
17193SOL     OW53410   6.765   9.276   7.875
17193SOL    HW153411   6.815   9.346   7.916
17193SOL    HW253412   6.734   9.222   7.948
17194SOL     OW53413   4.068  10.342   7.428
17194SOL    HW153414   4.131  10.288   7.381
17194SOL    HW253415   4.121  10.395   7.487
17195SOL     OW53416  11.425   2.724   0.613
17195SOL    HW153417  11.411   2.630   0.599
17195SOL    HW253418  11.383   2.743   0.696
17196SOL     OW53419   1.333   6.792   8.378
17196SOL    HW153420   1.281   6.871   8.394
17196SOL    HW253421   1.290   6.750   8.304
17197SOL     OW53422   3.004   2.841   2.613
17197SOL    HW153423   3.009   2.860   2.707
17197SOL    HW253424   3.011   2.745   2.608
17198SOL     OW53425   5.290  13.003  12.437
17198SOL    HW153426   5.336  13.013  12.521
17198SOL    HW253427   5.360  12.991  12.373
17199SOL     OW53428   8.297   0.736   1.849
17199SOL    HW153429   8.342   0.807   1.802
17199SOL    HW253430   8.354   0.718   1.924
17200SOL     OW53431   6.241   2.913   9.245
17200SOL    HW153432   6.326   2.939   9.211
17200SOL    HW253433   6.194   2.995   9.258
17201SOL     OW53434   2.605   2.413   7.710
17201SOL    HW153435   2.662   2.488   7.694
17201SOL    HW253436   2.663   2.337   7.712
17202SOL     OW53437   9.401   9.044  14.555
17202SOL    HW153438   9.418   8.988  14.480
17202SOL    HW253439   9.445   9.000  14.628
17203SOL     OW53440  12.158   4.865   1.995
17203SOL    HW153441  12.139   4.865   2.089
17203SOL    HW253442  12.218   4.939   1.983
17204SOL     OW53443  11.377  11.372   8.425
17204SOL    HW153444  11.369  11.467   8.415
17204SOL    HW253445  11.290  11.338   8.402
17205SOL     OW53446   2.296   3.537  10.827
17205SOL    HW153447   2.385   3.506  10.811
17205SOL    HW253448   2.240   3.464  10.802
17206SOL     OW53449  12.347   5.527  13.351
17206SOL    HW153450  12.338   5.532  13.446
17206SOL    HW253451  12.441   5.536  13.336
17207SOL     OW53452  10.384  10.998   5.831
17207SOL    HW153453  10.468  10.995   5.876
17207SOL    HW253454  10.333  11.062   5.879
17208SOL     OW53455   6.510   4.481  11.398
17208SOL    HW153456   6.528   4.550  11.334
17208SOL    HW253457   6.508   4.400  11.347
17209SOL     OW53458  10.891  14.505   1.261
17209SOL    HW153459  10.797  14.502   1.276
17209SOL    HW253460  10.929  14.505   1.349
17210SOL     OW53461   5.552   7.976   7.209
17210SOL    HW153462   5.615   7.922   7.256
17210SOL    HW253463   5.561   8.063   7.247
17211SOL     OW53464   0.090   2.928   4.222
17211SOL    HW153465   0.100   2.842   4.264
17211SOL    HW253466   0.004   2.959   4.251
17212SOL     OW53467   2.115   6.103   4.117
17212SOL    HW153468   2.191   6.159   4.132
17212SOL    HW253469   2.144   6.016   4.144
17213SOL     OW53470  10.439  14.616   5.976
17213SOL    HW153471  10.371  14.592   6.039
17213SOL    HW253472  10.440  14.712   5.978
17214SOL     OW53473  13.432   9.988   7.433
17214SOL    HW153474  13.373   9.923   7.396
17214SOL    HW253475  13.382  10.027   7.505
17215SOL     OW53476   3.414   1.322   7.349
17215SOL    HW153477   3.381   1.243   7.392
17215SOL    HW253478   3.509   1.319   7.362
17216SOL     OW53479   0.733  11.475  12.260
17216SOL    HW153480   0.753  11.420  12.336
17216SOL    HW253481   0.681  11.419  12.203
17217SOL     OW53482   7.205  11.099   9.767
17217SOL    HW153483   7.263  11.037   9.810
17217SOL    HW253484   7.132  11.109   9.828
17218SOL     OW53485   8.518   5.013   8.113
17218SOL    HW153486   8.447   4.953   8.135
17218SOL    HW253487   8.595   4.975   8.156
17219SOL     OW53488  14.675   1.677  14.669
17219SOL    HW153489  14.582   1.684  14.649
17219SOL    HW253490  14.679   1.618  14.744
17220SOL     OW53491   4.944  12.045   5.703
17220SOL    HW153492   5.004  12.077   5.770
17220SOL    HW253493   4.902  12.123   5.667
17221SOL     OW53494   7.836   9.342   6.181
17221SOL    HW153495   7.767   9.401   6.211
17221SOL    HW253496   7.867   9.382   6.099
17222SOL     OW53497   8.219   5.665   3.343
17222SOL    HW153498   8.133   5.629   3.363
17222SOL    HW253499   8.252   5.611   3.272
17223SOL     OW53500   6.437   8.242   5.528
17223SOL    HW153501   6.367   8.196   5.481
17223SOL    HW253502   6.481   8.294   5.460
17224SOL     OW53503  14.440  11.002   2.285
17224SOL    HW153504  14.506  10.964   2.343
17224SOL    HW253505  14.380  11.047   2.343
17225SOL     OW53506   2.439  14.451  14.323
17225SOL    HW153507   2.358  14.406  14.299
17225SOL    HW253508   2.411  14.539  14.347
17226SOL     OW53509   6.405   3.256  10.945
17226SOL    HW153510   6.370   3.188  11.004
17226SOL    HW253511   6.447   3.207  10.875
17227SOL     OW53512   5.469   2.618  10.080
17227SOL    HW153513   5.468   2.523  10.085
17227SOL    HW253514   5.493   2.637   9.989
17228SOL     OW53515   3.953  13.288  11.230
17228SOL    HW153516   3.953  13.338  11.311
17228SOL    HW253517   3.989  13.203  11.255
17229SOL     OW53518  12.469  13.090   0.712
17229SOL    HW153519  12.409  13.016   0.703
17229SOL    HW253520  12.548  13.052   0.751
17230SOL     OW53521   8.803   6.496   1.498
17230SOL    HW153522   8.870   6.559   1.522
17230SOL    HW253523   8.831   6.462   1.413
17231SOL     OW53524   4.750   0.728   8.150
17231SOL    HW153525   4.823   0.762   8.201
17231SOL    HW253526   4.758   0.633   8.158
17232SOL     OW53527   3.194   2.571  10.035
17232SOL    HW153528   3.189   2.494  10.092
17232SOL    HW253529   3.286   2.597  10.038
17233SOL     OW53530   4.856   3.283   1.375
17233SOL    HW153531   4.829   3.258   1.463
17233SOL    HW253532   4.832   3.208   1.320
17234SOL     OW53533   4.938  12.793  12.887
17234SOL    HW153534   5.002  12.722  12.889
17234SOL    HW253535   4.975  12.857  12.826
17235SOL     OW53536   5.627   2.742   6.283
17235SOL    HW153537   5.686   2.709   6.350
17235SOL    HW253538   5.578   2.665   6.254
17236SOL     OW53539   4.208   2.615   8.307
17236SOL    HW153540   4.189   2.554   8.236
17236SOL    HW253541   4.244   2.560   8.377
17237SOL     OW53542   9.986   0.594   5.539
17237SOL    HW153543   9.968   0.521   5.480
17237SOL    HW253544  10.058   0.562   5.594
17238SOL     OW53545   6.158   4.253   7.269
17238SOL    HW153546   6.072   4.231   7.304
17238SOL    HW253547   6.139   4.304   7.190
17239SOL     OW53548  11.435  14.091  12.563
17239SOL    HW153549  11.345  14.082  12.594
17239SOL    HW253550  11.446  14.184  12.546
17240SOL     OW53551   7.967   2.312   3.450
17240SOL    HW153552   7.874   2.332   3.462
17240SOL    HW253553   8.004   2.391   3.410
17241SOL     OW53554   0.055  12.604  14.405
17241SOL    HW153555  14.854  12.565  14.357
17241SOL    HW253556   0.014  12.665  14.467
17242SOL     OW53557  12.346  14.105   7.466
17242SOL    HW153558  12.333  14.194   7.431
17242SOL    HW253559  12.440  14.090   7.456
17243SOL     OW53560   7.731   6.486   4.710
17243SOL    HW153561   7.762   6.576   4.710
17243SOL    HW253562   7.635   6.494   4.710
17244SOL     OW53563   0.102   9.926  13.343
17244SOL    HW153564   0.040   9.928  13.270
17244SOL    HW253565   0.147   9.842  13.333
17245SOL     OW53566  14.208   0.465   3.170
17245SOL    HW153567  14.130   0.512   3.202
17245SOL    HW253568  14.280   0.527   3.183
17246SOL     OW53569   8.733  13.253   0.300
17246SOL    HW153570   8.771  13.289   0.220
17246SOL    HW253571   8.790  13.180   0.324
17247SOL     OW53572   1.599   6.334  14.223
17247SOL    HW153573   1.691   6.332  14.198
17247SOL    HW253574   1.553   6.291  14.151
17248SOL     OW53575   8.983  11.856  13.688
17248SOL    HW153576   8.977  11.935  13.635
17248SOL    HW253577   8.928  11.873  13.764
17249SOL     OW53578  13.064   7.299   6.575
17249SOL    HW153579  13.015   7.381   6.574
17249SOL    HW253580  13.141   7.318   6.629
17250SOL     OW53581   2.715   1.283   0.072
17250SOL    HW153582   2.748   1.364   0.109
17250SOL    HW253583   2.743   1.215   0.133
17251SOL     OW53584  13.644  14.516   3.200
17251SOL    HW153585  13.670  14.528   3.291
17251SOL    HW253586  13.605  14.429   3.197
17252SOL     OW53587   7.378  11.847   6.913
17252SOL    HW153588   7.330  11.784   6.860
17252SOL    HW253589   7.461  11.804   6.934
17253SOL     OW53590   1.201  10.634  12.290
17253SOL    HW153591   1.270  10.591  12.239
17253SOL    HW253592   1.244  10.709  12.330
17254SOL     OW53593  10.863  11.281   3.654
17254SOL    HW153594  10.779  11.289   3.610
17254SOL    HW253595  10.876  11.187   3.665
17255SOL     OW53596  14.657   9.906   4.640
17255SOL    HW153597  14.722   9.860   4.585
17255SOL    HW253598  14.709   9.947   4.709
17256SOL     OW53599   2.277  13.079   1.820
17256SOL    HW153600   2.277  13.162   1.867
17256SOL    HW253601   2.189  13.043   1.833
17257SOL     OW53602   4.910   4.029   5.954
17257SOL    HW153603   4.861   3.953   5.985
17257SOL    HW253604   4.901   4.027   5.859
17258SOL     OW53605  13.520   5.954   8.398
17258SOL    HW153606  13.489   5.908   8.476
17258SOL    HW253607  13.615   5.957   8.407
17259SOL     OW53608   5.217  13.716   9.592
17259SOL    HW153609   5.264  13.790   9.553
17259SOL    HW253610   5.284  13.668   9.640
17260SOL     OW53611   1.810   2.239   0.401
17260SOL    HW153612   1.874   2.279   0.461
17260SOL    HW253613   1.778   2.163   0.449
17261SOL     OW53614  11.679   9.180  12.914
17261SOL    HW153615  11.676   9.255  12.855
17261SOL    HW253616  11.588   9.167  12.942
17262SOL     OW53617  10.268  14.628  13.733
17262SOL    HW153618  10.255  14.645  13.826
17262SOL    HW253619  10.186  14.588  13.704
17263SOL     OW53620  14.422  11.679   8.573
17263SOL    HW153621  14.432  11.641   8.486
17263SOL    HW253622  14.402  11.604   8.630
17264SOL     OW53623  11.442  12.391   3.801
17264SOL    HW153624  11.411  12.479   3.824
17264SOL    HW253625  11.425  12.384   3.707
17265SOL     OW53626  10.127  12.257   3.959
17265SOL    HW153627  10.206  12.265   4.012
17265SOL    HW253628  10.159  12.233   3.872
17266SOL     OW53629  12.974   8.686  14.581
17266SOL    HW153630  12.951   8.704  14.672
17266SOL    HW253631  12.983   8.591  14.576
17267SOL     OW53632   0.377   2.887   5.708
17267SOL    HW153633   0.459   2.839   5.718
17267SOL    HW253634   0.310   2.826   5.739
17268SOL     OW53635   8.757   6.105  10.004
17268SOL    HW153636   8.779   6.014  10.021
17268SOL    HW253637   8.789   6.153  10.080
17269SOL     OW53638  10.465   2.875  11.744
17269SOL    HW153639  10.464   2.966  11.715
17269SOL    HW253640  10.381   2.839  11.713
17270SOL     OW53641   9.901   5.171   9.813
17270SOL    HW153642   9.962   5.222   9.866
17270SOL    HW253643   9.901   5.084   9.852
17271SOL     OW53644  14.373   1.733   9.023
17271SOL    HW153645  14.414   1.694   8.945
17271SOL    HW253646  14.351   1.822   8.997
17272SOL     OW53647  13.063   3.391   8.611
17272SOL    HW153648  13.125   3.406   8.540
17272SOL    HW253649  12.977   3.394   8.569
17273SOL     OW53650   3.141   6.666   3.727
17273SOL    HW153651   3.138   6.581   3.770
17273SOL    HW253652   3.235   6.685   3.719
17274SOL     OW53653   7.917   0.060  10.386
17274SOL    HW153654   8.000   0.034  10.427
17274SOL    HW253655   7.885   0.132  10.440
17275SOL     OW53656   0.772  12.951  14.745
17275SOL    HW153657   0.849  12.985  14.699
17275SOL    HW253658   0.761  13.009  14.820
17276SOL     OW53659   8.366   6.234   9.548
17276SOL    HW153660   8.319   6.153   9.571
17276SOL    HW253661   8.458   6.213   9.563
17277SOL     OW53662   6.547   6.565   5.358
17277SOL    HW153663   6.630   6.593   5.319
17277SOL    HW253664   6.501   6.519   5.288
17278SOL     OW53665   7.823   6.909   8.766
17278SOL    HW153666   7.741   6.932   8.809
17278SOL    HW253667   7.888   6.968   8.805
17279SOL     OW53668   9.423  12.711   4.054
17279SOL    HW153669   9.340  12.696   4.098
17279SOL    HW253670   9.419  12.657   3.975
17280SOL     OW53671   8.312   0.838   0.005
17280SOL    HW153672   8.297   0.932  14.864
17280SOL    HW253673   8.378   0.815  14.811
17281SOL     OW53674   5.880   4.908   4.298
17281SOL    HW153675   5.927   4.973   4.349
17281SOL    HW253676   5.845   4.957   4.224
17282SOL     OW53677   6.421   7.791  12.203
17282SOL    HW153678   6.428   7.779  12.298
17282SOL    HW253679   6.435   7.703  12.167
17283SOL     OW53680  12.647  13.319   9.573
17283SOL    HW153681  12.638  13.247   9.635
17283SOL    HW253682  12.699  13.384   9.620
17284SOL     OW53683   5.490  12.524   6.770
17284SOL    HW153684   5.479  12.547   6.862
17284SOL    HW253685   5.568  12.467   6.769
17285SOL     OW53686  10.216  13.911  12.894
17285SOL    HW153687  10.263  13.834  12.861
17285SOL    HW253688  10.277  13.951  12.956
17286SOL     OW53689   1.450   9.346   5.083
17286SOL    HW153690   1.398   9.273   5.118
17286SOL    HW253691   1.421   9.422   5.133
17287SOL     OW53692   4.643   3.521  11.689
17287SOL    HW153693   4.704   3.595  11.683
17287SOL    HW253694   4.573   3.542  11.627
17288SOL     OW53695   1.098  11.023   4.082
17288SOL    HW153696   1.193  11.038   4.076
17288SOL    HW253697   1.079  11.023   4.175
17289SOL     OW53698   3.348   2.233   2.914
17289SOL    HW153699   3.372   2.300   2.978
17289SOL    HW253700   3.271   2.190   2.951
17290SOL     OW53701  12.087   9.743   3.349
17290SOL    HW153702  12.090   9.768   3.256
17290SOL    HW253703  12.175   9.712   3.369
17291SOL     OW53704   2.852  13.976   7.275
17291SOL    HW153705   2.889  14.044   7.331
17291SOL    HW253706   2.927  13.922   7.250
17292SOL     OW53707   3.448   2.605   8.390
17292SOL    HW153708   3.470   2.584   8.481
17292SOL    HW253709   3.517   2.665   8.362
17293SOL     OW53710   7.763  11.660   5.740
17293SOL    HW153711   7.690  11.658   5.679
17293SOL    HW253712   7.766  11.572   5.776
17294SOL     OW53713  12.741   0.690   4.196
17294SOL    HW153714  12.816   0.690   4.137
17294SOL    HW253715  12.752   0.769   4.249
17295SOL     OW53716  11.704  13.649   6.420
17295SOL    HW153717  11.799  13.646   6.417
17295SOL    HW253718  11.676  13.561   6.396
17296SOL     OW53719   9.934   3.660   1.772
17296SOL    HW153720   9.979   3.619   1.699
17296SOL    HW253721  10.002   3.710   1.818
17297SOL     OW53722  14.390   7.608  14.014
17297SOL    HW153723  14.471   7.650  13.987
17297SOL    HW253724  14.412   7.562  14.095
17298SOL     OW53725   8.203   9.594  12.542
17298SOL    HW153726   8.203   9.666  12.605
17298SOL    HW253727   8.115   9.558  12.546
17299SOL     OW53728   8.014   5.301   9.094
17299SOL    HW153729   7.997   5.384   9.051
17299SOL    HW253730   8.077   5.257   9.038
17300SOL     OW53731   2.849   9.725   5.612
17300SOL    HW153732   2.922   9.779   5.643
17300SOL    HW253733   2.890   9.645   5.579
17301SOL     OW53734   0.068   2.835   8.427
17301SOL    HW153735   0.041   2.775   8.497
17301SOL    HW253736  14.862   2.886   8.407
17302SOL     OW53737   8.431   5.140  13.295
17302SOL    HW153738   8.379   5.171  13.221
17302SOL    HW253739   8.467   5.056  13.266
17303SOL     OW53740   2.230   9.072   7.900
17303SOL    HW153741   2.283   9.019   7.959
17303SOL    HW253742   2.262   9.162   7.912
17304SOL     OW53743   9.111   2.747   4.012
17304SOL    HW153744   9.203   2.725   3.999
17304SOL    HW253745   9.112   2.811   4.083
17305SOL     OW53746   3.129  14.034  14.832
17305SOL    HW153747   3.108  14.123  14.805
17305SOL    HW253748   3.197  14.044   0.026
17306SOL     OW53749   2.379   8.161   5.597
17306SOL    HW153750   2.461   8.201   5.626
17306SOL    HW253751   2.401   8.115   5.516
17307SOL     OW53752   1.201   1.564  12.033
17307SOL    HW153753   1.146   1.638  12.059
17307SOL    HW253754   1.145   1.487  12.045
17308SOL     OW53755  13.141   0.011   6.554
17308SOL    HW153756  13.228   0.046   6.570
17308SOL    HW253757  13.112   0.054   6.474
17309SOL     OW53758   7.759   1.715   1.669
17309SOL    HW153759   7.780   1.777   1.739
17309SOL    HW253760   7.666   1.694   1.683
17310SOL     OW53761   6.901  11.651   1.235
17310SOL    HW153762   6.966  11.720   1.250
17310SOL    HW253763   6.855  11.644   1.319
17311SOL     OW53764  12.820   2.086  11.725
17311SOL    HW153765  12.823   2.178  11.752
17311SOL    HW253766  12.910   2.066  11.700
17312SOL     OW53767   1.119  12.126   8.589
17312SOL    HW153768   1.120  12.171   8.674
17312SOL    HW253769   1.117  12.196   8.524
17313SOL     OW53770  11.421   4.959   2.577
17313SOL    HW153771  11.391   4.947   2.668
17313SOL    HW253772  11.469   4.878   2.558
17314SOL     OW53773  11.667   1.097   3.956
17314SOL    HW153774  11.687   1.054   4.040
17314SOL    HW253775  11.751   1.101   3.911
17315SOL     OW53776   5.236   3.034  13.705
17315SOL    HW153777   5.227   3.122  13.668
17315SOL    HW253778   5.315   3.038  13.758
17316SOL     OW53779   4.770   3.924   6.978
17316SOL    HW153780   4.734   4.011   6.959
17316SOL    HW253781   4.808   3.896   6.895
17317SOL     OW53782   8.580   0.194   6.162
17317SOL    HW153783   8.497   0.189   6.115
17317SOL    HW253784   8.558   0.235   6.246
17318SOL     OW53785  13.558  14.033   4.237
17318SOL    HW153786  13.468  14.000   4.238
17318SOL    HW253787  13.578  14.049   4.329
17319SOL     OW53788   7.789   9.418   4.382
17319SOL    HW153789   7.838   9.499   4.369
17319SOL    HW253790   7.812   9.364   4.306
17320SOL     OW53791  10.020   6.574   7.963
17320SOL    HW153792  10.056   6.661   7.984
17320SOL    HW253793   9.990   6.540   8.047
17321SOL     OW53794  12.113   0.193  11.964
17321SOL    HW153795  12.100   0.233  11.878
17321SOL    HW253796  12.124   0.100  11.945
17322SOL     OW53797   0.208  12.933   0.186
17322SOL    HW153798   0.217  12.887   0.270
17322SOL    HW253799   0.117  12.917   0.159
17323SOL     OW53800   0.492  11.343  10.404
17323SOL    HW153801   0.568  11.383  10.446
17323SOL    HW253802   0.437  11.313  10.477
17324SOL     OW53803  14.080   7.753  14.597
17324SOL    HW153804  14.076   7.666  14.638
17324SOL    HW253805  14.063   7.737  14.505
17325SOL     OW53806   9.893  14.112   9.887
17325SOL    HW153807   9.826  14.043   9.877
17325SOL    HW253808   9.847  14.183   9.931
17326SOL     OW53809   0.551   1.217   3.816
17326SOL    HW153810   0.479   1.157   3.794
17326SOL    HW253811   0.560   1.210   3.911
17327SOL     OW53812   1.839   3.627  14.724
17327SOL    HW153813   1.751   3.660  14.708
17327SOL    HW253814   1.887   3.645  14.643
17328SOL     OW53815   4.187   6.579   9.892
17328SOL    HW153816   4.183   6.579   9.796
17328SOL    HW253817   4.280   6.589   9.912
17329SOL     OW53818   0.996   6.285   5.316
17329SOL    HW153819   0.901   6.279   5.310
17329SOL    HW253820   1.013   6.375   5.343
17330SOL     OW53821  13.724  10.352   7.105
17330SOL    HW153822  13.771  10.317   7.180
17330SOL    HW253823  13.711  10.445   7.126
17331SOL     OW53824   7.084  14.104  13.084
17331SOL    HW153825   6.988  14.109  13.081
17331SOL    HW253826   7.108  14.043  13.015
17332SOL     OW53827  11.420  14.698   1.975
17332SOL    HW153828  11.388  14.730   1.891
17332SOL    HW253829  11.356  14.729   2.039
17333SOL     OW53830   9.786   2.587   5.314
17333SOL    HW153831   9.719   2.629   5.259
17333SOL    HW253832   9.819   2.658   5.369
17334SOL     OW53833   4.785  10.525   6.610
17334SOL    HW153834   4.699  10.560   6.585
17334SOL    HW253835   4.818  10.587   6.674
17335SOL     OW53836   0.925  11.209   3.966
17335SOL    HW153837   0.966  11.295   3.953
17335SOL    HW253838   0.989  11.159   4.016
17336SOL     OW53839  14.695   5.603  13.639
17336SOL    HW153840  14.735   5.588  13.724
17336SOL    HW253841  14.742   5.679  13.603
17337SOL     OW53842   3.542  13.058  10.371
17337SOL    HW153843   3.486  13.068  10.294
17337SOL    HW253844   3.581  13.145  10.384
17338SOL     OW53845   1.715  10.378  10.855
17338SOL    HW153846   1.727  10.286  10.830
17338SOL    HW253847   1.733  10.427  10.775
17339SOL     OW53848   6.867   9.982  11.595
17339SOL    HW153849   6.883  10.026  11.511
17339SOL    HW253850   6.780  10.013  11.622
17340SOL     OW53851   7.645   7.550   2.988
17340SOL    HW153852   7.724   7.498   2.976
17340SOL    HW253853   7.616   7.529   3.077
17341SOL     OW53854  10.981   4.631   7.408
17341SOL    HW153855  10.926   4.554   7.390
17341SOL    HW253856  11.028   4.608   7.488
17342SOL     OW53857  12.557   1.712   0.897
17342SOL    HW153858  12.556   1.806   0.916
17342SOL    HW253859  12.603   1.673   0.971
17343SOL     OW53860   0.705   2.422   2.803
17343SOL    HW153861   0.723   2.445   2.895
17343SOL    HW253862   0.733   2.331   2.795
17344SOL     OW53863   4.402   2.242  12.436
17344SOL    HW153864   4.496   2.256  12.447
17344SOL    HW253865   4.362   2.327  12.455
17345SOL     OW53866   7.315   0.330  13.435
17345SOL    HW153867   7.325   0.293  13.522
17345SOL    HW253868   7.404   0.356  13.409
17346SOL     OW53869   7.766  13.237   1.527
17346SOL    HW153870   7.764  13.154   1.574
17346SOL    HW253871   7.807  13.216   1.443
17347SOL     OW53872  10.440   2.543   7.222
17347SOL    HW153873  10.535   2.538   7.214
17347SOL    HW253874  10.418   2.635   7.208
17348SOL     OW53875   4.143   6.213   7.995
17348SOL    HW153876   4.123   6.212   7.901
17348SOL    HW253877   4.141   6.121   8.021
17349SOL     OW53878  13.797   9.791  11.900
17349SOL    HW153879  13.849   9.710  11.896
17349SOL    HW253880  13.731   9.773  11.967
17350SOL     OW53881   1.093  13.255   2.731
17350SOL    HW153882   0.998  13.258   2.723
17350SOL    HW253883   1.110  13.206   2.811
17351SOL     OW53884  13.557   1.643   9.363
17351SOL    HW153885  13.633   1.646   9.421
17351SOL    HW253886  13.588   1.595   9.286
17352SOL     OW53887   6.022   5.234   8.277
17352SOL    HW153888   5.983   5.159   8.322
17352SOL    HW253889   6.065   5.284   8.347
17353SOL     OW53890   5.793   9.925  11.567
17353SOL    HW153891   5.837   9.908  11.484
17353SOL    HW253892   5.727   9.991  11.546
17354SOL     OW53893  10.992  13.472   6.912
17354SOL    HW153894  11.015  13.564   6.922
17354SOL    HW253895  10.945  13.468   6.829
17355SOL     OW53896   2.064   7.744  11.068
17355SOL    HW153897   2.121   7.739  10.991
17355SOL    HW253898   1.987   7.792  11.038
17356SOL     OW53899  11.727   6.449   7.483
17356SOL    HW153900  11.665   6.486   7.546
17356SOL    HW253901  11.786   6.522   7.462
17357SOL     OW53902   3.662   6.898   3.889
17357SOL    HW153903   3.739   6.873   3.838
17357SOL    HW253904   3.689   6.889   3.980
17358SOL     OW53905   7.989   1.584  13.430
17358SOL    HW153906   7.978   1.600  13.524
17358SOL    HW253907   8.046   1.654  13.400
17359SOL     OW53908   2.570  10.452   8.573
17359SOL    HW153909   2.592  10.502   8.652
17359SOL    HW253910   2.653  10.439   8.528
17360SOL     OW53911   2.948   6.568   9.732
17360SOL    HW153912   2.925   6.633   9.665
17360SOL    HW253913   2.917   6.485   9.697
17361SOL     OW53914   7.332   1.801  12.404
17361SOL    HW153915   7.239   1.824  12.405
17361SOL    HW253916   7.341   1.738  12.333
17362SOL     OW53917   8.971  13.584  11.667
17362SOL    HW153918   9.000  13.546  11.750
17362SOL    HW253919   9.050  13.589  11.613
17363SOL     OW53920   4.594  13.032   6.268
17363SOL    HW153921   4.502  13.007   6.276
17363SOL    HW253922   4.605  13.103   6.331
17364SOL     OW53923   2.109   1.424  12.323
17364SOL    HW153924   2.142   1.513  12.334
17364SOL    HW253925   2.188   1.369  12.324
17365SOL     OW53926   2.373  11.150   1.982
17365SOL    HW153927   2.459  11.174   1.948
17365SOL    HW253928   2.370  11.188   2.070
17366SOL     OW53929   3.038   3.896  10.373
17366SOL    HW153930   2.954   3.874  10.412
17366SOL    HW253931   3.037   3.992  10.367
17367SOL     OW53932  12.369   9.220   9.681
17367SOL    HW153933  12.297   9.236   9.620
17367SOL    HW253934  12.334   9.155   9.743
17368SOL     OW53935   7.204   8.192  13.925
17368SOL    HW153936   7.230   8.101  13.913
17368SOL    HW253937   7.286   8.239  13.945
17369SOL     OW53938  11.044   7.176  12.558
17369SOL    HW153939  10.991   7.212  12.630
17369SOL    HW253940  11.040   7.081  12.570
17370SOL     OW53941  12.096  13.751   1.896
17370SOL    HW153942  12.124  13.705   1.816
17370SOL    HW253943  12.162  13.820   1.908
17371SOL     OW53944   3.951  14.306   5.739
17371SOL    HW153945   3.871  14.332   5.693
17371SOL    HW253946   4.012  14.379   5.724
17372SOL     OW53947   8.413   6.736   7.187
17372SOL    HW153948   8.460   6.709   7.108
17372SOL    HW253949   8.365   6.815   7.160
17373SOL     OW53950   0.684  12.725   3.750
17373SOL    HW153951   0.654  12.725   3.841
17373SOL    HW253952   0.725  12.811   3.739
17374SOL     OW53953   1.061  14.379  10.599
17374SOL    HW153954   0.971  14.372  10.565
17374SOL    HW253955   1.051  14.424  10.683
17375SOL     OW53956   3.591   8.068   8.556
17375SOL    HW153957   3.612   7.977   8.535
17375SOL    HW253958   3.554   8.064   8.644
17376SOL     OW53959  12.783  10.280   2.235
17376SOL    HW153960  12.803  10.333   2.312
17376SOL    HW253961  12.774  10.191   2.269
17377SOL     OW53962  12.690   7.820   0.328
17377SOL    HW153963  12.707   7.729   0.302
17377SOL    HW253964  12.742   7.872   0.266
17378SOL     OW53965   8.818  10.061   2.801
17378SOL    HW153966   8.745  10.032   2.856
17378SOL    HW253967   8.895  10.050   2.857
17379SOL     OW53968   6.521   6.680   2.095
17379SOL    HW153969   6.560   6.601   2.058
17379SOL    HW253970   6.457   6.708   2.029
17380SOL     OW53971   4.566  11.821   2.797
17380SOL    HW153972   4.508  11.782   2.861
17380SOL    HW253973   4.582  11.910   2.829
17381SOL     OW53974   0.002   7.734  10.014
17381SOL    HW153975  14.814   7.764   9.946
17381SOL    HW253976  14.858   7.640  10.021
17382SOL     OW53977  13.387  13.051   8.029
17382SOL    HW153978  13.300  13.029   8.062
17382SOL    HW253979  13.431  12.967   8.018
17383SOL     OW53980   0.095   4.538   3.551
17383SOL    HW153981   0.104   4.567   3.460
17383SOL    HW253982   0.001   4.542   3.568
17384SOL     OW53983  13.583  11.415  12.262
17384SOL    HW153984  13.562  11.496  12.217
17384SOL    HW253985  13.631  11.444  12.340
17385SOL     OW53986   0.461  12.701  14.021
17385SOL    HW153987   0.449  12.679  14.114
17385SOL    HW253988   0.387  12.660  13.977
17386SOL     OW53989  12.741  10.941   3.579
17386SOL    HW153990  12.792  10.974   3.653
17386SOL    HW253991  12.805  10.933   3.508
17387SOL     OW53992   5.573   6.776   3.457
17387SOL    HW153993   5.661   6.772   3.420
17387SOL    HW253994   5.524   6.709   3.410
17388SOL     OW53995  12.713  11.889   8.883
17388SOL    HW153996  12.791  11.868   8.934
17388SOL    HW253997  12.668  11.805   8.872
17389SOL     OW53998   1.921  11.187   8.461
17389SOL    HW153999   1.887  11.113   8.511
17389SOL    HW254000   1.843  11.234   8.431
17390SOL     OW54001   8.142   3.138  13.620
17390SOL    HW154002   8.048   3.152  13.622
17390SOL    HW254003   8.158   3.084  13.542
17391SOL     OW54004   4.752   2.686   2.285
17391SOL    HW154005   4.709   2.601   2.286
17391SOL    HW254006   4.808   2.686   2.363
17392SOL     OW54007   2.422  14.495   2.564
17392SOL    HW154008   2.516  14.502   2.554
17392SOL    HW254009   2.386  14.551   2.495
17393SOL     OW54010   6.747   8.055   0.884
17393SOL    HW154011   6.719   8.079   0.972
17393SOL    HW254012   6.694   8.110   0.826
17394SOL     OW54013   7.194   6.622  11.808
17394SOL    HW154014   7.176   6.644  11.717
17394SOL    HW254015   7.110   6.628  11.852
17395SOL     OW54016  12.258   2.991   0.228
17395SOL    HW154017  12.216   3.076   0.239
17395SOL    HW254018  12.348   3.012   0.204
17396SOL     OW54019  14.865   7.704   0.511
17396SOL    HW154020   0.069   7.689   0.456
17396SOL    HW254021  14.794   7.656   0.468
17397SOL     OW54022  11.286   6.405   5.718
17397SOL    HW154023  11.333   6.473   5.669
17397SOL    HW254024  11.193   6.423   5.700
17398SOL     OW54025   8.533  12.391   7.895
17398SOL    HW154026   8.615  12.417   7.937
17398SOL    HW254027   8.555  12.313   7.845
17399SOL     OW54028  10.927   2.278   8.314
17399SOL    HW154029  10.958   2.312   8.398
17399SOL    HW254030  10.836   2.252   8.331
17400SOL     OW54031   9.917   6.323   3.121
17400SOL    HW154032   9.874   6.320   3.207
17400SOL    HW254033   9.903   6.413   3.091
17401SOL     OW54034   4.881   3.006   1.274
17401SOL    HW154035   4.892   2.962   1.359
17401SOL    HW254036   4.833   2.942   1.221
17402SOL     OW54037   7.184   7.023   2.121
17402SOL    HW154038   7.091   7.000   2.114
17402SOL    HW254039   7.211   7.040   2.031
17403SOL     OW54040  12.570   9.010   6.040
17403SOL    HW154041  12.591   9.094   6.000
17403SOL    HW254042  12.548   8.953   5.967
17404SOL     OW54043   7.707  11.095  14.726
17404SOL    HW154044   7.660  11.066  14.804
17404SOL    HW254045   7.710  11.190  14.734
17405SOL     OW54046   3.540   2.544   6.823
17405SOL    HW154047   3.476   2.590   6.877
17405SOL    HW254048   3.488   2.505   6.752
17406SOL     OW54049   1.046  11.321   7.779
17406SOL    HW154050   1.019  11.232   7.757
17406SOL    HW254051   1.045  11.367   7.695
17407SOL     OW54052   9.198  13.192   9.104
17407SOL    HW154053   9.175  13.125   9.168
17407SOL    HW254054   9.201  13.274   9.154
17408SOL     OW54055  13.095   0.447   4.458
17408SOL    HW154056  13.090   0.542   4.460
17408SOL    HW254057  13.007   0.418   4.482
17409SOL     OW54058  10.658   6.794  12.517
17409SOL    HW154059  10.732   6.738  12.491
17409SOL    HW254060  10.671   6.875  12.469
17410SOL     OW54061   9.862  13.207   8.187
17410SOL    HW154062   9.820  13.138   8.135
17410SOL    HW254063   9.790  13.266   8.211
17411SOL     OW54064   9.323  14.662  13.758
17411SOL    HW154065   9.405  14.659  13.808
17411SOL    HW254066   9.350  14.674  13.667
17412SOL     OW54067  10.384   5.138  13.959
17412SOL    HW154068  10.470   5.119  13.922
17412SOL    HW254069  10.392   5.226  13.996
17413SOL     OW54070   1.217   8.898   6.634
17413SOL    HW154071   1.206   8.808   6.604
17413SOL    HW254072   1.181   8.899   6.723
17414SOL     OW54073   5.987   2.274   4.241
17414SOL    HW154074   5.936   2.203   4.203
17414SOL    HW254075   5.943   2.354   4.212
17415SOL     OW54076  10.135  11.522  13.612
17415SOL    HW154077  10.159  11.614  13.601
17415SOL    HW254078  10.116  11.492  13.523
17416SOL     OW54079  11.844  12.948   6.503
17416SOL    HW154080  11.762  12.952   6.454
17416SOL    HW254081  11.818  12.955   6.595
17417SOL     OW54082   3.233  13.538   2.883
17417SOL    HW154083   3.293  13.609   2.860
17417SOL    HW254084   3.197  13.509   2.799
17418SOL     OW54085   3.077   8.435   7.661
17418SOL    HW154086   2.998   8.389   7.634
17418SOL    HW254087   3.058   8.466   7.749
17419SOL     OW54088  14.076   6.385   1.452
17419SOL    HW154089  14.052   6.428   1.534
17419SOL    HW254090  14.100   6.457   1.393
17420SOL     OW54091   7.854   4.457   8.263
17420SOL    HW154092   7.778   4.450   8.320
17420SOL    HW254093   7.899   4.373   8.272
17421SOL     OW54094  14.673   5.448   3.029
17421SOL    HW154095  14.671   5.461   2.934
17421SOL    HW254096  14.662   5.536   3.065
17422SOL     OW54097  14.759   0.834   7.053
17422SOL    HW154098  14.729   0.848   6.963
17422SOL    HW254099  14.692   0.778   7.092
17423SOL     OW54100   0.030  11.565   6.958
17423SOL    HW154101   0.052  11.649   6.998
17423SOL    HW254102   0.000  11.588   6.870
17424SOL     OW54103   1.601   7.283   0.525
17424SOL    HW154104   1.657   7.265   0.601
17424SOL    HW254105   1.522   7.322   0.563
17425SOL     OW54106   0.794  14.689   6.809
17425SOL    HW154107   0.758  14.732   6.887
17425SOL    HW254108   0.749  14.730   6.736
17426SOL     OW54109   3.079   4.763   5.233
17426SOL    HW154110   3.065   4.755   5.139
17426SOL    HW254111   2.993   4.788   5.268
17427SOL     OW54112  12.844   5.400  14.123
17427SOL    HW154113  12.803   5.445  14.049
17427SOL    HW254114  12.937   5.417  14.112
17428SOL     OW54115   6.190  10.032   2.036
17428SOL    HW154116   6.254  10.011   1.968
17428SOL    HW254117   6.209  10.122   2.060
17429SOL     OW54118  13.088   5.532  13.461
17429SOL    HW154119  13.036   5.481  13.523
17429SOL    HW254120  13.083   5.622  13.493
17430SOL     OW54121  11.014  10.264   6.880
17430SOL    HW154122  11.030  10.182   6.833
17430SOL    HW254123  10.919  10.274   6.877
17431SOL     OW54124   3.549   0.597   2.600
17431SOL    HW154125   3.486   0.637   2.539
17431SOL    HW254126   3.569   0.667   2.662
17432SOL     OW54127  11.287  14.391  10.995
17432SOL    HW154128  11.225  14.336  11.043
17432SOL    HW254129  11.357  14.409  11.057
17433SOL     OW54130  11.605   9.657   9.449
17433SOL    HW154131  11.549   9.628   9.377
17433SOL    HW254132  11.543   9.683   9.518
17434SOL     OW54133  14.093   0.474   1.382
17434SOL    HW154134  14.142   0.452   1.461
17434SOL    HW254135  14.143   0.435   1.311
17435SOL     OW54136   9.622   8.605   2.164
17435SOL    HW154137   9.715   8.628   2.166
17435SOL    HW254138   9.616   8.526   2.218
17436SOL     OW54139  10.421   2.096  13.120
17436SOL    HW154140  10.442   2.183  13.153
17436SOL    HW254141  10.429   2.103  13.025
17437SOL     OW54142   6.793   9.967   5.891
17437SOL    HW154143   6.724   9.914   5.932
17437SOL    HW254144   6.804  10.041   5.951
17438SOL     OW54145   5.744  11.411  14.019
17438SOL    HW154146   5.758  11.318  14.034
17438SOL    HW254147   5.823  11.441  13.975
17439SOL     OW54148   3.849  11.143  11.123
17439SOL    HW154149   3.877  11.103  11.040
17439SOL    HW254150   3.767  11.098  11.145
17440SOL     OW54151  12.937  10.199   0.874
17440SOL    HW154152  13.007  10.133   0.875
17440SOL    HW254153  12.978  10.276   0.835
17441SOL     OW54154  12.049   0.861   2.511
17441SOL    HW154155  11.982   0.895   2.453
17441SOL    HW254156  12.001   0.830   2.588
17442SOL     OW54157  13.867  12.376   6.380
17442SOL    HW154158  13.940  12.324   6.413
17442SOL    HW254159  13.791  12.346   6.430
17443SOL     OW54160   5.397  12.066   8.097
17443SOL    HW154161   5.381  12.075   8.190
17443SOL    HW254162   5.314  12.089   8.055
17444SOL     OW54163  12.959   7.332   5.397
17444SOL    HW154164  12.878   7.335   5.347
17444SOL    HW254165  12.995   7.421   5.392
17445SOL     OW54166   7.926  10.901   3.370
17445SOL    HW154167   7.956  10.918   3.459
17445SOL    HW254168   7.944  10.809   3.354
17446SOL     OW54169   0.242   5.315  11.292
17446SOL    HW154170   0.258   5.251  11.362
17446SOL    HW254171   0.307   5.384  11.307
17447SOL     OW54172   6.365   0.952   5.566
17447SOL    HW154173   6.365   1.009   5.643
17447SOL    HW254174   6.338   0.866   5.599
17448SOL     OW54175   1.607  14.130  12.987
17448SOL    HW154176   1.640  14.138  12.898
17448SOL    HW254177   1.685  14.120  13.041
17449SOL     OW54178   9.699   4.867  11.322
17449SOL    HW154179   9.718   4.825  11.406
17449SOL    HW254180   9.608   4.842  11.302
17450SOL     OW54181   4.376   9.783  10.125
17450SOL    HW154182   4.463   9.815  10.100
17450SOL    HW254183   4.386   9.688  10.133
17451SOL     OW54184   6.557  13.873  13.516
17451SOL    HW154185   6.518  13.787  13.500
17451SOL    HW254186   6.531  13.926  13.441
17452SOL     OW54187   5.977  11.518  13.862
17452SOL    HW154188   5.935  11.601  13.838
17452SOL    HW254189   6.038  11.541  13.931
17453SOL     OW54190   1.026  14.179   2.482
17453SOL    HW154191   1.004  14.201   2.573
17453SOL    HW254192   0.979  14.243   2.430
17454SOL     OW54193   3.623  14.708   3.621
17454SOL    HW154194   3.632  14.619   3.657
17454SOL    HW254195   3.711  14.730   3.590
17455SOL     OW54196   3.634   7.051  13.753
17455SOL    HW154197   3.643   6.968  13.707
17455SOL    HW254198   3.698   7.109  13.710
17456SOL     OW54199   5.065   2.563   8.977
17456SOL    HW154200   5.064   2.592   8.886
17456SOL    HW254201   5.153   2.582   9.007
17457SOL     OW54202   7.680   1.669  14.590
17457SOL    HW154203   7.649   1.751  14.631
17457SOL    HW254204   7.604   1.636  14.544
17458SOL     OW54205   6.343  14.382   1.286
17458SOL    HW154206   6.362  14.399   1.378
17458SOL    HW254207   6.370  14.291   1.273
17459SOL     OW54208   6.493  11.203   9.466
17459SOL    HW154209   6.536  11.217   9.381
17459SOL    HW254210   6.417  11.149   9.445
17460SOL     OW54211   3.054   4.085  12.192
17460SOL    HW154212   3.143   4.049  12.198
17460SOL    HW254213   2.996   4.010  12.201
17461SOL     OW54214   0.277   1.791   5.642
17461SOL    HW154215   0.344   1.732   5.606
17461SOL    HW254216   0.276   1.865   5.582
17462SOL     OW54217   5.865   8.312  12.276
17462SOL    HW154218   5.839   8.360  12.355
17462SOL    HW254219   5.794   8.330  12.213
17463SOL     OW54220   0.265   9.517   8.818
17463SOL    HW154221   0.303   9.499   8.904
17463SOL    HW254222   0.241   9.609   8.821
17464SOL     OW54223   4.075   8.060  14.307
17464SOL    HW154224   4.146   7.997  14.316
17464SOL    HW254225   3.998   8.013  14.340
17465SOL     OW54226   6.260   1.092  12.915
17465SOL    HW154227   6.173   1.121  12.942
17465SOL    HW254228   6.272   1.007  12.957
17466SOL     OW54229   3.073  11.746   9.673
17466SOL    HW154230   3.074  11.651   9.662
17466SOL    HW254231   2.988  11.764   9.714
17467SOL     OW54232   2.770   4.800  14.455
17467SOL    HW154233   2.804   4.882  14.418
17467SOL    HW254234   2.679   4.796  14.427
17468SOL     OW54235  10.145   2.873   9.428
17468SOL    HW154236  10.189   2.869   9.513
17468SOL    HW254237  10.157   2.785   9.392
17469SOL     OW54238   3.934   1.997   2.173
17469SOL    HW154239   3.870   2.019   2.240
17469SOL    HW254240   3.949   1.903   2.183
17470SOL     OW54241  14.394   6.423  14.604
17470SOL    HW154242  14.469   6.421  14.544
17470SOL    HW254243  14.342   6.498  14.574
17471SOL     OW54244   9.544   8.819   1.826
17471SOL    HW154245   9.532   8.790   1.735
17471SOL    HW254246   9.599   8.897   1.819
17472SOL     OW54247   1.695  14.661  12.679
17472SOL    HW154248   1.635  14.616  12.739
17472SOL    HW254249   1.649  14.663  12.595
17473SOL     OW54250  14.334  10.768  11.781
17473SOL    HW154251  14.395  10.785  11.853
17473SOL    HW254252  14.251  10.749  11.823
17474SOL     OW54253  13.446  13.360   1.762
17474SOL    HW154254  13.359  13.342   1.798
17474SOL    HW254255  13.430  13.396   1.675
17475SOL     OW54256   0.707   3.461   4.933
17475SOL    HW154257   0.640   3.496   4.991
17475SOL    HW254258   0.706   3.519   4.857
17476SOL     OW54259  13.925  10.891  12.638
17476SOL    HW154260  13.990  10.926  12.699
17476SOL    HW254261  13.876  10.968  12.609
17477SOL     OW54262   7.138   4.601   8.838
17477SOL    HW154263   7.198   4.654   8.891
17477SOL    HW254264   7.156   4.628   8.748
17478SOL     OW54265   1.837  11.866   9.335
17478SOL    HW154266   1.762  11.920   9.361
17478SOL    HW254267   1.825  11.785   9.384
17479SOL     OW54268   6.557   7.819   6.465
17479SOL    HW154269   6.469   7.821   6.428
17479SOL    HW254270   6.556   7.746   6.527
17480SOL     OW54271   6.814  10.610   2.096
17480SOL    HW154272   6.793  10.528   2.053
17480SOL    HW254273   6.803  10.592   2.190
17481SOL     OW54274  12.867   8.639  10.561
17481SOL    HW154275  12.887   8.558  10.607
17481SOL    HW254276  12.857   8.705  10.630
17482SOL     OW54277   1.253   1.441   0.926
17482SOL    HW154278   1.162   1.460   0.947
17482SOL    HW254279   1.271   1.488   0.845
17483SOL     OW54280  14.827   8.923   4.542
17483SOL    HW154281  14.832   8.927   4.446
17483SOL    HW254282  14.743   8.882   4.559
17484SOL     OW54283   0.188   2.506   1.517
17484SOL    HW154284   0.116   2.562   1.546
17484SOL    HW254285   0.254   2.513   1.587
17485SOL     OW54286   5.887   4.119   2.809
17485SOL    HW154287   5.807   4.074   2.783
17485SOL    HW254288   5.932   4.058   2.867
17486SOL     OW54289   2.401  12.940   5.944
17486SOL    HW154290   2.308  12.945   5.921
17486SOL    HW254291   2.436  12.871   5.888
17487SOL     OW54292  12.497   4.955   4.145
17487SOL    HW154293  12.497   4.887   4.078
17487SOL    HW254294  12.506   5.037   4.097
17488SOL     OW54295   9.355   6.253  14.755
17488SOL    HW154296   9.354   6.327  14.816
17488SOL    HW254297   9.279   6.201  14.780
17489SOL     OW54298   9.767   3.123   0.074
17489SOL    HW154299   9.781   3.214   0.101
17489SOL    HW254300   9.798   3.070   0.147
17490SOL     OW54301   9.930  11.340   7.613
17490SOL    HW154302   9.997  11.343   7.544
17490SOL    HW254303   9.848  11.360   7.568
17491SOL     OW54304   4.968   0.083   9.996
17491SOL    HW154305   4.917   0.149   9.949
17491SOL    HW254306   5.051   0.126  10.015
17492SOL     OW54307  10.709  11.823   4.764
17492SOL    HW154308  10.717  11.742   4.713
17492SOL    HW254309  10.701  11.892   4.698
17493SOL     OW54310   0.486   8.032  10.339
17493SOL    HW154311   0.542   8.067  10.408
17493SOL    HW254312   0.424   8.102  10.321
17494SOL     OW54313   5.450   4.856   5.162
17494SOL    HW154314   5.474   4.948   5.175
17494SOL    HW254315   5.507   4.826   5.091
17495SOL     OW54316   7.026  11.261   7.225
17495SOL    HW154317   7.044  11.354   7.235
17495SOL    HW254318   7.078  11.219   7.294
17496SOL     OW54319   4.236  14.055   1.944
17496SOL    HW154320   4.258  14.052   2.037
17496SOL    HW254321   4.143  14.077   1.942
17497SOL     OW54322  10.592   7.568   1.130
17497SOL    HW154323  10.681   7.579   1.164
17497SOL    HW254324  10.605   7.544   1.038
17498SOL     OW54325  13.271   4.487   0.137
17498SOL    HW154326  13.225   4.419   0.186
17498SOL    HW254327  13.225   4.492   0.054
17499SOL     OW54328   5.948   2.435   8.758
17499SOL    HW154329   5.931   2.478   8.842
17499SOL    HW254330   5.862   2.408   8.727
17500SOL     OW54331  14.297   0.809  10.479
17500SOL    HW154332  14.336   0.854  10.554
17500SOL    HW254333  14.247   0.876  10.434
17501SOL     OW54334  13.741   9.773   3.932
17501SOL    HW154335  13.666   9.787   3.990
17501SOL    HW254336  13.703   9.736   3.852
17502SOL     OW54337   1.275   4.192   4.001
17502SOL    HW154338   1.272   4.115   4.059
17502SOL    HW254339   1.230   4.260   4.050
17503SOL     OW54340   7.640  13.088  10.068
17503SOL    HW154341   7.676  13.028  10.002
17503SOL    HW254342   7.564  13.042  10.104
17504SOL     OW54343  14.180   8.749  13.024
17504SOL    HW154344  14.255   8.726  12.970
17504SOL    HW254345  14.189   8.694  13.102
17505SOL     OW54346   5.239  10.870   7.792
17505SOL    HW154347   5.279  10.869   7.705
17505SOL    HW254348   5.155  10.825   7.780
17506SOL     OW54349  11.450   5.287  10.035
17506SOL    HW154350  11.373   5.270   9.980
17506SOL    HW254351  11.425   5.254  10.122
17507SOL     OW54352   6.927  14.434   9.592
17507SOL    HW154353   6.984  14.371   9.547
17507SOL    HW254354   6.895  14.388   9.669
17508SOL     OW54355   7.029   5.466  10.392
17508SOL    HW154356   7.071   5.551  10.403
17508SOL    HW254357   7.076   5.408  10.452
17509SOL     OW54358   4.355  14.528   6.461
17509SOL    HW154359   4.349  14.561   6.551
17509SOL    HW254360   4.266  14.536   6.426
17510SOL     OW54361   5.094  10.768  10.401
17510SOL    HW154362   5.010  10.812  10.389
17510SOL    HW254363   5.154  10.837  10.428
17511SOL     OW54364  11.851   8.266   1.020
17511SOL    HW154365  11.858   8.331   0.950
17511SOL    HW254366  11.790   8.305   1.082
17512SOL     OW54367   9.210   7.626  11.294
17512SOL    HW154368   9.214   7.719  11.272
17512SOL    HW254369   9.272   7.615  11.366
17513SOL     OW54370  14.748   0.299  13.328
17513SOL    HW154371  14.789   0.377  13.367
17513SOL    HW254372  14.798   0.226  13.362
17514SOL     OW54373  10.452   0.906  11.242
17514SOL    HW154374  10.454   0.812  11.223
17514SOL    HW254375  10.443   0.947  11.156
17515SOL     OW54376  10.161  10.955   9.363
17515SOL    HW154377  10.183  10.862   9.367
17515SOL    HW254378  10.162  10.984   9.454
17516SOL     OW54379   1.060   0.405   8.468
17516SOL    HW154380   1.062   0.483   8.524
17516SOL    HW254381   1.041   0.439   8.381
17517SOL     OW54382   5.888  13.559   2.784
17517SOL    HW154383   5.977  13.542   2.814
17517SOL    HW254384   5.882  13.655   2.780
17518SOL     OW54385   4.272   8.955   9.163
17518SOL    HW154386   4.334   8.989   9.098
17518SOL    HW254387   4.190   9.001   9.143
17519SOL     OW54388   1.527  11.008   1.362
17519SOL    HW154389   1.457  11.072   1.374
17519SOL    HW254390   1.573  11.037   1.283
17520SOL     OW54391   9.218   1.884  11.397
17520SOL    HW154392   9.132   1.903  11.360
17520SOL    HW254393   9.276   1.875  11.321
17521SOL     OW54394   5.624   0.289  10.487
17521SOL    HW154395   5.595   0.284  10.396
17521SOL    HW254396   5.566   0.354  10.528
17522SOL     OW54397  13.676   4.400   3.410
17522SOL    HW154398  13.615   4.472   3.398
17522SOL    HW254399  13.674   4.382   3.504
17523SOL     OW54400   5.857   6.321   8.729
17523SOL    HW154401   5.842   6.412   8.753
17523SOL    HW254402   5.930   6.324   8.668
17524SOL     OW54403   6.879  11.584  10.237
17524SOL    HW154404   6.832  11.510  10.200
17524SOL    HW254405   6.934  11.616  10.164
17525SOL     OW54406  14.439  12.815  10.348
17525SOL    HW154407  14.352  12.804  10.386
17525SOL    HW254408  14.460  12.907  10.364
17526SOL     OW54409   3.103  12.138   9.615
17526SOL    HW154410   3.189  12.105   9.591
17526SOL    HW254411   3.050  12.129   9.536
17527SOL     OW54412   0.916   3.958   7.127
17527SOL    HW154413   0.890   3.936   7.037
17527SOL    HW254414   0.840   4.003   7.164
17528SOL     OW54415   8.793  12.450   5.139
17528SOL    HW154416   8.833  12.458   5.225
17528SOL    HW254417   8.865  12.467   5.078
17529SOL     OW54418   6.471  10.480  12.772
17529SOL    HW154419   6.398  10.435  12.814
17529SOL    HW254420   6.549  10.435  12.805
17530SOL     OW54421   0.305  12.371  11.127
17530SOL    HW154422   0.376  12.308  11.113
17530SOL    HW254423   0.263  12.380  11.042
17531SOL     OW54424   0.376  13.926   1.957
17531SOL    HW154425   0.374  13.975   1.874
17531SOL    HW254426   0.428  13.980   2.016
17532SOL     OW54427  10.512  13.209   0.253
17532SOL    HW154428  10.558  13.268   0.313
17532SOL    HW254429  10.483  13.267   0.181
17533SOL     OW54430  14.342   2.800  12.165
17533SOL    HW154431  14.260   2.833  12.202
17533SOL    HW254432  14.351   2.712  12.201
17534SOL     OW54433   2.168   4.460  12.591
17534SOL    HW154434   2.171   4.372  12.552
17534SOL    HW254435   2.083   4.495  12.566
17535SOL     OW54436   1.413   8.867   5.369
17535SOL    HW154437   1.483   8.841   5.427
17535SOL    HW254438   1.407   8.797   5.305
17536SOL     OW54439  11.692   3.037   9.066
17536SOL    HW154440  11.602   3.055   9.095
17536SOL    HW254441  11.689   2.949   9.029
17537SOL     OW54442  14.777   3.769  14.360
17537SOL    HW154443  14.683   3.766  14.343
17537SOL    HW254444  14.817   3.787  14.274
17538SOL     OW54445  10.612   7.128   3.854
17538SOL    HW154446  10.559   7.197   3.895
17538SOL    HW254447  10.551   7.055   3.844
17539SOL     OW54448   4.486  13.239   6.982
17539SOL    HW154449   4.392  13.231   6.970
17539SOL    HW254450   4.503  13.197   7.066
17540SOL     OW54451   1.908  12.078   1.660
17540SOL    HW154452   1.950  12.146   1.714
17540SOL    HW254453   1.898  12.003   1.719
17541SOL     OW54454   1.739   6.563  13.650
17541SOL    HW154455   1.776   6.539  13.565
17541SOL    HW254456   1.755   6.487  13.705
17542SOL     OW54457   6.897   5.831  12.090
17542SOL    HW154458   6.841   5.872  12.156
17542SOL    HW254459   6.969   5.793  12.141
17543SOL     OW54460   1.232   9.630   3.344
17543SOL    HW154461   1.151   9.608   3.389
17543SOL    HW254462   1.287   9.670   3.412
17544SOL     OW54463  10.728   9.315  10.219
17544SOL    HW154464  10.705   9.226  10.192
17544SOL    HW254465  10.739   9.363  10.138
17545SOL     OW54466  13.632   9.368   2.084
17545SOL    HW154467  13.566   9.354   2.016
17545SOL    HW254468  13.641   9.283   2.127
17546SOL     OW54469  10.568   0.071   3.940
17546SOL    HW154470  10.545   0.066   4.033
17546SOL    HW254471  10.496   0.028   3.895
17547SOL     OW54472   1.897  13.969   3.313
17547SOL    HW154473   1.846  13.960   3.233
17547SOL    HW254474   1.956  13.893   3.312
17548SOL     OW54475   3.950   6.829   1.259
17548SOL    HW154476   4.027   6.863   1.213
17548SOL    HW254477   3.883   6.822   1.191
17549SOL     OW54478   0.075   6.577  11.991
17549SOL    HW154479   0.007   6.579  12.058
17549SOL    HW254480   0.052   6.502  11.936
17550SOL     OW54481   0.380  12.911   8.383
17550SOL    HW154482   0.370  12.879   8.293
17550SOL    HW254483   0.332  12.848   8.436
17551SOL     OW54484   7.585   8.113   6.649
17551SOL    HW154485   7.559   8.021   6.648
17551SOL    HW254486   7.680   8.111   6.643
17552SOL     OW54487   6.653   5.649   3.685
17552SOL    HW154488   6.613   5.562   3.685
17552SOL    HW254489   6.581   5.708   3.659
17553SOL     OW54490   5.420  13.457   6.484
17553SOL    HW154491   5.446  13.475   6.574
17553SOL    HW254492   5.417  13.543   6.442
17554SOL     OW54493  10.125   9.585   5.677
17554SOL    HW154494  10.213   9.602   5.713
17554SOL    HW254495  10.127   9.622   5.589
17555SOL     OW54496   4.379  12.734  10.127
17555SOL    HW154497   4.465  12.714  10.163
17555SOL    HW254498   4.337  12.649  10.115
17556SOL     OW54499   2.699  11.522   1.665
17556SOL    HW154500   2.702  11.507   1.571
17556SOL    HW254501   2.788  11.546   1.689
17557SOL     OW54502   3.215   1.051   8.117
17557SOL    HW154503   3.239   0.990   8.187
17557SOL    HW254504   3.175   1.125   8.162
17558SOL     OW54505  13.515   6.443  14.149
17558SOL    HW154506  13.492   6.461  14.058
17558SOL    HW254507  13.433   6.418  14.191
17559SOL     OW54508   5.461   6.132   1.232
17559SOL    HW154509   5.376   6.124   1.190
17559SOL    HW254510   5.482   6.225   1.225
17560SOL     OW54511   5.484   6.160   9.721
17560SOL    HW154512   5.551   6.227   9.737
17560SOL    HW254513   5.509   6.120   9.638
17561SOL     OW54514  13.895   7.069   6.978
17561SOL    HW154515  13.943   7.146   7.010
17561SOL    HW254516  13.826   7.106   6.923
17562SOL     OW54517   1.456   1.240  10.232
17562SOL    HW154518   1.390   1.213  10.296
17562SOL    HW254519   1.432   1.329  10.208
17563SOL     OW54520   3.086  14.150  14.583
17563SOL    HW154521   3.175  14.175  14.610
17563SOL    HW254522   3.029  14.194  14.646
17564SOL     OW54523   4.783   5.116   8.089
17564SOL    HW154524   4.697   5.075   8.097
17564SOL    HW254525   4.767   5.208   8.109
17565SOL     OW54526  12.105   5.880  13.842
17565SOL    HW154527  12.024   5.830  13.840
17565SOL    HW254528  12.092   5.943  13.912
17566SOL     OW54529   0.213   1.089   0.924
17566SOL    HW154530   0.236   1.027   0.993
17566SOL    HW254531   0.156   1.039   0.865
17567SOL     OW54532  11.674  10.669   2.093
17567SOL    HW154533  11.704  10.615   2.165
17567SOL    HW254534  11.620  10.737   2.134
17568SOL     OW54535   5.194  12.897   5.963
17568SOL    HW154536   5.258  12.832   5.991
17568SOL    HW254537   5.137  12.850   5.902
17569SOL     OW54538  11.289   5.480  10.351
17569SOL    HW154539  11.353   5.551  10.350
17569SOL    HW254540  11.218   5.513  10.406
17570SOL     OW54541   2.601   4.935  10.319
17570SOL    HW154542   2.643   4.947  10.404
17570SOL    HW254543   2.511   4.910  10.341
17571SOL     OW54544  10.216   0.761  12.546
17571SOL    HW154545  10.253   0.818  12.613
17571SOL    HW254546  10.231   0.673  12.580
17572SOL     OW54547   3.008   7.006   9.498
17572SOL    HW154548   3.079   6.972   9.553
17572SOL    HW254549   2.939   6.940   9.505
17573SOL     OW54550  11.664   7.285  12.409
17573SOL    HW154551  11.706   7.270  12.494
17573SOL    HW254552  11.703   7.220  12.351
17574SOL     OW54553  11.768   0.254   5.889
17574SOL    HW154554  11.788   0.181   5.830
17574SOL    HW254555  11.683   0.285   5.860
17575SOL     OW54556  11.492   8.621   7.489
17575SOL    HW154557  11.516   8.688   7.425
17575SOL    HW254558  11.524   8.539   7.452
17576SOL     OW54559  12.672   4.571  11.301
17576SOL    HW154560  12.699   4.641  11.241
17576SOL    HW254561  12.634   4.504  11.244
17577SOL     OW54562   2.668   6.189  14.850
17577SOL    HW154563   2.577   6.164  14.833
17577SOL    HW254564   2.661   6.262   0.040
17578SOL     OW54565   7.217   8.347  12.264
17578SOL    HW154566   7.189   8.288  12.194
17578SOL    HW254567   7.198   8.435  12.231
17579SOL     OW54568   0.830  10.280   4.927
17579SOL    HW154569   0.755  10.315   4.878
17579SOL    HW254570   0.867  10.213   4.869
17580SOL     OW54571   5.907  13.920   0.566
17580SOL    HW154572   5.928  13.867   0.643
17580SOL    HW254573   5.987  13.920   0.515
17581SOL     OW54574   6.086  10.643   5.108
17581SOL    HW154575   6.051  10.554   5.118
17581SOL    HW254576   6.141  10.655   5.186
17582SOL     OW54577   7.971  12.951   7.556
17582SOL    HW154578   7.946  12.960   7.464
17582SOL    HW254579   7.894  12.978   7.605
17583SOL     OW54580   0.656   0.637   2.834
17583SOL    HW154581   0.635   0.547   2.809
17583SOL    HW254582   0.591   0.659   2.901
17584SOL     OW54583   5.649  14.864  13.934
17584SOL    HW154584   5.739   0.003  13.906
17584SOL    HW254585   5.648   0.023  14.025
17585SOL     OW54586   1.456   1.659   5.177
17585SOL    HW154587   1.422   1.712   5.249
17585SOL    HW254588   1.422   1.571   5.194
17586SOL     OW54589  11.129   4.874   3.378
17586SOL    HW154590  11.149   4.931   3.452
17586SOL    HW254591  11.108   4.935   3.307
17587SOL     OW54592   4.848   4.606   9.580
17587SOL    HW154593   4.811   4.555   9.653
17587SOL    HW254594   4.863   4.541   9.511
17588SOL     OW54595   2.477   6.367   0.895
17588SOL    HW154596   2.567   6.400   0.890
17588SOL    HW254597   2.426   6.429   0.845
17589SOL     OW54598   2.020   4.775   7.313
17589SOL    HW154599   2.069   4.693   7.323
17589SOL    HW254600   1.944   4.750   7.260
17590SOL     OW54601  11.698   6.718   1.868
17590SOL    HW154602  11.655   6.787   1.817
17590SOL    HW254603  11.679   6.637   1.819
17591SOL     OW54604  14.214  14.639   0.961
17591SOL    HW154605  14.241  14.710   0.903
17591SOL    HW254606  14.273  14.567   0.940
17592SOL     OW54607  10.527   8.154  13.221
17592SOL    HW154608  10.494   8.244  13.212
17592SOL    HW254609  10.543   8.125  13.131
17593SOL     OW54610  12.456  10.924   5.971
17593SOL    HW154611  12.450  11.003   6.025
17593SOL    HW254612  12.507  10.863   6.022
17594SOL     OW54613   3.573   3.879   5.008
17594SOL    HW154614   3.628   3.936   5.061
17594SOL    HW254615   3.593   3.791   5.040
17595SOL     OW54616  13.933   1.172  10.402
17595SOL    HW154617  13.859   1.166  10.463
17595SOL    HW254618  13.893   1.195  10.318
17596SOL     OW54619   6.772   0.457   9.328
17596SOL    HW154620   6.690   0.468   9.280
17596SOL    HW254621   6.815   0.383   9.286
17597SOL     OW54622  12.456  11.943   9.038
17597SOL    HW154623  12.520  11.885   8.998
17597SOL    HW254624  12.489  11.959   9.126
17598SOL     OW54625   6.363   7.810   7.283
17598SOL    HW154626   6.454   7.785   7.299
17598SOL    HW254627   6.335   7.751   7.212
17599SOL     OW54628   0.179  11.025   3.625
17599SOL    HW154629   0.245  11.086   3.660
17599SOL    HW254630   0.104  11.035   3.684
17600SOL     OW54631   2.525   8.070   1.222
17600SOL    HW154632   2.456   8.116   1.270
17600SOL    HW254633   2.561   8.008   1.285
17601SOL     OW54634  13.799   5.861   8.836
17601SOL    HW154635  13.800   5.955   8.820
17601SOL    HW254636  13.727   5.849   8.898
17602SOL     OW54637   1.151   2.769  14.850
17602SOL    HW154638   1.055   2.774  14.848
17602SOL    HW254639   1.170   2.675  14.839
17603SOL     OW54640  13.343   8.400   0.029
17603SOL    HW154641  13.310   8.487   0.050
17603SOL    HW254642  13.355   8.402  14.806
17604SOL     OW54643  14.704  10.961   1.001
17604SOL    HW154644  14.732  11.041   1.046
17604SOL    HW254645  14.753  10.891   1.044
17605SOL     OW54646   8.524   8.170   1.495
17605SOL    HW154647   8.512   8.181   1.401
17605SOL    HW254648   8.443   8.203   1.534
17606SOL     OW54649  12.429  14.248  14.696
17606SOL    HW154650  12.382  14.209  14.769
17606SOL    HW254651  12.497  14.302  14.737
17607SOL     OW54652   0.926   1.457   4.328
17607SOL    HW154653   0.943   1.521   4.259
17607SOL    HW254654   0.968   1.376   4.299
17608SOL     OW54655   7.128   9.967   6.697
17608SOL    HW154656   7.148  10.058   6.719
17608SOL    HW254657   7.118   9.923   6.782
17609SOL     OW54658  13.620  14.081   3.992
17609SOL    HW154659  13.709  14.056   3.965
17609SOL    HW254660  13.610  14.044   4.080
17610SOL     OW54661  12.626   9.583  11.023
17610SOL    HW154662  12.680   9.563  11.099
17610SOL    HW254663  12.587   9.669  11.043
17611SOL     OW54664  12.584   1.014   0.437
17611SOL    HW154665  12.651   0.980   0.497
17611SOL    HW254666  12.503   0.972   0.465
17612SOL     OW54667  12.224   5.260   8.613
17612SOL    HW154668  12.225   5.243   8.519
17612SOL    HW254669  12.315   5.253   8.640
17613SOL     OW54670   3.395   0.087   0.087
17613SOL    HW154671   3.417   0.136   0.008
17613SOL    HW254672   3.318   0.034   0.061
17614SOL     OW54673   6.033   9.288   1.314
17614SOL    HW154674   6.025   9.332   1.398
17614SOL    HW254675   6.096   9.341   1.265
17615SOL     OW54676  13.675   5.693   7.687
17615SOL    HW154677  13.632   5.679   7.603
17615SOL    HW254678  13.662   5.785   7.707
17616SOL     OW54679   6.754  11.969   0.298
17616SOL    HW154680   6.687  11.924   0.246
17616SOL    HW254681   6.827  11.982   0.238
17617SOL     OW54682   9.489  13.436   1.902
17617SOL    HW154683   9.419  13.446   1.838
17617SOL    HW254684   9.566  13.411   1.851
17618SOL     OW54685  10.761  11.013   4.722
17618SOL    HW154686  10.684  10.990   4.773
17618SOL    HW254687  10.783  11.102   4.750
17619SOL     OW54688   2.700   4.496   5.628
17619SOL    HW154689   2.693   4.401   5.635
17619SOL    HW254690   2.680   4.528   5.716
17620SOL     OW54691  13.666   2.135  10.262
17620SOL    HW154692  13.575   2.105  10.269
17620SOL    HW254693  13.718   2.061  10.292
17621SOL     OW54694  10.320   9.268  14.329
17621SOL    HW154695  10.331   9.180  14.293
17621SOL    HW254696  10.278   9.253  14.414
17622SOL     OW54697  12.770   6.730  11.805
17622SOL    HW154698  12.835   6.799  11.791
17622SOL    HW254699  12.816   6.649  11.781
17623SOL     OW54700   2.405  12.832   1.474
17623SOL    HW154701   2.323  12.826   1.426
17623SOL    HW254702   2.409  12.922   1.505
17624SOL     OW54703   7.635   8.723   5.930
17624SOL    HW154704   7.541   8.713   5.943
17624SOL    HW254705   7.674   8.690   6.011
17625SOL     OW54706  14.682  11.076  13.791
17625SOL    HW154707  14.724  11.114  13.713
17625SOL    HW254708  14.635  11.000  13.759
17626SOL     OW54709   3.293   3.989  12.206
17626SOL    HW154710   3.323   3.901  12.187
17626SOL    HW254711   3.349   4.046  12.153
17627SOL     OW54712   3.239  12.286   9.166
17627SOL    HW154713   3.211  12.298   9.076
17627SOL    HW254714   3.287  12.203   9.166
17628SOL     OW54715  11.157   6.959   1.302
17628SOL    HW154716  11.181   7.041   1.258
17628SOL    HW254717  11.084   6.924   1.251
17629SOL     OW54718   7.150   1.410  13.526
17629SOL    HW154719   7.121   1.440  13.440
17629SOL    HW254720   7.074   1.421  13.583
17630SOL     OW54721   3.363   0.642   9.476
17630SOL    HW154722   3.352   0.648   9.382
17630SOL    HW254723   3.444   0.691   9.494
17631SOL     OW54724   5.441   5.584  13.203
17631SOL    HW154725   5.416   5.650  13.268
17631SOL    HW254726   5.518   5.622  13.160
17632SOL     OW54727  12.942  10.273   6.550
17632SOL    HW154728  12.847  10.269   6.537
17632SOL    HW254729  12.973  10.185   6.528
17633SOL     OW54730  14.857  11.691   4.013
17633SOL    HW154731   0.038  11.621   3.974
17633SOL    HW254732   0.024  11.772   3.981
17634SOL     OW54733  14.398   3.568   4.311
17634SOL    HW154734  14.363   3.493   4.360
17634SOL    HW254735  14.420   3.532   4.225
17635SOL     OW54736   6.430   8.906   5.361
17635SOL    HW154737   6.480   8.902   5.443
17635SOL    HW254738   6.395   8.995   5.360
17636SOL     OW54739   4.350   7.138   5.912
17636SOL    HW154740   4.359   7.170   6.001
17636SOL    HW254741   4.415   7.068   5.905
17637SOL     OW54742  11.699   6.185   2.341
17637SOL    HW154743  11.674   6.093   2.332
17637SOL    HW254744  11.675   6.207   2.431
17638SOL     OW54745   3.224  11.587   8.497
17638SOL    HW154746   3.246  11.500   8.532
17638SOL    HW254747   3.264  11.648   8.559
17639SOL     OW54748  11.535  14.434  14.556
17639SOL    HW154749  11.537  14.368  14.625
17639SOL    HW254750  11.532  14.517  14.602
17640SOL     OW54751   8.131   7.854   5.401
17640SOL    HW154752   8.097   7.773   5.438
17640SOL    HW254753   8.096   7.857   5.312
17641SOL     OW54754   6.156   8.768   2.100
17641SOL    HW154755   6.157   8.674   2.081
17641SOL    HW254756   6.224   8.804   2.043
17642SOL     OW54757  14.263   2.208  11.691
17642SOL    HW154758  14.170   2.201  11.670
17642SOL    HW254759  14.264   2.250  11.777
17643SOL     OW54760  11.273   5.523  10.814
17643SOL    HW154761  11.277   5.466  10.737
17643SOL    HW254762  11.358   5.512  10.856
17644SOL     OW54763   4.987  13.885  13.761
17644SOL    HW154764   5.047  13.846  13.697
17644SOL    HW254765   5.042  13.900  13.838
17645SOL     OW54766   7.845  12.196   3.211
17645SOL    HW154767   7.920  12.136   3.212
17645SOL    HW254768   7.863  12.258   3.282
17646SOL     OW54769  10.965   0.123   7.828
17646SOL    HW154770  10.981   0.029   7.841
17646SOL    HW254771  10.870   0.130   7.817
17647SOL     OW54772   4.705   1.799   5.845
17647SOL    HW154773   4.717   1.716   5.799
17647SOL    HW254774   4.786   1.811   5.895
17648SOL     OW54775  10.505   2.052  10.518
17648SOL    HW154776  10.424   2.019  10.479
17648SOL    HW254777  10.496   2.147  10.517
17649SOL     OW54778   6.061   4.327   8.115
17649SOL    HW154779   6.119   4.254   8.092
17649SOL    HW254780   6.021   4.300   8.197
17650SOL     OW54781   9.587   1.084   4.606
17650SOL    HW154782   9.631   1.067   4.690
17650SOL    HW254783   9.515   1.142   4.628
17651SOL     OW54784  14.684   9.678  11.452
17651SOL    HW154785  14.644   9.591  11.448
17651SOL    HW254786  14.687   9.706  11.360
17652SOL     OW54787   7.468   5.986   1.916
17652SOL    HW154788   7.549   5.978   1.866
17652SOL    HW254789   7.492   6.041   1.991
17653SOL     OW54790   4.178   1.149   4.911
17653SOL    HW154791   4.163   1.152   5.006
17653SOL    HW254792   4.213   1.235   4.890
17654SOL     OW54793   7.372   7.307   2.588
17654SOL    HW154794   7.316   7.374   2.628
17654SOL    HW254795   7.339   7.298   2.499
17655SOL     OW54796   1.849   8.142  12.612
17655SOL    HW154797   1.925   8.198  12.595
17655SOL    HW254798   1.844   8.085  12.535
17656SOL     OW54799   3.880   5.576   7.626
17656SOL    HW154800   3.919   5.663   7.630
17656SOL    HW254801   3.802   5.581   7.683
17657SOL     OW54802   0.004  13.032  14.205
17657SOL    HW154803   0.024  13.059  14.295
17657SOL    HW254804  14.816  12.958  14.215
17658SOL     OW54805   6.557   1.174  11.689
17658SOL    HW154806   6.547   1.114  11.762
17658SOL    HW254807   6.467   1.190  11.658
17659SOL     OW54808   6.314   5.613   9.573
17659SOL    HW154809   6.261   5.601   9.494
17659SOL    HW254810   6.360   5.530   9.584
17660SOL     OW54811  10.329  13.550  11.916
17660SOL    HW154812  10.262  13.504  11.966
17660SOL    HW254813  10.288  13.633  11.892
17661SOL     OW54814   3.330   4.438   9.433
17661SOL    HW154815   3.309   4.401   9.346
17661SOL    HW254816   3.282   4.382   9.494
17662SOL     OW54817   9.699   4.141  13.546
17662SOL    HW154818   9.742   4.128  13.631
17662SOL    HW254819   9.689   4.236  13.539
17663SOL     OW54820  14.769   1.829   7.734
17663SOL    HW154821  14.761   1.759   7.670
17663SOL    HW254822  14.682   1.868   7.738
17664SOL     OW54823  12.536  12.730   8.547
17664SOL    HW154824  12.630  12.734   8.565
17664SOL    HW254825  12.502  12.665   8.608
17665SOL     OW54826  14.535   2.490   6.699
17665SOL    HW154827  14.504   2.537   6.622
17665SOL    HW254828  14.472   2.511   6.768
17666SOL     OW54829   5.580  11.582   8.401
17666SOL    HW154830   5.491  11.612   8.380
17666SOL    HW254831   5.590  11.601   8.494
17667SOL     OW54832   1.111   7.098   4.466
17667SOL    HW154833   1.017   7.117   4.473
17667SOL    HW254834   1.142   7.097   4.557
17668SOL     OW54835  10.752   3.660   7.679
17668SOL    HW154836  10.818   3.621   7.736
17668SOL    HW254837  10.783   3.749   7.662
17669SOL     OW54838   4.222   9.929  11.722
17669SOL    HW154839   4.183  10.012  11.696
17669SOL    HW254840   4.154   9.885  11.772
17670SOL     OW54841  10.708   4.104   3.572
17670SOL    HW154842  10.751   4.142   3.495
17670SOL    HW254843  10.729   4.011   3.568
17671SOL     OW54844   2.555   5.758  12.660
17671SOL    HW154845   2.502   5.745  12.739
17671SOL    HW254846   2.606   5.678  12.652
17672SOL     OW54847   2.743  13.985  11.046
17672SOL    HW154848   2.828  14.030  11.049
17672SOL    HW254849   2.679  14.054  11.061
17673SOL     OW54850   2.432   8.800   1.303
17673SOL    HW154851   2.409   8.869   1.241
17673SOL    HW254852   2.381   8.724   1.275
17674SOL     OW54853  14.340   4.971   8.399
17674SOL    HW154854  14.273   5.015   8.346
17674SOL    HW254855  14.326   5.004   8.488
17675SOL     OW54856  10.949   1.725   6.905
17675SOL    HW154857  11.029   1.690   6.867
17675SOL    HW254858  10.937   1.676   6.986
17676SOL     OW54859   7.892  14.549   1.776
17676SOL    HW154860   7.975  14.561   1.821
17676SOL    HW254861   7.916  14.533   1.684
17677SOL     OW54862  13.009   3.289  11.214
17677SOL    HW154863  13.018   3.381  11.191
17677SOL    HW254864  13.053   3.241  11.144
17678SOL     OW54865   0.290   6.347   5.297
17678SOL    HW154866   0.303   6.437   5.325
17678SOL    HW254867   0.262   6.301   5.376
17679SOL     OW54868   2.314   2.235  12.249
17679SOL    HW154869   2.283   2.325  12.257
17679SOL    HW254870   2.366   2.235  12.168
17680SOL     OW54871  12.784  14.034   9.532
17680SOL    HW154872  12.741  13.992   9.457
17680SOL    HW254873  12.785  14.127   9.510
17681SOL     OW54874   6.761   9.673   7.140
17681SOL    HW154875   6.748   9.698   7.049
17681SOL    HW254876   6.853   9.691   7.157
17682SOL     OW54877   9.486   8.552   7.773
17682SOL    HW154878   9.570   8.575   7.812
17682SOL    HW254879   9.468   8.622   7.710
17683SOL     OW54880  13.172   4.446   4.610
17683SOL    HW154881  13.217   4.508   4.553
17683SOL    HW254882  13.126   4.387   4.550
17684SOL     OW54883  10.718   6.964  13.372
17684SOL    HW154884  10.637   6.978  13.420
17684SOL    HW254885  10.787   6.992  13.432
17685SOL     OW54886   8.162  11.725   2.153
17685SOL    HW154887   8.256  11.715   2.141
17685SOL    HW254888   8.131  11.638   2.180
17686SOL     OW54889   1.124  13.715  12.810
17686SOL    HW154890   1.034  13.728  12.839
17686SOL    HW254891   1.174  13.783  12.855
17687SOL     OW54892   5.122   1.087  12.263
17687SOL    HW154893   5.143   1.161  12.320
17687SOL    HW254894   5.155   1.010  12.310
17688SOL     OW54895   6.642   8.013   6.643
17688SOL    HW154896   6.653   7.937   6.586
17688SOL    HW254897   6.547   8.025   6.650
17689SOL     OW54898   1.030   2.406   2.851
17689SOL    HW154899   0.990   2.491   2.872
17689SOL    HW254900   1.093   2.426   2.782
17690SOL     OW54901   3.049   1.157   2.667
17690SOL    HW154902   2.990   1.232   2.666
17690SOL    HW254903   3.114   1.179   2.733
17691SOL     OW54904   2.665   4.323  11.481
17691SOL    HW154905   2.646   4.239  11.440
17691SOL    HW254906   2.676   4.302  11.574
17692SOL     OW54907   9.522   4.825  10.142
17692SOL    HW154908   9.431   4.810  10.118
17692SOL    HW254909   9.565   4.849  10.060
17693SOL     OW54910   0.462  13.497  10.795
17693SOL    HW154911   0.412  13.496  10.877
17693SOL    HW254912   0.399  13.520  10.728
17694SOL     OW54913  14.113   6.711  11.237
17694SOL    HW154914  14.105   6.769  11.162
17694SOL    HW254915  14.197   6.666  11.224
17695SOL     OW54916  10.804   3.016  11.760
17695SOL    HW154917  10.832   2.938  11.713
17695SOL    HW254918  10.823   3.088  11.699
17696SOL     OW54919   9.803   5.904   6.708
17696SOL    HW154920   9.886   5.855   6.705
17696SOL    HW254921   9.801   5.943   6.795
17697SOL     OW54922  13.526   5.131   3.458
17697SOL    HW154923  13.556   5.215   3.493
17697SOL    HW254924  13.476   5.092   3.529
17698SOL     OW54925  14.261  13.184   5.173
17698SOL    HW154926  14.324  13.255   5.178
17698SOL    HW254927  14.313  13.107   5.148
17699SOL     OW54928   5.514   0.008   8.142
17699SOL    HW154929   5.567   0.004   8.062
17699SOL    HW254930   5.550   0.082   8.191
17700SOL     OW54931  14.184   0.876   4.332
17700SOL    HW154932  14.268   0.862   4.290
17700SOL    HW254933  14.171   0.971   4.330
17701SOL     OW54934  10.100   2.003   5.665
17701SOL    HW154935  10.051   1.937   5.715
17701SOL    HW254936  10.124   2.069   5.730
17702SOL     OW54937   3.369  12.857   3.772
17702SOL    HW154938   3.324  12.917   3.713
17702SOL    HW254939   3.462  12.875   3.758
17703SOL     OW54940   7.820   9.673   7.869
17703SOL    HW154941   7.823   9.580   7.848
17703SOL    HW254942   7.912   9.699   7.880
17704SOL     OW54943   3.513   6.268  12.472
17704SOL    HW154944   3.441   6.213  12.442
17704SOL    HW254945   3.471   6.349  12.501
17705SOL     OW54946   1.541  11.068   1.656
17705SOL    HW154947   1.559  11.036   1.568
17705SOL    HW254948   1.598  11.145   1.665
17706SOL     OW54949   6.642  14.265   6.189
17706SOL    HW154950   6.601  14.186   6.155
17706SOL    HW254951   6.736  14.254   6.171
17707SOL     OW54952   0.989   4.342   2.508
17707SOL    HW154953   1.074   4.305   2.534
17707SOL    HW254954   1.004   4.437   2.505
17708SOL     OW54955   5.107   5.584   6.746
17708SOL    HW154956   5.021   5.559   6.780
17708SOL    HW254957   5.128   5.516   6.682
17709SOL     OW54958  14.647   7.885  11.221
17709SOL    HW154959  14.572   7.836  11.255
17709SOL    HW254960  14.692   7.823  11.165
17710SOL     OW54961  13.423   5.072   5.844
17710SOL    HW154962  13.433   5.129   5.768
17710SOL    HW254963  13.382   5.127   5.911
17711SOL     OW54964  14.385   9.462   5.670
17711SOL    HW154965  14.427   9.416   5.598
17711SOL    HW254966  14.367   9.394   5.735
17712SOL     OW54967   1.400   6.113  12.027
17712SOL    HW154968   1.489   6.123  11.994
17712SOL    HW254969   1.347   6.169  11.971
17713SOL     OW54970   6.052  12.950  14.745
17713SOL    HW154971   6.027  12.878  14.804
17713SOL    HW254972   6.101  13.010  14.800
17714SOL     OW54973   3.357  11.375   5.739
17714SOL    HW154974   3.334  11.377   5.646
17714SOL    HW254975   3.431  11.435   5.747
17715SOL     OW54976  13.818   7.249   9.149
17715SOL    HW154977  13.777   7.247   9.235
17715SOL    HW254978  13.912   7.244   9.167
17716SOL     OW54979  10.164   2.411  10.905
17716SOL    HW154980  10.123   2.477  10.850
17716SOL    HW254981  10.110   2.407  10.984
17717SOL     OW54982   0.328  10.920   9.890
17717SOL    HW154983   0.365  10.843   9.847
17717SOL    HW254984   0.256  10.886   9.942
17718SOL     OW54985   6.482  14.223   5.823
17718SOL    HW154986   6.484  14.305   5.873
17718SOL    HW254987   6.558  14.175   5.855
17719SOL     OW54988  14.746  12.191   4.902
17719SOL    HW154989  14.776  12.282   4.911
17719SOL    HW254990  14.698  12.189   4.819
17720SOL     OW54991  10.797  11.417   7.751
17720SOL    HW154992  10.797  11.321   7.757
17720SOL    HW254993  10.803  11.446   7.842
17721SOL     OW54994   5.365   3.601  13.367
17721SOL    HW154995   5.363   3.659  13.291
17721SOL    HW254996   5.283   3.551  13.362
17722SOL     OW54997   7.644   3.791   8.801
17722SOL    HW154998   7.620   3.699   8.807
17722SOL    HW254999   7.577   3.837   8.852
17723SOL     OW55000  10.125   5.540   2.962
17723SOL    HW155001  10.059   5.595   3.004
17723SOL    HW255002  10.074   5.478   2.909
17724SOL     OW55003   7.261  14.633   2.006
17724SOL    HW155004   7.178  14.674   1.983
17724SOL    HW255005   7.321  14.659   1.936
17725SOL     OW55006   0.422   7.350  10.899
17725SOL    HW155007   0.452   7.418  10.959
17725SOL    HW255008   0.394   7.398  10.821
17726SOL     OW55009   8.716   5.542  11.204
17726SOL    HW155010   8.773   5.619  11.197
17726SOL    HW255011   8.633   5.577  11.238
17727SOL     OW55012  11.760   5.165   8.520
17727SOL    HW155013  11.667   5.146   8.533
17727SOL    HW255014  11.775   5.247   8.568
17728SOL     OW55015   3.541  12.614  10.071
17728SOL    HW155016   3.572  12.676  10.006
17728SOL    HW255017   3.570  12.528  10.038
17729SOL     OW55018   1.272  11.165   1.668
17729SOL    HW155019   1.355  11.118   1.663
17729SOL    HW255020   1.241  11.170   1.578
17730SOL     OW55021  10.796   3.025  12.694
17730SOL    HW155022  10.859   2.985  12.753
17730SOL    HW255023  10.814   3.119  12.699
17731SOL     OW55024  12.173   1.015   9.129
17731SOL    HW155025  12.222   1.041   9.051
17731SOL    HW255026  12.237   0.969   9.183
17732SOL     OW55027  13.207  14.542  14.560
17732SOL    HW155028  13.222  14.608  14.493
17732SOL    HW255029  13.116  14.554  14.586
17733SOL     OW55030   6.946  14.494  14.717
17733SOL    HW155031   7.011  14.427  14.699
17733SOL    HW255032   6.864  14.459  14.683
17734SOL     OW55033   1.448   1.618  10.504
17734SOL    HW155034   1.445   1.678  10.429
17734SOL    HW255035   1.403   1.540  10.474
17735SOL     OW55036  11.018  11.396   1.167
17735SOL    HW155037  10.946  11.390   1.104
17735SOL    HW255038  10.989  11.463   1.230
17736SOL     OW55039   1.690  10.099   4.707
17736SOL    HW155040   1.694  10.021   4.652
17736SOL    HW255041   1.687  10.172   4.645
17737SOL     OW55042   1.950   7.087   7.394
17737SOL    HW155043   2.013   7.139   7.444
17737SOL    HW255044   1.913   7.147   7.330
17738SOL     OW55045  14.323  11.211  10.033
17738SOL    HW155046  14.305  11.276  10.102
17738SOL    HW255047  14.328  11.128  10.080
17739SOL     OW55048   7.793   1.085   3.525
17739SOL    HW155049   7.835   1.077   3.440
17739SOL    HW255050   7.837   1.159   3.567
17740SOL     OW55051   2.816  12.834   9.534
17740SOL    HW155052   2.760  12.770   9.490
17740SOL    HW255053   2.754  12.899   9.569
17741SOL     OW55054   9.548   0.717   1.008
17741SOL    HW155055   9.479   0.748   1.067
17741SOL    HW255056   9.620   0.694   1.067
17742SOL     OW55057   7.398  10.035   1.235
17742SOL    HW155058   7.467  10.033   1.168
17742SOL    HW255059   7.415   9.957   1.289
17743SOL     OW55060   9.354   5.608   8.110
17743SOL    HW155061   9.427   5.569   8.061
17743SOL    HW255062   9.300   5.533   8.135
17744SOL     OW55063   3.297   1.238  14.227
17744SOL    HW155064   3.272   1.162  14.176
17744SOL    HW255065   3.244   1.310  14.192
17745SOL     OW55066  12.656  13.246   4.895
17745SOL    HW155067  12.613  13.330   4.910
17745SOL    HW255068  12.691  13.220   4.980
17746SOL     OW55069  10.534   2.183   1.374
17746SOL    HW155070  10.610   2.177   1.432
17746SOL    HW255071  10.572   2.187   1.286
17747SOL     OW55072  13.136   0.229   9.983
17747SOL    HW155073  13.145   0.157  10.046
17747SOL    HW255074  13.046   0.221   9.951
17748SOL     OW55075   0.047  10.740   0.575
17748SOL    HW155076  14.855  10.769   0.640
17748SOL    HW255077   0.021  10.784   0.494
17749SOL     OW55078   7.136   3.753   1.916
17749SOL    HW155079   7.183   3.685   1.868
17749SOL    HW255080   7.045   3.723   1.915
17750SOL     OW55081   1.028  10.609   7.983
17750SOL    HW155082   0.958  10.599   7.918
17750SOL    HW255083   1.089  10.539   7.962
17751SOL     OW55084   3.245   4.635   7.370
17751SOL    HW155085   3.171   4.689   7.398
17751SOL    HW255086   3.306   4.697   7.330
17752SOL     OW55087   3.730   5.909  14.847
17752SOL    HW155088   3.709   5.819   0.001
17752SOL    HW255089   3.745   5.955   0.057
17753SOL     OW55090   4.526   7.171   7.616
17753SOL    HW155091   4.576   7.252   7.619
17753SOL    HW255092   4.465   7.177   7.689
17754SOL     OW55093  12.257   0.074  11.197
17754SOL    HW155094  12.176   0.112  11.231
17754SOL    HW255095  12.322   0.090  11.265
17755SOL     OW55096   5.098   1.758   4.954
17755SOL    HW155097   5.094   1.664   4.937
17755SOL    HW255098   5.015   1.778   4.999
17756SOL     OW55099   1.596   4.493   5.486
17756SOL    HW155100   1.505   4.502   5.513
17756SOL    HW255101   1.647   4.513   5.564
17757SOL     OW55102  10.507   8.398   8.919
17757SOL    HW155103  10.427   8.445   8.943
17757SOL    HW255104  10.485   8.306   8.935
17758SOL     OW55105  11.142   1.799  14.762
17758SOL    HW155106  11.094   1.759  14.834
17758SOL    HW255107  11.214   1.739  14.744
17759SOL     OW55108  14.054   6.160   0.529
17759SOL    HW155109  14.067   6.245   0.571
17759SOL    HW255110  14.119   6.158   0.459
17760SOL     OW55111   4.743   9.257   3.110
17760SOL    HW155112   4.787   9.172   3.110
17760SOL    HW255113   4.719   9.272   3.018
17761SOL     OW55114   6.538   6.798   5.713
17761SOL    HW155115   6.601   6.785   5.784
17761SOL    HW255116   6.506   6.710   5.694
17762SOL     OW55117   1.824   4.295   0.347
17762SOL    HW155118   1.888   4.347   0.395
17762SOL    HW255119   1.857   4.291   0.258
17763SOL     OW55120  10.644   1.595   2.581
17763SOL    HW155121  10.699   1.670   2.602
17763SOL    HW255122  10.667   1.572   2.491
17764SOL     OW55123   7.740   1.386   3.859
17764SOL    HW155124   7.658   1.391   3.809
17764SOL    HW255125   7.722   1.323   3.928
17765SOL     OW55126  13.298   9.965  11.385
17765SOL    HW155127  13.296   9.912  11.464
17765SOL    HW255128  13.373  10.023  11.398
17766SOL     OW55129   7.339   2.721  10.165
17766SOL    HW155130   7.313   2.794  10.110
17766SOL    HW255131   7.277   2.651  10.143
17767SOL     OW55132  11.731  13.605   7.021
17767SOL    HW155133  11.742  13.655   7.102
17767SOL    HW255134  11.821  13.581   6.996
17768SOL     OW55135  10.059   2.670  14.241
17768SOL    HW155136  10.004   2.703  14.170
17768SOL    HW255137  10.148   2.676  14.207
17769SOL     OW55138  10.959   4.201   4.242
17769SOL    HW155139  10.893   4.257   4.200
17769SOL    HW255140  10.915   4.117   4.252
17770SOL     OW55141   0.972   8.920   5.706
17770SOL    HW155142   0.996   8.993   5.648
17770SOL    HW255143   1.054   8.873   5.718
17771SOL     OW55144  11.417   4.540   2.285
17771SOL    HW155145  11.389   4.457   2.246
17771SOL    HW255146  11.378   4.540   2.372
17772SOL     OW55147  13.533  14.802   5.256
17772SOL    HW155148  13.564  14.814   5.346
17772SOL    HW255149  13.438  14.810   5.262
17773SOL     OW55150   4.928   5.376  10.981
17773SOL    HW155151   4.909   5.433  11.056
17773SOL    HW255152   4.994   5.315  11.014
17774SOL     OW55153  10.289   6.541   2.995
17774SOL    HW155154  10.278   6.478   3.066
17774SOL    HW255155  10.384   6.542   2.978
17775SOL     OW55156   0.225   6.382   8.199
17775SOL    HW155157   0.309   6.400   8.241
17775SOL    HW255158   0.161   6.395   8.269
17776SOL     OW55159   9.011   8.610   9.505
17776SOL    HW155160   9.001   8.637   9.414
17776SOL    HW255161   9.078   8.541   9.502
17777SOL     OW55162   0.597   6.441  10.581
17777SOL    HW155163   0.690   6.462  10.572
17777SOL    HW255164   0.555   6.486  10.508
17778SOL     OW55165  10.007  10.497   6.999
17778SOL    HW155166  10.018  10.432   7.068
17778SOL    HW255167   9.949  10.455   6.935
17779SOL     OW55168   0.570   3.249   6.082
17779SOL    HW155169   0.645   3.194   6.105
17779SOL    HW255170   0.504   3.188   6.051
17780SOL     OW55171  14.000   7.054  12.115
17780SOL    HW155172  14.075   7.008  12.154
17780SOL    HW255173  14.029   7.145  12.109
17781SOL     OW55174   9.164  12.067   1.427
17781SOL    HW155175   9.243  12.095   1.475
17781SOL    HW255176   9.096  12.129   1.454
17782SOL     OW55177  13.273   2.927   0.441
17782SOL    HW155178  13.350   2.891   0.397
17782SOL    HW255179  13.208   2.858   0.435
17783SOL     OW55180   8.518   7.086   1.572
17783SOL    HW155181   8.494   6.996   1.597
17783SOL    HW255182   8.509   7.088   1.477
17784SOL     OW55183  12.943   4.994  14.831
17784SOL    HW155184  12.962   5.063   0.022
17784SOL    HW255185  12.869   4.946  14.869
17785SOL     OW55186   5.331  10.820   4.988
17785SOL    HW155187   5.320  10.747   4.927
17785SOL    HW255188   5.425  10.825   5.003
17786SOL     OW55189   3.245   9.921  12.256
17786SOL    HW155190   3.307   9.931  12.183
17786SOL    HW255191   3.300   9.919  12.334
17787SOL     OW55192   4.387   2.485   2.962
17787SOL    HW155193   4.307   2.525   2.929
17787SOL    HW255194   4.383   2.499   3.057
17788SOL     OW55195   6.371   2.664   9.890
17788SOL    HW155196   6.279   2.653   9.868
17788SOL    HW255197   6.402   2.732   9.831
17789SOL     OW55198   0.269   9.632   3.745
17789SOL    HW155199   0.179   9.605   3.726
17789SOL    HW255200   0.266   9.727   3.742
17790SOL     OW55201   5.681  13.792   7.178
17790SOL    HW155202   5.708  13.700   7.167
17790SOL    HW255203   5.761  13.838   7.204
17791SOL     OW55204   0.522   5.873   3.583
17791SOL    HW155205   0.580   5.814   3.535
17791SOL    HW255206   0.579   5.919   3.643
17792SOL     OW55207   8.051   9.257   3.068
17792SOL    HW155208   8.103   9.243   3.148
17792SOL    HW255209   8.031   9.169   3.036
17793SOL     OW55210   2.656   0.620   0.945
17793SOL    HW155211   2.628   0.553   0.883
17793SOL    HW255212   2.722   0.671   0.898
17794SOL     OW55213  13.538   1.486   8.616
17794SOL    HW155214  13.568   1.457   8.702
17794SOL    HW255215  13.493   1.409   8.580
17795SOL     OW55216   2.062   4.779   0.333
17795SOL    HW155217   1.977   4.744   0.305
17795SOL    HW255218   2.039   4.850   0.394
17796SOL     OW55219   5.089   1.888  13.564
17796SOL    HW155220   5.004   1.863  13.600
17796SOL    HW255221   5.145   1.896  13.641
17797SOL     OW55222  11.355  11.707   3.801
17797SOL    HW155223  11.278  11.761   3.784
17797SOL    HW255224  11.320  11.625   3.836
17798SOL     OW55225   7.273   0.027   2.501
17798SOL    HW155226   7.344  14.854   2.458
17798SOL    HW255227   7.238   0.087   2.435
17799SOL     OW55228   4.007   2.360   5.317
17799SOL    HW155229   3.942   2.350   5.386
17799SOL    HW255230   4.089   2.330   5.356
17800SOL     OW55231   0.661  13.567   9.085
17800SOL    HW155232   0.666  13.524   9.000
17800SOL    HW255233   0.586  13.625   9.079
17801SOL     OW55234   7.440   6.489   5.397
17801SOL    HW155235   7.368   6.430   5.421
17801SOL    HW255236   7.513   6.462   5.453
17802SOL     OW55237   6.640  12.247   3.079
17802SOL    HW155238   6.713  12.227   3.020
17802SOL    HW255239   6.671  12.218   3.165
17803SOL     OW55240   2.853   6.104   4.947
17803SOL    HW155241   2.922   6.067   5.002
17803SOL    HW255242   2.869   6.199   4.949
17804SOL     OW55243  10.942  14.574   6.961
17804SOL    HW155244  10.944  14.480   6.943
17804SOL    HW255245  11.027  14.606   6.930
17805SOL     OW55246   4.158   5.608   7.522
17805SOL    HW155247   4.231   5.556   7.490
17805SOL    HW255248   4.146   5.676   7.456
17806SOL     OW55249   3.103  14.385  10.175
17806SOL    HW155250   3.024  14.340  10.205
17806SOL    HW255251   3.080  14.418  10.088
17807SOL     OW55252  13.963   2.723  12.168
17807SOL    HW155253  13.994   2.781  12.098
17807SOL    HW255254  13.958   2.779  12.245
17808SOL     OW55255  11.830   9.151  11.826
17808SOL    HW155256  11.769   9.077  11.816
17808SOL    HW255257  11.834   9.190  11.739
17809SOL     OW55258   9.138  12.520   8.915
17809SOL    HW155259   9.068  12.483   8.968
17809SOL    HW255260   9.198  12.560   8.979
17810SOL     OW55261   2.743  10.972   7.308
17810SOL    HW155262   2.770  11.063   7.296
17810SOL    HW255263   2.778  10.927   7.231
17811SOL     OW55264   9.947  13.437   6.942
17811SOL    HW155265   9.908  13.522   6.962
17811SOL    HW255266  10.009  13.421   7.014
17812SOL     OW55267   3.469   1.546   2.008
17812SOL    HW155268   3.486   1.470   2.064
17812SOL    HW255269   3.470   1.621   2.068
17813SOL     OW55270  10.005   1.327   1.944
17813SOL    HW155271  10.063   1.290   1.877
17813SOL    HW255272  10.003   1.421   1.924
17814SOL     OW55273  11.510   9.588  11.818
17814SOL    HW155274  11.468   9.670  11.846
17814SOL    HW255275  11.602   9.599  11.844
17815SOL     OW55276   5.147   1.905   7.685
17815SOL    HW155277   5.120   1.816   7.707
17815SOL    HW255278   5.163   1.902   7.590
17816SOL     OW55279  14.317  12.246   9.294
17816SOL    HW155280  14.402  12.252   9.251
17816SOL    HW255281  14.259  12.209   9.228
17817SOL     OW55282   9.175   9.627  14.745
17817SOL    HW155283   9.091   9.648  14.704
17817SOL    HW255284   9.217   9.568  14.683
17818SOL     OW55285   4.356  11.510  13.417
17818SOL    HW155286   4.284  11.516  13.354
17818SOL    HW255287   4.422  11.571  13.383
17819SOL     OW55288   5.311   4.174   5.379
17819SOL    HW155289   5.241   4.166   5.314
17819SOL    HW255290   5.285   4.115   5.450
17820SOL     OW55291   0.744  12.869   7.739
17820SOL    HW155292   0.811  12.802   7.752
17820SOL    HW255293   0.784  12.932   7.680
17821SOL     OW55294  13.013   2.291  13.283
17821SOL    HW155295  12.948   2.357  13.307
17821SOL    HW255296  12.973   2.207  13.305
17822SOL     OW55297   7.479   7.791   6.126
17822SOL    HW155298   7.402   7.748   6.164
17822SOL    HW255299   7.459   7.884   6.132
17823SOL     OW55300   5.418  11.658   8.167
17823SOL    HW155301   5.429  11.581   8.111
17823SOL    HW255302   5.350  11.710   8.123
17824SOL     OW55303  13.122   2.350   4.059
17824SOL    HW155304  13.122   2.363   3.964
17824SOL    HW255305  13.213   2.332   4.081
17825SOL     OW55306  11.522   5.085  13.365
17825SOL    HW155307  11.478   5.123  13.288
17825SOL    HW255308  11.593   5.146  13.384
17826SOL     OW55309  13.828  14.042  13.199
17826SOL    HW155310  13.907  13.996  13.171
17826SOL    HW255311  13.859  14.101  13.268
17827SOL     OW55312   8.367  12.636   9.545
17827SOL    HW155313   8.392  12.561   9.492
17827SOL    HW255314   8.273  12.647   9.529
17828SOL     OW55315   0.477   4.019   4.622
17828SOL    HW155316   0.467   3.938   4.573
17828SOL    HW255317   0.414   4.079   4.582
17829SOL     OW55318  11.547  14.465   5.432
17829SOL    HW155319  11.551  14.482   5.338
17829SOL    HW255320  11.616  14.520   5.470
17830SOL     OW55321   1.452   0.852   4.026
17830SOL    HW155322   1.453   0.847   4.121
17830SOL    HW255323   1.514   0.922   4.004
17831SOL     OW55324   0.489   3.173   4.373
17831SOL    HW155325   0.500   3.208   4.462
17831SOL    HW255326   0.396   3.152   4.367
17832SOL     OW55327  10.403   5.880   6.328
17832SOL    HW155328  10.371   5.800   6.287
17832SOL    HW255329  10.491   5.892   6.292
17833SOL     OW55330  14.473   3.970   4.525
17833SOL    HW155331  14.437   3.918   4.453
17833SOL    HW255332  14.502   3.906   4.590
17834SOL     OW55333   3.756   1.095   9.659
17834SOL    HW155334   3.769   1.007   9.697
17834SOL    HW255335   3.844   1.128   9.643
17835SOL     OW55336   6.562   0.527   8.897
17835SOL    HW155337   6.507   0.462   8.940
17835SOL    HW255338   6.597   0.481   8.820
17836SOL     OW55339   4.180   2.957  11.421
17836SOL    HW155340   4.261   3.007  11.427
17836SOL    HW255341   4.120   3.002  11.480
17837SOL     OW55342   2.766   4.644   2.518
17837SOL    HW155343   2.689   4.692   2.487
17837SOL    HW255344   2.805   4.702   2.583
17838SOL     OW55345   5.744   6.231  13.948
17838SOL    HW155346   5.834   6.237  13.915
17838SOL    HW255347   5.693   6.287  13.889
17839SOL     OW55348   7.869  13.156  10.818
17839SOL    HW155349   7.957  13.129  10.793
17839SOL    HW255350   7.835  13.202  10.742
17840SOL     OW55351  12.988   9.800   1.067
17840SOL    HW155352  13.005   9.713   1.030
17840SOL    HW255353  12.897   9.796   1.097
17841SOL     OW55354   6.703   6.516  10.526
17841SOL    HW155355   6.653   6.519  10.607
17841SOL    HW255356   6.699   6.605  10.492
17842SOL     OW55357  10.237   7.233   2.357
17842SOL    HW155358  10.315   7.177   2.364
17842SOL    HW255359  10.221   7.240   2.263
17843SOL     OW55360   7.768   9.021   9.007
17843SOL    HW155361   7.741   9.090   9.067
17843SOL    HW255362   7.773   9.063   8.921
17844SOL     OW55363   2.022   8.124   0.720
17844SOL    HW155364   1.973   8.130   0.638
17844SOL    HW255365   1.963   8.162   0.786
17845SOL     OW55366   4.335   5.486   9.950
17845SOL    HW155367   4.359   5.405   9.995
17845SOL    HW255368   4.415   5.513   9.905
17846SOL     OW55369   0.419   4.470  11.302
17846SOL    HW155370   0.365   4.532  11.351
17846SOL    HW255371   0.506   4.508  11.302
17847SOL     OW55372  10.583   9.188  11.050
17847SOL    HW155373  10.652   9.161  10.989
17847SOL    HW255374  10.529   9.111  11.061
17848SOL     OW55375   5.446  14.701   7.243
17848SOL    HW155376   5.357  14.700   7.281
17848SOL    HW255377   5.439  14.645   7.166
17849SOL     OW55378   6.460  12.942   5.401
17849SOL    HW155379   6.484  13.027   5.363
17849SOL    HW255380   6.535  12.919   5.457
17850SOL     OW55381   5.401   8.336  13.104
17850SOL    HW155382   5.399   8.414  13.159
17850SOL    HW255383   5.494   8.321  13.087
17851SOL     OW55384   6.990   9.566  14.555
17851SOL    HW155385   7.051   9.637  14.534
17851SOL    HW255386   6.958   9.537  14.470
17852SOL     OW55387   3.435  11.291   0.937
17852SOL    HW155388   3.356  11.237   0.946
17852SOL    HW255389   3.432  11.323   0.846
17853SOL     OW55390   6.801   3.985   8.938
17853SOL    HW155391   6.837   4.021   9.019
17853SOL    HW255392   6.771   4.063   8.889
17854SOL     OW55393   0.039   3.890   1.247
17854SOL    HW155394   0.037   3.892   1.152
17854SOL    HW255395  14.839   3.831   1.272
17855SOL     OW55396  14.042   2.086   3.376
17855SOL    HW155397  14.075   2.008   3.330
17855SOL    HW255398  14.085   2.083   3.461
17856SOL     OW55399   4.033   4.307   8.729
17856SOL    HW155400   4.016   4.375   8.794
17856SOL    HW255401   3.960   4.311   8.668
17857SOL     OW55402   1.010   4.787  10.905
17857SOL    HW155403   0.927   4.789  10.859
17857SOL    HW255404   1.034   4.879  10.917
17858SOL     OW55405   6.479   9.030  12.472
17858SOL    HW155406   6.444   9.059  12.388
17858SOL    HW255407   6.402   9.029  12.530
17859SOL     OW55408  14.655   9.952   0.990
17859SOL    HW155409  14.637   9.866   0.952
17859SOL    HW255410  14.584   9.966   1.053
17860SOL     OW55411  14.838   5.658   9.026
17860SOL    HW155412  14.859   5.727   9.089
17860SOL    HW255413   0.005   5.579   9.063
17861SOL     OW55414   7.803  12.020   7.618
17861SOL    HW155415   7.802  12.104   7.571
17861SOL    HW255416   7.809  12.044   7.710
17862SOL     OW55417  11.765   9.725  12.179
17862SOL    HW155418  11.755   9.635  12.146
17862SOL    HW255419  11.686   9.770  12.149
17863SOL     OW55420   3.628   9.162  12.427
17863SOL    HW155421   3.598   9.251  12.445
17863SOL    HW255422   3.548   9.112  12.414
17864SOL     OW55423   7.958   6.318   4.810
17864SOL    HW155424   7.890   6.368   4.766
17864SOL    HW255425   7.911   6.261   4.871
17865SOL     OW55426   2.588   1.866   1.781
17865SOL    HW155427   2.558   1.815   1.705
17865SOL    HW255428   2.654   1.811   1.822
17866SOL     OW55429   0.369  14.080   3.612
17866SOL    HW155430   0.317  14.152   3.648
17866SOL    HW255431   0.459  14.114   3.614
17867SOL     OW55432  12.674   7.495   6.433
17867SOL    HW155433  12.650   7.574   6.480
17867SOL    HW255434  12.614   7.492   6.358
17868SOL     OW55435   5.503   6.909  11.333
17868SOL    HW155436   5.535   6.912  11.423
17868SOL    HW255437   5.549   6.834  11.294
17869SOL     OW55438   5.922   9.535  11.915
17869SOL    HW155439   6.014   9.510  11.920
17869SOL    HW255440   5.882   9.493  11.992
17870SOL     OW55441   6.645   6.840   7.061
17870SOL    HW155442   6.676   6.842   7.152
17870SOL    HW255443   6.646   6.747   7.038
17871SOL     OW55444  14.034   6.390  10.474
17871SOL    HW155445  14.101   6.351  10.530
17871SOL    HW255446  14.056   6.361  10.386
17872SOL     OW55447   2.413  11.130   9.255
17872SOL    HW155448   2.358  11.153   9.330
17872SOL    HW255449   2.482  11.075   9.293
17873SOL     OW55450  14.829   9.345  10.384
17873SOL    HW155451   0.025   9.401  10.421
17873SOL    HW255452  14.840   9.261  10.429
17874SOL     OW55453  14.525   9.378   0.907
17874SOL    HW155454  14.543   9.307   0.968
17874SOL    HW255455  14.429   9.384   0.905
17875SOL     OW55456  12.695   8.399  14.138
17875SOL    HW155457  12.632   8.437  14.077
17875SOL    HW255458  12.766   8.463  14.144
17876SOL     OW55459   6.150   2.358   6.532
17876SOL    HW155460   6.174   2.281   6.480
17876SOL    HW255461   6.081   2.400   6.480
17877SOL     OW55462   9.214   7.767   4.453
17877SOL    HW155463   9.259   7.694   4.496
17877SOL    HW255464   9.271   7.790   4.379
17878SOL     OW55465  10.670   8.451  14.749
17878SOL    HW155466  10.742   8.395  14.721
17878SOL    HW255467  10.659   8.432  14.843
17879SOL     OW55468   6.551   4.216   6.867
17879SOL    HW155469   6.565   4.307   6.839
17879SOL    HW255470   6.579   4.215   6.959
17880SOL     OW55471   2.620  11.350   9.283
17880SOL    HW155472   2.527  11.340   9.264
17880SOL    HW255473   2.626  11.339   9.378
17881SOL     OW55474   0.980  13.598   2.154
17881SOL    HW155475   1.026  13.612   2.236
17881SOL    HW255476   1.008  13.511   2.126
17882SOL     OW55477   2.455  10.564   5.736
17882SOL    HW155478   2.381  10.528   5.688
17882SOL    HW255479   2.516  10.592   5.668
17883SOL     OW55480  10.941   8.785   5.459
17883SOL    HW155481  10.984   8.861   5.497
17883SOL    HW255482  10.848   8.810   5.452
17884SOL     OW55483  11.212  13.439   4.415
17884SOL    HW155484  11.143  13.421   4.351
17884SOL    HW255485  11.173  13.415   4.499
17885SOL     OW55486   0.674   4.089   0.294
17885SOL    HW155487   0.753   4.035   0.291
17885SOL    HW255488   0.693   4.161   0.234
17886SOL     OW55489   1.001   9.474   4.535
17886SOL    HW155490   1.072   9.485   4.598
17886SOL    HW255491   1.030   9.522   4.457
17887SOL     OW55492  13.167   3.253   4.052
17887SOL    HW155493  13.131   3.196   3.984
17887SOL    HW255494  13.259   3.265   4.027
17888SOL     OW55495   8.684   3.616   2.732
17888SOL    HW155496   8.633   3.594   2.655
17888SOL    HW255497   8.647   3.698   2.764
17889SOL     OW55498   4.657   7.005   1.054
17889SOL    HW155499   4.661   7.019   1.149
17889SOL    HW255500   4.620   7.086   1.019
17890SOL     OW55501   9.704  12.251   3.194
17890SOL    HW155502   9.798  12.259   3.177
17890SOL    HW255503   9.685  12.323   3.255
17891SOL     OW55504  14.530   4.840   4.203
17891SOL    HW155505  14.521   4.745   4.209
17891SOL    HW255506  14.605   4.860   4.259
17892SOL     OW55507  12.646   0.928  11.030
17892SOL    HW155508  12.551   0.919  11.041
17892SOL    HW255509  12.680   0.926  11.120
17893SOL     OW55510   2.580   4.304   8.807
17893SOL    HW155511   2.499   4.353   8.797
17893SOL    HW255512   2.620   4.305   8.720
17894SOL     OW55513  14.541   2.645   7.267
17894SOL    HW155514  14.518   2.734   7.241
17894SOL    HW255515  14.577   2.654   7.355
17895SOL     OW55516   8.797   8.177   3.730
17895SOL    HW155517   8.760   8.170   3.817
17895SOL    HW255518   8.730   8.139   3.672
17896SOL     OW55519  10.093   1.850   9.583
17896SOL    HW155520  10.075   1.797   9.505
17896SOL    HW255521  10.175   1.815   9.617
17897SOL     OW55522   7.843   8.971  11.158
17897SOL    HW155523   7.753   8.942  11.174
17897SOL    HW255524   7.838   9.025  11.080
17898SOL     OW55525   8.052  12.282  11.072
17898SOL    HW155526   8.077  12.345  11.003
17898SOL    HW255527   8.060  12.332  11.153
17899SOL     OW55528  14.598  13.830  14.147
17899SOL    HW155529  14.668  13.857  14.208
17899SOL    HW255530  14.618  13.739  14.127
17900SOL     OW55531   6.745  12.052  11.984
17900SOL    HW155532   6.808  12.081  11.919
17900SOL    HW255533   6.672  12.017  11.933
17901SOL     OW55534  11.309   9.522   1.685
17901SOL    HW155535  11.371   9.564   1.625
17901SOL    HW255536  11.252   9.470   1.628
17902SOL     OW55537   5.909  11.554  12.550
17902SOL    HW155538   5.879  11.644  12.538
17902SOL    HW255539   5.995  11.563  12.592
17903SOL     OW55540  12.806   3.370   6.799
17903SOL    HW155541  12.804   3.312   6.722
17903SOL    HW255542  12.844   3.452   6.766
17904SOL     OW55543   2.293   9.961   3.137
17904SOL    HW155544   2.383   9.983   3.115
17904SOL    HW255545   2.269   9.891   3.076
17905SOL     OW55546   6.834   7.761  11.237
17905SOL    HW155547   6.913   7.714  11.211
17905SOL    HW255548   6.767   7.731  11.176
17906SOL     OW55549  10.720   7.656   6.163
17906SOL    HW155550  10.758   7.650   6.075
17906SOL    HW255551  10.713   7.750   6.180
17907SOL     OW55552  11.801   0.787  11.403
17907SOL    HW155553  11.817   0.846  11.329
17907SOL    HW255554  11.727   0.826  11.449
17908SOL     OW55555   6.572   7.441  13.338
17908SOL    HW155556   6.632   7.380  13.295
17908SOL    HW255557   6.627   7.515  13.363
17909SOL     OW55558   7.030  13.888   5.041
17909SOL    HW155559   7.083  13.911   4.965
17909SOL    HW255560   6.999  13.799   5.024
17910SOL     OW55561   8.819  10.935  13.587
17910SOL    HW155562   8.801  10.844  13.562
17910SOL    HW255563   8.751  10.986  13.543
17911SOL     OW55564   0.839   7.827   6.015
17911SOL    HW155565   0.810   7.751   6.065
17911SOL    HW255566   0.839   7.899   6.079
17912SOL     OW55567   7.536  11.834   0.462
17912SOL    HW155568   7.570  11.859   0.376
17912SOL    HW255569   7.592  11.762   0.490
17913SOL     OW55570   3.530   8.730   6.322
17913SOL    HW155571   3.520   8.814   6.366
17913SOL    HW255572   3.529   8.666   6.394
17914SOL     OW55573   0.745   5.735   8.041
17914SOL    HW155574   0.683   5.727   8.114
17914SOL    HW255575   0.808   5.665   8.056
17915SOL     OW55576  13.437   2.127   0.909
17915SOL    HW155577  13.492   2.206   0.917
17915SOL    HW255578  13.427   2.096   0.999
17916SOL     OW55579   0.205   3.041   2.125
17916SOL    HW155580   0.232   3.006   2.209
17916SOL    HW255581   0.189   3.134   2.142
17917SOL     OW55582  12.446   8.826   3.115
17917SOL    HW155583  12.516   8.782   3.066
17917SOL    HW255584  12.464   8.919   3.103
17918SOL     OW55585   1.972   1.491  14.101
17918SOL    HW155586   1.992   1.579  14.070
17918SOL    HW255587   1.991   1.493  14.195
17919SOL     OW55588   9.648   5.242   2.133
17919SOL    HW155589   9.713   5.174   2.115
17919SOL    HW255590   9.648   5.297   2.056
17920SOL     OW55591  11.850   4.056   5.300
17920SOL    HW155592  11.879   4.076   5.211
17920SOL    HW255593  11.863   4.137   5.348
17921SOL     OW55594   5.287   6.003  10.407
17921SOL    HW155595   5.266   5.947  10.333
17921SOL    HW255596   5.375   6.037  10.388
17922SOL     OW55597   9.219   0.424   6.810
17922SOL    HW155598   9.147   0.470   6.854
17922SOL    HW255599   9.292   0.429   6.872
17923SOL     OW55600   2.239   8.056   2.980
17923SOL    HW155601   2.324   8.095   3.001
17923SOL    HW255602   2.220   8.087   2.891
17924SOL     OW55603  14.544   6.757   5.035
17924SOL    HW155604  14.482   6.697   4.995
17924SOL    HW255605  14.490   6.819   5.084
17925SOL     OW55606  12.284   1.735   0.150
17925SOL    HW155607  12.212   1.795   0.133
17925SOL    HW255608  12.359   1.772   0.103
17926SOL     OW55609  14.277   8.737   1.525
17926SOL    HW155610  14.283   8.828   1.554
17926SOL    HW255611  14.368   8.710   1.514
17927SOL     OW55612  14.615  12.194   4.651
17927SOL    HW155613  14.647  12.121   4.598
17927SOL    HW255614  14.519  12.187   4.644
17928SOL     OW55615   4.393   3.311   6.839
17928SOL    HW155616   4.474   3.353   6.811
17928SOL    HW255617   4.412   3.279   6.927
17929SOL     OW55618  13.850   9.054   8.891
17929SOL    HW155619  13.885   9.121   8.949
17929SOL    HW255620  13.881   8.971   8.928
17930SOL     OW55621   9.941   9.554   7.219
17930SOL    HW155622   9.883   9.545   7.144
17930SOL    HW255623   9.963   9.463   7.242
17931SOL     OW55624   5.233  12.369   5.194
17931SOL    HW155625   5.293  12.402   5.261
17931SOL    HW255626   5.149  12.358   5.239
17932SOL     OW55627   9.462   3.260   6.603
17932SOL    HW155628   9.400   3.321   6.562
17932SOL    HW255629   9.518   3.230   6.531
17933SOL     OW55630   4.504  13.505  11.092
17933SOL    HW155631   4.596  13.523  11.111
17933SOL    HW255632   4.506  13.431  11.031
17934SOL     OW55633   5.970  14.800  13.841
17934SOL    HW155634   6.035  14.806  13.911
17934SOL    HW255635   6.018  14.817  13.761
17935SOL     OW55636   6.976   1.038   7.910
17935SOL    HW155637   7.005   1.123   7.878
17935SOL    HW255638   7.056   0.992   7.935
17936SOL     OW55639   6.060  10.887   9.275
17936SOL    HW155640   6.097  10.798   9.281
17936SOL    HW255641   5.988  10.886   9.338
17937SOL     OW55642   6.197   8.277  13.427
17937SOL    HW155643   6.135   8.348  13.415
17937SOL    HW255644   6.225   8.285  13.518
17938SOL     OW55645   3.152  12.332   1.270
17938SOL    HW155646   3.160  12.416   1.224
17938SOL    HW255647   3.238  12.292   1.262
17939SOL     OW55648  13.703   6.963   7.230
17939SOL    HW155649  13.721   6.978   7.137
17939SOL    HW255650  13.610   6.983   7.240
17940SOL     OW55651   8.319  10.896   4.397
17940SOL    HW155652   8.334  10.906   4.491
17940SOL    HW255653   8.390  10.840   4.367
17941SOL     OW55654   9.762  11.837  12.253
17941SOL    HW155655   9.676  11.851  12.214
17941SOL    HW255656   9.825  11.861  12.185
17942SOL     OW55657   2.488   8.962  13.870
17942SOL    HW155658   2.490   8.964  13.965
17942SOL    HW255659   2.551   9.030  13.843
17943SOL     OW55660   6.050  11.175   0.669
17943SOL    HW155661   6.064  11.159   0.762
17943SOL    HW255662   6.105  11.251   0.649
17944SOL     OW55663  11.498  13.390   3.735
17944SOL    HW155664  11.476  13.447   3.809
17944SOL    HW255665  11.583  13.354   3.757
17945SOL     OW55666  14.058   5.688   2.217
17945SOL    HW155667  14.057   5.778   2.249
17945SOL    HW255668  14.145   5.678   2.178
17946SOL     OW55669   5.717   2.231  10.861
17946SOL    HW155670   5.799   2.217  10.813
17946SOL    HW255671   5.654   2.253  10.792
17947SOL     OW55672   1.102   1.460   1.571
17947SOL    HW155673   1.168   1.425   1.511
17947SOL    HW255674   1.054   1.525   1.519
17948SOL     OW55675   7.671  10.195  10.772
17948SOL    HW155676   7.626  10.161  10.850
17948SOL    HW255677   7.601  10.230  10.717
17949SOL     OW55678  12.418  12.788   1.214
17949SOL    HW155679  12.502  12.830   1.229
17949SOL    HW255680  12.368  12.803   1.295
17950SOL     OW55681   9.808   0.533   1.689
17950SOL    HW155682   9.752   0.514   1.765
17950SOL    HW255683   9.807   0.452   1.638
17951SOL     OW55684   0.886  11.439   9.489
17951SOL    HW155685   0.975  11.445   9.454
17951SOL    HW255686   0.830  11.438   9.411
17952SOL     OW55687   4.438   8.333   8.884
17952SOL    HW155688   4.461   8.387   8.808
17952SOL    HW255689   4.522   8.301   8.917
17953SOL     OW55690   0.657   0.724   4.163
17953SOL    HW155691   0.612   0.775   4.230
17953SOL    HW255692   0.671   0.638   4.204
17954SOL     OW55693  11.722   9.641   3.223
17954SOL    HW155694  11.751   9.607   3.138
17954SOL    HW255695  11.643   9.591   3.243
17955SOL     OW55696   4.630   8.918  13.849
17955SOL    HW155697   4.654   8.995  13.900
17955SOL    HW255698   4.535   8.925  13.838
17956SOL     OW55699   9.785   7.620   9.115
17956SOL    HW155700   9.709   7.584   9.069
17956SOL    HW255701   9.768   7.715   9.118
17957SOL     OW55702  10.837   4.256   1.823
17957SOL    HW155703  10.849   4.342   1.783
17957SOL    HW255704  10.868   4.267   1.913
17958SOL     OW55705  13.054   6.927  12.927
17958SOL    HW155706  13.032   6.975  13.007
17958SOL    HW255707  13.097   6.847  12.958
17959SOL     OW55708   4.906   7.540  14.146
17959SOL    HW155709   4.946   7.586  14.220
17959SOL    HW255710   4.812   7.546  14.161
17960SOL     OW55711  13.867   8.490  12.005
17960SOL    HW155712  13.936   8.555  11.991
17960SOL    HW255713  13.891   8.448  12.088
17961SOL     OW55714  11.663  12.399   2.781
17961SOL    HW155715  11.695  12.380   2.693
17961SOL    HW255716  11.741  12.424   2.830
17962SOL     OW55717   4.487  12.585  13.423
17962SOL    HW155718   4.514  12.635  13.499
17962SOL    HW255719   4.523  12.632  13.348
17963SOL     OW55720   3.889   4.870   0.768
17963SOL    HW155721   3.863   4.825   0.848
17963SOL    HW255722   3.817   4.856   0.708
17964SOL     OW55723   6.781  11.116   0.146
17964SOL    HW155724   6.851  11.061   0.111
17964SOL    HW255725   6.798  11.203   0.110
17965SOL     OW55726   4.920   8.128   7.266
17965SOL    HW155727   4.916   8.099   7.357
17965SOL    HW255728   4.905   8.222   7.270
17966SOL     OW55729   3.485  14.467   9.610
17966SOL    HW155730   3.504  14.450   9.702
17966SOL    HW255731   3.496  14.562   9.602
17967SOL     OW55732  13.960   8.363   3.663
17967SOL    HW155733  13.921   8.449   3.678
17967SOL    HW255734  13.986   8.364   3.571
17968SOL     OW55735   0.960   7.380   1.175
17968SOL    HW155736   0.989   7.467   1.200
17968SOL    HW255737   0.914   7.347   1.253
17969SOL     OW55738  13.657   2.679  12.952
17969SOL    HW155739  13.590   2.658  12.886
17969SOL    HW255740  13.607   2.720  13.023
17970SOL     OW55741  10.981   4.928   1.675
17970SOL    HW155742  11.010   4.840   1.656
17970SOL    HW255743  10.885   4.922   1.677
17971SOL     OW55744  11.361  11.738   9.406
17971SOL    HW155745  11.447  11.723   9.366
17971SOL    HW255746  11.380  11.791   9.484
17972SOL     OW55747   4.665  11.221  10.059
17972SOL    HW155748   4.572  11.202  10.051
17972SOL    HW255749   4.672  11.316  10.046
17973SOL     OW55750   7.325   4.447   4.937
17973SOL    HW155751   7.271   4.373   4.967
17973SOL    HW255752   7.278   4.482   4.861
17974SOL     OW55753   6.277   1.988  11.906
17974SOL    HW155754   6.355   2.043  11.894
17974SOL    HW255755   6.221   2.040  11.964
17975SOL     OW55756   1.881   8.892  14.309
17975SOL    HW155757   1.942   8.820  14.321
17975SOL    HW255758   1.831   8.869  14.231
17976SOL     OW55759   7.145   4.569   2.680
17976SOL    HW155760   7.151   4.570   2.775
17976SOL    HW255761   7.055   4.542   2.662
17977SOL     OW55762   8.194   1.836   5.420
17977SOL    HW155763   8.150   1.918   5.445
17977SOL    HW255764   8.236   1.807   5.501
17978SOL     OW55765   4.733   2.130   1.450
17978SOL    HW155766   4.638   2.143   1.448
17978SOL    HW255767   4.766   2.180   1.375
17979SOL     OW55768   6.414  11.937   2.739
17979SOL    HW155769   6.349  11.907   2.676
17979SOL    HW255770   6.376  11.917   2.824
17980SOL     OW55771   9.342  10.932   4.228
17980SOL    HW155772   9.405  11.003   4.214
17980SOL    HW255773   9.260  10.966   4.192
17981SOL     OW55774   2.028  13.843  12.618
17981SOL    HW155775   2.068  13.876  12.538
17981SOL    HW255776   2.078  13.764  12.639
17982SOL     OW55777   2.882  13.921   0.324
17982SOL    HW155778   2.886  14.011   0.291
17982SOL    HW255779   2.871  13.868   0.245
17983SOL     OW55780   2.414  12.533   0.085
17983SOL    HW155781   2.411  12.629   0.084
17983SOL    HW255782   2.331  12.506   0.046
17984SOL     OW55783   5.843   9.357  10.573
17984SOL    HW155784   5.829   9.277  10.522
17984SOL    HW255785   5.759   9.375  10.614
17985SOL     OW55786   7.348   6.207   6.950
17985SOL    HW155787   7.403   6.283   6.972
17985SOL    HW255788   7.270   6.217   7.005
17986SOL     OW55789   1.360   2.586  11.294
17986SOL    HW155790   1.385   2.657  11.353
17986SOL    HW255791   1.398   2.507  11.335
17987SOL     OW55792  12.521   5.270  13.151
17987SOL    HW155793  12.434   5.234  13.170
17987SOL    HW255794  12.504   5.363  13.132
17988SOL     OW55795  14.246  14.054   4.876
17988SOL    HW155796  14.333  14.017   4.893
17988SOL    HW255797  14.211  13.999   4.805
17989SOL     OW55798   4.316   9.651  14.287
17989SOL    HW155799   4.347   9.683  14.202
17989SOL    HW255800   4.354   9.712  14.351
17990SOL     OW55801   1.925  14.509  11.575
17990SOL    HW155802   1.996  14.523  11.513
17990SOL    HW255803   1.947  14.563  11.651
17991SOL     OW55804  11.769  13.339   0.306
17991SOL    HW155805  11.726  13.419   0.277
17991SOL    HW255806  11.715  13.268   0.270
17992SOL     OW55807  11.947   2.390   7.532
17992SOL    HW155808  12.042   2.382   7.521
17992SOL    HW255809  11.912   2.390   7.443
17993SOL     OW55810   0.635   1.584   4.368
17993SOL    HW155811   0.637   1.593   4.273
17993SOL    HW255812   0.672   1.667   4.400
17994SOL     OW55813  10.475   8.347   3.380
17994SOL    HW155814  10.437   8.434   3.394
17994SOL    HW255815  10.523   8.355   3.297
17995SOL     OW55816   4.907   8.519   4.113
17995SOL    HW155817   4.983   8.577   4.111
17995SOL    HW255818   4.859   8.543   4.192
17996SOL     OW55819   0.900   3.834   0.523
17996SOL    HW155820   0.977   3.792   0.563
17996SOL    HW255821   0.904   3.924   0.555
17997SOL     OW55822   7.338  12.147   8.615
17997SOL    HW155823   7.279  12.201   8.562
17997SOL    HW255824   7.426  12.177   8.591
17998SOL     OW55825   8.018  12.282   0.814
17998SOL    HW155826   7.944  12.321   0.768
17998SOL    HW255827   8.089  12.345   0.804
17999SOL     OW55828   5.537  10.078   8.940
17999SOL    HW155829   5.508  10.160   8.979
17999SOL    HW255830   5.458  10.024   8.936
18000SOL     OW55831   5.490  10.027   6.287
18000SOL    HW155832   5.460  10.095   6.227
18000SOL    HW255833   5.570  10.062   6.326
18001SOL     OW55834   8.784   1.056  11.054
18001SOL    HW155835   8.732   1.020  11.125
18001SOL    HW255836   8.775   0.992  10.983
18002SOL     OW55837   8.051   9.033   0.057
18002SOL    HW155838   8.042   9.100   0.125
18002SOL    HW255839   8.073   8.953   0.104
18003SOL     OW55840  14.640  10.320   0.678
18003SOL    HW155841  14.582  10.285   0.746
18003SOL    HW255842  14.666  10.406   0.712
18004SOL     OW55843  14.713   4.538   6.046
18004SOL    HW155844  14.711   4.457   6.098
18004SOL    HW255845  14.801   4.572   6.059
18005SOL     OW55846   1.669   4.874   1.265
18005SOL    HW155847   1.677   4.821   1.344
18005SOL    HW255848   1.615   4.949   1.291
18006SOL     OW55849   9.606   1.614  14.120
18006SOL    HW155850   9.535   1.598  14.181
18006SOL    HW255851   9.585   1.561  14.043
18007SOL     OW55852   3.062   0.973   8.678
18007SOL    HW155853   2.980   0.934   8.648
18007SOL    HW255854   3.041   1.010   8.764
18008SOL     OW55855   5.695   2.085  11.726
18008SOL    HW155856   5.634   2.123  11.790
18008SOL    HW255857   5.772   2.062  11.777
18009SOL     OW55858  10.965  14.117   9.053
18009SOL    HW155859  10.914  14.119   9.134
18009SOL    HW255860  10.910  14.161   8.988
18010SOL     OW55861   2.393   2.296   5.396
18010SOL    HW155862   2.431   2.376   5.432
18010SOL    HW255863   2.346   2.324   5.317
18011SOL     OW55864   6.187  14.242   6.833
18011SOL    HW155865   6.097  14.209   6.831
18011SOL    HW255866   6.200  14.269   6.924
18012SOL     OW55867   1.169  12.082   4.581
18012SOL    HW155868   1.229  12.101   4.509
18012SOL    HW255869   1.139  11.993   4.564
18013SOL     OW55870  11.012   6.900  11.695
18013SOL    HW155871  10.990   6.880  11.604
18013SOL    HW255872  11.108   6.895  11.698
18014SOL     OW55873  14.866   3.665   3.170
18014SOL    HW155874   0.003   3.676   3.076
18014SOL    HW255875  14.782   3.707   3.191
18015SOL     OW55876   8.650  13.344   6.436
18015SOL    HW155877   8.641  13.419   6.378
18015SOL    HW255878   8.654  13.268   6.378
18016SOL     OW55879   4.431   6.547   6.989
18016SOL    HW155880   4.354   6.579   7.034
18016SOL    HW255881   4.410   6.555   6.896
18017SOL     OW55882   2.297  10.079   0.476
18017SOL    HW155883   2.275  10.093   0.384
18017SOL    HW255884   2.216  10.100   0.523
18018SOL     OW55885   2.158   2.786   9.298
18018SOL    HW155886   2.158   2.790   9.394
18018SOL    HW255887   2.081   2.835   9.272
18019SOL     OW55888   9.396  13.476   6.433
18019SOL    HW155889   9.331  13.526   6.384
18019SOL    HW255890   9.441  13.424   6.367
18020SOL     OW55891  11.703   7.978   3.171
18020SOL    HW155892  11.650   7.947   3.098
18020SOL    HW255893  11.646   7.970   3.247
18021SOL     OW55894   6.658  13.143  14.797
18021SOL    HW155895   6.681  13.205  14.727
18021SOL    HW255896   6.605  13.076  14.754
18022SOL     OW55897   1.454   0.827   3.652
18022SOL    HW155898   1.482   0.893   3.715
18022SOL    HW255899   1.438   0.876   3.571
18023SOL     OW55900  11.607   9.310  14.642
18023SOL    HW155901  11.671   9.332  14.710
18023SOL    HW255902  11.636   9.357  14.564
18024SOL     OW55903  10.014   9.837   6.259
18024SOL    HW155904  10.008   9.912   6.318
18024SOL    HW255905   9.924   9.809   6.245
18025SOL     OW55906   3.584   8.258   4.092
18025SOL    HW155907   3.662   8.273   4.146
18025SOL    HW255908   3.516   8.237   4.156
18026SOL     OW55909   7.207   4.216   5.010
18026SOL    HW155910   7.200   4.181   4.921
18026SOL    HW255911   7.222   4.139   5.065
18027SOL     OW55912   6.642   9.981  13.845
18027SOL    HW155913   6.661   9.888  13.838
18027SOL    HW255914   6.635   9.999  13.938
18028SOL     OW55915  10.666   3.853   6.401
18028SOL    HW155916  10.745   3.901   6.422
18028SOL    HW255917  10.643   3.880   6.312
18029SOL     OW55918   8.885   9.520   1.522
18029SOL    HW155919   8.816   9.475   1.571
18029SOL    HW255920   8.964   9.468   1.539
18030SOL     OW55921  11.671   7.709  14.539
18030SOL    HW155922  11.617   7.676  14.468
18030SOL    HW255923  11.702   7.795  14.509
18031SOL     OW55924   3.292   8.790   8.264
18031SOL    HW155925   3.383   8.763   8.257
18031SOL    HW255926   3.295   8.885   8.270
18032SOL     OW55927   1.477   0.657   4.406
18032SOL    HW155928   1.553   0.641   4.463
18032SOL    HW255929   1.502   0.733   4.354
18033SOL     OW55930   3.013   6.584  13.134
18033SOL    HW155931   3.036   6.666  13.089
18033SOL    HW255932   3.086   6.569  13.194
18034SOL     OW55933  10.262   4.929  14.101
18034SOL    HW155934  10.192   4.987  14.132
18034SOL    HW255935  10.320   4.986  14.051
18035SOL     OW55936   2.337   2.502   2.329
18035SOL    HW155937   2.403   2.537   2.389
18035SOL    HW255938   2.266   2.473   2.386
18036SOL     OW55939   2.601   7.283   1.626
18036SOL    HW155940   2.517   7.290   1.582
18036SOL    HW255941   2.639   7.371   1.620
18037SOL     OW55942   9.717   1.116   0.079
18037SOL    HW155943   9.694   1.161  14.870
18037SOL    HW255944   9.812   1.120   0.082
18038SOL     OW55945   7.569   0.704   9.185
18038SOL    HW155946   7.623   0.694   9.264
18038SOL    HW255947   7.505   0.632   9.191
18039SOL     OW55948   0.951   0.735   3.884
18039SOL    HW155949   0.910   0.747   3.798
18039SOL    HW255950   1.032   0.786   3.878
18040SOL     OW55951   9.564  11.711  13.361
18040SOL    HW155952   9.495  11.650  13.335
18040SOL    HW255953   9.589  11.682  13.449
18041SOL     OW55954   6.196   2.675   6.196
18041SOL    HW155955   6.211   2.606   6.132
18041SOL    HW255956   6.265   2.663   6.261
18042SOL     OW55957   0.037   1.067   3.702
18042SOL    HW155958   0.011   1.151   3.738
18042SOL    HW255959   0.132   1.072   3.694
18043SOL     OW55960   0.096   7.958   5.911
18043SOL    HW155961   0.119   8.047   5.882
18043SOL    HW255962   0.001   7.953   5.898
18044SOL     OW55963   3.969  14.801  13.634
18044SOL    HW155964   3.958  14.825  13.726
18044SOL    HW255965   4.003  14.711  13.637
18045SOL     OW55966   9.858   3.442   8.934
18045SOL    HW155967   9.903   3.446   9.019
18045SOL    HW255968   9.873   3.353   8.903
18046SOL     OW55969  14.291   9.428   2.484
18046SOL    HW155970  14.239   9.363   2.532
18046SOL    HW255971  14.275   9.510   2.530
18047SOL     OW55972   9.724   7.671   3.143
18047SOL    HW155973   9.661   7.659   3.215
18047SOL    HW255974   9.799   7.617   3.169
18048SOL     OW55975  13.531   0.420   8.688
18048SOL    HW155976  13.492   0.424   8.775
18048SOL    HW255977  13.507   0.503   8.646
18049SOL     OW55978   5.117   6.596  10.357
18049SOL    HW155979   5.159   6.677  10.385
18049SOL    HW255980   5.028   6.601  10.393
18050SOL     OW55981   9.268   3.906   8.934
18050SOL    HW155982   9.273   3.831   8.993
18050SOL    HW255983   9.181   3.942   8.947
18051SOL     OW55984   5.273  12.542   7.167
18051SOL    HW155985   5.354  12.588   7.189
18051SOL    HW255986   5.256  12.485   7.242
18052SOL     OW55987   0.523   9.478   4.729
18052SOL    HW155988   0.583   9.470   4.655
18052SOL    HW255989   0.491   9.388   4.743
18053SOL     OW55990   2.113  10.355   8.963
18053SOL    HW155991   2.171  10.430   8.978
18053SOL    HW255992   2.173  10.280   8.956
18054SOL     OW55993   7.235   2.072   8.347
18054SOL    HW155994   7.261   2.052   8.437
18054SOL    HW255995   7.144   2.043   8.341
18055SOL     OW55996  11.477   7.138   8.827
18055SOL    HW155997  11.428   7.056   8.837
18055SOL    HW255998  11.411   7.207   8.830
18056SOL     OW55999  14.079  10.419  10.678
18056SOL    HW156000  14.003  10.398  10.733
18056SOL    HW256001  14.129  10.337  10.675
18057SOL     OW56002   8.467   5.444  13.584
18057SOL    HW156003   8.378   5.411  13.569
18057SOL    HW256004   8.464   5.485  13.670
18058SOL     OW56005   3.821   7.113   6.168
18058SOL    HW156006   3.732   7.141   6.144
18058SOL    HW256007   3.868   7.108   6.085
18059SOL     OW56008   8.682   9.094  14.040
18059SOL    HW156009   8.735   9.109  13.962
18059SOL    HW256010   8.675   9.179  14.082
18060SOL     OW56011   2.137   0.455   2.168
18060SOL    HW156012   2.095   0.416   2.245
18060SOL    HW256013   2.084   0.532   2.148
18061SOL     OW56014   0.627   1.445  10.098
18061SOL    HW156015   0.637   1.534  10.131
18061SOL    HW256016   0.537   1.442  10.065
18062SOL     OW56017   5.834   8.409   7.709
18062SOL    HW156018   5.844   8.315   7.725
18062SOL    HW256019   5.812   8.415   7.616
18063SOL     OW56020   0.859   3.218   0.297
18063SOL    HW156021   0.768   3.240   0.315
18063SOL    HW256022   0.907   3.242   0.376
18064SOL     OW56023   6.926   6.792  14.359
18064SOL    HW156024   6.934   6.699  14.380
18064SOL    HW256025   6.832   6.804  14.343
18065SOL     OW56026  11.381   7.849   0.699
18065SOL    HW156027  11.393   7.932   0.744
18065SOL    HW256028  11.470   7.817   0.683
18066SOL     OW56029   9.777  14.192   7.682
18066SOL    HW156030   9.686  14.165   7.678
18066SOL    HW256031   9.784  14.241   7.764
18067SOL     OW56032  14.673  13.079  14.479
18067SOL    HW156033  14.589  13.075  14.526
18067SOL    HW256034  14.700  13.170  14.487
18068SOL     OW56035   2.698   6.477   1.334
18068SOL    HW156036   2.627   6.541   1.327
18068SOL    HW256037   2.745   6.502   1.413
18069SOL     OW56038   6.251   3.608   2.569
18069SOL    HW156039   6.345   3.600   2.584
18069SOL    HW256040   6.211   3.578   2.651
18070SOL     OW56041  14.833  10.664   0.011
18070SOL    HW156042  14.856  10.598   0.076
18070SOL    HW256043  14.825  10.615  14.801
18071SOL     OW56044  10.316  14.576   3.434
18071SOL    HW156045  10.226  14.543   3.436
18071SOL    HW256046  10.332  14.593   3.341
18072SOL     OW56047  10.828   8.085  12.942
18072SOL    HW156048  10.878   8.014  12.903
18072SOL    HW256049  10.881   8.114  13.017
18073SOL     OW56050  10.561  13.070   6.719
18073SOL    HW156051  10.630  13.131   6.744
18073SOL    HW256052  10.491  13.085   6.783
18074SOL     OW56053   4.791   3.459   6.103
18074SOL    HW156054   4.841   3.433   6.180
18074SOL    HW256055   4.708   3.490   6.138
18075SOL     OW56056   7.042  13.696  14.594
18075SOL    HW156057   6.959  13.649  14.598
18075SOL    HW256058   7.033  13.767  14.658
18076SOL     OW56059  12.325   0.668   3.374
18076SOL    HW156060  12.288   0.581   3.359
18076SOL    HW256061  12.392   0.654   3.441
18077SOL     OW56062   5.276   6.161  13.512
18077SOL    HW156063   5.247   6.096  13.448
18077SOL    HW256064   5.304   6.109  13.588
18078SOL     OW56065   9.611   9.804   2.063
18078SOL    HW156066   9.602   9.865   1.990
18078SOL    HW256067   9.705   9.798   2.078
18079SOL     OW56068  13.049   0.354  10.559
18079SOL    HW156069  13.096   0.351  10.642
18079SOL    HW256070  13.056   0.445  10.531
18080SOL     OW56071   7.384   6.501   2.771
18080SOL    HW156072   7.443   6.443   2.820
18080SOL    HW256073   7.338   6.442   2.712
18081SOL     OW56074   7.389   3.010  13.281
18081SOL    HW156075   7.325   3.074  13.248
18081SOL    HW256076   7.345   2.969  13.355
18082SOL     OW56077   6.035  10.914   3.265
18082SOL    HW156078   5.941  10.930   3.253
18082SOL    HW256079   6.065  10.986   3.320
18083SOL     OW56080  12.930   2.238   9.259
18083SOL    HW156081  12.912   2.311   9.317
18083SOL    HW256082  12.900   2.161   9.307
18084SOL     OW56083   9.465   7.407  13.233
18084SOL    HW156084   9.511   7.376  13.311
18084SOL    HW256085   9.482   7.340  13.167
18085SOL     OW56086   7.736   7.028   5.327
18085SOL    HW156087   7.677   7.029   5.402
18085SOL    HW256088   7.735   7.118   5.294
18086SOL     OW56089   8.781   9.874   7.509
18086SOL    HW156090   8.725   9.805   7.545
18086SOL    HW256091   8.861   9.869   7.561
18087SOL     OW56092   7.608  14.291   3.840
18087SOL    HW156093   7.692  14.331   3.815
18087SOL    HW256094   7.588  14.329   3.926
18088SOL     OW56095   3.399   7.388  13.325
18088SOL    HW156096   3.358   7.473  13.343
18088SOL    HW256097   3.453   7.404  13.247
18089SOL     OW56098   8.466   4.282   6.552
18089SOL    HW156099   8.429   4.210   6.501
18089SOL    HW256100   8.427   4.361   6.515
18090SOL     OW56101   0.213  14.733   3.744
18090SOL    HW156102   0.257  14.791   3.682
18090SOL    HW256103   0.136  14.702   3.696
18091SOL     OW56104   4.007  13.460  11.838
18091SOL    HW156105   3.957  13.512  11.776
18091SOL    HW256106   3.993  13.502  11.922
18092SOL     OW56107   9.909  11.458   2.816
18092SOL    HW156108   9.879  11.383   2.765
18092SOL    HW256109   9.873  11.444   2.904
18093SOL     OW56110  13.052  14.057   6.337
18093SOL    HW156111  13.116  14.018   6.396
18093SOL    HW256112  13.062  14.008   6.255
18094SOL     OW56113  13.045   6.504  14.516
18094SOL    HW156114  12.999   6.522  14.434
18094SOL    HW256115  13.130   6.469  14.488
18095SOL     OW56116  10.856  14.632   6.050
18095SOL    HW156117  10.835  14.677   5.967
18095SOL    HW256118  10.800  14.555   6.050
18096SOL     OW56119  11.445   7.077   9.436
18096SOL    HW156120  11.503   7.140   9.393
18096SOL    HW256121  11.363   7.082   9.387
18097SOL     OW56122   7.168   3.760   6.601
18097SOL    HW156123   7.089   3.810   6.625
18097SOL    HW256124   7.134   3.679   6.562
18098SOL     OW56125   6.082  11.137   7.217
18098SOL    HW156126   6.059  11.095   7.300
18098SOL    HW256127   6.088  11.230   7.238
18099SOL     OW56128   2.655   9.519   3.611
18099SOL    HW156129   2.681   9.427   3.602
18099SOL    HW256130   2.616   9.541   3.527
18100SOL     OW56131   9.882  10.193  14.357
18100SOL    HW156132   9.813  10.215  14.420
18100SOL    HW256133   9.836  10.149  14.286
18101SOL     OW56134  11.958   2.421  13.148
18101SOL    HW156135  11.997   2.416  13.236
18101SOL    HW256136  11.935   2.331  13.126
18102SOL     OW56137   0.208   3.687   8.705
18102SOL    HW156138   0.116   3.713   8.719
18102SOL    HW256139   0.250   3.767   8.673
18103SOL     OW56140  10.778   6.491   6.378
18103SOL    HW156141  10.854   6.468   6.324
18103SOL    HW256142  10.724   6.547   6.322
18104SOL     OW56143  14.252   1.593   3.269
18104SOL    HW156144  14.193   1.553   3.205
18104SOL    HW256145  14.310   1.649   3.217
18105SOL     OW56146  14.693   7.588   4.897
18105SOL    HW156147  14.727   7.530   4.830
18105SOL    HW256148  14.600   7.568   4.903
18106SOL     OW56149  10.649  12.376   9.951
18106SOL    HW156150  10.625  12.380  10.044
18106SOL    HW256151  10.579  12.425   9.907
18107SOL     OW56152  13.817  10.125   8.180
18107SOL    HW156153  13.786  10.079   8.258
18107SOL    HW256154  13.800  10.217   8.197
18108SOL     OW56155   6.158   3.003   4.789
18108SOL    HW156156   6.226   2.937   4.775
18108SOL    HW256157   6.089   2.957   4.837
18109SOL     OW56158  12.781   5.921   0.804
18109SOL    HW156159  12.779   6.010   0.839
18109SOL    HW256160  12.822   5.869   0.873
18110SOL     OW56161   9.348   0.066  10.059
18110SOL    HW156162   9.366   0.006  10.132
18110SOL    HW256163   9.334   0.009   9.984
18111SOL     OW56164  12.212   6.145   4.054
18111SOL    HW156165  12.139   6.192   4.093
18111SOL    HW256166  12.277   6.213   4.035
18112SOL     OW56167  10.173   9.778   1.582
18112SOL    HW156168  10.129   9.752   1.501
18112SOL    HW256169  10.221   9.700   1.609
18113SOL     OW56170   2.213   6.873   0.704
18113SOL    HW156171   2.118   6.873   0.697
18113SOL    HW256172   2.230   6.903   0.794
18114SOL     OW56173  12.261  12.554   1.702
18114SOL    HW156174  12.329  12.490   1.679
18114SOL    HW256175  12.181  12.519   1.663
18115SOL     OW56176  10.660   1.353   8.580
18115SOL    HW156177  10.713   1.330   8.504
18115SOL    HW256178  10.721   1.399   8.638
18116SOL     OW56179   2.670  11.140   5.909
18116SOL    HW156180   2.643  11.063   5.859
18116SOL    HW256181   2.592  11.195   5.913
18117SOL     OW56182  10.821  12.831  12.902
18117SOL    HW156183  10.784  12.894  12.841
18117SOL    HW256184  10.793  12.861  12.988
18118SOL     OW56185   9.175   6.416   8.795
18118SOL    HW156186   9.127   6.369   8.727
18118SOL    HW256187   9.267   6.406   8.772
18119SOL     OW56188  11.495   7.942  10.497
18119SOL    HW156189  11.477   7.912  10.586
18119SOL    HW256190  11.424   7.905  10.444
18120SOL     OW56191  14.477   7.394   0.440
18120SOL    HW156192  14.413   7.459   0.469
18120SOL    HW256193  14.424   7.323   0.402
18121SOL     OW56194  10.133  12.798   1.868
18121SOL    HW156195  10.054  12.756   1.903
18121SOL    HW256196  10.204  12.762   1.922
18122SOL     OW56197   6.647   7.195   2.078
18122SOL    HW156198   6.600   7.224   2.156
18122SOL    HW256199   6.580   7.154   2.023
18123SOL     OW56200   7.676  11.528   9.567
18123SOL    HW156201   7.689  11.502   9.658
18123SOL    HW256202   7.601  11.587   9.569
18124SOL     OW56203   6.908  13.909  12.177
18124SOL    HW156204   6.854  13.834  12.202
18124SOL    HW256205   6.893  13.973  12.247
18125SOL     OW56206   7.150   5.272   2.028
18125SOL    HW156207   7.061   5.276   1.993
18125SOL    HW256208   7.180   5.363   2.028
18126SOL     OW56209   2.314  14.339   8.252
18126SOL    HW156210   2.332  14.286   8.175
18126SOL    HW256211   2.369  14.302   8.321
18127SOL     OW56212  14.770  14.104  13.330
18127SOL    HW156213  14.821  14.055  13.265
18127SOL    HW256214  14.710  14.039  13.367
18128SOL     OW56215   6.292   2.053   2.245
18128SOL    HW156216   6.321   2.143   2.255
18128SOL    HW256217   6.263   2.027   2.332
18129SOL     OW56218   9.902   4.140  11.000
18129SOL    HW156219   9.964   4.092  11.056
18129SOL    HW256220   9.951   4.156  10.920
18130SOL     OW56221   2.692   4.490  14.647
18130SOL    HW156222   2.761   4.533  14.698
18130SOL    HW256223   2.682   4.404  14.687
18131SOL     OW56224   2.390   2.042   0.230
18131SOL    HW156225   2.299   2.051   0.200
18131SOL    HW256226   2.438   2.110   0.184
18132SOL     OW56227   8.230  14.758  14.323
18132SOL    HW156228   8.184  14.732  14.403
18132SOL    HW256229   8.221  14.683  14.264
18133SOL     OW56230   5.940   8.646  10.124
18133SOL    HW156231   5.967   8.575  10.181
18133SOL    HW256232   5.959   8.615  10.036
18134SOL     OW56233   5.753   3.596  11.405
18134SOL    HW156234   5.750   3.501  11.392
18134SOL    HW256235   5.723   3.609  11.495
18135SOL     OW56236   0.087   1.188   4.873
18135SOL    HW156237   0.066   1.269   4.827
18135SOL    HW256238   0.003   1.159   4.910
18136SOL     OW56239   9.926  14.601   5.368
18136SOL    HW156240  10.003  14.577   5.316
18136SOL    HW256241   9.915  14.529   5.429
18137SOL     OW56242   6.762   7.121  11.940
18137SOL    HW156243   6.771   7.158  11.853
18137SOL    HW256244   6.690   7.058  11.932
18138SOL     OW56245   1.270   7.264  12.671
18138SOL    HW156246   1.258   7.341  12.615
18138SOL    HW256247   1.348   7.284  12.723
18139SOL     OW56248   0.007  13.181   0.441
18139SOL    HW156249  14.799  13.205   0.486
18139SOL    HW256250   0.059  13.261   0.439
18140SOL     OW56251   4.698   6.868   8.514
18140SOL    HW156252   4.747   6.872   8.596
18140SOL    HW256253   4.745   6.927   8.455
18141SOL     OW56254   5.869  13.440   8.200
18141SOL    HW156255   5.863  13.392   8.283
18141SOL    HW256256   5.955  13.419   8.166
18142SOL     OW56257  11.401   3.068  12.013
18142SOL    HW156258  11.335   3.113  11.960
18142SOL    HW256259  11.401   3.116  12.096
18143SOL     OW56260   0.618  14.555  14.407
18143SOL    HW156261   0.527  14.557  14.437
18143SOL    HW256262   0.615  14.510  14.323
18144SOL     OW56263  13.191   0.328   8.296
18144SOL    HW156264  13.172   0.385   8.371
18144SOL    HW256265  13.111   0.276   8.285
18145SOL     OW56266   1.339   2.849   6.113
18145SOL    HW156267   1.403   2.888   6.053
18145SOL    HW256268   1.300   2.778   6.063
18146SOL     OW56269   8.484   0.608   2.849
18146SOL    HW156270   8.550   0.566   2.794
18146SOL    HW256271   8.528   0.625   2.932
18147SOL     OW56272  12.606   2.827   1.271
18147SOL    HW156273  12.685   2.782   1.299
18147SOL    HW256274  12.611   2.913   1.312
18148SOL     OW56275   5.977  11.680   2.448
18148SOL    HW156276   6.021  11.722   2.373
18148SOL    HW256277   5.924  11.611   2.409
18149SOL     OW56278  10.874   9.172   1.924
18149SOL    HW156279  10.852   9.102   1.862
18149SOL    HW256280  10.890   9.249   1.870
18150SOL     OW56281   7.152  11.403   3.879
18150SOL    HW156282   7.133  11.374   3.790
18150SOL    HW256283   7.248  11.398   3.887
18151SOL     OW56284  10.274   6.381  11.890
18151SOL    HW156285  10.250   6.464  11.931
18151SOL    HW256286  10.199   6.360  11.834
18152SOL     OW56287   5.824   3.467   3.648
18152SOL    HW156288   5.868   3.390   3.684
18152SOL    HW256289   5.820   3.528   3.722
18153SOL     OW56290   7.463  11.416   9.284
18153SOL    HW156291   7.511  11.343   9.324
18153SOL    HW256292   7.401  11.375   9.225
18154SOL     OW56293   6.431  10.790  11.790
18154SOL    HW156294   6.447  10.712  11.737
18154SOL    HW256295   6.485  10.778  11.868
18155SOL     OW56296   3.393   8.758   0.815
18155SOL    HW156297   3.415   8.814   0.740
18155SOL    HW256298   3.298   8.764   0.823
18156SOL     OW56299   0.100   4.115  12.319
18156SOL    HW156300   0.124   4.101  12.228
18156SOL    HW256301   0.099   4.210  12.329
18157SOL     OW56302  11.016  11.270  10.980
18157SOL    HW156303  10.967  11.342  10.940
18157SOL    HW256304  10.957  11.235  11.047
18158SOL     OW56305   3.627   1.651  12.328
18158SOL    HW156306   3.692   1.721  12.324
18158SOL    HW256307   3.548   1.693  12.363
18159SOL     OW56308   7.568   8.873   2.074
18159SOL    HW156309   7.587   8.787   2.114
18159SOL    HW256310   7.473   8.874   2.065
18160SOL     OW56311  14.243   4.269   6.443
18160SOL    HW156312  14.297   4.336   6.402
18160SOL    HW256313  14.155   4.283   6.408
18161SOL     OW56314  13.999  14.075   5.474
18161SOL    HW156315  14.020  14.164   5.444
18161SOL    HW256316  14.035  14.070   5.562
18162SOL     OW56317   9.957   9.050   6.197
18162SOL    HW156318  10.024   9.118   6.192
18162SOL    HW256319   9.875   9.096   6.181
18163SOL     OW56320   7.985   4.358   5.973
18163SOL    HW156321   7.932   4.289   6.013
18163SOL    HW256322   7.920   4.421   5.940
18164SOL     OW56323   9.033  11.800   7.867
18164SOL    HW156324   8.973  11.768   7.801
18164SOL    HW256325   8.980  11.807   7.946
18165SOL     OW56326   1.157  12.067   5.196
18165SOL    HW156327   1.155  12.162   5.208
18165SOL    HW256328   1.119  12.053   5.109
18166SOL     OW56329   0.592   2.141   7.495
18166SOL    HW156330   0.534   2.197   7.547
18166SOL    HW256331   0.535   2.070   7.465
18167SOL     OW56332   0.161   9.449  13.920
18167SOL    HW156333   0.157   9.484  14.009
18167SOL    HW256334   0.087   9.389  13.915
18168SOL     OW56335   0.302   4.576   6.311
18168SOL    HW156336   0.217   4.621   6.312
18168SOL    HW256337   0.295   4.512   6.382
18169SOL     OW56338   7.199   2.765  14.254
18169SOL    HW156339   7.139   2.746  14.326
18169SOL    HW256340   7.248   2.683  14.241
18170SOL     OW56341   6.825   5.443   0.788
18170SOL    HW156342   6.907   5.415   0.829
18170SOL    HW256343   6.784   5.499   0.854
18171SOL     OW56344   0.207   8.532  11.587
18171SOL    HW156345   0.152   8.491  11.654
18171SOL    HW256346   0.226   8.619  11.623
18172SOL     OW56347   1.389   1.364  13.329
18172SOL    HW156348   1.415   1.295  13.268
18172SOL    HW256349   1.406   1.328  13.416
18173SOL     OW56350  14.668   7.555   5.362
18173SOL    HW156351  14.752   7.536   5.320
18173SOL    HW256352  14.675   7.513   5.448
18174SOL     OW56353   1.906  10.052   3.223
18174SOL    HW156354   1.877  10.116   3.157
18174SOL    HW256355   1.987  10.088   3.258
18175SOL     OW56356   8.034  12.572   3.260
18175SOL    HW156357   8.032  12.477   3.273
18175SOL    HW256358   8.040  12.583   3.165
18176SOL     OW56359   5.886   4.956  13.051
18176SOL    HW156360   5.970   4.964  13.096
18176SOL    HW256361   5.888   4.869  13.011
18177SOL     OW56362   8.035  13.375  14.633
18177SOL    HW156363   8.084  13.326  14.568
18177SOL    HW256364   8.075  13.352  14.716
18178SOL     OW56365  13.279   8.570   5.547
18178SOL    HW156366  13.279   8.616   5.631
18178SOL    HW256367  13.368   8.578   5.514
18179SOL     OW56368   4.503   2.563   6.114
18179SOL    HW156369   4.437   2.559   6.184
18179SOL    HW256370   4.452   2.558   6.033
18180SOL     OW56371   2.632  13.560  14.556
18180SOL    HW156372   2.585  13.483  14.589
18180SOL    HW256373   2.607  13.631  14.615
18181SOL     OW56374   8.666   4.556  12.893
18181SOL    HW156375   8.706   4.541  12.808
18181SOL    HW256376   8.700   4.641  12.921
18182SOL     OW56377   2.781   6.338   2.611
18182SOL    HW156378   2.848   6.289   2.564
18182SOL    HW256379   2.699   6.318   2.564
18183SOL     OW56380  14.126   8.524   4.323
18183SOL    HW156381  14.142   8.601   4.267
18183SOL    HW256382  14.118   8.561   4.411
18184SOL     OW56383   4.372   3.910   4.370
18184SOL    HW156384   4.300   3.957   4.413
18184SOL    HW256385   4.328   3.839   4.322
18185SOL     OW56386  11.385   2.389   2.362
18185SOL    HW156387  11.331   2.457   2.323
18185SOL    HW256388  11.444   2.362   2.291
18186SOL     OW56389   8.312   1.592  10.320
18186SOL    HW156390   8.396   1.636  10.308
18186SOL    HW256391   8.257   1.626  10.249
18187SOL     OW56392   7.078   0.862   1.833
18187SOL    HW156393   7.012   0.893   1.895
18187SOL    HW256394   7.118   0.942   1.798
18188SOL     OW56395  11.657   6.417   3.682
18188SOL    HW156396  11.563   6.401   3.691
18188SOL    HW256397  11.664   6.511   3.666
18189SOL     OW56398   8.456  12.662   0.688
18189SOL    HW156399   8.396  12.718   0.640
18189SOL    HW256400   8.436  12.679   0.780
18190SOL     OW56401  12.411  10.796  12.400
18190SOL    HW156402  12.482  10.833  12.346
18190SOL    HW256403  12.443  10.709  12.425
18191SOL     OW56404   8.357  13.582  12.171
18191SOL    HW156405   8.366  13.493  12.137
18191SOL    HW256406   8.444  13.604  12.204
18192SOL     OW56407   6.453   2.140   9.538
18192SOL    HW156408   6.375   2.088   9.517
18192SOL    HW256409   6.514   2.077   9.576
18193SOL     OW56410  12.972   2.339  10.798
18193SOL    HW156411  13.019   2.384  10.728
18193SOL    HW256412  12.882   2.334  10.767
18194SOL     OW56413   2.120  10.313   2.178
18194SOL    HW156414   2.109  10.356   2.093
18194SOL    HW256415   2.151  10.225   2.156
18195SOL     OW56416  12.008   9.502   0.689
18195SOL    HW156417  12.053   9.451   0.621
18195SOL    HW256418  11.989   9.439   0.758
18196SOL     OW56419   4.807  12.005   7.349
18196SOL    HW156420   4.882  12.056   7.379
18196SOL    HW256421   4.793  12.034   7.258
18197SOL     OW56422  12.439  10.001   1.031
18197SOL    HW156423  12.408   9.911   1.024
18197SOL    HW256424  12.516   9.996   1.088
18198SOL     OW56425   2.805  12.180   9.703
18198SOL    HW156426   2.783  12.273   9.702
18198SOL    HW256427   2.871  12.170   9.634
18199SOL     OW56428  14.579   7.690  10.670
18199SOL    HW156429  14.576   7.746  10.593
18199SOL    HW256430  14.488   7.663  10.684
18200SOL     OW56431  13.815  14.158  12.202
18200SOL    HW156432  13.817  14.083  12.142
18200SOL    HW256433  13.747  14.136  12.265
18201SOL     OW56434  10.301   2.822  14.167
18201SOL    HW156435  10.356   2.868  14.104
18201SOL    HW256436  10.319   2.864  14.251
18202SOL     OW56437  13.053  13.477   1.341
18202SOL    HW156438  13.128  13.419   1.345
18202SOL    HW256439  12.996  13.448   1.411
18203SOL     OW56440   6.514   5.838   8.618
18203SOL    HW156441   6.493   5.785   8.542
18203SOL    HW256442   6.570   5.908   8.584
18204SOL     OW56443   9.064   6.909   2.022
18204SOL    HW156444   9.085   6.815   2.022
18204SOL    HW256445   8.971   6.912   2.042
18205SOL     OW56446   1.710   8.260   2.024
18205SOL    HW156447   1.708   8.290   1.933
18205SOL    HW256448   1.782   8.308   2.064
18206SOL     OW56449  14.339  13.178   1.038
18206SOL    HW156450  14.430  13.149   1.041
18206SOL    HW256451  14.322  13.193   0.945
18207SOL     OW56452  11.330   8.584   5.813
18207SOL    HW156453  11.341   8.606   5.906
18207SOL    HW256454  11.241   8.613   5.793
18208SOL     OW56455   4.244   7.861   6.417
18208SOL    HW156456   4.305   7.895   6.352
18208SOL    HW256457   4.274   7.772   6.434
18209SOL     OW56458   0.954   3.205   7.380
18209SOL    HW156459   0.908   3.132   7.338
18209SOL    HW256460   0.980   3.170   7.465
18210SOL     OW56461   4.129   2.583   5.685
18210SOL    HW156462   4.196   2.601   5.620
18210SOL    HW256463   4.138   2.490   5.704
18211SOL     OW56464   5.253  13.586  12.964
18211SOL    HW156465   5.307  13.559  12.890
18211SOL    HW256466   5.166  13.552  12.944
18212SOL     OW56467  14.594   4.438  12.055
18212SOL    HW156468  14.547   4.491  12.119
18212SOL    HW256469  14.615   4.357  12.101
18213SOL     OW56470   9.155  13.300   7.649
18213SOL    HW156471   9.172  13.341   7.564
18213SOL    HW256472   9.096  13.361   7.693
18214SOL     OW56473   2.840  14.236   0.737
18214SOL    HW156474   2.930  14.227   0.707
18214SOL    HW256475   2.811  14.146   0.753
18215SOL     OW56476   8.516   9.068  13.597
18215SOL    HW156477   8.425   9.096  13.606
18215SOL    HW256478   8.555   9.133  13.538
18216SOL     OW56479   8.392   2.445   2.445
18216SOL    HW156480   8.441   2.369   2.476
18216SOL    HW256481   8.317   2.452   2.504
18217SOL     OW56482   7.021  10.002  10.223
18217SOL    HW156483   7.052   9.917  10.255
18217SOL    HW256484   7.025   9.995  10.128
18218SOL     OW56485   1.832  12.494   8.341
18218SOL    HW156486   1.795  12.580   8.321
18218SOL    HW256487   1.771  12.432   8.301
18219SOL     OW56488  14.468  11.443  13.957
18219SOL    HW156489  14.423  11.381  14.015
18219SOL    HW256490  14.412  11.520  13.955
18220SOL     OW56491   1.831   8.900   2.860
18220SOL    HW156492   1.841   8.927   2.769
18220SOL    HW256493   1.901   8.835   2.873
18221SOL     OW56494   5.428   3.215   2.362
18221SOL    HW156495   5.395   3.278   2.298
18221SOL    HW256496   5.471   3.268   2.429
18222SOL     OW56497  11.166  10.889   8.840
18222SOL    HW156498  11.261  10.886   8.847
18222SOL    HW256499  11.145  10.982   8.844
18223SOL     OW56500   3.193   3.866  12.452
18223SOL    HW156501   3.264   3.807  12.477
18223SOL    HW256502   3.236   3.933  12.398
18224SOL     OW56503   5.512  13.521   4.691
18224SOL    HW156504   5.608  13.526   4.694
18224SOL    HW256505   5.483  13.607   4.719
18225SOL     OW56506  11.008   4.413   4.485
18225SOL    HW156507  10.937   4.348   4.490
18225SOL    HW256508  10.989   4.463   4.406
18226SOL     OW56509   5.218   7.272   0.703
18226SOL    HW156510   5.302   7.227   0.715
18226SOL    HW256511   5.156   7.218   0.752
18227SOL     OW56512   1.966   5.951   0.047
18227SOL    HW156513   2.032   5.925  14.856
18227SOL    HW256514   1.892   5.892   0.032
18228SOL     OW56515   0.521   8.307   6.944
18228SOL    HW156516   0.480   8.221   6.938
18228SOL    HW256517   0.557   8.323   6.857
18229SOL     OW56518   9.107  12.999   1.766
18229SOL    HW156519   9.041  13.000   1.696
18229SOL    HW256520   9.138  13.089   1.772
18230SOL     OW56521  13.139  14.719   1.136
18230SOL    HW156522  13.079  14.650   1.108
18230SOL    HW256523  13.186  14.744   1.056
18231SOL     OW56524  12.818   6.154   3.677
18231SOL    HW156525  12.880   6.137   3.748
18231SOL    HW256526  12.865   6.127   3.598
18232SOL     OW56527   7.773  14.752   8.647
18232SOL    HW156528   7.719  14.674   8.660
18232SOL    HW256529   7.859  14.727   8.679
18233SOL     OW56530  11.596  13.043   4.778
18233SOL    HW156531  11.615  12.996   4.859
18233SOL    HW256532  11.672  13.026   4.722
18234SOL     OW56533  11.388  12.167   5.501
18234SOL    HW156534  11.419  12.257   5.499
18234SOL    HW256535  11.352  12.152   5.413
18235SOL     OW56536   7.149   4.423  13.447
18235SOL    HW156537   7.241   4.407  13.471
18235SOL    HW256538   7.124   4.501  13.497
18236SOL     OW56539   0.440   4.974  14.870
18236SOL    HW156540   0.510   4.910   0.010
18236SOL    HW256541   0.476   5.056   0.032
18237SOL     OW56542  12.345   6.168   3.515
18237SOL    HW156543  12.433   6.168   3.477
18237SOL    HW256544  12.298   6.100   3.467
18238SOL     OW56545   4.860   0.274  13.682
18238SOL    HW156546   4.845   0.350  13.626
18238SOL    HW256547   4.826   0.299  13.767
18239SOL     OW56548   8.360   2.784   2.175
18239SOL    HW156549   8.414   2.813   2.249
18239SOL    HW256550   8.332   2.696   2.200
18240SOL     OW56551  13.634   6.497   0.685
18240SOL    HW156552  13.629   6.497   0.590
18240SOL    HW256553  13.726   6.478   0.704
18241SOL     OW56554   1.045   0.863   3.224
18241SOL    HW156555   1.024   0.906   3.141
18241SOL    HW256556   1.103   0.791   3.200
18242SOL     OW56557   4.319   4.785   1.500
18242SOL    HW156558   4.404   4.786   1.456
18242SOL    HW256559   4.338   4.816   1.589
18243SOL     OW56560   5.474   0.569   7.002
18243SOL    HW156561   5.535   0.497   6.988
18243SOL    HW256562   5.394   0.542   6.958
18244SOL     OW56563  10.879  12.635   5.431
18244SOL    HW156564  10.923  12.589   5.360
18244SOL    HW256565  10.804  12.677   5.389
18245SOL     OW56566   3.870  11.952  14.720
18245SOL    HW156567   3.912  11.878  14.763
18245SOL    HW256568   3.940  12.017  14.709
18246SOL     OW56569  13.666  10.498  10.952
18246SOL    HW156570  13.719  10.573  10.924
18246SOL    HW256571  13.642  10.518  11.042
18247SOL     OW56572   6.023   2.676   1.015
18247SOL    HW156573   6.028   2.757   0.964
18247SOL    HW256574   5.952   2.626   0.974
18248SOL     OW56575   5.438   3.934   9.803
18248SOL    HW156576   5.364   3.915   9.746
18248SOL    HW256577   5.416   3.890   9.886
18249SOL     OW56578  14.695   6.260   5.358
18249SOL    HW156579  14.658   6.341   5.394
18249SOL    HW256580  14.754   6.289   5.289
18250SOL     OW56581  10.836   3.865  10.280
18250SOL    HW156582  10.879   3.842  10.362
18250SOL    HW256583  10.809   3.956  10.292
18251SOL     OW56584   9.425   8.507  10.486
18251SOL    HW156585   9.499   8.566  10.496
18251SOL    HW256586   9.465   8.423  10.464
18252SOL     OW56587   7.989   4.931  13.421
18252SOL    HW156588   7.903   4.954  13.386
18252SOL    HW256589   8.010   4.847  13.379
18253SOL     OW56590  10.878  13.975  10.676
18253SOL    HW156591  10.945  13.932  10.623
18253SOL    HW256592  10.796  13.956  10.631
18254SOL     OW56593   3.852  12.389   0.823
18254SOL    HW156594   3.927  12.424   0.775
18254SOL    HW256595   3.890  12.347   0.900
18255SOL     OW56596   8.664   6.696   7.753
18255SOL    HW156597   8.597   6.751   7.714
18255SOL    HW256598   8.628   6.671   7.839
18256SOL     OW56599   8.566   5.873  13.157
18256SOL    HW156600   8.558   5.855  13.064
18256SOL    HW256601   8.623   5.804  13.191
18257SOL     OW56602   3.307  14.022   0.162
18257SOL    HW156603   3.352  13.937   0.161
18257SOL    HW256604   3.337  14.063   0.243
18258SOL     OW56605   6.570   5.627   8.104
18258SOL    HW156606   6.608   5.616   8.017
18258SOL    HW256607   6.475   5.623   8.090
18259SOL     OW56608   6.498   3.408   9.945
18259SOL    HW156609   6.559   3.458   9.890
18259SOL    HW256610   6.433   3.472   9.973
18260SOL     OW56611   8.995   2.636   2.014
18260SOL    HW156612   8.998   2.685   2.097
18260SOL    HW256613   9.072   2.579   2.019
18261SOL     OW56614  12.894  14.757   6.606
18261SOL    HW156615  12.977  14.804   6.600
18261SOL    HW256616  12.848  14.799   6.679
18262SOL     OW56617  14.595  14.668   2.903
18262SOL    HW156618  14.552  14.597   2.951
18262SOL    HW256619  14.664  14.698   2.962
18263SOL     OW56620  10.785  10.534   1.443
18263SOL    HW156621  10.803  10.621   1.406
18263SOL    HW256622  10.867  10.486   1.430
18264SOL     OW56623   1.472  13.587   7.459
18264SOL    HW156624   1.395  13.531   7.450
18264SOL    HW256625   1.447  13.650   7.528
18265SOL     OW56626   5.854  14.108   0.221
18265SOL    HW156627   5.898  14.181   0.264
18265SOL    HW256628   5.894  14.104   0.134
18266SOL     OW56629  10.608   4.325   7.581
18266SOL    HW156630  10.693   4.286   7.603
18266SOL    HW256631  10.545   4.253   7.595
18267SOL     OW56632   4.240   7.432   4.236
18267SOL    HW156633   4.320   7.452   4.188
18267SOL    HW256634   4.174   7.491   4.200
18268SOL     OW56635  13.246   3.114   8.952
18268SOL    HW156636  13.335   3.094   8.923
18268SOL    HW256637  13.237   3.069   9.036
18269SOL     OW56638   2.866   7.193   3.998
18269SOL    HW156639   2.814   7.221   3.923
18269SOL    HW256640   2.826   7.110   4.025
18270SOL     OW56641   3.459  13.745   5.784
18270SOL    HW156642   3.373  13.781   5.807
18270SOL    HW256643   3.448  13.650   5.794
18271SOL     OW56644   2.791   0.644   4.676
18271SOL    HW156645   2.741   0.564   4.695
18271SOL    HW256646   2.854   0.618   4.610
18272SOL     OW56647   5.106   5.418   4.062
18272SOL    HW156648   5.031   5.360   4.053
18272SOL    HW256649   5.153   5.409   3.979
18273SOL     OW56650   4.114   9.422   6.835
18273SOL    HW156651   4.027   9.407   6.871
18273SOL    HW256652   4.154   9.335   6.833
18274SOL     OW56653  10.737   7.668  13.215
18274SOL    HW156654  10.802   7.686  13.147
18274SOL    HW256655  10.664   7.628  13.168
18275SOL     OW56656  12.640  13.151   9.151
18275SOL    HW156657  12.647  13.061   9.182
18275SOL    HW256658  12.723  13.192   9.177
18276SOL     OW56659   5.933   2.073  11.869
18276SOL    HW156660   5.984   2.118  11.936
18276SOL    HW256661   5.936   1.981  11.895
18277SOL     OW56662  14.768   4.007  12.032
18277SOL    HW156663  14.699   4.072  12.046
18277SOL    HW256664  14.846   4.047  12.071
18278SOL     OW56665  14.113   0.281  10.043
18278SOL    HW156666  14.116   0.369  10.081
18278SOL    HW256667  14.069   0.292   9.959
18279SOL     OW56668  10.287   5.663   6.825
18279SOL    HW156669  10.358   5.656   6.761
18279SOL    HW256670  10.305   5.593   6.888
18280SOL     OW56671  13.084   2.864   7.956
18280SOL    HW156672  13.085   2.951   7.916
18280SOL    HW256673  13.038   2.876   8.039
18281SOL     OW56674   2.876   8.833  11.169
18281SOL    HW156675   2.834   8.874  11.093
18281SOL    HW256676   2.820   8.856  11.243
18282SOL     OW56677  11.263   6.424  11.898
18282SOL    HW156678  11.254   6.454  11.807
18282SOL    HW256679  11.173   6.418  11.929
18283SOL     OW56680   6.555   0.423  13.172
18283SOL    HW156681   6.525   0.439  13.262
18283SOL    HW256682   6.587   0.508  13.142
18284SOL     OW56683  11.728  11.616   5.132
18284SOL    HW156684  11.657  11.625   5.196
18284SOL    HW256685  11.754  11.706   5.112
18285SOL     OW56686  12.579  14.227  14.281
18285SOL    HW156687  12.665  14.217  14.241
18285SOL    HW256688  12.598  14.237  14.375
18286SOL     OW56689   2.941   0.378  10.974
18286SOL    HW156690   2.955   0.464  10.934
18286SOL    HW256691   2.969   0.390  11.065
18287SOL     OW56692  10.535   7.689  11.497
18287SOL    HW156693  10.532   7.594  11.511
18287SOL    HW256694  10.623   7.706  11.465
18288SOL     OW56695  13.870  13.736   9.508
18288SOL    HW156696  13.818  13.811   9.538
18288SOL    HW256697  13.960  13.759   9.531
18289SOL     OW56698   1.116   2.654   3.072
18289SOL    HW156699   1.107   2.657   3.168
18289SOL    HW256700   1.208   2.633   3.058
18290SOL     OW56701   5.478   7.363  13.753
18290SOL    HW156702   5.399   7.313  13.732
18290SOL    HW256703   5.449   7.428  13.817
18291SOL     OW56704   9.979   0.032   3.473
18291SOL    HW156705   9.959   0.090   3.399
18291SOL    HW256706   9.930  14.824   3.455
18292SOL     OW56707  12.278   1.042   6.163
18292SOL    HW156708  12.320   0.956   6.161
18292SOL    HW256709  12.350   1.104   6.167
18293SOL     OW56710  12.334  12.168   7.382
18293SOL    HW156711  12.371  12.228   7.447
18293SOL    HW256712  12.376  12.084   7.401
18294SOL     OW56713   2.933   3.195  11.404
18294SOL    HW156714   2.952   3.261  11.336
18294SOL    HW256715   2.842   3.172  11.389
18295SOL     OW56716  13.853   5.384  10.007
18295SOL    HW156717  13.868   5.290  10.017
18295SOL    HW256718  13.934   5.417   9.967
18296SOL     OW56719  11.661  12.951   5.026
18296SOL    HW156720  11.584  13.007   5.038
18296SOL    HW256721  11.631  12.864   5.055
18297SOL     OW56722   3.044   3.288  13.930
18297SOL    HW156723   3.002   3.354  13.985
18297SOL    HW256724   3.013   3.205  13.965
18298SOL     OW56725   7.503   2.174   5.283
18298SOL    HW156726   7.569   2.241   5.265
18298SOL    HW256727   7.420   2.221   5.278
18299SOL     OW56728   4.443   8.495   2.008
18299SOL    HW156729   4.539   8.498   2.003
18299SOL    HW256730   4.414   8.497   1.917
18300SOL     OW56731  10.207   1.965   2.762
18300SOL    HW156732  10.252   2.022   2.700
18300SOL    HW256733  10.254   1.882   2.756
18301SOL     OW56734   2.397   0.407   2.533
18301SOL    HW156735   2.356   0.436   2.451
18301SOL    HW256736   2.461   0.476   2.553
18302SOL     OW56737   3.105  10.188  14.046
18302SOL    HW156738   3.177  10.248  14.064
18302SOL    HW256739   3.126  10.150  13.960
18303SOL     OW56740   4.949   3.298   8.408
18303SOL    HW156741   5.011   3.301   8.481
18303SOL    HW256742   5.004   3.308   8.330
18304SOL     OW56743   2.442  13.620   5.264
18304SOL    HW156744   2.508  13.609   5.195
18304SOL    HW256745   2.362  13.584   5.227
18305SOL     OW56746   4.926   5.625   6.427
18305SOL    HW156747   4.957   5.534   6.433
18305SOL    HW256748   4.834   5.617   6.400
18306SOL     OW56749   4.009   9.681  11.848
18306SOL    HW156750   3.993   9.632  11.929
18306SOL    HW256751   3.924   9.718  11.825
18307SOL     OW56752   3.119   3.732  12.155
18307SOL    HW156753   3.214   3.735  12.161
18307SOL    HW256754   3.095   3.642  12.175
18308SOL     OW56755   4.068   3.865   7.503
18308SOL    HW156756   4.104   3.872   7.415
18308SOL    HW256757   4.058   3.771   7.518
18309SOL     OW56758  11.715  12.817  13.706
18309SOL    HW156759  11.750  12.901  13.678
18309SOL    HW256760  11.790  12.772  13.746
18310SOL     OW56761   6.089  14.813  10.539
18310SOL    HW156762   6.119  14.757  10.467
18310SOL    HW256763   6.108   0.030  10.509
18311SOL     OW56764   1.128  10.656  11.468
18311SOL    HW156765   1.064  10.688  11.405
18311SOL    HW256766   1.210  10.647  11.419
18312SOL     OW56767   6.543   7.111   7.822
18312SOL    HW156768   6.494   7.183   7.783
18312SOL    HW256769   6.563   7.054   7.748
18313SOL     OW56770   9.060   9.866   1.277
18313SOL    HW156771   9.037   9.871   1.185
18313SOL    HW256772   9.146   9.909   1.283
18314SOL     OW56773   3.649  12.446   7.992
18314SOL    HW156774   3.642  12.495   7.910
18314SOL    HW256775   3.582  12.484   8.049
18315SOL     OW56776   4.941  12.180   5.117
18315SOL    HW156777   4.961  12.245   5.050
18315SOL    HW256778   4.883  12.118   5.074
18316SOL     OW56779   4.473  13.656  12.377
18316SOL    HW156780   4.435  13.596  12.441
18316SOL    HW256781   4.512  13.600  12.311
18317SOL     OW56782  10.873   5.180  14.724
18317SOL    HW156783  10.842   5.265  14.691
18317SOL    HW256784  10.866   5.122  14.648
18318SOL     OW56785  11.297  13.078   9.034
18318SOL    HW156786  11.211  13.089   9.075
18318SOL    HW256787  11.350  13.149   9.070
18319SOL     OW56788  13.926  12.258   5.644
18319SOL    HW156789  13.876  12.193   5.693
18319SOL    HW256790  13.862  12.327   5.624
18320SOL     OW56791  14.768   2.977   4.612
18320SOL    HW156792  14.763   2.900   4.668
18320SOL    HW256793  14.840   3.028   4.647
18321SOL     OW56794   5.262   2.087  10.423
18321SOL    HW156795   5.188   2.110  10.367
18321SOL    HW256796   5.288   2.000  10.394
18322SOL     OW56797   9.116   0.525   3.861
18322SOL    HW156798   9.108   0.515   3.956
18322SOL    HW256799   9.069   0.605   3.841
18323SOL     OW56800   5.404   2.923   9.883
18323SOL    HW156801   5.350   3.001   9.873
18323SOL    HW256802   5.349   2.862   9.933
18324SOL     OW56803  12.553   9.248   4.640
18324SOL    HW156804  12.484   9.181   4.631
18324SOL    HW256805  12.511   9.319   4.689
18325SOL     OW56806  11.887   6.831   4.670
18325SOL    HW156807  11.878   6.746   4.626
18325SOL    HW256808  11.863   6.894   4.602
18326SOL     OW56809  11.958   4.222   6.018
18326SOL    HW156810  12.051   4.221   6.040
18326SOL    HW256811  11.914   4.245   6.100
18327SOL     OW56812   9.080  13.915  11.517
18327SOL    HW156813   9.082  14.000  11.473
18327SOL    HW256814   9.005  13.920  11.576
18328SOL     OW56815   9.161   9.387   1.552
18328SOL    HW156816   9.231   9.440   1.513
18328SOL    HW256817   9.158   9.307   1.499
18329SOL     OW56818   5.893   5.037  10.871
18329SOL    HW156819   5.805   5.057  10.903
18329SOL    HW256820   5.883   4.958  10.818
18330SOL     OW56821   4.817   2.709   3.791
18330SOL    HW156822   4.846   2.655   3.864
18330SOL    HW256823   4.772   2.783   3.832
18331SOL     OW56824   8.217   0.410   4.869
18331SOL    HW156825   8.138   0.367   4.902
18331SOL    HW256826   8.186   0.462   4.795
18332SOL     OW56827   1.144   8.342   8.075
18332SOL    HW156828   1.185   8.269   8.029
18332SOL    HW256829   1.172   8.332   8.166
18333SOL     OW56830   4.620   7.843   9.731
18333SOL    HW156831   4.676   7.918   9.752
18333SOL    HW256832   4.677   7.785   9.680
18334SOL     OW56833   2.224  12.747   3.915
18334SOL    HW156834   2.310  12.706   3.904
18334SOL    HW256835   2.181  12.695   3.983
18335SOL     OW56836   3.954   2.869  12.955
18335SOL    HW156837   3.985   2.923  13.027
18335SOL    HW256838   4.018   2.798  12.948
18336SOL     OW56839   4.560   7.745   3.867
18336SOL    HW156840   4.487   7.683   3.862
18336SOL    HW256841   4.638   7.691   3.858
18337SOL     OW56842   5.652   5.428   9.413
18337SOL    HW156843   5.674   5.515   9.379
18337SOL    HW256844   5.597   5.389   9.346
18338SOL     OW56845   9.676   0.353   4.176
18338SOL    HW156846   9.602   0.356   4.237
18338SOL    HW256847   9.685   0.260   4.154
18339SOL     OW56848  10.589   4.400  13.840
18339SOL    HW156849  10.587   4.314  13.883
18339SOL    HW256850  10.643   4.454  13.898
18340SOL     OW56851  11.717  14.650   8.301
18340SOL    HW156852  11.745  14.662   8.210
18340SOL    HW256853  11.736  14.734   8.343
18341SOL     OW56854   0.763   7.538  10.301
18341SOL    HW156855   0.790   7.498  10.383
18341SOL    HW256856   0.674   7.567  10.317
18342SOL     OW56857   2.169   5.806   8.512
18342SOL    HW156858   2.153   5.803   8.606
18342SOL    HW256859   2.226   5.731   8.495
18343SOL     OW56860  14.466   9.228   5.819
18343SOL    HW156861  14.524   9.155   5.840
18343SOL    HW256862  14.398   9.225   5.887
18344SOL     OW56863  12.829   7.476   3.870
18344SOL    HW156864  12.856   7.484   3.779
18344SOL    HW256865  12.880   7.544   3.916
18345SOL     OW56866  13.388  10.305   1.903
18345SOL    HW156867  13.305  10.319   1.949
18345SOL    HW256868  13.454  10.343   1.960
18346SOL     OW56869   9.650   8.823   4.903
18346SOL    HW156870   9.642   8.795   4.995
18346SOL    HW256871   9.573   8.877   4.888
18347SOL     OW56872   3.426   3.034   8.040
18347SOL    HW156873   3.450   3.034   7.947
18347SOL    HW256874   3.379   2.952   8.052
18348SOL     OW56875   8.189   8.379   5.562
18348SOL    HW156876   8.097   8.360   5.581
18348SOL    HW256877   8.217   8.307   5.505
18349SOL     OW56878   7.829  10.283   7.419
18349SOL    HW156879   7.773  10.331   7.479
18349SOL    HW256880   7.865  10.350   7.361
18350SOL     OW56881  11.654   5.732  12.634
18350SOL    HW156882  11.706   5.674  12.579
18350SOL    HW256883  11.564   5.721  12.602
18351SOL     OW56884   5.484   1.973   1.027
18351SOL    HW156885   5.573   1.941   1.042
18351SOL    HW256886   5.483   2.060   1.067
18352SOL     OW56887   2.186  11.015   8.783
18352SOL    HW156888   2.096  10.985   8.780
18352SOL    HW256889   2.200  11.044   8.873
18353SOL     OW56890   5.746   3.866   7.096
18353SOL    HW156891   5.701   3.950   7.086
18353SOL    HW256892   5.817   3.884   7.157
18354SOL     OW56893   1.746  14.548  13.192
18354SOL    HW156894   1.657  14.542  13.158
18354SOL    HW256895   1.745  14.622  13.252
18355SOL     OW56896   5.674   2.458   0.692
18355SOL    HW156897   5.602   2.397   0.677
18355SOL    HW256898   5.716   2.468   0.607
18356SOL     OW56899   7.892   9.276   7.974
18356SOL    HW156900   7.933   9.190   7.985
18356SOL    HW256901   7.822   9.277   8.038
18357SOL     OW56902   9.276   1.778   8.252
18357SOL    HW156903   9.354   1.747   8.208
18357SOL    HW256904   9.203   1.740   8.202
18358SOL     OW56905   9.194   5.550  12.359
18358SOL    HW156906   9.155   5.514  12.279
18358SOL    HW256907   9.120   5.585  12.408
18359SOL     OW56908   5.188  10.046   3.490
18359SOL    HW156909   5.156   9.959   3.465
18359SOL    HW256910   5.112  10.089   3.528
18360SOL     OW56911   0.943   6.945  13.314
18360SOL    HW156912   1.023   6.989  13.344
18360SOL    HW256913   0.916   6.891  13.388
18361SOL     OW56914  14.281  13.080  14.861
18361SOL    HW156915  14.214  13.024   0.028
18361SOL    HW256916  14.250  13.169   0.004
18362SOL     OW56917   3.554   7.644  10.156
18362SOL    HW156918   3.613   7.584  10.202
18362SOL    HW256919   3.575   7.632  10.064
18363SOL     OW56920   1.988  11.054   5.839
18363SOL    HW156921   2.019  11.137   5.875
18363SOL    HW256922   2.053  10.990   5.868
18364SOL     OW56923   4.673  10.114  14.796
18364SOL    HW156924   4.671  10.170   0.002
18364SOL    HW256925   4.622  10.162  14.731
18365SOL     OW56926   3.647   4.549   3.605
18365SOL    HW156927   3.613   4.464   3.576
18365SOL    HW256928   3.722   4.527   3.660
18366SOL     OW56929   1.329  12.411   5.780
18366SOL    HW156930   1.402  12.382   5.834
18366SOL    HW256931   1.367  12.424   5.693
18367SOL     OW56932   3.067   2.458   3.353
18367SOL    HW156933   3.040   2.368   3.332
18367SOL    HW256934   3.127   2.448   3.427
18368SOL     OW56935  12.835   0.377   2.963
18368SOL    HW156936  12.898   0.401   3.031
18368SOL    HW256937  12.764   0.440   2.973
18369SOL     OW56938   4.112  10.692  10.413
18369SOL    HW156939   4.017  10.686  10.425
18369SOL    HW256940   4.124  10.714  10.321
18370SOL     OW56941   3.389   3.255   2.942
18370SOL    HW156942   3.408   3.347   2.920
18370SOL    HW256943   3.445   3.237   3.018
18371SOL     OW56944  12.225  13.210   9.964
18371SOL    HW156945  12.130  13.217   9.966
18371SOL    HW256946  12.248  13.174  10.050
18372SOL     OW56947  13.886   8.639   3.771
18372SOL    HW156948  13.820   8.605   3.831
18372SOL    HW256949  13.836   8.688   3.705
18373SOL     OW56950   5.835   1.663   5.947
18373SOL    HW156951   5.908   1.715   5.983
18373SOL    HW256952   5.756   1.711   5.974
18374SOL     OW56953   1.918  12.706   6.671
18374SOL    HW156954   1.829  12.710   6.706
18374SOL    HW256955   1.935  12.613   6.659
18375SOL     OW56956   9.310   1.100   7.736
18375SOL    HW156957   9.314   1.018   7.688
18375SOL    HW256958   9.272   1.163   7.674
18376SOL     OW56959  14.501   3.657   1.737
18376SOL    HW156960  14.469   3.733   1.688
18376SOL    HW256961  14.477   3.581   1.683
18377SOL     OW56962   2.733  12.777  13.463
18377SOL    HW156963   2.756  12.870  13.465
18377SOL    HW256964   2.775  12.740  13.541
18378SOL     OW56965  14.302   2.364  10.250
18378SOL    HW156966  14.356   2.416  10.191
18378SOL    HW256967  14.313   2.405  10.336
18379SOL     OW56968   5.692   6.799   6.634
18379SOL    HW156969   5.697   6.739   6.560
18379SOL    HW256970   5.601   6.830   6.634
18380SOL     OW56971   4.472  11.379   0.109
18380SOL    HW156972   4.380  11.399   0.128
18380SOL    HW256973   4.497  11.316   0.177
18381SOL     OW56974   0.644  11.777  10.153
18381SOL    HW156975   0.640  11.843  10.223
18381SOL    HW256976   0.611  11.697  10.193
18382SOL     OW56977   5.498   8.805   0.886
18382SOL    HW156978   5.549   8.725   0.876
18382SOL    HW256979   5.458   8.819   0.800
18383SOL     OW56980  11.722  12.495   4.251
18383SOL    HW156981  11.691  12.483   4.341
18383SOL    HW256982  11.817  12.485   4.257
18384SOL     OW56983   0.883   4.825   1.145
18384SOL    HW156984   0.863   4.813   1.238
18384SOL    HW256985   0.884   4.920   1.132
18385SOL     OW56986   7.481  14.872   5.640
18385SOL    HW156987   7.436  14.797   5.601
18385SOL    HW256988   7.569  14.839   5.659
18386SOL     OW56989   5.299   5.304  14.474
18386SOL    HW156990   5.378   5.335  14.520
18386SOL    HW256991   5.273   5.225  14.522
18387SOL     OW56992   9.806  11.550   1.587
18387SOL    HW156993   9.839  11.511   1.506
18387SOL    HW256994   9.816  11.644   1.574
18388SOL     OW56995   9.068   2.523   5.637
18388SOL    HW156996   9.089   2.514   5.544
18388SOL    HW256997   8.974   2.537   5.638
18389SOL     OW56998   6.941   2.251   6.421
18389SOL    HW156999   6.874   2.317   6.437
18389SOL    HW257000   6.989   2.246   6.504
18390SOL     OW57001   6.532   8.110   6.121
18390SOL    HW157002   6.565   8.142   6.204
18390SOL    HW257003   6.608   8.112   6.062
18391SOL     OW57004  12.212   8.487   9.709
18391SOL    HW157005  12.145   8.518   9.648
18391SOL    HW257006  12.260   8.420   9.661
18392SOL     OW57007  11.797   1.163  12.557
18392SOL    HW157008  11.727   1.126  12.611
18392SOL    HW257009  11.757   1.177  12.472
18393SOL     OW57010   2.644  11.033   9.394
18393SOL    HW157011   2.706  11.038   9.321
18393SOL    HW257012   2.691  10.985   9.462
18394SOL     OW57013   9.116  13.568   6.614
18394SOL    HW157014   9.094  13.661   6.617
18394SOL    HW257015   9.037  13.526   6.579
18395SOL     OW57016  11.993   6.803   1.387
18395SOL    HW157017  11.979   6.853   1.307
18395SOL    HW257018  11.993   6.711   1.358
18396SOL     OW57019   5.224   3.243  11.727
18396SOL    HW157020   5.178   3.326  11.715
18396SOL    HW257021   5.294   3.264  11.789
18397SOL     OW57022  10.758   5.197   7.046
18397SOL    HW157023  10.796   5.156   6.969
18397SOL    HW257024  10.788   5.287   7.043
18398SOL     OW57025  11.507  12.998  12.841
18398SOL    HW157026  11.467  12.995  12.754
18398SOL    HW257027  11.433  12.991  12.901
18399SOL     OW57028  12.827  12.122  12.810
18399SOL    HW157029  12.808  12.036  12.848
18399SOL    HW257030  12.815  12.184  12.882
18400SOL     OW57031   0.727   6.754   5.522
18400SOL    HW157032   0.703   6.844   5.500
18400SOL    HW257033   0.724   6.707   5.439
18401SOL     OW57034   4.959  11.738   3.144
18401SOL    HW157035   5.047  11.703   3.129
18401SOL    HW257036   4.900  11.671   3.109
18402SOL     OW57037  13.934  10.086   0.935
18402SOL    HW157038  14.023  10.116   0.920
18402SOL    HW257039  13.887  10.108   0.855
18403SOL     OW57040  13.471  12.698   2.737
18403SOL    HW157041  13.408  12.650   2.682
18403SOL    HW257042  13.445  12.790   2.728
18404SOL     OW57043   7.912   0.515  13.144
18404SOL    HW157044   7.932   0.425  13.120
18404SOL    HW257045   7.986   0.566  13.110
18405SOL     OW57046   7.869  13.630  13.090
18405SOL    HW157047   7.886  13.721  13.114
18405SOL    HW257048   7.909  13.579  13.161
18406SOL     OW57049  14.555  14.002  10.287
18406SOL    HW157050  14.484  14.039  10.235
18406SOL    HW257051  14.512  13.945  10.350
18407SOL     OW57052   1.042  14.416   1.823
18407SOL    HW157053   1.119  14.432   1.878
18407SOL    HW257054   0.985  14.362   1.877
18408SOL     OW57055   9.152   2.835   7.207
18408SOL    HW157056   9.121   2.754   7.247
18408SOL    HW257057   9.247   2.834   7.221
18409SOL     OW57058   6.862   6.831   0.362
18409SOL    HW157059   6.779   6.877   0.349
18409SOL    HW257060   6.856   6.754   0.306
18410SOL     OW57061   2.068  10.721   2.828
18410SOL    HW157062   2.079  10.673   2.910
18410SOL    HW257063   2.122  10.800   2.839
18411SOL     OW57064   7.601   8.075   1.666
18411SOL    HW157065   7.535   8.016   1.630
18411SOL    HW257066   7.555   8.125   1.733
18412SOL     OW57067  12.534   5.895   7.492
18412SOL    HW157068  12.552   5.952   7.418
18412SOL    HW257069  12.480   5.949   7.551
18413SOL     OW57070   4.781   8.672   2.983
18413SOL    HW157071   4.771   8.637   2.895
18413SOL    HW257072   4.816   8.599   3.034
18414SOL     OW57073   6.967  12.742   3.832
18414SOL    HW157074   6.991  12.831   3.857
18414SOL    HW257075   7.041  12.712   3.779
18415SOL     OW57076   0.572   9.166   6.097
18415SOL    HW157077   0.571   9.195   6.188
18415SOL    HW257078   0.496   9.108   6.090
18416SOL     OW57079   8.584   5.805   4.945
18416SOL    HW157080   8.549   5.888   4.914
18416SOL    HW257081   8.517   5.771   5.004
18417SOL     OW57082   1.839   8.233   9.807
18417SOL    HW157083   1.829   8.238   9.712
18417SOL    HW257084   1.933   8.217   9.820
18418SOL     OW57085   4.633   0.119   4.302
18418SOL    HW157086   4.578   0.091   4.229
18418SOL    HW257087   4.678   0.040   4.331
18419SOL     OW57088  10.452   2.326   8.902
18419SOL    HW157089  10.451   2.413   8.944
18419SOL    HW257090  10.525   2.280   8.943
18420SOL     OW57091  10.171   4.876   9.404
18420SOL    HW157092  10.120   4.957   9.409
18420SOL    HW257093  10.183   4.861   9.310
18421SOL     OW57094  11.095  14.178   0.517
18421SOL    HW157095  11.123  14.262   0.480
18421SOL    HW257096  10.999  14.183   0.516
18422SOL     OW57097  10.741   2.545   3.960
18422SOL    HW157098  10.708   2.485   3.893
18422SOL    HW257099  10.788   2.489   4.022
18423SOL     OW57100   3.536   5.553  11.875
18423SOL    HW157101   3.443   5.578  11.880
18423SOL    HW257102   3.536   5.458  11.885
18424SOL     OW57103   6.101   6.489   8.202
18424SOL    HW157104   6.183   6.536   8.190
18424SOL    HW257105   6.036   6.543   8.158
18425SOL     OW57106   9.956  11.037  13.631
18425SOL    HW157107  10.040  11.010  13.669
18425SOL    HW257108   9.947  10.983  13.552
18426SOL     OW57109   9.841   1.246   5.406
18426SOL    HW157110   9.836   1.301   5.484
18426SOL    HW257111   9.914   1.282   5.356
18427SOL     OW57112   7.589  13.516  10.748
18427SOL    HW157113   7.637  13.498  10.667
18427SOL    HW257114   7.657  13.520  10.815
18428SOL     OW57115   3.416   9.872   5.673
18428SOL    HW157116   3.456   9.857   5.758
18428SOL    HW257117   3.490   9.894   5.616
18429SOL     OW57118   2.154  10.794   1.921
18429SOL    HW157119   2.129  10.847   1.846
18429SOL    HW257120   2.082  10.805   1.983
18430SOL     OW57121  13.795  11.261   2.575
18430SOL    HW157122  13.798  11.340   2.628
18430SOL    HW257123  13.820  11.290   2.487
18431SOL     OW57124   0.556   8.224   7.514
18431SOL    HW157125   0.471   8.246   7.553
18431SOL    HW257126   0.618   8.232   7.586
18432SOL     OW57127   7.137   4.146   3.439
18432SOL    HW157128   7.136   4.203   3.362
18432SOL    HW257129   7.065   4.178   3.494
18433SOL     OW57130   9.268   0.373  13.210
18433SOL    HW157131   9.261   0.401  13.118
18433SOL    HW257132   9.333   0.432  13.248
18434SOL     OW57133   3.402  10.392   4.873
18434SOL    HW157134   3.366  10.477   4.898
18434SOL    HW257135   3.475  10.378   4.933
18435SOL     OW57136   7.760   2.759   9.741
18435SOL    HW157137   7.675   2.730   9.709
18435SOL    HW257138   7.782   2.834   9.685
18436SOL     OW57139   1.799  12.549  12.401
18436SOL    HW157140   1.811  12.497  12.321
18436SOL    HW257141   1.874  12.527  12.456
18437SOL     OW57142  13.780   8.983   6.790
18437SOL    HW157143  13.805   8.894   6.763
18437SOL    HW257144  13.864   9.027   6.807
18438SOL     OW57145   6.596   3.407  14.695
18438SOL    HW157146   6.573   3.359  14.616
18438SOL    HW257147   6.586   3.343  14.766
18439SOL     OW57148   6.567   8.265  13.229
18439SOL    HW157149   6.503   8.334  13.247
18439SOL    HW257150   6.514   8.191  13.198
18440SOL     OW57151  11.813   4.759  11.072
18440SOL    HW157152  11.901   4.729  11.053
18440SOL    HW257153  11.792   4.720  11.156
18441SOL     OW57154  12.255   3.575   4.205
18441SOL    HW157155  12.321   3.641   4.226
18441SOL    HW257156  12.174   3.625   4.191
18442SOL     OW57157   7.932  14.145  14.160
18442SOL    HW157158   7.936  14.118  14.068
18442SOL    HW257159   7.852  14.105  14.193
18443SOL     OW57160  12.593  13.443   4.661
18443SOL    HW157161  12.604  13.350   4.640
18443SOL    HW257162  12.679  13.470   4.693
18444SOL     OW57163   2.537  10.428   7.135
18444SOL    HW157164   2.622  10.463   7.163
18444SOL    HW257165   2.512  10.483   7.061
18445SOL     OW57166  12.775  14.278  10.022
18445SOL    HW157167  12.764  14.187   9.992
18445SOL    HW257168  12.869  14.288  10.034
18446SOL     OW57169  11.426  11.455   1.394
18446SOL    HW157170  11.424  11.368   1.353
18446SOL    HW257171  11.355  11.503   1.352
18447SOL     OW57172   0.241   3.465   0.939
18447SOL    HW157173   0.197   3.547   0.919
18447SOL    HW257174   0.300   3.487   1.011
18448SOL     OW57175   8.417   0.235   4.879
18448SOL    HW157176   8.483   0.269   4.939
18448SOL    HW257177   8.340   0.289   4.894
18449SOL     OW57178   8.458  12.781   9.242
18449SOL    HW157179   8.487  12.710   9.298
18449SOL    HW257180   8.512  12.856   9.268
18450SOL     OW57181   5.973   8.299   7.355
18450SOL    HW157182   5.996   8.341   7.272
18450SOL    HW257183   6.058   8.279   7.395
18451SOL     OW57184   6.722   2.426   6.432
18451SOL    HW157185   6.647   2.471   6.469
18451SOL    HW257186   6.715   2.439   6.338
18452SOL     OW57187   7.144  14.083   1.752
18452SOL    HW157188   7.105  14.001   1.781
18452SOL    HW257189   7.232  14.060   1.723
18453SOL     OW57190  11.313   0.782   7.135
18453SOL    HW157191  11.265   0.748   7.212
18453SOL    HW257192  11.389   0.725   7.127
18454SOL     OW57193   8.104   3.547  13.255
18454SOL    HW157194   8.078   3.485  13.323
18454SOL    HW257195   8.150   3.494  13.190
18455SOL     OW57196  13.631   5.568  14.073
18455SOL    HW157197  13.579   5.566  13.993
18455SOL    HW257198  13.624   5.658  14.104
18456SOL     OW57199   7.053  13.728  10.208
18456SOL    HW157200   6.982  13.738  10.272
18456SOL    HW257201   7.007  13.709  10.126
18457SOL     OW57202   1.242   8.523   0.307
18457SOL    HW157203   1.220   8.490   0.220
18457SOL    HW257204   1.316   8.582   0.292
18458SOL     OW57205   6.487   1.610   9.878
18458SOL    HW157206   6.513   1.699   9.904
18458SOL    HW257207   6.546   1.553   9.927
18459SOL     OW57208   0.402  10.277   9.158
18459SOL    HW157209   0.342  10.349   9.142
18459SOL    HW257210   0.347  10.207   9.193
18460SOL     OW57211   9.087  10.169  13.662
18460SOL    HW157212   9.151  10.102  13.687
18460SOL    HW257213   9.131  10.252  13.681
18461SOL     OW57214   2.833   8.296  12.258
18461SOL    HW157215   2.796   8.264  12.340
18461SOL    HW257216   2.905   8.236  12.239
18462SOL     OW57217   8.367   7.358  14.209
18462SOL    HW157218   8.449   7.310  14.227
18462SOL    HW257219   8.329   7.312  14.134
18463SOL     OW57220   9.871   6.275   1.674
18463SOL    HW157221   9.907   6.226   1.748
18463SOL    HW257222   9.802   6.218   1.640
18464SOL     OW57223   1.281   1.923   4.612
18464SOL    HW157224   1.234   2.000   4.582
18464SOL    HW257225   1.371   1.954   4.624
18465SOL     OW57226   4.048   8.891  14.516
18465SOL    HW157227   4.137   8.906  14.483
18465SOL    HW257228   4.001   8.972  14.494
18466SOL     OW57229  11.083   8.348   9.384
18466SOL    HW157230  11.126   8.282   9.438
18466SOL    HW257231  11.106   8.431   9.425
18467SOL     OW57232   6.104   1.963   0.446
18467SOL    HW157233   6.130   2.044   0.489
18467SOL    HW257234   6.105   1.983   0.353
18468SOL     OW57235   1.436  10.169   5.719
18468SOL    HW157236   1.371  10.219   5.768
18468SOL    HW257237   1.406  10.174   5.628
18469SOL     OW57238  12.357   5.737   1.445
18469SOL    HW157239  12.306   5.727   1.364
18469SOL    HW257240  12.298   5.708   1.514
18470SOL     OW57241   7.071  13.301  13.634
18470SOL    HW157242   7.003  13.238  13.612
18470SOL    HW257243   7.059  13.372  13.572
18471SOL     OW57244  12.879   1.794   7.607
18471SOL    HW157245  12.882   1.851   7.529
18471SOL    HW257246  12.799   1.821   7.652
18472SOL     OW57247   5.257  14.251   1.485
18472SOL    HW157248   5.216  14.336   1.469
18472SOL    HW257249   5.211  14.217   1.562
18473SOL     OW57250  12.088   1.968   7.890
18473SOL    HW157251  11.998   1.958   7.859
18473SOL    HW257252  12.083   1.955   7.985
18474SOL     OW57253  13.424   0.230   3.515
18474SOL    HW157254  13.364   0.280   3.570
18474SOL    HW257255  13.390   0.141   3.517
18475SOL     OW57256   0.565  11.406  12.646
18475SOL    HW157257   0.478  11.440  12.667
18475SOL    HW257258   0.571  11.412  12.551
18476SOL     OW57259   5.507   5.912   3.235
18476SOL    HW157260   5.591   5.901   3.278
18476SOL    HW257261   5.523   5.972   3.163
18477SOL     OW57262   8.213   5.697   6.520
18477SOL    HW157263   8.135   5.722   6.470
18477SOL    HW257264   8.178   5.662   6.602
18478SOL     OW57265   5.941  13.255   1.539
18478SOL    HW157266   5.960  13.319   1.471
18478SOL    HW257267   5.942  13.306   1.620
18479SOL     OW57268  11.918  11.327   8.023
18479SOL    HW157269  11.871  11.255   7.981
18479SOL    HW257270  11.866  11.349   8.100
18480SOL     OW57271   2.052   6.657   2.406
18480SOL    HW157272   2.101   6.738   2.423
18480SOL    HW257273   2.118   6.588   2.410
18481SOL     OW57274  11.864   8.049   3.786
18481SOL    HW157275  11.798   8.114   3.764
18481SOL    HW257276  11.843   8.024   3.876
18482SOL     OW57277   6.576   6.106   3.741
18482SOL    HW157278   6.597   6.089   3.649
18482SOL    HW257279   6.561   6.019   3.778
18483SOL     OW57280   8.159  11.725   8.362
18483SOL    HW157281   8.240  11.717   8.312
18483SOL    HW257282   8.144  11.819   8.369
18484SOL     OW57283  13.115  13.295   6.035
18484SOL    HW157284  13.023  13.276   6.054
18484SOL    HW257285  13.151  13.210   6.008
18485SOL     OW57286   4.760   6.638   8.807
18485SOL    HW157287   4.701   6.713   8.814
18485SOL    HW257288   4.742   6.601   8.720
18486SOL     OW57289   7.119   7.022   3.534
18486SOL    HW157290   7.211   6.996   3.541
18486SOL    HW257291   7.086   6.974   3.458
18487SOL     OW57292  11.453  14.487   3.449
18487SOL    HW157293  11.402  14.542   3.391
18487SOL    HW257294  11.474  14.542   3.524
18488SOL     OW57295  13.212  14.577  14.127
18488SOL    HW157296  13.127  14.595  14.167
18488SOL    HW257297  13.266  14.651  14.152
18489SOL     OW57298  13.471  10.880   3.653
18489SOL    HW157299  13.389  10.925   3.635
18489SOL    HW257300  13.537  10.949   3.656
18490SOL     OW57301   0.210  11.461   2.589
18490SOL    HW157302   0.238  11.399   2.657
18490SOL    HW257303   0.193  11.406   2.513
18491SOL     OW57304   6.913   2.192   9.694
18491SOL    HW157305   6.961   2.254   9.639
18491SOL    HW257306   6.902   2.237   9.777
18492SOL     OW57307  11.109   6.031  12.300
18492SOL    HW157308  11.051   6.093  12.344
18492SOL    HW257309  11.136   5.970  12.368
18493SOL     OW57310   4.960   7.287  11.220
18493SOL    HW157311   4.865   7.291  11.208
18493SOL    HW257312   4.971   7.243  11.305
18494SOL     OW57313   9.973  11.894   3.067
18494SOL    HW157314   9.912  11.822   3.081
18494SOL    HW257315   9.919  11.972   3.069
18495SOL     OW57316   9.351   9.825   5.071
18495SOL    HW157317   9.317   9.759   5.011
18495SOL    HW257318   9.279   9.887   5.082
18496SOL     OW57319  13.137  12.887   0.575
18496SOL    HW157320  13.106  12.943   0.504
18496SOL    HW257321  13.217  12.847   0.541
18497SOL     OW57322  13.932   3.495   8.160
18497SOL    HW157323  13.842   3.466   8.173
18497SOL    HW257324  13.964   3.516   8.248
18498SOL     OW57325   5.820   1.632  10.978
18498SOL    HW157326   5.849   1.577  11.050
18498SOL    HW257327   5.883   1.704  10.974
18499SOL     OW57328  12.165  14.209  10.843
18499SOL    HW157329  12.213  14.259  10.778
18499SOL    HW257330  12.091  14.265  10.867
18500SOL     OW57331   0.758   4.399   8.329
18500SOL    HW157332   0.764   4.356   8.415
18500SOL    HW257333   0.730   4.330   8.269
18501SOL     OW57334   2.615   6.834   3.444
18501SOL    HW157335   2.584   6.785   3.520
18501SOL    HW257336   2.711   6.832   3.452
18502SOL     OW57337  13.991   0.615   8.231
18502SOL    HW157338  13.965   0.642   8.143
18502SOL    HW257339  13.955   0.683   8.288
18503SOL     OW57340   5.940  12.134   6.565
18503SOL    HW157341   5.844  12.136   6.573
18503SOL    HW257342   5.971  12.107   6.651
18504SOL     OW57343   8.728   4.513   7.860
18504SOL    HW157344   8.798   4.565   7.901
18504SOL    HW257345   8.740   4.526   7.766
18505SOL     OW57346  13.058   9.231   1.072
18505SOL    HW157347  12.984   9.179   1.102
18505SOL    HW257348  13.085   9.281   1.149
18506SOL     OW57349  12.134   4.219   2.375
18506SOL    HW157350  12.108   4.212   2.283
18506SOL    HW257351  12.103   4.306   2.402
18507SOL     OW57352   5.704   7.075  12.378
18507SOL    HW157353   5.788   7.078  12.423
18507SOL    HW257354   5.661   7.157  12.403
18508SOL     OW57355  14.871   6.005   7.743
18508SOL    HW157356   0.090   6.028   7.759
18508SOL    HW257357  14.833   6.083   7.702
18509SOL     OW57358   8.037   2.727   1.869
18509SOL    HW157359   8.054   2.724   1.775
18509SOL    HW257360   8.088   2.655   1.905
18510SOL     OW57361   1.976  14.258   7.986
18510SOL    HW157362   2.025  14.337   8.009
18510SOL    HW257363   2.028  14.217   7.917
18511SOL     OW57364  11.108  13.924  11.378
18511SOL    HW157365  11.024  13.970  11.389
18511SOL    HW257366  11.142  13.915  11.466
18512SOL     OW57367  12.668  13.379   6.230
18512SOL    HW157368  12.586  13.428   6.230
18512SOL    HW257369  12.686  13.363   6.323
18513SOL     OW57370   0.326  13.382  14.716
18513SOL    HW157371   0.374  13.329  14.780
18513SOL    HW257372   0.336  13.334  14.634
18514SOL     OW57373   3.279  10.053   9.741
18514SOL    HW157374   3.302  10.135   9.697
18514SOL    HW257375   3.187  10.039   9.718
18515SOL     OW57376   3.111  10.261   0.788
18515SOL    HW157377   3.085  10.275   0.879
18515SOL    HW257378   3.062  10.327   0.739
18516SOL     OW57379   3.290   5.846   4.677
18516SOL    HW157380   3.315   5.757   4.652
18516SOL    HW257381   3.226   5.872   4.610
18517SOL     OW57382   8.398  13.471   3.910
18517SOL    HW157383   8.355  13.529   3.847
18517SOL    HW257384   8.379  13.383   3.879
18518SOL     OW57385   4.510  13.467  11.827
18518SOL    HW157386   4.515  13.561  11.846
18518SOL    HW257387   4.435  13.436  11.877
18519SOL     OW57388   2.534   0.910   8.838
18519SOL    HW157389   2.468   0.978   8.832
18519SOL    HW257390   2.557   0.890   8.747
18520SOL     OW57391   3.965   1.105  10.434
18520SOL    HW157392   4.040   1.097  10.493
18520SOL    HW257393   4.000   1.150  10.357
18521SOL     OW57394   6.598   4.051   2.643
18521SOL    HW157395   6.588   3.995   2.566
18521SOL    HW257396   6.519   4.104   2.645
18522SOL     OW57397  11.578   0.742   9.774
18522SOL    HW157398  11.624   0.725   9.692
18522SOL    HW257399  11.585   0.836   9.786
18523SOL     OW57400   3.199   6.733   3.194
18523SOL    HW157401   3.230   6.642   3.198
18523SOL    HW257402   3.272   6.784   3.227
18524SOL     OW57403  14.214  12.601   0.008
18524SOL    HW157404  14.221  12.540  14.806
18524SOL    HW257405  14.130  12.580   0.049
18525SOL     OW57406   4.125  11.254   2.525
18525SOL    HW157407   4.055  11.189   2.519
18525SOL    HW257408   4.197  11.206   2.567
18526SOL     OW57409  13.144   9.965   0.300
18526SOL    HW157410  13.152  10.040   0.358
18526SOL    HW257411  13.051   9.962   0.277
18527SOL     OW57412   7.338   8.841  11.317
18527SOL    HW157413   7.300   8.843  11.229
18527SOL    HW257414   7.272   8.881  11.373
18528SOL     OW57415  10.600   9.819  12.292
18528SOL    HW157416  10.571   9.762  12.220
18528SOL    HW257417  10.574   9.773  12.371
18529SOL     OW57418   1.509  11.540   3.751
18529SOL    HW157419   1.535  11.600   3.682
18529SOL    HW257420   1.587  11.487   3.768
18530SOL     OW57421   3.225  10.461   8.682
18530SOL    HW157422   3.298  10.453   8.621
18530SOL    HW257423   3.212  10.556   8.690
18531SOL     OW57424  13.201   0.110   8.828
18531SOL    HW157425  13.125   0.057   8.854
18531SOL    HW257426  13.222   0.080   8.740
18532SOL     OW57427   1.134   2.597   7.842
18532SOL    HW157428   1.170   2.638   7.920
18532SOL    HW257429   1.065   2.539   7.876
18533SOL     OW57430   3.317  13.880  13.437
18533SOL    HW157431   3.275  13.915  13.358
18533SOL    HW257432   3.275  13.928  13.509
18534SOL     OW57433  14.599   1.153  11.928
18534SOL    HW157434  14.597   1.209  12.005
18534SOL    HW257435  14.579   1.211  11.855
18535SOL     OW57436  11.306   0.817   1.191
18535SOL    HW157437  11.297   0.784   1.102
18535SOL    HW257438  11.400   0.821   1.207
18536SOL     OW57439   3.557   5.496  12.848
18536SOL    HW157440   3.633   5.443  12.870
18536SOL    HW257441   3.531   5.537  12.930
18537SOL     OW57442  11.472  12.725   7.498
18537SOL    HW157443  11.426  12.808   7.508
18537SOL    HW257444  11.553  12.736   7.548
18538SOL     OW57445   4.375  10.435  13.175
18538SOL    HW157446   4.374  10.399  13.086
18538SOL    HW257447   4.308  10.503  13.174
18539SOL     OW57448   2.266   8.562   5.611
18539SOL    HW157449   2.245   8.617   5.687
18539SOL    HW257450   2.240   8.474   5.638
18540SOL     OW57451   8.212   4.887   8.069
18540SOL    HW157452   8.154   4.963   8.074
18540SOL    HW257453   8.153   4.812   8.053
18541SOL     OW57454  10.770   2.616   7.528
18541SOL    HW157455  10.748   2.541   7.473
18541SOL    HW257456  10.759   2.692   7.472
18542SOL     OW57457   4.907   7.908  14.248
18542SOL    HW157458   4.937   7.907  14.157
18542SOL    HW257459   4.893   8.000  14.269
18543SOL     OW57460   8.964   3.202  10.519
18543SOL    HW157461   9.040   3.259  10.531
18543SOL    HW257462   8.908   3.249  10.458
18544SOL     OW57463  12.637   5.875   1.773
18544SOL    HW157464  12.630   5.826   1.691
18544SOL    HW257465  12.604   5.815   1.840
18545SOL     OW57466  14.282  13.618  14.081
18545SOL    HW157467  14.273  13.684  14.150
18545SOL    HW257468  14.370  13.583  14.092
18546SOL     OW57469  12.768   2.989   7.974
18546SOL    HW157470  12.800   2.926   8.039
18546SOL    HW257471  12.767   3.073   8.020
18547SOL     OW57472   9.579  10.075   5.404
18547SOL    HW157473   9.621  10.119   5.478
18547SOL    HW257474   9.501  10.034   5.442
18548SOL     OW57475  13.632   5.984   2.864
18548SOL    HW157476  13.725   5.961   2.859
18548SOL    HW257477  13.587   5.911   2.822
18549SOL     OW57478  11.914  13.009   8.489
18549SOL    HW157479  11.901  13.101   8.465
18549SOL    HW257480  12.004  12.990   8.463
18550SOL     OW57481   0.007   6.707   7.026
18550SOL    HW157482   0.035   6.648   6.957
18550SOL    HW257483  14.871   6.793   6.983
18551SOL     OW57484   7.731   5.853   1.367
18551SOL    HW157485   7.691   5.904   1.296
18551SOL    HW257486   7.714   5.904   1.446
18552SOL     OW57487  13.480   5.303  12.812
18552SOL    HW157488  13.414   5.316  12.744
18552SOL    HW257489  13.505   5.391  12.839
18553SOL     OW57490   2.911  12.140   9.431
18553SOL    HW157491   2.881  12.076   9.366
18553SOL    HW257492   2.901  12.225   9.387
18554SOL     OW57493  11.933  12.394   3.466
18554SOL    HW157494  11.912  12.313   3.511
18554SOL    HW257495  12.001  12.435   3.520
18555SOL     OW57496   7.869   2.577   5.097
18555SOL    HW157497   7.870   2.538   5.009
18555SOL    HW257498   7.954   2.620   5.105
18556SOL     OW57499  10.138   3.287  11.895
18556SOL    HW157500  10.206   3.231  11.930
18556SOL    HW257501  10.173   3.319  11.811
18557SOL     OW57502  11.199   6.822   2.416
18557SOL    HW157503  11.225   6.733   2.392
18557SOL    HW257504  11.263   6.849   2.482
18558SOL     OW57505   0.752   5.811   1.222
18558SOL    HW157506   0.779   5.721   1.238
18558SOL    HW257507   0.710   5.838   1.304
18559SOL     OW57508   5.716   1.517  10.175
18559SOL    HW157509   5.690   1.581  10.109
18559SOL    HW257510   5.797   1.479  10.141
18560SOL     OW57511   0.219   7.955   8.709
18560SOL    HW157512   0.228   7.865   8.740
18560SOL    HW257513   0.261   7.956   8.623
18561SOL     OW57514  11.762   8.852   1.364
18561SOL    HW157515  11.814   8.900   1.299
18561SOL    HW257516  11.713   8.921   1.410
18562SOL     OW57517   7.772   1.721   5.436
18562SOL    HW157518   7.699   1.690   5.382
18562SOL    HW257519   7.799   1.644   5.486
18563SOL     OW57520   2.816  14.494   0.682
18563SOL    HW157521   2.759  14.472   0.609
18563SOL    HW257522   2.811  14.417   0.740
18564SOL     OW57523  14.120   0.958   5.224
18564SOL    HW157524  14.044   0.955   5.166
18564SOL    HW257525  14.160   0.871   5.217
18565SOL     OW57526   0.645   7.475   8.118
18565SOL    HW157527   0.659   7.520   8.202
18565SOL    HW257528   0.654   7.544   8.052
18566SOL     OW57529  11.954   8.010   9.871
18566SOL    HW157530  11.990   7.983   9.956
18566SOL    HW257531  12.004   8.088   9.847
18567SOL     OW57532   6.903   4.115   0.406
18567SOL    HW157533   6.853   4.196   0.416
18567SOL    HW257534   6.840   4.045   0.424
18568SOL     OW57535   8.807   1.901  13.915
18568SOL    HW157536   8.734   1.853  13.875
18568SOL    HW257537   8.765   1.964  13.974
18569SOL     OW57538   7.301   0.634   3.162
18569SOL    HW157539   7.324   0.673   3.078
18569SOL    HW257540   7.242   0.562   3.141
18570SOL     OW57541   7.182   7.083  14.609
18570SOL    HW157542   7.129   7.010  14.641
18570SOL    HW257543   7.133   7.118  14.535
18571SOL     OW57544   2.229  13.021   3.811
18571SOL    HW157545   2.178  13.084   3.864
18571SOL    HW257546   2.236  12.944   3.868
18572SOL     OW57547   0.052  13.162   9.209
18572SOL    HW157548   0.069  13.080   9.163
18572SOL    HW257549  14.828  13.169   9.210
18573SOL     OW57550   8.528   2.465  10.111
18573SOL    HW157551   8.605   2.519  10.131
18573SOL    HW257552   8.455   2.510  10.152
18574SOL     OW57553  11.985  14.707   2.505
18574SOL    HW157554  12.016  14.658   2.581
18574SOL    HW257555  11.987  14.799   2.533
18575SOL     OW57556   3.918   6.737   0.169
18575SOL    HW157557   3.934   6.763   0.078
18575SOL    HW257558   3.967   6.801   0.221
18576SOL     OW57559   6.467  14.844   9.763
18576SOL    HW157560   6.510   0.046   9.805
18576SOL    HW257561   6.388   0.010   9.722
18577SOL     OW57562  14.347   5.759  10.313
18577SOL    HW157563  14.302   5.678  10.337
18577SOL    HW257564  14.436   5.746  10.346
18578SOL     OW57565   8.574  10.696   8.436
18578SOL    HW157566   8.644  10.645   8.394
18578SOL    HW257567   8.620  10.764   8.485
18579SOL     OW57568   0.891  12.613   0.271
18579SOL    HW157569   0.832  12.688   0.281
18579SOL    HW257570   0.928  12.623   0.184
18580SOL     OW57571   5.038  10.663  12.116
18580SOL    HW157572   4.950  10.632  12.096
18580SOL    HW257573   5.076  10.593  12.170
18581SOL     OW57574  13.775   9.534   9.062
18581SOL    HW157575  13.817   9.451   9.041
18581SOL    HW257576  13.683   9.512   9.072
18582SOL     OW57577   7.793   5.767   7.363
18582SOL    HW157578   7.726   5.719   7.313
18582SOL    HW257579   7.793   5.854   7.324
18583SOL     OW57580   0.223   6.153   5.507
18583SOL    HW157581   0.149   6.092   5.509
18583SOL    HW257582   0.291   6.107   5.458
18584SOL     OW57583  12.608   8.094  14.828
18584SOL    HW157584  12.549   8.023  14.804
18584SOL    HW257585  12.587   8.165  14.768
18585SOL     OW57586   0.913   6.214   8.667
18585SOL    HW157587   0.894   6.123   8.643
18585SOL    HW257588   0.928   6.211   8.761
18586SOL     OW57589  10.391   8.485  14.092
18586SOL    HW157590  10.391   8.544  14.167
18586SOL    HW257591  10.465   8.514  14.039
18587SOL     OW57592   9.072  13.444  12.391
18587SOL    HW157593   9.015  13.431  12.316
18587SOL    HW257594   9.016  13.428  12.467
18588SOL     OW57595   8.812   0.170   7.260
18588SOL    HW157596   8.860   0.249   7.283
18588SOL    HW257597   8.879   0.107   7.234
18589SOL     OW57598  14.655   9.848   5.145
18589SOL    HW157599  14.604   9.835   5.065
18589SOL    HW257600  14.595   9.827   5.216
18590SOL     OW57601  11.189   5.037   3.176
18590SOL    HW157602  11.172   5.074   3.089
18590SOL    HW257603  11.280   5.061   3.193
18591SOL     OW57604   2.321  10.468  13.533
18591SOL    HW157605   2.260  10.428  13.471
18591SOL    HW257606   2.333  10.557  13.500
18592SOL     OW57607   8.559   3.876  11.522
18592SOL    HW157608   8.488   3.939  11.510
18592SOL    HW257609   8.562   3.827  11.440
18593SOL     OW57610   9.963  10.481  14.872
18593SOL    HW157611   9.874  10.452   0.022
18593SOL    HW257612  10.011  10.475   0.082
18594SOL     OW57613   5.210   8.161   8.220
18594SOL    HW157614   5.306   8.171   8.221
18594SOL    HW257615   5.193   8.097   8.152
18595SOL     OW57616   4.342  13.133   2.064
18595SOL    HW157617   4.256  13.090   2.065
18595SOL    HW257618   4.376  13.120   2.153
18596SOL     OW57619   4.352  13.973   3.938
18596SOL    HW157620   4.338  14.011   3.851
18596SOL    HW257621   4.269  13.986   3.984
18597SOL     OW57622   3.526  14.564   5.799
18597SOL    HW157623   3.521  14.585   5.892
18597SOL    HW257624   3.438  14.585   5.766
18598SOL     OW57625   2.162   4.811   3.365
18598SOL    HW157626   2.228   4.830   3.432
18598SOL    HW257627   2.110   4.739   3.402
18599SOL     OW57628   9.189  14.510   3.025
18599SOL    HW157629   9.234  14.594   3.024
18599SOL    HW257630   9.110  14.524   2.974
18600SOL     OW57631  13.662   4.504   2.753
18600SOL    HW157632  13.627   4.456   2.828
18600SOL    HW257633  13.672   4.594   2.784
18601SOL     OW57634  12.509  11.128  13.714
18601SOL    HW157635  12.414  11.112  13.713
18601SOL    HW257636  12.537  11.111  13.624
18602SOL     OW57637  10.938  14.090  13.604
18602SOL    HW157638  10.851  14.095  13.645
18602SOL    HW257639  10.955  14.179  13.573
18603SOL     OW57640   2.661  14.527  10.935
18603SOL    HW157641   2.720  14.458  10.966
18603SOL    HW257642   2.711  14.572  10.866
18604SOL     OW57643   9.769  12.040  14.830
18604SOL    HW157644   9.712  11.963  14.830
18604SOL    HW257645   9.714  12.110  14.793
18605SOL     OW57646   2.279   5.406   0.450
18605SOL    HW157647   2.321   5.320   0.464
18605SOL    HW257648   2.352   5.468   0.448
18606SOL     OW57649   9.031   5.370  10.480
18606SOL    HW157650   8.983   5.307  10.534
18606SOL    HW257651   9.123   5.357  10.504
18607SOL     OW57652   7.051   7.400   9.530
18607SOL    HW157653   7.096   7.432   9.453
18607SOL    HW257654   6.988   7.470   9.552
18608SOL     OW57655  11.152   9.919   2.401
18608SOL    HW157656  11.061   9.904   2.424
18608SOL    HW257657  11.199   9.842   2.434
18609SOL     OW57658   2.473   6.522  13.967
18609SOL    HW157659   2.542   6.476  14.013
18609SOL    HW257660   2.448   6.464  13.895
18610SOL     OW57661   1.296   5.663   6.191
18610SOL    HW157662   1.350   5.741   6.184
18610SOL    HW257663   1.263   5.648   6.103
18611SOL     OW57664   9.937   5.529   3.879
18611SOL    HW157665   9.952   5.452   3.823
18611SOL    HW257666   9.879   5.496   3.949
18612SOL     OW57667   5.005  13.604   3.062
18612SOL    HW157668   4.928  13.606   3.005
18612SOL    HW257669   5.042  13.693   3.056
18613SOL     OW57670   3.354   4.651   9.667
18613SOL    HW157671   3.307   4.727   9.700
18613SOL    HW257672   3.288   4.602   9.617
18614SOL     OW57673  13.585   4.894   1.164
18614SOL    HW157674  13.514   4.837   1.193
18614SOL    HW257675  13.589   4.882   1.070
18615SOL     OW57676   1.473   2.357   9.746
18615SOL    HW157677   1.523   2.394   9.673
18615SOL    HW257678   1.528   2.286   9.779
18616SOL     OW57679   8.223   0.509   1.195
18616SOL    HW157680   8.158   0.467   1.251
18616SOL    HW257681   8.172   0.553   1.127
18617SOL     OW57682  11.612   0.373   3.431
18617SOL    HW157683  11.569   0.446   3.474
18617SOL    HW257684  11.645   0.410   3.349
18618SOL     OW57685   9.126   9.951  12.160
18618SOL    HW157686   9.204   9.981  12.112
18618SOL    HW257687   9.107  10.023  12.221
18619SOL     OW57688   0.069  13.382   4.834
18619SOL    HW157689   0.137  13.316   4.843
18619SOL    HW257690   0.030  13.388   4.922
18620SOL     OW57691   4.529   1.462   8.032
18620SOL    HW157692   4.463   1.469   8.101
18620SOL    HW257693   4.482   1.482   7.951
18621SOL     OW57694   9.480   6.810   5.000
18621SOL    HW157695   9.463   6.859   4.920
18621SOL    HW257696   9.503   6.877   5.065
18622SOL     OW57697   0.597   9.130  11.700
18622SOL    HW157698   0.652   9.193  11.746
18622SOL    HW257699   0.511   9.173  11.695
18623SOL     OW57700  11.192   1.030  11.344
18623SOL    HW157701  11.190   0.959  11.408
18623SOL    HW257702  11.214   1.108  11.395
18624SOL     OW57703   9.897   7.966   3.124
18624SOL    HW157704   9.825   7.903   3.124
18624SOL    HW257705   9.891   8.009   3.210
18625SOL     OW57706  14.373  14.227   5.684
18625SOL    HW157707  14.331  14.305   5.720
18625SOL    HW257708  14.439  14.203   5.749
18626SOL     OW57709   6.060   2.465   0.666
18626SOL    HW157710   6.145   2.508   0.668
18626SOL    HW257711   6.044   2.447   0.573
18627SOL     OW57712   7.321  10.293  14.284
18627SOL    HW157713   7.416  10.304  14.289
18627SOL    HW257714   7.286  10.356  14.347
18628SOL     OW57715  11.928   7.543   0.634
18628SOL    HW157716  11.964   7.630   0.653
18628SOL    HW257717  11.927   7.499   0.718
18629SOL     OW57718   2.788   6.184  14.596
18629SOL    HW157719   2.718   6.191  14.661
18629SOL    HW257720   2.869   6.191  14.647
18630SOL     OW57721  13.035   5.816   6.471
18630SOL    HW157722  12.987   5.845   6.549
18630SOL    HW257723  13.059   5.897   6.426
18631SOL     OW57724   2.828   7.688   7.344
18631SOL    HW157725   2.786   7.713   7.427
18631SOL    HW257726   2.890   7.620   7.369
18632SOL     OW57727   8.400  11.579   1.671
18632SOL    HW157728   8.489  11.613   1.670
18632SOL    HW257729   8.347  11.649   1.632
18633SOL     OW57730   5.817  11.089   8.016
18633SOL    HW157731   5.832  11.036   7.938
18633SOL    HW257732   5.771  11.030   8.076
18634SOL     OW57733   1.921   6.857   5.480
18634SOL    HW157734   1.921   6.762   5.482
18634SOL    HW257735   1.890   6.884   5.566
18635SOL     OW57736   4.690   4.885   2.370
18635SOL    HW157737   4.709   4.900   2.278
18635SOL    HW257738   4.741   4.807   2.393
18636SOL     OW57739  11.223   3.430   4.022
18636SOL    HW157740  11.171   3.470   4.092
18636SOL    HW257741  11.172   3.355   3.994
18637SOL     OW57742  13.869   8.229   1.992
18637SOL    HW157743  13.826   8.274   1.919
18637SOL    HW257744  13.959   8.214   1.961
18638SOL     OW57745  11.498  11.904   3.934
18638SOL    HW157746  11.445  11.834   3.897
18638SOL    HW257747  11.578  11.904   3.882
18639SOL     OW57748   8.900  11.117   4.843
18639SOL    HW157749   8.918  11.200   4.887
18639SOL    HW257750   8.985  11.076   4.832
18640SOL     OW57751   7.607   0.571  10.235
18640SOL    HW157752   7.700   0.592  10.242
18640SOL    HW257753   7.594   0.550  10.143
18641SOL     OW57754   8.000   6.052  11.125
18641SOL    HW157755   8.021   6.099  11.044
18641SOL    HW257756   8.050   6.099  11.193
18642SOL     OW57757   2.906  11.009  12.103
18642SOL    HW157758   2.825  10.959  12.101
18642SOL    HW257759   2.888  11.082  12.163
18643SOL     OW57760   2.140   1.014   8.739
18643SOL    HW157761   2.061   0.979   8.698
18643SOL    HW257762   2.178   1.071   8.672
18644SOL     OW57763  14.054  10.020   9.968
18644SOL    HW157764  13.973  10.056   9.931
18644SOL    HW257765  14.068   9.938   9.920
18645SOL     OW57766   1.551   2.552   4.055
18645SOL    HW157767   1.622   2.510   4.102
18645SOL    HW257768   1.594   2.604   3.987
18646SOL     OW57769  10.461   2.128  12.073
18646SOL    HW157770  10.428   2.043  12.042
18646SOL    HW257771  10.404   2.150  12.147
18647SOL     OW57772   5.192   8.706   0.285
18647SOL    HW157773   5.233   8.708   0.199
18647SOL    HW257774   5.125   8.638   0.278
18648SOL     OW57775   0.496   1.902   1.512
18648SOL    HW157776   0.587   1.913   1.487
18648SOL    HW257777   0.448   1.967   1.461
18649SOL     OW57778   4.080   2.602  12.961
18649SOL    HW157779   4.042   2.516  12.978
18649SOL    HW257780   4.167   2.584  12.927
18650SOL     OW57781   2.576   0.148   8.513
18650SOL    HW157782   2.483   0.156   8.494
18650SOL    HW257783   2.619   0.197   8.443
18651SOL     OW57784   0.040   1.339   6.623
18651SOL    HW157785   0.015   1.303   6.538
18651SOL    HW257786   0.013   1.271   6.686
18652SOL     OW57787   7.467   3.776  12.931
18652SOL    HW157788   7.468   3.690  12.888
18652SOL    HW257789   7.522   3.764  13.008
18653SOL     OW57790   4.169   3.212   4.488
18653SOL    HW157791   4.121   3.165   4.556
18653SOL    HW257792   4.256   3.172   4.488
18654SOL     OW57793   1.120   5.796   4.662
18654SOL    HW157794   1.084   5.884   4.671
18654SOL    HW257795   1.206   5.800   4.703
18655SOL     OW57796  14.100  14.193   1.248
18655SOL    HW157797  14.056  14.191   1.162
18655SOL    HW257798  14.081  14.280   1.282
18656SOL     OW57799   0.450   6.086   0.824
18656SOL    HW157800   0.524   6.031   0.796
18656SOL    HW257801   0.374   6.028   0.821
18657SOL     OW57802  13.838  14.310  13.819
18657SOL    HW157803  13.808  14.386  13.769
18657SOL    HW257804  13.823  14.334  13.910
18658SOL     OW57805  13.650  14.270   6.343
18658SOL    HW157806  13.566  14.313   6.326
18658SOL    HW257807  13.689  14.320   6.415
18659SOL     OW57808  10.814   1.821   2.631
18659SOL    HW157809  10.833   1.839   2.723
18659SOL    HW257810  10.899   1.800   2.593
18660SOL     OW57811   3.400   8.784   4.888
18660SOL    HW157812   3.419   8.750   4.800
18660SOL    HW257813   3.356   8.868   4.872
18661SOL     OW57814   4.351   4.867   6.301
18661SOL    HW157815   4.273   4.921   6.318
18661SOL    HW257816   4.320   4.777   6.311
18662SOL     OW57817  11.958   8.937   1.184
18662SOL    HW157818  12.009   8.856   1.182
18662SOL    HW257819  11.994   8.986   1.258
18663SOL     OW57820  14.070   3.584   2.288
18663SOL    HW157821  14.011   3.636   2.234
18663SOL    HW257822  14.050   3.609   2.378
18664SOL     OW57823   0.010   7.198   0.556
18664SOL    HW157824  14.796   7.213   0.595
18664SOL    HW257825  14.866   7.201   0.462
18665SOL     OW57826   2.754   7.856   4.413
18665SOL    HW157827   2.820   7.786   4.409
18665SOL    HW257828   2.681   7.818   4.462
18666SOL     OW57829  13.588   7.710   7.627
18666SOL    HW157830  13.563   7.639   7.567
18666SOL    HW257831  13.646   7.765   7.576
18667SOL     OW57832   8.870  12.733   8.673
18667SOL    HW157833   8.945  12.791   8.689
18667SOL    HW257834   8.894  12.652   8.718
18668SOL     OW57835   4.600   8.883   9.518
18668SOL    HW157836   4.515   8.890   9.474
18668SOL    HW257837   4.597   8.798   9.562
18669SOL     OW57838  12.508  14.007  10.470
18669SOL    HW157839  12.547  13.960  10.396
18669SOL    HW257840  12.542  14.096  10.462
18670SOL     OW57841   9.260   6.488   5.907
18670SOL    HW157842   9.167   6.468   5.917
18670SOL    HW257843   9.288   6.431   5.835
18671SOL     OW57844   4.433   9.656  10.788
18671SOL    HW157845   4.513   9.634  10.739
18671SOL    HW257846   4.450   9.743  10.824
18672SOL     OW57847  12.516  14.810   3.710
18672SOL    HW157848  12.462  14.840   3.783
18672SOL    HW257849  12.594  14.773   3.751
18673SOL     OW57850   0.857   4.891   4.926
18673SOL    HW157851   0.864   4.887   5.022
18673SOL    HW257852   0.812   4.810   4.902
18674SOL     OW57853  13.161   8.690  13.829
18674SOL    HW157854  13.195   8.716  13.743
18674SOL    HW257855  13.151   8.595  13.823
18675SOL     OW57856   7.175  14.452  13.499
18675SOL    HW157857   7.123  14.389  13.450
18675SOL    HW257858   7.244  14.478  13.439
18676SOL     OW57859  12.562  11.681   0.473
18676SOL    HW157860  12.645  11.635   0.460
18676SOL    HW257861  12.582  11.744   0.543
18677SOL     OW57862   2.063  10.222   3.682
18677SOL    HW157863   2.017  10.232   3.765
18677SOL    HW257864   2.136  10.164   3.701
18678SOL     OW57865   9.169   6.213   6.723
18678SOL    HW157866   9.156   6.299   6.763
18678SOL    HW257867   9.081   6.175   6.721
18679SOL     OW57868   1.104   2.211   8.229
18679SOL    HW157869   1.102   2.306   8.217
18679SOL    HW257870   1.082   2.198   8.322
18680SOL     OW57871   6.649  14.631   3.743
18680SOL    HW157872   6.620  14.667   3.827
18680SOL    HW257873   6.674  14.707   3.692
18681SOL     OW57874   0.112   2.087  13.022
18681SOL    HW157875   0.055   2.147  13.069
18681SOL    HW257876   0.194   2.087  13.071
18682SOL     OW57877  10.606  10.495   5.391
18682SOL    HW157878  10.511  10.491   5.380
18682SOL    HW257879  10.621  10.461   5.479
18683SOL     OW57880   7.790  13.344  11.897
18683SOL    HW157881   7.712  13.309  11.854
18683SOL    HW257882   7.775  13.328  11.990
18684SOL     OW57883   9.885   6.336  12.153
18684SOL    HW157884   9.876   6.430  12.136
18684SOL    HW257885   9.978   6.324  12.173
18685SOL     OW57886   8.324   9.674  10.576
18685SOL    HW157887   8.379   9.625  10.515
18685SOL    HW257888   8.236   9.666  10.541
18686SOL     OW57889   6.398  12.448   8.087
18686SOL    HW157890   6.440  12.521   8.039
18686SOL    HW257891   6.395  12.478   8.178
18687SOL     OW57892   0.387  12.262  14.692
18687SOL    HW157893   0.365  12.173  14.664
18687SOL    HW257894   0.330  12.318  14.638
18688SOL     OW57895   4.656   0.311   0.996
18688SOL    HW157896   4.707   0.250   1.050
18688SOL    HW257897   4.720   0.349   0.936
18689SOL     OW57898   8.417   9.686   5.919
18689SOL    HW157899   8.487   9.622   5.931
18689SOL    HW257900   8.361   9.675   5.997
18690SOL     OW57901   7.094   9.867   2.203
18690SOL    HW157902   7.174   9.889   2.251
18690SOL    HW257903   7.032   9.936   2.226
18691SOL     OW57904   4.458   7.442   5.700
18691SOL    HW157905   4.507   7.371   5.659
18691SOL    HW257906   4.510   7.467   5.777
18692SOL     OW57907   6.478   5.722   0.477
18692SOL    HW157908   6.572   5.742   0.476
18692SOL    HW257909   6.435   5.806   0.467
18693SOL     OW57910  11.369   4.993   4.903
18693SOL    HW157911  11.298   4.994   4.968
18693SOL    HW257912  11.447   4.968   4.954
18694SOL     OW57913   1.054   7.326   3.297
18694SOL    HW157914   1.043   7.311   3.391
18694SOL    HW257915   1.085   7.416   3.291
18695SOL     OW57916   1.738  14.104  14.220
18695SOL    HW157917   1.713  14.183  14.172
18695SOL    HW257918   1.751  14.134  14.310
18696SOL     OW57919  14.406  10.400  13.413
18696SOL    HW157920  14.472  10.376  13.477
18696SOL    HW257921  14.339  10.446  13.463
18697SOL     OW57922  12.240   4.718   9.536
18697SOL    HW157923  12.298   4.772   9.589
18697SOL    HW257924  12.281   4.717   9.450
18698SOL     OW57925   0.693   9.605   4.905
18698SOL    HW157926   0.644   9.576   4.828
18698SOL    HW257927   0.785   9.595   4.880
18699SOL     OW57928  13.895  14.376  14.830
18699SOL    HW157929  13.987  14.383  14.853
18699SOL    HW257930  13.848  14.401   0.037
18700SOL     OW57931   1.240   5.978   7.505
18700SOL    HW157932   1.153   6.000   7.539
18700SOL    HW257933   1.233   5.886   7.480
18701SOL     OW57934   5.644  13.783   3.874
18701SOL    HW157935   5.630  13.809   3.965
18701SOL    HW257936   5.699  13.852   3.837
18702SOL     OW57937   2.569  13.687   0.191
18702SOL    HW157938   2.600  13.597   0.192
18702SOL    HW257939   2.590  13.721   0.277
18703SOL     OW57940   9.058   7.255  11.321
18703SOL    HW157941   9.011   7.336  11.304
18703SOL    HW257942   9.150   7.282  11.330
18704SOL     OW57943   0.908   3.113   8.148
18704SOL    HW157944   0.985   3.068   8.182
18704SOL    HW257945   0.894   3.186   8.209
18705SOL     OW57946   3.362  14.566   0.746
18705SOL    HW157947   3.323  14.632   0.805
18705SOL    HW257948   3.323  14.584   0.661
18706SOL     OW57949   8.448  11.710   2.072
18706SOL    HW157950   8.541  11.715   2.095
18706SOL    HW257951   8.446  11.728   1.978
18707SOL     OW57952   6.621  14.602  12.819
18707SOL    HW157953   6.625  14.696  12.838
18707SOL    HW257954   6.626  14.560  12.905
18708SOL     OW57955   1.935  12.893   4.372
18708SOL    HW157956   1.858  12.852   4.411
18708SOL    HW257957   1.991  12.915   4.446
18709SOL     OW57958  12.324   1.520   8.922
18709SOL    HW157959  12.257   1.482   8.865
18709SOL    HW257960  12.391   1.552   8.862
18710SOL     OW57961   9.566   2.490   4.529
18710SOL    HW157962   9.488   2.503   4.584
18710SOL    HW257963   9.576   2.395   4.524
18711SOL     OW57964   1.986   7.167  11.477
18711SOL    HW157965   2.056   7.223  11.443
18711SOL    HW257966   1.909   7.224  11.480
18712SOL     OW57967   2.648  12.008  13.046
18712SOL    HW157968   2.659  11.943  12.976
18712SOL    HW257969   2.702  11.975  13.118
18713SOL     OW57970   2.542   7.390   1.920
18713SOL    HW157971   2.525   7.308   1.965
18713SOL    HW257972   2.568   7.364   1.832
18714SOL     OW57973   5.607   6.748   8.964
18714SOL    HW157974   5.517   6.761   8.995
18714SOL    HW257975   5.599   6.738   8.869
18715SOL     OW57976  14.373   7.859   1.241
18715SOL    HW157977  14.431   7.897   1.174
18715SOL    HW257978  14.433   7.819   1.304
18716SOL     OW57979  10.639  12.513   9.092
18716SOL    HW157980  10.662  12.521   8.999
18716SOL    HW257981  10.713  12.466   9.130
18717SOL     OW57982   2.345  13.819  12.876
18717SOL    HW157983   2.336  13.826  12.971
18717SOL    HW257984   2.410  13.886  12.853
18718SOL     OW57985   2.769   8.550   3.489
18718SOL    HW157986   2.726   8.476   3.531
18718SOL    HW257987   2.862   8.527   3.488
18719SOL     OW57988   8.788   6.046   6.521
18719SOL    HW157989   8.735   5.976   6.558
18719SOL    HW257990   8.767   6.045   6.427
18720SOL     OW57991  11.413   8.893   3.155
18720SOL    HW157992  11.336   8.842   3.181
18720SOL    HW257993  11.383   8.945   3.081
18721SOL     OW57994   5.265  10.467  11.908
18721SOL    HW157995   5.249  10.484  12.001
18721SOL    HW257996   5.274  10.372  11.902
18722SOL     OW57997   2.069   5.317  11.230
18722SOL    HW157998   2.050   5.310  11.323
18722SOL    HW257999   2.156   5.279  11.219
18723SOL     OW58000   9.700   1.441   2.865
18723SOL    HW158001   9.737   1.446   2.777
18723SOL    HW258002   9.772   1.410   2.920
18724SOL     OW58003   8.643   1.191   3.334
18724SOL    HW158004   8.709   1.260   3.342
18724SOL    HW258005   8.600   1.208   3.250
18725SOL     OW58006   8.001   4.222   2.482
18725SOL    HW158007   8.056   4.204   2.558
18725SOL    HW258008   8.048   4.184   2.408
18726SOL     OW58009   1.121   0.738  13.251
18726SOL    HW158010   1.102   0.679  13.178
18726SOL    HW258011   1.214   0.758  13.243
18727SOL     OW58012   3.366  12.592  12.361
18727SOL    HW158013   3.348  12.599  12.267
18727SOL    HW258014   3.334  12.674  12.398
18728SOL     OW58015   9.156   1.878   9.125
18728SOL    HW158016   9.211   1.827   9.067
18728SOL    HW258017   9.207   1.886   9.206
18729SOL     OW58018  12.759   7.794  14.857
18729SOL    HW158019  12.670   7.811  14.824
18729SOL    HW258020  12.755   7.705   0.019
18730SOL     OW58021   5.765   2.041   1.024
18730SOL    HW158022   5.834   2.015   1.085
18730SOL    HW258023   5.799   2.018   0.938
18731SOL     OW58024   6.468   9.665   6.348
18731SOL    HW158025   6.440   9.687   6.436
18731SOL    HW258026   6.505   9.746   6.313
18732SOL     OW58027   7.278   7.103   9.694
18732SOL    HW158028   7.311   7.122   9.606
18732SOL    HW258029   7.273   7.008   9.698
18733SOL     OW58030   7.502  13.668   3.382
18733SOL    HW158031   7.515  13.752   3.428
18733SOL    HW258032   7.478  13.694   3.293
18734SOL     OW58033   4.270   3.790   9.257
18734SOL    HW158034   4.196   3.743   9.296
18734SOL    HW258035   4.328   3.721   9.225
18735SOL     OW58036  11.946  12.488   4.431
18735SOL    HW158037  11.928  12.581   4.430
18735SOL    HW258038  12.005  12.476   4.506
18736SOL     OW58039   6.560  12.524   9.987
18736SOL    HW158040   6.471  12.503  10.014
18736SOL    HW258041   6.611  12.522  10.068
18737SOL     OW58042  11.090   2.814  11.457
18737SOL    HW158043  11.122   2.841  11.543
18737SOL    HW258044  11.140   2.735  11.437
18738SOL     OW58045   6.873   2.921   4.250
18738SOL    HW158046   6.867   2.843   4.195
18738SOL    HW258047   6.797   2.916   4.308
18739SOL     OW58048  11.874   9.309   6.768
18739SOL    HW158049  11.821   9.375   6.723
18739SOL    HW258050  11.952   9.357   6.798
18740SOL     OW58051   7.243  14.869  11.026
18740SOL    HW158052   7.198   0.081  11.034
18740SOL    HW258053   7.302   0.007  10.952
18741SOL     OW58054   6.340   8.634  14.228
18741SOL    HW158055   6.302   8.619  14.142
18741SOL    HW258056   6.371   8.725  14.226
18742SOL     OW58057   6.751   0.766  13.942
18742SOL    HW158058   6.777   0.819  13.867
18742SOL    HW258059   6.655   0.761  13.936
18743SOL     OW58060   5.374   5.640   1.007
18743SOL    HW158061   5.286   5.618   0.975
18743SOL    HW258062   5.433   5.590   0.951
18744SOL     OW58063  12.708   0.248   5.383
18744SOL    HW158064  12.725   0.335   5.349
18744SOL    HW258065  12.613   0.245   5.396
18745SOL     OW58066   7.778   3.810  10.699
18745SOL    HW158067   7.815   3.738  10.749
18745SOL    HW258068   7.748   3.769  10.618
18746SOL     OW58069  10.579   9.102   2.259
18746SOL    HW158070  10.524   9.052   2.199
18746SOL    HW258071  10.597   9.184   2.213
18747SOL     OW58072   8.844   8.057  13.885
18747SOL    HW158073   8.765   8.058  13.831
18747SOL    HW258074   8.913   8.029  13.826
18748SOL     OW58075  11.125  10.758   7.080
18748SOL    HW158076  11.117  10.672   7.122
18748SOL    HW258077  11.034  10.784   7.061
18749SOL     OW58078   5.595   0.066   9.288
18749SOL    HW158079   5.633   0.093   9.372
18749SOL    HW258080   5.501   0.075   9.300
18750SOL     OW58081   1.461  14.747   9.753
18750SOL    HW158082   1.548  14.711   9.739
18750SOL    HW258083   1.469  14.802   9.831
18751SOL     OW58084   6.331   5.688   7.018
18751SOL    HW158085   6.264   5.723   7.077
18751SOL    HW258086   6.402   5.752   7.023
18752SOL     OW58087  12.879   3.607   1.880
18752SOL    HW158088  12.953   3.633   1.826
18752SOL    HW258089  12.871   3.676   1.946
18753SOL     OW58090   1.890   9.339   7.815
18753SOL    HW158091   1.904   9.432   7.798
18753SOL    HW258092   1.956   9.294   7.764
18754SOL     OW58093  11.313  14.582  12.817
18754SOL    HW158094  11.316  14.674  12.845
18754SOL    HW258095  11.396  14.545  12.846
18755SOL     OW58096  12.100   4.770   4.447
18755SOL    HW158097  12.182   4.746   4.404
18755SOL    HW258098  12.126   4.798   4.535
18756SOL     OW58099   0.152   8.756  12.328
18756SOL    HW158100   0.150   8.679  12.386
18756SOL    HW258101   0.066   8.797  12.339
18757SOL     OW58102  11.599  11.429   6.559
18757SOL    HW158103  11.695  11.430   6.564
18757SOL    HW258104  11.570  11.430   6.650
18758SOL     OW58105   3.009   9.283   7.642
18758SOL    HW158106   3.072   9.351   7.620
18758SOL    HW258107   2.995   9.236   7.559
18759SOL     OW58108   6.877   7.688   4.474
18759SOL    HW158109   6.930   7.767   4.487
18759SOL    HW258110   6.793   7.720   4.442
18760SOL     OW58111  10.411  12.059  11.640
18760SOL    HW158112  10.435  11.969  11.664
18760SOL    HW258113  10.450  12.113  11.708
18761SOL     OW58114   5.966   0.923   8.859
18761SOL    HW158115   6.023   0.854   8.825
18761SOL    HW258116   5.927   0.963   8.782
18762SOL     OW58117   2.259   9.413  10.096
18762SOL    HW158118   2.175   9.410  10.050
18762SOL    HW258119   2.255   9.338  10.156
18763SOL     OW58120  13.404   9.665   7.506
18763SOL    HW158121  13.327   9.722   7.505
18763SOL    HW258122  13.433   9.661   7.415
18764SOL     OW58123   5.113   3.999  10.403
18764SOL    HW158124   5.140   4.049  10.326
18764SOL    HW258125   5.097   4.065  10.471
18765SOL     OW58126   4.208  10.947  12.850
18765SOL    HW158127   4.223  11.040  12.833
18765SOL    HW258128   4.212  10.906  12.764
18766SOL     OW58129  13.679   2.949   1.706
18766SOL    HW158130  13.720   2.908   1.629
18766SOL    HW258131  13.612   3.007   1.669
18767SOL     OW58132  13.635  14.806  11.162
18767SOL    HW158133  13.680  14.794  11.245
18767SOL    HW258134  13.634   0.028  11.147
18768SOL     OW58135   1.418   2.045   2.914
18768SOL    HW158136   1.494   2.034   2.970
18768SOL    HW258137   1.413   2.139   2.896
18769SOL     OW58138   1.864   7.504   2.105
18769SOL    HW158139   1.803   7.549   2.163
18769SOL    HW258140   1.942   7.489   2.159
18770SOL     OW58141   0.028   8.724   1.617
18770SOL    HW158142   0.049   8.637   1.650
18770SOL    HW258143   0.005   8.774   1.695
18771SOL     OW58144  14.128   3.108  13.137
18771SOL    HW158145  14.047   3.101  13.187
18771SOL    HW258146  14.107   3.167  13.065
18772SOL     OW58147  11.156  13.974   2.344
18772SOL    HW158148  11.130  14.049   2.397
18772SOL    HW258149  11.085  13.910   2.355
18773SOL     OW58150   8.604  14.710   7.589
18773SOL    HW158151   8.609  14.637   7.527
18773SOL    HW258152   8.617  14.670   7.674
18774SOL     OW58153   0.954  10.680  10.728
18774SOL    HW158154   0.904  10.753  10.766
18774SOL    HW258155   0.953  10.612  10.795
18775SOL     OW58156   9.911  10.684   5.667
18775SOL    HW158157   9.956  10.664   5.585
18775SOL    HW258158   9.856  10.608   5.684
18776SOL     OW58159   8.767  12.963   9.060
18776SOL    HW158160   8.765  12.868   9.063
18776SOL    HW258161   8.784  12.984   8.968
18777SOL     OW58162   4.261   2.326   1.426
18777SOL    HW158163   4.187   2.273   1.457
18777SOL    HW258164   4.272   2.300   1.334
18778SOL     OW58165  13.867   2.166   5.965
18778SOL    HW158166  13.897   2.132   5.881
18778SOL    HW258167  13.853   2.259   5.949
18779SOL     OW58168  13.631   4.646   8.801
18779SOL    HW158169  13.687   4.694   8.740
18779SOL    HW258170  13.558   4.614   8.748
18780SOL     OW58171  11.554   1.694  12.514
18780SOL    HW158172  11.499   1.653  12.580
18780SOL    HW258173  11.638   1.708  12.558
18781SOL     OW58174   4.389   4.341   6.946
18781SOL    HW158175   4.446   4.295   7.008
18781SOL    HW258176   4.446   4.407   6.906
18782SOL     OW58177   0.000  14.057  10.732
18782SOL    HW158178   0.065  14.084  10.667
18782SOL    HW258179  14.800  14.022  10.680
18783SOL     OW58180  11.528   4.600  14.093
18783SOL    HW158181  11.472   4.543  14.039
18783SOL    HW258182  11.596   4.630  14.033
18784SOL     OW58183  10.794   1.811  14.381
18784SOL    HW158184  10.866   1.873  14.376
18784SOL    HW258185  10.730   1.853  14.438
18785SOL     OW58186  13.226   3.831  11.271
18785SOL    HW158187  13.202   3.874  11.353
18785SOL    HW258188  13.159   3.859  11.209
18786SOL     OW58189   6.457   0.724   2.765
18786SOL    HW158190   6.540   0.741   2.721
18786SOL    HW258191   6.439   0.631   2.749
18787SOL     OW58192   2.271   4.140  10.654
18787SOL    HW158193   2.340   4.075  10.669
18787SOL    HW258194   2.228   4.110  10.574
18788SOL     OW58195   4.510   9.413  14.288
18788SOL    HW158196   4.484   9.503  14.307
18788SOL    HW258197   4.456   9.359  14.346
18789SOL     OW58198   4.227  14.680  13.027
18789SOL    HW158199   4.265  14.755  13.073
18789SOL    HW258200   4.269  14.603  13.066
18790SOL     OW58201  14.561   0.591  12.761
18790SOL    HW158202  14.646   0.547  12.768
18790SOL    HW258203  14.509   0.556  12.833
18791SOL     OW58204   9.449   4.518   5.360
18791SOL    HW158205   9.446   4.431   5.322
18791SOL    HW258206   9.368   4.525   5.411
18792SOL     OW58207  11.907  11.422  13.694
18792SOL    HW158208  11.844  11.407  13.624
18792SOL    HW258209  11.905  11.516  13.709
18793SOL     OW58210   2.832  13.185   0.642
18793SOL    HW158211   2.744  13.151   0.628
18793SOL    HW258212   2.829  13.227   0.728
18794SOL     OW58213   7.395  11.543   8.611
18794SOL    HW158214   7.331  11.613   8.607
18794SOL    HW258215   7.369  11.490   8.687
18795SOL     OW58216  13.635   6.584  10.869
18795SOL    HW158217  13.643   6.512  10.932
18795SOL    HW258218  13.544   6.581  10.839
18796SOL     OW58219   9.797  11.067   6.574
18796SOL    HW158220   9.839  11.094   6.492
18796SOL    HW258221   9.779  10.974   6.563
18797SOL     OW58222   1.502  12.257  10.099
18797SOL    HW158223   1.427  12.316  10.086
18797SOL    HW258224   1.482  12.211  10.180
18798SOL     OW58225   5.035   7.344   1.925
18798SOL    HW158226   5.090   7.416   1.956
18798SOL    HW258227   5.035   7.353   1.830
18799SOL     OW58228  14.292  13.566  13.824
18799SOL    HW158229  14.268  13.574  13.916
18799SOL    HW258230  14.309  13.472  13.812
18800SOL     OW58231  10.497   0.657   6.636
18800SOL    HW158232  10.581   0.631   6.598
18800SOL    HW258233  10.433   0.600   6.594
18801SOL     OW58234   4.075   9.016   7.958
18801SOL    HW158235   4.146   8.953   7.974
18801SOL    HW258236   4.115   9.083   7.902
18802SOL     OW58237   4.852   0.695   2.266
18802SOL    HW158238   4.771   0.644   2.260
18802SOL    HW258239   4.860   0.715   2.359
18803SOL     OW58240   8.364   4.481   5.320
18803SOL    HW158241   8.284   4.459   5.369
18803SOL    HW258242   8.379   4.573   5.339
18804SOL     OW58243   8.256  13.407  10.448
18804SOL    HW158244   8.184  13.469  10.436
18804SOL    HW258245   8.213  13.325  10.471
18805SOL     OW58246   2.460  12.255   1.085
18805SOL    HW158247   2.551  12.249   1.058
18805SOL    HW258248   2.435  12.166   1.110
18806SOL     OW58249   3.097   1.726   3.836
18806SOL    HW158250   3.011   1.762   3.858
18806SOL    HW258251   3.091   1.705   3.743
18807SOL     OW58252   5.327   2.202   3.048
18807SOL    HW158253   5.364   2.276   3.096
18807SOL    HW258254   5.382   2.128   3.074
18808SOL     OW58255   2.892   2.855   4.284
18808SOL    HW158256   2.886   2.918   4.212
18808SOL    HW258257   2.925   2.775   4.244
18809SOL     OW58258   7.682   3.620  14.822
18809SOL    HW158259   7.682   3.530  14.853
18809SOL    HW258260   7.659   3.672   0.028
18810SOL     OW58261   2.176   1.858   8.458
18810SOL    HW158262   2.174   1.764   8.441
18810SOL    HW258263   2.085   1.882   8.473
18811SOL     OW58264   1.073   6.835   2.715
18811SOL    HW158265   1.167   6.845   2.725
18811SOL    HW258266   1.061   6.745   2.684
18812SOL     OW58267  13.414   9.901  14.742
18812SOL    HW158268  13.339   9.924  14.796
18812SOL    HW258269  13.419   9.971  14.676
18813SOL     OW58270   5.741  12.084   1.298
18813SOL    HW158271   5.681  12.147   1.258
18813SOL    HW258272   5.740  12.009   1.238
18814SOL     OW58273  10.669  14.570   5.449
18814SOL    HW158274  10.692  14.583   5.540
18814SOL    HW258275  10.742  14.520   5.413
18815SOL     OW58276   5.924   0.836   0.220
18815SOL    HW158277   5.980   0.825   0.143
18815SOL    HW258278   5.961   0.910   0.267
18816SOL     OW58279   1.975   2.533   0.394
18816SOL    HW158280   2.059   2.554   0.433
18816SOL    HW258281   1.920   2.505   0.467
18817SOL     OW58282  12.638   4.100   7.199
18817SOL    HW158283  12.564   4.048   7.167
18817SOL    HW258284  12.629   4.099   7.294
18818SOL     OW58285   9.740   0.578   7.690
18818SOL    HW158286   9.669   0.529   7.648
18818SOL    HW258287   9.819   0.531   7.664
18819SOL     OW58288  11.765   6.838   6.666
18819SOL    HW158289  11.800   6.762   6.712
18819SOL    HW258290  11.772   6.909   6.729
18820SOL     OW58291   4.338   1.452  10.311
18820SOL    HW158292   4.407   1.394  10.346
18820SOL    HW258293   4.269   1.449  10.377
18821SOL     OW58294   3.038  14.187   3.200
18821SOL    HW158295   3.128  14.208   3.227
18821SOL    HW258296   3.007  14.267   3.156
18822SOL     OW58297   8.593   1.806  12.181
18822SOL    HW158298   8.687   1.797  12.199
18822SOL    HW258299   8.581   1.900  12.162
18823SOL     OW58300   6.853   7.471   2.568
18823SOL    HW158301   6.897   7.509   2.644
18823SOL    HW258302   6.838   7.544   2.509
18824SOL     OW58303   7.783   8.420  13.150
18824SOL    HW158304   7.783   8.367  13.230
18824SOL    HW258305   7.714   8.485  13.164
18825SOL     OW58306   3.359   6.466  12.624
18825SOL    HW158307   3.448   6.500  12.636
18825SOL    HW258308   3.321   6.470  12.712
18826SOL     OW58309   3.131   0.193   1.166
18826SOL    HW158310   3.071   0.240   1.107
18826SOL    HW258311   3.123   0.101   1.139
18827SOL     OW58312   3.703  13.458  14.467
18827SOL    HW158313   3.698  13.548  14.502
18827SOL    HW258314   3.749  13.468  14.384
18828SOL     OW58315   6.054  11.015   2.044
18828SOL    HW158316   6.071  11.071   1.968
18828SOL    HW258317   5.961  10.994   2.039
18829SOL     OW58318   2.155   9.629  11.673
18829SOL    HW158319   2.180   9.715  11.706
18829SOL    HW258320   2.235   9.593  11.634
18830SOL     OW58321  14.002   7.992   3.999
18830SOL    HW158322  14.066   8.053   4.034
18830SOL    HW258323  13.975   8.030   3.915
18831SOL     OW58324  11.243   0.748   2.512
18831SOL    HW158325  11.307   0.795   2.565
18831SOL    HW258326  11.170   0.731   2.572
18832SOL     OW58327  14.502   8.912   7.752
18832SOL    HW158328  14.534   8.866   7.675
18832SOL    HW258329  14.406   8.904   7.746
18833SOL     OW58330   0.934   1.623  11.831
18833SOL    HW158331   0.997   1.653  11.765
18833SOL    HW258332   0.977   1.643  11.915
18834SOL     OW58333  11.808   3.433  10.496
18834SOL    HW158334  11.843   3.488  10.566
18834SOL    HW258335  11.725   3.399  10.531
18835SOL     OW58336  13.548  10.986  10.251
18835SOL    HW158337  13.536  11.081  10.257
18835SOL    HW258338  13.611  10.966  10.320
18836SOL     OW58339   0.577   5.789   8.737
18836SOL    HW158340   0.598   5.803   8.829
18836SOL    HW258341   0.495   5.740   8.739
18837SOL     OW58342   0.371   0.760   8.313
18837SOL    HW158343   0.325   0.732   8.234
18837SOL    HW258344   0.436   0.692   8.329
18838SOL     OW58345   6.555   9.951  11.377
18838SOL    HW158346   6.595   9.991  11.454
18838SOL    HW258347   6.471   9.917  11.408
18839SOL     OW58348   9.175   2.948   1.917
18839SOL    HW158349   9.221   3.022   1.957
18839SOL    HW258350   9.115   2.917   1.985
18840SOL     OW58351   6.322  11.900   1.514
18840SOL    HW158352   6.384  11.951   1.566
18840SOL    HW258353   6.250  11.960   1.496
18841SOL     OW58354   7.439   3.080   6.585
18841SOL    HW158355   7.400   3.104   6.500
18841SOL    HW258356   7.379   3.015   6.621
18842SOL     OW58357   1.734   9.921   9.244
18842SOL    HW158358   1.752   9.836   9.204
18842SOL    HW258359   1.729   9.982   9.171
18843SOL     OW58360   6.110   8.517   9.905
18843SOL    HW158361   6.112   8.437   9.852
18843SOL    HW258362   6.139   8.586   9.847
18844SOL     OW58363   4.585   4.759  11.604
18844SOL    HW158364   4.605   4.794  11.517
18844SOL    HW258365   4.490   4.772  11.614
18845SOL     OW58366   8.950  10.681   4.803
18845SOL    HW158367   8.970  10.732   4.882
18845SOL    HW258368   9.032  10.680   4.754
18846SOL     OW58369  11.947  12.715   8.323
18846SOL    HW158370  11.962  12.807   8.343
18846SOL    HW258371  12.021  12.669   8.362
18847SOL     OW58372   9.665   1.436   1.808
18847SOL    HW158373   9.605   1.368   1.780
18847SOL    HW258374   9.640   1.514   1.758
18848SOL     OW58375  13.224  10.429  14.350
18848SOL    HW158376  13.152  10.453  14.409
18848SOL    HW258377  13.283  10.504  14.351
18849SOL     OW58378  10.353   6.655   6.458
18849SOL    HW158379  10.282   6.591   6.466
18849SOL    HW258380  10.385   6.643   6.368
18850SOL     OW58381   6.365  11.848   6.290
18850SOL    HW158382   6.436  11.871   6.351
18850SOL    HW258383   6.367  11.752   6.286
18851SOL     OW58384  10.378  13.205  12.782
18851SOL    HW158385  10.422  13.142  12.839
18851SOL    HW258386  10.418  13.289  12.804
18852SOL     OW58387   1.357   4.268   9.754
18852SOL    HW158388   1.346   4.241   9.663
18852SOL    HW258389   1.340   4.362   9.753
18853SOL     OW58390   8.889  10.337   4.200
18853SOL    HW158391   8.977  10.307   4.222
18853SOL    HW258392   8.886  10.333   4.105
18854SOL     OW58393   8.742  14.420   9.969
18854SOL    HW158394   8.702  14.500   9.935
18854SOL    HW258395   8.779  14.445  10.054
18855SOL     OW58396  13.131  13.768   4.329
18855SOL    HW158397  13.107  13.694   4.385
18855SOL    HW258398  13.048  13.803   4.298
18856SOL     OW58399   6.259   7.058  10.575
18856SOL    HW158400   6.315   7.001  10.627
18856SOL    HW258401   6.203   6.998  10.526
18857SOL     OW58402   2.813   2.513   1.699
18857SOL    HW158403   2.804   2.580   1.631
18857SOL    HW258404   2.849   2.437   1.653
18858SOL     OW58405   2.099   6.444   9.496
18858SOL    HW158406   2.124   6.414   9.583
18858SOL    HW258407   2.148   6.388   9.435
18859SOL     OW58408  14.141   0.349   6.641
18859SOL    HW158409  14.162   0.442   6.648
18859SOL    HW258410  14.189   0.319   6.564
18860SOL     OW58411   2.245  13.456   0.613
18860SOL    HW158412   2.195  13.389   0.658
18860SOL    HW258413   2.336  13.439   0.636
18861SOL     OW58414   5.315   0.482  14.117
18861SOL    HW158415   5.284   0.495  14.028
18861SOL    HW258416   5.279   0.556  14.166
18862SOL     OW58417   3.968   0.069   2.073
18862SOL    HW158418   3.978   0.154   2.115
18862SOL    HW258419   3.999   0.082   1.983
18863SOL     OW58420   9.052   3.400   4.378
18863SOL    HW158421   8.966   3.441   4.367
18863SOL    HW258422   9.110   3.450   4.320
18864SOL     OW58423   0.436  10.526   7.268
18864SOL    HW158424   0.483  10.484   7.340
18864SOL    HW258425   0.354  10.557   7.306
18865SOL     OW58426  14.804  13.447   8.882
18865SOL    HW158427  14.730  13.463   8.824
18865SOL    HW258428  14.789  13.360   8.918
18866SOL     OW58429  11.873   6.420  11.251
18866SOL    HW158430  11.881   6.501  11.301
18866SOL    HW258431  11.911   6.440  11.166
18867SOL     OW58432   6.702   5.776   1.686
18867SOL    HW158433   6.702   5.758   1.780
18867SOL    HW258434   6.686   5.870   1.678
18868SOL     OW58435   3.555   0.989   2.598
18868SOL    HW158436   3.483   1.051   2.612
18868SOL    HW258437   3.622   1.040   2.552
18869SOL     OW58438   7.905  10.813   5.349
18869SOL    HW158439   7.866  10.827   5.263
18869SOL    HW258440   7.839  10.764   5.398
18870SOL     OW58441   9.991  10.793   4.291
18870SOL    HW158442   9.970  10.726   4.226
18870SOL    HW258443  10.051  10.750   4.352
18871SOL     OW58444   2.535  14.800  13.279
18871SOL    HW158445   2.469  14.750  13.231
18871SOL    HW258446   2.600  14.823  13.212
18872SOL     OW58447   1.122   1.013   6.681
18872SOL    HW158448   1.129   1.025   6.587
18872SOL    HW258449   1.136   1.101   6.717
18873SOL     OW58450   0.559  14.476   5.661
18873SOL    HW158451   0.642  14.461   5.705
18873SOL    HW258452   0.510  14.394   5.673
18874SOL     OW58453  12.721   4.621   3.630
18874SOL    HW158454  12.661   4.695   3.640
18874SOL    HW258455  12.767   4.639   3.548
18875SOL     OW58456   5.519   5.393   9.678
18875SOL    HW158457   5.570   5.412   9.600
18875SOL    HW258458   5.452   5.331   9.649
18876SOL     OW58459   0.499  10.290  10.012
18876SOL    HW158460   0.497  10.344  10.091
18876SOL    HW258461   0.580  10.239  10.020
18877SOL     OW58462   3.185  13.691   3.453
18877SOL    HW158463   3.130  13.614   3.466
18877SOL    HW258464   3.130  13.753   3.406
18878SOL     OW58465   2.998  13.424  13.853
18878SOL    HW158466   2.906  13.420  13.878
18878SOL    HW258467   3.001  13.481  13.777
18879SOL     OW58468   9.158   1.296   3.446
18879SOL    HW158469   9.184   1.383   3.476
18879SOL    HW258470   9.241   1.250   3.431
18880SOL     OW58471   2.164   3.511   6.167
18880SOL    HW158472   2.250   3.534   6.201
18880SOL    HW258473   2.108   3.586   6.189
18881SOL     OW58474  13.005   2.465   1.370
18881SOL    HW158475  12.968   2.486   1.284
18881SOL    HW258476  12.935   2.422   1.417
18882SOL     OW58477   2.082   0.675   4.565
18882SOL    HW158478   2.101   0.582   4.552
18882SOL    HW258479   2.142   0.702   4.634
18883SOL     OW58480  13.480   7.736  14.820
18883SOL    HW158481  13.556   7.684  14.847
18883SOL    HW258482  13.500   7.764  14.730
18884SOL     OW58483   1.798   8.632  12.297
18884SOL    HW158484   1.812   8.679  12.215
18884SOL    HW258485   1.821   8.541  12.277
18885SOL     OW58486  12.758  13.907   5.923
18885SOL    HW158487  12.848  13.891   5.950
18885SOL    HW258488  12.728  13.823   5.889
18886SOL     OW58489   0.468   5.524   1.024
18886SOL    HW158490   0.512   5.608   1.015
18886SOL    HW258491   0.385   5.545   1.067
18887SOL     OW58492   5.753  13.470  11.267
18887SOL    HW158493   5.835  13.515  11.251
18887SOL    HW258494   5.719  13.508  11.347
18888SOL     OW58495  13.727   0.701  11.136
18888SOL    HW158496  13.747   0.691  11.043
18888SOL    HW258497  13.725   0.796  11.150
18889SOL     OW58498   3.906  13.936   2.812
18889SOL    HW158499   3.973  13.868   2.801
18889SOL    HW258500   3.909  13.987   2.731
18890SOL     OW58501  10.173   5.689   3.318
18890SOL    HW158502  10.234   5.763   3.329
18890SOL    HW258503  10.127   5.708   3.237
18891SOL     OW58504  11.545   5.786   4.559
18891SOL    HW158505  11.521   5.867   4.513
18891SOL    HW258506  11.514   5.716   4.502
18892SOL     OW58507   9.806  12.135   4.935
18892SOL    HW158508   9.828  12.106   4.846
18892SOL    HW258509   9.802  12.054   4.985
18893SOL     OW58510  11.110   0.816  13.103
18893SOL    HW158511  11.055   0.779  13.034
18893SOL    HW258512  11.050   0.829  13.177
18894SOL     OW58513   4.229   4.495   5.002
18894SOL    HW158514   4.296   4.487   5.070
18894SOL    HW258515   4.273   4.466   4.922
18895SOL     OW58516   3.901  10.081   6.911
18895SOL    HW158517   3.920  10.034   6.830
18895SOL    HW258518   3.903  10.013   6.979
18896SOL     OW58519  10.554  13.392   7.054
18896SOL    HW158520  10.616  13.386   7.126
18896SOL    HW258521  10.468  13.389   7.095
18897SOL     OW58522   7.845  13.926   7.446
18897SOL    HW158523   7.931  13.931   7.404
18897SOL    HW258524   7.815  13.837   7.428
18898SOL     OW58525  14.677   0.281   0.101
18898SOL    HW158526  14.744   0.216   0.123
18898SOL    HW258527  14.673   0.337   0.179
18899SOL     OW58528  13.655   3.564   8.479
18899SOL    HW158529  13.662   3.589   8.571
18899SOL    HW258530  13.640   3.646   8.433
18900SOL     OW58531   9.130   7.627  11.952
18900SOL    HW158532   9.213   7.665  11.978
18900SOL    HW258533   9.144   7.597  11.862
18901SOL     OW58534   3.046  11.278  10.282
18901SOL    HW158535   3.002  11.360  10.260
18901SOL    HW258536   3.131  11.284  10.239
18902SOL     OW58537   6.313  10.676  10.052
18902SOL    HW158538   6.349  10.701  10.137
18902SOL    HW258539   6.390  10.663   9.996
18903SOL     OW58540   4.672   7.493  13.112
18903SOL    HW158541   4.712   7.413  13.147
18903SOL    HW258542   4.739   7.530  13.055
18904SOL     OW58543   8.230   3.573   4.559
18904SOL    HW158544   8.155   3.549   4.614
18904SOL    HW258545   8.234   3.503   4.493
18905SOL     OW58546  12.129  14.269   2.553
18905SOL    HW158547  12.060  14.323   2.515
18905SOL    HW258548  12.210  14.319   2.537
18906SOL     OW58549   5.523   3.556  12.131
18906SOL    HW158550   5.476   3.607  12.065
18906SOL    HW258551   5.548   3.619  12.198
18907SOL     OW58552   5.575   9.810   8.035
18907SOL    HW158553   5.527   9.889   8.011
18907SOL    HW258554   5.605   9.773   7.951
18908SOL     OW58555   2.335   7.434   4.190
18908SOL    HW158556   2.261   7.494   4.196
18908SOL    HW258557   2.331   7.383   4.272
18909SOL     OW58558  13.827  13.538   1.026
18909SOL    HW158559  13.902  13.531   1.085
18909SOL    HW258560  13.760  13.483   1.066
18910SOL     OW58561  14.172   2.701   2.512
18910SOL    HW158562  14.162   2.768   2.580
18910SOL    HW258563  14.185   2.751   2.431
18911SOL     OW58564   9.535   1.341  10.821
18911SOL    HW158565   9.516   1.322  10.913
18911SOL    HW258566   9.606   1.282  10.798
18912SOL     OW58567  10.608  13.604   2.527
18912SOL    HW158568  10.697  13.580   2.554
18912SOL    HW258569  10.552  13.548   2.581
18913SOL     OW58570  12.972  14.284   2.654
18913SOL    HW158571  12.911  14.226   2.609
18913SOL    HW258572  12.926  14.367   2.662
18914SOL     OW58573   2.638  14.442   0.948
18914SOL    HW158574   2.638  14.380   1.021
18914SOL    HW258575   2.601  14.393   0.875
18915SOL     OW58576   8.118   9.606   4.594
18915SOL    HW158577   8.048   9.610   4.659
18915SOL    HW258578   8.168   9.686   4.607
18916SOL     OW58579  13.288   7.171   0.367
18916SOL    HW158580  13.232   7.212   0.302
18916SOL    HW258581  13.271   7.219   0.448
18917SOL     OW58582  10.616  12.667   0.809
18917SOL    HW158583  10.553  12.734   0.784
18917SOL    HW258584  10.699  12.714   0.820
18918SOL     OW58585   0.379   4.367   1.746
18918SOL    HW158586   0.388   4.449   1.698
18918SOL    HW258587   0.426   4.381   1.828
18919SOL     OW58588   2.639  11.832   6.703
18919SOL    HW158589   2.717  11.886   6.718
18919SOL    HW258590   2.668  11.743   6.723
18920SOL     OW58591  10.354   7.257  14.180
18920SOL    HW158592  10.299   7.310  14.123
18920SOL    HW258593  10.367   7.311  14.258
18921SOL     OW58594   7.110   2.814   7.077
18921SOL    HW158595   7.128   2.769   6.995
18921SOL    HW258596   7.041   2.762   7.118
18922SOL     OW58597  14.608   6.880   7.469
18922SOL    HW158598  14.647   6.863   7.383
18922SOL    HW258599  14.674   6.930   7.517
18923SOL     OW58600  13.583   1.337   5.384
18923SOL    HW158601  13.668   1.378   5.366
18923SOL    HW258602  13.525   1.410   5.407
18924SOL     OW58603   2.701   2.834   5.946
18924SOL    HW158604   2.788   2.825   5.907
18924SOL    HW258605   2.717   2.884   6.026
18925SOL     OW58606   2.620   6.758   9.322
18925SOL    HW158607   2.617   6.754   9.226
18925SOL    HW258608   2.563   6.687   9.351
18926SOL     OW58609   3.414   7.751   0.779
18926SOL    HW158610   3.491   7.798   0.810
18926SOL    HW258611   3.411   7.767   0.685
18927SOL     OW58612   0.354   6.793   5.601
18927SOL    HW158613   0.269   6.785   5.645
18927SOL    HW258614   0.409   6.841   5.664
18928SOL     OW58615   5.201   0.581  10.427
18928SOL    HW158616   5.195   0.674  10.406
18928SOL    HW258617   5.159   0.573  10.513
18929SOL     OW58618  12.760  12.389   1.055
18929SOL    HW158619  12.684  12.415   1.004
18929SOL    HW258620  12.762  12.450   1.129
18930SOL     OW58621   0.972   4.273  13.958
18930SOL    HW158622   0.915   4.315  14.023
18930SOL    HW258623   0.915   4.209  13.915
18931SOL     OW58624   8.184   8.447   1.260
18931SOL    HW158625   8.143   8.528   1.289
18931SOL    HW258626   8.148   8.380   1.318
18932SOL     OW58627   5.782   8.246  12.615
18932SOL    HW158628   5.869   8.275  12.644
18932SOL    HW258629   5.742   8.323  12.576
18933SOL     OW58630   4.022   0.097   7.501
18933SOL    HW158631   4.114   0.092   7.474
18933SOL    HW258632   4.011   0.187   7.531
18934SOL     OW58633  11.053  14.613   0.226
18934SOL    HW158634  11.062  14.629   0.133
18934SOL    HW258635  10.996  14.682   0.258
18935SOL     OW58636   3.375   9.768   4.608
18935SOL    HW158637   3.450   9.762   4.667
18935SOL    HW258638   3.302   9.791   4.665
18936SOL     OW58639   6.626  10.150   5.473
18936SOL    HW158640   6.697  10.088   5.486
18936SOL    HW258641   6.578  10.149   5.556
18937SOL     OW58642   2.301   5.602  12.717
18937SOL    HW158643   2.235   5.561  12.774
18937SOL    HW258644   2.346   5.528  12.676
18938SOL     OW58645   1.144   7.975   5.956
18938SOL    HW158646   1.233   8.010   5.968
18938SOL    HW258647   1.132   7.974   5.861
18939SOL     OW58648   7.447  11.390   2.640
18939SOL    HW158649   7.543  11.388   2.634
18939SOL    HW258650   7.417  11.380   2.549
18940SOL     OW58651   9.115  14.573   5.506
18940SOL    HW158652   9.163  14.643   5.463
18940SOL    HW258653   9.183  14.511   5.534
18941SOL     OW58654  11.474  10.355   9.957
18941SOL    HW158655  11.397  10.405   9.932
18941SOL    HW258656  11.479  10.363  10.052
18942SOL     OW58657   1.659   2.123  14.351
18942SOL    HW158658   1.651   2.045  14.406
18942SOL    HW258659   1.675   2.195  14.412
18943SOL     OW58660   7.037  12.521  10.914
18943SOL    HW158661   7.108  12.563  10.865
18943SOL    HW258662   6.959  12.572  10.892
18944SOL     OW58663   9.220   7.432   1.723
18944SOL    HW158664   9.157   7.428   1.795
18944SOL    HW258665   9.305   7.438   1.766
18945SOL     OW58666   2.638   0.701  13.423
18945SOL    HW158667   2.612   0.789  13.397
18945SOL    HW258668   2.682   0.664  13.346
18946SOL     OW58669   5.718   7.986  14.464
18946SOL    HW158670   5.759   8.068  14.437
18946SOL    HW258671   5.636   7.982  14.415
18947SOL     OW58672   7.685   1.770   0.513
18947SOL    HW158673   7.684   1.703   0.445
18947SOL    HW258674   7.618   1.743   0.575
18948SOL     OW58675   8.066   4.175   1.628
18948SOL    HW158676   8.128   4.103   1.639
18948SOL    HW258677   8.113   4.252   1.659
18949SOL     OW58678  12.177   2.199  12.707
18949SOL    HW158679  12.164   2.108  12.681
18949SOL    HW258680  12.091   2.227  12.740
18950SOL     OW58681   2.337   9.407  12.633
18950SOL    HW158682   2.242   9.411  12.627
18950SOL    HW258683   2.354   9.338  12.697
18951SOL     OW58684   6.379   2.466  13.136
18951SOL    HW158685   6.438   2.391  13.125
18951SOL    HW258686   6.437   2.542  13.140
18952SOL     OW58687   2.584   6.315  14.125
18952SOL    HW158688   2.586   6.224  14.156
18952SOL    HW258689   2.616   6.366  14.200
18953SOL     OW58690  10.856   4.602   9.369
18953SOL    HW158691  10.932   4.622   9.423
18953SOL    HW258692  10.872   4.650   9.287
18954SOL     OW58693   3.644   8.022   3.219
18954SOL    HW158694   3.664   8.036   3.311
18954SOL    HW258695   3.598   8.102   3.192
18955SOL     OW58696   4.669   4.651  10.634
18955SOL    HW158697   4.677   4.576  10.693
18955SOL    HW258698   4.757   4.688  10.630
18956SOL     OW58699  13.457  10.468   0.869
18956SOL    HW158700  13.533  10.522   0.846
18956SOL    HW258701  13.384  10.530   0.872
18957SOL     OW58702   6.212   0.401  10.207
18957SOL    HW158703   6.147   0.465  10.178
18957SOL    HW258704   6.231   0.348  10.130
18958SOL     OW58705  12.567   8.111  11.878
18958SOL    HW158706  12.632   8.063  11.930
18958SOL    HW258707  12.525   8.169  11.941
18959SOL     OW58708   4.664   7.778  10.154
18959SOL    HW158709   4.588   7.780  10.096
18959SOL    HW258710   4.693   7.870  10.158
18960SOL     OW58711   6.269   4.247  14.017
18960SOL    HW158712   6.272   4.175  14.081
18960SOL    HW258713   6.298   4.324  14.066
18961SOL     OW58714   9.884   3.021   9.103
18961SOL    HW158715   9.795   3.057   9.100
18961SOL    HW258716   9.910   3.014   9.011
18962SOL     OW58717   0.394   5.388   3.053
18962SOL    HW158718   0.386   5.299   3.018
18962SOL    HW258719   0.372   5.380   3.145
18963SOL     OW58720  13.390  14.084   6.388
18963SOL    HW158721  13.480  14.106   6.415
18963SOL    HW258722  13.352  14.168   6.361
18964SOL     OW58723  12.205   9.910   7.403
18964SOL    HW158724  12.146   9.839   7.375
18964SOL    HW258725  12.238   9.881   7.488
18965SOL     OW58726   0.762   6.208   7.039
18965SOL    HW158727   0.818   6.205   7.117
18965SOL    HW258728   0.697   6.275   7.059
18966SOL     OW58729   3.952   9.945   6.655
18966SOL    HW158730   3.994   9.859   6.655
18966SOL    HW258731   3.891   9.943   6.581
18967SOL     OW58732  10.447   2.528   6.152
18967SOL    HW158733  10.517   2.467   6.174
18967SOL    HW258734  10.489   2.592   6.094
18968SOL     OW58735   2.723   6.397   1.628
18968SOL    HW158736   2.712   6.349   1.710
18968SOL    HW258737   2.634   6.423   1.603
18969SOL     OW58738   8.809   1.202  13.718
18969SOL    HW158739   8.770   1.289  13.715
18969SOL    HW258740   8.888   1.209  13.664
18970SOL     OW58741   5.465  12.198   3.048
18970SOL    HW158742   5.481  12.223   3.139
18970SOL    HW258743   5.470  12.280   3.000
18971SOL     OW58744  10.807   4.276   7.798
18971SOL    HW158745  10.767   4.200   7.840
18971SOL    HW258746  10.798   4.347   7.862
18972SOL     OW58747  10.903  11.394  10.471
18972SOL    HW158748  10.913  11.356  10.383
18972SOL    HW258749  10.983  11.444  10.485
18973SOL     OW58750  14.076  10.330   3.525
18973SOL    HW158751  14.012  10.342   3.595
18973SOL    HW258752  14.105  10.419   3.504
18974SOL     OW58753  13.301  10.118  13.236
18974SOL    HW158754  13.236  10.116  13.306
18974SOL    HW258755  13.266  10.060  13.169
18975SOL     OW58756   4.398   0.220  12.508
18975SOL    HW158757   4.310   0.201  12.542
18975SOL    HW258758   4.384   0.291  12.445
18976SOL     OW58759  11.352   1.813   1.747
18976SOL    HW158760  11.438   1.853   1.763
18976SOL    HW258761  11.334   1.761   1.825
18977SOL     OW58762  13.373   6.275  14.589
18977SOL    HW158763  13.384   6.205  14.525
18977SOL    HW258764  13.411   6.240  14.670
18978SOL     OW58765   2.520   9.445   0.485
18978SOL    HW158766   2.495   9.527   0.442
18978SOL    HW258767   2.614   9.438   0.470
18979SOL     OW58768   9.019   9.011  12.722
18979SOL    HW158769   8.934   8.999  12.763
18979SOL    HW258770   9.014   8.961  12.640
18980SOL     OW58771   9.531  13.920   6.082
18980SOL    HW158772   9.444  13.883   6.066
18980SOL    HW258773   9.592  13.852   6.053
18981SOL     OW58774   5.490  11.786   2.631
18981SOL    HW158775   5.514  11.872   2.663
18981SOL    HW258776   5.420  11.757   2.689
18982SOL     OW58777   1.573   9.552   6.420
18982SOL    HW158778   1.652   9.606   6.409
18982SOL    HW258779   1.520   9.600   6.483
18983SOL     OW58780   5.183   8.219   8.803
18983SOL    HW158781   5.120   8.247   8.737
18983SOL    HW258782   5.152   8.133   8.831
18984SOL     OW58783   1.327   2.797   6.373
18984SOL    HW158784   1.347   2.869   6.434
18984SOL    HW258785   1.356   2.830   6.288
18985SOL     OW58786  13.323   0.711   8.120
18985SOL    HW158787  13.379   0.779   8.081
18985SOL    HW258788  13.313   0.737   8.211
18986SOL     OW58789   0.547   6.030   3.895
18986SOL    HW158790   0.478   5.988   3.947
18986SOL    HW258791   0.624   5.976   3.910
18987SOL     OW58792  12.214   1.485   4.291
18987SOL    HW158793  12.261   1.465   4.210
18987SOL    HW258794  12.155   1.410   4.303
18988SOL     OW58795  10.935   7.885  13.533
18988SOL    HW158796  10.878   7.812  13.556
18988SOL    HW258797  10.925   7.894  13.438
18989SOL     OW58798   7.261   2.836   4.083
18989SOL    HW158799   7.170   2.813   4.103
18989SOL    HW258800   7.269   2.826   3.988
18990SOL     OW58801   1.785  12.192   0.637
18990SOL    HW158802   1.873  12.166   0.662
18990SOL    HW258803   1.779  12.173   0.544
18991SOL     OW58804   2.504  14.032   3.552
18991SOL    HW158805   2.572  14.070   3.608
18991SOL    HW258806   2.522  14.066   3.465
18992SOL     OW58807   2.629   2.046  10.750
18992SOL    HW158808   2.648   2.023  10.841
18992SOL    HW258809   2.540   2.015  10.734
18993SOL     OW58810   3.878  10.435  10.484
18993SOL    HW158811   3.877  10.496  10.410
18993SOL    HW258812   3.901  10.489  10.560
18994SOL     OW58813  12.401   3.065  14.449
18994SOL    HW158814  12.383   3.095  14.360
18994SOL    HW258815  12.486   3.104  14.471
18995SOL     OW58816   8.749  12.095  13.130
18995SOL    HW158817   8.722  12.119  13.220
18995SOL    HW258818   8.666  12.089  13.082
18996SOL     OW58819   9.670   5.290   2.429
18996SOL    HW158820   9.648   5.266   2.339
18996SOL    HW258821   9.750   5.240   2.449
18997SOL     OW58822   4.149  11.859   1.356
18997SOL    HW158823   4.172  11.859   1.448
18997SOL    HW258824   4.060  11.824   1.353
18998SOL     OW58825  12.660   7.769   2.143
18998SOL    HW158826  12.569   7.748   2.167
18998SOL    HW258827  12.687   7.696   2.087
18999SOL     OW58828   3.614  10.009   6.662
18999SOL    HW158829   3.577  10.074   6.603
18999SOL    HW258830   3.619  10.053   6.746
19000SOL     OW58831   7.048   1.473   4.949
19000SOL    HW158832   7.042   1.567   4.965
19000SOL    HW258833   6.993   1.459   4.871
19001SOL     OW58834   8.660   2.811   3.651
19001SOL    HW158835   8.574   2.825   3.689
19001SOL    HW258836   8.719   2.801   3.726
19002SOL     OW58837  14.176  11.552   2.175
19002SOL    HW158838  14.164  11.602   2.256
19002SOL    HW258839  14.258  11.504   2.189
19003SOL     OW58840   9.449   6.406   9.399
19003SOL    HW158841   9.459   6.468   9.471
19003SOL    HW258842   9.464   6.458   9.320
19004SOL     OW58843  10.267   3.051   7.606
19004SOL    HW158844  10.353   3.013   7.622
19004SOL    HW258845  10.208   3.004   7.665
19005SOL     OW58846   1.175  14.128   1.679
19005SOL    HW158847   1.091  14.146   1.720
19005SOL    HW258848   1.227  14.085   1.747
19006SOL     OW58849   5.679   9.817  14.659
19006SOL    HW158850   5.702   9.860  14.577
19006SOL    HW258851   5.757   9.825  14.714
19007SOL     OW58852   7.752   8.428   3.086
19007SOL    HW158853   7.672   8.439   3.139
19007SOL    HW258854   7.807   8.370   3.138
19008SOL     OW58855   7.559   9.133   0.509
19008SOL    HW158856   7.591   9.121   0.598
19008SOL    HW258857   7.572   9.048   0.467
19009SOL     OW58858  11.900  14.089   0.662
19009SOL    HW158859  11.830  14.114   0.723
19009SOL    HW258860  11.936  14.008   0.698
19010SOL     OW58861  10.225   6.945   5.645
19010SOL    HW158862  10.246   6.920   5.555
19010SOL    HW258863  10.311   6.955   5.687
19011SOL     OW58864   9.766   8.219   8.428
19011SOL    HW158865   9.803   8.135   8.401
19011SOL    HW258866   9.802   8.282   8.366
19012SOL     OW58867   4.508  14.347  12.689
19012SOL    HW158868   4.593  14.324  12.725
19012SOL    HW258869   4.528  14.383  12.602
19013SOL     OW58870  14.391  13.622  11.495
19013SOL    HW158871  14.436  13.600  11.413
19013SOL    HW258872  14.382  13.717  11.492
19014SOL     OW58873   8.670   3.796   2.970
19014SOL    HW158874   8.729   3.871   2.981
19014SOL    HW258875   8.602   3.828   2.909
19015SOL     OW58876   0.789   8.795   1.337
19015SOL    HW158877   0.848   8.723   1.357
19015SOL    HW258878   0.847   8.871   1.326
19016SOL     OW58879   1.331   6.389   6.074
19016SOL    HW158880   1.379   6.468   6.049
19016SOL    HW258881   1.308   6.402   6.166
19017SOL     OW58882   0.548   2.986  14.809
19017SOL    HW158883   0.604   2.949  14.741
19017SOL    HW258884   0.467   3.008  14.762
19018SOL     OW58885  12.730  11.747   2.667
19018SOL    HW158886  12.747  11.841   2.672
19018SOL    HW258887  12.697  11.724   2.754
19019SOL     OW58888  11.832   4.825   3.749
19019SOL    HW158889  11.818   4.732   3.769
19019SOL    HW258890  11.796   4.836   3.661
19020SOL     OW58891   0.825  12.312  11.678
19020SOL    HW158892   0.873  12.326  11.597
19020SOL    HW258893   0.742  12.358  11.666
19021SOL     OW58894  10.243   2.569   6.960
19021SOL    HW158895  10.296   2.565   6.880
19021SOL    HW258896  10.280   2.641   7.010
19022SOL     OW58897  13.449   3.623  11.710
19022SOL    HW158898  13.438   3.661  11.797
19022SOL    HW258899  13.492   3.539  11.725
19023SOL     OW58900   4.981  13.812   1.960
19023SOL    HW158901   4.887  13.818   1.977
19023SOL    HW258902   5.022  13.816   2.046
19024SOL     OW58903  13.224   5.400   4.932
19024SOL    HW158904  13.257   5.489   4.927
19024SOL    HW258905  13.221   5.381   5.026
19025SOL     OW58906   8.007   0.249   6.572
19025SOL    HW158907   7.990   0.341   6.552
19025SOL    HW258908   7.933   0.202   6.531
19026SOL     OW58909   6.600  11.404   4.210
19026SOL    HW158910   6.525  11.436   4.260
19026SOL    HW258911   6.609  11.313   4.239
19027SOL     OW58912   3.173  10.090   6.469
19027SOL    HW158913   3.141  10.038   6.544
19027SOL    HW258914   3.175  10.028   6.396
19028SOL     OW58915  14.484   2.227  11.919
19028SOL    HW158916  14.518   2.316  11.935
19028SOL    HW258917  14.389   2.237  11.924
19029SOL     OW58918   5.717  10.539   1.235
19029SOL    HW158919   5.650  10.584   1.285
19029SOL    HW258920   5.757  10.478   1.296
19030SOL     OW58921   9.187   9.689  12.235
19030SOL    HW158922   9.165   9.631  12.162
19030SOL    HW258923   9.161   9.776  12.204
19031SOL     OW58924   5.788   2.369   7.892
19031SOL    HW158925   5.745   2.360   7.807
19031SOL    HW258926   5.825   2.282   7.909
19032SOL     OW58927  13.113   0.332   5.429
19032SOL    HW158928  13.059   0.292   5.496
19032SOL    HW258929  13.050   0.365   5.364
19033SOL     OW58930   2.961   3.616   6.904
19033SOL    HW158931   2.925   3.551   6.844
19033SOL    HW258932   2.892   3.682   6.913
19034SOL     OW58933  11.937  10.512   5.122
19034SOL    HW158934  11.903  10.557   5.199
19034SOL    HW258935  11.876  10.440   5.107
19035SOL     OW58936   5.298   8.896  10.984
19035SOL    HW158937   5.249   8.814  10.978
19035SOL    HW258938   5.237   8.957  11.026
19036SOL     OW58939   1.928   9.671   0.040
19036SOL    HW158940   1.877   9.644   0.117
19036SOL    HW258941   1.902   9.609  14.844
19037SOL     OW58942  14.195  12.598  11.932
19037SOL    HW158943  14.185  12.511  11.894
19037SOL    HW258944  14.282  12.626  11.904
19038SOL     OW58945   2.338  12.710   1.734
19038SOL    HW158946   2.364  12.618   1.724
19038SOL    HW258947   2.358  12.750   1.650
19039SOL     OW58948   5.941  13.027   3.292
19039SOL    HW158949   6.029  13.003   3.263
19039SOL    HW258950   5.931  13.118   3.265
19040SOL     OW58951  11.047  11.918   0.772
19040SOL    HW158952  11.062  12.013   0.770
19040SOL    HW258953  10.967  11.907   0.822
19041SOL     OW58954   0.171   1.079   0.084
19041SOL    HW158955   0.173   1.000   0.137
19041SOL    HW258956   0.168   1.048  14.866
19042SOL     OW58957   9.610   5.372   8.205
19042SOL    HW158958   9.655   5.418   8.277
19042SOL    HW258959   9.576   5.442   8.150
19043SOL     OW58960  11.369   5.731   0.334
19043SOL    HW158961  11.414   5.805   0.376
19043SOL    HW258962  11.295   5.771   0.289
19044SOL     OW58963  14.536   3.687  14.251
19044SOL    HW158964  14.496   3.619  14.305
19044SOL    HW258965  14.500   3.672  14.163
19045SOL     OW58966  14.587   1.566   8.711
19045SOL    HW158967  14.520   1.498   8.705
19045SOL    HW258968  14.650   1.533   8.775
19046SOL     OW58969  14.542  13.942   9.368
19046SOL    HW158970  14.604  14.005   9.331
19046SOL    HW258971  14.579  13.857   9.346
19047SOL     OW58972   8.994   2.892   5.980
19047SOL    HW158973   8.963   2.980   5.999
19047SOL    HW258974   8.957   2.872   5.894
19048SOL     OW58975   9.931   9.173  11.933
19048SOL    HW158976   9.841   9.151  11.958
19048SOL    HW258977   9.968   9.090  11.903
19049SOL     OW58978   7.143   2.855   9.472
19049SOL    HW158979   7.056   2.873   9.438
19049SOL    HW258980   7.177   2.785   9.415
19050SOL     OW58981   3.182   3.525   4.431
19050SOL    HW158982   3.104   3.526   4.376
19050SOL    HW258983   3.150   3.550   4.517
19051SOL     OW58984   3.217   2.876   4.864
19051SOL    HW158985   3.147   2.871   4.799
19051SOL    HW258986   3.286   2.926   4.822
19052SOL     OW58987  12.571  10.009  12.887
19052SOL    HW158988  12.598   9.921  12.861
19052SOL    HW258989  12.616  10.067  12.825
19053SOL     OW58990  11.909   6.490   7.729
19053SOL    HW158991  11.880   6.579   7.706
19053SOL    HW258992  11.938   6.452   7.647
19054SOL     OW58993   5.334  12.322   2.785
19054SOL    HW158994   5.244  12.340   2.760
19054SOL    HW258995   5.357  12.242   2.737
19055SOL     OW58996   4.817   5.811   9.908
19055SOL    HW158997   4.808   5.752   9.983
19055SOL    HW258998   4.901   5.788   9.869
19056SOL     OW58999  13.921   5.185   1.850
19056SOL    HW159000  13.999   5.215   1.897
19056SOL    HW259001  13.929   5.089   1.851
19057SOL     OW59002  12.874  13.014   7.466
19057SOL    HW159003  12.858  13.106   7.487
19057SOL    HW259004  12.969  13.004   7.478
19058SOL     OW59005   5.612   6.439   7.234
19058SOL    HW159006   5.675   6.400   7.295
19058SOL    HW259007   5.595   6.369   7.170
19059SOL     OW59008   2.126   4.831  14.242
19059SOL    HW159009   2.110   4.786  14.325
19059SOL    HW259010   2.218   4.814  14.222
19060SOL     OW59011  12.490  10.322   0.243
19060SOL    HW159012  12.458  10.366   0.322
19060SOL    HW259013  12.477  10.387   0.173
19061SOL     OW59014  11.549  11.971  10.953
19061SOL    HW159015  11.519  12.043  11.009
19061SOL    HW259016  11.609  11.921  11.008
19062SOL     OW59017  13.026   9.734   5.830
19062SOL    HW159018  13.021   9.810   5.887
19062SOL    HW259019  13.094   9.756   5.766
19063SOL     OW59020   8.973  12.370  11.147
19063SOL    HW159021   9.066  12.351  11.160
19063SOL    HW259022   8.972  12.460  11.113
19064SOL     OW59023   7.425   8.030   7.130
19064SOL    HW159024   7.408   8.114   7.087
19064SOL    HW259025   7.460   7.974   7.061
19065SOL     OW59026  14.631   1.518   3.218
19065SOL    HW159027  14.612   1.473   3.136
19065SOL    HW259028  14.612   1.610   3.201
19066SOL     OW59029   2.087   4.335  10.577
19066SOL    HW159030   2.165   4.288  10.607
19066SOL    HW259031   2.016   4.301  10.631
19067SOL     OW59032   2.868  11.272   5.754
19067SOL    HW159033   2.835  11.196   5.802
19067SOL    HW259034   2.810  11.278   5.677
19068SOL     OW59035  10.179   7.405  14.724
19068SOL    HW159036  10.247   7.472  14.719
19068SOL    HW259037  10.162   7.381  14.633
19069SOL     OW59038   4.309  12.961   0.754
19069SOL    HW159039   4.391  13.010   0.753
19069SOL    HW259040   4.246  13.019   0.712
19070SOL     OW59041   1.294   6.622   5.661
19070SOL    HW159042   1.275   6.528   5.660
19070SOL    HW259043   1.211   6.663   5.640
19071SOL     OW59044   8.686   7.450  12.338
19071SOL    HW159045   8.645   7.487  12.260
19071SOL    HW259046   8.617   7.452  12.404
19072SOL     OW59047   0.318  10.442   9.859
19072SOL    HW159048   0.377  10.383   9.905
19072SOL    HW259049   0.243  10.387   9.835
19073SOL     OW59050   7.675   1.893   6.758
19073SOL    HW159051   7.633   1.963   6.809
19073SOL    HW259052   7.767   1.920   6.752
19074SOL     OW59053   7.164  12.801   1.744
19074SOL    HW159054   7.172  12.819   1.838
19074SOL    HW259055   7.224  12.864   1.703
19075SOL     OW59056  10.108   6.736   2.986
19075SOL    HW159057  10.042   6.716   2.920
19075SOL    HW259058  10.154   6.653   3.000
19076SOL     OW59059   8.042   9.589   4.299
19076SOL    HW159060   8.063   9.668   4.249
19076SOL    HW259061   8.095   9.595   4.378
19077SOL     OW59062   7.903   9.124   3.534
19077SOL    HW159063   7.863   9.210   3.545
19077SOL    HW259064   7.837   9.063   3.567
19078SOL     OW59065   4.067  10.365   4.766
19078SOL    HW159066   4.037  10.388   4.854
19078SOL    HW259067   4.016  10.421   4.708
19079SOL     OW59068   8.039   7.226  14.628
19079SOL    HW159069   8.089   7.259  14.554
19079SOL    HW259070   7.955   7.201  14.591
19080SOL     OW59071   7.088   7.915  14.133
19080SOL    HW159072   7.079   7.953  14.046
19080SOL    HW259073   6.998   7.910  14.166
19081SOL     OW59074   1.221   1.753  14.217
19081SOL    HW159075   1.140   1.781  14.173
19081SOL    HW259076   1.238   1.822  14.281
19082SOL     OW59077   3.627  10.080   6.044
19082SOL    HW159078   3.591  10.169   6.037
19082SOL    HW259079   3.631  10.064   6.138
19083SOL     OW59080   1.192   9.383   7.406
19083SOL    HW159081   1.128   9.311   7.404
19083SOL    HW259082   1.252   9.359   7.477
19084SOL     OW59083   3.281  11.649   8.903
19084SOL    HW159084   3.289  11.679   8.813
19084SOL    HW259085   3.370  11.655   8.939
19085SOL     OW59086   8.298   4.370   8.115
19085SOL    HW159087   8.207   4.343   8.102
19085SOL    HW259088   8.334   4.379   8.027
19086SOL     OW59089   4.181   2.979   7.763
19086SOL    HW159090   4.117   2.917   7.728
19086SOL    HW259091   4.182   3.051   7.701
19087SOL     OW59092   4.903   0.060   3.032
19087SOL    HW159093   4.931   0.052   2.941
19087SOL    HW259094   4.962   0.002   3.080
19088SOL     OW59095   2.097   9.622   2.175
19088SOL    HW159096   2.186   9.608   2.207
19088SOL    HW259097   2.065   9.534   2.154
19089SOL     OW59098   5.198   7.526   5.128
19089SOL    HW159099   5.244   7.497   5.049
19089SOL    HW259100   5.138   7.454   5.148
19090SOL     OW59101   4.116  10.232   2.682
19090SOL    HW159102   4.106  10.140   2.659
19090SOL    HW259103   4.106  10.279   2.600
19091SOL     OW59104   7.183   8.024   9.634
19091SOL    HW159105   7.097   8.049   9.600
19091SOL    HW259106   7.171   7.934   9.666
19092SOL     OW59107   1.639  14.611   0.312
19092SOL    HW159108   1.603  14.525   0.289
19092SOL    HW259109   1.666  14.602   0.403
19093SOL     OW59110  12.812   3.733   4.465
19093SOL    HW159111  12.870   3.672   4.420
19093SOL    HW259112  12.725   3.711   4.434
19094SOL     OW59113  13.522  12.961  14.639
19094SOL    HW159114  13.600  12.953  14.694
19094SOL    HW259115  13.467  12.887  14.665
19095SOL     OW59116   0.325  11.993   0.452
19095SOL    HW159117   0.412  12.021   0.428
19095SOL    HW259118   0.297  11.935   0.381
19096SOL     OW59119   2.920   1.368   7.607
19096SOL    HW159120   2.907   1.462   7.617
19096SOL    HW259121   2.970   1.343   7.685
19097SOL     OW59122   2.029   2.149   8.220
19097SOL    HW159123   1.992   2.173   8.135
19097SOL    HW259124   2.093   2.217   8.239
19098SOL     OW59125   5.937   7.196  14.455
19098SOL    HW159126   5.989   7.133  14.406
19098SOL    HW259127   5.847   7.181  14.425
19099SOL     OW59128   3.867   8.824  10.143
19099SOL    HW159129   3.795   8.825  10.206
19099SOL    HW259130   3.944   8.847  10.195
19100SOL     OW59131   1.827   0.515  11.933
19100SOL    HW159132   1.826   0.521  11.837
19100SOL    HW259133   1.785   0.431  11.951
19101SOL     OW59134   5.867   8.013   1.445
19101SOL    HW159135   5.908   8.099   1.459
19101SOL    HW259136   5.801   8.030   1.378
19102SOL     OW59137   8.961   4.054   3.946
19102SOL    HW159138   8.923   4.008   3.871
19102SOL    HW259139   8.938   4.146   3.932
19103SOL     OW59140   7.228  11.971   7.478
19103SOL    HW159141   7.290  12.043   7.491
19103SOL    HW259142   7.281  11.892   7.486
19104SOL     OW59143   1.204   7.557   4.823
19104SOL    HW159144   1.179   7.554   4.731
19104SOL    HW259145   1.166   7.478   4.861
19105SOL     OW59146   9.765  11.443   2.219
19105SOL    HW159147   9.858  11.440   2.196
19105SOL    HW259148   9.719  11.440   2.136
19106SOL     OW59149   5.139   1.694  13.387
19106SOL    HW159150   5.097   1.751  13.452
19106SOL    HW259151   5.216   1.658  13.432
19107SOL     OW59152  11.916   9.005   5.433
19107SOL    HW159153  11.856   8.974   5.365
19107SOL    HW259154  11.942   9.093   5.404
19108SOL     OW59155   6.296   8.673   1.570
19108SOL    HW159156   6.307   8.727   1.648
19108SOL    HW259157   6.215   8.625   1.586
19109SOL     OW59158   5.412  11.728  12.439
19109SOL    HW159159   5.370  11.756  12.357
19109SOL    HW259160   5.345  11.676  12.484
19110SOL     OW59161  11.042  14.483   3.532
19110SOL    HW159162  11.110  14.463   3.597
19110SOL    HW259163  10.969  14.426   3.556
19111SOL     OW59164  11.383   9.215  13.418
19111SOL    HW159165  11.378   9.305  13.448
19111SOL    HW259166  11.463   9.212  13.366
19112SOL     OW59167   1.580   4.791   8.295
19112SOL    HW159168   1.648   4.853   8.322
19112SOL    HW259169   1.616   4.750   8.216
19113SOL     OW59170  12.865   2.024   5.448
19113SOL    HW159171  12.960   2.033   5.455
19113SOL    HW259172  12.852   1.935   5.415
19114SOL     OW59173   2.103   1.333   3.883
19114SOL    HW159174   2.027   1.350   3.938
19114SOL    HW259175   2.094   1.241   3.857
19115SOL     OW59176  14.510   1.056   5.029
19115SOL    HW159177  14.477   1.096   5.109
19115SOL    HW259178  14.465   0.972   5.024
19116SOL     OW59179  12.337   0.556   4.116
19116SOL    HW159180  12.363   0.464   4.123
19116SOL    HW259181  12.260   0.564   4.172
19117SOL     OW59182   6.989   3.618   0.128
19117SOL    HW159183   7.077   3.624   0.090
19117SOL    HW259184   7.001   3.634   0.221
19118SOL     OW59185   2.756   6.332   7.587
19118SOL    HW159186   2.708   6.251   7.571
19118SOL    HW259187   2.756   6.342   7.682
19119SOL     OW59188  12.319   0.669   4.427
19119SOL    HW159189  12.355   0.716   4.503
19119SOL    HW259190  12.307   0.737   4.361
19120SOL     OW59191   4.031   9.563   1.857
19120SOL    HW159192   4.112   9.521   1.829
19120SOL    HW259193   3.981   9.577   1.776
19121SOL     OW59194   6.022   9.633  13.056
19121SOL    HW159195   6.017   9.728  13.043
19121SOL    HW259196   6.081   9.623  13.130
19122SOL     OW59197   7.015   1.976  11.016
19122SOL    HW159198   7.025   1.902  11.075
19122SOL    HW259199   7.100   2.022  11.020
19123SOL     OW59200   3.244   1.988   7.833
19123SOL    HW159201   3.206   2.057   7.779
19123SOL    HW259202   3.329   2.022   7.860
19124SOL     OW59203   1.767  10.903  13.329
19124SOL    HW159204   1.709  10.971  13.296
19124SOL    HW259205   1.713  10.851  13.388
19125SOL     OW59206   9.973   0.065   8.812
19125SOL    HW159207   9.885   0.092   8.837
19125SOL    HW259208   9.963  14.845   8.786
19126SOL     OW59209   1.756  11.307   0.113
19126SOL    HW159210   1.719  11.390   0.144
19126SOL    HW259211   1.744  11.247   0.187
19127SOL     OW59212   7.180   6.090   8.752
19127SOL    HW159213   7.164   6.033   8.827
19127SOL    HW259214   7.105   6.073   8.694
19128SOL     OW59215  10.076   5.055   8.554
19128SOL    HW159216  10.016   5.006   8.611
19128SOL    HW259217  10.029   5.063   8.471
19129SOL     OW59218   4.250   9.313   0.638
19129SOL    HW159219   4.292   9.265   0.567
19129SOL    HW259220   4.259   9.255   0.714
19130SOL     OW59221   5.762  12.771   4.276
19130SOL    HW159222   5.803  12.685   4.262
19130SOL    HW259223   5.800  12.802   4.359
19131SOL     OW59224   1.257   2.246   1.891
19131SOL    HW159225   1.316   2.209   1.826
19131SOL    HW259226   1.300   2.327   1.919
19132SOL     OW59227   2.731  14.845   7.488
19132SOL    HW159228   2.792   0.021   7.544
19132SOL    HW259229   2.748   0.006   7.400
19133SOL     OW59230  14.071  11.449  10.019
19133SOL    HW159231  14.050  11.384   9.953
19133SOL    HW259232  14.035  11.414  10.101
19134SOL     OW59233  13.519   1.958   8.303
19134SOL    HW159234  13.488   1.957   8.212
19134SOL    HW259235  13.462   1.897   8.349
19135SOL     OW59236  14.466  13.198  11.129
19135SOL    HW159237  14.539  13.213  11.189
19135SOL    HW259238  14.505  13.204  11.042
19136SOL     OW59239   2.351   1.915   1.919
19136SOL    HW159240   2.430   1.899   1.868
19136SOL    HW259241   2.369   1.996   1.966
19137SOL     OW59242  13.218   2.769   6.721
19137SOL    HW159243  13.245   2.860   6.731
19137SOL    HW259244  13.298   2.719   6.737
19138SOL     OW59245   6.053   0.915   4.603
19138SOL    HW159246   5.988   0.919   4.532
19138SOL    HW259247   6.006   0.942   4.681
19139SOL     OW59248  11.266   4.851   5.358
19139SOL    HW159249  11.255   4.933   5.310
19139SOL    HW259250  11.283   4.878   5.448
19140SOL     OW59251  12.845   4.842   3.861
19140SOL    HW159252  12.812   4.869   3.775
19140SOL    HW259253  12.773   4.792   3.900
19141SOL     OW59254   5.655   7.989   0.518
19141SOL    HW159255   5.649   8.077   0.483
19141SOL    HW259256   5.642   7.932   0.442
19142SOL     OW59257   4.876   5.565   0.988
19142SOL    HW159258   4.838   5.620   0.919
19142SOL    HW259259   4.822   5.582   1.065
19143SOL     OW59260   4.389   4.925  10.900
19143SOL    HW159261   4.436   4.892  10.977
19143SOL    HW259262   4.397   4.856  10.834
19144SOL     OW59263  14.329  12.169   4.647
19144SOL    HW159264  14.310  12.123   4.565
19144SOL    HW259265  14.282  12.252   4.640
19145SOL     OW59266   9.131   4.558  14.416
19145SOL    HW159267   9.194   4.500  14.459
19145SOL    HW259268   9.049   4.543  14.462
19146SOL     OW59269   7.875   5.787   7.640
19146SOL    HW159270   7.832   5.770   7.556
19146SOL    HW259271   7.920   5.870   7.628
19147SOL     OW59272   0.965   5.522   0.637
19147SOL    HW159273   0.873   5.504   0.657
19147SOL    HW259274   1.011   5.507   0.720
19148SOL     OW59275   6.661   8.404  14.099
19148SOL    HW159276   6.722   8.383  14.170
19148SOL    HW259277   6.716   8.433  14.028
19149SOL     OW59278  13.397  12.012   3.734
19149SOL    HW159279  13.408  12.070   3.659
19149SOL    HW259280  13.486  11.984   3.756
19150SOL     OW59281   5.860   0.237  12.840
19150SOL    HW159282   5.873   0.204  12.929
19150SOL    HW259283   5.831   0.161  12.790
19151SOL     OW59284   7.498   0.358  13.662
19151SOL    HW159285   7.520   0.450  13.647
19151SOL    HW259286   7.575   0.322  13.705
19152SOL     OW59287   0.006   2.731   2.763
19152SOL    HW159288  14.798   2.761   2.806
19152SOL    HW259289   0.066   2.712   2.835
19153SOL     OW59290   0.508   9.571   3.598
19153SOL    HW159291   0.414   9.575   3.614
19153SOL    HW259292   0.546   9.539   3.680
19154SOL     OW59293   0.696   8.599  14.038
19154SOL    HW159294   0.770   8.543  14.013
19154SOL    HW259295   0.620   8.543  14.029
19155SOL     OW59296  11.681   7.909  11.354
19155SOL    HW159297  11.687   7.883  11.263
19155SOL    HW259298  11.626   7.842  11.395
19156SOL     OW59299   4.972  14.419   0.744
19156SOL    HW159300   5.014  14.505   0.750
19156SOL    HW259301   4.955  14.407   0.651
19157SOL     OW59302   2.671   5.282   3.111
19157SOL    HW159303   2.733   5.209   3.114
19157SOL    HW259304   2.721   5.357   3.141
19158SOL     OW59305   9.060   9.376   3.414
19158SOL    HW159306   9.125   9.308   3.393
19158SOL    HW259307   8.981   9.327   3.437
19159SOL     OW59308  12.679   8.835   0.586
19159SOL    HW159309  12.733   8.762   0.615
19159SOL    HW259310  12.715   8.911   0.630
19160SOL     OW59311   6.682   4.189  11.380
19160SOL    HW159312   6.725   4.167  11.463
19160SOL    HW259313   6.728   4.138  11.314
19161SOL     OW59314   1.667   1.800   1.122
19161SOL    HW159315   1.641   1.709   1.106
19161SOL    HW259316   1.717   1.825   1.044
19162SOL     OW59317   8.987  13.336   6.851
19162SOL    HW159318   9.063  13.388   6.878
19162SOL    HW259319   8.923  13.351   6.920
19163SOL     OW59320  13.444  11.956  12.298
19163SOL    HW159321  13.527  11.941  12.344
19163SOL    HW259322  13.466  12.018  12.229
19164SOL     OW59323  13.375   9.899   9.041
19164SOL    HW159324  13.320   9.854   9.106
19164SOL    HW259325  13.421   9.966   9.091
19165SOL     OW59326  10.001   0.047   5.878
19165SOL    HW159327   9.998  14.833   5.920
19165SOL    HW259328  10.078   0.089   5.915
19166SOL     OW59329   3.497   9.711   8.657
19166SOL    HW159330   3.421   9.677   8.611
19166SOL    HW259331   3.517   9.644   8.723
19167SOL     OW59332   7.730   3.189   8.939
19167SOL    HW159333   7.661   3.131   8.970
19167SOL    HW259334   7.713   3.199   8.845
19168SOL     OW59335  13.542  11.657   8.916
19168SOL    HW159336  13.606  11.590   8.895
19168SOL    HW259337  13.527  11.648   9.010
19169SOL     OW59338   7.097  14.309   4.367
19169SOL    HW159339   7.067  14.222   4.340
19169SOL    HW259340   7.171  14.327   4.309
19170SOL     OW59341   4.627   8.797   8.120
19170SOL    HW159342   4.609   8.751   8.038
19170SOL    HW259343   4.552   8.856   8.131
19171SOL     OW59344  10.300   4.829  11.137
19171SOL    HW159345  10.378   4.841  11.192
19171SOL    HW259346  10.301   4.735  11.116
19172SOL     OW59347   3.564   3.922   2.355
19172SOL    HW159348   3.491   3.928   2.293
19172SOL    HW259349   3.521   3.918   2.441
19173SOL     OW59350   4.292  11.718   4.249
19173SOL    HW159351   4.335  11.804   4.241
19173SOL    HW259352   4.303  11.678   4.163
19174SOL     OW59353  13.609   5.551  12.475
19174SOL    HW159354  13.546   5.482  12.453
19174SOL    HW259355  13.615   5.549  12.570
19175SOL     OW59356   5.369   1.003  14.749
19175SOL    HW159357   5.297   0.999  14.685
19175SOL    HW259358   5.368   1.094  14.780
19176SOL     OW59359  12.949   5.452   6.388
19176SOL    HW159360  12.938   5.520   6.455
19176SOL    HW259361  13.025   5.402   6.417
19177SOL     OW59362   7.390   5.646  13.233
19177SOL    HW159363   7.326   5.576  13.250
19177SOL    HW259364   7.340   5.712  13.185
19178SOL     OW59365  10.410  10.719  11.492
19178SOL    HW159366  10.458  10.638  11.510
19178SOL    HW259367  10.327  10.709  11.538
19179SOL     OW59368   7.611   6.577  10.272
19179SOL    HW159369   7.578   6.662  10.243
19179SOL    HW259370   7.632   6.591  10.364
19180SOL     OW59371  12.198   6.262   4.393
19180SOL    HW159372  12.287   6.264   4.358
19180SOL    HW259373  12.159   6.345   4.364
19181SOL     OW59374   2.550   8.219   7.102
19181SOL    HW159375   2.460   8.193   7.117
19181SOL    HW259376   2.580   8.165   7.029
19182SOL     OW59377   1.825  11.521  12.585
19182SOL    HW159378   1.902  11.498  12.534
19182SOL    HW259379   1.777  11.439  12.594
19183SOL     OW59380   1.046  12.104   8.070
19183SOL    HW159381   1.051  12.176   8.132
19183SOL    HW259382   1.130  12.058   8.080
19184SOL     OW59383  13.106   8.951   3.199
19184SOL    HW159384  13.055   9.032   3.202
19184SOL    HW259385  13.083   8.912   3.115
19185SOL     OW59386   6.179  13.183   3.080
19185SOL    HW159387   6.202  13.275   3.099
19185SOL    HW259388   6.096  13.188   3.034
19186SOL     OW59389  14.080   6.633   8.442
19186SOL    HW159390  13.993   6.600   8.466
19186SOL    HW259391  14.132   6.624   8.521
19187SOL     OW59392  14.199  13.544   6.324
19187SOL    HW159393  14.256  13.528   6.248
19187SOL    HW259394  14.114  13.564   6.285
19188SOL     OW59395  11.685   4.321   7.732
19188SOL    HW159396  11.730   4.402   7.709
19188SOL    HW259397  11.594   4.336   7.706
19189SOL     OW59398  10.140   0.917   1.331
19189SOL    HW159399  10.189   0.974   1.389
19189SOL    HW259400  10.151   0.829   1.368
19190SOL     OW59401   6.690  12.977   8.135
19190SOL    HW159402   6.721  12.908   8.195
19190SOL    HW259403   6.713  12.945   8.048
19191SOL     OW59404   6.680  10.356  12.363
19191SOL    HW159405   6.677  10.287  12.429
19191SOL    HW259406   6.598  10.404  12.374
19192SOL     OW59407   8.898   5.106  11.895
19192SOL    HW159408   8.979   5.084  11.849
19192SOL    HW259409   8.903   5.057  11.977
19193SOL     OW59410   5.359  10.213   4.012
19193SOL    HW159411   5.433  10.155   4.033
19193SOL    HW259412   5.286  10.153   3.996
19194SOL     OW59413   2.038   7.475   5.577
19194SOL    HW159414   1.943   7.475   5.591
19194SOL    HW259415   2.064   7.383   5.585
19195SOL     OW59416   6.739   8.491   3.384
19195SOL    HW159417   6.764   8.479   3.475
19195SOL    HW259418   6.816   8.530   3.342
19196SOL     OW59419   0.318   1.375  10.291
19196SOL    HW159420   0.290   1.465  10.310
19196SOL    HW259421   0.287   1.360  10.201
19197SOL     OW59422  11.527   3.355   7.962
19197SOL    HW159423  11.453   3.359   7.902
19197SOL    HW259424  11.489   3.369   8.048
19198SOL     OW59425   0.145  10.225   1.394
19198SOL    HW159426   0.067  10.200   1.344
19198SOL    HW259427   0.111  10.251   1.480
19199SOL     OW59428  14.442  13.577   7.023
19199SOL    HW159429  14.524  13.573   7.071
19199SOL    HW259430  14.374  13.562   7.089
19200SOL     OW59431   4.085   9.822   0.422
19200SOL    HW159432   4.155   9.809   0.486
19200SOL    HW259433   4.017   9.869   0.470
19201SOL     OW59434   6.751   7.675   1.911
19201SOL    HW159435   6.732   7.768   1.912
19201SOL    HW259436   6.781   7.655   2.000
19202SOL     OW59437  13.677   0.808   4.174
19202SOL    HW159438  13.766   0.837   4.156
19202SOL    HW259439  13.643   0.873   4.236
19203SOL     OW59440  12.844   2.856   9.455
19203SOL    HW159441  12.876   2.788   9.397
19203SOL    HW259442  12.790   2.912   9.398
19204SOL     OW59443  12.705  11.262   8.593
19204SOL    HW159444  12.647  11.269   8.517
19204SOL    HW259445  12.732  11.170   8.593
19205SOL     OW59446   1.571   0.796  12.224
19205SOL    HW159447   1.666   0.806  12.222
19205SOL    HW259448   1.556   0.719  12.278
19206SOL     OW59449   4.036  13.376   3.739
19206SOL    HW159450   4.066  13.371   3.648
19206SOL    HW259451   4.117  13.381   3.790
19207SOL     OW59452   4.828   9.180   6.321
19207SOL    HW159453   4.793   9.267   6.338
19207SOL    HW259454   4.775   9.146   6.249
19208SOL     OW59455   3.980   8.986  13.691
19208SOL    HW159456   3.888   8.980  13.719
19208SOL    HW259457   4.019   8.903  13.717
19209SOL     OW59458   1.243   1.536   6.093
19209SOL    HW159459   1.277   1.481   6.164
19209SOL    HW259460   1.156   1.501   6.075
19210SOL     OW59461   5.793  13.912   6.400
19210SOL    HW159462   5.875  13.906   6.349
19210SOL    HW259463   5.759  13.823   6.400
19211SOL     OW59464   7.177   0.650  14.302
19211SOL    HW159465   7.184   0.578  14.240
19211SOL    HW259466   7.142   0.609  14.382
19212SOL     OW59467   3.582   7.122   4.990
19212SOL    HW159468   3.533   7.133   4.909
19212SOL    HW259469   3.546   7.042   5.029
19213SOL     OW59470   3.016   6.298   7.746
19213SOL    HW159471   2.946   6.331   7.802
19213SOL    HW259472   3.018   6.204   7.764
19214SOL     OW59473   4.018   8.994  10.905
19214SOL    HW159474   4.036   9.083  10.934
19214SOL    HW259475   4.025   8.941  10.984
19215SOL     OW59476   3.644   5.620  12.452
19215SOL    HW159477   3.696   5.701  12.446
19215SOL    HW259478   3.595   5.629  12.534
19216SOL     OW59479  10.873   7.110   2.511
19216SOL    HW159480  10.814   7.106   2.586
19216SOL    HW259481  10.840   7.183   2.459
19217SOL     OW59482   8.303  11.342   2.873
19217SOL    HW159483   8.294  11.275   2.942
19217SOL    HW259484   8.219  11.340   2.827
19218SOL     OW59485   8.961   1.759   8.754
19218SOL    HW159486   8.881   1.810   8.757
19218SOL    HW259487   8.945   1.685   8.813
19219SOL     OW59488   1.528   9.953   8.531
19219SOL    HW159489   1.534   9.858   8.523
19219SOL    HW259490   1.507   9.969   8.623
19220SOL     OW59491  10.039   6.635   4.009
19220SOL    HW159492   9.979   6.709   4.015
19220SOL    HW259493  10.104   6.661   3.944
19221SOL     OW59494   9.481  14.778   7.012
19221SOL    HW159495   9.486  14.851   7.073
19221SOL    HW259496   9.572  14.762   6.987
19222SOL     OW59497   2.687  11.813   0.111
19222SOL    HW159498   2.644  11.838   0.193
19222SOL    HW259499   2.673  11.888   0.053
19223SOL     OW59500  14.281   1.804   4.792
19223SOL    HW159501  14.363   1.797   4.742
19223SOL    HW259502  14.307   1.786   4.883
19224SOL     OW59503  14.200   9.181   8.937
19224SOL    HW159504  14.250   9.099   8.943
19224SOL    HW259505  14.267   9.249   8.931
19225SOL     OW59506   1.156  12.430  14.047
19225SOL    HW159507   1.218  12.443  14.118
19225SOL    HW259508   1.102  12.356  14.075
19226SOL     OW59509  10.889   0.921   3.214
19226SOL    HW159510  10.932   1.006   3.212
19226SOL    HW259511  10.961   0.857   3.215
19227SOL     OW59512   1.278   8.317   6.403
19227SOL    HW159513   1.193   8.359   6.420
19227SOL    HW259514   1.255   8.231   6.368
19228SOL     OW59515   5.453   0.941  14.455
19228SOL    HW159516   5.465   0.889  14.535
19228SOL    HW259517   5.416   1.024  14.486
19229SOL     OW59518   2.549   0.351   3.191
19229SOL    HW159519   2.455   0.341   3.174
19229SOL    HW259520   2.585   0.263   3.176
19230SOL     OW59521   7.289   6.522   3.708
19230SOL    HW159522   7.227   6.547   3.777
19230SOL    HW259523   7.374   6.517   3.752
19231SOL     OW59524   2.716  10.138   9.895
19231SOL    HW159525   2.725  10.203   9.965
19231SOL    HW259526   2.763  10.061   9.927
19232SOL     OW59527   0.493  10.107   1.650
19232SOL    HW159528   0.567  10.097   1.590
19232SOL    HW259529   0.416  10.080   1.599
19233SOL     OW59530  12.914  14.447  11.772
19233SOL    HW159531  12.990  14.391  11.757
19233SOL    HW259532  12.951  14.526  11.814
19234SOL     OW59533   6.665   0.574  14.167
19234SOL    HW159534   6.677   0.624  14.087
19234SOL    HW259535   6.610   0.629  14.223
19235SOL     OW59536   1.976   7.277   6.941
19235SOL    HW159537   2.067   7.306   6.938
19235SOL    HW259538   1.928   7.347   6.897
19236SOL     OW59539   6.847   5.272  10.760
19236SOL    HW159540   6.880   5.184  10.776
19236SOL    HW259541   6.814   5.269  10.670
19237SOL     OW59542  11.926   5.818   7.570
19237SOL    HW159543  11.995   5.865   7.524
19237SOL    HW259544  11.865   5.887   7.598
19238SOL     OW59545  10.140  13.449   8.939
19238SOL    HW159546  10.114  13.363   8.908
19238SOL    HW259547  10.118  13.508   8.867
19239SOL     OW59548  10.143   7.273   2.852
19239SOL    HW159549  10.228   7.250   2.814
19239SOL    HW259550  10.085   7.286   2.777
19240SOL     OW59551   9.248   3.687   1.073
19240SOL    HW159552   9.316   3.621   1.077
19240SOL    HW259553   9.287   3.765   1.114
19241SOL     OW59554   1.832   9.812   4.872
19241SOL    HW159555   1.773   9.746   4.837
19241SOL    HW259556   1.918   9.788   4.839
19242SOL     OW59557   6.542   3.082   5.211
19242SOL    HW159558   6.514   2.991   5.206
19242SOL    HW259559   6.624   3.079   5.261
19243SOL     OW59560  12.406   9.825  13.681
19243SOL    HW159561  12.442   9.808  13.768
19243SOL    HW259562  12.359   9.908  13.691
19244SOL     OW59563  14.725   8.047   4.616
19244SOL    HW159564  14.740   7.999   4.535
19244SOL    HW259565  14.773   7.998   4.682
19245SOL     OW59566  12.498   2.031   1.444
19245SOL    HW159567  12.444   2.097   1.399
19245SOL    HW259568  12.529   2.076   1.523
19246SOL     OW59569   8.656  13.196   5.809
19246SOL    HW159570   8.671  13.286   5.783
19246SOL    HW259571   8.561  13.191   5.824
19247SOL     OW59572   0.613   3.320   1.331
19247SOL    HW159573   0.559   3.399   1.323
19247SOL    HW259574   0.703   3.351   1.324
19248SOL     OW59575   3.203  14.108  11.482
19248SOL    HW159576   3.175  14.165  11.553
19248SOL    HW259577   3.274  14.055  11.519
19249SOL     OW59578  14.518   4.335   5.112
19249SOL    HW159579  14.571   4.409   5.083
19249SOL    HW259580  14.429   4.370   5.115
19250SOL     OW59581   9.076  11.382   1.428
19250SOL    HW159582   9.128  11.326   1.371
19250SOL    HW259583   9.073  11.466   1.383
19251SOL     OW59584  13.539  10.105   4.977
19251SOL    HW159585  13.530  10.107   4.881
19251SOL    HW259586  13.458  10.065   5.008
19252SOL     OW59587  13.474  13.706   3.720
19252SOL    HW159588  13.487  13.637   3.654
19252SOL    HW259589  13.492  13.788   3.673
19253SOL     OW59590   9.816   4.745   8.950
19253SOL    HW159591   9.859   4.674   8.902
19253SOL    HW259592   9.736   4.706   8.984
19254SOL     OW59593   4.878   0.504   9.649
19254SOL    HW159594   4.942   0.560   9.603
19254SOL    HW259595   4.821   0.472   9.580
19255SOL     OW59596  14.393  13.522   8.476
19255SOL    HW159597  14.360  13.479   8.554
19255SOL    HW259598  14.328  13.503   8.408
19256SOL     OW59599   4.592  10.185  10.456
19256SOL    HW159600   4.633  10.262  10.417
19256SOL    HW259601   4.498  10.202  10.452
19257SOL     OW59602   5.515   9.515  14.790
19257SOL    HW159603   5.535   9.521  14.697
19257SOL    HW259604   5.591   9.553  14.834
19258SOL     OW59605   4.434  10.154   9.583
19258SOL    HW159606   4.423  10.197   9.668
19258SOL    HW259607   4.417  10.061   9.601
19259SOL     OW59608   8.682   8.750  12.521
19259SOL    HW159609   8.727   8.720  12.442
19259SOL    HW259610   8.612   8.807  12.488
19260SOL     OW59611  12.598  10.713   0.164
19260SOL    HW159612  12.610  10.712   0.259
19260SOL    HW259613  12.629  10.800   0.137
19261SOL     OW59614   4.622   4.766  12.542
19261SOL    HW159615   4.690   4.820  12.581
19261SOL    HW259616   4.639   4.771  12.448
19262SOL     OW59617  13.581   6.108  10.482
19262SOL    HW159618  13.606   6.198  10.465
19262SOL    HW259619  13.644   6.078  10.548
19263SOL     OW59620   7.925   7.755   0.435
19263SOL    HW159621   7.967   7.792   0.513
19263SOL    HW259622   7.843   7.718   0.467
19264SOL     OW59623  14.779   2.226   6.205
19264SOL    HW159624  14.811   2.286   6.138
19264SOL    HW259625  14.770   2.142   6.160
19265SOL     OW59626   1.911   4.889  11.346
19265SOL    HW159627   1.902   4.815  11.405
19265SOL    HW259628   1.966   4.856  11.274
19266SOL     OW59629  10.721   2.684   5.062
19266SOL    HW159630  10.763   2.767   5.038
19266SOL    HW259631  10.759   2.662   5.147
19267SOL     OW59632   2.016   7.126   0.791
19267SOL    HW159633   2.000   7.086   0.876
19267SOL    HW259634   1.988   7.061   0.727
19268SOL     OW59635   8.886  13.263  14.231
19268SOL    HW159636   8.953  13.284  14.165
19268SOL    HW259637   8.934  13.216  14.299
19269SOL     OW59638   5.384  12.938   2.014
19269SOL    HW159639   5.327  13.005   1.976
19269SOL    HW259640   5.435  12.984   2.080
19270SOL     OW59641   2.379   9.856   2.563
19270SOL    HW159642   2.343   9.769   2.547
19270SOL    HW259643   2.305   9.907   2.597
19271SOL     OW59644  12.711   0.505   7.852
19271SOL    HW159645  12.686   0.596   7.836
19271SOL    HW259646  12.798   0.497   7.811
19272SOL     OW59647   2.875   4.198   0.215
19272SOL    HW159648   2.827   4.277   0.192
19272SOL    HW259649   2.866   4.141   0.138
19273SOL     OW59650  12.132   8.416   4.529
19273SOL    HW159651  12.036   8.413   4.534
19273SOL    HW259652  12.160   8.446   4.615
19274SOL     OW59653   0.827   9.714   8.087
19274SOL    HW159654   0.810   9.759   8.170
19274SOL    HW259655   0.860   9.628   8.114
19275SOL     OW59656   0.197   8.718  14.172
19275SOL    HW159657   0.232   8.741  14.086
19275SOL    HW259658   0.256   8.760  14.234
19276SOL     OW59659  12.735   4.013   8.334
19276SOL    HW159660  12.737   4.104   8.304
19276SOL    HW259661  12.772   4.017   8.423
19277SOL     OW59662   0.551  12.842   7.918
19277SOL    HW159663   0.620  12.855   7.854
19277SOL    HW259664   0.588  12.874   8.000
19278SOL     OW59665   0.820   4.284   7.020
19278SOL    HW159666   0.755   4.340   6.978
19278SOL    HW259667   0.901   4.335   7.019
19279SOL     OW59668  12.411   0.077   5.791
19279SOL    HW159669  12.321   0.091   5.822
19279SOL    HW259670  12.466   0.106   5.864
19280SOL     OW59671   0.250   9.622  14.756
19280SOL    HW159672   0.312   9.629  14.829
19280SOL    HW259673   0.177   9.679  14.781
19281SOL     OW59674   1.598   4.171   0.877
19281SOL    HW159675   1.611   4.196   0.968
19281SOL    HW259676   1.503   4.169   0.866
19282SOL     OW59677   3.815   2.550   6.184
19282SOL    HW159678   3.784   2.485   6.121
19282SOL    HW259679   3.910   2.555   6.170
19283SOL     OW59680   7.176  11.683  13.533
19283SOL    HW159681   7.240  11.612  13.527
19283SOL    HW259682   7.091  11.639  13.536
19284SOL     OW59683  10.943   8.828   6.089
19284SOL    HW159684  10.954   8.755   6.028
19284SOL    HW259685  11.020   8.824   6.146
19285SOL     OW59686  11.701   6.676   3.267
19285SOL    HW159687  11.644   6.693   3.192
19285SOL    HW259688  11.672   6.590   3.299
19286SOL     OW59689   9.032   3.701   8.653
19286SOL    HW159690   9.122   3.669   8.661
19286SOL    HW259691   9.030   3.743   8.567
19287SOL     OW59692   0.762   5.214   5.932
19287SOL    HW159693   0.775   5.145   5.997
19287SOL    HW259694   0.780   5.295   5.978
19288SOL     OW59695   2.258   4.683   2.200
19288SOL    HW159696   2.163   4.692   2.194
19288SOL    HW259697   2.275   4.665   2.292
19289SOL     OW59698   1.934   7.048  14.500
19289SOL    HW159699   1.884   6.969  14.520
19289SOL    HW259700   1.935   7.053  14.404
19290SOL     OW59701   8.751   8.172   0.935
19290SOL    HW159702   8.689   8.237   0.968
19290SOL    HW259703   8.835   8.219   0.932
19291SOL     OW59704  14.563   8.447   7.615
19291SOL    HW159705  14.576   8.385   7.543
19291SOL    HW259706  14.547   8.392   7.692
19292SOL     OW59707   1.666   5.522   0.011
19292SOL    HW159708   1.648   5.510  14.790
19292SOL    HW259709   1.654   5.435   0.049
19293SOL     OW59710   7.871   2.504   9.534
19293SOL    HW159711   7.956   2.483   9.572
19293SOL    HW259712   7.809   2.449   9.582
19294SOL     OW59713  11.185   3.609   6.236
19294SOL    HW159714  11.266   3.559   6.249
19294SOL    HW259715  11.208   3.698   6.261
19295SOL     OW59716   7.364   2.248   7.790
19295SOL    HW159717   7.358   2.226   7.883
19295SOL    HW259718   7.392   2.166   7.748
19296SOL     OW59719  11.059  10.544   1.361
19296SOL    HW159720  11.153  10.541   1.382
19296SOL    HW259721  11.045  10.631   1.324
19297SOL     OW59722   1.307   1.716   2.520
19297SOL    HW159723   1.295   1.734   2.613
19297SOL    HW259724   1.325   1.622   2.515
19298SOL     OW59725   2.739   2.334  11.651
19298SOL    HW159726   2.652   2.337  11.691
19298SOL    HW259727   2.761   2.241  11.647
19299SOL     OW59728   4.638   2.449   3.215
19299SOL    HW159729   4.647   2.358   3.244
19299SOL    HW259730   4.545   2.459   3.197
19300SOL     OW59731  14.402  14.870   2.130
19300SOL    HW159732  14.377  14.821   2.209
19300SOL    HW259733  14.494   0.018   2.144
19301SOL     OW59734   2.868   9.385   2.790
19301SOL    HW159735   2.874   9.296   2.756
19301SOL    HW259736   2.786   9.386   2.840
19302SOL     OW59737  10.142   6.544  12.689
19302SOL    HW159738  10.145   6.566  12.596
19302SOL    HW259739  10.199   6.467  12.697
19303SOL     OW59740  14.256   9.585   7.305
19303SOL    HW159741  14.260   9.490   7.318
19303SOL    HW259742  14.334   9.618   7.349
19304SOL     OW59743   3.951  11.198   6.099
19304SOL    HW159744   3.993  11.249   6.168
19304SOL    HW259745   4.023  11.175   6.040
19305SOL     OW59746   2.826   7.693   5.495
19305SOL    HW159747   2.753   7.697   5.557
19305SOL    HW259748   2.902   7.721   5.546
19306SOL     OW59749  10.393  14.320  14.337
19306SOL    HW159750  10.438  14.279  14.411
19306SOL    HW259751  10.462  14.369  14.292
19307SOL     OW59752   0.283   9.327   8.628
19307SOL    HW159753   0.312   9.392   8.691
19307SOL    HW259754   0.230   9.377   8.565
19308SOL     OW59755  11.102   3.152   5.032
19308SOL    HW159756  11.029   3.210   5.052
19308SOL    HW259757  11.122   3.169   4.940
19309SOL     OW59758   2.131   4.148  11.720
19309SOL    HW159759   2.149   4.178  11.631
19309SOL    HW259760   2.039   4.168  11.735
19310SOL     OW59761   9.306   3.970   7.743
19310SOL    HW159762   9.310   3.984   7.838
19310SOL    HW259763   9.311   4.058   7.705
19311SOL     OW59764  13.853  11.699  10.421
19311SOL    HW159765  13.812  11.732  10.342
19311SOL    HW259766  13.840  11.604  10.417
19312SOL     OW59767   6.079   5.769  14.079
19312SOL    HW159768   5.986   5.751  14.073
19312SOL    HW259769   6.101   5.756  14.171
19313SOL     OW59770  11.713  13.015  13.274
19313SOL    HW159771  11.724  13.089  13.335
19313SOL    HW259772  11.627  12.979  13.295
19314SOL     OW59773   6.862   5.789   3.605
19314SOL    HW159774   6.909   5.815   3.685
19314SOL    HW259775   6.790   5.735   3.637
19315SOL     OW59776   1.665  10.416   4.188
19315SOL    HW159777   1.624  10.464   4.117
19315SOL    HW259778   1.600  10.414   4.257
19316SOL     OW59779   1.218   8.983   0.759
19316SOL    HW159780   1.140   9.015   0.802
19316SOL    HW259781   1.239   8.901   0.805
19317SOL     OW59782   0.784   2.537   8.171
19317SOL    HW159783   0.696   2.574   8.179
19317SOL    HW259784   0.824   2.586   8.099
19318SOL     OW59785   6.403   0.534   6.206
19318SOL    HW159786   6.323   0.556   6.254
19318SOL    HW259787   6.468   0.519   6.274
19319SOL     OW59788   0.036   1.618   6.631
19319SOL    HW159789   0.099   1.628   6.560
19319SOL    HW259790   0.014   1.525   6.632
19320SOL     OW59791   8.989   5.554   4.447
19320SOL    HW159792   9.042   5.604   4.510
19320SOL    HW259793   9.053   5.507   4.394
19321SOL     OW59794   1.660  14.791   0.834
19321SOL    HW159795   1.572  14.755   0.826
19321SOL    HW259796   1.651  14.863   0.896
19322SOL     OW59797   3.729  10.748   8.505
19322SOL    HW159798   3.636  10.731   8.520
19322SOL    HW259799   3.773  10.669   8.537
19323SOL     OW59800   6.751  10.957   8.180
19323SOL    HW159801   6.812  10.988   8.114
19323SOL    HW259802   6.724  11.036   8.227
19324SOL     OW59803   4.606  11.357  13.213
19324SOL    HW159804   4.577  11.321  13.130
19324SOL    HW259805   4.606  11.283  13.273
19325SOL     OW59806   7.566   6.071   9.587
19325SOL    HW159807   7.546   6.140   9.523
19325SOL    HW259808   7.602   6.118   9.662
19326SOL     OW59809  12.074   4.380   7.070
19326SOL    HW159810  12.035   4.414   6.990
19326SOL    HW259811  12.015   4.408   7.140
19327SOL     OW59812   6.095   3.996  13.504
19327SOL    HW159813   6.169   3.946  13.540
19327SOL    HW259814   6.075   3.952  13.421
19328SOL     OW59815   0.793  10.922   8.820
19328SOL    HW159816   0.763  10.945   8.908
19328SOL    HW259817   0.750  10.985   8.762
19329SOL     OW59818   4.773  12.049   1.996
19329SOL    HW159819   4.727  12.055   2.080
19329SOL    HW259820   4.789  11.955   1.984
19330SOL     OW59821   5.089   8.850   8.776
19330SOL    HW159822   5.087   8.925   8.835
19330SOL    HW259823   5.174   8.856   8.732
19331SOL     OW59824  14.850   0.089  10.183
19331SOL    HW159825  14.817   0.062  10.268
19331SOL    HW259826  14.797   0.165  10.159
19332SOL     OW59827   1.295   0.491   6.091
19332SOL    HW159828   1.272   0.514   6.002
19332SOL    HW259829   1.281   0.571   6.141
19333SOL     OW59830   7.971  14.124   1.113
19333SOL    HW159831   8.030  14.084   1.049
19333SOL    HW259832   7.909  14.175   1.060
19334SOL     OW59833   7.984   1.041  14.592
19334SOL    HW159834   7.958   1.116  14.646
19334SOL    HW259835   8.008   0.973  14.654
19335SOL     OW59836   8.312   6.439  11.183
19335SOL    HW159837   8.377   6.415  11.250
19335SOL    HW259838   8.353   6.509  11.134
19336SOL     OW59839   3.068   9.301  12.068
19336SOL    HW159840   3.152   9.319  12.112
19336SOL    HW259841   3.004   9.352  12.117
19337SOL     OW59842  12.446   7.928   7.073
19337SOL    HW159843  12.379   7.912   7.007
19337SOL    HW259844  12.492   8.006   7.042
19338SOL     OW59845   3.210  14.392  13.494
19338SOL    HW159846   3.219  14.469  13.551
19338SOL    HW259847   3.281  14.402  13.430
19339SOL     OW59848   7.827   5.062   4.038
19339SOL    HW159849   7.732   5.070   4.028
19339SOL    HW259850   7.864   5.096   3.957
19340SOL     OW59851  14.241   9.547   1.534
19340SOL    HW159852  14.162   9.579   1.577
19340SOL    HW259853  14.263   9.615   1.471
19341SOL     OW59854  12.247   7.135  12.654
19341SOL    HW159855  12.326   7.106  12.701
19341SOL    HW259856  12.246   7.083  12.574
19342SOL     OW59857  12.126   8.613   8.776
19342SOL    HW159858  12.132   8.585   8.867
19342SOL    HW259859  12.089   8.701   8.781
19343SOL     OW59860   7.376   2.037   0.072
19343SOL    HW159861   7.438   2.098   0.034
19343SOL    HW259862   7.395   2.038   0.166
19344SOL     OW59863   4.108   7.683   4.170
19344SOL    HW159864   4.102   7.684   4.074
19344SOL    HW259865   4.017   7.688   4.199
19345SOL     OW59866  11.885   9.974   1.252
19345SOL    HW159867  11.941   9.975   1.174
19345SOL    HW259868  11.796   9.967   1.218
19346SOL     OW59869   2.510   6.705   1.467
19346SOL    HW159870   2.489   6.674   1.379
19346SOL    HW259871   2.570   6.778   1.454
19347SOL     OW59872   5.725  11.495   0.397
19347SOL    HW159873   5.798  11.479   0.457
19347SOL    HW259874   5.657  11.433   0.425
19348SOL     OW59875  12.207   8.771   6.623
19348SOL    HW159876  12.249   8.826   6.557
19348SOL    HW259877  12.271   8.767   6.694
19349SOL     OW59878  10.552   8.955   2.580
19349SOL    HW159879  10.499   9.034   2.576
19349SOL    HW259880  10.630   8.975   2.529
19350SOL     OW59881  13.656   9.278  10.501
19350SOL    HW159882  13.706   9.311  10.576
19350SOL    HW259883  13.623   9.193  10.530
19351SOL     OW59884   6.915   0.643   9.721
19351SOL    HW159885   7.010   0.648   9.734
19351SOL    HW259886   6.904   0.638   9.626
19352SOL     OW59887  13.551   4.757  14.494
19352SOL    HW159888  13.591   4.834  14.453
19352SOL    HW259889  13.593   4.750  14.579
19353SOL     OW59890  10.716  10.458  10.879
19353SOL    HW159891  10.701  10.524  10.947
19353SOL    HW259892  10.732  10.508  10.799
19354SOL     OW59893   0.353  12.515   4.420
19354SOL    HW159894   0.343  12.441   4.360
19354SOL    HW259895   0.275  12.512   4.474
19355SOL     OW59896   8.107   9.916   9.477
19355SOL    HW159897   8.035   9.896   9.536
19355SOL    HW259898   8.134   9.832   9.442
19356SOL     OW59899   8.376   2.377  12.759
19356SOL    HW159900   8.324   2.433  12.817
19356SOL    HW259901   8.426   2.321  12.818
19357SOL     OW59902  12.779   4.368  10.814
19357SOL    HW159903  12.690   4.334  10.806
19357SOL    HW259904  12.814   4.370  10.725
19358SOL     OW59905  11.697   9.502   9.155
19358SOL    HW159906  11.603   9.515   9.169
19358SOL    HW259907  11.712   9.527   9.064
19359SOL     OW59908   5.293  11.054  14.795
19359SOL    HW159909   5.340  10.990  14.740
19359SOL    HW259910   5.311  11.138  14.754
19360SOL     OW59911  13.947   9.021   2.088
19360SOL    HW159912  13.866   9.068   2.111
19360SOL    HW259913  13.986   9.073   2.018
19361SOL     OW59914   5.143   7.579   0.674
19361SOL    HW159915   5.147   7.484   0.680
19361SOL    HW259916   5.233   7.608   0.690
19362SOL     OW59917   0.530  12.293  13.196
19362SOL    HW159918   0.547  12.218  13.139
19362SOL    HW259919   0.547  12.260  13.285
19363SOL     OW59920  13.683  12.198  10.773
19363SOL    HW159921  13.722  12.240  10.696
19363SOL    HW259922  13.598  12.166  10.744
19364SOL     OW59923   6.134  10.848   3.021
19364SOL    HW159924   6.130  10.752   3.021
19364SOL    HW259925   6.078  10.874   3.094
19365SOL     OW59926   3.623  14.156  14.380
19365SOL    HW159927   3.541  14.135  14.335
19365SOL    HW259928   3.656  14.071  14.409
19366SOL     OW59929   8.246   3.640   8.315
19366SOL    HW159930   8.195   3.574   8.360
19366SOL    HW259931   8.298   3.592   8.250
19367SOL     OW59932   4.499   0.567   6.312
19367SOL    HW159933   4.466   0.482   6.285
19367SOL    HW259934   4.588   0.550   6.344
19368SOL     OW59935   7.935   0.228   2.382
19368SOL    HW159936   7.938   0.178   2.463
19368SOL    HW259937   7.880   0.176   2.324
19369SOL     OW59938   1.440   6.777   4.891
19369SOL    HW159939   1.459   6.743   4.804
19369SOL    HW259940   1.432   6.700   4.946
19370SOL     OW59941   9.441   6.067   0.925
19370SOL    HW159942   9.481   6.142   0.968
19370SOL    HW259943   9.386   6.026   0.992
19371SOL     OW59944   3.413   0.013   0.483
19371SOL    HW159945   3.334  14.833   0.473
19371SOL    HW259946   3.394   0.094   0.435
19372SOL     OW59947  13.874  12.663  12.272
19372SOL    HW159948  13.947  12.605  12.294
19372SOL    HW259949  13.814  12.609  12.222
19373SOL     OW59950  12.676  14.168  10.289
19373SOL    HW159951  12.704  14.255  10.260
19373SOL    HW259952  12.648  14.124  10.209
19374SOL     OW59953   5.668   8.581   5.055
19374SOL    HW159954   5.585   8.614   5.020
19374SOL    HW259955   5.642   8.515   5.120
19375SOL     OW59956  14.465   2.396  13.727
19375SOL    HW159957  14.384   2.346  13.719
19375SOL    HW259958  14.529   2.334  13.762
19376SOL     OW59959   9.299   1.668   5.362
19376SOL    HW159960   9.333   1.607   5.427
19376SOL    HW259961   9.351   1.651   5.283
19377SOL     OW59962  14.575   2.734   1.929
19377SOL    HW159963  14.598   2.691   2.011
19377SOL    HW259964  14.634   2.809   1.924
19378SOL     OW59965   5.997   9.512  10.724
19378SOL    HW159966   5.937   9.581  10.753
19378SOL    HW259967   5.944   9.455  10.669
19379SOL     OW59968   4.894  12.843   0.839
19379SOL    HW159969   4.852  12.885   0.914
19379SOL    HW259970   4.921  12.915   0.783
19380SOL     OW59971   8.884  12.964   1.607
19380SOL    HW159972   8.816  12.902   1.634
19380SOL    HW259973   8.837  13.044   1.587
19381SOL     OW59974   1.808   0.849   1.004
19381SOL    HW159975   1.803   0.853   0.908
19381SOL    HW259976   1.837   0.760   1.022
19382SOL     OW59977  10.159  14.243   9.245
19382SOL    HW159978  10.120  14.156   9.254
19382SOL    HW259979  10.206  14.256   9.327
19383SOL     OW59980   6.313   8.076   7.305
19383SOL    HW159981   6.323   7.982   7.297
19383SOL    HW259982   6.306   8.108   7.215
19384SOL     OW59983  14.236  11.553   7.450
19384SOL    HW159984  14.296  11.481   7.429
19384SOL    HW259985  14.173  11.552   7.379
19385SOL     OW59986   9.043   7.660   5.786
19385SOL    HW159987   9.119   7.609   5.760
19385SOL    HW259988   8.968   7.605   5.763
19386SOL     OW59989   4.499   9.205  11.288
19386SOL    HW159990   4.412   9.223  11.253
19386SOL    HW259991   4.541   9.151  11.222
19387SOL     OW59992   4.696  14.742   4.416
19387SOL    HW159993   4.779  14.761   4.458
19387SOL    HW259994   4.647  14.690   4.480
19388SOL     OW59995  13.052   5.325   8.194
19388SOL    HW159996  13.085   5.394   8.136
19388SOL    HW259997  12.965   5.357   8.220
19389SOL     OW59998   9.089   5.353   2.693
19389SOL    HW159999   9.178   5.377   2.718
19389SOL    HW260000   9.053   5.309   2.770
19390SOL     OW60001  10.694   0.708   7.421
19390SOL    HW160002  10.647   0.788   7.398
19390SOL    HW260003  10.786   0.729   7.409
19391SOL     OW60004   3.129   8.313   2.517
19391SOL    HW160005   3.174   8.386   2.477
19391SOL    HW260006   3.198   8.260   2.556
19392SOL     OW60007  12.961   2.777  13.709
19392SOL    HW160008  12.962   2.839  13.636
19392SOL    HW260009  13.048   2.737  13.709
19393SOL     OW60010   9.076   2.509  13.375
19393SOL    HW160011   9.108   2.505  13.285
19393SOL    HW260012   9.063   2.603  13.391
19394SOL     OW60013  12.245   1.963   9.946
19394SOL    HW160014  12.332   1.937   9.915
19394SOL    HW260015  12.225   1.900  10.015
19395SOL     OW60016   1.374  13.055  12.903
19395SOL    HW160017   1.397  13.023  12.990
19395SOL    HW260018   1.316  12.989  12.867
19396SOL     OW60019  10.318   1.885   5.511
19396SOL    HW160020  10.262   1.947   5.556
19396SOL    HW260021  10.298   1.800   5.551
19397SOL     OW60022   5.043   7.771   1.372
19397SOL    HW160023   4.979   7.711   1.332
19397SOL    HW260024   5.127   7.727   1.358
19398SOL     OW60025   0.149   5.005   5.224
19398SOL    HW160026   0.072   4.948   5.215
19398SOL    HW260027   0.142   5.066   5.151
19399SOL     OW60028   9.228  14.196   3.050
19399SOL    HW160029   9.237  14.291   3.058
19399SOL    HW260030   9.311  14.162   3.084
19400SOL     OW60031  14.556  12.528   4.755
19400SOL    HW160032  14.484  12.528   4.818
19400SOL    HW260033  14.513  12.535   4.670
19401SOL     OW60034   3.243  11.878  11.035
19401SOL    HW160035   3.176  11.920  10.981
19401SOL    HW260036   3.313  11.943  11.041
19402SOL     OW60037  13.145   6.095  10.568
19402SOL    HW160038  13.059   6.115  10.603
19402SOL    HW260039  13.204   6.158  10.610
19403SOL     OW60040   0.596   0.357   0.909
19403SOL    HW160041   0.557   0.331   0.825
19403SOL    HW260042   0.563   0.445   0.925
19404SOL     OW60043   5.188   6.929   8.940
19404SOL    HW160044   5.237   6.949   8.860
19404SOL    HW260045   5.096   6.944   8.916
19405SOL     OW60046   9.619   7.795   7.382
19405SOL    HW160047   9.666   7.876   7.401
19405SOL    HW260048   9.675   7.750   7.319
19406SOL     OW60049   8.475   6.238   6.479
19406SOL    HW160050   8.499   6.202   6.394
19406SOL    HW260051   8.384   6.212   6.492
19407SOL     OW60052   2.600   8.131   8.263
19407SOL    HW160053   2.562   8.081   8.335
19407SOL    HW260054   2.565   8.219   8.274
19408SOL     OW60055   4.004   5.887   4.151
19408SOL    HW160056   4.021   5.946   4.077
19408SOL    HW260057   3.910   5.894   4.166
19409SOL     OW60058   9.914   5.227  13.670
19409SOL    HW160059   9.948   5.315  13.654
19409SOL    HW260060   9.931   5.211  13.763
19410SOL     OW60061   9.367   1.978   4.581
19410SOL    HW160062   9.311   2.038   4.629
19410SOL    HW260063   9.319   1.895   4.582
19411SOL     OW60064   6.129  13.315   6.098
19411SOL    HW160065   6.124  13.296   6.004
19411SOL    HW260066   6.042  13.347   6.120
19412SOL     OW60067   4.471   0.020   5.109
19412SOL    HW160068   4.412  14.859   5.177
19412SOL    HW260069   4.414   0.071   5.052
19413SOL     OW60070   7.218   5.960   3.057
19413SOL    HW160071   7.253   6.048   3.071
19413SOL    HW260072   7.153   5.949   3.126
19414SOL     OW60073  13.619   2.069   9.258
19414SOL    HW160074  13.705   2.107   9.239
19414SOL    HW260075  13.580   2.128   9.323
19415SOL     OW60076   2.889   5.297  11.974
19415SOL    HW160077   2.846   5.222  12.017
19415SOL    HW260078   2.951   5.257  11.913
19416SOL     OW60079   7.438   8.724   2.443
19416SOL    HW160080   7.372   8.743   2.509
19416SOL    HW260081   7.511   8.687   2.492
19417SOL     OW60082   3.257  12.540   8.643
19417SOL    HW160083   3.297  12.561   8.728
19417SOL    HW260084   3.283  12.613   8.586
19418SOL     OW60085   8.739   0.095   1.480
19418SOL    HW160086   8.833   0.109   1.464
19418SOL    HW260087   8.695   0.151   1.416
19419SOL     OW60088   0.527  10.150  11.844
19419SOL    HW160089   0.432  10.143  11.831
19419SOL    HW260090   0.563  10.077  11.793
19420SOL     OW60091   0.406  12.192   6.406
19420SOL    HW160092   0.435  12.277   6.374
19420SOL    HW260093   0.486  12.149   6.438
19421SOL     OW60094   0.679   9.152   6.577
19421SOL    HW160095   0.656   9.169   6.668
19421SOL    HW260096   0.677   9.057   6.569
19422SOL     OW60097   4.878  11.430   3.476
19422SOL    HW160098   4.895  11.427   3.570
19422SOL    HW260099   4.962  11.407   3.436
19423SOL     OW60100  13.005  11.542   2.033
19423SOL    HW160101  13.083  11.490   2.054
19423SOL    HW260102  12.986  11.522   1.941
19424SOL     OW60103   3.793  14.578   6.742
19424SOL    HW160104   3.727  14.517   6.777
19424SOL    HW260105   3.849  14.523   6.687
19425SOL     OW60106  11.671   6.621  11.535
19425SOL    HW160107  11.596   6.668  11.499
19425SOL    HW260108  11.742   6.637  11.473
19426SOL     OW60109   6.959   2.926  10.240
19426SOL    HW160110   6.869   2.893  10.238
19426SOL    HW260111   6.977   2.951  10.149
19427SOL     OW60112   2.613  14.085   2.112
19427SOL    HW160113   2.655  14.001   2.093
19427SOL    HW260114   2.642  14.143   2.041
19428SOL     OW60115  12.155  13.113   7.283
19428SOL    HW160116  12.096  13.066   7.224
19428SOL    HW260117  12.233  13.131   7.231
19429SOL     OW60118  10.154   3.412   6.070
19429SOL    HW160119  10.109   3.330   6.051
19429SOL    HW260120  10.177   3.447   5.984
19430SOL     OW60121   1.675  13.417   0.020
19430SOL    HW160122   1.687  13.512   0.014
19430SOL    HW260123   1.659  13.390  14.801
19431SOL     OW60124   4.969  11.645   6.070
19431SOL    HW160125   5.011  11.650   6.156
19431SOL    HW260126   4.952  11.551   6.058
19432SOL     OW60127   1.850   3.721   4.758
19432SOL    HW160128   1.784   3.726   4.828
19432SOL    HW260129   1.911   3.792   4.778
19433SOL     OW60130   4.119   1.594  10.191
19433SOL    HW160131   4.133   1.671  10.136
19433SOL    HW260132   4.207   1.556  10.202
19434SOL     OW60133  10.243  10.483   1.823
19434SOL    HW160134  10.272  10.566   1.786
19434SOL    HW260135  10.248  10.420   1.751
19435SOL     OW60136  14.311   0.633   9.013
19435SOL    HW160137  14.342   0.545   9.035
19435SOL    HW260138  14.278   0.625   8.923
19436SOL     OW60139   6.065  11.096  11.642
19436SOL    HW160140   6.086  11.090  11.735
19436SOL    HW260141   6.121  11.030  11.600
19437SOL     OW60142  13.233   5.064   4.835
19437SOL    HW160143  13.198   5.153   4.849
19437SOL    HW260144  13.324   5.078   4.811
19438SOL     OW60145   3.660   0.168   7.847
19438SOL    HW160146   3.590   0.108   7.875
19438SOL    HW260147   3.654   0.169   7.752
19439SOL     OW60148   3.681   6.198  10.451
19439SOL    HW160149   3.610   6.209  10.388
19439SOL    HW260150   3.650   6.129  10.510
19440SOL     OW60151   8.583   4.596   8.467
19440SOL    HW160152   8.510   4.603   8.406
19440SOL    HW260153   8.560   4.522   8.524
19441SOL     OW60154  13.991  14.692   0.337
19441SOL    HW160155  14.028  14.780   0.327
19441SOL    HW260156  14.022  14.663   0.423
19442SOL     OW60157   2.479   6.765   8.721
19442SOL    HW160158   2.415   6.696   8.738
19442SOL    HW260159   2.442   6.843   8.761
19443SOL     OW60160  11.372   8.499   5.534
19443SOL    HW160161  11.279   8.508   5.558
19443SOL    HW260162  11.412   8.581   5.562
19444SOL     OW60163   5.119   3.034  10.069
19444SOL    HW160164   5.173   3.063  10.143
19444SOL    HW260165   5.123   2.939  10.073
19445SOL     OW60166   4.746   9.146   7.011
19445SOL    HW160167   4.724   9.220   6.953
19445SOL    HW260168   4.662   9.122   7.051
19446SOL     OW60169   7.041   5.066   2.221
19446SOL    HW160170   7.063   4.989   2.168
19446SOL    HW260171   7.077   5.140   2.172
19447SOL     OW60172  13.708   7.559   5.574
19447SOL    HW160173  13.758   7.619   5.518
19447SOL    HW260174  13.698   7.479   5.522
19448SOL     OW60175   4.606   0.352   9.303
19448SOL    HW160176   4.587   0.259   9.294
19448SOL    HW260177   4.670   0.370   9.234
19449SOL     OW60178  13.318   5.237  12.049
19449SOL    HW160179  13.386   5.299  12.073
19449SOL    HW260180  13.252   5.245  12.117
19450SOL     OW60181  13.936   6.646  10.462
19450SOL    HW160182  14.005   6.581  10.447
19450SOL    HW260183  13.855   6.596  10.465
19451SOL     OW60184   2.456  14.147   4.788
19451SOL    HW160185   2.471  14.159   4.882
19451SOL    HW260186   2.369  14.108   4.783
19452SOL     OW60187   1.312   2.218   4.410
19452SOL    HW160188   1.279   2.254   4.328
19452SOL    HW260189   1.236   2.220   4.468
19453SOL     OW60190   5.815   6.994   3.879
19453SOL    HW160191   5.846   7.058   3.814
19453SOL    HW260192   5.726   7.023   3.900
19454SOL     OW60193   6.954   0.236  14.479
19454SOL    HW160194   6.905   0.313  14.509
19454SOL    HW260195   6.969   0.184  14.557
19455SOL     OW60196   5.347   6.677   7.523
19455SOL    HW160197   5.266   6.722   7.501
19455SOL    HW260198   5.326   6.627   7.601
19456SOL     OW60199  14.629   7.586   1.250
19456SOL    HW160200  14.579   7.567   1.171
19456SOL    HW260201  14.612   7.511   1.307
19457SOL     OW60202  11.614   5.781   9.015
19457SOL    HW160203  11.555   5.771   9.089
19457SOL    HW260204  11.558   5.809   8.943
19458SOL     OW60205   5.139   5.942  13.370
19458SOL    HW160206   5.106   5.938  13.280
19458SOL    HW260207   5.064   5.917  13.424
19459SOL     OW60208   6.686   0.570   1.511
19459SOL    HW160209   6.649   0.538   1.593
19459SOL    HW260210   6.632   0.646   1.488
19460SOL     OW60211   3.344   6.160   1.043
19460SOL    HW160212   3.253   6.190   1.049
19460SOL    HW260213   3.386   6.223   0.985
19461SOL     OW60214   8.997   5.225   5.666
19461SOL    HW160215   9.040   5.301   5.626
19461SOL    HW260216   9.068   5.163   5.682
19462SOL     OW60217   1.517   1.985   6.375
19462SOL    HW160218   1.513   1.901   6.331
19462SOL    HW260219   1.427   2.016   6.378
19463SOL     OW60220  10.149  10.679  10.005
19463SOL    HW160221  10.233  10.651  10.042
19463SOL    HW260222  10.122  10.607   9.948
19464SOL     OW60223   5.815  13.724   3.114
19464SOL    HW160224   5.757  13.763   3.178
19464SOL    HW260225   5.769  13.733   3.030
19465SOL     OW60226  11.040  10.094  10.012
19465SOL    HW160227  10.969  10.057  10.063
19465SOL    HW260228  11.005  10.177   9.978
19466SOL     OW60229  13.772   6.126   8.175
19466SOL    HW160230  13.845   6.172   8.217
19466SOL    HW260231  13.751   6.055   8.235
19467SOL     OW60232  11.275   6.804  11.620
19467SOL    HW160233  11.332   6.812  11.544
19467SOL    HW260234  11.239   6.716  11.615
19468SOL     OW60235   7.000   4.162   8.168
19468SOL    HW160236   7.069   4.214   8.208
19468SOL    HW260237   6.926   4.169   8.229
19469SOL     OW60238   5.559   7.419   8.828
19469SOL    HW160239   5.642   7.434   8.784
19469SOL    HW260240   5.493   7.452   8.768
19470SOL     OW60241   6.164  13.666   3.542
19470SOL    HW160242   6.095  13.600   3.548
19470SOL    HW260243   6.117  13.747   3.521
19471SOL     OW60244  12.026  10.425  13.243
19471SOL    HW160245  12.053  10.334  13.256
19471SOL    HW260246  11.985  10.426  13.157
19472SOL     OW60247  11.443  12.763   5.068
19472SOL    HW160248  11.365  12.723   5.029
19472SOL    HW260249  11.428  12.756   5.163
19473SOL     OW60250  10.722   5.524   9.570
19473SOL    HW160251  10.798   5.582   9.568
19473SOL    HW260252  10.656   5.568   9.515
19474SOL     OW60253   6.649   5.380  13.259
19474SOL    HW160254   6.675   5.294  13.294
19474SOL    HW260255   6.732   5.422  13.236
19475SOL     OW60256   4.365   0.311   0.978
19475SOL    HW160257   4.353   0.294   0.884
19475SOL    HW260258   4.460   0.308   0.990
19476SOL     OW60259   6.558  11.743  12.545
19476SOL    HW160260   6.648  11.773  12.559
19476SOL    HW260261   6.531  11.785  12.464
19477SOL     OW60262   2.613   6.149   5.096
19477SOL    HW160263   2.641   6.210   5.165
19477SOL    HW260264   2.694   6.116   5.059
19478SOL     OW60265   9.245   3.063   3.937
19478SOL    HW160266   9.233   3.122   3.863
19478SOL    HW260267   9.339   3.046   3.939
19479SOL     OW60268   2.125  13.660   5.729
19479SOL    HW160269   2.090  13.637   5.814
19479SOL    HW260270   2.215  13.628   5.730
19480SOL     OW60271   5.701   3.413   1.945
19480SOL    HW160272   5.741   3.335   1.983
19480SOL    HW260273   5.680   3.468   2.020
19481SOL     OW60274   2.694  13.160   3.148
19481SOL    HW160275   2.662  13.121   3.230
19481SOL    HW260276   2.655  13.248   3.147
19482SOL     OW60277   2.117   8.905   3.952
19482SOL    HW160278   2.163   8.939   3.876
19482SOL    HW260279   2.027   8.936   3.941
19483SOL     OW60280  11.413  14.509   2.835
19483SOL    HW160281  11.365  14.563   2.898
19483SOL    HW260282  11.431  14.428   2.883
19484SOL     OW60283  10.084   2.884  13.406
19484SOL    HW160284  10.101   2.948  13.475
19484SOL    HW260285   9.989   2.876  13.402
19485SOL     OW60286  12.563   8.421   8.053
19485SOL    HW160287  12.536   8.357   8.119
19485SOL    HW260288  12.483   8.442   8.005
19486SOL     OW60289   5.114   4.987   2.119
19486SOL    HW160290   5.115   4.950   2.208
19486SOL    HW260291   5.105   4.911   2.062
19487SOL     OW60292   5.611  10.128   4.066
19487SOL    HW160293   5.613  10.064   3.994
19487SOL    HW260294   5.701  10.127   4.100
19488SOL     OW60295   1.743  11.737   0.001
19488SOL    HW160296   1.685  11.710  14.802
19488SOL    HW260297   1.830  11.739  14.834
19489SOL     OW60298   4.822  11.951   6.357
19489SOL    HW160299   4.773  12.031   6.381
19489SOL    HW260300   4.875  11.977   6.282
19490SOL     OW60301   4.119   1.179  13.344
19490SOL    HW160302   4.170   1.102  13.367
19490SOL    HW260303   4.029   1.157  13.371
19491SOL     OW60304  10.966  13.187   6.639
19491SOL    HW160305  10.973  13.108   6.586
19491SOL    HW260306  11.025  13.172   6.713
19492SOL     OW60307   4.760  11.864  13.643
19492SOL    HW160308   4.675  11.821  13.650
19492SOL    HW260309   4.766  11.919  13.721
19493SOL     OW60310   3.783  13.336   8.705
19493SOL    HW160311   3.739  13.324   8.789
19493SOL    HW260312   3.727  13.397   8.657
19494SOL     OW60313  12.635   3.251   3.951
19494SOL    HW160314  12.609   3.299   4.029
19494SOL    HW260315  12.575   3.176   3.948
19495SOL     OW60316   4.324   8.859  10.372
19495SOL    HW160317   4.351   8.851  10.464
19495SOL    HW260318   4.385   8.923  10.335
19496SOL     OW60319  13.268   8.161   8.340
19496SOL    HW160320  13.178   8.189   8.357
19496SOL    HW260321  13.316   8.186   8.418
19497SOL     OW60322  11.587  10.696  11.604
19497SOL    HW160323  11.551  10.629  11.662
19497SOL    HW260324  11.562  10.667  11.516
19498SOL     OW60325   5.599   5.921   1.342
19498SOL    HW160326   5.639   5.875   1.268
19498SOL    HW260327   5.568   6.003   1.304
19499SOL     OW60328   8.030  13.993   9.168
19499SOL    HW160329   7.986  13.916   9.133
19499SOL    HW260330   8.029  14.056   9.096
19500SOL     OW60331  10.513   3.756   1.439
19500SOL    HW160332  10.482   3.819   1.503
19500SOL    HW260333  10.607   3.747   1.456
19501SOL     OW60334   4.474   7.080  10.278
19501SOL    HW160335   4.463   7.111  10.367
19501SOL    HW260336   4.389   7.094  10.236
19502SOL     OW60337   0.166   3.885   2.624
19502SOL    HW160338   0.104   3.847   2.686
19502SOL    HW260339   0.144   3.978   2.623
19503SOL     OW60340   8.967   0.239  12.208
19503SOL    HW160341   9.055   0.276  12.210
19503SOL    HW260342   8.967   0.171  12.275
19504SOL     OW60343   2.675  12.337  10.554
19504SOL    HW160344   2.704  12.365  10.468
19504SOL    HW260345   2.667  12.242  10.546
19505SOL     OW60346   5.831   8.516   1.081
19505SOL    HW160347   5.866   8.566   1.007
19505SOL    HW260348   5.876   8.431   1.076
19506SOL     OW60349  13.346  11.745   4.222
19506SOL    HW160350  13.371  11.775   4.310
19506SOL    HW260351  13.419  11.770   4.166
19507SOL     OW60352   5.023   8.192  14.758
19507SOL    HW160353   4.966   8.157  14.826
19507SOL    HW260354   4.963   8.235  14.696
19508SOL     OW60355   5.763  12.853   2.799
19508SOL    HW160356   5.712  12.927   2.834
19508SOL    HW260357   5.714  12.824   2.723
19509SOL     OW60358   6.307   8.390   8.926
19509SOL    HW160359   6.238   8.453   8.905
19509SOL    HW260360   6.278   8.308   8.886
19510SOL     OW60361   9.026   5.970   3.652
19510SOL    HW160362   9.062   6.041   3.598
19510SOL    HW260363   9.103   5.920   3.680
19511SOL     OW60364  11.479  10.865   6.544
19511SOL    HW160365  11.494  10.919   6.467
19511SOL    HW260366  11.472  10.928   6.616
19512SOL     OW60367  13.867  11.724  13.302
19512SOL    HW160368  13.864  11.818  13.289
19512SOL    HW260369  13.924  11.712  13.379
19513SOL     OW60370  11.190   7.154   5.298
19513SOL    HW160371  11.242   7.185   5.224
19513SOL    HW260372  11.101   7.180   5.277
19514SOL     OW60373   6.389  10.378   1.556
19514SOL    HW160374   6.349  10.316   1.618
19514SOL    HW260375   6.347  10.359   1.472
19515SOL     OW60376   0.224   0.855   7.895
19515SOL    HW160377   0.266   0.828   7.814
19515SOL    HW260378   0.216   0.950   7.887
19516SOL     OW60379   7.620  11.067   6.009
19516SOL    HW160380   7.708  11.035   5.990
19516SOL    HW260381   7.567  10.988   6.019
19517SOL     OW60382  13.326  14.216   0.407
19517SOL    HW160383  13.286  14.285   0.354
19517SOL    HW260384  13.361  14.154   0.343
19518SOL     OW60385   4.449   1.001   3.877
19518SOL    HW160386   4.400   0.919   3.890
19518SOL    HW260387   4.519   0.977   3.817
19519SOL     OW60388  10.772  14.027  10.185
19519SOL    HW160389  10.857  13.984  10.190
19519SOL    HW260390  10.761  14.070  10.270
19520SOL     OW60391   3.289   2.220   8.754
19520SOL    HW160392   3.373   2.246   8.717
19520SOL    HW260393   3.227   2.231   8.682
19521SOL     OW60394   7.536   1.071   0.768
19521SOL    HW160395   7.467   1.082   0.834
19521SOL    HW260396   7.491   1.080   0.684
19522SOL     OW60397  10.313   1.562   2.805
19522SOL    HW160398  10.375   1.492   2.782
19522SOL    HW260399  10.368   1.638   2.824
19523SOL     OW60400   3.282   7.053  11.147
19523SOL    HW160401   3.217   7.028  11.081
19523SOL    HW260402   3.253   7.010  11.227
19524SOL     OW60403   7.042   0.222   3.877
19524SOL    HW160404   7.061   0.137   3.838
19524SOL    HW260405   7.072   0.286   3.812
19525SOL     OW60406   8.585   7.890   9.956
19525SOL    HW160407   8.495   7.923   9.946
19525SOL    HW260408   8.585   7.808   9.908
19526SOL     OW60409  10.060  11.531   8.763
19526SOL    HW160410  10.008  11.463   8.806
19526SOL    HW260411  10.053  11.512   8.670
19527SOL     OW60412  10.086   1.278   3.344
19527SOL    HW160413  10.103   1.346   3.279
19527SOL    HW260414   9.992   1.285   3.361
19528SOL     OW60415   0.071   6.291   1.817
19528SOL    HW160416   0.000   6.233   1.790
19528SOL    HW260417   0.140   6.277   1.752
19529SOL     OW60418  10.179   2.062  10.293
19529SOL    HW160419  10.182   2.072  10.198
19529SOL    HW260420  10.131   1.981  10.307
19530SOL     OW60421   4.345   7.381   9.800
19530SOL    HW160422   4.409   7.429   9.749
19530SOL    HW260423   4.273   7.364   9.739
19531SOL     OW60424  11.100  13.643  12.994
19531SOL    HW160425  11.143  13.701  12.931
19531SOL    HW260426  11.039  13.592  12.942
19532SOL     OW60427   2.500   5.842   5.324
19532SOL    HW160428   2.468   5.786   5.253
19532SOL    HW260429   2.449   5.922   5.318
19533SOL     OW60430  13.652  11.943  13.179
19533SOL    HW160431  13.572  11.993  13.162
19533SOL    HW260432  13.647  11.920  13.271
19534SOL     OW60433   3.141   1.198  10.129
19534SOL    HW160434   3.183   1.215  10.045
19534SOL    HW260435   3.202   1.235  10.194
19535SOL     OW60436   6.850   1.903   9.849
19535SOL    HW160437   6.905   1.963   9.799
19535SOL    HW260438   6.766   1.947   9.856
19536SOL     OW60439   7.143  10.883   0.552
19536SOL    HW160440   7.175  10.938   0.624
19536SOL    HW260441   7.088  10.941   0.500
19537SOL     OW60442   4.732   9.531   8.922
19537SOL    HW160443   4.670   9.590   8.877
19537SOL    HW260444   4.785   9.495   8.851
19538SOL     OW60445  14.860  14.755   3.939
19538SOL    HW160446   0.031  14.766   4.024
19538SOL    HW260447   0.058  14.770   3.875
19539SOL     OW60448   5.230   4.626   4.989
19539SOL    HW160449   5.212   4.646   4.897
19539SOL    HW260450   5.221   4.710   5.034
19540SOL     OW60451  14.202  12.218  10.119
19540SOL    HW160452  14.289  12.250  10.094
19540SOL    HW260453  14.142  12.284  10.087
19541SOL     OW60454   7.294   5.813  12.806
19541SOL    HW160455   7.318   5.758  12.732
19541SOL    HW260456   7.255   5.891  12.765
19542SOL     OW60457   0.919   6.600  13.148
19542SOL    HW160458   0.909   6.527  13.086
19542SOL    HW260459   0.854   6.582  13.216
19543SOL     OW60460   3.551  13.556   1.960
19543SOL    HW160461   3.465  13.598   1.968
19543SOL    HW260462   3.610  13.626   1.933
19544SOL     OW60463   8.936  12.604  10.476
19544SOL    HW160464   8.908  12.513  10.488
19544SOL    HW260465   8.870  12.656  10.520
19545SOL     OW60466  14.593   1.589   4.772
19545SOL    HW160467  14.557   1.501   4.758
19545SOL    HW260468  14.549   1.620   4.851
19546SOL     OW60469  10.833   3.173   8.460
19546SOL    HW160470  10.860   3.265   8.459
19546SOL    HW260471  10.817   3.152   8.368
19547SOL     OW60472   2.331  11.379   9.450
19547SOL    HW160473   2.268  11.418   9.389
19547SOL    HW260474   2.326  11.433   9.528
19548SOL     OW60475   6.047  14.872   5.043
19548SOL    HW160476   6.114  14.819   4.999
19548SOL    HW260477   6.064  14.859   5.136
19549SOL     OW60478  12.763   0.340   3.333
19549SOL    HW160479  12.681   0.321   3.379
19549SOL    HW260480  12.757   0.432   3.309
19550SOL     OW60481   6.582  12.656   7.264
19550SOL    HW160482   6.666  12.675   7.223
19550SOL    HW260483   6.524  12.633   7.192
19551SOL     OW60484  12.192  11.335   7.292
19551SOL    HW160485  12.213  11.365   7.204
19551SOL    HW260486  12.171  11.414   7.341
19552SOL     OW60487   5.210   6.372   0.423
19552SOL    HW160488   5.226   6.450   0.370
19552SOL    HW260489   5.244   6.396   0.510
19553SOL     OW60490   2.824   1.403   8.461
19553SOL    HW160491   2.907   1.449   8.449
19553SOL    HW260492   2.841   1.341   8.532
19554SOL     OW60493   3.208  13.267   9.434
19554SOL    HW160494   3.166  13.287   9.518
19554SOL    HW260495   3.275  13.334   9.424
19555SOL     OW60496  13.029  13.757  10.661
19555SOL    HW160497  12.965  13.827  10.662
19555SOL    HW260498  12.978  13.677  10.654
19556SOL     OW60499   8.705   1.322  11.279
19556SOL    HW160500   8.671   1.335  11.368
19556SOL    HW260501   8.706   1.227  11.268
19557SOL     OW60502  13.643   6.173   2.070
19557SOL    HW160503  13.658   6.087   2.110
19557SOL    HW260504  13.731   6.208   2.056
19558SOL     OW60505   8.231   6.202  11.624
19558SOL    HW160506   8.326   6.210  11.621
19558SOL    HW260507   8.201   6.285  11.661
19559SOL     OW60508   4.491  14.762  11.191
19559SOL    HW160509   4.422  14.791  11.250
19559SOL    HW260510   4.453  14.691  11.140
19560SOL     OW60511   5.645   4.718   1.936
19560SOL    HW160512   5.699   4.794   1.959
19560SOL    HW260513   5.616   4.736   1.847
19561SOL     OW60514   0.936   8.996   5.965
19561SOL    HW160515   0.935   8.910   6.008
19561SOL    HW260516   0.942   8.975   5.871
19562SOL     OW60517   3.569  13.500   4.113
19562SOL    HW160518   3.578  13.532   4.202
19562SOL    HW260519   3.509  13.561   4.070
19563SOL     OW60520   7.966   1.914   8.225
19563SOL    HW160521   8.044   1.875   8.186
19563SOL    HW260522   7.979   1.905   8.320
19564SOL     OW60523   2.827   3.774  10.527
19564SOL    HW160524   2.861   3.815  10.607
19564SOL    HW260525   2.785   3.694  10.558
19565SOL     OW60526  12.325   7.416   1.247
19565SOL    HW160527  12.237   7.405   1.211
19565SOL    HW260528  12.369   7.332   1.230
19566SOL     OW60529  14.618   5.246  10.709
19566SOL    HW160530  14.625   5.323  10.765
19566SOL    HW260531  14.542   5.263  10.653
19567SOL     OW60532   7.718   3.505  10.464
19567SOL    HW160533   7.739   3.432  10.406
19567SOL    HW260534   7.799   3.520  10.513
19568SOL     OW60535   8.301  10.496   1.977
19568SOL    HW160536   8.339  10.525   2.059
19568SOL    HW260537   8.324  10.403   1.972
19569SOL     OW60538   8.118  14.011   0.582
19569SOL    HW160539   8.125  14.039   0.490
19569SOL    HW260540   8.026  14.027   0.605
19570SOL     OW60541   1.163  11.253  11.091
19570SOL    HW160542   1.209  11.284  11.169
19570SOL    HW260543   1.216  11.285  11.018
19571SOL     OW60544   4.320   5.690   1.761
19571SOL    HW160545   4.389   5.757   1.766
19571SOL    HW260546   4.366   5.607   1.772
19572SOL     OW60547  10.575   3.677   2.335
19572SOL    HW160548  10.493   3.717   2.365
19572SOL    HW260549  10.587   3.601   2.392
19573SOL     OW60550   1.463   8.792   0.165
19573SOL    HW160551   1.493   8.877   0.133
19573SOL    HW260552   1.424   8.750   0.089
19574SOL     OW60553  11.861   8.840  13.486
19574SOL    HW160554  11.954   8.827  13.502
19574SOL    HW260555  11.819   8.809  13.567
19575SOL     OW60556   3.460  12.055  13.189
19575SOL    HW160557   3.532  12.015  13.140
19575SOL    HW260558   3.381  12.028  13.143
19576SOL     OW60559   3.132   8.193   3.145
19576SOL    HW160560   3.097   8.115   3.188
19576SOL    HW260561   3.124   8.175   3.051
19577SOL     OW60562  12.035   9.473   7.490
19577SOL    HW160563  11.965   9.523   7.531
19577SOL    HW260564  12.002   9.383   7.486
19578SOL     OW60565  11.108   5.293   9.132
19578SOL    HW160566  11.105   5.352   9.057
19578SOL    HW260567  11.032   5.235   9.120
19579SOL     OW60568  10.125  13.860   6.778
19579SOL    HW160569  10.202  13.902   6.740
19579SOL    HW260570  10.145  13.767   6.776
19580SOL     OW60571  12.510  12.160   7.894
19580SOL    HW160572  12.436  12.106   7.866
19580SOL    HW260573  12.548  12.112   7.968
19581SOL     OW60574   4.952  10.292   0.262
19581SOL    HW160575   4.869  10.292   0.309
19581SOL    HW260576   4.942  10.360   0.195
19582SOL     OW60577   9.034   8.726   2.823
19582SOL    HW160578   8.959   8.675   2.794
19582SOL    HW260579   8.997   8.806   2.859
19583SOL     OW60580  14.592  10.191   9.771
19583SOL    HW160581  14.506  10.169   9.736
19583SOL    HW260582  14.653  10.139   9.719
19584SOL     OW60583   4.826   8.835   5.162
19584SOL    HW160584   4.796   8.753   5.201
19584SOL    HW260585   4.921   8.825   5.156
19585SOL     OW60586  13.604   7.721   5.221
19585SOL    HW160587  13.570   7.810   5.228
19585SOL    HW260588  13.676   7.717   5.284
19586SOL     OW60589  14.616  14.064  14.459
19586SOL    HW160590  14.621  14.154  14.426
19586SOL    HW260591  14.704  14.028  14.444
19587SOL     OW60592   5.620   9.990   4.679
19587SOL    HW160593   5.579   9.952   4.601
19587SOL    HW260594   5.683   9.924   4.708
19588SOL     OW60595   7.378   8.023  10.367
19588SOL    HW160596   7.435   8.052  10.438
19588SOL    HW260597   7.360   7.931  10.386
19589SOL     OW60598   9.509  11.825   3.660
19589SOL    HW160599   9.558  11.853   3.737
19589SOL    HW260600   9.545  11.876   3.587
19590SOL     OW60601   6.563  10.143  11.194
19590SOL    HW160602   6.552  10.093  11.113
19590SOL    HW260603   6.543  10.080  11.263
19591SOL     OW60604   0.494   4.451   6.131
19591SOL    HW160605   0.443   4.489   6.203
19591SOL    HW260606   0.585   4.468   6.153
19592SOL     OW60607  11.717  12.965   0.078
19592SOL    HW160608  11.757  12.993  14.868
19592SOL    HW260609  11.762  12.884   0.101
19593SOL     OW60610  12.185   2.816  13.635
19593SOL    HW160611  12.276   2.836  13.655
19593SOL    HW260612  12.189   2.746  13.570
19594SOL     OW60613   9.831   7.634   6.218
19594SOL    HW160614   9.853   7.593   6.134
19594SOL    HW260615   9.791   7.717   6.194
19595SOL     OW60616  13.580   1.220   2.336
19595SOL    HW160617  13.647   1.268   2.288
19595SOL    HW260618  13.497   1.250   2.297
19596SOL     OW60619  10.934   8.597  12.933
19596SOL    HW160620  11.012   8.554  12.898
19596SOL    HW260621  10.863   8.534  12.919
19597SOL     OW60622  14.424  13.715   2.286
19597SOL    HW160623  14.429  13.727   2.381
19597SOL    HW260624  14.508  13.749   2.255
19598SOL     OW60625   5.421   6.883   4.265
19598SOL    HW160626   5.366   6.896   4.188
19598SOL    HW260627   5.485   6.954   4.260
19599SOL     OW60628   0.989  10.104   9.243
19599SOL    HW160629   0.946  10.046   9.306
19599SOL    HW260630   0.919  10.128   9.182
19600SOL     OW60631  10.372   3.312   7.211
19600SOL    HW160632  10.436   3.248   7.180
19600SOL    HW260633  10.288   3.266   7.209
19601SOL     OW60634   7.078   3.913   4.115
19601SOL    HW160635   7.106   3.849   4.049
19601SOL    HW260636   6.996   3.878   4.149
19602SOL     OW60637   3.907   9.335   8.917
19602SOL    HW160638   3.980   9.291   8.961
19602SOL    HW260639   3.948   9.408   8.869
19603SOL     OW60640   6.141   3.658   7.666
19603SOL    HW160641   6.156   3.589   7.729
19603SOL    HW260642   6.046   3.658   7.652
19604SOL     OW60643   1.351  12.882   4.745
19604SOL    HW160644   1.371  12.976   4.749
19604SOL    HW260645   1.337  12.865   4.652
19605SOL     OW60646   0.302  14.223   6.766
19605SOL    HW160647   0.283  14.289   6.832
19605SOL    HW260648   0.397  14.215   6.765
19606SOL     OW60649   9.477   9.252  13.634
19606SOL    HW160650   9.395   9.287  13.600
19606SOL    HW260651   9.539   9.260  13.561
19607SOL     OW60652   0.349   2.582   2.528
19607SOL    HW160653   0.443   2.586   2.511
19607SOL    HW260654   0.340   2.605   2.620
19608SOL     OW60655   3.771   2.712   5.810
19608SOL    HW160656   3.708   2.642   5.828
19608SOL    HW260657   3.851   2.685   5.856
19609SOL     OW60658   6.471   3.016   7.547
19609SOL    HW160659   6.391   3.017   7.495
19609SOL    HW260660   6.446   2.975   7.630
19610SOL     OW60661  13.943   0.884   6.572
19610SOL    HW160662  13.962   0.963   6.522
19610SOL    HW260663  13.944   0.912   6.663
19611SOL     OW60664  14.061  12.790   5.966
19611SOL    HW160665  14.105  12.751   6.042
19611SOL    HW260666  14.121  12.776   5.893
19612SOL     OW60667  12.448   5.766   8.806
19612SOL    HW160668  12.413   5.855   8.813
19612SOL    HW260669  12.540   5.779   8.785
19613SOL     OW60670   4.130  13.469   9.051
19613SOL    HW160671   4.112  13.386   9.096
19613SOL    HW260672   4.053  13.484   8.997
19614SOL     OW60673   3.871   6.964  13.144
19614SOL    HW160674   3.942   6.957  13.080
19614SOL    HW260675   3.916   6.970  13.228
19615SOL     OW60676   6.599   4.689  10.172
19615SOL    HW160677   6.548   4.759  10.133
19615SOL    HW260678   6.674   4.732  10.211
19616SOL     OW60679  14.745   1.570   1.827
19616SOL    HW160680  14.836   1.588   1.802
19616SOL    HW260681  14.738   1.474   1.827
19617SOL     OW60682   5.068   1.150   7.584
19617SOL    HW160683   5.157   1.136   7.551
19617SOL    HW260684   5.022   1.190   7.510
19618SOL     OW60685   8.139   1.491   8.263
19618SOL    HW160686   8.104   1.523   8.346
19618SOL    HW260687   8.219   1.541   8.250
19619SOL     OW60688   7.084   6.184   6.176
19619SOL    HW160689   7.085   6.094   6.142
19619SOL    HW260690   7.039   6.234   6.109
19620SOL     OW60691   7.483  12.380   9.626
19620SOL    HW160692   7.444  12.466   9.611
19620SOL    HW260693   7.408  12.320   9.632
19621SOL     OW60694   0.981   9.164  12.098
19621SOL    HW160695   0.947   9.252  12.114
19621SOL    HW260696   0.916   9.123  12.042
19622SOL     OW60697  12.305   7.083  13.692
19622SOL    HW160698  12.210   7.093  13.689
19622SOL    HW260699  12.334   7.137  13.766
19623SOL     OW60700   8.099   1.245  10.220
19623SOL    HW160701   8.131   1.322  10.266
19623SOL    HW260702   8.004   1.257  10.218
19624SOL     OW60703   6.158   9.421   9.363
19624SOL    HW160704   6.097   9.477   9.411
19624SOL    HW260705   6.170   9.345   9.420
19625SOL     OW60706   9.960   2.365  11.591
19625SOL    HW160707   9.902   2.362  11.515
19625SOL    HW260708  10.006   2.448  11.584
19626SOL     OW60709  11.184   2.987   7.213
19626SOL    HW160710  11.223   3.026   7.291
19626SOL    HW260711  11.222   3.036   7.140
19627SOL     OW60712   4.980   7.778   5.881
19627SOL    HW160713   4.995   7.704   5.822
19627SOL    HW260714   4.994   7.855   5.826
19628SOL     OW60715  12.497   9.261  10.683
19628SOL    HW160716  12.440   9.275  10.607
19628SOL    HW260717  12.576   9.311  10.662
19629SOL     OW60718  11.548   1.169  12.027
19629SOL    HW160719  11.637   1.200  12.045
19629SOL    HW260720  11.535   1.098  12.090
19630SOL     OW60721   3.179  10.901  11.604
19630SOL    HW160722   3.137  10.824  11.642
19630SOL    HW260723   3.273  10.889  11.623
19631SOL     OW60724   1.614   8.000  10.828
19631SOL    HW160725   1.559   7.922  10.824
19631SOL    HW260726   1.654   8.005  10.741
19632SOL     OW60727   8.184  13.455   0.473
19632SOL    HW160728   8.130  13.390   0.429
19632SOL    HW260729   8.123  13.502   0.530
19633SOL     OW60730   7.546   6.489  12.113
19633SOL    HW160731   7.629   6.536  12.105
19633SOL    HW260732   7.523   6.465  12.024
19634SOL     OW60733  11.310   9.593   4.063
19634SOL    HW160734  11.329   9.610   3.971
19634SOL    HW260735  11.316   9.497   4.072
19635SOL     OW60736   7.215   0.245   1.281
19635SOL    HW160737   7.236   0.246   1.188
19635SOL    HW260738   7.258   0.323   1.317
19636SOL     OW60739   4.694  13.576   2.024
19636SOL    HW160740   4.722  13.666   2.040
19636SOL    HW260741   4.713  13.561   1.931
19637SOL     OW60742  13.674   9.886   0.783
19637SOL    HW160743  13.626   9.812   0.746
19637SOL    HW260744  13.609   9.956   0.792
19638SOL     OW60745  13.725   7.615  13.492
19638SOL    HW160746  13.645   7.602  13.441
19638SOL    HW260747  13.789   7.556  13.452
19639SOL     OW60748   5.841   8.204   7.012
19639SOL    HW160749   5.777   8.133   7.021
19639SOL    HW260750   5.925   8.159   7.006
19640SOL     OW60751   7.689   0.175  14.784
19640SOL    HW160752   7.633   0.124  14.843
19640SOL    HW260753   7.772   0.127  14.783
19641SOL     OW60754   0.159  13.212   9.791
19641SOL    HW160755   0.246  13.231   9.826
19641SOL    HW260756   0.147  13.276   9.721
19642SOL     OW60757  14.668   3.509  12.676
19642SOL    HW160758  14.631   3.517  12.764
19642SOL    HW260759  14.759   3.483  12.690
19643SOL     OW60760   7.374   9.737   1.515
19643SOL    HW160761   7.443   9.757   1.451
19643SOL    HW260762   7.412   9.671   1.572
19644SOL     OW60763   8.737   1.906   8.740
19644SOL    HW160764   8.657   1.899   8.792
19644SOL    HW260765   8.716   1.970   8.672
19645SOL     OW60766  13.412   2.504   4.229
19645SOL    HW160767  13.394   2.413   4.207
19645SOL    HW260768  13.503   2.518   4.201
19646SOL     OW60769   5.092  12.111  14.438
19646SOL    HW160770   5.067  12.175  14.372
19646SOL    HW260771   5.011  12.093  14.486
19647SOL     OW60772   0.888   4.306  13.357
19647SOL    HW160773   0.927   4.384  13.317
19647SOL    HW260774   0.915   4.234  13.300
19648SOL     OW60775  14.317  11.996   4.427
19648SOL    HW160776  14.226  12.002   4.398
19648SOL    HW260777  14.366  11.981   4.346
19649SOL     OW60778   3.175  14.383   1.891
19649SOL    HW160779   3.167  14.479   1.898
19649SOL    HW260780   3.198  14.354   1.980
19650SOL     OW60781  13.853   8.644   3.450
19650SOL    HW160782  13.767   8.681   3.434
19650SOL    HW260783  13.911   8.720   3.454
19651SOL     OW60784  10.745   6.896   5.343
19651SOL    HW160785  10.821   6.937   5.302
19651SOL    HW260786  10.749   6.804   5.316
19652SOL     OW60787  12.835  11.532   2.274
19652SOL    HW160788  12.812  11.625   2.275
19652SOL    HW260789  12.903  11.525   2.207
19653SOL     OW60790   7.341  10.658   0.561
19653SOL    HW160791   7.287  10.737   0.555
19653SOL    HW260792   7.351  10.644   0.655
19654SOL     OW60793   9.755   2.332  13.131
19654SOL    HW160794   9.681   2.370  13.179
19654SOL    HW260795   9.832   2.362  13.179
19655SOL     OW60796   1.732   1.587   6.097
19655SOL    HW160797   1.719   1.679   6.074
19655SOL    HW260798   1.821   1.583   6.132
19656SOL     OW60799   7.644   2.569  11.600
19656SOL    HW160800   7.556   2.604  11.614
19656SOL    HW260801   7.635   2.475  11.615
19657SOL     OW60802   6.839  13.782  10.339
19657SOL    HW160803   6.759  13.761  10.291
19657SOL    HW260804   6.821  13.867  10.380
19658SOL     OW60805   0.711  14.298   0.381
19658SOL    HW160806   0.658  14.306   0.302
19658SOL    HW260807   0.801  14.302   0.350
19659SOL     OW60808   4.720   3.648  13.414
19659SOL    HW160809   4.754   3.666  13.327
19659SOL    HW260810   4.784   3.688  13.473
19660SOL     OW60811   5.097   5.164   9.351
19660SOL    HW160812   5.043   5.166   9.272
19660SOL    HW260813   5.100   5.255   9.380
19661SOL     OW60814   2.990   9.212   0.737
19661SOL    HW160815   3.071   9.221   0.688
19661SOL    HW260816   3.010   9.147   0.804
19662SOL     OW60817   3.079  12.587   3.060
19662SOL    HW160818   2.997  12.608   3.017
19662SOL    HW260819   3.118  12.518   3.007
19663SOL     OW60820   4.555   0.780   8.374
19663SOL    HW160821   4.517   0.775   8.287
19663SOL    HW260822   4.512   0.710   8.424
19664SOL     OW60823   7.113   6.827   7.453
19664SOL    HW160824   7.033   6.878   7.457
19664SOL    HW260825   7.144   6.836   7.363
19665SOL     OW60826  11.342   1.450  10.413
19665SOL    HW160827  11.324   1.516  10.480
19665SOL    HW260828  11.262   1.396  10.411
19666SOL     OW60829  10.570   5.579  14.698
19666SOL    HW160830  10.553   5.563  14.605
19666SOL    HW260831  10.622   5.659  14.700
19667SOL     OW60832   8.534  12.923  12.690
19667SOL    HW160833   8.622  12.934  12.653
19667SOL    HW260834   8.526  12.829  12.705
19668SOL     OW60835  10.328   3.546  12.589
19668SOL    HW160836  10.329   3.591  12.673
19668SOL    HW260837  10.310   3.455  12.611
19669SOL     OW60838   8.300   7.856   6.552
19669SOL    HW160839   8.329   7.801   6.479
19669SOL    HW260840   8.380   7.899   6.582
19670SOL     OW60841   3.154   3.082   4.707
19670SOL    HW160842   3.149   3.088   4.611
19670SOL    HW260843   3.117   3.164   4.739
19671SOL     OW60844  12.095  13.721   2.332
19671SOL    HW160845  12.173  13.775   2.344
19671SOL    HW260846  12.120  13.636   2.368
19672SOL     OW60847  11.540   6.856   9.140
19672SOL    HW160848  11.462   6.843   9.087
19672SOL    HW260849  11.609   6.809   9.093
19673SOL     OW60850   2.749  13.914   7.753
19673SOL    HW160851   2.776  13.943   7.840
19673SOL    HW260852   2.663  13.874   7.766
19674SOL     OW60853  10.864   4.484   4.959
19674SOL    HW160854  10.848   4.550   4.891
19674SOL    HW260855  10.934   4.429   4.923
19675SOL     OW60856   1.158   9.225  11.109
19675SOL    HW160857   1.188   9.152  11.162
19675SOL    HW260858   1.084   9.262  11.158
19676SOL     OW60859   6.172  11.744  13.800
19676SOL    HW160860   6.210  11.657  13.787
19676SOL    HW260861   6.241  11.794  13.843
19677SOL     OW60862  10.914   2.758   2.870
19677SOL    HW160863  10.821   2.743   2.886
19677SOL    HW260864  10.922   2.852   2.857
19678SOL     OW60865   7.613  14.559  14.064
19678SOL    HW160866   7.700  14.521  14.079
19678SOL    HW260867   7.555  14.484  14.056
19679SOL     OW60868   1.064  13.542   5.003
19679SOL    HW160869   0.970  13.533   4.990
19679SOL    HW260870   1.077  13.635   5.025
19680SOL     OW60871   5.447  10.495   9.448
19680SOL    HW160872   5.411  10.579   9.418
19680SOL    HW260873   5.405  10.481   9.533
19681SOL     OW60874   4.488  13.762   2.731
19681SOL    HW160875   4.533  13.741   2.649
19681SOL    HW260876   4.396  13.743   2.714
19682SOL     OW60877  11.202   8.863   9.133
19682SOL    HW160878  11.208   8.902   9.220
19682SOL    HW260879  11.163   8.932   9.078
19683SOL     OW60880  12.493   4.508   7.580
19683SOL    HW160881  12.578   4.552   7.585
19683SOL    HW260882  12.455   4.537   7.498
19684SOL     OW60883   6.604   1.987   8.571
19684SOL    HW160884   6.633   1.945   8.490
19684SOL    HW260885   6.671   2.052   8.589
19685SOL     OW60886   3.407  12.605  14.856
19685SOL    HW160887   3.386  12.698  14.866
19685SOL    HW260888   3.494  12.605  14.814
19686SOL     OW60889   0.926   1.964   5.645
19686SOL    HW160890   0.961   2.052   5.651
19686SOL    HW260891   0.942   1.937   5.554
19687SOL     OW60892  12.265   6.862   9.045
19687SOL    HW160893  12.220   6.902   9.120
19687SOL    HW260894  12.231   6.772   9.042
19688SOL     OW60895   4.887   1.748   9.442
19688SOL    HW160896   4.980   1.768   9.439
19688SOL    HW260897   4.850   1.795   9.367
19689SOL     OW60898   8.500  12.180  12.186
19689SOL    HW160899   8.440  12.150  12.255
19689SOL    HW260900   8.523  12.100  12.139
19690SOL     OW60901   2.991  14.469  13.243
19690SOL    HW160902   3.019  14.502  13.329
19690SOL    HW260903   2.919  14.526  13.218
19691SOL     OW60904  10.641  12.465   5.292
19691SOL    HW160905  10.623  12.452   5.386
19691SOL    HW260906  10.721  12.414   5.277
19692SOL     OW60907   0.359   4.106   8.270
19692SOL    HW160908   0.428   4.054   8.311
19692SOL    HW260909   0.399   4.138   8.189
19693SOL     OW60910   0.033   9.739  13.930
19693SOL    HW160911   0.041   9.776  13.842
19693SOL    HW260912   0.122   9.738  13.965
19694SOL     OW60913   2.433   9.658   6.044
19694SOL    HW160914   2.397   9.570   6.053
19694SOL    HW260915   2.458   9.665   5.952
19695SOL     OW60916   2.564   8.693   2.872
19695SOL    HW160917   2.474   8.724   2.884
19695SOL    HW260918   2.614   8.736   2.942
19696SOL     OW60919  12.922  14.397   2.349
19696SOL    HW160920  12.993  14.461   2.358
19696SOL    HW260921  12.849  14.435   2.398
19697SOL     OW60922   3.100   9.404  12.798
19697SOL    HW160923   3.007   9.384  12.783
19697SOL    HW260924   3.101   9.454  12.880
19698SOL     OW60925  10.752   3.204  10.244
19698SOL    HW160926  10.659   3.228  10.242
19698SOL    HW260927  10.752   3.109  10.251
19699SOL     OW60928  14.337  11.376   6.542
19699SOL    HW160929  14.289  11.458   6.533
19699SOL    HW260930  14.327  11.332   6.457
19700SOL     OW60931   9.224  10.558   5.905
19700SOL    HW160932   9.316  10.586   5.904
19700SOL    HW260933   9.177  10.631   5.865
19701SOL     OW60934  11.279   2.046  11.953
19701SOL    HW160935  11.329   1.970  11.924
19701SOL    HW260936  11.339   2.095  12.008
19702SOL     OW60937   0.894  13.696   9.147
19702SOL    HW160938   0.928  13.746   9.073
19702SOL    HW260939   0.817  13.651   9.112
19703SOL     OW60940   8.655   2.378   4.750
19703SOL    HW160941   8.596   2.313   4.711
19703SOL    HW260942   8.712   2.406   4.678
19704SOL     OW60943  12.313   0.714   2.199
19704SOL    HW160944  12.404   0.688   2.214
19704SOL    HW260945  12.261   0.639   2.229
19705SOL     OW60946   1.154  10.148  12.706
19705SOL    HW160947   1.174  10.217  12.768
19705SOL    HW260948   1.059  10.137  12.711
19706SOL     OW60949   3.982   2.630   0.234
19706SOL    HW160950   3.896   2.601   0.265
19706SOL    HW260951   3.970   2.644   0.140
19707SOL     OW60952   9.117   3.310   1.307
19707SOL    HW160953   9.126   3.354   1.222
19707SOL    HW260954   9.075   3.227   1.287
19708SOL     OW60955  11.153   8.540   9.893
19708SOL    HW160956  11.138   8.634   9.906
19708SOL    HW260957  11.242   8.535   9.858
19709SOL     OW60958   5.758  11.452   2.429
19709SOL    HW160959   5.690  11.478   2.368
19709SOL    HW260960   5.722  11.472   2.516
19710SOL     OW60961   0.853   4.336   9.882
19710SOL    HW160962   0.766   4.329   9.844
19710SOL    HW260963   0.912   4.320   9.809
19711SOL     OW60964   7.336   4.882   7.077
19711SOL    HW160965   7.373   4.883   6.988
19711SOL    HW260966   7.241   4.888   7.063
19712SOL     OW60967   6.312   8.286  12.573
19712SOL    HW160968   6.406   8.272  12.580
19712SOL    HW260969   6.301   8.337  12.492
19713SOL     OW60970  10.913   7.953   3.229
19713SOL    HW160971  10.941   7.863   3.209
19713SOL    HW260972  10.968   7.980   3.302
19714SOL     OW60973  13.901   0.580   9.262
19714SOL    HW160974  13.951   0.535   9.195
19714SOL    HW260975  13.840   0.514   9.295
19715SOL     OW60976   6.250   7.467   5.617
19715SOL    HW160977   6.187   7.500   5.681
19715SOL    HW260978   6.311   7.414   5.668
19716SOL     OW60979  12.431  11.022   1.701
19716SOL    HW160980  12.484  10.943   1.687
19716SOL    HW260981  12.354  10.991   1.749
19717SOL     OW60982   5.879   6.612   4.496
19717SOL    HW160983   5.973   6.600   4.485
19717SOL    HW260984   5.864   6.603   4.590
19718SOL     OW60985   0.909   6.203   1.311
19718SOL    HW160986   0.937   6.243   1.228
19718SOL    HW260987   0.836   6.257   1.340
19719SOL     OW60988   2.983   2.306   9.122
19719SOL    HW160989   2.985   2.372   9.191
19719SOL    HW260990   3.014   2.227   9.164
19720SOL     OW60991   9.684  10.772  10.191
19720SOL    HW160992   9.654  10.806  10.275
19720SOL    HW260993   9.656  10.680  10.192
19721SOL     OW60994   8.424   6.897   9.388
19721SOL    HW160995   8.511   6.875   9.422
19721SOL    HW260996   8.364   6.876   9.459
19722SOL     OW60997  14.294   2.930  13.003
19722SOL    HW160998  14.220   2.885  12.962
19722SOL    HW260999  14.257   3.009  13.042
19723SOL     OW61000  13.929   7.527   7.510
19723SOL    HW161001  13.864   7.459   7.495
19723SOL    HW261002  13.915   7.553   7.602
19724SOL     OW61003   8.427   5.088   8.815
19724SOL    HW161004   8.506   5.035   8.825
19724SOL    HW261005   8.380   5.047   8.742
19725SOL     OW61006  14.534  11.059   4.894
19725SOL    HW161007  14.527  10.989   4.959
19725SOL    HW261008  14.486  11.133   4.932
19726SOL     OW61009   8.493   6.883   7.487
19726SOL    HW161010   8.439   6.932   7.425
19726SOL    HW261011   8.431   6.833   7.540
19727SOL     OW61012   5.636   5.288   3.491
19727SOL    HW161013   5.638   5.193   3.479
19727SOL    HW261014   5.678   5.323   3.412
19728SOL     OW61015   6.683   3.232  13.293
19728SOL    HW161016   6.601   3.272  13.264
19728SOL    HW261017   6.657   3.146  13.325
19729SOL     OW61018   3.059   5.107   5.133
19729SOL    HW161019   3.004   5.106   5.211
19729SOL    HW261020   3.030   5.184   5.084
19730SOL     OW61021   4.244   6.469   6.287
19730SOL    HW161022   4.285   6.553   6.307
19730SOL    HW261023   4.318   6.408   6.276
19731SOL     OW61024  13.294   9.365   8.891
19731SOL    HW161025  13.274   9.356   8.984
19731SOL    HW261026  13.240   9.439   8.862
19732SOL     OW61027   8.075   1.049   9.582
19732SOL    HW161028   8.025   0.984   9.532
19732SOL    HW261029   8.156   1.061   9.532
19733SOL     OW61030  12.122   3.213   7.361
19733SOL    HW161031  12.166   3.136   7.326
19733SOL    HW261032  12.194   3.268   7.393
19734SOL     OW61033   0.544  14.268   4.227
19734SOL    HW161034   0.487  14.205   4.272
19734SOL    HW261035   0.491  14.299   4.153
19735SOL     OW61036   4.029   4.741   4.198
19735SOL    HW161037   4.040   4.647   4.211
19735SOL    HW261038   3.992   4.773   4.280
19736SOL     OW61039   4.761  10.543   0.918
19736SOL    HW161040   4.682  10.542   0.864
19736SOL    HW261041   4.790  10.635   0.915
19737SOL     OW61042   9.676   7.318   7.239
19737SOL    HW161043   9.665   7.286   7.149
19737SOL    HW261044   9.665   7.413   7.232
19738SOL     OW61045   0.580   3.114   6.332
19738SOL    HW161046   0.661   3.069   6.307
19738SOL    HW261047   0.510   3.055   6.304
19739SOL     OW61048   2.007   4.005   6.614
19739SOL    HW161049   1.947   4.034   6.683
19739SOL    HW261050   2.085   4.059   6.625
19740SOL     OW61051  10.986   9.762  11.653
19740SOL    HW161052  11.070   9.802  11.629
19740SOL    HW261053  10.930   9.836  11.675
19741SOL     OW61054   5.577  13.024   8.474
19741SOL    HW161055   5.540  12.962   8.410
19741SOL    HW261056   5.582  12.973   8.556
19742SOL     OW61057  11.438   5.821   1.711
19742SOL    HW161058  11.468   5.902   1.670
19742SOL    HW261059  11.346   5.838   1.733
19743SOL     OW61060  14.457   1.459  12.199
19743SOL    HW161061  14.528   1.519  12.176
19743SOL    HW261062  14.493   1.404  12.268
19744SOL     OW61063  11.229  13.878  10.025
19744SOL    HW161064  11.196  13.840   9.944
19744SOL    HW261065  11.320  13.902  10.005
19745SOL     OW61066   7.478   3.706   2.125
19745SOL    HW161067   7.501   3.637   2.063
19745SOL    HW261068   7.516   3.785   2.089
19746SOL     OW61069  13.074  10.522   4.802
19746SOL    HW161070  13.007  10.490   4.862
19746SOL    HW261071  13.045  10.492   4.716
19747SOL     OW61072   7.877   8.294   8.315
19747SOL    HW161073   7.879   8.375   8.263
19747SOL    HW261074   7.785   8.283   8.338
19748SOL     OW61075   7.801  11.033   9.611
19748SOL    HW161076   7.836  11.042   9.700
19748SOL    HW261077   7.746  11.110   9.599
19749SOL     OW61078   0.438  13.532  11.943
19749SOL    HW161079   0.358  13.515  11.992
19749SOL    HW261080   0.413  13.597  11.877
19750SOL     OW61081   7.543   2.710   8.041
19750SOL    HW161082   7.456   2.694   8.080
19750SOL    HW261083   7.524   2.733   7.950
19751SOL     OW61084  13.010  11.720   3.001
19751SOL    HW161085  13.007  11.645   3.060
19751SOL    HW261086  13.057  11.689   2.924
19752SOL     OW61087   2.632   2.111   2.804
19752SOL    HW161088   2.541   2.088   2.825
19752SOL    HW261089   2.625   2.166   2.726
19753SOL     OW61090   2.208  13.624   7.039
19753SOL    HW161091   2.274  13.556   7.054
19753SOL    HW261092   2.168  13.600   6.955
19754SOL     OW61093  14.278   6.932  13.254
19754SOL    HW161094  14.263   6.996  13.323
19754SOL    HW261095  14.332   6.977  13.189
19755SOL     OW61096  12.756  12.350  10.155
19755SOL    HW161097  12.743  12.320  10.245
19755SOL    HW261098  12.833  12.408  10.159
19756SOL     OW61099  11.527   2.444  10.770
19756SOL    HW161100  11.592   2.374  10.780
19756SOL    HW261101  11.576   2.515  10.728
19757SOL     OW61102   5.424  11.195   5.246
19757SOL    HW161103   5.467  11.223   5.165
19757SOL    HW261104   5.360  11.130   5.218
19758SOL     OW61105   9.006   2.573   9.743
19758SOL    HW161106   8.983   2.481   9.761
19758SOL    HW261107   9.025   2.610   9.829
19759SOL     OW61108   2.289   7.817  13.854
19759SOL    HW161109   2.313   7.781  13.939
19759SOL    HW261110   2.280   7.740  13.798
19760SOL     OW61111   5.741  10.693   9.661
19760SOL    HW161112   5.658  10.649   9.682
19760SOL    HW261113   5.809  10.631   9.688
19761SOL     OW61114   4.485   3.355   0.644
19761SOL    HW161115   4.580   3.352   0.632
19761SOL    HW261116   4.454   3.268   0.618
19762SOL     OW61117  10.153  11.756  11.203
19762SOL    HW161118  10.064  11.768  11.171
19762SOL    HW261119  10.166  11.661  11.201
19763SOL     OW61120  12.002   0.929   4.761
19763SOL    HW161121  11.975   0.968   4.844
19763SOL    HW261122  11.966   0.840   4.763
19764SOL     OW61123   2.643   3.838   9.051
19764SOL    HW161124   2.689   3.817   8.970
19764SOL    HW261125   2.621   3.930   9.044
19765SOL     OW61126   8.551   0.634   1.983
19765SOL    HW161127   8.633   0.612   1.938
19765SOL    HW261128   8.494   0.558   1.968
19766SOL     OW61129   3.271   2.732  13.575
19766SOL    HW161130   3.263   2.782  13.494
19766SOL    HW261131   3.201   2.765  13.631
19767SOL     OW61132  13.622  11.609  14.266
19767SOL    HW161133  13.575  11.571  14.341
19767SOL    HW261134  13.667  11.685  14.302
19768SOL     OW61135   6.260   0.537  12.574
19768SOL    HW161136   6.170   0.533  12.606
19768SOL    HW261137   6.292   0.622  12.605
19769SOL     OW61138   4.933   1.980  11.838
19769SOL    HW161139   4.923   1.967  11.744
19769SOL    HW261140   4.866   2.045  11.860
19770SOL     OW61141   3.709  11.595  13.083
19770SOL    HW161142   3.776  11.548  13.035
19770SOL    HW261143   3.733  11.585  13.175
19771SOL     OW61144   7.331  11.537   1.378
19771SOL    HW161145   7.389  11.495   1.315
19771SOL    HW261146   7.265  11.581   1.324
19772SOL     OW61147   1.196   1.981   6.054
19772SOL    HW161148   1.138   1.936   5.992
19772SOL    HW261149   1.275   1.927   6.057
19773SOL     OW61150   2.713   8.628   2.160
19773SOL    HW161151   2.710   8.534   2.176
19773SOL    HW261152   2.766   8.637   2.081
19774SOL     OW61153   5.005   6.953  11.053
19774SOL    HW161154   5.025   6.901  11.131
19774SOL    HW261155   4.969   6.889  10.991
19775SOL     OW61156   9.161  11.963   8.233
19775SOL    HW161157   9.226  11.935   8.170
19775SOL    HW261158   9.173  11.905   8.308
19776SOL     OW61159  14.551  12.064  11.990
19776SOL    HW161160  14.636  12.023  11.974
19776SOL    HW261161  14.533  12.045  12.082
19777SOL     OW61162  11.880   9.530  10.448
19777SOL    HW161163  11.821   9.467  10.406
19777SOL    HW261164  11.938   9.477  10.502
19778SOL     OW61165   9.617  11.018  11.218
19778SOL    HW161166   9.644  10.967  11.142
19778SOL    HW261167   9.660  10.976  11.292
19779SOL     OW61168  12.289   2.344   0.541
19779SOL    HW161169  12.336   2.305   0.615
19779SOL    HW261170  12.196   2.338   0.565
19780SOL     OW61171  14.632   3.946   0.416
19780SOL    HW161172  14.720   3.985   0.419
19780SOL    HW261173  14.647   3.856   0.386
19781SOL     OW61174   1.137   6.679   3.658
19781SOL    HW161175   1.131   6.710   3.748
19781SOL    HW261176   1.101   6.750   3.605
19782SOL     OW61177  11.222   6.788  12.070
19782SOL    HW161178  11.235   6.729  12.144
19782SOL    HW261179  11.129   6.781  12.050
19783SOL     OW61180  10.801  14.486  11.828
19783SOL    HW161181  10.708  14.461  11.829
19783SOL    HW261182  10.802  14.571  11.784
19784SOL     OW61183   4.764   0.996   8.894
19784SOL    HW161184   4.794   1.087   8.890
19784SOL    HW261185   4.672   1.000   8.870
19785SOL     OW61186   2.659   8.861  12.545
19785SOL    HW161187   2.600   8.936  12.548
19785SOL    HW261188   2.664   8.830  12.635
19786SOL     OW61189   7.278   2.102  12.110
19786SOL    HW161190   7.287   2.150  12.027
19786SOL    HW261191   7.366   2.106  12.148
19787SOL     OW61192   6.537  12.654   1.868
19787SOL    HW161193   6.631  12.670   1.879
19787SOL    HW261194   6.496  12.722   1.921
19788SOL     OW61195   4.917   2.706   4.690
19788SOL    HW161196   4.849   2.669   4.633
19788SOL    HW261197   4.893   2.676   4.778
19789SOL     OW61198   9.562  13.170   9.415
19789SOL    HW161199   9.642  13.217   9.437
19789SOL    HW261200   9.592  13.089   9.374
19790SOL     OW61201   9.948   4.333   1.026
19790SOL    HW161202  10.005   4.330   1.103
19790SOL    HW261203  10.005   4.306   0.953
19791SOL     OW61204   9.881   6.502   8.174
19791SOL    HW161205   9.875   6.595   8.197
19791SOL    HW261206   9.801   6.485   8.125
19792SOL     OW61207   6.415  14.071  14.803
19792SOL    HW161208   6.478  14.118  14.749
19792SOL    HW261209   6.361  14.023  14.741
19793SOL     OW61210   3.045  13.785   7.072
19793SOL    HW161211   3.128  13.819   7.105
19793SOL    HW261212   3.020  13.844   7.001
19794SOL     OW61213  10.663   6.767   2.223
19794SOL    HW161214  10.612   6.732   2.150
19794SOL    HW261215  10.736   6.705   2.232
19795SOL     OW61216   7.849   7.374   2.978
19795SOL    HW161217   7.819   7.283   2.984
19795SOL    HW261218   7.903   7.376   2.899
19796SOL     OW61219  10.576  12.300  10.588
19796SOL    HW161220  10.584  12.204  10.594
19796SOL    HW261221  10.600  12.331  10.676
19797SOL     OW61222  10.521   5.933  13.979
19797SOL    HW161223  10.590   5.983  13.935
19797SOL    HW261224  10.514   5.852  13.928
19798SOL     OW61225   8.911   3.115   5.287
19798SOL    HW161226   8.957   3.198   5.299
19798SOL    HW261227   8.832   3.123   5.339
19799SOL     OW61228   2.625   4.108   7.195
19799SOL    HW161229   2.713   4.145   7.183
19799SOL    HW261230   2.636   4.042   7.262
19800SOL     OW61231  10.368   7.638  12.114
19800SOL    HW161232  10.398   7.608  12.029
19800SOL    HW261233  10.426   7.711  12.136
19801SOL     OW61234   7.949   3.988  10.085
19801SOL    HW161235   7.976   3.897  10.104
19801SOL    HW261236   8.030   4.030  10.055
19802SOL     OW61237  12.611  13.706   8.800
19802SOL    HW161238  12.523  13.699   8.838
19802SOL    HW261239  12.654  13.775   8.851
19803SOL     OW61240   7.505  14.102  11.593
19803SOL    HW161241   7.532  14.039  11.527
19803SOL    HW261242   7.567  14.091  11.665
19804SOL     OW61243   8.671   1.519   0.045
19804SOL    HW161244   8.709   1.432   0.037
19804SOL    HW261245   8.584   1.511   0.006
19805SOL     OW61246   1.990  10.187  14.480
19805SOL    HW161247   2.013  10.095  14.494
19805SOL    HW261248   1.896  10.186  14.462
19806SOL     OW61249  13.144   1.355   7.070
19806SOL    HW161250  13.066   1.402   7.041
19806SOL    HW261251  13.115   1.309   7.149
19807SOL     OW61252   9.449   3.542   1.196
19807SOL    HW161253   9.529   3.538   1.249
19807SOL    HW261254   9.450   3.461   1.145
19808SOL     OW61255   2.002  10.872  14.303
19808SOL    HW161256   2.005  10.777  14.318
19808SOL    HW261257   2.092  10.901  14.317
19809SOL     OW61258  12.809   2.337   1.014
19809SOL    HW161259  12.886   2.314   0.962
19809SOL    HW261260  12.840   2.407   1.072
19810SOL     OW61261   1.967   6.095  14.567
19810SOL    HW161262   1.938   6.144  14.490
19810SOL    HW261263   1.999   6.012  14.532
19811SOL     OW61264   7.765  10.590   5.865
19811SOL    HW161265   7.852  10.578   5.904
19811SOL    HW261266   7.727  10.502   5.863
19812SOL     OW61267   9.074  12.330  12.098
19812SOL    HW161268   8.998  12.389  12.101
19812SOL    HW261269   9.145  12.381  12.138
19813SOL     OW61270   5.594   9.497   9.929
19813SOL    HW161271   5.646   9.508  10.008
19813SOL    HW261272   5.531   9.429   9.951
19814SOL     OW61273  12.331   2.908   0.800
19814SOL    HW161274  12.388   2.873   0.868
19814SOL    HW261275  12.286   2.832   0.764
19815SOL     OW61276   6.251  11.042  11.190
19815SOL    HW161277   6.291  10.958  11.214
19815SOL    HW261278   6.167  11.018  11.151
19816SOL     OW61279   2.910   3.507   1.384
19816SOL    HW161280   2.937   3.561   1.459
19816SOL    HW261281   2.993   3.481   1.343
19817SOL     OW61282   1.130   2.391   3.373
19817SOL    HW161283   1.091   2.348   3.296
19817SOL    HW261284   1.132   2.323   3.440
19818SOL     OW61285   5.622   3.833   7.481
19818SOL    HW161286   5.579   3.751   7.508
19818SOL    HW261287   5.585   3.900   7.538
19819SOL     OW61288   8.233   1.361   0.533
19819SOL    HW161289   8.191   1.330   0.452
19819SOL    HW261290   8.325   1.335   0.524
19820SOL     OW61291   8.350   3.307   1.163
19820SOL    HW161292   8.326   3.384   1.214
19820SOL    HW261293   8.277   3.247   1.174
19821SOL     OW61294   0.484  14.181  11.040
19821SOL    HW161295   0.569  14.224  11.029
19821SOL    HW261296   0.437  14.202  10.959
19822SOL     OW61297   9.952  11.211  10.835
19822SOL    HW161298   9.933  11.283  10.894
19822SOL    HW261299   9.953  11.133  10.891
19823SOL     OW61300   3.380  12.133   1.607
19823SOL    HW161301   3.364  12.121   1.514
19823SOL    HW261302   3.475  12.121   1.617
19824SOL     OW61303   0.841  14.064   3.343
19824SOL    HW161304   0.855  14.142   3.290
19824SOL    HW261305   0.853  14.093   3.433
19825SOL     OW61306  11.573  10.974   2.530
19825SOL    HW161307  11.668  10.976   2.530
19825SOL    HW261308  11.551  10.881   2.534
19826SOL     OW61309   9.591   2.672   1.202
19826SOL    HW161310   9.614   2.583   1.175
19826SOL    HW261311   9.643   2.729   1.145
19827SOL     OW61312   8.039   0.139   3.944
19827SOL    HW161313   8.093   0.215   3.922
19827SOL    HW261314   8.034   0.141   4.040
19828SOL     OW61315  11.197   3.948  14.595
19828SOL    HW161316  11.133   3.950  14.524
19828SOL    HW261317  11.275   3.990  14.558
19829SOL     OW61318   2.161   5.108   2.304
19829SOL    HW161319   2.229   5.168   2.275
19829SOL    HW261320   2.087   5.165   2.326
19830SOL     OW61321   9.937   8.793  13.221
19830SOL    HW161322   9.851   8.772  13.256
19830SOL    HW261323   9.987   8.712  13.228
19831SOL     OW61324   5.104  11.068  13.210
19831SOL    HW161325   5.044  11.139  13.185
19831SOL    HW261326   5.138  11.094  13.295
19832SOL     OW61327  10.910   3.847   7.314
19832SOL    HW161328  10.879   3.833   7.224
19832SOL    HW261329  10.988   3.792   7.321
19833SOL     OW61330   5.987  11.103   2.337
19833SOL    HW161331   6.045  11.176   2.316
19833SOL    HW261332   5.906  11.122   2.289
19834SOL     OW61333   8.595   4.061   0.076
19834SOL    HW161334   8.554   4.144   0.098
19834SOL    HW261335   8.687   4.071   0.103
19835SOL     OW61336  11.984   4.159   0.672
19835SOL    HW161337  12.004   4.215   0.747
19835SOL    HW261338  12.006   4.212   0.596
19836SOL     OW61339   8.963   1.399   0.589
19836SOL    HW161340   8.993   1.308   0.595
19836SOL    HW261341   8.969   1.432   0.678
19837SOL     OW61342   5.976   5.581   6.656
19837SOL    HW161343   6.051   5.615   6.705
19837SOL    HW261344   5.996   5.603   6.564
19838SOL     OW61345   2.421   9.698   0.830
19838SOL    HW161346   2.339   9.654   0.810
19838SOL    HW261347   2.444   9.744   0.749
19839SOL     OW61348   6.808  11.792   2.754
19839SOL    HW161349   6.902  11.785   2.741
19839SOL    HW261350   6.795  11.784   2.849
19840SOL     OW61351   1.052   0.819   0.650
19840SOL    HW161352   1.123   0.823   0.586
19840SOL    HW261353   1.068   0.737   0.698
19841SOL     OW61354  11.699  14.574   6.331
19841SOL    HW161355  11.689  14.669   6.326
19841SOL    HW261356  11.689  14.553   6.423
19842SOL     OW61357   9.354   1.495   4.960
19842SOL    HW161358   9.402   1.412   4.965
19842SOL    HW261359   9.273   1.474   4.914
19843SOL     OW61360   8.440   3.732   7.140
19843SOL    HW161361   8.490   3.779   7.207
19843SOL    HW261362   8.492   3.653   7.123
19844SOL     OW61363   3.080  11.675  13.290
19844SOL    HW161364   2.996  11.648  13.252
19844SOL    HW261365   3.074  11.770  13.295
19845SOL     OW61366   6.651   9.587   7.775
19845SOL    HW161367   6.705   9.510   7.759
19845SOL    HW261368   6.698   9.636   7.843
19846SOL     OW61369   3.112  14.144   2.208
19846SOL    HW161370   3.063  14.200   2.268
19846SOL    HW261371   3.059  14.143   2.128
19847SOL     OW61372  11.454   2.931   8.206
19847SOL    HW161373  11.435   3.012   8.253
19847SOL    HW261374  11.418   2.945   8.118
19848SOL     OW61375   3.108   7.599   0.728
19848SOL    HW161376   3.107   7.690   0.696
19848SOL    HW261377   3.200   7.582   0.747
19849SOL     OW61378   0.963  10.207   1.635
19849SOL    HW161379   0.944  10.232   1.725
19849SOL    HW261380   1.056  10.185   1.635
19850SOL     OW61381   5.953   1.044   3.945
19850SOL    HW161382   6.023   1.101   3.913
19850SOL    HW261383   5.984   1.014   4.030
19851SOL     OW61384  13.306  13.880  13.544
19851SOL    HW161385  13.382  13.845  13.496
19851SOL    HW261386  13.242  13.902  13.476
19852SOL     OW61387  12.792   8.029  12.021
19852SOL    HW161388  12.818   8.112  11.982
19852SOL    HW261389  12.774   8.049  12.113
19853SOL     OW61390   6.343   3.100  10.442
19853SOL    HW161391   6.260   3.143  10.462
19853SOL    HW261392   6.327   3.007  10.461
19854SOL     OW61393   4.618   6.158  12.712
19854SOL    HW161394   4.688   6.212  12.677
19854SOL    HW261395   4.652   6.069  12.709
19855SOL     OW61396   9.282   2.468   2.695
19855SOL    HW161397   9.209   2.461   2.633
19855SOL    HW261398   9.290   2.561   2.713
19856SOL     OW61399   6.193   1.818   5.238
19856SOL    HW161400   6.156   1.882   5.176
19856SOL    HW261401   6.168   1.733   5.202
19857SOL     OW61402  13.256   0.708   1.800
19857SOL    HW161403  13.180   0.745   1.846
19857SOL    HW261404  13.225   0.624   1.767
19858SOL     OW61405   0.900   0.375   2.409
19858SOL    HW161406   0.807   0.355   2.416
19858SOL    HW261407   0.941   0.290   2.395
19859SOL     OW61408   6.747   0.294   5.391
19859SOL    HW161409   6.674   0.355   5.387
19859SOL    HW261410   6.725   0.234   5.463
19860SOL     OW61411  10.613   0.548  14.484
19860SOL    HW161412  10.707   0.530  14.481
19860SOL    HW261413  10.599   0.612  14.414
19861SOL     OW61414  14.677  11.973  10.228
19861SOL    HW161415  14.650  12.015  10.146
19861SOL    HW261416  14.717  11.890  10.200
19862SOL     OW61417   6.282  13.200   6.341
19862SOL    HW161418   6.217  13.146   6.387
19862SOL    HW261419   6.231  13.252   6.279
19863SOL     OW61420   7.126  12.480   3.868
19863SOL    HW161421   7.072  12.535   3.924
19863SOL    HW261422   7.067  12.453   3.797
19864SOL     OW61423   6.551   2.057   8.239
19864SOL    HW161424   6.521   2.137   8.196
19864SOL    HW261425   6.477   2.029   8.293
19865SOL     OW61426   9.829   2.767   3.570
19865SOL    HW161427   9.807   2.690   3.518
19865SOL    HW261428   9.766   2.834   3.540
19866SOL     OW61429   4.082   1.409   2.664
19866SOL    HW161430   4.082   1.313   2.667
19866SOL    HW261431   4.146   1.435   2.732
19867SOL     OW61432   4.622   3.151   5.241
19867SOL    HW161433   4.601   3.234   5.284
19867SOL    HW261434   4.717   3.143   5.248
19868SOL     OW61435   9.168   3.645   2.524
19868SOL    HW161436   9.181   3.581   2.453
19868SOL    HW261437   9.097   3.700   2.494
19869SOL     OW61438  13.793   1.884  12.394
19869SOL    HW161439  13.795   1.889  12.489
19869SOL    HW261440  13.700   1.881  12.372
19870SOL     OW61441   7.594  11.371   8.590
19870SOL    HW161442   7.509  11.413   8.576
19870SOL    HW261443   7.656  11.427   8.543
19871SOL     OW61444  12.175   3.594  10.626
19871SOL    HW161445  12.173   3.618  10.719
19871SOL    HW261446  12.210   3.505  10.625
19872SOL     OW61447   1.325   2.520  12.617
19872SOL    HW161448   1.368   2.444  12.655
19872SOL    HW261449   1.286   2.565  12.691
19873SOL     OW61450   8.712   7.437   1.847
19873SOL    HW161451   8.674   7.444   1.935
19873SOL    HW261452   8.638   7.421   1.790
19874SOL     OW61453   6.226  10.674   7.824
19874SOL    HW161454   6.170  10.597   7.812
19874SOL    HW261455   6.240  10.679   7.918
19875SOL     OW61456  12.512   6.172  11.308
19875SOL    HW161457  12.503   6.078  11.296
19875SOL    HW261458  12.435   6.198  11.359
19876SOL     OW61459   8.861   6.635  12.862
19876SOL    HW161460   8.878   6.552  12.816
19876SOL    HW261461   8.855   6.700  12.793
19877SOL     OW61462   4.362  11.269   0.769
19877SOL    HW161463   4.451  11.291   0.799
19877SOL    HW261464   4.313  11.254   0.850
19878SOL     OW61465   3.782   3.113   7.639
19878SOL    HW161466   3.751   3.169   7.711
19878SOL    HW261467   3.877   3.120   7.644
19879SOL     OW61468   2.148  12.536   2.678
19879SOL    HW161469   2.067  12.525   2.629
19879SOL    HW261470   2.128  12.501   2.765
19880SOL     OW61471  13.219  11.280   4.595
19880SOL    HW161472  13.140  11.233   4.567
19880SOL    HW261473  13.282  11.210   4.615
19881SOL     OW61474   8.013   7.229   6.121
19881SOL    HW161475   7.994   7.159   6.059
19881SOL    HW261476   7.933   7.282   6.122
19882SOL     OW61477   3.638   2.460   2.856
19882SOL    HW161478   3.718   2.462   2.909
19882SOL    HW261479   3.613   2.368   2.853
19883SOL     OW61480   8.258   2.837   5.618
19883SOL    HW161481   8.310   2.843   5.698
19883SOL    HW261482   8.246   2.928   5.591
19884SOL     OW61483  14.446  14.586   4.945
19884SOL    HW161484  14.443  14.592   5.041
19884SOL    HW261485  14.401  14.505   4.925
19885SOL     OW61486   6.505  13.389   8.082
19885SOL    HW161487   6.413  13.403   8.059
19885SOL    HW261488   6.508  13.298   8.114
19886SOL     OW61489   2.600  14.742  10.121
19886SOL    HW161490   2.621  14.703  10.036
19886SOL    HW261491   2.511  14.710  10.140
19887SOL     OW61492  14.200  10.417   8.690
19887SOL    HW161493  14.147  10.387   8.763
19887SOL    HW261494  14.209  10.511   8.704
19888SOL     OW61495   9.267   6.514   3.258
19888SOL    HW161496   9.314   6.570   3.196
19888SOL    HW261497   9.236   6.574   3.326
19889SOL     OW61498  14.397   5.476   2.491
19889SOL    HW161499  14.327   5.439   2.436
19889SOL    HW261500  14.420   5.558   2.447
19890SOL     OW61501   6.184   6.170  11.245
19890SOL    HW161502   6.243   6.163  11.170
19890SOL    HW261503   6.180   6.263  11.265
19891SOL     OW61504   3.169  12.613  14.156
19891SOL    HW161505   3.173  12.630  14.062
19891SOL    HW261506   3.229  12.677  14.195
19892SOL     OW61507   5.971   4.293   3.245
19892SOL    HW161508   5.904   4.263   3.183
19892SOL    HW261509   5.922   4.324   3.321
19893SOL     OW61510   1.343   9.473  14.484
19893SOL    HW161511   1.373   9.486  14.574
19893SOL    HW261512   1.413   9.421  14.443
19894SOL     OW61513   6.837  12.758  12.843
19894SOL    HW161514   6.865  12.805  12.764
19894SOL    HW261515   6.745  12.736  12.827
19895SOL     OW61516   2.280   9.769   7.793
19895SOL    HW161517   2.261   9.808   7.879
19895SOL    HW261518   2.203   9.791   7.740
19896SOL     OW61519  14.111   8.023   8.236
19896SOL    HW161520  14.156   7.978   8.165
19896SOL    HW261521  14.120   7.964   8.312
19897SOL     OW61522   3.707   4.470   4.751
19897SOL    HW161523   3.613   4.485   4.762
19897SOL    HW261524   3.748   4.554   4.771
19898SOL     OW61525   1.421   0.725   8.759
19898SOL    HW161526   1.463   0.641   8.777
19898SOL    HW261527   1.352   0.732   8.825
19899SOL     OW61528   1.423  14.303   8.802
19899SOL    HW161529   1.403  14.266   8.889
19899SOL    HW261530   1.394  14.236   8.740
19900SOL     OW61531   3.004   8.238   0.328
19900SOL    HW161532   2.961   8.184   0.262
19900SOL    HW261533   3.094   8.205   0.331
19901SOL     OW61534   5.147   3.117  14.800
19901SOL    HW161535   5.101   3.035  14.788
19901SOL    HW261536   5.110   3.154   0.008
19902SOL     OW61537   5.357   7.711  10.774
19902SOL    HW161538   5.311   7.657  10.839
19902SOL    HW261539   5.433   7.658  10.751
19903SOL     OW61540  10.283   7.674   1.676
19903SOL    HW161541  10.297   7.768   1.678
19903SOL    HW261542  10.262   7.655   1.584
19904SOL     OW61543   6.918  13.847   4.274
19904SOL    HW161544   6.894  13.939   4.284
19904SOL    HW261545   6.917  13.833   4.179
19905SOL     OW61546   0.610   8.283   3.101
19905SOL    HW161547   0.699   8.246   3.102
19905SOL    HW261548   0.564   8.237   3.170
19906SOL     OW61549  14.410   3.169  12.226
19906SOL    HW161550  14.359   3.183  12.305
19906SOL    HW261551  14.500   3.158  12.256
19907SOL     OW61552   5.012  11.027   2.618
19907SOL    HW161553   5.015  11.003   2.525
19907SOL    HW261554   4.951  11.101   2.621
19908SOL     OW61555   1.003  14.581   0.198
19908SOL    HW161556   0.917  14.593   0.239
19908SOL    HW261557   1.040  14.669   0.193
19909SOL     OW61558  12.328   7.066   4.220
19909SOL    HW161559  12.245   7.113   4.225
19909SOL    HW261560  12.337   7.042   4.128
19910SOL     OW61561   7.969  13.640  11.504
19910SOL    HW161562   7.996  13.728  11.531
19910SOL    HW261563   8.036  13.582  11.540
19911SOL     OW61564   1.677   3.387   0.769
19911SOL    HW161565   1.630   3.401   0.687
19911SOL    HW261566   1.650   3.300   0.798
19912SOL     OW61567   8.857   7.557   4.810
19912SOL    HW161568   8.951   7.555   4.789
19912SOL    HW261569   8.829   7.645   4.786
19913SOL     OW61570   6.377   4.546  11.646
19913SOL    HW161571   6.385   4.641  11.654
19913SOL    HW261572   6.384   4.529  11.552
19914SOL     OW61573  11.953   3.611   8.771
19914SOL    HW161574  12.022   3.559   8.812
19914SOL    HW261575  11.956   3.587   8.678
19915SOL     OW61576  11.526   8.210  10.479
19915SOL    HW161577  11.433   8.232  10.474
19915SOL    HW261578  11.527   8.117  10.500
19916SOL     OW61579  13.172  12.986   3.486
19916SOL    HW161580  13.221  12.921   3.536
19916SOL    HW261581  13.222  13.067   3.497
19917SOL     OW61582  12.104   4.265  13.990
19917SOL    HW161583  12.156   4.205  14.044
19917SOL    HW261584  12.023   4.277  14.040
19918SOL     OW61585  14.662   7.257   2.486
19918SOL    HW161586  14.667   7.164   2.507
19918SOL    HW261587  14.568   7.277   2.488
19919SOL     OW61588   9.885   6.576   4.367
19919SOL    HW161589   9.818   6.593   4.301
19919SOL    HW261590   9.918   6.488   4.347
19920SOL     OW61591   4.917  10.589   9.383
19920SOL    HW161592   4.856  10.518   9.364
19920SOL    HW261593   4.892  10.619   9.470
19921SOL     OW61594  13.524  10.597   9.032
19921SOL    HW161595  13.551  10.665   8.970
19921SOL    HW261596  13.449  10.555   8.990
19922SOL     OW61597   0.513  10.946  11.508
19922SOL    HW161598   0.460  11.022  11.485
19922SOL    HW261599   0.593  10.955  11.455
19923SOL     OW61600   3.946   8.799   0.178
19923SOL    HW161601   4.019   8.737   0.187
19923SOL    HW261602   3.936   8.810   0.083
19924SOL     OW61603   7.489   4.856   2.607
19924SOL    HW161604   7.499   4.940   2.563
19924SOL    HW261605   7.426   4.808   2.553
19925SOL     OW61606  11.643   0.695   8.490
19925SOL    HW161607  11.581   0.644   8.542
19925SOL    HW261608  11.716   0.711   8.550
19926SOL     OW61609   8.880   3.828   6.713
19926SOL    HW161610   8.896   3.881   6.792
19926SOL    HW261611   8.957   3.772   6.705
19927SOL     OW61612  13.978  10.369   1.457
19927SOL    HW161613  13.883  10.379   1.469
19927SOL    HW261614  14.016  10.444   1.502
19928SOL     OW61615  12.099  14.522   6.769
19928SOL    HW161616  12.103  14.476   6.685
19928SOL    HW261617  12.135  14.461   6.833
19929SOL     OW61618   2.834   8.816   4.475
19929SOL    HW161619   2.868   8.889   4.527
19929SOL    HW261620   2.754   8.789   4.521
19930SOL     OW61621   3.634   3.336   4.640
19930SOL    HW161622   3.646   3.328   4.545
19930SOL    HW261623   3.611   3.247   4.668
19931SOL     OW61624  13.402  12.407  13.971
19931SOL    HW161625  13.307  12.413  13.965
19931SOL    HW261626  13.434  12.494  13.948
19932SOL     OW61627  13.306   9.678   5.520
19932SOL    HW161628  13.379   9.673   5.582
19932SOL    HW261629  13.340   9.734   5.449
19933SOL     OW61630   2.583   0.868   4.765
19933SOL    HW161631   2.610   0.893   4.677
19933SOL    HW261632   2.632   0.788   4.784
19934SOL     OW61633   9.819  13.226   1.262
19934SOL    HW161634   9.876  13.299   1.241
19934SOL    HW261635   9.869  13.148   1.239
19935SOL     OW61636   6.943   1.608   9.229
19935SOL    HW161637   7.003   1.544   9.268
19935SOL    HW261638   6.907   1.656   9.304
19936SOL     OW61639   5.394   3.953  13.819
19936SOL    HW161640   5.312   3.919  13.856
19936SOL    HW261641   5.397   3.917  13.730
19937SOL     OW61642  11.229   6.585   3.917
19937SOL    HW161643  11.199   6.498   3.891
19937SOL    HW261644  11.176   6.645   3.865
19938SOL     OW61645  12.632   3.077   5.782
19938SOL    HW161646  12.588   3.113   5.705
19938SOL    HW261647  12.677   3.152   5.821
19939SOL     OW61648   1.119   5.279   7.172
19939SOL    HW161649   1.042   5.332   7.192
19939SOL    HW261650   1.088   5.211   7.113
19940SOL     OW61651   1.803   3.633   7.346
19940SOL    HW161652   1.845   3.693   7.285
19940SOL    HW261653   1.785   3.555   7.295
19941SOL     OW61654  10.267   6.852   4.492
19941SOL    HW161655  10.335   6.824   4.431
19941SOL    HW261656  10.315   6.871   4.573
19942SOL     OW61657   9.882  10.077  13.142
19942SOL    HW161658   9.859   9.990  13.109
19942SOL    HW261659   9.969  10.094  13.104
19943SOL     OW61660   5.344   9.085   8.518
19943SOL    HW161661   5.388   9.124   8.593
19943SOL    HW261662   5.360   9.146   8.446
19944SOL     OW61663  13.281  12.484  13.690
19944SOL    HW161664  13.372  12.465  13.712
19944SOL    HW261665  13.286  12.549  13.620
19945SOL     OW61666   8.862   6.094  10.499
19945SOL    HW161667   8.831   6.017  10.547
19945SOL    HW261668   8.957   6.092  10.508
19946SOL     OW61669   9.017  10.521  13.524
19946SOL    HW161670   8.957  10.447  13.525
19946SOL    HW261671   8.967  10.593  13.562
19947SOL     OW61672  11.898   7.898   1.266
19947SOL    HW161673  11.864   7.987   1.269
19947SOL    HW261674  11.982   7.902   1.311
19948SOL     OW61675  12.483   4.558  12.677
19948SOL    HW161676  12.428   4.555  12.755
19948SOL    HW261677  12.441   4.500  12.615
19949SOL     OW61678   6.139   1.586  14.811
19949SOL    HW161679   6.063   1.640  14.792
19949SOL    HW261680   6.211   1.628  14.763
19950SOL     OW61681   1.465  11.195  11.584
19950SOL    HW161682   1.461  11.189  11.489
19950SOL    HW261683   1.374  11.180  11.613
19951SOL     OW61684   7.381   7.212  10.135
19951SOL    HW161685   7.400   7.285  10.195
19951SOL    HW261686   7.296   7.234  10.097
19952SOL     OW61687   3.717   2.002   2.945
19952SOL    HW161688   3.659   2.046   2.883
19952SOL    HW261689   3.804   2.038   2.925
19953SOL     OW61690   0.484  12.779  10.456
19953SOL    HW161691   0.496  12.873  10.446
19953SOL    HW261692   0.394  12.763  10.428
19954SOL     OW61693   7.749   3.424   7.401
19954SOL    HW161694   7.757   3.368   7.323
19954SOL    HW261695   7.776   3.511   7.371
19955SOL     OW61696  14.698   9.197   6.722
19955SOL    HW161697  14.633   9.213   6.654
19955SOL    HW261698  14.778   9.238   6.689
19956SOL     OW61699   8.890  11.893  14.250
19956SOL    HW161700   8.830  11.868  14.180
19956SOL    HW261701   8.977  11.886  14.211
19957SOL     OW61702   6.869  10.890   1.152
19957SOL    HW161703   6.894  10.970   1.198
19957SOL    HW261704   6.926  10.887   1.075
19958SOL     OW61705   0.627   6.777   4.420
19958SOL    HW161706   0.572   6.715   4.469
19958SOL    HW261707   0.604   6.762   4.328
19959SOL     OW61708   4.806   5.048   6.333
19959SOL    HW161709   4.772   4.998   6.259
19959SOL    HW261710   4.884   5.091   6.298
19960SOL     OW61711   0.927  12.667  11.833
19960SOL    HW161712   0.954  12.708  11.751
19960SOL    HW261713   0.831  12.665  11.828
19961SOL     OW61714   0.681   7.302  11.702
19961SOL    HW161715   0.687   7.325  11.610
19961SOL    HW261716   0.662   7.208  11.702
19962SOL     OW61717  13.015  13.636   3.770
19962SOL    HW161718  13.025  13.546   3.739
19962SOL    HW261719  13.069  13.689   3.712
19963SOL     OW61720   4.533   5.038   8.803
19963SOL    HW161721   4.528   5.110   8.866
19963SOL    HW261722   4.459   5.051   8.745
19964SOL     OW61723   3.396  14.382  10.945
19964SOL    HW161724   3.371  14.304  10.996
19964SOL    HW261725   3.484  14.403  10.975
19965SOL     OW61726   3.715  10.421   4.918
19965SOL    HW161727   3.716  10.515   4.938
19965SOL    HW261728   3.712  10.417   4.822
19966SOL     OW61729  13.105   4.874  13.130
19966SOL    HW161730  13.095   4.935  13.203
19966SOL    HW261731  13.033   4.812  13.140
19967SOL     OW61732  14.754  13.855  13.486
19967SOL    HW161733  14.680  13.794  13.485
19967SOL    HW261734  14.823  13.809  13.532
19968SOL     OW61735  14.532  11.517   4.734
19968SOL    HW161736  14.607  11.472   4.695
19968SOL    HW261737  14.571  11.593   4.779
19969SOL     OW61738  12.240   1.458   8.614
19969SOL    HW161739  12.180   1.533   8.616
19969SOL    HW261740  12.226   1.419   8.527
19970SOL     OW61741   4.053   5.681   1.641
19970SOL    HW161742   4.146   5.675   1.666
19970SOL    HW261743   4.050   5.754   1.579
19971SOL     OW61744   6.500  10.802   7.150
19971SOL    HW161745   6.408  10.821   7.135
19971SOL    HW261746   6.535  10.883   7.187
19972SOL     OW61747   3.889  11.010  10.895
19972SOL    HW161748   3.940  10.953  10.837
19972SOL    HW261749   3.800  11.004  10.862
19973SOL     OW61750   9.781   0.790   2.771
19973SOL    HW161751   9.831   0.835   2.839
19973SOL    HW261752   9.704   0.846   2.757
19974SOL     OW61753   0.427   9.792   3.970
19974SOL    HW161754   0.432   9.698   3.986
19974SOL    HW261755   0.397   9.799   3.879
19975SOL     OW61756   0.447  13.989   5.613
19975SOL    HW161757   0.458  13.913   5.670
19975SOL    HW261758   0.474  13.957   5.526
19976SOL     OW61759   0.242   3.760  14.259
19976SOL    HW161760   0.182   3.799  14.196
19976SOL    HW261761   0.186   3.703  14.312
19977SOL     OW61762   6.217   5.235  10.513
19977SOL    HW161763   6.213   5.208  10.605
19977SOL    HW261764   6.310   5.248  10.496
19978SOL     OW61765   2.204  10.815  10.720
19978SOL    HW161766   2.226  10.742  10.778
19978SOL    HW261767   2.262  10.805  10.645
19979SOL     OW61768   2.136   9.412   2.378
19979SOL    HW161769   2.219   9.440   2.341
19979SOL    HW261770   2.149   9.416   2.472
19980SOL     OW61771   9.726   3.768   5.229
19980SOL    HW161772   9.695   3.687   5.189
19980SOL    HW261773   9.651   3.828   5.223
19981SOL     OW61774   8.484   1.856  13.253
19981SOL    HW161775   8.462   1.780  13.200
19981SOL    HW261776   8.399   1.900  13.267
19982SOL     OW61777  14.122   8.166  12.129
19982SOL    HW161778  14.150   8.139  12.216
19982SOL    HW261779  14.163   8.103  12.069
19983SOL     OW61780   6.263  14.488   9.174
19983SOL    HW161781   6.208  14.499   9.251
19983SOL    HW261782   6.352  14.504   9.206
19984SOL     OW61783   5.324  11.773  11.632
19984SOL    HW161784   5.264  11.699  11.643
19984SOL    HW261785   5.410  11.733  11.620
19985SOL     OW61786  13.935   9.145  14.551
19985SOL    HW161787  13.948   9.170  14.460
19985SOL    HW261788  13.853   9.095  14.551
19986SOL     OW61789   2.163   5.467  12.907
19986SOL    HW161790   2.133   5.376  12.905
19986SOL    HW261791   2.119   5.505  12.983
19987SOL     OW61792   6.202  11.773   4.619
19987SOL    HW161793   6.106  11.779   4.618
19987SOL    HW261794   6.230  11.822   4.542
19988SOL     OW61795   7.058  11.975   5.807
19988SOL    HW161796   6.981  12.015   5.767
19988SOL    HW261797   7.079  12.031   5.882
19989SOL     OW61798   7.145   7.432   4.971
19989SOL    HW161799   7.072   7.436   4.908
19989SOL    HW261800   7.114   7.483   5.046
19990SOL     OW61801  14.019  10.688   8.986
19990SOL    HW161802  13.979  10.740   8.917
19990SOL    HW261803  13.947  10.636   9.021
19991SOL     OW61804   0.384   6.241  14.782
19991SOL    HW161805   0.332   6.316  14.752
19991SOL    HW261806   0.473   6.275  14.788
19992SOL     OW61807   8.032   5.104   8.735
19992SOL    HW161808   7.993   5.020   8.758
19992SOL    HW261809   8.075   5.089   8.651
19993SOL     OW61810  14.715  13.649   3.247
19993SOL    HW161811  14.794  13.596   3.252
19993SOL    HW261812  14.644  13.589   3.268
19994SOL     OW61813   5.411   4.927   8.085
19994SOL    HW161814   5.320   4.942   8.060
19994SOL    HW261815   5.406   4.875   8.165
19995SOL     OW61816   7.936  10.849   4.471
19995SOL    HW161817   7.955  10.939   4.496
19995SOL    HW261818   8.020  10.804   4.477
19996SOL     OW61819   8.345   7.394   9.554
19996SOL    HW161820   8.329   7.349   9.637
19996SOL    HW261821   8.418   7.345   9.515
19997SOL     OW61822  14.484  14.258  11.270
19997SOL    HW161823  14.498  14.310  11.348
19997SOL    HW261824  14.562  14.272  11.217
19998SOL     OW61825  11.493   7.039   3.103
19998SOL    HW161826  11.540   7.109   3.057
19998SOL    HW261827  11.532   7.039   3.191
19999SOL     OW61828   2.451   8.408   2.931
19999SOL    HW161829   2.490   8.488   2.896
19999SOL    HW261830   2.463   8.343   2.861
20000SOL     OW61831  13.831  12.170   7.590
20000SOL    HW161832  13.777  12.234   7.637
20000SOL    HW261833  13.921  12.190   7.616
20001SOL     OW61834   7.313   9.693   5.296
20001SOL    HW161835   7.304   9.603   5.326
20001SOL    HW261836   7.281   9.692   5.206
20002SOL     OW61837   2.893  12.448   5.179
20002SOL    HW161838   2.876  12.524   5.234
20002SOL    HW261839   2.884  12.373   5.237
20003SOL     OW61840   1.855  11.096   1.002
20003SOL    HW161841   1.871  11.168   0.942
20003SOL    HW261842   1.857  11.137   1.089
20004SOL     OW61843  11.528   7.331  13.439
20004SOL    HW161844  11.468   7.404  13.454
20004SOL    HW261845  11.542   7.330  13.344
20005SOL     OW61846  13.835   7.864   9.633
20005SOL    HW161847  13.829   7.788   9.690
20005SOL    HW261848  13.903   7.919   9.673
20006SOL     OW61849   2.721   7.872  13.598
20006SOL    HW161850   2.778   7.810  13.643
20006SOL    HW261851   2.649   7.819  13.565
20007SOL     OW61852  11.921  12.634  12.833
20007SOL    HW161853  11.892  12.601  12.918
20007SOL    HW261854  11.892  12.567  12.771
20008SOL     OW61855  14.093  12.612   3.899
20008SOL    HW161856  14.123  12.528   3.865
20008SOL    HW261857  14.173  12.663   3.911
20009SOL     OW61858   4.409   6.959   0.344
20009SOL    HW161859   4.403   6.928   0.253
20009SOL    HW261860   4.403   6.879   0.397
20010SOL     OW61861  14.644   0.413   9.461
20010SOL    HW161862  14.640   0.445   9.372
20010SOL    HW261863  14.733   0.432   9.490
20011SOL     OW61864   5.092  14.654   0.676
20011SOL    HW161865   5.150  14.689   0.607
20011SOL    HW261866   5.014  14.708   0.671
20012SOL     OW61867   8.993  10.782   8.726
20012SOL    HW161868   8.927  10.847   8.750
20012SOL    HW261869   9.005  10.728   8.804
20013SOL     OW61870   0.207   4.790  10.594
20013SOL    HW161871   0.183   4.836  10.674
20013SOL    HW261872   0.211   4.858  10.527
20014SOL     OW61873   8.467  14.786   8.801
20014SOL    HW161874   8.501  14.758   8.886
20014SOL    HW261875   8.534  14.758   8.738
20015SOL     OW61876   0.625  13.101  14.461
20015SOL    HW161877   0.700  13.158  14.480
20015SOL    HW261878   0.662  13.032  14.406
20016SOL     OW61879   7.857   8.850  14.778
20016SOL    HW161880   7.928   8.896  14.823
20016SOL    HW261881   7.787   8.847  14.843
20017SOL     OW61882   2.652   5.585   0.838
20017SOL    HW161883   2.698   5.502   0.825
20017SOL    HW261884   2.563   5.568   0.808
20018SOL     OW61885   2.153  12.294   4.572
20018SOL    HW161886   2.092  12.366   4.585
20018SOL    HW261887   2.100  12.215   4.579
20019SOL     OW61888  13.535   1.433  11.473
20019SOL    HW161889  13.470   1.401  11.409
20019SOL    HW261890  13.605   1.368  11.470
20020SOL     OW61891  10.534   4.244   5.480
20020SOL    HW161892  10.607   4.299   5.507
20020SOL    HW261893  10.501   4.206   5.562
20021SOL     OW61894  10.310  13.655  11.478
20021SOL    HW161895  10.399  13.690  11.478
20021SOL    HW261896  10.254  13.732  11.479
20022SOL     OW61897   8.307   4.703   1.489
20022SOL    HW161898   8.328   4.617   1.451
20022SOL    HW261899   8.256   4.683   1.567
20023SOL     OW61900   3.732   8.766  10.955
20023SOL    HW161901   3.734   8.710  11.032
20023SOL    HW261902   3.792   8.837  10.975
20024SOL     OW61903   9.087  13.725   2.052
20024SOL    HW161904   9.114  13.633   2.052
20024SOL    HW261905   9.119  13.760   2.134
20025SOL     OW61906   8.929   9.096   9.403
20025SOL    HW161907   8.926   9.028   9.469
20025SOL    HW261908   9.020   9.096   9.372
20026SOL     OW61909  12.672  10.191   7.152
20026SOL    HW161910  12.650  10.175   7.061
20026SOL    HW261911  12.598  10.157   7.202
20027SOL     OW61912  11.247   8.592   4.615
20027SOL    HW161913  11.318   8.645   4.578
20027SOL    HW261914  11.169   8.646   4.603
20028SOL     OW61915   5.596   2.790   6.906
20028SOL    HW161916   5.517   2.839   6.881
20028SOL    HW261917   5.615   2.820   6.995
20029SOL     OW61918  14.098   6.699   6.399
20029SOL    HW161919  14.128   6.693   6.490
20029SOL    HW261920  14.169   6.743   6.354
20030SOL     OW61921   2.775  14.559  11.917
20030SOL    HW161922   2.834  14.633  11.933
20030SOL    HW261923   2.696  14.598  11.880
20031SOL     OW61924  10.133  13.493   7.678
20031SOL    HW161925  10.138  13.475   7.772
20031SOL    HW261926  10.039  13.497   7.660
20032SOL     OW61927  13.502   0.796   5.176
20032SOL    HW161928  13.449   0.787   5.255
20032SOL    HW261929  13.576   0.851   5.203
20033SOL     OW61930   1.005   9.015   9.965
20033SOL    HW161931   1.097   8.991   9.962
20033SOL    HW261932   0.968   8.981   9.884
20034SOL     OW61933  12.694   4.958  14.189
20034SOL    HW161934  12.604   4.991  14.185
20034SOL    HW261935  12.706   4.931  14.280
20035SOL     OW61936  10.705   6.804  11.217
20035SOL    HW161937  10.658   6.798  11.134
20035SOL    HW261938  10.798   6.801  11.192
20036SOL     OW61939  11.748  14.267   7.048
20036SOL    HW161940  11.791  14.227   6.973
20036SOL    HW261941  11.683  14.202   7.077
20037SOL     OW61942  10.083   9.216   6.627
20037SOL    HW161943  10.173   9.185   6.631
20037SOL    HW261944  10.057   9.227   6.718
20038SOL     OW61945   1.362   4.208  10.807
20038SOL    HW161946   1.364   4.272  10.736
20038SOL    HW261947   1.339   4.125  10.764
20039SOL     OW61948   5.560   7.272   6.072
20039SOL    HW161949   5.504   7.299   5.999
20039SOL    HW261950   5.573   7.352   6.123
20040SOL     OW61951  11.154   5.849   2.834
20040SOL    HW161952  11.098   5.775   2.857
20040SOL    HW261953  11.197   5.822   2.753
20041SOL     OW61954  13.121   7.326   7.254
20041SOL    HW161955  13.144   7.238   7.285
20041SOL    HW261956  13.034   7.315   7.216
20042SOL     OW61957  10.931  14.165   5.802
20042SOL    HW161958  11.012  14.163   5.853
20042SOL    HW261959  10.950  14.112   5.724
20043SOL     OW61960   7.505   0.364   5.721
20043SOL    HW161961   7.472   0.397   5.638
20043SOL    HW261962   7.494   0.437   5.782
20044SOL     OW61963   3.761  12.896  10.973
20044SOL    HW161964   3.797  12.909  11.060
20044SOL    HW261965   3.769  12.982  10.931
20045SOL     OW61966   5.426  14.721   5.210
20045SOL    HW161967   5.473  14.799   5.239
20045SOL    HW261968   5.337  14.752   5.190
20046SOL     OW61969  11.896   6.620   5.987
20046SOL    HW161970  11.861   6.695   5.939
20046SOL    HW261971  11.823   6.589   6.039
20047SOL     OW61972  13.946   5.272   9.054
20047SOL    HW161973  13.888   5.199   9.034
20047SOL    HW261974  13.896   5.350   9.030
20048SOL     OW61975  12.987  13.931   4.694
20048SOL    HW161976  12.987  14.027   4.685
20048SOL    HW261977  13.076  13.905   4.672
20049SOL     OW61978   2.902  13.127   8.148
20049SOL    HW161979   2.986  13.092   8.177
20049SOL    HW261980   2.887  13.087   8.062
20050SOL     OW61981   2.057   8.688   8.326
20050SOL    HW161982   2.059   8.770   8.277
20050SOL    HW261983   1.972   8.688   8.370
20051SOL     OW61984  11.281   3.016   0.240
20051SOL    HW161985  11.284   2.932   0.287
20051SOL    HW261986  11.356   3.013   0.181
20052SOL     OW61987  11.667   9.024   7.150
20052SOL    HW161988  11.628   9.032   7.062
20052SOL    HW261989  11.752   9.067   7.142
20053SOL     OW61990  12.559   6.280   2.456
20053SOL    HW161991  12.608   6.356   2.488
20053SOL    HW261992  12.592   6.207   2.508
20054SOL     OW61993   5.633   8.614  11.721
20054SOL    HW161994   5.679   8.694  11.748
20054SOL    HW261995   5.697   8.544  11.734
20055SOL     OW61996   4.797  13.159   1.972
20055SOL    HW161997   4.705  13.137   1.957
20055SOL    HW261998   4.845  13.080   1.945
20056SOL     OW61999   0.040   0.159   5.406
20056SOL    HW162000   0.035   0.144   5.312
20056SOL    HW262001  14.825   0.138   5.439
20057SOL     OW62002   5.094   4.260   5.938
20057SOL    HW162003   5.038   4.183   5.945
20057SOL    HW262004   5.178   4.232   5.975
20058SOL     OW62005  12.584  13.801   5.102
20058SOL    HW162006  12.673  13.829   5.081
20058SOL    HW262007  12.539  13.797   5.017
20059SOL     OW62008   1.919  11.179   9.461
20059SOL    HW162009   1.953  11.101   9.417
20059SOL    HW262010   1.933  11.250   9.399
20060SOL     OW62011  10.158  11.938   3.519
20060SOL    HW162012  10.065  11.962   3.520
20060SOL    HW262013  10.165  11.872   3.451
20061SOL     OW62014   7.836  12.382   8.244
20061SOL    HW162015   7.862  12.447   8.310
20061SOL    HW262016   7.917  12.336   8.224
20062SOL     OW62017   5.184  14.512  14.116
20062SOL    HW162018   5.181  14.571  14.040
20062SOL    HW262019   5.238  14.558  14.180
20063SOL     OW62020   4.681   1.949   1.653
20063SOL    HW162021   4.690   2.019   1.588
20063SOL    HW262022   4.723   1.873   1.613
20064SOL     OW62023   9.419  11.192  14.350
20064SOL    HW162024   9.447  11.146  14.271
20064SOL    HW262025   9.447  11.135  14.422
20065SOL     OW62026   0.129  14.456  11.538
20065SOL    HW162027   0.089  14.401  11.471
20065SOL    HW262028   0.168  14.394  11.600
20066SOL     OW62029   7.547  12.826  11.521
20066SOL    HW162030   7.502  12.743  11.502
20066SOL    HW262031   7.559  12.866  11.435
20067SOL     OW62032  11.607   5.317   3.102
20067SOL    HW162033  11.560   5.346   3.180
20067SOL    HW262034  11.694   5.293   3.134
20068SOL     OW62035   3.051  14.217   3.624
20068SOL    HW162036   3.022  14.305   3.651
20068SOL    HW262037   3.089  14.179   3.703
20069SOL     OW62038   5.921   8.645  14.679
20069SOL    HW162039   5.916   8.712  14.611
20069SOL    HW262040   5.955   8.568  14.634
20070SOL     OW62041   7.585  13.785  12.635
20070SOL    HW162042   7.592  13.878  12.617
20070SOL    HW262043   7.641  13.743  12.570
20071SOL     OW62044   3.467  10.193   6.513
20071SOL    HW162045   3.474  10.288   6.501
20071SOL    HW262046   3.377  10.179   6.542
20072SOL     OW62047   2.948   7.139  12.281
20072SOL    HW162048   2.919   7.061  12.328
20072SOL    HW262049   2.954   7.207  12.347
20073SOL     OW62050  13.712   4.939   7.638
20073SOL    HW162051  13.733   4.847   7.622
20073SOL    HW262052  13.673   4.940   7.725
20074SOL     OW62053   8.047   6.028   7.574
20074SOL    HW162054   8.054   6.120   7.599
20074SOL    HW262055   8.130   6.008   7.531
20075SOL     OW62056  14.304   4.003   6.323
20075SOL    HW162057  14.315   4.094   6.349
20075SOL    HW262058  14.238   3.969   6.383
20076SOL     OW62059  12.355   4.236   8.575
20076SOL    HW162060  12.308   4.236   8.492
20076SOL    HW262061  12.374   4.329   8.592
20077SOL     OW62062  12.438  10.808   7.408
20077SOL    HW162063  12.465  10.881   7.352
20077SOL    HW262064  12.457  10.837   7.497
20078SOL     OW62065   2.582  11.336   2.747
20078SOL    HW162066   2.640  11.273   2.704
20078SOL    HW262067   2.634  11.374   2.817
20079SOL     OW62068   1.127   6.439   5.931
20079SOL    HW162069   1.203   6.427   5.988
20079SOL    HW262070   1.159   6.418   5.843
20080SOL     OW62071   3.795   7.694   0.908
20080SOL    HW162072   3.886   7.712   0.885
20080SOL    HW262073   3.744   7.755   0.854
20081SOL     OW62074   2.142   0.021   1.214
20081SOL    HW162075   2.082  14.826   1.181
20081SOL    HW262076   2.086   0.081   1.264
20082SOL     OW62077   8.507   0.650  10.040
20082SOL    HW162078   8.534   0.558  10.033
20082SOL    HW262079   8.427   0.655   9.987
20083SOL     OW62080   8.620  12.957  10.795
20083SOL    HW162081   8.554  12.903  10.839
20083SOL    HW262082   8.598  13.047  10.820
20084SOL     OW62083   2.682   3.105  11.777
20084SOL    HW162084   2.616   3.044  11.742
20084SOL    HW262085   2.671   3.185  11.725
20085SOL     OW62086   8.195   4.815  12.075
20085SOL    HW162087   8.153   4.806  11.990
20085SOL    HW262088   8.131   4.781  12.137
20086SOL     OW62089   6.670   4.577  14.806
20086SOL    HW162090   6.615   4.641  14.761
20086SOL    HW262091   6.685   4.614   0.020
20087SOL     OW62092  12.612   8.740   5.305
20087SOL    HW162093  12.619   8.711   5.396
20087SOL    HW262094  12.702   8.755   5.277
20088SOL     OW62095   3.838   0.042  14.381
20088SOL    HW162096   3.850   0.037  14.476
20088SOL    HW262097   3.745   0.057  14.369
20089SOL     OW62098   4.675   6.652   3.524
20089SOL    HW162099   4.694   6.731   3.575
20089SOL    HW262100   4.717   6.668   3.439
20090SOL     OW62101   2.795  11.613   0.358
20090SOL    HW162102   2.713  11.661   0.348
20090SOL    HW262103   2.851  11.648   0.288
20091SOL     OW62104   1.967  10.396   7.112
20091SOL    HW162105   1.952  10.477   7.161
20091SOL    HW262106   2.004  10.335   7.175
20092SOL     OW62107   1.679  10.762  10.110
20092SOL    HW162108   1.693  10.729  10.021
20092SOL    HW262109   1.735  10.839  10.116
20093SOL     OW62110  14.212   8.922   7.874
20093SOL    HW162111  14.201   9.013   7.902
20093SOL    HW262112  14.141   8.875   7.917
20094SOL     OW62113  13.277   5.133   3.205
20094SOL    HW162114  13.304   5.078   3.279
20094SOL    HW262115  13.359   5.166   3.168
20095SOL     OW62116  12.112  14.140   2.113
20095SOL    HW162117  12.124  14.054   2.072
20095SOL    HW262118  12.101  14.120   2.206
20096SOL     OW62119  11.240   0.188   8.929
20096SOL    HW162120  11.306   0.183   8.860
20096SOL    HW262121  11.264   0.265   8.980
20097SOL     OW62122   8.883   1.552   9.604
20097SOL    HW162123   8.938   1.581   9.676
20097SOL    HW262124   8.936   1.565   9.526
20098SOL     OW62125   2.258   4.952   9.492
20098SOL    HW162126   2.168   4.948   9.524
20098SOL    HW262127   2.311   4.967   9.571
20099SOL     OW62128   5.632  10.688   4.365
20099SOL    HW162129   5.712  10.679   4.314
20099SOL    HW262130   5.568  10.725   4.304
20100SOL     OW62131   0.051  11.742   5.004
20100SOL    HW162132   0.145  11.738   5.020
20100SOL    HW262133   0.029  11.835   5.006
20101SOL     OW62134   4.365   8.911  14.578
20101SOL    HW162135   4.362   8.993  14.627
20101SOL    HW262136   4.377   8.937  14.487
20102SOL     OW62137   4.525  13.645  13.373
20102SOL    HW162138   4.515  13.739  13.366
20102SOL    HW262139   4.620  13.632  13.383
20103SOL     OW62140   5.658   4.547   4.851
20103SOL    HW162141   5.595   4.531   4.922
20103SOL    HW262142   5.624   4.498   4.777
20104SOL     OW62143   1.151   0.158   9.460
20104SOL    HW162144   1.176   0.067   9.480
20104SOL    HW262145   1.081   0.177   9.522
20105SOL     OW62146   6.801   7.051  14.039
20105SOL    HW162147   6.739   7.008  13.979
20105SOL    HW262148   6.745   7.093  14.104
20106SOL     OW62149  14.456  11.602   1.255
20106SOL    HW162150  14.537  11.623   1.302
20106SOL    HW262151  14.422  11.525   1.299
20107SOL     OW62152  12.761   2.643   7.486
20107SOL    HW162153  12.685   2.685   7.525
20107SOL    HW262154  12.827   2.712   7.482
20108SOL     OW62155   4.707   8.399  13.297
20108SOL    HW162156   4.662   8.317  13.317
20108SOL    HW262157   4.764   8.378  13.223
20109SOL     OW62158   5.590   6.347   8.930
20109SOL    HW162159   5.666   6.405   8.924
20109SOL    HW262160   5.584   6.324   9.023
20110SOL     OW62161   7.269  10.114   4.678
20110SOL    HW162162   7.217  10.164   4.740
20110SOL    HW262163   7.243  10.147   4.592
20111SOL     OW62164   7.998  14.106   8.924
20111SOL    HW162165   7.986  14.011   8.922
20111SOL    HW262166   8.027  14.129   8.835
20112SOL     OW62167   1.262   3.876  14.296
20112SOL    HW162168   1.266   3.834  14.210
20112SOL    HW262169   1.175   3.916  14.299
20113SOL     OW62170  10.148   4.036   0.017
20113SOL    HW162171  10.066   4.084   0.026
20113SOL    HW262172  10.213   4.103  14.870
20114SOL     OW62173   8.542   5.056   2.611
20114SOL    HW162174   8.557   5.092   2.699
20114SOL    HW262175   8.629   5.047   2.573
20115SOL     OW62176   8.667   8.159   6.394
20115SOL    HW162177   8.686   8.065   6.397
20115SOL    HW262178   8.620   8.172   6.312
20116SOL     OW62179   0.052  10.849  10.759
20116SOL    HW162180   0.052  10.854  10.664
20116SOL    HW262181   0.029  10.938  10.788
20117SOL     OW62182   2.407  10.154   0.154
20117SOL    HW162183   2.458  10.112   0.223
20117SOL    HW262184   2.405  10.246   0.178
20118SOL     OW62185   7.797   6.433   3.608
20118SOL    HW162186   7.778   6.343   3.634
20118SOL    HW262187   7.891   6.442   3.619
20119SOL     OW62188   0.416   3.802  13.889
20119SOL    HW162189   0.337   3.855  13.902
20119SOL    HW262190   0.483   3.844  13.943
20120SOL     OW62191   3.818   1.007   3.021
20120SOL    HW162192   3.850   0.945   3.087
20120SOL    HW262193   3.844   0.968   2.938
20121SOL     OW62194  11.338   5.020   2.253
20121SOL    HW162195  11.427   5.056   2.251
20121SOL    HW262196  11.319   4.998   2.162
20122SOL     OW62197   2.599   2.486   6.366
20122SOL    HW162198   2.684   2.490   6.409
20122SOL    HW262199   2.588   2.571   6.325
20123SOL     OW62200  14.551   4.807  12.413
20123SOL    HW162201  14.566   4.743  12.344
20123SOL    HW262202  14.519   4.885  12.367
20124SOL     OW62203   1.718  12.331   0.861
20124SOL    HW162204   1.779  12.276   0.912
20124SOL    HW262205   1.725  12.297   0.772
20125SOL     OW62206   1.944   3.523   1.025
20125SOL    HW162207   1.865   3.574   1.005
20125SOL    HW262208   1.969   3.483   0.942
20126SOL     OW62209  14.565   9.707   5.553
20126SOL    HW162210  14.505   9.650   5.601
20126SOL    HW262211  14.553   9.684   5.461
20127SOL     OW62212   3.715   8.411   0.686
20127SOL    HW162213   3.672   8.359   0.618
20127SOL    HW262214   3.719   8.499   0.649
20128SOL     OW62215   1.036   2.316  10.540
20128SOL    HW162216   0.969   2.380  10.517
20128SOL    HW262217   1.007   2.235  10.497
20129SOL     OW62218  11.467   6.115   2.756
20129SOL    HW162219  11.439   6.024   2.739
20129SOL    HW262220  11.426   6.137   2.839
20130SOL     OW62221   8.549   4.143  14.232
20130SOL    HW162222   8.508   4.146  14.145
20130SOL    HW262223   8.525   4.057  14.267
20131SOL     OW62224   8.431  10.405   8.140
20131SOL    HW162225   8.467  10.489   8.111
20131SOL    HW262226   8.473  10.341   8.082
20132SOL     OW62227   8.311   1.631   8.889
20132SOL    HW162228   8.308   1.539   8.914
20132SOL    HW262229   8.292   1.678   8.971
20133SOL     OW62230  12.129   2.029   6.069
20133SOL    HW162231  12.060   1.964   6.054
20133SOL    HW262232  12.184   2.022   5.991
20134SOL     OW62233   5.314   2.928   8.364
20134SOL    HW162234   5.371   3.004   8.369
20134SOL    HW262235   5.225   2.964   8.374
20135SOL     OW62236   2.845   6.338   5.679
20135SOL    HW162237   2.883   6.250   5.674
20135SOL    HW262238   2.887   6.378   5.755
20136SOL     OW62239  10.431  13.791  14.554
20136SOL    HW162240  10.368  13.773  14.483
20136SOL    HW262241  10.503  13.837  14.510
20137SOL     OW62242  14.398   2.538   9.989
20137SOL    HW162243  14.411   2.547   9.894
20137SOL    HW262244  14.361   2.622  10.016
20138SOL     OW62245   3.432  13.769   6.255
20138SOL    HW162246   3.393  13.684   6.276
20138SOL    HW262247   3.475  13.755   6.170
20139SOL     OW62248   0.728  13.702   2.156
20139SOL    HW162249   0.815  13.670   2.182
20139SOL    HW262250   0.717  13.782   2.207
20140SOL     OW62251   5.624   7.540   0.295
20140SOL    HW162252   5.693   7.489   0.336
20140SOL    HW262253   5.670   7.603   0.240
20141SOL     OW62254   3.310   3.345   5.371
20141SOL    HW162255   3.305   3.341   5.467
20141SOL    HW262256   3.388   3.293   5.350
20142SOL     OW62257  14.386   3.853  13.372
20142SOL    HW162258  14.367   3.771  13.416
20142SOL    HW262259  14.394   3.830  13.279
20143SOL     OW62260  13.804  12.054   5.766
20143SOL    HW162261  13.710  12.064   5.749
20143SOL    HW262262  13.809  11.988   5.835
20144SOL     OW62263   3.757  11.976  11.964
20144SOL    HW162264   3.697  11.948  12.033
20144SOL    HW262265   3.826  12.024  12.011
20145SOL     OW62266   7.169  11.962   4.527
20145SOL    HW162267   7.255  11.973   4.569
20145SOL    HW262268   7.185  11.897   4.459
20146SOL     OW62269   9.511  10.778   0.109
20146SOL    HW162270   9.511  10.700   0.165
20146SOL    HW262271   9.547  10.847   0.165
20147SOL     OW62272   0.411   2.503   8.124
20147SOL    HW162273   0.487   2.500   8.066
20147SOL    HW262274   0.342   2.541   8.070
20148SOL     OW62275   4.106   6.548   1.286
20148SOL    HW162276   4.136   6.573   1.374
20148SOL    HW262277   4.155   6.468   1.266
20149SOL     OW62278   8.866   7.901  10.713
20149SOL    HW162279   8.829   7.821  10.676
20149SOL    HW262280   8.913   7.941  10.639
20150SOL     OW62281   6.070  10.170   3.027
20150SOL    HW162282   6.084  10.265   3.028
20150SOL    HW262283   5.986  10.158   2.984
20151SOL     OW62284   7.981  13.470   9.782
20151SOL    HW162285   8.072  13.493   9.800
20151SOL    HW262286   7.932  13.504   9.857
20152SOL     OW62287   9.543   7.058   5.919
20152SOL    HW162288   9.563   7.144   5.881
20152SOL    HW262289   9.628   7.019   5.937
20153SOL     OW62290  12.155  14.229   9.299
20153SOL    HW162291  12.184  14.186   9.380
20153SOL    HW262292  12.226  14.290   9.278
20154SOL     OW62293   8.214   3.795   5.593
20154SOL    HW162294   8.134   3.790   5.541
20154SOL    HW262295   8.186   3.827   5.679
20155SOL     OW62296   2.416  14.311   7.993
20155SOL    HW162297   2.449  14.387   7.945
20155SOL    HW262298   2.493  14.276   8.038
20156SOL     OW62299  11.950  10.908   3.714
20156SOL    HW162300  12.035  10.942   3.685
20156SOL    HW262301  11.963  10.813   3.720
20157SOL     OW62302  13.860   2.682   0.009
20157SOL    HW162303  13.817   2.598  14.861
20157SOL    HW262304  13.790   2.735   0.048
20158SOL     OW62305   0.778  10.502  11.909
20158SOL    HW162306   0.775  10.577  11.850
20158SOL    HW262307   0.803  10.429  11.853
20159SOL     OW62308   8.090   8.539   1.814
20159SOL    HW162309   8.122   8.628   1.830
20159SOL    HW262310   8.036   8.519   1.890
20160SOL     OW62311  11.027   3.709   9.843
20160SOL    HW162312  11.014   3.775   9.911
20160SOL    HW262313  11.116   3.723   9.813
20161SOL     OW62314  14.664   9.334   3.196
20161SOL    HW162315  14.706   9.248   3.199
20161SOL    HW262316  14.692   9.371   3.112
20162SOL     OW62317  10.024   8.824  12.651
20162SOL    HW162318  10.026   8.919  12.668
20162SOL    HW262319  10.095   8.789  12.706
20163SOL     OW62320   3.443   8.389  13.105
20163SOL    HW162321   3.522   8.368  13.054
20163SOL    HW262322   3.440   8.320  13.173
20164SOL     OW62323  14.063   8.508   5.573
20164SOL    HW162324  14.059   8.469   5.485
20164SOL    HW262325  14.136   8.463   5.616
20165SOL     OW62326   9.234   1.188   7.502
20165SOL    HW162327   9.311   1.219   7.455
20165SOL    HW262328   9.168   1.256   7.489
20166SOL     OW62329   8.315   5.386   2.742
20166SOL    HW162330   8.343   5.473   2.770
20166SOL    HW262331   8.300   5.394   2.648
20167SOL     OW62332   4.736   5.705   5.803
20167SOL    HW162333   4.831   5.699   5.813
20167SOL    HW262334   4.703   5.617   5.822
20168SOL     OW62335   9.495  10.601   5.827
20168SOL    HW162336   9.479  10.690   5.796
20168SOL    HW262337   9.591  10.594   5.831
20169SOL     OW62338   5.557   9.509   1.196
20169SOL    HW162339   5.537   9.503   1.290
20169SOL    HW262340   5.649   9.484   1.190
20170SOL     OW62341   6.988   9.943   1.684
20170SOL    HW162342   7.003   9.888   1.761
20170SOL    HW262343   7.072   9.943   1.637
20171SOL     OW62344   8.240   6.331   2.885
20171SOL    HW162345   8.276   6.242   2.875
20171SOL    HW262346   8.304   6.387   2.842
20172SOL     OW62347   9.704   0.274  11.912
20172SOL    HW162348   9.655   0.248  11.990
20172SOL    HW262349   9.768   0.338  11.945
20173SOL     OW62350  13.882  10.865  13.016
20173SOL    HW162351  13.946  10.935  13.033
20173SOL    HW262352  13.797  10.908  13.026
20174SOL     OW62353  13.938  12.607   8.355
20174SOL    HW162354  13.998  12.622   8.281
20174SOL    HW262355  13.867  12.669   8.340
20175SOL     OW62356   7.377   2.860  10.408
20175SOL    HW162357   7.426   2.929  10.362
20175SOL    HW262358   7.350   2.800  10.338
20176SOL     OW62359   3.464   7.966   1.375
20176SOL    HW162360   3.543   7.913   1.373
20176SOL    HW262361   3.483   8.042   1.319
20177SOL     OW62362  14.045   2.846  14.796
20177SOL    HW162363  13.986   2.920  14.780
20177SOL    HW262364  13.989   2.776  14.829
20178SOL     OW62365  10.405   1.283   7.549
20178SOL    HW162366  10.434   1.294   7.458
20178SOL    HW262367  10.431   1.365   7.592
20179SOL     OW62368   7.498  13.512   5.016
20179SOL    HW162369   7.440  13.438   4.996
20179SOL    HW262370   7.578  13.494   4.967
20180SOL     OW62371   9.804   0.174   6.932
20180SOL    HW162372   9.836   0.254   6.974
20180SOL    HW262373   9.792   0.113   7.004
20181SOL     OW62374   4.927   3.168   5.457
20181SOL    HW162375   4.935   3.073   5.443
20181SOL    HW262376   5.014   3.195   5.486
20182SOL     OW62377  12.569   0.137   8.112
20182SOL    HW162378  12.552   0.196   8.185
20182SOL    HW262379  12.489   0.138   8.060
20183SOL     OW62380   0.671   5.437   3.596
20183SOL    HW162381   0.689   5.409   3.506
20183SOL    HW262382   0.756   5.470   3.628
20184SOL     OW62383   0.952  12.855   7.202
20184SOL    HW162384   0.886  12.798   7.241
20184SOL    HW262385   0.910  12.887   7.122
20185SOL     OW62386  10.265   8.016   7.346
20185SOL    HW162387  10.313   7.938   7.375
20185SOL    HW262388  10.307   8.088   7.393
20186SOL     OW62389  14.498  10.658   3.338
20186SOL    HW162390  14.493  10.723   3.268
20186SOL    HW262391  14.501  10.710   3.419
20187SOL     OW62392  12.305   4.467   3.479
20187SOL    HW162393  12.263   4.550   3.459
20187SOL    HW262394  12.317   4.469   3.574
20188SOL     OW62395   6.902  13.957  14.154
20188SOL    HW162396   6.874  14.017  14.223
20188SOL    HW262397   6.834  13.964  14.087
20189SOL     OW62398   9.571   4.433  11.681
20189SOL    HW162399   9.555   4.510  11.626
20189SOL    HW262400   9.506   4.369  11.652
20190SOL     OW62401  12.385   7.140  13.108
20190SOL    HW162402  12.433   7.221  13.125
20190SOL    HW262403  12.335   7.125  13.188
20191SOL     OW62404   7.589   9.958  10.985
20191SOL    HW162405   7.509  10.009  10.974
20191SOL    HW262406   7.593   9.903  10.907
20192SOL     OW62407   0.905   4.977  11.661
20192SOL    HW162408   0.999   4.961  11.672
20192SOL    HW262409   0.887   4.955  11.570
20193SOL     OW62410   0.100  13.196   8.616
20193SOL    HW162411   0.168  13.143   8.656
20193SOL    HW262412   0.050  13.232   8.689
20194SOL     OW62413  11.593  12.044   0.966
20194SOL    HW162414  11.681  12.017   0.995
20194SOL    HW262415  11.578  12.128   1.009
20195SOL     OW62416   2.323   7.456   2.288
20195SOL    HW162417   2.326   7.425   2.379
20195SOL    HW262418   2.400   7.513   2.280
20196SOL     OW62419  14.495  14.035   0.467
20196SOL    HW162420  14.493  13.948   0.427
20196SOL    HW262421  14.413  14.041   0.516
20197SOL     OW62422  14.309   3.956   3.012
20197SOL    HW162423  14.232   3.994   3.053
20197SOL    HW262424  14.307   3.863   3.036
20198SOL     OW62425   9.030  12.027   7.081
20198SOL    HW162426   8.958  11.975   7.046
20198SOL    HW262427   9.103  11.965   7.089
20199SOL     OW62428  12.362  10.585   5.727
20199SOL    HW162429  12.332  10.519   5.788
20199SOL    HW262430  12.331  10.668   5.764
20200SOL     OW62431   4.118   1.806  14.641
20200SOL    HW162432   4.182   1.859  14.594
20200SOL    HW262433   4.055   1.780  14.573
20201SOL     OW62434  13.874  14.442   8.903
20201SOL    HW162435  13.781  14.443   8.877
20201SOL    HW262436  13.907  14.528   8.877
20202SOL     OW62437   6.589  11.738  13.322
20202SOL    HW162438   6.553  11.758  13.408
20202SOL    HW262439   6.537  11.792  13.262
20203SOL     OW62440   2.334   3.745  11.225
20203SOL    HW162441   2.387   3.725  11.302
20203SOL    HW262442   2.297   3.832  11.243
20204SOL     OW62443   9.502  13.955   4.346
20204SOL    HW162444   9.499  13.930   4.438
20204SOL    HW262445   9.516  13.873   4.299
20205SOL     OW62446   2.755   8.869   3.074
20205SOL    HW162447   2.848   8.869   3.051
20205SOL    HW262448   2.749   8.815   3.153
20206SOL     OW62449   0.779   3.717   6.359
20206SOL    HW162450   0.871   3.730   6.384
20206SOL    HW262451   0.775   3.746   6.267
20207SOL     OW62452   5.655   4.235  12.944
20207SOL    HW162453   5.697   4.295  13.005
20207SOL    HW262454   5.680   4.268  12.857
20208SOL     OW62455   3.719   5.911  11.887
20208SOL    HW162456   3.666   5.983  11.922
20208SOL    HW262457   3.655   5.848  11.854
20209SOL     OW62458   6.893  13.315   5.749
20209SOL    HW162459   6.868  13.339   5.660
20209SOL    HW262460   6.962  13.250   5.739
20210SOL     OW62461  11.574   1.454   4.074
20210SOL    HW162462  11.642   1.520   4.063
20210SOL    HW262463  11.585   1.422   4.163
20211SOL     OW62464  11.895  13.838  10.502
20211SOL    HW162465  11.810  13.864  10.466
20211SOL    HW262466  11.878  13.756  10.548
20212SOL     OW62467  11.874   1.259   1.502
20212SOL    HW162468  11.952   1.224   1.459
20212SOL    HW262469  11.837   1.320   1.437
20213SOL     OW62470   2.545  12.817  11.452
20213SOL    HW162471   2.614  12.866  11.496
20213SOL    HW262472   2.471  12.877  11.450
20214SOL     OW62473   1.865  13.924   1.632
20214SOL    HW162474   1.818  13.845   1.607
20214SOL    HW262475   1.801  13.995   1.621
20215SOL     OW62476  13.856   6.786   0.504
20215SOL    HW162477  13.885   6.749   0.421
20215SOL    HW262478  13.761   6.771   0.505
20216SOL     OW62479   9.988   0.722  12.100
20216SOL    HW162480  10.038   0.684  12.172
20216SOL    HW262481  10.053   0.743  12.033
20217SOL     OW62482   4.999   0.838  12.193
20217SOL    HW162483   5.086   0.815  12.226
20217SOL    HW262484   4.942   0.835  12.270
20218SOL     OW62485   1.193  11.449   8.692
20218SOL    HW162486   1.227  11.516   8.633
20218SOL    HW262487   1.271  11.408   8.729
20219SOL     OW62488  11.637   3.766   9.385
20219SOL    HW162489  11.544   3.776   9.364
20219SOL    HW262490  11.672   3.855   9.379
20220SOL     OW62491   7.099   9.294   5.855
20220SOL    HW162492   7.004   9.297   5.869
20220SOL    HW262493   7.115   9.356   5.784
20221SOL     OW62494  11.493  10.263  10.715
20221SOL    HW162495  11.498  10.242  10.808
20221SOL    HW262496  11.526  10.185  10.671
20222SOL     OW62497   3.833   2.807   0.723
20222SOL    HW162498   3.742   2.799   0.695
20222SOL    HW262499   3.852   2.900   0.717
20223SOL     OW62500   2.002  12.526   4.672
20223SOL    HW162501   1.931  12.540   4.609
20223SOL    HW262502   2.074  12.580   4.640
20224SOL     OW62503  12.237   8.457   8.188
20224SOL    HW162504  12.186   8.387   8.147
20224SOL    HW262505  12.304   8.412   8.239
20225SOL     OW62506   6.322  11.006  10.061
20225SOL    HW162507   6.233  11.033  10.039
20225SOL    HW262508   6.355  10.963   9.982
20226SOL     OW62509   5.981  11.132  12.856
20226SOL    HW162510   5.941  11.161  12.774
20226SOL    HW262511   6.073  11.118  12.834
20227SOL     OW62512   5.951   2.478  13.789
20227SOL    HW162513   5.957   2.501  13.696
20227SOL    HW262514   6.000   2.396  13.796
20228SOL     OW62515   5.439   1.467   1.671
20228SOL    HW162516   5.445   1.529   1.598
20228SOL    HW262517   5.351   1.481   1.707
20229SOL     OW62518   2.240   4.958  11.356
20229SOL    HW162519   2.211   4.980  11.445
20229SOL    HW262520   2.162   4.969  11.302
20230SOL     OW62521  14.076   5.827   4.229
20230SOL    HW162522  14.169   5.830   4.250
20230SOL    HW262523  14.059   5.735   4.209
20231SOL     OW62524   0.241  12.001   5.986
20231SOL    HW162525   0.325  12.047   5.988
20231SOL    HW262526   0.191  12.038   6.059
20232SOL     OW62527   7.036   7.641  12.279
20232SOL    HW162528   6.985   7.564  12.255
20232SOL    HW262529   7.126   7.610  12.285
20233SOL     OW62530   8.809  13.970   1.609
20233SOL    HW162531   8.866  13.971   1.686
20233SOL    HW262532   8.824  13.884   1.570
20234SOL     OW62533   0.415   7.109   7.630
20234SOL    HW162534   0.479   7.050   7.668
20234SOL    HW262535   0.403   7.077   7.540
20235SOL     OW62536  13.371   2.904  14.814
20235SOL    HW162537  13.360   2.991  14.774
20235SOL    HW262538  13.289   2.858  14.795
20236SOL     OW62539   3.938   6.640  12.743
20236SOL    HW162540   3.914   6.604  12.658
20236SOL    HW262541   3.869   6.704  12.762
20237SOL     OW62542   8.611   7.523   9.292
20237SOL    HW162543   8.624   7.589   9.224
20237SOL    HW262544   8.563   7.569   9.361
20238SOL     OW62545   2.016  12.015   3.239
20238SOL    HW162546   2.062  11.938   3.206
20238SOL    HW262547   1.999  11.994   3.331
20239SOL     OW62548  14.192  13.476   4.298
20239SOL    HW162549  14.099  13.471   4.319
20239SOL    HW262550  14.211  13.570   4.293
20240SOL     OW62551   6.650   7.580  11.793
20240SOL    HW162552   6.671   7.547  11.880
20240SOL    HW262553   6.616   7.504  11.746
20241SOL     OW62554  11.109   8.728   2.954
20241SOL    HW162555  11.165   8.652   2.941
20241SOL    HW262556  11.030   8.692   2.996
20242SOL     OW62557   9.293   3.499  13.341
20242SOL    HW162558   9.343   3.520  13.420
20242SOL    HW262559   9.352   3.523  13.269
20243SOL     OW62560  10.183  14.513   4.542
20243SOL    HW162561  10.275  14.532   4.521
20243SOL    HW262562  10.146  14.598   4.567
20244SOL     OW62563   3.633  11.521   0.815
20244SOL    HW162564   3.601  11.549   0.901
20244SOL    HW262565   3.554  11.507   0.763
20245SOL     OW62566   9.934   4.706   8.019
20245SOL    HW162567   9.956   4.645   8.090
20245SOL    HW262568  10.017   4.750   7.999
20246SOL     OW62569   9.101   2.569   7.649
20246SOL    HW162570   9.079   2.538   7.561
20246SOL    HW262571   9.091   2.664   7.644
20247SOL     OW62572  11.014   9.738   4.460
20247SOL    HW162573  11.035   9.817   4.411
20247SOL    HW262574  10.920   9.742   4.473
20248SOL     OW62575  10.156  10.960   7.888
20248SOL    HW162576  10.120  10.903   7.956
20248SOL    HW262577  10.079  11.000   7.847
20249SOL     OW62578  11.415   8.468  12.191
20249SOL    HW162579  11.404   8.440  12.100
20249SOL    HW262580  11.510   8.470  12.203
20250SOL     OW62581  13.181   0.414   8.039
20250SOL    HW162582  13.137   0.498   8.056
20250SOL    HW262583  13.196   0.377   8.126
20251SOL     OW62584  12.023   4.672  13.805
20251SOL    HW162585  12.057   4.582  13.800
20251SOL    HW262586  12.082   4.722  13.748
20252SOL     OW62587   8.126   8.940   6.917
20252SOL    HW162588   8.122   8.863   6.861
20252SOL    HW262589   8.065   9.002   6.878
20253SOL     OW62590   7.612   0.054  10.025
20253SOL    HW162591   7.553   0.067   9.951
20253SOL    HW262592   7.659   0.136  10.034
20254SOL     OW62593   2.373   4.566   4.062
20254SOL    HW162594   2.315   4.624   4.012
20254SOL    HW262595   2.454   4.615   4.071
20255SOL     OW62596  11.634   7.928  12.098
20255SOL    HW162597  11.648   8.020  12.078
20255SOL    HW262598  11.609   7.927  12.190
20256SOL     OW62599  13.293  10.848   4.977
20256SOL    HW162600  13.201  10.827   4.993
20256SOL    HW262601  13.341  10.803   5.046
20257SOL     OW62602  13.463   9.159   6.453
20257SOL    HW162603  13.505   9.242   6.432
20257SOL    HW262604  13.501   9.133   6.537
20258SOL     OW62605  13.241   8.860   5.348
20258SOL    HW162606  13.183   8.789   5.320
20258SOL    HW262607  13.240   8.923   5.276
20259SOL     OW62608   0.872  11.103   5.556
20259SOL    HW162609   0.829  11.188   5.545
20259SOL    HW262610   0.944  11.104   5.493
20260SOL     OW62611   5.445   6.903   6.595
20260SOL    HW162612   5.440   6.951   6.512
20260SOL    HW262613   5.402   6.960   6.658
20261SOL     OW62614   8.140   9.589   8.154
20261SOL    HW162615   8.129   9.604   8.060
20261SOL    HW262616   8.172   9.672   8.188
20262SOL     OW62617   7.561   5.218   4.292
20262SOL    HW162618   7.587   5.166   4.368
20262SOL    HW262619   7.576   5.160   4.217
20263SOL     OW62620   3.164   6.115   8.247
20263SOL    HW162621   3.239   6.101   8.305
20263SOL    HW262622   3.120   6.030   8.242
20264SOL     OW62623   7.604   1.976  12.870
20264SOL    HW162624   7.625   1.978  12.963
20264SOL    HW262625   7.508   1.980  12.867
20265SOL     OW62626   6.993   7.559  11.444
20265SOL    HW162627   6.909   7.514  11.456
20265SOL    HW262628   7.039   7.509  11.377
20266SOL     OW62629  13.123   2.602   1.758
20266SOL    HW162630  13.214   2.631   1.761
20266SOL    HW262631  13.077   2.663   1.817
20267SOL     OW62632   1.303   8.349   8.693
20267SOL    HW162633   1.386   8.353   8.741
20267SOL    HW262634   1.322   8.293   8.618
20268SOL     OW62635   6.536  12.481  12.827
20268SOL    HW162636   6.590  12.412  12.789
20268SOL    HW262637   6.565  12.561  12.783
20269SOL     OW62638   2.851  13.918   4.870
20269SOL    HW162639   2.876  13.842   4.923
20269SOL    HW262640   2.798  13.971   4.929
20270SOL     OW62641   9.321   7.686  13.648
20270SOL    HW162642   9.350   7.748  13.715
20270SOL    HW262643   9.229   7.708  13.633
20271SOL     OW62644   3.555   6.461   2.383
20271SOL    HW162645   3.639   6.443   2.425
20271SOL    HW262646   3.527   6.545   2.420
20272SOL     OW62647   1.444   2.841  13.541
20272SOL    HW162648   1.448   2.937  13.534
20272SOL    HW262649   1.429   2.825  13.634
20273SOL     OW62650   7.009  13.899   1.550
20273SOL    HW162651   7.062  13.857   1.618
20273SOL    HW262652   6.919  13.894   1.582
20274SOL     OW62653   9.516  12.632   7.918
20274SOL    HW162654   9.514  12.552   7.866
20274SOL    HW262655   9.511  12.602   8.009
20275SOL     OW62656   3.447  14.793   4.109
20275SOL    HW162657   3.482  14.705   4.095
20275SOL    HW262658   3.414  14.819   4.023
20276SOL     OW62659   3.537  12.851   5.369
20276SOL    HW162660   3.443  12.841   5.387
20276SOL    HW262661   3.560  12.936   5.407
20277SOL     OW62662   3.372   6.576   9.260
20277SOL    HW162663   3.324   6.646   9.304
20277SOL    HW262664   3.320   6.497   9.275
20278SOL     OW62665   0.724   4.661   0.189
20278SOL    HW162666   0.752   4.627   0.273
20278SOL    HW262667   0.774   4.611   0.124
20279SOL     OW62668   2.618  12.517   4.715
20279SOL    HW162669   2.622  12.458   4.790
20279SOL    HW262670   2.563  12.472   4.651
20280SOL     OW62671   4.968  11.972   9.869
20280SOL    HW162672   4.889  11.994   9.818
20280SOL    HW262673   5.037  11.962   9.803
20281SOL     OW62674  10.163   5.063   1.387
20281SOL    HW162675  10.206   5.123   1.327
20281SOL    HW262676  10.185   5.096   1.475
20282SOL     OW62677   3.188  13.217   4.707
20282SOL    HW162678   3.271  13.256   4.733
20282SOL    HW262679   3.213  13.144   4.649
20283SOL     OW62680   0.840   1.034  12.339
20283SOL    HW162681   0.773   1.079  12.287
20283SOL    HW262682   0.840   1.082  12.423
20284SOL     OW62683   5.462  14.259   3.258
20284SOL    HW162684   5.486  14.347   3.286
20284SOL    HW262685   5.403  14.272   3.184
20285SOL     OW62686   8.118   4.045   2.676
20285SOL    HW162687   8.164   3.980   2.730
20285SOL    HW262688   8.188   4.092   2.631
20286SOL     OW62689   2.713  10.017   8.208
20286SOL    HW162690   2.775  10.039   8.278
20286SOL    HW262691   2.628  10.048   8.241
20287SOL     OW62692   8.060   7.398   3.729
20287SOL    HW162693   7.991   7.464   3.724
20287SOL    HW262694   8.015   7.318   3.757
20288SOL     OW62695  11.735   3.137  13.485
20288SOL    HW162696  11.811   3.102  13.530
20288SOL    HW262697  11.753   3.124  13.392
20289SOL     OW62698   1.145   5.328  14.855
20289SOL    HW162699   1.076   5.307  14.792
20289SOL    HW262700   1.124   5.275   0.060
20290SOL     OW62701   6.670   8.521   4.793
20290SOL    HW162702   6.687   8.541   4.701
20290SOL    HW262703   6.757   8.516   4.833
20291SOL     OW62704  10.833  12.942   7.151
20291SOL    HW162705  10.867  12.861   7.189
20291SOL    HW262706  10.838  13.005   7.222
20292SOL     OW62707  11.582   3.842   6.737
20292SOL    HW162708  11.546   3.795   6.812
20292SOL    HW262709  11.579   3.935   6.762
20293SOL     OW62710   8.472  10.742   9.839
20293SOL    HW162711   8.514  10.807   9.895
20293SOL    HW262712   8.432  10.792   9.768
20294SOL     OW62713   6.079  10.293   6.171
20294SOL    HW162714   6.077  10.218   6.230
20294SOL    HW262715   6.077  10.369   6.229
20295SOL     OW62716   9.023   1.603   9.818
20295SOL    HW162717   8.952   1.538   9.821
20295SOL    HW262718   9.103   1.552   9.835
20296SOL     OW62719   7.213   4.621   9.691
20296SOL    HW162720   7.273   4.633   9.617
20296SOL    HW262721   7.126   4.636   9.653
20297SOL     OW62722   9.827   9.804   5.034
20297SOL    HW162723   9.859   9.890   5.008
20297SOL    HW262724   9.742   9.796   4.992
20298SOL     OW62725   9.282   7.002   1.258
20298SOL    HW162726   9.326   7.075   1.216
20298SOL    HW262727   9.352   6.943   1.285
20299SOL     OW62728   1.590   6.752   3.935
20299SOL    HW162729   1.619   6.707   3.855
20299SOL    HW262730   1.542   6.829   3.903
20300SOL     OW62731   6.859   9.604   6.071
20300SOL    HW162732   6.947   9.572   6.089
20300SOL    HW262733   6.852   9.602   5.975
20301SOL     OW62734   5.882   7.328   2.008
20301SOL    HW162735   5.878   7.233   2.016
20301SOL    HW262736   5.800   7.352   1.964
20302SOL     OW62737   5.318   9.239   5.338
20302SOL    HW162738   5.275   9.211   5.419
20302SOL    HW262739   5.404   9.198   5.341
20303SOL     OW62740  11.447  14.280   3.038
20303SOL    HW162741  11.543  14.284   3.035
20303SOL    HW262742  11.428  14.198   3.083
20304SOL     OW62743  14.639   4.315   2.598
20304SOL    HW162744  14.573   4.256   2.563
20304SOL    HW262745  14.589   4.389   2.633
20305SOL     OW62746   1.793  12.054  13.010
20305SOL    HW162747   1.760  12.109  13.081
20305SOL    HW262748   1.874  12.097  12.982
20306SOL     OW62749   0.644   2.221   3.057
20306SOL    HW162750   0.566   2.277   3.060
20306SOL    HW262751   0.610   2.133   3.043
20307SOL     OW62752   4.993   1.477   7.544
20307SOL    HW162753   4.983   1.386   7.570
20307SOL    HW262754   4.912   1.498   7.497
20308SOL     OW62755  10.573   1.919   8.869
20308SOL    HW162756  10.626   1.930   8.790
20308SOL    HW262757  10.509   1.852   8.847
20309SOL     OW62758   2.084  14.487   9.453
20309SOL    HW162759   2.118  14.551   9.390
20309SOL    HW262760   2.161  14.457   9.501
20310SOL     OW62761   1.535  12.331  13.358
20310SOL    HW162762   1.492  12.415  13.342
20310SOL    HW262763   1.566  12.336  13.448
20311SOL     OW62764   8.701  12.972  11.267
20311SOL    HW162765   8.728  12.892  11.223
20311SOL    HW262766   8.783  13.019  11.283
20312SOL     OW62767  13.070   9.415   4.823
20312SOL    HW162768  13.007   9.375   4.883
20312SOL    HW262769  13.050   9.508   4.825
20313SOL     OW62770   9.973   2.524   0.307
20313SOL    HW162771   9.990   2.590   0.240
20313SOL    HW262772   9.877   2.522   0.315
20314SOL     OW62773  11.239  10.011  13.315
20314SOL    HW162774  11.279  10.059  13.243
20314SOL    HW262775  11.311   9.993  13.376
20315SOL     OW62776   7.651  11.520  12.018
20315SOL    HW162777   7.604  11.595  12.053
20315SOL    HW262778   7.732  11.516  12.069
20316SOL     OW62779   3.576  14.848   8.405
20316SOL    HW162780   3.666   0.007   8.391
20316SOL    HW262781   3.586  14.760   8.442
20317SOL     OW62782   6.103   4.063   7.507
20317SOL    HW162783   6.112   4.155   7.533
20317SOL    HW262784   6.179   4.020   7.545
20318SOL     OW62785   3.003  11.318   8.234
20318SOL    HW162786   2.923  11.289   8.192
20318SOL    HW262787   2.982  11.405   8.268
20319SOL     OW62788  12.896  12.495   3.242
20319SOL    HW162789  12.963  12.554   3.275
20319SOL    HW262790  12.944  12.420   3.208
20320SOL     OW62791   1.340   7.408   5.210
20320SOL    HW162792   1.306   7.353   5.139
20320SOL    HW262793   1.419   7.447   5.175
20321SOL     OW62794   8.535   7.500   4.918
20321SOL    HW162795   8.609   7.542   4.875
20321SOL    HW262796   8.462   7.511   4.856
20322SOL     OW62797   5.285   5.124   3.940
20322SOL    HW162798   5.202   5.097   3.978
20322SOL    HW262799   5.332   5.167   4.011
20323SOL     OW62800   7.577   6.193   8.414
20323SOL    HW162801   7.510   6.229   8.356
20323SOL    HW262802   7.533   6.125   8.464
20324SOL     OW62803   9.143  13.017   5.843
20324SOL    HW162804   9.148  12.950   5.911
20324SOL    HW262805   9.087  12.980   5.775
20325SOL     OW62806   7.803   1.009  12.378
20325SOL    HW162807   7.789   0.959  12.298
20325SOL    HW262808   7.750   1.088  12.366
20326SOL     OW62809  10.428   2.736   2.323
20326SOL    HW162810  10.500   2.687   2.283
20326SOL    HW262811  10.418   2.814   2.268
20327SOL     OW62812   7.551  13.357   3.659
20327SOL    HW162813   7.493  13.283   3.641
20327SOL    HW262814   7.494  13.434   3.654
20328SOL     OW62815  11.686   4.385  10.308
20328SOL    HW162816  11.646   4.408  10.224
20328SOL    HW262817  11.780   4.392  10.293
20329SOL     OW62818   2.400   9.979   8.795
20329SOL    HW162819   2.474  10.039   8.806
20329SOL    HW262820   2.429   9.898   8.836
20330SOL     OW62821   7.073  12.929   6.885
20330SOL    HW162822   6.983  12.911   6.912
20330SOL    HW262823   7.068  12.939   6.790
20331SOL     OW62824   7.910   2.436   3.061
20331SOL    HW162825   7.893   2.528   3.082
20331SOL    HW262826   8.004   2.425   3.078
20332SOL     OW62827  12.325  13.529   0.907
20332SOL    HW162828  12.345  13.620   0.928
20332SOL    HW262829  12.364  13.479   0.979
20333SOL     OW62830   5.274   9.726   7.939
20333SOL    HW162831   5.324   9.658   7.984
20333SOL    HW262832   5.315   9.733   7.853
20334SOL     OW62833   6.548   2.058   0.064
20334SOL    HW162834   6.529   1.964   0.065
20334SOL    HW262835   6.465   2.098   0.037
20335SOL     OW62836   5.258   4.278   8.364
20335SOL    HW162837   5.167   4.257   8.382
20335SOL    HW262838   5.275   4.356   8.418
20336SOL     OW62839  13.876  13.205  12.599
20336SOL    HW162840  13.936  13.176  12.530
20336SOL    HW262841  13.900  13.297  12.615
20337SOL     OW62842   2.045   6.695   9.574
20337SOL    HW162843   1.962   6.728   9.539
20337SOL    HW262844   2.061   6.615   9.525
20338SOL     OW62845   2.855   6.266   5.215
20338SOL    HW162846   2.853   6.315   5.297
20338SOL    HW262847   2.900   6.184   5.238
20339SOL     OW62848   3.636   2.134  12.016
20339SOL    HW162849   3.729   2.155  12.012
20339SOL    HW262850   3.594   2.217  12.040
20340SOL     OW62851  14.411   5.619   7.451
20340SOL    HW162852  14.504   5.639   7.444
20340SOL    HW262853  14.372   5.652   7.370
20341SOL     OW62854  11.663  14.492   7.418
20341SOL    HW162855  11.583  14.440   7.412
20341SOL    HW262856  11.690  14.504   7.327
20342SOL     OW62857   6.992  12.109   0.525
20342SOL    HW162858   6.898  12.115   0.542
20342SOL    HW262859   7.003  12.153   0.441
20343SOL     OW62860  14.386   9.465  14.120
20343SOL    HW162861  14.318   9.436  14.181
20343SOL    HW262862  14.445   9.391  14.112
20344SOL     OW62863   4.869   6.817   5.057
20344SOL    HW162864   4.842   6.808   4.965
20344SOL    HW262865   4.886   6.728   5.086
20345SOL     OW62866   9.211   6.921   8.311
20345SOL    HW162867   9.259   6.996   8.347
20345SOL    HW262868   9.258   6.844   8.344
20346SOL     OW62869  11.464   8.542   2.660
20346SOL    HW162870  11.388   8.510   2.612
20346SOL    HW262871  11.427   8.583   2.739
20347SOL     OW62872   8.075   8.661   8.974
20347SOL    HW162873   8.149   8.642   9.032
20347SOL    HW262874   8.114   8.675   8.888
20348SOL     OW62875   4.612  10.939   3.620
20348SOL    HW162876   4.643  10.850   3.634
20348SOL    HW262877   4.675  10.994   3.666
20349SOL     OW62878   3.908   5.270   7.993
20349SOL    HW162879   3.923   5.283   7.900
20349SOL    HW262880   3.920   5.176   8.007
20350SOL     OW62881  11.095   3.360   2.328
20350SOL    HW162882  11.117   3.402   2.412
20350SOL    HW262883  11.148   3.406   2.264
20351SOL     OW62884  10.245   5.392   5.046
20351SOL    HW162885  10.282   5.375   5.132
20351SOL    HW262886  10.284   5.474   5.018
20352SOL     OW62887   5.503  13.864  11.182
20352SOL    HW162888   5.454  13.795  11.226
20352SOL    HW262889   5.479  13.857  11.090
20353SOL     OW62890   0.398   2.430   3.125
20353SOL    HW162891   0.425   2.516   3.092
20353SOL    HW262892   0.322   2.407   3.071
20354SOL     OW62893   1.464  14.070   6.149
20354SOL    HW162894   1.528  14.012   6.109
20354SOL    HW262895   1.503  14.097   6.232
20355SOL     OW62896   6.817   3.000   8.064
20355SOL    HW162897   6.815   3.086   8.106
20355SOL    HW262898   6.800   2.938   8.134
20356SOL     OW62899   5.561   7.090   2.060
20356SOL    HW162900   5.651   7.101   2.028
20356SOL    HW262901   5.506   7.133   1.994
20357SOL     OW62902   5.644  13.617   0.871
20357SOL    HW162903   5.659  13.523   0.856
20357SOL    HW262904   5.550  13.628   0.859
20358SOL     OW62905   3.249   0.992  11.093
20358SOL    HW162906   3.246   1.062  11.028
20358SOL    HW262907   3.234   1.037  11.177
20359SOL     OW62908   5.951   3.034   4.262
20359SOL    HW162909   5.921   2.945   4.280
20359SOL    HW262910   5.939   3.081   4.345
20360SOL     OW62911  14.177   1.793   3.584
20360SOL    HW162912  14.215   1.708   3.608
20360SOL    HW262913  14.244   1.857   3.610
20361SOL     OW62914   2.480  11.580   7.807
20361SOL    HW162915   2.452  11.647   7.745
20361SOL    HW262916   2.402  11.527   7.822
20362SOL     OW62917  11.400   5.571  10.085
20362SOL    HW162918  11.315   5.531  10.074
20362SOL    HW262919  11.461   5.511  10.041
20363SOL     OW62920   7.425   1.089   9.605
20363SOL    HW162921   7.386   1.163   9.651
20363SOL    HW262922   7.417   1.111   9.513
20364SOL     OW62923   0.925   1.982   8.380
20364SOL    HW162924   0.985   2.012   8.448
20364SOL    HW262925   0.977   1.983   8.300
20365SOL     OW62926   6.231   2.269   9.700
20365SOL    HW162927   6.305   2.220   9.664
20365SOL    HW262928   6.157   2.244   9.645
20366SOL     OW62929   3.169  12.479   7.708
20366SOL    HW162930   3.103  12.460   7.775
20366SOL    HW262931   3.205  12.564   7.732
20367SOL     OW62932  11.958  13.251   8.004
20367SOL    HW162933  11.971  13.167   7.961
20367SOL    HW262934  11.875  13.284   7.967
20368SOL     OW62935  14.375  13.796   3.953
20368SOL    HW162936  14.345  13.707   3.974
20368SOL    HW262937  14.442  13.783   3.886
20369SOL     OW62938   8.374   5.121   6.775
20369SOL    HW162939   8.303   5.060   6.757
20369SOL    HW262940   8.332   5.207   6.780
20370SOL     OW62941   8.909   4.257   1.980
20370SOL    HW162942   8.953   4.180   1.945
20370SOL    HW262943   8.910   4.243   2.075
20371SOL     OW62944   2.124   1.779  10.532
20371SOL    HW162945   2.125   1.831  10.612
20371SOL    HW262946   2.038   1.796  10.493
20372SOL     OW62947   4.713   3.778  10.424
20372SOL    HW162948   4.736   3.853  10.369
20372SOL    HW262949   4.765   3.790  10.504
20373SOL     OW62950  12.211   7.530   1.857
20373SOL    HW162951  12.253   7.495   1.778
20373SOL    HW262952  12.158   7.457   1.889
20374SOL     OW62953   2.125   9.324  11.262
20374SOL    HW162954   2.047   9.378  11.254
20374SOL    HW262955   2.130   9.304  11.356
20375SOL     OW62956  14.678   7.486  12.735
20375SOL    HW162957  14.599   7.436  12.754
20375SOL    HW262958  14.745   7.420  12.718
20376SOL     OW62959  12.636   8.673  12.813
20376SOL    HW162960  12.637   8.594  12.760
20376SOL    HW262961  12.727   8.703  12.813
20377SOL     OW62962   3.323   3.207   6.563
20377SOL    HW162963   3.340   3.233   6.654
20377SOL    HW262964   3.289   3.118   6.571
20378SOL     OW62965   2.839   3.251   3.277
20378SOL    HW162966   2.749   3.282   3.270
20378SOL    HW262967   2.835   3.182   3.344
20379SOL     OW62968  12.265   2.757   0.072
20379SOL    HW162969  12.251   2.840   0.117
20379SOL    HW262970  12.288   2.781  14.855
20380SOL     OW62971  10.915  10.181   3.364
20380SOL    HW162972  10.970  10.134   3.425
20380SOL    HW262973  10.831  10.190   3.409
20381SOL     OW62974   1.283   3.189   6.129
20381SOL    HW162975   1.268   3.103   6.089
20381SOL    HW262976   1.373   3.185   6.161
20382SOL     OW62977  11.423   4.766   3.104
20382SOL    HW162978  11.442   4.839   3.164
20382SOL    HW262979  11.389   4.697   3.160
20383SOL     OW62980  12.465   6.842   9.325
20383SOL    HW162981  12.405   6.787   9.375
20383SOL    HW262982  12.434   6.932   9.341
20384SOL     OW62983  10.323  14.088   1.638
20384SOL    HW162984  10.411  14.109   1.608
20384SOL    HW262985  10.266  14.115   1.566
20385SOL     OW62986   8.460  12.192  14.445
20385SOL    HW162987   8.492  12.282  14.454
20385SOL    HW262988   8.535  12.137  14.469
20386SOL     OW62989   8.090   2.287  10.078
20386SOL    HW162990   7.997   2.303  10.062
20386SOL    HW262991   8.127   2.271   9.992
20387SOL     OW62992   6.823   6.743  10.804
20387SOL    HW162993   6.779   6.746  10.719
20387SOL    HW262994   6.773   6.805  10.858
20388SOL     OW62995   2.159  12.781   1.342
20388SOL    HW162996   2.095  12.714   1.368
20388SOL    HW262997   2.197  12.748   1.261
20389SOL     OW62998   4.211   1.672  11.656
20389SOL    HW162999   4.235   1.665  11.748
20389SOL    HW263000   4.213   1.766  11.637
20390SOL     OW63001  13.090   4.244   8.693
20390SOL    HW163002  13.166   4.190   8.716
20390SOL    HW263003  13.087   4.311   8.762
20391SOL     OW63004   3.216  14.215   7.021
20391SOL    HW163005   3.205  14.265   7.102
20391SOL    HW263006   3.256  14.277   6.960
20392SOL     OW63007   6.451  10.623   5.366
20392SOL    HW163008   6.439  10.568   5.289
20392SOL    HW263009   6.542  10.608   5.392
20393SOL     OW63010  14.176  14.646   3.834
20393SOL    HW163011  14.118  14.637   3.910
20393SOL    HW263012  14.120  14.628   3.758
20394SOL     OW63013   8.488   1.481   2.366
20394SOL    HW163014   8.447   1.478   2.279
20394SOL    HW263015   8.551   1.409   2.364
20395SOL     OW63016   6.760  11.665   3.540
20395SOL    HW163017   6.790  11.614   3.615
20395SOL    HW263018   6.822  11.644   3.470
20396SOL     OW63019   2.304   6.116  13.190
20396SOL    HW163020   2.356   6.052  13.142
20396SOL    HW263021   2.354   6.197  13.184
20397SOL     OW63022   2.751   1.255   4.605
20397SOL    HW163023   2.802   1.183   4.643
20397SOL    HW263024   2.760   1.326   4.668
20398SOL     OW63025  10.890   7.368  13.117
20398SOL    HW163026  10.835   7.315  13.060
20398SOL    HW263027  10.870   7.337  13.205
20399SOL     OW63028  12.860   4.088   6.768
20399SOL    HW163029  12.863   4.111   6.861
20399SOL    HW263030  12.871   4.171   6.722
20400SOL     OW63031   9.982   5.491   9.475
20400SOL    HW163032  10.051   5.425   9.482
20400SOL    HW263033  10.028   5.575   9.481
20401SOL     OW63034  11.113  13.368   3.549
20401SOL    HW163035  11.023  13.345   3.526
20401SOL    HW263036  11.118  13.463   3.537
20402SOL     OW63037   9.778   5.558  12.507
20402SOL    HW163038   9.814   5.545  12.420
20402SOL    HW263039   9.721   5.482  12.521
20403SOL     OW63040   0.626   3.031  12.174
20403SOL    HW163041   0.541   3.054  12.211
20403SOL    HW263042   0.651   3.107  12.120
20404SOL     OW63043  11.802   3.245   8.932
20404SOL    HW163044  11.807   3.317   8.996
20404SOL    HW263045  11.775   3.169   8.983
20405SOL     OW63046   8.179  14.822   5.020
20405SOL    HW163047   8.087  14.815   5.044
20405SOL    HW263048   8.226  14.801   5.101
20406SOL     OW63049  14.177   4.994   6.065
20406SOL    HW163050  14.096   5.035   6.033
20406SOL    HW263051  14.223   4.967   5.986
20407SOL     OW63052  11.704  14.427   0.349
20407SOL    HW163053  11.714  14.461   0.438
20407SOL    HW263054  11.679  14.502   0.297
20408SOL     OW63055  11.084  10.942   6.353
20408SOL    HW163056  11.046  10.913   6.436
20408SOL    HW263057  11.083  11.037   6.358
20409SOL     OW63058  12.940   5.126   7.075
20409SOL    HW163059  12.847   5.142   7.058
20409SOL    HW263060  12.942   5.083   7.160
20410SOL     OW63061  14.583  14.377   1.393
20410SOL    HW163062  14.518  14.307   1.398
20410SOL    HW263063  14.548  14.447   1.448
20411SOL     OW63064   3.383  14.824   9.045
20411SOL    HW163065   3.455  14.798   9.102
20411SOL    HW263066   3.318  14.862   9.103
20412SOL     OW63067  11.210  10.732  12.748
20412SOL    HW163068  11.219  10.652  12.698
20412SOL    HW263069  11.240  10.801  12.689
20413SOL     OW63070   9.780   1.418  10.646
20413SOL    HW163071   9.742   1.340  10.686
20413SOL    HW263072   9.827   1.385  10.569
20414SOL     OW63073   8.348   5.075   2.227
20414SOL    HW163074   8.310   5.019   2.159
20414SOL    HW263075   8.273   5.114   2.271
20415SOL     OW63076  13.136  11.674   8.664
20415SOL    HW163077  13.073  11.604   8.646
20415SOL    HW263078  13.217  11.628   8.688
20416SOL     OW63079   0.708   9.888  13.606
20416SOL    HW163080   0.679   9.971  13.568
20416SOL    HW263081   0.723   9.908  13.699
20417SOL     OW63082   3.367   0.316   5.336
20417SOL    HW163083   3.370   0.255   5.263
20417SOL    HW263084   3.380   0.402   5.295
20418SOL     OW63085   2.278  14.430   5.689
20418SOL    HW163086   2.232  14.429   5.605
20418SOL    HW263087   2.330  14.510   5.687
20419SOL     OW63088   6.084   7.627   4.390
20419SOL    HW163089   5.997   7.663   4.374
20419SOL    HW263090   6.138   7.703   4.411
20420SOL     OW63091   4.334   2.093   9.406
20420SOL    HW163092   4.251   2.114   9.364
20420SOL    HW263093   4.378   2.033   9.345
20421SOL     OW63094  13.967  12.306  14.207
20421SOL    HW163095  13.937  12.218  14.230
20421SOL    HW263096  13.948  12.315  14.114
20422SOL     OW63097  13.448   0.821   1.644
20422SOL    HW163098  13.430   0.773   1.563
20422SOL    HW263099  13.375   0.798   1.702
20423SOL     OW63100  13.442   6.875   3.741
20423SOL    HW163101  13.466   6.783   3.726
20423SOL    HW263102  13.365   6.888   3.685
20424SOL     OW63103  11.950   6.844  10.824
20424SOL    HW163104  11.993   6.835  10.909
20424SOL    HW263105  12.022   6.848  10.761
20425SOL     OW63106  13.498   2.184  13.778
20425SOL    HW163107  13.520   2.208  13.868
20425SOL    HW263108  13.573   2.211  13.726
20426SOL     OW63109  12.477  13.636   5.585
20426SOL    HW163110  12.540  13.638   5.512
20426SOL    HW263111  12.400  13.683   5.552
20427SOL     OW63112   7.255   7.237   4.831
20427SOL    HW163113   7.224   7.325   4.852
20427SOL    HW263114   7.309   7.248   4.752
20428SOL     OW63115   8.541  14.706  11.108
20428SOL    HW163116   8.613  14.710  11.045
20428SOL    HW263117   8.476  14.650  11.067
20429SOL     OW63118   8.093   0.489  13.433
20429SOL    HW163119   8.058   0.483  13.344
20429SOL    HW263120   8.051   0.417  13.480
20430SOL     OW63121   3.624  14.093   4.774
20430SOL    HW163122   3.676  14.146   4.714
20430SOL    HW263123   3.637  14.133   4.859
20431SOL     OW63124  10.521   8.098  10.177
20431SOL    HW163125  10.542   8.018  10.225
20431SOL    HW263126  10.548   8.169  10.234
20432SOL     OW63127  10.436  11.950   3.751
20432SOL    HW163128  10.397  12.037   3.759
20432SOL    HW263129  10.529  11.966   3.737
20433SOL     OW63130   1.982  10.825   0.207
20433SOL    HW163131   1.961  10.840   0.299
20433SOL    HW263132   2.077  10.813   0.206
20434SOL     OW63133   3.450   9.724   7.644
20434SOL    HW163134   3.398   9.752   7.570
20434SOL    HW263135   3.453   9.628   7.636
20435SOL     OW63136  14.757  14.376   0.762
20435SOL    HW163137  14.815  14.429   0.707
20435SOL    HW263138  14.678  14.429   0.772
20436SOL     OW63139   6.741   5.237  11.306
20436SOL    HW163140   6.760   5.328  11.284
20436SOL    HW263141   6.825   5.200  11.331
20437SOL     OW63142   6.341  13.100  13.179
20437SOL    HW163143   6.419  13.115  13.125
20437SOL    HW263144   6.365  13.133  13.265
20438SOL     OW63145  13.685   2.074   8.911
20438SOL    HW163146  13.758   2.017   8.935
20438SOL    HW263147  13.726   2.148   8.866
20439SOL     OW63148   0.342   1.840   9.391
20439SOL    HW163149   0.256   1.873   9.417
20439SOL    HW263150   0.328   1.805   9.303
20440SOL     OW63151   1.547   3.100   5.884
20440SOL    HW163152   1.621   3.115   5.943
20440SOL    HW263153   1.533   3.184   5.841
20441SOL     OW63154   7.281   7.737  12.894
20441SOL    HW163155   7.281   7.758  12.987
20441SOL    HW263156   7.208   7.788  12.858
20442SOL     OW63157  12.566   1.476   7.089
20442SOL    HW163158  12.643   1.427   7.060
20442SOL    HW263159  12.565   1.555   7.035
20443SOL     OW63160   2.445   8.747   9.268
20443SOL    HW163161   2.507   8.674   9.271
20443SOL    HW263162   2.490   8.814   9.217
20444SOL     OW63163   5.875   0.523   6.779
20444SOL    HW163164   5.936   0.471   6.831
20444SOL    HW263165   5.926   0.597   6.748
20445SOL     OW63166   3.688   6.847   1.401
20445SOL    HW163167   3.712   6.845   1.309
20445SOL    HW263168   3.688   6.756   1.429
20446SOL     OW63169   2.814   0.849   6.255
20446SOL    HW163170   2.754   0.796   6.203
20446SOL    HW263171   2.816   0.805   6.340
20447SOL     OW63172  14.064   5.060   7.804
20447SOL    HW163173  14.087   4.985   7.748
20447SOL    HW263174  13.991   5.102   7.758
20448SOL     OW63175   1.919  13.043   9.846
20448SOL    HW163176   1.938  13.005   9.932
20448SOL    HW263177   1.910  12.968   9.788
20449SOL     OW63178  11.865   9.589   6.496
20449SOL    HW163179  11.915   9.553   6.422
20449SOL    HW263180  11.793   9.636   6.455
20450SOL     OW63181  11.879  12.067   3.400
20450SOL    HW163182  11.940  11.995   3.382
20450SOL    HW263183  11.909  12.103   3.483
20451SOL     OW63184   1.642  11.328  11.752
20451SOL    HW163185   1.713  11.322  11.688
20451SOL    HW263186   1.571  11.276  11.715
20452SOL     OW63187   1.843   6.858   9.104
20452SOL    HW163188   1.811   6.791   9.043
20452SOL    HW263189   1.803   6.939   9.074
20453SOL     OW63190   4.286  14.262  10.537
20453SOL    HW163191   4.279  14.347  10.581
20453SOL    HW263192   4.341  14.279  10.460
20454SOL     OW63193  14.300   3.415   8.011
20454SOL    HW163194  14.339   3.503   8.003
20454SOL    HW263195  14.273   3.410   8.103
20455SOL     OW63196   9.225  12.820  10.765
20455SOL    HW163197   9.232  12.758  10.692
20455SOL    HW263198   9.144  12.867  10.749
20456SOL     OW63199   3.801   6.431   4.589
20456SOL    HW163200   3.878   6.379   4.613
20456SOL    HW263201   3.836   6.514   4.557
20457SOL     OW63202   2.983  14.303  13.022
20457SOL    HW163203   3.035  14.330  13.098
20457SOL    HW263204   2.956  14.385  12.981
20458SOL     OW63205  12.950  11.909   3.331
20458SOL    HW163206  12.984  11.821   3.312
20458SOL    HW263207  12.877  11.893   3.391
20459SOL     OW63208  14.329  14.300   1.952
20459SOL    HW163209  14.392  14.296   1.880
20459SOL    HW263210  14.352  14.380   1.999
20460SOL     OW63211  14.467  10.027   6.136
20460SOL    HW163212  14.515   9.991   6.210
20460SOL    HW263213  14.418  10.101   6.172
20461SOL     OW63214   2.909   6.288   8.287
20461SOL    HW163215   2.941   6.280   8.377
20461SOL    HW263216   2.985   6.267   8.233
20462SOL     OW63217   8.032   8.671   1.316
20462SOL    HW163218   7.952   8.723   1.315
20462SOL    HW263219   8.035   8.631   1.403
20463SOL     OW63220   3.474  14.584   6.525
20463SOL    HW163221   3.453  14.627   6.443
20463SOL    HW263222   3.525  14.648   6.575
20464SOL     OW63223   8.034   2.757   9.468
20464SOL    HW163224   8.012   2.746   9.376
20464SOL    HW263225   7.957   2.725   9.515
20465SOL     OW63226  13.353   3.061  11.998
20465SOL    HW163227  13.285   2.996  11.983
20465SOL    HW263228  13.349   3.119  11.922
20466SOL     OW63229   1.015   3.959   8.534
20466SOL    HW163230   0.948   3.900   8.568
20466SOL    HW263231   1.097   3.922   8.565
20467SOL     OW63232   9.748  11.928  13.940
20467SOL    HW163233   9.773  11.931  14.032
20467SOL    HW263234   9.830  11.934  13.892
20468SOL     OW63235   6.584  11.074  10.294
20468SOL    HW163236   6.581  10.987  10.335
20468SOL    HW263237   6.630  11.059  10.211
20469SOL     OW63238  11.840   5.815  11.226
20469SOL    HW163239  11.903   5.886  11.214
20469SOL    HW263240  11.825   5.781  11.138
20470SOL     OW63241   3.850   6.011  14.054
20470SOL    HW163242   3.824   5.958  13.979
20470SOL    HW263243   3.915   5.957  14.100
20471SOL     OW63244   4.915   1.689   3.819
20471SOL    HW163245   4.970   1.702   3.742
20471SOL    HW263246   4.894   1.595   3.818
20472SOL     OW63247   7.915  10.468  13.394
20472SOL    HW163248   7.949  10.396  13.447
20472SOL    HW263249   7.859  10.426  13.329
20473SOL     OW63250   5.090  10.564   1.762
20473SOL    HW163251   5.073  10.487   1.708
20473SOL    HW263252   5.063  10.638   1.707
20474SOL     OW63253  10.838   6.714   2.713
20474SOL    HW163254  10.748   6.745   2.716
20474SOL    HW263255  10.887   6.773   2.770
20475SOL     OW63256   6.581   3.071   7.895
20475SOL    HW163257   6.660   3.106   7.854
20475SOL    HW263258   6.608   2.989   7.935
20476SOL     OW63259   7.998   4.546  13.607
20476SOL    HW163260   8.020   4.598  13.530
20476SOL    HW263261   7.989   4.609  13.678
20477SOL     OW63262   0.115   8.480   1.697
20477SOL    HW163263   0.120   8.421   1.622
20477SOL    HW263264   0.155   8.431   1.768
20478SOL     OW63265   5.052  12.503   9.201
20478SOL    HW163266   5.142  12.482   9.226
20478SOL    HW263267   5.059  12.586   9.153
20479SOL     OW63268   3.085   3.798   7.196
20479SOL    HW163269   3.008   3.742   7.199
20479SOL    HW263270   3.074   3.859   7.269
20480SOL     OW63271   8.517   0.615   7.854
20480SOL    HW163272   8.556   0.665   7.927
20480SOL    HW263273   8.423   0.615   7.872
20481SOL     OW63274   2.262  13.744   1.134
20481SOL    HW163275   2.320  13.737   1.058
20481SOL    HW263276   2.232  13.655   1.150
20482SOL     OW63277  14.786   6.666   2.617
20482SOL    HW163278  14.711   6.645   2.673
20482SOL    HW263279  14.862   6.657   2.675
20483SOL     OW63280   0.554  10.421  11.682
20483SOL    HW163281   0.556  10.337  11.729
20483SOL    HW263282   0.645  10.437  11.657
20484SOL     OW63283   6.855   6.698   2.793
20484SOL    HW163284   6.818   6.656   2.716
20484SOL    HW263285   6.900   6.628   2.840
20485SOL     OW63286   6.764   3.541   9.880
20485SOL    HW163287   6.750   3.625   9.922
20485SOL    HW263288   6.822   3.493   9.939
20486SOL     OW63289   4.308   4.255  11.267
20486SOL    HW163290   4.296   4.187  11.332
20486SOL    HW263291   4.385   4.304  11.297
20487SOL     OW63292  13.445  11.129  12.276
20487SOL    HW163293  13.384  11.123  12.350
20487SOL    HW263294  13.493  11.210  12.291
20488SOL     OW63295   4.598   7.684   4.632
20488SOL    HW163296   4.539   7.740   4.683
20488SOL    HW263297   4.559   7.682   4.545
20489SOL     OW63298   8.517   5.188   4.837
20489SOL    HW163299   8.518   5.144   4.922
20489SOL    HW263300   8.429   5.171   4.803
20490SOL     OW63301   9.344  11.027  13.091
20490SOL    HW163302   9.350  11.097  13.027
20490SOL    HW263303   9.307  11.068  13.169
20491SOL     OW63304  10.357  11.774   6.157
20491SOL    HW163305  10.286  11.711   6.168
20491SOL    HW263306  10.318  11.858   6.180
20492SOL     OW63307   8.931   1.464   7.945
20492SOL    HW163308   8.982   1.402   7.998
20492SOL    HW263309   8.864   1.498   8.005
20493SOL     OW63310   1.537   6.653  13.511
20493SOL    HW163311   1.598   6.624  13.579
20493SOL    HW263312   1.478   6.713  13.557
20494SOL     OW63313  13.840   5.642  13.062
20494SOL    HW163314  13.935   5.637  13.051
20494SOL    HW263315  13.827   5.722  13.114
20495SOL     OW63316  12.316   3.677   9.880
20495SOL    HW163317  12.293   3.634   9.797
20495SOL    HW263318  12.235   3.715   9.911
20496SOL     OW63319   6.401   7.649  11.568
20496SOL    HW163320   6.449   7.715  11.618
20496SOL    HW263321   6.469   7.591  11.534
20497SOL     OW63322  12.455   4.037  13.589
20497SOL    HW163323  12.369   4.035  13.547
20497SOL    HW263324  12.439   4.079  13.674
20498SOL     OW63325  13.424  12.900   3.955
20498SOL    HW163326  13.427  12.820   3.901
20498SOL    HW263327  13.426  12.971   3.891
20499SOL     OW63328   2.451   2.748   5.962
20499SOL    HW163329   2.402   2.790   5.892
20499SOL    HW263330   2.540   2.783   5.954
20500SOL     OW63331  12.113  11.132  12.193
20500SOL    HW163332  12.133  11.117  12.286
20500SOL    HW263333  12.043  11.197  12.194
20501SOL     OW63334   8.390   4.796   2.591
20501SOL    HW163335   8.295   4.801   2.597
20501SOL    HW263336   8.421   4.874   2.637
20502SOL     OW63337   4.025  13.476   5.746
20502SOL    HW163338   4.030  13.444   5.656
20502SOL    HW263339   4.093  13.428   5.793
20503SOL     OW63340   0.934   2.251   8.869
20503SOL    HW163341   0.891   2.331   8.898
20503SOL    HW263342   0.865   2.202   8.825
20504SOL     OW63343   3.611   0.796   2.768
20504SOL    HW163344   3.703   0.806   2.793
20504SOL    HW263345   3.586   0.881   2.732
20505SOL     OW63346   1.150   8.421   7.724
20505SOL    HW163347   1.183   8.507   7.699
20505SOL    HW263348   1.057   8.435   7.745
20506SOL     OW63349  10.346  12.101  14.239
20506SOL    HW163350  10.324  12.164  14.308
20506SOL    HW263351  10.262  12.062  14.215
20507SOL     OW63352   6.323   3.001  14.180
20507SOL    HW163353   6.289   3.008  14.091
20507SOL    HW263354   6.412   2.967  14.170
20508SOL     OW63355  13.063   1.414   1.728
20508SOL    HW163356  13.013   1.347   1.683
20508SOL    HW263357  13.037   1.406   1.820
20509SOL     OW63358   6.695  13.396   9.684
20509SOL    HW163359   6.635  13.470   9.684
20509SOL    HW263360   6.697  13.367   9.593
20510SOL     OW63361   7.090   0.695  11.365
20510SOL    HW163362   7.177   0.656  11.357
20510SOL    HW263363   7.097   0.780  11.321
20511SOL     OW63364   6.290   3.515  13.939
20511SOL    HW163365   6.267   3.501  14.031
20511SOL    HW263366   6.286   3.428  13.899
20512SOL     OW63367   9.543  12.350  12.192
20512SOL    HW163368   9.458  12.387  12.170
20512SOL    HW263369   9.579  12.408  12.259
20513SOL     OW63370  13.398   7.298   1.146
20513SOL    HW163371  13.473   7.322   1.201
20513SOL    HW263372  13.353   7.231   1.198
20514SOL     OW63373   8.120   9.329   8.506
20514SOL    HW163374   8.162   9.410   8.537
20514SOL    HW263375   8.144   9.324   8.414
20515SOL     OW63376   7.762   3.538   3.367
20515SOL    HW163377   7.841   3.584   3.394
20515SOL    HW263378   7.690   3.596   3.391
20516SOL     OW63379   8.555  13.274   8.927
20516SOL    HW163380   8.468  13.245   8.956
20516SOL    HW263381   8.615  13.236   8.992
20517SOL     OW63382   3.349   4.891   8.940
20517SOL    HW163383   3.436   4.926   8.958
20517SOL    HW263384   3.348   4.805   8.981
20518SOL     OW63385   6.027  12.087  13.665
20518SOL    HW163386   6.026  12.023  13.594
20518SOL    HW263387   6.033  12.172  13.622
20519SOL     OW63388  13.876   0.724   0.032
20519SOL    HW163389  13.793   0.677   0.033
20519SOL    HW263390  13.855   0.811  14.870
20520SOL     OW63391  10.758   5.283   3.901
20520SOL    HW163392  10.707   5.249   3.827
20520SOL    HW263393  10.705   5.263   3.978
20521SOL     OW63394   2.268   3.480   0.251
20521SOL    HW163395   2.287   3.396   0.294
20521SOL    HW263396   2.235   3.456   0.165
20522SOL     OW63397   8.386   9.711  14.854
20522SOL    HW163398   8.353   9.626  14.823
20522SOL    HW263399   8.371   9.710   0.076
20523SOL     OW63400   7.239   5.397   2.459
20523SOL    HW163401   7.308   5.462   2.444
20523SOL    HW263402   7.273   5.341   2.529
20524SOL     OW63403   4.248   5.626  11.199
20524SOL    HW163404   4.324   5.683  11.194
20524SOL    HW263405   4.273   5.548  11.149
20525SOL     OW63406   3.547  10.002   2.204
20525SOL    HW163407   3.564  10.054   2.125
20525SOL    HW263408   3.628   9.954   2.219
20526SOL     OW63409   3.757   9.472   5.746
20526SOL    HW163410   3.825   9.486   5.679
20526SOL    HW263411   3.686   9.429   5.698
20527SOL     OW63412   9.717   5.938   9.528
20527SOL    HW163413   9.653   6.003   9.499
20527SOL    HW263414   9.802   5.977   9.508
20528SOL     OW63415   4.736  12.658  12.410
20528SOL    HW163416   4.647  12.647  12.443
20528SOL    HW263417   4.753  12.578  12.360
20529SOL     OW63418   6.364   9.473  10.622
20529SOL    HW163419   6.451   9.463  10.584
20529SOL    HW263420   6.346   9.387  10.661
20530SOL     OW63421   9.470  11.571   8.187
20530SOL    HW163422   9.441  11.548   8.275
20530SOL    HW263423   9.391  11.572   8.134
20531SOL     OW63424   8.262  11.315   8.109
20531SOL    HW163425   8.355  11.294   8.120
20531SOL    HW263426   8.216  11.233   8.127
20532SOL     OW63427   3.454   3.199   4.115
20532SOL    HW163428   3.370   3.177   4.156
20532SOL    HW263429   3.518   3.187   4.185
20533SOL     OW63430  11.406   2.018  12.509
20533SOL    HW163431  11.314   2.041  12.490
20533SOL    HW263432  11.411   2.019  12.604
20534SOL     OW63433   1.512   1.844   3.177
20534SOL    HW163434   1.559   1.886   3.105
20534SOL    HW263435   1.425   1.882   3.174
20535SOL     OW63436  14.222  14.713   5.742
20535SOL    HW163437  14.302  14.727   5.792
20535SOL    HW263438  14.153  14.711   5.808
20536SOL     OW63439  12.111   4.356   5.061
20536SOL    HW163440  12.129   4.265   5.039
20536SOL    HW263441  12.187   4.385   5.111
20537SOL     OW63442   6.788   1.440  14.854
20537SOL    HW163443   6.826   1.455  14.767
20537SOL    HW263444   6.862   1.410   0.035
20538SOL     OW63445   9.991   1.778  14.565
20538SOL    HW163446   9.982   1.700  14.510
20538SOL    HW263447  10.084   1.799  14.562
20539SOL     OW63448   0.151  13.507   6.224
20539SOL    HW163449   0.166  13.444   6.294
20539SOL    HW263450   0.076  13.472   6.176
20540SOL     OW63451  12.305  10.029  14.702
20540SOL    HW163452  12.250   9.957  14.732
20540SOL    HW263453  12.328  10.077  14.782
20541SOL     OW63454   9.085   2.791   3.581
20541SOL    HW163455   9.063   2.830   3.666
20541SOL    HW263456   9.174   2.757   3.593
20542SOL     OW63457   0.873  12.530   1.482
20542SOL    HW163458   0.851  12.471   1.410
20542SOL    HW263459   0.790  12.543   1.529
20543SOL     OW63460   7.553  11.916  14.557
20543SOL    HW163461   7.532  11.961  14.476
20543SOL    HW263462   7.584  11.984  14.616
20544SOL     OW63463   5.057   6.567   4.062
20544SOL    HW163464   5.053   6.552   3.968
20544SOL    HW263465   5.151   6.566   4.082
20545SOL     OW63466  10.499  10.093  10.709
20545SOL    HW163467  10.571  10.049  10.755
20545SOL    HW263468  10.468  10.159  10.770
20546SOL     OW63469   5.747   3.921   8.048
20546SOL    HW163470   5.652   3.909   8.039
20546SOL    HW263471   5.784   3.837   8.023
20547SOL     OW63472   7.292   2.631   7.247
20547SOL    HW163473   7.221   2.567   7.242
20547SOL    HW263474   7.252   2.713   7.219
20548SOL     OW63475  12.672  12.179   9.461
20548SOL    HW163476  12.688  12.272   9.477
20548SOL    HW263477  12.746  12.135   9.503
20549SOL     OW63478  12.416  10.754   1.227
20549SOL    HW163479  12.344  10.758   1.290
20549SOL    HW263480  12.495  10.765   1.280
20550SOL     OW63481  13.000   7.652  10.010
20550SOL    HW163482  13.083   7.681   9.970
20550SOL    HW263483  12.934   7.709   9.970
20551SOL     OW63484   3.911  13.066   9.440
20551SOL    HW163485   3.819  13.069   9.415
20551SOL    HW263486   3.952  13.010   9.374
20552SOL     OW63487   6.787   5.830  10.614
20552SOL    HW163488   6.748   5.915  10.593
20552SOL    HW263489   6.828   5.801  10.532
20553SOL     OW63490   6.685  11.678   3.223
20553SOL    HW163491   6.611  11.736   3.204
20553SOL    HW263492   6.666  11.598   3.174
20554SOL     OW63493   6.571  10.419  11.994
20554SOL    HW163494   6.548  10.486  12.058
20554SOL    HW263495   6.531  10.339  12.027
20555SOL     OW63496   4.744  13.271   9.642
20555SOL    HW163497   4.798  13.218   9.584
20555SOL    HW263498   4.765  13.361   9.619
20556SOL     OW63499   4.145  14.332   3.716
20556SOL    HW163500   4.099  14.286   3.645
20556SOL    HW263501   4.118  14.423   3.707
20557SOL     OW63502   1.532   9.212   4.681
20557SOL    HW163503   1.540   9.273   4.754
20557SOL    HW263504   1.440   9.219   4.654
20558SOL     OW63505   4.986   8.385   0.688
20558SOL    HW163506   5.011   8.436   0.765
20558SOL    HW263507   4.913   8.435   0.650
20559SOL     OW63508   1.388  11.108  12.032
20559SOL    HW163509   1.365  11.198  12.008
20559SOL    HW263510   1.340  11.054  11.969
20560SOL     OW63511   8.908   8.375  10.099
20560SOL    HW163512   8.856   8.302  10.133
20560SOL    HW263513   8.994   8.364  10.140
20561SOL     OW63514   3.735   4.727  13.230
20561SOL    HW163515   3.736   4.678  13.148
20561SOL    HW263516   3.763   4.815  13.206
20562SOL     OW63517  14.399  11.008   5.427
20562SOL    HW163518  14.311  11.031   5.395
20562SOL    HW263519  14.403  10.913   5.417
20563SOL     OW63520   7.848   0.117  14.161
20563SOL    HW163521   7.867   0.129  14.254
20563SOL    HW263522   7.909   0.050  14.131
20564SOL     OW63523   2.844  11.496  14.762
20564SOL    HW163524   2.801  11.411  14.768
20564SOL    HW263525   2.819  11.541  14.843
20565SOL     OW63526   0.436   7.878   9.423
20565SOL    HW163527   0.487   7.823   9.364
20565SOL    HW263528   0.429   7.962   9.377
20566SOL     OW63529   0.684   4.017  11.166
20566SOL    HW163530   0.650   3.995  11.079
20566SOL    HW263531   0.644   4.101  11.186
20567SOL     OW63532   3.209   0.027   5.333
20567SOL    HW163533   3.126   0.006   5.377
20567SOL    HW263534   3.269   0.049   5.404
20568SOL     OW63535   9.178   4.546  14.157
20568SOL    HW163536   9.173   4.540  14.252
20568SOL    HW263537   9.116   4.480  14.125
20569SOL     OW63538   8.493  14.747   1.138
20569SOL    HW163539   8.443  14.700   1.071
20569SOL    HW263540   8.435  14.752   1.213
20570SOL     OW63541   1.302  12.385  11.755
20570SOL    HW163542   1.316  12.300  11.713
20570SOL    HW263543   1.207  12.396  11.756
20571SOL     OW63544   4.872  13.106   9.876
20571SOL    HW163545   4.823  13.187   9.866
20571SOL    HW263546   4.927  13.121   9.953
20572SOL     OW63547   9.230  11.680   8.840
20572SOL    HW163548   9.187  11.686   8.925
20572SOL    HW263549   9.316  11.718   8.853
20573SOL     OW63550   9.214   4.142   1.197
20573SOL    HW163551   9.299   4.182   1.214
20573SOL    HW263552   9.197   4.159   1.104
20574SOL     OW63553   1.080   6.032   4.144
20574SOL    HW163554   1.123   6.094   4.086
20574SOL    HW263555   1.094   6.068   4.232
20575SOL     OW63556   2.098   8.824  11.263
20575SOL    HW163557   2.052   8.756  11.312
20575SOL    HW263558   2.144   8.777  11.194
20576SOL     OW63559   0.943   7.930   4.053
20576SOL    HW163560   0.998   7.962   4.125
20576SOL    HW263561   0.854   7.941   4.086
20577SOL     OW63562   5.403  12.662  10.066
20577SOL    HW163563   5.398  12.648   9.971
20577SOL    HW263564   5.492  12.636  10.090
20578SOL     OW63565   7.667   4.572  14.189
20578SOL    HW163566   7.642   4.524  14.268
20578SOL    HW263567   7.604   4.644  14.185
20579SOL     OW63568   7.362  10.801   6.923
20579SOL    HW163569   7.446  10.765   6.893
20579SOL    HW263570   7.334  10.742   6.993
20580SOL     OW63571  11.805   1.641  14.267
20580SOL    HW163572  11.780   1.638  14.360
20580SOL    HW263573  11.730   1.683  14.224
20581SOL     OW63574  14.555   7.336   0.077
20581SOL    HW163575  14.569   7.250   0.116
20581SOL    HW263576  14.560   7.397   0.151
20582SOL     OW63577  10.835  12.116  12.507
20582SOL    HW163578  10.928  12.103  12.493
20582SOL    HW263579  10.794  12.087  12.425
20583SOL     OW63580   3.511   3.570  14.384
20583SOL    HW163581   3.497   3.590  14.291
20583SOL    HW263582   3.434   3.518  14.409
20584SOL     OW63583   4.125   3.184   0.031
20584SOL    HW163584   4.199   3.235  14.869
20584SOL    HW263585   4.155   3.093   0.028
20585SOL     OW63586   3.079   0.626   5.013
20585SOL    HW163587   3.022   0.549   5.008
20585SOL    HW263588   3.068   0.659   5.102
20586SOL     OW63589  12.281   3.393  12.244
20586SOL    HW163590  12.317   3.385  12.333
20586SOL    HW263591  12.222   3.468  12.249
20587SOL     OW63592   0.034   8.219  13.282
20587SOL    HW163593   0.109   8.174  13.320
20587SOL    HW263594   0.000   8.273  13.354
20588SOL     OW63595  12.899  11.921  11.447
20588SOL    HW163596  12.986  11.958  11.463
20588SOL    HW263597  12.844  11.997  11.427
20589SOL     OW63598   6.357   7.203  14.781
20589SOL    HW163599   6.362   7.296  14.758
20589SOL    HW263600   6.443   7.182  14.816
20590SOL     OW63601   3.922   3.863   9.917
20590SOL    HW163602   3.872   3.877   9.836
20590SOL    HW263603   3.977   3.787   9.898
20591SOL     OW63604  14.218  12.410  10.928
20591SOL    HW163605  14.191  12.492  10.887
20591SOL    HW263606  14.241  12.434  11.018
20592SOL     OW63607   8.878   9.827   6.797
20592SOL    HW163608   8.920   9.859   6.877
20592SOL    HW263609   8.902   9.734   6.795
20593SOL     OW63610   1.700  11.489   4.674
20593SOL    HW163611   1.746  11.411   4.643
20593SOL    HW263612   1.621  11.493   4.620
20594SOL     OW63613   9.388  14.125   6.684
20594SOL    HW163614   9.468  14.107   6.635
20594SOL    HW263615   9.318  14.085   6.633
20595SOL     OW63616  12.767   2.934  10.613
20595SOL    HW163617  12.817   2.955  10.692
20595SOL    HW263618  12.749   2.841  10.621
20596SOL     OW63619  10.982   6.897  14.214
20596SOL    HW163620  11.013   6.821  14.163
20596SOL    HW263621  10.893   6.873  14.239
20597SOL     OW63622  10.974   2.227   6.286
20597SOL    HW163623  10.978   2.258   6.196
20597SOL    HW263624  11.052   2.173   6.297
20598SOL     OW63625  11.741   9.843  11.418
20598SOL    HW163626  11.817   9.806  11.374
20598SOL    HW263627  11.710   9.774  11.476
20599SOL     OW63628   5.890   7.251   7.804
20599SOL    HW163629   5.981   7.230   7.784
20599SOL    HW263630   5.854   7.170   7.839
20600SOL     OW63631   1.095   8.342  12.491
20600SOL    HW163632   1.075   8.255  12.457
20600SOL    HW263633   1.127   8.326  12.580
20601SOL     OW63634   8.957  12.998   3.134
20601SOL    HW163635   8.942  12.932   3.066
20601SOL    HW263636   8.935  13.081   3.092
20602SOL     OW63637   0.222   1.595   8.927
20602SOL    HW163638   0.164   1.584   8.850
20602SOL    HW263639   0.304   1.554   8.900
20603SOL     OW63640   0.824   9.724   7.391
20603SOL    HW163641   0.782   9.786   7.331
20603SOL    HW263642   0.916   9.753   7.393
20604SOL     OW63643   0.744   1.527  10.886
20604SOL    HW163644   0.734   1.608  10.836
20604SOL    HW263645   0.820   1.542  10.942
20605SOL     OW63646  10.081  12.261   6.154
20605SOL    HW163647  10.031  12.328   6.107
20605SOL    HW263648  10.162  12.305   6.180
20606SOL     OW63649   7.175   2.212   3.086
20606SOL    HW163650   7.139   2.279   3.029
20606SOL    HW263651   7.099   2.160   3.113
20607SOL     OW63652   7.547  13.364   2.375
20607SOL    HW163653   7.632  13.320   2.370
20607SOL    HW263654   7.492  13.316   2.314
20608SOL     OW63655   6.097  11.085  10.737
20608SOL    HW163656   6.150  11.145  10.684
20608SOL    HW263657   6.033  11.142  10.780
20609SOL     OW63658  14.430   6.475   5.304
20609SOL    HW163659  14.413   6.456   5.397
20609SOL    HW263660  14.516   6.518   5.304
20610SOL     OW63661   4.040  14.351   3.287
20610SOL    HW163662   3.965  14.326   3.340
20610SOL    HW263663   4.092  14.271   3.280
20611SOL     OW63664  12.879   5.044  10.893
20611SOL    HW163665  12.784   5.035  10.886
20611SOL    HW263666  12.907   4.964  10.939
20612SOL     OW63667   7.188  13.610   3.160
20612SOL    HW163668   7.171  13.538   3.099
20612SOL    HW263669   7.166  13.575   3.246
20613SOL     OW63670   5.945   0.318   7.219
20613SOL    HW163671   5.964   0.348   7.130
20613SOL    HW263672   6.031   0.310   7.260
20614SOL     OW63673   8.637  14.422   5.173
20614SOL    HW163674   8.628  14.507   5.130
20614SOL    HW263675   8.554  14.409   5.218
20615SOL     OW63676   8.931   2.639  12.221
20615SOL    HW163677   8.863   2.594  12.271
20615SOL    HW263678   8.942   2.585  12.142
20616SOL     OW63679   1.937  10.808   2.120
20616SOL    HW163680   1.922  10.716   2.099
20616SOL    HW263681   1.852  10.850   2.107
20617SOL     OW63682   4.760  14.195   6.278
20617SOL    HW163683   4.669  14.166   6.283
20617SOL    HW263684   4.771  14.252   6.354
20618SOL     OW63685  11.303   4.491  13.349
20618SOL    HW163686  11.327   4.483  13.442
20618SOL    HW263687  11.386   4.509  13.304
20619SOL     OW63688  14.426  13.073  12.606
20619SOL    HW163689  14.360  13.122  12.556
20619SOL    HW263690  14.509  13.097  12.565
20620SOL     OW63691  13.303   8.812  14.257
20620SOL    HW163692  13.253   8.863  14.320
20620SOL    HW263693  13.391   8.850  14.260
20621SOL     OW63694   5.442   7.316   6.476
20621SOL    HW163695   5.363   7.351   6.518
20621SOL    HW263696   5.495   7.283   6.548
20622SOL     OW63697   2.403  13.912   2.608
20622SOL    HW163698   2.429  13.974   2.676
20622SOL    HW263699   2.484  13.895   2.559
20623SOL     OW63700   8.183   4.950   2.035
20623SOL    HW163701   8.089   4.958   2.052
20623SOL    HW263702   8.198   4.857   2.020
20624SOL     OW63703   3.520  12.342  13.629
20624SOL    HW163704   3.482  12.287  13.560
20624SOL    HW263705   3.595  12.385  13.586
20625SOL     OW63706   6.019  10.687  13.513
20625SOL    HW163707   5.961  10.610  13.509
20625SOL    HW263708   6.066  10.677  13.596
20626SOL     OW63709   5.742  13.111   0.825
20626SOL    HW163710   5.743  13.107   0.729
20626SOL    HW263711   5.744  13.019   0.852
20627SOL     OW63712   4.847  10.881   9.360
20627SOL    HW163713   4.762  10.902   9.321
20627SOL    HW263714   4.848  10.785   9.365
20628SOL     OW63715   6.680  12.125   1.388
20628SOL    HW163716   6.589  12.154   1.388
20628SOL    HW263717   6.680  12.046   1.442
20629SOL     OW63718   4.554  12.985   8.281
20629SOL    HW163719   4.470  13.022   8.309
20629SOL    HW263720   4.530  12.908   8.230
20630SOL     OW63721  13.072   0.401   6.538
20630SOL    HW163722  13.065   0.463   6.465
20630SOL    HW263723  12.984   0.362   6.544
20631SOL     OW63724  10.104   3.531   9.679
20631SOL    HW163725  10.112   3.505   9.770
20631SOL    HW263726  10.171   3.599   9.667
20632SOL     OW63727   8.715   1.849   4.684
20632SOL    HW163728   8.730   1.778   4.621
20632SOL    HW263729   8.787   1.840   4.746
20633SOL     OW63730   6.558  11.026   7.313
20633SOL    HW163731   6.640  11.068   7.286
20633SOL    HW263732   6.501  11.098   7.339
20634SOL     OW63733   0.989   7.466   8.383
20634SOL    HW163734   0.991   7.519   8.303
20634SOL    HW263735   0.995   7.530   8.454
20635SOL     OW63736   6.093  12.675   0.084
20635SOL    HW163737   6.091  12.580   0.100
20635SOL    HW263738   6.184  12.700   0.095
20636SOL     OW63739   9.142   5.501   1.804
20636SOL    HW163740   9.102   5.416   1.785
20636SOL    HW263741   9.104   5.528   1.887
20637SOL     OW63742  10.778   2.033  14.603
20637SOL    HW163743  10.755   2.042  14.695
20637SOL    HW263744  10.757   2.117  14.564
20638SOL     OW63745   8.247   8.211  11.318
20638SOL    HW163746   8.189   8.160  11.374
20638SOL    HW263747   8.195   8.287  11.293
20639SOL     OW63748   1.626  10.156   3.391
20639SOL    HW163749   1.675  10.106   3.327
20639SOL    HW263750   1.540  10.113   3.394
20640SOL     OW63751  12.224   2.101   1.850
20640SOL    HW163752  12.303   2.120   1.901
20640SOL    HW263753  12.256   2.054   1.773
20641SOL     OW63754   6.808   8.043   8.012
20641SOL    HW163755   6.749   8.095   7.958
20641SOL    HW263756   6.876   8.105   8.040
20642SOL     OW63757  12.907   4.820   6.903
20642SOL    HW163758  12.912   4.804   6.998
20642SOL    HW263759  12.838   4.761   6.873
20643SOL     OW63760  10.740   0.166  11.154
20643SOL    HW163761  10.750   0.216  11.074
20643SOL    HW263762  10.781   0.081  11.135
20644SOL     OW63763  13.471  13.024  12.599
20644SOL    HW163764  13.492  12.951  12.540
20644SOL    HW263765  13.382  13.006  12.628
20645SOL     OW63766  13.506   4.410   0.662
20645SOL    HW163767  13.442   4.380   0.727
20645SOL    HW263768  13.466   4.388   0.578
20646SOL     OW63769  12.553   4.246  12.928
20646SOL    HW163770  12.515   4.160  12.913
20646SOL    HW263771  12.507   4.279  13.005
20647SOL     OW63772   1.436   2.230   7.805
20647SOL    HW163773   1.493   2.192   7.738
20647SOL    HW263774   1.410   2.315   7.770
20648SOL     OW63775   9.018   7.714  12.848
20648SOL    HW163776   8.995   7.696  12.940
20648SOL    HW263777   9.079   7.644  12.825
20649SOL     OW63778   7.970  11.325   4.847
20649SOL    HW163779   7.930  11.375   4.776
20649SOL    HW263780   8.049  11.287   4.808
20650SOL     OW63781   5.643  13.478  11.700
20650SOL    HW163782   5.630  13.387  11.672
20650SOL    HW263783   5.601  13.483  11.786
20651SOL     OW63784   6.698   8.996   3.268
20651SOL    HW163785   6.665   8.936   3.334
20651SOL    HW263786   6.630   9.064   3.261
20652SOL     OW63787  13.960   9.339  14.765
20652SOL    HW163788  13.966   9.423  14.719
20652SOL    HW263789  13.911   9.283  14.706
20653SOL     OW63790   3.313  10.012   7.250
20653SOL    HW163791   3.231   9.965   7.263
20653SOL    HW263792   3.378   9.942   7.239
20654SOL     OW63793   2.890   3.695  13.856
20654SOL    HW163794   2.982   3.705  13.833
20654SOL    HW263795   2.882   3.602  13.878
20655SOL     OW63796  10.502   1.517  10.800
20655SOL    HW163797  10.410   1.524  10.775
20655SOL    HW263798  10.501   1.459  10.877
20656SOL     OW63799   2.523   6.299   5.334
20656SOL    HW163800   2.501   6.211   5.367
20656SOL    HW263801   2.534   6.352   5.413
20657SOL     OW63802   3.857   5.497   7.102
20657SOL    HW163803   3.850   5.591   7.121
20657SOL    HW263804   3.852   5.455   7.188
20658SOL     OW63805  13.293  10.374   7.866
20658SOL    HW163806  13.372  10.424   7.887
20658SOL    HW263807  13.287  10.308   7.935
20659SOL     OW63808  14.060   7.420   2.989
20659SOL    HW163809  14.036   7.460   2.906
20659SOL    HW263810  14.142   7.374   2.971
20660SOL     OW63811   9.612   9.896  12.980
20660SOL    HW163812   9.597   9.886  12.886
20660SOL    HW263813   9.703   9.867  12.993
20661SOL     OW63814   7.452   2.138   4.632
20661SOL    HW163815   7.506   2.217   4.635
20661SOL    HW263816   7.504   2.076   4.580
20662SOL     OW63817  10.129   8.905   0.830
20662SOL    HW163818  10.161   8.843   0.897
20662SOL    HW263819  10.182   8.885   0.753
20663SOL     OW63820   5.077   1.697   9.968
20663SOL    HW163821   5.056   1.613   9.928
20663SOL    HW263822   5.013   1.708  10.038
20664SOL     OW63823  12.625  13.185  11.907
20664SOL    HW163824  12.607  13.092  11.913
20664SOL    HW263825  12.632  13.203  11.814
20665SOL     OW63826   0.060  13.811   4.429
20665SOL    HW163827   0.080  13.741   4.366
20665SOL    HW263828   0.142  13.858   4.439
20666SOL     OW63829   8.454  14.228   6.219
20666SOL    HW163830   8.387  14.163   6.198
20666SOL    HW263831   8.518  14.221   6.148
20667SOL     OW63832  11.126   8.170   9.592
20667SOL    HW163833  11.164   8.187   9.678
20667SOL    HW263834  11.049   8.116   9.611
20668SOL     OW63835   9.573   3.752   4.395
20668SOL    HW163836   9.602   3.843   4.390
20668SOL    HW263837   9.626   3.707   4.329
20669SOL     OW63838   3.000   8.458  10.216
20669SOL    HW163839   2.969   8.367  10.213
20669SOL    HW263840   2.936   8.506  10.163
20670SOL     OW63841   1.690  14.289   7.414
20670SOL    HW163842   1.706  14.222   7.348
20670SOL    HW263843   1.770  14.341   7.417
20671SOL     OW63844  11.217   2.164  10.459
20671SOL    HW163845  11.270   2.239  10.485
20671SOL    HW263846  11.179   2.189  10.374
20672SOL     OW63847  11.540  13.900   2.493
20672SOL    HW163848  11.455  13.930   2.525
20672SOL    HW263849  11.600  13.973   2.508
20673SOL     OW63850   9.793   1.479   9.857
20673SOL    HW163851   9.875   1.450   9.897
20673SOL    HW263852   9.749   1.398   9.831
20674SOL     OW63853   9.948   7.283   5.018
20674SOL    HW163854   9.915   7.210   5.070
20674SOL    HW263855   9.913   7.361   5.060
20675SOL     OW63856   9.048   2.410  13.072
20675SOL    HW163857   8.965   2.373  13.041
20675SOL    HW263858   9.105   2.334  13.085
20676SOL     OW63859  12.463   5.761   0.646
20676SOL    HW163860  12.397   5.794   0.708
20676SOL    HW263861  12.419   5.690   0.600
20677SOL     OW63862   7.699  12.097   0.604
20677SOL    HW163863   7.682  12.059   0.518
20677SOL    HW263864   7.696  12.023   0.665
20678SOL     OW63865   9.024   0.939   5.726
20678SOL    HW163866   8.967   0.874   5.766
20678SOL    HW263867   9.021   1.014   5.786
20679SOL     OW63868   4.547   7.733  10.432
20679SOL    HW163869   4.524   7.644  10.406
20679SOL    HW263870   4.584   7.772  10.353
20680SOL     OW63871  13.737  11.853   1.671
20680SOL    HW163872  13.687  11.820   1.596
20680SOL    HW263873  13.826  11.864   1.638
20681SOL     OW63874   0.975   5.358  13.801
20681SOL    HW163875   0.888   5.362  13.840
20681SOL    HW263876   0.960   5.322  13.714
20682SOL     OW63877  11.243   1.089  14.392
20682SOL    HW163878  11.204   1.068  14.477
20682SOL    HW263879  11.174   1.134  14.344
20683SOL     OW63880   3.278   5.015   7.549
20683SOL    HW163881   3.324   4.946   7.597
20683SOL    HW263882   3.299   5.095   7.597
20684SOL     OW63883   2.715   6.786   0.055
20684SOL    HW163884   2.696   6.747  14.842
20684SOL    HW263885   2.669   6.732   0.118
20685SOL     OW63886   0.387  10.012   8.851
20685SOL    HW163887   0.369  10.049   8.765
20685SOL    HW263888   0.479   9.985   8.846
20686SOL     OW63889   9.410  11.045  10.214
20686SOL    HW163890   9.341  11.099  10.175
20686SOL    HW263891   9.454  11.104  10.276
20687SOL     OW63892   1.664   3.682  13.417
20687SOL    HW163893   1.739   3.723  13.373
20687SOL    HW263894   1.610   3.755  13.447
20688SOL     OW63895  13.615   4.549  14.192
20688SOL    HW163896  13.667   4.482  14.235
20688SOL    HW263897  13.614   4.524  14.100
20689SOL     OW63898   4.704  11.939  11.980
20689SOL    HW163899   4.760  11.885  11.924
20689SOL    HW263900   4.631  11.964  11.924
20690SOL     OW63901   0.369   6.753  11.276
20690SOL    HW163902   0.325   6.808  11.211
20690SOL    HW263903   0.301   6.691  11.305
20691SOL     OW63904   4.964  11.445  10.818
20691SOL    HW163905   4.870  11.443  10.832
20691SOL    HW263906   4.989  11.537  10.829
20692SOL     OW63907   0.092  10.276  11.664
20692SOL    HW163908  14.870  10.294  11.661
20692SOL    HW263909   0.127  10.318  11.585
20693SOL     OW63910  14.238   0.475   4.982
20693SOL    HW163911  14.212   0.562   5.013
20693SOL    HW263912  14.174   0.416   5.021
20694SOL     OW63913  12.483  12.460   1.279
20694SOL    HW163914  12.407  12.505   1.314
20694SOL    HW263915  12.554  12.482   1.339
20695SOL     OW63916   5.892   0.786   1.276
20695SOL    HW163917   5.862   0.695   1.272
20695SOL    HW263918   5.935   0.801   1.192
20696SOL     OW63919  10.441   3.275  10.854
20696SOL    HW163920  10.367   3.283  10.914
20696SOL    HW263921  10.516   3.310  10.903
20697SOL     OW63922  11.470   4.106   4.698
20697SOL    HW163923  11.508   4.022   4.724
20697SOL    HW263924  11.542   4.152   4.655
20698SOL     OW63925   5.290  11.849  12.236
20698SOL    HW163926   5.205  11.871  12.198
20698SOL    HW263927   5.345  11.926  12.219
20699SOL     OW63928   6.817   4.007   3.036
20699SOL    HW163929   6.833   4.045   2.949
20699SOL    HW263930   6.856   4.070   3.096
20700SOL     OW63931  10.929  11.021   5.511
20700SOL    HW163932  10.876  11.079   5.566
20700SOL    HW263933  10.926  11.060   5.424
20701SOL     OW63934   1.723  12.976  11.060
20701SOL    HW163935   1.633  12.977  11.091
20701SOL    HW263936   1.737  12.886  11.030
20702SOL     OW63937   3.215   4.022   1.373
20702SOL    HW163938   3.266   4.040   1.452
20702SOL    HW263939   3.130   3.990   1.405
20703SOL     OW63940   8.385  11.762   6.852
20703SOL    HW163941   8.413  11.777   6.761
20703SOL    HW263942   8.373  11.849   6.889
20704SOL     OW63943  13.064   3.763   2.323
20704SOL    HW163944  12.986   3.723   2.283
20704SOL    HW263945  13.053   3.748   2.417
20705SOL     OW63946   1.763   6.902   5.974
20705SOL    HW163947   1.800   6.815   5.992
20705SOL    HW263948   1.681   6.903   6.024
20706SOL     OW63949  11.705  10.496   8.502
20706SOL    HW163950  11.630  10.556   8.492
20706SOL    HW263951  11.666  10.415   8.533
20707SOL     OW63952   4.679  11.894   5.528
20707SOL    HW163953   4.765  11.854   5.519
20707SOL    HW263954   4.622  11.822   5.556
20708SOL     OW63955   4.264  14.141  12.974
20708SOL    HW163956   4.188  14.194  12.949
20708SOL    HW263957   4.231  14.051  12.975
20709SOL     OW63958  14.246  10.047   2.336
20709SOL    HW163959  14.193  10.119   2.300
20709SOL    HW263960  14.292  10.086   2.410
20710SOL     OW63961   2.302   9.896   1.029
20710SOL    HW163962   2.312   9.845   0.948
20710SOL    HW263963   2.372   9.865   1.086
20711SOL     OW63964  10.158  13.514   2.749
20711SOL    HW163965  10.166  13.572   2.825
20711SOL    HW263966  10.077  13.465   2.765
20712SOL     OW63967   1.603   3.557  10.374
20712SOL    HW163968   1.697   3.565  10.359
20712SOL    HW263969   1.564   3.565  10.287
20713SOL     OW63970   4.926   4.935  12.176
20713SOL    HW163971   4.993   5.001  12.195
20713SOL    HW263972   4.970   4.870  12.123
20714SOL     OW63973   1.151   8.534   7.329
20714SOL    HW163974   1.077   8.591   7.307
20714SOL    HW263975   1.227   8.591   7.331
20715SOL     OW63976   6.186   6.819   3.897
20715SOL    HW163977   6.107   6.830   3.951
20715SOL    HW263978   6.208   6.908   3.869
20716SOL     OW63979  13.982   4.760  12.230
20716SOL    HW163980  13.947   4.708  12.301
20716SOL    HW263981  13.937   4.845  12.237
20717SOL     OW63982   3.740   4.899   6.165
20717SOL    HW163983   3.760   4.960   6.236
20717SOL    HW263984   3.669   4.845   6.199
20718SOL     OW63985   2.802   6.081  10.258
20718SOL    HW163986   2.766   6.024  10.189
20718SOL    HW263987   2.799   6.169  10.220
20719SOL     OW63988   8.513   2.948   6.417
20719SOL    HW163989   8.564   2.897   6.480
20719SOL    HW263990   8.447   2.992   6.470
20720SOL     OW63991   6.696   9.947   0.673
20720SOL    HW163992   6.694  10.012   0.603
20720SOL    HW263993   6.764   9.980   0.733
20721SOL     OW63994  12.166  10.881  12.087
20721SOL    HW163995  12.156  10.971  12.116
20721SOL    HW263996  12.179  10.888  11.992
20722SOL     OW63997   5.078   1.886   5.277
20722SOL    HW163998   5.101   1.821   5.211
20722SOL    HW263999   5.086   1.970   5.232
20723SOL     OW64000  10.443   2.088   8.613
20723SOL    HW164001  10.373   2.045   8.564
20723SOL    HW264002  10.498   2.017   8.643
20724SOL     OW64003   8.769   5.645   6.127
20724SOL    HW164004   8.814   5.565   6.155
20724SOL    HW264005   8.745   5.688   6.209
20725SOL     OW64006   5.911  12.002   1.960
20725SOL    HW164007   5.828  11.971   1.924
20725SOL    HW264008   5.977  11.972   1.897
20726SOL     OW64009  11.411   2.581   8.174
20726SOL    HW164010  11.352   2.610   8.104
20726SOL    HW264011  11.486   2.543   8.127
20727SOL     OW64012  10.993   3.779   1.400
20727SOL    HW164013  10.989   3.874   1.399
20727SOL    HW264014  10.921   3.753   1.457
20728SOL     OW64015  14.687   8.323  11.826
20728SOL    HW164016  14.742   8.324  11.904
20728SOL    HW264017  14.612   8.379  11.848
20729SOL     OW64018   3.715   3.638   5.029
20729SOL    HW164019   3.742   3.632   4.938
20729SOL    HW264020   3.647   3.571   5.039
20730SOL     OW64021   2.891  11.451   7.181
20730SOL    HW164022   2.944  11.531   7.183
20730SOL    HW264023   2.881  11.431   7.088
20731SOL     OW64024   3.827   9.233   1.484
20731SOL    HW164025   3.879   9.196   1.556
20731SOL    HW264026   3.788   9.312   1.521
20732SOL     OW64027   9.667   3.788   2.972
20732SOL    HW164028   9.656   3.804   3.066
20732SOL    HW264029   9.704   3.699   2.968
20733SOL     OW64030   8.441  11.006  14.204
20733SOL    HW164031   8.443  10.933  14.265
20733SOL    HW264032   8.521  11.055  14.223
20734SOL     OW64033  14.424  14.490  10.434
20734SOL    HW164034  14.374  14.410  10.418
20734SOL    HW264035  14.454  14.482  10.525
20735SOL     OW64036   2.393   8.023  11.737
20735SOL    HW164037   2.470   7.969  11.716
20735SOL    HW264038   2.428   8.112  11.745
20736SOL     OW64039   7.198  13.975  10.222
20736SOL    HW164040   7.285  13.939  10.206
20736SOL    HW264041   7.138  13.902  10.204
20737SOL     OW64042   7.571   4.660   2.777
20737SOL    HW164043   7.533   4.582   2.738
20737SOL    HW264044   7.534   4.733   2.727
20738SOL     OW64045   6.945   9.616   9.016
20738SOL    HW164046   6.889   9.581   9.086
20738SOL    HW264047   6.907   9.583   8.935
20739SOL     OW64048   1.804   0.964   2.139
20739SOL    HW164049   1.831   1.032   2.201
20739SOL    HW264050   1.825   1.000   2.053
20740SOL     OW64051   9.316   7.208   6.874
20740SOL    HW164052   9.274   7.255   6.946
20740SOL    HW264053   9.410   7.221   6.889
20741SOL     OW64054  11.371  10.101  12.140
20741SOL    HW164055  11.369  10.142  12.053
20741SOL    HW264056  11.288  10.055  12.147
20742SOL     OW64057  12.981  11.262   9.055
20742SOL    HW164058  12.907  11.264   9.115
20742SOL    HW264059  13.033  11.339   9.078
20743SOL     OW64060  14.571   1.622   7.954
20743SOL    HW164061  14.622   1.588   8.027
20743SOL    HW264062  14.614   1.704   7.930
20744SOL     OW64063   7.815  12.591   0.918
20744SOL    HW164064   7.853  12.667   0.962
20744SOL    HW264065   7.759  12.551   0.983
20745SOL     OW64066   5.475   2.378  13.624
20745SOL    HW164067   5.408   2.312  13.605
20745SOL    HW264068   5.542   2.363  13.557
20746SOL     OW64069  13.665  10.506  12.020
20746SOL    HW164070  13.590  10.565  12.018
20746SOL    HW264071  13.716  10.534  12.096
20747SOL     OW64072   7.100   3.365   1.576
20747SOL    HW164073   7.057   3.404   1.500
20747SOL    HW264074   7.126   3.439   1.630
20748SOL     OW64075  13.510  11.482   1.548
20748SOL    HW164076  13.550  11.417   1.606
20748SOL    HW264077  13.522  11.448   1.460
20749SOL     OW64078   1.252   9.729   2.770
20749SOL    HW164079   1.286   9.640   2.776
20749SOL    HW264080   1.174   9.721   2.713
20750SOL     OW64081   2.739  14.416   9.705
20750SOL    HW164082   2.744  14.354   9.778
20750SOL    HW264083   2.829  14.447   9.693
20751SOL     OW64084   0.747   1.373  12.136
20751SOL    HW164085   0.697   1.392  12.057
20751SOL    HW264086   0.715   1.287  12.164
20752SOL     OW64087  14.442   6.591  10.159
20752SOL    HW164088  14.532   6.592  10.129
20752SOL    HW264089  14.445   6.545  10.243
20753SOL     OW64090   2.922   8.051  13.534
20753SOL    HW164091   2.848   7.991  13.541
20753SOL    HW264092   2.884   8.137  13.553
20754SOL     OW64093  11.670   0.168  13.576
20754SOL    HW164094  11.601   0.235  13.580
20754SOL    HW264095  11.717   0.187  13.495
20755SOL     OW64096  12.865   4.393   0.352
20755SOL    HW164097  12.845   4.363   0.263
20755SOL    HW264098  12.787   4.372   0.402
20756SOL     OW64099  13.499   9.477  11.142
20756SOL    HW164100  13.588   9.492  11.173
20756SOL    HW264101  13.505   9.402  11.083
20757SOL     OW64102  14.265   9.660   1.061
20757SOL    HW164103  14.228   9.721   0.997
20757SOL    HW264104  14.359   9.675   1.058
20758SOL     OW64105   6.029   1.931   3.615
20758SOL    HW164106   6.068   1.874   3.549
20758SOL    HW264107   6.100   1.948   3.677
20759SOL     OW64108  13.194   2.804  13.558
20759SOL    HW164109  13.223   2.880  13.507
20759SOL    HW264110  13.271   2.748  13.564
20760SOL     OW64111   7.115   0.367  11.073
20760SOL    HW164112   7.138   0.431  11.006
20760SOL    HW264113   7.089   0.289  11.023
20761SOL     OW64114   2.827   3.484   0.926
20761SOL    HW164115   2.745   3.442   0.903
20761SOL    HW264116   2.869   3.422   0.986
20762SOL     OW64117   6.319   1.953  11.637
20762SOL    HW164118   6.284   1.870  11.607
20762SOL    HW264119   6.272   1.972  11.718
20763SOL     OW64120  11.186  13.535  13.246
20763SOL    HW164121  11.113  13.503  13.298
20763SOL    HW264122  11.147  13.561  13.163
20764SOL     OW64123   4.233  10.853   8.279
20764SOL    HW164124   4.168  10.866   8.210
20764SOL    HW264125   4.191  10.886   8.358
20765SOL     OW64126   2.370  10.545   2.787
20765SOL    HW164127   2.310  10.528   2.860
20765SOL    HW264128   2.414  10.626   2.812
20766SOL     OW64129  11.100  10.262   3.634
20766SOL    HW164130  11.011  10.279   3.602
20766SOL    HW264131  11.093  10.178   3.680
20767SOL     OW64132   4.087   5.242  10.111
20767SOL    HW164133   4.126   5.247  10.199
20767SOL    HW264134   4.079   5.148  10.095
20768SOL     OW64135   9.765  12.198  10.364
20768SOL    HW164136   9.787  12.131  10.300
20768SOL    HW264137   9.820  12.273  10.340
20769SOL     OW64138  13.787   2.335   2.539
20769SOL    HW164139  13.840   2.405   2.578
20769SOL    HW264140  13.848   2.287   2.484
20770SOL     OW64141  11.589   5.859   8.132
20770SOL    HW164142  11.619   5.948   8.114
20770SOL    HW264143  11.600   5.848   8.226
20771SOL     OW64144   9.843  13.179   5.294
20771SOL    HW164145   9.799  13.244   5.240
20771SOL    HW264146   9.908  13.229   5.344
20772SOL     OW64147   0.083   8.711   0.910
20772SOL    HW164148   0.003   8.670   0.942
20772SOL    HW264149   0.052   8.790   0.865
20773SOL     OW64150  13.861  11.341  10.783
20773SOL    HW164151  13.870  11.429  10.821
20773SOL    HW264152  13.916  11.343  10.705
20774SOL     OW64153   8.627   4.077  13.340
20774SOL    HW164154   8.604   4.170  13.336
20774SOL    HW264155   8.556   4.037  13.390
20775SOL     OW64156  11.574   8.763   3.557
20775SOL    HW164157  11.567   8.833   3.492
20775SOL    HW264158  11.494   8.771   3.609
20776SOL     OW64159   8.417   2.112   6.507
20776SOL    HW164160   8.326   2.088   6.493
20776SOL    HW264161   8.467   2.047   6.457
20777SOL     OW64162   6.902   3.413  10.089
20777SOL    HW164163   6.989   3.403  10.050
20777SOL    HW264164   6.885   3.329  10.132
20778SOL     OW64165  10.043  11.250   8.181
20778SOL    HW164166   9.994  11.170   8.203
20778SOL    HW264167  10.018  11.312   8.249
20779SOL     OW64168  14.057   5.794   9.786
20779SOL    HW164169  14.060   5.698   9.791
20779SOL    HW264170  14.002   5.811   9.709
20780SOL     OW64171  10.351   1.219   0.878
20780SOL    HW164172  10.337   1.185   0.966
20780SOL    HW264173  10.432   1.177   0.849
20781SOL     OW64174   7.226   0.853   7.368
20781SOL    HW164175   7.277   0.932   7.354
20781SOL    HW264176   7.157   0.856   7.302
20782SOL     OW64177   9.256   4.008   6.877
20782SOL    HW164178   9.226   4.064   6.805
20782SOL    HW264179   9.175   3.972   6.914
20783SOL     OW64180   7.894   5.612   1.387
20783SOL    HW164181   7.834   5.554   1.340
20783SOL    HW264182   7.848   5.696   1.392
20784SOL     OW64183   5.366  10.151   4.349
20784SOL    HW164184   5.405  10.216   4.290
20784SOL    HW264185   5.328  10.203   4.420
20785SOL     OW64186   1.960   0.446   4.897
20785SOL    HW164187   2.019   0.380   4.860
20785SOL    HW264188   1.947   0.417   4.987
20786SOL     OW64189  10.380   4.624  12.846
20786SOL    HW164190  10.363   4.533  12.872
20786SOL    HW264191  10.355   4.627  12.753
20787SOL     OW64192   6.986   7.721   8.462
20787SOL    HW164193   7.038   7.769   8.398
20787SOL    HW264194   6.920   7.784   8.491
20788SOL     OW64195  14.593   3.316   7.720
20788SOL    HW164196  14.602   3.306   7.625
20788SOL    HW264197  14.556   3.232   7.749
20789SOL     OW64198   9.227  11.695  10.325
20789SOL    HW164199   9.197  11.678  10.236
20789SOL    HW264200   9.176  11.635  10.379
20790SOL     OW64201  13.587   5.300   1.688
20790SOL    HW164202  13.539   5.337   1.614
20790SOL    HW264203  13.537   5.222   1.713
20791SOL     OW64204   7.692   7.318   2.159
20791SOL    HW164205   7.742   7.311   2.240
20791SOL    HW264206   7.735   7.259   2.098
20792SOL     OW64207   4.034   4.791  14.355
20792SOL    HW164208   4.094   4.864  14.340
20792SOL    HW264209   4.001   4.769  14.267
20793SOL     OW64210  13.325  13.524   8.632
20793SOL    HW164211  13.388  13.498   8.699
20793SOL    HW264212  13.289  13.442   8.599
20794SOL     OW64213  14.352   7.421   6.944
20794SOL    HW164214  14.444   7.397   6.950
20794SOL    HW264215  14.353   7.517   6.942
20795SOL     OW64216  14.850   7.310   1.216
20795SOL    HW164217   0.053   7.346   1.170
20795SOL    HW264218  14.851   7.353   1.301
20796SOL     OW64219   5.165  14.257  14.725
20796SOL    HW164220   5.156  14.176  14.777
20796SOL    HW264221   5.233  14.236  14.661
20797SOL     OW64222   6.229  14.666  13.567
20797SOL    HW164223   6.285  14.592  13.546
20797SOL    HW264224   6.154  14.628  13.613
20798SOL     OW64225  12.109   8.937  12.733
20798SOL    HW164226  12.169   8.938  12.658
20798SOL    HW264227  12.069   9.024  12.732
20799SOL     OW64228  12.133   6.127   3.310
20799SOL    HW164229  12.100   6.116   3.399
20799SOL    HW264230  12.162   6.040   3.284
20800SOL     OW64231  12.698  11.274  12.927
20800SOL    HW164232  12.686  11.182  12.951
20800SOL    HW264233  12.646  11.285  12.847
20801SOL     OW64234   4.643   3.601  10.713
20801SOL    HW164235   4.658   3.691  10.686
20801SOL    HW264236   4.666   3.599  10.806
20802SOL     OW64237   7.949   4.521   9.993
20802SOL    HW164238   7.858   4.494   9.976
20802SOL    HW264239   7.956   4.523  10.088
20803SOL     OW64240   3.569   3.404  12.403
20803SOL    HW164241   3.547   3.434  12.314
20803SOL    HW264242   3.618   3.322  12.389
20804SOL     OW64243   5.544  13.070   7.802
20804SOL    HW164244   5.587  13.155   7.795
20804SOL    HW264245   5.475  13.083   7.867
20805SOL     OW64246  14.394  10.726   4.818
20805SOL    HW164247  14.324  10.668   4.847
20805SOL    HW264248  14.470  10.699   4.870
20806SOL     OW64249   4.709   6.868   3.700
20806SOL    HW164250   4.774   6.914   3.647
20806SOL    HW264251   4.748   6.863   3.787
20807SOL     OW64252   7.939   2.676   3.520
20807SOL    HW164253   8.007   2.652   3.456
20807SOL    HW264254   7.903   2.758   3.487
20808SOL     OW64255   4.915   7.496   0.102
20808SOL    HW164256   4.943   7.584   0.128
20808SOL    HW264257   4.997   7.449   0.086
20809SOL     OW64258  13.380   2.903   7.778
20809SOL    HW164259  13.327   2.881   7.854
20809SOL    HW264260  13.358   2.835   7.713
20810SOL     OW64261   1.161  11.222   3.688
20810SOL    HW164262   1.106  11.280   3.636
20810SOL    HW264263   1.226  11.280   3.728
20811SOL     OW64264  13.673  13.337   9.080
20811SOL    HW164265  13.619  13.377   9.012
20811SOL    HW264266  13.611  13.285   9.131
20812SOL     OW64267  14.364   1.687  13.176
20812SOL    HW164268  14.422   1.681  13.100
20812SOL    HW264269  14.406   1.753  13.233
20813SOL     OW64270   1.259  11.816   6.724
20813SOL    HW164271   1.209  11.749   6.678
20813SOL    HW264272   1.333  11.769   6.762
20814SOL     OW64273   6.057   4.238  10.371
20814SOL    HW164274   6.025   4.308  10.428
20814SOL    HW264275   6.074   4.281  10.287
20815SOL     OW64276   3.081   6.461   4.785
20815SOL    HW164277   3.138   6.385   4.774
20815SOL    HW264278   3.141   6.536   4.784
20816SOL     OW64279  14.410  11.185   2.498
20816SOL    HW164280  14.398  11.243   2.573
20816SOL    HW264281  14.443  11.103   2.536
20817SOL     OW64282   2.613   0.572   9.150
20817SOL    HW164283   2.563   0.517   9.089
20817SOL    HW264284   2.651   0.509   9.212
20818SOL     OW64285  10.318   0.359   6.977
20818SOL    HW164286  10.296   0.275   7.017
20818SOL    HW264287  10.285   0.424   7.039
20819SOL     OW64288   2.788   4.020   6.672
20819SOL    HW164289   2.744   3.998   6.590
20819SOL    HW264290   2.855   3.952   6.683
20820SOL     OW64291  11.194   0.941   4.777
20820SOL    HW164292  11.159   0.983   4.699
20820SOL    HW264293  11.182   0.847   4.761
20821SOL     OW64294  13.688  14.731   3.012
20821SOL    HW164295  13.757  14.780   3.057
20821SOL    HW264296  13.654  14.671   3.079
20822SOL     OW64297  14.654   4.661  14.550
20822SOL    HW164298  14.641   4.584  14.494
20822SOL    HW264299  14.716   4.715  14.502
20823SOL     OW64300  14.786   5.016  13.076
20823SOL    HW164301  14.706   5.054  13.039
20823SOL    HW264302  14.762   4.992  13.165
20824SOL     OW64303   8.772   9.876   1.264
20824SOL    HW164304   8.807   9.832   1.187
20824SOL    HW264305   8.848   9.910   1.310
20825SOL     OW64306  11.069  11.532   8.626
20825SOL    HW164307  11.148  11.584   8.641
20825SOL    HW264308  11.099  11.457   8.575
20826SOL     OW64309   9.070   5.625  14.458
20826SOL    HW164310   9.054   5.715  14.431
20826SOL    HW264311   9.037   5.572  14.386
20827SOL     OW64312   1.288   4.793   0.448
20827SOL    HW164313   1.272   4.885   0.427
20827SOL    HW264314   1.220   4.770   0.511
20828SOL     OW64315   7.098   4.277   1.210
20828SOL    HW164316   7.123   4.227   1.288
20828SOL    HW264317   7.081   4.211   1.144
20829SOL     OW64318  13.497   0.811   7.302
20829SOL    HW164319  13.531   0.837   7.216
20829SOL    HW264320  13.402   0.807   7.290
20830SOL     OW64321   7.183   2.051   6.379
20830SOL    HW164322   7.117   2.047   6.448
20830SOL    HW264323   7.168   1.972   6.327
20831SOL     OW64324   7.665  14.155  10.025
20831SOL    HW164325   7.636  14.215  10.093
20831SOL    HW264326   7.645  14.199   9.943
20832SOL     OW64327   8.815   1.648   3.347
20832SOL    HW164328   8.777   1.638   3.260
20832SOL    HW264329   8.882   1.716   3.337
20833SOL     OW64330   2.416   1.681   2.653
20833SOL    HW164331   2.388   1.727   2.574
20833SOL    HW264332   2.351   1.612   2.665
20834SOL     OW64333  12.447   2.137   0.232
20834SOL    HW164334  12.486   2.052   0.251
20834SOL    HW264335  12.462   2.149   0.138
20835SOL     OW64336  12.188  14.316   1.105
20835SOL    HW164337  12.102  14.329   1.063
20835SOL    HW264338  12.174  14.244   1.166
20836SOL     OW64339   7.364   6.926   8.814
20836SOL    HW164340   7.308   6.996   8.780
20836SOL    HW264341   7.305   6.851   8.825
20837SOL     OW64342   8.973  12.128   7.359
20837SOL    HW164343   9.067  12.147   7.355
20837SOL    HW264344   8.942  12.142   7.270
20838SOL     OW64345  12.274  11.016   6.723
20838SOL    HW164346  12.263  10.946   6.787
20838SOL    HW264347  12.238  10.981   6.642
20839SOL     OW64348   9.146   9.181  14.523
20839SOL    HW164349   9.138   9.275  14.536
20839SOL    HW264350   9.236   9.161  14.549
20840SOL     OW64351   9.093   7.466  12.733
20840SOL    HW164352   9.145   7.389  12.708
20840SOL    HW264353   9.088   7.519  12.654
20841SOL     OW64354  10.253   3.633   1.199
20841SOL    HW164355  10.345   3.658   1.192
20841SOL    HW264356  10.249   3.581   1.279
20842SOL     OW64357   6.079   7.835  12.718
20842SOL    HW164358   6.163   7.833  12.765
20842SOL    HW264359   6.031   7.760  12.752
20843SOL     OW64360  10.353   2.635   9.976
20843SOL    HW164361  10.425   2.572   9.978
20843SOL    HW264362  10.392   2.715   9.942
20844SOL     OW64363   2.820   1.929   8.724
20844SOL    HW164364   2.908   1.908   8.756
20844SOL    HW264365   2.790   2.000   8.780
20845SOL     OW64366   0.955   3.791  13.816
20845SOL    HW164367   0.869   3.756  13.792
20845SOL    HW264368   0.953   3.797  13.912
20846SOL     OW64369  14.352  12.999   0.302
20846SOL    HW164370  14.363  13.030   0.212
20846SOL    HW264371  14.338  12.905   0.294
20847SOL     OW64372   9.259   9.700   2.619
20847SOL    HW164373   9.188   9.669   2.677
20847SOL    HW264374   9.216   9.717   2.536
20848SOL     OW64375   0.965   0.335   9.927
20848SOL    HW164376   0.999   0.372   9.845
20848SOL    HW264377   0.876   0.308   9.905
20849SOL     OW64378   1.228   8.782  11.101
20849SOL    HW164379   1.210   8.701  11.148
20849SOL    HW264380   1.273   8.754  11.021
20850SOL     OW64381   8.185   0.983  12.086
20850SOL    HW164382   8.178   1.037  12.007
20850SOL    HW264383   8.266   1.012  12.128
20851SOL     OW64384  13.498   7.585  12.345
20851SOL    HW164385  13.492   7.495  12.314
20851SOL    HW264386  13.414   7.602  12.386
20852SOL     OW64387  11.204  13.881   4.186
20852SOL    HW164388  11.227  13.863   4.095
20852SOL    HW264389  11.236  13.804   4.234
20853SOL     OW64390  11.830   1.210   7.494
20853SOL    HW164391  11.771   1.271   7.451
20853SOL    HW264392  11.876   1.166   7.423
20854SOL     OW64393   0.041   5.321   3.235
20854SOL    HW164394  14.844   5.260   3.261
20854SOL    HW264395   0.122   5.275   3.258
20855SOL     OW64396  10.163   3.648  10.086
20855SOL    HW164397  10.118   3.652  10.170
20855SOL    HW264398  10.256   3.650  10.108
20856SOL     OW64399   0.660   7.407  10.678
20856SOL    HW164400   0.565   7.405  10.684
20856SOL    HW264401   0.685   7.493  10.710
20857SOL     OW64402  12.931   3.882  12.612
20857SOL    HW164403  13.015   3.928  12.610
20857SOL    HW264404  12.891   3.906  12.695
20858SOL     OW64405   2.559  13.230   2.533
20858SOL    HW164406   2.615  13.156   2.557
20858SOL    HW264407   2.543  13.276   2.615
20859SOL     OW64408   2.219   4.530  14.668
20859SOL    HW164409   2.298   4.583  14.656
20859SOL    HW264410   2.216   4.511  14.762
20860SOL     OW64411  13.375   9.519  10.439
20860SOL    HW164412  13.380   9.426  10.459
20860SOL    HW264413  13.327   9.557  10.513
20861SOL     OW64414  11.257  13.531   1.513
20861SOL    HW164415  11.226  13.451   1.470
20861SOL    HW264416  11.201  13.540   1.590
20862SOL     OW64417   9.598   1.756  11.003
20862SOL    HW164418   9.648   1.756  11.085
20862SOL    HW264419   9.640   1.689  10.949
20863SOL     OW64420   8.960   6.042   6.734
20863SOL    HW164421   8.980   5.951   6.756
20863SOL    HW264422   8.913   6.037   6.651
20864SOL     OW64423   5.910   3.400   2.326
20864SOL    HW164424   5.867   3.485   2.322
20864SOL    HW264425   5.864   3.347   2.260
20865SOL     OW64426   6.268  14.231  10.523
20865SOL    HW164427   6.334  14.300  10.515
20865SOL    HW264428   6.311  14.154  10.485
20866SOL     OW64429   6.651   6.513   7.499
20866SOL    HW164430   6.667   6.501   7.405
20866SOL    HW264431   6.615   6.429   7.528
20867SOL     OW64432  10.408  13.825  11.066
20867SOL    HW164433  10.414  13.919  11.047
20867SOL    HW264434  10.496  13.792  11.050
20868SOL     OW64435   4.583  12.960  14.693
20868SOL    HW164436   4.634  13.007  14.626
20868SOL    HW264437   4.517  12.911  14.644
20869SOL     OW64438  13.075   2.234   2.859
20869SOL    HW164439  13.131   2.308   2.836
20869SOL    HW264440  13.136   2.166   2.888
20870SOL     OW64441  13.487   9.339   4.136
20870SOL    HW164442  13.398   9.313   4.159
20870SOL    HW264443  13.511   9.279   4.065
20871SOL     OW64444   1.095  12.805  13.099
20871SOL    HW164445   1.105  12.710  13.111
20871SOL    HW264446   1.135  12.822  13.013
20872SOL     OW64447  10.063  14.128   7.261
20872SOL    HW164448  10.026  14.108   7.347
20872SOL    HW264449   9.987  14.129   7.203
20873SOL     OW64450   8.093  12.075   4.919
20873SOL    HW164451   8.029  12.089   4.989
20873SOL    HW264452   8.113  12.163   4.888
20874SOL     OW64453  13.642   4.280   9.503
20874SOL    HW164454  13.604   4.212   9.559
20874SOL    HW264455  13.673   4.347   9.565
20875SOL     OW64456  13.084   2.304   8.137
20875SOL    HW164457  13.056   2.389   8.104
20875SOL    HW264458  13.029   2.241   8.091
20876SOL     OW64459   4.018  14.105   5.521
20876SOL    HW164460   4.073  14.134   5.594
20876SOL    HW264461   4.077  14.107   5.445
20877SOL     OW64462   6.556   8.767   1.143
20877SOL    HW164463   6.643   8.804   1.129
20877SOL    HW264464   6.536   8.788   1.234
20878SOL     OW64465  12.306   1.130   4.885
20878SOL    HW164466  12.379   1.188   4.868
20878SOL    HW264467  12.282   1.095   4.799
20879SOL     OW64468  10.116   7.804   3.678
20879SOL    HW164469  10.198   7.847   3.703
20879SOL    HW264470  10.123   7.791   3.584
20880SOL     OW64471  13.296   3.733  13.236
20880SOL    HW164472  13.276   3.734  13.329
20880SOL    HW264473  13.254   3.652  13.204
20881SOL     OW64474  14.237  12.609   9.927
20881SOL    HW164475  14.209  12.543   9.865
20881SOL    HW264476  14.266  12.683   9.873
20882SOL     OW64477  10.406  12.925   8.412
20882SOL    HW164478  10.319  12.951   8.441
20882SOL    HW264479  10.464  12.948   8.485
20883SOL     OW64480  12.401   6.906  11.283
20883SOL    HW164481  12.469   6.972  11.266
20883SOL    HW264482  12.411   6.843  11.211
20884SOL     OW64483  13.046  14.267   8.656
20884SOL    HW164484  12.987  14.249   8.583
20884SOL    HW264485  13.131  14.234   8.628
20885SOL     OW64486  13.111  10.074   1.525
20885SOL    HW164487  13.185  10.121   1.563
20885SOL    HW264488  13.042  10.081   1.590
20886SOL     OW64489   5.157   6.628   3.248
20886SOL    HW164490   5.173   6.638   3.154
20886SOL    HW264491   5.129   6.715   3.276
20887SOL     OW64492   2.546  11.512   0.993
20887SOL    HW164493   2.476  11.532   0.931
20887SOL    HW264494   2.602  11.589   0.993
20888SOL     OW64495  11.079  10.389  13.976
20888SOL    HW164496  11.139  10.433  14.037
20888SOL    HW264497  11.022  10.336  14.031
20889SOL     OW64498   3.758   5.924   4.531
20889SOL    HW164499   3.691   5.930   4.598
20889SOL    HW264500   3.755   5.833   4.502
20890SOL     OW64501   1.294   2.541   8.501
20890SOL    HW164502   1.320   2.455   8.469
20890SOL    HW264503   1.376   2.587   8.517
20891SOL     OW64504  10.692  12.438   2.646
20891SOL    HW164505  10.703  12.440   2.551
20891SOL    HW264506  10.654  12.352   2.664
20892SOL     OW64507   1.997   0.430  13.869
20892SOL    HW164508   2.012   0.343  13.832
20892SOL    HW264509   1.909   0.454  13.839
20893SOL     OW64510   6.205  13.261  10.423
20893SOL    HW164511   6.264  13.331  10.451
20893SOL    HW264512   6.143  13.252  10.495
20894SOL     OW64513   0.267  13.062   7.706
20894SOL    HW164514   0.357  13.045   7.678
20894SOL    HW264515   0.261  13.157   7.713
20895SOL     OW64516  12.008  13.591   9.232
20895SOL    HW164517  12.029  13.505   9.195
20895SOL    HW264518  12.075  13.605   9.299
20896SOL     OW64519   6.118  10.757  13.283
20896SOL    HW164520   6.209  10.732  13.270
20896SOL    HW264521   6.097  10.730  13.372
20897SOL     OW64522   7.603  11.717   8.627
20897SOL    HW164523   7.538  11.653   8.597
20897SOL    HW264524   7.687  11.677   8.607
20898SOL     OW64525  10.376   2.494  11.763
20898SOL    HW164526  10.315   2.529  11.698
20898SOL    HW264527  10.463   2.518  11.729
20899SOL     OW64528  14.492  12.005   5.272
20899SOL    HW164529  14.514  12.063   5.345
20899SOL    HW264530  14.490  12.062   5.195
20900SOL     OW64531   2.887   0.877   5.399
20900SOL    HW164532   2.868   0.866   5.492
20900SOL    HW264533   2.853   0.964   5.378
20901SOL     OW64534   2.766   7.849   4.104
20901SOL    HW164535   2.679   7.821   4.073
20901SOL    HW264536   2.761   7.843   4.199
20902SOL     OW64537   3.760   4.161   8.854
20902SOL    HW164538   3.850   4.170   8.887
20902SOL    HW264539   3.716   4.108   8.919
20903SOL     OW64540   1.618  11.299  12.962
20903SOL    HW164541   1.690  11.242  12.935
20903SOL    HW264542   1.647  11.387  12.940
20904SOL     OW64543  14.448  11.732  10.233
20904SOL    HW164544  14.492  11.683  10.303
20904SOL    HW264545  14.448  11.823  10.263
20905SOL     OW64546   9.082  14.791   8.541
20905SOL    HW164547   9.079  14.805   8.446
20905SOL    HW264548   9.060  14.698   8.552
20906SOL     OW64549   4.579   5.155  11.653
20906SOL    HW164550   4.526   5.077  11.634
20906SOL    HW264551   4.645   5.124  11.716
20907SOL     OW64552  13.886   0.720  13.199
20907SOL    HW164553  13.947   0.647  13.190
20907SOL    HW264554  13.918   0.786  13.137
20908SOL     OW64555  10.156   3.935   8.722
20908SOL    HW164556  10.177   3.904   8.810
20908SOL    HW264557  10.194   4.023   8.718
20909SOL     OW64558  10.822  10.759   5.581
20909SOL    HW164559  10.901  10.708   5.596
20909SOL    HW264560  10.847  10.849   5.599
20910SOL     OW64561   8.811   7.216   3.804
20910SOL    HW164562   8.749   7.163   3.753
20910SOL    HW264563   8.756   7.258   3.871
20911SOL     OW64564   1.995   6.463  11.594
20911SOL    HW164565   1.906   6.474  11.626
20911SOL    HW264566   1.986   6.410  11.515
20912SOL     OW64567  14.171   3.162   9.001
20912SOL    HW164568  14.077   3.173   9.017
20912SOL    HW264569  14.209   3.153   9.089
20913SOL     OW64570  11.769   4.988   4.754
20913SOL    HW164571  11.718   4.952   4.827
20913SOL    HW264572  11.776   4.916   4.691
20914SOL     OW64573   2.356   4.114   7.147
20914SOL    HW164574   2.324   4.173   7.216
20914SOL    HW264575   2.447   4.097   7.170
20915SOL     OW64576   5.420   3.220  12.758
20915SOL    HW164577   5.442   3.131  12.786
20915SOL    HW264578   5.344   3.209  12.701
20916SOL     OW64579  10.489  11.864   8.480
20916SOL    HW164580  10.432  11.795   8.444
20916SOL    HW264581  10.550  11.816   8.537
20917SOL     OW64582  12.346   8.148   4.523
20917SOL    HW164583  12.407   8.079   4.499
20917SOL    HW264584  12.317   8.184   4.439
20918SOL     OW64585  13.042  12.045  12.377
20918SOL    HW164586  12.956  12.060  12.415
20918SOL    HW264587  13.029  11.974  12.314
20919SOL     OW64588   4.271   2.152   9.652
20919SOL    HW164589   4.197   2.211   9.640
20919SOL    HW264590   4.297   2.127   9.563
20920SOL     OW64591   2.354   1.504   3.200
20920SOL    HW164592   2.273   1.501   3.149
20920SOL    HW264593   2.333   1.558   3.276
20921SOL     OW64594   9.271  11.115   0.852
20921SOL    HW164595   9.196  11.093   0.907
20921SOL    HW264596   9.347  11.102   0.909
20922SOL     OW64597  13.112   1.033   4.942
20922SOL    HW164598  13.104   1.026   5.037
20922SOL    HW264599  13.187   1.090   4.929
20923SOL     OW64600  13.777   0.339   7.360
20923SOL    HW164601  13.833   0.271   7.322
20923SOL    HW264602  13.688   0.305   7.352
20924SOL     OW64603   1.454   5.500   0.490
20924SOL    HW164604   1.515   5.475   0.421
20924SOL    HW264605   1.374   5.451   0.471
20925SOL     OW64606   7.808  14.833  13.791
20925SOL    HW164607   7.824  14.739  13.783
20925SOL    HW264608   7.896  14.872  13.795
20926SOL     OW64609   0.150   6.571   1.114
20926SOL    HW164610   0.237   6.537   1.091
20926SOL    HW264611   0.157   6.666   1.101
20927SOL     OW64612  10.177   3.829   9.376
20927SOL    HW164613  10.093   3.866   9.405
20927SOL    HW264614  10.155   3.741   9.345
20928SOL     OW64615   5.148  11.255  10.781
20928SOL    HW164616   5.225  11.287  10.827
20928SOL    HW264617   5.087  11.329  10.783
20929SOL     OW64618  12.189  13.366   7.871
20929SOL    HW164619  12.255  13.341   7.935
20929SOL    HW264620  12.109  13.323   7.901
20930SOL     OW64621   5.128   0.671   4.085
20930SOL    HW164622   5.090   0.759   4.093
20930SOL    HW264623   5.141   0.659   3.991
20931SOL     OW64624  12.846   4.103   8.571
20931SOL    HW164625  12.773   4.164   8.561
20931SOL    HW264626  12.909   4.150   8.627
20932SOL     OW64627   6.743   6.150   6.022
20932SOL    HW164628   6.794   6.086   6.071
20932SOL    HW264629   6.789   6.233   6.036
20933SOL     OW64630   6.839   8.331   5.029
20933SOL    HW164631   6.902   8.376   5.086
20933SOL    HW264632   6.787   8.278   5.089
20934SOL     OW64633   9.960  13.483  13.104
20934SOL    HW164634   9.922  13.505  13.189
20934SOL    HW264635   9.967  13.566  13.058
20935SOL     OW64636   2.025  10.500   1.378
20935SOL    HW164637   2.023  10.405   1.387
20935SOL    HW264638   2.076  10.517   1.299
20936SOL     OW64639   4.649   1.878  13.267
20936SOL    HW164640   4.699   1.902  13.189
20936SOL    HW264641   4.595   1.804  13.239
20937SOL     OW64642   5.029   5.121  10.581
20937SOL    HW164643   5.045   5.102  10.673
20937SOL    HW264644   5.053   5.213  10.571
20938SOL     OW64645   3.294   1.051  12.170
20938SOL    HW164646   3.310   1.136  12.210
20938SOL    HW264647   3.219   1.015  12.217
20939SOL     OW64648  12.565   3.266   1.445
20939SOL    HW164649  12.659   3.268   1.428
20939SOL    HW264650  12.526   3.311   1.371
20940SOL     OW64651   4.423  14.483   3.573
20940SOL    HW164652   4.347  14.524   3.613
20940SOL    HW264653   4.435  14.530   3.491
20941SOL     OW64654   8.135   0.838   4.979
20941SOL    HW164655   8.218   0.794   4.996
20941SOL    HW264656   8.100   0.857   5.066
20942SOL     OW64657   7.780   6.588   7.804
20942SOL    HW164658   7.846   6.628   7.860
20942SOL    HW264659   7.723   6.661   7.778
20943SOL     OW64660  13.483   6.448   2.532
20943SOL    HW164661  13.485   6.437   2.627
20943SOL    HW264662  13.392   6.469   2.512
20944SOL     OW64663  14.479  10.730  12.320
20944SOL    HW164664  14.564  10.765  12.349
20944SOL    HW264665  14.414  10.780  12.370
20945SOL     OW64666   3.219   6.399   1.823
20945SOL    HW164667   3.221   6.433   1.734
20945SOL    HW264668   3.126   6.387   1.842
20946SOL     OW64669   4.122   6.985   0.803
20946SOL    HW164670   4.036   7.025   0.796
20946SOL    HW264671   4.183   7.058   0.797
20947SOL     OW64672   8.664   3.871   4.592
20947SOL    HW164673   8.745   3.824   4.614
20947SOL    HW264674   8.594   3.809   4.612
20948SOL     OW64675   7.207   4.186  13.193
20948SOL    HW164676   7.297   4.172  13.221
20948SOL    HW264677   7.159   4.204  13.274
20949SOL     OW64678   6.187   2.590  12.642
20949SOL    HW164679   6.215   2.575  12.733
20949SOL    HW264680   6.145   2.677  12.644
20950SOL     OW64681  11.088   7.006   8.020
20950SOL    HW164682  11.121   7.021   7.932
20950SOL    HW264683  11.153   6.951   8.062
20951SOL     OW64684   9.279  13.839  13.907
20951SOL    HW164685   9.214  13.840  13.837
20951SOL    HW264686   9.363  13.838  13.863
20952SOL     OW64687  14.547   1.214   6.111
20952SOL    HW164688  14.520   1.204   6.020
20952SOL    HW264689  14.501   1.293   6.141
20953SOL     OW64690   9.154   2.994   2.920
20953SOL    HW164691   9.233   2.942   2.934
20953SOL    HW264692   9.186   3.081   2.894
20954SOL     OW64693   1.016  13.857   1.264
20954SOL    HW164694   1.087  13.862   1.327
20954SOL    HW264695   0.967  13.939   1.276
20955SOL     OW64696  12.377   7.475   3.640
20955SOL    HW164697  12.427   7.403   3.679
20955SOL    HW264698  12.443   7.543   3.625
20956SOL     OW64699   5.620   4.884   5.559
20956SOL    HW164700   5.534   4.902   5.520
20956SOL    HW264701   5.604   4.811   5.619
20957SOL     OW64702   5.020  11.645   8.648
20957SOL    HW164703   5.098  11.690   8.681
20957SOL    HW264704   4.981  11.605   8.725
20958SOL     OW64705   2.994  12.352  14.003
20958SOL    HW164706   2.957  12.391  14.082
20958SOL    HW264707   3.076  12.312  14.032
20959SOL     OW64708   8.623   5.000   9.980
20959SOL    HW164709   8.715   4.978   9.968
20959SOL    HW264710   8.591   5.018   9.891
20960SOL     OW64711  10.299   6.569   7.642
20960SOL    HW164712  10.291   6.662   7.661
20960SOL    HW264713  10.381   6.561   7.593
20961SOL     OW64714  14.592  10.555  11.549
20961SOL    HW164715  14.608  10.463  11.567
20961SOL    HW264716  14.589  10.596  11.636
20962SOL     OW64717   2.625   3.186  11.347
20962SOL    HW164718   2.541   3.158  11.382
20962SOL    HW264719   2.604   3.264  11.295
20963SOL     OW64720   2.235   6.918  12.203
20963SOL    HW164721   2.195   6.841  12.164
20963SOL    HW264722   2.326   6.893  12.218
20964SOL     OW64723   1.139   5.768   6.929
20964SOL    HW164724   1.142   5.746   7.022
20964SOL    HW264725   1.074   5.838   6.923
20965SOL     OW64726   5.785   7.322  13.102
20965SOL    HW164727   5.716   7.256  13.111
20965SOL    HW264728   5.759   7.393  13.160
20966SOL     OW64729   9.154   7.383  10.794
20966SOL    HW164730   9.177   7.327  10.868
20966SOL    HW264731   9.112   7.460  10.835
20967SOL     OW64732  10.028   5.792   7.528
20967SOL    HW164733   9.998   5.844   7.602
20967SOL    HW264734  10.059   5.710   7.568
20968SOL     OW64735   3.018   5.073   1.567
20968SOL    HW164736   2.929   5.075   1.531
20968SOL    HW264737   3.075   5.089   1.492
20969SOL     OW64738  11.724  13.490   1.226
20969SOL    HW164739  11.804  13.540   1.235
20969SOL    HW264740  11.657  13.555   1.202
20970SOL     OW64741   7.153   1.067  12.669
20970SOL    HW164742   7.166   1.014  12.747
20970SOL    HW264743   7.174   1.156  12.697
20971SOL     OW64744   3.196   6.526  13.321
20971SOL    HW164745   3.225   6.440  13.350
20971SOL    HW264746   3.275   6.580  13.320
20972SOL     OW64747  10.899   3.859   3.561
20972SOL    HW164748  10.966   3.899   3.616
20972SOL    HW264749  10.840   3.816   3.622
20973SOL     OW64750  12.625  10.733   1.427
20973SOL    HW164751  12.665  10.819   1.441
20973SOL    HW264752  12.586  10.711   1.512
20974SOL     OW64753  12.069   8.376   0.120
20974SOL    HW164754  12.137   8.393   0.186
20974SOL    HW264755  12.035   8.462   0.097
20975SOL     OW64756  11.329   9.075   5.932
20975SOL    HW164757  11.336   8.998   5.876
20975SOL    HW264758  11.236   9.082   5.952
20976SOL     OW64759   0.511   0.770  14.421
20976SOL    HW164760   0.508   0.864  14.400
20976SOL    HW264761   0.465   0.728  14.349
20977SOL     OW64762   2.967   4.295   0.471
20977SOL    HW164763   2.969   4.279   0.377
20977SOL    HW264764   2.884   4.259   0.500
20978SOL     OW64765  11.469  12.406   5.129
20978SOL    HW164766  11.402  12.402   5.197
20978SOL    HW264767  11.496  12.315   5.116
20979SOL     OW64768   1.258   4.784   9.171
20979SOL    HW164769   1.294   4.873   9.172
20979SOL    HW264770   1.327   4.731   9.131
20980SOL     OW64771   1.894   1.935   8.962
20980SOL    HW164772   1.893   1.881   8.883
20980SOL    HW264773   1.804   1.933   8.993
20981SOL     OW64774  13.755   0.698   2.187
20981SOL    HW164775  13.822   0.647   2.232
20981SOL    HW264776  13.796   0.725   2.105
20982SOL     OW64777   4.029   2.797   0.464
20982SOL    HW164778   3.993   2.739   0.397
20982SOL    HW264779   3.998   2.760   0.547
20983SOL     OW64780  14.141   1.818   1.692
20983SOL    HW164781  14.060   1.779   1.724
20983SOL    HW264782  14.123   1.912   1.688
20984SOL     OW64783   2.032   7.018  11.905
20984SOL    HW164784   2.067   6.994  11.819
20984SOL    HW264785   2.094   6.980  11.968
20985SOL     OW64786   3.558   3.593   1.438
20985SOL    HW164787   3.649   3.591   1.409
20985SOL    HW264788   3.507   3.588   1.357
20986SOL     OW64789   2.836   9.356  12.726
20986SOL    HW164790   2.767   9.322  12.669
20986SOL    HW264791   2.792   9.421  12.781
20987SOL     OW64792   0.769   1.061  14.392
20987SOL    HW164793   0.674   1.050  14.389
20987SOL    HW264794   0.800   0.991  14.450
20988SOL     OW64795   9.947   2.531   4.260
20988SOL    HW164796   9.903   2.517   4.343
20988SOL    HW264797  10.024   2.584   4.282
20989SOL     OW64798  12.100   8.262   9.824
20989SOL    HW164799  12.174   8.228   9.873
20989SOL    HW264800  12.128   8.349   9.796
20990SOL     OW64801   8.689  14.131   4.271
20990SOL    HW164802   8.631  14.129   4.195
20990SOL    HW264803   8.662  14.055   4.323
20991SOL     OW64804   1.646  13.088   7.916
20991SOL    HW164805   1.579  13.149   7.946
20991SOL    HW264806   1.647  13.019   7.981
20992SOL     OW64807  11.680  14.366  13.809
20992SOL    HW164808  11.735  14.300  13.852
20992SOL    HW264809  11.685  14.442  13.867
20993SOL     OW64810  11.601  10.122   9.892
20993SOL    HW164811  11.596  10.085   9.980
20993SOL    HW264812  11.584  10.215   9.905
20994SOL     OW64813  13.925  12.132   3.049
20994SOL    HW164814  13.898  12.128   2.957
20994SOL    HW264815  14.018  12.112   3.047
20995SOL     OW64816   4.049   8.666   4.616
20995SOL    HW164817   3.985   8.683   4.685
20995SOL    HW264818   4.036   8.736   4.553
20996SOL     OW64819   6.884  13.452   6.386
20996SOL    HW164820   6.931  13.512   6.329
20996SOL    HW264821   6.914  13.473   6.474
20997SOL     OW64822   4.347   9.073   6.461
20997SOL    HW164823   4.380   9.056   6.373
20997SOL    HW264824   4.390   9.155   6.487
20998SOL     OW64825   5.425   0.247   8.014
20998SOL    HW164826   5.495   0.286   7.963
20998SOL    HW264827   5.466   0.225   8.098
20999SOL     OW64828   4.114  13.032   1.527
20999SOL    HW164829   4.178  13.037   1.597
20999SOL    HW264830   4.117  13.118   1.485
21000SOL     OW64831  11.536   5.503  14.350
21000SOL    HW164832  11.503   5.571  14.409
21000SOL    HW264833  11.584   5.443  14.408
21001SOL     OW64834   4.708   0.962   7.633
21001SOL    HW164835   4.803   0.954   7.638
21001SOL    HW264836   4.675   0.892   7.690
21002SOL     OW64837   5.427   3.321  11.935
21002SOL    HW164838   5.487   3.267  11.882
21002SOL    HW264839   5.481   3.395  11.963
21003SOL     OW64840   0.934   2.695  11.221
21003SOL    HW164841   0.844   2.661  11.216
21003SOL    HW264842   0.988   2.626  11.184
21004SOL     OW64843  12.382   0.442   9.405
21004SOL    HW164844  12.341   0.384   9.341
21004SOL    HW264845  12.475   0.421   9.400
21005SOL     OW64846   2.917   2.383   2.017
21005SOL    HW164847   2.980   2.397   1.947
21005SOL    HW264848   2.831   2.386   1.974
21006SOL     OW64849   9.464  12.390   7.786
21006SOL    HW164850   9.536  12.332   7.760
21006SOL    HW264851   9.394  12.330   7.813
21007SOL     OW64852   5.920   9.028   9.243
21007SOL    HW164853   5.972   9.097   9.202
21007SOL    HW264854   5.867   9.074   9.308
21008SOL     OW64855   1.332   3.211   0.094
21008SOL    HW164856   1.272   3.266   0.044
21008SOL    HW264857   1.345   3.257   0.176
21009SOL     OW64858  12.064   1.164   1.755
21009SOL    HW164859  12.023   1.231   1.810
21009SOL    HW264860  12.147   1.203   1.728
21010SOL     OW64861   0.121   2.159  14.560
21010SOL    HW164862   0.039   2.208  14.568
21010SOL    HW264863   0.189   2.226  14.564
21011SOL     OW64864   4.596  11.052  10.308
21011SOL    HW164865   4.668  11.087  10.256
21011SOL    HW264866   4.558  11.129  10.351
21012SOL     OW64867   3.149  14.838  14.441
21012SOL    HW164868   3.216  14.846  14.509
21012SOL    HW264869   3.190  14.784  14.373
21013SOL     OW64870  10.427   5.482  11.861
21013SOL    HW164871  10.359   5.457  11.798
21013SOL    HW264872  10.462   5.399  11.894
21014SOL     OW64873  11.461   8.338   9.675
21014SOL    HW164874  11.480   8.285   9.598
21014SOL    HW264875  11.415   8.279   9.735
21015SOL     OW64876   4.776   1.181  10.232
21015SOL    HW164877   4.704   1.208  10.289
21015SOL    HW264878   4.736   1.117  10.172
21016SOL     OW64879  10.099   8.178   0.812
21016SOL    HW164880  10.049   8.247   0.856
21016SOL    HW264881  10.122   8.216   0.727
21017SOL     OW64882   5.580   0.264   8.259
21017SOL    HW164883   5.618   0.350   8.275
21017SOL    HW264884   5.579   0.221   8.344
21018SOL     OW64885  11.683  11.054  11.360
21018SOL    HW164886  11.706  11.038  11.269
21018SOL    HW264887  11.595  11.018  11.369
21019SOL     OW64888   8.400   1.222   7.538
21019SOL    HW164889   8.382   1.314   7.554
21019SOL    HW264890   8.324   1.176   7.573
21020SOL     OW64891   7.876   2.766   8.974
21020SOL    HW164892   7.972   2.774   8.972
21020SOL    HW264893   7.855   2.759   9.067
21021SOL     OW64894  14.690   3.865   1.425
21021SOL    HW164895  14.678   3.900   1.513
21021SOL    HW264896  14.608   3.885   1.379
21022SOL     OW64897  13.265  14.121   5.348
21022SOL    HW164898  13.223  14.044   5.384
21022SOL    HW264899  13.193  14.171   5.308
21023SOL     OW64900  13.615   0.019  14.413
21023SOL    HW164901  13.609   0.033  14.319
21023SOL    HW264902  13.660  14.807  14.422
21024SOL     OW64903   7.262  11.647  10.826
21024SOL    HW164904   7.204  11.711  10.867
21024SOL    HW264905   7.341  11.648  10.880
21025SOL     OW64906   9.689   3.545   4.103
21025SOL    HW164907   9.682   3.620   4.044
21025SOL    HW264908   9.777   3.552   4.140
21026SOL     OW64909   7.773   7.200  13.568
21026SOL    HW164910   7.816   7.262  13.509
21026SOL    HW264911   7.737   7.255  13.638
21027SOL     OW64912  10.558   3.458  10.375
21027SOL    HW164913  10.576   3.470  10.468
21027SOL    HW264914  10.636   3.491  10.331
21028SOL     OW64915   4.848   4.242   4.001
21028SOL    HW164916   4.771   4.205   4.045
21028SOL    HW264917   4.884   4.304   4.064
21029SOL     OW64918  11.581   4.858  13.919
21029SOL    HW164919  11.499   4.847  13.871
21029SOL    HW264920  11.558   4.915  13.992
21030SOL     OW64921   8.130   7.094   2.788
21030SOL    HW164922   8.075   7.019   2.809
21030SOL    HW264923   8.200   7.058   2.733
21031SOL     OW64924  13.430  12.443   1.172
21031SOL    HW164925  13.404  12.436   1.264
21031SOL    HW264926  13.376  12.513   1.136
21032SOL     OW64927   1.775   9.668  10.500
21032SOL    HW164928   1.832   9.597  10.528
21032SOL    HW264929   1.689   9.626  10.489
21033SOL     OW64930   8.371  11.159  12.747
21033SOL    HW164931   8.446  11.145  12.688
21033SOL    HW264932   8.295  11.131  12.696
21034SOL     OW64933  10.390   5.764   0.472
21034SOL    HW164934  10.308   5.738   0.430
21034SOL    HW264935  10.446   5.687   0.464
21035SOL     OW64936   3.855   5.014   5.957
21035SOL    HW164937   3.926   4.950   5.949
21035SOL    HW264938   3.801   4.982   6.028
21036SOL     OW64939   4.263   5.999   8.169
21036SOL    HW164940   4.264   5.926   8.231
21036SOL    HW264941   4.278   6.077   8.223
21037SOL     OW64942  12.126   8.721   5.419
21037SOL    HW164943  12.044   8.674   5.403
21037SOL    HW264944  12.193   8.665   5.381
21038SOL     OW64945  10.181  12.663   9.085
21038SOL    HW164946  10.177  12.749   9.126
21038SOL    HW264947  10.268  12.630   9.109
21039SOL     OW64948   9.698   5.081  12.906
21039SOL    HW164949   9.767   5.038  12.855
21039SOL    HW264950   9.723   5.067  12.997
21040SOL     OW64951   2.273  14.324   3.255
21040SOL    HW164952   2.183  14.302   3.231
21040SOL    HW264953   2.284  14.286   3.343
21041SOL     OW64954   5.597  11.404   8.955
21041SOL    HW164955   5.607  11.330   8.895
21041SOL    HW264956   5.606  11.365   9.042
21042SOL     OW64957   5.176   1.430   5.593
21042SOL    HW164958   5.122   1.460   5.520
21042SOL    HW264959   5.249   1.384   5.552
21043SOL     OW64960   7.050   5.071   5.332
21043SOL    HW164961   7.094   5.128   5.268
21043SOL    HW264962   7.039   5.126   5.410
21044SOL     OW64963   2.452  10.817   2.927
21044SOL    HW164964   2.387  10.859   2.870
21044SOL    HW264965   2.530  10.873   2.919
21045SOL     OW64966   3.856   5.876   0.679
21045SOL    HW164967   3.771   5.887   0.722
21045SOL    HW264968   3.897   5.962   0.683
21046SOL     OW64969   6.661   8.060   5.121
21046SOL    HW164970   6.610   8.138   5.143
21046SOL    HW264971   6.606   7.987   5.148
21047SOL     OW64972   7.113  12.170   2.202
21047SOL    HW164973   7.151  12.128   2.124
21047SOL    HW264974   7.158  12.129   2.276
21048SOL     OW64975   7.109   9.615   7.652
21048SOL    HW164976   7.182   9.663   7.691
21048SOL    HW264977   7.150   9.558   7.586
21049SOL     OW64978   6.498  14.846  10.170
21049SOL    HW164979   6.513  14.821  10.261
21049SOL    HW264980   6.564   0.040  10.152
21050SOL     OW64981   1.095   0.213   2.692
21050SOL    HW164982   1.148   0.183   2.766
21050SOL    HW264983   1.135   0.172   2.615
21051SOL     OW64984   7.383   7.712   8.899
21051SOL    HW164985   7.412   7.796   8.935
21051SOL    HW264986   7.464   7.662   8.886
21052SOL     OW64987   5.584  13.201  11.309
21052SOL    HW164988   5.546  13.136  11.250
21052SOL    HW264989   5.665  13.228  11.267
21053SOL     OW64990  10.531  13.586   9.766
21053SOL    HW164991  10.608  13.534   9.746
21053SOL    HW264992  10.548  13.671   9.726
21054SOL     OW64993   6.960   1.402  11.995
21054SOL    HW164994   7.029   1.341  12.018
21054SOL    HW264995   6.922   1.366  11.914
21055SOL     OW64996   0.958  10.525  10.927
21055SOL    HW164997   1.018  10.531  11.002
21055SOL    HW264998   0.959  10.433  10.903
21056SOL     OW64999   5.983   0.581   6.047
21056SOL    HW165000   6.055   0.628   6.089
21056SOL    HW265001   6.020   0.496   6.022
21057SOL     OW65002   4.501  10.765   8.305
21057SOL    HW165003   4.409  10.790   8.309
21057SOL    HW265004   4.515  10.741   8.213
21058SOL     OW65005  12.923   7.698  12.872
21058SOL    HW165006  13.005   7.702  12.823
21058SOL    HW265007  12.858   7.670  12.808
21059SOL     OW65008   8.704   5.176   7.196
21059SOL    HW165009   8.660   5.164   7.281
21059SOL    HW265010   8.645   5.136   7.133
21060SOL     OW65011  12.325   9.610   3.433
21060SOL    HW165012  12.362   9.526   3.408
21060SOL    HW265013  12.285   9.594   3.519
21061SOL     OW65014  14.268   1.132   1.451
21061SOL    HW165015  14.279   1.099   1.362
21061SOL    HW265016  14.220   1.062   1.496
21062SOL     OW65017   9.436  14.424   2.725
21062SOL    HW165018   9.481  14.389   2.802
21062SOL    HW265019   9.460  14.364   2.654
21063SOL     OW65020   6.594  14.201   8.370
21063SOL    HW165021   6.505  14.228   8.391
21063SOL    HW265022   6.622  14.262   8.301
21064SOL     OW65023  10.208  14.190   0.697
21064SOL    HW165024  10.245  14.113   0.741
21064SOL    HW265025  10.210  14.167   0.604
21065SOL     OW65026  14.422   6.378   4.676
21065SOL    HW165027  14.444   6.315   4.608
21065SOL    HW265028  14.440   6.333   4.759
21066SOL     OW65029   0.075   3.028   1.428
21066SOL    HW165030   0.036   2.979   1.355
21066SOL    HW265031   0.058   3.120   1.408
21067SOL     OW65032   2.602   8.119   7.562
21067SOL    HW165033   2.673   8.122   7.626
21067SOL    HW265034   2.642   8.082   7.483
21068SOL     OW65035  12.654   9.000   7.473
21068SOL    HW165036  12.569   9.018   7.432
21068SOL    HW265037  12.637   8.932   7.537
21069SOL     OW65038   8.147   2.507  11.822
21069SOL    HW165039   8.076   2.472  11.769
21069SOL    HW265040   8.132   2.602  11.823
21070SOL     OW65041  12.329  14.524   3.235
21070SOL    HW165042  12.245  14.500   3.274
21070SOL    HW265043  12.350  14.608   3.275
21071SOL     OW65044   1.215   0.574   7.567
21071SOL    HW165045   1.183   0.488   7.540
21071SOL    HW265046   1.199   0.630   7.491
21072SOL     OW65047  14.824   9.017   5.596
21072SOL    HW165048  14.846   9.090   5.538
21072SOL    HW265049   0.036   8.989   5.633
21073SOL     OW65050  14.731   9.782   3.686
21073SOL    HW165051  14.674   9.846   3.729
21073SOL    HW265052  14.764   9.828   3.608
21074SOL     OW65053  11.249   7.633   1.263
21074SOL    HW165054  11.240   7.551   1.215
21074SOL    HW265055  11.331   7.624   1.312
21075SOL     OW65056   9.675   8.583   0.915
21075SOL    HW165057   9.706   8.531   0.841
21075SOL    HW265058   9.680   8.674   0.884
21076SOL     OW65059  12.353  11.767   9.993
21076SOL    HW165060  12.350  11.817   9.912
21076SOL    HW265061  12.369  11.832  10.061
21077SOL     OW65062   8.955   3.368   7.663
21077SOL    HW165063   8.893   3.419   7.715
21077SOL    HW265064   8.899   3.305   7.616
21078SOL     OW65065  10.763  12.260   5.801
21078SOL    HW165066  10.770  12.169   5.773
21078SOL    HW265067  10.818  12.308   5.739
21079SOL     OW65068   7.952   3.835   5.426
21079SOL    HW165069   7.870   3.833   5.376
21079SOL    HW265070   8.015   3.876   5.366
21080SOL     OW65071  11.022   7.886   3.704
21080SOL    HW165072  11.092   7.824   3.683
21080SOL    HW265073  10.999   7.865   3.795
21081SOL     OW65074  11.110   6.837  14.643
21081SOL    HW165075  11.173   6.828  14.572
21081SOL    HW265076  11.032   6.789  14.613
21082SOL     OW65077   3.173  13.799   2.252
21082SOL    HW165078   3.135  13.747   2.181
21082SOL    HW265079   3.261  13.819   2.223
21083SOL     OW65080   5.869   8.712  10.482
21083SOL    HW165081   5.939   8.756  10.530
21083SOL    HW265082   5.865   8.624  10.521
21084SOL     OW65083   6.459   6.730   7.540
21084SOL    HW165084   6.542   6.681   7.539
21084SOL    HW265085   6.394   6.667   7.508
21085SOL     OW65086   9.786   7.863   6.095
21085SOL    HW165087   9.846   7.937   6.094
21085SOL    HW265088   9.756   7.855   6.004
21086SOL     OW65089   4.383  14.834  12.445
21086SOL    HW165090   4.354  14.816  12.535
21086SOL    HW265091   4.410   0.054  12.447
21087SOL     OW65092   8.974   9.821   8.356
21087SOL    HW165093   9.054   9.847   8.310
21087SOL    HW265094   9.003   9.751   8.416
21088SOL     OW65095   8.919   5.518   6.756
21088SOL    HW165096   8.940   5.448   6.819
21088SOL    HW265097   8.826   5.533   6.768
21089SOL     OW65098  10.992  12.512  11.808
21089SOL    HW165099  11.052  12.571  11.763
21089SOL    HW265100  11.049  12.448  11.851
21090SOL     OW65101   5.401   1.420   4.781
21090SOL    HW165102   5.313   1.455   4.794
21090SOL    HW265103   5.460   1.494   4.795
21091SOL     OW65104  10.475   4.930  12.554
21091SOL    HW165105  10.521   4.895  12.477
21091SOL    HW265106  10.523   4.894  12.629
21092SOL     OW65107   2.333   2.400   2.790
21092SOL    HW165108   2.259   2.376   2.846
21092SOL    HW265109   2.406   2.411   2.851
21093SOL     OW65110   8.160   8.407   2.168
21093SOL    HW165111   8.213   8.435   2.242
21093SOL    HW265112   8.213   8.427   2.091
21094SOL     OW65113   5.000  14.222  10.923
21094SOL    HW165114   4.968  14.261  10.841
21094SOL    HW265115   5.052  14.291  10.964
21095SOL     OW65116  13.663   6.549  13.478
21095SOL    HW165117  13.649   6.456  13.492
21095SOL    HW265118  13.680   6.557  13.384
21096SOL     OW65119   5.717   2.231  13.122
21096SOL    HW165120   5.808   2.244  13.149
21096SOL    HW265121   5.703   2.136  13.132
21097SOL     OW65122   2.252   5.379   1.653
21097SOL    HW165123   2.241   5.453   1.713
21097SOL    HW265124   2.324   5.328   1.690
21098SOL     OW65125   8.392  12.923   3.463
21098SOL    HW165126   8.458  12.956   3.524
21098SOL    HW265127   8.441  12.870   3.400
21099SOL     OW65128  12.189   9.573   1.663
21099SOL    HW165129  12.173   9.562   1.757
21099SOL    HW265130  12.143   9.654   1.641
21100SOL     OW65131  10.428   7.148  11.560
21100SOL    HW165132  10.376   7.174  11.637
21100SOL    HW265133  10.440   7.229  11.511
21101SOL     OW65134   3.200   5.957   2.560
21101SOL    HW165135   3.237   5.949   2.648
21101SOL    HW265136   3.232   6.041   2.527
21102SOL     OW65137   1.629   3.463   6.818
21102SOL    HW165138   1.677   3.544   6.830
21102SOL    HW265139   1.577   3.453   6.898
21103SOL     OW65140   1.561  14.177   5.027
21103SOL    HW165141   1.505  14.181   4.949
21103SOL    HW265142   1.517  14.116   5.085
21104SOL     OW65143  12.457  11.017   2.028
21104SOL    HW165144  12.411  11.090   1.986
21104SOL    HW265145  12.547  11.047   2.037
21105SOL     OW65146   2.685  11.358   7.795
21105SOL    HW165147   2.615  11.420   7.774
21105SOL    HW265148   2.723  11.390   7.877
21106SOL     OW65149   3.108  13.447   2.666
21106SOL    HW165150   3.056  13.483   2.595
21106SOL    HW265151   3.089  13.353   2.664
21107SOL     OW65152   8.605   9.127   0.654
21107SOL    HW165153   8.532   9.136   0.592
21107SOL    HW265154   8.682   9.150   0.603
21108SOL     OW65155   6.715   6.592   3.796
21108SOL    HW165156   6.789   6.648   3.820
21108SOL    HW265157   6.734   6.508   3.838
21109SOL     OW65158   3.382  13.715   7.466
21109SOL    HW165159   3.312  13.731   7.530
21109SOL    HW265160   3.345  13.747   7.383
21110SOL     OW65161   6.580   6.940  13.931
21110SOL    HW165162   6.564   7.033  13.920
21110SOL    HW265163   6.519   6.898  13.871
21111SOL     OW65164   5.943  13.306   3.246
21111SOL    HW165165   5.998  13.331   3.320
21111SOL    HW265166   5.990  13.336   3.169
21112SOL     OW65167   4.824   1.762   1.516
21112SOL    HW165168   4.762   1.721   1.456
21112SOL    HW265169   4.902   1.779   1.462
21113SOL     OW65170  11.502   6.395   6.509
21113SOL    HW165171  11.416   6.433   6.525
21113SOL    HW265172  11.532   6.367   6.596
21114SOL     OW65173   7.381  14.616   0.298
21114SOL    HW165174   7.386  14.564   0.379
21114SOL    HW265175   7.332  14.694   0.323
21115SOL     OW65176  13.532   6.891   2.139
21115SOL    HW165177  13.513   6.985   2.133
21115SOL    HW265178  13.491   6.854   2.061
21116SOL     OW65179   4.798   2.927   3.238
21116SOL    HW165180   4.734   2.997   3.229
21116SOL    HW265181   4.745   2.847   3.242
21117SOL     OW65182   7.742   7.243  10.238
21117SOL    HW165183   7.738   7.303  10.164
21117SOL    HW265184   7.715   7.158  10.202
21118SOL     OW65185  11.341  10.509  12.339
21118SOL    HW165186  11.341  10.560  12.258
21118SOL    HW265187  11.349  10.418  12.309
21119SOL     OW65188   5.278   7.044   8.411
21119SOL    HW165189   5.229   7.103   8.353
21119SOL    HW265190   5.368   7.074   8.405
21120SOL     OW65191   7.951   6.507   2.588
21120SOL    HW165192   7.918   6.417   2.596
21120SOL    HW265193   8.023   6.502   2.526
21121SOL     OW65194   4.471  13.299   4.172
21121SOL    HW165195   4.481  13.393   4.187
21121SOL    HW265196   4.560  13.269   4.152
21122SOL     OW65197  14.187  12.579   1.989
21122SOL    HW165198  14.235  12.516   1.935
21122SOL    HW265199  14.110  12.602   1.936
21123SOL     OW65200   2.569   8.630  10.601
21123SOL    HW165201   2.644   8.609  10.546
21123SOL    HW265202   2.594   8.599  10.688
21124SOL     OW65203   6.794   0.141  10.881
21124SOL    HW165204   6.719   0.184  10.920
21124SOL    HW265205   6.759   0.061  10.842
21125SOL     OW65206   5.088   6.569   1.581
21125SOL    HW165207   5.147   6.642   1.563
21125SOL    HW265208   5.025   6.570   1.509
21126SOL     OW65209   5.311  13.861  12.725
21126SOL    HW165210   5.246  13.803  12.685
21126SOL    HW265211   5.394  13.818  12.711
21127SOL     OW65212   0.148  11.537  11.743
21127SOL    HW165213   0.122  11.610  11.800
21127SOL    HW265214   0.074  11.526  11.684
21128SOL     OW65215  10.040   7.394  12.318
21128SOL    HW165216  10.063   7.336  12.391
21128SOL    HW265217  10.084   7.476  12.338
21129SOL     OW65218   0.537   7.956   0.975
21129SOL    HW165219   0.453   7.934   1.015
21129SOL    HW265220   0.557   8.044   1.008
21130SOL     OW65221   0.237   3.574  10.154
21130SOL    HW165222   0.184   3.627  10.095
21130SOL    HW265223   0.256   3.494  10.105
21131SOL     OW65224   2.935  13.539   2.968
21131SOL    HW165225   3.022  13.576   2.953
21131SOL    HW265226   2.914  13.494   2.886
21132SOL     OW65227  11.591  12.737   4.175
21132SOL    HW165228  11.553  12.780   4.252
21132SOL    HW265229  11.678  12.776   4.167
21133SOL     OW65230   1.731  12.051   0.098
21133SOL    HW165231   1.825  12.069   0.094
21133SOL    HW265232   1.716  11.988   0.028
21134SOL     OW65233  13.704   1.776   8.757
21134SOL    HW165234  13.792   1.812   8.764
21134SOL    HW265235  13.711   1.686   8.790
21135SOL     OW65236   6.892  12.433   7.181
21135SOL    HW165237   6.967  12.422   7.122
21135SOL    HW265238   6.817  12.402   7.130
21136SOL     OW65239  10.704   9.107  12.081
21136SOL    HW165240  10.733   9.105  11.990
21136SOL    HW265241  10.783   9.122  12.131
21137SOL     OW65242   0.435  14.686   6.738
21137SOL    HW165243   0.504  14.747   6.715
21137SOL    HW265244   0.456  14.657   6.826
21138SOL     OW65245   0.738  12.919  12.655
21138SOL    HW165246   0.821  12.922  12.607
21138SOL    HW265247   0.673  12.955  12.594
21139SOL     OW65248   7.304   5.681   8.870
21139SOL    HW165249   7.341   5.679   8.959
21139SOL    HW265250   7.348   5.755   8.828
21140SOL     OW65251  12.019   7.374   1.586
21140SOL    HW165252  11.963   7.447   1.612
21140SOL    HW265253  12.055   7.400   1.501
21141SOL     OW65254   9.678  14.092   8.933
21141SOL    HW165255   9.660  14.016   8.988
21141SOL    HW265256   9.735  14.147   8.987
21142SOL     OW65257   8.253   9.461   9.893
21142SOL    HW165258   8.319   9.412   9.941
21142SOL    HW265259   8.212   9.516   9.959
21143SOL     OW65260   3.549   7.316   2.306
21143SOL    HW165261   3.507   7.274   2.381
21143SOL    HW265262   3.582   7.243   2.254
21144SOL     OW65263   3.427   2.974  11.954
21144SOL    HW165264   3.348   2.977  11.901
21144SOL    HW265265   3.496   2.947  11.893
21145SOL     OW65266  10.172   1.776   0.959
21145SOL    HW165267  10.243   1.826   0.998
21145SOL    HW265268  10.134   1.835   0.894
21146SOL     OW65269   8.353   2.339   7.410
21146SOL    HW165270   8.266   2.337   7.451
21146SOL    HW265271   8.401   2.269   7.454
21147SOL     OW65272   0.803   3.591   2.639
21147SOL    HW165273   0.851   3.644   2.703
21147SOL    HW265274   0.716   3.581   2.677
21148SOL     OW65275   7.443   2.425   2.542
21148SOL    HW165276   7.366   2.461   2.499
21148SOL    HW265277   7.444   2.332   2.517
21149SOL     OW65278   8.202  10.772   9.634
21149SOL    HW165279   8.248  10.692   9.609
21149SOL    HW265280   8.263  10.843   9.616
21150SOL     OW65281   7.372  11.130   3.430
21150SOL    HW165282   7.442  11.195   3.421
21150SOL    HW265283   7.354  11.101   3.340
21151SOL     OW65284  10.200   6.177   2.206
21151SOL    HW165285  10.139   6.117   2.248
21151SOL    HW265286  10.203   6.150   2.115
21152SOL     OW65287   4.956   0.952   7.697
21152SOL    HW165288   5.017   0.927   7.766
21152SOL    HW265289   4.998   1.025   7.651
21153SOL     OW65290   0.288  12.625   7.551
21153SOL    HW165291   0.220  12.560   7.532
21153SOL    HW265292   0.273  12.649   7.643
21154SOL     OW65293   6.413  12.071   3.042
21154SOL    HW165294   6.366  12.131   3.100
21154SOL    HW265295   6.474  12.127   2.994
21155SOL     OW65296  13.307   3.125   5.420
21155SOL    HW165297  13.401   3.108   5.411
21155SOL    HW265298  13.303   3.218   5.445
21156SOL     OW65299   9.393   8.219   2.289
21156SOL    HW165300   9.331   8.211   2.362
21156SOL    HW265301   9.338   8.209   2.210
21157SOL     OW65302   6.448   4.468  12.190
21157SOL    HW165303   6.541   4.484  12.173
21157SOL    HW265304   6.403   4.503  12.113
21158SOL     OW65305   5.925   3.856   5.828
21158SOL    HW165306   5.970   3.847   5.744
21158SOL    HW265307   5.926   3.768   5.866
21159SOL     OW65308  12.344   3.492   6.246
21159SOL    HW165309  12.439   3.505   6.249
21159SOL    HW265310  12.308   3.580   6.262
21160SOL     OW65311   4.542  12.117  14.260
21160SOL    HW165312   4.533  12.152  14.349
21160SOL    HW265313   4.458  12.076  14.242
21161SOL     OW65314  12.596   3.244   6.946
21161SOL    HW165315  12.664   3.300   6.909
21161SOL    HW265316  12.553   3.203   6.871
21162SOL     OW65317   6.472  12.879  12.487
21162SOL    HW165318   6.542  12.889  12.423
21162SOL    HW265319   6.420  12.806  12.455
21163SOL     OW65320   9.857  11.401  13.421
21163SOL    HW165321   9.875  11.318  13.465
21163SOL    HW265322   9.940  11.424  13.379
21164SOL     OW65323   2.637  10.664  13.535
21164SOL    HW165324   2.606  10.754  13.527
21164SOL    HW265325   2.558  10.611  13.543
21165SOL     OW65326   8.488   6.087  12.591
21165SOL    HW165327   8.474   6.178  12.562
21165SOL    HW265328   8.555   6.053  12.532
21166SOL     OW65329  11.196   8.287   8.858
21166SOL    HW165330  11.108   8.323   8.855
21166SOL    HW265331  11.195   8.226   8.932
21167SOL     OW65332  10.633  14.635  10.824
21167SOL    HW165333  10.560  14.696  10.814
21167SOL    HW265334  10.703  14.687  10.864
21168SOL     OW65335   7.783   9.134   2.749
21168SOL    HW165336   7.827   9.103   2.670
21168SOL    HW265337   7.804   9.070   2.816
21169SOL     OW65338   0.706  10.664   7.944
21169SOL    HW165339   0.701  10.723   7.869
21169SOL    HW265340   0.710  10.576   7.905
21170SOL     OW65341   9.298   4.717   9.752
21170SOL    HW165342   9.363   4.652   9.724
21170SOL    HW265343   9.331   4.800   9.719
21171SOL     OW65344   5.113  13.519   6.334
21171SOL    HW165345   5.117  13.449   6.400
21171SOL    HW265346   5.168  13.589   6.371
21172SOL     OW65347   0.619   2.498   1.548
21172SOL    HW165348   0.612   2.585   1.508
21172SOL    HW265349   0.702   2.500   1.595
21173SOL     OW65350   2.143   3.378   9.623
21173SOL    HW165351   2.097   3.309   9.671
21173SOL    HW265352   2.235   3.351   9.623
21174SOL     OW65353   7.195   9.338   3.880
21174SOL    HW165354   7.208   9.277   3.953
21174SOL    HW265355   7.115   9.308   3.837
21175SOL     OW65356   1.497  13.446   0.969
21175SOL    HW165357   1.564  13.514   0.955
21175SOL    HW265358   1.434  13.486   1.029
21176SOL     OW65359   3.374   0.193   6.076
21176SOL    HW165360   3.379   0.192   6.171
21176SOL    HW265361   3.464   0.174   6.047
21177SOL     OW65362   9.844  12.895   5.274
21177SOL    HW165363   9.873  12.871   5.186
21177SOL    HW265364   9.824  12.988   5.268
21178SOL     OW65365   0.684  11.433   3.590
21178SOL    HW165366   0.613  11.392   3.540
21178SOL    HW265367   0.762  11.381   3.567
21179SOL     OW65368   0.910   9.152   0.307
21179SOL    HW165369   0.827   9.195   0.328
21179SOL    HW265370   0.889   9.091   0.237
21180SOL     OW65371   8.935  13.556  14.761
21180SOL    HW165372   8.881  13.567  14.683
21180SOL    HW265373   9.010  13.505  14.731
21181SOL     OW65374   5.412  12.405   0.801
21181SOL    HW165375   5.488  12.349   0.787
21181SOL    HW265376   5.341  12.362   0.754
21182SOL     OW65377   3.382  14.559   8.810
21182SOL    HW165378   3.466  14.576   8.853
21182SOL    HW265379   3.365  14.638   8.759
21183SOL     OW65380   2.813  13.304   9.306
21183SOL    HW165381   2.842  13.393   9.285
21183SOL    HW265382   2.718  13.307   9.296
21184SOL     OW65383   9.917   0.124   5.645
21184SOL    HW165384   9.937   0.095   5.734
21184SOL    HW265385   9.954   0.212   5.640
21185SOL     OW65386   1.295  14.648   0.426
21185SOL    HW165387   1.347  14.568   0.417
21185SOL    HW265388   1.222  14.623   0.483
21186SOL     OW65389   1.553   0.265  12.863
21186SOL    HW165390   1.615   0.335  12.846
21186SOL    HW265391   1.468   0.308  12.867
21187SOL     OW65392   3.383   1.006   7.166
21187SOL    HW165393   3.291   0.981   7.157
21187SOL    HW265394   3.425   0.930   7.205
21188SOL     OW65395  14.667  10.400   3.883
21188SOL    HW165396  14.762  10.396   3.868
21188SOL    HW265397  14.656  10.473   3.944
21189SOL     OW65398   5.746   3.830   6.208
21189SOL    HW165399   5.826   3.803   6.162
21189SOL    HW265400   5.688   3.755   6.202
21190SOL     OW65401   7.408  13.165   5.155
21190SOL    HW165402   7.483  13.187   5.100
21190SOL    HW265403   7.442  13.171   5.244
21191SOL     OW65404   5.225   6.822  10.431
21191SOL    HW165405   5.143   6.866  10.452
21191SOL    HW265406   5.292   6.890  10.435
21192SOL     OW65407  12.738   9.745   4.369
21192SOL    HW165408  12.820   9.696   4.377
21192SOL    HW265409  12.726   9.757   4.275
21193SOL     OW65410   5.468   4.396  13.675
21193SOL    HW165411   5.418   4.372  13.596
21193SOL    HW265412   5.402   4.421  13.739
21194SOL     OW65413   7.926   7.967   8.519
21194SOL    HW165414   7.917   7.945   8.427
21194SOL    HW265415   7.860   7.913   8.563
21195SOL     OW65416  11.761  11.281  14.452
21195SOL    HW165417  11.748  11.290  14.357
21195SOL    HW265418  11.676  11.253  14.486
21196SOL     OW65419  12.990  10.199  14.806
21196SOL    HW165420  13.076  10.209  14.846
21196SOL    HW265421  12.936  10.266  14.848
21197SOL     OW65422   7.705   1.083   1.011
21197SOL    HW165423   7.758   1.161   0.992
21197SOL    HW265424   7.681   1.050   0.924
21198SOL     OW65425   5.147   3.143   0.300
21198SOL    HW165426   5.237   3.112   0.298
21198SOL    HW265427   5.148   3.217   0.360
21199SOL     OW65428   6.627  11.562   9.839
21199SOL    HW165429   6.537  11.536   9.819
21199SOL    HW265430   6.677  11.480   9.832
21200SOL     OW65431  10.961   1.250   8.426
21200SOL    HW165432  10.952   1.212   8.513
21200SOL    HW265433  11.055   1.247   8.407
21201SOL     OW65434   9.212  14.772  11.647
21201SOL    HW165435   9.259  14.853  11.664
21201SOL    HW265436   9.208  14.767  11.551
21202SOL     OW65437   9.799  12.418   4.742
21202SOL    HW165438   9.711  12.443   4.769
21202SOL    HW265439   9.805  12.325   4.762
21203SOL     OW65440   6.803   6.462   8.293
21203SOL    HW165441   6.867   6.419   8.350
21203SOL    HW265442   6.835   6.552   8.285
21204SOL     OW65443   0.591  11.969  10.355
21204SOL    HW165444   0.583  11.943  10.447
21204SOL    HW265445   0.546  12.053  10.349
21205SOL     OW65446  11.048   6.957  13.254
21205SOL    HW165447  10.999   6.990  13.330
21205SOL    HW265448  10.988   6.967  13.180
21206SOL     OW65449   7.922   8.390   7.290
21206SOL    HW165450   7.908   8.410   7.383
21206SOL    HW265451   7.888   8.301   7.280
21207SOL     OW65452   0.217   3.861   5.816
21207SOL    HW165453   0.122   3.853   5.803
21207SOL    HW265454   0.248   3.907   5.738
21208SOL     OW65455   3.484   1.997   0.401
21208SOL    HW165456   3.429   1.922   0.378
21208SOL    HW265457   3.557   1.992   0.339
21209SOL     OW65458   0.338  12.279  12.690
21209SOL    HW165459   0.341  12.207  12.627
21209SOL    HW265460   0.414  12.264  12.747
21210SOL     OW65461   3.079  13.422   3.904
21210SOL    HW165462   3.072  13.328   3.888
21210SOL    HW265463   3.170  13.443   3.879
21211SOL     OW65464   7.017  11.819   7.285
21211SOL    HW165465   7.097  11.828   7.233
21211SOL    HW265466   7.034  11.870   7.364
21212SOL     OW65467   9.262   5.670  13.130
21212SOL    HW165468   9.332   5.698  13.190
21212SOL    HW265469   9.268   5.575  13.129
21213SOL     OW65470  14.188  10.824   6.567
21213SOL    HW165471  14.095  10.819   6.590
21213SOL    HW265472  14.193  10.894   6.502
21214SOL     OW65473   3.889  12.623   2.432
21214SOL    HW165474   3.835  12.557   2.475
21214SOL    HW265475   3.891  12.696   2.493
21215SOL     OW65476  12.364  14.056   5.147
21215SOL    HW165477  12.354  14.027   5.237
21215SOL    HW265478  12.459  14.055   5.132
21216SOL     OW65479   1.649   3.552   5.377
21216SOL    HW165480   1.593   3.526   5.304
21216SOL    HW265481   1.695   3.471   5.401
21217SOL     OW65482  12.751   1.647   1.822
21217SOL    HW165483  12.708   1.568   1.855
21217SOL    HW265484  12.820   1.665   1.887
21218SOL     OW65485   2.544   4.660   1.635
21218SOL    HW165486   2.546   4.739   1.581
21218SOL    HW265487   2.633   4.625   1.629
21219SOL     OW65488   3.189  10.626  11.053
21219SOL    HW165489   3.238  10.701  11.087
21219SOL    HW265490   3.254  10.556  11.047
21220SOL     OW65491   2.300   1.567  10.574
21220SOL    HW165492   2.258   1.507  10.513
21220SOL    HW265493   2.242   1.643  10.577
21221SOL     OW65494   3.819  12.795   1.117
21221SOL    HW165495   3.729  12.800   1.087
21221SOL    HW265496   3.840  12.702   1.117
21222SOL     OW65497  12.807  13.455   3.376
21222SOL    HW165498  12.785  13.401   3.452
21222SOL    HW265499  12.768  13.410   3.301
21223SOL     OW65500   0.963   9.772  14.319
21223SOL    HW165501   1.022   9.834  14.361
21223SOL    HW265502   1.006   9.687  14.331
21224SOL     OW65503   0.963   0.385   7.921
21224SOL    HW165504   0.913   0.332   7.983
21224SOL    HW265505   0.906   0.459   7.902
21225SOL     OW65506   5.560   8.765   7.070
21225SOL    HW165507   5.637   8.750   7.125
21225SOL    HW265508   5.595   8.804   6.990
21226SOL     OW65509   0.439  11.998   5.579
21226SOL    HW165510   0.506  12.048   5.533
21226SOL    HW265511   0.481  11.915   5.600
21227SOL     OW65512   0.152   3.579   5.183
21227SOL    HW165513   0.076   3.558   5.238
21227SOL    HW265514   0.131   3.540   5.098
21228SOL     OW65515   2.230   6.727  14.108
21228SOL    HW165516   2.179   6.655  14.146
21228SOL    HW265517   2.316   6.720  14.148
21229SOL     OW65518   2.838  13.746   3.163
21229SOL    HW165519   2.783  13.675   3.131
21229SOL    HW265520   2.799  13.772   3.246
21230SOL     OW65521   8.599  14.003   3.334
21230SOL    HW165522   8.563  14.004   3.423
21230SOL    HW265523   8.537  13.950   3.284
21231SOL     OW65524  13.112  10.409   0.258
21231SOL    HW165525  13.037  10.420   0.316
21231SOL    HW265526  13.171  10.481   0.280
21232SOL     OW65527   5.496  14.382  14.440
21232SOL    HW165528   5.452  14.461  14.409
21232SOL    HW265529   5.562  14.363  14.373
21233SOL     OW65530   6.091   9.953  14.187
21233SOL    HW165531   6.161  10.017  14.178
21233SOL    HW265532   6.132   9.869  14.172
21234SOL     OW65533   4.990   0.901   8.168
21234SOL    HW165534   4.972   0.871   8.079
21234SOL    HW265535   5.081   0.932   8.165
21235SOL     OW65536   5.830   3.358   5.910
21235SOL    HW165537   5.821   3.366   5.815
21235SOL    HW265538   5.870   3.272   5.923
21236SOL     OW65539   6.710   6.148  11.239
21236SOL    HW165540   6.782   6.113  11.187
21236SOL    HW265541   6.655   6.195  11.176
21237SOL     OW65542  11.255   7.200   4.036
21237SOL    HW165543  11.239   7.294   4.038
21237SOL    HW265544  11.314   7.187   3.962
21238SOL     OW65545   0.220   9.993   9.839
21238SOL    HW165546   0.231   9.927   9.770
21238SOL    HW265547   0.298   9.984   9.894
21239SOL     OW65548   6.011   4.797   8.500
21239SOL    HW165549   5.950   4.726   8.520
21239SOL    HW265550   5.955   4.874   8.485
21240SOL     OW65551   6.975   2.314   7.688
21240SOL    HW165552   7.015   2.234   7.721
21240SOL    HW265553   7.048   2.366   7.655
21241SOL     OW65554   5.283   1.164   5.829
21241SOL    HW165555   5.233   1.082   5.833
21241SOL    HW265556   5.268   1.205   5.914
21242SOL     OW65557   5.257   4.719   1.959
21242SOL    HW165558   5.182   4.745   1.906
21242SOL    HW265559   5.219   4.667   2.030
21243SOL     OW65560   6.547   6.066   3.195
21243SOL    HW165561   6.524   6.089   3.104
21243SOL    HW265562   6.543   5.971   3.197
21244SOL     OW65563   2.041   8.241   8.543
21244SOL    HW165564   2.036   8.291   8.461
21244SOL    HW265565   2.123   8.270   8.583
21245SOL     OW65566   6.387   1.720   4.448
21245SOL    HW165567   6.465   1.675   4.481
21245SOL    HW265568   6.399   1.722   4.353
21246SOL     OW65569   1.252   4.485   6.883
21246SOL    HW165570   1.242   4.513   6.792
21246SOL    HW265571   1.301   4.556   6.924
21247SOL     OW65572   2.010   9.296   4.774
21247SOL    HW165573   2.088   9.336   4.813
21247SOL    HW265574   2.010   9.206   4.805
21248SOL     OW65575  10.819   8.516   4.591
21248SOL    HW165576  10.847   8.463   4.517
21248SOL    HW265577  10.844   8.605   4.568
21249SOL     OW65578   8.002  10.052   4.656
21249SOL    HW165579   7.910  10.053   4.630
21249SOL    HW265580   8.015  10.135   4.702
21250SOL     OW65581   9.272   8.667   1.505
21250SOL    HW165582   9.323   8.746   1.527
21250SOL    HW265583   9.318   8.629   1.431
21251SOL     OW65584  11.875   8.833   3.682
21251SOL    HW165585  11.832   8.851   3.598
21251SOL    HW265586  11.870   8.915   3.730
21252SOL     OW65587   5.099   7.279  12.372
21252SOL    HW165588   5.159   7.211  12.342
21252SOL    HW265589   5.024   7.273  12.313
21253SOL     OW65590   0.274   2.978   0.792
21253SOL    HW165591   0.273   3.009   0.882
21253SOL    HW265592   0.183   2.957   0.773
21254SOL     OW65593  14.044  12.546   0.264
21254SOL    HW165594  13.966  12.526   0.315
21254SOL    HW265595  14.094  12.464   0.263
21255SOL     OW65596   0.940   5.192   0.155
21255SOL    HW165597   0.870   5.129   0.140
21255SOL    HW265598   0.909   5.273   0.114
21256SOL     OW65599   5.529  12.773  10.532
21256SOL    HW165600   5.620  12.779  10.502
21256SOL    HW265601   5.513  12.679  10.542
21257SOL     OW65602   5.810   8.085   5.184
21257SOL    HW165603   5.856   8.090   5.268
21257SOL    HW265604   5.834   8.166   5.139
21258SOL     OW65605   4.745  12.983   1.603
21258SOL    HW165606   4.761  13.042   1.677
21258SOL    HW265607   4.731  12.897   1.643
21259SOL     OW65608   3.881  11.199   0.730
21259SOL    HW165609   3.908  11.145   0.656
21259SOL    HW265610   3.898  11.289   0.702
21260SOL     OW65611   3.934   2.927  11.084
21260SOL    HW165612   4.007   2.969  11.129
21260SOL    HW265613   3.950   2.943  10.991
21261SOL     OW65614   1.298  13.266   1.506
21261SOL    HW165615   1.265  13.324   1.575
21261SOL    HW265616   1.353  13.322   1.452
21262SOL     OW65617   6.410   1.782   6.321
21262SOL    HW165618   6.393   1.828   6.404
21262SOL    HW265619   6.482   1.723   6.341
21263SOL     OW65620  12.211   6.751   4.159
21263SOL    HW165621  12.272   6.824   4.164
21263SOL    HW265622  12.130   6.789   4.126
21264SOL     OW65623  13.762  11.799   0.040
21264SOL    HW165624  13.745  11.737   0.111
21264SOL    HW265625  13.850  11.777   0.010
21265SOL     OW65626  10.148   4.325   7.297
21265SOL    HW165627  10.115   4.323   7.387
21265SOL    HW265628  10.182   4.414   7.287
21266SOL     OW65629  11.043   7.311   0.299
21266SOL    HW165630  11.029   7.298   0.393
21266SOL    HW265631  11.136   7.334   0.292
21267SOL     OW65632   2.703   4.523   2.961
21267SOL    HW165633   2.786   4.498   2.921
21267SOL    HW265634   2.718   4.612   2.994
21268SOL     OW65635  14.388   4.832   2.073
21268SOL    HW165636  14.408   4.873   2.158
21268SOL    HW265637  14.385   4.738   2.092
21269SOL     OW65638  12.667   2.197   2.831
21269SOL    HW165639  12.631   2.241   2.754
21269SOL    HW265640  12.719   2.125   2.796
21270SOL     OW65641   4.219   9.711  12.187
21270SOL    HW165642   4.188   9.626  12.156
21270SOL    HW265643   4.315   9.704  12.182
21271SOL     OW65644   9.681   3.003  10.378
21271SOL    HW165645   9.698   2.952  10.457
21271SOL    HW265646   9.693   3.094  10.406
21272SOL     OW65647   5.672   1.539   9.077
21272SOL    HW165648   5.604   1.588   9.033
21272SOL    HW265649   5.737   1.606   9.102
21273SOL     OW65650   5.643   8.737  11.121
21273SOL    HW165651   5.564   8.691  11.149
21273SOL    HW265652   5.626   8.828  11.143
21274SOL     OW65653   5.309   7.554   5.784
21274SOL    HW165654   5.332   7.629   5.839
21274SOL    HW265655   5.227   7.580   5.742
21275SOL     OW65656   3.287   9.521   6.734
21275SOL    HW165657   3.338   9.517   6.653
21275SOL    HW265658   3.234   9.442   6.733
21276SOL     OW65659   2.010   8.247   8.022
21276SOL    HW165660   2.040   8.271   7.934
21276SOL    HW265661   2.077   8.187   8.055
21277SOL     OW65662  11.155   6.159   4.826
21277SOL    HW165663  11.136   6.091   4.760
21277SOL    HW265664  11.080   6.156   4.885
21278SOL     OW65665   5.511   7.536  10.234
21278SOL    HW165666   5.557   7.480  10.172
21278SOL    HW265667   5.577   7.598  10.265
21279SOL     OW65668  11.402   5.454  12.391
21279SOL    HW165669  11.427   5.362  12.386
21279SOL    HW265670  11.313   5.457  12.356
21280SOL     OW65671   5.621   8.755   8.689
21280SOL    HW165672   5.616   8.844   8.653
21280SOL    HW265673   5.542   8.747   8.743
21281SOL     OW65674   6.073   2.219  13.808
21281SOL    HW165675   6.059   2.129  13.778
21281SOL    HW265676   6.051   2.217  13.901
21282SOL     OW65677  12.968   3.797   1.074
21282SOL    HW165678  12.986   3.734   1.143
21282SOL    HW265679  12.948   3.879   1.120
21283SOL     OW65680   6.867  12.714   8.421
21283SOL    HW165681   6.853  12.661   8.500
21283SOL    HW265682   6.782  12.714   8.377
21284SOL     OW65683  13.263   7.872   0.165
21284SOL    HW165684  13.196   7.804   0.166
21284SOL    HW265685  13.247   7.921   0.085
21285SOL     OW65686   6.643   4.429  12.511
21285SOL    HW165687   6.595   4.512  12.511
21285SOL    HW265688   6.576   4.363  12.525
21286SOL     OW65689   8.232   2.637  12.148
21286SOL    HW165690   8.270   2.557  12.185
21286SOL    HW265691   8.249   2.630  12.054
21287SOL     OW65692  10.557   1.118   4.364
21287SOL    HW165693  10.533   1.173   4.290
21287SOL    HW265694  10.645   1.086   4.343
21288SOL     OW65695   4.634   4.154   6.896
21288SOL    HW165696   4.660   4.162   6.804
21288SOL    HW265697   4.612   4.244   6.923
21289SOL     OW65698  10.221   2.967   0.837
21289SOL    HW165699  10.314   2.969   0.815
21289SOL    HW265700  10.207   3.046   0.889
21290SOL     OW65701   6.703   2.472   8.087
21290SOL    HW165702   6.616   2.495   8.054
21290SOL    HW265703   6.733   2.402   8.029
21291SOL     OW65704  13.485  13.727  11.057
21291SOL    HW165705  13.546  13.702  10.988
21291SOL    HW265706  13.435  13.799  11.019
21292SOL     OW65707   6.652   9.861  13.433
21292SOL    HW165708   6.742   9.882  13.457
21292SOL    HW265709   6.658   9.829  13.344
21293SOL     OW65710   0.383  11.224   6.158
21293SOL    HW165711   0.434  11.173   6.095
21293SOL    HW265712   0.300  11.177   6.165
21294SOL     OW65713   7.801   6.169   4.367
21294SOL    HW165714   7.768   6.225   4.296
21294SOL    HW265715   7.768   6.081   4.346
21295SOL     OW65716  12.447   5.348  14.390
21295SOL    HW165717  12.390   5.295  14.334
21295SOL    HW265718  12.521   5.370  14.334
21296SOL     OW65719  14.199   3.446  14.352
21296SOL    HW165720  14.276   3.446  14.409
21296SOL    HW265721  14.210   3.525  14.299
21297SOL     OW65722   4.382  12.660  13.755
21297SOL    HW165723   4.468  12.634  13.720
21297SOL    HW265724   4.320  12.607  13.706
21298SOL     OW65725   2.468   9.363  10.660
21298SOL    HW165726   2.504   9.367  10.748
21298SOL    HW265727   2.418   9.282  10.658
21299SOL     OW65728  10.633   4.645   6.596
21299SOL    HW165729  10.539   4.627   6.590
21299SOL    HW265730  10.642   4.698   6.675
21300SOL     OW65731   1.188  11.940   5.844
21300SOL    HW165732   1.241  11.889   5.905
21300SOL    HW265733   1.131  11.993   5.900
21301SOL     OW65734  11.146  12.090  12.411
21301SOL    HW165735  11.236  12.087  12.380
21301SOL    HW265736  11.105  12.158  12.357
21302SOL     OW65737   8.004   9.229  14.330
21302SOL    HW165738   7.970   9.265  14.248
21302SOL    HW265739   7.930   9.180  14.366
21303SOL     OW65740  11.750   6.121  12.055
21303SOL    HW165741  11.674   6.164  12.016
21303SOL    HW265742  11.809   6.104  11.981
21304SOL     OW65743   5.469   4.580   0.515
21304SOL    HW165744   5.551   4.543   0.480
21304SOL    HW265745   5.428   4.506   0.560
21305SOL     OW65746   5.909   3.300  11.859
21305SOL    HW165747   5.942   3.287  11.770
21305SOL    HW265748   5.982   3.340  11.906
21306SOL     OW65749   4.739   2.345   5.202
21306SOL    HW165750   4.829   2.370   5.179
21306SOL    HW265751   4.715   2.280   5.136
21307SOL     OW65752  11.249   6.905  14.421
21307SOL    HW165753  11.187   6.918  14.350
21307SOL    HW265754  11.334   6.900  14.378
21308SOL     OW65755  13.434   7.825  10.032
21308SOL    HW165756  13.506   7.830   9.969
21308SOL    HW265757  13.435   7.735  10.063
21309SOL     OW65758  10.026   1.956   2.963
21309SOL    HW165759   9.989   2.025   2.908
21309SOL    HW265760  10.102   1.925   2.915
21310SOL     OW65761   0.579   2.358   3.508
21310SOL    HW165762   0.595   2.282   3.562
21310SOL    HW265763   0.509   2.331   3.448
21311SOL     OW65764   9.918   1.322   0.204
21311SOL    HW165765   9.971   1.267   0.147
21311SOL    HW265766   9.937   1.290   0.293
21312SOL     OW65767   4.868   8.253  11.622
21312SOL    HW165768   4.898   8.183  11.680
21312SOL    HW265769   4.910   8.234  11.538
21313SOL     OW65770  10.556   2.469   7.680
21313SOL    HW165771  10.640   2.479   7.635
21313SOL    HW265772  10.535   2.556   7.712
21314SOL     OW65773   2.672   2.153  12.229
21314SOL    HW165774   2.614   2.172  12.155
21314SOL    HW265775   2.705   2.065  12.211
21315SOL     OW65776   6.713   1.925  14.770
21315SOL    HW165777   6.639   1.970  14.811
21315SOL    HW265778   6.695   1.931  14.676
21316SOL     OW65779   4.836   9.984   0.669
21316SOL    HW165780   4.841  10.067   0.622
21316SOL    HW265781   4.742   9.970   0.683
21317SOL     OW65782  10.579  14.565   7.578
21317SOL    HW165783  10.520  14.545   7.505
21317SOL    HW265784  10.521  14.590   7.650
21318SOL     OW65785   3.673   8.389   5.753
21318SOL    HW165786   3.630   8.370   5.669
21318SOL    HW265787   3.601   8.389   5.816
21319SOL     OW65788   4.534   8.768  10.928
21319SOL    HW165789   4.527   8.673  10.915
21319SOL    HW265790   4.596   8.796  10.861
21320SOL     OW65791   3.824   3.821   8.404
21320SOL    HW165792   3.845   3.728   8.393
21320SOL    HW265793   3.818   3.833   8.498
21321SOL     OW65794  13.317   0.986   9.926
21321SOL    HW165795  13.289   1.024  10.010
21321SOL    HW265796  13.259   0.911   9.913
21322SOL     OW65797   6.068   2.459   5.334
21322SOL    HW165798   6.014   2.502   5.268
21322SOL    HW265799   6.154   2.449   5.291
21323SOL     OW65800   9.804   0.759  10.669
21323SOL    HW165801   9.787   0.762  10.574
21323SOL    HW265802   9.776   0.671  10.694
21324SOL     OW65803   4.639   9.763   2.793
21324SOL    HW165804   4.712   9.701   2.787
21324SOL    HW265805   4.671   9.831   2.852
21325SOL     OW65806   6.921   6.391  11.163
21325SOL    HW165807   6.889   6.452  11.230
21325SOL    HW265808   6.934   6.446  11.085
21326SOL     OW65809   1.482  12.666   9.138
21326SOL    HW165810   1.402  12.717   9.151
21326SOL    HW265811   1.473  12.591   9.198
21327SOL     OW65812  11.480  12.141   5.048
21327SOL    HW165813  11.493  12.051   5.077
21327SOL    HW265814  11.487  12.136   4.952
21328SOL     OW65815  12.098   9.858   4.698
21328SOL    HW165816  12.073   9.951   4.694
21328SOL    HW265817  12.072   9.830   4.786
21329SOL     OW65818   9.950   0.171  12.467
21329SOL    HW165819   9.895   0.101  12.503
21329SOL    HW265820   9.897   0.250  12.479
21330SOL     OW65821   8.976  13.851   9.864
21330SOL    HW165822   9.016  13.793   9.929
21330SOL    HW265823   9.005  13.938   9.889
21331SOL     OW65824  14.350  13.639   4.524
21331SOL    HW165825  14.326  13.565   4.579
21331SOL    HW265826  14.389  13.702   4.584
21332SOL     OW65827  12.264   2.031   3.974
21332SOL    HW165828  12.323   2.084   3.920
21332SOL    HW265829  12.204   2.095   4.013
21333SOL     OW65830   9.276   2.604   1.306
21333SOL    HW165831   9.294   2.610   1.400
21333SOL    HW265832   9.294   2.513   1.284
21334SOL     OW65833   9.628   8.395  10.347
21334SOL    HW165834   9.703   8.340  10.369
21334SOL    HW265835   9.652   8.435  10.264
21335SOL     OW65836   1.490  11.835  12.331
21335SOL    HW165837   1.543  11.902  12.373
21335SOL    HW265838   1.539  11.753  12.344
21336SOL     OW65839  12.648   3.838   4.242
21336SOL    HW165840  12.732   3.874   4.272
21336SOL    HW265841  12.672   3.763   4.188
21337SOL     OW65842  12.458   1.263   6.199
21337SOL    HW165843  12.508   1.252   6.118
21337SOL    HW265844  12.523   1.252   6.269
21338SOL     OW65845   8.654  10.134   0.511
21338SOL    HW165846   8.600  10.101   0.584
21338SOL    HW265847   8.714  10.063   0.492
21339SOL     OW65848   5.369   1.449   0.130
21339SOL    HW165849   5.285   1.489   0.151
21339SOL    HW265850   5.432   1.496   0.186
21340SOL     OW65851   5.495   2.602   5.035
21340SOL    HW165852   5.589   2.614   5.044
21340SOL    HW265853   5.465   2.682   4.992
21341SOL     OW65854   5.937   4.607   9.814
21341SOL    HW165855   5.893   4.542   9.868
21341SOL    HW265856   5.902   4.592   9.726
21342SOL     OW65857   7.037   4.446   4.887
21342SOL    HW165858   6.983   4.396   4.948
21342SOL    HW265859   6.988   4.445   4.805
21343SOL     OW65860   5.484   0.523   1.119
21343SOL    HW165861   5.402   0.543   1.074
21343SOL    HW265862   5.459   0.516   1.211
21344SOL     OW65863   2.704   7.780   6.801
21344SOL    HW165864   2.710   7.837   6.724
21344SOL    HW265865   2.621   7.803   6.842
21345SOL     OW65866   4.207  10.909   6.973
21345SOL    HW165867   4.143  10.843   7.001
21345SOL    HW265868   4.253  10.934   7.052
21346SOL     OW65869  14.285   8.600   1.866
21346SOL    HW165870  14.218   8.667   1.853
21346SOL    HW265871  14.274   8.540   1.792
21347SOL     OW65872   8.829   3.440  13.037
21347SOL    HW165873   8.894   3.510  13.041
21347SOL    HW265874   8.881   3.359  13.037
21348SOL     OW65875   9.986   5.258   0.754
21348SOL    HW165876  10.041   5.334   0.773
21348SOL    HW265877  10.025   5.219   0.676
21349SOL     OW65878   4.025   3.584  13.953
21349SOL    HW165879   3.941   3.544  13.975
21349SOL    HW265880   4.090   3.531  13.998
21350SOL     OW65881  14.411  13.977   9.853
21350SOL    HW165882  14.486  13.955   9.797
21350SOL    HW265883  14.395  13.897   9.903
21351SOL     OW65884   7.603   7.839  12.155
21351SOL    HW165885   7.676   7.883  12.111
21351SOL    HW265886   7.542   7.818  12.085
21352SOL     OW65887   6.176   0.868  13.820
21352SOL    HW165888   6.134   0.951  13.840
21352SOL    HW265889   6.233   0.851  13.895
21353SOL     OW65890   7.118  13.668   4.688
21353SOL    HW165891   7.162  13.646   4.770
21353SOL    HW265892   7.142  13.760   4.672
21354SOL     OW65893  11.806   3.658   8.116
21354SOL    HW165894  11.718   3.676   8.084
21354SOL    HW265895  11.856   3.634   8.037
21355SOL     OW65896  14.182   7.865   7.496
21355SOL    HW165897  14.253   7.911   7.451
21355SOL    HW265898  14.114   7.931   7.506
21356SOL     OW65899  12.441   2.464  10.013
21356SOL    HW165900  12.489   2.415  10.079
21356SOL    HW265901  12.401   2.396   9.958
21357SOL     OW65902   2.637   5.170   5.719
21357SOL    HW165903   2.583   5.202   5.790
21357SOL    HW265904   2.575   5.129   5.658
21358SOL     OW65905   9.242   9.934   0.195
21358SOL    HW165906   9.281   9.853   0.227
21358SOL    HW265907   9.210   9.978   0.274
21359SOL     OW65908   7.263   4.420   7.415
21359SOL    HW165909   7.358   4.409   7.408
21359SOL    HW265910   7.238   4.467   7.335
21360SOL     OW65911  11.670   1.373  13.445
21360SOL    HW165912  11.627   1.447  13.401
21360SOL    HW265913  11.727   1.335  13.378
21361SOL     OW65914   7.729  11.234   0.844
21361SOL    HW165915   7.748  11.192   0.927
21361SOL    HW265916   7.756  11.170   0.778
21362SOL     OW65917   0.479   9.044   3.192
21362SOL    HW165918   0.514   8.973   3.246
21362SOL    HW265919   0.489   9.122   3.246
21363SOL     OW65920  14.233   0.004   8.383
21363SOL    HW165921  14.245  14.851   8.292
21363SOL    HW265922  14.190  14.801   8.424
21364SOL     OW65923   9.539   7.207   7.033
21364SOL    HW165924   9.548   7.113   7.017
21364SOL    HW265925   9.496   7.213   7.118
21365SOL     OW65926   9.965   3.751   8.587
21365SOL    HW165927   9.899   3.710   8.643
21365SOL    HW265928  10.020   3.801   8.646
21366SOL     OW65929   6.302   6.355   8.637
21366SOL    HW165930   6.392   6.381   8.656
21366SOL    HW265931   6.248   6.424   8.676
21367SOL     OW65932  13.407   0.192   5.102
21367SOL    HW165933  13.405   0.280   5.065
21367SOL    HW265934  13.463   0.143   5.041
21368SOL     OW65935   9.855   4.878   6.236
21368SOL    HW165936   9.859   4.827   6.317
21368SOL    HW265937   9.770   4.920   6.238
21369SOL     OW65938   5.301   8.047   5.202
21369SOL    HW165939   5.218   8.006   5.180
21369SOL    HW265940   5.291   8.076   5.292
21370SOL     OW65941   7.668   8.065  10.246
21370SOL    HW165942   7.746   8.096  10.199
21370SOL    HW265943   7.623   8.145  10.274
21371SOL     OW65944   0.952   3.799   2.287
21371SOL    HW165945   0.964   3.734   2.357
21371SOL    HW265946   0.891   3.863   2.324
21372SOL     OW65947   2.480  12.436  10.932
21372SOL    HW165948   2.393  12.473  10.917
21372SOL    HW265949   2.479  12.410  11.024
21373SOL     OW65950   0.275   9.764   6.805
21373SOL    HW165951   0.199   9.818   6.785
21373SOL    HW265952   0.279   9.700   6.733
21374SOL     OW65953  14.718   6.699  12.094
21374SOL    HW165954  14.788   6.724  12.155
21374SOL    HW265955  14.688   6.783  12.057
21375SOL     OW65956  11.724  13.452   8.541
21375SOL    HW165957  11.725  13.547   8.526
21375SOL    HW265958  11.678  13.442   8.624
21376SOL     OW65959  14.833  11.501   5.114
21376SOL    HW165960   0.024  11.457   5.171
21376SOL    HW265961   0.001  11.585   5.094
21377SOL     OW65962   6.373   4.514   7.885
21377SOL    HW165963   6.295   4.514   7.941
21377SOL    HW265964   6.442   4.478   7.940
21378SOL     OW65965   7.331   2.299   5.478
21378SOL    HW165966   7.370   2.343   5.554
21378SOL    HW265967   7.309   2.211   5.510
21379SOL     OW65968   2.805   4.447   7.793
21379SOL    HW165969   2.767   4.485   7.872
21379SOL    HW265970   2.859   4.517   7.757
21380SOL     OW65971   6.972  14.578  13.261
21380SOL    HW165972   6.915  14.501  13.258
21380SOL    HW265973   6.957  14.615  13.348
21381SOL     OW65974   0.102   6.546   4.867
21381SOL    HW165975   0.181   6.518   4.822
21381SOL    HW265976   0.132   6.609   4.932
21382SOL     OW65977   4.006   6.409  14.446
21382SOL    HW165978   4.095   6.434  14.468
21382SOL    HW265979   4.012   6.316  14.421
21383SOL     OW65980   8.055  14.540  10.516
21383SOL    HW165981   8.076  14.551  10.424
21383SOL    HW265982   7.989  14.471  10.517
21384SOL     OW65983   0.181   0.495  14.231
21384SOL    HW165984   0.196   0.450  14.314
21384SOL    HW265985   0.180   0.425  14.166
21385SOL     OW65986   2.200   8.318   5.735
21385SOL    HW165987   2.267   8.327   5.802
21385SOL    HW265988   2.238   8.259   5.670
21386SOL     OW65989  14.848   5.427  10.053
21386SOL    HW165990  14.815   5.341  10.078
21386SOL    HW265991   0.038   5.410   9.983
21387SOL     OW65992   4.969  14.595   1.281
21387SOL    HW165993   5.030  14.539   1.329
21387SOL    HW265994   5.021  14.672   1.257
21388SOL     OW65995   4.490  10.327  14.724
21388SOL    HW165996   4.449  10.269  14.660
21388SOL    HW265997   4.427  10.333  14.796
21389SOL     OW65998  11.254  10.834   9.735
21389SOL    HW165999  11.164  10.846   9.767
21389SOL    HW266000  11.299  10.913   9.762
21390SOL     OW66001   9.734   3.322   2.016
21390SOL    HW166002   9.733   3.250   1.953
21390SOL    HW266003   9.800   3.383   1.983
21391SOL     OW66004  14.663  11.187   4.466
21391SOL    HW166005  14.753  11.168   4.441
21391SOL    HW266006  14.642  11.123   4.534
21392SOL     OW66007  14.020   0.140   2.037
21392SOL    HW166008  14.031   0.077   2.108
21392SOL    HW266009  13.948   0.196   2.065
21393SOL     OW66010  10.036   6.346   0.741
21393SOL    HW166011  10.032   6.322   0.648
21393SOL    HW266012   9.983   6.426   0.747
21394SOL     OW66013  13.793   1.334   7.643
21394SOL    HW166014  13.874   1.339   7.694
21394SOL    HW266015  13.812   1.385   7.564
21395SOL     OW66016  12.010   4.849   7.739
21395SOL    HW166017  11.931   4.841   7.686
21395SOL    HW266018  11.992   4.920   7.800
21396SOL     OW66019  14.584   5.482   1.159
21396SOL    HW166020  14.519   5.497   1.227
21396SOL    HW266021  14.534   5.485   1.077
21397SOL     OW66022  13.716   7.037   7.810
21397SOL    HW166023  13.662   7.104   7.850
21397SOL    HW266024  13.710   7.053   7.716
21398SOL     OW66025   8.332   0.099   0.796
21398SOL    HW166026   8.411   0.145   0.767
21398SOL    HW266027   8.361   0.008   0.809
21399SOL     OW66028   7.231  13.187  14.498
21399SOL    HW166029   7.292  13.256  14.526
21399SOL    HW266030   7.265  13.107  14.539
21400SOL     OW66031   8.608   4.142   8.960
21400SOL    HW166032   8.519   4.107   8.951
21400SOL    HW266033   8.603   4.231   8.927
21401SOL     OW66034  11.224   9.558   2.217
21401SOL    HW166035  11.175   9.632   2.180
21401SOL    HW266036  11.245   9.586   2.306
21402SOL     OW66037   3.265  11.627   3.928
21402SOL    HW166038   3.228  11.713   3.909
21402SOL    HW266039   3.360  11.640   3.927
21403SOL     OW66040   6.055  11.973  12.886
21403SOL    HW166041   6.039  11.911  12.957
21403SOL    HW266042   6.089  12.051  12.930
21404SOL     OW66043   6.842   6.093   9.675
21404SOL    HW166044   6.896   6.091   9.596
21404SOL    HW266045   6.782   6.166   9.661
21405SOL     OW66046  14.670  10.451  10.674
21405SOL    HW166047  14.760  10.463  10.643
21405SOL    HW266048  14.623  10.527  10.641
21406SOL     OW66049   5.638   3.897   8.456
21406SOL    HW166050   5.563   3.945   8.421
21406SOL    HW266051   5.699   3.965   8.485
21407SOL     OW66052   5.198  13.089   2.323
21407SOL    HW166053   5.163  13.071   2.410
21407SOL    HW266054   5.122  13.114   2.271
21408SOL     OW66055  12.126  12.508   3.608
21408SOL    HW166056  12.176  12.589   3.622
21408SOL    HW266057  12.165  12.445   3.669
21409SOL     OW66058   4.710  14.254   8.187
21409SOL    HW166059   4.636  14.309   8.162
21409SOL    HW266060   4.699  14.240   8.281
21410SOL     OW66061   9.543   8.036   7.914
21410SOL    HW166062   9.488   8.060   7.840
21410SOL    HW266063   9.527   8.104   7.979
21411SOL     OW66064   2.161  11.931   3.562
21411SOL    HW166065   2.242  11.894   3.597
21411SOL    HW266066   2.189  12.008   3.513
21412SOL     OW66067  10.965  13.469   4.229
21412SOL    HW166068  10.919  13.549   4.255
21412SOL    HW266069  10.936  13.454   4.139
21413SOL     OW66070   1.393  12.131   9.171
21413SOL    HW166071   1.452  12.072   9.122
21413SOL    HW266072   1.383  12.088   9.257
21414SOL     OW66073   0.692   8.008   4.122
21414SOL    HW166074   0.675   7.969   4.036
21414SOL    HW266075   0.631   8.082   4.126
21415SOL     OW66076  14.839  10.057   1.660
21415SOL    HW166077   0.007  10.142   1.639
21415SOL    HW266078  14.751  10.062   1.624
21416SOL     OW66079   9.251   2.257   5.214
21416SOL    HW166080   9.273   2.168   5.185
21416SOL    HW266081   9.333   2.305   5.212
21417SOL     OW66082  11.533   9.668  13.660
21417SOL    HW166083  11.467   9.735  13.643
21417SOL    HW266084  11.485   9.599  13.706
21418SOL     OW66085   0.302  13.234  12.724
21418SOL    HW166086   0.373  13.225  12.788
21418SOL    HW266087   0.242  13.297  12.764
21419SOL     OW66088   6.946   7.804   7.783
21419SOL    HW166089   6.992   7.887   7.786
21419SOL    HW266090   6.857   7.825   7.811
21420SOL     OW66091   9.053   5.176   4.166
21420SOL    HW166092   8.982   5.197   4.227
21420SOL    HW266093   9.009   5.146   4.087
21421SOL     OW66094   2.749   7.782   5.263
21421SOL    HW166095   2.756   7.877   5.252
21421SOL    HW266096   2.790   7.764   5.347
21422SOL     OW66097   8.918  12.703   5.851
21422SOL    HW166098   8.850  12.751   5.898
21422SOL    HW266099   8.977  12.770   5.818
21423SOL     OW66100   5.564   6.510   9.988
21423SOL    HW166101   5.483   6.554   9.963
21423SOL    HW266102   5.615   6.577  10.034
21424SOL     OW66103   3.964   9.999   8.892
21424SOL    HW166104   4.041  10.019   8.945
21424SOL    HW266105   3.991  10.017   8.802
21425SOL     OW66106   8.345   4.527  11.325
21425SOL    HW166107   8.343   4.622  11.314
21425SOL    HW266108   8.280   4.495  11.262
21426SOL     OW66109   2.246   1.768  14.048
21426SOL    HW166110   2.154   1.750  14.030
21426SOL    HW266111   2.245   1.851  14.094
21427SOL     OW66112   5.611   0.893   4.257
21427SOL    HW166113   5.517   0.873   4.253
21427SOL    HW266114   5.643   0.872   4.169
21428SOL     OW66115  14.701  11.058   5.920
21428SOL    HW166116  14.676  10.985   5.978
21428SOL    HW266117  14.670  11.030   5.833
21429SOL     OW66118   1.741   0.669  14.283
21429SOL    HW166119   1.826   0.711  14.296
21429SOL    HW266120   1.762   0.589  14.234
21430SOL     OW66121   1.344   8.574  12.385
21430SOL    HW166122   1.280   8.606  12.449
21430SOL    HW266123   1.423   8.625  12.402
21431SOL     OW66124  14.169  12.851  10.203
21431SOL    HW166125  14.157  12.868  10.296
21431SOL    HW266126  14.201  12.761  10.199
21432SOL     OW66127   4.354  13.714  11.560
21432SOL    HW166128   4.312  13.704  11.645
21432SOL    HW266129   4.411  13.790  11.570
21433SOL     OW66130   8.662   1.619   8.658
21433SOL    HW166131   8.632   1.682   8.723
21433SOL    HW266132   8.689   1.673   8.583
21434SOL     OW66133   7.264   1.387  10.803
21434SOL    HW166134   7.175   1.416  10.822
21434SOL    HW266135   7.280   1.416  10.714
21435SOL     OW66136   8.470   8.233   2.484
21435SOL    HW166137   8.425   8.243   2.399
21435SOL    HW266138   8.402   8.201   2.543
21436SOL     OW66139  10.756   6.746   4.929
21436SOL    HW166140  10.830   6.795   4.966
21436SOL    HW266141  10.681   6.771   4.983
21437SOL     OW66142   1.443  11.500  11.665
21437SOL    HW166143   1.517  11.442  11.687
21437SOL    HW266144   1.367  11.442  11.662
21438SOL     OW66145   9.583   2.752   5.153
21438SOL    HW166146   9.554   2.843   5.143
21438SOL    HW266147   9.609   2.726   5.065
21439SOL     OW66148  10.251  11.235   9.920
21439SOL    HW166149  10.233  11.297   9.849
21439SOL    HW266150  10.345  11.243   9.935
21440SOL     OW66151   0.049  14.254   2.581
21440SOL    HW166152   0.144  14.244   2.584
21440SOL    HW266153   0.034  14.323   2.516
21441SOL     OW66154   8.594   7.966   7.058
21441SOL    HW166155   8.665   7.910   7.090
21441SOL    HW266156   8.634   8.019   6.989
21442SOL     OW66157   0.915   6.608   8.818
21442SOL    HW166158   0.931   6.558   8.738
21442SOL    HW266159   0.819   6.615   8.822
21443SOL     OW66160  11.572  11.237  12.589
21443SOL    HW166161  11.621  11.179  12.648
21443SOL    HW266162  11.532  11.301  12.647
21444SOL     OW66163   0.456   7.936   6.870
21444SOL    HW166164   0.485   7.905   6.784
21444SOL    HW266165   0.534   7.978   6.907
21445SOL     OW66166   2.534   6.116  12.313
21445SOL    HW166167   2.578   6.106  12.397
21445SOL    HW266168   2.498   6.204  12.314
21446SOL     OW66169   8.660   2.425  11.205
21446SOL    HW166170   8.714   2.468  11.139
21446SOL    HW266171   8.593   2.378  11.154
21447SOL     OW66172   4.628  12.332   7.205
21447SOL    HW166173   4.622  12.424   7.232
21447SOL    HW266174   4.700  12.330   7.142
21448SOL     OW66175   8.819   6.514   2.911
21448SOL    HW166176   8.904   6.483   2.878
21448SOL    HW266177   8.755   6.456   2.870
21449SOL     OW66178   6.670   5.282   3.160
21449SOL    HW166179   6.625   5.270   3.076
21449SOL    HW266180   6.721   5.201   3.171
21450SOL     OW66181   5.453   6.319  11.621
21450SOL    HW166182   5.507   6.240  11.619
21450SOL    HW266183   5.467   6.355  11.709
21451SOL     OW66184   0.801  12.676   6.256
21451SOL    HW166185   0.780  12.648   6.344
21451SOL    HW266186   0.891  12.710   6.263
21452SOL     OW66187   6.189  14.470   7.631
21452SOL    HW166188   6.124  14.539   7.617
21452SOL    HW266189   6.138  14.390   7.644
21453SOL     OW66190  14.131  13.383   4.545
21453SOL    HW166191  14.179  13.417   4.470
21453SOL    HW266192  14.062  13.328   4.506
21454SOL     OW66193  10.001   5.902   3.883
21454SOL    HW166194   9.921   5.873   3.839
21454SOL    HW266195  10.046   5.821   3.907
21455SOL     OW66196   4.128   6.646  11.771
21455SOL    HW166197   4.203   6.705  11.779
21455SOL    HW266198   4.128   6.596  11.852
21456SOL     OW66199  14.524   9.196   6.234
21456SOL    HW166200  14.511   9.121   6.176
21456SOL    HW266201  14.507   9.272   6.178
21457SOL     OW66202  14.513  10.602   6.687
21457SOL    HW166203  14.524  10.638   6.775
21457SOL    HW266204  14.505  10.678   6.630
21458SOL     OW66205   8.882  11.216   0.783
21458SOL    HW166206   8.883  11.168   0.866
21458SOL    HW266207   8.952  11.281   0.793
21459SOL     OW66208   2.507   1.256  10.093
21459SOL    HW166209   2.587   1.277  10.043
21459SOL    HW266210   2.473   1.177  10.052
21460SOL     OW66211   7.835  14.636  12.926
21460SOL    HW166212   7.847  14.674  13.013
21460SOL    HW266213   7.764  14.688  12.887
21461SOL     OW66214   7.038  14.061   6.739
21461SOL    HW166215   7.023  13.986   6.681
21461SOL    HW266216   7.083  14.024   6.815
21462SOL     OW66217   7.292   1.235  13.098
21462SOL    HW166218   7.201   1.209  13.113
21462SOL    HW266219   7.313   1.292  13.171
21463SOL     OW66220   6.010   3.947   2.566
21463SOL    HW166221   5.968   3.941   2.480
21463SOL    HW266222   5.968   4.023   2.607
21464SOL     OW66223   0.510   6.807   8.940
21464SOL    HW166224   0.548   6.734   8.989
21464SOL    HW266225   0.558   6.808   8.857
21465SOL     OW66226  11.576   3.322  10.290
21465SOL    HW166227  11.650   3.269  10.320
21465SOL    HW266228  11.601   3.350  10.202
21466SOL     OW66229   7.218  14.276   7.385
21466SOL    HW166230   7.157  14.252   7.315
21466SOL    HW266231   7.250  14.363   7.360
21467SOL     OW66232   5.061   6.900   6.164
21467SOL    HW166233   4.967   6.913   6.151
21467SOL    HW266234   5.077   6.809   6.139
21468SOL     OW66235   1.308   0.033   6.586
21468SOL    HW166236   1.233   0.033   6.645
21468SOL    HW266237   1.384   0.036   6.644
21469SOL     OW66238   6.340   1.734   7.653
21469SOL    HW166239   6.265   1.681   7.628
21469SOL    HW266240   6.348   1.799   7.583
21470SOL     OW66241   3.970   8.108   1.884
21470SOL    HW166242   3.903   8.048   1.917
21470SOL    HW266243   4.043   8.099   1.945
21471SOL     OW66244  11.265   0.914  12.254
21471SOL    HW166245  11.184   0.944  12.215
21471SOL    HW266246  11.263   0.818  12.245
21472SOL     OW66247   9.136   2.534   3.810
21472SOL    HW166248   9.169   2.568   3.893
21472SOL    HW266249   9.059   2.482   3.835
21473SOL     OW66250  14.246   9.353   0.910
21473SOL    HW166251  14.209   9.381   0.994
21473SOL    HW266252  14.174   9.307   0.867
21474SOL     OW66253   3.721   0.997   0.648
21474SOL    HW166254   3.645   1.049   0.624
21474SOL    HW266255   3.761   1.044   0.721
21475SOL     OW66256   3.567   8.004   3.657
21475SOL    HW166257   3.568   8.100   3.659
21475SOL    HW266258   3.476   7.982   3.639
21476SOL     OW66259   0.224   1.001  10.896
21476SOL    HW166260   0.253   0.910  10.906
21476SOL    HW266261   0.303   1.052  10.909
21477SOL     OW66262   9.296   2.081  14.371
21477SOL    HW166263   9.302   2.033  14.454
21477SOL    HW266264   9.380   2.067  14.328
21478SOL     OW66265   4.213  13.549   4.089
21478SOL    HW166266   4.138  13.609   4.085
21478SOL    HW266267   4.177  13.463   4.069
21479SOL     OW66268   1.649   3.264  14.685
21479SOL    HW166269   1.723   3.307  14.729
21479SOL    HW266270   1.676   3.258  14.593
21480SOL     OW66271   3.633  13.791   3.932
21480SOL    HW166272   3.648  13.720   3.870
21480SOL    HW266273   3.661  13.756   4.017
21481SOL     OW66274   2.888   2.215  14.763
21481SOL    HW166275   2.831   2.168  14.702
21481SOL    HW266276   2.938   2.274  14.707
21482SOL     OW66277   3.646  11.398  14.054
21482SOL    HW166278   3.715  11.444  14.006
21482SOL    HW266279   3.673  11.306  14.052
21483SOL     OW66280  14.231  10.538   6.914
21483SOL    HW166281  14.232  10.449   6.949
21483SOL    HW266282  14.193  10.530   6.827
21484SOL     OW66283   5.826   8.590   4.155
21484SOL    HW166284   5.899   8.605   4.095
21484SOL    HW266285   5.766   8.534   4.106
21485SOL     OW66286   4.829   3.079   6.687
21485SOL    HW166287   4.904   3.020   6.685
21485SOL    HW266288   4.860   3.160   6.648
21486SOL     OW66289   2.830   1.281   1.002
21486SOL    HW166290   2.781   1.292   1.084
21486SOL    HW266291   2.773   1.320   0.935
21487SOL     OW66292  12.810   6.198   3.141
21487SOL    HW166293  12.894   6.245   3.136
21487SOL    HW266294  12.769   6.214   3.056
21488SOL     OW66295   7.615  13.651   4.187
21488SOL    HW166296   7.640  13.572   4.234
21488SOL    HW266297   7.585  13.712   4.254
21489SOL     OW66298   8.348   0.803   9.315
21489SOL    HW166299   8.319   0.713   9.300
21489SOL    HW266300   8.360   0.840   9.228
21490SOL     OW66301   0.492  10.743   4.811
21490SOL    HW166302   0.560  10.717   4.873
21490SOL    HW266303   0.458  10.826   4.844
21491SOL     OW66304   2.432  10.107  13.809
21491SOL    HW166305   2.495  10.153  13.864
21491SOL    HW266306   2.361  10.169  13.796
21492SOL     OW66307   5.557   8.244  10.135
21492SOL    HW166308   5.621   8.199  10.190
21492SOL    HW266309   5.485   8.182  10.126
21493SOL     OW66310   6.305   2.226   0.362
21493SOL    HW166311   6.356   2.307   0.359
21493SOL    HW266312   6.300   2.205   0.456
21494SOL     OW66313   1.342   7.797  13.433
21494SOL    HW166314   1.435   7.790  13.409
21494SOL    HW266315   1.308   7.708  13.425
21495SOL     OW66316   4.698   1.453   2.032
21495SOL    HW166317   4.761   1.525   2.028
21495SOL    HW266318   4.617   1.493   2.062
21496SOL     OW66319   1.025  10.013   3.099
21496SOL    HW166320   0.972   9.977   3.028
21496SOL    HW266321   1.087   9.943   3.120
21497SOL     OW66322  12.386  11.180   1.299
21497SOL    HW166323  12.388  11.190   1.204
21497SOL    HW266324  12.475  11.153   1.322
21498SOL     OW66325  11.991   9.233   3.993
21498SOL    HW166326  12.064   9.284   3.958
21498SOL    HW266327  11.965   9.280   4.072
21499SOL     OW66328  11.536  12.630   2.836
21499SOL    HW166329  11.567  12.540   2.826
21499SOL    HW266330  11.615  12.681   2.854
21500SOL     OW66331   2.330  10.341  10.851
21500SOL    HW166332   2.275  10.289  10.792
21500SOL    HW266333   2.404  10.283  10.871
21501SOL     OW66334   7.185   9.592   6.773
21501SOL    HW166335   7.193   9.656   6.703
21501SOL    HW266336   7.165   9.645   6.851
21502SOL     OW66337  10.358   6.373   8.330
21502SOL    HW166338  10.396   6.337   8.250
21502SOL    HW266339  10.364   6.468   8.319
21503SOL     OW66340   1.168  10.493  13.224
21503SOL    HW166341   1.214  10.410  13.229
21503SOL    HW266342   1.131  10.495  13.135
21504SOL     OW66343   3.537   9.729   6.313
21504SOL    HW166344   3.482   9.711   6.389
21504SOL    HW266345   3.533   9.824   6.302
21505SOL     OW66346   1.296   8.794  10.719
21505SOL    HW166347   1.294   8.761  10.629
21505SOL    HW266348   1.320   8.717  10.772
21506SOL     OW66349   0.936   8.042   6.144
21506SOL    HW166350   1.010   8.037   6.083
21506SOL    HW266351   0.968   7.998   6.223
21507SOL     OW66352   6.724   4.885   2.679
21507SOL    HW166353   6.645   4.857   2.726
21507SOL    HW266354   6.751   4.966   2.722
21508SOL     OW66355   8.651  13.862   5.429
21508SOL    HW166356   8.603  13.837   5.508
21508SOL    HW266357   8.688  13.781   5.395
21509SOL     OW66358   0.476   9.027   4.338
21509SOL    HW166359   0.391   8.990   4.360
21509SOL    HW266360   0.539   8.964   4.374
21510SOL     OW66361   2.180   8.855   9.216
21510SOL    HW166362   2.259   8.823   9.259
21510SOL    HW266363   2.212   8.918   9.151
21511SOL     OW66364   1.134   8.983   5.038
21511SOL    HW166365   1.223   9.012   5.054
21511SOL    HW266366   1.088   8.999   5.120
21512SOL     OW66367   5.500  12.821   8.302
21512SOL    HW166368   5.488  12.823   8.207
21512SOL    HW266369   5.511  12.728   8.322
21513SOL     OW66370  11.102   3.415  11.246
21513SOL    HW166371  11.127   3.402  11.337
21513SOL    HW266372  11.184   3.411  11.197
21514SOL     OW66373  14.129   0.522  10.205
21514SOL    HW166374  14.175   0.457  10.257
21514SOL    HW266375  14.197   0.558  10.147
21515SOL     OW66376   2.799  10.677   5.682
21515SOL    HW166377   2.893  10.688   5.663
21515SOL    HW266378   2.755  10.732   5.618
21516SOL     OW66379   7.877   8.888   2.263
21516SOL    HW166380   7.866   8.824   2.193
21516SOL    HW266381   7.865   8.973   2.220
21517SOL     OW66382  12.319  11.642   0.346
21517SOL    HW166383  12.390  11.640   0.410
21517SOL    HW266384  12.277  11.556   0.355
21518SOL     OW66385   0.476   5.254   0.080
21518SOL    HW166386   0.414   5.317   0.118
21518SOL    HW266387   0.518   5.213   0.156
21519SOL     OW66388   5.185  12.980  11.697
21519SOL    HW166389   5.098  12.992  11.736
21519SOL    HW266390   5.237  12.941  11.767
21520SOL     OW66391  10.450   5.778   1.487
21520SOL    HW166392  10.468   5.684   1.480
21520SOL    HW266393  10.536   5.818   1.497
21521SOL     OW66394   4.776  12.481   5.170
21521SOL    HW166395   4.695  12.530   5.175
21521SOL    HW266396   4.775  12.441   5.083
21522SOL     OW66397   2.347  11.647   1.173
21522SOL    HW166398   2.293  11.627   1.096
21522SOL    HW266399   2.435  11.622   1.148
21523SOL     OW66400  12.572   1.716  13.643
21523SOL    HW166401  12.590   1.625  13.621
21523SOL    HW266402  12.582   1.721  13.738
21524SOL     OW66403  13.621   1.511   1.106
21524SOL    HW166404  13.567   1.591   1.106
21524SOL    HW266405  13.711   1.543   1.119
21525SOL     OW66406   3.924  14.796   7.684
21525SOL    HW166407   3.948  14.856   7.614
21525SOL    HW266408   3.834  14.770   7.665
21526SOL     OW66409   5.836   1.010   2.181
21526SOL    HW166410   5.823   1.014   2.086
21526SOL    HW266411   5.789   1.086   2.215
21527SOL     OW66412   5.777   4.610  14.830
21527SOL    HW166413   5.834   4.637   0.030
21527SOL    HW266414   5.821   4.534  14.792
21528SOL     OW66415   8.814  13.663   5.685
21528SOL    HW166416   8.876  13.736   5.686
21528SOL    HW266417   8.739  13.696   5.635
21529SOL     OW66418  12.612  14.433  14.785
21529SOL    HW166419  12.583  14.475  14.866
21529SOL    HW266420  12.607  14.502  14.719
21530SOL     OW66421   8.663   4.922  12.230
21530SOL    HW166422   8.665   4.871  12.311
21530SOL    HW266423   8.597   4.879  12.176
21531SOL     OW66424   4.557   3.906   4.750
21531SOL    HW166425   4.495   3.846   4.791
21531SOL    HW266426   4.588   3.859   4.673
21532SOL     OW66427   1.479   7.255  14.103
21532SOL    HW166428   1.476   7.350  14.112
21532SOL    HW266429   1.556   7.239  14.049
21533SOL     OW66430   4.160   8.016   2.064
21533SOL    HW166431   4.115   7.937   2.034
21533SOL    HW266432   4.252   7.990   2.072
21534SOL     OW66433   3.083   7.179  14.755
21534SOL    HW166434   3.161   7.190  14.700
21534SOL    HW266435   3.088   7.088  14.785
21535SOL     OW66436   6.719  12.495   5.215
21535SOL    HW166437   6.776  12.473   5.290
21535SOL    HW266438   6.698  12.587   5.227
21536SOL     OW66439  14.409  12.620   7.782
21536SOL    HW166440  14.388  12.686   7.716
21536SOL    HW266441  14.502  12.601   7.768
21537SOL     OW66442  12.109  13.267   4.414
21537SOL    HW166443  12.179  13.286   4.477
21537SOL    HW266444  12.029  13.266   4.467
21538SOL     OW66445   0.357   2.136   8.727
21538SOL    HW166446   0.383   2.049   8.758
21538SOL    HW266447   0.342   2.125   8.634
21539SOL     OW66448  12.534   8.387   7.579
21539SOL    HW166449  12.616   8.411   7.535
21539SOL    HW266450  12.559   8.314   7.637
21540SOL     OW66451   4.439   7.775   0.998
21540SOL    HW166452   4.427   7.857   0.948
21540SOL    HW266453   4.382   7.786   1.074
21541SOL     OW66454   6.454   8.009   1.073
21541SOL    HW166455   6.487   8.096   1.049
21541SOL    HW266456   6.520   7.975   1.134
21542SOL     OW66457   4.443   2.979   3.832
21542SOL    HW166458   4.355   2.948   3.808
21542SOL    HW266459   4.428   3.030   3.912
21543SOL     OW66460  11.444  12.234  13.746
21543SOL    HW166461  11.460  12.197  13.659
21543SOL    HW266462  11.514  12.298  13.759
21544SOL     OW66463   5.902   0.728  12.136
21544SOL    HW166464   5.882   0.635  12.127
21544SOL    HW266465   5.900   0.762  12.047
21545SOL     OW66466   4.840   7.082   2.487
21545SOL    HW166467   4.889   7.157   2.521
21545SOL    HW266468   4.903   7.035   2.433
21546SOL     OW66469   7.630   5.470   8.628
21546SOL    HW166470   7.665   5.559   8.620
21546SOL    HW266471   7.640   5.450   8.721
21547SOL     OW66472   8.529   7.557  13.449
21547SOL    HW166473   8.555   7.579  13.360
21547SOL    HW266474   8.472   7.480  13.440
21548SOL     OW66475   4.006  12.157   9.398
21548SOL    HW166476   4.055  12.130   9.320
21548SOL    HW266477   4.050  12.112   9.471
21549SOL     OW66478   3.706  12.823  14.202
21549SOL    HW166479   3.645  12.843  14.131
21549SOL    HW266480   3.736  12.909  14.233
21550SOL     OW66481   9.766   9.800   0.950
21550SOL    HW166482   9.713   9.873   0.917
21550SOL    HW266483   9.707   9.750   1.006
21551SOL     OW66484  14.154  13.028   6.676
21551SOL    HW166485  14.105  13.010   6.596
21551SOL    HW266486  14.238  13.061   6.647
21552SOL     OW66487   6.818   0.191   8.870
21552SOL    HW166488   6.840   0.133   8.943
21552SOL    HW266489   6.877   0.266   8.880
21553SOL     OW66490   4.079  10.293   3.386
21553SOL    HW166491   4.127  10.227   3.436
21553SOL    HW266492   4.047  10.247   3.308
21554SOL     OW66493   0.883   7.782  11.564
21554SOL    HW166494   0.861   7.736  11.644
21554SOL    HW266495   0.839   7.867  11.571
21555SOL     OW66496  12.106   5.287   0.665
21555SOL    HW166497  12.114   5.211   0.723
21555SOL    HW266498  12.177   5.345   0.691
21556SOL     OW66499  10.960   5.643   9.570
21556SOL    HW166500  11.038   5.605   9.529
21556SOL    HW266501  10.978   5.737   9.572
21557SOL     OW66502   2.276   2.654   1.420
21557SOL    HW166503   2.369   2.658   1.443
21557SOL    HW266504   2.234   2.713   1.483
21558SOL     OW66505   3.329   9.696  11.635
21558SOL    HW166506   3.418   9.670  11.610
21558SOL    HW266507   3.338   9.722  11.727
21559SOL     OW66508   8.512  13.836   9.753
21559SOL    HW166509   8.445  13.900   9.729
21559SOL    HW266510   8.583  13.888   9.790
21560SOL     OW66511   4.239  12.451  13.633
21560SOL    HW166512   4.271  12.410  13.713
21560SOL    HW266513   4.278  12.400  13.562
21561SOL     OW66514   1.639   8.431   7.389
21561SOL    HW166515   1.672   8.361   7.332
21561SOL    HW266516   1.555   8.397   7.422
21562SOL     OW66517  14.814  10.314  10.421
21562SOL    HW166518   0.032  10.314  10.391
21562SOL    HW266519  14.780  10.400  10.397
21563SOL     OW66520  14.815   8.360   8.384
21563SOL    HW166521  14.837   8.453   8.390
21563SOL    HW266522  14.768   8.340   8.465
21564SOL     OW66523   5.513   8.613   2.828
21564SOL    HW166524   5.575   8.546   2.857
21564SOL    HW266525   5.497   8.593   2.736
21565SOL     OW66526   0.347  10.628   8.162
21565SOL    HW166527   0.335  10.656   8.071
21565SOL    HW266528   0.304  10.542   8.166
21566SOL     OW66529  10.681   5.498  14.172
21566SOL    HW166530  10.604   5.444  14.154
21566SOL    HW266531  10.703   5.536  14.087
21567SOL     OW66532   7.957   2.058   9.052
21567SOL    HW166533   8.020   2.058   9.123
21567SOL    HW266534   7.927   2.149   9.047
21568SOL     OW66535  13.414  13.519   5.364
21568SOL    HW166536  13.346  13.563   5.312
21568SOL    HW266537  13.367  13.480   5.437
21569SOL     OW66538  10.652   2.431   5.676
21569SOL    HW166539  10.594   2.355   5.682
21569SOL    HW266540  10.631   2.470   5.591
21570SOL     OW66541   8.258   2.011   1.471
21570SOL    HW166542   8.281   1.944   1.407
21570SOL    HW266543   8.208   1.964   1.538
21571SOL     OW66544   0.090   2.320  14.207
21571SOL    HW166545   0.018   2.324  14.270
21571SOL    HW266546   0.087   2.231  14.172
21572SOL     OW66547  10.066   8.658   3.304
21572SOL    HW166548  10.105   8.714   3.237
21572SOL    HW266549   9.978   8.639   3.272
21573SOL     OW66550  11.951   1.253   2.273
21573SOL    HW166551  11.926   1.337   2.310
21573SOL    HW266552  11.903   1.247   2.191
21574SOL     OW66553   4.708   8.410  11.985
21574SOL    HW166554   4.626   8.392  12.031
21574SOL    HW266555   4.762   8.332  12.002
21575SOL     OW66556   9.530   2.240   8.315
21575SOL    HW166557   9.581   2.310   8.275
21575SOL    HW266558   9.441   2.253   8.282
21576SOL     OW66559   6.574  14.644   0.507
21576SOL    HW166560   6.649  14.591   0.530
21576SOL    HW266561   6.500  14.603   0.552
21577SOL     OW66562   7.689   7.501   4.680
21577SOL    HW166563   7.607   7.521   4.634
21577SOL    HW266564   7.679   7.409   4.706
21578SOL     OW66565  12.525   5.666  14.045
21578SOL    HW166566  12.437   5.699  14.026
21578SOL    HW266567  12.577   5.745  14.063
21579SOL     OW66568  11.896  11.863  10.929
21579SOL    HW166569  11.858  11.780  10.899
21579SOL    HW266570  11.874  11.926  10.861
21580SOL     OW66571  11.057   2.384   7.582
21580SOL    HW166572  11.061   2.419   7.493
21580SOL    HW266573  10.970   2.344   7.589
21581SOL     OW66574   0.709  14.543  13.922
21581SOL    HW166575   0.624  14.586  13.930
21581SOL    HW266576   0.739  14.565  13.834
21582SOL     OW66577   4.943   3.826   4.779
21582SOL    HW166578   4.948   3.734   4.754
21582SOL    HW266579   4.985   3.873   4.707
21583SOL     OW66580  13.873  11.331  12.886
21583SOL    HW166581  13.903  11.370  12.968
21583SOL    HW266582  13.834  11.404  12.838
21584SOL     OW66583  10.038  13.053   1.232
21584SOL    HW166584  10.047  12.987   1.163
21584SOL    HW266585  10.125  13.091   1.240
21585SOL     OW66586   1.732   6.471  11.673
21585SOL    HW166587   1.711   6.452  11.764
21585SOL    HW266588   1.649   6.500  11.635
21586SOL     OW66589  12.127   3.505   6.940
21586SOL    HW166590  12.200   3.481   6.884
21586SOL    HW266591  12.128   3.441   7.011
21587SOL     OW66592  11.355   0.477  14.236
21587SOL    HW166593  11.370   0.571  14.231
21587SOL    HW266594  11.260   0.467  14.226
21588SOL     OW66595   9.918   1.068   7.952
21588SOL    HW166596   9.930   0.981   7.914
21588SOL    HW266597   9.850   1.109   7.899
21589SOL     OW66598   9.122   7.701  10.078
21589SOL    HW166599   9.105   7.790  10.110
21589SOL    HW266600   9.212   7.705  10.045
21590SOL     OW66601   4.987   2.064  12.618
21590SOL    HW166602   4.891   2.063  12.625
21590SOL    HW266603   5.017   2.066  12.708
21591SOL     OW66604   1.966   5.380  11.834
21591SOL    HW166605   2.050   5.333  11.830
21591SOL    HW266606   1.983   5.453  11.894
21592SOL     OW66607   7.164   2.912  12.034
21592SOL    HW166608   7.152   2.986  11.975
21592SOL    HW266609   7.205   2.951  12.112
21593SOL     OW66610   1.103   5.204  14.506
21593SOL    HW166611   1.117   5.182  14.414
21593SOL    HW266612   1.066   5.125  14.545
21594SOL     OW66613   8.823  12.909  14.417
21594SOL    HW166614   8.767  12.940  14.346
21594SOL    HW266615   8.832  12.815  14.401
21595SOL     OW66616   2.237   3.346   3.656
21595SOL    HW166617   2.319   3.340   3.705
21595SOL    HW266618   2.169   3.327   3.720
21596SOL     OW66619   5.051   0.837  10.399
21596SOL    HW166620   4.999   0.897  10.346
21596SOL    HW266621   5.062   0.882  10.483
21597SOL     OW66622  12.430  14.776   2.524
21597SOL    HW166623  12.415  14.844   2.590
21597SOL    HW266624  12.396  14.696   2.565
21598SOL     OW66625   0.211   8.067   6.933
21598SOL    HW166626   0.290   8.016   6.914
21598SOL    HW266627   0.146   8.033   6.871
21599SOL     OW66628   1.855   6.643   8.576
21599SOL    HW166629   1.917   6.571   8.571
21599SOL    HW266630   1.830   6.647   8.668
21600SOL     OW66631  11.686   8.658   9.465
21600SOL    HW166632  11.697   8.592   9.534
21600SOL    HW266633  11.700   8.609   9.384
21601SOL     OW66634   1.206  13.712   5.627
21601SOL    HW166635   1.120  13.692   5.588
21601SOL    HW266636   1.234  13.792   5.583
21602SOL     OW66637   5.579  14.116   3.641
21602SOL    HW166638   5.545  14.028   3.620
21602SOL    HW266639   5.624  14.144   3.562
21603SOL     OW66640  10.254   3.772  14.170
21603SOL    HW166641  10.312   3.844  14.195
21603SOL    HW266642  10.313   3.697  14.158
21604SOL     OW66643   6.413   8.324   8.566
21604SOL    HW166644   6.362   8.384   8.621
21604SOL    HW266645   6.356   8.248   8.555
21605SOL     OW66646   7.388  11.673   9.278
21605SOL    HW166647   7.418  11.588   9.311
21605SOL    HW266648   7.303  11.654   9.237
21606SOL     OW66649   0.887   2.129   6.925
21606SOL    HW166650   0.876   2.050   6.976
21606SOL    HW266651   0.822   2.190   6.961
21607SOL     OW66652   9.234   5.507   5.253
21607SOL    HW166653   9.183   5.481   5.176
21607SOL    HW266654   9.323   5.518   5.219
21608SOL     OW66655  10.231  13.180   4.440
21608SOL    HW166656  10.157  13.153   4.386
21608SOL    HW266657  10.194  13.242   4.503
21609SOL     OW66658  11.893  11.648  12.498
21609SOL    HW166659  11.967  11.596  12.468
21609SOL    HW266660  11.817  11.589  12.488
21610SOL     OW66661  13.516   3.404   1.035
21610SOL    HW166662  13.502   3.473   0.970
21610SOL    HW266663  13.491   3.323   0.989
21611SOL     OW66664   4.923   7.701   2.420
21611SOL    HW166665   4.865   7.729   2.350
21611SOL    HW266666   4.990   7.770   2.425
21612SOL     OW66667   7.295   1.568   8.193
21612SOL    HW166668   7.309   1.612   8.278
21612SOL    HW266669   7.215   1.518   8.206
21613SOL     OW66670  14.528   6.280   0.343
21613SOL    HW166671  14.579   6.202   0.320
21613SOL    HW266672  14.549   6.344   0.275
21614SOL     OW66673   4.017  10.646   7.351
21614SOL    HW166674   4.041  10.660   7.259
21614SOL    HW266675   4.012  10.551   7.360
21615SOL     OW66676   0.712   0.171   2.240
21615SOL    HW166677   0.747   0.083   2.255
21615SOL    HW266678   0.718   0.183   2.145
21616SOL     OW66679  14.228   5.293  10.005
21616SOL    HW166680  14.222   5.300   9.910
21616SOL    HW266681  14.318   5.266  10.022
21617SOL     OW66682   6.145   0.678   5.469
21617SOL    HW166683   6.062   0.722   5.455
21617SOL    HW266684   6.175   0.710   5.554
21618SOL     OW66685  13.257   9.909   2.209
21618SOL    HW166686  13.165   9.914   2.233
21618SOL    HW266687  13.271   9.819   2.182
21619SOL     OW66688   1.424  11.357  13.696
21619SOL    HW166689   1.376  11.277  13.672
21619SOL    HW266690   1.382  11.426  13.646
21620SOL     OW66691   9.662   1.445   0.232
21620SOL    HW166692   9.706   1.361   0.218
21620SOL    HW266693   9.579   1.421   0.274
21621SOL     OW66694   9.042  14.080   2.113
21621SOL    HW166695   9.113  14.137   2.143
21621SOL    HW266696   9.085  14.013   2.061
21622SOL     OW66697  12.074  14.721  12.250
21622SOL    HW166698  12.166  14.740  12.232
21622SOL    HW266699  12.072  14.628  12.271
21623SOL     OW66700  10.881   3.349  11.930
21623SOL    HW166701  10.913   3.360  11.841
21623SOL    HW266702  10.959   3.325  11.981
21624SOL     OW66703  11.353  14.724  13.461
21624SOL    HW166704  11.288  14.656  13.481
21624SOL    HW266705  11.306  14.806  13.476
21625SOL     OW66706   1.166   3.830   1.478
21625SOL    HW166707   1.144   3.907   1.425
21625SOL    HW266708   1.225   3.864   1.545
21626SOL     OW66709   9.317   4.176   6.211
21626SOL    HW166710   9.364   4.228   6.276
21626SOL    HW266711   9.375   4.101   6.194
21627SOL     OW66712   6.852   6.686  10.001
21627SOL    HW166713   6.928   6.678  10.058
21627SOL    HW266714   6.777   6.686  10.061
21628SOL     OW66715   0.274   8.818  10.060
21628SOL    HW166716   0.298   8.773  10.141
21628SOL    HW266717   0.211   8.761  10.018
21629SOL     OW66718  13.624   5.415  14.670
21629SOL    HW166719  13.550   5.377  14.717
21629SOL    HW266720  13.646   5.349  14.603
21630SOL     OW66721   5.246  10.691   5.216
21630SOL    HW166722   5.280  10.736   5.139
21630SOL    HW266723   5.306  10.715   5.286
21631SOL     OW66724   0.333   2.010   4.481
21631SOL    HW166725   0.247   2.049   4.496
21631SOL    HW266726   0.339   2.003   4.385
21632SOL     OW66727  12.298   9.915   1.453
21632SOL    HW166728  12.385   9.938   1.421
21632SOL    HW266729  12.275   9.835   1.406
21633SOL     OW66730   9.014  13.445   4.848
21633SOL    HW166731   8.975  13.501   4.915
21633SOL    HW266732   9.041  13.505   4.779
21634SOL     OW66733   2.692  13.764  11.198
21634SOL    HW166734   2.600  13.788  11.211
21634SOL    HW266735   2.728  13.834  11.145
21635SOL     OW66736   2.596   7.470  13.305
21635SOL    HW166737   2.596   7.549  13.251
21635SOL    HW266738   2.688   7.444  13.310
21636SOL     OW66739   6.459  11.540   7.465
21636SOL    HW166740   6.498  11.457   7.492
21636SOL    HW266741   6.530  11.604   7.476
21637SOL     OW66742   0.730  10.145   6.255
21637SOL    HW166743   0.763  10.234   6.260
21637SOL    HW266744   0.778  10.105   6.183
21638SOL     OW66745  12.785  10.594   9.598
21638SOL    HW166746  12.734  10.624   9.673
21638SOL    HW266747  12.799  10.500   9.615
21639SOL     OW66748  14.299  13.036   3.103
21639SOL    HW166749  14.325  13.041   3.011
21639SOL    HW266750  14.234  12.967   3.106
21640SOL     OW66751  14.841   6.241   4.589
21640SOL    HW166752   0.042   6.293   4.553
21640SOL    HW266753  14.838   6.163   4.534
21641SOL     OW66754   0.423  13.613   6.586
21641SOL    HW166755   0.439  13.671   6.661
21641SOL    HW266756   0.506  13.569   6.571
21642SOL     OW66757  10.735   5.379   9.038
21642SOL    HW166758  10.784   5.401   9.118
21642SOL    HW266759  10.699   5.462   9.008
21643SOL     OW66760   8.812   7.563   3.839
21643SOL    HW166761   8.854   7.622   3.776
21643SOL    HW266762   8.866   7.484   3.838
21644SOL     OW66763  10.025   6.523  13.509
21644SOL    HW166764  10.101   6.574  13.536
21644SOL    HW266765   9.951   6.565  13.554
21645SOL     OW66766   0.584   1.287   3.037
21645SOL    HW166767   0.679   1.281   3.033
21645SOL    HW266768   0.555   1.200   3.064
21646SOL     OW66769   2.158  13.583  14.548
21646SOL    HW166770   2.211  13.591  14.468
21646SOL    HW266771   2.138  13.674  14.573
21647SOL     OW66772   6.062   2.975  10.254
21647SOL    HW166773   6.063   3.045  10.319
21647SOL    HW266774   6.155   2.962  10.232
21648SOL     OW66775   2.692   6.085   4.389
21648SOL    HW166776   2.714   5.998   4.355
21648SOL    HW266777   2.602   6.077   4.419
21649SOL     OW66778   0.320  11.124   3.128
21649SOL    HW166779   0.291  11.211   3.098
21649SOL    HW266780   0.381  11.094   3.060
21650SOL     OW66781  11.424   8.552   9.814
21650SOL    HW166782  11.431   8.624   9.752
21650SOL    HW266783  11.444   8.474   9.761
21651SOL     OW66784   6.526   6.891   7.997
21651SOL    HW166785   6.516   6.951   7.923
21651SOL    HW266786   6.568   6.814   7.960
21652SOL     OW66787   3.336   9.121  12.691
21652SOL    HW166788   3.352   9.212  12.716
21652SOL    HW266789   3.358   9.117  12.598
21653SOL     OW66790   0.700   9.290   7.045
21653SOL    HW166791   0.691   9.195   7.041
21653SOL    HW266792   0.791   9.307   7.021
21654SOL     OW66793  12.678  11.292   0.267
21654SOL    HW166794  12.613  11.362   0.264
21654SOL    HW266795  12.713  11.289   0.178
21655SOL     OW66796   1.004   3.464   4.410
21655SOL    HW166797   0.972   3.525   4.343
21655SOL    HW266798   0.925   3.427   4.448
21656SOL     OW66799  12.946   4.427   6.969
21656SOL    HW166800  12.931   4.410   6.876
21656SOL    HW266801  12.903   4.354   7.014
21657SOL     OW66802   0.416   4.758   8.028
21657SOL    HW166803   0.501   4.729   8.059
21657SOL    HW266804   0.375   4.799   8.105
21658SOL     OW66805   2.205   0.058   5.579
21658SOL    HW166806   2.244   0.145   5.585
21658SOL    HW266807   2.157   0.047   5.661
21659SOL     OW66808   2.098  10.143   2.920
21659SOL    HW166809   2.167  10.207   2.935
21659SOL    HW266810   2.034  10.159   2.989
21660SOL     OW66811   2.020  13.212  10.578
21660SOL    HW166812   2.069  13.132  10.593
21660SOL    HW266813   2.027  13.228  10.484
21661SOL     OW66814   6.758   4.825   8.141
21661SOL    HW166815   6.688   4.799   8.081
21661SOL    HW266816   6.715   4.842   8.224
21662SOL     OW66817   3.857   7.535   7.268
21662SOL    HW166818   3.869   7.440   7.271
21662SOL    HW266819   3.944   7.570   7.247
21663SOL     OW66820  10.950  14.865  13.039
21663SOL    HW166821  10.959  14.865  13.134
21663SOL    HW266822  11.038  14.846  13.007
21664SOL     OW66823   4.993  12.596  14.116
21664SOL    HW166824   5.017  12.532  14.048
21664SOL    HW266825   4.915  12.638  14.082
21665SOL     OW66826   8.753   5.239  13.187
21665SOL    HW166827   8.810   5.312  13.163
21665SOL    HW266828   8.797   5.161  13.151
21666SOL     OW66829  10.145   2.674   2.113
21666SOL    HW166830  10.145   2.750   2.054
21666SOL    HW266831  10.136   2.712   2.201
21667SOL     OW66832   3.210  14.540  14.726
21667SOL    HW166833   3.260  14.554  14.645
21667SOL    HW266834   3.143  14.476  14.702
21668SOL     OW66835   3.231  11.652   2.120
21668SOL    HW166836   3.240  11.579   2.058
21668SOL    HW266837   3.232  11.730   2.065
21669SOL     OW66838  11.613   0.540   9.553
21669SOL    HW166839  11.584   0.450   9.536
21669SOL    HW266840  11.694   0.530   9.602
21670SOL     OW66841   8.274   4.781  13.151
21670SOL    HW166842   8.304   4.690  13.145
21670SOL    HW266843   8.349   4.829  13.185
21671SOL     OW66844  10.705  13.303  12.315
21671SOL    HW166845  10.677  13.392  12.293
21671SOL    HW266846  10.688  13.295  12.409
21672SOL     OW66847   2.448  10.729   6.493
21672SOL    HW166848   2.355  10.706   6.483
21672SOL    HW266849   2.450  10.824   6.489
21673SOL     OW66850   1.924   1.653   0.120
21673SOL    HW166851   1.932   1.565   0.156
21673SOL    HW266852   1.834   1.680   0.140
21674SOL     OW66853   6.755   7.548  10.198
21674SOL    HW166854   6.744   7.471  10.253
21674SOL    HW266855   6.739   7.622  10.257
21675SOL     OW66856  12.467   7.359   2.213
21675SOL    HW166857  12.381   7.325   2.190
21675SOL    HW266858  12.518   7.352   2.133
21676SOL     OW66859   8.011   9.009  11.363
21676SOL    HW166860   7.960   8.995  11.282
21676SOL    HW266861   7.969   8.951  11.427
21677SOL     OW66862   4.300   0.132   7.710
21677SOL    HW166863   4.260   0.046   7.716
21677SOL    HW266864   4.391   0.115   7.686
21678SOL     OW66865  13.632   8.279   9.729
21678SOL    HW166866  13.605   8.193   9.695
21678SOL    HW266867  13.726   8.268   9.747
21679SOL     OW66868  12.824   4.702  10.628
21679SOL    HW166869  12.787   4.788  10.609
21679SOL    HW266870  12.756   4.641  10.599
21680SOL     OW66871   5.729  13.661   9.950
21680SOL    HW166872   5.644  13.685   9.986
21680SOL    HW266873   5.711  13.585   9.894
21681SOL     OW66874   6.318  13.789  10.147
21681SOL    HW166875   6.278  13.863  10.191
21681SOL    HW266876   6.244  13.730  10.128
21682SOL     OW66877  10.226   3.858   9.663
21682SOL    HW166878  10.154   3.881   9.604
21682SOL    HW266879  10.208   3.907   9.743
21683SOL     OW66880   3.910   8.831   1.397
21683SOL    HW166881   3.827   8.878   1.392
21683SOL    HW266882   3.947   8.839   1.309
21684SOL     OW66883   5.896   4.789   5.903
21684SOL    HW166884   5.883   4.827   5.816
21684SOL    HW266885   5.950   4.852   5.949
21685SOL     OW66886  12.012  11.438   3.185
21685SOL    HW166887  12.036  11.444   3.277
21685SOL    HW266888  11.968  11.521   3.166
21686SOL     OW66889   6.742  12.158  13.856
21686SOL    HW166890   6.750  12.250  13.830
21686SOL    HW266891   6.827  12.120  13.833
21687SOL     OW66892   7.700   7.246  12.921
21687SOL    HW166893   7.627   7.271  12.865
21687SOL    HW266894   7.687   7.153  12.937
21688SOL     OW66895  10.810  14.341   3.552
21688SOL    HW166896  10.785  14.361   3.462
21688SOL    HW266897  10.824  14.246   3.553
21689SOL     OW66898   7.762  14.588   0.313
21689SOL    HW166899   7.716  14.560   0.393
21689SOL    HW266900   7.712  14.549   0.242
21690SOL     OW66901   1.173  10.061   9.746
21690SOL    HW166902   1.155   9.980   9.698
21690SOL    HW266903   1.259  10.088   9.717
21691SOL     OW66904   5.911  12.737  14.121
21691SOL    HW166905   5.833  12.704  14.165
21691SOL    HW266906   5.935  12.668  14.060
21692SOL     OW66907   7.880  10.279   8.247
21692SOL    HW166908   7.939  10.350   8.223
21692SOL    HW266909   7.823  10.317   8.314
21693SOL     OW66910   5.196   8.231  12.967
21693SOL    HW166911   5.269   8.273  13.012
21693SOL    HW266912   5.195   8.270  12.880
21694SOL     OW66913  10.064   7.342  12.030
21694SOL    HW166914  10.083   7.349  12.123
21694SOL    HW266915   9.979   7.298  12.027
21695SOL     OW66916  11.941   3.844  13.335
21695SOL    HW166917  11.937   3.864  13.428
21695SOL    HW266918  11.947   3.930  13.293
21696SOL     OW66919   4.866   5.377   6.796
21696SOL    HW166920   4.828   5.347   6.878
21696SOL    HW266921   4.832   5.465   6.784
21697SOL     OW66922   3.463  11.191   5.305
21697SOL    HW166923   3.408  11.188   5.226
21697SOL    HW266924   3.529  11.123   5.290
21698SOL     OW66925  13.033   3.058   0.842
21698SOL    HW166926  13.079   3.036   0.761
21698SOL    HW266927  13.086   3.017   0.911
21699SOL     OW66928  12.710  13.656  12.079
21699SOL    HW166929  12.615  13.651  12.076
21699SOL    HW266930  12.739  13.565  12.077
21700SOL     OW66931   0.780  14.703   1.091
21700SOL    HW166932   0.790  14.662   1.005
21700SOL    HW266933   0.781  14.631   1.153
21701SOL     OW66934   9.669   9.852   2.772
21701SOL    HW166935   9.693   9.904   2.849
21701SOL    HW266936   9.658   9.917   2.702
21702SOL     OW66937   3.954   4.107   1.439
21702SOL    HW166938   4.030   4.086   1.494
21702SOL    HW266939   3.881   4.112   1.501
21703SOL     OW66940  14.148   4.693  12.019
21703SOL    HW166941  14.077   4.703  12.082
21703SOL    HW266942  14.186   4.781  12.012
21704SOL     OW66943   9.814   2.818   8.374
21704SOL    HW166944   9.727   2.821   8.415
21704SOL    HW266945   9.818   2.731   8.333
21705SOL     OW66946   9.413  12.846  14.305
21705SOL    HW166947   9.419  12.787  14.230
21705SOL    HW266948   9.468  12.920  14.282
21706SOL     OW66949   0.863   1.975   3.595
21706SOL    HW166950   0.861   2.003   3.503
21706SOL    HW266951   0.946   2.008   3.628
21707SOL     OW66952   8.088   2.017  11.992
21707SOL    HW166953   8.094   2.097  11.939
21707SOL    HW266954   8.006   1.976  11.964
21708SOL     OW66955   3.532   2.769   0.681
21708SOL    HW166956   3.451   2.769   0.629
21708SOL    HW266957   3.503   2.758   0.771
21709SOL     OW66958  11.962   6.570   8.867
21709SOL    HW166959  11.906   6.648   8.867
21709SOL    HW266960  11.901   6.497   8.860
21710SOL     OW66961   0.348   3.194   6.459
21710SOL    HW166962   0.437   3.171   6.433
21710SOL    HW266963   0.292   3.158   6.390
21711SOL     OW66964   9.239  12.713   4.454
21711SOL    HW166965   9.158  12.721   4.505
21711SOL    HW266966   9.307  12.701   4.520
21712SOL     OW66967   4.955   0.562  14.730
21712SOL    HW166968   4.937   0.537  14.820
21712SOL    HW266969   4.971   0.480  14.685
21713SOL     OW66970  13.315  10.925  10.908
21713SOL    HW166971  13.306  10.852  10.846
21713SOL    HW266972  13.317  10.882  10.994
21714SOL     OW66973   8.013  14.013   6.277
21714SOL    HW166974   8.105  13.999   6.254
21714SOL    HW266975   7.999  13.958   6.354
21715SOL     OW66976   8.964  10.467   7.410
21715SOL    HW166977   8.899  10.430   7.470
21715SOL    HW266978   8.980  10.397   7.346
21716SOL     OW66979  12.387  10.128   0.445
21716SOL    HW166980  12.483  10.122   0.442
21716SOL    HW266981  12.359  10.106   0.356
21717SOL     OW66982  10.873   1.440   4.409
21717SOL    HW166983  10.961   1.478   4.410
21717SOL    HW266984  10.881   1.361   4.356
21718SOL     OW66985  13.905   6.170   6.247
21718SOL    HW166986  13.927   6.099   6.187
21718SOL    HW266987  13.877   6.242   6.191
21719SOL     OW66988  12.779   6.435  11.019
21719SOL    HW166989  12.758   6.413  11.109
21719SOL    HW266990  12.850   6.375  10.995
21720SOL     OW66991   5.178   8.375   0.488
21720SOL    HW166992   5.108   8.357   0.552
21720SOL    HW266993   5.147   8.453   0.440
21721SOL     OW66994  11.783   9.111   0.626
21721SOL    HW166995  11.876   9.122   0.606
21721SOL    HW266996  11.780   9.034   0.682
21722SOL     OW66997   3.402   3.866  12.896
21722SOL    HW166998   3.348   3.808  12.949
21722SOL    HW266999   3.488   3.825  12.895
21723SOL     OW67000  14.789  14.062   6.721
21723SOL    HW167001  14.772  13.971   6.696
21723SOL    HW267002  14.758  14.113   6.647
21724SOL     OW67003   0.200   2.973   1.818
21724SOL    HW167004   0.153   2.921   1.883
21724SOL    HW267005   0.216   2.912   1.745
21725SOL     OW67006   3.680   1.433   7.395
21725SOL    HW167007   3.769   1.453   7.366
21725SOL    HW267008   3.624   1.486   7.337
21726SOL     OW67009   9.068   1.543   0.014
21726SOL    HW167010   9.022   1.601   0.074
21726SOL    HW267011   9.148   1.518   0.061
21727SOL     OW67012   6.570  14.756   6.479
21727SOL    HW167013   6.612  14.672   6.495
21727SOL    HW267014   6.633  14.821   6.510
21728SOL     OW67015   1.817   7.099   3.301
21728SOL    HW167016   1.816   7.194   3.316
21728SOL    HW267017   1.824   7.062   3.389
21729SOL     OW67018   3.128  14.271  11.972
21729SOL    HW167019   3.151  14.346  12.028
21729SOL    HW267020   3.069  14.218  12.027
21730SOL     OW67021   7.218   9.914   0.616
21730SOL    HW167022   7.140   9.889   0.565
21730SOL    HW267023   7.189   9.988   0.669
21731SOL     OW67024  12.292   4.623   6.671
21731SOL    HW167025  12.290   4.611   6.766
21731SOL    HW267026  12.370   4.677   6.656
21732SOL     OW67027   2.837  14.360   0.378
21732SOL    HW167028   2.802  14.448   0.364
21732SOL    HW267029   2.766  14.312   0.420
21733SOL     OW67030   6.256  11.636   6.779
21733SOL    HW167031   6.168  11.631   6.741
21733SOL    HW267032   6.314  11.603   6.710
21734SOL     OW67033  13.688   1.201   9.937
21734SOL    HW167034  13.688   1.220  10.031
21734SOL    HW267035  13.598   1.213   9.910
21735SOL     OW67036   9.697   1.466   2.388
21735SOL    HW167037   9.696   1.389   2.330
21735SOL    HW267038   9.729   1.537   2.332
21736SOL     OW67039   1.284  11.746   0.954
21736SOL    HW167040   1.349  11.782   1.015
21736SOL    HW267041   1.268  11.657   0.986
21737SOL     OW67042   5.595   1.294   0.087
21737SOL    HW167043   5.637   1.327   0.166
21737SOL    HW267044   5.502   1.312   0.101
21738SOL     OW67045   0.129  11.983   3.506
21738SOL    HW167046   0.195  12.038   3.463
21738SOL    HW267047   0.046  12.021   3.479
21739SOL     OW67048   2.414   7.826  13.225
21739SOL    HW167049   2.457   7.906  13.194
21739SOL    HW267050   2.378   7.849  13.310
21740SOL     OW67051  10.975  14.416   8.170
21740SOL    HW167052  10.987  14.510   8.182
21740SOL    HW267053  11.022  14.375   8.242
21741SOL     OW67054   5.147   0.000   0.074
21741SOL    HW167055   5.189   0.040  14.870
21741SOL    HW267056   5.169   0.059   0.147
21742SOL     OW67057   4.705  10.662   1.793
21742SOL    HW167058   4.737  10.752   1.793
21742SOL    HW267059   4.652  10.654   1.713
21743SOL     OW67060   6.814   6.512  12.637
21743SOL    HW167061   6.755   6.579  12.604
21743SOL    HW267062   6.757   6.447  12.677
21744SOL     OW67063   6.975   4.514  13.236
21744SOL    HW167064   7.006   4.492  13.324
21744SOL    HW267065   6.897   4.568  13.251
21745SOL     OW67066   0.415  14.148  10.661
21745SOL    HW167067   0.488  14.085  10.660
21745SOL    HW267068   0.434  14.208  10.589
21746SOL     OW67069  12.485   1.028  10.681
21746SOL    HW167070  12.515   1.066  10.598
21746SOL    HW267071  12.463   0.937  10.659
21747SOL     OW67072  14.314   5.081   8.653
21747SOL    HW167073  14.369   5.089   8.731
21747SOL    HW267074  14.241   5.140   8.670
21748SOL     OW67075  12.291   9.321   8.132
21748SOL    HW167076  12.198   9.338   8.145
21748SOL    HW267077  12.296   9.275   8.048
21749SOL     OW67078   6.334   7.899   9.904
21749SOL    HW167079   6.371   7.907   9.992
21749SOL    HW267080   6.284   7.817   9.907
21750SOL     OW67081  14.850   4.388   8.254
21750SOL    HW167082  14.867   4.366   8.162
21750SOL    HW267083   0.043   4.338   8.303
21751SOL     OW67084   9.003   4.739   3.663
21751SOL    HW167085   8.919   4.701   3.636
21751SOL    HW267086   8.986   4.832   3.669
21752SOL     OW67087  12.353   3.490   2.667
21752SOL    HW167088  12.421   3.504   2.601
21752SOL    HW267089  12.311   3.576   2.678
21753SOL     OW67090   3.329   0.635   8.102
21753SOL    HW167091   3.419   0.659   8.124
21753SOL    HW267092   3.337   0.556   8.048
21754SOL     OW67093   2.800   0.368   5.781
21754SOL    HW167094   2.801   0.370   5.685
21754SOL    HW267095   2.707   0.369   5.804
21755SOL     OW67096   2.707  13.492   0.480
21755SOL    HW167097   2.704  13.468   0.387
21755SOL    HW267098   2.738  13.583   0.480
21756SOL     OW67099   1.097   4.912   2.893
21756SOL    HW167100   1.028   4.884   2.833
21756SOL    HW267101   1.158   4.960   2.838
21757SOL     OW67102   0.363   4.588   2.739
21757SOL    HW167103   0.366   4.595   2.834
21757SOL    HW267104   0.271   4.600   2.716
21758SOL     OW67105   8.222  13.163  10.577
21758SOL    HW167106   8.284  13.090  10.569
21758SOL    HW267107   8.177  13.147  10.661
21759SOL     OW67108  11.823  12.399  10.192
21759SOL    HW167109  11.857  12.374  10.277
21759SOL    HW267110  11.894  12.381  10.131
21760SOL     OW67111   7.845  13.572   8.924
21760SOL    HW167112   7.897  13.534   8.853
21760SOL    HW267113   7.869  13.520   9.001
21761SOL     OW67114   7.916  10.519   0.107
21761SOL    HW167115   7.928  10.571   0.027
21761SOL    HW267116   7.933  10.429   0.079
21762SOL     OW67117   1.816   2.094   3.271
21762SOL    HW167118   1.907   2.117   3.254
21762SOL    HW267119   1.814   2.070   3.364
21763SOL     OW67120   9.411   5.562   2.133
21763SOL    HW167121   9.422   5.468   2.138
21763SOL    HW267122   9.324   5.575   2.095
21764SOL     OW67123  10.598   6.151  13.341
21764SOL    HW167124  10.664   6.197  13.289
21764SOL    HW267125  10.645   6.077  13.381
21765SOL     OW67126  13.775   0.318   5.427
21765SOL    HW167127  13.756   0.280   5.341
21765SOL    HW267128  13.826   0.251   5.472
21766SOL     OW67129   7.337  13.650   9.911
21766SOL    HW167130   7.277  13.724   9.913
21766SOL    HW267131   7.326  13.607   9.995
21767SOL     OW67132   8.969   7.619   0.561
21767SOL    HW167133   9.000   7.541   0.608
21767SOL    HW267134   8.882   7.635   0.599
21768SOL     OW67135   4.305   0.595  10.213
21768SOL    HW167136   4.239   0.538  10.172
21768SOL    HW267137   4.314   0.560  10.302
21769SOL     OW67138  10.104   9.661  10.067
21769SOL    HW167139  10.089   9.626   9.979
21769SOL    HW267140  10.025   9.636  10.116
21770SOL     OW67141   8.393   2.945   6.682
21770SOL    HW167142   8.385   2.852   6.702
21770SOL    HW267143   8.334   2.987   6.745
21771SOL     OW67144   6.186  12.200   9.031
21771SOL    HW167145   6.279  12.180   9.021
21771SOL    HW267146   6.179  12.294   9.012
21772SOL     OW67147   7.596  11.892   2.434
21772SOL    HW167148   7.674  11.892   2.378
21772SOL    HW267149   7.551  11.974   2.413
21773SOL     OW67150   5.767  12.437   5.643
21773SOL    HW167151   5.861  12.424   5.646
21773SOL    HW267152   5.751  12.483   5.560
21774SOL     OW67153   2.696   5.897   8.898
21774SOL    HW167154   2.659   5.957   8.963
21774SOL    HW267155   2.665   5.810   8.925
21775SOL     OW67156   6.709  12.531   1.570
21775SOL    HW167157   6.640  12.492   1.517
21775SOL    HW267158   6.699  12.490   1.656
21776SOL     OW67159   0.072   3.091   8.724
21776SOL    HW167160   0.100   3.119   8.811
21776SOL    HW267161   0.092   3.166   8.668
21777SOL     OW67162  11.308   1.423   8.747
21777SOL    HW167163  11.356   1.505   8.742
21777SOL    HW267164  11.247   1.435   8.821
21778SOL     OW67165   7.994   2.998   4.440
21778SOL    HW167166   7.941   2.919   4.444
21778SOL    HW267167   7.965   3.043   4.361
21779SOL     OW67168   4.085   0.570   7.244
21779SOL    HW167169   4.174   0.540   7.226
21779SOL    HW267170   4.064   0.631   7.174
21780SOL     OW67171   0.019   8.056  14.143
21780SOL    HW167172  14.840   8.071  14.222
21780SOL    HW267173   0.105   8.028  14.175
21781SOL     OW67174   4.497   4.073   1.829
21781SOL    HW167175   4.460   3.988   1.809
21781SOL    HW267176   4.432   4.136   1.798
21782SOL     OW67177   2.139   1.950  11.977
21782SOL    HW167178   2.108   1.874  12.027
21782SOL    HW267179   2.234   1.948  11.987
21783SOL     OW67180   5.743  10.639  14.783
21783SOL    HW167181   5.823  10.682  14.753
21783SOL    HW267182   5.729  10.567  14.721
21784SOL     OW67183   5.531  13.756  12.016
21784SOL    HW167184   5.619  13.752  11.977
21784SOL    HW267185   5.543  13.806  12.097
21785SOL     OW67186  13.689  10.549   9.892
21785SOL    HW167187  13.643  10.632   9.892
21785SOL    HW267188  13.620  10.483   9.890
21786SOL     OW67189   7.079  14.362   8.038
21786SOL    HW167190   7.076  14.455   8.015
21786SOL    HW267191   7.067  14.316   7.955
21787SOL     OW67192   2.700   0.260   3.575
21787SOL    HW167193   2.753   0.285   3.499
21787SOL    HW267194   2.658   0.178   3.550
21788SOL     OW67195  13.200  12.030  12.017
21788SOL    HW167196  13.176  12.091  12.087
21788SOL    HW267197  13.229  12.087  11.946
21789SOL     OW67198  11.383   7.737   3.263
21789SOL    HW167199  11.402   7.756   3.171
21789SOL    HW267200  11.462   7.764   3.310
21790SOL     OW67201   4.762   0.099  10.178
21790SOL    HW167202   4.745   0.176  10.125
21790SOL    HW267203   4.838   0.058  10.137
21791SOL     OW67204   1.505   1.829   2.359
21791SOL    HW167205   1.582   1.774   2.369
21791SOL    HW267206   1.433   1.777   2.393
21792SOL     OW67207   6.996   5.788   4.775
21792SOL    HW167208   6.937   5.785   4.851
21792SOL    HW267209   7.063   5.722   4.795
21793SOL     OW67210   9.166  12.180   1.125
21793SOL    HW167211   9.186  12.143   1.212
21793SOL    HW267212   9.156  12.274   1.140
21794SOL     OW67213   3.646   0.168   7.586
21794SOL    HW167214   3.724   0.192   7.535
21794SOL    HW267215   3.580   0.232   7.561
21795SOL     OW67216   4.944   3.692  12.554
21795SOL    HW167217   4.856   3.730  12.552
21795SOL    HW267218   4.987   3.726  12.476
21796SOL     OW67219   9.083   9.145  11.206
21796SOL    HW167220   9.109   9.224  11.252
21796SOL    HW267221   9.111   9.073  11.263
21797SOL     OW67222   7.907   9.423   7.738
21797SOL    HW167223   7.900   9.363   7.812
21797SOL    HW267224   8.000   9.428   7.719
21798SOL     OW67225   3.093   4.889   4.980
21798SOL    HW167226   3.130   4.943   4.910
21798SOL    HW267227   3.081   4.949   5.053
21799SOL     OW67228  11.726   3.762   4.132
21799SOL    HW167229  11.752   3.766   4.223
21799SOL    HW267230  11.775   3.688   4.096
21800SOL     OW67231   3.824   6.439  11.615
21800SOL    HW167232   3.912   6.417  11.583
21800SOL    HW267233   3.831   6.430  11.710
21801SOL     OW67234   7.437   0.625  13.791
21801SOL    HW167235   7.384   0.546  13.799
21801SOL    HW267236   7.378   0.690  13.752
21802SOL     OW67237   2.966  10.665   8.875
21802SOL    HW167238   2.972  10.662   8.970
21802SOL    HW267239   3.011  10.586   8.845
21803SOL     OW67240   7.380   6.267   4.228
21803SOL    HW167241   7.451   6.331   4.222
21803SOL    HW267242   7.309   6.314   4.272
21804SOL     OW67243   0.921   2.530   1.300
21804SOL    HW167244   0.841   2.478   1.306
21804SOL    HW267245   0.980   2.492   1.365
21805SOL     OW67246   6.454  13.308  13.777
21805SOL    HW167247   6.431  13.350  13.860
21805SOL    HW267248   6.374  13.314  13.725
21806SOL     OW67249   9.548   0.486   8.241
21806SOL    HW167250   9.478   0.464   8.302
21806SOL    HW267251   9.504   0.538   8.173
21807SOL     OW67252   7.518   9.012   2.671
21807SOL    HW167253   7.490   9.006   2.580
21807SOL    HW267254   7.613   9.025   2.666
21808SOL     OW67255   9.343  10.805   1.628
21808SOL    HW167256   9.251  10.827   1.619
21808SOL    HW267257   9.382  10.880   1.674
21809SOL     OW67258   9.370  12.139   4.331
21809SOL    HW167259   9.407  12.212   4.281
21809SOL    HW267260   9.285  12.173   4.362
21810SOL     OW67261   1.059  13.849   5.066
21810SOL    HW167262   1.098  13.917   5.011
21810SOL    HW267263   1.124  13.834   5.135
21811SOL     OW67264   8.397   0.617   3.950
21811SOL    HW167265   8.433   0.620   4.038
21811SOL    HW267266   8.409   0.527   3.922
21812SOL     OW67267   3.825  11.439  10.699
21812SOL    HW167268   3.891  11.497  10.737
21812SOL    HW267269   3.744  11.490  10.702
21813SOL     OW67270  13.951   3.236   2.707
21813SOL    HW167271  13.877   3.200   2.756
21813SOL    HW267272  14.016   3.256   2.775
21814SOL     OW67273  11.703  11.741   6.217
21814SOL    HW167274  11.777  11.681   6.226
21814SOL    HW267275  11.630  11.697   6.261
21815SOL     OW67276  10.465   4.395   6.999
21815SOL    HW167277  10.513   4.388   6.916
21815SOL    HW267278  10.498   4.477   7.038
21816SOL     OW67279   2.239  12.162  10.167
21816SOL    HW167280   2.248  12.247  10.210
21816SOL    HW267281   2.302  12.164  10.095
21817SOL     OW67282  12.108  11.040  10.856
21817SOL    HW167283  12.187  11.084  10.887
21817SOL    HW267284  12.050  11.037  10.933
21818SOL     OW67285  13.656   5.411   5.619
21818SOL    HW167286  13.745   5.394   5.650
21818SOL    HW267287  13.621   5.477   5.678
21819SOL     OW67288   6.040   8.454   6.621
21819SOL    HW167289   5.969   8.461   6.557
21819SOL    HW267290   6.054   8.544   6.650
21820SOL     OW67291   4.595   9.222   5.894
21820SOL    HW167292   4.647   9.302   5.904
21820SOL    HW267293   4.505   9.248   5.914
21821SOL     OW67294  12.140   0.713   7.915
21821SOL    HW167295  12.234   0.720   7.932
21821SOL    HW267296  12.100   0.772   7.979
21822SOL     OW67297   9.365   5.922   2.447
21822SOL    HW167298   9.446   5.930   2.497
21822SOL    HW267299   9.314   5.855   2.493
21823SOL     OW67300  12.460  14.179   3.775
21823SOL    HW167301  12.430  14.246   3.713
21823SOL    HW267302  12.402  14.105   3.760
21824SOL     OW67303   6.657   0.918   5.709
21824SOL    HW167304   6.722   0.848   5.715
21824SOL    HW267305   6.605   0.897   5.631
21825SOL     OW67306   2.199  12.209   9.650
21825SOL    HW167307   2.123  12.155   9.628
21825SOL    HW267308   2.274  12.156   9.624
21826SOL     OW67309   8.593  13.567   6.267
21826SOL    HW167310   8.613  13.656   6.295
21826SOL    HW267311   8.538  13.578   6.190
21827SOL     OW67312   0.167   9.484   5.055
21827SOL    HW167313   0.257   9.455   5.065
21827SOL    HW267314   0.171   9.579   5.061
21828SOL     OW67315   2.924   1.911   9.123
21828SOL    HW167316   2.916   1.987   9.180
21828SOL    HW267317   2.972   1.847   9.176
21829SOL     OW67318  14.155   7.862   0.370
21829SOL    HW167319  14.163   7.840   0.277
21829SOL    HW267320  14.244   7.854   0.404
21830SOL     OW67321  13.232   4.825  11.464
21830SOL    HW167322  13.144   4.834  11.427
21830SOL    HW267323  13.227   4.874  11.547
21831SOL     OW67324  14.776  12.129  11.152
21831SOL    HW167325  14.687  12.119  11.118
21831SOL    HW267326  14.769  12.203  11.213
21832SOL     OW67327   7.791  12.139   7.894
21832SOL    HW167328   7.701  12.121   7.922
21832SOL    HW267329   7.846  12.098   7.962
21833SOL     OW67330   3.023   7.672   9.783
21833SOL    HW167331   3.052   7.592   9.739
21833SOL    HW267332   2.983   7.724   9.714
21834SOL     OW67333   5.748   9.989  13.508
21834SOL    HW167334   5.654   9.977  13.492
21834SOL    HW267335   5.752  10.049  13.582
21835SOL     OW67336   4.093   6.311  13.506
21835SOL    HW167337   4.112   6.296  13.598
21835SOL    HW267338   3.997   6.319  13.502
21836SOL     OW67339   8.753   1.222  10.410
21836SOL    HW167340   8.726   1.131  10.417
21836SOL    HW267341   8.690   1.270  10.464
21837SOL     OW67342  14.520   1.691   4.347
21837SOL    HW167343  14.603   1.647   4.332
21837SOL    HW267344  14.468   1.671   4.269
21838SOL     OW67345   0.482   2.835  11.898
21838SOL    HW167346   0.493   2.900  11.829
21838SOL    HW267347   0.421   2.771  11.863
21839SOL     OW67348   6.096   8.838   7.814
21839SOL    HW167349   6.070   8.750   7.785
21839SOL    HW267350   6.066   8.896   7.744
21840SOL     OW67351   8.449  13.275   0.250
21840SOL    HW167352   8.438  13.348   0.189
21840SOL    HW267353   8.536  13.288   0.287
21841SOL     OW67354  11.226   0.973   0.403
21841SOL    HW167355  11.304   1.024   0.381
21841SOL    HW267356  11.154   1.035   0.395
21842SOL     OW67357   9.941   8.491   7.558
21842SOL    HW167358   9.915   8.409   7.600
21842SOL    HW267359   9.918   8.479   7.466
21843SOL     OW67360   3.774   8.945   4.279
21843SOL    HW167361   3.744   8.854   4.278
21843SOL    HW267362   3.825   8.952   4.359
21844SOL     OW67363  12.598   5.298  12.559
21844SOL    HW167364  12.593   5.209  12.594
21844SOL    HW267365  12.529   5.302  12.493
21845SOL     OW67366   6.021   9.213   8.035
21845SOL    HW167367   5.981   9.126   8.044
21845SOL    HW267368   6.018   9.250   8.123
21846SOL     OW67369   2.503   7.187   8.401
21846SOL    HW167370   2.413   7.219   8.406
21846SOL    HW267371   2.498   7.097   8.435
21847SOL     OW67372   5.483  12.310   3.316
21847SOL    HW167373   5.520  12.249   3.379
21847SOL    HW267374   5.501  12.397   3.353
21848SOL     OW67375  10.397  12.155  10.307
21848SOL    HW167376  10.368  12.221  10.244
21848SOL    HW267377  10.411  12.204  10.388
21849SOL     OW67378   0.925  12.289  12.377
21849SOL    HW167379   0.908  12.220  12.313
21849SOL    HW267380   0.942  12.368  12.325
21850SOL     OW67381   6.864   4.316   3.177
21850SOL    HW167382   6.945   4.295   3.224
21850SOL    HW267383   6.814   4.371   3.238
21851SOL     OW67384   8.217   4.483  10.764
21851SOL    HW167385   8.149   4.416  10.752
21851SOL    HW267386   8.257   4.462  10.848
21852SOL     OW67387  11.487   6.107  11.885
21852SOL    HW167388  11.410   6.113  11.829
21852SOL    HW267389  11.455   6.065  11.965
21853SOL     OW67390   8.864   1.662  10.830
21853SOL    HW167391   8.860   1.741  10.776
21853SOL    HW267392   8.785   1.665  10.884
21854SOL     OW67393  10.751   8.991   5.142
21854SOL    HW167394  10.718   8.968   5.055
21854SOL    HW267395  10.839   8.954   5.145
21855SOL     OW67396  11.968   8.740  10.655
21855SOL    HW167397  12.051   8.707  10.688
21855SOL    HW267398  11.921   8.662  10.625
21856SOL     OW67399   5.078  12.179   1.368
21856SOL    HW167400   5.111  12.173   1.278
21856SOL    HW267401   4.985  12.203   1.357
21857SOL     OW67402   2.138  13.777   3.579
21857SOL    HW167403   2.222  13.745   3.546
21857SOL    HW267404   2.162  13.850   3.636
21858SOL     OW67405   8.190  10.083  10.881
21858SOL    HW167406   8.256  10.014  10.892
21858SOL    HW267407   8.111  10.036  10.854
21859SOL     OW67408   7.121  14.540  12.505
21859SOL    HW167409   7.085  14.529  12.417
21859SOL    HW267410   7.045  14.564  12.559
21860SOL     OW67411   6.093   1.869   9.276
21860SOL    HW167412   6.177   1.825   9.269
21860SOL    HW267413   6.069   1.891   9.186
21861SOL     OW67414   2.490   4.994   0.677
21861SOL    HW167415   2.464   4.907   0.647
21861SOL    HW267416   2.585   4.991   0.678
21862SOL     OW67417  13.507  14.294   8.572
21862SOL    HW167418  13.452  14.260   8.501
21862SOL    HW267419  13.473  14.381   8.589
21863SOL     OW67420   7.271  12.396   3.608
21863SOL    HW167421   7.328  12.437   3.543
21863SOL    HW267422   7.327  12.384   3.685
21864SOL     OW67423   3.741  14.566  11.983
21864SOL    HW167424   3.800  14.492  11.968
21864SOL    HW267425   3.717  14.559  12.076
21865SOL     OW67426  12.816   9.915   3.232
21865SOL    HW167427  12.872   9.967   3.289
21865SOL    HW267428  12.874   9.850   3.194
21866SOL     OW67429  14.631  10.386   1.433
21866SOL    HW167430  14.537  10.370   1.429
21866SOL    HW267431  14.671  10.303   1.407
21867SOL     OW67432  14.625   4.682   0.576
21867SOL    HW167433  14.662   4.642   0.497
21867SOL    HW267434  14.597   4.769   0.548
21868SOL     OW67435   1.412  12.866  10.869
21868SOL    HW167436   1.403  12.815  10.950
21868SOL    HW267437   1.418  12.957  10.899
21869SOL     OW67438   9.973  11.121  12.471
21869SOL    HW167439  10.068  11.123  12.482
21869SOL    HW267440   9.956  11.178  12.396
21870SOL     OW67441  13.096   8.657   5.347
21870SOL    HW167442  13.011   8.681   5.384
21870SOL    HW267443  13.146   8.626   5.421
21871SOL     OW67444  14.781   4.905   3.860
21871SOL    HW167445  14.818   4.883   3.946
21871SOL    HW267446  14.716   4.837   3.844
21872SOL     OW67447  12.139   3.223   8.574
21872SOL    HW167448  12.120   3.140   8.617
21872SOL    HW267449  12.064   3.238   8.516
21873SOL     OW67450   2.404   0.874  11.489
21873SOL    HW167451   2.414   0.781  11.467
21873SOL    HW267452   2.493   0.905  11.504
21874SOL     OW67453  11.324   6.676   9.903
21874SOL    HW167454  11.377   6.604   9.867
21874SOL    HW267455  11.235   6.655   9.875
21875SOL     OW67456  12.785   8.531   9.929
21875SOL    HW167457  12.727   8.606   9.943
21875SOL    HW267458  12.730   8.468   9.882
21876SOL     OW67459  14.034  14.028   6.548
21876SOL    HW167460  14.076  13.994   6.469
21876SOL    HW267461  14.084  14.108   6.569
21877SOL     OW67462   7.425   1.081   6.635
21877SOL    HW167463   7.469   1.001   6.662
21877SOL    HW267464   7.332   1.059   6.635
21878SOL     OW67465   1.598  10.621   0.273
21878SOL    HW167466   1.611  10.713   0.297
21878SOL    HW267467   1.513  10.599   0.312
21879SOL     OW67468   7.164   3.530   4.585
21879SOL    HW167469   7.074   3.503   4.606
21879SOL    HW267470   7.219   3.475   4.641
21880SOL     OW67471   8.924   2.754  11.820
21880SOL    HW167472   8.866   2.826  11.794
21880SOL    HW267473   8.963   2.784  11.902
21881SOL     OW67474   7.584  10.809   4.165
21881SOL    HW167475   7.549  10.831   4.251
21881SOL    HW267476   7.586  10.714   4.162
21882SOL     OW67477  12.329   6.510  14.853
21882SOL    HW167478  12.277   6.503  14.772
21882SOL    HW267479  12.288   6.582   0.029
21883SOL     OW67480   0.461   2.813   5.114
21883SOL    HW167481   0.373   2.851   5.107
21883SOL    HW267482   0.481   2.817   5.207
21884SOL     OW67483  10.877   0.731  11.518
21884SOL    HW167484  10.939   0.765  11.583
21884SOL    HW267485  10.846   0.809  11.472
21885SOL     OW67486   5.450   5.411  14.789
21885SOL    HW167487   5.405   5.349  14.847
21885SOL    HW267488   5.540   5.413  14.821
21886SOL     OW67489   3.358   7.727   0.497
21886SOL    HW167490   3.443   7.685   0.491
21886SOL    HW267491   3.297   7.663   0.460
21887SOL     OW67492   0.637  13.725   8.699
21887SOL    HW167493   0.669  13.714   8.609
21887SOL    HW267494   0.708  13.691   8.754
21888SOL     OW67495  11.789  11.052   1.620
21888SOL    HW167496  11.715  11.071   1.677
21888SOL    HW267497  11.763  11.088   1.535
21889SOL     OW67498   2.553  13.080   5.672
21889SOL    HW167499   2.502  13.057   5.749
21889SOL    HW267500   2.491  13.123   5.614
21890SOL     OW67501   7.246   5.526   9.297
21890SOL    HW167502   7.222   5.435   9.279
21890SOL    HW267503   7.172   5.561   9.346
21891SOL     OW67504   5.681  12.424  13.222
21891SOL    HW167505   5.664  12.330  13.228
21891SOL    HW267506   5.595  12.464  13.217
21892SOL     OW67507  12.118   8.343  10.205
21892SOL    HW167508  12.092   8.252  10.192
21892SOL    HW267509  12.080   8.390  10.131
21893SOL     OW67510   7.196  12.130  13.379
21893SOL    HW167511   7.188  12.215  13.334
21893SOL    HW267512   7.290  12.113  13.382
21894SOL     OW67513   1.705   1.902  11.206
21894SOL    HW167514   1.623   1.870  11.167
21894SOL    HW267515   1.716   1.990  11.170
21895SOL     OW67516   5.889   1.403  12.503
21895SOL    HW167517   5.973   1.411  12.457
21895SOL    HW267518   5.878   1.309  12.517
21896SOL     OW67519   0.244  13.606   0.887
21896SOL    HW167520   0.319  13.639   0.937
21896SOL    HW267521   0.181  13.677   0.888
21897SOL     OW67522   6.153   3.424   3.084
21897SOL    HW167523   6.151   3.481   3.161
21897SOL    HW267524   6.183   3.340   3.118
21898SOL     OW67525   4.464   1.105   0.185
21898SOL    HW167526   4.468   1.201   0.184
21898SOL    HW267527   4.510   1.078   0.106
21899SOL     OW67528   1.949   1.091   2.717
21899SOL    HW167529   1.858   1.122   2.713
21899SOL    HW267530   1.944   1.009   2.765
21900SOL     OW67531   1.660   8.656   1.124
21900SOL    HW167532   1.597   8.638   1.194
21900SOL    HW267533   1.683   8.748   1.136
21901SOL     OW67534  10.471   0.482   3.956
21901SOL    HW167535  10.550   0.535   3.965
21901SOL    HW267536  10.403   0.530   4.004
21902SOL     OW67537   6.620   4.628   0.962
21902SOL    HW167538   6.576   4.545   0.980
21902SOL    HW267539   6.556   4.680   0.915
21903SOL     OW67540  12.632  10.278  10.785
21903SOL    HW167541  12.657  10.282  10.692
21903SOL    HW267542  12.639  10.369  10.815
21904SOL     OW67543   6.091  13.600  14.268
21904SOL    HW167544   6.118  13.549  14.345
21904SOL    HW267545   6.173  13.622  14.224
21905SOL     OW67546   6.975  14.104   8.217
21905SOL    HW167547   7.025  14.121   8.297
21905SOL    HW267548   6.965  14.190   8.176
21906SOL     OW67549   7.893   6.582   5.401
21906SOL    HW167550   7.918   6.634   5.477
21906SOL    HW267551   7.827   6.636   5.356
21907SOL     OW67552   7.323  14.681   1.205
21907SOL    HW167553   7.236  14.642   1.195
21907SOL    HW267554   7.308  14.762   1.252
21908SOL     OW67555   0.528   3.023   6.622
21908SOL    HW167556   0.604   3.051   6.673
21908SOL    HW267557   0.566   2.979   6.546
21909SOL     OW67558   5.146  13.679  12.599
21909SOL    HW167559   5.102  13.611  12.649
21909SOL    HW267560   5.168  13.637  12.515
21910SOL     OW67561   4.607   3.097   8.883
21910SOL    HW167562   4.675   3.157   8.852
21910SOL    HW267563   4.537   3.104   8.818
21911SOL     OW67564   1.195   4.030   1.736
21911SOL    HW167565   1.255   3.983   1.795
21911SOL    HW267566   1.139   4.080   1.795
21912SOL     OW67567  13.021   8.087   5.190
21912SOL    HW167568  13.079   8.130   5.252
21912SOL    HW267569  12.980   8.017   5.240
21913SOL     OW67570   3.236  12.501   6.437
21913SOL    HW167571   3.251  12.563   6.366
21913SOL    HW267572   3.279  12.420   6.409
21914SOL     OW67573   0.285  12.221   3.493
21914SOL    HW167574   0.249  12.269   3.567
21914SOL    HW267575   0.222  12.233   3.422
21915SOL     OW67576   3.832   7.387   5.093
21915SOL    HW167577   3.736   7.390   5.085
21915SOL    HW267578   3.848   7.321   5.161
21916SOL     OW67579   8.125   7.856   1.985
21916SOL    HW167580   8.105   7.927   2.045
21916SOL    HW267581   8.143   7.899   1.902
21917SOL     OW67582   0.560   3.157  10.880
21917SOL    HW167583   0.522   3.156  10.968
21917SOL    HW267584   0.509   3.092  10.832
21918SOL     OW67585  11.960  13.334   0.005
21918SOL    HW167586  11.887  13.388   0.036
21918SOL    HW267587  11.948  13.330  14.783
21919SOL     OW67588  10.276  11.242   5.953
21919SOL    HW167589  10.314  11.328   5.970
21919SOL    HW267590  10.278  11.198   6.038
21920SOL     OW67591   5.606   9.688  13.310
21920SOL    HW167592   5.579   9.628  13.240
21920SOL    HW267593   5.582   9.643  13.391
21921SOL     OW67594   3.969   6.977  13.721
21921SOL    HW167595   3.919   7.049  13.682
21921SOL    HW267596   4.058   7.011  13.729
21922SOL     OW67597   0.047   5.486   5.782
21922SOL    HW167598   0.135   5.459   5.809
21922SOL    HW267599   0.001   5.404   5.763
21923SOL     OW67600   8.787  13.079  13.894
21923SOL    HW167601   8.880  13.096  13.909
21923SOL    HW267602   8.753  13.162  13.861
21924SOL     OW67603   0.781   5.077  13.690
21924SOL    HW167604   0.735   5.100  13.610
21924SOL    HW267605   0.766   5.151  13.749
21925SOL     OW67606  10.342   8.891  13.275
21925SOL    HW167607  10.408   8.871  13.341
21925SOL    HW267608  10.265   8.916  13.325
21926SOL     OW67609   3.206  13.930   8.009
21926SOL    HW167610   3.121  13.953   7.970
21926SOL    HW267611   3.186  13.912   8.101
21927SOL     OW67612  13.456   6.370   7.658
21927SOL    HW167613  13.551   6.381   7.655
21927SOL    HW267614  13.441   6.312   7.732
21928SOL     OW67615   4.394  11.018  13.698
21928SOL    HW167616   4.399  11.042  13.790
21928SOL    HW267617   4.380  11.102  13.652
21929SOL     OW67618   8.556   1.715  14.528
21929SOL    HW167619   8.587   1.640  14.578
21929SOL    HW267620   8.593   1.791  14.573
21930SOL     OW67621  12.589   8.032   1.039
21930SOL    HW167622  12.531   8.038   1.114
21930SOL    HW267623  12.650   7.961   1.062
21931SOL     OW67624  13.712   2.791   4.063
21931SOL    HW167625  13.623   2.806   4.032
21931SOL    HW267626  13.709   2.813   4.156
21932SOL     OW67627   1.977   7.597  11.284
21932SOL    HW167628   2.009   7.667  11.227
21932SOL    HW267629   2.047   7.585  11.348
21933SOL     OW67630   8.228   4.554  14.413
21933SOL    HW167631   8.261   4.596  14.334
21933SOL    HW267632   8.274   4.471  14.418
21934SOL     OW67633   7.987   5.736  11.485
21934SOL    HW167634   7.942   5.815  11.515
21934SOL    HW267635   7.941   5.664  11.528
21935SOL     OW67636   9.117   2.754  11.635
21935SOL    HW167637   9.076   2.758  11.722
21935SOL    HW267638   9.060   2.807  11.579
21936SOL     OW67639   0.626  12.746  14.459
21936SOL    HW167640   0.647  12.822  14.404
21936SOL    HW267641   0.685  12.677  14.427
21937SOL     OW67642   7.983  11.653  10.344
21937SOL    HW167643   7.904  11.600  10.358
21937SOL    HW267644   8.049  11.590  10.315
21938SOL     OW67645   0.704   2.599   3.952
21938SOL    HW167646   0.731   2.612   4.043
21938SOL    HW267647   0.786   2.590   3.904
21939SOL     OW67648   6.799  12.912   2.348
21939SOL    HW167649   6.881  12.927   2.300
21939SOL    HW267650   6.827  12.902   2.439
21940SOL     OW67651  11.635   2.723   7.182
21940SOL    HW167652  11.640   2.761   7.095
21940SOL    HW267653  11.711   2.757   7.229
21941SOL     OW67654   6.978   7.563  12.715
21941SOL    HW167655   6.925   7.609  12.650
21941SOL    HW267656   6.940   7.475  12.719
21942SOL     OW67657   4.487  14.389   0.144
21942SOL    HW167658   4.397  14.357   0.139
21942SOL    HW267659   4.529  14.354   0.065
21943SOL     OW67660   8.333  11.177  14.782
21943SOL    HW167661   8.272  11.143  14.847
21943SOL    HW267662   8.353  11.266  14.811
21944SOL     OW67663  14.761  12.866   0.223
21944SOL    HW167664  14.782  12.773   0.219
21944SOL    HW267665  14.682  12.872   0.276
21945SOL     OW67666   6.680   1.497   6.168
21945SOL    HW167667   6.718   1.566   6.113
21945SOL    HW267668   6.595   1.532   6.194
21946SOL     OW67669  13.184   6.265   8.528
21946SOL    HW167670  13.248   6.336   8.532
21946SOL    HW267671  13.099   6.309   8.532
21947SOL     OW67672  13.142   3.732  12.845
21947SOL    HW167673  13.143   3.705  12.753
21947SOL    HW267674  13.142   3.827  12.842
21948SOL     OW67675   4.017   5.559   5.190
21948SOL    HW167676   4.028   5.654   5.193
21948SOL    HW267677   4.011   5.533   5.282
21949SOL     OW67678  10.840   3.213   4.783
21949SOL    HW167679  10.848   3.307   4.797
21949SOL    HW267680  10.928   3.179   4.793
21950SOL     OW67681  12.753  11.411   6.435
21950SOL    HW167682  12.798  11.329   6.415
21950SOL    HW267683  12.784  11.472   6.368
21951SOL     OW67684   0.733  12.942   5.642
21951SOL    HW167685   0.814  12.894   5.657
21951SOL    HW267686   0.761  13.026   5.606
21952SOL     OW67687   3.369   4.372   2.877
21952SOL    HW167688   3.403   4.296   2.923
21952SOL    HW267689   3.381   4.445   2.938
21953SOL     OW67690  13.867  11.576   4.541
21953SOL    HW167691  13.838  11.634   4.612
21953SOL    HW267692  13.949  11.614   4.511
21954SOL     OW67693   7.285   4.466   8.518
21954SOL    HW167694   7.350   4.487   8.585
21954SOL    HW267695   7.295   4.534   8.452
21955SOL     OW67696   5.114  13.486   0.311
21955SOL    HW167697   5.026  13.497   0.274
21955SOL    HW267698   5.158  13.425   0.251
21956SOL     OW67699   3.188   2.467   0.556
21956SOL    HW167700   3.273   2.426   0.573
21956SOL    HW267701   3.129   2.394   0.541
21957SOL     OW67702   9.122   0.264   8.392
21957SOL    HW167703   9.159   0.202   8.330
21957SOL    HW267704   9.032   0.233   8.406
21958SOL     OW67705  13.183   7.752  11.177
21958SOL    HW167706  13.145   7.785  11.258
21958SOL    HW267707  13.123   7.783  11.109
21959SOL     OW67708  12.930   6.253   1.840
21959SOL    HW167709  13.007   6.297   1.803
21959SOL    HW267710  12.917   6.177   1.784
21960SOL     OW67711   4.658  13.794   8.128
21960SOL    HW167712   4.625  13.784   8.218
21960SOL    HW267713   4.658  13.706   8.092
21961SOL     OW67714   4.054   7.059   1.741
21961SOL    HW167715   4.015   7.013   1.666
21961SOL    HW267716   3.988   7.053   1.810
21962SOL     OW67717   4.637   9.777  10.097
21962SOL    HW167718   4.690   9.824  10.162
21962SOL    HW267719   4.677   9.690  10.093
21963SOL     OW67720  13.450  14.577   3.780
21963SOL    HW167721  13.475  14.585   3.872
21963SOL    HW267722  13.524  14.533   3.739
21964SOL     OW67723   5.477   7.823   9.805
21964SOL    HW167724   5.527   7.745   9.782
21964SOL    HW267725   5.491   7.834   9.899
21965SOL     OW67726  14.629   3.465   3.081
21965SOL    HW167727  14.606   3.515   3.003
21965SOL    HW267728  14.725   3.469   3.084
21966SOL     OW67729   9.969   5.841   3.474
21966SOL    HW167730  10.024   5.765   3.459
21966SOL    HW267731  10.029   5.908   3.508
21967SOL     OW67732   1.079  13.029   8.587
21967SOL    HW167733   1.125  12.951   8.556
21967SOL    HW267734   0.986  13.008   8.576
21968SOL     OW67735   0.272   2.611   6.519
21968SOL    HW167736   0.327   2.657   6.455
21968SOL    HW267737   0.335   2.572   6.580
21969SOL     OW67738  11.990   0.310   4.618
21969SOL    HW167739  11.935   0.359   4.557
21969SOL    HW267740  11.930   0.252   4.663
21970SOL     OW67741   2.214  10.287   1.573
21970SOL    HW167742   2.251  10.340   1.644
21970SOL    HW267743   2.255  10.321   1.494
21971SOL     OW67744   9.331   7.170   4.156
21971SOL    HW167745   9.325   7.094   4.097
21971SOL    HW267746   9.240   7.192   4.176
21972SOL     OW67747   9.659  12.767   7.529
21972SOL    HW167748   9.715  12.740   7.602
21972SOL    HW267749   9.669  12.697   7.464
21973SOL     OW67750   3.079  10.768   3.678
21973SOL    HW167751   3.050  10.836   3.617
21973SOL    HW267752   3.089  10.690   3.624
21974SOL     OW67753  13.343  13.125  10.012
21974SOL    HW167754  13.266  13.072   9.989
21974SOL    HW267755  13.400  13.119   9.935
21975SOL     OW67756   0.816   0.434   0.460
21975SOL    HW167757   0.731   0.474   0.480
21975SOL    HW267758   0.867   0.505   0.419
21976SOL     OW67759   3.860   3.618   5.277
21976SOL    HW167760   3.787   3.637   5.219
21976SOL    HW267761   3.874   3.698   5.327
21977SOL     OW67762   0.309  10.748  12.725
21977SOL    HW167763   0.323  10.661  12.687
21977SOL    HW267764   0.236  10.785  12.676
21978SOL     OW67765  13.013  13.254   4.942
21978SOL    HW167766  12.975  13.311   4.875
21978SOL    HW267767  13.107  13.272   4.938
21979SOL     OW67768   2.745  13.628  11.752
21979SOL    HW167769   2.687  13.584  11.690
21979SOL    HW267770   2.830  13.587  11.739
21980SOL     OW67771  10.629   9.084   8.199
21980SOL    HW167772  10.596   9.119   8.117
21980SOL    HW267773  10.609   8.990   8.195
21981SOL     OW67774  10.997  11.437   5.686
21981SOL    HW167775  10.990  11.497   5.760
21981SOL    HW267776  11.027  11.492   5.613
21982SOL     OW67777   7.255  12.845  11.694
21982SOL    HW167778   7.317  12.790  11.741
21982SOL    HW267779   7.192  12.784  11.656
21983SOL     OW67780   7.345   8.946   4.135
21983SOL    HW167781   7.376   8.901   4.213
21983SOL    HW267782   7.304   9.026   4.168
21984SOL     OW67783  14.138  13.906   1.249
21984SOL    HW167784  14.133  13.993   1.209
21984SOL    HW267785  14.167  13.849   1.178
21985SOL     OW67786   7.473   2.029   2.776
21985SOL    HW167787   7.532   1.966   2.734
21985SOL    HW267788   7.386   1.991   2.766
21986SOL     OW67789   8.013  10.941   9.459
21986SOL    HW167790   8.045  10.881   9.527
21986SOL    HW267791   7.932  10.977   9.494
21987SOL     OW67792  12.637  10.908   8.956
21987SOL    HW167793  12.555  10.916   8.907
21987SOL    HW267794  12.685  10.987   8.935
21988SOL     OW67795   7.441   0.782   9.863
21988SOL    HW167796   7.455   0.877   9.866
21988SOL    HW267797   7.465   0.758   9.773
21989SOL     OW67798   6.329   6.383  12.830
21989SOL    HW167799   6.337   6.301  12.878
21989SOL    HW267800   6.247   6.421  12.862
21990SOL     OW67801   4.868   8.172  12.775
21990SOL    HW167802   4.934   8.211  12.716
21990SOL    HW267803   4.785   8.185  12.729
21991SOL     OW67804   3.311  11.522   6.723
21991SOL    HW167805   3.355  11.533   6.639
21991SOL    HW267806   3.265  11.439   6.715
21992SOL     OW67807   3.954   5.575   7.973
21992SOL    HW167808   4.049   5.582   7.975
21992SOL    HW267809   3.936   5.488   8.009
21993SOL     OW67810   3.309  11.580  12.427
21993SOL    HW167811   3.269  11.662  12.398
21993SOL    HW267812   3.319  11.529  12.347
21994SOL     OW67813  14.643  10.922   7.113
21994SOL    HW167814  14.554  10.958   7.120
21994SOL    HW267815  14.671  10.910   7.204
21995SOL     OW67816  10.943  10.928   6.100
21995SOL    HW167817  10.857  10.915   6.140
21995SOL    HW267818  11.006  10.910   6.170
21996SOL     OW67819   2.053  11.477   7.648
21996SOL    HW167820   1.959  11.473   7.661
21996SOL    HW267821   2.074  11.398   7.598
21997SOL     OW67822   9.952   7.202   4.108
21997SOL    HW167823   9.929   7.140   4.178
21997SOL    HW267824   9.919   7.160   4.029
21998SOL     OW67825   1.660   6.754  12.864
21998SOL    HW167826   1.586   6.795  12.908
21998SOL    HW267827   1.706   6.826  12.822
21999SOL     OW67828   2.675   2.671  10.767
21999SOL    HW167829   2.583   2.674  10.794
21999SOL    HW267830   2.677   2.611  10.693
22000SOL     OW67831   8.494   6.798   2.318
22000SOL    HW167832   8.427   6.746   2.273
22000SOL    HW267833   8.552   6.733   2.358
22001SOL     OW67834   3.667   5.551  14.377
22001SOL    HW167835   3.616   5.537  14.457
22001SOL    HW267836   3.686   5.463  14.345
22002SOL     OW67837   0.174   6.159  13.383
22002SOL    HW167838   0.213   6.072  13.397
22002SOL    HW267839   0.084   6.140  13.354
22003SOL     OW67840   2.216   6.806   9.951
22003SOL    HW167841   2.145   6.788  10.012
22003SOL    HW267842   2.290   6.830  10.007
22004SOL     OW67843  12.106   5.571   7.306
22004SOL    HW167844  12.145   5.658   7.317
22004SOL    HW267845  12.088   5.565   7.212
22005SOL     OW67846  14.771   5.114   1.225
22005SOL    HW167847  14.823   5.188   1.256
22005SOL    HW267848  14.818   5.083   1.147
22006SOL     OW67849   0.615   7.597   4.962
22006SOL    HW167850   0.700   7.599   5.005
22006SOL    HW267851   0.627   7.539   4.887
22007SOL     OW67852   7.098   1.558  10.050
22007SOL    HW167853   7.041   1.540   9.975
22007SOL    HW267854   7.174   1.501  10.037
22008SOL     OW67855   1.907  10.477  13.387
22008SOL    HW167856   1.826  10.519  13.359
22008SOL    HW267857   1.886  10.437  13.471
22009SOL     OW67858  14.002   6.725   3.994
22009SOL    HW167859  14.006   6.815   4.028
22009SOL    HW267860  13.909   6.708   3.982
22010SOL     OW67861   6.871  12.727   5.859
22010SOL    HW167862   6.845  12.813   5.892
22010SOL    HW267863   6.886  12.675   5.938
22011SOL     OW67864   1.378  13.367   3.621
22011SOL    HW167865   1.362  13.341   3.712
22011SOL    HW267866   1.472  13.385   3.617
22012SOL     OW67867   2.457   5.072  13.372
22012SOL    HW167868   2.499   5.026  13.445
22012SOL    HW267869   2.365   5.046  13.376
22013SOL     OW67870   2.624   1.829   8.156
22013SOL    HW167871   2.657   1.831   8.246
22013SOL    HW267872   2.626   1.736   8.132
22014SOL     OW67873   6.083  13.049   9.744
22014SOL    HW167874   6.073  13.138   9.778
22014SOL    HW267875   6.141  13.060   9.668
22015SOL     OW67876  10.444   4.288  13.427
22015SOL    HW167877  10.451   4.197  13.455
22015SOL    HW267878  10.424   4.284  13.334
22016SOL     OW67879   1.740   2.544  10.067
22016SOL    HW167880   1.796   2.490  10.123
22016SOL    HW267881   1.659   2.494  10.060
22017SOL     OW67882  12.425  14.241   2.274
22017SOL    HW167883  12.380  14.273   2.196
22017SOL    HW267884  12.482  14.172   2.241
22018SOL     OW67885   9.295   0.456   2.762
22018SOL    HW167886   9.259   0.372   2.733
22018SOL    HW267887   9.268   0.518   2.695
22019SOL     OW67888   2.835   9.522   8.782
22019SOL    HW167889   2.881   9.516   8.698
22019SOL    HW267890   2.885   9.587   8.832
22020SOL     OW67891  10.749   1.326   7.967
22020SOL    HW167892  10.834   1.282   7.960
22020SOL    HW267893  10.687   1.266   7.925
22021SOL     OW67894   7.280   7.835   1.778
22021SOL    HW167895   7.299   7.774   1.849
22021SOL    HW267896   7.184   7.839   1.773
22022SOL     OW67897   7.438   7.979   8.916
22022SOL    HW167898   7.522   8.024   8.915
22022SOL    HW267899   7.411   7.982   9.008
22023SOL     OW67900   7.285   2.177   4.295
22023SOL    HW167901   7.311   2.265   4.321
22023SOL    HW267902   7.366   2.127   4.295
22024SOL     OW67903   8.050  11.086   8.625
22024SOL    HW167904   8.126  11.070   8.568
22024SOL    HW267905   7.974  11.067   8.569
22025SOL     OW67906   5.538   0.711  11.315
22025SOL    HW167907   5.633   0.704  11.320
22025SOL    HW267908   5.506   0.648  11.380
22026SOL     OW67909   7.146  11.918   3.036
22026SOL    HW167910   7.161  11.860   2.961
22026SOL    HW267911   7.192  11.998   3.014
22027SOL     OW67912  14.001   3.680   3.343
22027SOL    HW167913  14.083   3.722   3.320
22027SOL    HW267914  14.023   3.587   3.354
22028SOL     OW67915   5.178   5.385  10.568
22028SOL    HW167916   5.101   5.431  10.601
22028SOL    HW267917   5.247   5.404  10.631
22029SOL     OW67918   5.884   3.489   0.720
22029SOL    HW167919   5.865   3.483   0.626
22029SOL    HW267920   5.906   3.400   0.746
22030SOL     OW67921   4.231  13.946  10.085
22030SOL    HW167922   4.305  13.996  10.121
22030SOL    HW267923   4.154  13.994  10.114
22031SOL     OW67924   9.954   6.767   1.980
22031SOL    HW167925   9.972   6.694   1.920
22031SOL    HW267926  10.030   6.769   2.038
22032SOL     OW67927   9.441   8.272  14.318
22032SOL    HW167928   9.359   8.283  14.270
22032SOL    HW267929   9.508   8.261  14.250
22033SOL     OW67930  10.959  10.918   1.756
22033SOL    HW167931  10.988  10.828   1.745
22033SOL    HW267932  11.033  10.962   1.800
22034SOL     OW67933   2.784  14.487   8.708
22034SOL    HW167934   2.775  14.485   8.804
22034SOL    HW267935   2.704  14.529   8.677
22035SOL     OW67936  11.734   4.216   9.046
22035SOL    HW167937  11.679   4.294   9.051
22035SOL    HW267938  11.749   4.202   8.952
22036SOL     OW67939   9.275   5.237   6.065
22036SOL    HW167940   9.219   5.314   6.053
22036SOL    HW267941   9.281   5.226   6.160
22037SOL     OW67942   4.245   2.726   7.126
22037SOL    HW167943   4.226   2.681   7.209
22037SOL    HW267944   4.216   2.665   7.058
22038SOL     OW67945   3.839   7.121  13.962
22038SOL    HW167946   3.797   7.148  13.880
22038SOL    HW267947   3.875   7.203  13.998
22039SOL     OW67948   9.146   6.088  10.506
22039SOL    HW167949   9.214   6.073  10.572
22039SOL    HW267950   9.125   6.001  10.472
22040SOL     OW67951  12.485   6.254   4.077
22040SOL    HW167952  12.533   6.254   4.159
22040SOL    HW267953  12.493   6.164   4.044
22041SOL     OW67954   5.631   7.693   0.005
22041SOL    HW167955   5.642   7.776  14.832
22041SOL    HW267956   5.721   7.663   0.021
22042SOL     OW67957   0.491   2.282   5.590
22042SOL    HW167958   0.533   2.301   5.506
22042SOL    HW267959   0.555   2.229   5.637
22043SOL     OW67960   6.972  13.756   0.036
22043SOL    HW167961   7.000  13.838  14.868
22043SOL    HW267962   6.882  13.744   0.005
22044SOL     OW67963  12.929   5.805   4.730
22044SOL    HW167964  12.958   5.821   4.640
22044SOL    HW267965  12.988   5.858   4.784
22045SOL     OW67966   3.879   6.548   8.863
22045SOL    HW167967   3.972   6.571   8.853
22045SOL    HW267968   3.845   6.546   8.774
22046SOL     OW67969  10.912   9.580  11.227
22046SOL    HW167970  10.858   9.518  11.276
22046SOL    HW267971  10.849   9.641  11.188
22047SOL     OW67972  11.932   5.309   4.480
22047SOL    HW167973  11.855   5.313   4.537
22047SOL    HW267974  11.957   5.216   4.480
22048SOL     OW67975   6.514  11.085   0.234
22048SOL    HW167976   6.508  10.991   0.254
22048SOL    HW267977   6.600  11.095   0.193
22049SOL     OW67978  13.000   8.609  11.959
22049SOL    HW167979  13.017   8.688  12.011
22049SOL    HW267980  13.087   8.577  11.935
22050SOL     OW67981  11.113   9.317   3.492
22050SOL    HW167982  11.085   9.264   3.567
22050SOL    HW267983  11.087   9.265   3.416
22051SOL     OW67984  14.583   6.425   1.701
22051SOL    HW167985  14.490   6.444   1.714
22051SOL    HW267986  14.614   6.393   1.786
22052SOL     OW67987  13.216  12.499  11.880
22052SOL    HW167988  13.263  12.415  11.879
22052SOL    HW267989  13.155  12.491  11.953
22053SOL     OW67990   6.575   9.598   5.679
22053SOL    HW167991   6.591   9.659   5.751
22053SOL    HW267992   6.533   9.652   5.611
22054SOL     OW67993   2.600   3.817  12.705
22054SOL    HW167994   2.547   3.848  12.779
22054SOL    HW267995   2.625   3.728  12.728
22055SOL     OW67996   2.489  12.329   3.614
22055SOL    HW167997   2.556  12.396   3.601
22055SOL    HW267998   2.417  12.375   3.656
22056SOL     OW67999   7.514   3.843   5.332
22056SOL    HW168000   7.481   3.758   5.361
22056SOL    HW268001   7.590   3.822   5.277
22057SOL     OW68002   3.181  11.219   6.204
22057SOL    HW168003   3.263  11.260   6.175
22057SOL    HW268004   3.124  11.223   6.127
22058SOL     OW68005   8.020  10.758   8.170
22058SOL    HW168006   7.962  10.760   8.094
22058SOL    HW268007   8.038  10.664   8.184
22059SOL     OW68008   0.914  11.961   4.182
22059SOL    HW168009   0.929  11.960   4.087
22059SOL    HW268010   0.907  11.868   4.206
22060SOL     OW68011   7.393   1.156  11.524
22060SOL    HW168012   7.373   1.102  11.600
22060SOL    HW268013   7.345   1.237  11.540
22061SOL     OW68014   6.785   7.013   4.670
22061SOL    HW168015   6.765   6.988   4.760
22061SOL    HW268016   6.706   7.059   4.640
22062SOL     OW68017   2.851   8.450   0.001
22062SOL    HW168018   2.881   8.399   0.076
22062SOL    HW268019   2.906   8.528   0.001
22063SOL     OW68020  14.833   9.128   3.242
22063SOL    HW168021   0.037   9.181   3.267
22063SOL    HW268022  14.865   9.038   3.244
22064SOL     OW68023  14.520   6.352  13.938
22064SOL    HW168024  14.485   6.393  13.859
22064SOL    HW268025  14.444   6.316  13.983
22065SOL     OW68026   9.072  11.395   5.331
22065SOL    HW168027   8.977  11.399   5.346
22065SOL    HW268028   9.091  11.474   5.279
22066SOL     OW68029  12.772  13.759   4.689
22066SOL    HW168030  12.846  13.820   4.696
22066SOL    HW268031  12.745  13.766   4.597
22067SOL     OW68032   4.411   1.542  13.808
22067SOL    HW168033   4.340   1.529  13.745
22067SOL    HW268034   4.442   1.631  13.791
22068SOL     OW68035  14.131   2.957  12.221
22068SOL    HW168036  14.123   3.049  12.196
22068SOL    HW268037  14.055   2.940  12.276
22069SOL     OW68038  12.128   6.942   0.216
22069SOL    HW168039  12.195   6.940   0.284
22069SOL    HW268040  12.144   7.024   0.169
22070SOL     OW68041   7.155   9.767   6.221
22070SOL    HW168042   7.246   9.736   6.221
22070SOL    HW268043   7.156   9.842   6.281
22071SOL     OW68044   7.254   1.766   7.119
22071SOL    HW168045   7.167   1.764   7.077
22071SOL    HW268046   7.270   1.858   7.135
22072SOL     OW68047   8.595   2.529   7.714
22072SOL    HW168048   8.635   2.611   7.742
22072SOL    HW268049   8.657   2.493   7.650
22073SOL     OW68050   1.496  11.242  14.020
22073SOL    HW168051   1.499  11.193  13.938
22073SOL    HW268052   1.405  11.273  14.026
22074SOL     OW68053   9.995   8.756   5.205
22074SOL    HW168054   9.968   8.814   5.276
22074SOL    HW268055  10.066   8.803   5.161
22075SOL     OW68056  11.180  11.186   9.318
22075SOL    HW168057  11.121  11.249   9.277
22075SOL    HW268058  11.170  11.106   9.267
22076SOL     OW68059  11.150   2.056  10.857
22076SOL    HW168060  11.237   2.095  10.863
22076SOL    HW268061  11.095   2.124  10.819
22077SOL     OW68062  13.009   0.136  13.213
22077SOL    HW168063  13.062   0.215  13.205
22077SOL    HW268064  12.961   0.148  13.296
22078SOL     OW68065   4.801   6.220   8.791
22078SOL    HW168066   4.710   6.216   8.762
22078SOL    HW268067   4.849   6.252   8.715
22079SOL     OW68068   5.113  13.728   7.740
22079SOL    HW168069   5.053  13.783   7.790
22079SOL    HW268070   5.189  13.717   7.798
22080SOL     OW68071  10.333  12.571   4.052
22080SOL    HW168072  10.380  12.489   4.066
22080SOL    HW268073  10.386  12.637   4.096
22081SOL     OW68074   9.037   0.639  10.237
22081SOL    HW168075   9.053   0.730  10.210
22081SOL    HW268076   9.096   0.626  10.312
22082SOL     OW68077   9.484  12.246   9.541
22082SOL    HW168078   9.492  12.321   9.600
22082SOL    HW268079   9.503  12.170   9.595
22083SOL     OW68080  13.568   0.714   5.670
22083SOL    HW168081  13.530   0.664   5.598
22083SOL    HW268082  13.497   0.721   5.734
22084SOL     OW68083   4.316   5.884   2.126
22084SOL    HW168084   4.381   5.882   2.196
22084SOL    HW268085   4.325   5.972   2.088
22085SOL     OW68086   7.963   0.596   8.971
22085SOL    HW168087   8.015   0.581   9.051
22085SOL    HW268088   8.003   0.673   8.932
22086SOL     OW68089  10.883   9.908   3.885
22086SOL    HW168090  10.795   9.882   3.914
22086SOL    HW268091  10.941   9.843   3.924
22087SOL     OW68092   3.067   1.246  11.988
22087SOL    HW168093   3.055   1.188  12.063
22087SOL    HW268094   3.078   1.187  11.913
22088SOL     OW68095  11.906   0.946   2.207
22088SOL    HW168096  11.878   1.023   2.257
22088SOL    HW268097  11.993   0.969   2.174
22089SOL     OW68098   9.240   8.662   7.251
22089SOL    HW168099   9.279   8.705   7.327
22089SOL    HW268100   9.282   8.704   7.175
22090SOL     OW68101   7.907   1.952   3.081
22090SOL    HW168102   7.974   2.016   3.106
22090SOL    HW268103   7.884   1.908   3.163
22091SOL     OW68104   6.521   3.858   8.518
22091SOL    HW168105   6.604   3.829   8.557
22091SOL    HW268106   6.454   3.810   8.566
22092SOL     OW68107   3.021   0.936   6.032
22092SOL    HW168108   3.068   0.864   5.988
22092SOL    HW268109   3.000   0.901   6.119
22093SOL     OW68110   8.535   6.968   2.516
22093SOL    HW168111   8.547   6.901   2.582
22093SOL    HW268112   8.507   6.921   2.437
22094SOL     OW68113   6.866   5.127  13.710
22094SOL    HW168114   6.869   5.189  13.637
22094SOL    HW268115   6.817   5.173  13.778
22095SOL     OW68116   6.035   7.219  13.059
22095SOL    HW168117   5.944   7.246  13.076
22095SOL    HW268118   6.067   7.188  13.143
22096SOL     OW68119   7.708  12.932   3.568
22096SOL    HW168120   7.794  12.972   3.565
22096SOL    HW268121   7.722  12.845   3.604
22097SOL     OW68122  13.162  11.675   6.154
22097SOL    HW168123  13.126  11.677   6.065
22097SOL    HW268124  13.116  11.603   6.197
22098SOL     OW68125   6.537   2.681   7.397
22098SOL    HW168126   6.451   2.717   7.421
22098SOL    HW268127   6.598   2.753   7.408
22099SOL     OW68128   5.061   8.748   4.163
22099SOL    HW168129   5.063   8.793   4.248
22099SOL    HW268130   5.072   8.818   4.099
22100SOL     OW68131   1.377  14.492   6.964
22100SOL    HW168132   1.424  14.453   6.891
22100SOL    HW268133   1.310  14.547   6.923
22101SOL     OW68134   5.968  11.313  13.669
22101SOL    HW168135   5.965  11.347  13.758
22101SOL    HW268136   5.897  11.358  13.623
22102SOL     OW68137   3.565   1.785   3.050
22102SOL    HW168138   3.474   1.794   3.023
22102SOL    HW268139   3.608   1.864   3.015
22103SOL     OW68140  13.143  13.715   9.081
22103SOL    HW168141  13.223  13.669   9.108
22103SOL    HW268142  13.128  13.779   9.151
22104SOL     OW68143   7.706  10.886   0.881
22104SOL    HW168144   7.679  10.808   0.930
22104SOL    HW268145   7.628  10.911   0.832
22105SOL     OW68146   3.322  11.065   2.971
22105SOL    HW168147   3.379  10.993   2.996
22105SOL    HW268148   3.269  11.083   3.049
22106SOL     OW68149   0.914   1.522   0.239
22106SOL    HW168150   0.927   1.438   0.283
22106SOL    HW268151   0.935   1.588   0.304
22107SOL     OW68152   0.082  10.876  13.420
22107SOL    HW168153  14.868  10.837  13.433
22107SOL    HW268154   0.124  10.868  13.506
22108SOL     OW68155   1.951  13.447  13.031
22108SOL    HW168156   1.982  13.362  13.000
22108SOL    HW268157   2.030  13.498  13.048
22109SOL     OW68158  11.682   1.606   1.385
22109SOL    HW168159  11.656   1.618   1.294
22109SOL    HW268160  11.778   1.607   1.383
22110SOL     OW68161  13.671  11.456   4.953
22110SOL    HW168162  13.725  11.433   5.029
22110SOL    HW268163  13.681  11.551   4.945
22111SOL     OW68164  13.093   8.696   4.280
22111SOL    HW168165  13.163   8.656   4.228
22111SOL    HW268166  13.133   8.774   4.318
22112SOL     OW68167   7.545   2.243   3.785
22112SOL    HW168168   7.470   2.269   3.840
22112SOL    HW268169   7.505   2.203   3.708
22113SOL     OW68170   7.030  14.264  10.024
22113SOL    HW168171   6.983  14.334  10.070
22113SOL    HW268172   7.095  14.233  10.087
22114SOL     OW68173  13.363   6.839  10.617
22114SOL    HW168174  13.396   6.819  10.530
22114SOL    HW268175  13.270   6.855  10.604
22115SOL     OW68176   6.090   6.960   8.516
22115SOL    HW168177   6.138   6.904   8.454
22115SOL    HW268178   6.134   7.044   8.511
22116SOL     OW68179  14.110   0.362   0.657
22116SOL    HW168180  14.041   0.299   0.636
22116SOL    HW268181  14.072   0.419   0.723
22117SOL     OW68182   8.407  11.532   7.457
22117SOL    HW168183   8.334  11.555   7.515
22117SOL    HW268184   8.410  11.436   7.460
22118SOL     OW68185   0.227   0.578   2.002
22118SOL    HW168186   0.156   0.521   1.973
22118SOL    HW268187   0.183   0.649   2.049
22119SOL     OW68188   6.253  12.389   2.357
22119SOL    HW168189   6.288  12.339   2.283
22119SOL    HW268190   6.162  12.406   2.333
22120SOL     OW68191   7.073  10.359  14.159
22120SOL    HW168192   7.122  10.278  14.168
22120SOL    HW268193   7.139  10.428  14.167
22121SOL     OW68194   6.076  13.788  11.590
22121SOL    HW168195   6.139  13.838  11.540
22121SOL    HW268196   6.086  13.820  11.680
22122SOL     OW68197   8.244   9.964  14.006
22122SOL    HW168198   8.310   9.959  14.075
22122SOL    HW268199   8.162   9.940  14.050
22123SOL     OW68200  14.476  10.262  10.571
22123SOL    HW168201  14.541  10.314  10.617
22123SOL    HW268202  14.522  10.181  10.548
22124SOL     OW68203  11.223  12.867   0.625
22124SOL    HW168204  11.299  12.809   0.621
22124SOL    HW268205  11.192  12.861   0.715
22125SOL     OW68206   5.104  14.783  14.562
22125SOL    HW168207   5.030  14.727  14.587
22125SOL    HW268208   5.065  14.851  14.507
22126SOL     OW68209  11.443   8.885   5.645
22126SOL    HW168210  11.522   8.887   5.699
22126SOL    HW268211  11.372   8.875   5.707
22127SOL     OW68212  11.705   8.484   9.652
22127SOL    HW168213  11.639   8.414   9.655
22127SOL    HW268214  11.777   8.451   9.707
22128SOL     OW68215   8.497   1.360   6.184
22128SOL    HW168216   8.470   1.273   6.155
22128SOL    HW268217   8.592   1.356   6.187
22129SOL     OW68218   3.454   9.818  12.411
22129SOL    HW168219   3.520   9.887  12.414
22129SOL    HW268220   3.443   9.790  12.502
22130SOL     OW68221   6.957  12.911   2.592
22130SOL    HW168222   6.929  12.887   2.680
22130SOL    HW268223   7.052  12.894   2.591
22131SOL     OW68224  14.227   8.122   5.881
22131SOL    HW168225  14.160   8.062   5.912
22131SOL    HW268226  14.310   8.078   5.900
22132SOL     OW68227   6.402   2.276  10.150
22132SOL    HW168228   6.316   2.236  10.137
22132SOL    HW268229   6.438   2.285  10.062
22133SOL     OW68230   6.908   5.685  14.443
22133SOL    HW168231   6.859   5.764  14.422
22133SOL    HW268232   6.960   5.668  14.364
22134SOL     OW68233   0.239  12.833  10.626
22134SOL    HW168234   0.261  12.908  10.682
22134SOL    HW268235   0.207  12.767  10.686
22135SOL     OW68236   2.032   3.934   7.908
22135SOL    HW168237   2.031   3.925   7.813
22135SOL    HW268238   1.942   3.955   7.932
22136SOL     OW68239   8.470   7.057  14.279
22136SOL    HW168240   8.471   6.961  14.286
22136SOL    HW268241   8.531   7.086  14.347
22137SOL     OW68242   2.018   3.559   9.422
22137SOL    HW168243   2.073   3.504   9.477
22137SOL    HW268244   2.068   3.640   9.411
22138SOL     OW68245   2.820   6.513  14.686
22138SOL    HW168246   2.879   6.462  14.741
22138SOL    HW268247   2.778   6.448  14.629
22139SOL     OW68248   1.942  14.322   4.926
22139SOL    HW168249   1.914  14.366   4.846
22139SOL    HW268250   1.910  14.377   4.997
22140SOL     OW68251  10.401   5.982  14.375
22140SOL    HW168252  10.484   5.955  14.337
22140SOL    HW268253  10.405   6.077  14.378
22141SOL     OW68254  10.790   4.952   9.750
22141SOL    HW168255  10.831   4.980   9.832
22141SOL    HW268256  10.697   4.943   9.772
22142SOL     OW68257   8.852  10.608  12.400
22142SOL    HW168258   8.845  10.615  12.495
22142SOL    HW268259   8.912  10.535  12.386
22143SOL     OW68260   0.532  13.871   0.130
22143SOL    HW168261   0.462  13.887   0.066
22143SOL    HW268262   0.611  13.906   0.088
22144SOL     OW68263  12.882   2.448   2.779
22144SOL    HW168264  12.798   2.455   2.826
22144SOL    HW268265  12.910   2.358   2.792
22145SOL     OW68266  14.363  11.129  11.163
22145SOL    HW168267  14.317  11.192  11.217
22145SOL    HW268268  14.295  11.071  11.130
22146SOL     OW68269   9.386   7.681   7.958
22146SOL    HW168270   9.381   7.754   8.020
22146SOL    HW268271   9.343   7.608   8.002
22147SOL     OW68272   4.531   6.870   5.495
22147SOL    HW168273   4.564   6.833   5.413
22147SOL    HW268274   4.473   6.941   5.468
22148SOL     OW68275   3.411   0.608   9.203
22148SOL    HW168276   3.506   0.613   9.215
22148SOL    HW268277   3.393   0.515   9.191
22149SOL     OW68278  13.554   8.783  13.769
22149SOL    HW168279  13.505   8.849  13.721
22149SOL    HW268280  13.550   8.812  13.861
22150SOL     OW68281   6.937   5.994  10.793
22150SOL    HW168282   6.915   5.930  10.726
22150SOL    HW268283   7.019   6.034  10.763
22151SOL     OW68284   1.734  13.573  14.400
22151SOL    HW168285   1.710  13.659  14.432
22151SOL    HW268286   1.825  13.583  14.371
22152SOL     OW68287   8.553  14.365   7.137
22152SOL    HW168288   8.486  14.381   7.071
22152SOL    HW268289   8.593  14.450   7.152
22153SOL     OW68290   9.116   9.051   5.880
22153SOL    HW168291   9.140   9.074   5.969
22153SOL    HW268292   9.096   8.957   5.885
22154SOL     OW68293  14.233   6.906   2.157
22154SOL    HW168294  14.304   6.940   2.102
22154SOL    HW268295  14.241   6.955   2.239
22155SOL     OW68296   4.405  14.121  13.233
22155SOL    HW168297   4.358  14.185  13.286
22155SOL    HW268298   4.347  14.104  13.159
22156SOL     OW68299  11.742  13.022  13.906
22156SOL    HW168300  11.705  12.934  13.905
22156SOL    HW268301  11.776  13.035  13.818
22157SOL     OW68302   3.772   6.033   8.528
22157SOL    HW168303   3.779   6.063   8.437
22157SOL    HW268304   3.826   6.095   8.578
22158SOL     OW68305   8.039   7.892   3.198
22158SOL    HW168306   8.109   7.865   3.138
22158SOL    HW268307   8.083   7.949   3.261
22159SOL     OW68308   5.241   1.099   4.088
22159SOL    HW168309   5.321   1.126   4.132
22159SOL    HW268310   5.185   1.066   4.157
22160SOL     OW68311   1.201  14.702  10.927
22160SOL    HW168312   1.246  14.723  11.009
22160SOL    HW268313   1.271  14.686  10.864
22161SOL     OW68314  12.822  14.742  14.588
22161SOL    HW168315  12.769  14.663  14.585
22161SOL    HW268316  12.841  14.755  14.681
22162SOL     OW68317   7.847   0.941   9.398
22162SOL    HW168318   7.900   1.016   9.370
22162SOL    HW268319   7.761   0.958   9.361
22163SOL     OW68320  12.905   9.170  14.273
22163SOL    HW168321  12.945   9.226  14.339
22163SOL    HW268322  12.918   9.217  14.190
22164SOL     OW68323   5.898   8.668  11.802
22164SOL    HW168324   5.946   8.724  11.740
22164SOL    HW268325   5.919   8.579  11.775
22165SOL     OW68326   5.828   0.416   3.481
22165SOL    HW168327   5.851   0.361   3.406
22165SOL    HW268328   5.757   0.472   3.448
22166SOL     OW68329   1.784   7.042   4.145
22166SOL    HW168330   1.744   6.955   4.140
22166SOL    HW268331   1.876   7.025   4.164
22167SOL     OW68332   7.034  12.211   2.756
22167SOL    HW168333   7.101  12.156   2.797
22167SOL    HW268334   7.072  12.299   2.757
22168SOL     OW68335  11.883   3.889   4.893
22168SOL    HW168336  11.833   3.951   4.945
22168SOL    HW268337  11.904   3.818   4.954
22169SOL     OW68338   6.960  13.534   9.774
22169SOL    HW168339   6.914  13.561   9.695
22169SOL    HW268340   7.024  13.469   9.745
22170SOL     OW68341   3.059   0.854  13.188
22170SOL    HW168342   2.992   0.912  13.225
22170SOL    HW268343   3.036   0.847  13.096
22171SOL     OW68344  14.687   8.729   2.027
22171SOL    HW168345  14.665   8.659   1.966
22171SOL    HW268346  14.672   8.691   2.113
22172SOL     OW68347   7.099   8.935   9.896
22172SOL    HW168348   7.131   8.996   9.963
22172SOL    HW268349   7.157   8.948   9.821
22173SOL     OW68350  12.040   8.411   3.155
22173SOL    HW168351  12.122   8.378   3.117
22173SOL    HW268352  11.981   8.335   3.152
22174SOL     OW68353   5.661  11.748   3.963
22174SOL    HW168354   5.624  11.823   3.917
22174SOL    HW268355   5.586  11.704   4.002
22175SOL     OW68356  14.405   7.905  14.441
22175SOL    HW168357  14.384   7.854  14.520
22175SOL    HW268358  14.340   7.975  14.441
22176SOL     OW68359   3.021   7.961  10.205
22176SOL    HW168360   3.089   8.025  10.185
22176SOL    HW268361   2.976   7.947  10.121
22177SOL     OW68362   1.764   4.709  14.507
22177SOL    HW168363   1.725   4.640  14.560
22177SOL    HW268364   1.760   4.675  14.417
22178SOL     OW68365   4.090   9.149   7.402
22178SOL    HW168366   4.115   9.056   7.399
22178SOL    HW268367   4.168   9.194   7.434
22179SOL     OW68368   6.165  13.841   2.374
22179SOL    HW168369   6.093  13.827   2.311
22179SOL    HW268370   6.169  13.760   2.423
22180SOL     OW68371   6.880   9.400   9.936
22180SOL    HW168372   6.785   9.406   9.936
22180SOL    HW268373   6.909   9.462   9.869
22181SOL     OW68374   7.457   5.109   2.514
22181SOL    HW168375   7.477   5.179   2.452
22181SOL    HW268376   7.374   5.073   2.482
22182SOL     OW68377   1.246  13.945  12.309
22182SOL    HW168378   1.326  13.973  12.264
22182SOL    HW268379   1.175  13.978  12.253
22183SOL     OW68380   5.301   5.983  14.728
22183SOL    HW168381   5.371   6.015  14.785
22183SOL    HW268382   5.221   5.996  14.778
22184SOL     OW68383   3.207  11.413   0.533
22184SOL    HW168384   3.227  11.426   0.440
22184SOL    HW268385   3.134  11.473   0.550
22185SOL     OW68386   0.836  14.784   2.393
22185SOL    HW168387   0.880  14.747   2.469
22185SOL    HW268388   0.784  14.712   2.358
22186SOL     OW68389   7.914   7.513   6.476
22186SOL    HW168390   7.876   7.538   6.559
22186SOL    HW268391   7.980   7.447   6.498
22187SOL     OW68392   6.662   2.201   9.307
22187SOL    HW168393   6.737   2.171   9.358
22187SOL    HW268394   6.615   2.260   9.367
22188SOL     OW68395  12.445   7.108  10.847
22188SOL    HW168396  12.425   7.157  10.768
22188SOL    HW268397  12.374   7.131  10.908
22189SOL     OW68398  10.823  12.192   1.281
22189SOL    HW168399  10.911  12.166   1.309
22189SOL    HW268400  10.809  12.277   1.322
22190SOL     OW68401  11.701   7.079   7.459
22190SOL    HW168402  11.788   7.046   7.434
22190SOL    HW268403  11.648   7.069   7.381
22191SOL     OW68404   8.659   7.702   6.638
22191SOL    HW168405   8.586   7.649   6.607
22191SOL    HW268406   8.736   7.665   6.594
22192SOL     OW68407  10.349   9.460   3.610
22192SOL    HW168408  10.382   9.436   3.524
22192SOL    HW268409  10.349   9.556   3.610
22193SOL     OW68410   0.204   3.400   1.262
22193SOL    HW168411   0.187   3.320   1.212
22193SOL    HW268412   0.273   3.445   1.214
22194SOL     OW68413  14.747   8.462   7.173
22194SOL    HW168414  14.709   8.406   7.242
22194SOL    HW268415  14.836   8.480   7.204
22195SOL     OW68416   1.439  10.294  13.146
22195SOL    HW168417   1.497  10.267  13.075
22195SOL    HW268418   1.437  10.390  13.141
22196SOL     OW68419  10.820   5.415   8.504
22196SOL    HW168420  10.821   5.402   8.598
22196SOL    HW268421  10.802   5.328   8.468
22197SOL     OW68422  13.789   4.787   9.628
22197SOL    HW168423  13.883   4.768   9.624
22197SOL    HW268424  13.784   4.874   9.667
22198SOL     OW68425  13.483  11.258  10.281
22198SOL    HW168426  13.554  11.288  10.224
22198SOL    HW268427  13.472  11.329  10.344
22199SOL     OW68428  14.117  12.405   0.583
22199SOL    HW168429  14.036  12.431   0.628
22199SOL    HW268430  14.117  12.309   0.589
22200SOL     OW68431   6.511  13.629   6.490
22200SOL    HW168432   6.418  13.612   6.473
22200SOL    HW268433   6.522  13.607   6.582
22201SOL     OW68434   6.782   8.067   0.005
22201SOL    HW168435   6.857   8.009   0.015
22201SOL    HW268436   6.729   8.052   0.083
22202SOL     OW68437   7.830  10.864  14.222
22202SOL    HW168438   7.753  10.825  14.263
22202SOL    HW268439   7.900  10.851  14.286
22203SOL     OW68440   2.999   1.203  12.398
22203SOL    HW168441   2.995   1.143  12.323
22203SOL    HW268442   3.084   1.246  12.389
22204SOL     OW68443   9.852   3.085   1.028
22204SOL    HW168444   9.770   3.104   1.072
22204SOL    HW268445   9.920   3.119   1.087
22205SOL     OW68446   8.070   3.203   4.184
22205SOL    HW168447   7.980   3.174   4.201
22205SOL    HW268448   8.123   3.124   4.197
22206SOL     OW68449   9.578   3.594   6.644
22206SOL    HW168450   9.551   3.685   6.657
22206SOL    HW268451   9.545   3.571   6.557
22207SOL     OW68452   2.709  10.894   1.172
22207SOL    HW168453   2.704  10.896   1.076
22207SOL    HW268454   2.756  10.975   1.194
22208SOL     OW68455  12.967   1.228   2.276
22208SOL    HW168456  13.000   1.298   2.332
22208SOL    HW268457  12.882   1.260   2.245
22209SOL     OW68458  10.729  12.736  14.140
22209SOL    HW168459  10.672  12.813  14.140
22209SOL    HW268460  10.796  12.756  14.074
22210SOL     OW68461   8.863   7.784  10.264
22210SOL    HW168462   8.851   7.835  10.184
22210SOL    HW268463   8.936   7.827  10.310
22211SOL     OW68464   5.040   8.459   1.908
22211SOL    HW168465   5.023   8.553   1.920
22211SOL    HW268466   5.134   8.450   1.923
22212SOL     OW68467   3.753   7.341  11.548
22212SOL    HW168468   3.767   7.247  11.537
22212SOL    HW268469   3.688   7.347  11.618
22213SOL     OW68470   4.308   9.433   8.965
22213SOL    HW168471   4.237   9.484   9.003
22213SOL    HW268472   4.367   9.414   9.038
22214SOL     OW68473   3.175  13.630   6.065
22214SOL    HW168474   3.167  13.556   6.005
22214SOL    HW268475   3.225  13.596   6.139
22215SOL     OW68476   3.220  11.116   4.628
22215SOL    HW168477   3.259  11.136   4.543
22215SOL    HW268478   3.173  11.196   4.653
22216SOL     OW68479  11.761   8.514  11.304
22216SOL    HW168480  11.798   8.464  11.378
22216SOL    HW268481  11.669   8.488  11.302
22217SOL     OW68482   0.078   9.963   8.176
22217SOL    HW168483   0.092   9.938   8.268
22217SOL    HW268484  14.870  10.015   8.178
22218SOL     OW68485  10.272   5.258   6.825
22218SOL    HW168486  10.328   5.315   6.772
22218SOL    HW268487  10.200   5.314   6.852
22219SOL     OW68488  10.072  14.043   9.718
22219SOL    HW168489  10.009  14.073   9.784
22219SOL    HW268490  10.021  14.038   9.637
22220SOL     OW68491   2.722  10.732   0.147
22220SOL    HW168492   2.660  10.786   0.098
22220SOL    HW268493   2.680  10.719   0.232
22221SOL     OW68494   2.603  12.020   7.254
22221SOL    HW168495   2.667  12.036   7.184
22221SOL    HW268496   2.598  12.102   7.302
22222SOL     OW68497   4.250   1.523   6.459
22222SOL    HW168498   4.253   1.492   6.550
22222SOL    HW268499   4.211   1.451   6.410
22223SOL     OW68500   7.258   7.669   0.431
22223SOL    HW168501   7.242   7.578   0.454
22223SOL    HW268502   7.232   7.719   0.509
22224SOL     OW68503   7.658   6.622  10.598
22224SOL    HW168504   7.617   6.566  10.664
22224SOL    HW268505   7.617   6.708  10.611
22225SOL     OW68506   0.908   5.384   2.917
22225SOL    HW168507   0.916   5.289   2.917
22225SOL    HW268508   0.829   5.402   2.968
22226SOL     OW68509  12.438  10.571  12.168
22226SOL    HW168510  12.524  10.614  12.165
22226SOL    HW268511  12.395  10.597  12.087
22227SOL     OW68512   4.019  10.651   9.816
22227SOL    HW168513   3.967  10.632   9.738
22227SOL    HW268514   3.957  10.644   9.889
22228SOL     OW68515   3.160   6.206   8.644
22228SOL    HW168516   3.117   6.238   8.565
22228SOL    HW268517   3.090   6.201   8.709
22229SOL     OW68518   5.529   4.685   5.784
22229SOL    HW168519   5.540   4.629   5.861
22229SOL    HW268520   5.450   4.651   5.741
22230SOL     OW68521   9.822  10.885   5.378
22230SOL    HW168522   9.819  10.955   5.313
22230SOL    HW268523   9.910  10.889   5.414
22231SOL     OW68524  13.465   4.393   2.282
22231SOL    HW168525  13.418   4.347   2.352
22231SOL    HW268526  13.546   4.424   2.323
22232SOL     OW68527   0.089  11.404  14.252
22232SOL    HW168528   0.096  11.464  14.178
22232SOL    HW268529   0.159  11.340  14.237
22233SOL     OW68530  12.234  12.094  13.148
22233SOL    HW168531  12.227  12.013  13.098
22233SOL    HW268532  12.291  12.150  13.096
22234SOL     OW68533   3.698  11.473   6.728
22234SOL    HW168534   3.741  11.391   6.754
22234SOL    HW268535   3.606  11.460   6.750
22235SOL     OW68536  11.995   7.736  14.168
22235SOL    HW168537  12.090   7.727  14.181
22235SOL    HW268538  11.987   7.795  14.093
22236SOL     OW68539  11.074   3.492   6.472
22236SOL    HW168540  11.125   3.535   6.403
22236SOL    HW268541  11.116   3.518   6.553
22237SOL     OW68542  11.913  14.248   9.423
22237SOL    HW168543  11.947  14.321   9.475
22237SOL    HW268544  11.972  14.242   9.348
22238SOL     OW68545   9.269   9.401   6.302
22238SOL    HW168546   9.361   9.416   6.322
22238SOL    HW268547   9.257   9.434   6.213
22239SOL     OW68548  13.171  13.457   2.727
22239SOL    HW168549  13.176  13.543   2.685
22239SOL    HW268550  13.171  13.395   2.654
22240SOL     OW68551   6.517  13.143   9.141
22240SOL    HW168552   6.439  13.087   9.140
22240SOL    HW268553   6.508  13.198   9.064
22241SOL     OW68554   1.354   7.923   9.626
22241SOL    HW168555   1.444   7.919   9.592
22241SOL    HW268556   1.357   7.988   9.696
22242SOL     OW68557  13.892  10.280  11.591
22242SOL    HW168558  13.846  10.250  11.669
22242SOL    HW268559  13.984  10.285  11.617
22243SOL     OW68560  14.373   8.170   8.569
22243SOL    HW168561  14.289   8.153   8.611
22243SOL    HW268562  14.438   8.128   8.625
22244SOL     OW68563   7.655  10.266  12.974
22244SOL    HW168564   7.561  10.254  12.961
22244SOL    HW268565   7.686  10.302  12.891
22245SOL     OW68566  13.565   7.562   9.965
22245SOL    HW168567  13.491   7.506   9.940
22245SOL    HW268568  13.620   7.566   9.886
22246SOL     OW68569  14.343  13.843  14.248
22246SOL    HW168570  14.428  13.851  14.206
22246SOL    HW268571  14.313  13.933  14.260
22247SOL     OW68572   7.134   1.201   1.147
22247SOL    HW168573   7.221   1.216   1.184
22247SOL    HW268574   7.100   1.289   1.128
22248SOL     OW68575   8.649   0.202   8.281
22248SOL    HW168576   8.617   0.250   8.204
22248SOL    HW268577   8.587   0.129   8.291
22249SOL     OW68578   4.734   1.619  12.658
22249SOL    HW168579   4.805   1.621  12.594
22249SOL    HW268580   4.680   1.544  12.632
22250SOL     OW68581   1.516  12.969  13.644
22250SOL    HW168582   1.486  12.999  13.730
22250SOL    HW268583   1.609  12.990  13.641
22251SOL     OW68584   4.132  10.438   7.809
22251SOL    HW168585   4.198  10.475   7.868
22251SOL    HW268586   4.142  10.487   7.728
22252SOL     OW68587   3.564   7.754  12.545
22252SOL    HW168588   3.582   7.758  12.451
22252SOL    HW268589   3.606   7.832  12.581
22253SOL     OW68590   9.986  14.526   1.515
22253SOL    HW168591  10.003  14.560   1.603
22253SOL    HW268592  10.070  14.488   1.488
22254SOL     OW68593   8.901   1.160  11.776
22254SOL    HW168594   8.874   1.204  11.696
22254SOL    HW268595   8.974   1.212  11.809
22255SOL     OW68596  14.511  10.377   6.820
22255SOL    HW168597  14.503  10.453   6.762
22255SOL    HW268598  14.460  10.309   6.776
22256SOL     OW68599  11.679   2.062   7.374
22256SOL    HW168600  11.720   2.029   7.294
22256SOL    HW268601  11.676   1.986   7.432
22257SOL     OW68602   3.553  13.424   7.597
22257SOL    HW168603   3.463  13.423   7.628
22257SOL    HW268604   3.546  13.446   7.504
22258SOL     OW68605   8.378   3.621   9.672
22258SOL    HW168606   8.326   3.558   9.622
22258SOL    HW268607   8.402   3.688   9.609
22259SOL     OW68608  13.157   5.537  11.511
22259SOL    HW168609  13.063   5.525  11.505
22259SOL    HW268610  13.181   5.586  11.432
22260SOL     OW68611   7.186  11.173   7.422
22260SOL    HW168612   7.278  11.172   7.447
22260SOL    HW268613   7.150  11.250   7.465
22261SOL     OW68614  11.970  11.410   4.569
22261SOL    HW168615  11.942  11.355   4.496
22261SOL    HW268616  12.066  11.407   4.566
22262SOL     OW68617   5.679  10.690   4.961
22262SOL    HW168618   5.614  10.715   5.027
22262SOL    HW268619   5.706  10.602   4.985
22263SOL     OW68620  14.087   3.012   0.229
22263SOL    HW168621  14.109   3.103   0.249
22263SOL    HW268622  14.106   3.003   0.136
22264SOL     OW68623  11.908  11.424   7.620
22264SOL    HW168624  11.960  11.392   7.694
22264SOL    HW268625  11.973  11.440   7.551
22265SOL     OW68626   1.716   7.781  11.663
22265SOL    HW168627   1.789   7.837  11.635
22265SOL    HW268628   1.702   7.721  11.590
22266SOL     OW68629   3.561   8.679  11.418
22266SOL    HW168630   3.597   8.751  11.367
22266SOL    HW268631   3.487   8.648  11.366
22267SOL     OW68632   7.848   5.900   8.523
22267SOL    HW168633   7.848   5.975   8.582
22267SOL    HW268634   7.940   5.873   8.517
22268SOL     OW68635   3.805   7.755  13.687
22268SOL    HW168636   3.847   7.828  13.734
22268SOL    HW268637   3.722   7.791  13.657
22269SOL     OW68638   1.095   9.610   4.310
22269SOL    HW168639   1.033   9.654   4.252
22269SOL    HW268640   1.176   9.606   4.259
22270SOL     OW68641   5.061  10.914   9.966
22270SOL    HW168642   5.021  10.999   9.984
22270SOL    HW268643   5.030  10.858  10.037
22271SOL     OW68644  11.780   7.601  10.249
22271SOL    HW168645  11.824   7.522  10.281
22271SOL    HW268646  11.696   7.602  10.295
22272SOL     OW68647  14.572   0.067   0.800
22272SOL    HW168648  14.597   0.070   0.892
22272SOL    HW268649  14.490   0.117   0.796
22273SOL     OW68650   9.248   3.190   7.463
22273SOL    HW168651   9.187   3.259   7.440
22273SOL    HW268652   9.227   3.168   7.554
22274SOL     OW68653  12.868  12.527   7.984
22274SOL    HW168654  12.833  12.502   7.899
22274SOL    HW268655  12.949  12.476   7.992
22275SOL     OW68656   5.524  13.632  14.536
22275SOL    HW168657   5.528  13.545  14.576
22275SOL    HW268658   5.443  13.632  14.486
22276SOL     OW68659  11.427  11.607  11.244
22276SOL    HW168660  11.397  11.550  11.173
22276SOL    HW268661  11.478  11.550  11.301
22277SOL     OW68662   0.518  13.853  10.614
22277SOL    HW168663   0.585  13.788  10.592
22277SOL    HW268664   0.517  13.913  10.539
22278SOL     OW68665   5.444   5.164  10.055
22278SOL    HW168666   5.508   5.137   9.990
22278SOL    HW268667   5.489   5.229  10.108
22279SOL     OW68668   4.520   8.067  10.440
22279SOL    HW168669   4.525   8.149  10.488
22279SOL    HW268670   4.496   8.001  10.506
22280SOL     OW68671   6.797   3.302   6.073
22280SOL    HW168672   6.720   3.330   6.024
22280SOL    HW268673   6.853   3.258   6.008
22281SOL     OW68674   4.206   7.446   1.260
22281SOL    HW168675   4.137   7.442   1.193
22281SOL    HW268676   4.178   7.516   1.319
22282SOL     OW68677   5.297   2.621   3.465
22282SOL    HW168678   5.353   2.678   3.413
22282SOL    HW268679   5.210   2.660   3.458
22283SOL     OW68680   0.232   8.963   4.431
22283SOL    HW168681   0.151   8.919   4.403
22283SOL    HW268682   0.202   9.048   4.465
22284SOL     OW68683   4.746  13.199   2.627
22284SOL    HW168684   4.704  13.276   2.665
22284SOL    HW268685   4.822  13.183   2.684
22285SOL     OW68686   4.460  12.930   3.794
22285SOL    HW168687   4.556  12.929   3.797
22285SOL    HW268688   4.434  12.969   3.878
22286SOL     OW68689   9.023  12.971  11.069
22286SOL    HW168690   8.990  13.060  11.082
22286SOL    HW268691   9.004  12.951  10.978
22287SOL     OW68692  13.693   6.923   3.041
22287SOL    HW168693  13.635   6.983   3.089
22287SOL    HW268694  13.650   6.911   2.956
22288SOL     OW68695   9.212  12.296   0.622
22288SOL    HW168696   9.118  12.280   0.631
22288SOL    HW268697   9.254  12.222   0.665
22289SOL     OW68698   5.873   9.730  10.124
22289SOL    HW168699   5.842   9.781  10.049
22289SOL    HW268700   5.815   9.756  10.195
22290SOL     OW68701   4.955   4.476   6.902
22290SOL    HW168702   4.999   4.482   6.818
22290SOL    HW268703   5.021   4.439   6.961
22291SOL     OW68704  13.751  13.212   6.434
22291SOL    HW168705  13.708  13.251   6.358
22291SOL    HW268706  13.681  13.162   6.477
22292SOL     OW68707   9.857  12.273  10.096
22292SOL    HW168708   9.872  12.346  10.156
22292SOL    HW268709   9.804  12.310  10.025
22293SOL     OW68710   9.752   1.362   0.615
22293SOL    HW168711   9.660   1.362   0.589
22293SOL    HW268712   9.750   1.361   0.711
22294SOL     OW68713  11.188   3.395   3.371
22294SOL    HW168714  11.276   3.409   3.404
22294SOL    HW268715  11.151   3.483   3.363
22295SOL     OW68716   9.789  10.696   5.146
22295SOL    HW168717   9.757  10.611   5.175
22295SOL    HW268718   9.785  10.751   5.225
22296SOL     OW68719  14.145  11.780   5.509
22296SOL    HW168720  14.131  11.692   5.546
22296SOL    HW268721  14.222  11.813   5.554
22297SOL     OW68722   2.714  13.071  14.494
22297SOL    HW168723   2.735  13.158  14.462
22297SOL    HW268724   2.727  13.076  14.589
22298SOL     OW68725   3.439  10.996  14.564
22298SOL    HW168726   3.419  10.993  14.471
22298SOL    HW268727   3.438  10.904  14.592
22299SOL     OW68728  11.587  12.143  10.343
22299SOL    HW168729  11.509  12.090  10.330
22299SOL    HW268730  11.579  12.213  10.278
22300SOL     OW68731  12.905   4.277  12.536
22300SOL    HW168732  12.855   4.339  12.588
22300SOL    HW268733  12.864   4.278  12.450
22301SOL     OW68734  13.558   4.419   1.808
22301SOL    HW168735  13.618   4.476   1.761
22301SOL    HW268736  13.543   4.345   1.749
22302SOL     OW68737   7.064   6.026  14.074
22302SOL    HW168738   7.123   5.952  14.061
22302SOL    HW268739   7.118   6.103  14.057
22303SOL     OW68740   4.942   9.875  11.033
22303SOL    HW168741   5.035   9.857  11.017
22303SOL    HW268742   4.942   9.964  11.069
22304SOL     OW68743   5.431   6.407   1.780
22304SOL    HW168744   5.437   6.388   1.687
22304SOL    HW268745   5.450   6.323   1.823
22305SOL     OW68746  12.566   0.594  11.247
22305SOL    HW168747  12.531   0.505  11.254
22305SOL    HW268748  12.646   0.593  11.299
22306SOL     OW68749   5.648  11.809   9.041
22306SOL    HW168750   5.646  11.814   9.137
22306SOL    HW268751   5.708  11.737   9.022
22307SOL     OW68752  14.713  10.053  14.397
22307SOL    HW168753  14.682  10.011  14.477
22307SOL    HW268754  14.711   9.984  14.331
22308SOL     OW68755   8.539  13.643   2.131
22308SOL    HW168756   8.598  13.585   2.178
22308SOL    HW268757   8.463  13.589   2.111
22309SOL     OW68758   9.800  12.352   7.316
22309SOL    HW168759   9.744  12.337   7.239
22309SOL    HW268760   9.830  12.264   7.340
22310SOL     OW68761  11.701   0.307  11.870
22310SOL    HW168762  11.736   0.219  11.885
22310SOL    HW268763  11.613   0.292  11.835
22311SOL     OW68764  10.398   9.526   9.440
22311SOL    HW168765  10.472   9.490   9.391
22311SOL    HW268766  10.331   9.459   9.437
22312SOL     OW68767   9.787   1.228  13.093
22312SOL    HW168768   9.870   1.198  13.129
22312SOL    HW268769   9.753   1.153  13.045
22313SOL     OW68770  13.086   5.682   1.171
22313SOL    HW168771  13.093   5.712   1.261
22313SOL    HW268772  13.026   5.608   1.175
22314SOL     OW68773   2.347   7.129   3.797
22314SOL    HW168774   2.413   7.102   3.861
22314SOL    HW268775   2.392   7.129   3.713
22315SOL     OW68776  14.266  10.323   7.074
22315SOL    HW168777  14.314  10.317   7.157
22315SOL    HW268778  14.256  10.232   7.046
22316SOL     OW68779   1.466   8.912   3.722
22316SOL    HW168780   1.436   8.911   3.812
22316SOL    HW268781   1.560   8.895   3.727
22317SOL     OW68782   9.376   5.516   0.693
22317SOL    HW168783   9.382   5.508   0.598
22317SOL    HW268784   9.426   5.442   0.727
22318SOL     OW68785   2.885  12.758   5.779
22318SOL    HW168786   2.815  12.808   5.739
22318SOL    HW268787   2.841  12.695   5.836
22319SOL     OW68788  12.112   1.410   4.593
22319SOL    HW168789  12.142   1.409   4.502
22319SOL    HW268790  12.193   1.412   4.644
22320SOL     OW68791   7.175   5.721  10.742
22320SOL    HW168792   7.152   5.649  10.801
22320SOL    HW268793   7.245   5.685  10.687
22321SOL     OW68794  11.496  10.553  12.752
22321SOL    HW168795  11.494  10.574  12.845
22321SOL    HW268796  11.411  10.583  12.719
22322SOL     OW68797  11.329   3.079   5.225
22322SOL    HW168798  11.274   3.117   5.156
22322SOL    HW268799  11.269   3.030   5.280
22323SOL     OW68800  12.446   5.069   0.587
22323SOL    HW168801  12.507   5.134   0.551
22323SOL    HW268802  12.380   5.059   0.519
22324SOL     OW68803   8.860   2.074   3.588
22324SOL    HW168804   8.921   2.126   3.535
22324SOL    HW268805   8.916   2.029   3.651
22325SOL     OW68806   5.662   3.363  10.214
22325SOL    HW168807   5.696   3.367  10.304
22325SOL    HW268808   5.735   3.330  10.162
22326SOL     OW68809   0.846   8.372   7.469
22326SOL    HW168810   0.863   8.374   7.374
22326SOL    HW268811   0.887   8.291   7.498
22327SOL     OW68812  11.439   8.776   9.217
22327SOL    HW168813  11.471   8.864   9.236
22327SOL    HW268814  11.346   8.787   9.197
22328SOL     OW68815   9.059   5.411   8.397
22328SOL    HW168816   9.147   5.431   8.428
22328SOL    HW268817   9.067   5.407   8.302
22329SOL     OW68818   2.286   6.731   0.207
22329SOL    HW168819   2.248   6.752   0.122
22329SOL    HW268820   2.217   6.749   0.270
22330SOL     OW68821  13.503   0.135   0.788
22330SOL    HW168822  13.484   0.229   0.792
22330SOL    HW268823  13.447   0.102   0.718
22331SOL     OW68824  14.179   0.624   7.101
22331SOL    HW168825  14.086   0.625   7.123
22331SOL    HW268826  14.195   0.536   7.068
22332SOL     OW68827   2.538   0.978   1.061
22332SOL    HW168828   2.531   0.888   1.090
22332SOL    HW268829   2.526   0.973   0.966
22333SOL     OW68830   3.606  14.030   2.648
22333SOL    HW168831   3.533  14.034   2.710
22333SOL    HW268832   3.631  13.938   2.645
22334SOL     OW68833   3.383   7.903   2.618
22334SOL    HW168834   3.312   7.867   2.565
22334SOL    HW268835   3.452   7.837   2.615
22335SOL     OW68836   1.149  12.295   9.686
22335SOL    HW168837   1.226  12.242   9.669
22335SOL    HW268838   1.169  12.381   9.648
22336SOL     OW68839   2.449  10.436   9.214
22336SOL    HW168840   2.393  10.362   9.191
22336SOL    HW268841   2.538  10.402   9.206
22337SOL     OW68842   7.190   8.629  13.401
22337SOL    HW168843   7.247   8.638  13.325
22337SOL    HW268844   7.194   8.536  13.423
22338SOL     OW68845   3.139  12.366   9.401
22338SOL    HW168846   3.159  12.340   9.311
22338SOL    HW268847   3.214  12.335   9.452
22339SOL     OW68848  11.450   9.127   9.202
22339SOL    HW168849  11.450   9.191   9.131
22339SOL    HW268850  11.532   9.142   9.248
22340SOL     OW68851   1.633   0.159   2.081
22340SOL    HW168852   1.556   0.182   2.133
22340SOL    HW268853   1.627   0.064   2.070
22341SOL     OW68854   4.742   3.716   4.019
22341SOL    HW168855   4.696   3.719   3.935
22341SOL    HW268856   4.683   3.669   4.077
22342SOL     OW68857   2.559   1.843  11.611
22342SOL    HW168858   2.652   1.834  11.632
22342SOL    HW268859   2.557   1.849  11.515
22343SOL     OW68860   3.999   8.712   3.228
22343SOL    HW168861   3.988   8.780   3.162
22343SOL    HW268862   4.079   8.736   3.275
22344SOL     OW68863   2.025   2.495   7.534
22344SOL    HW168864   2.105   2.476   7.584
22344SOL    HW268865   2.031   2.588   7.513
22345SOL     OW68866   3.267   8.216   9.046
22345SOL    HW168867   3.225   8.139   9.009
22345SOL    HW268868   3.226   8.290   9.001
22346SOL     OW68869  13.578  12.424   2.178
22346SOL    HW168870  13.514  12.357   2.153
22346SOL    HW268871  13.643  12.423   2.107
22347SOL     OW68872   2.721  13.281  10.253
22347SOL    HW168873   2.802  13.294  10.302
22347SOL    HW268874   2.652  13.286  10.319
22348SOL     OW68875   7.966   4.838   8.283
22348SOL    HW168876   7.966   4.925   8.243
22348SOL    HW268877   7.885   4.835   8.335
22349SOL     OW68878   9.856   4.242   6.406
22349SOL    HW168879   9.935   4.297   6.404
22349SOL    HW268880   9.829   4.243   6.498
22350SOL     OW68881   0.781  10.363   1.333
22350SOL    HW168882   0.728  10.443   1.340
22350SOL    HW268883   0.740  10.314   1.262
22351SOL     OW68884   7.879   6.394   6.717
22351SOL    HW168885   7.835   6.338   6.781
22351SOL    HW268886   7.832   6.477   6.722
22352SOL     OW68887   3.350  11.995   7.015
22352SOL    HW168888   3.426  12.004   6.957
22352SOL    HW268889   3.306  12.079   7.011
22353SOL     OW68890   6.081  11.772   2.228
22353SOL    HW168891   6.135  11.842   2.265
22353SOL    HW268892   6.097  11.777   2.134
22354SOL     OW68893   7.090   9.196   2.030
22354SOL    HW168894   7.135   9.211   2.113
22354SOL    HW268895   7.153   9.222   1.963
22355SOL     OW68896  14.195   2.111   8.457
22355SOL    HW168897  14.187   2.026   8.414
22355SOL    HW268898  14.106   2.146   8.459
22356SOL     OW68899   9.350   0.612  11.103
22356SOL    HW168900   9.407   0.535  11.102
22356SOL    HW268901   9.289   0.597  11.175
22357SOL     OW68902  10.494  14.392  13.183
22357SOL    HW168903  10.549  14.388  13.105
22357SOL    HW268904  10.508  14.480  13.218
22358SOL     OW68905   3.672   9.128  12.079
22358SOL    HW168906   3.580   9.145  12.102
22358SOL    HW268907   3.668   9.097  11.988
22359SOL     OW68908   9.606   2.319   3.347
22359SOL    HW168909   9.694   2.294   3.374
22359SOL    HW268910   9.555   2.320   3.428
22360SOL     OW68911   1.714   2.404   2.013
22360SOL    HW168912   1.661   2.330   1.983
22360SOL    HW268913   1.791   2.402   1.956
22361SOL     OW68914   8.305  13.534  12.766
22361SOL    HW168915   8.374  13.596  12.788
22361SOL    HW268916   8.236  13.588  12.727
22362SOL     OW68917  10.949   9.760  10.914
22362SOL    HW168918  10.942   9.666  10.930
22362SOL    HW268919  10.860   9.787  10.891
22363SOL     OW68920  10.472   8.965   0.220
22363SOL    HW168921  10.415   8.945   0.145
22363SOL    HW268922  10.411   8.992   0.289
22364SOL     OW68923  10.744   5.444   2.777
22364SOL    HW168924  10.723   5.533   2.802
22364SOL    HW268925  10.666   5.393   2.802
22365SOL     OW68926   0.537   4.605   3.427
22365SOL    HW168927   0.537   4.510   3.436
22365SOL    HW268928   0.547   4.638   3.517
22366SOL     OW68929  11.378   4.931   7.724
22366SOL    HW168930  11.288   4.946   7.755
22366SOL    HW268931  11.378   4.964   7.635
22367SOL     OW68932   0.272   6.955   0.077
22367SOL    HW168933   0.345   6.926   0.132
22367SOL    HW268934   0.291   6.918  14.863
22368SOL     OW68935   9.472   4.171  10.573
22368SOL    HW168936   9.429   4.229  10.636
22368SOL    HW268937   9.560   4.206  10.563
22369SOL     OW68938  11.485   3.484   2.662
22369SOL    HW168939  11.404   3.514   2.622
22369SOL    HW268940  11.458   3.437   2.740
22370SOL     OW68941  12.816   6.571   1.841
22370SOL    HW168942  12.774   6.512   1.779
22370SOL    HW268943  12.756   6.573   1.916
22371SOL     OW68944   5.192   4.966   0.048
22371SOL    HW168945   5.232   4.879   0.046
22371SOL    HW268946   5.118   4.958   0.109
22372SOL     OW68947   5.214  11.987   3.754
22372SOL    HW168948   5.262  12.068   3.735
22372SOL    HW268949   5.241  11.964   3.843
22373SOL     OW68950   2.688   1.949   9.003
22373SOL    HW168951   2.760   1.949   9.065
22373SOL    HW268952   2.691   1.862   8.963
22374SOL     OW68953  13.994   1.635  14.613
22374SOL    HW168954  14.002   1.543  14.638
22374SOL    HW268955  14.051   1.644  14.537
22375SOL     OW68956   6.400   0.830   7.268
22375SOL    HW168957   6.432   0.894   7.331
22375SOL    HW268958   6.391   0.749   7.318
22376SOL     OW68959  12.702   5.729   2.609
22376SOL    HW168960  12.796   5.748   2.618
22376SOL    HW268961  12.693   5.699   2.519
22377SOL     OW68962   6.189   9.728  14.692
22377SOL    HW168963   6.148   9.736  14.606
22377SOL    HW268964   6.283   9.725  14.673
22378SOL     OW68965  11.744  13.228   1.188
22378SOL    HW168966  11.758  13.312   1.231
22378SOL    HW268967  11.750  13.164   1.259
22379SOL     OW68968   5.428   9.826   8.280
22379SOL    HW168969   5.464   9.837   8.192
22379SOL    HW268970   5.400   9.735   8.284
22380SOL     OW68971  11.168   7.375   8.561
22380SOL    HW168972  11.149   7.465   8.534
22380SOL    HW268973  11.097   7.323   8.525
22381SOL     OW68974   2.609   8.719   5.348
22381SOL    HW168975   2.671   8.670   5.293
22381SOL    HW268976   2.601   8.667   5.428
22382SOL     OW68977   5.443   3.496  11.621
22382SOL    HW168978   5.465   3.404  11.633
22382SOL    HW268979   5.517   3.533  11.573
22383SOL     OW68980   2.681   1.255   4.955
22383SOL    HW168981   2.730   1.291   4.881
22383SOL    HW268982   2.736   1.271   5.031
22384SOL     OW68983   3.998  12.738   4.376
22384SOL    HW168984   4.074  12.795   4.368
22384SOL    HW268985   3.984  12.729   4.471
22385SOL     OW68986   0.055   1.518   7.115
22385SOL    HW168987   0.118   1.534   7.185
22385SOL    HW268988   0.087   1.569   7.041
22386SOL     OW68989   4.793  13.623   2.921
22386SOL    HW168990   4.705  13.645   2.953
22386SOL    HW268991   4.808  13.684   2.850
22387SOL     OW68992   2.540   5.493   0.143
22387SOL    HW168993   2.555   5.587   0.151
22387SOL    HW268994   2.471   5.485   0.076
22388SOL     OW68995   6.748   6.563   0.423
22388SOL    HW168996   6.746   6.468   0.416
22388SOL    HW268997   6.823   6.581   0.480
22389SOL     OW68998  11.746   2.023   6.294
22389SOL    HW168999  11.689   1.949   6.271
22389SOL    HW269000  11.782   2.052   6.211
22390SOL     OW69001   1.516   9.271   1.837
22390SOL    HW169002   1.511   9.221   1.756
22390SOL    HW269003   1.491   9.360   1.811
22391SOL     OW69004  14.397   0.817   1.847
22391SOL    HW169005  14.417   0.869   1.769
22391SOL    HW269006  14.469   0.755   1.854
22392SOL     OW69007  11.864   5.885   4.772
22392SOL    HW169008  11.910   5.812   4.813
22392SOL    HW269009  11.859   5.861   4.679
22393SOL     OW69010   4.120   6.065   5.051
22393SOL    HW169011   4.036   6.093   5.014
22393SOL    HW269012   4.184   6.078   4.981
22394SOL     OW69013   4.962   6.372  10.480
22394SOL    HW169014   5.038   6.422  10.450
22394SOL    HW269015   4.984   6.281  10.464
22395SOL     OW69016  11.397  10.658   8.151
22395SOL    HW169017  11.419  10.578   8.197
22395SOL    HW269018  11.317  10.689   8.193
22396SOL     OW69019  10.615  10.778   5.398
22396SOL    HW169020  10.594  10.685   5.397
22396SOL    HW269021  10.682  10.787   5.466
22397SOL     OW69022   1.403   7.807   1.212
22397SOL    HW169023   1.469   7.804   1.281
22397SOL    HW269024   1.453   7.826   1.132
22398SOL     OW69025  12.203  14.273   6.907
22398SOL    HW169026  12.251  14.293   6.988
22398SOL    HW269027  12.272  14.252   6.844
22399SOL     OW69028   7.514  12.731  12.559
22399SOL    HW169029   7.552  12.676  12.491
22399SOL    HW269030   7.490  12.812  12.514
22400SOL     OW69031   2.222   5.245   2.876
22400SOL    HW169032   2.230   5.153   2.900
22400SOL    HW269033   2.228   5.246   2.781
22401SOL     OW69034  12.995  11.139  11.912
22401SOL    HW169035  13.010  11.154  11.819
22401SOL    HW269036  13.083  11.128  11.949
22402SOL     OW69037  13.874   0.380   6.663
22402SOL    HW169038  13.969   0.389   6.666
22402SOL    HW269039  13.846   0.444   6.597
22403SOL     OW69040   9.308   7.952   4.024
22403SOL    HW169041   9.336   8.035   3.985
22403SOL    HW269042   9.366   7.940   4.099
22404SOL     OW69043  10.952   0.082   3.965
22404SOL    HW169044  10.908  14.871   3.947
22404SOL    HW269045  10.910   0.145   3.906
22405SOL     OW69046   5.879   0.570  10.705
22405SOL    HW169047   5.806   0.513  10.731
22405SOL    HW269048   5.843   0.658  10.711
22406SOL     OW69049   4.571   7.841   5.938
22406SOL    HW169050   4.641   7.863   6.000
22406SOL    HW269051   4.572   7.912   5.874
22407SOL     OW69052   5.427  13.764  12.378
22407SOL    HW169053   5.361  13.695  12.372
22407SOL    HW269054   5.506  13.720  12.410
22408SOL     OW69055  12.402   4.769   1.239
22408SOL    HW169056  12.489   4.791   1.205
22408SOL    HW269057  12.402   4.801   1.329
22409SOL     OW69058  10.592  12.186  14.179
22409SOL    HW169059  10.515  12.130  14.193
22409SOL    HW269060  10.666  12.126  14.184
22410SOL     OW69061   2.296  10.942   6.207
22410SOL    HW169062   2.327  10.894   6.130
22410SOL    HW269063   2.245  10.877   6.256
22411SOL     OW69064   7.037  10.930  10.347
22411SOL    HW169065   7.014  10.850  10.394
22411SOL    HW269066   7.103  10.903  10.283
22412SOL     OW69067   5.694   1.705  13.170
22412SOL    HW169068   5.721   1.694  13.261
22412SOL    HW269069   5.599   1.711  13.173
22413SOL     OW69070   2.389  13.264   6.020
22413SOL    HW169071   2.431  13.187   5.983
22413SOL    HW269072   2.424  13.271   6.109
22414SOL     OW69073   2.321   0.031  14.767
22414SOL    HW169074   2.388   0.072  14.713
22414SOL    HW269075   2.350   0.047  14.857
22415SOL     OW69076   6.331   6.821   8.799
22415SOL    HW169077   6.304   6.780   8.881
22415SOL    HW269078   6.339   6.914   8.820
22416SOL     OW69079  13.716   3.342   3.976
22416SOL    HW169080  13.727   3.373   3.886
22416SOL    HW269081  13.692   3.249   3.967
22417SOL     OW69082   6.134   2.855   5.631
22417SOL    HW169083   6.194   2.930   5.623
22417SOL    HW269084   6.182   2.781   5.594
22418SOL     OW69085   7.974   5.800  11.051
22418SOL    HW169086   8.006   5.748  11.124
22418SOL    HW269087   8.006   5.889  11.069
22419SOL     OW69088   0.826   8.665  11.772
22419SOL    HW169089   0.797   8.576  11.789
22419SOL    HW269090   0.801   8.682  11.681
22420SOL     OW69091  14.723   6.216  10.381
22420SOL    HW169092  14.734   6.201  10.287
22420SOL    HW269093  14.758   6.136  10.421
22421SOL     OW69094  12.089   6.035   9.625
22421SOL    HW169095  12.035   6.108   9.656
22421SOL    HW269096  12.080   5.968   9.692
22422SOL     OW69097   9.024  10.334   9.637
22422SOL    HW169098   9.021  10.395   9.711
22422SOL    HW269099   9.020  10.391   9.560
22423SOL     OW69100   9.062  14.808   3.550
22423SOL    HW169101   9.045  14.717   3.528
22423SOL    HW269102   9.098  14.806   3.639
22424SOL     OW69103  11.029   8.944   4.941
22424SOL    HW169104  11.073   8.926   5.024
22424SOL    HW269105  11.049   9.036   4.923
22425SOL     OW69106  14.584   7.712   3.521
22425SOL    HW169107  14.625   7.749   3.443
22425SOL    HW269108  14.647   7.729   3.592
22426SOL     OW69109   3.635   7.937   3.909
22426SOL    HW169110   3.572   7.866   3.918
22426SOL    HW269111   3.596   7.995   3.843
22427SOL     OW69112  12.108   1.197   1.401
22427SOL    HW169113  12.178   1.141   1.433
22427SOL    HW269114  12.126   1.206   1.307
22428SOL     OW69115  14.831  12.297  10.777
22428SOL    HW169116  14.738  12.281  10.762
22428SOL    HW269117   0.003  12.224  10.734
22429SOL     OW69118   5.785   2.410  11.866
22429SOL    HW169119   5.797   2.440  11.956
22429SOL    HW269120   5.872   2.383  11.838
22430SOL     OW69121   3.930  14.040  12.418
22430SOL    HW169122   4.016  14.006  12.440
22430SOL    HW269123   3.946  14.130  12.391
22431SOL     OW69124   9.466   0.857  11.056
22431SOL    HW169125   9.518   0.834  10.979
22431SOL    HW269126   9.413   0.779  11.074
22432SOL     OW69127   3.338  14.668  11.024
22432SOL    HW169128   3.374  14.581  11.004
22432SOL    HW269129   3.397  14.704  11.090
22433SOL     OW69130   4.880   7.684   2.675
22433SOL    HW169131   4.901   7.685   2.582
22433SOL    HW269132   4.849   7.595   2.692
22434SOL     OW69133  10.274   9.192   0.582
22434SOL    HW169134  10.258   9.109   0.627
22434SOL    HW269135  10.247   9.259   0.645
22435SOL     OW69136   9.755  11.958   2.452
22435SOL    HW169137   9.760  11.927   2.542
22435SOL    HW269138   9.735  11.880   2.400
22436SOL     OW69139   6.514  12.052   6.648
22436SOL    HW169140   6.435  12.051   6.702
22436SOL    HW269141   6.513  11.969   6.601
22437SOL     OW69142  14.631  14.763  10.614
22437SOL    HW169143  14.553  14.712  10.635
22437SOL    HW269144  14.688  14.702  10.568
22438SOL     OW69145   4.426  11.252   2.407
22438SOL    HW169146   4.380  11.197   2.344
22438SOL    HW269147   4.393  11.225   2.492
22439SOL     OW69148   4.910  11.490   2.512
22439SOL    HW169149   4.907  11.517   2.604
22439SOL    HW269150   4.903  11.571   2.463
22440SOL     OW69151  13.803  14.682   0.136
22440SOL    HW169152  13.877  14.694   0.196
22440SOL    HW269153  13.740  14.630   0.186
22441SOL     OW69154  12.252  11.185   9.374
22441SOL    HW169155  12.318  11.146   9.431
22441SOL    HW269156  12.169  11.164   9.416
22442SOL     OW69157   3.579   7.429   5.963
22442SOL    HW169158   3.566   7.501   6.025
22442SOL    HW269159   3.654   7.456   5.911
22443SOL     OW69160  13.528   9.187   0.468
22443SOL    HW169161  13.449   9.199   0.417
22443SOL    HW269162  13.599   9.214   0.410
22444SOL     OW69163   0.381   2.826   7.972
22444SOL    HW169164   0.436   2.903   7.985
22444SOL    HW269165   0.443   2.757   7.945
22445SOL     OW69166  10.158   0.846   5.422
22445SOL    HW169167  10.200   0.791   5.489
22445SOL    HW269168  10.197   0.932   5.433
22446SOL     OW69169   1.034   7.700   1.099
22446SOL    HW169170   0.966   7.660   1.045
22446SOL    HW269171   1.031   7.793   1.077
22447SOL     OW69172   9.125   7.105   7.149
22447SOL    HW169173   9.210   7.064   7.134
22447SOL    HW269174   9.143   7.199   7.147
22448SOL     OW69175  11.526   8.433  13.863
22448SOL    HW169176  11.555   8.388  13.943
22448SOL    HW269177  11.432   8.444  13.875
22449SOL     OW69178   4.235   1.282  13.882
22449SOL    HW169179   4.189   1.339  13.821
22449SOL    HW269180   4.250   1.201  13.834
22450SOL     OW69181   5.454   6.531   9.351
22450SOL    HW169182   5.492   6.534   9.438
22450SOL    HW269183   5.491   6.607   9.306
22451SOL     OW69184   2.020  12.180   5.877
22451SOL    HW169185   2.036  12.088   5.899
22451SOL    HW269186   1.938  12.179   5.827
22452SOL     OW69187  12.423   6.532  10.775
22452SOL    HW169188  12.454   6.512  10.687
22452SOL    HW269189  12.447   6.456  10.827
22453SOL     OW69190   8.267  12.633   4.212
22453SOL    HW169191   8.289  12.726   4.212
22453SOL    HW269192   8.189  12.627   4.157
22454SOL     OW69193   9.839   0.423   7.058
22454SOL    HW169194   9.752   0.459   7.037
22454SOL    HW269195   9.900   0.478   7.008
22455SOL     OW69196  14.753  10.934   8.916
22455SOL    HW169197  14.794  10.925   9.002
22455SOL    HW269198  14.813  10.890   8.856
22456SOL     OW69199  13.328  14.652   5.805
22456SOL    HW169200  13.295  14.657   5.895
22456SOL    HW269201  13.253  14.672   5.750
22457SOL     OW69202  13.753   6.268   7.429
22457SOL    HW169203  13.740   6.322   7.507
22457SOL    HW269204  13.800   6.325   7.368
22458SOL     OW69205   5.915   7.142   6.227
22458SOL    HW169206   5.842   7.124   6.167
22458SOL    HW269207   5.958   7.057   6.237
22459SOL     OW69208   1.895  10.750  13.973
22459SOL    HW169209   1.819  10.793  14.013
22459SOL    HW269210   1.878  10.756  13.878
22460SOL     OW69211  11.196   3.297   2.004
22460SOL    HW169212  11.281   3.341   1.997
22460SOL    HW269213  11.175   3.302   2.097
22461SOL     OW69214   8.092   1.061   7.129
22461SOL    HW169215   8.048   0.979   7.147
22461SOL    HW269216   8.143   1.079   7.209
22462SOL     OW69217   8.009   1.454   9.937
22462SOL    HW169218   8.101   1.429   9.932
22462SOL    HW269219   7.995   1.511   9.861
22463SOL     OW69220   1.603   5.196   3.000
22463SOL    HW169221   1.543   5.270   3.012
22463SOL    HW269222   1.682   5.235   2.963
22464SOL     OW69223  13.078  14.328  11.181
22464SOL    HW169224  13.138  14.393  11.216
22464SOL    HW269225  12.992  14.370  11.185
22465SOL     OW69226  12.558   5.894   6.417
22465SOL    HW169227  12.502   5.968   6.392
22465SOL    HW269228  12.513   5.856   6.493
22466SOL     OW69229   0.816   1.990   7.498
22466SOL    HW169230   0.741   2.045   7.472
22466SOL    HW269231   0.892   2.035   7.460
22467SOL     OW69232   0.163   6.998   1.259
22467SOL    HW169233   0.146   6.907   1.283
22467SOL    HW269234   0.185   6.994   1.166
22468SOL     OW69235   9.226  12.219   7.456
22468SOL    HW169236   9.204  12.229   7.548
22468SOL    HW269237   9.270  12.134   7.450
22469SOL     OW69238   9.627  12.741   8.674
22469SOL    HW169239   9.691  12.684   8.631
22469SOL    HW269240   9.547  12.690   8.677
22470SOL     OW69241   3.398   6.293  14.422
22470SOL    HW169242   3.357   6.247  14.348
22470SOL    HW269243   3.466   6.347  14.382
22471SOL     OW69244   5.102   6.594   5.628
22471SOL    HW169245   5.074   6.507   5.657
22471SOL    HW269246   5.025   6.629   5.582
22472SOL     OW69247  12.049  10.077   9.963
22472SOL    HW169248  12.134  10.071   9.920
22472SOL    HW269249  11.988  10.097   9.892
22473SOL     OW69250   8.967  11.479   9.714
22473SOL    HW169251   8.946  11.461   9.622
22473SOL    HW269252   8.883  11.472   9.759
22474SOL     OW69253   3.414  10.139   4.548
22474SOL    HW169254   3.475  10.199   4.505
22474SOL    HW269255   3.417  10.060   4.495
22475SOL     OW69256  11.119   9.772   5.041
22475SOL    HW169257  11.026   9.770   5.066
22475SOL    HW269258  11.121   9.826   4.962
22476SOL     OW69259   5.168  13.887   7.108
22476SOL    HW169260   5.245  13.840   7.142
22476SOL    HW269261   5.140  13.837   7.032
22477SOL     OW69262  12.394  11.776   6.821
22477SOL    HW169263  12.446  11.697   6.830
22477SOL    HW269264  12.305  11.745   6.803
22478SOL     OW69265   7.459   7.870   8.646
22478SOL    HW169266   7.399   7.876   8.721
22478SOL    HW269267   7.412   7.817   8.582
22479SOL     OW69268   8.738   7.940   1.234
22479SOL    HW169269   8.654   7.967   1.198
22479SOL    HW269270   8.737   7.971   1.324
22480SOL     OW69271  13.278   2.237   8.368
22480SOL    HW169272  13.255   2.286   8.288
22480SOL    HW269273  13.200   2.185   8.387
22481SOL     OW69274   3.635   5.808  13.637
22481SOL    HW169275   3.678   5.824  13.721
22481SOL    HW269276   3.707   5.787  13.577
22482SOL     OW69277  12.194   4.087  11.790
22482SOL    HW169278  12.227   4.001  11.764
22482SOL    HW269279  12.248   4.149  11.741
22483SOL     OW69280   7.671   1.793   3.426
22483SOL    HW169281   7.678   1.884   3.397
22483SOL    HW269282   7.680   1.741   3.346
22484SOL     OW69283  13.795   0.812   1.370
22484SOL    HW169284  13.784   0.726   1.412
22484SOL    HW269285  13.844   0.864   1.434
22485SOL     OW69286   6.951  10.091   2.730
22485SOL    HW169287   6.883  10.028   2.707
22485SOL    HW269288   6.903  10.173   2.744
22486SOL     OW69289   5.080   6.978  10.633
22486SOL    HW169290   5.058   6.900  10.682
22486SOL    HW269291   5.006   7.038  10.648
22487SOL     OW69292   4.765   9.409   6.844
22487SOL    HW169293   4.680   9.433   6.881
22487SOL    HW269294   4.814   9.491   6.842
22488SOL     OW69295  13.586  10.150   7.906
22488SOL    HW169296  13.564  10.061   7.880
22488SOL    HW269297  13.578  10.149   8.002
22489SOL     OW69298  14.385   3.600   1.442
22489SOL    HW169299  14.380   3.694   1.461
22489SOL    HW269300  14.375   3.594   1.347
22490SOL     OW69301   9.659   9.308  11.012
22490SOL    HW169302   9.750   9.279  11.003
22490SOL    HW269303   9.665   9.403  11.018
22491SOL     OW69304   5.590   4.739   9.410
22491SOL    HW169305   5.542   4.795   9.350
22491SOL    HW269306   5.528   4.670   9.434
22492SOL     OW69307   4.544  12.288   3.208
22492SOL    HW169308   4.521  12.295   3.301
22492SOL    HW269309   4.575  12.375   3.185
22493SOL     OW69310  11.870   1.442   9.074
22493SOL    HW169311  11.855   1.508   9.142
22493SOL    HW269312  11.965   1.443   9.060
22494SOL     OW69313  11.030   2.082   4.813
22494SOL    HW169314  11.052   2.163   4.768
22494SOL    HW269315  10.944   2.058   4.779
22495SOL     OW69316  11.080  13.658   8.568
22495SOL    HW169317  11.044  13.663   8.657
22495SOL    HW269318  11.127  13.741   8.557
22496SOL     OW69319   8.520   7.663   9.834
22496SOL    HW169320   8.430   7.662   9.804
22496SOL    HW269321   8.529   7.582   9.885
22497SOL     OW69322   5.679   2.904   4.604
22497SOL    HW169323   5.675   2.995   4.631
22497SOL    HW269324   5.591   2.870   4.619
22498SOL     OW69325   3.487   4.349  14.491
22498SOL    HW169326   3.577   4.338  14.458
22498SOL    HW269327   3.432   4.342  14.413
22499SOL     OW69328   7.762   1.505  11.292
22499SOL    HW169329   7.758   1.418  11.332
22499SOL    HW269330   7.676   1.543  11.309
22500SOL     OW69331  11.483   6.963   1.805
22500SOL    HW169332  11.474   6.872   1.779
22500SOL    HW269333  11.450   7.013   1.730
22501SOL     OW69334   0.018   3.603   0.459
22501SOL    HW169335   0.102   3.635   0.426
22501SOL    HW269336  14.824   3.649   0.406
22502SOL     OW69337   6.399   7.412   4.418
22502SOL    HW169338   6.389   7.484   4.355
22502SOL    HW269339   6.360   7.336   4.373
22503SOL     OW69340   1.361   5.389   3.080
22503SOL    HW169341   1.408   5.420   3.002
22503SOL    HW269342   1.313   5.466   3.111
22504SOL     OW69343   0.310   1.311   2.487
22504SOL    HW169344   0.244   1.377   2.508
22504SOL    HW269345   0.388   1.338   2.536
22505SOL     OW69346  11.304   0.418  13.922
22505SOL    HW169347  11.356   0.351  13.967
22505SOL    HW269348  11.369   0.480  13.890
22506SOL     OW69349   8.359   7.361   6.323
22506SOL    HW169350   8.376   7.453   6.342
22506SOL    HW269351   8.446   7.321   6.316
22507SOL     OW69352   4.563   4.786   7.437
22507SOL    HW169353   4.496   4.837   7.391
22507SOL    HW269354   4.593   4.844   7.507
22508SOL     OW69355   0.865   1.460   1.731
22508SOL    HW169356   0.960   1.476   1.731
22508SOL    HW269357   0.831   1.515   1.801
22509SOL     OW69358  10.513   3.790  14.453
22509SOL    HW169359  10.462   3.803  14.373
22509SOL    HW269360  10.580   3.726  14.428
22510SOL     OW69361  14.460   1.789   3.140
22510SOL    HW169362  14.487   1.789   3.232
22510SOL    HW269363  14.431   1.879   3.124
22511SOL     OW69364   2.148   6.629  14.774
22511SOL    HW169365   2.102   6.712  14.785
22511SOL    HW269366   2.127   6.602  14.684
22512SOL     OW69367  14.823   7.897   4.393
22512SOL    HW169368  14.762   7.951   4.344
22512SOL    HW269369   0.026   7.887   4.335
22513SOL     OW69370   7.700   9.442   0.497
22513SOL    HW169371   7.643   9.364   0.500
22513SOL    HW269372   7.744   9.436   0.412
22514SOL     OW69373  13.506  10.824   6.540
22514SOL    HW169374  13.581  10.842   6.482
22514SOL    HW269375  13.543  10.830   6.628
22515SOL     OW69376   4.016  12.667  13.306
22515SOL    HW169377   4.009  12.761  13.286
22515SOL    HW269378   4.088  12.636  13.251
22516SOL     OW69379   7.155   7.165   0.856
22516SOL    HW169380   7.176   7.135   0.945
22516SOL    HW269381   7.077   7.220   0.867
22517SOL     OW69382   6.172   4.449   9.237
22517SOL    HW169383   6.227   4.435   9.160
22517SOL    HW269384   6.090   4.485   9.202
22518SOL     OW69385  13.120  10.003   0.939
22518SOL    HW169386  13.134   9.973   0.849
22518SOL    HW269387  13.067   9.934   0.980
22519SOL     OW69388   0.426  12.242  10.728
22519SOL    HW169389   0.360  12.302  10.761
22519SOL    HW269390   0.508  12.271  10.769
22520SOL     OW69391   3.063   9.243  13.920
22520SOL    HW169392   3.003   9.303  13.877
22520SOL    HW269393   3.042   9.250  14.013
22521SOL     OW69394   3.583   0.395   6.789
22521SOL    HW169395   3.625   0.332   6.849
22521SOL    HW269396   3.547   0.340   6.719
22522SOL     OW69397   1.198   2.120   7.700
22522SOL    HW169398   1.279   2.162   7.728
22522SOL    HW269399   1.151   2.102   7.781
22523SOL     OW69400   5.718  11.741   7.503
22523SOL    HW169401   5.732  11.830   7.536
22523SOL    HW269402   5.722  11.686   7.581
22524SOL     OW69403  13.872   0.035  10.837
22524SOL    HW169404  13.777   0.033  10.824
22524SOL    HW269405  13.886   0.107  10.898
22525SOL     OW69406  13.142   4.978   5.092
22525SOL    HW169407  13.204   4.998   5.022
22525SOL    HW269408  13.196   4.947   5.164
22526SOL     OW69409   4.366  10.124  14.561
22526SOL    HW169410   4.427  10.064  14.517
22526SOL    HW269411   4.285  10.116  14.511
22527SOL     OW69412   6.696   4.853   9.366
22527SOL    HW169413   6.638   4.830   9.294
22527SOL    HW269414   6.641   4.904   9.426
22528SOL     OW69415  14.115   8.123   1.866
22528SOL    HW169416  14.207   8.140   1.883
22528SOL    HW269417  14.093   8.049   1.923
22529SOL     OW69418   3.311   2.315   8.341
22529SOL    HW169419   3.358   2.395   8.364
22529SOL    HW269420   3.239   2.310   8.404
22530SOL     OW69421  10.549   9.243   2.523
22530SOL    HW169422  10.557   9.209   2.434
22530SOL    HW269423  10.456   9.263   2.533
22531SOL     OW69424  11.223   2.239   0.139
22531SOL    HW169425  11.203   2.332   0.147
22531SOL    HW269426  11.319   2.236   0.132
22532SOL     OW69427   5.755   2.728  13.831
22532SOL    HW169428   5.813   2.740  13.756
22532SOL    HW269429   5.730   2.636  13.827
22533SOL     OW69430  13.723   1.243   5.610
22533SOL    HW169431  13.680   1.251   5.525
22533SOL    HW269432  13.698   1.321   5.659
22534SOL     OW69433   1.926   3.814  11.459
22534SOL    HW169434   1.873   3.737  11.439
22534SOL    HW269435   1.932   3.862  11.377
22535SOL     OW69436   4.119   9.395  10.709
22535SOL    HW169437   4.208   9.409  10.739
22535SOL    HW269438   4.102   9.302  10.724
22536SOL     OW69439   0.331   4.659  12.322
22536SOL    HW169440   0.302   4.631  12.235
22536SOL    HW269441   0.394   4.729  12.304
22537SOL     OW69442   5.113  12.825   1.813
22537SOL    HW169443   5.150  12.914   1.809
22537SOL    HW269444   5.033  12.835   1.864
22538SOL     OW69445  13.584   1.921   7.418
22538SOL    HW169446  13.506   1.876   7.451
22538SOL    HW269447  13.574   2.011   7.446
22539SOL     OW69448   9.347   7.859   5.230
22539SOL    HW169449   9.292   7.788   5.264
22539SOL    HW269450   9.348   7.924   5.300
22540SOL     OW69451   4.424  14.388   1.496
22540SOL    HW169452   4.423  14.351   1.584
22540SOL    HW269453   4.332  14.392   1.471
22541SOL     OW69454   1.560  11.672   4.036
22541SOL    HW169455   1.507  11.597   4.063
22541SOL    HW269456   1.528  11.693   3.949
22542SOL     OW69457   1.223   2.031   6.588
22542SOL    HW169458   1.295   1.968   6.581
22542SOL    HW269459   1.192   2.023   6.678
22543SOL     OW69460   1.988   5.524   5.839
22543SOL    HW169461   1.928   5.480   5.899
22543SOL    HW269462   2.071   5.477   5.848
22544SOL     OW69463   0.659  10.115   1.946
22544SOL    HW169464   0.690  10.186   2.002
22544SOL    HW269465   0.659  10.152   1.858
22545SOL     OW69466  12.602   3.978   0.123
22545SOL    HW169467  12.661   3.993   0.197
22545SOL    HW269468  12.539   4.049   0.128
22546SOL     OW69469   6.447   2.020  10.883
22546SOL    HW169470   6.373   2.023  10.942
22546SOL    HW269471   6.500   1.946  10.914
22547SOL     OW69472   4.911   1.941  11.166
22547SOL    HW169473   4.986   2.001  11.156
22547SOL    HW269474   4.877   1.931  11.077
22548SOL     OW69475  12.843   6.617  14.659
22548SOL    HW169476  12.821   6.625  14.567
22548SOL    HW269477  12.909   6.548  14.663
22549SOL     OW69478   7.393   2.305   8.339
22549SOL    HW169479   7.458   2.273   8.277
22549SOL    HW269480   7.329   2.234   8.344
22550SOL     OW69481   8.702   9.809   9.676
22550SOL    HW169482   8.680   9.720   9.704
22550SOL    HW269483   8.648   9.866   9.730
22551SOL     OW69484  11.726  13.443  12.786
22551SOL    HW169485  11.675  13.400  12.855
22551SOL    HW269486  11.805  13.389  12.778
22552SOL     OW69487  12.453   4.921   0.081
22552SOL    HW169488  12.381   4.984   0.078
22552SOL    HW269489  12.519   4.959   0.022
22553SOL     OW69490  11.496   8.383   7.380
22553SOL    HW169491  11.526   8.305   7.426
22553SOL    HW269492  11.448   8.349   7.304
22554SOL     OW69493   1.544   4.379  11.691
22554SOL    HW169494   1.459   4.372  11.647
22554SOL    HW269495   1.571   4.470  11.676
22555SOL     OW69496   1.538   2.628  14.786
22555SOL    HW169497   1.487   2.707  14.770
22555SOL    HW269498   1.498   2.588  14.863
22556SOL     OW69499   3.530   3.853  14.384
22556SOL    HW169500   3.617   3.869  14.348
22556SOL    HW269501   3.532   3.761  14.411
22557SOL     OW69502   1.873   7.954  12.421
22557SOL    HW169503   1.811   7.906  12.365
22557SOL    HW269504   1.924   7.885  12.464
22558SOL     OW69505   2.993  10.235   4.496
22558SOL    HW169506   2.909  10.225   4.541
22558SOL    HW269507   3.012  10.147   4.463
22559SOL     OW69508   7.618   9.480  12.315
22559SOL    HW169509   7.618   9.540  12.390
22559SOL    HW269510   7.537   9.501  12.268
22560SOL     OW69511   2.459  13.240   2.246
22560SOL    HW169512   2.418  13.322   2.218
22560SOL    HW269513   2.496  13.259   2.332
22561SOL     OW69514   8.545  10.526   4.091
22561SOL    HW169515   8.520  10.547   4.001
22561SOL    HW269516   8.638  10.548   4.096
22562SOL     OW69517   1.933   1.401   6.701
22562SOL    HW169518   1.850   1.405   6.749
22562SOL    HW269519   1.966   1.491   6.704
22563SOL     OW69520   4.095   1.298   1.620
22563SOL    HW169521   4.128   1.302   1.710
22563SOL    HW269522   4.169   1.328   1.567
22564SOL     OW69523   7.793  12.737  10.095
22564SOL    HW169524   7.723  12.752  10.031
22564SOL    HW269525   7.773  12.651  10.132
22565SOL     OW69526   8.324   3.403  11.816
22565SOL    HW169527   8.247   3.357  11.784
22565SOL    HW269528   8.307   3.416  11.909
22566SOL     OW69529   6.089  14.642   9.956
22566SOL    HW169530   6.048  14.589  10.024
22566SOL    HW269531   6.122  14.719  10.003
22567SOL     OW69532   2.669   3.537  11.092
22567SOL    HW169533   2.758   3.558  11.062
22567SOL    HW269534   2.622   3.620  11.086
22568SOL     OW69535   5.853   2.577  10.319
22568SOL    HW169536   5.854   2.661  10.272
22568SOL    HW269537   5.929   2.530  10.285
22569SOL     OW69538  11.215   8.303   6.567
22569SOL    HW169539  11.253   8.383   6.602
22569SOL    HW269540  11.121   8.317   6.574
22570SOL     OW69541  14.161   3.317   8.257
22570SOL    HW169542  14.080   3.352   8.221
22570SOL    HW269543  14.134   3.241   8.308
22571SOL     OW69544  11.950   7.689   9.210
22571SOL    HW169545  11.864   7.646   9.217
22571SOL    HW269546  12.013   7.618   9.222
22572SOL     OW69547  10.464   9.766  10.083
22572SOL    HW169548  10.515   9.787  10.162
22572SOL    HW269549  10.443   9.673  10.093
22573SOL     OW69550   6.760   9.561  14.053
22573SOL    HW169551   6.840   9.534  14.098
22573SOL    HW269552   6.719   9.623  14.113
22574SOL     OW69553   7.486   2.744  10.622
22574SOL    HW169554   7.418   2.681  10.648
22574SOL    HW269555   7.452   2.783  10.541
22575SOL     OW69556   8.929   9.956   3.071
22575SOL    HW169557   8.939   9.908   3.154
22575SOL    HW269558   9.017   9.986   3.050
22576SOL     OW69559   3.889   1.040  10.010
22576SOL    HW169560   3.874   0.977   9.940
22576SOL    HW269561   3.938   1.111   9.968
22577SOL     OW69562   7.785  11.367  14.663
22577SOL    HW169563   7.857  11.381  14.724
22577SOL    HW269564   7.712  11.419  14.699
22578SOL     OW69565  12.117   0.149  14.353
22578SOL    HW169566  12.028   0.184  14.362
22578SOL    HW269567  12.115   0.098  14.272
22579SOL     OW69568  13.687   1.798   6.168
22579SOL    HW169569  13.666   1.717   6.215
22579SOL    HW269570  13.653   1.783   6.079
22580SOL     OW69571   1.079   5.539   2.757
22580SOL    HW169572   1.036   5.534   2.672
22580SOL    HW269573   1.024   5.487   2.816
22581SOL     OW69574  11.106  11.174  11.356
22581SOL    HW169575  11.049  11.100  11.338
22581SOL    HW269576  11.158  11.184  11.277
22582SOL     OW69577   1.032   9.450   3.645
22582SOL    HW169578   1.087   9.372   3.647
22582SOL    HW269579   1.016   9.466   3.552
22583SOL     OW69580   2.070   0.678   7.129
22583SOL    HW169581   2.147   0.731   7.151
22583SOL    HW269582   2.018   0.734   7.071
22584SOL     OW69583   1.829   1.133   6.418
22584SOL    HW169584   1.903   1.156   6.363
22584SOL    HW269585   1.779   1.215   6.427
22585SOL     OW69586   4.694  10.266  13.132
22585SOL    HW169587   4.746  10.259  13.052
22585SOL    HW269588   4.614  10.310  13.106
22586SOL     OW69589  14.311   7.566   0.553
22586SOL    HW169590  14.338   7.651   0.519
22586SOL    HW269591  14.243   7.585   0.618
22587SOL     OW69592  12.875   5.795   5.737
22587SOL    HW169593  12.904   5.846   5.661
22587SOL    HW269594  12.888   5.704   5.711
22588SOL     OW69595   8.471   5.706   4.377
22588SOL    HW169596   8.500   5.784   4.425
22588SOL    HW269597   8.425   5.741   4.301
22589SOL     OW69598   8.994   6.331   5.567
22589SOL    HW169599   8.964   6.267   5.503
22589SOL    HW269600   9.041   6.280   5.633
22590SOL     OW69601   8.128   8.569  11.793
22590SOL    HW169602   8.097   8.580  11.882
22590SOL    HW269603   8.130   8.474  11.779
22591SOL     OW69604   4.935   4.175  13.287
22591SOL    HW169605   4.904   4.085  13.279
22591SOL    HW269606   4.888   4.224  13.219
22592SOL     OW69607   8.943   5.733  11.579
22592SOL    HW169608   8.952   5.828  11.578
22592SOL    HW269609   8.978   5.705  11.494
22593SOL     OW69610  10.401   8.973   1.144
22593SOL    HW169611  10.402   8.964   1.049
22593SOL    HW269612  10.467   9.040   1.162
22594SOL     OW69613   3.940   0.420   4.988
22594SOL    HW169614   3.947   0.325   4.990
22594SOL    HW269615   4.029   0.451   4.973
22595SOL     OW69616  12.795   8.054   7.084
22595SOL    HW169617  12.871   8.111   7.071
22595SOL    HW269618  12.805   7.985   7.019
22596SOL     OW69619   2.576   5.103  10.122
22596SOL    HW169620   2.610   5.041  10.186
22596SOL    HW269621   2.514   5.157  10.170
22597SOL     OW69622  14.456   0.332  14.833
22597SOL    HW169623  14.530   0.302   0.013
22597SOL    HW269624  14.425   0.410   0.006
22598SOL     OW69625   6.202   6.421   3.603
22598SOL    HW169626   6.169   6.487   3.665
22598SOL    HW269627   6.296   6.419   3.619
22599SOL     OW69628   7.064   1.168   2.102
22599SOL    HW169629   7.067   1.072   2.107
22599SOL    HW269630   6.985   1.192   2.149
22600SOL     OW69631   2.257   4.006   6.401
22600SOL    HW169632   2.350   3.990   6.417
22600SOL    HW269633   2.226   4.049   6.480
22601SOL     OW69634  10.533   0.244   2.075
22601SOL    HW169635  10.455   0.284   2.037
22601SOL    HW269636  10.605   0.301   2.047
22602SOL     OW69637   2.657  11.285  13.949
22602SOL    HW169638   2.701  11.365  13.921
22602SOL    HW269639   2.669  11.224  13.877
22603SOL     OW69640   7.381   2.760  11.215
22603SOL    HW169641   7.365   2.774  11.308
22603SOL    HW269642   7.306   2.800  11.171
22604SOL     OW69643   2.308  14.678  13.577
22604SOL    HW169644   2.381  14.630  13.537
22604SOL    HW269645   2.277  14.736  13.508
22605SOL     OW69646   5.669  11.868  11.421
22605SOL    HW169647   5.723  11.789  11.424
22605SOL    HW269648   5.713  11.924  11.357
22606SOL     OW69649   7.896   1.822  13.101
22606SOL    HW169650   7.855   1.753  13.153
22606SOL    HW269651   7.878   1.798  13.010
22607SOL     OW69652   2.215   3.017   4.779
22607SOL    HW169653   2.201   3.110   4.758
22607SOL    HW269654   2.192   3.010   4.871
22608SOL     OW69655  13.061   6.971   9.769
22608SOL    HW169656  13.032   6.887   9.804
22608SOL    HW269657  13.111   6.948   9.691
22609SOL     OW69658  12.049  10.818  11.154
22609SOL    HW169659  12.084  10.907  11.154
22609SOL    HW269660  12.009  10.808  11.068
22610SOL     OW69661   9.755   0.030   1.442
22610SOL    HW169662   9.757  14.814   1.407
22610SOL    HW269663   9.662   0.054   1.444
22611SOL     OW69664   2.901  10.292   9.735
22611SOL    HW169665   2.958  10.297   9.812
22611SOL    HW269666   2.825  10.243   9.765
22612SOL     OW69667   0.752  14.615   3.085
22612SOL    HW169668   0.719  14.658   3.006
22612SOL    HW269669   0.842  14.648   3.094
22613SOL     OW69670   2.266  10.206  11.568
22613SOL    HW169671   2.355  10.195  11.536
22613SOL    HW269672   2.273  10.199  11.664
22614SOL     OW69673  11.089  13.469   1.205
22614SOL    HW169674  11.041  13.536   1.253
22614SOL    HW269675  11.113  13.405   1.273
22615SOL     OW69676  12.788  14.338   1.323
22615SOL    HW169677  12.728  14.396   1.275
22615SOL    HW269678  12.869  14.340   1.272
22616SOL     OW69679  14.339   9.302  14.350
22616SOL    HW169680  14.392   9.239  14.398
22616SOL    HW269681  14.295   9.353  14.419
22617SOL     OW69682   0.335   8.992   6.093
22617SOL    HW169683   0.291   8.918   6.135
22617SOL    HW269684   0.270   9.027   6.032
22618SOL     OW69685   5.021  14.375   1.681
22618SOL    HW169686   5.005  14.281   1.688
22618SOL    HW269687   4.950  14.407   1.624
22619SOL     OW69688   2.383   1.674   2.057
22619SOL    HW169689   2.423   1.622   1.988
22619SOL    HW269690   2.363   1.758   2.016
22620SOL     OW69691   4.929   0.259   8.910
22620SOL    HW169692   5.003   0.313   8.936
22620SOL    HW269693   4.967   0.173   8.891
22621SOL     OW69694   9.685   2.023   4.961
22621SOL    HW169695   9.694   2.011   5.055
22621SOL    HW269696   9.606   1.975   4.938
22622SOL     OW69697   0.167   7.116   6.381
22622SOL    HW169698   0.221   7.043   6.351
22622SOL    HW269699   0.085   7.107   6.332
22623SOL     OW69700  12.917  12.227  10.788
22623SOL    HW169701  12.967  12.213  10.707
22623SOL    HW269702  12.976  12.277  10.844
22624SOL     OW69703   2.106   4.778  12.996
22624SOL    HW169704   2.031   4.836  12.983
22624SOL    HW269705   2.086   4.701  12.944
22625SOL     OW69706  13.907   3.760   0.626
22625SOL    HW169707  13.995   3.758   0.588
22625SOL    HW269708  13.913   3.706   0.705
22626SOL     OW69709   7.371   3.203   8.614
22626SOL    HW169710   7.453   3.246   8.635
22626SOL    HW269711   7.346   3.239   8.529
22627SOL     OW69712   2.470  11.708   2.806
22627SOL    HW169713   2.502  11.628   2.763
22627SOL    HW269714   2.384  11.684   2.839
22628SOL     OW69715   3.729   3.738  13.957
22628SOL    HW169716   3.823   3.728  13.972
22628SOL    HW269717   3.714   3.832  13.959
22629SOL     OW69718  13.034   3.286  12.530
22629SOL    HW169719  13.102   3.308  12.466
22629SOL    HW269720  13.078   3.229  12.593
22630SOL     OW69721  14.456  13.397  14.109
22630SOL    HW169722  14.551  13.405  14.100
22630SOL    HW269723  14.440  13.408  14.203
22631SOL     OW69724   5.755   3.634   2.379
22631SOL    HW169725   5.714   3.668   2.459
22631SOL    HW269726   5.815   3.703   2.352
22632SOL     OW69727   8.499   8.328  10.745
22632SOL    HW169728   8.455   8.353  10.664
22632SOL    HW269729   8.487   8.233  10.750
22633SOL     OW69730  11.723   4.566   0.889
22633SOL    HW169731  11.629   4.577   0.898
22633SOL    HW269732  11.755   4.553   0.978
22634SOL     OW69733   1.682  10.174   0.534
22634SOL    HW169734   1.638  10.259   0.537
22634SOL    HW269735   1.662  10.134   0.619
22635SOL     OW69736   6.047   1.558  11.837
22635SOL    HW169737   6.103   1.614  11.784
22635SOL    HW269738   5.992   1.512  11.774
22636SOL     OW69739  12.271   4.080  12.298
22636SOL    HW169740  12.181   4.090  12.330
22636SOL    HW269741  12.320   4.055  12.376
22637SOL     OW69742  11.776   3.195   0.507
22637SOL    HW169743  11.863   3.169   0.479
22637SOL    HW269744  11.789   3.237   0.592
22638SOL     OW69745   0.330  13.543  12.777
22638SOL    HW169746   0.412  13.504  12.747
22638SOL    HW269747   0.345  13.560  12.870
22639SOL     OW69748   2.176   7.979   8.407
22639SOL    HW169749   2.150   7.919   8.477
22639SOL    HW269750   2.104   8.042   8.401
22640SOL     OW69751   1.962   0.835   4.017
22640SOL    HW169752   2.052   0.803   4.013
22640SOL    HW269753   1.916   0.786   3.948
22641SOL     OW69754  10.142   4.245  10.491
22641SOL    HW169755  10.187   4.329  10.479
22641SOL    HW269756  10.156   4.199  10.408
22642SOL     OW69757   6.063   5.131   5.744
22642SOL    HW169758   6.091   5.041   5.762
22642SOL    HW269759   5.993   5.148   5.807
22643SOL     OW69760   6.709   7.662   9.032
22643SOL    HW169761   6.767   7.677   9.107
22643SOL    HW269762   6.654   7.588   9.057
22644SOL     OW69763  14.224   8.175   4.902
22644SOL    HW169764  14.240   8.081   4.894
22644SOL    HW269765  14.270   8.200   4.982
22645SOL     OW69766   7.230   9.514   7.304
22645SOL    HW169767   7.279   9.583   7.349
22645SOL    HW269768   7.257   9.433   7.348
22646SOL     OW69769   8.933  12.329  13.560
22646SOL    HW169770   8.850  12.361  13.597
22646SOL    HW269771   8.978  12.407  13.530
22647SOL     OW69772  10.177   3.426   0.640
22647SOL    HW169773  10.184   3.338   0.678
22647SOL    HW269774  10.238   3.479   0.692
22648SOL     OW69775   0.191  11.931   9.533
22648SOL    HW169776   0.284  11.954   9.540
22648SOL    HW269777   0.149  12.011   9.502
22649SOL     OW69778   1.603  12.028   2.370
22649SOL    HW169779   1.519  12.041   2.415
22649SOL    HW269780   1.614  11.933   2.368
22650SOL     OW69781   6.457   7.519  13.581
22650SOL    HW169782   6.362   7.517  13.586
22650SOL    HW269783   6.479   7.468  13.503
22651SOL     OW69784   7.247  11.760   4.299
22651SOL    HW169785   7.322  11.781   4.355
22651SOL    HW269786   7.286  11.728   4.217
22652SOL     OW69787   6.622   0.763   2.236
22652SOL    HW169788   6.631   0.730   2.325
22652SOL    HW269789   6.610   0.858   2.246
22653SOL     OW69790   5.669  13.498   0.565
22653SOL    HW169791   5.580  13.467   0.576
22653SOL    HW269792   5.660  13.586   0.528
22654SOL     OW69793   5.839  13.240   2.259
22654SOL    HW169794   5.809  13.182   2.329
22654SOL    HW269795   5.878  13.182   2.194
22655SOL     OW69796  11.091  14.399  10.431
22655SOL    HW169797  11.070  14.492  10.435
22655SOL    HW269798  11.006  14.355  10.424
22656SOL     OW69799  13.260   6.298  13.193
22656SOL    HW169800  13.198   6.252  13.250
22656SOL    HW269801  13.346   6.269  13.222
22657SOL     OW69802   7.211   8.240   4.036
22657SOL    HW169803   7.285   8.248   3.976
22657SOL    HW269804   7.229   8.303   4.105
22658SOL     OW69805   6.511   8.556   1.437
22658SOL    HW169806   6.429   8.605   1.441
22658SOL    HW269807   6.495   8.478   1.491
22659SOL     OW69808  13.569  14.030  13.169
22659SOL    HW169809  13.563  14.018  13.074
22659SOL    HW269810  13.662  14.024  13.189
22660SOL     OW69811  12.815  12.702   6.603
22660SOL    HW169812  12.750  12.635   6.581
22660SOL    HW269813  12.886  12.654   6.645
22661SOL     OW69814  10.195   6.364  14.677
22661SOL    HW169815  10.276   6.387  14.630
22661SOL    HW269816  10.190   6.269  14.671
22662SOL     OW69817  11.463  12.988   7.809
22662SOL    HW169818  11.537  12.949   7.857
22662SOL    HW269819  11.415  12.914   7.773
22663SOL     OW69820  12.595   6.461   4.698
22663SOL    HW169821  12.578   6.443   4.790
22663SOL    HW269822  12.690   6.456   4.689
22664SOL     OW69823   8.589   5.322  13.857
22664SOL    HW169824   8.599   5.414  13.835
22664SOL    HW269825   8.503   5.317  13.900
22665SOL     OW69826  12.335  10.823   0.081
22665SOL    HW169827  12.292  10.902   0.048
22665SOL    HW269828  12.428  10.847   0.085
22666SOL     OW69829  12.962   1.120   7.764
22666SOL    HW169830  12.983   1.053   7.699
22666SOL    HW269831  12.880   1.090   7.803
22667SOL     OW69832   0.526   8.412   5.430
22667SOL    HW169833   0.440   8.395   5.469
22667SOL    HW269834   0.588   8.399   5.502
22668SOL     OW69835   2.589   7.219   5.600
22668SOL    HW169836   2.599   7.286   5.533
22668SOL    HW269837   2.536   7.260   5.668
22669SOL     OW69838  14.578   0.031  14.754
22669SOL    HW169839  14.557   0.124  14.749
22669SOL    HW269840  14.494  14.858  14.749
22670SOL     OW69841   7.410   6.718  14.206
22670SOL    HW169842   7.469   6.700  14.278
22670SOL    HW269843   7.379   6.807  14.221
22671SOL     OW69844   7.884   9.578  11.102
22671SOL    HW169845   7.870   9.664  11.062
22671SOL    HW269846   7.866   9.591  11.195
22672SOL     OW69847   0.913   2.196   2.272
22672SOL    HW169848   0.937   2.155   2.354
22672SOL    HW269849   0.829   2.157   2.248
22673SOL     OW69850  13.714   3.159   8.189
22673SOL    HW169851  13.630   3.117   8.169
22673SOL    HW269852  13.690   3.243   8.227
22674SOL     OW69853   6.293   9.960   6.254
22674SOL    HW169854   6.318   9.910   6.176
22674SOL    HW269855   6.267   9.894   6.318
22675SOL     OW69856  10.589   8.243  10.711
22675SOL    HW169857  10.523   8.191  10.664
22675SOL    HW269858  10.556   8.333  10.707
22676SOL     OW69859  11.672   4.933   4.088
22676SOL    HW169860  11.720   4.913   4.168
22676SOL    HW269861  11.679   4.853   4.035
22677SOL     OW69862   6.141   7.963  13.544
22677SOL    HW169863   6.231   7.991  13.556
22677SOL    HW269864   6.145   7.897  13.474
22678SOL     OW69865   9.684   7.679  11.230
22678SOL    HW169866   9.638   7.654  11.150
22678SOL    HW269867   9.776   7.656  11.213
22679SOL     OW69868   9.261  12.419  12.791
22679SOL    HW169869   9.262  12.462  12.877
22679SOL    HW269870   9.170  12.396  12.777
22680SOL     OW69871   4.565   2.997   6.493
22680SOL    HW169872   4.637   3.024   6.549
22680SOL    HW269873   4.490   2.990   6.552
22681SOL     OW69874  13.771  12.792   3.794
22681SOL    HW169875  13.849  12.815   3.744
22681SOL    HW269876  13.759  12.699   3.777
22682SOL     OW69877   2.431   5.661   5.103
22682SOL    HW169878   2.443   5.710   5.021
22682SOL    HW269879   2.384   5.582   5.078
22683SOL     OW69880   1.792   9.137   1.939
22683SOL    HW169881   1.714   9.171   1.894
22683SOL    HW269882   1.861   9.139   1.873
22684SOL     OW69883  12.651  12.389  13.405
22684SOL    HW169884  12.681  12.433  13.485
22684SOL    HW269885  12.667  12.454  13.336
22685SOL     OW69886   5.963   1.545   8.901
22685SOL    HW169887   5.962   1.626   8.851
22685SOL    HW269888   5.967   1.573   8.993
22686SOL     OW69889   8.865   2.502   5.312
22686SOL    HW169890   8.955   2.475   5.328
22686SOL    HW269891   8.862   2.524   5.219
22687SOL     OW69892  11.309   7.017  13.173
22687SOL    HW169893  11.215   7.020  13.190
22687SOL    HW269894  11.332   7.107  13.149
22688SOL     OW69895   1.069   3.174   4.333
22688SOL    HW169896   1.101   3.113   4.267
22688SOL    HW269897   0.998   3.221   4.290
22689SOL     OW69898  12.458   5.939   2.334
22689SOL    HW169899  12.526   5.952   2.268
22689SOL    HW269900  12.442   5.845   2.333
22690SOL     OW69901   7.214   8.478   4.775
22690SOL    HW169902   7.136   8.422   4.774
22690SOL    HW269903   7.287   8.416   4.777
22691SOL     OW69904   9.827   3.594   9.577
22691SOL    HW169905   9.793   3.546   9.502
22691SOL    HW269906   9.913   3.554   9.595
22692SOL     OW69907   6.339   7.761   3.640
22692SOL    HW169908   6.277   7.718   3.580
22692SOL    HW269909   6.296   7.757   3.725
22693SOL     OW69910  11.692   2.632  10.691
22693SOL    HW169911  11.748   2.586  10.629
22693SOL    HW269912  11.665   2.711  10.645
22694SOL     OW69913   0.071   2.391   3.699
22694SOL    HW169914   0.008   2.431   3.758
22694SOL    HW269915   0.125   2.464   3.668
22695SOL     OW69916   7.145   4.724  13.169
22695SOL    HW169917   7.194   4.726  13.251
22695SOL    HW269918   7.077   4.658  13.183
22696SOL     OW69919   8.322   5.214   3.991
22696SOL    HW169920   8.245   5.263   4.017
22696SOL    HW269921   8.340   5.156   4.066
22697SOL     OW69922   1.717  13.879  14.047
22697SOL    HW169923   1.641  13.930  14.020
22697SOL    HW269924   1.755  13.929  14.120
22698SOL     OW69925   4.771   1.531   5.757
22698SOL    HW169926   4.729   1.498   5.678
22698SOL    HW269927   4.766   1.459   5.819
22699SOL     OW69928  12.830   2.907  14.852
22699SOL    HW169929  12.801   2.997  14.842
22699SOL    HW269930  12.830   2.871  14.764
22700SOL     OW69931  10.829   9.250   2.570
22700SOL    HW169932  10.894   9.180   2.574
22700SOL    HW269933  10.747   9.206   2.546
22701SOL     OW69934   4.685  11.493  10.045
22701SOL    HW169935   4.654  11.528   9.962
22701SOL    HW269936   4.618  11.521  10.109
22702SOL     OW69937  12.482  13.466   3.692
22702SOL    HW169938  12.456  13.376   3.713
22702SOL    HW269939  12.505  13.504   3.777
22703SOL     OW69940   8.215   2.757  10.019
22703SOL    HW169941   8.243   2.696   9.951
22703SOL    HW269942   8.285   2.754  10.084
22704SOL     OW69943   6.697  14.196   4.100
22704SOL    HW169944   6.641  14.245   4.040
22704SOL    HW269945   6.783  14.196   4.058
22705SOL     OW69946   3.796   5.459  12.944
22705SOL    HW169947   3.800   5.550  12.974
22705SOL    HW269948   3.883   5.424  12.962
22706SOL     OW69949  13.758   5.135   3.764
22706SOL    HW169950  13.736   5.049   3.800
22706SOL    HW269951  13.852   5.131   3.749
22707SOL     OW69952  11.233  11.015   3.629
22707SOL    HW169953  11.145  11.021   3.591
22707SOL    HW269954  11.246  10.921   3.642
22708SOL     OW69955   5.963  14.213  10.342
22708SOL    HW169956   5.913  14.294  10.347
22708SOL    HW269957   5.957  14.176  10.430
22709SOL     OW69958   1.498   4.896  14.274
22709SOL    HW169959   1.497   4.837  14.349
22709SOL    HW269960   1.426   4.867  14.219
22710SOL     OW69961  13.068   4.468  13.492
22710SOL    HW169962  13.080   4.485  13.398
22710SOL    HW269963  12.996   4.525  13.518
22711SOL     OW69964  14.154   2.624   7.175
22711SOL    HW169965  14.096   2.617   7.100
22711SOL    HW269966  14.155   2.717   7.196
22712SOL     OW69967   1.441  13.510  10.551
22712SOL    HW169968   1.345  13.504  10.545
22712SOL    HW269969   1.456  13.570  10.624
22713SOL     OW69970   5.707   1.845   9.644
22713SOL    HW169971   5.738   1.898   9.717
22713SOL    HW269972   5.710   1.755   9.676
22714SOL     OW69973   2.635   2.718   4.705
22714SOL    HW169974   2.636   2.728   4.610
22714SOL    HW269975   2.657   2.805   4.738
22715SOL     OW69976  12.306  10.671  14.093
22715SOL    HW169977  12.316  10.766  14.097
22715SOL    HW269978  12.218  10.657  14.058
22716SOL     OW69979   0.194   4.185  14.398
22716SOL    HW169980   0.104   4.218  14.388
22716SOL    HW269981   0.239   4.214  14.319
22717SOL     OW69982   2.825   9.509   9.664
22717SOL    HW169983   2.734   9.481   9.674
22717SOL    HW269984   2.866   9.440   9.612
22718SOL     OW69985   5.598  14.683   0.046
22718SOL    HW169986   5.535  14.744   0.007
22718SOL    HW269987   5.564  14.666   0.134
22719SOL     OW69988   2.401   6.960  12.681
22719SOL    HW169989   2.473   6.918  12.634
22719SOL    HW269990   2.437   7.045  12.709
22720SOL     OW69991  12.361   3.004   8.649
22720SOL    HW169992  12.402   2.976   8.731
22720SOL    HW269993  12.272   3.027   8.673
22721SOL     OW69994   5.963   8.940   7.617
22721SOL    HW169995   5.932   9.015   7.567
22721SOL    HW269996   5.884   8.889   7.635
22722SOL     OW69997  13.593  13.719  12.921
22722SOL    HW169998  13.611  13.808  12.952
22722SOL    HW269999  13.509  13.697  12.961
22723SOL     OW70000   3.077  12.355  11.495
22723SOL    HW170001   3.123  12.403  11.425
22723SOL    HW270002   3.029  12.286  11.449
22724SOL     OW70003   1.610   1.767  13.110
22724SOL    HW170004   1.581   1.814  13.031
22724SOL    HW270005   1.554   1.690  13.114
22725SOL     OW70006   3.114  14.152   1.327
22725SOL    HW170007   3.041  14.091   1.340
22725SOL    HW270008   3.095  14.194   1.243
22726SOL     OW70009   2.802   4.929  11.483
22726SOL    HW170010   2.785   5.018  11.450
22726SOL    HW270011   2.786   4.936  11.577
22727SOL     OW70012   7.921  11.211  12.005
22727SOL    HW170013   7.986  11.158  11.960
22727SOL    HW270014   7.846  11.153  12.017
22728SOL     OW70015  10.935  11.513   9.168
22728SOL    HW170016  10.880  11.535   9.243
22728SOL    HW270017  11.002  11.582   9.166
22729SOL     OW70018   7.245   1.261   0.255
22729SOL    HW170019   7.321   1.204   0.246
22729SOL    HW270020   7.174   1.215   0.211
22730SOL     OW70021   2.460   7.931   7.787
22730SOL    HW170022   2.495   8.015   7.818
22730SOL    HW270023   2.385   7.955   7.733
22731SOL     OW70024  13.552   8.204   6.584
22731SOL    HW170025  13.488   8.132   6.589
22731SOL    HW270026  13.635   8.160   6.568
22732SOL     OW70027   3.789   4.765   1.001
22732SOL    HW170028   3.703   4.723   1.005
22732SOL    HW270029   3.783   4.838   1.062
22733SOL     OW70030  13.706   7.524   0.678
22733SOL    HW170031  13.728   7.466   0.751
22733SOL    HW270032  13.750   7.607   0.700
22734SOL     OW70033   0.784   6.966   6.982
22734SOL    HW170034   0.716   6.914   7.025
22734SOL    HW270035   0.826   7.014   7.054
22735SOL     OW70036  10.493   8.519   7.461
22735SOL    HW170037  10.547   8.506   7.383
22735SOL    HW270038  10.484   8.614   7.468
22736SOL     OW70039  12.860   6.978  11.688
22736SOL    HW170040  12.800   7.049  11.664
22736SOL    HW270041  12.935   7.023  11.728
22737SOL     OW70042   1.281   9.422   7.152
22737SOL    HW170043   1.239   9.408   7.237
22737SOL    HW270044   1.348   9.488   7.169
22738SOL     OW70045  11.159   0.951   4.504
22738SOL    HW170046  11.235   0.893   4.501
22738SOL    HW270047  11.189   1.032   4.464
22739SOL     OW70048   9.238   0.358   5.870
22739SOL    HW170049   9.324   0.352   5.911
22739SOL    HW270050   9.228   0.452   5.851
22740SOL     OW70051   0.379   4.714   4.743
22740SOL    HW170052   0.322   4.736   4.817
22740SOL    HW270053   0.388   4.619   4.747
22741SOL     OW70054   9.539   7.769  10.549
22741SOL    HW170055   9.577   7.856  10.565
22741SOL    HW270056   9.562   7.748  10.459
22742SOL     OW70057   7.458   6.941   8.498
22742SOL    HW170058   7.486   7.027   8.468
22742SOL    HW270059   7.469   6.943   8.593
22743SOL     OW70060   7.723   0.000  11.728
22743SOL    HW170061   7.796  14.838  11.677
22743SOL    HW270062   7.645  14.831  11.689
22744SOL     OW70063   4.152  11.260   5.348
22744SOL    HW170064   4.205  11.183   5.367
22744SOL    HW270065   4.062  11.228   5.344
22745SOL     OW70066   2.644  13.887   7.472
22745SOL    HW170067   2.718  13.889   7.411
22745SOL    HW270068   2.643  13.798   7.506
22746SOL     OW70069  11.929   6.028   9.052
22746SOL    HW170070  11.865   6.058   9.117
22746SOL    HW270071  11.928   5.933   9.060
22747SOL     OW70072   3.042   7.617  10.663
22747SOL    HW170073   3.029   7.599  10.756
22747SOL    HW270074   3.101   7.692  10.662
22748SOL     OW70075   3.720   4.130  11.918
22748SOL    HW170076   3.665   4.106  11.843
22748SOL    HW270077   3.660   4.130  11.993
22749SOL     OW70078   3.185   0.748  13.389
22749SOL    HW170079   3.121   0.760  13.459
22749SOL    HW270080   3.150   0.801  13.317
22750SOL     OW70081   1.239   3.089   3.257
22750SOL    HW170082   1.330   3.059   3.255
22750SOL    HW270083   1.244   3.178   3.292
22751SOL     OW70084  13.560   7.989   0.665
22751SOL    HW170085  13.616   8.000   0.742
22751SOL    HW270086  13.616   8.015   0.591
22752SOL     OW70087   1.239   7.339   3.982
22752SOL    HW170088   1.330   7.370   3.985
22752SOL    HW270089   1.247   7.247   3.958
22753SOL     OW70090  14.583  14.020  10.901
22753SOL    HW170091  14.568  14.013  10.807
22753SOL    HW270092  14.601  14.113  10.915
22754SOL     OW70093  13.141   1.748  10.250
22754SOL    HW170094  13.072   1.781  10.193
22754SOL    HW270095  13.222   1.771  10.205
22755SOL     OW70096  10.859   9.649   1.758
22755SOL    HW170097  10.828   9.721   1.813
22755SOL    HW270098  10.908   9.692   1.688
22756SOL     OW70099   9.315   1.140   5.417
22756SOL    HW170100   9.248   1.130   5.349
22756SOL    HW270101   9.398   1.138   5.368
22757SOL     OW70102  11.675   6.617   9.575
22757SOL    HW170103  11.637   6.670   9.504
22757SOL    HW270104  11.654   6.527   9.550
22758SOL     OW70105   6.806   5.127   9.009
22758SOL    HW170106   6.724   5.127   9.058
22758SOL    HW270107   6.871   5.094   9.071
22759SOL     OW70108   4.039   5.488   8.913
22759SOL    HW170109   4.020   5.531   8.996
22759SOL    HW270110   4.114   5.432   8.931
22760SOL     OW70111  11.778   9.951   5.175
22760SOL    HW170112  11.702  10.003   5.204
22760SOL    HW270113  11.827   9.935   5.256
22761SOL     OW70114   1.204   0.564   2.088
22761SOL    HW170115   1.187   0.620   2.163
22761SOL    HW270116   1.117   0.540   2.056
22762SOL     OW70117   3.074  12.918  13.002
22762SOL    HW170118   3.106  12.980  13.067
22762SOL    HW270119   2.983  12.902  13.027
22763SOL     OW70120  10.672  11.063  10.399
22763SOL    HW170121  10.722  10.991  10.363
22763SOL    HW270122  10.676  11.132  10.332
22764SOL     OW70123   1.700  13.314   2.914
22764SOL    HW170124   1.673  13.321   3.005
22764SOL    HW270125   1.791  13.285   2.918
22765SOL     OW70126   9.179  13.646  10.376
22765SOL    HW170127   9.242  13.575  10.389
22765SOL    HW270128   9.113  13.609  10.317
22766SOL     OW70129   3.334  14.789   1.390
22766SOL    HW170130   3.333  14.846   1.468
22766SOL    HW270131   3.250  14.742   1.394
22767SOL     OW70132   0.893   7.547   2.132
22767SOL    HW170133   0.907   7.461   2.173
22767SOL    HW270134   0.898   7.609   2.205
22768SOL     OW70135   2.645   6.871  13.885
22768SOL    HW170136   2.694   6.938  13.837
22768SOL    HW270137   2.687   6.868  13.971
22769SOL     OW70138   3.335   9.901   5.167
22769SOL    HW170139   3.378   9.962   5.227
22769SOL    HW270140   3.369   9.815   5.192
22770SOL     OW70141  14.610  10.915   3.891
22770SOL    HW170142  14.521  10.909   3.925
22770SOL    HW270143  14.661  10.858   3.947
22771SOL     OW70144  12.119  14.219   9.777
22771SOL    HW170145  12.094  14.295   9.829
22771SOL    HW270146  12.114  14.145   9.839
22772SOL     OW70147   6.615  12.761  10.442
22772SOL    HW170148   6.648  12.672  10.453
22772SOL    HW270149   6.662  12.795  10.366
22773SOL     OW70150  12.361  13.467  10.965
22773SOL    HW170151  12.405  13.527  11.025
22773SOL    HW270152  12.275  13.506  10.951
22774SOL     OW70153   3.788  14.227  12.652
22774SOL    HW170154   3.813  14.272  12.571
22774SOL    HW270155   3.743  14.293  12.704
22775SOL     OW70156   7.517  13.886  10.685
22775SOL    HW170157   7.460  13.952  10.644
22775SOL    HW270158   7.536  13.824  10.615
22776SOL     OW70159   2.362   6.297   7.444
22776SOL    HW170160   2.396   6.386   7.431
22776SOL    HW270161   2.367   6.257   7.357
22777SOL     OW70162   1.167  12.302   3.264
22777SOL    HW170163   1.206  12.388   3.279
22777SOL    HW270164   1.088  12.320   3.213
22778SOL     OW70165   4.159   5.799   9.328
22778SOL    HW170166   4.128   5.887   9.348
22778SOL    HW270167   4.188   5.764   9.413
22779SOL     OW70168  11.346   3.897   3.376
22779SOL    HW170169  11.252   3.901   3.358
22779SOL    HW270170  11.352   3.868   3.467
22780SOL     OW70171   8.185  13.433   8.314
22780SOL    HW170172   8.247  13.505   8.301
22780SOL    HW270173   8.240  13.356   8.324
22781SOL     OW70174   4.097   9.748  12.442
22781SOL    HW170175   4.101   9.671  12.498
22781SOL    HW270176   4.134   9.719  12.359
22782SOL     OW70177   4.586   4.035  14.630
22782SOL    HW170178   4.579   3.956  14.576
22782SOL    HW270179   4.674   4.068  14.614
22783SOL     OW70180   9.482  12.299   9.959
22783SOL    HW170181   9.490  12.355   9.882
22783SOL    HW270182   9.514  12.353  10.031
22784SOL     OW70183   4.279   8.767   8.291
22784SOL    HW170184   4.322   8.688   8.324
22784SOL    HW270185   4.343   8.808   8.233
22785SOL     OW70186   3.215   6.160   4.116
22785SOL    HW170187   3.292   6.128   4.162
22785SOL    HW270188   3.243   6.245   4.080
22786SOL     OW70189   0.298   0.587  13.521
22786SOL    HW170190   0.311   0.497  13.549
22786SOL    HW270191   0.345   0.593  13.437
22787SOL     OW70192   6.282   8.369   5.711
22787SOL    HW170193   6.305   8.341   5.800
22787SOL    HW270194   6.301   8.293   5.656
22788SOL     OW70195  11.842   0.091   1.185
22788SOL    HW170196  11.776   0.154   1.154
22788SOL    HW270197  11.862   0.120   1.274
22789SOL     OW70198   4.833   7.259  14.827
22789SOL    HW170199   4.902   7.251   0.021
22789SOL    HW270200   4.868   7.322  14.765
22790SOL     OW70201  12.557   5.529  13.037
22790SOL    HW170202  12.552   5.540  12.942
22790SOL    HW270203  12.558   5.618  13.071
22791SOL     OW70204   0.448   3.380   0.779
22791SOL    HW170205   0.513   3.327   0.825
22791SOL    HW270206   0.373   3.384   0.839
22792SOL     OW70207   3.231  11.905  10.143
22792SOL    HW170208   3.256  11.949  10.224
22792SOL    HW270209   3.166  11.963  10.104
22793SOL     OW70210   8.949  11.423   7.813
22793SOL    HW170211   9.035  11.415   7.853
22793SOL    HW270212   8.921  11.333   7.797
22794SOL     OW70213   7.268   7.308   3.775
22794SOL    HW170214   7.199   7.258   3.816
22794SOL    HW270215   7.339   7.245   3.761
22795SOL     OW70216   7.700   4.239  10.450
22795SOL    HW170217   7.776   4.184  10.432
22795SOL    HW270218   7.627   4.193  10.409
22796SOL     OW70219  12.734  11.813   2.962
22796SOL    HW170220  12.822  11.779   2.980
22796SOL    HW270221  12.684  11.736   2.935
22797SOL     OW70222  13.514   5.509   6.829
22797SOL    HW170223  13.575   5.447   6.789
22797SOL    HW270224  13.564   5.548   6.901
22798SOL     OW70225  11.377  11.729   8.394
22798SOL    HW170226  11.282  11.722   8.387
22798SOL    HW270227  11.394  11.823   8.400
22799SOL     OW70228   1.862   3.154   3.715
22799SOL    HW170229   1.883   3.063   3.696
22799SOL    HW270230   1.767   3.157   3.721
22800SOL     OW70231   6.773   1.305   2.575
22800SOL    HW170232   6.838   1.375   2.566
22800SOL    HW270233   6.690   1.351   2.588
22801SOL     OW70234   8.968   6.217  14.653
22801SOL    HW170235   8.946   6.309  14.665
22801SOL    HW270236   8.940   6.197  14.564
22802SOL     OW70237   3.875   8.107   9.841
22802SOL    HW170238   3.801   8.157   9.875
22802SOL    HW270239   3.867   8.022   9.885
22803SOL     OW70240  11.910   8.520   0.887
22803SOL    HW170241  11.978   8.573   0.928
22803SOL    HW270242  11.828   8.565   0.907
22804SOL     OW70243  14.452   6.930   6.543
22804SOL    HW170244  14.531   6.962   6.500
22804SOL    HW270245  14.381   6.952   6.482
22805SOL     OW70246   3.874   2.224  10.507
22805SOL    HW170247   3.954   2.183  10.538
22805SOL    HW270248   3.807   2.200  10.572
22806SOL     OW70249   7.721   6.333   0.374
22806SOL    HW170250   7.801   6.361   0.418
22806SOL    HW270251   7.739   6.243   0.346
22807SOL     OW70252   3.658  13.365  14.024
22807SOL    HW170253   3.648  13.298  13.957
22807SOL    HW270254   3.680  13.445  13.975
22808SOL     OW70255   7.647   0.271   4.635
22808SOL    HW170256   7.609   0.294   4.550
22808SOL    HW270257   7.606   0.332   4.696
22809SOL     OW70258  11.474   8.247   6.493
22809SOL    HW170259  11.528   8.291   6.427
22809SOL    HW270260  11.396   8.301   6.499
22810SOL     OW70261   8.595  14.191   9.911
22810SOL    HW170262   8.501  14.210   9.907
22810SOL    HW270263   8.637  14.277   9.908
22811SOL     OW70264   7.813  14.142   1.946
22811SOL    HW170265   7.811  14.195   1.866
22811SOL    HW270266   7.763  14.192   2.010
22812SOL     OW70267   7.089   2.537   8.911
22812SOL    HW170268   7.140   2.555   8.832
22812SOL    HW270269   7.069   2.623   8.946
22813SOL     OW70270   5.293   1.979  11.077
22813SOL    HW170271   5.277   1.960  11.169
22813SOL    HW270272   5.386   1.960  11.064
22814SOL     OW70273  12.596  12.912  10.796
22814SOL    HW170274  12.585  13.006  10.785
22814SOL    HW270275  12.522  12.885  10.849
22815SOL     OW70276  11.549  14.025  11.239
22815SOL    HW170277  11.492  13.962  11.195
22815SOL    HW270278  11.616  14.046  11.174
22816SOL     OW70279   4.633   9.388   1.476
22816SOL    HW170280   4.551   9.432   1.454
22816SOL    HW270281   4.648   9.412   1.568
22817SOL     OW70282   9.527  14.518   9.281
22817SOL    HW170283   9.521  14.571   9.201
22817SOL    HW270284   9.601  14.459   9.265
22818SOL     OW70285   2.284   9.054  13.454
22818SOL    HW170286   2.285   8.959  13.464
22818SOL    HW270287   2.332   9.087  13.530
22819SOL     OW70288   0.373   2.963   1.304
22819SOL    HW170289   0.346   2.875   1.330
22819SOL    HW270290   0.464   2.952   1.276
22820SOL     OW70291   1.173   5.898   2.276
22820SOL    HW170292   1.215   5.979   2.304
22820SOL    HW270293   1.099   5.887   2.335
22821SOL     OW70294   1.326   1.639  10.770
22821SOL    HW170295   1.376   1.646  10.689
22821SOL    HW270296   1.243   1.598  10.744
22822SOL     OW70297  14.041   4.952  10.508
22822SOL    HW170298  13.994   5.034  10.524
22822SOL    HW270299  14.060   4.918  10.595
22823SOL     OW70300   5.050   8.635   2.441
22823SOL    HW170301   5.071   8.648   2.348
22823SOL    HW270302   5.053   8.540   2.452
22824SOL     OW70303   8.002  11.523   3.154
22824SOL    HW170304   7.979  11.430   3.159
22824SOL    HW270305   7.942  11.559   3.089
22825SOL     OW70306   2.171   3.630   2.755
22825SOL    HW170307   2.099   3.674   2.711
22825SOL    HW270308   2.245   3.639   2.695
22826SOL     OW70309  11.918   0.388  10.266
22826SOL    HW170310  11.912   0.298  10.299
22826SOL    HW270311  11.971   0.381  10.187
22827SOL     OW70312  13.061   8.727   3.621
22827SOL    HW170313  13.145   8.729   3.668
22827SOL    HW270314  12.998   8.763   3.684
22828SOL     OW70315   1.183   1.691   6.952
22828SOL    HW170316   1.278   1.690   6.943
22828SOL    HW270317   1.159   1.599   6.963
22829SOL     OW70318  11.303   8.624  10.195
22829SOL    HW170319  11.341   8.536  10.194
22829SOL    HW270320  11.222   8.616  10.143
22830SOL     OW70321   0.740  13.987  12.265
22830SOL    HW170322   0.816  14.031  12.226
22830SOL    HW270323   0.770  13.897  12.281
22831SOL     OW70324  10.177   4.626  14.782
22831SOL    HW170325  10.264   4.649  14.817
22831SOL    HW270326  10.180   4.656  14.691
22832SOL     OW70327   8.324   1.056  10.523
22832SOL    HW170328   8.371   1.133  10.555
22832SOL    HW270329   8.379   0.982  10.549
22833SOL     OW70330   0.299   4.099   2.851
22833SOL    HW170331   0.250   4.047   2.914
22833SOL    HW270332   0.374   4.045   2.828
22834SOL     OW70333  13.884  13.751   6.458
22834SOL    HW170334  13.930  13.756   6.374
22834SOL    HW270335  13.807  13.697   6.439
22835SOL     OW70336   0.222  11.536  10.300
22835SOL    HW170337   0.259  11.623  10.286
22835SOL    HW270338   0.276  11.478  10.246
22836SOL     OW70339   0.032  13.516   5.893
22836SOL    HW170340   0.110  13.554   5.854
22836SOL    HW270341  14.853  13.592   5.922
22837SOL     OW70342   7.554   8.498   1.025
22837SOL    HW170343   7.595   8.478   0.941
22837SOL    HW270344   7.623   8.481   1.089
22838SOL     OW70345   6.071   9.119   0.580
22838SOL    HW170346   6.123   9.136   0.502
22838SOL    HW270347   6.085   9.196   0.636
22839SOL     OW70348   3.667   3.127   7.390
22839SOL    HW170349   3.744   3.176   7.361
22839SOL    HW270350   3.680   3.114   7.483
22840SOL     OW70351   7.161   1.991   5.003
22840SOL    HW170352   7.107   2.010   4.926
22840SOL    HW270353   7.249   2.019   4.977
22841SOL     OW70354   0.289   8.878  11.322
22841SOL    HW170355   0.228   8.815  11.362
22841SOL    HW270356   0.255   8.890  11.233
22842SOL     OW70357   7.558  13.638   2.917
22842SOL    HW170358   7.504  13.634   2.838
22842SOL    HW270359   7.607  13.556   2.917
22843SOL     OW70360   0.236   1.286   3.635
22843SOL    HW170361   0.313   1.255   3.588
22843SOL    HW270362   0.170   1.301   3.567
22844SOL     OW70363   7.347   0.581  11.374
22844SOL    HW170364   7.374   0.606  11.462
22844SOL    HW270365   7.429   0.556  11.331
22845SOL     OW70366   1.455  13.790   6.541
22845SOL    HW170367   1.460  13.700   6.509
22845SOL    HW270368   1.391  13.788   6.612
22846SOL     OW70369   8.877   7.050   6.696
22846SOL    HW170370   8.971   7.049   6.710
22846SOL    HW270371   8.842   7.096   6.773
22847SOL     OW70372  13.932   5.975   6.066
22847SOL    HW170373  13.924   5.963   5.971
22847SOL    HW270374  13.969   5.893   6.098
22848SOL     OW70375   8.960  12.106   2.098
22848SOL    HW170376   9.045  12.107   2.054
22848SOL    HW270377   8.896  12.096   2.028
22849SOL     OW70378   9.699  12.695   1.320
22849SOL    HW170379   9.744  12.713   1.402
22849SOL    HW270380   9.622  12.644   1.346
22850SOL     OW70381   3.506  13.840   8.154
22850SOL    HW170382   3.462  13.757   8.175
22850SOL    HW270383   3.443  13.888   8.101
22851SOL     OW70384   4.871   5.558  11.662
22851SOL    HW170385   4.940   5.495  11.643
22851SOL    HW270386   4.917   5.632  11.703
22852SOL     OW70387   4.762   6.051   4.198
22852SOL    HW170388   4.815   6.119   4.156
22852SOL    HW270389   4.781   5.971   4.150
22853SOL     OW70390  11.584   0.155  14.229
22853SOL    HW170391  11.527   0.088  14.269
22853SOL    HW270392  11.581   0.228  14.290
22854SOL     OW70393  12.765   4.017   0.341
22854SOL    HW170394  12.859   4.034   0.338
22854SOL    HW270395  12.732   4.073   0.412
22855SOL     OW70396   7.431   0.979  12.535
22855SOL    HW170397   7.350   0.931  12.554
22855SOL    HW270398   7.401   1.064  12.501
22856SOL     OW70399   7.339  10.565   6.041
22856SOL    HW170400   7.307  10.535   5.956
22856SOL    HW270401   7.260  10.580   6.092
22857SOL     OW70402  12.673   3.688   9.191
22857SOL    HW170403  12.671   3.733   9.106
22857SOL    HW270404  12.592   3.635   9.191
22858SOL     OW70405  13.002   4.686  13.760
22858SOL    HW170406  13.007   4.706  13.854
22858SOL    HW270407  12.974   4.595  13.757
22859SOL     OW70408   5.210   9.656   3.460
22859SOL    HW170409   5.141   9.718   3.434
22859SOL    HW270410   5.212   9.592   3.389
22860SOL     OW70411   9.478  13.122   8.709
22860SOL    HW170412   9.454  13.068   8.634
22860SOL    HW270413   9.402  13.117   8.767
22861SOL     OW70414  11.076   4.839   1.026
22861SOL    HW170415  10.991   4.839   1.069
22861SOL    HW270416  11.129   4.778   1.079
22862SOL     OW70417   2.732   7.215   4.713
22862SOL    HW170418   2.704   7.272   4.785
22862SOL    HW270419   2.825   7.199   4.730
22863SOL     OW70420   3.802   1.826   5.412
22863SOL    HW170421   3.778   1.764   5.481
22863SOL    HW270422   3.785   1.779   5.330
22864SOL     OW70423   8.710  14.529   5.474
22864SOL    HW170424   8.647  14.487   5.415
22864SOL    HW270425   8.757  14.457   5.516
22865SOL     OW70426  14.644  12.352  10.486
22865SOL    HW170427  14.660  12.297  10.410
22865SOL    HW270428  14.612  12.292  10.553
22866SOL     OW70429  11.677   2.815   4.101
22866SOL    HW170430  11.737   2.869   4.050
22866SOL    HW270431  11.713   2.726   4.094
22867SOL     OW70432  13.545   9.336   1.574
22867SOL    HW170433  13.627   9.360   1.615
22867SOL    HW270434  13.495   9.418   1.569
22868SOL     OW70435   0.464   6.616   4.188
22868SOL    HW170436   0.423   6.702   4.179
22868SOL    HW270437   0.484   6.588   4.099
22869SOL     OW70438   9.546   3.449  13.861
22869SOL    HW170439   9.479   3.517  13.858
22869SOL    HW270440   9.523   3.397  13.939
22870SOL     OW70441  12.671   2.752   2.018
22870SOL    HW170442  12.613   2.678   2.037
22870SOL    HW270443  12.629   2.796   1.944
22871SOL     OW70444   2.056   0.760  14.534
22871SOL    HW170445   2.099   0.674  14.538
22871SOL    HW270446   2.074   0.791  14.446
22872SOL     OW70447   9.501  10.773   8.598
22872SOL    HW170448   9.521  10.832   8.525
22872SOL    HW270449   9.409  10.749   8.584
22873SOL     OW70450  12.207   9.340   0.545
22873SOL    HW170451  12.280   9.296   0.589
22873SOL    HW270452  12.231   9.338   0.452
22874SOL     OW70453   1.396  10.183  10.747
22874SOL    HW170454   1.376  10.178  10.654
22874SOL    HW270455   1.378  10.274  10.771
22875SOL     OW70456   0.500   5.870   9.738
22875SOL    HW170457   0.414   5.905   9.715
22875SOL    HW270458   0.562   5.927   9.693
22876SOL     OW70459   0.026  13.644  13.877
22876SOL    HW170460  14.808  13.618  13.857
22876SOL    HW270461   0.078  13.565  13.861
22877SOL     OW70462  10.472  13.305  14.472
22877SOL    HW170463  10.480  13.211  14.459
22877SOL    HW270464  10.446  13.314  14.564
22878SOL     OW70465  14.810  14.507   4.057
22878SOL    HW170466  14.792  14.592   4.017
22878SOL    HW270467   0.011  14.523   4.116
22879SOL     OW70468   3.100  10.775   1.826
22879SOL    HW170469   3.052  10.757   1.745
22879SOL    HW270470   3.116  10.869   1.825
22880SOL     OW70471  12.424  11.437  14.002
22880SOL    HW170472  12.380  11.494  14.064
22880SOL    HW270473  12.413  11.482  13.917
22881SOL     OW70474   4.998  11.329   0.397
22881SOL    HW170475   4.973  11.236   0.389
22881SOL    HW270476   5.008  11.343   0.491
22882SOL     OW70477  12.466  12.735   0.947
22882SOL    HW170478  12.463  12.763   1.038
22882SOL    HW270479  12.495  12.644   0.951
22883SOL     OW70480  11.392   4.947  12.997
22883SOL    HW170481  11.432   4.950  13.084
22883SOL    HW270482  11.434   4.873  12.954
22884SOL     OW70483   8.985   5.749  13.423
22884SOL    HW170484   9.046   5.812  13.387
22884SOL    HW270485   8.943   5.709  13.347
22885SOL     OW70486   2.930  10.431   7.483
22885SOL    HW170487   3.001  10.437   7.547
22885SOL    HW270488   2.949  10.500   7.420
22886SOL     OW70489  11.084   6.876   8.780
22886SOL    HW170490  11.128   6.836   8.705
22886SOL    HW270491  11.069   6.967   8.752
22887SOL     OW70492   4.923  10.125   3.508
22887SOL    HW170493   4.836  10.086   3.494
22887SOL    HW270494   4.904  10.216   3.534
22888SOL     OW70495   2.759   0.682  13.927
22888SOL    HW170496   2.751   0.666  13.833
22888SOL    HW270497   2.744   0.776  13.937
22889SOL     OW70498   6.544  14.450   4.315
22889SOL    HW170499   6.598  14.436   4.237
22889SOL    HW270500   6.588  14.400   4.384
22890SOL     OW70501  13.407   8.238  10.458
22890SOL    HW170502  13.459   8.177  10.405
22890SOL    HW270503  13.401   8.196  10.543
22891SOL     OW70504  12.539  11.496   1.019
22891SOL    HW170505  12.464  11.459   0.972
22891SOL    HW270506  12.611  11.435   1.001
22892SOL     OW70507  11.246  12.236   9.817
22892SOL    HW170508  11.178  12.249   9.752
22892SOL    HW270509  11.236  12.146   9.846
22893SOL     OW70510   2.761  10.405   0.116
22893SOL    HW170511   2.785  10.448   0.199
22893SOL    HW270512   2.845  10.375   0.080
22894SOL     OW70513   4.461  10.511   9.483
22894SOL    HW170514   4.382  10.540   9.529
22894SOL    HW270515   4.437  10.426   9.447
22895SOL     OW70516   8.450  10.180  10.536
22895SOL    HW170517   8.501  10.206  10.459
22895SOL    HW270518   8.467  10.087  10.546
22896SOL     OW70519  14.162  10.044   4.582
22896SOL    HW170520  14.157  10.099   4.661
22896SOL    HW270521  14.250  10.005   4.586
22897SOL     OW70522   0.735  14.361   5.890
22897SOL    HW170523   0.689  14.292   5.844
22897SOL    HW270524   0.782  14.316   5.961
22898SOL     OW70525  13.856   8.794  11.770
22898SOL    HW170526  13.828   8.803  11.861
22898SOL    HW270527  13.841   8.702  11.750
22899SOL     OW70528   0.263   3.117   5.581
22899SOL    HW170529   0.326   3.052   5.612
22899SOL    HW270530   0.218   3.147   5.660
22900SOL     OW70531  11.408   8.971   2.315
22900SOL    HW170532  11.320   8.977   2.280
22900SOL    HW270533  11.425   9.056   2.355
22901SOL     OW70534   7.420   0.887   1.940
22901SOL    HW170535   7.366   0.940   1.882
22901SOL    HW270536   7.386   0.905   2.028
22902SOL     OW70537  12.187   4.206  10.403
22902SOL    HW170538  12.092   4.201  10.389
22902SOL    HW270539  12.200   4.291  10.446
22903SOL     OW70540   2.760  12.507   6.284
22903SOL    HW170541   2.665  12.501   6.290
22903SOL    HW270542   2.776  12.565   6.211
22904SOL     OW70543   0.161   7.284   9.253
22904SOL    HW170544   0.072   7.276   9.286
22904SOL    HW270545   0.184   7.197   9.222
22905SOL     OW70546   8.884   0.092   2.459
22905SOL    HW170547   8.889   0.177   2.501
22905SOL    HW270548   8.942   0.036   2.511
22906SOL     OW70549  12.755   7.448  11.311
22906SOL    HW170550  12.806   7.488  11.381
22906SOL    HW270551  12.794   7.482  11.230
22907SOL     OW70552   4.679   0.400   7.478
22907SOL    HW170553   4.654   0.491   7.467
22907SOL    HW270554   4.772   0.404   7.502
22908SOL     OW70555  14.028   3.187   5.957
22908SOL    HW170556  14.003   3.278   5.973
22908SOL    HW270557  14.073   3.189   5.872
22909SOL     OW70558   3.222  12.913   0.791
22909SOL    HW170559   3.292  12.850   0.809
22909SOL    HW270560   3.217  12.916   0.696
22910SOL     OW70561   7.097   5.702  12.259
22910SOL    HW170562   7.090   5.644  12.335
22910SOL    HW270563   7.186   5.736  12.263
22911SOL     OW70564  11.199  13.340   0.280
22911SOL    HW170565  11.230  13.250   0.271
22911SOL    HW270566  11.264  13.392   0.233
22912SOL     OW70567  10.843  10.103   9.098
22912SOL    HW170568  10.836  10.012   9.127
22912SOL    HW270569  10.904  10.100   9.025
22913SOL     OW70570   0.780   3.745   9.970
22913SOL    HW170571   0.847   3.697   9.923
22913SOL    HW270572   0.699   3.725   9.924
22914SOL     OW70573   9.667   0.521   6.703
22914SOL    HW170574   9.630   0.592   6.649
22914SOL    HW270575   9.717   0.468   6.641
22915SOL     OW70576  11.734   5.008  13.735
22915SOL    HW170577  11.736   4.987  13.829
22915SOL    HW270578  11.645   5.039  13.719
22916SOL     OW70579   5.373   0.860  10.246
22916SOL    HW170580   5.304   0.904  10.197
22916SOL    HW270581   5.392   0.919  10.319
22917SOL     OW70582   3.249  11.928   4.918
22917SOL    HW170583   3.157  11.948   4.904
22917SOL    HW270584   3.295  12.008   4.892
22918SOL     OW70585  12.061  10.107   5.831
22918SOL    HW170586  12.026  10.101   5.920
22918SOL    HW270587  11.984  10.102   5.775
22919SOL     OW70588   1.413   5.870   3.746
22919SOL    HW170589   1.401   5.783   3.783
22919SOL    HW270590   1.337   5.920   3.779
22920SOL     OW70591  10.346  12.710   2.047
22920SOL    HW170592  10.374  12.618   2.048
22920SOL    HW270593  10.404  12.752   1.984
22921SOL     OW70594   6.714   0.446   8.645
22921SOL    HW170595   6.796   0.402   8.622
22921SOL    HW270596   6.726   0.536   8.614
22922SOL     OW70597   8.289   1.994   2.410
22922SOL    HW170598   8.235   2.066   2.377
22922SOL    HW270599   8.326   1.954   2.331
22923SOL     OW70600   7.921  11.416   5.115
22923SOL    HW170601   7.912  11.381   5.026
22923SOL    HW270602   8.007  11.384   5.144
22924SOL     OW70603   8.433   3.360   2.228
22924SOL    HW170604   8.518   3.342   2.270
22924SOL    HW270605   8.409   3.447   2.260
22925SOL     OW70606  13.821  14.277   0.632
22925SOL    HW170607  13.771  14.295   0.711
22925SOL    HW270608  13.797  14.348   0.572
22926SOL     OW70609   6.120   7.493   5.017
22926SOL    HW170610   6.084   7.408   5.040
22926SOL    HW270611   6.106   7.547   5.095
22927SOL     OW70612  12.723   0.352  10.116
22927SOL    HW170613  12.668   0.329  10.041
22927SOL    HW270614  12.728   0.272  10.167
22928SOL     OW70615   8.447   3.933   8.279
22928SOL    HW170616   8.440   3.877   8.201
22928SOL    HW270617   8.463   3.872   8.351
22929SOL     OW70618   4.886   2.019   0.680
22929SOL    HW170619   4.811   2.024   0.620
22929SOL    HW270620   4.896   2.108   0.712
22930SOL     OW70621   6.152   8.591  14.018
22930SOL    HW170622   6.205   8.619  13.943
22930SOL    HW270623   6.150   8.496  14.012
22931SOL     OW70624  10.110   0.025   2.881
22931SOL    HW170625  10.068  14.811   2.882
22931SOL    HW270626  10.179   0.019   2.947
22932SOL     OW70627   8.677   1.925  10.686
22932SOL    HW170628   8.731   1.984  10.632
22932SOL    HW270629   8.717   1.928  10.772
22933SOL     OW70630   5.477   3.635   6.830
22933SOL    HW170631   5.498   3.724   6.856
22933SOL    HW270632   5.464   3.639   6.736
22934SOL     OW70633   8.277  14.081   0.122
22934SOL    HW170634   8.218  14.103   0.193
22934SOL    HW270635   8.232  14.112   0.043
22935SOL     OW70636   9.200   2.667   6.157
22935SOL    HW170637   9.159   2.669   6.244
22935SOL    HW270638   9.131   2.635   6.099
22936SOL     OW70639   4.170  14.291   8.363
22936SOL    HW170640   4.155  14.307   8.270
22936SOL    HW270641   4.091  14.245   8.392
22937SOL     OW70642   5.924   7.556   9.926
22937SOL    HW170643   5.869   7.489   9.885
22937SOL    HW270644   5.872   7.636   9.920
22938SOL     OW70645   9.397   5.404   7.417
22938SOL    HW170646   9.316   5.378   7.374
22938SOL    HW270647   9.388   5.498   7.432
22939SOL     OW70648  14.489   9.177   6.518
22939SOL    HW170649  14.402   9.139   6.529
22939SOL    HW270650  14.492   9.205   6.427
22940SOL     OW70651   2.229   6.639   4.607
22940SOL    HW170652   2.175   6.656   4.684
22940SOL    HW270653   2.190   6.560   4.569
22941SOL     OW70654  13.884   5.842  10.893
22941SOL    HW170655  13.791   5.865  10.889
22941SOL    HW270656  13.884   5.749  10.916
22942SOL     OW70657   4.939  11.192  14.242
22942SOL    HW170658   4.983  11.242  14.173
22942SOL    HW270659   5.010  11.168  14.302
22943SOL     OW70660  10.381   8.273   2.024
22943SOL    HW170661  10.302   8.245   1.979
22943SOL    HW270662  10.412   8.195   2.070
22944SOL     OW70663  12.218   5.910   8.388
22944SOL    HW170664  12.286   5.916   8.321
22944SOL    HW270665  12.188   5.819   8.385
22945SOL     OW70666  12.216   9.296   0.901
22945SOL    HW170667  12.282   9.291   0.970
22945SOL    HW270668  12.264   9.275   0.821
22946SOL     OW70669   9.999   6.288   6.933
22946SOL    HW170670   9.939   6.279   6.859
22946SOL    HW270671   9.947   6.263   7.009
22947SOL     OW70672  14.464   6.314  10.935
22947SOL    HW170673  14.507   6.248  10.880
22947SOL    HW270674  14.371   6.290  10.932
22948SOL     OW70675   7.967  12.869   9.456
22948SOL    HW170676   7.985  12.817   9.534
22948SOL    HW270677   8.048  12.864   9.405
22949SOL     OW70678   1.415   5.843  10.858
22949SOL    HW170679   1.409   5.747  10.850
22949SOL    HW270680   1.366   5.863  10.938
22950SOL     OW70681   5.382   5.371   3.596
22950SOL    HW170682   5.314   5.318   3.556
22950SOL    HW270683   5.464   5.341   3.556
22951SOL     OW70684   2.928   7.524   8.090
22951SOL    HW170685   2.835   7.534   8.071
22951SOL    HW270686   2.969   7.599   8.046
22952SOL     OW70687   9.628   0.800  13.033
22952SOL    HW170688   9.659   0.801  12.942
22952SOL    HW270689   9.582   0.716  13.042
22953SOL     OW70690   8.918  13.872   7.024
22953SOL    HW170691   8.953  13.871   7.113
22953SOL    HW270692   8.909  13.779   7.001
22954SOL     OW70693   1.246   9.059  14.637
22954SOL    HW170694   1.339   9.081  14.626
22954SOL    HW270695   1.200   9.125  14.585
22955SOL     OW70696   0.529   3.303   2.966
22955SOL    HW170697   0.504   3.393   2.942
22955SOL    HW270698   0.492   3.291   3.053
22956SOL     OW70699   4.206   8.156   9.768
22956SOL    HW170700   4.141   8.102   9.724
22956SOL    HW270701   4.156   8.209   9.830
22957SOL     OW70702   5.577   1.925  13.019
22957SOL    HW170703   5.584   1.901  12.927
22957SOL    HW270704   5.633   1.862  13.065
22958SOL     OW70705   6.495   9.586   4.609
22958SOL    HW170706   6.538   9.519   4.557
22958SOL    HW270707   6.542   9.587   4.692
22959SOL     OW70708   5.293   1.109  13.547
22959SOL    HW170709   5.346   1.187  13.561
22959SOL    HW270710   5.244   1.098  13.629
22960SOL     OW70711   0.268   4.348   7.297
22960SOL    HW170712   0.363   4.358   7.294
22960SOL    HW270713   0.254   4.258   7.325
22961SOL     OW70714   7.950   7.745   5.818
22961SOL    HW170715   7.963   7.819   5.877
22961SOL    HW270716   8.027   7.689   5.832
22962SOL     OW70717   7.076   5.721   2.601
22962SOL    HW170718   7.101   5.662   2.530
22962SOL    HW270719   7.148   5.716   2.663
22963SOL     OW70720  14.066   5.056  12.842
22963SOL    HW170721  14.100   5.134  12.885
22963SOL    HW270722  13.990   5.087  12.793
22964SOL     OW70723  13.083  12.993   3.217
22964SOL    HW170724  13.143  13.043   3.162
22964SOL    HW270725  13.112  13.009   3.306
22965SOL     OW70726   9.096   7.217   4.897
22965SOL    HW170727   9.183   7.257   4.892
22965SOL    HW270728   9.113   7.125   4.919
22966SOL     OW70729  13.705   8.607   9.901
22966SOL    HW170730  13.785   8.575   9.858
22966SOL    HW270731  13.660   8.529   9.931
22967SOL     OW70732  13.157   9.713   7.767
22967SOL    HW170733  13.159   9.652   7.693
22967SOL    HW270734  13.124   9.661   7.840
22968SOL     OW70735  10.218  10.456   4.158
22968SOL    HW170736  10.191  10.380   4.106
22968SOL    HW270737  10.138  10.485   4.201
22969SOL     OW70738   5.780   2.150   0.329
22969SOL    HW170739   5.759   2.093   0.403
22969SOL    HW270740   5.814   2.230   0.368
22970SOL     OW70741  13.541  10.597  10.714
22970SOL    HW170742  13.574  10.632  10.796
22970SOL    HW270743  13.480  10.527  10.740
22971SOL     OW70744   0.986   6.036  11.360
22971SOL    HW170745   0.987   5.987  11.443
22971SOL    HW270746   0.894   6.042  11.336
22972SOL     OW70747  14.574  10.798   5.993
22972SOL    HW170748  14.501  10.769   6.048
22972SOL    HW270749  14.537  10.806   5.906
22973SOL     OW70750  10.174   6.478  14.373
22973SOL    HW170751  10.138   6.402  14.419
22973SOL    HW270752  10.103   6.542  14.373
22974SOL     OW70753   8.739   8.502   1.278
22974SOL    HW170754   8.727   8.474   1.368
22974SOL    HW270755   8.724   8.596   1.279
22975SOL     OW70756   7.373   5.799  14.757
22975SOL    HW170757   7.289   5.836  14.731
22975SOL    HW270758   7.358   5.705  14.762
22976SOL     OW70759   5.858   8.986   5.979
22976SOL    HW170760   5.953   8.980   5.982
22976SOL    HW270761   5.830   8.905   5.936
22977SOL     OW70762   9.114   1.161   5.243
22977SOL    HW170763   9.125   1.085   5.186
22977SOL    HW270764   9.068   1.225   5.189
22978SOL     OW70765   2.698  12.509   0.002
22978SOL    HW170766   2.609  12.497   0.036
22978SOL    HW270767   2.702  12.455  14.796
22979SOL     OW70768   8.636   8.733   3.896
22979SOL    HW170769   8.703   8.736   3.964
22979SOL    HW270770   8.559   8.774   3.937
22980SOL     OW70771   6.851   9.285   3.173
22980SOL    HW170772   6.908   9.360   3.156
22980SOL    HW270773   6.827   9.294   3.265
22981SOL     OW70774   7.151   9.534  11.519
22981SOL    HW170775   7.079   9.598  11.514
22981SOL    HW270776   7.182   9.540  11.610
22982SOL     OW70777   1.354   9.470  13.162
22982SOL    HW170778   1.351   9.510  13.249
22982SOL    HW270779   1.275   9.501  13.118
22983SOL     OW70780   3.583  14.437   0.874
22983SOL    HW170781   3.635  14.373   0.825
22983SOL    HW270782   3.524  14.475   0.809
22984SOL     OW70783  11.993   1.462   9.475
22984SOL    HW170784  12.037   1.403   9.414
22984SOL    HW270785  11.921   1.499   9.424
22985SOL     OW70786   7.603   1.932   2.480
22985SOL    HW170787   7.565   1.855   2.438
22985SOL    HW270788   7.681   1.899   2.525
22986SOL     OW70789  12.928  11.542   8.604
22986SOL    HW170790  12.832  11.534   8.607
22986SOL    HW270791  12.954  11.493   8.526
22987SOL     OW70792  11.035   9.812   1.245
22987SOL    HW170793  10.980   9.890   1.237
22987SOL    HW270794  11.048   9.783   1.155
22988SOL     OW70795   9.463   3.974  11.224
22988SOL    HW170796   9.516   4.050  11.202
22988SOL    HW270797   9.448   3.930  11.140
22989SOL     OW70798   9.128   5.049   9.960
22989SOL    HW170799   9.065   5.033  10.031
22989SOL    HW270800   9.075   5.087   9.890
22990SOL     OW70801   2.095  14.665   2.842
22990SOL    HW170802   2.148  14.682   2.764
22990SOL    HW270803   2.156  14.625   2.903
22991SOL     OW70804   4.674   6.610  14.117
22991SOL    HW170805   4.597   6.574  14.072
22991SOL    HW270806   4.692   6.547  14.187
22992SOL     OW70807   0.966   9.871   4.550
22992SOL    HW170808   1.046   9.863   4.498
22992SOL    HW270809   0.897   9.840   4.493
22993SOL     OW70810   3.614   1.881   0.866
22993SOL    HW170811   3.535   1.916   0.825
22993SOL    HW270812   3.661   1.838   0.794
22994SOL     OW70813   6.163  13.243  13.555
22994SOL    HW170814   6.159  13.179  13.626
22994SOL    HW270815   6.234  13.212  13.499
22995SOL     OW70816   8.837  10.044  12.901
22995SOL    HW170817   8.776  10.035  12.975
22995SOL    HW270818   8.892   9.966  12.905
22996SOL     OW70819   5.640   1.056   0.356
22996SOL    HW170820   5.658   1.003   0.278
22996SOL    HW270821   5.610   1.140   0.321
22997SOL     OW70822   8.578   5.601   7.633
22997SOL    HW170823   8.659   5.557   7.609
22997SOL    HW270824   8.512   5.531   7.638
22998SOL     OW70825   1.731   8.310  10.600
22998SOL    HW170826   1.681   8.230  10.581
22998SOL    HW270827   1.755   8.344  10.514
22999SOL     OW70828   9.509  12.484  14.506
22999SOL    HW170829   9.475  12.568  14.537
22999SOL    HW270830   9.539  12.502  14.417
23000SOL     OW70831   6.571   6.371   5.838
23000SOL    HW170832   6.601   6.374   5.747
23000SOL    HW270833   6.517   6.293   5.843
23001SOL     OW70834  12.248  12.636  14.511
23001SOL    HW170835  12.325  12.685  14.542
23001SOL    HW270836  12.175  12.696  14.523
23002SOL     OW70837  10.775   9.983   0.461
23002SOL    HW170838  10.729  10.052   0.508
23002SOL    HW270839  10.733   9.980   0.375
23003SOL     OW70840   8.544  13.908   2.471
23003SOL    HW170841   8.532  13.875   2.382
23003SOL    HW270842   8.593  13.840   2.517
23004SOL     OW70843   4.436  14.021  14.792
23004SOL    HW170844   4.478  14.017   0.006
23004SOL    HW270845   4.342  14.022  14.811
23005SOL     OW70846  12.969   4.345   6.630
23005SOL    HW170847  13.025   4.345   6.707
23005SOL    HW270848  12.992   4.425   6.583
23006SOL     OW70849  11.707  14.523   4.073
23006SOL    HW170850  11.701  14.490   3.984
23006SOL    HW270851  11.772  14.593   4.069
23007SOL     OW70852   2.879  13.430   1.626
23007SOL    HW170853   2.904  13.376   1.701
23007SOL    HW270854   2.800  13.476   1.655
23008SOL     OW70855   7.997   6.402   2.151
23008SOL    HW170856   7.956   6.340   2.091
23008SOL    HW270857   8.088   6.373   2.156
23009SOL     OW70858   7.894   8.604   6.164
23009SOL    HW170859   7.904   8.537   6.095
23009SOL    HW270860   7.917   8.558   6.245
23010SOL     OW70861  14.392   8.816  12.575
23010SOL    HW170862  14.303   8.841  12.599
23010SOL    HW270863  14.427   8.893  12.530
23011SOL     OW70864   1.023  13.458   1.466
23011SOL    HW170865   0.951  13.516   1.488
23011SOL    HW270866   1.068  13.442   1.549
23012SOL     OW70867   3.039  11.398   5.074
23012SOL    HW170868   2.983  11.325   5.046
23012SOL    HW270869   3.022  11.407   5.167
23013SOL     OW70870   6.527   9.811   4.996
23013SOL    HW170871   6.571   9.768   4.923
23013SOL    HW270872   6.540   9.753   5.071
23014SOL     OW70873  12.789   6.522   2.320
23014SOL    HW170874  12.843   6.557   2.250
23014SOL    HW270875  12.772   6.597   2.377
23015SOL     OW70876  11.752   8.066  14.270
23015SOL    HW170877  11.691   8.069  14.344
23015SOL    HW270878  11.838   8.080  14.309
23016SOL     OW70879  12.071   8.322   6.388
23016SOL    HW170880  12.151   8.374   6.389
23016SOL    HW270881  12.014   8.365   6.453
23017SOL     OW70882  10.768   6.574  14.806
23017SOL    HW170883  10.676   6.555  14.825
23017SOL    HW270884  10.816   6.498  14.840
23018SOL     OW70885   9.148   4.774   2.143
23018SOL    HW170886   9.111   4.686   2.147
23018SOL    HW270887   9.166   4.797   2.234
23019SOL     OW70888   8.603  14.226   1.424
23019SOL    HW170889   8.516  14.252   1.394
23019SOL    HW270890   8.592  14.210   1.518
23020SOL     OW70891   5.462   3.852  13.571
23020SOL    HW170892   5.431   3.764  13.549
23020SOL    HW270893   5.557   3.842  13.580
23021SOL     OW70894  11.357   3.715   5.626
23021SOL    HW170895  11.325   3.778   5.563
23021SOL    HW270896  11.290   3.713   5.694
23022SOL     OW70897   6.841   0.961   4.051
23022SOL    HW170898   6.746   0.961   4.040
23022SOL    HW270899   6.871   0.882   4.005
23023SOL     OW70900   8.130   1.582   4.892
23023SOL    HW170901   8.163   1.662   4.933
23023SOL    HW270902   8.083   1.613   4.815
23024SOL     OW70903  11.284   7.554  14.552
23024SOL    HW170904  11.208   7.611  14.565
23024SOL    HW270905  11.297   7.511  14.636
23025SOL     OW70906   7.457  11.820   5.705
23025SOL    HW170907   7.436  11.870   5.784
23025SOL    HW270908   7.460  11.887   5.636
23026SOL     OW70909   9.255  11.888   2.473
23026SOL    HW170910   9.292  11.956   2.529
23026SOL    HW270911   9.198  11.935   2.412
23027SOL     OW70912   1.007   0.124  10.097
23027SOL    HW170913   0.999   0.203  10.043
23027SOL    HW270914   0.933   0.128  10.157
23028SOL     OW70915   2.817   0.666   2.851
23028SOL    HW170916   2.789   0.739   2.906
23028SOL    HW270917   2.876   0.706   2.787
23029SOL     OW70918   8.669   4.018  12.703
23029SOL    HW170919   8.733   4.088  12.689
23029SOL    HW270920   8.638   4.031  12.792
23030SOL     OW70921   9.668   3.517   1.419
23030SOL    HW170922   9.740   3.467   1.457
23030SOL    HW270923   9.613   3.540   1.493
23031SOL     OW70924  12.186   5.772   6.135
23031SOL    HW170925  12.108   5.822   6.111
23031SOL    HW270926  12.252   5.798   6.071
23032SOL     OW70927  12.402  10.500  11.305
23032SOL    HW170928  12.329  10.562  11.299
23032SOL    HW270929  12.389  10.455  11.388
23033SOL     OW70930   6.718  13.709  12.212
23033SOL    HW170931   6.628  13.716  12.179
23033SOL    HW270932   6.714  13.637  12.275
23034SOL     OW70933  12.550   3.827   8.966
23034SOL    HW170934  12.592   3.913   8.963
23034SOL    HW270935  12.458   3.846   8.987
23035SOL     OW70936   4.937   9.710  10.716
23035SOL    HW170937   4.862   9.653  10.699
23035SOL    HW270938   4.962   9.690  10.806
23036SOL     OW70939   7.278  12.337   4.882
23036SOL    HW170940   7.207  12.322   4.820
23036SOL    HW270941   7.357  12.342   4.828
23037SOL     OW70942  12.180   5.834   7.132
23037SOL    HW170943  12.220   5.748   7.136
23037SOL    HW270944  12.231   5.882   7.067
23038SOL     OW70945   2.932   1.461   5.738
23038SOL    HW170946   2.944   1.369   5.763
23038SOL    HW270947   2.918   1.507   5.820
23039SOL     OW70948   6.270   2.217   1.942
23039SOL    HW170949   6.267   2.236   2.036
23039SOL    HW270950   6.182   2.187   1.921
23040SOL     OW70951  10.883   3.942   6.980
23040SOL    HW170952  10.806   3.915   7.030
23040SOL    HW270953  10.851   3.945   6.889
23041SOL     OW70954   2.389   6.365  12.315
23041SOL    HW170955   2.369   6.436  12.254
23041SOL    HW270956   2.324   6.373  12.385
23042SOL     OW70957   8.981   8.008  10.484
23042SOL    HW170958   9.031   7.972  10.412
23042SOL    HW270959   8.957   8.096  10.455
23043SOL     OW70960  13.740  14.503   0.496
23043SOL    HW170961  13.738  14.597   0.478
23043SOL    HW270962  13.657  14.484   0.539
23044SOL     OW70963   6.408   7.344   1.262
23044SOL    HW170964   6.430   7.405   1.332
23044SOL    HW270965   6.317   7.364   1.240
23045SOL     OW70966   5.185   7.458   0.238
23045SOL    HW170967   5.138   7.533   0.276
23045SOL    HW270968   5.258   7.496   0.190
23046SOL     OW70969   2.876   9.387   5.078
23046SOL    HW170970   2.835   9.391   5.164
23046SOL    HW270971   2.970   9.383   5.096
23047SOL     OW70972  14.199   0.203  13.168
23047SOL    HW170973  14.260   0.224  13.097
23047SOL    HW270974  14.187   0.109  13.162
23048SOL     OW70975  13.972   8.528   9.095
23048SOL    HW170976  13.998   8.458   9.035
23048SOL    HW270977  13.882   8.507   9.118
23049SOL     OW70978   5.297  13.099  11.233
23049SOL    HW170979   5.321  13.042  11.305
23049SOL    HW270980   5.208  13.072  11.209
23050SOL     OW70981  12.618   5.671   0.292
23050SOL    HW170982  12.568   5.660   0.211
23050SOL    HW270983  12.702   5.629   0.275
23051SOL     OW70984   5.358   2.631   9.559
23051SOL    HW170985   5.269   2.617   9.527
23051SOL    HW270986   5.412   2.632   9.480
23052SOL     OW70987  13.100   8.237  11.454
23052SOL    HW170988  13.020   8.252  11.504
23052SOL    HW270989  13.101   8.142  11.438
23053SOL     OW70990   0.280   0.405  11.136
23053SOL    HW170991   0.266   0.310  11.142
23053SOL    HW270992   0.234   0.431  11.056
23054SOL     OW70993  14.847   7.106   3.464
23054SOL    HW170994  14.834   7.081   3.556
23054SOL    HW270995   0.030   7.037   3.428
23055SOL     OW70996  14.421   1.430   4.178
23055SOL    HW170997  14.513   1.413   4.201
23055SOL    HW270998  14.418   1.524   4.162
23056SOL     OW70999   0.545   0.678   1.490
23056SOL    HW171000   0.603   0.705   1.562
23056SOL    HW271001   0.514   0.591   1.516
23057SOL     OW71002   9.774   0.688   3.336
23057SOL    HW171003   9.816   0.759   3.385
23057SOL    HW271004   9.818   0.609   3.367
23058SOL     OW71005   9.961  14.834   0.540
23058SOL    HW171006   9.883  14.806   0.492
23058SOL    HW271007   9.964  14.777   0.617
23059SOL     OW71008   7.696   5.286   0.450
23059SOL    HW171009   7.612   5.322   0.421
23059SOL    HW271010   7.753   5.363   0.460
23060SOL     OW71011  13.161   4.466  14.766
23060SOL    HW171012  13.071   4.488  14.742
23060SOL    HW271013  13.210   4.471  14.684
23061SOL     OW71014  14.425   4.787  13.498
23061SOL    HW171015  14.471   4.753  13.575
23061SOL    HW271016  14.341   4.818  13.531
23062SOL     OW71017  11.313  10.765   3.677
23062SOL    HW171018  11.357  10.753   3.761
23062SOL    HW271019  11.258  10.687   3.668
23063SOL     OW71020  12.070   8.639  14.871
23063SOL    HW171021  12.148   8.685   0.029
23063SOL    HW271022  12.102   8.577  14.805
23064SOL     OW71023  14.388   3.178   0.039
23064SOL    HW171024  14.462   3.138   0.084
23064SOL    HW271025  14.352   3.107  14.857
23065SOL     OW71026   1.183   8.860  13.378
23065SOL    HW171027   1.189   8.799  13.305
23065SOL    HW271028   1.266   8.906  13.378
23066SOL     OW71029  11.316   6.663   6.238
23066SOL    HW171030  11.331   6.592   6.301
23066SOL    HW271031  11.404   6.686   6.208
23067SOL     OW71032   6.214   5.365   5.123
23067SOL    HW171033   6.161   5.405   5.192
23067SOL    HW271034   6.284   5.320   5.170
23068SOL     OW71035   4.883  14.851   3.567
23068SOL    HW171036   4.812   0.025   3.611
23068SOL    HW271037   4.915  14.789   3.633
23069SOL     OW71038   1.702  13.385   2.145
23069SOL    HW171039   1.685  13.453   2.210
23069SOL    HW271040   1.649  13.410   2.069
23070SOL     OW71041   7.725   5.169   0.030
23070SOL    HW171042   7.727   5.265   0.022
23070SOL    HW271043   7.663   5.152   0.101
23071SOL     OW71044   3.555   3.066  14.359
23071SOL    HW171045   3.497   3.050  14.286
23071SOL    HW271046   3.641   3.078  14.320
23072SOL     OW71047  11.217   4.817   9.994
23072SOL    HW171048  11.168   4.755  10.049
23072SOL    HW271049  11.307   4.813  10.026
23073SOL     OW71050  13.675  13.141   6.918
23073SOL    HW171051  13.738  13.124   6.848
23073SOL    HW271052  13.688  13.233   6.941
23074SOL     OW71053  10.114  13.585  13.836
23074SOL    HW171054  10.104  13.570  13.930
23074SOL    HW271055  10.182  13.523  13.810
23075SOL     OW71056   7.027  13.856   0.986
23075SOL    HW171057   6.941  13.889   1.011
23075SOL    HW271058   7.009  13.788   0.920
23076SOL     OW71059   2.183  13.202  14.499
23076SOL    HW171060   2.141  13.197  14.413
23076SOL    HW271061   2.274  13.224  14.481
23077SOL     OW71062   8.880   6.030   5.029
23077SOL    HW171063   8.817   5.962   5.054
23077SOL    HW271064   8.834   6.113   5.045
23078SOL     OW71065   3.894   8.990   1.916
23078SOL    HW171066   3.959   8.921   1.930
23078SOL    HW271067   3.916   9.057   1.980
23079SOL     OW71068  11.335   5.391   2.902
23079SOL    HW171069  11.410   5.365   2.848
23079SOL    HW271070  11.373   5.431   2.980
23080SOL     OW71071   9.213   8.530   1.089
23080SOL    HW171072   9.120   8.548   1.075
23080SOL    HW271073   9.252   8.535   1.002
23081SOL     OW71074   8.069   0.472  14.235
23081SOL    HW171075   8.125   0.541  14.200
23081SOL    HW271076   7.992   0.517  14.269
23082SOL     OW71077   9.104   4.951   9.380
23082SOL    HW171078   9.190   4.993   9.375
23082SOL    HW271079   9.067   4.982   9.463
23083SOL     OW71080   1.757   4.339   9.291
23083SOL    HW171081   1.825   4.396   9.253
23083SOL    HW271082   1.720   4.391   9.362
23084SOL     OW71083   6.446  12.554   4.085
23084SOL    HW171084   6.470  12.637   4.125
23084SOL    HW271085   6.433  12.574   3.992
23085SOL     OW71086  10.241   2.116  13.427
23085SOL    HW171087  10.185   2.160  13.362
23085SOL    HW271088  10.192   2.126  13.509
23086SOL     OW71089  10.684  10.201   2.972
23086SOL    HW171090  10.680  10.254   2.892
23086SOL    HW271091  10.746  10.132   2.952
23087SOL     OW71092   9.181   2.133  12.952
23087SOL    HW171093   9.206   2.047  12.920
23087SOL    HW271094   9.085   2.135  12.946
23088SOL     OW71095   2.216  10.901   1.209
23088SOL    HW171096   2.141  10.915   1.267
23088SOL    HW271097   2.252  10.817   1.238
23089SOL     OW71098   9.884   5.136   4.933
23089SOL    HW171099   9.919   5.122   4.845
23089SOL    HW271100   9.875   5.049   4.970
23090SOL     OW71101  12.217   1.593  14.723
23090SOL    HW171102  12.233   1.503  14.696
23090SOL    HW271103  12.305   1.632  14.731
23091SOL     OW71104   6.989   8.180  14.380
23091SOL    HW171105   6.997   8.249  14.446
23091SOL    HW271106   6.896   8.176  14.360
23092SOL     OW71107   9.607   8.085   0.113
23092SOL    HW171108   9.641   7.997   0.128
23092SOL    HW271109   9.521   8.085   0.155
23093SOL     OW71110   0.628   5.741   0.991
23093SOL    HW171111   0.665   5.763   1.077
23093SOL    HW271112   0.658   5.811   0.933
23094SOL     OW71113   1.606   7.731  13.377
23094SOL    HW171114   1.633   7.801  13.318
23094SOL    HW271115   1.676   7.666  13.370
23095SOL     OW71116   6.724   6.179  10.786
23095SOL    HW171117   6.726   6.154  10.693
23095SOL    HW271118   6.802   6.138  10.823
23096SOL     OW71119   5.092   8.027   5.766
23096SOL    HW171120   5.173   8.067   5.798
23096SOL    HW271121   5.025   8.061   5.826
23097SOL     OW71122   5.834   6.921   4.307
23097SOL    HW171123   5.758   6.972   4.335
23097SOL    HW271124   5.897   6.930   4.378
23098SOL     OW71125   7.826   0.355   4.143
23098SOL    HW171126   7.860   0.268   4.164
23098SOL    HW271127   7.900   0.400   4.101
23099SOL     OW71128   1.958  12.407   1.189
23099SOL    HW171129   1.997  12.455   1.115
23099SOL    HW271130   1.948  12.472   1.258
23100SOL     OW71131   9.576   6.094   0.115
23100SOL    HW171132   9.607   6.159   0.052
23100SOL    HW271133   9.638   6.022   0.108
23101SOL     OW71134   7.255  14.280   6.817
23101SOL    HW171135   7.221  14.345   6.755
23101SOL    HW271136   7.211  14.199   6.793
23102SOL     OW71137  13.621   7.045   1.849
23102SOL    HW171138  13.606   7.090   1.766
23102SOL    HW271139  13.703   7.082   1.882
23103SOL     OW71140   9.705   1.254   7.876
23103SOL    HW171141   9.642   1.322   7.852
23103SOL    HW271142   9.652   1.174   7.884
23104SOL     OW71143  14.584  10.552   4.676
23104SOL    HW171144  14.522  10.574   4.746
23104SOL    HW271145  14.655  10.506   4.720
23105SOL     OW71146   1.161   1.832  11.912
23105SOL    HW171147   1.232   1.777  11.879
23105SOL    HW271148   1.196   1.921  11.910
23106SOL     OW71149  14.736  12.700  10.274
23106SOL    HW171150  14.658  12.713  10.328
23106SOL    HW271151  14.730  12.768  10.207
23107SOL     OW71152  13.256   8.438   9.422
23107SOL    HW171153  13.342   8.406   9.449
23107SOL    HW271154  13.220   8.477   9.501
23108SOL     OW71155   6.614   2.765  13.619
23108SOL    HW171156   6.522   2.788  13.610
23108SOL    HW271157   6.615   2.691  13.679
23109SOL     OW71158   5.292   3.461   1.348
23109SOL    HW171159   5.313   3.546   1.386
23109SOL    HW271160   5.348   3.399   1.395
23110SOL     OW71161  14.062   9.781  11.621
23110SOL    HW171162  14.144   9.794  11.573
23110SOL    HW271163  14.051   9.862  11.671
23111SOL     OW71164   3.821   1.685  13.174
23111SOL    HW171165   3.803   1.712  13.084
23111SOL    HW271166   3.742   1.708  13.223
23112SOL     OW71167  10.034   1.452  10.190
23112SOL    HW171168   9.947   1.463  10.227
23112SOL    HW271169  10.043   1.523  10.127
23113SOL     OW71170   0.930   1.123  11.918
23113SOL    HW171171   0.941   1.057  11.986
23113SOL    HW271172   0.931   1.074  11.836
23114SOL     OW71173   4.758  11.655   5.297
23114SOL    HW171174   4.839  11.681   5.339
23114SOL    HW271175   4.784  11.587   5.235
23115SOL     OW71176   1.003  13.607   8.041
23115SOL    HW171177   1.003  13.677   8.106
23115SOL    HW271178   1.072  13.631   7.979
23116SOL     OW71179   1.783   5.479   1.896
23116SOL    HW171180   1.776   5.415   1.825
23116SOL    HW271181   1.846   5.544   1.864
23117SOL     OW71182   1.037   3.347  11.477
23117SOL    HW171183   1.117   3.295  11.464
23117SOL    HW271184   1.028   3.396  11.395
23118SOL     OW71185   8.712   2.911  12.488
23118SOL    HW171186   8.799   2.874  12.502
23118SOL    HW271187   8.660   2.838  12.454
23119SOL     OW71188  14.294  13.058  14.239
23119SOL    HW171189  14.238  13.134  14.256
23119SOL    HW271190  14.252  12.986  14.287
23120SOL     OW71191   5.568   9.048  14.731
23120SOL    HW171192   5.472   9.039  14.730
23120SOL    HW271193   5.587   9.088  14.816
23121SOL     OW71194  10.449   9.889   4.143
23121SOL    HW171195  10.460   9.840   4.224
23121SOL    HW271196  10.536   9.887   4.102
23122SOL     OW71197  13.017   2.382   3.532
23122SOL    HW171198  13.038   2.329   3.609
23122SOL    HW271199  13.089   2.444   3.525
23123SOL     OW71200  12.737   0.532   1.499
23123SOL    HW171201  12.701   0.535   1.411
23123SOL    HW271202  12.660   0.528   1.556
23124SOL     OW71203   1.278   1.896   9.322
23124SOL    HW171204   1.219   1.968   9.302
23124SOL    HW271205   1.360   1.939   9.348
23125SOL     OW71206   8.593   9.455  11.718
23125SOL    HW171207   8.518   9.402  11.746
23125SOL    HW271208   8.659   9.391  11.692
23126SOL     OW71209  13.776   4.499   9.908
23126SOL    HW171210  13.783   4.448   9.988
23126SOL    HW271211  13.837   4.572   9.921
23127SOL     OW71212  10.929   4.340   2.067
23127SOL    HW171213  11.015   4.306   2.092
23127SOL    HW271214  10.925   4.426   2.108
23128SOL     OW71215   5.805   6.598   5.764
23128SOL    HW171216   5.732   6.660   5.773
23128SOL    HW271217   5.880   6.653   5.742
23129SOL     OW71218   3.325   4.309   0.489
23129SOL    HW171219   3.340   4.402   0.469
23129SOL    HW271220   3.271   4.310   0.568
23130SOL     OW71221   1.397   0.777   6.840
23130SOL    HW171222   1.313   0.789   6.796
23130SOL    HW271223   1.383   0.705   6.901
23131SOL     OW71224   4.250   8.843   1.259
23131SOL    HW171225   4.209   8.829   1.174
23131SOL    HW271226   4.230   8.763   1.308
23132SOL     OW71227  12.022  11.676   7.990
23132SOL    HW171228  11.966  11.612   7.946
23132SOL    HW271229  12.012  11.756   7.939
23133SOL     OW71230   5.022  11.886   3.368
23133SOL    HW171231   5.008  11.833   3.290
23133SOL    HW271232   5.085  11.953   3.341
23134SOL     OW71233   4.999   0.026  12.092
23134SOL    HW171234   5.008   0.120  12.107
23134SOL    HW271235   5.087  14.863  12.103
23135SOL     OW71236   1.617   7.246   6.213
23135SOL    HW171237   1.560   7.237   6.137
23135SOL    HW271238   1.597   7.333   6.248
23136SOL     OW71239   1.512   2.190  13.362
23136SOL    HW171240   1.420   2.197  13.336
23136SOL    HW271241   1.543   2.110  13.320
23137SOL     OW71242   9.636   6.505   5.340
23137SOL    HW171243   9.562   6.549   5.298
23137SOL    HW271244   9.713   6.554   5.311
23138SOL     OW71245   0.257  13.339   7.736
23138SOL    HW171246   0.294  13.379   7.814
23138SOL    HW271247   0.194  13.403   7.704
23139SOL     OW71248   6.099   8.921   8.228
23139SOL    HW171249   6.012   8.944   8.193
23139SOL    HW271250   6.160   8.952   8.162
23140SOL     OW71251   4.097   9.973   0.745
23140SOL    HW171252   4.063  10.063   0.746
23140SOL    HW271253   4.189   9.982   0.721
23141SOL     OW71254   1.413   0.951  14.305
23141SOL    HW171255   1.496   0.977  14.346
23141SOL    HW271256   1.392   1.023  14.246
23142SOL     OW71257   8.428  11.003   3.446
23142SOL    HW171258   8.493  11.072   3.435
23142SOL    HW271259   8.399  11.011   3.537
23143SOL     OW71260  14.458  10.467   7.666
23143SOL    HW171261  14.406  10.530   7.716
23143SOL    HW271262  14.427  10.382   7.694
23144SOL     OW71263  10.269   7.117   3.966
23144SOL    HW171264  10.334   7.153   4.027
23144SOL    HW271265  10.223   7.194   3.931
23145SOL     OW71266   8.085  12.030   5.831
23145SOL    HW171267   8.093  11.942   5.867
23145SOL    HW271268   8.098  12.088   5.906
23146SOL     OW71269   4.530  14.602   2.263
23146SOL    HW171270   4.619  14.579   2.289
23146SOL    HW271271   4.538  14.691   2.227
23147SOL     OW71272   5.607   8.215   0.771
23147SOL    HW171273   5.685   8.200   0.717
23147SOL    HW271274   5.534   8.213   0.708
23148SOL     OW71275  10.269   8.895   0.592
23148SOL    HW171276  10.348   8.949   0.586
23148SOL    HW271277  10.296   8.809   0.559
23149SOL     OW71278  13.705  11.637  11.744
23149SOL    HW171279  13.692  11.552  11.787
23149SOL    HW271280  13.662  11.700  11.802
23150SOL     OW71281   5.497   7.110   3.432
23150SOL    HW171282   5.591   7.106   3.416
23150SOL    HW271283   5.463   7.028   3.395
23151SOL     OW71284   1.877   5.851   5.160
23151SOL    HW171285   1.926   5.769   5.157
23151SOL    HW271286   1.927   5.910   5.104
23152SOL     OW71287  12.722  11.142   2.899
23152SOL    HW171288  12.805  11.095   2.897
23152SOL    HW271289  12.683  11.125   2.813
23153SOL     OW71290   3.348   4.422  14.014
23153SOL    HW171291   3.303   4.347  13.976
23153SOL    HW271292   3.357   4.401  14.107
23154SOL     OW71293  12.416  14.648   1.336
23154SOL    HW171294  12.339  14.704   1.322
23154SOL    HW271295  12.380  14.559   1.342
23155SOL     OW71296   9.043   1.962  11.053
23155SOL    HW171297   8.997   1.948  11.136
23155SOL    HW271298   9.101   2.036  11.070
23156SOL     OW71299   1.190  12.964   5.416
23156SOL    HW171300   1.195  12.957   5.320
23156SOL    HW271301   1.256  12.903   5.448
23157SOL     OW71302  11.196   3.665  14.577
23157SOL    HW171303  11.177   3.650  14.485
23157SOL    HW271304  11.217   3.759  14.582
23158SOL     OW71305   8.074  13.061   2.165
23158SOL    HW171306   8.132  13.114   2.111
23158SOL    HW271307   8.082  12.973   2.129
23159SOL     OW71308   9.846   5.236   0.030
23159SOL    HW171309   9.868   5.315  14.853
23159SOL    HW271310   9.778   5.264   0.091
23160SOL     OW71311   1.890   4.926   8.051
23160SOL    HW171312   1.948   4.978   7.997
23160SOL    HW271313   1.811   4.915   7.998
23161SOL     OW71314  13.092   6.999  12.413
23161SOL    HW171315  13.088   6.960  12.500
23161SOL    HW271316  13.124   7.088  12.429
23162SOL     OW71317   4.018  12.254  14.407
23162SOL    HW171318   4.025  12.259  14.502
23162SOL    HW271319   3.993  12.163  14.389
23163SOL     OW71320   7.057   4.822   0.279
23163SOL    HW171321   7.099   4.759   0.337
23163SOL    HW271322   7.044   4.900   0.332
23164SOL     OW71323   0.951   6.202   0.417
23164SOL    HW171324   0.941   6.238   0.329
23164SOL    HW271325   0.953   6.107   0.403
23165SOL     OW71326   3.988   0.374  11.229
23165SOL    HW171327   3.921   0.439  11.207
23165SOL    HW271328   4.029   0.352  11.145
23166SOL     OW71329   9.451   8.812   2.171
23166SOL    HW171330   9.442   8.791   2.264
23166SOL    HW271331   9.506   8.741   2.136
23167SOL     OW71332  14.550  13.375  10.169
23167SOL    HW171333  14.552  13.374  10.265
23167SOL    HW271334  14.527  13.285  10.145
23168SOL     OW71335  11.256  10.913  12.396
23168SOL    HW171336  11.319  10.903  12.324
23168SOL    HW271337  11.198  10.984  12.366
23169SOL     OW71338   4.075   4.332   5.196
23169SOL    HW171339   4.119   4.247   5.190
23169SOL    HW271340   4.118   4.387   5.132
23170SOL     OW71341   0.409  12.659  14.285
23170SOL    HW171342   0.483  12.667  14.345
23170SOL    HW271343   0.346  12.725  14.314
23171SOL     OW71344   9.630   8.375  12.659
23171SOL    HW171345   9.612   8.469  12.665
23171SOL    HW271346   9.547   8.333  12.679
23172SOL     OW71347   7.837   2.799   4.283
23172SOL    HW171348   7.829   2.877   4.227
23172SOL    HW271349   7.765   2.742   4.255
23173SOL     OW71350   0.170   3.493  14.173
23173SOL    HW171351   0.233   3.440  14.125
23173SOL    HW271352   0.166   3.454  14.260
23174SOL     OW71353   3.893   2.844   3.403
23174SOL    HW171354   3.948   2.770   3.376
23174SOL    HW271355   3.803   2.813   3.394
23175SOL     OW71356   4.062  12.474   0.686
23175SOL    HW171357   4.090  12.528   0.613
23175SOL    HW271358   4.126  12.403   0.689
23176SOL     OW71359  12.772  13.927   5.605
23176SOL    HW171360  12.805  13.839   5.621
23176SOL    HW271361  12.850  13.980   5.590
23177SOL     OW71362   3.211   6.005   9.000
23177SOL    HW171363   3.226   6.087   8.954
23177SOL    HW271364   3.173   5.947   8.934
23178SOL     OW71365   6.787   9.500   9.192
23178SOL    HW171366   6.695   9.511   9.170
23178SOL    HW271367   6.789   9.425   9.250
23179SOL     OW71368   2.551  10.915   0.055
23179SOL    HW171369   2.533  10.841  14.869
23179SOL    HW271370   2.468  10.962   0.061
23180SOL     OW71371  14.130   2.021   1.310
23180SOL    HW171372  14.103   2.111   1.291
23180SOL    HW271373  14.225   2.024   1.307
23181SOL     OW71374  12.016   2.617  12.273
23181SOL    HW171375  11.925   2.592  12.256
23181SOL    HW271376  12.015   2.656  12.360
23182SOL     OW71377   6.454   7.168  13.203
23182SOL    HW171378   6.364   7.200  13.209
23182SOL    HW271379   6.451   7.101  13.135
23183SOL     OW71380   5.281   8.197   3.630
23183SOL    HW171381   5.193   8.160   3.643
23183SOL    HW271382   5.305   8.231   3.716
23184SOL     OW71383   8.389   2.236  10.634
23184SOL    HW171384   8.479   2.265  10.648
23184SOL    HW271385   8.386   2.147  10.666
23185SOL     OW71386  12.652   5.257   2.906
23185SOL    HW171387  12.639   5.199   2.981
23185SOL    HW271388  12.584   5.231   2.843
23186SOL     OW71389   3.007   8.418   2.224
23186SOL    HW171390   3.049   8.454   2.146
23186SOL    HW271391   3.079   8.399   2.283
23187SOL     OW71392   8.099  10.377  13.616
23187SOL    HW171393   8.043  10.322  13.561
23187SOL    HW271394   8.039  10.439  13.657
23188SOL     OW71395   9.244  13.824   3.888
23188SOL    HW171396   9.236  13.886   3.960
23188SOL    HW271397   9.334  13.791   3.895
23189SOL     OW71398   0.309   5.353   5.661
23189SOL    HW171399   0.351   5.409   5.727
23189SOL    HW271400   0.355   5.374   5.579
23190SOL     OW71401   6.832   2.778   0.867
23190SOL    HW171402   6.780   2.698   0.876
23190SOL    HW271403   6.829   2.819   0.953
23191SOL     OW71404  12.113  11.607  13.924
23191SOL    HW171405  12.182  11.628  13.986
23191SOL    HW271406  12.140  11.647  13.841
23192SOL     OW71407   4.695   8.640   5.304
23192SOL    HW171408   4.739   8.602   5.380
23192SOL    HW271409   4.611   8.670   5.339
23193SOL     OW71410  14.266   9.965  10.976
23193SOL    HW171411  14.177   9.995  10.993
23193SOL    HW271412  14.259   9.870  10.971
23194SOL     OW71413   9.774   7.714   3.501
23194SOL    HW171414   9.776   7.669   3.586
23194SOL    HW271415   9.695   7.681   3.458
23195SOL     OW71416   3.519   1.345   2.179
23195SOL    HW171417   3.613   1.332   2.186
23195SOL    HW271418   3.481   1.260   2.201
23196SOL     OW71419   8.598   4.132  10.815
23196SOL    HW171420   8.506   4.157  10.827
23196SOL    HW271421   8.640   4.211  10.781
23197SOL     OW71422   5.057  12.156   7.362
23197SOL    HW171423   5.099  12.124   7.282
23197SOL    HW271424   5.096  12.104   7.432
23198SOL     OW71425   9.363   4.327   4.102
23198SOL    HW171426   9.278   4.371   4.096
23198SOL    HW271427   9.391   4.316   4.011
23199SOL     OW71428  14.718   4.227  13.936
23199SOL    HW171429  14.649   4.184  13.886
23199SOL    HW271430  14.684   4.315  13.953
23200SOL     OW71431  14.569   2.605   4.840
23200SOL    HW171432  14.542   2.692   4.811
23200SOL    HW271433  14.505   2.581   4.907
23201SOL     OW71434   4.669  11.704  11.458
23201SOL    HW171435   4.761  11.680  11.457
23201SOL    HW271436   4.644  11.701  11.551
23202SOL     OW71437  10.598  11.908  14.017
23202SOL    HW171438  10.676  11.943  13.974
23202SOL    HW271439  10.632  11.848  14.084
23203SOL     OW71440   8.386   5.252   8.148
23203SOL    HW171441   8.445   5.181   8.123
23203SOL    HW271442   8.359   5.231   8.237
23204SOL     OW71443   3.655   8.292  12.957
23204SOL    HW171444   3.736   8.283  13.007
23204SOL    HW271445   3.685   8.304  12.866
23205SOL     OW71446   7.152  10.009   8.982
23205SOL    HW171447   7.091   9.950   8.938
23205SOL    HW271448   7.231  10.007   8.928
23206SOL     OW71449   4.549  14.335  13.956
23206SOL    HW171450   4.605  14.341  14.033
23206SOL    HW271451   4.524  14.242  13.952
23207SOL     OW71452   3.538   6.223   6.134
23207SOL    HW171453   3.473   6.195   6.069
23207SOL    HW271454   3.504   6.307   6.166
23208SOL     OW71455   1.795   6.948   5.713
23208SOL    HW171456   1.800   6.935   5.808
23208SOL    HW271457   1.817   7.040   5.700
23209SOL     OW71458   2.260  14.075   9.555
23209SOL    HW171459   2.306  14.017   9.495
23209SOL    HW271460   2.251  14.157   9.507
23210SOL     OW71461  10.499   0.675   2.095
23210SOL    HW171462  10.422   0.637   2.053
23210SOL    HW271463  10.541   0.728   2.026
23211SOL     OW71464  11.679   5.487   2.438
23211SOL    HW171465  11.615   5.470   2.369
23211SOL    HW271466  11.760   5.446   2.406
23212SOL     OW71467   3.664   8.307   3.335
23212SOL    HW171468   3.579   8.281   3.298
23212SOL    HW271469   3.694   8.378   3.279
23213SOL     OW71470  13.579   2.189   6.834
23213SOL    HW171471  13.566   2.139   6.753
23213SOL    HW271472  13.646   2.139   6.882
23214SOL     OW71473  10.409  13.960   7.934
23214SOL    HW171474  10.467  14.022   7.889
23214SOL    HW271475  10.322  13.978   7.899
23215SOL     OW71476   8.963   6.205  13.985
23215SOL    HW171477   9.044   6.194  13.936
23215SOL    HW271478   8.967   6.139  14.054
23216SOL     OW71479   1.036   0.165   7.664
23216SOL    HW171480   0.975   0.167   7.590
23216SOL    HW271481   0.997   0.224   7.729
23217SOL     OW71482   1.591   9.972   5.256
23217SOL    HW171483   1.556   9.885   5.238
23217SOL    HW271484   1.635   9.998   5.174
23218SOL     OW71485  11.667   9.368   0.751
23218SOL    HW171486  11.751   9.415   0.753
23218SOL    HW271487  11.683   9.292   0.694
23219SOL     OW71488   0.406   9.101   9.820
23219SOL    HW171489   0.335   9.162   9.804
23219SOL    HW271490   0.443   9.127   9.904
23220SOL     OW71491   6.654   9.340  11.679
23220SOL    HW171492   6.647   9.390  11.761
23220SOL    HW271493   6.747   9.321  11.671
23221SOL     OW71494   1.171   7.889   9.358
23221SOL    HW171495   1.252   7.925   9.324
23221SOL    HW271496   1.162   7.927   9.446
23222SOL     OW71497  13.071   1.812   5.293
23222SOL    HW171498  13.091   1.768   5.210
23222SOL    HW271499  12.977   1.799   5.305
23223SOL     OW71500  11.166  11.883   3.751
23223SOL    HW171501  11.162  11.979   3.752
23223SOL    HW271502  11.074  11.856   3.749
23224SOL     OW71503   9.659   5.996   9.027
23224SOL    HW171504   9.637   6.015   8.936
23224SOL    HW271505   9.698   6.077   9.060
23225SOL     OW71506  10.824  13.320   9.132
23225SOL    HW171507  10.783  13.406   9.141
23225SOL    HW271508  10.906  13.327   9.181
23226SOL     OW71509   1.187   5.512  10.455
23226SOL    HW171510   1.110   5.460  10.431
23226SOL    HW271511   1.244   5.507  10.378
23227SOL     OW71512  12.991  11.541   3.629
23227SOL    HW171513  12.922  11.508   3.687
23227SOL    HW271514  13.056  11.580   3.688
23228SOL     OW71515   6.200   2.428  11.983
23228SOL    HW171516   6.148   2.495  12.028
23228SOL    HW271517   6.288   2.466  11.978
23229SOL     OW71518  11.677   7.102  11.579
23229SOL    HW171519  11.627   7.105  11.661
23229SOL    HW271520  11.762   7.065  11.605
23230SOL     OW71521   3.577   7.630  11.759
23230SOL    HW171522   3.593   7.539  11.784
23230SOL    HW271523   3.662   7.660  11.724
23231SOL     OW71524   5.249  14.565   0.911
23231SOL    HW171525   5.271  14.504   0.840
23231SOL    HW271526   5.194  14.631   0.869
23232SOL     OW71527   0.588   3.104   5.549
23232SOL    HW171528   0.634   3.182   5.516
23232SOL    HW271529   0.517   3.140   5.602
23233SOL     OW71530   5.090   3.544   1.839
23233SOL    HW171531   5.005   3.534   1.795
23233SOL    HW271532   5.132   3.459   1.830
23234SOL     OW71533   0.577   1.829   2.314
23234SOL    HW171534   0.552   1.828   2.406
23234SOL    HW271535   0.582   1.737   2.289
23235SOL     OW71536   8.873   2.971  13.041
23235SOL    HW171537   8.912   2.884  13.029
23235SOL    HW271538   8.847   2.998  12.953
23236SOL     OW71539   4.291   7.919   5.985
23236SOL    HW171540   4.384   7.896   5.991
23236SOL    HW271541   4.281   7.956   5.897
23237SOL     OW71542   4.857   5.394  12.722
23237SOL    HW171543   4.763   5.375  12.724
23237SOL    HW271544   4.897   5.319  12.766
23238SOL     OW71545   8.486   1.422   7.193
23238SOL    HW171546   8.504   1.515   7.205
23238SOL    HW271547   8.505   1.406   7.100
23239SOL     OW71548   3.260   5.894   9.571
23239SOL    HW171549   3.334   5.898   9.511
23239SOL    HW271550   3.192   5.847   9.523
23240SOL     OW71551   5.795  13.664   4.211
23240SOL    HW171552   5.732  13.627   4.149
23240SOL    HW271553   5.852  13.720   4.157
23241SOL     OW71554  12.669   8.119   1.491
23241SOL    HW171555  12.584   8.076   1.474
23241SOL    HW271556  12.681   8.177   1.416
23242SOL     OW71557   8.858  10.496   0.452
23242SOL    HW171558   8.822  10.540   0.530
23242SOL    HW271559   8.810  10.535   0.379
23243SOL     OW71560   1.170   0.440   3.051
23243SOL    HW171561   1.112   0.379   3.096
23243SOL    HW271562   1.250   0.441   3.104
23244SOL     OW71563   9.177   1.886   2.256
23244SOL    HW171564   9.183   1.836   2.338
23244SOL    HW271565   9.243   1.847   2.199
23245SOL     OW71566   5.260   7.600   1.332
23245SOL    HW171567   5.246   7.520   1.382
23245SOL    HW271568   5.259   7.572   1.241
23246SOL     OW71569   8.979  14.811  12.672
23246SOL    HW171570   8.915  14.743  12.695
23246SOL    HW271571   9.019  14.835  12.756
23247SOL     OW71572   3.752   9.197  12.970
23247SOL    HW171573   3.836   9.157  12.990
23247SOL    HW271574   3.690   9.124  12.969
23248SOL     OW71575   3.161   2.377   7.340
23248SOL    HW171576   3.256   2.366   7.340
23248SOL    HW271577   3.147   2.471   7.351
23249SOL     OW71578  13.104  11.079   5.359
23249SOL    HW171579  13.123  10.997   5.404
23249SOL    HW271580  13.009  11.082   5.353
23250SOL     OW71581  14.790  11.275   5.659
23250SOL    HW171582  14.845  11.201   5.685
23250SOL    HW271583  14.777  11.263   5.565
23251SOL     OW71584  14.831  11.849  13.043
23251SOL    HW171585  14.782  11.923  13.079
23251SOL    HW271586  14.780  11.822  12.967
23252SOL     OW71587   8.833   0.404   3.426
23252SOL    HW171588   8.830   0.487   3.378
23252SOL    HW271589   8.914   0.409   3.477
23253SOL     OW71590  11.436  10.619   6.878
23253SOL    HW171591  11.421  10.617   6.973
23253SOL    HW271592  11.380  10.691   6.848
23254SOL     OW71593   7.472   0.938  10.510
23254SOL    HW171594   7.398   0.998  10.520
23254SOL    HW271595   7.431   0.851  10.503
23255SOL     OW71596   3.114  11.390   4.646
23255SOL    HW171597   3.047  11.456   4.627
23255SOL    HW271598   3.167  11.428   4.715
23256SOL     OW71599   8.745  11.534  10.235
23256SOL    HW171600   8.732  11.549  10.329
23256SOL    HW271601   8.709  11.612  10.193
23257SOL     OW71602   6.609   5.725   2.176
23257SOL    HW171603   6.523   5.689   2.156
23257SOL    HW271604   6.598   5.769   2.260
23258SOL     OW71605  14.216  10.480   9.484
23258SOL    HW171606  14.300  10.501   9.444
23258SOL    HW271607  14.224  10.388   9.510
23259SOL     OW71608   7.887  10.483   4.675
23259SOL    HW171609   7.804  10.458   4.634
23259SOL    HW271610   7.890  10.434   4.757
23260SOL     OW71611   9.081   5.287   3.627
23260SOL    HW171612   9.051   5.329   3.707
23260SOL    HW271613   9.145   5.348   3.590
23261SOL     OW71614  10.102   1.164   6.668
23261SOL    HW171615  10.053   1.132   6.593
23261SOL    HW271616  10.117   1.257   6.650
23262SOL     OW71617   1.924   9.176   8.299
23262SOL    HW171618   1.888   9.211   8.218
23262SOL    HW271619   2.019   9.185   8.289
23263SOL     OW71620  11.276   9.221   4.329
23263SOL    HW171621  11.250   9.245   4.240
23263SOL    HW271622  11.288   9.304   4.375
23264SOL     OW71623  10.006   4.827  11.215
23264SOL    HW171624  10.095   4.845  11.183
23264SOL    HW271625  10.014   4.832  11.310
23265SOL     OW71626  11.442  10.145   0.281
23265SOL    HW171627  11.407  10.059   0.304
23265SOL    HW271628  11.384  10.177   0.212
23266SOL     OW71629   6.148   3.965   9.102
23266SOL    HW171630   6.201   4.002   9.173
23266SOL    HW271631   6.072   4.022   9.095
23267SOL     OW71632   9.070   0.682   1.634
23267SOL    HW171633   8.981   0.711   1.652
23267SOL    HW271634   9.096   0.731   1.555
23268SOL     OW71635   0.669   9.855   6.275
23268SOL    HW171636   0.713   9.925   6.322
23268SOL    HW271637   0.645   9.791   6.342
23269SOL     OW71638  13.181   2.990   7.590
23269SOL    HW171639  13.252   2.954   7.644
23269SOL    HW271640  13.167   3.078   7.625
23270SOL     OW71641   1.455  13.030   0.787
23270SOL    HW171642   1.525  13.003   0.847
23270SOL    HW271643   1.414  13.105   0.831
23271SOL     OW71644  13.642   5.936  10.857
23271SOL    HW171645  13.585   5.889  10.917
23271SOL    HW271646  13.606   6.024  10.851
23272SOL     OW71647   7.472  10.972   2.245
23272SOL    HW171648   7.523  10.891   2.246
23272SOL    HW271649   7.406  10.958   2.176
23273SOL     OW71650   1.097   0.041   5.524
23273SOL    HW171651   1.122  14.858   5.449
23273SOL    HW271652   1.168   0.105   5.530
23274SOL     OW71653   1.648  10.079  10.773
23274SOL    HW171654   1.572  10.138  10.776
23274SOL    HW271655   1.624  10.007  10.832
23275SOL     OW71656  12.940  13.179  12.111
23275SOL    HW171657  12.908  13.102  12.157
23275SOL    HW271658  12.935  13.155  12.018
23276SOL     OW71659  12.081   4.794  14.099
23276SOL    HW171660  12.035   4.752  14.026
23276SOL    HW271661  12.170   4.807  14.066
23277SOL     OW71662  12.108  12.024   3.860
23277SOL    HW171663  12.151  12.030   3.774
23277SOL    HW271664  12.072  11.935   3.863
23278SOL     OW71665   7.984   8.461   0.668
23278SOL    HW171666   7.931   8.391   0.706
23278SOL    HW271667   8.007   8.429   0.581
23279SOL     OW71668  10.032   7.634  14.172
23279SOL    HW171669  10.039   7.696  14.099
23279SOL    HW271670   9.938   7.630  14.191
23280SOL     OW71671   9.354  14.452   8.285
23280SOL    HW171672   9.400  14.466   8.202
23280SOL    HW271673   9.261  14.459   8.263
23281SOL     OW71674   0.621   0.438   6.116
23281SOL    HW171675   0.538   0.398   6.141
23281SOL    HW271676   0.604   0.532   6.117
23282SOL     OW71677   6.543  13.021  14.122
23282SOL    HW171678   6.501  13.074  14.189
23282SOL    HW271679   6.614  12.976  14.167
23283SOL     OW71680   6.114  12.107  13.978
23283SOL    HW171681   6.073  12.080  14.060
23283SOL    HW271682   6.050  12.083  13.911
23284SOL     OW71683  10.605   9.361   4.300
23284SOL    HW171684  10.525   9.331   4.257
23284SOL    HW271685  10.637   9.431   4.242
23285SOL     OW71686   3.008  13.722  11.197
23285SOL    HW171687   3.003  13.675  11.114
23285SOL    HW271688   2.917  13.746  11.217
23286SOL     OW71689   0.732   3.889  13.955
23286SOL    HW171690   0.681   3.966  13.981
23286SOL    HW271691   0.801   3.882  14.021
23287SOL     OW71692   6.784   5.631   0.146
23287SOL    HW171693   6.868   5.584   0.149
23287SOL    HW271694   6.780   5.666   0.057
23288SOL     OW71695   1.977  11.879  13.543
23288SOL    HW171696   1.909  11.832  13.494
23288SOL    HW271697   1.941  11.890  13.630
23289SOL     OW71698   2.430   6.083   4.406
23289SOL    HW171699   2.421   6.175   4.380
23289SOL    HW271700   2.380   6.034   4.341
23290SOL     OW71701  10.635   8.096  13.932
23290SOL    HW171702  10.619   8.062  14.020
23290SOL    HW271703  10.556   8.147  13.911
23291SOL     OW71704   0.989   6.464  14.647
23291SOL    HW171705   1.044   6.475  14.569
23291SOL    HW271706   0.900   6.480  14.615
23292SOL     OW71707  11.137   5.761   2.052
23292SOL    HW171708  11.080   5.741   2.126
23292SOL    HW271709  11.085   5.741   1.975
23293SOL     OW71710   6.967   7.579   5.175
23293SOL    HW171711   7.000   7.669   5.178
23293SOL    HW271712   6.872   7.587   5.180
23294SOL     OW71713   0.161   2.194  11.900
23294SOL    HW171714   0.130   2.281  11.923
23294SOL    HW271715   0.112   2.171  11.821
23295SOL     OW71716   6.532   7.022   8.453
23295SOL    HW171717   6.536   6.954   8.520
23295SOL    HW271718   6.561   7.102   8.497
23296SOL     OW71719   5.172  11.254   8.774
23296SOL    HW171720   5.253  11.219   8.811
23296SOL    HW271721   5.107  11.186   8.792
23297SOL     OW71722  10.095  13.154   1.527
23297SOL    HW171723  10.127  13.071   1.562
23297SOL    HW271724  10.115  13.150   1.433
23298SOL     OW71725   1.399   0.525   1.920
23298SOL    HW171726   1.372   0.566   1.838
23298SOL    HW271727   1.323   0.532   1.978
23299SOL     OW71728   3.888  11.343  13.500
23299SOL    HW171729   3.862  11.432  13.521
23299SOL    HW271730   3.807  11.293  13.499
23300SOL     OW71731   2.599   5.807   0.127
23300SOL    HW171732   2.537   5.870   0.090
23300SOL    HW271733   2.641   5.854   0.198
23301SOL     OW71734   5.870   4.402   3.490
23301SOL    HW171735   5.784   4.384   3.530
23301SOL    HW271736   5.857   4.485   3.443
23302SOL     OW71737   7.942   0.009  10.078
23302SOL    HW171738   7.946   0.105  10.082
23302SOL    HW271739   7.905  14.855  10.163
23303SOL     OW71740   4.641   8.199   8.386
23303SOL    HW171741   4.634   8.105   8.375
23303SOL    HW271742   4.560   8.234   8.348
23304SOL     OW71743   7.168   8.256   6.954
23304SOL    HW171744   7.096   8.276   6.895
23304SOL    HW271745   7.179   8.336   7.006
23305SOL     OW71746   2.548  12.524   5.249
23305SOL    HW171747   2.474  12.578   5.222
23305SOL    HW271748   2.554  12.538   5.344
23306SOL     OW71749  10.273  12.492   4.533
23306SOL    HW171750  10.342  12.553   4.505
23306SOL    HW271751  10.216  12.545   4.588
23307SOL     OW71752  10.199  10.939   4.712
23307SOL    HW171753  10.291  10.912   4.719
23307SOL    HW271754  10.203  11.033   4.698
23308SOL     OW71755   5.418   1.004  12.835
23308SOL    HW171756   5.346   1.064  12.853
23308SOL    HW271757   5.397   0.966  12.750
23309SOL     OW71758  11.465  13.611   5.616
23309SOL    HW171759  11.433  13.545   5.678
23309SOL    HW271760  11.418  13.592   5.535
23310SOL     OW71761   0.605   0.047   9.760
23310SOL    HW171762   0.528  14.868   9.737
23310SOL    HW271763   0.593   0.131   9.716
23311SOL     OW71764   7.419   7.126  14.461
23311SOL    HW171765   7.358   7.147  14.532
23311SOL    HW271766   7.495   7.181  14.478
23312SOL     OW71767   3.778   6.624   5.215
23312SOL    HW171768   3.873   6.623   5.227
23312SOL    HW271769   3.752   6.532   5.218
23313SOL     OW71770  12.479  12.249   1.081
23313SOL    HW171771  12.524  12.306   1.144
23313SOL    HW271772  12.441  12.179   1.134
23314SOL     OW71773   2.140   5.138   1.588
23314SOL    HW171774   2.123   5.086   1.667
23314SOL    HW271775   2.157   5.226   1.621
23315SOL     OW71776   7.669   6.120   9.060
23315SOL    HW171777   7.574   6.104   9.057
23315SOL    HW271778   7.683   6.165   9.143
23316SOL     OW71779   7.191   0.444   9.253
23316SOL    HW171780   7.139   0.519   9.223
23316SOL    HW271781   7.214   0.464   9.343
23317SOL     OW71782   9.373  10.396   0.748
23317SOL    HW171783   9.298  10.349   0.713
23317SOL    HW271784   9.343  10.428   0.833
23318SOL     OW71785   8.411   3.088  14.247
23318SOL    HW171786   8.475   3.021  14.225
23318SOL    HW271787   8.339   3.074  14.185
23319SOL     OW71788   9.144  10.633   8.230
23319SOL    HW171789   9.124  10.628   8.137
23319SOL    HW271790   9.094  10.708   8.262
23320SOL     OW71791  14.207   1.097  14.158
23320SOL    HW171792  14.158   1.079  14.078
23320SOL    HW271793  14.159   1.050  14.226
23321SOL     OW71794  12.900  11.972  14.706
23321SOL    HW171795  12.807  11.994  14.709
23321SOL    HW271796  12.902  11.877  14.695
23322SOL     OW71797   6.578   5.507  10.768
23322SOL    HW171798   6.552   5.545  10.684
23322SOL    HW271799   6.496   5.475  10.807
23323SOL     OW71800   5.407   2.476  11.980
23323SOL    HW171801   5.366   2.549  12.026
23323SOL    HW271802   5.470   2.517  11.922
23324SOL     OW71803  12.642   8.518   8.799
23324SOL    HW171804  12.687   8.601   8.815
23324SOL    HW271805  12.699   8.470   8.738
23325SOL     OW71806  10.546  14.403  11.775
23325SOL    HW171807  10.529  14.343  11.703
23325SOL    HW271808  10.493  14.369  11.847
23326SOL     OW71809   1.711   2.787  13.362
23326SOL    HW171810   1.770   2.717  13.390
23326SOL    HW271811   1.686   2.831  13.443
23327SOL     OW71812   8.501   7.164   6.081
23327SOL    HW171813   8.581   7.142   6.128
23327SOL    HW271814   8.506   7.259   6.068
23328SOL     OW71815   6.638   1.023  13.815
23328SOL    HW171816   6.589   1.041  13.735
23328SOL    HW271817   6.723   0.991  13.784
23329SOL     OW71818   1.733   3.979  13.627
23329SOL    HW171819   1.754   4.061  13.584
23329SOL    HW271820   1.638   3.973  13.622
23330SOL     OW71821   7.873   4.883  13.111
23330SOL    HW171822   7.827   4.846  13.187
23330SOL    HW271823   7.820   4.855  13.036
23331SOL     OW71824  10.269   3.614   2.095
23331SOL    HW171825  10.263   3.545   2.028
23331SOL    HW271826  10.361   3.640   2.094
23332SOL     OW71827   9.858   9.633  10.453
23332SOL    HW171828   9.903   9.554  10.481
23332SOL    HW271829   9.852   9.626  10.357
23333SOL     OW71830   0.570  14.323   6.992
23333SOL    HW171831   0.612  14.402   7.026
23333SOL    HW271832   0.606  14.313   6.904
23334SOL     OW71833  12.959   2.222  11.383
23334SOL    HW171834  12.876   2.222  11.335
23334SOL    HW271835  12.993   2.134  11.372
23335SOL     OW71836   4.719  14.689   6.723
23335SOL    HW171837   4.629  14.712   6.701
23335SOL    HW271838   4.773  14.753   6.677
23336SOL     OW71839  13.383   6.364   9.207
23336SOL    HW171840  13.304   6.320   9.177
23336SOL    HW271841  13.436   6.294   9.245
23337SOL     OW71842   4.116   7.152   6.951
23337SOL    HW171843   4.053   7.205   6.901
23337SOL    HW271844   4.180   7.124   6.886
23338SOL     OW71845  10.439   7.647  13.082
23338SOL    HW171846  10.385   7.707  13.031
23338SOL    HW271847  10.500   7.609  13.019
23339SOL     OW71848   9.453  10.767   3.222
23339SOL    HW171849   9.386  10.833   3.205
23339SOL    HW271850   9.470  10.727   3.136
23340SOL     OW71851  14.598   2.229  12.937
23340SOL    HW171852  14.557   2.243  13.022
23340SOL    HW271853  14.663   2.160  12.953
23341SOL     OW71854  12.205  10.020   6.396
23341SOL    HW171855  12.285   9.969   6.388
23341SOL    HW271856  12.135   9.956   6.379
23342SOL     OW71857   3.232   6.164  10.111
23342SOL    HW171858   3.214   6.143  10.203
23342SOL    HW271859   3.301   6.102  10.086
23343SOL     OW71860   0.176  11.091   9.436
23343SOL    HW171861   0.195  11.007   9.394
23343SOL    HW271862   0.110  11.131   9.380
23344SOL     OW71863  11.465   7.421   3.945
23344SOL    HW171864  11.526   7.355   3.977
23344SOL    HW271865  11.408   7.373   3.885
23345SOL     OW71866  12.546   9.535   4.093
23345SOL    HW171867  12.612   9.468   4.110
23345SOL    HW271868  12.596   9.614   4.072
23346SOL     OW71869   4.376   3.898   0.919
23346SOL    HW171870   4.425   3.860   0.991
23346SOL    HW271871   4.296   3.933   0.960
23347SOL     OW71872   8.246   6.000  12.667
23347SOL    HW171873   8.246   6.041  12.753
23347SOL    HW271874   8.329   6.026  12.627
23348SOL     OW71875  10.780  11.850  13.051
23348SOL    HW171876  10.837  11.925  13.067
23348SOL    HW271877  10.746  11.863  12.963
23349SOL     OW71878   2.276  12.514  10.686
23349SOL    HW171879   2.313  12.462  10.614
23349SOL    HW271880   2.191  12.475  10.702
23350SOL     OW71881  11.788   4.576   5.086
23350SOL    HW171882  11.695   4.566   5.065
23350SOL    HW271883  11.831   4.571   5.000
23351SOL     OW71884   0.534   3.595   3.803
23351SOL    HW171885   0.601   3.528   3.820
23351SOL    HW271886   0.583   3.674   3.782
23352SOL     OW71887   7.108   6.268  12.310
23352SOL    HW171888   7.085   6.233  12.224
23352SOL    HW271889   7.053   6.346  12.320
23353SOL     OW71890   0.955   0.127   5.188
23353SOL    HW171891   0.992   0.193   5.131
23353SOL    HW271892   0.860   0.137   5.179
23354SOL     OW71893   0.165   8.361   5.349
23354SOL    HW171894   0.098   8.412   5.303
23354SOL    HW271895   0.116   8.308   5.411
23355SOL     OW71896  13.631   6.225  13.703
23355SOL    HW171897  13.661   6.304  13.749
23355SOL    HW271898  13.620   6.254  13.612
23356SOL     OW71899  11.537   5.729  11.013
23356SOL    HW171900  11.491   5.750  11.095
23356SOL    HW271901  11.506   5.642  10.990
23357SOL     OW71902   6.983   0.878   9.471
23357SOL    HW171903   6.986   0.782   9.478
23357SOL    HW271904   7.018   0.909   9.555
23358SOL     OW71905   2.175   2.454  10.208
23358SOL    HW171906   2.080   2.439  10.200
23358SOL    HW271907   2.211   2.368  10.229
23359SOL     OW71908  14.244   7.782   9.049
23359SOL    HW171909  14.334   7.773   9.017
23359SOL    HW271910  14.189   7.751   8.977
23360SOL     OW71911   0.137   8.234   4.958
23360SOL    HW171912   0.217   8.275   4.926
23360SOL    HW271913   0.066   8.289   4.923
23361SOL     OW71914   1.244   7.166  10.403
23361SOL    HW171915   1.179   7.225  10.363
23361SOL    HW271916   1.234   7.180  10.497
23362SOL     OW71917   3.461  13.903  11.834
23362SOL    HW171918   3.479  13.855  11.914
23362SOL    HW271919   3.397  13.969  11.859
23363SOL     OW71920   5.499   7.104  11.924
23363SOL    HW171921   5.590   7.109  11.893
23363SOL    HW271922   5.506   7.112  12.019
23364SOL     OW71923   7.545   7.250   1.249
23364SOL    HW171924   7.633   7.231   1.280
23364SOL    HW271925   7.534   7.194   1.172
23365SOL     OW71926  13.727  11.028   3.937
23365SOL    HW171927  13.793  10.961   3.917
23365SOL    HW271928  13.668  10.986   3.999
23366SOL     OW71929  11.864  11.176   7.021
23366SOL    HW171930  11.900  11.135   7.099
23366SOL    HW271931  11.785  11.126   7.002
23367SOL     OW71932  13.434   4.277   7.523
23367SOL    HW171933  13.527   4.291   7.507
23367SOL    HW271934  13.414   4.195   7.477
23368SOL     OW71935   8.932  10.313   3.045
23368SOL    HW171936   8.868  10.311   2.973
23368SOL    HW271937   9.000  10.252   3.018
23369SOL     OW71938   2.423   6.768   3.960
23369SOL    HW171939   2.359   6.774   4.031
23369SOL    HW271940   2.491   6.709   3.992
23370SOL     OW71941   3.876   6.846   4.742
23370SOL    HW171942   3.923   6.927   4.761
23370SOL    HW271943   3.841   6.819   4.827
23371SOL     OW71944   6.027   2.583   1.825
23371SOL    HW171945   5.984   2.601   1.909
23371SOL    HW271946   6.107   2.535   1.849
23372SOL     OW71947   2.763   3.700   9.260
23372SOL    HW171948   2.717   3.730   9.181
23372SOL    HW271949   2.703   3.720   9.331
23373SOL     OW71950   4.834  12.248   0.659
23373SOL    HW171951   4.881  12.170   0.630
23373SOL    HW271952   4.742  12.222   0.661
23374SOL     OW71953   3.736   9.031   7.143
23374SOL    HW171954   3.685   9.093   7.195
23374SOL    HW271955   3.703   8.945   7.170
23375SOL     OW71956  11.987  14.749  12.748
23375SOL    HW171957  11.944  14.711  12.825
23375SOL    HW271958  11.923  14.740  12.678
23376SOL     OW71959   2.021   7.839  13.429
23376SOL    HW171960   2.001   7.750  13.399
23376SOL    HW271961   1.980   7.845  13.515
23377SOL     OW71962   5.868   4.744  10.716
23377SOL    HW171963   5.845   4.665  10.766
23377SOL    HW271964   5.852   4.720  10.624
23378SOL     OW71965  11.795   0.126   2.748
23378SOL    HW171966  11.713   0.160   2.784
23378SOL    HW271967  11.775   0.035   2.724
23379SOL     OW71968  10.958   2.349  12.809
23379SOL    HW171969  10.914   2.431  12.832
23379SOL    HW271970  10.902   2.309  12.742
23380SOL     OW71971   6.936   3.044  10.637
23380SOL    HW171972   7.019   3.091  10.644
23380SOL    HW271973   6.962   2.954  10.615
23381SOL     OW71974  10.628  13.642   0.580
23381SOL    HW171975  10.548  13.666   0.626
23381SOL    HW271976  10.699  13.681   0.633
23382SOL     OW71977  11.697  11.491   0.795
23382SOL    HW171978  11.628  11.521   0.736
23382SOL    HW271979  11.775  11.541   0.768
23383SOL     OW71980   5.019   4.933   6.633
23383SOL    HW171981   5.058   4.911   6.548
23383SOL    HW271982   5.032   5.027   6.641
23384SOL     OW71983   3.284   4.917   8.324
23384SOL    HW171984   3.320   4.832   8.301
23384SOL    HW271985   3.285   4.919   8.420
23385SOL     OW71986   4.704   4.269   2.653
23385SOL    HW171987   4.775   4.300   2.709
23385SOL    HW271988   4.628   4.262   2.711
23386SOL     OW71989   0.309   3.547   8.914
23386SOL    HW171990   0.246   3.494   8.964
23386SOL    HW271991   0.262   3.571   8.834
23387SOL     OW71992  14.345  12.840   4.775
23387SOL    HW171993  14.401  12.762   4.777
23387SOL    HW271994  14.257  12.806   4.789
23388SOL     OW71995   3.871   7.193  12.651
23388SOL    HW171996   3.860   7.259  12.719
23388SOL    HW271997   3.791   7.197  12.600
23389SOL     OW71998  12.686   1.884   7.799
23389SOL    HW171999  12.642   1.800   7.810
23389SOL    HW272000  12.627   1.936   7.745
23390SOL     OW72001  12.188   0.438   3.335
23390SOL    HW172002  12.110   0.491   3.350
23390SOL    HW272003  12.179   0.406   3.245
23391SOL     OW72004   8.027  10.079   1.483
23391SOL    HW172005   8.121  10.063   1.479
23391SOL    HW272006   8.014  10.161   1.437
23392SOL     OW72007   3.012  12.872   9.155
23392SOL    HW172008   2.970  12.794   9.118
23392SOL    HW272009   2.964  12.888   9.236
23393SOL     OW72010   0.148  14.786   5.450
23393SOL    HW172011   0.082  14.855   5.461
23393SOL    HW272012   0.190  14.779   5.536
23394SOL     OW72013   2.885   3.348   8.983
23394SOL    HW172014   2.829   3.273   9.006
23394SOL    HW272015   2.829   3.404   8.929
23395SOL     OW72016   8.606   4.505   0.017
23395SOL    HW172017   8.604   4.434  14.826
23395SOL    HW272018   8.544   4.570  14.855
23396SOL     OW72019   7.928  12.681   7.658
23396SOL    HW172020   7.988  12.626   7.708
23396SOL    HW272021   7.984  12.729   7.596
23397SOL     OW72022   9.390   9.235  12.119
23397SOL    HW172023   9.361   9.158  12.168
23397SOL    HW272024   9.364   9.218  12.029
23398SOL     OW72025   4.141   0.373   1.903
23398SOL    HW172026   4.061   0.361   1.851
23398SOL    HW272027   4.111   0.362   1.994
23399SOL     OW72028   4.733   9.159   4.110
23399SOL    HW172029   4.733   9.255   4.111
23399SOL    HW272030   4.768   9.136   4.024
23400SOL     OW72031   5.683   6.644  11.737
23400SOL    HW172032   5.769   6.632  11.696
23400SOL    HW272033   5.702   6.667  11.828
23401SOL     OW72034  11.602   9.318   6.427
23401SOL    HW172035  11.588   9.241   6.372
23401SOL    HW272036  11.558   9.297   6.509
23402SOL     OW72037  14.139   8.387  11.661
23402SOL    HW172038  14.147   8.325  11.589
23402SOL    HW272039  14.073   8.451  11.631
23403SOL     OW72040  13.394   5.223   7.987
23403SOL    HW172041  13.361   5.165   7.918
23403SOL    HW272042  13.372   5.179   8.068
23404SOL     OW72043   6.206  13.764   8.390
23404SOL    HW172044   6.145  13.837   8.374
23404SOL    HW272045   6.268  13.799   8.455
23405SOL     OW72046   4.482  10.873  12.090
23405SOL    HW172047   4.449  10.896  12.177
23405SOL    HW272048   4.406  10.876  12.033
23406SOL     OW72049   9.279   6.690   6.085
23406SOL    HW172050   9.287   6.624   6.154
23406SOL    HW272051   9.271   6.640   6.004
23407SOL     OW72052   3.162   9.464   6.385
23407SOL    HW172053   3.222   9.394   6.413
23407SOL    HW272054   3.088   9.456   6.446
23408SOL     OW72055   1.604  11.912   6.713
23408SOL    HW172056   1.552  11.859   6.775
23408SOL    HW272057   1.642  11.848   6.653
23409SOL     OW72058   7.389   2.077   8.867
23409SOL    HW172059   7.374   1.983   8.872
23409SOL    HW272060   7.363   2.101   8.778
23410SOL     OW72061   4.127  11.676   3.961
23410SOL    HW172062   4.063  11.746   3.943
23410SOL    HW272063   4.172  11.662   3.878
23411SOL     OW72064   1.063   8.893   4.448
23411SOL    HW172065   0.989   8.909   4.507
23411SOL    HW272066   1.083   8.800   4.459
23412SOL     OW72067  11.220  14.091   9.118
23412SOL    HW172068  11.130  14.071   9.095
23412SOL    HW272069  11.219  14.183   9.144
23413SOL     OW72070   3.941  14.477  13.115
23413SOL    HW172071   3.901  14.563  13.101
23413SOL    HW272072   3.868  14.415  13.111
23414SOL     OW72073   5.111   7.993   1.037
23414SOL    HW172074   5.168   8.046   0.982
23414SOL    HW272075   5.029   8.042   1.041
23415SOL     OW72076   0.366  11.669   3.527
23415SOL    HW172077   0.404  11.612   3.460
23415SOL    HW272078   0.424  11.746   3.528
23416SOL     OW72079   2.034   3.859   2.108
23416SOL    HW172080   2.092   3.830   2.179
23416SOL    HW272081   2.045   3.793   2.040
23417SOL     OW72082   9.410   3.052   0.292
23417SOL    HW172083   9.366   3.032   0.209
23417SOL    HW272084   9.462   3.130   0.272
23418SOL     OW72085   6.743  10.431   6.373
23418SOL    HW172086   6.730  10.457   6.282
23418SOL    HW272087   6.699  10.347   6.381
23419SOL     OW72088   5.881  13.353   8.467
23419SOL    HW172089   5.874  13.259   8.450
23419SOL    HW272090   5.973  13.367   8.486
23420SOL     OW72091  11.342   2.692   3.647
23420SOL    HW172092  11.307   2.746   3.576
23420SOL    HW272093  11.265   2.669   3.699
23421SOL     OW72094   3.795  13.180   5.082
23421SOL    HW172095   3.860  13.247   5.061
23421SOL    HW272096   3.822  13.104   5.031
23422SOL     OW72097   7.764   5.608   2.466
23422SOL    HW172098   7.694   5.635   2.407
23422SOL    HW272099   7.802   5.690   2.498
23423SOL     OW72100  14.043   1.852   0.513
23423SOL    HW172101  13.985   1.789   0.471
23423SOL    HW272102  14.047   1.825   0.604
23424SOL     OW72103   3.034   2.061   1.299
23424SOL    HW172104   3.001   1.980   1.337
23424SOL    HW272105   3.088   2.099   1.368
23425SOL     OW72106   8.767   4.852   6.668
23425SOL    HW172107   8.797   4.914   6.735
23425SOL    HW272108   8.753   4.771   6.716
23426SOL     OW72109   1.254   0.738   3.076
23426SOL    HW172110   1.213   0.663   3.033
23426SOL    HW272111   1.287   0.792   3.003
23427SOL     OW72112  10.263  10.182   3.275
23427SOL    HW172113  10.350  10.217   3.261
23427SOL    HW272114  10.204  10.244   3.233
23428SOL     OW72115  12.762   2.079   7.527
23428SOL    HW172116  12.794   2.108   7.613
23428SOL    HW272117  12.841   2.053   7.479
23429SOL     OW72118   7.928   2.244   4.017
23429SOL    HW172119   7.841   2.215   4.044
23429SOL    HW272120   7.987   2.175   4.046
23430SOL     OW72121  12.561   9.655  14.510
23430SOL    HW172122  12.566   9.746  14.540
23430SOL    HW272123  12.483   9.620  14.551
23431SOL     OW72124  12.160   9.112   1.989
23431SOL    HW172125  12.241   9.066   2.011
23431SOL    HW272126  12.134   9.074   1.905
23432SOL     OW72127   1.602   3.255   8.870
23432SOL    HW172128   1.595   3.325   8.934
23432SOL    HW272129   1.696   3.242   8.859
23433SOL     OW72130   3.983  14.487  10.571
23433SOL    HW172131   3.991  14.510  10.663
23433SOL    HW272132   3.984  14.392  10.570
23434SOL     OW72133   3.046  12.232  11.209
23434SOL    HW172134   3.040  12.168  11.138
23434SOL    HW272135   2.979  12.205  11.272
23435SOL     OW72136   0.052   5.272   8.769
23435SOL    HW172137   0.048   5.266   8.865
23435SOL    HW272138   0.143   5.251   8.747
23436SOL     OW72139   5.694  14.775  10.493
23436SOL    HW172140   5.683  14.749  10.402
23436SOL    HW272141   5.789  14.780  10.505
23437SOL     OW72142   4.216   7.120   0.291
23437SOL    HW172143   4.176   7.083   0.212
23437SOL    HW272144   4.290   7.062   0.310
23438SOL     OW72145  10.216  12.032   5.247
23438SOL    HW172146  10.217  12.082   5.329
23438SOL    HW272147  10.205  11.941   5.274
23439SOL     OW72148   0.882   8.292   2.313
23439SOL    HW172149   0.884   8.225   2.381
23439SOL    HW272150   0.974   8.314   2.298
23440SOL     OW72151   6.924  13.316   4.988
23440SOL    HW172152   6.919  13.361   4.904
23440SOL    HW272153   7.012  13.334   5.020
23441SOL     OW72154   1.561  11.109  10.657
23441SOL    HW172155   1.542  11.018  10.678
23441SOL    HW272156   1.650  11.124  10.686
23442SOL     OW72157   5.804   7.722  12.277
23442SOL    HW172158   5.793   7.637  12.319
23442SOL    HW272159   5.825   7.782  12.348
23443SOL     OW72160   0.829   9.658  13.717
23443SOL    HW172161   0.796   9.741  13.682
23443SOL    HW272162   0.762   9.594  13.694
23444SOL     OW72163  10.532   3.484  12.398
23444SOL    HW172164  10.476   3.412  12.369
23444SOL    HW272165  10.485   3.524  12.471
23445SOL     OW72166  10.257  13.034  13.443
23445SOL    HW172167  10.315  12.959  13.457
23445SOL    HW272168  10.199  13.006  13.372
23446SOL     OW72169  12.363  11.455   9.239
23446SOL    HW172170  12.373  11.374   9.189
23446SOL    HW272171  12.301  11.433   9.309
23447SOL     OW72172  11.030  10.013   5.923
23447SOL    HW172173  11.019  10.101   5.889
23447SOL    HW272174  11.047  10.024   6.017
23448SOL     OW72175   6.008  13.067   3.565
23448SOL    HW172176   5.982  13.042   3.477
23448SOL    HW272177   6.016  12.984   3.613
23449SOL     OW72178   7.712   6.314  14.195
23449SOL    HW172179   7.627   6.287  14.160
23449SOL    HW272180   7.730   6.397  14.151
23450SOL     OW72181   0.274   7.621  12.075
23450SOL    HW172182   0.321   7.626  12.158
23450SOL    HW272183   0.197   7.676  12.087
23451SOL     OW72184  10.945   1.170   6.775
23451SOL    HW172185  10.967   1.214   6.857
23451SOL    HW272186  10.885   1.229   6.731
23452SOL     OW72187  13.378   5.989   2.017
23452SOL    HW172188  13.411   6.010   1.929
23452SOL    HW272189  13.448   6.018   2.076
23453SOL     OW72190   3.831   9.165   2.135
23453SOL    HW172191   3.828   9.073   2.159
23453SOL    HW272192   3.893   9.204   2.198
23454SOL     OW72193  14.586   2.116  14.685
23454SOL    HW172194  14.623   2.050  14.627
23454SOL    HW272195  14.572   2.070  14.768
23455SOL     OW72196  12.594  12.465   7.279
23455SOL    HW172197  12.652  12.539   7.292
23455SOL    HW272198  12.646  12.389   7.303
23456SOL     OW72199   5.228  11.472  10.996
23456SOL    HW172200   5.144  11.492  10.956
23456SOL    HW272201   5.208  11.456  11.088
23457SOL     OW72202   1.110   8.133   0.889
23457SOL    HW172203   1.164   8.124   0.811
23457SOL    HW272204   1.154   8.079   0.955
23458SOL     OW72205   9.154   9.679   6.795
23458SOL    HW172206   9.116   9.600   6.832
23458SOL    HW272207   9.248   9.667   6.803
23459SOL     OW72208  11.822  12.795  14.272
23459SOL    HW172209  11.805  12.885  14.247
23459SOL    HW272210  11.892  12.766  14.213
23460SOL     OW72211  12.333  11.183  11.334
23460SOL    HW172212  12.330  11.115  11.401
23460SOL    HW272213  12.287  11.257  11.373
23461SOL     OW72214   5.122  13.875  11.143
23461SOL    HW172215   5.113  13.857  11.050
23461SOL    HW272216   5.135  13.970  11.148
23462SOL     OW72217   6.870   2.389   0.712
23462SOL    HW172218   6.955   2.399   0.756
23462SOL    HW272219   6.817   2.341   0.775
23463SOL     OW72220  12.274  13.792   5.497
23463SOL    HW172221  12.264  13.885   5.513
23463SOL    HW272222  12.330  13.786   5.419
23464SOL     OW72223   6.589   1.070  14.377
23464SOL    HW172224   6.502   1.034  14.363
23464SOL    HW272225   6.578   1.164  14.374
23465SOL     OW72226   4.938  12.708  10.535
23465SOL    HW172227   4.901  12.661  10.610
23465SOL    HW272228   4.889  12.675  10.459
23466SOL     OW72229  12.778   3.572   4.141
23466SOL    HW172230  12.700   3.535   4.181
23466SOL    HW272231  12.746   3.614   4.061
23467SOL     OW72232   4.891   5.156  14.653
23467SOL    HW172233   4.872   5.077  14.703
23467SOL    HW272234   4.986   5.167  14.659
23468SOL     OW72235   5.113   3.315  14.563
23468SOL    HW172236   5.193   3.365  14.578
23468SOL    HW272237   5.072   3.358  14.488
23469SOL     OW72238   6.169   8.091   9.296
23469SOL    HW172239   6.195   8.164   9.240
23469SOL    HW272240   6.088   8.120   9.337
23470SOL     OW72241   0.225   0.774   6.660
23470SOL    HW172242   0.196   0.773   6.751
23470SOL    HW272243   0.218   0.683   6.631
23471SOL     OW72244   5.303  11.309   4.479
23471SOL    HW172245   5.391  11.274   4.466
23471SOL    HW272246   5.247  11.254   4.424
23472SOL     OW72247   2.694   4.983   3.851
23472SOL    HW172248   2.787   4.970   3.870
23472SOL    HW272249   2.687   5.076   3.828
23473SOL     OW72250  10.054   2.613  12.765
23473SOL    HW172251   9.959   2.627  12.762
23473SOL    HW272252  10.077   2.582  12.678
23474SOL     OW72253   3.274   5.425   6.005
23474SOL    HW172254   3.279   5.442   5.911
23474SOL    HW272255   3.202   5.480   6.036
23475SOL     OW72256  12.794  13.016   1.659
23475SOL    HW172257  12.845  12.986   1.584
23475SOL    HW272258  12.841  13.093   1.690
23476SOL     OW72259   2.546  10.222  14.491
23476SOL    HW172260   2.482  10.287  14.521
23476SOL    HW272261   2.495  10.162  14.436
23477SOL     OW72262   1.670   5.726   8.450
23477SOL    HW172263   1.759   5.745   8.419
23477SOL    HW272264   1.622   5.702   8.371
23478SOL     OW72265   4.074  13.289   7.791
23478SOL    HW172266   3.981  13.309   7.799
23478SOL    HW272267   4.094  13.234   7.867
23479SOL     OW72268   2.108   0.095   8.809
23479SOL    HW172269   2.145   0.178   8.778
23479SOL    HW272270   2.014   0.110   8.812
23480SOL     OW72271  10.994   6.213   9.230
23480SOL    HW172272  11.035   6.271   9.167
23480SOL    HW272273  11.065   6.184   9.287
23481SOL     OW72274   3.699  13.286  14.673
23481SOL    HW172275   3.691  13.353  14.605
23481SOL    HW272276   3.656  13.209  14.637
23482SOL     OW72277  13.235   0.747  10.136
23482SOL    HW172278  13.195   0.663  10.158
23482SOL    HW272279  13.273   0.733  10.049
23483SOL     OW72280   4.589   0.092  13.072
23483SOL    HW172281   4.637   0.175  13.072
23483SOL    HW272282   4.574   0.073  12.979
23484SOL     OW72283   9.693   6.109   8.053
23484SOL    HW172284   9.750   6.100   7.977
23484SOL    HW272285   9.753   6.134   8.124
23485SOL     OW72286   1.345   3.595   7.627
23485SOL    HW172287   1.319   3.516   7.579
23485SOL    HW272288   1.266   3.649   7.630
23486SOL     OW72289   7.806  14.854   2.167
23486SOL    HW172290   7.721   0.005   2.130
23486SOL    HW272291   7.869   0.028   2.112
23487SOL     OW72292   9.868   4.503  13.053
23487SOL    HW172293   9.952   4.546  13.068
23487SOL    HW272294   9.806   4.552  13.107
23488SOL     OW72295   9.282   8.158   6.603
23488SOL    HW172296   9.348   8.159   6.673
23488SOL    HW272297   9.326   8.197   6.528
23489SOL     OW72298   3.524   1.712   1.754
23489SOL    HW172299   3.577   1.648   1.801
23489SOL    HW272300   3.576   1.733   1.676
23490SOL     OW72301   1.784   7.759   2.527
23490SOL    HW172302   1.691   7.739   2.527
23490SOL    HW272303   1.799   7.804   2.610
23491SOL     OW72304   7.765   2.767   6.723
23491SOL    HW172305   7.836   2.818   6.683
23491SOL    HW272306   7.781   2.677   6.696
23492SOL     OW72307   1.122   3.349  13.258
23492SOL    HW172308   1.098   3.439  13.239
23492SOL    HW272309   1.053   3.297  13.216
23493SOL     OW72310  13.081  10.096  13.405
23493SOL    HW172311  13.030  10.125  13.481
23493SOL    HW272312  13.096  10.003  13.421
23494SOL     OW72313   9.819  13.246   9.535
23494SOL    HW172314   9.818  13.320   9.596
23494SOL    HW272315   9.898  13.258   9.484
23495SOL     OW72316  14.534   2.848  10.281
23495SOL    HW172317  14.627   2.868  10.277
23495SOL    HW272318  14.519   2.822  10.372
23496SOL     OW72319   7.092   9.087   2.347
23496SOL    HW172320   7.174   9.038   2.348
23496SOL    HW272321   7.118   9.178   2.337
23497SOL     OW72322   1.469   2.384  10.683
23497SOL    HW172323   1.389   2.344  10.718
23497SOL    HW272324   1.530   2.311  10.672
23498SOL     OW72325   5.064  10.209  13.235
23498SOL    HW172326   5.033  10.218  13.145
23498SOL    HW272327   5.134  10.274  13.243
23499SOL     OW72328  11.541   3.666   3.759
23499SOL    HW172329  11.563   3.683   3.667
23499SOL    HW272330  11.536   3.571   3.765
23500SOL     OW72331   1.067   7.316   5.052
23500SOL    HW172332   1.033   7.406   5.052
23500SOL    HW272333   1.085   7.298   4.960
23501SOL     OW72334  10.996   8.049   0.715
23501SOL    HW172335  11.045   8.071   0.636
23501SOL    HW272336  11.062   8.048   0.785
23502SOL     OW72337   4.581   1.145   7.234
23502SOL    HW172338   4.486   1.155   7.241
23502SOL    HW272339   4.613   1.149   7.324
23503SOL     OW72340   8.977   9.041  13.758
23503SOL    HW172341   8.986   9.016  13.850
23503SOL    HW272342   8.890   9.081  13.753
23504SOL     OW72343   8.544   0.967  11.794
23504SOL    HW172344   8.547   1.034  11.862
23504SOL    HW272345   8.475   0.907  11.823
23505SOL     OW72346   6.769  11.146   0.985
23505SOL    HW172347   6.712  11.125   1.059
23505SOL    HW272348   6.761  11.240   0.973
23506SOL     OW72349   2.411  11.825   3.167
23506SOL    HW172350   2.449  11.868   3.244
23506SOL    HW272351   2.446  11.874   3.093
23507SOL     OW72352  14.407  14.303  11.752
23507SOL    HW172353  14.432  14.395  11.748
23507SOL    HW272354  14.316  14.301  11.723
23508SOL     OW72355   7.769   7.546   6.725
23508SOL    HW172356   7.689   7.564   6.676
23508SOL    HW272357   7.768   7.607   6.798
23509SOL     OW72358   9.744  14.354   9.264
23509SOL    HW172359   9.806  14.427   9.257
23509SOL    HW272360   9.784  14.283   9.214
23510SOL     OW72361   5.190  14.544   3.239
23510SOL    HW172362   5.123  14.497   3.290
23510SOL    HW272363   5.272  14.500   3.262
23511SOL     OW72364   7.513  13.057   9.303
23511SOL    HW172365   7.516  13.069   9.397
23511SOL    HW272366   7.554  13.137   9.267
23512SOL     OW72367   3.914   0.523   2.884
23512SOL    HW172368   3.897   0.429   2.871
23512SOL    HW272369   3.997   0.539   2.840
23513SOL     OW72370  12.926  14.260   6.475
23513SOL    HW172371  12.876  14.245   6.555
23513SOL    HW272372  12.957  14.174   6.449
23514SOL     OW72373   2.492  11.316  13.553
23514SOL    HW172374   2.471  11.353  13.467
23514SOL    HW272375   2.460  11.226  13.549
23515SOL     OW72376   6.788  14.636  10.533
23515SOL    HW172377   6.761  14.619  10.442
23515SOL    HW272378   6.864  14.579  10.547
23516SOL     OW72379  13.596   5.068   6.754
23516SOL    HW172380  13.583   5.122   6.832
23516SOL    HW272381  13.511   5.068   6.710
23517SOL     OW72382   2.413   6.681  11.152
23517SOL    HW172383   2.490   6.736  11.165
23517SOL    HW272384   2.380   6.707  11.066
23518SOL     OW72385  13.045  14.271   0.044
23518SOL    HW172386  13.113  14.334   0.019
23518SOL    HW272387  12.989  14.265  14.840
23519SOL     OW72388   4.540  13.959   9.700
23519SOL    HW172389   4.490  13.877   9.703
23519SOL    HW272390   4.555  13.975   9.607
23520SOL     OW72391   7.600   3.972   6.572
23520SOL    HW172392   7.675   4.025   6.597
23520SOL    HW272393   7.582   3.918   6.649
23521SOL     OW72394   5.309  10.798  11.472
23521SOL    HW172395   5.225  10.818  11.431
23521SOL    HW272396   5.285  10.748  11.551
23522SOL     OW72397  14.839  11.219   9.817
23522SOL    HW172398  14.789  11.185   9.891
23522SOL    HW272399  14.813  11.311   9.810
23523SOL     OW72400   5.505   9.992  12.606
23523SOL    HW172401   5.509  10.054  12.680
23523SOL    HW272402   5.538   9.910  12.642
23524SOL     OW72403   2.128   6.274  12.774
23524SOL    HW172404   2.218   6.245  12.763
23524SOL    HW272405   2.078   6.222  12.711
23525SOL     OW72406  12.551   3.730  11.543
23525SOL    HW172407  12.625   3.787  11.526
23525SOL    HW272408  12.536   3.685  11.460
23526SOL     OW72409  10.868  13.463  11.196
23526SOL    HW172410  10.923  13.469  11.118
23526SOL    HW272411  10.911  13.398  11.251
23527SOL     OW72412   6.466  12.943   3.879
23527SOL    HW172413   6.551  12.901   3.888
23527SOL    HW272414   6.450  12.944   3.785
23528SOL     OW72415  14.346   8.377   4.335
23528SOL    HW172416  14.259   8.414   4.317
23528SOL    HW272417  14.378   8.349   4.249
23529SOL     OW72418   5.852  13.285   4.551
23529SOL    HW172419   5.930  13.296   4.604
23529SOL    HW272420   5.831  13.374   4.521
23530SOL     OW72421  13.862  11.858   2.386
23530SOL    HW172422  13.810  11.937   2.369
23530SOL    HW272423  13.896  11.833   2.299
23531SOL     OW72424   9.088   7.197   9.355
23531SOL    HW172425   9.093   7.113   9.309
23531SOL    HW272426   9.179   7.226   9.361
23532SOL     OW72427  13.274   0.781   4.905
23532SOL    HW172428  13.195   0.832   4.886
23532SOL    HW272429  13.293   0.799   4.997
23533SOL     OW72430   0.377   8.469  11.889
23533SOL    HW172431   0.338   8.389  11.853
23533SOL    HW272432   0.308   8.504  11.946
23534SOL     OW72433   1.777   3.243   4.087
23534SOL    HW172434   1.826   3.294   4.152
23534SOL    HW272435   1.793   3.290   4.005
23535SOL     OW72436   5.238   5.021   4.991
23535SOL    HW172437   5.294   4.970   5.051
23535SOL    HW272438   5.293   5.034   4.913
23536SOL     OW72439   9.686   8.321   7.083
23536SOL    HW172440   9.599   8.310   7.122
23536SOL    HW272441   9.738   8.361   7.153
23537SOL     OW72442  12.321   4.942  12.211
23537SOL    HW172443  12.331   4.854  12.177
23537SOL    HW272444  12.251   4.981  12.158
23538SOL     OW72445   4.736   7.452   4.385
23538SOL    HW172446   4.716   7.380   4.325
23538SOL    HW272447   4.652   7.496   4.398
23539SOL     OW72448   4.389   2.438   9.388
23539SOL    HW172449   4.389   2.427   9.483
23539SOL    HW272450   4.387   2.349   9.353
23540SOL     OW72451   0.654   5.070   1.942
23540SOL    HW172452   0.612   4.985   1.949
23540SOL    HW272453   0.591   5.132   1.977
23541SOL     OW72454  12.595  14.241  13.342
23541SOL    HW172455  12.560  14.190  13.269
23541SOL    HW272456  12.523  14.298  13.369
23542SOL     OW72457   6.966   4.682   9.165
23542SOL    HW172458   6.945   4.739   9.091
23542SOL    HW272459   6.893   4.695   9.226
23543SOL     OW72460   8.819   9.539   8.309
23543SOL    HW172461   8.911   9.540   8.337
23543SOL    HW272462   8.806   9.623   8.266
23544SOL     OW72463   3.467   9.571   4.006
23544SOL    HW172464   3.510   9.578   4.091
23544SOL    HW272465   3.376   9.552   4.026
23545SOL     OW72466   6.175  12.535   5.322
23545SOL    HW172467   6.089  12.533   5.280
23545SOL    HW272468   6.156  12.549   5.414
23546SOL     OW72469   8.486   2.806  10.978
23546SOL    HW172470   8.481   2.893  10.939
23546SOL    HW272471   8.506   2.748  10.905
23547SOL     OW72472   2.886   8.293   0.811
23547SOL    HW172473   2.962   8.312   0.756
23547SOL    HW272474   2.868   8.200   0.796
23548SOL     OW72475   0.112   1.921  10.350
23548SOL    HW172476   0.019   1.900  10.338
23548SOL    HW272477   0.128   1.905  10.443
23549SOL     OW72478   4.367  14.184  11.007
23549SOL    HW172479   4.305  14.123  10.968
23549SOL    HW272480   4.438  14.191  10.942
23550SOL     OW72481   0.001   8.960   1.245
23550SOL    HW172482  14.819   8.909   1.305
23550SOL    HW272483  14.820   8.968   1.166
23551SOL     OW72484   3.940  13.278   2.080
23551SOL    HW172485   4.003  13.253   2.147
23551SOL    HW272486   3.951  13.373   2.070
23552SOL     OW72487   7.934   6.165   7.871
23552SOL    HW172488   7.949   6.076   7.903
23552SOL    HW272489   7.998   6.218   7.918
23553SOL     OW72490   4.660  10.860   9.095
23553SOL    HW172491   4.629  10.774   9.123
23553SOL    HW272492   4.596  10.922   9.131
23554SOL     OW72493   3.907   1.019   7.012
23554SOL    HW172494   3.937   1.106   7.039
23554SOL    HW272495   3.811   1.025   7.016
23555SOL     OW72496   4.373  10.503   7.265
23555SOL    HW172497   4.425  10.425   7.247
23555SOL    HW272498   4.348  10.495   7.357
23556SOL     OW72499   9.779  11.955   6.204
23556SOL    HW172500   9.868  11.987   6.194
23556SOL    HW272501   9.743  12.004   6.277
23557SOL     OW72502   4.667   6.163   3.370
23557SOL    HW172503   4.732   6.150   3.300
23557SOL    HW272504   4.715   6.210   3.438
23558SOL     OW72505   6.785   0.562   6.710
23558SOL    HW172506   6.735   0.503   6.766
23558SOL    HW272507   6.826   0.505   6.645
23559SOL     OW72508   7.717  14.473  12.634
23559SOL    HW172509   7.638  14.422  12.619
23559SOL    HW272510   7.785  14.427  12.585
23560SOL     OW72511   0.956   4.612  13.357
23560SOL    HW172512   1.045   4.587  13.333
23560SOL    HW272513   0.967   4.678  13.425
23561SOL     OW72514   4.981   6.675   0.516
23561SOL    HW172515   4.896   6.632   0.513
23561SOL    HW272516   4.979   6.738   0.444
23562SOL     OW72517   2.961   3.184  10.952
23562SOL    HW172518   2.914   3.234  10.885
23562SOL    HW272519   2.995   3.107  10.906
23563SOL     OW72520   5.313   0.474  14.589
23563SOL    HW172521   5.396   0.489  14.542
23563SOL    HW272522   5.318   0.383  14.618
23564SOL     OW72523  14.190   9.690  14.425
23564SOL    HW172524  14.184   9.783  14.406
23564SOL    HW272525  14.280   9.678  14.454
23565SOL     OW72526   3.011   4.729  12.992
23565SOL    HW172527   3.007   4.661  12.926
23565SOL    HW272528   3.008   4.811  12.943
23566SOL     OW72529  13.328   6.834  11.717
23566SOL    HW172530  13.403   6.878  11.677
23566SOL    HW272531  13.252   6.880  11.682
23567SOL     OW72532   7.439  10.931   1.355
23567SOL    HW172533   7.480  10.960   1.436
23567SOL    HW272534   7.440  10.835   1.361
23568SOL     OW72535   4.509  12.385   5.480
23568SOL    HW172536   4.517  12.425   5.394
23568SOL    HW272537   4.437  12.322   5.471
23569SOL     OW72538  13.500   7.382  10.609
23569SOL    HW172539  13.485   7.287  10.607
23569SOL    HW272540  13.423   7.418  10.652
23570SOL     OW72541   9.340   0.898   9.755
23570SOL    HW172542   9.288   0.826   9.718
23570SOL    HW272543   9.427   0.860   9.768
23571SOL     OW72544  10.409  14.858   3.324
23571SOL    HW172545  10.352   0.062   3.333
23571SOL    HW272546  10.459  14.857   3.406
23572SOL     OW72547   9.239   3.149   9.591
23572SOL    HW172548   9.217   3.170   9.500
23572SOL    HW272549   9.281   3.063   9.586
23573SOL     OW72550   9.831   1.462   4.624
23573SOL    HW172551   9.779   1.524   4.573
23573SOL    HW272552   9.799   1.376   4.596
23574SOL     OW72553  13.475   4.319   4.020
23574SOL    HW172554  13.539   4.389   4.008
23574SOL    HW272555  13.426   4.317   3.938
23575SOL     OW72556   2.391   0.089   6.738
23575SOL    HW172557   2.319   0.030   6.719
23575SOL    HW272558   2.395   0.092   6.834
23576SOL     OW72559   1.969  13.375  14.568
23576SOL    HW172560   2.023  13.305  14.531
23576SOL    HW272561   2.026  13.451  14.568
23577SOL     OW72562  13.237   8.999   6.490
23577SOL    HW172563  13.308   9.063   6.483
23577SOL    HW272564  13.281   8.916   6.508
23578SOL     OW72565   7.539  14.342  10.198
23578SOL    HW172566   7.502  14.381  10.277
23578SOL    HW272567   7.590  14.413  10.158
23579SOL     OW72568   4.200   5.150  14.562
23579SOL    HW172569   4.185   5.057  14.580
23579SOL    HW272570   4.114   5.183  14.536
23580SOL     OW72571   4.874   4.373   2.255
23580SOL    HW172572   4.968   4.389   2.244
23580SOL    HW272573   4.868   4.279   2.274
23581SOL     OW72574   1.516   3.644   9.242
23581SOL    HW172575   1.471   3.711   9.293
23581SOL    HW272576   1.580   3.606   9.302
23582SOL     OW72577  13.952   7.104   8.070
23582SOL    HW172578  13.951   7.041   8.142
23582SOL    HW272579  13.960   7.051   7.991
23583SOL     OW72580  10.952  11.735  10.579
23583SOL    HW172581  10.987  11.771  10.498
23583SOL    HW272582  11.012  11.665  10.602
23584SOL     OW72583   6.569  11.962   4.117
23584SOL    HW172584   6.550  11.897   4.185
23584SOL    HW272585   6.655  11.996   4.140
23585SOL     OW72586   5.417  10.125  10.674
23585SOL    HW172587   5.444  10.045  10.629
23585SOL    HW272588   5.334  10.102  10.715
23586SOL     OW72589   1.934   5.689   0.870
23586SOL    HW172590   2.011   5.724   0.826
23586SOL    HW272591   1.968   5.620   0.927
23587SOL     OW72592   9.455  13.993   3.988
23587SOL    HW172593   9.470  14.067   4.045
23587SOL    HW272594   9.490  13.918   4.036
23588SOL     OW72595   0.739   6.614   5.293
23588SOL    HW172596   0.781   6.657   5.219
23588SOL    HW272597   0.677   6.553   5.253
23589SOL     OW72598  14.234   9.041   4.680
23589SOL    HW172599  14.212   8.987   4.605
23589SOL    HW272600  14.261   8.979   4.748
23590SOL     OW72601   1.418   4.778   5.313
23590SOL    HW172602   1.508   4.752   5.335
23590SOL    HW272603   1.389   4.829   5.388
23591SOL     OW72604  12.295  11.214  13.989
23591SOL    HW172605  12.221  11.271  14.007
23591SOL    HW272606  12.366  11.272  13.965
23592SOL     OW72607   9.821  14.817   1.056
23592SOL    HW172608   9.835   0.033   1.089
23592SOL    HW272609   9.904  14.791   1.018
23593SOL     OW72610   4.354   0.899   8.198
23593SOL    HW172611   4.342   0.945   8.115
23593SOL    HW272612   4.312   0.815   8.185
23594SOL     OW72613  13.707   9.573   1.678
23594SOL    HW172614  13.735   9.647   1.732
23594SOL    HW272615  13.788   9.527   1.656
23595SOL     OW72616   5.018   9.040   9.431
23595SOL    HW172617   5.003   8.969   9.494
23595SOL    HW272618   4.942   9.097   9.440
23596SOL     OW72619   7.510  14.446   7.463
23596SOL    HW172620   7.581  14.505   7.438
23596SOL    HW272621   7.430  14.496   7.448
23597SOL     OW72622  13.044  12.724   5.506
23597SOL    HW172623  13.035  12.630   5.494
23597SOL    HW272624  12.960  12.751   5.544
23598SOL     OW72625   9.534   7.428  12.903
23598SOL    HW172626   9.563   7.464  12.819
23598SOL    HW272627   9.448   7.468  12.917
23599SOL     OW72628   0.563  12.636   0.501
23599SOL    HW172629   0.557  12.727   0.529
23599SOL    HW272630   0.546  12.639   0.407
23600SOL     OW72631  14.423   1.010   0.065
23600SOL    HW172632  14.392   0.929   0.105
23600SOL    HW272633  14.359   1.076   0.090
23601SOL     OW72634   5.277   5.240   6.862
23601SOL    HW172635   5.329   5.165   6.888
23601SOL    HW272636   5.335   5.315   6.874
23602SOL     OW72637  14.088   1.230   3.249
23602SOL    HW172638  14.066   1.147   3.291
23602SOL    HW272639  14.170   1.212   3.202
23603SOL     OW72640  12.172   3.243  10.415
23603SOL    HW172641  12.253   3.231  10.367
23603SOL    HW272642  12.130   3.157  10.416
23604SOL     OW72643   4.092   8.489   7.338
23604SOL    HW172644   4.005   8.528   7.335
23604SOL    HW272645   4.087   8.415   7.277
23605SOL     OW72646   7.245   3.135   1.929
23605SOL    HW172647   7.273   3.218   1.891
23605SOL    HW272648   7.261   3.071   1.860
23606SOL     OW72649   5.047  12.974   9.703
23606SOL    HW172650   4.991  13.026   9.760
23606SOL    HW272651   4.987  12.932   9.642
23607SOL     OW72652  11.714   1.578   6.005
23607SOL    HW172653  11.713   1.655   5.949
23607SOL    HW272654  11.625   1.572   6.040
23608SOL     OW72655   2.119   0.138  14.108
23608SOL    HW172656   2.111   0.097  14.194
23608SOL    HW272657   2.083   0.226  14.119
23609SOL     OW72658   0.805  10.833   1.400
23609SOL    HW172659   0.760  10.813   1.317
23609SOL    HW272660   0.897  10.810   1.384
23610SOL     OW72661  14.146   6.279   5.707
23610SOL    HW172662  14.078   6.239   5.653
23610SOL    HW272663  14.136   6.240   5.793
23611SOL     OW72664  10.415  10.890  14.809
23611SOL    HW172665  10.408  10.894   0.032
23611SOL    HW272666  10.477  10.960  14.787
23612SOL     OW72667   0.932  12.049  10.133
23612SOL    HW172668   0.975  12.100  10.064
23612SOL    HW272669   0.843  12.037  10.102
23613SOL     OW72670   4.868   0.291   2.487
23613SOL    HW172671   4.903   0.344   2.415
23613SOL    HW272672   4.944   0.247   2.525
23614SOL     OW72673   3.025   3.812  11.358
23614SOL    HW172674   3.077   3.749  11.307
23614SOL    HW272675   2.984   3.758  11.426
23615SOL     OW72676   3.715   8.753   6.113
23615SOL    HW172677   3.738   8.669   6.073
23615SOL    HW272678   3.652   8.731   6.182
23616SOL     OW72679  10.538   5.924   6.860
23616SOL    HW172680  10.538   5.933   6.765
23616SOL    HW272681  10.446   5.912   6.883
23617SOL     OW72682   1.648   7.190   4.342
23617SOL    HW172683   1.706   7.260   4.313
23617SOL    HW272684   1.638   7.133   4.266
23618SOL     OW72685   7.962   5.865   8.083
23618SOL    HW172686   8.018   5.790   8.104
23618SOL    HW272687   8.007   5.939   8.123
23619SOL     OW72688   5.014   8.829   1.489
23619SOL    HW172689   4.987   8.916   1.521
23619SOL    HW272690   5.109   8.829   1.497
23620SOL     OW72691   2.634   1.641   9.251
23620SOL    HW172692   2.716   1.681   9.220
23620SOL    HW272693   2.638   1.551   9.219
23621SOL     OW72694   0.030  14.691   3.572
23621SOL    HW172695  14.812  14.676   3.597
23621SOL    HW272696   0.026  14.761   3.507
23622SOL     OW72697  11.547   8.393  13.149
23622SOL    HW172698  11.541   8.408  13.243
23622SOL    HW272699  11.478   8.447  13.111
23623SOL     OW72700   8.289  13.699   6.313
23623SOL    HW172701   8.326  13.687   6.401
23623SOL    HW272702   8.209  13.647   6.313
23624SOL     OW72703   5.209  11.130  11.348
23624SOL    HW172704   5.177  11.110  11.436
23624SOL    HW272705   5.150  11.199  11.317
23625SOL     OW72706  10.154   9.500   1.670
23625SOL    HW172707  10.118   9.477   1.584
23625SOL    HW272708  10.163   9.417   1.716
23626SOL     OW72709   7.541   0.512   3.005
23626SOL    HW172710   7.613   0.487   3.064
23626SOL    HW272711   7.585   0.537   2.923
23627SOL     OW72712  10.013   2.722   8.051
23627SOL    HW172713   9.928   2.710   8.009
23627SOL    HW272714  10.011   2.664   8.127
23628SOL     OW72715  10.689   4.851   9.345
23628SOL    HW172716  10.764   4.876   9.399
23628SOL    HW272717  10.681   4.756   9.358
23629SOL     OW72718  12.386   6.771   0.169
23629SOL    HW172719  12.448   6.839   0.195
23629SOL    HW272720  12.407   6.696   0.226
23630SOL     OW72721   1.531  14.373   9.589
23630SOL    HW172722   1.618  14.374   9.629
23630SOL    HW272723   1.474  14.338   9.658
23631SOL     OW72724   9.498   6.030  14.600
23631SOL    HW172725   9.485   6.094  14.670
23631SOL    HW272726   9.414   6.026  14.555
23632SOL     OW72727  13.032   2.686   2.006
23632SOL    HW172728  13.027   2.591   2.016
23632SOL    HW272729  13.123   2.708   2.027
23633SOL     OW72730   9.007   6.612   0.996
23633SOL    HW172731   9.057   6.677   1.046
23633SOL    HW272732   9.042   6.528   1.025
23634SOL     OW72733   9.332   2.584   1.588
23634SOL    HW172734   9.421   2.554   1.569
23634SOL    HW272735   9.344   2.671   1.625
23635SOL     OW72736   9.271  14.336   5.565
23635SOL    HW172737   9.324  14.365   5.639
23635SOL    HW272738   9.331  14.287   5.510
23636SOL     OW72739   6.037   1.537   6.829
23636SOL    HW172740   6.024   1.443   6.812
23636SOL    HW272741   5.949   1.571   6.843
23637SOL     OW72742  13.516  13.410  12.627
23637SOL    HW172743  13.421  13.423  12.631
23637SOL    HW272744  13.529  13.355  12.550
23638SOL     OW72745  13.411   4.592   2.102
23638SOL    HW172746  13.405   4.526   2.171
23638SOL    HW272747  13.499   4.581   2.065
23639SOL     OW72748   3.478   3.593   5.367
23639SOL    HW172749   3.507   3.681   5.393
23639SOL    HW272750   3.465   3.547   5.450
23640SOL     OW72751   0.884   7.226   6.386
23640SOL    HW172752   0.976   7.244   6.371
23640SOL    HW272753   0.838   7.286   6.328
23641SOL     OW72754   5.831   3.406  13.426
23641SOL    HW172755   5.754   3.411  13.369
23641SOL    HW272756   5.802   3.440  13.510
23642SOL     OW72757   3.199  11.116   1.007
23642SOL    HW172758   3.152  11.060   0.946
23642SOL    HW272759   3.277  11.066   1.032
23643SOL     OW72760  11.032   7.144   8.731
23643SOL    HW172761  11.111   7.197   8.729
23643SOL    HW272762  10.988   7.164   8.648
23644SOL     OW72763   5.440   8.885  10.508
23644SOL    HW172764   5.428   8.816  10.443
23644SOL    HW272765   5.440   8.839  10.592
23645SOL     OW72766   7.600   0.084   2.036
23645SOL    HW172767   7.523   0.038   2.004
23645SOL    HW272768   7.614   0.155   1.973
23646SOL     OW72769   3.937  11.937  12.974
23646SOL    HW172770   3.861  11.948  13.032
23646SOL    HW272771   4.007  11.987  13.017
23647SOL     OW72772  13.006  10.755   4.589
23647SOL    HW172773  13.041  10.842   4.607
23647SOL    HW272774  13.083  10.701   4.571
23648SOL     OW72775  12.191   7.756  13.110
23648SOL    HW172776  12.126   7.807  13.158
23648SOL    HW272777  12.275   7.779  13.152
23649SOL     OW72778   1.826   2.895   0.127
23649SOL    HW172779   1.857   2.832   0.061
23649SOL    HW272780   1.731   2.888   0.124
23650SOL     OW72781   6.370   5.499  14.740
23650SOL    HW172782   6.389   5.523  14.649
23650SOL    HW272783   6.278   5.470  14.738
23651SOL     OW72784   4.912   0.895  10.148
23651SOL    HW172785   4.915   0.824  10.083
23651SOL    HW272786   4.819   0.904  10.169
23652SOL     OW72787   8.216   1.095  14.241
23652SOL    HW172788   8.133   1.091  14.288
23652SOL    HW272789   8.242   1.004  14.229
23653SOL     OW72790  13.341   3.480  12.695
23653SOL    HW172791  13.362   3.525  12.777
23653SOL    HW272792  13.332   3.388  12.720
23654SOL     OW72793  13.746  14.700  12.520
23654SOL    HW172794  13.753  14.773  12.581
23654SOL    HW272795  13.835  14.682  12.492
23655SOL     OW72796   3.070   0.772  10.957
23655SOL    HW172797   3.135   0.808  10.898
23655SOL    HW272798   3.108   0.782  11.044
23656SOL     OW72799   5.144   5.456  13.952
23656SOL    HW172800   5.235   5.446  13.977
23656SOL    HW272801   5.119   5.542  13.985
23657SOL     OW72802   2.719  12.039  13.878
23657SOL    HW172803   2.737  12.128  13.906
23657SOL    HW272804   2.798  11.990  13.902
23658SOL     OW72805  14.578  13.837  12.856
23658SOL    HW172806  14.533  13.850  12.772
23658SOL    HW272807  14.645  13.905  12.857
23659SOL     OW72808   4.301   2.915   4.429
23659SOL    HW172809   4.345   2.990   4.469
23659SOL    HW272810   4.296   2.936   4.336
23660SOL     OW72811   4.781   1.133   6.653
23660SOL    HW172812   4.858   1.089   6.690
23660SOL    HW272813   4.817   1.196   6.591
23661SOL     OW72814   7.982  12.477  11.261
23661SOL    HW172815   7.990  12.429  11.343
23661SOL    HW272816   8.056  12.537  11.261
23662SOL     OW72817   5.940   7.843   2.933
23662SOL    HW172818   5.917   7.921   2.882
23662SOL    HW272819   6.032   7.856   2.957
23663SOL     OW72820   2.552   3.433   3.408
23663SOL    HW172821   2.536   3.502   3.472
23663SOL    HW272822   2.540   3.476   3.323
23664SOL     OW72823   9.401  10.095  10.376
23664SOL    HW172824   9.340  10.127  10.309
23664SOL    HW272825   9.401  10.000  10.365
23665SOL     OW72826  12.402   6.092   8.107
23665SOL    HW172827  12.332   6.155   8.124
23665SOL    HW272828  12.375   6.048   8.027
23666SOL     OW72829   5.140  10.485  11.342
23666SOL    HW172830   5.086  10.538  11.283
23666SOL    HW272831   5.214  10.541  11.364
23667SOL     OW72832   5.143   2.738   4.827
23667SOL    HW172833   5.178   2.649   4.829
23667SOL    HW272834   5.067   2.732   4.769
23668SOL     OW72835  13.316   1.015  11.608
23668SOL    HW172836  13.335   0.924  11.583
23668SOL    HW272837  13.226   1.013  11.641
23669SOL     OW72838   7.972  14.014   7.190
23669SOL    HW172839   7.923  14.094   7.210
23669SOL    HW272840   7.960  14.002   7.095
23670SOL     OW72841   0.531  13.301   1.599
23670SOL    HW172842   0.465  13.245   1.558
23670SOL    HW272843   0.603  13.302   1.537
23671SOL     OW72844   7.340   2.587   2.870
23671SOL    HW172845   7.428   2.619   2.852
23671SOL    HW272846   7.347   2.492   2.859
23672SOL     OW72847   8.478   3.836   8.921
23672SOL    HW172848   8.441   3.870   8.839
23672SOL    HW272849   8.435   3.887   8.989
23673SOL     OW72850  10.277  14.845   4.039
23673SOL    HW172851  10.279  14.837   3.943
23673SOL    HW272852  10.191  14.814   4.064
23674SOL     OW72853   7.396  10.569   8.215
23674SOL    HW172854   7.476  10.620   8.200
23674SOL    HW272855   7.400  10.499   8.150
23675SOL     OW72856   2.396   1.396   1.017
23675SOL    HW172857   2.310   1.370   1.049
23675SOL    HW272858   2.381   1.427   0.928
23676SOL     OW72859   3.903   2.795  13.991
23676SOL    HW172860   3.839   2.777  13.922
23676SOL    HW272861   3.888   2.887  14.014
23677SOL     OW72862   7.679  13.065   4.913
23677SOL    HW172863   7.654  13.129   4.846
23677SOL    HW272864   7.744  13.110   4.966
23678SOL     OW72865   0.010   7.983   2.130
23678SOL    HW172866   0.050   7.912   2.080
23678SOL    HW272867  14.834   7.940   2.200
23679SOL     OW72868  10.504  10.772  11.882
23679SOL    HW172869  10.567  10.769  11.954
23679SOL    HW272870  10.445  10.699  11.898
23680SOL     OW72871  13.994  14.670   2.899
23680SOL    HW172872  14.063  14.606   2.885
23680SOL    HW272873  13.914  14.619   2.905
23681SOL     OW72874  10.744   1.451   9.306
23681SOL    HW172875  10.719   1.498   9.227
23681SOL    HW272876  10.834   1.479   9.323
23682SOL     OW72877   4.750   0.285   3.066
23682SOL    HW172878   4.804   0.208   3.049
23682SOL    HW272879   4.718   0.311   2.980
23683SOL     OW72880   0.006  10.196   0.649
23683SOL    HW172881   0.008  10.175   0.742
23683SOL    HW272882  14.801  10.251   0.638
23684SOL     OW72883   9.799   0.556   2.627
23684SOL    HW172884   9.799   0.626   2.693
23684SOL    HW272885   9.706   0.537   2.612
23685SOL     OW72886   5.606  12.514  13.766
23685SOL    HW172887   5.527  12.472  13.801
23685SOL    HW272888   5.678  12.460  13.798
23686SOL     OW72889   2.896   1.103   6.421
23686SOL    HW172890   2.872   1.022   6.376
23686SOL    HW272891   2.955   1.147   6.360
23687SOL     OW72892   8.320  11.929   3.090
23687SOL    HW172893   8.390  11.887   3.138
23687SOL    HW272894   8.356  12.015   3.065
23688SOL     OW72895   3.111   7.285   7.218
23688SOL    HW172896   3.132   7.296   7.126
23688SOL    HW272897   3.195   7.266   7.260
23689SOL     OW72898   6.372   6.564   3.040
23689SOL    HW172899   6.406   6.503   3.106
23689SOL    HW272900   6.450   6.595   2.994
23690SOL     OW72901   7.311   0.816  13.613
23690SOL    HW172902   7.364   0.871  13.555
23690SOL    HW272903   7.230   0.802  13.564
23691SOL     OW72904   6.157   1.341   5.121
23691SOL    HW172905   6.199   1.410   5.069
23691SOL    HW272906   6.095   1.387   5.177
23692SOL     OW72907   4.688   7.782   1.067
23692SOL    HW172908   4.731   7.704   1.031
23692SOL    HW272909   4.596   7.772   1.044
23693SOL     OW72910   0.837  14.253   6.513
23693SOL    HW172911   0.928  14.225   6.516
23693SOL    HW272912   0.835  14.322   6.447
23694SOL     OW72913   0.842   5.391  11.750
23694SOL    HW172914   0.872   5.307  11.784
23694SOL    HW272915   0.890   5.402  11.667
23695SOL     OW72916   3.655  12.728   4.576
23695SOL    HW172917   3.713  12.659   4.609
23695SOL    HW272918   3.604  12.755   4.652
23696SOL     OW72919   6.265   8.226   4.043
23696SOL    HW172920   6.248   8.229   4.137
23696SOL    HW272921   6.359   8.213   4.036
23697SOL     OW72922   8.010   0.265   4.963
23697SOL    HW172923   7.948   0.204   4.924
23697SOL    HW272924   7.958   0.315   5.026
23698SOL     OW72925   6.839   3.523   2.951
23698SOL    HW172926   6.799   3.520   2.864
23698SOL    HW272927   6.795   3.595   2.996
23699SOL     OW72928   3.560  11.954  13.819
23699SOL    HW172929   3.585  11.946  13.727
23699SOL    HW272930   3.553  12.048  13.833
23700SOL     OW72931   1.357  14.087   5.705
23700SOL    HW172932   1.342  14.172   5.665
23700SOL    HW272933   1.329  14.024   5.638
23701SOL     OW72934   9.272   4.737   6.007
23701SOL    HW172935   9.321   4.776   6.080
23701SOL    HW272936   9.222   4.810   5.971
23702SOL     OW72937   7.224  14.374   9.865
23702SOL    HW172938   7.152  14.353   9.925
23702SOL    HW272939   7.223  14.304   9.801
23703SOL     OW72940   4.091   9.100   8.976
23703SOL    HW172941   4.184   9.120   8.989
23703SOL    HW272942   4.084   9.081   8.883
23704SOL     OW72943   3.906  12.203   9.901
23704SOL    HW172944   3.987  12.233   9.943
23704SOL    HW272945   3.880  12.275   9.844
23705SOL     OW72946  11.677  11.405  13.551
23705SOL    HW172947  11.669  11.331  13.491
23705SOL    HW272948  11.595  11.404  13.601
23706SOL     OW72949  11.262   2.976  11.638
23706SOL    HW172950  11.243   3.023  11.556
23706SOL    HW272951  11.338   2.921  11.616
23707SOL     OW72952   7.546   3.025  10.276
23707SOL    HW172953   7.549   3.114  10.241
23707SOL    HW272954   7.635   2.993  10.267
23708SOL     OW72955  13.963  13.790  12.770
23708SOL    HW172956  13.956  13.732  12.694
23708SOL    HW272957  13.891  13.852  12.760
23709SOL     OW72958  10.667   5.663  12.694
23709SOL    HW172959  10.635   5.653  12.605
23709SOL    HW272960  10.623   5.595  12.744
23710SOL     OW72961   4.816   3.663  13.157
23710SOL    HW172962   4.798   3.595  13.093
23710SOL    HW272963   4.906   3.646  13.185
23711SOL     OW72964  11.253   4.931  10.407
23711SOL    HW172965  11.218   4.843  10.415
23711SOL    HW272966  11.257   4.964  10.497
23712SOL     OW72967  12.257   9.346   4.780
23712SOL    HW172968  12.295   9.419   4.732
23712SOL    HW272969  12.283   9.361   4.871
23713SOL     OW72970   6.248   7.676  14.405
23713SOL    HW172971   6.322   7.737  14.399
23713SOL    HW272972   6.172   7.729  14.380
23714SOL     OW72973  12.005   2.755   4.134
23714SOL    HW172974  12.048   2.840   4.144
23714SOL    HW272975  12.024   2.729   4.044
23715SOL     OW72976   0.772  11.471   2.292
23715SOL    HW172977   0.718  11.421   2.231
23715SOL    HW272978   0.711  11.531   2.336
23716SOL     OW72979   3.951   8.923  11.362
23716SOL    HW172980   3.970   8.847  11.417
23716SOL    HW272981   4.037   8.955  11.334
23717SOL     OW72982  10.597  14.609   6.390
23717SOL    HW172983  10.638  14.692   6.363
23717SOL    HW272984  10.629  14.594   6.479
23718SOL     OW72985   9.454   3.337  14.089
23718SOL    HW172986   9.521   3.293  14.141
23718SOL    HW272987   9.463   3.430  14.111
23719SOL     OW72988  13.330  12.254  14.652
23719SOL    HW172989  13.335  12.287  14.742
23719SOL    HW272990  13.418  12.268  14.617
23720SOL     OW72991   4.777   7.651   9.605
23720SOL    HW172992   4.846   7.615   9.662
23720SOL    HW272993   4.817   7.650   9.517
23721SOL     OW72994  11.972   8.729   4.380
23721SOL    HW172995  12.037   8.749   4.448
23721SOL    HW272996  12.023   8.689   4.309
23722SOL     OW72997  14.112  10.994   0.650
23722SOL    HW172998  14.107  11.025   0.741
23722SOL    HW272999  14.168  10.916   0.655
23723SOL     OW73000   0.815  10.097   8.993
23723SOL    HW173001   0.784  10.013   9.027
23723SOL    HW273002   0.888  10.074   8.936
23724SOL     OW73003   2.251   8.455   7.260
23724SOL    HW173004   2.169   8.424   7.297
23724SOL    HW273005   2.318   8.420   7.320
23725SOL     OW73006   7.747   5.372   2.275
23725SOL    HW173007   7.720   5.431   2.345
23725SOL    HW273008   7.791   5.429   2.212
23726SOL     OW73009   7.279  11.008   5.835
23726SOL    HW173010   7.253  11.098   5.857
23726SOL    HW273011   7.373  11.006   5.849
23727SOL     OW73012   3.695   7.437  14.427
23727SOL    HW173013   3.739   7.357  14.456
23727SOL    HW273014   3.713   7.501  14.496
23728SOL     OW73015   4.001   2.344  12.995
23728SOL    HW173016   3.980   2.335  13.088
23728SOL    HW273017   3.979   2.259  12.957
23729SOL     OW73018   0.399   2.441   1.706
23729SOL    HW173019   0.470   2.473   1.649
23729SOL    HW273020   0.444   2.397   1.778
23730SOL     OW73021  10.969   9.055  10.351
23730SOL    HW173022  10.997   9.117  10.418
23730SOL    HW273023  10.992   8.969  10.387
23731SOL     OW73024   1.152  10.536   0.330
23731SOL    HW173025   1.228  10.520   0.273
23731SOL    HW273026   1.141  10.453   0.377
23732SOL     OW73027  14.267  13.725  13.409
23732SOL    HW173028  14.264  13.648  13.465
23732SOL    HW273029  14.270  13.799  13.470
23733SOL     OW73030  13.615   1.442   5.795
23733SOL    HW173031  13.532   1.396   5.808
23733SOL    HW273032  13.590   1.523   5.750
23734SOL     OW73033  13.880   9.630   5.374
23734SOL    HW173034  13.837   9.546   5.356
23734SOL    HW273035  13.811   9.696   5.357
23735SOL     OW73036   7.071   2.323  13.984
23735SOL    HW173037   7.094   2.410  14.017
23735SOL    HW273038   7.134   2.264  14.025
23736SOL     OW73039  14.118   9.810   9.504
23736SOL    HW173040  14.118   9.729   9.556
23736SOL    HW273041  14.135   9.782   9.415
23737SOL     OW73042  11.106  11.549   9.564
23737SOL    HW173043  11.084  11.640   9.584
23737SOL    HW273044  11.028  11.499   9.590
23738SOL     OW73045   8.725   2.840   9.528
23738SOL    HW173046   8.724   2.934   9.511
23738SOL    HW273047   8.687   2.831   9.616
23739SOL     OW73048   1.727   7.603  12.632
23739SOL    HW173049   1.665   7.558  12.576
23739SOL    HW273050   1.698   7.695  12.631
23740SOL     OW73051   8.021   1.280   8.128
23740SOL    HW173052   8.009   1.211   8.194
23740SOL    HW273053   8.071   1.348   8.172
23741SOL     OW73054   2.104   9.972  13.988
23741SOL    HW173055   2.084  10.066  13.982
23741SOL    HW273056   2.051   9.942  14.063
23742SOL     OW73057   2.539   4.390   5.307
23742SOL    HW173058   2.535   4.343   5.390
23742SOL    HW273059   2.595   4.466   5.325
23743SOL     OW73060   1.122   8.976   1.176
23743SOL    HW173061   1.082   9.054   1.137
23743SOL    HW273062   1.061   8.905   1.155
23744SOL     OW73063  11.861   7.560   1.721
23744SOL    HW173064  11.850   7.621   1.794
23744SOL    HW273065  11.784   7.504   1.725
23745SOL     OW73066  13.770   4.001   8.828
23745SOL    HW173067  13.688   3.970   8.869
23745SOL    HW273068  13.818   4.042   8.900
23746SOL     OW73069   9.246  11.993  14.380
23746SOL    HW173070   9.265  11.930  14.310
23746SOL    HW273071   9.269  11.946  14.461
23747SOL     OW73072  13.391   0.893  12.921
23747SOL    HW173073  13.475   0.858  12.949
23747SOL    HW273074  13.327   0.828  12.951
23748SOL     OW73075   1.892  14.834  14.236
23748SOL    HW173076   1.858  14.804  14.320
23748SOL    HW273077   1.883  14.759  14.178
23749SOL     OW73078   4.500   4.218  10.951
23749SOL    HW173079   4.512   4.152  11.020
23749SOL    HW273080   4.405   4.234  10.951
23750SOL     OW73081   2.611   6.186   3.638
23750SOL    HW173082   2.555   6.264   3.632
23750SOL    HW273083   2.684   6.214   3.692
23751SOL     OW73084   8.132   5.876   1.718
23751SOL    HW173085   8.184   5.865   1.639
23751SOL    HW273086   8.101   5.788   1.740
23752SOL     OW73087  12.230   3.071  12.556
23752SOL    HW173088  12.156   3.130  12.573
23752SOL    HW273089  12.230   3.061  12.461
23753SOL     OW73090  11.190   9.231   4.663
23753SOL    HW173091  11.283   9.246   4.684
23753SOL    HW273092  11.162   9.311   4.619
23754SOL     OW73093   4.043  13.997  14.335
23754SOL    HW173094   3.990  13.926  14.301
23754SOL    HW273095   4.133  13.967  14.324
23755SOL     OW73096  11.345   6.439   4.164
23755SOL    HW173097  11.419   6.494   4.190
23755SOL    HW273098  11.293   6.496   4.107
23756SOL     OW73099  12.650  11.825  14.595
23756SOL    HW173100  12.579  11.804  14.655
23756SOL    HW273101  12.711  11.751  14.604
23757SOL     OW73102   5.680   0.362  12.152
23757SOL    HW173103   5.772   0.382  12.140
23757SOL    HW273104   5.675   0.321  12.238
23758SOL     OW73105  10.008   6.849   7.779
23758SOL    HW173106   9.999   6.898   7.698
23758SOL    HW273107   9.987   6.759   7.755
23759SOL     OW73108   9.150   3.548  12.224
23759SOL    HW173109   9.131   3.632  12.183
23759SOL    HW273110   9.234   3.561  12.269
23760SOL     OW73111  12.322   3.173   5.363
23760SOL    HW173112  12.244   3.191   5.310
23760SOL    HW273113  12.391   3.155   5.299
23761SOL     OW73114   3.256   8.150   6.106
23761SOL    HW173115   3.281   8.200   6.184
23761SOL    HW273116   3.328   8.165   6.044
23762SOL     OW73117   2.620  12.922   6.657
23762SOL    HW173118   2.541  12.895   6.612
23762SOL    HW273119   2.590  12.986   6.723
23763SOL     OW73120  13.175  10.214   6.300
23763SOL    HW173121  13.164  10.294   6.351
23763SOL    HW273122  13.130  10.232   6.217
23764SOL     OW73123   4.918   4.854  10.629
23764SOL    HW173124   4.834   4.873  10.670
23764SOL    HW273125   4.951   4.939  10.601
23765SOL     OW73126  14.231   2.652  10.532
23765SOL    HW173127  14.149   2.678  10.488
23765SOL    HW273128  14.205   2.638  10.623
23766SOL     OW73129   1.897   7.602   1.690
23766SOL    HW173130   1.965   7.664   1.661
23766SOL    HW273131   1.849   7.581   1.610
23767SOL     OW73132   5.135  12.885   1.074
23767SOL    HW173133   5.172  12.893   1.162
23767SOL    HW273134   5.112  12.792   1.067
23768SOL     OW73135   2.648   6.114   2.122
23768SOL    HW173136   2.697   6.033   2.112
23768SOL    HW273137   2.600   6.103   2.204
23769SOL     OW73138  11.143  10.997   8.390
23769SOL    HW173139  11.188  11.045   8.321
23769SOL    HW273140  11.174  11.037   8.472
23770SOL     OW73141   9.673  10.714   1.336
23770SOL    HW173142   9.639  10.728   1.425
23770SOL    HW273143   9.617  10.769   1.281
23771SOL     OW73144   8.194  14.251   5.455
23771SOL    HW173145   8.172  14.208   5.373
23771SOL    HW273146   8.183  14.183   5.522
23772SOL     OW73147   4.853  11.454   5.147
23772SOL    HW173148   4.881  11.439   5.057
23772SOL    HW273149   4.885  11.378   5.195
23773SOL     OW73150   1.531   3.509   1.879
23773SOL    HW173151   1.484   3.581   1.837
23773SOL    HW273152   1.504   3.512   1.970
23774SOL     OW73153   9.858  14.603  12.020
23774SOL    HW173154   9.770  14.570  12.036
23774SOL    HW273155   9.845  14.689  11.980
23775SOL     OW73156  12.387  13.795   0.930
23775SOL    HW173157  12.318  13.855   0.899
23775SOL    HW273158  12.428  13.842   1.002
23776SOL     OW73159   4.957  13.149   0.231
23776SOL    HW173160   4.984  13.224   0.178
23776SOL    HW273161   4.875  13.176   0.272
23777SOL     OW73162   1.386  11.984   4.025
23777SOL    HW173163   1.457  11.935   3.984
23777SOL    HW273164   1.415  12.075   4.022
23778SOL     OW73165   8.031  11.214   9.114
23778SOL    HW173166   8.005  11.215   9.022
23778SOL    HW273167   8.075  11.130   9.126
23779SOL     OW73168  11.590   1.241   0.808
23779SOL    HW173169  11.573   1.194   0.725
23779SOL    HW273170  11.616   1.172   0.869
23780SOL     OW73171  10.611   0.681   4.752
23780SOL    HW173172  10.533   0.715   4.709
23780SOL    HW273173  10.618   0.732   4.833
23781SOL     OW73174   2.344   4.503   4.344
23781SOL    HW173175   2.271   4.443   4.363
23781SOL    HW273176   2.350   4.503   4.249
23782SOL     OW73177   1.123   7.599  10.831
23782SOL    HW173178   1.086   7.513  10.849
23782SOL    HW273179   1.102   7.616  10.739
23783SOL     OW73180   2.380   5.129  10.988
23783SOL    HW173181   2.397   5.205  10.932
23783SOL    HW273182   2.285   5.117  10.983
23784SOL     OW73183  14.726   2.886  13.284
23784SOL    HW173184  14.686   2.859  13.367
23784SOL    HW273185  14.804   2.832  13.275
23785SOL     OW73186   8.245   8.787  12.148
23785SOL    HW173187   8.334   8.815  12.128
23785SOL    HW273188   8.246   8.767  12.242
23786SOL     OW73189  10.718  11.470   5.002
23786SOL    HW173190  10.732  11.382   5.038
23786SOL    HW273191  10.675  11.455   4.918
23787SOL     OW73192   5.677   1.047  14.028
23787SOL    HW173193   5.594   1.052  14.076
23787SOL    HW273194   5.704   1.139  14.017
23788SOL     OW73195   8.622   9.100  10.381
23788SOL    HW173196   8.576   9.143  10.452
23788SOL    HW273197   8.673   9.030  10.423
23789SOL     OW73198   5.290  14.389   3.582
23789SOL    HW173199   5.350  14.341   3.640
23789SOL    HW273200   5.258  14.323   3.521
23790SOL     OW73201   6.648   7.703   2.817
23790SOL    HW173202   6.738   7.737   2.822
23790SOL    HW273203   6.658   7.609   2.831
23791SOL     OW73204   3.510   1.486  14.750
23791SOL    HW173205   3.565   1.534  14.813
23791SOL    HW273206   3.542   1.515  14.664
23792SOL     OW73207   0.150   7.354  14.281
23792SOL    HW173208   0.055   7.346  14.271
23792SOL    HW273209   0.180   7.393  14.199
23793SOL     OW73210  10.698   0.982   0.060
23793SOL    HW173211  10.793   0.976   0.066
23793SOL    HW273212  10.680   0.980  14.838
23794SOL     OW73213   4.312   6.227  10.080
23794SOL    HW173214   4.262   6.279  10.143
23794SOL    HW273215   4.403   6.232  10.112
23795SOL     OW73216  10.085   6.016  10.291
23795SOL    HW173217  10.002   5.968  10.293
23795SOL    HW273218  10.059   6.108  10.287
23796SOL     OW73219   3.377   0.053  14.603
23796SOL    HW173220   3.431   0.113  14.654
23796SOL    HW273221   3.398  14.839  14.639
23797SOL     OW73222   8.526   8.067   8.615
23797SOL    HW173223   8.600   8.071   8.676
23797SOL    HW273224   8.517   7.974   8.594
23798SOL     OW73225   2.836   4.456  13.325
23798SOL    HW173226   2.838   4.489  13.235
23798SOL    HW273227   2.803   4.529  13.376
23799SOL     OW73228   5.530  10.859   8.538
23799SOL    HW173229   5.586  10.891   8.468
23799SOL    HW273230   5.527  10.764   8.525
23800SOL     OW73231  14.044   9.972  14.835
23800SOL    HW173232  14.071   9.965  14.743
23800SOL    HW273233  14.009  10.061  14.842
23801SOL     OW73234  11.862   5.101   0.775
23801SOL    HW173235  11.857   5.145   0.860
23801SOL    HW273236  11.921   5.155   0.723
23802SOL     OW73237  12.003   0.843   0.179
23802SOL    HW173238  12.086   0.820   0.138
23802SOL    HW273239  11.973   0.762   0.219
23803SOL     OW73240   5.908   2.675   9.443
23803SOL    HW173241   5.918   2.585   9.475
23803SOL    HW273242   5.986   2.691   9.391
23804SOL     OW73243  12.904  11.567   5.057
23804SOL    HW173244  12.882  11.483   5.098
23804SOL    HW273245  12.819  11.612   5.047
23805SOL     OW73246   8.972   6.112   4.781
23805SOL    HW173247   8.943   6.071   4.862
23805SOL    HW273248   9.067   6.103   4.782
23806SOL     OW73249  14.009  13.699   0.152
23806SOL    HW173250  14.077  13.643   0.113
23806SOL    HW273251  13.935  13.692   0.091
23807SOL     OW73252  14.867   7.086  14.709
23807SOL    HW173253   0.059   7.073  14.778
23807SOL    HW273254   0.046   7.087  14.628
23808SOL     OW73255   7.073   5.872  13.496
23808SOL    HW173256   6.993   5.924  13.495
23808SOL    HW273257   7.115   5.893  13.580
23809SOL     OW73258  10.435   4.906  14.822
23809SOL    HW173259  10.476   4.880   0.032
23809SOL    HW273260  10.357   4.954  14.849
23810SOL     OW73261   8.140  13.936   1.965
23810SOL    HW173262   8.102  14.005   2.018
23810SOL    HW273263   8.075  13.865   1.967
23811SOL     OW73264   9.244   1.895  10.641
23811SOL    HW173265   9.222   1.804  10.660
23811SOL    HW273266   9.340   1.899  10.651
23812SOL     OW73267  14.243   2.806   9.844
23812SOL    HW173268  14.158   2.782   9.809
23812SOL    HW273269  14.299   2.818   9.767
23813SOL     OW73270   2.066   9.708   3.929
23813SOL    HW173271   2.077   9.792   3.884
23813SOL    HW273272   2.148   9.697   3.978
23814SOL     OW73273   3.753   3.149  13.744
23814SOL    HW173274   3.807   3.116  13.815
23814SOL    HW273275   3.668   3.107  13.757
23815SOL     OW73276   0.283   5.240   2.093
23815SOL    HW173277   0.362   5.240   2.039
23815SOL    HW273278   0.310   5.285   2.174
23816SOL     OW73279  10.847  12.555  11.032
23816SOL    HW173280  10.854  12.570  10.937
23816SOL    HW273281  10.932  12.518  11.056
23817SOL     OW73282  13.500  11.864  11.349
23817SOL    HW173283  13.432  11.820  11.298
23817SOL    HW273284  13.455  11.935  11.393
23818SOL     OW73285   5.135   6.116   9.739
23818SOL    HW173286   5.177   6.197   9.768
23818SOL    HW273287   5.074   6.144   9.671
23819SOL     OW73288   3.643  12.156   1.561
23819SOL    HW173289   3.658  12.132   1.652
23819SOL    HW273290   3.701  12.099   1.511
23820SOL     OW73291  12.651  11.124   1.306
23820SOL    HW173292  12.722  11.061   1.321
23820SOL    HW273293  12.680  11.175   1.231
23821SOL     OW73294  11.575  12.291   8.987
23821SOL    HW173295  11.573  12.333   8.901
23821SOL    HW273296  11.632  12.215   8.975
23822SOL     OW73297   8.405   0.757   6.054
23822SOL    HW173298   8.328   0.770   5.999
23822SOL    HW273299   8.384   0.679   6.106
23823SOL     OW73300  14.310  11.985  13.580
23823SOL    HW173301  14.355  11.995  13.664
23823SOL    HW273302  14.224  11.952  13.604
23824SOL     OW73303   5.867  11.065   7.046
23824SOL    HW173304   5.889  11.079   7.138
23824SOL    HW273305   5.908  11.139   7.000
23825SOL     OW73306  12.397   9.976   6.733
23825SOL    HW173307  12.396   9.885   6.763
23825SOL    HW273308  12.316  10.013   6.766
23826SOL     OW73309   3.799  10.626   5.375
23826SOL    HW173310   3.824  10.674   5.296
23826SOL    HW273311   3.826  10.682   5.447
23827SOL     OW73312  11.949  13.820   2.568
23827SOL    HW173313  12.015  13.889   2.574
23827SOL    HW273314  11.961  13.783   2.480
23828SOL     OW73315   8.115  13.307   1.391
23828SOL    HW173316   8.164  13.298   1.309
23828SOL    HW273317   8.148  13.389   1.429
23829SOL     OW73318   7.203   6.965   2.938
23829SOL    HW173319   7.215   6.875   2.967
23829SOL    HW273320   7.146   6.958   2.861
23830SOL     OW73321   9.106  14.222   9.015
23830SOL    HW173322   9.158  14.145   8.992
23830SOL    HW273323   9.171  14.289   9.035
23831SOL     OW73324  10.568   5.713   4.648
23831SOL    HW173325  10.490   5.761   4.677
23831SOL    HW273326  10.550   5.622   4.672
23832SOL     OW73327   0.193   9.558   6.047
23832SOL    HW173328   0.211   9.634   5.993
23832SOL    HW273329   0.240   9.486   6.005
23833SOL     OW73330   4.072   0.726  12.982
23833SOL    HW173331   4.102   0.657  13.041
23833SOL    HW273332   4.073   0.685  12.895
23834SOL     OW73333  12.602   3.181   4.819
23834SOL    HW173334  12.586   3.218   4.907
23834SOL    HW273335  12.695   3.200   4.802
23835SOL     OW73336  12.135  11.907  12.977
23835SOL    HW173337  12.122  11.853  12.899
23835SOL    HW273338  12.049  11.943  12.997
23836SOL     OW73339  10.253   3.418  14.226
23836SOL    HW173340  10.326   3.479  14.233
23836SOL    HW273341  10.237   3.410  14.132
23837SOL     OW73342   9.296  13.582  14.035
23837SOL    HW173343   9.370  13.576  14.096
23837SOL    HW273344   9.296  13.673  14.007
23838SOL     OW73345  13.340   0.298   6.928
23838SOL    HW173346  13.434   0.282   6.916
23838SOL    HW273347  13.308   0.220   6.973
23839SOL     OW73348   9.047   7.250   9.755
23839SOL    HW173349   9.014   7.295   9.678
23839SOL    HW273350   9.064   7.320   9.818
23840SOL     OW73351   9.768   6.868   0.276
23840SOL    HW173352   9.693   6.927   0.274
23840SOL    HW273353   9.771   6.830   0.188
23841SOL     OW73354  11.895  11.110   8.832
23841SOL    HW173355  11.870  11.159   8.754
23841SOL    HW273356  11.921  11.177   8.895
23842SOL     OW73357   9.845   9.067   4.949
23842SOL    HW173358   9.763   9.018   4.938
23842SOL    HW273359   9.821   9.142   5.003
23843SOL     OW73360   9.228   4.679   4.749
23843SOL    HW173361   9.133   4.691   4.742
23843SOL    HW273362   9.239   4.623   4.827
23844SOL     OW73363  13.712   7.106   6.052
23844SOL    HW173364  13.693   7.141   5.965
23844SOL    HW273365  13.635   7.054   6.074
23845SOL     OW73366   8.399   8.067  13.784
23845SOL    HW173367   8.360   7.992  13.740
23845SOL    HW273368   8.485   8.078  13.743
23846SOL     OW73369   9.541   6.971  10.718
23846SOL    HW173370   9.582   6.887  10.697
23846SOL    HW273371   9.522   7.010  10.633
23847SOL     OW73372   7.029   1.440  14.353
23847SOL    HW173373   7.060   1.350  14.339
23847SOL    HW273374   7.072   1.491  14.284
23848SOL     OW73375  10.917   4.942   9.508
23848SOL    HW173376  11.003   4.929   9.549
23848SOL    HW273377  10.858   4.958   9.582
23849SOL     OW73378  13.411   1.391   4.396
23849SOL    HW173379  13.449   1.315   4.441
23849SOL    HW273380  13.449   1.466   4.442
23850SOL     OW73381   9.481   2.305   0.730
23850SOL    HW173382   9.474   2.349   0.815
23850SOL    HW273383   9.459   2.373   0.666
23851SOL     OW73384   9.224  11.060   6.938
23851SOL    HW173385   9.140  11.032   6.903
23851SOL    HW273386   9.254  10.987   6.991
23852SOL     OW73387   8.084   0.358  14.498
23852SOL    HW173388   8.064   0.415  14.423
23852SOL    HW273389   8.039   0.399  14.571
23853SOL     OW73390   5.413   9.837   6.469
23853SOL    HW173391   5.480   9.865   6.407
23853SOL    HW273392   5.354   9.911   6.477
23854SOL     OW73393   3.557   0.342   6.361
23854SOL    HW173394   3.523   0.302   6.441
23854SOL    HW273395   3.486   0.397   6.329
23855SOL     OW73396   7.814  14.729  12.586
23855SOL    HW173397   7.740  14.779  12.550
23855SOL    HW273398   7.779  14.640  12.595
23856SOL     OW73399  13.909   3.707   6.293
23856SOL    HW173400  13.899   3.693   6.198
23856SOL    HW273401  13.845   3.648   6.333
23857SOL     OW73402   1.410   2.199   1.478
23857SOL    HW173403   1.481   2.168   1.422
23857SOL    HW273404   1.440   2.179   1.567
23858SOL     OW73405  14.110  11.761   3.483
23858SOL    HW173406  14.184  11.820   3.497
23858SOL    HW273407  14.146  11.673   3.493
23859SOL     OW73408   3.141  10.986   7.628
23859SOL    HW173409   3.052  11.009   7.655
23859SOL    HW273410   3.192  10.987   7.710
23860SOL     OW73411   7.496  10.273   4.681
23860SOL    HW173412   7.488  10.311   4.768
23860SOL    HW273413   7.420  10.216   4.672
23861SOL     OW73414   0.039   8.522  13.238
23861SOL    HW173415   0.085   8.530  13.154
23861SOL    HW273416  14.848   8.452  13.225
23862SOL     OW73417  12.290   6.649   6.864
23862SOL    HW173418  12.335   6.628   6.782
23862SOL    HW273419  12.265   6.564   6.901
23863SOL     OW73420   3.171   1.595   5.130
23863SOL    HW173421   3.158   1.622   5.039
23863SOL    HW273422   3.235   1.657   5.165
23864SOL     OW73423   6.419   2.766   1.735
23864SOL    HW173424   6.326   2.757   1.717
23864SOL    HW273425   6.434   2.861   1.737
23865SOL     OW73426   1.209  11.204   5.451
23865SOL    HW173427   1.276  11.255   5.405
23865SOL    HW273428   1.126  11.237   5.417
23866SOL     OW73429  14.033   9.181  11.916
23866SOL    HW173430  14.096   9.147  11.980
23866SOL    HW273431  14.087   9.227  11.851
23867SOL     OW73432  10.905  14.239   4.417
23867SOL    HW173433  10.946  14.178   4.355
23867SOL    HW273434  10.937  14.325   4.391
23868SOL     OW73435   4.017  12.980  11.800
23868SOL    HW173436   4.107  12.990  11.770
23868SOL    HW273437   4.001  12.886  11.799
23869SOL     OW73438  13.212  14.528   9.661
23869SOL    HW173439  13.179  14.570   9.581
23869SOL    HW273440  13.196  14.592   9.730
23870SOL     OW73441   2.427   2.205  11.085
23870SOL    HW173442   2.450   2.268  11.153
23870SOL    HW273443   2.474   2.235  11.007
23871SOL     OW73444   5.758  12.137  13.035
23871SOL    HW173445   5.849  12.121  13.059
23871SOL    HW273446   5.763  12.205  12.967
23872SOL     OW73447  11.476   3.630  10.378
23872SOL    HW173448  11.478   3.604  10.470
23872SOL    HW273449  11.447   3.551  10.331
23873SOL     OW73450   3.808   6.543   8.589
23873SOL    HW173451   3.854   6.601   8.528
23873SOL    HW273452   3.733   6.595   8.618
23874SOL     OW73453   0.590   5.995  13.029
23874SOL    HW173454   0.497   5.976  13.013
23874SOL    HW273455   0.599   6.088  13.011
23875SOL     OW73456  13.923  12.462  13.206
23875SOL    HW173457  13.852  12.490  13.148
23875SOL    HW273458  14.000  12.456  13.150
23876SOL     OW73459   1.485  14.485  14.135
23876SOL    HW173460   1.497  14.532  14.218
23876SOL    HW273461   1.422  14.538  14.087
23877SOL     OW73462   9.011  13.929  13.021
23877SOL    HW173463   8.955  13.984  12.965
23877SOL    HW273464   9.018  13.846  12.974
23878SOL     OW73465  13.863   4.223  12.480
23878SOL    HW173466  13.791   4.220  12.417
23878SOL    HW273467  13.921   4.151  12.454
23879SOL     OW73468   1.610   7.038  10.445
23879SOL    HW173469   1.680   6.972  10.442
23879SOL    HW273470   1.568   7.025  10.529
23880SOL     OW73471   1.504   8.326   3.893
23880SOL    HW173472   1.435   8.330   3.959
23880SOL    HW273473   1.461   8.289   3.816
23881SOL     OW73474   9.005  13.477   2.822
23881SOL    HW173475   9.041  13.524   2.747
23881SOL    HW273476   9.005  13.542   2.893
23882SOL     OW73477   5.314  13.340  14.236
23882SOL    HW173478   5.287  13.249  14.237
23882SOL    HW273479   5.297  13.369  14.146
23883SOL     OW73480   8.806   1.492   0.827
23883SOL    HW173481   8.741   1.437   0.784
23883SOL    HW273482   8.788   1.581   0.795
23884SOL     OW73483   2.070  11.730   9.910
23884SOL    HW173484   2.153  11.751   9.867
23884SOL    HW273485   2.016  11.807   9.896
23885SOL     OW73486   6.369   8.785   1.870
23885SOL    HW173487   6.403   8.870   1.842
23885SOL    HW273488   6.447   8.738   1.900
23886SOL     OW73489  10.374  10.108  13.570
23886SOL    HW173490  10.422  10.037  13.612
23886SOL    HW273491  10.312  10.063  13.512
23887SOL     OW73492   5.908   2.467  14.291
23887SOL    HW173493   5.848   2.399  14.322
23887SOL    HW273494   5.859   2.548  14.300
23888SOL     OW73495   4.691   6.533   6.201
23888SOL    HW173496   4.765   6.563   6.253
23888SOL    HW273497   4.700   6.579   6.117
23889SOL     OW73498   7.013   9.882   0.087
23889SOL    HW173499   6.926   9.913   0.061
23889SOL    HW273500   7.057   9.863   0.004
23890SOL     OW73501   8.489   7.322   1.726
23890SOL    HW173502   8.486   7.252   1.661
23890SOL    HW273503   8.434   7.391   1.689
23891SOL     OW73504   4.587  14.086   3.111
23891SOL    HW173505   4.614  14.005   3.069
23891SOL    HW273506   4.647  14.152   3.078
23892SOL     OW73507   7.009   0.710   4.360
23892SOL    HW173508   6.945   0.664   4.415
23892SOL    HW273509   7.091   0.705   4.408
23893SOL     OW73510   7.166  12.847   4.926
23893SOL    HW173511   7.239  12.908   4.929
23893SOL    HW273512   7.167  12.803   5.011
23894SOL     OW73513   0.098   2.266   1.426
23894SOL    HW173514   0.003   2.271   1.437
23894SOL    HW273515   0.131   2.347   1.465
23895SOL     OW73516  14.815   2.894   7.120
23895SOL    HW173517  14.840   2.815   7.073
23895SOL    HW273518  14.780   2.952   7.052
23896SOL     OW73519   4.300   7.347   6.710
23896SOL    HW173520   4.305   7.251   6.709
23896SOL    HW273521   4.385   7.377   6.679
23897SOL     OW73522  10.430  14.141  11.854
23897SOL    HW173523  10.475  14.087  11.920
23897SOL    HW273524  10.420  14.083  11.779
23898SOL     OW73525  11.648   5.237   8.220
23898SOL    HW173526  11.689   5.314   8.180
23898SOL    HW273527  11.698   5.221   8.300
23899SOL     OW73528   8.099   4.173   0.552
23899SOL    HW173529   8.161   4.238   0.521
23899SOL    HW273530   8.132   4.090   0.519
23900SOL     OW73531   0.786   5.596   9.014
23900SOL    HW173532   0.807   5.667   8.953
23900SOL    HW273533   0.736   5.638   9.083
23901SOL     OW73534  12.339   7.531   1.550
23901SOL    HW173535  12.268   7.537   1.487
23901SOL    HW273536  12.411   7.581   1.511
23902SOL     OW73537   5.221   1.472  12.885
23902SOL    HW173538   5.199   1.435  12.970
23902SOL    HW273539   5.138   1.506  12.852
23903SOL     OW73540   1.729   1.562   6.807
23903SOL    HW173541   1.637   1.539   6.800
23903SOL    HW273542   1.763   1.508   6.878
23904SOL     OW73543   5.746   1.905   8.382
23904SOL    HW173544   5.786   1.822   8.356
23904SOL    HW273545   5.656   1.882   8.406
23905SOL     OW73546  14.318  14.205  13.283
23905SOL    HW173547  14.391  14.149  13.257
23905SOL    HW273548  14.285  14.166  13.363
23906SOL     OW73549  11.890  13.056   8.839
23906SOL    HW173550  11.885  13.010   8.922
23906SOL    HW273551  11.926  12.992   8.778
23907SOL     OW73552   3.501  14.380   2.050
23907SOL    HW173553   3.516  14.466   2.012
23907SOL    HW273554   3.418  14.388   2.096
23908SOL     OW73555   4.581  11.186  13.009
23908SOL    HW173556   4.622  11.145  12.933
23908SOL    HW273557   4.498  11.139  13.019
23909SOL     OW73558   5.491   3.694   9.615
23909SOL    HW173559   5.479   3.641   9.537
23909SOL    HW273560   5.478   3.633   9.688
23910SOL     OW73561   1.410   7.163   6.428
23910SOL    HW173562   1.472   7.226   6.389
23910SOL    HW273563   1.464   7.090   6.455
23911SOL     OW73564   5.764  13.493   9.556
23911SOL    HW173565   5.854  13.523   9.561
23911SOL    HW273566   5.743  13.463   9.644
23912SOL     OW73567   7.302  10.068  11.840
23912SOL    HW173568   7.395  10.056  11.860
23912SOL    HW273569   7.296  10.053  11.745
23913SOL     OW73570  13.603  11.323   3.653
23913SOL    HW173571  13.570  11.339   3.565
23913SOL    HW273572  13.526  11.326   3.709
23914SOL     OW73573   3.478  13.289  12.648
23914SOL    HW173574   3.395  13.336  12.652
23914SOL    HW273575   3.507  13.298  12.557
23915SOL     OW73576   4.735  13.005  14.406
23915SOL    HW173577   4.794  13.057  14.352
23915SOL    HW273578   4.776  12.919  14.412
23916SOL     OW73579  10.442   1.804   2.861
23916SOL    HW173580  10.476   1.892   2.881
23916SOL    HW273581  10.440   1.759   2.946
23917SOL     OW73582   3.178   3.602  14.135
23917SOL    HW173583   3.190   3.514  14.171
23917SOL    HW273584   3.266   3.629  14.109
23918SOL     OW73585   0.064   6.097  11.116
23918SOL    HW173586   0.139   6.060  11.162
23918SOL    HW273587   0.044   6.178  11.163
23919SOL     OW73588   2.235   2.859   3.937
23919SOL    HW173589   2.320   2.843   3.978
23919SOL    HW273590   2.204   2.939   3.978
23920SOL     OW73591   2.475   5.041   4.378
23920SOL    HW173592   2.450   4.959   4.419
23920SOL    HW273593   2.486   5.102   4.451
23921SOL     OW73594   2.280   6.086   3.667
23921SOL    HW173595   2.348   6.030   3.706
23921SOL    HW273596   2.309   6.175   3.688
23922SOL     OW73597   2.030  10.592   9.819
23922SOL    HW173598   2.093  10.646   9.865
23922SOL    HW273599   1.967  10.654   9.781
23923SOL     OW73600   3.805   0.038   4.049
23923SOL    HW173601   3.818   0.007   4.139
23923SOL    HW273602   3.758   0.120   4.059
23924SOL     OW73603  12.737   5.755   0.580
23924SOL    HW173604  12.738   5.829   0.642
23924SOL    HW273605  12.645   5.731   0.573
23925SOL     OW73606  11.950  10.172   4.230
23925SOL    HW173607  11.986  10.249   4.186
23925SOL    HW273608  12.027  10.125   4.264
23926SOL     OW73609   7.504   3.997   9.948
23926SOL    HW173610   7.450   4.005   9.870
23926SOL    HW273611   7.571   4.066   9.939
23927SOL     OW73612  12.232   3.170  14.235
23927SOL    HW173613  12.283   3.250  14.248
23927SOL    HW273614  12.143   3.194  14.259
23928SOL     OW73615  13.369   1.086   4.523
23928SOL    HW173616  13.403   1.137   4.596
23928SOL    HW273617  13.287   1.048   4.556
23929SOL     OW73618   3.589   8.123  10.648
23929SOL    HW173619   3.501   8.130  10.611
23929SOL    HW273620   3.589   8.184  10.722
23930SOL     OW73621   9.365  14.187  14.130
23930SOL    HW173622   9.329  14.183  14.041
23930SOL    HW273623   9.423  14.263  14.130
23931SOL     OW73624  10.826   1.585   6.718
23931SOL    HW173625  10.860   1.620   6.800
23931SOL    HW273626  10.747   1.637   6.700
23932SOL     OW73627  14.800  14.782   7.826
23932SOL    HW173628  14.838  14.700   7.796
23932SOL    HW273629   0.002  14.830   7.865
23933SOL     OW73630   2.683   9.665   2.551
23933SOL    HW173631   2.651   9.661   2.640
23933SOL    HW273632   2.759   9.723   2.555
23934SOL     OW73633   2.023   9.685   5.427
23934SOL    HW173634   1.981   9.620   5.484
23934SOL    HW273635   2.005   9.769   5.470
23935SOL     OW73636   1.340  14.022   6.428
23935SOL    HW173637   1.396  14.099   6.426
23935SOL    HW273638   1.389  13.958   6.480
23936SOL     OW73639   3.436  13.022  14.316
23936SOL    HW173640   3.524  12.987  14.305
23936SOL    HW273641   3.450  13.115  14.338
23937SOL     OW73642   3.091   3.183   1.785
23937SOL    HW173643   3.053   3.167   1.871
23937SOL    HW273644   3.026   3.151   1.723
23938SOL     OW73645  14.727   5.067  11.248
23938SOL    HW173646  14.781   5.102  11.177
23938SOL    HW273647  14.788   5.052  11.320
23939SOL     OW73648   5.342   5.855   4.456
23939SOL    HW173649   5.301   5.819   4.535
23939SOL    HW273650   5.348   5.780   4.396
23940SOL     OW73651   4.033   4.982   8.378
23940SOL    HW173652   4.052   5.027   8.295
23940SOL    HW273653   4.004   5.052   8.437
23941SOL     OW73654   4.875   3.661   9.594
23941SOL    HW173655   4.818   3.730   9.559
23941SOL    HW273656   4.898   3.607   9.519
23942SOL     OW73657   7.127   0.065   9.367
23942SOL    HW173658   7.119   0.124   9.442
23942SOL    HW273659   7.037   0.039   9.347
23943SOL     OW73660   1.845   6.719   0.391
23943SOL    HW173661   1.895   6.689   0.315
23943SOL    HW273662   1.799   6.797   0.360
23944SOL     OW73663   0.654   6.227   1.944
23944SOL    HW173664   0.562   6.243   1.966
23944SOL    HW273665   0.703   6.261   2.019
23945SOL     OW73666   2.185   0.366  12.215
23945SOL    HW173667   2.127   0.438  12.238
23945SOL    HW273668   2.129   0.304  12.169
23946SOL     OW73669  13.165   4.000  12.896
23946SOL    HW173670  13.205   4.030  12.814
23946SOL    HW273671  13.124   4.078  12.933
23947SOL     OW73672   3.848   3.990   6.026
23947SOL    HW173673   3.839   3.937   6.105
23947SOL    HW273674   3.857   4.080   6.057
23948SOL     OW73675   6.418   4.890   9.284
23948SOL    HW173676   6.412   4.954   9.355
23948SOL    HW273677   6.389   4.808   9.323
23949SOL     OW73678   6.122   5.131   5.334
23949SOL    HW173679   6.035   5.162   5.360
23949SOL    HW273680   6.182   5.171   5.397
23950SOL     OW73681   1.770  11.358   1.917
23950SOL    HW173682   1.853  11.394   1.886
23950SOL    HW273683   1.795  11.297   1.986
23951SOL     OW73684  10.177   8.091   5.542
23951SOL    HW173685  10.138   8.147   5.475
23951SOL    HW273686  10.216   8.153   5.605
23952SOL     OW73687   5.927   9.660   6.367
23952SOL    HW173688   5.901   9.568   6.367
23952SOL    HW273689   5.966   9.674   6.280
23953SOL     OW73690   8.287   3.135   6.025
23953SOL    HW173691   8.328   3.168   6.106
23953SOL    HW273692   8.311   3.199   5.958
23954SOL     OW73693  14.196  11.483  13.121
23954SOL    HW173694  14.105  11.456  13.136
23954SOL    HW273695  14.196  11.521  13.034
23955SOL     OW73696  10.634  13.829   9.627
23955SOL    HW173697  10.588  13.912   9.611
23955SOL    HW273698  10.669  13.804   9.542
23956SOL     OW73699  12.135   1.556   9.123
23956SOL    HW173700  12.167   1.521   9.206
23956SOL    HW273701  12.206   1.538   9.060
23957SOL     OW73702  13.900  12.232   0.301
23957SOL    HW173703  13.824  12.278   0.337
23957SOL    HW273704  13.890  12.142   0.334
23958SOL     OW73705   3.067   1.233   8.252
23958SOL    HW173706   3.024   1.217   8.336
23958SOL    HW273707   3.144   1.285   8.275
23959SOL     OW73708  14.578   6.053   1.531
23959SOL    HW173709  14.638   5.997   1.581
23959SOL    HW273710  14.540   6.112   1.596
23960SOL     OW73711  13.401  13.594   6.234
23960SOL    HW173712  13.372  13.616   6.323
23960SOL    HW273713  13.463  13.664   6.212
23961SOL     OW73714  14.342   8.726   4.027
23961SOL    HW173715  14.394   8.668   3.971
23961SOL    HW273716  14.251   8.705   4.006
23962SOL     OW73717   2.091  12.729   0.212
23962SOL    HW173718   2.175  12.762   0.243
23962SOL    HW273719   2.080  12.770   0.126
23963SOL     OW73720   5.590   7.681  11.395
23963SOL    HW173721   5.518   7.734  11.359
23963SOL    HW273722   5.585   7.599  11.346
23964SOL     OW73723   6.233   2.038  14.137
23964SOL    HW173724   6.325   2.014  14.125
23964SOL    HW273725   6.221   2.041  14.232
23965SOL     OW73726   1.307   9.021   2.102
23965SOL    HW173727   1.393   8.997   2.066
23965SOL    HW273728   1.325   9.046   2.193
23966SOL     OW73729  14.677  14.192   7.724
23966SOL    HW173730  14.638  14.105   7.738
23966SOL    HW273731  14.601  14.249   7.710
23967SOL     OW73732  10.902  14.102   9.668
23967SOL    HW173733  10.846  14.173   9.638
23967SOL    HW273734  10.871  14.083   9.757
23968SOL     OW73735  10.689   4.175   3.084
23968SOL    HW173736  10.597   4.197   3.069
23968SOL    HW273737  10.716   4.129   3.005
23969SOL     OW73738   8.889  13.547   0.612
23969SOL    HW173739   8.823  13.491   0.571
23969SOL    HW273740   8.964  13.489   0.625
23970SOL     OW73741   5.186   3.191   5.552
23970SOL    HW173742   5.168   3.201   5.645
23970SOL    HW273743   5.249   3.259   5.531
23971SOL     OW73744   2.873   0.735   1.397
23971SOL    HW173745   2.897   0.682   1.321
23971SOL    HW273746   2.903   0.823   1.376
23972SOL     OW73747   3.922  13.945   0.766
23972SOL    HW173748   3.971  14.023   0.742
23972SOL    HW273749   3.987  13.887   0.806
23973SOL     OW73750  10.026   6.069   8.412
23973SOL    HW173751  10.120   6.078   8.399
23973SOL    HW273752  10.017   5.988   8.463
23974SOL     OW73753   8.688   2.205   0.980
23974SOL    HW173754   8.595   2.225   0.973
23974SOL    HW273755   8.691   2.109   0.989
23975SOL     OW73756   6.240  13.932   2.823
23975SOL    HW173757   6.316  13.988   2.840
23975SOL    HW273758   6.198  13.921   2.908
23976SOL     OW73759   6.212  12.816   8.750
23976SOL    HW173760   6.213  12.806   8.655
23976SOL    HW273761   6.200  12.910   8.764
23977SOL     OW73762   6.471  14.697   6.195
23977SOL    HW173763   6.463  14.626   6.259
23977SOL    HW273764   6.476  14.776   6.248
23978SOL     OW73765   8.328   8.314   9.370
23978SOL    HW173766   8.373   8.397   9.385
23978SOL    HW273767   8.235   8.337   9.373
23979SOL     OW73768   6.790   3.299   3.824
23979SOL    HW173769   6.833   3.353   3.758
23979SOL    HW273770   6.761   3.221   3.777
23980SOL     OW73771  13.014   5.550  12.164
23980SOL    HW173772  12.992   5.586  12.078
23980SOL    HW273773  12.930   5.539  12.208
23981SOL     OW73774  12.412  11.404  10.336
23981SOL    HW173775  12.495  11.433  10.375
23981SOL    HW273776  12.362  11.369  10.410
23982SOL     OW73777  13.257  10.289   1.634
23982SOL    HW173778  13.302  10.352   1.577
23982SOL    HW273779  13.308  10.290   1.715
23983SOL     OW73780   9.662   2.205  11.042
23983SOL    HW173781   9.639   2.205  11.135
23983SOL    HW273782   9.738   2.149  11.036
23984SOL     OW73783   2.263  12.351   1.213
23984SOL    HW173784   2.192  12.373   1.154
23984SOL    HW273785   2.338  12.333   1.156
23985SOL     OW73786   9.707   0.285   1.561
23985SOL    HW173787   9.616   0.266   1.538
23985SOL    HW273788   9.745   0.320   1.480
23986SOL     OW73789   4.127   8.256   7.206
23986SOL    HW173790   4.121   8.273   7.112
23986SOL    HW273791   4.113   8.162   7.214
23987SOL     OW73792  10.209   8.585   2.606
23987SOL    HW173793  10.165   8.501   2.622
23987SOL    HW273794  10.211   8.627   2.692
23988SOL     OW73795  12.069  12.314   8.577
23988SOL    HW173796  12.033  12.308   8.665
23988SOL    HW273797  12.160  12.288   8.585
23989SOL     OW73798   1.924  13.100  12.174
23989SOL    HW173799   1.942  13.107  12.268
23989SOL    HW273800   1.871  13.021  12.166
23990SOL     OW73801  14.756   5.531   0.288
23990SOL    HW173802  14.801   5.498   0.366
23990SOL    HW273803  14.708   5.455   0.255
23991SOL     OW73804   3.058   7.266   1.625
23991SOL    HW173805   3.013   7.299   1.703
23991SOL    HW273806   3.033   7.173   1.621
23992SOL     OW73807   9.231   6.597   8.028
23992SOL    HW173808   9.311   6.549   8.051
23992SOL    HW273809   9.168   6.528   8.006
23993SOL     OW73810   7.819   0.927   6.700
23993SOL    HW173811   7.904   0.884   6.688
23993SOL    HW273812   7.765   0.861   6.743
23994SOL     OW73813   6.611  14.501   4.648
23994SOL    HW173814   6.655  14.585   4.637
23994SOL    HW273815   6.621  14.457   4.564
23995SOL     OW73816   4.946  12.780   7.228
23995SOL    HW173817   4.918  12.689   7.234
23995SOL    HW273818   4.948  12.810   7.319
23996SOL     OW73819   4.490   5.275   4.867
23996SOL    HW173820   4.557   5.206   4.870
23996SOL    HW273821   4.489   5.304   4.776
23997SOL     OW73822  14.568   6.942   3.950
23997SOL    HW173823  14.545   6.962   4.041
23997SOL    HW273824  14.553   6.848   3.941
23998SOL     OW73825  14.646   8.383   2.994
23998SOL    HW173826  14.652   8.441   2.918
23998SOL    HW273827  14.664   8.296   2.959
23999SOL     OW73828  14.525   0.989  13.001
23999SOL    HW173829  14.476   1.066  13.030
23999SOL    HW273830  14.478   0.958  12.923
24000SOL     OW73831   6.492   5.372  14.229
24000SOL    HW173832   6.586   5.389  14.230
24000SOL    HW273833   6.484   5.283  14.195
24001SOL     OW73834  14.757   0.193   6.150
24001SOL    HW173835  14.783   0.180   6.059
24001SOL    HW273836  14.784   0.283   6.171
24002SOL     OW73837  12.789  10.612   7.637
24002SOL    HW173838  12.797  10.527   7.594
24002SOL    HW273839  12.856  10.610   7.706
24003SOL     OW73840   6.457  14.864  11.163
24003SOL    HW173841   6.435  14.845  11.255
24003SOL    HW273842   6.421  14.791  11.114
24004SOL     OW73843   0.628  11.281  11.070
24004SOL    HW173844   0.593  11.314  10.988
24004SOL    HW273845   0.715  11.320  11.077
24005SOL     OW73846   6.947   9.185  10.354
24005SOL    HW173847   6.981   9.096  10.363
24005SOL    HW273848   7.010   9.240  10.401
24006SOL     OW73849   9.390   5.185  12.600
24006SOL    HW173850   9.468   5.236  12.621
24006SOL    HW273851   9.343   5.238  12.536
24007SOL     OW73852  13.896   0.786  13.644
24007SOL    HW173853  13.936   0.711  13.689
24007SOL    HW273854  13.834   0.821  13.708
24008SOL     OW73855   3.394   0.803   8.998
24008SOL    HW173856   3.400   0.748   9.077
24008SOL    HW273857   3.386   0.892   9.032
24009SOL     OW73858   4.682  11.858  13.070
24009SOL    HW173859   4.718  11.947  13.062
24009SOL    HW273860   4.742  11.813  13.129
24010SOL     OW73861  11.387   7.399   1.775
24010SOL    HW173862  11.338   7.357   1.846
24010SOL    HW273863  11.449   7.456   1.819
24011SOL     OW73864   2.204   6.741   1.908
24011SOL    HW173865   2.162   6.686   1.974
24011SOL    HW273866   2.140   6.808   1.888
24012SOL     OW73867   9.548   3.189  11.508
24012SOL    HW173868   9.499   3.217  11.586
24012SOL    HW273869   9.480   3.168  11.444
24013SOL     OW73870  13.808   0.329   6.057
24013SOL    HW173871  13.761   0.339   6.139
24013SOL    HW273872  13.884   0.387   6.066
24014SOL     OW73873   7.489   2.282   6.568
24014SOL    HW173874   7.399   2.313   6.571
24014SOL    HW273875   7.483   2.190   6.544
24015SOL     OW73876   9.946  12.546   9.190
24015SOL    HW173877  10.020  12.548   9.130
24015SOL    HW273878   9.893  12.622   9.167
24016SOL     OW73879   3.804   9.716   6.199
24016SOL    HW173880   3.870   9.786   6.203
24016SOL    HW273881   3.733   9.748   6.254
24017SOL     OW73882   4.601  13.126  12.006
24017SOL    HW173883   4.559  13.149  12.090
24017SOL    HW273884   4.681  13.081  12.031
24018SOL     OW73885  11.951  14.020   4.272
24018SOL    HW173886  12.000  14.061   4.201
24018SOL    HW273887  11.905  14.092   4.314
24019SOL     OW73888  12.119   1.975   3.503
24019SOL    HW173889  12.108   1.880   3.505
24019SOL    HW273890  12.119   1.997   3.410
24020SOL     OW73891   5.671   2.235  12.480
24020SOL    HW173892   5.697   2.168  12.416
24020SOL    HW273893   5.576   2.228  12.484
24021SOL     OW73894   8.218   0.682   6.797
24021SOL    HW173895   8.134   0.637   6.803
24021SOL    HW273896   8.271   0.627   6.739
24022SOL     OW73897   6.811  12.677   6.883
24022SOL    HW173898   6.757  12.601   6.864
24022SOL    HW273899   6.786  12.742   6.817
24023SOL     OW73900   7.661   9.061   7.918
24023SOL    HW173901   7.651   9.140   7.970
24023SOL    HW273902   7.593   9.067   7.851
24024SOL     OW73903   5.983   0.103   6.880
24024SOL    HW173904   5.970   0.008   6.876
24024SOL    HW273905   5.919   0.132   6.945
24025SOL     OW73906  10.502   5.008   4.720
24025SOL    HW173907  10.480   5.094   4.756
24025SOL    HW273908  10.560   4.969   4.786
24026SOL     OW73909   8.804   1.664   2.445
24026SOL    HW173910   8.802   1.591   2.383
24026SOL    HW273911   8.723   1.712   2.429
24027SOL     OW73912   3.305  10.100   2.330
24027SOL    HW173913   3.312  10.153   2.409
24027SOL    HW273914   3.395  10.083   2.304
24028SOL     OW73915   2.662   7.293   0.439
24028SOL    HW173916   2.629   7.256   0.521
24028SOL    HW273917   2.583   7.308   0.386
24029SOL     OW73918  10.767   4.423   9.717
24029SOL    HW173919  10.762   4.513   9.685
24029SOL    HW273920  10.856   4.394   9.694
24030SOL     OW73921   1.369   6.266  10.500
24030SOL    HW173922   1.414   6.189  10.465
24030SOL    HW273923   1.434   6.337  10.492
24031SOL     OW73924  12.089  11.167   6.473
24031SOL    HW173925  12.182  11.148   6.459
24031SOL    HW273926  12.045  11.083   6.462
24032SOL     OW73927   4.427   7.994   5.488
24032SOL    HW173928   4.444   8.044   5.407
24032SOL    HW273929   4.388   7.913   5.457
24033SOL     OW73930   0.906   5.655  13.037
24033SOL    HW173931   0.943   5.664  12.949
24033SOL    HW273932   0.848   5.578  13.030
24034SOL     OW73933  11.382   6.154  14.646
24034SOL    HW173934  11.452   6.101  14.608
24034SOL    HW273935  11.377   6.125  14.737
24035SOL     OW73936   5.798   4.614   7.526
24035SOL    HW173937   5.790   4.621   7.621
24035SOL    HW273938   5.850   4.690   7.501
24036SOL     OW73939   9.765  14.498   5.984
24036SOL    HW173940   9.842  14.552   6.001
24036SOL    HW273941   9.696  14.535   6.040
24037SOL     OW73942   8.472   9.727  11.755
24037SOL    HW173943   8.521   9.647  11.734
24037SOL    HW273944   8.388   9.715  11.711
24038SOL     OW73945   2.647  11.007   3.425
24038SOL    HW173946   2.703  10.957   3.485
24038SOL    HW273947   2.635  11.091   3.469
24039SOL     OW73948   8.394   6.344   9.301
24039SOL    HW173949   8.489   6.357   9.301
24039SOL    HW273950   8.375   6.312   9.390
24040SOL     OW73951  12.500   9.386   6.373
24040SOL    HW173952  12.467   9.475   6.361
24040SOL    HW273953  12.593   9.391   6.348
24041SOL     OW73954   5.505  12.033   2.783
24041SOL    HW173955   5.481  12.102   2.845
24041SOL    HW273956   5.447  12.047   2.708
24042SOL     OW73957   3.781  11.079   4.012
24042SOL    HW173958   3.803  11.044   4.098
24042SOL    HW273959   3.687  11.059   4.002
24043SOL     OW73960   7.692   2.835   5.920
24043SOL    HW173961   7.634   2.806   5.849
24043SOL    HW273962   7.739   2.756   5.947
24044SOL     OW73963  13.267  10.528  12.323
24044SOL    HW173964  13.210  10.528  12.400
24044SOL    HW273965  13.243  10.448  12.276
24045SOL     OW73966   4.368   1.028  13.914
24045SOL    HW173967   4.394   0.936  13.908
24045SOL    HW273968   4.395   1.066  13.830
24046SOL     OW73969  12.627   0.278   7.137
24046SOL    HW173970  12.605   0.364   7.102
24046SOL    HW273971  12.591   0.215   7.074
24047SOL     OW73972   4.043   8.196   5.283
24047SOL    HW173973   3.971   8.186   5.221
24047SOL    HW273974   4.111   8.138   5.249
24048SOL     OW73975   2.662   6.207  12.761
24048SOL    HW173976   2.709   6.204  12.677
24048SOL    HW273977   2.581   6.160  12.745
24049SOL     OW73978   5.138   5.936   8.063
24049SOL    HW173979   5.183   5.859   8.028
24049SOL    HW273980   5.150   6.003   7.996
24050SOL     OW73981  12.412  11.572  13.777
24050SOL    HW173982  12.358  11.513  13.723
24050SOL    HW273983  12.424  11.650  13.723
24051SOL     OW73984  13.436  10.419   2.229
24051SOL    HW173985  13.526  10.403   2.259
24051SOL    HW273986  13.399  10.331   2.217
24052SOL     OW73987   9.565  14.422  14.307
24052SOL    HW173988   9.514  14.485  14.256
24052SOL    HW273989   9.521  14.419  14.392
24053SOL     OW73990   9.441   5.437   1.697
24053SOL    HW173991   9.413   5.456   1.608
24053SOL    HW273992   9.364   5.456   1.751
24054SOL     OW73993   5.670   4.276  11.468
24054SOL    HW173994   5.746   4.226  11.437
24054SOL    HW273995   5.597   4.243  11.415
24055SOL     OW73996   7.632   2.368   4.621
24055SOL    HW173997   7.647   2.374   4.526
24055SOL    HW273998   7.720   2.373   4.659
24056SOL     OW73999   2.171  11.890  13.045
24056SOL    HW174000   2.078  11.878  13.063
24056SOL    HW274001   2.204  11.940  13.119
24057SOL     OW74002   9.029  11.438   0.523
24057SOL    HW174003   9.108  11.427   0.469
24057SOL    HW274004   8.968  11.486   0.467
24058SOL     OW74005   1.829  11.002  14.497
24058SOL    HW174006   1.881  10.959  14.565
24058SOL    HW274007   1.859  10.962  14.416
24059SOL     OW74008   2.273  13.741   0.691
24059SOL    HW174009   2.240  13.659   0.655
24059SOL    HW274010   2.315  13.717   0.774
24060SOL     OW74011  11.477   2.543   4.618
24060SOL    HW174012  11.569   2.551   4.640
24060SOL    HW274013  11.447   2.467   4.667
24061SOL     OW74014   8.142   1.309   5.752
24061SOL    HW174015   8.209   1.376   5.764
24061SOL    HW274016   8.060   1.350   5.781
24062SOL     OW74017  10.824  12.993   4.812
24062SOL    HW174018  10.740  12.973   4.852
24062SOL    HW274019  10.802  13.027   4.726
24063SOL     OW74020   4.815   2.208   9.787
24063SOL    HW174021   4.889   2.199   9.727
24063SOL    HW274022   4.738   2.201   9.730
24064SOL     OW74023   7.587   9.662   6.665
24064SOL    HW174024   7.678   9.633   6.655
24064SOL    HW274025   7.535   9.589   6.632
24065SOL     OW74026  11.743  12.128   4.517
24065SOL    HW174027  11.802  12.111   4.591
24065SOL    HW274028  11.802  12.157   4.447
24066SOL     OW74029   5.292   3.440  10.877
24066SOL    HW174030   5.257   3.526  10.852
24066SOL    HW274031   5.217   3.394  10.916
24067SOL     OW74032   3.689   1.523   2.427
24067SOL    HW174033   3.593   1.523   2.427
24067SOL    HW274034   3.713   1.501   2.517
24068SOL     OW74035   9.456  10.889   7.280
24068SOL    HW174036   9.366  10.873   7.253
24068SOL    HW274037   9.507  10.885   7.199
24069SOL     OW74038   1.020   0.925   9.288
24069SOL    HW174039   0.999   0.835   9.314
24069SOL    HW274040   0.972   0.979   9.350
24070SOL     OW74041   9.938   5.620   1.279
24070SOL    HW174042   9.963   5.599   1.188
24070SOL    HW274043   9.884   5.546   1.307
24071SOL     OW74044   5.203  13.620  13.957
24071SOL    HW174045   5.226  13.710  13.981
24071SOL    HW274046   5.129  13.599  14.014
24072SOL     OW74047   8.439   3.929   1.296
24072SOL    HW174048   8.416   3.852   1.244
24072SOL    HW274049   8.449   3.896   1.385
24073SOL     OW74050   2.649   5.572  14.258
24073SOL    HW174051   2.737   5.603  14.234
24073SOL    HW274052   2.593   5.599  14.186
24074SOL     OW74053  10.766   8.781   3.703
24074SOL    HW174054  10.708   8.839   3.653
24074SOL    HW274055  10.850   8.827   3.704
24075SOL     OW74056   8.140   0.773   3.643
24075SOL    HW174057   8.087   0.836   3.692
24075SOL    HW274058   8.222   0.820   3.626
24076SOL     OW74059   4.702  11.536  14.342
24076SOL    HW174060   4.632  11.582  14.295
24076SOL    HW274061   4.780  11.590  14.328
24077SOL     OW74062   5.276   1.042  11.444
24077SOL    HW174063   5.292   1.066  11.535
24077SOL    HW274064   5.181   1.051  11.434
24078SOL     OW74065  10.783  12.576   0.385
24078SOL    HW174066  10.846  12.636   0.426
24078SOL    HW274067  10.826  12.548   0.304
24079SOL     OW74068   7.923  10.322  10.408
24079SOL    HW174069   7.945  10.414  10.426
24079SOL    HW274070   8.005  10.283  10.378
24080SOL     OW74071  12.185   8.504   0.331
24080SOL    HW174072  12.168   8.440   0.400
24080SOL    HW274073  12.267   8.546   0.357
24081SOL     OW74074   8.031   0.303   2.947
24081SOL    HW174075   8.118   0.331   2.975
24081SOL    HW274076   7.988   0.384   2.919
24082SOL     OW74077   2.615   3.987   3.618
24082SOL    HW174078   2.568   4.033   3.548
24082SOL    HW274079   2.671   4.054   3.657
24083SOL     OW74080   7.576   9.601   3.585
24083SOL    HW174081   7.506   9.570   3.642
24083SOL    HW274082   7.530   9.636   3.508
24084SOL     OW74083   5.894   2.126   3.970
24084SOL    HW174084   5.867   2.133   3.878
24084SOL    HW274085   5.895   2.217   4.002
24085SOL     OW74086  12.179   9.818   0.190
24085SOL    HW174087  12.151   9.816   0.282
24085SOL    HW274088  12.230   9.899   0.183
24086SOL     OW74089  10.379  14.537  12.150
24086SOL    HW174090  10.322  14.613  12.162
24086SOL    HW274091  10.327  14.475  12.099
24087SOL     OW74092   6.601   1.643   7.279
24087SOL    HW174093   6.537   1.575   7.258
24087SOL    HW274094   6.676   1.595   7.313
24088SOL     OW74095   0.413   2.810  12.415
24088SOL    HW174096   0.424   2.804  12.320
24088SOL    HW274097   0.498   2.840  12.447
24089SOL     OW74098   5.870   6.945  12.149
24089SOL    HW174099   5.958   6.920  12.177
24089SOL    HW274100   5.812   6.894  12.205
24090SOL     OW74101  12.077   4.453   5.636
24090SOL    HW174102  11.998   4.502   5.659
24090SOL    HW274103  12.130   4.514   5.586
24091SOL     OW74104   9.246   0.663  10.435
24091SOL    HW174105   9.289   0.581  10.461
24091SOL    HW274106   9.318   0.720  10.408
24092SOL     OW74107   2.447   7.434   7.031
24092SOL    HW174108   2.402   7.512   6.998
24092SOL    HW274109   2.526   7.468   7.073
24093SOL     OW74110   6.460   6.983   2.055
24093SOL    HW174111   6.368   7.002   2.034
24093SOL    HW274112   6.476   6.898   2.015
24094SOL     OW74113   9.650   5.438   1.880
24094SOL    HW174114   9.717   5.506   1.882
24094SOL    HW274115   9.577   5.478   1.833
24095SOL     OW74116   5.874   2.488   6.846
24095SOL    HW174117   5.882   2.512   6.938
24095SOL    HW274118   5.856   2.570   6.801
24096SOL     OW74119   5.363   7.610   0.055
24096SOL    HW174120   5.344   7.681  14.866
24096SOL    HW274121   5.456   7.618   0.074
24097SOL     OW74122   3.810   1.218   2.815
24097SOL    HW174123   3.848   1.181   2.736
24097SOL    HW274124   3.875   1.200   2.883
24098SOL     OW74125   3.450  11.347   7.095
24098SOL    HW174126   3.481  11.316   7.010
24098SOL    HW274127   3.478  11.439   7.099
24099SOL     OW74128  12.592   6.275  12.997
24099SOL    HW174129  12.524   6.239  12.940
24099SOL    HW274130  12.661   6.209  12.997
24100SOL     OW74131   3.946   5.021  10.598
24100SOL    HW174132   3.908   5.012  10.511
24100SOL    HW274133   4.038   4.995  10.587
24101SOL     OW74134  11.958  13.644   7.676
24101SOL    HW174135  11.928  13.733   7.692
24101SOL    HW274136  12.044  13.639   7.719
24102SOL     OW74137   1.317  10.766   8.766
24102SOL    HW174138   1.379  10.839   8.770
24102SOL    HW274139   1.369  10.692   8.733
24103SOL     OW74140   3.054   8.468   9.847
24103SOL    HW174141   3.017   8.494   9.931
24103SOL    HW274142   3.073   8.551   9.803
24104SOL     OW74143   4.698   4.202   6.067
24104SOL    HW174144   4.620   4.148   6.084
24104SOL    HW274145   4.771   4.142   6.077
24105SOL     OW74146   4.248  10.209   0.032
24105SOL    HW174147   4.153  10.201   0.042
24105SOL    HW274148   4.266  10.171  14.818
24106SOL     OW74149   9.311  14.005   3.447
24106SOL    HW174150   9.252  13.930   3.460
24106SOL    HW274151   9.350  14.020   3.533
24107SOL     OW74152   8.382   6.902   2.058
24107SOL    HW174153   8.395   6.834   1.992
24107SOL    HW274154   8.455   6.963   2.044
24108SOL     OW74155   2.943   9.169   4.117
24108SOL    HW174156   3.012   9.115   4.079
24108SOL    HW274157   2.918   9.228   4.046
24109SOL     OW74158   9.259   2.759   5.657
24109SOL    HW174159   9.342   2.724   5.691
24109SOL    HW274160   9.199   2.685   5.664
24110SOL     OW74161   4.809  10.912  12.437
24110SOL    HW174162   4.894  10.940  12.401
24110SOL    HW274163   4.795  10.970  12.511
24111SOL     OW74164   6.556  13.748   2.156
24111SOL    HW174165   6.533  13.709   2.071
24111SOL    HW274166   6.474  13.787   2.187
24112SOL     OW74167  10.146  11.014   1.909
24112SOL    HW174168  10.238  11.011   1.933
24112SOL    HW274169  10.137  10.945   1.842
24113SOL     OW74170  14.211   2.281  10.600
24113SOL    HW174171  14.220   2.210  10.537
24113SOL    HW274172  14.126   2.320  10.582
24114SOL     OW74173  14.053   7.118  13.898
24114SOL    HW174174  13.960   7.124  13.876
24114SOL    HW274175  14.068   7.189  13.959
24115SOL     OW74176  13.532  11.850   0.330
24115SOL    HW174177  13.512  11.834   0.238
24115SOL    HW274178  13.489  11.779   0.377
24116SOL     OW74179   6.257   8.041  11.700
24116SOL    HW174180   6.239   7.960  11.653
24116SOL    HW274181   6.352   8.042  11.712
24117SOL     OW74182  13.648   4.981   2.351
24117SOL    HW174183  13.645   5.069   2.313
24117SOL    HW274184  13.642   4.922   2.275
24118SOL     OW74185   8.876   1.713   5.307
24118SOL    HW174186   8.909   1.695   5.219
24118SOL    HW274187   8.945   1.684   5.366
24119SOL     OW74188   5.940  13.219   7.405
24119SOL    HW174189   5.962  13.284   7.472
24119SOL    HW274190   6.023  13.201   7.361
24120SOL     OW74191   7.837   1.644   3.835
24120SOL    HW174192   7.805   1.558   3.809
24120SOL    HW274193   7.892   1.672   3.762
24121SOL     OW74194  13.411   5.745   5.959
24121SOL    HW174195  13.376   5.665   5.999
24121SOL    HW274196  13.365   5.816   6.004
24122SOL     OW74197  11.875  10.776   0.451
24122SOL    HW174198  11.886  10.681   0.447
24122SOL    HW274199  11.963  10.811   0.440
24123SOL     OW74200  11.483   2.040  10.417
24123SOL    HW174201  11.401   2.008  10.380
24123SOL    HW274202  11.471   2.135  10.425
24124SOL     OW74203   7.661   2.698   3.292
24124SOL    HW174204   7.710   2.632   3.341
24124SOL    HW274205   7.609   2.744   3.358
24125SOL     OW74206   6.216   8.744   1.311
24125SOL    HW174207   6.188   8.824   1.356
24125SOL    HW274208   6.311   8.751   1.307
24126SOL     OW74209   2.114   8.527   9.817
24126SOL    HW174210   2.105   8.473   9.895
24126SOL    HW274211   2.042   8.590   9.822
24127SOL     OW74212   1.376   2.274   9.145
24127SOL    HW174213   1.355   2.198   9.092
24127SOL    HW274214   1.330   2.347   9.103
24128SOL     OW74215  12.624   0.123  11.617
24128SOL    HW174216  12.586   0.089  11.698
24128SOL    HW274217  12.651   0.044  11.569
24129SOL     OW74218   1.732   1.942   8.225
24129SOL    HW174219   1.726   1.950   8.129
24129SOL    HW274220   1.791   1.868   8.239
24130SOL     OW74221   8.620  10.966   6.620
24130SOL    HW174222   8.653  10.896   6.564
24130SOL    HW274223   8.543  11.000   6.573
24131SOL     OW74224   7.234   1.575  14.007
24131SOL    HW174225   7.144   1.541  14.004
24131SOL    HW274226   7.268   1.558  13.919
24132SOL     OW74227   6.597   9.242   9.208
24132SOL    HW174228   6.614   9.195   9.126
24132SOL    HW274229   6.523   9.300   9.188
24133SOL     OW74230  13.431   2.203   8.618
24133SOL    HW174231  13.484   2.124   8.620
24133SOL    HW274232  13.403   2.210   8.526
24134SOL     OW74233   5.347   1.030   7.917
24134SOL    HW174234   5.286   1.070   7.979
24134SOL    HW274235   5.430   1.075   7.933
24135SOL     OW74236   2.525  12.981  10.820
24135SOL    HW174237   2.567  12.911  10.872
24135SOL    HW274238   2.507  12.940  10.736
24136SOL     OW74239  14.625   0.786   6.815
24136SOL    HW174240  14.637   0.843   6.739
24136SOL    HW274241  14.544   0.817   6.855
24137SOL     OW74242  14.690  12.583   8.403
24137SOL    HW174243  14.737  12.500   8.415
24137SOL    HW274244  14.746  12.648   8.445
24138SOL     OW74245   4.527   3.260   0.234
24138SOL    HW174246   4.499   3.338   0.186
24138SOL    HW274247   4.447   3.208   0.242
24139SOL     OW74248   6.741   3.227   4.495
24139SOL    HW174249   6.797   3.269   4.430
24139SOL    HW274250   6.652   3.243   4.464
24140SOL     OW74251   6.003  11.284  14.116
24140SOL    HW174252   6.003  11.215  14.182
24140SOL    HW274253   6.043  11.244  14.039
24141SOL     OW74254  12.762  12.441   0.288
24141SOL    HW174255  12.790  12.352   0.267
24141SOL    HW274256  12.734  12.477   0.204
24142SOL     OW74257   3.371   8.269  14.386
24142SOL    HW174258   3.371   8.335  14.317
24142SOL    HW274259   3.431   8.304  14.453
24143SOL     OW74260  10.671   3.847   7.113
24143SOL    HW174261  10.606   3.915   7.129
24143SOL    HW274262  10.628   3.766   7.140
24144SOL     OW74263  12.361   6.862   3.597
24144SOL    HW174264  12.428   6.793   3.599
24144SOL    HW274265  12.411   6.943   3.605
24145SOL     OW74266   4.303   5.501   8.954
24145SOL    HW174267   4.376   5.557   8.930
24145SOL    HW274268   4.257   5.550   9.023
24146SOL     OW74269   7.855   3.174   6.147
24146SOL    HW174270   7.858   3.269   6.140
24146SOL    HW274271   7.920   3.144   6.083
24147SOL     OW74272   0.092   1.818   0.819
24147SOL    HW174273   0.079   1.809   0.724
24147SOL    HW274274   0.121   1.909   0.830
24148SOL     OW74275  11.319  14.170   9.405
24148SOL    HW174276  11.403  14.144   9.367
24148SOL    HW274277  11.327  14.148   9.498
24149SOL     OW74278   0.338   5.362   4.965
24149SOL    HW174279   0.390   5.287   4.993
24149SOL    HW274280   0.385   5.397   4.889
24150SOL     OW74281  14.289  13.711   5.872
24150SOL    HW174282  14.202  13.726   5.835
24150SOL    HW274283  14.322  13.799   5.891
24151SOL     OW74284   4.189   0.940  10.414
24151SOL    HW174285   4.125   0.895  10.359
24151SOL    HW274286   4.155   0.931  10.503
24152SOL     OW74287  14.385   2.202   8.119
24152SOL    HW174288  14.325   2.128   8.132
24152SOL    HW274289  14.457   2.165   8.067
24153SOL     OW74290   5.174  11.712   6.673
24153SOL    HW174291   5.087  11.743   6.650
24153SOL    HW274292   5.203  11.662   6.597
24154SOL     OW74293   0.895   2.546   4.450
24154SOL    HW174294   0.803   2.546   4.473
24154SOL    HW274295   0.932   2.469   4.495
24155SOL     OW74296   3.239   3.232   2.166
24155SOL    HW174297   3.296   3.166   2.206
24155SOL    HW274298   3.264   3.314   2.210
24156SOL     OW74299   0.125   4.477  14.558
24156SOL    HW174300   0.091   4.522  14.635
24156SOL    HW274301   0.178   4.406  14.592
24157SOL     OW74302   4.781   0.750   9.020
24157SOL    HW174303   4.772   0.844   9.004
24157SOL    HW274304   4.694   0.714   9.000
24158SOL     OW74305  14.479  12.590  12.861
24158SOL    HW174306  14.405  12.649  12.879
24158SOL    HW274307  14.448  12.504  12.891
24159SOL     OW74308   5.769  14.195  13.452
24159SOL    HW174309   5.687  14.168  13.411
24159SOL    HW274310   5.743  14.238  13.533
24160SOL     OW74311   9.557  13.474  12.761
24160SOL    HW174312   9.606  13.468  12.844
24160SOL    HW274313   9.497  13.399  12.764
24161SOL     OW74314  14.731   9.183   2.632
24161SOL    HW174315  14.672   9.123   2.586
24161SOL    HW274316  14.731   9.262   2.579
24162SOL     OW74317   7.238  13.512  14.711
24162SOL    HW174318   7.272  13.581  14.769
24162SOL    HW274319   7.172  13.556  14.658
24163SOL     OW74320   8.765  12.875   5.552
24163SOL    HW174321   8.778  12.789   5.512
24163SOL    HW274322   8.686  12.910   5.509
24164SOL     OW74323   7.996   3.500  11.968
24164SOL    HW174324   8.073   3.458  12.005
24164SOL    HW274325   8.016   3.510  11.875
24165SOL     OW74326   8.655  10.181  11.094
24165SOL    HW174327   8.650  10.097  11.139
24165SOL    HW274328   8.681  10.243  11.163
24166SOL     OW74329   8.008   8.077  14.185
24166SOL    HW174330   8.080   8.116  14.235
24166SOL    HW274331   8.036   7.987  14.169
24167SOL     OW74332  14.150  10.332  13.570
24167SOL    HW174333  14.218  10.278  13.611
24167SOL    HW274334  14.071  10.279  13.576
24168SOL     OW74335   8.270   0.055   0.226
24168SOL    HW174336   8.344   0.090   0.177
24168SOL    HW274337   8.266  14.835   0.201
24169SOL     OW74338   1.580   9.052  10.626
24169SOL    HW174339   1.633   9.015  10.697
24169SOL    HW274340   1.492   9.059  10.663
24170SOL     OW74341   7.267   6.760   6.856
24170SOL    HW174342   7.337   6.711   6.812
24170SOL    HW274343   7.186   6.726   6.818
24171SOL     OW74344  12.297   2.098  14.376
24171SOL    HW174345  12.300   2.183  14.331
24171SOL    HW274346  12.255   2.117  14.459
24172SOL     OW74347   4.585   2.007   5.683
24172SOL    HW174348   4.674   2.022   5.651
24172SOL    HW274349   4.595   1.943   5.753
24173SOL     OW74350   7.639   0.635   0.885
24173SOL    HW174351   7.684   0.620   0.969
24173SOL    HW274352   7.571   0.699   0.906
24174SOL     OW74353   5.557   4.220   4.957
24174SOL    HW174354   5.487   4.163   4.989
24174SOL    HW274355   5.547   4.301   5.007
24175SOL     OW74356   5.615   7.609   4.254
24175SOL    HW174357   5.562   7.646   4.325
24175SOL    HW274358   5.586   7.655   4.175
24176SOL     OW74359   4.504  11.412   1.022
24176SOL    HW174360   4.581  11.437   1.072
24176SOL    HW274361   4.431  11.457   1.065
24177SOL     OW74362   6.902   7.133   2.749
24177SOL    HW174363   6.942   7.116   2.663
24177SOL    HW274364   6.842   7.206   2.733
24178SOL     OW74365  14.214   6.019  11.386
24178SOL    HW174366  14.193   6.098  11.335
24178SOL    HW274367  14.290   5.982  11.342
24179SOL     OW74368  11.289   3.827   6.802
24179SOL    HW174369  11.214   3.854   6.856
24179SOL    HW274370  11.261   3.844   6.712
24180SOL     OW74371   6.142  14.735   6.637
24180SOL    HW174372   6.068  14.728   6.698
24180SOL    HW274373   6.144  14.650   6.593
24181SOL     OW74374   9.780   2.555   4.043
24181SOL    HW174375   9.843   2.513   4.101
24181SOL    HW274376   9.706   2.577   4.100
24182SOL     OW74377   8.282   5.238  14.771
24182SOL    HW174378   8.316   5.197  14.692
24182SOL    HW274379   8.187   5.233  14.761
24183SOL     OW74380  13.963   0.005  12.309
24183SOL    HW174381  13.961  14.831  12.225
24183SOL    HW274382  13.969  14.808  12.375
24184SOL     OW74383   7.957  11.218   0.500
24184SOL    HW174384   8.008  11.240   0.578
24184SOL    HW274385   8.019  11.175   0.442
24185SOL     OW74386   5.484   0.299   3.018
24185SOL    HW174387   5.536   0.229   3.059
24185SOL    HW274388   5.508   0.296   2.925
24186SOL     OW74389   1.275  10.169   1.875
24186SOL    HW174390   1.245  10.256   1.849
24186SOL    HW274391   1.219  10.109   1.827
24187SOL     OW74392   7.289  12.253   1.359
24187SOL    HW174393   7.214  12.256   1.419
24187SOL    HW274394   7.254  12.213   1.279
24188SOL     OW74395   8.979   3.005   7.131
24188SOL    HW174396   8.921   3.035   7.201
24188SOL    HW274397   9.038   2.942   7.174
24189SOL     OW74398  10.932   1.633  11.313
24189SOL    HW174399  10.942   1.726  11.293
24189SOL    HW274400  11.003   1.615  11.376
24190SOL     OW74401  14.611   1.665  14.226
24190SOL    HW174402  14.518   1.642  14.234
24190SOL    HW274403  14.619   1.703  14.139
24191SOL     OW74404  10.920   5.012   5.086
24191SOL    HW174405  10.850   5.065   5.125
24191SOL    HW274406  10.956   5.067   5.017
24192SOL     OW74407   5.540   4.566   3.768
24192SOL    HW174408   5.593   4.561   3.848
24192SOL    HW274409   5.454   4.593   3.798
24193SOL     OW74410   4.063  12.516  14.855
24193SOL    HW174411   4.064  12.484  14.765
24193SOL    HW274412   3.984  12.477   0.021
24194SOL     OW74413  10.910   2.803   5.875
24194SOL    HW174414  10.816   2.794   5.887
24194SOL    HW274415  10.947   2.788   5.963
24195SOL     OW74416   3.113  11.394   3.890
24195SOL    HW174417   3.182  11.329   3.877
24195SOL    HW274418   3.159  11.473   3.918
24196SOL     OW74419  11.035   9.150  12.115
24196SOL    HW174420  11.034   9.169  12.208
24196SOL    HW274421  11.020   9.055  12.110
24197SOL     OW74422  13.379   2.539   5.550
24197SOL    HW174423  13.397   2.497   5.466
24197SOL    HW274424  13.464   2.574   5.577
24198SOL     OW74425  14.644  13.219  13.006
24198SOL    HW174426  14.708  13.273  13.053
24198SOL    HW274427  14.688  13.195  12.924
24199SOL     OW74428  13.060   3.254   3.724
24199SOL    HW174429  12.991   3.232   3.662
24199SOL    HW274430  13.063   3.179   3.784
24200SOL     OW74431   7.768   1.706   6.027
24200SOL    HW174432   7.679   1.715   6.061
24200SOL    HW274433   7.795   1.618   6.053
24201SOL     OW74434   5.550   1.471   5.556
24201SOL    HW174435   5.524   1.472   5.648
24201SOL    HW274436   5.644   1.458   5.557
24202SOL     OW74437  13.254  11.116  12.038
24202SOL    HW174438  13.330  11.078  11.995
24202SOL    HW274439  13.285  11.139  12.126
24203SOL     OW74440   4.157  14.566   7.076
24203SOL    HW174441   4.176  14.478   7.107
24203SOL    HW274442   4.242  14.603   7.055
24204SOL     OW74443  10.406   6.246   0.065
24204SOL    HW174444  10.424   6.185  14.865
24204SOL    HW274445  10.382   6.189   0.139
24205SOL     OW74446   3.206   9.499   4.023
24205SOL    HW174447   3.202   9.433   4.092
24205SOL    HW274448   3.163   9.458   3.948
24206SOL     OW74449   5.036  10.451   4.523
24206SOL    HW174450   5.126  10.422   4.506
24206SOL    HW274451   4.987  10.369   4.531
24207SOL     OW74452  13.899   8.366   6.209
24207SOL    HW174453  13.823   8.425   6.210
24207SOL    HW274454  13.877   8.300   6.143
24208SOL     OW74455   8.142  10.488   0.563
24208SOL    HW174456   8.164  10.573   0.601
24208SOL    HW274457   8.083  10.510   0.490
24209SOL     OW74458   5.255   5.569   9.621
24209SOL    HW174459   5.274   5.567   9.715
24209SOL    HW274460   5.339   5.588   9.580
24210SOL     OW74461  10.109   5.398   2.557
24210SOL    HW174462  10.143   5.409   2.468
24210SOL    HW274463  10.030   5.453   2.559
24211SOL     OW74464   8.188  11.880   9.810
24211SOL    HW174465   8.247  11.810   9.840
24211SOL    HW274466   8.106  11.835   9.792
24212SOL     OW74467   5.538  13.115   4.052
24212SOL    HW174468   5.568  13.201   4.081
24212SOL    HW274469   5.563  13.056   4.122
24213SOL     OW74470   5.394   4.031   8.447
24213SOL    HW174471   5.320   3.991   8.402
24213SOL    HW274472   5.364   4.120   8.468
24214SOL     OW74473  11.331  11.121  10.164
24214SOL    HW174474  11.388  11.193  10.138
24214SOL    HW274475  11.391  11.055  10.201
24215SOL     OW74476   5.949   7.566   0.802
24215SOL    HW174477   6.032   7.611   0.785
24215SOL    HW274478   5.897   7.629   0.853
24216SOL     OW74479  12.666   4.410   7.287
24216SOL    HW174480  12.627   4.494   7.311
24216SOL    HW274481  12.593   4.358   7.255
24217SOL     OW74482   7.584  13.361  14.101
24217SOL    HW174483   7.648  13.316  14.157
24217SOL    HW274484   7.500  13.326  14.130
24218SOL     OW74485   2.184   7.013   7.217
24218SOL    HW174486   2.121   7.027   7.288
24218SOL    HW274487   2.231   7.097   7.210
24219SOL     OW74488   6.089   9.874   2.587
24219SOL    HW174489   6.151   9.942   2.612
24219SOL    HW274490   6.134   9.792   2.607
24220SOL     OW74491  13.767   1.498   6.742
24220SOL    HW174492  13.683   1.467   6.708
24220SOL    HW274493  13.751   1.514   6.835
24221SOL     OW74494   3.246   2.119  11.682
24221SOL    HW174495   3.247   2.196  11.739
24221SOL    HW274496   3.299   2.054  11.729
24222SOL     OW74497  11.853  14.494   3.529
24222SOL    HW174498  11.824  14.583   3.511
24222SOL    HW274499  11.925  14.504   3.592
24223SOL     OW74500   2.283   3.833   7.346
24223SOL    HW174501   2.307   3.925   7.355
24223SOL    HW274502   2.193   3.834   7.313
24224SOL     OW74503   8.937   8.091   7.168
24224SOL    HW174504   8.964   8.122   7.255
24224SOL    HW274505   9.013   8.104   7.112
24225SOL     OW74506   1.775   8.344   2.983
24225SOL    HW174507   1.701   8.404   2.998
24225SOL    HW274508   1.850   8.390   3.021
24226SOL     OW74509  11.672  10.492   3.980
24226SOL    HW174510  11.691  10.541   4.060
24226SOL    HW274511  11.663  10.401   4.009
24227SOL     OW74512   7.930   1.438   6.426
24227SOL    HW174513   8.014   1.411   6.389
24227SOL    HW274514   7.900   1.362   6.475
24228SOL     OW74515   1.634  11.259  11.337
24228SOL    HW174516   1.681  11.256  11.420
24228SOL    HW274517   1.648  11.173  11.298
24229SOL     OW74518   7.552   3.864   5.708
24229SOL    HW174519   7.646   3.844   5.707
24229SOL    HW274520   7.515   3.813   5.636
24230SOL     OW74521  11.744  12.294  11.875
24230SOL    HW174522  11.793  12.286  11.956
24230SOL    HW274523  11.712  12.384  11.875
24231SOL     OW74524  14.070   2.764   1.419
24231SOL    HW174525  13.982   2.769   1.382
24231SOL    HW274526  14.062   2.700   1.489
24232SOL     OW74527   7.170   4.639   0.461
24232SOL    HW174528   7.177   4.686   0.544
24232SOL    HW274529   7.176   4.547   0.485
24233SOL     OW74530   4.746  10.597  12.051
24233SOL    HW174531   4.717  10.587  12.142
24233SOL    HW274532   4.674  10.562  11.999
24234SOL     OW74533   6.737   2.939  11.122
24234SOL    HW174534   6.689   2.908  11.046
24234SOL    HW274535   6.677   3.000  11.165
24235SOL     OW74536   8.244   0.161   6.241
24235SOL    HW174537   8.266   0.142   6.150
24235SOL    HW274538   8.239   0.075   6.283
24236SOL     OW74539   4.498   2.513   5.358
24236SOL    HW174540   4.446   2.445   5.400
24236SOL    HW274541   4.557   2.466   5.299
24237SOL     OW74542   9.693   1.171  14.184
24237SOL    HW174543   9.647   1.225  14.249
24237SOL    HW274544   9.679   1.216  14.101
24238SOL     OW74545  14.367   4.613  14.287
24238SOL    HW174546  14.331   4.623  14.199
24238SOL    HW274547  14.316   4.543  14.327
24239SOL     OW74548   8.873   3.151   5.738
24239SOL    HW174549   8.913   3.219   5.684
24239SOL    HW274550   8.925   3.072   5.719
24240SOL     OW74551   7.308  12.973  14.642
24240SOL    HW174552   7.401  12.963  14.663
24240SOL    HW274553   7.280  12.884  14.618
24241SOL     OW74554   4.433  10.280   7.888
24241SOL    HW174555   4.425  10.203   7.945
24241SOL    HW274556   4.440  10.244   7.800
24242SOL     OW74557   0.675   7.017  10.150
24242SOL    HW174558   0.606   7.063  10.102
24242SOL    HW274559   0.741   7.084  10.166
24243SOL     OW74560   5.381   4.893   9.280
24243SOL    HW174561   5.421   4.979   9.288
24243SOL    HW274562   5.302   4.898   9.334
24244SOL     OW74563   5.847   1.697   5.321
24244SOL    HW174564   5.813   1.786   5.331
24244SOL    HW274565   5.869   1.669   5.410
24245SOL     OW74566   5.054   9.232   0.477
24245SOL    HW174567   5.079   9.316   0.438
24245SOL    HW274568   5.093   9.166   0.420
24246SOL     OW74569   8.300   0.097   2.951
24246SOL    HW174570   8.326   0.012   2.987
24246SOL    HW274571   8.222   0.121   3.001
24247SOL     OW74572  14.534  12.238   6.401
24247SOL    HW174573  14.590  12.167   6.368
24247SOL    HW274574  14.498  12.278   6.322
24248SOL     OW74575   5.884   0.791  14.799
24248SOL    HW174576   5.821   0.722  14.818
24248SOL    HW274577   5.839   0.872  14.825
24249SOL     OW74578   6.865   8.382  10.200
24249SOL    HW174579   6.920   8.373  10.123
24249SOL    HW274580   6.909   8.331  10.268
24250SOL     OW74581   3.939  13.094   8.668
24250SOL    HW174582   4.028  13.127   8.686
24250SOL    HW274583   3.886  13.173   8.661
24251SOL     OW74584   1.623   1.909  14.526
24251SOL    HW174585   1.548   1.939  14.577
24251SOL    HW274586   1.616   1.814  14.528
24252SOL     OW74587   2.085  12.321   6.103
24252SOL    HW174588   2.164  12.271   6.123
24252SOL    HW274589   2.055  12.286   6.019
24253SOL     OW74590  10.199   3.623  13.716
24253SOL    HW174591  10.220   3.694  13.657
24253SOL    HW274592  10.104   3.622  13.720
24254SOL     OW74593   4.431   8.308   5.213
24254SOL    HW174594   4.456   8.224   5.252
24254SOL    HW274595   4.500   8.326   5.150
24255SOL     OW74596   8.148  12.291   5.542
24255SOL    HW174597   8.073  12.300   5.602
24255SOL    HW274598   8.199  12.371   5.556
24256SOL     OW74599   7.925  14.431  10.805
24256SOL    HW174600   7.863  14.487  10.757
24256SOL    HW274601   7.884  14.417  10.890
24257SOL     OW74602   2.156  10.112   3.305
24257SOL    HW174603   2.221  10.075   3.245
24257SOL    HW274604   2.199  10.112   3.390
24258SOL     OW74605  10.012  10.231   9.737
24258SOL    HW174606   9.934  10.215   9.683
24258SOL    HW274607  10.067  10.154   9.723
24259SOL     OW74608   7.042   0.629   9.135
24259SOL    HW174609   6.992   0.565   9.084
24259SOL    HW274610   6.983   0.703   9.144
24260SOL     OW74611   6.921  14.453  10.996
24260SOL    HW174612   6.853  14.437  10.930
24260SOL    HW274613   6.960  14.537  10.971
24261SOL     OW74614   8.396  11.779   2.719
24261SOL    HW174615   8.320  11.746   2.765
24261SOL    HW274616   8.418  11.710   2.656
24262SOL     OW74617  10.226   8.620   7.574
24262SOL    HW174618  10.297   8.680   7.550
24262SOL    HW274619  10.197   8.583   7.491
24263SOL     OW74620   0.220   3.830   2.973
24263SOL    HW174621   0.164   3.889   3.024
24263SOL    HW274622   0.163   3.795   2.905
24264SOL     OW74623   9.600  10.543  11.570
24264SOL    HW174624   9.535  10.607  11.597
24264SOL    HW274625   9.566  10.507  11.487
24265SOL     OW74626   2.892   7.541  14.572
24265SOL    HW174627   2.903   7.446  14.573
24265SOL    HW274628   2.829   7.558  14.503
24266SOL     OW74629   2.880   8.268  12.608
24266SOL    HW174630   2.933   8.278  12.687
24266SOL    HW274631   2.834   8.351  12.600
24267SOL     OW74632  13.997   1.436   7.883
24267SOL    HW174633  14.066   1.372   7.868
24267SOL    HW274634  13.935   1.391   7.941
24268SOL     OW74635   4.080   5.727   3.744
24268SOL    HW174636   4.000   5.675   3.745
24268SOL    HW274637   4.143   5.675   3.795
24269SOL     OW74638   8.813  14.689  14.374
24269SOL    HW174639   8.794  14.673  14.466
24269SOL    HW274640   8.731  14.720  14.337
24270SOL     OW74641   8.823  11.036   6.111
24270SOL    HW174642   8.821  11.125   6.145
24270SOL    HW274643   8.851  10.982   6.185
24271SOL     OW74644   6.339   2.172   5.879
24271SOL    HW174645   6.325   2.119   5.800
24271SOL    HW274646   6.422   2.140   5.915
24272SOL     OW74647  10.941  11.082   0.102
24272SOL    HW174648  10.905  11.040   0.180
24272SOL    HW274649  10.953  11.011   0.039
24273SOL     OW74650   6.815   8.086   5.350
24273SOL    HW174651   6.805   8.016   5.414
24273SOL    HW274652   6.750   8.067   5.283
24274SOL     OW74653   6.992   1.448   1.353
24274SOL    HW174654   7.003   1.364   1.309
24274SOL    HW274655   6.984   1.512   1.282
24275SOL     OW74656  12.037   0.676   9.745
24275SOL    HW174657  12.043   0.710   9.656
24275SOL    HW274658  11.952   0.633   9.748
24276SOL     OW74659  10.975   4.051   1.366
24276SOL    HW174660  10.967   4.054   1.270
24276SOL    HW274661  11.066   4.074   1.383
24277SOL     OW74662   2.051  13.610   1.988
24277SOL    HW174663   2.010  13.541   2.040
24277SOL    HW274664   2.023  13.692   2.029
24278SOL     OW74665   0.386  10.225   0.292
24278SOL    HW174666   0.465  10.269   0.324
24278SOL    HW274667   0.411  10.133   0.285
24279SOL     OW74668   8.749  13.334  11.614
24279SOL    HW174669   8.807  13.401  11.577
24279SOL    HW274670   8.692  13.309  11.542
24280SOL     OW74671  11.225   4.194   4.404
24280SOL    HW174672  11.132   4.211   4.391
24280SOL    HW274673  11.228   4.138   4.483
24281SOL     OW74674   5.847   3.034   8.515
24281SOL    HW174675   5.885   2.946   8.511
24281SOL    HW274676   5.839   3.061   8.424
24282SOL     OW74677  14.144   8.820   1.841
24282SOL    HW174678  14.065   8.872   1.831
24282SOL    HW274679  14.160   8.819   1.936
24283SOL     OW74680   5.974   3.385   6.997
24283SOL    HW174681   5.976   3.334   7.078
24283SOL    HW274682   5.974   3.320   6.927
24284SOL     OW74683   3.327   5.326   6.594
24284SOL    HW174684   3.403   5.273   6.569
24284SOL    HW274685   3.265   5.263   6.630
24285SOL     OW74686   9.264   5.766   7.171
24285SOL    HW174687   9.213   5.841   7.140
24285SOL    HW274688   9.212   5.731   7.243
24286SOL     OW74689   2.019   2.332   7.308
24286SOL    HW174690   2.023   2.388   7.386
24286SOL    HW274691   2.088   2.366   7.251
24287SOL     OW74692   3.035   2.664   0.383
24287SOL    HW174693   3.087   2.607   0.326
24287SOL    HW274694   3.043   2.625   0.470
24288SOL     OW74695   1.214   8.655   2.165
24288SOL    HW174696   1.309   8.644   2.157
24288SOL    HW274697   1.191   8.714   2.093
24289SOL     OW74698   0.576   1.806   5.070
24289SOL    HW174699   0.502   1.825   5.128
24289SOL    HW274700   0.591   1.712   5.080
24290SOL     OW74701  11.490   5.797  12.320
24290SOL    HW174702  11.431   5.857  12.275
24290SOL    HW274703  11.434   5.749  12.381
24291SOL     OW74704   1.053   1.185  13.140
24291SOL    HW174705   1.034   1.254  13.205
24291SOL    HW274706   1.079   1.233  13.061
24292SOL     OW74707   6.918   2.143  10.480
24292SOL    HW174708   7.005   2.182  10.470
24292SOL    HW274709   6.917   2.108  10.569
24293SOL     OW74710  11.165  11.196   2.324
24293SOL    HW174711  11.144  11.246   2.245
24293SOL    HW274712  11.097  11.129   2.328
24294SOL     OW74713  12.072  10.365   5.358
24294SOL    HW174714  12.116  10.447   5.381
24294SOL    HW274715  11.979  10.383   5.372
24295SOL     OW74716   4.961   4.378   9.470
24295SOL    HW174717   4.997   4.297   9.433
24295SOL    HW274718   5.034   4.416   9.520
24296SOL     OW74719   9.151   4.641  12.314
24296SOL    HW174720   9.072   4.646  12.261
24296SOL    HW274721   9.120   4.623  12.402
24297SOL     OW74722  11.824  14.854   5.772
24297SOL    HW174723  11.892  14.862   5.705
24297SOL    HW274724  11.778  14.773   5.751
24298SOL     OW74725   3.356  12.258   6.663
24298SOL    HW174726   3.445  12.225   6.656
24298SOL    HW274727   3.343  12.310   6.584
24299SOL     OW74728  10.850   0.338   7.298
24299SOL    HW174729  10.838   0.361   7.206
24299SOL    HW274730  10.768   0.363   7.340
24300SOL     OW74731  10.700  11.714   8.906
24300SOL    HW174732  10.702  11.620   8.922
24300SOL    HW274733  10.683  11.753   8.991
24301SOL     OW74734  14.743  11.184   8.337
24301SOL    HW174735  14.672  11.140   8.383
24301SOL    HW274736  14.775  11.119   8.275
24302SOL     OW74737  12.188  12.586  13.860
24302SOL    HW174738  12.206  12.613  13.950
24302SOL    HW274739  12.274  12.586  13.817
24303SOL     OW74740   2.403   8.751   0.219
24303SOL    HW174741   2.410   8.845   0.238
24303SOL    HW274742   2.332   8.720   0.275
24304SOL     OW74743  14.282  13.374   1.235
24304SOL    HW174744  14.273  13.441   1.167
24304SOL    HW274745  14.304  13.294   1.187
24305SOL     OW74746   5.083  12.251   2.061
24305SOL    HW174747   5.006  12.296   2.095
24305SOL    HW274748   5.050  12.198   1.988
24306SOL     OW74749  13.716  10.123  10.725
24306SOL    HW174750  13.720  10.213  10.691
24306SOL    HW274751  13.808  10.099  10.739
24307SOL     OW74752   8.264   3.114  10.583
24307SOL    HW174753   8.314   3.187  10.622
24307SOL    HW274754   8.298   3.108  10.493
24308SOL     OW74755   1.602  13.878  10.077
24308SOL    HW174756   1.531  13.941  10.079
24308SOL    HW274757   1.564  13.796  10.107
24309SOL     OW74758   3.645   9.740  13.975
24309SOL    HW174759   3.693   9.660  13.995
24309SOL    HW274760   3.673   9.763  13.886
24310SOL     OW74761  13.647   0.199  11.087
24310SOL    HW174762  13.593   0.192  11.008
24310SOL    HW274763  13.627   0.286  11.122
24311SOL     OW74764   7.375  14.217   5.095
24311SOL    HW174765   7.442  14.265   5.145
24311SOL    HW274766   7.322  14.286   5.054
24312SOL     OW74767   3.158   7.423   8.685
24312SOL    HW174768   3.118   7.438   8.771
24312SOL    HW274769   3.156   7.508   8.642
24313SOL     OW74770   5.933   2.700   6.056
24313SOL    HW174771   5.908   2.608   6.052
24313SOL    HW274772   6.015   2.700   6.106
24314SOL     OW74773  14.841   5.300  13.243
24314SOL    HW174774  14.842   5.223  13.186
24314SOL    HW274775  14.772   5.356  13.208
24315SOL     OW74776   6.164   5.694   6.802
24315SOL    HW174777   6.215   5.662   6.877
24315SOL    HW274778   6.153   5.787   6.819
24316SOL     OW74779  11.413   0.264   3.756
24316SOL    HW174780  11.429   0.277   3.850
24316SOL    HW274781  11.321   0.239   3.750
24317SOL     OW74782   2.926   0.938   8.921
24317SOL    HW174783   2.925   0.861   8.865
24317SOL    HW274784   2.842   0.937   8.966
24318SOL     OW74785   9.735  12.675   5.373
24318SOL    HW174786   9.707  12.636   5.290
24318SOL    HW274787   9.774  12.759   5.349
24319SOL     OW74788   2.224   1.132   4.966
24319SOL    HW174789   2.257   1.047   4.938
24319SOL    HW274790   2.251   1.139   5.058
24320SOL     OW74791   6.697  13.792  11.388
24320SOL    HW174792   6.606  13.796  11.360
24320SOL    HW274793   6.698  13.840  11.470
24321SOL     OW74794   7.259   9.115   0.811
24321SOL    HW174795   7.245   9.206   0.836
24321SOL    HW274796   7.216   9.065   0.881
24322SOL     OW74797   5.436   4.442   9.790
24322SOL    HW174798   5.377   4.433   9.715
24322SOL    HW274799   5.469   4.532   9.784
24323SOL     OW74800   0.411  14.387   1.417
24323SOL    HW174801   0.440  14.352   1.333
24323SOL    HW274802   0.321  14.354   1.427
24324SOL     OW74803   7.034   9.853  11.799
24324SOL    HW174804   7.017   9.922  11.863
24324SOL    HW274805   6.971   9.870  11.728
24325SOL     OW74806   0.069   6.383   9.427
24325SOL    HW174807   0.057   6.473   9.456
24325SOL    HW274808  14.860   6.361   9.382
24326SOL     OW74809   4.933  11.535   8.889
24326SOL    HW174810   4.900  11.594   8.957
24326SOL    HW274811   4.869  11.463   8.887
24327SOL     OW74812   8.587   4.981   4.555
24327SOL    HW174813   8.644   5.007   4.482
24327SOL    HW274814   8.559   5.064   4.593
24328SOL     OW74815   4.254   1.461   7.358
24328SOL    HW174816   4.280   1.549   7.386
24328SOL    HW274817   4.292   1.403   7.424
24329SOL     OW74818  10.225   9.292   7.140
24329SOL    HW174819  10.147   9.317   7.189
24329SOL    HW274820  10.263   9.375   7.112
24330SOL     OW74821   4.093   0.204   8.564
24330SOL    HW174822   4.111   0.149   8.641
24330SOL    HW274823   4.087   0.293   8.598
24331SOL     OW74824  10.945   0.097   1.327
24331SOL    HW174825  10.992   0.098   1.244
24331SOL    HW274826  10.990   0.161   1.382
24332SOL     OW74827  11.739  11.434   4.918
24332SOL    HW174828  11.834  11.431   4.920
24332SOL    HW274829  11.715  11.490   4.993
24333SOL     OW74830   4.421  13.603  10.690
24333SOL    HW174831   4.484  13.675  10.690
24333SOL    HW274832   4.369  13.617  10.611
24334SOL     OW74833   1.552   0.810  10.877
24334SOL    HW174834   1.598   0.877  10.928
24334SOL    HW274835   1.487   0.859  10.827
24335SOL     OW74836  12.945  10.455  11.486
24335SOL    HW174837  13.035  10.430  11.506
24335SOL    HW274838  12.908  10.377  11.444
24336SOL     OW74839   3.192  10.399   1.439
24336SOL    HW174840   3.277  10.441   1.426
24336SOL    HW274841   3.166  10.424   1.528
24337SOL     OW74842  12.865   3.861   7.365
24337SOL    HW174843  12.847   3.848   7.272
24337SOL    HW274844  12.782   3.891   7.402
24338SOL     OW74845   4.384   4.819   2.199
24338SOL    HW174846   4.439   4.895   2.180
24338SOL    HW274847   4.303   4.857   2.233
24339SOL     OW74848   5.846   1.845   0.530
24339SOL    HW174849   5.825   1.818   0.441
24339SOL    HW274850   5.942   1.851   0.531
24340SOL     OW74851  13.440  11.104   6.422
24340SOL    HW174852  13.397  11.034   6.373
24340SOL    HW274853  13.484  11.059   6.494
24341SOL     OW74854  10.001   8.254  12.926
24341SOL    HW174855  10.003   8.212  12.840
24341SOL    HW274856   9.975   8.185  12.987
24342SOL     OW74857   8.611   9.742   4.736
24342SOL    HW174858   8.548   9.705   4.798
24342SOL    HW274859   8.559   9.765   4.659
24343SOL     OW74860  13.551   9.385  14.346
24343SOL    HW174861  13.630   9.396  14.294
24343SOL    HW274862  13.484   9.359  14.283
24344SOL     OW74863  13.263   1.380  11.410
24344SOL    HW174864  13.239   1.442  11.341
24344SOL    HW274865  13.183   1.368  11.460
24345SOL     OW74866   2.472   5.124   3.559
24345SOL    HW174867   2.536   5.180   3.604
24345SOL    HW274868   2.495   5.131   3.466
24346SOL     OW74869  11.608   3.210   3.280
24346SOL    HW174870  11.640   3.300   3.292
24346SOL    HW274871  11.686   3.160   3.257
24347SOL     OW74872   4.889   3.101  13.901
24347SOL    HW174873   4.942   3.040  13.951
24347SOL    HW274874   4.948   3.137  13.835
24348SOL     OW74875   9.668   9.501   1.139
24348SOL    HW174876   9.672   9.407   1.153
24348SOL    HW274877   9.582   9.516   1.101
24349SOL     OW74878   5.254  10.028   2.136
24349SOL    HW174879   5.174   9.984   2.165
24349SOL    HW274880   5.325   9.983   2.182
24350SOL     OW74881  14.146  11.330  11.077
24350SOL    HW174882  14.144  11.284  11.161
24350SOL    HW274883  14.143  11.422  11.100
24351SOL     OW74884   3.735  11.529   7.089
24351SOL    HW174885   3.791  11.452   7.097
24351SOL    HW274886   3.796  11.602   7.077
24352SOL     OW74887   2.874   8.821   9.343
24352SOL    HW174888   2.866   8.882   9.270
24352SOL    HW274889   2.937   8.862   9.402
24353SOL     OW74890   0.985   5.747  14.385
24353SOL    HW174891   0.953   5.656  14.386
24353SOL    HW274892   1.059   5.745  14.325
24354SOL     OW74893   3.061   5.255   3.345
24354SOL    HW174894   3.145   5.266   3.390
24354SOL    HW274895   3.084   5.258   3.252
24355SOL     OW74896   4.924   0.138   5.604
24355SOL    HW174897   4.904   0.142   5.510
24355SOL    HW274898   5.017   0.161   5.610
24356SOL     OW74899   8.733   9.058   1.083
24356SOL    HW174900   8.767   9.144   1.059
24356SOL    HW274901   8.672   9.075   1.155
24357SOL     OW74902  14.311   4.930   8.919
24357SOL    HW174903  14.384   4.985   8.894
24357SOL    HW274904  14.244   4.991   8.952
24358SOL     OW74905  11.059   7.438  12.446
24358SOL    HW174906  11.062   7.345  12.467
24358SOL    HW274907  11.147   7.459  12.416
24359SOL     OW74908  11.097   8.350   2.472
24359SOL    HW174909  11.159   8.277   2.481
24359SOL    HW274910  11.011   8.310   2.484
24360SOL     OW74911   3.766  12.803  12.431
24360SOL    HW174912   3.753  12.798  12.526
24360SOL    HW274913   3.827  12.732  12.412
24361SOL     OW74914   2.447   4.660  14.601
24361SOL    HW174915   2.471   4.748  14.571
24361SOL    HW274916   2.526   4.608  14.590
24362SOL     OW74917   0.328  11.326   7.572
24362SOL    HW174918   0.266  11.255   7.591
24362SOL    HW274919   0.275  11.405   7.574
24363SOL     OW74920   0.046   6.024   8.775
24363SOL    HW174921   0.110   6.072   8.827
24363SOL    HW274922   0.051   6.063   8.688
24364SOL     OW74923   2.535   9.765  10.043
24364SOL    HW174924   2.576   9.813  10.115
24364SOL    HW274925   2.443   9.794  10.044
24365SOL     OW74926   6.010   1.102  13.844
24365SOL    HW174927   5.938   1.093  13.782
24365SOL    HW274928   5.981   1.169  13.905
24366SOL     OW74929  12.353  12.038   6.057
24366SOL    HW174930  12.260  12.058   6.061
24366SOL    HW274931  12.377  12.048   5.965
24367SOL     OW74932   2.673   9.160  13.033
24367SOL    HW174933   2.764   9.130  13.036
24367SOL    HW274934   2.633   9.122  13.112
24368SOL     OW74935   5.957   9.036  11.038
24368SOL    HW174936   6.046   9.070  11.027
24368SOL    HW274937   5.905   9.086  10.974
24369SOL     OW74938   3.726   3.593  13.557
24369SOL    HW174939   3.776   3.533  13.612
24369SOL    HW274940   3.660   3.630  13.615
24370SOL     OW74941  13.746  14.020  11.499
24370SOL    HW174942  13.832  14.042  11.463
24370SOL    HW274943  13.696  13.989  11.423
24371SOL     OW74944   0.539   5.763   5.291
24371SOL    HW174945   0.520   5.689   5.233
24371SOL    HW274946   0.522   5.729   5.379
24372SOL     OW74947   0.839   1.187   1.676
24372SOL    HW174948   0.817   1.170   1.768
24372SOL    HW274949   0.862   1.280   1.674
24373SOL     OW74950  14.125  12.252   5.417
24373SOL    HW174951  14.054  12.263   5.480
24373SOL    HW274952  14.081  12.217   5.339
24374SOL     OW74953   0.954   4.548   0.123
24374SOL    HW174954   1.041   4.562   0.161
24374SOL    HW274955   0.963   4.468   0.071
24375SOL     OW74956   9.600   5.230  12.003
24375SOL    HW174957   9.505   5.234  12.015
24375SOL    HW274958   9.613   5.175  11.926
24376SOL     OW74959   1.779   2.751  14.727
24376SOL    HW174960   1.769   2.830  14.675
24376SOL    HW274961   1.689   2.724  14.748
24377SOL     OW74962   4.800   8.690  11.967
24377SOL    HW174963   4.873   8.694  11.904
24377SOL    HW274964   4.813   8.608  12.014
24378SOL     OW74965  14.491   6.899   2.784
24378SOL    HW174966  14.467   6.807   2.770
24378SOL    HW274967  14.409   6.947   2.771
24379SOL     OW74968   8.785  14.868   4.579
24379SOL    HW174969   8.806  14.803   4.645
24379SOL    HW274970   8.842  14.847   4.505
24380SOL     OW74971   1.219  10.178  14.220
24380SOL    HW174972   1.149  10.117  14.242
24380SOL    HW274973   1.176  10.251  14.176
24381SOL     OW74974  13.657  12.251   1.490
24381SOL    HW174975  13.734  12.195   1.489
24381SOL    HW274976  13.583  12.190   1.498
24382SOL     OW74977   7.955   7.736  14.703
24382SOL    HW174978   7.864   7.764  14.701
24382SOL    HW274979   7.961   7.668  14.636
24383SOL     OW74980   6.120   5.467   2.390
24383SOL    HW174981   6.130   5.391   2.333
24383SOL    HW274982   6.056   5.439   2.455
24384SOL     OW74983   5.522  10.091   1.067
24384SOL    HW174984   5.596  10.031   1.066
24384SOL    HW274985   5.555  10.169   1.114
24385SOL     OW74986   1.255   1.381  14.832
24385SOL    HW174987   1.251   1.474  14.810
24385SOL    HW274988   1.167   1.348  14.814
24386SOL     OW74989   0.571   0.841   3.355
24386SOL    HW174990   0.655   0.805   3.329
24386SOL    HW274991   0.508   0.771   3.337
24387SOL     OW74992  11.005  11.490   2.561
24387SOL    HW174993  10.941  11.560   2.574
24387SOL    HW274994  10.963  11.429   2.501
24388SOL     OW74995   8.424   1.088   6.148
24388SOL    HW174996   8.463   1.004   6.124
24388SOL    HW274997   8.332   1.068   6.166
24389SOL     OW74998  12.188  10.549   0.279
24389SOL    HW174999  12.271  10.557   0.233
24389SOL    HW275000  12.181  10.629   0.330
24390SOL     OW75001   7.542   7.471   7.666
24390SOL    HW175002   7.478   7.526   7.711
24390SOL    HW275003   7.517   7.475   7.574
24391SOL     OW75004  10.297   1.766   7.172
24391SOL    HW175005  10.368   1.829   7.156
24391SOL    HW275006  10.296   1.757   7.268
24392SOL     OW75007   4.499  11.792  13.719
24392SOL    HW175008   4.517  11.701  13.741
24392SOL    HW275009   4.416  11.811  13.763
24393SOL     OW75010  10.292  12.693   0.865
24393SOL    HW175011  10.303  12.640   0.786
24393SOL    HW275012  10.369  12.751   0.866
24394SOL     OW75013   3.384  12.295   6.326
24394SOL    HW175014   3.473  12.261   6.324
24394SOL    HW275015   3.335  12.236   6.269
24395SOL     OW75016   1.561   8.303   5.214
24395SOL    HW175017   1.467   8.291   5.200
24395SOL    HW275018   1.574   8.281   5.306
24396SOL     OW75019  14.485  10.018  10.824
24396SOL    HW175020  14.403  10.001  10.870
24396SOL    HW275021  14.486   9.954  10.752
24397SOL     OW75022  11.368   6.387  11.471
24397SOL    HW175023  11.429   6.379  11.398
24397SOL    HW275024  11.286   6.351  11.437
24398SOL     OW75025   7.188   9.692   8.264
24398SOL    HW175026   7.135   9.706   8.342
24398SOL    HW275027   7.270   9.655   8.297
24399SOL     OW75028   9.800  11.072   8.581
24399SOL    HW175029   9.757  11.062   8.666
24399SOL    HW275030   9.730  11.058   8.517
24400SOL     OW75031   8.501   5.073   5.733
24400SOL    HW175032   8.417   5.068   5.779
24400SOL    HW275033   8.528   5.164   5.740
24401SOL     OW75034  11.929  12.457   7.002
24401SOL    HW175035  11.838  12.439   7.026
24401SOL    HW275036  11.970  12.370   6.999
24402SOL     OW75037   8.175   6.565  12.875
24402SOL    HW175038   8.223   6.559  12.792
24402SOL    HW275039   8.224   6.628  12.927
24403SOL     OW75040   2.514   6.174  11.597
24403SOL    HW175041   2.458   6.228  11.542
24403SOL    HW275042   2.537   6.099  11.542
24404SOL     OW75043   2.645   2.592   5.781
24404SOL    HW175044   2.696   2.541   5.844
24404SOL    HW275045   2.624   2.674   5.827
24405SOL     OW75046  11.801   6.093   7.266
24405SOL    HW175047  11.869   6.111   7.201
24405SOL    HW275048  11.845   6.107   7.351
24406SOL     OW75049  14.181  11.817   9.742
24406SOL    HW175050  14.106  11.757   9.746
24406SOL    HW275051  14.166  11.880   9.812
24407SOL     OW75052   9.200  11.994   5.164
24407SOL    HW175053   9.211  11.924   5.100
24407SOL    HW275054   9.105  12.004   5.174
24408SOL     OW75055   6.625   4.635   2.486
24408SOL    HW175056   6.642   4.563   2.547
24408SOL    HW275057   6.703   4.689   2.490
24409SOL     OW75058   5.777   5.296  13.961
24409SOL    HW175059   5.871   5.289  13.945
24409SOL    HW275060   5.740   5.217  13.921
24410SOL     OW75061  11.281   4.713   5.141
24410SOL    HW175062  11.251   4.738   5.228
24410SOL    HW275063  11.203   4.715   5.086
24411SOL     OW75064   4.827   0.219   8.357
24411SOL    HW175065   4.922   0.223   8.351
24411SOL    HW275066   4.804   0.136   8.314
24412SOL     OW75067  10.434   8.886  14.079
24412SOL    HW175068  10.529   8.876  14.093
24412SOL    HW275069  10.416   8.837  13.999
24413SOL     OW75070   4.066   6.264  12.614
24413SOL    HW175071   4.090   6.322  12.686
24413SOL    HW275072   4.146   6.256  12.562
24414SOL     OW75073  13.132   4.227   8.025
24414SOL    HW175074  13.077   4.299   8.056
24414SOL    HW275075  13.075   4.150   8.031
24415SOL     OW75076  12.507   5.171   2.711
24415SOL    HW175077  12.420   5.209   2.698
24415SOL    HW275078  12.511   5.099   2.648
24416SOL     OW75079   3.821   6.048   7.565
24416SOL    HW175080   3.769   5.967   7.568
24416SOL    HW275081   3.766   6.109   7.516
24417SOL     OW75082  11.609   7.734  11.757
24417SOL    HW175083  11.535   7.756  11.814
24417SOL    HW275084  11.652   7.660  11.800
24418SOL     OW75085  10.493  12.477   0.930
24418SOL    HW175086  10.553  12.542   0.894
24418SOL    HW275087  10.431  12.528   0.982
24419SOL     OW75088   7.849   0.902   0.124
24419SOL    HW175089   7.867   0.872   0.213
24419SOL    HW275090   7.775   0.849   0.095
24420SOL     OW75091  12.911   1.218   7.289
24420SOL    HW175092  12.830   1.270   7.291
24420SOL    HW275093  12.949   1.229   7.376
24421SOL     OW75094  10.603   3.701   2.704
24421SOL    HW175095  10.525   3.652   2.729
24421SOL    HW275096  10.665   3.635   2.674
24422SOL     OW75097   5.584   2.018   6.472
24422SOL    HW175098   5.531   2.098   6.466
24422SOL    HW275099   5.589   2.000   6.566
24423SOL     OW75100   0.570   4.985   7.050
24423SOL    HW175101   0.650   5.035   7.031
24423SOL    HW275102   0.523   5.038   7.114
24424SOL     OW75103   0.691   3.056  10.654
24424SOL    HW175104   0.736   3.095  10.729
24424SOL    HW275105   0.648   3.131  10.611
24425SOL     OW75106   9.346  13.177   9.578
24425SOL    HW175107   9.409  13.184   9.506
24425SOL    HW275108   9.397  13.194   9.657
24426SOL     OW75109   7.334   8.225   6.440
24426SOL    HW175110   7.421   8.246   6.475
24426SOL    HW275111   7.285   8.195   6.517
24427SOL     OW75112   4.334   3.408   1.642
24427SOL    HW175113   4.274   3.387   1.715
24427SOL    HW275114   4.397   3.336   1.642
24428SOL     OW75115   3.265  12.830  13.930
24428SOL    HW175116   3.243  12.886  13.856
24428SOL    HW275117   3.252  12.885  14.007
24429SOL     OW75118   4.757   1.850   6.554
24429SOL    HW175119   4.691   1.788   6.522
24429SOL    HW275120   4.726   1.935   6.522
24430SOL     OW75121   8.339   0.064   8.517
24430SOL    HW175122   8.260   0.032   8.474
24430SOL    HW275123   8.314   0.148   8.554
24431SOL     OW75124  12.888  12.861   5.114
24431SOL    HW175125  12.850  12.819   5.191
24431SOL    HW275126  12.963  12.806   5.092
24432SOL     OW75127  13.022   3.678   1.634
24432SOL    HW175128  13.098   3.686   1.691
24432SOL    HW275129  13.052   3.707   1.548
24433SOL     OW75130   8.215   0.077  14.704
24433SOL    HW175131   8.252   0.126  14.631
24433SOL    HW275132   8.256  14.863  14.699
24434SOL     OW75133  10.683   8.521   6.780
24434SOL    HW175134  10.704   8.508   6.873
24434SOL    HW275135  10.598   8.480   6.768
24435SOL     OW75136   3.470  11.941   0.411
24435SOL    HW175137   3.416  11.876   0.366
24435SOL    HW275138   3.534  11.970   0.346
24436SOL     OW75139   9.520   2.172  14.847
24436SOL    HW175140   9.546   2.261  14.822
24436SOL    HW275141   9.435   2.182   0.016
24437SOL     OW75142   8.629   8.771   0.437
24437SOL    HW175143   8.666   8.683   0.437
24437SOL    HW275144   8.683   8.821   0.498
24438SOL     OW75145   7.014   7.343   7.831
24438SOL    HW175146   6.946   7.277   7.844
24438SOL    HW275147   6.987   7.416   7.886
24439SOL     OW75148   6.582   6.687   2.577
24439SOL    HW175149   6.592   6.762   2.519
24439SOL    HW275150   6.566   6.613   2.518
24440SOL     OW75151   9.538   3.052  14.470
24440SOL    HW175152   9.442   3.052  14.468
24440SOL    HW275153   9.560   3.033  14.561
24441SOL     OW75154   2.332   1.412   9.834
24441SOL    HW175155   2.275   1.483   9.803
24441SOL    HW275156   2.277   1.362   9.894
24442SOL     OW75157   0.971  13.336   6.279
24442SOL    HW175158   0.882  13.361   6.254
24442SOL    HW275159   1.026  13.366   6.207
24443SOL     OW75160   8.311   6.241   5.434
24443SOL    HW175161   8.273   6.228   5.347
24443SOL    HW275162   8.384   6.301   5.419
24444SOL     OW75163  14.178  14.112   9.694
24444SOL    HW175164  14.252  14.052   9.701
24444SOL    HW275165  14.200  14.169   9.621
24445SOL     OW75166   2.918   1.845   3.077
24445SOL    HW175167   2.861   1.920   3.059
24445SOL    HW275168   2.987   1.880   3.133
24446SOL     OW75169  13.835   6.188   1.832
24446SOL    HW175170  13.794   6.240   1.763
24446SOL    HW275171  13.920   6.162   1.795
24447SOL     OW75172  13.348   1.889   2.682
24447SOL    HW175173  13.295   1.836   2.742
24447SOL    HW275174  13.405   1.941   2.740
24448SOL     OW75175  13.861   7.610   6.907
24448SOL    HW175176  13.806   7.651   6.841
24448SOL    HW275177  13.800   7.587   6.978
24449SOL     OW75178   5.866   6.933   1.060
24449SOL    HW175179   5.830   6.993   0.994
24449SOL    HW275180   5.837   6.969   1.144
24450SOL     OW75181  13.093   4.564  12.314
24450SOL    HW175182  13.116   4.655  12.330
24450SOL    HW275183  13.137   4.515  12.384
24451SOL     OW75184  13.830   2.272   8.759
24451SOL    HW175185  13.867   2.268   8.671
24451SOL    HW275186  13.761   2.339   8.753
24452SOL     OW75187  13.392   6.854   1.902
24452SOL    HW175188  13.354   6.942   1.906
24452SOL    HW275189  13.450   6.857   1.826
24453SOL     OW75190   4.010   3.050  13.152
24453SOL    HW175191   4.043   3.127  13.105
24453SOL    HW275192   4.069   3.042  13.228
24454SOL     OW75193   9.668   0.640   8.430
24454SOL    HW175194   9.761   0.658   8.415
24454SOL    HW275195   9.642   0.586   8.356
24455SOL     OW75196   0.173   9.516  14.170
24455SOL    HW175197   0.083   9.517  14.203
24455SOL    HW275198   0.224   9.471  14.237
24456SOL     OW75199   9.704  11.538  14.244
24456SOL    HW175200   9.757  11.467  14.208
24456SOL    HW275201   9.615  11.503  14.247
24457SOL     OW75202  13.577   4.802   2.781
24457SOL    HW175203  13.653   4.785   2.837
24457SOL    HW275204  13.531   4.874   2.825
24458SOL     OW75205  12.859  13.024   1.372
24458SOL    HW175206  12.931  13.039   1.312
24458SOL    HW275207  12.814  12.947   1.336
24459SOL     OW75208   5.367   8.449  12.768
24459SOL    HW175209   5.423   8.372  12.772
24459SOL    HW275210   5.413   8.515  12.820
24460SOL     OW75211  12.234   0.451   2.147
24460SOL    HW175212  12.162   0.395   2.176
24460SOL    HW275213  12.292   0.392   2.098
24461SOL     OW75214  14.465   9.685   7.528
24461SOL    HW175215  14.507   9.713   7.446
24461SOL    HW275216  14.530   9.706   7.596
24462SOL     OW75217   8.258  14.402   8.971
24462SOL    HW175218   8.241  14.335   9.037
24462SOL    HW275219   8.171  14.431   8.944
24463SOL     OW75220   0.951  13.160   8.064
24463SOL    HW175221   0.977  13.068   8.069
24463SOL    HW275222   0.879  13.169   8.126
24464SOL     OW75223   5.332   3.006   3.067
24464SOL    HW175224   5.302   3.036   2.981
24464SOL    HW275225   5.388   2.931   3.047
24465SOL     OW75226   5.015   1.732   6.747
24465SOL    HW175227   5.042   1.719   6.656
24465SOL    HW275228   5.096   1.723   6.797
24466SOL     OW75229  13.098   8.406  13.817
24466SOL    HW175230  13.144   8.370  13.893
24466SOL    HW275231  13.006   8.384  13.832
24467SOL     OW75232   5.324   9.012   7.160
24467SOL    HW175233   5.293   8.926   7.133
24467SOL    HW275234   5.264   9.040   7.229
24468SOL     OW75235  10.106   5.875   1.046
24468SOL    HW175236  10.199   5.853   1.043
24468SOL    HW275237  10.102   5.960   1.090
24469SOL     OW75238   2.827   2.866  12.526
24469SOL    HW175239   2.770   2.936  12.493
24469SOL    HW275240   2.800   2.789  12.477
24470SOL     OW75241  10.240   2.479   3.658
24470SOL    HW175242  10.269   2.458   3.747
24470SOL    HW275243  10.145   2.474   3.663
24471SOL     OW75244  11.109   0.289   1.417
24471SOL    HW175245  11.147   0.253   1.497
24471SOL    HW275246  11.163   0.365   1.396
24472SOL     OW75247   7.242   0.697   4.512
24472SOL    HW175248   7.178   0.709   4.583
24472SOL    HW275249   7.317   0.656   4.554
24473SOL     OW75250   6.392   8.809   2.369
24473SOL    HW175251   6.341   8.728   2.369
24473SOL    HW275252   6.345   8.867   2.309
24474SOL     OW75253   8.654  11.908   2.443
24474SOL    HW175254   8.748  11.910   2.425
24474SOL    HW275255   8.648  11.881   2.535
24475SOL     OW75256  10.379   1.240   3.405
24475SOL    HW175257  10.358   1.273   3.493
24475SOL    HW275258  10.298   1.253   3.355
24476SOL     OW75259   2.357  12.803  12.164
24476SOL    HW175260   2.439  12.822  12.209
24476SOL    HW275261   2.297  12.775  12.233
24477SOL     OW75262  10.754   0.801   3.909
24477SOL    HW175263  10.836   0.849   3.924
24477SOL    HW275264  10.781   0.724   3.858
24478SOL     OW75265   2.734  13.643  12.765
24478SOL    HW175266   2.703  13.734  12.769
24478SOL    HW275267   2.829  13.650  12.755
24479SOL     OW75268   9.282   3.515   9.295
24479SOL    HW175269   9.286   3.419   9.294
24479SOL    HW275270   9.306   3.539   9.384
24480SOL     OW75271   6.408   5.507  13.548
24480SOL    HW175272   6.411   5.602  13.546
24480SOL    HW275273   6.494   5.480  13.578
24481SOL     OW75274   0.440   2.257  13.790
24481SOL    HW175275   0.390   2.338  13.777
24481SOL    HW275276   0.400   2.216  13.866
24482SOL     OW75277  13.891   6.667   5.385
24482SOL    HW175278  13.956   6.723   5.343
24482SOL    HW275279  13.883   6.591   5.328
24483SOL     OW75280  10.724  12.129   9.645
24483SOL    HW175281  10.704  12.071   9.719
24483SOL    HW275282  10.772  12.202   9.684
24484SOL     OW75283  12.982  10.738   3.237
24484SOL    HW175284  12.962  10.735   3.143
24484SOL    HW275285  13.012  10.650   3.258
24485SOL     OW75286  14.146   2.776  14.499
24485SOL    HW175287  14.162   2.770  14.593
24485SOL    HW275288  14.077   2.841  14.490
24486SOL     OW75289  13.917  10.786   6.634
24486SOL    HW175290  13.866  10.846   6.689
24486SOL    HW275291  13.851  10.739   6.583
24487SOL     OW75292   3.562  10.533   6.835
24487SOL    HW175293   3.529  10.617   6.868
24487SOL    HW275294   3.609  10.556   6.755
24488SOL     OW75295  10.349  13.700   8.417
24488SOL    HW175296  10.334  13.785   8.376
24488SOL    HW275297  10.261  13.661   8.425
24489SOL     OW75298  10.738  11.224   1.410
24489SOL    HW175299  10.725  11.312   1.445
24489SOL    HW275300  10.687  11.168   1.467
24490SOL     OW75301   5.247   2.132  10.003
24490SOL    HW175302   5.331   2.155   9.964
24490SOL    HW275303   5.234   2.198  10.072
24491SOL     OW75304   4.219   2.884   3.447
24491SOL    HW175305   4.223   2.955   3.383
24491SOL    HW275306   4.229   2.927   3.532
24492SOL     OW75307   5.895   3.424  14.351
24492SOL    HW175308   5.948   3.504  14.350
24492SOL    HW275309   5.805   3.456  14.353
24493SOL     OW75310   6.529  10.579   7.828
24493SOL    HW175311   6.519  10.486   7.846
24493SOL    HW275312   6.439  10.611   7.818
24494SOL     OW75313   7.188   9.387   5.130
24494SOL    HW175314   7.178   9.458   5.067
24494SOL    HW275315   7.282   9.373   5.135
24495SOL     OW75316   7.446   3.462  10.390
24495SOL    HW175317   7.423   3.540  10.340
24495SOL    HW275318   7.495   3.496  10.465
24496SOL     OW75319   7.383   7.367  13.746
24496SOL    HW175320   7.318   7.304  13.777
24496SOL    HW275321   7.351   7.452  13.776
24497SOL     OW75322  12.825  12.056  13.138
24497SOL    HW175323  12.766  11.994  13.180
24497SOL    HW275324  12.857  12.111  13.209
24498SOL     OW75325   2.948  10.791  14.156
24498SOL    HW175326   2.983  10.877  14.130
24498SOL    HW275327   2.925  10.801  14.248
24499SOL     OW75328  11.941  12.596   8.908
24499SOL    HW175329  11.938  12.673   8.850
24499SOL    HW275330  11.873  12.613   8.973
24500SOL     OW75331  13.988   8.282   5.900
24500SOL    HW175332  13.940   8.216   5.950
24500SOL    HW275333  14.080   8.258   5.910
24501SOL     OW75334  12.945   7.819   7.995
24501SOL    HW175335  12.925   7.880   7.924
24501SOL    HW275336  12.946   7.733   7.953
24502SOL     OW75337   7.334  14.253  13.128
24502SOL    HW175338   7.363  14.169  13.162
24502SOL    HW275339   7.250  14.234  13.086
24503SOL     OW75340  12.685   9.995   7.702
24503SOL    HW175341  12.657  10.042   7.624
24503SOL    HW275342  12.775   9.967   7.682
24504SOL     OW75343  10.142   1.042   6.925
24504SOL    HW175344  10.065   1.044   6.981
24504SOL    HW275345  10.121   1.102   6.853
24505SOL     OW75346  11.688  10.498   9.706
24505SOL    HW175347  11.710  10.568   9.645
24505SOL    HW275348  11.608  10.459   9.670
24506SOL     OW75349  14.224   0.751   8.679
24506SOL    HW175350  14.314   0.783   8.673
24506SOL    HW275351  14.206   0.714   8.593
24507SOL     OW75352  11.484   2.881  10.956
24507SOL    HW175353  11.530   2.892  11.040
24507SOL    HW275354  11.463   2.788  10.953
24508SOL     OW75355  14.619   8.358   9.141
24508SOL    HW175356  14.630   8.453   9.135
24508SOL    HW275357  14.543   8.346   9.198
24509SOL     OW75358   4.542  11.253   7.739
24509SOL    HW175359   4.478  11.318   7.710
24509SOL    HW275360   4.566  11.206   7.659
24510SOL     OW75361  12.172  11.340  11.518
24510SOL    HW175362  12.196  11.391  11.596
24510SOL    HW275363  12.112  11.397  11.470
24511SOL     OW75364   2.031   5.487   1.032
24511SOL    HW175365   2.052   5.555   1.096
24511SOL    HW275366   1.967   5.431   1.076
24512SOL     OW75367  11.331   4.095  10.029
24512SOL    HW175368  11.320   4.131  10.117
24512SOL    HW275369  11.304   4.004  10.036
24513SOL     OW75370   5.507   6.443   6.501
24513SOL    HW175371   5.502   6.348   6.498
24513SOL    HW275372   5.479   6.466   6.590
24514SOL     OW75373  12.251   5.844  12.513
24514SOL    HW175374  12.227   5.755  12.538
24514SOL    HW275375  12.174   5.897  12.534
24515SOL     OW75376  13.159   5.473  12.941
24515SOL    HW175377  13.254   5.479  12.949
24515SOL    HW275378  13.125   5.509  13.023
24516SOL     OW75379  12.668   5.624  10.225
24516SOL    HW175380  12.644   5.704  10.178
24516SOL    HW275381  12.736   5.652  10.286
24517SOL     OW75382   4.777   6.935   6.103
24517SOL    HW175383   4.761   7.016   6.053
24517SOL    HW275384   4.745   6.865   6.046
24518SOL     OW75385   1.410   1.445   5.808
24518SOL    HW175386   1.369   1.452   5.894
24518SOL    HW275387   1.362   1.375   5.764
24519SOL     OW75388   6.981   0.979   6.020
24519SOL    HW175389   7.006   1.063   6.058
24519SOL    HW275390   6.906   0.999   5.964
24520SOL     OW75391  13.956   1.387  12.177
24520SOL    HW175392  14.027   1.423  12.229
24520SOL    HW275393  13.911   1.464  12.142
24521SOL     OW75394  12.977   2.980   4.175
24521SOL    HW175395  12.978   3.075   4.187
24521SOL    HW275396  12.885   2.960   4.159
24522SOL     OW75397   2.291   8.408  10.782
24522SOL    HW175398   2.229   8.400  10.709
24522SOL    HW275399   2.275   8.495  10.818
24523SOL     OW75400   6.938  10.527   7.911
24523SOL    HW175401   6.893  10.608   7.887
24523SOL    HW275402   6.913  10.511   8.002
24524SOL     OW75403  10.857  14.397   2.161
24524SOL    HW175404  10.922  14.345   2.208
24524SOL    HW275405  10.908  14.452   2.102
24525SOL     OW75406   7.750   0.922   7.532
24525SOL    HW175407   7.774   0.997   7.587
24525SOL    HW275408   7.737   0.959   7.445
24526SOL     OW75409  12.111  14.276   0.784
24526SOL    HW175410  12.040  14.221   0.750
24526SOL    HW275411  12.072  14.325   0.855
24527SOL     OW75412   5.951   4.554   4.278
24527SOL    HW175413   5.952   4.495   4.203
24527SOL    HW275414   5.963   4.641   4.240
24528SOL     OW75415   3.136   9.862   6.277
24528SOL    HW175416   3.042   9.853   6.262
24528SOL    HW275417   3.173   9.865   6.189
24529SOL     OW75418   2.257  10.498   8.615
24529SOL    HW175419   2.241  10.526   8.705
24529SOL    HW275420   2.352  10.498   8.606
24530SOL     OW75421   9.826   3.207   5.600
24530SOL    HW175422   9.887   3.216   5.528
24530SOL    HW275423   9.739   3.211   5.559
24531SOL     OW75424  12.626   5.672   1.502
24531SOL    HW175425  12.650   5.581   1.485
24531SOL    HW275426  12.539   5.681   1.464
24532SOL     OW75427  13.631   4.338  14.726
24532SOL    HW175428  13.580   4.383  14.658
24532SOL    HW275429  13.636   4.247  14.696
24533SOL     OW75430  14.551   5.170  13.702
24533SOL    HW175431  14.556   5.141  13.793
24533SOL    HW275432  14.641   5.186  13.677
24534SOL     OW75433  11.527   3.096  10.449
24534SOL    HW175434  11.613   3.063  10.425
24534SOL    HW275435  11.541   3.188  10.471
24535SOL     OW75436  12.910   8.327   2.265
24535SOL    HW175437  12.921   8.232   2.262
24535SOL    HW275438  12.990   8.359   2.306
24536SOL     OW75439   9.301   4.546  12.762
24536SOL    HW175440   9.243   4.526  12.836
24536SOL    HW275441   9.373   4.595  12.800
24537SOL     OW75442   7.410   6.993   6.543
24537SOL    HW175443   7.329   7.013   6.592
24537SOL    HW275444   7.462   6.940   6.604
24538SOL     OW75445  10.296  13.710   0.991
24538SOL    HW175446  10.371  13.765   1.012
24538SOL    HW275447  10.237  13.767   0.942
24539SOL     OW75448  10.359   6.760  12.522
24539SOL    HW175449  10.451   6.751  12.497
24539SOL    HW275450  10.360   6.774  12.617
24540SOL     OW75451   4.001  11.916  11.534
24540SOL    HW175452   4.063  11.843  11.536
24540SOL    HW275453   3.945  11.901  11.611
24541SOL     OW75454  10.147   6.664   7.028
24541SOL    HW175455  10.160   6.656   7.123
24541SOL    HW275456  10.234   6.651   6.990
24542SOL     OW75457  10.652   9.812   6.426
24542SOL    HW175458  10.628   9.776   6.511
24542SOL    HW275459  10.748   9.808   6.424
24543SOL     OW75460   0.474   5.300   1.910
24543SOL    HW175461   0.468   5.341   1.824
24543SOL    HW275462   0.526   5.362   1.962
24544SOL     OW75463  12.582   0.243  10.378
24544SOL    HW175464  12.518   0.308  10.350
24544SOL    HW275465  12.651   0.294  10.422
24545SOL     OW75466   4.158   9.547  11.594
24545SOL    HW175467   4.167   9.502  11.678
24545SOL    HW275468   4.178   9.638  11.614
24546SOL     OW75469   1.869   0.537   7.955
24546SOL    HW175470   1.946   0.507   7.907
24546SOL    HW275471   1.904   0.587   8.028
24547SOL     OW75472   2.270   7.487   4.753
24547SOL    HW175473   2.283   7.558   4.815
24547SOL    HW275474   2.292   7.408   4.802
24548SOL     OW75475   7.471   3.210  10.549
24548SOL    HW175476   7.465   3.143  10.481
24548SOL    HW275477   7.446   3.291  10.506
24549SOL     OW75478   9.867   7.752   6.672
24549SOL    HW175479   9.956   7.720   6.689
24549SOL    HW275480   9.820   7.674   6.643
24550SOL     OW75481  10.786   8.235  10.201
24550SOL    HW175482  10.754   8.175  10.133
24550SOL    HW275483  10.706   8.267  10.244
24551SOL     OW75484   7.701   2.057   8.370
24551SOL    HW175485   7.645   2.064   8.448
24551SOL    HW275486   7.712   1.963   8.357
24552SOL     OW75487   2.893   8.005   9.950
24552SOL    HW175488   2.831   7.971   9.885
24552SOL    HW275489   2.950   8.063   9.900
24553SOL     OW75490   3.710   7.317  12.264
24553SOL    HW175491   3.732   7.410  12.259
24553SOL    HW275492   3.737   7.282  12.179
24554SOL     OW75493  10.495  12.152  13.058
24554SOL    HW175494  10.570  12.180  13.004
24554SOL    HW275495  10.535  12.123  13.140
24555SOL     OW75496  11.433  11.389   5.143
24555SOL    HW175497  11.467  11.435   5.220
24555SOL    HW275498  11.338  11.400   5.149
24556SOL     OW75499   7.564   9.670  12.007
24556SOL    HW175500   7.652   9.666  11.971
24556SOL    HW275501   7.522   9.589  11.978
24557SOL     OW75502  10.131  14.871   0.139
24557SOL    HW175503  10.086   0.084   0.132
24557SOL    HW275504  10.157  14.850   0.050
24558SOL     OW75505   3.547  10.374  12.878
24558SOL    HW175506   3.630  10.411  12.909
24558SOL    HW275507   3.481  10.412  12.936
24559SOL     OW75508   0.684   4.847   5.924
24559SOL    HW175509   0.732   4.780   5.876
24559SOL    HW275510   0.645   4.902   5.856
24560SOL     OW75511   1.502  11.737  14.219
24560SOL    HW175512   1.530  11.648  14.200
24560SOL    HW275513   1.539  11.756  14.306
24561SOL     OW75514  10.157   2.171   7.037
24561SOL    HW175515  10.083   2.231   7.038
24561SOL    HW275516  10.230   2.222   7.072
24562SOL     OW75517   4.100   0.327   6.857
24562SOL    HW175518   4.087   0.255   6.918
24562SOL    HW275519   4.162   0.385   6.900
24563SOL     OW75520   7.926   9.602   1.443
24563SOL    HW175521   7.991   9.582   1.510
24563SOL    HW275522   7.929   9.527   1.383
24564SOL     OW75523  14.319   4.504  11.460
24564SOL    HW175524  14.283   4.561  11.392
24564SOL    HW275525  14.404   4.476  11.425
24565SOL     OW75526   0.355   3.089  10.668
24565SOL    HW175527   0.382   3.020  10.608
24565SOL    HW275528   0.267   3.063  10.695
24566SOL     OW75529   2.623   3.440  13.262
24566SOL    HW175530   2.575   3.460  13.182
24566SOL    HW275531   2.683   3.515  13.273
24567SOL     OW75532  14.362  11.088   7.475
24567SOL    HW175533  14.444  11.045   7.500
24567SOL    HW275534  14.310  11.089   7.556
24568SOL     OW75535   3.676   4.366   1.731
24568SOL    HW175536   3.717   4.450   1.752
24568SOL    HW275537   3.584   4.379   1.750
24569SOL     OW75538   6.359   4.835  11.146
24569SOL    HW175539   6.424   4.905  11.154
24569SOL    HW275540   6.277   4.876  11.172
24570SOL     OW75541   5.156  12.428   7.394
24570SOL    HW175542   5.094  12.355   7.396
24570SOL    HW275543   5.131  12.483   7.468
24571SOL     OW75544  11.858   9.725  10.248
24571SOL    HW175545  11.859   9.677  10.165
24571SOL    HW275546  11.868   9.657  10.315
24572SOL     OW75547   8.682   9.147   5.686
24572SOL    HW175548   8.657   9.181   5.772
24572SOL    HW275549   8.600   9.112   5.650
24573SOL     OW75550   9.094  13.247   4.679
24573SOL    HW175551   9.054  13.285   4.757
24573SOL    HW275552   9.032  13.265   4.609
24574SOL     OW75553  11.151   0.819   3.574
24574SOL    HW175554  11.219   0.863   3.523
24574SOL    HW275555  11.076   0.878   3.571
24575SOL     OW75556  14.271   3.942   1.974
24575SOL    HW175557  14.239   4.017   1.923
24575SOL    HW275558  14.244   3.961   2.064
24576SOL     OW75559   6.777  14.409   9.837
24576SOL    HW175560   6.776  14.479   9.902
24576SOL    HW275561   6.685  14.387   9.824
24577SOL     OW75562   1.549  10.387  14.855
24577SOL    HW175563   1.626  10.383   0.040
24577SOL    HW275564   1.562  10.466  14.803
24578SOL     OW75565  13.756  14.851   0.722
24578SOL    HW175566  13.708   0.005   0.801
24578SOL    HW275567  13.801  14.771   0.747
24579SOL     OW75568   4.563   3.933   5.325
24579SOL    HW175569   4.545   4.016   5.280
24579SOL    HW275570   4.568   3.868   5.255
24580SOL     OW75571  12.172  14.763   4.365
24580SOL    HW175572  12.267  14.771   4.362
24580SOL    HW275573  12.157  14.669   4.371
24581SOL     OW75574  13.696   9.321  13.805
24581SOL    HW175575  13.618   9.357  13.848
24581SOL    HW275576  13.721   9.246  13.860
24582SOL     OW75577   9.533  13.634  12.045
24582SOL    HW175578   9.494  13.547  12.058
24582SOL    HW275579   9.520  13.652  11.952
24583SOL     OW75580   1.550   8.819   6.275
24583SOL    HW175581   1.489   8.891   6.286
24583SOL    HW275582   1.539   8.791   6.184
24584SOL     OW75583  10.713  11.735   0.641
24584SOL    HW175584  10.734  11.828   0.629
24584SOL    HW275585  10.621  11.728   0.614
24585SOL     OW75586  11.719   6.677  12.770
24585SOL    HW175587  11.634   6.719  12.775
24585SOL    HW275588  11.741   6.679  12.676
24586SOL     OW75589   5.807   1.645  12.631
24586SOL    HW175590   5.811   1.565  12.578
24586SOL    HW275591   5.821   1.615  12.720
24587SOL     OW75592   1.401   5.433  11.851
24587SOL    HW175593   1.345   5.485  11.793
24587SOL    HW275594   1.447   5.373  11.793
24588SOL     OW75595  10.964   0.974  12.630
24588SOL    HW175596  11.059   0.968  12.617
24588SOL    HW275597  10.944   0.899  12.687
24589SOL     OW75598   1.505   7.970   3.852
24589SOL    HW175599   1.550   8.041   3.899
24589SOL    HW275600   1.455   7.924   3.919
24590SOL     OW75601  13.830   7.215  13.540
24590SOL    HW175602  13.861   7.268  13.467
24590SOL    HW275603  13.800   7.133  13.499
24591SOL     OW75604   0.540   8.307   0.510
24591SOL    HW175605   0.493   8.337   0.588
24591SOL    HW275606   0.559   8.387   0.461
24592SOL     OW75607   2.176   6.947   3.665
24592SOL    HW175608   2.234   6.978   3.735
24592SOL    HW275609   2.141   7.027   3.627
24593SOL     OW75610   2.142   2.583  14.037
24593SOL    HW175611   2.132   2.650  14.105
24593SOL    HW275612   2.121   2.501  14.082
24594SOL     OW75613  10.821   3.280  10.847
24594SOL    HW175614  10.900   3.311  10.803
24594SOL    HW275615  10.843   3.284  10.940
24595SOL     OW75616   2.776   8.477  10.444
24595SOL    HW175617   2.768   8.421  10.367
24595SOL    HW275618   2.859   8.524  10.433
24596SOL     OW75619   2.143   7.265   5.144
24596SOL    HW175620   2.213   7.280   5.081
24596SOL    HW275621   2.064   7.297   5.100
24597SOL     OW75622   3.155  10.919   8.044
24597SOL    HW175623   3.142  10.831   8.082
24597SOL    HW275624   3.068  10.944   8.013
24598SOL     OW75625   6.512   2.231   5.138
24598SOL    HW175626   6.504   2.175   5.216
24598SOL    HW275627   6.606   2.247   5.130
24599SOL     OW75628  11.389   3.988  11.428
24599SOL    HW175629  11.480   4.012  11.445
24599SOL    HW275630  11.352   3.974  11.515
24600SOL     OW75631   5.460  12.525  11.656
24600SOL    HW175632   5.471  12.462  11.584
24600SOL    HW275633   5.549  12.545  11.683
24601SOL     OW75634  13.394  11.735   6.995
24601SOL    HW175635  13.430  11.753   6.908
24601SOL    HW275636  13.365  11.644   6.992
24602SOL     OW75637   4.926  13.258   5.923
24602SOL    HW175638   4.950  13.281   6.013
24602SOL    HW275639   4.831  13.243   5.927
24603SOL     OW75640   5.526   5.951   6.710
24603SOL    HW175641   5.514   6.043   6.688
24603SOL    HW275642   5.442   5.924   6.747
24604SOL     OW75643   9.405   1.698   7.331
24604SOL    HW175644   9.487   1.701   7.282
24604SOL    HW275645   9.375   1.789   7.332
24605SOL     OW75646   6.026   8.133   6.350
24605SOL    HW175647   5.973   8.169   6.421
24605SOL    HW275648   6.113   8.171   6.363
24606SOL     OW75649  10.253   1.352  13.636
24606SOL    HW175650  10.261   1.417  13.566
24606SOL    HW275651  10.283   1.398  13.715
24607SOL     OW75652   4.796   8.655   0.780
24607SOL    HW175653   4.783   8.656   0.874
24607SOL    HW275654   4.712   8.626   0.744
24608SOL     OW75655  12.203   8.802   9.474
24608SOL    HW175656  12.279   8.748   9.449
24608SOL    HW275657  12.207   8.807   9.569
24609SOL     OW75658   8.327   8.246   7.108
24609SOL    HW175659   8.266   8.318   7.120
24609SOL    HW275660   8.414   8.286   7.112
24610SOL     OW75661   6.228   4.106  10.555
24610SOL    HW175662   6.153   4.136  10.503
24610SOL    HW275663   6.305   4.136  10.506
24611SOL     OW75664   6.541   6.427   6.643
24611SOL    HW175665   6.608   6.404   6.707
24611SOL    HW275666   6.574   6.392   6.560
24612SOL     OW75667   9.057  13.136   3.876
24612SOL    HW175668   9.050  13.132   3.781
24612SOL    HW275669   9.072  13.045   3.902
24613SOL     OW75670   8.857  13.422   3.514
24613SOL    HW175671   8.800  13.451   3.443
24613SOL    HW275672   8.946  13.428   3.478
24614SOL     OW75673  14.207   5.264  12.965
24614SOL    HW175674  14.265   5.327  13.008
24614SOL    HW275675  14.124   5.272  13.011
24615SOL     OW75676   5.996   3.105  14.596
24615SOL    HW175677   6.062   3.090  14.528
24615SOL    HW275678   5.972   3.197  14.587
24616SOL     OW75679   4.793   6.951   9.360
24616SOL    HW175680   4.782   6.906   9.277
24616SOL    HW275681   4.881   6.989   9.356
24617SOL     OW75682  12.134  13.559   8.404
24617SOL    HW175683  12.088  13.602   8.476
24617SOL    HW275684  12.122  13.466   8.420
24618SOL     OW75685   6.611  12.915  13.531
24618SOL    HW175686   6.584  12.869  13.611
24618SOL    HW275687   6.604  12.849  13.462
24619SOL     OW75688   9.348   7.110   3.007
24619SOL    HW175689   9.331   7.204   3.020
24619SOL    HW275690   9.261   7.073   2.988
24620SOL     OW75691   4.387  10.945   3.455
24620SOL    HW175692   4.467  10.967   3.503
24620SOL    HW275693   4.316  10.983   3.507
24621SOL     OW75694   9.461   3.712  12.752
24621SOL    HW175695   9.511   3.756  12.683
24621SOL    HW275696   9.372   3.746  12.741
24622SOL     OW75697   4.423   8.944   3.475
24622SOL    HW175698   4.356   8.954   3.543
24622SOL    HW275699   4.390   8.996   3.401
24623SOL     OW75700   9.901  11.103   8.958
24623SOL    HW175701   9.929  11.117   9.048
24623SOL    HW275702   9.945  11.022   8.932
24624SOL     OW75703   7.033  14.766   7.293
24624SOL    HW175704   7.002  14.676   7.307
24624SOL    HW275705   6.961  14.821   7.323
24625SOL     OW75706   5.529   4.260   6.345
24625SOL    HW175707   5.597   4.192   6.344
24625SOL    HW275708   5.541   4.306   6.262
24626SOL     OW75709   1.841   2.808   1.856
24626SOL    HW175710   1.897   2.883   1.833
24626SOL    HW275711   1.850   2.749   1.781
24627SOL     OW75712   4.698   6.921   9.653
24627SOL    HW175713   4.731   6.876   9.731
24627SOL    HW275714   4.605   6.901   9.652
24628SOL     OW75715   7.774   3.965   8.621
24628SOL    HW175716   7.751   3.896   8.683
24628SOL    HW275717   7.791   4.041   8.676
24629SOL     OW75718   6.480   1.682   8.607
24629SOL    HW175719   6.537   1.650   8.538
24629SOL    HW275720   6.496   1.777   8.610
24630SOL     OW75721  14.769   5.705   2.468
24630SOL    HW175722  14.676   5.719   2.446
24630SOL    HW275723  14.781   5.610   2.464
24631SOL     OW75724   2.694   7.762   8.293
24631SOL    HW175725   2.601   7.787   8.291
24631SOL    HW275726   2.704   7.716   8.377
24632SOL     OW75727   4.792   2.799  14.295
24632SOL    HW175728   4.775   2.829  14.206
24632SOL    HW275729   4.825   2.710  14.284
24633SOL     OW75730   5.543   6.309   0.304
24633SOL    HW175731   5.563   6.224   0.265
24633SOL    HW275732   5.626   6.356   0.305
24634SOL     OW75733  12.774  11.964  14.046
24634SOL    HW175734  12.836  11.983  13.976
24634SOL    HW275735  12.704  11.914  14.004
24635SOL     OW75736   0.676   2.129   8.165
24635SOL    HW175737   0.642   2.189   8.099
24635SOL    HW275738   0.653   2.170   8.248
24636SOL     OW75739   3.268   3.865  13.431
24636SOL    HW175740   3.178   3.831  13.428
24636SOL    HW275741   3.263   3.942  13.487
24637SOL     OW75742   6.661  10.452  11.036
24637SOL    HW175743   6.566  10.446  11.041
24637SOL    HW275744   6.690  10.450  11.127
24638SOL     OW75745   8.897  13.569   3.149
24638SOL    HW175746   8.831  13.638   3.156
24638SOL    HW275747   8.958  13.601   3.081
24639SOL     OW75748   8.345   4.748   8.444
24639SOL    HW175749   8.357   4.701   8.361
24639SOL    HW275750   8.393   4.830   8.432
24640SOL     OW75751   5.392   7.671   6.188
24640SOL    HW175752   5.343   7.594   6.161
24640SOL    HW275753   5.334   7.744   6.167
24641SOL     OW75754  10.926   9.535  14.488
24641SOL    HW175755  11.014   9.499  14.500
24641SOL    HW275756  10.871   9.487  14.550
24642SOL     OW75757   8.548  14.123   0.550
24642SOL    HW175758   8.613  14.173   0.501
24642SOL    HW275759   8.599  14.076   0.616
24643SOL     OW75760  12.008   4.428   8.621
24643SOL    HW175761  12.053   4.375   8.556
24643SOL    HW275762  12.051   4.407   8.704
24644SOL     OW75763   8.438   8.400  10.471
24644SOL    HW175764   8.488   8.342  10.414
24644SOL    HW275765   8.371   8.438  10.414
24645SOL     OW75766   8.537   5.591   3.617
24645SOL    HW175767   8.521   5.605   3.523
24645SOL    HW275768   8.631   5.579   3.624
24646SOL     OW75769   0.433  10.938   5.424
24646SOL    HW175770   0.350  10.901   5.395
24646SOL    HW275771   0.492  10.863   5.433
24647SOL     OW75772   0.782   8.483  10.045
24647SOL    HW175773   0.825   8.451   9.966
24647SOL    HW275774   0.849   8.533  10.091
24648SOL     OW75775   9.956   2.817   8.601
24648SOL    HW175776   9.900   2.743   8.627
24648SOL    HW275777   9.924   2.840   8.514
24649SOL     OW75778   0.040   7.633  14.107
24649SOL    HW175779   0.093   7.571  14.056
24649SOL    HW275780   0.100   7.666  14.174
24650SOL     OW75781   4.386   0.114   4.855
24650SOL    HW175782   4.463   0.171   4.853
24650SOL    HW275783   4.362   0.104   4.763
24651SOL     OW75784   7.104   0.897   2.181
24651SOL    HW175785   7.073   0.854   2.260
24651SOL    HW275786   7.199   0.907   2.194
24652SOL     OW75787   0.729  12.901   0.828
24652SOL    HW175788   0.682  12.896   0.745
24652SOL    HW275789   0.661  12.891   0.895
24653SOL     OW75790  13.938   4.950  11.201
24653SOL    HW175791  13.892   4.890  11.260
24653SOL    HW275792  13.929   4.910  11.115
24654SOL     OW75793  12.655  14.748   1.432
24654SOL    HW175794  12.671  14.700   1.513
24654SOL    HW275795  12.590  14.696   1.385
24655SOL     OW75796  10.751  10.340   5.995
24655SOL    HW175797  10.820  10.295   5.946
24655SOL    HW275798  10.672  10.288   5.978
24656SOL     OW75799   4.128   8.333   3.102
24656SOL    HW175800   4.205   8.286   3.071
24656SOL    HW275801   4.150   8.426   3.093
24657SOL     OW75802  11.523  13.878  14.316
24657SOL    HW175803  11.460  13.951  14.315
24657SOL    HW275804  11.482  13.810  14.263
24658SOL     OW75805   8.515  10.440   3.344
24658SOL    HW175806   8.572  10.406   3.275
24658SOL    HW275807   8.532  10.383   3.419
24659SOL     OW75808   8.254   0.364   4.174
24659SOL    HW175809   8.227   0.374   4.083
24659SOL    HW275810   8.325   0.427   4.185
24660SOL     OW75811   8.255   5.028   7.774
24660SOL    HW175812   8.263   4.980   7.692
24660SOL    HW275813   8.342   5.024   7.814
24661SOL     OW75814   5.514   8.242   8.598
24661SOL    HW175815   5.463   8.286   8.531
24661SOL    HW275816   5.501   8.294   8.678
24662SOL     OW75817   8.693   9.859  10.677
24662SOL    HW175818   8.742   9.882  10.756
24662SOL    HW275819   8.749   9.797  10.630
24663SOL     OW75820  12.045   0.740   0.840
24663SOL    HW175821  12.080   0.767   0.755
24663SOL    HW275822  12.063   0.814   0.898
24664SOL     OW75823   2.098  13.609   5.997
24664SOL    HW175824   2.102  13.513   5.996
24664SOL    HW275825   2.041  13.629   6.072
24665SOL     OW75826   4.039   6.514   3.424
24665SOL    HW175827   4.129   6.482   3.421
24665SOL    HW275828   4.032   6.572   3.348
24666SOL     OW75829  14.193   4.041   2.479
24666SOL    HW175830  14.217   3.978   2.547
24666SOL    HW275831  14.108   4.075   2.506
24667SOL     OW75832  11.536  13.375   1.404
24667SOL    HW175833  11.474  13.342   1.339
24667SOL    HW275834  11.598  13.427   1.353
24668SOL     OW75835   5.893   8.310   0.696
24668SOL    HW175836   5.857   8.397   0.678
24668SOL    HW275837   5.918   8.276   0.609
24669SOL     OW75838   1.085   2.681  13.915
24669SOL    HW175839   1.169   2.691  13.868
24669SOL    HW275840   1.046   2.768  13.912
24670SOL     OW75841   7.278  13.217   1.762
24670SOL    HW175842   7.356  13.244   1.714
24670SOL    HW275843   7.290  13.123   1.777
24671SOL     OW75844   9.213   9.515  14.164
24671SOL    HW175845   9.308   9.524  14.170
24671SOL    HW275846   9.193   9.534  14.072
24672SOL     OW75847  12.972   1.521  13.165
24672SOL    HW175848  13.045   1.573  13.198
24672SOL    HW275849  12.937   1.573  13.093
24673SOL     OW75850   9.093   0.456  14.541
24673SOL    HW175851   9.085   0.395  14.614
24673SOL    HW275852   9.058   0.409  14.465
24674SOL     OW75853   2.318   2.912  13.187
24674SOL    HW175854   2.240   2.967  13.175
24674SOL    HW275855   2.376   2.964  13.242
24675SOL     OW75856   0.972   1.771   6.210
24675SOL    HW175857   1.046   1.774   6.149
24675SOL    HW275858   1.011   1.786   6.296
24676SOL     OW75859  10.533   9.555   0.655
24676SOL    HW175860  10.616   9.592   0.624
24676SOL    HW275861  10.466   9.604   0.607
24677SOL     OW75862  14.526   1.861  11.170
24677SOL    HW175863  14.586   1.788  11.152
24677SOL    HW275864  14.575   1.939  11.141
24678SOL     OW75865   3.200   3.931  11.185
24678SOL    HW175866   3.159   3.998  11.131
24678SOL    HW275867   3.128   3.895  11.238
24679SOL     OW75868  13.372   4.792   8.060
24679SOL    HW175869  13.338   4.871   8.018
24679SOL    HW275870  13.433   4.754   7.997
24680SOL     OW75871   1.999   6.191   7.840
24680SOL    HW175872   2.040   6.232   7.916
24680SOL    HW275873   2.033   6.239   7.765
24681SOL     OW75874   9.979   5.223   5.879
24681SOL    HW175875   9.987   5.154   5.946
24681SOL    HW275876  10.056   5.211   5.823
24682SOL     OW75877  13.756  14.359  13.271
24682SOL    HW175878  13.823  14.346  13.337
24682SOL    HW275879  13.688  14.295  13.292
24683SOL     OW75880  10.846  12.843  12.124
24683SOL    HW175881  10.772  12.900  12.145
24683SOL    HW275882  10.810  12.755  12.127
24684SOL     OW75883   7.722  13.478   8.332
24684SOL    HW175884   7.737  13.389   8.300
24684SOL    HW275885   7.796  13.528   8.298
24685SOL     OW75886  13.682   7.159  10.289
24685SOL    HW175887  13.762   7.212  10.295
24685SOL    HW275888  13.693   7.091  10.355
24686SOL     OW75889   3.878   6.577  12.500
24686SOL    HW175890   3.896   6.587  12.406
24686SOL    HW275891   3.848   6.487  12.509
24687SOL     OW75892   7.460  13.994   8.597
24687SOL    HW175893   7.428  13.971   8.510
24687SOL    HW275894   7.549  13.959   8.599
24688SOL     OW75895   5.404  13.558   5.011
24688SOL    HW175896   5.421  13.620   4.940
24688SOL    HW275897   5.318  13.522   4.991
24689SOL     OW75898   3.662  10.609   6.289
24689SOL    HW175899   3.743  10.651   6.261
24689SOL    HW275900   3.604  10.615   6.213
24690SOL     OW75901   1.288  13.707  13.468
24690SOL    HW175902   1.235  13.629  13.482
24690SOL    HW275903   1.313  13.703  13.375
24691SOL     OW75904   9.257  10.468   2.988
24691SOL    HW175905   9.216  10.425   3.063
24691SOL    HW275906   9.225  10.421   2.912
24692SOL     OW75907   3.649   2.519  11.598
24692SOL    HW175908   3.620   2.528  11.689
24692SOL    HW275909   3.568   2.509  11.547
24693SOL     OW75910   7.868   5.112   0.878
24693SOL    HW175911   7.813   5.167   0.823
24693SOL    HW275912   7.806   5.067   0.936
24694SOL     OW75913  11.059   0.127   5.255
24694SOL    HW175914  11.095   0.052   5.302
24694SOL    HW275915  11.003   0.089   5.188
24695SOL     OW75916  14.099   9.751   9.944
24695SOL    HW175917  14.031   9.684   9.957
24695SOL    HW275918  14.132   9.769  10.032
24696SOL     OW75919  11.356  14.575   9.599
24696SOL    HW175920  11.313  14.568   9.513
24696SOL    HW275921  11.413  14.498   9.604
24697SOL     OW75922   8.365   6.226   9.967
24697SOL    HW175923   8.441   6.186   9.926
24697SOL    HW275924   8.399   6.262  10.050
24698SOL     OW75925   8.181   0.933   9.925
24698SOL    HW175926   8.247   0.961   9.989
24698SOL    HW275927   8.128   1.011   9.910
24699SOL     OW75928  13.213  12.669  11.603
24699SOL    HW175929  13.229  12.628  11.518
24699SOL    HW275930  13.268  12.621  11.664
24700SOL     OW75931   5.708  12.439   1.682
24700SOL    HW175932   5.723  12.347   1.702
24700SOL    HW275933   5.617  12.455   1.706
24701SOL     OW75934   5.427   6.109   6.395
24701SOL    HW175935   5.473   6.029   6.368
24701SOL    HW275936   5.349   6.078   6.440
24702SOL     OW75937   4.409   3.133   1.590
24702SOL    HW175938   4.455   3.062   1.545
24702SOL    HW275939   4.372   3.091   1.668
24703SOL     OW75940   1.126   2.621   6.450
24703SOL    HW175941   1.190   2.685   6.418
24703SOL    HW275942   1.178   2.559   6.502
24704SOL     OW75943   8.629   2.313   9.340
24704SOL    HW175944   8.575   2.304   9.418
24704SOL    HW275945   8.706   2.259   9.357
24705SOL     OW75946   8.486   9.643   3.889
24705SOL    HW175947   8.446   9.579   3.948
24705SOL    HW275948   8.574   9.655   3.922
24706SOL     OW75949   3.071   9.376   2.581
24706SOL    HW175950   3.028   9.310   2.527
24706SOL    HW275951   3.010   9.393   2.653
24707SOL     OW75952   3.994   2.304   3.836
24707SOL    HW175953   4.026   2.259   3.914
24707SOL    HW275954   3.931   2.368   3.870
24708SOL     OW75955   3.435   4.110   2.983
24708SOL    HW175956   3.519   4.071   2.960
24708SOL    HW275957   3.370   4.044   2.958
24709SOL     OW75958  12.879   8.066  14.004
24709SOL    HW175959  12.840   7.998  13.950
24709SOL    HW275960  12.862   8.147  13.956
24710SOL     OW75961  14.526   8.706  12.358
24710SOL    HW175962  14.441   8.687  12.319
24710SOL    HW275963  14.507   8.720  12.451
24711SOL     OW75964  13.047   5.327   0.781
24711SOL    HW175965  13.080   5.417   0.790
24711SOL    HW275966  12.979   5.320   0.848
24712SOL     OW75967   4.918  10.346  13.693
24712SOL    HW175968   4.930  10.334  13.598
24712SOL    HW275969   4.968  10.275  13.732
24713SOL     OW75970   6.096  11.779  13.069
24713SOL    HW175971   6.027  11.718  13.095
24713SOL    HW275972   6.135  11.808  13.151
24714SOL     OW75973   5.506   2.579   6.656
24714SOL    HW175974   5.538   2.500   6.611
24714SOL    HW275975   5.584   2.620   6.692
24715SOL     OW75976   3.599   0.480  13.853
24715SOL    HW175977   3.575   0.533  13.777
24715SOL    HW275978   3.516   0.464  13.898
24716SOL     OW75979   9.143   7.644  14.658
24716SOL    HW175980   9.062   7.594  14.662
24716SOL    HW275981   9.188   7.623  14.740
24717SOL     OW75982  14.733  13.810  10.181
24717SOL    HW175983  14.807  13.772  10.228
24717SOL    HW275984  14.710  13.888  10.232
24718SOL     OW75985   1.600   2.840   5.782
24718SOL    HW175986   1.562   2.927   5.797
24718SOL    HW275987   1.555   2.807   5.704
24719SOL     OW75988   4.174   5.430  11.855
24719SOL    HW175989   4.155   5.507  11.801
24719SOL    HW275990   4.130   5.358  11.810
24720SOL     OW75991   0.300  14.785  14.083
24720SOL    HW175992   0.348  14.785  14.001
24720SOL    HW275993   0.251  14.703  14.082
24721SOL     OW75994  14.625   5.061   9.703
24721SOL    HW175995  14.598   5.061   9.795
24721SOL    HW275996  14.714   5.097   9.703
24722SOL     OW75997   9.141   7.978  14.016
24722SOL    HW175998   9.095   7.961  14.098
24722SOL    HW275999   9.138   8.073  14.005
24723SOL     OW76000  13.414  12.037  12.845
24723SOL    HW176001  13.324  12.061  12.821
24723SOL    HW276002  13.411  12.021  12.939
24724SOL     OW76003  12.208  11.214  12.642
24724SOL    HW176004  12.215  11.151  12.570
24724SOL    HW276005  12.230  11.164  12.720
24725SOL     OW76006  13.290  12.341  13.320
24725SOL    HW176007  13.353  12.382  13.380
24725SOL    HW276008  13.206  12.379  13.344
24726SOL     OW76009   9.740   2.311   0.597
24726SOL    HW176010   9.774   2.399   0.607
24726SOL    HW276011   9.651   2.315   0.633
24727SOL     OW76012   2.703  14.521   7.785
24727SOL    HW176013   2.699  14.528   7.690
24727SOL    HW276014   2.612  14.514   7.813
24728SOL     OW76015   1.159   0.737   8.919
24728SOL    HW176016   1.074   0.733   8.876
24728SOL    HW276017   1.168   0.829   8.947
24729SOL     OW76018   2.897  13.194   1.754
24729SOL    HW176019   2.901  13.208   1.849
24729SOL    HW276020   2.977  13.144   1.734
24730SOL     OW76021   2.469   4.631   2.853
24730SOL    HW176022   2.542   4.579   2.886
24730SOL    HW276023   2.510   4.697   2.797
24731SOL     OW76024  10.894   0.754  14.610
24731SOL    HW176025  10.898   0.789  14.521
24731SOL    HW276026  10.880   0.660  14.598
24732SOL     OW76027   5.488  14.347   0.375
24732SOL    HW176028   5.399  14.380   0.363
24732SOL    HW276029   5.513  14.313   0.289
24733SOL     OW76030   9.326   8.942  11.954
24733SOL    HW176031   9.417   8.934  11.982
24733SOL    HW276032   9.325   8.907  11.865
24734SOL     OW76033   5.318   2.489  13.135
24734SOL    HW176034   5.274   2.499  13.220
24734SOL    HW276035   5.252   2.448  13.079
24735SOL     OW76036   2.900   0.794   4.366
24735SOL    HW176037   2.882   0.716   4.419
24735SOL    HW276038   2.843   0.785   4.290
24736SOL     OW76039  14.178   4.390   0.166
24736SOL    HW176040  14.250   4.332   0.191
24736SOL    HW276041  14.203   4.476   0.200
24737SOL     OW76042  10.797  13.705   6.686
24737SOL    HW176043  10.747  13.689   6.766
24737SOL    HW276044  10.823  13.618   6.655
24738SOL     OW76045   3.178   3.000   8.217
24738SOL    HW176046   3.092   3.005   8.260
24738SOL    HW276047   3.182   3.078   8.163
24739SOL     OW76048   2.422   6.530   2.421
24739SOL    HW176049   2.496   6.575   2.380
24739SOL    HW276050   2.397   6.586   2.494
24740SOL     OW76051   8.700  13.754   3.199
24740SOL    HW176052   8.756  13.828   3.224
24740SOL    HW276053   8.625  13.795   3.156
24741SOL     OW76054  11.443  12.762  13.161
24741SOL    HW176055  11.491  12.683  13.135
24741SOL    HW276056  11.456  12.768  13.256
24742SOL     OW76057  13.592   0.136   7.367
24742SOL    HW176058  13.640   0.129   7.449
24742SOL    HW276059  13.558   0.048   7.351
24743SOL     OW76060   6.192   8.076   1.326
24743SOL    HW176061   6.156   7.996   1.364
24743SOL    HW276062   6.245   8.046   1.253
24744SOL     OW76063   8.368  14.559   9.398
24744SOL    HW176064   8.294  14.615   9.375
24744SOL    HW276065   8.444  14.617   9.391
24745SOL     OW76066  12.863   2.113   6.913
24745SOL    HW176067  12.906   2.186   6.957
24745SOL    HW276068  12.782   2.099   6.963
24746SOL     OW76069   2.070   6.149   2.023
24746SOL    HW176070   2.154   6.194   2.012
24746SOL    HW276071   2.008   6.219   2.045
24747SOL     OW76072   6.415   7.302   3.595
24747SOL    HW176073   6.425   7.239   3.667
24747SOL    HW276074   6.433   7.251   3.516
24748SOL     OW76075   3.417   0.980   0.270
24748SOL    HW176076   3.470   1.043   0.318
24748SOL    HW276077   3.386   1.029   0.193
24749SOL     OW76078   9.001   4.876  14.085
24749SOL    HW176079   8.956   4.818  14.023
24749SOL    HW276080   9.070   4.918  14.033
24750SOL     OW76081   9.498  10.364  11.335
24750SOL    HW176082   9.572  10.352  11.276
24750SOL    HW276083   9.434  10.299  11.307
24751SOL     OW76084   4.997   7.475   8.051
24751SOL    HW176085   4.970   7.510   8.136
24751SOL    HW276086   5.068   7.532   8.022
24752SOL     OW76087   8.440   5.324   7.553
24752SOL    HW176088   8.402   5.346   7.638
24752SOL    HW276089   8.365   5.300   7.499
24753SOL     OW76090   3.178   6.297   6.833
24753SOL    HW176091   3.087   6.269   6.825
24753SOL    HW276092   3.219   6.232   6.889
24754SOL     OW76093   1.281  10.379   8.574
24754SOL    HW176094   1.278  10.422   8.659
24754SOL    HW276095   1.357  10.419   8.530
24755SOL     OW76096  12.019   5.179   5.856
24755SOL    HW176097  12.112   5.196   5.840
24755SOL    HW276098  11.982   5.167   5.769
24756SOL     OW76099   6.597   6.214   7.612
24756SOL    HW176100   6.546   6.155   7.667
24756SOL    HW276101   6.682   6.219   7.655
24757SOL     OW76102  11.666   4.310   6.707
24757SOL    HW176103  11.752   4.270   6.695
24757SOL    HW276104  11.622   4.297   6.623
24758SOL     OW76105   5.967   5.539  12.565
24758SOL    HW176106   6.019   5.616  12.543
24758SOL    HW276107   6.010   5.467  12.519
24759SOL     OW76108   8.320  13.090  14.706
24759SOL    HW176109   8.410  13.094  14.676
24759SOL    HW276110   8.326  13.092  14.802
24760SOL     OW76111  13.689  14.557   9.187
24760SOL    HW176112  13.681  14.462   9.181
24760SOL    HW276113  13.697  14.586   9.096
24761SOL     OW76114   2.034   9.198   2.563
24761SOL    HW176115   1.969   9.143   2.521
24761SOL    HW276116   2.094   9.223   2.492
24762SOL     OW76117   1.989   7.907  13.011
24762SOL    HW176118   1.957   7.846  12.944
24762SOL    HW276119   1.992   7.992  12.967
24763SOL     OW76120   1.615   4.386   8.255
24763SOL    HW176121   1.654   4.300   8.236
24763SOL    HW276122   1.525   4.366   8.281
24764SOL     OW76123   1.283  12.373   0.234
24764SOL    HW176124   1.360  12.347   0.284
24764SOL    HW276125   1.219  12.402   0.299
24765SOL     OW76126   3.323   5.913   2.783
24765SOL    HW176127   3.276   5.919   2.866
24765SOL    HW276128   3.415   5.902   2.809
24766SOL     OW76129  10.816  11.738  14.816
24766SOL    HW176130  10.755  11.788  14.762
24766SOL    HW276131  10.840  11.798   0.014
24767SOL     OW76132   7.827  11.295   9.289
24767SOL    HW176133   7.901  11.262   9.237
24767SOL    HW276134   7.750  11.267   9.240
24768SOL     OW76135   0.570  11.527   8.768
24768SOL    HW176136   0.527  11.517   8.683
24768SOL    HW276137   0.596  11.619   8.771
24769SOL     OW76138  13.386  14.437   1.906
24769SOL    HW176139  13.424  14.365   1.956
24769SOL    HW276140  13.312  14.398   1.859
24770SOL     OW76141   5.108   9.276   6.301
24770SOL    HW176142   5.031   9.223   6.320
24770SOL    HW276143   5.176   9.213   6.278
24771SOL     OW76144   5.057   9.853   0.097
24771SOL    HW176145   4.989   9.906   0.139
24771SOL    HW276146   5.130   9.854   0.159
24772SOL     OW76147  13.891   8.326   5.096
24772SOL    HW176148  13.796   8.337   5.102
24772SOL    HW276149  13.907   8.306   5.004
24773SOL     OW76150   6.598   7.390   4.160
24773SOL    HW176151   6.576   7.333   4.234
24773SOL    HW276152   6.613   7.476   4.200
24774SOL     OW76153   0.917   3.920   9.689
24774SOL    HW176154   0.829   3.910   9.725
24774SOL    HW276155   0.905   3.967   9.607
24775SOL     OW76156   1.386  14.135  12.476
24775SOL    HW176157   1.337  14.080  12.415
24775SOL    HW276158   1.333  14.215  12.484
24776SOL     OW76159   3.639  14.870  10.429
24776SOL    HW176160   3.581  14.850  10.502
24776SOL    HW276161   3.593   0.066  10.380
24777SOL     OW76162  13.684   9.993  12.936
24777SOL    HW176163  13.709   9.901  12.945
24777SOL    HW276164  13.677  10.025  13.027
24778SOL     OW76165  14.193   5.489  14.026
24778SOL    HW176166  14.166   5.573  13.989
24778SOL    HW276167  14.111   5.444  14.046
24779SOL     OW76168   1.536   8.708   9.843
24779SOL    HW176169   1.520   8.691   9.936
24779SOL    HW276170   1.494   8.634   9.798
24780SOL     OW76171   1.284   5.467   9.674
24780SOL    HW176172   1.365   5.439   9.631
24780SOL    HW276173   1.302   5.458   9.767
24781SOL     OW76174   8.520  14.270  13.019
24781SOL    HW176175   8.574  14.307  13.089
24781SOL    HW276176   8.575  14.274  12.941
24782SOL     OW76177   9.690   5.993   4.738
24782SOL    HW176178   9.727   5.925   4.794
24782SOL    HW276179   9.657   6.060   4.798
24783SOL     OW76180  10.362   8.183   6.528
24783SOL    HW176181  10.446   8.220   6.555
24783SOL    HW276182  10.299   8.255   6.539
24784SOL     OW76183  10.983  12.547   4.866
24784SOL    HW176184  10.959  12.556   4.958
24784SOL    HW276185  10.973  12.634   4.830
24785SOL     OW76186   9.952  11.884  10.875
24785SOL    HW176187   9.969  11.812  10.813
24785SOL    HW276188   9.905  11.842  10.947
24786SOL     OW76189  11.074   9.733   4.106
24786SOL    HW176190  11.062   9.690   4.191
24786SOL    HW276191  11.163   9.709   4.080
24787SOL     OW76192  11.041   7.143   3.812
24787SOL    HW176193  11.101   7.218   3.805
24787SOL    HW276194  10.991   7.160   3.892
24788SOL     OW76195   6.046  11.418   0.326
24788SOL    HW176196   5.984  11.361   0.281
24788SOL    HW276197   6.027  11.406   0.419
24789SOL     OW76198  10.659   4.964   1.938
24789SOL    HW176199  10.670   4.990   2.029
24789SOL    HW276200  10.567   4.981   1.919
24790SOL     OW76201  10.105  12.397   4.348
24790SOL    HW176202  10.015  12.416   4.373
24790SOL    HW276203  10.158  12.445   4.412
24791SOL     OW76204  10.650   2.717   3.286
24791SOL    HW176205  10.609   2.799   3.314
24791SOL    HW276206  10.619   2.652   3.350
24792SOL     OW76207   3.919  10.952  13.345
24792SOL    HW176208   4.005  10.928  13.380
24792SOL    HW276209   3.877  10.868  13.325
24793SOL     OW76210   4.016   8.577   1.859
24793SOL    HW176211   4.025   8.610   1.948
24793SOL    HW276212   3.999   8.656   1.807
24794SOL     OW76213  14.722  11.421   2.598
24794SOL    HW176214  14.741  11.395   2.689
24794SOL    HW276215  14.765  11.506   2.589
24795SOL     OW76216   6.343  13.214   3.987
24795SOL    HW176217   6.298  13.134   3.960
24795SOL    HW276218   6.361  13.261   3.905
24796SOL     OW76219   3.527   6.527   5.385
24796SOL    HW176220   3.603   6.471   5.368
24796SOL    HW276221   3.508   6.514   5.478
24797SOL     OW76222   2.938   8.091  14.721
24797SOL    HW176223   3.017   8.056  14.678
24797SOL    HW276224   2.867   8.035  14.690
24798SOL     OW76225  11.234   5.368   9.798
24798SOL    HW176226  11.223   5.461   9.778
24798SOL    HW276227  11.319   5.345   9.763
24799SOL     OW76228   1.499   2.092   9.345
24799SOL    HW176229   1.550   2.162   9.385
24799SOL    HW276230   1.452   2.134   9.273
24800SOL     OW76231   1.575  14.158   7.107
24800SOL    HW176232   1.615  14.244   7.124
24800SOL    HW276233   1.486  14.178   7.079
24801SOL     OW76234  12.138   0.862  10.523
24801SOL    HW176235  12.090   0.840  10.443
24801SOL    HW276236  12.230   0.865  10.496
24802SOL     OW76237   0.145  11.152   0.443
24802SOL    HW176238   0.155  11.238   0.483
24802SOL    HW276239   0.094  11.168   0.363
24803SOL     OW76240   6.665   0.793   9.371
24803SOL    HW176241   6.673   0.733   9.445
24803SOL    HW276242   6.677   0.880   9.409
24804SOL     OW76243   0.999   4.600   7.406
24804SOL    HW176244   0.973   4.691   7.420
24804SOL    HW276245   1.092   4.604   7.382
24805SOL     OW76246   4.744  11.665   6.329
24805SOL    HW176247   4.765  11.755   6.353
24805SOL    HW276248   4.687  11.673   6.252
24806SOL     OW76249   2.192   5.105   1.088
24806SOL    HW176250   2.172   5.121   1.181
24806SOL    HW276251   2.263   5.167   1.069
24807SOL     OW76252  12.511  12.986   9.534
24807SOL    HW176253  12.554  12.903   9.513
24807SOL    HW276254  12.563  13.021   9.607
24808SOL     OW76255  13.549  13.689  12.225
24808SOL    HW176256  13.556  13.689  12.321
24808SOL    HW276257  13.640  13.684  12.195
24809SOL     OW76258   0.218  14.176   6.518
24809SOL    HW176259   0.263  14.210   6.596
24809SOL    HW276260   0.279  14.112   6.482
24810SOL     OW76261   2.048  11.348  10.285
24810SOL    HW176262   1.983  11.315  10.347
24810SOL    HW276263   2.079  11.429  10.324
24811SOL     OW76264   0.912  12.981   1.649
24811SOL    HW176265   0.835  12.983   1.592
24811SOL    HW276266   0.985  12.962   1.591
24812SOL     OW76267   8.075   1.298   3.265
24812SOL    HW176268   8.107   1.366   3.206
24812SOL    HW276269   8.134   1.302   3.340
24813SOL     OW76270  13.701  14.355   0.867
24813SOL    HW176271  13.667  14.442   0.849
24813SOL    HW276272  13.734  14.360   0.957
24814SOL     OW76273   0.167   0.033  14.460
24814SOL    HW176274   0.180   0.037  14.366
24814SOL    HW276275   0.073   0.049  14.472
24815SOL     OW76276  12.847  14.160  10.502
24815SOL    HW176277  12.799  14.135  10.424
24815SOL    HW276278  12.929  14.198  10.470
24816SOL     OW76279   5.932   4.423   1.229
24816SOL    HW176280   6.019   4.419   1.269
24816SOL    HW276281   5.949   4.429   1.135
24817SOL     OW76282   4.651   5.027   0.639
24817SOL    HW176283   4.639   5.112   0.682
24817SOL    HW276284   4.630   5.044   0.547
24818SOL     OW76285  12.122  14.774   3.561
24818SOL    HW176286  12.213  14.745   3.559
24818SOL    HW276287  12.117  14.843   3.496
24819SOL     OW76288   0.705   3.924   1.048
24819SOL    HW176289   0.755   3.857   1.003
24819SOL    HW276290   0.614   3.896   1.039
24820SOL     OW76291   8.705   1.924   1.045
24820SOL    HW176292   8.683   1.940   1.137
24820SOL    HW276293   8.650   1.850   1.020
24821SOL     OW76294   7.364   6.114   6.699
24821SOL    HW176295   7.338   6.022   6.712
24821SOL    HW276296   7.346   6.156   6.783
24822SOL     OW76297   4.663   2.958  11.927
24822SOL    HW176298   4.716   3.023  11.972
24822SOL    HW276299   4.716   2.931  11.852
24823SOL     OW76300  13.106   7.994   7.087
24823SOL    HW176301  13.098   8.085   7.057
24823SOL    HW276302  13.023   7.977   7.132
24824SOL     OW76303  11.324   1.457  11.800
24824SOL    HW176304  11.293   1.538  11.841
24824SOL    HW276305  11.385   1.420  11.864
24825SOL     OW76306   5.170  12.245  10.085
24825SOL    HW176307   5.137  12.311  10.023
24825SOL    HW276308   5.256  12.222  10.051
24826SOL     OW76309   9.491   0.902  10.584
24826SOL    HW176310   9.398   0.908  10.609
24826SOL    HW276311   9.492   0.841  10.510
24827SOL     OW76312   9.313   2.016  13.273
24827SOL    HW176313   9.311   2.064  13.355
24827SOL    HW276314   9.360   2.073  13.212
24828SOL     OW76315  10.631   5.090   5.033
24828SOL    HW176316  10.623   5.158   4.966
24828SOL    HW276317  10.632   5.138   5.116
24829SOL     OW76318  11.481  12.295   7.015
24829SOL    HW176319  11.419  12.270   7.083
24829SOL    HW276320  11.553  12.335   7.062
24830SOL     OW76321   0.591   1.602   9.835
24830SOL    HW176322   0.526   1.638   9.775
24830SOL    HW276323   0.610   1.515   9.800
24831SOL     OW76324   4.901   6.613  13.873
24831SOL    HW176325   4.885   6.706  13.893
24831SOL    HW276326   4.956   6.582  13.945
24832SOL     OW76327   0.474   2.223   1.188
24832SOL    HW176328   0.460   2.133   1.218
24832SOL    HW276329   0.394   2.270   1.212
24833SOL     OW76330   3.479  10.580   6.071
24833SOL    HW176331   3.475  10.486   6.051
24833SOL    HW276332   3.395  10.599   6.112
24834SOL     OW76333   8.790  11.315   5.366
24834SOL    HW176334   8.784  11.324   5.461
24834SOL    HW276335   8.810  11.223   5.352
24835SOL     OW76336   4.399   6.961  10.993
24835SOL    HW176337   4.486   6.924  11.008
24835SOL    HW276338   4.369   6.917  10.913
24836SOL     OW76339  10.586  14.086   9.489
24836SOL    HW176340  10.632  14.111   9.409
24836SOL    HW276341  10.621  14.144   9.556
24837SOL     OW76342   0.529   0.826   3.703
24837SOL    HW176343   0.518   0.743   3.657
24837SOL    HW276344   0.539   0.802   3.795
24838SOL     OW76345  12.433   7.779   1.053
24838SOL    HW176346  12.482   7.710   1.008
24838SOL    HW276347  12.372   7.812   0.987
24839SOL     OW76348  14.219  12.454  10.535
24839SOL    HW176349  14.191  12.422  10.622
24839SOL    HW276350  14.196  12.383  10.475
24840SOL     OW76351   8.167   3.085   5.559
24840SOL    HW176352   8.072   3.093   5.561
24840SOL    HW276353   8.191   3.106   5.469
24841SOL     OW76354  10.821   7.167  14.456
24841SOL    HW176355  10.900   7.198  14.500
24841SOL    HW276356  10.788   7.096  14.511
24842SOL     OW76357   7.611   4.893   8.061
24842SOL    HW176358   7.631   4.920   8.150
24842SOL    HW276359   7.546   4.957   8.030
24843SOL     OW76360   0.607   4.289  11.043
24843SOL    HW176361   0.663   4.263  10.970
24843SOL    HW276362   0.661   4.348  11.095
24844SOL     OW76363   3.836   7.738  11.015
24844SOL    HW176364   3.837   7.729  10.920
24844SOL    HW276365   3.882   7.661  11.048
24845SOL     OW76366   4.671   1.323  11.187
24845SOL    HW176367   4.677   1.257  11.117
24845SOL    HW276368   4.647   1.273  11.265
24846SOL     OW76369  12.035  11.766   3.978
24846SOL    HW176370  12.063  11.800   4.064
24846SOL    HW276371  12.115  11.729   3.941
24847SOL     OW76372   0.896  12.530  14.459
24847SOL    HW176373   0.974  12.585  14.465
24847SOL    HW276374   0.843  12.555  14.535
24848SOL     OW76375   0.250   9.360   9.899
24848SOL    HW176376   0.185   9.352   9.969
24848SOL    HW276377   0.323   9.407   9.939
24849SOL     OW76378   7.038   5.752   5.995
24849SOL    HW176379   7.056   5.660   6.015
24849SOL    HW276380   7.043   5.758   5.900
24850SOL     OW76381   8.414   0.125  10.916
24850SOL    HW176382   8.334   0.144  10.965
24850SOL    HW276383   8.384   0.088  10.834
24851SOL     OW76384   0.717   7.108  11.985
24851SOL    HW176385   0.747   7.059  12.063
24851SOL    HW276386   0.622   7.108  11.992
24852SOL     OW76387  14.077   7.899   5.993
24852SOL    HW176388  14.042   7.835   5.930
24852SOL    HW276389  14.015   7.898   6.065
24853SOL     OW76390   7.267   8.275   3.624
24853SOL    HW176391   7.200   8.210   3.602
24853SOL    HW276392   7.240   8.354   3.578
24854SOL     OW76393  10.030  14.372   6.791
24854SOL    HW176394  10.103  14.352   6.850
24854SOL    HW276395   9.996  14.456   6.822
24855SOL     OW76396  13.178   6.133   5.535
24855SOL    HW176397  13.155   6.100   5.622
24855SOL    HW276398  13.262   6.176   5.547
24856SOL     OW76399  12.732  12.720   3.236
24856SOL    HW176400  12.784  12.641   3.221
24856SOL    HW276401  12.692  12.706   3.322
24857SOL     OW76402  13.991   6.564   5.017
24857SOL    HW176403  13.927   6.505   4.977
24857SOL    HW276404  13.963   6.652   4.990
24858SOL     OW76405   7.149   3.264  11.198
24858SOL    HW176406   7.089   3.335  11.178
24858SOL    HW276407   7.128   3.196  11.135
24859SOL     OW76408   1.485   4.845  12.272
24859SOL    HW176409   1.539   4.885  12.204
24859SOL    HW276410   1.462   4.917  12.330
24860SOL     OW76411  12.068   8.000  12.049
24860SOL    HW176412  12.034   8.082  12.084
24860SOL    HW276413  12.070   8.014  11.954
24861SOL     OW76414   1.885   9.439   5.006
24861SOL    HW176415   1.946   9.480   5.068
24861SOL    HW276416   1.941   9.406   4.936
24862SOL     OW76417   2.698   7.907  10.991
24862SOL    HW176418   2.769   7.869  11.043
24862SOL    HW276419   2.673   7.839  10.929
24863SOL     OW76420   2.318   0.978  11.734
24863SOL    HW176421   2.276   0.939  11.810
24863SOL    HW276422   2.340   0.904  11.678
24864SOL     OW76423   4.662   1.728   8.015
24864SOL    HW176424   4.719   1.795   7.979
24864SOL    HW276425   4.680   1.650   7.963
24865SOL     OW76426  13.306  11.909   2.474
24865SOL    HW176427  13.290  11.822   2.437
24865SOL    HW276428  13.229  11.926   2.529
24866SOL     OW76429  13.543   1.542  14.555
24866SOL    HW176430  13.599   1.464  14.549
24866SOL    HW276431  13.603   1.616  14.547
24867SOL     OW76432  12.259  13.013   6.534
24867SOL    HW176433  12.214  12.969   6.606
24867SOL    HW276434  12.224  12.972   6.455
24868SOL     OW76435   6.150   1.658   7.089
24868SOL    HW176436   6.064   1.673   7.050
24868SOL    HW276437   6.140   1.579   7.142
24869SOL     OW76438   1.113   1.520   9.027
24869SOL    HW176439   1.039   1.463   9.006
24869SOL    HW276440   1.189   1.471   8.995
24870SOL     OW76441   6.468   0.849   9.086
24870SOL    HW176442   6.483   0.943   9.089
24870SOL    HW276443   6.510   0.820   9.005
24871SOL     OW76444   8.398   0.174   4.311
24871SOL    HW176445   8.351   0.245   4.267
24871SOL    HW276446   8.329   0.125   4.356
24872SOL     OW76447   3.591   1.909   9.237
24872SOL    HW176448   3.524   1.841   9.242
24872SOL    HW276449   3.548   1.982   9.192
24873SOL     OW76450   2.189  10.161   6.426
24873SOL    HW176451   2.239  10.126   6.500
24873SOL    HW276452   2.254  10.178   6.358
24874SOL     OW76453   9.539  14.184   3.402
24874SOL    HW176454   9.562  14.123   3.472
24874SOL    HW276455   9.445  14.172   3.390
24875SOL     OW76456   2.657   0.412   4.674
24875SOL    HW176457   2.576   0.413   4.724
24875SOL    HW276458   2.696   0.327   4.694
24876SOL     OW76459   2.891  10.641   9.974
24876SOL    HW176460   2.896  10.710  10.041
24876SOL    HW276461   2.870  10.562  10.024
24877SOL     OW76462  14.513   9.227   7.452
24877SOL    HW176463  14.522   9.281   7.374
24877SOL    HW276464  14.603   9.215   7.483
24878SOL     OW76465   6.476   2.096   5.382
24878SOL    HW176466   6.419   2.095   5.458
24878SOL    HW276467   6.467   2.009   5.343
24879SOL     OW76468   0.671  10.187   1.164
24879SOL    HW176469   0.576  10.194   1.169
24879SOL    HW276470   0.692  10.104   1.206
24880SOL     OW76471   1.261   1.436   9.314
24880SOL    HW176472   1.302   1.521   9.295
24880SOL    HW276473   1.168   1.456   9.323
24881SOL     OW76474   7.121   4.664  11.971
24881SOL    HW176475   7.093   4.613  12.047
24881SOL    HW276476   7.060   4.737  11.966
24882SOL     OW76477  14.844   5.287  10.601
24882SOL    HW176478  14.756   5.266  10.631
24882SOL    HW276479  14.835   5.369  10.553
24883SOL     OW76480   4.742   5.093   9.414
24883SOL    HW176481   4.692   5.162   9.371
24883SOL    HW276482   4.801   5.060   9.346
24884SOL     OW76483   4.354  10.227  10.144
24884SOL    HW176484   4.384  10.161  10.206
24884SOL    HW276485   4.287  10.182  10.092
24885SOL     OW76486   1.274   4.214   7.223
24885SOL    HW176487   1.320   4.130   7.235
24885SOL    HW276488   1.236   4.208   7.136
24886SOL     OW76489   1.038  11.537  13.743
24886SOL    HW176490   1.053  11.595  13.818
24886SOL    HW276491   1.123  11.532  13.699
24887SOL     OW76492   9.361   6.447  10.547
24887SOL    HW176493   9.387   6.452  10.455
24887SOL    HW276494   9.271   6.414  10.545
24888SOL     OW76495  12.538   4.762  11.433
24888SOL    HW176496  12.593   4.696  11.392
24888SOL    HW276497  12.565   4.762  11.525
24889SOL     OW76498  14.444   4.285   7.784
24889SOL    HW176499  14.503   4.211   7.767
24889SOL    HW276500  14.378   4.250   7.844
24890SOL     OW76501   2.407   4.374  11.125
24890SOL    HW176502   2.349   4.445  11.098
24890SOL    HW276503   2.492   4.396  11.089
24891SOL     OW76504   4.768   6.133   6.218
24891SOL    HW176505   4.744   6.153   6.128
24891SOL    HW276506   4.701   6.071   6.248
24892SOL     OW76507  10.984   2.352   8.575
24892SOL    HW176508  10.909   2.378   8.628
24892SOL    HW276509  11.038   2.432   8.570
24893SOL     OW76510  14.744  10.837   9.803
24893SOL    HW176511  14.828  10.793   9.818
24893SOL    HW276512  14.701  10.784   9.736
24894SOL     OW76513   1.260   1.735   8.742
24894SOL    HW176514   1.279   1.813   8.690
24894SOL    HW276515   1.239   1.770   8.829
24895SOL     OW76516   3.828   8.168   9.157
24895SOL    HW176517   3.833   8.261   9.135
24895SOL    HW276518   3.919   8.140   9.163
24896SOL     OW76519  11.010   1.409   4.057
24896SOL    HW176520  10.922   1.429   4.028
24896SOL    HW276521  11.057   1.493   4.051
24897SOL     OW76522   6.143  13.191   4.442
24897SOL    HW176523   6.236  13.208   4.431
24897SOL    HW276524   6.128  13.108   4.397
24898SOL     OW76525   6.190   6.037   4.726
24898SOL    HW176526   6.226   6.100   4.665
24898SOL    HW276527   6.099   6.064   4.738
24899SOL     OW76528   7.905   3.767   3.020
24899SOL    HW176529   7.816   3.739   3.042
24899SOL    HW276530   7.893   3.843   2.962
24900SOL     OW76531  13.133  13.249  14.851
24900SOL    HW176532  13.074  13.176  14.872
24900SOL    HW276533  13.079  13.327  14.857
24901SOL     OW76534   6.441   3.506  11.031
24901SOL    HW176535   6.458   3.420  10.993
24901SOL    HW276536   6.501   3.565  10.986
24902SOL     OW76537  10.392   3.921   5.467
24902SOL    HW176538  10.393   4.003   5.516
24902SOL    HW276539  10.461   3.868   5.508
24903SOL     OW76540   0.021   9.934   6.256
24903SOL    HW176541  14.861   9.848   6.227
24903SOL    HW276542   0.063   9.917   6.340
24904SOL     OW76543   5.123   5.442   9.402
24904SOL    HW176544   5.134   5.505   9.473
24904SOL    HW276545   5.028   5.435   9.390
24905SOL     OW76546   4.451   2.294   4.685
24905SOL    HW176547   4.462   2.387   4.701
24905SOL    HW276548   4.362   2.274   4.715
24906SOL     OW76549  10.261   6.727  14.146
24906SOL    HW176550  10.340   6.761  14.188
24906SOL    HW276551  10.284   6.722  14.053
24907SOL     OW76552  10.983  14.052   1.155
24907SOL    HW176553  10.924  14.090   1.091
24907SOL    HW276554  10.934  14.055   1.238
24908SOL     OW76555   4.580   8.629   9.571
24908SOL    HW176556   4.625   8.577   9.639
24908SOL    HW276557   4.554   8.564   9.505
24909SOL     OW76558  13.659   1.307   0.924
24909SOL    HW176559  13.634   1.378   0.982
24909SOL    HW276560  13.722   1.256   0.975
24910SOL     OW76561  12.354   0.080   3.862
24910SOL    HW176562  12.404   0.157   3.835
24910SOL    HW276563  12.263   0.111   3.867
24911SOL     OW76564   3.074   0.281  10.764
24911SOL    HW176565   3.097   0.370  10.738
24911SOL    HW276566   3.039   0.290  10.852
24912SOL     OW76567  11.324  12.021   8.166
24912SOL    HW176568  11.411  11.984   8.151
24912SOL    HW276569  11.329  12.111   8.132
24913SOL     OW76570  10.121  13.996  12.343
24913SOL    HW176571  10.083  14.082  12.363
24913SOL    HW276572  10.168  14.010  12.261
24914SOL     OW76573  14.785   3.629   7.655
24914SOL    HW176574  14.746   3.685   7.722
24914SOL    HW276575  14.778   3.679   7.574
24915SOL     OW76576   8.439   8.520  13.423
24915SOL    HW176577   8.414   8.473  13.344
24915SOL    HW276578   8.396   8.605  13.415
24916SOL     OW76579   2.305   9.328   7.948
24916SOL    HW176580   2.296   9.376   7.865
24916SOL    HW276581   2.369   9.379   7.998
24917SOL     OW76582  14.115   9.935   8.395
24917SOL    HW176583  14.147  10.014   8.352
24917SOL    HW276584  14.182   9.913   8.459
24918SOL     OW76585   4.226   1.336   9.402
24918SOL    HW176586   4.135   1.325   9.374
24918SOL    HW276587   4.256   1.416   9.359
24919SOL     OW76588   4.559  10.739   4.816
24919SOL    HW176589   4.614  10.807   4.856
24919SOL    HW276590   4.570  10.752   4.722
24920SOL     OW76591   7.772  13.203   8.873
24920SOL    HW176592   7.809  13.173   8.956
24920SOL    HW276593   7.849  13.213   8.816
24921SOL     OW76594   7.128   5.422  12.334
24921SOL    HW176595   7.220   5.415  12.361
24921SOL    HW276596   7.080   5.432  12.417
24922SOL     OW76597   4.553   2.613   1.482
24922SOL    HW176598   4.545   2.555   1.557
24922SOL    HW276599   4.522   2.560   1.408
24923SOL     OW76600   5.621   7.034   8.888
24923SOL    HW176601   5.613   6.945   8.921
24923SOL    HW276602   5.679   7.026   8.812
24924SOL     OW76603  14.342   5.036   0.327
24924SOL    HW176604  14.302   5.083   0.400
24924SOL    HW276605  14.413   4.985   0.367
24925SOL     OW76606   5.579   9.915   6.035
24925SOL    HW176607   5.597  10.000   5.993
24925SOL    HW276608   5.517   9.935   6.105
24926SOL     OW76609   9.628   0.286   5.606
24926SOL    HW176610   9.714   0.319   5.581
24926SOL    HW276611   9.598   0.344   5.676
24927SOL     OW76612   1.034   5.597   7.704
24927SOL    HW176613   1.107   5.558   7.655
24927SOL    HW276614   0.981   5.640   7.637
24928SOL     OW76615  12.625   4.527   1.729
24928SOL    HW176616  12.643   4.499   1.819
24928SOL    HW276617  12.529   4.530   1.725
24929SOL     OW76618   1.520   2.112   0.225
24929SOL    HW176619   1.612   2.137   0.222
24929SOL    HW276620   1.512   2.041   0.161
24930SOL     OW76621  11.153  10.125   4.942
24930SOL    HW176622  11.084  10.124   5.009
24930SOL    HW276623  11.137  10.206   4.894
24931SOL     OW76624   6.389   6.696  11.112
24931SOL    HW176625   6.311   6.651  11.081
24931SOL    HW276626   6.450   6.627  11.135
24932SOL     OW76627  10.962   9.289   2.922
24932SOL    HW176628  10.965   9.215   2.982
24932SOL    HW276629  10.917   9.255   2.844
24933SOL     OW76630  10.510  10.746   0.951
24933SOL    HW176631  10.494  10.822   0.895
24933SOL    HW276632  10.439  10.685   0.929
24934SOL     OW76633   1.217   1.639   3.830
24934SOL    HW176634   1.166   1.583   3.888
24934SOL    HW276635   1.213   1.595   3.745
24935SOL     OW76636   4.078   4.944   1.395
24935SOL    HW176637   4.133   4.971   1.468
24935SOL    HW276638   4.046   5.026   1.358
24936SOL     OW76639   4.802   5.703   7.691
24936SOL    HW176640   4.709   5.718   7.710
24936SOL    HW276641   4.846   5.782   7.720
24937SOL     OW76642   7.649   4.470   2.145
24937SOL    HW176643   7.702   4.392   2.161
24937SOL    HW276644   7.677   4.532   2.211
24938SOL     OW76645  12.526   2.113  11.633
24938SOL    HW176646  12.494   2.023  11.628
24938SOL    HW276647  12.609   2.106  11.680
24939SOL     OW76648  13.992   7.240  10.770
24939SOL    HW176649  13.920   7.288  10.730
24939SOL    HW276650  13.952   7.157  10.798
24940SOL     OW76651   6.044  14.419   8.752
24940SOL    HW176652   6.080  14.388   8.835
24940SOL    HW276653   6.041  14.342   8.696
24941SOL     OW76654   4.773   3.303   2.027
24941SOL    HW176655   4.811   3.358   1.959
24941SOL    HW276656   4.808   3.339   2.109
24942SOL     OW76657  10.180   1.110   1.878
24942SOL    HW176658  10.172   1.070   1.791
24942SOL    HW276659  10.156   1.040   1.939
24943SOL     OW76660   7.761  12.901   0.028
24943SOL    HW176661   7.754  12.880   0.121
24943SOL    HW276662   7.830  12.843  14.868
24944SOL     OW76663  10.278  13.085   3.559
24944SOL    HW176664  10.286  13.052   3.648
24944SOL    HW276665  10.325  13.021   3.506
24945SOL     OW76666   7.860  13.896  11.882
24945SOL    HW176667   7.935  13.954  11.873
24945SOL    HW276668   7.891  13.811  11.849
24946SOL     OW76669   4.831   4.084   5.334
24946SOL    HW176670   4.772   4.010   5.347
24946SOL    HW276671   4.778   4.162   5.352
24947SOL     OW76672  11.623  14.591   3.003
24947SOL    HW176673  11.584  14.592   2.915
24947SOL    HW276674  11.679  14.513   3.004
24948SOL     OW76675   2.809  12.206   3.368
24948SOL    HW176676   2.786  12.204   3.461
24948SOL    HW276677   2.738  12.158   3.325
24949SOL     OW76678   6.772   1.300   0.953
24949SOL    HW176679   6.691   1.310   0.903
24949SOL    HW276680   6.832   1.257   0.893
24950SOL     OW76681  14.496  14.441   8.395
24950SOL    HW176682  14.488  14.369   8.457
24950SOL    HW276683  14.589  14.445   8.374
24951SOL     OW76684   5.632   9.511  12.641
24951SOL    HW176685   5.639   9.534  12.548
24951SOL    HW276686   5.723   9.509  12.672
24952SOL     OW76687   7.350  13.699   5.537
24952SOL    HW176688   7.300  13.773   5.571
24952SOL    HW276689   7.348  13.710   5.442
24953SOL     OW76690  14.702   3.922   3.856
24953SOL    HW176691  14.721   4.014   3.876
24953SOL    HW276692  14.681   3.883   3.940
24954SOL     OW76693   3.178   3.751  10.603
24954SOL    HW176694   3.126   3.790  10.532
24954SOL    HW276695   3.178   3.657  10.584
24955SOL     OW76696  10.509  14.239   5.735
24955SOL    HW176697  10.581  14.298   5.715
24955SOL    HW276698  10.551  14.159   5.767
24956SOL     OW76699   9.869   2.428   2.772
24956SOL    HW176700   9.871   2.504   2.714
24956SOL    HW276701   9.820   2.457   2.849
24957SOL     OW76702   5.837  10.548   3.197
24957SOL    HW176703   5.781  10.470   3.190
24957SOL    HW276704   5.896  10.541   3.122
24958SOL     OW76705   1.029  12.398  11.828
24958SOL    HW176706   1.021  12.490  11.853
24958SOL    HW276707   0.957  12.384  11.766
24959SOL     OW76708   3.744   1.762   2.631
24959SOL    HW176709   3.730   1.667   2.638
24959SOL    HW276710   3.838   1.773   2.639
24960SOL     OW76711  12.731   3.479  12.231
24960SOL    HW176712  12.660   3.490  12.294
24960SOL    HW276713  12.696   3.420  12.165
24961SOL     OW76714   5.334   9.464  14.320
24961SOL    HW176715   5.277   9.388  14.332
24961SOL    HW276716   5.312   9.522  14.393
24962SOL     OW76717  14.743  11.171  13.553
24962SOL    HW176718  14.791  11.202  13.476
24962SOL    HW276719  14.674  11.115  13.517
24963SOL     OW76720   2.914   5.627  10.424
24963SOL    HW176721   2.993   5.676  10.444
24963SOL    HW276722   2.843   5.690  10.437
24964SOL     OW76723  12.534  12.452  14.314
24964SOL    HW176724  12.566  12.521  14.255
24964SOL    HW276725  12.609  12.392  14.322
24965SOL     OW76726   7.984  13.029  14.707
24965SOL    HW176727   7.986  13.031  14.803
24965SOL    HW276728   8.075  13.044  14.681
24966SOL     OW76729   1.390   2.829   8.315
24966SOL    HW176730   1.403   2.871   8.230
24966SOL    HW276731   1.295   2.826   8.326
24967SOL     OW76732  10.732   9.504  13.019
24967SOL    HW176733  10.731   9.600  13.024
24967SOL    HW276734  10.684   9.484  12.939
24968SOL     OW76735  13.417   7.627   2.152
24968SOL    HW176736  13.456   7.709   2.123
24968SOL    HW276737  13.323   7.642   2.150
24969SOL     OW76738   1.068  11.636   7.563
24969SOL    HW176739   1.002  11.615   7.497
24969SOL    HW276740   1.017  11.673   7.636
24970SOL     OW76741   4.852   9.126   8.529
24970SOL    HW176742   4.801   9.123   8.610
24970SOL    HW276743   4.820   9.051   8.479
24971SOL     OW76744  12.345  13.132   2.322
24971SOL    HW176745  12.294  13.055   2.349
24971SOL    HW276746  12.280  13.203   2.320
24972SOL     OW76747   1.148   5.468   5.385
24972SOL    HW176748   1.167   5.442   5.475
24972SOL    HW276749   1.098   5.549   5.394
24973SOL     OW76750   8.993   8.510  10.418
24973SOL    HW176751   8.964   8.551  10.336
24973SOL    HW276752   9.048   8.576  10.459
24974SOL     OW76753   6.399   2.016   6.784
24974SOL    HW176754   6.478   2.071   6.777
24974SOL    HW276755   6.433   1.928   6.796
24975SOL     OW76756  13.981  12.480   6.024
24975SOL    HW176757  14.019  12.566   6.043
24975SOL    HW276758  13.902  12.476   6.078
24976SOL     OW76759  12.582   9.630   8.379
24976SOL    HW176760  12.524   9.703   8.360
24976SOL    HW276761  12.669   9.670   8.389
24977SOL     OW76762   8.770   9.256   2.018
24977SOL    HW176763   8.706   9.186   2.028
24977SOL    HW276764   8.772   9.274   1.924
24978SOL     OW76765  10.271  14.687  10.197
24978SOL    HW176766  10.245  14.614  10.141
24978SOL    HW276767  10.359  14.665  10.227
24979SOL     OW76768   9.225  10.576   5.526
24979SOL    HW176769   9.317  10.592   5.503
24979SOL    HW276770   9.193  10.661   5.557
24980SOL     OW76771  10.885   8.759   8.801
24980SOL    HW176772  10.817   8.704   8.842
24980SOL    HW276773  10.852   8.777   8.713
24981SOL     OW76774   9.149  12.069  13.933
24981SOL    HW176775   9.068  12.117  13.918
24981SOL    HW276776   9.219  12.132  13.918
24982SOL     OW76777   1.071   5.654  10.939
24982SOL    HW176778   1.155   5.628  10.901
24982SOL    HW276779   1.092   5.683  11.027
24983SOL     OW76780  11.498   4.808  13.439
24983SOL    HW176781  11.580   4.759  13.428
24983SOL    HW276782  11.517   4.896  13.407
24984SOL     OW76783   7.738  10.597   3.172
24984SOL    HW176784   7.715  10.509   3.141
24984SOL    HW276785   7.711  10.597   3.264
24985SOL     OW76786   1.464   1.513   3.864
24985SOL    HW176787   1.393   1.577   3.870
24985SOL    HW276788   1.424   1.430   3.889
24986SOL     OW76789  13.274   4.740   7.555
24986SOL    HW176790  13.300   4.659   7.511
24986SOL    HW276791  13.352   4.796   7.551
24987SOL     OW76792  14.668   7.855  13.632
24987SOL    HW176793  14.718   7.918  13.685
24987SOL    HW276794  14.592   7.833  13.686
24988SOL     OW76795   4.523   6.651   4.176
24988SOL    HW176796   4.517   6.608   4.090
24988SOL    HW276797   4.489   6.585   4.237
24989SOL     OW76798  13.056   1.633   4.181
24989SOL    HW176799  13.123   1.564   4.184
24989SOL    HW276800  13.021   1.637   4.270
24990SOL     OW76801   2.932   5.731  12.358
24990SOL    HW176802   2.978   5.705  12.277
24990SOL    HW276803   2.908   5.648  12.398
24991SOL     OW76804   5.927  11.346  13.271
24991SOL    HW176805   5.847  11.308  13.307
24991SOL    HW276806   5.994  11.331  13.337
24992SOL     OW76807   7.871   0.609  12.554
24992SOL    HW176808   7.901   0.580  12.640
24992SOL    HW276809   7.862   0.703  12.562
24993SOL     OW76810   4.606   6.074   1.031
24993SOL    HW176811   4.688   6.079   1.080
24993SOL    HW276812   4.579   5.983   1.038
24994SOL     OW76813   9.093   3.188  10.158
24994SOL    HW176814   9.054   3.216  10.075
24994SOL    HW276815   9.075   3.094  10.163
24995SOL     OW76816   7.913   9.931   5.330
24995SOL    HW176817   8.009   9.939   5.325
24995SOL    HW276818   7.895   9.841   5.302
24996SOL     OW76819  12.194  14.829   9.054
24996SOL    HW176820  12.274  14.790   9.090
24996SOL    HW276821  12.170  14.771   8.982
24997SOL     OW76822  14.482  12.820  10.040
24997SOL    HW176823  14.564  12.782  10.008
24997SOL    HW276824  14.493  12.824  10.135
24998SOL     OW76825   3.779   5.824  14.385
24998SOL    HW176826   3.733   5.741  14.379
24998SOL    HW276827   3.717   5.883  14.429
24999SOL     OW76828   5.555   6.564  13.946
24999SOL    HW176829   5.619   6.502  13.913
24999SOL    HW276830   5.599   6.608  14.019
25000SOL     OW76831   7.325   5.365   5.084
25000SOL    HW176832   7.364   5.332   5.003
25000SOL    HW276833   7.243   5.315   5.093
25001SOL     OW76834   5.456   7.226   2.292
25001SOL    HW176835   5.506   7.194   2.217
25001SOL    HW276836   5.512   7.208   2.367
25002SOL     OW76837   3.732  10.868   3.183
25002SOL    HW176838   3.769  10.796   3.234
25002SOL    HW276839   3.702  10.931   3.248
25003SOL     OW76840   4.481   2.866  13.586
25003SOL    HW176841   4.403   2.815  13.566
25003SOL    HW276842   4.500   2.913  13.505
25004SOL     OW76843  14.837   3.264   6.419
25004SOL    HW176844   0.029   3.314   6.369
25004SOL    HW276845   0.014   3.232   6.495
25005SOL     OW76846  10.580  12.162  11.096
25005SOL    HW176847  10.487  12.148  11.079
25005SOL    HW276848  10.586  12.166  11.191
25006SOL     OW76849   0.356  13.282   2.055
25006SOL    HW176850   0.421  13.256   1.991
25006SOL    HW276851   0.381  13.371   2.081
25007SOL     OW76852  10.101   3.055  10.396
25007SOL    HW176853  10.030   3.027  10.339
25007SOL    HW276854  10.179   3.015  10.359
25008SOL     OW76855  11.192   8.303   3.971
25008SOL    HW176856  11.285   8.323   3.972
25008SOL    HW276857  11.149   8.388   3.978
25009SOL     OW76858   4.398   7.461  12.128
25009SOL    HW176859   4.368   7.397  12.063
25009SOL    HW276860   4.427   7.408  12.202
25010SOL     OW76861   4.980   7.837   2.871
25010SOL    HW176862   4.940   7.795   2.795
25010SOL    HW276863   4.949   7.786   2.946
25011SOL     OW76864  10.583   5.535  13.190
25011SOL    HW176865  10.519   5.605  13.201
25011SOL    HW276866  10.609   5.541  13.098
25012SOL     OW76867   5.082  11.165   7.548
25012SOL    HW176868   5.152  11.211   7.593
25012SOL    HW276869   5.004  11.183   7.601
25013SOL     OW76870   3.250   8.046  11.692
25013SOL    HW176871   3.159   8.068  11.672
25013SOL    HW276872   3.301   8.112  11.645
25014SOL     OW76873  11.929  14.689   9.161
25014SOL    HW176874  11.981  14.728   9.090
25014SOL    HW276875  11.995  14.651   9.220
25015SOL     OW76876   8.242   8.403   3.684
25015SOL    HW176877   8.327   8.415   3.641
25015SOL    HW276878   8.222   8.489   3.721
25016SOL     OW76879   0.332  11.663  12.720
25016SOL    HW176880   0.291  11.587  12.760
25016SOL    HW276881   0.275  11.736  12.743
25017SOL     OW76882   4.139   0.229  13.023
25017SOL    HW176883   4.087   0.291  13.075
25017SOL    HW276884   4.150   0.153  13.080
25018SOL     OW76885   4.539  11.169   4.355
25018SOL    HW176886   4.486  11.089   4.347
25018SOL    HW276887   4.620  11.149   4.308
25019SOL     OW76888   7.827  10.584   8.336
25019SOL    HW176889   7.906  10.572   8.388
25019SOL    HW276890   7.786  10.663   8.371
25020SOL     OW76891   5.614  10.269   1.243
25020SOL    HW176892   5.613  10.364   1.241
25020SOL    HW276893   5.528  10.245   1.278
25021SOL     OW76894  14.629   5.077   8.317
25021SOL    HW176895  14.685   5.027   8.377
25021SOL    HW276896  14.540   5.057   8.345
25022SOL     OW76897   0.477   4.117  12.733
25022SOL    HW176898   0.509   4.176  12.666
25022SOL    HW276899   0.390   4.150  12.755
25023SOL     OW76900   1.751   7.794   7.315
25023SOL    HW176901   1.733   7.885   7.340
25023SOL    HW276902   1.695   7.779   7.238
25024SOL     OW76903  12.710  14.808   8.754
25024SOL    HW176904  12.778   0.003   8.750
25024SOL    HW276905  12.636  14.852   8.797
25025SOL     OW76906   6.121  10.278  11.426
25025SOL    HW176907   6.190  10.287  11.360
25025SOL    HW276908   6.049  10.236  11.379
25026SOL     OW76909  10.998   4.711  13.594
25026SOL    HW176910  10.970   4.800  13.611
25026SOL    HW276911  10.939   4.679  13.526
25027SOL     OW76912   3.823   1.546   8.013
25027SOL    HW176913   3.886   1.539   8.085
25027SOL    HW276914   3.849   1.624   7.965
25028SOL     OW76915  12.880   2.761   3.653
25028SOL    HW176916  12.811   2.706   3.615
25028SOL    HW276917  12.928   2.795   3.578
25029SOL     OW76918   6.351  10.896   5.078
25029SOL    HW176919   6.382  10.911   5.167
25029SOL    HW276920   6.381  10.808   5.056
25030SOL     OW76921   6.704  14.423   8.203
25030SOL    HW176922   6.634  14.464   8.152
25030SOL    HW276923   6.767  14.493   8.218
25031SOL     OW76924   0.019   3.895   4.784
25031SOL    HW176925  14.820   3.849   4.740
25031SOL    HW276926  14.858   3.912   4.873
25032SOL     OW76927   5.958   4.799  10.219
25032SOL    HW176928   5.993   4.739  10.285
25032SOL    HW276929   5.901   4.858  10.267
25033SOL     OW76930   5.058   7.682  13.963
25033SOL    HW176931   5.026   7.772  13.958
25033SOL    HW276932   5.004   7.641  14.030
25034SOL     OW76933  14.676  10.240   8.500
25034SOL    HW176934  14.769  10.222   8.513
25034SOL    HW276935  14.651  10.293   8.576
25035SOL     OW76936  10.915   4.031   2.585
25035SOL    HW176937  11.004   4.030   2.551
25035SOL    HW276938  10.871   3.958   2.539
25036SOL     OW76939   4.219   0.082   1.045
25036SOL    HW176940   4.259   0.165   1.019
25036SOL    HW276941   4.130   0.085   1.009
25037SOL     OW76942   4.066   3.203   3.727
25037SOL    HW176943   4.014   3.123   3.724
25037SOL    HW276944   4.118   3.202   3.647
25038SOL     OW76945   4.385   0.931   3.063
25038SOL    HW176946   4.468   0.914   3.019
25038SOL    HW276947   4.339   0.847   3.062
25039SOL     OW76948   4.069   0.663  10.503
25039SOL    HW176949   4.000   0.648  10.567
25039SOL    HW276950   4.029   0.639  10.419
25040SOL     OW76951   1.709   5.047  11.444
25040SOL    HW176952   1.737   5.037  11.535
25040SOL    HW276953   1.768   4.990  11.395
25041SOL     OW76954   5.385   0.893   5.689
25041SOL    HW176955   5.421   0.978   5.664
25041SOL    HW276956   5.363   0.903   5.782
25042SOL     OW76957   1.733   6.325  10.034
25042SOL    HW176958   1.727   6.273   9.953
25042SOL    HW276959   1.805   6.386  10.018
25043SOL     OW76960  13.428   7.773   3.269
25043SOL    HW176961  13.402   7.864   3.254
25043SOL    HW276962  13.482   7.750   3.194
25044SOL     OW76963   8.954   6.935   0.027
25044SOL    HW176964   9.024   6.908   0.086
25044SOL    HW276965   8.914   6.853  14.871
25045SOL     OW76966   3.707   7.132  12.986
25045SOL    HW176967   3.719   7.061  13.049
25045SOL    HW276968   3.746   7.099  12.905
25046SOL     OW76969   6.363  13.870   8.608
25046SOL    HW176970   6.317  13.922   8.673
25046SOL    HW276971   6.455  13.871   8.637
25047SOL     OW76972   2.578   9.718   1.444
25047SOL    HW176973   2.505   9.656   1.444
25047SOL    HW276974   2.656   9.663   1.436
25048SOL     OW76975  11.711   7.028   7.739
25048SOL    HW176976  11.742   7.032   7.649
25048SOL    HW276977  11.630   7.078   7.739
25049SOL     OW76978   5.164   2.035   5.504
25049SOL    HW176979   5.152   2.122   5.467
25049SOL    HW276980   5.140   1.975   5.433
25050SOL     OW76981   3.312   8.292   1.332
25050SOL    HW176982   3.277   8.254   1.251
25050SOL    HW276983   3.407   8.291   1.320
25051SOL     OW76984   5.103   3.700  13.276
25051SOL    HW176985   5.019   3.744  13.280
25051SOL    HW276986   5.151   3.732  13.352
25052SOL     OW76987  12.870   6.834   6.100
25052SOL    HW176988  12.875   6.900   6.169
25052SOL    HW276989  12.792   6.859   6.050
25053SOL     OW76990   1.053  11.065   7.598
25053SOL    HW176991   1.065  11.154   7.563
25053SOL    HW276992   1.141  11.033   7.614
25054SOL     OW76993   4.425   9.127   1.540
25054SOL    HW176994   4.364   9.054   1.548
25054SOL    HW276995   4.412   9.159   1.451
25055SOL     OW76996  14.053   3.996   4.604
25055SOL    HW176997  14.147   4.002   4.621
25055SOL    HW276998  14.028   4.085   4.580
25056SOL     OW76999   6.923  10.068  13.789
25056SOL    HW177000   6.869  10.048  13.866
25056SOL    HW277001   6.910   9.994  13.730
25057SOL     OW77002  10.117   7.120   4.358
25057SOL    HW177003  10.036   7.127   4.408
25057SOL    HW277004  10.100   7.049   4.295
25058SOL     OW77005   5.784   2.727  13.370
25058SOL    HW177006   5.749   2.811  13.340
25058SOL    HW277007   5.806   2.680  13.290
25059SOL     OW77008  10.784   1.505  11.541
25059SOL    HW177009  10.831   1.569  11.488
25059SOL    HW277010  10.846   1.433  11.553
25060SOL     OW77011  11.548   9.983  13.320
25060SOL    HW177012  11.532   9.901  13.273
25060SOL    HW277013  11.525  10.051  13.258
25061SOL     OW77014  12.190   2.671   6.558
25061SOL    HW177015  12.261   2.705   6.503
25061SOL    HW277016  12.200   2.718   6.641
25062SOL     OW77017   9.014   4.261  14.162
25062SOL    HW177018   9.086   4.198  14.160
25062SOL    HW277019   8.959   4.232  14.235
25063SOL     OW77020  14.330   2.265   4.616
25063SOL    HW177021  14.357   2.183   4.576
25063SOL    HW277022  14.261   2.298   4.559
25064SOL     OW77023  11.836   8.501   8.585
25064SOL    HW177024  11.892   8.503   8.663
25064SOL    HW277025  11.843   8.590   8.549
25065SOL     OW77026   5.320  11.147   8.991
25065SOL    HW177027   5.399  11.144   9.046
25065SOL    HW277028   5.256  11.094   9.039
25066SOL     OW77029  14.556   0.616   6.554
25066SOL    HW177030  14.534   0.635   6.645
25066SOL    HW277031  14.648   0.587   6.557
25067SOL     OW77032   6.801  13.576   8.339
25067SOL    HW177033   6.825  13.661   8.376
25067SOL    HW277034   6.711  13.587   8.310
25068SOL     OW77035   0.103   7.887  12.266
25068SOL    HW177036   0.078   7.839  12.187
25068SOL    HW277037   0.129   7.818  12.328
25069SOL     OW77038   7.653   2.352   7.901
25069SOL    HW177039   7.616   2.433   7.868
25069SOL    HW277040   7.591   2.284   7.875
25070SOL     OW77041   4.543   3.447  13.339
25070SOL    HW177042   4.487   3.474  13.412
25070SOL    HW277043   4.610   3.515  13.333
25071SOL     OW77044   0.595   1.124   5.892
25071SOL    HW177045   0.627   1.210   5.920
25071SOL    HW277046   0.502   1.125   5.914
25072SOL     OW77047   0.918  10.591  12.516
25072SOL    HW177048   0.837  10.546  12.540
25072SOL    HW277049   0.981  10.520  12.500
25073SOL     OW77050   1.187   8.987  11.258
25073SOL    HW177051   1.178   8.921  11.188
25073SOL    HW277052   1.264   8.959  11.307
25074SOL     OW77053  12.709  13.029   0.810
25074SOL    HW177054  12.722  13.085   0.887
25074SOL    HW277055  12.727  12.940   0.842
25075SOL     OW77056   2.580   4.147   5.185
25075SOL    HW177057   2.644   4.190   5.129
25075SOL    HW277058   2.570   4.207   5.260
25076SOL     OW77059   7.484   9.931   0.475
25076SOL    HW177060   7.404   9.934   0.527
25076SOL    HW277061   7.546   9.986   0.523
25077SOL     OW77062   8.116   8.720   7.154
25077SOL    HW177063   8.076   8.760   7.232
25077SOL    HW277064   8.099   8.783   7.084
25078SOL     OW77065   3.816   8.165   5.136
25078SOL    HW177066   3.833   8.087   5.083
25078SOL    HW277067   3.748   8.137   5.198
25079SOL     OW77068   4.934  14.322   9.941
25079SOL    HW177069   4.845  14.356   9.936
25079SOL    HW277070   4.980  14.360   9.866
25080SOL     OW77071   1.198  12.947   5.762
25080SOL    HW177072   1.226  13.026   5.716
25080SOL    HW277073   1.104  12.961   5.776
25081SOL     OW77074   8.238   8.024   0.389
25081SOL    HW177075   8.204   8.042   0.477
25081SOL    HW277076   8.244   7.928   0.385
25082SOL     OW77077  13.934  11.203   3.038
25082SOL    HW177078  13.961  11.115   3.010
25082SOL    HW277079  13.838  11.201   3.035
25083SOL     OW77080  14.658   1.577   3.955
25083SOL    HW177081  14.583   1.613   3.908
25083SOL    HW277082  14.734   1.603   3.903
25084SOL     OW77083   9.177   1.798   9.576
25084SOL    HW177084   9.250   1.819   9.519
25084SOL    HW277085   9.190   1.706   9.599
25085SOL     OW77086   0.961  11.777   3.506
25085SOL    HW177087   0.942  11.819   3.422
25085SOL    HW277088   1.018  11.703   3.483
25086SOL     OW77089   5.090   7.323  13.846
25086SOL    HW177090   5.143   7.261  13.796
25086SOL    HW277091   5.001   7.287  13.843
25087SOL     OW77092  10.193   4.377   5.573
25087SOL    HW177093  10.174   4.358   5.666
25087SOL    HW277094  10.208   4.471   5.571
25088SOL     OW77095   2.139   5.298   9.161
25088SOL    HW177096   2.233   5.285   9.152
25088SOL    HW277097   2.130   5.371   9.222
25089SOL     OW77098   5.288   6.962   8.681
25089SOL    HW177099   5.359   7.015   8.647
25089SOL    HW277100   5.222   6.963   8.612
25090SOL     OW77101   9.756   8.280  13.872
25090SOL    HW177102   9.836   8.328  13.848
25090SOL    HW277103   9.747   8.214  13.804
25091SOL     OW77104   4.247  12.335   7.327
25091SOL    HW177105   4.161  12.327   7.368
25091SOL    HW277106   4.307  12.346   7.400
25092SOL     OW77107   2.701   9.659   0.976
25092SOL    HW177108   2.607   9.650   0.961
25092SOL    HW277109   2.711   9.745   1.017
25093SOL     OW77110  12.766  12.072   1.722
25093SOL    HW177111  12.787  12.004   1.658
25093SOL    HW277112  12.851  12.102   1.754
25094SOL     OW77113   7.963   0.013   1.222
25094SOL    HW177114   7.912   0.094   1.229
25094SOL    HW277115   8.039   0.037   1.169
25095SOL     OW77116   0.227   2.533   7.499
25095SOL    HW177117   0.177   2.572   7.427
25095SOL    HW277118   0.294   2.480   7.455
25096SOL     OW77119   1.119   1.148   1.916
25096SOL    HW177120   1.075   1.222   1.958
25096SOL    HW277121   1.168   1.106   1.987
25097SOL     OW77122   5.814  14.681   0.282
25097SOL    HW177123   5.746  14.747   0.267
25097SOL    HW277124   5.831  14.685   0.376
25098SOL     OW77125  10.510  11.378   2.812
25098SOL    HW177126  10.550  11.342   2.891
25098SOL    HW277127  10.460  11.305   2.775
25099SOL     OW77128   5.057   5.529   0.253
25099SOL    HW177129   4.971   5.526   0.212
25099SOL    HW277130   5.048   5.594   0.323
25100SOL     OW77131   1.958   6.140   9.835
25100SOL    HW177132   2.005   6.059   9.856
25100SOL    HW277133   1.874   6.131   9.879
25101SOL     OW77134   6.917   5.767   5.042
25101SOL    HW177135   6.875   5.808   5.118
25101SOL    HW277136   7.009   5.760   5.068
25102SOL     OW77137   4.056  12.162   7.941
25102SOL    HW177138   3.969  12.158   7.980
25102SOL    HW277139   4.114  12.129   8.009
25103SOL     OW77140  13.552   4.497  11.063
25103SOL    HW177141  13.570   4.530  10.975
25103SOL    HW277142  13.625   4.439  11.082
25104SOL     OW77143  12.317   6.708   5.174
25104SOL    HW177144  12.276   6.744   5.252
25104SOL    HW277145  12.398   6.758   5.164
25105SOL     OW77146   0.237   8.268  14.493
25105SOL    HW177147   0.226   8.256  14.587
25105SOL    HW277148   0.318   8.222  14.472
25106SOL     OW77149   0.756   7.024   6.720
25106SOL    HW177150   0.758   7.025   6.816
25106SOL    HW277151   0.827   7.083   6.694
25107SOL     OW77152   7.437   3.066   9.042
25107SOL    HW177153   7.380   3.064   8.966
25107SOL    HW277154   7.504   3.000   9.024
25108SOL     OW77155  14.758   5.069   0.726
25108SOL    HW177156  14.755   4.978   0.756
25108SOL    HW277157  14.692   5.074   0.657
25109SOL     OW77158   9.089  11.182  12.180
25109SOL    HW177159   9.182  11.204  12.186
25109SOL    HW277160   9.050  11.222  12.257
25110SOL     OW77161   0.974  10.059   4.781
25110SOL    HW177162   0.967  10.040   4.687
25110SOL    HW277163   0.893  10.024   4.818
25111SOL     OW77164   3.633   3.167   9.375
25111SOL    HW177165   3.665   3.223   9.447
25111SOL    HW277166   3.634   3.079   9.412
25112SOL     OW77167   5.923   5.230   1.422
25112SOL    HW177168   5.937   5.257   1.331
25112SOL    HW277169   5.828   5.231   1.433
25113SOL     OW77170   0.891   7.085  14.197
25113SOL    HW177171   0.936   7.089  14.113
25113SOL    HW277172   0.956   7.115  14.260
25114SOL     OW77173   4.858  14.744   9.850
25114SOL    HW177174   4.911  14.818   9.878
25114SOL    HW277175   4.770  14.763   9.884
25115SOL     OW77176  11.252  11.707   1.762
25115SOL    HW177177  11.232  11.759   1.683
25115SOL    HW277178  11.307  11.765   1.815
25116SOL     OW77179   8.755  10.106   8.321
25116SOL    HW177180   8.833  10.101   8.376
25116SOL    HW277181   8.787  10.086   8.233
25117SOL     OW77182  11.613   0.921   8.320
25117SOL    HW177183  11.588   0.998   8.371
25117SOL    HW277184  11.628   0.853   8.385
25118SOL     OW77185   6.288  10.841   8.609
25118SOL    HW177186   6.234  10.916   8.633
25118SOL    HW277187   6.226  10.770   8.595
25119SOL     OW77188   4.447   7.270   3.059
25119SOL    HW177189   4.399   7.192   3.032
25119SOL    HW277190   4.493   7.244   3.139
25120SOL     OW77191  10.898   1.810   3.987
25120SOL    HW177192  10.966   1.748   3.962
25120SOL    HW277193  10.894   1.805   4.083
25121SOL     OW77194  11.424  12.178   1.503
25121SOL    HW177195  11.399  12.252   1.448
25121SOL    HW277196  11.492  12.133   1.453
25122SOL     OW77197   3.924   6.203   1.338
25122SOL    HW177198   4.004   6.256   1.329
25122SOL    HW277199   3.915   6.159   1.253
25123SOL     OW77200   9.726  12.269   2.080
25123SOL    HW177201   9.697  12.354   2.047
25123SOL    HW277202   9.779  12.290   2.157
25124SOL     OW77203   9.954   8.799   2.140
25124SOL    HW177204   9.970   8.893   2.145
25124SOL    HW277205  10.026   8.759   2.189
25125SOL     OW77206  14.784   8.088  13.755
25125SOL    HW177207  14.714   8.153  13.752
25125SOL    HW277208  14.850   8.126  13.813
25126SOL     OW77209  13.463   8.473   6.474
25126SOL    HW177210  13.524   8.402   6.489
25126SOL    HW277211  13.429   8.457   6.385
25127SOL     OW77212   0.211   0.298   5.908
25127SOL    HW177213   0.124   0.337   5.911
25127SOL    HW277214   0.271   0.373   5.900
25128SOL     OW77215   1.668   5.784   2.432
25128SOL    HW177216   1.739   5.781   2.368
25128SOL    HW277217   1.596   5.826   2.386
25129SOL     OW77218  13.246   0.259   5.862
25129SOL    HW177219  13.169   0.201   5.863
25129SOL    HW277220  13.261   0.276   5.769
25130SOL     OW77221   4.953   8.587   4.403
25130SOL    HW177222   4.984   8.678   4.407
25130SOL    HW277223   4.879   8.584   4.464
25131SOL     OW77224   7.146  11.267   5.633
25131SOL    HW177225   7.121  11.194   5.576
25131SOL    HW277226   7.242  11.268   5.629
25132SOL     OW77227   7.246   1.915  11.393
25132SOL    HW177228   7.320   1.967  11.423
25132SOL    HW277229   7.173   1.978  11.390
25133SOL     OW77230   6.706  12.837   8.747
25133SOL    HW177231   6.736  12.769   8.686
25133SOL    HW277232   6.777  12.900   8.750
25134SOL     OW77233  12.212   4.785   9.945
25134SOL    HW177234  12.290   4.755   9.992
25134SOL    HW277235  12.141   4.728   9.977
25135SOL     OW77236   2.613   6.064   9.086
25135SOL    HW177237   2.557   6.017   9.148
25135SOL    HW277238   2.564   6.144   9.066
25136SOL     OW77239   7.016   2.427  14.375
25136SOL    HW177240   6.950   2.453  14.310
25136SOL    HW277241   6.974   2.444  14.459
25137SOL     OW77242  13.198   1.668   0.647
25137SOL    HW177243  13.168   1.746   0.694
25137SOL    HW277244  13.244   1.703   0.570
25138SOL     OW77245  10.249   6.388   7.866
25138SOL    HW177246  10.183   6.442   7.908
25138SOL    HW277247  10.291   6.447   7.803
25139SOL     OW77248   5.486  12.960   3.672
25139SOL    HW177249   5.571  12.992   3.702
25139SOL    HW277250   5.491  12.967   3.577
25140SOL     OW77251   4.790   7.232   3.098
25140SOL    HW177252   4.836   7.311   3.127
25140SOL    HW277253   4.757   7.254   3.011
25141SOL     OW77254   6.201   7.279   0.763
25141SOL    HW177255   6.207   7.184   0.756
25141SOL    HW277256   6.127   7.294   0.822
25142SOL     OW77257   3.046   3.382  13.264
25142SOL    HW177258   3.017   3.459  13.313
25142SOL    HW277259   2.978   3.317  13.279
25143SOL     OW77260   5.905   9.534  12.687
25143SOL    HW177261   5.917   9.627  12.708
25143SOL    HW277262   5.935   9.489  12.766
25144SOL     OW77263  10.155   1.536   3.177
25144SOL    HW177264  10.125   1.625   3.155
25144SOL    HW277265  10.221   1.549   3.244
25145SOL     OW77266   8.633   9.384   0.473
25145SOL    HW177267   8.584   9.418   0.547
25145SOL    HW277268   8.699   9.451   0.455
25146SOL     OW77269   2.735   5.398   7.175
25146SOL    HW177270   2.733   5.375   7.268
25146SOL    HW277271   2.678   5.333   7.133
25147SOL     OW77272   3.662   1.970  12.746
25147SOL    HW177273   3.637   1.938  12.833
25147SOL    HW277274   3.624   1.906  12.685
25148SOL     OW77275   8.734  13.932   3.957
25148SOL    HW177276   8.657  13.878   3.938
25148SOL    HW277277   8.797  13.907   3.890
25149SOL     OW77278  14.393  13.968  13.033
25149SOL    HW177279  14.406  13.911  13.109
25149SOL    HW277280  14.451  13.933  12.966
25150SOL     OW77281   2.567   9.785   8.901
25150SOL    HW177282   2.639   9.775   8.839
25150SOL    HW277283   2.588   9.725   8.973
25151SOL     OW77284  13.880  13.617  10.329
25151SOL    HW177285  13.824  13.683  10.289
25151SOL    HW277286  13.945  13.596  10.263
25152SOL     OW77287   9.165   8.246  13.933
25152SOL    HW177288   9.217   8.318  13.898
25152SOL    HW277289   9.078   8.257  13.894
25153SOL     OW77290   0.811   1.137   2.581
25153SOL    HW177291   0.834   1.120   2.489
25153SOL    HW277292   0.771   1.224   2.580
25154SOL     OW77293  11.765   8.938   4.616
25154SOL    HW177294  11.742   8.927   4.523
25154SOL    HW277295  11.850   8.983   4.614
25155SOL     OW77296  10.971   3.291  10.415
25155SOL    HW177297  10.955   3.224  10.481
25155SOL    HW277298  10.894   3.290  10.359
25156SOL     OW77299   2.392  12.174   5.083
25156SOL    HW177300   2.301  12.203   5.075
25156SOL    HW277301   2.398  12.138   5.172
25157SOL     OW77302  12.159   4.891   4.693
25157SOL    HW177303  12.126   4.943   4.767
25157SOL    HW277304  12.250   4.919   4.683
25158SOL     OW77305   2.908  11.515   0.848
25158SOL    HW177306   2.872  11.600   0.874
25158SOL    HW277307   2.964  11.535   0.773
25159SOL     OW77308  14.048   2.273  10.243
25159SOL    HW177309  14.033   2.257  10.336
25159SOL    HW277310  14.144   2.276  10.234
25160SOL     OW77311   9.591   2.212  11.297
25160SOL    HW177312   9.556   2.295  11.329
25160SOL    HW277313   9.574   2.149  11.367
25161SOL     OW77314   2.123   9.215  13.945
25161SOL    HW177315   2.040   9.210  13.897
25161SOL    HW277316   2.096   9.232  14.036
25162SOL     OW77317   9.983  10.668   2.096
25162SOL    HW177318   9.986  10.587   2.147
25162SOL    HW277319  10.075  10.687   2.076
25163SOL     OW77320   8.766   3.980   3.221
25163SOL    HW177321   8.763   4.015   3.132
25163SOL    HW277322   8.681   3.938   3.234
25164SOL     OW77323  13.737   0.973   6.383
25164SOL    HW177324  13.682   1.039   6.341
25164SOL    HW277325  13.809   0.958   6.321
25165SOL     OW77326   9.111   4.711   5.473
25165SOL    HW177327   9.063   4.732   5.553
25165SOL    HW277328   9.200   4.743   5.489
25166SOL     OW77329   5.110   2.390   2.052
25166SOL    HW177330   5.139   2.481   2.062
25166SOL    HW277331   5.016   2.396   2.035
25167SOL     OW77332   5.250   9.778  14.740
25167SOL    HW177333   5.262   9.746  14.830
25167SOL    HW277334   5.171   9.831  14.744
25168SOL     OW77335  10.947  11.690  13.166
25168SOL    HW177336  10.862  11.728  13.145
25168SOL    HW277337  10.942  11.600  13.136
25169SOL     OW77338   2.799  12.789  12.767
25169SOL    HW177339   2.782  12.695  12.780
25169SOL    HW277340   2.803  12.824  12.856
25170SOL     OW77341   2.479   1.264   2.401
25170SOL    HW177342   2.498   1.284   2.492
25170SOL    HW277343   2.482   1.349   2.356
25171SOL     OW77344   0.484   4.439   7.778
25171SOL    HW177345   0.420   4.481   7.836
25171SOL    HW277346   0.456   4.347   7.775
25172SOL     OW77347   1.497   4.506   2.462
25172SOL    HW177348   1.567   4.571   2.469
25172SOL    HW277349   1.543   4.422   2.465
25173SOL     OW77350  11.160  12.224   3.452
25173SOL    HW177351  11.211  12.300   3.479
25173SOL    HW277352  11.178  12.157   3.518
25174SOL     OW77353  12.826   8.829  11.488
25174SOL    HW177354  12.853   8.781  11.409
25174SOL    HW277355  12.840   8.921  11.467
25175SOL     OW77356  11.562   7.522  12.492
25175SOL    HW177357  11.466   7.520  12.496
25175SOL    HW277358  11.586   7.436  12.460
25176SOL     OW77359   4.627   7.223   7.168
25176SOL    HW177360   4.540   7.187   7.183
25176SOL    HW277361   4.612   7.304   7.118
25177SOL     OW77362   9.805  14.852  11.936
25177SOL    HW177363   9.712  14.853  11.957
25177SOL    HW277364   9.834   0.070  11.951
25178SOL     OW77365  14.745   5.691   3.389
25178SOL    HW177366  14.714   5.674   3.300
25178SOL    HW277367  14.829   5.646   3.394
25179SOL     OW77368   7.852   7.246   2.377
25179SOL    HW177369   7.891   7.167   2.414
25179SOL    HW277370   7.894   7.318   2.424
25180SOL     OW77371   3.535  12.417   9.201
25180SOL    HW177372   3.568  12.470   9.128
25180SOL    HW277373   3.615  12.386   9.245
25181SOL     OW77374   2.851   1.198  14.622
25181SOL    HW177375   2.807   1.270  14.666
25181SOL    HW277376   2.849   1.222  14.529
25182SOL     OW77377  14.124   4.015  13.908
25182SOL    HW177378  14.176   3.941  13.941
25182SOL    HW277379  14.050   4.021  13.969
25183SOL     OW77380  12.789   4.746   4.833
25183SOL    HW177381  12.882   4.747   4.856
25183SOL    HW277382  12.783   4.802   4.756
25184SOL     OW77383  12.463   7.558   0.033
25184SOL    HW177384  12.376   7.560  14.864
25184SOL    HW277385  12.521   7.597  14.840
25185SOL     OW77386  13.852   8.420  10.240
25185SOL    HW177387  13.802   8.347  10.205
25185SOL    HW277388  13.855   8.403  10.335
25186SOL     OW77389  13.537   7.341   3.082
25186SOL    HW177390  13.488   7.404   3.030
25186SOL    HW277391  13.624   7.380   3.091
25187SOL     OW77392   2.592   1.942  12.804
25187SOL    HW177393   2.650   1.973  12.735
25187SOL    HW277394   2.505   1.941  12.764
25188SOL     OW77395   0.799   2.192  14.130
25188SOL    HW177396   0.749   2.129  14.078
25188SOL    HW277397   0.786   2.275  14.085
25189SOL     OW77398  10.550   1.939  14.427
25189SOL    HW177399  10.609   1.993  14.373
25189SOL    HW277400  10.475   1.996  14.445
25190SOL     OW77401   3.892  14.345   2.473
25190SOL    HW177402   3.836  14.423   2.479
25190SOL    HW277403   3.979  14.380   2.455
25191SOL     OW77404  10.480   5.048   7.316
25191SOL    HW177405  10.412   5.085   7.260
25191SOL    HW277406  10.438   5.041   7.402
25192SOL     OW77407   5.632  12.936   5.397
25192SOL    HW177408   5.727  12.950   5.398
25192SOL    HW277409   5.606  12.957   5.308
25193SOL     OW77410   0.316   8.576  12.634
25193SOL    HW177411   0.252   8.527  12.583
25193SOL    HW277412   0.357   8.510  12.691
25194SOL     OW77413  14.723   3.342  13.242
25194SOL    HW177414  14.663   3.416  13.248
25194SOL    HW277415  14.753   3.329  13.332
25195SOL     OW77416   6.052  12.483   3.210
25195SOL    HW177417   6.107  12.430   3.152
25195SOL    HW277418   6.065  12.573   3.180
25196SOL     OW77419   4.192  10.126  12.737
25196SOL    HW177420   4.257  10.082  12.683
25196SOL    HW277421   4.170  10.062  12.805
25197SOL     OW77422   9.087  13.784  14.232
25197SOL    HW177423   9.157  13.806  14.294
25197SOL    HW277424   9.085  13.688  14.232
25198SOL     OW77425   2.615   7.327  11.977
25198SOL    HW177426   2.699   7.372  11.965
25198SOL    HW277427   2.552   7.384  11.933
25199SOL     OW77428   5.643  12.678   5.676
25199SOL    HW177429   5.556  12.642   5.658
25199SOL    HW277430   5.695  12.601   5.700
25200SOL     OW77431   6.572  13.384  12.586
25200SOL    HW177432   6.665  13.385  12.608
25200SOL    HW277433   6.529  13.349  12.664
25201SOL     OW77434  11.122   0.958   6.781
25201SOL    HW177435  11.062   0.888   6.808
25201SOL    HW277436  11.066   1.036   6.773
25202SOL     OW77437   8.820   5.752   2.067
25202SOL    HW177438   8.759   5.708   2.007
25202SOL    HW277439   8.887   5.789   2.010
25203SOL     OW77440   7.032   2.029   9.359
25203SOL    HW177441   7.089   2.106   9.356
25203SOL    HW277442   6.990   2.028   9.273
25204SOL     OW77443  12.836   6.756   0.461
25204SOL    HW177444  12.853   6.774   0.369
25204SOL    HW277445  12.859   6.837   0.506
25205SOL     OW77446   2.679   4.004  10.449
25205SOL    HW177447   2.714   3.930  10.498
25205SOL    HW277448   2.672   3.973  10.359
25206SOL     OW77449   1.930   2.162   3.549
25206SOL    HW177450   2.020   2.182   3.523
25206SOL    HW277451   1.935   2.075   3.589
25207SOL     OW77452   3.315   0.961   2.889
25207SOL    HW177453   3.277   1.043   2.922
25207SOL    HW277454   3.306   0.900   2.962
25208SOL     OW77455   7.968   3.310   2.559
25208SOL    HW177456   7.892   3.286   2.613
25208SOL    HW277457   8.030   3.348   2.621
25209SOL     OW77458   5.207   6.828  13.616
25209SOL    HW177459   5.171   6.769  13.549
25209SOL    HW277460   5.302   6.815  13.610
25210SOL     OW77461   1.620   2.805   4.616
25210SOL    HW177462   1.590   2.862   4.687
25210SOL    HW277463   1.578   2.720   4.635
25211SOL     OW77464  13.403  14.695  10.242
25211SOL    HW177465  13.325  14.749  10.231
25211SOL    HW277466  13.470  14.738  10.189
25212SOL     OW77467   0.372  10.424   5.877
25212SOL    HW177468   0.287  10.382   5.887
25212SOL    HW277469   0.409  10.424   5.966
25213SOL     OW77470  11.237  14.260   8.766
25213SOL    HW177471  11.315  14.226   8.810
25213SOL    HW277472  11.270  14.329   8.708
25214SOL     OW77473   5.456  11.951  11.289
25214SOL    HW177474   5.437  11.887  11.221
25214SOL    HW277475   5.508  11.903  11.353
25215SOL     OW77476   3.675   1.026  11.708
25215SOL    HW177477   3.689   0.948  11.655
25215SOL    HW277478   3.625   0.995  11.784
25216SOL     OW77479  12.403  13.146   8.280
25216SOL    HW177480  12.354  13.096   8.216
25216SOL    HW277481  12.428  13.082   8.347
25217SOL     OW77482   0.257  13.744  10.682
25217SOL    HW177483   0.245  13.710  10.593
25217SOL    HW277484   0.349  13.772  10.685
25218SOL     OW77485   8.673   9.324   1.440
25218SOL    HW177486   8.726   9.377   1.381
25218SOL    HW277487   8.638   9.386   1.503
25219SOL     OW77488   3.567  11.226  14.729
25219SOL    HW177489   3.504  11.164  14.693
25219SOL    HW277490   3.622  11.250  14.655
25220SOL     OW77491   6.918   5.294   1.880
25220SOL    HW177492   6.886   5.234   1.813
25220SOL    HW277493   6.894   5.381   1.848
25221SOL     OW77494   0.976  13.321  14.137
25221SOL    HW177495   0.997  13.256  14.203
25221SOL    HW277496   0.975  13.404  14.184
25222SOL     OW77497   9.415  13.540   4.154
25222SOL    HW177498   9.334  13.502   4.186
25222SOL    HW277499   9.474  13.465   4.142
25223SOL     OW77500   5.078   5.438   7.968
25223SOL    HW177501   5.105   5.347   7.975
25223SOL    HW277502   5.053   5.450   7.877
25224SOL     OW77503   4.376   2.523   2.025
25224SOL    HW177504   4.370   2.598   1.965
25224SOL    HW277505   4.302   2.467   2.001
25225SOL     OW77506   7.293   1.078   5.173
25225SOL    HW177507   7.305   0.984   5.186
25225SOL    HW277508   7.241   1.107   5.249
25226SOL     OW77509   1.169   4.122  11.702
25226SOL    HW177510   1.225   4.140  11.778
25226SOL    HW277511   1.134   4.035  11.718
25227SOL     OW77512  11.187   5.317   0.522
25227SOL    HW177513  11.230   5.396   0.554
25227SOL    HW277514  11.246   5.283   0.454
25228SOL     OW77515   8.225   4.818   4.343
25228SOL    HW177516   8.163   4.821   4.270
25228SOL    HW277517   8.212   4.732   4.383
25229SOL     OW77518  11.249   6.229   7.802
25229SOL    HW177519  11.222   6.321   7.794
25229SOL    HW277520  11.314   6.229   7.871
25230SOL     OW77521   3.077  13.321   2.327
25230SOL    HW177522   3.072  13.389   2.394
25230SOL    HW277523   3.129  13.360   2.257
25231SOL     OW77524   5.898  10.223   2.203
25231SOL    HW177525   5.930  10.314   2.202
25231SOL    HW277526   5.952  10.180   2.268
25232SOL     OW77527   1.455   6.296   1.297
25232SOL    HW177528   1.511   6.360   1.342
25232SOL    HW277529   1.366   6.326   1.313
25233SOL     OW77530  10.884  13.971   8.159
25233SOL    HW177531  10.973  13.939   8.179
25233SOL    HW277532  10.897  14.032   8.086
25234SOL     OW77533   2.903   9.724   6.118
25234SOL    HW177534   2.961   9.650   6.135
25234SOL    HW277535   2.867   9.706   6.031
25235SOL     OW77536   7.584   2.665   0.200
25235SOL    HW177537   7.507   2.704   0.242
25235SOL    HW277538   7.659   2.711   0.239
25236SOL     OW77539  13.511   3.848   1.784
25236SOL    HW177540  13.558   3.914   1.733
25236SOL    HW277541  13.433   3.829   1.733
25237SOL     OW77542  10.570  10.843   9.061
25237SOL    HW177543  10.659  10.861   9.031
25237SOL    HW277544  10.529  10.929   9.067
25238SOL     OW77545   0.410   2.119  12.031
25238SOL    HW177546   0.320   2.137  12.002
25238SOL    HW277547   0.404   2.034  12.074
25239SOL     OW77548   0.698   7.620   6.164
25239SOL    HW177549   0.628   7.609   6.100
25239SOL    HW277550   0.654   7.654   6.242
25240SOL     OW77551   9.765   4.874   5.389
25240SOL    HW177552   9.698   4.815   5.354
25240SOL    HW277553   9.838   4.817   5.412
25241SOL     OW77554   5.155  14.092  12.720
25241SOL    HW177555   5.222  14.025  12.706
25241SOL    HW277556   5.076  14.044  12.742
25242SOL     OW77557  11.056  11.297   9.092
25242SOL    HW177558  11.016  11.381   9.115
25242SOL    HW277559  11.133  11.319   9.041
25243SOL     OW77560   7.562  13.601   1.886
25243SOL    HW177561   7.523  13.637   1.806
25243SOL    HW277562   7.654  13.627   1.880
25244SOL     OW77563  14.246   1.303   7.550
25244SOL    HW177564  14.321   1.261   7.593
25244SOL    HW277565  14.284   1.347   7.474
25245SOL     OW77566  14.401   1.642   0.422
25245SOL    HW177567  14.322   1.626   0.474
25245SOL    HW277568  14.398   1.736   0.403
25246SOL     OW77569  10.755   6.508  12.312
25246SOL    HW177570  10.800   6.442  12.258
25246SOL    HW277571  10.764   6.589  12.263
25247SOL     OW77572   3.460  14.801   2.493
25247SOL    HW177573   3.502  14.779   2.410
25247SOL    HW277574   3.440  14.717   2.533
25248SOL     OW77575   1.065  11.770   5.115
25248SOL    HW177576   1.103  11.686   5.142
25248SOL    HW277577   0.971  11.753   5.110
25249SOL     OW77578  12.606   8.051  13.139
25249SOL    HW177579  12.648   7.968  13.160
25249SOL    HW277580  12.658   8.117  13.186
25250SOL     OW77581   6.014  14.477  14.008
25250SOL    HW177582   6.070  14.509  14.079
25250SOL    HW277583   6.060  14.502  13.928
25251SOL     OW77584   1.591   4.901  10.181
25251SOL    HW177585   1.602   4.955  10.103
25251SOL    HW277586   1.544   4.956  10.243
25252SOL     OW77587   9.856  12.456   4.446
25252SOL    HW177588   9.786  12.507   4.405
25252SOL    HW277589   9.846  12.472   4.540
25253SOL     OW77590  10.583   9.498  10.332
25253SOL    HW177591  10.504   9.526  10.286
25253SOL    HW277592  10.619   9.427  10.279
25254SOL     OW77593   5.026   4.257   7.929
25254SOL    HW177594   5.076   4.270   8.009
25254SOL    HW277595   5.080   4.295   7.860
25255SOL     OW77596   1.386   4.807   9.639
25255SOL    HW177597   1.377   4.889   9.687
25255SOL    HW277598   1.318   4.811   9.571
25256SOL     OW77599   4.468   4.622  11.866
25256SOL    HW177600   4.418   4.703  11.864
25256SOL    HW277601   4.455   4.584  11.779
25257SOL     OW77602   3.133   6.454   4.382
25257SOL    HW177603   3.149   6.367   4.418
25257SOL    HW277604   3.214   6.502   4.396
25258SOL     OW77605   9.217   2.254   0.312
25258SOL    HW177606   9.210   2.349   0.321
25258SOL    HW277607   9.267   2.226   0.388
25259SOL     OW77608   4.564   1.373  10.850
25259SOL    HW177609   4.628   1.441  10.829
25259SOL    HW277610   4.514   1.408  10.924
25260SOL     OW77611   7.415   5.622   2.370
25260SOL    HW177612   7.449   5.695   2.318
25260SOL    HW277613   7.380   5.664   2.449
25261SOL     OW77614   3.050  13.791  13.714
25261SOL    HW177615   2.984  13.822  13.651
25261SOL    HW277616   3.065  13.700  13.689
25262SOL     OW77617  11.345  12.768  13.893
25262SOL    HW177618  11.310  12.765  13.804
25262SOL    HW277619  11.389  12.683  13.904
25263SOL     OW77620  10.368   2.998   2.992
25263SOL    HW177621  10.329   2.943   3.060
25263SOL    HW277622  10.364   3.087   3.027
25264SOL     OW77623   6.356  11.073  14.542
25264SOL    HW177624   6.379  11.007  14.607
25264SOL    HW277625   6.317  11.144  14.593
25265SOL     OW77626  10.807   0.145  14.474
25265SOL    HW177627  10.748   0.207  14.430
25265SOL    HW277628  10.805   0.067  14.419
25266SOL     OW77629   8.952  13.474   3.765
25266SOL    HW177630   8.924  13.436   3.682
25266SOL    HW277631   9.029  13.527   3.743
25267SOL     OW77632   4.967   1.333   1.221
25267SOL    HW177633   4.900   1.325   1.288
25267SOL    HW277634   4.932   1.396   1.159
25268SOL     OW77635   7.292  13.316   3.761
25268SOL    HW177636   7.340  13.395   3.787
25268SOL    HW277637   7.295  13.260   3.839
25269SOL     OW77638   0.978   4.049   4.881
25269SOL    HW177639   1.038   4.097   4.938
25269SOL    HW277640   0.907   4.022   4.939
25270SOL     OW77641   5.659   8.942  10.688
25270SOL    HW177642   5.611   8.932  10.606
25270SOL    HW277643   5.644   8.859  10.735
25271SOL     OW77644   3.404  13.448  12.228
25271SOL    HW177645   3.361  13.517  12.176
25271SOL    HW277646   3.481  13.491  12.265
25272SOL     OW77647   5.144   9.006  12.163
25272SOL    HW177648   5.136   9.097  12.190
25272SOL    HW277649   5.117   9.006  12.071
25273SOL     OW77650   3.330  11.936   8.497
25273SOL    HW177651   3.268  11.962   8.429
25273SOL    HW277652   3.415  11.938   8.453
25274SOL     OW77653  13.894   0.912  12.989
25274SOL    HW177654  13.982   0.944  12.970
25274SOL    HW277655  13.886   0.832  12.938
25275SOL     OW77656   6.761   6.072   7.290
25275SOL    HW177657   6.843   6.106   7.326
25275SOL    HW277658   6.738   5.999   7.347
25276SOL     OW77659  12.518   6.873   7.546
25276SOL    HW177660  12.431   6.836   7.559
25276SOL    HW277661  12.567   6.844   7.623
25277SOL     OW77662   1.312  11.975   7.872
25277SOL    HW177663   1.267  11.896   7.903
25277SOL    HW277664   1.382  11.942   7.816
25278SOL     OW77665   6.067  13.988   8.264
25278SOL    HW177666   6.029  14.053   8.205
25278SOL    HW277667   6.012  13.910   8.253
25279SOL     OW77668   8.808   6.919   2.122
25279SOL    HW177669   8.828   6.937   2.214
25279SOL    HW277670   8.806   6.824   2.115
25280SOL     OW77671  14.496  12.460  13.919
25280SOL    HW177672  14.575  12.515  13.917
25280SOL    HW277673  14.452  12.478  13.836
25281SOL     OW77674   5.784   1.115  12.538
25281SOL    HW177675   5.856   1.069  12.580
25281SOL    HW277676   5.726   1.045  12.507
25282SOL     OW77677   2.248  14.281   3.547
25282SOL    HW177678   2.229  14.364   3.591
25282SOL    HW277679   2.338  14.261   3.571
25283SOL     OW77680  14.231   2.755   3.326
25283SOL    HW177681  14.190   2.686   3.274
25283SOL    HW277682  14.159   2.791   3.379
25284SOL     OW77683   3.142   0.304  12.009
25284SOL    HW177684   3.123   0.396  12.027
25284SOL    HW277685   3.188   0.304  11.925
25285SOL     OW77686  14.515  13.865   1.667
25285SOL    HW177687  14.491  13.773   1.673
25285SOL    HW277688  14.470  13.897   1.588
25286SOL     OW77689   1.675  11.307  12.640
25286SOL    HW177690   1.583  11.331  12.651
25286SOL    HW277691   1.699  11.266  12.723
25287SOL     OW77692  13.727   8.602   3.063
25287SOL    HW177693  13.806   8.655   3.059
25287SOL    HW277694  13.672   8.645   3.129
25288SOL     OW77695   4.363   9.952  11.247
25288SOL    HW177696   4.308   9.945  11.325
25288SOL    HW277697   4.369  10.047  11.231
25289SOL     OW77698   6.544   8.114  11.055
25289SOL    HW177699   6.609   8.084  11.118
25289SOL    HW277700   6.464   8.066  11.077
25290SOL     OW77701   2.945  10.599   3.351
25290SOL    HW177702   2.860  10.612   3.393
25290SOL    HW277703   3.001  10.567   3.421
25291SOL     OW77704   7.813  14.393  11.466
25291SOL    HW177705   7.870  14.436  11.530
25291SOL    HW277706   7.724  14.408  11.499
25292SOL     OW77707   1.264  12.323  13.148
25292SOL    HW177708   1.279  12.268  13.072
25292SOL    HW277709   1.345  12.318  13.198
25293SOL     OW77710   8.945   7.957   6.683
25293SOL    HW177711   8.954   7.959   6.588
25293SOL    HW277712   9.032   7.934   6.715
25294SOL     OW77713   6.478   2.944   2.805
25294SOL    HW177714   6.524   2.978   2.882
25294SOL    HW277715   6.526   2.865   2.781
25295SOL     OW77716   2.565  11.904   0.550
25295SOL    HW177717   2.500  11.944   0.608
25295SOL    HW277718   2.637  11.967   0.547
25296SOL     OW77719   0.195  14.795  10.713
25296SOL    HW177720   0.285  14.792  10.681
25296SOL    HW277721   0.150  14.857  10.656
25297SOL     OW77722   5.151   8.769  14.509
25297SOL    HW177723   5.224   8.710  14.525
25297SOL    HW277724   5.122   8.748  14.420
25298SOL     OW77725   8.629   9.723  12.555
25298SOL    HW177726   8.721   9.750  12.553
25298SOL    HW277727   8.586   9.779  12.491
25299SOL     OW77728  11.343  14.281   1.049
25299SOL    HW177729  11.297  14.311   0.971
25299SOL    HW277730  11.276  14.279   1.117
25300SOL     OW77731  13.117  12.367  14.411
25300SOL    HW177732  13.177  12.311  14.461
25300SOL    HW277733  13.069  12.306  14.355
25301SOL     OW77734   8.826   2.618   3.157
25301SOL    HW177735   8.844   2.678   3.229
25301SOL    HW277736   8.877   2.652   3.083
25302SOL     OW77737   9.990   6.815   4.443
25302SOL    HW177738  10.084   6.807   4.459
25302SOL    HW277739   9.965   6.731   4.404
25303SOL     OW77740   3.800  12.325   8.910
25303SOL    HW177741   3.872  12.385   8.891
25303SOL    HW277742   3.729  12.381   8.941
25304SOL     OW77743   0.335   3.244   1.768
25304SOL    HW177744   0.280   3.167   1.786
25304SOL    HW277745   0.347   3.243   1.673
25305SOL     OW77746  12.274  13.118   9.653
25305SOL    HW177747  12.214  13.049   9.680
25305SOL    HW277748  12.355  13.072   9.631
25306SOL     OW77749  12.791   5.380  13.204
25306SOL    HW177750  12.723   5.404  13.141
25306SOL    HW277751  12.869   5.428  13.174
25307SOL     OW77752   8.854   4.116  14.636
25307SOL    HW177753   8.812   4.110  14.551
25307SOL    HW277754   8.929   4.174  14.622
25308SOL     OW77755   0.901   9.525  11.898
25308SOL    HW177756   0.868   9.612  11.917
25308SOL    HW277757   0.953   9.501  11.975
25309SOL     OW77758   0.795  13.675   0.188
25309SOL    HW177759   0.779  13.681   0.094
25309SOL    HW277760   0.821  13.763   0.214
25310SOL     OW77761   1.985   6.325   3.459
25310SOL    HW177762   2.047   6.254   3.441
25310SOL    HW277763   2.012   6.359   3.545
25311SOL     OW77764   7.303  11.818  14.562
25311SOL    HW177765   7.282  11.729  14.535
25311SOL    HW277766   7.398  11.817  14.576
25312SOL     OW77767   3.093   0.651  14.149
25312SOL    HW177768   3.022   0.715  14.149
25312SOL    HW277769   3.113   0.637  14.242
25313SOL     OW77770   6.097  10.087   9.967
25313SOL    HW177771   6.153  10.154   9.927
25313SOL    HW277772   6.014  10.093   9.919
25314SOL     OW77773  11.404   7.151   4.263
25314SOL    HW177774  11.343   7.167   4.191
25314SOL    HW277775  11.470   7.220   4.254
25315SOL     OW77776   0.806   5.890   5.499
25315SOL    HW177777   0.816   5.967   5.555
25315SOL    HW277778   0.795   5.925   5.411
25316SOL     OW77779  12.150   5.484  13.785
25316SOL    HW177780  12.186   5.429  13.855
25316SOL    HW277781  12.073   5.525  13.824
25317SOL     OW77782  13.586   0.499   2.705
25317SOL    HW177783  13.606   0.574   2.649
25317SOL    HW277784  13.627   0.522   2.789
25318SOL     OW77785  14.359   8.305   5.112
25318SOL    HW177786  14.378   8.375   5.174
25318SOL    HW277787  14.407   8.229   5.145
25319SOL     OW77788   9.990   4.108   0.401
25319SOL    HW177789  10.055   4.051   0.442
25319SOL    HW277790   9.931   4.132   0.472
25320SOL     OW77791  14.517   5.157   1.281
25320SOL    HW177792  14.610   5.154   1.257
25320SOL    HW277793  14.500   5.073   1.323
25321SOL     OW77794   9.952  12.006   0.545
25321SOL    HW177795   9.927  12.095   0.521
25321SOL    HW277796  10.012  12.016   0.619
25322SOL     OW77797  10.264   5.578  11.031
25322SOL    HW177798  10.277   5.559  10.938
25322SOL    HW277799  10.346   5.618  11.059
25323SOL     OW77800   7.951  11.768   8.058
25323SOL    HW177801   7.971  11.681   8.094
25323SOL    HW277802   7.862  11.786   8.089
25324SOL     OW77803   7.869   8.105   7.330
25324SOL    HW177804   7.960   8.080   7.314
25324SOL    HW277805   7.836   8.039   7.391
25325SOL     OW77806  10.903   0.726   6.040
25325SOL    HW177807  10.816   0.687   6.041
25325SOL    HW277808  10.964   0.652   6.045
25326SOL     OW77809  14.020   3.025   5.409
25326SOL    HW177810  14.035   3.113   5.375
25326SOL    HW277811  14.106   2.995   5.439
25327SOL     OW77812   7.013   7.011   6.641
25327SOL    HW177813   7.042   6.921   6.652
25327SOL    HW277814   6.943   7.006   6.576
25328SOL     OW77815   1.656  13.350  10.145
25328SOL    HW177816   1.702  13.267  10.131
25328SOL    HW277817   1.584  13.329  10.204
25329SOL     OW77818  10.514   9.627  12.096
25329SOL    HW177819  10.489   9.676  12.018
25329SOL    HW277820  10.558   9.549  12.062
25330SOL     OW77821  10.352  11.019  13.532
25330SOL    HW177822  10.297  11.018  13.611
25330SOL    HW277823  10.290  11.004  13.460
25331SOL     OW77824   7.839   3.022  10.162
25331SOL    HW177825   7.903   3.090  10.182
25331SOL    HW277826   7.840   2.964  10.237
25332SOL     OW77827   7.618  11.895   8.420
25332SOL    HW177828   7.523  11.889   8.425
25332SOL    HW277829   7.649  11.865   8.506
25333SOL     OW77830   9.683  10.640  11.242
25333SOL    HW177831   9.738  10.716  11.260
25333SOL    HW277832   9.597  10.664  11.275
25334SOL     OW77833   0.424  10.773   2.709
25334SOL    HW177834   0.489  10.703   2.715
25334SOL    HW277835   0.448  10.820   2.629
25335SOL     OW77836   8.615  11.339  14.140
25335SOL    HW177837   8.539  11.394  14.121
25335SOL    HW277838   8.615  11.272  14.072
25336SOL     OW77839  11.015   6.319   5.345
25336SOL    HW177840  11.033   6.412   5.362
25336SOL    HW277841  10.933   6.319   5.296
25337SOL     OW77842  12.181  12.645   8.650
25337SOL    HW177843  12.248  12.599   8.701
25337SOL    HW277844  12.184  12.603   8.564
25338SOL     OW77845   3.897   6.817   0.892
25338SOL    HW177846   3.992   6.832   0.890
25338SOL    HW277847   3.861   6.883   0.833
25339SOL     OW77848   9.225  11.408  11.864
25339SOL    HW177849   9.249  11.447  11.949
25339SOL    HW277850   9.250  11.316  11.872
25340SOL     OW77851   4.317  14.268   3.162
25340SOL    HW177852   4.357  14.190   3.124
25340SOL    HW277853   4.354  14.341   3.113
25341SOL     OW77854   9.504  14.160   7.791
25341SOL    HW177855   9.546  14.234   7.835
25341SOL    HW277856   9.476  14.194   7.707
25342SOL     OW77857  14.494   4.878  12.044
25342SOL    HW177858  14.514   4.928  12.123
25342SOL    HW277859  14.416   4.920  12.008
25343SOL     OW77860   5.747  14.588  14.134
25343SOL    HW177861   5.837  14.574  14.104
25343SOL    HW277862   5.719  14.502  14.165
25344SOL     OW77863   1.015  11.771   9.929
25344SOL    HW177864   1.007  11.773  10.024
25344SOL    HW277865   0.990  11.682   9.904
25345SOL     OW77866  13.773   8.847   6.189
25345SOL    HW177867  13.860   8.831   6.225
25345SOL    HW277868  13.788   8.903   6.112
25346SOL     OW77869  10.800  10.347  14.437
25346SOL    HW177870  10.724  10.389  14.478
25346SOL    HW277871  10.856  10.322  14.510
25347SOL     OW77872   1.740   2.401   0.914
25347SOL    HW177873   1.645   2.390   0.905
25347SOL    HW277874   1.751   2.491   0.945
25348SOL     OW77875  11.061   9.703   5.800
25348SOL    HW177876  10.976   9.708   5.757
25348SOL    HW277877  11.048   9.745   5.884
25349SOL     OW77878   4.448  11.381  14.410
25349SOL    HW177879   4.543  11.375  14.403
25349SOL    HW277880   4.420  11.294  14.439
25350SOL     OW77881   4.991   9.238   2.485
25350SOL    HW177882   5.034   9.153   2.476
25350SOL    HW277883   5.059   9.295   2.521
25351SOL     OW77884  14.114   6.252   9.301
25351SOL    HW177885  14.042   6.262   9.363
25351SOL    HW277886  14.080   6.194   9.233
25352SOL     OW77887   4.336   9.104   5.238
25352SOL    HW177888   4.307   9.072   5.153
25352SOL    HW277889   4.427   9.076   5.245
25353SOL     OW77890   6.297   6.382  10.305
25353SOL    HW177891   6.341   6.334  10.235
25353SOL    HW277892   6.343   6.466  10.309
25354SOL     OW77893  12.978  13.060   1.025
25354SOL    HW177894  13.060  13.106   1.042
25354SOL    HW277895  12.997  13.006   0.948
25355SOL     OW77896   4.230  11.586   2.050
25355SOL    HW177897   4.160  11.606   2.113
25355SOL    HW277898   4.223  11.655   1.984
25356SOL     OW77899   0.429   8.537   1.948
25356SOL    HW177900   0.472   8.567   2.029
25356SOL    HW277901   0.404   8.447   1.967
25357SOL     OW77902   6.139  11.193  12.470
25357SOL    HW177903   6.077  11.258  12.438
25357SOL    HW277904   6.158  11.221  12.560
25358SOL     OW77905  11.224   7.146   3.121
25358SOL    HW177906  11.250   7.158   3.029
25358SOL    HW277907  11.306   7.124   3.166
25359SOL     OW77908   7.197   5.017  10.570
25359SOL    HW177909   7.273   4.972  10.606
25359SOL    HW277910   7.177   5.086  10.633
25360SOL     OW77911   1.580   2.952  11.072
25360SOL    HW177912   1.654   2.939  11.130
25360SOL    HW277913   1.507   2.974  11.130
25361SOL     OW77914  10.756   9.800  13.856
25361SOL    HW177915  10.806   9.727  13.819
25361SOL    HW277916  10.794   9.878  13.816
25362SOL     OW77917   8.149  13.047   6.059
25362SOL    HW177918   8.086  12.980   6.087
25362SOL    HW277919   8.095  13.121   6.032
25363SOL     OW77920   9.094   8.809   2.325
25363SOL    HW177921   9.118   8.814   2.233
25363SOL    HW277922   9.143   8.733   2.358
25364SOL     OW77923   2.407   9.601  14.436
25364SOL    HW177924   2.502   9.605  14.450
25364SOL    HW277925   2.374   9.550  14.510
25365SOL     OW77926   6.427   7.617   3.940
25365SOL    HW177927   6.374   7.668   3.879
25365SOL    HW277928   6.373   7.609   4.018
25366SOL     OW77929   0.510  14.212   8.432
25366SOL    HW177930   0.537  14.216   8.524
25366SOL    HW277931   0.577  14.261   8.385
25367SOL     OW77932  10.601  13.847   0.944
25367SOL    HW177933  10.621  13.779   1.009
25367SOL    HW277934  10.662  13.829   0.872
25368SOL     OW77935   8.555  12.293   9.483
25368SOL    HW177936   8.523  12.252   9.563
25368SOL    HW277937   8.592  12.221   9.432
25369SOL     OW77938  12.886   0.153   8.705
25369SOL    HW177939  12.874   0.238   8.663
25369SOL    HW277940  12.967   0.119   8.667
25370SOL     OW77941  11.976   4.014   1.708
25370SOL    HW177942  11.956   3.974   1.623
25370SOL    HW277943  12.048   3.961   1.744
25371SOL     OW77944   5.086  13.957   8.861
25371SOL    HW177945   5.133  13.874   8.872
25371SOL    HW277946   4.994  13.934   8.875
25372SOL     OW77947   3.759   0.467   0.861
25372SOL    HW177948   3.854   0.475   0.861
25372SOL    HW277949   3.741   0.388   0.911
25373SOL     OW77950   1.112   7.631   9.296
25373SOL    HW177951   1.136   7.723   9.302
25373SOL    HW277952   1.135   7.594   9.381
25374SOL     OW77953   3.505   4.695  12.017
25374SOL    HW177954   3.597   4.670  12.024
25374SOL    HW277955   3.492   4.710  11.923
25375SOL     OW77956   4.559  13.758   2.972
25375SOL    HW177957   4.529  13.756   2.881
25375SOL    HW277958   4.502  13.696   3.017
25376SOL     OW77959  11.116   2.799   8.779
25376SOL    HW177960  11.031   2.802   8.735
25376SOL    HW277961  11.179   2.778   8.710
25377SOL     OW77962  10.546   2.221   0.604
25377SOL    HW177963  10.540   2.154   0.672
25377SOL    HW277964  10.461   2.218   0.560
25378SOL     OW77965  10.312   4.827   6.669
25378SOL    HW177966  10.376   4.875   6.722
25378SOL    HW277967  10.346   4.832   6.580
25379SOL     OW77968   0.866   4.642  12.653
25379SOL    HW177969   0.839   4.729  12.624
25379SOL    HW277970   0.823   4.630  12.737
25380SOL     OW77971  14.705   5.537   2.781
25380SOL    HW177972  14.613   5.518   2.766
25380SOL    HW277973  14.721   5.619   2.734
25381SOL     OW77974   0.604   6.574   9.054
25381SOL    HW177975   0.675   6.512   9.036
25381SOL    HW277976   0.589   6.568   9.148
25382SOL     OW77977   8.254   7.720   0.367
25382SOL    HW177978   8.186   7.658   0.341
25382SOL    HW277979   8.261   7.708   0.462
25383SOL     OW77980   7.329   1.525   0.220
25383SOL    HW177981   7.293   1.437   0.224
25383SOL    HW277982   7.256   1.582   0.245
25384SOL     OW77983   7.178  12.876  13.422
25384SOL    HW177984   7.202  12.967  13.440
25384SOL    HW277985   7.083  12.880  13.407
25385SOL     OW77986   9.341  12.625  11.364
25385SOL    HW177987   9.360  12.651  11.455
25385SOL    HW277988   9.425  12.634  11.319
25386SOL     OW77989  13.417   9.829   6.868
25386SOL    HW177990  13.423   9.882   6.947
25386SOL    HW277991  13.328   9.843   6.836
25387SOL     OW77992  12.189  14.647  13.620
25387SOL    HW177993  12.147  14.733  13.628
25387SOL    HW277994  12.120  14.584  13.641
25388SOL     OW77995  11.832  13.363   2.379
25388SOL    HW177996  11.925  13.381   2.366
25388SOL    HW277997  11.829  13.270   2.403
25389SOL     OW77998   8.543   6.468   9.856
25389SOL    HW177999   8.616   6.491   9.914
25389SOL    HW278000   8.546   6.372   9.853
25390SOL     OW78001   0.639   6.849  11.608
25390SOL    HW178002   0.712   6.812  11.658
25390SOL    HW278003   0.567   6.788  11.622
25391SOL     OW78004   3.365   0.980  13.189
25391SOL    HW178005   3.295   0.998  13.127
25391SOL    HW278006   3.406   0.900  13.156
25392SOL     OW78007  10.487  12.272   3.502
25392SOL    HW178008  10.491  12.356   3.456
25392SOL    HW278009  10.412  12.227   3.464
25393SOL     OW78010   9.342   4.959   1.967
25393SOL    HW178011   9.331   4.992   2.057
25393SOL    HW278012   9.428   4.992   1.940
25394SOL     OW78013  12.005  12.285  14.239
25394SOL    HW178014  12.043  12.302  14.153
25394SOL    HW278015  12.070  12.317  14.301
25395SOL     OW78016  13.899   1.376  13.720
25395SOL    HW178017  13.808   1.405  13.711
25395SOL    HW278018  13.922   1.397  13.810
25396SOL     OW78019   2.158  12.293   0.210
25396SOL    HW178020   2.212  12.334   0.278
25396SOL    HW278021   2.151  12.359   0.141
25397SOL     OW78022   2.315   8.939   1.100
25397SOL    HW178023   2.232   8.946   1.053
25397SOL    HW278024   2.372   8.891   1.039
25398SOL     OW78025  14.532  10.676  14.726
25398SOL    HW178026  14.455  10.619  14.720
25398SOL    HW278027  14.607  10.616  14.721
25399SOL     OW78028   8.483   6.705   5.363
25399SOL    HW178029   8.484   6.612   5.385
25399SOL    HW278030   8.393   6.733   5.384
25400SOL     OW78031   0.479   4.913   6.620
25400SOL    HW178032   0.485   5.008   6.633
25400SOL    HW278033   0.439   4.880   6.701
25401SOL     OW78034  10.498   3.969   9.283
25401SOL    HW178035  10.585   3.995   9.312
25401SOL    HW278036  10.491   3.876   9.306
25402SOL     OW78037  11.210   8.196   7.833
25402SOL    HW178038  11.138   8.257   7.849
25402SOL    HW278039  11.289   8.249   7.846
25403SOL     OW78040  14.019  13.326   3.144
25403SOL    HW178041  14.004  13.234   3.126
25403SOL    HW278042  14.083  13.327   3.215
25404SOL     OW78043  13.118   0.587   6.102
25404SOL    HW178044  13.108   0.608   6.009
25404SOL    HW278045  13.182   0.516   6.103
25405SOL     OW78046  14.726   3.154   9.622
25405SOL    HW178047  14.758   3.244   9.617
25405SOL    HW278048  14.668   3.153   9.698
25406SOL     OW78049   7.693   8.453  14.649
25406SOL    HW178050   7.670   8.529  14.702
25406SOL    HW278051   7.658   8.472  14.562
25407SOL     OW78052  12.177   4.771   0.361
25407SOL    HW178053  12.202   4.863   0.365
25407SOL    HW278054  12.103   4.763   0.421
25408SOL     OW78055   5.623   6.320   5.746
25408SOL    HW178056   5.537   6.359   5.762
25408SOL    HW278057   5.626   6.243   5.802
25409SOL     OW78058  14.823   5.817   7.953
25409SOL    HW178059  14.855   5.857   7.872
25409SOL    HW278060  14.822   5.889   8.017
25410SOL     OW78061  10.526   4.751   0.457
25410SOL    HW178062  10.537   4.827   0.515
25410SOL    HW278063  10.431   4.747   0.442
25411SOL     OW78064   2.250   6.270  10.193
25411SOL    HW178065   2.255   6.178  10.169
25411SOL    HW278066   2.159   6.284  10.217
25412SOL     OW78067   6.772   2.926  13.402
25412SOL    HW178068   6.736   2.918  13.491
25412SOL    HW278069   6.866   2.937  13.415
25413SOL     OW78070   6.204   8.237   7.513
25413SOL    HW178071   6.254   8.187   7.448
25413SOL    HW278072   6.167   8.171   7.571
25414SOL     OW78073   4.424  11.687   8.331
25414SOL    HW178074   4.502  11.710   8.381
25414SOL    HW278075   4.448  11.705   8.240
25415SOL     OW78076   3.263   1.221   9.895
25415SOL    HW178077   3.352   1.212   9.860
25415SOL    HW278078   3.206   1.204   9.820
25416SOL     OW78079  10.576   3.703   5.049
25416SOL    HW178080  10.517   3.768   5.085
25416SOL    HW278081  10.657   3.713   5.100
25417SOL     OW78082   8.191   7.779   6.786
25417SOL    HW178083   8.221   7.791   6.696
25417SOL    HW278084   8.221   7.857   6.832
25418SOL     OW78085  11.854   4.843   9.399
25418SOL    HW178086  11.915   4.836   9.473
25418SOL    HW278087  11.784   4.900   9.430
25419SOL     OW78088   8.546  13.860   9.402
25419SOL    HW178089   8.594  13.827   9.477
25419SOL    HW278090   8.462  13.889   9.437
25420SOL     OW78091   1.668  11.208   9.704
25420SOL    HW178092   1.666  11.115   9.727
25420SOL    HW278093   1.669  11.208   9.608
25421SOL     OW78094   9.477   0.965   6.369
25421SOL    HW178095   9.433   0.880   6.364
25421SOL    HW278096   9.458   0.996   6.458
25422SOL     OW78097   0.011   3.145  11.325
25422SOL    HW178098   0.085   3.089  11.349
25422SOL    HW278099   0.006   3.139  11.230
25423SOL     OW78100  11.871   8.161   2.413
25423SOL    HW178101  11.885   8.205   2.497
25423SOL    HW278102  11.934   8.088   2.413
25424SOL     OW78103   5.289   9.042   7.800
25424SOL    HW178104   5.338   9.053   7.719
25424SOL    HW278105   5.335   9.097   7.864
25425SOL     OW78106  12.829   7.713   6.693
25425SOL    HW178107  12.741   7.699   6.728
25425SOL    HW278108  12.846   7.806   6.706
25426SOL     OW78109   9.611  12.463  13.441
25426SOL    HW178110   9.608  12.387  13.499
25426SOL    HW278111   9.666  12.526  13.488
25427SOL     OW78112   9.080   6.211   2.806
25427SOL    HW178113   9.032   6.283   2.765
25427SOL    HW278114   9.103   6.153   2.733
25428SOL     OW78115  12.678   1.210  10.983
25428SOL    HW178116  12.605   1.161  11.020
25428SOL    HW278117  12.741   1.143  10.956
25429SOL     OW78118   1.665  10.620  13.787
25429SOL    HW178119   1.675  10.525  13.780
25429SOL    HW278120   1.731  10.655  13.728
25430SOL     OW78121  12.064  12.131   6.131
25430SOL    HW178122  12.010  12.140   6.052
25430SOL    HW278123  12.021  12.064   6.183
25431SOL     OW78124   6.336  11.323   8.261
25431SOL    HW178125   6.293  11.394   8.309
25431SOL    HW278126   6.423  11.357   8.241
25432SOL     OW78127   2.161  10.438  12.059
25432SOL    HW178128   2.253  10.457  12.079
25432SOL    HW278129   2.121  10.524  12.048
25433SOL     OW78130  13.133   7.940   9.384
25433SOL    HW178131  13.222   7.929   9.417
25433SOL    HW278132  13.131   7.886   9.305
25434SOL     OW78133   4.574  14.005   9.438
25434SOL    HW178134   4.654  14.056   9.424
25434SOL    HW278135   4.503  14.068   9.428
25435SOL     OW78136   3.961   7.954   8.417
25435SOL    HW178137   3.961   8.040   8.376
25435SOL    HW278138   3.873   7.919   8.401
25436SOL     OW78139   9.322   9.521   7.072
25436SOL    HW178140   9.363   9.485   6.994
25436SOL    HW278141   9.358   9.468   7.144
25437SOL     OW78142   1.866  13.481  10.289
25437SOL    HW178143   1.839  13.539  10.361
25437SOL    HW278144   1.785  13.463  10.241
25438SOL     OW78145  14.108   0.384   9.135
25438SOL    HW178146  14.109   0.416   9.045
25438SOL    HW278147  14.135   0.292   9.128
25439SOL     OW78148  11.331   7.935   7.535
25439SOL    HW178149  11.393   7.861   7.538
25439SOL    HW278150  11.278   7.925   7.614
25440SOL     OW78151   4.675  11.100  12.201
25440SOL    HW178152   4.708  11.040  12.268
25440SOL    HW278153   4.589  11.065  12.178
25441SOL     OW78154  12.873   2.054  13.923
25441SOL    HW178155  12.793   2.091  13.886
25441SOL    HW278156  12.938   2.123  13.913
25442SOL     OW78157   3.904   1.359   4.922
25442SOL    HW178158   3.972   1.324   4.979
25442SOL    HW278159   3.862   1.282   4.884
25443SOL     OW78160   0.956   7.506   9.553
25443SOL    HW178161   0.916   7.574   9.499
25443SOL    HW278162   0.973   7.549   9.637
25444SOL     OW78163   3.634   3.933   6.737
25444SOL    HW178164   3.610   3.844   6.764
25444SOL    HW278165   3.580   3.990   6.791
25445SOL     OW78166   4.652  14.598  14.655
25445SOL    HW178167   4.705  14.611  14.577
25445SOL    HW278168   4.565  14.629  14.631
25446SOL     OW78169   4.844   5.544   2.925
25446SOL    HW178170   4.874   5.619   2.874
25446SOL    HW278171   4.778   5.579   2.985
25447SOL     OW78172   9.578  12.062   1.754
25447SOL    HW178173   9.607  11.971   1.756
25447SOL    HW278174   9.577  12.090   1.846
25448SOL     OW78175  12.453   9.607   5.711
25448SOL    HW178176  12.495   9.648   5.787
25448SOL    HW278177  12.465   9.513   5.725
25449SOL     OW78178   1.549   3.861  14.301
25449SOL    HW178179   1.588   3.925  14.242
25449SOL    HW278180   1.460   3.849  14.268
25450SOL     OW78181  11.608   4.989   9.820
25450SOL    HW178182  11.656   4.910   9.795
25450SOL    HW278183  11.615   4.992   9.916
25451SOL     OW78184   9.992  10.899   9.817
25451SOL    HW178185   9.901  10.918   9.840
25451SOL    HW278186   9.988  10.821   9.763
25452SOL     OW78187  12.753   6.525   5.827
25452SOL    HW178188  12.825   6.581   5.799
25452SOL    HW278189  12.698   6.582   5.881
25453SOL     OW78190   7.785   6.527   2.270
25453SOL    HW178191   7.861   6.488   2.226
25453SOL    HW278192   7.801   6.512   2.363
25454SOL     OW78193  10.429   5.112   0.280
25454SOL    HW178194  10.516   5.148   0.296
25454SOL    HW278195  10.445   5.028   0.238
25455SOL     OW78196   5.941  11.043  13.615
25455SOL    HW178197   5.856  11.029  13.657
25455SOL    HW278198   5.956  11.138  13.621
25456SOL     OW78199   2.507  14.633   3.677
25456SOL    HW178200   2.478  14.592   3.759
25456SOL    HW278201   2.435  14.691   3.652
25457SOL     OW78202   8.478  10.203  13.431
25457SOL    HW178203   8.484  10.294  13.403
25457SOL    HW278204   8.566  10.168  13.421
25458SOL     OW78205   9.187   2.803   2.607
25458SOL    HW178206   9.153   2.744   2.540
25458SOL    HW278207   9.130   2.880   2.603
25459SOL     OW78208   2.056   6.236   0.781
25459SOL    HW178209   2.087   6.148   0.760
25459SOL    HW278210   1.990   6.256   0.714
25460SOL     OW78211   1.450   6.404   7.807
25460SOL    HW178212   1.484   6.485   7.845
25460SOL    HW278213   1.442   6.344   7.881
25461SOL     OW78214   2.074   4.374   2.709
25461SOL    HW178215   2.138   4.434   2.746
25461SOL    HW278216   2.016   4.429   2.657
25462SOL     OW78217   9.924  13.926   0.370
25462SOL    HW178218   9.865  13.862   0.409
25462SOL    HW278219   9.908  14.007   0.419
25463SOL     OW78220  11.890  10.393  11.003
25463SOL    HW178221  11.953  10.422  10.937
25463SOL    HW278222  11.890  10.298  10.996
25464SOL     OW78223   3.211   6.552   5.638
25464SOL    HW178224   3.176   6.523   5.553
25464SOL    HW278225   3.205   6.648   5.635
25465SOL     OW78226   9.274  11.280  12.943
25465SOL    HW178227   9.328  11.317  12.873
25465SOL    HW278228   9.269  11.349  13.009
25466SOL     OW78229   5.553  11.184  11.177
25466SOL    HW178230   5.515  11.247  11.239
25466SOL    HW278231   5.608  11.128  11.232
25467SOL     OW78232   5.502  12.879  14.186
25467SOL    HW178233   5.559  12.837  14.250
25467SOL    HW278234   5.484  12.810  14.122
25468SOL     OW78235   5.783   4.388   2.805
25468SOL    HW178236   5.731   4.390   2.724
25468SOL    HW278237   5.824   4.302   2.806
25469SOL     OW78238   8.684   9.397  14.834
25469SOL    HW178239   8.603   9.369  14.791
25469SOL    HW278240   8.701   9.328   0.027
25470SOL     OW78241  10.863   8.120   7.802
25470SOL    HW178242  10.792   8.069   7.842
25470SOL    HW278243  10.842   8.211   7.823
25471SOL     OW78244  13.559   8.181   1.767
25471SOL    HW178245  13.644   8.139   1.753
25471SOL    HW278246  13.513   8.172   1.683
25472SOL     OW78247   7.566   9.424   1.297
25472SOL    HW178248   7.625   9.349   1.291
25472SOL    HW278249   7.541   9.429   1.389
25473SOL     OW78250  14.473  13.786   2.566
25473SOL    HW178251  14.499  13.725   2.635
25473SOL    HW278252  14.378  13.794   2.575
25474SOL     OW78253  12.344   3.925   1.346
25474SOL    HW178254  12.269   3.876   1.313
25474SOL    HW278255  12.387   3.866   1.408
25475SOL     OW78256   6.802   3.971   8.382
25475SOL    HW178257   6.789   3.900   8.445
25475SOL    HW278258   6.842   3.928   8.306
25476SOL     OW78259   7.202   0.744   0.756
25476SOL    HW178260   7.172   0.723   0.668
25476SOL    HW278261   7.180   0.666   0.808
25477SOL     OW78262   3.772  11.661  11.983
25477SOL    HW178263   3.798  11.569  11.980
25477SOL    HW278264   3.844  11.705  12.027
25478SOL     OW78265   8.837   7.499   5.739
25478SOL    HW178266   8.802   7.411   5.757
25478SOL    HW278267   8.790   7.527   5.660
25479SOL     OW78268   1.709  11.407  13.316
25479SOL    HW178269   1.642  11.463  13.278
25479SOL    HW278270   1.770  11.391  13.245
25480SOL     OW78271   4.728  12.697   5.594
25480SOL    HW178272   4.759  12.758   5.661
25480SOL    HW278273   4.676  12.632   5.641
25481SOL     OW78274  10.853   9.508   3.058
25481SOL    HW178275  10.804   9.560   2.995
25481SOL    HW278276  10.899   9.443   3.005
25482SOL     OW78277  11.782   6.736  12.529
25482SOL    HW178278  11.851   6.771  12.472
25482SOL    HW278279  11.703   6.739  12.475
25483SOL     OW78280  11.007   2.299   5.367
25483SOL    HW178281  10.914   2.281   5.357
25483SOL    HW278282  11.011   2.381   5.416
25484SOL     OW78283   2.179  13.319   1.420
25484SOL    HW178284   2.147  13.241   1.465
25484SOL    HW278285   2.100  13.359   1.383
25485SOL     OW78286  10.388  14.608   9.499
25485SOL    HW178287  10.330  14.606   9.423
25485SOL    HW278288  10.427  14.695   9.497
25486SOL     OW78289   3.033   4.691   8.546
25486SOL    HW178290   3.043   4.734   8.461
25486SOL    HW278291   3.118   4.702   8.589
25487SOL     OW78292   1.719  12.222  13.186
25487SOL    HW178293   1.723  12.302  13.134
25487SOL    HW278294   1.668  12.247  13.263
25488SOL     OW78295  12.305  11.362  10.613
25488SOL    HW178296  12.213  11.366  10.637
25488SOL    HW278297  12.343  11.297  10.672
25489SOL     OW78298  13.849  14.611  14.128
25489SOL    HW178299  13.897  14.693  14.143
25489SOL    HW278300  13.910  14.556  14.079
25490SOL     OW78301  13.260   9.926   9.656
25490SOL    HW178302  13.287   9.836   9.637
25490SOL    HW278303  13.342   9.974   9.665
25491SOL     OW78304   2.236   6.317   4.405
25491SOL    HW178305   2.295   6.371   4.353
25491SOL    HW278306   2.272   6.321   4.494
25492SOL     OW78307   4.148   7.063   3.533
25492SOL    HW178308   4.234   7.094   3.562
25492SOL    HW278309   4.096   7.142   3.520
25493SOL     OW78310  11.409   2.193   7.387
25493SOL    HW178311  11.467   2.129   7.428
25493SOL    HW278312  11.321   2.169   7.416
25494SOL     OW78313   8.001  12.750   0.039
25494SOL    HW178314   8.092  12.746   0.009
25494SOL    HW278315   8.008  12.765   0.133
25495SOL     OW78316   2.899   9.658  10.879
25495SOL    HW178317   2.893   9.564  10.899
25495SOL    HW278318   2.826   9.675  10.820
25496SOL     OW78319  10.492   5.553   8.121
25496SOL    HW178320  10.519   5.559   8.213
25496SOL    HW278321  10.398   5.569   8.122
25497SOL     OW78322  10.949  11.585   4.238
25497SOL    HW178323  11.034  11.564   4.200
25497SOL    HW278324  10.954  11.551   4.328
25498SOL     OW78325   4.126  12.544  11.655
25498SOL    HW178326   4.125  12.473  11.591
25498SOL    HW278327   4.208  12.591  11.638
25499SOL     OW78328   2.096   8.160  10.992
25499SOL    HW178329   2.072   8.198  11.077
25499SOL    HW278330   2.037   8.202  10.929
25500SOL     OW78331   0.926   4.997   8.296
25500SOL    HW178332   0.831   4.994   8.311
25500SOL    HW278333   0.963   5.010   8.383
25501SOL     OW78334  11.349   1.258   5.733
25501SOL    HW178335  11.306   1.343   5.720
25501SOL    HW278336  11.387   1.236   5.648
25502SOL     OW78337   9.529   4.088   9.487
25502SOL    HW178338   9.578   4.147   9.544
25502SOL    HW278339   9.582   4.008   9.484
25503SOL     OW78340  14.113  13.338   9.785
25503SOL    HW178341  14.208  13.340   9.774
25503SOL    HW278342  14.092  13.246   9.802
25504SOL     OW78343  13.071   8.499   7.084
25504SOL    HW178344  13.143   8.556   7.057
25504SOL    HW278345  12.994   8.556   7.086
25505SOL     OW78346   0.837  11.427   0.002
25505SOL    HW178347   0.762  11.486  14.867
25505SOL    HW278348   0.799  11.339  14.864
25506SOL     OW78349  13.924   0.706  10.257
25506SOL    HW178350  13.994   0.641  10.247
25506SOL    HW278351  13.896   0.725  10.168
25507SOL     OW78352   4.488  13.211   0.490
25507SOL    HW178353   4.552  13.140   0.495
25507SOL    HW278354   4.406  13.171   0.518
25508SOL     OW78355  12.000   7.813  11.783
25508SOL    HW178356  11.956   7.799  11.699
25508SOL    HW278357  11.950   7.759  11.845
25509SOL     OW78358   0.074   4.787   6.270
25509SOL    HW178359   0.025   4.740   6.337
25509SOL    HW278360   0.126   4.851   6.320
25510SOL     OW78361  11.289   1.281   7.181
25510SOL    HW178362  11.373   1.261   7.141
25510SOL    HW278363  11.272   1.372   7.158
25511SOL     OW78364   1.146   8.204  11.912
25511SOL    HW178365   1.079   8.189  11.979
25511SOL    HW278366   1.186   8.288  11.935
25512SOL     OW78367  11.302  10.829  13.795
25512SOL    HW178368  11.237  10.759  13.800
25512SOL    HW278369  11.253  10.906  13.767
25513SOL     OW78370   2.509  10.632   3.105
25513SOL    HW178371   2.515  10.677   3.189
25513SOL    HW278372   2.475  10.698   3.044
25514SOL     OW78373   2.343   1.685   6.163
25514SOL    HW178374   2.297   1.745   6.222
25514SOL    HW278375   2.418   1.735   6.131
25515SOL     OW78376   8.384   7.018   4.318
25515SOL    HW178377   8.307   7.059   4.280
25515SOL    HW278378   8.448   7.089   4.326
25516SOL     OW78379   5.353  11.770  11.096
25516SOL    HW178380   5.312  11.717  11.027
25516SOL    HW278381   5.419  11.821  11.050
25517SOL     OW78382   3.365   4.193  12.956
25517SOL    HW178383   3.331   4.133  12.889
25517SOL    HW278384   3.293   4.202  13.019
25518SOL     OW78385   9.821   5.639   1.813
25518SOL    HW178386   9.913   5.617   1.828
25518SOL    HW278387   9.821   5.697   1.736
25519SOL     OW78388  11.995  14.005   7.591
25519SOL    HW178389  12.040  14.085   7.563
25519SOL    HW278390  12.062  13.937   7.590
25520SOL     OW78391  12.099  12.778  12.442
25520SOL    HW178392  12.054  12.824  12.371
25520SOL    HW278393  12.045  12.701  12.458
25521SOL     OW78394   3.022  11.511   2.514
25521SOL    HW178395   2.999  11.520   2.607
25521SOL    HW278396   3.041  11.418   2.504
25522SOL     OW78397  10.198   9.924  10.611
25522SOL    HW178398  10.265   9.993  10.610
25522SOL    HW278399  10.150   9.938  10.529
25523SOL     OW78400  11.740   4.146   0.980
25523SOL    HW178401  11.807   4.201   1.021
25523SOL    HW278402  11.785   4.063   0.961
25524SOL     OW78403   5.080  12.893   2.838
25524SOL    HW178404   5.056  12.801   2.844
25524SOL    HW278405   5.175  12.893   2.827
25525SOL     OW78406   9.921   0.146  12.198
25525SOL    HW178407   9.886   0.058  12.188
25525SOL    HW278408   9.948   0.150  12.290
25526SOL     OW78409   6.595  10.293   1.174
25526SOL    HW178410   6.556  10.229   1.115
25526SOL    HW278411   6.690  10.284   1.159
25527SOL     OW78412   9.383   3.865   6.387
25527SOL    HW178413   9.381   3.825   6.300
25527SOL    HW278414   9.465   3.914   6.390
25528SOL     OW78415   6.100  11.681   6.056
25528SOL    HW178416   6.031  11.638   6.107
25528SOL    HW278417   6.085  11.775   6.070
25529SOL     OW78418  13.256  12.115   9.847
25529SOL    HW178419  13.191  12.060   9.804
25529SOL    HW278420  13.230  12.117   9.939
25530SOL     OW78421   4.108   4.339  11.960
25530SOL    HW178422   4.021   4.367  11.988
25530SOL    HW278423   4.167   4.410  11.987
25531SOL     OW78424   5.440  12.638   1.873
25531SOL    HW178425   5.415  12.546   1.879
25531SOL    HW278426   5.401  12.679   1.950
25532SOL     OW78427   1.369   6.128   7.715
25532SOL    HW178428   1.315   6.090   7.645
25532SOL    HW278429   1.308   6.181   7.767
25533SOL     OW78430   2.678  13.939   9.344
25533SOL    HW178431   2.737  13.893   9.404
25533SOL    HW278432   2.736  13.976   9.277
25534SOL     OW78433   9.865   0.356   2.332
25534SOL    HW178434   9.894   0.432   2.281
25534SOL    HW278435   9.772   0.347   2.311
25535SOL     OW78436   3.291   0.587   0.354
25535SOL    HW178437   3.236   0.587   0.275
25535SOL    HW278438   3.239   0.541   0.420
25536SOL     OW78439  13.716   9.544   6.127
25536SOL    HW178440  13.718   9.602   6.051
25536SOL    HW278441  13.717   9.456   6.089
25537SOL     OW78442  13.825   5.860  11.466
25537SOL    HW178443  13.881   5.838  11.392
25537SOL    HW278444  13.759   5.919  11.429
25538SOL     OW78445  14.517   4.812   6.052
25538SOL    HW178446  14.499   4.899   6.088
25538SOL    HW278447  14.605   4.819   6.015
25539SOL     OW78448   4.172   5.047   5.384
25539SOL    HW178449   4.177   4.968   5.438
25539SOL    HW278450   4.084   5.082   5.401
25540SOL     OW78451  11.361   9.868   0.720
25540SOL    HW178452  11.376   9.798   0.657
25540SOL    HW278453  11.356   9.948   0.666
25541SOL     OW78454   8.123   0.105   7.952
25541SOL    HW178455   8.140   0.187   7.997
25541SOL    HW278456   8.097   0.130   7.864
25542SOL     OW78457  10.875   9.085   4.197
25542SOL    HW178458  10.787   9.120   4.206
25542SOL    HW278459  10.870   8.997   4.235
25543SOL     OW78460  12.087   6.911   5.118
25543SOL    HW178461  12.031   6.925   5.042
25543SOL    HW278462  12.168   6.875   5.082
25544SOL     OW78463  14.234  14.554   6.075
25544SOL    HW178464  14.324  14.541   6.044
25544SOL    HW278465  14.245  14.600   6.159
25545SOL     OW78466   5.056   2.293   5.310
25545SOL    HW178467   5.044   2.319   5.402
25545SOL    HW278468   5.080   2.375   5.266
25546SOL     OW78469   1.638   9.132   4.172
25546SOL    HW178470   1.612   9.183   4.249
25546SOL    HW278471   1.561   9.136   4.115
25547SOL     OW78472  13.382   8.930  14.755
25547SOL    HW178473  13.363   9.023  14.740
25547SOL    HW278474  13.468   8.929  14.796
25548SOL     OW78475   9.860  13.070   8.590
25548SOL    HW178476   9.922  13.007   8.553
25548SOL    HW278477   9.833  13.029   8.673
25549SOL     OW78478   4.225   9.610  14.780
25549SOL    HW178479   4.233   9.705  14.777
25549SOL    HW278480   4.286   9.579  14.713
25550SOL     OW78481   3.040   7.983   8.120
25550SOL    HW178482   3.054   7.977   8.214
25550SOL    HW278483   3.119   8.027   8.087
25551SOL     OW78484   6.768  13.791   7.528
25551SOL    HW178485   6.814  13.795   7.611
25551SOL    HW278486   6.735  13.701   7.523
25552SOL     OW78487  12.351   3.122  13.642
25552SOL    HW178488  12.308   3.130  13.728
25552SOL    HW278489  12.419   3.057  13.655
25553SOL     OW78490   3.022  14.186   0.528
25553SOL    HW178491   2.934  14.218   0.509
25553SOL    HW278492   3.077  14.227   0.461
25554SOL     OW78493   8.312  12.596   8.249
25554SOL    HW178494   8.402  12.565   8.242
25554SOL    HW278495   8.288  12.581   8.341
25555SOL     OW78496   3.866  11.127   0.294
25555SOL    HW178497   3.849  11.081   0.376
25555SOL    HW278498   3.779  11.151   0.262
25556SOL     OW78499   1.826  10.092   7.130
25556SOL    HW178500   1.839   9.997   7.129
25556SOL    HW278501   1.915  10.128   7.128
25557SOL     OW78502  10.703   1.182   2.918
25557SOL    HW178503  10.701   1.102   2.972
25557SOL    HW278504  10.645   1.162   2.845
25558SOL     OW78505   4.479   3.494   1.935
25558SOL    HW178506   4.491   3.399   1.937
25558SOL    HW278507   4.557   3.528   1.978
25559SOL     OW78508  11.226  10.389   1.070
25559SOL    HW178509  11.240  10.305   1.114
25559SOL    HW278510  11.304  10.441   1.092
25560SOL     OW78511   4.805   5.242  11.905
25560SOL    HW178512   4.755   5.322  11.894
25560SOL    HW278513   4.763   5.197  11.978
25561SOL     OW78514   4.122  13.855   7.466
25561SOL    HW178515   4.119  13.851   7.562
25561SOL    HW278516   4.057  13.791   7.438
25562SOL     OW78517   6.271   2.162  14.792
25562SOL    HW178518   6.185   2.160  14.749
25562SOL    HW278519   6.328   2.114  14.733
25563SOL     OW78520   6.654   8.154   5.799
25563SOL    HW178521   6.717   8.165   5.871
25563SOL    HW278522   6.687   8.211   5.730
25564SOL     OW78523   0.662  12.424   9.429
25564SOL    HW178524   0.622  12.507   9.451
25564SOL    HW278525   0.612  12.358   9.477
25565SOL     OW78526   3.888  13.995   6.022
25565SOL    HW178527   3.906  13.901   6.022
25565SOL    HW278528   3.946  14.031   5.955
25566SOL     OW78529   6.983  12.784   0.012
25566SOL    HW178530   6.956  12.774   0.103
25566SOL    HW278531   6.903  12.809  14.838
25567SOL     OW78532  14.362   8.579  10.725
25567SOL    HW178533  14.417   8.641  10.679
25567SOL    HW278534  14.410   8.496  10.722
25568SOL     OW78535  10.014  10.618   9.627
25568SOL    HW178536   9.994  10.563   9.551
25568SOL    HW278537   9.932  10.621   9.677
25569SOL     OW78538  11.598  14.281   7.988
25569SOL    HW178539  11.505  14.261   8.000
25569SOL    HW278540  11.628  14.215   7.925
25570SOL     OW78541   7.775  11.445   4.632
25570SOL    HW178542   7.809  11.477   4.549
25570SOL    HW278543   7.759  11.352   4.618
25571SOL     OW78544   7.813  13.598  11.274
25571SOL    HW178545   7.842  13.602  11.365
25571SOL    HW278546   7.765  13.516  11.267
25572SOL     OW78547   8.002  12.771   9.912
25572SOL    HW178548   7.957  12.797   9.993
25572SOL    HW278549   7.932  12.750   9.851
25573SOL     OW78550   3.583  10.633   2.893
25573SOL    HW178551   3.600  10.601   2.982
25573SOL    HW278552   3.578  10.553   2.840
25574SOL     OW78553  10.150   8.242  10.103
25574SOL    HW178554  10.060   8.275  10.109
25574SOL    HW278555  10.202   8.305  10.153
25575SOL     OW78556   6.232   2.981   3.075
25575SOL    HW178557   6.207   2.907   3.021
25575SOL    HW278558   6.324   2.996   3.055
25576SOL     OW78559  13.207   7.452  11.324
25576SOL    HW178560  13.216   7.459  11.229
25576SOL    HW278561  13.180   7.539  11.352
25577SOL     OW78562  13.319   5.994   1.705
25577SOL    HW178563  13.262   6.059   1.663
25577SOL    HW278564  13.403   6.039   1.716
25578SOL     OW78565  14.186   1.522   4.361
25578SOL    HW178566  14.184   1.468   4.440
25578SOL    HW278567  14.269   1.500   4.319
25579SOL     OW78568   8.865   3.174  12.628
25579SOL    HW178569   8.947   3.216  12.601
25579SOL    HW278570   8.892   3.088  12.661
25580SOL     OW78571   7.046   6.264   4.153
25580SOL    HW178572   7.084   6.322   4.218
25580SOL    HW278573   6.955   6.295   4.144
25581SOL     OW78574  12.466   6.123   9.898
25581SOL    HW178575  12.397   6.189   9.891
25581SOL    HW278576  12.432   6.047   9.851
25582SOL     OW78577  11.814   9.278  14.411
25582SOL    HW178578  11.907   9.268  14.392
25582SOL    HW278579  11.790   9.200  14.461
25583SOL     OW78580  12.747   9.372   6.273
25583SOL    HW178581  12.834   9.377   6.312
25583SOL    HW278582  12.739   9.280   6.245
25584SOL     OW78583  11.416   4.395   8.045
25584SOL    HW178584  11.355   4.335   8.002
25584SOL    HW278585  11.423   4.362   8.134
25585SOL     OW78586   8.090  14.515  12.642
25585SOL    HW178587   8.033  14.444  12.673
25585SOL    HW278588   8.130  14.480  12.563
25586SOL     OW78589   1.744  10.025  12.404
25586SOL    HW178590   1.761  10.112  12.439
25586SOL    HW278591   1.810  10.013  12.336
25587SOL     OW78592  11.612   0.880  14.323
25587SOL    HW178593  11.613   0.971  14.352
25587SOL    HW278594  11.623   0.885  14.228
25588SOL     OW78595   5.840   7.992  10.688
25588SOL    HW178596   5.882   8.066  10.644
25588SOL    HW278597   5.802   8.030  10.767
25589SOL     OW78598   4.635   0.861  10.775
25589SOL    HW178599   4.702   0.929  10.772
25589SOL    HW278600   4.611   0.845  10.684
25590SOL     OW78601  11.726  14.384   6.752
25590SOL    HW178602  11.675  14.313   6.712
25590SOL    HW278603  11.791  14.339   6.806
25591SOL     OW78604   7.364   7.140  11.350
25591SOL    HW178605   7.456   7.167  11.356
25591SOL    HW278606   7.368   7.054  11.307
25592SOL     OW78607   5.683  13.256  12.563
25592SOL    HW178608   5.761  13.204  12.547
25592SOL    HW278609   5.628  13.199  12.617
25593SOL     OW78610   6.213   4.889  11.743
25593SOL    HW178611   6.290   4.937  11.775
25593SOL    HW278612   6.236   4.864  11.654
25594SOL     OW78613   9.806   2.373   5.737
25594SOL    HW178614   9.805   2.465   5.765
25594SOL    HW278615   9.745   2.370   5.663
25595SOL     OW78616   3.228   0.021   4.820
25595SOL    HW178617   3.216  14.842   4.901
25595SOL    HW278618   3.293  14.844   4.770
25596SOL     OW78619   6.541  14.707  11.963
25596SOL    HW178620   6.535  14.729  12.056
25596SOL    HW278621   6.634  14.715  11.942
25597SOL     OW78622  12.312   5.529   4.728
25597SOL    HW178623  12.233   5.535   4.675
25597SOL    HW278624  12.282   5.544   4.817
25598SOL     OW78625  14.357   0.061   5.317
25598SOL    HW178626  14.384   0.077   5.227
25598SOL    HW278627  14.266   0.031   5.309
25599SOL     OW78628   3.198   4.257   4.942
25599SOL    HW178629   3.166   4.199   4.874
25599SOL    HW278630   3.229   4.199   5.011
25600SOL     OW78631   7.925   1.308   2.015
25600SOL    HW178632   7.881   1.390   1.995
25600SOL    HW278633   7.927   1.260   1.932
25601SOL     OW78634   4.812   3.719   8.621
25601SOL    HW178635   4.871   3.710   8.696
25601SOL    HW278636   4.798   3.630   8.591
25602SOL     OW78637  11.533   7.093   7.208
25602SOL    HW178638  11.579   7.147   7.144
25602SOL    HW278639  11.450   7.138   7.223
25603SOL     OW78640   3.672  11.918  13.054
25603SOL    HW178641   3.670  11.948  12.964
25603SOL    HW278642   3.671  11.822  13.047
25604SOL     OW78643  14.663  12.974   7.888
25604SOL    HW178644  14.580  13.008   7.922
25604SOL    HW278645  14.682  13.029   7.812
25605SOL     OW78646  12.164   6.113  13.719
25605SOL    HW178647  12.217   6.125  13.640
25605SOL    HW278648  12.170   6.019  13.738
25606SOL     OW78649  10.921   6.001  14.176
25606SOL    HW178650  10.916   6.053  14.257
25606SOL    HW278651  10.942   5.913  14.206
25607SOL     OW78652   4.139   0.460   5.809
25607SOL    HW178653   4.164   0.368   5.805
25607SOL    HW278654   4.222   0.507   5.808
25608SOL     OW78655  13.317   6.674   5.894
25608SOL    HW178656  13.265   6.610   5.942
25608SOL    HW278657  13.337   6.632   5.811
25609SOL     OW78658   4.291  10.825   1.090
25609SOL    HW178659   4.310  10.731   1.094
25609SOL    HW278660   4.300  10.847   0.997
25610SOL     OW78661   9.194   3.555   4.180
25610SOL    HW178662   9.254   3.628   4.197
25610SOL    HW278663   9.168   3.565   4.089
25611SOL     OW78664   4.489   9.229  12.525
25611SOL    HW178665   4.582   9.232  12.502
25611SOL    HW278666   4.464   9.137  12.515
25612SOL     OW78667  12.880   5.191  12.884
25612SOL    HW178668  12.786   5.178  12.870
25612SOL    HW278669  12.893   5.286  12.875
25613SOL     OW78670  12.961  12.277  12.634
25613SOL    HW178671  12.915  12.207  12.681
25613SOL    HW278672  12.891  12.334  12.602
25614SOL     OW78673   0.633   3.038  11.219
25614SOL    HW178674   0.544   3.054  11.186
25614SOL    HW278675   0.657   2.953  11.182
25615SOL     OW78676   5.806  11.297   1.632
25615SOL    HW178677   5.889  11.328   1.597
25615SOL    HW278678   5.820  11.204   1.649
25616SOL     OW78679   0.023   7.301  10.758
25616SOL    HW178680  14.800   7.293  10.755
25616SOL    HW278681   0.052   7.217  10.795
25617SOL     OW78682   0.683   8.464   1.541
25617SOL    HW178683   0.597   8.428   1.562
25617SOL    HW278684   0.696   8.534   1.605
25618SOL     OW78685   6.896   3.896   8.130
25618SOL    HW178686   6.880   3.873   8.039
25618SOL    HW278687   6.941   3.980   8.127
25619SOL     OW78688  13.296   5.174  13.456
25619SOL    HW178689  13.365   5.160  13.391
25619SOL    HW278690  13.306   5.101  13.517
25620SOL     OW78691   0.205   8.358   0.220
25620SOL    HW178692   0.175   8.347   0.310
25620SOL    HW278693   0.146   8.304   0.168
25621SOL     OW78694  11.391  14.828  12.318
25621SOL    HW178695  11.414  14.773  12.393
25621SOL    HW278696  11.340   0.028  12.356
25622SOL     OW78697   8.573   0.876   9.717
25622SOL    HW178698   8.555   0.946   9.780
25622SOL    HW278699   8.669   0.872   9.713
25623SOL     OW78700   8.730   7.609   2.546
25623SOL    HW178701   8.644   7.583   2.579
25623SOL    HW278702   8.770   7.527   2.517
25624SOL     OW78703  13.007  12.792   1.838
25624SOL    HW178704  12.955  12.774   1.759
25624SOL    HW278705  13.098  12.785   1.809
25625SOL     OW78706   1.810   2.087  11.853
25625SOL    HW178707   1.807   2.017  11.918
25625SOL    HW278708   1.748   2.059  11.786
25626SOL     OW78709   5.452  14.133   7.504
25626SOL    HW178710   5.413  14.047   7.488
25626SOL    HW278711   5.488  14.159   7.419
25627SOL     OW78712  13.188  13.459  11.853
25627SOL    HW178713  13.233  13.522  11.797
25627SOL    HW278714  13.247  13.446  11.928
25628SOL     OW78715  13.755  10.426  13.943
25628SOL    HW178716  13.752  10.396  13.852
25628SOL    HW278717  13.666  10.414  13.975
25629SOL     OW78718   9.599  13.889  14.322
25629SOL    HW178719   9.540  13.880  14.246
25629SOL    HW278720   9.541  13.907  14.395
25630SOL     OW78721   1.934   2.741  10.023
25630SOL    HW178722   1.954   2.829  10.055
25630SOL    HW278723   1.887   2.699  10.095
25631SOL     OW78724   0.952   3.795  13.247
25631SOL    HW178725   0.894   3.730  13.209
25631SOL    HW278726   1.026   3.801  13.186
25632SOL     OW78727  13.176   9.915   6.740
25632SOL    HW178728  13.206   9.971   6.668
25632SOL    HW278729  13.084   9.899   6.720
25633SOL     OW78730   4.519   8.652   3.779
25633SOL    HW178731   4.558   8.733   3.748
25633SOL    HW278732   4.593   8.601   3.813
25634SOL     OW78733   9.228  11.541   8.599
25634SOL    HW178734   9.239  11.591   8.680
25634SOL    HW278735   9.168  11.470   8.623
25635SOL     OW78736   3.455   0.768  14.524
25635SOL    HW178737   3.366   0.738  14.507
25635SOL    HW278738   3.445   0.851  14.569
25636SOL     OW78739  14.185   2.494   3.558
25636SOL    HW178740  14.237   2.572   3.578
25636SOL    HW278741  14.242   2.420   3.580
25637SOL     OW78742   4.945   1.822   4.091
25637SOL    HW178743   4.924   1.734   4.120
25637SOL    HW278744   4.967   1.812   3.998
25638SOL     OW78745   6.143  10.075   8.218
25638SOL    HW178746   6.216  10.075   8.156
25638SOL    HW278747   6.071  10.116   8.170
25639SOL     OW78748  10.129   3.349   3.572
25639SOL    HW178749  10.224   3.349   3.589
25639SOL    HW278750  10.114   3.266   3.527
25640SOL     OW78751   4.423   6.178  11.166
25640SOL    HW178752   4.344   6.172  11.112
25640SOL    HW278753   4.392   6.210  11.250
25641SOL     OW78754   6.337  12.201   4.720
25641SOL    HW178755   6.286  12.268   4.673
25641SOL    HW278756   6.290  12.120   4.704
25642SOL     OW78757   4.686  12.013   4.370
25642SOL    HW178758   4.680  12.044   4.460
25642SOL    HW278759   4.757  12.064   4.331
25643SOL     OW78760   2.314   5.914   8.199
25643SOL    HW178761   2.322   5.821   8.222
25643SOL    HW278762   2.254   5.914   8.124
25644SOL     OW78763   5.822  12.460   9.239
25644SOL    HW178764   5.829  12.546   9.197
25644SOL    HW278765   5.732  12.432   9.221
25645SOL     OW78766   1.817  13.741  11.334
25645SOL    HW178767   1.854  13.821  11.373
25645SOL    HW278768   1.722  13.750  11.347
25646SOL     OW78769  12.174   2.072   6.366
25646SOL    HW178770  12.167   2.046   6.275
25646SOL    HW278771  12.120   2.151   6.373
25647SOL     OW78772  11.543   6.202   3.158
25647SOL    HW178773  11.473   6.136   3.151
25647SOL    HW278774  11.500   6.285   3.139
25648SOL     OW78775   7.766   2.416   0.990
25648SOL    HW178776   7.764   2.356   0.915
25648SOL    HW278777   7.678   2.410   1.027
25649SOL     OW78778  14.391   2.423   2.651
25649SOL    HW178779  14.329   2.362   2.611
25649SOL    HW278780  14.456   2.439   2.583
25650SOL     OW78781  10.746   7.223  10.855
25650SOL    HW178782  10.697   7.155  10.901
25650SOL    HW278783  10.833   7.186  10.843
25651SOL     OW78784   2.255   3.902   0.508
25651SOL    HW178785   2.178   3.929   0.558
25651SOL    HW278786   2.271   3.974   0.447
25652SOL     OW78787   9.312   6.160   8.344
25652SOL    HW178788   9.316   6.081   8.291
25652SOL    HW278789   9.398   6.200   8.334
25653SOL     OW78790   7.903  14.319   6.250
25653SOL    HW178791   7.983  14.357   6.286
25653SOL    HW278792   7.916  14.224   6.258
25654SOL     OW78793   1.295   4.470   5.450
25654SOL    HW178794   1.293   4.539   5.516
25654SOL    HW278795   1.204   4.444   5.439
25655SOL     OW78796   2.771   2.486   5.067
25655SOL    HW178797   2.737   2.400   5.090
25655SOL    HW278798   2.694   2.542   5.064
25656SOL     OW78799   8.428  12.463   9.320
25656SOL    HW178800   8.483  12.405   9.372
25656SOL    HW278801   8.477  12.478   9.240
25657SOL     OW78802   4.711   3.794  12.071
25657SOL    HW178803   4.794   3.829  12.104
25657SOL    HW278804   4.689   3.850  11.997
25658SOL     OW78805  13.189   4.691  11.819
25658SOL    HW178806  13.256   4.752  11.789
25658SOL    HW278807  13.232   4.641  11.889
25659SOL     OW78808   8.788   8.688   3.624
25659SOL    HW178809   8.789   8.593   3.631
25659SOL    HW278810   8.720   8.716   3.685
25660SOL     OW78811   4.253   0.081  14.404
25660SOL    HW178812   4.203   0.065  14.484
25660SOL    HW278813   4.188   0.107  14.340
25661SOL     OW78814   2.466   8.310  13.313
25661SOL    HW178815   2.544   8.363  13.300
25661SOL    HW278816   2.446   8.319  13.406
25662SOL     OW78817  13.995  12.914   5.639
25662SOL    HW178818  14.023  12.870   5.719
25662SOL    HW278819  14.067  12.902   5.578
25663SOL     OW78820   1.750   3.415   7.188
25663SOL    HW178821   1.787   3.337   7.228
25663SOL    HW278822   1.679   3.382   7.132
25664SOL     OW78823   0.428   7.345   8.225
25664SOL    HW178824   0.369   7.365   8.152
25664SOL    HW278825   0.510   7.388   8.203
25665SOL     OW78826  13.020   8.161   6.537
25665SOL    HW178827  13.001   8.236   6.480
25665SOL    HW278828  12.984   8.086   6.489
25666SOL     OW78829   6.871  11.355  12.684
25666SOL    HW178830   6.907  11.295  12.749
25666SOL    HW278831   6.842  11.431  12.734
25667SOL     OW78832   1.389   8.234   8.428
25667SOL    HW178833   1.402   8.252   8.335
25667SOL    HW278834   1.458   8.171   8.449
25668SOL     OW78835  11.503  14.409   1.726
25668SOL    HW178836  11.576  14.460   1.691
25668SOL    HW278837  11.543  14.326   1.754
25669SOL     OW78838   7.613   2.403   1.560
25669SOL    HW178839   7.599   2.497   1.563
25669SOL    HW278840   7.704   2.391   1.586
25670SOL     OW78841  12.551   4.346   9.072
25670SOL    HW178842  12.465   4.345   9.112
25670SOL    HW278843  12.586   4.432   9.093
25671SOL     OW78844   8.274   6.840  13.386
25671SOL    HW178845   8.268   6.765  13.326
25671SOL    HW278846   8.189   6.844  13.429
25672SOL     OW78847  14.275  11.786  10.645
25672SOL    HW178848  14.311  11.698  10.638
25672SOL    HW278849  14.233  11.802  10.560
25673SOL     OW78850  11.161   7.846   6.078
25673SOL    HW178851  11.203   7.767   6.042
25673SOL    HW278852  11.139   7.822   6.168
25674SOL     OW78853  13.177   4.402   4.875
25674SOL    HW178854  13.184   4.307   4.872
25674SOL    HW278855  13.184   4.430   4.784
25675SOL     OW78856   3.211  12.852   6.486
25675SOL    HW178857   3.277  12.812   6.542
25675SOL    HW278858   3.243  12.941   6.471
25676SOL     OW78859   2.073  10.725  12.240
25676SOL    HW178860   2.160  10.762  12.223
25676SOL    HW278861   2.071  10.713  12.335
25677SOL     OW78862   8.802  10.872   5.175
25677SOL    HW178863   8.886  10.860   5.130
25677SOL    HW278864   8.742  10.812   5.130
25678SOL     OW78865  13.118   0.436   6.799
25678SOL    HW178866  13.202   0.410   6.836
25678SOL    HW278867  13.121   0.405   6.708
25679SOL     OW78868  11.332   2.590   6.541
25679SOL    HW178869  11.319   2.685   6.531
25679SOL    HW278870  11.252   2.560   6.584
25680SOL     OW78871   6.496   3.938   2.416
25680SOL    HW178872   6.491   3.985   2.333
25680SOL    HW278873   6.408   3.941   2.452
25681SOL     OW78874  10.618   1.411   6.701
25681SOL    HW178875  10.691   1.468   6.725
25681SOL    HW278876  10.659   1.329   6.675
25682SOL     OW78877  10.484   0.963   1.157
25682SOL    HW178878  10.518   0.976   1.069
25682SOL    HW278879  10.472   0.868   1.165
25683SOL     OW78880   7.312   6.834   7.871
25683SOL    HW178881   7.329   6.918   7.828
25683SOL    HW278882   7.254   6.856   7.944
25684SOL     OW78883   8.037  13.452   7.484
25684SOL    HW178884   7.981  13.521   7.449
25684SOL    HW278885   8.036  13.384   7.416
25685SOL     OW78886  10.865   7.220   4.294
25685SOL    HW178887  10.881   7.174   4.377
25685SOL    HW278888  10.929   7.291   4.294
25686SOL     OW78889   1.997  10.998  14.780
25686SOL    HW178890   2.031  11.036  14.860
25686SOL    HW278891   1.970  11.073  14.727
25687SOL     OW78892   6.307   6.939   3.019
25687SOL    HW178893   6.360   7.019   3.023
25687SOL    HW278894   6.365   6.869   3.047
25688SOL     OW78895   5.714  11.298   9.176
25688SOL    HW178896   5.789  11.273   9.229
25688SOL    HW278897   5.658  11.220   9.174
25689SOL     OW78898   7.914  11.846   4.665
25689SOL    HW178899   7.980  11.833   4.597
25689SOL    HW278900   7.962  11.835   4.747
25690SOL     OW78901   7.870   3.595   2.467
25690SOL    HW178902   7.890   3.508   2.502
25690SOL    HW278903   7.869   3.652   2.543
25691SOL     OW78904   4.121   7.746  12.881
25691SOL    HW178905   4.214   7.727  12.879
25691SOL    HW278906   4.085   7.697  12.807
25692SOL     OW78907   9.460   7.047   7.791
25692SOL    HW178908   9.507   7.107   7.734
25692SOL    HW278909   9.381   7.025   7.742
25693SOL     OW78910  13.917   6.862   2.689
25693SOL    HW178911  13.945   6.826   2.773
25693SOL    HW278912  13.959   6.806   2.624
25694SOL     OW78913   6.464   1.180   7.778
25694SOL    HW178914   6.418   1.241   7.721
25694SOL    HW278915   6.400   1.111   7.798
25695SOL     OW78916   9.269   1.371  14.383
25695SOL    HW178917   9.250   1.374  14.289
25695SOL    HW278918   9.246   1.459  14.415
25696SOL     OW78919   0.230   6.152   7.684
25696SOL    HW178920   0.223   6.194   7.598
25696SOL    HW278921   0.208   6.221   7.747
25697SOL     OW78922   0.762  10.922   9.844
25697SOL    HW178923   0.685  10.970   9.875
25697SOL    HW278924   0.829  10.989   9.832
25698SOL     OW78925   9.032  12.623   2.340
25698SOL    HW178926   9.031  12.632   2.244
25698SOL    HW278927   9.012  12.711   2.372
25699SOL     OW78928  10.428   2.867   9.869
25699SOL    HW178929  10.447   2.913   9.951
25699SOL    HW278930  10.469   2.920   9.801
25700SOL     OW78931  12.796  12.993   3.309
25700SOL    HW178932  12.887  13.005   3.282
25700SOL    HW278933  12.780  12.899   3.301
25701SOL     OW78934   7.804   1.401   4.165
25701SOL    HW178935   7.717   1.439   4.171
25701SOL    HW278936   7.862   1.475   4.145
25702SOL     OW78937   7.712   7.136   7.203
25702SOL    HW178938   7.705   7.141   7.299
25702SOL    HW278939   7.689   7.224   7.173
25703SOL     OW78940  10.324   0.964   3.872
25703SOL    HW178941  10.349   0.878   3.839
25703SOL    HW278942  10.395   1.022   3.845
25704SOL     OW78943  12.135   1.160   8.095
25704SOL    HW178944  12.084   1.079   8.089
25704SOL    HW278945  12.125   1.190   8.185
25705SOL     OW78946   9.816   2.404  14.700
25705SOL    HW178947   9.809   2.379  14.608
25705SOL    HW278948   9.865   2.332  14.741
25706SOL     OW78949   6.320   1.097   0.025
25706SOL    HW178950   6.244   1.132  14.852
25706SOL    HW278951   6.395   1.140  14.854
25707SOL     OW78952  12.485   7.639  12.549
25707SOL    HW178953  12.422   7.587  12.600
25707SOL    HW278954  12.508   7.712  12.607
25708SOL     OW78955  10.794   5.713   6.610
25708SOL    HW178956  10.840   5.723   6.693
25708SOL    HW278957  10.766   5.802   6.587
25709SOL     OW78958   7.555   6.704   2.762
25709SOL    HW178959   7.640   6.705   2.719
25709SOL    HW278960   7.509   6.631   2.722
25710SOL     OW78961   2.235   4.481   5.748
25710SOL    HW178962   2.294   4.421   5.795
25710SOL    HW278963   2.182   4.423   5.694
25711SOL     OW78964  11.694   3.197   8.670
25711SOL    HW178965  11.640   3.272   8.644
25711SOL    HW278966  11.724   3.219   8.758
25712SOL     OW78967   1.660   0.856   3.343
25712SOL    HW178968   1.624   0.768   3.360
25712SOL    HW278969   1.735   0.840   3.285
25713SOL     OW78970   8.388   9.672   3.560
25713SOL    HW178971   8.400   9.727   3.637
25713SOL    HW278972   8.396   9.732   3.486
25714SOL     OW78973   4.651   5.944   0.140
25714SOL    HW178974   4.621   5.867   0.093
25714SOL    HW278975   4.723   5.912   0.195
25715SOL     OW78976   7.116   8.499   8.775
25715SOL    HW178977   7.110   8.411   8.738
25715SOL    HW278978   7.121   8.485   8.869
25716SOL     OW78979   7.838   4.362   3.346
25716SOL    HW178980   7.835   4.456   3.362
25716SOL    HW278981   7.765   4.327   3.397
25717SOL     OW78982  14.560   3.574   3.319
25717SOL    HW178983  14.572   3.532   3.233
25717SOL    HW278984  14.557   3.501   3.381
25718SOL     OW78985  12.138   5.029   8.762
25718SOL    HW178986  12.183   5.099   8.716
25718SOL    HW278987  12.068   5.003   8.702
25719SOL     OW78988  13.702   3.154   4.883
25719SOL    HW178989  13.629   3.101   4.915
25719SOL    HW278990  13.727   3.208   4.958
25720SOL     OW78991  12.185   3.530   0.548
25720SOL    HW178992  12.214   3.481   0.471
25720SOL    HW278993  12.206   3.621   0.528
25721SOL     OW78994  13.001   5.166   2.061
25721SOL    HW178995  13.087   5.147   2.098
25721SOL    HW278996  12.941   5.166   2.136
25722SOL     OW78997   3.540   4.084   0.824
25722SOL    HW178998   3.460   4.037   0.798
25722SOL    HW278999   3.574   4.033   0.898
25723SOL     OW79000   6.487   9.640  14.651
25723SOL    HW179001   6.460   9.608  14.737
25723SOL    HW279002   6.564   9.588  14.629
25724SOL     OW79003  12.079   8.218   8.732
25724SOL    HW179004  12.119   8.303   8.714
25724SOL    HW279005  12.005   8.238   8.789
25725SOL     OW79006   4.507  13.730  14.051
25725SOL    HW179007   4.441  13.778  14.002
25725SOL    HW279008   4.576  13.794  14.068
25726SOL     OW79009  10.747   2.491   1.215
25726SOL    HW179010  10.823   2.514   1.269
25726SOL    HW279011  10.672   2.498   1.275
25727SOL     OW79012   0.480   8.959   2.607
25727SOL    HW179013   0.557   8.911   2.574
25727SOL    HW279014   0.513   9.005   2.684
25728SOL     OW79015  10.248   2.742  14.770
25728SOL    HW179016  10.190   2.724  14.696
25728SOL    HW279017  10.322   2.790  14.733
25729SOL     OW79018   6.841   9.917   4.821
25729SOL    HW179019   6.801   9.989   4.871
25729SOL    HW279020   6.770   9.883   4.767
25730SOL     OW79021   0.217  10.718   3.868
25730SOL    HW179022   0.277  10.704   3.795
25730SOL    HW279023   0.268  10.769   3.931
25731SOL     OW79024  13.936   6.578   2.562
25731SOL    HW179025  13.985   6.611   2.487
25731SOL    HW279026  13.963   6.486   2.569
25732SOL     OW79027   4.118  12.744   8.909
25732SOL    HW179028   4.124  12.823   8.963
25732SOL    HW279029   4.209  12.718   8.893
25733SOL     OW79030  11.403   1.718   5.684
25733SOL    HW179031  11.349   1.641   5.668
25733SOL    HW279032  11.380   1.745   5.773
25734SOL     OW79033   4.763  10.409   0.446
25734SOL    HW179034   4.671  10.410   0.473
25734SOL    HW279035   4.801  10.485   0.489
25735SOL     OW79036  14.708   6.490   4.491
25735SOL    HW179037  14.762   6.416   4.461
25735SOL    HW279038  14.667   6.523   4.411
25736SOL     OW79039   8.800  12.892   7.240
25736SOL    HW179040   8.769  12.949   7.310
25736SOL    HW279041   8.834  12.953   7.174
25737SOL     OW79042   1.098   1.260   6.788
25737SOL    HW179043   1.147   1.257   6.870
25737SOL    HW279044   1.013   1.297   6.813
25738SOL     OW79045   6.669   6.239  13.958
25738SOL    HW179046   6.709   6.196  14.033
25738SOL    HW279047   6.585   6.194  13.946
25739SOL     OW79048  12.273   3.798  11.652
25739SOL    HW179049  12.265   3.806  11.557
25739SOL    HW279050  12.367   3.784  11.666
25740SOL     OW79051   2.715  10.081   2.753
25740SOL    HW179052   2.739  10.124   2.835
25740SOL    HW279053   2.621  10.065   2.760
25741SOL     OW79054  11.015   5.807  14.599
25741SOL    HW179055  11.037   5.843  14.513
25741SOL    HW279056  11.032   5.713  14.590
25742SOL     OW79057   7.754   4.524   8.694
25742SOL    HW179058   7.738   4.615   8.719
25742SOL    HW279059   7.849   4.520   8.683
25743SOL     OW79060   1.345   5.785  14.237
25743SOL    HW179061   1.426   5.782  14.185
25743SOL    HW279062   1.281   5.738  14.183
25744SOL     OW79063   5.656  13.750   2.870
25744SOL    HW179064   5.602  13.828   2.879
25744SOL    HW279065   5.717  13.771   2.799
25745SOL     OW79066  10.674   0.680   2.750
25745SOL    HW179067  10.768   0.694   2.735
25745SOL    HW279068  10.648   0.618   2.682
25746SOL     OW79069   9.367   6.773   2.391
25746SOL    HW179070   9.400   6.789   2.303
25746SOL    HW279071   9.442   6.788   2.449
25747SOL     OW79072   8.498   7.944   8.291
25747SOL    HW179073   8.483   7.898   8.373
25747SOL    HW279074   8.457   7.889   8.224
25748SOL     OW79075   2.048   0.342   1.526
25748SOL    HW179076   2.091   0.427   1.516
25748SOL    HW279077   1.977   0.358   1.588
25749SOL     OW79078  14.013   5.022   8.536
25749SOL    HW179079  14.035   5.087   8.469
25749SOL    HW279080  13.999   4.941   8.486
25750SOL     OW79081   2.156   5.078  13.387
25750SOL    HW179082   2.153   5.021  13.464
25750SOL    HW279083   2.167   5.166  13.423
25751SOL     OW79084  14.330   7.746   2.440
25751SOL    HW179085  14.370   7.798   2.371
25751SOL    HW279086  14.277   7.809   2.490
25752SOL     OW79087   8.978   1.535   3.039
25752SOL    HW179088   8.891   1.572   3.052
25752SOL    HW279089   9.002   1.562   2.950
25753SOL     OW79090   7.895  12.629  10.883
25753SOL    HW179091   7.875  12.722  10.869
25753SOL    HW279092   7.866  12.611  10.973
25754SOL     OW79093  14.428  13.862   6.257
25754SOL    HW179094  14.509  13.811   6.256
25754SOL    HW279095  14.419  13.889   6.349
25755SOL     OW79096  10.283   4.644  12.589
25755SOL    HW179097  10.336   4.581  12.540
25755SOL    HW279098  10.226   4.684  12.523
25756SOL     OW79099  13.552   8.347   9.003
25756SOL    HW179100  13.586   8.328   8.916
25756SOL    HW279101  13.460   8.320   9.000
25757SOL     OW79102  14.322   6.024   5.105
25757SOL    HW179103  14.236   5.995   5.135
25757SOL    HW279104  14.356   6.077   5.176
25758SOL     OW79105   6.017   6.546   7.845
25758SOL    HW179106   5.993   6.624   7.795
25758SOL    HW279107   5.978   6.560   7.932
25759SOL     OW79108   6.870   2.207   5.931
25759SOL    HW179109   6.929   2.152   5.879
25759SOL    HW279110   6.925   2.240   6.002
25760SOL     OW79111  13.528   4.268   1.583
25760SOL    HW179112  13.519   4.206   1.510
25760SOL    HW279113  13.460   4.333   1.567
25761SOL     OW79114   2.346   4.238   0.579
25761SOL    HW179115   2.341   4.174   0.508
25761SOL    HW279116   2.407   4.198   0.642
25762SOL     OW79117   8.260   1.565   1.505
25762SOL    HW179118   8.183   1.602   1.549
25762SOL    HW279119   8.245   1.582   1.412
25763SOL     OW79120   3.013   3.971  12.892
25763SOL    HW179121   3.056   3.984  12.976
25763SOL    HW279122   2.920   3.972  12.912
25764SOL     OW79123   2.423   7.524   3.343
25764SOL    HW179124   2.379   7.582   3.280
25764SOL    HW279125   2.396   7.558   3.428
25765SOL     OW79126   6.782  10.116   5.005
25765SOL    HW179127   6.788  10.212   5.009
25765SOL    HW279128   6.832  10.086   5.081
25766SOL     OW79129  13.878   0.529   2.559
25766SOL    HW179130  13.790   0.563   2.542
25766SOL    HW279131  13.913   0.586   2.627
25767SOL     OW79132  10.865  10.490   8.820
25767SOL    HW179133  10.942  10.546   8.810
25767SOL    HW279134  10.897  10.413   8.867
25768SOL     OW79135  13.776   3.283  12.296
25768SOL    HW179136  13.821   3.363  12.322
25768SOL    HW279137  13.820   3.255  12.215
25769SOL     OW79138  11.923   7.847   7.536
25769SOL    HW179139  11.868   7.768   7.536
25769SOL    HW279140  11.954   7.855   7.626
25770SOL     OW79141  14.403   9.965  10.308
25770SOL    HW179142  14.492   9.977  10.275
25770SOL    HW279143  14.358  10.047  10.287
25771SOL     OW79144  12.068   3.175  13.244
25771SOL    HW179145  12.125   3.208  13.313
25771SOL    HW279146  12.074   3.240  13.175
25772SOL     OW79147   0.505  11.586   2.381
25772SOL    HW179148   0.510  11.680   2.362
25772SOL    HW279149   0.430  11.555   2.332
25773SOL     OW79150  14.178  11.007   6.366
25773SOL    HW179151  14.227  11.075   6.319
25773SOL    HW279152  14.086  11.034   6.358
25774SOL     OW79153  12.878   9.961   0.308
25774SOL    HW179154  12.801  10.016   0.323
25774SOL    HW279155  12.846   9.889   0.254
25775SOL     OW79156  12.812  14.571   3.331
25775SOL    HW179157  12.778  14.661   3.328
25775SOL    HW279158  12.900  14.577   3.293
25776SOL     OW79159   4.423  13.364   8.174
25776SOL    HW179160   4.424  13.275   8.211
25776SOL    HW279161   4.431  13.421   8.251
25777SOL     OW79162  14.831   1.423   4.461
25777SOL    HW179163  14.738   1.400   4.452
25777SOL    HW279164   0.006   1.343   4.439
25778SOL     OW79165   5.560  11.550   0.907
25778SOL    HW179166   5.526  11.638   0.921
25778SOL    HW279167   5.537  11.529   0.817
25779SOL     OW79168  12.620   4.512  14.766
25779SOL    HW179169  12.634   4.447  14.698
25779SOL    HW279170  12.644   4.595  14.726
25780SOL     OW79171   7.285   2.584   7.769
25780SOL    HW179172   7.259   2.671   7.798
25780SOL    HW279173   7.246   2.524   7.833
25781SOL     OW79174   5.251   2.190  13.604
25781SOL    HW179175   5.159   2.217  13.598
25781SOL    HW279176   5.258   2.115  13.545
25782SOL     OW79177  10.151   7.228   7.506
25782SOL    HW179178  10.096   7.307   7.501
25782SOL    HW279179  10.131   7.190   7.591
25783SOL     OW79180   5.338   6.117   9.035
25783SOL    HW179181   5.411   6.087   9.090
25783SOL    HW279182   5.260   6.083   9.079
25784SOL     OW79183  12.334  10.100  12.676
25784SOL    HW179184  12.385  10.020  12.680
25784SOL    HW279185  12.246  10.072  12.652
25785SOL     OW79186   9.070   7.034  13.439
25785SOL    HW179187   9.119   7.003  13.363
25785SOL    HW279188   8.984   6.991  13.431
25786SOL     OW79189   7.539   4.650  10.099
25786SOL    HW179190   7.506   4.718  10.157
25786SOL    HW279191   7.612   4.691  10.052
25787SOL     OW79192   8.889   9.710  10.515
25787SOL    HW179193   8.864   9.618  10.519
25787SOL    HW279194   8.866   9.737  10.426
25788SOL     OW79195   7.300   5.476  14.213
25788SOL    HW179196   7.343   5.404  14.167
25788SOL    HW279197   7.232   5.506  14.154
25789SOL     OW79198   7.857   4.860  12.439
25789SOL    HW179199   7.764   4.842  12.429
25789SOL    HW279200   7.860   4.944  12.486
25790SOL     OW79201  12.264   6.349   6.901
25790SOL    HW179202  12.345   6.308   6.870
25790SOL    HW279203  12.202   6.334   6.830
25791SOL     OW79204   5.673   1.784   6.369
25791SOL    HW179205   5.648   1.869   6.405
25791SOL    HW279206   5.688   1.800   6.276
25792SOL     OW79207  14.392  10.299   8.115
25792SOL    HW179208  14.472  10.282   8.066
25792SOL    HW279209  14.364  10.386   8.086
25793SOL     OW79210  10.333  10.852   6.461
25793SOL    HW179211  10.343  10.779   6.522
25793SOL    HW279212  10.419  10.862   6.421
25794SOL     OW79213   9.308   8.856  13.857
25794SOL    HW179214   9.343   8.812  13.780
25794SOL    HW279215   9.215   8.837  13.856
25795SOL     OW79216  10.389  11.642   7.242
25795SOL    HW179217  10.436  11.638   7.159
25795SOL    HW279218  10.390  11.552   7.275
25796SOL     OW79219  13.212  11.817  10.769
25796SOL    HW179220  13.128  11.831  10.812
25796SOL    HW279221  13.199  11.738  10.715
25797SOL     OW79222   4.377  13.069   5.695
25797SOL    HW179223   4.434  13.106   5.763
25797SOL    HW279224   4.337  12.992   5.737
25798SOL     OW79225  13.554   8.942  12.476
25798SOL    HW179226  13.475   8.913  12.430
25798SOL    HW279227  13.528   8.945  12.568
25799SOL     OW79228  12.380   7.059   9.603
25799SOL    HW179229  12.346   7.106   9.679
25799SOL    HW279230  12.449   7.115   9.568
25800SOL     OW79231  13.435  14.709   0.312
25800SOL    HW179232  13.505  14.658   0.270
25800SOL    HW279233  13.479  14.761   0.378
25801SOL     OW79234   8.561  11.087   0.358
25801SOL    HW179235   8.566  11.153   0.427
25801SOL    HW279236   8.605  11.127   0.283
25802SOL     OW79237  11.380   5.995   3.197
25802SOL    HW179238  11.342   5.995   3.109
25802SOL    HW279239  11.387   5.902   3.220
25803SOL     OW79240  10.133  13.037   2.108
25803SOL    HW179241  10.039  13.035   2.091
25803SOL    HW279242  10.140  13.063   2.200
25804SOL     OW79243   8.315   3.555  10.244
25804SOL    HW179244   8.352   3.642  10.228
25804SOL    HW279245   8.361   3.497  10.183
25805SOL     OW79246   6.086  10.366   5.892
25805SOL    HW179247   6.180  10.384   5.895
25805SOL    HW279248   6.060  10.356   5.984
25806SOL     OW79249  14.128  13.862   0.338
25806SOL    HW179250  14.089  13.817   0.263
25806SOL    HW279251  14.073  13.939   0.351
25807SOL     OW79252  13.987  10.085  11.044
25807SOL    HW179253  13.963  10.023  11.114
25807SOL    HW279254  13.978  10.171  11.084
25808SOL     OW79255   7.886   9.335   1.535
25808SOL    HW179256   7.890   9.321   1.440
25808SOL    HW279257   7.893   9.247   1.572
25809SOL     OW79258  12.217   6.577  12.095
25809SOL    HW179259  12.225   6.487  12.063
25809SOL    HW279260  12.268   6.579  12.176
25810SOL     OW79261   0.956  11.580  13.161
25810SOL    HW179262   0.940  11.549  13.250
25810SOL    HW279263   0.940  11.503  13.106
25811SOL     OW79264   5.054   4.422  11.854
25811SOL    HW179265   5.043   4.461  11.940
25811SOL    HW279266   4.983   4.358  11.848
25812SOL     OW79267   4.646  12.669   4.277
25812SOL    HW179268   4.615  12.633   4.194
25812SOL    HW279269   4.660  12.762   4.260
25813SOL     OW79270  12.054   7.011   9.187
25813SOL    HW179271  12.073   7.066   9.263
25813SOL    HW279272  12.009   6.934   9.222
25814SOL     OW79273   9.410   6.009   9.165
25814SOL    HW179274   9.362   5.927   9.155
25814SOL    HW279275   9.495   5.993   9.126
25815SOL     OW79276   5.316   0.241   4.167
25815SOL    HW179277   5.273   0.191   4.098
25815SOL    HW279278   5.253   0.310   4.189
25816SOL     OW79279   5.525   9.074   0.450
25816SOL    HW179280   5.586   9.118   0.391
25816SOL    HW279281   5.460   9.034   0.392
25817SOL     OW79282   9.422   5.595   6.852
25817SOL    HW179283   9.481   5.520   6.844
25817SOL    HW279284   9.479   5.667   6.880
25818SOL     OW79285   0.880   6.925  12.174
25818SOL    HW179286   0.901   6.873  12.096
25818SOL    HW279287   0.939   6.891  12.241
25819SOL     OW79288  13.818   5.287   0.036
25819SOL    HW179289  13.902   5.248   0.012
25819SOL    HW279290  13.753   5.233  14.864
25820SOL     OW79291   6.751   3.534   2.688
25820SOL    HW179292   6.832   3.560   2.643
25820SOL    HW279293   6.681   3.579   2.640
25821SOL     OW79294   6.505   6.325   7.127
25821SOL    HW179295   6.452   6.400   7.153
25821SOL    HW279296   6.481   6.256   7.189
25822SOL     OW79297   1.115   7.062   8.169
25822SOL    HW179298   1.194   7.081   8.220
25822SOL    HW279299   1.056   7.135   8.188
25823SOL     OW79300   0.099   0.546  10.011
25823SOL    HW179301   0.159   0.619   9.996
25823SOL    HW279302   0.078   0.514   9.923
25824SOL     OW79303   2.449   2.774   0.589
25824SOL    HW179304   2.358   2.755   0.565
25824SOL    HW279305   2.456   2.746   0.680
25825SOL     OW79306   5.042   3.457  12.695
25825SOL    HW179307   5.055   3.422  12.607
25825SOL    HW279308   4.994   3.539  12.682
25826SOL     OW79309   4.388  10.090   3.392
25826SOL    HW179310   4.474  10.050   3.377
25826SOL    HW279311   4.404  10.184   3.383
25827SOL     OW79312   9.542   3.836   8.541
25827SOL    HW179313   9.511   3.892   8.612
25827SOL    HW279314   9.527   3.887   8.461
25828SOL     OW79315   3.182   8.698   8.014
25828SOL    HW179316   3.235   8.738   8.082
25828SOL    HW279317   3.183   8.762   7.942
25829SOL     OW79318   7.137  14.134  14.445
25829SOL    HW179319   7.064  14.192  14.424
25829SOL    HW279320   7.097  14.047  14.450
25830SOL     OW79321   1.788   1.835   7.043
25830SOL    HW179322   1.806   1.918   7.000
25830SOL    HW279323   1.757   1.777   6.973
25831SOL     OW79324   9.403   9.713   0.734
25831SOL    HW179325   9.472   9.662   0.692
25831SOL    HW279326   9.348   9.743   0.662
25832SOL     OW79327   7.757   8.307   0.445
25832SOL    HW179328   7.850   8.287   0.446
25832SOL    HW279329   7.735   8.312   0.352
25833SOL     OW79330  12.335   6.725   6.261
25833SOL    HW179331  12.279   6.702   6.187
25833SOL    HW279332  12.295   6.804   6.298
25834SOL     OW79333   5.960  14.614   7.610
25834SOL    HW179334   5.903  14.671   7.558
25834SOL    HW279335   5.971  14.660   7.693
25835SOL     OW79336   3.226   1.347   7.152
25835SOL    HW179337   3.296   1.358   7.217
25835SOL    HW279338   3.145   1.357   7.203
25836SOL     OW79339  13.638   0.734   7.564
25836SOL    HW179340  13.621   0.641   7.581
25836SOL    HW279341  13.583   0.755   7.489
25837SOL     OW79342   8.607   5.668  14.820
25837SOL    HW179343   8.555   5.722   0.007
25837SOL    HW279344   8.545   5.603  14.787
25838SOL     OW79345   1.006  10.152   2.836
25838SOL    HW179346   1.041  10.241   2.835
25838SOL    HW279347   1.075  10.099   2.875
25839SOL     OW79348   4.049   6.847  12.963
25839SOL    HW179349   4.056   6.751  12.967
25839SOL    HW279350   4.051   6.866  12.869
25840SOL     OW79351   5.596  10.985   7.036
25840SOL    HW179352   5.564  11.010   6.950
25840SOL    HW279353   5.672  11.042   7.051
25841SOL     OW79354   2.764   6.580   8.262
25841SOL    HW179355   2.820   6.637   8.210
25841SOL    HW279356   2.816   6.500   8.274
25842SOL     OW79357   0.454   6.337   4.217
25842SOL    HW179358   0.485   6.427   4.208
25842SOL    HW279359   0.534   6.286   4.232
25843SOL     OW79360   9.502   4.466   8.444
25843SOL    HW179361   9.457   4.474   8.360
25843SOL    HW279362   9.586   4.511   8.430
25844SOL     OW79363  12.598   8.298   1.075
25844SOL    HW179364  12.518   8.329   1.033
25844SOL    HW279365  12.588   8.203   1.078
25845SOL     OW79366   2.151  14.551   3.634
25845SOL    HW179367   2.102  14.624   3.672
25845SOL    HW279368   2.088  14.508   3.576
25846SOL     OW79369  12.389   5.687   9.085
25846SOL    HW179370  12.427   5.740   9.015
25846SOL    HW279371  12.320   5.636   9.042
25847SOL     OW79372  14.146  10.982   3.749
25847SOL    HW179373  14.163  10.888   3.756
25847SOL    HW279374  14.056  10.988   3.716
25848SOL     OW79375   0.218   8.413   6.343
25848SOL    HW179376   0.214   8.403   6.438
25848SOL    HW279377   0.311   8.404   6.323
25849SOL     OW79378   4.531  14.795  14.070
25849SOL    HW179379   4.538  14.837  14.156
25849SOL    HW279380   4.450  14.745  14.075
25850SOL     OW79381   3.569  12.365   0.889
25850SOL    HW179382   3.561  12.409   0.974
25850SOL    HW279383   3.663  12.352   0.876
25851SOL     OW79384   6.234   0.818   2.118
25851SOL    HW179385   6.271   0.860   2.040
25851SOL    HW279386   6.181   0.746   2.084
25852SOL     OW79387   0.446  11.982   9.530
25852SOL    HW179388   0.472  12.073   9.537
25852SOL    HW279389   0.500  11.947   9.459
25853SOL     OW79390   8.798   0.995   8.889
25853SOL    HW179391   8.771   1.058   8.956
25853SOL    HW279392   8.721   0.984   8.833
25854SOL     OW79393   1.475   1.847  12.068
25854SOL    HW179394   1.468   1.808  11.981
25854SOL    HW279395   1.551   1.905  12.063
25855SOL     OW79396  14.283   7.138   2.872
25855SOL    HW179397  14.297   7.115   2.964
25855SOL    HW279398  14.296   7.232   2.868
25856SOL     OW79399   1.345   7.405   7.105
25856SOL    HW179400   1.278   7.473   7.094
25856SOL    HW279401   1.422   7.440   7.061
25857SOL     OW79402   5.040   6.543   6.944
25857SOL    HW179403   5.013   6.581   7.027
25857SOL    HW279404   5.106   6.478   6.968
25858SOL     OW79405   4.751   9.031   8.785
25858SOL    HW179406   4.743   8.940   8.815
25858SOL    HW279407   4.829   9.064   8.828
25859SOL     OW79408   4.130   3.036  12.468
25859SOL    HW179409   4.168   3.067  12.386
25859SOL    HW279410   4.050   3.088  12.479
25860SOL     OW79411   6.866   5.236   4.967
25860SOL    HW179412   6.883   5.323   4.929
25860SOL    HW279413   6.803   5.252   5.037
25861SOL     OW79414   9.402   9.391   4.710
25861SOL    HW179415   9.490   9.427   4.702
25861SOL    HW279416   9.360   9.410   4.626
25862SOL     OW79417   4.026   3.491   5.799
25862SOL    HW179418   4.092   3.558   5.782
25862SOL    HW279419   4.064   3.438   5.870
25863SOL     OW79420   3.025   8.890   2.939
25863SOL    HW179421   3.028   8.821   3.005
25863SOL    HW279422   3.117   8.908   2.918
25864SOL     OW79423  12.435   7.259   8.337
25864SOL    HW179424  12.516   7.283   8.382
25864SOL    HW279425  12.378   7.224   8.406
25865SOL     OW79426   1.554  12.474   2.483
25865SOL    HW179427   1.511  12.389   2.495
25865SOL    HW279428   1.581  12.474   2.391
25866SOL     OW79429   4.491   8.439   9.788
25866SOL    HW179430   4.512   8.347   9.773
25866SOL    HW279431   4.490   8.478   9.701
25867SOL     OW79432   3.470   4.204   2.202
25867SOL    HW179433   3.432   4.119   2.223
25867SOL    HW279434   3.515   4.191   2.118
25868SOL     OW79435  12.195  11.528   0.701
25868SOL    HW179436  12.178  11.455   0.642
25868SOL    HW279437  12.115  11.580   0.698
25869SOL     OW79438   2.166  11.839   9.443
25869SOL    HW179439   2.199  11.909   9.386
25869SOL    HW279440   2.215  11.849   9.524
25870SOL     OW79441   9.844   3.440   8.309
25870SOL    HW179442   9.848   3.395   8.225
25870SOL    HW279443   9.758   3.482   8.310
25871SOL     OW79444   0.423  11.344  10.123
25871SOL    HW179445   0.413  11.250  10.112
25871SOL    HW279446   0.467  11.354  10.208
25872SOL     OW79447   7.497   5.931  12.389
25872SOL    HW179448   7.543   5.930  12.305
25872SOL    HW279449   7.445   6.012  12.387
25873SOL     OW79450  14.294   7.086   3.994
25873SOL    HW179451  14.252   7.000   3.995
25873SOL    HW279452  14.276   7.121   3.906
25874SOL     OW79453   5.051   0.364  13.888
25874SOL    HW179454   5.021   0.278  13.860
25874SOL    HW279455   4.996   0.386  13.963
25875SOL     OW79456   1.553  11.079   5.852
25875SOL    HW179457   1.535  11.162   5.808
25875SOL    HW279458   1.468  11.035   5.854
25876SOL     OW79459   5.069   5.149   5.445
25876SOL    HW179460   5.092   5.152   5.352
25876SOL    HW279461   5.082   5.058   5.470
25877SOL     OW79462   2.894   7.051   3.346
25877SOL    HW179463   2.807   7.091   3.348
25877SOL    HW279464   2.898   7.000   3.426
25878SOL     OW79465   3.522   8.722   0.331
25878SOL    HW179466   3.472   8.641   0.343
25878SOL    HW279467   3.571   8.708   0.250
25879SOL     OW79468   1.642   4.220   0.579
25879SOL    HW179469   1.713   4.271   0.539
25879SOL    HW279470   1.680   4.185   0.659
25880SOL     OW79471  11.112  14.345   0.837
25880SOL    HW179472  11.029  14.349   0.788
25880SOL    HW279473  11.132  14.436   0.858
25881SOL     OW79474   7.808   5.533  13.029
25881SOL    HW179475   7.792   5.568  12.941
25881SOL    HW279476   7.727   5.549  13.076
25882SOL     OW79477   5.503   9.597   7.574
25882SOL    HW179478   5.488   9.514   7.620
25882SOL    HW279479   5.597   9.610   7.579
25883SOL     OW79480   4.571   3.105  10.487
25883SOL    HW179481   4.605   3.120  10.399
25883SOL    HW279482   4.585   3.188  10.533
25884SOL     OW79483   7.703   7.495  10.363
25884SOL    HW179484   7.733   7.572  10.314
25884SOL    HW279485   7.724   7.421  10.306
25885SOL     OW79486  10.941   9.912   3.148
25885SOL    HW179487  10.961   9.999   3.182
25885SOL    HW279488  10.932   9.924   3.054
25886SOL     OW79489  13.852   1.340   8.089
25886SOL    HW179490  13.854   1.247   8.066
25886SOL    HW279491  13.854   1.341   8.185
25887SOL     OW79492  12.317   0.243   4.872
25887SOL    HW179493  12.299   0.168   4.816
25887SOL    HW279494  12.272   0.316   4.829
25888SOL     OW79495   5.875   8.845  14.479
25888SOL    HW179496   5.888   8.818  14.388
25888SOL    HW279497   5.923   8.928  14.487
25889SOL     OW79498   7.631   5.799  10.544
25889SOL    HW179499   7.580   5.830  10.469
25889SOL    HW279500   7.648   5.878  10.596
25890SOL     OW79501   3.651  10.675  14.842
25890SOL    HW179502   3.667  10.740  14.773
25890SOL    HW279503   3.684  10.717   0.049
25891SOL     OW79504  10.451   3.694   9.251
25891SOL    HW179505  10.364   3.732   9.262
25891SOL    HW279506  10.434   3.604   9.223
25892SOL     OW79507   5.211  10.483   1.312
25892SOL    HW179508   5.178  10.505   1.399
25892SOL    HW279509   5.302  10.512   1.313
25893SOL     OW79510   2.094   1.387  11.816
25893SOL    HW179511   2.011   1.370  11.771
25893SOL    HW279512   2.161   1.352  11.757
25894SOL     OW79513   4.816  13.807   5.742
25894SOL    HW179514   4.887  13.774   5.688
25894SOL    HW279515   4.858  13.868   5.803
25895SOL     OW79516   1.785  11.033   6.453
25895SOL    HW179517   1.783  11.076   6.538
25895SOL    HW279518   1.878  11.013   6.438
25896SOL     OW79519   0.158   4.829   7.105
25896SOL    HW179520   0.067   4.846   7.129
25896SOL    HW279521   0.198   4.794   7.185
25897SOL     OW79522   3.348  13.000   7.560
25897SOL    HW179523   3.326  13.010   7.653
25897SOL    HW279524   3.442  12.982   7.560
25898SOL     OW79525  14.715   0.455   5.295
25898SOL    HW179526  14.656   0.412   5.233
25898SOL    HW279527  14.704   0.407   5.377
25899SOL     OW79528   0.449   2.400   7.452
25899SOL    HW179529   0.505   2.433   7.382
25899SOL    HW279530   0.408   2.322   7.414
25900SOL     OW79531  11.213   7.615   5.719
25900SOL    HW179532  11.183   7.706   5.723
25900SOL    HW279533  11.239   7.594   5.808
25901SOL     OW79534   9.294   3.919   1.949
25901SOL    HW179535   9.294   3.843   2.007
25901SOL    HW279536   9.324   3.991   2.003
25902SOL     OW79537  10.499   5.059   4.282
25902SOL    HW179538  10.434   5.123   4.310
25902SOL    HW279539  10.528   5.019   4.364
25903SOL     OW79540  14.470   2.346  14.357
25903SOL    HW179541  14.427   2.424  14.391
25903SOL    HW279542  14.406   2.308  14.297
25904SOL     OW79543   2.041  12.470   7.268
25904SOL    HW179544   2.004  12.535   7.208
25904SOL    HW279545   2.091  12.522   7.331
25905SOL     OW79546  10.651   7.712  14.382
25905SOL    HW179547  10.602   7.633  14.357
25905SOL    HW279548  10.673   7.698  14.474
25906SOL     OW79549   7.779  14.069   1.581
25906SOL    HW179550   7.737  14.060   1.496
25906SOL    HW279551   7.792  14.164   1.592
25907SOL     OW79552  13.116   1.615   9.197
25907SOL    HW179553  13.093   1.686   9.257
25907SOL    HW279554  13.196   1.644   9.154
25908SOL     OW79555   2.267  13.619   6.283
25908SOL    HW179556   2.176  13.633   6.256
25908SOL    HW279557   2.272  13.526   6.303
25909SOL     OW79558   6.616   7.699   7.586
25909SOL    HW179559   6.592   7.717   7.495
25909SOL    HW279560   6.617   7.785   7.628
25910SOL     OW79561  12.755   5.411  13.471
25910SOL    HW179562  12.755   5.413  13.375
25910SOL    HW279563  12.771   5.501  13.497
25911SOL     OW79564   9.771   2.902   4.469
25911SOL    HW179565   9.726   2.954   4.536
25911SOL    HW279566   9.804   2.826   4.517
25912SOL     OW79567   8.016   4.688   8.970
25912SOL    HW179568   7.988   4.745   9.042
25912SOL    HW279569   7.975   4.727   8.892
25913SOL     OW79570   4.536  14.196   0.820
25913SOL    HW179571   4.579  14.151   0.747
25913SOL    HW279572   4.574  14.284   0.818
25914SOL     OW79573   7.730  13.002  13.347
25914SOL    HW179574   7.656  12.954  13.310
25914SOL    HW279575   7.691  13.068  13.404
25915SOL     OW79576  10.439  14.007   2.891
25915SOL    HW179577  10.393  13.964   2.963
25915SOL    HW279578  10.478  13.936   2.841
25916SOL     OW79579   6.861  11.616  13.830
25916SOL    HW179580   6.935  11.557  13.819
25916SOL    HW279581   6.862  11.672  13.752
25917SOL     OW79582   0.093   1.241  10.399
25917SOL    HW179583   0.154   1.279  10.463
25917SOL    HW279584   0.039   1.181  10.450
25918SOL     OW79585   2.573  11.716  13.176
25918SOL    HW179586   2.602  11.799  13.137
25918SOL    HW279587   2.506  11.684  13.115
25919SOL     OW79588   2.232   2.506   8.833
25919SOL    HW179589   2.158   2.509   8.893
25919SOL    HW279590   2.296   2.449   8.876
25920SOL     OW79591   4.450  10.550   4.346
25920SOL    HW179592   4.375  10.493   4.359
25920SOL    HW279593   4.514  10.496   4.300
25921SOL     OW79594  14.590   6.996   4.914
25921SOL    HW179595  14.686   6.997   4.921
25921SOL    HW279596  14.565   6.908   4.941
25922SOL     OW79597  13.723   6.998   1.248
25922SOL    HW179598  13.649   7.005   1.308
25922SOL    HW279599  13.746   6.905   1.248
25923SOL     OW79600   2.029   3.810   5.080
25923SOL    HW179601   2.029   3.877   5.148
25923SOL    HW279602   2.013   3.728   5.127
25924SOL     OW79603  11.529   6.201  14.057
25924SOL    HW179604  11.449   6.152  14.038
25924SOL    HW279605  11.512   6.242  14.141
25925SOL     OW79606   9.201   6.894  13.243
25925SOL    HW179607   9.234   6.900  13.153
25925SOL    HW279608   9.232   6.809  13.275
25926SOL     OW79609   4.507   8.874   3.973
25926SOL    HW179610   4.590   8.844   4.011
25926SOL    HW279611   4.448   8.884   4.047
25927SOL     OW79612   3.351  13.041  10.586
25927SOL    HW179613   3.435  13.061  10.543
25927SOL    HW279614   3.285  13.058  10.519
25928SOL     OW79615  11.839   6.922   0.259
25928SOL    HW179616  11.924   6.904   0.219
25928SOL    HW279617  11.804   6.836   0.283
25929SOL     OW79618   5.805   2.842   4.374
25929SOL    HW179619   5.752   2.864   4.451
25929SOL    HW279620   5.842   2.756   4.395
25930SOL     OW79621  10.071   7.640  12.818
25930SOL    HW179622  10.086   7.584  12.894
25930SOL    HW279623  10.158   7.661  12.786
25931SOL     OW79624   9.691   1.528   5.436
25931SOL    HW179625   9.696   1.479   5.519
25931SOL    HW279626   9.726   1.467   5.370
25932SOL     OW79627  14.520  12.253  11.786
25932SOL    HW179628  14.519  12.179  11.726
25932SOL    HW279629  14.531  12.214  11.872
25933SOL     OW79630   3.022   8.711   3.158
25933SOL    HW179631   3.057   8.758   3.234
25933SOL    HW279632   3.029   8.618   3.181
25934SOL     OW79633  10.526   8.837  12.664
25934SOL    HW179634  10.493   8.875  12.745
25934SOL    HW279635  10.577   8.761  12.692
25935SOL     OW79636  10.867  13.258   9.759
25935SOL    HW179637  10.840  13.232   9.847
25935SOL    HW279638  10.831  13.346   9.748
25936SOL     OW79639   0.623   4.813   7.492
25936SOL    HW179640   0.602   4.722   7.473
25936SOL    HW279641   0.672   4.811   7.574
25937SOL     OW79642  13.497   7.451   5.867
25937SOL    HW179643  13.466   7.525   5.814
25937SOL    HW279644  13.531   7.389   5.804
25938SOL     OW79645  10.773  11.530   9.591
25938SOL    HW179646  10.707  11.565   9.530
25938SOL    HW279647  10.723  11.478   9.653
25939SOL     OW79648  10.492   4.147   0.465
25939SOL    HW179649  10.562   4.147   0.400
25939SOL    HW279650  10.523   4.205   0.534
25940SOL     OW79651   3.791   1.734   6.738
25940SOL    HW179652   3.800   1.822   6.702
25940SOL    HW279653   3.708   1.702   6.703
25941SOL     OW79654   7.223  10.470  10.155
25941SOL    HW179655   7.272  10.512  10.225
25941SOL    HW279656   7.196  10.386  10.192
25942SOL     OW79657   6.767   1.413   4.057
25942SOL    HW179658   6.809   1.470   3.992
25942SOL    HW279659   6.804   1.442   4.141
25943SOL     OW79660   5.962   4.786  11.787
25943SOL    HW179661   6.051   4.817  11.801
25943SOL    HW279662   5.954   4.775  11.692
25944SOL     OW79663   0.320   4.299   9.263
25944SOL    HW179664   0.351   4.389   9.272
25944SOL    HW279665   0.226   4.306   9.250
25945SOL     OW79666  14.169   7.980   0.864
25945SOL    HW179667  14.168   8.016   0.775
25945SOL    HW279668  14.251   7.930   0.868
25946SOL     OW79669   1.849   8.116   4.214
25946SOL    HW179670   1.787   8.186   4.194
25946SOL    HW279671   1.928   8.162   4.244
25947SOL     OW79672   9.870   9.571   6.382
25947SOL    HW179673   9.845   9.581   6.474
25947SOL    HW279674   9.958   9.534   6.385
25948SOL     OW79675   2.194   7.460   8.627
25948SOL    HW179676   2.235   7.376   8.608
25948SOL    HW279677   2.183   7.501   8.542
25949SOL     OW79678   7.971   6.764  12.150
25949SOL    HW179679   7.978   6.767  12.245
25949SOL    HW279680   8.057   6.733  12.121
25950SOL     OW79681  12.662   9.887   7.103
25950SOL    HW179682  12.585   9.938   7.129
25950SOL    HW279683  12.704   9.863   7.185
25951SOL     OW79684   4.915  12.593   4.813
25951SOL    HW179685   4.834  12.609   4.862
25951SOL    HW279686   4.950  12.680   4.795
25952SOL     OW79687   9.106   3.235   5.061
25952SOL    HW179688   9.137   3.293   4.992
25952SOL    HW279689   9.068   3.161   5.015
25953SOL     OW79690   0.534  13.974   1.376
25953SOL    HW179691   0.459  13.964   1.318
25953SOL    HW279692   0.577  13.888   1.376
25954SOL     OW79693  14.148   0.753   0.567
25954SOL    HW179694  14.071   0.786   0.613
25954SOL    HW279695  14.113   0.717   0.485
25955SOL     OW79696   5.099  11.330  14.069
25955SOL    HW179697   5.184  11.289  14.056
25955SOL    HW279698   5.108  11.417  14.030
25956SOL     OW79699   7.023   2.085   5.730
25956SOL    HW179700   7.006   2.153   5.666
25956SOL    HW279701   7.116   2.065   5.720
25957SOL     OW79702  11.853   9.614   9.357
25957SOL    HW179703  11.773   9.635   9.405
25957SOL    HW279704  11.824   9.571   9.277
25958SOL     OW79705   1.224   5.908   8.137
25958SOL    HW179706   1.284   5.861   8.080
25958SOL    HW279707   1.221   5.856   8.217
25959SOL     OW79708  12.623   7.318  12.108
25959SOL    HW179709  12.575   7.241  12.139
25959SOL    HW279710  12.564   7.358  12.044
25960SOL     OW79711  12.545   8.005   7.923
25960SOL    HW179712  12.567   8.016   8.016
25960SOL    HW279713  12.491   7.926   7.921
25961SOL     OW79714  13.611  10.965   2.475
25961SOL    HW179715  13.527  10.970   2.430
25961SOL    HW279716  13.597  11.014   2.556
25962SOL     OW79717  10.793   1.006   4.345
25962SOL    HW179718  10.827   0.993   4.433
25962SOL    HW279719  10.841   1.082   4.311
25963SOL     OW79720   1.948   4.288   7.061
25963SOL    HW179721   1.853   4.274   7.058
25963SOL    HW279722   1.967   4.339   6.982
25964SOL     OW79723   4.783  13.480  11.841
25964SOL    HW179724   4.693  13.454  11.862
25964SOL    HW279725   4.838  13.426  11.898
25965SOL     OW79726   0.798   9.416   8.616
25965SOL    HW179727   0.704   9.413   8.631
25965SOL    HW279728   0.816   9.346   8.554
25966SOL     OW79729   7.190  14.675  10.305
25966SOL    HW179730   7.133  14.632  10.369
25966SOL    HW279731   7.151  14.760  10.290
25967SOL     OW79732   8.967   7.808   7.463
25967SOL    HW179733   9.029   7.825   7.533
25967SOL    HW279734   9.020   7.806   7.384
25968SOL     OW79735   4.878   9.977  10.655
25968SOL    HW179736   4.825   9.941  10.584
25968SOL    HW279737   4.917   9.900  10.697
25969SOL     OW79738  12.795  11.530   0.005
25969SOL    HW179739  12.784  11.452  14.822
25969SOL    HW279740  12.709  11.544   0.044
25970SOL     OW79741   1.821   6.440  13.402
25970SOL    HW179742   1.755   6.381  13.366
25970SOL    HW279743   1.904   6.396  13.386
25971SOL     OW79744   1.138   6.372   6.820
25971SOL    HW179745   1.086   6.297   6.849
25971SOL    HW279746   1.113   6.383   6.728
25972SOL     OW79747   6.337   8.149   2.773
25972SOL    HW179748   6.342   8.056   2.754
25972SOL    HW279749   6.253   8.177   2.736
25973SOL     OW79750   7.673   4.773   8.758
25973SOL    HW179751   7.652   4.754   8.849
25973SOL    HW279752   7.611   4.841   8.732
25974SOL     OW79753  14.668   1.278  14.422
25974SOL    HW179754  14.624   1.212  14.368
25974SOL    HW279755  14.716   1.332  14.360
25975SOL     OW79756   6.683   5.633   0.955
25975SOL    HW179757   6.691   5.581   1.034
25975SOL    HW279758   6.638   5.713   0.983
25976SOL     OW79759   4.608   3.022   3.632
25976SOL    HW179760   4.571   2.989   3.714
25976SOL    HW279761   4.582   3.114   3.629
25977SOL     OW79762  10.701  11.896  14.635
25977SOL    HW179763  10.647  11.935  14.704
25977SOL    HW279764  10.713  11.966  14.572
25978SOL     OW79765   0.191  14.555  14.024
25978SOL    HW179766   0.208  14.519  13.937
25978SOL    HW279767   0.126  14.495  14.062
25979SOL     OW79768  12.579  10.748   6.567
25979SOL    HW179769  12.571  10.658   6.534
25979SOL    HW279770  12.529  10.801   6.505
25980SOL     OW79771  14.551   9.673   4.917
25980SOL    HW179772  14.555   9.657   4.823
25980SOL    HW279773  14.463   9.647   4.943
25981SOL     OW79774  12.777  10.316  13.370
25981SOL    HW179775  12.778  10.246  13.305
25981SOL    HW279776  12.758  10.272  13.452
25982SOL     OW79777  12.071  10.351   2.552
25982SOL    HW179778  11.980  10.375   2.571
25982SOL    HW279779  12.114  10.351   2.637
25983SOL     OW79780   6.129  14.219   4.777
25983SOL    HW179781   6.139  14.125   4.764
25983SOL    HW279782   6.199  14.259   4.725
25984SOL     OW79783   0.985  14.423  12.918
25984SOL    HW179784   0.956  14.512  12.895
25984SOL    HW279785   0.950  14.368  12.848
25985SOL     OW79786  12.923   6.095   8.042
25985SOL    HW179787  12.896   6.003   8.050
25985SOL    HW279788  13.018   6.093   8.056
25986SOL     OW79789  10.952   7.213   5.163
25986SOL    HW179790  10.980   7.287   5.109
25986SOL    HW279791  10.861   7.232   5.185
25987SOL     OW79792   0.030  10.912   9.138
25987SOL    HW179793  14.855  10.956   9.208
25987SOL    HW279794   0.120  10.944   9.147
25988SOL     OW79795   6.231   0.088  10.344
25988SOL    HW179796   6.318   0.067  10.377
25988SOL    HW279797   6.238   0.179  10.314
25989SOL     OW79798   2.383  12.546  11.172
25989SOL    HW179799   2.323  12.488  11.220
25989SOL    HW279800   2.332  12.626  11.158
25990SOL     OW79801  13.546   4.115   0.964
25990SOL    HW179802  13.478   4.135   0.899
25990SOL    HW279803  13.582   4.031   0.935
25991SOL     OW79804   3.877  11.296   7.144
25991SOL    HW179805   3.802  11.263   7.194
25991SOL    HW279806   3.936  11.222   7.138
25992SOL     OW79807   3.465  14.002   8.943
25992SOL    HW179808   3.498  14.092   8.947
25992SOL    HW279809   3.473  13.977   8.851
25993SOL     OW79810   6.195  13.550   1.977
25993SOL    HW179811   6.206  13.459   2.005
25993SOL    HW279812   6.284  13.584   1.965
25994SOL     OW79813  10.539   3.619   7.185
25994SOL    HW179814  10.483   3.595   7.258
25994SOL    HW279815  10.586   3.539   7.163
25995SOL     OW79816   6.941   6.037  14.575
25995SOL    HW179817   6.880   6.023  14.503
25995SOL    HW279818   7.004   6.100  14.542
25996SOL     OW79819  12.985   2.395   4.553
25996SOL    HW179820  12.923   2.400   4.626
25996SOL    HW279821  12.942   2.338   4.489
25997SOL     OW79822   2.502   2.521   6.682
25997SOL    HW179823   2.489   2.428   6.664
25997SOL    HW279824   2.569   2.523   6.750
25998SOL     OW79825   6.018   0.447   7.561
25998SOL    HW179826   5.964   0.395   7.501
25998SOL    HW279827   6.059   0.383   7.619
25999SOL     OW79828   6.326   9.082   0.124
25999SOL    HW179829   6.407   9.125   0.096
25999SOL    HW279830   6.288   9.048   0.043
26000SOL     OW79831   6.104   2.229   5.484
26000SOL    HW179832   6.022   2.196   5.448
26000SOL    HW279833   6.108   2.320   5.454
26001SOL     OW79834   1.176  11.986   4.285
26001SOL    HW179835   1.224  11.919   4.237
26001SOL    HW279836   1.087  11.981   4.251
26002SOL     OW79837   6.255   2.946  13.921
26002SOL    HW179838   6.317   2.978  13.855
26002SOL    HW279839   6.232   2.858  13.890
26003SOL     OW79840   2.363   5.053   1.839
26003SOL    HW179841   2.304   4.997   1.789
26003SOL    HW279842   2.423   4.991   1.882
26004SOL     OW79843   4.385   3.300   9.079
26004SOL    HW179844   4.313   3.257   9.126
26004SOL    HW279845   4.460   3.243   9.093
26005SOL     OW79846   4.486   1.879   7.744
26005SOL    HW179847   4.444   1.957   7.708
26005SOL    HW279848   4.418   1.813   7.743
26006SOL     OW79849   3.196   7.599  13.366
26006SOL    HW179850   3.167   7.512  13.392
26006SOL    HW279851   3.228   7.639  13.447
26007SOL     OW79852   7.934  10.206   5.062
26007SOL    HW179853   7.986  10.196   5.142
26007SOL    HW279854   7.994  10.249   5.000
26008SOL     OW79855   2.044   7.084  10.989
26008SOL    HW179856   2.020   7.159  11.043
26008SOL    HW279857   2.096   7.122  10.917
26009SOL     OW79858   5.072   2.658  10.246
26009SOL    HW179859   4.986   2.677  10.285
26009SOL    HW279860   5.114   2.599  10.309
26010SOL     OW79861  13.316   5.414   1.925
26010SOL    HW179862  13.309   5.441   1.834
26010SOL    HW279863  13.265   5.480   1.974
26011SOL     OW79864   4.995  12.250   5.967
26011SOL    HW179865   4.989  12.345   5.980
26011SOL    HW279866   5.045  12.219   6.043
26012SOL     OW79867   2.586   9.374   9.724
26012SOL    HW179868   2.545   9.348   9.806
26012SOL    HW279869   2.588   9.294   9.671
26013SOL     OW79870   2.223   0.550   5.723
26013SOL    HW179871   2.221   0.507   5.808
26013SOL    HW279872   2.138   0.594   5.716
26014SOL     OW79873   0.755  11.646   3.110
26014SOL    HW179874   0.703  11.567   3.123
26014SOL    HW279875   0.707  11.695   3.043
26015SOL     OW79876   3.652  11.499  13.507
26015SOL    HW179877   3.597  11.426  13.480
26015SOL    HW279878   3.615  11.527  13.591
26016SOL     OW79879   3.467   6.243  13.402
26016SOL    HW179880   3.390   6.273  13.452
26016SOL    HW279881   3.482   6.154  13.433
26017SOL     OW79882  10.288   6.100   0.254
26017SOL    HW179883  10.212   6.106   0.313
26017SOL    HW279884  10.356   6.060   0.308
26018SOL     OW79885   1.181   0.771  10.174
26018SOL    HW179886   1.159   0.704  10.110
26018SOL    HW279887   1.270   0.749  10.202
26019SOL     OW79888   3.080  11.894   9.003
26019SOL    HW179889   3.114  11.943   8.928
26019SOL    HW279890   3.120  11.808   8.996
26020SOL     OW79891   9.914  10.528  14.568
26020SOL    HW179892   9.863  10.458  14.609
26020SOL    HW279893   9.975  10.556  14.635
26021SOL     OW79894   1.760   3.994   1.817
26021SOL    HW179895   1.682   4.040   1.784
26021SOL    HW279896   1.794   3.948   1.740
26022SOL     OW79897   7.836   7.171   8.289
26022SOL    HW179898   7.759   7.152   8.235
26022SOL    HW279899   7.810   7.147   8.378
26023SOL     OW79900   7.622   8.656  14.109
26023SOL    HW179901   7.679   8.682  14.181
26023SOL    HW279902   7.656   8.703  14.033
26024SOL     OW79903   4.583  13.983  14.294
26024SOL    HW179904   4.592  14.010  14.385
26024SOL    HW279905   4.658  14.022  14.249
26025SOL     OW79906   7.511   4.213   0.114
26025SOL    HW179907   7.595   4.257   0.102
26025SOL    HW279908   7.479   4.199   0.025
26026SOL     OW79909   6.463   8.401   2.105
26026SOL    HW179910   6.442   8.343   2.178
26026SOL    HW279911   6.545   8.444   2.131
26027SOL     OW79912   7.351  14.556   0.554
26027SOL    HW179913   7.377  14.627   0.613
26027SOL    HW279914   7.349  14.478   0.610
26028SOL     OW79915   3.214   4.832  14.053
26028SOL    HW179916   3.306   4.822  14.079
26028SOL    HW279917   3.209   4.920  14.017
26029SOL     OW79918  14.489  10.391   8.649
26029SOL    HW179919  14.485  10.470   8.595
26029SOL    HW279920  14.407  10.392   8.699
26030SOL     OW79921   4.661   3.440   5.147
26030SOL    HW179922   4.621   3.425   5.062
26030SOL    HW279923   4.726   3.371   5.155
26031SOL     OW79924   6.088  13.497   4.025
26031SOL    HW179925   6.046  13.476   4.108
26031SOL    HW279926   6.176  13.526   4.050
26032SOL     OW79927  13.648   4.041   6.103
26032SOL    HW179928  13.563   4.068   6.136
26032SOL    HW279929  13.667   4.104   6.033
26033SOL     OW79930   8.076   3.079   8.162
26033SOL    HW179931   8.005   3.070   8.098
26033SOL    HW279932   8.123   2.996   8.157
26034SOL     OW79933   6.486   6.917  10.978
26034SOL    HW179934   6.434   6.851  11.024
26034SOL    HW279935   6.560   6.935  11.037
26035SOL     OW79936  12.489   6.258   0.800
26035SOL    HW179937  12.477   6.182   0.743
26035SOL    HW279938  12.408   6.309   0.790
26036SOL     OW79939   5.826   4.584   6.062
26036SOL    HW179940   5.854   4.643   5.992
26036SOL    HW279941   5.761   4.634   6.111
26037SOL     OW79942   9.690   4.433   7.939
26037SOL    HW179943   9.735   4.421   8.022
26037SOL    HW279944   9.760   4.438   7.874
26038SOL     OW79945  11.353   9.040   0.194
26038SOL    HW179946  11.285   8.974   0.188
26038SOL    HW279947  11.334   9.102   0.124
26039SOL     OW79948  11.005   9.472  10.991
26039SOL    HW179949  10.967   9.499  11.075
26039SOL    HW279950  11.092   9.513  10.990
26040SOL     OW79951   4.325   0.938  12.952
26040SOL    HW179952   4.266   0.879  12.999
26040SOL    HW279953   4.298   0.930  12.860
26041SOL     OW79954   1.930  14.117   9.218
26041SOL    HW179955   2.019  14.146   9.235
26041SOL    HW279956   1.923  14.033   9.264
26042SOL     OW79957  12.693  12.786   1.341
26042SOL    HW179958  12.684  12.788   1.437
26042SOL    HW279959  12.741  12.705   1.323
26043SOL     OW79960   9.215  14.171   0.257
26043SOL    HW179961   9.208  14.096   0.199
26043SOL    HW279962   9.140  14.226   0.235
26044SOL     OW79963   5.846   0.314   8.053
26044SOL    HW179964   5.788   0.289   8.125
26044SOL    HW279965   5.916   0.364   8.095
26045SOL     OW79966  13.685  10.134  11.829
26045SOL    HW179967  13.632  10.055  11.825
26045SOL    HW279968  13.738  10.124  11.908
26046SOL     OW79969  13.752   3.663  12.020
26046SOL    HW179970  13.806   3.694  12.092
26046SOL    HW279971  13.791   3.579  11.995
26047SOL     OW79972   8.609   2.629   8.596
26047SOL    HW179973   8.616   2.631   8.501
26047SOL    HW279974   8.514   2.626   8.613
26048SOL     OW79975   7.248   8.936  14.684
26048SOL    HW179976   7.245   9.018  14.733
26048SOL    HW279977   7.326   8.944  14.629
26049SOL     OW79978  12.553  10.209   3.878
26049SOL    HW179979  12.581  10.297   3.852
26049SOL    HW279980  12.481  10.189   3.818
26050SOL     OW79981   5.256   8.588  12.568
26050SOL    HW179982   5.335   8.604  12.517
26050SOL    HW279983   5.284   8.532  12.640
26051SOL     OW79984   5.365   0.611  12.824
26051SOL    HW179985   5.274   0.582  12.824
26051SOL    HW279986   5.382   0.635  12.915
26052SOL     OW79987   5.461  10.612   1.355
26052SOL    HW179988   5.430  10.702   1.356
26052SOL    HW279989   5.467  10.588   1.448
26053SOL     OW79990   8.829   9.908   3.319
26053SOL    HW179991   8.897   9.931   3.382
26053SOL    HW279992   8.749   9.947   3.355
26054SOL     OW79993  11.604   1.086  13.498
26054SOL    HW179994  11.617   1.174  13.465
26054SOL    HW279995  11.627   1.091  13.591
26055SOL     OW79996  10.510  12.439   6.063
26055SOL    HW179997  10.582  12.413   6.006
26055SOL    HW279998  10.542  12.422   6.152
26056SOL     OW79999   5.909  13.909   7.832
26056SOL    HW180000   5.992  13.870   7.803
26056SOL    HW280001   5.931  14.000   7.850
26057SOL     OW80002   9.288   4.512   7.362
26057SOL    HW180003   9.325   4.426   7.382
26057SOL    HW280004   9.197   4.506   7.391
26058SOL     OW80005   5.251   5.222   1.232
26058SOL    HW180006   5.289   5.154   1.287
26058SOL    HW280007   5.247   5.299   1.289
26059SOL     OW80008  13.315  10.761  14.113
26059SOL    HW180009  13.407  10.786  14.101
26059SOL    HW280010  13.312  10.721  14.200
26060SOL     OW80011  12.253   3.639   5.788
26060SOL    HW180012  12.309   3.598   5.721
26060SOL    HW280013  12.250   3.574   5.859
26061SOL     OW80014   5.191   7.386   9.290
26061SOL    HW180015   5.286   7.391   9.285
26061SOL    HW280016   5.163   7.385   9.198
26062SOL     OW80017  14.764  10.272   4.299
26062SOL    HW180018  14.780  10.207   4.230
26062SOL    HW280019  14.686  10.240   4.345
26063SOL     OW80020   8.709  10.946  12.726
26063SOL    HW180021   8.670  10.915  12.807
26063SOL    HW280022   8.637  10.947  12.663
26064SOL     OW80023   3.390  11.116   8.427
26064SOL    HW180024   3.306  11.121   8.382
26064SOL    HW280025   3.430  11.035   8.394
26065SOL     OW80026  14.099   9.018   9.671
26065SOL    HW180027  14.091   8.933   9.713
26065SOL    HW280028  14.116   9.079   9.743
26066SOL     OW80029   1.511   7.897   6.174
26066SOL    HW180030   1.574   7.867   6.108
26066SOL    HW280031   1.565   7.927   6.247
26067SOL     OW80032  12.224   5.712   0.953
26067SOL    HW180033  12.205   5.623   0.924
26067SOL    HW280034  12.209   5.766   0.876
26068SOL     OW80035   9.712   0.411  11.037
26068SOL    HW180036   9.683   0.358  10.964
26068SOL    HW280037   9.643   0.401  11.103
26069SOL     OW80038   2.035   6.657   7.943
26069SOL    HW180039   1.964   6.709   7.981
26069SOL    HW280040   2.093   6.722   7.902
26070SOL     OW80041   8.972  13.226  11.142
26070SOL    HW180042   9.065  13.226  11.121
26070SOL    HW280043   8.943  13.315  11.120
26071SOL     OW80044  11.501   6.669   4.992
26071SOL    HW180045  11.587   6.637   4.965
26071SOL    HW280046  11.495   6.757   4.954
26072SOL     OW80047   0.118   8.217   8.537
26072SOL    HW180048   0.126   8.130   8.498
26072SOL    HW280049   0.065   8.266   8.475
26073SOL     OW80050   3.260  12.868   4.836
26073SOL    HW180051   3.188  12.887   4.898
26073SOL    HW280052   3.238  12.782   4.801
26074SOL     OW80053   1.528  14.665  14.666
26074SOL    HW180054   1.447  14.716  14.670
26074SOL    HW280055   1.550  14.646  14.757
26075SOL     OW80056  11.663  10.021  12.489
26075SOL    HW180057  11.597   9.952  12.493
26075SOL    HW280058  11.709  10.015  12.573
26076SOL     OW80059   4.541   0.031   3.126
26076SOL    HW180060   4.578   0.119   3.118
26076SOL    HW280061   4.470   0.040   3.190
26077SOL     OW80062   0.328   4.052   4.217
26077SOL    HW180063   0.347   4.120   4.152
26077SOL    HW280064   0.400   3.989   4.206
26078SOL     OW80065   2.089  13.326   5.910
26078SOL    HW180066   2.113  13.299   5.822
26078SOL    HW280067   2.151  13.279   5.967
26079SOL     OW80068   9.813  10.408   7.271
26079SOL    HW180069   9.813  10.488   7.323
26079SOL    HW280070   9.858  10.343   7.325
26080SOL     OW80071   2.694  11.084   5.117
26080SOL    HW180072   2.686  11.124   5.203
26080SOL    HW280073   2.617  11.114   5.069
26081SOL     OW80074   2.364   1.545  11.016
26081SOL    HW180075   2.457   1.541  10.996
26081SOL    HW280076   2.346   1.464  11.063
26082SOL     OW80077   2.981   4.814  11.099
26082SOL    HW180078   2.897   4.855  11.077
26082SOL    HW280079   2.992   4.830  11.193
26083SOL     OW80080   6.183   4.416   3.540
26083SOL    HW180081   6.250   4.470   3.582
26083SOL    HW280082   6.169   4.457   3.455
26084SOL     OW80083  10.583   9.226   7.626
26084SOL    HW180084  10.625   9.312   7.636
26084SOL    HW280085  10.504   9.243   7.576
26085SOL     OW80086  12.026  13.005   7.872
26085SOL    HW180087  12.007  13.049   7.789
26085SOL    HW280088  12.052  12.916   7.848
26086SOL     OW80089   0.712   8.438   1.869
26086SOL    HW180090   0.634   8.492   1.878
26086SOL    HW280091   0.785   8.498   1.882
26087SOL     OW80092   1.305   1.592  13.763
26087SOL    HW180093   1.344   1.544  13.690
26087SOL    HW280094   1.220   1.621  13.730
26088SOL     OW80095  10.371   6.195   2.993
26088SOL    HW180096  10.346   6.114   3.037
26088SOL    HW280097  10.400   6.167   2.906
26089SOL     OW80098   5.348  14.619  14.334
26089SOL    HW180099   5.287  14.680  14.377
26089SOL    HW280100   5.421  14.674  14.305
26090SOL     OW80101  10.986  10.533   5.626
26090SOL    HW180102  10.913  10.472   5.628
26090SOL    HW280103  11.057  10.487   5.670
26091SOL     OW80104   3.355   4.586   0.488
26091SOL    HW180105   3.359   4.678   0.512
26091SOL    HW280106   3.444   4.565   0.458
26092SOL     OW80107   6.873   6.182  13.763
26092SOL    HW180108   6.811   6.171  13.835
26092SOL    HW280109   6.927   6.257  13.789
26093SOL     OW80110   1.235  12.319  12.285
26093SOL    HW180111   1.185  12.363  12.217
26093SOL    HW280112   1.320  12.301  12.246
26094SOL     OW80113  14.295   3.904  11.672
26094SOL    HW180114  14.292   3.811  11.695
26094SOL    HW280115  14.208   3.937  11.695
26095SOL     OW80116   0.799   7.654   4.202
26095SOL    HW180117   0.753   7.573   4.224
26095SOL    HW280118   0.749   7.724   4.243
26096SOL     OW80119   2.129   8.003   9.251
26096SOL    HW180120   2.150   8.093   9.227
26096SOL    HW280121   2.063   7.976   9.187
26097SOL     OW80122  11.962   2.132   7.607
26097SOL    HW180123  12.044   2.110   7.564
26097SOL    HW280124  11.936   2.216   7.569
26098SOL     OW80125  10.411   3.497   6.332
26098SOL    HW180126  10.414   3.450   6.248
26098SOL    HW280127  10.321   3.484   6.363
26099SOL     OW80128   4.252   1.174   3.018
26099SOL    HW180129   4.304   1.207   3.092
26099SOL    HW280130   4.278   1.082   3.011
26100SOL     OW80131   2.977   5.284  12.969
26100SOL    HW180132   2.946   5.238  12.891
26100SOL    HW280133   3.062   5.321  12.943
26101SOL     OW80134   2.226  12.687   4.617
26101SOL    HW180135   2.194  12.768   4.578
26101SOL    HW280136   2.321  12.690   4.605
26102SOL     OW80137   1.926   1.777  13.627
26102SOL    HW180138   1.855   1.722  13.659
26102SOL    HW280139   1.928   1.761  13.532
26103SOL     OW80140   7.736   7.918  11.043
26103SOL    HW180141   7.730   8.006  11.006
26103SOL    HW280142   7.827   7.910  11.071
26104SOL     OW80143   0.687   2.380   9.239
26104SOL    HW180144   0.763   2.439   9.234
26104SOL    HW280145   0.617   2.436   9.272
26105SOL     OW80146   8.145  11.073  12.575
26105SOL    HW180147   8.125  10.986  12.542
26105SOL    HW280148   8.089  11.132  12.525
26106SOL     OW80149   9.969   9.669  11.909
26106SOL    HW180150   9.966   9.576  11.887
26106SOL    HW280151  10.048   9.679  11.962
26107SOL     OW80152   1.248   7.290  14.456
26107SOL    HW180153   1.314   7.258  14.394
26107SOL    HW280154   1.295   7.296  14.539
26108SOL     OW80155   5.392   3.928  12.785
26108SOL    HW180156   5.310   3.880  12.774
26108SOL    HW280157   5.384   3.971  12.870
26109SOL     OW80158   3.997  13.707  12.685
26109SOL    HW180159   3.929  13.768  12.715
26109SOL    HW280160   3.953  13.622  12.683
26110SOL     OW80161   4.649   9.291   2.834
26110SOL    HW180162   4.702   9.363   2.803
26110SOL    HW280163   4.562   9.307   2.798
26111SOL     OW80164   5.539   4.062   5.819
26111SOL    HW180165   5.446   4.085   5.826
26111SOL    HW280166   5.583   4.146   5.808
26112SOL     OW80167  14.504   0.880   2.140
26112SOL    HW180168  14.433   0.816   2.135
26112SOL    HW280169  14.474   0.944   2.204
26113SOL     OW80170   8.521   7.667  13.712
26113SOL    HW180171   8.530   7.610  13.636
26113SOL    HW280172   8.488   7.610  13.781
26114SOL     OW80173  14.634  10.226   1.981
26114SOL    HW180174  14.601  10.142   2.014
26114SOL    HW280175  14.561  10.262   1.930
26115SOL     OW80176   2.117  12.732   2.337
26115SOL    HW180177   2.132  12.825   2.321
26115SOL    HW280178   2.194  12.688   2.300
26116SOL     OW80179   1.231   8.432  10.597
26116SOL    HW180180   1.173   8.360  10.622
26116SOL    HW280181   1.252   8.415  10.505
26117SOL     OW80182   7.235   9.898   5.922
26117SOL    HW180183   7.317   9.889   5.971
26117SOL    HW280184   7.262   9.897   5.830
26118SOL     OW80185   7.289   5.370   5.423
26118SOL    HW180186   7.363   5.373   5.362
26118SOL    HW280187   7.237   5.448   5.402
26119SOL     OW80188  11.640   9.119   3.851
26119SOL    HW180189  11.567   9.067   3.887
26119SOL    HW280190  11.617   9.131   3.759
26120SOL     OW80191   5.042   0.954   2.701
26120SOL    HW180192   5.029   0.949   2.796
26120SOL    HW280193   4.959   0.990   2.668
26121SOL     OW80194  13.185   9.235   5.127
26121SOL    HW180195  13.121   9.165   5.139
26121SOL    HW280196  13.132   9.315   5.122
26122SOL     OW80197  13.066   5.446   0.354
26122SOL    HW180198  13.052   5.386   0.428
26122SOL    HW280199  13.112   5.520   0.391
26123SOL     OW80200   9.567   9.897   6.871
26123SOL    HW180201   9.504   9.843   6.919
26123SOL    HW280202   9.551   9.986   6.903
26124SOL     OW80203  10.343   5.421   3.137
26124SOL    HW180204  10.280   5.379   3.195
26124SOL    HW280205  10.290   5.481   3.084
26125SOL     OW80206   9.087   6.589   4.443
26125SOL    HW180207   9.013   6.532   4.464
26125SOL    HW280208   9.056   6.644   4.371
26126SOL     OW80209  14.500   6.124   1.841
26126SOL    HW180210  14.546   6.203   1.867
26126SOL    HW280211  14.555   6.052   1.874
26127SOL     OW80212   7.143  12.437   6.241
26127SOL    HW180213   7.200  12.458   6.316
26127SOL    HW280214   7.190  12.368   6.194
26128SOL     OW80215  13.065   1.640   4.459
26128SOL    HW180216  13.151   1.641   4.500
26128SOL    HW280217  13.009   1.594   4.521
26129SOL     OW80218   9.241  10.311   7.835
26129SOL    HW180219   9.202  10.385   7.883
26129SOL    HW280220   9.234  10.237   7.895
26130SOL     OW80221   0.438  12.507   5.824
26130SOL    HW180222   0.429  12.533   5.733
26130SOL    HW280223   0.515  12.554   5.855
26131SOL     OW80224   2.448  11.535   6.950
26131SOL    HW180225   2.535  11.567   6.927
26131SOL    HW280226   2.444  11.541   7.045
26132SOL     OW80227  10.008   6.977   2.367
26132SOL    HW180228   9.973   7.062   2.338
26132SOL    HW280229   9.939   6.914   2.345
26133SOL     OW80230   4.160  12.534  10.132
26133SOL    HW180231   4.100  12.487  10.190
26133SOL    HW280232   4.104  12.594  10.083
26134SOL     OW80233   1.215   5.170   5.476
26134SOL    HW180234   1.233   5.179   5.383
26134SOL    HW280235   1.120   5.179   5.483
26135SOL     OW80236   1.561  10.751   1.454
26135SOL    HW180237   1.582  10.840   1.424
26135SOL    HW280238   1.638  10.723   1.503
26136SOL     OW80239   8.552   2.692   8.298
26136SOL    HW180240   8.539   2.733   8.213
26136SOL    HW280241   8.516   2.754   8.361
26137SOL     OW80242  14.474   7.718  10.402
26137SOL    HW180243  14.499   7.639  10.449
26137SOL    HW280244  14.433   7.687  10.322
26138SOL     OW80245  10.395  10.233   2.707
26138SOL    HW180246  10.453  10.308   2.703
26138SOL    HW280247  10.324  10.260   2.765
26139SOL     OW80248   7.318  10.057   8.413
26139SOL    HW180249   7.397  10.003   8.420
26139SOL    HW280250   7.327  10.100   8.328
26140SOL     OW80251   2.466   0.197   1.848
26140SOL    HW180252   2.389   0.215   1.903
26140SOL    HW280253   2.443   0.235   1.763
26141SOL     OW80254  13.501  10.512  13.703
26141SOL    HW180255  13.495  10.601  13.668
26141SOL    HW280256  13.578  10.474  13.660
26142SOL     OW80257   8.331  13.137  14.046
26142SOL    HW180258   8.374  13.222  14.046
26142SOL    HW280259   8.401  13.074  14.063
26143SOL     OW80260   8.144   8.837  11.197
26143SOL    HW180261   8.142   8.921  11.242
26143SOL    HW280262   8.124   8.772  11.265
26144SOL     OW80263   1.356  12.789   9.454
26144SOL    HW180264   1.299  12.807   9.380
26144SOL    HW280265   1.436  12.753   9.415
26145SOL     OW80266   4.158   6.994  10.546
26145SOL    HW180267   4.247   6.959  10.544
26145SOL    HW280268   4.121   6.969  10.461
26146SOL     OW80269   0.784   8.988   9.129
26146SOL    HW180270   0.839   8.933   9.185
26146SOL    HW280271   0.846   9.050   9.089
26147SOL     OW80272   4.915  11.245  13.134
26147SOL    HW180273   4.829  11.284  13.152
26147SOL    HW280274   4.975  11.319  13.138
26148SOL     OW80275  14.632   7.628   3.144
26148SOL    HW180276  14.571   7.687   3.099
26148SOL    HW280277  14.622   7.545   3.098
26149SOL     OW80278  10.276   1.538  11.815
26149SOL    HW180279  10.200   1.545  11.757
26149SOL    HW280280  10.239   1.520  11.901
26150SOL     OW80281   3.180   6.287   6.177
26150SOL    HW180282   3.211   6.377   6.170
26150SOL    HW280283   3.169   6.272   6.271
26151SOL     OW80284  13.792  11.813   0.923
26151SOL    HW180285  13.788  11.881   0.990
26151SOL    HW280286  13.822  11.859   0.844
26152SOL     OW80287   7.893   0.990   8.609
26152SOL    HW180288   7.851   0.934   8.545
26152SOL    HW280289   7.987   0.970   8.601
26153SOL     OW80290  11.186   2.268   8.084
26153SOL    HW180291  11.246   2.275   8.010
26153SOL    HW280292  11.101   2.294   8.048
26154SOL     OW80293  10.213  14.235  13.196
26154SOL    HW180294  10.143  14.181  13.234
26154SOL    HW280295  10.293  14.202  13.236
26155SOL     OW80296   1.189   5.334   6.793
26155SOL    HW180297   1.245   5.390   6.847
26155SOL    HW280298   1.232   5.249   6.792
26156SOL     OW80299   7.542   5.063   4.973
26156SOL    HW180300   7.622   5.045   4.924
26156SOL    HW280301   7.530   5.158   4.967
26157SOL     OW80302   1.412  11.341   2.815
26157SOL    HW180303   1.386  11.279   2.747
26157SOL    HW280304   1.464  11.406   2.769
26158SOL     OW80305   7.857  12.642  11.767
26158SOL    HW180306   7.853  12.716  11.827
26158SOL    HW280307   7.949  12.632  11.746
26159SOL     OW80308   5.213  10.553   6.720
26159SOL    HW180309   5.119  10.567   6.735
26159SOL    HW280310   5.256  10.621   6.772
26160SOL     OW80311   9.399  12.293   5.835
26160SOL    HW180312   9.410  12.228   5.766
26160SOL    HW280313   9.413  12.244   5.916
26161SOL     OW80314   0.311  14.671   0.778
26161SOL    HW180315   0.254  14.741   0.748
26161SOL    HW280316   0.255  14.617   0.834
26162SOL     OW80317   1.684   9.304   1.477
26162SOL    HW180318   1.724   9.372   1.530
26162SOL    HW280319   1.652   9.240   1.540
26163SOL     OW80320   4.901   8.707   3.667
26163SOL    HW180321   4.857   8.677   3.587
26163SOL    HW280322   4.892   8.802   3.665
26164SOL     OW80323   9.160   4.329   3.721
26164SOL    HW180324   9.187   4.242   3.692
26164SOL    HW280325   9.094   4.312   3.788
26165SOL     OW80326   5.449   5.468   1.237
26165SOL    HW180327   5.474   5.382   1.201
26165SOL    HW280328   5.425   5.519   1.160
26166SOL     OW80329   6.692   3.453  11.330
26166SOL    HW180330   6.680   3.462  11.425
26166SOL    HW280331   6.612   3.408  11.301
26167SOL     OW80332  12.781  14.617   9.673
26167SOL    HW180333  12.782  14.607   9.768
26167SOL    HW280334  12.759  14.530   9.640
26168SOL     OW80335   1.425  10.531  10.282
26168SOL    HW180336   1.512  10.506  10.251
26168SOL    HW280337   1.376  10.553  10.203
26169SOL     OW80338   2.080  10.126   9.854
26169SOL    HW180339   2.061  10.194   9.788
26169SOL    HW280340   2.030  10.154   9.931
26170SOL     OW80341  12.248  10.515  14.382
26170SOL    HW180342  12.298  10.538  14.304
26170SOL    HW280343  12.301  10.449  14.426
26171SOL     OW80344  13.570   1.793  11.997
26171SOL    HW180345  13.615   1.722  11.951
26171SOL    HW280346  13.593   1.872  11.949
26172SOL     OW80347   3.435   5.672  13.749
26172SOL    HW180348   3.417   5.611  13.678
26172SOL    HW280349   3.494   5.737  13.710
26173SOL     OW80350   1.900  11.876  13.190
26173SOL    HW180351   1.842  11.928  13.135
26173SOL    HW280352   1.846  11.849  13.264
26174SOL     OW80353  14.339   1.676   8.538
26174SOL    HW180354  14.414   1.715   8.584
26174SOL    HW280355  14.357   1.582   8.539
26175SOL     OW80356   3.305   2.172   2.633
26175SOL    HW180357   3.337   2.239   2.694
26175SOL    HW280358   3.335   2.202   2.547
26176SOL     OW80359  10.416  14.172  13.735
26176SOL    HW180360  10.490  14.157  13.675
26176SOL    HW280361  10.339  14.171  13.678
26177SOL     OW80362   7.380  14.243   7.096
26177SOL    HW180363   7.347  14.231   7.007
26177SOL    HW280364   7.302  14.241   7.151
26178SOL     OW80365   5.646   1.320   8.917
26178SOL    HW180366   5.661   1.396   8.974
26178SOL    HW280367   5.559   1.288   8.942
26179SOL     OW80368   8.124   2.517  13.648
26179SOL    HW180369   8.160   2.524  13.560
26179SOL    HW280370   8.029   2.508  13.635
26180SOL     OW80371  12.890   4.043   5.120
26180SOL    HW180372  12.806   3.998   5.107
26180SOL    HW280373  12.900   4.100   5.044
26181SOL     OW80374  12.988  10.698   2.726
26181SOL    HW180375  12.910  10.690   2.670
26181SOL    HW280376  13.043  10.763   2.681
26182SOL     OW80377   7.207   9.006   1.721
26182SOL    HW180378   7.279   8.943   1.715
26182SOL    HW280379   7.239   9.073   1.781
26183SOL     OW80380   5.634   2.330   9.429
26183SOL    HW180381   5.607   2.416   9.398
26183SOL    HW280382   5.674   2.288   9.352
26184SOL     OW80383   8.653  13.503   3.343
26184SOL    HW180384   8.574  13.499   3.397
26184SOL    HW280385   8.650  13.590   3.303
26185SOL     OW80386   9.679  11.469   5.115
26185SOL    HW180387   9.585  11.479   5.130
26185SOL    HW280388   9.687  11.383   5.073
26186SOL     OW80389  13.567   8.614   3.309
26186SOL    HW180390  13.498   8.593   3.372
26186SOL    HW280391  13.607   8.530   3.288
26187SOL     OW80392  11.531   5.475   3.426
26187SOL    HW180393  11.624   5.472   3.402
26187SOL    HW280394  11.490   5.407   3.372
26188SOL     OW80395   5.022  14.091  13.068
26188SOL    HW180396   4.937  14.133  13.053
26188SOL    HW280397   5.022  14.015  13.011
26189SOL     OW80398  10.934  11.287   8.258
26189SOL    HW180399  11.018  11.286   8.304
26189SOL    HW280400  10.951  11.339   8.179
26190SOL     OW80401   8.118  11.426   6.683
26190SOL    HW180402   8.159  11.464   6.761
26190SOL    HW280403   8.024  11.429   6.702
26191SOL     OW80404   9.570   3.714   5.838
26191SOL    HW180405   9.502   3.647   5.832
26191SOL    HW280406   9.637   3.675   5.894
26192SOL     OW80407   0.672   3.225  12.984
26192SOL    HW180408   0.672   3.232  12.889
26192SOL    HW280409   0.625   3.303  13.014
26193SOL     OW80410  14.863   7.538   3.586
26193SOL    HW180411  14.842   7.492   3.505
26193SOL    HW280412   0.068   7.590   3.565
26194SOL     OW80413  13.368  11.091   7.315
26194SOL    HW180414  13.403  11.130   7.235
26194SOL    HW280415  13.275  11.078   7.297
26195SOL     OW80416   5.489   3.753  14.132
26195SOL    HW180417   5.408   3.707  14.110
26195SOL    HW280418   5.547   3.735  14.058
26196SOL     OW80419   1.558  11.874   7.737
26196SOL    HW180420   1.635  11.847   7.686
26196SOL    HW280421   1.519  11.792   7.765
26197SOL     OW80422  14.808   5.081   6.880
26197SOL    HW180423  14.853   5.142   6.938
26197SOL    HW280424  14.767   5.018   6.939
26198SOL     OW80425   0.258  14.505   3.486
26198SOL    HW180426   0.195  14.575   3.502
26198SOL    HW280427   0.254  14.451   3.564
26199SOL     OW80428   8.147   9.440   7.361
26199SOL    HW180429   8.103   9.517   7.323
26199SOL    HW280430   8.077   9.375   7.370
26200SOL     OW80431   8.983  13.438   9.980
26200SOL    HW180432   8.927  13.446   9.902
26200SOL    HW280433   9.037  13.361   9.962
26201SOL     OW80434  12.539  10.773   9.323
26201SOL    HW180435  12.479  10.700   9.338
26201SOL    HW280436  12.553  10.812   9.409
26202SOL     OW80437   1.250   7.319  11.050
26202SOL    HW180438   1.313   7.384  11.083
26202SOL    HW280439   1.212   7.281  11.130
26203SOL     OW80440   5.421  13.536   9.758
26203SOL    HW180441   5.454  13.449   9.736
26203SOL    HW280442   5.370  13.522   9.838
26204SOL     OW80443   0.383   6.315   6.775
26204SOL    HW180444   0.466   6.360   6.790
26204SOL    HW280445   0.363   6.332   6.683
26205SOL     OW80446   6.199   2.585  14.664
26205SOL    HW180447   6.104   2.598  14.663
26205SOL    HW280448   6.225   2.593  14.572
26206SOL     OW80449  12.161   7.209   8.443
26206SOL    HW180450  12.108   7.243   8.371
26206SOL    HW280451  12.135   7.261   8.519
26207SOL     OW80452   2.735   2.840   7.285
26207SOL    HW180453   2.779   2.756   7.294
26207SOL    HW280454   2.650   2.829   7.328
26208SOL     OW80455   5.623   5.390  10.633
26208SOL    HW180456   5.670   5.352  10.707
26208SOL    HW280457   5.666   5.354  10.555
26209SOL     OW80458  14.031   7.196   4.819
26209SOL    HW180459  14.074   7.263   4.766
26209SOL    HW280460  13.997   7.134   4.755
26210SOL     OW80461   9.821   2.647   5.791
26210SOL    HW180462   9.783   2.668   5.876
26210SOL    HW280463   9.911   2.680   5.797
26211SOL     OW80464   9.264   4.155   7.999
26211SOL    HW180465   9.326   4.167   8.071
26211SOL    HW280466   9.275   4.233   7.945
26212SOL     OW80467   2.975   6.167   4.686
26212SOL    HW180468   2.932   6.198   4.766
26212SOL    HW280469   3.067   6.190   4.698
26213SOL     OW80470   5.182  14.398   4.006
26213SOL    HW180471   5.242  14.430   3.939
26213SOL    HW280472   5.209  14.308   4.022
26214SOL     OW80473   4.229  12.107  10.782
26214SOL    HW180474   4.299  12.158  10.824
26214SOL    HW280475   4.161  12.100  10.848
26215SOL     OW80476  14.645   1.200   7.041
26215SOL    HW180477  14.640   1.193   7.136
26215SOL    HW280478  14.562   1.241   7.016
26216SOL     OW80479   3.147  14.340   6.710
26216SOL    HW180480   3.177  14.257   6.672
26216SOL    HW280481   3.136  14.399   6.636
26217SOL     OW80482  12.742  11.988   0.936
26217SOL    HW180483  12.820  11.937   0.958
26217SOL    HW280484  12.776  12.067   0.893
26218SOL     OW80485   0.241  12.387   3.747
26218SOL    HW180486   0.147  12.395   3.761
26218SOL    HW280487   0.280  12.407   3.832
26219SOL     OW80488  10.423   9.406  10.661
26219SOL    HW180489  10.356   9.469  10.633
26219SOL    HW280490  10.377   9.347  10.721
26220SOL     OW80491   1.787   2.393  11.658
26220SOL    HW180492   1.817   2.347  11.737
26220SOL    HW280493   1.836   2.352  11.587
26221SOL     OW80494   0.900   5.085   3.538
26221SOL    HW180495   0.806   5.069   3.547
26221SOL    HW280496   0.941   5.006   3.572
26222SOL     OW80497  12.741  14.025   8.036
26222SOL    HW180498  12.753  13.935   8.007
26222SOL    HW280499  12.647  14.034   8.050
26223SOL     OW80500   7.743   5.914   8.256
26223SOL    HW180501   7.806   5.874   8.197
26223SOL    HW280502   7.795   5.945   8.330
26224SOL     OW80503   6.010   1.464  11.581
26224SOL    HW180504   6.025   1.501  11.494
26224SOL    HW280505   6.051   1.378  11.577
26225SOL     OW80506   2.151  14.093   4.525
26225SOL    HW180507   2.152  14.052   4.611
26225SOL    HW280508   2.083  14.046   4.477
26226SOL     OW80509  13.425   6.616   4.423
26226SOL    HW180510  13.412   6.703   4.462
26226SOL    HW280511  13.430   6.557   4.498
26227SOL     OW80512   2.347   3.458  11.522
26227SOL    HW180513   2.382   3.544  11.497
26227SOL    HW280514   2.337   3.464  11.617
26228SOL     OW80515  13.494  13.371   3.136
26228SOL    HW180516  13.557  13.299   3.141
26228SOL    HW280517  13.470  13.389   3.227
26229SOL     OW80518   5.936   0.131   5.400
26229SOL    HW180519   5.933   0.216   5.444
26229SOL    HW280520   6.000   0.143   5.330
26230SOL     OW80521  13.568   8.212   5.587
26230SOL    HW180522  13.512   8.159   5.644
26230SOL    HW280523  13.632   8.150   5.551
26231SOL     OW80524  12.647   3.640   7.310
26231SOL    HW180525  12.688   3.690   7.239
26231SOL    HW280526  12.587   3.703   7.351
26232SOL     OW80527   2.072   9.333  12.676
26232SOL    HW180528   2.090   9.312  12.768
26232SOL    HW280529   1.990   9.382  12.678
26233SOL     OW80530  10.412  10.303   4.283
26233SOL    HW180531  10.355  10.360   4.230
26233SOL    HW280532  10.501  10.331   4.261
26234SOL     OW80533   8.218   5.889   1.188
26234SOL    HW180534   8.149   5.945   1.153
26234SOL    HW280535   8.207   5.805   1.143
26235SOL     OW80536   0.934  13.686   3.970
26235SOL    HW180537   0.914  13.675   3.877
26235SOL    HW280538   0.853  13.721   4.008
26236SOL     OW80539   8.036  14.729   0.619
26236SOL    HW180540   8.043  14.637   0.647
26236SOL    HW280541   8.074  14.778   0.692
26237SOL     OW80542  10.871   1.041   1.440
26237SOL    HW180543  10.924   0.996   1.375
26237SOL    HW280544  10.788   1.058   1.397
26238SOL     OW80545   4.883   3.679   2.256
26238SOL    HW180546   4.873   3.770   2.285
26238SOL    HW280547   4.896   3.685   2.162
26239SOL     OW80548   9.479   3.137   8.818
26239SOL    HW180549   9.557   3.106   8.773
26239SOL    HW280550   9.431   3.187   8.752
26240SOL     OW80551   5.631   1.333  12.638
26240SOL    HW180552   5.650   1.243  12.612
26240SOL    HW280553   5.696   1.385  12.589
26241SOL     OW80554   9.303   7.577   9.886
26241SOL    HW180555   9.210   7.554   9.874
26241SOL    HW280556   9.311   7.664   9.847
26242SOL     OW80557  10.489   8.722   2.013
26242SOL    HW180558  10.574   8.693   2.045
26242SOL    HW280559  10.485   8.693   1.923
26243SOL     OW80560  10.245   2.471   0.294
26243SOL    HW180561  10.275   2.522   0.219
26243SOL    HW280562  10.152   2.494   0.302
26244SOL     OW80563   3.330   5.267   8.064
26244SOL    HW180564   3.268   5.316   8.011
26244SOL    HW280565   3.279   5.238   8.140
26245SOL     OW80566   1.752  11.465   6.833
26245SOL    HW180567   1.836  11.491   6.870
26245SOL    HW280568   1.687  11.490   6.899
26246SOL     OW80569  13.114   0.677   5.297
26246SOL    HW180570  13.064   0.724   5.230
26246SOL    HW280571  13.172   0.619   5.248
26247SOL     OW80572  13.913   7.118   0.127
26247SOL    HW180573  13.882   7.074   0.206
26247SOL    HW280574  13.871   7.204   0.130
26248SOL     OW80575   4.363   4.341   6.290
26248SOL    HW180576   4.267   4.347   6.289
26248SOL    HW280577   4.383   4.301   6.375
26249SOL     OW80578  14.690  12.968   1.240
26249SOL    HW180579  14.605  12.929   1.259
26249SOL    HW280580  14.738  12.901   1.192
26250SOL     OW80581   0.114   9.869   7.790
26250SOL    HW180582   0.066   9.951   7.777
26250SOL    HW280583   0.115   9.828   7.704
26251SOL     OW80584   1.801   4.598  14.847
26251SOL    HW180585   1.756   4.632   0.052
26251SOL    HW280586   1.889   4.636  14.852
26252SOL     OW80587   2.022  11.163   4.293
26252SOL    HW180588   2.012  11.162   4.389
26252SOL    HW280589   2.014  11.071   4.268
26253SOL     OW80590   3.154  13.172   8.767
26253SOL    HW180591   3.219  13.182   8.698
26253SOL    HW280592   3.204  13.166   8.848
26254SOL     OW80593  13.087   7.654   0.715
26254SOL    HW180594  13.159   7.695   0.762
26254SOL    HW280595  13.018   7.644   0.781
26255SOL     OW80596   3.894   7.754   1.530
26255SOL    HW180597   3.827   7.808   1.489
26255SOL    HW280598   3.849   7.707   1.600
26256SOL     OW80599  14.365   2.816  13.458
26256SOL    HW180600  14.441   2.777  13.502
26256SOL    HW280601  14.353   2.763  13.380
26257SOL     OW80602   2.608   8.079  11.555
26257SOL    HW180603   2.644   8.074  11.466
26257SOL    HW280604   2.625   7.992  11.592
26258SOL     OW80605   6.873   6.767   4.613
26258SOL    HW180606   6.845   6.854   4.585
26258SOL    HW280607   6.831   6.707   4.552
26259SOL     OW80608  13.683   7.771  12.435
26259SOL    HW180609  13.660   7.688  12.393
26259SOL    HW280610  13.745   7.811  12.374
26260SOL     OW80611   4.941  10.477  11.873
26260SOL    HW180612   4.885  10.519  11.939
26260SOL    HW280613   5.017  10.445  11.922
26261SOL     OW80614   3.318  14.445   1.330
26261SOL    HW180615   3.359  14.466   1.247
26261SOL    HW280616   3.224  14.451   1.313
26262SOL     OW80617  14.754  13.896   4.604
26262SOL    HW180618  14.808  13.868   4.530
26262SOL    HW280619  14.763  13.825   4.668
26263SOL     OW80620   7.433  11.227  13.357
26263SOL    HW180621   7.340  11.205  13.369
26263SOL    HW280622   7.438  11.263  13.269
26264SOL     OW80623   8.860  11.438   5.867
26264SOL    HW180624   8.936  11.439   5.808
26264SOL    HW280625   8.883  11.375   5.935
26265SOL     OW80626   1.347  10.108   3.419
26265SOL    HW180627   1.272  10.141   3.370
26265SOL    HW280628   1.327  10.016   3.434
26266SOL     OW80629  11.863  11.539   1.198
26266SOL    HW180630  11.792  11.511   1.255
26266SOL    HW280631  11.924  11.585   1.256
26267SOL     OW80632  13.535   4.290  10.816
26267SOL    HW180633  13.598   4.261  10.750
26267SOL    HW280634  13.510   4.379  10.787
26268SOL     OW80635   8.840   9.029   1.640
26268SOL    HW180636   8.932   9.044   1.664
26268SOL    HW280637   8.804   8.977   1.711
26269SOL     OW80638   0.012  12.665   5.197
26269SOL    HW180639   0.102  12.694   5.181
26269SOL    HW280640   0.012  12.572   5.173
26270SOL     OW80641  13.838  13.950  12.022
26270SOL    HW180642  13.851  13.899  12.102
26270SOL    HW280643  13.770  13.903  11.974
26271SOL     OW80644   4.819   4.383   8.368
26271SOL    HW180645   4.854   4.446   8.305
26271SOL    HW280646   4.725   4.399   8.367
26272SOL     OW80647  13.528   1.815  12.307
26272SOL    HW180648  13.457   1.879  12.308
26272SOL    HW280649  13.556   1.811  12.215
26273SOL     OW80650   7.538   5.449   6.747
26273SOL    HW180651   7.555   5.356   6.761
26273SOL    HW280652   7.471   5.472   6.811
26274SOL     OW80653  13.264   0.212  12.463
26274SOL    HW180654  13.185   0.253  12.496
26274SOL    HW280655  13.270   0.129  12.510
26275SOL     OW80656   9.596   2.157   8.559
26275SOL    HW180657   9.535   2.106   8.612
26275SOL    HW280658   9.543   2.191   8.487
26276SOL     OW80659   7.236   8.859  11.060
26276SOL    HW180660   7.167   8.793  11.051
26276SOL    HW280661   7.274   8.867  10.973
26277SOL     OW80662   1.852   4.404   7.330
26277SOL    HW180663   1.818   4.468   7.267
26277SOL    HW280664   1.888   4.457   7.401
26278SOL     OW80665  14.014  11.259   3.380
26278SOL    HW180666  13.964  11.331   3.339
26278SOL    HW280667  13.996  11.183   3.325
26279SOL     OW80668   4.483  14.626   2.660
26279SOL    HW180669   4.501  14.679   2.738
26279SOL    HW280670   4.387  14.630   2.651
26280SOL     OW80671   1.505  14.481  10.370
26280SOL    HW180672   1.444  14.431  10.425
26280SOL    HW280673   1.450  14.549  10.330
26281SOL     OW80674   8.948  12.958   0.098
26281SOL    HW180675   8.994  13.036   0.128
26281SOL    HW280676   8.921  12.978   0.009
26282SOL     OW80677   4.089   0.389   4.163
26282SOL    HW180678   4.183   0.370   4.163
26282SOL    HW280679   4.055   0.345   4.241
26283SOL     OW80680  11.750  12.561   7.360
26283SOL    HW180681  11.735  12.535   7.450
26283SOL    HW280682  11.775  12.653   7.365
26284SOL     OW80683  12.660   2.001   2.115
26284SOL    HW180684  12.732   2.059   2.091
26284SOL    HW280685  12.682   1.970   2.202
26285SOL     OW80686   9.119  12.135   4.578
26285SOL    HW180687   9.109  12.230   4.576
26285SOL    HW280688   9.043  12.102   4.530
26286SOL     OW80689  10.399   2.291  12.910
26286SOL    HW180690  10.309   2.307  12.940
26286SOL    HW280691  10.424   2.370  12.864
26287SOL     OW80692   7.705   7.240   7.781
26287SOL    HW180693   7.629   7.273   7.734
26287SOL    HW280694   7.770   7.310   7.775
26288SOL     OW80695   3.327  13.184   2.865
26288SOL    HW180696   3.364  13.226   2.788
26288SOL    HW280697   3.233  13.203   2.860
26289SOL     OW80698   5.937  12.289   4.811
26289SOL    HW180699   5.977  12.312   4.894
26289SOL    HW280700   6.003  12.314   4.745
26290SOL     OW80701   9.834   4.055  10.283
26290SOL    HW180702   9.850   4.043  10.376
26290SOL    HW280703   9.804   3.969  10.253
26291SOL     OW80704  14.379  13.947   2.818
26291SOL    HW180705  14.467  13.910   2.824
26291SOL    HW280706  14.333  13.888   2.758
26292SOL     OW80707   4.520   5.124  12.508
26292SOL    HW180708   4.485   5.043  12.472
26292SOL    HW280709   4.614   5.119  12.491
26293SOL     OW80710   3.283   9.372   7.314
26293SOL    HW180711   3.244   9.417   7.389
26293SOL    HW280712   3.233   9.291   7.306
26294SOL     OW80713  13.652  14.293   4.610
26294SOL    HW180714  13.692  14.322   4.528
26294SOL    HW280715  13.602  14.215   4.587
26295SOL     OW80716   3.704   4.996  11.210
26295SOL    HW180717   3.681   5.056  11.140
26295SOL    HW280718   3.768   5.045  11.263
26296SOL     OW80719   2.724   8.005  10.267
26296SOL    HW180720   2.802   7.951  10.271
26296SOL    HW280721   2.652   7.945  10.287
26297SOL     OW80722   6.695   4.643   8.632
26297SOL    HW180723   6.760   4.652   8.563
26297SOL    HW280724   6.695   4.728   8.676
26298SOL     OW80725  14.409   4.141   1.638
26298SOL    HW180726  14.395   4.154   1.732
26298SOL    HW280727  14.379   4.222   1.597
26299SOL     OW80728   6.568   8.939   4.503
26299SOL    HW180729   6.525   8.885   4.436
26299SOL    HW280730   6.554   8.891   4.585
26300SOL     OW80731   3.512  10.448  12.463
26300SOL    HW180732   3.573  10.380  12.493
26300SOL    HW280733   3.568  10.510  12.416
26301SOL     OW80734   2.320   3.149  13.470
26301SOL    HW180735   2.310   3.054  13.481
26301SOL    HW280736   2.233   3.184  13.485
26302SOL     OW80737   5.570   2.875   2.945
26302SOL    HW180738   5.498   2.820   2.915
26302SOL    HW280739   5.597   2.837   3.028
26303SOL     OW80740  13.911  13.927   2.591
26303SOL    HW180741  13.937  13.991   2.524
26303SOL    HW280742  13.879  13.981   2.663
26304SOL     OW80743  13.304   3.007   5.674
26304SOL    HW180744  13.393   2.981   5.696
26304SOL    HW280745  13.309   3.039   5.584
26305SOL     OW80746   3.598  12.173   2.620
26305SOL    HW180747   3.525  12.231   2.642
26305SOL    HW280748   3.577  12.140   2.533
26306SOL     OW80749   0.257   3.693  12.565
26306SOL    HW180750   0.324   3.639  12.606
26306SOL    HW280751   0.304   3.770  12.533
26307SOL     OW80752   2.229   4.753   3.924
26307SOL    HW180753   2.169   4.811   3.877
26307SOL    HW280754   2.316   4.780   3.896
26308SOL     OW80755   9.208  14.407  12.479
26308SOL    HW180756   9.117  14.379  12.472
26308SOL    HW280757   9.238  14.414  12.388
26309SOL     OW80758   6.974   9.858  11.037
26309SOL    HW180759   6.880   9.850  11.054
26309SOL    HW280760   7.016   9.809  11.108
26310SOL     OW80761  13.144  14.429  12.709
26310SOL    HW180762  13.097  14.429  12.626
26310SOL    HW280763  13.237  14.429  12.684
26311SOL     OW80764   3.301   1.783   7.551
26311SOL    HW180765   3.211   1.811   7.565
26311SOL    HW280766   3.297   1.688   7.554
26312SOL     OW80767   5.388   8.657   2.318
26312SOL    HW180768   5.308   8.610   2.293
26312SOL    HW280769   5.373   8.747   2.290
26313SOL     OW80770   1.767  13.111   8.195
26313SOL    HW180771   1.679  13.084   8.169
26313SOL    HW280772   1.755  13.199   8.230
26314SOL     OW80773   0.178  14.858   1.901
26314SOL    HW180774   0.129  14.859   1.819
26314SOL    HW280775   0.267  14.837   1.876
26315SOL     OW80776   2.459  13.550   6.062
26315SOL    HW180777   2.413  13.474   6.027
26315SOL    HW280778   2.424  13.560   6.151
26316SOL     OW80779   5.356  11.687   9.417
26316SOL    HW180780   5.417  11.616   9.400
26316SOL    HW280781   5.308  11.660   9.495
26317SOL     OW80782   4.216   5.802   3.227
26317SOL    HW180783   4.180   5.813   3.315
26317SOL    HW280784   4.309   5.823   3.237
26318SOL     OW80785   4.380  11.117  11.835
26318SOL    HW180786   4.286  11.129  11.847
26318SOL    HW280787   4.420  11.169  11.905
26319SOL     OW80788   6.099   9.353   6.939
26319SOL    HW180789   6.151   9.277   6.911
26319SOL    HW280790   6.103   9.350   7.034
26320SOL     OW80791  13.284   6.485   6.618
26320SOL    HW180792  13.275   6.512   6.526
26320SOL    HW280793  13.202   6.438   6.636
26321SOL     OW80794  10.221   5.695   4.185
26321SOL    HW180795  10.178   5.706   4.100
26321SOL    HW280796  10.150   5.697   4.248
26322SOL     OW80797   5.974  14.602   7.076
26322SOL    HW180798   5.913  14.625   7.146
26322SOL    HW280799   6.001  14.512   7.096
26323SOL     OW80800  11.966   3.377   4.230
26323SOL    HW180801  12.039   3.398   4.288
26323SOL    HW280802  11.916   3.310   4.278
26324SOL     OW80803   5.354  11.814   8.437
26324SOL    HW180804   5.361  11.778   8.349
26324SOL    HW280805   5.309  11.746   8.487
26325SOL     OW80806   5.841  11.370   3.956
26325SOL    HW180807   5.855  11.465   3.955
26325SOL    HW280808   5.776  11.355   4.024
26326SOL     OW80809  10.295  10.034   4.317
26326SOL    HW180810  10.320  10.126   4.305
26326SOL    HW280811  10.349   9.986   4.254
26327SOL     OW80812   6.787   8.210  12.391
26327SOL    HW180813   6.815   8.269  12.462
26327SOL    HW280814   6.771   8.127  12.435
26328SOL     OW80815   3.397  10.777  10.783
26328SOL    HW180816   3.474  10.826  10.755
26328SOL    HW280817   3.349  10.838  10.839
26329SOL     OW80818  10.324   9.935  12.445
26329SOL    HW180819  10.355   9.846  12.461
26329SOL    HW280820  10.233   9.935  12.474
26330SOL     OW80821   2.015  14.016  14.069
26330SOL    HW180822   2.038  13.972  14.151
26330SOL    HW280823   1.954  14.085  14.094
26331SOL     OW80824   7.829   7.091  14.511
26331SOL    HW180825   7.764   7.056  14.449
26331SOL    HW280826   7.911   7.048  14.487
26332SOL     OW80827   1.793  14.599   9.445
26332SOL    HW180828   1.866  14.538   9.447
26332SOL    HW280829   1.779  14.618   9.352
26333SOL     OW80830  10.434   3.329   2.724
26333SOL    HW180831  10.452   3.236   2.735
26333SOL    HW280832  10.494   3.357   2.655
26334SOL     OW80833  10.868   9.058   1.177
26334SOL    HW180834  10.890   9.036   1.087
26334SOL    HW280835  10.865   9.153   1.180
26335SOL     OW80836  13.497   2.105   9.958
26335SOL    HW180837  13.532   2.034  10.012
26335SOL    HW280838  13.427   2.064   9.908
26336SOL     OW80839   7.063   0.621   2.670
26336SOL    HW180840   7.138   0.679   2.675
26336SOL    HW280841   7.011   0.643   2.748
26337SOL     OW80842   8.729  12.806   6.056
26337SOL    HW180843   8.750  12.868   5.986
26337SOL    HW280844   8.649  12.763   6.027
26338SOL     OW80845  13.395   6.479   3.000
26338SOL    HW180846  13.367   6.416   3.066
26338SOL    HW280847  13.352   6.450   2.919
26339SOL     OW80848   1.582   6.667   6.485
26339SOL    HW180849   1.669   6.689   6.451
26339SOL    HW280850   1.561   6.583   6.445
26340SOL     OW80851  13.688   8.490   0.190
26340SOL    HW180852  13.630   8.524   0.122
26340SOL    HW280853  13.718   8.567   0.237
26341SOL     OW80854   7.641   2.205   1.787
26341SOL    HW180855   7.672   2.230   1.874
26341SOL    HW280856   7.582   2.276   1.762
26342SOL     OW80857   4.154  11.390   4.393
26342SOL    HW180858   4.112  11.309   4.367
26342SOL    HW280859   4.134  11.452   4.322
26343SOL     OW80860   5.401  13.663  11.373
26343SOL    HW180861   5.378  13.578  11.334
26343SOL    HW280862   5.322  13.689  11.422
26344SOL     OW80863  12.510  13.638   3.490
26344SOL    HW180864  12.500  13.564   3.549
26344SOL    HW280865  12.439  13.628   3.427
26345SOL     OW80866   8.239   9.967   6.928
26345SOL    HW180867   8.219   9.887   6.976
26345SOL    HW280868   8.165  10.025   6.947
26346SOL     OW80869  10.496  10.258   3.182
26346SOL    HW180870  10.458  10.343   3.160
26346SOL    HW280871  10.544  10.232   3.104
26347SOL     OW80872   8.479  13.695  14.728
26347SOL    HW180873   8.535  13.771  14.743
26347SOL    HW280874   8.391  13.727  14.748
26348SOL     OW80875  11.504  10.355  14.592
26348SOL    HW180876  11.519  10.446  14.569
26348SOL    HW280877  11.540  10.347  14.681
26349SOL     OW80878   9.978  10.787   1.783
26349SOL    HW180879   9.993  10.760   1.874
26349SOL    HW280880  10.065  10.789   1.744
26350SOL     OW80881  14.512  14.102   8.366
26350SOL    HW180882  14.442  14.136   8.422
26350SOL    HW280883  14.542  14.023   8.410
26351SOL     OW80884   9.828  12.186   5.801
26351SOL    HW180885   9.900  12.226   5.753
26351SOL    HW280886   9.831  12.093   5.777
26352SOL     OW80887  10.999  14.648   3.842
26352SOL    HW180888  11.060  14.594   3.791
26352SOL    HW280889  11.033  14.645   3.931
26353SOL     OW80890   0.063   9.700   9.495
26353SOL    HW180891   0.121   9.627   9.518
26353SOL    HW280892  14.867   9.698   9.562
26354SOL     OW80893   1.035  14.809   1.211
26354SOL    HW180894   0.954  14.811   1.161
26354SOL    HW280895   1.095  14.865   1.161
26355SOL     OW80896   4.515  12.977  10.039
26355SOL    HW180897   4.456  12.975  10.115
26355SOL    HW280898   4.484  12.905   9.983
26356SOL     OW80899   7.369   7.735   2.510
26356SOL    HW180900   7.290   7.767   2.467
26356SOL    HW280901   7.353   7.749   2.604
26357SOL     OW80902   1.692   8.565  14.055
26357SOL    HW180903   1.753   8.560  14.129
26357SOL    HW280904   1.691   8.657  14.030
26358SOL     OW80905  13.978   3.781  10.568
26358SOL    HW180906  14.010   3.863  10.532
26358SOL    HW280907  13.980   3.794  10.663
26359SOL     OW80908  12.192   7.412   3.255
26359SOL    HW180909  12.228   7.500   3.245
26359SOL    HW280910  12.266   7.358   3.281
26360SOL     OW80911   7.835   7.556  12.767
26360SOL    HW180912   7.771   7.540  12.698
26360SOL    HW280913   7.783   7.568  12.846
26361SOL     OW80914   9.294  11.870  13.638
26361SOL    HW180915   9.338  11.914  13.710
26361SOL    HW280916   9.215  11.922  13.622
26362SOL     OW80917   9.156  13.366  14.110
26362SOL    HW180918   9.194  13.355  14.197
26362SOL    HW280919   9.193  13.449  14.078
26363SOL     OW80920  10.721  13.796  14.101
26363SOL    HW180921  10.766  13.858  14.044
26363SOL    HW280922  10.749  13.820  14.190
26364SOL     OW80923   3.506   9.033   5.645
26364SOL    HW180924   3.538   9.012   5.733
26364SOL    HW280925   3.583   9.021   5.588
26365SOL     OW80926   7.263   5.895   9.649
26365SOL    HW180927   7.340   5.945   9.622
26365SOL    HW280928   7.194   5.961   9.661
26366SOL     OW80929  12.730   9.060   9.129
26366SOL    HW180930  12.697   9.148   9.147
26366SOL    HW280931  12.797   9.074   9.061
26367SOL     OW80932  13.828   5.876  11.788
26367SOL    HW180933  13.792   5.950  11.836
26367SOL    HW280934  13.828   5.905  11.696
26368SOL     OW80935   8.748  14.101   5.303
26368SOL    HW180936   8.702  14.100   5.219
26368SOL    HW280937   8.699  14.041   5.358
26369SOL     OW80938   8.131   0.202  12.019
26369SOL    HW180939   8.216   0.173  11.987
26369SOL    HW280940   8.076   0.206  11.941
26370SOL     OW80941   4.139   7.169   4.281
26370SOL    HW180942   4.208   7.152   4.344
26370SOL    HW280943   4.149   7.262   4.259
26371SOL     OW80944  13.587  11.102   0.434
26371SOL    HW180945  13.573  11.045   0.510
26371SOL    HW280946  13.516  11.080   0.374
26372SOL     OW80947   2.978   7.404   0.590
26372SOL    HW180948   3.026   7.461   0.650
26372SOL    HW280949   2.949   7.331   0.645
26373SOL     OW80950   8.836  10.911  11.665
26373SOL    HW180951   8.859  10.998  11.699
26373SOL    HW280952   8.860  10.915  11.573
26374SOL     OW80953  11.866   8.535   6.112
26374SOL    HW180954  11.798   8.591   6.150
26374SOL    HW280955  11.844   8.447   6.141
26375SOL     OW80956   6.957  10.304  10.049
26375SOL    HW180957   6.918  10.342  10.128
26375SOL    HW280958   6.915  10.219  10.040
26376SOL     OW80959   0.515   9.797   6.923
26376SOL    HW180960   0.497   9.772   7.014
26376SOL    HW280961   0.433   9.781   6.877
26377SOL     OW80962  12.727  11.230   8.869
26377SOL    HW180963  12.805  11.269   8.908
26377SOL    HW280964  12.715  11.276   8.786
26378SOL     OW80965   6.322   5.647   3.411
26378SOL    HW180966   6.368   5.574   3.368
26378SOL    HW280967   6.238   5.653   3.365
26379SOL     OW80968   3.255   9.990  12.548
26379SOL    HW180969   3.300  10.060  12.500
26379SOL    HW280970   3.164  10.019  12.551
26380SOL     OW80971  11.815  12.997   3.646
26380SOL    HW180972  11.871  13.025   3.718
26380SOL    HW280973  11.738  13.054   3.652
26381SOL     OW80974   5.387   3.946  11.245
26381SOL    HW180975   5.452   3.978  11.308
26381SOL    HW280976   5.414   3.857  11.225
26382SOL     OW80977  14.324  14.067  12.322
26382SOL    HW180978  14.244  14.119  12.327
26382SOL    HW280979  14.385  14.112  12.380
26383SOL     OW80980  12.132   5.868   9.380
26383SOL    HW180981  12.061   5.810   9.352
26383SOL    HW280982  12.093   5.922   9.449
26384SOL     OW80983   9.166  10.052   5.378
26384SOL    HW180984   9.078  10.013   5.386
26384SOL    HW280985   9.150  10.146   5.373
26385SOL     OW80986  13.009   3.972  13.544
26385SOL    HW180987  13.050   4.054  13.517
26385SOL    HW280988  12.917   3.993  13.555
26386SOL     OW80989   1.171   0.474  10.430
26386SOL    HW180990   1.109   0.542  10.403
26386SOL    HW280991   1.242   0.522  10.473
26387SOL     OW80992   3.611   3.672   3.532
26387SOL    HW180993   3.656   3.622   3.600
26387SOL    HW280994   3.556   3.734   3.581
26388SOL     OW80995   0.994   3.127   6.000
26388SOL    HW180996   1.081   3.097   5.972
26388SOL    HW280997   1.012   3.204   6.055
26389SOL     OW80998   9.329   5.521   0.414
26389SOL    HW180999   9.300   5.438   0.378
26389SOL    HW281000   9.250   5.575   0.416
26390SOL     OW81001   8.144  12.446   6.963
26390SOL    HW181002   8.067  12.484   6.920
26390SOL    HW281003   8.218  12.496   6.927
26391SOL     OW81004   4.342   8.283   2.148
26391SOL    HW181005   4.249   8.302   2.137
26391SOL    HW281006   4.387   8.353   2.100
26392SOL     OW81007  13.932   9.265  10.602
26392SOL    HW181008  13.957   9.334  10.540
26392SOL    HW281009  13.996   9.195  10.586
26393SOL     OW81010   2.150   7.206   1.137
26393SOL    HW181011   2.176   7.298   1.141
26393SOL    HW281012   2.057   7.208   1.116
26394SOL     OW81013   2.838   5.673   3.374
26394SOL    HW181014   2.860   5.699   3.464
26394SOL    HW281015   2.751   5.709   3.360
26395SOL     OW81016   7.344   7.685   5.259
26395SOL    HW181017   7.397   7.702   5.337
26395SOL    HW281018   7.357   7.592   5.240
26396SOL     OW81019   7.637  10.702   8.128
26396SOL    HW181020   7.692  10.646   8.182
26396SOL    HW281021   7.698  10.758   8.080
26397SOL     OW81022   8.851   1.357   3.340
26397SOL    HW181023   8.889   1.329   3.256
26397SOL    HW281024   8.874   1.450   3.347
26398SOL     OW81025   8.099   7.266   6.386
26398SOL    HW181026   8.061   7.264   6.298
26398SOL    HW281027   8.190   7.290   6.372
26399SOL     OW81028  10.144  11.629   8.171
26399SOL    HW181029  10.158  11.709   8.120
26399SOL    HW281030  10.118  11.563   8.107
26400SOL     OW81031   6.500   1.433   8.871
26400SOL    HW181032   6.404   1.431   8.869
26400SOL    HW281033   6.526   1.384   8.793
26401SOL     OW81034   0.972  14.499   8.865
26401SOL    HW181035   0.979  14.435   8.936
26401SOL    HW281036   1.061  14.506   8.830
26402SOL     OW81037   0.362   8.698   5.479
26402SOL    HW181038   0.347   8.606   5.458
26402SOL    HW281039   0.353   8.703   5.574
26403SOL     OW81040  10.365   1.014   0.159
26403SOL    HW181041  10.407   0.930   0.174
26403SOL    HW281042  10.374   1.028   0.064
26404SOL     OW81043  12.379   0.938   4.579
26404SOL    HW181044  12.451   0.940   4.641
26404SOL    HW281045  12.313   0.996   4.616
26405SOL     OW81046  11.818   5.534   8.803
26405SOL    HW181047  11.754   5.488   8.856
26405SOL    HW281048  11.874   5.465   8.768
26406SOL     OW81049   9.018  12.259   8.687
26406SOL    HW181050   9.003  12.328   8.752
26406SOL    HW281051   9.084  12.203   8.727
26407SOL     OW81052   8.558   7.190  13.988
26407SOL    HW181053   8.610   7.221  14.062
26407SOL    HW281054   8.621   7.176  13.918
26408SOL     OW81055   5.679   3.784  14.390
26408SOL    HW181056   5.648   3.870  14.362
26408SOL    HW281057   5.621   3.722  14.348
26409SOL     OW81058  12.520   0.520   2.585
26409SOL    HW181059  12.588   0.512   2.652
26409SOL    HW281060  12.519   0.613   2.562
26410SOL     OW81061  12.941   0.672   6.785
26410SOL    HW181062  12.953   0.578   6.771
26410SOL    HW281063  13.027   0.710   6.769
26411SOL     OW81064   9.897  10.589  12.335
26411SOL    HW181065   9.958  10.563  12.404
26411SOL    HW281066   9.899  10.684  12.335
26412SOL     OW81067   5.250   1.358  11.719
26412SOL    HW181068   5.253   1.263  11.725
26412SOL    HW281069   5.330   1.388  11.761
26413SOL     OW81070   2.487  10.943   5.769
26413SOL    HW181071   2.421  10.991   5.719
26413SOL    HW281072   2.543  10.902   5.703
26414SOL     OW81073  13.083  11.776   0.020
26414SOL    HW181074  13.174  11.769  14.861
26414SOL    HW281075  13.065  11.870   0.020
26415SOL     OW81076   8.136   8.672   9.591
26415SOL    HW181077   8.062   8.651   9.647
26415SOL    HW281078   8.201   8.710   9.651
26416SOL     OW81079   8.885   6.706   8.696
26416SOL    HW181080   8.898   6.798   8.676
26416SOL    HW281081   8.920   6.695   8.784
26417SOL     OW81082   4.715   8.466   6.633
26417SOL    HW181083   4.638   8.412   6.616
26417SOL    HW281084   4.716   8.479   6.728
26418SOL     OW81085   1.620  10.288  13.857
26418SOL    HW181086   1.559  10.226  13.898
26418SOL    HW281087   1.676  10.234  13.802
26419SOL     OW81088   0.907   4.862   2.701
26419SOL    HW181089   0.865   4.779   2.681
26419SOL    HW281090   0.898   4.914   2.621
26420SOL     OW81091  10.916   3.043   7.209
26420SOL    HW181092  11.006   3.031   7.240
26420SOL    HW281093  10.865   2.977   7.257
26421SOL     OW81094   2.768  13.196   4.721
26421SOL    HW181095   2.784  13.102   4.713
26421SOL    HW281096   2.706  13.204   4.793
26422SOL     OW81097  11.521   0.651  10.308
26422SOL    HW181098  11.549   0.561  10.293
26422SOL    HW281099  11.525   0.692  10.221
26423SOL     OW81100   4.327  13.101  13.502
26423SOL    HW181101   4.415  13.087  13.467
26423SOL    HW281102   4.341  13.129  13.593
26424SOL     OW81103  12.386  11.214  10.869
26424SOL    HW181104  12.465  11.228  10.818
26424SOL    HW281105  12.375  11.294  10.920
26425SOL     OW81106   8.061   6.305   0.156
26425SOL    HW181107   8.005   6.378   0.131
26425SOL    HW281108   8.135   6.345   0.200
26426SOL     OW81109  10.907   1.308  10.945
26426SOL    HW181110  10.952   1.350  10.872
26426SOL    HW281111  10.916   1.369  11.018
26427SOL     OW81112   8.006   2.422   5.359
26427SOL    HW181113   7.971   2.449   5.274
26427SOL    HW281114   7.966   2.482   5.421
26428SOL     OW81115   9.398  14.168   8.422
26428SOL    HW181116   9.410  14.074   8.408
26428SOL    HW281117   9.311  14.175   8.462
26429SOL     OW81118   4.935   2.643   3.038
26429SOL    HW181119   4.894   2.715   3.085
26429SOL    HW281120   4.994   2.685   2.975
26430SOL     OW81121   6.033   0.019   2.787
26430SOL    HW181122   6.042   0.106   2.746
26430SOL    HW281123   6.097   0.019   2.857
26431SOL     OW81124  13.270   8.510   8.156
26431SOL    HW181125  13.192   8.499   8.102
26431SOL    HW281126  13.342   8.519   8.093
26432SOL     OW81127   4.842  11.714  13.261
26432SOL    HW181128   4.880  11.641  13.212
26432SOL    HW281129   4.889  11.791  13.229
26433SOL     OW81130   7.497  14.530   8.161
26433SOL    HW181131   7.562  14.475   8.116
26433SOL    HW281132   7.476  14.599   8.099
26434SOL     OW81133   1.947  10.474  10.272
26434SOL    HW181134   1.960  10.569  10.277
26434SOL    HW281135   1.949  10.455  10.178
26435SOL     OW81136   1.026   9.280  10.851
26435SOL    HW181137   0.932   9.278  10.871
26435SOL    HW281138   1.069   9.281  10.937
26436SOL     OW81139   4.071   8.467  11.717
26436SOL    HW181140   4.124   8.542  11.745
26436SOL    HW281141   3.982   8.489  11.745
26437SOL     OW81142   3.546   0.402  14.575
26437SOL    HW181143   3.576   0.388  14.485
26437SOL    HW281144   3.610   0.463  14.612
26438SOL     OW81145   5.716  11.420  13.544
26438SOL    HW181146   5.751  11.499  13.503
26438SOL    HW281147   5.686  11.367  13.471
26439SOL     OW81148   1.024   9.994  11.137
26439SOL    HW181149   1.012  10.015  11.044
26439SOL    HW281150   1.078  10.066  11.170
26440SOL     OW81151   8.355   2.919   3.789
26440SOL    HW181152   8.353   2.946   3.697
26440SOL    HW281153   8.292   2.975   3.832
26441SOL     OW81154   0.044   5.019   7.760
26441SOL    HW181155  14.824   4.992   7.757
26441SOL    HW281156   0.073   5.016   7.669
26442SOL     OW81157  13.378   6.054   8.734
26442SOL    HW181158  13.399   6.131   8.681
26442SOL    HW281159  13.304   6.013   8.689
26443SOL     OW81160  13.026  14.491  13.519
26443SOL    HW181161  12.955  14.525  13.573
26443SOL    HW281162  13.028  14.397  13.540
26444SOL     OW81163   0.724   3.365   6.743
26444SOL    HW181164   0.652   3.370   6.806
26444SOL    HW281165   0.686   3.395   6.661
26445SOL     OW81166   5.886   6.103   8.871
26445SOL    HW181167   5.981   6.108   8.884
26445SOL    HW281168   5.863   6.189   8.836
26446SOL     OW81169  10.500   0.410   1.255
26446SOL    HW181170  10.574   0.436   1.308
26446SOL    HW281171  10.468   0.330   1.296
26447SOL     OW81172   5.808  13.558   4.706
26447SOL    HW181173   5.809  13.484   4.767
26447SOL    HW281174   5.832  13.633   4.760
26448SOL     OW81175   3.442  14.488   5.458
26448SOL    HW181176   3.388  14.546   5.512
26448SOL    HW281177   3.448  14.407   5.509
26449SOL     OW81178  14.017  14.713  11.633
26449SOL    HW181179  14.027  14.655  11.709
26449SOL    HW281180  13.922  14.726  11.626
26450SOL     OW81181  10.129   0.669  13.239
26450SOL    HW181182  10.163   0.640  13.154
26450SOL    HW281183  10.207   0.679  13.294
26451SOL     OW81184   8.407  11.435   8.870
26451SOL    HW181185   8.443  11.378   8.938
26451SOL    HW281186   8.327  11.391   8.842
26452SOL     OW81187   1.286  10.192  12.486
26452SOL    HW181188   1.245  10.177  12.571
26452SOL    HW281189   1.303  10.104  12.452
26453SOL     OW81190   7.935   0.323   0.918
26453SOL    HW181191   7.896   0.391   0.862
26453SOL    HW281192   8.005   0.285   0.865
26454SOL     OW81193   7.043   7.431   1.742
26454SOL    HW181194   6.984   7.362   1.774
26454SOL    HW281195   7.111   7.437   1.809
26455SOL     OW81196   5.601  11.407   7.490
26455SOL    HW181197   5.593  11.473   7.421
26455SOL    HW281198   5.628  11.457   7.567
26456SOL     OW81199   1.190   8.574  12.165
26456SOL    HW181200   1.196   8.667  12.142
26456SOL    HW281201   1.245   8.564  12.242
26457SOL     OW81202  13.175   5.676   7.204
26457SOL    HW181203  13.240   5.693   7.135
26457SOL    HW281204  13.101   5.636   7.158
26458SOL     OW81205   8.809  11.492   6.217
26458SOL    HW181206   8.789  11.408   6.258
26458SOL    HW281207   8.889  11.521   6.260
26459SOL     OW81208   4.584   5.055   3.979
26459SOL    HW181209   4.552   5.103   4.055
26459SOL    HW281210   4.526   5.081   3.908
26460SOL     OW81211   2.635   3.384   5.898
26460SOL    HW181212   2.703   3.351   5.839
26460SOL    HW281213   2.577   3.309   5.912
26461SOL     OW81214   8.491  12.416  10.192
26461SOL    HW181215   8.409  12.384  10.155
26461SOL    HW281216   8.466  12.451  10.278
26462SOL     OW81217  11.171   7.951   9.821
26462SOL    HW181218  11.098   7.964   9.761
26462SOL    HW281219  11.230   7.891   9.775
26463SOL     OW81220   7.484   2.183   2.426
26463SOL    HW181221   7.548   2.120   2.459
26463SOL    HW281222   7.400   2.150   2.458
26464SOL     OW81223  13.276   5.492   6.321
26464SOL    HW181224  13.313   5.544   6.393
26464SOL    HW281225  13.346   5.431   6.298
26465SOL     OW81226   8.502   0.538   4.203
26465SOL    HW181227   8.583   0.486   4.205
26465SOL    HW281228   8.494   0.572   4.292
26466SOL     OW81229   1.155  13.155  11.243
26466SOL    HW181230   1.156  13.231  11.301
26466SOL    HW281231   1.081  13.171  11.185
26467SOL     OW81232  13.058  10.928   8.993
26467SOL    HW181233  13.018  10.989   9.056
26467SOL    HW281234  13.010  10.846   9.006
26468SOL     OW81235  12.859   3.509   9.604
26468SOL    HW181236  12.782   3.454   9.612
26468SOL    HW281237  12.832   3.581   9.547
26469SOL     OW81238   7.019   7.153   4.400
26469SOL    HW181239   7.028   7.119   4.489
26469SOL    HW281240   6.980   7.240   4.411
26470SOL     OW81241  11.236  14.078  12.163
26470SOL    HW181242  11.210  14.158  12.208
26470SOL    HW281243  11.231  14.099  12.070
26471SOL     OW81244   5.318   2.355   3.396
26471SOL    HW181245   5.250   2.357   3.328
26471SOL    HW281246   5.340   2.447   3.410
26472SOL     OW81247  10.785   9.123   5.959
26472SOL    HW181248  10.693   9.146   5.973
26472SOL    HW281249  10.791   9.032   5.987
26473SOL     OW81250   7.877   8.173  11.240
26473SOL    HW181251   7.816   8.173  11.166
26473SOL    HW281252   7.835   8.118  11.306
26474SOL     OW81253  10.476   8.681   2.583
26474SOL    HW181254  10.462   8.774   2.567
26474SOL    HW281255  10.391   8.640   2.567
26475SOL     OW81256  14.524   9.151   1.105
26475SOL    HW181257  14.564   9.143   1.192
26475SOL    HW281258  14.445   9.204   1.120
26476SOL     OW81259   8.066   2.497   1.265
26476SOL    HW181260   8.137   2.558   1.280
26476SOL    HW281261   7.988   2.540   1.299
26477SOL     OW81262  12.936   7.681   3.997
26477SOL    HW181263  12.941   7.645   4.086
26477SOL    HW281264  12.965   7.772   4.007
26478SOL     OW81265  13.889   9.949   6.110
26478SOL    HW181266  13.860   9.878   6.167
26478SOL    HW281267  13.982   9.932   6.095
26479SOL     OW81268   0.625   9.838   8.766
26479SOL    HW181269   0.569   9.860   8.691
26479SOL    HW281270   0.610   9.744   8.779
26480SOL     OW81271  14.227   7.784   9.628
26480SOL    HW181272  14.156   7.727   9.658
26480SOL    HW281273  14.246   7.753   9.539
26481SOL     OW81274   6.049   2.656   3.514
26481SOL    HW181275   5.995   2.582   3.541
26481SOL    HW281276   6.139   2.626   3.527
26482SOL     OW81277   7.521   9.191   9.448
26482SOL    HW181278   7.540   9.281   9.420
26482SOL    HW281279   7.551   9.187   9.539
26483SOL     OW81280   5.239   0.395   3.630
26483SOL    HW181281   5.180   0.449   3.681
26483SOL    HW281282   5.230   0.427   3.540
26484SOL     OW81283   8.546   5.897   0.118
26484SOL    HW181284   8.465   5.937   0.148
26484SOL    HW281285   8.611   5.967   0.120
26485SOL     OW81286   1.303   2.752   5.791
26485SOL    HW181287   1.309   2.700   5.711
26485SOL    HW281288   1.308   2.688   5.862
26486SOL     OW81289   5.332   2.262   0.360
26486SOL    HW181290   5.380   2.257   0.277
26486SOL    HW281291   5.246   2.295   0.335
26487SOL     OW81292   2.937  10.048   3.409
26487SOL    HW181293   2.956  10.103   3.334
26487SOL    HW281294   2.929   9.959   3.373
26488SOL     OW81295   3.779  13.150   8.103
26488SOL    HW181296   3.865  13.156   8.145
26488SOL    HW281297   3.726  13.214   8.150
26489SOL     OW81298   6.706   3.057  11.489
26489SOL    HW181299   6.736   3.124  11.551
26489SOL    HW281300   6.787   3.025  11.448
26490SOL     OW81301  12.060  14.532   3.715
26490SOL    HW181302  12.117  14.481   3.772
26490SOL    HW281303  12.115  14.602   3.682
26491SOL     OW81304  12.777  11.211  10.988
26491SOL    HW181305  12.863  11.169  10.993
26491SOL    HW281306  12.731  11.182  11.067
26492SOL     OW81307  12.787  11.552   4.544
26492SOL    HW181308  12.855  11.615   4.568
26492SOL    HW281309  12.705  11.602   4.553
26493SOL     OW81310   9.060  11.640  11.481
26493SOL    HW181311   8.996  11.578  11.515
26493SOL    HW281312   9.135  11.633  11.539
26494SOL     OW81313   9.417   3.458   8.180
26494SOL    HW181314   9.459   3.497   8.258
26494SOL    HW281315   9.473   3.485   8.107
26495SOL     OW81316   6.426   6.822   0.031
26495SOL    HW181317   6.404   6.835   0.123
26495SOL    HW281318   6.345   6.838  14.856
26496SOL     OW81319   3.875   8.932   1.114
26496SOL    HW181320   3.883   8.898   1.025
26496SOL    HW281321   3.780   8.940   1.128
26497SOL     OW81322   6.492  11.321   6.794
26497SOL    HW181323   6.545  11.348   6.869
26497SOL    HW281324   6.450  11.240   6.822
26498SOL     OW81325   6.921   3.401  11.810
26498SOL    HW181326   6.856   3.406  11.880
26498SOL    HW281327   6.951   3.491  11.798
26499SOL     OW81328  10.873   7.968   6.989
26499SOL    HW181329  10.951   7.945   7.039
26499SOL    HW281330  10.895   7.946   6.899
26500SOL     OW81331   5.570  13.481   5.796
26500SOL    HW181332   5.525  13.559   5.829
26500SOL    HW281333   5.529  13.464   5.712
26501SOL     OW81334  11.518   3.203   5.663
26501SOL    HW181335  11.509   3.109   5.678
26501SOL    HW281336  11.432   3.240   5.686
26502SOL     OW81337   9.341   0.782   5.102
26502SOL    HW181338   9.420   0.764   5.153
26502SOL    HW281339   9.289   0.840   5.157
26503SOL     OW81340   4.228   5.944   8.677
26503SOL    HW181341   4.189   5.870   8.723
26503SOL    HW281342   4.210   6.019   8.733
26504SOL     OW81343   8.420   5.763  13.822
26504SOL    HW181344   8.400   5.793  13.911
26504SOL    HW281345   8.340   5.781  13.772
26505SOL     OW81346   4.689   3.295  12.389
26505SOL    HW181347   4.663   3.363  12.327
26505SOL    HW281348   4.651   3.215  12.354
26506SOL     OW81349   2.053  10.082  11.395
26506SOL    HW181350   2.083  10.137  11.467
26506SOL    HW281351   1.982  10.133  11.354
26507SOL     OW81352  10.682   8.606   8.923
26507SOL    HW181353  10.636   8.523   8.921
26507SOL    HW281354  10.632   8.660   8.984
26508SOL     OW81355  11.016   8.538   0.268
26508SOL    HW181356  11.107   8.535   0.298
26508SOL    HW281357  11.005   8.456   0.219
26509SOL     OW81358   1.037  13.530  13.523
26509SOL    HW181359   0.988  13.535  13.605
26509SOL    HW281360   0.970  13.515  13.456
26510SOL     OW81361   5.369   5.656  10.130
26510SOL    HW181362   5.343   5.748  10.129
26510SOL    HW281363   5.387   5.634  10.039
26511SOL     OW81364  12.438  10.821  11.297
26511SOL    HW181365  12.503  10.768  11.345
26511SOL    HW281366  12.391  10.868  11.366
26512SOL     OW81367   3.857  11.787  10.119
26512SOL    HW181368   3.775  11.739  10.105
26512SOL    HW281369   3.926  11.723  10.101
26513SOL     OW81370  13.924   0.056   3.895
26513SOL    HW181371  13.982   0.057   3.971
26513SOL    HW281372  13.973   0.103   3.827
26514SOL     OW81373  10.661  14.083   4.017
26514SOL    HW181374  10.640  14.040   3.934
26514SOL    HW281375  10.576  14.106   4.055
26515SOL     OW81376   7.468  14.535  13.008
26515SOL    HW181377   7.483  14.445  13.036
26515SOL    HW281378   7.387  14.560  13.051
26516SOL     OW81379   9.367   6.142  12.157
26516SOL    HW181380   9.308   6.145  12.232
26516SOL    HW281381   9.446   6.188  12.187
26517SOL     OW81382  12.218  13.188   0.943
26517SOL    HW181383  12.145  13.159   0.998
26517SOL    HW281384  12.180  13.257   0.888
26518SOL     OW81385   2.022   5.639   9.131
26518SOL    HW181386   2.029   5.622   9.038
26518SOL    HW281387   1.986   5.728   9.137
26519SOL     OW81388   2.096   6.036   9.058
26519SOL    HW181389   2.015   5.992   9.085
26519SOL    HW281390   2.124   6.084   9.135
26520SOL     OW81391   2.017   8.919  13.470
26520SOL    HW181392   2.044   8.969  13.393
26520SOL    HW281393   2.090   8.859  13.487
26521SOL     OW81394   3.977   3.026   6.812
26521SOL    HW181395   3.911   3.094   6.825
26521SOL    HW281396   4.057   3.061   6.852
26522SOL     OW81397  12.115   2.986  11.479
26522SOL    HW181398  12.160   3.044  11.540
26522SOL    HW281399  12.058   3.043  11.428
26523SOL     OW81400   4.378  10.681   3.487
26523SOL    HW181401   4.299  10.634   3.461
26523SOL    HW281402   4.364  10.771   3.457
26524SOL     OW81403   3.361   5.119   0.995
26524SOL    HW181404   3.441   5.168   1.015
26524SOL    HW281405   3.327   5.162   0.916
26525SOL     OW81406   6.419   5.800   3.620
26525SOL    HW181407   6.441   5.885   3.580
26525SOL    HW281408   6.391   5.746   3.547
26526SOL     OW81409   7.789  13.847   3.317
26526SOL    HW181410   7.777  13.794   3.395
26526SOL    HW281411   7.882  13.869   3.317
26527SOL     OW81412   5.156   7.262   8.287
26527SOL    HW181413   5.213   7.339   8.289
26527SOL    HW281414   5.127   7.256   8.196
26528SOL     OW81415   4.221  12.191  10.264
26528SOL    HW181416   4.162  12.124  10.300
26528SOL    HW281417   4.308  12.153  10.274
26529SOL     OW81418   6.453   9.467  13.043
26529SOL    HW181419   6.447   9.457  13.138
26529SOL    HW281420   6.389   9.536  13.022
26530SOL     OW81421   1.384   9.732  11.555
26530SOL    HW181422   1.396   9.775  11.470
26530SOL    HW281423   1.382   9.803  11.619
26531SOL     OW81424  10.051   4.090   2.010
26531SOL    HW181425  10.146   4.085   2.001
26531SOL    HW281426  10.017   4.056   1.928
26532SOL     OW81427   0.337   6.166   5.751
26532SOL    HW181428   0.395   6.093   5.725
26532SOL    HW281429   0.260   6.155   5.696
26533SOL     OW81430   8.468   5.661   5.710
26533SOL    HW181431   8.470   5.596   5.780
26533SOL    HW281432   8.545   5.716   5.726
26534SOL     OW81433   4.461   3.952   7.654
26534SOL    HW181434   4.490   3.910   7.573
26534SOL    HW281435   4.517   4.030   7.661
26535SOL     OW81436  11.041  13.555   0.301
26535SOL    HW181437  11.084  13.470   0.289
26535SOL    HW281438  11.076  13.610   0.231
26536SOL     OW81439   9.073   7.676  13.882
26536SOL    HW181440   9.060   7.770  13.892
26536SOL    HW281441   9.057   7.659  13.789
26537SOL     OW81442   6.776  12.095  13.222
26537SOL    HW181443   6.778  12.007  13.184
26537SOL    HW281444   6.685  12.106  13.251
26538SOL     OW81445   0.866   5.857  13.817
26538SOL    HW181446   0.841   5.772  13.783
26538SOL    HW281447   0.959   5.866  13.796
26539SOL     OW81448   0.060   1.016  11.832
26539SOL    HW181449   0.085   1.103  11.864
26539SOL    HW281450   0.016   0.975  11.906
26540SOL     OW81451  11.136  13.418   4.656
26540SOL    HW181452  11.077  13.454   4.722
26540SOL    HW281453  11.107  13.328   4.644
26541SOL     OW81454   3.010   8.402  12.801
26541SOL    HW181455   3.045   8.440  12.720
26541SOL    HW281456   3.085   8.397  12.860
26542SOL     OW81457   4.358   0.111  14.777
26542SOL    HW181458   4.303   0.131  14.853
26542SOL    HW281459   4.432   0.172  14.785
26543SOL     OW81460   9.824   3.241  11.583
26543SOL    HW181461   9.732   3.215  11.588
26543SOL    HW281462   9.862   3.208  11.665
26544SOL     OW81463  11.573   7.580   1.861
26544SOL    HW181464  11.636   7.607   1.928
26544SOL    HW281465  11.592   7.638   1.787
26545SOL     OW81466  14.160  11.612   4.356
26545SOL    HW181467  14.242  11.592   4.400
26545SOL    HW281468  14.132  11.696   4.393
26546SOL     OW81469   5.113  12.374  14.862
26546SOL    HW181470   5.202  12.340  14.854
26546SOL    HW281471   5.060  12.296   0.006
26547SOL     OW81472  12.765   3.226   3.340
26547SOL    HW181473  12.784   3.319   3.339
26547SOL    HW281474  12.683   3.218   3.390
26548SOL     OW81475  10.814   2.951   4.970
26548SOL    HW181476  10.727   2.990   4.979
26548SOL    HW281477  10.861   3.010   4.910
26549SOL     OW81478   9.873  13.783   5.792
26549SOL    HW181479   9.900  13.875   5.797
26549SOL    HW281480   9.829  13.776   5.707
26550SOL     OW81481   5.179   7.728   4.046
26550SOL    HW181482   5.124   7.689   4.114
26550SOL    HW281483   5.125   7.726   3.967
26551SOL     OW81484   6.305  10.265   5.409
26551SOL    HW181485   6.229  10.294   5.460
26551SOL    HW281486   6.380  10.282   5.465
26552SOL     OW81487  11.296  14.591   4.728
26552SOL    HW181488  11.367  14.553   4.779
26552SOL    HW281489  11.315  14.685   4.726
26553SOL     OW81490   0.411   5.003  10.529
26553SOL    HW181491   0.477   4.943  10.565
26553SOL    HW281492   0.413   5.079  10.587
26554SOL     OW81493   5.463   4.292   6.594
26554SOL    HW181494   5.554   4.300   6.623
26554SOL    HW281495   5.465   4.316   6.502
26555SOL     OW81496   7.430   2.534   4.738
26555SOL    HW181497   7.457   2.625   4.727
26555SOL    HW281498   7.499   2.484   4.694
26556SOL     OW81499   3.361   8.785  11.044
26556SOL    HW181500   3.382   8.696  11.017
26556SOL    HW281501   3.432   8.809  11.104
26557SOL     OW81502  12.479   0.016  12.455
26557SOL    HW181503  12.415   0.068  12.505
26557SOL    HW281504  12.428  14.847  12.386
26558SOL     OW81505   5.126   0.803   8.395
26558SOL    HW181506   5.066   0.830   8.325
26558SOL    HW281507   5.079   0.733   8.440
26559SOL     OW81508   0.050   1.419  12.162
26559SOL    HW181509  14.832   1.431  12.190
26559SOL    HW281510   0.083   1.507  12.147
26560SOL     OW81511  10.135  11.839   4.730
26560SOL    HW181512  10.122  11.850   4.824
26560SOL    HW281513  10.163  11.926   4.700
26561SOL     OW81514   6.059  11.587   3.468
26561SOL    HW181515   6.027  11.497   3.460
26561SOL    HW281516   6.145  11.586   3.426
26562SOL     OW81517   7.732   5.113   1.436
26562SOL    HW181518   7.661   5.155   1.484
26562SOL    HW281519   7.792   5.081   1.503
26563SOL     OW81520   3.579   7.106   3.008
26563SOL    HW181521   3.640   7.171   3.044
26563SOL    HW281522   3.538   7.150   2.933
26564SOL     OW81523  12.371   6.519  12.589
26564SOL    HW181524  12.387   6.502  12.496
26564SOL    HW281525  12.293   6.575  12.590
26565SOL     OW81526   9.299  14.427   9.072
26565SOL    HW181527   9.386  14.388   9.063
26565SOL    HW281528   9.285  14.475   8.990
26566SOL     OW81529   2.789  14.456   9.313
26566SOL    HW181530   2.876  14.496   9.312
26566SOL    HW281531   2.742  14.503   9.382
26567SOL     OW81532   5.234   9.696   0.446
26567SOL    HW181533   5.257   9.733   0.361
26567SOL    HW281534   5.289   9.743   0.508
26568SOL     OW81535  10.564   5.927  10.856
26568SOL    HW181536  10.583   5.924  10.763
26568SOL    HW281537  10.614   6.002  10.889
26569SOL     OW81538  14.764   7.674   1.600
26569SOL    HW181539  14.764   7.650   1.693
26569SOL    HW281540  14.786   7.593   1.554
26570SOL     OW81541   9.552   3.918   5.642
26570SOL    HW181542   9.565   3.839   5.694
26570SOL    HW281543   9.495   3.973   5.696
26571SOL     OW81544  14.505  13.207   3.777
26571SOL    HW181545  14.558  13.173   3.704
26571SOL    HW281546  14.530  13.299   3.784
26572SOL     OW81547   0.952   6.771   4.665
26572SOL    HW181548   0.958   6.696   4.725
26572SOL    HW281549   1.019   6.754   4.599
26573SOL     OW81550   6.392  10.257   0.059
26573SOL    HW181551   6.397  10.188   0.125
26573SOL    HW281552   6.298  10.265   0.039
26574SOL     OW81553   3.664   9.564  10.164
26574SOL    HW181554   3.677   9.547  10.258
26574SOL    HW281555   3.593   9.628  10.161
26575SOL     OW81556   3.969   2.868  11.921
26575SOL    HW181557   4.009   2.866  11.834
26575SOL    HW281558   3.928   2.782  11.931
26576SOL     OW81559  13.732   0.469  14.380
26576SOL    HW181560  13.726   0.433  14.291
26576SOL    HW281561  13.777   0.553  14.369
26577SOL     OW81562   3.029   9.093   3.331
26577SOL    HW181563   3.079   9.160   3.285
26577SOL    HW281564   3.093   9.025   3.351
26578SOL     OW81565   2.641   5.899   0.656
26578SOL    HW181566   2.644   5.990   0.686
26578SOL    HW281567   2.707   5.894   0.587
26579SOL     OW81568   9.179  13.811   2.681
26579SOL    HW181569   9.113  13.848   2.739
26579SOL    HW281570   9.243  13.771   2.740
26580SOL     OW81571   3.449   4.199   4.758
26580SOL    HW181572   3.402   4.168   4.681
26580SOL    HW281573   3.381   4.219   4.822
26581SOL     OW81574   9.369  14.691   8.601
26581SOL    HW181575   9.431  14.674   8.530
26581SOL    HW281576   9.283  14.682   8.560
26582SOL     OW81577  13.719   1.241  11.173
26582SOL    HW181578  13.787   1.215  11.235
26582SOL    HW281579  13.761   1.308  11.118
26583SOL     OW81580   4.952   5.479  14.182
26583SOL    HW181581   4.858   5.478  14.162
26583SOL    HW281582   4.958   5.451  14.274
26584SOL     OW81583  14.220   2.020   0.211
26584SOL    HW181584  14.293   1.976   0.255
26584SOL    HW281585  14.258   2.058   0.132
26585SOL     OW81586   2.538   7.405   6.117
26585SOL    HW181587   2.587   7.340   6.067
26585SOL    HW281588   2.594   7.424   6.193
26586SOL     OW81589  10.481   0.762   5.435
26586SOL    HW181590  10.395   0.757   5.478
26586SOL    HW281591  10.544   0.753   5.507
26587SOL     OW81592   0.084   4.056  13.304
26587SOL    HW181593   0.068   4.128  13.365
26587SOL    HW281594   0.007   4.000  13.311
26588SOL     OW81595  13.923   3.626   4.898
26588SOL    HW181596  13.904   3.712   4.861
26588SOL    HW281597  13.848   3.608   4.955
26589SOL     OW81598  10.384  10.755   2.966
26589SOL    HW181599  10.336  10.833   2.939
26589SOL    HW281600  10.447  10.787   3.031
26590SOL     OW81601  14.344  12.508   4.912
26590SOL    HW181602  14.328  12.503   5.006
26590SOL    HW281603  14.262  12.479   4.872
26591SOL     OW81604  12.406   3.915  14.276
26591SOL    HW181605  12.343   3.986  14.261
26591SOL    HW281606  12.489   3.959  14.291
26592SOL     OW81607   2.325   7.272   4.929
26592SOL    HW181608   2.363   7.203   4.875
26592SOL    HW281609   2.397   7.330   4.949
26593SOL     OW81610   6.806   4.778   1.674
26593SOL    HW181611   6.885   4.742   1.715
26593SOL    HW281612   6.751   4.701   1.657
26594SOL     OW81613  10.309  14.301   1.074
26594SOL    HW181614  10.256  14.229   1.039
26594SOL    HW281615  10.245  14.359   1.117
26595SOL     OW81616  12.629   3.651   8.687
26595SOL    HW181617  12.600   3.718   8.748
26595SOL    HW281618  12.562   3.651   8.618
26596SOL     OW81619   7.782   3.201   2.746
26596SOL    HW181620   7.769   3.226   2.837
26596SOL    HW281621   7.794   3.106   2.749
26597SOL     OW81622  10.393  11.115   5.555
26597SOL    HW181623  10.366  11.085   5.642
26597SOL    HW281624  10.314  11.154   5.517
26598SOL     OW81625   6.357   6.742   1.870
26598SOL    HW181626   6.332   6.754   1.778
26598SOL    HW281627   6.275   6.722   1.915
26599SOL     OW81628   6.578   2.349   9.657
26599SOL    HW181629   6.512   2.373   9.723
26599SOL    HW281630   6.543   2.270   9.617
26600SOL     OW81631   6.406  14.339  13.260
26600SOL    HW181632   6.396  14.334  13.355
26600SOL    HW281633   6.445  14.426  13.245
26601SOL     OW81634   9.645   4.222  10.137
26601SOL    HW181635   9.716   4.159  10.134
26601SOL    HW281636   9.661   4.272  10.217
26602SOL     OW81637   2.152   7.418  13.620
26602SOL    HW181638   2.115   7.345  13.570
26602SOL    HW281639   2.084   7.443  13.681
26603SOL     OW81640  13.659   8.233  10.115
26603SOL    HW181641  13.707   8.184  10.048
26603SOL    HW281642  13.573   8.250  10.075
26604SOL     OW81643   9.849  11.856   7.963
26604SOL    HW181644   9.911  11.872   8.035
26604SOL    HW281645   9.807  11.773   7.986
26605SOL     OW81646   7.899   5.342   1.946
26605SOL    HW181647   7.817   5.297   1.924
26605SOL    HW281648   7.871   5.422   1.990
26606SOL     OW81649   3.021   4.825  11.754
26606SOL    HW181650   3.019   4.762  11.826
26606SOL    HW281651   2.934   4.862  11.751
26607SOL     OW81652   6.055  11.055   5.364
26607SOL    HW181653   6.003  11.104   5.301
26607SOL    HW281654   6.142  11.049   5.324
26608SOL     OW81655   3.232   9.996   3.281
26608SOL    HW181656   3.313   9.946   3.294
26608SOL    HW281657   3.240  10.070   3.343
26609SOL     OW81658   2.555  13.233  10.040
26609SOL    HW181659   2.486  13.182  10.082
26609SOL    HW281660   2.611  13.261  10.112
26610SOL     OW81661  13.361  13.360  14.414
26610SOL    HW181662  13.426  13.293  14.435
26610SOL    HW281663  13.279  13.311  14.405
26611SOL     OW81664   9.788   3.700   6.011
26611SOL    HW181665   9.750   3.681   6.096
26611SOL    HW281666   9.809   3.793   6.014
26612SOL     OW81667  12.538  11.954   7.380
26612SOL    HW181668  12.599  11.882   7.369
26612SOL    HW281669  12.455  11.921   7.346
26613SOL     OW81670   2.725  12.080  10.858
26613SOL    HW181671   2.795  12.065  10.795
26613SOL    HW281672   2.706  12.174  10.851
26614SOL     OW81673  10.158  13.487   2.279
26614SOL    HW181674  10.128  13.501   2.369
26614SOL    HW281675  10.106  13.549   2.227
26615SOL     OW81676   1.579  10.909  12.106
26615SOL    HW181677   1.509  10.973  12.119
26615SOL    HW281678   1.626  10.907  12.189
26616SOL     OW81679   3.192  12.705  10.421
26616SOL    HW181680   3.215  12.698  10.514
26616SOL    HW281681   3.274  12.729  10.378
26617SOL     OW81682  13.701   6.522  10.478
26617SOL    HW181683  13.714   6.451  10.415
26617SOL    HW281684  13.612   6.509  10.511
26618SOL     OW81685   9.619   1.934  10.547
26618SOL    HW181686   9.706   1.961  10.515
26618SOL    HW281687   9.606   1.848  10.508
26619SOL     OW81688  11.998   8.689   3.196
26619SOL    HW181689  12.060   8.624   3.229
26619SOL    HW281690  12.015   8.694   3.102
26620SOL     OW81691  10.101   8.308   5.345
26620SOL    HW181692  10.115   8.239   5.280
26620SOL    HW281693  10.053   8.376   5.298
26621SOL     OW81694  13.765   9.034  11.710
26621SOL    HW181695  13.837   9.086  11.675
26621SOL    HW281696  13.806   8.953  11.739
26622SOL     OW81697   8.246  11.129   1.989
26622SOL    HW181698   8.184  11.072   2.034
26622SOL    HW281699   8.328  11.116   2.035
26623SOL     OW81700   3.168   2.857   0.877
26623SOL    HW181701   3.112   2.916   0.827
26623SOL    HW281702   3.149   2.770   0.843
26624SOL     OW81703   4.076   1.941  10.301
26624SOL    HW181704   4.021   2.019  10.295
26624SOL    HW281705   4.150   1.960  10.242
26625SOL     OW81706   4.817   9.407   7.772
26625SOL    HW181707   4.767   9.335   7.810
26625SOL    HW281708   4.795   9.482   7.826
26626SOL     OW81709   6.885   1.068   2.449
26626SOL    HW181710   6.950   1.016   2.496
26626SOL    HW281711   6.859   1.136   2.511
26627SOL     OW81712   1.712  13.793  10.754
26627SOL    HW181713   1.755  13.794  10.839
26627SOL    HW281714   1.725  13.881  10.719
26628SOL     OW81715  13.628   0.912   6.635
26628SOL    HW181716  13.636   0.823   6.670
26628SOL    HW281717  13.684   0.912   6.557
26629SOL     OW81718  12.820  12.265  10.421
26629SOL    HW181719  12.804  12.171  10.428
26629SOL    HW281720  12.770  12.304  10.493
26630SOL     OW81721   1.329  11.218   9.564
26630SOL    HW181722   1.408  11.214   9.511
26630SOL    HW281723   1.257  11.208   9.502
26631SOL     OW81724   7.534   4.272  11.221
26631SOL    HW181725   7.567   4.186  11.197
26631SOL    HW281726   7.612   4.325  11.236
26632SOL     OW81727   1.232  11.156  10.706
26632SOL    HW181728   1.181  11.079  10.683
26632SOL    HW281729   1.323  11.126  10.704
26633SOL     OW81730   4.805   5.105   1.172
26633SOL    HW181731   4.713   5.123   1.191
26633SOL    HW281732   4.827   5.163   1.099
26634SOL     OW81733   2.739  13.768   6.913
26634SOL    HW181734   2.760  13.675   6.903
26634SOL    HW281735   2.779  13.809   6.836
26635SOL     OW81736  14.629   9.107   1.742
26635SOL    HW181737  14.547   9.059   1.732
26635SOL    HW281738  14.613   9.170   1.811
26636SOL     OW81739   2.688  13.168   3.438
26636SOL    HW181740   2.723  13.135   3.521
26636SOL    HW281741   2.735  13.250   3.424
26637SOL     OW81742   2.047  13.886  10.315
26637SOL    HW181743   2.083  13.816  10.369
26637SOL    HW281744   2.076  13.966  10.358
26638SOL     OW81745   9.855  10.858  11.317
26638SOL    HW181746   9.940  10.900  11.307
26638SOL    HW281747   9.861  10.809  11.400
26639SOL     OW81748   7.533  13.390  12.743
26639SOL    HW181749   7.491  13.369  12.827
26639SOL    HW281750   7.627  13.378  12.760
26640SOL     OW81751  12.810   7.172  11.393
26640SOL    HW181752  12.904   7.167  11.376
26640SOL    HW281753  12.786   7.263  11.373
26641SOL     OW81754   3.938  12.097   1.042
26641SOL    HW181755   3.856  12.108   1.090
26641SOL    HW281756   4.005  12.094   1.110
26642SOL     OW81757   5.792   2.024   2.091
26642SOL    HW181758   5.808   2.038   1.997
26642SOL    HW281759   5.741   1.943   2.094
26643SOL     OW81760   2.484   2.720   3.449
26643SOL    HW181761   2.441   2.797   3.486
26643SOL    HW281762   2.460   2.722   3.356
26644SOL     OW81763   1.175   7.552  14.417
26644SOL    HW181764   1.197   7.461  14.436
26644SOL    HW281765   1.239   7.603  14.467
26645SOL     OW81766   6.481   8.476  13.786
26645SOL    HW181767   6.571   8.495  13.814
26645SOL    HW281768   6.487   8.467  13.690
26646SOL     OW81769  12.799  10.298  11.149
26646SOL    HW181770  12.750  10.242  11.088
26646SOL    HW281771  12.738  10.368  11.170
26647SOL     OW81772   9.780  12.432   9.405
26647SOL    HW181773   9.789  12.474   9.319
26647SOL    HW281774   9.730  12.495   9.457
26648SOL     OW81775  13.925   8.337   1.305
26648SOL    HW181776  13.889   8.256   1.340
26648SOL    HW281777  13.964   8.381   1.381
26649SOL     OW81778  10.365  14.606   7.758
26649SOL    HW181779  10.353  14.566   7.843
26649SOL    HW281780  10.399  14.694   7.777
26650SOL     OW81781   1.384  12.119  10.356
26650SOL    HW181782   1.460  12.143  10.410
26650SOL    HW281783   1.381  12.023  10.361
26651SOL     OW81784   3.322   5.271   1.280
26651SOL    HW181785   3.348   5.247   1.369
26651SOL    HW281786   3.236   5.232   1.268
26652SOL     OW81787   7.955   0.747   5.835
26652SOL    HW181788   7.964   0.697   5.916
26652SOL    HW281789   7.861   0.766   5.829
26653SOL     OW81790   7.186  14.847   7.092
26653SOL    HW181791   7.130  14.796   7.033
26653SOL    HW281792   7.162  14.816   7.179
26654SOL     OW81793  14.085   2.437   0.284
26654SOL    HW181794  14.052   2.526   0.271
26654SOL    HW281795  14.008   2.386   0.305
26655SOL     OW81796  10.195   2.264  10.468
26655SOL    HW181797  10.120   2.239  10.522
26655SOL    HW281798  10.217   2.185  10.418
26656SOL     OW81799  14.612  10.693   9.613
26656SOL    HW181800  14.641  10.665   9.526
26656SOL    HW281801  14.582  10.613   9.656
26657SOL     OW81802   7.430  10.609  13.944
26657SOL    HW181803   7.478  10.527  13.959
26657SOL    HW281804   7.490  10.662  13.891
26658SOL     OW81805   5.040  10.395   5.929
26658SOL    HW181806   4.980  10.423   5.999
26658SOL    HW281807   4.992  10.410   5.848
26659SOL     OW81808   3.345   4.949   1.245
26659SOL    HW181809   3.287   4.885   1.203
26659SOL    HW281810   3.342   5.025   1.187
26660SOL     OW81811   1.440  13.047  11.065
26660SOL    HW181812   1.346  13.067  11.066
26660SOL    HW281813   1.479  13.114  11.121
26661SOL     OW81814   4.110   5.125   5.669
26661SOL    HW181815   4.055   5.179   5.612
26661SOL    HW281816   4.194   5.170   5.673
26662SOL     OW81817   5.708   7.287   6.973
26662SOL    HW181818   5.782   7.302   7.032
26662SOL    HW281819   5.732   7.207   6.925
26663SOL     OW81820   4.485  12.242   3.491
26663SOL    HW181821   4.551  12.284   3.545
26663SOL    HW281822   4.490  12.149   3.513
26664SOL     OW81823   9.746   9.224   1.412
26664SOL    HW181824   9.820   9.237   1.353
26664SOL    HW281825   9.745   9.302   1.467
26665SOL     OW81826   8.316   8.124   2.683
26665SOL    HW181827   8.280   8.121   2.772
26665SOL    HW281828   8.395   8.072   2.688
26666SOL     OW81829   9.077   8.271   1.401
26666SOL    HW181830   9.025   8.301   1.326
26666SOL    HW281831   9.119   8.191   1.371
26667SOL     OW81832   1.340   9.967  11.991
26667SOL    HW181833   1.367   9.878  12.013
26667SOL    HW281834   1.400  10.023  12.040
26668SOL     OW81835   7.632   9.061  12.401
26668SOL    HW181836   7.557   9.102  12.444
26668SOL    HW281837   7.681   9.134  12.364
26669SOL     OW81838   3.561   0.095  14.280
26669SOL    HW181839   3.565   0.011  14.234
26669SOL    HW281840   3.474   0.094  14.322
26670SOL     OW81841   9.336   1.041   9.509
26670SOL    HW181842   9.272   1.106   9.482
26670SOL    HW281843   9.316   1.024   9.601
26671SOL     OW81844   3.505  13.229   0.202
26671SOL    HW181845   3.439  13.261   0.264
26671SOL    HW281846   3.545  13.154   0.246
26672SOL     OW81847   2.102   1.230   8.238
26672SOL    HW181848   2.175   1.275   8.194
26672SOL    HW281849   2.042   1.207   8.167
26673SOL     OW81850   5.486   8.163   8.142
26673SOL    HW181851   5.562   8.138   8.195
26673SOL    HW281852   5.523   8.181   8.056
26674SOL     OW81853  14.077  14.298   6.562
26674SOL    HW181854  14.143  14.327   6.624
26674SOL    HW281855  14.118  14.311   6.476
26675SOL     OW81856  11.432  13.924   2.815
26675SOL    HW181857  11.440  13.932   2.910
26675SOL    HW281858  11.521  13.908   2.784
26676SOL     OW81859   4.595   2.631   3.550
26676SOL    HW181860   4.565   2.695   3.485
26676SOL    HW281861   4.541   2.647   3.627
26677SOL     OW81862  13.355   1.626   0.199
26677SOL    HW181863  13.397   1.543   0.177
26677SOL    HW281864  13.391   1.688   0.136
26678SOL     OW81865   1.939   7.665   7.897
26678SOL    HW181866   1.911   7.630   7.812
26678SOL    HW281867   1.920   7.596   7.959
26679SOL     OW81868  10.852   4.726  13.851
26679SOL    HW181869  10.770   4.739  13.803
26679SOL    HW281870  10.915   4.701  13.784
26680SOL     OW81871  14.667   3.406   4.494
26680SOL    HW181872  14.668   3.471   4.424
26680SOL    HW281873  14.582   3.363   4.485
26681SOL     OW81874   3.286  14.693  14.248
26681SOL    HW181875   3.348  14.693  14.175
26681SOL    HW281876   3.233  14.615  14.235
26682SOL     OW81877   6.409   4.028   7.256
26682SOL    HW181878   6.373   4.102   7.304
26682SOL    HW281879   6.333   3.976   7.231
26683SOL     OW81880   1.199  11.875   0.388
26683SOL    HW181881   1.282  11.912   0.418
26683SOL    HW281882   1.207  11.781   0.401
26684SOL     OW81883   9.135   6.192  10.221
26684SOL    HW181884   9.190   6.270  10.214
26684SOL    HW281885   9.183   6.134  10.281
26685SOL     OW81886  10.482   2.231  11.537
26685SOL    HW181887  10.475   2.137  11.525
26685SOL    HW281888  10.456   2.245  11.628
26686SOL     OW81889   7.379  10.468  13.280
26686SOL    HW181890   7.308  10.415  13.243
26686SOL    HW281891   7.393  10.538  13.216
26687SOL     OW81892   8.119  11.007   2.276
26687SOL    HW181893   8.213  11.019   2.269
26687SOL    HW281894   8.106  10.955   2.355
26688SOL     OW81895   3.769  10.271   3.070
26688SOL    HW181896   3.802  10.289   2.982
26688SOL    HW281897   3.815  10.191   3.097
26689SOL     OW81898   1.765   2.863  11.273
26689SOL    HW181899   1.728   2.775  11.262
26689SOL    HW281900   1.859   2.850  11.280
26690SOL     OW81901   6.983  11.373   0.513
26690SOL    HW181902   6.991  11.313   0.587
26690SOL    HW281903   6.980  11.460   0.553
26691SOL     OW81904   1.435   6.505   4.409
26691SOL    HW181905   1.528   6.487   4.401
26691SOL    HW281906   1.392   6.434   4.362
26692SOL     OW81907   8.033  13.504   8.744
26692SOL    HW181908   8.049  13.426   8.690
26692SOL    HW281909   8.075  13.484   8.827
26693SOL     OW81910   0.486   7.413   2.775
26693SOL    HW181911   0.542   7.378   2.844
26693SOL    HW281912   0.546   7.451   2.711
26694SOL     OW81913   5.179   4.883  13.762
26694SOL    HW181914   5.160   4.794  13.791
26694SOL    HW281915   5.262   4.906  13.805
26695SOL     OW81916   1.964  11.163   7.853
26695SOL    HW181917   2.048  11.129   7.882
26695SOL    HW281918   1.957  11.249   7.894
26696SOL     OW81919  12.667   1.047   0.138
26696SOL    HW181920  12.584   1.001   0.147
26696SOL    HW281921  12.709   1.038   0.223
26697SOL     OW81922  11.629   6.304   7.244
26697SOL    HW181923  11.644   6.369   7.313
26697SOL    HW281924  11.690   6.234   7.263
26698SOL     OW81925  10.343   8.268   5.706
26698SOL    HW181926  10.293   8.334   5.753
26698SOL    HW281927  10.363   8.201   5.772
26699SOL     OW81928   5.626   4.522  12.225
26699SOL    HW181929   5.620   4.614  12.199
26699SOL    HW281930   5.604   4.473  12.146
26700SOL     OW81931  10.465   1.172   6.363
26700SOL    HW181932  10.471   1.266   6.378
26700SOL    HW281933  10.462   1.133   6.451
26701SOL     OW81934   1.339   5.691   1.202
26701SOL    HW181935   1.322   5.623   1.136
26701SOL    HW281936   1.406   5.747   1.162
26702SOL     OW81937   1.926  10.176   7.465
26702SOL    HW181938   1.992  10.246   7.473
26702SOL    HW281939   1.978  10.096   7.456
26703SOL     OW81940  10.412   6.248  11.607
26703SOL    HW181941  10.409   6.155  11.629
26703SOL    HW281942  10.321   6.276  11.607
26704SOL     OW81943   9.975  11.098   9.209
26704SOL    HW181944   9.898  11.056   9.247
26704SOL    HW281945  10.043  11.089   9.276
26705SOL     OW81946  10.607  14.003   1.238
26705SOL    HW181947  10.589  14.039   1.151
26705SOL    HW281948  10.678  14.058   1.272
26706SOL     OW81949   7.297   9.553   3.572
26706SOL    HW181950   7.298   9.645   3.545
26706SOL    HW281951   7.220   9.545   3.627
26707SOL     OW81952   1.769   2.630  11.520
26707SOL    HW181953   1.762   2.541  11.557
26707SOL    HW281954   1.709   2.629  11.445
26708SOL     OW81955   9.934   6.545   9.120
26708SOL    HW181956  10.022   6.530   9.084
26708SOL    HW281957   9.924   6.641   9.119
26709SOL     OW81958  14.290   0.976   8.231
26709SOL    HW181959  14.345   0.929   8.292
26709SOL    HW281960  14.346   0.993   8.155
26710SOL     OW81961   2.578   1.257   1.778
26710SOL    HW181962   2.664   1.295   1.761
26710SOL    HW281963   2.596   1.177   1.827
26711SOL     OW81964   0.903  11.952   3.306
26711SOL    HW181965   0.956  12.025   3.338
26711SOL    HW281966   0.895  11.968   3.212
26712SOL     OW81967  11.229   1.847   3.844
26712SOL    HW181968  11.275   1.931   3.844
26712SOL    HW281969  11.168   1.853   3.771
26713SOL     OW81970   1.624   1.563   0.656
26713SOL    HW181971   1.706   1.564   0.606
26713SOL    HW281972   1.629   1.483   0.708
26714SOL     OW81973   0.410   5.618   9.674
26714SOL    HW181974   0.468   5.547   9.645
26714SOL    HW281975   0.469   5.683   9.712
26715SOL     OW81976   9.541  12.965   0.422
26715SOL    HW181977   9.493  12.963   0.505
26715SOL    HW281978   9.535  13.056   0.393
26716SOL     OW81979  14.188   3.693   4.577
26716SOL    HW181980  14.152   3.615   4.621
26716SOL    HW281981  14.115   3.726   4.525
26717SOL     OW81982   5.925   7.232  12.526
26717SOL    HW181983   5.953   7.205  12.613
26717SOL    HW281984   5.997   7.206  12.468
26718SOL     OW81985   1.463   5.172   2.200
26718SOL    HW181986   1.400   5.244   2.196
26718SOL    HW281987   1.542   5.207   2.159
26719SOL     OW81988  12.070   2.622  14.774
26719SOL    HW181989  12.079   2.567  14.852
26719SOL    HW281990  12.015   2.570  14.716
26720SOL     OW81991  13.692   9.130   4.440
26720SOL    HW181992  13.700   9.088   4.525
26720SOL    HW281993  13.668   9.059   4.380
26721SOL     OW81994   3.901   1.782   5.834
26721SOL    HW181995   3.915   1.701   5.883
26721SOL    HW281996   3.965   1.843   5.870
26722SOL     OW81997  12.872   8.933   7.768
26722SOL    HW181998  12.907   8.852   7.731
26722SOL    HW281999  12.846   8.911   7.857
26723SOL     OW82000   1.591   7.163  11.193
26723SOL    HW182001   1.552   7.247  11.217
26723SOL    HW282002   1.516   7.106  11.177
26724SOL     OW82003   2.051   6.976   0.213
26724SOL    HW182004   1.976   7.020   0.254
26724SOL    HW282005   2.022   6.886   0.201
26725SOL     OW82006  10.879   0.433   1.308
26725SOL    HW182007  10.866   0.381   1.229
26725SOL    HW282008  10.936   0.380   1.364
26726SOL     OW82009  11.737   9.742   4.230
26726SOL    HW182010  11.833   9.739   4.231
26726SOL    HW282011  11.710   9.673   4.289
26727SOL     OW82012   6.538   8.754   7.828
26727SOL    HW182013   6.578   8.840   7.838
26727SOL    HW282014   6.495   8.758   7.742
26728SOL     OW82015  10.205  12.688   8.083
26728SOL    HW182016  10.170  12.694   8.171
26728SOL    HW282017  10.129  12.671   8.027
26729SOL     OW82018  11.113  11.154   7.380
26729SOL    HW182019  11.062  11.092   7.328
26729SOL    HW282020  11.203  11.122   7.374
26730SOL     OW82021  10.367  10.325   5.117
26730SOL    HW182022  10.448  10.274   5.107
26730SOL    HW282023  10.330  10.297   5.200
26731SOL     OW82024  12.890   4.256   4.758
26731SOL    HW182025  12.839   4.176   4.765
26731SOL    HW282026  12.938   4.247   4.675
26732SOL     OW82027  11.763  13.946  13.629
26732SOL    HW182028  11.848  13.921  13.666
26732SOL    HW282029  11.782  14.026  13.580
26733SOL     OW82030   4.316   6.698   2.739
26733SOL    HW182031   4.376   6.697   2.813
26733SOL    HW282032   4.289   6.606   2.729
26734SOL     OW82033   8.308   7.006  14.602
26734SOL    HW182034   8.213   7.009  14.590
26734SOL    HW282035   8.341   7.081  14.552
26735SOL     OW82036  10.051   9.213   1.010
26735SOL    HW182037  10.136   9.197   0.969
26735SOL    HW282038  10.013   9.125   1.020
26736SOL     OW82039  11.454   8.821   0.317
26736SOL    HW182040  11.548   8.801   0.316
26736SOL    HW282041  11.447   8.905   0.272
26737SOL     OW82042   2.731   6.940   7.773
26737SOL    HW182043   2.723   6.910   7.682
26737SOL    HW282044   2.775   6.868   7.818
26738SOL     OW82045   8.736  14.126  10.151
26738SOL    HW182046   8.695  14.118  10.065
26738SOL    HW282047   8.764  14.217  10.156
26739SOL     OW82048   3.238   1.205  10.918
26739SOL    HW182049   3.221   1.284  10.969
26739SOL    HW282050   3.245   1.234  10.828
26740SOL     OW82051   2.167   3.871  10.985
26740SOL    HW182052   2.190   3.947  11.039
26740SOL    HW282053   2.093   3.902  10.932
26741SOL     OW82054   4.508   6.100   8.692
26741SOL    HW182055   4.500   6.185   8.736
26741SOL    HW282056   4.518   6.123   8.599
26742SOL     OW82057   2.263   5.483   8.057
26742SOL    HW182058   2.228   5.445   8.138
26742SOL    HW282059   2.186   5.517   8.011
26743SOL     OW82060   9.732  14.678  13.662
26743SOL    HW182061   9.706  14.768  13.641
26743SOL    HW282062   9.658  14.643  13.712
26744SOL     OW82063  14.103   4.964   4.914
26744SOL    HW182064  14.161   4.930   4.982
26744SOL    HW282065  14.090   4.890   4.854
26745SOL     OW82066  13.253  10.316  10.874
26745SOL    HW182067  13.163  10.334  10.903
26745SOL    HW282068  13.289  10.260  10.943
26746SOL     OW82069   3.087   6.287   0.575
26746SOL    HW182070   3.095   6.263   0.667
26746SOL    HW282071   3.177   6.299   0.545
26747SOL     OW82072   1.844   6.180  13.838
26747SOL    HW182073   1.915   6.116  13.841
26747SOL    HW282074   1.882   6.255  13.794
26748SOL     OW82075  10.495   1.462  10.208
26748SOL    HW182076  10.416   1.409  10.212
26748SOL    HW282077  10.467   1.549  10.238
26749SOL     OW82078   5.372   1.478   6.618
26749SOL    HW182079   5.327   1.563   6.624
26749SOL    HW282080   5.431   1.489   6.544
26750SOL     OW82081  12.411  14.765   7.845
26750SOL    HW182082  12.415  14.841   7.787
26750SOL    HW282083  12.318  14.756   7.867
26751SOL     OW82084   8.264  14.185   6.614
26751SOL    HW182085   8.176  14.153   6.634
26751SOL    HW282086   8.316  14.157   6.689
26752SOL     OW82087   9.106   8.416  11.937
26752SOL    HW182088   9.016   8.447  11.944
26752SOL    HW282089   9.159   8.490  11.966
26753SOL     OW82090  12.545   3.581  11.776
26753SOL    HW182091  12.549   3.615  11.687
26753SOL    HW282092  12.618   3.519  11.782
26754SOL     OW82093   7.892  12.712  14.364
26754SOL    HW182094   7.877  12.783  14.425
26754SOL    HW282095   7.810  12.702  14.316
26755SOL     OW82096  14.835   2.795   0.103
26755SOL    HW182097  14.746   2.788   0.138
26755SOL    HW282098  14.868   2.705   0.101
26756SOL     OW82099   9.804   8.725   1.287
26756SOL    HW182100   9.789   8.786   1.359
26756SOL    HW282101   9.764   8.643   1.315
26757SOL     OW82102   5.306   3.911   3.472
26757SOL    HW182103   5.396   3.912   3.505
26757SOL    HW282104   5.252   3.893   3.549
26758SOL     OW82105  10.137   5.503  12.101
26758SOL    HW182106  10.211   5.510  12.161
26758SOL    HW282107  10.154   5.423  12.051
26759SOL     OW82108   5.121  14.509  12.293
26759SOL    HW182109   5.193  14.567  12.317
26759SOL    HW282110   5.070  14.499  12.373
26760SOL     OW82111   0.475   0.422  13.062
26760SOL    HW182112   0.402   0.360  13.064
26760SOL    HW282113   0.524   0.397  12.984
26761SOL     OW82114  12.728  11.243  14.605
26761SOL    HW182115  12.712  11.151  14.629
26761SOL    HW282116  12.804  11.239  14.547
26762SOL     OW82117   8.790   6.281   1.050
26762SOL    HW182118   8.703   6.253   1.022
26762SOL    HW282119   8.775   6.351   1.112
26763SOL     OW82120   9.685   7.564   0.093
26763SOL    HW182121   9.778   7.557   0.073
26763SOL    HW282122   9.642   7.566   0.007
26764SOL     OW82123   8.715   0.138   9.608
26764SOL    HW182124   8.656   0.081   9.658
26764SOL    HW282125   8.689   0.227   9.634
26765SOL     OW82126   1.818   6.213  14.109
26765SOL    HW182127   1.861   6.214  14.023
26765SOL    HW282128   1.776   6.127  14.113
26766SOL     OW82129   1.515   2.574  14.512
26766SOL    HW182130   1.578   2.638  14.479
26766SOL    HW282131   1.509   2.593  14.606
26767SOL     OW82132   7.603  12.133   8.085
26767SOL    HW182133   7.552  12.184   8.148
26767SOL    HW282134   7.689  12.124   8.126
26768SOL     OW82135   1.224   2.049  10.318
26768SOL    HW182136   1.168   1.972  10.334
26768SOL    HW282137   1.298   2.036  10.377
26769SOL     OW82138   8.521   8.054   3.267
26769SOL    HW182139   8.575   7.980   3.294
26769SOL    HW282140   8.557   8.080   3.182
26770SOL     OW82141  11.163   6.407   6.942
26770SOL    HW182142  11.117   6.353   7.006
26770SOL    HW282143  11.245   6.431   6.985
26771SOL     OW82144   7.768  14.256   0.938
26771SOL    HW182145   7.681  14.230   0.908
26771SOL    HW282146   7.782  14.343   0.899
26772SOL     OW82147  10.709   7.212   7.057
26772SOL    HW182148  10.792   7.216   7.010
26772SOL    HW282149  10.661   7.140   7.015
26773SOL     OW82150   2.950  10.708  14.835
26773SOL    HW182151   2.892  10.716   0.038
26773SOL    HW282152   2.907  10.646  14.777
26774SOL     OW82153   7.989  14.538   3.956
26774SOL    HW182154   7.947  14.453   3.971
26774SOL    HW282155   7.991  14.579   4.042
26775SOL     OW82156   3.071   0.146   1.437
26775SOL    HW182157   3.107   0.178   1.354
26775SOL    HW282158   3.139   0.166   1.502
26776SOL     OW82159  12.777  13.402  12.012
26776SOL    HW182160  12.834  13.360  12.077
26776SOL    HW282161  12.715  13.334  11.988
26777SOL     OW82162   8.464   3.223  13.001
26777SOL    HW182163   8.432   3.313  12.995
26777SOL    HW282164   8.537   3.219  12.939
26778SOL     OW82165   2.593   8.624   5.607
26778SOL    HW182166   2.543   8.684   5.662
26778SOL    HW282167   2.570   8.537   5.639
26779SOL     OW82168   9.413  13.291   0.046
26779SOL    HW182169   9.400  13.381   0.014
26779SOL    HW282170   9.473  13.251  14.856
26780SOL     OW82171   0.447  13.800   2.724
26780SOL    HW182172   0.432  13.725   2.782
26780SOL    HW282173   0.533  13.833   2.750
26781SOL     OW82174  12.529   6.023   1.113
26781SOL    HW182175  12.483   6.014   1.197
26781SOL    HW282176  12.476   5.973   1.051
26782SOL     OW82177  10.448   7.838   5.298
26782SOL    HW182178  10.366   7.886   5.308
26782SOL    HW282179  10.477   7.856   5.208
26783SOL     OW82180   0.028   7.461   3.274
26783SOL    HW182181   0.095   7.396   3.250
26783SOL    HW282182   0.037   7.529   3.207
26784SOL     OW82183   7.968   7.649   8.090
26784SOL    HW182184   7.970   7.731   8.141
26784SOL    HW282185   7.998   7.582   8.152
26785SOL     OW82186   3.105  10.945   7.368
26785SOL    HW182187   3.095  11.027   7.319
26785SOL    HW282188   3.111  10.972   7.459
26786SOL     OW82189   7.409   7.599   6.890
26786SOL    HW182190   7.453   7.520   6.858
26786SOL    HW282191   7.316   7.579   6.883
26787SOL     OW82192   8.490  12.795   9.713
26787SOL    HW182193   8.481  12.742   9.792
26787SOL    HW282194   8.459  12.739   9.642
26788SOL     OW82195   6.392   8.104   0.376
26788SOL    HW182196   6.344   8.183   0.401
26788SOL    HW282197   6.369   8.089   0.284
26789SOL     OW82198   0.226  12.472   2.772
26789SOL    HW182199   0.145  12.492   2.725
26789SOL    HW282200   0.240  12.549   2.828
26790SOL     OW82201   4.393   0.286  12.931
26790SOL    HW182202   4.435   0.335  13.002
26790SOL    HW282203   4.307   0.264  12.965
26791SOL     OW82204  12.896   0.782   2.846
26791SOL    HW182205  12.953   0.785   2.923
26791SOL    HW282206  12.821   0.731   2.875
26792SOL     OW82207   4.399   0.440   1.908
26792SOL    HW182208   4.307   0.415   1.895
26792SOL    HW282209   4.395   0.533   1.928
26793SOL     OW82210   7.950   7.971   7.035
26793SOL    HW182211   7.965   8.043   6.974
26793SOL    HW282212   8.013   7.984   7.105
26794SOL     OW82213  11.154   9.242  14.103
26794SOL    HW182214  11.169   9.336  14.101
26794SOL    HW282215  11.233   9.204  14.064
26795SOL     OW82216  12.183  12.939   5.043
26795SOL    HW182217  12.211  12.963   5.132
26795SOL    HW282218  12.094  12.905   5.055
26796SOL     OW82219  14.483   9.377   6.762
26796SOL    HW182220  14.416   9.335   6.707
26796SOL    HW282221  14.531   9.303   6.800
26797SOL     OW82222  11.554  14.454  11.685
26797SOL    HW182223  11.630  14.396  11.681
26797SOL    HW282224  11.589  14.536  11.720
26798SOL     OW82225   8.310   9.366   4.591
26798SOL    HW182226   8.392   9.395   4.551
26798SOL    HW282227   8.248   9.436   4.574
26799SOL     OW82228  11.052   3.438   9.802
26799SOL    HW182229  11.135   3.439   9.754
26799SOL    HW282230  11.030   3.531   9.814
26800SOL     OW82231   3.934   6.230   0.135
26800SOL    HW182232   3.860   6.288   0.155
26800SOL    HW282233   4.001   6.254   0.199
26801SOL     OW82234   6.424  14.268  14.575
26801SOL    HW182235   6.336  14.289  14.546
26801SOL    HW282236   6.481  14.329  14.529
26802SOL     OW82237   7.582   8.788  10.330
26802SOL    HW182238   7.495   8.788  10.370
26802SOL    HW282239   7.586   8.870  10.281
26803SOL     OW82240   0.263  14.457  11.943
26803SOL    HW182241   0.177  14.414  11.950
26803SOL    HW282242   0.290  14.442  11.853
26804SOL     OW82243   5.175  14.839   6.883
26804SOL    HW182244   5.209  14.750   6.873
26804SOL    HW282245   5.133  14.840   6.969
26805SOL     OW82246   5.765  13.988  12.725
26805SOL    HW182247   5.753  14.069  12.775
26805SOL    HW282248   5.860  13.981  12.713
26806SOL     OW82249   2.759  10.392   5.578
26806SOL    HW182250   2.758  10.299   5.599
26806SOL    HW282251   2.743  10.436   5.662
26807SOL     OW82252   8.222   2.614  10.701
26807SOL    HW182253   8.201   2.669  10.777
26807SOL    HW282254   8.144   2.619  10.646
26808SOL     OW82255   1.512   0.059   0.094
26808SOL    HW182256   1.448  14.869   0.061
26808SOL    HW282257   1.551   0.098   0.016
26809SOL     OW82258  12.630  12.337   0.714
26809SOL    HW182259  12.663  12.247   0.706
26809SOL    HW282260  12.581  12.351   0.633
26810SOL     OW82261   6.192  13.561  14.524
26810SOL    HW182262   6.271  13.563  14.579
26810SOL    HW282263   6.120  13.577  14.585
26811SOL     OW82264  11.534   1.195   7.102
26811SOL    HW182265  11.584   1.202   7.020
26811SOL    HW282266  11.580   1.128   7.153
26812SOL     OW82267   0.132  14.212  14.647
26812SOL    HW182268   0.152  14.281  14.711
26812SOL    HW282269   0.084  14.147  14.698
26813SOL     OW82270   5.893  10.450   8.798
26813SOL    HW182271   5.810  10.402   8.797
26813SOL    HW282272   5.913  10.461   8.891
26814SOL     OW82273   0.370  14.868   1.112
26814SOL    HW182274   0.336  14.778   1.113
26814SOL    HW282275   0.465  14.858   1.112
26815SOL     OW82276  14.266   4.542   7.224
26815SOL    HW182277  14.334   4.609   7.216
26815SOL    HW282278  14.308   4.461   7.195
26816SOL     OW82279  10.063  10.788   1.462
26816SOL    HW182280  10.144  10.737   1.466
26816SOL    HW282281  10.090  10.878   1.479
26817SOL     OW82282  11.256  11.326  14.370
26817SOL    HW182283  11.294  11.346  14.285
26817SOL    HW282284  11.235  11.232  14.366
26818SOL     OW82285  12.079   6.317  12.182
26818SOL    HW182286  12.029   6.253  12.232
26818SOL    HW282287  12.023   6.340  12.108
26819SOL     OW82288   0.296   9.003   0.941
26819SOL    HW182289   0.363   8.957   0.891
26819SOL    HW282290   0.288   8.954   1.023
26820SOL     OW82291  13.074   5.960   4.529
26820SOL    HW182292  13.068   5.926   4.439
26820SOL    HW282293  13.161   6.001   4.533
26821SOL     OW82294  13.515  11.878   8.216
26821SOL    HW182295  13.440  11.842   8.168
26821SOL    HW282296  13.477  11.919   8.294
26822SOL     OW82297   4.311   7.202   8.182
26822SOL    HW182298   4.256   7.175   8.256
26822SOL    HW282299   4.362   7.125   8.159
26823SOL     OW82300  10.790  11.315  14.290
26823SOL    HW182301  10.750  11.364  14.218
26823SOL    HW282302  10.743  11.345  14.368
26824SOL     OW82303  14.129   6.172  11.962
26824SOL    HW182304  14.092   6.102  12.016
26824SOL    HW282305  14.194   6.214  12.018
26825SOL     OW82306  10.524   0.450  11.643
26825SOL    HW182307  10.530   0.386  11.572
26825SOL    HW282308  10.608   0.495  11.642
26826SOL     OW82309   1.254   5.090  14.265
26826SOL    HW182310   1.242   5.059  14.176
26826SOL    HW282311   1.222   5.018  14.320
26827SOL     OW82312   8.691   5.449  14.252
26827SOL    HW182313   8.658   5.364  14.222
26827SOL    HW282314   8.680   5.447  14.347
26828SOL     OW82315   7.579   7.116   0.674
26828SOL    HW182316   7.605   7.039   0.725
26828SOL    HW282317   7.484   7.121   0.684
26829SOL     OW82318   5.327  10.550   0.388
26829SOL    HW182319   5.324  10.565   0.483
26829SOL    HW282320   5.420  10.542   0.369
26830SOL     OW82321   5.041   7.022   2.801
26830SOL    HW182322   5.121   7.058   2.762
26830SOL    HW282323   5.009   6.958   2.737
26831SOL     OW82324  14.626  13.334   5.967
26831SOL    HW182325  14.552  13.282   5.936
26831SOL    HW282326  14.620  13.415   5.917
26832SOL     OW82327   1.826  12.999   6.337
26832SOL    HW182328   1.741  12.978   6.376
26832SOL    HW282329   1.851  13.082   6.378
26833SOL     OW82330   9.594  11.427   1.144
26833SOL    HW182331   9.630  11.393   1.062
26833SOL    HW282332   9.606  11.522   1.139
26834SOL     OW82333   2.022  10.085   9.380
26834SOL    HW182334   2.081  10.034   9.436
26834SOL    HW282335   1.985  10.021   9.320
26835SOL     OW82336   1.013  14.008  10.551
26835SOL    HW182337   0.983  14.095  10.524
26835SOL    HW282338   1.066  13.977  10.478
26836SOL     OW82339   9.287   8.900  11.038
26836SOL    HW182340   9.347   8.936  10.973
26836SOL    HW282341   9.279   8.808  11.014
26837SOL     OW82342   6.429   1.570  10.413
26837SOL    HW182343   6.443   1.572  10.508
26837SOL    HW282344   6.438   1.662  10.386
26838SOL     OW82345   9.174   2.560  14.514
26838SOL    HW182346   9.212   2.571  14.427
26838SOL    HW282347   9.237   2.602  14.573
26839SOL     OW82348   8.945   1.829   2.602
26839SOL    HW182349   8.876   1.845   2.667
26839SOL    HW282350   8.907   1.765   2.541
26840SOL     OW82351  13.402   8.867  11.848
26840SOL    HW182352  13.308   8.858  11.865
26840SOL    HW282353  13.442   8.794  11.896
26841SOL     OW82354   3.842  10.658   2.974
26841SOL    HW182355   3.907  10.651   2.904
26841SOL    HW282356   3.758  10.642   2.930
26842SOL     OW82357   9.719  12.564  14.224
26842SOL    HW182358   9.797  12.619  14.224
26842SOL    HW282359   9.648  12.624  14.197
26843SOL     OW82360  11.668  12.864   7.930
26843SOL    HW182361  11.751  12.848   7.974
26843SOL    HW282362  11.606  12.882   8.001
26844SOL     OW82363   7.669  12.975   8.770
26844SOL    HW182364   7.670  13.061   8.810
26844SOL    HW282365   7.694  12.990   8.678
26845SOL     OW82366   1.893   8.862   8.515
26845SOL    HW182367   1.826   8.926   8.491
26845SOL    HW282368   1.890   8.858   8.610
26846SOL     OW82369   3.649   0.800  12.154
26846SOL    HW182370   3.665   0.711  12.124
26846SOL    HW282371   3.735   0.840  12.158
26847SOL     OW82372   7.884  12.196   7.198
26847SOL    HW182373   7.836  12.218   7.278
26847SOL    HW282374   7.901  12.102   7.206
26848SOL     OW82375   8.932   8.894   6.353
26848SOL    HW182376   8.843   8.860   6.365
26848SOL    HW282377   8.983   8.853   6.423
26849SOL     OW82378   7.729   1.990   7.088
26849SOL    HW182379   7.659   2.036   7.042
26849SOL    HW282380   7.762   2.054   7.151
26850SOL     OW82381   1.191   4.620  11.159
26850SOL    HW182382   1.149   4.691  11.110
26850SOL    HW282383   1.179   4.644  11.251
26851SOL     OW82384  10.724  11.979  14.345
26851SOL    HW182385  10.738  12.054  14.402
26851SOL    HW282386  10.629  11.963  14.348
26852SOL     OW82387   8.831   5.853  10.082
26852SOL    HW182388   8.926   5.846  10.088
26852SOL    HW282389   8.799   5.814  10.163
26853SOL     OW82390  12.333   3.364   9.796
26853SOL    HW182391  12.422   3.336   9.819
26853SOL    HW282392  12.285   3.360   9.879
26854SOL     OW82393  13.578   5.561  13.349
26854SOL    HW182394  13.588   5.486  13.290
26854SOL    HW282395  13.484   5.564  13.369
26855SOL     OW82396   0.223  13.503   2.776
26855SOL    HW182397   0.223  13.460   2.690
26855SOL    HW282398   0.165  13.578   2.765
26856SOL     OW82399   6.770   8.602   8.462
26856SOL    HW182400   6.823   8.589   8.383
26856SOL    HW282401   6.809   8.678   8.504
26857SOL     OW82402   1.529   1.246   6.389
26857SOL    HW182403   1.550   1.158   6.359
26857SOL    HW282404   1.592   1.303   6.344
26858SOL     OW82405  10.011   1.737   9.324
26858SOL    HW182406   9.931   1.697   9.359
26858SOL    HW282407   9.985   1.825   9.299
26859SOL     OW82408   5.402   7.810   7.057
26859SOL    HW182409   5.395   7.840   6.966
26859SOL    HW282410   5.425   7.889   7.106
26860SOL     OW82411   1.144   8.807   6.899
26860SOL    HW182412   1.213   8.819   6.965
26860SOL    HW282413   1.118   8.715   6.907
26861SOL     OW82414   7.309  13.331   9.449
26861SOL    HW182415   7.388  13.365   9.407
26861SOL    HW282416   7.296  13.385   9.526
26862SOL     OW82417  14.002  11.093  13.516
26862SOL    HW182418  14.049  11.010  13.512
26862SOL    HW282419  13.939  11.081  13.587
26863SOL     OW82420   5.096   4.319  12.335
26863SOL    HW182421   5.032   4.247  12.331
26863SOL    HW282422   5.104   4.339  12.428
26864SOL     OW82423   6.546   6.625   9.388
26864SOL    HW182424   6.508   6.640   9.474
26864SOL    HW282425   6.474   6.592   9.335
26865SOL     OW82426  11.947   6.110   0.415
26865SOL    HW182427  12.019   6.050   0.435
26865SOL    HW282428  11.937   6.105   0.320
26866SOL     OW82429   5.038  12.550   4.565
26866SOL    HW182430   5.023  12.643   4.586
26866SOL    HW282431   5.017  12.504   4.646
26867SOL     OW82432  12.685  14.452  12.520
26867SOL    HW182433  12.691  14.545  12.538
26867SOL    HW282434  12.774  14.425  12.499
26868SOL     OW82435   7.434   8.376   0.423
26868SOL    HW182436   7.529   8.374   0.408
26868SOL    HW282437   7.416   8.464   0.455
26869SOL     OW82438   7.720   6.877   3.806
26869SOL    HW182439   7.815   6.887   3.810
26869SOL    HW282440   7.696   6.910   3.719
26870SOL     OW82441   3.036   6.763   8.677
26870SOL    HW182442   2.960   6.820   8.686
26870SOL    HW282443   3.076   6.788   8.595
26871SOL     OW82444   0.405   2.831  11.329
26871SOL    HW182445   0.498   2.836  11.352
26871SOL    HW282446   0.398   2.877  11.246
26872SOL     OW82447   1.053  10.779   0.549
26872SOL    HW182448   0.991  10.711   0.574
26872SOL    HW282449   1.136  10.732   0.536
26873SOL     OW82450  14.485   9.481  14.796
26873SOL    HW182451  14.447   9.395  14.811
26873SOL    HW282452  14.574   9.463  14.765
26874SOL     OW82453   2.284   1.852   4.526
26874SOL    HW182454   2.341   1.922   4.493
26874SOL    HW282455   2.323   1.772   4.492
26875SOL     OW82456   5.253   6.717   0.583
26875SOL    HW182457   5.235   6.650   0.517
26875SOL    HW282458   5.166   6.750   0.607
26876SOL     OW82459   2.560   4.205   1.287
26876SOL    HW182460   2.471   4.171   1.291
26876SOL    HW282461   2.555   4.280   1.227
26877SOL     OW82462   1.434   7.413   3.661
26877SOL    HW182463   1.457   7.475   3.731
26877SOL    HW282464   1.388   7.467   3.596
26878SOL     OW82465   5.106   0.968  14.672
26878SOL    HW182466   5.086   0.988  14.581
26878SOL    HW282467   5.130   0.875  14.672
26879SOL     OW82468   6.416   1.203   6.784
26879SOL    HW182469   6.454   1.149   6.715
26879SOL    HW282470   6.325   1.174   6.789
26880SOL     OW82471   4.624  14.767   4.811
26880SOL    HW182472   4.597  14.686   4.767
26880SOL    HW282473   4.557  14.781   4.878
26881SOL     OW82474   0.336   0.382  14.471
26881SOL    HW182475   0.412   0.350  14.520
26881SOL    HW282476   0.274   0.409  14.539
26882SOL     OW82477  14.038   7.795   1.647
26882SOL    HW182478  14.076   7.851   1.579
26882SOL    HW282479  13.993   7.855   1.705
26883SOL     OW82480   0.690  14.028   6.592
26883SOL    HW182481   0.679  13.933   6.582
26883SOL    HW282482   0.725  14.057   6.508
26884SOL     OW82483   7.453   4.363   9.372
26884SOL    HW182484   7.518   4.356   9.442
26884SOL    HW282485   7.394   4.433   9.401
26885SOL     OW82486   1.546   9.262   8.557
26885SOL    HW182487   1.463   9.285   8.600
26885SOL    HW282488   1.581   9.191   8.612
26886SOL     OW82489  10.478  14.683  11.678
26886SOL    HW182490  10.542  14.619  11.711
26886SOL    HW282491  10.403  14.630  11.650
26887SOL     OW82492  12.460  14.141   4.844
26887SOL    HW182493  12.522  14.115   4.776
26887SOL    HW282494  12.423  14.059   4.876
26888SOL     OW82495   2.856   4.599   1.542
26888SOL    HW182496   2.900   4.628   1.462
26888SOL    HW282497   2.831   4.508   1.524
26889SOL     OW82498   3.633  10.021  11.037
26889SOL    HW182499   3.606  10.092  11.095
26889SOL    HW282500   3.707   9.980  11.082
26890SOL     OW82501   2.534  12.272  12.998
26890SOL    HW182502   2.611  12.324  13.023
26890SOL    HW282503   2.560  12.181  13.012
26891SOL     OW82504   2.360   6.750   5.182
26891SOL    HW182505   2.443   6.791   5.207
26891SOL    HW282506   2.383   6.694   5.108
26892SOL     OW82507   3.713  14.576   5.388
26892SOL    HW182508   3.642  14.538   5.440
26892SOL    HW282509   3.668  14.633   5.326
26893SOL     OW82510   3.084   3.090   3.143
26893SOL    HW182511   3.114   3.173   3.179
26893SOL    HW282512   3.042   3.045   3.216
26894SOL     OW82513   8.725  11.742   8.692
26894SOL    HW182514   8.819  11.756   8.699
26894SOL    HW282515   8.687  11.830   8.695
26895SOL     OW82516  14.235  13.083   2.065
26895SOL    HW182517  14.303  13.094   2.132
26895SOL    HW282518  14.227  13.169   2.024
26896SOL     OW82519   5.347  14.193  12.322
26896SOL    HW182520   5.426  14.150  12.355
26896SOL    HW282521   5.380  14.257  12.258
26897SOL     OW82522   8.164   8.491   8.411
26897SOL    HW182523   8.224   8.566   8.417
26897SOL    HW282524   8.078   8.527   8.430
26898SOL     OW82525   2.809  11.995   5.477
26898SOL    HW182526   2.775  11.945   5.403
26898SOL    HW282527   2.781  11.945   5.554
26899SOL     OW82528   0.121  12.188   7.648
26899SOL    HW182529   0.178  12.170   7.722
26899SOL    HW282530   0.041  12.140   7.667
26900SOL     OW82531   7.294   2.034   7.091
26900SOL    HW182532   7.349   2.073   7.159
26900SOL    HW282533   7.224   2.098   7.076
26901SOL     OW82534   5.885  11.868   3.759
26901SOL    HW182535   5.797  11.906   3.762
26901SOL    HW282536   5.896  11.841   3.668
26902SOL     OW82537   9.651   8.554  14.194
26902SOL    HW182538   9.665   8.545  14.288
26902SOL    HW282539   9.691   8.637  14.171
26903SOL     OW82540   5.085  11.575   9.415
26903SOL    HW182541   5.007  11.593   9.467
26903SOL    HW282542   5.052  11.549   9.329
26904SOL     OW82543   4.172  10.009   1.090
26904SOL    HW182544   4.080  10.035   1.085
26904SOL    HW282545   4.199  10.033   1.179
26905SOL     OW82546   5.315  14.275  12.836
26905SOL    HW182547   5.290  14.278  12.929
26905SOL    HW282548   5.269  14.199  12.801
26906SOL     OW82549   9.131   4.216   2.310
26906SOL    HW182550   9.061   4.210   2.375
26906SOL    HW282551   9.210   4.190   2.357
26907SOL     OW82552   3.147   7.204   3.586
26907SOL    HW182553   3.146   7.111   3.563
26907SOL    HW282554   3.229   7.237   3.551
26908SOL     OW82555  11.951  13.636   2.101
26908SOL    HW182556  11.979  13.681   2.181
26908SOL    HW282557  12.006  13.674   2.032
26909SOL     OW82558   3.347  10.977  13.059
26909SOL    HW182559   3.294  10.900  13.040
26909SOL    HW282560   3.291  11.031  13.115
26910SOL     OW82561  10.671   9.506   6.124
26910SOL    HW182562  10.614   9.453   6.179
26910SOL    HW282563  10.649   9.597   6.147
26911SOL     OW82564   0.728   8.667   7.769
26911SOL    HW182565   0.749   8.689   7.678
26911SOL    HW282566   0.707   8.573   7.766
26912SOL     OW82567  12.304   8.628   7.251
26912SOL    HW182568  12.212   8.632   7.225
26912SOL    HW282569  12.302   8.597   7.342
26913SOL     OW82570   9.088   2.428   3.213
26913SOL    HW182571   9.123   2.412   3.126
26913SOL    HW282572   9.155   2.481   3.256
26914SOL     OW82573   4.113   4.247   7.177
26914SOL    HW182574   4.077   4.336   7.184
26914SOL    HW282575   4.048   4.191   7.221
26915SOL     OW82576   6.848  10.143   3.569
26915SOL    HW182577   6.753  10.137   3.564
26915SOL    HW282578   6.867  10.234   3.545
26916SOL     OW82579   7.557   9.630   5.169
26916SOL    HW182580   7.490   9.646   5.235
26916SOL    HW282581   7.633   9.679   5.198
26917SOL     OW82582   2.867  10.675   9.331
26917SOL    HW182583   2.928  10.669   9.405
26917SOL    HW282584   2.924  10.683   9.254
26918SOL     OW82585  10.836   6.598   4.684
26918SOL    HW182586  10.820   6.506   4.663
26918SOL    HW282587  10.844   6.600   4.779
26919SOL     OW82588   2.778   7.850   7.101
26919SOL    HW182589   2.779   7.775   7.041
26919SOL    HW282590   2.810   7.815   7.184
26920SOL     OW82591   6.708   7.799   6.051
26920SOL    HW182592   6.735   7.826   6.138
26920SOL    HW282593   6.615   7.779   6.059
26921SOL     OW82594   6.287   8.687  13.796
26921SOL    HW182595   6.367   8.636  13.807
26921SOL    HW282596   6.269   8.683  13.702
26922SOL     OW82597   4.628  14.696  12.462
26922SOL    HW182598   4.626  14.624  12.399
26922SOL    HW282599   4.539  14.731  12.462
26923SOL     OW82600  14.559   9.886   3.873
26923SOL    HW182601  14.575   9.853   3.961
26923SOL    HW282602  14.553   9.981   3.883
26924SOL     OW82603  12.276   1.097   6.610
26924SOL    HW182604  12.254   1.009   6.640
26924SOL    HW282605  12.196   1.129   6.568
26925SOL     OW82606  13.107  11.234   9.470
26925SOL    HW182607  13.027  11.277   9.500
26925SOL    HW282608  13.076  11.163   9.413
26926SOL     OW82609  12.822  12.955   5.894
26926SOL    HW182610  12.858  12.912   5.972
26926SOL    HW282611  12.896  12.960   5.834
26927SOL     OW82612  13.787   0.324   4.988
26927SOL    HW182613  13.699   0.346   4.958
26927SOL    HW282614  13.806   0.387   5.057
26928SOL     OW82615   9.782   6.938   3.455
26928SOL    HW182616   9.757   6.956   3.546
26928SOL    HW282617   9.841   7.009   3.432
26929SOL     OW82618   4.617   1.022   8.482
26929SOL    HW182619   4.613   0.959   8.409
26929SOL    HW282620   4.691   1.079   8.460
26930SOL     OW82621   4.058   5.852   4.704
26930SOL    HW182622   4.006   5.800   4.643
26930SOL    HW282623   4.117   5.789   4.745
26931SOL     OW82624   2.997   4.576  12.769
26931SOL    HW182625   2.913   4.549  12.733
26931SOL    HW282626   3.047   4.495  12.778
26932SOL     OW82627   8.603   4.202   9.473
26932SOL    HW182628   8.575   4.276   9.528
26932SOL    HW282629   8.632   4.136   9.536
26933SOL     OW82630  12.039  11.320  11.205
26933SOL    HW182631  12.014  11.381  11.274
26933SOL    HW282632  12.016  11.364  11.123
26934SOL     OW82633   3.683   6.857  14.486
26934SOL    HW182634   3.727   6.778  14.455
26934SOL    HW282635   3.697   6.922  14.417
26935SOL     OW82636   1.551  10.041   2.211
26935SOL    HW182637   1.526   9.978   2.279
26935SOL    HW282638   1.467  10.070   2.173
26936SOL     OW82639   0.587  13.243  14.720
26936SOL    HW182640   0.549  13.173  14.773
26936SOL    HW282641   0.623  13.199  14.643
26937SOL     OW82642   2.539   7.060  14.758
26937SOL    HW182643   2.625   7.073  14.798
26937SOL    HW282644   2.495   7.145  14.768
26938SOL     OW82645  12.970  14.219   4.695
26938SOL    HW182646  12.878  14.239   4.710
26938SOL    HW282647  13.007  14.300   4.659
26939SOL     OW82648   2.236  14.012  12.463
26939SOL    HW182649   2.239  14.091  12.409
26939SOL    HW282650   2.326  13.981  12.466
26940SOL     OW82651   8.991  14.730  10.599
26940SOL    HW182652   8.990  14.635  10.595
26940SOL    HW282653   9.048  14.758  10.528
26941SOL     OW82654   1.553   0.617   3.406
26941SOL    HW182655   1.618   0.560   3.365
26941SOL    HW282656   1.556   0.595   3.499
26942SOL     OW82657  13.398  14.168   0.090
26942SOL    HW182658  13.359  14.093   0.045
26942SOL    HW282659  13.405  14.236   0.023
26943SOL     OW82660   9.736   5.944  11.790
26943SOL    HW182661   9.742   6.039  11.791
26943SOL    HW282662   9.675   5.922  11.861
26944SOL     OW82663   3.523   8.170   0.947
26944SOL    HW182664   3.604   8.221   0.941
26944SOL    HW282665   3.485   8.194   1.031
26945SOL     OW82666   1.174   8.982   3.057
26945SOL    HW182667   1.243   9.017   3.114
26945SOL    HW282668   1.202   8.893   3.036
26946SOL     OW82669  14.165   4.540   6.033
26946SOL    HW182670  14.096   4.570   5.974
26946SOL    HW282671  14.147   4.447   6.045
26947SOL     OW82672  12.421   6.432   5.141
26947SOL    HW182673  12.425   6.516   5.187
26947SOL    HW282674  12.339   6.436   5.091
26948SOL     OW82675  11.360  12.366   9.505
26948SOL    HW182676  11.408  12.449   9.509
26948SOL    HW282677  11.277  12.384   9.549
26949SOL     OW82678   2.551  14.551   4.214
26949SOL    HW182679   2.547  14.608   4.137
26949SOL    HW282680   2.481  14.583   4.271
26950SOL     OW82681  13.064   0.891   7.617
26950SOL    HW182682  13.075   0.903   7.523
26950SOL    HW282683  13.148   0.857   7.647
26951SOL     OW82684  12.746  12.288  14.383
26951SOL    HW182685  12.826  12.263  14.339
26951SOL    HW282686  12.708  12.205  14.413
26952SOL     OW82687   4.294   6.758   0.780
26952SOL    HW182688   4.242   6.821   0.730
26952SOL    HW282689   4.255   6.673   0.761
26953SOL     OW82690   1.935   6.381   7.159
26953SOL    HW182691   1.933   6.301   7.107
26953SOL    HW282692   1.916   6.354   7.248
26954SOL     OW82693  13.182   8.552  12.290
26954SOL    HW182694  13.150   8.462  12.278
26954SOL    HW282695  13.277   8.544  12.290
26955SOL     OW82696  11.568  13.999  13.835
26955SOL    HW182697  11.480  13.995  13.874
26955SOL    HW282698  11.552  14.019  13.743
26956SOL     OW82699   4.899  13.208  13.202
26956SOL    HW182700   4.953  13.285  13.184
26956SOL    HW282701   4.960  13.135  13.196
26957SOL     OW82702   8.831  10.353   1.208
26957SOL    HW182703   8.890  10.377   1.137
26957SOL    HW282704   8.884  10.300   1.267
26958SOL     OW82705   3.099   6.755  10.205
26958SOL    HW182706   3.110   6.730  10.297
26958SOL    HW282707   3.052   6.838  10.209
26959SOL     OW82708   3.407   8.960  10.488
26959SOL    HW182709   3.321   8.980  10.525
26959SOL    HW282710   3.397   8.871  10.452
26960SOL     OW82711   9.820   6.024  12.203
26960SOL    HW182712   9.856   6.106  12.237
26960SOL    HW282713   9.892   5.986  12.153
26961SOL     OW82714   9.244  12.853  14.833
26961SOL    HW182715   9.202  12.793   0.022
26961SOL    HW282716   9.201  12.837  14.749
26962SOL     OW82717   9.363   8.242   5.829
26962SOL    HW182718   9.304   8.301   5.782
26962SOL    HW282719   9.306   8.190   5.885
26963SOL     OW82720   1.990  12.054   9.578
26963SOL    HW182721   2.014  11.976   9.529
26963SOL    HW282722   1.928  12.101   9.520
26964SOL     OW82723   2.957   5.719  11.056
26964SOL    HW182724   2.996   5.688  10.974
26964SOL    HW282725   2.994   5.662  11.123
26965SOL     OW82726   2.078   3.113   8.368
26965SOL    HW182727   2.078   3.172   8.443
26965SOL    HW282728   2.114   3.165   8.296
26966SOL     OW82729  14.521  11.139  14.469
26966SOL    HW182730  14.607  11.165  14.499
26966SOL    HW282731  14.506  11.190  14.390
26967SOL     OW82732  10.756   3.145   3.770
26967SOL    HW182733  10.782   3.060   3.735
26967SOL    HW282734  10.807   3.208   3.719
26968SOL     OW82735   3.777  12.105   5.056
26968SOL    HW182736   3.846  12.160   5.018
26968SOL    HW282737   3.823  12.030   5.092
26969SOL     OW82738   6.216  11.422   2.851
26969SOL    HW182739   6.233  11.344   2.904
26969SOL    HW282740   6.164  11.478   2.909
26970SOL     OW82741   8.948   6.264   4.024
26970SOL    HW182742   8.931   6.249   3.931
26970SOL    HW282743   8.876   6.220   4.070
26971SOL     OW82744  14.323  10.862   4.596
26971SOL    HW182745  14.354  10.832   4.681
26971SOL    HW282746  14.241  10.906   4.615
26972SOL     OW82747   8.944   3.555   6.363
26972SOL    HW182748   8.919   3.638   6.324
26972SOL    HW282749   9.037   3.566   6.385
26973SOL     OW82750   8.291   0.217  12.668
26973SOL    HW182751   8.359   0.248  12.728
26973SOL    HW282752   8.209   0.231  12.714
26974SOL     OW82753   5.344   6.426   0.721
26974SOL    HW182754   5.262   6.472   0.704
26974SOL    HW282755   5.396   6.438   0.641
26975SOL     OW82756   6.427  11.351   3.754
26975SOL    HW182757   6.345  11.383   3.792
26975SOL    HW282758   6.490  11.358   3.825
26976SOL     OW82759   9.241   6.102  11.469
26976SOL    HW182760   9.211   6.192  11.457
26976SOL    HW282761   9.263   6.096  11.561
26977SOL     OW82762   1.735   2.248   6.750
26977SOL    HW182763   1.790   2.266   6.826
26977SOL    HW282764   1.725   2.333   6.707
26978SOL     OW82765  12.959   0.946   9.634
26978SOL    HW182766  12.926   0.926   9.547
26978SOL    HW282767  12.889   0.995   9.676
26979SOL     OW82768  10.942   6.922   5.071
26979SOL    HW182769  11.033   6.894   5.063
26979SOL    HW282770  10.947   7.011   5.106
26980SOL     OW82771   7.125  14.525  14.442
26980SOL    HW182772   7.055  14.487  14.388
26980SOL    HW282773   7.185  14.564  14.378
26981SOL     OW82774   3.051   9.544   5.518
26981SOL    HW182775   3.096   9.628   5.517
26981SOL    HW282776   3.118   9.481   5.545
26982SOL     OW82777  13.952   4.541   7.034
26982SOL    HW182778  14.000   4.597   7.096
26982SOL    HW282779  13.864   4.578   7.032
26983SOL     OW82780   1.238   3.807  13.767
26983SOL    HW182781   1.283   3.729  13.732
26983SOL    HW282782   1.148   3.778  13.780
26984SOL     OW82783  13.333   9.553   4.012
26984SOL    HW182784  13.405   9.520   4.066
26984SOL    HW282785  13.289   9.475   3.979
26985SOL     OW82786   6.963  13.007   3.852
26985SOL    HW182787   6.883  13.060   3.843
26985SOL    HW282788   7.013  13.026   3.773
26986SOL     OW82789  12.735   0.595   3.202
26986SOL    HW182790  12.789   0.667   3.170
26986SOL    HW282791  12.656   0.637   3.235
26987SOL     OW82792   0.801   4.307  11.480
26987SOL    HW182793   0.821   4.220  11.447
26987SOL    HW282794   0.753   4.291  11.562
26988SOL     OW82795  14.621   4.009   9.690
26988SOL    HW182796  14.561   3.943   9.723
26988SOL    HW282797  14.597   4.020   9.598
26989SOL     OW82798   8.193   7.569  12.449
26989SOL    HW182799   8.205   7.603  12.360
26989SOL    HW282800   8.142   7.489  12.437
26990SOL     OW82801  10.528  14.817  11.431
26990SOL    HW182802  10.492  14.731  11.454
26990SOL    HW282803  10.483   0.006  11.490
26991SOL     OW82804  14.408  11.797   2.848
26991SOL    HW182805  14.315  11.780   2.865
26991SOL    HW282806  14.408  11.857   2.773
26992SOL     OW82807  10.472  12.641  14.234
26992SOL    HW182808  10.441  12.730  14.251
26992SOL    HW282809  10.526  12.650  14.155
26993SOL     OW82810   4.735  12.043   4.639
26993SOL    HW182811   4.651  12.066   4.677
26993SOL    HW282812   4.792  12.117   4.659
26994SOL     OW82813   7.653   3.845  11.513
26994SOL    HW182814   7.742   3.810  11.522
26994SOL    HW282815   7.596   3.771  11.531
26995SOL     OW82816   7.708  14.071   6.326
26995SOL    HW182817   7.634  14.055   6.384
26995SOL    HW282818   7.669  14.073   6.238
26996SOL     OW82819   8.816   9.783   1.999
26996SOL    HW182820   8.880   9.761   1.931
26996SOL    HW282821   8.767   9.857   1.962
26997SOL     OW82822   6.372   6.808   9.681
26997SOL    HW182823   6.442   6.873   9.687
26997SOL    HW282824   6.339   6.801   9.771
26998SOL     OW82825   8.732   7.842  13.037
26998SOL    HW182826   8.664   7.844  13.105
26998SOL    HW282827   8.712   7.764  12.985
26999SOL     OW82828   6.897   0.223   6.685
26999SOL    HW182829   6.961   0.224   6.757
26999SOL    HW282830   6.942   0.267   6.613
27000SOL     OW82831   9.218   1.161   6.389
27000SOL    HW182832   9.251   1.227   6.329
27000SOL    HW282833   9.297   1.117   6.422
27001SOL     OW82834  14.244   9.472   2.807
27001SOL    HW182835  14.259   9.391   2.856
27001SOL    HW282836  14.302   9.536   2.847
27002SOL     OW82837  14.635   8.570   4.236
27002SOL    HW182838  14.667   8.618   4.160
27002SOL    HW282839  14.707   8.573   4.299
27003SOL     OW82840   1.539  10.600   0.740
27003SOL    HW182841   1.464  10.551   0.773
27003SOL    HW282842   1.611  10.575   0.798
27004SOL     OW82843   1.315  10.735   1.295
27004SOL    HW182844   1.303  10.640   1.295
27004SOL    HW282845   1.403  10.748   1.331
27005SOL     OW82846  14.012   5.637  14.528
27005SOL    HW182847  14.033   5.730  14.537
27005SOL    HW282848  13.981   5.610  14.614
27006SOL     OW82849  12.325  12.353   1.968
27006SOL    HW182850  12.366  12.299   2.036
27006SOL    HW282851  12.307  12.437   2.011
27007SOL     OW82852   2.438   0.375   0.705
27007SOL    HW182853   2.350   0.380   0.669
27007SOL    HW282854   2.427   0.330   0.789
27008SOL     OW82855   7.486  13.499  13.786
27008SOL    HW182856   7.395  13.486  13.813
27008SOL    HW282857   7.535  13.434  13.836
27009SOL     OW82858  10.157   0.023   5.119
27009SOL    HW182859  10.098   0.053   5.189
27009SOL    HW282860  10.209   0.100   5.098
27010SOL     OW82861   5.720   4.069   2.158
27010SOL    HW182862   5.634   4.083   2.197
27010SOL    HW282863   5.701   4.036   2.070
27011SOL     OW82864  14.816   8.742   6.845
27011SOL    HW182865  14.755   8.682   6.888
27011SOL    HW282866   0.031   8.709   6.868
27012SOL     OW82867  10.800  10.415  12.143
27012SOL    HW182868  10.832  10.382  12.227
27012SOL    HW282869  10.757  10.340  12.103
27013SOL     OW82870   5.045  10.179   1.372
27013SOL    HW182871   5.059  10.201   1.280
27013SOL    HW282872   5.069  10.087   1.379
27014SOL     OW82873   3.807   5.638   3.974
27014SOL    HW182874   3.780   5.721   4.013
27014SOL    HW282875   3.897   5.624   4.005
27015SOL     OW82876  10.008   4.626   1.693
27015SOL    HW182877   9.995   4.597   1.783
27015SOL    HW282878  10.039   4.548   1.647
27016SOL     OW82879   0.693   1.912  10.262
27016SOL    HW182880   0.708   1.995  10.216
27016SOL    HW282881   0.620   1.872  10.215
27017SOL     OW82882  13.412   8.358   0.296
27017SOL    HW182883  13.481   8.419   0.322
27017SOL    HW282884  13.379   8.392   0.212
27018SOL     OW82885   7.557   0.189  12.802
27018SOL    HW182886   7.600   0.256  12.749
27018SOL    HW282887   7.465   0.194  12.778
27019SOL     OW82888   6.593   8.053   9.418
27019SOL    HW182889   6.563   7.993   9.351
27019SOL    HW282890   6.589   8.003   9.500
27020SOL     OW82891   9.923   4.509  10.669
27020SOL    HW182892   9.966   4.594  10.678
27020SOL    HW282893   9.946   4.479  10.581
27021SOL     OW82894   2.963   4.173  12.571
27021SOL    HW182895   2.967   4.080  12.547
27021SOL    HW282896   2.872   4.197  12.556
27022SOL     OW82897  12.295  10.590  13.085
27022SOL    HW182898  12.223  10.599  13.022
27022SOL    HW282899  12.374  10.591  13.031
27023SOL     OW82900   0.612   7.712   6.394
27023SOL    HW182901   0.599   7.640   6.456
27023SOL    HW282902   0.579   7.789   6.440
27024SOL     OW82903   1.494   2.852   7.180
27024SOL    HW182904   1.405   2.860   7.214
27024SOL    HW282905   1.482   2.832   7.087
27025SOL     OW82906   8.659  11.091  13.350
27025SOL    HW182907   8.580  11.108  13.298
27025SOL    HW282908   8.676  11.173  13.396
27026SOL     OW82909   9.094  12.870   8.742
27026SOL    HW182910   9.122  12.856   8.832
27026SOL    HW282911   9.175  12.895   8.696
27027SOL     OW82912  12.036  13.617   4.409
27027SOL    HW182913  11.985  13.586   4.484
27027SOL    HW282914  11.970  13.641   4.344
27028SOL     OW82915   0.325   1.049   2.525
27028SOL    HW182916   0.317   1.144   2.513
27028SOL    HW282917   0.410   1.037   2.567
27029SOL     OW82918   7.499   1.714   6.629
27029SOL    HW182919   7.489   1.657   6.705
27029SOL    HW282920   7.554   1.786   6.660
27030SOL     OW82921   0.360  10.663  13.246
27030SOL    HW182922   0.354  10.569  13.262
27030SOL    HW282923   0.311  10.676  13.165
27031SOL     OW82924   7.551   6.490   1.628
27031SOL    HW182925   7.517   6.441   1.553
27031SOL    HW282926   7.593   6.566   1.589
27032SOL     OW82927   8.361   1.898   3.528
27032SOL    HW182928   8.455   1.894   3.511
27032SOL    HW282929   8.338   1.990   3.517
27033SOL     OW82930   1.894   1.812  12.727
27033SOL    HW182931   1.885   1.829  12.633
27033SOL    HW282932   1.804   1.812  12.760
27034SOL     OW82933   1.679  10.631   3.093
27034SOL    HW182934   1.643  10.720   3.099
27034SOL    HW282935   1.626  10.580   3.154
27035SOL     OW82936   6.816  10.160   0.500
27035SOL    HW182937   6.853  10.106   0.431
27035SOL    HW282938   6.892  10.192   0.549
27036SOL     OW82939  11.997   2.247  11.710
27036SOL    HW182940  11.904   2.223  11.716
27036SOL    HW282941  12.002   2.304  11.634
27037SOL     OW82942   8.362  12.399   0.109
27037SOL    HW182943   8.419  12.331   0.073
27037SOL    HW282944   8.369  12.472   0.047
27038SOL     OW82945   3.959   4.156  14.206
27038SOL    HW182946   3.971   4.136  14.114
27038SOL    HW282947   4.048   4.171  14.239
27039SOL     OW82948   9.936   4.092   4.377
27039SOL    HW182949   9.857   4.050   4.342
27039SOL    HW282950   9.902   4.169   4.424
27040SOL     OW82951  11.700   6.214  11.738
27040SOL    HW182952  11.760   6.139  11.729
27040SOL    HW282953  11.627   6.180  11.790
27041SOL     OW82954   2.836   3.270  13.716
27041SOL    HW182955   2.770   3.339  13.710
27041SOL    HW282956   2.900   3.303  13.779
27042SOL     OW82957   4.976   2.222  13.620
27042SOL    HW182958   4.936   2.287  13.562
27042SOL    HW282959   4.942   2.244  13.707
27043SOL     OW82960   1.443  11.802   3.348
27043SOL    HW182961   1.407  11.866   3.287
27043SOL    HW282962   1.473  11.730   3.293
27044SOL     OW82963   3.574   6.573   2.101
27044SOL    HW182964   3.591   6.501   2.163
27044SOL    HW282965   3.486   6.555   2.068
27045SOL     OW82966  14.489  14.151   8.920
27045SOL    HW182967  14.559  14.167   8.984
27045SOL    HW282968  14.493  14.227   8.861
27046SOL     OW82969   7.720  10.743   2.308
27046SOL    HW182970   7.669  10.662   2.313
27046SOL    HW282971   7.774  10.742   2.387
27047SOL     OW82972   2.495   0.386  13.630
27047SOL    HW182973   2.444   0.319  13.586
27047SOL    HW282974   2.453   0.469  13.606
27048SOL     OW82975   3.781   8.951   9.297
27048SOL    HW182976   3.722   8.927   9.369
27048SOL    HW282977   3.725   8.947   9.219
27049SOL     OW82978   2.611   6.941   7.248
27049SOL    HW182979   2.621   7.034   7.226
27049SOL    HW282980   2.524   6.918   7.216
27050SOL     OW82981   7.526  10.753   6.173
27050SOL    HW182982   7.478  10.780   6.251
27050SOL    HW282983   7.461  10.710   6.118
27051SOL     OW82984   0.155  10.017  12.566
27051SOL    HW182985   0.104  10.097  12.577
27051SOL    HW282986   0.114   9.954  12.626
27052SOL     OW82987   0.930   2.825  10.265
27052SOL    HW182988   1.001   2.764  10.287
27052SOL    HW282989   0.968   2.912  10.283
27053SOL     OW82990   4.997  12.746   3.264
27053SOL    HW182991   5.090  12.724   3.255
27053SOL    HW282992   4.954  12.663   3.283
27054SOL     OW82993   5.949   5.036   4.546
27054SOL    HW182994   5.935   4.964   4.607
27054SOL    HW282995   6.043   5.055   4.553
27055SOL     OW82996   6.638  13.122   1.101
27055SOL    HW182997   6.595  13.144   1.183
27055SOL    HW282998   6.677  13.036   1.116
27056SOL     OW82999   4.097  11.753   3.558
27056SOL    HW183000   4.176  11.714   3.596
27056SOL    HW283001   4.130  11.822   3.500
27057SOL     OW83002   3.352  11.637  10.265
27057SOL    HW183003   3.324  11.696  10.336
27057SOL    HW283004   3.344  11.550  10.302
27058SOL     OW83005   7.250  14.420  12.792
27058SOL    HW183006   7.326  14.434  12.849
27058SOL    HW283007   7.182  14.476  12.829
27059SOL     OW83008   3.664   1.906   1.132
27059SOL    HW183009   3.653   1.901   1.037
27059SOL    HW283010   3.631   1.822   1.165
27060SOL     OW83011  14.870   2.369   7.796
27060SOL    HW183012  14.794   2.421   7.769
27060SOL    HW283013  14.834   2.285   7.822
27061SOL     OW83014   2.503   2.958   7.810
27061SOL    HW183015   2.462   3.021   7.869
27061SOL    HW283016   2.451   2.963   7.730
27062SOL     OW83017  11.249   2.532   7.720
27062SOL    HW183018  11.325   2.486   7.685
27062SOL    HW283019  11.177   2.508   7.661
27063SOL     OW83020   2.788  14.781  11.594
27063SOL    HW183021   2.865  14.837  11.600
27063SOL    HW283022   2.746  14.791  11.680
27064SOL     OW83023   9.265   7.078   9.677
27064SOL    HW183024   9.315   7.135   9.618
27064SOL    HW283025   9.191   7.131   9.705
27065SOL     OW83026   6.417   5.403   2.051
27065SOL    HW183027   6.373   5.349   1.985
27065SOL    HW283028   6.360   5.478   2.063
27066SOL     OW83029  14.467  11.007   0.337
27066SOL    HW183030  14.399  11.053   0.287
27066SOL    HW283031  14.423  10.929   0.371
27067SOL     OW83032   8.751   6.280   2.825
27067SOL    HW183033   8.684   6.244   2.883
27067SOL    HW283034   8.834   6.247   2.859
27068SOL     OW83035   7.815   5.862   0.594
27068SOL    HW183036   7.761   5.837   0.669
27068SOL    HW283037   7.905   5.852   0.625
27069SOL     OW83038   7.374  13.939   9.992
27069SOL    HW183039   7.455  13.923   9.943
27069SOL    HW283040   7.304  13.916   9.932
27070SOL     OW83041   0.487   8.144  13.157
27070SOL    HW183042   0.484   8.211  13.089
27070SOL    HW283043   0.465   8.063  13.111
27071SOL     OW83044   7.646   8.601   8.382
27071SOL    HW183045   7.574   8.593   8.319
27071SOL    HW283046   7.612   8.563   8.463
27072SOL     OW83047   6.431   9.782   9.728
27072SOL    HW183048   6.463   9.826   9.806
27072SOL    HW283049   6.364   9.841   9.693
27073SOL     OW83050  11.449  11.617   0.770
27073SOL    HW183051  11.473  11.709   0.761
27073SOL    HW283052  11.355  11.614   0.754
27074SOL     OW83053   5.624   3.713  12.681
27074SOL    HW183054   5.533   3.682  12.677
27074SOL    HW283055   5.617   3.802  12.714
27075SOL     OW83056   0.592  12.222   9.619
27075SOL    HW183057   0.550  12.287   9.676
27075SOL    HW283058   0.686  12.234   9.634
27076SOL     OW83059   7.970   0.311  13.584
27076SOL    HW183060   7.900   0.299  13.649
27076SOL    HW283061   8.024   0.233  13.592
27077SOL     OW83062  13.189   8.814   7.803
27077SOL    HW183063  13.202   8.844   7.713
27077SOL    HW283064  13.104   8.770   7.802
27078SOL     OW83065   8.158  11.543   1.844
27078SOL    HW183066   8.245  11.504   1.835
27078SOL    HW283067   8.106  11.503   1.774
27079SOL     OW83068   6.426   4.452   3.721
27079SOL    HW183069   6.482   4.527   3.701
27079SOL    HW283070   6.443   4.434   3.814
27080SOL     OW83071   1.277   0.452   4.422
27080SOL    HW183072   1.293   0.546   4.428
27080SOL    HW283073   1.189   0.445   4.387
27081SOL     OW83074   8.602   5.822   6.305
27081SOL    HW183075   8.589   5.916   6.311
27081SOL    HW283076   8.514   5.785   6.304
27082SOL     OW83077   5.469  10.065   8.048
27082SOL    HW183078   5.534  10.089   8.114
27082SOL    HW283079   5.398  10.129   8.059
27083SOL     OW83080  12.739   3.327  12.526
27083SOL    HW183081  12.708   3.398  12.582
27083SOL    HW283082  12.833   3.344  12.517
27084SOL     OW83083   4.992  10.686   7.238
27084SOL    HW183084   4.960  10.694   7.148
27084SOL    HW283085   5.071  10.633   7.231
27085SOL     OW83086   1.761  13.066  13.199
27085SOL    HW183087   1.685  13.014  13.171
27085SOL    HW283088   1.830  13.001  13.214
27086SOL     OW83089   9.865   3.338   3.738
27086SOL    HW183090   9.942   3.361   3.685
27086SOL    HW283091   9.843   3.250   3.710
27087SOL     OW83092   5.881   7.847   0.584
27087SOL    HW183093   5.802   7.901   0.578
27087SOL    HW283094   5.863   7.773   0.526
27088SOL     OW83095   4.862  10.226   5.048
27088SOL    HW183096   4.917  10.181   5.112
27088SOL    HW283097   4.857  10.316   5.081
27089SOL     OW83098   2.710   9.937   6.809
27089SOL    HW183099   2.728  10.010   6.749
27089SOL    HW283100   2.755   9.961   6.890
27090SOL     OW83101   4.707   1.542   5.324
27090SOL    HW183102   4.665   1.503   5.400
27090SOL    HW283103   4.726   1.632   5.350
27091SOL     OW83104   0.841   2.943   4.781
27091SOL    HW183105   0.894   2.977   4.853
27091SOL    HW283106   0.826   3.019   4.725
27092SOL     OW83107   7.906   5.221  10.834
27092SOL    HW183108   7.925   5.246  10.744
27092SOL    HW283109   7.897   5.304  10.881
27093SOL     OW83110   6.638   5.569   7.842
27093SOL    HW183111   6.619   5.498   7.780
27093SOL    HW283112   6.733   5.574   7.844
27094SOL     OW83113   0.305  10.530   7.850
27094SOL    HW183114   0.326  10.507   7.760
27094SOL    HW283115   0.379  10.583   7.880
27095SOL     OW83116   7.277   9.324   9.265
27095SOL    HW183117   7.298   9.411   9.298
27095SOL    HW283118   7.299   9.327   9.172
27096SOL     OW83119   6.418   4.242   2.504
27096SOL    HW183120   6.356   4.174   2.478
27096SOL    HW283121   6.363   4.316   2.531
27097SOL     OW83122   8.606   8.689   9.580
27097SOL    HW183123   8.647   8.767   9.617
27097SOL    HW283124   8.661   8.617   9.610
27098SOL     OW83125   6.006   4.552   9.514
27098SOL    HW183126   5.921   4.508   9.506
27098SOL    HW283127   6.065   4.499   9.459
27099SOL     OW83128   0.228   1.939   5.005
27099SOL    HW183129   0.134   1.947   4.989
27099SOL    HW283130   0.246   1.846   4.998
27100SOL     OW83131   0.187  14.521  12.886
27100SOL    HW183132   0.180  14.432  12.851
27100SOL    HW283133   0.099  14.557  12.878
27101SOL     OW83134  12.895   5.975  11.905
27101SOL    HW183135  12.920   6.047  11.848
27101SOL    HW283136  12.803   5.959  11.884
27102SOL     OW83137   0.717   8.331   7.208
27102SOL    HW183138   0.643   8.270   7.210
27102SOL    HW283139   0.678   8.416   7.191
27103SOL     OW83140   2.052  13.555   4.073
27103SOL    HW183141   2.001  13.631   4.045
27103SOL    HW283142   2.143  13.587   4.077
27104SOL     OW83143   8.711   5.303   7.494
27104SOL    HW183144   8.759   5.254   7.562
27104SOL    HW283145   8.620   5.301   7.523
27105SOL     OW83146   0.513   1.970  11.495
27105SOL    HW183147   0.499   2.032  11.567
27105SOL    HW283148   0.569   1.902  11.533
27106SOL     OW83149  11.589   8.098   6.895
27106SOL    HW183150  11.583   8.016   6.944
27106SOL    HW283151  11.514   8.097   6.836
27107SOL     OW83152   8.249  14.001  13.701
27107SOL    HW183153   8.242  13.942  13.777
27107SOL    HW283154   8.243  13.942  13.625
27108SOL     OW83155  10.257  14.274   7.205
27108SOL    HW183156  10.284  14.329   7.279
27108SOL    HW283157  10.188  14.218   7.241
27109SOL     OW83158  12.637   7.648   0.845
27109SOL    HW183159  12.647   7.554   0.862
27109SOL    HW283160  12.555   7.655   0.796
27110SOL     OW83161   2.942   0.537   6.536
27110SOL    HW183162   2.959   0.463   6.478
27110SOL    HW283163   2.849   0.533   6.555
27111SOL     OW83164   9.671   7.856   0.929
27111SOL    HW183165   9.590   7.885   0.886
27111SOL    HW283166   9.648   7.772   0.969
27112SOL     OW83167   7.357   0.730   7.901
27112SOL    HW183168   7.325   0.801   7.845
27112SOL    HW283169   7.433   0.767   7.945
27113SOL     OW83170   7.786  10.883  13.652
27113SOL    HW183171   7.721  10.853  13.715
27113SOL    HW283172   7.777  10.825  13.577
27114SOL     OW83173  14.481   8.291  14.446
27114SOL    HW183174  14.546   8.258  14.509
27114SOL    HW283175  14.418   8.219  14.437
27115SOL     OW83176   0.733   9.127  13.820
27115SOL    HW183177   0.728   9.033  13.838
27115SOL    HW283178   0.674   9.167  13.885
27116SOL     OW83179  12.992  11.531  14.468
27116SOL    HW183180  13.041  11.595  14.417
27116SOL    HW283181  13.059  11.483  14.517
27117SOL     OW83182   0.131   1.595   1.697
27117SOL    HW183183   0.139   1.684   1.663
27117SOL    HW283184   0.111   1.542   1.619
27118SOL     OW83185  11.533   9.748   8.402
27118SOL    HW183186  11.536   9.654   8.389
27118SOL    HW283187  11.596   9.765   8.472
27119SOL     OW83188   4.134  14.756  10.998
27119SOL    HW183189   4.141  14.665  10.967
27119SOL    HW283190   4.179  14.756  11.082
27120SOL     OW83191  10.823   9.315  12.783
27120SOL    HW183192  10.874   9.235  12.790
27120SOL    HW283193  10.858   9.371  12.853
27121SOL     OW83194   2.649   8.183   1.811
27121SOL    HW183195   2.553   8.191   1.806
27121SOL    HW283196   2.663   8.113   1.875
27122SOL     OW83197   9.341   5.541   4.806
27122SOL    HW183198   9.266   5.598   4.789
27122SOL    HW283199   9.302   5.457   4.829
27123SOL     OW83200   3.077   9.947  10.588
27123SOL    HW183201   3.019   9.871  10.598
27123SOL    HW283202   3.163   9.914  10.611
27124SOL     OW83203   8.882   1.840   9.129
27124SOL    HW183204   8.976   1.853   9.115
27124SOL    HW283205   8.868   1.748   9.109
27125SOL     OW83206   2.106   7.805  14.823
27125SOL    HW183207   2.127   7.898  14.817
27125SOL    HW283208   2.130   7.781   0.040
27126SOL     OW83209   6.303   6.233   1.049
27126SOL    HW183210   6.388   6.192   1.067
27126SOL    HW283211   6.320   6.327   1.056
27127SOL     OW83212  14.863   3.445   5.011
27127SOL    HW183213  14.857   3.441   4.915
27127SOL    HW283214  14.795   3.506   5.037
27128SOL     OW83215   6.432  12.506  11.942
27128SOL    HW183216   6.377  12.560  11.886
27128SOL    HW283217   6.397  12.417  11.932
27129SOL     OW83218  14.618  11.734   1.896
27129SOL    HW183219  14.696  11.738   1.840
27129SOL    HW283220  14.625  11.649   1.939
27130SOL     OW83221   9.063   4.144   9.442
27130SOL    HW183222   9.012   4.220   9.466
27130SOL    HW283223   9.154   4.174   9.443
27131SOL     OW83224   7.887   6.401   9.695
27131SOL    HW183225   7.951   6.329   9.688
27131SOL    HW283226   7.867   6.424   9.604
27132SOL     OW83227  14.670   0.742  10.503
27132SOL    HW183228  14.741   0.725  10.442
27132SOL    HW283229  14.682   0.677  10.573
27133SOL     OW83230   7.837   3.303   9.687
27133SOL    HW183231   7.835   3.277   9.779
27133SOL    HW283232   7.921   3.347   9.677
27134SOL     OW83233  14.284  13.742   8.866
27134SOL    HW183234  14.198  13.775   8.841
27134SOL    HW283235  14.280  13.738   8.962
27135SOL     OW83236  10.879   5.979   6.835
27135SOL    HW183237  10.956   5.974   6.891
27135SOL    HW283238  10.846   5.889   6.832
27136SOL     OW83239   6.860  11.500   6.678
27136SOL    HW183240   6.782  11.475   6.629
27136SOL    HW283241   6.833  11.578   6.726
27137SOL     OW83242   8.672  11.567  10.516
27137SOL    HW183243   8.610  11.495  10.506
27137SOL    HW283244   8.620  11.638  10.553
27138SOL     OW83245   9.547  10.507   9.683
27138SOL    HW183246   9.529  10.544   9.769
27138SOL    HW283247   9.467  10.461   9.659
27139SOL     OW83248  11.782  11.226   6.321
27139SOL    HW183249  11.742  11.239   6.406
27139SOL    HW283250  11.820  11.311   6.299
27140SOL     OW83251   4.327   7.183   1.128
27140SOL    HW183252   4.401   7.185   1.066
27140SOL    HW283253   4.303   7.275   1.138
27141SOL     OW83254  10.262   2.867   6.291
27141SOL    HW183255  10.216   2.937   6.339
27141SOL    HW283256  10.198   2.796   6.286
27142SOL     OW83257   9.584   4.987   1.844
27142SOL    HW183258   9.538   5.058   1.799
27142SOL    HW283259   9.673   5.020   1.856
27143SOL     OW83260   1.806   9.267   8.071
27143SOL    HW183261   1.854   9.271   7.988
27143SOL    HW283262   1.714   9.264   8.045
27144SOL     OW83263  12.972   6.855   4.574
27144SOL    HW183264  12.880   6.858   4.599
27144SOL    HW283265  13.008   6.779   4.619
27145SOL     OW83266  13.487   0.144   3.149
27145SOL    HW183267  13.457   0.072   3.203
27145SOL    HW283268  13.561   0.181   3.198
27146SOL     OW83269   9.677  13.039  11.021
27146SOL    HW183270   9.688  13.130  11.047
27146SOL    HW283271   9.611  13.004  11.082
27147SOL     OW83272  13.434   9.617   2.979
27147SOL    HW183273  13.522   9.631   3.014
27147SOL    HW283274  13.376   9.657   3.043
27148SOL     OW83275   9.371   6.882  14.440
27148SOL    HW183276   9.315   6.959  14.430
27148SOL    HW283277   9.351   6.849  14.527
27149SOL     OW83278   2.433   2.935  10.948
27149SOL    HW183279   2.499   2.866  10.947
27149SOL    HW283280   2.476   3.010  10.907
27150SOL     OW83281  14.850  10.413   0.134
27150SOL    HW183282  14.835  10.345   0.069
27150SOL    HW283283   0.008  10.366   0.212
27151SOL     OW83284  11.918  14.279  13.997
27151SOL    HW183285  11.919  14.337  14.073
27151SOL    HW283286  12.008  14.280  13.965
27152SOL     OW83287  10.800   6.329   5.182
27152SOL    HW183288  10.726   6.318   5.242
27152SOL    HW283289  10.762   6.371   5.105
27153SOL     OW83290  11.052   5.909   1.466
27153SOL    HW183291  11.088   5.859   1.539
27153SOL    HW283292  10.965   5.937   1.496
27154SOL     OW83293  11.022  11.601   7.453
27154SOL    HW183294  10.927  11.596   7.457
27154SOL    HW283295  11.050  11.602   7.545
27155SOL     OW83296   3.148   3.538   5.032
27155SOL    HW183297   3.127   3.450   5.064
27155SOL    HW283298   3.081   3.594   5.069
27156SOL     OW83299   9.818   2.126  12.950
27156SOL    HW183300   9.749   2.176  12.994
27156SOL    HW283301   9.899   2.161  12.985
27157SOL     OW83302  14.077   9.565   0.743
27157SOL    HW183303  14.110   9.654   0.736
27157SOL    HW283304  14.152   9.513   0.771
27158SOL     OW83305  14.846   5.207  14.859
27158SOL    HW183306   0.015   5.277  14.808
27158SOL    HW283307  14.870   5.127  14.814
27159SOL     OW83308   7.168   4.134   7.891
27159SOL    HW183309   7.170   4.229   7.881
27159SOL    HW283310   7.191   4.120   7.983
27160SOL     OW83311  13.006   6.157  14.075
27160SOL    HW183312  13.087   6.205  14.088
27160SOL    HW283313  13.002   6.096  14.149
27161SOL     OW83314  13.274   5.171   5.393
27161SOL    HW183315  13.190   5.151   5.433
27161SOL    HW283316  13.302   5.090   5.351
27162SOL     OW83317  10.178   2.020  11.232
27162SOL    HW183318  10.272   2.038  11.225
27162SOL    HW283319  10.159   2.027  11.325
27163SOL     OW83320   5.861   3.688  12.990
27163SOL    HW183321   5.893   3.646  13.070
27163SOL    HW283322   5.907   3.771  12.986
27164SOL     OW83323   3.626   8.017   8.880
27164SOL    HW183324   3.591   7.928   8.882
27164SOL    HW283325   3.712   8.011   8.922
27165SOL     OW83326   5.382   1.737  14.002
27165SOL    HW183327   5.364   1.725  14.095
27165SOL    HW283328   5.451   1.674  13.982
27166SOL     OW83329  13.965   3.078   7.539
27166SOL    HW183330  13.959   3.086   7.634
27166SOL    HW283331  13.968   2.984   7.523
27167SOL     OW83332   0.944   7.557  13.743
27167SOL    HW183333   0.944   7.497  13.817
27167SOL    HW283334   0.978   7.639  13.778
27168SOL     OW83335  14.324   5.304  10.674
27168SOL    HW183336  14.250   5.334  10.727
27168SOL    HW283337  14.324   5.209  10.685
27169SOL     OW83338   1.202  12.402   2.630
27169SOL    HW183339   1.282  12.373   2.586
27169SOL    HW283340   1.187  12.337   2.698
27170SOL     OW83341  11.914   3.263   4.802
27170SOL    HW183342  11.846   3.251   4.735
27170SOL    HW283343  11.995   3.268   4.752
27171SOL     OW83344   4.741   5.465   5.636
27171SOL    HW183345   4.770   5.387   5.588
27171SOL    HW283346   4.779   5.538   5.587
27172SOL     OW83347  10.935   8.697   4.055
27172SOL    HW183348  10.853   8.741   4.035
27172SOL    HW283349  10.981   8.693   3.971
27173SOL     OW83350   2.538   7.306   1.063
27173SOL    HW183351   2.553   7.332   0.972
27173SOL    HW283352   2.559   7.213   1.065
27174SOL     OW83353   2.055  11.266   6.982
27174SOL    HW183354   2.058  11.173   6.960
27174SOL    HW283355   2.081  11.270   7.074
27175SOL     OW83356   6.274   7.372   6.929
27175SOL    HW183357   6.186   7.346   6.905
27175SOL    HW283358   6.306   7.300   6.985
27176SOL     OW83359   0.249   8.628   8.924
27176SOL    HW183360   0.177   8.623   8.987
27176SOL    HW283361   0.240   8.549   8.870
27177SOL     OW83362   7.864  11.633   0.040
27177SOL    HW183363   7.857  11.606   0.132
27177SOL    HW283364   7.777  11.619   0.004
27178SOL     OW83365   4.926   6.654   6.358
27178SOL    HW183366   4.988   6.698   6.417
27178SOL    HW283367   4.981   6.599   6.303
27179SOL     OW83368   1.349   1.163  10.959
27179SOL    HW183369   1.423   1.111  10.989
27179SOL    HW283370   1.282   1.151  11.026
27180SOL     OW83371   0.036  12.398   5.116
27180SOL    HW183372   0.113  12.375   5.167
27180SOL    HW283373   0.059  12.373   5.026
27181SOL     OW83374  14.408  10.486   0.092
27181SOL    HW183375  14.486  10.533   0.121
27181SOL    HW283376  14.400  10.412   0.152
27182SOL     OW83377  12.698   4.784   2.909
27182SOL    HW183378  12.630   4.849   2.894
27182SOL    HW283379  12.755   4.824   2.975
27183SOL     OW83380   8.114  14.372   7.201
27183SOL    HW183381   8.095  14.343   7.111
27183SOL    HW283382   8.185  14.313   7.230
27184SOL     OW83383   1.484   2.695  12.485
27184SOL    HW183384   1.443   2.732  12.407
27184SOL    HW283385   1.426   2.623  12.511
27185SOL     OW83386  12.874   7.735   7.179
27185SOL    HW183387  12.808   7.782   7.230
27185SOL    HW283388  12.848   7.750   7.088
27186SOL     OW83389   0.956   0.583  11.345
27186SOL    HW183390   0.879   0.634  11.318
27186SOL    HW283391   1.030   0.626  11.302
27187SOL     OW83392   3.791   0.876  14.208
27187SOL    HW183393   3.810   0.958  14.162
27187SOL    HW283394   3.696   0.873  14.213
27188SOL     OW83395   6.302   2.798   0.767
27188SOL    HW183396   6.312   2.804   0.862
27188SOL    HW283397   6.207   2.798   0.752
27189SOL     OW83398  12.942   7.406   2.021
27189SOL    HW183399  12.930   7.341   2.091
27189SOL    HW283400  12.866   7.463   2.027
27190SOL     OW83401   9.759  14.356   7.332
27190SOL    HW183402   9.758  14.417   7.258
27190SOL    HW283403   9.731  14.272   7.294
27191SOL     OW83404   9.950   6.664  11.096
27191SOL    HW183405   9.855   6.652  11.094
27191SOL    HW283406   9.979   6.640  11.008
27192SOL     OW83407   1.681   4.290  13.631
27192SOL    HW183408   1.674   4.231  13.706
27192SOL    HW283409   1.637   4.370  13.660
27193SOL     OW83410   1.891  10.655   7.531
27193SOL    HW183411   1.919  10.731   7.582
27193SOL    HW283412   1.795  10.658   7.534
27194SOL     OW83413   0.094  10.702   9.770
27194SOL    HW183414   0.053  10.615   9.762
27194SOL    HW283415   0.177  10.694   9.723
27195SOL     OW83416  10.102  12.761   4.702
27195SOL    HW183417  10.008  12.778   4.694
27195SOL    HW283418  10.107  12.674   4.743
27196SOL     OW83419  12.229   8.262   4.300
27196SOL    HW183420  12.176   8.332   4.337
27196SOL    HW283421  12.217   8.270   4.205
27197SOL     OW83422   2.421  10.159  10.081
27197SOL    HW183423   2.502  10.179  10.127
27197SOL    HW283424   2.379  10.244  10.069
27198SOL     OW83425   7.758  11.619   2.975
27198SOL    HW183426   7.709  11.692   3.013
27198SOL    HW283427   7.823  11.661   2.918
27199SOL     OW83428   7.484   4.584   7.674
27199SOL    HW183429   7.569   4.616   7.642
27199SOL    HW283430   7.504   4.498   7.712
27200SOL     OW83431   9.444   5.623  14.064
27200SOL    HW183432   9.360   5.579  14.074
27200SOL    HW283433   9.442   5.662  13.977
27201SOL     OW83434   7.763   4.237   8.845
27201SOL    HW183435   7.804   4.323   8.836
27201SOL    HW283436   7.681   4.244   8.796
27202SOL     OW83437   5.996   4.002   6.485
27202SOL    HW183438   5.960   4.038   6.566
27202SOL    HW283439   6.005   3.908   6.503
27203SOL     OW83440   2.104   5.685   5.115
27203SOL    HW183441   2.165   5.620   5.081
27203SOL    HW283442   2.159   5.747   5.164
27204SOL     OW83443  11.987   6.664   0.806
27204SOL    HW183444  11.938   6.596   0.853
27204SOL    HW283445  11.947   6.746   0.835
27205SOL     OW83446   2.589   6.250   1.892
27205SOL    HW183447   2.591   6.167   1.845
27205SOL    HW283448   2.606   6.226   1.984
27206SOL     OW83449   6.930   2.781   2.951
27206SOL    HW183450   6.937   2.685   2.950
27206SOL    HW283451   6.912   2.805   2.860
27207SOL     OW83452  11.991  12.517  14.436
27207SOL    HW183453  11.916  12.541  14.381
27207SOL    HW283454  12.045  12.596  14.439
27208SOL     OW83455  10.873   9.454  11.686
27208SOL    HW183456  10.867   9.404  11.605
27208SOL    HW283457  10.911   9.538  11.659
27209SOL     OW83458   3.937   1.237  12.401
27209SOL    HW183459   3.925   1.302  12.332
27209SOL    HW283460   3.992   1.170  12.361
27210SOL     OW83461  11.567   8.156  12.636
27210SOL    HW183462  11.507   8.085  12.662
27210SOL    HW283463  11.537   8.231  12.688
27211SOL     OW83464  13.891   6.331   2.179
27211SOL    HW183465  13.963   6.344   2.117
27211SOL    HW283466  13.844   6.414   2.180
27212SOL     OW83467   2.390   5.566   0.799
27212SOL    HW183468   2.356   5.587   0.886
27212SOL    HW283469   2.344   5.485   0.775
27213SOL     OW83470   6.144  12.619  10.971
27213SOL    HW183471   6.134  12.574  10.887
27213SOL    HW283472   6.143  12.712  10.949
27214SOL     OW83473  10.315  11.412  12.249
27214SOL    HW183474  10.283  11.439  12.163
27214SOL    HW283475  10.394  11.360  12.231
27215SOL     OW83476   1.475   8.942   1.899
27215SOL    HW183477   1.526   8.875   1.855
27215SOL    HW283478   1.538   9.013   1.915
27216SOL     OW83479   2.203   7.903   1.112
27216SOL    HW183480   2.298   7.893   1.115
27216SOL    HW283481   2.185   7.978   1.168
27217SOL     OW83482   7.114   6.651   6.182
27217SOL    HW183483   7.177   6.580   6.169
27217SOL    HW283484   7.156   6.709   6.246
27218SOL     OW83485  13.435   4.873   0.627
27218SOL    HW183486  13.500   4.940   0.605
27218SOL    HW283487  13.441   4.810   0.555
27219SOL     OW83488   3.145   8.197  14.048
27219SOL    HW183489   3.190   8.112  14.041
27219SOL    HW283490   3.108   8.211  13.961
27220SOL     OW83491   1.408   8.107   2.088
27220SOL    HW183492   1.479   8.043   2.097
27220SOL    HW283493   1.371   8.089   2.002
27221SOL     OW83494   1.944   4.936  14.810
27221SOL    HW183495   1.994   4.880  14.869
27221SOL    HW283496   1.932   5.018  14.858
27222SOL     OW83497   8.122   6.848   2.055
27222SOL    HW183498   8.083   6.925   2.015
27222SOL    HW283499   8.216   6.867   2.055
27223SOL     OW83500   0.064  11.424  13.394
27223SOL    HW183501   0.080  11.343  13.344
27223SOL    HW283502   0.066  11.396  13.485
27224SOL     OW83503   7.158   8.997   5.298
27224SOL    HW183504   7.236   8.974   5.349
27224SOL    HW283505   7.166   8.948   5.217
27225SOL     OW83506   3.060  10.223   3.580
27225SOL    HW183507   3.014  10.189   3.503
27225SOL    HW283508   3.103  10.147   3.618
27226SOL     OW83509   5.397   3.960   4.350
27226SOL    HW183510   5.303   3.972   4.361
27226SOL    HW283511   5.411   3.867   4.364
27227SOL     OW83512   2.901   3.534  10.950
27227SOL    HW183513   2.907   3.472  10.878
27227SOL    HW283514   2.939   3.615  10.916
27228SOL     OW83515   5.819   1.937  13.860
27228SOL    HW183516   5.885   1.992  13.902
27228SOL    HW283517   5.766   1.903  13.931
27229SOL     OW83518   5.245   7.579   1.695
27229SOL    HW183519   5.171   7.533   1.655
27229SOL    HW283520   5.223   7.581   1.789
27230SOL     OW83521  13.549   5.226   3.081
27230SOL    HW183522  13.550   5.196   3.172
27230SOL    HW283523  13.639   5.216   3.051
27231SOL     OW83524   6.458   5.720   6.702
27231SOL    HW183525   6.419   5.718   6.790
27231SOL    HW283526   6.498   5.633   6.692
27232SOL     OW83527   3.685   6.879  13.572
27232SOL    HW183528   3.753   6.832  13.523
27232SOL    HW283529   3.662   6.953  13.516
27233SOL     OW83530   0.214   0.495  14.737
27233SOL    HW183531   0.261   0.438  14.798
27233SOL    HW283532   0.276   0.564  14.715
27234SOL     OW83533   2.565  12.125  13.365
27234SOL    HW183534   2.618  12.202  13.387
27234SOL    HW283535   2.628  12.054  13.357
27235SOL     OW83536  11.409   3.322   7.652
27235SOL    HW183537  11.320   3.299   7.682
27235SOL    HW283538  11.448   3.239   7.626
27236SOL     OW83539  14.581   7.793   5.721
27236SOL    HW183540  14.591   7.698   5.727
27236SOL    HW283541  14.536   7.807   5.638
27237SOL     OW83542  13.042   2.614  13.295
27237SOL    HW183543  12.988   2.666  13.355
27237SOL    HW283544  13.097   2.561  13.352
27238SOL     OW83545   5.711   6.295   4.422
27238SOL    HW183546   5.662   6.318   4.501
27238SOL    HW283547   5.684   6.205   4.403
27239SOL     OW83548   2.286   9.047   5.994
27239SOL    HW183549   2.215   9.042   6.057
27239SOL    HW283550   2.249   9.010   5.913
27240SOL     OW83551   6.538   7.565   4.864
27240SOL    HW183552   6.616   7.563   4.808
27240SOL    HW283553   6.473   7.516   4.814
27241SOL     OW83554   0.221   1.499  14.152
27241SOL    HW183555   0.285   1.570  14.154
27241SOL    HW283556   0.218   1.472  14.060
27242SOL     OW83557  14.488   9.364   5.436
27242SOL    HW183558  14.427   9.337   5.367
27242SOL    HW283559  14.540   9.285   5.454
27243SOL     OW83560   7.858  13.918  13.075
27243SOL    HW183561   7.794  13.954  13.137
27243SOL    HW283562   7.805  13.882  13.004
27244SOL     OW83563   3.347   5.773   8.224
27244SOL    HW183564   3.442   5.761   8.221
27244SOL    HW283565   3.334   5.850   8.279
27245SOL     OW83566  11.960  13.601  10.677
27245SOL    HW183567  12.029  13.643  10.627
27245SOL    HW283568  11.975  13.507  10.666
27246SOL     OW83569  12.499  14.365   3.378
27246SOL    HW183570  12.462  14.381   3.465
27246SOL    HW283571  12.458  14.430   3.321
27247SOL     OW83572   8.373   5.769   9.492
27247SOL    HW183573   8.324   5.755   9.573
27247SOL    HW283574   8.448   5.711   9.498
27248SOL     OW83575   2.429   9.274   4.091
27248SOL    HW183576   2.343   9.307   4.114
27248SOL    HW283577   2.441   9.196   4.145
27249SOL     OW83578   1.695  12.962   7.362
27249SOL    HW183579   1.760  12.927   7.301
27249SOL    HW283580   1.736  13.040   7.399
27250SOL     OW83581   6.290   2.408  14.152
27250SOL    HW183582   6.284   2.322  14.112
27250SOL    HW283583   6.226   2.461  14.104
27251SOL     OW83584   4.633  14.401  14.201
27251SOL    HW183585   4.701  14.459  14.166
27251SOL    HW283586   4.637  14.413  14.296
27252SOL     OW83587   3.574   7.693   6.170
27252SOL    HW183588   3.606   7.777   6.204
27252SOL    HW283589   3.479   7.701   6.173
27253SOL     OW83590  14.349   5.201  13.538
27253SOL    HW183591  14.300   5.278  13.566
27253SOL    HW283592  14.424   5.198  13.598
27254SOL     OW83593   9.948   0.086   0.796
27254SOL    HW183594   9.858   0.103   0.771
27254SOL    HW283595   9.988   0.046   0.719
27255SOL     OW83596   2.913  10.712   7.846
27255SOL    HW183597   2.914  10.724   7.941
27255SOL    HW283598   2.876  10.624   7.834
27256SOL     OW83599   1.055   8.428  10.962
27256SOL    HW183600   1.145   8.445  10.933
27256SOL    HW283601   1.003   8.493  10.916
27257SOL     OW83602   8.266   8.146   8.628
27257SOL    HW183603   8.356   8.132   8.599
27257SOL    HW283604   8.218   8.168   8.547
27258SOL     OW83605  14.487   2.880   7.987
27258SOL    HW183606  14.449   2.927   8.061
27258SOL    HW283607  14.491   2.789   8.016
27259SOL     OW83608   9.121   6.637   2.069
27259SOL    HW183609   9.191   6.602   2.123
27259SOL    HW283610   9.098   6.566   2.010
27260SOL     OW83611   4.342  12.615  10.755
27260SOL    HW183612   4.309  12.669  10.683
27260SOL    HW283613   4.264  12.576  10.794
27261SOL     OW83614   6.368  13.325   0.045
27261SOL    HW183615   6.399  13.415   0.059
27261SOL    HW283616   6.409  13.275   0.115
27262SOL     OW83617  14.338  12.200   1.103
27262SOL    HW183618  14.307  12.210   1.194
27262SOL    HW283619  14.430  12.225   1.107
27263SOL     OW83620   9.601   6.298  13.563
27263SOL    HW183621   9.517   6.298  13.517
27263SOL    HW283622   9.596   6.373  13.622
27264SOL     OW83623   0.182  14.220   1.428
27264SOL    HW183624   0.087  14.218   1.429
27264SOL    HW283625   0.208  14.139   1.384
27265SOL     OW83626   4.345   9.754   7.945
27265SOL    HW183627   4.347   9.659   7.954
27265SOL    HW283628   4.423   9.775   7.893
27266SOL     OW83629   5.210  13.826   0.969
27266SOL    HW183630   5.121  13.804   0.995
27266SOL    HW283631   5.199  13.895   0.903
27267SOL     OW83632   6.290  10.665   8.107
27267SOL    HW183633   6.376  10.703   8.125
27267SOL    HW283634   6.281  10.595   8.171
27268SOL     OW83635   1.807   6.826  12.188
27268SOL    HW183636   1.780   6.914  12.215
27268SOL    HW283637   1.875   6.801  12.250
27269SOL     OW83638   7.950   6.819   6.757
27269SOL    HW183639   7.927   6.910   6.778
27269SOL    HW283640   7.975   6.821   6.665
27270SOL     OW83641   5.418   3.890  10.253
27270SOL    HW183642   5.412   3.967  10.310
27270SOL    HW283643   5.449   3.821  10.311
27271SOL     OW83644   4.468  12.465   0.582
27271SOL    HW183645   4.556  12.491   0.607
27271SOL    HW283646   4.419  12.547   0.577
27272SOL     OW83647   3.847   4.754   7.529
27272SOL    HW183648   3.801   4.838   7.523
27272SOL    HW283649   3.845   4.732   7.622
27273SOL     OW83650  13.974  13.051   3.144
27273SOL    HW183651  13.963  12.958   3.123
27273SOL    HW283652  13.961  13.057   3.238
27274SOL     OW83653   0.513  12.807  11.073
27274SOL    HW183654   0.504  12.827  10.980
27274SOL    HW283655   0.603  12.775  11.082
27275SOL     OW83656   2.315   5.021   6.864
27275SOL    HW183657   2.328   5.108   6.827
27275SOL    HW283658   2.311   4.963   6.788
27276SOL     OW83659   3.812   7.471   6.942
27276SOL    HW183660   3.742   7.472   6.877
27276SOL    HW283661   3.878   7.412   6.906
27277SOL     OW83662  14.699   9.548  13.904
27277SOL    HW183663  14.658   9.571  13.821
27277SOL    HW283664  14.781   9.597  13.905
27278SOL     OW83665   0.003   4.620   8.098
27278SOL    HW183666  14.783   4.637   8.081
27278SOL    HW283667   0.006   4.592   8.190
27279SOL     OW83668  11.949   6.353   3.049
27279SOL    HW183669  11.886   6.389   2.985
27279SOL    HW283670  11.986   6.277   3.005
27280SOL     OW83671  10.621  14.451  11.306
27280SOL    HW183672  10.626  14.411  11.219
27280SOL    HW283673  10.675  14.394  11.361
27281SOL     OW83674  11.697   6.320  14.444
27281SOL    HW183675  11.611   6.285  14.417
27281SOL    HW283676  11.754   6.303  14.370
27282SOL     OW83677  13.339  11.314   7.869
27282SOL    HW183678  13.287  11.350   7.941
27282SOL    HW283679  13.364  11.390   7.817
27283SOL     OW83680   5.781   9.284   6.428
27283SOL    HW183681   5.763   9.304   6.336
27283SOL    HW283682   5.787   9.188   6.431
27284SOL     OW83683  14.282   9.142   5.625
27284SOL    HW183684  14.229   9.207   5.580
27284SOL    HW283685  14.245   9.136   5.713
27285SOL     OW83686  11.670   8.857   6.462
27285SOL    HW183687  11.650   8.950   6.472
27285SOL    HW283688  11.764   8.850   6.480
27286SOL     OW83689   1.950   2.861   8.368
27286SOL    HW183690   2.018   2.803   8.334
27286SOL    HW283691   1.985   2.949   8.354
27287SOL     OW83692  13.779   3.503   7.440
27287SOL    HW183693  13.816   3.418   7.463
27287SOL    HW283694  13.728   3.529   7.517
27288SOL     OW83695  12.549   2.346   8.276
27288SOL    HW183696  12.503   2.372   8.356
27288SOL    HW283697  12.513   2.404   8.208
27289SOL     OW83698  13.296  14.795   2.820
27289SOL    HW183699  13.234  14.858   2.857
27289SOL    HW283700  13.255  14.710   2.834
27290SOL     OW83701  13.435   8.657   2.665
27290SOL    HW183702  13.489   8.714   2.610
27290SOL    HW283703  13.497   8.621   2.729
27291SOL     OW83704  14.636  12.441  12.347
27291SOL    HW183705  14.618  12.483  12.432
27291SOL    HW283706  14.563  12.380  12.335
27292SOL     OW83707   1.204   1.567   5.376
27292SOL    HW183708   1.131   1.592   5.433
27292SOL    HW283709   1.271   1.632   5.394
27293SOL     OW83710   2.876  12.660  10.551
27293SOL    HW183711   2.879  12.711  10.469
27293SOL    HW283712   2.882  12.726  10.620
27294SOL     OW83713   9.418   8.753   7.470
27294SOL    HW183714   9.438   8.846   7.478
27294SOL    HW283715   9.502   8.712   7.450
27295SOL     OW83716   0.870  10.707   9.965
27295SOL    HW183717   0.808  10.638   9.940
27295SOL    HW283718   0.823  10.789   9.950
27296SOL     OW83719   1.460   4.079   3.793
27296SOL    HW183720   1.431   4.079   3.885
27296SOL    HW283721   1.391   4.032   3.746
27297SOL     OW83722   8.203   5.726   0.128
27297SOL    HW183723   8.138   5.758   0.191
27297SOL    HW283724   8.271   5.685   0.182
27298SOL     OW83725  14.809  13.762   3.018
27298SOL    HW183726  14.757  13.823   3.070
27298SOL    HW283727  14.795  13.677   3.060
27299SOL     OW83728   5.293   1.665   6.927
27299SOL    HW183729   5.205   1.669   6.964
27299SOL    HW283730   5.319   1.756   6.918
27300SOL     OW83731   9.716   3.989   7.093
27300SOL    HW183732   9.785   4.003   7.157
27300SOL    HW283733   9.661   3.920   7.131
27301SOL     OW83734   7.594  11.181  10.521
27301SOL    HW183735   7.634  11.128  10.590
27301SOL    HW283736   7.586  11.269  10.558
27302SOL     OW83737   9.861  12.016   3.505
27302SOL    HW183738   9.770  12.026   3.476
27302SOL    HW283739   9.907  12.088   3.463
27303SOL     OW83740   0.144  10.713  13.953
27303SOL    HW183741   0.135  10.639  13.893
27303SOL    HW283742   0.170  10.787  13.898
27304SOL     OW83743   1.261   9.977  10.848
27304SOL    HW183744   1.304  10.041  10.792
27304SOL    HW283745   1.179  10.019  10.874
27305SOL     OW83746   1.000   1.432   6.059
27305SOL    HW183747   0.954   1.417   6.142
27305SOL    HW283748   1.007   1.345   6.020
27306SOL     OW83749  14.153  14.256   9.066
27306SOL    HW183750  14.139  14.298   9.150
27306SOL    HW283751  14.214  14.184   9.085
27307SOL     OW83752   3.762  13.289   5.657
27307SOL    HW183753   3.826  13.353   5.688
27307SOL    HW283754   3.740  13.238   5.735
27308SOL     OW83755   2.942  11.198  11.122
27308SOL    HW183756   2.914  11.241  11.041
27308SOL    HW283757   2.869  11.141  11.146
27309SOL     OW83758  14.098   8.834   6.026
27309SOL    HW183759  14.074   8.747   6.059
27309SOL    HW283760  14.092   8.826   5.930
27310SOL     OW83761   7.552   1.309   8.744
27310SOL    HW183762   7.600   1.226   8.737
27310SOL    HW283763   7.617   1.372   8.774
27311SOL     OW83764   6.814   3.966   3.790
27311SOL    HW183765   6.740   4.020   3.764
27311SOL    HW283766   6.891   4.023   3.778
27312SOL     OW83767  10.784   4.234   0.590
27312SOL    HW183768  10.805   4.252   0.498
27312SOL    HW283769  10.730   4.308   0.617
27313SOL     OW83770  11.010   5.727   8.190
27313SOL    HW183771  10.958   5.653   8.160
27313SOL    HW283772  11.024   5.780   8.112
27314SOL     OW83773   7.085  13.586   9.530
27314SOL    HW183774   7.072  13.495   9.504
27314SOL    HW283775   7.165  13.586   9.581
27315SOL     OW83776  11.594  10.547  11.350
27315SOL    HW183777  11.656  10.599  11.298
27315SOL    HW283778  11.637  10.463  11.362
27316SOL     OW83779  13.952  12.969   7.376
27316SOL    HW183780  13.923  12.976   7.285
27316SOL    HW283781  13.974  12.876   7.387
27317SOL     OW83782   1.915   8.830  10.608
27317SOL    HW183783   1.850   8.816  10.539
27317SOL    HW283784   1.886   8.774  10.680
27318SOL     OW83785   9.547  14.505  10.543
27318SOL    HW183786   9.550  14.410  10.550
27318SOL    HW283787   9.617  14.536  10.600
27319SOL     OW83788  13.596   4.563   4.042
27319SOL    HW183789  13.650   4.559   3.963
27319SOL    HW283790  13.570   4.655   4.049
27320SOL     OW83791   6.742   1.811   6.679
27320SOL    HW183792   6.744   1.885   6.617
27320SOL    HW283793   6.770   1.849   6.762
27321SOL     OW83794   4.501  10.396  13.410
27321SOL    HW183795   4.584  10.442  13.399
27321SOL    HW283796   4.452  10.415  13.329
27322SOL     OW83797  12.422   5.470  10.255
27322SOL    HW183798  12.506   5.516  10.247
27322SOL    HW283799  12.365   5.515  10.193
27323SOL     OW83800  12.118   4.263   0.168
27323SOL    HW183801  12.044   4.249   0.109
27323SOL    HW283802  12.186   4.203   0.135
27324SOL     OW83803   1.425   6.699   1.236
27324SOL    HW183804   1.421   6.778   1.289
27324SOL    HW283805   1.337   6.690   1.198
27325SOL     OW83806   9.690   2.676   0.439
27325SOL    HW183807   9.738   2.759   0.437
27325SOL    HW283808   9.599   2.701   0.452
27326SOL     OW83809  13.237  10.181   3.793
27326SOL    HW183810  13.260  10.205   3.883
27326SOL    HW283811  13.306  10.220   3.739
27327SOL     OW83812  10.196   0.741   3.066
27327SOL    HW183813  10.156   0.815   3.112
27327SOL    HW283814  10.129   0.714   3.003
27328SOL     OW83815   5.621  14.205   6.883
27328SOL    HW183816   5.575  14.121   6.897
27328SOL    HW283817   5.596  14.231   6.794
27329SOL     OW83818   4.337   8.911  13.819
27329SOL    HW183819   4.355   8.998  13.785
27329SOL    HW283820   4.274   8.873  13.758
27330SOL     OW83821   2.039   9.409   0.345
27330SOL    HW183822   2.070   9.492   0.382
27330SOL    HW283823   2.094   9.342   0.387
27331SOL     OW83824   3.276  13.250   6.848
27331SOL    HW183825   3.280  13.328   6.793
27331SOL    HW283826   3.333  13.187   6.804
27332SOL     OW83827   6.988   5.270   7.430
27332SOL    HW183828   6.899   5.297   7.453
27332SOL    HW283829   7.045   5.334   7.472
27333SOL     OW83830   7.689   8.657   1.509
27333SOL    HW183831   7.769   8.639   1.557
27333SOL    HW283832   7.632   8.701   1.572
27334SOL     OW83833   1.593   1.703   9.389
27334SOL    HW183834   1.580   1.744   9.475
27334SOL    HW283835   1.688   1.700   9.379
27335SOL     OW83836   2.227   7.834   5.982
27335SOL    HW183837   2.231   7.861   5.891
27335SOL    HW283838   2.263   7.745   5.983
27336SOL     OW83839   6.531  11.811   6.504
27336SOL    HW183840   6.487  11.728   6.521
27336SOL    HW283841   6.618  11.800   6.542
27337SOL     OW83842   1.484  11.917  14.012
27337SOL    HW183843   1.498  11.861  14.089
27337SOL    HW283844   1.547  11.883  13.947
27338SOL     OW83845   0.804   4.592   4.925
27338SOL    HW183846   0.845   4.601   4.839
27338SOL    HW283847   0.823   4.502   4.952
27339SOL     OW83848  14.860  10.470   9.722
27339SOL    HW183849   0.035  10.387   9.733
27339SOL    HW283850  14.838  10.473   9.629
27340SOL     OW83851   0.683   9.488   1.027
27340SOL    HW183852   0.713   9.511   0.939
27340SOL    HW283853   0.763   9.466   1.075
27341SOL     OW83854   4.954  10.749   0.357
27341SOL    HW183855   4.991  10.694   0.288
27341SOL    HW283856   5.001  10.723   0.436
27342SOL     OW83857  12.068   1.891  11.961
27342SOL    HW183858  12.125   1.869  12.035
27342SOL    HW283859  12.122   1.948  11.906
27343SOL     OW83860  13.849  10.989  14.176
27343SOL    HW183861  13.852  10.893  14.187
27343SOL    HW283862  13.904  11.022  14.248
27344SOL     OW83863  14.126   4.146   9.687
27344SOL    HW183864  14.061   4.186   9.630
27344SOL    HW283865  14.076   4.109   9.759
27345SOL     OW83866   4.113   4.575   7.209
27345SOL    HW183867   4.022   4.604   7.217
27345SOL    HW283868   4.147   4.577   7.299
27346SOL     OW83869   3.424   0.901   1.202
27346SOL    HW183870   3.463   0.925   1.118
27346SOL    HW283871   3.393   0.984   1.238
27347SOL     OW83872   0.746  10.178  14.471
27347SOL    HW183873   0.693  10.257  14.476
27347SOL    HW283874   0.685  10.107  14.491
27348SOL     OW83875   8.351  12.178   9.800
27348SOL    HW183876   8.357  12.165   9.895
27348SOL    HW283877   8.258  12.166   9.780
27349SOL     OW83878  13.377   3.276   6.913
27349SOL    HW183879  13.447   3.222   6.951
27349SOL    HW283880  13.422   3.334   6.852
27350SOL     OW83881   4.354   2.190  10.430
27350SOL    HW183882   4.444   2.189  10.462
27350SOL    HW283883   4.362   2.190  10.335
27351SOL     OW83884   3.945   2.960   3.657
27351SOL    HW183885   3.856   2.930   3.676
27351SOL    HW283886   3.956   2.943   3.563
27352SOL     OW83887   3.172   9.872   1.470
27352SOL    HW183888   3.151   9.883   1.563
27352SOL    HW283889   3.163   9.960   1.433
27353SOL     OW83890  10.521   4.569   1.918
27353SOL    HW183891  10.612   4.599   1.917
27353SOL    HW283892  10.479   4.614   1.845
27354SOL     OW83893  14.597   2.119   4.126
27354SOL    HW183894  14.505   2.129   4.101
27354SOL    HW283895  14.598   2.046   4.187
27355SOL     OW83896   3.766  12.730   4.838
27355SOL    HW183897   3.780  12.686   4.922
27355SOL    HW283898   3.680  12.770   4.846
27356SOL     OW83899   6.505   6.294  13.659
27356SOL    HW183900   6.549   6.374  13.689
27356SOL    HW283901   6.422   6.293  13.707
27357SOL     OW83902  14.223   6.579   7.568
27357SOL    HW183903  14.247   6.636   7.495
27357SOL    HW283904  14.297   6.583   7.628
27358SOL     OW83905  14.450   3.279   0.891
27358SOL    HW183906  14.401   3.260   0.812
27358SOL    HW283907  14.534   3.312   0.860
27359SOL     OW83908  11.233   0.471   2.825
27359SOL    HW183909  11.325   0.455   2.800
27359SOL    HW283910  11.182   0.421   2.761
27360SOL     OW83911   5.592   4.270  12.361
27360SOL    HW183912   5.523   4.252  12.297
27360SOL    HW283913   5.592   4.365  12.370
27361SOL     OW83914   0.095   6.878  11.468
27361SOL    HW183915   0.154   6.815  11.425
27361SOL    HW283916   0.115   6.869  11.561
27362SOL     OW83917   8.735  13.652   6.893
27362SOL    HW183918   8.702  13.595   6.962
27362SOL    HW283919   8.780  13.593   6.833
27363SOL     OW83920   1.485   6.392   6.523
27363SOL    HW183921   1.546   6.322   6.504
27363SOL    HW283922   1.486   6.400   6.618
27364SOL     OW83923   8.590   3.743   0.929
27364SOL    HW183924   8.612   3.812   0.992
27364SOL    HW283925   8.551   3.789   0.855
27365SOL     OW83926   6.108   3.176  11.035
27365SOL    HW183927   6.115   3.246  11.100
27365SOL    HW283928   6.082   3.220  10.954
27366SOL     OW83929   9.553   6.275   8.303
27366SOL    HW183930   9.639   6.256   8.264
27366SOL    HW283931   9.567   6.354   8.354
27367SOL     OW83932   3.759   5.511   8.470
27367SOL    HW183933   3.788   5.454   8.542
27367SOL    HW283934   3.784   5.463   8.391
27368SOL     OW83935   9.235  13.952   7.137
27368SOL    HW183936   9.326  13.959   7.167
27368SOL    HW283937   9.232  14.004   7.057
27369SOL     OW83938  14.430   2.832   0.534
27369SOL    HW183939  14.346   2.876   0.533
27369SOL    HW283940  14.428   2.774   0.458
27370SOL     OW83941   5.836  11.330   2.824
27370SOL    HW183942   5.884  11.340   2.742
27370SOL    HW283943   5.773  11.402   2.824
27371SOL     OW83944   6.927   8.997   2.073
27371SOL    HW183945   7.004   9.051   2.052
27371SOL    HW283946   6.952   8.949   2.152
27372SOL     OW83947   4.829   3.495  12.919
27372SOL    HW183948   4.759   3.484  12.854
27372SOL    HW283949   4.907   3.458  12.877
27373SOL     OW83950  14.813   1.520  12.495
27373SOL    HW183951  14.811   1.497  12.588
27373SOL    HW283952   0.033   1.536  12.476
27374SOL     OW83953  13.875   0.686  12.791
27374SOL    HW183954  13.807   0.619  12.802
27374SOL    HW283955  13.955   0.643  12.821
27375SOL     OW83956   1.182   2.272   4.180
27375SOL    HW183957   1.252   2.274   4.114
27375SOL    HW283958   1.124   2.344   4.156
27376SOL     OW83959   6.796   7.334   8.162
27376SOL    HW183960   6.756   7.247   8.159
27376SOL    HW283961   6.877   7.321   8.210
27377SOL     OW83962   0.535  11.862   0.268
27377SOL    HW183963   0.512  11.801   0.198
27377SOL    HW283964   0.630  11.871   0.261
27378SOL     OW83965  11.599  14.707   6.862
27378SOL    HW183966  11.631  14.743   6.945
27378SOL    HW283967  11.513  14.671   6.883
27379SOL     OW83968   4.968   5.695   9.524
27379SOL    HW183969   4.923   5.610   9.531
27379SOL    HW283970   4.902   5.759   9.549
27380SOL     OW83971   5.383   4.069   1.412
27380SOL    HW183972   5.412   4.160   1.399
27380SOL    HW283973   5.442   4.034   1.478
27381SOL     OW83974   6.452   4.771   4.402
27381SOL    HW183975   6.513   4.840   4.376
27381SOL    HW283976   6.432   4.725   4.321
27382SOL     OW83977   9.762   2.783   9.589
27382SOL    HW183978   9.708   2.719   9.541
27382SOL    HW283979   9.700   2.827   9.647
27383SOL     OW83980  14.532  10.020  13.192
27383SOL    HW183981  14.599   9.955  13.176
27383SOL    HW283982  14.548  10.088  13.127
27384SOL     OW83983   8.418  10.561   2.599
27384SOL    HW183984   8.485  10.527   2.539
27384SOL    HW283985   8.355  10.604   2.541
27385SOL     OW83986   0.442   0.271   9.267
27385SOL    HW183987   0.454   0.316   9.183
27385SOL    HW283988   0.347   0.268   9.279
27386SOL     OW83989  11.224   7.052   9.243
27386SOL    HW183990  11.231   7.130   9.188
27386SOL    HW283991  11.228   6.979   9.182
27387SOL     OW83992  13.388  10.726  11.426
27387SOL    HW183993  13.358  10.638  11.404
27387SOL    HW283994  13.484  10.718  11.429
27388SOL     OW83995   5.169   8.244  11.065
27388SOL    HW183996   5.165   8.218  10.972
27388SOL    HW283997   5.112   8.322  11.070
27389SOL     OW83998   1.666   2.091   4.293
27389SOL    HW183999   1.726   2.025   4.327
27389SOL    HW284000   1.718   2.139   4.228
27390SOL     OW84001  13.671   2.009  11.073
27390SOL    HW184002  13.577   2.022  11.084
27390SOL    HW284003  13.703   1.986  11.160
27391SOL     OW84004  14.725   3.534  13.784
27391SOL    HW184005  14.754   3.458  13.735
27391SOL    HW284006  14.633   3.516  13.805
27392SOL     OW84007   9.383   1.667   8.735
27392SOL    HW184008   9.371   1.639   8.644
27392SOL    HW284009   9.425   1.593   8.778
27393SOL     OW84010  10.619  12.115   0.656
27393SOL    HW184011  10.629  12.083   0.566
27393SOL    HW284012  10.668  12.053   0.709
27394SOL     OW84013  14.619   0.580  12.014
27394SOL    HW184014  14.595   0.625  12.096
27394SOL    HW284015  14.581   0.635  11.945
27395SOL     OW84016   3.919  11.539   3.585
27395SOL    HW184017   3.967  11.459   3.609
27395SOL    HW284018   3.975  11.611   3.614
27396SOL     OW84019   0.349   9.679  11.428
27396SOL    HW184020   0.393   9.745  11.481
27396SOL    HW284021   0.297   9.729  11.366
27397SOL     OW84022   7.577   1.451  12.468
27397SOL    HW184023   7.599   1.539  12.436
27397SOL    HW284024   7.485   1.456  12.492
27398SOL     OW84025  13.756   9.750  13.768
27398SOL    HW184026  13.675   9.709  13.738
27398SOL    HW284027  13.825   9.699  13.727
27399SOL     OW84028   6.074   5.421   2.008
27399SOL    HW184029   6.036   5.377   2.084
27399SOL    HW284030   6.129   5.355   1.967
27400SOL     OW84031   5.735   6.631   1.059
27400SOL    HW184032   5.811   6.656   1.007
27400SOL    HW284033   5.687   6.569   1.004
27401SOL     OW84034   1.433   2.234  10.129
27401SOL    HW184035   1.436   2.313  10.076
27401SOL    HW284036   1.385   2.259  10.208
27402SOL     OW84037   0.876  12.567   7.089
27402SOL    HW184038   0.830  12.486   7.070
27402SOL    HW284039   0.879  12.572   7.185
27403SOL     OW84040  11.457   5.630   5.272
27403SOL    HW184041  11.530   5.628   5.333
27403SOL    HW284042  11.426   5.721   5.274
27404SOL     OW84043  10.973  14.776   1.818
27404SOL    HW184044  10.945  14.863   1.848
27404SOL    HW284045  11.006  14.791   1.730
27405SOL     OW84046  11.530   5.911   0.538
27405SOL    HW184047  11.463   5.920   0.607
27405SOL    HW284048  11.604   5.962   0.571
27406SOL     OW84049   9.531   2.605   3.472
27406SOL    HW184050   9.567   2.693   3.481
27406SOL    HW284051   9.601   2.547   3.501
27407SOL     OW84052  10.146  11.912  12.415
27407SOL    HW184053  10.119  11.906  12.323
27407SOL    HW284054  10.123  11.827  12.452
27408SOL     OW84055   6.088   0.246   0.378
27408SOL    HW184056   6.044   0.211   0.455
27408SOL    HW284057   6.160   0.298   0.413
27409SOL     OW84058   1.692   4.175  13.874
27409SOL    HW184059   1.701   4.252  13.931
27409SOL    HW284060   1.659   4.106  13.932
27410SOL     OW84061   7.234  13.939   6.912
27410SOL    HW184062   7.218  13.942   7.006
27410SOL    HW284063   7.321  13.901   6.903
27411SOL     OW84064  12.638   3.703   3.964
27411SOL    HW184065  12.673   3.759   3.895
27411SOL    HW284066  12.561   3.749   3.997
27412SOL     OW84067   5.419  10.377  10.794
27412SOL    HW184068   5.399  10.306  10.733
27412SOL    HW284069   5.473  10.335  10.861
27413SOL     OW84070   8.186   5.642   1.062
27413SOL    HW184071   8.110   5.584   1.068
27413SOL    HW284072   8.233   5.612   0.984
27414SOL     OW84073   0.766  11.195  13.789
27414SOL    HW184074   0.776  11.152  13.874
27414SOL    HW284075   0.680  11.167  13.759
27415SOL     OW84076   5.540  12.990   6.738
27415SOL    HW184077   5.444  12.992   6.735
27415SOL    HW284078   5.562  13.038   6.818
27416SOL     OW84079  14.501  10.067   4.087
27416SOL    HW184080  14.430  10.019   4.131
27416SOL    HW284081  14.467  10.156   4.077
27417SOL     OW84082   2.499   9.755   5.811
27417SOL    HW184083   2.513   9.850   5.811
27417SOL    HW284084   2.496   9.731   5.718
27418SOL     OW84085  11.917   4.433   4.217
27418SOL    HW184086  12.008   4.424   4.188
27418SOL    HW284087  11.875   4.351   4.193
27419SOL     OW84088   7.442   8.524  12.128
27419SOL    HW184089   7.366   8.487  12.084
27419SOL    HW284090   7.479   8.452  12.178
27420SOL     OW84091   1.944  10.902   8.668
27420SOL    HW184092   1.912  10.816   8.698
27420SOL    HW284093   1.969  10.887   8.576
27421SOL     OW84094   6.832  11.214   3.627
27421SOL    HW184095   6.862  11.304   3.638
27421SOL    HW284096   6.911  11.161   3.637
27422SOL     OW84097   2.895  11.536   8.881
27422SOL    HW184098   2.982  11.508   8.909
27422SOL    HW284099   2.839  11.459   8.893
27423SOL     OW84100   6.330  12.162   0.412
27423SOL    HW184101   6.406  12.209   0.446
27423SOL    HW284102   6.264  12.230   0.397
27424SOL     OW84103   4.680  10.512   6.967
27424SOL    HW184104   4.597  10.552   6.942
27424SOL    HW284105   4.659  10.419   6.979
27425SOL     OW84106  13.733   6.435  13.827
27425SOL    HW184107  13.719   6.517  13.874
27425SOL    HW284108  13.816   6.448  13.781
27426SOL     OW84109   7.040   4.163   5.228
27426SOL    HW184110   7.057   4.225   5.299
27426SOL    HW284111   7.064   4.212   5.149
27427SOL     OW84112   6.302  10.814  12.525
27427SOL    HW184113   6.379  10.788  12.575
27427SOL    HW284114   6.231  10.812  12.590
27428SOL     OW84115  12.490   2.109   5.263
27428SOL    HW184116  12.417   2.095   5.201
27428SOL    HW284117  12.451   2.094   5.349
27429SOL     OW84118   6.935  13.104   1.469
27429SOL    HW184119   6.847  13.111   1.506
27429SOL    HW284120   6.925  13.132   1.378
27430SOL     OW84121   7.088  11.469  13.780
27430SOL    HW184122   7.173  11.488  13.741
27430SOL    HW284123   7.095  11.377  13.808
27431SOL     OW84124  11.874   0.494   0.023
27431SOL    HW184125  11.966   0.519   0.013
27431SOL    HW284126  11.831   0.573   0.057
27432SOL     OW84127   5.983  13.114   7.792
27432SOL    HW184128   5.956  13.206   7.787
27432SOL    HW284129   5.939  13.081   7.870
27433SOL     OW84130   8.246  10.451   3.575
27433SOL    HW184131   8.239  10.368   3.527
27433SOL    HW284132   8.208  10.431   3.661
27434SOL     OW84133   6.197   1.165   7.075
27434SOL    HW184134   6.254   1.091   7.055
27434SOL    HW284135   6.153   1.184   6.992
27435SOL     OW84136  10.085   7.291  10.788
27435SOL    HW184137  10.138   7.298  10.708
27435SOL    HW284138  10.148   7.270  10.857
27436SOL     OW84139   0.658   0.972  11.490
27436SOL    HW184140   0.566   0.963  11.465
27436SOL    HW284141   0.689   0.882  11.500
27437SOL     OW84142  10.204  12.713   3.602
27437SOL    HW184143  10.142  12.655   3.646
27437SOL    HW284144  10.152  12.757   3.535
27438SOL     OW84145  14.633  11.054   2.871
27438SOL    HW184146  14.640  11.103   2.953
27438SOL    HW284147  14.685  10.975   2.886
27439SOL     OW84148  14.520   7.954  10.023
27439SOL    HW184149  14.545   7.963   9.931
27439SOL    HW284150  14.447   8.014  10.035
27440SOL     OW84151   0.955   6.769   2.429
27440SOL    HW184152   1.000   6.822   2.495
27440SOL    HW284153   0.964   6.819   2.348
27441SOL     OW84154   1.347   0.562   6.998
27441SOL    HW184155   1.358   0.555   7.092
27441SOL    HW284156   1.432   0.537   6.962
27442SOL     OW84157   1.006  12.635   4.170
27442SOL    HW184158   1.000  12.569   4.239
27442SOL    HW284159   0.972  12.591   4.092
27443SOL     OW84160   9.478   1.548   3.003
27443SOL    HW184161   9.554   1.518   2.954
27443SOL    HW284162   9.417   1.474   3.001
27444SOL     OW84163   0.353   9.511   2.270
27444SOL    HW184164   0.314   9.461   2.199
27444SOL    HW284165   0.304   9.485   2.348
27445SOL     OW84166   5.867   9.547   4.134
27445SOL    HW184167   5.811   9.621   4.157
27445SOL    HW284168   5.865   9.491   4.212
27446SOL     OW84169   1.030   6.859   1.856
27446SOL    HW184170   0.961   6.794   1.840
27446SOL    HW284171   1.088   6.852   1.781
27447SOL     OW84172   9.432   2.844  10.347
27447SOL    HW184173   9.508   2.902  10.339
27447SOL    HW284174   9.468   2.761  10.376
27448SOL     OW84175   4.811   4.747   7.198
27448SOL    HW184176   4.811   4.698   7.281
27448SOL    HW284177   4.901   4.740   7.167
27449SOL     OW84178   8.881   1.637   5.693
27449SOL    HW184179   8.898   1.724   5.728
27449SOL    HW284180   8.946   1.627   5.623
27450SOL     OW84181  10.378   2.179   3.549
27450SOL    HW184182  10.321   2.220   3.484
27450SOL    HW284183  10.319   2.151   3.619
27451SOL     OW84184   2.756   1.752  10.592
27451SOL    HW184185   2.681   1.707  10.632
27451SOL    HW284186   2.716   1.811  10.527
27452SOL     OW84187   3.040  14.081  12.853
27452SOL    HW184188   3.047  14.158  12.910
27452SOL    HW284189   2.959  14.095  12.804
27453SOL     OW84190   1.745   3.556  14.402
27453SOL    HW184191   1.773   3.553  14.311
27453SOL    HW284192   1.801   3.622  14.442
27454SOL     OW84193  14.083   8.536  14.342
27454SOL    HW184194  14.129   8.587  14.409
27454SOL    HW284195  14.089   8.446  14.373
27455SOL     OW84196   2.043   6.914   8.831
27455SOL    HW184197   2.065   7.000   8.793
27455SOL    HW284198   2.090   6.851   8.776
27456SOL     OW84199  14.384  14.872   3.761
27456SOL    HW184200  14.406  14.828   3.843
27456SOL    HW284201  14.301  14.833   3.734
27457SOL     OW84202   8.665   0.828   8.347
27457SOL    HW184203   8.620   0.787   8.273
27457SOL    HW284204   8.655   0.765   8.419
27458SOL     OW84205   0.298  12.437   8.590
27458SOL    HW184206   0.224  12.379   8.607
27458SOL    HW284207   0.331  12.459   8.677
27459SOL     OW84208   2.074   5.356   7.683
27459SOL    HW184209   2.099   5.429   7.626
27459SOL    HW284210   2.039   5.398   7.762
27460SOL     OW84211   3.167   5.134  10.734
27460SOL    HW184212   3.091   5.078  10.751
27460SOL    HW284213   3.197   5.108  10.647
27461SOL     OW84214  10.774  14.485   8.402
27461SOL    HW184215  10.751  14.574   8.428
27461SOL    HW284216  10.866  14.476   8.427
27462SOL     OW84217   8.620  13.879  13.971
27462SOL    HW184218   8.706  13.917  13.954
27462SOL    HW284219   8.637  13.786  13.985
27463SOL     OW84220   4.783  14.478   1.458
27463SOL    HW184221   4.849  14.515   1.399
27463SOL    HW284222   4.700  14.501   1.418
27464SOL     OW84223   0.646  10.556   6.357
27464SOL    HW184224   0.662  10.649   6.339
27464SOL    HW284225   0.609  10.555   6.445
27465SOL     OW84226   2.484   1.323   3.758
27465SOL    HW184227   2.454   1.385   3.692
27465SOL    HW284228   2.416   1.256   3.761
27466SOL     OW84229  10.562   7.691  14.847
27466SOL    HW184230  10.568   7.710   0.069
27466SOL    HW284231  10.546   7.776  14.806
27467SOL     OW84232   6.073  10.502   6.335
27467SOL    HW184233   6.156  10.531   6.372
27467SOL    HW284234   6.015  10.578   6.342
27468SOL     OW84235   4.964  10.984   6.815
27468SOL    HW184236   5.000  11.058   6.863
27468SOL    HW284237   5.039  10.946   6.768
27469SOL     OW84238   6.888  12.277  10.310
27469SOL    HW184239   6.900  12.208  10.374
27469SOL    HW284240   6.864  12.232  10.229
27470SOL     OW84241  11.266   7.876   1.366
27470SOL    HW184242  11.217   7.795   1.351
27470SOL    HW284243  11.258   7.892   1.460
27471SOL     OW84244   4.469  14.095  13.897
27471SOL    HW184245   4.548  14.058  13.859
27471SOL    HW284246   4.400  14.031  13.876
27472SOL     OW84247   4.002   9.835   2.835
27472SOL    HW184248   4.065   9.766   2.812
27472SOL    HW284249   3.922   9.788   2.856
27473SOL     OW84250  14.726  14.493   9.660
27473SOL    HW184251  14.695  14.463   9.745
27473SOL    HW284252  14.775  14.573   9.679
27474SOL     OW84253   9.820  12.686   5.892
27474SOL    HW184254   9.781  12.702   5.806
27474SOL    HW284255   9.745  12.678   5.951
27475SOL     OW84256   7.026   7.034   6.259
27475SOL    HW184257   6.949   7.086   6.284
27475SOL    HW284258   7.016   6.952   6.307
27476SOL     OW84259  13.200   7.866   5.039
27476SOL    HW184260  13.147   7.827   4.970
27476SOL    HW284261  13.150   7.850   5.120
27477SOL     OW84262   9.588   9.014   7.497
27477SOL    HW184263   9.675   9.028   7.459
27477SOL    HW284264   9.529   9.069   7.445
27478SOL     OW84265   9.887   2.687   2.642
27478SOL    HW184266   9.851   2.699   2.554
27478SOL    HW284267   9.819   2.720   2.700
27479SOL     OW84268  13.582   1.093   7.938
27479SOL    HW184269  13.616   1.079   7.849
27479SOL    HW284270  13.519   1.164   7.929
27480SOL     OW84271   8.740   1.521   9.265
27480SOL    HW184272   8.751   1.448   9.325
27480SOL    HW284273   8.829   1.554   9.250
27481SOL     OW84274   2.396   9.667   0.378
27481SOL    HW184275   2.391   9.731   0.307
27481SOL    HW284276   2.305   9.638   0.391
27482SOL     OW84277   1.042   9.133  13.870
27482SOL    HW184278   1.045   9.143  13.775
27482SOL    HW284279   0.953   9.158  13.894
27483SOL     OW84280   6.384   1.847  12.198
27483SOL    HW184281   6.321   1.802  12.254
27483SOL    HW284282   6.400   1.931  12.242
27484SOL     OW84283  10.064   7.617   8.945
27484SOL    HW184284   9.992   7.651   8.893
27484SOL    HW284285  10.120   7.693   8.963
27485SOL     OW84286   8.857   0.247   8.459
27485SOL    HW184287   8.800   0.238   8.383
27485SOL    HW284288   8.807   0.209   8.531
27486SOL     OW84289   4.652   1.061   6.981
27486SOL    HW184290   4.747   1.064   6.968
27486SOL    HW284291   4.640   1.083   7.073
27487SOL     OW84292  10.285  10.252   2.259
27487SOL    HW184293  10.287  10.193   2.334
27487SOL    HW284294  10.359  10.224   2.205
27488SOL     OW84295   6.542   7.247   8.751
27488SOL    HW184296   6.538   7.276   8.660
27488SOL    HW284297   6.526   7.327   8.802
27489SOL     OW84298  12.280   2.239   5.940
27489SOL    HW184299  12.360   2.203   5.979
27489SOL    HW284300  12.223   2.257   6.014
27490SOL     OW84301   2.962   5.915   0.449
27490SOL    HW184302   2.938   5.995   0.496
27490SOL    HW284303   2.897   5.907   0.380
27491SOL     OW84304   3.641   3.046   8.767
27491SOL    HW184305   3.713   3.098   8.802
27491SOL    HW284306   3.574   3.049   8.835
27492SOL     OW84307   5.674   4.851   1.210
27492SOL    HW184308   5.601   4.815   1.261
27492SOL    HW284309   5.651   4.833   1.119
27493SOL     OW84310  13.207   6.207  12.022
27493SOL    HW184311  13.211   6.114  12.047
27493SOL    HW284312  13.121   6.236  12.054
27494SOL     OW84313  13.116   4.139   7.247
27494SOL    HW184314  13.140   4.089   7.325
27494SOL    HW284315  13.049   4.200   7.277
27495SOL     OW84316   5.923  13.768  12.121
27495SOL    HW184317   6.014  13.738  12.123
27495SOL    HW284318   5.929  13.863  12.114
27496SOL     OW84319   5.757   5.963  12.306
27496SOL    HW184320   5.768   6.029  12.238
27496SOL    HW284321   5.846   5.932  12.325
27497SOL     OW84322   0.883  11.663   6.228
27497SOL    HW184323   0.827  11.615   6.289
27497SOL    HW284324   0.832  11.669   6.148
27498SOL     OW84325   5.980   9.613   9.877
27498SOL    HW184326   5.980   9.586   9.968
27498SOL    HW284327   5.922   9.690   9.875
27499SOL     OW84328   8.163  13.258  13.822
27499SOL    HW184329   8.209  13.191  13.872
27499SOL    HW284330   8.147  13.328  13.885
27500SOL     OW84331  12.464   9.126   6.365
27500SOL    HW184332  12.552   9.109   6.331
27500SOL    HW284333  12.457   9.222   6.366
27501SOL     OW84334   9.344   4.105   2.433
27501SOL    HW184335   9.431   4.086   2.397
27501SOL    HW284336   9.336   4.046   2.508
27502SOL     OW84337   9.555  13.736  11.432
27502SOL    HW184338   9.531  13.648  11.461
27502SOL    HW284339   9.476  13.788  11.444
27503SOL     OW84340   9.570   1.667   6.071
27503SOL    HW184341   9.598   1.759   6.071
27503SOL    HW284342   9.586   1.637   6.161
27504SOL     OW84343  13.546   8.272   4.037
27504SOL    HW184344  13.599   8.198   4.006
27504SOL    HW284345  13.573   8.284   4.128
27505SOL     OW84346   5.818   8.010   3.172
27505SOL    HW184347   5.878   8.015   3.098
27505SOL    HW284348   5.756   7.941   3.149
27506SOL     OW84349   8.907   4.317   6.986
27506SOL    HW184350   8.877   4.316   7.077
27506SOL    HW284351   8.834   4.281   6.936
27507SOL     OW84352   1.812   4.659  14.092
27507SOL    HW184353   1.818   4.743  14.047
27507SOL    HW284354   1.896   4.616  14.076
27508SOL     OW84355  13.593  14.173  10.017
27508SOL    HW184356  13.592  14.077  10.021
27508SOL    HW284357  13.651  14.193   9.943
27509SOL     OW84358  13.543   7.341   0.257
27509SOL    HW184359  13.470   7.287   0.285
27509SOL    HW284360  13.607   7.335   0.328
27510SOL     OW84361  14.424  13.902   5.653
27510SOL    HW184362  14.500  13.958   5.637
27510SOL    HW284363  14.461  13.814   5.662
27511SOL     OW84364   0.330   1.142   9.919
27511SOL    HW184365   0.257   1.149   9.981
27511SOL    HW284366   0.380   1.066   9.950
27512SOL     OW84367   1.197   1.800   0.084
27512SOL    HW184368   1.251   1.770   0.157
27512SOL    HW284369   1.213   1.894   0.079
27513SOL     OW84370  12.049   0.699  11.526
27513SOL    HW184371  11.979   0.759  11.500
27513SOL    HW284372  12.068   0.724  11.617
27514SOL     OW84373  12.889   5.582   2.882
27514SOL    HW184374  12.830   5.515   2.847
27514SOL    HW284375  12.844   5.664   2.866
27515SOL     OW84376   8.014   7.554  14.510
27515SOL    HW184377   7.942   7.516  14.460
27515SOL    HW284378   8.081   7.486  14.512
27516SOL     OW84379   7.671   4.956   0.994
27516SOL    HW184380   7.705   4.871   0.970
27516SOL    HW284381   7.579   4.941   1.013
27517SOL     OW84382  14.225  13.526   7.746
27517SOL    HW184383  14.303  13.570   7.781
27517SOL    HW284384  14.173  13.504   7.823
27518SOL     OW84385  12.629   6.558   8.532
27518SOL    HW184386  12.649   6.523   8.619
27518SOL    HW284387  12.689   6.632   8.521
27519SOL     OW84388   8.844   3.517   7.852
27519SOL    HW184389   8.813   3.591   7.904
27519SOL    HW284390   8.862   3.449   7.917
27520SOL     OW84391   8.158  10.176  10.093
27520SOL    HW184392   8.206  10.209  10.017
27520SOL    HW284393   8.114  10.097  10.061
27521SOL     OW84394   1.499   1.169  11.584
27521SOL    HW184395   1.457   1.174  11.670
27521SOL    HW284396   1.581   1.123  11.600
27522SOL     OW84397   9.851   0.064   6.684
27522SOL    HW184398   9.772   0.065   6.631
27522SOL    HW284399   9.821   0.084   6.773
27523SOL     OW84400   7.117   2.042   4.519
27523SOL    HW184401   7.177   1.981   4.476
27523SOL    HW284402   7.156   2.128   4.503
27524SOL     OW84403   1.450   4.976   7.699
27524SOL    HW184404   1.410   4.944   7.780
27524SOL    HW284405   1.495   5.057   7.725
27525SOL     OW84406   5.344   0.118   6.404
27525SOL    HW184407   5.362   0.065   6.482
27525SOL    HW284408   5.397   0.197   6.415
27526SOL     OW84409  13.034   6.604   0.712
27526SOL    HW184410  12.950   6.640   0.684
27526SOL    HW284411  13.033   6.514   0.678
27527SOL     OW84412   0.499   3.064   2.845
27527SOL    HW184413   0.481   3.153   2.875
27527SOL    HW284414   0.592   3.050   2.866
27528SOL     OW84415   4.599  11.110   7.233
27528SOL    HW184416   4.611  11.018   7.255
27528SOL    HW284417   4.600  11.112   7.137
27529SOL     OW84418   3.040   4.845  11.368
27529SOL    HW184419   3.095   4.886  11.435
27529SOL    HW284420   2.952   4.848  11.404
27530SOL     OW84421   0.165   5.046  12.946
27530SOL    HW184422   0.220   5.072  13.020
27530SOL    HW284423   0.081   5.025  12.985
27531SOL     OW84424   3.947   5.342   3.014
27531SOL    HW184425   3.995   5.360   2.933
27531SOL    HW284426   3.927   5.428   3.050
27532SOL     OW84427   8.056  12.405  10.818
27532SOL    HW184428   8.017  12.364  10.741
27532SOL    HW284429   7.996  12.476  10.841
27533SOL     OW84430   4.657   0.508  11.469
27533SOL    HW184431   4.696   0.526  11.384
27533SOL    HW284432   4.609   0.426  11.457
27534SOL     OW84433   8.158   8.306   8.823
27534SOL    HW184434   8.204   8.245   8.766
27534SOL    HW284435   8.191   8.392   8.797
27535SOL     OW84436  12.204   3.953   0.323
27535SOL    HW184437  12.254   3.892   0.378
27535SOL    HW284438  12.122   3.907   0.306
27536SOL     OW84439   5.329   5.640   3.672
27536SOL    HW184440   5.329   5.555   3.627
27536SOL    HW284441   5.237   5.662   3.680
27537SOL     OW84442   6.868   3.816   4.414
27537SOL    HW184443   6.884   3.783   4.326
27537SOL    HW284444   6.793   3.875   4.405
27538SOL     OW84445   8.530   2.186  10.228
27538SOL    HW184446   8.518   2.280  10.215
27538SOL    HW284447   8.441   2.152  10.241
27539SOL     OW84448   5.433  10.339  11.662
27539SOL    HW184449   5.517  10.357  11.620
27539SOL    HW284450   5.380  10.417  11.644
27540SOL     OW84451   6.037  11.814   6.981
27540SOL    HW184452   5.995  11.841   7.063
27540SOL    HW284453   6.130  11.810   7.003
27541SOL     OW84454   8.326  14.575   2.415
27541SOL    HW184455   8.263  14.504   2.407
27541SOL    HW284456   8.392  14.556   2.348
27542SOL     OW84457   5.453  14.316  11.573
27542SOL    HW184458   5.416  14.402  11.594
27542SOL    HW284459   5.524  14.335  11.512
27543SOL     OW84460   7.127  10.893   6.065
27543SOL    HW184461   7.072  10.969   6.080
27543SOL    HW284462   7.188  10.920   5.996
27544SOL     OW84463   1.588  14.275  11.857
27544SOL    HW184464   1.603  14.195  11.806
27544SOL    HW284465   1.676  14.308  11.876
27545SOL     OW84466   7.225   2.226   9.407
27545SOL    HW184467   7.301   2.173   9.383
27545SOL    HW284468   7.241   2.250   9.499
27546SOL     OW84469  13.380  14.195   3.508
27546SOL    HW184470  13.359  14.203   3.601
27546SOL    HW284471  13.423  14.277   3.486
27547SOL     OW84472  11.773   4.620  13.602
27547SOL    HW184473  11.685   4.636  13.635
27547SOL    HW284474  11.818   4.577  13.674
27548SOL     OW84475   0.598   5.908  10.123
27548SOL    HW184476   0.549   5.968  10.067
27548SOL    HW284477   0.535   5.841  10.148
27549SOL     OW84478   6.035   9.911  10.919
27549SOL    HW184479   6.099   9.956  10.863
27549SOL    HW284480   6.055   9.818  10.910
27550SOL     OW84481   1.847   4.401   1.286
27550SOL    HW184482   1.820   4.489   1.259
27550SOL    HW284483   1.781   4.374   1.349
27551SOL     OW84484  13.908   2.127   3.856
27551SOL    HW184485  13.923   2.091   3.944
27551SOL    HW284486  13.942   2.060   3.797
27552SOL     OW84487   5.546   1.906   4.490
27552SOL    HW184488   5.577   1.934   4.403
27552SOL    HW284489   5.626   1.897   4.542
27553SOL     OW84490  13.128   2.674  14.494
27553SOL    HW184491  13.099   2.601  14.548
27553SOL    HW284492  13.094   2.752  14.538
27554SOL     OW84493   8.065  14.238  10.665
27554SOL    HW184494   8.031  14.312  10.715
27554SOL    HW284495   8.145  14.213  10.711
27555SOL     OW84496   0.946   7.561   7.491
27555SOL    HW184497   0.856   7.595   7.491
27555SOL    HW284498   0.944   7.486   7.550
27556SOL     OW84499  11.645  13.045  10.891
27556SOL    HW184500  11.591  12.969  10.868
27556SOL    HW284501  11.679  13.024  10.978
27557SOL     OW84502   5.389  14.611   5.536
27557SOL    HW184503   5.311  14.665   5.540
27557SOL    HW284504   5.459  14.667   5.569
27558SOL     OW84505   0.936  13.945   8.711
27558SOL    HW184506   0.916  13.962   8.803
27558SOL    HW284507   0.889  13.865   8.690
27559SOL     OW84508   8.436  12.479  12.938
27559SOL    HW184509   8.421  12.415  12.868
27559SOL    HW284510   8.496  12.543  12.899
27560SOL     OW84511   8.327   6.454   1.457
27560SOL    HW184512   8.375   6.440   1.376
27560SOL    HW284513   8.395   6.457   1.525
27561SOL     OW84514  14.299   1.711   9.289
27561SOL    HW184515  14.203   1.712   9.285
27561SOL    HW284516  14.327   1.709   9.197
27562SOL     OW84517   8.451   5.869   5.442
27562SOL    HW184518   8.401   5.855   5.362
27562SOL    HW284519   8.529   5.917   5.413
27563SOL     OW84520  11.457   7.330   1.114
27563SOL    HW184521  11.465   7.236   1.125
27563SOL    HW284522  11.533   7.367   1.159
27564SOL     OW84523   1.058   9.702  10.072
27564SOL    HW184524   1.097   9.784  10.044
27564SOL    HW284525   1.133   9.642  10.080
27565SOL     OW84526   6.851   3.001   9.455
27565SOL    HW184527   6.826   3.080   9.502
27565SOL    HW284528   6.834   2.930   9.518
27566SOL     OW84529   4.595   4.126   9.760
27566SOL    HW184530   4.642   4.201   9.724
27566SOL    HW284531   4.601   4.060   9.691
27567SOL     OW84532  13.318   1.674   7.179
27567SOL    HW184533  13.244   1.692   7.122
27567SOL    HW284534  13.376   1.749   7.168
27568SOL     OW84535   6.640  13.332   2.029
27568SOL    HW184536   6.717  13.387   2.013
27568SOL    HW284537   6.588  13.382   2.092
27569SOL     OW84538   5.092  14.356   9.721
27569SOL    HW184539   5.119  14.272   9.685
27569SOL    HW284540   5.067  14.408   9.645
27570SOL     OW84541   3.365  14.407   4.083
27570SOL    HW184542   3.308  14.462   4.136
27570SOL    HW284543   3.439  14.387   4.140
27571SOL     OW84544   6.937  11.096   8.012
27571SOL    HW184545   6.893  11.107   7.928
27571SOL    HW284546   6.942  11.184   8.048
27572SOL     OW84547   9.836   4.959   6.529
27572SOL    HW184548   9.887   4.904   6.589
27572SOL    HW284549   9.783   5.014   6.587
27573SOL     OW84550  11.098   8.989   8.253
27573SOL    HW184551  11.010   8.963   8.278
27573SOL    HW284552  11.151   8.910   8.266
27574SOL     OW84553  11.811  11.361  10.843
27574SOL    HW184554  11.766  11.344  10.926
27574SOL    HW284555  11.839  11.453  10.849
27575SOL     OW84556  13.903  11.768  10.119
27575SOL    HW184557  13.983  11.725  10.151
27575SOL    HW284558  13.920  11.862  10.131
27576SOL     OW84559   6.605   8.759  14.438
27576SOL    HW184560   6.667   8.783  14.369
27576SOL    HW284561   6.575   8.672  14.414
27577SOL     OW84562   8.574   8.844   9.366
27577SOL    HW184563   8.620   8.799   9.295
27577SOL    HW284564   8.562   8.777   9.433
27578SOL     OW84565   6.940   9.308   6.240
27578SOL    HW184566   6.923   9.334   6.149
27578SOL    HW284567   6.935   9.390   6.289
27579SOL     OW84568  11.952  12.447  13.553
27579SOL    HW184569  11.928  12.454  13.645
27579SOL    HW284570  12.035  12.399  13.554
27580SOL     OW84571  12.038   1.672   5.867
27580SOL    HW184572  11.991   1.706   5.943
27580SOL    HW284573  12.110   1.621   5.902
27581SOL     OW84574  12.247   8.700  11.437
27581SOL    HW184575  12.339   8.724  11.444
27581SOL    HW284576  12.199   8.780  11.458
27582SOL     OW84577  13.340  14.761  14.431
27582SOL    HW184578  13.294  14.784  14.351
27582SOL    HW284579  13.431  14.787  14.415
27583SOL     OW84580  11.938   2.507   6.498
27583SOL    HW184581  12.004   2.576   6.496
27583SOL    HW284582  11.878   2.529   6.427
27584SOL     OW84583  12.127   7.941   1.411
27584SOL    HW184584  12.211   7.907   1.382
27584SOL    HW284585  12.149   8.003   1.481
27585SOL     OW84586   1.042   4.048  11.313
27585SOL    HW184587   0.953   4.052  11.349
27585SOL    HW284588   1.051   4.129  11.263
27586SOL     OW84589   8.934   4.309  10.528
27586SOL    HW184590   8.854   4.308  10.476
27586SOL    HW284591   9.005   4.305  10.464
27587SOL     OW84592   3.236  14.633  13.145
27587SOL    HW184593   3.273  14.693  13.210
27587SOL    HW284594   3.170  14.686  13.099
27588SOL     OW84595   7.542   2.849   3.486
27588SOL    HW184596   7.448   2.863   3.488
27588SOL    HW284597   7.580   2.931   3.518
27589SOL     OW84598   9.486  13.681   1.087
27589SOL    HW184599   9.548  13.610   1.070
27589SOL    HW284600   9.512  13.715   1.173
27590SOL     OW84601  13.370   7.273   1.670
27590SOL    HW184602  13.401   7.343   1.727
27590SOL    HW284603  13.287   7.305   1.635
27591SOL     OW84604   9.225   2.317   9.993
27591SOL    HW184605   9.145   2.348   9.950
27591SOL    HW284606   9.222   2.222   9.982
27592SOL     OW84607  10.137  12.714  13.057
27592SOL    HW184608  10.083  12.737  12.982
27592SOL    HW284609  10.156  12.621  13.046
27593SOL     OW84610   9.253  12.488   0.407
27593SOL    HW184611   9.339  12.525   0.428
27593SOL    HW284612   9.234  12.428   0.479
27594SOL     OW84613  10.772   6.970  14.633
27594SOL    HW184614  10.840   7.018  14.682
27594SOL    HW284615  10.813   6.885  14.613
27595SOL     OW84616   2.711   1.451  14.333
27595SOL    HW184617   2.757   1.375  14.299
27595SOL    HW284618   2.632   1.457  14.279
27596SOL     OW84619   7.923   0.580  13.726
27596SOL    HW184620   7.930   0.486  13.716
27596SOL    HW284621   8.003   0.615  13.688
27597SOL     OW84622  14.827   6.141   3.446
27597SOL    HW184623  14.817   6.226   3.488
27597SOL    HW284624   0.047   6.138   3.421
27598SOL     OW84625   2.464   1.523  14.232
27598SOL    HW184626   2.414   1.577  14.293
27598SOL    HW284627   2.444   1.560  14.146
27599SOL     OW84628  13.142   9.734   3.678
27599SOL    HW184629  13.090   9.744   3.758
27599SOL    HW284630  13.128   9.643   3.651
27600SOL     OW84631  11.065  11.562   3.086
27600SOL    HW184632  11.083  11.498   3.154
27600SOL    HW284633  11.134  11.547   3.020
27601SOL     OW84634  14.120   7.793   5.028
27601SOL    HW184635  14.043   7.836   4.991
27601SOL    HW284636  14.194   7.832   4.982
27602SOL     OW84637  10.166   1.465   5.116
27602SOL    HW184638  10.119   1.397   5.164
27602SOL    HW284639  10.104   1.496   5.050
27603SOL     OW84640   9.305   1.768   6.118
27603SOL    HW184641   9.260   1.844   6.155
27603SOL    HW284642   9.395   1.776   6.148
27604SOL     OW84643   2.654   3.858   5.737
27604SOL    HW184644   2.622   3.768   5.740
27604SOL    HW284645   2.740   3.852   5.697
27605SOL     OW84646  12.262   2.086   5.057
27605SOL    HW184647  12.247   2.175   5.023
27605SOL    HW284648  12.190   2.072   5.119
27606SOL     OW84649  14.483   9.351  12.295
27606SOL    HW184650  14.482   9.320  12.204
27606SOL    HW284651  14.552   9.418  12.296
27607SOL     OW84652   2.508  10.343   0.654
27607SOL    HW184653   2.481  10.305   0.570
27607SOL    HW284654   2.516  10.437   0.636
27608SOL     OW84655  12.542   7.296  12.631
27608SOL    HW184656  12.617   7.251  12.592
27608SOL    HW284657  12.540   7.265  12.722
27609SOL     OW84658   8.114   4.932   1.074
27609SOL    HW184659   8.035   4.928   1.127
27609SOL    HW284660   8.182   4.893   1.129
27610SOL     OW84661   7.003   3.034   5.217
27610SOL    HW184662   7.063   3.109   5.212
27610SOL    HW284663   6.921   3.072   5.248
27611SOL     OW84664  14.728   8.486   3.545
27611SOL    HW184665  14.812   8.460   3.583
27611SOL    HW284666  14.687   8.539   3.612
27612SOL     OW84667   1.000   5.386   0.982
27612SOL    HW184668   0.955   5.307   1.011
27612SOL    HW284669   0.933   5.455   0.984
27613SOL     OW84670  11.215   9.729  12.253
27613SOL    HW184671  11.261   9.646  12.257
27613SOL    HW284672  11.128   9.710  12.290
27614SOL     OW84673  11.128   0.552   5.174
27614SOL    HW184674  11.209   0.513   5.141
27614SOL    HW284675  11.075   0.478   5.203
27615SOL     OW84676   9.963  12.021   9.360
27615SOL    HW184677   9.936  11.975   9.281
27615SOL    HW284678   9.886  12.073   9.384
27616SOL     OW84679   6.403   7.706   9.013
27616SOL    HW184680   6.341   7.742   9.077
27616SOL    HW284681   6.489   7.721   9.052
27617SOL     OW84682  12.033  11.074   7.303
27617SOL    HW184683  12.069  11.142   7.360
27617SOL    HW284684  12.033  10.995   7.358
27618SOL     OW84685   2.022   1.947   1.616
27618SOL    HW184686   2.095   1.907   1.570
27618SOL    HW284687   2.047   1.944   1.708
27619SOL     OW84688   2.292  12.489   3.715
27619SOL    HW184689   2.270  12.487   3.808
27619SOL    HW284690   2.251  12.569   3.683
27620SOL     OW84691   3.898  12.359   9.684
27620SOL    HW184692   3.986  12.358   9.648
27620SOL    HW284693   3.846  12.309   9.621
27621SOL     OW84694   4.530   9.846   5.651
27621SOL    HW184695   4.578   9.773   5.611
27621SOL    HW284696   4.596   9.914   5.663
27622SOL     OW84697  11.438   7.490   3.350
27622SOL    HW184698  11.520   7.463   3.310
27622SOL    HW284699  11.420   7.577   3.313
27623SOL     OW84700   3.174   9.563   9.415
27623SOL    HW184701   3.158   9.619   9.491
27623SOL    HW284702   3.245   9.505   9.442
27624SOL     OW84703  12.186   9.454   8.671
27624SOL    HW184704  12.277   9.481   8.660
27624SOL    HW284705  12.145   9.528   8.715
27625SOL     OW84706   1.372  10.410   6.456
27625SOL    HW184707   1.384  10.442   6.367
27625SOL    HW284708   1.304  10.467   6.492
27626SOL     OW84709  14.677   9.557   8.747
27626SOL    HW184710  14.653   9.469   8.719
27626SOL    HW284711  14.727   9.544   8.828
27627SOL     OW84712  14.729   9.798  10.222
27627SOL    HW184713  14.786   9.875  10.231
27627SOL    HW284714  14.776   9.741  10.161
27628SOL     OW84715   8.044  10.797  10.457
27628SOL    HW184716   8.125  10.747  10.448
27628SOL    HW284717   8.047  10.832  10.546
27629SOL     OW84718  10.497   5.391   8.634
27629SOL    HW184719  10.425   5.453   8.642
27629SOL    HW284720  10.568   5.429   8.687
27630SOL     OW84721   4.404  11.331   6.919
27630SOL    HW184722   4.446  11.247   6.938
27630SOL    HW284723   4.348  11.314   6.843
27631SOL     OW84724   3.823  12.406  12.078
27631SOL    HW184725   3.750  12.464  12.100
27631SOL    HW284726   3.828  12.410  11.982
27632SOL     OW84727   1.347   9.961  12.398
27632SOL    HW184728   1.338   9.867  12.411
27632SOL    HW284729   1.402   9.970  12.320
27633SOL     OW84730   9.153   0.370   0.247
27633SOL    HW184731   9.153   0.274   0.243
27633SOL    HW284732   9.244   0.394   0.260
27634SOL     OW84733   2.417   8.096   8.474
27634SOL    HW184734   2.380   8.165   8.529
27634SOL    HW284735   2.340   8.051   8.437
27635SOL     OW84736   4.985   0.935   2.378
27635SOL    HW184737   4.895   0.936   2.410
27635SOL    HW284738   5.009   1.027   2.371
27636SOL     OW84739   2.161  12.311  12.046
27636SOL    HW184740   2.144  12.289  12.138
27636SOL    HW284741   2.252  12.339  12.045
27637SOL     OW84742   8.618   3.729  12.227
27637SOL    HW184743   8.633   3.782  12.306
27637SOL    HW284744   8.706   3.702  12.199
27638SOL     OW84745   7.597   7.067  10.070
27638SOL    HW184746   7.629   7.110   9.991
27638SOL    HW284747   7.517   7.114  10.093
27639SOL     OW84748   6.867   3.681   3.825
27639SOL    HW184749   6.877   3.774   3.844
27639SOL    HW284750   6.895   3.672   3.734
27640SOL     OW84751   8.633   2.504   5.871
27640SOL    HW184752   8.550   2.543   5.899
27640SOL    HW284753   8.640   2.424   5.922
27641SOL     OW84754  13.250   7.012   6.172
27641SOL    HW184755  13.161   7.043   6.155
27641SOL    HW284756  13.305   7.065   6.114
27642SOL     OW84757   8.455   4.093  12.041
27642SOL    HW184758   8.408   4.071  12.122
27642SOL    HW284759   8.500   4.012  12.017
27643SOL     OW84760   8.508   2.390  13.772
27643SOL    HW184761   8.604   2.399  13.767
27643SOL    HW284762   8.483   2.352  13.688
27644SOL     OW84763   8.816   0.921  14.055
27644SOL    HW184764   8.895   0.889  14.098
27644SOL    HW284765   8.806   1.011  14.086
27645SOL     OW84766  14.214   6.326   4.875
27645SOL    HW184767  14.243   6.402   4.925
27645SOL    HW284768  14.177   6.362   4.795
27646SOL     OW84769   9.385   0.104   2.853
27646SOL    HW184770   9.461   0.108   2.795
27646SOL    HW284771   9.362   0.012   2.857
27647SOL     OW84772   1.234  12.145   2.128
27647SOL    HW184773   1.327  12.124   2.113
27647SOL    HW284774   1.233  12.240   2.140
27648SOL     OW84775   2.981   0.332  13.438
27648SOL    HW184776   3.049   0.386  13.478
27648SOL    HW284777   2.906   0.341  13.497
27649SOL     OW84778   9.005   8.684   9.857
27649SOL    HW184779   9.035   8.620   9.793
27649SOL    HW284780   9.044   8.657   9.940
27650SOL     OW84781  12.889   1.068   2.995
27650SOL    HW184782  12.919   1.058   2.905
27650SOL    HW284783  12.892   1.162   3.011
27651SOL     OW84784   4.890  11.344  13.555
27651SOL    HW184785   4.929  11.418  13.509
27651SOL    HW284786   4.945  11.332  13.632
27652SOL     OW84787  10.387   7.083  12.033
27652SOL    HW184788  10.403   7.177  12.042
27652SOL    HW284789  10.309   7.077  11.978
27653SOL     OW84790   4.851   8.961   2.120
27653SOL    HW184791   4.837   9.007   2.037
27653SOL    HW284792   4.913   9.016   2.168
27654SOL     OW84793   1.259  11.000   2.089
27654SOL    HW184794   1.337  10.949   2.067
27654SOL    HW284795   1.200  10.985   2.015
27655SOL     OW84796  12.483   7.264   8.886
27655SOL    HW184797  12.575   7.289   8.880
27655SOL    HW284798  12.485   7.175   8.922
27656SOL     OW84799  13.029   0.476   0.756
27656SOL    HW184800  13.039   0.451   0.848
27656SOL    HW284801  13.113   0.516   0.732
27657SOL     OW84802  10.812   6.414   3.303
27657SOL    HW184803  10.734   6.415   3.358
27657SOL    HW284804  10.779   6.425   3.214
27658SOL     OW84805  10.762   1.172   5.693
27658SOL    HW184806  10.824   1.216   5.634
27658SOL    HW284807  10.676   1.200   5.661
27659SOL     OW84808   8.798   0.951   4.931
27659SOL    HW184809   8.875   1.008   4.925
27659SOL    HW284810   8.770   0.938   4.840
27660SOL     OW84811  10.759   6.241   4.807
27660SOL    HW184812  10.717   6.313   4.854
27660SOL    HW284813  10.771   6.273   4.718
27661SOL     OW84814   2.647   6.590   3.990
27661SOL    HW184815   2.703   6.605   3.914
27661SOL    HW284816   2.679   6.508   4.027
27662SOL     OW84817   2.848   4.453   0.144
27662SOL    HW184818   2.908   4.497   0.203
27662SOL    HW284819   2.855   4.501   0.062
27663SOL     OW84820   1.754   0.915   3.600
27663SOL    HW184821   1.849   0.922   3.598
27663SOL    HW284822   1.728   0.910   3.508
27664SOL     OW84823   7.979   3.312   0.464
27664SOL    HW184824   8.057   3.270   0.500
27664SOL    HW284825   7.951   3.374   0.531
27665SOL     OW84826   0.987   3.404  10.444
27665SOL    HW184827   1.077   3.371  10.442
27665SOL    HW284828   0.956   3.393  10.354
27666SOL     OW84829  14.320   1.800  13.512
27666SOL    HW184830  14.401   1.806  13.462
27666SOL    HW284831  14.343   1.833  13.599
27667SOL     OW84832  12.808   4.866   7.583
27667SOL    HW184833  12.713   4.875   7.585
27667SOL    HW284834  12.832   4.887   7.493
27668SOL     OW84835   4.883   3.399  10.461
27668SOL    HW184836   4.891   3.400  10.557
27668SOL    HW284837   4.806   3.453  10.444
27669SOL     OW84838   9.934  14.617   0.720
27669SOL    HW184839   9.846  14.625   0.756
27669SOL    HW284840   9.953  14.523   0.720
27670SOL     OW84841   2.245  10.406   0.152
27670SOL    HW184842   2.324  10.442   0.112
27670SOL    HW284843   2.174  10.456   0.113
27671SOL     OW84844   6.164  12.333   4.567
27671SOL    HW184845   6.116  12.300   4.490
27671SOL    HW284846   6.175  12.427   4.550
27672SOL     OW84847  11.991   2.497   4.164
27672SOL    HW184848  11.996   2.593   4.154
27672SOL    HW284849  12.045   2.478   4.240
27673SOL     OW84850   5.210   0.466   8.569
27673SOL    HW184851   5.134   0.523   8.576
27673SOL    HW284852   5.210   0.437   8.477
27674SOL     OW84853  14.067   9.736   8.093
27674SOL    HW184854  14.015   9.715   8.170
27674SOL    HW284855  14.128   9.804   8.122
27675SOL     OW84856  10.750   9.911   4.236
27675SOL    HW184857  10.846   9.908   4.228
27675SOL    HW284858  10.735   9.923   4.330
27676SOL     OW84859   6.269  14.017   8.821
27676SOL    HW184860   6.208  14.068   8.767
27676SOL    HW284861   6.227  14.011   8.906
27677SOL     OW84862   7.094   4.148  14.110
27677SOL    HW184863   7.084   4.153  14.205
27677SOL    HW284864   7.061   4.061  14.088
27678SOL     OW84865   1.332   9.066   4.392
27678SOL    HW184866   1.277   9.144   4.390
27678SOL    HW284867   1.327   9.035   4.482
27679SOL     OW84868   2.641  13.295   8.901
27679SOL    HW184869   2.667  13.242   8.825
27679SOL    HW284870   2.569  13.349   8.869
27680SOL     OW84871   4.660   2.128   5.993
27680SOL    HW184872   4.691   2.219   5.995
27680SOL    HW284873   4.711   2.087   5.924
27681SOL     OW84874   0.781   0.271   8.069
27681SOL    HW184875   0.692   0.243   8.093
27681SOL    HW284876   0.838   0.218   8.126
27682SOL     OW84877   9.774  10.147   0.876
27682SOL    HW184878   9.744  10.227   0.919
27682SOL    HW284879   9.720  10.140   0.797
27683SOL     OW84880  14.810   7.361   8.993
27683SOL    HW184881  14.770   7.448   8.993
27683SOL    HW284882  14.754   7.308   9.050
27684SOL     OW84883  11.370   4.830   3.956
27684SOL    HW184884  11.389   4.818   4.049
27684SOL    HW284885  11.283   4.792   3.945
27685SOL     OW84886   5.314  12.850   9.701
27685SOL    HW184887   5.256  12.894   9.763
27685SOL    HW284888   5.355  12.921   9.651
27686SOL     OW84889   7.270   8.915  12.207
27686SOL    HW184890   7.257   8.907  12.112
27686SOL    HW284891   7.365   8.911  12.218
27687SOL     OW84892   6.888  14.606   3.075
27687SOL    HW184893   6.976  14.581   3.045
27687SOL    HW284894   6.840  14.523   3.080
27688SOL     OW84895   3.933   9.446   8.526
27688SOL    HW184896   3.852   9.432   8.475
27688SOL    HW284897   3.924   9.535   8.562
27689SOL     OW84898  10.348  13.243  10.915
27689SOL    HW184899  10.369  13.271  11.004
27689SOL    HW284900  10.297  13.163  10.926
27690SOL     OW84901  14.547   5.542  12.689
27690SOL    HW184902  14.539   5.587  12.773
27690SOL    HW284903  14.602   5.466  12.707
27691SOL     OW84904   2.962   3.005  11.643
27691SOL    HW184905   2.904   3.054  11.701
27691SOL    HW284906   2.960   3.053  11.561
27692SOL     OW84907   6.065   3.603   8.417
27692SOL    HW184908   6.044   3.645   8.333
27692SOL    HW284909   6.045   3.670   8.483
27693SOL     OW84910   1.654  14.548  14.870
27693SOL    HW184911   1.718  14.482  14.844
27693SOL    HW284912   1.671  14.562   0.091
27694SOL     OW84913   4.117  12.584  12.762
27694SOL    HW184914   4.094  12.506  12.813
27694SOL    HW284915   4.090  12.657  12.817
27695SOL     OW84916  14.789   7.255  11.402
27695SOL    HW184917  14.759   7.346  11.398
27695SOL    HW284918   0.013   7.262  11.401
27696SOL     OW84919   2.914  10.081  12.766
27696SOL    HW184920   2.921  10.036  12.851
27696SOL    HW284921   2.823  10.071  12.741
27697SOL     OW84922   2.891   7.169   7.880
27697SOL    HW184923   2.825   7.105   7.853
27697SOL    HW284924   2.906   7.222   7.802
27698SOL     OW84925  13.154   6.379  13.897
27698SOL    HW184926  13.086   6.446  13.889
27698SOL    HW284927  13.192   6.372  13.810
27699SOL     OW84928   5.964   5.500   0.868
27699SOL    HW184929   5.933   5.412   0.850
27699SOL    HW284930   5.992   5.498   0.959
27700SOL     OW84931   1.027   9.915   9.560
27700SOL    HW184932   1.100   9.914   9.498
27700SOL    HW284933   0.949   9.920   9.504
27701SOL     OW84934  13.243   1.214   6.588
27701SOL    HW184935  13.213   1.132   6.549
27701SOL    HW284936  13.171   1.241   6.645
27702SOL     OW84937  11.687   9.832   6.320
27702SOL    HW184938  11.606   9.885   6.322
27702SOL    HW284939  11.657   9.742   6.330
27703SOL     OW84940   9.575  13.930   8.115
27703SOL    HW184941   9.610  13.931   8.026
27703SOL    HW284942   9.638  13.878   8.165
27704SOL     OW84943   5.378  11.247   9.359
27704SOL    HW184944   5.456  11.225   9.410
27704SOL    HW284945   5.316  11.176   9.378
27705SOL     OW84946   0.451  14.089   7.023
27705SOL    HW184947   0.466  14.180   6.999
27705SOL    HW284948   0.359  14.085   7.047
27706SOL     OW84949   8.901   1.881   6.077
27706SOL    HW184950   8.925   1.825   6.150
27706SOL    HW284951   8.944   1.964   6.094
27707SOL     OW84952   2.100   7.828  10.740
27707SOL    HW184953   2.047   7.908  10.741
27707SOL    HW284954   2.129   7.820  10.649
27708SOL     OW84955  12.056   3.340  13.018
27708SOL    HW184956  12.017   3.425  12.999
27708SOL    HW284957  12.135   3.337  12.964
27709SOL     OW84958   8.249   3.431   9.546
27709SOL    HW184959   8.253   3.412   9.452
27709SOL    HW284960   8.161   3.464   9.561
27710SOL     OW84961   9.624   2.000  13.749
27710SOL    HW184962   9.597   1.928  13.806
27710SOL    HW284963   9.699   2.039  13.793
27711SOL     OW84964   4.367   3.043   5.151
27711SOL    HW184965   4.307   3.101   5.197
27711SOL    HW284966   4.454   3.078   5.171
27712SOL     OW84967   2.581   9.325   4.474
27712SOL    HW184968   2.565   9.418   4.458
27712SOL    HW284969   2.673   9.312   4.454
27713SOL     OW84970   3.389  14.480  11.345
27713SOL    HW184971   3.353  14.424  11.277
27713SOL    HW284972   3.422  14.420  11.412
27714SOL     OW84973  12.970  12.815  12.030
27714SOL    HW184974  12.897  12.871  12.057
27714SOL    HW284975  13.041  12.875  12.010
27715SOL     OW84976   8.741   4.200   1.521
27715SOL    HW184977   8.796   4.247   1.584
27715SOL    HW284978   8.789   4.207   1.438
27716SOL     OW84979   3.573   2.844   5.677
27716SOL    HW184980   3.611   2.816   5.594
27716SOL    HW284981   3.634   2.812   5.743
27717SOL     OW84982  12.477   1.802   5.608
27717SOL    HW184983  12.564   1.812   5.647
27717SOL    HW284984  12.450   1.713   5.631
27718SOL     OW84985  13.416   3.428  10.292
27718SOL    HW184986  13.495   3.448  10.344
27718SOL    HW284987  13.440   3.452  10.203
27719SOL     OW84988  13.864   1.937  13.274
27719SOL    HW184989  13.947   1.889  13.276
27719SOL    HW284990  13.810   1.888  13.212
27720SOL     OW84991  12.828   8.431  12.091
27720SOL    HW184992  12.823   8.513  12.041
27720SOL    HW284993  12.844   8.364  12.024
27721SOL     OW84994   0.228   9.559   7.385
27721SOL    HW184995   0.252   9.495   7.451
27721SOL    HW284996   0.167   9.618   7.429
27722SOL     OW84997   7.317   3.872  13.284
27722SOL    HW184998   7.378   3.820  13.337
27722SOL    HW284999   7.372   3.938  13.243
27723SOL     OW85000  10.253  14.544   8.279
27723SOL    HW185001  10.201  14.524   8.357
27723SOL    HW285002  10.321  14.602   8.310
27724SOL     OW85003   9.138   4.428  12.080
27724SOL    HW185004   9.091   4.380  12.012
27724SOL    HW285005   9.220   4.456  12.037
27725SOL     OW85006   6.922  10.186   3.185
27725SOL    HW185007   6.867  10.111   3.208
27725SOL    HW285008   6.934  10.234   3.267
27726SOL     OW85009  11.644  13.295  13.952
27726SOL    HW185010  11.557  13.276  13.987
27726SOL    HW285011  11.681  13.209  13.932
27727SOL     OW85012  13.858   5.585  10.943
27727SOL    HW185013  13.837   5.532  11.020
27727SOL    HW285014  13.786   5.569  10.883
27728SOL     OW85015   9.145  13.910  14.720
27728SOL    HW185016   9.179  13.984  14.669
27728SOL    HW285017   9.193  13.914  14.803
27729SOL     OW85018  10.851  13.172  10.058
27729SOL    HW185019  10.938  13.150  10.092
27729SOL    HW285020  10.819  13.241  10.116
27730SOL     OW85021   1.127  10.223   4.509
27730SOL    HW185022   1.078  10.163   4.453
27730SOL    HW285023   1.061  10.284   4.543
27731SOL     OW85024   9.295   1.609   0.613
27731SOL    HW185025   9.226   1.646   0.669
27731SOL    HW285026   9.324   1.683   0.560
27732SOL     OW85027  14.486  12.685  11.896
27732SOL    HW185028  14.487  12.608  11.953
27732SOL    HW285029  14.558  12.739  11.928
27733SOL     OW85030   2.784   8.712   0.725
27733SOL    HW185031   2.869   8.689   0.761
27733SOL    HW285032   2.758   8.792   0.771
27734SOL     OW85033  11.846   3.768  14.080
27734SOL    HW185034  11.875   3.856  14.056
27734SOL    HW285035  11.804   3.734  14.001
27735SOL     OW85036  13.434   9.876   4.420
27735SOL    HW185037  13.347   9.916   4.429
27735SOL    HW285038  13.419   9.782   4.429
27736SOL     OW85039  14.317   2.383   8.315
27736SOL    HW185040  14.303   2.338   8.232
27736SOL    HW285041  14.329   2.312   8.379
27737SOL     OW85042   6.375  14.759   4.701
27737SOL    HW185043   6.383  14.854   4.693
27737SOL    HW285044   6.400  14.726   4.614
27738SOL     OW85045  14.030  11.503   2.696
27738SOL    HW185046  14.052  11.517   2.604
27738SOL    HW285047  14.062  11.414   2.714
27739SOL     OW85048   8.854   4.819   9.948
27739SOL    HW185049   8.888   4.867  10.024
27739SOL    HW285050   8.911   4.742   9.941
27740SOL     OW85051   5.247   3.246  12.526
27740SOL    HW185052   5.342   3.259  12.525
27740SOL    HW285053   5.213   3.321  12.477
27741SOL     OW85054   5.750   9.442  11.496
27741SOL    HW185055   5.698   9.477  11.424
27741SOL    HW285056   5.784   9.520  11.541
27742SOL     OW85057   2.827   6.935   8.687
27742SOL    HW185058   2.816   6.995   8.761
27742SOL    HW285059   2.822   6.991   8.610
27743SOL     OW85060  13.183   2.194  11.834
27743SOL    HW185061  13.160   2.209  11.926
27743SOL    HW285062  13.134   2.261  11.787
27744SOL     OW85063   9.317   4.829   5.210
27744SOL    HW185064   9.340   4.888   5.139
27744SOL    HW285065   9.245   4.776   5.176
27745SOL     OW85066   0.819  10.304   6.771
27745SOL    HW185067   0.779  10.377   6.724
27745SOL    HW285068   0.782  10.226   6.729
27746SOL     OW85069   6.990   3.442   5.819
27746SOL    HW185070   6.975   3.349   5.836
27746SOL    HW285071   7.002   3.448   5.724
27747SOL     OW85072   1.228   9.635  12.501
27747SOL    HW185073   1.322   9.652  12.494
27747SOL    HW285074   1.222   9.564  12.565
27748SOL     OW85075   9.337   7.908  13.820
27748SOL    HW185076   9.274   7.916  13.892
27748SOL    HW285077   9.344   7.997  13.785
27749SOL     OW85078   4.185  11.847   1.923
27749SOL    HW185079   4.203  11.938   1.902
27749SOL    HW285080   4.106  11.826   1.872
27750SOL     OW85081  12.207   2.398   2.102
27750SOL    HW185082  12.130   2.453   2.091
27750SOL    HW285083  12.248   2.396   2.015
27751SOL     OW85084  14.763   4.145   6.663
27751SOL    HW185085  14.822   4.119   6.592
27751SOL    HW285086  14.718   4.064   6.687
27752SOL     OW85087  10.357   8.014   3.036
27752SOL    HW185088  10.306   7.936   3.016
27752SOL    HW285089  10.291   8.081   3.055
27753SOL     OW85090  11.394  13.875   2.244
27753SOL    HW185091  11.454  13.854   2.316
27753SOL    HW285092  11.308  13.882   2.285
27754SOL     OW85093  10.922  11.832   4.972
27754SOL    HW185094  10.957  11.748   5.000
27754SOL    HW285095  10.850  11.810   4.913
27755SOL     OW85096   8.750  11.922   0.684
27755SOL    HW185097   8.737  11.856   0.616
27755SOL    HW285098   8.797  11.877   0.754
27756SOL     OW85099   8.652   3.088   5.550
27756SOL    HW185100   8.564   3.103   5.586
27756SOL    HW285101   8.711   3.132   5.611
27757SOL     OW85102   0.872  13.956   0.170
27757SOL    HW185103   0.945  13.987   0.223
27757SOL    HW285104   0.840  14.034   0.125
27758SOL     OW85105   7.936   2.537  12.881
27758SOL    HW185106   7.925   2.571  12.792
27758SOL    HW285107   8.031   2.530  12.892
27759SOL     OW85108  12.561  10.770   1.717
27759SOL    HW185109  12.560  10.676   1.735
27759SOL    HW285110  12.608  10.808   1.791
27760SOL     OW85111   9.406   8.914  11.700
27760SOL    HW185112   9.465   8.842  11.679
27760SOL    HW285113   9.337   8.909  11.634
27761SOL     OW85114  14.107  13.042  13.053
27761SOL    HW185115  14.064  13.037  13.138
27761SOL    HW285116  14.040  13.016  12.990
27762SOL     OW85117   5.294  10.637   9.628
27762SOL    HW185118   5.217  10.678   9.667
27762SOL    HW285119   5.363  10.651   9.693
27763SOL     OW85120   9.606   5.057   0.702
27763SOL    HW185121   9.587   4.968   0.731
27763SOL    HW285122   9.693   5.076   0.737
27764SOL     OW85123  14.504   1.752   1.783
27764SOL    HW185124  14.526   1.844   1.772
27764SOL    HW285125  14.588   1.706   1.782
27765SOL     OW85126   0.144  10.583   0.980
27765SOL    HW185127   0.078  10.516   0.998
27765SOL    HW285128   0.164  10.572   0.887
27766SOL     OW85129   2.201   0.372   4.513
27766SOL    HW185130   2.226   0.299   4.457
27766SOL    HW285131   2.107   0.361   4.525
27767SOL     OW85132  13.425   1.454  13.079
27767SOL    HW185133  13.491   1.518  13.106
27767SOL    HW285134  13.470   1.370  13.082
27768SOL     OW85135   9.413   8.387   3.278
27768SOL    HW185136   9.458   8.384   3.362
27768SOL    HW285137   9.396   8.296   3.256
27769SOL     OW85138  14.607   8.430   2.343
27769SOL    HW185139  14.607   8.506   2.402
27769SOL    HW285140  14.577   8.465   2.259
27770SOL     OW85141  10.954   2.889   2.054
27770SOL    HW185142  11.027   2.926   2.102
27770SOL    HW285143  10.946   2.943   1.975
27771SOL     OW85144   9.692   9.075   4.297
27771SOL    HW185145   9.657   9.078   4.386
27771SOL    HW285146   9.616   9.091   4.241
27772SOL     OW85147   0.619  11.177  12.221
27772SOL    HW185148   0.533  11.150  12.186
27772SOL    HW285149   0.678  11.107  12.193
27773SOL     OW85150   1.282  10.158   7.223
27773SOL    HW185151   1.193  10.192   7.230
27773SOL    HW285152   1.271  10.063   7.217
27774SOL     OW85153   6.103  11.489  12.757
27774SOL    HW185154   6.155  11.411  12.738
27774SOL    HW285155   6.157  11.539  12.818
27775SOL     OW85156  12.035  10.081  14.182
27775SOL    HW185157  11.973  10.145  14.148
27775SOL    HW285158  12.015  10.075  14.275
27776SOL     OW85159   3.415  11.498  13.924
27776SOL    HW185160   3.469  11.444  13.982
27776SOL    HW285161   3.423  11.587  13.959
27777SOL     OW85162  10.543  10.244  12.126
27777SOL    HW185163  10.468  10.220  12.180
27777SOL    HW285164  10.582  10.160  12.100
27778SOL     OW85165  12.739   5.506   9.897
27778SOL    HW185166  12.784   5.423   9.882
27778SOL    HW285167  12.789   5.548   9.967
27779SOL     OW85168  12.480   5.946   0.346
27779SOL    HW185169  12.390   5.927   0.372
27779SOL    HW285170  12.523   5.860   0.346
27780SOL     OW85171  14.044   9.025  14.100
27780SOL    HW185172  14.112   9.035  14.033
27780SOL    HW285173  14.053   8.934  14.129
27781SOL     OW85174  10.990   3.091   1.859
27781SOL    HW185175  10.990   3.108   1.765
27781SOL    HW285176  11.082   3.088   1.883
27782SOL     OW85177   0.810  10.027   8.380
27782SOL    HW185178   0.748  10.100   8.382
27782SOL    HW285179   0.847  10.025   8.468
27783SOL     OW85180  10.129   9.573   5.031
27783SOL    HW185181  10.104   9.498   4.978
27783SOL    HW285182  10.175   9.632   4.970
27784SOL     OW85183   4.252   1.734  13.015
27784SOL    HW185184   4.222   1.820  12.985
27784SOL    HW285185   4.181   1.702  13.069
27785SOL     OW85186  12.299  13.802   8.671
27785SOL    HW185187  12.305  13.897   8.678
27785SOL    HW285188  12.315  13.770   8.759
27786SOL     OW85189  14.029  12.981   1.546
27786SOL    HW185190  14.109  13.018   1.584
27786SOL    HW285191  13.966  12.980   1.619
27787SOL     OW85192   3.704  13.321   2.928
27787SOL    HW185193   3.789  13.364   2.920
27787SOL    HW285194   3.647  13.368   2.867
27788SOL     OW85195   1.065   1.582  14.037
27788SOL    HW185196   1.041   1.500  13.995
27788SOL    HW285197   1.136   1.559  14.097
27789SOL     OW85198  11.047  11.909   5.992
27789SOL    HW185199  11.040  11.847   5.920
27789SOL    HW285200  11.140  11.932   5.995
27790SOL     OW85201   5.729   5.053   0.768
27790SOL    HW185202   5.715   4.964   0.800
27790SOL    HW285203   5.648   5.075   0.723
27791SOL     OW85204  10.870   6.147   3.727
27791SOL    HW185205  10.816   6.139   3.648
27791SOL    HW285206  10.807   6.155   3.799
27792SOL     OW85207   3.846   4.395   0.765
27792SOL    HW185208   3.932   4.437   0.753
27792SOL    HW285209   3.865   4.301   0.764
27793SOL     OW85210  13.059   3.304   8.966
27793SOL    HW185211  12.995   3.247   9.009
27793SOL    HW285212  13.136   3.248   8.953
27794SOL     OW85213   7.622  13.280   9.178
27794SOL    HW185214   7.618  13.366   9.219
27794SOL    HW285215   7.695  13.285   9.116
27795SOL     OW85216   6.115   9.484   1.971
27795SOL    HW185217   6.165   9.547   2.022
27795SOL    HW285218   6.054   9.445   2.034
27796SOL     OW85219   2.226   7.751   4.355
27796SOL    HW185220   2.276   7.679   4.393
27796SOL    HW285221   2.214   7.812   4.427
27797SOL     OW85222  11.227  11.877   7.572
27797SOL    HW185223  11.248  11.966   7.599
27797SOL    HW285224  11.294  11.823   7.614
27798SOL     OW85225  10.965   2.845  12.032
27798SOL    HW185226  11.040   2.870  12.087
27798SOL    HW285227  11.003   2.826  11.947
27799SOL     OW85228   7.169   7.203  13.480
27799SOL    HW185229   7.249   7.167  13.441
27799SOL    HW285230   7.110   7.215  13.405
27800SOL     OW85231   3.061  11.307   5.593
27800SOL    HW185232   3.079  11.215   5.573
27800SOL    HW285233   2.999  11.304   5.666
27801SOL     OW85234  10.045   7.855  14.410
27801SOL    HW185235  10.013   7.781  14.358
27801SOL    HW285236  10.114   7.894  14.356
27802SOL     OW85237   8.409  10.748  13.014
27802SOL    HW185238   8.336  10.807  13.033
27802SOL    HW285239   8.397  10.674  13.072
27803SOL     OW85240   9.634  11.810   6.665
27803SOL    HW185241   9.689  11.742   6.626
27803SOL    HW285242   9.695  11.876   6.698
27804SOL     OW85243   0.180   9.942   4.581
27804SOL    HW185244   0.118  10.015   4.590
27804SOL    HW285245   0.186   9.905   4.669
27805SOL     OW85246  12.465  10.035  13.880
27805SOL    HW185247  12.508  10.121  13.881
27805SOL    HW285248  12.440  10.019  13.971
27806SOL     OW85249   6.652   5.887  11.310
27806SOL    HW185250   6.567   5.863  11.272
27806SOL    HW285251   6.677   5.967  11.263
27807SOL     OW85252   4.849   3.073   4.729
27807SOL    HW185253   4.885   3.029   4.805
27807SOL    HW285254   4.776   3.017   4.701
27808SOL     OW85255   5.909   1.266   1.865
27808SOL    HW185256   5.885   1.177   1.892
27808SOL    HW285257   5.934   1.256   1.773
27809SOL     OW85258   4.254   4.557   0.220
27809SOL    HW185259   4.295   4.474   0.246
27809SOL    HW285260   4.314   4.593   0.155
27810SOL     OW85261  10.673   4.391   9.997
27810SOL    HW185262  10.715   4.416   9.914
27810SOL    HW285263  10.713   4.449  10.062
27811SOL     OW85264  13.216   9.160  11.642
27811SOL    HW185265  13.309   9.181  11.640
27811SOL    HW285266  13.212   9.066  11.621
27812SOL     OW85267  12.523   2.066  10.069
27812SOL    HW185268  12.534   2.145  10.121
27812SOL    HW285269  12.436   2.074  10.030
27813SOL     OW85270   9.156  11.717   3.368
27813SOL    HW185271   9.158  11.779   3.295
27813SOL    HW285272   9.096  11.755   3.432
27814SOL     OW85273  13.540   2.027  14.791
27814SOL    HW185274  13.633   2.041  14.773
27814SOL    HW285275  13.525   2.067   0.004
27815SOL     OW85276  14.711  10.855   7.357
27815SOL    HW185277  14.658  10.796   7.411
27815SOL    HW285278  14.714  10.937   7.407
27816SOL     OW85279  13.810   0.600   1.572
27816SOL    HW185280  13.751   0.640   1.636
27816SOL    HW285281  13.864   0.540   1.624
27817SOL     OW85282  12.064   7.497  14.600
27817SOL    HW185283  12.138   7.491  14.540
27817SOL    HW285284  12.004   7.429  14.571
27818SOL     OW85285   8.955  11.358   4.976
27818SOL    HW185286   8.866  11.393   4.976
27818SOL    HW285287   9.009  11.432   4.949
27819SOL     OW85288   2.627   6.897  14.408
27819SOL    HW185289   2.692   6.839  14.447
27819SOL    HW285290   2.568   6.919  14.480
27820SOL     OW85291   1.369  12.818   2.418
27820SOL    HW185292   1.361  12.896   2.473
27820SOL    HW285293   1.280  12.783   2.414
27821SOL     OW85294   4.638   1.065   2.041
27821SOL    HW185295   4.584   1.135   2.076
27821SOL    HW285296   4.660   1.093   1.952
27822SOL     OW85297   0.164   9.403   7.588
27822SOL    HW185298   0.161   9.427   7.681
27822SOL    HW285299   0.234   9.337   7.583
27823SOL     OW85300   4.150  10.047   9.292
27823SOL    HW185301   4.224   9.985   9.291
27823SOL    HW285302   4.072   9.991   9.289
27824SOL     OW85303  13.054   3.002  12.767
27824SOL    HW185304  13.024   2.974  12.681
27824SOL    HW285305  13.007   2.945  12.828
27825SOL     OW85306  10.095   2.445  12.511
27825SOL    HW185307  10.157   2.373  12.506
27825SOL    HW285308  10.023   2.411  12.564
27826SOL     OW85309   7.889  12.487   2.068
27826SOL    HW185310   7.900  12.421   2.000
27826SOL    HW285311   7.801  12.521   2.055
27827SOL     OW85312   0.965  11.062   5.137
27827SOL    HW185313   0.984  11.113   5.216
27827SOL    HW285314   1.050  11.049   5.096
27828SOL     OW85315   6.082   5.549   8.968
27828SOL    HW185316   6.028   5.546   8.889
27828SOL    HW285317   6.122   5.636   8.965
27829SOL     OW85318   2.307   3.849   3.513
27829SOL    HW185319   2.342   3.935   3.536
27829SOL    HW285320   2.254   3.824   3.588
27830SOL     OW85321   9.796   5.455  10.717
27830SOL    HW185322   9.879   5.420  10.749
27830SOL    HW285323   9.815   5.481  10.627
27831SOL     OW85324   7.075   1.091   3.475
27831SOL    HW185325   7.015   1.072   3.403
27831SOL    HW285326   7.160   1.059   3.445
27832SOL     OW85327   2.469  10.868  12.556
27832SOL    HW185328   2.409  10.941  12.571
27832SOL    HW285329   2.520  10.894  12.480
27833SOL     OW85330  12.606  11.589   2.868
27833SOL    HW185331  12.518  11.552   2.875
27833SOL    HW285332  12.655  11.525   2.816
27834SOL     OW85333   1.992  10.968   1.692
27834SOL    HW185334   2.080  10.998   1.711
27834SOL    HW285335   1.948  11.044   1.654
27835SOL     OW85336  11.160   8.302  10.812
27835SOL    HW185337  11.116   8.232  10.860
27835SOL    HW285338  11.249   8.304  10.849
27836SOL     OW85339  10.449   1.978   7.085
27836SOL    HW185340  10.391   2.013   7.017
27836SOL    HW285341  10.537   1.982   7.046
27837SOL     OW85342   3.121   4.232  13.096
27837SOL    HW185343   3.036   4.256  13.060
27837SOL    HW285344   3.122   4.271  13.184
27838SOL     OW85345   9.845  14.595   9.454
27838SOL    HW185346   9.934  14.601   9.486
27838SOL    HW285347   9.803  14.531   9.511
27839SOL     OW85348   0.157   3.633  13.080
27839SOL    HW185349   0.248   3.629  13.050
27839SOL    HW285350   0.165   3.652  13.174
27840SOL     OW85351   7.350   7.153   5.852
27840SOL    HW185352   7.305   7.160   5.768
27840SOL    HW285353   7.282   7.175   5.917
27841SOL     OW85354   6.970  14.829   5.477
27841SOL    HW185355   6.876  14.845   5.480
27841SOL    HW285356   7.009   0.035   5.517
27842SOL     OW85357   8.110   2.214   9.562
27842SOL    HW185358   8.034   2.200   9.618
27842SOL    HW285359   8.169   2.142   9.583
27843SOL     OW85360   5.141  12.535   3.835
27843SOL    HW185361   5.110  12.490   3.913
27843SOL    HW285362   5.224  12.491   3.814
27844SOL     OW85363  13.719   1.336   2.062
27844SOL    HW185364  13.672   1.265   2.018
27844SOL    HW285365  13.689   1.415   2.018
27845SOL     OW85366   1.141   2.087   7.293
27845SOL    HW185367   1.181   2.006   7.325
27845SOL    HW285368   1.136   2.076   7.198
27846SOL     OW85369  14.735  10.453   6.470
27846SOL    HW185370  14.647  10.470   6.505
27846SOL    HW285371  14.792  10.507   6.524
27847SOL     OW85372   5.987  13.875   4.136
27847SOL    HW185373   5.944  13.952   4.100
27847SOL    HW285374   6.065  13.863   4.081
27848SOL     OW85375   6.989  14.413  14.053
27848SOL    HW185376   7.022  14.491  14.008
27848SOL    HW285377   6.969  14.351  13.983
27849SOL     OW85378   1.693  13.601  10.466
27849SOL    HW185379   1.729  13.641  10.545
27849SOL    HW285380   1.605  13.575  10.490
27850SOL     OW85381   9.099   2.305  12.148
27850SOL    HW185382   9.133   2.318  12.237
27850SOL    HW285383   9.176   2.295  12.093
27851SOL     OW85384   7.322   9.940   4.033
27851SOL    HW185385   7.238   9.985   4.025
27851SOL    HW285386   7.363   9.979   4.110
27852SOL     OW85387  10.811   2.592   9.512
27852SOL    HW185388  10.728   2.616   9.554
27852SOL    HW285389  10.796   2.607   9.419
27853SOL     OW85390   6.363   3.086   3.517
27853SOL    HW185391   6.452   3.120   3.510
27853SOL    HW285392   6.335   3.112   3.605
27854SOL     OW85393   6.392   8.606  12.414
27854SOL    HW185394   6.347   8.537  12.364
27854SOL    HW285395   6.471   8.563  12.447
27855SOL     OW85396  12.975   8.830   1.379
27855SOL    HW185397  12.939   8.749   1.416
27855SOL    HW285398  13.029   8.801   1.306
27856SOL     OW85399   4.413   5.415  13.031
27856SOL    HW185400   4.447   5.477  13.096
27856SOL    HW285401   4.351   5.361  13.081
27857SOL     OW85402   1.976   4.260   5.242
27857SOL    HW185403   2.044   4.315   5.280
27857SOL    HW285404   1.895   4.306   5.261
27858SOL     OW85405   3.076   3.497   8.898
27858SOL    HW185406   3.158   3.474   8.942
27858SOL    HW285407   3.009   3.445   8.942
27859SOL     OW85408   0.567  11.976   9.026
27859SOL    HW185409   0.596  11.945   8.940
27859SOL    HW285410   0.637  12.034   9.056
27860SOL     OW85411  11.131   2.119  10.158
27860SOL    HW185412  11.159   2.033  10.192
27860SOL    HW285413  11.074   2.097  10.084
27861SOL     OW85414   6.061   4.652   6.381
27861SOL    HW185415   6.110   4.664   6.463
27861SOL    HW285416   6.103   4.578   6.339
27862SOL     OW85417   7.548   4.696  11.890
27862SOL    HW185418   7.593   4.735  11.815
27862SOL    HW285419   7.598   4.617  11.910
27863SOL     OW85420   9.237   1.173   1.041
27863SOL    HW185421   9.276   1.112   0.978
27863SOL    HW285422   9.306   1.237   1.058
27864SOL     OW85423   8.410   6.644  10.274
27864SOL    HW185424   8.364   6.583  10.331
27864SOL    HW285425   8.396   6.610  10.186
27865SOL     OW85426   7.626   8.483   5.679
27865SOL    HW185427   7.569   8.432   5.622
27865SOL    HW285428   7.639   8.428   5.757
27866SOL     OW85429   4.184   4.292   8.103
27866SOL    HW185430   4.099   4.332   8.122
27866SOL    HW285431   4.164   4.220   8.043
27867SOL     OW85432   6.820  14.667  11.981
27867SOL    HW185433   6.767  14.680  12.060
27867SOL    HW285434   6.895  14.727  11.992
27868SOL     OW85435  14.180   5.645   6.800
27868SOL    HW185436  14.138   5.702   6.865
27868SOL    HW285437  14.108   5.607   6.751
27869SOL     OW85438   3.270   8.118   1.074
27869SOL    HW185439   3.175   8.110   1.085
27869SOL    HW285440   3.292   8.052   1.008
27870SOL     OW85441   5.072   6.475   0.705
27870SOL    HW185442   5.026   6.532   0.643
27870SOL    HW285443   5.047   6.508   0.791
27871SOL     OW85444   9.294   0.739  12.678
27871SOL    HW185445   9.258   0.801  12.741
27871SOL    HW285446   9.224   0.727  12.613
27872SOL     OW85447  11.350  14.389  11.875
27872SOL    HW185448  11.405  14.380  11.797
27872SOL    HW285449  11.291  14.462  11.855
27873SOL     OW85450   5.485  10.261   0.281
27873SOL    HW185451   5.522  10.348   0.296
27873SOL    HW285452   5.417  10.275   0.216
27874SOL     OW85453  13.072  13.437   3.474
27874SOL    HW185454  13.131  13.493   3.424
27874SOL    HW285455  12.992  13.435   3.421
27875SOL     OW85456   9.725  11.136  13.706
27875SOL    HW185457   9.808  11.090  13.695
27875SOL    HW285458   9.680  11.126  13.622
27876SOL     OW85459   1.711   8.856   5.254
27876SOL    HW185460   1.775   8.789   5.228
27876SOL    HW285461   1.753   8.900   5.328
27877SOL     OW85462  14.365  13.213   0.719
27877SOL    HW185463  14.316  13.216   0.637
27877SOL    HW285464  14.378  13.119   0.735
27878SOL     OW85465   3.501   2.556  13.949
27878SOL    HW185466   3.409   2.535  13.933
27878SOL    HW285467   3.505   2.571  14.044
27879SOL     OW85468  10.460   4.038   0.074
27879SOL    HW185469  10.407   4.111   0.040
27879SOL    HW285470  10.498   3.998  14.868
27880SOL     OW85471   1.066   3.138   9.080
27880SOL    HW185472   1.005   3.193   9.031
27880SOL    HW285473   1.009   3.083   9.135
27881SOL     OW85474   2.015   8.270  13.724
27881SOL    HW185475   1.981   8.246  13.638
27881SOL    HW285476   2.088   8.210  13.738
27882SOL     OW85477   4.025  14.804  13.219
27882SOL    HW185478   3.958  14.757  13.169
27882SOL    HW285479   4.107  14.761  13.195
27883SOL     OW85480  12.365   3.499   7.620
27883SOL    HW185481  12.454   3.530   7.640
27883SOL    HW285482  12.377   3.426   7.561
27884SOL     OW85483   5.168   6.327   0.046
27884SOL    HW185484   5.147   6.420   0.044
27884SOL    HW285485   5.254   6.322   0.087
27885SOL     OW85486  12.478   4.051   8.001
27885SOL    HW185487  12.488   4.029   8.094
27885SOL    HW285488  12.544   4.118   7.984
27886SOL     OW85489   1.835   7.162   1.714
27886SOL    HW185490   1.908   7.175   1.654
27886SOL    HW285491   1.842   7.234   1.777
27887SOL     OW85492  13.511  12.997   2.252
27887SOL    HW185493  13.452  12.995   2.177
27887SOL    HW285494  13.524  12.905   2.275
27888SOL     OW85495  10.642   2.695   2.900
27888SOL    HW185496  10.612   2.660   2.816
27888SOL    HW285497  10.591   2.647   2.965
27889SOL     OW85498   2.940   8.792   5.443
27889SOL    HW185499   2.883   8.785   5.366
27889SOL    HW285500   2.889   8.753   5.514
27890SOL     OW85501   4.551   2.358   8.255
27890SOL    HW185502   4.567   2.267   8.229
27890SOL    HW285503   4.568   2.409   8.177
27891SOL     OW85504   7.111   8.583  10.570
27891SOL    HW185505   7.020   8.600  10.595
27891SOL    HW285506   7.116   8.610  10.478
27892SOL     OW85507   3.923   9.760   7.903
27892SOL    HW185508   3.998   9.813   7.874
27892SOL    HW285509   3.942   9.742   7.995
27893SOL     OW85510   8.204   0.851   4.531
27893SOL    HW185511   8.168   0.926   4.483
27893SOL    HW285512   8.153   0.776   4.501
27894SOL     OW85513   1.216  14.184   7.759
27894SOL    HW185514   1.164  14.204   7.837
27894SOL    HW285515   1.293  14.138   7.793
27895SOL     OW85516  11.866   8.759   8.519
27895SOL    HW185517  11.845   8.822   8.588
27895SOL    HW285518  11.949   8.790   8.483
27896SOL     OW85519   6.588  10.169  14.753
27896SOL    HW185520   6.559  10.164  14.662
27896SOL    HW285521   6.515  10.210  14.799
27897SOL     OW85522   4.103   3.313   2.826
27897SOL    HW185523   4.114   3.390   2.771
27897SOL    HW285524   4.144   3.242   2.777
27898SOL     OW85525   8.485   1.582  12.035
27898SOL    HW185526   8.519   1.643  12.101
27898SOL    HW285527   8.425   1.525  12.083
27899SOL     OW85528  12.944   1.408   3.262
27899SOL    HW185529  13.017   1.455   3.302
27899SOL    HW285530  12.869   1.426   3.318
27900SOL     OW85531   1.207  14.144   4.400
27900SOL    HW185532   1.205  14.049   4.390
27900SOL    HW285533   1.271  14.174   4.336
27901SOL     OW85534  10.112  10.651   4.499
27901SOL    HW185535  10.201  10.647   4.464
27901SOL    HW285536  10.111  10.587   4.569
27902SOL     OW85537  11.329   3.005   3.719
27902SOL    HW185538  11.413   3.042   3.690
27902SOL    HW285539  11.269   3.023   3.646
27903SOL     OW85540   6.808   8.634  13.067
27903SOL    HW185541   6.788   8.560  13.010
27903SOL    HW285542   6.730   8.689  13.065
27904SOL     OW85543  10.897   4.861   2.683
27904SOL    HW185544  10.948   4.942   2.684
27904SOL    HW285545  10.892   4.835   2.775
27905SOL     OW85546   8.819   5.187   8.824
27905SOL    HW185547   8.817   5.202   8.729
27905SOL    HW285548   8.784   5.099   8.835
27906SOL     OW85549  11.431   8.066   0.871
27906SOL    HW185550  11.397   8.154   0.887
27906SOL    HW285551  11.390   8.012   0.939
27907SOL     OW85552  11.472  12.066   2.029
27907SOL    HW185553  11.478  12.097   1.939
27907SOL    HW285554  11.493  11.973   2.024
27908SOL     OW85555   9.702   6.854  12.452
27908SOL    HW185556   9.675   6.848  12.544
27908SOL    HW285557   9.797   6.869  12.457
27909SOL     OW85558   8.918  10.926   7.943
27909SOL    HW185559   8.906  11.001   8.002
27909SOL    HW285560   8.864  10.946   7.867
27910SOL     OW85561   6.145  11.567   1.199
27910SOL    HW185562   6.049  11.570   1.192
27910SOL    HW285563   6.175  11.634   1.138
27911SOL     OW85564  12.040   8.284   4.951
27911SOL    HW185565  12.043   8.196   4.989
27911SOL    HW285566  12.085   8.339   5.015
27912SOL     OW85567   5.661   3.195   9.572
27912SOL    HW185568   5.743   3.155   9.545
27912SOL    HW285569   5.607   3.121   9.602
27913SOL     OW85570  14.737   6.640   0.742
27913SOL    HW185571  14.715   6.569   0.681
27913SOL    HW285572  14.715   6.604   0.828
27914SOL     OW85573  12.305   7.366   4.397
27914SOL    HW185574  12.257   7.367   4.479
27914SOL    HW285575  12.319   7.274   4.377
27915SOL     OW85576   5.964   8.038  12.126
27915SOL    HW185577   6.025   8.006  12.192
27915SOL    HW285578   5.981   7.985  12.048
27916SOL     OW85579  14.362   5.502   0.969
27916SOL    HW185580  14.285   5.509   0.912
27916SOL    HW285581  14.333   5.539   1.052
27917SOL     OW85582  10.710   4.399   0.125
27917SOL    HW185583  10.767   4.476   0.133
27917SOL    HW285584  10.640   4.427   0.066
27918SOL     OW85585  13.620  10.621   8.444
27918SOL    HW185586  13.635  10.671   8.524
27918SOL    HW285587  13.534  10.651   8.413
27919SOL     OW85588   0.526   7.077   2.094
27919SOL    HW185589   0.614   7.105   2.071
27919SOL    HW285590   0.469   7.148   2.063
27920SOL     OW85591   4.171  13.828   1.111
27920SOL    HW185592   4.183  13.744   1.154
27920SOL    HW285593   4.107  13.874   1.165
27921SOL     OW85594   1.965  11.363   5.239
27921SOL    HW185595   1.995  11.370   5.148
27921SOL    HW285596   1.988  11.447   5.279
27922SOL     OW85597   9.763  14.173  14.491
27922SOL    HW185598   9.672  14.187  14.462
27922SOL    HW285599   9.763  14.200  14.583
27923SOL     OW85600   1.183   4.839  14.396
27923SOL    HW185601   1.165   4.770  14.332
27923SOL    HW285602   1.263   4.810  14.440
27924SOL     OW85603   0.406   0.688  14.199
27924SOL    HW185604   0.339   0.622  14.215
27924SOL    HW285605   0.391   0.717  14.109
27925SOL     OW85606   8.477  12.685   4.864
27925SOL    HW185607   8.468  12.780   4.856
27925SOL    HW285608   8.571  12.669   4.850
27926SOL     OW85609  12.117   5.906   9.960
27926SOL    HW185610  12.177   5.859   9.903
27926SOL    HW285611  12.159   5.903  10.046
27927SOL     OW85612  12.876   0.498  11.175
27927SOL    HW185613  12.789   0.487  11.137
27927SOL    HW285614  12.937   0.476  11.105
27928SOL     OW85615   3.948   1.806  12.753
27928SOL    HW185616   3.981   1.870  12.815
27928SOL    HW285617   3.907   1.858  12.684
27929SOL     OW85618  10.622   6.426   3.476
27929SOL    HW185619  10.652   6.427   3.567
27929SOL    HW285620  10.532   6.392   3.481
27930SOL     OW85621   8.728  12.521   8.046
27930SOL    HW185622   8.779  12.522   7.965
27930SOL    HW285623   8.683  12.606   8.046
27931SOL     OW85624   0.179   8.854   0.280
27931SOL    HW185625   0.232   8.776   0.266
27931SOL    HW285626   0.232   8.927   0.247
27932SOL     OW85627   3.617  10.942  10.816
27932SOL    HW185628   3.566  10.988  10.884
27932SOL    HW285629   3.635  11.009  10.750
27933SOL     OW85630   1.815   6.020   7.327
27933SOL    HW185631   1.864   5.952   7.373
27933SOL    HW285632   1.723   5.995   7.339
27934SOL     OW85633  13.377   8.746   6.468
27934SOL    HW185634  13.423   8.667   6.494
27934SOL    HW285635  13.446   8.809   6.447
27935SOL     OW85636   3.266   4.997   0.111
27935SOL    HW185637   3.315   5.074   0.084
27935SOL    HW285638   3.259   4.944   0.031
27936SOL     OW85639   6.184   2.018   7.297
27936SOL    HW185640   6.227   2.018   7.211
27936SOL    HW285641   6.207   2.102   7.336
27937SOL     OW85642   8.404   6.366   1.021
27937SOL    HW185643   8.463   6.307   0.975
27937SOL    HW285644   8.323   6.316   1.031
27938SOL     OW85645  11.492  10.593   5.236
27938SOL    HW185646  11.538  10.672   5.266
27938SOL    HW285647  11.455  10.555   5.316
27939SOL     OW85648   2.417   5.705  14.480
27939SOL    HW185649   2.490   5.660  14.436
27939SOL    HW285650   2.354   5.636  14.497
27940SOL     OW85651   6.061  10.803   5.697
27940SOL    HW185652   5.977  10.841   5.674
27940SOL    HW285653   6.125  10.868   5.669
27941SOL     OW85654  10.086   3.658  10.368
27941SOL    HW185655  10.004   3.617  10.396
27941SOL    HW285656  10.155   3.598  10.396
27942SOL     OW85657   0.578   4.716  10.216
27942SOL    HW185658   0.569   4.809  10.195
27942SOL    HW285659   0.623   4.715  10.300
27943SOL     OW85660  10.446   8.456   1.177
27943SOL    HW185661  10.536   8.428   1.161
27943SOL    HW285662  10.453   8.550   1.193
27944SOL     OW85663   2.590   8.606   1.079
27944SOL    HW185664   2.501   8.600   1.115
27944SOL    HW285665   2.624   8.517   1.086
27945SOL     OW85666   4.683   2.188  12.453
27945SOL    HW185667   4.757   2.249  12.447
27945SOL    HW285668   4.701   2.121  12.388
27946SOL     OW85669  10.644  11.961   9.835
27946SOL    HW185670  10.562  11.941   9.880
27946SOL    HW285671  10.710  11.906   9.878
27947SOL     OW85672   4.675   5.205  13.864
27947SOL    HW185673   4.652   5.218  13.772
27947SOL    HW285674   4.659   5.290  13.904
27948SOL     OW85675   5.325  11.548   4.976
27948SOL    HW185676   5.295  11.628   4.933
27948SOL    HW285677   5.321  11.568   5.069
27949SOL     OW85678   9.787  10.735   8.572
27949SOL    HW185679   9.695  10.750   8.590
27949SOL    HW285680   9.808  10.654   8.619
27950SOL     OW85681  14.697   0.556  10.116
27950SOL    HW185682  14.789   0.561  10.141
27950SOL    HW285683  14.687   0.620  10.045
27951SOL     OW85684   4.445  12.099  13.653
27951SOL    HW185685   4.423  12.071  13.564
27951SOL    HW285686   4.506  12.172  13.642
27952SOL     OW85687   5.495  10.958   6.792
27952SOL    HW185688   5.434  11.019   6.750
27952SOL    HW285689   5.525  10.902   6.720
27953SOL     OW85690   1.249   4.732   7.536
27953SOL    HW185691   1.181   4.793   7.563
27953SOL    HW285692   1.228   4.650   7.581
27954SOL     OW85693   9.059  10.114  10.101
27954SOL    HW185694   8.980  10.102  10.048
27954SOL    HW285695   9.029  10.104  10.191
27955SOL     OW85696   4.965   4.581   9.160
27955SOL    HW185697   4.903   4.651   9.140
27955SOL    HW285698   4.918   4.523   9.219
27956SOL     OW85699   1.112   1.446   0.583
27956SOL    HW185700   1.053   1.406   0.646
27956SOL    HW285701   1.181   1.486   0.636
27957SOL     OW85702  11.646  11.942   6.022
27957SOL    HW185703  11.687  11.993   6.092
27957SOL    HW285704  11.660  11.851   6.048
27958SOL     OW85705   8.220   8.092  13.530
27958SOL    HW185706   8.315   8.078  13.527
27958SOL    HW285707   8.185   8.031  13.465
27959SOL     OW85708  14.053   3.607   4.286
27959SOL    HW185709  14.139   3.572   4.307
27959SOL    HW285710  14.019   3.547   4.219
27960SOL     OW85711  11.592   8.374   3.004
27960SOL    HW185712  11.497   8.377   2.992
27960SOL    HW285713  11.610   8.284   3.030
27961SOL     OW85714  10.418   4.331   1.635
27961SOL    HW185715  10.475   4.321   1.711
27961SOL    HW285716  10.331   4.306   1.668
27962SOL     OW85717   9.390   3.744   0.782
27962SOL    HW185718   9.408   3.654   0.755
27962SOL    HW285719   9.339   3.736   0.862
27963SOL     OW85720   0.973   2.032  14.522
27963SOL    HW185721   1.027   1.982  14.461
27963SOL    HW285722   0.940   1.967  14.585
27964SOL     OW85723  13.228  12.751   2.171
27964SOL    HW185724  13.203  12.723   2.259
27964SOL    HW285725  13.323  12.764   2.176
27965SOL     OW85726   1.252   0.965   8.554
27965SOL    HW185727   1.258   1.025   8.481
27965SOL    HW285728   1.335   0.917   8.554
27966SOL     OW85729  14.556   9.620  12.121
27966SOL    HW185730  14.649   9.609  12.102
27966SOL    HW285731  14.533   9.544  12.174
27967SOL     OW85732   8.678  10.752   4.726
27967SOL    HW185733   8.764  10.725   4.757
27967SOL    HW285734   8.625  10.760   4.805
27968SOL     OW85735   1.965   7.690   3.195
27968SOL    HW185736   2.050   7.732   3.206
27968SOL    HW285737   1.913   7.722   3.269
27969SOL     OW85738  12.025   2.466  10.864
27969SOL    HW185739  12.107   2.426  10.893
27969SOL    HW285740  12.032   2.557  10.892
27970SOL     OW85741   9.745   8.717   3.161
27970SOL    HW185742   9.731   8.726   3.255
27970SOL    HW285743   9.811   8.784   3.141
27971SOL     OW85744  12.058  12.195  11.997
27971SOL    HW185745  12.077  12.202  12.091
27971SOL    HW285746  12.087  12.107  11.973
27972SOL     OW85747  14.403   0.890  14.552
27972SOL    HW185748  14.349   0.875  14.475
27972SOL    HW285749  14.344   0.933  14.615
27973SOL     OW85750  11.610  11.901   3.307
27973SOL    HW185751  11.522  11.917   3.273
27973SOL    HW285752  11.626  11.973   3.368
27974SOL     OW85753   6.228   4.676   6.603
27974SOL    HW185754   6.250   4.613   6.672
27974SOL    HW285755   6.206   4.756   6.651
27975SOL     OW85756   4.324   0.588  11.279
27975SOL    HW185757   4.313   0.572  11.185
27975SOL    HW285758   4.415   0.617  11.288
27976SOL     OW85759  13.334  12.527   2.597
27976SOL    HW185760  13.248  12.519   2.637
27976SOL    HW285761  13.329  12.474   2.518
27977SOL     OW85762  10.082  12.829   1.404
27977SOL    HW185763  10.104  12.748   1.359
27977SOL    HW285764  10.066  12.892   1.333
27978SOL     OW85765   7.873  10.807   2.526
27978SOL    HW185766   7.917  10.776   2.606
27978SOL    HW285767   7.830  10.888   2.553
27979SOL     OW85768   2.118   8.326  11.833
27979SOL    HW185769   2.211   8.306  11.839
27979SOL    HW285770   2.109   8.413  11.872
27980SOL     OW85771   5.445  11.238   5.987
27980SOL    HW185772   5.538  11.257   5.970
27980SOL    HW285773   5.433  11.148   5.957
27981SOL     OW85774   5.426   2.140  12.739
27981SOL    HW185775   5.365   2.143  12.813
27981SOL    HW285776   5.509   2.170  12.776
27982SOL     OW85777   8.184   0.519   0.566
27982SOL    HW185778   8.185   0.436   0.518
27982SOL    HW285779   8.251   0.573   0.522
27983SOL     OW85780  11.111   5.019  12.331
27983SOL    HW185781  11.181   4.995  12.392
27983SOL    HW285782  11.037   5.042  12.388
27984SOL     OW85783   6.380   6.930  10.158
27984SOL    HW185784   6.463   6.977  10.152
27984SOL    HW285785   6.381   6.890  10.245
27985SOL     OW85786   5.914   4.957   0.571
27985SOL    HW185787   5.992   4.993   0.612
27985SOL    HW285788   5.843   4.977   0.632
27986SOL     OW85789   8.534   9.840   0.550
27986SOL    HW185790   8.441   9.858   0.565
27986SOL    HW285791   8.535   9.793   0.466
27987SOL     OW85792   1.378   7.536   9.094
27987SOL    HW185793   1.344   7.602   9.155
27987SOL    HW285794   1.322   7.542   9.017
27988SOL     OW85795  13.550   4.195   9.018
27988SOL    HW185796  13.645   4.183   9.016
27988SOL    HW285797  13.521   4.144   9.094
27989SOL     OW85798  10.753  11.940   2.636
27989SOL    HW185799  10.753  11.985   2.552
27989SOL    HW285800  10.765  12.010   2.701
27990SOL     OW85801  11.153  13.599   9.798
27990SOL    HW185802  11.062  13.615   9.824
27990SOL    HW285803  11.149  13.518   9.747
27991SOL     OW85804   7.674   8.790   7.635
27991SOL    HW185805   7.683   8.877   7.597
27991SOL    HW285806   7.580   8.773   7.636
27992SOL     OW85807  12.521   8.530   6.092
27992SOL    HW185808  12.587   8.500   6.155
27992SOL    HW285809  12.495   8.616   6.123
27993SOL     OW85810  11.949   4.668   7.179
27993SOL    HW185811  12.038   4.673   7.214
27993SOL    HW285812  11.930   4.757   7.148
27994SOL     OW85813   1.920   1.598   7.919
27994SOL    HW185814   1.953   1.564   8.001
27994SOL    HW285815   1.980   1.565   7.852
27995SOL     OW85816   7.933  13.645  12.093
27995SOL    HW185817   8.001  13.712  12.096
27995SOL    HW285818   7.892  13.656  12.007
27996SOL     OW85819   1.978   4.973   4.413
27996SOL    HW185820   1.961   4.880   4.426
27996SOL    HW285821   2.025   5.001   4.491
27997SOL     OW85822  14.737   4.360   6.375
27997SOL    HW185823  14.650   4.398   6.363
27997SOL    HW285824  14.722   4.279   6.423
27998SOL     OW85825   2.985  13.402   8.159
27998SOL    HW185826   2.954  13.312   8.155
27998SOL    HW285827   2.966  13.431   8.248
27999SOL     OW85828  12.076   6.131   3.616
27999SOL    HW185829  12.141   6.167   3.676
27999SOL    HW285830  11.992   6.167   3.646
28000SOL     OW85831   9.362   1.785   8.979
28000SOL    HW185832   9.422   1.717   9.010
28000SOL    HW285833   9.337   1.757   8.891
28001SOL     OW85834   5.370   7.856  14.757
28001SOL    HW185835   5.457   7.892  14.735
28001SOL    HW285836   5.345   7.903  14.836
28002SOL     OW85837   6.275  12.649   1.718
28002SOL    HW185838   6.211  12.715   1.693
28002SOL    HW285839   6.347  12.698   1.757
28003SOL     OW85840   8.481   6.380  12.543
28003SOL    HW185841   8.535   6.411  12.470
28003SOL    HW285842   8.528   6.409  12.621
28004SOL     OW85843   8.825  10.893  13.884
28004SOL    HW185844   8.729  10.901  13.883
28004SOL    HW285845   8.850  10.893  13.792
28005SOL     OW85846   1.412  10.190  13.587
28005SOL    HW185847   1.467  10.159  13.659
28005SOL    HW285848   1.336  10.230  13.629
28006SOL     OW85849   5.763   2.085   1.714
28006SOL    HW185850   5.717   2.164   1.741
28006SOL    HW285851   5.744   2.076   1.620
28007SOL     OW85852  11.711   9.012  13.312
28007SOL    HW185853  11.779   9.071  13.345
28007SOL    HW285854  11.724   8.931  13.363
28008SOL     OW85855   7.424  10.138   3.873
28008SOL    HW185856   7.372  10.120   3.794
28008SOL    HW285857   7.395  10.072   3.936
28009SOL     OW85858   4.357   3.856   0.652
28009SOL    HW185859   4.376   3.861   0.745
28009SOL    HW285860   4.391   3.771   0.624
28010SOL     OW85861   7.353   9.813  12.410
28010SOL    HW185862   7.333   9.793  12.502
28010SOL    HW285863   7.439   9.854  12.412
28011SOL     OW85864  13.108  12.758  12.383
28011SOL    HW185865  13.124  12.736  12.291
28011SOL    HW285866  13.083  12.851  12.382
28012SOL     OW85867   3.509  10.967   7.476
28012SOL    HW185868   3.583  10.921   7.436
28012SOL    HW285869   3.446  10.899   7.498
28013SOL     OW85870  10.784  12.909   0.517
28013SOL    HW185871  10.858  12.862   0.478
28013SOL    HW285872  10.734  12.942   0.442
28014SOL     OW85873  11.678   6.801  13.035
28014SOL    HW185874  11.712   6.754  12.959
28014SOL    HW285875  11.607   6.855  13.000
28015SOL     OW85876  13.382   1.441   6.425
28015SOL    HW185877  13.412   1.498   6.496
28015SOL    HW285878  13.335   1.370   6.469
28016SOL     OW85879   3.093   0.763   0.918
28016SOL    HW185880   3.131   0.851   0.906
28016SOL    HW285881   3.154   0.719   0.977
28017SOL     OW85882  11.609   9.879   1.441
28017SOL    HW185883  11.656   9.869   1.358
28017SOL    HW285884  11.533   9.933   1.419
28018SOL     OW85885  11.410   2.039   3.817
28018SOL    HW185886  11.498   2.044   3.855
28018SOL    HW285887  11.426   2.022   3.724
28019SOL     OW85888  14.599   0.526  11.433
28019SOL    HW185889  14.519   0.477  11.412
28019SOL    HW285890  14.670   0.464  11.417
28020SOL     OW85891  10.194   7.899  12.241
28020SOL    HW185892  10.255   7.956  12.193
28020SOL    HW285893  10.115   7.898  12.187
28021SOL     OW85894   8.256  11.764   4.237
28021SOL    HW185895   8.328  11.719   4.282
28021SOL    HW285896   8.237  11.708   4.162
28022SOL     OW85897  11.464   2.446   7.568
28022SOL    HW185898  11.543   2.488   7.535
28022SOL    HW285899  11.436   2.388   7.497
28023SOL     OW85900   4.395   6.735   9.315
28023SOL    HW185901   4.319   6.772   9.268
28023SOL    HW285902   4.437   6.811   9.355
28024SOL     OW85903  10.857   2.728   0.629
28024SOL    HW185904  10.774   2.723   0.580
28024SOL    HW285905  10.917   2.771   0.569
28025SOL     OW85906   5.346   7.533   1.064
28025SOL    HW185907   5.253   7.540   1.046
28025SOL    HW285908   5.373   7.621   1.089
28026SOL     OW85909   1.661   6.682   7.609
28026SOL    HW185910   1.627   6.692   7.520
28026SOL    HW285911   1.756   6.680   7.597
28027SOL     OW85912  11.228   0.646   8.555
28027SOL    HW185913  11.309   0.634   8.604
28027SOL    HW285914  11.204   0.738   8.570
28028SOL     OW85915  13.842   4.982   7.399
28028SOL    HW185916  13.929   4.985   7.440
28028SOL    HW285917  13.782   4.970   7.473
28029SOL     OW85918  10.882  11.864  13.639
28029SOL    HW185919  10.958  11.885  13.692
28029SOL    HW285920  10.910  11.878  13.549
28030SOL     OW85921  12.007  12.432  11.534
28030SOL    HW185922  11.975  12.521  11.523
28030SOL    HW285923  12.032  12.426  11.626
28031SOL     OW85924   1.464   8.077   7.551
28031SOL    HW185925   1.454   8.118   7.637
28031SOL    HW285926   1.416   8.134   7.491
28032SOL     OW85927   7.006   9.784   5.833
28032SOL    HW185928   6.946   9.858   5.846
28032SOL    HW285929   7.086   9.810   5.878
28033SOL     OW85930   3.833  12.587   5.099
28033SOL    HW185931   3.815  12.504   5.054
28033SOL    HW285932   3.920  12.576   5.137
28034SOL     OW85933   6.234   9.660   8.441
28034SOL    HW185934   6.298   9.703   8.498
28034SOL    HW285935   6.180   9.732   8.407
28035SOL     OW85936  12.205  14.639   1.599
28035SOL    HW185937  12.237  14.552   1.573
28035SOL    HW285938  12.169  14.676   1.518
28036SOL     OW85939   2.094   7.107  14.287
28036SOL    HW185940   2.143   7.125  14.367
28036SOL    HW285941   2.134   7.028  14.251
28037SOL     OW85942   9.314  10.768   3.784
28037SOL    HW185943   9.347  10.856   3.802
28037SOL    HW285944   9.318  10.760   3.689
28038SOL     OW85945   0.373   2.030   4.211
28038SOL    HW185946   0.445   1.997   4.157
28038SOL    HW285947   0.380   2.125   4.204
28039SOL     OW85948   1.062   7.577   0.614
28039SOL    HW185949   1.144   7.577   0.664
28039SOL    HW285950   1.078   7.637   0.542
28040SOL     OW85951   2.489  10.558  13.906
28040SOL    HW185952   2.573  10.591  13.938
28040SOL    HW285953   2.453  10.631  13.855
28041SOL     OW85954   1.027  12.605   0.037
28041SOL    HW185955   1.102  12.558   0.001
28041SOL    HW285956   1.065  12.685   0.073
28042SOL     OW85957  14.074  10.010  11.767
28042SOL    HW185958  14.047  10.074  11.833
28042SOL    HW285959  14.118  10.062  11.699
28043SOL     OW85960   6.701  13.980  11.602
28043SOL    HW185961   6.792  13.953  11.618
28043SOL    HW285962   6.709  14.065  11.558
28044SOL     OW85963   7.670   5.518   0.984
28044SOL    HW185964   7.693   5.496   1.075
28044SOL    HW285965   7.613   5.448   0.956
28045SOL     OW85966  12.806   7.052  14.032
28045SOL    HW185967  12.796   6.961  14.005
28045SOL    HW285968  12.893   7.057  14.070
28046SOL     OW85969  14.832  11.807   5.875
28046SOL    HW185970   0.035  11.833   5.928
28046SOL    HW285971  14.790  11.889   5.852
28047SOL     OW85972   0.845   7.305   6.638
28047SOL    HW185973   0.859   7.253   6.559
28047SOL    HW285974   0.879   7.391   6.616
28048SOL     OW85975   0.497  11.651  12.335
28048SOL    HW185976   0.496  11.697  12.251
28048SOL    HW285977   0.490  11.558  12.312
28049SOL     OW85978  10.542   1.504   7.644
28049SOL    HW185979  10.633   1.491   7.618
28049SOL    HW285980  10.547   1.542   7.731
28050SOL     OW85981   3.163   5.292   3.752
28050SOL    HW185982   3.113   5.211   3.764
28050SOL    HW285983   3.254   5.267   3.771
28051SOL     OW85984   5.187   8.616  11.181
28051SOL    HW185985   5.145   8.530  11.177
28051SOL    HW285986   5.129   8.673  11.130
28052SOL     OW85987  13.328  14.141  11.563
28052SOL    HW185988  13.396  14.129  11.629
28052SOL    HW285989  13.290  14.227  11.583
28053SOL     OW85990  12.180   9.985   3.569
28053SOL    HW185991  12.219  10.069   3.594
28053SOL    HW285992  12.092  10.008   3.538
28054SOL     OW85993   3.683   4.770   6.691
28054SOL    HW185994   3.772   4.805   6.694
28054SOL    HW285995   3.686   4.691   6.745
28055SOL     OW85996  11.351   8.042   6.028
28055SOL    HW185997  11.398   8.033   6.111
28055SOL    HW285998  11.295   7.965   6.024
28056SOL     OW85999   1.192   6.955  11.616
28056SOL    HW186000   1.208   6.914  11.701
28056SOL    HW286001   1.097   6.956  11.607
28057SOL     OW86002   4.793  10.595   7.895
28057SOL    HW186003   4.843  10.591   7.813
28057SOL    HW286004   4.790  10.504   7.926
28058SOL     OW86005   2.528  12.259  10.228
28058SOL    HW186006   2.540  12.169  10.260
28058SOL    HW286007   2.597  12.309  10.270
28059SOL     OW86008   2.305   4.991   2.862
28059SOL    HW186009   2.310   4.961   2.953
28059SOL    HW286010   2.261   4.920   2.816
28060SOL     OW86011   9.310  13.042   6.163
28060SOL    HW186012   9.278  12.972   6.106
28060SOL    HW286013   9.253  13.038   6.240
28061SOL     OW86014   6.426   6.121  13.065
28061SOL    HW186015   6.364   6.050  13.084
28061SOL    HW286016   6.487   6.083  13.001
28062SOL     OW86017   1.249   1.090  10.372
28062SOL    HW186018   1.226   1.013  10.425
28062SOL    HW286019   1.206   1.074  10.288
28063SOL     OW86020   3.265  13.450   5.621
28063SOL    HW186021   3.354  13.471   5.593
28063SOL    HW286022   3.215  13.445   5.540
28064SOL     OW86023   4.997  12.090   1.846
28064SOL    HW186024   4.918  12.043   1.872
28064SOL    HW286025   5.011  12.065   1.754
28065SOL     OW86026   1.950  14.430   3.487
28065SOL    HW186027   1.998  14.368   3.432
28065SOL    HW286028   1.858  14.417   3.462
28066SOL     OW86029   0.666  13.662   0.865
28066SOL    HW186030   0.605  13.677   0.792
28066SOL    HW286031   0.747  13.706   0.837
28067SOL     OW86032   9.034   2.208   3.434
28067SOL    HW186033   8.979   2.251   3.368
28067SOL    HW286034   9.082   2.141   3.385
28068SOL     OW86035   5.040   4.681   1.392
28068SOL    HW186036   5.128   4.695   1.356
28068SOL    HW286037   5.053   4.618   1.462
28069SOL     OW86038   2.247   3.680   3.240
28069SOL    HW186039   2.281   3.731   3.313
28069SOL    HW286040   2.228   3.594   3.277
28070SOL     OW86041  11.262   5.484   4.908
28070SOL    HW186042  11.337   5.483   4.966
28070SOL    HW286043  11.276   5.410   4.849
28071SOL     OW86044   1.789   5.001   0.419
28071SOL    HW186045   1.726   4.986   0.349
28071SOL    HW286046   1.864   5.043   0.376
28072SOL     OW86047   8.227  12.006   0.606
28072SOL    HW186048   8.285  12.051   0.669
28072SOL    HW286049   8.269  11.922   0.591
28073SOL     OW86050   3.731  14.221   0.793
28073SOL    HW186051   3.730  14.179   0.879
28073SOL    HW286052   3.823  14.219   0.766
28074SOL     OW86053  10.058  10.734  14.839
28074SOL    HW186054  10.022  10.647  14.857
28074SOL    HW286055  10.142  10.717  14.797
28075SOL     OW86056   1.316  11.582   2.610
28075SOL    HW186057   1.275  11.496   2.611
28075SOL    HW286058   1.272  11.632   2.679
28076SOL     OW86059   5.803   4.969   2.292
28076SOL    HW186060   5.744   4.899   2.320
28076SOL    HW286061   5.750   5.025   2.235
28077SOL     OW86062   7.365   2.474  12.696
28077SOL    HW186063   7.282   2.436  12.724
28077SOL    HW286064   7.401   2.409  12.634
28078SOL     OW86065  12.171  11.769   5.116
28078SOL    HW186066  12.200  11.856   5.144
28078SOL    HW286067  12.160  11.720   5.197
28079SOL     OW86068   2.434   0.274  12.892
28079SOL    HW186069   2.516   0.319  12.871
28079SOL    HW286070   2.412   0.304  12.980
28080SOL     OW86071   7.198   9.526   6.029
28080SOL    HW186072   7.178   9.504   5.938
28080SOL    HW286073   7.174   9.618   6.038
28081SOL     OW86074  13.130  11.478  14.712
28081SOL    HW186075  13.108  11.571  14.714
28081SOL    HW286076  13.224  11.475  14.727
28082SOL     OW86077   9.368   8.893   4.853
28082SOL    HW186078   9.379   8.974   4.802
28082SOL    HW286079   9.300   8.845   4.806
28083SOL     OW86080  11.319  13.107  12.632
28083SOL    HW186081  11.299  13.185  12.684
28083SOL    HW286082  11.389  13.135  12.573
28084SOL     OW86083   2.834  14.814   7.859
28084SOL    HW186084   2.777  14.743   7.888
28084SOL    HW286085   2.920  14.772   7.849
28085SOL     OW86086  13.993   7.647  11.966
28085SOL    HW186087  13.953   7.631  11.880
28085SOL    HW286088  13.949   7.726  11.998
28086SOL     OW86089   4.350   8.083  13.667
28086SOL    HW186090   4.343   8.104  13.760
28086SOL    HW286091   4.418   8.141  13.634
28087SOL     OW86092  10.584  12.771  12.359
28087SOL    HW186093  10.520  12.766  12.288
28087SOL    HW286094  10.656  12.716  12.330
28088SOL     OW86095   6.548   8.511  14.359
28088SOL    HW186096   6.461   8.549  14.354
28088SOL    HW286097   6.573   8.493  14.269
28089SOL     OW86098  14.471   5.947   5.562
28089SOL    HW186099  14.420   5.932   5.641
28089SOL    HW286100  14.562   5.950   5.592
28090SOL     OW86101   0.081   7.053   9.103
28090SOL    HW186102   0.024   7.091   9.035
28090SOL    HW286103   0.035   6.974   9.131
28091SOL     OW86104  14.310  13.549  13.032
28091SOL    HW186105  14.233  13.536  13.087
28091SOL    HW286106  14.284  13.617  12.971
28092SOL     OW86107  13.111  10.100  11.723
28092SOL    HW186108  13.054  10.045  11.776
28092SOL    HW286109  13.200  10.076  11.748
28093SOL     OW86110   5.701   0.836   2.587
28093SOL    HW186111   5.734   0.925   2.603
28093SOL    HW286112   5.654   0.813   2.668
28094SOL     OW86113   7.812   9.152   1.101
28094SOL    HW186114   7.799   9.240   1.067
28094SOL    HW286115   7.877   9.112   1.043
28095SOL     OW86116   2.472   2.364   9.749
28095SOL    HW186117   2.398   2.394   9.803
28095SOL    HW286118   2.542   2.427   9.767
28096SOL     OW86119   4.345   3.632  11.993
28096SOL    HW186120   4.386   3.713  12.023
28096SOL    HW286121   4.266   3.661  11.948
28097SOL     OW86122   2.653   6.419  10.577
28097SOL    HW186123   2.611   6.374  10.504
28097SOL    HW286124   2.606   6.502  10.585
28098SOL     OW86125  13.117   7.746   5.986
28098SOL    HW186126  13.124   7.838   5.959
28098SOL    HW286127  13.120   7.696   5.904
28099SOL     OW86128   3.555   6.629   3.273
28099SOL    HW186129   3.544   6.696   3.206
28099SOL    HW286130   3.594   6.675   3.347
28100SOL     OW86131   2.561   7.920   7.318
28100SOL    HW186132   2.618   7.862   7.368
28100SOL    HW286133   2.620   7.986   7.281
28101SOL     OW86134   7.625  10.218   4.318
28101SOL    HW186135   7.681  10.186   4.247
28101SOL    HW286136   7.545  10.166   4.311
28102SOL     OW86137   6.783   5.294  14.168
28102SOL    HW186138   6.834   5.344  14.104
28102SOL    HW286139   6.803   5.337  14.252
28103SOL     OW86140   8.599   0.774   7.095
28103SOL    HW186141   8.587   0.756   7.002
28103SOL    HW286142   8.540   0.848   7.113
28104SOL     OW86143  12.058  11.054   9.543
28104SOL    HW186144  12.043  10.980   9.602
28104SOL    HW286145  11.971  11.076   9.510
28105SOL     OW86146   3.836   5.022  13.641
28105SOL    HW186147   3.851   4.928  13.651
28105SOL    HW286148   3.904   5.051  13.581
28106SOL     OW86149   7.525  14.232  14.851
28106SOL    HW186150   7.457  14.242  14.784
28106SOL    HW286151   7.569  14.317  14.853
28107SOL     OW86152   5.348   9.757   6.810
28107SOL    HW186153   5.268   9.704   6.798
28107SOL    HW286154   5.411   9.719   6.749
28108SOL     OW86155  14.359   0.154  13.913
28108SOL    HW186156  14.416   0.112  13.978
28108SOL    HW286157  14.408   0.149  13.831
28109SOL     OW86158   9.280   2.271   4.477
28109SOL    HW186159   9.362   2.230   4.451
28109SOL    HW286160   9.298   2.310   4.562
28110SOL     OW86161   6.541   6.832   6.093
28110SOL    HW186162   6.626   6.805   6.127
28110SOL    HW286163   6.528   6.779   6.015
28111SOL     OW86164   3.690   0.393  13.151
28111SOL    HW186165   3.605   0.354  13.133
28111SOL    HW286166   3.709   0.446  13.074
28112SOL     OW86167   4.943   2.662   8.488
28112SOL    HW186168   4.919   2.693   8.400
28112SOL    HW286169   4.890   2.716   8.547
28113SOL     OW86170   8.514   0.213   6.748
28113SOL    HW186171   8.438   0.270   6.757
28113SOL    HW286172   8.578   0.249   6.809
28114SOL     OW86173   2.577   7.659   2.254
28114SOL    HW186174   2.610   7.609   2.329
28114SOL    HW286175   2.514   7.720   2.291
28115SOL     OW86176   8.099   5.674   7.120
28115SOL    HW186177   8.022   5.730   7.111
28115SOL    HW286178   8.165   5.729   7.162
28116SOL     OW86179  14.221   8.914   2.559
28116SOL    HW186180  14.164   8.918   2.482
28116SOL    HW286181  14.163   8.928   2.634
28117SOL     OW86182   5.374  13.014   7.498
28117SOL    HW186183   5.298  13.055   7.458
28117SOL    HW286184   5.350  12.921   7.505
28118SOL     OW86185  11.159   1.832  12.751
28118SOL    HW186186  11.230   1.890  12.723
28118SOL    HW286187  11.080   1.876  12.719
28119SOL     OW86188   6.319   8.865  12.939
28119SOL    HW186189   6.290   8.838  12.851
28119SOL    HW286190   6.253   8.828  12.998
28120SOL     OW86191   8.922   8.737   3.404
28120SOL    HW186192   8.867   8.737   3.482
28120SOL    HW286193   9.012   8.740   3.438
28121SOL     OW86194   1.706   2.911   9.140
28121SOL    HW186195   1.635   2.847   9.155
28121SOL    HW286196   1.664   2.996   9.149
28122SOL     OW86197   9.578   9.511  14.638
28122SOL    HW186198   9.671   9.504  14.619
28122SOL    HW286199   9.548   9.421  14.644
28123SOL     OW86200  14.138   7.235   8.622
28123SOL    HW186201  14.168   7.216   8.533
28123SOL    HW286202  14.088   7.157   8.648
28124SOL     OW86203   0.299   4.306   5.948
28124SOL    HW186204   0.344   4.316   6.033
28124SOL    HW286205   0.323   4.218   5.919
28125SOL     OW86206   5.453   7.031  13.822
28125SOL    HW186207   5.485   7.065  13.906
28125SOL    HW286208   5.488   6.942  13.817
28126SOL     OW86209   2.545   3.330   4.682
28126SOL    HW186210   2.476   3.310   4.619
28126SOL    HW286211   2.546   3.426   4.687
28127SOL     OW86212  13.434   4.925  12.386
28127SOL    HW186213  13.515   4.973  12.405
28127SOL    HW286214  13.456   4.833  12.401
28128SOL     OW86215  10.101   2.033   1.368
28128SOL    HW186216  10.132   2.000   1.284
28128SOL    HW286217  10.028   2.091   1.346
28129SOL     OW86218  11.279   3.349   7.365
28129SOL    HW186219  11.299   3.416   7.431
28129SOL    HW286220  11.288   3.266   7.412
28130SOL     OW86221   4.541   0.948  14.847
28130SOL    HW186222   4.620   0.918  14.802
28130SOL    HW286223   4.469   0.921  14.790
28131SOL     OW86224   8.164   9.914   6.407
28131SOL    HW186225   8.258   9.907   6.420
28131SOL    HW286226   8.126   9.880   6.489
28132SOL     OW86227   5.482   2.195   2.075
28132SOL    HW186228   5.534   2.234   2.145
28132SOL    HW286229   5.488   2.101   2.091
28133SOL     OW86230  13.804  13.740   8.385
28133SOL    HW186231  13.772  13.804   8.323
28133SOL    HW286232  13.803  13.657   8.337
28134SOL     OW86233   7.221   8.182  12.044
28134SOL    HW186234   7.243   8.151  11.956
28134SOL    HW286235   7.220   8.103  12.098
28135SOL     OW86236   4.153   9.954   2.631
28135SOL    HW186237   4.243   9.921   2.636
28135SOL    HW286238   4.103   9.895   2.688
28136SOL     OW86239   5.131   9.130  12.847
28136SOL    HW186240   5.082   9.048  12.858
28136SOL    HW286241   5.206   9.106  12.793
28137SOL     OW86242   1.248  11.752   1.638
28137SOL    HW186243   1.326  11.772   1.689
28137SOL    HW286244   1.178  11.803   1.679
28138SOL     OW86245  11.076   7.486  11.033
28138SOL    HW186246  11.106   7.575  11.053
28138SOL    HW286247  11.103   7.472  10.942
28139SOL     OW86248   9.448   1.621  11.629
28139SOL    HW186249   9.504   1.698  11.622
28139SOL    HW286250   9.481   1.561  11.562
28140SOL     OW86251   0.030   7.203   1.976
28140SOL    HW186252   0.073   7.118   1.982
28140SOL    HW286253  14.862   7.216   2.062
28141SOL     OW86254   7.918   2.975   5.181
28141SOL    HW186255   8.009   2.995   5.205
28141SOL    HW286256   7.910   2.880   5.197
28142SOL     OW86257   6.461  14.036  13.718
28142SOL    HW186258   6.506  14.120  13.710
28142SOL    HW286259   6.496  13.984  13.646
28143SOL     OW86260   5.106  11.123   7.888
28143SOL    HW186261   5.115  11.114   7.983
28143SOL    HW286262   5.171  11.062   7.852
28144SOL     OW86263   0.587  13.073   3.987
28144SOL    HW186264   0.520  13.096   4.051
28144SOL    HW286265   0.578  12.978   3.975
28145SOL     OW86266   9.070  10.303  14.340
28145SOL    HW186267   9.119  10.383  14.320
28145SOL    HW286268   8.979  10.327  14.326
28146SOL     OW86269  11.301  11.296   4.750
28146SOL    HW186270  11.296  11.284   4.845
28146SOL    HW286271  11.391  11.324   4.734
28147SOL     OW86272  13.343   9.744   3.444
28147SOL    HW186273  13.376   9.659   3.474
28147SOL    HW286274  13.295   9.778   3.520
28148SOL     OW86275  12.746   8.935  13.024
28148SOL    HW186276  12.759   8.950  13.118
28148SOL    HW286277  12.651   8.937  13.013
28149SOL     OW86278   8.575  10.480   1.173
28149SOL    HW186279   8.568  10.501   1.080
28149SOL    HW286280   8.665  10.448   1.184
28150SOL     OW86281   2.230  14.647  10.803
28150SOL    HW186282   2.317  14.664  10.839
28150SOL    HW286283   2.242  14.571  10.746
28151SOL     OW86284   1.655  10.196  11.588
28151SOL    HW186285   1.720  10.264  11.606
28151SOL    HW286286   1.696  10.115  11.620
28152SOL     OW86287   8.343   8.736   2.798
28152SOL    HW186288   8.324   8.644   2.783
28152SOL    HW286289   8.382   8.740   2.885
28153SOL     OW86290   4.481  11.354   8.179
28153SOL    HW186291   4.444  11.303   8.252
28153SOL    HW286292   4.509  11.289   8.116
28154SOL     OW86293   1.469  12.115   3.494
28154SOL    HW186294   1.546  12.081   3.541
28154SOL    HW286295   1.505  12.176   3.430
28155SOL     OW86296   4.752   5.669  11.098
28155SOL    HW186297   4.760   5.680  11.003
28155SOL    HW286298   4.836   5.631  11.125
28156SOL     OW86299  13.210   5.373  10.173
28156SOL    HW186300  13.189   5.311  10.104
28156SOL    HW286301  13.250   5.320  10.242
28157SOL     OW86302   6.782   7.389  11.493
28157SOL    HW186303   6.695   7.395  11.532
28157SOL    HW286304   6.819   7.308  11.528
28158SOL     OW86305   1.869  10.956  12.181
28158SOL    HW186306   1.944  10.903  12.209
28158SOL    HW286307   1.839  10.998  12.262
28159SOL     OW86308   6.571  11.339   2.317
28159SOL    HW186309   6.638  11.387   2.366
28159SOL    HW286310   6.597  11.247   2.324
28160SOL     OW86311  14.213   8.192  14.046
28160SOL    HW186312  14.197   8.132  14.119
28160SOL    HW286313  14.276   8.147  13.991
28161SOL     OW86314   2.449  12.078  13.625
28161SOL    HW186315   2.501  12.086  13.545
28161SOL    HW286316   2.369  12.034  13.598
28162SOL     OW86317  14.756  11.143   5.193
28162SOL    HW186318  14.741  11.129   5.099
28162SOL    HW286319  14.805  11.225   5.198
28163SOL     OW86320  12.546   3.032   0.172
28163SOL    HW186321  12.545   2.938   0.187
28163SOL    HW286322  12.536   3.041   0.077
28164SOL     OW86323   2.619   8.944   4.932
28164SOL    HW186324   2.648   8.896   4.854
28164SOL    HW286325   2.558   9.009   4.898
28165SOL     OW86326   9.841   1.618   3.714
28165SOL    HW186327   9.805   1.705   3.697
28165SOL    HW286328   9.807   1.595   3.801
28166SOL     OW86329   7.381  12.621   4.649
28166SOL    HW186330   7.411  12.592   4.735
28166SOL    HW286331   7.402  12.548   4.591
28167SOL     OW86332   2.242  10.662  12.468
28167SOL    HW186333   2.280  10.576  12.449
28167SOL    HW286334   2.314  10.723  12.452
28168SOL     OW86335  14.439   7.422  14.251
28168SOL    HW186336  14.474   7.349  14.302
28168SOL    HW286337  14.396   7.479  14.316
28169SOL     OW86338  11.376   6.601   4.635
28169SOL    HW186339  11.290   6.638   4.654
28169SOL    HW286340  11.425   6.672   4.595
28170SOL     OW86341   8.300   6.371   7.029
28170SOL    HW186342   8.341   6.458   7.030
28170SOL    HW286343   8.349   6.322   6.963
28171SOL     OW86344   6.235  12.298   2.623
28171SOL    HW186345   6.142  12.297   2.643
28171SOL    HW286346   6.240  12.291   2.528
28172SOL     OW86347   3.560   3.038  10.318
28172SOL    HW186348   3.652   3.014  10.318
28172SOL    HW286349   3.560   3.133  10.331
28173SOL     OW86350   6.045   6.680  14.752
28173SOL    HW186351   6.019   6.769  14.730
28173SOL    HW286352   6.043   6.633  14.669
28174SOL     OW86353   1.904   5.025  10.491
28174SOL    HW186354   1.994   5.055  10.509
28174SOL    HW286355   1.915   4.935  10.462
28175SOL     OW86356   3.960  10.230  14.868
28175SOL    HW186357   3.964  10.188  14.782
28175SOL    HW286358   3.910  10.310  14.853
28176SOL     OW86359   0.165   9.699   8.036
28176SOL    HW186360   0.138   9.720   7.946
28176SOL    HW286361   0.192   9.783   8.073
28177SOL     OW86362   7.999  13.659   6.957
28177SOL    HW186363   7.921  13.613   6.989
28177SOL    HW286364   8.067  13.638   7.020
28178SOL     OW86365   5.330   0.406   4.806
28178SOL    HW186366   5.379   0.360   4.874
28178SOL    HW286367   5.239   0.382   4.822
28179SOL     OW86368   1.059   5.008   4.246
28179SOL    HW186369   1.150   4.982   4.261
28179SOL    HW286370   1.014   4.990   4.329
28180SOL     OW86371   1.067  11.150   1.171
28180SOL    HW186372   1.009  11.124   1.242
28180SOL    HW286373   1.140  11.089   1.176
28181SOL     OW86374   5.661   2.654   1.337
28181SOL    HW186375   5.716   2.726   1.368
28181SOL    HW286376   5.630   2.682   1.251
28182SOL     OW86377  10.016  10.578  12.822
28182SOL    HW186378  10.097  10.579  12.872
28182SOL    HW286379   9.997  10.670  12.805
28183SOL     OW86380   7.149  10.939  11.382
28183SOL    HW186381   7.172  11.017  11.330
28183SOL    HW286382   7.143  10.869  11.317
28184SOL     OW86383   7.874   1.483   5.515
28184SOL    HW186384   7.875   1.388   5.527
28184SOL    HW286385   7.957   1.502   5.470
28185SOL     OW86386   6.243  10.223   1.718
28185SOL    HW186387   6.191  10.161   1.668
28185SOL    HW286388   6.179  10.284   1.756
28186SOL     OW86389   4.595  10.265   4.555
28186SOL    HW186390   4.536  10.303   4.490
28186SOL    HW286391   4.579  10.315   4.635
28187SOL     OW86392   8.819   5.053   2.523
28187SOL    HW186393   8.879   5.043   2.448
28187SOL    HW286394   8.864   5.009   2.595
28188SOL     OW86395  13.134   7.631   7.230
28188SOL    HW186396  13.048   7.668   7.209
28188SOL    HW286397  13.118   7.537   7.239
28189SOL     OW86398   3.109   1.407  14.138
28189SOL    HW186399   3.136   1.430  14.049
28189SOL    HW286400   3.066   1.486  14.172
28190SOL     OW86401  14.293   7.209   6.386
28190SOL    HW186402  14.209   7.234   6.346
28190SOL    HW286403  14.306   7.274   6.456
28191SOL     OW86404  10.210  13.501   0.247
28191SOL    HW186405  10.223  13.437   0.178
28191SOL    HW286406  10.298  13.535   0.265
28192SOL     OW86407   6.773  13.605   5.582
28192SOL    HW186408   6.807  13.539   5.522
28192SOL    HW286409   6.696  13.640   5.537
28193SOL     OW86410   2.743   2.345   4.497
28193SOL    HW186411   2.718   2.356   4.588
28193SOL    HW286412   2.778   2.430   4.471
28194SOL     OW86413  12.772   9.753   5.722
28194SOL    HW186414  12.866   9.738   5.730
28194SOL    HW286415  12.750   9.724   5.634
28195SOL     OW86416  12.999   9.842  13.802
28195SOL    HW186417  13.003   9.908  13.733
28195SOL    HW286418  12.906   9.836  13.824
28196SOL     OW86419  12.127   3.946   6.017
28196SOL    HW186420  12.048   3.913   5.976
28196SOL    HW286421  12.110   3.940   6.111
28197SOL     OW86422  13.741   9.696   9.328
28197SOL    HW186423  13.679   9.628   9.356
28197SOL    HW286424  13.793   9.655   9.259
28198SOL     OW86425   1.686   4.404  14.000
28198SOL    HW186426   1.708   4.495  14.020
28198SOL    HW286427   1.595   4.394  14.028
28199SOL     OW86428   3.435   4.901   0.842
28199SOL    HW186429   3.347   4.938   0.854
28199SOL    HW286430   3.451   4.853   0.923
28200SOL     OW86431   7.389  10.247  12.984
28200SOL    HW186432   7.336  10.220  13.059
28200SOL    HW286433   7.329  10.295  12.928
28201SOL     OW86434  11.745   4.556   6.881
28201SOL    HW186435  11.839   4.549   6.863
28201SOL    HW286436  11.705   4.487   6.829
28202SOL     OW86437   8.634  12.365  12.367
28202SOL    HW186438   8.581  12.445  12.366
28202SOL    HW286439   8.597  12.311  12.297
28203SOL     OW86440   1.044  10.981  10.611
28203SOL    HW186441   1.021  11.065  10.571
28203SOL    HW286442   0.971  10.962  10.670
28204SOL     OW86443   2.419  11.449   8.177
28204SOL    HW186444   2.407  11.543   8.164
28204SOL    HW286445   2.376  11.431   8.261
28205SOL     OW86446   0.219   0.269  10.329
28205SOL    HW186447   0.196   0.356  10.299
28205SOL    HW286448   0.140   0.217  10.313
28206SOL     OW86449   2.473   9.916   4.714
28206SOL    HW186450   2.448   9.883   4.800
28206SOL    HW286451   2.495  10.008   4.729
28207SOL     OW86452   6.085  12.543  13.096
28207SOL    HW186453   6.134  12.590  13.029
28207SOL    HW286454   6.032  12.611  13.138
28208SOL     OW86455   7.090   6.973   9.910
28208SOL    HW186456   7.153   6.901   9.902
28208SOL    HW286457   7.101   7.023   9.830
28209SOL     OW86458  12.699   6.333   9.630
28209SOL    HW186459  12.723   6.255   9.581
28209SOL    HW286460  12.684   6.302   9.719
28210SOL     OW86461   5.129  11.453   3.047
28210SOL    HW186462   5.035  11.469   3.051
28210SOL    HW286463   5.167  11.506   3.117
28211SOL     OW86464   7.914  11.729   1.022
28211SOL    HW186465   8.009  11.743   1.018
28211SOL    HW286466   7.904  11.634   1.010
28212SOL     OW86467  10.040   9.798  11.625
28212SOL    HW186468  10.002   9.729  11.679
28212SOL    HW286469   9.966   9.829  11.572
28213SOL     OW86470  10.408   6.947   3.776
28213SOL    HW186471  10.325   6.974   3.813
28213SOL    HW286472  10.388   6.866   3.729
28214SOL     OW86473   7.412   4.460   2.641
28214SOL    HW186474   7.449   4.441   2.555
28214SOL    HW286475   7.321   4.484   2.624
28215SOL     OW86476   5.569  11.849   0.866
28215SOL    HW186477   5.652  11.827   0.909
28215SOL    HW286478   5.594  11.908   0.794
28216SOL     OW86479  10.359   4.955   7.569
28216SOL    HW186480  10.341   5.007   7.647
28216SOL    HW286481  10.340   4.865   7.595
28217SOL     OW86482   4.611  11.465   7.978
28217SOL    HW186483   4.571  11.447   8.063
28217SOL    HW286484   4.542  11.448   7.914
28218SOL     OW86485   4.295   6.354   1.318
28218SOL    HW186486   4.335   6.304   1.246
28218SOL    HW286487   4.368   6.400   1.358
28219SOL     OW86488   3.711   4.457   1.085
28219SOL    HW186489   3.727   4.412   1.168
28219SOL    HW286490   3.798   4.468   1.046
28220SOL     OW86491   1.697   4.289   4.378
28220SOL    HW186492   1.668   4.342   4.452
28220SOL    HW286493   1.773   4.336   4.343
28221SOL     OW86494  11.171   0.433  14.738
28221SOL    HW186495  11.186   0.462  14.648
28221SOL    HW286496  11.148   0.513  14.785
28222SOL     OW86497  13.952  12.963  14.350
28222SOL    HW186498  13.900  12.968  14.270
28222SOL    HW286499  14.028  12.911  14.327
28223SOL     OW86500  12.314   4.094   0.101
28223SOL    HW186501  12.292   4.056   0.186
28223SOL    HW286502  12.289   4.027   0.037
28224SOL     OW86503   2.458   3.812   1.763
28224SOL    HW186504   2.454   3.742   1.828
28224SOL    HW286505   2.446   3.768   1.679
28225SOL     OW86506   4.101  14.755   0.321
28225SOL    HW186507   4.124  14.847   0.334
28225SOL    HW286508   4.025  14.757   0.263
28226SOL     OW86509   0.457   4.317   3.537
28226SOL    HW186510   0.523   4.258   3.574
28226SOL    HW286511   0.401   4.340   3.611
28227SOL     OW86512   8.002  14.275   1.339
28227SOL    HW186513   7.923  14.324   1.359
28227SOL    HW286514   7.980  14.224   1.261
28228SOL     OW86515  10.312   4.446  13.763
28228SOL    HW186516  10.308   4.526  13.710
28228SOL    HW286517  10.400   4.447  13.801
28229SOL     OW86518  13.512   5.311   9.494
28229SOL    HW186519  13.452   5.278   9.561
28229SOL    HW286520  13.456   5.361   9.434
28230SOL     OW86521  12.198   6.453   9.602
28230SOL    HW186522  12.186   6.358   9.610
28230SOL    HW286523  12.109   6.488   9.603
28231SOL     OW86524   8.527   0.580   3.438
28231SOL    HW186525   8.558   0.584   3.529
28231SOL    HW286526   8.544   0.667   3.403
28232SOL     OW86527   2.444   3.010  11.669
28232SOL    HW186528   2.386   2.934  11.670
28232SOL    HW286529   2.403   3.071  11.609
28233SOL     OW86530  12.868  10.026   8.419
28233SOL    HW186531  12.887  10.119   8.434
28233SOL    HW286532  12.953   9.988   8.396
28234SOL     OW86533   7.573   1.400  14.009
28234SOL    HW186534   7.635   1.331  14.031
28234SOL    HW286535   7.488   1.356  14.005
28235SOL     OW86536   6.346   0.050   7.919
28235SOL    HW186537   6.441   0.061   7.933
28235SOL    HW286538   6.334  14.829   7.905
28236SOL     OW86539  10.948   1.500   6.482
28236SOL    HW186540  11.012   1.432   6.504
28236SOL    HW286541  10.926   1.540   6.565
28237SOL     OW86542   2.713   5.240   3.775
28237SOL    HW186543   2.693   5.330   3.801
28237SOL    HW286544   2.770   5.249   3.699
28238SOL     OW86545   8.568  12.670  13.676
28238SOL    HW186546   8.583  12.714  13.760
28238SOL    HW286547   8.624  12.716  13.614
28239SOL     OW86548   8.956  10.468   3.725
28239SOL    HW186549   8.891  10.536   3.741
28239SOL    HW286550   9.040  10.511   3.744
28240SOL     OW86551   2.973  11.641   4.519
28240SOL    HW186552   3.024  11.683   4.449
28240SOL    HW286553   2.929  11.714   4.562
28241SOL     OW86554   8.967   7.062  11.810
28241SOL    HW186555   8.958   7.141  11.756
28241SOL    HW286556   9.057   7.032  11.794
28242SOL     OW86557   0.721  13.352   1.399
28242SOL    HW186558   0.788  13.394   1.453
28242SOL    HW286559   0.712  13.409   1.323
28243SOL     OW86560  12.396   3.413  12.497
28243SOL    HW186561  12.460   3.342  12.492
28243SOL    HW286562  12.346   3.395  12.577
28244SOL     OW86563   0.037  13.711   2.762
28244SOL    HW186564  14.837  13.655   2.734
28244SOL    HW286565   0.014  13.738   2.851
28245SOL     OW86566   9.872   4.357   2.872
28245SOL    HW186567   9.921   4.397   2.801
28245SOL    HW286568   9.798   4.313   2.830
28246SOL     OW86569  13.801   1.663  12.890
28246SOL    HW186570  13.837   1.575  12.885
28246SOL    HW286571  13.878   1.720  12.894
28247SOL     OW86572   7.544  10.386  14.045
28247SOL    HW186573   7.562  10.381  14.138
28247SOL    HW286574   7.496  10.306  14.025
28248SOL     OW86575  13.507  14.130   4.969
28248SOL    HW186576  13.484  14.101   5.057
28248SOL    HW286577  13.463  14.068   4.911
28249SOL     OW86578  11.866  10.728  11.602
28249SOL    HW186579  11.772  10.717  11.583
28249SOL    HW286580  11.910  10.694  11.524
28250SOL     OW86581  12.360   8.245  12.713
28250SOL    HW186582  12.273   8.252  12.675
28250SOL    HW286583  12.378   8.151  12.715
28251SOL     OW86584  12.478  14.083   7.757
28251SOL    HW186585  12.565  14.122   7.754
28251SOL    HW286586  12.434  14.117   7.679
28252SOL     OW86587   7.723  12.899   0.617
28252SOL    HW186588   7.664  12.959   0.664
28252SOL    HW286589   7.665  12.846   0.562
28253SOL     OW86590  13.341   0.360   5.600
28253SOL    HW186591  13.393   0.415   5.541
28253SOL    HW286592  13.261   0.342   5.551
28254SOL     OW86593   7.052  13.443  10.161
28254SOL    HW186594   7.007  13.400  10.233
28254SOL    HW286595   6.983  13.489  10.113
28255SOL     OW86596   5.455  12.300  11.480
28255SOL    HW186597   5.487  12.255  11.402
28255SOL    HW286598   5.361  12.286  11.479
28256SOL     OW86599  12.604   0.020   8.522
28256SOL    HW186600  12.521  14.847   8.507
28256SOL    HW286601  12.638  14.852   8.602
28257SOL     OW86602   9.723  14.211  10.261
28257SOL    HW186603   9.799  14.269  10.267
28257SOL    HW286604   9.671  14.246  10.189
28258SOL     OW86605  13.379  10.879   7.918
28258SOL    HW186606  13.313  10.868   7.849
28258SOL    HW286607  13.403  10.972   7.913
28259SOL     OW86608   2.869   3.135   2.348
28259SOL    HW186609   2.924   3.057   2.351
28259SOL    HW286610   2.780   3.101   2.356
28260SOL     OW86611  13.144  14.757   4.814
28260SOL    HW186612  13.107  14.773   4.727
28260SOL    HW286613  13.145  14.844   4.855
28261SOL     OW86614  10.521   7.231   7.247
28261SOL    HW186615  10.488   7.146   7.218
28261SOL    HW286616  10.593   7.251   7.187
28262SOL     OW86617   5.019  11.713   9.959
28262SOL    HW186618   4.988  11.638   9.909
28262SOL    HW286619   4.961  11.785   9.935
28263SOL     OW86620  14.436   9.439   3.278
28263SOL    HW186621  14.374   9.371   3.252
28263SOL    HW286622  14.521   9.409   3.245
28264SOL     OW86623   3.951  13.366  10.769
28264SOL    HW186624   4.026  13.425  10.770
28264SOL    HW286625   3.893  13.402  10.701
28265SOL     OW86626   7.497  14.607   6.497
28265SOL    HW186627   7.496  14.533   6.437
28265SOL    HW286628   7.583  14.647   6.484
28266SOL     OW86629   9.932   0.471  11.214
28266SOL    HW186630   9.891   0.466  11.128
28266SOL    HW286631   9.889   0.546  11.257
28267SOL     OW86632   4.245   2.832   2.594
28267SOL    HW186633   4.335   2.821   2.564
28267SOL    HW286634   4.198   2.867   2.518
28268SOL     OW86635   4.153   2.886  14.808
28268SOL    HW186636   4.225   2.825  14.794
28268SOL    HW286637   4.075   2.830  14.810
28269SOL     OW86638   7.585  12.494   1.675
28269SOL    HW186639   7.666  12.474   1.627
28269SOL    HW286640   7.544  12.565   1.625
28270SOL     OW86641  13.831   2.774   7.635
28270SOL    HW186642  13.790   2.856   7.662
28270SOL    HW286643  13.925   2.790   7.642
28271SOL     OW86644  11.528   6.105   5.580
28271SOL    HW186645  11.533   6.170   5.511
28271SOL    HW286646  11.437   6.107   5.609
28272SOL     OW86647  12.194  12.913   2.320
28272SOL    HW186648  12.105  12.908   2.356
28272SOL    HW286649  12.191  12.856   2.243
28273SOL     OW86650  14.218   3.084  11.318
28273SOL    HW186651  14.181   3.105  11.232
28273SOL    HW286652  14.292   3.026  11.299
28274SOL     OW86653   7.698   8.540  13.514
28274SOL    HW186654   7.774   8.518  13.567
28274SOL    HW286655   7.634   8.472  13.534
28275SOL     OW86656   7.538   4.829  12.523
28275SOL    HW186657   7.526   4.783  12.607
28275SOL    HW286658   7.476   4.787  12.464
28276SOL     OW86659  13.917  11.428   2.371
28276SOL    HW186660  13.929  11.353   2.312
28276SOL    HW286661  14.002  11.471   2.373
28277SOL     OW86662   6.987   5.270   0.472
28277SOL    HW186663   7.081   5.258   0.480
28277SOL    HW286664   6.972   5.362   0.493
28278SOL     OW86665   9.164   0.684   8.453
28278SOL    HW186666   9.150   0.774   8.482
28278SOL    HW286667   9.076   0.653   8.429
28279SOL     OW86668   6.402   7.857   2.767
28279SOL    HW186669   6.400   7.816   2.681
28279SOL    HW286670   6.469   7.809   2.815
28280SOL     OW86671  12.865  13.508   4.751
28280SOL    HW186672  12.955  13.535   4.772
28280SOL    HW286673  12.825  13.585   4.712
28281SOL     OW86674   3.698   0.358  11.094
28281SOL    HW186675   3.752   0.375  11.016
28281SOL    HW286676   3.712   0.435  11.150
28282SOL     OW86677   5.539   4.846   2.425
28282SOL    HW186678   5.529   4.938   2.449
28282SOL    HW286679   5.485   4.835   2.347
28283SOL     OW86680  14.568  14.780   7.672
28283SOL    HW186681  14.651  14.790   7.719
28283SOL    HW286682  14.534  14.869   7.665
28284SOL     OW86683   2.985   0.669   0.184
28284SOL    HW186684   2.909   0.705   0.138
28284SOL    HW286685   3.053   0.665   0.118
28285SOL     OW86686   6.717  11.801   2.023
28285SOL    HW186687   6.670  11.869   2.070
28285SOL    HW286688   6.681  11.719   2.056
28286SOL     OW86689   7.924   1.509   5.188
28286SOL    HW186690   7.982   1.554   5.249
28286SOL    HW286691   7.966   1.520   5.103
28287SOL     OW86692   6.129  11.951   3.046
28287SOL    HW186693   6.095  11.869   3.082
28287SOL    HW286694   6.223  11.949   3.065
28288SOL     OW86695   9.073   9.183  12.366
28288SOL    HW186696   9.153   9.142  12.332
28288SOL    HW286697   9.013   9.185  12.291
28289SOL     OW86698  13.466   4.697  11.427
28289SOL    HW186699  13.489   4.652  11.509
28289SOL    HW286700  13.373   4.718  11.436
28290SOL     OW86701  14.222   2.965  13.682
28290SOL    HW186702  14.150   2.931  13.735
28290SOL    HW286703  14.249   2.891  13.627
28291SOL     OW86704  12.681   8.746  11.962
28291SOL    HW186705  12.667   8.744  11.867
28291SOL    HW286706  12.620   8.682  11.997
28292SOL     OW86707  13.501  11.188   5.711
28292SOL    HW186708  13.481  11.233   5.629
28292SOL    HW286709  13.582  11.141   5.694
28293SOL     OW86710   0.636   0.046   7.510
28293SOL    HW186711   0.543   0.066   7.503
28293SOL    HW286712   0.639  14.837   7.561
28294SOL     OW86713   4.640   1.238   6.419
28294SOL    HW186714   4.704   1.295   6.377
28294SOL    HW286715   4.692   1.166   6.456
28295SOL     OW86716   2.791   9.683   7.095
28295SOL    HW186717   2.816   9.773   7.071
28295SOL    HW286718   2.696   9.680   7.082
28296SOL     OW86719   4.427   4.097   6.144
28296SOL    HW186720   4.374   4.123   6.219
28296SOL    HW286721   4.365   4.050   6.088
28297SOL     OW86722   0.456  11.982  14.677
28297SOL    HW186723   0.460  11.983  14.773
28297SOL    HW286724   0.546  12.001  14.650
28298SOL     OW86725   7.679   8.699   6.373
28298SOL    HW186726   7.765   8.686   6.334
28298SOL    HW286727   7.652   8.786   6.343
28299SOL     OW86728   0.472  11.655  12.036
28299SOL    HW186729   0.456  11.648  11.942
28299SOL    HW286730   0.493  11.747  12.050
28300SOL     OW86731   6.982   7.630   2.054
28300SOL    HW186732   6.932   7.565   2.005
28300SOL    HW286733   7.005   7.697   1.990
28301SOL     OW86734   1.985  10.729   0.855
28301SOL    HW186735   2.017  10.641   0.834
28301SOL    HW286736   1.914  10.744   0.792
28302SOL     OW86737  11.475   3.377   7.156
28302SOL    HW186738  11.487   3.468   7.181
28302SOL    HW286739  11.421   3.340   7.226
28303SOL     OW86740  13.092   5.461  14.228
28303SOL    HW186741  13.179   5.448  14.190
28303SOL    HW286742  13.103   5.442  14.321
28304SOL     OW86743   7.671   7.872  13.980
28304SOL    HW186744   7.629   7.852  14.064
28304SOL    HW286745   7.657   7.965  13.967
28305SOL     OW86746   2.698  14.305   4.839
28305SOL    HW186747   2.607  14.335   4.849
28305SOL    HW286748   2.699  14.259   4.755
28306SOL     OW86749   0.847  14.284   1.981
28306SOL    HW186750   0.856  14.200   1.936
28306SOL    HW286751   0.789  14.335   1.924
28307SOL     OW86752  13.457   3.336  13.114
28307SOL    HW186753  13.415   3.419  13.135
28307SOL    HW286754  13.415   3.309  13.032
28308SOL     OW86755   6.880   8.086   8.743
28308SOL    HW186756   6.893   8.031   8.820
28308SOL    HW286757   6.836   8.030   8.680
28309SOL     OW86758  13.209   2.833  11.944
28309SOL    HW186759  13.177   2.821  11.854
28309SOL    HW286760  13.283   2.773  11.951
28310SOL     OW86761   2.745   3.756   4.221
28310SOL    HW186762   2.731   3.746   4.126
28310SOL    HW286763   2.827   3.709   4.237
28311SOL     OW86764   1.968  12.499  12.014
28311SOL    HW186765   1.950  12.507  11.921
28311SOL    HW286766   2.028  12.425  12.021
28312SOL     OW86767   3.801   0.312  11.941
28312SOL    HW186768   3.892   0.281  11.938
28312SOL    HW286769   3.777   0.324  11.849
28313SOL     OW86770  12.193   4.212   6.156
28313SOL    HW186771  12.165   4.152   6.225
28313SOL    HW286772  12.288   4.198   6.149
28314SOL     OW86773  11.372   5.229   0.317
28314SOL    HW186774  11.420   5.311   0.328
28314SOL    HW286775  11.436   5.160   0.336
28315SOL     OW86776   9.051   5.428   5.079
28315SOL    HW186777   9.035   5.519   5.104
28315SOL    HW286778   8.985   5.410   5.012
28316SOL     OW86779  12.889  13.838   4.947
28316SOL    HW186780  12.967  13.782   4.952
28316SOL    HW286781  12.884  13.864   4.855
28317SOL     OW86782  14.649   7.323   8.525
28317SOL    HW186783  14.629   7.242   8.572
28317SOL    HW286784  14.573   7.379   8.539
28318SOL     OW86785   1.554   9.702   5.222
28318SOL    HW186786   1.465   9.676   5.199
28318SOL    HW286787   1.605   9.620   5.219
28319SOL     OW86788   1.855   8.876   1.537
28319SOL    HW186789   1.877   8.907   1.624
28319SOL    HW286790   1.896   8.938   1.477
28320SOL     OW86791   9.615   3.774  13.490
28320SOL    HW186792   9.642   3.761  13.400
28320SOL    HW286793   9.567   3.857  13.489
28321SOL     OW86794   3.401   0.762   4.322
28321SOL    HW186795   3.309   0.737   4.325
28321SOL    HW286796   3.400   0.855   4.298
28322SOL     OW86797   9.381  13.054   8.976
28322SOL    HW186798   9.448  13.121   8.962
28322SOL    HW286799   9.323  13.090   9.042
28323SOL     OW86800   6.453   9.098  13.099
28323SOL    HW186801   6.432   9.029  13.036
28323SOL    HW286802   6.549   9.103  13.097
28324SOL     OW86803  11.380   5.195  12.290
28324SOL    HW186804  11.287   5.201  12.267
28324SOL    HW286805  11.383   5.129  12.359
28325SOL     OW86806   5.324   2.966   4.517
28325SOL    HW186807   5.249   3.022   4.533
28325SOL    HW286808   5.371   3.008   4.444
28326SOL     OW86809   5.116   4.415   9.716
28326SOL    HW186810   5.089   4.330   9.749
28326SOL    HW286811   5.100   4.476   9.788
28327SOL     OW86812   9.208   2.041   9.956
28327SOL    HW186813   9.272   1.977   9.987
28327SOL    HW286814   9.125   1.993   9.952
28328SOL     OW86815  12.129  10.821   8.348
28328SOL    HW186816  12.197  10.755   8.331
28328SOL    HW286817  12.126  10.873   8.268
28329SOL     OW86818  10.848   0.488  14.534
28329SOL    HW186819  10.913   0.513  14.468
28329SOL    HW286820  10.877   0.402  14.564
28330SOL     OW86821  14.558   6.107   4.965
28330SOL    HW186822  14.477   6.066   4.996
28330SOL    HW286823  14.545   6.201   4.979
28331SOL     OW86824   3.203   1.533   7.563
28331SOL    HW186825   3.160   1.475   7.500
28331SOL    HW286826   3.282   1.485   7.589
28332SOL     OW86827  13.527  13.607   1.013
28332SOL    HW186828  13.442  13.583   0.974
28332SOL    HW286829  13.586  13.615   0.938
28333SOL     OW86830   0.231   2.626   2.162
28333SOL    HW186831   0.317   2.608   2.124
28333SOL    HW286832   0.192   2.691   2.103
28334SOL     OW86833  11.830  14.154  13.474
28334SOL    HW186834  11.912  14.204  13.478
28334SOL    HW286835  11.830  14.114  13.387
28335SOL     OW86836  14.529   9.428   8.036
28335SOL    HW186837  14.444   9.415   8.078
28335SOL    HW286838  14.543   9.348   7.984
28336SOL     OW86839   8.129  10.235   0.656
28336SOL    HW186840   8.113  10.320   0.615
28336SOL    HW286841   8.183  10.255   0.733
28337SOL     OW86842   2.742  11.719  11.931
28337SOL    HW186843   2.759  11.737  11.838
28337SOL    HW286844   2.701  11.799  11.963
28338SOL     OW86845  10.684   8.368   6.364
28338SOL    HW186846  10.724   8.291   6.404
28338SOL    HW286847  10.648   8.336   6.281
28339SOL     OW86848   0.160   0.883   5.933
28339SOL    HW186849   0.223   0.832   5.882
28339SOL    HW286850   0.075   0.851   5.905
28340SOL     OW86851   0.200  11.922  12.727
28340SOL    HW186852   0.247  11.973  12.661
28340SOL    HW286853   0.138  11.984  12.765
28341SOL     OW86854  11.400   9.233   8.087
28341SOL    HW186855  11.319   9.256   8.041
28341SOL    HW286856  11.414   9.305   8.148
28342SOL     OW86857  11.350   1.394   2.046
28342SOL    HW186858  11.279   1.330   2.038
28342SOL    HW286859  11.425   1.342   2.073
28343SOL     OW86860   6.116   1.202  14.737
28343SOL    HW186861   6.064   1.125  14.717
28343SOL    HW286862   6.052   1.271  14.754
28344SOL     OW86863   2.095   5.182   5.795
28344SOL    HW186864   2.038   5.206   5.722
28344SOL    HW286865   2.128   5.095   5.773
28345SOL     OW86866  11.225   6.385  14.599
28345SOL    HW186867  11.236   6.397  14.505
28345SOL    HW286868  11.288   6.317  14.622
28346SOL     OW86869   1.525   4.389   8.689
28346SOL    HW186870   1.451   4.353   8.738
28346SOL    HW286871   1.555   4.316   8.634
28347SOL     OW86872   1.812   1.349   9.089
28347SOL    HW186873   1.855   1.432   9.069
28347SOL    HW286874   1.746   1.371   9.154
28348SOL     OW86875   3.631  10.155   9.792
28348SOL    HW186876   3.590  10.183   9.710
28348SOL    HW286877   3.566  10.099   9.834
28349SOL     OW86878  13.866   5.202   6.565
28349SOL    HW186879  13.934   5.226   6.502
28349SOL    HW286880  13.908   5.140   6.624
28350SOL     OW86881   5.265   7.503   8.266
28350SOL    HW186882   5.305   7.588   8.285
28350SOL    HW286883   5.177   7.509   8.301
28351SOL     OW86884   7.445   8.720  12.950
28351SOL    HW186885   7.445   8.802  12.901
28351SOL    HW286886   7.538   8.698  12.961
28352SOL     OW86887   4.903   0.770  12.612
28352SOL    HW186888   4.868   0.821  12.686
28352SOL    HW286889   4.852   0.799  12.537
28353SOL     OW86890   6.987  11.813   8.740
28353SOL    HW186891   7.001  11.720   8.755
28353SOL    HW286892   6.960  11.819   8.648
28354SOL     OW86893   2.218   5.259   6.426
28354SOL    HW186894   2.285   5.202   6.461
28354SOL    HW286895   2.181   5.211   6.352
28355SOL     OW86896   2.397   3.720   6.078
28355SOL    HW186897   2.317   3.708   6.025
28355SOL    HW286898   2.365   3.730   6.167
28356SOL     OW86899  10.283   4.106  12.585
28356SOL    HW186900  10.242   4.147  12.509
28356SOL    HW286901  10.293   4.177  12.648
28357SOL     OW86902  13.387   1.896  12.675
28357SOL    HW186903  13.427   1.829  12.618
28357SOL    HW286904  13.293   1.889  12.657
28358SOL     OW86905   6.004   4.544   2.849
28358SOL    HW186906   5.920   4.500   2.834
28358SOL    HW286907   6.044   4.496   2.921
28359SOL     OW86908  11.281   0.748   0.916
28359SOL    HW186909  11.246   0.772   0.830
28359SOL    HW286910  11.375   0.735   0.901
28360SOL     OW86911  14.822  14.208   9.992
28360SOL    HW186912  14.847  14.256  10.071
28360SOL    HW286913   0.017  14.140   9.983
28361SOL     OW86914  12.679   3.158  14.596
28361SOL    HW186915  12.688   3.252  14.613
28361SOL    HW286916  12.765   3.132  14.561
28362SOL     OW86917   2.088   1.178   1.603
28362SOL    HW186918   2.043   1.142   1.527
28362SOL    HW286919   2.147   1.109   1.632
28363SOL     OW86920   9.285   7.342   5.290
28363SOL    HW186921   9.344   7.414   5.310
28363SOL    HW286922   9.235   7.372   5.214
28364SOL     OW86923   0.462  12.557   4.810
28364SOL    HW186924   0.421  12.472   4.793
28364SOL    HW286925   0.512  12.576   4.731
28365SOL     OW86926  10.336   7.204   1.321
28365SOL    HW186927  10.385   7.275   1.361
28365SOL    HW286928  10.335   7.224   1.228
28366SOL     OW86929   8.263  10.143  14.312
28366SOL    HW186930   8.271  10.144  14.408
28366SOL    HW286931   8.262  10.236  14.288
28367SOL     OW86932  14.236   1.565  11.830
28367SOL    HW186933  14.260   1.485  11.877
28367SOL    HW286934  14.245   1.542  11.737
28368SOL     OW86935   2.919  11.951   6.690
28368SOL    HW186936   3.006  11.973   6.723
28368SOL    HW286937   2.904  12.012   6.617
28369SOL     OW86938  13.192  11.224   5.985
28369SOL    HW186939  13.176  11.310   5.946
28369SOL    HW286940  13.268  11.238   6.042
28370SOL     OW86941  12.959  10.509  13.089
28370SOL    HW186942  13.051  10.518  13.114
28370SOL    HW286943  12.956  10.429  13.037
28371SOL     OW86944  12.148   7.155   4.571
28371SOL    HW186945  12.191   7.212   4.634
28371SOL    HW286946  12.209   7.083   4.558
28372SOL     OW86947   3.515   1.631   3.754
28372SOL    HW186948   3.526   1.582   3.835
28372SOL    HW286949   3.593   1.611   3.703
28373SOL     OW86950   5.872   5.887   6.903
28373SOL    HW186951   5.839   5.936   6.978
28373SOL    HW286952   5.828   5.802   6.908
28374SOL     OW86953   2.979   9.489   6.607
28374SOL    HW186954   2.928   9.467   6.684
28374SOL    HW286955   2.958   9.581   6.589
28375SOL     OW86956   9.786  12.219   7.735
28375SOL    HW186957   9.795  12.233   7.830
28375SOL    HW286958   9.760  12.128   7.727
28376SOL     OW86959  13.842   0.121   6.456
28376SOL    HW186960  13.801   0.040   6.487
28376SOL    HW286961  13.885   0.157   6.533
28377SOL     OW86962   2.736   5.429  12.895
28377SOL    HW186963   2.823   5.391  12.907
28377SOL    HW286964   2.678   5.368  12.941
28378SOL     OW86965   8.127   4.891  14.373
28378SOL    HW186966   8.146   4.984  14.386
28378SOL    HW286967   8.161   4.848  14.451
28379SOL     OW86968   2.546   8.777   1.542
28379SOL    HW186969   2.557   8.684   1.560
28379SOL    HW286970   2.497   8.780   1.459
28380SOL     OW86971   9.281  14.047   1.205
28380SOL    HW186972   9.202  14.092   1.237
28380SOL    HW286973   9.255  14.011   1.120
28381SOL     OW86974   8.003   1.733   1.357
28381SOL    HW186975   8.038   1.657   1.310
28381SOL    HW286976   8.025   1.716   1.449
28382SOL     OW86977   4.118  14.647  10.358
28382SOL    HW186978   4.070  14.606  10.430
28382SOL    HW286979   4.066  14.723  10.334
28383SOL     OW86980   8.438   3.627  10.534
28383SOL    HW186981   8.390   3.679  10.470
28383SOL    HW286982   8.371   3.590  10.591
28384SOL     OW86983  11.209   2.859  12.207
28384SOL    HW186984  11.266   2.922  12.250
28384SOL    HW286985  11.201   2.787  12.270
28385SOL     OW86986  13.794   1.239   3.148
28385SOL    HW186987  13.792   1.270   3.057
28385SOL    HW286988  13.780   1.145   3.142
28386SOL     OW86989   3.358  13.438  14.035
28386SOL    HW186990   3.286  13.386  14.069
28386SOL    HW286991   3.408  13.377  13.980
28387SOL     OW86992   7.597   6.012  13.273
28387SOL    HW186993   7.520   6.003  13.330
28387SOL    HW286994   7.561   6.004  13.184
28388SOL     OW86995  14.012   1.648   2.505
28388SOL    HW186996  14.067   1.726   2.505
28388SOL    HW286997  13.983   1.639   2.414
28389SOL     OW86998  11.981   8.911   6.199
28389SOL    HW186999  11.914   8.848   6.225
28389SOL    HW287000  11.958   8.936   6.109
28390SOL     OW87001   8.725  11.427   5.614
28390SOL    HW187002   8.760  11.417   5.703
28390SOL    HW287003   8.652  11.488   5.623
28391SOL     OW87004  13.164  10.274  12.248
28391SOL    HW187005  13.220  10.200  12.272
28391SOL    HW287006  13.078  10.251  12.282
28392SOL     OW87007   6.794   5.862   7.854
28392SOL    HW187008   6.866   5.919   7.828
28392SOL    HW287009   6.836   5.782   7.886
28393SOL     OW87010  13.373   9.469  12.155
28393SOL    HW187011  13.339   9.552  12.122
28393SOL    HW287012  13.395   9.419  12.077
28394SOL     OW87013   6.046  12.988   5.667
28394SOL    HW187014   5.977  13.002   5.733
28394SOL    HW287015   6.068  12.896   5.673
28395SOL     OW87016   2.911   2.467   4.856
28395SOL    HW187017   2.843   2.451   4.791
28395SOL    HW287018   2.864   2.488   4.937
28396SOL     OW87019  13.627  12.515   9.752
28396SOL    HW187020  13.592  12.554   9.832
28396SOL    HW287021  13.679  12.585   9.712
28397SOL     OW87022   7.272   3.360   0.349
28397SOL    HW187023   7.330   3.427   0.385
28397SOL    HW287024   7.201   3.352   0.413
28398SOL     OW87025   1.665   1.246  14.102
28398SOL    HW187026   1.688   1.327  14.146
28398SOL    HW287027   1.716   1.178  14.147
28399SOL     OW87028  13.116  13.150  11.551
28399SOL    HW187029  13.143  13.063  11.580
28399SOL    HW287030  13.191  13.181  11.500
28400SOL     OW87031   6.387   4.627  12.423
28400SOL    HW187032   6.419   4.629  12.332
28400SOL    HW287033   6.334   4.547  12.428
28401SOL     OW87034  11.749   9.909   9.048
28401SOL    HW187035  11.842   9.908   9.071
28401SOL    HW287036  11.734   9.995   9.011
28402SOL     OW87037  14.224   3.554   5.591
28402SOL    HW187038  14.251   3.473   5.548
28402SOL    HW287039  14.294   3.616   5.570
28403SOL     OW87040   1.725   4.365   2.639
28403SOL    HW187041   1.657   4.319   2.687
28403SOL    HW287042   1.755   4.433   2.698
28404SOL     OW87043   1.188  10.271   2.608
28404SOL    HW187044   1.275  10.292   2.641
28404SOL    HW287045   1.132  10.272   2.686
28405SOL     OW87046  13.203   4.995  14.698
28405SOL    HW187047  13.233   5.057  14.765
28405SOL    HW287048  13.108   4.994  14.707
28406SOL     OW87049   4.343   8.869   9.424
28406SOL    HW187050   4.319   8.781   9.396
28406SOL    HW287051   4.331   8.924   9.346
28407SOL     OW87052  11.563  10.865   8.244
28407SOL    HW187053  11.526  10.791   8.196
28407SOL    HW287054  11.572  10.833   8.333
28408SOL     OW87055   4.288   1.151   6.040
28408SOL    HW187056   4.245   1.067   6.055
28408SOL    HW287057   4.223   1.216   6.068
28409SOL     OW87058  11.202   1.084   1.488
28409SOL    HW187059  11.177   1.020   1.422
28409SOL    HW287060  11.186   1.169   1.448
28410SOL     OW87061   1.760   8.603   3.491
28410SOL    HW187062   1.690   8.541   3.512
28410SOL    HW287063   1.775   8.651   3.572
28411SOL     OW87064   0.850   4.877   2.237
28411SOL    HW187065   0.817   4.788   2.250
28411SOL    HW287066   0.924   4.866   2.176
28412SOL     OW87067   5.345  12.886   1.330
28412SOL    HW187068   5.315  12.800   1.301
28412SOL    HW287069   5.331  12.885   1.425
28413SOL     OW87070  11.938   1.277  11.480
28413SOL    HW187071  11.927   1.297  11.573
28413SOL    HW287072  11.926   1.361  11.435
28414SOL     OW87073  10.072   8.745   0.013
28414SOL    HW187074  10.155   8.713  14.852
28414SOL    HW287075  10.075   8.726   0.107
28415SOL     OW87076   9.819  10.959   6.179
28415SOL    HW187077   9.901  10.964   6.228
28415SOL    HW287078   9.784  10.872   6.199
28416SOL     OW87079   4.956   0.335   2.216
28416SOL    HW187080   4.891   0.374   2.158
28416SOL    HW287081   5.026   0.400   2.221
28417SOL     OW87082   9.248   1.826  10.956
28417SOL    HW187083   9.182   1.865  11.012
28417SOL    HW287084   9.321   1.888  10.957
28418SOL     OW87085  12.367   4.750  11.123
28418SOL    HW187086  12.290   4.730  11.176
28418SOL    HW287087  12.427   4.793  11.183
28419SOL     OW87088  11.830  12.378   5.686
28419SOL    HW187089  11.797  12.303   5.736
28419SOL    HW287090  11.805  12.358   5.595
28420SOL     OW87091  11.643   4.331  11.850
28420SOL    HW187092  11.557   4.349  11.813
28420SOL    HW287093  11.627   4.321  11.944
28421SOL     OW87094   5.933  10.341   3.972
28421SOL    HW187095   5.916  10.259   4.019
28421SOL    HW287096   5.909  10.410   4.033
28422SOL     OW87097  11.054   6.653   8.182
28422SOL    HW187098  11.038   6.744   8.157
28422SOL    HW287099  10.997   6.638   8.257
28423SOL     OW87100   8.542   6.610  14.638
28423SOL    HW187101   8.460   6.653  14.614
28423SOL    HW287102   8.517   6.521  14.662
28424SOL     OW87103  13.486   0.499   3.723
28424SOL    HW187104  13.536   0.541   3.793
28424SOL    HW287105  13.442   0.426   3.766
28425SOL     OW87106   9.338   3.615  11.219
28425SOL    HW187107   9.334   3.523  11.193
28425SOL    HW287108   9.281   3.620  11.297
28426SOL     OW87109  10.929   5.961   3.089
28426SOL    HW187110  11.008   5.980   3.139
28426SOL    HW287111  10.882   5.896   3.142
28427SOL     OW87112  11.265   0.246  13.709
28427SOL    HW187113  11.337   0.299  13.675
28427SOL    HW287114  11.276   0.248  13.804
28428SOL     OW87115   8.707  11.775  10.818
28428SOL    HW187116   8.618  11.746  10.839
28428SOL    HW287117   8.762  11.700  10.842
28429SOL     OW87118   9.889   3.817   6.523
28429SOL    HW187119   9.983   3.826   6.537
28429SOL    HW287120   9.866   3.734   6.563
28430SOL     OW87121   4.461   6.434   0.574
28430SOL    HW187122   4.438   6.342   0.560
28430SOL    HW287123   4.418   6.457   0.656
28431SOL     OW87124  12.519  12.533  13.775
28431SOL    HW187125  12.505  12.488  13.858
28431SOL    HW287126  12.612  12.517  13.755
28432SOL     OW87127   2.187   7.727  14.257
28432SOL    HW187128   2.245   7.702  14.185
28432SOL    HW287129   2.225   7.685  14.334
28433SOL     OW87130   6.665   7.582   3.852
28433SOL    HW187131   6.658   7.606   3.759
28433SOL    HW287132   6.582   7.609   3.890
28434SOL     OW87133   5.492   3.346  13.775
28434SOL    HW187134   5.559   3.280  13.760
28434SOL    HW287135   5.454   3.323  13.860
28435SOL     OW87136  13.040  10.777   5.044
28435SOL    HW187137  13.011  10.687   5.025
28435SOL    HW287138  12.959  10.828   5.044
28436SOL     OW87139   8.369  11.760   9.205
28436SOL    HW187140   8.379  11.773   9.111
28436SOL    HW287141   8.283  11.718   9.215
28437SOL     OW87142  10.559   2.882   0.527
28437SOL    HW187143  10.483   2.921   0.484
28437SOL    HW287144  10.523   2.811   0.580
28438SOL     OW87145   8.301   4.641  12.667
28438SOL    HW187146   8.251   4.697  12.608
28438SOL    HW287147   8.385   4.687  12.678
28439SOL     OW87148   7.027   1.229   4.351
28439SOL    HW187149   7.114   1.230   4.391
28439SOL    HW287150   7.035   1.171   4.276
28440SOL     OW87151  11.376   0.382  10.007
28440SOL    HW187152  11.352   0.326  10.080
28440SOL    HW287153  11.307   0.448  10.003
28441SOL     OW87154  12.020   8.769  12.933
28441SOL    HW187155  12.070   8.820  12.869
28441SOL    HW287156  11.958   8.719  12.881
28442SOL     OW87157   8.233  12.490   0.878
28442SOL    HW187158   8.196  12.560   0.932
28442SOL    HW287159   8.264  12.425   0.941
28443SOL     OW87160   4.457  13.268   1.526
28443SOL    HW187161   4.514  13.317   1.584
28443SOL    HW287162   4.370  13.304   1.541
28444SOL     OW87163   6.653  12.921  14.608
28444SOL    HW187164   6.684  12.836  14.640
28444SOL    HW287165   6.727  12.980  14.624
28445SOL     OW87166   1.909  12.566   2.016
28445SOL    HW187167   1.998  12.590   1.989
28445SOL    HW287168   1.866  12.540   1.935
28446SOL     OW87169  10.074  14.777  13.337
28446SOL    HW187170  10.066  14.871  13.325
28446SOL    HW287171  10.169  14.761  13.335
28447SOL     OW87172   0.999   6.572   0.522
28447SOL    HW187173   1.013   6.533   0.436
28447SOL    HW287174   0.913   6.613   0.517
28448SOL     OW87175   9.212  11.412   1.932
28448SOL    HW187176   9.122  11.433   1.905
28448SOL    HW287177   9.237  11.485   1.989
28449SOL     OW87178   0.962  11.153   9.543
28449SOL    HW187179   0.911  11.234   9.545
28449SOL    HW287180   1.029  11.169   9.476
28450SOL     OW87181   0.059   7.896  11.755
28450SOL    HW187182  14.852   7.934  11.792
28450SOL    HW287183   0.130   7.941  11.801
28451SOL     OW87184   6.533   8.680   4.994
28451SOL    HW187185   6.551   8.593   4.958
28451SOL    HW287186   6.607   8.733   4.967
28452SOL     OW87187  11.477   3.718   1.112
28452SOL    HW187188  11.537   3.791   1.126
28452SOL    HW287189  11.426   3.745   1.035
28453SOL     OW87190   0.853   8.374  13.941
28453SOL    HW187191   0.943   8.343  13.930
28453SOL    HW287192   0.825   8.397  13.852
28454SOL     OW87193   5.232  10.217  11.832
28454SOL    HW187194   5.298  10.235  11.766
28454SOL    HW287195   5.149  10.216  11.784
28455SOL     OW87196   4.031  12.857   2.169
28455SOL    HW187197   3.999  12.767   2.172
28455SOL    HW287198   3.959  12.909   2.205
28456SOL     OW87199   9.590   1.020  14.506
28456SOL    HW187200   9.502   0.992  14.530
28456SOL    HW287201   9.631   0.941  14.472
28457SOL     OW87202   9.251   0.970   1.767
28457SOL    HW187203   9.304   0.914   1.711
28457SOL    HW287204   9.217   1.038   1.709
28458SOL     OW87205   4.914   3.526  14.463
28458SOL    HW187206   4.870   3.493  14.384
28458SOL    HW287207   4.850   3.585  14.503
28459SOL     OW87208   0.749  11.449   6.406
28459SOL    HW187209   0.682  11.442   6.474
28459SOL    HW287210   0.700  11.446   6.323
28460SOL     OW87211   8.526   6.381   7.644
28460SOL    HW187212   8.542   6.452   7.706
28460SOL    HW287213   8.506   6.425   7.562
28461SOL     OW87214   3.322  14.122   9.625
28461SOL    HW187215   3.267  14.194   9.657
28461SOL    HW287216   3.314  14.054   9.692
28462SOL     OW87217  14.186   4.661   4.430
28462SOL    HW187218  14.099   4.641   4.395
28462SOL    HW287219  14.211   4.742   4.387
28463SOL     OW87220   4.805   1.439   6.293
28463SOL    HW187221   4.780   1.531   6.290
28463SOL    HW287222   4.872   1.434   6.362
28464SOL     OW87223   0.359   2.696  13.176
28464SOL    HW187224   0.397   2.729  13.095
28464SOL    HW287225   0.419   2.626  13.204
28465SOL     OW87226  10.796   6.150   7.243
28465SOL    HW187227  10.743   6.173   7.319
28465SOL    HW287228  10.732   6.137   7.172
28466SOL     OW87229   5.605  11.775   6.266
28466SOL    HW187230   5.559  11.748   6.347
28466SOL    HW287231   5.537  11.815   6.213
28467SOL     OW87232   7.765   2.478   5.622
28467SOL    HW187233   7.723   2.496   5.706
28467SOL    HW287234   7.835   2.543   5.616
28468SOL     OW87235   5.180   4.640   9.355
28468SOL    HW187236   5.114   4.708   9.367
28468SOL    HW287237   5.147   4.586   9.283
28469SOL     OW87238  12.614   5.613  12.384
28469SOL    HW187239  12.673   5.542  12.358
28469SOL    HW287240  12.528   5.571  12.394
28470SOL     OW87241   1.718  14.513   6.747
28470SOL    HW187242   1.807  14.480   6.740
28470SOL    HW287243   1.665  14.450   6.697
28471SOL     OW87244   6.024   7.048   2.953
28471SOL    HW187245   6.049   6.992   2.880
28471SOL    HW287246   6.106   7.072   2.996
28472SOL     OW87247   1.000   5.928  14.826
28472SOL    HW187248   1.057   5.881   0.015
28472SOL    HW287249   1.036   6.017  14.823
28473SOL     OW87250  13.662  10.048   2.107
28473SOL    HW187251  13.702   9.994   2.175
28473SOL    HW287252  13.621   9.985   2.047
28474SOL     OW87253   9.268   4.093   3.696
28474SOL    HW187254   9.345   4.045   3.665
28474SOL    HW287255   9.210   4.026   3.732
28475SOL     OW87256   6.279  10.584   6.745
28475SOL    HW187257   6.234  10.668   6.733
28475SOL    HW287258   6.215  10.529   6.791
28476SOL     OW87259   3.302   9.988   3.639
28476SOL    HW187260   3.266   9.973   3.727
28476SOL    HW287261   3.315   9.900   3.604
28477SOL     OW87262  11.122  11.953   0.171
28477SOL    HW187263  11.210  11.991   0.163
28477SOL    HW287264  11.105  11.955   0.265
28478SOL     OW87265   0.536   0.290  14.298
28478SOL    HW187266   0.542   0.356  14.228
28478SOL    HW287267   0.443   0.289  14.321
28479SOL     OW87268   1.120  13.185   0.182
28479SOL    HW187269   1.032  13.160   0.211
28479SOL    HW287270   1.178  13.151   0.251
28480SOL     OW87271   6.953   6.678   8.666
28480SOL    HW187272   7.005   6.675   8.586
28480SOL    HW287273   6.934   6.586   8.685
28481SOL     OW87274  10.423  12.628   9.201
28481SOL    HW187275  10.509  12.604   9.166
28481SOL    HW287276  10.438  12.639   9.295
28482SOL     OW87277   3.282   7.140   2.130
28482SOL    HW187278   3.225   7.149   2.207
28482SOL    HW287279   3.316   7.228   2.114
28483SOL     OW87280   7.693   2.678   0.537
28483SOL    HW187281   7.747   2.731   0.596
28483SOL    HW287282   7.715   2.709   0.450
28484SOL     OW87283   0.077   5.160   9.329
28484SOL    HW187284   0.078   5.067   9.353
28484SOL    HW287285   0.164   5.175   9.292
28485SOL     OW87286   8.273   9.442  13.320
28485SOL    HW187287   8.269   9.370  13.257
28485SOL    HW287288   8.366   9.450  13.342
28486SOL     OW87289   1.451  12.122  12.631
28486SOL    HW187290   1.375  12.109  12.575
28486SOL    HW287291   1.524  12.135  12.570
28487SOL     OW87292   1.654   3.857   7.637
28487SOL    HW187293   1.680   3.949   7.645
28487SOL    HW287294   1.607   3.853   7.553
28488SOL     OW87295  12.581   8.957  10.281
28488SOL    HW187296  12.620   9.042  10.298
28488SOL    HW287297  12.641   8.894  10.322
28489SOL     OW87298  10.000   0.341  10.795
28489SOL    HW187299  10.034   0.421  10.836
28489SOL    HW287300   9.969   0.288  10.868
28490SOL     OW87301   0.839   8.763  11.506
28490SOL    HW187302   0.839   8.688  11.446
28490SOL    HW287303   0.888   8.831  11.458
28491SOL     OW87304   5.626   5.656   0.538
28491SOL    HW187305   5.598   5.731   0.591
28491SOL    HW287306   5.572   5.660   0.459
28492SOL     OW87307   6.060   2.155   8.772
28492SOL    HW187308   6.077   2.248   8.782
28492SOL    HW287309   5.965   2.149   8.759
28493SOL     OW87310   3.154   7.138  10.273
28493SOL    HW187311   3.085   7.072  10.268
28493SOL    HW287312   3.108   7.221  10.276
28494SOL     OW87313  14.102   8.379   2.802
28494SOL    HW187314  14.085   8.411   2.891
28494SOL    HW287315  14.181   8.426   2.775
28495SOL     OW87316   4.702   2.792  12.753
28495SOL    HW187317   4.667   2.792  12.842
28495SOL    HW287318   4.643   2.851  12.705
28496SOL     OW87319   3.867   6.096   2.986
28496SOL    HW187320   3.776   6.066   2.983
28496SOL    HW287321   3.875   6.142   3.069
28497SOL     OW87322   9.558   7.122  10.949
28497SOL    HW187323   9.528   7.105  10.860
28497SOL    HW287324   9.644   7.080  10.954
28498SOL     OW87325   0.518   9.492   5.079
28498SOL    HW187326   0.575   9.538   5.017
28498SOL    HW287327   0.559   9.407   5.091
28499SOL     OW87328  11.454   4.320   5.073
28499SOL    HW187329  11.520   4.269   5.120
28499SOL    HW287330  11.484   4.411   5.080
28500SOL     OW87331   9.467  11.734  12.904
28500SOL    HW187332   9.511  11.791  12.968
28500SOL    HW287333   9.495  11.646  12.930
28501SOL     OW87334   7.736   1.882   8.679
28501SOL    HW187335   7.739   1.836   8.763
28501SOL    HW287336   7.652   1.927   8.679
28502SOL     OW87337  11.357   1.485   8.192
28502SOL    HW187338  11.328   1.559   8.139
28502SOL    HW287339  11.350   1.410   8.133
28503SOL     OW87340   0.888   2.689   0.035
28503SOL    HW187341   0.801   2.726   0.045
28503SOL    HW287342   0.892   2.618   0.099
28504SOL     OW87343  14.643   2.952   0.702
28504SOL    HW187344  14.694   2.883   0.660
28504SOL    HW287345  14.574   2.973   0.639
28505SOL     OW87346   0.912  11.323  12.789
28505SOL    HW187347   0.944  11.316  12.879
28505SOL    HW287348   0.818  11.339  12.798
28506SOL     OW87349   2.551  13.013   7.157
28506SOL    HW187350   2.570  12.940   7.097
28506SOL    HW287351   2.611  13.000   7.230
28507SOL     OW87352   2.794   3.246   7.982
28507SOL    HW187353   2.814   3.153   7.982
28507SOL    HW287354   2.832   3.279   8.063
28508SOL     OW87355  14.772   5.073   3.029
28508SOL    HW187356  14.813   5.112   2.952
28508SOL    HW287357  14.843   5.027   3.073
28509SOL     OW87358   1.770   8.738   9.485
28509SOL    HW187359   1.813   8.674   9.427
28509SOL    HW287360   1.737   8.685   9.558
28510SOL     OW87361   8.851  10.562  11.176
28510SOL    HW187362   8.812  10.597  11.096
28510SOL    HW287363   8.776  10.527  11.225
28511SOL     OW87364  13.911   1.893   3.684
28511SOL    HW187365  13.870   1.820   3.730
28511SOL    HW287366  13.964   1.851   3.616
28512SOL     OW87367  14.022  13.020   4.707
28512SOL    HW187368  14.022  12.971   4.625
28512SOL    HW287369  13.958  12.974   4.762
28513SOL     OW87370  13.800   0.866  12.297
28513SOL    HW187371  13.712   0.894  12.271
28513SOL    HW287372  13.791   0.771  12.310
28514SOL     OW87373   7.494  13.163   0.241
28514SOL    HW187374   7.457  13.240   0.197
28514SOL    HW287375   7.466  13.089   0.187
28515SOL     OW87376   0.487   3.668   4.301
28515SOL    HW187377   0.517   3.750   4.262
28515SOL    HW287378   0.424   3.633   4.238
28516SOL     OW87379   3.630  11.640  10.685
28516SOL    HW187380   3.621  11.735  10.675
28516SOL    HW287381   3.574  11.618  10.759
28517SOL     OW87382  14.074  10.085   8.670
28517SOL    HW187383  14.156  10.134   8.672
28517SOL    HW287384  14.078  10.028   8.747
28518SOL     OW87385   4.278   7.385  10.267
28518SOL    HW187386   4.254   7.435  10.189
28518SOL    HW287387   4.267   7.293  10.241
28519SOL     OW87388   7.245   4.642   5.400
28519SOL    HW187389   7.268   4.714   5.341
28519SOL    HW287390   7.155   4.661   5.426
28520SOL     OW87391  12.836   8.523   1.122
28520SOL    HW187392  12.794   8.512   1.207
28520SOL    HW287393  12.825   8.439   1.079
28521SOL     OW87394   3.357  14.197  14.633
28521SOL    HW187395   3.413  14.221  14.707
28521SOL    HW287396   3.392  14.113  14.603
28522SOL     OW87397   6.672   0.500   3.650
28522SOL    HW187398   6.682   0.590   3.621
28522SOL    HW287399   6.594   0.500   3.705
28523SOL     OW87400   2.721   2.851   5.254
28523SOL    HW187401   2.702   2.828   5.345
28523SOL    HW287402   2.674   2.785   5.203
28524SOL     OW87403  12.237  13.208   6.018
28524SOL    HW187404  12.311  13.148   6.019
28524SOL    HW287405  12.178  13.174   6.085
28525SOL     OW87406  10.755  14.337   5.651
28525SOL    HW187407  10.721  14.278   5.584
28525SOL    HW287408  10.820  14.285   5.698
28526SOL     OW87409   1.639  13.472   1.862
28526SOL    HW187410   1.616  13.408   1.795
28526SOL    HW287411   1.702  13.530   1.818
28527SOL     OW87412   4.416   7.900   7.135
28527SOL    HW187413   4.421   7.915   7.041
28527SOL    HW287414   4.411   7.805   7.144
28528SOL     OW87415   3.499   9.906  13.465
28528SOL    HW187416   3.449   9.987  13.451
28528SOL    HW287417   3.567   9.931  13.528
28529SOL     OW87418  14.698   7.751   7.184
28529SOL    HW187419  14.694   7.842   7.155
28529SOL    HW287420  14.774   7.747   7.243
28530SOL     OW87421   3.872   1.893  10.004
28530SOL    HW187422   3.865   1.969  10.061
28530SOL    HW287423   3.948   1.911   9.949
28531SOL     OW87424   1.623  12.289   1.660
28531SOL    HW187425   1.625  12.384   1.644
28531SOL    HW287426   1.569  12.254   1.588
28532SOL     OW87427   0.627   0.084   0.769
28532SOL    HW187428   0.533   0.081   0.781
28532SOL    HW287429   0.660   0.133   0.845
28533SOL     OW87430  12.695   7.249   6.652
28533SOL    HW187431  12.664   7.312   6.588
28533SOL    HW287432  12.624   7.185   6.660
28534SOL     OW87433   8.001  13.183   5.064
28534SOL    HW187434   8.057  13.113   5.097
28534SOL    HW287435   8.031  13.197   4.974
28535SOL     OW87436  10.354  12.862  14.448
28535SOL    HW187437  10.303  12.917  14.508
28535SOL    HW287438  10.322  12.886  14.361
28536SOL     OW87439   1.512   4.660   7.568
28536SOL    HW187440   1.567   4.704   7.502
28536SOL    HW287441   1.424   4.695   7.552
28537SOL     OW87442  13.395  10.589   2.471
28537SOL    HW187443  13.490  10.599   2.486
28537SOL    HW287444  13.388  10.555   2.382
28538SOL     OW87445  12.642   2.960   0.698
28538SOL    HW187446  12.640   2.891   0.764
28538SOL    HW287447  12.686   3.033   0.742
28539SOL     OW87448   6.292  13.016   6.023
28539SOL    HW187449   6.339  13.087   6.067
28539SOL    HW287450   6.200  13.038   6.032
28540SOL     OW87451  13.119   9.535   2.201
28540SOL    HW187452  13.129   9.442   2.182
28540SOL    HW287453  13.209   9.567   2.210
28541SOL     OW87454   4.355   8.100   7.829
28541SOL    HW187455   4.373   8.184   7.871
28541SOL    HW287456   4.427   8.089   7.767
28542SOL     OW87457   3.033  12.685   8.871
28542SOL    HW187458   3.012  12.774   8.841
28542SOL    HW287459   3.123  12.670   8.841
28543SOL     OW87460  10.144  14.428   2.780
28543SOL    HW187461  10.215  14.474   2.824
28543SOL    HW287462  10.121  14.356   2.839
28544SOL     OW87463  12.889  13.242  12.487
28544SOL    HW187464  12.878  13.328  12.446
28544SOL    HW287465  12.801  13.212  12.506
28545SOL     OW87466   9.404   8.536  11.170
28545SOL    HW187467   9.316   8.499  11.178
28545SOL    HW287468   9.441   8.529  11.258
28546SOL     OW87469   7.305   1.873   4.737
28546SOL    HW187470   7.340   1.907   4.654
28546SOL    HW287471   7.326   1.941   4.801
28547SOL     OW87472   4.460   5.382   2.308
28547SOL    HW187473   4.468   5.288   2.325
28547SOL    HW287474   4.453   5.421   2.395
28548SOL     OW87475   4.762  11.968  11.477
28548SOL    HW187476   4.767  12.026  11.401
28548SOL    HW287477   4.723  11.887  11.442
28549SOL     OW87478   4.628  10.230   8.444
28549SOL    HW187479   4.552  10.177   8.421
28549SOL    HW287480   4.702  10.185   8.405
28550SOL     OW87481   8.683   2.860   4.267
28550SOL    HW187482   8.668   2.767   4.247
28550SOL    HW287483   8.621   2.907   4.211
28551SOL     OW87484  12.024   6.379   1.596
28551SOL    HW187485  12.043   6.311   1.661
28551SOL    HW287486  12.011   6.459   1.648
28552SOL     OW87487   2.802   8.284   9.926
28552SOL    HW187488   2.896   8.287   9.909
28552SOL    HW287489   2.794   8.236  10.008
28553SOL     OW87490   3.264   4.665   3.260
28553SOL    HW187491   3.338   4.717   3.293
28553SOL    HW287492   3.241   4.607   3.332
28554SOL     OW87493  11.537  11.163   8.378
28554SOL    HW187494  11.481  11.125   8.310
28554SOL    HW287495  11.499  11.250   8.394
28555SOL     OW87496   5.653  10.976   3.691
28555SOL    HW187497   5.594  10.959   3.616
28555SOL    HW287498   5.740  10.957   3.657
28556SOL     OW87499   2.761   6.829  12.388
28556SOL    HW187500   2.777   6.878  12.469
28556SOL    HW287501   2.744   6.896  12.322
28557SOL     OW87502   4.871  10.939   3.873
28557SOL    HW187503   4.901  10.855   3.838
28557SOL    HW287504   4.899  10.939   3.964
28558SOL     OW87505   9.025  13.115   8.376
28558SOL    HW187506   9.065  13.180   8.318
28558SOL    HW287507   8.938  13.151   8.395
28559SOL     OW87508  11.573  10.144   3.380
28559SOL    HW187509  11.482  10.158   3.406
28559SOL    HW287510  11.623  10.147   3.461
28560SOL     OW87511  14.305   0.078   9.748
28560SOL    HW187512  14.295   0.051   9.839
28560SOL    HW287513  14.240   0.147   9.737
28561SOL     OW87514   4.470   8.964  12.482
28561SOL    HW187515   4.488   8.945  12.390
28561SOL    HW287516   4.531   8.908  12.530
28562SOL     OW87517   2.133  14.002   1.650
28562SOL    HW187518   2.201  13.940   1.624
28562SOL    HW287519   2.052  13.966   1.612
28563SOL     OW87520   4.721   0.952   4.069
28563SOL    HW187521   4.657   0.996   4.124
28563SOL    HW287522   4.713   0.859   4.091
28564SOL     OW87523   3.481   8.383   5.949
28564SOL    HW187524   3.431   8.394   6.030
28564SOL    HW287525   3.459   8.294   5.919
28565SOL     OW87526  11.055   9.436   3.858
28565SOL    HW187527  10.985   9.419   3.796
28565SOL    HW287528  11.059   9.532   3.865
28566SOL     OW87529  14.681   8.660   2.444
28566SOL    HW187530  14.759   8.650   2.390
28566SOL    HW287531  14.714   8.685   2.530
28567SOL     OW87532   4.434   1.658  10.703
28567SOL    HW187533   4.424   1.708  10.622
28567SOL    HW287534   4.523   1.623  10.698
28568SOL     OW87535   2.164   3.149   9.420
28568SOL    HW187536   2.115   3.112   9.347
28568SOL    HW287537   2.183   3.239   9.393
28569SOL     OW87538  13.247   9.990  10.121
28569SOL    HW187539  13.336  10.001  10.156
28569SOL    HW287540  13.198  10.065  10.155
28570SOL     OW87541   8.852   6.847  13.867
28570SOL    HW187542   8.941   6.812  13.873
28570SOL    HW287543   8.830   6.872  13.956
28571SOL     OW87544   0.963   4.538   3.640
28571SOL    HW187545   0.929   4.457   3.679
28571SOL    HW287546   0.991   4.591   3.715
28572SOL     OW87547   8.694  14.111  10.446
28572SOL    HW187548   8.730  14.111  10.358
28572SOL    HW287549   8.677  14.019  10.466
28573SOL     OW87550  13.994   7.932   5.435
28573SOL    HW187551  14.028   7.995   5.499
28573SOL    HW287552  13.997   7.979   5.352
28574SOL     OW87553  12.169   7.299   5.267
28574SOL    HW187554  12.260   7.271   5.264
28574SOL    HW287555  12.167   7.380   5.217
28575SOL     OW87556   6.757   9.868   2.130
28575SOL    HW187557   6.689   9.934   2.145
28575SOL    HW287558   6.765   9.863   2.035
28576SOL     OW87559  11.671   0.576  11.690
28576SOL    HW187560  11.706   0.487  11.701
28576SOL    HW287561  11.654   0.606  11.780
28577SOL     OW87562   1.673   2.203   9.859
28577SOL    HW187563   1.740   2.269   9.877
28577SOL    HW287564   1.689   2.133   9.922
28578SOL     OW87565   6.469   2.003   7.406
28578SOL    HW187566   6.410   1.928   7.402
28578SOL    HW287567   6.419   2.075   7.367
28579SOL     OW87568   4.581  13.089   7.207
28579SOL    HW187569   4.659  13.035   7.219
28579SOL    HW287570   4.532  13.079   7.289
28580SOL     OW87571  10.114   5.947   2.400
28580SOL    HW187572  10.040   5.903   2.357
28580SOL    HW287573  10.134   5.890   2.474
28581SOL     OW87574  11.613  11.907   2.653
28581SOL    HW187575  11.568  11.881   2.572
28581SOL    HW287576  11.614  11.828   2.707
28582SOL     OW87577   2.304   6.084  14.151
28582SOL    HW187578   2.393   6.081  14.185
28582SOL    HW287579   2.314   6.090  14.056
28583SOL     OW87580   9.190   8.375   9.490
28583SOL    HW187581   9.256   8.306   9.501
28583SOL    HW287582   9.197   8.400   9.397
28584SOL     OW87583   4.282   6.839   2.495
28584SOL    HW187584   4.373   6.866   2.482
28584SOL    HW287585   4.283   6.788   2.576
28585SOL     OW87586   8.036   1.042  10.479
28585SOL    HW187587   8.123   1.024  10.514
28585SOL    HW287588   8.039   1.134  10.451
28586SOL     OW87589   8.866   9.512   8.814
28586SOL    HW187590   8.883   9.423   8.845
28586SOL    HW287591   8.850   9.501   8.720
28587SOL     OW87592   3.676   2.451   1.798
28587SOL    HW187593   3.738   2.491   1.736
28587SOL    HW287594   3.730   2.429   1.874
28588SOL     OW87595   5.242  14.177   3.410
28588SOL    HW187596   5.190  14.179   3.330
28588SOL    HW287597   5.333  14.179   3.380
28589SOL     OW87598  11.740   5.041  10.542
28589SOL    HW187599  11.717   5.092  10.464
28589SOL    HW287600  11.768   4.956  10.507
28590SOL     OW87601  10.944   6.314   2.496
28590SOL    HW187602  10.910   6.403   2.495
28590SOL    HW287603  10.992   6.308   2.579
28591SOL     OW87604  10.179  13.045   7.339
28591SOL    HW187605  10.272  13.059   7.319
28591SOL    HW287606  10.171  12.951   7.351
28592SOL     OW87607   3.544   3.145   3.438
28592SOL    HW187608   3.584   3.218   3.485
28592SOL    HW287609   3.452   3.145   3.467
28593SOL     OW87610   8.558  13.926  12.033
28593SOL    HW187611   8.577  14.019  12.044
28593SOL    HW287612   8.515  13.901  12.114
28594SOL     OW87613  12.044   7.233   7.818
28594SOL    HW187614  12.029   7.174   7.891
28594SOL    HW287615  12.126   7.203   7.779
28595SOL     OW87616   4.726  13.837   2.101
28595SOL    HW187617   4.765  13.882   2.176
28595SOL    HW287618   4.706  13.907   2.038
28596SOL     OW87619  11.228   4.253   0.781
28596SOL    HW187620  11.205   4.335   0.826
28596SOL    HW287621  11.313   4.229   0.818
28597SOL     OW87622  14.053  10.066   5.008
28597SOL    HW187623  14.099  10.113   5.078
28597SOL    HW287624  14.081  10.110   4.928
28598SOL     OW87625   7.685   1.063  10.421
28598SOL    HW187626   7.606   1.012  10.441
28598SOL    HW287627   7.714   1.097  10.506
28599SOL     OW87628   2.952   6.205   9.929
28599SOL    HW187629   2.996   6.288   9.913
28599SOL    HW287630   3.022   6.147   9.961
28600SOL     OW87631   9.284   4.544   9.046
28600SOL    HW187632   9.237   4.465   9.074
28600SOL    HW287633   9.309   4.587   9.128
28601SOL     OW87634   0.174  14.273   3.683
28601SOL    HW187635   0.169  14.274   3.778
28601SOL    HW287636   0.089  14.304   3.654
28602SOL     OW87637  14.365  13.173   3.353
28602SOL    HW187638  14.323  13.258   3.366
28602SOL    HW287639  14.319  13.135   3.279
28603SOL     OW87640   3.536   1.185  10.932
28603SOL    HW187641   3.573   1.271  10.913
28603SOL    HW287642   3.442   1.199  10.936
28604SOL     OW87643   2.388  10.942   7.693
28604SOL    HW187644   2.424  10.864   7.651
28604SOL    HW287645   2.431  11.015   7.648
28605SOL     OW87646  11.631   9.346   9.733
28605SOL    HW187647  11.555   9.389   9.771
28605SOL    HW287648  11.595   9.294   9.661
28606SOL     OW87649   4.769   6.415   0.744
28606SOL    HW187650   4.737   6.481   0.806
28606SOL    HW287651   4.795   6.465   0.667
28607SOL     OW87652   9.653   1.400   6.815
28607SOL    HW187653   9.632   1.468   6.879
28607SOL    HW287654   9.670   1.447   6.734
28608SOL     OW87655   1.847   3.960   0.755
28608SOL    HW187656   1.895   3.907   0.818
28608SOL    HW287657   1.761   3.919   0.748
28609SOL     OW87658   8.115   9.831  10.198
28609SOL    HW187659   8.049   9.860  10.261
28609SOL    HW287660   8.192   9.885  10.218
28610SOL     OW87661   4.683  10.464  13.703
28610SOL    HW187662   4.627  10.392  13.734
28610SOL    HW287663   4.771  10.426  13.700
28611SOL     OW87664  11.545   7.904   1.353
28611SOL    HW187665  11.570   7.981   1.403
28611SOL    HW287666  11.449   7.906   1.353
28612SOL     OW87667   9.364  12.046   2.679
28612SOL    HW187668   9.316  12.032   2.761
28612SOL    HW287669   9.413  12.127   2.693
28613SOL     OW87670   8.447  14.387   1.765
28613SOL    HW187671   8.426  14.341   1.846
28613SOL    HW287672   8.462  14.478   1.792
28614SOL     OW87673  11.347   7.729   4.994
28614SOL    HW187674  11.272   7.677   4.964
28614SOL    HW287675  11.336   7.814   4.951
28615SOL     OW87676   0.824   5.660   5.090
28615SOL    HW187677   0.792   5.571   5.104
28615SOL    HW287678   0.912   5.648   5.053
28616SOL     OW87679   2.537  11.618   3.823
28616SOL    HW187680   2.544  11.671   3.902
28616SOL    HW287681   2.628  11.592   3.804
28617SOL     OW87682   2.355  14.218   8.641
28617SOL    HW187683   2.300  14.243   8.716
28617SOL    HW287684   2.301  14.156   8.591
28618SOL     OW87685   4.621  10.694   4.543
28618SOL    HW187686   4.560  10.665   4.475
28618SOL    HW287687   4.668  10.615   4.569
28619SOL     OW87688  11.020  10.512  13.095
28619SOL    HW187689  10.955  10.565  13.049
28619SOL    HW287690  10.987  10.506  13.185
28620SOL     OW87691   0.337   1.893   1.112
28620SOL    HW187692   0.259   1.838   1.106
28620SOL    HW287693   0.331   1.951   1.035
28621SOL     OW87694   4.469   7.828   3.241
28621SOL    HW187695   4.415   7.875   3.305
28621SOL    HW287696   4.481   7.890   3.169
28622SOL     OW87697   6.797  12.101   8.042
28622SOL    HW187698   6.824  12.102   7.950
28622SOL    HW287699   6.726  12.166   8.046
28623SOL     OW87700   7.767  10.231  14.748
28623SOL    HW187701   7.861  10.241  14.765
28623SOL    HW287702   7.745  10.145  14.785
28624SOL     OW87703  10.983   8.971  14.419
28624SOL    HW187704  10.945   8.911  14.482
28624SOL    HW287705  10.912   8.993  14.359
28625SOL     OW87706  12.281   4.132   1.765
28625SOL    HW187707  12.245   4.046   1.746
28625SOL    HW287708  12.376   4.121   1.757
28626SOL     OW87709   5.888   4.536   7.248
28626SOL    HW187710   5.809   4.568   7.203
28626SOL    HW287711   5.886   4.581   7.333
28627SOL     OW87712   8.763  10.597  12.673
28627SOL    HW187713   8.828  10.564  12.736
28627SOL    HW287714   8.760  10.692  12.689
28628SOL     OW87715   6.858   8.672  14.591
28628SOL    HW187716   6.880   8.726  14.515
28628SOL    HW287717   6.921   8.700  14.658
28629SOL     OW87718  12.815   0.179   1.013
28629SOL    HW187719  12.828   0.175   0.919
28629SOL    HW287720  12.900   0.158   1.051
28630SOL     OW87721  14.406   5.132  12.704
28630SOL    HW187722  14.352   5.154  12.780
28630SOL    HW287723  14.469   5.068  12.737
28631SOL     OW87724   2.128   6.843   1.045
28631SOL    HW187725   2.212   6.802   1.024
28631SOL    HW287726   2.128   6.852   1.141
28632SOL     OW87727   2.634   7.689   5.729
28632SOL    HW187728   2.656   7.608   5.776
28632SOL    HW287729   2.686   7.757   5.772
28633SOL     OW87730  11.719   4.356  14.351
28633SOL    HW187731  11.711   4.438  14.399
28633SOL    HW287732  11.633   4.315  14.360
28634SOL     OW87733   9.140  12.392  13.119
28634SOL    HW187734   9.158  12.308  13.077
28634SOL    HW287735   9.226  12.432  13.130
28635SOL     OW87736   6.667   9.663   0.195
28635SOL    HW187737   6.748   9.645   0.146
28635SOL    HW287738   6.654   9.757   0.184
28636SOL     OW87739   6.382   6.912  11.875
28636SOL    HW187740   6.327   6.836  11.897
28636SOL    HW287741   6.321   6.985  11.870
28637SOL     OW87742   2.289   5.165  12.899
28637SOL    HW187743   2.377   5.152  12.863
28637SOL    HW287744   2.304   5.182  12.992
28638SOL     OW87745  14.538   1.757   3.407
28638SOL    HW187746  14.467   1.713   3.454
28638SOL    HW287747  14.585   1.805   3.474
28639SOL     OW87748   0.642   0.791   8.507
28639SOL    HW187749   0.598   0.858   8.454
28639SOL    HW287750   0.593   0.711   8.490
28640SOL     OW87751  11.239  14.043  11.162
28640SOL    HW187752  11.199  14.005  11.240
28640SOL    HW287753  11.288  14.119  11.195
28641SOL     OW87754  10.398   2.435   8.285
28641SOL    HW187755  10.341   2.510   8.299
28641SOL    HW287756  10.352   2.361   8.324
28642SOL     OW87757   5.800   9.234   2.521
28642SOL    HW187758   5.884   9.241   2.477
28642SOL    HW287759   5.737   9.217   2.451
28643SOL     OW87760   3.494  11.602   0.159
28643SOL    HW187761   3.474  11.587   0.067
28643SOL    HW287762   3.587  11.625   0.160
28644SOL     OW87763   0.137   7.665   9.093
28644SOL    HW187764   0.203   7.596   9.097
28644SOL    HW287765   0.109   7.667   9.002
28645SOL     OW87766   3.204   6.354   9.364
28645SOL    HW187767   3.239   6.379   9.449
28645SOL    HW287768   3.144   6.282   9.382
28646SOL     OW87769  12.125   8.712   9.177
28646SOL    HW187770  12.163   8.756   9.253
28646SOL    HW287771  12.197   8.661   9.140
28647SOL     OW87772   1.430  12.263   2.589
28647SOL    HW187773   1.405  12.172   2.574
28647SOL    HW287774   1.443  12.269   2.683
28648SOL     OW87775   3.331   8.553  14.853
28648SOL    HW187776   3.365   8.465  14.867
28648SOL    HW287777   3.405   8.602  14.817
28649SOL     OW87778   5.382   1.554   1.029
28649SOL    HW187779   5.408   1.469   1.063
28649SOL    HW287780   5.464   1.597   1.006
28650SOL     OW87781   3.063   7.351   9.196
28650SOL    HW187782   3.024   7.264   9.190
28650SOL    HW287783   3.131   7.343   9.263
28651SOL     OW87784   7.213   3.943   1.290
28651SOL    HW187785   7.236   3.978   1.203
28651SOL    HW287786   7.298   3.923   1.331
28652SOL     OW87787  11.041   7.131   2.896
28652SOL    HW187788  11.103   7.199   2.923
28652SOL    HW287789  10.955   7.169   2.914
28653SOL     OW87790  11.870  11.968  13.104
28653SOL    HW187791  11.877  12.014  13.188
28653SOL    HW287792  11.818  11.890  13.125
28654SOL     OW87793  10.363  12.375  10.170
28654SOL    HW187794  10.291  12.436  10.184
28654SOL    HW287795  10.356  12.350  10.078
28655SOL     OW87796   2.682   7.510   7.965
28655SOL    HW187797   2.626   7.462   8.027
28655SOL    HW287798   2.629   7.586   7.940
28656SOL     OW87799   7.207  12.441   9.507
28656SOL    HW187800   7.125  12.483   9.534
28656SOL    HW287801   7.179  12.356   9.472
28657SOL     OW87802   1.558   0.266   3.968
28657SOL    HW187803   1.640   0.269   4.017
28657SOL    HW287804   1.491   0.289   4.033
28658SOL     OW87805   2.351   3.385  13.346
28658SOL    HW187806   2.351   3.311  13.408
28658SOL    HW287807   2.444   3.396  13.324
28659SOL     OW87808   1.069  13.853  13.611
28659SOL    HW187809   1.159  13.827  13.591
28659SOL    HW287810   1.017  13.774  13.598
28660SOL     OW87811   0.630   7.834  11.885
28660SOL    HW187812   0.665   7.905  11.939
28660SOL    HW287813   0.653   7.754  11.932
28661SOL     OW87814  14.866   8.183   9.911
28661SOL    HW187815   0.070   8.219   9.865
28661SOL    HW287816   0.030   8.143   9.990
28662SOL     OW87817   5.268  10.886   4.272
28662SOL    HW187818   5.294  10.878   4.364
28662SOL    HW287819   5.343  10.851   4.223
28663SOL     OW87820  12.915   2.003  12.124
28663SOL    HW187821  12.962   2.086  12.124
28663SOL    HW287822  12.962   1.949  12.061
28664SOL     OW87823   3.889   8.486   8.340
28664SOL    HW187824   3.910   8.545   8.267
28664SOL    HW287825   3.794   8.473   8.334
28665SOL     OW87826   4.443   9.906   2.201
28665SOL    HW187827   4.439   9.865   2.287
28665SOL    HW287828   4.399   9.844   2.143
28666SOL     OW87829   0.868   5.387  11.128
28666SOL    HW187830   0.840   5.421  11.043
28666SOL    HW287831   0.792   5.398  11.185
28667SOL     OW87832   7.196  12.326   8.434
28667SOL    HW187833   7.177  12.394   8.499
28667SOL    HW287834   7.132  12.257   8.452
28668SOL     OW87835   2.898   8.649   8.349
28668SOL    HW187836   2.991   8.630   8.336
28668SOL    HW287837   2.897   8.727   8.405
28669SOL     OW87838   2.089   4.243   7.280
28669SOL    HW187839   2.001   4.267   7.251
28669SOL    HW287840   2.123   4.186   7.210
28670SOL     OW87841   4.029   3.492   6.868
28670SOL    HW187842   4.013   3.584   6.843
28670SOL    HW287843   4.099   3.464   6.808
28671SOL     OW87844  13.675   9.482  12.296
28671SOL    HW187845  13.636   9.485  12.208
28671SOL    HW287846  13.765   9.451  12.281
28672SOL     OW87847  14.676  13.227   3.347
28672SOL    HW187848  14.616  13.202   3.417
28672SOL    HW287849  14.762  13.232   3.390
28673SOL     OW87850   1.907   7.270   4.511
28673SOL    HW187851   1.844   7.212   4.554
28673SOL    HW287852   1.943   7.324   4.581
28674SOL     OW87853   0.845  12.798   3.315
28674SOL    HW187854   0.795  12.810   3.235
28674SOL    HW287855   0.800  12.728   3.362
28675SOL     OW87856   1.644   1.898   2.668
28675SOL    HW187857   1.551   1.918   2.675
28675SOL    HW287858   1.656   1.869   2.577
28676SOL     OW87859   0.023  14.866  11.547
28676SOL    HW187860   0.089  14.818  11.597
28676SOL    HW287861  14.827   0.015  11.612
28677SOL     OW87862   0.633   7.993  14.075
28677SOL    HW187863   0.613   8.005  13.982
28677SOL    HW287864   0.662   8.079  14.105
28678SOL     OW87865   4.406   5.811  13.531
28678SOL    HW187866   4.429   5.861  13.609
28678SOL    HW287867   4.429   5.868  13.458
28679SOL     OW87868  13.456   2.951   3.191
28679SOL    HW187869  13.471   2.865   3.229
28679SOL    HW287870  13.400   2.935   3.115
28680SOL     OW87871   9.708   9.417  14.348
28680SOL    HW187872   9.699   9.372  14.432
28680SOL    HW287873   9.786   9.378  14.308
28681SOL     OW87874  14.351   3.317   9.902
28681SOL    HW187875  14.428   3.264   9.881
28681SOL    HW287876  14.277   3.269   9.865
28682SOL     OW87877   1.715  11.848  12.150
28682SOL    HW187878   1.642  11.835  12.210
28682SOL    HW287879   1.744  11.760  12.127
28683SOL     OW87880   4.885  13.811   4.717
28683SOL    HW187881   4.867  13.770   4.632
28683SOL    HW287882   4.841  13.754   4.780
28684SOL     OW87883   2.560   9.492   8.632
28684SOL    HW187884   2.513   9.534   8.560
28684SOL    HW287885   2.622   9.558   8.662
28685SOL     OW87886   9.521  11.191  13.369
28685SOL    HW187887   9.478  11.261  13.418
28685SOL    HW287888   9.580  11.236  13.308
28686SOL     OW87889  11.302   0.903   8.271
28686SOL    HW187890  11.334   0.899   8.181
28686SOL    HW287891  11.362   0.964   8.314
28687SOL     OW87892  13.640   6.590  11.267
28687SOL    HW187893  13.657   6.658  11.202
28687SOL    HW287894  13.572   6.626  11.323
28688SOL     OW87895  11.881  14.112   4.698
28688SOL    HW187896  11.939  14.036   4.705
28688SOL    HW287897  11.833  14.112   4.780
28689SOL     OW87898   5.629   4.018   3.333
28689SOL    HW187899   5.660   4.092   3.281
28689SOL    HW287900   5.546   3.994   3.294
28690SOL     OW87901  13.169   9.085   2.729
28690SOL    HW187902  13.088   9.110   2.774
28690SOL    HW287903  13.142   9.015   2.670
28691SOL     OW87904   7.753   5.411   4.703
28691SOL    HW187905   7.794   5.326   4.718
28691SOL    HW287906   7.804   5.449   4.631
28692SOL     OW87907   0.015  10.178  10.670
28692SOL    HW187908  14.824  10.191  10.600
28692SOL    HW287909  14.835  10.143  10.743
28693SOL     OW87910   4.891   8.536   7.168
28693SOL    HW187911   4.893   8.469   7.236
28693SOL    HW287912   4.800   8.563   7.164
28694SOL     OW87913  14.814   1.455   8.850
28694SOL    HW187914  14.848   1.368   8.828
28694SOL    HW287915  14.866   1.515   8.796
28695SOL     OW87916   3.814  14.245   3.380
28695SOL    HW187917   3.852  14.241   3.468
28695SOL    HW287918   3.721  14.260   3.395
28696SOL     OW87919   8.718  10.794   6.000
28696SOL    HW187920   8.744  10.773   5.910
28696SOL    HW287921   8.743  10.885   6.011
28697SOL     OW87922   8.642   0.466   3.955
28697SOL    HW187923   8.609   0.416   4.029
28697SOL    HW287924   8.698   0.405   3.907
28698SOL     OW87925   6.655   2.517   3.295
28698SOL    HW187926   6.684   2.590   3.242
28698SOL    HW287927   6.642   2.445   3.233
28699SOL     OW87928   0.006   8.995   8.613
28699SOL    HW187929   0.080   8.953   8.658
28699SOL    HW287930  14.811   8.928   8.609
28700SOL     OW87931   1.575   4.807   6.240
28700SOL    HW187932   1.604   4.859   6.165
28700SOL    HW287933   1.551   4.871   6.306
28701SOL     OW87934   3.127   4.326   0.137
28701SOL    HW187935   3.042   4.291   0.165
28701SOL    HW287936   3.118   4.421   0.150
28702SOL     OW87937   3.577   5.156   3.205
28702SOL    HW187938   3.598   5.241   3.166
28702SOL    HW287939   3.497   5.171   3.254
28703SOL     OW87940   8.856   2.299   8.482
28703SOL    HW187941   8.860   2.232   8.414
28703SOL    HW287942   8.771   2.285   8.524
28704SOL     OW87943  10.713   4.058   7.947
28704SOL    HW187944  10.657   4.122   7.991
28704SOL    HW287945  10.714   3.983   8.006
28705SOL     OW87946  14.346   7.860   3.875
28705SOL    HW187947  14.388   7.782   3.912
28705SOL    HW287948  14.333   7.838   3.783
28706SOL     OW87949   1.473   5.879   9.669
28706SOL    HW187950   1.481   5.900   9.576
28706SOL    HW287951   1.394   5.925   9.697
28707SOL     OW87952  10.234  13.451  14.815
28707SOL    HW187953  10.140  13.464  14.807
28707SOL    HW287954  10.272  13.537  14.795
28708SOL     OW87955   6.588   1.789   8.144
28708SOL    HW187956   6.531   1.818   8.073
28708SOL    HW287957   6.589   1.861   8.206
28709SOL     OW87958   9.340  12.058   9.880
28709SOL    HW187959   9.327  12.048   9.974
28709SOL    HW287960   9.367  12.150   9.870
28710SOL     OW87961   5.023  13.150   1.037
28710SOL    HW187962   4.931  13.124   1.041
28710SOL    HW287963   5.071  13.068   1.050
28711SOL     OW87964   9.471   1.376   4.066
28711SOL    HW187965   9.466   1.329   4.149
28711SOL    HW287966   9.538   1.330   4.016
28712SOL     OW87967   2.382   9.624  12.471
28712SOL    HW187968   2.302   9.668  12.500
28712SOL    HW287969   2.398   9.557  12.538
28713SOL     OW87970  11.407   9.300  12.259
28713SOL    HW187971  11.339   9.235  12.278
28713SOL    HW287972  11.429   9.286  12.167
28714SOL     OW87973   9.029  13.156  13.665
28714SOL    HW187974   9.073  13.078  13.631
28714SOL    HW287975   9.007  13.133  13.755
28715SOL     OW87976   6.618   5.239   0.669
28715SOL    HW187977   6.678   5.300   0.712
28715SOL    HW287978   6.651   5.153   0.692
28716SOL     OW87979  13.982  14.129   3.633
28716SOL    HW187980  14.041  14.179   3.577
28716SOL    HW287981  13.983  14.176   3.717
28717SOL     OW87982   9.271   3.049  14.434
28717SOL    HW187983   9.208   2.985  14.402
28717SOL    HW287984   9.230   3.087  14.512
28718SOL     OW87985  12.384  13.049   1.431
28718SOL    HW187986  12.380  12.957   1.457
28718SOL    HW287987  12.320  13.092   1.488
28719SOL     OW87988   6.204   3.493   7.895
28719SOL    HW187989   6.292   3.485   7.930
28719SOL    HW287990   6.181   3.405   7.865
28720SOL     OW87991  13.628  13.559   4.498
28720SOL    HW187992  13.696  13.553   4.565
28720SOL    HW287993  13.626  13.472   4.458
28721SOL     OW87994  10.356  12.454  12.749
28721SOL    HW187995  10.435  12.507  12.752
28721SOL    HW287996  10.305  12.490  12.676
28722SOL     OW87997   0.337   6.739   4.668
28722SOL    HW187998   0.345   6.644   4.673
28722SOL    HW287999   0.411   6.773   4.718
28723SOL     OW88000   4.038  10.174   3.119
28723SOL    HW188001   4.090  10.109   3.072
28723SOL    HW288002   4.071  10.258   3.087
28724SOL     OW88003   6.609   6.317   6.382
28724SOL    HW188004   6.689   6.264   6.385
28724SOL    HW288005   6.635   6.398   6.338
28725SOL     OW88006   5.644   2.938   9.067
28725SOL    HW188007   5.583   2.893   9.125
28725SOL    HW288008   5.608   2.925   8.979
28726SOL     OW88009   7.265  12.898  10.835
28726SOL    HW188010   7.336  12.921  10.896
28726SOL    HW288011   7.246  12.979  10.789
28727SOL     OW88012   9.860   4.080  14.682
28727SOL    HW188013   9.908   3.998  14.669
28727SOL    HW288014   9.807   4.066  14.761
28728SOL     OW88015   4.263   7.746   2.862
28728SOL    HW188016   4.330   7.678   2.868
28728SOL    HW288017   4.227   7.752   2.950
28729SOL     OW88018   7.590  10.912   2.596
28729SOL    HW188019   7.663  10.963   2.560
28729SOL    HW288020   7.550  10.871   2.520
28730SOL     OW88021  12.328  12.871   9.329
28730SOL    HW188022  12.336  12.839   9.239
28730SOL    HW288023  12.394  12.940   9.336
28731SOL     OW88024   5.686   9.297   2.277
28731SOL    HW188025   5.615   9.353   2.305
28731SOL    HW288026   5.644   9.230   2.223
28732SOL     OW88027  13.358   5.678   1.070
28732SOL    HW188028  13.265   5.694   1.084
28732SOL    HW288029  13.380   5.609   1.132
28733SOL     OW88030   1.424   9.197  13.104
28733SOL    HW188031   1.454   9.287  13.088
28733SOL    HW288032   1.347   9.207  13.160
28734SOL     OW88033   6.889   7.966  10.963
28734SOL    HW188034   6.959   8.030  10.949
28734SOL    HW288035   6.933   7.888  10.996
28735SOL     OW88036  12.591   6.108   3.839
28735SOL    HW188037  12.569   6.027   3.793
28735SOL    HW288038  12.677   6.133   3.803
28736SOL     OW88039   3.904   4.363   9.614
28736SOL    HW188040   3.938   4.358   9.525
28736SOL    HW288041   3.809   4.364   9.603
28737SOL     OW88042   2.236  14.480   6.219
28737SOL    HW188043   2.278  14.436   6.145
28737SOL    HW288044   2.155  14.431   6.233
28738SOL     OW88045  14.553   1.086  14.271
28738SOL    HW188046  14.593   0.999  14.261
28738SOL    HW288047  14.545   1.119  14.181
28739SOL     OW88048  12.247  11.916  10.783
28739SOL    HW188049  12.222  11.925  10.691
28739SOL    HW288050  12.303  11.992  10.800
28740SOL     OW88051  14.842   3.053   6.639
28740SOL    HW188052  14.806   2.975   6.599
28740SOL    HW288053  14.845   3.033   6.733
28741SOL     OW88054   1.168   0.049  13.265
28741SOL    HW188055   1.234   0.035  13.333
28741SOL    HW288056   1.116  14.842  13.265
28742SOL     OW88057   0.811   3.925   2.498
28742SOL    HW188058   0.828   4.009   2.455
28742SOL    HW288059   0.731   3.940   2.548
28743SOL     OW88060  13.226  14.555  11.295
28743SOL    HW188061  13.289  14.605  11.244
28743SOL    HW288062  13.237  14.587  11.385
28744SOL     OW88063  13.791   3.754   5.773
28744SOL    HW188064  13.785   3.833   5.721
28744SOL    HW288065  13.835   3.690   5.716
28745SOL     OW88066   0.353  13.186  14.471
28745SOL    HW188067   0.373  13.251  14.403
28745SOL    HW288068   0.436  13.142  14.488
28746SOL     OW88069   3.565   9.523   5.468
28746SOL    HW188070   3.549   9.436   5.502
28746SOL    HW288071   3.656   9.522   5.440
28747SOL     OW88072   8.292  10.353   2.973
28747SOL    HW188073   8.301  10.328   3.065
28747SOL    HW288074   8.377  10.393   2.952
28748SOL     OW88075   1.674   3.858  14.575
28748SOL    HW188076   1.644   3.853  14.484
28748SOL    HW288077   1.595   3.849  14.628
28749SOL     OW88078   0.381  11.235   3.741
28749SOL    HW188079   0.423  11.281   3.813
28749SOL    HW288080   0.350  11.305   3.683
28750SOL     OW88081   3.812   1.461   2.666
28750SOL    HW188082   3.900   1.435   2.638
28750SOL    HW288083   3.808   1.437   2.759
28751SOL     OW88084  11.460   1.042  10.079
28751SOL    HW188085  11.487   1.134  10.082
28751SOL    HW288086  11.367   1.045  10.057
28752SOL     OW88087  11.787   6.145   5.654
28752SOL    HW188088  11.698   6.176   5.637
28752SOL    HW288089  11.800   6.158   5.748
28753SOL     OW88090   3.855  13.480  12.675
28753SOL    HW188091   3.829  13.388  12.672
28753SOL    HW288092   3.774  13.529  12.660
28754SOL     OW88093   2.360   5.554   6.949
28754SOL    HW188094   2.397   5.560   6.861
28754SOL    HW288095   2.390   5.469   6.982
28755SOL     OW88096   8.495  12.409   2.142
28755SOL    HW188097   8.507  12.316   2.123
28755SOL    HW288098   8.459  12.411   2.230
28756SOL     OW88099  13.956  11.992  11.268
28756SOL    HW188100  13.954  11.987  11.172
28756SOL    HW288101  13.924  12.080  11.289
28757SOL     OW88102   2.936   7.216   2.093
28757SOL    HW188103   2.998   7.208   2.166
28757SOL    HW288104   2.896   7.129   2.087
28758SOL     OW88105   0.151   5.652   4.890
28758SOL    HW188106   0.228   5.702   4.864
28758SOL    HW288107   0.079   5.692   4.841
28759SOL     OW88108   6.136   3.079   2.513
28759SOL    HW188109   6.102   3.166   2.534
28759SOL    HW288110   6.084   3.020   2.568
28760SOL     OW88111  10.127  10.953  13.296
28760SOL    HW188112  10.107  10.953  13.202
28760SOL    HW288113  10.048  10.919  13.338
28761SOL     OW88114   7.301   3.957   2.011
28761SOL    HW188115   7.392   3.928   2.018
28761SOL    HW288116   7.252   3.875   1.999
28762SOL     OW88117   6.265   3.284  14.745
28762SOL    HW188118   6.261   3.208  14.687
28762SOL    HW288119   6.295   3.355  14.688
28763SOL     OW88120   1.610   7.352  14.535
28763SOL    HW188121   1.592   7.429  14.481
28763SOL    HW288122   1.566   7.370  14.618
28764SOL     OW88123   2.518  11.313   0.758
28764SOL    HW188124   2.481  11.399   0.778
28764SOL    HW288125   2.503  11.261   0.837
28765SOL     OW88126   2.874   2.565   8.952
28765SOL    HW188127   2.812   2.502   8.915
28765SOL    HW288128   2.916   2.518   9.024
28766SOL     OW88129   4.044   9.816  13.737
28766SOL    HW188130   4.119   9.762  13.763
28766SOL    HW288131   3.972   9.754  13.727
28767SOL     OW88132  12.435   2.069   8.255
28767SOL    HW188133  12.483   2.149   8.234
28767SOL    HW288134  12.427   2.024   8.171
28768SOL     OW88135  13.637   2.967   9.072
28768SOL    HW188136  13.711   3.002   9.123
28768SOL    HW288137  13.670   2.884   9.036
28769SOL     OW88138  10.968  12.460   5.230
28769SOL    HW188139  10.911  12.388   5.201
28769SOL    HW288140  10.929  12.538   5.193
28770SOL     OW88141   9.697  13.200   8.414
28770SOL    HW188142   9.759  13.153   8.469
28770SOL    HW288143   9.614  13.155   8.427
28771SOL     OW88144   8.734   1.986  11.621
28771SOL    HW188145   8.644   1.958  11.640
28771SOL    HW288146   8.781   1.904  11.607
28772SOL     OW88147  12.983   5.073   4.584
28772SOL    HW188148  12.903   5.113   4.550
28772SOL    HW288149  13.051   5.137   4.566
28773SOL     OW88150   1.843  13.972   4.171
28773SOL    HW188151   1.819  14.039   4.234
28773SOL    HW288152   1.789  13.897   4.195
28774SOL     OW88153   5.470   7.458  11.270
28774SOL    HW188154   5.426   7.374  11.257
28774SOL    HW288155   5.464   7.502  11.185
28775SOL     OW88156  11.954  11.003   4.834
28775SOL    HW188157  12.049  11.004   4.849
28775SOL    HW288158  11.927  10.917   4.864
28776SOL     OW88159   0.320  12.856   2.576
28776SOL    HW188160   0.233  12.847   2.537
28776SOL    HW288161   0.330  12.950   2.591
28777SOL     OW88162   1.639   7.560   1.502
28777SOL    HW188163   1.545   7.555   1.520
28777SOL    HW288164   1.666   7.469   1.493
28778SOL     OW88165   0.063  10.135   2.965
28778SOL    HW188166   0.116  10.172   3.036
28778SOL    HW288167   0.125  10.085   2.912
28779SOL     OW88168   4.020   6.932   2.554
28779SOL    HW188169   3.951   6.867   2.565
28779SOL    HW288170   4.094   6.883   2.519
28780SOL     OW88171  10.103  11.227   4.132
28780SOL    HW188172  10.177  11.173   4.163
28780SOL    HW288173  10.143  11.295   4.079
28781SOL     OW88174  14.538   5.191   1.976
28781SOL    HW188175  14.557   5.170   2.067
28781SOL    HW288176  14.624   5.208   1.937
28782SOL     OW88177   3.019   5.105   7.768
28782SOL    HW188178   2.991   5.014   7.772
28782SOL    HW288179   2.944   5.155   7.798
28783SOL     OW88180   6.726   0.395   1.941
28783SOL    HW188181   6.772   0.318   1.975
28783SOL    HW288182   6.689   0.437   2.019
28784SOL     OW88183  11.263  13.173   5.887
28784SOL    HW188184  11.169  13.191   5.889
28784SOL    HW288185  11.302  13.236   5.948
28785SOL     OW88186   3.750   7.901   9.603
28785SOL    HW188187   3.766   7.906   9.508
28785SOL    HW288188   3.821   7.846   9.636
28786SOL     OW88189  13.420   3.480   1.299
28786SOL    HW188190  13.460   3.552   1.348
28786SOL    HW288191  13.471   3.475   1.218
28787SOL     OW88192   4.121   9.284   9.778
28787SOL    HW188193   4.034   9.324   9.785
28787SOL    HW288194   4.177   9.337   9.834
28788SOL     OW88195   5.981   5.956  10.990
28788SOL    HW188196   6.010   5.872  10.957
28788SOL    HW288197   6.057   5.991  11.038
28789SOL     OW88198   6.836  14.421   2.617
28789SOL    HW188199   6.825  14.351   2.680
28789SOL    HW288200   6.860  14.377   2.536
28790SOL     OW88201  14.489   0.674  14.694
28790SOL    HW188202  14.569   0.697  14.742
28790SOL    HW288203  14.466   0.754  14.646
28791SOL     OW88204  14.534   3.232  11.196
28791SOL    HW188205  14.480   3.310  11.188
28791SOL    HW288206  14.618   3.264  11.229
28792SOL     OW88207   0.528   4.910  13.464
28792SOL    HW188208   0.581   4.864  13.400
28792SOL    HW288209   0.442   4.919  13.423
28793SOL     OW88210   8.405  11.489  12.816
28793SOL    HW188211   8.440  11.501  12.904
28793SOL    HW288212   8.439  11.404  12.789
28794SOL     OW88213  13.641  11.854   9.339
28794SOL    HW188214  13.586  11.799   9.396
28794SOL    HW288215  13.640  11.940   9.380
28795SOL     OW88216   0.548   4.240   6.816
28795SOL    HW188217   0.480   4.241   6.884
28795SOL    HW288218   0.508   4.192   6.743
28796SOL     OW88219   1.158   4.270   2.230
28796SOL    HW188220   1.191   4.348   2.275
28796SOL    HW288221   1.095   4.233   2.292
28797SOL     OW88222   7.104   9.639  13.870
28797SOL    HW188223   7.070   9.586  13.942
28797SOL    HW288224   7.171   9.695  13.910
28798SOL     OW88225   6.446   7.986   8.581
28798SOL    HW188226   6.455   7.904   8.532
28798SOL    HW288227   6.368   8.027   8.543
28799SOL     OW88228   9.581   9.176  14.031
28799SOL    HW188229   9.603   9.157  13.939
28799SOL    HW288230   9.650   9.134  14.081
28800SOL     OW88231  10.418   5.395  13.738
28800SOL    HW188232  10.472   5.364  13.665
28800SOL    HW288233  10.335   5.418  13.697
28801SOL     OW88234   2.943  14.800  11.880
28801SOL    HW188235   3.017  14.786  11.820
28801SOL    HW288236   2.906   0.011  11.853
28802SOL     OW88237   9.108  12.302   5.278
28802SOL    HW188238   9.091  12.220   5.231
28802SOL    HW288239   9.203  12.312   5.274
28803SOL     OW88240   1.370   0.669   6.481
28803SOL    HW188241   1.311   0.711   6.545
28803SOL    HW288242   1.330   0.689   6.396
28804SOL     OW88243   6.445  12.147   8.445
28804SOL    HW188244   6.448  12.152   8.541
28804SOL    HW288245   6.400  12.065   8.426
28805SOL     OW88246  14.359   8.941   1.718
28805SOL    HW188247  14.278   8.901   1.747
28805SOL    HW288248  14.425   8.912   1.782
28806SOL     OW88249  12.925  12.606  12.839
28806SOL    HW188250  12.866  12.676  12.810
28806SOL    HW288251  12.980  12.589  12.762
28807SOL     OW88252   9.101  10.467   0.754
28807SOL    HW188253   9.053  10.502   0.829
28807SOL    HW288254   9.132  10.545   0.708
28808SOL     OW88255   7.190   2.260  12.752
28808SOL    HW188256   7.214   2.258  12.845
28808SOL    HW288257   7.135   2.182  12.740
28809SOL     OW88258   9.897   3.096   4.862
28809SOL    HW188259   9.949   3.043   4.923
28809SOL    HW288260   9.876   3.175   4.911
28810SOL     OW88261   2.080   4.495   2.390
28810SOL    HW188262   2.060   4.462   2.302
28810SOL    HW288263   2.166   4.457   2.410
28811SOL     OW88264   9.399   1.626  10.785
28811SOL    HW188265   9.421   1.561  10.851
28811SOL    HW288266   9.433   1.709  10.820
28812SOL     OW88267   0.315  11.006   9.034
28812SOL    HW188268   0.303  11.101   9.038
28812SOL    HW288269   0.306  10.984   8.942
28813SOL     OW88270   5.496   9.902   4.397
28813SOL    HW188271   5.588   9.906   4.369
28813SOL    HW288272   5.459   9.985   4.368
28814SOL     OW88273   8.073   9.619   9.681
28814SOL    HW188274   8.029   9.559   9.620
28814SOL    HW288275   8.116   9.561   9.743
28815SOL     OW88276   4.448  12.035   7.559
28815SOL    HW188277   4.429  12.112   7.507
28815SOL    HW288278   4.537  12.050   7.593
28816SOL     OW88279   7.646   5.175  12.027
28816SOL    HW188280   7.645   5.084  12.056
28816SOL    HW288281   7.699   5.175  11.947
28817SOL     OW88282   1.652   3.235   1.139
28817SOL    HW188283   1.652   3.184   1.058
28817SOL    HW288284   1.616   3.320   1.115
28818SOL     OW88285   4.230   3.601   1.482
28818SOL    HW188286   4.173   3.641   1.549
28818SOL    HW288287   4.267   3.524   1.524
28819SOL     OW88288   9.918   3.248   3.162
28819SOL    HW188289   9.964   3.331   3.165
28819SOL    HW288290   9.854   3.254   3.233
28820SOL     OW88291   3.000   3.611   4.204
28820SOL    HW188292   3.006   3.707   4.206
28820SOL    HW288293   3.019   3.588   4.113
28821SOL     OW88294   6.755   6.633  11.563
28821SOL    HW188295   6.707   6.674  11.635
28821SOL    HW288296   6.746   6.539  11.578
28822SOL     OW88297   1.683   1.399   7.924
28822SOL    HW188298   1.728   1.472   7.883
28822SOL    HW288299   1.618   1.371   7.860
28823SOL     OW88300   5.489  10.723  10.786
28823SOL    HW188301   5.520  10.654  10.727
28823SOL    HW288302   5.509  10.690  10.874
28824SOL     OW88303   8.640   2.394   1.290
28824SOL    HW188304   8.699   2.459   1.253
28824SOL    HW288305   8.688   2.359   1.365
28825SOL     OW88306   8.297  10.590   6.514
28825SOL    HW188307   8.310  10.685   6.511
28825SOL    HW288308   8.386  10.554   6.520
28826SOL     OW88309  14.073   8.776   9.165
28826SOL    HW188310  14.035   8.806   9.248
28826SOL    HW288311  14.042   8.686   9.155
28827SOL     OW88312   7.608   3.652   9.934
28827SOL    HW188313   7.549   3.609   9.996
28827SOL    HW288314   7.559   3.652   9.851
28828SOL     OW88315  12.584   0.556   8.128
28828SOL    HW188316  12.580   0.500   8.206
28828SOL    HW288317  12.669   0.535   8.089
28829SOL     OW88318   9.652   7.642   6.491
28829SOL    HW188319   9.653   7.547   6.505
28829SOL    HW288320   9.731   7.660   6.440
28830SOL     OW88321   2.286   4.082   6.136
28830SOL    HW188322   2.262   4.060   6.226
28830SOL    HW288323   2.231   4.027   6.082
28831SOL     OW88324  12.539  14.600  11.032
28831SOL    HW188325  12.633  14.598  11.015
28831SOL    HW288326  12.524  14.526  11.091
28832SOL     OW88327   6.874   0.375   9.781
28832SOL    HW188328   6.881   0.374   9.877
28832SOL    HW288329   6.850   0.465   9.759
28833SOL     OW88330   0.428   1.156   3.486
28833SOL    HW188331   0.514   1.115   3.486
28833SOL    HW288332   0.380   1.112   3.416
28834SOL     OW88333   6.916   0.183  12.729
28834SOL    HW188334   6.909   0.224  12.643
28834SOL    HW288335   6.982   0.114  12.718
28835SOL     OW88336   8.315   7.442   2.577
28835SOL    HW188337   8.304   7.378   2.648
28835SOL    HW288338   8.401   7.424   2.541
28836SOL     OW88339  12.282  10.832   3.294
28836SOL    HW188340  12.371  10.849   3.325
28836SOL    HW288341  12.255  10.914   3.253
28837SOL     OW88342   1.055   4.345  11.968
28837SOL    HW188343   1.023   4.379  11.884
28837SOL    HW288344   0.976   4.335  12.021
28838SOL     OW88345  13.366   9.759   1.193
28838SOL    HW188346  13.420   9.817   1.140
28838SOL    HW288347  13.286   9.810   1.210
28839SOL     OW88348  12.323   4.451  12.853
28839SOL    HW188349  12.300   4.446  12.946
28839SOL    HW288350  12.319   4.361  12.822
28840SOL     OW88351  13.655   7.144   1.589
28840SOL    HW188352  13.728   7.196   1.555
28840SOL    HW288353  13.601   7.125   1.513
28841SOL     OW88354   6.433   7.269  10.482
28841SOL    HW188355   6.374   7.196  10.503
28841SOL    HW288356   6.386   7.347  10.511
28842SOL     OW88357  11.503   6.927  13.330
28842SOL    HW188358  11.456   6.978  13.263
28842SOL    HW288359  11.433   6.882  13.378
28843SOL     OW88360   7.634  14.146   5.977
28843SOL    HW188361   7.714  14.104   6.007
28843SOL    HW288362   7.578  14.074   5.949
28844SOL     OW88363   6.331   3.712  13.079
28844SOL    HW188364   6.367   3.664  13.155
28844SOL    HW288365   6.296   3.644  13.022
28845SOL     OW88366   0.782   4.142  10.391
28845SOL    HW188367   0.754   4.176  10.306
28845SOL    HW288368   0.849   4.203  10.421
28846SOL     OW88369   5.146   7.321   1.385
28846SOL    HW188370   5.116   7.288   1.300
28846SOL    HW288371   5.207   7.255   1.417
28847SOL     OW88372  10.684   6.549  11.566
28847SOL    HW188373  10.666   6.456  11.573
28847SOL    HW288374  10.756   6.555  11.503
28848SOL     OW88375   0.812   8.417   9.315
28848SOL    HW188376   0.901   8.388   9.333
28848SOL    HW288377   0.821   8.480   9.243
28849SOL     OW88378   7.157   3.509  12.827
28849SOL    HW188379   7.197   3.590  12.859
28849SOL    HW288380   7.081   3.537  12.777
28850SOL     OW88381   4.199  14.754   7.712
28850SOL    HW188382   4.237  14.689   7.653
28850SOL    HW288383   4.104  14.746   7.698
28851SOL     OW88384  10.520   5.992   2.509
28851SOL    HW188385  10.491   6.074   2.470
28851SOL    HW288386  10.614   6.004   2.524
28852SOL     OW88387  10.101  11.130   5.778
28852SOL    HW188388  10.120  11.194   5.710
28852SOL    HW288389  10.138  11.168   5.858
28853SOL     OW88390   0.226   9.961  13.001
28853SOL    HW188391   0.163  10.018  13.044
28853SOL    HW288392   0.288   9.936  13.069
28854SOL     OW88393   5.262   4.466   4.466
28854SOL    HW188394   5.348   4.424   4.474
28854SOL    HW288395   5.236   4.486   4.556
28855SOL     OW88396   2.016  12.991  14.241
28855SOL    HW188397   1.980  13.015  14.327
28855SOL    HW288398   2.108  13.019  14.246
28856SOL     OW88399   0.833  11.697   6.543
28856SOL    HW188400   0.880  11.775   6.572
28856SOL    HW288401   0.741  11.717   6.559
28857SOL     OW88402  11.019  12.967   1.611
28857SOL    HW188403  10.973  13.050   1.612
28857SOL    HW288404  10.968  12.910   1.668
28858SOL     OW88405  10.441   9.616   4.626
28858SOL    HW188406  10.499   9.569   4.566
28858SOL    HW288407  10.354   9.584   4.604
28859SOL     OW88408  11.555   0.340   0.479
28859SOL    HW188409  11.479   0.313   0.427
28859SOL    HW288410  11.523   0.412   0.533
28860SOL     OW88411   5.399  12.655   8.588
28860SOL    HW188412   5.375  12.571   8.550
28860SOL    HW288413   5.379  12.719   8.520
28861SOL     OW88414   9.519   3.340   8.617
28861SOL    HW188415   9.611   3.336   8.592
28861SOL    HW288416   9.488   3.425   8.584
28862SOL     OW88417  14.256   8.478  12.513
28862SOL    HW188418  14.193   8.406  12.508
28862SOL    HW288419  14.229   8.538  12.444
28863SOL     OW88420   3.357   7.230  14.295
28863SOL    HW188421   3.359   7.149  14.346
28863SOL    HW288422   3.447   7.240  14.263
28864SOL     OW88423   3.329  10.713   6.584
28864SOL    HW188424   3.411  10.723   6.632
28864SOL    HW288425   3.328  10.787   6.523
28865SOL     OW88426   2.665   5.559   6.888
28865SOL    HW188427   2.732   5.582   6.952
28865SOL    HW288428   2.640   5.469   6.909
28866SOL     OW88429   8.919   1.157   1.581
28866SOL    HW188430   8.945   1.248   1.566
28866SOL    HW288431   8.943   1.112   1.500
28867SOL     OW88432   4.332   7.614  14.111
28867SOL    HW188433   4.395   7.577  14.173
28867SOL    HW288434   4.294   7.538  14.067
28868SOL     OW88435  12.596   4.623  14.070
28868SOL    HW188436  12.508   4.587  14.056
28868SOL    HW288437  12.602   4.697  14.010
28869SOL     OW88438  14.245   4.865   4.279
28869SOL    HW188439  14.337   4.865   4.252
28869SOL    HW288440  14.196   4.851   4.198
28870SOL     OW88441  10.231   6.133   0.817
28870SOL    HW188442  10.156   6.191   0.806
28870SOL    HW288443  10.284   6.147   0.738
28871SOL     OW88444   7.710  10.653   1.621
28871SOL    HW188445   7.749  10.569   1.643
28871SOL    HW288446   7.769  10.718   1.659
28872SOL     OW88447   7.404   2.643   5.229
28872SOL    HW188448   7.352   2.717   5.200
28872SOL    HW288449   7.343   2.587   5.277
28873SOL     OW88450   6.781   3.841   9.669
28873SOL    HW188451   6.724   3.919   9.672
28873SOL    HW288452   6.748   3.785   9.739
28874SOL     OW88453   4.157   4.740   3.336
28874SOL    HW188454   4.077   4.710   3.379
28874SOL    HW288455   4.133   4.750   3.244
28875SOL     OW88456  10.230  10.128   6.950
28875SOL    HW188457  10.193  10.053   6.903
28875SOL    HW288458  10.250  10.094   7.037
28876SOL     OW88459   5.084   5.155  12.257
28876SOL    HW188460   5.168   5.199  12.244
28876SOL    HW288461   5.025   5.225  12.286
28877SOL     OW88462   6.232  10.622  10.376
28877SOL    HW188463   6.227  10.711  10.340
28877SOL    HW288464   6.272  10.634  10.463
28878SOL     OW88465   1.211  11.476   5.295
28878SOL    HW188466   1.143  11.529   5.337
28878SOL    HW288467   1.293  11.508   5.334
28879SOL     OW88468   1.880   4.762  13.291
28879SOL    HW188469   1.868   4.718  13.375
28879SOL    HW288470   1.974   4.758  13.275
28880SOL     OW88471   1.713   8.532   9.717
28880SOL    HW188472   1.727   8.456   9.772
28880SOL    HW288473   1.720   8.607   9.776
28881SOL     OW88474  13.636  10.754   5.570
28881SOL    HW188475  13.607  10.703   5.494
28881SOL    HW288476  13.622  10.845   5.544
28882SOL     OW88477   5.547   2.395  10.646
28882SOL    HW188478   5.474   2.408  10.586
28882SOL    HW288479   5.624   2.392  10.589
28883SOL     OW88480   9.436   1.199   2.956
28883SOL    HW188481   9.359   1.249   2.983
28883SOL    HW288482   9.436   1.122   3.013
28884SOL     OW88483   2.851  10.967  10.842
28884SOL    HW188484   2.885  10.959  10.931
28884SOL    HW288485   2.762  10.933  10.847
28885SOL     OW88486   2.324   0.703   6.928
28885SOL    HW188487   2.365   0.689   6.842
28885SOL    HW288488   2.367   0.641   6.986
28886SOL     OW88489   9.700   1.844   3.638
28886SOL    HW188490   9.622   1.797   3.608
28886SOL    HW288491   9.692   1.931   3.600
28887SOL     OW88492  10.563  13.627  13.930
28887SOL    HW188493  10.624  13.602  13.861
28887SOL    HW288494  10.616  13.679  13.991
28888SOL     OW88495   9.350   7.401  10.592
28888SOL    HW188496   9.270   7.430  10.637
28888SOL    HW288497   9.419   7.413  10.657
28889SOL     OW88498  12.889  10.088   2.949
28889SOL    HW188499  12.877   9.993   2.946
28889SOL    HW288500  12.808  10.122   2.988
28890SOL     OW88501   7.406   9.135   8.145
28890SOL    HW188502   7.356   9.150   8.225
28890SOL    HW288503   7.368   9.055   8.108
28891SOL     OW88504   3.312   7.389   0.458
28891SOL    HW188505   3.278   7.460   0.403
28891SOL    HW288506   3.309   7.424   0.547
28892SOL     OW88507  13.181  12.596  11.336
28892SOL    HW188508  13.219  12.523  11.286
28892SOL    HW288509  13.118  12.636  11.276
28893SOL     OW88510   6.972   1.191  11.792
28893SOL    HW188511   6.995   1.156  11.706
28893SOL    HW288512   6.937   1.116  11.840
28894SOL     OW88513   1.538   9.774   2.354
28894SOL    HW188514   1.586   9.735   2.282
28894SOL    HW288515   1.592   9.758   2.432
28895SOL     OW88516   4.988  10.648  14.035
28895SOL    HW188517   4.916  10.675  13.977
28895SOL    HW288518   5.029  10.730  14.062
28896SOL     OW88519   9.326   0.349  10.772
28896SOL    HW188520   9.234   0.336  10.794
28896SOL    HW288521   9.325   0.376  10.680
28897SOL     OW88522   0.068  11.406  10.501
28897SOL    HW188523   0.148  11.427  10.452
28897SOL    HW288524   0.021  11.489  10.508
28898SOL     OW88525   2.833   8.520   2.465
28898SOL    HW188526   2.875   8.605   2.480
28898SOL    HW288527   2.873   8.488   2.384
28899SOL     OW88528  14.654  11.305   4.212
28899SOL    HW188529  14.653  11.295   4.307
28899SOL    HW288530  14.735  11.263   4.184
28900SOL     OW88531  11.429   7.518   0.930
28900SOL    HW188532  11.501   7.491   0.873
28900SOL    HW288533  11.423   7.450   0.996
28901SOL     OW88534   7.098   7.576   6.868
28901SOL    HW188535   7.069   7.667   6.865
28901SOL    HW288536   7.137   7.560   6.782
28902SOL     OW88537   2.853  13.214   2.639
28902SOL    HW188538   2.823  13.240   2.726
28902SOL    HW288539   2.798  13.139   2.617
28903SOL     OW88540   9.363   5.424   5.660
28903SOL    HW188541   9.294   5.388   5.604
28903SOL    HW288542   9.413   5.480   5.601
28904SOL     OW88543   7.299   7.581  11.209
28904SOL    HW188544   7.382   7.562  11.165
28904SOL    HW288545   7.325   7.616  11.295
28905SOL     OW88546  14.460   3.013   7.484
28905SOL    HW188547  14.396   3.059   7.537
28905SOL    HW288548  14.424   2.925   7.473
28906SOL     OW88549  14.614  10.336   9.213
28906SOL    HW188550  14.642  10.345   9.122
28906SOL    HW288551  14.563  10.255   9.215
28907SOL     OW88552   9.274  11.056   1.403
28907SOL    HW188553   9.317  11.066   1.488
28907SOL    HW288554   9.292  11.138   1.357
28908SOL     OW88555   1.438  12.933  11.440
28908SOL    HW188556   1.369  12.921  11.375
28908SOL    HW288557   1.497  12.998  11.401
28909SOL     OW88558   4.310   4.555   9.688
28909SOL    HW188559   4.362   4.527   9.613
28909SOL    HW288560   4.320   4.484   9.752
28910SOL     OW88561  12.366  14.482  13.781
28910SOL    HW188562  12.370  14.418  13.709
28910SOL    HW288563  12.287  14.533  13.763
28911SOL     OW88564   0.706   8.190   1.032
28911SOL    HW188565   0.708   8.281   1.005
28911SOL    HW288566   0.792   8.174   1.070
28912SOL     OW88567   1.011   0.794   6.267
28912SOL    HW188568   0.996   0.763   6.178
28912SOL    HW288569   0.980   0.722   6.323
28913SOL     OW88570   0.105  10.037   4.940
28913SOL    HW188571   0.131   9.956   4.896
28913SOL    HW288572   0.163  10.044   5.016
28914SOL     OW88573   8.241   2.140  13.500
28914SOL    HW188574   8.335   2.144  13.514
28914SOL    HW288575   8.229   2.076  13.430
28915SOL     OW88576   5.531   6.909   2.257
28915SOL    HW188577   5.461   6.951   2.307
28915SOL    HW288578   5.542   6.964   2.180
28916SOL     OW88579   6.994  10.420  13.721
28916SOL    HW188580   7.036  10.490  13.670
28916SOL    HW288581   7.067  10.374  13.763
28917SOL     OW88582   9.713   4.253   3.109
28917SOL    HW188583   9.709   4.338   3.152
28917SOL    HW288584   9.643   4.257   3.043
28918SOL     OW88585  12.641   5.037   4.748
28918SOL    HW188586  12.595   5.109   4.791
28918SOL    HW288587  12.730   5.041   4.783
28919SOL     OW88588  10.675   9.840   1.911
28919SOL    HW188589  10.610   9.801   1.969
28919SOL    HW288590  10.727   9.897   1.967
28920SOL     OW88591   8.851   1.402   2.681
28920SOL    HW188592   8.871   1.348   2.605
28920SOL    HW288593   8.789   1.350   2.732
28921SOL     OW88594  10.117  11.364   2.528
28921SOL    HW188595  10.023  11.367   2.546
28921SOL    HW288596  10.144  11.456   2.530
28922SOL     OW88597   4.766  13.535   9.620
28922SOL    HW188598   4.692  13.587   9.589
28922SOL    HW288599   4.831  13.599   9.649
28923SOL     OW88600   3.483   2.681  13.219
28923SOL    HW188601   3.484   2.693  13.124
28923SOL    HW288602   3.393   2.701  13.246
28924SOL     OW88603   0.004  13.768   7.796
28924SOL    HW188604   0.040  13.707   7.732
28924SOL    HW288605   0.078  13.793   7.851
28925SOL     OW88606   3.384   9.010  13.696
28925SOL    HW188607   3.311   9.072  13.693
28925SOL    HW288608   3.449   9.053  13.752
28926SOL     OW88609   2.793   5.590   9.217
28926SOL    HW188610   2.760   5.665   9.266
28926SOL    HW288611   2.888   5.595   9.229
28927SOL     OW88612   9.383  11.639  11.385
28927SOL    HW188613   9.323  11.696  11.337
28927SOL    HW288614   9.466  11.685  11.384
28928SOL     OW88615   9.704  14.790   3.886
28928SOL    HW188616   9.730  14.703   3.855
28928SOL    HW288617   9.784  14.842   3.881
28929SOL     OW88618   0.764   7.422   9.114
28929SOL    HW188619   0.855   7.414   9.141
28929SOL    HW288620   0.746   7.517   9.117
28930SOL     OW88621   8.371   1.977  13.768
28930SOL    HW188622   8.427   2.014  13.700
28930SOL    HW288623   8.282   1.986  13.734
28931SOL     OW88624   7.121   0.023   8.741
28931SOL    HW188625   7.096  14.825   8.800
28931SOL    HW288626   7.172   0.083   8.795
28932SOL     OW88627  13.653   9.359  12.928
28932SOL    HW188628  13.732   9.381  12.977
28932SOL    HW288629  13.685   9.339  12.840
28933SOL     OW88630  13.829   7.713   5.375
28933SOL    HW188631  13.890   7.683   5.307
28933SOL    HW288632  13.881   7.774   5.427
28934SOL     OW88633   7.651   6.503   3.397
28934SOL    HW188634   7.725   6.503   3.457
28934SOL    HW288635   7.685   6.545   3.318
28935SOL     OW88636  11.764  14.350   2.969
28935SOL    HW188637  11.771  14.255   2.982
28935SOL    HW288638  11.853  14.383   2.980
28936SOL     OW88639   9.499   1.840   2.968
28936SOL    HW188640   9.592   1.849   2.986
28936SOL    HW288641   9.486   1.745   2.956
28937SOL     OW88642   6.285   8.436   2.729
28937SOL    HW188643   6.330   8.361   2.767
28937SOL    HW288644   6.222   8.398   2.668
28938SOL     OW88645   9.268  13.830   6.068
28938SOL    HW188646   9.251  13.851   5.976
28938SOL    HW288647   9.182  13.833   6.109
28939SOL     OW88648   6.184   3.579   3.325
28939SOL    HW188649   6.160   3.511   3.389
28939SOL    HW288650   6.142   3.658   3.358
28940SOL     OW88651  13.912  13.815   5.053
28940SOL    HW188652  13.934  13.725   5.079
28940SOL    HW288653  13.849  13.844   5.120
28941SOL     OW88654  14.303  14.125   3.760
28941SOL    HW188655  14.314  14.177   3.680
28941SOL    HW288656  14.338  14.039   3.737
28942SOL     OW88657   4.045   3.783  12.319
28942SOL    HW188658   4.046   3.756  12.411
28942SOL    HW288659   4.060   3.702  12.270
28943SOL     OW88660   8.185   6.508   0.558
28943SOL    HW188661   8.260   6.507   0.617
28943SOL    HW288662   8.220   6.476   0.475
28944SOL     OW88663   9.909   0.834   6.870
28944SOL    HW188664   9.829   0.816   6.919
28944SOL    HW288665   9.925   0.928   6.885
28945SOL     OW88666   9.446   8.278   0.693
28945SOL    HW188667   9.444   8.361   0.742
28945SOL    HW288668   9.383   8.222   0.739
28946SOL     OW88669   8.889   6.706   6.311
28946SOL    HW188670   8.978   6.741   6.305
28946SOL    HW288671   8.900   6.611   6.310
28947SOL     OW88672   6.599  11.384   1.385
28947SOL    HW188673   6.643  11.308   1.422
28947SOL    HW288674   6.666  11.452   1.381
28948SOL     OW88675  13.132  10.207   5.473
28948SOL    HW188676  13.219  10.209   5.513
28948SOL    HW288677  13.079  10.263   5.530
28949SOL     OW88678   1.092  10.062   7.432
28949SOL    HW188679   1.021  10.012   7.474
28949SOL    HW288680   1.118  10.007   7.357
28950SOL     OW88681   7.881   5.358  14.453
28950SOL    HW188682   7.804   5.414  14.446
28950SOL    HW288683   7.863   5.302  14.529
28951SOL     OW88684   9.866   0.100  14.228
28951SOL    HW188685   9.808   0.174  14.246
28951SOL    HW288686   9.907   0.081  14.312
28952SOL     OW88687  13.043   7.195   8.645
28952SOL    HW188688  13.089   7.140   8.582
28952SOL    HW288689  13.105   7.206   8.717
28953SOL     OW88690  13.520   7.097   2.440
28953SOL    HW188691  13.570   7.145   2.506
28953SOL    HW288692  13.429   7.122   2.457
28954SOL     OW88693   8.971   1.034   7.107
28954SOL    HW188694   8.997   1.125   7.118
28954SOL    HW288695   8.962   1.023   7.013
28955SOL     OW88696   3.708   2.116   4.578
28955SOL    HW188697   3.631   2.122   4.521
28955SOL    HW288698   3.733   2.207   4.595
28956SOL     OW88699   7.822   8.318   6.857
28956SOL    HW188700   7.840   8.404   6.896
28956SOL    HW288701   7.777   8.270   6.927
28957SOL     OW88702   8.236   4.970   9.192
28957SOL    HW188703   8.245   5.058   9.157
28957SOL    HW288704   8.225   4.982   9.286
28958SOL     OW88705   3.997   6.527   5.499
28958SOL    HW188706   4.039   6.484   5.425
28958SOL    HW288707   3.910   6.487   5.504
28959SOL     OW88708   6.332  13.779   6.239
28959SOL    HW188709   6.356  13.730   6.160
28959SOL    HW288710   6.331  13.714   6.309
28960SOL     OW88711  10.183  13.260   5.293
28960SOL    HW188712  10.176  13.354   5.277
28960SOL    HW288713  10.128  13.244   5.369
28961SOL     OW88714   9.090  13.137  14.716
28961SOL    HW188715   9.072  13.228  14.691
28961SOL    HW288716   9.114  13.094  14.635
28962SOL     OW88717   3.527  12.918   4.848
28962SOL    HW188718   3.433  12.904   4.837
28962SOL    HW288719   3.535  13.012   4.864
28963SOL     OW88720   3.733  13.684   6.436
28963SOL    HW188721   3.803  13.694   6.372
28963SOL    HW288722   3.678  13.762   6.424
28964SOL     OW88723   3.268  11.254   4.140
28964SOL    HW188724   3.272  11.344   4.171
28964SOL    HW288725   3.297  11.258   4.049
28965SOL     OW88726   0.612   9.507  13.507
28965SOL    HW188727   0.582   9.420  13.534
28965SOL    HW288728   0.620   9.501  13.411
28966SOL     OW88729   5.676   6.319   5.277
28966SOL    HW188730   5.729   6.240   5.264
28966SOL    HW288731   5.704   6.353   5.362
28967SOL     OW88732   5.256  10.610   7.150
28967SOL    HW188733   5.336  10.647   7.189
28967SOL    HW288734   5.255  10.644   7.060
28968SOL     OW88735   1.226   1.156   6.173
28968SOL    HW188736   1.244   1.235   6.223
28968SOL    HW288737   1.242   1.182   6.082
28969SOL     OW88738   7.830   4.214  14.266
28969SOL    HW188739   7.869   4.194  14.181
28969SOL    HW288740   7.903   4.208  14.328
28970SOL     OW88741  12.714   1.742  10.353
28970SOL    HW188742  12.641   1.803  10.343
28970SOL    HW288743  12.791   1.798  10.358
28971SOL     OW88744  10.090   9.502   1.181
28971SOL    HW188745  10.021   9.455   1.134
28971SOL    HW288746  10.166   9.444   1.177
28972SOL     OW88747   5.187   0.916  14.272
28972SOL    HW188748   5.276   0.912  14.309
28972SOL    HW288749   5.144   0.986  14.321
28973SOL     OW88750  10.404   3.083  13.578
28973SOL    HW188751  10.401   3.078  13.482
28973SOL    HW288752  10.335   3.144  13.602
28974SOL     OW88753   3.828   3.539   8.249
28974SOL    HW188754   3.810   3.449   8.276
28974SOL    HW288755   3.911   3.561   8.292
28975SOL     OW88756   6.013   3.948  14.179
28975SOL    HW188757   6.086   3.980  14.126
28975SOL    HW288758   6.043   3.959  14.269
28976SOL     OW88759   3.385   6.762   7.870
28976SOL    HW188760   3.332   6.685   7.894
28976SOL    HW288761   3.322   6.834   7.869
28977SOL     OW88762  14.135   3.487   7.793
28977SOL    HW188763  14.182   3.502   7.711
28977SOL    HW288764  14.202   3.458   7.855
28978SOL     OW88765   4.099  10.501  14.496
28978SOL    HW188766   4.191  10.474  14.497
28978SOL    HW288767   4.051  10.426  14.530
28979SOL     OW88768  13.905  14.561  11.189
28979SOL    HW188769  13.972  14.570  11.257
28979SOL    HW288770  13.932  14.624  11.122
28980SOL     OW88771   6.997   2.990   3.977
28980SOL    HW188772   6.946   3.057   4.022
28980SOL    HW288773   6.994   2.914   4.035
28981SOL     OW88774   7.815   1.936  12.694
28981SOL    HW188775   7.753   1.978  12.752
28981SOL    HW288776   7.778   1.948  12.606
28982SOL     OW88777   3.690   8.718   2.845
28982SOL    HW188778   3.686   8.776   2.922
28982SOL    HW288779   3.746   8.645   2.873
28983SOL     OW88780   6.663   1.050  11.370
28983SOL    HW188781   6.662   0.957  11.395
28983SOL    HW288782   6.630   1.096  11.448
28984SOL     OW88783   9.545   5.154   2.868
28984SOL    HW188784   9.527   5.061   2.882
28984SOL    HW288785   9.565   5.188   2.955
28985SOL     OW88786  13.418   5.705  13.736
28985SOL    HW188787  13.494   5.727  13.790
28985SOL    HW288788  13.394   5.617  13.764
28986SOL     OW88789   9.700   8.403   2.665
28986SOL    HW188790   9.763   8.447   2.609
28986SOL    HW288791   9.723   8.310   2.659
28987SOL     OW88792   3.135   0.777   7.068
28987SOL    HW188793   3.057   0.722   7.073
28987SOL    HW288794   3.199   0.724   7.020
28988SOL     OW88795   4.798   5.475   3.425
28988SOL    HW188796   4.735   5.409   3.395
28988SOL    HW288797   4.878   5.425   3.441
28989SOL     OW88798   1.568  11.933   5.016
28989SOL    HW188799   1.493  11.889   5.056
28989SOL    HW288800   1.531  12.012   4.977
28990SOL     OW88801   6.840   3.484   8.361
28990SOL    HW188802   6.865   3.476   8.453
28990SOL    HW288803   6.745   3.473   8.361
28991SOL     OW88804  12.579   2.094   8.968
28991SOL    HW188805  12.548   2.072   9.056
28991SOL    HW288806  12.666   2.130   8.982
28992SOL     OW88807   0.448   6.490   8.336
28992SOL    HW188808   0.389   6.506   8.408
28992SOL    HW288809   0.530   6.532   8.362
28993SOL     OW88810  12.236   7.903   5.277
28993SOL    HW188811  12.319   7.927   5.236
28993SOL    HW288812  12.255   7.822   5.325
28994SOL     OW88813  11.358   0.255   0.320
28994SOL    HW188814  11.406   0.276   0.241
28994SOL    HW288815  11.305   0.178   0.296
28995SOL     OW88816  13.366  13.630   7.632
28995SOL    HW188817  13.310  13.618   7.709
28995SOL    HW288818  13.455  13.617   7.665
28996SOL     OW88819  14.737  10.076   4.831
28996SOL    HW188820  14.814  10.066   4.886
28996SOL    HW288821  14.711  10.167   4.842
28997SOL     OW88822   5.127   9.415  10.242
28997SOL    HW188823   5.054   9.372  10.198
28997SOL    HW288824   5.181   9.450  10.172
28998SOL     OW88825   7.171   6.086  13.323
28998SOL    HW188826   7.167   6.102  13.229
28998SOL    HW288827   7.152   5.992  13.332
28999SOL     OW88828   9.050  10.205   2.171
28999SOL    HW188829   9.129  10.218   2.223
28999SOL    HW288830   9.080  10.159   2.092
29000SOL     OW88831  13.661  10.938   5.965
29000SOL    HW188832  13.677  10.888   6.045
29000SOL    HW288833  13.706  10.889   5.896
29001SOL     OW88834   5.841   4.094   8.539
29001SOL    HW188835   5.897   4.016   8.545
29001SOL    HW288836   5.838   4.128   8.629
29002SOL     OW88837   6.798  14.609   9.181
29002SOL    HW188838   6.744  14.542   9.140
29002SOL    HW288839   6.880  14.565   9.204
29003SOL     OW88840   3.007   0.361  11.236
29003SOL    HW188841   3.060   0.281  11.232
29003SOL    HW288842   3.065   0.426  11.276
29004SOL     OW88843  14.049   9.036   6.889
29004SOL    HW188844  14.087   9.037   6.801
29004SOL    HW288845  14.117   9.070   6.946
29005SOL     OW88846   4.215  12.983   1.764
29005SOL    HW188847   4.206  12.887   1.766
29005SOL    HW288848   4.177  13.012   1.847
29006SOL     OW88849   7.886   4.962  10.167
29006SOL    HW188850   7.868   4.884  10.220
29006SOL    HW288851   7.929   4.928  10.089
29007SOL     OW88852  13.947  14.286  13.457
29007SOL    HW188853  14.005  14.221  13.498
29007SOL    HW288854  13.944  14.358  13.520
29008SOL     OW88855  12.788   0.760  10.838
29008SOL    HW188856  12.732   0.688  10.807
29008SOL    HW288857  12.733   0.809  10.898
29009SOL     OW88858  10.474   2.332  10.516
29009SOL    HW188859  10.390   2.301  10.480
29009SOL    HW288860  10.454   2.355  10.607
29010SOL     OW88861   5.823  14.003   3.764
29010SOL    HW188862   5.731  14.031   3.759
29010SOL    HW288863   5.862  14.062   3.828
29011SOL     OW88864   9.080  10.309   0.540
29011SOL    HW188865   8.996  10.346   0.513
29011SOL    HW288866   9.111  10.368   0.609
29012SOL     OW88867   6.656   6.556   4.967
29012SOL    HW188868   6.683   6.619   5.035
29012SOL    HW288869   6.674   6.470   5.005
29013SOL     OW88870   1.989   8.563   3.974
29013SOL    HW188871   2.081   8.545   3.954
29013SOL    HW288872   1.983   8.554   4.069
29014SOL     OW88873   0.095   1.939  10.637
29014SOL    HW188874   0.107   2.014  10.695
29014SOL    HW288875   0.006   1.908  10.656
29015SOL     OW88876   1.146   9.526   8.808
29015SOL    HW188877   1.176   9.558   8.893
29015SOL    HW288878   1.053   9.511   8.820
29016SOL     OW88879   6.680   2.997   8.698
29016SOL    HW188880   6.665   2.924   8.638
29016SOL    HW288881   6.594   3.040   8.705
29017SOL     OW88882   0.079  13.392   6.823
29017SOL    HW188883   0.024  13.459   6.783
29017SOL    HW288884   0.023  13.315   6.830
29018SOL     OW88885   4.161  12.769   3.119
29018SOL    HW188886   4.133  12.732   3.035
29018SOL    HW288887   4.256  12.758   3.120
29019SOL     OW88888  12.114  14.748  10.291
29019SOL    HW188889  12.022  14.746  10.318
29019SOL    HW288890  12.134  14.658  10.267
29020SOL     OW88891  14.773   7.672   8.771
29020SOL    HW188892  14.758   7.588   8.729
29020SOL    HW288893  14.761   7.737   8.701
29021SOL     OW88894   9.506   2.367   5.172
29021SOL    HW188895   9.549   2.282   5.188
29021SOL    HW288896   9.546   2.399   5.091
29022SOL     OW88897  10.630   7.297  11.881
29022SOL    HW188898  10.610   7.204  11.883
29022SOL    HW288899  10.726   7.302  11.889
29023SOL     OW88900   4.422   9.817   1.364
29023SOL    HW188901   4.445   9.909   1.372
29023SOL    HW288902   4.340   9.817   1.313
29024SOL     OW88903   0.242  12.310   6.605
29024SOL    HW188904   0.280  12.273   6.525
29024SOL    HW288905   0.160  12.263   6.617
29025SOL     OW88906   8.498   5.875  10.624
29025SOL    HW188907   8.444   5.850  10.550
29025SOL    HW288908   8.460   5.829  10.699
29026SOL     OW88909   4.567   4.438   3.853
29026SOL    HW188910   4.658   4.445   3.823
29026SOL    HW288911   4.540   4.528   3.870
29027SOL     OW88912  10.880   8.724   4.887
29027SOL    HW188913  10.891   8.665   4.961
29027SOL    HW288914  10.942   8.795   4.903
29028SOL     OW88915   1.674  12.606  13.824
29028SOL    HW188916   1.652  12.692  13.858
29028SOL    HW288917   1.686  12.552  13.902
29029SOL     OW88918   4.899  12.163   2.739
29029SOL    HW188919   4.846  12.210   2.803
29029SOL    HW288920   4.891  12.071   2.764
29030SOL     OW88921   9.991   0.325  14.449
29030SOL    HW188922   9.947   0.247  14.483
29030SOL    HW288923   9.933   0.397  14.473
29031SOL     OW88924  12.106   8.759   3.802
29031SOL    HW188925  12.028   8.784   3.752
29031SOL    HW288926  12.072   8.733   3.887
29032SOL     OW88927   4.116  10.956   1.829
29032SOL    HW188928   4.203  10.942   1.792
29032SOL    HW288929   4.108  11.051   1.836
29033SOL     OW88930   5.382   5.633   2.196
29033SOL    HW188931   5.452   5.616   2.133
29033SOL    HW288932   5.396   5.723   2.225
29034SOL     OW88933   0.691  13.348   8.867
29034SOL    HW188934   0.756  13.325   8.801
29034SOL    HW288935   0.634  13.271   8.873
29035SOL     OW88936   4.891   8.368  14.589
29035SOL    HW188937   4.802   8.394  14.568
29035SOL    HW288938   4.936   8.449  14.612
29036SOL     OW88939   3.035   6.115   5.691
29036SOL    HW188940   3.092   6.048   5.653
29036SOL    HW288941   3.011   6.081   5.777
29037SOL     OW88942   9.676  12.448   3.366
29037SOL    HW188943   9.700  12.440   3.458
29037SOL    HW288944   9.603  12.388   3.355
29038SOL     OW88945   6.104  13.134  13.817
29038SOL    HW188946   6.140  13.130  13.906
29038SOL    HW288947   6.027  13.078  13.820
29039SOL     OW88948   6.949  11.836   6.554
29039SOL    HW188949   6.877  11.778   6.577
29039SOL    HW288950   6.908  11.920   6.535
29040SOL     OW88951   8.930  11.607   2.538
29040SOL    HW188952   9.013  11.558   2.532
29040SOL    HW288953   8.908  11.603   2.631
29041SOL     OW88954   0.939   9.440  12.837
29041SOL    HW188955   0.891   9.365  12.803
29041SOL    HW288956   0.882   9.515  12.822
29042SOL     OW88957   5.450  12.057   7.260
29042SOL    HW188958   5.375  11.998   7.252
29042SOL    HW288959   5.422  12.123   7.324
29043SOL     OW88960  12.367   0.554   7.411
29043SOL    HW188961  12.443   0.507   7.444
29043SOL    HW288962  12.314   0.486   7.369
29044SOL     OW88963  11.752  13.129   2.526
29044SOL    HW188964  11.773  13.178   2.606
29044SOL    HW288965  11.657  13.135   2.518
29045SOL     OW88966   3.619   0.705   9.907
29045SOL    HW188967   3.605   0.716   9.812
29045SOL    HW288968   3.542   0.657   9.937
29046SOL     OW88969   0.808  10.831   3.222
29046SOL    HW188970   0.862  10.783   3.284
29046SOL    HW288971   0.787  10.768   3.153
29047SOL     OW88972   6.160  14.589  10.925
29047SOL    HW188973   6.135  14.519  10.865
29047SOL    HW288974   6.087  14.651  10.922
29048SOL     OW88975  12.622   2.632   2.403
29048SOL    HW188976  12.678   2.640   2.325
29048SOL    HW288977  12.618   2.538   2.419
29049SOL     OW88978  14.714   0.098  12.562
29049SOL    HW188979  14.787   0.042  12.535
29049SOL    HW288980  14.680   0.135  12.481
29050SOL     OW88981   0.458   6.939   2.313
29050SOL    HW188982   0.477   6.973   2.226
29050SOL    HW288983   0.474   7.014   2.371
29051SOL     OW88984   5.084   0.083   6.435
29051SOL    HW188985   5.074   0.073   6.530
29051SOL    HW288986   5.169   0.125   6.425
29052SOL     OW88987  12.298   5.788   6.440
29052SOL    HW188988  12.264   5.729   6.507
29052SOL    HW288989  12.300   5.736   6.360
29053SOL     OW88990   8.234   6.834   3.540
29053SOL    HW188991   8.173   6.839   3.467
29053SOL    HW288992   8.277   6.919   3.541
29054SOL     OW88993   5.625   3.998  12.385
29054SOL    HW188994   5.707   3.976  12.342
29054SOL    HW288995   5.602   4.085  12.352
29055SOL     OW88996   5.913  14.724  14.781
29055SOL    HW188997   5.840  14.663  14.773
29055SOL    HW288998   5.975  14.679  14.839
29056SOL     OW88999   1.313   7.816  13.946
29056SOL    HW189000   1.403   7.784  13.940
29056SOL    HW289001   1.309   7.863  14.029
29057SOL     OW89002  14.158   7.568   4.836
29057SOL    HW189003  14.175   7.629   4.908
29057SOL    HW289004  14.069   7.536   4.852
29058SOL     OW89005   4.217   1.539  14.617
29058SOL    HW189006   4.193   1.632  14.610
29058SOL    HW289007   4.256   1.518  14.532
29059SOL     OW89008   7.767   6.365  11.589
29059SOL    HW189009   7.755   6.300  11.519
29059SOL    HW289010   7.726   6.444  11.555
29060SOL     OW89011   3.635   8.038  14.223
29060SOL    HW189012   3.624   8.133  14.221
29060SOL    HW289013   3.546   8.003  14.235
29061SOL     OW89014   3.381  14.316  14.306
29061SOL    HW189015   3.356  14.247  14.367
29061SOL    HW289016   3.298  14.346  14.269
29062SOL     OW89017   9.921   2.979   5.784
29062SOL    HW189018   9.907   3.056   5.729
29062SOL    HW289019   9.835   2.939   5.792
29063SOL     OW89020  11.639   4.581   4.483
29063SOL    HW189021  11.595   4.497   4.465
29063SOL    HW289022  11.617   4.636   4.409
29064SOL     OW89023   6.421   4.306   8.210
29064SOL    HW189024   6.409   4.369   8.281
29064SOL    HW289025   6.491   4.249   8.240
29065SOL     OW89026   3.184  14.191  12.374
29065SOL    HW189027   3.117  14.259  12.365
29065SOL    HW289028   3.169  14.153  12.460
29066SOL     OW89029   6.319   1.191  11.582
29066SOL    HW189030   6.319   1.191  11.486
29066SOL    HW289031   6.266   1.115  11.606
29067SOL     OW89032  11.238  10.925   7.303
29067SOL    HW189033  11.175  10.896   7.237
29067SOL    HW289034  11.313  10.957   7.252
29068SOL     OW89035  12.022   0.593   2.720
29068SOL    HW189036  12.039   0.506   2.755
29068SOL    HW289037  12.102   0.615   2.672
29069SOL     OW89038   6.421  13.692   7.015
29069SOL    HW189039   6.360  13.700   6.942
29069SOL    HW289040   6.454  13.602   7.009
29070SOL     OW89041  10.549  13.453   7.349
29070SOL    HW189042  10.495  13.453   7.428
29070SOL    HW289043  10.522  13.532   7.302
29071SOL     OW89044  11.602   8.512   3.661
29071SOL    HW189045  11.598   8.600   3.624
29071SOL    HW289046  11.556   8.457   3.598
29072SOL     OW89047  10.414  10.697  13.121
29072SOL    HW189048  10.319  10.705  13.126
29072SOL    HW289049  10.440  10.658  13.204
29073SOL     OW89050   5.472   5.845   0.715
29073SOL    HW189051   5.531   5.920   0.707
29073SOL    HW289052   5.433   5.854   0.802
29074SOL     OW89053   2.600   0.813  12.576
29074SOL    HW189054   2.669   0.750  12.597
29074SOL    HW289055   2.543   0.766  12.515
29075SOL     OW89056   6.498  14.322   5.319
29075SOL    HW189057   6.551  14.266   5.263
29075SOL    HW289058   6.488  14.272   5.400
29076SOL     OW89059   3.125   3.535   9.424
29076SOL    HW189060   3.075   3.463   9.461
29076SOL    HW289061   3.204   3.494   9.390
29077SOL     OW89062   4.542   9.006  11.073
29077SOL    HW189063   4.569   8.928  11.023
29077SOL    HW289064   4.475   9.047  11.018
29078SOL     OW89065   8.567  14.687   2.481
29078SOL    HW189066   8.472  14.675   2.493
29078SOL    HW289067   8.607  14.642   2.555
29079SOL     OW89068   8.033   3.628  14.210
29079SOL    HW189069   7.955   3.577  14.187
29079SOL    HW289070   8.000   3.716  14.227
29080SOL     OW89071  13.632   1.330   2.601
29080SOL    HW189072  13.598   1.277   2.673
29080SOL    HW289073  13.631   1.270   2.526
29081SOL     OW89074  10.047   3.520   1.018
29081SOL    HW189075  10.108   3.544   1.088
29081SOL    HW289076   9.961   3.539   1.055
29082SOL     OW89077  12.945  13.800   9.455
29082SOL    HW189078  13.039  13.787   9.467
29082SOL    HW289079  12.920  13.859   9.526
29083SOL     OW89080   1.272  11.548   3.108
29083SOL    HW189081   1.311  11.522   3.191
29083SOL    HW289082   1.299  11.480   3.046
29084SOL     OW89083  11.702   9.442  12.168
29084SOL    HW189084  11.665   9.378  12.107
29084SOL    HW289085  11.690   9.402  12.254
29085SOL     OW89086   0.163   0.325   1.556
29085SOL    HW189087   0.178   0.419   1.570
29085SOL    HW289088   0.241   0.296   1.509
29086SOL     OW89089   2.816  10.811   8.739
29086SOL    HW189090   2.870  10.878   8.696
29086SOL    HW289091   2.879  10.745   8.769
29087SOL     OW89092   0.215   9.790  11.171
29087SOL    HW189093   0.201   9.855  11.103
29087SOL    HW289094   0.264   9.720  11.128
29088SOL     OW89095   1.179   9.742  10.985
29088SOL    HW189096   1.224   9.803  10.927
29088SOL    HW289097   1.145   9.674  10.927
29089SOL     OW89098  14.785  10.832   4.978
29089SOL    HW189099  14.694  10.821   5.007
29089SOL    HW289100  14.783  10.811   4.885
29090SOL     OW89101   4.987  11.916   7.799
29090SOL    HW189102   4.975  11.836   7.747
29090SOL    HW289103   4.942  11.897   7.881
29091SOL     OW89104  10.202  14.207   1.857
29091SOL    HW189105  10.208  14.297   1.826
29091SOL    HW289106  10.250  14.156   1.791
29092SOL     OW89107   5.992   1.000  13.411
29092SOL    HW189108   5.931   1.062  13.371
29092SOL    HW289109   6.002   0.930  13.345
29093SOL     OW89110   4.326  12.363   0.864
29093SOL    HW189111   4.387  12.316   0.922
29093SOL    HW289112   4.356  12.343   0.776
29094SOL     OW89113   5.674   3.650  11.716
29094SOL    HW189114   5.614   3.691  11.779
29094SOL    HW289115   5.759   3.688  11.737
29095SOL     OW89116   6.360   4.898   3.260
29095SOL    HW189117   6.270   4.891   3.229
29095SOL    HW289118   6.354   4.886   3.355
29096SOL     OW89119   3.874  14.151   6.690
29096SOL    HW189120   3.895  14.134   6.782
29096SOL    HW289121   3.869  14.247   6.684
29097SOL     OW89122  10.340   1.879   3.430
29097SOL    HW189123  10.387   1.824   3.494
29097SOL    HW289124  10.250   1.880   3.461
29098SOL     OW89125   0.432   6.600   7.023
29098SOL    HW189126   0.410   6.596   7.116
29098SOL    HW289127   0.349   6.581   6.979
29099SOL     OW89128   5.648   3.984   2.709
29099SOL    HW189129   5.656   3.889   2.712
29099SOL    HW289130   5.596   4.002   2.630
29100SOL     OW89131   4.529   9.582   9.252
29100SOL    HW189132   4.451   9.573   9.306
29100SOL    HW289133   4.597   9.613   9.312
29101SOL     OW89134   0.007  10.835  10.231
29101SOL    HW189135  14.855  10.887  10.307
29101SOL    HW289136  14.861  10.891  10.156
29102SOL     OW89137   7.977   6.955  11.085
29102SOL    HW189138   7.999   7.012  11.158
29102SOL    HW289139   7.881   6.952  11.085
29103SOL     OW89140   3.892   3.891   1.273
29103SOL    HW189141   3.913   3.966   1.328
29103SOL    HW289142   3.946   3.902   1.195
29104SOL     OW89143   7.218   9.394   0.863
29104SOL    HW189144   7.175   9.479   0.857
29104SOL    HW289145   7.304   9.413   0.902
29105SOL     OW89146  11.679   4.113   4.339
29105SOL    HW189147  11.610   4.046   4.345
29105SOL    HW289148  11.692   4.142   4.429
29106SOL     OW89149  13.147   2.811  13.136
29106SOL    HW189150  13.107   2.745  13.193
29106SOL    HW289151  13.079   2.876  13.124
29107SOL     OW89152   8.770   1.109  12.826
29107SOL    HW189153   8.819   1.132  12.904
29107SOL    HW289154   8.756   1.193  12.781
29108SOL     OW89155  12.702   4.990   8.319
29108SOL    HW189156  12.792   4.961   8.332
29108SOL    HW289157  12.709   5.063   8.257
29109SOL     OW89158   0.100   9.576  13.124
29109SOL    HW189159   0.055   9.618  13.050
29109SOL    HW289160   0.076   9.483  13.117
29110SOL     OW89161  12.060  13.985   3.475
29110SOL    HW189162  12.022  14.016   3.393
29110SOL    HW289163  12.030  14.047   3.541
29111SOL     OW89164   3.935   2.783  13.360
29111SOL    HW189165   3.840   2.791  13.360
29111SOL    HW289166   3.966   2.863  13.403
29112SOL     OW89167  11.658   1.794   5.594
29112SOL    HW189168  11.569   1.758   5.599
29112SOL    HW289169  11.645   1.888   5.583
29113SOL     OW89170  11.226  11.148   0.075
29113SOL    HW189171  11.192  11.182  14.864
29113SOL    HW289172  11.148  11.124   0.125
29114SOL     OW89173  13.235   3.205  10.246
29114SOL    HW189174  13.306   3.257  10.283
29114SOL    HW289175  13.257   3.195  10.154
29115SOL     OW89176   5.492  12.194   8.573
29115SOL    HW189177   5.536  12.109   8.576
29115SOL    HW289178   5.514  12.235   8.657
29116SOL     OW89179   9.148   8.902  12.929
29116SOL    HW189180   9.236   8.939  12.932
29116SOL    HW289181   9.103   8.952  12.861
29117SOL     OW89182  10.599   9.176   0.847
29117SOL    HW189183  10.527   9.223   0.889
29117SOL    HW289184  10.619   9.226   0.768
29118SOL     OW89185   3.243   4.259   8.010
29118SOL    HW189186   3.310   4.273   7.943
29118SOL    HW289187   3.238   4.164   8.020
29119SOL     OW89188  14.343   2.153   4.014
29119SOL    HW189189  14.281   2.184   3.947
29119SOL    HW289190  14.322   2.204   4.092
29120SOL     OW89191   2.335   1.610   6.691
29120SOL    HW189192   2.361   1.600   6.783
29120SOL    HW289193   2.405   1.567   6.642
29121SOL     OW89194   5.804   9.763   1.174
29121SOL    HW189195   5.852   9.731   1.097
29121SOL    HW289196   5.714   9.775   1.143
29122SOL     OW89197  14.111  14.049  13.476
29122SOL    HW189198  14.052  13.983  13.512
29122SOL    HW289199  14.150  14.090  13.553
29123SOL     OW89200  14.267  12.279   7.066
29123SOL    HW189201  14.219  12.348   7.021
29123SOL    HW289202  14.308  12.322   7.141
29124SOL     OW89203   6.526  13.872   9.398
29124SOL    HW189204   6.485  13.910   9.320
29124SOL    HW289205   6.453  13.854   9.457
29125SOL     OW89206   1.109   4.828   4.638
29125SOL    HW189207   1.192   4.861   4.602
29125SOL    HW289208   1.123   4.828   4.733
29126SOL     OW89209   9.716   0.411   1.311
29126SOL    HW189210   9.754   0.476   1.252
29126SOL    HW289211   9.654   0.362   1.257
29127SOL     OW89212  11.742   1.536   5.658
29127SOL    HW189213  11.784   1.504   5.578
29127SOL    HW289214  11.709   1.623   5.635
29128SOL     OW89215  14.163   1.865  13.238
29128SOL    HW189216  14.244   1.832  13.201
29128SOL    HW289217  14.174   1.854  13.333
29129SOL     OW89218   3.194   7.173  13.953
29129SOL    HW189219   3.283   7.140  13.966
29129SOL    HW289220   3.144   7.137  14.026
29130SOL     OW89221   0.321   9.426   2.871
29130SOL    HW189222   0.338   9.447   2.780
29130SOL    HW289223   0.328   9.509   2.917
29131SOL     OW89224   5.895   3.297   3.885
29131SOL    HW189225   5.855   3.226   3.835
29131SOL    HW289226   5.835   3.313   3.958
29132SOL     OW89227  12.007  11.498   9.202
29132SOL    HW189228  11.994  11.497   9.297
29132SOL    HW289229  11.998  11.590   9.178
29133SOL     OW89230  11.676   2.590   0.635
29133SOL    HW189231  11.628   2.668   0.664
29133SOL    HW289232  11.633   2.563   0.555
29134SOL     OW89233   2.218  12.842  10.465
29134SOL    HW189234   2.202  12.917  10.523
29134SOL    HW289235   2.309  12.818  10.482
29135SOL     OW89236  10.264  14.792   6.385
29135SOL    HW189237  10.319  14.836   6.450
29135SOL    HW289238  10.178  14.832   6.394
29136SOL     OW89239  14.814   5.052   6.191
29136SOL    HW189240  14.833   4.963   6.220
29136SOL    HW289241   0.013   5.074   6.132
29137SOL     OW89242  12.845   5.295   0.985
29137SOL    HW189243  12.788   5.371   0.970
29137SOL    HW289244  12.793   5.238   1.042
29138SOL     OW89245   0.674  12.634   5.872
29138SOL    HW189246   0.737  12.698   5.905
29138SOL    HW289247   0.675  12.646   5.777
29139SOL     OW89248   6.096   1.737   5.745
29139SOL    HW189249   6.147   1.682   5.805
29139SOL    HW289250   6.151   1.744   5.667
29140SOL     OW89251   3.140   6.224  12.872
29140SOL    HW189252   3.078   6.288  12.838
29140SOL    HW289253   3.147   6.158  12.804
29141SOL     OW89254  13.519   3.313  14.249
29141SOL    HW189255  13.586   3.359  14.299
29141SOL    HW289256  13.566   3.241  14.206
29142SOL     OW89257   2.994   3.818   4.414
29142SOL    HW189258   3.040   3.766   4.480
29142SOL    HW289259   2.905   3.825   4.447
29143SOL     OW89260   5.697   5.594   5.765
29143SOL    HW189261   5.716   5.666   5.705
29143SOL    HW289262   5.691   5.636   5.851
29144SOL     OW89263   4.174  12.215   9.969
29144SOL    HW189264   4.257  12.182   9.937
29144SOL    HW289265   4.181  12.208  10.065
29145SOL     OW89266   9.443  12.312   3.398
29145SOL    HW189267   9.456  12.297   3.492
29145SOL    HW289268   9.421  12.226   3.362
29146SOL     OW89269  12.118  11.659   6.907
29146SOL    HW189270  12.048  11.667   6.842
29146SOL    HW289271  12.098  11.726   6.972
29147SOL     OW89272   9.574   0.715  11.952
29147SOL    HW189273   9.619   0.724  12.036
29147SOL    HW289274   9.491   0.760  11.964
29148SOL     OW89275  11.150  11.488  11.328
29148SOL    HW189276  11.087  11.553  11.297
29148SOL    HW289277  11.100  11.406  11.333
29149SOL     OW89278   7.639   2.581   4.217
29149SOL    HW189279   7.564   2.639   4.233
29149SOL    HW289280   7.619   2.539   4.133
29150SOL     OW89281   5.864   2.393   3.955
29150SOL    HW189282   5.889   2.476   3.995
29150SOL    HW289283   5.938   2.370   3.899
29151SOL     OW89284  12.027  11.050   2.249
29151SOL    HW189285  12.121  11.068   2.259
29151SOL    HW289286  12.014  11.048   2.154
29152SOL     OW89287   9.049  14.830   3.245
29152SOL    HW189288   9.049  14.821   3.340
29152SOL    HW289289   9.141  14.822   3.220
29153SOL     OW89290   3.720  10.267   0.826
29153SOL    HW189291   3.683  10.182   0.804
29153SOL    HW289292   3.796  10.247   0.881
29154SOL     OW89293  12.138  12.846   6.729
29154SOL    HW189294  12.071  12.778   6.734
29154SOL    HW289295  12.152  12.873   6.820
29155SOL     OW89296  12.758  14.585  10.698
29155SOL    HW189297  12.743  14.513  10.637
29155SOL    HW289298  12.794  14.544  10.776
29156SOL     OW89299   6.192  11.854  13.307
29156SOL    HW189300   6.235  11.816  13.384
29156SOL    HW289301   6.160  11.939  13.337
29157SOL     OW89302  10.059   6.540   7.507
29157SOL    HW189303   9.987   6.534   7.570
29157SOL    HW289304  10.138   6.547   7.561
29158SOL     OW89305   7.064  14.679   3.312
29158SOL    HW189306   7.116  14.602   3.334
29158SOL    HW289307   7.124  14.737   3.266
29159SOL     OW89308  11.252   6.849   0.001
29159SOL    HW189309  11.197   6.846  14.794
29159SOL    HW289310  11.334   6.808  14.846
29160SOL     OW89311   1.001   1.019   5.609
29160SOL    HW189312   0.988   1.029   5.515
29160SOL    HW289313   0.926   1.065   5.649
29161SOL     OW89314   0.718  10.359   2.082
29161SOL    HW189315   0.695  10.421   2.151
29161SOL    HW289316   0.814  10.354   2.085
29162SOL     OW89317   1.083  14.847   1.767
29162SOL    HW189318   1.122  14.800   1.693
29162SOL    HW289319   1.156   0.023   1.806
29163SOL     OW89320  11.097   2.536   9.809
29163SOL    HW189321  11.069   2.521   9.719
29163SOL    HW289322  11.078   2.454   9.855
29164SOL     OW89323   0.357   4.049   5.939
29164SOL    HW189324   0.295   3.984   5.909
29164SOL    HW289325   0.419   4.000   5.993
29165SOL     OW89326   2.058   1.072  11.864
29165SOL    HW189327   1.967   1.082  11.893
29165SOL    HW289328   2.110   1.112  11.933
29166SOL     OW89329   0.526   5.407   6.739
29166SOL    HW189330   0.595   5.473   6.739
29166SOL    HW289331   0.457   5.444   6.794
29167SOL     OW89332  10.944   5.961   4.160
29167SOL    HW189333  11.017   6.013   4.127
29167SOL    HW289334  10.967   5.871   4.139
29168SOL     OW89335   8.698   7.134  13.766
29168SOL    HW189336   8.654   7.050  13.750
29168SOL    HW289337   8.786   7.121  13.733
29169SOL     OW89338   9.488   5.286   3.512
29169SOL    HW189339   9.509   5.211   3.456
29169SOL    HW289340   9.562   5.292   3.573
29170SOL     OW89341   5.743   6.072   2.176
29170SOL    HW189342   5.782   5.985   2.188
29170SOL    HW289343   5.652   6.062   2.205
29171SOL     OW89344  13.409   5.856   3.393
29171SOL    HW189345  13.342   5.881   3.456
29171SOL    HW289346  13.447   5.939   3.364
29172SOL     OW89347   2.601   4.434   3.563
29172SOL    HW189348   2.687   4.403   3.535
29172SOL    HW289349   2.549   4.436   3.483
29173SOL     OW89350   0.113  14.082  12.996
29173SOL    HW189351   0.145  13.998  12.963
29173SOL    HW289352   0.115  14.072  13.091
29174SOL     OW89353   0.858   3.793   8.801
29174SOL    HW189354   0.762   3.791   8.805
29174SOL    HW289355   0.886   3.726   8.864
29175SOL     OW89356   7.768  11.791   1.697
29175SOL    HW189357   7.782  11.707   1.743
29175SOL    HW289358   7.679  11.817   1.722
29176SOL     OW89359  13.872   9.598   0.931
29176SOL    HW189360  13.809   9.526   0.929
29176SOL    HW289361  13.937   9.574   0.865
29177SOL     OW89362   4.774   3.817   7.230
29177SOL    HW189363   4.797   3.847   7.142
29177SOL    HW289364   4.684   3.846   7.243
29178SOL     OW89365  10.403  12.593   3.765
29178SOL    HW189366  10.365  12.594   3.853
29178SOL    HW289367  10.338  12.638   3.711
29179SOL     OW89368   0.372   2.442  12.958
29179SOL    HW189369   0.284   2.474  12.939
29179SOL    HW289370   0.360   2.350  12.980
29180SOL     OW89371   2.844   0.963   5.031
29180SOL    HW189372   2.815   1.012   4.953
29180SOL    HW289373   2.914   0.906   4.999
29181SOL     OW89374   5.527   8.576   6.361
29181SOL    HW189375   5.466   8.646   6.337
29181SOL    HW289376   5.551   8.596   6.452
29182SOL     OW89377  11.865   8.309   8.893
29182SOL    HW189378  11.901   8.354   8.970
29182SOL    HW289379  11.770   8.315   8.904
29183SOL     OW89380   9.055   2.364   4.783
29183SOL    HW189381   8.981   2.313   4.750
29183SOL    HW289382   9.019   2.452   4.795
29184SOL     OW89383   1.673   2.432  11.045
29184SOL    HW189384   1.602   2.490  11.015
29184SOL    HW289385   1.729   2.422  10.969
29185SOL     OW89386   2.365   6.490   2.762
29185SOL    HW189387   2.338   6.405   2.725
29185SOL    HW289388   2.370   6.548   2.687
29186SOL     OW89389   2.881   4.330   4.835
29186SOL    HW189390   2.831   4.323   4.917
29186SOL    HW289391   2.925   4.415   4.841
29187SOL     OW89392  10.917   9.819   7.309
29187SOL    HW189393  11.001   9.781   7.285
29187SOL    HW289394  10.879   9.758   7.372
29188SOL     OW89395   3.105  12.786   6.866
29188SOL    HW189396   3.016  12.820   6.864
29188SOL    HW289397   3.110  12.725   6.793
29189SOL     OW89398   4.495  12.142   4.011
29189SOL    HW189399   4.587  12.170   4.010
29189SOL    HW289400   4.445  12.223   4.011
29190SOL     OW89401  12.375   3.626   1.035
29190SOL    HW189402  12.380   3.551   0.975
29190SOL    HW289403  12.445   3.685   1.005
29191SOL     OW89404  12.810   7.190   6.059
29191SOL    HW189405  12.795   7.157   6.148
29191SOL    HW289406  12.725   7.186   6.017
29192SOL     OW89407  14.460   5.852   8.920
29192SOL    HW189408  14.391   5.913   8.944
29192SOL    HW289409  14.434   5.820   8.833
29193SOL     OW89410  14.263   7.163   1.581
29193SOL    HW189411  14.184   7.182   1.631
29193SOL    HW289412  14.257   7.219   1.504
29194SOL     OW89413  14.680  14.808   9.103
29194SOL    HW189414  14.726  14.780   9.024
29194SOL    HW289415  14.587  14.796   9.084
29195SOL     OW89416  11.559   7.975   9.128
29195SOL    HW189417  11.511   7.932   9.199
29195SOL    HW289418  11.509   7.954   9.050
29196SOL     OW89419   2.404   5.174   7.496
29196SOL    HW189420   2.309   5.171   7.497
29196SOL    HW289421   2.428   5.208   7.582
29197SOL     OW89422   4.577  14.700   7.230
29197SOL    HW189423   4.650  14.680   7.171
29197SOL    HW289424   4.501  14.702   7.173
29198SOL     OW89425   6.536   9.622   8.134
29198SOL    HW189426   6.611   9.635   8.076
29198SOL    HW289427   6.496   9.541   8.103
29199SOL     OW89428   5.840   3.356   9.995
29199SOL    HW189429   5.885   3.277   9.966
29199SOL    HW289430   5.785   3.380   9.920
29200SOL     OW89431  13.540   8.497  14.224
29200SOL    HW189432  13.583   8.494  14.309
29200SOL    HW289433  13.603   8.458  14.163
29201SOL     OW89434   9.952   4.909  12.167
29201SOL    HW189435   9.997   4.878  12.088
29201SOL    HW289436   9.932   5.001  12.149
29202SOL     OW89437   9.824   7.413   7.867
29202SOL    HW189438   9.878   7.376   7.937
29202SOL    HW289439   9.757   7.463   7.913
29203SOL     OW89440   0.010   7.120   9.758
29203SOL    HW189441  14.850   7.137   9.846
29203SOL    HW289442  14.812   7.150   9.700
29204SOL     OW89443   5.698   2.173   8.994
29204SOL    HW189444   5.772   2.141   8.943
29204SOL    HW289445   5.727   2.168   9.085
29205SOL     OW89446   2.647   7.758  14.223
29205SOL    HW189447   2.652   7.853  14.233
29205SOL    HW289448   2.652   7.724  14.312
29206SOL     OW89449  12.887   0.206   7.133
29206SOL    HW189450  12.800   0.240   7.156
29206SOL    HW289451  12.886   0.202   7.038
29207SOL     OW89452  11.327  13.497   7.195
29207SOL    HW189453  11.405  13.450   7.224
29207SOL    HW289454  11.332  13.582   7.239
29208SOL     OW89455   2.231  12.849  10.183
29208SOL    HW189456   2.213  12.762  10.147
29208SOL    HW289457   2.212  12.841  10.276
29209SOL     OW89458   7.259   8.464   2.050
29209SOL    HW189459   7.316   8.517   2.105
29209SOL    HW289460   7.176   8.511   2.049
29210SOL     OW89461   8.942   5.978   7.944
29210SOL    HW189462   8.971   5.995   7.855
29210SOL    HW289463   8.853   6.015   7.947
29211SOL     OW89464   1.775  10.123  13.710
29211SOL    HW189465   1.863  10.092  13.731
29211SOL    HW289466   1.718  10.050  13.732
29212SOL     OW89467   9.050   1.329   1.192
29212SOL    HW189468   9.101   1.267   1.139
29212SOL    HW289469   9.057   1.412   1.144
29213SOL     OW89470  12.655   9.276  11.307
29213SOL    HW189471  12.576   9.315  11.268
29213SOL    HW289472  12.684   9.342  11.371
29214SOL     OW89473   8.969   4.835   8.928
29214SOL    HW189474   9.062   4.818   8.913
29214SOL    HW289475   8.941   4.765   8.987
29215SOL     OW89476   1.634   3.040  10.345
29215SOL    HW189477   1.690   3.118  10.350
29215SOL    HW289478   1.678   2.976  10.400
29216SOL     OW89479   5.139  11.012   5.853
29216SOL    HW189480   5.232  10.995   5.869
29216SOL    HW289481   5.132  11.023   5.759
29217SOL     OW89482   8.235   7.196  11.659
29217SOL    HW189483   8.294   7.257  11.616
29217SOL    HW289484   8.147   7.229  11.638
29218SOL     OW89485  13.750  12.887   1.316
29218SOL    HW189486  13.730  12.809   1.368
29218SOL    HW289487  13.830  12.864   1.269
29219SOL     OW89488  11.110   9.323   0.706
29219SOL    HW189489  11.019   9.349   0.719
29219SOL    HW289490  11.105   9.246   0.649
29220SOL     OW89491   2.438  11.521   1.732
29220SOL    HW189492   2.418  11.539   1.824
29220SOL    HW289493   2.534  11.517   1.729
29221SOL     OW89494   6.042   4.666  14.579
29221SOL    HW189495   5.956   4.700  14.554
29221SOL    HW289496   6.104   4.731  14.546
29222SOL     OW89497  14.207   1.304  12.663
29222SOL    HW189498  14.121   1.334  12.633
29222SOL    HW289499  14.243   1.256  12.588
29223SOL     OW89500  12.162   3.564  13.659
29223SOL    HW189501  12.100   3.600  13.722
29223SOL    HW289502  12.150   3.619  13.581
29224SOL     OW89503   0.759   2.284  13.446
29224SOL    HW189504   0.736   2.337  13.370
29224SOL    HW289505   0.821   2.337  13.495
29225SOL     OW89506  11.516   3.606   2.196
29225SOL    HW189507  11.540   3.696   2.176
29225SOL    HW289508  11.589   3.574   2.250
29226SOL     OW89509   0.917   3.543   5.982
29226SOL    HW189510   0.897   3.586   5.899
29226SOL    HW289511   1.009   3.517   5.974
29227SOL     OW89512   0.224   0.547  10.579
29227SOL    HW189513   0.298   0.608  10.580
29227SOL    HW289514   0.262   0.463  10.606
29228SOL     OW89515   3.190   1.940   2.642
29228SOL    HW189516   3.135   1.941   2.721
29228SOL    HW289517   3.232   2.026   2.641
29229SOL     OW89518   6.275   9.199   8.486
29229SOL    HW189519   6.261   9.134   8.417
29229SOL    HW289520   6.236   9.160   8.564
29230SOL     OW89521   5.128   3.397   1.140
29230SOL    HW189522   5.118   3.305   1.162
29230SOL    HW289523   5.162   3.438   1.220
29231SOL     OW89524  14.185   9.639   5.272
29231SOL    HW189525  14.172   9.629   5.366
29231SOL    HW289526  14.115   9.699   5.244
29232SOL     OW89527   4.427   2.257   4.374
29232SOL    HW189528   4.430   2.170   4.334
29232SOL    HW289529   4.349   2.255   4.429
29233SOL     OW89530   1.195   6.537   3.102
29233SOL    HW189531   1.221   6.452   3.067
29233SOL    HW289532   1.249   6.548   3.180
29234SOL     OW89533  10.870   7.505   0.133
29234SOL    HW189534  10.908   7.592   0.133
29234SOL    HW289535  10.943   7.447   0.153
29235SOL     OW89536   2.500   6.526   2.996
29235SOL    HW189537   2.593   6.538   2.976
29235SOL    HW289538   2.457   6.522   2.911
29236SOL     OW89539   0.783   6.190  10.992
29236SOL    HW189540   0.845   6.132  11.036
29236SOL    HW289541   0.819   6.202  10.904
29237SOL     OW89542   7.458   7.430   9.319
29237SOL    HW189543   7.499   7.517   9.326
29237SOL    HW289544   7.522   7.377   9.273
29238SOL     OW89545   3.843  10.825   5.126
29238SOL    HW189546   3.795  10.907   5.114
29238SOL    HW289547   3.915  10.831   5.063
29239SOL     OW89548   3.611  12.901   1.638
29239SOL    HW189549   3.601  12.995   1.629
29239SOL    HW289550   3.663  12.875   1.562
29240SOL     OW89551  11.527  14.053   8.785
29240SOL    HW189552  11.504  13.966   8.751
29240SOL    HW289553  11.534  14.108   8.707
29241SOL     OW89554   2.700   6.567  13.038
29241SOL    HW189555   2.740   6.482  13.056
29241SOL    HW289556   2.661   6.558  12.951
29242SOL     OW89557   7.323   8.507  13.904
29242SOL    HW189558   7.416   8.493  13.884
29242SOL    HW289559   7.309   8.600  13.887
29243SOL     OW89560  10.926   7.999   6.015
29243SOL    HW189561  10.865   7.975   6.085
29243SOL    HW289562  11.009   7.958   6.039
29244SOL     OW89563   0.457  10.593   3.703
29244SOL    HW189564   0.532  10.542   3.733
29244SOL    HW289565   0.494  10.658   3.643
29245SOL     OW89566   4.570   9.759   9.627
29245SOL    HW189567   4.645   9.816   9.607
29245SOL    HW289568   4.607   9.690   9.682
29246SOL     OW89569  14.105  10.747  11.921
29246SOL    HW189570  14.130  10.838  11.940
29246SOL    HW289571  14.012  10.752  11.900
29247SOL     OW89572   8.934   6.835   4.807
29247SOL    HW189573   9.029   6.822   4.809
29247SOL    HW289574   8.915   6.884   4.888
29248SOL     OW89575   3.590   3.991  14.767
29248SOL    HW189576   3.593   3.902  14.731
29248SOL    HW289577   3.680   4.007  14.797
29249SOL     OW89578  14.061  12.346   2.670
29249SOL    HW189579  14.149  12.366   2.637
29249SOL    HW289580  14.003  12.400   2.616
29250SOL     OW89581  10.705   2.919   6.452
29250SOL    HW189582  10.650   2.963   6.517
29250SOL    HW289583  10.642   2.871   6.397
29251SOL     OW89584  12.891  13.327  13.394
29251SOL    HW189585  12.860  13.371  13.473
29251SOL    HW289586  12.983  13.310  13.410
29252SOL     OW89587  10.426   1.250  13.324
29252SOL    HW189588  10.345   1.288  13.358
29252SOL    HW289589  10.496   1.297  13.370
29253SOL     OW89590   8.153  11.855   7.887
29253SOL    HW189591   8.143  11.794   7.814
29253SOL    HW289592   8.105  11.815   7.959
29254SOL     OW89593   8.237  12.579  11.328
29254SOL    HW189594   8.281  12.638  11.390
29254SOL    HW289595   8.303  12.513  11.307
29255SOL     OW89596   2.791  11.025   8.928
29255SOL    HW189597   2.805  10.941   8.884
29255SOL    HW289598   2.723  11.069   8.877
29256SOL     OW89599  12.066   7.803   9.716
29256SOL    HW189600  12.008   7.776   9.645
29256SOL    HW289601  12.015   7.870   9.763
29257SOL     OW89602   6.466  13.381   8.901
29257SOL    HW189603   6.371  13.383   8.889
29257SOL    HW289604   6.483  13.454   8.962
29258SOL     OW89605   5.887   7.899  10.327
29258SOL    HW189606   5.978   7.880  10.350
29258SOL    HW289607   5.893   7.940  10.240
29259SOL     OW89608   1.007  10.064  10.216
29259SOL    HW189609   1.070  10.122  10.173
29259SOL    HW289610   0.922  10.090  10.181
29260SOL     OW89611  12.492   0.628  10.024
29260SOL    HW189612  12.508   0.538   9.998
29260SOL    HW289613  12.579   0.668  10.030
29261SOL     OW89614   4.661   6.989   2.687
29261SOL    HW189615   4.596   6.943   2.632
29261SOL    HW289616   4.730   7.013   2.626
29262SOL     OW89617   9.824  11.133  13.109
29262SOL    HW189618   9.914  11.156  13.087
29262SOL    HW289619   9.830  11.045  13.146
29263SOL     OW89620   8.586   5.857   7.764
29263SOL    HW189621   8.592   5.926   7.697
29263SOL    HW289622   8.569   5.777   7.714
29264SOL     OW89623   1.978  10.899   1.412
29264SOL    HW189624   2.001  10.875   1.502
29264SOL    HW289625   1.937  10.821   1.376
29265SOL     OW89626  10.240   8.548  13.499
29265SOL    HW189627  10.212   8.554  13.407
29265SOL    HW289628  10.196   8.620  13.542
29266SOL     OW89629   7.465  14.498   3.066
29266SOL    HW189630   7.427  14.543   2.991
29266SOL    HW289631   7.518  14.428   3.028
29267SOL     OW89632   9.499   4.137  13.369
29267SOL    HW189633   9.527   4.171  13.284
29267SOL    HW289634   9.581   4.130  13.419
29268SOL     OW89635  12.996   5.151  11.341
29268SOL    HW189636  13.075   5.138  11.394
29268SOL    HW289637  12.929   5.099  11.385
29269SOL     OW89638  13.949   5.407  11.459
29269SOL    HW189639  13.970   5.314  11.464
29269SOL    HW289640  14.024   5.451  11.499
29270SOL     OW89641   1.362   8.503   7.977
29270SOL    HW189642   1.411   8.466   7.904
29270SOL    HW289643   1.271   8.477   7.961
29271SOL     OW89644  10.049   6.281   8.730
29271SOL    HW189645  10.131   6.287   8.778
29271SOL    HW289646  10.067   6.320   8.644
29272SOL     OW89647   1.814   1.018   0.653
29272SOL    HW189648   1.788   1.000   0.563
29272SOL    HW289649   1.736   1.060   0.692
29273SOL     OW89650  12.066  11.196   5.086
29273SOL    HW189651  12.051  11.265   5.150
29273SOL    HW289652  12.046  11.236   5.001
29274SOL     OW89653   2.781  14.439  14.835
29274SOL    HW189654   2.705  14.498  14.838
29274SOL    HW289655   2.749  14.358   0.002
29275SOL     OW89656   5.802  12.495  14.594
29275SOL    HW189657   5.723  12.451  14.625
29275SOL    HW289658   5.798  12.582  14.633
29276SOL     OW89659   5.002   4.135   8.685
29276SOL    HW189660   4.907   4.130   8.677
29276SOL    HW289661   5.034   4.124   8.595
29277SOL     OW89662  14.358   9.021   7.042
29277SOL    HW189663  14.432   9.071   7.077
29277SOL    HW289664  14.387   8.930   7.046
29278SOL     OW89665   3.632   6.557   6.697
29278SOL    HW189666   3.633   6.642   6.741
29278SOL    HW289667   3.671   6.573   6.611
29279SOL     OW89668   1.580   5.133  14.389
29279SOL    HW189669   1.520   5.074  14.344
29279SOL    HW289670   1.652   5.076  14.418
29280SOL     OW89671   2.883   1.158   7.886
29280SOL    HW189672   2.807   1.107   7.915
29280SOL    HW289673   2.936   1.096   7.835
29281SOL     OW89674  12.369  11.197   1.004
29281SOL    HW189675  12.395  11.106   0.988
29281SOL    HW289676  12.356  11.235   0.917
29282SOL     OW89677   1.147   0.015   4.488
29282SOL    HW189678   1.060  14.848   4.491
29282SOL    HW289679   1.206  14.816   4.514
29283SOL     OW89680   9.228  13.183  13.169
29283SOL    HW189681   9.278  13.107  13.137
29283SOL    HW289682   9.269  13.206  13.252
29284SOL     OW89683  13.893   0.644   5.926
29284SOL    HW189684  13.880   0.632   5.832
29284SOL    HW289685  13.818   0.696   5.954
29285SOL     OW89686   8.595  11.154   8.077
29285SOL    HW189687   8.587  11.246   8.052
29285SOL    HW289688   8.677  11.150   8.126
29286SOL     OW89689   1.968   3.941   4.855
29286SOL    HW189690   1.968   3.911   4.945
29286SOL    HW289691   2.031   4.013   4.853
29287SOL     OW89692  12.936   6.736   9.822
29287SOL    HW189693  12.859   6.727   9.766
29287SOL    HW289694  12.947   6.649   9.861
29288SOL     OW89695   6.028   3.696   7.068
29288SOL    HW189696   6.012   3.614   7.115
29288SOL    HW289697   5.996   3.680   6.979
29289SOL     OW89698   2.471   2.670   0.848
29289SOL    HW189699   2.509   2.583   0.856
29289SOL    HW289700   2.394   2.668   0.906
29290SOL     OW89701   6.594   1.489  14.137
29290SOL    HW189702   6.605   1.460  14.046
29290SOL    HW289703   6.646   1.426  14.188
29291SOL     OW89704   5.903   9.952   0.495
29291SOL    HW189705   5.880  10.045   0.498
29291SOL    HW289706   5.821   9.907   0.476
29292SOL     OW89707  13.552   3.511  12.407
29292SOL    HW189708  13.601   3.583  12.446
29292SOL    HW289709  13.505   3.471  12.480
29293SOL     OW89710   2.594   4.568   1.343
29293SOL    HW189711   2.559   4.631   1.407
29293SOL    HW289712   2.524   4.504   1.332
29294SOL     OW89713   6.931  11.298   5.798
29294SOL    HW189714   6.891  11.229   5.745
29294SOL    HW289715   7.022  11.301   5.768
29295SOL     OW89716   7.275  13.334   4.376
29295SOL    HW189717   7.239  13.423   4.372
29295SOL    HW289718   7.199  13.277   4.387
29296SOL     OW89719   4.360   1.959  14.173
29296SOL    HW189720   4.265   1.947  14.173
29296SOL    HW289721   4.388   1.932  14.085
29297SOL     OW89722   7.827  11.347   2.880
29297SOL    HW189723   7.789  11.407   2.944
29297SOL    HW289724   7.792  11.377   2.796
29298SOL     OW89725   7.246  10.571   3.188
29298SOL    HW189726   7.217  10.643   3.132
29298SOL    HW289727   7.303  10.612   3.253
29299SOL     OW89728  11.562  13.407  10.176
29299SOL    HW189729  11.548  13.413  10.081
29299SOL    HW289730  11.655  13.385  10.185
29300SOL     OW89731  12.221   5.359   4.434
29300SOL    HW189732  12.220   5.263   4.440
29300SOL    HW289733  12.128   5.383   4.434
29301SOL     OW89734  11.968   7.861  13.904
29301SOL    HW189735  11.922   7.794  13.853
29301SOL    HW289736  12.061   7.845  13.885
29302SOL     OW89737  11.297  13.916   8.926
29302SOL    HW189738  11.280  13.987   8.988
29302SOL    HW289739  11.348  13.957   8.856
29303SOL     OW89740   7.764  10.028   0.975
29303SOL    HW189741   7.752   9.947   0.924
29303SOL    HW289742   7.856  10.028   0.999
29304SOL     OW89743   4.108  12.779   0.878
29304SOL    HW189744   4.166  12.814   0.811
29304SOL    HW289745   4.166  12.752   0.949
29305SOL     OW89746   3.602  11.196   0.509
29305SOL    HW189747   3.516  11.156   0.494
29305SOL    HW289748   3.614  11.255   0.434
29306SOL     OW89749   7.327   0.124  12.647
29306SOL    HW189750   7.246   0.073  12.649
29306SOL    HW289751   7.297   0.216  12.646
29307SOL     OW89752   2.280   6.626  12.126
29307SOL    HW189753   2.241   6.644  12.040
29307SOL    HW289754   2.342   6.697  12.140
29308SOL     OW89755   5.356   7.744   0.697
29308SOL    HW189756   5.295   7.818   0.695
29308SOL    HW289757   5.415   7.761   0.623
29309SOL     OW89758  14.426   1.339   4.753
29309SOL    HW189759  14.343   1.304   4.785
29309SOL    HW289760  14.448   1.283   4.678
29310SOL     OW89761  11.456   5.570   3.674
29310SOL    HW189762  11.378   5.515   3.673
29310SOL    HW289763  11.491   5.563   3.585
29311SOL     OW89764   2.248  12.990   6.343
29311SOL    HW189765   2.287  12.999   6.430
29311SOL    HW289766   2.263  12.898   6.319
29312SOL     OW89767   2.647   6.662   2.330
29312SOL    HW189768   2.634   6.754   2.355
29312SOL    HW289769   2.733   6.661   2.288
29313SOL     OW89770   3.701   4.865   0.514
29313SOL    HW189771   3.764   4.797   0.489
29313SOL    HW289772   3.618   4.819   0.522
29314SOL     OW89773   3.028   8.245  11.032
29314SOL    HW189774   2.949   8.200  11.003
29314SOL    HW289775   3.013   8.260  11.126
29315SOL     OW89776  14.250   6.670   1.018
29315SOL    HW189777  14.315   6.731   1.053
29315SOL    HW289778  14.289   6.584   1.028
29316SOL     OW89779  13.409  10.103   4.205
29316SOL    HW189780  13.336  10.050   4.238
29316SOL    HW289781  13.482  10.042   4.196
29317SOL     OW89782  13.927   0.794   1.973
29317SOL    HW189783  13.919   0.886   1.945
29317SOL    HW289784  13.997   0.758   1.920
29318SOL     OW89785   2.957   5.128   5.368
29318SOL    HW189786   2.915   5.211   5.389
29318SOL    HW289787   3.050   5.143   5.384
29319SOL     OW89788   3.400  10.989   1.317
29319SOL    HW189789   3.407  11.082   1.340
29319SOL    HW289790   3.309  10.978   1.291
29320SOL     OW89791  11.688   1.999  12.826
29320SOL    HW189792  11.688   2.088  12.860
29320SOL    HW289793  11.770   1.961  12.857
29321SOL     OW89794   8.847   0.449  11.892
29321SOL    HW189795   8.821   0.540  11.879
29321SOL    HW289796   8.836   0.434  11.986
29322SOL     OW89797   3.787  13.733   2.330
29322SOL    HW189798   3.731  13.682   2.273
29322SOL    HW289799   3.780  13.823   2.297
29323SOL     OW89800  10.436   9.809   6.269
29323SOL    HW189801  10.520   9.813   6.314
29323SOL    HW289802  10.416   9.901   6.248
29324SOL     OW89803   3.008  14.360  10.871
29324SOL    HW189804   2.970  14.286  10.822
29324SOL    HW289805   3.006  14.433  10.810
29325SOL     OW89806  12.649   9.263   5.943
29325SOL    HW189807  12.671   9.246   5.851
29325SOL    HW289808  12.634   9.357   5.947
29326SOL     OW89809  14.681   5.056  12.704
29326SOL    HW189810  14.724   5.036  12.621
29326SOL    HW289811  14.696   4.978  12.757
29327SOL     OW89812   0.021  11.326  10.239
29327SOL    HW189813   0.067  11.406  10.212
29327SOL    HW289814   0.032  11.322  10.334
29328SOL     OW89815  13.135   9.394   9.407
29328SOL    HW189816  13.113   9.463   9.345
29328SOL    HW289817  13.052   9.348   9.421
29329SOL     OW89818   5.400   1.227   8.689
29329SOL    HW189819   5.378   1.224   8.596
29329SOL    HW289820   5.322   1.193   8.734
29330SOL     OW89821   6.541  12.357   9.716
29330SOL    HW189822   6.514  12.419   9.783
29330SOL    HW289823   6.635  12.373   9.705
29331SOL     OW89824  14.700  12.526   8.858
29331SOL    HW189825  14.730  12.471   8.786
29331SOL    HW289826  14.686  12.466   8.931
29332SOL     OW89827   7.211  12.652  11.380
29332SOL    HW189828   7.151  12.665  11.454
29332SOL    HW289829   7.176  12.710  11.312
29333SOL     OW89830   7.679   1.305  12.692
29333SOL    HW189831   7.606   1.243  12.700
29333SOL    HW289832   7.640   1.382  12.651
29334SOL     OW89833   2.237   0.323   8.762
29334SOL    HW189834   2.214   0.385   8.692
29334SOL    HW289835   2.323   0.353   8.793
29335SOL     OW89836   3.685   1.860  13.778
29335SOL    HW189837   3.653   1.941  13.817
29335SOL    HW289838   3.674   1.794  13.848
29336SOL     OW89839   8.579   1.692  11.592
29336SOL    HW189840   8.490   1.661  11.571
29336SOL    HW289841   8.575   1.714  11.685
29337SOL     OW89842   1.715   8.734   3.723
29337SOL    HW189843   1.682   8.644   3.722
29337SOL    HW289844   1.705   8.761   3.814
29338SOL     OW89845   7.476   1.374  11.033
29338SOL    HW189846   7.439   1.333  10.955
29338SOL    HW289847   7.407   1.430  11.067
29339SOL     OW89848   1.901  13.799   7.372
29339SOL    HW189849   1.848  13.746   7.432
29339SOL    HW289850   1.978  13.745   7.355
29340SOL     OW89851   3.943   0.298  13.185
29340SOL    HW189852   3.852   0.322  13.168
29340SOL    HW289853   3.943   0.265  13.275
29341SOL     OW89854   8.189   4.960   6.701
29341SOL    HW189855   8.234   4.945   6.617
29341SOL    HW289856   8.109   4.908   6.695
29342SOL     OW89857  10.871   3.489   4.810
29342SOL    HW189858  10.806   3.548   4.772
29342SOL    HW289859  10.937   3.479   4.742
29343SOL     OW89860  11.898   4.212   3.272
29343SOL    HW189861  11.917   4.306   3.262
29343SOL    HW289862  11.864   4.204   3.360
29344SOL     OW89863   9.630   8.883  12.416
29344SOL    HW189864   9.724   8.895  12.429
29344SOL    HW289865   9.607   8.810  12.473
29345SOL     OW89866   6.844  14.847   9.347
29345SOL    HW189867   6.838  14.816   9.438
29345SOL    HW289868   6.781  14.793   9.299
29346SOL     OW89869   5.018   4.395   6.311
29346SOL    HW189870   4.960   4.469   6.295
29346SOL    HW289871   5.101   4.420   6.270
29347SOL     OW89872  11.888   0.768   6.646
29347SOL    HW189873  11.797   0.790   6.668
29347SOL    HW289874  11.940   0.836   6.688
29348SOL     OW89875   4.587   2.307   8.903
29348SOL    HW189876   4.616   2.267   8.821
29348SOL    HW289877   4.604   2.401   8.891
29349SOL     OW89878   7.448  14.485   9.947
29349SOL    HW189879   7.447  14.495  10.042
29349SOL    HW289880   7.360  14.456   9.924
29350SOL     OW89881  11.005   9.561  10.092
29350SOL    HW189882  11.100   9.566  10.098
29350SOL    HW289883  10.987   9.477  10.050
29351SOL     OW89884  14.611  14.110   5.584
29351SOL    HW189885  14.526  14.152   5.575
29351SOL    HW289886  14.675  14.177   5.558
29352SOL     OW89887   8.722   1.634   5.003
29352SOL    HW189888   8.730   1.555   5.056
29352SOL    HW289889   8.714   1.705   5.067
29353SOL     OW89890   9.190   1.135  14.494
29353SOL    HW189891   9.225   1.206  14.440
29353SOL    HW289892   9.154   1.180  14.571
29354SOL     OW89893  14.183   8.565   4.769
29354SOL    HW189894  14.229   8.491   4.729
29354SOL    HW289895  14.109   8.582   4.710
29355SOL     OW89896   5.953   6.578   0.357
29355SOL    HW189897   5.864   6.560   0.325
29355SOL    HW289898   5.999   6.612   0.281
29356SOL     OW89899   5.788   9.503   7.129
29356SOL    HW189900   5.729   9.513   7.203
29356SOL    HW289901   5.734   9.460   7.062
29357SOL     OW89902   3.269   6.317   2.091
29357SOL    HW189903   3.258   6.352   2.002
29357SOL    HW289904   3.355   6.274   2.089
29358SOL     OW89905   8.935   6.300   7.887
29358SOL    HW189906   8.898   6.232   7.830
29358SOL    HW289907   8.945   6.256   7.972
29359SOL     OW89908   4.463   7.834   5.017
29359SOL    HW189909   4.449   7.849   4.923
29359SOL    HW289910   4.555   7.856   5.031
29360SOL     OW89911   8.383  12.779   0.237
29360SOL    HW189912   8.366  12.692   0.273
29360SOL    HW289913   8.326  12.784   0.160
29361SOL     OW89914  14.837  13.743   5.488
29361SOL    HW189915  14.860  13.665   5.437
29361SOL    HW289916  14.800  13.804   5.423
29362SOL     OW89917   2.192   3.071   4.076
29362SOL    HW189918   2.171   3.157   4.041
29362SOL    HW289919   2.141   3.065   4.157
29363SOL     OW89920   2.312   2.478   4.561
29363SOL    HW189921   2.271   2.545   4.507
29363SOL    HW289922   2.378   2.438   4.505
29364SOL     OW89923   1.249  12.654  10.519
29364SOL    HW189924   1.335  12.629  10.554
29364SOL    HW289925   1.221  12.578  10.469
29365SOL     OW89926  13.349   7.347   5.598
29365SOL    HW189927  13.433   7.303   5.609
29365SOL    HW289928  13.368   7.421   5.540
29366SOL     OW89929  10.397   4.489   0.389
29366SOL    HW189930  10.455   4.546   0.441
29366SOL    HW289931  10.332   4.458   0.452
29367SOL     OW89932  11.658   0.564   1.406
29367SOL    HW189933  11.638   0.493   1.345
29367SOL    HW289934  11.729   0.612   1.365
29368SOL     OW89935  11.602   7.090   2.022
29368SOL    HW189936  11.542   7.039   1.968
29368SOL    HW289937  11.548   7.121   2.095
29369SOL     OW89938   8.349   2.016  14.558
29369SOL    HW189939   8.385   2.097  14.596
29369SOL    HW289940   8.299   1.976  14.630
29370SOL     OW89941   8.438  11.481   6.321
29370SOL    HW189942   8.463  11.464   6.412
29370SOL    HW289943   8.492  11.421   6.270
29371SOL     OW89944  12.844  10.832   6.450
29371SOL    HW189945  12.895  10.901   6.490
29371SOL    HW289946  12.850  10.759   6.512
29372SOL     OW89947   3.066   5.685   6.033
29372SOL    HW189948   2.994   5.668   6.093
29372SOL    HW289949   3.091   5.776   6.051
29373SOL     OW89950   5.996   8.250  10.112
29373SOL    HW189951   6.083   8.242  10.074
29373SOL    HW289952   6.008   8.310  10.186
29374SOL     OW89953   1.660  10.055   9.020
29374SOL    HW189954   1.594  10.124   9.016
29374SOL    HW289955   1.716  10.072   8.943
29375SOL     OW89956  14.270   4.222   8.377
29375SOL    HW189957  14.307   4.252   8.294
29375SOL    HW289958  14.201   4.286   8.397
29376SOL     OW89959   1.455  12.002   9.406
29376SOL    HW189960   1.535  11.971   9.448
29376SOL    HW289961   1.394  11.928   9.413
29377SOL     OW89962   7.743   9.721  11.309
29377SOL    HW189963   7.792   9.683  11.382
29377SOL    HW289964   7.750   9.815  11.321
29378SOL     OW89965   9.527  13.267   9.150
29378SOL    HW189966   9.465  13.338   9.165
29378SOL    HW289967   9.522  13.215   9.231
29379SOL     OW89968  14.787  12.767   6.354
29379SOL    HW189969  14.756  12.809   6.274
29379SOL    HW289970  14.866  12.720   6.326
29380SOL     OW89971   6.469  10.328   7.609
29380SOL    HW189972   6.488  10.331   7.703
29380SOL    HW289973   6.555  10.334   7.568
29381SOL     OW89974  10.803   2.820   3.985
29381SOL    HW189975  10.797   2.726   3.969
29381SOL    HW289976  10.725   2.840   4.037
29382SOL     OW89977   1.877   2.487  14.303
29382SOL    HW189978   1.907   2.432  14.375
29382SOL    HW289979   1.927   2.456  14.227
29383SOL     OW89980  10.210  10.219   3.981
29383SOL    HW189981  10.154  10.223   3.903
29383SOL    HW289982  10.267  10.144   3.966
29384SOL     OW89983  13.403  13.947   4.761
29384SOL    HW189984  13.453  13.867   4.775
29384SOL    HW289985  13.363  13.936   4.674
29385SOL     OW89986  10.555  11.296   6.884
29385SOL    HW189987  10.511  11.302   6.969
29385SOL    HW289988  10.510  11.359   6.829
29386SOL     OW89989   8.410   4.426   8.639
29386SOL    HW189990   8.355   4.455   8.567
29386SOL    HW289991   8.365   4.349   8.674
29387SOL     OW89992   0.385   2.170  14.764
29387SOL    HW189993   0.417   2.086  14.733
29387SOL    HW289994   0.410   2.232  14.695
29388SOL     OW89995   9.348   4.186  12.844
29388SOL    HW189996   9.372   4.265  12.891
29388SOL    HW289997   9.425   4.129  12.852
29389SOL     OW89998  12.529  14.305   0.877
29389SOL    HW189999  12.560  14.244   0.811
29389SOL    HW290000  12.534  14.257   0.960
29390SOL     OW90001  14.805   6.319   1.139
29390SOL    HW190002  14.734   6.296   1.200
29390SOL    HW290003   0.012   6.309   1.190
29391SOL     OW90004  12.274   4.263   4.635
29391SOL    HW190005  12.241   4.314   4.561
29391SOL    HW290006  12.303   4.330   4.698
29392SOL     OW90007  13.237   1.511   2.644
29392SOL    HW190008  13.253   1.508   2.549
29392SOL    HW290009  13.162   1.453   2.658
29393SOL     OW90010   4.920   3.652   8.992
29393SOL    HW190011   4.962   3.696   8.918
29393SOL    HW290012   4.976   3.577   9.011
29394SOL     OW90013   3.730   4.643   5.744
29394SOL    HW190014   3.818   4.665   5.714
29394SOL    HW290015   3.672   4.691   5.685
29395SOL     OW90016   1.941   0.260   4.560
29395SOL    HW190017   1.896   0.218   4.633
29395SOL    HW290018   1.893   0.230   4.483
29396SOL     OW90019   3.203   1.387   6.799
29396SOL    HW190020   3.156   1.464   6.765
29396SOL    HW290021   3.229   1.338   6.721
29397SOL     OW90022  11.252   6.971   8.497
29397SOL    HW190023  11.314   7.016   8.439
29397SOL    HW290024  11.289   6.883   8.508
29398SOL     OW90025   0.449  14.704  13.860
29398SOL    HW190026   0.482  14.714  13.770
29398SOL    HW290027   0.372  14.648  13.850
29399SOL     OW90028   9.413   1.834  11.201
29399SOL    HW190029   9.488   1.822  11.260
29399SOL    HW290030   9.446   1.809  11.115
29400SOL     OW90031   1.570   1.470  11.564
29400SOL    HW190032   1.638   1.493  11.628
29400SOL    HW290033   1.567   1.374  11.566
29401SOL     OW90034   7.010   0.809  12.888
29401SOL    HW190035   6.997   0.735  12.947
29401SOL    HW290036   7.104   0.811  12.872
29402SOL     OW90037  11.765   9.079  10.381
29402SOL    HW190038  11.752   9.065  10.288
29402SOL    HW290039  11.826   9.010  10.407
29403SOL     OW90040   9.474  10.662   5.483
29403SOL    HW190041   9.436  10.726   5.423
29403SOL    HW290042   9.513  10.714   5.552
29404SOL     OW90043   5.402   2.840  12.799
29404SOL    HW190044   5.457   2.892  12.741
29404SOL    HW290045   5.399   2.890  12.880
29405SOL     OW90046  11.451   3.434   6.559
29405SOL    HW190047  11.512   3.431   6.632
29405SOL    HW290048  11.446   3.526   6.534
29406SOL     OW90049  13.805  12.898  11.211
29406SOL    HW190050  13.864  12.920  11.139
29406SOL    HW290051  13.758  12.821  11.181
29407SOL     OW90052   0.399   7.176   6.581
29407SOL    HW190053   0.322   7.156   6.527
29407SOL    HW290054   0.363   7.191   6.669
29408SOL     OW90055   5.604   7.801   3.443
29408SOL    HW190056   5.633   7.713   3.420
29408SOL    HW290057   5.591   7.798   3.538
29409SOL     OW90058   7.124  10.285   9.842
29409SOL    HW190059   7.068  10.232   9.785
29409SOL    HW290060   7.070  10.302   9.920
29410SOL     OW90061  10.581  14.859   1.929
29410SOL    HW190062  10.548   0.069   1.966
29410SOL    HW290063  10.585   0.003   1.834
29411SOL     OW90064   6.184   9.473  12.046
29411SOL    HW190065   6.142   9.423  12.116
29411SOL    HW290066   6.256   9.417  12.016
29412SOL     OW90067  10.440   1.027  11.009
29412SOL    HW190068  10.357   1.069  10.988
29412SOL    HW290069  10.504   1.098  11.008
29413SOL     OW90070   2.497  14.610   0.352
29413SOL    HW190071   2.435  14.627   0.424
29413SOL    HW290072   2.450  14.549   0.295
29414SOL     OW90073   7.542   0.286   6.132
29414SOL    HW190074   7.451   0.261   6.150
29414SOL    HW290075   7.573   0.219   6.071
29415SOL     OW90076   6.998   3.887   7.849
29415SOL    HW190077   7.072   3.870   7.791
29415SOL    HW290078   6.972   3.977   7.829
29416SOL     OW90079   2.234   7.570  13.296
29416SOL    HW190080   2.298   7.554  13.227
29416SOL    HW290081   2.235   7.491  13.349
29417SOL     OW90082   7.818  13.521   6.440
29417SOL    HW190083   7.812  13.520   6.536
29417SOL    HW290084   7.731  13.491   6.411
29418SOL     OW90085   1.751   5.486  12.023
29418SOL    HW190086   1.678   5.548  12.031
29418SOL    HW290087   1.829   5.540  12.025
29419SOL     OW90088  10.424   0.033   6.574
29419SOL    HW190089  10.416   0.115   6.524
29419SOL    HW290090  10.464   0.059   6.657
29420SOL     OW90091   7.701  11.342  13.220
29420SOL    HW190092   7.795  11.333  13.235
29420SOL    HW290093   7.661  11.274  13.275
29421SOL     OW90094   7.790   1.016  11.397
29421SOL    HW190095   7.723   1.067  11.351
29421SOL    HW290096   7.768   1.025  11.490
29422SOL     OW90097   9.718   8.615   3.779
29422SOL    HW190098   9.769   8.659   3.846
29422SOL    HW290099   9.741   8.523   3.787
29423SOL     OW90100   7.088   9.553  10.469
29423SOL    HW190101   7.144   9.603  10.410
29423SOL    HW290102   7.024   9.617  10.501
29424SOL     OW90103  14.476   9.948   2.737
29424SOL    HW190104  14.422  10.027   2.733
29424SOL    HW290105  14.508   9.946   2.828
29425SOL     OW90106   4.723  14.013  11.392
29425SOL    HW190107   4.748  13.921  11.382
29425SOL    HW290108   4.648  14.024  11.333
29426SOL     OW90109   4.175   3.611   8.800
29426SOL    HW190110   4.169   3.687   8.858
29426SOL    HW290111   4.208   3.646   8.717
29427SOL     OW90112   4.778   2.415   9.983
29427SOL    HW190113   4.808   2.402   9.894
29427SOL    HW290114   4.788   2.329  10.025
29428SOL     OW90115   8.288  10.247   0.879
29428SOL    HW190116   8.315  10.337   0.859
29428SOL    HW290117   8.315  10.233   0.969
29429SOL     OW90118  13.745   2.767   2.879
29429SOL    HW190119  13.805   2.781   2.806
29429SOL    HW290120  13.753   2.847   2.932
29430SOL     OW90121   3.194  13.336  10.128
29430SOL    HW190122   3.103  13.349  10.103
29430SOL    HW290123   3.243  13.395  10.072
29431SOL     OW90124  11.120   4.020   2.012
29431SOL    HW190125  11.206   4.055   1.987
29431SOL    HW290126  11.058   4.067   1.955
29432SOL     OW90127   6.919   0.247   2.864
29432SOL    HW190128   6.941   0.298   2.786
29432SOL    HW290129   6.945   0.157   2.841
29433SOL     OW90130   2.434   2.148  11.394
29433SOL    HW190131   2.363   2.147  11.331
29433SOL    HW290132   2.391   2.139  11.479
29434SOL     OW90133   0.663   1.816   6.747
29434SOL    HW190134   0.672   1.799   6.841
29434SOL    HW290135   0.666   1.912   6.740
29435SOL     OW90136   6.805   1.498   6.436
29435SOL    HW190137   6.857   1.435   6.386
29435SOL    HW290138   6.803   1.576   6.382
29436SOL     OW90139   2.929  13.355  10.388
29436SOL    HW190140   2.992  13.318  10.450
29436SOL    HW290141   2.896  13.433  10.431
29437SOL     OW90142   5.422  10.209   7.444
29437SOL    HW190143   5.445  10.237   7.355
29437SOL    HW290144   5.383  10.122   7.433
29438SOL     OW90145   1.357   1.531   7.576
29438SOL    HW190146   1.415   1.605   7.560
29438SOL    HW290147   1.293   1.563   7.640
29439SOL     OW90148  12.714   0.623  13.718
29439SOL    HW190149  12.635   0.597  13.670
29439SOL    HW290150  12.714   0.568  13.796
29440SOL     OW90151   3.406   2.420   1.270
29440SOL    HW190152   3.354   2.413   1.350
29440SOL    HW290153   3.494   2.394   1.296
29441SOL     OW90154   3.637   5.411  14.643
29441SOL    HW190155   3.608   5.496  14.678
29441SOL    HW290156   3.732   5.419  14.639
29442SOL     OW90157  12.515   6.970  10.060
29442SOL    HW190158  12.590   6.916  10.035
29442SOL    HW290159  12.520   6.976  10.155
29443SOL     OW90160  10.497   2.524   3.060
29443SOL    HW190161  10.523   2.432   3.056
29443SOL    HW290162  10.402   2.522   3.063
29444SOL     OW90163   1.259   0.554  14.842
29444SOL    HW190164   1.314   0.599   0.035
29444SOL    HW290165   1.173   0.595  14.852
29445SOL     OW90166   4.535   6.081  14.828
29445SOL    HW190167   4.578   6.033   0.027
29445SOL    HW290168   4.606   6.116  14.775
29446SOL     OW90169  11.211  10.766  10.518
29446SOL    HW190170  11.155  10.752  10.594
29446SOL    HW290171  11.155  10.812  10.455
29447SOL     OW90172  14.645  10.119  10.349
29447SOL    HW190173  14.670  10.131  10.258
29447SOL    HW290174  14.704  10.176  10.398
29448SOL     OW90175   0.599  12.726   7.163
29448SOL    HW190176   0.622  12.784   7.090
29448SOL    HW290177   0.629  12.773   7.241
29449SOL     OW90178   8.996  12.702   4.583
29449SOL    HW190179   9.012  12.757   4.660
29449SOL    HW290180   8.903  12.717   4.563
29450SOL     OW90181  13.972   0.268   9.797
29450SOL    HW190182  13.912   0.198   9.771
29450SOL    HW290183  14.032   0.277   9.723
29451SOL     OW90184  13.375   6.194  13.474
29451SOL    HW190185  13.462   6.214  13.440
29451SOL    HW290186  13.389   6.122  13.536
29452SOL     OW90187  11.546  10.209   1.075
29452SOL    HW190188  11.595  10.284   1.042
29452SOL    HW290189  11.545  10.147   1.001
29453SOL     OW90190   1.784  13.826   8.494
29453SOL    HW190191   1.847  13.753   8.491
29453SOL    HW290192   1.761  13.841   8.402
29454SOL     OW90193   1.652   4.243  11.911
29454SOL    HW190194   1.593   4.293  11.855
29454SOL    HW290195   1.686   4.306  11.974
29455SOL     OW90196   5.634   5.999   5.267
29455SOL    HW190197   5.714   6.047   5.246
29455SOL    HW290198   5.604   6.038   5.350
29456SOL     OW90199   6.164   2.912   1.198
29456SOL    HW190200   6.079   2.951   1.177
29456SOL    HW290201   6.169   2.914   1.294
29457SOL     OW90202  13.721   1.524   6.995
29457SOL    HW190203  13.692   1.475   7.072
29457SOL    HW290204  13.782   1.589   7.029
29458SOL     OW90205   2.219   7.904  10.507
29458SOL    HW190206   2.151   7.948  10.457
29458SOL    HW290207   2.253   7.970  10.567
29459SOL     OW90208   7.970  12.475  13.862
29459SOL    HW190209   7.924  12.416  13.802
29459SOL    HW290210   8.025  12.418  13.915
29460SOL     OW90211   4.531   8.183  12.337
29460SOL    HW190212   4.616   8.209  12.372
29460SOL    HW290213   4.505   8.256  12.281
29461SOL     OW90214  10.368  10.007   0.988
29461SOL    HW190215  10.426  10.058   1.044
29461SOL    HW290216  10.315  10.072   0.942
29462SOL     OW90217   9.932   3.603   5.790
29462SOL    HW190218   9.989   3.679   5.781
29462SOL    HW290219   9.870   3.628   5.859
29463SOL     OW90220  13.851   7.413  13.338
29463SOL    HW190221  13.934   7.416  13.289
29463SOL    HW290222  13.789   7.460  13.282
29464SOL     OW90223  14.862   0.372  11.536
29464SOL    HW190224  14.866   0.384  11.631
29464SOL    HW290225   0.021   0.455  11.500
29465SOL     OW90226  14.476   1.453   7.009
29465SOL    HW190227  14.413   1.387   7.038
29465SOL    HW290228  14.467   1.454   6.913
29466SOL     OW90229   8.354   5.929   6.598
29466SOL    HW190230   8.329   5.837   6.597
29466SOL    HW290231   8.351   5.957   6.506
29467SOL     OW90232  12.753   2.039   4.216
29467SOL    HW190233  12.662   2.016   4.200
29467SOL    HW290234  12.753   2.135   4.221
29468SOL     OW90235   5.139   8.261  13.512
29468SOL    HW190236   5.157   8.345  13.470
29468SOL    HW290237   5.195   8.198  13.465
29469SOL     OW90238   6.653  13.341   0.663
29469SOL    HW190239   6.579  13.314   0.717
29469SOL    HW290240   6.650  13.282   0.588
29470SOL     OW90241  11.568   5.041   7.052
29470SOL    HW190242  11.571   5.117   6.994
29470SOL    HW290243  11.642   4.987   7.024
29471SOL     OW90244  10.296   9.204  10.812
29471SOL    HW190245  10.362   9.135  10.804
29471SOL    HW290246  10.255   9.188  10.896
29472SOL     OW90247   8.322  10.120   7.195
29472SOL    HW190248   8.409  10.100   7.230
29472SOL    HW290249   8.318  10.072   7.112
29473SOL     OW90250  12.022  12.195  10.589
29473SOL    HW190251  12.073  12.260  10.638
29473SOL    HW290252  11.950  12.245  10.551
29474SOL     OW90253   5.482   4.334   1.114
29474SOL    HW190254   5.491   4.319   1.019
29474SOL    HW290255   5.387   4.332   1.129
29475SOL     OW90256   1.148   6.141  12.339
29475SOL    HW190257   1.114   6.227  12.364
29475SOL    HW290258   1.243   6.153  12.335
29476SOL     OW90259  11.233   6.893   5.339
29476SOL    HW190260  11.321   6.876   5.306
29476SOL    HW290261  11.217   6.985   5.318
29477SOL     OW90262   2.371   3.444  12.650
29477SOL    HW190263   2.375   3.506  12.577
29477SOL    HW290264   2.436   3.477  12.712
29478SOL     OW90265  10.882   0.319   6.639
29478SOL    HW190266  10.907   0.331   6.731
29478SOL    HW290267  10.965   0.316   6.592
29479SOL     OW90268   0.599  11.835   6.958
29479SOL    HW190269   0.551  11.761   6.921
29479SOL    HW290270   0.588  11.906   6.895
29480SOL     OW90271   3.599   2.312  13.695
29480SOL    HW190272   3.654   2.381  13.731
29480SOL    HW290273   3.660   2.252  13.652
29481SOL     OW90274  14.182   6.964   1.788
29481SOL    HW190275  14.168   7.032   1.722
29481SOL    HW290276  14.114   6.899   1.770
29482SOL     OW90277  13.104   7.405   2.985
29482SOL    HW190278  13.124   7.390   3.078
29482SOL    HW290279  13.009   7.409   2.981
29483SOL     OW90280   1.789   7.834  14.147
29483SOL    HW190281   1.769   7.770  14.216
29483SOL    HW290282   1.744   7.914  14.175
29484SOL     OW90283   1.110   6.130   7.868
29484SOL    HW190284   1.119   6.136   7.963
29484SOL    HW290285   1.043   6.062   7.855
29485SOL     OW90286  13.921   6.745   4.734
29485SOL    HW190287  13.905   6.690   4.657
29485SOL    HW290288  13.909   6.835   4.702
29486SOL     OW90289   0.400   6.232   0.534
29486SOL    HW190290   0.454   6.233   0.613
29486SOL    HW290291   0.427   6.153   0.487
29487SOL     OW90292  10.056   4.831   2.151
29487SOL    HW190293  10.087   4.776   2.224
29487SOL    HW290294  10.135   4.873   2.118
29488SOL     OW90295   2.425   2.014   2.939
29488SOL    HW190296   2.381   1.936   2.975
29488SOL    HW290297   2.359   2.083   2.945
29489SOL     OW90298  10.574   7.817   3.134
29489SOL    HW190299  10.484   7.841   3.155
29489SOL    HW290300  10.610   7.785   3.216
29490SOL     OW90301   2.640   3.879   6.205
29490SOL    HW190302   2.689   3.819   6.149
29490SOL    HW290303   2.549   3.858   6.188
29491SOL     OW90304   0.872   4.875   8.731
29491SOL    HW190305   0.788   4.899   8.769
29491SOL    HW290306   0.932   4.873   8.805
29492SOL     OW90307  13.263   6.246   4.955
29492SOL    HW190308  13.211   6.190   5.012
29492SOL    HW290309  13.215   6.249   4.872
29493SOL     OW90310   8.678   1.913   0.479
29493SOL    HW190311   8.671   2.006   0.500
29493SOL    HW290312   8.740   1.910   0.406
29494SOL     OW90313   8.601   7.494   3.689
29494SOL    HW190314   8.509   7.495   3.716
29494SOL    HW290315   8.650   7.504   3.771
29495SOL     OW90316   7.769  12.013   3.997
29495SOL    HW190317   7.806  12.066   3.926
29495SOL    HW290318   7.756  11.926   3.957
29496SOL     OW90319  11.090  10.094  12.478
29496SOL    HW190320  11.131  10.009  12.497
29496SOL    HW290321  11.049  10.081  12.392
29497SOL     OW90322   1.425  11.611   0.051
29497SOL    HW190323   1.376  11.529   0.057
29497SOL    HW290324   1.368  11.676   0.092
29498SOL     OW90325  11.219  13.533  14.408
29498SOL    HW190326  11.125  13.526  14.427
29498SOL    HW290327  11.262  13.508  14.490
29499SOL     OW90328   4.067   7.672   4.875
29499SOL    HW190329   4.094   7.700   4.963
29499SOL    HW290330   4.074   7.577   4.877
29500SOL     OW90331  11.040  14.360  12.164
29500SOL    HW190332  11.110  14.353  12.229
29500SOL    HW290333  11.063  14.297  12.097
29501SOL     OW90334   6.799   4.526   9.918
29501SOL    HW190335   6.853   4.604   9.907
29501SOL    HW290336   6.722   4.542   9.863
29502SOL     OW90337   2.435   3.149  13.958
29502SOL    HW190338   2.406   3.061  13.935
29502SOL    HW290339   2.470   3.140  14.047
29503SOL     OW90340   9.722  11.598   6.943
29503SOL    HW190341   9.808  11.619   6.980
29503SOL    HW290342   9.740  11.572   6.853
29504SOL     OW90343   5.133   3.951   7.860
29504SOL    HW190344   5.214   4.002   7.858
29504SOL    HW290345   5.072   4.000   7.804
29505SOL     OW90346   7.413  13.430   0.470
29505SOL    HW190347   7.433  13.416   0.378
29505SOL    HW290348   7.350  13.501   0.471
29506SOL     OW90349  12.840   1.855   6.119
29506SOL    HW190350  12.849   1.808   6.202
29506SOL    HW290351  12.784   1.929   6.139
29507SOL     OW90352   9.756   6.369  10.452
29507SOL    HW190353   9.823   6.437  10.455
29507SOL    HW290354   9.778   6.317  10.375
29508SOL     OW90355  11.484   9.502   3.227
29508SOL    HW190356  11.475   9.410   3.250
29508SOL    HW290357  11.408   9.520   3.171
29509SOL     OW90358   9.102   9.317  14.806
29509SOL    HW190359   9.064   9.233  14.831
29509SOL    HW290360   9.196   9.301  14.801
29510SOL     OW90361  12.944   8.825   3.388
29510SOL    HW190362  12.986   8.784   3.463
29510SOL    HW290363  12.979   8.914   3.385
29511SOL     OW90364   6.320   5.594   0.639
29511SOL    HW190365   6.267   5.581   0.560
29511SOL    HW290366   6.391   5.652   0.611
29512SOL     OW90367   2.412  13.448   6.788
29512SOL    HW190368   2.439  13.534   6.755
29512SOL    HW290369   2.369  13.406   6.714
29513SOL     OW90370  14.655  12.641   4.997
29513SOL    HW190371  14.619  12.558   5.029
29513SOL    HW290372  14.644  12.637   4.902
29514SOL     OW90373   6.614   6.341  12.733
29514SOL    HW190374   6.522   6.364  12.748
29514SOL    HW290375   6.621   6.250  12.762
29515SOL     OW90376  12.126   3.337   6.323
29515SOL    HW190377  12.080   3.413   6.360
29515SOL    HW290378  12.186   3.374   6.259
29516SOL     OW90379   2.747  11.541  13.866
29516SOL    HW190380   2.756  11.566  13.774
29516SOL    HW290381   2.660  11.573  13.890
29517SOL     OW90382   5.329  10.838   0.781
29517SOL    HW190383   5.319  10.901   0.851
29517SOL    HW290384   5.406  10.869   0.732
29518SOL     OW90385   3.349  10.678   4.050
29518SOL    HW190386   3.364  10.772   4.059
29518SOL    HW290387   3.295  10.655   4.126
29519SOL     OW90388   5.178   7.245   8.619
29519SOL    HW190389   5.185   7.165   8.566
29519SOL    HW290390   5.242   7.234   8.689
29520SOL     OW90391  10.869  10.401   9.118
29520SOL    HW190392  10.929  10.351   9.062
29520SOL    HW290393  10.849  10.341   9.190
29521SOL     OW90394   1.417   7.397   5.961
29521SOL    HW190395   1.430   7.469   6.023
29521SOL    HW290396   1.334   7.418   5.918
29522SOL     OW90397   5.779   4.386   9.918
29522SOL    HW190398   5.709   4.446   9.945
29522SOL    HW290399   5.732   4.306   9.892
29523SOL     OW90400  11.645   7.060   1.401
29523SOL    HW190401  11.731   7.040   1.437
29523SOL    HW290402  11.650   7.153   1.377
29524SOL     OW90403   0.246  10.343  12.378
29524SOL    HW190404   0.309  10.274  12.401
29524SOL    HW290405   0.162  10.308  12.406
29525SOL     OW90406   9.261   8.698   8.104
29525SOL    HW190407   9.315   8.676   8.180
29525SOL    HW290408   9.236   8.614   8.066
29526SOL     OW90409   1.665   5.762   0.894
29526SOL    HW190410   1.618   5.679   0.890
29526SOL    HW290411   1.757   5.737   0.890
29527SOL     OW90412   0.548   8.575   9.416
29527SOL    HW190413   0.596   8.496   9.390
29527SOL    HW290414   0.614   8.630   9.460
29528SOL     OW90415  10.418  10.770   4.145
29528SOL    HW190416  10.397  10.747   4.054
29528SOL    HW290417  10.506  10.737   4.159
29529SOL     OW90418   6.723   9.505   8.505
29529SOL    HW190419   6.645   9.458   8.534
29529SOL    HW290420   6.787   9.436   8.488
29530SOL     OW90421  11.174  12.203  10.222
29530SOL    HW190422  11.158  12.297  10.210
29530SOL    HW290423  11.102  12.160  10.174
29531SOL     OW90424  13.981   8.248   9.479
29531SOL    HW190425  14.062   8.207   9.449
29531SOL    HW290426  13.971   8.326   9.425
29532SOL     OW90427   5.319   4.225   3.700
29532SOL    HW190428   5.318   4.241   3.794
29532SOL    HW290429   5.298   4.309   3.661
29533SOL     OW90430   1.060  12.061  11.257
29533SOL    HW190431   1.016  12.054  11.341
29533SOL    HW290432   1.054  12.154  11.234
29534SOL     OW90433  13.701   7.400   3.518
29534SOL    HW190434  13.715   7.333   3.452
29534SOL    HW290435  13.607   7.399   3.534
29535SOL     OW90436   5.759   2.022   8.105
29535SOL    HW190437   5.684   2.078   8.087
29535SOL    HW290438   5.759   2.011   8.200
29536SOL     OW90439   3.318   9.918   2.884
29536SOL    HW190440   3.342   9.935   2.793
29536SOL    HW290441   3.320   9.823   2.893
29537SOL     OW90442   4.674  13.115  13.044
29537SOL    HW190443   4.628  13.042  13.087
29537SOL    HW290444   4.738  13.143  13.109
29538SOL     OW90445   0.408   4.602  10.577
29538SOL    HW190446   0.442   4.591  10.665
29538SOL    HW290447   0.341   4.670  10.585
29539SOL     OW90448   8.702   4.200   4.885
29539SOL    HW190449   8.632   4.257   4.918
29539SOL    HW290450   8.657   4.121   4.857
29540SOL     OW90451   1.580  13.201  10.781
29540SOL    HW190452   1.663  13.174  10.742
29540SOL    HW290453   1.605  13.245  10.862
29541SOL     OW90454   9.144  14.742  13.266
29541SOL    HW190455   9.074  14.683  13.295
29541SOL    HW290456   9.114  14.829  13.294
29542SOL     OW90457  14.337   6.826  14.270
29542SOL    HW190458  14.259   6.825  14.325
29542SOL    HW290459  14.314   6.770  14.196
29543SOL     OW90460  13.614   8.106  10.350
29543SOL    HW190461  13.679   8.035  10.346
29543SOL    HW290462  13.624   8.151  10.266
29544SOL     OW90463   2.346  11.094  13.480
29544SOL    HW190464   2.353  11.039  13.402
29544SOL    HW290465   2.307  11.037  13.546
29545SOL     OW90466   8.895   0.278  10.336
29545SOL    HW190467   8.828   0.251  10.399
29545SOL    HW290468   8.925   0.195  10.297
29546SOL     OW90469   2.011   8.716   2.267
29546SOL    HW190470   2.103   8.716   2.294
29546SOL    HW290471   1.962   8.704   2.348
29547SOL     OW90472  10.045   1.813   0.181
29547SOL    HW190473  10.021   1.729   0.142
29547SOL    HW290474  10.140   1.811   0.187
29548SOL     OW90475   0.289  13.690  11.717
29548SOL    HW190476   0.202  13.657  11.740
29548SOL    HW290477   0.273  13.777  11.682
29549SOL     OW90478   6.111   3.827   8.607
29549SOL    HW190479   6.128   3.915   8.639
29549SOL    HW290480   6.019   3.811   8.627
29550SOL     OW90481   0.954  11.411   0.414
29550SOL    HW190482   0.861  11.435   0.409
29550SOL    HW290483   0.956  11.340   0.479
29551SOL     OW90484  14.518   9.741  14.818
29551SOL    HW190485  14.451   9.775   0.005
29551SOL    HW290486  14.496   9.649  14.807
29552SOL     OW90487   8.296   8.070  10.987
29552SOL    HW190488   8.358   8.041  10.920
29552SOL    HW290489   8.351   8.090  11.063
29553SOL     OW90490   6.257   7.572   9.415
29553SOL    HW190491   6.209   7.530   9.343
29553SOL    HW290492   6.188   7.598   9.477
29554SOL     OW90493  14.612   4.429  10.004
29554SOL    HW190494  14.520   4.409  10.025
29554SOL    HW290495  14.651   4.345   9.981
29555SOL     OW90496  12.854   0.233   0.228
29555SOL    HW190497  12.766   0.266   0.247
29555SOL    HW290498  12.912   0.289   0.279
29556SOL     OW90499   9.902   8.041   2.400
29556SOL    HW190500   9.961   7.974   2.435
29556SOL    HW290501   9.868   8.086   2.478
29557SOL     OW90502   3.277  12.908   5.528
29557SOL    HW190503   3.184  12.916   5.551
29557SOL    HW290504   3.308  12.834   5.579
29558SOL     OW90505   2.300  13.558  14.326
29558SOL    HW190506   2.377  13.600  14.365
29558SOL    HW290507   2.294  13.596  14.238
29559SOL     OW90508   4.410  14.224   9.395
29559SOL    HW190509   4.394  14.291   9.327
29559SOL    HW290510   4.323  14.189   9.415
29560SOL     OW90511   0.006   6.823   4.716
29560SOL    HW190512   0.028   6.742   4.762
29560SOL    HW290513   0.041   6.893   4.771
29561SOL     OW90514  13.935  14.540  13.605
29561SOL    HW190515  13.976  14.615  13.650
29561SOL    HW290516  13.842  14.563  13.601
29562SOL     OW90517  11.268  10.714  13.327
29562SOL    HW190518  11.217  10.682  13.252
29562SOL    HW290519  11.220  10.792  13.356
29563SOL     OW90520  14.801   6.172   6.083
29563SOL    HW190521  14.740   6.224   6.136
29563SOL    HW290522  14.824   6.228   6.010
29564SOL     OW90523  13.299  13.437   5.877
29564SOL    HW190524  13.390  13.448   5.903
29564SOL    HW290525  13.254  13.408   5.956
29565SOL     OW90526  10.555   2.259  10.244
29565SOL    HW190527  10.500   2.200  10.193
29565SOL    HW290528  10.495   2.300  10.306
29566SOL     OW90529  12.701   1.507  12.558
29566SOL    HW190530  12.609   1.508  12.583
29566SOL    HW290531  12.726   1.600  12.555
29567SOL     OW90532   9.938  12.979   7.518
29567SOL    HW190533   9.970  12.996   7.430
29567SOL    HW290534   9.988  12.903   7.548
29568SOL     OW90535  12.491   3.329  13.924
29568SOL    HW190536  12.423   3.378  13.970
29568SOL    HW290537  12.480   3.353  13.832
29569SOL     OW90538   3.580   2.650   9.679
29569SOL    HW190539   3.673   2.627   9.683
29569SOL    HW290540   3.570   2.723   9.741
29570SOL     OW90541   4.278   1.628  10.959
29570SOL    HW190542   4.314   1.617  10.871
29570SOL    HW290543   4.334   1.573  11.014
29571SOL     OW90544  14.393  14.603   5.479
29571SOL    HW190545  14.413  14.690   5.516
29571SOL    HW290546  14.313  14.576   5.525
29572SOL     OW90547  14.749   9.105  10.074
29572SOL    HW190548  14.721   9.138   9.989
29572SOL    HW290549  14.845   9.113  10.072
29573SOL     OW90550   0.806   6.372   8.419
29573SOL    HW190551   0.882   6.413   8.377
29573SOL    HW290552   0.746   6.444   8.436
29574SOL     OW90553   9.938  12.088  13.763
29574SOL    HW190554   9.913  12.015  13.707
29574SOL    HW290555  10.021  12.120  13.725
29575SOL     OW90556  10.761  14.542  13.153
29575SOL    HW190557  10.724  14.491  13.081
29575SOL    HW290558  10.705  14.618  13.162
29576SOL     OW90559   8.862  13.990   3.269
29576SOL    HW190560   8.913  14.057   3.315
29576SOL    HW290561   8.770  14.013   3.287
29577SOL     OW90562  13.227  14.565   4.302
29577SOL    HW190563  13.255  14.519   4.381
29577SOL    HW290564  13.230  14.658   4.326
29578SOL     OW90565  11.428  13.827   7.705
29578SOL    HW190566  11.510  13.856   7.665
29578SOL    HW290567  11.406  13.747   7.656
29579SOL     OW90568  11.927   2.793   8.835
29579SOL    HW190569  11.973   2.741   8.901
29579SOL    HW290570  11.847   2.822   8.879
29580SOL     OW90571  10.365  12.319   6.831
29580SOL    HW190572  10.421  12.306   6.907
29580SOL    HW290573  10.422  12.357   6.764
29581SOL     OW90574   7.373  14.012  10.933
29581SOL    HW190575   7.328  13.959  10.999
29581SOL    HW290576   7.345  14.102  10.951
29582SOL     OW90577   2.848  11.838  12.447
29582SOL    HW190578   2.764  11.877  12.471
29582SOL    HW290579   2.856  11.854  12.353
29583SOL     OW90580  12.836   8.657  13.287
29583SOL    HW190581  12.885   8.594  13.234
29583SOL    HW290582  12.753   8.668  13.240
29584SOL     OW90583   4.226  11.274  10.444
29584SOL    HW190584   4.145  11.258  10.397
29584SOL    HW290585   4.207  11.248  10.534
29585SOL     OW90586   8.709   4.969   5.539
29585SOL    HW190587   8.629   4.979   5.590
29585SOL    HW290588   8.780   4.983   5.601
29586SOL     OW90589   5.758  12.412   1.058
29586SOL    HW190590   5.772  12.331   1.008
29586SOL    HW290591   5.760  12.384   1.149
29587SOL     OW90592  13.256   1.128  10.168
29587SOL    HW190593  13.269   1.137  10.263
29587SOL    HW290594  13.297   1.206  10.131
29588SOL     OW90595   5.159  12.142   8.007
29588SOL    HW190596   5.075  12.100   8.022
29588SOL    HW290597   5.139  12.236   8.003
29589SOL     OW90598   2.515  13.889  10.228
29589SOL    HW190599   2.542  13.798  10.213
29589SOL    HW290600   2.471  13.888  10.313
29590SOL     OW90601  13.001   8.999   2.484
29590SOL    HW190602  13.046   9.074   2.444
29590SOL    HW290603  13.036   8.923   2.439
29591SOL     OW90604   1.734  12.723  10.974
29591SOL    HW190605   1.710  12.723  10.882
29591SOL    HW290606   1.774  12.637  10.988
29592SOL     OW90607  10.078  12.184   1.307
29592SOL    HW190608  10.096  12.097   1.272
29592SOL    HW290609  10.101  12.178   1.400
29593SOL     OW90610   8.302  11.424   4.921
29593SOL    HW190611   8.245  11.384   4.987
29593SOL    HW290612   8.351  11.491   4.969
29594SOL     OW90613  11.848   5.778  13.886
29594SOL    HW190614  11.864   5.685  13.898
29594SOL    HW290615  11.777   5.782  13.821
29595SOL     OW90616   1.879  10.098  10.065
29595SOL    HW190617   1.853  10.153  10.139
29595SOL    HW290618   1.829  10.017  10.077
29596SOL     OW90619  13.369  10.041  12.286
29596SOL    HW190620  13.432   9.978  12.252
29596SOL    HW290621  13.301   9.987  12.327
29597SOL     OW90622  11.680   4.641  10.809
29597SOL    HW190623  11.648   4.551  10.818
29597SOL    HW290624  11.720   4.660  10.894
29598SOL     OW90625   2.510  11.703  11.631
29598SOL    HW190626   2.462  11.769  11.580
29598SOL    HW290627   2.602  11.723  11.613
29599SOL     OW90628   4.482   6.645   9.974
29599SOL    HW190629   4.556   6.666   9.917
29599SOL    HW290630   4.508   6.562  10.015
29600SOL     OW90631   0.891   0.106   7.445
29600SOL    HW190632   0.802   0.075   7.464
29600SOL    HW290633   0.942   0.026   7.433
29601SOL     OW90634   4.416  14.243   1.772
29601SOL    HW190635   4.498  14.288   1.752
29601SOL    HW290636   4.407  14.250   1.867
29602SOL     OW90637   5.999   0.669  11.839
29602SOL    HW190638   6.042   0.597  11.884
29602SOL    HW290639   6.053   0.686  11.762
29603SOL     OW90640   6.494   4.563   9.920
29603SOL    HW190641   6.468   4.652   9.897
29603SOL    HW290642   6.547   4.574   9.999
29604SOL     OW90643  11.349  13.627   1.772
29604SOL    HW190644  11.410  13.649   1.843
29604SOL    HW290645  11.279  13.691   1.780
29605SOL     OW90646  12.566  10.042   2.581
29605SOL    HW190647  12.651  10.073   2.613
29605SOL    HW290648  12.502  10.099   2.623
29606SOL     OW90649   5.751   8.597  13.274
29606SOL    HW190650   5.670   8.576  13.321
29606SOL    HW290651   5.744   8.691  13.256
29607SOL     OW90652   5.263   2.154   7.283
29607SOL    HW190653   5.332   2.198   7.333
29607SOL    HW290654   5.301   2.141   7.196
29608SOL     OW90655   8.353   4.098  12.597
29608SOL    HW190656   8.260   4.117  12.589
29608SOL    HW290657   8.377   4.129  12.685
29609SOL     OW90658   0.023  13.981   0.460
29609SOL    HW190659  14.831  13.971   0.530
29609SOL    HW290660   0.106  13.999   0.505
29610SOL     OW90661   6.588   2.397   0.888
29610SOL    HW190662   6.551   2.483   0.872
29610SOL    HW290663   6.629   2.404   0.975
29611SOL     OW90664   4.675  10.086   6.166
29611SOL    HW190665   4.638  10.161   6.213
29611SOL    HW290666   4.768  10.086   6.190
29612SOL     OW90667   4.699  10.390  11.252
29612SOL    HW190668   4.705  10.403  11.158
29612SOL    HW290669   4.679  10.297  11.262
29613SOL     OW90670   9.166   2.746   9.295
29613SOL    HW190671   9.251   2.739   9.251
29613SOL    HW290672   9.108   2.688   9.244
29614SOL     OW90673   5.335  13.580  14.353
29614SOL    HW190674   5.270  13.591  14.422
29614SOL    HW290675   5.331  13.486  14.331
29615SOL     OW90676   7.199   5.615  11.689
29615SOL    HW190677   7.206   5.523  11.717
29615SOL    HW290678   7.136   5.653  11.750
29616SOL     OW90679   1.956   1.328   4.816
29616SOL    HW190680   2.017   1.260   4.786
29616SOL    HW290681   1.955   1.319   4.912
29617SOL     OW90682   2.734  11.287   5.278
29617SOL    HW190683   2.676  11.352   5.317
29617SOL    HW290684   2.733  11.306   5.184
29618SOL     OW90685   3.868   1.032  14.429
29618SOL    HW190686   3.804   1.098  14.454
29618SOL    HW290687   3.823   0.979  14.363
29619SOL     OW90688  11.918  11.996  14.231
29619SOL    HW190689  11.942  12.086  14.251
29619SOL    HW290690  11.852  12.005  14.161
29620SOL     OW90691  13.296  10.449  11.185
29620SOL    HW190692  13.204  10.428  11.203
29620SOL    HW290693  13.330  10.371  11.142
29621SOL     OW90694  14.167   0.222   7.582
29621SOL    HW190695  14.247   0.262   7.618
29621SOL    HW290696  14.097   0.281   7.609
29622SOL     OW90697   7.044   0.493   1.452
29622SOL    HW190698   7.063   0.586   1.442
29622SOL    HW290699   6.954   0.483   1.421
29623SOL     OW90700   0.870   9.558  10.862
29623SOL    HW190701   0.845   9.467  10.846
29623SOL    HW290702   0.892   9.561  10.956
29624SOL     OW90703   1.726   3.608   5.964
29624SOL    HW190704   1.793   3.544   5.942
29624SOL    HW290705   1.711   3.596   6.058
29625SOL     OW90706   6.770  13.827  13.719
29625SOL    HW190707   6.740  13.746  13.760
29625SOL    HW290708   6.727  13.828  13.633
29626SOL     OW90709  14.356   0.897  12.768
29626SOL    HW190710  14.297   0.823  12.785
29626SOL    HW290711  14.362   0.902  12.673
29627SOL     OW90712   5.478   4.808   0.336
29627SOL    HW190713   5.502   4.723   0.373
29627SOL    HW290714   5.557   4.861   0.348
29628SOL     OW90715   5.378  14.053  11.627
29628SOL    HW190716   5.406  14.141  11.600
29628SOL    HW290717   5.459  14.003  11.630
29629SOL     OW90718   4.801  14.072  14.171
29629SOL    HW190719   4.863  14.001  14.159
29629SOL    HW290720   4.796  14.115  14.085
29630SOL     OW90721   9.400  13.134   0.631
29630SOL    HW190722   9.309  13.107   0.636
29630SOL    HW290723   9.408  13.205   0.695
29631SOL     OW90724   6.875   6.448  12.264
29631SOL    HW190725   6.891   6.484  12.177
29631SOL    HW290726   6.824   6.515  12.309
29632SOL     OW90727  13.707  11.544   6.573
29632SOL    HW190728  13.759  11.623   6.585
29632SOL    HW290729  13.637  11.551   6.638
29633SOL     OW90730  13.720   4.142  10.651
29633SOL    HW190731  13.815   4.156  10.657
29633SOL    HW290732  13.711   4.063  10.598
29634SOL     OW90733  14.768  14.860   7.262
29634SOL    HW190734  14.673  14.867   7.250
29634SOL    HW290735  14.780  14.869   7.357
29635SOL     OW90736  13.142   6.854   6.705
29635SOL    HW190737  13.048   6.861   6.725
29635SOL    HW290738  13.149   6.885   6.614
29636SOL     OW90739  13.989   0.571   4.356
29636SOL    HW190740  14.075   0.548   4.390
29636SOL    HW290741  13.928   0.547   4.426
29637SOL     OW90742   5.726   3.009   9.970
29637SOL    HW190743   5.639   3.044   9.949
29637SOL    HW290744   5.726   2.999  10.065
29638SOL     OW90745  14.011   5.172   5.502
29638SOL    HW190746  13.941   5.236   5.514
29638SOL    HW290747  14.012   5.155   5.408
29639SOL     OW90748   6.723   1.516   6.711
29639SOL    HW190749   6.742   1.608   6.728
29639SOL    HW290750   6.758   1.500   6.623
29640SOL     OW90751   2.637  14.507  13.967
29640SOL    HW190752   2.727  14.482  13.950
29640SOL    HW290753   2.586  14.427  13.951
29641SOL     OW90754   3.307  10.177   4.120
29641SOL    HW190755   3.381  10.147   4.066
29641SOL    HW290756   3.236  10.117   4.097
29642SOL     OW90757   9.912   9.427   2.989
29642SOL    HW190758   9.818   9.436   3.007
29642SOL    HW290759   9.947   9.515   3.003
29643SOL     OW90760   3.102   6.132  10.907
29643SOL    HW190761   3.008   6.124  10.919
29643SOL    HW290762   3.135   6.155  10.994
29644SOL     OW90763  14.320   6.110   5.405
29644SOL    HW190764  14.357   6.198   5.412
29644SOL    HW290765  14.373   6.056   5.463
29645SOL     OW90766   9.780   3.822   5.496
29645SOL    HW190767   9.695   3.862   5.518
29645SOL    HW290768   9.780   3.817   5.400
29646SOL     OW90769   5.588   1.669   9.950
29646SOL    HW190770   5.497   1.693   9.970
29646SOL    HW290771   5.580   1.597   9.887
29647SOL     OW90772   1.868   6.148   1.688
29647SOL    HW190773   1.847   6.239   1.668
29647SOL    HW290774   1.786   6.101   1.675
29648SOL     OW90775   3.905   7.086   0.255
29648SOL    HW190776   3.824   7.060   0.298
29648SOL    HW290777   3.971   7.025   0.289
29649SOL     OW90778  11.244   4.696  14.756
29649SOL    HW190779  11.222   4.789  14.762
29649SOL    HW290780  11.159   4.652  14.750
29650SOL     OW90781   0.208  11.781   0.964
29650SOL    HW190782   0.267  11.757   1.036
29650SOL    HW290783   0.212  11.876   0.961
29651SOL     OW90784   6.823  14.186   2.755
29651SOL    HW190785   6.800  14.095   2.737
29651SOL    HW290786   6.857  14.185   2.845
29652SOL     OW90787   3.414   4.141   5.347
29652SOL    HW190788   3.452   4.211   5.400
29652SOL    HW290789   3.333   4.118   5.392
29653SOL     OW90790   7.197  11.293   0.313
29653SOL    HW190791   7.154  11.306   0.398
29653SOL    HW290792   7.279  11.342   0.319
29654SOL     OW90793   6.904   5.650  12.831
29654SOL    HW190794   6.915   5.688  12.744
29654SOL    HW290795   6.955   5.569  12.830
29655SOL     OW90796   7.702  10.445   4.479
29655SOL    HW190797   7.758  10.502   4.426
29655SOL    HW290798   7.680  10.372   4.420
29656SOL     OW90799   7.546  10.540  11.304
29656SOL    HW190800   7.509  10.628  11.294
29656SOL    HW290801   7.630  10.554  11.348
29657SOL     OW90802  13.487  13.940   3.561
29657SOL    HW190803  13.423  14.009   3.542
29657SOL    HW290804  13.563  13.961   3.507
29658SOL     OW90805   7.654   6.110   8.073
29658SOL    HW190806   7.678   6.049   8.143
29658SOL    HW290807   7.737   6.134   8.032
29659SOL     OW90808   0.300   1.967   2.445
29659SOL    HW190809   0.368   1.903   2.427
29659SOL    HW290810   0.341   2.031   2.503
29660SOL     OW90811   2.540  14.073   9.666
29660SOL    HW190812   2.456  14.080   9.622
29660SOL    HW290813   2.527  14.009   9.736
29661SOL     OW90814   5.664   5.325  11.068
29661SOL    HW190815   5.570   5.339  11.053
29661SOL    HW290816   5.674   5.230  11.064
29662SOL     OW90817  11.051   1.115   6.342
29662SOL    HW190818  11.061   1.166   6.423
29662SOL    HW290819  11.140   1.089   6.319
29663SOL     OW90820   7.056  12.679  12.998
29663SOL    HW190821   6.976  12.697  12.949
29663SOL    HW290822   7.058  12.584  13.006
29664SOL     OW90823   5.615   7.066   0.570
29664SOL    HW190824   5.597   7.113   0.651
29664SOL    HW290825   5.530   7.036   0.540
29665SOL     OW90826   2.494   7.834   1.386
29665SOL    HW190827   2.450   7.853   1.469
29665SOL    HW290828   2.569   7.779   1.411
29666SOL     OW90829  14.518   3.318  12.897
29666SOL    HW190830  14.537   3.411  12.885
29666SOL    HW290831  14.526   3.304  12.991
29667SOL     OW90832   2.569   4.295  13.307
29667SOL    HW190833   2.664   4.279  13.309
29667SOL    HW290834   2.533   4.233  13.370
29668SOL     OW90835  11.257  13.762   9.557
29668SOL    HW190836  11.202  13.825   9.604
29668SOL    HW290837  11.285  13.809   9.478
29669SOL     OW90838   3.282   8.357  11.077
29669SOL    HW190839   3.341   8.295  11.119
29669SOL    HW290840   3.199   8.310  11.068
29670SOL     OW90841   2.078   3.108  14.532
29670SOL    HW190842   2.014   3.083  14.599
29670SOL    HW290843   2.049   3.194  14.502
29671SOL     OW90844  14.361  13.499   6.763
29671SOL    HW190845  14.395  13.513   6.852
29671SOL    HW290846  14.266  13.508   6.773
29672SOL     OW90847   2.519   6.659  11.542
29672SOL    HW190848   2.443   6.680  11.488
29672SOL    HW290849   2.490   6.589  11.600
29673SOL     OW90850   9.844   8.377  13.485
29673SOL    HW190851   9.894   8.296  13.475
29673SOL    HW290852   9.868   8.410  13.571
29674SOL     OW90853   6.004   3.902   1.268
29674SOL    HW190854   5.942   3.847   1.317
29674SOL    HW290855   5.949   3.962   1.218
29675SOL     OW90856   7.962   8.964   3.329
29675SOL    HW190857   7.958   9.015   3.248
29675SOL    HW290858   7.963   9.030   3.399
29676SOL     OW90859   6.070   9.204   3.903
29676SOL    HW190860   6.014   9.214   3.980
29676SOL    HW290861   6.015   9.231   3.830
29677SOL     OW90862  10.148  12.380  10.823
29677SOL    HW190863  10.067  12.430  10.820
29677SOL    HW290864  10.159  12.347  10.734
29678SOL     OW90865   7.950  11.849   2.015
29678SOL    HW190866   8.001  11.859   1.935
29678SOL    HW290867   8.004  11.791   2.070
29679SOL     OW90868   9.460  10.751  11.010
29679SOL    HW190869   9.476  10.696  10.934
29679SOL    HW290870   9.378  10.797  10.990
29680SOL     OW90871   4.993   4.273  10.730
29680SOL    HW190872   5.054   4.240  10.796
29680SOL    HW290873   5.047   4.327  10.673
29681SOL     OW90874   0.735  10.635   4.925
29681SOL    HW190875   0.780  10.679   4.853
29681SOL    HW290876   0.761  10.683   5.003
29682SOL     OW90877  11.069  13.778   1.100
29682SOL    HW190878  11.045  13.870   1.102
29682SOL    HW290879  11.093  13.758   1.191
29683SOL     OW90880   5.915   3.790  13.871
29683SOL    HW190881   5.959   3.874  13.882
29683SOL    HW290882   5.985   3.729  13.847
29684SOL     OW90883   7.797   1.999   0.885
29684SOL    HW190884   7.841   2.069   0.933
29684SOL    HW290885   7.771   1.937   0.952
29685SOL     OW90886  12.266  13.158  13.671
29685SOL    HW190887  12.350  13.184  13.633
29685SOL    HW290888  12.226  13.103  13.604
29686SOL     OW90889   2.633   0.912  14.023
29686SOL    HW190890   2.567   0.943  14.084
29686SOL    HW290891   2.663   0.990  13.977
29687SOL     OW90892  11.717  13.891   6.299
29687SOL    HW190893  11.748  13.818   6.244
29687SOL    HW290894  11.677  13.848   6.375
29688SOL     OW90895  12.517  13.215  14.532
29688SOL    HW190896  12.550  13.188  14.446
29688SOL    HW290897  12.557  13.155  14.594
29689SOL     OW90898   6.912   9.865   9.133
29689SOL    HW190899   6.971   9.849   9.207
29689SOL    HW290900   6.927   9.792   9.074
29690SOL     OW90901   6.849   3.779  10.682
29690SOL    HW190902   6.874   3.688  10.697
29690SOL    HW290903   6.932   3.827  10.688
29691SOL     OW90904   4.447  12.655  14.779
29691SOL    HW190905   4.536  12.632  14.754
29691SOL    HW290906   4.427  12.733  14.726
29692SOL     OW90907   9.424  14.591  10.928
29692SOL    HW190908   9.381  14.589  11.013
29692SOL    HW290909   9.354  14.575  10.865
29693SOL     OW90910   8.752   8.038   7.434
29693SOL    HW190911   8.798   8.117   7.408
29693SOL    HW290912   8.817   7.968   7.430
29694SOL     OW90913   4.667   4.260   5.448
29694SOL    HW190914   4.649   4.206   5.525
29694SOL    HW290915   4.586   4.307   5.432
29695SOL     OW90916   6.589  13.821   5.186
29695SOL    HW190917   6.503  13.804   5.147
29695SOL    HW290918   6.619  13.901   5.144
29696SOL     OW90919  14.805  14.625  12.373
29696SOL    HW190920  14.819  14.560  12.305
29696SOL    HW290921  14.725  14.598  12.417
29697SOL     OW90922   1.562  12.647   2.698
29697SOL    HW190923   1.568  12.596   2.617
29697SOL    HW290924   1.471  12.674   2.703
29698SOL     OW90925   7.401   7.104   9.434
29698SOL    HW190926   7.421   7.194   9.406
29698SOL    HW290927   7.487   7.061   9.439
29699SOL     OW90928   2.858  14.716  13.451
29699SOL    HW190929   2.896  14.735  13.536
29699SOL    HW290930   2.766  14.741  13.459
29700SOL     OW90931  10.896   1.410  14.205
29700SOL    HW190932  10.986   1.428  14.232
29700SOL    HW290933  10.859   1.497  14.188
29701SOL     OW90934   7.607  14.275  10.757
29701SOL    HW190935   7.632  14.205  10.817
29701SOL    HW290936   7.634  14.242  10.671
29702SOL     OW90937   6.912  11.787  11.754
29702SOL    HW190938   6.860  11.708  11.767
29702SOL    HW290939   6.998  11.754  11.727
29703SOL     OW90940   0.116   7.080  14.469
29703SOL    HW190941   0.054   7.018  14.431
29703SOL    HW290942   0.147   7.132  14.395
29704SOL     OW90943   8.234   5.992   0.792
29704SOL    HW190944   8.297   5.993   0.720
29704SOL    HW290945   8.289   5.998   0.871
29705SOL     OW90946   4.926   9.264  12.693
29705SOL    HW190947   4.968   9.347  12.669
29705SOL    HW290948   4.992   9.216  12.742
29706SOL     OW90949  12.817   4.250  13.599
29706SOL    HW190950  12.775   4.170  13.567
29706SOL    HW290951  12.907   4.243  13.568
29707SOL     OW90952   3.930   8.269   0.950
29707SOL    HW190953   3.872   8.339   0.921
29707SOL    HW290954   4.018   8.301   0.930
29708SOL     OW90955  11.820  11.264  11.548
29708SOL    HW190956  11.889  11.309  11.500
29708SOL    HW290957  11.783  11.202  11.485
29709SOL     OW90958  12.304   6.208  14.491
29709SOL    HW190959  12.362   6.277  14.458
29709SOL    HW290960  12.313   6.137  14.427
29710SOL     OW90961  14.077   9.983   2.670
29710SOL    HW190962  13.992   9.939   2.671
29710SOL    HW290963  14.141   9.912   2.679
29711SOL     OW90964   6.129  12.379   0.785
29711SOL    HW190965   6.047  12.424   0.766
29711SOL    HW290966   6.111  12.287   0.764
29712SOL     OW90967   0.355   3.795   8.131
29712SOL    HW190968   0.295   3.870   8.129
29712SOL    HW290969   0.438   3.830   8.098
29713SOL     OW90970   2.874  14.374   6.305
29713SOL    HW190971   2.902  14.329   6.226
29713SOL    HW290972   2.825  14.450   6.274
29714SOL     OW90973   9.312  13.236   3.877
29714SOL    HW190974   9.324  13.268   3.967
29714SOL    HW290975   9.217  13.225   3.868
29715SOL     OW90976   5.550  13.585   4.088
29715SOL    HW190977   5.495  13.625   4.156
29715SOL    HW290978   5.496  13.590   4.008
29716SOL     OW90979  10.354  14.207   6.117
29716SOL    HW190980  10.392  14.286   6.156
29716SOL    HW290981  10.259  14.220   6.124
29717SOL     OW90982   0.890   1.379  10.650
29717SOL    HW190983   0.798   1.382  10.623
29717SOL    HW290984   0.935   1.338  10.576
29718SOL     OW90985   6.078  10.274   7.452
29718SOL    HW190986   6.114  10.217   7.385
29718SOL    HW290987   6.046  10.214   7.520
29719SOL     OW90988  10.998  12.568   1.912
29719SOL    HW190989  10.989  12.532   1.824
29719SOL    HW290990  11.002  12.492   1.969
29720SOL     OW90991  13.200  11.236  14.517
29720SOL    HW190992  13.158  11.169  14.463
29720SOL    HW290993  13.172  11.217  14.606
29721SOL     OW90994   7.229   0.531  10.674
29721SOL    HW190995   7.270   0.592  10.735
29721SOL    HW290996   7.255   0.561  10.588
29722SOL     OW90997  12.481  10.543  14.587
29722SOL    HW190998  12.455  10.451  14.577
29722SOL    HW290999  12.398  10.591  14.594
29723SOL     OW91000  14.742  11.291   6.019
29723SOL    HW191001  14.741  11.203   5.981
29723SOL    HW291002  14.736  11.350   5.943
29724SOL     OW91003   1.873   4.022   9.790
29724SOL    HW191004   1.903   3.943   9.834
29724SOL    HW291005   1.795   3.995   9.742
29725SOL     OW91006  11.658   9.552   8.093
29725SOL    HW191007  11.571   9.581   8.066
29725SOL    HW291008  11.719   9.598   8.036
29726SOL     OW91009  12.227   3.417  12.851
29726SOL    HW191010  12.258   3.506  12.835
29726SOL    HW291011  12.169   3.398  12.777
29727SOL     OW91012  11.794   0.975   3.559
29727SOL    HW191013  11.857   0.950   3.627
29727SOL    HW291014  11.793   1.071   3.562
29728SOL     OW91015   7.853  14.675   1.474
29728SOL    HW191016   7.920  14.723   1.425
29728SOL    HW291017   7.827  14.604   1.416
29729SOL     OW91018  13.591   4.514   4.625
29729SOL    HW191019  13.586   4.550   4.536
29729SOL    HW291020  13.538   4.434   4.621
29730SOL     OW91021   6.406  11.879  12.731
29730SOL    HW191022   6.441  11.846  12.648
29730SOL    HW291023   6.447  11.824  12.798
29731SOL     OW91024  13.299  13.084   7.274
29731SOL    HW191025  13.262  13.170   7.297
29731SOL    HW291026  13.393  13.098   7.273
29732SOL     OW91027  12.397   3.834   5.210
29732SOL    HW191028  12.427   3.772   5.144
29732SOL    HW291029  12.394   3.783   5.291
29733SOL     OW91030   9.692   6.941   3.135
29733SOL    HW191031   9.702   6.924   3.229
29733SOL    HW291032   9.647   7.025   3.131
29734SOL     OW91033   6.973   6.370  12.877
29734SOL    HW191034   6.947   6.418  12.956
29734SOL    HW291035   6.966   6.435  12.806
29735SOL     OW91036  10.056   8.431   1.815
29735SOL    HW191037  10.021   8.467   1.734
29735SOL    HW291038  10.150   8.446   1.810
29736SOL     OW91039  13.425  10.649  11.927
29736SOL    HW191040  13.439  10.739  11.898
29736SOL    HW291041  13.363  10.657  12.000
29737SOL     OW91042  10.220   4.193   0.578
29737SOL    HW191043  10.194   4.282   0.555
29737SOL    HW291044  10.295   4.174   0.522
29738SOL     OW91045  11.538  10.701   2.503
29738SOL    HW191046  11.602  10.648   2.456
29738SOL    HW291047  11.521  10.653   2.584
29739SOL     OW91048  14.103  12.756   4.858
29739SOL    HW191049  14.019  12.792   4.884
29739SOL    HW291050  14.152  12.749   4.940
29740SOL     OW91051   1.518  14.018  13.666
29740SOL    HW191052   1.438  14.061  13.696
29740SOL    HW291053   1.589  14.069  13.705
29741SOL     OW91054   0.682   4.612  14.658
29741SOL    HW191055   0.637   4.544  14.609
29741SOL    HW291056   0.684   4.579  14.748
29742SOL     OW91057   0.314   8.004   2.169
29742SOL    HW191058   0.219   7.994   2.172
29742SOL    HW291059   0.334   8.021   2.077
29743SOL     OW91060  11.621   3.948  14.248
29743SOL    HW191061  11.638   3.873  14.191
29743SOL    HW291062  11.629   4.024  14.190
29744SOL     OW91063  10.294  10.080  11.936
29744SOL    HW191064  10.358  10.033  11.883
29744SOL    HW291065  10.331  10.082  12.024
29745SOL     OW91066   5.937  13.608   9.251
29745SOL    HW191067   5.952  13.690   9.297
29745SOL    HW291068   6.024  13.572   9.235
29746SOL     OW91069  11.847  11.303   5.738
29746SOL    HW191070  11.896  11.299   5.655
29746SOL    HW291071  11.755  11.293   5.712
29747SOL     OW91072   5.112   5.659  10.283
29747SOL    HW191073   5.189   5.610  10.254
29747SOL    HW291074   5.120   5.744  10.239
29748SOL     OW91075   7.057   4.867   7.030
29748SOL    HW191076   7.009   4.828   6.958
29748SOL    HW291077   7.018   4.828   7.109
29749SOL     OW91078   0.727   8.848   6.686
29749SOL    HW191079   0.799   8.886   6.735
29749SOL    HW291080   0.769   8.796   6.618
29750SOL     OW91081   5.254   8.171  10.788
29750SOL    HW191082   5.289   8.138  10.705
29750SOL    HW291083   5.315   8.138  10.854
29751SOL     OW91084   8.191  11.327  10.577
29751SOL    HW191085   8.111  11.376  10.557
29751SOL    HW291086   8.230  11.374  10.651
29752SOL     OW91087  13.943  11.955   3.790
29752SOL    HW191088  13.946  11.927   3.699
29752SOL    HW291089  13.992  12.037   3.792
29753SOL     OW91090  12.171   2.033   7.432
29753SOL    HW191091  12.240   1.968   7.416
29753SOL    HW291092  12.179   2.095   7.360
29754SOL     OW91093  12.159   6.187   9.935
29754SOL    HW191094  12.145   6.096   9.909
29754SOL    HW291095  12.155   6.186  10.030
29755SOL     OW91096   1.074  11.394   9.907
29755SOL    HW191097   1.146  11.404   9.845
29755SOL    HW291098   1.117  11.372   9.990
29756SOL     OW91099   4.831  10.038   0.211
29756SOL    HW191100   4.888  10.111   0.186
29756SOL    HW291101   4.744  10.076   0.216
29757SOL     OW91102   6.931  14.143   0.141
29757SOL    HW191103   6.881  14.148   0.223
29757SOL    HW291104   7.019  14.170   0.165
29758SOL     OW91105  13.151  10.677   0.363
29758SOL    HW191106  13.183  10.697   0.275
29758SOL    HW291107  13.066  10.721   0.367
29759SOL     OW91108  14.208   9.995   5.890
29759SOL    HW191109  14.211   9.960   5.979
29759SOL    HW291110  14.142  10.064   5.893
29760SOL     OW91111  12.949   8.295   1.809
29760SOL    HW191112  13.003   8.293   1.888
29760SOL    HW291113  12.902   8.379   1.814
29761SOL     OW91114   2.308   2.801  10.024
29761SOL    HW191115   2.338   2.871  10.082
29761SOL    HW291116   2.218   2.785  10.050
29762SOL     OW91117  14.687  10.024   2.571
29762SOL    HW191118  14.616   9.961   2.587
29762SOL    HW291119  14.688  10.080   2.648
29763SOL     OW91120   3.352  13.521   5.135
29763SOL    HW191121   3.415  13.584   5.171
29763SOL    HW291122   3.270  13.570   5.127
29764SOL     OW91123   6.756  10.397   5.081
29764SOL    HW191124   6.848  10.424   5.078
29764SOL    HW291125   6.749  10.347   5.162
29765SOL     OW91126   4.917   8.193   0.967
29765SOL    HW191127   4.858   8.244   1.023
29765SOL    HW291128   4.972   8.258   0.924
29766SOL     OW91129   2.166   4.933   5.406
29766SOL    HW191130   2.195   4.886   5.328
29766SOL    HW291131   2.161   5.025   5.378
29767SOL     OW91132   2.135  13.640   8.944
29767SOL    HW191133   2.145  13.682   8.859
29767SOL    HW291134   2.081  13.563   8.926
29768SOL     OW91135   1.288   0.544   0.426
29768SOL    HW191136   1.237   0.493   0.364
29768SOL    HW291137   1.379   0.519   0.409
29769SOL     OW91138   3.818   9.181   8.301
29769SOL    HW191139   3.814   9.268   8.342
29769SOL    HW291140   3.912   9.162   8.295
29770SOL     OW91141   6.312   4.513   0.753
29770SOL    HW191142   6.241   4.563   0.713
29770SOL    HW291143   6.370   4.491   0.679
29771SOL     OW91144  10.887  12.022   2.111
29771SOL    HW191145  10.870  11.965   2.037
29771SOL    HW291146  10.982  12.018   2.124
29772SOL     OW91147  12.094   1.753   4.978
29772SOL    HW191148  12.159   1.720   4.916
29772SOL    HW291149  12.142   1.762   5.061
29773SOL     OW91150   7.192   7.896   1.278
29773SOL    HW191151   7.177   7.801   1.270
29773SOL    HW291152   7.137   7.934   1.210
29774SOL     OW91153  12.442   4.076  10.368
29774SOL    HW191154  12.351   4.104  10.377
29774SOL    HW291155  12.438   3.981  10.373
29775SOL     OW91156   6.770   4.964  11.424
29775SOL    HW191157   6.720   5.042  11.402
29775SOL    HW291158   6.851   4.998  11.463
29776SOL     OW91159   0.719   6.683   0.484
29776SOL    HW191160   0.687   6.715   0.399
29776SOL    HW291161   0.639   6.667   0.534
29777SOL     OW91162   3.500   6.499   5.663
29777SOL    HW191163   3.579   6.475   5.711
29777SOL    HW291164   3.433   6.437   5.694
29778SOL     OW91165   3.789   3.296  13.115
29778SOL    HW191166   3.778   3.210  13.076
29778SOL    HW291167   3.718   3.349  13.078
29779SOL     OW91168  13.355  12.083   3.455
29779SOL    HW191169  13.278  12.139   3.461
29779SOL    HW291170  13.330  12.014   3.394
29780SOL     OW91171  10.052   8.961  10.275
29780SOL    HW191172  10.050   9.022  10.201
29780SOL    HW291173   9.964   8.965  10.312
29781SOL     OW91174  12.726  10.252  12.849
29781SOL    HW191175  12.805  10.301  12.829
29781SOL    HW291176  12.698  10.285  12.934
29782SOL     OW91177   4.000  13.629  10.258
29782SOL    HW191178   4.091  13.632  10.227
29782SOL    HW291179   4.006  13.650  10.351
29783SOL     OW91180   2.618  11.236   1.826
29783SOL    HW191181   2.613  11.282   1.910
29783SOL    HW291182   2.699  11.268   1.786
29784SOL     OW91183   2.881   7.621   4.477
29784SOL    HW191184   2.845   7.533   4.462
29784SOL    HW291185   2.969   7.617   4.441
29785SOL     OW91186   3.079   8.238   3.899
29785SOL    HW191187   3.011   8.196   3.952
29785SOL    HW291188   3.083   8.186   3.819
29786SOL     OW91189   0.586   1.654   8.529
29786SOL    HW191190   0.630   1.584   8.578
29786SOL    HW291191   0.651   1.723   8.521
29787SOL     OW91192  14.412  10.456  12.379
29787SOL    HW191193  14.320  10.447  12.405
29787SOL    HW291194  14.416  10.539  12.331
29788SOL     OW91195   2.312  14.014  12.029
29788SOL    HW191196   2.271  13.993  11.946
29788SOL    HW291197   2.360  13.935  12.054
29789SOL     OW91198   2.467   0.242   8.161
29789SOL    HW191199   2.525   0.257   8.236
29789SOL    HW291200   2.465   0.147   8.150
29790SOL     OW91201   4.310   4.759   5.942
29790SOL    HW191202   4.386   4.702   5.954
29790SOL    HW291203   4.342   4.846   5.963
29791SOL     OW91204   4.651   9.009   1.709
29791SOL    HW191205   4.600   8.992   1.630
29791SOL    HW291206   4.611   8.953   1.776
29792SOL     OW91207  10.542  11.738   1.761
29792SOL    HW191208  10.464  11.747   1.817
29792SOL    HW291209  10.540  11.647   1.732
29793SOL     OW91210   9.279  11.807   7.986
29793SOL    HW191211   9.204  11.811   7.926
29793SOL    HW291212   9.261  11.730   8.041
29794SOL     OW91213   5.045  14.504   4.956
29794SOL    HW191214   5.049  14.495   5.051
29794SOL    HW291215   4.972  14.564   4.941
29795SOL     OW91216   0.545   8.843  10.018
29795SOL    HW191217   0.592   8.913  10.064
29795SOL    HW291218   0.460   8.881   9.996
29796SOL     OW91219   5.382   8.214  12.442
29796SOL    HW191220   5.362   8.253  12.357
29796SOL    HW291221   5.476   8.194  12.438
29797SOL     OW91222   0.651   9.290   3.546
29797SOL    HW191223   0.708   9.281   3.622
29797SOL    HW291224   0.573   9.334   3.579
29798SOL     OW91225  14.463   5.807   9.620
29798SOL    HW191226  14.527   5.770   9.559
29798SOL    HW291227  14.512   5.825   9.699
29799SOL     OW91228   4.859   5.457  13.573
29799SOL    HW191229   4.810   5.527  13.615
29799SOL    HW291230   4.931   5.439  13.633
29800SOL     OW91231  12.325   6.036   8.892
29800SOL    HW191232  12.288   6.018   8.979
29800SOL    HW291233  12.387   6.107   8.906
29801SOL     OW91234   1.662   2.597   6.258
29801SOL    HW191235   1.645   2.649   6.179
29801SOL    HW291236   1.606   2.520   6.249
29802SOL     OW91237   5.381  14.187   9.471
29802SOL    HW191238   5.300  14.148   9.504
29802SOL    HW291239   5.416  14.237   9.545
29803SOL     OW91240  12.831   4.227  12.930
29803SOL    HW191241  12.856   4.221  13.022
29803SOL    HW291242  12.742   4.261  12.931
29804SOL     OW91243   3.089   0.326  14.560
29804SOL    HW191244   3.113   0.239  14.591
29804SOL    HW291245   3.150   0.385  14.604
29805SOL     OW91246   5.570  12.816   1.718
29805SOL    HW191247   5.517  12.744   1.753
29805SOL    HW291248   5.596  12.785   1.631
29806SOL     OW91249   7.645   0.170   1.158
29806SOL    HW191250   7.586   0.169   1.083
29806SOL    HW291251   7.623   0.091   1.207
29807SOL     OW91252   6.913  11.410   4.542
29807SOL    HW191253   6.885  11.474   4.476
29807SOL    HW291254   6.831  11.379   4.581
29808SOL     OW91255  13.384   6.916   2.758
29808SOL    HW191256  13.463   6.863   2.745
29808SOL    HW291257  13.317   6.854   2.786
29809SOL     OW91258  14.264   0.357   9.357
29809SOL    HW191259  14.301   0.274   9.327
29809SOL    HW291260  14.216   0.391   9.282
29810SOL     OW91261  10.225  10.117  13.945
29810SOL    HW191262  10.172  10.039  13.930
29810SOL    HW291263  10.251  10.111  14.037
29811SOL     OW91264  10.878  12.873   9.209
29811SOL    HW191265  10.824  12.876   9.288
29811SOL    HW291266  10.836  12.808   9.153
29812SOL     OW91267  13.710   2.357   9.172
29812SOL    HW191268  13.640   2.412   9.206
29812SOL    HW291269  13.671   2.310   9.098
29813SOL     OW91270   6.229  14.050  14.331
29813SOL    HW191271   6.280  14.088  14.402
29813SOL    HW291272   6.169  13.989  14.374
29814SOL     OW91273   1.321   9.589  10.114
29814SOL    HW191274   1.311   9.528  10.187
29814SOL    HW291275   1.410   9.574  10.082
29815SOL     OW91276   5.459   9.991  12.340
29815SOL    HW191277   5.469   9.976  12.434
29815SOL    HW291278   5.527  10.056  12.318
29816SOL     OW91279   3.335   6.111   7.025
29816SOL    HW191280   3.333   6.073   7.113
29816SOL    HW291281   3.322   6.037   6.966
29817SOL     OW91282   3.107   3.015   4.449
29817SOL    HW191283   3.140   3.060   4.371
29817SOL    HW291284   3.017   2.990   4.426
29818SOL     OW91285   1.126  11.516  12.687
29818SOL    HW191286   1.181  11.515  12.766
29818SOL    HW291287   1.057  11.452  12.706
29819SOL     OW91288   3.434  10.270   3.769
29819SOL    HW191289   3.357  10.227   3.730
29819SOL    HW291290   3.414  10.364   3.763
29820SOL     OW91291  10.913  10.120   5.135
29820SOL    HW191292  10.931  10.079   5.220
29820SOL    HW291293  10.875  10.205   5.156
29821SOL     OW91294  14.774   9.883   9.017
29821SOL    HW191295  14.866   9.872   8.993
29821SOL    HW291296  14.728   9.887   8.933
29822SOL     OW91297   7.601   9.827  12.803
29822SOL    HW191298   7.561   9.754  12.850
29822SOL    HW291299   7.662   9.866  12.866
29823SOL     OW91300   2.070   1.035  12.561
29823SOL    HW191301   2.069   1.085  12.480
29823SOL    HW291302   2.126   1.085  12.620
29824SOL     OW91303   4.893   8.901  13.368
29824SOL    HW191304   4.840   8.909  13.289
29824SOL    HW291305   4.914   8.807  13.373
29825SOL     OW91306   5.456  10.032  13.698
29825SOL    HW191307   5.407  10.086  13.760
29825SOL    HW291308   5.545  10.031  13.734
29826SOL     OW91309   9.851   8.746   5.946
29826SOL    HW191310   9.779   8.807   5.931
29826SOL    HW291311   9.864   8.702   5.862
29827SOL     OW91312   1.044  11.860   9.141
29827SOL    HW191313   1.078  11.787   9.090
29827SOL    HW291314   1.083  11.938   9.100
29828SOL     OW91315   5.833   7.713   0.227
29828SOL    HW191316   5.887   7.683   0.300
29828SOL    HW291317   5.847   7.808   0.224
29829SOL     OW91318   9.837  12.909  10.398
29829SOL    HW191319   9.864  12.996  10.369
29829SOL    HW291320   9.751  12.922  10.436
29830SOL     OW91321   6.859  10.404   2.635
29830SOL    HW191322   6.939  10.442   2.600
29830SOL    HW291323   6.806  10.480   2.661
29831SOL     OW91324   7.776  14.189   7.200
29831SOL    HW191325   7.711  14.122   7.175
29831SOL    HW291326   7.774  14.252   7.128
29832SOL     OW91327  13.910   5.032   0.279
29832SOL    HW191328  13.971   5.073   0.341
29832SOL    HW291329  13.829   5.081   0.290
29833SOL     OW91330   6.209   9.800   7.724
29833SOL    HW191331   6.268   9.865   7.764
29833SOL    HW291332   6.264   9.723   7.711
29834SOL     OW91333   5.430   5.729   2.543
29834SOL    HW191334   5.497   5.776   2.492
29834SOL    HW291335   5.351   5.736   2.489
29835SOL     OW91336  10.166   1.580  13.052
29835SOL    HW191337  10.101   1.616  13.113
29835SOL    HW291338  10.250   1.597  13.094
29836SOL     OW91339  13.766   9.308   5.987
29836SOL    HW191340  13.735   9.219   6.004
29836SOL    HW291341  13.777   9.313   5.892
29837SOL     OW91342   2.584   8.538   7.936
29837SOL    HW191343   2.645   8.552   8.008
29837SOL    HW291344   2.500   8.571   7.968
29838SOL     OW91345   4.318   2.853  10.256
29838SOL    HW191346   4.249   2.855  10.190
29838SOL    HW291347   4.278   2.811  10.332
29839SOL     OW91348  12.931   8.359  11.622
29839SOL    HW191349  12.846   8.316  11.633
29839SOL    HW291350  12.911   8.453  11.626
29840SOL     OW91351   6.407   0.127  12.308
29840SOL    HW191352   6.333   0.141  12.368
29840SOL    HW291353   6.463   0.203  12.322
29841SOL     OW91354  10.326   2.014   6.840
29841SOL    HW191355  10.253   2.062   6.880
29841SOL    HW291356  10.339   2.058   6.756
29842SOL     OW91357   1.994   7.229   9.063
29842SOL    HW191358   1.947   7.298   9.109
29842SOL    HW291359   2.064   7.276   9.016
29843SOL     OW91360   6.160   2.199   1.119
29843SOL    HW191361   6.243   2.242   1.098
29843SOL    HW291362   6.107   2.209   1.040
29844SOL     OW91363   0.969   0.360   1.412
29844SOL    HW191364   1.011   0.446   1.407
29844SOL    HW291365   0.910   0.359   1.337
29845SOL     OW91366   1.641   4.890  14.732
29845SOL    HW191367   1.610   4.867  14.820
29845SOL    HW291368   1.731   4.920  14.746
29846SOL     OW91369   9.612   8.430   0.169
29846SOL    HW191370   9.685   8.372   0.191
29846SOL    HW291371   9.540   8.371   0.148
29847SOL     OW91372   3.811   8.279  10.951
29847SOL    HW191373   3.800   8.193  10.992
29847SOL    HW291374   3.793   8.341  11.021
29848SOL     OW91375  12.862   3.653  10.354
29848SOL    HW191376  12.904   3.573  10.320
29848SOL    HW291377  12.813   3.688  10.280
29849SOL     OW91378   5.172   4.745  10.268
29849SOL    HW191379   5.156   4.742  10.363
29849SOL    HW291380   5.203   4.834  10.251
29850SOL     OW91381   1.370   3.134   8.810
29850SOL    HW191382   1.313   3.210   8.815
29850SOL    HW291383   1.453   3.163   8.848
29851SOL     OW91384   5.329   8.292   6.711
29851SOL    HW191385   5.339   8.275   6.617
29851SOL    HW291386   5.419   8.296   6.744
29852SOL     OW91387   4.189  11.944   2.991
29852SOL    HW191388   4.179  11.957   3.086
29852SOL    HW291389   4.102  11.964   2.956
29853SOL     OW91390  12.028   7.374  13.920
29853SOL    HW191391  12.040   7.312  13.992
29853SOL    HW291392  12.116   7.406  13.900
29854SOL     OW91393   3.847   8.342   0.051
29854SOL    HW191394   3.911   8.405   0.017
29854SOL    HW291395   3.801   8.310  14.845
29855SOL     OW91396  13.978  11.601  13.534
29855SOL    HW191397  14.031  11.561  13.603
29855SOL    HW291398  13.966  11.531  13.470
29856SOL     OW91399   6.779  12.376  14.335
29856SOL    HW191400   6.833  12.372  14.414
29856SOL    HW291401   6.811  12.304  14.281
29857SOL     OW91402  10.979   0.827   9.041
29857SOL    HW191403  11.017   0.795   8.959
29857SOL    HW291404  10.936   0.909   9.018
29858SOL     OW91405   6.580   9.341   4.031
29858SOL    HW191406   6.553   9.366   3.943
29858SOL    HW291407   6.536   9.257   4.047
29859SOL     OW91408   5.979  14.390  11.563
29859SOL    HW191409   5.924  14.312  11.569
29859SOL    HW291410   5.917  14.463  11.566
29860SOL     OW91411   4.125   4.614   1.666
29860SOL    HW191412   4.139   4.626   1.760
29860SOL    HW291413   4.091   4.525   1.658
29861SOL     OW91414   0.566   5.798  12.096
29861SOL    HW191415   0.571   5.704  12.114
29861SOL    HW291416   0.637   5.836  12.147
29862SOL     OW91417   5.286  10.747  13.025
29862SOL    HW191418   5.232  10.695  12.966
29862SOL    HW291419   5.253  10.725  13.112
29863SOL     OW91420   1.162   4.865  10.298
29863SOL    HW191421   1.236   4.806  10.309
29863SOL    HW291422   1.171   4.927  10.371
29864SOL     OW91423  10.644   1.683   0.855
29864SOL    HW191424  10.739   1.677   0.869
29864SOL    HW291425  10.608   1.613   0.908
29865SOL     OW91426   8.939   9.515  13.724
29865SOL    HW191427   8.951   9.457  13.649
29865SOL    HW291428   8.924   9.457  13.798
29866SOL     OW91429  10.737   1.798   3.582
29866SOL    HW191430  10.830   1.800   3.560
29866SOL    HW291431  10.695   1.849   3.513
29867SOL     OW91432  14.358  11.641   2.564
29867SOL    HW191433  14.390  11.629   2.475
29867SOL    HW291434  14.380  11.560   2.609
29868SOL     OW91435   8.100   6.311  12.212
29868SOL    HW191436   8.176   6.262  12.244
29868SOL    HW291437   8.068   6.261  12.137
29869SOL     OW91438   6.986   3.767   2.598
29869SOL    HW191439   7.010   3.856   2.624
29869SOL    HW291440   7.039   3.711   2.654
29870SOL     OW91441   8.845  14.271   7.100
29870SOL    HW191442   8.842  14.362   7.131
29870SOL    HW291443   8.905  14.227   7.161
29871SOL     OW91444   8.425   1.622   8.166
29871SOL    HW191445   8.444   1.601   8.075
29871SOL    HW291446   8.469   1.706   8.181
29872SOL     OW91447   3.464   3.461   2.610
29872SOL    HW191448   3.425   3.456   2.697
29872SOL    HW291449   3.463   3.371   2.578
29873SOL     OW91450  11.904   8.369  11.517
29873SOL    HW191451  11.891   8.274  11.519
29873SOL    HW291452  11.914   8.394  11.609
29874SOL     OW91453  11.610   3.761  14.606
29874SOL    HW191454  11.562   3.738  14.527
29874SOL    HW291455  11.542   3.773  14.673
29875SOL     OW91456   1.078  14.800  12.190
29875SOL    HW191457   1.159  14.774  12.147
29875SOL    HW291458   1.011  14.791  12.122
29876SOL     OW91459   1.180   5.008  11.987
29876SOL    HW191460   1.270   5.024  12.014
29876SOL    HW291461   1.142   4.957  12.059
29877SOL     OW91462  11.523  10.516   4.828
29877SOL    HW191463  11.536  10.423   4.810
29877SOL    HW291464  11.554  10.560   4.749
29878SOL     OW91465   1.205   5.114  13.391
29878SOL    HW191466   1.194   5.074  13.304
29878SOL    HW291467   1.117   5.141  13.416
29879SOL     OW91468   2.465  10.197   6.559
29879SOL    HW191469   2.511  10.214   6.641
29879SOL    HW291470   2.518  10.131   6.514
29880SOL     OW91471   2.843   7.216   0.767
29880SOL    HW191472   2.891   7.234   0.848
29880SOL    HW291473   2.769   7.162   0.795
29881SOL     OW91474   4.161   7.779   1.168
29881SOL    HW191475   4.153   7.872   1.189
29881SOL    HW291476   4.163   7.735   1.253
29882SOL     OW91477   9.299  13.902  13.114
29882SOL    HW191478   9.218  13.922  13.066
29882SOL    HW291479   9.369  13.923  13.053
29883SOL     OW91480  13.147   1.950   0.684
29883SOL    HW191481  13.161   2.044   0.678
29883SOL    HW291482  13.054   1.938   0.668
29884SOL     OW91483   6.607   3.672  13.257
29884SOL    HW191484   6.636   3.728  13.185
29884SOL    HW291485   6.686   3.627  13.286
29885SOL     OW91486   7.345   1.721   5.216
29885SOL    HW191487   7.360   1.686   5.129
29885SOL    HW291488   7.410   1.791   5.225
29886SOL     OW91489  10.556   0.059   6.822
29886SOL    HW191490  10.608   0.001   6.877
29886SOL    HW291491  10.611   0.138   6.812
29887SOL     OW91492  13.539   4.062   1.409
29887SOL    HW191493  13.462   4.036   1.358
29887SOL    HW291494  13.609   4.068   1.344
29888SOL     OW91495   1.244  13.771   2.539
29888SOL    HW191496   1.295  13.847   2.566
29888SOL    HW291497   1.252  13.770   2.443
29889SOL     OW91498   6.667   3.422   0.729
29889SOL    HW191499   6.656   3.339   0.683
29889SOL    HW291500   6.588   3.430   0.783
29890SOL     OW91501  12.218  11.843   8.744
29890SOL    HW191502  12.273  11.765   8.746
29890SOL    HW291503  12.186  11.853   8.834
29891SOL     OW91504  10.419   3.620   0.536
29891SOL    HW191505  10.363   3.646   0.608
29891SOL    HW291506  10.361   3.616   0.460
29892SOL     OW91507   3.051   1.589   4.836
29892SOL    HW191508   3.075   1.591   4.743
29892SOL    HW291509   2.983   1.656   4.844
29893SOL     OW91510   1.019  10.560   3.044
29893SOL    HW191511   0.979  10.498   3.105
29893SOL    HW291512   0.954  10.630   3.034
29894SOL     OW91513   4.284   2.222   3.439
29894SOL    HW191514   4.211   2.198   3.496
29894SOL    HW291515   4.246   2.224   3.351
29895SOL     OW91516   3.826   1.127  14.144
29895SOL    HW191517   3.777   1.192  14.094
29895SOL    HW291518   3.886   1.179  14.198
29896SOL     OW91519   8.362   9.325   5.830
29896SOL    HW191520   8.317   9.257   5.779
29896SOL    HW291521   8.359   9.402   5.773
29897SOL     OW91522  12.189   5.920   4.704
29897SOL    HW191523  12.154   5.861   4.638
29897SOL    HW291524  12.173   5.875   4.787
29898SOL     OW91525   0.359   5.956  12.220
29898SOL    HW191526   0.426   5.903  12.177
29898SOL    HW291527   0.289   5.963  12.155
29899SOL     OW91528  12.811   5.076  13.137
29899SOL    HW191529  12.896   5.099  13.099
29899SOL    HW291530  12.764   5.159  13.144
29900SOL     OW91531   1.496   5.809  10.066
29900SOL    HW191532   1.579   5.764  10.082
29900SOL    HW291533   1.509   5.896  10.106
29901SOL     OW91534   0.515  14.818  10.256
29901SOL    HW191535   0.602  14.794  10.289
29901SOL    HW291536   0.454  14.780  10.320
29902SOL     OW91537   0.021   0.522   3.192
29902SOL    HW191538  14.866   0.532   3.283
29902SOL    HW291539   0.108   0.482   3.197
29903SOL     OW91540   0.419  11.979  14.088
29903SOL    HW191541   0.472  11.919  14.140
29903SOL    HW291542   0.370  11.922  14.028
29904SOL     OW91543   8.355   6.545   9.587
29904SOL    HW191544   8.345   6.609   9.658
29904SOL    HW291545   8.348   6.460   9.630
29905SOL     OW91546   9.459   6.917   2.170
29905SOL    HW191547   9.448   6.916   2.075
29905SOL    HW291548   9.536   6.972   2.185
29906SOL     OW91549  12.488   1.150   7.365
29906SOL    HW191550  12.478   1.081   7.431
29906SOL    HW291551  12.425   1.217   7.390
29907SOL     OW91552   0.358  11.790   4.157
29907SOL    HW191553   0.341  11.725   4.089
29907SOL    HW291554   0.283  11.849   4.153
29908SOL     OW91555   2.537  13.568   9.412
29908SOL    HW191556   2.486  13.538   9.336
29908SOL    HW291557   2.628  13.563   9.384
29909SOL     OW91558  11.935   4.450  10.526
29909SOL    HW191559  11.893   4.372  10.563
29909SOL    HW291560  11.948   4.429  10.434
29910SOL     OW91561   4.209   2.051   2.248
29910SOL    HW191562   4.130   2.026   2.201
29910SOL    HW291563   4.196   2.145   2.267
29911SOL     OW91564   3.608   6.027   2.960
29911SOL    HW191565   3.571   6.075   2.885
29911SOL    HW291566   3.609   5.935   2.931
29912SOL     OW91567   0.947  14.755   7.111
29912SOL    HW191568   0.986  14.722   7.192
29912SOL    HW291569   0.993  14.708   7.041
29913SOL     OW91570  14.594   7.448   7.889
29913SOL    HW191571  14.592   7.533   7.934
29913SOL    HW291572  14.502   7.422   7.882
29914SOL     OW91573  11.439   3.888  10.309
29914SOL    HW191574  11.383   3.877  10.232
29914SOL    HW291575  11.452   3.799  10.342
29915SOL     OW91576   0.319   9.667   8.541
29915SOL    HW191577   0.302   9.706   8.627
29915SOL    HW291578   0.237   9.623   8.518
29916SOL     OW91579   4.172  13.967   6.660
29916SOL    HW191580   4.255  13.997   6.698
29916SOL    HW291581   4.140  13.901   6.721
29917SOL     OW91582   4.121   2.563   6.175
29917SOL    HW191583   4.151   2.641   6.222
29917SOL    HW291584   4.180   2.493   6.205
29918SOL     OW91585   6.143  13.423   7.487
29918SOL    HW191586   6.197  13.354   7.450
29918SOL    HW291587   6.198  13.501   7.484
29919SOL     OW91588   3.113  10.103  11.239
29919SOL    HW191589   3.059  10.027  11.262
29919SOL    HW291590   3.165  10.121  11.317
29920SOL     OW91591   3.601   4.631   2.017
29920SOL    HW191592   3.563   4.583   2.090
29920SOL    HW291593   3.572   4.721   2.029
29921SOL     OW91594  10.029  14.794  10.248
29921SOL    HW191595   9.982  14.764  10.170
29921SOL    HW291596  10.120  14.770  10.231
29922SOL     OW91597   2.560   6.784   5.928
29922SOL    HW191598   2.526   6.763   5.841
29922SOL    HW291599   2.619   6.858   5.914
29923SOL     OW91600   3.237   7.533  10.336
29923SOL    HW191601   3.276   7.477  10.269
29923SOL    HW291602   3.216   7.615  10.290
29924SOL     OW91603   9.635   6.503   8.397
29924SOL    HW191604   9.649   6.573   8.333
29924SOL    HW291605   9.699   6.521   8.466
29925SOL     OW91606   3.920   0.405  10.901
29925SOL    HW191607   3.869   0.333  10.866
29925SOL    HW291608   4.008   0.369  10.912
29926SOL     OW91609   5.841   4.994   1.584
29926SOL    HW191610   5.887   5.007   1.501
29926SOL    HW291611   5.770   5.058   1.582
29927SOL     OW91612  13.481  12.053   3.009
29927SOL    HW191613  13.454  12.117   3.075
29927SOL    HW291614  13.404  11.997   2.999
29928SOL     OW91615   3.549   6.488  12.283
29928SOL    HW191616   3.632   6.443  12.301
29928SOL    HW291617   3.572   6.555  12.219
29929SOL     OW91618  11.009   1.297  12.549
29929SOL    HW191619  11.059   1.369  12.589
29929SOL    HW291620  10.919   1.313  12.576
29930SOL     OW91621   2.511   9.739   2.150
29930SOL    HW191622   2.537   9.821   2.193
29930SOL    HW291623   2.581   9.724   2.086
29931SOL     OW91624   7.132   7.247   6.702
29931SOL    HW191625   7.216   7.211   6.732
29931SOL    HW291626   7.102   7.184   6.636
29932SOL     OW91627   1.597   3.862   8.789
29932SOL    HW191628   1.575   3.770   8.803
29932SOL    HW291629   1.691   3.867   8.810
29933SOL     OW91630  13.976   2.445  11.260
29933SOL    HW191631  13.882   2.463  11.260
29933SOL    HW291632  13.993   2.407  11.174
29934SOL     OW91633  11.336  13.198  10.175
29934SOL    HW191634  11.339  13.152  10.091
29934SOL    HW291635  11.351  13.290  10.153
29935SOL     OW91636   9.847   2.299   7.124
29935SOL    HW191637   9.799   2.380   7.140
29935SOL    HW291638   9.864   2.298   7.030
29936SOL     OW91639  12.514   8.784  11.431
29936SOL    HW191640  12.500   8.876  11.410
29936SOL    HW291641  12.554   8.746  11.353
29937SOL     OW91642  13.244   5.854   2.413
29937SOL    HW191643  13.151   5.875   2.413
29937SOL    HW291644  13.255   5.792   2.486
29938SOL     OW91645   8.067  14.322   6.945
29938SOL    HW191646   8.150  14.353   6.908
29938SOL    HW291647   8.055  14.235   6.907
29939SOL     OW91648   2.200   4.772  13.518
29939SOL    HW191649   2.141   4.729  13.580
29939SOL    HW291650   2.180   4.732  13.434
29940SOL     OW91651  12.781   2.703   3.216
29940SOL    HW191652  12.772   2.613   3.247
29940SOL    HW291653  12.786   2.696   3.121
29941SOL     OW91654  11.485   3.088   6.805
29941SOL    HW191655  11.510   3.121   6.718
29941SOL    HW291656  11.435   3.009   6.787
29942SOL     OW91657   1.941  13.976   1.296
29942SOL    HW191658   1.888  14.051   1.326
29942SOL    HW291659   2.026  14.015   1.273
29943SOL     OW91660   9.997   3.468   7.654
29943SOL    HW191661   9.942   3.538   7.618
29943SOL    HW291662  10.030   3.422   7.577
29944SOL     OW91663   7.766   4.070   5.369
29944SOL    HW191664   7.699   4.003   5.377
29944SOL    HW291665   7.720   4.147   5.337
29945SOL     OW91666   8.550   2.991   1.485
29945SOL    HW191667   8.480   3.045   1.521
29945SOL    HW291668   8.551   2.913   1.540
29946SOL     OW91669   7.910   9.452  14.649
29946SOL    HW191670   7.900   9.383  14.714
29946SOL    HW291671   7.978   9.420  14.590
29947SOL     OW91672  12.584  12.536  12.696
29947SOL    HW191673  12.491  12.536  12.672
29947SOL    HW291674  12.604  12.628  12.713
29948SOL     OW91675   9.265   6.447   0.088
29948SOL    HW191676   9.197   6.381   0.101
29948SOL    HW291677   9.227   6.527   0.124
29949SOL     OW91678   0.332  12.093  12.238
29949SOL    HW191679   0.310  12.177  12.278
29949SOL    HW291680   0.409  12.110  12.185
29950SOL     OW91681   2.094   3.273  10.466
29950SOL    HW191682   2.170   3.325  10.439
29950SOL    HW291683   2.058   3.321  10.540
29951SOL     OW91684  11.709   8.470   2.762
29951SOL    HW191685  11.675   8.430   2.842
29951SOL    HW291686  11.632   8.506   2.718
29952SOL     OW91687  11.733   3.069   5.246
29952SOL    HW191688  11.794   3.103   5.181
29952SOL    HW291689  11.721   3.141   5.308
29953SOL     OW91690  11.597  13.155   7.651
29953SOL    HW191691  11.529  13.198   7.600
29953SOL    HW291692  11.550  13.102   7.715
29954SOL     OW91693   0.713   4.229   7.640
29954SOL    HW191694   0.640   4.182   7.599
29954SOL    HW291695   0.755   4.275   7.568
29955SOL     OW91696   0.358  10.279   2.264
29955SOL    HW191697   0.331  10.248   2.177
29955SOL    HW291698   0.433  10.223   2.287
29956SOL     OW91699   0.032   2.900  12.298
29956SOL    HW191700   0.026   2.981  12.248
29956SOL    HW291701  14.834   2.907  12.363
29957SOL     OW91702   0.222   6.745   5.037
29957SOL    HW191703   0.210   6.833   5.074
29957SOL    HW291704   0.305   6.715   5.073
29958SOL     OW91705  11.895   6.376   3.318
29958SOL    HW191706  11.868   6.361   3.227
29958SOL    HW291707  11.825   6.431   3.354
29959SOL     OW91708   6.107   3.161   9.272
29959SOL    HW191709   6.193   3.202   9.264
29959SOL    HW291710   6.071   3.165   9.184
29960SOL     OW91711   9.945  12.203  14.015
29960SOL    HW191712   9.959  12.172  13.925
29960SOL    HW291713   9.850  12.209  14.023
29961SOL     OW91714   0.074   6.627   9.527
29961SOL    HW191715   0.049   6.709   9.484
29961SOL    HW291716   0.169   6.622   9.513
29962SOL     OW91717   0.977  13.816   3.451
29962SOL    HW191718   1.038  13.884   3.479
29962SOL    HW291719   0.905  13.863   3.409
29963SOL     OW91720   0.429  10.749   3.097
29963SOL    HW191721   0.361  10.700   3.050
29963SOL    HW291722   0.458  10.689   3.166
29964SOL     OW91723   9.202   1.783   4.109
29964SOL    HW191724   9.169   1.853   4.052
29964SOL    HW291725   9.222   1.711   4.050
29965SOL     OW91726  10.628   4.707   1.417
29965SOL    HW191727  10.553   4.707   1.358
29965SOL    HW291728  10.690   4.645   1.377
29966SOL     OW91729   0.049   1.359   9.487
29966SOL    HW191730   0.112   1.393   9.423
29966SOL    HW291731  14.842   1.411   9.473
29967SOL     OW91732   1.192   2.309   2.658
29967SOL    HW191733   1.280   2.274   2.668
29967SOL    HW291734   1.163   2.278   2.573
29968SOL     OW91735   1.341   3.533   8.015
29968SOL    HW191736   1.305   3.536   7.926
29968SOL    HW291737   1.320   3.618   8.052
29969SOL     OW91738   2.977   3.311   1.074
29969SOL    HW191739   3.030   3.357   1.139
29969SOL    HW291740   2.941   3.237   1.122
29970SOL     OW91741   8.097   8.100  13.828
29970SOL    HW191742   8.075   8.071  13.739
29970SOL    HW291743   8.191   8.117  13.825
29971SOL     OW91744   2.038   9.110  11.043
29971SOL    HW191745   2.032   9.153  11.128
29971SOL    HW291746   2.114   9.052  11.051
29972SOL     OW91747   1.003   5.922  13.126
29972SOL    HW191748   0.997   5.935  13.221
29972SOL    HW291749   0.966   5.835  13.111
29973SOL     OW91750   0.222   3.330   3.727
29973SOL    HW191751   0.221   3.288   3.813
29973SOL    HW291752   0.298   3.293   3.683
29974SOL     OW91753  13.328   9.602   9.269
29974SOL    HW191754  13.278   9.595   9.188
29974SOL    HW291755  13.303   9.687   9.306
29975SOL     OW91756   9.177   4.066  12.537
29975SOL    HW191757   9.126   4.147  12.528
29975SOL    HW291758   9.111   3.997  12.541
29976SOL     OW91759   6.669   1.192  12.782
29976SOL    HW191760   6.608   1.225  12.716
29976SOL    HW291761   6.665   1.257  12.852
29977SOL     OW91762   8.490   8.057  10.703
29977SOL    HW191763   8.503   7.972  10.746
29977SOL    HW291764   8.466   8.035  10.613
29978SOL     OW91765   0.028   8.614   8.385
29978SOL    HW191766   0.003   8.688   8.329
29978SOL    HW291767   0.041   8.652   8.472
29979SOL     OW91768   7.938  12.089  10.918
29979SOL    HW191769   7.985  12.085  10.834
29979SOL    HW291770   7.956  12.177  10.951
29980SOL     OW91771  13.682   8.235   7.592
29980SOL    HW191772  13.718   8.223   7.504
29980SOL    HW291773  13.752   8.208   7.651
29981SOL     OW91774   5.790  13.784   7.440
29981SOL    HW191775   5.712  13.784   7.496
29981SOL    HW291776   5.804  13.692   7.418
29982SOL     OW91777   2.285   6.754  13.370
29982SOL    HW191778   2.197   6.723  13.349
29982SOL    HW291779   2.315   6.799  13.291
29983SOL     OW91780   2.166   1.363   8.789
29983SOL    HW191781   2.095   1.301   8.776
29983SOL    HW291782   2.123   1.443   8.819
29984SOL     OW91783   4.190   1.294   0.841
29984SOL    HW191784   4.175   1.203   0.817
29984SOL    HW291785   4.269   1.293   0.894
29985SOL     OW91786   7.904   9.187  14.747
29985SOL    HW191787   7.811   9.164  14.742
29985SOL    HW291788   7.942   9.119  14.803
29986SOL     OW91789  13.382   0.582   2.380
29986SOL    HW191790  13.371   0.639   2.304
29986SOL    HW291791  13.386   0.493   2.343
29987SOL     OW91792  12.081   8.101  14.693
29987SOL    HW191793  12.027   8.110  14.771
29987SOL    HW291794  12.142   8.175  14.697
29988SOL     OW91795   4.730  13.879   7.132
29988SOL    HW191796   4.755  13.970   7.119
29988SOL    HW291797   4.698  13.875   7.222
29989SOL     OW91798   5.834   7.207   4.158
29989SOL    HW191799   5.787   7.132   4.193
29989SOL    HW291800   5.887   7.239   4.231
29990SOL     OW91801   5.696   5.983   8.694
29990SOL    HW191802   5.768   6.012   8.750
29990SOL    HW291803   5.642   6.062   8.684
29991SOL     OW91804  10.375   3.411   8.024
29991SOL    HW191805  10.339   3.457   7.948
29991SOL    HW291806  10.449   3.466   8.052
29992SOL     OW91807   2.273   8.124   5.061
29992SOL    HW191808   2.304   8.210   5.033
29992SOL    HW291809   2.210   8.142   5.131
29993SOL     OW91810   4.158  10.412  11.684
29993SOL    HW191811   4.193  10.346  11.744
29993SOL    HW291812   4.209  10.401  11.604
29994SOL     OW91813   9.429   2.630   6.036
29994SOL    HW191814   9.351   2.629   6.092
29994SOL    HW291815   9.485   2.699   6.074
29995SOL     OW91816   7.559  10.868   5.809
29995SOL    HW191817   7.624  10.806   5.842
29995SOL    HW291818   7.486  10.812   5.779
29996SOL     OW91819   5.547   2.592  14.291
29996SOL    HW191820   5.577   2.675  14.255
29996SOL    HW291821   5.486   2.558  14.226
29997SOL     OW91822  14.774  14.018   3.854
29997SOL    HW191823  14.748  14.110   3.864
29997SOL    HW291824  14.864  14.021   3.823
29998SOL     OW91825   9.664   0.440   0.587
29998SOL    HW191826   9.625   0.527   0.597
29998SOL    HW291827   9.610   0.383   0.641
29999SOL     OW91828   3.218   8.393   0.998
29999SOL    HW191829   3.262   8.418   0.916
29999SOL    HW291830   3.247   8.304   1.014
30000SOL     OW91831  10.384   8.377   7.753
30000SOL    HW191832  10.427   8.440   7.695
30000SOL    HW291833  10.291   8.402   7.751
30001SOL     OW91834   6.319  11.917   0.292
30001SOL    HW191835   6.333  12.008   0.318
30001SOL    HW291836   6.231  11.917   0.254
30002SOL     OW91837   5.180   2.389   7.873
30002SOL    HW191838   5.209   2.480   7.870
30002SOL    HW291839   5.261   2.339   7.885
30003SOL     OW91840  10.559   5.591   6.900
30003SOL    HW191841  10.621   5.527   6.935
30003SOL    HW291842  10.549   5.655   6.971
30004SOL     OW91843  12.187  12.955   3.225
30004SOL    HW191844  12.159  12.967   3.134
30004SOL    HW291845  12.283  12.955   3.220
30005SOL     OW91846   7.804   8.601  10.916
30005SOL    HW191847   7.785   8.567  11.004
30005SOL    HW291848   7.872   8.668  10.931
30006SOL     OW91849   8.928  13.019  10.800
30006SOL    HW191850   8.888  13.103  10.821
30006SOL    HW291851   8.858  12.955  10.812
30007SOL     OW91852   0.228  14.749  13.625
30007SOL    HW191853   0.197  14.660  13.610
30007SOL    HW291854   0.318  14.748  13.591
30008SOL     OW91855   7.151   0.950  11.238
30008SOL    HW191856   7.232   0.905  11.215
30008SOL    HW291857   7.179   1.040  11.258
30009SOL     OW91858   1.110   7.687  10.048
30009SOL    HW191859   1.088   7.778  10.032
30009SOL    HW291860   1.138   7.683  10.139
30010SOL     OW91861  14.237  12.049   0.398
30010SOL    HW191862  14.216  12.065   0.306
30010SOL    HW291863  14.294  12.122   0.423
30011SOL     OW91864   8.433  10.127   8.909
30011SOL    HW191865   8.488  10.122   8.987
30011SOL    HW291866   8.484  10.178   8.846
30012SOL     OW91867  11.122  12.703   2.199
30012SOL    HW191868  11.056  12.716   2.267
30012SOL    HW291869  11.119  12.609   2.180
30013SOL     OW91870   1.851   3.154   8.843
30013SOL    HW191871   1.913   3.135   8.914
30013SOL    HW291872   1.858   3.079   8.784
30014SOL     OW91873   7.527   1.600   6.893
30014SOL    HW191874   7.495   1.531   6.952
30014SOL    HW291875   7.611   1.626   6.930
30015SOL     OW91876   6.971  13.897  11.558
30015SOL    HW191877   7.001  13.809  11.576
30015SOL    HW291878   7.042  13.954  11.589
30016SOL     OW91879   0.280   7.739   3.906
30016SOL    HW191880   0.257   7.706   3.992
30016SOL    HW291881   0.231   7.821   3.897
30017SOL     OW91882   4.838   9.413  11.678
30017SOL    HW191883   4.872   9.362  11.604
30017SOL    HW291884   4.748   9.435  11.652
30018SOL     OW91885   0.821   7.294   1.386
30018SOL    HW191886   0.762   7.367   1.402
30018SOL    HW291887   0.855   7.272   1.473
30019SOL     OW91888  13.475  10.401   6.566
30019SOL    HW191889  13.530  10.461   6.616
30019SOL    HW291890  13.518  10.317   6.573
30020SOL     OW91891   8.346   4.935  12.499
30020SOL    HW191892   8.413   4.931  12.431
30020SOL    HW291893   8.265   4.957  12.452
30021SOL     OW91894   4.269   1.712   7.746
30021SOL    HW191895   4.300   1.621   7.746
30021SOL    HW291896   4.228   1.723   7.832
30022SOL     OW91897   9.353   3.870  14.641
30022SOL    HW191898   9.441   3.848  14.612
30022SOL    HW291899   9.359   3.962  14.667
30023SOL     OW91900  13.416  11.437   2.727
30023SOL    HW191901  13.488  11.497   2.747
30023SOL    HW291902  13.423  11.423   2.633
30024SOL     OW91903   7.658  14.639   3.826
30024SOL    HW191904   7.744  14.665   3.791
30024SOL    HW291905   7.598  14.650   3.752
30025SOL     OW91906  14.859   3.850  14.102
30025SOL    HW191907  14.792   3.813  14.045
30025SOL    HW291908  14.828   3.938  14.122
30026SOL     OW91909   8.275  12.372  10.033
30026SOL    HW191910   8.219  12.433   9.984
30026SOL    HW291911   8.224  12.291  10.036
30027SOL     OW91912   7.409   2.703   9.391
30027SOL    HW191913   7.445   2.615   9.399
30027SOL    HW291914   7.443   2.736   9.308
30028SOL     OW91915  10.606  13.603   8.170
30028SOL    HW191916  10.691  13.565   8.189
30028SOL    HW291917  10.548  13.527   8.161
30029SOL     OW91918   6.912   6.375   6.017
30029SOL    HW191919   6.877   6.425   5.943
30029SOL    HW291920   6.968   6.437   6.063
30030SOL     OW91921   4.541  13.387   0.851
30030SOL    HW191922   4.453  13.396   0.813
30030SOL    HW291923   4.589  13.462   0.818
30031SOL     OW91924  11.646  13.322   4.772
30031SOL    HW191925  11.571  13.368   4.734
30031SOL    HW291926  11.622  13.229   4.769
30032SOL     OW91927   0.649   1.742   3.635
30032SOL    HW191928   0.738   1.737   3.671
30032SOL    HW291929   0.631   1.836   3.630
30033SOL     OW91930   8.355   2.219   8.302
30033SOL    HW191931   8.355   2.308   8.266
30033SOL    HW291932   8.330   2.230   8.394
30034SOL     OW91933  10.475   5.196   1.830
30034SOL    HW191934  10.521   5.122   1.788
30034SOL    HW291935  10.524   5.212   1.910
30035SOL     OW91936  13.319  10.857  10.354
30035SOL    HW191937  13.281  10.945  10.345
30035SOL    HW291938  13.403  10.862  10.308
30036SOL     OW91939  14.306   8.393   3.714
30036SOL    HW191940  14.254   8.317   3.739
30036SOL    HW291941  14.275   8.416   3.627
30037SOL     OW91942  13.356  12.316   2.083
30037SOL    HW191943  13.291  12.386   2.074
30037SOL    HW291944  13.307  12.242   2.118
30038SOL     OW91945  14.207  11.633   5.102
30038SOL    HW191946  14.135  11.640   5.039
30038SOL    HW291947  14.229  11.724   5.124
30039SOL     OW91948   4.421   3.216   5.971
30039SOL    HW191949   4.363   3.291   5.957
30039SOL    HW291950   4.361   3.144   5.993
30040SOL     OW91951   0.909   3.963  10.046
30040SOL    HW191952   0.888   3.874  10.018
30040SOL    HW291953   0.994   3.982  10.005
30041SOL     OW91954   9.083   1.727   7.279
30041SOL    HW191955   9.050   1.759   7.195
30041SOL    HW291956   9.152   1.789   7.303
30042SOL     OW91957   1.482   6.888   7.836
30042SOL    HW191958   1.422   6.814   7.828
30042SOL    HW291959   1.491   6.922   7.747
30043SOL     OW91960   0.056   9.681  12.577
30043SOL    HW191961   0.133   9.682  12.634
30043SOL    HW291962   0.087   9.639  12.496
30044SOL     OW91963   8.436  13.234   7.496
30044SOL    HW191964   8.522  13.275   7.506
30044SOL    HW291965   8.380  13.280   7.559
30045SOL     OW91966   4.565  13.023  11.515
30045SOL    HW191967   4.492  13.025  11.454
30045SOL    HW291968   4.589  13.115  11.527
30046SOL     OW91969   9.881  10.759   7.054
30046SOL    HW191970   9.893  10.774   6.960
30046SOL    HW291971   9.921  10.674   7.071
30047SOL     OW91972   2.529  12.975  12.813
30047SOL    HW191973   2.570  13.060  12.827
30047SOL    HW291974   2.599  12.918  12.782
30048SOL     OW91975   4.579   5.855   9.157
30048SOL    HW191976   4.579   5.878   9.064
30048SOL    HW291977   4.506   5.792   9.166
30049SOL     OW91978  12.704   9.693   6.035
30049SOL    HW191979  12.751   9.661   5.958
30049SOL    HW291980  12.770   9.699   6.104
30050SOL     OW91981   0.592  11.895   9.341
30050SOL    HW191982   0.630  11.856   9.262
30050SOL    HW291983   0.651  11.866   9.411
30051SOL     OW91984   7.112   5.413   1.693
30051SOL    HW191985   7.069   5.411   1.608
30051SOL    HW291986   7.047   5.378   1.754
30052SOL     OW91987  11.771  12.445  14.267
30052SOL    HW191988  11.718  12.402  14.335
30052SOL    HW291989  11.844  12.385  14.252
30053SOL     OW91990   4.539   0.171   7.510
30053SOL    HW191991   4.609   0.114   7.477
30053SOL    HW291992   4.564   0.259   7.482
30054SOL     OW91993   1.570   2.706   3.188
30054SOL    HW191994   1.542   2.745   3.271
30054SOL    HW291995   1.638   2.764   3.156
30055SOL     OW91996   2.029  11.525   6.884
30055SOL    HW191997   2.074  11.576   6.951
30055SOL    HW291998   2.049  11.434   6.905
30056SOL     OW91999   4.474   2.748   7.601
30056SOL    HW192000   4.507   2.823   7.650
30056SOL    HW292001   4.391   2.727   7.643
30057SOL     OW92002   2.539   7.019  11.409
30057SOL    HW192003   2.489   6.979  11.481
30057SOL    HW292004   2.473   7.060  11.353
30058SOL     OW92005   8.159   8.307  10.369
30058SOL    HW192006   8.071   8.277  10.394
30058SOL    HW292007   8.147   8.400  10.348
30059SOL     OW92008   6.624   0.728   7.839
30059SOL    HW192009   6.663   0.644   7.815
30059SOL    HW292010   6.695   0.775   7.884
30060SOL     OW92011   0.663   1.420  11.451
30060SOL    HW192012   0.612   1.344  11.423
30060SOL    HW292013   0.649   1.485  11.382
30061SOL     OW92014   7.727   4.111   0.355
30061SOL    HW192015   7.709   4.096   0.262
30061SOL    HW292016   7.822   4.123   0.359
30062SOL     OW92017  14.523   0.147   2.972
30062SOL    HW192018  14.495   0.230   2.933
30062SOL    HW292019  14.574   0.104   2.904
30063SOL     OW92020  12.749  12.324  12.990
30063SOL    HW192021  12.720  12.268  13.062
30063SOL    HW292022  12.823  12.373  13.025
30064SOL     OW92023  13.514  14.577   9.358
30064SOL    HW192024  13.589  14.584   9.299
30064SOL    HW292025  13.535  14.503   9.414
30065SOL     OW92026  10.780   8.071   9.966
30065SOL    HW192027  10.857   8.018   9.983
30065SOL    HW292028  10.803   8.124   9.890
30066SOL     OW92029   4.520   1.128   8.834
30066SOL    HW192030   4.549   1.216   8.807
30066SOL    HW292031   4.501   1.137   8.927
30067SOL     OW92032   0.188  12.154   6.225
30067SOL    HW192033   0.265  12.156   6.283
30067SOL    HW292034   0.143  12.236   6.243
30068SOL     OW92035  13.023   6.346   7.193
30068SOL    HW192036  13.102   6.385   7.230
30068SOL    HW292037  12.999   6.277   7.256
30069SOL     OW92038   7.373  13.239   4.877
30069SOL    HW192039   7.435  13.242   4.805
30069SOL    HW292040   7.370  13.146   4.902
30070SOL     OW92041   3.790   3.221  10.807
30070SOL    HW192042   3.880   3.188  10.805
30070SOL    HW292043   3.745   3.164  10.870
30071SOL     OW92044  13.973   9.682   4.045
30071SOL    HW192045  13.899   9.733   4.011
30071SOL    HW292046  13.942   9.649   4.129
30072SOL     OW92047  14.076   5.204   3.760
30072SOL    HW192048  14.019   5.210   3.837
30072SOL    HW292049  14.087   5.295   3.732
30073SOL     OW92050   9.593  10.719  13.589
30073SOL    HW192051   9.618  10.743  13.678
30073SOL    HW292052   9.536  10.790  13.559
30074SOL     OW92053   0.366   5.122   4.409
30074SOL    HW192054   0.430   5.121   4.480
30074SOL    HW292055   0.284   5.147   4.451
30075SOL     OW92056  12.440   5.825  10.397
30075SOL    HW192057  12.525   5.794  10.428
30075SOL    HW292058  12.400   5.750  10.354
30076SOL     OW92059   7.880  14.345  14.339
30076SOL    HW192060   7.902  14.302  14.256
30076SOL    HW292061   7.799  14.304  14.367
30077SOL     OW92062   7.262   2.040   5.587
30077SOL    HW192063   7.222   2.006   5.507
30077SOL    HW292064   7.335   1.981   5.605
30078SOL     OW92065  14.569   5.185   3.604
30078SOL    HW192066  14.521   5.102   3.616
30078SOL    HW292067  14.555   5.232   3.687
30079SOL     OW92068   6.861   6.879   7.565
30079SOL    HW192069   6.909   6.894   7.647
30079SOL    HW292070   6.770   6.899   7.587
30080SOL     OW92071   6.306  12.967   2.504
30080SOL    HW192072   6.278  13.005   2.588
30080SOL    HW292073   6.316  12.874   2.522
30081SOL     OW92074  13.218   3.700   8.802
30081SOL    HW192075  13.155   3.763   8.836
30081SOL    HW292076  13.284   3.693   8.871
30082SOL     OW92077   0.940   1.726  14.402
30082SOL    HW192078   0.848   1.728  14.376
30082SOL    HW292079   0.976   1.807  14.366
30083SOL     OW92080   2.234   1.690   7.928
30083SOL    HW192081   2.155   1.732   7.962
30083SOL    HW292082   2.243   1.610   7.980
30084SOL     OW92083   6.004   5.151  13.781
30084SOL    HW192084   6.091   5.165  13.820
30084SOL    HW292085   6.022   5.104  13.700
30085SOL     OW92086   2.139   5.605  14.575
30085SOL    HW192087   2.077   5.565  14.637
30085SOL    HW292088   2.096   5.595  14.489
30086SOL     OW92089  12.946   9.474   0.026
30086SOL    HW192090  12.950   9.522  14.816
30086SOL    HW292091  12.855   9.444   0.032
30087SOL     OW92092   4.322   1.458   7.768
30087SOL    HW192093   4.327   1.416   7.682
30087SOL    HW292094   4.318   1.385   7.830
30088SOL     OW92095   0.884   5.535   6.434
30088SOL    HW192096   0.942   5.463   6.462
30088SOL    HW292097   0.941   5.592   6.382
30089SOL     OW92098  10.182   9.938   1.216
30089SOL    HW192099  10.171  10.020   1.264
30089SOL    HW292100  10.251   9.956   1.152
30090SOL     OW92101  11.632   9.579   7.376
30090SOL    HW192102  11.680   9.498   7.356
30090SOL    HW292103  11.652   9.596   7.468
30091SOL     OW92104   2.229  14.597  12.093
30091SOL    HW192105   2.206  14.690  12.092
30091SOL    HW292106   2.233  14.575  12.186
30092SOL     OW92107   2.558   1.472  13.878
30092SOL    HW192108   2.556   1.533  13.804
30092SOL    HW292109   2.651   1.452  13.890
30093SOL     OW92110  13.586   3.946  13.617
30093SOL    HW192111  13.512   3.887  13.607
30093SOL    HW292112  13.620   3.957  13.528
30094SOL     OW92113   8.081   6.215   3.239
30094SOL    HW192114   8.005   6.231   3.296
30094SOL    HW292115   8.056   6.141   3.185
30095SOL     OW92116   7.130   9.620   9.481
30095SOL    HW192117   7.171   9.619   9.394
30095SOL    HW292118   7.134   9.529   9.510
30096SOL     OW92119   5.004  12.342  14.260
30096SOL    HW192120   4.986  12.429  14.224
30096SOL    HW292121   4.966  12.344  14.348
30097SOL     OW92122   0.196  12.889   7.937
30097SOL    HW192123   0.133  12.946   7.982
30097SOL    HW292124   0.241  12.947   7.875
30098SOL     OW92125   6.410   5.186   4.927
30098SOL    HW192126   6.469   5.112   4.915
30098SOL    HW292127   6.457   5.260   4.887
30099SOL     OW92128   7.565  11.012   7.884
30099SOL    HW192129   7.615  10.940   7.846
30099SOL    HW292130   7.618  11.090   7.867
30100SOL     OW92131   7.023   3.108  13.182
30100SOL    HW192132   6.991   3.173  13.119
30100SOL    HW292133   7.019   3.025  13.135
30101SOL     OW92134  11.068   8.264  12.808
30101SOL    HW192135  11.037   8.227  12.890
30101SOL    HW292136  11.118   8.341  12.834
30102SOL     OW92137   0.828  14.671   5.979
30102SOL    HW192138   0.835  14.767   5.975
30102SOL    HW292139   0.836  14.642   5.888
30103SOL     OW92140   0.536   4.856   5.085
30103SOL    HW192141   0.450   4.864   5.045
30103SOL    HW292142   0.592   4.821   5.017
30104SOL     OW92143   8.561   1.682   7.166
30104SOL    HW192144   8.596   1.659   7.081
30104SOL    HW292145   8.510   1.762   7.150
30105SOL     OW92146   9.434   1.732  13.540
30105SOL    HW192147   9.363   1.671  13.556
30105SOL    HW292148   9.498   1.713  13.608
30106SOL     OW92149   6.578   6.265   9.212
30106SOL    HW192150   6.664   6.306   9.208
30106SOL    HW292151   6.524   6.316   9.152
30107SOL     OW92152   3.955  11.592   9.694
30107SOL    HW192153   3.904  11.574   9.773
30107SOL    HW292154   4.036  11.632   9.727
30108SOL     OW92155  14.645  10.783  10.884
30108SOL    HW192156  14.727  10.826  10.909
30108SOL    HW292157  14.584  10.804  10.954
30109SOL     OW92158  11.824   7.702   2.897
30109SOL    HW192159  11.822   7.797   2.886
30109SOL    HW292160  11.860   7.669   2.815
30110SOL     OW92161   1.594   9.305  10.925
30110SOL    HW192162   1.511   9.352  10.937
30110SOL    HW292163   1.597   9.243  10.999
30111SOL     OW92164  10.430   9.943   1.584
30111SOL    HW192165  10.492   9.883   1.542
30111SOL    HW292166  10.349   9.892   1.592
30112SOL     OW92167   8.473   2.000   2.964
30112SOL    HW192168   8.481   2.094   2.977
30112SOL    HW292169   8.390   1.976   3.005
30113SOL     OW92170   4.254  13.742   8.609
30113SOL    HW192171   4.239  13.725   8.702
30113SOL    HW292172   4.304  13.824   8.608
30114SOL     OW92173  12.905   9.400   9.057
30114SOL    HW192174  12.821   9.391   9.012
30114SOL    HW292175  12.884   9.447   9.138
30115SOL     OW92176  13.327   9.242  10.525
30115SOL    HW192177  13.395   9.214  10.586
30115SOL    HW292178  13.280   9.161  10.502
30116SOL     OW92179   3.639  10.856   9.198
30116SOL    HW192180   3.555  10.853   9.243
30116SOL    HW292181   3.621  10.823   9.111
30117SOL     OW92182   3.236  14.506  10.455
30117SOL    HW192183   3.231  14.559  10.534
30117SOL    HW292184   3.159  14.531  10.404
30118SOL     OW92185  11.095   6.612  13.031
30118SOL    HW192186  11.098   6.673  12.957
30118SOL    HW292187  11.041   6.656  13.096
30119SOL     OW92188  12.970   3.665  11.119
30119SOL    HW192189  13.007   3.656  11.032
30119SOL    HW292190  13.043   3.647  11.178
30120SOL     OW92191   3.639   5.046   0.732
30120SOL    HW192192   3.576   4.985   0.770
30120SOL    HW292193   3.686   4.994   0.667
30121SOL     OW92194  13.919   6.596   9.341
30121SOL    HW192195  13.937   6.503   9.350
30121SOL    HW292196  13.899   6.626   9.430
30122SOL     OW92197  12.898  12.762   3.792
30122SOL    HW192198  12.894  12.819   3.716
30122SOL    HW292199  12.991  12.756   3.813
30123SOL     OW92200   4.722   3.144  14.129
30123SOL    HW192201   4.744   3.087  14.056
30123SOL    HW292202   4.686   3.223  14.088
30124SOL     OW92203   2.726  10.762  13.776
30124SOL    HW192204   2.746  10.856  13.773
30124SOL    HW292205   2.692  10.742  13.689
30125SOL     OW92206   7.603   4.734   4.405
30125SOL    HW192207   7.660   4.806   4.376
30125SOL    HW292208   7.664   4.667   4.434
30126SOL     OW92209  12.088   5.215   9.379
30126SOL    HW192210  12.023   5.214   9.309
30126SOL    HW292211  12.172   5.216   9.333
30127SOL     OW92212   5.014   7.833   6.754
30127SOL    HW192213   5.054   7.919   6.741
30127SOL    HW292214   4.968   7.841   6.838
30128SOL     OW92215  13.604   0.088   9.635
30128SOL    HW192216  13.568   0.143   9.565
30128SOL    HW292217  13.536   0.023   9.651
30129SOL     OW92218  10.176   3.950  12.361
30129SOL    HW192219  10.234   4.026  12.367
30129SOL    HW292220  10.204   3.904  12.282
30130SOL     OW92221  11.954  11.923  12.216
30130SOL    HW192222  11.898  11.997  12.236
30130SOL    HW292223  11.911  11.880  12.142
30131SOL     OW92224   7.341   6.072   4.811
30131SOL    HW192225   7.387   6.045   4.732
30131SOL    HW292226   7.404   6.128   4.857
30132SOL     OW92227  12.398   8.612   6.398
30132SOL    HW192228  12.350   8.619   6.316
30132SOL    HW292229  12.395   8.700   6.436
30133SOL     OW92230   4.494   2.565   7.411
30133SOL    HW192231   4.493   2.632   7.479
30133SOL    HW292232   4.402   2.551   7.389
30134SOL     OW92233   3.729  11.282   4.625
30134SOL    HW192234   3.720  11.377   4.634
30134SOL    HW292235   3.814  11.270   4.583
30135SOL     OW92236   7.453   6.430  10.463
30135SOL    HW192237   7.401   6.483  10.523
30135SOL    HW292238   7.451   6.478  10.381
30136SOL     OW92239  14.568   7.117   1.798
30136SOL    HW192240  14.574   7.051   1.867
30136SOL    HW292241  14.497   7.175   1.826
30137SOL     OW92242  10.959   2.728   8.021
30137SOL    HW192243  10.924   2.681   7.945
30137SOL    HW292244  10.900   2.705   8.092
30138SOL     OW92245   7.293   2.756   3.069
30138SOL    HW192246   7.252   2.834   3.032
30138SOL    HW292247   7.290   2.692   2.998
30139SOL     OW92248   8.709   3.523  13.598
30139SOL    HW192249   8.712   3.428  13.586
30139SOL    HW292250   8.704   3.535  13.693
30140SOL     OW92251   8.568   6.752  11.459
30140SOL    HW192252   8.613   6.707  11.530
30140SOL    HW292253   8.567   6.688  11.387
30141SOL     OW92254   8.687  13.487  13.426
30141SOL    HW192255   8.763  13.434  13.450
30141SOL    HW292256   8.673  13.469  13.333
30142SOL     OW92257   3.931  13.351  10.302
30142SOL    HW192258   3.981  13.339  10.382
30142SOL    HW292259   3.934  13.445  10.285
30143SOL     OW92260   2.220   4.132  10.178
30143SOL    HW192261   2.161   4.156  10.107
30143SOL    HW292262   2.305   4.166  10.152
30144SOL     OW92263  14.783   7.204  12.899
30144SOL    HW192264  14.802   7.255  12.979
30144SOL    HW292265  14.736   7.127  12.931
30145SOL     OW92266   5.918   0.596   9.404
30145SOL    HW192267   5.870   0.515   9.386
30145SOL    HW292268   5.860   0.647   9.459
30146SOL     OW92269   3.117  13.178   2.574
30146SOL    HW192270   3.149  13.095   2.610
30146SOL    HW292271   3.023  13.177   2.594
30147SOL     OW92272   1.275   0.434  10.147
30147SOL    HW192273   1.205   0.478  10.100
30147SOL    HW292274   1.237   0.413  10.233
30148SOL     OW92275   1.466   0.674  13.433
30148SOL    HW192276   1.512   0.759  13.433
30148SOL    HW292277   1.450   0.655  13.525
30149SOL     OW92278   7.837   1.131  10.198
30149SOL    HW192279   7.880   1.054  10.160
30149SOL    HW292280   7.805   1.101  10.283
30150SOL     OW92281  10.517   0.075   2.625
30150SOL    HW192282  10.499   0.128   2.703
30150SOL    HW292283  10.462  14.869   2.636
30151SOL     OW92284   0.640   0.546   3.550
30151SOL    HW192285   0.711   0.516   3.607
30151SOL    HW292286   0.683   0.601   3.485
30152SOL     OW92287   9.777  13.908  11.453
30152SOL    HW192288   9.705  13.850  11.429
30152SOL    HW292289   9.793  13.960  11.374
30153SOL     OW92290   8.339  14.211  11.263
30153SOL    HW192291   8.350  14.275  11.193
30153SOL    HW292292   8.426  14.175  11.277
30154SOL     OW92293  11.993   3.803   2.451
30154SOL    HW192294  12.083   3.827   2.472
30154SOL    HW292295  11.942   3.883   2.464
30155SOL     OW92296   8.245   2.526  13.410
30155SOL    HW192297   8.274   2.611  13.376
30155SOL    HW292298   8.233   2.472  13.331
30156SOL     OW92299   6.472   8.167   3.002
30156SOL    HW192300   6.425   8.150   2.920
30156SOL    HW292301   6.525   8.244   2.985
30157SOL     OW92302   8.093   4.847  12.710
30157SOL    HW192303   8.061   4.905  12.640
30157SOL    HW292304   8.175   4.886  12.737
30158SOL     OW92305   3.452  10.769   8.310
30158SOL    HW192306   3.454  10.783   8.405
30158SOL    HW292307   3.517  10.828   8.274
30159SOL     OW92308   9.210   6.992   3.990
30159SOL    HW192309   9.171   7.064   3.941
30159SOL    HW292310   9.248   6.935   3.924
30160SOL     OW92311   7.492   4.924  13.368
30160SOL    HW192312   7.416   4.875  13.399
30160SOL    HW292313   7.495   5.001  13.425
30161SOL     OW92314   3.270   7.252   6.221
30161SOL    HW192315   3.179   7.236   6.248
30161SOL    HW292316   3.313   7.284   6.300
30162SOL     OW92317   6.059   9.736   5.625
30162SOL    HW192318   5.987   9.787   5.661
30162SOL    HW292319   6.052   9.650   5.668
30163SOL     OW92320   4.349   9.344   7.177
30163SOL    HW192321   4.326   9.383   7.261
30163SOL    HW292322   4.265   9.337   7.130
30164SOL     OW92323   2.393   1.058  14.714
30164SOL    HW192324   2.421   1.075  14.624
30164SOL    HW292325   2.306   1.019  14.705
30165SOL     OW92326   4.476  10.618   6.783
30165SOL    HW192327   4.432  10.693   6.743
30165SOL    HW292328   4.458  10.545   6.724
30166SOL     OW92329   4.871   1.149   0.706
30166SOL    HW192330   4.930   1.188   0.770
30166SOL    HW292331   4.922   1.146   0.625
30167SOL     OW92332   4.168   6.729   8.045
30167SOL    HW192333   4.214   6.793   8.099
30167SOL    HW292334   4.075   6.748   8.059
30168SOL     OW92335   1.358   1.745   0.322
30168SOL    HW192336   1.295   1.757   0.393
30168SOL    HW292337   1.441   1.776   0.358
30169SOL     OW92338   4.563   2.113  12.683
30169SOL    HW192339   4.602   2.029  12.706
30169SOL    HW292340   4.590   2.128  12.592
30170SOL     OW92341   8.092  10.997   6.835
30170SOL    HW192342   8.004  11.030   6.818
30170SOL    HW292343   8.146  11.076   6.842
30171SOL     OW92344   6.393  12.223   2.141
30171SOL    HW192345   6.434  12.290   2.087
30171SOL    HW292346   6.306  12.211   2.102
30172SOL     OW92347   1.878   6.858  14.132
30172SOL    HW192348   1.909   6.771  14.107
30172SOL    HW292349   1.952   6.916  14.113
30173SOL     OW92350  14.368   3.048   3.857
30173SOL    HW192351  14.379   3.104   3.933
30173SOL    HW292352  14.377   2.959   3.891
30174SOL     OW92353  13.137   6.444  12.837
30174SOL    HW192354  13.208   6.506  12.856
30174SOL    HW292355  13.080   6.491  12.776
30175SOL     OW92356   3.525   3.793   0.204
30175SOL    HW192357   3.469   3.865   0.172
30175SOL    HW292358   3.602   3.837   0.240
30176SOL     OW92359   9.391  12.737   7.427
30176SOL    HW192360   9.455  12.756   7.496
30176SOL    HW292361   9.376  12.821   7.385
30177SOL     OW92362  11.500   8.247   4.514
30177SOL    HW192363  11.455   8.214   4.437
30177SOL    HW292364  11.493   8.342   4.508
30178SOL     OW92365   4.838  13.801   2.715
30178SOL    HW192366   4.790  13.855   2.652
30178SOL    HW292367   4.923  13.843   2.725
30179SOL     OW92368   4.989   2.525   5.152
30179SOL    HW192369   5.071   2.541   5.105
30179SOL    HW292370   4.921   2.550   5.090
30180SOL     OW92371   2.683   2.012   5.843
30180SOL    HW192372   2.651   2.099   5.821
30180SOL    HW292373   2.649   1.956   5.773
30181SOL     OW92374  11.922  11.305  12.205
30181SOL    HW192375  11.918  11.395  12.172
30181SOL    HW292376  11.833  11.288  12.238
30182SOL     OW92377   1.656   4.745  13.824
30182SOL    HW192378   1.585   4.809  13.817
30182SOL    HW292379   1.735   4.798  13.835
30183SOL     OW92380  11.555   3.004  10.711
30183SOL    HW192381  11.538   2.939  10.780
30183SOL    HW292382  11.567   2.953  10.632
30184SOL     OW92383   7.815   5.869   1.797
30184SOL    HW192384   7.908   5.876   1.817
30184SOL    HW292385   7.789   5.957   1.771
30185SOL     OW92386   2.863   6.535   7.112
30185SOL    HW192387   2.863   6.629   7.133
30185SOL    HW292388   2.928   6.527   7.042
30186SOL     OW92389   6.774   4.256   0.843
30186SOL    HW192390   6.716   4.248   0.919
30186SOL    HW292391   6.829   4.178   0.847
30187SOL     OW92392   0.711   3.698   6.082
30187SOL    HW192393   0.646   3.628   6.075
30187SOL    HW292394   0.786   3.666   6.031
30188SOL     OW92395   2.916   6.370  12.827
30188SOL    HW192396   2.834   6.327  12.799
30188SOL    HW292397   2.898   6.463  12.821
30189SOL     OW92398  12.896  10.606   6.258
30189SOL    HW192399  12.867  10.515   6.271
30189SOL    HW292400  12.862  10.653   6.334
30190SOL     OW92401   8.902   6.817  10.079
30190SOL    HW192402   8.975   6.867  10.116
30190SOL    HW292403   8.828   6.878  10.082
30191SOL     OW92404   6.003  13.421   1.309
30191SOL    HW192405   6.051  13.498   1.279
30191SOL    HW292406   5.999  13.364   1.232
30192SOL     OW92407   0.756   5.845  12.356
30192SOL    HW192408   0.727   5.754  12.346
30192SOL    HW292409   0.850   5.842  12.336
30193SOL     OW92410   6.175   2.109   6.095
30193SOL    HW192411   6.211   2.153   6.018
30193SOL    HW292412   6.168   2.017   6.068
30194SOL     OW92413  12.054   8.256   3.811
30194SOL    HW192414  11.984   8.192   3.799
30194SOL    HW292415  12.098   8.260   3.727
30195SOL     OW92416   2.796  13.799   0.106
30195SOL    HW192417   2.866  13.769   0.048
30195SOL    HW292418   2.728  13.731   0.099
30196SOL     OW92419  13.992  12.350   8.444
30196SOL    HW192420  13.934  12.426   8.438
30196SOL    HW292421  14.079  12.384   8.423
30197SOL     OW92422   2.166   5.505   7.206
30197SOL    HW192423   2.239   5.526   7.147
30197SOL    HW292424   2.091   5.550   7.168
30198SOL     OW92425   5.803   2.787   0.484
30198SOL    HW192426   5.759   2.862   0.523
30198SOL    HW292427   5.893   2.815   0.470
30199SOL     OW92428   1.107  13.577  10.268
30199SOL    HW192429   1.158  13.501  10.240
30199SOL    HW292430   1.017  13.557  10.241
30200SOL     OW92431  10.069  12.563   2.587
30200SOL    HW192432  10.094  12.654   2.605
30200SOL    HW292433   9.980  12.555   2.621
30201SOL     OW92434  13.586   6.174   3.026
30201SOL    HW192435  13.674   6.184   3.061
30201SOL    HW292436  13.593   6.100   2.965
30202SOL     OW92437   0.244   2.871   2.353
30202SOL    HW192438   0.222   2.780   2.333
30202SOL    HW292439   0.209   2.885   2.441
30203SOL     OW92440   1.142  14.233   3.917
30203SOL    HW192441   1.118  14.320   3.948
30203SOL    HW292442   1.151  14.242   3.822
30204SOL     OW92443   9.735   8.398   6.054
30204SOL    HW192444   9.690   8.314   6.067
30204SOL    HW292445   9.788   8.409   6.133
30205SOL     OW92446  11.809   2.098  13.764
30205SOL    HW192447  11.874   2.153  13.719
30205SOL    HW292448  11.767   2.156  13.827
30206SOL     OW92449   1.043   7.584   1.899
30206SOL    HW192450   0.994   7.590   1.981
30206SOL    HW292451   1.114   7.524   1.917
30207SOL     OW92452   3.415   0.532  10.784
30207SOL    HW192453   3.504   0.511  10.756
30207SOL    HW292454   3.391   0.608  10.731
30208SOL     OW92455   2.565   4.212   6.419
30208SOL    HW192456   2.601   4.126   6.398
30208SOL    HW292457   2.524   4.242   6.338
30209SOL     OW92458   5.358  13.406   1.409
30209SOL    HW192459   5.345  13.495   1.377
30209SOL    HW292460   5.309  13.351   1.347
30210SOL     OW92461   4.025  12.679   9.539
30210SOL    HW192462   3.938  12.715   9.526
30210SOL    HW292463   4.059  12.664   9.451
30211SOL     OW92464   9.081  12.817  14.622
30211SOL    HW192465   9.060  12.854  14.536
30211SOL    HW292466   9.043  12.729  14.620
30212SOL     OW92467   3.384   8.639  11.970
30212SOL    HW192468   3.303   8.654  11.922
30212SOL    HW292469   3.386   8.545  11.986
30213SOL     OW92470  11.230  10.480   1.861
30213SOL    HW192471  11.323  10.492   1.879
30213SOL    HW292472  11.227  10.415   1.791
30214SOL     OW92473  14.459   2.750  12.874
30214SOL    HW192474  14.388   2.799  12.915
30214SOL    HW292475  14.415   2.683  12.822
30215SOL     OW92476  11.094  12.919   5.266
30215SOL    HW192477  11.009  12.925   5.224
30215SOL    HW292478  11.074  12.900   5.358
30216SOL     OW92479   6.172   7.804   7.552
30216SOL    HW192480   6.259   7.798   7.511
30216SOL    HW292481   6.146   7.713   7.567
30217SOL     OW92482  11.278   0.615   9.321
30217SOL    HW192483  11.227   0.689   9.287
30217SOL    HW292484  11.228   0.585   9.397
30218SOL     OW92485  13.767   5.888   6.370
30218SOL    HW192486  13.798   5.964   6.321
30218SOL    HW292487  13.677   5.875   6.340
30219SOL     OW92488   8.839  14.117   6.223
30219SOL    HW192489   8.764  14.119   6.164
30219SOL    HW292490   8.800  14.112   6.311
30220SOL     OW92491   9.315  10.375   6.789
30220SOL    HW192492   9.332  10.416   6.874
30220SOL    HW292493   9.316  10.448   6.727
30221SOL     OW92494  13.968   7.034   6.153
30221SOL    HW192495  13.881   7.047   6.116
30221SOL    HW292496  13.991   7.118   6.191
30222SOL     OW92497  11.195   5.750  12.352
30222SOL    HW192498  11.102   5.733  12.366
30222SOL    HW292499  11.223   5.801  12.428
30223SOL     OW92500   9.024  13.935   6.130
30223SOL    HW192501   9.072  14.012   6.098
30223SOL    HW292502   8.961  13.971   6.193
30224SOL     OW92503   4.683  12.381   8.760
30224SOL    HW192504   4.704  12.293   8.727
30224SOL    HW292505   4.742  12.439   8.712
30225SOL     OW92506  11.517  12.181   9.763
30225SOL    HW192507  11.430  12.217   9.780
30225SOL    HW292508  11.577  12.248   9.796
30226SOL     OW92509  10.443  10.998  10.597
30226SOL    HW192510  10.527  11.006  10.551
30226SOL    HW292511  10.388  11.067  10.558
30227SOL     OW92512  10.799   6.684  13.089
30227SOL    HW192513  10.741   6.695  13.014
30227SOL    HW292514  10.803   6.589  13.102
30228SOL     OW92515   7.126  10.601   3.469
30228SOL    HW192516   7.205  10.554   3.441
30228SOL    HW292517   7.145  10.693   3.451
30229SOL     OW92518   1.510   5.607   1.969
30229SOL    HW192519   1.489   5.697   1.994
30229SOL    HW292520   1.559   5.571   2.043
30230SOL     OW92521  11.856   0.701   8.674
30230SOL    HW192522  11.943   0.686   8.637
30230SOL    HW292523  11.850   0.642   8.749
30231SOL     OW92524   7.494   1.194   1.762
30231SOL    HW192525   7.502   1.272   1.707
30231SOL    HW292526   7.476   1.228   1.849
30232SOL     OW92527  10.930   2.809   1.476
30232SOL    HW192528  10.938   2.901   1.498
30232SOL    HW292529  10.870   2.807   1.402
30233SOL     OW92530  10.498  10.919   0.709
30233SOL    HW192531  10.452  10.988   0.661
30233SOL    HW292532  10.567  10.965   0.756
30234SOL     OW92533   4.856  12.274  13.465
30234SOL    HW192534   4.904  12.220  13.401
30234SOL    HW292535   4.880  12.364  13.442
30235SOL     OW92536   9.686   1.783   0.693
30235SOL    HW192537   9.592   1.779   0.707
30235SOL    HW292538   9.702   1.871   0.660
30236SOL     OW92539   1.668   0.045   1.466
30236SOL    HW192540   1.693  14.847   1.526
30236SOL    HW292541   1.606   0.003   1.406
30237SOL     OW92542   3.894  12.230   4.224
30237SOL    HW192543   3.906  12.317   4.261
30237SOL    HW292544   3.807  12.203   4.253
30238SOL     OW92545  13.825   6.746  10.114
30238SOL    HW192546  13.846   6.806  10.186
30238SOL    HW292547  13.876   6.667  10.134
30239SOL     OW92548   0.378   0.099   0.463
30239SOL    HW192549   0.335   0.117   0.547
30239SOL    HW292550   0.309   0.060   0.409
30240SOL     OW92551   2.561  13.933   9.951
30240SOL    HW192552   2.543  13.939  10.045
30240SOL    HW292553   2.540  13.842   9.929
30241SOL     OW92554   7.237  14.424  12.157
30241SOL    HW192555   7.189  14.354  12.113
30241SOL    HW292556   7.170  14.489  12.179
30242SOL     OW92557  13.854   7.474  12.139
30242SOL    HW192558  13.762   7.492  12.123
30242SOL    HW292559  13.900   7.520  12.068
30243SOL     OW92560   0.270   5.584   3.874
30243SOL    HW192561   0.263   5.495   3.909
30243SOL    HW292562   0.204   5.587   3.804
30244SOL     OW92563   0.318   4.972   5.431
30244SOL    HW192564   0.266   4.994   5.353
30244SOL    HW292565   0.390   4.919   5.397
30245SOL     OW92566   8.158  12.968   4.455
30245SOL    HW192567   8.122  12.901   4.396
30245SOL    HW292568   8.251  12.943   4.464
30246SOL     OW92569   1.006   4.472   2.105
30246SOL    HW192570   1.072   4.522   2.154
30246SOL    HW292571   1.049   4.387   2.089
30247SOL     OW92572  10.593  12.846   6.251
30247SOL    HW192573  10.613  12.939   6.244
30247SOL    HW292574  10.576  12.832   6.344
30248SOL     OW92575   4.527  12.602   7.235
30248SOL    HW192576   4.568  12.661   7.171
30248SOL    HW292577   4.434  12.602   7.210
30249SOL     OW92578  14.034  13.799  11.343
30249SOL    HW192579  14.129  13.803  11.350
30249SOL    HW292580  14.008  13.746  11.419
30250SOL     OW92581  10.808   5.296  11.644
30250SOL    HW192582  10.797   5.390  11.632
30250SOL    HW292583  10.757   5.256  11.573
30251SOL     OW92584  11.676  14.824  10.523
30251SOL    HW192585  11.739  14.804  10.592
30251SOL    HW292586  11.619  14.747  10.520
30252SOL     OW92587   0.148   0.588   1.719
30252SOL    HW192588   0.189   0.621   1.639
30252SOL    HW292589   0.137   0.665   1.774
30253SOL     OW92590  13.471   8.698   8.256
30253SOL    HW192591  13.449   8.714   8.164
30253SOL    HW292592  13.415   8.625   8.282
30254SOL     OW92593   6.323  12.936   9.133
30254SOL    HW192594   6.373  12.887   9.068
30254SOL    HW292595   6.252  12.876   9.159
30255SOL     OW92596  14.668   8.079   6.342
30255SOL    HW192597  14.618   8.023   6.402
30255SOL    HW292598  14.618   8.160   6.339
30256SOL     OW92599   4.992  10.018   1.939
30256SOL    HW192600   5.028  10.003   2.026
30256SOL    HW292601   4.917  10.075   1.953
30257SOL     OW92602   2.350   6.949   8.899
30257SOL    HW192603   2.384   6.978   8.984
30257SOL    HW292604   2.261   6.920   8.918
30258SOL     OW92605   6.165  14.230   3.584
30258SOL    HW192606   6.223  14.303   3.562
30258SOL    HW292607   6.222  14.153   3.578
30259SOL     OW92608   6.256   8.058   5.443
30259SOL    HW192609   6.174   8.034   5.399
30259SOL    HW292610   6.288   7.977   5.481
30260SOL     OW92611  10.398   3.203   8.507
30260SOL    HW192612  10.330   3.243   8.452
30260SOL    HW292613  10.460   3.274   8.524
30261SOL     OW92614  10.359  11.630  12.453
30261SOL    HW192615  10.378  11.708  12.402
30261SOL    HW292616  10.366  11.558  12.390
30262SOL     OW92617   0.727   1.333   7.259
30262SOL    HW192618   0.638   1.325   7.294
30262SOL    HW292619   0.777   1.264   7.303
30263SOL     OW92620   4.507  10.823  10.452
30263SOL    HW192621   4.555  10.743  10.431
30263SOL    HW292622   4.570  10.894  10.437
30264SOL     OW92623   9.288  13.561   7.656
30264SOL    HW192624   9.331  13.601   7.732
30264SOL    HW292625   9.205  13.528   7.690
30265SOL     OW92626   7.878   1.354  11.829
30265SOL    HW192627   7.850   1.439  11.796
30265SOL    HW292628   7.830   1.343  11.911
30266SOL     OW92629   4.025   9.770  13.210
30266SOL    HW192630   4.011   9.865  13.203
30266SOL    HW292631   4.090   9.760  13.279
30267SOL     OW92632   7.940   4.918  14.173
30267SOL    HW192633   8.025   4.917  14.217
30267SOL    HW292634   7.961   4.919  14.079
30268SOL     OW92635   3.171   6.820   4.238
30268SOL    HW192636   3.112   6.795   4.309
30268SOL    HW292637   3.126   6.891   4.193
30269SOL     OW92638   5.505  14.122   0.556
30269SOL    HW192639   5.494  14.194   0.494
30269SOL    HW292640   5.595  14.129   0.586
30270SOL     OW92641  11.852  12.760   1.588
30270SOL    HW192642  11.908  12.822   1.542
30270SOL    HW292643  11.870  12.676   1.545
30271SOL     OW92644  14.298   9.465  13.866
30271SOL    HW192645  14.361   9.526  13.828
30271SOL    HW292646  14.323   9.460  13.959
30272SOL     OW92647   3.962   2.872   8.132
30272SOL    HW192648   3.997   2.817   8.062
30272SOL    HW292649   3.880   2.906   8.097
30273SOL     OW92650   5.501   0.704   7.714
30273SOL    HW192651   5.557   0.632   7.745
30273SOL    HW292652   5.481   0.681   7.623
30274SOL     OW92653   2.432   8.324  12.309
30274SOL    HW192654   2.427   8.419  12.296
30274SOL    HW292655   2.493   8.293  12.242
30275SOL     OW92656   7.909  14.575   0.866
30275SOL    HW192657   7.967  14.553   0.939
30275SOL    HW292658   7.833  14.614   0.908
30276SOL     OW92659   0.959   5.962  14.571
30276SOL    HW192660   0.989   5.943  14.660
30276SOL    HW292661   0.975   5.882  14.522
30277SOL     OW92662   1.783  10.241  10.273
30277SOL    HW192663   1.757  10.203  10.358
30277SOL    HW292664   1.843  10.312  10.296
30278SOL     OW92665   0.776  14.694   5.635
30278SOL    HW192666   0.713  14.667   5.568
30278SOL    HW292667   0.840  14.623   5.638
30279SOL     OW92668   7.871   1.226   6.629
30279SOL    HW192669   7.857   1.187   6.715
30279SOL    HW292670   7.956   1.192   6.600
30280SOL     OW92671   8.927  12.080  10.523
30280SOL    HW192672   8.910  11.990  10.494
30280SOL    HW292673   8.874  12.090  10.602
30281SOL     OW92674  10.652  14.580   1.804
30281SOL    HW192675  10.623  14.561   1.893
30281SOL    HW292676  10.634  14.673   1.791
30282SOL     OW92677  10.070   4.039  11.198
30282SOL    HW192678  10.043   3.948  11.213
30282SOL    HW292679  10.066   4.080  11.284
30283SOL     OW92680   8.564   5.323   1.226
30283SOL    HW192681   8.596   5.383   1.159
30283SOL    HW292682   8.621   5.246   1.219
30284SOL     OW92683  12.732   1.673  14.322
30284SOL    HW192684  12.721   1.716  14.237
30284SOL    HW292685  12.735   1.746  14.385
30285SOL     OW92686  13.857   7.422  10.019
30285SOL    HW192687  13.882   7.393   9.931
30285SOL    HW292688  13.765   7.448  10.011
30286SOL     OW92689  13.851   1.760   4.624
30286SOL    HW192690  13.853   1.855   4.637
30286SOL    HW292691  13.942   1.735   4.612
30287SOL     OW92692  14.550   0.062  14.101
30287SOL    HW192693  14.544   0.157  14.089
30287SOL    HW292694  14.631   0.037  14.056
30288SOL     OW92695   4.140   7.214   8.699
30288SOL    HW192696   4.203   7.268   8.747
30288SOL    HW292697   4.171   7.124   8.711
30289SOL     OW92698   9.191   7.375   7.065
30289SOL    HW192699   9.113   7.428   7.080
30289SOL    HW292700   9.264   7.432   7.088
30290SOL     OW92701   3.161   0.956   9.481
30290SOL    HW192702   3.248   0.972   9.445
30290SOL    HW292703   3.122   0.892   9.421
30291SOL     OW92704  13.393   2.090   2.256
30291SOL    HW192705  13.487   2.070   2.256
30291SOL    HW292706  13.363   2.063   2.170
30292SOL     OW92707  12.970   7.521  14.774
30292SOL    HW192708  13.029   7.503  14.700
30292SOL    HW292709  12.931   7.436  14.795
30293SOL     OW92710  10.447  12.754  13.086
30293SOL    HW192711  10.354  12.761  13.109
30293SOL    HW292712  10.472  12.667  13.116
30294SOL     OW92713   1.750   1.135   7.046
30294SOL    HW192714   1.842   1.150   7.066
30294SOL    HW292715   1.734   1.187   6.967
30295SOL     OW92716   8.977   7.960   9.445
30295SOL    HW192717   9.017   7.960   9.359
30295SOL    HW292718   9.047   7.936   9.505
30296SOL     OW92719  10.010   1.990   8.559
30296SOL    HW192720  10.035   1.989   8.652
30296SOL    HW292721   9.938   2.053   8.554
30297SOL     OW92722  13.670   7.483   7.802
30297SOL    HW192723  13.748   7.515   7.848
30297SOL    HW292724  13.601   7.546   7.826
30298SOL     OW92725  10.156  14.390   3.847
30298SOL    HW192726  10.134  14.327   3.916
30298SOL    HW292727  10.247  14.415   3.866
30299SOL     OW92728   5.081   2.271   6.893
30299SOL    HW192729   4.996   2.316   6.888
30299SOL    HW292730   5.128   2.301   6.815
30300SOL     OW92731   4.429  13.202  12.226
30300SOL    HW192732   4.397  13.278  12.275
30300SOL    HW292733   4.358  13.181  12.166
30301SOL     OW92734   0.137   3.682  11.480
30301SOL    HW192735   0.193   3.754  11.508
30301SOL    HW292736   0.094   3.714  11.401
30302SOL     OW92737  13.460   3.333   2.388
30302SOL    HW192738  13.478   3.424   2.409
30302SOL    HW292739  13.504   3.318   2.305
30303SOL     OW92740  13.081   1.142   0.511
30303SOL    HW192741  13.127   1.221   0.541
30303SOL    HW292742  13.119   1.125   0.425
30304SOL     OW92743  12.655  12.437   9.818
30304SOL    HW192744  12.599  12.391   9.881
30304SOL    HW292745  12.616  12.417   9.733
30305SOL     OW92746  11.566  11.625   9.698
30305SOL    HW192747  11.580  11.536   9.667
30305SOL    HW292748  11.474  11.629   9.722
30306SOL     OW92749   7.709   3.269   3.002
30306SOL    HW192750   7.623   3.308   3.020
30306SOL    HW292751   7.769   3.316   3.061
30307SOL     OW92752   4.323  11.407   9.906
30307SOL    HW192753   4.330  11.421  10.001
30307SOL    HW292754   4.348  11.316   9.894
30308SOL     OW92755  14.413  13.789  12.290
30308SOL    HW192756  14.498  13.789  12.333
30308SOL    HW292757  14.378  13.877  12.306
30309SOL     OW92758  14.335   3.207   0.653
30309SOL    HW192759  14.292   3.161   0.581
30309SOL    HW292760  14.425   3.220   0.623
30310SOL     OW92761   2.307   6.199   8.250
30310SOL    HW192762   2.398   6.228   8.258
30310SOL    HW292763   2.313   6.104   8.240
30311SOL     OW92764   5.129   9.776   5.934
30311SOL    HW192765   5.113   9.858   5.888
30311SOL    HW292766   5.187   9.799   6.006
30312SOL     OW92767   2.149  10.308  11.068
30312SOL    HW192768   2.212  10.308  10.996
30312SOL    HW292769   2.084  10.242  11.042
30313SOL     OW92770   7.233   3.851   5.820
30313SOL    HW192771   7.306   3.909   5.841
30313SOL    HW292772   7.160   3.886   5.872
30314SOL     OW92773   8.606   7.150  11.902
30314SOL    HW192774   8.687   7.134  11.950
30314SOL    HW292775   8.599   7.075  11.842
30315SOL     OW92776   2.007   2.906   5.854
30315SOL    HW192777   1.951   2.951   5.791
30315SOL    HW292778   1.971   2.928   5.939
30316SOL     OW92779   9.563  12.027  10.157
30316SOL    HW192780   9.524  12.112  10.136
30316SOL    HW292781   9.586  11.989  10.072
30317SOL     OW92782  10.578   1.629   6.957
30317SOL    HW192783  10.483   1.618   6.968
30317SOL    HW292784  10.588   1.652   6.864
30318SOL     OW92785   0.915  13.917   2.524
30318SOL    HW192786   0.966  13.837   2.510
30318SOL    HW292787   0.980  13.988   2.517
30319SOL     OW92788  10.393   9.129  12.490
30319SOL    HW192789  10.473   9.125  12.542
30319SOL    HW292790  10.326   9.159  12.552
30320SOL     OW92791  11.007   0.620   9.459
30320SOL    HW192792  10.953   0.602   9.382
30320SOL    HW292793  11.001   0.715   9.470
30321SOL     OW92794   1.137   5.816   9.695
30321SOL    HW192795   1.127   5.911   9.707
30321SOL    HW292796   1.179   5.786   9.776
30322SOL     OW92797  12.071  14.720   8.846
30322SOL    HW192798  12.049  14.717   8.753
30322SOL    HW292799  12.115  14.637   8.863
30323SOL     OW92800   4.459   0.975  10.574
30323SOL    HW192801   4.378   0.994  10.527
30323SOL    HW292802   4.487   1.059  10.609
30324SOL     OW92803   5.729  10.557   7.432
30324SOL    HW192804   5.716  10.470   7.471
30324SOL    HW292805   5.730  10.616   7.507
30325SOL     OW92806   8.146   1.402   3.698
30325SOL    HW192807   8.181   1.487   3.726
30325SOL    HW292808   8.193   1.382   3.617
30326SOL     OW92809   0.842   5.094   4.735
30326SOL    HW192810   0.858   5.161   4.801
30326SOL    HW292811   0.864   5.012   4.778
30327SOL     OW92812  13.667  14.585   1.352
30327SOL    HW192813  13.735  14.539   1.402
30327SOL    HW292814  13.593  14.525   1.352
30328SOL     OW92815   7.012   6.325   5.121
30328SOL    HW192816   7.028   6.242   5.167
30328SOL    HW292817   7.073   6.324   5.047
30329SOL     OW92818   0.076   7.696   5.150
30329SOL    HW192819   0.074   7.776   5.097
30329SOL    HW292820   0.150   7.708   5.209
30330SOL     OW92821   7.966   1.424   9.055
30330SOL    HW192822   7.933   1.455   9.139
30330SOL    HW292823   7.927   1.337   9.045
30331SOL     OW92824  12.105   8.092   6.497
30331SOL    HW192825  12.119   8.056   6.410
30331SOL    HW292826  12.093   8.186   6.483
30332SOL     OW92827   0.023   9.602   0.439
30332SOL    HW192828   0.040   9.533   0.375
30332SOL    HW292829  14.801   9.619   0.431
30333SOL     OW92830   8.618   1.050  12.451
30333SOL    HW192831   8.598   1.042  12.358
30333SOL    HW292832   8.690   0.989  12.465
30334SOL     OW92833   2.783   2.567   9.803
30334SOL    HW192834   2.846   2.589   9.871
30334SOL    HW292835   2.745   2.651   9.777
30335SOL     OW92836  12.445   6.283   8.702
30335SOL    HW192837  12.411   6.214   8.645
30335SOL    HW292838  12.367   6.318   8.747
30336SOL     OW92839   7.667   8.064   0.559
30336SOL    HW192840   7.680   8.146   0.512
30336SOL    HW292841   7.597   8.019   0.512
30337SOL     OW92842  14.742   8.432  12.609
30337SOL    HW192843  14.653   8.418  12.578
30337SOL    HW292844  14.766   8.349  12.651
30338SOL     OW92845   1.005  11.083  11.818
30338SOL    HW192846   1.026  11.146  11.887
30338SOL    HW292847   0.909  11.078  11.818
30339SOL     OW92848  11.875   0.573   8.915
30339SOL    HW192849  11.793   0.547   8.958
30339SOL    HW292850  11.935   0.591   8.987
30340SOL     OW92851  11.913   5.213   9.157
30340SOL    HW192852  11.949   5.286   9.106
30340SOL    HW292853  11.919   5.138   9.098
30341SOL     OW92854   2.449   9.239   2.491
30341SOL    HW192855   2.474   9.188   2.413
30341SOL    HW292856   2.484   9.326   2.475
30342SOL     OW92857  13.300   2.343   9.798
30342SOL    HW192858  13.331   2.259   9.763
30342SOL    HW292859  13.360   2.407   9.760
30343SOL     OW92860   6.720   1.895   2.673
30343SOL    HW192861   6.661   1.971   2.674
30343SOL    HW292862   6.713   1.861   2.584
30344SOL     OW92863  10.553  11.108   3.661
30344SOL    HW192864  10.469  11.132   3.699
30344SOL    HW292865  10.593  11.049   3.725
30345SOL     OW92866   7.487   5.934  10.329
30345SOL    HW192867   7.421   5.913  10.263
30345SOL    HW292868   7.462   6.019  10.363
30346SOL     OW92869   4.680   6.890  11.612
30346SOL    HW192870   4.610   6.856  11.669
30346SOL    HW292871   4.648   6.874  11.523
30347SOL     OW92872  13.910  13.220   9.061
30347SOL    HW192873  13.821  13.255   9.065
30347SOL    HW292874  13.919  13.189   8.971
30348SOL     OW92875   0.142   3.408  14.437
30348SOL    HW192876   0.131   3.421  14.531
30348SOL    HW292877   0.056   3.427  14.400
30349SOL     OW92878  11.845   8.371   9.854
30349SOL    HW192879  11.933   8.335   9.839
30349SOL    HW292880  11.811   8.322   9.929
30350SOL     OW92881   2.817   5.194   8.758
30350SOL    HW192882   2.862   5.263   8.806
30350SOL    HW292883   2.821   5.118   8.816
30351SOL     OW92884   0.470   0.722   6.388
30351SOL    HW192885   0.477   0.797   6.447
30351SOL    HW292886   0.379   0.723   6.358
30352SOL     OW92887   9.038   6.849   4.307
30352SOL    HW192888   9.045   6.861   4.212
30352SOL    HW292889   8.955   6.802   4.319
30353SOL     OW92890   9.009   9.899   6.460
30353SOL    HW192891   8.943   9.966   6.442
30353SOL    HW292892   9.032   9.912   6.552
30354SOL     OW92893   2.882   3.062   5.284
30354SOL    HW192894   2.821   2.988   5.277
30354SOL    HW292895   2.904   3.084   5.194
30355SOL     OW92896   4.404  10.856   8.672
30355SOL    HW192897   4.486  10.883   8.630
30355SOL    HW292898   4.378  10.777   8.625
30356SOL     OW92899   4.537  12.305   9.010
30356SOL    HW192900   4.590  12.342   8.940
30356SOL    HW292901   4.503  12.223   8.975
30357SOL     OW92902   2.266   6.305   4.669
30357SOL    HW192903   2.203   6.249   4.713
30357SOL    HW292904   2.343   6.304   4.725
30358SOL     OW92905  10.637   1.203   9.338
30358SOL    HW192906  10.550   1.233   9.314
30358SOL    HW292907  10.695   1.277   9.318
30359SOL     OW92908  12.105  13.278   8.261
30359SOL    HW192909  12.137  13.189   8.246
30359SOL    HW292910  12.047  13.295   8.187
30360SOL     OW92911   7.868  13.324   8.139
30360SOL    HW192912   7.908  13.379   8.071
30360SOL    HW292913   7.805  13.270   8.092
30361SOL     OW92914   0.454  11.360   4.339
30361SOL    HW192915   0.474  11.335   4.249
30361SOL    HW292916   0.534  11.402   4.371
30362SOL     OW92917   8.108   2.000  10.871
30362SOL    HW192918   8.135   2.007  10.779
30362SOL    HW292919   8.130   2.085  10.909
30363SOL     OW92920   0.208   1.625   6.409
30363SOL    HW192921   0.290   1.587   6.441
30363SOL    HW292922   0.231   1.661   6.323
30364SOL     OW92923  12.774  10.589   4.076
30364SOL    HW192924  12.689  10.553   4.101
30364SOL    HW292925  12.779  10.673   4.122
30365SOL     OW92926   4.746   9.377  14.152
30365SOL    HW192927   4.743   9.434  14.075
30365SOL    HW292928   4.656   9.372  14.183
30366SOL     OW92929   0.896  10.085  12.002
30366SOL    HW192930   0.934  10.082  11.914
30366SOL    HW292931   0.959  10.135  12.054
30367SOL     OW92932   6.706   4.425   6.279
30367SOL    HW192933   6.783   4.405   6.331
30367SOL    HW292934   6.662   4.341   6.267
30368SOL     OW92935   2.319  12.189   0.645
30368SOL    HW192936   2.309  12.265   0.703
30368SOL    HW292937   2.398  12.208   0.594
30369SOL     OW92938   9.075  10.209  14.628
30369SOL    HW192939   9.158  10.255  14.618
30369SOL    HW292940   9.056  10.174  14.541
30370SOL     OW92941   9.143   3.450   2.713
30370SOL    HW192942   9.178   3.505   2.643
30370SOL    HW292943   9.066   3.498   2.745
30371SOL     OW92944  14.809   5.374   2.125
30371SOL    HW192945  14.867   5.445   2.151
30371SOL    HW292946  14.805   5.317   2.202
30372SOL     OW92947  11.782   9.034  13.991
30372SOL    HW192948  11.818   8.959  13.944
30372SOL    HW292949  11.745   8.996  14.071
30373SOL     OW92950   5.505  14.636   1.130
30373SOL    HW192951   5.432  14.575   1.122
30373SOL    HW292952   5.584  14.582   1.122
30374SOL     OW92953   9.799  10.582   1.817
30374SOL    HW192954   9.845  10.658   1.780
30374SOL    HW292955   9.867  10.517   1.832
30375SOL     OW92956  11.120   1.171   7.359
30375SOL    HW192957  11.172   1.094   7.381
30375SOL    HW292958  11.164   1.208   7.283
30376SOL     OW92959  10.112   4.708   0.614
30376SOL    HW192960  10.139   4.796   0.588
30376SOL    HW292961  10.018   4.705   0.595
30377SOL     OW92962   0.544   1.388   3.598
30377SOL    HW192963   0.476   1.373   3.532
30377SOL    HW292964   0.530   1.318   3.663
30378SOL     OW92965   3.255   7.653   4.787
30378SOL    HW192966   3.225   7.567   4.756
30378SOL    HW292967   3.297   7.693   4.711
30379SOL     OW92968  11.622   4.632   9.960
30379SOL    HW192969  11.637   4.724   9.936
30379SOL    HW292970  11.698   4.608  10.013
30380SOL     OW92971   7.757  12.342  12.011
30380SOL    HW192972   7.773  12.435  12.028
30380SOL    HW292973   7.768  12.333  11.916
30381SOL     OW92974  12.311   8.737  10.805
30381SOL    HW192975  12.351   8.773  10.726
30381SOL    HW292976  12.282   8.650  10.779
30382SOL     OW92977   7.396  14.019  13.662
30382SOL    HW192978   7.346  13.999  13.583
30382SOL    HW292979   7.487  14.015  13.634
30383SOL     OW92980  10.742  14.329  11.506
30383SOL    HW192981  10.652  14.311  11.533
30383SOL    HW292982  10.791  14.335  11.588
30384SOL     OW92983   6.026   6.350   9.980
30384SOL    HW192984   6.018   6.371  10.073
30384SOL    HW292985   6.032   6.255   9.977
30385SOL     OW92986   5.434   8.058   6.071
30385SOL    HW192987   5.527   8.055   6.091
30385SOL    HW292988   5.391   8.032   6.153
30386SOL     OW92989   3.857   0.717   4.159
30386SOL    HW192990   3.807   0.645   4.196
30386SOL    HW292991   3.795   0.762   4.101
30387SOL     OW92992  13.675   2.334   6.328
30387SOL    HW192993  13.614   2.269   6.293
30387SOL    HW292994  13.619   2.401   6.367
30388SOL     OW92995   4.350   3.737   3.328
30388SOL    HW192996   4.386   3.799   3.265
30388SOL    HW292997   4.258   3.763   3.338
30389SOL     OW92998   3.890   8.282   3.879
30389SOL    HW192999   3.873   8.270   3.973
30389SOL    HW293000   3.807   8.262   3.837
30390SOL     OW93001   9.886   5.506   4.515
30390SOL    HW193002   9.856   5.596   4.533
30390SOL    HW293003   9.842   5.453   4.581
30391SOL     OW93004   4.879   7.333   0.357
30391SOL    HW193005   4.873   7.353   0.264
30391SOL    HW293006   4.876   7.419   0.400
30392SOL     OW93007  14.182   7.443   5.534
30392SOL    HW193008  14.174   7.459   5.440
30392SOL    HW293009  14.271   7.471   5.556
30393SOL     OW93010   6.805  12.878  10.985
30393SOL    HW193011   6.831  12.949  11.043
30393SOL    HW293012   6.831  12.907  10.898
30394SOL     OW93013  11.278   8.672  14.497
30394SOL    HW193014  11.277   8.588  14.452
30394SOL    HW293015  11.287   8.737  14.427
30395SOL     OW93016   7.367   0.118   0.759
30395SOL    HW193017   7.384   0.029   0.728
30395SOL    HW293018   7.284   0.111   0.807
30396SOL     OW93019   7.004   2.787  10.496
30396SOL    HW193020   6.998   2.806  10.403
30396SOL    HW293021   7.088   2.743  10.507
30397SOL     OW93022  11.269  10.802  14.866
30397SOL    HW193023  11.252  10.835   0.083
30397SOL    HW293024  11.272  10.881  14.812
30398SOL     OW93025   3.840   9.110   6.397
30398SOL    HW193026   3.934   9.127   6.401
30398SOL    HW293027   3.800   9.177   6.452
30399SOL     OW93028  14.399   9.907   4.604
30399SOL    HW193029  14.489   9.936   4.620
30399SOL    HW293030  14.360   9.900   4.691
30400SOL     OW93031  11.287   6.082  14.089
30400SOL    HW193032  11.262   6.043  14.173
30400SOL    HW293033  11.227   6.156  14.078
30401SOL     OW93034   5.937   3.210   2.888
30401SOL    HW193035   5.913   3.118   2.903
30401SOL    HW293036   6.025   3.205   2.851
30402SOL     OW93037  14.787  10.824  14.081
30402SOL    HW193038  14.737  10.815  14.000
30402SOL    HW293039   0.003  10.796  14.058
30403SOL     OW93040   3.415   7.629   1.685
30403SOL    HW193041   3.359   7.624   1.608
30403SOL    HW293042   3.386   7.556   1.740
30404SOL     OW93043  13.256  10.566  14.706
30404SOL    HW193044  13.172  10.566  14.659
30404SOL    HW293045  13.317  10.526  14.645
30405SOL     OW93046  13.005   3.309   9.703
30405SOL    HW193047  13.094   3.338   9.684
30405SOL    HW293048  12.951   3.388   9.691
30406SOL     OW93049  12.678  13.674   5.838
30406SOL    HW193050  12.702  13.665   5.746
30406SOL    HW293051  12.683  13.585   5.873
30407SOL     OW93052   0.226   2.534  14.298
30407SOL    HW193053   0.206   2.526  14.392
30407SOL    HW293054   0.198   2.450  14.261
30408SOL     OW93055   9.420   2.479   3.957
30408SOL    HW193056   9.460   2.451   4.039
30408SOL    HW293057   9.440   2.573   3.950
30409SOL     OW93058   4.410   2.791   0.177
30409SOL    HW193059   4.409   2.870   0.232
30409SOL    HW293060   4.327   2.796   0.128
30410SOL     OW93061   7.482   2.377  14.174
30410SOL    HW193062   7.478   2.287  14.204
30410SOL    HW293063   7.568   2.409  14.203
30411SOL     OW93064   9.233   7.378   4.394
30411SOL    HW193065   9.140   7.394   4.408
30411SOL    HW293066   9.246   7.391   4.300
30412SOL     OW93067   7.490   3.460   3.017
30412SOL    HW193068   7.501   3.537   2.962
30412SOL    HW293069   7.489   3.495   3.107
30413SOL     OW93070   3.751  12.018   7.566
30413SOL    HW193071   3.660  11.998   7.587
30413SOL    HW293072   3.800  11.943   7.600
30414SOL     OW93073   8.033  12.418   7.511
30414SOL    HW193074   8.068  12.459   7.590
30414SOL    HW293075   8.100  12.354   7.486
30415SOL     OW93076  11.698   5.582   4.700
30415SOL    HW193077  11.654   5.647   4.646
30415SOL    HW293078  11.668   5.498   4.665
30416SOL     OW93079   0.551  14.648   7.584
30416SOL    HW193080   0.483  14.584   7.565
30416SOL    HW293081   0.546  14.661   7.679
30417SOL     OW93082   2.812  10.550  13.206
30417SOL    HW193083   2.729  10.503  13.201
30417SOL    HW293084   2.816  10.601  13.125
30418SOL     OW93085   2.001   8.006   5.994
30418SOL    HW193086   2.058   7.933   6.017
30418SOL    HW293087   2.025   8.030   5.905
30419SOL     OW93088   7.683   1.898  14.115
30419SOL    HW193089   7.666   1.834  14.045
30419SOL    HW293090   7.596   1.926  14.143
30420SOL     OW93091   6.988   8.033   2.130
30420SOL    HW193092   7.001   8.106   2.069
30420SOL    HW293093   6.949   8.074   2.207
30421SOL     OW93094   5.748  13.513  13.369
30421SOL    HW193095   5.782  13.548  13.286
30421SOL    HW293096   5.663  13.476  13.346
30422SOL     OW93097   8.889   6.814  14.525
30422SOL    HW193098   8.934   6.739  14.486
30422SOL    HW293099   8.857   6.782  14.609
30423SOL     OW93100  10.960   4.058   6.088
30423SOL    HW193101  11.046   4.089   6.058
30423SOL    HW293102  10.904   4.065   6.011
30424SOL     OW93103   7.680  10.079  10.418
30424SOL    HW193104   7.762  10.098  10.371
30424SOL    HW293105   7.616  10.139  10.380
30425SOL     OW93106   6.942  11.381   1.174
30425SOL    HW193107   6.894  11.385   1.091
30425SOL    HW293108   6.928  11.466   1.215
30426SOL     OW93109   6.870   6.277   6.404
30426SOL    HW193110   6.960   6.252   6.420
30426SOL    HW293111   6.876   6.352   6.344
30427SOL     OW93112  13.938   5.058   9.863
30427SOL    HW193113  13.898   5.015   9.939
30427SOL    HW293114  13.994   4.990   9.825
30428SOL     OW93115   6.658   2.922   9.878
30428SOL    HW193116   6.652   2.892   9.969
30428SOL    HW293117   6.694   3.010   9.884
30429SOL     OW93118   2.898   5.039  10.792
30429SOL    HW193119   2.841   5.113  10.814
30429SOL    HW293120   2.848   4.962  10.820
30430SOL     OW93121  12.899  11.339   5.197
30430SOL    HW193122  12.847  11.316   5.274
30430SOL    HW293123  12.905  11.257   5.148
30431SOL     OW93124   2.762   6.432  11.964
30431SOL    HW193125   2.855   6.419  11.948
30431SOL    HW293126   2.726   6.344  11.976
30432SOL     OW93127   6.137   1.740  12.358
30432SOL    HW193128   6.044   1.717  12.355
30432SOL    HW293129   6.182   1.658  12.340
30433SOL     OW93130  11.926   4.898  13.585
30433SOL    HW193131  11.874   4.944  13.650
30433SOL    HW293132  11.900   4.806  13.593
30434SOL     OW93133   0.860   7.630  11.799
30434SOL    HW193134   0.881   7.700  11.861
30434SOL    HW293135   0.866   7.550  11.850
30435SOL     OW93136  11.137   0.773   0.225
30435SOL    HW193137  11.062   0.747   0.278
30435SOL    HW293138  11.181   0.839   0.278
30436SOL     OW93139   2.026   3.954  14.303
30436SOL    HW193140   1.979   3.934  14.222
30436SOL    HW293141   1.992   4.040  14.329
30437SOL     OW93142   3.016   8.968   5.894
30437SOL    HW193143   3.035   8.875   5.902
30437SOL    HW293144   3.085   9.002   5.837
30438SOL     OW93145  11.542  14.196  11.462
30438SOL    HW193146  11.614  14.249  11.428
30438SOL    HW293147  11.540  14.119  11.404
30439SOL     OW93148   9.126  10.747   3.567
30439SOL    HW193149   9.205  10.697   3.548
30439SOL    HW293150   9.079  10.750   3.484
30440SOL     OW93151   7.610   8.906  11.444
30440SOL    HW193152   7.523   8.918  11.406
30440SOL    HW293153   7.659   8.985  11.418
30441SOL     OW93154   0.169  13.666  10.427
30441SOL    HW193155   0.226  13.656  10.351
30441SOL    HW293156   0.137  13.578  10.446
30442SOL     OW93157  12.273  13.224  11.554
30442SOL    HW193158  12.349  13.277  11.576
30442SOL    HW293159  12.207  13.249  11.618
30443SOL     OW93160   5.657   2.151  14.185
30443SOL    HW193161   5.694   2.172  14.271
30443SOL    HW293162   5.701   2.209  14.124
30444SOL     OW93163   0.920   3.615  10.741
30444SOL    HW193164   0.920   3.625  10.836
30444SOL    HW293165   0.835   3.575  10.721
30445SOL     OW93166  11.015   8.485   8.118
30445SOL    HW193167  10.973   8.539   8.186
30445SOL    HW293168  11.085   8.439   8.164
30446SOL     OW93169  13.619   8.440   5.753
30446SOL    HW193170  13.603   8.385   5.677
30446SOL    HW293171  13.710   8.469   5.743
30447SOL     OW93172  11.915   4.234  11.739
30447SOL    HW193173  11.979   4.302  11.719
30447SOL    HW293174  11.834   4.282  11.758
30448SOL     OW93175   2.661   2.821  14.110
30448SOL    HW193176   2.738   2.775  14.144
30448SOL    HW293177   2.615   2.756  14.057
30449SOL     OW93178   2.127   7.215  12.251
30449SOL    HW193179   2.153   7.139  12.199
30449SOL    HW293180   2.167   7.290  12.206
30450SOL     OW93181   3.907   5.179   2.363
30450SOL    HW193182   3.918   5.096   2.409
30450SOL    HW293183   3.966   5.239   2.407
30451SOL     OW93184  10.739   3.596  13.488
30451SOL    HW193185  10.644   3.605  13.480
30451SOL    HW293186  10.771   3.605  13.398
30452SOL     OW93187   0.006  10.564   2.406
30452SOL    HW193188   0.048  10.480   2.390
30452SOL    HW293189  14.828  10.582   2.327
30453SOL     OW93190   8.934  12.235   0.620
30453SOL    HW193191   8.934  12.262   0.528
30453SOL    HW293192   8.847  12.257   0.651
30454SOL     OW93193  10.324   9.556  11.005
30454SOL    HW193194  10.340   9.648  10.986
30454SOL    HW293195  10.410   9.522  11.032
30455SOL     OW93196  14.224   1.833  10.253
30455SOL    HW193197  14.287   1.823  10.181
30455SOL    HW293198  14.175   1.751  10.254
30456SOL     OW93199  12.059  12.813  14.591
30456SOL    HW193200  12.018  12.763  14.662
30456SOL    HW293201  12.081  12.897  14.630
30457SOL     OW93202   3.099   8.313  13.205
30457SOL    HW193203   3.015   8.278  13.233
30457SOL    HW293204   3.107   8.287  13.113
30458SOL     OW93205  12.655   1.725   9.126
30458SOL    HW193206  12.662   1.631   9.146
30458SOL    HW293207  12.561   1.742   9.124
30459SOL     OW93208  11.412   9.558  12.346
30459SOL    HW193209  11.394   9.475  12.302
30459SOL    HW293210  11.383   9.544  12.436
30460SOL     OW93211  10.197   9.982   1.942
30460SOL    HW193212  10.185   9.887   1.940
30460SOL    HW293213  10.169  10.011   1.855
30461SOL     OW93214   2.494  13.282   6.290
30461SOL    HW193215   2.539  13.200   6.309
30461SOL    HW293216   2.544  13.349   6.337
30462SOL     OW93217   2.041   2.029  11.694
30462SOL    HW193218   2.047   2.036  11.789
30462SOL    HW293219   2.056   1.936  11.676
30463SOL     OW93220   5.986  13.929   1.154
30463SOL    HW193221   5.936  13.847   1.148
30463SOL    HW293222   5.988  13.950   1.247
30464SOL     OW93223  12.530  14.825   5.526
30464SOL    HW193224  12.506  14.827   5.619
30464SOL    HW293225  12.513   0.042   5.495
30465SOL     OW93226   3.848  11.845   3.621
30465SOL    HW193227   3.922  11.791   3.594
30465SOL    HW293228   3.832  11.903   3.547
30466SOL     OW93229   3.368   4.173   2.496
30466SOL    HW193230   3.330   4.252   2.535
30466SOL    HW293231   3.349   4.181   2.402
30467SOL     OW93232   4.773  10.114   8.233
30467SOL    HW193233   4.809  10.045   8.289
30467SOL    HW293234   4.838  10.125   8.163
30468SOL     OW93235   6.378  10.220   1.956
30468SOL    HW193236   6.426  10.294   1.992
30468SOL    HW293237   6.351  10.250   1.869
30469SOL     OW93238   6.661   4.643   6.135
30469SOL    HW193239   6.638   4.568   6.190
30469SOL    HW293240   6.667   4.716   6.196
30470SOL     OW93241  10.547  10.592  13.419
30470SOL    HW193242  10.478  10.641  13.465
30470SOL    HW293243  10.602  10.557  13.488
30471SOL     OW93244   2.307   8.192   4.299
30471SOL    HW193245   2.291   8.164   4.209
30471SOL    HW293246   2.402   8.191   4.309
30472SOL     OW93247  10.625   0.443   7.388
30472SOL    HW193248  10.561   0.472   7.323
30472SOL    HW293249  10.666   0.524   7.419
30473SOL     OW93250   0.036   8.687   2.637
30473SOL    HW193251   0.021   8.607   2.587
30473SOL    HW293252   0.120   8.720   2.604
30474SOL     OW93253   9.294   4.378   4.692
30474SOL    HW193254   9.291   4.397   4.785
30474SOL    HW293255   9.239   4.446   4.652
30475SOL     OW93256   8.548   0.491   1.629
30475SOL    HW193257   8.506   0.477   1.713
30475SOL    HW293258   8.625   0.546   1.649
30476SOL     OW93259   5.367   0.892  11.207
30476SOL    HW193260   5.444   0.837  11.216
30476SOL    HW293261   5.365   0.945  11.287
30477SOL     OW93262  10.864  14.039   0.321
30477SOL    HW193263  10.858  13.960   0.375
30477SOL    HW293264  10.799  14.099   0.360
30478SOL     OW93265   6.146   2.084   0.165
30478SOL    HW193266   6.179   2.093   0.076
30478SOL    HW293267   6.200   2.143   0.217
30479SOL     OW93268  11.867   1.577   0.696
30479SOL    HW193269  11.830   1.551   0.612
30479SOL    HW293270  11.957   1.604   0.676
30480SOL     OW93271   5.532  11.664  13.651
30480SOL    HW193272   5.444  11.631  13.634
30480SOL    HW293273   5.590  11.592  13.628
30481SOL     OW93274  11.725   1.876   1.169
30481SOL    HW193275  11.794   1.866   1.103
30481SOL    HW293276  11.767   1.924   1.241
30482SOL     OW93277   9.988   3.443  12.281
30482SOL    HW193278   9.951   3.482  12.361
30482SOL    HW293279   9.943   3.359  12.274
30483SOL     OW93280   0.155  14.766   6.032
30483SOL    HW193281   0.128  14.713   6.107
30483SOL    HW293282   0.236  14.725   6.001
30484SOL     OW93283   7.832  11.553   9.135
30484SOL    HW193284   7.776  11.627   9.157
30484SOL    HW293285   7.826  11.495   9.211
30485SOL     OW93286   0.080  10.810   8.527
30485SOL    HW193287   0.166  10.803   8.483
30485SOL    HW293288   0.060  10.904   8.525
30486SOL     OW93289  12.198   2.062  13.161
30486SOL    HW193290  12.140   2.109  13.221
30486SOL    HW293291  12.267   2.126  13.140
30487SOL     OW93292   9.234  12.422   2.645
30487SOL    HW193293   9.276  12.459   2.567
30487SOL    HW293294   9.230  12.495   2.707
30488SOL     OW93295   3.421   9.716  10.127
30488SOL    HW193296   3.376   9.645  10.080
30488SOL    HW293297   3.410   9.792  10.070
30489SOL     OW93298   3.129   6.420   9.878
30489SOL    HW193299   3.165   6.501   9.913
30489SOL    HW293300   3.066   6.448   9.811
30490SOL     OW93301  13.512   9.690  13.673
30490SOL    HW193302  13.430   9.660  13.714
30490SOL    HW293303  13.484   9.749  13.604
30491SOL     OW93304  12.961  14.862  14.079
30491SOL    HW193305  13.018   0.016  14.152
30491SOL    HW293306  12.873  14.864  14.116
30492SOL     OW93307  10.966  13.020   4.161
30492SOL    HW193308  11.027  12.977   4.101
30492SOL    HW293309  11.014  13.023   4.244
30493SOL     OW93310   3.945  10.271  14.559
30493SOL    HW193311   3.969  10.257  14.467
30493SOL    HW293312   3.967  10.189  14.603
30494SOL     OW93313   5.641  11.265  13.339
30494SOL    HW193314   5.658  11.185  13.289
30494SOL    HW293315   5.573  11.310  13.288
30495SOL     OW93316  14.786  14.781   8.155
30495SOL    HW193317  14.691  14.776   8.166
30495SOL    HW293318  14.821  14.735   8.231
30496SOL     OW93319  13.606   8.634  11.551
30496SOL    HW193320  13.624   8.557  11.497
30496SOL    HW293321  13.655   8.620  11.632
30497SOL     OW93322   8.848   3.322  10.313
30497SOL    HW193323   8.797   3.319  10.232
30497SOL    HW293324   8.937   3.301  10.286
30498SOL     OW93325  10.406   5.708   2.103
30498SOL    HW193326  10.494   5.670   2.114
30498SOL    HW293327  10.366   5.656   2.033
30499SOL     OW93328   0.680   8.823   5.294
30499SOL    HW193329   0.627   8.756   5.251
30499SOL    HW293330   0.673   8.803   5.388
30500SOL     OW93331   9.875   8.576  14.781
30500SOL    HW193332   9.946   8.623  14.824
30500SOL    HW293333   9.912   8.547  14.698
30501SOL     OW93334   1.014   1.041   0.407
30501SOL    HW193335   1.047   1.022   0.496
30501SOL    HW293336   1.025   1.135   0.397
30502SOL     OW93337  14.439   8.596   6.329
30502SOL    HW193338  14.533   8.605   6.319
30502SOL    HW293339  14.404   8.683   6.308
30503SOL     OW93340  11.921   7.324   9.612
30503SOL    HW193341  11.922   7.417   9.588
30503SOL    HW293342  12.006   7.310   9.654
30504SOL     OW93343   8.606   9.264   5.926
30504SOL    HW193344   8.654   9.346   5.915
30504SOL    HW293345   8.521   9.280   5.885
30505SOL     OW93346   5.530   3.433  10.474
30505SOL    HW193347   5.622   3.409  10.480
30505SOL    HW293348   5.483   3.351  10.489
30506SOL     OW93349   2.518   7.501   8.202
30506SOL    HW193350   2.536   7.498   8.296
30506SOL    HW293351   2.425   7.478   8.195
30507SOL     OW93352   5.353   9.317   0.007
30507SOL    HW193353   5.423   9.374  14.847
30507SOL    HW293354   5.373   9.306   0.100
30508SOL     OW93355   7.908   1.375   1.181
30508SOL    HW193356   7.874   1.365   1.092
30508SOL    HW293357   7.953   1.292   1.200
30509SOL     OW93358   8.903   5.004  12.563
30509SOL    HW193359   8.952   4.984  12.642
30509SOL    HW293360   8.840   5.070  12.590
30510SOL     OW93361   2.502  11.166   9.924
30510SOL    HW193362   2.441  11.234   9.894
30510SOL    HW293363   2.472  11.086   9.880
30511SOL     OW93364  12.545   4.660   8.743
30511SOL    HW193365  12.545   4.656   8.838
30511SOL    HW293366  12.606   4.731   8.722
30512SOL     OW93367   7.788   9.095  14.430
30512SOL    HW193368   7.808   9.006  14.458
30512SOL    HW293369   7.734   9.131  14.501
30513SOL     OW93370  12.903  14.815   3.636
30513SOL    HW193371  12.895  14.723   3.659
30513SOL    HW293372  12.977  14.818   3.576
30514SOL     OW93373   9.281   2.259  11.372
30514SOL    HW193374   9.222   2.313  11.425
30514SOL    HW293375   9.296   2.180  11.424
30515SOL     OW93376   2.120   8.885   0.274
30515SOL    HW193377   2.112   8.857   0.183
30515SOL    HW293378   2.212   8.910   0.284
30516SOL     OW93379   0.378  10.797   8.652
30516SOL    HW193380   0.375  10.789   8.557
30516SOL    HW293381   0.450  10.738   8.679
30517SOL     OW93382  14.715  14.623   8.672
30517SOL    HW193383  14.763  14.542   8.654
30517SOL    HW293384  14.765  14.666   8.741
30518SOL     OW93385   7.199  13.252   4.019
30518SOL    HW193386   7.200  13.204   4.103
30518SOL    HW293387   7.281  13.301   4.019
30519SOL     OW93388  13.780   7.693   3.252
30519SOL    HW193389  13.733   7.687   3.335
30519SOL    HW293390  13.754   7.777   3.215
30520SOL     OW93391   8.479   9.943   3.605
30520SOL    HW193392   8.441   9.939   3.517
30520SOL    HW293393   8.574   9.947   3.590
30521SOL     OW93394   8.483   3.537  13.841
30521SOL    HW193395   8.515   3.464  13.894
30521SOL    HW293396   8.393   3.514  13.820
30522SOL     OW93397   4.502   9.086   7.102
30522SOL    HW193398   4.454   9.008   7.130
30522SOL    HW293399   4.441   9.133   7.047
30523SOL     OW93400   1.061   7.158  13.595
30523SOL    HW193401   1.101   7.075  13.570
30523SOL    HW293402   1.134   7.209  13.631
30524SOL     OW93403   0.503   4.066   5.285
30524SOL    HW193404   0.588   4.021   5.281
30524SOL    HW293405   0.439   3.998   5.262
30525SOL     OW93406   9.546   1.001   7.886
30525SOL    HW193407   9.579   0.967   7.803
30525SOL    HW293408   9.452   1.007   7.874
30526SOL     OW93409  10.788   4.961  12.053
30526SOL    HW193410  10.803   5.013  11.974
30526SOL    HW293411  10.704   4.917  12.037
30527SOL     OW93412  13.871   5.039  14.146
30527SOL    HW193413  13.779   5.066  14.146
30527SOL    HW293414  13.867   4.943  14.145
30528SOL     OW93415  13.768   6.957  13.411
30528SOL    HW193416  13.768   6.894  13.482
30528SOL    HW293417  13.697   6.928  13.353
30529SOL     OW93418  10.308   0.270   3.910
30529SOL    HW193419  10.368   0.207   3.949
30529SOL    HW293420  10.361   0.350   3.899
30530SOL     OW93421   5.691  11.271   7.246
30530SOL    HW193422   5.609  11.273   7.197
30530SOL    HW293423   5.673  11.325   7.324
30531SOL     OW93424   4.182   5.242  11.473
30531SOL    HW193425   4.167   5.311  11.409
30531SOL    HW293426   4.128   5.266  11.548
30532SOL     OW93427   0.565   6.308   3.221
30532SOL    HW193428   0.482   6.355   3.220
30532SOL    HW293429   0.546   6.223   3.181
30533SOL     OW93430   9.747   7.895   9.173
30533SOL    HW193431   9.743   7.970   9.113
30533SOL    HW293432   9.762   7.934   9.259
30534SOL     OW93433   0.770  12.890  11.349
30534SOL    HW193434   0.798  12.981  11.357
30534SOL    HW293435   0.826  12.854  11.281
30535SOL     OW93436  11.863   9.879   0.195
30535SOL    HW193437  11.832   9.966   0.221
30535SOL    HW293438  11.951   9.893   0.161
30536SOL     OW93439   2.199   3.658  12.813
30536SOL    HW193440   2.166   3.709  12.887
30536SOL    HW293441   2.183   3.567  12.837
30537SOL     OW93442   2.446  11.981   2.474
30537SOL    HW193443   2.386  11.909   2.495
30537SOL    HW293444   2.533  11.942   2.481
30538SOL     OW93445   4.610  13.410   6.676
30538SOL    HW193446   4.598  13.368   6.591
30538SOL    HW293447   4.521  13.429   6.705
30539SOL     OW93448  11.519   2.109   8.860
30539SOL    HW193449  11.523   2.191   8.811
30539SOL    HW293450  11.441   2.118   8.915
30540SOL     OW93451   7.980   9.123  12.640
30540SOL    HW193452   7.927   9.164  12.708
30540SOL    HW293453   7.992   9.192  12.574
30541SOL     OW93454   2.804   5.183   0.258
30541SOL    HW193455   2.786   5.158   0.167
30541SOL    HW293456   2.897   5.205   0.258
30542SOL     OW93457   7.375   7.004  12.665
30542SOL    HW193458   7.402   6.967  12.581
30542SOL    HW293459   7.280   6.999  12.665
30543SOL     OW93460   7.454  11.618   7.228
30543SOL    HW193461   7.468  11.638   7.321
30543SOL    HW293462   7.500  11.535   7.215
30544SOL     OW93463   9.554   3.618   8.703
30544SOL    HW193464   9.639   3.623   8.745
30544SOL    HW293465   9.554   3.689   8.639
30545SOL     OW93466   8.479   1.275   8.760
30545SOL    HW193467   8.420   1.307   8.829
30545SOL    HW293468   8.463   1.332   8.686
30546SOL     OW93469   4.940  12.140  10.203
30546SOL    HW193470   4.864  12.114  10.150
30546SOL    HW293471   5.007  12.163  10.139
30547SOL     OW93472  13.791   8.603   7.068
30547SOL    HW193473  13.768   8.669   7.134
30547SOL    HW293474  13.707   8.573   7.034
30548SOL     OW93475  12.403   1.959   3.270
30548SOL    HW193476  12.462   2.013   3.323
30548SOL    HW293477  12.327   2.014   3.255
30549SOL     OW93478  12.300  10.943  14.073
30549SOL    HW193479  12.301  11.032  14.039
30549SOL    HW293480  12.232  10.899  14.023
30550SOL     OW93481   4.071  11.729  13.891
30550SOL    HW193482   4.076  11.824  13.905
30550SOL    HW293483   4.122  11.714  13.812
30551SOL     OW93484   7.512   5.121   2.820
30551SOL    HW193485   7.431   5.104   2.868
30551SOL    HW293486   7.492   5.096   2.730
30552SOL     OW93487  14.672   6.974   0.885
30552SOL    HW193488  14.701   7.065   0.882
30552SOL    HW293489  14.754   6.924   0.892
30553SOL     OW93490   4.503   4.893  11.164
30553SOL    HW193491   4.588   4.857  11.192
30553SOL    HW293492   4.516   4.988  11.166
30554SOL     OW93493   8.294  12.471   3.497
30554SOL    HW193494   8.275  12.466   3.403
30554SOL    HW293495   8.380  12.431   3.506
30555SOL     OW93496   9.718  13.887   0.144
30555SOL    HW193497   9.677  13.973   0.148
30555SOL    HW293498   9.799  13.897   0.193
30556SOL     OW93499   4.224   8.947   3.651
30556SOL    HW193500   4.129   8.951   3.663
30556SOL    HW293501   4.251   8.866   3.696
30557SOL     OW93502   3.644  12.997   1.292
30557SOL    HW193503   3.705  13.034   1.228
30557SOL    HW293504   3.650  12.903   1.280
30558SOL     OW93505  11.649   1.376  14.423
30558SOL    HW193506  11.685   1.449  14.473
30558SOL    HW293507  11.633   1.412  14.335
30559SOL     OW93508   9.524  12.602  13.757
30559SOL    HW193509   9.429  12.587  13.756
30559SOL    HW293510   9.535  12.688  13.717
30560SOL     OW93511   1.162   6.054  11.023
30560SOL    HW193512   1.245   6.052  10.976
30560SOL    HW293513   1.186   6.075  11.113
30561SOL     OW93514  10.292  10.476  10.736
30561SOL    HW193515  10.374  10.461  10.689
30561SOL    HW293516  10.313  10.545  10.799
30562SOL     OW93517  14.392   5.616   4.851
30562SOL    HW193518  14.451   5.657   4.788
30562SOL    HW293519  14.451   5.569   4.911
30563SOL     OW93520  12.972  11.077  13.804
30563SOL    HW193521  13.037  11.146  13.818
30563SOL    HW293522  12.934  11.061  13.890
30564SOL     OW93523   7.519   4.543  13.693
30564SOL    HW193524   7.567   4.512  13.769
30564SOL    HW293525   7.456   4.474  13.674
30565SOL     OW93526   1.857   8.946   4.445
30565SOL    HW193527   1.768   8.930   4.476
30565SOL    HW293528   1.845   8.995   4.364
30566SOL     OW93529   5.192   6.117   3.203
30566SOL    HW193530   5.185   6.042   3.262
30566SOL    HW293531   5.102   6.135   3.176
30567SOL     OW93532   6.946  12.441   3.673
30567SOL    HW193533   6.851  12.442   3.671
30567SOL    HW293534   6.971  12.380   3.603
30568SOL     OW93535   0.393   7.821   0.441
30568SOL    HW193536   0.472   7.788   0.397
30568SOL    HW293537   0.412   7.914   0.456
30569SOL     OW93538   3.198   5.665   3.473
30569SOL    HW193539   3.216   5.755   3.443
30569SOL    HW293540   3.212   5.611   3.396
30570SOL     OW93541  14.387   2.052   1.158
30570SOL    HW193542  14.352   1.972   1.118
30570SOL    HW293543  14.409   2.107   1.083
30571SOL     OW93544  10.974   2.988   5.642
30571SOL    HW193545  10.974   2.916   5.706
30571SOL    HW293546  10.911   3.051   5.678
30572SOL     OW93547  11.204   1.534   2.364
30572SOL    HW193548  11.172   1.575   2.283
30572SOL    HW293549  11.151   1.455   2.373
30573SOL     OW93550   6.831   9.803  13.025
30573SOL    HW193551   6.923   9.786  13.005
30573SOL    HW293552   6.783   9.751  12.961
30574SOL     OW93553  13.848  12.906  13.532
30574SOL    HW193554  13.774  12.964  13.549
30574SOL    HW293555  13.811  12.833  13.483
30575SOL     OW93556  12.182   9.287  10.220
30575SOL    HW193557  12.209   9.267  10.309
30575SOL    HW293558  12.131   9.211  10.192
30576SOL     OW93559  13.722  13.963   8.864
30576SOL    HW193560  13.789  14.029   8.881
30576SOL    HW293561  13.682  13.991   8.782
30577SOL     OW93562   2.348   4.420   1.361
30577SOL    HW193563   2.316   4.503   1.397
30577SOL    HW293564   2.268   4.374   1.334
30578SOL     OW93565  10.647  12.564  11.661
30578SOL    HW193566  10.659  12.590  11.753
30578SOL    HW293567  10.702  12.625  11.612
30579SOL     OW93568  12.634   5.762  10.612
30579SOL    HW193569  12.572   5.695  10.643
30579SOL    HW293570  12.702   5.764  10.680
30580SOL     OW93571  13.620   6.102   5.684
30580SOL    HW193572  13.657   6.056   5.608
30580SOL    HW293573  13.668   6.067   5.759
30581SOL     OW93574   1.645   3.845   5.771
30581SOL    HW193575   1.673   3.820   5.683
30581SOL    HW293576   1.651   3.764   5.822
30582SOL     OW93577  10.023  11.533   6.389
30582SOL    HW193578  10.081  11.539   6.314
30582SOL    HW293579  10.060  11.462   6.442
30583SOL     OW93580   9.456   7.660  10.121
30583SOL    HW193581   9.426   7.603  10.051
30583SOL    HW293582   9.477   7.743  10.077
30584SOL     OW93583  12.422   2.058   2.439
30584SOL    HW193584  12.452   1.970   2.461
30584SOL    HW293585  12.474   2.082   2.362
30585SOL     OW93586   6.360   5.434  10.374
30585SOL    HW193587   6.432   5.400  10.322
30585SOL    HW293588   6.282   5.417  10.321
30586SOL     OW93589   7.889  11.822   9.674
30586SOL    HW193590   7.868  11.913   9.652
30586SOL    HW293591   7.812  11.773   9.646
30587SOL     OW93592   2.044   1.687  12.160
30587SOL    HW193593   2.099   1.618  12.124
30587SOL    HW293594   2.064   1.686  12.254
30588SOL     OW93595  13.775   5.971   8.407
30588SOL    HW193596  13.845   5.914   8.375
30588SOL    HW293597  13.818   6.029   8.469
30589SOL     OW93598   4.340   6.865  12.222
30589SOL    HW193599   4.334   6.955  12.254
30589SOL    HW293600   4.258   6.851  12.175
30590SOL     OW93601   5.712   8.309   5.510
30590SOL    HW193602   5.802   8.320   5.540
30590SOL    HW293603   5.692   8.217   5.527
30591SOL     OW93604  11.681   2.533   4.119
30591SOL    HW193605  11.613   2.525   4.186
30591SOL    HW293606  11.759   2.494   4.159
30592SOL     OW93607   5.862   6.278   6.666
30592SOL    HW193608   5.773   6.253   6.693
30592SOL    HW293609   5.884   6.215   6.597
30593SOL     OW93610  14.697   8.328   8.671
30593SOL    HW193611  14.771   8.363   8.721
30593SOL    HW293612  14.636   8.401   8.664
30594SOL     OW93613   1.332  12.190   4.370
30594SOL    HW193614   1.427  12.179   4.370
30594SOL    HW293615   1.298  12.115   4.321
30595SOL     OW93616  14.532   2.566   9.763
30595SOL    HW193617  14.579   2.565   9.680
30595SOL    HW293618  14.566   2.643   9.809
30596SOL     OW93619  14.236   8.865   4.881
30596SOL    HW193620  14.207   8.775   4.866
30596SOL    HW293621  14.291   8.859   4.960
30597SOL     OW93622   5.785  11.605   7.016
30597SOL    HW193623   5.851  11.664   7.053
30597SOL    HW293624   5.832  11.554   6.950
30598SOL     OW93625   5.870  13.445   6.161
30598SOL    HW193626   5.782  13.431   6.195
30598SOL    HW293627   5.858  13.458   6.067
30599SOL     OW93628   0.976  11.053   3.303
30599SOL    HW193629   0.982  11.025   3.395
30599SOL    HW293630   0.943  10.977   3.257
30600SOL     OW93631  12.035  13.319   0.321
30600SOL    HW193632  11.945  13.338   0.346
30600SOL    HW293633  12.033  13.311   0.226
30601SOL     OW93634  10.367   3.585   2.766
30601SOL    HW193635  10.377   3.499   2.726
30601SOL    HW293636  10.301   3.572   2.834
30602SOL     OW93637   2.027  13.907  11.681
30602SOL    HW193638   2.103  13.908  11.739
30602SOL    HW293639   2.057  13.863  11.602
30603SOL     OW93640  11.367   4.682   1.660
30603SOL    HW193641  11.415   4.668   1.741
30603SOL    HW293642  11.346   4.776   1.660
30604SOL     OW93643   6.972  12.213   6.714
30604SOL    HW193644   6.912  12.162   6.659
30604SOL    HW293645   7.053  12.162   6.714
30605SOL     OW93646  13.170  13.774   6.176
30605SOL    HW193647  13.245  13.833   6.183
30605SOL    HW293648  13.209  13.686   6.180
30606SOL     OW93649   9.411   2.562  13.965
30606SOL    HW193650   9.493   2.560  14.014
30606SOL    HW293651   9.382   2.653  13.970
30607SOL     OW93652   0.860   6.786  13.528
30607SOL    HW193653   0.902   6.700  13.529
30607SOL    HW293654   0.905   6.836  13.597
30608SOL     OW93655   4.596  13.044  13.451
30608SOL    HW193656   4.638  13.002  13.526
30608SOL    HW293657   4.644  13.126  13.439
30609SOL     OW93658   1.884   7.442  11.640
30609SOL    HW193659   1.878   7.349  11.663
30609SOL    HW293660   1.799   7.463  11.603
30610SOL     OW93661  13.045  10.567   7.453
30610SOL    HW193662  13.058  10.474   7.471
30610SOL    HW293663  12.950  10.576   7.443
30611SOL     OW93664   0.299  12.932  13.910
30611SOL    HW193665   0.298  12.921  13.815
30611SOL    HW293666   0.387  12.905  13.936
30612SOL     OW93667   1.234  10.189  10.102
30612SOL    HW193668   1.317  10.168  10.145
30612SOL    HW293669   1.249  10.274  10.062
30613SOL     OW93670   6.793   8.071  10.453
30613SOL    HW193671   6.860   8.139  10.454
30613SOL    HW293672   6.830   8.000  10.506
30614SOL     OW93673   7.596   8.535   5.256
30614SOL    HW193674   7.578   8.470   5.325
30614SOL    HW293675   7.520   8.594   5.258
30615SOL     OW93676  13.626   0.593   2.992
30615SOL    HW193677  13.661   0.514   3.033
30615SOL    HW293678  13.540   0.605   3.032
30616SOL     OW93679   4.952   6.333  13.407
30616SOL    HW193680   4.931   6.264  13.471
30616SOL    HW293681   4.994   6.401  13.459
30617SOL     OW93682   0.452   6.728   3.452
30617SOL    HW193683   0.452   6.720   3.356
30617SOL    HW293684   0.361   6.712   3.477
30618SOL     OW93685   5.118   4.511   6.655
30618SOL    HW193686   5.101   4.573   6.583
30618SOL    HW293687   5.095   4.426   6.618
30619SOL     OW93688  11.691  13.373  12.378
30619SOL    HW193689  11.782  13.355  12.353
30619SOL    HW293690  11.697  13.445  12.441
30620SOL     OW93691  13.040   4.502   6.380
30620SOL    HW193692  13.101   4.537   6.445
30620SOL    HW293693  13.074   4.414   6.360
30621SOL     OW93694  14.256   0.516   2.335
30621SOL    HW193695  14.313   0.581   2.294
30621SOL    HW293696  14.310   0.479   2.405
30622SOL     OW93697  14.705   2.659   5.664
30622SOL    HW193698  14.740   2.645   5.752
30622SOL    HW293699  14.781   2.687   5.612
30623SOL     OW93700   2.371  13.433   3.822
30623SOL    HW193701   2.370  13.347   3.779
30623SOL    HW293702   2.460  13.442   3.856
30624SOL     OW93703  13.553   9.286  10.795
30624SOL    HW193704  13.496   9.227  10.843
30624SOL    HW293705  13.494   9.350  10.755
30625SOL     OW93706   2.143   8.171   0.296
30625SOL    HW193707   2.204   8.159   0.369
30625SOL    HW293708   2.185   8.235   0.240
30626SOL     OW93709   4.292  11.933  13.791
30626SOL    HW193710   4.206  11.970  13.771
30626SOL    HW293711   4.354  11.992  13.749
30627SOL     OW93712   2.923  10.159   8.644
30627SOL    HW193713   2.913  10.067   8.670
30627SOL    HW293714   3.018  10.172   8.637
30628SOL     OW93715  13.886   1.622   1.128
30628SOL    HW193716  13.933   1.705   1.127
30628SOL    HW293717  13.865   1.605   1.037
30629SOL     OW93718  14.792  11.514   1.227
30629SOL    HW193719  14.872  11.464   1.209
30629SOL    HW293720  14.721  11.457   1.194
30630SOL     OW93721   5.330   4.419   7.992
30630SOL    HW193722   5.278   4.484   8.040
30630SOL    HW293723   5.361   4.359   8.060
30631SOL     OW93724   1.955   1.206  14.325
30631SOL    HW193725   2.017   1.165  14.264
30631SOL    HW293726   1.969   1.300  14.314
30632SOL     OW93727   9.509   9.451  14.168
30632SOL    HW193728   9.591   9.444  14.216
30632SOL    HW293729   9.497   9.365  14.127
30633SOL     OW93730   7.055  14.385   0.340
30633SOL    HW193731   6.988  14.436   0.386
30633SOL    HW293732   7.053  14.419   0.250
30634SOL     OW93733  14.519   0.293   5.148
30634SOL    HW193734  14.479   0.287   5.235
30634SOL    HW293735  14.481   0.219   5.100
30635SOL     OW93736   4.579  13.588   5.543
30635SOL    HW193737   4.549  13.655   5.604
30635SOL    HW293738   4.578  13.632   5.458
30636SOL     OW93739   0.899  12.844   1.210
30636SOL    HW193740   0.971  12.842   1.146
30636SOL    HW293741   0.885  12.937   1.227
30637SOL     OW93742   7.166  12.043   0.937
30637SOL    HW193743   7.159  11.948   0.948
30637SOL    HW293744   7.192  12.055   0.846
30638SOL     OW93745  10.794  11.993   5.795
30638SOL    HW193746  10.719  11.965   5.742
30638SOL    HW293747  10.847  11.914   5.806
30639SOL     OW93748   7.907  13.171  13.685
30639SOL    HW193749   7.985  13.206  13.729
30639SOL    HW293750   7.834  13.206  13.737
30640SOL     OW93751  13.214   8.957   9.596
30640SOL    HW193752  13.304   8.947   9.565
30640SOL    HW293753  13.182   8.867   9.602
30641SOL     OW93754  11.839   2.272   1.188
30641SOL    HW193755  11.785   2.194   1.194
30641SOL    HW293756  11.859   2.294   1.279
30642SOL     OW93757   2.540   5.592  10.213
30642SOL    HW193758   2.524   5.671  10.265
30642SOL    HW293759   2.608   5.545  10.261
30643SOL     OW93760   3.889  10.619   1.334
30643SOL    HW193761   3.848  10.705   1.329
30643SOL    HW293762   3.829  10.562   1.286
30644SOL     OW93763  13.329  14.277  11.014
30644SOL    HW193764  13.328  14.223  11.093
30644SOL    HW293765  13.237  14.301  11.000
30645SOL     OW93766  12.298   1.419   7.159
30645SOL    HW193767  12.296   1.382   7.247
30645SOL    HW293768  12.223   1.478   7.157
30646SOL     OW93769  13.255   7.703   2.694
30646SOL    HW193770  13.225   7.784   2.652
30646SOL    HW293771  13.325   7.671   2.639
30647SOL     OW93772   0.549   0.927  13.468
30647SOL    HW193773   0.563   0.871  13.392
30647SOL    HW293774   0.571   0.872  13.543
30648SOL     OW93775  11.713  12.575  11.816
30648SOL    HW193776  11.712  12.559  11.721
30648SOL    HW293777  11.622  12.594  11.837
30649SOL     OW93778   7.524   3.258   9.920
30649SOL    HW193779   7.512   3.236  10.012
30649SOL    HW293780   7.618   3.268   9.909
30650SOL     OW93781   1.844   0.021   4.796
30650SOL    HW193782   1.756   0.052   4.775
30650SOL    HW293783   1.830  14.805   4.830
30651SOL     OW93784   8.723   1.558   0.531
30651SOL    HW193785   8.801   1.515   0.565
30651SOL    HW293786   8.726   1.544   0.436
30652SOL     OW93787   2.003   7.836   9.428
30652SOL    HW193788   2.065   7.797   9.490
30652SOL    HW293789   2.052   7.907   9.387
30653SOL     OW93790  10.969   5.712   5.002
30653SOL    HW193791  11.000   5.655   5.072
30653SOL    HW293792  10.883   5.742   5.032
30654SOL     OW93793  10.361   0.197  14.164
30654SOL    HW193794  10.307   0.126  14.128
30654SOL    HW293795  10.298   0.261  14.197
30655SOL     OW93796   0.160   1.487  11.394
30655SOL    HW193797   0.133   1.563  11.342
30655SOL    HW293798   0.184   1.421  11.329
30656SOL     OW93799   7.254  13.984   2.337
30656SOL    HW193800   7.205  14.044   2.281
30656SOL    HW293801   7.246  13.899   2.292
30657SOL     OW93802  14.254  11.634  14.032
30657SOL    HW193803  14.296  11.638  14.118
30657SOL    HW293804  14.165  11.665  14.047
30658SOL     OW93805   4.787  10.140  14.395
30658SOL    HW193806   4.876  10.108  14.414
30658SOL    HW293807   4.786  10.229  14.430
30659SOL     OW93808  10.627   9.534  10.006
30659SOL    HW193809  10.625   9.525   9.911
30659SOL    HW293810  10.688   9.607  10.022
30660SOL     OW93811   5.065   8.370  12.564
30660SOL    HW193812   5.027   8.384  12.478
30660SOL    HW293813   5.148   8.419  12.562
30661SOL     OW93814  11.628  12.083   6.467
30661SOL    HW193815  11.597  12.165   6.506
30661SOL    HW293816  11.714  12.069   6.506
30662SOL     OW93817   9.687  10.767   4.660
30662SOL    HW193818   9.763  10.745   4.713
30662SOL    HW293819   9.700  10.859   4.637
30663SOL     OW93820  10.838  14.336   6.869
30663SOL    HW193821  10.876  14.351   6.783
30663SOL    HW293822  10.855  14.243   6.888
30664SOL     OW93823   4.976   9.393   3.520
30664SOL    HW193824   4.896   9.422   3.475
30664SOL    HW293825   5.047   9.419   3.461
30665SOL     OW93826   7.474   9.739   0.980
30665SOL    HW193827   7.471   9.680   0.905
30665SOL    HW293828   7.395   9.718   1.030
30666SOL     OW93829   6.458   0.780   3.779
30666SOL    HW193830   6.409   0.698   3.777
30666SOL    HW293831   6.548   0.754   3.758
30667SOL     OW93832   6.076  14.483   6.527
30667SOL    HW193833   6.034  14.499   6.443
30667SOL    HW293834   6.150  14.426   6.506
30668SOL     OW93835   0.320   1.665  11.006
30668SOL    HW193836   0.318   1.685  11.100
30668SOL    HW293837   0.242   1.613  10.991
30669SOL     OW93838   0.617   7.682   8.647
30669SOL    HW193839   0.570   7.621   8.704
30669SOL    HW293840   0.633   7.759   8.701
30670SOL     OW93841   2.807   9.410  13.388
30670SOL    HW193842   2.794   9.354  13.464
30670SOL    HW293843   2.842   9.353  13.321
30671SOL     OW93844   8.671  13.005   9.679
30671SOL    HW193845   8.627  13.089   9.694
30671SOL    HW293846   8.606  12.939   9.704
30672SOL     OW93847   3.004  11.254   5.298
30672SOL    HW193848   2.910  11.265   5.311
30672SOL    HW293849   3.043  11.265   5.385
30673SOL     OW93850   4.937   9.106  10.212
30673SOL    HW193851   4.976   9.032  10.165
30673SOL    HW293852   4.977   9.102  10.299
30674SOL     OW93853  13.428   3.623   8.976
30674SOL    HW193854  13.446   3.597   9.067
30674SOL    HW293855  13.380   3.549   8.939
30675SOL     OW93856  12.127   0.302  14.857
30675SOL    HW193857  12.168   0.292  14.771
30675SOL    HW293858  12.104   0.395  14.860
30676SOL     OW93859   1.143   8.376   8.393
30676SOL    HW193860   1.229   8.334   8.399
30676SOL    HW293861   1.162   8.463   8.359
30677SOL     OW93862   8.517  13.776   1.138
30677SOL    HW193863   8.601  13.809   1.105
30677SOL    HW293864   8.520  13.793   1.232
30678SOL     OW93865  14.594  11.669   9.992
30678SOL    HW193866  14.646  11.589  10.003
30678SOL    HW293867  14.532  11.668  10.065
30679SOL     OW93868   4.204   0.161   5.259
30679SOL    HW193869   4.220   0.237   5.202
30679SOL    HW293870   4.109   0.152   5.260
30680SOL     OW93871   7.971   1.213   6.071
30680SOL    HW193872   7.932   1.291   6.111
30680SOL    HW293873   8.058   1.241   6.043
30681SOL     OW93874   2.831   8.838   1.339
30681SOL    HW193875   2.758   8.775   1.339
30681SOL    HW293876   2.852   8.849   1.432
30682SOL     OW93877  12.786  13.706   4.414
30682SOL    HW193878  12.832  13.702   4.330
30682SOL    HW293879  12.707  13.654   4.401
30683SOL     OW93880  10.277   5.893   9.659
30683SOL    HW193881  10.320   5.963   9.610
30683SOL    HW293882  10.348   5.842   9.697
30684SOL     OW93883   8.218   2.552   2.209
30684SOL    HW193884   8.131   2.514   2.197
30684SOL    HW293885   8.266   2.486   2.259
30685SOL     OW93886  11.233  14.057   6.650
30685SOL    HW193887  11.173  14.080   6.579
30685SOL    HW293888  11.176  14.027   6.720
30686SOL     OW93889  13.383   9.787  11.561
30686SOL    HW193890  13.457   9.828  11.516
30686SOL    HW293891  13.419   9.757  11.644
30687SOL     OW93892   1.715   1.533   4.991
30687SOL    HW193893   1.633   1.582   5.004
30687SOL    HW293894   1.698   1.479   4.914
30688SOL     OW93895   4.829   0.676   3.533
30688SOL    HW193896   4.838   0.591   3.490
30688SOL    HW293897   4.900   0.729   3.497
30689SOL     OW93898   5.350  13.716   1.743
30689SOL    HW193899   5.338  13.633   1.788
30689SOL    HW293900   5.261  13.751   1.734
30690SOL     OW93901   7.590   3.290  10.211
30690SOL    HW193902   7.533   3.346  10.263
30690SOL    HW293903   7.665   3.273  10.268
30691SOL     OW93904   3.143   0.750   4.244
30691SOL    HW193905   3.126   0.661   4.214
30691SOL    HW293906   3.064   0.775   4.291
30692SOL     OW93907   5.636  14.406  10.526
30692SOL    HW193908   5.664  14.365  10.608
30692SOL    HW293909   5.633  14.500  10.547
30693SOL     OW93910  14.826   7.815   0.069
30693SOL    HW193911  14.803   7.844  14.853
30693SOL    HW293912   0.036   7.860   0.088
30694SOL     OW93913  12.473  10.180  13.399
30694SOL    HW193914  12.390  10.224  13.414
30694SOL    HW293915  12.462  10.135  13.315
30695SOL     OW93916   8.882  14.035  10.833
30695SOL    HW193917   8.976  14.043  10.818
30695SOL    HW293918   8.864  14.093  10.907
30696SOL     OW93919   4.396   1.728   8.831
30696SOL    HW193920   4.317   1.718   8.884
30696SOL    HW293921   4.395   1.653   8.772
30697SOL     OW93922   3.062  11.727  11.172
30697SOL    HW193923   3.140  11.774  11.144
30697SOL    HW293924   3.028  11.688  11.091
30698SOL     OW93925   5.597   1.225   3.404
30698SOL    HW193926   5.513   1.268   3.388
30698SOL    HW293927   5.573   1.136   3.430
30699SOL     OW93928   6.059   1.915   6.352
30699SOL    HW193929   6.141   1.890   6.395
30699SOL    HW293930   6.013   1.969   6.416
30700SOL     OW93931  12.278   6.936   8.453
30700SOL    HW193932  12.192   6.916   8.491
30700SOL    HW293933  12.332   6.959   8.528
30701SOL     OW93934   8.000  12.441  12.951
30701SOL    HW193935   7.993  12.465  13.043
30701SOL    HW293936   8.072  12.494  12.917
30702SOL     OW93937  14.110  10.587   9.795
30702SOL    HW193938  14.185  10.578   9.854
30702SOL    HW293939  14.146  10.630   9.717
30703SOL     OW93940  10.592   3.026   5.415
30703SOL    HW193941  10.504   3.000   5.444
30703SOL    HW293942  10.607   3.111   5.457
30704SOL     OW93943   2.086   8.176  14.235
30704SOL    HW193944   2.145   8.248  14.214
30704SOL    HW293945   2.099   8.161  14.329
30705SOL     OW93946   0.217   6.006   4.860
30705SOL    HW193947   0.191   6.093   4.830
30705SOL    HW293948   0.154   5.984   4.929
30706SOL     OW93949   6.231   8.339   4.987
30706SOL    HW193950   6.184   8.291   5.055
30706SOL    HW293951   6.247   8.425   5.024
30707SOL     OW93952   2.692  10.300   9.412
30707SOL    HW193953   2.622  10.240   9.438
30707SOL    HW293954   2.687  10.372   9.476
30708SOL     OW93955   5.356  13.922   2.070
30708SOL    HW193956   5.435  13.963   2.105
30708SOL    HW293957   5.295  13.995   2.057
30709SOL     OW93958  10.283  10.594   6.130
30709SOL    HW193959  10.333  10.671   6.103
30709SOL    HW293960  10.291  10.534   6.055
30710SOL     OW93961   4.771   4.013   1.189
30710SOL    HW193962   4.703   3.953   1.220
30710SOL    HW293963   4.848   3.957   1.175
30711SOL     OW93964  11.848   3.986   2.845
30711SOL    HW193965  11.907   3.997   2.920
30711SOL    HW293966  11.865   3.897   2.815
30712SOL     OW93967  12.237  11.547  13.039
30712SOL    HW193968  12.310  11.571  13.097
30712SOL    HW293969  12.278  11.534  12.953
30713SOL     OW93970   2.841   0.824   6.520
30713SOL    HW193971   2.860   0.884   6.593
30713SOL    HW293972   2.810   0.744   6.563
30714SOL     OW93973   6.774   0.871   7.355
30714SOL    HW193974   6.700   0.912   7.401
30714SOL    HW293975   6.781   0.784   7.394
30715SOL     OW93976   6.892   7.564   8.042
30715SOL    HW193977   6.829   7.502   8.078
30715SOL    HW293978   6.844   7.647   8.035
30716SOL     OW93979   9.443  12.812   1.143
30716SOL    HW193980   9.361  12.839   1.101
30716SOL    HW293981   9.448  12.866   1.222
30717SOL     OW93982  14.742   9.973  12.853
30717SOL    HW193983  14.741   9.922  12.772
30717SOL    HW293984  14.730  10.063  12.824
30718SOL     OW93985   0.971  11.433   1.588
30718SOL    HW193986   1.011  11.494   1.525
30718SOL    HW293987   0.882  11.465   1.598
30719SOL     OW93988   1.801   4.027  12.724
30719SOL    HW193989   1.856   4.004  12.649
30719SOL    HW293990   1.862   4.058  12.790
30720SOL     OW93991  11.967   9.633  10.005
30720SOL    HW193992  11.973   9.539   9.989
30720SOL    HW293993  12.057   9.664   9.998
30721SOL     OW93994   8.995  10.387  12.263
30721SOL    HW193995   8.963  10.332  12.192
30721SOL    HW293996   9.064  10.440  12.223
30722SOL     OW93997  13.582   1.840   8.051
30722SOL    HW193998  13.548   1.875   7.968
30722SOL    HW293999  13.676   1.831   8.036
30723SOL     OW94000   1.495   8.875  14.616
30723SOL    HW194001   1.462   8.861  14.527
30723SOL    HW294002   1.435   8.825  14.672
30724SOL     OW94003  11.956   1.069  13.633
30724SOL    HW194004  11.977   1.067  13.539
30724SOL    HW294005  11.995   0.988  13.667
30725SOL     OW94006   0.300   3.954   4.941
30725SOL    HW194007   0.238   3.989   4.878
30725SOL    HW294008   0.377   4.011   4.933
30726SOL     OW94009   6.490  13.154  14.361
30726SOL    HW194010   6.414  13.206  14.386
30726SOL    HW294011   6.478  13.070  14.404
30727SOL     OW94012   3.021   0.496   0.808
30727SOL    HW194013   3.104   0.500   0.760
30727SOL    HW294014   3.028   0.567   0.873
30728SOL     OW94015  13.284   5.800  14.307
30728SOL    HW194016  13.191   5.809  14.286
30728SOL    HW294017  13.286   5.738  14.380
30729SOL     OW94018  13.457  12.087   6.893
30729SOL    HW194019  13.516  12.106   6.821
30729SOL    HW294020  13.457  11.991   6.900
30730SOL     OW94021  11.549   7.323   6.974
30730SOL    HW194022  11.628   7.313   7.028
30730SOL    HW294023  11.550   7.415   6.947
30731SOL     OW94024   1.445   9.715   6.629
30731SOL    HW194025   1.349   9.717   6.634
30731SOL    HW294026   1.467   9.797   6.584
30732SOL     OW94027   8.202   3.727  12.716
30732SOL    HW194028   8.253   3.700  12.640
30732SOL    HW294029   8.247   3.805  12.749
30733SOL     OW94030   1.974   8.442   2.590
30733SOL    HW194031   2.039   8.444   2.660
30733SOL    HW294032   2.024   8.457   2.510
30734SOL     OW94033  11.670  11.329  13.176
30734SOL    HW194034  11.736  11.329  13.106
30734SOL    HW294035  11.647  11.237  13.187
30735SOL     OW94036  11.959   4.214  14.330
30735SOL    HW194037  11.883   4.268  14.312
30735SOL    HW294038  11.925   4.141  14.383
30736SOL     OW94039   3.698   6.215  11.076
30736SOL    HW194040   3.677   6.305  11.052
30736SOL    HW294041   3.629   6.189  11.137
30737SOL     OW94042   3.386   3.844  10.787
30737SOL    HW194043   3.357   3.822  10.699
30737SOL    HW294044   3.480   3.861  10.779
30738SOL     OW94045  12.223   5.286   4.087
30738SOL    HW194046  12.290   5.324   4.143
30738SOL    HW294047  12.166   5.360   4.065
30739SOL     OW94048   5.320   7.818  13.941
30739SOL    HW194049   5.284   7.867  13.867
30739SOL    HW294050   5.245   7.802  13.998
30740SOL     OW94051  12.692   7.811  13.238
30740SOL    HW194052  12.679   7.725  13.198
30740SOL    HW294053  12.759   7.796  13.305
30741SOL     OW94054   7.484  14.208  12.615
30741SOL    HW194055   7.451  14.131  12.568
30741SOL    HW294056   7.423  14.278  12.591
30742SOL     OW94057   4.967   7.410  10.479
30742SOL    HW194058   4.944   7.499  10.508
30742SOL    HW294059   4.882   7.368  10.463
30743SOL     OW94060  12.280   0.936   8.649
30743SOL    HW194061  12.285   0.840   8.649
30743SOL    HW294062  12.191   0.956   8.620
30744SOL     OW94063  11.542   0.077   4.404
30744SOL    HW194064  11.462   0.128   4.420
30744SOL    HW294065  11.548   0.070   4.309
30745SOL     OW94066   1.221   6.744   0.086
30745SOL    HW194067   1.297   6.794   0.055
30745SOL    HW294068   1.259   6.672   0.137
30746SOL     OW94069   4.824  14.215  13.942
30746SOL    HW194070   4.780  14.156  13.881
30746SOL    HW294071   4.836  14.297  13.893
30747SOL     OW94072   0.074   2.505  11.167
30747SOL    HW194073   0.056   2.445  11.239
30747SOL    HW294074  14.860   2.539  11.142
30748SOL     OW94075  11.439   2.511   2.840
30748SOL    HW194076  11.438   2.442   2.773
30748SOL    HW294077  11.495   2.579   2.803
30749SOL     OW94078  13.128   8.453   8.397
30749SOL    HW194079  13.100   8.544   8.396
30749SOL    HW294080  13.164   8.438   8.309
30750SOL     OW94081  13.411  12.538  14.449
30750SOL    HW194082  13.336  12.485  14.475
30750SOL    HW294083  13.452  12.490  14.377
30751SOL     OW94084   0.079   7.972  13.140
30751SOL    HW194085   0.116   7.926  13.215
30751SOL    HW294086   0.026   8.042  13.178
30752SOL     OW94087  12.183   5.832  14.654
30752SOL    HW194088  12.255   5.782  14.615
30752SOL    HW294089  12.145   5.882  14.581
30753SOL     OW94090   0.206  10.378  13.059
30753SOL    HW194091   0.222  10.429  13.139
30753SOL    HW294092   0.180  10.443  12.994
30754SOL     OW94093   2.470   7.774   0.864
30754SOL    HW194094   2.485   7.868   0.874
30754SOL    HW294095   2.501   7.735   0.945
30755SOL     OW94096   3.575  11.001   8.737
30755SOL    HW194097   3.491  11.043   8.754
30755SOL    HW294098   3.636  11.046   8.796
30756SOL     OW94099  14.707   3.150   3.519
30756SOL    HW194100  14.711   3.058   3.548
30756SOL    HW294101  14.638   3.151   3.452
30757SOL     OW94102   2.786   5.095   9.634
30757SOL    HW194103   2.836   5.013   9.625
30757SOL    HW294104   2.784   5.111   9.729
30758SOL     OW94105  10.668   2.056  12.342
30758SOL    HW194106  10.762   2.069  12.325
30758SOL    HW294107  10.627   2.138  12.314
30759SOL     OW94108  10.926   2.347   9.916
30759SOL    HW194109  10.959   2.257   9.913
30759SOL    HW294110  10.897   2.365   9.826
30760SOL     OW94111  11.236   2.535   6.271
30760SOL    HW194112  11.153   2.510   6.311
30760SOL    HW294113  11.246   2.474   6.198
30761SOL     OW94114  13.787   1.119   9.207
30761SOL    HW194115  13.764   1.029   9.230
30761SOL    HW294116  13.881   1.115   9.190
30762SOL     OW94117   9.109   8.622   8.832
30762SOL    HW194118   9.169   8.607   8.905
30762SOL    HW294119   9.098   8.717   8.829
30763SOL     OW94120  12.800   4.535   7.784
30763SOL    HW194121  12.888   4.522   7.749
30763SOL    HW294122  12.742   4.498   7.718
30764SOL     OW94123   6.992   3.284   8.953
30764SOL    HW194124   6.943   3.237   8.885
30764SOL    HW294125   7.035   3.355   8.907
30765SOL     OW94126   5.424   6.817  11.918
30765SOL    HW194127   5.438   6.910  11.935
30765SOL    HW294128   5.512   6.779  11.919
30766SOL     OW94129  13.656   3.607   5.033
30766SOL    HW194130  13.689   3.690   5.066
30766SOL    HW294131  13.614   3.566   5.109
30767SOL     OW94132   5.538   5.677  10.375
30767SOL    HW194133   5.540   5.712  10.286
30767SOL    HW294134   5.445   5.664  10.394
30768SOL     OW94135   9.104  11.213   2.956
30768SOL    HW194136   9.086  11.130   2.913
30768SOL    HW294137   9.096  11.194   3.050
30769SOL     OW94138  13.619  14.532   5.445
30769SOL    HW194139  13.545  14.472   5.448
30769SOL    HW294140  13.598  14.599   5.511
30770SOL     OW94141   4.890   8.504  12.344
30770SOL    HW194142   4.951   8.539  12.279
30770SOL    HW294143   4.804   8.533  12.313
30771SOL     OW94144  13.870   4.706   3.418
30771SOL    HW194145  13.790   4.655   3.423
30771SOL    HW294146  13.840   4.796   3.403
30772SOL     OW94147   4.136  13.215   2.993
30772SOL    HW194148   4.068  13.224   2.926
30772SOL    HW294149   4.187  13.139   2.966
30773SOL     OW94150   9.148  10.176  12.367
30773SOL    HW194151   9.197  10.210  12.443
30773SOL    HW294152   9.114  10.254  12.324
30774SOL     OW94153  12.186  13.609   3.062
30774SOL    HW194154  12.189  13.646   2.974
30774SOL    HW294155  12.273  13.572   3.076
30775SOL     OW94156   4.462  11.841   6.262
30775SOL    HW194157   4.513  11.902   6.209
30775SOL    HW294158   4.403  11.897   6.313
30776SOL     OW94159  10.621   8.451   2.640
30776SOL    HW194160  10.573   8.523   2.599
30776SOL    HW294161  10.638   8.481   2.730
30777SOL     OW94162   8.041   1.424  12.180
30777SOL    HW194163   8.064   1.377  12.259
30777SOL    HW294164   8.117   1.416  12.123
30778SOL     OW94165   7.065  11.370   7.542
30778SOL    HW194166   7.038  11.462   7.537
30778SOL    HW294167   7.078  11.354   7.635
30779SOL     OW94168   9.400   2.206   4.895
30779SOL    HW194169   9.496   2.203   4.901
30779SOL    HW294170   9.370   2.158   4.972
30780SOL     OW94171   9.879   2.446   9.738
30780SOL    HW194172   9.810   2.485   9.792
30780SOL    HW294173   9.841   2.441   9.650
30781SOL     OW94174  13.336   3.290   2.040
30781SOL    HW194175  13.346   3.224   2.109
30781SOL    HW294176  13.398   3.265   1.973
30782SOL     OW94177  11.707   7.398   3.245
30782SOL    HW194178  11.684   7.481   3.203
30782SOL    HW294179  11.783   7.418   3.299
30783SOL     OW94180   8.112   9.400   5.141
30783SOL    HW194181   8.064   9.341   5.200
30783SOL    HW294182   8.170   9.449   5.199
30784SOL     OW94183   0.648   8.301   5.671
30784SOL    HW194184   0.583   8.246   5.715
30784SOL    HW294185   0.706   8.330   5.741
30785SOL     OW94186   7.029   3.270   7.228
30785SOL    HW194187   7.030   3.221   7.146
30785SOL    HW294188   7.108   3.323   7.225
30786SOL     OW94189  10.848   3.257  11.613
30786SOL    HW194190  10.931   3.291  11.646
30786SOL    HW294191  10.871   3.212  11.532
30787SOL     OW94192   0.082   1.900  12.087
30787SOL    HW194193   0.043   1.927  12.170
30787SOL    HW294194   0.071   1.977  12.030
30788SOL     OW94195   7.257   8.221  12.499
30788SOL    HW194196   7.348   8.195  12.487
30788SOL    HW294197   7.229   8.250  12.413
30789SOL     OW94198  13.940  10.558  14.118
30789SOL    HW194199  13.891  10.485  14.081
30789SOL    HW294200  14.026  10.554  14.076
30790SOL     OW94201   1.230   7.646   8.068
30790SOL    HW194202   1.183   7.648   8.151
30790SOL    HW294203   1.210   7.559   8.031
30791SOL     OW94204   3.940   4.062   6.930
30791SOL    HW194205   3.913   4.104   7.012
30791SOL    HW294206   3.947   3.969   6.951
30792SOL     OW94207   0.650   7.101   8.312
30792SOL    HW194208   0.568   7.099   8.361
30792SOL    HW294209   0.686   7.012   8.319
30793SOL     OW94210  13.545   9.254   1.115
30793SOL    HW194211  13.503   9.178   1.156
30793SOL    HW294212  13.488   9.328   1.138
30794SOL     OW94213   3.827  14.850   2.646
30794SOL    HW194214   3.745   0.005   2.686
30794SOL    HW294215   3.878   0.059   2.638
30795SOL     OW94216  13.011   6.582   0.081
30795SOL    HW194217  13.038   6.555   0.169
30795SOL    HW294218  12.924   6.545   0.070
30796SOL     OW94219  10.497  14.814   8.018
30796SOL    HW194220  10.421  14.868   8.039
30796SOL    HW294221  10.463  14.724   8.015
30797SOL     OW94222   0.420  13.667   1.505
30797SOL    HW194223   0.464  13.621   1.577
30797SOL    HW294224   0.341  13.704   1.545
30798SOL     OW94225   2.956   8.353  14.645
30798SOL    HW194226   2.944   8.260  14.665
30798SOL    HW294227   2.904   8.399  14.711
30799SOL     OW94228  13.834   8.521  13.810
30799SOL    HW194229  13.862   8.583  13.877
30799SOL    HW294230  13.782   8.456  13.857
30800SOL     OW94231  12.547  13.585   4.442
30800SOL    HW194232  12.552  13.556   4.533
30800SOL    HW294233  12.463  13.631   4.437
30801SOL     OW94234   2.147   1.878   4.772
30801SOL    HW194235   2.155   1.785   4.793
30801SOL    HW294236   2.179   1.886   4.682
30802SOL     OW94237  14.665  13.853   1.932
30802SOL    HW194238  14.591  13.870   1.989
30802SOL    HW294239  14.627  13.848   1.844
30803SOL     OW94240  12.852   0.610   1.766
30803SOL    HW194241  12.818   0.573   1.684
30803SOL    HW294242  12.781   0.601   1.828
30804SOL     OW94243   6.052  11.950  14.423
30804SOL    HW194244   6.058  11.856  14.441
30804SOL    HW294245   6.078  11.992  14.506
30805SOL     OW94246   5.186   6.448   9.020
30805SOL    HW194247   5.092   6.466   9.023
30805SOL    HW294248   5.195   6.362   9.061
30806SOL     OW94249   5.423   1.360   7.475
30806SOL    HW194250   5.354   1.356   7.541
30806SOL    HW294251   5.391   1.306   7.403
30807SOL     OW94252   1.035   0.888  13.497
30807SOL    HW194253   0.997   0.972  13.473
30807SOL    HW294254   1.074   0.855  13.416
30808SOL     OW94255  12.810  10.215   4.968
30808SOL    HW194256  12.804  10.246   4.878
30808SOL    HW294257  12.812  10.294   5.021
30809SOL     OW94258   9.504  11.484  14.680
30809SOL    HW194259   9.416  11.451  14.658
30809SOL    HW294260   9.562  11.409  14.663
30810SOL     OW94261   6.052   1.978   4.132
30810SOL    HW194262   6.133   2.017   4.165
30810SOL    HW294263   6.005   2.051   4.092
30811SOL     OW94264   4.234  12.049  11.492
30811SOL    HW194265   4.155  12.003  11.519
30811SOL    HW294266   4.254  12.014  11.405
30812SOL     OW94267   4.815   1.692   5.053
30812SOL    HW194268   4.820   1.782   5.087
30812SOL    HW294269   4.737   1.692   4.998
30813SOL     OW94270   8.648   8.401  13.790
30813SOL    HW194271   8.624   8.343  13.717
30813SOL    HW294272   8.568   8.408  13.841
30814SOL     OW94273   7.944   0.411  11.023
30814SOL    HW194274   8.037   0.432  11.031
30814SOL    HW294275   7.931   0.339  11.083
30815SOL     OW94276   0.524   4.077   9.353
30815SOL    HW194277   0.470   4.136   9.300
30815SOL    HW294278   0.569   4.022   9.290
30816SOL     OW94279   8.795  13.187   2.223
30816SOL    HW194280   8.761  13.230   2.144
30816SOL    HW294281   8.732  13.117   2.241
30817SOL     OW94282   6.563  11.016  12.139
30817SOL    HW194283   6.621  11.082  12.101
30817SOL    HW294284   6.478  11.061  12.146
30818SOL     OW94285   3.000   1.084  10.862
30818SOL    HW194286   3.047   1.009  10.827
30818SOL    HW294287   3.068   1.141  10.897
30819SOL     OW94288   9.251  14.044   1.918
30819SOL    HW194289   9.264  14.016   1.827
30819SOL    HW294290   9.322  14.001   1.966
30820SOL     OW94291   1.282   7.722  12.731
30820SOL    HW194292   1.316   7.684  12.650
30820SOL    HW294293   1.230   7.651  12.771
30821SOL     OW94294   0.694  11.071   7.245
30821SOL    HW194295   0.756  11.033   7.307
30821SOL    HW294296   0.633  11.121   7.298
30822SOL     OW94297   0.241   9.376   1.317
30822SOL    HW194298   0.291   9.421   1.248
30822SOL    HW294299   0.175   9.439   1.344
30823SOL     OW94300  12.415   1.603   9.275
30823SOL    HW194301  12.416   1.561   9.361
30823SOL    HW294302  12.442   1.534   9.214
30824SOL     OW94303  14.167   0.556  13.354
30824SOL    HW194304  14.244   0.573  13.299
30824SOL    HW294305  14.195   0.582  13.442
30825SOL     OW94306  10.227   7.128   0.294
30825SOL    HW194307  10.274   7.124   0.211
30825SOL    HW294308  10.161   7.060   0.288
30826SOL     OW94309   1.062   7.247   0.414
30826SOL    HW194310   1.078   7.295   0.332
30826SOL    HW294311   0.978   7.279   0.445
30827SOL     OW94312   6.204   0.076   8.604
30827SOL    HW194313   6.249   0.086   8.519
30827SOL    HW294314   6.234  14.864   8.637
30828SOL     OW94315  13.073   6.678   4.738
30828SOL    HW194316  13.105   6.599   4.696
30828SOL    HW294317  13.065   6.655   4.831
30829SOL     OW94318   0.161   2.728   0.553
30829SOL    HW194319   0.156   2.820   0.527
30829SOL    HW294320   0.255   2.708   0.554
30830SOL     OW94321  12.660   2.296   4.239
30830SOL    HW194322  12.633   2.387   4.239
30830SOL    HW294323  12.587   2.249   4.198
30831SOL     OW94324  10.666   6.359  12.519
30831SOL    HW194325  10.713   6.407  12.451
30831SOL    HW294326  10.699   6.269  12.512
30832SOL     OW94327   8.776   6.292  13.705
30832SOL    HW194328   8.828   6.359  13.659
30832SOL    HW294329   8.803   6.209  13.665
30833SOL     OW94330   5.776   4.361   5.368
30833SOL    HW194331   5.732   4.277   5.360
30833SOL    HW294332   5.869   4.341   5.356
30834SOL     OW94333   9.725  11.688   6.269
30834SOL    HW194334   9.729  11.777   6.235
30834SOL    HW294335   9.759  11.694   6.358
30835SOL     OW94336   9.082  13.805  13.730
30835SOL    HW194337   9.083  13.874  13.663
30835SOL    HW294338   9.063  13.725  13.681
30836SOL     OW94339  11.879   2.044  14.441
30836SOL    HW194340  11.966   2.082  14.424
30836SOL    HW294341  11.897   1.962  14.487
30837SOL     OW94342  12.402   0.861   9.225
30837SOL    HW194343  12.467   0.815   9.172
30837SOL    HW294344  12.454   0.906   9.292
30838SOL     OW94345   4.686   5.094  12.104
30838SOL    HW194346   4.648   5.098  12.192
30838SOL    HW294347   4.757   5.031  12.111
30839SOL     OW94348  12.091  12.749   4.707
30839SOL    HW194349  11.999  12.747   4.733
30839SOL    HW294350  12.091  12.799   4.625
30840SOL     OW94351  12.919   9.421   3.852
30840SOL    HW194352  12.952   9.506   3.879
30840SOL    HW294353  12.933   9.364   3.928
30841SOL     OW94354   9.863  12.657   7.765
30841SOL    HW194355   9.919  12.618   7.832
30841SOL    HW294356   9.854  12.588   7.698
30842SOL     OW94357   4.077   8.156   9.361
30842SOL    HW194358   4.073   8.085   9.297
30842SOL    HW294359   4.071   8.112   9.446
30843SOL     OW94360   4.836   3.661   0.191
30843SOL    HW194361   4.811   3.578   0.151
30843SOL    HW294362   4.894   3.636   0.263
30844SOL     OW94363  11.872  13.254  11.027
30844SOL    HW194364  11.877  13.295  11.113
30844SOL    HW294365  11.864  13.161  11.045
30845SOL     OW94366   4.632   8.926   3.681
30845SOL    HW194367   4.575   8.959   3.751
30845SOL    HW294368   4.573   8.915   3.606
30846SOL     OW94369   6.251   6.307   2.371
30846SOL    HW194370   6.202   6.325   2.451
30846SOL    HW294371   6.287   6.393   2.346
30847SOL     OW94372  13.494  11.976  10.700
30847SOL    HW194373  13.425  11.916  10.730
30847SOL    HW294374  13.570  11.919  10.687
30848SOL     OW94375   6.658   8.674   9.313
30848SOL    HW194376   6.663   8.698   9.405
30848SOL    HW294377   6.565   8.656   9.298
30849SOL     OW94378   4.735   8.598  12.718
30849SOL    HW194379   4.735   8.672  12.657
30849SOL    HW294380   4.688   8.529  12.672
30850SOL     OW94381  13.871  14.187  11.777
30850SOL    HW194382  13.927  14.115  11.808
30850SOL    HW294383  13.818  14.209  11.854
30851SOL     OW94384  14.660   6.777  13.971
30851SOL    HW194385  14.654   6.734  14.056
30851SOL    HW294386  14.570   6.775  13.937
30852SOL     OW94387   6.209   0.834  11.974
30852SOL    HW194388   6.118   0.821  11.948
30852SOL    HW294389   6.224   0.928  11.965
30853SOL     OW94390  13.718  14.632  13.020
30853SOL    HW194391  13.730  14.579  13.098
30853SOL    HW294392  13.773  14.589  12.954
30854SOL     OW94393   8.438   8.002   8.978
30854SOL    HW194394   8.455   8.012   9.071
30854SOL    HW294395   8.423   8.091   8.946
30855SOL     OW94396   3.969   4.391   6.663
30855SOL    HW194397   3.962   4.472   6.613
30855SOL    HW294398   4.063   4.376   6.671
30856SOL     OW94399   9.930   9.111   7.965
30856SOL    HW194400   9.943   9.073   7.878
30856SOL    HW294401   9.957   9.202   7.956
30857SOL     OW94402   9.699   8.194  11.769
30857SOL    HW194403   9.610   8.162  11.781
30857SOL    HW294404   9.741   8.178  11.854
30858SOL     OW94405   7.769   7.045   6.398
30858SOL    HW194406   7.746   7.136   6.380
30858SOL    HW294407   7.863   7.041   6.384
30859SOL     OW94408   2.674   5.543   2.946
30859SOL    HW194409   2.736   5.612   2.923
30859SOL    HW294410   2.709   5.504   3.025
30860SOL     OW94411   2.714  11.917   9.670
30860SOL    HW194412   2.746  12.003   9.697
30860SOL    HW294413   2.680  11.930   9.582
30861SOL     OW94414   5.477   8.782   4.744
30861SOL    HW194415   5.568   8.800   4.768
30861SOL    HW294416   5.484   8.738   4.659
30862SOL     OW94417   7.601   6.733   0.038
30862SOL    HW194418   7.604   6.646   0.075
30862SOL    HW294419   7.522   6.734  14.856
30863SOL     OW94420  12.867   0.687   4.908
30863SOL    HW194421  12.778   0.661   4.934
30863SOL    HW294422  12.906   0.607   4.874
30864SOL     OW94423   9.010   2.259   5.053
30864SOL    HW194424   9.047   2.287   4.969
30864SOL    HW294425   9.073   2.290   5.118
30865SOL     OW94426  11.378  14.776   9.352
30865SOL    HW194427  11.458  14.734   9.384
30865SOL    HW294428  11.326  14.704   9.315
30866SOL     OW94429   1.143   6.818  13.817
30866SOL    HW194430   1.050   6.828  13.837
30866SOL    HW294431   1.185   6.809  13.902
30867SOL     OW94432   4.313   7.989  13.002
30867SOL    HW194433   4.306   7.894  12.991
30867SOL    HW294434   4.338   8.001  13.094
30868SOL     OW94435  13.079   0.702  11.848
30868SOL    HW194436  13.056   0.793  11.868
30868SOL    HW294437  13.163   0.688  11.891
30869SOL     OW94438  11.100  12.528   6.478
30869SOL    HW194439  11.112  12.444   6.433
30869SOL    HW294440  11.109  12.507   6.571
30870SOL     OW94441  13.762   0.377   9.355
30870SOL    HW194442  13.776   0.298   9.302
30870SOL    HW294443  13.697   0.350   9.420
30871SOL     OW94444   5.559   1.997   7.398
30871SOL    HW194445   5.618   2.072   7.385
30871SOL    HW294446   5.558   1.953   7.313
30872SOL     OW94447  12.414   2.053   5.546
30872SOL    HW194448  12.478   2.099   5.601
30872SOL    HW294449  12.430   1.961   5.563
30873SOL     OW94450   0.561   0.708   6.075
30873SOL    HW194451   0.532   0.743   6.160
30873SOL    HW294452   0.642   0.756   6.056
30874SOL     OW94453   9.080   3.643   7.086
30874SOL    HW194454   9.088   3.707   7.156
30874SOL    HW294455   9.093   3.558   7.129
30875SOL     OW94456  12.986  13.884   7.807
30875SOL    HW194457  12.982  13.789   7.801
30875SOL    HW294458  12.895  13.912   7.796
30876SOL     OW94459  10.945   0.382   5.311
30876SOL    HW194460  10.970   0.289   5.314
30876SOL    HW294461  10.860   0.382   5.267
30877SOL     OW94462   6.706   7.832  13.476
30877SOL    HW194463   6.676   7.860  13.390
30877SOL    HW294464   6.771   7.897  13.501
30878SOL     OW94465   5.761   5.916   4.124
30878SOL    HW194466   5.854   5.935   4.112
30878SOL    HW294467   5.719   5.956   4.049
30879SOL     OW94468  14.017   2.290   9.006
30879SOL    HW194469  14.003   2.215   8.948
30879SOL    HW294470  13.979   2.364   8.958
30880SOL     OW94471  12.226   8.882  13.100
30880SOL    HW194472  12.154   8.855  13.043
30880SOL    HW294473  12.203   8.971  13.127
30881SOL     OW94474   8.142  11.113   6.339
30881SOL    HW194475   8.064  11.093   6.391
30881SOL    HW294476   8.165  11.203   6.364
30882SOL     OW94477  12.556   4.842   5.418
30882SOL    HW194478  12.576   4.925   5.461
30882SOL    HW294479  12.526   4.866   5.330
30883SOL     OW94480   7.315   1.354   1.493
30883SOL    HW194481   7.386   1.403   1.533
30883SOL    HW294482   7.236   1.404   1.516
30884SOL     OW94483   8.479   9.125   6.537
30884SOL    HW194484   8.388   9.102   6.518
30884SOL    HW294485   8.522   9.041   6.556
30885SOL     OW94486  14.736  12.898   3.441
30885SOL    HW194487  14.805  12.929   3.382
30885SOL    HW294488  14.755  12.805   3.454
30886SOL     OW94489  10.716   7.248   8.336
30886SOL    HW194490  10.726   7.249   8.241
30886SOL    HW294491  10.676   7.333   8.356
30887SOL     OW94492   0.473   5.081   5.930
30887SOL    HW194493   0.530   5.057   6.003
30887SOL    HW294494   0.408   5.010   5.926
30888SOL     OW94495   4.837  14.514   8.514
30888SOL    HW194496   4.750  14.512   8.475
30888SOL    HW294497   4.889  14.565   8.452
30889SOL     OW94498   1.778   8.266   9.245
30889SOL    HW194499   1.697   8.317   9.249
30889SOL    HW294500   1.750   8.175   9.259
30890SOL     OW94501   1.245   3.173   3.611
30890SOL    HW194502   1.232   3.141   3.700
30890SOL    HW294503   1.324   3.127   3.581
30891SOL     OW94504  12.216   5.842  10.207
30891SOL    HW194505  12.289   5.903  10.200
30891SOL    HW294506  12.166   5.873  10.282
30892SOL     OW94507   6.344   1.737   9.301
30892SOL    HW194508   6.351   1.653   9.347
30892SOL    HW294509   6.433   1.756   9.272
30893SOL     OW94510   7.104   0.146   6.852
30893SOL    HW194511   7.131   0.091   6.926
30893SOL    HW294512   7.172   0.132   6.786
30894SOL     OW94513   3.916  10.508   7.953
30894SOL    HW194514   3.980  10.476   7.890
30894SOL    HW294515   3.964  10.570   8.007
30895SOL     OW94516  13.737  10.135   3.521
30895SOL    HW194517  13.707  10.208   3.466
30895SOL    HW294518  13.665  10.072   3.519
30896SOL     OW94519   3.809  14.305   3.658
30896SOL    HW194520   3.875  14.374   3.665
30896SOL    HW294521   3.740  14.331   3.719
30897SOL     OW94522  13.960  13.522   9.843
30897SOL    HW194523  14.016  13.445   9.832
30897SOL    HW294524  13.930  13.542   9.754
30898SOL     OW94525  10.168   5.428   0.564
30898SOL    HW194526  10.170   5.444   0.659
30898SOL    HW294527  10.248   5.468   0.531
30899SOL     OW94528  12.864   7.075  13.379
30899SOL    HW194529  12.831   7.164  13.373
30899SOL    HW294530  12.796   7.026  13.424
30900SOL     OW94531  10.713   7.230   5.230
30900SOL    HW194532  10.690   7.197   5.317
30900SOL    HW294533  10.660   7.310   5.220
30901SOL     OW94534   0.381   2.492   3.763
30901SOL    HW194535   0.457   2.521   3.713
30901SOL    HW294536   0.412   2.418   3.815
30902SOL     OW94537   7.640   7.024   6.132
30902SOL    HW194538   7.588   6.944   6.117
30902SOL    HW294539   7.686   7.008   6.214
30903SOL     OW94540   1.933   8.009  13.267
30903SOL    HW194541   1.975   7.992  13.183
30903SOL    HW294542   1.981   7.953  13.329
30904SOL     OW94543   6.606  13.648   9.772
30904SOL    HW194544   6.611  13.705   9.695
30904SOL    HW294545   6.583  13.707   9.844
30905SOL     OW94546   9.362  11.730  14.595
30905SOL    HW194547   9.401  11.795  14.654
30905SOL    HW294548   9.390  11.646  14.630
30906SOL     OW94549  13.769   2.501   0.802
30906SOL    HW194550  13.737   2.447   0.730
30906SOL    HW294551  13.863   2.511   0.785
30907SOL     OW94552   2.464  10.691   4.056
30907SOL    HW194553   2.553  10.689   4.089
30907SOL    HW294554   2.472  10.674   3.962
30908SOL     OW94555   1.776  13.437  12.419
30908SOL    HW194556   1.844  13.505  12.415
30908SOL    HW294557   1.719  13.464  12.491
30909SOL     OW94558  13.461  12.947   4.693
30909SOL    HW194559  13.407  12.905   4.626
30909SOL    HW294560  13.399  12.984   4.755
30910SOL     OW94561   9.655   1.705   7.897
30910SOL    HW194562   9.739   1.732   7.858
30910SOL    HW294563   9.600   1.784   7.891
30911SOL     OW94564   6.104  10.192  11.086
30911SOL    HW194565   6.142  10.139  11.156
30911SOL    HW294566   6.178  10.212  11.028
30912SOL     OW94567   8.425   1.481  14.796
30912SOL    HW194568   8.376   1.464  14.716
30912SOL    HW294569   8.360   1.477  14.866
30913SOL     OW94570   5.439   4.883   3.103
30913SOL    HW194571   5.529   4.900   3.129
30913SOL    HW294572   5.425   4.941   3.028
30914SOL     OW94573   4.699  10.917  13.348
30914SOL    HW194574   4.782  10.893  13.306
30914SOL    HW294575   4.708  11.010  13.368
30915SOL     OW94576  12.596   2.350   7.787
30915SOL    HW194577  12.569   2.442   7.795
30915SOL    HW294578  12.692   2.353   7.792
30916SOL     OW94579   7.090   5.231   5.559
30916SOL    HW194580   7.160   5.289   5.528
30916SOL    HW294581   7.039   5.285   5.619
30917SOL     OW94582   5.868   5.727  10.828
30917SOL    HW194583   5.800   5.707  10.764
30917SOL    HW294584   5.824   5.777  10.896
30918SOL     OW94585  12.849   2.200  12.461
30918SOL    HW194586  12.800   2.215  12.542
30918SOL    HW294587  12.807   2.258  12.397
30919SOL     OW94588   9.883   8.179   1.653
30919SOL    HW194589   9.845   8.161   1.739
30919SOL    HW294590   9.848   8.265   1.629
30920SOL     OW94591  12.932   3.504   7.046
30920SOL    HW194592  13.025   3.518   7.030
30920SOL    HW294593  12.915   3.415   7.015
30921SOL     OW94594   2.290   9.876  11.175
30921SOL    HW194595   2.205   9.843  11.204
30921SOL    HW294596   2.303   9.957  11.224
30922SOL     OW94597  13.475   6.403   8.870
30922SOL    HW194598  13.533   6.456   8.923
30922SOL    HW294599  13.390   6.448   8.875
30923SOL     OW94600   0.065  14.134   3.160
30923SOL    HW194601   0.112  14.099   3.236
30923SOL    HW294602   0.081  14.228   3.163
30924SOL     OW94603   1.664  13.797  12.343
30924SOL    HW194604   1.619  13.744  12.410
30924SOL    HW294605   1.740  13.744  12.319
30925SOL     OW94606   4.320   1.771   3.683
30925SOL    HW194607   4.283   1.788   3.770
30925SOL    HW294608   4.262   1.816   3.623
30926SOL     OW94609  11.850   9.552   4.440
30926SOL    HW194610  11.896   9.636   4.436
30926SOL    HW294611  11.845   9.532   4.533
30927SOL     OW94612   1.799   1.582   0.369
30927SOL    HW194613   1.871   1.524   0.342
30927SOL    HW294614   1.720   1.537   0.340
30928SOL     OW94615   9.970  10.320  11.028
30928SOL    HW194616  10.009  10.312  10.940
30928SOL    HW294617  10.045  10.328  11.087
30929SOL     OW94618  13.610  14.810  10.106
30929SOL    HW194619  13.651  14.775  10.026
30929SOL    HW294620  13.684  14.828  10.165
30930SOL     OW94621  14.527   2.526   4.242
30930SOL    HW194622  14.524   2.602   4.300
30930SOL    HW294623  14.618   2.497   4.245
30931SOL     OW94624   9.569   0.269  10.845
30931SOL    HW194625   9.576   0.223  10.762
30931SOL    HW294626   9.481   0.306  10.845
30932SOL     OW94627   7.669   5.204   9.896
30932SOL    HW194628   7.736   5.167   9.838
30932SOL    HW294629   7.694   5.175   9.984
30933SOL     OW94630  12.376   3.599  11.192
30933SOL    HW194631  12.408   3.540  11.261
30933SOL    HW294632  12.436   3.586  11.119
30934SOL     OW94633   4.640   6.584   7.323
30934SOL    HW194634   4.622   6.491   7.310
30934SOL    HW294635   4.687   6.588   7.407
30935SOL     OW94636   4.686   2.140  11.907
30935SOL    HW194637   4.610   2.138  11.850
30935SOL    HW294638   4.654   2.105  11.990
30936SOL     OW94639   3.071   9.479  12.403
30936SOL    HW194640   3.027   9.540  12.344
30936SOL    HW294641   3.109   9.534  12.471
30937SOL     OW94642   0.945   3.228  14.866
30937SOL    HW194643   0.876   3.242  14.801
30937SOL    HW294644   0.899   3.198   0.072
30938SOL     OW94645   5.422   2.531   5.389
30938SOL    HW194646   5.502   2.578   5.364
30938SOL    HW294647   5.363   2.598   5.422
30939SOL     OW94648   3.775  12.717   7.570
30939SOL    HW194649   3.756  12.644   7.511
30939SOL    HW294650   3.850  12.686   7.622
30940SOL     OW94651   1.757  12.243  10.436
30940SOL    HW194652   1.721  12.182  10.372
30940SOL    HW294653   1.761  12.327  10.390
30941SOL     OW94654   7.325   1.186   8.910
30941SOL    HW194655   7.278   1.191   8.827
30941SOL    HW294656   7.376   1.105   8.904
30942SOL     OW94657   8.687   9.203  12.818
30942SOL    HW194658   8.732   9.252  12.748
30942SOL    HW294659   8.731   9.118  12.818
30943SOL     OW94660   3.535   2.265   3.428
30943SOL    HW194661   3.601   2.227   3.486
30943SOL    HW294662   3.553   2.224   3.343
30944SOL     OW94663   9.114   5.014   3.700
30944SOL    HW194664   9.104   5.102   3.665
30944SOL    HW294665   9.207   5.007   3.722
30945SOL     OW94666   8.527   5.070   7.854
30945SOL    HW194667   8.554   5.162   7.857
30945SOL    HW294668   8.516   5.045   7.946
30946SOL     OW94669   4.550   1.804   2.562
30946SOL    HW194670   4.482   1.816   2.496
30946SOL    HW294671   4.585   1.892   2.577
30947SOL     OW94672   0.933   1.303   2.357
30947SOL    HW194673   0.918   1.397   2.368
30947SOL    HW294674   0.871   1.277   2.289
30948SOL     OW94675   7.837   1.459   0.621
30948SOL    HW194676   7.831   1.446   0.526
30948SOL    HW294677   7.882   1.381   0.653
30949SOL     OW94678  12.027   5.160   2.137
30949SOL    HW194679  11.975   5.145   2.058
30949SOL    HW294680  12.112   5.119   2.118
30950SOL     OW94681   2.356   4.315  10.433
30950SOL    HW194682   2.326   4.243  10.377
30950SOL    HW294683   2.308   4.392  10.403
30951SOL     OW94684  13.147   2.191   5.979
30951SOL    HW194685  13.180   2.256   5.917
30951SOL    HW294686  13.218   2.129   5.990
30952SOL     OW94687   0.965   4.296   0.010
30952SOL    HW194688   1.012   4.254   0.082
30952SOL    HW294689   1.020   4.281  14.806
30953SOL     OW94690  13.933  10.228  14.019
30953SOL    HW194691  13.894  10.305  13.976
30953SOL    HW294692  14.025  10.252  14.031
30954SOL     OW94693   6.711  10.551   3.687
30954SOL    HW194694   6.617  10.533   3.683
30954SOL    HW294695   6.719  10.643   3.664
30955SOL     OW94696  11.692  10.769   3.732
30955SOL    HW194697  11.779  10.811   3.737
30955SOL    HW294698  11.631  10.842   3.720
30956SOL     OW94699   7.167   0.412   9.848
30956SOL    HW194700   7.096   0.363   9.888
30956SOL    HW294701   7.178   0.489   9.903
30957SOL     OW94702  12.964   4.611   4.312
30957SOL    HW194703  13.025   4.684   4.308
30957SOL    HW294704  12.937   4.597   4.222
30958SOL     OW94705   2.555  10.143  11.471
30958SOL    HW194706   2.638  10.107  11.501
30958SOL    HW294707   2.501  10.066  11.450
30959SOL     OW94708   1.109   7.859   1.907
30959SOL    HW194709   1.079   7.774   1.874
30959SOL    HW294710   1.048   7.880   1.978
30960SOL     OW94711  11.832   6.916   0.800
30960SOL    HW194712  11.836   7.001   0.758
30960SOL    HW294713  11.782   6.931   0.881
30961SOL     OW94714  10.882   4.601   1.280
30961SOL    HW194715  10.947   4.555   1.228
30961SOL    HW294716  10.897   4.571   1.369
30962SOL     OW94717   4.706   5.664  10.827
30962SOL    HW194718   4.741   5.753  10.833
30962SOL    HW294719   4.702   5.645  10.734
30963SOL     OW94720   3.651   2.476   1.375
30963SOL    HW194721   3.725   2.440   1.424
30963SOL    HW294722   3.671   2.456   1.284
30964SOL     OW94723   2.309   8.211  10.174
30964SOL    HW194724   2.398   8.237  10.154
30964SOL    HW294725   2.310   8.115  10.174
30965SOL     OW94726  13.097  14.266   7.782
30965SOL    HW194727  13.158  14.340   7.788
30965SOL    HW294728  13.152  14.192   7.757
30966SOL     OW94729   9.322   3.208   6.882
30966SOL    HW194730   9.231   3.182   6.873
30966SOL    HW294731   9.346   3.243   6.796
30967SOL     OW94732   6.857  10.765  11.326
30967SOL    HW194733   6.939  10.724  11.354
30967SOL    HW294734   6.791  10.697  11.334
30968SOL     OW94735   9.857   3.893   1.576
30968SOL    HW194736   9.857   3.831   1.649
30968SOL    HW294737   9.907   3.849   1.507
30969SOL     OW94738  14.655  10.775  11.328
30969SOL    HW194739  14.631  10.693  11.371
30969SOL    HW294740  14.744  10.761  11.297
30970SOL     OW94741   8.906   0.425   0.336
30970SOL    HW194742   8.995   0.398   0.312
30970SOL    HW294743   8.901   0.517   0.312
30971SOL     OW94744   7.299   5.550   4.662
30971SOL    HW194745   7.372   5.598   4.702
30971SOL    HW294746   7.337   5.466   4.636
30972SOL     OW94747   0.155  11.540  12.891
30972SOL    HW194748   0.204  11.505  12.965
30972SOL    HW294749   0.097  11.606  12.930
30973SOL     OW94750   0.815  10.252   7.302
30973SOL    HW194751   0.906  10.279   7.288
30973SOL    HW294752   0.771  10.271   7.219
30974SOL     OW94753   6.772   7.703  13.139
30974SOL    HW194754   6.863   7.685  13.113
30974SOL    HW294755   6.781   7.765  13.211
30975SOL     OW94756   3.605   4.746   9.586
30975SOL    HW194757   3.531   4.701   9.626
30975SOL    HW294758   3.569   4.786   9.507
30976SOL     OW94759  11.277  10.844   4.277
30976SOL    HW194760  11.211  10.798   4.329
30976SOL    HW294761  11.300  10.783   4.207
30977SOL     OW94762   8.789  11.546  14.102
30977SOL    HW194763   8.865  11.516  14.052
30977SOL    HW294764   8.728  11.472  14.099
30978SOL     OW94765   9.279   7.056   5.221
30978SOL    HW194766   9.368   7.024   5.204
30978SOL    HW294767   9.289   7.151   5.226
30979SOL     OW94768  11.390   7.847  13.354
30979SOL    HW194769  11.450   7.863  13.282
30979SOL    HW294770  11.427   7.896  13.427
30980SOL     OW94771   1.465   8.734   6.535
30980SOL    HW194772   1.478   8.761   6.445
30980SOL    HW294773   1.392   8.787   6.567
30981SOL     OW94774  13.923   6.270   0.286
30981SOL    HW194775  13.845   6.215   0.298
30981SOL    HW294776  13.986   6.238   0.351
30982SOL     OW94777   8.065  10.908  14.385
30982SOL    HW194778   8.031  10.997  14.396
30982SOL    HW294779   8.118  10.894  14.464
30983SOL     OW94780   0.338   5.201  12.151
30983SOL    HW194781   0.367   5.293  12.147
30983SOL    HW294782   0.399   5.155  12.094
30984SOL     OW94783   7.566  14.861   6.265
30984SOL    HW194784   7.485   0.016   6.223
30984SOL    HW294785   7.588  14.777   6.223
30985SOL     OW94786   5.533  12.584   1.098
30985SOL    HW194787   5.459  12.538   1.137
30985SOL    HW294788   5.594  12.515   1.073
30986SOL     OW94789   7.012   4.563  12.673
30986SOL    HW194790   7.021   4.602  12.759
30986SOL    HW294791   7.038   4.471  12.685
30987SOL     OW94792   8.094   3.704   9.050
30987SOL    HW194793   8.121   3.688   8.960
30987SOL    HW294794   8.013   3.654   9.059
30988SOL     OW94795   4.735   4.194   8.033
30988SOL    HW194796   4.658   4.153   8.073
30988SOL    HW294797   4.809   4.145   8.069
30989SOL     OW94798   1.421   3.522   8.610
30989SOL    HW194799   1.497   3.493   8.561
30989SOL    HW294800   1.364   3.563   8.545
30990SOL     OW94801  12.283   8.218  11.406
30990SOL    HW194802  12.220   8.288  11.426
30990SOL    HW294803  12.355   8.263  11.361
30991SOL     OW94804   4.623  11.354  12.233
30991SOL    HW194805   4.646  11.376  12.323
30991SOL    HW294806   4.664  11.269  12.217
30992SOL     OW94807  13.045  10.726   5.327
30992SOL    HW194808  13.054  10.726   5.232
30992SOL    HW294809  13.130  10.755   5.360
30993SOL     OW94810  11.356   0.160   5.247
30993SOL    HW194811  11.289   0.178   5.313
30993SOL    HW294812  11.436   0.144   5.298
30994SOL     OW94813  13.770   8.531  11.756
30994SOL    HW194814  13.751   8.445  11.718
30994SOL    HW294815  13.794   8.512  11.847
30995SOL     OW94816  12.953   9.542   4.388
30995SOL    HW194817  12.983   9.466   4.439
30995SOL    HW294818  13.008   9.614   4.418
30996SOL     OW94819   0.904   6.440   4.653
30996SOL    HW194820   0.885   6.369   4.592
30996SOL    HW294821   0.845   6.425   4.727
30997SOL     OW94822   1.255   8.445  11.938
30997SOL    HW194823   1.205   8.477  12.014
30997SOL    HW294824   1.315   8.516  11.918
30998SOL     OW94825  11.713   5.288   7.788
30998SOL    HW194826  11.619   5.274   7.799
30998SOL    HW294827  11.727   5.284   7.693
30999SOL     OW94828   1.618  14.719   7.967
30999SOL    HW194829   1.537  14.739   7.921
30999SOL    HW294830   1.600  14.638   8.014
31000SOL     OW94831   9.567   4.364   4.814
31000SOL    HW194832   9.475   4.367   4.788
31000SOL    HW294833   9.613   4.334   4.735
31001SOL     OW94834   5.377  12.477  14.577
31001SOL    HW194835   5.334  12.454  14.494
31001SOL    HW294836   5.418  12.396  14.605
31002SOL     OW94837   5.277  10.948   3.279
31002SOL    HW194838   5.254  10.922   3.369
31002SOL    HW294839   5.335  10.878   3.248
31003SOL     OW94840   1.066  12.156   6.384
31003SOL    HW194841   1.015  12.079   6.361
31003SOL    HW294842   1.005  12.213   6.431
31004SOL     OW94843  11.358  12.449  12.857
31004SOL    HW194844  11.383  12.360  12.832
31004SOL    HW294845  11.435  12.482  12.904
31005SOL     OW94846   9.876  11.872   4.373
31005SOL    HW194847   9.839  11.959   4.359
31005SOL    HW294848   9.965  11.878   4.337
31006SOL     OW94849  13.804   8.786   1.817
31006SOL    HW194850  13.736   8.719   1.808
31006SOL    HW294851  13.831   8.805   1.727
31007SOL     OW94852   0.183  12.729   0.403
31007SOL    HW194853   0.126  12.675   0.458
31007SOL    HW294854   0.225  12.668   0.343
31008SOL     OW94855  12.000   2.441   4.757
31008SOL    HW194856  12.080   2.427   4.706
31008SOL    HW294857  12.006   2.532   4.786
31009SOL     OW94858   4.101   3.752   1.054
31009SOL    HW194859   4.017   3.715   1.083
31009SOL    HW294860   4.129   3.695   0.982
31010SOL     OW94861   8.770   9.711  11.838
31010SOL    HW194862   8.779   9.655  11.915
31010SOL    HW294863   8.680   9.745  11.844
31011SOL     OW94864   6.436   3.313   4.084
31011SOL    HW194865   6.480   3.238   4.125
31011SOL    HW294866   6.366   3.274   4.032
31012SOL     OW94867   2.271   3.263   0.837
31012SOL    HW194868   2.320   3.231   0.762
31012SOL    HW294869   2.182   3.276   0.805
31013SOL     OW94870   1.950   2.081   9.501
31013SOL    HW194871   1.862   2.082   9.462
31013SOL    HW294872   2.004   2.035   9.437
31014SOL     OW94873  13.004   2.904   9.661
31014SOL    HW194874  12.957   2.881   9.741
31014SOL    HW294875  12.941   2.886   9.591
31015SOL     OW94876  14.257   1.456  13.089
31015SOL    HW194877  14.194   1.497  13.029
31015SOL    HW294878  14.275   1.523  13.154
31016SOL     OW94879   0.330  14.472   7.224
31016SOL    HW194880   0.356  14.430   7.306
31016SOL    HW294881   0.319  14.400   7.162
31017SOL     OW94882   9.384  14.826   2.100
31017SOL    HW194883   9.333  14.795   2.174
31017SOL    HW294884   9.443  14.754   2.079
31018SOL     OW94885  11.017   5.705   4.092
31018SOL    HW194886  10.970   5.626   4.118
31018SOL    HW294887  11.031   5.695   3.998
31019SOL     OW94888  11.766  12.065   9.514
31019SOL    HW194889  11.719  12.027   9.588
31019SOL    HW294890  11.843  12.106   9.552
31020SOL     OW94891  13.115  11.743   5.854
31020SOL    HW194892  13.082  11.756   5.765
31020SOL    HW294893  13.210  11.750   5.847
31021SOL     OW94894  12.029   1.671   1.913
31021SOL    HW194895  12.074   1.654   1.831
31021SOL    HW294896  12.073   1.748   1.950
31022SOL     OW94897   3.684  12.323   4.038
31022SOL    HW194898   3.670  12.253   4.102
31022SOL    HW294899   3.595  12.351   4.014
31023SOL     OW94900  12.095  12.717   9.203
31023SOL    HW194901  12.064  12.629   9.227
31023SOL    HW294902  12.132  12.752   9.284
31024SOL     OW94903   2.137   2.260   6.257
31024SOL    HW194904   2.216   2.219   6.291
31024SOL    HW294905   2.154   2.354   6.266
31025SOL     OW94906   7.320   5.361   4.253
31025SOL    HW194907   7.402   5.313   4.265
31025SOL    HW294908   7.256   5.293   4.232
31026SOL     OW94909  13.638   5.818  13.199
31026SOL    HW194910  13.642   5.725  13.220
31026SOL    HW294911  13.568   5.852  13.254
31027SOL     OW94912   3.131   5.656  10.846
31027SOL    HW194913   3.123   5.594  10.773
31027SOL    HW294914   3.184   5.609  10.911
31028SOL     OW94915  13.480   5.863  13.388
31028SOL    HW194916  13.411   5.796  13.383
31028SOL    HW294917  13.451   5.921  13.459
31029SOL     OW94918   2.202   7.855   8.689
31029SOL    HW194919   2.107   7.870   8.697
31029SOL    HW294920   2.221   7.788   8.755
31030SOL     OW94921   6.355   4.223  11.711
31030SOL    HW194922   6.312   4.256  11.632
31030SOL    HW294923   6.427   4.284  11.726
31031SOL     OW94924   9.581  13.022   7.620
31031SOL    HW194925   9.575  13.006   7.714
31031SOL    HW294926   9.599  12.936   7.582
31032SOL     OW94927   9.171  14.478   3.700
31032SOL    HW194928   9.186  14.572   3.691
31032SOL    HW294929   9.145  14.465   3.791
31033SOL     OW94930   4.013   0.880   1.721
31033SOL    HW194931   4.076   0.809   1.731
31033SOL    HW294932   3.963   0.857   1.643
31034SOL     OW94933   0.181  14.280  13.565
31034SOL    HW194934   0.267  14.242  13.545
31034SOL    HW294935   0.141  14.217  13.625
31035SOL     OW94936  13.589  14.088   2.507
31035SOL    HW194937  13.561  14.100   2.597
31035SOL    HW294938  13.666  14.144   2.498
31036SOL     OW94939  12.441   4.818   1.488
31036SOL    HW194940  12.434   4.913   1.480
31036SOL    HW294941  12.526   4.803   1.530
31037SOL     OW94942   6.794   7.290   5.048
31037SOL    HW194943   6.780   7.196   5.054
31037SOL    HW294944   6.713   7.329   5.081
31038SOL     OW94945   2.121  13.107   2.091
31038SOL    HW194946   2.101  13.180   2.032
31038SOL    HW294947   2.113  13.143   2.179
31039SOL     OW94948   2.148   7.351  14.577
31039SOL    HW194949   2.152   7.383  14.667
31039SOL    HW294950   2.054   7.340  14.560
31040SOL     OW94951  13.775   0.516  13.014
31040SOL    HW194952  13.705   0.451  13.007
31040SOL    HW294953  13.844   0.472  13.063
31041SOL     OW94954   9.976  10.034   2.766
31041SOL    HW194955   9.978   9.938   2.756
31041SOL    HW294956   9.902  10.051   2.824
31042SOL     OW94957   8.281   3.930   0.916
31042SOL    HW194958   8.211   3.867   0.899
31042SOL    HW294959   8.238   4.015   0.916
31043SOL     OW94960   5.706   7.070  12.757
31043SOL    HW194961   5.798   7.046  12.768
31043SOL    HW294962   5.704   7.164  12.774
31044SOL     OW94963  10.947  11.057   2.675
31044SOL    HW194964  11.033  11.043   2.634
31044SOL    HW294965  10.900  10.974   2.661
31045SOL     OW94966   6.797  10.428  10.229
31045SOL    HW194967   6.786  10.494  10.298
31045SOL    HW294968   6.707  10.402  10.207
31046SOL     OW94969   8.784  12.027   9.802
31046SOL    HW194970   8.734  12.072   9.733
31046SOL    HW294971   8.875  12.046   9.781
31047SOL     OW94972  14.344  11.044   4.238
31047SOL    HW194973  14.320  11.023   4.329
31047SOL    HW294974  14.351  11.140   4.237
31048SOL     OW94975  10.601   4.246   8.109
31048SOL    HW194976  10.550   4.326   8.093
31048SOL    HW294977  10.562   4.209   8.189
31049SOL     OW94978   0.401   1.954   3.379
31049SOL    HW194979   0.402   2.046   3.354
31049SOL    HW294980   0.336   1.913   3.322
31050SOL     OW94981   8.031  11.395   1.648
31050SOL    HW194982   7.950  11.440   1.676
31050SOL    HW294983   8.008  11.302   1.649
31051SOL     OW94984  10.126  12.365   2.939
31051SOL    HW194985  10.117  12.458   2.960
31051SOL    HW294986  10.209  12.359   2.892
31052SOL     OW94987   7.391   8.326   1.639
31052SOL    HW194988   7.363   8.247   1.594
31052SOL    HW294989   7.475   8.348   1.600
31053SOL     OW94990  12.498   7.638   8.385
31053SOL    HW194991  12.586   7.662   8.356
31053SOL    HW294992  12.512   7.589   8.466
31054SOL     OW94993   6.178   9.170  13.544
31054SOL    HW194994   6.235   9.241  13.574
31054SOL    HW294995   6.123   9.150  13.619
31055SOL     OW94996   9.301  12.785   5.631
31055SOL    HW194997   9.349  12.747   5.704
31055SOL    HW294998   9.233  12.721   5.610
31056SOL     OW94999   3.431   2.711  14.693
31056SOL    HW195000   3.337   2.728  14.691
31056SOL    HW295001   3.456   2.722  14.785
31057SOL     OW95002   4.881   0.427  14.085
31057SOL    HW195003   4.899   0.436  14.179
31057SOL    HW295004   4.798   0.379  14.081
31058SOL     OW95005   5.771  10.224   0.904
31058SOL    HW195006   5.761  10.313   0.940
31058SOL    HW295007   5.729  10.229   0.818
31059SOL     OW95008  12.791   5.043   6.789
31059SOL    HW195009  12.838   4.974   6.836
31059SOL    HW295010  12.765   5.003   6.706
31060SOL     OW95011   6.601   6.237  11.843
31060SOL    HW195012   6.643   6.169  11.896
31060SOL    HW295013   6.575   6.192  11.762
31061SOL     OW95014   9.053   8.224  13.416
31061SOL    HW195015   8.995   8.299  13.432
31061SOL    HW295016   9.132   8.263  13.378
31062SOL     OW95017  10.800   5.250   0.791
31062SOL    HW195018  10.871   5.204   0.835
31062SOL    HW295019  10.836   5.272   0.705
31063SOL     OW95020   3.638   3.722  12.965
31063SOL    HW195021   3.655   3.767  13.047
31063SOL    HW295022   3.674   3.779  12.898
31064SOL     OW95023  11.279  14.759   1.725
31064SOL    HW195024  11.303  14.849   1.703
31064SOL    HW295025  11.185  14.763   1.742
31065SOL     OW95026   3.164   6.950   6.523
31065SOL    HW195027   3.254   6.977   6.506
31065SOL    HW295028   3.112   7.030   6.511
31066SOL     OW95029   7.506  10.837  13.379
31066SOL    HW195030   7.434  10.808  13.324
31066SOL    HW295031   7.473  10.829  13.469
31067SOL     OW95032   1.776   9.616   1.595
31067SOL    HW195033   1.697   9.590   1.643
31067SOL    HW295034   1.842   9.630   1.663
31068SOL     OW95035   1.871   5.737   3.259
31068SOL    HW195036   1.817   5.676   3.309
31068SOL    HW295037   1.876   5.816   3.313
31069SOL     OW95038   7.720   8.904   5.482
31069SOL    HW195039   7.631   8.931   5.507
31069SOL    HW295040   7.740   8.832   5.542
31070SOL     OW95041   3.227  13.161   9.019
31070SOL    HW195042   3.285  13.233   9.044
31070SOL    HW295043   3.151  13.172   9.076
31071SOL     OW95044  14.519   2.804  14.333
31071SOL    HW195045  14.568   2.844  14.405
31071SOL    HW295046  14.475   2.729  14.373
31072SOL     OW95047   3.337   6.599   3.470
31072SOL    HW195048   3.318   6.681   3.424
31072SOL    HW295049   3.359   6.537   3.401
31073SOL     OW95050   6.704   5.202  13.926
31073SOL    HW195051   6.741   5.250  14.001
31073SOL    HW295052   6.652   5.132  13.966
31074SOL     OW95053   5.928   7.822   1.644
31074SOL    HW195054   5.937   7.871   1.726
31074SOL    HW295055   5.923   7.890   1.577
31075SOL     OW95056   4.231   8.939   0.646
31075SOL    HW195057   4.296   9.000   0.682
31075SOL    HW295058   4.148   8.965   0.687
31076SOL     OW95059   1.006   0.009   3.673
31076SOL    HW195060   1.024  14.862   3.765
31076SOL    HW295061   0.981  14.797   3.635
31077SOL     OW95062   1.550   0.395   7.658
31077SOL    HW195063   1.629   0.394   7.713
31077SOL    HW295064   1.488   0.451   7.705
31078SOL     OW95065   1.011   3.806   6.876
31078SOL    HW195066   0.940   3.792   6.813
31078SOL    HW295067   0.982   3.760   6.955
31079SOL     OW95068   4.126   2.311   5.648
31079SOL    HW195069   4.119   2.250   5.722
31079SOL    HW295070   4.036   2.326   5.621
31080SOL     OW95071  14.141   6.579  12.131
31080SOL    HW195072  14.110   6.608  12.046
31080SOL    HW295073  14.112   6.647  12.192
31081SOL     OW95074  11.535   1.565   2.814
31081SOL    HW195075  11.615   1.565   2.761
31081SOL    HW295076  11.541   1.484   2.865
31082SOL     OW95077  10.496   1.373   2.710
31082SOL    HW195078  10.546   1.437   2.659
31082SOL    HW295079  10.479   1.301   2.648
31083SOL     OW95080   3.163   9.789  10.908
31083SOL    HW195081   3.081   9.742  10.890
31083SOL    HW295082   3.211   9.785  10.826
31084SOL     OW95083  12.659  13.225  11.627
31084SOL    HW195084  12.728  13.281  11.592
31084SOL    HW295085  12.578  13.258  11.586
31085SOL     OW95086   0.738  14.656   7.375
31085SOL    HW195087   0.813  14.603   7.402
31085SOL    HW295088   0.670  14.635   7.439
31086SOL     OW95089  12.145  11.958  10.534
31086SOL    HW195090  12.093  12.038  10.544
31086SOL    HW295091  12.169  11.957  10.442
31087SOL     OW95092   6.413   0.931   1.928
31087SOL    HW195093   6.425   0.837   1.938
31087SOL    HW295094   6.492   0.961   1.883
31088SOL     OW95095  13.726  11.233  14.838
31088SOL    HW195096  13.752  11.242  14.747
31088SOL    HW295097  13.679  11.314  14.858
31089SOL     OW95098   5.444   9.872   2.275
31089SOL    HW195099   5.437   9.777   2.269
31089SOL    HW295100   5.537   9.891   2.264
31090SOL     OW95101  12.112   8.410   5.166
31090SOL    HW195102  12.034   8.444   5.210
31090SOL    HW295103  12.140   8.337   5.219
31091SOL     OW95104  14.097   0.832   5.921
31091SOL    HW195105  14.037   0.770   5.880
31091SOL    HW295106  14.165   0.776   5.961
31092SOL     OW95107   9.580  12.957   0.742
31092SOL    HW195108   9.658  13.008   0.765
31092SOL    HW295109   9.512  13.023   0.725
31093SOL     OW95110  11.167   7.767  13.128
31093SOL    HW195111  11.204   7.789  13.213
31093SOL    HW295112  11.201   7.834  13.068
31094SOL     OW95113  14.831  12.391   3.097
31094SOL    HW195114  14.865  12.480   3.088
31094SOL    HW295115   0.013  12.338   3.038
31095SOL     OW95116   2.047   0.651   3.385
31095SOL    HW195117   1.968   0.602   3.365
31095SOL    HW295118   2.110   0.624   3.319
31096SOL     OW95119   2.658   9.332   8.170
31096SOL    HW195120   2.609   9.252   8.155
31096SOL    HW295121   2.690   9.325   8.260
31097SOL     OW95122   9.719   0.873  14.818
31097SOL    HW195123   9.637   0.902  14.777
31097SOL    HW295124   9.731   0.932   0.020
31098SOL     OW95125  12.798   8.414   5.290
31098SOL    HW195126  12.810   8.351   5.219
31098SOL    HW295127  12.832   8.370   5.368
31099SOL     OW95128   4.279  14.170   2.856
31099SOL    HW195129   4.193  14.177   2.897
31099SOL    HW295130   4.323  14.100   2.903
31100SOL     OW95131   8.385   4.422   2.416
31100SOL    HW195132   8.341   4.434   2.333
31100SOL    HW295133   8.439   4.501   2.427
31101SOL     OW95134   9.643  11.449  12.672
31101SOL    HW195135   9.633  11.518  12.606
31101SOL    HW295136   9.678  11.375  12.624
31102SOL     OW95137   0.401  13.814   8.267
31102SOL    HW195138   0.399  13.864   8.186
31102SOL    HW295139   0.477  13.756   8.258
31103SOL     OW95140   3.041   0.115   4.680
31103SOL    HW195141   2.958   0.070   4.698
31103SOL    HW295142   3.107   0.064   4.727
31104SOL     OW95143   1.482   8.045   8.794
31104SOL    HW195144   1.444   7.976   8.739
31104SOL    HW295145   1.542   8.091   8.736
31105SOL     OW95146  11.409   9.129  12.989
31105SOL    HW195147  11.445   9.067  13.053
31105SOL    HW295148  11.404   9.212  13.036
31106SOL     OW95149   2.713   7.923   4.962
31106SOL    HW195150   2.636   7.980   4.964
31106SOL    HW295151   2.784   7.979   4.932
31107SOL     OW95152   7.398   0.472   0.823
31107SOL    HW195153   7.312   0.498   0.856
31107SOL    HW295154   7.460   0.518   0.880
31108SOL     OW95155   4.145   2.004   1.702
31108SOL    HW195156   4.178   2.064   1.770
31108SOL    HW295157   4.104   1.933   1.751
31109SOL     OW95158  12.365   8.134  14.516
31109SOL    HW195159  12.455   8.164  14.508
31109SOL    HW295160  12.324   8.197  14.576
31110SOL     OW95161  13.807   9.124   6.511
31110SOL    HW195162  13.807   9.194   6.446
31110SOL    HW295163  13.805   9.169   6.595
31111SOL     OW95164  12.745  12.457   6.110
31111SOL    HW195165  12.654  12.466   6.081
31111SOL    HW295166  12.787  12.539   6.083
31112SOL     OW95167   1.901   2.949  11.920
31112SOL    HW195168   1.894   3.042  11.900
31112SOL    HW295169   1.834   2.908  11.866
31113SOL     OW95170   7.097   3.451   9.486
31113SOL    HW195171   7.150   3.399   9.425
31113SOL    HW295172   7.065   3.387   9.550
31114SOL     OW95173  10.000   1.376   4.233
31114SOL    HW195174  10.031   1.414   4.150
31114SOL    HW295175   9.917   1.421   4.250
31115SOL     OW95176   9.618   7.095   9.689
31115SOL    HW195177   9.582   7.006   9.692
31115SOL    HW295178   9.552   7.146   9.643
31116SOL     OW95179  10.037   1.742   8.451
31116SOL    HW195180   9.949   1.734   8.415
31116SOL    HW295181  10.038   1.828   8.493
31117SOL     OW95182  12.022   8.824   8.123
31117SOL    HW195183  11.993   8.864   8.040
31117SOL    HW295184  12.048   8.735   8.098
31118SOL     OW95185   8.117   2.993   0.467
31118SOL    HW195186   8.150   3.039   0.544
31118SOL    HW295187   8.190   2.995   0.405
31119SOL     OW95188   2.137   6.376   7.668
31119SOL    HW195189   2.208   6.385   7.606
31119SOL    HW295190   2.076   6.447   7.646
31120SOL     OW95191  14.305   2.796   7.415
31120SOL    HW195192  14.306   2.772   7.322
31120SOL    HW295193  14.220   2.836   7.429
31121SOL     OW95194   2.535   3.254   7.913
31121SOL    HW195195   2.519   3.194   7.986
31121SOL    HW295196   2.627   3.279   7.922
31122SOL     OW95197  13.124   1.809   2.368
31122SOL    HW195198  13.099   1.799   2.276
31122SOL    HW295199  13.158   1.898   2.375
31123SOL     OW95200   7.271  13.806   9.606
31123SOL    HW195201   7.365  13.816   9.624
31123SOL    HW295202   7.267  13.760   9.522
31124SOL     OW95203  11.361   5.195  11.833
31124SOL    HW195204  11.354   5.129  11.764
31124SOL    HW295205  11.272   5.229  11.844
31125SOL     OW95206   0.587  10.637   8.716
31125SOL    HW195207   0.677  10.672   8.711
31125SOL    HW295208   0.595  10.546   8.689
31126SOL     OW95209  12.665  12.258  12.139
31126SOL    HW195210  12.657  12.269  12.044
31126SOL    HW295211  12.741  12.201  12.150
31127SOL     OW95212   4.822   0.851  13.410
31127SOL    HW195213   4.756   0.801  13.362
31127SOL    HW295214   4.837   0.801  13.490
31128SOL     OW95215   5.917   4.775  11.526
31128SOL    HW195216   5.895   4.682  11.522
31128SOL    HW295217   5.927   4.802  11.435
31129SOL     OW95218  11.156  12.553   0.489
31129SOL    HW195219  11.161  12.516   0.400
31129SOL    HW295220  11.090  12.622   0.482
31130SOL     OW95221   8.013   9.240  11.486
31130SOL    HW195222   7.931   9.283  11.460
31130SOL    HW295223   8.018   9.162  11.430
31131SOL     OW95224  14.754   5.215   6.407
31131SOL    HW195225  14.764   5.160   6.329
31131SOL    HW295226  14.717   5.297   6.374
31132SOL     OW95227  13.052   4.758   1.807
31132SOL    HW195228  13.106   4.738   1.731
31132SOL    HW295229  13.112   4.751   1.881
31133SOL     OW95230   7.938   3.910  12.818
31133SOL    HW195231   7.845   3.912  12.842
31133SOL    HW295232   7.956   3.818  12.799
31134SOL     OW95233  10.937  14.577   5.618
31134SOL    HW195234  11.026  14.560   5.586
31134SOL    HW295235  10.891  14.493   5.608
31135SOL     OW95236   4.428  13.434   3.333
31135SOL    HW195237   4.388  13.389   3.259
31135SOL    HW295238   4.406  13.526   3.321
31136SOL     OW95239   6.551   5.216  10.564
31136SOL    HW195240   6.641   5.208  10.534
31136SOL    HW295241   6.529   5.308  10.551
31137SOL     OW95242  10.046   0.784   7.561
31137SOL    HW195243  10.049   0.799   7.467
31137SOL    HW295244   9.967   0.733   7.575
31138SOL     OW95245   1.447  12.940   0.045
31138SOL    HW195246   1.498  12.912   0.121
31138SOL    HW295247   1.461  13.035   0.040
31139SOL     OW95248   3.433   8.216   0.510
31139SOL    HW195249   3.380   8.162   0.451
31139SOL    HW295250   3.376   8.233   0.584
31140SOL     OW95251   6.643   8.057   4.380
31140SOL    HW195252   6.672   8.039   4.470
31140SOL    HW295253   6.722   8.044   4.327
31141SOL     OW95254   7.885  14.748  10.673
31141SOL    HW195255   7.831  14.741  10.752
31141SOL    HW295256   7.831  14.710  10.604
31142SOL     OW95257   2.827   4.466   3.859
31142SOL    HW195258   2.866   4.400   3.916
31142SOL    HW295259   2.896   4.487   3.795
31143SOL     OW95260   1.021  11.806   8.814
31143SOL    HW195261   1.031  11.805   8.719
31143SOL    HW295262   1.065  11.887   8.842
31144SOL     OW95263   4.212  14.727   8.497
31144SOL    HW195264   4.182  14.661   8.559
31144SOL    HW295265   4.240  14.677   8.420
31145SOL     OW95266  13.287   6.225   6.447
31145SOL    HW195267  13.228   6.256   6.515
31145SOL    HW295268  13.357   6.180   6.494
31146SOL     OW95269  11.698   6.596   1.570
31146SOL    HW195270  11.752   6.673   1.554
31146SOL    HW295271  11.609   6.631   1.578
31147SOL     OW95272   2.754   2.536   4.201
31147SOL    HW195273   2.660   2.549   4.210
31147SOL    HW295274   2.766   2.501   4.113
31148SOL     OW95275  12.197  13.749   4.889
31148SOL    HW195276  12.226  13.711   4.806
31148SOL    HW295277  12.267  13.727   4.951
31149SOL     OW95278   6.431  12.751  12.080
31149SOL    HW195279   6.473  12.796  12.006
31149SOL    HW295280   6.446  12.658  12.061
31150SOL     OW95281   1.907   7.228   8.582
31150SOL    HW195282   1.864   7.146   8.610
31150SOL    HW295283   1.847   7.264   8.516
31151SOL     OW95284   9.698   9.698   3.062
31151SOL    HW195285   9.612   9.670   3.094
31151SOL    HW295286   9.718   9.775   3.115
31152SOL     OW95287   5.849   1.193   8.067
31152SOL    HW195288   5.883   1.106   8.085
31152SOL    HW295289   5.894   1.251   8.129
31153SOL     OW95290  10.487   4.549  11.057
31153SOL    HW195291  10.393   4.556  11.041
31153SOL    HW295292  10.494   4.498  11.137
31154SOL     OW95293   1.874   3.279   2.299
31154SOL    HW195294   1.930   3.259   2.374
31154SOL    HW295295   1.814   3.346   2.331
31155SOL     OW95296   5.191   6.330   4.247
31155SOL    HW195297   5.267   6.285   4.210
31155SOL    HW295298   5.118   6.270   4.232
31156SOL     OW95299   3.313  11.221   3.856
31156SOL    HW195300   3.344  11.228   3.765
31156SOL    HW295301   3.255  11.144   3.856
31157SOL     OW95302   3.429   6.692   3.710
31157SOL    HW195303   3.429   6.780   3.674
31157SOL    HW295304   3.397   6.636   3.639
31158SOL     OW95305   9.476  12.125  14.214
31158SOL    HW195306   9.391  12.114  14.256
31158SOL    HW295307   9.517  12.039  14.221
31159SOL     OW95308  11.747   5.500   9.696
31159SOL    HW195309  11.709   5.445   9.765
31159SOL    HW295310  11.735   5.590   9.728
31160SOL     OW95311   4.127  14.804   5.596
31160SOL    HW195312   4.098  14.814   5.506
31160SOL    HW295313   4.050  14.826   5.649
31161SOL     OW95314   9.904  12.391   8.321
31161SOL    HW195315   9.906  12.473   8.370
31161SOL    HW295316   9.997  12.369   8.308
31162SOL     OW95317   3.260   9.380   4.275
31162SOL    HW195318   3.173   9.416   4.292
31162SOL    HW295319   3.314   9.416   4.345
31163SOL     OW95320   6.310   5.083  12.316
31163SOL    HW195321   6.402   5.108  12.322
31163SOL    HW295322   6.293   5.031  12.395
31164SOL     OW95323   5.035   7.219  12.963
31164SOL    HW195324   5.003   7.284  12.901
31164SOL    HW295325   5.057   7.143  12.910
31165SOL     OW95326   8.959   8.476  11.572
31165SOL    HW195327   8.891   8.503  11.634
31165SOL    HW295328   8.925   8.502  11.486
31166SOL     OW95329   4.082   1.090  12.242
31166SOL    HW195330   4.071   1.000  12.211
31166SOL    HW295331   4.167   1.116  12.207
31167SOL     OW95332   6.440   5.123   6.779
31167SOL    HW195333   6.482   5.147   6.861
31167SOL    HW295334   6.389   5.201   6.755
31168SOL     OW95335   4.925   3.826  14.779
31168SOL    HW195336   5.007   3.803  14.824
31168SOL    HW295337   4.861   3.833  14.850
31169SOL     OW95338   3.261   1.375  12.565
31169SOL    HW195339   3.263   1.470  12.558
31169SOL    HW295340   3.336   1.354  12.620
31170SOL     OW95341  12.630   7.334   7.745
31170SOL    HW195342  12.642   7.346   7.839
31170SOL    HW295343  12.572   7.258   7.737
31171SOL     OW95344  11.419   9.626   7.998
31171SOL    HW195345  11.398   9.559   7.934
31171SOL    HW295346  11.334   9.658   8.028
31172SOL     OW95347   2.947  10.264   3.216
31172SOL    HW195348   2.880  10.316   3.262
31172SOL    HW295349   3.005  10.329   3.177
31173SOL     OW95350  12.597   5.117  10.420
31173SOL    HW195351  12.523   5.115  10.480
31173SOL    HW295352  12.559   5.103  10.333
31174SOL     OW95353   5.815   7.513  13.723
31174SOL    HW195354   5.904   7.524  13.690
31174SOL    HW295355   5.763   7.577  13.675
31175SOL     OW95356   3.146  12.742   9.526
31175SOL    HW195357   3.219  12.694   9.488
31175SOL    HW295358   3.069  12.688   9.507
31176SOL     OW95359   1.589  11.078   1.068
31176SOL    HW195360   1.685  11.070   1.073
31176SOL    HW295361   1.566  11.038   0.985
31177SOL     OW95362  10.480   5.123  10.046
31177SOL    HW195363  10.389   5.112  10.076
31177SOL    HW295364  10.480   5.209  10.003
31178SOL     OW95365  13.418   2.577   6.794
31178SOL    HW195366  13.452   2.534   6.715
31178SOL    HW295367  13.376   2.506   6.843
31179SOL     OW95368   1.661  14.603   2.083
31179SOL    HW195369   1.738  14.659   2.091
31179SOL    HW295370   1.692  14.516   2.107
31180SOL     OW95371  13.473  10.522   5.681
31180SOL    HW195372  13.493  10.587   5.749
31180SOL    HW295373  13.424  10.571   5.615
31181SOL     OW95374  10.885  12.936   3.436
31181SOL    HW195375  10.908  12.844   3.449
31181SOL    HW295376  10.860  12.941   3.344
31182SOL     OW95377  11.846  14.812   9.397
31182SOL    HW195378  11.771  14.759   9.422
31182SOL    HW295379  11.876  14.775   9.314
31183SOL     OW95380   8.302  12.413  10.424
31183SOL    HW195381   8.280  12.411  10.517
31183SOL    HW295382   8.249  12.485  10.388
31184SOL     OW95383   9.244   5.306   4.890
31184SOL    HW195384   9.165   5.320   4.942
31184SOL    HW295385   9.236   5.216   4.859
31185SOL     OW95386   5.022  14.411  12.547
31185SOL    HW195387   5.087  14.403  12.617
31185SOL    HW295388   5.031  14.329  12.497
31186SOL     OW95389   7.681   6.293  10.425
31186SOL    HW195390   7.587   6.314  10.431
31186SOL    HW295391   7.717   6.319  10.510
31187SOL     OW95392  13.612  13.949  13.800
31187SOL    HW195393  13.640  13.860  13.817
31187SOL    HW295394  13.687  13.990  13.757
31188SOL     OW95395   7.471   0.157  11.242
31188SOL    HW195396   7.389   0.202  11.264
31188SOL    HW295397   7.535   0.193  11.304
31189SOL     OW95398  13.469   2.408   6.073
31189SOL    HW195399  13.538   2.468   6.102
31189SOL    HW295400  13.476   2.334   6.133
31190SOL     OW95401   6.439   0.813  13.283
31190SOL    HW195402   6.396   0.729  13.269
31190SOL    HW295403   6.490   0.801  13.363
31191SOL     OW95404   3.999  14.104   6.275
31191SOL    HW195405   3.974  14.073   6.188
31191SOL    HW295406   4.067  14.170   6.259
31192SOL     OW95407   1.439   0.896   2.879
31192SOL    HW195408   1.385   0.969   2.848
31192SOL    HW295409   1.491   0.933   2.950
31193SOL     OW95410   5.636   1.771   8.912
31193SOL    HW195411   5.645   1.748   8.820
31193SOL    HW295412   5.718   1.816   8.934
31194SOL     OW95413   5.233  12.871   8.773
31194SOL    HW195414   5.290  12.803   8.809
31194SOL    HW295415   5.290  12.925   8.719
31195SOL     OW95416   7.305   3.044  11.516
31195SOL    HW195417   7.224   3.085  11.487
31195SOL    HW295418   7.374   3.105  11.490
31196SOL     OW95419   0.431  11.807   6.366
31196SOL    HW195420   0.496  11.830   6.432
31196SOL    HW295421   0.403  11.718   6.390
31197SOL     OW95422   2.285   3.185   6.066
31197SOL    HW195423   2.253   3.175   6.155
31197SOL    HW295424   2.214   3.231   6.020
31198SOL     OW95425  13.424   6.044   3.940
31198SOL    HW195426  13.482   6.022   3.867
31198SOL    HW295427  13.445   5.980   4.007
31199SOL     OW95428   7.530  14.759   0.637
31199SOL    HW195429   7.600  14.821   0.618
31199SOL    HW295430   7.575  14.677   0.657
31200SOL     OW95431  12.982   6.207   3.397
31200SOL    HW195432  12.979   6.112   3.384
31200SOL    HW295433  13.073   6.226   3.420
31201SOL     OW95434   7.822   3.830  14.694
31201SOL    HW195435   7.820   3.754  14.753
31201SOL    HW295436   7.819   3.905  14.752
31202SOL     OW95437   3.181   9.858  10.336
31202SOL    HW195438   3.260   9.902  10.304
31202SOL    HW295439   3.205   9.828  10.424
31203SOL     OW95440  12.969  11.468   1.723
31203SOL    HW195441  12.966  11.372   1.718
31203SOL    HW295442  12.880  11.496   1.702
31204SOL     OW95443   0.613  14.553  10.656
31204SOL    HW195444   0.551  14.488  10.688
31204SOL    HW295445   0.652  14.591  10.735
31205SOL     OW95446   3.685   0.465   5.009
31205SOL    HW195447   3.724   0.517   5.080
31205SOL    HW295448   3.759   0.434   4.958
31206SOL     OW95449   4.884   4.444   4.457
31206SOL    HW195450   4.812   4.477   4.403
31206SOL    HW295451   4.868   4.482   4.543
31207SOL     OW95452  14.561   8.676  14.597
31207SOL    HW195453  14.474   8.688  14.560
31207SOL    HW295454  14.621   8.712  14.532
31208SOL     OW95455   2.588   5.132  11.428
31208SOL    HW195456   2.512   5.073  11.434
31208SOL    HW295457   2.563   5.197  11.362
31209SOL     OW95458   8.983   4.871  12.808
31209SOL    HW195459   8.888   4.870  12.813
31209SOL    HW295460   9.012   4.881  12.899
31210SOL     OW95461   7.242   7.396   0.507
31210SOL    HW195462   7.171   7.355   0.458
31210SOL    HW295463   7.210   7.400   0.597
31211SOL     OW95464   6.730  11.577   2.433
31211SOL    HW195465   6.771  11.663   2.432
31211SOL    HW295466   6.645  11.591   2.474
31212SOL     OW95467   1.014   6.817  13.046
31212SOL    HW195468   0.998   6.884  13.112
31212SOL    HW295469   0.967   6.740  13.078
31213SOL     OW95470   6.525   5.985  13.756
31213SOL    HW195471   6.477   6.023  13.829
31213SOL    HW295472   6.546   6.059  13.700
31214SOL     OW95473   2.803   7.520   0.186
31214SOL    HW195474   2.882   7.537   0.135
31214SOL    HW295475   2.771   7.607   0.209
31215SOL     OW95476  14.724  12.801  12.932
31215SOL    HW195477  14.752  12.728  12.986
31215SOL    HW295478  14.655  12.765  12.876
31216SOL     OW95479   5.680   0.782  12.303
31216SOL    HW195480   5.624   0.720  12.257
31216SOL    HW295481   5.766   0.770  12.264
31217SOL     OW95482   6.087   9.883  13.048
31217SOL    HW195483   6.159   9.946  13.039
31217SOL    HW295484   6.033   9.918  13.119
31218SOL     OW95485   7.427   0.099   7.586
31218SOL    HW195486   7.485   0.099   7.510
31218SOL    HW295487   7.463   0.166   7.644
31219SOL     OW95488   0.307  11.191   8.477
31219SOL    HW195489   0.294  11.260   8.542
31219SOL    HW295490   0.395  11.156   8.496
31220SOL     OW95491  12.746   3.271   9.348
31220SOL    HW195492  12.784   3.352   9.313
31220SOL    HW295493  12.687   3.300   9.417
31221SOL     OW95494   5.070  14.186  12.360
31221SOL    HW195495   5.163  14.167  12.376
31221SOL    HW295496   5.071  14.244  12.283
31222SOL     OW95497   7.019   4.386  11.517
31222SOL    HW195498   7.010   4.357  11.608
31222SOL    HW295499   7.102   4.348  11.487
31223SOL     OW95500   7.233   3.175  14.821
31223SOL    HW195501   7.157   3.116  14.821
31223SOL    HW295502   7.234   3.212  14.732
31224SOL     OW95503   5.732   3.526  13.680
31224SOL    HW195504   5.644   3.508  13.711
31224SOL    HW295505   5.790   3.482  13.743
31225SOL     OW95506   3.600   8.314  14.194
31225SOL    HW195507   3.533   8.379  14.177
31225SOL    HW295508   3.681   8.354  14.161
31226SOL     OW95509  10.014  11.061  10.598
31226SOL    HW195510  10.001  11.102  10.513
31226SOL    HW295511   9.974  11.122  10.660
31227SOL     OW95512   7.398   1.306   4.305
31227SOL    HW195513   7.357   1.287   4.220
31227SOL    HW295514   7.363   1.239   4.364
31228SOL     OW95515  13.787  13.011   8.120
31228SOL    HW195516  13.833  13.077   8.170
31228SOL    HW295517  13.817  13.023   8.030
31229SOL     OW95518  14.076   3.774   9.565
31229SOL    HW195519  14.036   3.786   9.652
31229SOL    HW295520  14.002   3.753   9.508
31230SOL     OW95521   9.806   8.851   0.228
31230SOL    HW195522   9.755   8.856   0.147
31230SOL    HW295523   9.821   8.758   0.242
31231SOL     OW95524   9.881   0.465   7.964
31231SOL    HW195525   9.865   0.554   7.996
31231SOL    HW295526   9.834   0.409   8.025
31232SOL     OW95527   5.138  11.130   1.564
31232SOL    HW195528   5.157  11.086   1.481
31232SOL    HW295529   5.224  11.158   1.595
31233SOL     OW95530  12.940   8.766   4.711
31233SOL    HW195531  12.855   8.726   4.689
31233SOL    HW295532  13.004   8.703   4.678
31234SOL     OW95533   6.657  10.129  10.458
31234SOL    HW195534   6.688  10.049  10.415
31234SOL    HW295535   6.563  10.130  10.442
31235SOL     OW95536   6.669  14.135  12.171
31235SOL    HW195537   6.610  14.198  12.128
31235SOL    HW295538   6.697  14.077  12.101
31236SOL     OW95539   2.647  13.986   5.577
31236SOL    HW195540   2.709  14.053   5.547
31236SOL    HW295541   2.626  14.011   5.667
31237SOL     OW95542  14.844   0.703   5.285
31237SOL    HW195543  14.836   0.611   5.311
31237SOL    HW295544  14.793   0.709   5.204
31238SOL     OW95545   5.313   0.928   3.336
31238SOL    HW195546   5.378   0.960   3.273
31238SOL    HW295547   5.366   0.887   3.405
31239SOL     OW95548  11.610   9.067   1.474
31239SOL    HW195549  11.578   9.098   1.390
31239SOL    HW295550  11.625   9.146   1.525
31240SOL     OW95551   2.571  12.722   7.653
31240SOL    HW195552   2.621  12.801   7.669
31240SOL    HW295553   2.591  12.698   7.562
31241SOL     OW95554  12.802   4.552  13.488
31241SOL    HW195555  12.802   4.488  13.559
31241SOL    HW295556  12.733   4.522  13.429
31242SOL     OW95557   6.768  13.147   6.795
31242SOL    HW195558   6.690  13.201   6.785
31242SOL    HW295559   6.841  13.208   6.785
31243SOL     OW95560  11.103  11.728   2.801
31243SOL    HW195561  11.044  11.655   2.781
31243SOL    HW295562  11.117  11.722   2.895
31244SOL     OW95563   8.707   3.704   3.459
31244SOL    HW195564   8.776   3.638   3.452
31244SOL    HW295565   8.681   3.721   3.368
31245SOL     OW95566   0.845   1.777  12.978
31245SOL    HW195567   0.859   1.688  12.945
31245SOL    HW295568   0.757   1.800  12.947
31246SOL     OW95569  12.234   4.588  12.513
31246SOL    HW195570  12.194   4.650  12.452
31246SOL    HW295571  12.236   4.634  12.596
31247SOL     OW95572   3.762   7.520   6.381
31247SOL    HW195573   3.795   7.461   6.313
31247SOL    HW295574   3.834   7.581   6.398
31248SOL     OW95575   1.423   8.564   5.674
31248SOL    HW195576   1.454   8.646   5.635
31248SOL    HW295577   1.483   8.547   5.746
31249SOL     OW95578   5.259   6.484   7.269
31249SOL    HW195579   5.275   6.532   7.188
31249SOL    HW295580   5.330   6.509   7.327
31250SOL     OW95581  12.908   8.204   5.951
31250SOL    HW195582  12.856   8.276   5.914
31250SOL    HW295583  12.989   8.246   5.981
31251SOL     OW95584   8.982   7.040  10.988
31251SOL    HW195585   8.908   7.009  11.041
31251SOL    HW295586   8.943   7.100  10.925
31252SOL     OW95587   2.509   6.372  11.214
31252SOL    HW195588   2.477   6.454  11.251
31252SOL    HW295589   2.460   6.361  11.132
31253SOL     OW95590  11.192   6.968   0.529
31253SOL    HW195591  11.122   6.925   0.480
31253SOL    HW295592  11.248   7.007   0.462
31254SOL     OW95593   2.844   5.499   3.166
31254SOL    HW195594   2.927   5.458   3.139
31254SOL    HW295595   2.861   5.532   3.254
31255SOL     OW95596   5.753   0.420   0.708
31255SOL    HW195597   5.795   0.340   0.677
31255SOL    HW295598   5.821   0.487   0.701
31256SOL     OW95599  12.760   6.063  12.928
31256SOL    HW195600  12.847   6.080  12.891
31256SOL    HW295601  12.701   6.064  12.853
31257SOL     OW95602   2.256   9.965  10.648
31257SOL    HW195603   2.232   9.974  10.740
31257SOL    HW295604   2.175   9.978  10.600
31258SOL     OW95605   4.197   3.918  14.262
31258SOL    HW195606   4.150   3.877  14.334
31258SOL    HW295607   4.241   3.993  14.301
31259SOL     OW95608   7.034   8.847   5.585
31259SOL    HW195609   7.010   8.891   5.666
31259SOL    HW295610   6.962   8.867   5.525
31260SOL     OW95611  11.469   2.135   1.695
31260SOL    HW195612  11.468   2.058   1.751
31260SOL    HW295613  11.384   2.135   1.651
31261SOL     OW95614   6.689   7.907  12.508
31261SOL    HW195615   6.683   7.874  12.418
31261SOL    HW295616   6.779   7.890  12.534
31262SOL     OW95617  10.313  11.992   7.868
31262SOL    HW195618  10.337  11.913   7.819
31262SOL    HW295619  10.389  12.050   7.858
31263SOL     OW95620   9.289   1.696   4.534
31263SOL    HW195621   9.204   1.655   4.517
31263SOL    HW295622   9.327   1.643   4.604
31264SOL     OW95623  12.080   2.380   3.190
31264SOL    HW195624  12.133   2.432   3.130
31264SOL    HW295625  11.991   2.389   3.157
31265SOL     OW95626   1.469   6.746   9.498
31265SOL    HW195627   1.497   6.721   9.410
31265SOL    HW295628   1.396   6.687   9.517
31266SOL     OW95629  14.435   1.890   0.333
31266SOL    HW195630  14.503   1.836   0.293
31266SOL    HW295631  14.474   1.920   0.415
31267SOL     OW95632   4.854   2.352  10.682
31267SOL    HW195633   4.787   2.379  10.745
31267SOL    HW295634   4.863   2.427  10.623
31268SOL     OW95635   4.986  12.957   0.511
31268SOL    HW195636   5.021  12.879   0.556
31268SOL    HW295637   5.059  12.987   0.457
31269SOL     OW95638   3.440  12.079   7.564
31269SOL    HW195639   3.404  12.101   7.478
31269SOL    HW295640   3.453  12.164   7.606
31270SOL     OW95641   6.063  11.891   1.777
31270SOL    HW195642   6.143  11.845   1.803
31270SOL    HW295643   6.015  11.827   1.724
31271SOL     OW95644  12.272   1.596   6.792
31271SOL    HW195645  12.337   1.650   6.746
31271SOL    HW295646  12.301   1.506   6.777
31272SOL     OW95647   9.113   9.491  10.316
31272SOL    HW195648   9.096   9.554  10.246
31272SOL    HW295649   9.197   9.517  10.353
31273SOL     OW95650   3.636   0.642  14.690
31273SOL    HW195651   3.573   0.679  14.629
31273SOL    HW295652   3.708   0.705  14.691
31274SOL     OW95653   7.332  14.243   9.038
31274SOL    HW195654   7.394  14.222   8.968
31274SOL    HW295655   7.247  14.252   8.994
31275SOL     OW95656  12.301   5.213  11.956
31275SOL    HW195657  12.336   5.287  11.906
31275SOL    HW295658  12.296   5.141  11.893
31276SOL     OW95659  11.426  11.609  11.713
31276SOL    HW195660  11.354  11.566  11.667
31276SOL    HW295661  11.446  11.552  11.787
31277SOL     OW95662   1.668   8.695   0.634
31277SOL    HW195663   1.736   8.749   0.674
31277SOL    HW295664   1.618   8.660   0.708
31278SOL     OW95665   8.287  12.817   2.168
31278SOL    HW195666   8.290  12.791   2.260
31278SOL    HW295667   8.206  12.778   2.135
31279SOL     OW95668   0.492  12.868  12.053
31279SOL    HW195669   0.505  12.960  12.033
31279SOL    HW295670   0.401  12.850  12.030
31280SOL     OW95671  13.832   2.731   3.180
31280SOL    HW195672  13.884   2.683   3.116
31280SOL    HW295673  13.878   2.814   3.191
31281SOL     OW95674  12.487   4.503  13.559
31281SOL    HW195675  12.507   4.427  13.505
31281SOL    HW295676  12.520   4.578  13.508
31282SOL     OW95677  14.276   7.452  11.030
31282SOL    HW195678  14.272   7.416  10.942
31282SOL    HW295679  14.298   7.377  11.086
31283SOL     OW95680  13.472  14.450  11.739
31283SOL    HW195681  13.486  14.509  11.813
31283SOL    HW295682  13.558  14.441  11.699
31284SOL     OW95683   2.073  12.133   4.999
31284SOL    HW195684   1.991  12.176   5.024
31284SOL    HW295685   2.104  12.184   4.924
31285SOL     OW95686  13.057  14.515   4.752
31285SOL    HW195687  13.079  14.598   4.794
31285SOL    HW295688  12.962  14.511   4.756
31286SOL     OW95689   7.740  14.329   1.748
31286SOL    HW195690   7.745  14.333   1.653
31286SOL    HW295691   7.773  14.413   1.778
31287SOL     OW95692   6.418   8.783   6.622
31287SOL    HW195693   6.427   8.786   6.527
31287SOL    HW295694   6.327   8.757   6.636
31288SOL     OW95695  14.493   4.304   0.740
31288SOL    HW195696  14.411   4.353   0.732
31288SOL    HW295697  14.516   4.281   0.650
31289SOL     OW95698  11.340  10.308   6.006
31289SOL    HW195699  11.367  10.221   5.976
31289SOL    HW295700  11.380  10.317   6.093
31290SOL     OW95701   6.580  10.116   3.587
31290SOL    HW195702   6.544  10.028   3.599
31290SOL    HW295703   6.541  10.168   3.657
31291SOL     OW95704  11.571   9.973  14.058
31291SOL    HW195705  11.662   9.953  14.037
31291SOL    HW295706  11.570  10.066  14.078
31292SOL     OW95707   3.310   3.318   7.430
31292SOL    HW195708   3.286   3.388   7.490
31292SOL    HW295709   3.296   3.355   7.343
31293SOL     OW95710  10.571   3.761   8.309
31293SOL    HW195711  10.559   3.856   8.304
31293SOL    HW295712  10.607   3.746   8.397
31294SOL     OW95713   5.566   8.073   5.594
31294SOL    HW195714   5.596   7.988   5.628
31294SOL    HW295715   5.536   8.120   5.672
31295SOL     OW95716   7.523   6.076  11.243
31295SOL    HW195717   7.440   6.029  11.239
31295SOL    HW295718   7.563   6.062  11.157
31296SOL     OW95719   4.125  11.527   6.961
31296SOL    HW195720   4.158  11.577   7.036
31296SOL    HW295721   4.204  11.503   6.912
31297SOL     OW95722  10.746  13.700   5.498
31297SOL    HW195723  10.721  13.611   5.522
31297SOL    HW295724  10.752  13.747   5.582
31298SOL     OW95725   4.132   7.799   4.648
31298SOL    HW195726   4.045   7.790   4.608
31298SOL    HW295727   4.127   7.745   4.727
31299SOL     OW95728   5.172   3.592   0.206
31299SOL    HW195729   5.244   3.645   0.241
31299SOL    HW295730   5.117   3.573   0.281
31300SOL     OW95731   1.096   9.853  13.542
31300SOL    HW195732   1.017   9.854  13.488
31300SOL    HW295733   1.151   9.922  13.505
31301SOL     OW95734   8.476   7.957   4.466
31301SOL    HW195735   8.446   7.940   4.376
31301SOL    HW295736   8.486   8.052   4.471
31302SOL     OW95737  11.445   9.440  10.409
31302SOL    HW195738  11.424   9.528  10.441
31302SOL    HW295739  11.533   9.449  10.371
31303SOL     OW95740   9.927  14.089  14.293
31303SOL    HW195741   9.899  14.152  14.225
31303SOL    HW295742   9.893  14.126  14.374
31304SOL     OW95743   5.459   3.379   1.126
31304SOL    HW195744   5.400   3.408   1.196
31304SOL    HW295745   5.547   3.393   1.162
31305SOL     OW95746  14.422   5.329   0.693
31305SOL    HW195747  14.512   5.359   0.698
31305SOL    HW295748  14.371   5.398   0.734
31306SOL     OW95749  13.164  13.928   2.005
31306SOL    HW195750  13.172  13.879   2.086
31306SOL    HW295751  13.244  13.980   2.000
31307SOL     OW95752   1.864   7.351   4.199
31307SOL    HW195753   1.868   7.446   4.211
31307SOL    HW295754   1.942   7.318   4.242
31308SOL     OW95755   8.111   8.988   1.540
31308SOL    HW195756   8.100   9.018   1.450
31308SOL    HW295757   8.022   8.991   1.577
31309SOL     OW95758   0.426   0.408  11.371
31309SOL    HW195759   0.393   0.318  11.381
31309SOL    HW295760   0.382   0.441  11.293
31310SOL     OW95761   2.815   9.325   3.889
31310SOL    HW195762   2.806   9.405   3.940
31310SOL    HW295763   2.725   9.291   3.882
31311SOL     OW95764   0.448   0.891   9.112
31311SOL    HW195765   0.380   0.823   9.108
31311SOL    HW295766   0.485   0.892   9.024
31312SOL     OW95767   0.628   3.392   0.024
31312SOL    HW195768   0.686   3.467   0.013
31312SOL    HW295769   0.665   3.324  14.841
31313SOL     OW95770   3.424   3.861   3.645
31313SOL    HW195771   3.334   3.886   3.627
31313SOL    HW295772   3.474   3.942   3.640
31314SOL     OW95773   5.953  10.728   2.079
31314SOL    HW195774   5.898  10.649   2.072
31314SOL    HW295775   5.892  10.800   2.067
31315SOL     OW95776  13.726  11.348  13.553
31315SOL    HW195777  13.664  11.367  13.623
31315SOL    HW295778  13.747  11.434  13.516
31316SOL     OW95779   4.785  13.798  13.993
31316SOL    HW195780   4.817  13.724  13.942
31316SOL    HW295781   4.837  13.796  14.073
31317SOL     OW95782   7.434   8.210   1.101
31317SOL    HW195783   7.461   8.298   1.128
31317SOL    HW295784   7.350   8.223   1.056
31318SOL     OW95785   0.421  10.084  12.631
31318SOL    HW195786   0.338  10.038  12.642
31318SOL    HW295787   0.480  10.044  12.695
31319SOL     OW95788  12.744  12.368   6.729
31319SOL    HW195789  12.812  12.335   6.788
31319SOL    HW295790  12.667  12.316   6.751
31320SOL     OW95791   9.468   9.140   4.797
31320SOL    HW195792   9.436   9.224   4.767
31320SOL    HW295793   9.509   9.158   4.881
31321SOL     OW95794  12.915   3.791   3.582
31321SOL    HW195795  12.900   3.879   3.617
31321SOL    HW295796  12.864   3.734   3.640
31322SOL     OW95797  10.703  10.860   3.435
31322SOL    HW195798  10.712  10.826   3.523
31322SOL    HW295799  10.788  10.844   3.394
31323SOL     OW95800   5.664   4.299   1.720
31323SOL    HW195801   5.599   4.343   1.774
31323SOL    HW295802   5.736   4.280   1.780
31324SOL     OW95803   1.424   2.557   3.403
31324SOL    HW195804   1.444   2.538   3.312
31324SOL    HW295805   1.508   2.551   3.449
31325SOL     OW95806  12.060  12.954  13.488
31325SOL    HW195807  12.099  12.877  13.529
31325SOL    HW295808  12.018  12.921  13.408
31326SOL     OW95809   0.224   8.880  11.054
31326SOL    HW195810   0.131   8.882  11.078
31326SOL    HW295811   0.231   8.939  10.979
31327SOL     OW95812  11.948   5.757  14.750
31327SOL    HW195813  12.036   5.770  14.714
31327SOL    HW295814  11.948   5.666  14.780
31328SOL     OW95815   2.474   9.373  13.213
31328SOL    HW195816   2.525   9.321  13.276
31328SOL    HW295817   2.392   9.325  13.204
31329SOL     OW95818   5.206   8.851   3.570
31329SOL    HW195819   5.189   8.842   3.476
31329SOL    HW295820   5.119   8.853   3.610
31330SOL     OW95821   3.062   7.771  13.997
31330SOL    HW195822   3.146   7.774  13.951
31330SOL    HW295823   3.052   7.680  14.023
31331SOL     OW95824   3.132  10.829   4.543
31331SOL    HW195825   3.080  10.803   4.618
31331SOL    HW295826   3.134  10.925   4.546
31332SOL     OW95827  10.973  10.848   4.670
31332SOL    HW195828  10.904  10.909   4.695
31332SOL    HW295829  11.039  10.857   4.739
31333SOL     OW95830  11.367   1.140   3.233
31333SOL    HW195831  11.457   1.113   3.212
31333SOL    HW295832  11.340   1.080   3.304
31334SOL     OW95833   9.717   6.453   7.946
31334SOL    HW195834   9.659   6.394   7.898
31334SOL    HW295835   9.671   6.538   7.943
31335SOL     OW95836  12.033   9.281   3.311
31335SOL    HW195837  12.067   9.334   3.239
31335SOL    HW295838  12.011   9.197   3.270
31336SOL     OW95839  10.048  13.204   6.327
31336SOL    HW195840   9.970  13.231   6.280
31336SOL    HW295841  10.095  13.286   6.343
31337SOL     OW95842   9.676  13.163   2.868
31337SOL    HW195843   9.722  13.100   2.813
31337SOL    HW295844   9.665  13.241   2.813
31338SOL     OW95845  10.253   1.931  14.256
31338SOL    HW195846  10.165   1.893  14.254
31338SOL    HW295847  10.273   1.940  14.349
31339SOL     OW95848  14.620   7.395   2.972
31339SOL    HW195849  14.646   7.304   2.983
31339SOL    HW295850  14.689   7.434   2.918
31340SOL     OW95851   2.774   9.156   5.782
31340SOL    HW195852   2.818   9.074   5.805
31340SOL    HW295853   2.820   9.223   5.833
31341SOL     OW95854  11.109   8.021   3.413
31341SOL    HW195855  11.119   7.933   3.450
31341SOL    HW295856  11.092   8.077   3.489
31342SOL     OW95857  11.833  12.004  10.385
31342SOL    HW195858  11.892  12.079  10.387
31342SOL    HW295859  11.745  12.042  10.386
31343SOL     OW95860   4.356   9.556   9.452
31343SOL    HW195861   4.414   9.605   9.511
31343SOL    HW295862   4.275   9.545   9.502
31344SOL     OW95863   5.809  12.763  10.506
31344SOL    HW195864   5.889  12.766  10.454
31344SOL    HW295865   5.787  12.855  10.521
31345SOL     OW95866   8.588  12.161   7.750
31345SOL    HW195867   8.672  12.118   7.735
31345SOL    HW295868   8.523  12.100   7.716
31346SOL     OW95869  10.336   7.418   4.714
31346SOL    HW195870  10.341   7.513   4.726
31346SOL    HW295871  10.292   7.407   4.630
31347SOL     OW95872   4.020   4.623   6.208
31347SOL    HW195873   4.001   4.710   6.174
31347SOL    HW295874   4.115   4.617   6.207
31348SOL     OW95875   3.002   7.073  13.218
31348SOL    HW195876   3.055   7.152  13.207
31348SOL    HW295877   3.022   7.020  13.142
31349SOL     OW95878   0.141   5.695   6.274
31349SOL    HW195879   0.095   5.778   6.290
31349SOL    HW295880   0.200   5.714   6.201
31350SOL     OW95881   2.172  13.674   3.116
31350SOL    HW195882   2.138  13.586   3.104
31350SOL    HW295883   2.155  13.694   3.208
31351SOL     OW95884   8.044  10.126   0.944
31351SOL    HW195885   7.968  10.169   0.904
31351SOL    HW295886   8.118  10.149   0.888
31352SOL     OW95887  10.244   9.187  14.582
31352SOL    HW195888  10.216   9.173  14.673
31352SOL    HW295889  10.304   9.115  14.564
31353SOL     OW95890   7.590   6.833   7.751
31353SOL    HW195891   7.532   6.808   7.823
31353SOL    HW295892   7.533   6.836   7.674
31354SOL     OW95893   6.346  13.831   0.872
31354SOL    HW195894   6.332  13.885   0.950
31354SOL    HW295895   6.436  13.801   0.879
31355SOL     OW95896   4.458   5.179   4.176
31355SOL    HW195897   4.486   5.211   4.262
31355SOL    HW295898   4.400   5.248   4.143
31356SOL     OW95899   4.392   5.741   3.768
31356SOL    HW195900   4.472   5.783   3.736
31356SOL    HW295901   4.321   5.790   3.726
31357SOL     OW95902  14.786   6.734  10.438
31357SOL    HW195903  14.794   6.642  10.414
31357SOL    HW295904  14.753   6.777  10.360
31358SOL     OW95905   0.860  11.302  10.718
31358SOL    HW195906   0.920  11.256  10.659
31358SOL    HW295907   0.834  11.236  10.782
31359SOL     OW95908  10.106   0.309   8.777
31359SOL    HW195909  10.069   0.221   8.785
31359SOL    HW295910  10.063   0.346   8.699
31360SOL     OW95911  11.474   1.874  11.837
31360SOL    HW195912  11.525   1.944  11.795
31360SOL    HW295913  11.540   1.817  11.876
31361SOL     OW95914  12.662  14.617   8.250
31361SOL    HW195915  12.570  14.623   8.225
31361SOL    HW295916  12.699  14.702   8.228
31362SOL     OW95917   5.130   1.918   4.292
31362SOL    HW195918   5.084   1.912   4.208
31362SOL    HW295919   5.174   2.003   4.289
31363SOL     OW95920   1.947  10.249   8.555
31363SOL    HW195921   2.007  10.181   8.585
31363SOL    HW295922   1.880  10.201   8.506
31364SOL     OW95923   3.952   7.328   6.510
31364SOL    HW195924   3.932   7.371   6.426
31364SOL    HW295925   3.934   7.235   6.495
31365SOL     OW95926   0.053   0.756   2.093
31365SOL    HW195927  14.831   0.741   2.092
31365SOL    HW295928   0.063   0.840   2.138
31366SOL     OW95929   8.898   3.834   8.395
31366SOL    HW195930   8.840   3.902   8.429
31366SOL    HW295931   8.840   3.764   8.366
31367SOL     OW95932   5.622  10.187   0.671
31367SOL    HW195933   5.539  10.221   0.640
31367SOL    HW295934   5.631  10.102   0.628
31368SOL     OW95935  12.623   0.675   2.206
31368SOL    HW195936  12.628   0.618   2.129
31368SOL    HW295937  12.702   0.656   2.255
31369SOL     OW95938   4.673   4.577  13.599
31369SOL    HW195939   4.745   4.532  13.644
31369SOL    HW295940   4.607   4.509  13.587
31370SOL     OW95941   6.900   3.128   0.414
31370SOL    HW195942   6.977   3.112   0.468
31370SOL    HW295943   6.932   3.179   0.340
31371SOL     OW95944  10.873   8.790   8.219
31371SOL    HW195945  10.869   8.699   8.248
31371SOL    HW295946  10.784   8.823   8.231
31372SOL     OW95947   3.049   6.500   4.114
31372SOL    HW195948   2.956   6.480   4.125
31372SOL    HW295949   3.089   6.476   4.197
31373SOL     OW95950   2.799   7.483   4.108
31373SOL    HW195951   2.730   7.540   4.142
31373SOL    HW295952   2.769   7.394   4.129
31374SOL     OW95953   8.120   6.070   4.129
31374SOL    HW195954   8.177   6.119   4.190
31374SOL    HW295955   8.168   5.990   4.110
31375SOL     OW95956   3.417   5.171   3.494
31375SOL    HW195957   3.442   5.158   3.585
31375SOL    HW295958   3.433   5.264   3.477
31376SOL     OW95959   2.771   6.346   7.858
31376SOL    HW195960   2.684   6.349   7.897
31376SOL    HW295961   2.828   6.383   7.926
31377SOL     OW95962   7.672   6.438   5.511
31377SOL    HW195963   7.744   6.473   5.457
31377SOL    HW295964   7.670   6.495   5.588
31378SOL     OW95965   2.506   1.026  12.722
31378SOL    HW195966   2.567   0.966  12.678
31378SOL    HW295967   2.490   1.095  12.657
31379SOL     OW95968  10.640  12.335  12.841
31379SOL    HW195969  10.688  12.376  12.913
31379SOL    HW295970  10.591  12.407  12.800
31380SOL     OW95971   0.678   6.495   3.457
31380SOL    HW195972   0.716   6.515   3.372
31380SOL    HW295973   0.619   6.567   3.475
31381SOL     OW95974   8.428   6.856   5.137
31381SOL    HW195975   8.371   6.797   5.087
31381SOL    HW295976   8.475   6.798   5.197
31382SOL     OW95977   1.095   7.653   4.234
31382SOL    HW195978   1.006   7.683   4.249
31382SOL    HW295979   1.150   7.718   4.278
31383SOL     OW95980   0.571  11.884   3.327
31383SOL    HW195981   0.641  11.837   3.372
31383SOL    HW295982   0.509  11.816   3.300
31384SOL     OW95983   6.326  14.809  13.372
31384SOL    HW195984   6.323   0.031  13.384
31384SOL    HW295985   6.282  14.773  13.449
31385SOL     OW95986  14.600   0.686   7.835
31385SOL    HW195987  14.595   0.670   7.741
31385SOL    HW295988  14.677   0.742   7.846
31386SOL     OW95989  11.755   3.569   9.886
31386SOL    HW195990  11.731   3.543   9.797
31386SOL    HW295991  11.831   3.515   9.907
31387SOL     OW95992   9.604   6.416   0.644
31387SOL    HW195993   9.627   6.447   0.732
31387SOL    HW295994   9.650   6.476   0.585
31388SOL     OW95995   9.980  13.894   1.453
31388SOL    HW195996   9.998  13.882   1.546
31388SOL    HW295997   9.891  13.928   1.449
31389SOL     OW95998  11.029   4.431   9.131
31389SOL    HW195999  10.957   4.425   9.068
31389SOL    HW296000  11.021   4.351   9.184
31390SOL     OW96001   8.500   6.318  10.871
31390SOL    HW196002   8.467   6.255  10.806
31390SOL    HW296003   8.506   6.268  10.952
31391SOL     OW96004  12.008   7.669   3.070
31391SOL    HW196005  12.033   7.759   3.094
31391SOL    HW296006  11.933   7.681   3.011
31392SOL     OW96007   8.147   5.677  14.181
31392SOL    HW196008   8.181   5.737  14.114
31392SOL    HW296009   8.115   5.735  14.251
31393SOL     OW96010   3.851   1.576   6.449
31393SOL    HW196011   3.918   1.643   6.437
31393SOL    HW296012   3.882   1.501   6.397
31394SOL     OW96013   8.177  12.513   2.010
31394SOL    HW196014   8.266  12.544   1.995
31394SOL    HW296015   8.138  12.579   2.068
31395SOL     OW96016  12.513   5.498  12.763
31395SOL    HW196017  12.523   5.421  12.707
31395SOL    HW296018  12.468   5.562  12.709
31396SOL     OW96019   7.655  10.056   0.646
31396SOL    HW196020   7.745  10.051   0.616
31396SOL    HW296021   7.645   9.983   0.706
31397SOL     OW96022   2.963  12.864   1.089
31397SOL    HW196023   3.002  12.946   1.059
31397SOL    HW296024   2.985  12.801   1.021
31398SOL     OW96025  13.219   3.627  10.012
31398SOL    HW196026  13.196   3.662   9.926
31398SOL    HW296027  13.134   3.607  10.053
31399SOL     OW96028  11.440  11.991   9.573
31399SOL    HW196029  11.478  12.050   9.638
31399SOL    HW296030  11.402  11.920   9.625
31400SOL     OW96031   1.573  12.029   4.546
31400SOL    HW196032   1.592  12.024   4.452
31400SOL    HW296033   1.599  11.943   4.580
31401SOL     OW96034   3.463  12.347   5.299
31401SOL    HW196035   3.463  12.435   5.263
31401SOL    HW296036   3.412  12.354   5.380
31402SOL     OW96037   0.523  10.460   6.130
31402SOL    HW196038   0.579  10.505   6.067
31402SOL    HW296039   0.556  10.487   6.215
31403SOL     OW96040   0.363   6.501   6.326
31403SOL    HW196041   0.370   6.422   6.380
31403SOL    HW296042   0.377   6.573   6.388
31404SOL     OW96043   6.063   3.323   4.191
31404SOL    HW196044   6.043   3.411   4.160
31404SOL    HW296045   5.983   3.294   4.234
31405SOL     OW96046   2.348  13.515   5.750
31405SOL    HW196047   2.438  13.485   5.739
31405SOL    HW296048   2.299  13.437   5.776
31406SOL     OW96049  14.692  12.503   3.821
31406SOL    HW196050  14.629  12.557   3.773
31406SOL    HW296051  14.642  12.467   3.894
31407SOL     OW96052   9.331  14.207  12.953
31407SOL    HW196053   9.369  14.120  12.942
31407SOL    HW296054   9.296  14.229  12.867
31408SOL     OW96055  14.382  10.175  14.306
31408SOL    HW196056  14.379  10.109  14.376
31408SOL    HW296057  14.473  10.206  14.307
31409SOL     OW96058   3.141  11.123   0.617
31409SOL    HW196059   3.155  11.215   0.596
31409SOL    HW296060   3.048  11.118   0.641
31410SOL     OW96061  14.205   9.313   2.221
31410SOL    HW196062  14.186   9.302   2.314
31410SOL    HW296063  14.255   9.395   2.217
31411SOL     OW96064  11.033   5.241   4.157
31411SOL    HW196065  11.098   5.171   4.168
31411SOL    HW296066  10.948   5.196   4.166
31412SOL     OW96067   4.028   4.610   4.638
31412SOL    HW196068   3.979   4.540   4.594
31412SOL    HW296069   3.967   4.683   4.643
31413SOL     OW96070   7.631   3.714  13.136
31413SOL    HW196071   7.693   3.642  13.146
31413SOL    HW296072   7.619   3.749  13.224
31414SOL     OW96073  14.337   3.642   2.204
31414SOL    HW196074  14.249   3.614   2.229
31414SOL    HW296075  14.336   3.639   2.108
31415SOL     OW96076  11.648   8.929  14.197
31415SOL    HW196077  11.718   8.865  14.210
31415SOL    HW296078  11.605   8.936  14.282
31416SOL     OW96079   8.335   3.814   1.905
31416SOL    HW196080   8.412   3.866   1.928
31416SOL    HW296081   8.371   3.728   1.880
31417SOL     OW96082   7.376  11.943  10.810
31417SOL    HW196083   7.340  11.990  10.886
31417SOL    HW296084   7.299  11.920  10.758
31418SOL     OW96085  10.858   3.654   3.278
31418SOL    HW196086  10.818   3.740   3.266
31418SOL    HW296087  10.844   3.609   3.195
31419SOL     OW96088   7.971   5.469   1.606
31419SOL    HW196089   7.878   5.479   1.624
31419SOL    HW296090   7.985   5.514   1.522
31420SOL     OW96091  13.655   2.117   2.135
31420SOL    HW196092  13.636   2.156   2.049
31420SOL    HW296093  13.748   2.132   2.149
31421SOL     OW96094   7.057  12.121   8.462
31421SOL    HW196095   6.977  12.114   8.514
31421SOL    HW296096   7.035  12.079   8.378
31422SOL     OW96097  14.160   5.434   7.750
31422SOL    HW196098  14.120   5.472   7.828
31422SOL    HW296099  14.110   5.354   7.734
31423SOL     OW96100  14.037   9.400  10.962
31423SOL    HW196101  14.015   9.491  10.941
31423SOL    HW296102  13.962   9.349  10.931
31424SOL     OW96103  14.298   7.334   9.630
31424SOL    HW196104  14.242   7.271   9.585
31424SOL    HW296105  14.316   7.401   9.565
31425SOL     OW96106   1.892  10.211  12.762
31425SOL    HW196107   1.909  10.210  12.857
31425SOL    HW296108   1.932  10.131  12.730
31426SOL     OW96109   3.626  11.325   1.541
31426SOL    HW196110   3.631  11.238   1.581
31426SOL    HW296111   3.715  11.343   1.513
31427SOL     OW96112   6.301  12.784   7.223
31427SOL    HW196113   6.300  12.690   7.244
31427SOL    HW296114   6.258  12.825   7.299
31428SOL     OW96115  11.694  12.839  14.612
31428SOL    HW196116  11.709  12.766  14.671
31428SOL    HW296117  11.771  12.839  14.554
31429SOL     OW96118  14.558   0.855  10.863
31429SOL    HW196119  14.492   0.833  10.929
31429SOL    HW296120  14.609   0.775  10.852
31430SOL     OW96121   2.401   7.646  12.156
31430SOL    HW196122   2.418   7.725  12.208
31430SOL    HW296123   2.337   7.674  12.091
31431SOL     OW96124   1.034   0.746  11.653
31431SOL    HW196125   1.123   0.751  11.616
31431SOL    HW296126   1.047   0.732  11.746
31432SOL     OW96127   2.796   8.285  13.564
31432SOL    HW196128   2.731   8.277  13.634
31432SOL    HW296129   2.765   8.358  13.511
31433SOL     OW96130   0.553   6.056   8.610
31433SOL    HW196131   0.589   5.994   8.673
31433SOL    HW296132   0.623   6.068   8.545
31434SOL     OW96133   1.473   4.051   5.709
31434SOL    HW196134   1.384   4.025   5.686
31434SOL    HW296135   1.521   3.968   5.716
31435SOL     OW96136   6.240  12.162  12.184
31435SOL    HW196137   6.167  12.198  12.235
31435SOL    HW296138   6.228  12.067  12.189
31436SOL     OW96139   5.995   6.604  12.321
31436SOL    HW196140   6.019   6.517  12.352
31436SOL    HW296141   5.899   6.603  12.316
31437SOL     OW96142  10.687   8.222   1.965
31437SOL    HW196143  10.650   8.189   2.047
31437SOL    HW296144  10.734   8.302   1.990
31438SOL     OW96145   3.796   8.212  14.427
31438SOL    HW196146   3.793   8.127  14.382
31438SOL    HW296147   3.739   8.268  14.375
31439SOL     OW96148   2.910   9.695   8.998
31439SOL    HW196149   2.835   9.748   9.025
31439SOL    HW296150   2.984   9.755   9.005
31440SOL     OW96151  14.151   1.354  10.464
31440SOL    HW196152  14.085   1.291  10.435
31440SOL    HW296153  14.143   1.427  10.404
31441SOL     OW96154   1.386   9.381   3.325
31441SOL    HW196155   1.422   9.391   3.237
31441SOL    HW296156   1.334   9.461   3.339
31442SOL     OW96157   5.976   7.232   4.384
31442SOL    HW196158   5.966   7.302   4.448
31442SOL    HW296159   6.026   7.164   4.430
31443SOL     OW96160   6.179   0.117   3.357
31443SOL    HW196161   6.245   0.187   3.363
31443SOL    HW296162   6.184   0.074   3.443
31444SOL     OW96163  10.849   7.240  13.380
31444SOL    HW196164  10.802   7.294  13.443
31444SOL    HW296165  10.898   7.178  13.433
31445SOL     OW96166  13.957   3.061   3.712
31445SOL    HW196167  13.874   3.039   3.670
31445SOL    HW296168  13.936   3.064   3.805
31446SOL     OW96169  10.200   7.698  10.963
31446SOL    HW196170  10.213   7.723  11.055
31446SOL    HW296171  10.236   7.610  10.957
31447SOL     OW96172   0.979   0.090   1.447
31447SOL    HW196173   0.980   0.186   1.455
31447SOL    HW296174   1.039   0.073   1.374
31448SOL     OW96175  12.418  13.160  10.946
31448SOL    HW196176  12.433  13.247  10.908
31448SOL    HW296177  12.323  13.156  10.959
31449SOL     OW96178  10.721   2.125   6.323
31449SOL    HW196179  10.810   2.148   6.350
31449SOL    HW296180  10.718   2.147   6.230
31450SOL     OW96181   1.425   4.551   7.952
31450SOL    HW196182   1.381   4.542   8.037
31450SOL    HW296183   1.354   4.574   7.892
31451SOL     OW96184   9.189  13.666  11.505
31451SOL    HW196185   9.153  13.643  11.419
31451SOL    HW296186   9.156  13.754  11.522
31452SOL     OW96187  10.772  10.465   3.118
31452SOL    HW196188  10.843  10.426   3.169
31452SOL    HW296189  10.694  10.418   3.146
31453SOL     OW96190   6.085   3.860  13.262
31453SOL    HW196191   6.132   3.779  13.285
31453SOL    HW296192   5.993   3.832  13.253
31454SOL     OW96193   6.090  13.573   8.774
31454SOL    HW196194   6.103  13.593   8.682
31454SOL    HW296195   6.046  13.488   8.774
31455SOL     OW96196   2.100   5.434   5.390
31455SOL    HW196197   2.179   5.402   5.347
31455SOL    HW296198   2.030   5.416   5.327
31456SOL     OW96199   2.510  10.176   4.774
31456SOL    HW196200   2.524  10.270   4.760
31456SOL    HW296201   2.585  10.147   4.826
31457SOL     OW96202   8.255   0.899  13.988
31457SOL    HW196203   8.200   0.978  13.987
31457SOL    HW296204   8.342   0.931  13.967
31458SOL     OW96205   2.138   4.676   8.636
31458SOL    HW196206   2.204   4.688   8.568
31458SOL    HW296207   2.181   4.705   8.716
31459SOL     OW96208   0.303  10.248  10.557
31459SOL    HW196209   0.224  10.236  10.610
31459SOL    HW296210   0.270  10.265  10.469
31460SOL     OW96211   1.387  10.599   9.799
31460SOL    HW196212   1.324  10.671   9.810
31460SOL    HW296213   1.339  10.533   9.748
31461SOL     OW96214   5.384   7.229   5.316
31461SOL    HW196215   5.305   7.178   5.296
31461SOL    HW296216   5.354   7.320   5.315
31462SOL     OW96217  12.124   2.716   1.351
31462SOL    HW196218  12.079   2.697   1.434
31462SOL    HW296219  12.194   2.777   1.375
31463SOL     OW96220   9.583   6.749  10.123
31463SOL    HW196221   9.614   6.772  10.036
31463SOL    HW296222   9.656   6.768  10.181
31464SOL     OW96223   8.156   4.322  13.671
31464SOL    HW196224   8.102   4.399  13.653
31464SOL    HW296225   8.242   4.343  13.634
31465SOL     OW96226   4.908   9.248   5.688
31465SOL    HW196227   4.992   9.259   5.732
31465SOL    HW296228   4.931   9.220   5.599
31466SOL     OW96229   4.196  10.877   8.931
31466SOL    HW196230   4.158  10.964   8.918
31466SOL    HW296231   4.271  10.874   8.871
31467SOL     OW96232  10.359   8.858   1.603
31467SOL    HW196233  10.415   8.931   1.576
31467SOL    HW296234  10.420   8.788   1.625
31468SOL     OW96235   3.406   1.426  13.948
31468SOL    HW196236   3.385   1.342  13.907
31468SOL    HW296237   3.384   1.491  13.881
31469SOL     OW96238   5.063   8.695   9.785
31469SOL    HW196239   5.150   8.734   9.781
31469SOL    HW296240   5.062   8.647   9.868
31470SOL     OW96241   1.197   3.667   1.121
31470SOL    HW196242   1.175   3.671   1.214
31470SOL    HW296243   1.249   3.587   1.112
31471SOL     OW96244   4.199  11.248  12.849
31471SOL    HW196245   4.235  11.242  12.937
31471SOL    HW296246   4.105  11.259  12.862
31472SOL     OW96247  13.016   1.032  10.084
31472SOL    HW196248  13.008   0.942  10.117
31472SOL    HW296249  13.104   1.059  10.109
31473SOL     OW96250   4.766  14.836   8.261
31473SOL    HW196251   4.816  14.853   8.181
31473SOL    HW296252   4.831  14.801   8.323
31474SOL     OW96253   6.925  10.385   8.936
31474SOL    HW196254   6.914  10.456   8.999
31474SOL    HW296255   6.837  10.368   8.904
31475SOL     OW96256   4.615   1.405  12.542
31475SOL    HW196257   4.585   1.327  12.588
31475SOL    HW296258   4.636   1.375  12.454
31476SOL     OW96259   3.927   3.923   8.718
31476SOL    HW196260   3.912   3.853   8.782
31476SOL    HW296261   3.839   3.956   8.699
31477SOL     OW96262   2.739   9.054  14.724
31477SOL    HW196263   2.761   8.981  14.781
31477SOL    HW296264   2.670   9.020  14.667
31478SOL     OW96265  12.548   7.087   2.658
31478SOL    HW196266  12.567   7.130   2.574
31478SOL    HW296267  12.633   7.055   2.688
31479SOL     OW96268  13.349  10.294   4.365
31479SOL    HW196269  13.268  10.340   4.340
31479SOL    HW296270  13.357  10.224   4.301
31480SOL     OW96271   9.552   1.922   1.033
31480SOL    HW196272   9.483   1.929   0.967
31480SOL    HW296273   9.543   1.833   1.068
31481SOL     OW96274  10.051   5.148  12.357
31481SOL    HW196275   9.987   5.126  12.425
31481SOL    HW296276  10.004   5.136  12.275
31482SOL     OW96277   1.464   5.854   2.669
31482SOL    HW196278   1.369   5.854   2.656
31482SOL    HW296279   1.500   5.840   2.581
31483SOL     OW96280  12.563  14.672   4.771
31483SOL    HW196281  12.567  14.685   4.676
31483SOL    HW296282  12.653  14.689   4.801
31484SOL     OW96283   1.455   9.134   2.930
31484SOL    HW196284   1.418   9.094   2.851
31484SOL    HW296285   1.483   9.221   2.902
31485SOL     OW96286   0.348  13.934  14.826
31485SOL    HW196287   0.256  13.958  14.831
31485SOL    HW296288   0.371  13.944  14.734
31486SOL     OW96289   7.309  12.461  14.747
31486SOL    HW196290   7.327  12.431  14.658
31486SOL    HW296291   7.391  12.502  14.776
31487SOL     OW96292  11.597  14.139   8.526
31487SOL    HW196293  11.621  14.231   8.512
31487SOL    HW296294  11.561  14.110   8.442
31488SOL     OW96295   6.732   7.403   3.260
31488SOL    HW196296   6.758   7.324   3.307
31488SOL    HW296297   6.740   7.474   3.324
31489SOL     OW96298  10.880   0.814  14.335
31489SOL    HW196299  10.913   0.897  14.300
31489SOL    HW296300  10.802   0.795  14.284
31490SOL     OW96301   7.208  13.411   8.908
31490SOL    HW196302   7.254  13.493   8.886
31490SOL    HW296303   7.274  13.343   8.897
31491SOL     OW96304   5.231   2.708   0.273
31491SOL    HW196305   5.250   2.638   0.210
31491SOL    HW296306   5.315   2.724   0.316
31492SOL     OW96307   5.954   5.692   6.005
31492SOL    HW196308   5.876   5.747   6.001
31492SOL    HW296309   5.921   5.605   6.025
31493SOL     OW96310  11.406  13.607  12.808
31493SOL    HW196311  11.464  13.623  12.883
31493SOL    HW296312  11.412  13.687  12.756
31494SOL     OW96313   9.595  14.517   4.790
31494SOL    HW196314   9.557  14.590   4.741
31494SOL    HW296315   9.689  14.522   4.773
31495SOL     OW96316   8.402   2.382   4.273
31495SOL    HW196317   8.310   2.399   4.291
31495SOL    HW296318   8.402   2.338   4.188
31496SOL     OW96319   9.610   3.650   8.325
31496SOL    HW196320   9.611   3.692   8.411
31496SOL    HW296321   9.541   3.695   8.277
31497SOL     OW96322   9.329   6.699   5.689
31497SOL    HW196323   9.347   6.763   5.620
31497SOL    HW296324   9.413   6.688   5.734
31498SOL     OW96325   4.068   8.802   5.952
31498SOL    HW196326   4.072   8.875   5.889
31498SOL    HW296327   4.007   8.740   5.913
31499SOL     OW96328  13.115   9.910   8.308
31499SOL    HW196329  13.160   9.830   8.281
31499SOL    HW296330  13.084   9.948   8.226
31500SOL     OW96331   4.020  11.791   9.183
31500SOL    HW196332   4.116  11.791   9.174
31500SOL    HW296333   4.005  11.820   9.273
31501SOL     OW96334   5.955  14.195   5.023
31501SOL    HW196335   5.896  14.251   5.073
31501SOL    HW296336   5.935  14.216   4.931
31502SOL     OW96337   5.296   0.493   3.097
31502SOL    HW196338   5.364   0.428   3.076
31502SOL    HW296339   5.215   0.442   3.101
31503SOL     OW96340  11.399  10.715   7.767
31503SOL    HW196341  11.447  10.648   7.816
31503SOL    HW296342  11.307  10.695   7.783
31504SOL     OW96343  12.874  11.783   2.323
31504SOL    HW196344  12.836  11.855   2.272
31504SOL    HW296345  12.907  11.825   2.402
31505SOL     OW96346   9.938  13.210  13.335
31505SOL    HW196347   9.865  13.232  13.278
31505SOL    HW296348   9.996  13.155  13.281
31506SOL     OW96349   3.231   1.834  11.279
31506SOL    HW196350   3.184   1.910  11.244
31506SOL    HW296351   3.259   1.861  11.366
31507SOL     OW96352  14.367   5.336   8.437
31507SOL    HW196353  14.450   5.343   8.389
31507SOL    HW296354  14.391   5.350   8.528
31508SOL     OW96355   9.068   5.079   8.876
31508SOL    HW196356   9.003   5.150   8.877
31508SOL    HW296357   9.022   5.004   8.915
31509SOL     OW96358   7.194   8.406   2.542
31509SOL    HW196359   7.289   8.394   2.550
31509SOL    HW296360   7.160   8.317   2.534
31510SOL     OW96361   4.906   0.118   6.931
31510SOL    HW196362   4.825   0.127   6.980
31510SOL    HW296363   4.952   0.046   6.975
31511SOL     OW96364   6.799  10.945  11.528
31511SOL    HW196365   6.792  10.911  11.618
31511SOL    HW296366   6.846  10.876  11.481
31512SOL     OW96367  12.651   4.058  10.696
31512SOL    HW196368  12.613   3.978  10.660
31512SOL    HW296369  12.587   4.087  10.761
31513SOL     OW96370   7.837   2.494   1.921
31513SOL    HW196371   7.890   2.491   2.001
31513SOL    HW296372   7.807   2.585   1.916
31514SOL     OW96373   0.403   8.455  14.827
31514SOL    HW196374   0.370   8.385   0.011
31514SOL    HW296375   0.494   8.466  14.855
31515SOL     OW96376  11.265   5.060   6.315
31515SOL    HW196377  11.276   5.000   6.241
31515SOL    HW296378  11.172   5.081   6.315
31516SOL     OW96379   0.630   5.387   7.301
31516SOL    HW196380   0.572   5.324   7.344
31516SOL    HW296381   0.570   5.453   7.265
31517SOL     OW96382   8.982   3.570   9.326
31517SOL    HW196383   8.997   3.526   9.410
31517SOL    HW296384   9.069   3.578   9.287
31518SOL     OW96385   3.662  12.043   5.984
31518SOL    HW196386   3.755  12.020   5.990
31518SOL    HW296387   3.633  12.005   5.901
31519SOL     OW96388  13.309   6.994   1.611
31519SOL    HW196389  13.344   7.079   1.639
31519SOL    HW296390  13.233   7.016   1.557
31520SOL     OW96391   0.579   9.768  11.991
31520SOL    HW196392   0.523   9.744  11.917
31520SOL    HW296393   0.590   9.862  11.984
31521SOL     OW96394  11.979   5.820   5.123
31521SOL    HW196395  12.003   5.729   5.107
31521SOL    HW296396  12.001   5.834   5.216
31522SOL     OW96397  10.626  13.640   3.796
31522SOL    HW196398  10.585  13.702   3.856
31522SOL    HW296399  10.695  13.598   3.848
31523SOL     OW96400   0.279   6.623   4.409
31523SOL    HW196401   0.309   6.626   4.318
31523SOL    HW296402   0.329   6.692   4.453
31524SOL     OW96403   9.251   4.984   2.631
31524SOL    HW196404   9.309   5.055   2.606
31524SOL    HW296405   9.310   4.918   2.670
31525SOL     OW96406   7.788  13.303   6.667
31525SOL    HW196407   7.809  13.243   6.737
31525SOL    HW296408   7.692  13.305   6.664
31526SOL     OW96409  14.327   8.890  13.394
31526SOL    HW196410  14.421   8.898  13.413
31526SOL    HW296411  14.323   8.826  13.323
31527SOL     OW96412   8.128   4.818   5.171
31527SOL    HW196413   8.134   4.826   5.266
31527SOL    HW296414   8.084   4.898   5.142
31528SOL     OW96415  11.808   6.178   3.711
31528SOL    HW196416  11.762   6.260   3.727
31528SOL    HW296417  11.764   6.115   3.769
31529SOL     OW96418  13.238  12.853  14.507
31529SOL    HW196419  13.242  12.805  14.424
31529SOL    HW296420  13.302  12.809  14.563
31530SOL     OW96421   6.198   7.753   3.867
31530SOL    HW196422   6.157   7.755   3.953
31530SOL    HW296423   6.127   7.772   3.805
31531SOL     OW96424   5.012  11.508  14.487
31531SOL    HW196425   4.974  11.509  14.575
31531SOL    HW296426   4.997  11.419  14.455
31532SOL     OW96427  14.666   1.419   7.771
31532SOL    HW196428  14.703   1.352   7.828
31532SOL    HW296429  14.630   1.485   7.830
31533SOL     OW96430  12.818   8.440   5.867
31533SOL    HW196431  12.775   8.494   5.933
31533SOL    HW296432  12.908   8.473   5.863
31534SOL     OW96433  11.333   4.128   1.917
31534SOL    HW196434  11.308   4.214   1.950
31534SOL    HW296435  11.428   4.122   1.933
31535SOL     OW96436   4.162   3.236   0.505
31535SOL    HW196437   4.227   3.169   0.523
31535SOL    HW296438   4.086   3.210   0.557
31536SOL     OW96439   5.197   2.899   7.145
31536SOL    HW196440   5.132   2.858   7.203
31536SOL    HW296441   5.276   2.906   7.198
31537SOL     OW96442   3.095  10.194  11.798
31537SOL    HW196443   3.059  10.123  11.745
31537SOL    HW296444   3.050  10.187  11.882
31538SOL     OW96445   2.695   6.075   4.088
31538SOL    HW196446   2.710   5.981   4.077
31538SOL    HW296447   2.696   6.110   3.999
31539SOL     OW96448   3.467   3.781   7.402
31539SOL    HW196449   3.430   3.832   7.474
31539SOL    HW296450   3.517   3.711   7.444
31540SOL     OW96451   9.372   3.516   5.958
31540SOL    HW196452   9.315   3.479   6.025
31540SOL    HW296453   9.373   3.451   5.888
31541SOL     OW96454   8.259   5.570  11.772
31541SOL    HW196455   8.347   5.592  11.802
31541SOL    HW296456   8.266   5.564  11.677
31542SOL     OW96457  10.924   8.521   6.017
31542SOL    HW196458  10.914   8.526   6.112
31542SOL    HW296459  10.899   8.431   5.995
31543SOL     OW96460   2.814   2.016   8.443
31543SOL    HW196461   2.821   2.111   8.449
31543SOL    HW296462   2.779   1.988   8.527
31544SOL     OW96463  12.005   9.682   2.199
31544SOL    HW196464  12.090   9.725   2.188
31544SOL    HW296465  11.992   9.678   2.293
31545SOL     OW96466   3.567   8.993  12.986
31545SOL    HW196467   3.482   8.962  12.956
31545SOL    HW296468   3.615   8.914  13.008
31546SOL     OW96469  10.305   7.068   6.882
31546SOL    HW196470  10.367   7.049   6.952
31546SOL    HW296471  10.224   7.024   6.908
31547SOL     OW96472   9.678   2.816   3.237
31547SOL    HW196473   9.665   2.854   3.324
31547SOL    HW296474   9.592   2.781   3.214
31548SOL     OW96475   6.453   0.249  10.403
31548SOL    HW196476   6.548   0.238  10.390
31548SOL    HW296477   6.440   0.343  10.401
31549SOL     OW96478   0.139   9.295  10.161
31549SOL    HW196479   0.051   9.301  10.199
31549SOL    HW296480   0.198   9.290  10.236
31550SOL     OW96481  13.224   9.012   8.292
31550SOL    HW196482  13.169   8.973   8.360
31550SOL    HW296483  13.172   9.002   8.212
31551SOL     OW96484   3.897   6.940   2.248
31551SOL    HW196485   3.895   6.960   2.341
31551SOL    HW296486   3.990   6.932   2.227
31552SOL     OW96487   4.860  14.730   5.840
31552SOL    HW196488   4.935  14.789   5.835
31552SOL    HW296489   4.861  14.698   5.930
31553SOL     OW96490  10.974  10.089   7.314
31553SOL    HW196491  11.051  10.073   7.369
31553SOL    HW296492  10.939  10.003   7.295
31554SOL     OW96493   4.337   6.629   5.437
31554SOL    HW196494   4.423   6.644   5.397
31554SOL    HW296495   4.294   6.715   5.434
31555SOL     OW96496  14.032  11.887   2.177
31555SOL    HW196497  14.017  11.836   2.098
31555SOL    HW296498  13.993  11.972   2.158
31556SOL     OW96499   3.459  11.451  14.813
31556SOL    HW196500   3.441  11.479  14.723
31556SOL    HW296501   3.487  11.360  14.805
31557SOL     OW96502  13.572   4.577  10.814
31557SOL    HW196503  13.533   4.557  10.730
31557SOL    HW296504  13.627   4.654  10.798
31558SOL     OW96505   1.566  10.555   3.962
31558SOL    HW196506   1.481  10.513   3.950
31558SOL    HW296507   1.545  10.643   3.994
31559SOL     OW96508   3.641  11.048   3.413
31559SOL    HW196509   3.603  10.992   3.481
31559SOL    HW296510   3.574  11.115   3.398
31560SOL     OW96511   2.138  12.087   2.569
31560SOL    HW196512   2.104  12.023   2.505
31560SOL    HW296513   2.176  12.156   2.515
31561SOL     OW96514   7.590  13.244  11.759
31561SOL    HW196515   7.501  13.266  11.788
31561SOL    HW296516   7.585  13.152  11.735
31562SOL     OW96517   2.050   9.331  11.771
31562SOL    HW196518   2.072   9.418  11.805
31562SOL    HW296519   1.958   9.319  11.794
31563SOL     OW96520   3.875   7.111   8.353
31563SOL    HW196521   3.825   7.041   8.393
31563SOL    HW296522   3.898   7.078   8.266
31564SOL     OW96523   4.264   0.926   9.467
31564SOL    HW196524   4.249   0.891   9.555
31564SOL    HW296525   4.189   0.983   9.450
31565SOL     OW96526   7.876   6.997   3.259
31565SOL    HW196527   7.916   7.072   3.217
31565SOL    HW296528   7.789   7.027   3.285
31566SOL     OW96529   0.127   8.386   4.092
31566SOL    HW196530   0.173   8.347   4.166
31566SOL    HW296531   0.171   8.470   4.077
31567SOL     OW96532   6.693   2.444   1.589
31567SOL    HW196533   6.688   2.532   1.551
31567SOL    HW296534   6.645   2.451   1.672
31568SOL     OW96535   3.257  14.740  11.462
31568SOL    HW196536   3.350  14.743  11.484
31568SOL    HW296537   3.250  14.673  11.393
31569SOL     OW96538  10.002  13.870   1.914
31569SOL    HW196539  10.082  13.916   1.888
31569SOL    HW296540   9.944  13.876   1.839
31570SOL     OW96541   8.705   4.867   1.609
31570SOL    HW196542   8.682   4.890   1.699
31570SOL    HW296543   8.622   4.869   1.562
31571SOL     OW96544  10.406   2.798  11.254
31571SOL    HW196545  10.459   2.857  11.308
31571SOL    HW296546  10.318   2.834  11.258
31572SOL     OW96547  13.039   2.314  11.657
31572SOL    HW196548  12.957   2.326  11.703
31572SOL    HW296549  13.017   2.258  11.582
31573SOL     OW96550  14.643   4.781   8.861
31573SOL    HW196551  14.732   4.812   8.877
31573SOL    HW296552  14.593   4.860   8.844
31574SOL     OW96553   9.201   2.134   4.734
31574SOL    HW196554   9.280   2.151   4.786
31574SOL    HW296555   9.140   2.203   4.760
31575SOL     OW96556   4.258   3.421  10.361
31575SOL    HW196557   4.241   3.331  10.390
31575SOL    HW296558   4.353   3.426  10.355
31576SOL     OW96559   5.451  12.936   0.759
31576SOL    HW196560   5.516  12.892   0.814
31576SOL    HW296561   5.367  12.914   0.798
31577SOL     OW96562   9.674   5.043   4.310
31577SOL    HW196563   9.750   5.049   4.367
31577SOL    HW296564   9.600   5.030   4.369
31578SOL     OW96565   4.028   8.423   7.759
31578SOL    HW196566   3.956   8.364   7.781
31578SOL    HW296567   4.096   8.366   7.724
31579SOL     OW96568   8.834   6.898   3.591
31579SOL    HW196569   8.854   6.864   3.504
31579SOL    HW296570   8.906   6.868   3.646
31580SOL     OW96571   7.664   6.089   0.629
31580SOL    HW196572   7.695   6.002   0.604
31580SOL    HW296573   7.602   6.113   0.560
31581SOL     OW96574   4.567   7.392   6.631
31581SOL    HW196575   4.622   7.464   6.660
31581SOL    HW296576   4.626   7.334   6.583
31582SOL     OW96577  10.464   2.639   5.237
31582SOL    HW196578  10.419   2.565   5.196
31582SOL    HW296579  10.403   2.712   5.226
31583SOL     OW96580  13.157   1.552  13.767
31583SOL    HW196581  13.084   1.596  13.724
31583SOL    HW296582  13.118   1.475  13.809
31584SOL     OW96583  11.026  14.441  11.289
31584SOL    HW196584  10.969  14.517  11.297
31584SOL    HW296585  11.113  14.478  11.273
31585SOL     OW96586  10.937   6.073   0.385
31585SOL    HW196587  10.973   6.149   0.430
31585SOL    HW296588  10.990   6.064   0.306
31586SOL     OW96589   7.583   8.620   4.261
31586SOL    HW196590   7.648   8.680   4.227
31586SOL    HW296591   7.633   8.552   4.306
31587SOL     OW96592  12.075   3.135   5.262
31587SOL    HW196593  12.100   3.044   5.279
31587SOL    HW296594  12.023   3.132   5.182
31588SOL     OW96595   0.196  13.973  11.710
31588SOL    HW196596   0.112  13.986  11.754
31588SOL    HW296597   0.203  14.048  11.650
31589SOL     OW96598   8.334   5.974   2.912
31589SOL    HW196599   8.264   5.933   2.963
31589SOL    HW296600   8.310   5.958   2.821
31590SOL     OW96601   6.615   9.201   5.821
31590SOL    HW196602   6.582   9.198   5.910
31590SOL    HW296603   6.552   9.256   5.774
31591SOL     OW96604   5.428   6.904  12.273
31591SOL    HW196605   5.403   6.826  12.322
31591SOL    HW296606   5.521   6.916  12.294
31592SOL     OW96607  11.500   5.501   5.815
31592SOL    HW196608  11.532   5.456   5.894
31592SOL    HW296609  11.573   5.555   5.787
31593SOL     OW96610  13.574   8.562   0.628
31593SOL    HW196611  13.564   8.585   0.536
31593SOL    HW296612  13.668   8.573   0.645
31594SOL     OW96613   9.710  13.955   1.485
31594SOL    HW196614   9.642  13.912   1.433
31594SOL    HW296615   9.726  14.038   1.440
31595SOL     OW96616   1.741  10.380   7.542
31595SOL    HW196617   1.820  10.336   7.510
31595SOL    HW296618   1.671  10.317   7.525
31596SOL     OW96619  14.292  11.498   3.936
31596SOL    HW196620  14.206  11.525   3.903
31596SOL    HW296621  14.277  11.411   3.972
31597SOL     OW96622   4.565   4.922   3.355
31597SOL    HW196623   4.506   4.997   3.345
31597SOL    HW296624   4.515   4.860   3.407
31598SOL     OW96625   3.446   6.174   7.477
31598SOL    HW196626   3.420   6.265   7.464
31598SOL    HW296627   3.466   6.168   7.571
31599SOL     OW96628  10.756  13.111   4.551
31599SOL    HW196629  10.782  13.030   4.506
31599SOL    HW296630  10.827  13.172   4.533
31600SOL     OW96631   3.424  12.119   4.810
31600SOL    HW196632   3.466  12.152   4.889
31600SOL    HW296633   3.348  12.176   4.798
31601SOL     OW96634  14.663   1.506   5.435
31601SOL    HW196635  14.572   1.480   5.426
31601SOL    HW296636  14.678   1.508   5.530
31602SOL     OW96637  13.473   2.872   7.062
31602SOL    HW196638  13.423   2.906   7.136
31602SOL    HW296639  13.476   2.943   6.999
31603SOL     OW96640  12.513   5.570   0.887
31603SOL    HW196641  12.476   5.483   0.906
31603SOL    HW296642  12.501   5.581   0.793
31604SOL     OW96643   9.860   1.691   2.759
31604SOL    HW196644   9.931   1.662   2.816
31604SOL    HW296645   9.780   1.676   2.809
31605SOL     OW96646   0.406   1.299   1.629
31605SOL    HW196647   0.345   1.229   1.605
31605SOL    HW296648   0.392   1.367   1.563
31606SOL     OW96649   2.938  14.839  10.478
31606SOL    HW196650   2.964  14.847  10.570
31606SOL    HW296651   2.946  14.746  10.459
31607SOL     OW96652   9.939   5.270   7.425
31607SOL    HW196653   9.896   5.333   7.482
31607SOL    HW296654   9.916   5.184   7.462
31608SOL     OW96655  14.416   7.532  13.295
31608SOL    HW196656  14.350   7.492  13.352
31608SOL    HW296657  14.445   7.462  13.238
31609SOL     OW96658   6.499   6.461  11.208
31609SOL    HW196659   6.540   6.415  11.135
31609SOL    HW296660   6.569   6.468  11.274
31610SOL     OW96661  13.181  14.001   3.520
31610SOL    HW196662  13.126  14.027   3.594
31610SOL    HW296663  13.248  14.069   3.514
31611SOL     OW96664  12.597   0.584  11.567
31611SOL    HW196665  12.660   0.656  11.559
31611SOL    HW296666  12.647   0.513  11.607
31612SOL     OW96667   8.125  12.121   3.556
31612SOL    HW196668   8.103  12.071   3.635
31612SOL    HW296669   8.198  12.072   3.517
31613SOL     OW96670   3.214   5.049  13.886
31613SOL    HW196671   3.145   5.004  13.837
31613SOL    HW296672   3.192   5.142  13.879
31614SOL     OW96673   7.111   3.082   0.904
31614SOL    HW196674   7.146   3.160   0.859
31614SOL    HW296675   7.188   3.026   0.916
31615SOL     OW96676   5.333   0.818   8.135
31615SOL    HW196677   5.264   0.764   8.096
31615SOL    HW296678   5.366   0.871   8.062
31616SOL     OW96679   1.861  10.996   7.290
31616SOL    HW196680   1.932  10.979   7.353
31616SOL    HW296681   1.876  11.085   7.261
31617SOL     OW96682   3.469   7.136  13.952
31617SOL    HW196683   3.514   7.113  13.871
31617SOL    HW296684   3.517   7.088  14.021
31618SOL     OW96685   1.361   5.642   2.435
31618SOL    HW196686   1.287   5.702   2.420
31618SOL    HW296687   1.351   5.614   2.526
31619SOL     OW96688   2.976   1.782   7.269
31619SOL    HW196689   3.020   1.729   7.202
31619SOL    HW296690   2.901   1.820   7.223
31620SOL     OW96691   5.538  13.457  14.724
31620SOL    HW196692   5.470  13.407  14.680
31620SOL    HW296693   5.515  13.453  14.817
31621SOL     OW96694   1.551  14.330  12.646
31621SOL    HW196695   1.519  14.249  12.607
31621SOL    HW296696   1.552  14.394  12.574
31622SOL     OW96697   9.030   6.680  12.377
31622SOL    HW196698   9.014   6.623  12.302
31622SOL    HW296699   9.086   6.750  12.342
31623SOL     OW96700  12.114   7.630   5.189
31623SOL    HW196701  12.026   7.621   5.225
31623SOL    HW296702  12.101   7.633   5.094
31624SOL     OW96703  14.442  14.257   5.170
31624SOL    HW196704  14.391  14.302   5.103
31624SOL    HW296705  14.394  14.274   5.251
31625SOL     OW96706  13.274   2.783   8.802
31625SOL    HW196707  13.314   2.698   8.819
31625SOL    HW296708  13.180   2.769   8.816
31626SOL     OW96709  11.013  13.905   1.530
31626SOL    HW196710  11.042  13.969   1.594
31626SOL    HW296711  10.997  13.825   1.580
31627SOL     OW96712   4.815  14.539   3.107
31627SOL    HW196713   4.887  14.506   3.160
31627SOL    HW296714   4.772  14.604   3.162
31628SOL     OW96715   0.285   9.069   0.153
31628SOL    HW196716   0.354   9.047   0.092
31628SOL    HW296717   0.284   9.165   0.154
31629SOL     OW96718   0.361   9.044   0.473
31629SOL    HW196719   0.299   9.044   0.400
31629SOL    HW296720   0.438   8.999   0.438
31630SOL     OW96721   5.929   7.468  10.768
31630SOL    HW196722   5.916   7.561  10.747
31630SOL    HW296723   6.024   7.457  10.773
31631SOL     OW96724   8.444   8.323   3.152
31631SOL    HW196725   8.362   8.296   3.193
31631SOL    HW296726   8.477   8.244   3.110
31632SOL     OW96727  13.758  12.637   2.981
31632SOL    HW196728  13.760  12.657   2.887
31632SOL    HW296729  13.795  12.549   2.987
31633SOL     OW96730   0.455  14.505  12.607
31633SOL    HW196731   0.364  14.535  12.612
31633SOL    HW296732   0.450  14.422  12.560
31634SOL     OW96733   8.707  13.552   4.701
31634SOL    HW196734   8.705  13.635   4.654
31634SOL    HW296735   8.794  13.516   4.684
31635SOL     OW96736   3.838   8.180   9.593
31635SOL    HW196737   3.876   8.184   9.681
31635SOL    HW296738   3.794   8.095   9.590
31636SOL     OW96739   2.619   3.717  10.703
31636SOL    HW196740   2.528   3.746  10.711
31636SOL    HW296741   2.667   3.776  10.762
31637SOL     OW96742   5.615   8.416   4.484
31637SOL    HW196743   5.684   8.389   4.423
31637SOL    HW296744   5.662   8.435   4.565
31638SOL     OW96745  14.111   5.925  10.458
31638SOL    HW196746  14.185   5.875  10.422
31638SOL    HW296747  14.107   5.898  10.550
31639SOL     OW96748   2.405   2.855   4.898
31639SOL    HW196749   2.432   2.937   4.939
31639SOL    HW296750   2.350   2.881   4.824
31640SOL     OW96751   0.401  11.214  13.597
31640SOL    HW196752   0.420  11.298  13.556
31640SOL    HW296753   0.310  11.222  13.628
31641SOL     OW96754  11.484  14.816   2.722
31641SOL    HW196755  11.409  14.774   2.765
31641SOL    HW296756  11.525  14.746   2.671
31642SOL     OW96757   7.617   7.545   6.007
31642SOL    HW196758   7.545   7.488   5.982
31642SOL    HW296759   7.577   7.611   6.064
31643SOL     OW96760   4.732   6.959   7.543
31643SOL    HW196761   4.759   7.038   7.497
31643SOL    HW296762   4.699   6.990   7.627
31644SOL     OW96763   9.214   9.330  12.834
31644SOL    HW196764   9.187   9.342  12.743
31644SOL    HW296765   9.253   9.414  12.859
31645SOL     OW96766   7.406   7.394   5.646
31645SOL    HW196767   7.325   7.346   5.627
31645SOL    HW296768   7.407   7.401   5.742
31646SOL     OW96769   9.211   0.270  14.302
31646SOL    HW196770   9.193   0.188  14.348
31646SOL    HW296771   9.304   0.263  14.277
31647SOL     OW96772   1.976   2.517   7.956
31647SOL    HW196773   2.060   2.563   7.960
31647SOL    HW296774   1.925   2.568   7.893
31648SOL     OW96775   5.336  14.346  13.312
31648SOL    HW196776   5.291  14.429  13.324
31648SOL    HW296777   5.345  14.311  13.400
31649SOL     OW96778  13.849   3.350   3.697
31649SOL    HW196779  13.942   3.375   3.702
31649SOL    HW296780  13.850   3.268   3.647
31650SOL     OW96781   1.805   8.401   5.098
31650SOL    HW196782   1.721   8.365   5.127
31650SOL    HW296783   1.818   8.364   5.010
31651SOL     OW96784   1.731   8.882   3.936
31651SOL    HW196785   1.682   8.906   4.014
31651SOL    HW296786   1.778   8.962   3.911
31652SOL     OW96787  10.109   3.359  10.213
31652SOL    HW196788  10.188   3.319  10.248
31652SOL    HW296789  10.042   3.292  10.223
31653SOL     OW96790   7.935   1.923   7.544
31653SOL    HW196791   7.891   1.839   7.558
31653SOL    HW296792   7.895   1.981   7.609
31654SOL     OW96793  10.629   1.603  12.970
31654SOL    HW196794  10.716   1.570  12.991
31654SOL    HW296795  10.642   1.697  12.956
31655SOL     OW96796  14.670  11.297  11.502
31655SOL    HW196797  14.597  11.341  11.546
31655SOL    HW296798  14.646  11.204  11.503
31656SOL     OW96799   4.946   2.912   1.702
31656SOL    HW196800   4.890   2.914   1.624
31656SOL    HW296801   5.020   2.856   1.676
31657SOL     OW96802  14.797   3.626   1.490
31657SOL    HW196803  14.778   3.717   1.466
31657SOL    HW296804  14.789   3.624   1.585
31658SOL     OW96805  12.682  11.689  12.977
31658SOL    HW196806  12.683  11.666  12.884
31658SOL    HW296807  12.732  11.770  12.982
31659SOL     OW96808  13.049  13.588  13.447
31659SOL    HW196809  12.955  13.576  13.433
31659SOL    HW296810  13.066  13.678  13.421
31660SOL     OW96811   1.916   2.307  11.274
31660SOL    HW196812   1.929   2.401  11.278
31660SOL    HW296813   1.941   2.275  11.360
31661SOL     OW96814   6.826  10.850   8.405
31661SOL    HW196815   6.800  10.866   8.314
31661SOL    HW296816   6.910  10.895   8.415
31662SOL     OW96817  10.884   2.457  10.544
31662SOL    HW196818  10.837   2.488  10.467
31662SOL    HW296819  10.816   2.414  10.597
31663SOL     OW96820   1.164   3.401  14.854
31663SOL    HW196821   1.160   3.444   0.067
31663SOL    HW296822   1.077   3.365  14.841
31664SOL     OW96823  11.769   6.997   2.901
31664SOL    HW196824  11.830   7.036   2.837
31664SOL    HW296825  11.812   7.011   2.985
31665SOL     OW96826   6.295  11.819   3.593
31665SOL    HW196827   6.256  11.821   3.505
31665SOL    HW296828   6.355  11.744   3.591
31666SOL     OW96829   2.097  14.321   9.984
31666SOL    HW196830   2.135  14.260   9.921
31666SOL    HW296831   2.004  14.322   9.963
31667SOL     OW96832   3.990   6.821   5.196
31667SOL    HW196833   3.998   6.914   5.176
31667SOL    HW296834   4.047   6.778   5.133
31668SOL     OW96835   6.190  10.656   8.408
31668SOL    HW196836   6.263  10.595   8.416
31668SOL    HW296837   6.135  10.637   8.484
31669SOL     OW96838   3.148   6.753   0.741
31669SOL    HW196839   3.169   6.773   0.649
31669SOL    HW296840   3.165   6.834   0.788
31670SOL     OW96841   8.411   4.870   1.098
31670SOL    HW196842   8.425   4.913   1.014
31670SOL    HW296843   8.452   4.785   1.089
31671SOL     OW96844  10.048  12.785   8.570
31671SOL    HW196845  10.086  12.863   8.528
31671SOL    HW296846  10.082  12.787   8.659
31672SOL     OW96847   0.557   5.068  12.004
31672SOL    HW196848   0.618   5.122  12.052
31672SOL    HW296849   0.530   5.122  11.929
31673SOL     OW96850  13.818   5.516   8.986
31673SOL    HW196851  13.862   5.600   8.997
31673SOL    HW296852  13.725   5.534   9.001
31674SOL     OW96853  13.644  12.243  13.778
31674SOL    HW196854  13.657  12.194  13.698
31674SOL    HW296855  13.699  12.199  13.843
31675SOL     OW96856  12.664   6.752   4.344
31675SOL    HW196857  12.680   6.759   4.439
31675SOL    HW296858  12.598   6.683   4.336
31676SOL     OW96859   2.160   1.362   7.799
31676SOL    HW196860   2.109   1.319   7.868
31676SOL    HW296861   2.211   1.292   7.759
31677SOL     OW96862   8.502   2.122  13.583
31677SOL    HW196863   8.501   2.213  13.554
31677SOL    HW296864   8.592   2.107  13.613
31678SOL     OW96865   6.606   6.636   0.197
31678SOL    HW196866   6.633   6.592   0.116
31678SOL    HW296867   6.647   6.585   0.267
31679SOL     OW96868   7.069   1.725  13.401
31679SOL    HW196869   7.118   1.805  13.421
31679SOL    HW296870   7.028   1.701  13.485
31680SOL     OW96871   5.508  14.292   7.260
31680SOL    HW196872   5.589  14.265   7.216
31680SOL    HW296873   5.535  14.363   7.318
31681SOL     OW96874  10.889   4.366  13.903
31681SOL    HW196875  10.846   4.291  13.861
31681SOL    HW296876  10.900   4.339  13.994
31682SOL     OW96877  13.921   7.105   2.506
31682SOL    HW196878  13.861   7.100   2.431
31682SOL    HW296879  13.912   7.020   2.549
31683SOL     OW96880   9.494   6.845  13.785
31683SOL    HW196881   9.460   6.865  13.872
31683SOL    HW296882   9.425   6.874  13.725
31684SOL     OW96883   6.360   0.851   5.145
31684SOL    HW196884   6.348   0.939   5.180
31684SOL    HW296885   6.446   0.824   5.177
31685SOL     OW96886  13.903   5.802   1.910
31685SOL    HW196887  13.959   5.852   1.970
31685SOL    HW296888  13.956   5.726   1.885
31686SOL     OW96889   9.970   5.598  13.464
31686SOL    HW196890   9.957   5.682  13.508
31686SOL    HW296891  10.033   5.617  13.394
31687SOL     OW96892   6.133   2.025   3.034
31687SOL    HW196893   6.136   2.017   2.939
31687SOL    HW296894   6.068   2.093   3.051
31688SOL     OW96895   0.580  12.005   2.061
31688SOL    HW196896   0.648  11.948   2.026
31688SOL    HW296897   0.610  12.094   2.040
31689SOL     OW96898  13.428   8.973   9.447
31689SOL    HW196899  13.401   8.981   9.356
31689SOL    HW296900  13.451   9.062   9.474
31690SOL     OW96901   3.021   7.285   4.705
31690SOL    HW196902   3.046   7.218   4.770
31690SOL    HW296903   3.037   7.243   4.620
31691SOL     OW96904   3.974  10.456  11.222
31691SOL    HW196905   3.988  10.428  11.132
31691SOL    HW296906   3.967  10.551  11.217
31692SOL     OW96907   5.352   2.528  14.129
31692SOL    HW196908   5.263   2.494  14.145
31692SOL    HW296909   5.371   2.503  14.039
31693SOL     OW96910   0.987   5.048   9.616
31693SOL    HW196911   0.969   4.969   9.565
31693SOL    HW296912   1.037   5.017   9.691
31694SOL     OW96913  14.180   3.391  11.831
31694SOL    HW196914  14.215   3.381  11.920
31694SOL    HW296915  14.155   3.302  11.806
31695SOL     OW96916   8.527   5.906   3.672
31695SOL    HW196917   8.513   5.976   3.608
31695SOL    HW296918   8.528   5.825   3.621
31696SOL     OW96919   9.438  10.379  11.877
31696SOL    HW196920   9.415  10.325  11.953
31696SOL    HW296921   9.426  10.469  11.907
31697SOL     OW96922   1.207   3.471   2.748
31697SOL    HW196923   1.227   3.422   2.668
31697SOL    HW296924   1.293   3.491   2.786
31698SOL     OW96925   4.635   6.275  12.962
31698SOL    HW196926   4.703   6.223  13.004
31698SOL    HW296927   4.624   6.234  12.876
31699SOL     OW96928   8.405   6.843   9.123
31699SOL    HW196929   8.419   6.898   9.200
31699SOL    HW296930   8.477   6.780   9.125
31700SOL     OW96931   9.734   9.261  14.572
31700SOL    HW196932   9.753   9.181  14.522
31700SOL    HW296933   9.751   9.236  14.663
31701SOL     OW96934   0.755   9.954  13.880
31701SOL    HW196935   0.692   9.888  13.911
31701SOL    HW296936   0.809   9.972  13.957
31702SOL     OW96937   7.156  11.570  11.097
31702SOL    HW196938   7.065  11.599  11.082
31702SOL    HW296939   7.176  11.516  11.021
31703SOL     OW96940   1.538   2.736   2.308
31703SOL    HW196941   1.500   2.742   2.220
31703SOL    HW296942   1.480   2.789   2.363
31704SOL     OW96943  14.086  12.684   8.158
31704SOL    HW196944  14.170  12.681   8.112
31704SOL    HW296945  14.031  12.741   8.105
31705SOL     OW96946   0.952   8.709   3.277
31705SOL    HW196947   0.884   8.693   3.343
31705SOL    HW296948   0.926   8.792   3.236
31706SOL     OW96949   8.689   5.953   8.709
31706SOL    HW196950   8.748   5.878   8.697
31706SOL    HW296951   8.731   6.024   8.659
31707SOL     OW96952   5.440   3.155   0.318
31707SOL    HW196953   5.458   3.102   0.241
31707SOL    HW296954   5.520   3.205   0.333
31708SOL     OW96955   3.288   1.205   2.532
31708SOL    HW196956   3.282   1.191   2.438
31708SOL    HW296957   3.206   1.171   2.567
31709SOL     OW96958  11.786   4.669   8.922
31709SOL    HW196959  11.816   4.661   8.831
31709SOL    HW296960  11.742   4.586   8.940
31710SOL     OW96961   9.276   9.260  13.229
31710SOL    HW196962   9.363   9.235  13.199
31710SOL    HW296963   9.266   9.351  13.200
31711SOL     OW96964   2.110   4.508  12.878
31711SOL    HW196965   2.139   4.470  12.795
31711SOL    HW296966   2.187   4.501  12.935
31712SOL     OW96967   8.019   2.742   0.875
31712SOL    HW196968   8.014   2.677   0.804
31712SOL    HW296969   8.103   2.724   0.917
31713SOL     OW96970   4.937  14.828   4.493
31713SOL    HW196971   4.984   0.026   4.448
31713SOL    HW296972   4.967  14.834   4.583
31714SOL     OW96973   3.932  12.497   4.286
31714SOL    HW196974   3.840  12.519   4.272
31714SOL    HW296975   3.965  12.565   4.344
31715SOL     OW96976   7.133   6.623   4.527
31715SOL    HW196977   7.170   6.606   4.614
31715SOL    HW296978   7.062   6.685   4.544
31716SOL     OW96979  14.508   7.038   5.688
31716SOL    HW196980  14.417   7.019   5.712
31716SOL    HW296981  14.533   7.110   5.746
31717SOL     OW96982   7.023   8.161   5.885
31717SOL    HW196983   7.098   8.217   5.903
31717SOL    HW296984   7.031   8.141   5.792
31718SOL     OW96985   8.140   2.508  14.465
31718SOL    HW196986   8.074   2.451  14.506
31718SOL    HW296987   8.153   2.579  14.529
31719SOL     OW96988  14.376   3.612   6.604
31719SOL    HW196989  14.393   3.696   6.647
31719SOL    HW296990  14.298   3.627   6.551
31720SOL     OW96991   9.292   7.374   3.044
31720SOL    HW196992   9.379   7.410   3.025
31720SOL    HW296993   9.231   7.444   3.021
31721SOL     OW96994   7.277   3.822   2.583
31721SOL    HW196995   7.293   3.916   2.596
31721SOL    HW296996   7.345   3.794   2.522
31722SOL     OW96997   9.831   3.290   2.463
31722SOL    HW196998   9.771   3.353   2.422
31722SOL    HW296999   9.916   3.308   2.421
31723SOL     OW97000   0.509   4.816   2.527
31723SOL    HW197001   0.536   4.823   2.618
31723SOL    HW297002   0.512   4.722   2.509
31724SOL     OW97003   1.527   5.414  13.173
31724SOL    HW197004   1.453   5.355  13.164
31724SOL    HW297005   1.604   5.359  13.159
31725SOL     OW97006  11.927   6.634   6.283
31725SOL    HW197007  11.863   6.592   6.226
31725SOL    HW297008  11.942   6.570   6.353
31726SOL     OW97009   9.446   2.120  10.635
31726SOL    HW197010   9.507   2.064  10.587
31726SOL    HW297011   9.431   2.075  10.718
31727SOL     OW97012  13.157   6.127  14.813
31727SOL    HW197013  13.228   6.146   0.002
31727SOL    HW297014  13.100   6.068  14.860
31728SOL     OW97015   0.229  14.074   3.365
31728SOL    HW197016   0.269  14.092   3.450
31728SOL    HW297017   0.303  14.061   3.306
31729SOL     OW97018   7.986   2.896   7.854
31729SOL    HW197019   7.922   2.957   7.816
31729SOL    HW297020   8.021   2.848   7.779
31730SOL     OW97021   8.010   5.554   5.631
31730SOL    HW197022   8.091   5.595   5.600
31730SOL    HW297023   7.941   5.614   5.605
31731SOL     OW97024   6.176   1.187   8.005
31731SOL    HW197025   6.091   1.167   7.966
31731SOL    HW297026   6.203   1.105   8.047
31732SOL     OW97027   0.100   4.497   1.718
31732SOL    HW197028   0.135   4.497   1.807
31732SOL    HW297029   0.128   4.414   1.681
31733SOL     OW97030   1.394   5.880  11.403
31733SOL    HW197031   1.410   5.786  11.393
31733SOL    HW297032   1.447   5.906  11.478
31734SOL     OW97033   8.377   3.344   0.826
31734SOL    HW197034   8.350   3.305   0.909
31734SOL    HW297035   8.469   3.319   0.815
31735SOL     OW97036  14.642   1.293   8.372
31735SOL    HW197037  14.651   1.252   8.286
31735SOL    HW297038  14.729   1.331   8.390
31736SOL     OW97039   9.765  11.375  14.537
31736SOL    HW197040   9.797  11.286  14.522
31736SOL    HW297041   9.804  11.426  14.466
31737SOL     OW97042  14.713   6.384   7.858
31737SOL    HW197043  14.701   6.430   7.941
31737SOL    HW297044  14.699   6.451   7.791
31738SOL     OW97045   8.026   7.103  13.122
31738SOL    HW197046   8.078   7.119  13.043
31738SOL    HW297047   7.940   7.076  13.088
31739SOL     OW97048   2.493  11.263  12.361
31739SOL    HW197049   2.538  11.340  12.394
31739SOL    HW297050   2.539  11.189  12.402
31740SOL     OW97051   2.352   1.064   3.749
31740SOL    HW197052   2.300   1.040   3.672
31740SOL    HW297053   2.437   1.022   3.735
31741SOL     OW97054  13.795   2.407   6.815
31741SOL    HW197055  13.855   2.352   6.865
31741SOL    HW297056  13.712   2.361   6.816
31742SOL     OW97057   1.758   5.969   5.730
31742SOL    HW197058   1.740   5.976   5.824
31742SOL    HW297059   1.809   5.889   5.721
31743SOL     OW97060   9.391  11.588   9.399
31743SOL    HW197061   9.424  11.677   9.392
31743SOL    HW297062   9.456  11.542   9.453
31744SOL     OW97063   8.054   9.606  10.070
31744SOL    HW197064   8.040   9.645   9.983
31744SOL    HW297065   8.027   9.674  10.131
31745SOL     OW97066  14.220   0.426  12.849
31745SOL    HW197067  14.145   0.413  12.790
31745SOL    HW297068  14.278   0.353  12.830
31746SOL     OW97069   0.688   3.629  13.917
31746SOL    HW197070   0.633   3.612  13.993
31746SOL    HW297071   0.682   3.723  13.903
31747SOL     OW97072  14.708   4.018  13.069
31747SOL    HW197073  14.802   4.003  13.054
31747SOL    HW297074  14.688   3.967  13.147
31748SOL     OW97075  11.660   8.647   0.879
31748SOL    HW197076  11.613   8.720   0.921
31748SOL    HW297077  11.608   8.626   0.802
31749SOL     OW97078   4.970   8.766   2.662
31749SOL    HW197079   4.874   8.765   2.660
31749SOL    HW297080   4.996   8.727   2.578
31750SOL     OW97081   7.521   7.112   1.916
31750SOL    HW197082   7.614   7.089   1.925
31750SOL    HW297083   7.487   7.107   2.006
31751SOL     OW97084   2.122   0.209   7.648
31751SOL    HW197085   2.091   0.279   7.705
31751SOL    HW297086   2.093   0.234   7.560
31752SOL     OW97087   6.313   9.901  11.467
31752SOL    HW197088   6.273   9.814  11.459
31752SOL    HW297089   6.315   9.917  11.561
31753SOL     OW97090   3.911   3.029  12.721
31753SOL    HW197091   3.900   2.973  12.798
31753SOL    HW297092   3.986   3.083  12.742
31754SOL     OW97093   3.328   3.530   8.241
31754SOL    HW197094   3.395   3.578   8.290
31754SOL    HW297095   3.363   3.441   8.234
31755SOL     OW97096   4.340   0.163   1.305
31755SOL    HW197097   4.430   0.174   1.336
31755SOL    HW297098   4.349   0.123   1.219
31756SOL     OW97099   5.444  10.552  11.230
31756SOL    HW197100   5.384  10.623  11.210
31756SOL    HW297101   5.395  10.472  11.211
31757SOL     OW97102  12.655  13.340  11.295
31757SOL    HW197103  12.695  13.381  11.219
31757SOL    HW297104  12.727  13.335  11.359
31758SOL     OW97105  13.257   3.896   9.953
31758SOL    HW197106  13.282   3.823  10.009
31758SOL    HW297107  13.337   3.948   9.945
31759SOL     OW97108   9.624   4.041   7.516
31759SOL    HW197109   9.609   4.040   7.610
31759SOL    HW297110   9.543   4.076   7.479
31760SOL     OW97111   9.797  14.573  14.431
31760SOL    HW197112   9.730  14.589  14.364
31760SOL    HW297113   9.866  14.525  14.385
31761SOL     OW97114  11.213  14.267   4.603
31761SOL    HW197115  11.214  14.362   4.615
31761SOL    HW297116  11.219  14.255   4.508
31762SOL     OW97117   3.402   9.462   8.337
31762SOL    HW197118   3.369   9.452   8.248
31762SOL    HW297119   3.350   9.534   8.373
31763SOL     OW97120  11.273  10.577   0.435
31763SOL    HW197121  11.181  10.588   0.413
31763SOL    HW297122  11.273  10.556   0.529
31764SOL     OW97123  12.849   3.060   3.077
31764SOL    HW197124  12.770   3.034   3.030
31764SOL    HW297125  12.821   3.074   3.167
31765SOL     OW97126   6.101   1.799  14.007
31765SOL    HW197127   6.141   1.879  14.041
31765SOL    HW297128   6.167   1.763  13.948
31766SOL     OW97129   0.930   6.378   5.653
31766SOL    HW197130   0.951   6.419   5.569
31766SOL    HW297131   0.866   6.437   5.693
31767SOL     OW97132   4.935   3.989   8.093
31767SOL    HW197133   4.914   3.900   8.121
31767SOL    HW297134   4.982   3.978   8.010
31768SOL     OW97135   1.618   2.529   8.134
31768SOL    HW197136   1.679   2.455   8.137
31768SOL    HW297137   1.670   2.603   8.164
31769SOL     OW97138   1.201   9.708   9.028
31769SOL    HW197139   1.156   9.791   9.012
31769SOL    HW297140   1.293   9.727   9.011
31770SOL     OW97141   3.044   6.775   0.271
31770SOL    HW197142   3.018   6.683   0.268
31770SOL    HW297143   2.999   6.815   0.196
31771SOL     OW97144  11.115   9.280   7.573
31771SOL    HW197145  11.187   9.222   7.598
31771SOL    HW297146  11.105   9.339   7.647
31772SOL     OW97147   9.088   1.939  10.423
31772SOL    HW197148   9.152   1.946  10.494
31772SOL    HW297149   9.104   2.017  10.369
31773SOL     OW97150  11.379   7.299   8.217
31773SOL    HW197151  11.436   7.308   8.140
31773SOL    HW297152  11.292   7.281   8.180
31774SOL     OW97153   2.164  13.026   9.280
31774SOL    HW197154   2.217  13.094   9.321
31774SOL    HW297155   2.222  12.985   9.216
31775SOL     OW97156   3.018   6.083   7.961
31775SOL    HW197157   2.970   6.070   8.043
31775SOL    HW297158   3.085   6.147   7.981
31776SOL     OW97159   8.628   0.275   5.113
31776SOL    HW197160   8.640   0.311   5.201
31776SOL    HW297161   8.703   0.217   5.100
31777SOL     OW97162   8.739  13.363   1.745
31777SOL    HW197163   8.731  13.421   1.670
31777SOL    HW297164   8.758  13.277   1.707
31778SOL     OW97165  10.853   3.820   4.538
31778SOL    HW197166  10.931   3.810   4.485
31778SOL    HW297167  10.833   3.913   4.535
31779SOL     OW97168   8.486   5.649   1.163
31779SOL    HW197169   8.390   5.649   1.166
31779SOL    HW297170   8.507   5.642   1.070
31780SOL     OW97171   5.260   3.683  13.985
31780SOL    HW197172   5.271   3.646  13.897
31780SOL    HW297173   5.179   3.645  14.017
31781SOL     OW97174   5.833   6.270  14.409
31781SOL    HW197175   5.804   6.347  14.458
31781SOL    HW297176   5.765   6.257  14.343
31782SOL     OW97177  12.015   5.376  14.307
31782SOL    HW197178  12.013   5.444  14.374
31782SOL    HW297179  11.978   5.299  14.348
31783SOL     OW97180   4.268   8.387  11.355
31783SOL    HW197181   4.212   8.310  11.367
31783SOL    HW297182   4.349   8.366  11.403
31784SOL     OW97183  11.996   1.865  13.916
31784SOL    HW197184  12.033   1.927  13.853
31784SOL    HW297185  11.903   1.889  13.920
31785SOL     OW97186   3.540   6.806   6.722
31785SOL    HW197187   3.548   6.863   6.798
31785SOL    HW297188   3.452   6.768   6.729
31786SOL     OW97189  10.390  14.055   9.697
31786SOL    HW197190  10.417  14.106   9.621
31786SOL    HW297191  10.294  14.055   9.693
31787SOL     OW97192  12.241  13.082  12.257
31787SOL    HW197193  12.267  13.145  12.325
31787SOL    HW297194  12.271  12.998  12.290
31788SOL     OW97195  14.821   5.652  12.787
31788SOL    HW197196  14.831   5.743  12.761
31788SOL    HW297197  14.755   5.617  12.727
31789SOL     OW97198   3.338   9.395   1.064
31789SOL    HW197199   3.387   9.476   1.080
31789SOL    HW297200   3.294   9.409   0.980
31790SOL     OW97201  13.090  12.608   3.994
31790SOL    HW197202  13.044  12.578   4.072
31790SOL    HW297203  13.160  12.544   3.982
31791SOL     OW97204   2.378   2.335   4.954
31791SOL    HW197205   2.351   2.369   5.040
31791SOL    HW297206   2.392   2.413   4.901
31792SOL     OW97207   8.535   4.714  12.387
31792SOL    HW197208   8.474   4.641  12.374
31792SOL    HW297209   8.622   4.676  12.372
31793SOL     OW97210   5.488   5.580  14.563
31793SOL    HW197211   5.476   5.548  14.652
31793SOL    HW297212   5.563   5.640  14.569
31794SOL     OW97213   6.881  11.346   2.360
31794SOL    HW197214   6.847  11.303   2.438
31794SOL    HW297215   6.854  11.438   2.370
31795SOL     OW97216  11.259  13.543  10.067
31795SOL    HW197217  11.231  13.577   9.983
31795SOL    HW297218  11.315  13.611  10.103
31796SOL     OW97219   4.458   1.216  11.625
31796SOL    HW197220   4.411   1.162  11.562
31796SOL    HW297221   4.516   1.270  11.571
31797SOL     OW97222   0.026   8.063   3.474
31797SOL    HW197223  14.805   8.065   3.496
31797SOL    HW297224   0.045   7.971   3.457
31798SOL     OW97225   9.292   8.495   5.723
31798SOL    HW197226   9.259   8.578   5.690
31798SOL    HW297227   9.365   8.519   5.780
31799SOL     OW97228  12.483   5.151   1.703
31799SOL    HW197229  12.467   5.159   1.609
31799SOL    HW297230  12.438   5.227   1.741
31800SOL     OW97231  10.850   5.171  14.273
31800SOL    HW197232  10.846   5.146  14.181
31800SOL    HW297233  10.772   5.131  14.312
31801SOL     OW97234   7.852   0.660   9.373
31801SOL    HW197235   7.858   0.755   9.361
31801SOL    HW297236   7.774   0.647   9.426
31802SOL     OW97237   0.068  12.957   5.288
31802SOL    HW197238   0.116  12.895   5.233
31802SOL    HW297239   0.039  13.026   5.227
31803SOL     OW97240   7.793   7.993  13.306
31803SOL    HW197241   7.876   7.980  13.261
31803SOL    HW297242   7.742   7.915  13.287
31804SOL     OW97243  11.613   4.125   2.407
31804SOL    HW197244  11.584   4.169   2.487
31804SOL    HW297245  11.626   4.195   2.343
31805SOL     OW97246   9.906  11.898   3.775
31805SOL    HW197247   9.942  11.973   3.822
31805SOL    HW297248   9.890  11.931   3.686
31806SOL     OW97249   0.380  13.619   3.824
31806SOL    HW197250   0.415  13.553   3.884
31806SOL    HW297251   0.458  13.661   3.787
31807SOL     OW97252  13.418   4.859  10.872
31807SOL    HW197253  13.391   4.864  10.964
31807SOL    HW297254  13.500   4.908  10.868
31808SOL     OW97255   3.127   8.092   2.863
31808SOL    HW197256   3.038   8.062   2.883
31808SOL    HW297257   3.118   8.186   2.847
31809SOL     OW97258   4.058  11.289  11.265
31809SOL    HW197259   3.975  11.246  11.242
31809SOL    HW297260   4.031  11.371  11.307
31810SOL     OW97261  11.223  14.321  14.326
31810SOL    HW197262  11.182  14.397  14.368
31810SOL    HW297263  11.285  14.359  14.263
31811SOL     OW97264   1.049   6.670   6.061
31811SOL    HW197265   1.053   6.608   6.134
31811SOL    HW297266   1.033   6.615   5.984
31812SOL     OW97267   1.834   0.682   6.433
31812SOL    HW197268   1.910   0.681   6.491
31812SOL    HW297269   1.871   0.701   6.346
31813SOL     OW97270   5.840   7.971  11.190
31813SOL    HW197271   5.855   8.061  11.219
31813SOL    HW297272   5.903   7.919  11.240
31814SOL     OW97273  14.722   4.184   9.932
31814SOL    HW197274  14.812   4.168   9.905
31814SOL    HW297275  14.686   4.097   9.951
31815SOL     OW97276  10.098   9.226  13.556
31815SOL    HW197277  10.075   9.299  13.498
31815SOL    HW297278  10.098   9.149  13.500
31816SOL     OW97279  12.861   2.848   2.159
31816SOL    HW197280  12.947   2.824   2.126
31816SOL    HW297281  12.800   2.794   2.108
31817SOL     OW97282   7.442   9.348  10.668
31817SOL    HW197283   7.380   9.391  10.727
31817SOL    HW297284   7.406   9.362  10.581
31818SOL     OW97285   2.072  12.578   6.011
31818SOL    HW197286   2.071  12.495   6.058
31818SOL    HW297287   2.151  12.573   5.957
31819SOL     OW97288   0.778   6.858   4.082
31819SOL    HW197289   0.806   6.852   4.174
31819SOL    HW297290   0.743   6.772   4.061
31820SOL     OW97291   7.291   0.325   2.466
31820SOL    HW197292   7.301   0.352   2.374
31820SOL    HW297293   7.379   0.335   2.503
31821SOL     OW97294  11.979   8.255  11.232
31821SOL    HW197295  12.010   8.316  11.300
31821SOL    HW297296  11.976   8.309  11.153
31822SOL     OW97297  10.532   1.868  13.252
31822SOL    HW197298  10.566   1.920  13.324
31822SOL    HW297299  10.490   1.932  13.194
31823SOL     OW97300   8.097  11.211  11.229
31823SOL    HW197301   8.036  11.284  11.223
31823SOL    HW297302   8.048  11.136  11.194
31824SOL     OW97303   2.756   2.658   0.641
31824SOL    HW197304   2.707   2.631   0.719
31824SOL    HW297305   2.711   2.615   0.569
31825SOL     OW97306   4.407  14.608  13.299
31825SOL    HW197307   4.356  14.598  13.379
31825SOL    HW297308   4.404  14.522  13.257
31826SOL     OW97309   9.181  14.754   2.250
31826SOL    HW197310   9.127  14.682   2.282
31826SOL    HW297311   9.118  14.822   2.226
31827SOL     OW97312  10.239   0.070   2.094
31827SOL    HW197313  10.298   0.115   2.153
31827SOL    HW297314  10.152   0.086   2.130
31828SOL     OW97315  12.086  14.495   2.373
31828SOL    HW197316  12.068  14.581   2.411
31828SOL    HW297317  12.051  14.500   2.284
31829SOL     OW97318   2.612   3.594   5.727
31829SOL    HW197319   2.628   3.527   5.793
31829SOL    HW297320   2.649   3.557   5.646
31830SOL     OW97321  11.989  14.488  13.680
31830SOL    HW197322  11.908  14.520  13.718
31830SOL    HW297323  11.995  14.397  13.710
31831SOL     OW97324   6.758   2.087   0.227
31831SOL    HW197325   6.699   2.102   0.154
31831SOL    HW297326   6.754   2.167   0.278
31832SOL     OW97327  12.637   3.949   5.055
31832SOL    HW197328  12.605   3.860   5.042
31832SOL    HW297329  12.559   4.003   5.056
31833SOL     OW97330   5.817   7.410   9.591
31833SOL    HW197331   5.744   7.364   9.550
31833SOL    HW297332   5.895   7.361   9.563
31834SOL     OW97333   8.145  14.381   7.894
31834SOL    HW197334   8.197  14.309   7.859
31834SOL    HW297335   8.066  14.382   7.840
31835SOL     OW97336  10.182   1.624   9.146
31835SOL    HW197337  10.117   1.644   9.214
31835SOL    HW297338  10.158   1.679   9.072
31836SOL     OW97339   6.556   8.789   3.023
31836SOL    HW197340   6.651   8.792   3.024
31836SOL    HW297341   6.534   8.743   2.942
31837SOL     OW97342   4.562   3.642  14.273
31837SOL    HW197343   4.538   3.630  14.182
31837SOL    HW297344   4.647   3.598  14.282
31838SOL     OW97345   4.132   6.522  12.034
31838SOL    HW197346   4.180   6.503  12.115
31838SOL    HW297347   4.040   6.521  12.060
31839SOL     OW97348   0.718   2.214   1.590
31839SOL    HW197349   0.769   2.292   1.615
31839SOL    HW297350   0.680   2.183   1.672
31840SOL     OW97351   8.212   5.953   3.439
31840SOL    HW197352   8.143   5.989   3.384
31840SOL    HW297353   8.206   5.858   3.424
31841SOL     OW97354  12.997   0.352  13.859
31841SOL    HW197355  13.061   0.296  13.904
31841SOL    HW297356  13.028   0.441  13.877
31842SOL     OW97357  14.686  12.140   1.865
31842SOL    HW197358  14.752  12.091   1.914
31842SOL    HW297359  14.639  12.190   1.932
31843SOL     OW97360   1.023   0.390  14.170
31843SOL    HW197361   0.998   0.479  14.193
31843SOL    HW297362   1.119   0.390  14.177
31844SOL     OW97363   5.848  10.479  13.548
31844SOL    HW197364   5.794  10.407  13.516
31844SOL    HW297365   5.908  10.439  13.610
31845SOL     OW97366   7.342  11.265   9.600
31845SOL    HW197367   7.269  11.292   9.544
31845SOL    HW297368   7.300  11.215   9.671
31846SOL     OW97369   9.254  10.403   0.333
31846SOL    HW197370   9.231  10.495   0.325
31846SOL    HW297371   9.183  10.365   0.386
31847SOL     OW97372   1.799   5.751   6.074
31847SOL    HW197373   1.839   5.692   6.139
31847SOL    HW297374   1.756   5.693   6.012
31848SOL     OW97375   3.923   9.260   4.116
31848SOL    HW197376   3.971   9.334   4.080
31848SOL    HW297377   3.849   9.248   4.057
31849SOL     OW97378  14.096   8.371   3.968
31849SOL    HW197379  14.068   8.383   3.877
31849SOL    HW297380  14.092   8.460   4.005
31850SOL     OW97381   1.862  14.166   4.638
31850SOL    HW197382   1.946  14.135   4.672
31850SOL    HW297383   1.797  14.108   4.677
31851SOL     OW97384   3.111   6.922   3.905
31851SOL    HW197385   3.201   6.951   3.891
31851SOL    HW297386   3.083   6.889   3.819
31852SOL     OW97387   5.240   5.662   7.946
31852SOL    HW197388   5.329   5.641   7.977
31852SOL    HW297389   5.186   5.591   7.980
31853SOL     OW97390   9.452   8.555   1.689
31853SOL    HW197391   9.457   8.524   1.598
31853SOL    HW297392   9.543   8.552   1.720
31854SOL     OW97393   2.387  13.090  10.243
31854SOL    HW197394   2.331  13.012  10.252
31854SOL    HW297395   2.458  13.075  10.306
31855SOL     OW97396   7.668  13.470   1.284
31855SOL    HW197397   7.728  13.479   1.358
31855SOL    HW297398   7.611  13.398   1.308
31856SOL     OW97399   2.251   7.138  11.222
31856SOL    HW197400   2.217   7.209  11.166
31856SOL    HW297401   2.271   7.181  11.305
31857SOL     OW97402   0.280   9.901  13.568
31857SOL    HW197403   0.235   9.939  13.492
31857SOL    HW297404   0.310   9.815  13.536
31858SOL     OW97405  11.512   4.700   2.098
31858SOL    HW197406  11.595   4.737   2.128
31858SOL    HW297407  11.492   4.630   2.161
31859SOL     OW97408   6.101  14.468   4.478
31859SOL    HW197409   6.138  14.495   4.395
31859SOL    HW297410   6.112  14.373   4.481
31860SOL     OW97411   9.428   4.610  13.118
31860SOL    HW197412   9.438   4.700  13.087
31860SOL    HW297413   9.422   4.618  13.214
31861SOL     OW97414  13.059   4.080   6.545
31861SOL    HW197415  12.992   4.073   6.477
31861SOL    HW297416  13.036   4.158   6.594
31862SOL     OW97417  14.137   3.932  10.053
31862SOL    HW197418  14.161   3.843  10.080
31862SOL    HW297419  14.090   3.968  10.128
31863SOL     OW97420  10.169   8.961   1.299
31863SOL    HW197421  10.260   8.966   1.271
31863SOL    HW297422  10.134   8.884   1.255
31864SOL     OW97423   6.571  12.415  14.024
31864SOL    HW197424   6.520  12.398  13.945
31864SOL    HW297425   6.511  12.462  14.082
31865SOL     OW97426   7.982   0.182   8.657
31865SOL    HW197427   7.975   0.117   8.588
31865SOL    HW297428   7.892   0.206   8.678
31866SOL     OW97429   5.796  10.597   7.153
31866SOL    HW197430   5.827  10.513   7.118
31866SOL    HW297431   5.778  10.580   7.245
31867SOL     OW97432   9.772  11.483   4.694
31867SOL    HW197433   9.831  11.514   4.763
31867SOL    HW297434   9.813  11.514   4.613
31868SOL     OW97435   4.748  13.737   6.656
31868SOL    HW197436   4.663  13.728   6.612
31868SOL    HW297437   4.726  13.767   6.744
31869SOL     OW97438   1.273  10.979   8.384
31869SOL    HW197439   1.310  10.910   8.329
31869SOL    HW297440   1.333  11.053   8.373
31870SOL     OW97441   2.566   1.295  14.113
31870SOL    HW197442   2.596   1.353  14.044
31870SOL    HW297443   2.479   1.327  14.137
31871SOL     OW97444  13.860  13.244   2.669
31871SOL    HW197445  13.908  13.193   2.604
31871SOL    HW297446  13.904  13.227   2.752
31872SOL     OW97447   9.391  11.636   3.493
31872SOL    HW197448   9.304  11.661   3.461
31872SOL    HW297449   9.414  11.705   3.556
31873SOL     OW97450  12.910   7.075   6.686
31873SOL    HW197451  12.992   7.121   6.670
31873SOL    HW297452  12.842   7.138   6.662
31874SOL     OW97453  11.829   5.204  12.903
31874SOL    HW197454  11.885   5.177  12.830
31874SOL    HW297455  11.750   5.150  12.893
31875SOL     OW97456   4.144   8.341   3.582
31875SOL    HW197457   4.085   8.390   3.524
31875SOL    HW297458   4.125   8.375   3.669
31876SOL     OW97459   0.417   4.721   8.886
31876SOL    HW197460   0.500   4.736   8.931
31876SOL    HW297461   0.406   4.798   8.830
31877SOL     OW97462   6.148   2.687   9.682
31877SOL    HW197463   6.061   2.658   9.708
31877SOL    HW297464   6.158   2.772   9.726
31878SOL     OW97465   5.600   1.747   9.345
31878SOL    HW197466   5.659   1.819   9.368
31878SOL    HW297467   5.640   1.708   9.267
31879SOL     OW97468  14.360  11.626   9.829
31879SOL    HW197469  14.443  11.664   9.857
31879SOL    HW297470  14.303  11.701   9.812
31880SOL     OW97471   6.574   5.186   4.261
31880SOL    HW197472   6.557   5.278   4.282
31880SOL    HW297473   6.656   5.187   4.211
31881SOL     OW97474   3.661   4.947  11.860
31881SOL    HW197475   3.734   4.974  11.804
31881SOL    HW297476   3.688   4.862  11.895
31882SOL     OW97477  14.599   5.716   4.341
31882SOL    HW197478  14.624   5.631   4.306
31882SOL    HW297479  14.610   5.777   4.267
31883SOL     OW97480   2.129   6.860   7.765
31883SOL    HW197481   2.190   6.853   7.691
31883SOL    HW297482   2.167   6.927   7.821
31884SOL     OW97483   0.316   4.428  10.075
31884SOL    HW197484   0.316   4.333  10.060
31884SOL    HW297485   0.298   4.438  10.168
31885SOL     OW97486  11.206  13.218   4.138
31885SOL    HW197487  11.162  13.188   4.059
31885SOL    HW297488  11.155  13.179   4.210
31886SOL     OW97489   2.030  11.936   5.225
31886SOL    HW197490   2.099  11.945   5.160
31886SOL    HW297491   1.950  11.928   5.173
31887SOL     OW97492   4.171   8.695  12.750
31887SOL    HW197493   4.226   8.620  12.770
31887SOL    HW297494   4.105   8.661  12.690
31888SOL     OW97495  13.934   2.510  10.631
31888SOL    HW197496  13.979   2.572  10.689
31888SOL    HW297497  13.842   2.516  10.656
31889SOL     OW97498   6.158   2.182  10.146
31889SOL    HW197499   6.145   2.109  10.206
31889SOL    HW297500   6.131   2.260  10.195
31890SOL     OW97501   2.334  10.767   2.451
31890SOL    HW197502   2.259  10.758   2.393
31890SOL    HW297503   2.398  10.817   2.400
31891SOL     OW97504   7.164   9.224   5.443
31891SOL    HW197505   7.085   9.270   5.415
31891SOL    HW297506   7.156   9.137   5.404
31892SOL     OW97507  10.153   9.676  13.892
31892SOL    HW197508  10.113   9.679  13.979
31892SOL    HW297509  10.246   9.664  13.909
31893SOL     OW97510   3.635  14.436   1.762
31893SOL    HW197511   3.584  14.488   1.824
31893SOL    HW297512   3.589  14.447   1.678
31894SOL     OW97513  10.841   2.470  11.360
31894SOL    HW197514  10.793   2.543  11.400
31894SOL    HW297515  10.818   2.394  11.413
31895SOL     OW97516   0.741   7.444   1.858
31895SOL    HW197517   0.664   7.478   1.814
31895SOL    HW297518   0.780   7.519   1.901
31896SOL     OW97519  14.120  14.273  12.039
31896SOL    HW197520  14.170  14.330  11.980
31896SOL    HW297521  14.125  14.316  12.124
31897SOL     OW97522   8.114   0.943   5.247
31897SOL    HW197523   8.166   1.016   5.211
31897SOL    HW297524   8.152   0.927   5.333
31898SOL     OW97525   3.962  14.669   8.263
31898SOL    HW197526   4.012  14.677   8.181
31898SOL    HW297527   3.871  14.663   8.234
31899SOL     OW97528   5.219  13.882  11.764
31899SOL    HW197529   5.252  13.890  11.854
31899SOL    HW297530   5.279  13.935  11.712
31900SOL     OW97531   1.718   1.209   9.685
31900SOL    HW197532   1.752   1.283   9.635
31900SOL    HW297533   1.795   1.169   9.725
31901SOL     OW97534   2.128   3.051   3.339
31901SOL    HW197535   2.047   3.091   3.309
31901SOL    HW297536   2.101   2.985   3.403
31902SOL     OW97537   6.136   7.757  13.354
31902SOL    HW197538   6.224   7.756  13.316
31902SOL    HW297539   6.078   7.775  13.279
31903SOL     OW97540   3.775   4.426   9.978
31903SOL    HW197541   3.684   4.400   9.967
31903SOL    HW297542   3.789   4.495   9.913
31904SOL     OW97543  14.065  13.733   7.053
31904SOL    HW197544  13.973  13.716   7.074
31904SOL    HW297545  14.067  13.826   7.030
31905SOL     OW97546  14.235   6.162   1.481
31905SOL    HW197547  14.162   6.221   1.461
31905SOL    HW297548  14.313   6.212   1.459
31906SOL     OW97549   0.497  13.838   5.397
31906SOL    HW197550   0.530  13.751   5.419
31906SOL    HW297551   0.414  13.822   5.353
31907SOL     OW97552   2.367  12.315   8.652
31907SOL    HW197553   2.333  12.397   8.688
31907SOL    HW297554   2.294  12.254   8.660
31908SOL     OW97555   0.424  11.671   8.385
31908SOL    HW197556   0.381  11.710   8.461
31908SOL    HW297557   0.368  11.696   8.311
31909SOL     OW97558   0.762   1.705   1.262
31909SOL    HW197559   0.746   1.631   1.321
31909SOL    HW297560   0.850   1.690   1.228
31910SOL     OW97561   8.346   0.925   4.231
31910SOL    HW197562   8.320   0.993   4.292
31910SOL    HW297563   8.284   0.854   4.247
31911SOL     OW97564  12.839   2.912   5.589
31911SOL    HW197565  12.804   2.860   5.662
31911SOL    HW297566  12.814   3.002   5.610
31912SOL     OW97567  13.214   9.271   0.830
31912SOL    HW197568  13.268   9.350   0.829
31912SOL    HW297569  13.180   9.267   0.920
31913SOL     OW97570   5.415  12.309   7.368
31913SOL    HW197571   5.347  12.376   7.378
31913SOL    HW297572   5.497  12.359   7.368
31914SOL     OW97573  13.652  12.727  13.014
31914SOL    HW197574  13.705  12.649  12.995
31914SOL    HW297575  13.601  12.741  12.935
31915SOL     OW97576   4.187  12.905   4.332
31915SOL    HW197577   4.222  12.834   4.278
31915SOL    HW297578   4.219  12.985   4.290
31916SOL     OW97579   6.863   7.247   5.879
31916SOL    HW197580   6.789   7.280   5.929
31916SOL    HW297581   6.900   7.178   5.933
31917SOL     OW97582   2.164   5.357  13.433
31917SOL    HW197583   2.153   5.354  13.528
31917SOL    HW297584   2.208   5.441  13.417
31918SOL     OW97585   5.121  11.398   1.910
31918SOL    HW197586   5.113  11.302   1.907
31918SOL    HW297587   5.099  11.420   2.001
31919SOL     OW97588   2.422   1.420   9.564
31919SOL    HW197589   2.404   1.348   9.504
31919SOL    HW297590   2.389   1.390   9.648
31920SOL     OW97591  13.615  14.328   6.001
31920SOL    HW197592  13.607  14.265   6.073
31920SOL    HW297593  13.662  14.402   6.039
31921SOL     OW97594   8.452   0.270   2.335
31921SOL    HW197595   8.495   0.200   2.383
31921SOL    HW297596   8.521   0.334   2.317
31922SOL     OW97597   8.359  14.343   8.487
31922SOL    HW197598   8.334  14.265   8.536
31922SOL    HW297599   8.418  14.391   8.545
31923SOL     OW97600  11.555   9.621   1.197
31923SOL    HW197601  11.554   9.548   1.136
31923SOL    HW297602  11.646   9.651   1.198
31924SOL     OW97603   7.597   5.877   0.806
31924SOL    HW197604   7.524   5.939   0.812
31924SOL    HW297605   7.618   5.855   0.896
31925SOL     OW97606  14.432  14.740  11.903
31925SOL    HW197607  14.499  14.784  11.955
31925SOL    HW297608  14.349  14.777  11.934
31926SOL     OW97609   8.018   0.537  12.285
31926SOL    HW197610   7.974   0.547  12.369
31926SOL    HW297611   8.067   0.455  12.292
31927SOL     OW97612   9.231   1.047   5.030
31927SOL    HW197613   9.276   0.965   5.009
31927SOL    HW297614   9.170   1.059   4.957
31928SOL     OW97615   6.013   0.876   7.017
31928SOL    HW197616   6.004   0.883   7.112
31928SOL    HW297617   6.050   0.789   7.003
31929SOL     OW97618  10.332  12.913   2.983
31929SOL    HW197619  10.417  12.952   2.960
31929SOL    HW297620  10.354  12.845   3.046
31930SOL     OW97621   4.931   9.976   4.900
31930SOL    HW197622   4.955  10.068   4.898
31930SOL    HW297623   4.984   9.939   4.970
31931SOL     OW97624  10.063   0.109   7.521
31931SOL    HW197625  10.137   0.099   7.461
31931SOL    HW297626  10.055   0.204   7.534
31932SOL     OW97627  13.294  12.010  14.527
31932SOL    HW197628  13.199  12.023  14.527
31932SOL    HW297629  13.329  12.093  14.559
31933SOL     OW97630   5.919   0.765  13.771
31933SOL    HW197631   5.949   0.678  13.744
31933SOL    HW297632   5.990   0.799  13.826
31934SOL     OW97633   6.123   7.785   1.071
31934SOL    HW197634   6.180   7.715   1.102
31934SOL    HW297635   6.034   7.754   1.093
31935SOL     OW97636   8.048   2.047  14.108
31935SOL    HW197637   8.089   2.130  14.086
31935SOL    HW297638   8.089   2.020  14.191
31936SOL     OW97639   5.043  12.998   8.893
31936SOL    HW197640   5.076  13.088   8.893
31936SOL    HW297641   5.105  12.950   8.838
31937SOL     OW97642   1.391   5.144   6.746
31937SOL    HW197643   1.421   5.124   6.658
31937SOL    HW297644   1.346   5.064   6.775
31938SOL     OW97645   6.957   7.913  10.628
31938SOL    HW197646   6.971   7.826  10.592
31938SOL    HW297647   6.978   7.903  10.721
31939SOL     OW97648   2.769   7.424   2.881
31939SOL    HW197649   2.724   7.500   2.844
31939SOL    HW297650   2.860   7.452   2.890
31940SOL     OW97651   6.666  14.261   7.917
31940SOL    HW197652   6.665  14.351   7.884
31940SOL    HW297653   6.674  14.270   8.012
31941SOL     OW97654   6.074  10.208  13.959
31941SOL    HW197655   5.979  10.206  13.970
31941SOL    HW297656   6.095  10.124  13.917
31942SOL     OW97657  13.385   5.134   8.694
31942SOL    HW197658  13.376   5.155   8.787
31942SOL    HW297659  13.370   5.218   8.649
31943SOL     OW97660   2.993   9.577   6.931
31943SOL    HW197661   2.957   9.620   7.009
31943SOL    HW297662   2.923   9.518   6.903
31944SOL     OW97663   6.438   6.322  12.120
31944SOL    HW197664   6.513   6.291  12.070
31944SOL    HW297665   6.472   6.396  12.171
31945SOL     OW97666  11.807   9.372  13.088
31945SOL    HW197667  11.747   9.330  13.025
31945SOL    HW297668  11.802   9.465  13.067
31946SOL     OW97669  11.283   3.517   7.895
31946SOL    HW197670  11.198   3.538   7.932
31946SOL    HW297671  11.291   3.574   7.818
31947SOL     OW97672   9.200   8.181   0.774
31947SOL    HW197673   9.189   8.258   0.717
31947SOL    HW297674   9.119   8.176   0.824
31948SOL     OW97675  13.989   0.843   0.237
31948SOL    HW197676  13.957   0.798   0.158
31948SOL    HW297677  14.068   0.795   0.262
31949SOL     OW97678   0.040   3.460   3.567
31949SOL    HW197679   0.055   3.550   3.598
31949SOL    HW297680   0.097   3.406   3.622
31950SOL     OW97681  10.366  10.972   5.132
31950SOL    HW197682  10.421  11.006   5.203
31950SOL    HW297683  10.349  10.881   5.156
31951SOL     OW97684  14.533   2.542   1.275
31951SOL    HW197685  14.545   2.524   1.182
31951SOL    HW297686  14.470   2.614   1.278
31952SOL     OW97687   2.877   6.351  13.105
31952SOL    HW197688   2.949   6.412  13.091
31952SOL    HW297689   2.862   6.310  13.020
31953SOL     OW97690   7.021   3.922   2.172
31953SOL    HW197691   7.085   3.905   2.104
31953SOL    HW297692   7.041   3.859   2.241
31954SOL     OW97693   0.650  13.504  14.735
31954SOL    HW197694   0.557  13.528  14.742
31954SOL    HW297695   0.650  13.409  14.730
31955SOL     OW97696  13.178  10.503  11.747
31955SOL    HW197697  13.145  10.481  11.834
31955SOL    HW297698  13.268  10.471  11.747
31956SOL     OW97699   8.823   9.561   5.632
31956SOL    HW197700   8.824   9.619   5.708
31956SOL    HW297701   8.895   9.499   5.648
31957SOL     OW97702   3.119   2.764   7.787
31957SOL    HW197703   3.196   2.708   7.794
31957SOL    HW297704   3.113   2.807   7.872
31958SOL     OW97705   0.020   3.959  10.103
31958SOL    HW197706  14.805   3.957  10.063
31958SOL    HW297707   0.073   3.901  10.049
31959SOL     OW97708   9.400   8.427  10.857
31959SOL    HW197709   9.492   8.449  10.847
31959SOL    HW297710   9.396   8.377  10.939
31960SOL     OW97711   4.532   6.044   0.365
31960SOL    HW197712   4.555   6.052   0.273
31960SOL    HW297713   4.603   6.087   0.412
31961SOL     OW97714   1.381   2.065  11.102
31961SOL    HW197715   1.465   2.082  11.145
31961SOL    HW297716   1.324   2.135  11.132
31962SOL     OW97717  13.764   5.743   8.576
31962SOL    HW197718  13.763   5.776   8.666
31962SOL    HW297719  13.778   5.821   8.522
31963SOL     OW97720   2.302   6.747  10.910
31963SOL    HW197721   2.300   6.680  10.841
31963SOL    HW297722   2.210   6.766  10.928
31964SOL     OW97723   7.213   2.339   6.608
31964SOL    HW197724   7.175   2.412   6.657
31964SOL    HW297725   7.162   2.262   6.636
31965SOL     OW97726   8.546   5.815   1.363
31965SOL    HW197727   8.593   5.863   1.295
31965SOL    HW297728   8.526   5.730   1.324
31966SOL     OW97729   2.632   3.555  10.234
31966SOL    HW197730   2.556   3.587  10.283
31966SOL    HW297731   2.625   3.598  10.148
31967SOL     OW97732   0.968   5.108   1.070
31967SOL    HW197733   1.007   5.136   1.153
31967SOL    HW297734   1.044   5.091   1.013
31968SOL     OW97735   4.179   6.900   4.853
31968SOL    HW197736   4.232   6.853   4.918
31968SOL    HW297737   4.229   6.980   4.837
31969SOL     OW97738   2.516   7.973   3.214
31969SOL    HW197739   2.600   7.932   3.191
31969SOL    HW297740   2.502   8.037   3.145
31970SOL     OW97741   6.012  11.461  11.362
31970SOL    HW197742   6.021  11.475  11.456
31970SOL    HW297743   6.029  11.367  11.350
31971SOL     OW97744   8.181  14.717  13.436
31971SOL    HW197745   8.211  14.693  13.348
31971SOL    HW297746   8.198  14.639  13.489
31972SOL     OW97747   4.620   9.011  13.420
31972SOL    HW197748   4.690   9.050  13.471
31972SOL    HW297749   4.578   9.085  13.376
31973SOL     OW97750  10.123  10.730   1.027
31973SOL    HW197751  10.203  10.777   1.052
31973SOL    HW297752  10.061  10.751   1.096
31974SOL     OW97753   6.172   1.251   7.713
31974SOL    HW197754   6.100   1.188   7.714
31974SOL    HW297755   6.154   1.310   7.787
31975SOL     OW97756   0.321  11.286   2.020
31975SOL    HW197757   0.339  11.199   1.983
31975SOL    HW297758   0.228  11.301   2.005
31976SOL     OW97759   1.251  12.848   9.196
31976SOL    HW197760   1.160  12.819   9.205
31976SOL    HW297761   1.246  12.923   9.137
31977SOL     OW97762  10.200  14.687   3.207
31977SOL    HW197763  10.234  14.777   3.200
31977SOL    HW297764  10.147  14.675   3.129
31978SOL     OW97765   1.630   4.176   8.531
31978SOL    HW197766   1.720   4.149   8.551
31978SOL    HW297767   1.584   4.094   8.514
31979SOL     OW97768   0.459   7.376   5.386
31979SOL    HW197769   0.529   7.311   5.374
31979SOL    HW297770   0.393   7.353   5.321
31980SOL     OW97771   0.438  13.309  10.060
31980SOL    HW197772   0.465  13.218  10.075
31980SOL    HW297773   0.463  13.326   9.969
31981SOL     OW97774  13.846  13.839  12.302
31981SOL    HW197775  13.932  13.804  12.322
31981SOL    HW297776  13.787  13.797  12.364
31982SOL     OW97777  10.332   2.314   6.447
31982SOL    HW197778  10.412   2.358   6.420
31982SOL    HW297779  10.320   2.244   6.383
31983SOL     OW97780   8.452  10.847   3.733
31983SOL    HW197781   8.451  10.768   3.679
31983SOL    HW297782   8.535  10.842   3.780
31984SOL     OW97783   8.963   0.343   8.111
31984SOL    HW197784   9.015   0.313   8.186
31984SOL    HW297785   8.925   0.263   8.075
31985SOL     OW97786   6.409   9.451  11.061
31985SOL    HW197787   6.367   9.488  10.983
31985SOL    HW297788   6.343   9.460  11.130
31986SOL     OW97789   8.126   6.164  11.316
31986SOL    HW197790   8.182   6.226  11.362
31986SOL    HW297791   8.144   6.079  11.357
31987SOL     OW97792  12.612   0.228   1.283
31987SOL    HW197793  12.523   0.194   1.280
31987SOL    HW297794  12.662   0.168   1.227
31988SOL     OW97795   4.055   1.467   2.194
31988SOL    HW197796   4.108   1.503   2.266
31988SOL    HW297797   4.094   1.382   2.176
31989SOL     OW97798   4.506   9.832   5.195
31989SOL    HW197799   4.584   9.858   5.243
31989SOL    HW297800   4.539   9.777   5.123
31990SOL     OW97801   5.917   7.205   8.499
31990SOL    HW197802   5.967   7.276   8.459
31990SOL    HW297803   5.951   7.126   8.457
31991SOL     OW97804   1.962  14.286   7.225
31991SOL    HW197805   1.938  14.201   7.263
31991SOL    HW297806   2.004  14.334   7.297
31992SOL     OW97807   5.605   0.101  13.584
31992SOL    HW197808   5.569   0.188  13.567
31992SOL    HW297809   5.602   0.092  13.679
31993SOL     OW97810   4.684   1.732   7.658
31993SOL    HW197811   4.602   1.765   7.695
31993SOL    HW297812   4.751   1.788   7.697
31994SOL     OW97813   4.632   9.247   2.224
31994SOL    HW197814   4.546   9.289   2.231
31994SOL    HW297815   4.643   9.200   2.306
31995SOL     OW97816   9.081   9.770  13.132
31995SOL    HW197817   9.122   9.831  13.071
31995SOL    HW297818   9.088   9.814  13.218
31996SOL     OW97819   4.976   7.574  13.522
31996SOL    HW197820   5.055   7.567  13.575
31996SOL    HW297821   4.908   7.531  13.575
31997SOL     OW97822   6.003   8.827  13.297
31997SOL    HW197823   5.925   8.837  13.242
31997SOL    HW297824   5.971   8.841  13.386
31998SOL     OW97825   9.218  11.950  13.343
31998SOL    HW197826   9.149  11.934  13.279
31998SOL    HW297827   9.269  11.869  13.343
31999SOL     OW97828   4.014   0.081   0.086
31999SOL    HW197829   4.005   0.151   0.021
31999SOL    HW297830   3.977   0.118   0.166
32000SOL     OW97831   9.856   3.525  14.456
32000SOL    HW197832   9.796   3.538  14.529
32000SOL    HW297833   9.829   3.590  14.391
32001SOL     OW97834  11.431   5.842  14.209
32001SOL    HW197835  11.444   5.931  14.176
32001SOL    HW297836  11.472   5.786  14.143
32002SOL     OW97837   2.095   2.761   2.196
32002SOL    HW197838   2.114   2.841   2.146
32002SOL    HW297839   2.017   2.725   2.155
32003SOL     OW97840   9.956   5.801   8.487
32003SOL    HW197841   9.936   5.772   8.576
32003SOL    HW297842  10.003   5.728   8.448
32004SOL     OW97843   9.147   4.947   6.312
32004SOL    HW197844   9.098   4.916   6.388
32004SOL    HW297845   9.103   4.908   6.237
32005SOL     OW97846  13.866   4.261   1.870
32005SOL    HW197847  13.928   4.334   1.875
32005SOL    HW297848  13.843   4.256   1.777
32006SOL     OW97849   9.156   8.129  12.004
32006SOL    HW197850   9.175   8.218  11.974
32006SOL    HW297851   9.075   8.137  12.053
32007SOL     OW97852  12.869  14.790   0.779
32007SOL    HW197853  12.896  14.867   0.829
32007SOL    HW297854  12.950  14.754   0.744
32008SOL     OW97855   9.729  11.206   9.792
32008SOL    HW197856   9.660  11.175   9.850
32008SOL    HW297857   9.796  11.241   9.851
32009SOL     OW97858   1.038   5.044  10.989
32009SOL    HW197859   1.052   5.066  11.081
32009SOL    HW297860   0.971   5.107  10.960
32010SOL     OW97861  13.219   8.630   1.629
32010SOL    HW197862  13.195   8.664   1.543
32010SOL    HW297863  13.158   8.558   1.645
32011SOL     OW97864  11.047  14.512  12.784
32011SOL    HW197865  11.011  14.472  12.705
32011SOL    HW297866  11.141  14.514  12.769
32012SOL     OW97867  11.122   3.596  10.545
32012SOL    HW197868  11.186   3.665  10.564
32012SOL    HW297869  11.176   3.521  10.518
32013SOL     OW97870   9.846  11.164  12.017
32013SOL    HW197871   9.808  11.204  11.939
32013SOL    HW297872   9.918  11.111  11.984
32014SOL     OW97873   7.277   1.477   5.768
32014SOL    HW197874   7.326   1.507   5.691
32014SOL    HW297875   7.335   1.496   5.842
32015SOL     OW97876  10.080  13.278  13.566
32015SOL    HW197877  10.055  13.243  13.481
32015SOL    HW297878  10.029  13.228  13.629
32016SOL     OW97879   1.919   8.371   5.679
32016SOL    HW197880   1.899   8.283   5.647
32016SOL    HW297881   2.010   8.366   5.707
32017SOL     OW97882   7.195   3.783  12.823
32017SOL    HW197883   7.141   3.819  12.893
32017SOL    HW297884   7.284   3.785  12.857
32018SOL     OW97885   5.663  14.764   4.701
32018SOL    HW197886   5.717  14.842   4.689
32018SOL    HW297887   5.656  14.753   4.795
32019SOL     OW97888   9.301  10.513   9.865
32019SOL    HW197889   9.292  10.486   9.773
32019SOL    HW297890   9.285  10.607   9.863
32020SOL     OW97891  13.141  12.608   0.725
32020SOL    HW197892  13.202  12.664   0.773
32020SOL    HW297893  13.152  12.634   0.633
32021SOL     OW97894   4.573   9.503  11.132
32021SOL    HW197895   4.610   9.580  11.088
32021SOL    HW297896   4.485   9.531  11.158
32022SOL     OW97897   4.077   6.198   7.730
32022SOL    HW197898   4.019   6.180   7.656
32022SOL    HW297899   4.140   6.261   7.697
32023SOL     OW97900  13.705   9.946  14.781
32023SOL    HW197901  13.704  10.039  14.756
32023SOL    HW297902  13.614   9.918  14.773
32024SOL     OW97903   0.848   3.603   1.702
32024SOL    HW197904   0.863   3.535   1.636
32024SOL    HW297905   0.764   3.641   1.679
32025SOL     OW97906   0.438   1.970   1.859
32025SOL    HW197907   0.410   1.989   1.769
32025SOL    HW297908   0.389   2.032   1.913
32026SOL     OW97909   9.344   9.375   5.437
32026SOL    HW197910   9.335   9.288   5.400
32026SOL    HW297911   9.437   9.396   5.429
32027SOL     OW97912  10.499  13.046   2.657
32027SOL    HW197913  10.527  13.044   2.749
32027SOL    HW297914  10.575  13.080   2.610
32028SOL     OW97915  14.688   4.865   9.486
32028SOL    HW197916  14.670   4.773   9.502
32028SOL    HW297917  14.673   4.908   9.570
32029SOL     OW97918   2.827   8.521   8.867
32029SOL    HW197919   2.821   8.488   8.956
32029SOL    HW297920   2.888   8.460   8.824
32030SOL     OW97921   5.145   6.312   1.514
32030SOL    HW197922   5.133   6.401   1.547
32030SOL    HW297923   5.239   6.303   1.503
32031SOL     OW97924  10.240  11.365   5.311
32031SOL    HW197925  10.301  11.422   5.265
32031SOL    HW297926  10.207  11.306   5.244
32032SOL     OW97927  11.794   3.553   1.259
32032SOL    HW197928  11.731   3.501   1.209
32032SOL    HW297929  11.741   3.623   1.298
32033SOL     OW97930  10.212   0.556   8.275
32033SOL    HW197931  10.142   0.492   8.286
32033SOL    HW297932  10.278   0.511   8.223
32034SOL     OW97933   6.017  13.554  11.734
32034SOL    HW197934   6.014  13.626  11.671
32034SOL    HW297935   6.067  13.588  11.807
32035SOL     OW97936   8.868   8.141   8.151
32035SOL    HW197937   8.849   8.232   8.174
32035SOL    HW297938   8.888   8.143   8.058
32036SOL     OW97939   8.693  11.228   4.309
32036SOL    HW197940   8.700  11.133   4.299
32036SOL    HW297941   8.706  11.262   4.220
32037SOL     OW97942  12.883   0.277   5.622
32037SOL    HW197943  12.822   0.248   5.554
32037SOL    HW297944  12.832   0.275   5.703
32038SOL     OW97945   8.980   8.044   6.423
32038SOL    HW197946   8.978   8.139   6.408
32038SOL    HW297947   8.919   8.009   6.357
32039SOL     OW97948   1.935  11.618   6.477
32039SOL    HW197949   1.908  11.527   6.489
32039SOL    HW297950   1.987  11.618   6.397
32040SOL     OW97951  11.708  10.383   0.508
32040SOL    HW197952  11.623  10.351   0.477
32040SOL    HW297953  11.767  10.309   0.498
32041SOL     OW97954  14.644  11.242   0.394
32041SOL    HW197955  14.577  11.176   0.409
32041SOL    HW297956  14.601  11.326   0.414
32042SOL     OW97957  12.974   1.993   4.068
32042SOL    HW197958  12.899   2.008   4.125
32042SOL    HW297959  12.944   2.022   3.981
32043SOL     OW97960  10.808  12.580  12.253
32043SOL    HW197961  10.821  12.506  12.193
32043SOL    HW297962  10.805  12.539  12.340
32044SOL     OW97963  14.127  12.232   3.793
32044SOL    HW197964  14.171  12.189   3.720
32044SOL    HW297965  14.196  12.246   3.858
32045SOL     OW97966   7.794   9.996   3.525
32045SOL    HW197967   7.799   9.990   3.621
32045SOL    HW297968   7.851  10.068   3.503
32046SOL     OW97969   7.559  12.167  10.302
32046SOL    HW197970   7.502  12.114  10.358
32046SOL    HW297971   7.503  12.238  10.272
32047SOL     OW97972   6.068  11.969   8.093
32047SOL    HW197973   6.097  11.879   8.107
32047SOL    HW297974   6.137  12.023   8.131
32048SOL     OW97975  11.510   9.915   1.719
32048SOL    HW197976  11.502  10.010   1.731
32048SOL    HW297977  11.519   9.903   1.625
32049SOL     OW97978   5.428   4.868  12.903
32049SOL    HW197979   5.470   4.947  12.870
32049SOL    HW297980   5.470   4.851  12.987
32050SOL     OW97981  10.673   5.394   0.976
32050SOL    HW197982  10.736   5.364   0.911
32050SOL    HW297983  10.677   5.490   0.971
32051SOL     OW97984  12.800   9.922   9.734
32051SOL    HW197985  12.735   9.992   9.737
32051SOL    HW297986  12.860   9.942   9.805
32052SOL     OW97987   5.502   0.045  12.803
32052SOL    HW197988   5.503   0.132  12.763
32052SOL    HW297989   5.418   0.008  12.778
32053SOL     OW97990  10.746  13.414  14.254
32053SOL    HW197991  10.683  13.457  14.313
32053SOL    HW297992  10.725  13.321  14.261
32054SOL     OW97993   7.257   1.700   8.428
32054SOL    HW197994   7.346   1.683   8.461
32054SOL    HW297995   7.224   1.770   8.484
32055SOL     OW97996   2.354   2.259   2.513
32055SOL    HW197997   2.296   2.185   2.533
32055SOL    HW297998   2.351   2.313   2.592
32056SOL     OW97999   2.317   9.604  10.272
32056SOL    HW198000   2.281   9.678  10.222
32056SOL    HW298001   2.307   9.529  10.213
32057SOL     OW98002   5.175   9.603   4.314
32057SOL    HW198003   5.175   9.661   4.390
32057SOL    HW298004   5.252   9.630   4.263
32058SOL     OW98005  14.370  13.511   4.003
32058SOL    HW198006  14.420  13.499   4.084
32058SOL    HW298007  14.432  13.493   3.933
32059SOL     OW98008  13.962   1.069  12.643
32059SOL    HW198009  14.016   1.017  12.584
32059SOL    HW298010  13.911   1.126  12.585
32060SOL     OW98011  13.429  11.150   4.248
32060SOL    HW198012  13.440  11.177   4.340
32060SOL    HW298013  13.479  11.215   4.199
32061SOL     OW98014   3.816   5.244  11.916
32061SOL    HW198015   3.846   5.334  11.928
32061SOL    HW298016   3.884   5.190  11.957
32062SOL     OW98017   6.952   4.988  14.014
32062SOL    HW198018   6.937   5.054  13.947
32062SOL    HW298019   6.919   4.907  13.976
32063SOL     OW98020   7.531   4.413  13.966
32063SOL    HW198021   7.556   4.330  14.007
32063SOL    HW298022   7.581   4.480  14.014
32064SOL     OW98023   6.763   3.321  12.709
32064SOL    HW198024   6.823   3.249  12.727
32064SOL    HW298025   6.720   3.338  12.792
32065SOL     OW98026   4.948   7.191   4.810
32065SOL    HW198027   5.007   7.117   4.826
32065SOL    HW298028   4.886   7.158   4.745
32066SOL     OW98029   0.899   1.574   2.699
32066SOL    HW198030   0.912   1.573   2.604
32066SOL    HW298031   0.821   1.628   2.712
32067SOL     OW98032  13.293  14.458   4.634
32067SOL    HW198033  13.340  14.432   4.714
32067SOL    HW298034  13.207  14.487   4.665
32068SOL     OW98035  12.471   2.822  13.160
32068SOL    HW198036  12.431   2.820  13.247
32068SOL    HW298037  12.398   2.810  13.099
32069SOL     OW98038  12.263   3.527  11.816
32069SOL    HW198039  12.320   3.578  11.758
32069SOL    HW298040  12.178   3.527  11.772
32070SOL     OW98041   2.716   3.188   6.934
32070SOL    HW198042   2.740   3.212   7.023
32070SOL    HW298043   2.667   3.106   6.944
32071SOL     OW98044   4.855  11.942  12.381
32071SOL    HW198045   4.938  11.912  12.419
32071SOL    HW298046   4.859  12.037  12.389
32072SOL     OW98047   1.724  10.616   6.696
32072SOL    HW198048   1.670  10.543   6.727
32072SOL    HW298049   1.685  10.640   6.612
32073SOL     OW98050   1.793  11.190  11.543
32073SOL    HW198051   1.878  11.172  11.503
32073SOL    HW298052   1.780  11.117  11.603
32074SOL     OW98053   9.556  10.862  13.048
32074SOL    HW198054   9.499  10.803  12.999
32074SOL    HW298055   9.497  10.923  13.092
32075SOL     OW98056   0.027   7.782  12.022
32075SOL    HW198057   0.073   7.804  11.940
32075SOL    HW298058  14.865   7.694  12.007
32076SOL     OW98059   7.896   5.979   2.708
32076SOL    HW198060   7.884   6.017   2.794
32076SOL    HW298061   7.817   5.927   2.693
32077SOL     OW98062   9.603   5.842   3.647
32077SOL    HW198063   9.632   5.874   3.562
32077SOL    HW298064   9.675   5.786   3.678
32078SOL     OW98065  14.448   1.170   4.055
32078SOL    HW198066  14.419   1.257   4.082
32078SOL    HW298067  14.491   1.134   4.133
32079SOL     OW98068  13.319  10.930   8.917
32079SOL    HW198069  13.370  10.999   8.961
32079SOL    HW298070  13.238  10.925   8.967
32080SOL     OW98071  13.945  10.572   5.733
32080SOL    HW198072  14.033  10.547   5.763
32080SOL    HW298073  13.918  10.502   5.674
32081SOL     OW98074   4.845   5.275   7.355
32081SOL    HW198075   4.852   5.209   7.286
32081SOL    HW298076   4.771   5.246   7.409
32082SOL     OW98077   4.635   4.494  14.610
32082SOL    HW198078   4.720   4.476  14.569
32082SOL    HW298079   4.571   4.471  14.544
32083SOL     OW98080   3.047   7.802   4.956
32083SOL    HW198081   3.124   7.777   4.904
32083SOL    HW298082   2.994   7.855   4.897
32084SOL     OW98083  10.451   0.874   6.400
32084SOL    HW198084  10.393   0.928   6.346
32084SOL    HW298085  10.443   0.911   6.488
32085SOL     OW98086   9.525   7.542   8.983
32085SOL    HW198087   9.477   7.473   9.028
32085SOL    HW298088   9.499   7.534   8.892
32086SOL     OW98089  13.213  11.641   2.374
32086SOL    HW198090  13.308  11.627   2.379
32086SOL    HW298091  13.176  11.564   2.417
32087SOL     OW98092   6.661   7.852   0.562
32087SOL    HW198093   6.625   7.870   0.650
32087SOL    HW298094   6.721   7.925   0.546
32088SOL     OW98095   7.569   1.889   5.233
32088SOL    HW198096   7.654   1.856   5.204
32088SOL    HW298097   7.575   1.984   5.222
32089SOL     OW98098   7.085   6.390  12.026
32089SOL    HW198099   7.011   6.376  11.967
32089SOL    HW298100   7.129   6.306  12.029
32090SOL     OW98101   8.311  12.147   6.625
32090SOL    HW198102   8.285  12.216   6.565
32090SOL    HW298103   8.342  12.076   6.568
32091SOL     OW98104  10.769  12.925   8.369
32091SOL    HW198105  10.849  12.968   8.397
32091SOL    HW298106  10.750  12.862   8.437
32092SOL     OW98107   1.919  12.113  11.546
32092SOL    HW198108   1.945  12.110  11.454
32092SOL    HW298109   1.997  12.084  11.594
32093SOL     OW98110   4.268   1.396  14.399
32093SOL    HW198111   4.241   1.396  14.307
32093SOL    HW298112   4.214   1.329  14.439
32094SOL     OW98113  10.797  11.795   1.860
32094SOL    HW198114  10.861  11.853   1.819
32094SOL    HW298115  10.727  11.787   1.796
32095SOL     OW98116   9.896  11.742  11.102
32095SOL    HW198117   9.835  11.787  11.160
32095SOL    HW298118   9.883  11.649  11.121
32096SOL     OW98119   1.287  10.881  13.405
32096SOL    HW198120   1.362  10.822  13.394
32096SOL    HW298121   1.281  10.928  13.322
32097SOL     OW98122  12.678   9.098   8.116
32097SOL    HW198123  12.680   9.186   8.078
32097SOL    HW298124  12.643   9.110   8.204
32098SOL     OW98125  12.423   1.768   8.736
32098SOL    HW198126  12.431   1.803   8.647
32098SOL    HW298127  12.477   1.689   8.735
32099SOL     OW98128   1.235   7.623  11.854
32099SOL    HW198129   1.167   7.580  11.803
32099SOL    HW298130   1.307   7.561  11.856
32100SOL     OW98131  11.188  11.023  10.912
32100SOL    HW198132  11.132  11.076  10.856
32100SOL    HW298133  11.128  10.980  10.973
32101SOL     OW98134  13.015  12.171   2.872
32101SOL    HW198135  13.007  12.140   2.963
32101SOL    HW298136  12.999  12.265   2.878
32102SOL     OW98137   7.389   7.450   5.050
32102SOL    HW198138   7.368   7.422   5.139
32102SOL    HW298139   7.303   7.465   5.009
32103SOL     OW98140   3.696   6.330   0.245
32103SOL    HW198141   3.643   6.315   0.167
32103SOL    HW298142   3.636   6.319   0.318
32104SOL     OW98143   9.383  11.258   9.847
32104SOL    HW198144   9.442  11.248   9.772
32104SOL    HW298145   9.315  11.318   9.817
32105SOL     OW98146   0.198   1.845   6.688
32105SOL    HW198147   0.127   1.802   6.640
32105SOL    HW298148   0.272   1.845   6.628
32106SOL     OW98149   4.126   7.095  11.404
32106SOL    HW198150   4.162   7.047  11.330
32106SOL    HW298151   4.202   7.140  11.442
32107SOL     OW98152   1.862   0.799   8.410
32107SOL    HW198153   1.834   0.863   8.345
32107SOL    HW298154   1.958   0.803   8.409
32108SOL     OW98155   8.161   9.855  14.808
32108SOL    HW198156   8.111   9.809  14.741
32108SOL    HW298157   8.243   9.807  14.814
32109SOL     OW98158   0.994  12.186   7.737
32109SOL    HW198159   0.942  12.206   7.815
32109SOL    HW298160   1.083  12.211   7.762
32110SOL     OW98161  10.209   2.789   8.688
32110SOL    HW198162  10.125   2.793   8.643
32110SOL    HW298163  10.208   2.863   8.749
32111SOL     OW98164  12.107   1.174  12.200
32111SOL    HW198165  12.131   1.124  12.278
32111SOL    HW298166  12.012   1.178  12.202
32112SOL     OW98167   2.543   6.034  10.457
32112SOL    HW198168   2.537   6.109  10.397
32112SOL    HW298169   2.552   6.074  10.544
32113SOL     OW98170  12.849   5.806   9.259
32113SOL    HW198171  12.875   5.864   9.188
32113SOL    HW298172  12.767   5.765   9.229
32114SOL     OW98173   2.697   7.154  14.263
32114SOL    HW198174   2.609   7.169  14.228
32114SOL    HW298175   2.691   7.071  14.310
32115SOL     OW98176   7.781   0.267  13.779
32115SOL    HW198177   7.805   0.324  13.852
32115SOL    HW298178   7.756   0.184  13.821
32116SOL     OW98179   4.262   7.141  10.120
32116SOL    HW198180   4.297   7.099  10.041
32116SOL    HW298181   4.170   7.114  10.123
32117SOL     OW98182  13.050   3.015   5.370
32117SOL    HW198183  13.133   3.055   5.395
32117SOL    HW298184  13.065   2.921   5.378
32118SOL     OW98185   4.683  14.543   0.592
32118SOL    HW198186   4.598  14.520   0.556
32118SOL    HW298187   4.689  14.492   0.673
32119SOL     OW98188  13.832   3.021   9.262
32119SOL    HW198189  13.891   2.945   9.259
32119SOL    HW298190  13.819   3.037   9.355
32120SOL     OW98191   6.056   9.860   1.251
32120SOL    HW198192   6.105   9.873   1.170
32120SOL    HW298193   5.967   9.838   1.222
32121SOL     OW98194   5.313   8.777  14.867
32121SOL    HW198195   5.375   8.760  14.796
32121SOL    HW298196   5.335   8.864   0.026
32122SOL     OW98197  10.790   4.425   7.318
32122SOL    HW198198  10.790   4.331   7.299
32122SOL    HW298199  10.697   4.448   7.318
32123SOL     OW98200  10.162  13.160  13.134
32123SOL    HW198201  10.208  13.234  13.174
32123SOL    HW298202  10.120  13.197  13.056
32124SOL     OW98203   7.526   3.605   7.457
32124SOL    HW198204   7.550   3.559   7.537
32124SOL    HW298205   7.435   3.633   7.471
32125SOL     OW98206   0.280  14.356  13.075
32125SOL    HW198207   0.228  14.425  13.033
32125SOL    HW298208   0.215  14.292  13.105
32126SOL     OW98209   0.814   1.236   3.675
32126SOL    HW198210   0.806   1.141   3.664
32126SOL    HW298211   0.745   1.259   3.738
32127SOL     OW98212  11.170   7.566   4.838
32127SOL    HW198213  11.231   7.529   4.775
32127SOL    HW298214  11.110   7.619   4.785
32128SOL     OW98215   8.934   0.068  14.466
32128SOL    HW198216   8.864   0.004  14.456
32128SOL    HW298217   8.963   0.059  14.557
32129SOL     OW98218   7.758   0.944   4.591
32129SOL    HW198219   7.679   0.993   4.569
32129SOL    HW298220   7.828   0.991   4.546
32130SOL     OW98221  12.347  11.890   1.872
32130SOL    HW198222  12.359  11.823   1.940
32130SOL    HW298223  12.266  11.865   1.828
32131SOL     OW98224  11.459   7.998   5.427
32131SOL    HW198225  11.388   8.057   5.453
32131SOL    HW298226  11.431   7.911   5.457
32132SOL     OW98227   5.532   1.988   8.713
32132SOL    HW198228   5.477   1.914   8.687
32132SOL    HW298229   5.499   2.015   8.799
32133SOL     OW98230   1.725  10.482  11.816
32133SOL    HW198231   1.742  10.576  11.805
32133SOL    HW298232   1.800  10.439  11.774
32134SOL     OW98233  12.000  11.579   5.008
32134SOL    HW198234  11.932  11.603   5.071
32134SOL    HW298235  12.059  11.654   5.007
32135SOL     OW98236  12.368  10.205   2.693
32135SOL    HW198237  12.364  10.184   2.786
32135SOL    HW298238  12.308  10.279   2.682
32136SOL     OW98239  12.870  10.048  12.091
32136SOL    HW198240  12.801   9.983  12.106
32136SOL    HW298241  12.908  10.063  12.177
32137SOL     OW98242  11.085   2.221   9.400
32137SOL    HW198243  11.133   2.140   9.381
32137SOL    HW298244  11.002   2.211   9.354
32138SOL     OW98245   6.654  11.202  11.147
32138SOL    HW198246   6.671  11.108  11.157
32138SOL    HW298247   6.647  11.235  11.237
32139SOL     OW98248   3.492  11.087  11.020
32139SOL    HW198249   3.518  11.075  11.111
32139SOL    HW298250   3.401  11.060  11.016
32140SOL     OW98251   3.881  11.947   8.793
32140SOL    HW198252   3.849  11.988   8.713
32140SOL    HW298253   3.831  11.866   8.801
32141SOL     OW98254   5.834   9.508  13.246
32141SOL    HW198255   5.880   9.589  13.224
32141SOL    HW298256   5.764   9.536  13.305
32142SOL     OW98257   9.856   5.403   1.574
32142SOL    HW198258   9.796   5.364   1.511
32142SOL    HW298259   9.824   5.492   1.587
32143SOL     OW98260   1.464   9.137   8.910
32143SOL    HW198261   1.537   9.176   8.863
32143SOL    HW298262   1.503   9.065   8.959
32144SOL     OW98263   7.921   9.591  13.395
32144SOL    HW198264   7.973   9.569  13.318
32144SOL    HW298265   7.869   9.513  13.413
32145SOL     OW98266   2.505  13.600   7.294
32145SOL    HW198267   2.465  13.564   7.215
32145SOL    HW298268   2.584  13.644   7.263
32146SOL     OW98269   6.696   9.246  12.145
32146SOL    HW198270   6.644   9.194  12.207
32146SOL    HW298271   6.782   9.204  12.144
32147SOL     OW98272   8.710  11.671  13.778
32147SOL    HW198273   8.721  11.577  13.762
32147SOL    HW298274   8.627  11.693  13.734
32148SOL     OW98275   6.615   1.073  11.075
32148SOL    HW198276   6.629   1.030  11.159
32148SOL    HW298277   6.568   1.008  11.022
32149SOL     OW98278  13.290  12.068  12.504
32149SOL    HW198279  13.346  12.027  12.438
32149SOL    HW298280  13.202  12.063  12.468
32150SOL     OW98281   2.499   3.943   8.053
32150SOL    HW198282   2.421   3.900   8.017
32150SOL    HW298283   2.481   3.949   8.147
32151SOL     OW98284   5.745   2.068   1.436
32151SOL    HW198285   5.777   2.009   1.368
32151SOL    HW298286   5.786   2.152   1.417
32152SOL     OW98287   5.836   3.805   9.707
32152SOL    HW198288   5.823   3.900   9.714
32152SOL    HW298289   5.795   3.769   9.786
32153SOL     OW98290  12.377   7.683   2.391
32153SOL    HW198291  12.468   7.703   2.414
32153SOL    HW298292  12.357   7.742   2.319
32154SOL     OW98293   2.843   8.689  11.567
32154SOL    HW198294   2.853   8.690  11.662
32154SOL    HW298295   2.927   8.724  11.534
32155SOL     OW98296   0.900   9.663  12.464
32155SOL    HW198297   0.924   9.575  12.435
32155SOL    HW298298   0.983   9.710  12.470
32156SOL     OW98299   3.073   5.907   1.580
32156SOL    HW198300   3.089   5.813   1.580
32156SOL    HW298301   3.133   5.943   1.645
32157SOL     OW98302   6.627   4.243   4.630
32157SOL    HW198303   6.585   4.164   4.663
32157SOL    HW298304   6.589   4.314   4.681
32158SOL     OW98305   5.059   2.830   9.785
32158SOL    HW198306   5.024   2.807   9.871
32158SOL    HW298307   5.073   2.746   9.742
32159SOL     OW98308   7.275   1.324   5.010
32159SOL    HW198309   7.256   1.251   5.069
32159SOL    HW298310   7.197   1.380   5.014
32160SOL     OW98311  10.914   6.661  12.472
32160SOL    HW198312  10.984   6.628  12.528
32160SOL    HW298313  10.884   6.585  12.423
32161SOL     OW98314   9.942   3.729  12.624
32161SOL    HW198315  10.032   3.756  12.638
32161SOL    HW298316   9.900   3.738  12.709
32162SOL     OW98317  12.196  14.797   1.307
32162SOL    HW198318  12.192  14.818   1.214
32162SOL    HW298319  12.106  14.775   1.331
32163SOL     OW98320  11.736   5.488   3.673
32163SOL    HW198321  11.748   5.405   3.626
32163SOL    HW298322  11.645   5.513   3.658
32164SOL     OW98323   1.962  10.354   9.412
32164SOL    HW198324   1.972  10.259   9.404
32164SOL    HW298325   1.876  10.372   9.375
32165SOL     OW98326  10.826   0.201   1.616
32165SOL    HW198327  10.740   0.243   1.618
32165SOL    HW298328  10.849   0.191   1.708
32166SOL     OW98329   9.546   7.938   3.596
32166SOL    HW198330   9.467   7.887   3.578
32166SOL    HW298331   9.579   7.902   3.678
32167SOL     OW98332   4.391   0.364   4.652
32167SOL    HW198333   4.482   0.375   4.678
32167SOL    HW298334   4.392   0.293   4.588
32168SOL     OW98335   8.413  10.769   0.835
32168SOL    HW198336   8.477  10.833   0.868
32168SOL    HW298337   8.365  10.817   0.767
32169SOL     OW98338   2.728   5.860  13.131
32169SOL    HW198339   2.738   5.947  13.093
32169SOL    HW298340   2.778   5.863  13.213
32170SOL     OW98341   6.027   5.204   6.348
32170SOL    HW198342   6.080   5.124   6.343
32170SOL    HW298343   6.056   5.247   6.428
32171SOL     OW98344   8.906   9.655   4.560
32171SOL    HW198345   8.823   9.645   4.513
32171SOL    HW298346   8.955   9.719   4.508
32172SOL     OW98347   1.487   5.540  12.161
32172SOL    HW198348   1.517   5.462  12.208
32172SOL    HW298349   1.405   5.513  12.119
32173SOL     OW98350  14.637  12.391   1.368
32173SOL    HW198351  14.683  12.324   1.419
32173SOL    HW298352  14.626  12.463   1.429
32174SOL     OW98353   2.469   2.280   0.478
32174SOL    HW198354   2.447   2.197   0.436
32174SOL    HW298355   2.413   2.283   0.556
32175SOL     OW98356  12.228  12.633  10.179
32175SOL    HW198357  12.166  12.654  10.109
32175SOL    HW298358  12.303  12.594  10.133
32176SOL     OW98359  12.527  14.590  13.146
32176SOL    HW198360  12.449  14.583  13.091
32176SOL    HW298361  12.558  14.679  13.133
32177SOL     OW98362   3.620   6.070  13.164
32177SOL    HW198363   3.536   6.041  13.129
32177SOL    HW298364   3.666   6.108  13.089
32178SOL     OW98365   8.251  10.115  14.582
32178SOL    HW198366   8.339  10.150  14.601
32178SOL    HW298367   8.251  10.028  14.624
32179SOL     OW98368   4.394   4.692   3.012
32179SOL    HW198369   4.353   4.635   3.077
32179SOL    HW298370   4.374   4.650   2.928
32180SOL     OW98371   4.689  11.174   2.868
32180SOL    HW198372   4.773  11.211   2.897
32180SOL    HW298373   4.690  11.084   2.900
32181SOL     OW98374   2.847   0.085   6.257
32181SOL    HW198375   2.755   0.064   6.271
32181SOL    HW298376   2.868   0.045   6.172
32182SOL     OW98377  11.785  11.620   7.383
32182SOL    HW198378  11.723  11.681   7.343
32182SOL    HW298379  11.738  11.587   7.460
32183SOL     OW98380   0.981   4.699  10.543
32183SOL    HW198381   1.009   4.650  10.619
32183SOL    HW298382   1.025   4.656  10.469
32184SOL     OW98383   6.981   5.366   2.590
32184SOL    HW198384   7.062   5.365   2.539
32184SOL    HW298385   7.009   5.352   2.680
32185SOL     OW98386  10.667  10.314   1.100
32185SOL    HW198387  10.629  10.347   1.018
32185SOL    HW298388  10.753  10.355   1.106
32186SOL     OW98389   2.665   4.880  14.787
32186SOL    HW198390   2.715   4.823  14.729
32186SOL    HW298391   2.637   4.822  14.858
32187SOL     OW98392  13.129   3.834   7.416
32187SOL    HW198393  13.134   3.847   7.511
32187SOL    HW298394  13.036   3.818   7.399
32188SOL     OW98395   8.945   8.100   7.890
32188SOL    HW198396   8.884   8.030   7.867
32188SOL    HW298397   9.023   8.055   7.921
32189SOL     OW98398   1.753   0.073   5.445
32189SOL    HW198399   1.741   0.082   5.539
32189SOL    HW298400   1.831   0.126   5.425
32190SOL     OW98401  12.789  10.506   0.369
32190SOL    HW198402  12.797  10.516   0.464
32190SOL    HW298403  12.698  10.529   0.350
32191SOL     OW98404   4.737   4.885   3.589
32191SOL    HW198405   4.718   4.941   3.514
32191SOL    HW298406   4.761   4.801   3.551
32192SOL     OW98407   7.997   7.241   0.421
32192SOL    HW198408   7.950   7.323   0.437
32192SOL    HW298409   8.088   7.267   0.410
32193SOL     OW98410  13.100   5.569   6.646
32193SOL    HW198411  13.062   5.578   6.733
32193SOL    HW298412  13.116   5.658   6.617
32194SOL     OW98413   7.604  13.339   1.927
32194SOL    HW198414   7.583  13.430   1.948
32194SOL    HW298415   7.561  13.323   1.843
32195SOL     OW98416   1.379   4.795   1.710
32195SOL    HW198417   1.409   4.884   1.691
32195SOL    HW298418   1.459   4.742   1.708
32196SOL     OW98419  12.556  14.250   1.942
32196SOL    HW198420  12.585  14.312   2.009
32196SOL    HW298421  12.511  14.305   1.877
32197SOL     OW98422   2.934   5.953  11.779
32197SOL    HW198423   2.852   5.992  11.751
32197SOL    HW298424   2.996   5.970  11.708
32198SOL     OW98425   8.837  10.094  12.152
32198SOL    HW198426   8.922  10.071  12.115
32198SOL    HW298427   8.782  10.112  12.075
32199SOL     OW98428   0.354  12.918  13.651
32199SOL    HW198429   0.353  12.873  13.567
32199SOL    HW298430   0.446  12.943  13.663
32200SOL     OW98431  14.259   6.808   6.715
32200SOL    HW198432  14.340   6.825   6.666
32200SOL    HW298433  14.231   6.895   6.744
32201SOL     OW98434  12.027  12.386  14.864
32201SOL    HW198435  11.960  12.319  14.852
32201SOL    HW298436  12.063  12.369   0.079
32202SOL     OW98437   3.529   1.957   5.478
32202SOL    HW198438   3.552   1.962   5.571
32202SOL    HW298439   3.584   1.886   5.444
32203SOL     OW98440   1.125   3.347   8.291
32203SOL    HW198441   1.145   3.296   8.212
32203SOL    HW298442   1.032   3.331   8.307
32204SOL     OW98443   7.795  12.265   6.610
32204SOL    HW198444   7.819  12.264   6.703
32204SOL    HW298445   7.700  12.260   6.610
32205SOL     OW98446   6.594  14.394   3.583
32205SOL    HW198447   6.669  14.353   3.540
32205SOL    HW298448   6.624  14.481   3.607
32206SOL     OW98449   6.321  14.467  10.191
32206SOL    HW198450   6.378  14.528  10.143
32206SOL    HW298451   6.293  14.404  10.125
32207SOL     OW98452   8.468   5.544   3.972
32207SOL    HW198453   8.531   5.594   4.024
32207SOL    HW298454   8.518   5.470   3.938
32208SOL     OW98455   0.166   2.862  11.704
32208SOL    HW198456   0.180   2.903  11.618
32208SOL    HW298457   0.221   2.784  11.703
32209SOL     OW98458  11.743  10.833   4.934
32209SOL    HW198459  11.679  10.899   4.906
32209SOL    HW298460  11.718  10.811   5.024
32210SOL     OW98461   7.428  11.470  11.220
32210SOL    HW198462   7.389  11.543  11.171
32210SOL    HW298463   7.460  11.410  11.152
32211SOL     OW98464  13.170   1.266  13.416
32211SOL    HW198465  13.238   1.201  13.433
32211SOL    HW298466  13.124   1.275  13.500
32212SOL     OW98467   5.244   6.928   7.826
32212SOL    HW198468   5.263   7.011   7.782
32212SOL    HW298469   5.159   6.901   7.792
32213SOL     OW98470  14.825   0.242   2.887
32213SOL    HW198471  14.801   0.169   2.829
32213SOL    HW298472   0.038   0.217   2.922
32214SOL     OW98473  14.192  12.661  10.826
32214SOL    HW198474  14.284  12.665  10.802
32214SOL    HW298475  14.155  12.744  10.794
32215SOL     OW98476   4.423   1.643   5.631
32215SOL    HW198477   4.480   1.577   5.590
32215SOL    HW298478   4.338   1.600   5.637
32216SOL     OW98479  10.313   9.664  14.844
32216SOL    HW198480  10.303   9.712   0.053
32216SOL    HW298481  10.355   9.725  14.784
32217SOL     OW98482  10.486   5.881   7.414
32217SOL    HW198483  10.572   5.879   7.456
32217SOL    HW298484  10.492   5.815   7.345
32218SOL     OW98485  11.460  11.447  13.717
32218SOL    HW198486  11.375  11.472  13.753
32218SOL    HW298487  11.524  11.480  13.780
32219SOL     OW98488   8.303   4.482   6.468
32219SOL    HW198489   8.210   4.458   6.471
32219SOL    HW298490   8.316   4.512   6.378
32220SOL     OW98491   7.342   4.323  13.781
32220SOL    HW198492   7.396   4.253  13.744
32220SOL    HW298493   7.383   4.345  13.864
32221SOL     OW98494   2.876   7.076   8.434
32221SOL    HW198495   2.958   7.102   8.476
32221SOL    HW298496   2.829   7.159   8.420
32222SOL     OW98497   7.716  13.422   0.619
32222SOL    HW198498   7.725  13.331   0.646
32222SOL    HW298499   7.622  13.438   0.619
32223SOL     OW98500   6.060  13.362   9.435
32223SOL    HW198501   6.055  13.276   9.475
32223SOL    HW298502   6.059  13.423   9.509
32224SOL     OW98503  14.443  13.542   0.469
32224SOL    HW198504  14.392  13.623   0.474
32224SOL    HW298505  14.452  13.513   0.559
32225SOL     OW98506  14.248   2.439  13.402
32225SOL    HW198507  14.163   2.477  13.423
32225SOL    HW298508  14.231   2.382  13.326
32226SOL     OW98509   3.206   7.960  14.509
32226SOL    HW198510   3.183   7.868  14.498
32226SOL    HW298511   3.135   8.009  14.467
32227SOL     OW98512   8.752  11.638   0.509
32227SOL    HW198513   8.834  11.660   0.463
32227SOL    HW298514   8.683  11.653   0.444
32228SOL     OW98515   1.829   6.478  12.254
32228SOL    HW198516   1.924   6.474  12.264
32228SOL    HW298517   1.806   6.563  12.292
32229SOL     OW98518   0.857   7.775   5.288
32229SOL    HW198519   0.858   7.867   5.262
32229SOL    HW298520   0.765   7.752   5.293
32230SOL     OW98521   5.501  14.000   4.037
32230SOL    HW198522   5.562  14.070   4.062
32230SOL    HW298523   5.447  13.987   4.115
32231SOL     OW98524   6.580   7.343  11.059
32231SOL    HW198525   6.664   7.339  11.104
32231SOL    HW298526   6.518   7.303  11.121
32232SOL     OW98527  13.595   4.706  12.696
32232SOL    HW198528  13.589   4.617  12.731
32232SOL    HW298529  13.680   4.737  12.725
32233SOL     OW98530   4.485   8.390  12.137
32233SOL    HW198531   4.401   8.427  12.107
32233SOL    HW298532   4.529   8.463  12.180
32234SOL     OW98533  10.573   1.045   7.643
32234SOL    HW198534  10.574   1.124   7.698
32234SOL    HW298535  10.623   1.070   7.565
32235SOL     OW98536   3.450   5.590   7.417
32235SOL    HW198537   3.427   5.590   7.324
32235SOL    HW298538   3.370   5.615   7.462
32236SOL     OW98539  11.035   5.665  13.303
32236SOL    HW198540  10.940   5.660  13.312
32236SOL    HW298541  11.067   5.591  13.354
32237SOL     OW98542   8.807   6.369  12.759
32237SOL    HW198543   8.803   6.294  12.819
32237SOL    HW298544   8.826   6.330  12.674
32238SOL     OW98545   4.871  13.888   6.488
32238SOL    HW198546   4.820  13.819   6.531
32238SOL    HW298547   4.806  13.950   6.455
32239SOL     OW98548  14.693  14.478  11.176
32239SOL    HW198549  14.759  14.532  11.219
32239SOL    HW298550  14.634  14.541  11.135
32240SOL     OW98551  14.507  12.396   2.584
32240SOL    HW198552  14.463  12.412   2.667
32240SOL    HW298553  14.507  12.301   2.574
32241SOL     OW98554   2.180   9.951   5.276
32241SOL    HW198555   2.153   9.929   5.365
32241SOL    HW298556   2.115  10.014   5.245
32242SOL     OW98557   3.212   1.022  12.452
32242SOL    HW198558   3.240   1.110  12.473
32242SOL    HW298559   3.292   0.977  12.423
32243SOL     OW98560   7.062  12.203  12.362
32243SOL    HW198561   7.048  12.178  12.271
32243SOL    HW298562   7.038  12.296  12.365
32244SOL     OW98563   0.019   8.743  10.831
32244SOL    HW198564  14.852   8.720  10.746
32244SOL    HW298565   0.078   8.671  10.850
32245SOL     OW98566   8.877   9.338  13.910
32245SOL    HW198567   8.940   9.299  13.970
32245SOL    HW298568   8.812   9.379  13.967
32246SOL     OW98569   3.160   1.956  13.382
32246SOL    HW198570   3.191   1.893  13.447
32246SOL    HW298571   3.226   2.026  13.383
32247SOL     OW98572   3.909   5.831   9.673
32247SOL    HW198573   3.998   5.833   9.708
32247SOL    HW298574   3.858   5.881   9.737
32248SOL     OW98575   3.653   6.741   4.421
32248SOL    HW198576   3.743   6.712   4.434
32248SOL    HW298577   3.602   6.660   4.414
32249SOL     OW98578  13.011  10.405   1.558
32249SOL    HW198579  13.090  10.372   1.600
32249SOL    HW298580  12.960  10.327   1.536
32250SOL     OW98581   0.601  14.768   2.113
32250SOL    HW198582   0.602  14.822   2.035
32250SOL    HW298583   0.686  14.723   2.112
32251SOL     OW98584  12.475   7.643   1.839
32251SOL    HW198585  12.532   7.592   1.782
32251SOL    HW298586  12.393   7.593   1.841
32252SOL     OW98587   5.446   7.267  12.802
32252SOL    HW198588   5.524   7.319  12.820
32252SOL    HW298589   5.444   7.259  12.707
32253SOL     OW98590   9.570  13.527  11.176
32253SOL    HW198591   9.563  13.434  11.198
32253SOL    HW298592   9.621  13.565  11.248
32254SOL     OW98593  11.435   8.373  11.471
32254SOL    HW198594  11.453   8.377  11.377
32254SOL    HW298595  11.360   8.431  11.484
32255SOL     OW98596  12.687  10.593  10.287
32255SOL    HW198597  12.611  10.542  10.314
32255SOL    HW298598  12.679  10.598  10.192
32256SOL     OW98599   8.950   0.216   0.071
32256SOL    HW198600   8.935   0.310   0.080
32256SOL    HW298601   8.898   0.191  14.867
32257SOL     OW98602   5.629   2.293   7.622
32257SOL    HW198603   5.590   2.209   7.646
32257SOL    HW298604   5.575   2.325   7.550
32258SOL     OW98605  13.966   2.591   7.008
32258SOL    HW198606  13.978   2.496   7.004
32258SOL    HW298607  13.871   2.604   7.010
32259SOL     OW98608   6.461  11.486   1.588
32259SOL    HW198609   6.483  11.425   1.659
32259SOL    HW298610   6.487  11.440   1.509
32260SOL     OW98611   1.631   6.425   7.330
32260SOL    HW198612   1.711   6.375   7.349
32260SOL    HW298613   1.570   6.399   7.399
32261SOL     OW98614   2.173   6.011  13.418
32261SOL    HW198615   2.219   6.020  13.334
32261SOL    HW298616   2.082   6.029  13.397
32262SOL     OW98617   0.193  11.338  12.344
32262SOL    HW198618   0.285  11.313  12.352
32262SOL    HW298619   0.196  11.421  12.295
32263SOL     OW98620  10.256  11.069  12.548
32263SOL    HW198621  10.332  11.050  12.604
32263SOL    HW298622  10.261  11.163  12.530
32264SOL     OW98623   8.465   8.163   0.565
32264SOL    HW198624   8.478   8.190   0.474
32264SOL    HW298625   8.388   8.211   0.594
32265SOL     OW98626   6.614   1.080   9.046
32265SOL    HW198627   6.647   1.161   9.085
32265SOL    HW298628   6.583   1.105   8.960
32266SOL     OW98629   9.608   1.731   3.241
32266SOL    HW198630   9.669   1.682   3.186
32266SOL    HW298631   9.653   1.814   3.258
32267SOL     OW98632   1.295  14.355  11.059
32267SOL    HW198633   1.297  14.261  11.072
32267SOL    HW298634   1.365  14.372  10.996
32268SOL     OW98635   1.485   4.231  13.382
32268SOL    HW198636   1.545   4.305  13.381
32268SOL    HW298637   1.414   4.258  13.324
32269SOL     OW98638   9.192  13.399   0.665
32269SOL    HW198639   9.182  13.305   0.655
32269SOL    HW298640   9.249  13.425   0.592
32270SOL     OW98641   7.224   6.797  14.473
32270SOL    HW198642   7.139   6.834  14.448
32270SOL    HW298643   7.288   6.859  14.441
32271SOL     OW98644  10.387  13.993   8.377
32271SOL    HW198645  10.388  14.061   8.309
32271SOL    HW298646  10.476  13.959   8.378
32272SOL     OW98647   8.803  11.133   1.329
32272SOL    HW198648   8.782  11.201   1.265
32272SOL    HW298649   8.890  11.103   1.304
32273SOL     OW98650   8.131   1.342   6.298
32273SOL    HW198651   8.136   1.368   6.206
32273SOL    HW298652   8.159   1.251   6.299
32274SOL     OW98653   8.252  10.643   0.120
32274SOL    HW198654   8.266  10.550   0.103
32274SOL    HW298655   8.299  10.660   0.202
32275SOL     OW98656   1.778  14.223   8.421
32275SOL    HW198657   1.786  14.209   8.516
32275SOL    HW298658   1.729  14.305   8.413
32276SOL     OW98659   3.843   6.702   2.668
32276SOL    HW198660   3.747   6.707   2.666
32276SOL    HW298661   3.866   6.659   2.586
32277SOL     OW98662  12.560  13.335   5.816
32277SOL    HW198663  12.506  13.334   5.737
32277SOL    HW298664  12.581  13.243   5.833
32278SOL     OW98665   3.508   9.276   0.762
32278SOL    HW198666   3.564   9.348   0.791
32278SOL    HW298667   3.505   9.216   0.836
32279SOL     OW98668   2.897   6.587   2.898
32279SOL    HW198669   2.845   6.649   2.949
32279SOL    HW298670   2.985   6.626   2.896
32280SOL     OW98671  11.028   2.838   3.155
32280SOL    HW198672  10.964   2.841   3.084
32280SOL    HW298673  11.038   2.929   3.183
32281SOL     OW98674   7.541   7.766  12.797
32281SOL    HW198675   7.455   7.734  12.824
32281SOL    HW298676   7.569   7.704  12.729
32282SOL     OW98677   4.360  13.014  12.979
32282SOL    HW198678   4.425  13.081  13.002
32282SOL    HW298679   4.276  13.058  12.988
32283SOL     OW98680   0.241   4.803   3.611
32283SOL    HW198681   0.180   4.849   3.669
32283SOL    HW298682   0.242   4.713   3.644
32284SOL     OW98683   8.247   3.333   4.380
32284SOL    HW198684   8.175   3.284   4.340
32284SOL    HW298685   8.282   3.275   4.447
32285SOL     OW98686   9.622  12.266   7.129
32285SOL    HW198687   9.537  12.303   7.151
32285SOL    HW298688   9.611  12.230   7.041
32286SOL     OW98689   2.356   1.907   8.012
32286SOL    HW198690   2.299   1.981   7.992
32286SOL    HW298691   2.305   1.830   7.986
32287SOL     OW98692   4.318   3.830   5.506
32287SOL    HW198693   4.393   3.886   5.486
32287SOL    HW298694   4.242   3.879   5.476
32288SOL     OW98695  13.759  13.735  14.515
32288SOL    HW198696  13.734  13.828  14.517
32288SOL    HW298697  13.839  13.730  14.566
32289SOL     OW98698  13.076   2.173   6.262
32289SOL    HW198699  13.054   2.139   6.175
32289SOL    HW298700  13.154   2.227   6.248
32290SOL     OW98701  12.990   2.709   2.703
32290SOL    HW198702  13.038   2.720   2.621
32290SOL    HW298703  12.991   2.615   2.720
32291SOL     OW98704   7.611   7.223   8.068
32291SOL    HW198705   7.675   7.246   8.000
32291SOL    HW298706   7.552   7.161   8.025
32292SOL     OW98707  10.676   1.844   9.379
32292SOL    HW198708  10.653   1.768   9.433
32292SOL    HW298709  10.606   1.848   9.313
32293SOL     OW98710  11.633  10.338  13.393
32293SOL    HW198711  11.694  10.412  13.389
32293SOL    HW298712  11.572  10.353  13.322
32294SOL     OW98713   8.789  11.451  14.509
32294SOL    HW198714   8.715  11.400  14.475
32294SOL    HW298715   8.764  11.542  14.494
32295SOL     OW98716   3.151  13.751   4.363
32295SOL    HW198717   3.061  13.723   4.343
32295SOL    HW298718   3.148  13.774   4.456
32296SOL     OW98719   9.635   1.606   7.204
32296SOL    HW198720   9.674   1.624   7.118
32296SOL    HW298721   9.596   1.519   7.194
32297SOL     OW98722   7.614   0.276   4.955
32297SOL    HW198723   7.629   0.368   4.933
32297SOL    HW298724   7.519   0.270   4.968
32298SOL     OW98725  13.249   0.611  11.161
32298SOL    HW198726  13.318   0.671  11.132
32298SOL    HW298727  13.178   0.624  11.099
32299SOL     OW98728   5.932   0.135   8.597
32299SOL    HW198729   5.882   0.060   8.628
32299SOL    HW298730   6.024   0.111   8.611
32300SOL     OW98731   4.145   2.837   8.461
32300SOL    HW198732   4.145   2.748   8.426
32300SOL    HW298733   4.236   2.866   8.452
32301SOL     OW98734  13.994   1.678  13.123
32301SOL    HW198735  14.043   1.748  13.166
32301SOL    HW298736  13.963   1.623  13.195
32302SOL     OW98737   0.413   8.085   3.984
32302SOL    HW198738   0.338   8.046   4.030
32302SOL    HW298739   0.437   8.021   3.918
32303SOL     OW98740   5.673  13.639   5.440
32303SOL    HW198741   5.626  13.722   5.446
32303SOL    HW298742   5.607  13.573   5.461
32304SOL     OW98743   0.191   6.712   3.966
32304SOL    HW198744   0.279   6.688   3.937
32304SOL    HW298745   0.136   6.641   3.934
32305SOL     OW98746  11.567   9.706   2.324
32305SOL    HW198747  11.610   9.642   2.267
32305SOL    HW298748  11.592   9.791   2.289
32306SOL     OW98749  11.360   9.979  11.737
32306SOL    HW198750  11.343  10.061  11.784
32306SOL    HW298751  11.454   9.964  11.748
32307SOL     OW98752   8.361   6.491   4.250
32307SOL    HW198753   8.281   6.463   4.206
32307SOL    HW298754   8.431   6.441   4.207
32308SOL     OW98755   0.195   0.806   2.990
32308SOL    HW198756   0.269   0.782   2.934
32308SOL    HW298757   0.168   0.892   2.958
32309SOL     OW98758   6.581   0.458   9.863
32309SOL    HW198759   6.497   0.494   9.834
32309SOL    HW298760   6.582   0.473   9.958
32310SOL     OW98761   7.772   8.551  12.140
32310SOL    HW198762   7.790   8.636  12.181
32310SOL    HW298763   7.697   8.517  12.187
32311SOL     OW98764   6.498  13.743  13.055
32311SOL    HW198765   6.521  13.818  13.000
32311SOL    HW298766   6.548  13.670  13.017
32312SOL     OW98767   5.866   2.557   2.832
32312SOL    HW198768   5.908   2.476   2.803
32312SOL    HW298769   5.779   2.529   2.862
32313SOL     OW98770   7.611   2.732  12.519
32313SOL    HW198771   7.660   2.679  12.457
32313SOL    HW298772   7.583   2.670  12.587
32314SOL     OW98773   0.121   6.892   4.170
32314SOL    HW198774   0.135   6.836   4.093
32314SOL    HW298775   0.103   6.831   4.241
32315SOL     OW98776   9.333  14.316   9.457
32315SOL    HW198777   9.371  14.288   9.374
32315SOL    HW298778   9.320  14.410   9.448
32316SOL     OW98779   1.765   7.797   0.487
32316SOL    HW198780   1.861   7.798   0.487
32316SOL    HW298781   1.741   7.751   0.407
32317SOL     OW98782  11.324  13.354  11.288
32317SOL    HW198783  11.361  13.432  11.248
32317SOL    HW298784  11.339  13.364  11.382
32318SOL     OW98785   9.020  13.892   7.894
32318SOL    HW198786   9.026  13.815   7.951
32318SOL    HW298787   9.110  13.925   7.889
32319SOL     OW98788  12.836  10.886   7.158
32319SOL    HW198789  12.758  10.850   7.116
32319SOL    HW298790  12.859  10.962   7.105
32320SOL     OW98791  13.040   6.201   9.794
32320SOL    HW198792  13.074   6.178   9.880
32320SOL    HW298793  12.950   6.230   9.811
32321SOL     OW98794   1.271  14.869   7.454
32321SOL    HW198795   1.214  14.858   7.529
32321SOL    HW298796   1.338   0.059   7.483
32322SOL     OW98797  14.409   5.854  12.711
32322SOL    HW198798  14.500   5.858  12.681
32322SOL    HW298799  14.408   5.785  12.777
32323SOL     OW98800   9.533  12.175   3.955
32323SOL    HW198801   9.513  12.239   4.024
32323SOL    HW298802   9.461  12.112   3.959
32324SOL     OW98803  11.979   7.402   7.298
32324SOL    HW198804  11.997   7.493   7.321
32324SOL    HW298805  11.965   7.358   7.382
32325SOL     OW98806   6.649   0.021  12.530
32325SOL    HW198807   6.585   0.091  12.543
32325SOL    HW298808   6.673  14.866  12.619
32326SOL     OW98809   9.829  10.723  10.462
32326SOL    HW198810   9.767  10.652  10.448
32326SOL    HW298811   9.789  10.799  10.419
32327SOL     OW98812   2.507   0.168  14.612
32327SOL    HW198813   2.601   0.176  14.625
32327SOL    HW298814   2.497   0.155  14.517
32328SOL     OW98815   5.375  10.713   3.557
32328SOL    HW198816   5.381  10.647   3.626
32328SOL    HW298817   5.456  10.704   3.508
32329SOL     OW98818  11.827  14.007   1.192
32329SOL    HW198819  11.764  14.077   1.179
32329SOL    HW298820  11.776  13.927   1.189
32330SOL     OW98821   8.930  10.876   7.130
32330SOL    HW198822   9.019  10.867   7.165
32330SOL    HW298823   8.874  10.834   7.196
32331SOL     OW98824   0.554   0.625   4.980
32331SOL    HW198825   0.640   0.590   4.956
32331SOL    HW298826   0.552   0.712   4.941
32332SOL     OW98827   6.323  10.577   7.486
32332SOL    HW198828   6.347  10.484   7.492
32332SOL    HW298829   6.403  10.623   7.512
32333SOL     OW98830   5.449   0.881  13.462
32333SOL    HW198831   5.392   0.952  13.492
32333SOL    HW298832   5.461   0.897  13.369
32334SOL     OW98833  13.142   4.397   2.469
32334SOL    HW198834  13.118   4.413   2.378
32334SOL    HW298835  13.212   4.459   2.487
32335SOL     OW98836   6.955   0.971   3.048
32335SOL    HW198837   6.946   1.040   2.981
32335SOL    HW298838   7.048   0.971   3.070
32336SOL     OW98839   0.568   1.190   8.668
32336SOL    HW198840   0.661   1.207   8.653
32336SOL    HW298841   0.565   1.099   8.699
32337SOL     OW98842   8.946   8.883   9.571
32337SOL    HW198843   8.977   8.792   9.573
32337SOL    HW298844   8.888   8.891   9.648
32338SOL     OW98845   4.861   8.253   4.066
32338SOL    HW198846   4.888   8.206   4.145
32338SOL    HW298847   4.886   8.343   4.081
32339SOL     OW98848   1.867   3.515  13.154
32339SOL    HW198849   1.778   3.481  13.148
32339SOL    HW298850   1.884   3.521  13.248
32340SOL     OW98851   3.451  10.781   8.577
32340SOL    HW198852   3.367  10.746   8.607
32340SOL    HW298853   3.471  10.851   8.639
32341SOL     OW98854   6.740   4.311   8.039
32341SOL    HW198855   6.805   4.247   8.067
32341SOL    HW298856   6.661   4.259   8.024
32342SOL     OW98857   1.188  14.365   9.730
32342SOL    HW198858   1.093  14.378   9.732
32342SOL    HW298859   1.199  14.274   9.703
32343SOL     OW98860   2.271   8.420   4.933
32343SOL    HW198861   2.206   8.490   4.930
32343SOL    HW298862   2.354   8.465   4.947
32344SOL     OW98863   6.575   2.776   8.246
32344SOL    HW198864   6.579   2.870   8.262
32344SOL    HW298865   6.582   2.736   8.332
32345SOL     OW98866  12.812   2.329   2.476
32345SOL    HW198867  12.831   2.386   2.550
32345SOL    HW298868  12.890   2.273   2.468
32346SOL     OW98869   9.407   8.061   0.953
32346SOL    HW198870   9.433   8.050   0.862
32346SOL    HW298871   9.317   8.093   0.950
32347SOL     OW98872  13.088  13.592   5.482
32347SOL    HW198873  13.142  13.559   5.554
32347SOL    HW298874  13.134  13.564   5.403
32348SOL     OW98875  11.584  13.175   5.926
32348SOL    HW198876  11.518  13.141   5.987
32348SOL    HW298877  11.650  13.106   5.922
32349SOL     OW98878   1.317   5.862  14.518
32349SOL    HW198879   1.338   5.841  14.427
32349SOL    HW298880   1.307   5.958  14.519
32350SOL     OW98881   8.289   9.482  14.389
32350SOL    HW198882   8.363   9.499  14.448
32350SOL    HW298883   8.321   9.413  14.330
32351SOL     OW98884  13.566   7.294  12.303
32351SOL    HW198885  13.642   7.237  12.290
32351SOL    HW298886  13.548   7.287  12.397
32352SOL     OW98887   6.377   3.963   4.101
32352SOL    HW198888   6.306   3.990   4.159
32352SOL    HW298889   6.396   4.042   4.049
32353SOL     OW98890  12.513  14.215  10.703
32353SOL    HW198891  12.431  14.198  10.657
32353SOL    HW298892  12.488  14.272  10.776
32354SOL     OW98893   0.497   6.348   0.904
32354SOL    HW198894   0.477   6.264   0.862
32354SOL    HW298895   0.565   6.387   0.848
32355SOL     OW98896  10.963   7.913   7.282
32355SOL    HW198897  10.890   7.975   7.286
32355SOL    HW298898  11.032   7.954   7.334
32356SOL     OW98899   2.370  13.442  10.303
32356SOL    HW198900   2.406  13.358  10.333
32356SOL    HW298901   2.277  13.426  10.292
32357SOL     OW98902   1.920   6.365   8.627
32357SOL    HW198903   1.921   6.270   8.639
32357SOL    HW298904   1.842   6.394   8.675
32358SOL     OW98905   2.622   3.538   6.136
32358SOL    HW198906   2.644   3.480   6.063
32358SOL    HW298907   2.567   3.606   6.097
32359SOL     OW98908   7.265   1.564   9.145
32359SOL    HW198909   7.191   1.524   9.191
32359SOL    HW298910   7.241   1.560   9.053
32360SOL     OW98911   7.878   6.111  13.238
32360SOL    HW198912   7.783   6.106  13.253
32360SOL    HW298913   7.891   6.067  13.155
32361SOL     OW98914  12.379   5.326   6.895
32361SOL    HW198915  12.395   5.399   6.836
32361SOL    HW298916  12.302   5.283   6.859
32362SOL     OW98917  13.794   7.816  12.059
32362SOL    HW198918  13.730   7.745  12.062
32362SOL    HW298919  13.742   7.895  12.047
32363SOL     OW98920   1.376   8.208   6.003
32363SOL    HW198921   1.293   8.250   5.982
32363SOL    HW298922   1.424   8.273   6.054
32364SOL     OW98923   0.651   5.783   5.905
32364SOL    HW198924   0.697   5.713   5.859
32364SOL    HW298925   0.701   5.794   5.987
32365SOL     OW98926  14.585  11.549   9.569
32365SOL    HW198927  14.650  11.559   9.499
32365SOL    HW298928  14.538  11.632   9.570
32366SOL     OW98929   0.231   2.414  13.265
32366SOL    HW198930   0.277   2.336  13.297
32366SOL    HW298931   0.194   2.454  13.343
32367SOL     OW98932  10.785   5.767   3.889
32367SOL    HW198933  10.757   5.704   3.956
32367SOL    HW298934  10.853   5.721   3.840
32368SOL     OW98935   7.090  10.943   7.324
32368SOL    HW198936   7.160  10.920   7.262
32368SOL    HW298937   7.118  11.027   7.361
32369SOL     OW98938  13.579   9.851   1.060
32369SOL    HW198939  13.668   9.818   1.065
32369SOL    HW298940  13.569   9.881   0.970
32370SOL     OW98941   1.024   0.552  10.097
32370SOL    HW198942   1.008   0.468  10.054
32370SOL    HW298943   0.937   0.591  10.106
32371SOL     OW98944   1.641  12.786  14.236
32371SOL    HW198945   1.649  12.826  14.149
32371SOL    HW298946   1.611  12.697  14.219
32372SOL     OW98947  11.479   4.099   7.814
32372SOL    HW198948  11.479   4.025   7.755
32372SOL    HW298949  11.570   4.127   7.820
32373SOL     OW98950   4.390   2.218   1.138
32373SOL    HW198951   4.339   2.145   1.103
32373SOL    HW298952   4.396   2.280   1.066
32374SOL     OW98953  14.122  13.825   9.567
32374SOL    HW198954  14.179  13.889   9.526
32374SOL    HW298955  14.127  13.844   9.660
32375SOL     OW98956   5.175   2.706   1.347
32375SOL    HW198957   5.218   2.704   1.261
32375SOL    HW298958   5.082   2.693   1.328
32376SOL     OW98959  14.733   6.670   6.320
32376SOL    HW198960  14.725   6.622   6.237
32376SOL    HW298961  14.810   6.633   6.362
32377SOL     OW98962   8.497  11.960   1.290
32377SOL    HW198963   8.411  11.998   1.302
32377SOL    HW298964   8.485  11.866   1.303
32378SOL     OW98965   3.024  13.610   7.774
32378SOL    HW198966   3.056  13.667   7.704
32378SOL    HW298967   2.999  13.529   7.729
32379SOL     OW98968   3.272  14.042   3.731
32379SOL    HW198969   3.276  13.985   3.807
32379SOL    HW298970   3.275  14.130   3.767
32380SOL     OW98971  10.683  11.594   6.754
32380SOL    HW198972  10.603  11.608   6.804
32380SOL    HW298973  10.716  11.682   6.736
32381SOL     OW98974  13.281  12.774   1.748
32381SOL    HW198975  13.268  12.867   1.733
32381SOL    HW298976  13.296  12.737   1.661
32382SOL     OW98977   5.016  13.863  14.543
32382SOL    HW198978   4.984  13.854  14.633
32382SOL    HW298979   4.986  13.949  14.515
32383SOL     OW98980  11.757  13.246  10.287
32383SOL    HW198981  11.677  13.201  10.315
32383SOL    HW298982  11.827  13.185  10.307
32384SOL     OW98983  12.409   3.227   6.182
32384SOL    HW198984  12.371   3.306   6.220
32384SOL    HW298985  12.412   3.244   6.088
32385SOL     OW98986  10.121   4.580  13.059
32385SOL    HW198987  10.168   4.582  13.142
32385SOL    HW298988  10.190   4.587  12.992
32386SOL     OW98989   1.171   3.905   9.414
32386SOL    HW198990   1.098   3.856   9.451
32386SOL    HW298991   1.182   3.868   9.326
32387SOL     OW98992  12.469  13.535   0.413
32387SOL    HW198993  12.554  13.492   0.399
32387SOL    HW298994  12.443  13.508   0.501
32388SOL     OW98995  10.730  11.676  14.438
32388SOL    HW198996  10.725  11.747  14.502
32388SOL    HW298997  10.756  11.600  14.489
32389SOL     OW98998   9.189   6.758   6.362
32389SOL    HW198999   9.235   6.776   6.443
32389SOL    HW299000   9.197   6.664   6.350
32390SOL     OW99001  11.119   6.246   7.420
32390SOL    HW199002  11.078   6.332   7.428
32390SOL    HW299003  11.049   6.185   7.443
32391SOL     OW99004   0.815   1.155  12.957
32391SOL    HW199005   0.886   1.213  12.930
32391SOL    HW299006   0.858   1.071  12.974
32392SOL     OW99007   4.401   5.017   4.684
32392SOL    HW199008   4.314   4.985   4.706
32392SOL    HW299009   4.399   5.029   4.589
32393SOL     OW99010  14.269   9.798   0.057
32393SOL    HW199011  14.249   9.705   0.043
32393SOL    HW299012  14.194   9.844   0.021
32394SOL     OW99013  12.599  14.549   5.836
32394SOL    HW199014  12.533  14.619   5.835
32394SOL    HW299015  12.550  14.470   5.812
32395SOL     OW99016   8.881  11.212   7.659
32395SOL    HW199017   8.889  11.298   7.619
32395SOL    HW299018   8.958  11.164   7.629
32396SOL     OW99019   9.150   4.826  14.374
32396SOL    HW199020   9.158   4.731  14.384
32396SOL    HW299021   9.080   4.838  14.309
32397SOL     OW99022   4.133   7.310   7.456
32397SOL    HW199023   4.142   7.373   7.528
32397SOL    HW299024   4.135   7.224   7.498
32398SOL     OW99025   4.827   9.445  10.459
32398SOL    HW199026   4.875   9.378  10.508
32398SOL    HW299027   4.895   9.504  10.427
32399SOL     OW99028   9.657   5.347   7.462
32399SOL    HW199029   9.698   5.320   7.380
32399SOL    HW299030   9.571   5.381   7.436
32400SOL     OW99031  12.413   9.703  11.276
32400SOL    HW199032  12.488   9.753  11.245
32400SOL    HW299033  12.433   9.683  11.368
32401SOL     OW99034   2.320   4.402   8.711
32401SOL    HW199035   2.257   4.381   8.642
32401SOL    HW299036   2.266   4.419   8.788
32402SOL     OW99037   2.031   0.866  11.040
32402SOL    HW199038   2.007   0.799  10.977
32402SOL    HW299039   2.044   0.945  10.988
32403SOL     OW99040   6.370   1.155  10.499
32403SOL    HW199041   6.411   1.072  10.523
32403SOL    HW299042   6.372   1.155  10.403
32404SOL     OW99043   6.575  13.136  13.076
32404SOL    HW199044   6.611  13.216  13.115
32404SOL    HW299045   6.650  13.093  13.034
32405SOL     OW99046  12.039  10.098  12.196
32405SOL    HW199047  11.953  10.142  12.195
32405SOL    HW299048  12.064  10.097  12.289
32406SOL     OW99049   1.110   6.196   3.253
32406SOL    HW199050   1.082   6.258   3.320
32406SOL    HW299051   1.151   6.250   3.186
32407SOL     OW99052  10.660   1.725  10.819
32407SOL    HW199053  10.721   1.709  10.891
32407SOL    HW299054  10.603   1.648  10.819
32408SOL     OW99055   6.612   6.697   7.847
32408SOL    HW199056   6.570   6.632   7.790
32408SOL    HW299057   6.654   6.646   7.916
32409SOL     OW99058   0.623   3.956   1.981
32409SOL    HW199059   0.577   3.976   2.063
32409SOL    HW299060   0.561   3.980   1.912
32410SOL     OW99061   7.252   6.160  14.753
32410SOL    HW199062   7.199   6.224  14.705
32410SOL    HW299063   7.259   6.085  14.694
32411SOL     OW99064  12.388  12.817  12.766
32411SOL    HW199065  12.444  12.870  12.823
32411SOL    HW299066  12.327  12.775  12.827
32412SOL     OW99067   7.172   0.031   9.791
32412SOL    HW199068   7.245   0.018   9.731
32412SOL    HW299069   7.121  14.823   9.785
32413SOL     OW99070   3.514   8.726   2.154
32413SOL    HW199071   3.532   8.690   2.241
32413SOL    HW299072   3.503   8.649   2.098
32414SOL     OW99073  12.749   4.869   5.131
32414SOL    HW199074  12.838   4.844   5.157
32414SOL    HW299075  12.739   4.832   5.044
32415SOL     OW99076  12.745   6.518   0.147
32415SOL    HW199077  12.687   6.588   0.177
32415SOL    HW299078  12.696   6.473   0.078
32416SOL     OW99079  14.611   1.284   8.083
32416SOL    HW199080  14.538   1.327   8.039
32416SOL    HW299081  14.666   1.356   8.115
32417SOL     OW99082   7.791  12.519   0.059
32417SOL    HW199083   7.850  12.581   0.017
32417SOL    HW299084   7.847  12.447   0.085
32418SOL     OW99085   7.526  13.830   9.679
32418SOL    HW199086   7.511  13.923   9.660
32418SOL    HW299087   7.527  13.825   9.775
32419SOL     OW99088  13.163  11.331   3.638
32419SOL    HW199089  13.075  11.325   3.675
32419SOL    HW299090  13.163  11.414   3.590
32420SOL     OW99091   5.254  11.368   7.648
32420SOL    HW199092   5.338  11.412   7.652
32420SOL    HW299093   5.194  11.434   7.612
32421SOL     OW99094   4.883  12.309   5.629
32421SOL    HW199095   4.831  12.332   5.705
32421SOL    HW299096   4.854  12.370   5.561
32422SOL     OW99097  13.076   6.565   9.259
32422SOL    HW199098  13.018   6.542   9.331
32422SOL    HW299099  13.124   6.484   9.241
32423SOL     OW99100   5.317   0.973   1.265
32423SOL    HW199101   5.409   0.982   1.238
32423SOL    HW299102   5.321   0.918   1.343
32424SOL     OW99103   1.314   3.079   4.225
32424SOL    HW199104   1.305   3.014   4.294
32424SOL    HW299105   1.409   3.094   4.219
32425SOL     OW99106   7.196   9.983  12.726
32425SOL    HW199107   7.230  10.051  12.667
32425SOL    HW299108   7.235   9.902  12.693
32426SOL     OW99109   7.045   6.848   9.529
32426SOL    HW199110   7.134   6.817   9.514
32426SOL    HW299111   7.048   6.941   9.505
32427SOL     OW99112   3.954  12.410  14.213
32427SOL    HW199113   3.978  12.375  14.128
32427SOL    HW299114   3.960  12.335  14.273
32428SOL     OW99115   5.537   1.138   1.865
32428SOL    HW199116   5.571   1.226   1.884
32428SOL    HW299117   5.458   1.153   1.813
32429SOL     OW99118  10.660   9.706  14.136
32429SOL    HW199119  10.721   9.639  14.166
32429SOL    HW299120  10.678   9.715  14.042
32430SOL     OW99121   5.818  11.584   8.981
32430SOL    HW199122   5.843  11.591   8.888
32430SOL    HW299123   5.790  11.493   8.992
32431SOL     OW99124   2.524   5.181   5.455
32431SOL    HW199125   2.610   5.198   5.492
32431SOL    HW299126   2.477   5.133   5.524
32432SOL     OW99127   7.978   8.702   3.438
32432SOL    HW199128   7.949   8.790   3.414
32432SOL    HW299129   8.048   8.717   3.502
32433SOL     OW99130   2.964  13.355   4.614
32433SOL    HW199131   3.050  13.321   4.638
32433SOL    HW299132   2.902  13.298   4.659
32434SOL     OW99133   6.304   8.952  14.705
32434SOL    HW199134   6.275   8.861  14.696
32434SOL    HW299135   6.398   8.947  14.722
32435SOL     OW99136   9.908   4.851  13.053
32435SOL    HW199137   9.956   4.827  13.132
32435SOL    HW299138   9.925   4.780  12.991
32436SOL     OW99139   5.015   9.070   3.492
32436SOL    HW199140   4.958   9.145   3.510
32436SOL    HW299141   5.042   9.081   3.401
32437SOL     OW99142  10.352   1.775   2.514
32437SOL    HW199143  10.262   1.745   2.505
32437SOL    HW299144  10.403   1.695   2.525
32438SOL     OW99145  12.084   6.897  11.519
32438SOL    HW199146  12.037   6.934  11.594
32438SOL    HW299147  12.176   6.901  11.544
32439SOL     OW99148  13.199   8.327  12.038
32439SOL    HW199149  13.279   8.276  12.038
32439SOL    HW299150  13.212   8.392  11.969
32440SOL     OW99151   1.721   7.302   1.466
32440SOL    HW199152   1.719   7.219   1.513
32440SOL    HW299153   1.660   7.290   1.394
32441SOL     OW99154   4.604   8.301   1.784
32441SOL    HW199155   4.675   8.339   1.835
32441SOL    HW299156   4.582   8.220   1.831
32442SOL     OW99157  11.370   5.541   9.120
32442SOL    HW199158  11.406   5.614   9.171
32442SOL    HW299159  11.286   5.575   9.087
32443SOL     OW99160   3.105  12.916   2.680
32443SOL    HW199161   3.200  12.929   2.687
32443SOL    HW299162   3.091  12.884   2.591
32444SOL     OW99163  10.207  11.407  10.370
32444SOL    HW199164  10.128  11.455  10.344
32444SOL    HW299165  10.275  11.474  10.373
32445SOL     OW99166   2.747  12.055   5.087
32445SOL    HW199167   2.733  11.961   5.098
32445SOL    HW299168   2.818  12.075   5.149
32446SOL     OW99169   8.757   4.565  10.433
32446SOL    HW199170   8.722   4.476  10.438
32446SOL    HW299171   8.820   4.562  10.361
32447SOL     OW99172   8.957   4.925  10.210
32447SOL    HW199173   8.899   4.893  10.279
32447SOL    HW299174   8.985   5.012  10.240
32448SOL     OW99175   8.234   9.068   9.826
32448SOL    HW199176   8.276   9.154   9.835
32448SOL    HW299177   8.200   9.049   9.913
32449SOL     OW99178  11.325   0.047   6.695
32449SOL    HW199179  11.264   0.085   6.631
32449SOL    HW299180  11.269   0.013   6.764
32450SOL     OW99181   7.521   2.264   0.824
32450SOL    HW199182   7.595   2.290   0.771
32450SOL    HW299183   7.536   2.305   0.909
32451SOL     OW99184  12.203  13.374   3.904
32451SOL    HW199185  12.222  13.455   3.950
32451SOL    HW299186  12.170  13.315   3.972
32452SOL     OW99187  13.676  13.154  10.258
32452SOL    HW199188  13.614  13.184  10.325
32452SOL    HW299189  13.709  13.235  10.219
32453SOL     OW99190  12.106   0.420  13.297
32453SOL    HW199191  12.060   0.473  13.232
32453SOL    HW299192  12.176   0.477  13.329
32454SOL     OW99193   2.720   7.638  11.754
32454SOL    HW199194   2.720   7.576  11.681
32454SOL    HW299195   2.751   7.586  11.828
32455SOL     OW99196   8.357   8.876   2.049
32455SOL    HW199197   8.350   8.972   2.046
32455SOL    HW299198   8.389   8.858   2.138
32456SOL     OW99199   7.057   2.262   6.138
32456SOL    HW199200   7.037   2.258   6.232
32456SOL    HW299201   7.148   2.292   6.134
32457SOL     OW99202   4.039   3.962  13.162
32457SOL    HW199203   4.098   4.011  13.219
32457SOL    HW299204   4.026   4.019  13.086
32458SOL     OW99205  11.653   7.139   3.320
32458SOL    HW199206  11.664   7.230   3.292
32458SOL    HW299207  11.716   7.128   3.391
32459SOL     OW99208   9.133   8.473   5.251
32459SOL    HW199209   9.164   8.478   5.342
32459SOL    HW299210   9.176   8.547   5.208
32460SOL     OW99211   7.382   3.363   1.278
32460SOL    HW199212   7.351   3.449   1.308
32460SOL    HW299213   7.356   3.303   1.348
32461SOL     OW99214   1.042  14.811   8.730
32461SOL    HW199215   1.036   0.001   8.803
32461SOL    HW299216   0.951  14.781   8.717
32462SOL     OW99217  11.996   5.854   5.401
32462SOL    HW199218  11.946   5.931   5.430
32462SOL    HW299219  11.992   5.794   5.475
32463SOL     OW99220   1.706   2.989  14.579
32463SOL    HW199221   1.772   3.032  14.634
32463SOL    HW299222   1.640   3.056  14.563
32464SOL     OW99223  13.132  13.673   8.521
32464SOL    HW199224  13.150  13.692   8.429
32464SOL    HW299225  13.214  13.637   8.554
32465SOL     OW99226  10.419   6.215   1.489
32465SOL    HW199227  10.364   6.293   1.479
32465SOL    HW299228  10.379   6.150   1.431
32466SOL     OW99229   7.209  14.484   3.441
32466SOL    HW199230   7.248  14.397   3.441
32466SOL    HW299231   7.282  14.543   3.423
32467SOL     OW99232   6.006   3.840   4.199
32467SOL    HW199233   6.063   3.802   4.266
32467SOL    HW299234   5.921   3.852   4.243
32468SOL     OW99235   5.057   4.993   1.113
32468SOL    HW199236   4.979   5.039   1.143
32468SOL    HW299237   5.117   5.063   1.086
32469SOL     OW99238   5.953  10.100   4.753
32469SOL    HW199239   5.986  10.179   4.794
32469SOL    HW299240   6.028  10.064   4.705
32470SOL     OW99241   0.900  13.185   5.740
32470SOL    HW199242   0.978  13.161   5.790
32470SOL    HW299243   0.827  13.150   5.791
32471SOL     OW99244   1.268   7.881   2.646
32471SOL    HW199245   1.254   7.848   2.734
32471SOL    HW299246   1.316   7.963   2.658
32472SOL     OW99247  12.332  10.778  10.758
32472SOL    HW199248  12.257  10.838  10.761
32472SOL    HW299249  12.354  10.764  10.849
32473SOL     OW99250  12.494   3.958   9.276
32473SOL    HW199251  12.557   4.030   9.280
32473SOL    HW299252  12.548   3.879   9.289
32474SOL     OW99253   4.807  13.695   3.274
32474SOL    HW199254   4.870  13.673   3.206
32474SOL    HW299255   4.762  13.612   3.293
32475SOL     OW99256   7.317   1.422   9.938
32475SOL    HW199257   7.350   1.511   9.946
32475SOL    HW299258   7.342   1.395   9.849
32476SOL     OW99259   0.187   0.905   1.163
32476SOL    HW199260   0.146   0.820   1.146
32476SOL    HW299261   0.273   0.883   1.201
32477SOL     OW99262   3.040  11.319   4.394
32477SOL    HW199263   3.102  11.348   4.461
32477SOL    HW299264   3.068  11.365   4.315
32478SOL     OW99265   9.932   5.760  11.095
32478SOL    HW199266  10.024   5.737  11.088
32478SOL    HW299267   9.932   5.852  11.121
32479SOL     OW99268  11.365  14.811  10.558
32479SOL    HW199269  11.356  14.728  10.511
32479SOL    HW299270  11.308  14.871  10.510
32480SOL     OW99271  14.815   3.483  11.562
32480SOL    HW199272  14.867   3.560  11.542
32480SOL    HW299273  14.793   3.492  11.654
32481SOL     OW99274   6.660   2.362   7.556
32481SOL    HW199275   6.672   2.377   7.650
32481SOL    HW299276   6.620   2.275   7.551
32482SOL     OW99277  12.204  12.781   7.007
32482SOL    HW199278  12.250  12.777   7.091
32482SOL    HW299279  12.244  12.713   6.953
32483SOL     OW99280   5.685  13.543  12.676
32483SOL    HW199281   5.717  13.590  12.599
32483SOL    HW299282   5.681  13.451  12.649
32484SOL     OW99283   5.242  12.897   3.550
32484SOL    HW199284   5.313  12.877   3.611
32484SOL    HW299285   5.170  12.841   3.578
32485SOL     OW99286  10.142  10.169   6.461
32485SOL    HW199287  10.075  10.202   6.520
32485SOL    HW299288  10.196  10.112   6.515
32486SOL     OW99289   7.646   1.576   5.230
32486SOL    HW199290   7.612   1.628   5.157
32486SOL    HW299291   7.725   1.535   5.195
32487SOL     OW99292  12.680   8.251  11.673
32487SOL    HW199293  12.643   8.196  11.741
32487SOL    HW299294  12.604   8.292  11.630
32488SOL     OW99295   4.183   5.784   2.963
32488SOL    HW199296   4.214   5.767   3.052
32488SOL    HW299297   4.206   5.876   2.947
32489SOL     OW99298  11.255   7.665   7.706
32489SOL    HW199299  11.282   7.682   7.796
32489SOL    HW299300  11.213   7.580   7.709
32490SOL     OW99301   6.149   1.477  14.494
32490SOL    HW199302   6.240   1.448  14.500
32490SOL    HW299303   6.151   1.569  14.522
32491SOL     OW99304   9.943  14.471  12.858
32491SOL    HW199305   9.999  14.494  12.932
32491SOL    HW299306   9.956  14.541  12.795
32492SOL     OW99307   2.139   8.072  14.491
32492SOL    HW199308   2.171   7.983  14.507
32492SOL    HW299309   2.048   8.070  14.519
32493SOL     OW99310   6.744  12.139   9.805
32493SOL    HW199311   6.652  12.163   9.814
32493SOL    HW299312   6.757  12.128   9.711
32494SOL     OW99313  10.481   9.425  12.599
32494SOL    HW199314  10.508   9.438  12.509
32494SOL    HW299315  10.528   9.346  12.627
32495SOL     OW99316   7.393   0.504   1.162
32495SOL    HW199317   7.367   0.572   1.224
32495SOL    HW299318   7.438   0.438   1.216
32496SOL     OW99319  12.678   8.655   4.434
32496SOL    HW199320  12.678   8.628   4.525
32496SOL    HW299321  12.586   8.656   4.408
32497SOL     OW99322   2.064   9.829   7.655
32497SOL    HW199323   2.029   9.895   7.715
32497SOL    HW299324   2.047   9.865   7.568
32498SOL     OW99325   6.609  12.741   8.292
32498SOL    HW199326   6.559  12.668   8.329
32498SOL    HW299327   6.567  12.819   8.327
32499SOL     OW99328   2.572   4.824   6.346
32499SOL    HW199329   2.523   4.906   6.352
32499SOL    HW299330   2.664   4.851   6.357
32500SOL     OW99331   3.189   3.138   4.236
32500SOL    HW199332   3.119   3.200   4.257
32500SOL    HW299333   3.161   3.096   4.155
32501SOL     OW99334   2.144   4.067  10.428
32501SOL    HW199335   2.052   4.091  10.439
32501SOL    HW299336   2.172   4.112  10.349
32502SOL     OW99337  10.773  14.008  10.965
32502SOL    HW199338  10.806  13.969  10.884
32502SOL    HW299339  10.802  13.949  11.034
32503SOL     OW99340   3.017   8.138  12.415
32503SOL    HW199341   2.970   8.195  12.475
32503SOL    HW299342   2.993   8.050  12.441
32504SOL     OW99343  10.576  10.052   1.772
32504SOL    HW199344  10.610   9.966   1.797
32504SOL    HW299345  10.509  10.034   1.707
32505SOL     OW99346  10.166   9.722   5.460
32505SOL    HW199347  10.115   9.771   5.395
32505SOL    HW299348  10.229   9.672   5.409
32506SOL     OW99349  10.541   1.417   1.217
32506SOL    HW199350  10.452   1.423   1.182
32506SOL    HW299351  10.595   1.393   1.141
32507SOL     OW99352   6.320   9.647   1.153
32507SOL    HW199353   6.248   9.660   1.091
32507SOL    HW299354   6.306   9.558   1.186
32508SOL     OW99355   3.050   7.393  13.769
32508SOL    HW199356   3.145   7.377  13.767
32508SOL    HW299357   3.033   7.421  13.859
32509SOL     OW99358   9.908   9.740   9.538
32509SOL    HW199359   9.918   9.650   9.505
32509SOL    HW299360   9.971   9.790   9.486
32510SOL     OW99361   6.811   8.944   6.509
32510SOL    HW199362   6.787   9.004   6.439
32510SOL    HW299363   6.907   8.949   6.513
32511SOL     OW99364   5.326   5.283   4.464
32511SOL    HW199365   5.381   5.338   4.519
32511SOL    HW299366   5.381   5.207   4.442
32512SOL     OW99367   7.934  13.911   9.875
32512SOL    HW199368   7.893  13.837   9.829
32512SOL    HW299369   8.015  13.874   9.910
32513SOL     OW99370  11.995  13.441   4.875
32513SOL    HW199371  11.941  13.376   4.920
32513SOL    HW299372  11.948  13.461   4.794
32514SOL     OW99373   5.940   1.096  12.837
32514SOL    HW199374   5.850   1.088  12.869
32514SOL    HW299375   5.976   1.007  12.847
32515SOL     OW99376   3.022   7.001   8.050
32515SOL    HW199377   3.066   7.055   8.116
32515SOL    HW299378   2.987   7.064   7.987
32516SOL     OW99379   0.075   2.801   6.079
32516SOL    HW199380   0.153   2.746   6.069
32516SOL    HW299381   0.074   2.823   6.172
32517SOL     OW99382   6.202   8.389   3.148
32517SOL    HW199383   6.288   8.361   3.180
32517SOL    HW299384   6.152   8.406   3.228
32518SOL     OW99385  13.143   9.311  11.866
32518SOL    HW199386  13.224   9.324  11.915
32518SOL    HW299387  13.161   9.237  11.808
32519SOL     OW99388  10.066   5.334   9.974
32519SOL    HW199389  10.154   5.365   9.955
32519SOL    HW299390  10.077   5.273  10.046
32520SOL     OW99391   7.181   6.884  12.000
32520SOL    HW199392   7.109   6.847  11.948
32520SOL    HW299393   7.201   6.815  12.063
32521SOL     OW99394   4.075   9.690  11.383
32521SOL    HW199395   4.151   9.742  11.410
32521SOL    HW299396   4.081   9.611  11.436
32522SOL     OW99397   7.028   4.074   6.656
32522SOL    HW199398   7.030   4.001   6.718
32522SOL    HW299399   7.062   4.148   6.705
32523SOL     OW99400   8.230  12.504   0.313
32523SOL    HW199401   8.258  12.453   0.389
32523SOL    HW299402   8.271  12.461   0.238
32524SOL     OW99403  10.057   0.622   2.529
32524SOL    HW199404  10.044   0.708   2.489
32524SOL    HW299405   9.969   0.586   2.536
32525SOL     OW99406  12.975  12.000   7.448
32525SOL    HW199407  12.972  12.043   7.534
32525SOL    HW299408  13.068  11.988   7.431
32526SOL     OW99409   7.565   5.980   7.720
32526SOL    HW199410   7.621   6.045   7.678
32526SOL    HW299411   7.623   5.931   7.778
32527SOL     OW99412   8.223   1.813   4.159
32527SOL    HW199413   8.231   1.766   4.241
32527SOL    HW299414   8.211   1.745   4.093
32528SOL     OW99415  14.036  11.789   4.515
32528SOL    HW199416  14.076  11.863   4.470
32528SOL    HW299417  14.096  11.769   4.587
32529SOL     OW99418  13.793  14.099  13.660
32529SOL    HW199419  13.753  14.125  13.577
32529SOL    HW299420  13.818  14.181  13.703
32530SOL     OW99421  12.845   2.496   2.233
32530SOL    HW199422  12.916   2.486   2.169
32530SOL    HW299423  12.863   2.429   2.299
32531SOL     OW99424  13.867  14.490   1.526
32531SOL    HW199425  13.796  14.459   1.582
32531SOL    HW299426  13.933  14.522   1.588
32532SOL     OW99427  14.008   5.856  11.272
32532SOL    HW199428  14.039   5.794  11.207
32532SOL    HW299429  14.087   5.899  11.304
32533SOL     OW99430   0.629  14.477   8.039
32533SOL    HW199431   0.625  14.533   8.117
32533SOL    HW299432   0.635  14.538   7.966
32534SOL     OW99433  12.937   1.698   2.680
32534SOL    HW199434  12.906   1.629   2.739
32534SOL    HW299435  12.972   1.651   2.604
32535SOL     OW99436   1.317   3.834   4.763
32535SOL    HW199437   1.244   3.773   4.778
32535SOL    HW299438   1.328   3.879   4.847
32536SOL     OW99439   0.883  14.457   3.590
32536SOL    HW199440   0.894  14.534   3.645
32536SOL    HW299441   0.829  14.487   3.517
32537SOL     OW99442   4.353   8.337  12.691
32537SOL    HW199443   4.315   8.252  12.715
32537SOL    HW299444   4.374   8.378  12.774
32538SOL     OW99445  10.116   4.311  11.167
32538SOL    HW199446  10.145   4.289  11.078
32538SOL    HW299447  10.132   4.232  11.218
32539SOL     OW99448   5.464  13.223   4.688
32539SOL    HW199449   5.429  13.312   4.683
32539SOL    HW299450   5.545  13.232   4.738
32540SOL     OW99451   5.796   7.235   9.036
32540SOL    HW199452   5.737   7.188   8.976
32540SOL    HW299453   5.794   7.325   9.005
32541SOL     OW99454   8.379   8.437  13.911
32541SOL    HW199455   8.395   8.371  13.979
32541SOL    HW299456   8.380   8.520  13.958
32542SOL     OW99457   1.058  10.874   2.987
32542SOL    HW199458   0.977  10.918   2.962
32542SOL    HW299459   1.071  10.807   2.920
32543SOL     OW99460  13.457   8.243  13.840
32543SOL    HW199461  13.395   8.241  13.767
32543SOL    HW299462  13.409   8.286  13.911
32544SOL     OW99463   6.818   6.063  10.045
32544SOL    HW199464   6.821   5.967  10.047
32544SOL    HW299465   6.854   6.086   9.960
32545SOL     OW99466   4.590  11.308   5.041
32545SOL    HW199467   4.526  11.355   4.987
32545SOL    HW299468   4.675  11.341   5.012
32546SOL     OW99469  10.445   2.151   6.638
32546SOL    HW199470  10.465   2.199   6.718
32546SOL    HW299471  10.414   2.217   6.576
32547SOL     OW99472  13.868  13.750   6.832
32547SOL    HW199473  13.908  13.777   6.749
32547SOL    HW299474  13.862  13.831   6.882
32548SOL     OW99475   4.126   6.617   1.551
32548SOL    HW199476   4.035   6.589   1.563
32548SOL    HW299477   4.157   6.637   1.639
32549SOL     OW99478   9.051   9.862  13.381
32549SOL    HW199479   8.959   9.854  13.408
32549SOL    HW299480   9.101   9.830  13.456
32550SOL     OW99481   3.468  10.327   4.281
32550SOL    HW199482   3.412  10.262   4.239
32550SOL    HW299483   3.501  10.381   4.209
32551SOL     OW99484  12.610   9.606   1.839
32551SOL    HW199485  12.701   9.584   1.855
32551SOL    HW299486  12.603   9.612   1.744
32552SOL     OW99487  11.393   2.677   1.227
32552SOL    HW199488  11.327   2.740   1.198
32552SOL    HW299489  11.457   2.676   1.155
32553SOL     OW99490  13.090   1.981   4.680
32553SOL    HW199491  13.074   1.973   4.586
32553SOL    HW299492  13.004   2.001   4.718
32554SOL     OW99493   5.946   7.305   5.279
32554SOL    HW199494   6.017   7.275   5.335
32554SOL    HW299495   5.915   7.386   5.320
32555SOL     OW99496  13.103   3.215  11.463
32555SOL    HW199497  13.023   3.200  11.513
32555SOL    HW299498  13.074   3.235  11.375
32556SOL     OW99499  13.791  10.707   8.777
32556SOL    HW199500  13.698  10.730   8.779
32556SOL    HW299501  13.793  10.615   8.806
32557SOL     OW99502  13.482   9.437  13.958
32557SOL    HW199503  13.436   9.392  13.887
32557SOL    HW299504  13.448   9.397  14.038
32558SOL     OW99505  10.143   3.548   9.260
32558SOL    HW199506  10.216   3.521   9.203
32558SOL    HW299507  10.131   3.474   9.320
32559SOL     OW99508   2.413   1.128  13.789
32559SOL    HW199509   2.341   1.192  13.785
32559SOL    HW299510   2.376   1.054  13.838
32560SOL     OW99511  11.851  12.253   6.551
32560SOL    HW199512  11.839  12.323   6.486
32560SOL    HW299513  11.910  12.291   6.616
32561SOL     OW99514   0.985   9.235   6.377
32561SOL    HW199515   0.915   9.188   6.331
32561SOL    HW299516   1.043   9.166   6.407
32562SOL     OW99517  13.898   1.284  11.934
32562SOL    HW199518  13.949   1.296  12.015
32562SOL    HW299519  13.963   1.261  11.868
32563SOL     OW99520   2.235   9.386   5.241
32563SOL    HW199521   2.311   9.379   5.183
32563SOL    HW299522   2.178   9.450   5.199
32564SOL     OW99523  14.849   0.598   4.537
32564SOL    HW199524  14.847   0.645   4.620
32564SOL    HW299525  14.769   0.545   4.537
32565SOL     OW99526   5.106   1.860   2.490
32565SOL    HW199527   5.158   1.941   2.499
32565SOL    HW299528   5.057   1.873   2.409
32566SOL     OW99529   7.878   6.816   5.211
32566SOL    HW199530   7.826   6.896   5.205
32566SOL    HW299531   7.965   6.844   5.239
32567SOL     OW99532   9.846  14.068  12.538
32567SOL    HW199533   9.902  14.108  12.471
32567SOL    HW299534   9.904  14.055  12.613
32568SOL     OW99535  14.613   0.106   1.069
32568SOL    HW199536  14.684   0.106   1.133
32568SOL    HW299537  14.533   0.113   1.121
32569SOL     OW99538  10.111   4.400   0.141
32569SOL    HW199539  10.154   4.456   0.077
32569SOL    HW299540  10.082   4.460   0.210
32570SOL     OW99541   6.045  13.979  12.736
32570SOL    HW199542   6.105  13.979  12.810
32570SOL    HW299543   6.081  13.915  12.675
32571SOL     OW99544   4.463   9.639   7.634
32571SOL    HW199545   4.556   9.660   7.632
32571SOL    HW299546   4.451   9.585   7.712
32572SOL     OW99547   3.938   0.285   9.982
32572SOL    HW199548   3.859   0.309  10.031
32572SOL    HW299549   3.914   0.297   9.890
32573SOL     OW99550   6.836   3.524   8.675
32573SOL    HW199551   6.881   3.439   8.676
32573SOL    HW299552   6.814   3.540   8.767
32574SOL     OW99553   2.184   6.986   1.300
32574SOL    HW199554   2.237   6.981   1.380
32574SOL    HW299555   2.207   7.071   1.262
32575SOL     OW99556   6.479   9.275   3.515
32575SOL    HW199557   6.423   9.326   3.457
32575SOL    HW299558   6.433   9.192   3.526
32576SOL     OW99559  11.206   7.054   4.445
32576SOL    HW199560  11.186   6.997   4.371
32576SOL    HW299561  11.294   7.088   4.427
32577SOL     OW99562  13.776  10.408   0.522
32577SOL    HW199563  13.714  10.369   0.461
32577SOL    HW299564  13.829  10.467   0.469
32578SOL     OW99565   7.019  12.396   2.129
32578SOL    HW199566   7.055  12.312   2.160
32578SOL    HW299567   6.925  12.380   2.121
32579SOL     OW99568  11.697  13.097  10.625
32579SOL    HW199569  11.655  13.073  10.708
32579SOL    HW299570  11.626  13.094  10.561
32580SOL     OW99571   7.921   7.167  11.340
32580SOL    HW199572   8.004   7.174  11.292
32580SOL    HW299573   7.920   7.245  11.396
32581SOL     OW99574   1.867   5.938  11.173
32581SOL    HW199575   1.853   5.895  11.257
32581SOL    HW299576   1.817   6.020  11.178
32582SOL     OW99577   7.125  14.118   2.552
32582SOL    HW199578   7.178  14.054   2.505
32582SOL    HW299579   7.035  14.091   2.536
32583SOL     OW99580   6.437   1.828   2.971
32583SOL    HW199581   6.467   1.918   2.958
32583SOL    HW299582   6.350   1.825   2.931
32584SOL     OW99583  10.229  12.547   6.193
32584SOL    HW199584  10.156  12.565   6.134
32584SOL    HW299585  10.299  12.606   6.164
32585SOL     OW99586  11.316   7.892   1.097
32585SOL    HW199587  11.316   7.865   1.189
32585SOL    HW299588  11.293   7.813   1.048
32586SOL     OW99589   2.321   5.583  13.356
32586SOL    HW199590   2.388   5.515  13.369
32586SOL    HW299591   2.322   5.599  13.261
32587SOL     OW99592   3.754   5.079   5.703
32587SOL    HW199593   3.787   5.042   5.785
32587SOL    HW299594   3.749   5.173   5.719
32588SOL     OW99595   7.956   4.038  10.984
32588SOL    HW199596   7.930   4.111  11.040
32588SOL    HW299597   8.045   4.017  11.012
32589SOL     OW99598  13.920   2.896  12.375
32589SOL    HW199599  13.827   2.890  12.396
32589SOL    HW299600  13.965   2.896  12.460
32590SOL     OW99601   2.700   4.694   9.349
32590SOL    HW199602   2.754   4.764   9.386
32590SOL    HW299603   2.752   4.615   9.362
32591SOL     OW99604   7.268   8.163   1.463
32591SOL    HW199605   7.292   8.169   1.371
32591SOL    HW299606   7.176   8.137   1.462
32592SOL     OW99607  14.354   3.786   7.348
32592SOL    HW199608  14.344   3.723   7.276
32592SOL    HW299609  14.272   3.834   7.350
32593SOL     OW99610   0.055   1.758   0.256
32593SOL    HW199611   0.087   1.721   0.174
32593SOL    HW299612   0.097   1.706   0.324
32594SOL     OW99613   9.346   0.722   8.218
32594SOL    HW199614   9.291   0.692   8.290
32594SOL    HW299615   9.314   0.811   8.199
32595SOL     OW99616   4.317   7.042   2.965
32595SOL    HW199617   4.281   7.057   2.878
32595SOL    HW299618   4.309   6.948   2.980
32596SOL     OW99619   3.028   8.228   7.165
32596SOL    HW199620   3.078   8.291   7.114
32596SOL    HW299621   3.054   8.244   7.256
32597SOL     OW99622   9.197   7.900   6.745
32597SOL    HW199623   9.221   7.879   6.835
32597SOL    HW299624   9.261   7.965   6.716
32598SOL     OW99625   3.010   6.837  11.605
32598SOL    HW199626   3.044   6.751  11.581
32598SOL    HW299627   2.916   6.824  11.616
32599SOL     OW99628   6.574   2.472  14.156
32599SOL    HW199629   6.487   2.432  14.156
32599SOL    HW299630   6.562   2.554  14.204
32600SOL     OW99631   8.881   9.669   0.243
32600SOL    HW199632   8.911   9.755   0.216
32600SOL    HW299633   8.919   9.609   0.179
32601SOL     OW99634   8.865  10.979  12.378
32601SOL    HW199635   8.892  10.990  12.469
32601SOL    HW299636   8.893  10.890  12.356
32602SOL     OW99637   9.094  11.270   8.481
32602SOL    HW199638   9.121  11.289   8.391
32602SOL    HW299639   9.030  11.338   8.501
32603SOL     OW99640   6.064   9.337   5.151
32603SOL    HW199641   6.013   9.398   5.096
32603SOL    HW299642   6.000   9.304   5.214
32604SOL     OW99643   0.515   3.045  12.643
32604SOL    HW199644   0.521   3.140  12.637
32604SOL    HW299645   0.421   3.026  12.648
32605SOL     OW99646   0.880  14.718   5.247
32605SOL    HW199647   0.807  14.765   5.288
32605SOL    HW299648   0.941  14.701   5.319
32606SOL     OW99649  12.150  13.404   1.653
32606SOL    HW199650  12.128  13.495   1.631
32606SOL    HW299651  12.220  13.412   1.717
32607SOL     OW99652   7.647   3.693  14.022
32607SOL    HW199653   7.736   3.686  13.986
32607SOL    HW299654   7.656   3.751  14.097
32608SOL     OW99655  12.477  10.555  10.649
32608SOL    HW199656  12.415  10.623  10.673
32608SOL    HW299657  12.533  10.544  10.726
32609SOL     OW99658   0.882   5.000  12.305
32609SOL    HW199659   0.916   4.921  12.262
32609SOL    HW299660   0.884   4.979  12.399
32610SOL     OW99661   7.411   8.252   8.099
32610SOL    HW199662   7.444   8.268   8.011
32610SOL    HW299663   7.354   8.176   8.091
32611SOL     OW99664  12.781   7.825   5.362
32611SOL    HW199665  12.733   7.756   5.407
32611SOL    HW299666  12.714   7.869   5.310
32612SOL     OW99667   0.244  10.475   5.313
32612SOL    HW199668   0.226  10.427   5.394
32612SOL    HW299669   0.311  10.423   5.269
32613SOL     OW99670   2.312   2.654  11.821
32613SOL    HW199671   2.260   2.734  11.815
32613SOL    HW299672   2.250   2.586  11.846
32614SOL     OW99673  13.550   8.975   1.572
32614SOL    HW199674  13.477   8.945   1.626
32614SOL    HW299675  13.600   9.033   1.629
32615SOL     OW99676   3.670   2.775  10.239
32615SOL    HW199677   3.743   2.835  10.220
32615SOL    HW299678   3.679   2.755  10.332
32616SOL     OW99679   3.515   8.721   3.832
32616SOL    HW199680   3.609   8.715   3.850
32616SOL    HW299681   3.475   8.733   3.918
32617SOL     OW99682   5.092   6.208  11.383
32617SOL    HW199683   5.037   6.260  11.441
32617SOL    HW299684   5.180   6.215  11.421
32618SOL     OW99685   0.823  12.341   1.283
32618SOL    HW199686   0.760  12.400   1.240
32618SOL    HW299687   0.896  12.335   1.222
32619SOL     OW99688  11.315  13.751  13.407
32619SOL    HW199689  11.333  13.766  13.314
32619SOL    HW299690  11.396  13.776  13.451
32620SOL     OW99691  10.564   9.791   9.241
32620SOL    HW199692  10.655   9.767   9.221
32620SOL    HW299693  10.534   9.837   9.163
32621SOL     OW99694   5.586  12.360  12.313
32621SOL    HW199695   5.495  12.345  12.289
32621SOL    HW299696   5.624  12.405  12.238
32622SOL     OW99697  13.734   2.507   9.549
32622SOL    HW199698  13.756   2.455   9.626
32622SOL    HW299699  13.794   2.476   9.481
32623SOL     OW99700  14.374   7.833  13.425
32623SOL    HW199701  14.415   7.757  13.465
32623SOL    HW299702  14.396   7.826  13.332
32624SOL     OW99703   2.638   8.457  14.285
32624SOL    HW199704   2.732   8.451  14.302
32624SOL    HW299705   2.597   8.436  14.369
32625SOL     OW99706  12.014   3.311   2.849
32625SOL    HW199707  12.029   3.219   2.827
32625SOL    HW299708  12.099   3.341   2.883
32626SOL     OW99709   1.544  12.753   9.669
32626SOL    HW199710   1.575  12.726   9.583
32626SOL    HW299711   1.500  12.836   9.654
32627SOL     OW99712   7.936   6.520   6.461
32627SOL    HW199713   7.953   6.481   6.547
32627SOL    HW299714   7.844   6.501   6.443
32628SOL     OW99715   9.357  11.509   0.081
32628SOL    HW199716   9.286  11.531   0.021
32628SOL    HW299717   9.396  11.593   0.105
32629SOL     OW99718   0.386   3.169  11.517
32629SOL    HW199719   0.317   3.235  11.511
32629SOL    HW299720   0.463   3.211  11.478
32630SOL     OW99721   7.324   5.252   1.732
32630SOL    HW199722   7.260   5.323   1.722
32630SOL    HW299723   7.280   5.187   1.787
32631SOL     OW99724   1.395   2.843  11.396
32631SOL    HW199725   1.333   2.905  11.359
32631SOL    HW299726   1.463   2.897  11.437
32632SOL     OW99727   8.782  13.081   7.447
32632SOL    HW199728   8.743  13.035   7.521
32632SOL    HW299729   8.872  13.050   7.444
32633SOL     OW99730   5.322  13.187   3.807
32633SOL    HW199731   5.349  13.181   3.898
32633SOL    HW299732   5.399  13.159   3.757
32634SOL     OW99733   4.888   2.115   4.432
32634SOL    HW199734   4.809   2.169   4.444
32634SOL    HW299735   4.957   2.179   4.411
32635SOL     OW99736  10.435   5.492   7.622
32635SOL    HW199737  10.389   5.536   7.694
32635SOL    HW299738  10.381   5.416   7.603
32636SOL     OW99739   7.719   7.551  13.570
32636SOL    HW199740   7.774   7.530  13.495
32636SOL    HW299741   7.719   7.647  13.574
32637SOL     OW99742  11.485   5.132   8.530
32637SOL    HW199743  11.422   5.081   8.480
32637SOL    HW299744  11.471   5.105   8.621
32638SOL     OW99745   2.409   5.663  13.639
32638SOL    HW199746   2.490   5.713  13.632
32638SOL    HW299747   2.348   5.709  13.581
32639SOL     OW99748   1.524  11.085   3.549
32639SOL    HW199749   1.478  11.161   3.511
32639SOL    HW299750   1.486  11.009   3.505
32640SOL     OW99751   3.514   4.766   4.210
32640SOL    HW199752   3.450   4.838   4.211
32640SOL    HW299753   3.563   4.776   4.292
32641SOL     OW99754  12.256  14.424   1.454
32641SOL    HW199755  12.172  14.390   1.484
32641SOL    HW299756  12.304  14.347   1.423
32642SOL     OW99757   6.139   3.424   3.821
32642SOL    HW199758   6.093   3.508   3.823
32642SOL    HW299759   6.078   3.362   3.862
32643SOL     OW99760   6.009   0.528  13.637
32643SOL    HW199761   6.089   0.521  13.585
32643SOL    HW299762   6.009   0.449  13.691
32644SOL     OW99763  10.316   4.392   8.564
32644SOL    HW199764  10.383   4.341   8.610
32644SOL    HW299765  10.365   4.441   8.498
32645SOL     OW99766   8.962  10.854  10.226
32645SOL    HW199767   8.935  10.857  10.317
32645SOL    HW299768   8.921  10.775  10.191
32646SOL     OW99769   9.838   1.589   5.889
32646SOL    HW199770   9.743   1.580   5.891
32646SOL    HW299771   9.864   1.591   5.981
32647SOL     OW99772   3.628  14.236  13.205
32647SOL    HW199773   3.722  14.247  13.189
32647SOL    HW299774   3.611  14.144  13.182
32648SOL     OW99775  11.937  10.407   8.323
32648SOL    HW199776  11.855  10.424   8.369
32648SOL    HW299777  12.005  10.425   8.387
32649SOL     OW99778   1.416   8.151   4.161
32649SOL    HW199779   1.325   8.159   4.133
32649SOL    HW299780   1.419   8.071   4.213
32650SOL     OW99781   0.170  13.572   8.956
32650SOL    HW199782   0.186  13.483   8.988
32650SOL    HW299783   0.081  13.568   8.921
32651SOL     OW99784   9.064   8.205   6.776
32651SOL    HW199785   8.984   8.167   6.741
32651SOL    HW299786   9.129   8.191   6.708
32652SOL     OW99787   3.470   4.069   9.657
32652SOL    HW199788   3.450   3.976   9.667
32652SOL    HW299789   3.514   4.094   9.738
32653SOL     OW99790  14.612   9.965   2.062
32653SOL    HW199791  14.579   9.888   2.015
32653SOL    HW299792  14.703   9.944   2.081
32654SOL     OW99793   2.209   0.326   4.169
32654SOL    HW199794   2.264   0.363   4.101
32654SOL    HW299795   2.270   0.281   4.227
32655SOL     OW99796   4.381   5.740   0.818
32655SOL    HW199797   4.307   5.759   0.875
32655SOL    HW299798   4.344   5.736   0.730
32656SOL     OW99799   6.701   4.006  13.467
32656SOL    HW199800   6.730   3.976  13.380
32656SOL    HW299801   6.727   3.935  13.526
32657SOL     OW99802  11.544   9.336   7.602
32657SOL    HW199803  11.580   9.250   7.577
32657SOL    HW299804  11.518   9.376   7.519
32658SOL     OW99805   3.971  11.056   1.388
32658SOL    HW199806   3.962  11.135   1.441
32658SOL    HW299807   4.066  11.049   1.372
32659SOL     OW99808   8.232   1.170   8.377
32659SOL    HW199809   8.252   1.260   8.401
32659SOL    HW299810   8.289   1.152   8.302
32660SOL     OW99811  12.729   2.242  11.265
32660SOL    HW199812  12.743   2.315  11.205
32660SOL    HW299813  12.700   2.170  11.208
32661SOL     OW99814   1.005  11.107  11.490
32661SOL    HW199815   0.911  11.124  11.487
32661SOL    HW299816   1.022  11.078  11.580
32662SOL     OW99817   4.435   7.013   8.026
32662SOL    HW199818   4.492   6.942   7.996
32662SOL    HW299819   4.399   6.982   8.108
32663SOL     OW99820  14.800   9.539   9.003
32663SOL    HW199821   0.019   9.513   9.012
32663SOL    HW299822  14.785   9.602   9.074
32664SOL     OW99823  10.458  11.538   6.501
32664SOL    HW199824  10.530  11.600   6.491
32664SOL    HW299825  10.491  11.456   6.465
32665SOL     OW99826   6.626  10.803   5.950
32665SOL    HW199827   6.573  10.815   6.029
32665SOL    HW299828   6.699  10.748   5.978
32666SOL     OW99829  10.846  10.933   0.342
32666SOL    HW199830  10.882  10.859   0.390
32666SOL    HW299831  10.900  11.008   0.368
32667SOL     OW99832   6.450   7.168   7.202
32667SOL    HW199833   6.523   7.153   7.263
32667SOL    HW299834   6.481   7.134   7.118
32668SOL     OW99835  14.430   7.255   4.966
32668SOL    HW199836  14.350   7.206   4.986
32668SOL    HW299837  14.485   7.193   4.919
32669SOL     OW99838  10.552  10.723   0.541
32669SOL    HW199839  10.531  10.781   0.614
32669SOL    HW299840  10.645  10.704   0.551
32670SOL     OW99841   7.422   0.061  10.833
32670SOL    HW199842   7.441  14.856  10.780
32670SOL    HW299843   7.410   0.131  10.769
32671SOL     OW99844  11.964   1.282   3.953
32671SOL    HW199845  12.012   1.362   3.975
32671SOL    HW299846  11.887   1.313   3.906
32672SOL     OW99847  13.972   0.686   6.181
32672SOL    HW199848  13.968   0.645   6.095
32672SOL    HW299849  13.981   0.780   6.163
32673SOL     OW99850  14.274   0.532   5.317
32673SOL    HW199851  14.332   0.573   5.381
32673SOL    HW299852  14.265   0.441   5.347
32674SOL     OW99853   6.207  10.935   0.781
32674SOL    HW199854   6.258  10.863   0.744
32674SOL    HW299855   6.125  10.935   0.731
32675SOL     OW99856  12.150   3.683   4.622
32675SOL    HW199857  12.140   3.591   4.646
32675SOL    HW299858  12.062   3.719   4.627
32676SOL     OW99859  10.781  13.548  13.807
32676SOL    HW199860  10.856  13.520  13.859
32676SOL    HW299861  10.810  13.542  13.716
32677SOL     OW99862   4.160   1.946  11.704
32677SOL    HW199863   4.111   2.028  11.699
32677SOL    HW299864   4.217   1.957  11.780
32678SOL     OW99865   8.678   0.789  12.736
32678SOL    HW199866   8.625   0.857  12.777
32678SOL    HW299867   8.615   0.725  12.703
32679SOL     OW99868   5.506   3.805   7.841
32679SOL    HW199869   5.481   3.829   7.930
32679SOL    HW299870   5.479   3.880   7.788
32680SOL     OW99871   8.166   6.059  14.191
32680SOL    HW199872   8.160   5.978  14.242
32680SOL    HW299873   8.075   6.084  14.177
32681SOL     OW99874  14.797   6.809   9.378
32681SOL    HW199875  14.820   6.900   9.397
32681SOL    HW299876  14.701   6.809   9.371
32682SOL     OW99877  12.928   5.660  10.017
32682SOL    HW199878  12.908   5.674  10.110
32682SOL    HW299879  12.954   5.747   9.985
32683SOL     OW99880   9.123  13.983  12.455
32683SOL    HW199881   9.091  14.037  12.383
32683SOL    HW299882   9.165  13.908  12.413
32684SOL     OW99883   6.682   6.887  14.861
32684SOL    HW199884   6.698   6.828  14.789
32684SOL    HW299885   6.607   6.849   0.035
32685SOL     OW99886  12.597  13.410   1.620
32685SOL    HW199887  12.543  13.458   1.683
32685SOL    HW299888  12.534  13.375   1.557
32686SOL     OW99889  14.590   6.307   4.191
32686SOL    HW199890  14.592   6.387   4.243
32686SOL    HW299891  14.592   6.337   4.101
32687SOL     OW99892  10.145  13.549  12.778
32687SOL    HW199893  10.209  13.620  12.774
32687SOL    HW299894  10.167  13.501  12.858
32688SOL     OW99895   4.361   2.606   6.548
32688SOL    HW199896   4.408   2.523   6.558
32688SOL    HW299897   4.381   2.655   6.628
32689SOL     OW99898  11.282   1.270   3.935
32689SOL    HW199899  11.354   1.236   3.882
32689SOL    HW299900  11.270   1.205   4.004
32690SOL     OW99901   1.529   0.293   7.966
32690SOL    HW199902   1.549   0.247   8.047
32690SOL    HW299903   1.434   0.285   7.957
32691SOL     OW99904   4.466   5.319   0.068
32691SOL    HW199905   4.454   5.306   0.162
32691SOL    HW299906   4.472   5.230   0.032
32692SOL     OW99907   4.349   0.341  12.252
32692SOL    HW199908   4.271   0.285  12.247
32692SOL    HW299909   4.374   0.355  12.161
32693SOL     OW99910   7.892  14.577  13.777
32693SOL    HW199911   7.986  14.587  13.792
32693SOL    HW299912   7.871  14.492  13.817
32694SOL     OW99913   0.768   3.283   2.806
32694SOL    HW199914   0.730   3.321   2.726
32694SOL    HW299915   0.694   3.275   2.866
32695SOL     OW99916   0.824  10.559   3.590
32695SOL    HW199917   0.799  10.529   3.678
32695SOL    HW299918   0.750  10.613   3.562
32696SOL     OW99919   2.744   7.765   8.593
32696SOL    HW199920   2.769   7.718   8.673
32696SOL    HW299921   2.649   7.775   8.599
32697SOL     OW99922  11.862  10.122   2.096
32697SOL    HW199923  11.943  10.073   2.084
32697SOL    HW299924  11.796  10.071   2.049
32698SOL     OW99925  12.769  13.810   9.035
32698SOL    HW199926  12.731  13.895   9.058
32698SOL    HW299927  12.776  13.763   9.118
32699SOL     OW99928   9.103  10.676   2.930
32699SOL    HW199929   9.172  10.614   2.954
32699SOL    HW299930   9.050  10.629   2.866
32700SOL     OW99931  12.986   9.855   4.212
32700SOL    HW199932  13.006   9.807   4.293
32700SOL    HW299933  13.044   9.930   4.214
32701SOL     OW99934   2.821  12.547   2.554
32701SOL    HW199935   2.806  12.519   2.644
32701SOL    HW299936   2.805  12.469   2.501
32702SOL     OW99937   7.990   6.756   9.612
32702SOL    HW199938   7.923   6.692   9.588
32702SOL    HW299939   7.959   6.838   9.575
32703SOL     OW99940   4.722   9.135   2.454
32703SOL    HW199941   4.715   9.066   2.519
32703SOL    HW299942   4.815   9.160   2.455
32704SOL     OW99943   3.928   9.348   7.679
32704SOL    HW199944   3.879   9.302   7.610
32704SOL    HW299945   3.870   9.418   7.706
32705SOL     OW99946   3.329   0.547  11.073
32705SOL    HW199947   3.331   0.545  10.978
32705SOL    HW299948   3.367   0.463  11.100
32706SOL     OW99949   9.526   0.741   3.420
32706SOL    HW199950   9.528   0.834   3.399
32706SOL    HW299951   9.587   0.701   3.358
32707SOL     OW99952   0.128   4.937   3.079
32707SOL    HW199953   0.193   5.004   3.103
32707SOL    HW299954   0.114   4.888   3.159
32708SOL     OW99955   8.168  11.963  11.503
32708SOL    HW199956   8.128  11.933  11.422
32708SOL    HW299957   8.135  11.904  11.570
32709SOL     OW99958  14.589   8.619   4.768
32709SOL    HW199959  14.586   8.569   4.687
32709SOL    HW299960  14.576   8.554   4.837
32710SOL     OW99961   2.331   3.549  13.739
32710SOL    HW199962   2.298   3.571  13.827
32710SOL    HW299963   2.396   3.481  13.754
32711SOL     OW99964   4.954   5.348  11.444
32711SOL    HW199965   4.960   5.255  11.422
32711SOL    HW299966   5.010   5.358  11.521
32712SOL     OW99967   4.365   9.264   1.794
32712SOL    HW199968   4.394   9.201   1.859
32712SOL    HW299969   4.407   9.236   1.713
32713SOL     OW99970  14.280   8.269   6.682
32713SOL    HW199971  14.216   8.257   6.611
32713SOL    HW299972  14.302   8.362   6.679
32714SOL     OW99973   5.323  13.262  12.726
32714SOL    HW199974   5.249  13.221  12.772
32714SOL    HW299975   5.312  13.356  12.743
32715SOL     OW99976   4.717   4.789   3.853
32715SOL    HW199977   4.736   4.807   3.761
32715SOL    HW299978   4.623   4.806   3.863
32716SOL     OW99979   0.972  11.839   7.734
32716SOL    HW199980   0.989  11.929   7.704
32716SOL    HW299981   0.882  11.841   7.766
32717SOL     OW99982   1.775   0.941   6.816
32717SOL    HW199983   1.720   1.019   6.827
32717SOL    HW299984   1.753   0.909   6.729
32718SOL     OW99985   7.098  12.859   6.288
32718SOL    HW199986   7.042  12.812   6.349
32718SOL    HW299987   7.162  12.903   6.345
32719SOL     OW99988   5.972  11.273   5.843
32719SOL    HW199989   6.012  11.223   5.772
32719SOL    HW299990   5.996  11.224   5.922
32720SOL     OW99991   2.156   8.281   9.264
32720SOL    HW199992   2.191   8.363   9.231
32720SOL    HW299993   2.161   8.288   9.359
32721SOL     OW99994   4.620  10.445   9.129
32721SOL    HW199995   4.560  10.509   9.168
32721SOL    HW299996   4.687  10.498   9.086
32722SOL     OW99997   8.571  10.851   2.481
32722SOL    HW199998   8.619  10.795   2.420
32722SOL    HW299999   8.607  10.830   2.567
32723SOL     OW    0   4.141   8.258  10.873
32723SOL    HW1    1   4.193   8.226  10.799
32723SOL    HW2    2   4.080   8.320  10.834
32724SOL     OW    3   3.792   6.174  12.967
32724SOL    HW1    4   3.864   6.235  12.984
32724SOL    HW2    5   3.749   6.210  12.889
32725SOL     OW    6   4.154  14.514   1.932
32725SOL    HW1    7   4.201  14.597   1.920
32725SOL    HW2    8   4.219  14.454   1.968
32726SOL     OW    9  13.441   4.180   8.591
32726SOL    HW1   10  13.470   4.269   8.571
32726SOL    HW2   11  13.385   4.155   8.518
32727SOL     OW   12  14.110   1.547   2.848
32727SOL    HW1   13  14.091   1.538   2.941
32727SOL    HW2   14  14.030   1.518   2.804
32728SOL     OW   15   3.161   0.717   5.922
32728SOL    HW1   16   3.080   0.667   5.930
32728SOL    HW2   17   3.230   0.654   5.944
32729SOL     OW   18  10.337   6.204  11.303
32729SOL    HW1   19  10.387   6.267  11.356
32729SOL    HW2   20  10.352   6.120  11.346
32730SOL     OW   21   2.349   9.965   3.968
32730SOL    HW1   22   2.267  10.001   4.002
32730SOL    HW2   23   2.414   9.987   4.035
32731SOL     OW   24   3.384   2.209  14.086
32731SOL    HW1   25   3.479   2.196  14.078
32731SOL    HW2   26   3.349   2.179  14.003
32732SOL     OW   27   9.532   0.564  14.340
32732SOL    HW1   28   9.603   0.515  14.383
32732SOL    HW2   29   9.457   0.551  14.398
32733SOL     OW   30   1.932   5.889  13.168
32733SOL    HW1   31   1.962   5.947  13.097
32733SOL    HW2   32   2.007   5.832  13.185
32734SOL     OW   33  13.412   6.596  12.398
32734SOL    HW1   34  13.359   6.675  12.386
32734SOL    HW2   35  13.356   6.536  12.446
32735SOL     OW   36   4.831   4.301   9.175
32735SOL    HW1   37   4.790   4.234   9.120
32735SOL    HW2   38   4.891   4.251   9.231
32736SOL     OW   39  10.963  11.869  13.366
32736SOL    HW1   40  10.949  11.820  13.285
32736SOL    HW2   41  11.043  11.920  13.349
32737SOL     OW   42   5.414  11.642   4.031
32737SOL    HW1   43   5.376  11.569   4.079
32737SOL    HW2   44   5.373  11.638   3.944
32738SOL     OW   45   4.266  11.280   8.360
32738SOL    HW1   46   4.233  11.211   8.418
32738SOL    HW2   47   4.234  11.255   8.273
32739SOL     OW   48   3.919   1.843   3.052
32739SOL    HW1   49   3.932   1.768   2.994
32739SOL    HW2   50   3.842   1.888   3.017
32740SOL     OW   51  13.615   9.002   7.420
32740SOL    HW1   52  13.682   9.066   7.446
32740SOL    HW2   53  13.552   9.053   7.370
32741SOL     OW   54   9.344   7.838  10.302
32741SOL    HW1   55   9.411   7.906  10.290
32741SOL    HW2   56   9.376   7.763  10.252
32742SOL     OW   57   8.960   5.626  10.646
32742SOL    HW1   58   8.969   5.551  10.587
32742SOL    HW2   59   9.022   5.690  10.612
32743SOL     OW   60  14.468   1.386  12.688
32743SOL    HW1   61  14.387   1.344  12.658
32743SOL    HW2   62  14.533   1.363  12.621
32744SOL     OW   63  10.092   6.876  10.819
32744SOL    HW1   64  10.121   6.791  10.786
32744SOL    HW2   65  10.014   6.897  10.767
32745SOL     OW   66   5.574   0.464   9.566
32745SOL    HW1   67   5.633   0.535   9.592
32745SOL    HW2   68   5.629   0.386   9.566
32746SOL     OW   69  10.439  11.598  14.855
32746SOL    HW1   70  10.470  11.594  14.765
32746SOL    HW2   71  10.344  11.608  14.848
32747SOL     OW   72  13.747  10.986   3.297
32747SOL    HW1   73  13.727  10.912   3.354
32747SOL    HW2   74  13.841  11.000   3.309
32748SOL     OW   75   9.911   0.308   2.603
32748SOL    HW1   76   9.908   0.289   2.509
32748SOL    HW2   77   9.866   0.392   2.613
32749SOL     OW   78   6.140   0.454   1.567
32749SOL    HW1   79   6.126   0.389   1.636
32749SOL    HW2   80   6.053   0.471   1.531
32750SOL     OW   81   7.168  10.752   2.439
32750SOL    HW1   82   7.118  10.744   2.358
32750SOL    HW2   83   7.155  10.844   2.466
32751SOL     OW   84  14.366   1.210   6.602
32751SOL    HW1   85  14.455   1.242   6.586
32751SOL    HW2   86  14.325   1.209   6.516
32752SOL     OW   87   1.587   0.154   4.728
32752SOL    HW1   88   1.599   0.233   4.782
32752SOL    HW2   89   1.527   0.182   4.659
32753SOL     OW   90   0.729  10.070   3.078
32753SOL    HW1   91   0.733  10.064   3.173
32753SOL    HW2   92   0.767   9.988   3.046
32754SOL     OW   93  10.652   7.510   7.404
32754SOL    HW1   94  10.661   7.585   7.463
32754SOL    HW2   95  10.559   7.491   7.401
32755SOL     OW   96   2.324  12.705   8.503
32755SOL    HW1   97   2.316  12.799   8.521
32755SOL    HW2   98   2.355  12.701   8.412
32756SOL     OW   99   3.673   6.592   1.503
32756SOL    HW1  100   3.709   6.589   1.591
32756SOL    HW2  101   3.582   6.566   1.513
32757SOL     OW  102  10.020   4.221   5.422
32757SOL    HW1  103  10.084   4.281   5.460
32757SOL    HW2  104   9.939   4.272   5.416
32758SOL     OW  105   2.296   7.009   0.346
32758SOL    HW1  106   2.209   7.007   0.306
32758SOL    HW2  107   2.347   6.944   0.297
32759SOL     OW  108  12.434  13.409   7.363
32759SOL    HW1  109  12.380  13.420   7.441
32759SOL    HW2  110  12.489  13.333   7.383
32760SOL     OW  111   0.904   9.532   0.451
32760SOL    HW1  112   0.814   9.513   0.422
32760SOL    HW2  113   0.939   9.589   0.382
32761SOL     OW  114   1.938  11.918   0.828
32761SOL    HW1  115   1.995  11.965   0.767
32761SOL    HW2  116   1.929  11.830   0.790
32762SOL     OW  117  12.402   6.518   6.659
32762SOL    HW1  118  12.387   6.479   6.573
32762SOL    HW2  119  12.429   6.444   6.714
32763SOL     OW  120   3.097   9.994   3.050
32763SOL    HW1  121   3.175   9.968   3.000
32763SOL    HW2  122   3.126   9.996   3.141
32764SOL     OW  123   1.530  11.172   4.663
32764SOL    HW1  124   1.509  11.266   4.659
32764SOL    HW2  125   1.623  11.168   4.640
32765SOL     OW  126   2.769   4.967   0.722
32765SOL    HW1  127   2.842   4.910   0.701
32765SOL    HW2  128   2.786   5.047   0.672
32766SOL     OW  129  12.053  14.546   0.395
32766SOL    HW1  130  12.095  14.566   0.312
32766SOL    HW2  131  12.120  14.498   0.445
32767SOL     OW  132   9.066   7.147   2.603
32767SOL    HW1  133   9.089   7.200   2.527
32767SOL    HW2  134   9.003   7.200   2.652
32768SOL     OW  135   8.324   0.561   5.241
32768SOL    HW1  136   8.269   0.483   5.232
32768SOL    HW2  137   8.355   0.580   5.153
32769SOL     OW  138  11.832   1.076   9.396
32769SOL    HW1  139  11.751   1.118   9.426
32769SOL    HW2  140  11.882   1.061   9.477
32770SOL     OW  141   9.830   8.266  11.287
32770SOL    HW1  142   9.892   8.230  11.223
32770SOL    HW2  143   9.871   8.347  11.317
32771SOL     OW  144   1.814   5.299  10.345
32771SOL    HW1  145   1.720   5.312  10.357
32771SOL    HW2  146   1.825   5.285  10.251
32772SOL     OW  147   4.893   9.664   6.849
32772SOL    HW1  148   4.915   9.750   6.814
32772SOL    HW2  149   4.866   9.680   6.939
32773SOL     OW  150   6.971   3.427   1.347
32773SOL    HW1  151   6.909   3.467   1.286
32773SOL    HW2  152   7.037   3.386   1.292
32774SOL     OW  153   0.253   0.198  11.388
32774SOL    HW1  154   0.255   0.186  11.293
32774SOL    HW2  155   0.161   0.184  11.412
32775SOL     OW  156  11.938   9.680  12.696
32775SOL    HW1  157  11.936   9.726  12.612
32775SOL    HW2  158  12.031   9.660  12.710
32776SOL     OW  159  14.673   3.010  13.046
32776SOL    HW1  160  14.612   3.081  13.064
32776SOL    HW2  161  14.676   2.960  13.128
32777SOL     OW  162   9.680   4.983   1.039
32777SOL    HW1  163   9.606   4.961   0.983
32777SOL    HW2  164   9.699   5.075   1.018
32778SOL     OW  165  11.960  13.287   9.872
32778SOL    HW1  166  11.996  13.313   9.787
32778SOL    HW2  167  11.973  13.363   9.928
32779SOL     OW  168   4.288   9.825  11.485
32779SOL    HW1  169   4.280   9.896  11.548
32779SOL    HW2  170   4.376   9.790  11.498
32780SOL     OW  171  11.711  10.719   9.560
32780SOL    HW1  172  11.636  10.771   9.587
32780SOL    HW2  173  11.694  10.698   9.468
32781SOL     OW  174  12.229   6.879   2.925
32781SOL    HW1  175  12.242   6.785   2.913
32781SOL    HW2  176  12.228   6.915   2.837
32782SOL     OW  177  12.615  10.079   3.509
32782SOL    HW1  178  12.528  10.072   3.548
32782SOL    HW2  179  12.625   9.999   3.458
32783SOL     OW  180  14.387   8.187  11.347
32783SOL    HW1  181  14.454   8.138  11.394
32783SOL    HW2  182  14.413   8.183  11.255
32784SOL     OW  183  13.617  10.756   3.407
32784SOL    HW1  184  13.608  10.770   3.501
32784SOL    HW2  185  13.529  10.737   3.376
32785SOL     OW  186  11.305   9.818   5.676
32785SOL    HW1  187  11.386   9.830   5.726
32785SOL    HW2  188  11.253   9.758   5.728
32786SOL     OW  189  14.059   9.777   7.480
32786SOL    HW1  190  14.022   9.751   7.396
32786SOL    HW2  191  14.133   9.717   7.492
32787SOL     OW  192   5.252  13.152   0.637
32787SOL    HW1  193   5.263  13.118   0.548
32787SOL    HW2  194   5.229  13.075   0.689
32788SOL     OW  195   1.706   8.050  12.035
32788SOL    HW1  196   1.666   7.995  11.967
32788SOL    HW2  197   1.800   8.031  12.029
32789SOL     OW  198   4.498  14.534  13.775
32789SOL    HW1  199   4.517  14.518  13.868
32789SOL    HW2  200   4.411  14.498  13.762
32790SOL     OW  201   1.541   6.011   7.885
32790SOL    HW1  202   1.467   6.046   7.834
32790SOL    HW2  203   1.613   6.072   7.868
32791SOL     OW  204   6.408  14.538   2.146
32791SOL    HW1  205   6.386  14.483   2.222
32791SOL    HW2  206   6.503  14.538   2.143
32792SOL     OW  207   4.468  12.001   3.143
32792SOL    HW1  208   4.501  12.077   3.191
32792SOL    HW2  209   4.462  12.030   3.052
32793SOL     OW  210   9.048   2.163  14.470
32793SOL    HW1  211   8.997   2.216  14.408
32793SOL    HW2  212   9.138   2.170  14.440
32794SOL     OW  213   6.122   1.255  11.257
32794SOL    HW1  214   6.056   1.218  11.316
32794SOL    HW2  215   6.191   1.189  11.254
32795SOL     OW  216  13.095   8.984  11.903
32795SOL    HW1  217  13.089   8.941  11.818
32795SOL    HW2  218  13.023   8.946  11.954
32796SOL     OW  219   3.493   5.565   5.489
32796SOL    HW1  220   3.581   5.529   5.501
32796SOL    HW2  221   3.449   5.503   5.431
32797SOL     OW  222   7.850   7.752   4.738
32797SOL    HW1  223   7.938   7.715   4.750
32797SOL    HW2  224   7.804   7.687   4.686
32798SOL     OW  225  12.249   8.598   5.005
32798SOL    HW1  226  12.208   8.545   5.074
32798SOL    HW2  227  12.273   8.680   5.049
32799SOL     OW  228   2.575   2.447  14.804
32799SOL    HW1  229   2.609   2.535  14.820
32799SOL    HW2  230   2.653   2.393  14.792
32800SOL     OW  231  11.686  14.302   5.818
32800SOL    HW1  232  11.607  14.320   5.767
32800SOL    HW2  233  11.685  14.207   5.832
32801SOL     OW  234   7.966  10.060   2.297
32801SOL    HW1  235   8.002  10.137   2.339
32801SOL    HW2  236   8.028   9.990   2.316
32802SOL     OW  237  14.025  11.271   6.176
32802SOL    HW1  238  13.930  11.274   6.166
32802SOL    HW2  239  14.057  11.230   6.095
32803SOL     OW  240   8.068  12.664   5.721
32803SOL    HW1  241   8.160  12.670   5.697
32803SOL    HW2  242   8.021  12.672   5.638
32804SOL     OW  243  11.823  12.637  13.242
32804SOL    HW1  244  11.874  12.579  13.185
32804SOL    HW2  245  11.790  12.579  13.310
32805SOL     OW  246  10.557   6.817   4.174
32805SOL    HW1  247  10.545   6.849   4.263
32805SOL    HW2  248  10.469   6.812   4.138
32806SOL     OW  249  11.193   5.132  12.984
32806SOL    HW1  250  11.250   5.056  12.969
32806SOL    HW2  251  11.111   5.094  13.017
32807SOL     OW  252  12.871  12.188   0.178
32807SOL    HW1  253  12.820  12.150   0.107
32807SOL    HW2  254  12.871  12.121   0.246
32808SOL     OW  255   0.686   3.434  14.488
32808SOL    HW1  256   0.601   3.435  14.532
32808SOL    HW2  257   0.727   3.352  14.516
32809SOL     OW  258   1.456   8.542   7.705
32809SOL    HW1  259   1.448   8.489   7.626
32809SOL    HW2  260   1.381   8.602   7.701
32810SOL     OW  261  14.611   5.525   4.984
32810SOL    HW1  262  14.668   5.597   5.012
32810SOL    HW2  263  14.670   5.452   4.968
32811SOL     OW  264   5.318  13.026  13.372
32811SOL    HW1  265   5.334  13.111  13.414
32811SOL    HW2  266   5.249  12.985  13.425
32812SOL     OW  267   7.776   4.707   0.957
32812SOL    HW1  268   7.865   4.671   0.966
32812SOL    HW2  269   7.720   4.629   0.957
32813SOL     OW  270   3.755   5.687  10.382
32813SOL    HW1  271   3.841   5.702  10.341
32813SOL    HW2  272   3.702   5.761  10.354
32814SOL     OW  273  12.249   7.863   0.840
32814SOL    HW1  274  12.198   7.943   0.828
32814SOL    HW2  275  12.330   7.879   0.792
32815SOL     OW  276  11.836   0.386   0.771
32815SOL    HW1  277  11.860   0.374   0.863
32815SOL    HW2  278  11.751   0.343   0.763
32816SOL     OW  279  14.342   5.832   0.233
32816SOL    HW1  280  14.337   5.739   0.253
32816SOL    HW2  281  14.391   5.837   0.151
32817SOL     OW  282  14.047   7.162   4.382
32817SOL    HW1  283  14.091   7.190   4.463
32817SOL    HW2  284  13.991   7.236   4.359
32818SOL     OW  285   4.709  13.455   3.383
32818SOL    HW1  286   4.621  13.493   3.385
32818SOL    HW2  287   4.711  13.393   3.455
32819SOL     OW  288  12.845  11.545   0.482
32819SOL    HW1  289  12.871  11.616   0.423
32819SOL    HW2  290  12.902  11.556   0.559
32820SOL     OW  291  11.005   9.319  14.735
32820SOL    HW1  292  11.060   9.266  14.677
32820SOL    HW2  293  11.063   9.388  14.766
32821SOL     OW  294   7.642   8.374   8.811
32821SOL    HW1  295   7.728   8.369   8.853
32821SOL    HW2  296   7.623   8.285   8.783
32822SOL     OW  297   3.348   4.650   5.024
32822SOL    HW1  298   3.263   4.613   5.047
32822SOL    HW2  299   3.411   4.593   5.068
32823SOL     OW  300   5.535   1.334   5.246
32823SOL    HW1  301   5.542   1.429   5.246
32823SOL    HW2  302   5.461   1.315   5.304
32824SOL     OW  303  10.170  10.728   5.527
32824SOL    HW1  304  10.219  10.721   5.609
32824SOL    HW2  305  10.128  10.814   5.532
32825SOL     OW  306   5.259  14.481   9.892
32825SOL    HW1  307   5.212  14.429   9.827
32825SOL    HW2  308   5.191  14.521   9.946
32826SOL     OW  309   2.913   8.485  13.953
32826SOL    HW1  310   2.943   8.461  14.040
32826SOL    HW2  311   2.950   8.418  13.896
32827SOL     OW  312  10.631   8.049  12.640
32827SOL    HW1  313  10.638   7.979  12.705
32827SOL    HW2  314  10.722   8.075  12.623
32828SOL     OW  315   3.309   9.235   6.203
32828SOL    HW1  316   3.316   9.249   6.297
32828SOL    HW2  317   3.375   9.168   6.184
32829SOL     OW  318  10.047   7.341   0.223
32829SOL    HW1  319  10.090   7.306   0.145
32829SOL    HW2  320  10.118   7.376   0.277
32830SOL     OW  321   6.494   8.977  11.925
32830SOL    HW1  322   6.484   8.927  12.006
32830SOL    HW2  323   6.483   8.912  11.855
32831SOL     OW  324  14.087  11.908   2.523
32831SOL    HW1  325  14.022  11.870   2.464
32831SOL    HW2  326  14.037  11.971   2.575
32832SOL     OW  327  10.631   3.861   5.731
32832SOL    HW1  328  10.598   3.777   5.763
32832SOL    HW2  329  10.664   3.842   5.643
32833SOL     OW  330   1.120  12.931   7.745
32833SOL    HW1  331   1.118  12.881   7.826
32833SOL    HW2  332   1.065  13.008   7.762
32834SOL     OW  333  14.362  11.951   5.585
32834SOL    HW1  334  14.329  11.985   5.668
32834SOL    HW2  335  14.423  12.018   5.554
32835SOL     OW  336   3.257   4.118  11.742
32835SOL    HW1  337   3.194   4.171  11.694
32835SOL    HW2  338   3.233   4.028  11.721
32836SOL     OW  339   3.881   1.467   5.885
32836SOL    HW1  340   3.799   1.447   5.930
32836SOL    HW2  341   3.874   1.422   5.801
32837SOL     OW  342   9.030  11.172  12.921
32837SOL    HW1  343   9.124  11.187  12.933
32837SOL    HW2  344   8.993  11.184  13.009
32838SOL     OW  345  14.043   0.564  13.986
32838SOL    HW1  346  14.060   0.470  13.988
32838SOL    HW2  347  14.001   0.580  13.902
32839SOL     OW  348  10.773  14.115  12.404
32839SOL    HW1  349  10.830  14.116  12.326
32839SOL    HW2  350  10.691  14.077  12.374
32840SOL     OW  351  11.837   9.714   5.090
32840SOL    HW1  352  11.794   9.797   5.109
32840SOL    HW2  353  11.765   9.652   5.078
32841SOL     OW  354  14.824  13.385  10.090
32841SOL    HW1  355  14.826  13.349  10.001
32841SOL    HW2  356  14.735  13.418  10.101
32842SOL     OW  357   9.779  11.945  12.507
32842SOL    HW1  358   9.806  11.930  12.416
32842SOL    HW2  359   9.689  11.976  12.500
32843SOL     OW  360   9.941   9.237   7.103
32843SOL    HW1  361   9.967   9.244   7.195
32843SOL    HW2  362   9.850   9.267   7.102
32844SOL     OW  363   1.404  10.131   9.603
32844SOL    HW1  364   1.497  10.129   9.582
32844SOL    HW2  365   1.361  10.104   9.521
32845SOL     OW  366   7.377   0.026   8.381
32845SOL    HW1  367   7.370  14.840   8.456
32845SOL    HW2  368   7.369  14.839   8.305
32846SOL     OW  369  11.573   2.156   4.854
32846SOL    HW1  370  11.624   2.237   4.855
32846SOL    HW2  371  11.633   2.091   4.817
32847SOL     OW  372  12.794   6.003   7.059
32847SOL    HW1  373  12.877   6.050   7.064
32847SOL    HW2  374  12.799   5.939   7.130
32848SOL     OW  375   9.227   2.341   8.804
32848SOL    HW1  376   9.138   2.368   8.780
32848SOL    HW2  377   9.219   2.302   8.891
32849SOL     OW  378   1.469  12.490   8.533
32849SOL    HW1  379   1.412  12.557   8.573
32849SOL    HW2  380   1.535  12.540   8.485
32850SOL     OW  381   1.838  13.187   3.813
32850SOL    HW1  382   1.882  13.149   3.737
32850SOL    HW2  383   1.903  13.247   3.851
32851SOL     OW  384  14.481  12.250   2.062
32851SOL    HW1  385  14.497  12.156   2.057
32851SOL    HW2  386  14.386  12.257   2.071
32852SOL     OW  387   0.701   4.718   6.155
32852SOL    HW1  388   0.623   4.738   6.206
32852SOL    HW2  389   0.687   4.762   6.071
32853SOL     OW  390   5.878  13.735   8.237
32853SOL    HW1  391   5.875  13.643   8.261
32853SOL    HW2  392   5.885  13.735   8.142
32854SOL     OW  393   2.652   0.832   9.073
32854SOL    HW1  394   2.599   0.824   8.994
32854SOL    HW2  395   2.680   0.743   9.093
32855SOL     OW  396   7.206  11.926   7.792
32855SOL    HW1  397   7.217  12.021   7.783
32855SOL    HW2  398   7.141  11.903   7.725
32856SOL     OW  399  13.741   0.256   1.707
32856SOL    HW1  400  13.747   0.283   1.615
32856SOL    HW2  401  13.746   0.337   1.756
32857SOL     OW  402  10.140  14.751  11.105
32857SOL    HW1  403  10.139  14.843  11.133
32857SOL    HW2  404  10.220  14.743  11.053
32858SOL     OW  405   3.103   5.686   5.181
32858SOL    HW1  406   3.188   5.713   5.215
32858SOL    HW2  407   3.044   5.687   5.257
32859SOL     OW  408   4.931  10.301   8.684
32859SOL    HW1  409   4.967  10.375   8.732
32859SOL    HW2  410   4.935  10.328   8.592
32860SOL     OW  411   1.844   3.881  12.241
32860SOL    HW1  412   1.845   3.892  12.146
32860SOL    HW2  413   1.848   3.786  12.254
32861SOL     OW  414   9.357   0.316   1.315
32861SOL    HW1  415   9.416   0.296   1.242
32861SOL    HW2  416   9.404   0.287   1.393
32862SOL     OW  417  12.350   4.468  11.985
32862SOL    HW1  418  12.394   4.479  11.901
32862SOL    HW2  419  12.257   4.462  11.963
32863SOL     OW  420   5.918   2.635  14.674
32863SOL    HW1  421   5.829   2.614  14.648
32863SOL    HW2  422   5.949   2.695  14.607
32864SOL     OW  423   7.130   0.012   1.667
32864SOL    HW1  424   7.071   0.076   1.706
32864SOL    HW2  425   7.128   0.031   1.573
32865SOL     OW  426   2.085   2.526   8.209
32865SOL    HW1  427   2.113   2.617   8.201
32865SOL    HW2  428   2.012   2.518   8.147
32866SOL     OW  429   8.713  10.965   4.292
32866SOL    HW1  430   8.760  10.948   4.374
32866SOL    HW2  431   8.779  10.953   4.224
32867SOL     OW  432  10.570   3.118   9.376
32867SOL    HW1  433  10.514   3.041   9.366
32867SOL    HW2  434  10.511   3.192   9.361
32868SOL     OW  435   4.778   5.556   4.491
32868SOL    HW1  436   4.757   5.477   4.441
32868SOL    HW2  437   4.802   5.524   4.578
32869SOL     OW  438  10.794   7.388  14.211
32869SOL    HW1  439  10.831   7.347  14.289
32869SOL    HW2  440  10.849   7.465  14.195
32870SOL     OW  441   4.274   8.165  13.926
32870SOL    HW1  442   4.192   8.121  13.951
32870SOL    HW2  443   4.339   8.128  13.985
32871SOL     OW  444  10.794   9.877   5.805
32871SOL    HW1  445  10.749   9.881   5.890
32871SOL    HW2  446  10.872   9.930   5.817
32872SOL     OW  447  10.935   4.549   0.505
32872SOL    HW1  448  10.847   4.551   0.541
32872SOL    HW2  449  10.979   4.624   0.545
32873SOL     OW  450   2.799  13.691   7.582
32873SOL    HW1  451   2.807  13.773   7.630
32873SOL    HW2  452   2.849  13.706   7.502
32874SOL     OW  453  13.989  12.009   9.333
32874SOL    HW1  454  14.049  11.937   9.311
32874SOL    HW2  455  13.998  12.019   9.428
32875SOL     OW  456   5.084  11.727  10.951
32875SOL    HW1  457   5.086  11.729  10.856
32875SOL    HW2  458   5.108  11.816  10.977
32876SOL     OW  459  13.497   5.841  12.072
32876SOL    HW1  460  13.543   5.792  12.003
32876SOL    HW2  461  13.416   5.871  12.030
32877SOL     OW  462   0.859  14.787   4.464
32877SOL    HW1  463   0.853  14.736   4.545
32877SOL    HW2  464   0.876  14.722   4.396
32878SOL     OW  465   6.090   3.251  12.124
32878SOL    HW1  466   6.023   3.184  12.138
32878SOL    HW2  467   6.169   3.201  12.100
32879SOL     OW  468   5.239   9.883  13.619
32879SOL    HW1  469   5.216   9.836  13.699
32879SOL    HW2  470   5.319   9.930  13.641
32880SOL     OW  471   3.943  14.713   4.890
32880SOL    HW1  472   3.937  14.619   4.906
32880SOL    HW2  473   4.009  14.744   4.952
32881SOL     OW  474   7.399   1.735   1.460
32881SOL    HW1  475   7.421   1.762   1.549
32881SOL    HW2  476   7.310   1.701   1.467
32882SOL     OW  477   1.273   2.042   1.204
32882SOL    HW1  478   1.272   1.976   1.272
32882SOL    HW2  479   1.354   2.028   1.156
32883SOL     OW  480   7.833  13.528   0.230
32883SOL    HW1  481   7.794  13.457   0.179
32883SOL    HW2  482   7.806  13.608   0.185
32884SOL     OW  483   7.907  13.064   1.354
32884SOL    HW1  484   7.984  13.094   1.305
32884SOL    HW2  485   7.929  12.976   1.382
32885SOL     OW  486   3.459   4.098   6.882
32885SOL    HW1  487   3.439   4.191   6.868
32885SOL    HW2  488   3.406   4.074   6.958
32886SOL     OW  489   7.161   9.390   0.408
32886SOL    HW1  490   7.224   9.454   0.375
32886SOL    HW2  491   7.212   9.332   0.464
32887SOL     OW  492   5.892   4.804   3.353
32887SOL    HW1  493   5.825   4.861   3.314
32887SOL    HW2  494   5.938   4.766   3.279
32888SOL     OW  495  10.183  14.197   4.450
32888SOL    HW1  496  10.140  14.280   4.433
32888SOL    HW2  497  10.259  14.219   4.504
32889SOL     OW  498   2.139   7.609   4.146
32889SOL    HW1  499   2.044   7.620   4.144
32889SOL    HW2  500   2.169   7.671   4.213
32890SOL     OW  501   1.598   1.970   9.089
32890SOL    HW1  502   1.583   1.944   9.180
32890SOL    HW2  503   1.522   2.025   9.067
32891SOL     OW  504   9.815   1.960   3.303
32891SOL    HW1  505   9.764   1.989   3.378
32891SOL    HW2  506   9.773   2.000   3.227
32892SOL     OW  507   0.037   7.800   9.291
32892SOL    HW1  508   0.068   7.740   9.224
32892SOL    HW2  509   0.097   7.788   9.364
32893SOL     OW  510   4.972   1.277  10.070
32893SOL    HW1  511   4.920   1.230  10.135
32893SOL    HW2  512   4.908   1.318  10.013
32894SOL     OW  513  12.890  12.794  13.657
32894SOL    HW1  514  12.800  12.818  13.633
32894SOL    HW2  515  12.943  12.868  13.626
32895SOL     OW  516   5.126  10.537   0.838
32895SOL    HW1  517   5.119  10.578   0.924
32895SOL    HW2  518   5.067  10.462   0.842
32896SOL     OW  519   4.176   3.336   8.869
32896SOL    HW1  520   4.210   3.330   8.958
32896SOL    HW2  521   4.182   3.429   8.847
32897SOL     OW  522  12.349  13.482   8.961
32897SOL    HW1  523  12.385  13.442   9.040
32897SOL    HW2  524  12.332  13.408   8.903
32898SOL     OW  525  13.590   7.111   5.181
32898SOL    HW1  526  13.678   7.125   5.146
32898SOL    HW2  527  13.604   7.083   5.271
32899SOL     OW  528  11.261   7.601  11.342
32899SOL    HW1  529  11.198   7.534  11.371
32899SOL    HW2  530  11.208   7.669  11.301
32900SOL     OW  531   9.765   9.979  10.437
32900SOL    HW1  532   9.838   9.988  10.376
32900SOL    HW2  533   9.695   9.938  10.385
32901SOL     OW  534   5.237   2.201   1.927
32901SOL    HW1  535   5.207   2.280   1.972
32901SOL    HW2  536   5.320   2.179   1.970
32902SOL     OW  537   7.581  11.092   6.865
32902SOL    HW1  538   7.568  11.139   6.948
32902SOL    HW2  539   7.493  11.078   6.832
32903SOL     OW  540   8.984   1.440  13.342
32903SOL    HW1  541   8.928   1.509  13.378
32903SOL    HW2  542   9.025   1.479  13.266
32904SOL     OW  543   2.906   3.463   0.596
32904SOL    HW1  544   2.945   3.375   0.594
32904SOL    HW2  545   2.972   3.519   0.554
32905SOL     OW  546  11.996   3.452   1.101
32905SOL    HW1  547  11.940   3.487   1.171
32905SOL    HW2  548  12.003   3.524   1.038
32906SOL     OW  549   7.252   2.320  11.276
32906SOL    HW1  550   7.211   2.378  11.211
32906SOL    HW2  551   7.316   2.376  11.320
32907SOL     OW  552  11.739  14.484   7.887
32907SOL    HW1  553  11.750  14.459   7.796
32907SOL    HW2  554  11.682  14.418   7.925
32908SOL     OW  555   2.726   6.632   5.632
32908SOL    HW1  556   2.669   6.708   5.645
32908SOL    HW2  557   2.774   6.624   5.714
32909SOL     OW  558   3.644  10.697   1.663
32909SOL    HW1  559   3.614  10.767   1.605
32909SOL    HW2  560   3.733  10.724   1.688
32910SOL     OW  561   9.947  11.147   3.582
32910SOL    HW1  562   9.989  11.112   3.660
32910SOL    HW2  563   9.882  11.081   3.558
32911SOL     OW  564   8.001   7.071   2.534
32911SOL    HW1  565   7.961   7.039   2.615
32911SOL    HW2  566   8.079   7.119   2.563
32912SOL     OW  567  10.079  10.775   0.447
32912SOL    HW1  568  10.078  10.749   0.539
32912SOL    HW2  569   9.987  10.776   0.421
32913SOL     OW  570  14.374   4.388  13.685
32913SOL    HW1  571  14.347   4.433  13.605
32913SOL    HW2  572  14.292   4.359  13.725
32914SOL     OW  573   3.889   9.981   2.459
32914SOL    HW1  574   3.895  10.076   2.447
32914SOL    HW2  575   3.976   9.954   2.486
32915SOL     OW  576   4.481   9.841   3.747
32915SOL    HW1  577   4.489   9.883   3.833
32915SOL    HW2  578   4.568   9.805   3.730
32916SOL     OW  579   2.195  10.167   8.001
32916SOL    HW1  580   2.170  10.171   7.908
32916SOL    HW2  581   2.228  10.255   8.020
32917SOL     OW  582  11.180  13.065   9.397
32917SOL    HW1  583  11.175  12.985   9.449
32917SOL    HW2  584  11.229  13.126   9.453
32918SOL     OW  585  11.484  14.779  11.682
32918SOL    HW1  586  11.413  14.716  11.670
32918SOL    HW2  587  11.512  14.768  11.773
32919SOL     OW  588  11.727   9.939   7.058
32919SOL    HW1  589  11.738  10.023   7.102
32919SOL    HW2  590  11.796   9.884   7.092
32920SOL     OW  591   0.103   2.653   4.346
32920SOL    HW1  592   0.148   2.715   4.403
32920SOL    HW2  593   0.085   2.578   4.402
32921SOL     OW  594   6.444   8.307  11.805
32921SOL    HW1  595   6.463   8.214  11.816
32921SOL    HW2  596   6.522   8.342  11.762
32922SOL     OW  597   6.358   4.534  13.218
32922SOL    HW1  598   6.437   4.481  13.221
32922SOL    HW2  599   6.337   4.540  13.125
32923SOL     OW  600   4.503   4.532   4.486
32923SOL    HW1  601   4.427   4.567   4.533
32923SOL    HW2  602   4.478   4.442   4.464
32924SOL     OW  603   1.460   9.263   0.986
32924SOL    HW1  604   1.429   9.215   1.062
32924SOL    HW2  605   1.517   9.331   1.022
32925SOL     OW  606  11.453   8.958  11.695
32925SOL    HW1  607  11.475   8.907  11.618
32925SOL    HW2  608  11.419   9.041  11.661
32926SOL     OW  609   9.126  14.452   1.284
32926SOL    HW1  610   9.161  14.453   1.373
32926SOL    HW2  611   9.039  14.414   1.293
32927SOL     OW  612   8.153   6.233   1.006
32927SOL    HW1  613   8.094   6.157   1.006
32927SOL    HW2  614   8.101   6.304   0.970
32928SOL     OW  615   5.363  11.673  10.622
32928SOL    HW1  616   5.388  11.736  10.554
32928SOL    HW2  617   5.401  11.590  10.594
32929SOL     OW  618   7.745  13.763   4.636
32929SOL    HW1  619   7.807  13.834   4.646
32929SOL    HW2  620   7.673  13.785   4.696
32930SOL     OW  621   0.815   7.188  13.903
32930SOL    HW1  622   0.806   7.277  13.937
32930SOL    HW2  623   0.908   7.168  13.911
32931SOL     OW  624   8.858   6.329  13.353
32931SOL    HW1  625   8.804   6.326  13.432
32931SOL    HW2  626   8.921   6.258  13.365
32932SOL     OW  627   9.596  11.033   8.395
32932SOL    HW1  628   9.599  10.950   8.347
32932SOL    HW2  629   9.530  11.084   8.348
32933SOL     OW  630   1.290   0.806   9.390
32933SOL    HW1  631   1.223   0.864   9.355
32933SOL    HW2  632   1.371   0.858   9.386
32934SOL     OW  633   5.855  14.656   0.567
32934SOL    HW1  634   5.850  14.725   0.633
32934SOL    HW2  635   5.832  14.576   0.614
32935SOL     OW  636   2.934  13.609  14.639
32935SOL    HW1  637   2.849  13.576  14.611
32935SOL    HW2  638   2.958  13.673  14.572
32936SOL     OW  639   4.866  13.357  11.034
32936SOL    HW1  640   4.846  13.408  11.112
32936SOL    HW2  641   4.882  13.422  10.966
32937SOL     OW  642   3.595   2.206   8.234
32937SOL    HW1  643   3.508   2.222   8.270
32937SOL    HW2  644   3.647   2.178   8.309
32938SOL     OW  645  14.003   0.335  11.409
32938SOL    HW1  646  13.993   0.429  11.394
32938SOL    HW2  647  13.914   0.303  11.423
32939SOL     OW  648   9.559   5.072   9.041
32939SOL    HW1  649   9.581   4.991   9.087
32939SOL    HW2  650   9.467   5.063   9.019
32940SOL     OW  651   1.262  11.635   5.778
32940SOL    HW1  652   1.303  11.582   5.846
32940SOL    HW2  653   1.184  11.671   5.819
32941SOL     OW  654   3.148  12.547   6.712
32941SOL    HW1  655   3.080  12.479   6.703
32941SOL    HW2  656   3.191  12.548   6.627
32942SOL     OW  657   9.692   1.747  12.255
32942SOL    HW1  658   9.733   1.693  12.322
32942SOL    HW2  659   9.655   1.684  12.193
32943SOL     OW  660  13.693   8.376   8.329
32943SOL    HW1  661  13.650   8.395   8.245
32943SOL    HW2  662  13.786   8.376   8.308
32944SOL     OW  663  11.399   7.307  14.441
32944SOL    HW1  664  11.356   7.233  14.484
32944SOL    HW2  665  11.353   7.384  14.475
32945SOL     OW  666   4.261  14.257  11.233
32945SOL    HW1  667   4.340  14.264  11.287
32945SOL    HW2  668   4.293  14.246  11.144
32946SOL     OW  669   2.749   4.710  11.748
32946SOL    HW1  670   2.802   4.632  11.732
32946SOL    HW2  671   2.706   4.727  11.665
32947SOL     OW  672   0.466  14.037  13.914
32947SOL    HW1  673   0.503  13.985  13.985
32947SOL    HW2  674   0.371  14.028  13.923
32948SOL     OW  675   2.896   9.079   5.290
32948SOL    HW1  676   2.936   9.162   5.264
32948SOL    HW2  677   2.910   9.074   5.385
32949SOL     OW  678  10.824  13.506   6.117
32949SOL    HW1  679  10.864  13.461   6.191
32949SOL    HW2  680  10.794  13.436   6.060
32950SOL     OW  681   7.017   9.679   4.647
32950SOL    HW1  682   7.098   9.681   4.697
32950SOL    HW2  683   7.018   9.761   4.597
32951SOL     OW  684   1.211   0.166  12.258
32951SOL    HW1  685   1.298   0.126  12.260
32951SOL    HW2  686   1.151   0.094  12.277
32952SOL     OW  687  14.014  13.817  13.098
32952SOL    HW1  688  14.077  13.833  13.028
32952SOL    HW2  689  14.027  13.889  13.159
32953SOL     OW  690   9.177   1.597  10.583
32953SOL    HW1  691   9.099   1.542  10.591
32953SOL    HW2  692   9.215   1.598  10.671
32954SOL     OW  693   3.834   6.511   8.161
32954SOL    HW1  694   3.790   6.583   8.117
32954SOL    HW2  695   3.764   6.450   8.186
32955SOL     OW  696   0.256  14.122   0.536
32955SOL    HW1  697   0.311  14.058   0.582
32955SOL    HW2  698   0.303  14.141   0.455
32956SOL     OW  699   4.082   2.398   0.949
32956SOL    HW1  700   4.107   2.411   0.857
32956SOL    HW2  701   4.034   2.316   0.949
32957SOL     OW  702  10.539  14.171   1.005
32957SOL    HW1  703  10.492  14.144   0.926
32957SOL    HW2  704  10.471  14.200   1.065
32958SOL     OW  705  11.458  10.573   0.230
32958SOL    HW1  706  11.427  10.656   0.194
32958SOL    HW2  707  11.408  10.560   0.310
32959SOL     OW  708   5.627   6.094   5.578
32959SOL    HW1  709   5.655   6.157   5.644
32959SOL    HW2  710   5.688   6.020   5.588
32960SOL     OW  711   0.843   4.264   7.882
32960SOL    HW1  712   0.808   4.208   7.813
32960SOL    HW2  713   0.830   4.353   7.850
32961SOL     OW  714   7.333  13.403   5.861
32961SOL    HW1  715   7.239  13.389   5.871
32961SOL    HW2  716   7.347  13.407   5.767
32962SOL     OW  717   1.928  10.240   2.385
32962SOL    HW1  718   1.921  10.313   2.447
32962SOL    HW2  719   1.994  10.269   2.322
32963SOL     OW  720   5.188   7.001  14.394
32963SOL    HW1  721   5.094   7.020  14.396
32963SOL    HW2  722   5.220   7.048  14.317
32964SOL     OW  723  14.001   4.618   6.713
32964SOL    HW1  724  13.985   4.573   6.795
32964SOL    HW2  725  13.960   4.704   6.724
32965SOL     OW  726   6.399  14.820  14.083
32965SOL    HW1  727   6.452  14.797  14.006
32965SOL    HW2  728   6.399   0.044  14.084
32966SOL     OW  729   7.724   4.675   7.570
32966SOL    HW1  730   7.744   4.768   7.580
32966SOL    HW2  731   7.807   4.635   7.543
32967SOL     OW  732   6.248  10.414   3.055
32967SOL    HW1  733   6.265  10.482   3.120
32967SOL    HW2  734   6.243  10.461   2.972
32968SOL     OW  735  13.428   7.287  12.069
32968SOL    HW1  736  13.477   7.292  12.151
32968SOL    HW2  737  13.436   7.195  12.043
32969SOL     OW  738   1.602   0.173  11.703
32969SOL    HW1  739   1.605   0.225  11.623
32969SOL    HW2  740   1.510   0.176  11.730
32970SOL     OW  741   5.799  14.635   6.484
32970SOL    HW1  742   5.886  14.602   6.460
32970SOL    HW2  743   5.767  14.680   6.406
32971SOL     OW  744   8.348   7.662   3.990
32971SOL    HW1  745   8.427   7.705   4.024
32971SOL    HW2  746   8.276   7.705   4.036
32972SOL     OW  747  12.631   5.593   8.304
32972SOL    HW1  748  12.599   5.682   8.292
32972SOL    HW2  749  12.555   5.543   8.333
32973SOL     OW  750   9.256  10.276  12.623
32973SOL    HW1  751   9.233  10.291  12.715
32973SOL    HW2  752   9.349  10.255  12.625
32974SOL     OW  753  10.478  10.406  10.295
32974SOL    HW1  754  10.511  10.468  10.359
32974SOL    HW2  755  10.475  10.322  10.341
32975SOL     OW  756   8.653   6.291   7.080
32975SOL    HW1  757   8.686   6.239   7.007
32975SOL    HW2  758   8.593   6.354   7.040
32976SOL     OW  759   5.136   0.692  13.702
32976SOL    HW1  760   5.189   0.649  13.634
32976SOL    HW2  761   5.046   0.667  13.683
32977SOL     OW  762   9.937   9.603   0.851
32977SOL    HW1  763  10.021   9.642   0.877
32977SOL    HW2  764   9.871   9.657   0.895
32978SOL     OW  765   8.039  14.201  10.317
32978SOL    HW1  766   8.026  14.165  10.229
32978SOL    HW2  767   8.134  14.211  10.324
32979SOL     OW  768  11.060  12.760  10.485
32979SOL    HW1  769  11.038  12.801  10.401
32979SOL    HW2  770  11.048  12.666  10.469
32980SOL     OW  771  12.510   3.463   2.418
32980SOL    HW1  772  12.564   3.479   2.340
32980SOL    HW2  773  12.444   3.400   2.388
32981SOL     OW  774   4.160   6.482   1.846
32981SOL    HW1  775   4.248   6.479   1.885
32981SOL    HW2  776   4.116   6.553   1.893
32982SOL     OW  777   0.709   1.131   0.235
32982SOL    HW1  778   0.756   1.049   0.224
32982SOL    HW2  779   0.645   1.114   0.304
32983SOL     OW  780   7.452  13.093   3.245
32983SOL    HW1  781   7.505  13.037   3.189
32983SOL    HW2  782   7.383  13.037   3.279
32984SOL     OW  783  13.095   6.584  13.399
32984SOL    HW1  784  13.096   6.575  13.304
32984SOL    HW2  785  13.059   6.671  13.414
32985SOL     OW  786   2.393   2.234   3.653
32985SOL    HW1  787   2.419   2.161   3.708
32985SOL    HW2  788   2.476   2.272   3.623
32986SOL     OW  789   2.710   0.021   3.830
32986SOL    HW1  790   2.668   0.106   3.844
32986SOL    HW2  791   2.804   0.039   3.838
32987SOL     OW  792   4.398   7.913   4.007
32987SOL    HW1  793   4.317   7.908   3.957
32987SOL    HW2  794   4.456   7.849   3.965
32988SOL     OW  795   2.740  14.672  10.722
32988SOL    HW1  796   2.711  14.752  10.766
32988SOL    HW2  797   2.698  14.676  10.636
32989SOL     OW  798  10.421  10.276   6.821
32989SOL    HW1  799  10.351  10.230   6.868
32989SOL    HW2  800  10.377  10.344   6.772
32990SOL     OW  801  11.569  12.912   8.183
32990SOL    HW1  802  11.533  12.998   8.203
32990SOL    HW2  803  11.590  12.874   8.268
32991SOL     OW  804   4.937   8.717   8.955
32991SOL    HW1  805   4.981   8.756   9.030
32991SOL    HW2  806   5.001   8.722   8.884
32992SOL     OW  807   7.413   4.260   1.356
32992SOL    HW1  808   7.497   4.249   1.400
32992SOL    HW2  809   7.348   4.256   1.427
32993SOL     OW  810   6.586   4.607   1.610
32993SOL    HW1  811   6.604   4.623   1.518
32993SOL    HW2  812   6.497   4.641   1.624
32994SOL     OW  813   5.106  11.954   4.305
32994SOL    HW1  814   5.176  11.890   4.307
32994SOL    HW2  815   5.054  11.937   4.383
32995SOL     OW  816   4.748   7.401   0.669
32995SOL    HW1  817   4.790   7.333   0.616
32995SOL    HW2  818   4.776   7.483   0.630
32996SOL     OW  819   7.699  13.618  11.646
32996SOL    HW1  820   7.707  13.548  11.581
32996SOL    HW2  821   7.781  13.613  11.696
32997SOL     OW  822   5.889   2.535   9.000
32997SOL    HW1  823   5.943   2.567   9.073
32997SOL    HW2  824   5.825   2.604   8.986
32998SOL     OW  825   1.779  11.722   1.398
32998SOL    HW1  826   1.690  11.702   1.426
32998SOL    HW2  827   1.781  11.818   1.394
32999SOL     OW  828   1.343   6.888  11.847
32999SOL    HW1  829   1.280   6.940  11.898
32999SOL    HW2  830   1.425   6.896  11.895
33000SOL     OW  831   9.342   1.565   3.859
33000SOL    HW1  832   9.302   1.506   3.922
33000SOL    HW2  833   9.432   1.577   3.890
33001SOL     OW  834  12.435  11.317   3.473
33001SOL    HW1  835  12.374  11.359   3.533
33001SOL    HW2  836  12.380  11.260   3.418
33002SOL     OW  837   0.321   4.851  11.389
33002SOL    HW1  838   0.327   4.945  11.405
33002SOL    HW2  839   0.292   4.815  11.473
33003SOL     OW  840   3.601  11.886  13.562
33003SOL    HW1  841   3.547  11.817  13.522
33003SOL    HW2  842   3.662  11.911  13.493
33004SOL     OW  843  10.019   4.594   6.555
33004SOL    HW1  844   9.928   4.599   6.524
33004SOL    HW2  845  10.057   4.522   6.504
33005SOL     OW  846   7.747   4.810   3.959
33005SOL    HW1  847   7.791   4.888   3.993
33005SOL    HW2  848   7.661   4.810   4.002
33006SOL     OW  849  13.967   6.575   7.492
33006SOL    HW1  850  14.058   6.584   7.521
33006SOL    HW2  851  13.970   6.502   7.430
33007SOL     OW  852  13.170   6.032   7.753
33007SOL    HW1  853  13.202   5.967   7.691
33007SOL    HW2  854  13.075   6.022   7.754
33008SOL     OW  855   0.758  14.406  14.656
33008SOL    HW1  856   0.716  14.449  14.730
33008SOL    HW2  857   0.711  14.438  14.579
33009SOL     OW  858  11.035  10.311  12.658
33009SOL    HW1  859  10.968  10.359  12.610
33009SOL    HW2  860  11.059  10.238  12.601
33010SOL     OW  861  12.962   1.352  10.150
33010SOL    HW1  862  13.025   1.303  10.098
33010SOL    HW2  863  13.008   1.372  10.231
33011SOL     OW  864   5.291   1.268   0.407
33011SOL    HW1  865   5.217   1.282   0.466
33011SOL    HW2  866   5.366   1.303   0.455
33012SOL     OW  867  11.310  11.962   6.041
33012SOL    HW1  868  11.319  12.014   5.961
33012SOL    HW2  869  11.385  11.987   6.095
33013SOL     OW  870  13.924   5.750   5.409
33013SOL    HW1  871  13.969   5.677   5.365
33013SOL    HW2  872  13.980   5.825   5.395
33014SOL     OW  873  10.100  11.773   0.974
33014SOL    HW1  874  10.138  11.860   0.989
33014SOL    HW2  875  10.103  11.730   1.059
33015SOL     OW  876   5.977  12.217   8.819
33015SOL    HW1  877   6.070  12.196   8.826
33015SOL    HW2  878   5.966  12.297   8.871
33016SOL     OW  879   9.620   6.811   4.546
33016SOL    HW1  880   9.584   6.813   4.457
33016SOL    HW2  881   9.699   6.864   4.541
33017SOL     OW  882   4.049   1.208   8.516
33017SOL    HW1  883   4.061   1.146   8.444
33017SOL    HW2  884   3.982   1.168   8.571
33018SOL     OW  885  11.407   6.794   4.035
33018SOL    HW1  886  11.486   6.846   4.020
33018SOL    HW2  887  11.414   6.723   3.972
33019SOL     OW  888   8.269   3.708  12.399
33019SOL    HW1  889   8.312   3.793  12.391
33019SOL    HW2  890   8.328   3.647  12.355
33020SOL     OW  891  12.414   8.587   1.080
33020SOL    HW1  892  12.406   8.492   1.085
33020SOL    HW2  893  12.438   8.605   0.990
33021SOL     OW  894   1.105   4.163   4.646
33021SOL    HW1  895   1.095   4.091   4.584
33021SOL    HW2  896   1.041   4.145   4.715
33022SOL     OW  897   1.343  14.339   5.607
33022SOL    HW1  898   1.252  14.358   5.584
33022SOL    HW2  899   1.383  14.309   5.526
33023SOL     OW  900   2.558   2.719   6.246
33023SOL    HW1  901   2.596   2.806   6.255
33023SOL    HW2  902   2.496   2.727   6.173
33024SOL     OW  903   3.298   3.648   3.788
33024SOL    HW1  904   3.330   3.736   3.769
33024SOL    HW2  905   3.332   3.629   3.876
33025SOL     OW  906   9.922  11.490   7.239
33025SOL    HW1  907   9.864  11.469   7.312
33025SOL    HW2  908   9.946  11.581   7.253
33026SOL     OW  909  12.233   8.422   2.387
33026SOL    HW1  910  12.310   8.465   2.351
33026SOL    HW2  911  12.190   8.490   2.440
33027SOL     OW  912   0.705   1.068  13.870
33027SOL    HW1  913   0.738   1.038  13.955
33027SOL    HW2  914   0.781   1.105  13.826
33028SOL     OW  915  13.712   4.758   0.476
33028SOL    HW1  916  13.788   4.751   0.418
33028SOL    HW2  917  13.707   4.672   0.518
33029SOL     OW  918  10.391   9.239   1.490
33029SOL    HW1  919  10.308   9.219   1.532
33029SOL    HW2  920  10.385   9.332   1.467
33030SOL     OW  921  11.027  13.369   2.753
33030SOL    HW1  922  11.072  13.393   2.834
33030SOL    HW2  923  11.040  13.274   2.745
33031SOL     OW  924  14.281   4.416   1.523
33031SOL    HW1  925  14.260   4.411   1.429
33031SOL    HW2  926  14.199   4.443   1.564
33032SOL     OW  927   0.785  13.370  11.104
33032SOL    HW1  928   0.785  13.316  11.182
33032SOL    HW2  929   0.819  13.314  11.034
33033SOL     OW  930   9.917   3.639   4.457
33033SOL    HW1  931   9.916   3.654   4.363
33033SOL    HW2  932   9.951   3.550   4.467
33034SOL     OW  933  14.770  13.274  11.167
33034SOL    HW1  934  14.789  13.314  11.082
33034SOL    HW2  935  14.809  13.335  11.230
33035SOL     OW  936   4.003  14.313   0.255
33035SOL    HW1  937   3.997  14.319   0.160
33035SOL    HW2  938   3.941  14.379   0.287
33036SOL     OW  939   5.302   8.156   7.174
33036SOL    HW1  940   5.361   8.232   7.176
33036SOL    HW2  941   5.267   8.155   7.085
33037SOL     OW  942   1.385   9.099   2.670
33037SOL    HW1  943   1.432   9.182   2.679
33037SOL    HW2  944   1.443   9.045   2.616
33038SOL     OW  945   8.733   1.880   5.110
33038SOL    HW1  946   8.817   1.911   5.142
33038SOL    HW2  947   8.716   1.932   5.032
33039SOL     OW  948  13.230   0.114   2.414
33039SOL    HW1  949  13.306   0.089   2.362
33039SOL    HW2  950  13.264   0.125   2.503
33040SOL     OW  951   0.840   0.394   3.124
33040SOL    HW1  952   0.901   0.334   3.166
33040SOL    HW2  953   0.831   0.361   3.035
33041SOL     OW  954  10.126   2.662   7.786
33041SOL    HW1  955  10.079   2.670   7.869
33041SOL    HW2  956  10.207   2.617   7.810
33042SOL     OW  957   9.425   7.679   0.951
33042SOL    HW1  958   9.368   7.688   0.875
33042SOL    HW2  959   9.381   7.615   1.007
33043SOL     OW  960  13.405  12.574   7.304
33043SOL    HW1  961  13.422  12.669   7.310
33043SOL    HW2  962  13.481  12.540   7.257
33044SOL     OW  963   6.278  10.396  10.235
33044SOL    HW1  964   6.197  10.345  10.227
33044SOL    HW2  965   6.249  10.480  10.271
33045SOL     OW  966   7.048   7.882  12.874
33045SOL    HW1  967   7.002   7.948  12.926
33045SOL    HW2  968   7.039   7.911  12.784
33046SOL     OW  969   7.497   8.104   9.765
33046SOL    HW1  970   7.572   8.159   9.744
33046SOL    HW2  971   7.499   8.035   9.699
33047SOL     OW  972   3.200   5.605   4.245
33047SOL    HW1  973   3.192   5.642   4.157
33047SOL    HW2  974   3.245   5.522   4.232
33048SOL     OW  975   1.206   0.893  14.739
33048SOL    HW1  976   1.269   0.837  14.693
33048SOL    HW2  977   1.149   0.832  14.785
33049SOL     OW  978   2.467   4.915   9.669
33049SOL    HW1  979   2.553   4.878   9.648
33049SOL    HW2  980   2.468   4.929   9.763
33050SOL     OW  981   8.526   9.509   2.018
33050SOL    HW1  982   8.518   9.586   1.961
33050SOL    HW2  983   8.472   9.442   1.977
33051SOL     OW  984   0.196   3.282  10.040
33051SOL    HW1  985   0.244   3.204  10.067
33051SOL    HW2  986   0.204   3.283   9.945
33052SOL     OW  987   9.647  11.911  14.556
33052SOL    HW1  988   9.594  11.917  14.635
33052SOL    HW2  989   9.689  11.825  14.561
33053SOL     OW  990  14.859   2.477   4.532
33053SOL    HW1  991  14.766   2.459   4.521
33053SOL    HW2  992  14.863   2.548   4.595
33054SOL     OW  993   3.711  11.777   5.419
33054SOL    HW1  994   3.639  11.832   5.388
33054SOL    HW2  995   3.747  11.738   5.339
33055SOL     OW  996   0.957  11.269   5.326
33055SOL    HW1  997   0.987  11.343   5.275
33055SOL    HW2  998   0.867  11.291   5.349
33056SOL     OW  999   7.629   3.912   0.824
33056SOL    HW1 1000   7.716   3.900   0.862
33056SOL    HW2 1001   7.645   3.921   0.730
33057SOL     OW 1002  12.349   5.587  14.548
33057SOL    HW1 1003  12.436   5.619  14.573
33057SOL    HW2 1004  12.367   5.512  14.491
33058SOL     OW 1005   8.709  11.380   7.321
33058SOL    HW1 1006   8.767  11.306   7.338
33058SOL    HW2 1007   8.709  11.388   7.225
33059SOL     OW 1008   6.271   7.613   7.087
33059SOL    HW1 1009   6.253   7.549   7.019
33059SOL    HW2 1010   6.209   7.592   7.157
33060SOL     OW 1011  10.599   8.086   7.133
33060SOL    HW1 1012  10.645   8.066   7.215
33060SOL    HW2 1013  10.558   8.004   7.108
33061SOL     OW 1014   1.588   5.624   7.358
33061SOL    HW1 1015   1.576   5.655   7.268
33061SOL    HW2 1016   1.636   5.695   7.401
33062SOL     OW 1017   5.252   7.458  12.857
33062SOL    HW1 1018   5.299   7.379  12.881
33062SOL    HW2 1019   5.239   7.451  12.762
33063SOL     OW 1020   6.248  12.667   0.661
33063SOL    HW1 1021   6.156  12.688   0.676
33063SOL    HW2 1022   6.263  12.586   0.711
33064SOL     OW 1023  11.594   9.219  13.990
33064SOL    HW1 1024  11.518   9.163  13.976
33064SOL    HW2 1025  11.669   9.159  13.989
33065SOL     OW 1026   2.389  11.947   8.869
33065SOL    HW1 1027   2.315  11.909   8.821
33065SOL    HW2 1028   2.461  11.945   8.806
33066SOL     OW 1029   2.627   9.570   5.042
33066SOL    HW1 1030   2.664   9.560   5.130
33066SOL    HW2 1031   2.700   9.551   4.983
33067SOL     OW 1032   4.384   4.492  14.426
33067SOL    HW1 1033   4.302   4.533  14.454
33067SOL    HW2 1034   4.422   4.554  14.364
33068SOL     OW 1035   0.000   2.436   6.033
33068SOL    HW1 1036   0.081   2.401   5.996
33068SOL    HW2 1037   0.029   2.488   6.108
33069SOL     OW 1038   9.492   0.366   0.155
33069SOL    HW1 1039   9.573   0.325   0.184
33069SOL    HW2 1040   9.517   0.455   0.131
33070SOL     OW 1041   4.226  12.066   9.579
33070SOL    HW1 1042   4.140  12.072   9.620
33070SOL    HW2 1043   4.264  11.986   9.614
33071SOL     OW 1044   9.006   4.892   5.262
33071SOL    HW1 1045   9.017   4.982   5.292
33071SOL    HW2 1046   9.055   4.839   5.325
33072SOL     OW 1047   5.262   6.469  13.921
33072SOL    HW1 1048   5.229   6.519  13.996
33072SOL    HW2 1049   5.349   6.439  13.948
33073SOL     OW 1050   8.258  14.342   1.369
33073SOL    HW1 1051   8.245  14.382   1.284
33073SOL    HW2 1052   8.174  14.303   1.391
33074SOL     OW 1053  10.623   0.988   1.676
33074SOL    HW1 1054  10.563   1.059   1.653
33074SOL    HW2 1055  10.706   1.033   1.697
33075SOL     OW 1056   3.279  12.267  13.997
33075SOL    HW1 1057   3.293  12.173  14.007
33075SOL    HW2 1058   3.355  12.307  14.041
33076SOL     OW 1059   7.268  13.515  11.589
33076SOL    HW1 1060   7.333  13.574  11.627
33076SOL    HW2 1061   7.291  13.511  11.496
33077SOL     OW 1062   2.179   6.216   1.342
33077SOL    HW1 1063   2.127   6.148   1.298
33077SOL    HW2 1064   2.259   6.222   1.291
33078SOL     OW 1065   1.926   8.184  13.478
33078SOL    HW1 1066   1.959   8.132  13.405
33078SOL    HW2 1067   1.831   8.171  13.475
33079SOL     OW 1068   4.582   9.720  12.502
33079SOL    HW1 1069   4.557   9.763  12.583
33079SOL    HW2 1070   4.677   9.734  12.494
33080SOL     OW 1071   4.530   6.465  12.624
33080SOL    HW1 1072   4.598   6.404  12.597
33080SOL    HW2 1073   4.550   6.545  12.576
33081SOL     OW 1074   1.143   6.344  13.346
33081SOL    HW1 1075   1.147   6.426  13.297
33081SOL    HW2 1076   1.198   6.359  13.423
33082SOL     OW 1077   2.434  14.063   0.366
33082SOL    HW1 1078   2.361  14.112   0.404
33082SOL    HW2 1079   2.467  14.119   0.296
33083SOL     OW 1080   1.404   0.671   0.145
33083SOL    HW1 1081   1.414   0.667   0.240
33083SOL    HW2 1082   1.472   0.732   0.116
33084SOL     OW 1083   3.324  10.862  13.658
33084SOL    HW1 1084   3.249  10.802  13.659
33084SOL    HW2 1085   3.308  10.920  13.732
33085SOL     OW 1086   0.540   5.404   8.335
33085SOL    HW1 1087   0.521   5.346   8.262
33085SOL    HW2 1088   0.573   5.484   8.294
33086SOL     OW 1089  13.830   4.131   3.699
33086SOL    HW1 1090  13.753   4.074   3.701
33086SOL    HW2 1091  13.891   4.086   3.640
33087SOL     OW 1092   0.075   2.956   2.630
33087SOL    HW1 1093   0.058   2.869   2.667
33087SOL    HW2 1094   0.163   2.978   2.662
33088SOL     OW 1095   8.375  10.302  11.103
33088SOL    HW1 1096   8.404  10.340  11.186
33088SOL    HW2 1097   8.455  10.265  11.065
33089SOL     OW 1098  13.028   2.601  12.786
33089SOL    HW1 1099  12.970   2.619  12.860
33089SOL    HW2 1100  12.992   2.522  12.746
33090SOL     OW 1101  11.984   9.173   9.139
33090SOL    HW1 1102  12.063   9.125   9.164
33090SOL    HW2 1103  12.016   9.246   9.085
33091SOL     OW 1104  11.713   2.893   5.734
33091SOL    HW1 1105  11.794   2.943   5.737
33091SOL    HW2 1106  11.676   2.912   5.648
33092SOL     OW 1107   2.354   9.322  12.221
33092SOL    HW1 1108   2.271   9.309  12.175
33092SOL    HW2 1109   2.342   9.280  12.306
33093SOL     OW 1110   1.528  12.627   1.378
33093SOL    HW1 1111   1.491  12.703   1.333
33093SOL    HW2 1112   1.464  12.605   1.445
33094SOL     OW 1113  11.756   3.554   0.481
33094SOL    HW1 1114  11.794   3.640   0.461
33094SOL    HW2 1115  11.678   3.548   0.426
33095SOL     OW 1116   5.049   9.385  13.777
33095SOL    HW1 1117   5.059   9.381  13.682
33095SOL    HW2 1118   5.127   9.340  13.811
33096SOL     OW 1119   1.002   8.633  10.206
33096SOL    HW1 1120   0.972   8.703  10.263
33096SOL    HW2 1121   1.075   8.671  10.158
33097SOL     OW 1122   2.843   9.678   0.701
33097SOL    HW1 1123   2.760   9.651   0.742
33097SOL    HW2 1124   2.875   9.598   0.659
33098SOL     OW 1125   3.709  12.540  10.666
33098SOL    HW1 1126   3.684  12.602  10.598
33098SOL    HW2 1127   3.714  12.456  10.620
33099SOL     OW 1128   2.619   7.750   9.500
33099SOL    HW1 1129   2.611   7.689   9.427
33099SOL    HW2 1130   2.569   7.827   9.472
33100SOL     OW 1131  12.905   7.910   5.753
33100SOL    HW1 1132  12.884   7.818   5.769
33100SOL    HW2 1133  12.845   7.959   5.809
33101SOL     OW 1134   5.937   6.654   9.351
33101SOL    HW1 1135   5.864   6.699   9.393
33101SOL    HW2 1136   5.992   6.724   9.315
33102SOL     OW 1137   1.935  12.634   1.380
33102SOL    HW1 1138   1.965  12.557   1.428
33102SOL    HW2 1139   1.931  12.704   1.446
33103SOL     OW 1140   3.501   2.158   8.976
33103SOL    HW1 1141   3.488   2.218   8.903
33103SOL    HW2 1142   3.582   2.112   8.956
33104SOL     OW 1143  10.188   1.076   4.726
33104SOL    HW1 1144  10.235   1.045   4.649
33104SOL    HW2 1145  10.106   1.112   4.692
33105SOL     OW 1146  14.805   0.409   9.786
33105SOL    HW1 1147  14.864   0.449   9.721
33105SOL    HW2 1148  14.843   0.322   9.802
33106SOL     OW 1149  12.001  12.945   7.092
33106SOL    HW1 1150  12.008  13.012   7.023
33106SOL    HW2 1151  12.054  12.872   7.060
33107SOL     OW 1152   6.529   3.445   6.311
33107SOL    HW1 1153   6.527   3.411   6.400
33107SOL    HW2 1154   6.540   3.368   6.256
33108SOL     OW 1155   0.872  10.079   9.759
33108SOL    HW1 1156   0.948  10.044   9.713
33108SOL    HW2 1157   0.903  10.162   9.796
33109SOL     OW 1158   2.591  12.155  14.225
33109SOL    HW1 1159   2.610  12.219  14.157
33109SOL    HW2 1160   2.518  12.193  14.274
33110SOL     OW 1161   2.520   3.245   6.748
33110SOL    HW1 1162   2.596   3.258   6.804
33110SOL    HW2 1163   2.445   3.272   6.801
33111SOL     OW 1164   4.659   4.277  10.478
33111SOL    HW1 1165   4.718   4.352  10.469
33111SOL    HW2 1166   4.717   4.202  10.494
33112SOL     OW 1167   4.569   1.605   1.640
33112SOL    HW1 1168   4.586   1.692   1.675
33112SOL    HW2 1169   4.518   1.620   1.561
33113SOL     OW 1170   9.785   1.798   7.326
33113SOL    HW1 1171   9.772   1.883   7.283
33113SOL    HW2 1172   9.753   1.734   7.262
33114SOL     OW 1173  12.073  14.368   7.467
33114SOL    HW1 1174  12.032  14.291   7.428
33114SOL    HW2 1175  12.016  14.441   7.442
33115SOL     OW 1176  10.917  10.830   0.004
33115SOL    HW1 1177  10.885  10.744   0.033
33115SOL    HW2 1178  10.874  10.845  14.792
33116SOL     OW 1179  10.876  14.108   7.432
33116SOL    HW1 1180  10.815  14.066   7.493
33116SOL    HW2 1181  10.828  14.112   7.349
33117SOL     OW 1182   2.250  13.088   6.864
33117SOL    HW1 1183   2.337  13.126   6.873
33117SOL    HW2 1184   2.193  13.162   6.846
33118SOL     OW 1185   0.680  11.423  10.556
33118SOL    HW1 1186   0.739  11.371  10.611
33118SOL    HW2 1187   0.652  11.495  10.613
33119SOL     OW 1188   5.866  11.887  14.842
33119SOL    HW1 1189   5.827  11.800  14.848
33119SOL    HW2 1190   5.793  11.947  14.856
33120SOL     OW 1191   8.009  13.949   2.251
33120SOL    HW1 1192   7.963  13.896   2.185
33120SOL    HW2 1193   7.939  13.993   2.299
33121SOL     OW 1194   4.661   5.615   9.595
33121SOL    HW1 1195   4.626   5.612   9.684
33121SOL    HW2 1196   4.616   5.690   9.554
33122SOL     OW 1197   2.949  13.444   8.432
33122SOL    HW1 1198   2.941  13.379   8.501
33122SOL    HW2 1199   2.910  13.523   8.468
33123SOL     OW 1200   6.692  10.753   2.390
33123SOL    HW1 1201   6.757  10.683   2.384
33123SOL    HW2 1202   6.609  10.711   2.366
33124SOL     OW 1203   6.846   3.521  13.073
33124SOL    HW1 1204   6.801   3.579  13.011
33124SOL    HW2 1205   6.788   3.445  13.080
33125SOL     OW 1206   1.276  14.514  11.270
33125SOL    HW1 1207   1.270  14.482  11.180
33125SOL    HW2 1208   1.339  14.455  11.312
33126SOL     OW 1209   8.955   5.515   5.900
33126SOL    HW1 1210   9.007   5.487   5.975
33126SOL    HW2 1211   8.912   5.436   5.869
33127SOL     OW 1212   7.804   5.099   9.006
33127SOL    HW1 1213   7.757   5.146   9.075
33127SOL    HW2 1214   7.855   5.167   8.961
33128SOL     OW 1215   8.656  11.632   6.675
33128SOL    HW1 1216   8.671  11.629   6.580
33128SOL    HW2 1217   8.736  11.669   6.711
33129SOL     OW 1218   2.451  11.589   5.733
33129SOL    HW1 1219   2.455  11.531   5.809
33129SOL    HW2 1220   2.456  11.529   5.658
33130SOL     OW 1221   4.111   0.930  10.685
33130SOL    HW1 1222   4.036   0.900  10.736
33130SOL    HW2 1223   4.162   0.984  10.746
33131SOL     OW 1224   2.300  14.165  12.829
33131SOL    HW1 1225   2.219  14.114  12.829
33131SOL    HW2 1226   2.358  14.118  12.889
33132SOL     OW 1227   0.528   2.125  13.549
33132SOL    HW1 1228   0.526   2.183  13.625
33132SOL    HW2 1229   0.612   2.143  13.508
33133SOL     OW 1230   1.103   9.605  11.475
33133SOL    HW1 1231   1.028   9.555  11.508
33133SOL    HW2 1232   1.168   9.602  11.545
33134SOL     OW 1233  14.121  14.721   4.760
33134SOL    HW1 1234  14.128  14.774   4.840
33134SOL    HW2 1235  14.095  14.784   4.692
33135SOL     OW 1236   2.459  14.819   4.197
33135SOL    HW1 1237   2.444  14.798   4.105
33135SOL    HW2 1238   2.394  14.768   4.245
33136SOL     OW 1239  14.778  11.152   4.828
33136SOL    HW1 1240  14.773  11.247   4.837
33136SOL    HW2 1241  14.687  11.123   4.832
33137SOL     OW 1242   7.765  14.705   6.096
33137SOL    HW1 1243   7.814  14.688   6.176
33137SOL    HW2 1244   7.797  14.638   6.034
33138SOL     OW 1245   5.072   8.356   6.852
33138SOL    HW1 1246   5.055   8.285   6.914
33138SOL    HW2 1247   5.157   8.334   6.813
33139SOL     OW 1248   0.094   4.946  10.784
33139SOL    HW1 1249   0.108   5.040  10.771
33139SOL    HW2 1250  14.872   4.938  10.799
33140SOL     OW 1251  10.069   6.048   2.955
33140SOL    HW1 1252  10.094   5.997   3.032
33140SOL    HW2 1253  10.151   6.088   2.925
33141SOL     OW 1254  14.024   5.741   6.158
33141SOL    HW1 1255  14.058   5.696   6.081
33141SOL    HW2 1256  14.055   5.688   6.232
33142SOL     OW 1257   1.073  13.553   6.087
33142SOL    HW1 1258   1.089  13.630   6.031
33142SOL    HW2 1259   1.105  13.579   6.173
33143SOL     OW 1260  12.900  12.800   9.440
33143SOL    HW1 1261  12.929  12.755   9.520
33143SOL    HW2 1262  12.981  12.826   9.397
33144SOL     OW 1263  12.826   0.859   8.932
33144SOL    HW1 1264  12.841   0.794   8.863
33144SOL    HW2 1265  12.827   0.943   8.886
33145SOL     OW 1266   4.922   1.547   4.639
33145SOL    HW1 1267   4.844   1.536   4.585
33145SOL    HW2 1268   4.976   1.610   4.592
33146SOL     OW 1269   3.790  11.730   0.587
33146SOL    HW1 1270   3.795  11.771   0.501
33146SOL    HW2 1271   3.783  11.802   0.648
33147SOL     OW 1272   2.840   5.995   0.143
33147SOL    HW1 1273   2.908   5.937   0.108
33147SOL    HW2 1274   2.786   6.018   0.067
33148SOL     OW 1275   9.289   8.799   7.022
33148SOL    HW1 1276   9.227   8.752   6.965
33148SOL    HW2 1277   9.368   8.806   6.970
33149SOL     OW 1278  14.058   7.296   5.848
33149SOL    HW1 1279  14.067   7.306   5.753
33149SOL    HW2 1280  14.052   7.202   5.862
33150SOL     OW 1281   0.666  13.985   6.219
33150SOL    HW1 1282   0.757  13.985   6.248
33150SOL    HW2 1283   0.665  13.924   6.145
33151SOL     OW 1284   0.745  14.698   9.815
33151SOL    HW1 1285   0.691  14.772   9.790
33151SOL    HW2 1286   0.835  14.725   9.794
33152SOL     OW 1287   3.724  10.249   4.309
33152SOL    HW1 1288   3.772  10.244   4.226
33152SOL    HW2 1289   3.646  10.301   4.288
33153SOL     OW 1290   9.567   6.187   3.130
33153SOL    HW1 1291   9.557   6.267   3.181
33153SOL    HW2 1292   9.480   6.171   3.093
33154SOL     OW 1293  12.492   5.640   4.030
33154SOL    HW1 1294  12.579   5.679   4.039
33154SOL    HW2 1295  12.434   5.715   4.016
33155SOL     OW 1296   0.338   8.751  13.927
33155SOL    HW1 1297   0.250   8.759  13.891
33155SOL    HW2 1298   0.377   8.837  13.916
33156SOL     OW 1299  11.015  12.239   6.868
33156SOL    HW1 1300  10.960  12.311   6.899
33156SOL    HW2 1301  10.982  12.220   6.780
33157SOL     OW 1302   0.514   6.825   2.742
33157SOL    HW1 1303   0.554   6.877   2.673
33157SOL    HW2 1304   0.586   6.774   2.778
33158SOL     OW 1305   4.404  13.993   3.332
33158SOL    HW1 1306   4.374  14.073   3.374
33158SOL    HW2 1307   4.449  14.023   3.253
33159SOL     OW 1308   9.841   5.736   3.707
33159SOL    HW1 1309   9.883   5.770   3.627
33159SOL    HW2 1310   9.894   5.660   3.732
33160SOL     OW 1311   9.906   2.452  10.109
33160SOL    HW1 1312   9.977   2.517  10.107
33160SOL    HW2 1313   9.832   2.497  10.069
33161SOL     OW 1314   5.370   1.359  14.262
33161SOL    HW1 1315   5.320   1.387  14.339
33161SOL    HW2 1316   5.335   1.412  14.190
33162SOL     OW 1317   1.664  10.516   7.809
33162SOL    HW1 1318   1.673  10.611   7.817
33162SOL    HW2 1319   1.748  10.487   7.772
33163SOL     OW 1320   6.562   5.057   3.653
33163SOL    HW1 1321   6.468   5.074   3.643
33163SOL    HW2 1322   6.569   5.015   3.739
33164SOL     OW 1323  11.024  10.953   2.335
33164SOL    HW1 1324  11.046  10.899   2.258
33164SOL    HW2 1325  10.963  10.899   2.385
33165SOL     OW 1326  13.417   1.380  10.952
33165SOL    HW1 1327  13.361   1.444  10.909
33165SOL    HW2 1328  13.506   1.401  10.922
33166SOL     OW 1329   9.744   9.356   6.683
33166SOL    HW1 1330   9.762   9.307   6.603
33166SOL    HW2 1331   9.728   9.290   6.749
33167SOL     OW 1332   9.330   8.173   9.678
33167SOL    HW1 1333   9.378   8.104   9.724
33167SOL    HW2 1334   9.240   8.140   9.672
33168SOL     OW 1335  12.698   8.395   1.316
33168SOL    HW1 1336  12.652   8.359   1.240
33168SOL    HW2 1337  12.629   8.435   1.369
33169SOL     OW 1338   1.436  10.712   5.600
33169SOL    HW1 1339   1.407  10.803   5.608
33169SOL    HW2 1340   1.531  10.716   5.609
33170SOL     OW 1341  11.855  11.553  12.764
33170SOL    HW1 1342  11.933  11.510  12.801
33170SOL    HW2 1343  11.881  11.577  12.675
33171SOL     OW 1344   7.358   1.804   1.208
33171SOL    HW1 1345   7.363   1.768   1.296
33171SOL    HW2 1346   7.356   1.899   1.221
33172SOL     OW 1347   6.607   4.554   7.677
33172SOL    HW1 1348   6.515   4.544   7.701
33172SOL    HW2 1349   6.623   4.487   7.611
33173SOL     OW 1350   4.402  10.735   7.639
33173SOL    HW1 1351   4.332  10.741   7.705
33173SOL    HW2 1352   4.478  10.773   7.682
33174SOL     OW 1353  11.809   9.864   3.099
33174SOL    HW1 1354  11.765   9.797   3.150
33174SOL    HW2 1355  11.744   9.935   3.092
33175SOL     OW 1356   4.927   8.931   1.810
33175SOL    HW1 1357   4.953   8.841   1.792
33175SOL    HW2 1358   4.835   8.936   1.781
33176SOL     OW 1359   8.161   3.559   6.075
33176SOL    HW1 1360   8.230   3.624   6.087
33176SOL    HW2 1361   8.156   3.547   5.980
33177SOL     OW 1362   2.298   3.833  13.639
33177SOL    HW1 1363   2.260   3.812  13.724
33177SOL    HW2 1364   2.230   3.812  13.576
33178SOL     OW 1365  11.035   1.504   1.118
33178SOL    HW1 1366  10.992   1.419   1.120
33178SOL    HW2 1367  11.013   1.544   1.203
33179SOL     OW 1368  14.479  14.312   0.493
33179SOL    HW1 1369  14.512  14.401   0.485
33179SOL    HW2 1370  14.496  14.272   0.408
33180SOL     OW 1371   2.480  13.458   8.282
33180SOL    HW1 1372   2.392  13.426   8.261
33180SOL    HW2 1373   2.522  13.470   8.196
33181SOL     OW 1374  11.242   3.245   9.225
33181SOL    HW1 1375  11.187   3.317   9.194
33181SOL    HW2 1376  11.226   3.241   9.319
33182SOL     OW 1377  13.036   9.361   1.647
33182SOL    HW1 1378  13.082   9.445   1.636
33182SOL    HW2 1379  13.105   9.298   1.668
33183SOL     OW 1380  13.857  11.938   8.920
33183SOL    HW1 1381  13.806  11.973   8.993
33183SOL    HW2 1382  13.796  11.935   8.847
33184SOL     OW 1383   1.520   1.152   4.392
33184SOL    HW1 1384   1.603   1.192   4.367
33184SOL    HW2 1385   1.462   1.227   4.409
33185SOL     OW 1386   8.883   6.231   8.696
33185SOL    HW1 1387   8.970   6.230   8.656
33185SOL    HW2 1388   8.825   6.201   8.627
33186SOL     OW 1389   7.900   6.718   4.767
33186SOL    HW1 1390   7.886   6.698   4.859
33186SOL    HW2 1391   7.985   6.761   4.764
33187SOL     OW 1392   3.213  13.553  11.356
33187SOL    HW1 1393   3.138  13.613  11.355
33187SOL    HW2 1394   3.255  13.567  11.271
33188SOL     OW 1395   3.584   6.373   8.565
33188SOL    HW1 1396   3.674   6.404   8.566
33188SOL    HW2 1397   3.577   6.314   8.640
33189SOL     OW 1398   0.186   5.622   8.521
33189SOL    HW1 1399   0.225   5.693   8.470
33189SOL    HW2 1400   0.143   5.667   8.594
33190SOL     OW 1401   2.101  12.747  10.861
33190SOL    HW1 1402   2.080  12.723  10.951
33190SOL    HW2 1403   2.185  12.704  10.844
33191SOL     OW 1404  10.406   2.104   6.054
33191SOL    HW1 1405  10.353   2.121   5.976
33191SOL    HW2 1406  10.468   2.037   6.026
33192SOL     OW 1407  10.310  10.523  11.831
33192SOL    HW1 1408  10.336  10.440  11.871
33192SOL    HW2 1409  10.320  10.509  11.737
33193SOL     OW 1410  12.262   2.896   9.536
33193SOL    HW1 1411  12.267   2.971   9.596
33193SOL    HW2 1412  12.199   2.923   9.469
33194SOL     OW 1413   4.933   5.342  12.436
33194SOL    HW1 1414   4.871   5.413  12.453
33194SOL    HW2 1415   5.000   5.352  12.503
33195SOL     OW 1416   7.065  13.852   3.796
33195SOL    HW1 1417   7.152  13.883   3.823
33195SOL    HW2 1418   7.071  13.845   3.701
33196SOL     OW 1419   0.534   1.493   2.590
33196SOL    HW1 1420   0.578   1.418   2.630
33196SOL    HW2 1421   0.567   1.495   2.500
33197SOL     OW 1422   8.664  10.730  12.937
33197SOL    HW1 1423   8.577  10.734  12.977
33197SOL    HW2 1424   8.723  10.708  13.010
33198SOL     OW 1425   4.140   1.559   4.915
33198SOL    HW1 1426   4.066   1.617   4.898
33198SOL    HW2 1427   4.135   1.493   4.847
33199SOL     OW 1428   1.097   8.677   8.948
33199SOL    HW1 1429   1.168   8.655   9.008
33199SOL    HW2 1430   1.125   8.642   8.864
33200SOL     OW 1431   5.404  13.157  13.869
33200SOL    HW1 1432   5.379  13.233  13.816
33200SOL    HW2 1433   5.444  13.194  13.948
33201SOL     OW 1434   1.885   4.238  11.751
33201SOL    HW1 1435   1.825   4.220  11.824
33201SOL    HW2 1436   1.831   4.224  11.672
33202SOL     OW 1437  11.554  11.872   0.308
33202SOL    HW1 1438  11.477  11.828   0.343
33202SOL    HW2 1439  11.519  11.943   0.254
33203SOL     OW 1440   2.997   5.743   5.455
33203SOL    HW1 1441   2.987   5.716   5.546
33203SOL    HW2 1442   2.936   5.816   5.446
33204SOL     OW 1443   5.605   7.718   5.947
33204SOL    HW1 1444   5.606   7.681   6.036
33204SOL    HW2 1445   5.521   7.765   5.942
33205SOL     OW 1446   0.037   4.190   8.671
33205SOL    HW1 1447  14.826   4.206   8.717
33205SOL    HW2 1448   0.010   4.163   8.583
33206SOL     OW 1449   4.911  11.641   1.569
33206SOL    HW1 1450   4.976  11.698   1.527
33206SOL    HW2 1451   4.937  11.552   1.544
33207SOL     OW 1452   2.282   1.325   8.039
33207SOL    HW1 1453   2.312   1.406   8.080
33207SOL    HW2 1454   2.340   1.314   7.963
33208SOL     OW 1455   1.419   6.289  11.291
33208SOL    HW1 1456   1.401   6.362  11.232
33208SOL    HW2 1457   1.339   6.236  11.290
33209SOL     OW 1458  14.521   9.250  10.141
33209SOL    HW1 1459  14.497   9.239  10.049
33209SOL    HW2 1460  14.590   9.184  10.155
33210SOL     OW 1461  13.591   6.003   2.284
33210SOL    HW1 1462  13.575   5.945   2.358
33210SOL    HW2 1463  13.525   6.072   2.293
33211SOL     OW 1464   5.895   6.107  10.577
33211SOL    HW1 1465   5.965   6.145  10.524
33211SOL    HW2 1466   5.919   6.015  10.586
33212SOL     OW 1467   8.952  14.003   4.127
33212SOL    HW1 1468   8.876  13.998   4.070
33212SOL    HW2 1469   8.935  14.078   4.184
33213SOL     OW 1470   4.509   9.291   6.495
33213SOL    HW1 1471   4.487   9.383   6.508
33213SOL    HW2 1472   4.605   9.290   6.496
33214SOL     OW 1473   7.350   7.802   4.348
33214SOL    HW1 1474   7.282   7.735   4.340
33214SOL    HW2 1475   7.305   7.884   4.329
33215SOL     OW 1476   5.380   6.292  12.567
33215SOL    HW1 1477   5.385   6.324  12.657
33215SOL    HW2 1478   5.395   6.198  12.574
33216SOL     OW 1479   2.852   2.557   6.444
33216SOL    HW1 1480   2.884   2.534   6.531
33216SOL    HW2 1481   2.856   2.653   6.441
33217SOL     OW 1482   3.686  14.132   7.394
33217SOL    HW1 1483   3.724  14.063   7.449
33217SOL    HW2 1484   3.756  14.156   7.334
33218SOL     OW 1485   1.139   7.611   3.336
33218SOL    HW1 1486   1.161   7.695   3.295
33218SOL    HW2 1487   1.223   7.565   3.342
33219SOL     OW 1488  10.852   7.757  12.567
33219SOL    HW1 1489  10.760   7.755  12.541
33219SOL    HW2 1490  10.899   7.789  12.490
33220SOL     OW 1491   7.889   2.491  12.423
33220SOL    HW1 1492   7.861   2.580  12.399
33220SOL    HW2 1493   7.885   2.442  12.341
33221SOL     OW 1494   3.640  13.136   6.893
33221SOL    HW1 1495   3.590  13.111   6.816
33221SOL    HW2 1496   3.592  13.211   6.929
33222SOL     OW 1497   9.361  10.273  13.567
33222SOL    HW1 1498   9.390  10.273  13.658
33222SOL    HW2 1499   9.404  10.348  13.528
33223SOL     OW 1500   8.370  13.540   4.199
33223SOL    HW1 1501   8.311  13.597   4.150
33223SOL    HW2 1502   8.399  13.475   4.136
33224SOL     OW 1503   7.469   7.179   1.623
33224SOL    HW1 1504   7.461   7.168   1.718
33224SOL    HW2 1505   7.561   7.199   1.608
33225SOL     OW 1506  10.346   4.262   4.755
33225SOL    HW1 1507  10.315   4.204   4.825
33225SOL    HW2 1508  10.440   4.270   4.770
33226SOL     OW 1509   9.319   8.175   4.327
33226SOL    HW1 1510   9.240   8.194   4.276
33226SOL    HW2 1511   9.286   8.146   4.412
33227SOL     OW 1512  12.411   9.296  10.944
33227SOL    HW1 1513  12.451   9.212  10.964
33227SOL    HW2 1514  12.462   9.331  10.871
33228SOL     OW 1515   3.430  13.865   7.845
33228SOL    HW1 1516   3.351  13.853   7.899
33228SOL    HW2 1517   3.403  13.926   7.777
33229SOL     OW 1518   4.275  11.060   4.041
33229SOL    HW1 1519   4.349  11.106   3.999
33229SOL    HW2 1520   4.274  10.974   4.000
33230SOL     OW 1521  11.409   1.868   7.711
33230SOL    HW1 1522  11.370   1.888   7.627
33230SOL    HW2 1523  11.348   1.903   7.776
33231SOL     OW 1524   0.092  11.348   5.283
33231SOL    HW1 1525   0.128  11.283   5.222
33231SOL    HW2 1526   0.100  11.307   5.369
33232SOL     OW 1527   2.739   6.123  11.734
33232SOL    HW1 1528   2.689   6.107  11.814
33232SOL    HW2 1529   2.684   6.183  11.683
33233SOL     OW 1530   0.150   9.043   3.874
33233SOL    HW1 1531   0.111   9.126   3.903
33233SOL    HW2 1532   0.206   9.016   3.947
33234SOL     OW 1533   8.983   5.180  12.241
33234SOL    HW1 1534   8.987   5.235  12.162
33234SOL    HW2 1535   8.944   5.098  12.210
33235SOL     OW 1536   1.063   0.522   4.104
33235SOL    HW1 1537   1.032   0.562   4.023
33235SOL    HW2 1538   1.116   0.591   4.146
33236SOL     OW 1539  11.381  10.735   0.910
33236SOL    HW1 1540  11.435  10.812   0.932
33236SOL    HW2 1541  11.401  10.672   0.979
33237SOL     OW 1542   6.690  13.497   9.261
33237SOL    HW1 1543   6.746  13.420   9.270
33237SOL    HW2 1544   6.716  13.555   9.333
33238SOL     OW 1545   2.299  12.282   8.130
33238SOL    HW1 1546   2.310  12.239   8.214
33238SOL    HW2 1547   2.205  12.302   8.125
33239SOL     OW 1548  14.063   2.602   5.502
33239SOL    HW1 1549  14.125   2.593   5.575
33239SOL    HW2 1550  14.027   2.690   5.512
33240SOL     OW 1551   3.948   5.305   5.145
33240SOL    HW1 1552   3.976   5.394   5.167
33240SOL    HW2 1553   3.917   5.312   5.054
33241SOL     OW 1554  11.216   6.983   4.715
33241SOL    HW1 1555  11.212   7.003   4.622
33241SOL    HW2 1556  11.205   7.068   4.759
33242SOL     OW 1557   6.023   3.391  14.573
33242SOL    HW1 1558   5.962   3.384  14.500
33242SOL    HW2 1559   6.074   3.470  14.554
33243SOL     OW 1560   5.672  14.597   5.037
33243SOL    HW1 1561   5.761  14.579   5.008
33243SOL    HW2 1562   5.652  14.528   5.100
33244SOL     OW 1563   4.477  12.630  14.060
33244SOL    HW1 1564   4.458  12.612  13.968
33244SOL    HW2 1565   4.459  12.548  14.106
33245SOL     OW 1566  13.594   8.819   3.460
33245SOL    HW1 1567  13.596   8.888   3.394
33245SOL    HW2 1568  13.577   8.739   3.409
33246SOL     OW 1569   2.585   3.646   9.996
33246SOL    HW1 1570   2.500   3.612   9.972
33246SOL    HW2 1571   2.630   3.660   9.913
33247SOL     OW 1572   6.503  14.535   1.088
33247SOL    HW1 1573   6.584  14.550   1.137
33247SOL    HW2 1574   6.454  14.472   1.141
33248SOL     OW 1575   4.654   2.403   3.696
33248SOL    HW1 1576   4.651   2.472   3.628
33248SOL    HW2 1577   4.622   2.325   3.651
33249SOL     OW 1578  10.949   3.562   5.471
33249SOL    HW1 1579  10.988   3.480   5.439
33249SOL    HW2 1580  10.917   3.605   5.392
33250SOL     OW 1581   4.198  13.819  13.390
33250SOL    HW1 1582   4.113  13.863  13.386
33250SOL    HW2 1583   4.209  13.796  13.482
33251SOL     OW 1584  11.526   5.355   4.527
33251SOL    HW1 1585  11.475   5.436   4.527
33251SOL    HW2 1586  11.485   5.301   4.460
33252SOL     OW 1587   5.859   3.553  12.665
33252SOL    HW1 1588   5.774   3.598  12.670
33252SOL    HW2 1589   5.899   3.568  12.751
33253SOL     OW 1590  10.888   1.506   8.381
33253SOL    HW1 1591  10.909   1.421   8.420
33253SOL    HW2 1592  10.906   1.496   8.288
33254SOL     OW 1593  10.947   2.535   1.394
33254SOL    HW1 1594  10.962   2.501   1.482
33254SOL    HW2 1595  10.960   2.630   1.402
33255SOL     OW 1596   0.649   6.274  13.605
33255SOL    HW1 1597   0.556   6.292  13.590
33255SOL    HW2 1598   0.650   6.192  13.654
33256SOL     OW 1599   7.782  13.558   7.075
33256SOL    HW1 1600   7.688  13.574   7.065
33256SOL    HW2 1601   7.789  13.463   7.082
33257SOL     OW 1602   7.146   0.623   1.907
33257SOL    HW1 1603   7.145   0.651   1.999
33257SOL    HW2 1604   7.126   0.702   1.858
33258SOL     OW 1605   4.513   7.958  11.920
33258SOL    HW1 1606   4.500   7.867  11.894
33258SOL    HW2 1607   4.550   8.001  11.843
33259SOL     OW 1608  11.303   0.498   4.669
33259SOL    HW1 1609  11.328   0.560   4.738
33259SOL    HW2 1610  11.247   0.434   4.714
33260SOL     OW 1611  12.835   2.427   5.486
33260SOL    HW1 1612  12.804   2.349   5.441
33260SOL    HW2 1613  12.925   2.438   5.456
33261SOL     OW 1614   1.660  11.948   5.922
33261SOL    HW1 1615   1.573  11.974   5.952
33261SOL    HW2 1616   1.704  11.918   6.001
33262SOL     OW 1617   8.313   0.523  12.434
33262SOL    HW1 1618   8.309   0.569  12.350
33262SOL    HW2 1619   8.271   0.439  12.418
33263SOL     OW 1620  12.840   7.240  13.022
33263SOL    HW1 1621  12.779   7.277  12.958
33263SOL    HW2 1622  12.907   7.307  13.033
33264SOL     OW 1623   3.581  14.155  11.023
33264SOL    HW1 1624   3.639  14.106  11.081
33264SOL    HW2 1625   3.604  14.247  11.037
33265SOL     OW 1626   1.701  12.715   3.360
33265SOL    HW1 1627   1.737  12.781   3.418
33265SOL    HW2 1628   1.769  12.703   3.293
33266SOL     OW 1629  14.498  12.827   9.282
33266SOL    HW1 1630  14.495  12.850   9.375
33266SOL    HW2 1631  14.571  12.766   9.274
33267SOL     OW 1632   0.515   3.697   2.401
33267SOL    HW1 1633   0.598   3.702   2.355
33267SOL    HW2 1634   0.450   3.681   2.333
33268SOL     OW 1635  13.749   6.902  14.323
33268SOL    HW1 1636  13.808   6.838  14.363
33268SOL    HW2 1637  13.801   6.942  14.253
33269SOL     OW 1638   2.428  10.688  10.563
33269SOL    HW1 1639   2.482  10.747  10.510
33269SOL    HW2 1640   2.487  10.615  10.584
33270SOL     OW 1641   9.449   4.941  13.520
33270SOL    HW1 1642   9.439   5.036  13.532
33270SOL    HW2 1643   9.415   4.903  13.601
33271SOL     OW 1644   5.180  10.913   8.408
33271SOL    HW1 1645   5.135  10.986   8.451
33271SOL    HW2 1646   5.271  10.943   8.400
33272SOL     OW 1647   6.464  13.553   9.124
33272SOL    HW1 1648   6.531  13.521   9.184
33272SOL    HW2 1649   6.384  13.555   9.177
33273SOL     OW 1650   4.741  13.942  13.468
33273SOL    HW1 1651   4.659  13.964  13.424
33273SOL    HW2 1652   4.803  14.008  13.437
33274SOL     OW 1653   0.648  10.689  10.326
33274SOL    HW1 1654   0.732  10.714  10.363
33274SOL    HW2 1655   0.587  10.695  10.399
33275SOL     OW 1656   3.985   3.965  13.987
33275SOL    HW1 1657   3.922   4.010  13.931
33275SOL    HW2 1658   4.049   3.928  13.926
33276SOL     OW 1659  10.782   8.980  14.162
33276SOL    HW1 1660  10.722   9.003  14.233
33276SOL    HW2 1661  10.750   8.896  14.130
33277SOL     OW 1662  14.181  11.077  14.243
33277SOL    HW1 1663  14.203  11.055  14.334
33277SOL    HW2 1664  14.207  10.999  14.193
33278SOL     OW 1665   1.503   7.089  10.204
33278SOL    HW1 1666   1.497   7.184  10.207
33278SOL    HW2 1667   1.521   7.063  10.295
33279SOL     OW 1668  13.809  13.942   3.201
33279SOL    HW1 1669  13.749  13.944   3.127
33279SOL    HW2 1670  13.818  13.849   3.223
33280SOL     OW 1671   6.206   3.908   6.255
33280SOL    HW1 1672   6.288   3.879   6.295
33280SOL    HW2 1673   6.147   3.922   6.330
33281SOL     OW 1674   7.753   5.240   8.457
33281SOL    HW1 1675   7.712   5.308   8.510
33281SOL    HW2 1676   7.752   5.162   8.512
33282SOL     OW 1677  12.121   8.449  11.387
33282SOL    HW1 1678  12.039   8.451  11.437
33282SOL    HW2 1679  12.167   8.529  11.413
33283SOL     OW 1680   5.210  10.108  14.200
33283SOL    HW1 1681   5.180  10.067  14.281
33283SOL    HW2 1682   5.195  10.201  14.213
33284SOL     OW 1683   2.486  14.647  11.823
33284SOL    HW1 1684   2.445  14.573  11.777
33284SOL    HW2 1685   2.414  14.708  11.837
33285SOL     OW 1686   8.602  11.954   9.094
33285SOL    HW1 1687   8.545  11.885   9.060
33285SOL    HW2 1688   8.549  12.034   9.089
33286SOL     OW 1689   6.616   0.656   1.076
33286SOL    HW1 1690   6.533   0.649   1.122
33286SOL    HW2 1691   6.630   0.750   1.064
33287SOL     OW 1692   7.249  11.467   3.115
33287SOL    HW1 1693   7.275  11.558   3.100
33287SOL    HW2 1694   7.303  11.417   3.053
33288SOL     OW 1695   5.614  14.315  11.342
33288SOL    HW1 1696   5.609  14.220  11.332
33288SOL    HW2 1697   5.541  14.348  11.289
33289SOL     OW 1698   1.506  12.971   8.432
33289SOL    HW1 1699   1.505  13.055   8.478
33289SOL    HW2 1700   1.559  12.914   8.489
33290SOL     OW 1701   0.245  12.799   5.136
33290SOL    HW1 1702   0.336  12.808   5.163
33290SOL    HW2 1703   0.249  12.771   5.044
33291SOL     OW 1704   8.734   0.887  13.792
33291SOL    HW1 1705   8.779   0.968  13.769
33291SOL    HW2 1706   8.743   0.881  13.887
33292SOL     OW 1707   8.783   6.851  10.598
33292SOL    HW1 1708   8.799   6.785  10.666
33292SOL    HW2 1709   8.746   6.802  10.525
33293SOL     OW 1710   8.966   1.000   9.659
33293SOL    HW1 1711   9.046   1.052   9.662
33293SOL    HW2 1712   8.897   1.060   9.690
33294SOL     OW 1713  13.233   5.476   8.061
33294SOL    HW1 1714  13.285   5.509   8.135
33294SOL    HW2 1715  13.294   5.419   8.013
33295SOL     OW 1716   5.433   3.515   9.830
33295SOL    HW1 1717   5.366   3.461   9.873
33295SOL    HW2 1718   5.479   3.558   9.902
33296SOL     OW 1719   3.936   9.767   8.512
33296SOL    HW1 1720   3.932   9.778   8.607
33296SOL    HW2 1721   3.845   9.761   8.484
33297SOL     OW 1722   6.937   5.376  13.950
33297SOL    HW1 1723   7.012   5.432  13.970
33297SOL    HW2 1724   6.885   5.428  13.889
33298SOL     OW 1725   6.575   4.826  12.557
33298SOL    HW1 1726   6.517   4.756  12.527
33298SOL    HW2 1727   6.607   4.796  12.642
33299SOL     OW 1728   5.353  10.487   9.963
33299SOL    HW1 1729   5.428  10.528  10.005
33299SOL    HW2 1730   5.390  10.442   9.886
33300SOL     OW 1731   5.388   6.553   3.388
33300SOL    HW1 1732   5.380   6.459   3.372
33300SOL    HW2 1733   5.315   6.591   3.340
33301SOL     OW 1734   0.517   7.096  12.903
33301SOL    HW1 1735   0.480   7.071  12.818
33301SOL    HW2 1736   0.612   7.092  12.889
33302SOL     OW 1737   4.288   4.255   7.538
33302SOL    HW1 1738   4.249   4.231   7.454
33302SOL    HW2 1739   4.246   4.197   7.601
33303SOL     OW 1740   3.372   4.429   6.903
33303SOL    HW1 1741   3.414   4.400   6.983
33303SOL    HW2 1742   3.360   4.523   6.914
33304SOL     OW 1743   9.906   6.450  13.898
33304SOL    HW1 1744   9.856   6.523  13.934
33304SOL    HW2 1745   9.965   6.423  13.969
33305SOL     OW 1746   8.336  14.352   0.431
33305SOL    HW1 1747   8.424  14.319   0.411
33305SOL    HW2 1748   8.307  14.299   0.505
33306SOL     OW 1749   2.082  14.704  11.755
33306SOL    HW1 1750   2.007  14.744  11.799
33306SOL    HW2 1751   2.142  14.777  11.738
33307SOL     OW 1752   4.364  14.529  11.050
33307SOL    HW1 1753   4.313  14.448  11.052
33307SOL    HW2 1754   4.448  14.505  11.089
33308SOL     OW 1755   5.757   7.764   6.468
33308SOL    HW1 1756   5.685   7.789   6.411
33308SOL    HW2 1757   5.715   7.717   6.540
33309SOL     OW 1758  11.408   3.691   2.946
33309SOL    HW1 1759  11.389   3.601   2.921
33309SOL    HW2 1760  11.403   3.740   2.864
33310SOL     OW 1761   6.781   5.157   2.753
33310SOL    HW1 1762   6.831   5.183   2.675
33310SOL    HW2 1763   6.768   5.238   2.801
33311SOL     OW 1764   2.465   7.740   7.985
33311SOL    HW1 1765   2.535   7.798   8.016
33311SOL    HW2 1766   2.450   7.768   7.894
33312SOL     OW 1767  11.314  12.135   5.837
33312SOL    HW1 1768  11.341  12.215   5.883
33312SOL    HW2 1769  11.328  12.154   5.745
33313SOL     OW 1770   2.841   1.915  14.110
33313SOL    HW1 1771   2.930   1.920  14.146
33313SOL    HW2 1772   2.825   2.001  14.073
33314SOL     OW 1773  13.277   5.815  10.869
33314SOL    HW1 1774  13.330   5.826  10.948
33314SOL    HW2 1775  13.281   5.721  10.850
33315SOL     OW 1776   1.432   4.350  14.070
33315SOL    HW1 1777   1.340   4.358  14.045
33315SOL    HW2 1778   1.449   4.427  14.124
33316SOL     OW 1779   7.978   6.282   1.298
33316SOL    HW1 1780   7.891   6.277   1.257
33316SOL    HW2 1781   8.037   6.244   1.233
33317SOL     OW 1782   0.669  14.181  10.252
33317SOL    HW1 1783   0.634  14.224  10.173
33317SOL    HW2 1784   0.755  14.148  10.225
33318SOL     OW 1785  11.606   3.710   1.714
33318SOL    HW1 1786  11.524   3.682   1.674
33318SOL    HW2 1787  11.661   3.631   1.715
33319SOL     OW 1788   5.461   9.615   5.325
33319SOL    HW1 1789   5.405   9.602   5.401
33319SOL    HW2 1790   5.401   9.619   5.251
33320SOL     OW 1791  14.836   3.178  13.727
33320SOL    HW1 1792  14.787   3.123  13.788
33320SOL    HW2 1793   0.045   3.200  13.773
33321SOL     OW 1794   7.890   5.559   9.294
33321SOL    HW1 1795   7.929   5.547   9.208
33321SOL    HW2 1796   7.959   5.600   9.346
33322SOL     OW 1797   9.695   1.324  11.967
33322SOL    HW1 1798   9.789   1.335  11.951
33322SOL    HW2 1799   9.661   1.284  11.887
33323SOL     OW 1800  12.461  13.627   8.019
33323SOL    HW1 1801  12.524  13.605   8.088
33323SOL    HW2 1802  12.375  13.619   8.060
33324SOL     OW 1803   7.267  12.747   8.272
33324SOL    HW1 1804   7.210  12.697   8.331
33324SOL    HW2 1805   7.241  12.838   8.285
33325SOL     OW 1806   8.304   9.446   3.459
33325SOL    HW1 1807   8.346   9.454   3.373
33325SOL    HW2 1808   8.324   9.528   3.503
33326SOL     OW 1809  14.128   9.951   3.667
33326SOL    HW1 1810  14.042   9.964   3.705
33326SOL    HW2 1811  14.175   9.898   3.731
33327SOL     OW 1812  14.514   7.465  11.641
33327SOL    HW1 1813  14.496   7.452  11.734
33327SOL    HW2 1814  14.590   7.523  11.639
33328SOL     OW 1815   3.240  13.439   8.461
33328SOL    HW1 1816   3.144  13.439   8.459
33328SOL    HW2 1817   3.264  13.531   8.449
33329SOL     OW 1818  14.500   4.193   0.996
33329SOL    HW1 1819  14.435   4.215   1.062
33329SOL    HW2 1820  14.489   4.259   0.927
33330SOL     OW 1821  12.377  11.425   9.658
33330SOL    HW1 1822  12.303  11.477   9.688
33330SOL    HW2 1823  12.362  11.338   9.695
33331SOL     OW 1824   2.313  13.597   9.912
33331SOL    HW1 1825   2.264  13.632   9.838
33331SOL    HW2 1826   2.258  13.526   9.946
33332SOL     OW 1827   2.316   1.788   7.675
33332SOL    HW1 1828   2.291   1.760   7.763
33332SOL    HW2 1829   2.391   1.733   7.652
33333SOL     OW 1830   7.931  11.694   6.870
33333SOL    HW1 1831   7.901  11.762   6.930
33333SOL    HW2 1832   8.021  11.719   6.849
33334SOL     OW 1833   1.999   3.157   5.154
33334SOL    HW1 1834   2.092   3.177   5.165
33334SOL    HW2 1835   1.994   3.117   5.067
33335SOL     OW 1836   7.313   0.444   2.776
33335SOL    HW1 1837   7.329   0.351   2.764
33335SOL    HW2 1838   7.276   0.473   2.693
33336SOL     OW 1839   7.001   1.008  11.524
33336SOL    HW1 1840   7.040   0.974  11.444
33336SOL    HW2 1841   6.972   0.930  11.571
33337SOL     OW 1842   6.285  12.317  13.983
33337SOL    HW1 1843   6.221  12.248  13.966
33337SOL    HW2 1844   6.275  12.377  13.909
33338SOL     OW 1845   4.841   3.934  12.806
33338SOL    HW1 1846   4.793   4.015  12.824
33338SOL    HW2 1847   4.789   3.889  12.740
33339SOL     OW 1848  12.509   7.837  11.398
33339SOL    HW1 1849  12.462   7.894  11.338
33339SOL    HW2 1850  12.449   7.826  11.472
33340SOL     OW 1851   9.649   7.862   3.880
33340SOL    HW1 1852   9.597   7.807   3.939
33340SOL    HW2 1853   9.612   7.949   3.890
33341SOL     OW 1854  13.048  11.620   2.719
33341SOL    HW1 1855  13.058  11.583   2.631
33341SOL    HW2 1856  12.961  11.661   2.718
33342SOL     OW 1857   8.571  14.401   4.201
33342SOL    HW1 1858   8.629  14.329   4.224
33342SOL    HW2 1859   8.585  14.467   4.269
33343SOL     OW 1860  13.392  10.674  14.377
33343SOL    HW1 1861  13.377  10.724  14.457
33343SOL    HW2 1862  13.481  10.697  14.350
33344SOL     OW 1863  11.875  10.714   7.328
33344SOL    HW1 1864  11.937  10.769   7.377
33344SOL    HW2 1865  11.791  10.729   7.370
33345SOL     OW 1866  13.930  11.847  14.479
33345SOL    HW1 1867  13.842  11.844  14.442
33345SOL    HW2 1868  13.917  11.863  14.572
33346SOL     OW 1869   3.560   5.301   5.023
33346SOL    HW1 1870   3.653   5.322   5.027
33346SOL    HW2 1871   3.557   5.206   5.015
33347SOL     OW 1872  10.974  12.380  14.508
33347SOL    HW1 1873  11.044  12.394  14.572
33347SOL    HW2 1874  10.959  12.466  14.469
33348SOL     OW 1875   2.522   5.455   9.443
33348SOL    HW1 1876   2.534   5.374   9.492
33348SOL    HW2 1877   2.587   5.515   9.480
33349SOL     OW 1878   6.654  11.963   0.686
33349SOL    HW1 1879   6.662  11.876   0.645
33349SOL    HW2 1880   6.698  12.022   0.625
33350SOL     OW 1881   1.719  14.392   7.131
33350SOL    HW1 1882   1.806  14.356   7.147
33350SOL    HW2 1883   1.734  14.463   7.068
33351SOL     OW 1884   6.753  12.660   0.976
33351SOL    HW1 1885   6.733  12.658   0.882
33351SOL    HW2 1886   6.766  12.568   0.999
33352SOL     OW 1887   7.143   5.731  10.341
33352SOL    HW1 1888   7.193   5.760  10.417
33352SOL    HW2 1889   7.185   5.774  10.267
33353SOL     OW 1890  11.005   2.177   7.827
33353SOL    HW1 1891  10.971   2.260   7.861
33353SOL    HW2 1892  10.943   2.152   7.758
33354SOL     OW 1893  10.640  12.125   6.569
33354SOL    HW1 1894  10.585  12.203   6.562
33354SOL    HW2 1895  10.614  12.071   6.495
33355SOL     OW 1896  11.819   1.361  11.096
33355SOL    HW1 1897  11.795   1.428  11.032
33355SOL    HW2 1898  11.883   1.306  11.050
33356SOL     OW 1899  14.704   6.400   1.466
33356SOL    HW1 1900  14.790   6.359   1.461
33356SOL    HW2 1901  14.682   6.400   1.559
33357SOL     OW 1902   1.586   1.606   4.406
33357SOL    HW1 1903   1.536   1.684   4.380
33357SOL    HW2 1904   1.642   1.587   4.330
33358SOL     OW 1905   3.132  13.738   5.170
33358SOL    HW1 1906   3.176  13.815   5.136
33358SOL    HW2 1907   3.049  13.734   5.124
33359SOL     OW 1908  10.970   0.595   1.937
33359SOL    HW1 1909  11.013   0.634   2.013
33359SOL    HW2 1910  10.994   0.651   1.864
33360SOL     OW 1911   6.924   3.169   9.696
33360SOL    HW1 1912   6.973   3.095   9.731
33360SOL    HW2 1913   6.976   3.246   9.720
33361SOL     OW 1914   7.098   8.530   5.902
33361SOL    HW1 1915   7.116   8.623   5.915
33361SOL    HW2 1916   7.177   8.495   5.861
33362SOL     OW 1917  14.819   2.647   0.869
33362SOL    HW1 1918  14.788   2.729   0.908
33362SOL    HW2 1919  14.766   2.579   0.911
33363SOL     OW 1920   8.449  12.054   5.299
33363SOL    HW1 1921   8.412  12.022   5.382
33363SOL    HW2 1922   8.375  12.098   5.257
33364SOL     OW 1923   2.364   2.131   6.834
33364SOL    HW1 1924   2.375   2.052   6.780
33364SOL    HW2 1925   2.380   2.101   6.923
33365SOL     OW 1926   9.947   4.179   0.163
33365SOL    HW1 1927   9.964   4.151   0.253
33365SOL    HW2 1928  10.000   4.258   0.151
33366SOL     OW 1929   8.380   5.747   6.907
33366SOL    HW1 1930   8.403   5.711   6.822
33366SOL    HW2 1931   8.350   5.836   6.888
33367SOL     OW 1932   6.573   4.656   1.350
33367SOL    HW1 1933   6.480   4.635   1.340
33367SOL    HW2 1934   6.617   4.590   1.296
33368SOL     OW 1935   4.601   7.087   1.329
33368SOL    HW1 1936   4.524   7.127   1.369
33368SOL    HW2 1937   4.660   7.160   1.310
33369SOL     OW 1938   6.658  11.451  10.643
33369SOL    HW1 1939   6.676  11.368  10.687
33369SOL    HW2 1940   6.740  11.471  10.597
33370SOL     OW 1941   8.629   1.398  14.101
33370SOL    HW1 1942   8.594   1.462  14.040
33370SOL    HW2 1943   8.553   1.366  14.149
33371SOL     OW 1944   3.678   6.998   0.337
33371SOL    HW1 1945   3.630   7.078   0.361
33371SOL    HW2 1946   3.618   6.927   0.359
33372SOL     OW 1947   3.805   4.987   9.844
33372SOL    HW1 1948   3.790   5.058   9.906
33372SOL    HW2 1949   3.897   4.995   9.820
33373SOL     OW 1950   8.245   9.286  10.403
33373SOL    HW1 1951   8.164   9.309  10.358
33373SOL    HW2 1952   8.217   9.256  10.490
33374SOL     OW 1953   7.456   9.973   6.330
33374SOL    HW1 1954   7.401   9.958   6.408
33374SOL    HW2 1955   7.434   9.900   6.272
33375SOL     OW 1956   5.525   3.499   6.392
33375SOL    HW1 1957   5.595   3.436   6.374
33375SOL    HW2 1958   5.506   3.538   6.307
33376SOL     OW 1959  12.339   5.363  10.513
33376SOL    HW1 1960  12.326   5.277  10.474
33376SOL    HW2 1961  12.397   5.408  10.452
33377SOL     OW 1962  11.943   3.720   0.352
33377SOL    HW1 1963  11.925   3.766   0.270
33377SOL    HW2 1964  12.021   3.668   0.334
33378SOL     OW 1965   6.304   6.826   7.766
33378SOL    HW1 1966   6.361   6.779   7.706
33378SOL    HW2 1967   6.290   6.765   7.839
33379SOL     OW 1968   7.172   4.367   6.515
33379SOL    HW1 1969   7.230   4.299   6.479
33379SOL    HW2 1970   7.184   4.360   6.610
33380SOL     OW 1971   2.363   0.388   1.352
33380SOL    HW1 1972   2.319   0.442   1.286
33380SOL    HW2 1973   2.384   0.307   1.307
33381SOL     OW 1974  13.801   2.511   7.753
33381SOL    HW1 1975  13.706   2.502   7.754
33381SOL    HW2 1976  13.817   2.600   7.721
33382SOL     OW 1977   7.813  10.669  10.916
33382SOL    HW1 1978   7.877  10.691  10.848
33382SOL    HW2 1979   7.819  10.574  10.925
33383SOL     OW 1980   4.682   6.450  14.341
33383SOL    HW1 1981   4.636   6.486  14.417
33383SOL    HW2 1982   4.737   6.380  14.377
33384SOL     OW 1983  10.135   8.984   2.959
33384SOL    HW1 1984  10.147   8.984   2.864
33384SOL    HW2 1985  10.186   9.059   2.990
33385SOL     OW 1986   0.442  10.821   3.997
33385SOL    HW1 1987   0.433  10.915   4.017
33385SOL    HW2 1988   0.535  10.803   4.010
33386SOL     OW 1989   4.135   2.036   2.989
33386SOL    HW1 1990   4.117   1.943   2.976
33386SOL    HW2 1991   4.211   2.054   2.934
33387SOL     OW 1992  10.925   4.517   4.242
33387SOL    HW1 1993  10.877   4.488   4.165
33387SOL    HW2 1994  10.918   4.612   4.241
33388SOL     OW 1995  14.469   6.902  13.590
33388SOL    HW1 1996  14.430   6.821  13.626
33388SOL    HW2 1997  14.553   6.910  13.636
33389SOL     OW 1998   8.844   9.533  12.281
33389SOL    HW1 1999   8.846   9.518  12.186
33389SOL    HW2 2000   8.778   9.472  12.313
33390SOL     OW 2001   5.585  11.191   1.136
33390SOL    HW1 2002   5.666  11.145   1.114
33390SOL    HW2 2003   5.523  11.165   1.068
33391SOL     OW 2004   8.696   1.587  13.337
33391SOL    HW1 2005   8.698   1.669  13.387
33391SOL    HW2 2006   8.738   1.609  13.254
33392SOL     OW 2007   3.479   8.215  12.176
33392SOL    HW1 2008   3.495   8.303  12.210
33392SOL    HW2 2009   3.410   8.180  12.233
33393SOL     OW 2010   0.768   7.224   2.022
33393SOL    HW1 2011   0.864   7.227   2.020
33393SOL    HW2 2012   0.741   7.287   1.954
33394SOL     OW 2013   7.153   1.080   2.778
33394SOL    HW1 2014   7.210   1.038   2.713
33394SOL    HW2 2015   7.066   1.043   2.761
33395SOL     OW 2016  12.056   4.652   9.067
33395SOL    HW1 2017  11.974   4.695   9.043
33395SOL    HW2 2018  12.124   4.709   9.033
33396SOL     OW 2019  10.955   0.755   2.795
33396SOL    HW1 2020  11.016   0.822   2.823
33396SOL    HW2 2021  10.951   0.764   2.700
33397SOL     OW 2022   4.756  13.574  14.261
33397SOL    HW1 2023   4.745  13.581  14.355
33397SOL    HW2 2024   4.667  13.572  14.226
33398SOL     OW 2025  13.924   3.811  10.842
33398SOL    HW1 2026  13.829   3.811  10.832
33398SOL    HW2 2027  13.940   3.865  10.919
33399SOL     OW 2028   1.241   8.466  11.499
33399SOL    HW1 2029   1.188   8.394  11.463
33399SOL    HW2 2030   1.195   8.493  11.578
33400SOL     OW 2031   8.459   4.787  12.123
33400SOL    HW1 2032   8.364   4.796  12.110
33400SOL    HW2 2033   8.467   4.730  12.200
33401SOL     OW 2034  11.624   3.236  11.903
33401SOL    HW1 2035  11.652   3.301  11.967
33401SOL    HW2 2036  11.574   3.172  11.954
33402SOL     OW 2037   6.431   3.596   5.090
33402SOL    HW1 2038   6.366   3.584   5.159
33402SOL    HW2 2039   6.489   3.520   5.099
33403SOL     OW 2040   8.452   1.161   6.522
33403SOL    HW1 2041   8.383   1.139   6.585
33403SOL    HW2 2042   8.425   1.245   6.486
33404SOL     OW 2043   1.769  11.356   5.546
33404SOL    HW1 2044   1.758  11.371   5.639
33404SOL    HW2 2045   1.753  11.442   5.506
33405SOL     OW 2046  14.595  11.248   8.660
33405SOL    HW1 2047  14.560  11.172   8.614
33405SOL    HW2 2048  14.656  11.212   8.724
33406SOL     OW 2049  14.836   8.296  11.233
33406SOL    HW1 2050  14.852   8.387  11.207
33406SOL    HW2 2051   0.050   8.261  11.252
33407SOL     OW 2052  10.690  14.361  10.797
33407SOL    HW1 2053  10.737  14.362  10.714
33407SOL    HW2 2054  10.661  14.452  10.809
33408SOL     OW 2055   5.857  12.457   0.727
33408SOL    HW1 2056   5.861  12.408   0.646
33408SOL    HW2 2057   5.832  12.546   0.701
33409SOL     OW 2058   0.859   5.007   2.486
33409SOL    HW1 2059   0.947   5.042   2.497
33409SOL    HW2 2060   0.861   4.962   2.402
33410SOL     OW 2061   1.867   5.297   3.805
33410SOL    HW1 2062   1.875   5.388   3.834
33410SOL    HW2 2063   1.939   5.251   3.849
33411SOL     OW 2064  13.287  10.758  12.153
33411SOL    HW1 2065  13.263  10.685  12.211
33411SOL    HW2 2066  13.227  10.828  12.178
33412SOL     OW 2067   6.063  11.794  14.658
33412SOL    HW1 2068   6.129  11.764  14.720
33412SOL    HW2 2069   5.998  11.840  14.712
33413SOL     OW 2070   4.487   8.507   6.162
33413SOL    HW1 2071   4.466   8.598   6.141
33413SOL    HW2 2072   4.403   8.468   6.188
33414SOL     OW 2073   2.844  12.648   4.590
33414SOL    HW1 2074   2.776  12.588   4.618
33414SOL    HW2 2075   2.844  12.642   4.495
33415SOL     OW 2076   4.456   7.706  10.905
33415SOL    HW1 2077   4.370   7.709  10.863
33415SOL    HW2 2078   4.513   7.664  10.840
33416SOL     OW 2079   0.678  11.799   5.431
33416SOL    HW1 2080   0.655  11.882   5.389
33416SOL    HW2 2081   0.688  11.821   5.524
33417SOL     OW 2082  11.181   6.908   3.685
33417SOL    HW1 2083  11.155   6.988   3.730
33417SOL    HW2 2084  11.133   6.838   3.730
33418SOL     OW 2085  11.272   1.705   8.053
33418SOL    HW1 2086  11.218   1.725   8.129
33418SOL    HW2 2087  11.270   1.785   8.000
33419SOL     OW 2088  13.185  11.948   3.018
33419SOL    HW1 2089  13.190  12.003   2.939
33419SOL    HW2 2090  13.124  11.878   2.995
33420SOL     OW 2091   1.788   5.619  13.003
33420SOL    HW1 2092   1.829   5.670  12.933
33420SOL    HW2 2093   1.756   5.684  13.065
33421SOL     OW 2094  10.390   7.054   0.826
33421SOL    HW1 2095  10.385   6.959   0.839
33421SOL    HW2 2096  10.299   7.083   0.823
33422SOL     OW 2097   7.909   9.016   2.972
33422SOL    HW1 2098   7.846   8.964   3.022
33422SOL    HW2 2099   7.958   8.952   2.920
33423SOL     OW 2100  14.420   9.632  13.658
33423SOL    HW1 2101  14.399   9.723  13.637
33423SOL    HW2 2102  14.514   9.624  13.638
33424SOL     OW 2103  14.669  11.131   6.796
33424SOL    HW1 2104  14.633  11.187   6.727
33424SOL    HW2 2105  14.752  11.099   6.761
33425SOL     OW 2106   7.725  12.422   4.012
33425SOL    HW1 2107   7.653  12.371   4.049
33425SOL    HW2 2108   7.712  12.511   4.046
33426SOL     OW 2109   9.896   6.261   7.886
33426SOL    HW1 2110   9.854   6.286   7.804
33426SOL    HW2 2111   9.873   6.331   7.947
33427SOL     OW 2112   1.321  12.756   1.958
33427SOL    HW1 2113   1.236  12.742   1.917
33427SOL    HW2 2114   1.384  12.743   1.887
33428SOL     OW 2115   0.035  13.030  11.837
33428SOL    HW1 2116   0.021  12.980  11.757
33428SOL    HW2 2117  14.833  13.008  11.893
33429SOL     OW 2118  10.617   4.503   2.214
33429SOL    HW1 2119  10.534   4.483   2.258
33429SOL    HW2 2120  10.592   4.540   2.130
33430SOL     OW 2121   9.844  12.822   8.164
33430SOL    HW1 2122   9.889  12.740   8.142
33430SOL    HW2 2123   9.753  12.795   8.181
33431SOL     OW 2124  11.602  14.515   0.081
33431SOL    HW1 2125  11.659  14.558   0.018
33431SOL    HW2 2126  11.581  14.431   0.041
33432SOL     OW 2127   9.903   0.844   3.502
33432SOL    HW1 2128   9.860   0.910   3.557
33432SOL    HW2 2129   9.983   0.821   3.550
33433SOL     OW 2130   2.971   2.543  12.320
33433SOL    HW1 2131   2.948   2.467  12.265
33433SOL    HW2 2132   2.891   2.594  12.324
33434SOL     OW 2133   2.410   9.243   1.450
33434SOL    HW1 2134   2.447   9.174   1.505
33434SOL    HW2 2135   2.432   9.216   1.361
33435SOL     OW 2136  11.428  13.864  12.251
33435SOL    HW1 2137  11.347  13.909  12.228
33435SOL    HW2 2138  11.495  13.933  12.251
33436SOL     OW 2139   7.957  13.265   6.086
33436SOL    HW1 2140   7.883  13.220   6.127
33436SOL    HW2 2141   7.955  13.353   6.122
33437SOL     OW 2142  14.271   4.434   0.688
33437SOL    HW1 2143  14.217   4.427   0.610
33437SOL    HW2 2144  14.246   4.519   0.726
33438SOL     OW 2145   7.843   3.106  12.666
33438SOL    HW1 2146   7.852   3.062  12.751
33438SOL    HW2 2147   7.881   3.044  12.603
33439SOL     OW 2148   7.133   0.379   0.639
33439SOL    HW1 2149   7.052   0.368   0.689
33439SOL    HW2 2150   7.203   0.362   0.703
33440SOL     OW 2151   7.101   3.873  14.557
33440SOL    HW1 2152   7.006   3.869  14.562
33440SOL    HW2 2153   7.127   3.785  14.528
33441SOL     OW 2154  14.454   8.431   0.064
33441SOL    HW1 2155  14.523   8.481   0.021
33441SOL    HW2 2156  14.500   8.375   0.127
33442SOL     OW 2157   0.420   6.281   3.805
33442SOL    HW1 2158   0.465   6.219   3.863
33442SOL    HW2 2159   0.460   6.267   3.719
33443SOL     OW 2160   9.409   7.480   0.605
33443SOL    HW1 2161   9.352   7.550   0.574
33443SOL    HW2 2162   9.359   7.400   0.590
33444SOL     OW 2163   3.649  13.787  10.603
33444SOL    HW1 2164   3.625  13.872  10.566
33444SOL    HW2 2165   3.622  13.792  10.695
33445SOL     OW 2166   1.614   5.823   5.025
33445SOL    HW1 2167   1.600   5.910   4.988
33445SOL    HW2 2168   1.688   5.833   5.085
33446SOL     OW 2169  10.372  13.317  11.175
33446SOL    HW1 2170  10.315  13.267  11.233
33446SOL    HW2 2171  10.337  13.406  11.177
33447SOL     OW 2172  13.750  11.480   3.016
33447SOL    HW1 2173  13.720  11.391   3.033
33447SOL    HW2 2174  13.683  11.517   2.959
33448SOL     OW 2175  11.563  10.040  11.466
33448SOL    HW1 2176  11.635   9.977  11.452
33448SOL    HW2 2177  11.547  10.036  11.560
33449SOL     OW 2178  13.850   4.572  10.563
33449SOL    HW1 2179  13.851   4.635  10.635
33449SOL    HW2 2180  13.760   4.574  10.531
33450SOL     OW 2181   3.616   2.549   9.418
33450SOL    HW1 2182   3.580   2.574   9.503
33450SOL    HW2 2183   3.709   2.573   9.423
33451SOL     OW 2184   8.117   6.667  14.727
33451SOL    HW1 2185   8.051   6.737  14.727
33451SOL    HW2 2186   8.075   6.595  14.773
33452SOL     OW 2187   4.493   4.653   0.100
33452SOL    HW1 2188   4.499   4.669   0.006
33452SOL    HW2 2189   4.541   4.571   0.113
33453SOL     OW 2190   2.418  11.640   4.568
33453SOL    HW1 2191   2.422  11.721   4.619
33453SOL    HW2 2192   2.347  11.655   4.505
33454SOL     OW 2193  11.851   6.843   9.294
33454SOL    HW1 2194  11.755   6.842   9.301
33454SOL    HW2 2195  11.874   6.758   9.258
33455SOL     OW 2196   3.132  13.401   1.427
33455SOL    HW1 2197   3.096  13.406   1.516
33455SOL    HW2 2198   3.084  13.467   1.378
33456SOL     OW 2199  14.418   3.087   1.856
33456SOL    HW1 2200  14.487   3.030   1.889
33456SOL    HW2 2201  14.340   3.059   1.903
33457SOL     OW 2202  10.467   5.132  14.651
33457SOL    HW1 2203  10.377   5.162  14.640
33457SOL    HW2 2204  10.459   5.050  14.699
33458SOL     OW 2205   3.755   9.322   3.369
33458SOL    HW1 2206   3.797   9.374   3.300
33458SOL    HW2 2207   3.812   9.332   3.445
33459SOL     OW 2208   3.303   5.668   8.774
33459SOL    HW1 2209   3.312   5.624   8.689
33459SOL    HW2 2210   3.359   5.745   8.767
33460SOL     OW 2211   6.546  10.938  11.437
33460SOL    HW1 2212   6.637  10.948  11.468
33460SOL    HW2 2213   6.541  10.847  11.407
33461SOL     OW 2214   3.253  11.396  10.837
33461SOL    HW1 2215   3.180  11.342  10.869
33461SOL    HW2 2216   3.210  11.475  10.802
33462SOL     OW 2217  12.583  13.702  11.386
33462SOL    HW1 2218  12.553  13.663  11.468
33462SOL    HW2 2219  12.677  13.715  11.400
33463SOL     OW 2220  11.913  13.699   0.012
33463SOL    HW1 2221  11.950  13.652  14.810
33463SOL    HW2 2222  11.878  13.780  14.847
33464SOL     OW 2223  13.236   7.394  13.597
33464SOL    HW1 2224  13.154   7.360  13.632
33464SOL    HW2 2225  13.235   7.487  13.620
33465SOL     OW 2226  11.323   3.451   0.240
33465SOL    HW1 2227  11.246   3.407   0.277
33465SOL    HW2 2228  11.301   3.544   0.244
33466SOL     OW 2229  10.175   1.081   9.945
33466SOL    HW1 2230  10.111   1.013   9.966
33466SOL    HW2 2231  10.149   1.113   9.859
33467SOL     OW 2232  10.465   0.331  12.332
33467SOL    HW1 2233  10.453   0.394  12.261
33467SOL    HW2 2234  10.508   0.381  12.402
33468SOL     OW 2235   1.301   3.406  14.625
33468SOL    HW1 2236   1.394   3.430  14.632
33468SOL    HW2 2237   1.268   3.412  14.714
33469SOL     OW 2238   6.179  12.199  12.971
33469SOL    HW1 2239   6.166  12.278  12.918
33469SOL    HW2 2240   6.270  12.174  12.956
33470SOL     OW 2241  11.215  11.424   7.373
33470SOL    HW1 2242  11.152  11.490   7.405
33470SOL    HW2 2243  11.169  11.341   7.384
33471SOL     OW 2244   2.108   9.235   7.658
33471SOL    HW1 2245   2.187   9.279   7.689
33471SOL    HW2 2246   2.120   9.143   7.681
33472SOL     OW 2247   2.338  11.228  13.963
33472SOL    HW1 2248   2.420  11.178  13.964
33472SOL    HW2 2249   2.270  11.162  13.951
33473SOL     OW 2250   0.350   1.866  13.950
33473SOL    HW1 2251   0.255   1.877  13.949
33473SOL    HW2 2252   0.367   1.813  14.028
33474SOL     OW 2253   7.098   4.300  12.690
33474SOL    HW1 2254   7.038   4.285  12.617
33474SOL    HW2 2255   7.095   4.220  12.741
33475SOL     OW 2256   0.251   8.555  10.853
33475SOL    HW1 2257   0.329   8.503  10.872
33475SOL    HW2 2258   0.177   8.496  10.869
33476SOL     OW 2259   6.898   4.122   4.085
33476SOL    HW1 2260   6.956   4.070   4.030
33476SOL    HW2 2261   6.812   4.081   4.076
33477SOL     OW 2262  12.694  13.980   0.034
33477SOL    HW1 2263  12.632  13.936  14.849
33477SOL    HW2 2264  12.647  13.992   0.117
33478SOL     OW 2265   9.207  11.284  10.360
33478SOL    HW1 2266   9.208  11.370  10.318
33478SOL    HW2 2267   9.139  11.235  10.313
33479SOL     OW 2268   9.415  12.529   8.152
33479SOL    HW1 2269   9.361  12.487   8.219
33479SOL    HW2 2270   9.401  12.623   8.166
33480SOL     OW 2271   8.301   0.059   0.490
33480SOL    HW1 2272   8.338  14.865   0.549
33480SOL    HW2 2273   8.268   0.010   0.416
33481SOL     OW 2274   0.696   3.197   0.637
33481SOL    HW1 2275   0.710   3.264   0.570
33481SOL    HW2 2276   0.611   3.159   0.614
33482SOL     OW 2277   6.692   4.906  13.568
33482SOL    HW1 2278   6.747   4.930  13.642
33482SOL    HW2 2279   6.691   4.810  13.569
33483SOL     OW 2280   7.403   7.594   8.576
33483SOL    HW1 2281   7.434   7.562   8.491
33483SOL    HW2 2282   7.456   7.547   8.640
33484SOL     OW 2283   5.410   6.425  13.520
33484SOL    HW1 2284   5.450   6.424  13.433
33484SOL    HW2 2285   5.329   6.374  13.509
33485SOL     OW 2286   1.624   7.766  12.963
33485SOL    HW1 2287   1.610   7.822  13.040
33485SOL    HW2 2288   1.699   7.712  12.986
33486SOL     OW 2289   5.515   5.913   2.792
33486SOL    HW1 2290   5.542   5.963   2.715
33486SOL    HW2 2291   5.437   5.865   2.764
33487SOL     OW 2292  11.600   2.941  10.090
33487SOL    HW1 2293  11.623   3.012  10.151
33487SOL    HW2 2294  11.525   2.975  10.042
33488SOL     OW 2295   8.656   7.244  12.976
33488SOL    HW1 2296   8.634   7.160  13.015
33488SOL    HW2 2297   8.736   7.227  12.926
33489SOL     OW 2298   4.854   4.466  11.220
33489SOL    HW1 2299   4.795   4.449  11.147
33489SOL    HW2 2300   4.914   4.392  11.220
33490SOL     OW 2301   0.895   1.463   3.821
33490SOL    HW1 2302   0.945   1.460   3.902
33490SOL    HW2 2303   0.932   1.391   3.768
33491SOL     OW 2304   9.310  13.916   6.512
33491SOL    HW1 2305   9.220  13.885   6.499
33491SOL    HW2 2306   9.341  13.867   6.588
33492SOL     OW 2307   9.041   0.565   1.082
33492SOL    HW1 2308   9.085   0.559   1.167
33492SOL    HW2 2309   9.003   0.479   1.068
33493SOL     OW 2310   8.977   4.932   2.719
33493SOL    HW1 2311   9.071   4.939   2.701
33493SOL    HW2 2312   8.968   4.851   2.769
33494SOL     OW 2313  10.377   6.931   8.143
33494SOL    HW1 2314  10.449   6.961   8.087
33494SOL    HW2 2315  10.317   7.005   8.147
33495SOL     OW 2316   8.206   4.055  11.098
33495SOL    HW1 2317   8.268   4.100  11.156
33495SOL    HW2 2318   8.243   3.968  11.085
33496SOL     OW 2319   5.879   4.456  12.294
33496SOL    HW1 2320   5.881   4.435  12.387
33496SOL    HW2 2321   5.788   4.480  12.276
33497SOL     OW 2322   1.062   3.525   0.773
33497SOL    HW1 2323   1.115   3.474   0.712
33497SOL    HW2 2324   1.068   3.477   0.856
33498SOL     OW 2325  11.906   7.276   4.526
33498SOL    HW1 2326  11.977   7.212   4.519
33498SOL    HW2 2327  11.939   7.354   4.480
33499SOL     OW 2328   7.505   4.501   9.792
33499SOL    HW1 2329   7.434   4.512   9.854
33499SOL    HW2 2330   7.528   4.408   9.798
33500SOL     OW 2331   0.265   3.185   8.365
33500SOL    HW1 2332   0.312   3.105   8.343
33500SOL    HW2 2333   0.200   3.196   8.295
33501SOL     OW 2334  11.570   0.826   1.216
33501SOL    HW1 2335  11.634   0.897   1.224
33501SOL    HW2 2336  11.621   0.746   1.224
33502SOL     OW 2337   8.193  13.748   6.038
33502SOL    HW1 2338   8.097  13.748   6.029
33502SOL    HW2 2339   8.208  13.717   6.127
33503SOL     OW 2340  13.219  10.625   7.653
33503SOL    HW1 2341  13.149  10.619   7.589
33503SOL    HW2 2342  13.203  10.554   7.715
33504SOL     OW 2343   0.047   7.635  12.368
33504SOL    HW1 2344  14.849   7.596  12.421
33504SOL    HW2 2345   0.086   7.562  12.321
33505SOL     OW 2346   1.962   4.003   6.312
33505SOL    HW1 2347   1.890   4.066   6.313
33505SOL    HW2 2348   1.999   4.009   6.400
33506SOL     OW 2349  10.079   5.349   2.014
33506SOL    HW1 2350   9.999   5.297   2.009
33506SOL    HW2 2351  10.060   5.415   2.081
33507SOL     OW 2352  10.874  10.045  11.143
33507SOL    HW1 2353  10.951  10.086  11.104
33507SOL    HW2 2354  10.906   9.962  11.179
33508SOL     OW 2355   7.962   6.879   2.814
33508SOL    HW1 2356   7.903   6.905   2.884
33508SOL    HW2 2357   7.908   6.824   2.756
33509SOL     OW 2358   2.946   3.317   8.207
33509SOL    HW1 2359   2.862   3.306   8.251
33509SOL    HW2 2360   3.002   3.358   8.273
33510SOL     OW 2361   1.284  12.478  14.507
33510SOL    HW1 2362   1.282  12.450  14.415
33510SOL    HW2 2363   1.298  12.573  14.503
33511SOL     OW 2364   6.627  12.108   6.285
33511SOL    HW1 2365   6.589  12.085   6.201
33511SOL    HW2 2366   6.552  12.122   6.343
33512SOL     OW 2367   7.720   0.869   2.595
33512SOL    HW1 2368   7.774   0.807   2.546
33512SOL    HW2 2369   7.744   0.856   2.686
33513SOL     OW 2370   5.531  13.428   5.522
33513SOL    HW1 2371   5.446  13.419   5.565
33513SOL    HW2 2372   5.553  13.339   5.494
33514SOL     OW 2373   9.762   1.542   4.234
33514SOL    HW1 2374   9.685   1.531   4.177
33514SOL    HW2 2375   9.776   1.636   4.238
33515SOL     OW 2376   1.538  10.445   8.443
33515SOL    HW1 2377   1.544  10.373   8.380
33515SOL    HW2 2378   1.513  10.521   8.391
33516SOL     OW 2379   0.953  13.477  12.992
33516SOL    HW1 2380   1.001  13.414  12.938
33516SOL    HW2 2381   1.020  13.514  13.050
33517SOL     OW 2382  14.631   1.466   1.333
33517SOL    HW1 2383  14.586   1.394   1.291
33517SOL    HW2 2384  14.605   1.461   1.425
33518SOL     OW 2385   4.578   2.487   2.208
33518SOL    HW1 2386   4.551   2.400   2.235
33518SOL    HW2 2387   4.519   2.509   2.136
33519SOL     OW 2388   2.257   2.007   2.603
33519SOL    HW1 2389   2.250   1.940   2.536
33519SOL    HW2 2390   2.266   1.958   2.685
33520SOL     OW 2391   4.829  13.204  10.525
33520SOL    HW1 2392   4.736  13.185  10.529
33520SOL    HW2 2393   4.869  13.125  10.487
33521SOL     OW 2394   3.790   3.276   0.119
33521SOL    HW1 2395   3.801   3.253   0.212
33521SOL    HW2 2396   3.719   3.340   0.118
33522SOL     OW 2397   5.339   2.888   3.611
33522SOL    HW1 2398   5.384   2.838   3.680
33522SOL    HW2 2399   5.250   2.899   3.644
33523SOL     OW 2400   0.635   7.599  12.079
33523SOL    HW1 2401   0.585   7.597  11.997
33523SOL    HW2 2402   0.606   7.520  12.126
33524SOL     OW 2403  13.574   6.679   9.387
33524SOL    HW1 2404  13.509   6.684   9.317
33524SOL    HW2 2405  13.648   6.730   9.355
33525SOL     OW 2406  11.453   7.055  11.420
33525SOL    HW1 2407  11.412   7.140  11.441
33525SOL    HW2 2408  11.527   7.049  11.480
33526SOL     OW 2409   0.272   2.409   7.840
33526SOL    HW1 2410   0.195   2.374   7.796
33526SOL    HW2 2411   0.241   2.488   7.884
33527SOL     OW 2412   0.753   4.583   2.724
33527SOL    HW1 2413   0.827   4.527   2.748
33527SOL    HW2 2414   0.715   4.608   2.808
33528SOL     OW 2415  14.607   8.859  12.746
33528SOL    HW1 2416  14.542   8.859  12.676
33528SOL    HW2 2417  14.662   8.783  12.726
33529SOL     OW 2418  12.296   4.992   8.055
33529SOL    HW1 2419  12.208   5.008   8.088
33529SOL    HW2 2420  12.352   5.050   8.107
33530SOL     OW 2421   4.363   2.614   0.408
33530SOL    HW1 2422   4.389   2.590   0.497
33530SOL    HW2 2423   4.405   2.698   0.392
33531SOL     OW 2424   6.807   4.770  10.336
33531SOL    HW1 2425   6.808   4.865  10.324
33531SOL    HW2 2426   6.890   4.740  10.300
33532SOL     OW 2427   8.185   6.350   9.766
33532SOL    HW1 2428   8.209   6.291   9.694
33532SOL    HW2 2429   8.238   6.320   9.840
33533SOL     OW 2430   1.417   3.626  12.537
33533SOL    HW1 2431   1.441   3.552  12.593
33533SOL    HW2 2432   1.498   3.674  12.525
33534SOL     OW 2433  13.201   1.802   8.301
33534SOL    HW1 2434  13.157   1.871   8.350
33534SOL    HW2 2435  13.278   1.781   8.353
33535SOL     OW 2436  11.846   1.209   3.440
33535SOL    HW1 2437  11.839   1.304   3.443
33535SOL    HW2 2438  11.848   1.188   3.347
33536SOL     OW 2439   7.230  10.235   2.361
33536SOL    HW1 2440   7.323  10.251   2.374
33536SOL    HW2 2441   7.200  10.197   2.444
33537SOL     OW 2442   5.935   2.490   3.131
33537SOL    HW1 2443   5.936   2.556   3.200
33537SOL    HW2 2444   5.931   2.540   3.049
33538SOL     OW 2445   3.774  14.774   9.583
33538SOL    HW1 2446   3.708  14.706   9.598
33538SOL    HW2 2447   3.730  14.837   9.525
33539SOL     OW 2448  12.420   7.406  13.632
33539SOL    HW1 2449  12.376   7.357  13.563
33539SOL    HW2 2450  12.493   7.449  13.587
33540SOL     OW 2451   4.376  13.854   1.848
33540SOL    HW1 2452   4.336  13.927   1.896
33540SOL    HW2 2453   4.332  13.853   1.763
33541SOL     OW 2454   5.468   1.266   2.990
33541SOL    HW1 2455   5.551   1.270   3.037
33541SOL    HW2 2456   5.465   1.178   2.953
33542SOL     OW 2457   7.662   3.608   3.855
33542SOL    HW1 2458   7.644   3.701   3.871
33542SOL    HW2 2459   7.743   3.608   3.804
33543SOL     OW 2460  10.423   9.024  12.027
33543SOL    HW1 2461  10.518   9.014  12.035
33543SOL    HW2 2462  10.388   8.986  12.108
33544SOL     OW 2463   1.948  10.529   7.893
33544SOL    HW1 2464   1.988  10.476   7.962
33544SOL    HW2 2465   1.964  10.619   7.920
33545SOL     OW 2466   2.410   8.170   9.733
33545SOL    HW1 2467   2.496   8.135   9.710
33545SOL    HW2 2468   2.429   8.235   9.801
33546SOL     OW 2469   6.391   1.795   1.689
33546SOL    HW1 2470   6.343   1.865   1.645
33546SOL    HW2 2471   6.478   1.795   1.648
33547SOL     OW 2472   9.304   1.349   6.803
33547SOL    HW1 2473   9.213   1.376   6.792
33547SOL    HW2 2474   9.355   1.428   6.789
33548SOL     OW 2475   5.007   8.300  13.156
33548SOL    HW1 2476   5.058   8.279  13.078
33548SOL    HW2 2477   4.916   8.281  13.132
33549SOL     OW 2478  11.548  13.688  12.042
33549SOL    HW1 2479  11.606  13.621  12.080
33549SOL    HW2 2480  11.571  13.768  12.088
33550SOL     OW 2481  10.017   2.117   0.538
33550SOL    HW1 2482   9.955   2.143   0.606
33550SOL    HW2 2483   9.998   2.025   0.520
33551SOL     OW 2484   7.427   4.418  13.458
33551SOL    HW1 2485   7.428   4.476  13.382
33551SOL    HW2 2486   7.513   4.376  13.458
33552SOL     OW 2487   0.334   0.949  12.267
33552SOL    HW1 2488   0.271   1.018  12.289
33552SOL    HW2 2489   0.386   0.986  12.196
33553SOL     OW 2490  12.778  11.323   0.819
33553SOL    HW1 2491  12.872  11.324   0.802
33553SOL    HW2 2492  12.740  11.278   0.744
33554SOL     OW 2493   5.850  11.975   3.327
33554SOL    HW1 2494   5.784  12.006   3.265
33554SOL    HW2 2495   5.929  12.024   3.304
33555SOL     OW 2496  13.195  14.009   7.692
33555SOL    HW1 2497  13.195  13.999   7.597
33555SOL    HW2 2498  13.116  13.963   7.721
33556SOL     OW 2499   9.116   2.086   6.032
33556SOL    HW1 2500   9.069   2.169   6.030
33556SOL    HW2 2501   9.134   2.066   5.940
33557SOL     OW 2502  13.350  10.809   4.069
33557SOL    HW1 2503  13.406  10.838   4.141
33557SOL    HW2 2504  13.399  10.832   3.990
33558SOL     OW 2505  13.456   2.764   2.758
33558SOL    HW1 2506  13.545   2.732   2.773
33558SOL    HW2 2507  13.418   2.701   2.697
33559SOL     OW 2508   8.700   1.897   6.781
33559SOL    HW1 2509   8.754   1.952   6.838
33559SOL    HW2 2510   8.711   1.936   6.694
33560SOL     OW 2511  10.271   3.710  11.235
33560SOL    HW1 2512  10.274   3.798  11.273
33560SOL    HW2 2513  10.349   3.667  11.271
33561SOL     OW 2514   1.685   6.406  13.917
33561SOL    HW1 2515   1.764   6.444  13.956
33561SOL    HW2 2516   1.699   6.311  13.920
33562SOL     OW 2517   6.942   1.872   7.086
33562SOL    HW1 2518   6.870   1.815   7.059
33562SOL    HW2 2519   6.911   1.912   7.167
33563SOL     OW 2520   9.500   1.085   8.837
33563SOL    HW1 2521   9.500   1.031   8.758
33563SOL    HW2 2522   9.417   1.132   8.834
33564SOL     OW 2523   5.151   9.019   5.060
33564SOL    HW1 2524   5.242   9.037   5.085
33564SOL    HW2 2525   5.132   8.933   5.096
33565SOL     OW 2526  11.505   1.103   7.518
33565SOL    HW1 2527  11.463   1.150   7.591
33565SOL    HW2 2528  11.589   1.075   7.553
33566SOL     OW 2529  12.337   5.066   6.686
33566SOL    HW1 2530  12.403   5.126   6.653
33566SOL    HW2 2531  12.386   4.989   6.714
33567SOL     OW 2532   3.972  10.881  14.373
33567SOL    HW1 2533   4.008  10.855  14.458
33567SOL    HW2 2534   4.022  10.831  14.309
33568SOL     OW 2535   1.286   0.979   4.689
33568SOL    HW1 2536   1.295   1.073   4.702
33568SOL    HW2 2537   1.194   0.960   4.712
33569SOL     OW 2538   2.942   4.544   6.996
33569SOL    HW1 2539   2.884   4.471   6.974
33569SOL    HW2 2540   3.002   4.508   7.062
33570SOL     OW 2541   8.131   3.809   8.068
33570SOL    HW1 2542   8.210   3.815   8.122
33570SOL    HW2 2543   8.061   3.794   8.131
33571SOL     OW 2544   6.112   8.608   2.802
33571SOL    HW1 2545   6.127   8.617   2.896
33571SOL    HW2 2546   6.188   8.560   2.769
33572SOL     OW 2547   5.468   0.876  10.749
33572SOL    HW1 2548   5.482   0.801  10.692
33572SOL    HW2 2549   5.512   0.949  10.704
33573SOL     OW 2550   3.585   9.703   1.497
33573SOL    HW1 2551   3.631   9.779   1.463
33573SOL    HW2 2552   3.599   9.707   1.592
33574SOL     OW 2553  12.514  12.521  11.388
33574SOL    HW1 2554  12.498  12.604  11.344
33574SOL    HW2 2555  12.606  12.524  11.413
33575SOL     OW 2556   4.606  13.200   9.379
33575SOL    HW1 2557   4.664  13.258   9.428
33575SOL    HW2 2558   4.615  13.115   9.423
33576SOL     OW 2559   8.040   4.739   7.895
33576SOL    HW1 2560   8.038   4.815   7.836
33576SOL    HW2 2561   7.948   4.728   7.921
33577SOL     OW 2562  12.374   1.706  10.415
33577SOL    HW1 2563  12.360   1.633  10.475
33577SOL    HW2 2564  12.435   1.763  10.461
33578SOL     OW 2565   8.195   8.053   5.592
33578SOL    HW1 2566   8.231   8.112   5.526
33578SOL    HW2 2567   8.159   7.980   5.542
33579SOL     OW 2568   4.320   0.137   7.133
33579SOL    HW1 2569   4.252   0.160   7.195
33579SOL    HW2 2570   4.323   0.210   7.071
33580SOL     OW 2571   3.288  11.455  11.523
33580SOL    HW1 2572   3.362  11.395  11.516
33580SOL    HW2 2573   3.319  11.524  11.582
33581SOL     OW 2574   6.872   9.414   3.445
33581SOL    HW1 2575   6.834   9.357   3.512
33581SOL    HW2 2576   6.956   9.373   3.423
33582SOL     OW 2577  10.784   1.787   7.814
33582SOL    HW1 2578  10.856   1.804   7.875
33582SOL    HW2 2579  10.741   1.708   7.848
33583SOL     OW 2580   6.817  11.344   4.842
33583SOL    HW1 2581   6.810  11.255   4.878
33583SOL    HW2 2582   6.772  11.339   4.758
33584SOL     OW 2583   9.163   1.012   1.234
33584SOL    HW1 2584   9.204   1.060   1.162
33584SOL    HW2 2585   9.151   1.077   1.303
33585SOL     OW 2586   0.760   2.060   9.975
33585SOL    HW1 2587   0.739   2.094   9.888
33585SOL    HW2 2588   0.735   1.968   9.971
33586SOL     OW 2589   3.895  11.784   4.813
33586SOL    HW1 2590   3.925  11.711   4.759
33586SOL    HW2 2591   3.975  11.818   4.854
33587SOL     OW 2592   7.977   5.532   8.674
33587SOL    HW1 2593   8.073   5.525   8.672
33587SOL    HW2 2594   7.961   5.620   8.709
33588SOL     OW 2595   9.233   5.621  10.404
33588SOL    HW1 2596   9.310   5.622  10.461
33588SOL    HW2 2597   9.243   5.540  10.353
33589SOL     OW 2598   3.764  13.819   3.662
33589SOL    HW1 2599   3.678  13.815   3.621
33589SOL    HW2 2600   3.826  13.830   3.590
33590SOL     OW 2601  12.596  13.932  13.955
33590SOL    HW1 2602  12.564  13.841  13.953
33590SOL    HW2 2603  12.608  13.951  14.048
33591SOL     OW 2604   6.557   8.620   7.113
33591SOL    HW1 2605   6.622   8.651   7.176
33591SOL    HW2 2606   6.584   8.660   7.030
33592SOL     OW 2607  12.499   2.498   1.250
33592SOL    HW1 2608  12.466   2.548   1.175
33592SOL    HW2 2609  12.444   2.525   1.324
33593SOL     OW 2610  11.070  12.184   0.846
33593SOL    HW1 2611  11.105  12.262   0.802
33593SOL    HW2 2612  10.977  12.204   0.860
33594SOL     OW 2613  13.374   0.469  11.970
33594SOL    HW1 2614  13.414   0.536  12.024
33594SOL    HW2 2615  13.413   0.481  11.883
33595SOL     OW 2616  10.798  14.856   2.727
33595SOL    HW1 2617  10.733   0.030   2.674
33595SOL    HW2 2618  10.867  14.833   2.665
33596SOL     OW 2619   1.723   7.374  10.060
33596SOL    HW1 2620   1.697   7.466  10.066
33596SOL    HW2 2621   1.811   7.372  10.097
33597SOL     OW 2622   7.041   4.122   9.865
33597SOL    HW1 2623   6.984   4.198   9.852
33597SOL    HW2 2624   7.087   4.111   9.782
33598SOL     OW 2625   3.056  10.811  13.263
33598SOL    HW1 2626   3.141  10.791  13.302
33598SOL    HW2 2627   2.992  10.768  13.320
33599SOL     OW 2628   1.106   8.435   9.622
33599SOL    HW1 2629   1.080   8.432   9.530
33599SOL    HW2 2630   1.088   8.525   9.649
33600SOL     OW 2631  12.273   9.037   4.004
33600SOL    HW1 2632  12.315   9.120   4.030
33600SOL    HW2 2633  12.180   9.054   4.012
33601SOL     OW 2634   2.010   7.700   2.391
33601SOL    HW1 2635   1.922   7.721   2.421
33601SOL    HW2 2636   2.013   7.732   2.300
33602SOL     OW 2637   4.916   1.685   8.958
33602SOL    HW1 2638   5.009   1.675   8.936
33602SOL    HW2 2639   4.901   1.623   9.029
33603SOL     OW 2640   7.762   3.867   1.176
33603SOL    HW1 2641   7.709   3.787   1.183
33603SOL    HW2 2642   7.702   3.937   1.200
33604SOL     OW 2643   0.205  11.572   3.008
33604SOL    HW1 2644   0.263  11.506   2.970
33604SOL    HW2 2645   0.120  11.529   3.013
33605SOL     OW 2646   7.882   0.890   4.096
33605SOL    HW1 2647   7.974   0.868   4.083
33605SOL    HW2 2648   7.848   0.817   4.148
33606SOL     OW 2649  11.503  10.219   1.689
33606SOL    HW1 2650  11.408  10.228   1.684
33606SOL    HW2 2651  11.537  10.290   1.635
33607SOL     OW 2652  11.229   3.228   4.458
33607SOL    HW1 2653  11.149   3.185   4.427
33607SOL    HW2 2654  11.286   3.230   4.381
33608SOL     OW 2655   0.542   6.667   6.117
33608SOL    HW1 2656   0.637   6.675   6.128
33608SOL    HW2 2657   0.508   6.670   6.206
33609SOL     OW 2658   5.225  10.024   7.807
33609SOL    HW1 2659   5.254   9.961   7.873
33609SOL    HW2 2660   5.305  10.073   7.784
33610SOL     OW 2661   5.320   6.523  11.250
33610SOL    HW1 2662   5.317   6.611  11.212
33610SOL    HW2 2663   5.379   6.532  11.325
33611SOL     OW 2664   2.054   1.501  11.001
33611SOL    HW1 2665   2.013   1.579  10.964
33611SOL    HW2 2666   2.136   1.532  11.038
33612SOL     OW 2667   5.498   4.078   2.338
33612SOL    HW1 2668   5.463   4.020   2.406
33612SOL    HW2 2669   5.464   4.164   2.361
33613SOL     OW 2670   7.673  11.628   4.145
33613SOL    HW1 2671   7.602  11.581   4.189
33613SOL    HW2 2672   7.742  11.562   4.135
33614SOL     OW 2673   7.385  12.196   1.605
33614SOL    HW1 2674   7.380  12.192   1.509
33614SOL    HW2 2675   7.474  12.171   1.626
33615SOL     OW 2676  12.960  13.329   9.644
33615SOL    HW1 2677  12.974  13.272   9.569
33615SOL    HW2 2678  13.032  13.309   9.704
33616SOL     OW 2679   8.020   0.798  14.783
33616SOL    HW1 2680   8.107   0.789  14.822
33616SOL    HW2 2681   7.963   0.820  14.857
33617SOL     OW 2682   9.492   8.242  14.594
33617SOL    HW1 2683   9.474   8.249  14.500
33617SOL    HW2 2684   9.579   8.201  14.599
33618SOL     OW 2685   7.307   0.095   6.221
33618SOL    HW1 2686   7.263   0.148   6.287
33618SOL    HW2 2687   7.240   0.079   6.154
33619SOL     OW 2688   4.964   1.410  11.159
33619SOL    HW1 2689   4.966   1.328  11.208
33619SOL    HW2 2690   4.871   1.432  11.152
33620SOL     OW 2691  10.834   4.547  10.909
33620SOL    HW1 2692  10.845   4.582  10.821
33620SOL    HW2 2693  10.862   4.618  10.967
33621SOL     OW 2694   0.736   0.260   7.702
33621SOL    HW1 2695   0.773   0.186   7.750
33621SOL    HW2 2696   0.723   0.227   7.613
33622SOL     OW 2697  10.097  13.824  10.914
33622SOL    HW1 2698  10.090  13.731  10.934
33622SOL    HW2 2699  10.184  13.832  10.873
33623SOL     OW 2700   7.407   0.390   3.541
33623SOL    HW1 2701   7.473   0.321   3.553
33623SOL    HW2 2702   7.450   0.454   3.485
33624SOL     OW 2703   0.938   9.620   3.085
33624SOL    HW1 2704   0.962   9.592   2.997
33624SOL    HW2 2705   1.012   9.673   3.115
33625SOL     OW 2706   4.943   7.050   1.794
33625SOL    HW1 2707   4.921   7.125   1.849
33625SOL    HW2 2708   5.035   7.033   1.814
33626SOL     OW 2709   4.732   0.561  11.756
33626SOL    HW1 2710   4.819   0.592  11.782
33626SOL    HW2 2711   4.728   0.578  11.661
33627SOL     OW 2712   3.827   6.070   5.759
33627SOL    HW1 2713   3.737   6.053   5.786
33627SOL    HW2 2714   3.881   6.026   5.825
33628SOL     OW 2715   9.410   4.148   7.089
33628SOL    HW1 2716   9.468   4.215   7.054
33628SOL    HW2 2717   9.360   4.118   7.013
33629SOL     OW 2718  14.313   9.622  11.448
33629SOL    HW1 2719  14.320   9.617  11.353
33629SOL    HW2 2720  14.247   9.557  11.470
33630SOL     OW 2721   4.408   1.197   2.737
33630SOL    HW1 2722   4.329   1.209   2.684
33630SOL    HW2 2723   4.476   1.178   2.673
33631SOL     OW 2724   7.792   6.614  10.876
33631SOL    HW1 2725   7.742   6.534  10.892
33631SOL    HW2 2726   7.883   6.585  10.873
33632SOL     OW 2727  13.896  14.084   5.194
33632SOL    HW1 2728  13.854  14.094   5.109
33632SOL    HW2 2729  13.878  14.167   5.239
33633SOL     OW 2730   4.249   0.568   8.996
33633SOL    HW1 2731   4.294   0.513   8.932
33633SOL    HW2 2732   4.303   0.563   9.075
33634SOL     OW 2733   5.692   0.105   3.132
33634SOL    HW1 2734   5.770   0.101   3.188
33634SOL    HW2 2735   5.692   0.021   3.085
33635SOL     OW 2736   7.896   6.624   0.294
33635SOL    HW1 2737   7.858   6.706   0.325
33635SOL    HW2 2738   7.878   6.562   0.364
33636SOL     OW 2739   0.516   9.184   8.318
33636SOL    HW1 2740   0.596   9.133   8.317
33636SOL    HW2 2741   0.447   9.121   8.340
33637SOL     OW 2742   8.140  14.161   2.669
33637SOL    HW1 2743   8.126  14.183   2.761
33637SOL    HW2 2744   8.165  14.068   2.670
33638SOL     OW 2745   2.911  14.399   7.885
33638SOL    HW1 2746   2.843  14.436   7.829
33638SOL    HW2 2747   2.868  14.384   7.969
33639SOL     OW 2748   4.042  11.188   0.067
33639SOL    HW1 2749   3.988  11.177   0.146
33639SOL    HW2 2750   4.132  11.174   0.098
33640SOL     OW 2751   4.227   4.169   1.795
33640SOL    HW1 2752   4.150   4.148   1.848
33640SOL    HW2 2753   4.223   4.107   1.722
33641SOL     OW 2754  13.801   9.249  11.119
33641SOL    HW1 2755  13.809   9.257  11.024
33641SOL    HW2 2756  13.751   9.169  11.132
33642SOL     OW 2757  11.705   2.998   3.552
33642SOL    HW1 2758  11.783   2.972   3.502
33642SOL    HW2 2759  11.663   3.064   3.497
33643SOL     OW 2760  14.520   6.476   2.116
33643SOL    HW1 2761  14.539   6.520   2.199
33643SOL    HW2 2762  14.432   6.506   2.092
33644SOL     OW 2763   1.739   3.338  12.213
33644SOL    HW1 2764   1.722   3.252  12.175
33644SOL    HW2 2765   1.690   3.338  12.295
33645SOL     OW 2766  11.175   2.187   8.796
33645SOL    HW1 2767  11.233   2.179   8.720
33645SOL    HW2 2768  11.107   2.248   8.768
33646SOL     OW 2769   8.259  13.882   2.763
33646SOL    HW1 2770   8.275  13.837   2.680
33646SOL    HW2 2771   8.336  13.863   2.816
33647SOL     OW 2772  10.628   7.201   4.696
33647SOL    HW1 2773  10.695   7.200   4.764
33647SOL    HW2 2774  10.661   7.141   4.629
33648SOL     OW 2775   0.816   6.729   9.684
33648SOL    HW1 2776   0.731   6.691   9.706
33648SOL    HW2 2777   0.845   6.679   9.608
33649SOL     OW 2778  13.245   3.447   9.668
33649SOL    HW1 2779  13.234   3.510   9.739
33649SOL    HW2 2780  13.270   3.500   9.592
33650SOL     OW 2781   9.399   8.335   5.478
33650SOL    HW1 2782   9.439   8.409   5.433
33650SOL    HW2 2783   9.465   8.306   5.541
33651SOL     OW 2784  11.676   2.568   9.185
33651SOL    HW1 2785  11.606   2.628   9.211
33651SOL    HW2 2786  11.698   2.520   9.265
33652SOL     OW 2787  13.554  10.985   0.084
33652SOL    HW1 2788  13.471  10.938   0.082
33652SOL    HW2 2789  13.541  11.059   0.025
33653SOL     OW 2790  12.033   7.870   2.320
33653SOL    HW1 2791  12.032   7.872   2.416
33653SOL    HW2 2792  12.108   7.815   2.298
33654SOL     OW 2793  10.733   5.553   5.296
33654SOL    HW1 2794  10.641   5.566   5.314
33654SOL    HW2 2795  10.760   5.631   5.247
33655SOL     OW 2796   0.569   8.235  11.742
33655SOL    HW1 2797   0.600   8.290  11.670
33655SOL    HW2 2798   0.476   8.225  11.726
33656SOL     OW 2799   7.470  14.834   1.024
33656SOL    HW1 2800   7.433  14.779   1.093
33656SOL    HW2 2801   7.406   0.032   1.012
33657SOL     OW 2802   9.933   3.779  13.725
33657SOL    HW1 2803   9.857   3.720  13.724
33657SOL    HW2 2804   9.930   3.822  13.640
33658SOL     OW 2805   5.426   2.842   9.211
33658SOL    HW1 2806   5.332   2.853   9.200
33658SOL    HW2 2807   5.439   2.843   9.306
33659SOL     OW 2808  13.406   1.754  11.380
33659SOL    HW1 2809  13.432   1.845  11.394
33659SOL    HW2 2810  13.421   1.711  11.464
33660SOL     OW 2811   2.474   7.439   3.917
33660SOL    HW1 2812   2.455   7.442   4.011
33660SOL    HW2 2813   2.502   7.349   3.901
33661SOL     OW 2814  11.769   2.326   7.845
33661SOL    HW1 2815  11.846   2.292   7.891
33661SOL    HW2 2816  11.718   2.248   7.823
33662SOL     OW 2817   3.760  10.166  10.094
33662SOL    HW1 2818   3.827  10.233  10.105
33662SOL    HW2 2819   3.702  10.200  10.026
33663SOL     OW 2820  13.257  13.300   1.334
33663SOL    HW1 2821  13.329  13.330   1.390
33663SOL    HW2 2822  13.232  13.215   1.370
33664SOL     OW 2823   9.113   9.740   8.747
33664SOL    HW1 2824   9.130   9.777   8.834
33664SOL    HW2 2825   9.027   9.700   8.754
33665SOL     OW 2826   3.413  11.263  11.276
33665SOL    HW1 2827   3.380  11.328  11.214
33665SOL    HW2 2828   3.336  11.236  11.326
33666SOL     OW 2829   3.043  12.644   1.729
33666SOL    HW1 2830   3.022  12.727   1.687
33666SOL    HW2 2831   3.050  12.665   1.822
33667SOL     OW 2832  13.633   2.819   7.299
33667SOL    HW1 2833  13.602   2.822   7.208
33667SOL    HW2 2834  13.597   2.899   7.339
33668SOL     OW 2835  12.280  11.715   3.396
33668SOL    HW1 2836  12.325  11.800   3.402
33668SOL    HW2 2837  12.344  11.657   3.354
33669SOL     OW 2838   1.022   7.619  12.427
33669SOL    HW1 2839   1.089   7.685  12.414
33669SOL    HW2 2840   0.951   7.644  12.367
33670SOL     OW 2841   4.129   2.397  12.752
33670SOL    HW1 2842   4.217   2.361  12.764
33670SOL    HW2 2843   4.078   2.363  12.825
33671SOL     OW 2844   4.491   0.568  13.426
33671SOL    HW1 2845   4.493   0.508  13.500
33671SOL    HW2 2846   4.469   0.513  13.351
33672SOL     OW 2847  14.199   5.874   0.803
33672SOL    HW1 2848  14.211   5.791   0.758
33672SOL    HW2 2849  14.222   5.856   0.894
33673SOL     OW 2850   3.543   8.594   2.393
33673SOL    HW1 2851   3.510   8.529   2.455
33673SOL    HW2 2852   3.602   8.648   2.445
33674SOL     OW 2853   1.822   6.151  11.734
33674SOL    HW1 2854   1.819   6.180  11.643
33674SOL    HW2 2855   1.877   6.073  11.733
33675SOL     OW 2856  11.916   6.123   1.383
33675SOL    HW1 2857  11.829   6.133   1.343
33675SOL    HW2 2858  11.944   6.212   1.402
33676SOL     OW 2859  10.134   2.523  11.942
33676SOL    HW1 2860  10.216   2.536  11.896
33676SOL    HW2 2861  10.145   2.569  12.025
33677SOL     OW 2862  13.783  14.309   5.324
33677SOL    HW1 2863  13.702  14.289   5.278
33677SOL    HW2 2864  13.758  14.374   5.389
33678SOL     OW 2865   1.057  10.782   1.345
33678SOL    HW1 2866   1.050  10.686   1.352
33678SOL    HW2 2867   1.148  10.798   1.322
33679SOL     OW 2868   7.574   0.158  12.060
33679SOL    HW1 2869   7.586   0.145  12.154
33679SOL    HW2 2870   7.533   0.077  12.030
33680SOL     OW 2871   2.166   6.561  11.204
33680SOL    HW1 2872   2.236   6.570  11.139
33680SOL    HW2 2873   2.200   6.606  11.282
33681SOL     OW 2874   2.784   2.756   9.243
33681SOL    HW1 2875   2.823   2.768   9.329
33681SOL    HW2 2876   2.842   2.804   9.183
33682SOL     OW 2877  11.734  10.070   4.335
33682SOL    HW1 2878  11.744   9.979   4.306
33682SOL    HW2 2879  11.814  10.113   4.304
33683SOL     OW 2880   3.618   1.784   6.106
33683SOL    HW1 2881   3.655   1.785   6.194
33683SOL    HW2 2882   3.632   1.695   6.075
33684SOL     OW 2883   4.687  13.033   2.372
33684SOL    HW1 2884   4.678  13.052   2.465
33684SOL    HW2 2885   4.719  13.115   2.334
33685SOL     OW 2886  10.095   4.283   9.993
33685SOL    HW1 2887  10.155   4.340  10.041
33685SOL    HW2 2888  10.015   4.283  10.046
33686SOL     OW 2889   5.830   5.260   0.929
33686SOL    HW1 2890   5.811   5.182   0.878
33686SOL    HW2 2891   5.744   5.293   0.956
33687SOL     OW 2892   4.812   8.620   4.954
33687SOL    HW1 2893   4.769   8.685   5.009
33687SOL    HW2 2894   4.882   8.669   4.909
33688SOL     OW 2895   0.467   8.222  14.364
33688SOL    HW1 2896   0.454   8.289  14.297
33688SOL    HW2 2897   0.531   8.259  14.424
33689SOL     OW 2898   2.034   7.992   5.103
33689SOL    HW1 2899   1.955   7.962   5.060
33689SOL    HW2 2900   2.098   8.004   5.033
33690SOL     OW 2901   1.864  10.975  10.068
33690SOL    HW1 2902   1.944  10.924  10.053
33690SOL    HW2 2903   1.896  11.065  10.077
33691SOL     OW 2904   4.835   2.399   4.260
33691SOL    HW1 2905   4.920   2.389   4.305
33691SOL    HW2 2906   4.858   2.437   4.176
33692SOL     OW 2907   3.193   3.316   3.913
33692SOL    HW1 2908   3.212   3.222   3.916
33692SOL    HW2 2909   3.277   3.357   3.891
33693SOL     OW 2910  12.178  12.033   8.466
33693SOL    HW1 2911  12.140  11.949   8.441
33693SOL    HW2 2912  12.195  12.024   8.560
33694SOL     OW 2913  10.508   3.377   6.098
33694SOL    HW1 2914  10.515   3.371   6.002
33694SOL    HW2 2915  10.577   3.318   6.130
33695SOL     OW 2916   0.694  13.560   3.072
33695SOL    HW1 2917   0.773  13.612   3.059
33695SOL    HW2 2918   0.624  13.613   3.032
33696SOL     OW 2919   6.846  14.082   0.618
33696SOL    HW1 2920   6.842  13.995   0.657
33696SOL    HW2 2921   6.843  14.142   0.692
33697SOL     OW 2922  10.976   7.536   6.302
33697SOL    HW1 2923  10.942   7.447   6.293
33697SOL    HW2 2924  10.899   7.592   6.288
33698SOL     OW 2925   4.654   3.588   5.790
33698SOL    HW1 2926   4.677   3.662   5.734
33698SOL    HW2 2927   4.735   3.565   5.835
33699SOL     OW 2928  12.429   8.008   3.790
33699SOL    HW1 2929  12.343   7.968   3.787
33699SOL    HW2 2930  12.414   8.094   3.829
33700SOL     OW 2931  11.581  12.515  12.963
33700SOL    HW1 2932  11.634  12.495  12.886
33700SOL    HW2 2933  11.593  12.441  13.022
33701SOL     OW 2934  11.661   0.750  13.622
33701SOL    HW1 2935  11.680   0.798  13.703
33701SOL    HW2 2936  11.630   0.816  13.561
33702SOL     OW 2937   7.069   1.174  14.370
33702SOL    HW1 2938   7.145   1.160  14.314
33702SOL    HW2 2939   7.055   1.091  14.414
33703SOL     OW 2940  14.862   4.632   4.765
33703SOL    HW1 2941  14.867   4.539   4.741
33703SOL    HW2 2942   0.080   4.656   4.786
33704SOL     OW 2943   2.157   5.604   9.892
33704SOL    HW1 2944   2.137   5.563   9.976
33704SOL    HW2 2945   2.075   5.597   9.842
33705SOL     OW 2946   7.749   1.624   6.494
33705SOL    HW1 2947   7.827   1.578   6.464
33705SOL    HW2 2948   7.720   1.574   6.570
33706SOL     OW 2949   0.862  11.018   4.488
33706SOL    HW1 2950   0.948  11.013   4.529
33706SOL    HW2 2951   0.800  11.009   4.560
33707SOL     OW 2952   1.522  10.795   9.461
33707SOL    HW1 2953   1.501  10.712   9.504
33707SOL    HW2 2954   1.437  10.837   9.449
33708SOL     OW 2955   7.144  13.195  14.786
33708SOL    HW1 2956   7.187  13.277  14.762
33708SOL    HW2 2957   7.194  13.128  14.740
33709SOL     OW 2958   0.294   6.040  10.393
33709SOL    HW1 2959   0.262   6.004  10.310
33709SOL    HW2 2960   0.371   6.091  10.369
33710SOL     OW 2961   3.635   6.106   1.732
33710SOL    HW1 2962   3.575   6.180   1.738
33710SOL    HW2 2963   3.712   6.140   1.687
33711SOL     OW 2964  12.248  10.656  14.770
33711SOL    HW1 2965  12.275  10.727  14.828
33711SOL    HW2 2966  12.154  10.669  14.759
33712SOL     OW 2967   8.077   1.193  14.827
33712SOL    HW1 2968   8.163   1.176  14.788
33712SOL    HW2 2969   8.071   1.130   0.027
33713SOL     OW 2970  13.776   1.847   4.269
33713SOL    HW1 2971  13.701   1.800   4.233
33713SOL    HW2 2972  13.748   1.871   4.357
33714SOL     OW 2973   1.614   4.293  14.388
33714SOL    HW1 2974   1.630   4.271  14.479
33714SOL    HW2 2975   1.626   4.388  14.384
33715SOL     OW 2976   4.501   3.471   3.891
33715SOL    HW1 2977   4.556   3.537   3.848
33715SOL    HW2 2978   4.441   3.441   3.823
33716SOL     OW 2979   3.142   2.578  12.755
33716SOL    HW1 2980   3.058   2.531  12.755
33716SOL    HW2 2981   3.122   2.662  12.714
33717SOL     OW 2982  13.820  11.235   8.506
33717SOL    HW1 2983  13.908  11.221   8.542
33717SOL    HW2 2984  13.799  11.154   8.460
33718SOL     OW 2985   5.185   6.336   7.046
33718SOL    HW1 2986   5.240   6.355   7.122
33718SOL    HW2 2987   5.112   6.286   7.081
33719SOL     OW 2988   4.477   1.526   2.172
33719SOL    HW1 2989   4.430   1.606   2.146
33719SOL    HW2 2990   4.531   1.554   2.246
33720SOL     OW 2991   6.322   4.750   1.956
33720SOL    HW1 2992   6.298   4.750   2.049
33720SOL    HW2 2993   6.259   4.691   1.915
33721SOL     OW 2994  12.815   5.329   6.634
33721SOL    HW1 2995  12.739   5.276   6.653
33721SOL    HW2 2996  12.875   5.313   6.708
33722SOL     OW 2997   6.769   4.494  11.768
33722SOL    HW1 2998   6.756   4.536  11.683
33722SOL    HW2 2999   6.864   4.481  11.774
33723SOL     OW 3000   8.646   5.542   8.181
33723SOL    HW1 3001   8.559   5.561   8.216
33723SOL    HW2 3002   8.649   5.591   8.099
33724SOL     OW 3003   7.985  10.752  14.737
33724SOL    HW1 3004   7.923  10.817  14.770
33724SOL    HW2 3005   8.070  10.780  14.772
33725SOL     OW 3006  12.959   2.001   9.828
33725SOL    HW1 3007  13.042   1.956   9.841
33725SOL    HW2 3008  12.893   1.940   9.863
33726SOL     OW 3009  13.522  11.047  14.611
33726SOL    HW1 3010  13.494  10.955  14.620
33726SOL    HW2 3011  13.551  11.054  14.520
33727SOL     OW 3012   9.503   9.215   1.759
33727SOL    HW1 3013   9.441   9.145   1.737
33727SOL    HW2 3014   9.585   9.187   1.719
33728SOL     OW 3015   3.422   7.519   4.058
33728SOL    HW1 3016   3.363   7.532   3.984
33728SOL    HW2 3017   3.387   7.443   4.104
33729SOL     OW 3018   3.311   2.075   4.467
33729SOL    HW1 3019   3.325   1.981   4.461
33729SOL    HW2 3020   3.226   2.084   4.512
33730SOL     OW 3021   4.687   2.698   5.354
33730SOL    HW1 3022   4.627   2.630   5.384
33730SOL    HW2 3023   4.633   2.777   5.347
33731SOL     OW 3024  12.169  11.356   1.114
33731SOL    HW1 3025  12.241  11.334   1.055
33731SOL    HW2 3026  12.164  11.451   1.112
33732SOL     OW 3027   2.418   8.657  11.825
33732SOL    HW1 3028   2.438   8.638  11.733
33732SOL    HW2 3029   2.328   8.691  11.823
33733SOL     OW 3030  10.027  13.788   2.836
33733SOL    HW1 3031   9.956  13.729   2.859
33733SOL    HW2 3032  10.103  13.755   2.885
33734SOL     OW 3033  11.088   0.996   1.255
33734SOL    HW1 3034  11.088   1.043   1.172
33734SOL    HW2 3035  11.148   0.923   1.242
33735SOL     OW 3036  12.459   8.876  12.386
33735SOL    HW1 3037  12.433   8.965  12.412
33735SOL    HW2 3038  12.458   8.827  12.468
33736SOL     OW 3039  10.235   8.360  12.995
33736SOL    HW1 3040  10.294   8.351  12.920
33736SOL    HW2 3041  10.163   8.300  12.977
33737SOL     OW 3042   8.356  10.793   6.993
33737SOL    HW1 3043   8.361  10.698   7.007
33737SOL    HW2 3044   8.394  10.806   6.906
33738SOL     OW 3045   2.721   1.574  11.061
33738SOL    HW1 3046   2.675   1.601  11.140
33738SOL    HW2 3047   2.799   1.629  11.058
33739SOL     OW 3048   8.621   4.038   5.183
33739SOL    HW1 3049   8.535   4.064   5.150
33739SOL    HW2 3050   8.603   3.966   5.243
33740SOL     OW 3051   2.745   2.596   3.449
33740SOL    HW1 3052   2.798   2.676   3.454
33740SOL    HW2 3053   2.655   2.626   3.465
33741SOL     OW 3054  12.414  13.116   3.408
33741SOL    HW1 3055  12.370  13.139   3.489
33741SOL    HW2 3056  12.471  13.042   3.431
33742SOL     OW 3057  12.447  12.092   8.379
33742SOL    HW1 3058  12.365  12.042   8.388
33742SOL    HW2 3059  12.498  12.068   8.456
33743SOL     OW 3060  14.017  12.426   1.671
33743SOL    HW1 3061  13.979  12.339   1.662
33743SOL    HW2 3062  14.007  12.466   1.585
33744SOL     OW 3063   6.575  10.092  11.639
33744SOL    HW1 3064   6.515  10.096  11.713
33744SOL    HW2 3065   6.582  10.182  11.608
33745SOL     OW 3066   5.658   3.617  14.771
33745SOL    HW1 3067   5.588   3.663  14.726
33745SOL    HW2 3068   5.663   3.659  14.857
33746SOL     OW 3069  12.663   9.369   5.329
33746SOL    HW1 3070  12.741   9.379   5.274
33746SOL    HW2 3071  12.591   9.363   5.266
33747SOL     OW 3072  10.668  10.090   6.449
33747SOL    HW1 3073  10.621  10.012   6.420
33747SOL    HW2 3074  10.712  10.122   6.370
33748SOL     OW 3075  14.690  13.996   3.135
33748SOL    HW1 3076  14.628  14.058   3.172
33748SOL    HW2 3077  14.776  14.038   3.145
33749SOL     OW 3078  10.417   1.758   8.726
33749SOL    HW1 3079  10.440   1.785   8.637
33749SOL    HW2 3080  10.336   1.709   8.716
33750SOL     OW 3081  13.751  10.859   4.911
33750SOL    HW1 3082  13.756  10.806   4.831
33750SOL    HW2 3083  13.819  10.925   4.900
33751SOL     OW 3084   6.813  14.842   1.645
33751SOL    HW1 3085   6.764  14.821   1.725
33751SOL    HW2 3086   6.863   0.048   1.668
33752SOL     OW 3087   5.971   7.434   3.057
33752SOL    HW1 3088   6.009   7.506   3.108
33752SOL    HW2 3089   6.047   7.389   3.019
33753SOL     OW 3090   8.720  10.584   0.232
33753SOL    HW1 3091   8.776  10.633   0.171
33753SOL    HW2 3092   8.674  10.521   0.177
33754SOL     OW 3093   8.461  11.157  10.746
33754SOL    HW1 3094   8.546  11.134  10.783
33754SOL    HW2 3095   8.439  11.241  10.786
33755SOL     OW 3096   8.744   7.516  11.475
33755SOL    HW1 3097   8.724   7.488  11.565
33755SOL    HW2 3098   8.836   7.543  11.478
33756SOL     OW 3099  14.801  10.768   2.157
33756SOL    HW1 3100  14.779  10.792   2.067
33756SOL    HW2 3101   0.008  10.819   2.177
33757SOL     OW 3102   3.449   0.401  13.416
33757SOL    HW1 3103   3.455   0.384  13.322
33757SOL    HW2 3104   3.532   0.370  13.452
33758SOL     OW 3105   9.590   3.880  12.955
33758SOL    HW1 3106   9.555   3.834  12.879
33758SOL    HW2 3107   9.649   3.945  12.919
33759SOL     OW 3108  14.254   9.246  10.245
33759SOL    HW1 3109  14.343   9.231  10.214
33759SOL    HW2 3110  14.243   9.341  10.243
33760SOL     OW 3111   4.151  13.612   1.311
33760SOL    HW1 3112   4.205  13.576   1.381
33760SOL    HW2 3113   4.076  13.552   1.306
33761SOL     OW 3114  12.488   1.291   0.707
33761SOL    HW1 3115  12.422   1.357   0.684
33761SOL    HW2 3116  12.537   1.331   0.779
33762SOL     OW 3117  14.369   8.830   6.201
33762SOL    HW1 3118  14.286   8.852   6.159
33762SOL    HW2 3119  14.436   8.858   6.138
33763SOL     OW 3120   2.807  13.772  11.989
33763SOL    HW1 3121   2.773  13.862  11.995
33763SOL    HW2 3122   2.777  13.741  11.903
33764SOL     OW 3123   1.147   9.397   9.154
33764SOL    HW1 3124   1.167   9.326   9.093
33764SOL    HW2 3125   1.229   9.411   9.203
33765SOL     OW 3126  12.726   7.364   0.725
33765SOL    HW1 3127  12.779   7.425   0.673
33765SOL    HW2 3128  12.774   7.282   0.723
33766SOL     OW 3129   3.796  10.956   5.728
33766SOL    HW1 3130   3.870  10.920   5.776
33766SOL    HW2 3131   3.729  10.888   5.731
33767SOL     OW 3132   1.361   7.402   0.601
33767SOL    HW1 3133   1.286   7.379   0.547
33767SOL    HW2 3134   1.367   7.498   0.594
33768SOL     OW 3135  14.241   8.640   2.476
33768SOL    HW1 3136  14.281   8.687   2.402
33768SOL    HW2 3137  14.212   8.710   2.535
33769SOL     OW 3138   6.279  11.371   7.847
33769SOL    HW1 3139   6.236  11.298   7.803
33769SOL    HW2 3140   6.297  11.340   7.935
33770SOL     OW 3141   2.482   5.063  14.155
33770SOL    HW1 3142   2.409   5.124  14.168
33770SOL    HW2 3143   2.552   5.097  14.211
33771SOL     OW 3144  12.870   0.667  14.274
33771SOL    HW1 3145  12.786   0.653  14.318
33771SOL    HW2 3146  12.879   0.762  14.269
33772SOL     OW 3147  13.574  13.032  10.748
33772SOL    HW1 3148  13.654  13.085  10.742
33772SOL    HW2 3149  13.606  12.943  10.762
33773SOL     OW 3150   3.483   2.764   8.067
33773SOL    HW1 3151   3.445   2.677   8.071
33773SOL    HW2 3152   3.494   2.790   8.159
33774SOL     OW 3153   3.675   6.407   2.658
33774SOL    HW1 3154   3.754   6.396   2.710
33774SOL    HW2 3155   3.614   6.341   2.692
33775SOL     OW 3156   8.144   8.804  10.122
33775SOL    HW1 3157   8.211   8.777  10.059
33775SOL    HW2 3158   8.073   8.837  10.067
33776SOL     OW 3159   0.894  11.540   5.726
33776SOL    HW1 3160   0.915  11.634   5.722
33776SOL    HW2 3161   0.799  11.538   5.732
33777SOL     OW 3162   8.491   7.797  13.237
33777SOL    HW1 3163   8.438   7.718  13.242
33777SOL    HW2 3164   8.451   7.849  13.167
33778SOL     OW 3165   4.796   9.250   3.789
33778SOL    HW1 3166   4.886   9.238   3.821
33778SOL    HW2 3167   4.799   9.224   3.697
33779SOL     OW 3168  11.874  10.325  11.552
33779SOL    HW1 3169  11.841  10.309  11.641
33779SOL    HW2 3170  11.935  10.254  11.536
33780SOL     OW 3171   1.177   8.172   3.402
33780SOL    HW1 3172   1.215   8.122   3.474
33780SOL    HW2 3173   1.239   8.160   3.330
33781SOL     OW 3174   8.551   8.853  11.029
33781SOL    HW1 3175   8.641   8.842  11.058
33781SOL    HW2 3176   8.541   8.790  10.957
33782SOL     OW 3177   4.207   9.280   9.271
33782SOL    HW1 3178   4.253   9.249   9.349
33782SOL    HW2 3179   4.138   9.214   9.256
33783SOL     OW 3180  11.700  13.919   7.593
33783SOL    HW1 3181  11.787  13.881   7.607
33783SOL    HW2 3182  11.701  13.947   7.501
33784SOL     OW 3183   5.688   0.335   0.124
33784SOL    HW1 3184   5.708   0.381   0.206
33784SOL    HW2 3185   5.596   0.310   0.133
33785SOL     OW 3186  13.294   1.584  12.903
33785SOL    HW1 3187  13.317   1.671  12.936
33785SOL    HW2 3188  13.315   1.525  12.974
33786SOL     OW 3189   7.683  11.146  11.610
33786SOL    HW1 3190   7.647  11.167  11.696
33786SOL    HW2 3191   7.777  11.166  11.618
33787SOL     OW 3192  14.576  14.365   4.756
33787SOL    HW1 3193  14.506  14.379   4.693
33787SOL    HW2 3194  14.532  14.353   4.840
33788SOL     OW 3195   9.407   5.854  12.837
33788SOL    HW1 3196   9.493   5.852  12.880
33788SOL    HW2 3197   9.355   5.791  12.887
33789SOL     OW 3198   1.643   2.118   1.337
33789SOL    HW1 3199   1.698   2.157   1.270
33789SOL    HW2 3200   1.654   2.024   1.325
33790SOL     OW 3201   3.945   4.807   6.794
33790SOL    HW1 3202   4.007   4.796   6.722
33790SOL    HW2 3203   3.956   4.728   6.847
33791SOL     OW 3204  11.550  13.699  13.785
33791SOL    HW1 3205  11.546  13.648  13.865
33791SOL    HW2 3206  11.563  13.789  13.814
33792SOL     OW 3207   3.457  12.613   0.463
33792SOL    HW1 3208   3.428  12.585   0.550
33792SOL    HW2 3209   3.400  12.566   0.402
33793SOL     OW 3210  12.412  10.081   2.926
33793SOL    HW1 3211  12.506  10.063   2.939
33793SOL    HW2 3212  12.391  10.148   2.991
33794SOL     OW 3213   5.502   6.679   2.115
33794SOL    HW1 3214   5.578   6.681   2.057
33794SOL    HW2 3215   5.506   6.762   2.163
33795SOL     OW 3216   1.074   8.048   2.158
33795SOL    HW1 3217   1.136   8.118   2.140
33795SOL    HW2 3218   1.074   8.039   2.253
33796SOL     OW 3219   7.401   5.082  12.218
33796SOL    HW1 3220   7.440   5.109  12.301
33796SOL    HW2 3221   7.454   5.007  12.190
33797SOL     OW 3222  10.905   3.508   5.078
33797SOL    HW1 3223  10.888   3.512   4.984
33797SOL    HW2 3224  10.861   3.429   5.107
33798SOL     OW 3225   1.634  10.160   1.251
33798SOL    HW1 3226   1.568  10.183   1.186
33798SOL    HW2 3227   1.642  10.065   1.244
33799SOL     OW 3228   0.622   5.656  11.079
33799SOL    HW1 3229   0.534   5.635  11.109
33799SOL    HW2 3230   0.666   5.691  11.157
33800SOL     OW 3231   9.630  12.501   5.639
33800SOL    HW1 3232   9.642  12.461   5.725
33800SOL    HW2 3233   9.547  12.467   5.607
33801SOL     OW 3234  14.684  14.530   7.134
33801SOL    HW1 3235  14.762  14.477   7.151
33801SOL    HW2 3236  14.630  14.475   7.078
33802SOL     OW 3237  14.716   2.185   1.072
33802SOL    HW1 3238  14.669   2.131   1.135
33802SOL    HW2 3239  14.703   2.141   0.988
33803SOL     OW 3240   0.407   5.573   5.111
33803SOL    HW1 3241   0.437   5.621   5.034
33803SOL    HW2 3242   0.386   5.485   5.078
33804SOL     OW 3243   1.237   5.812   3.266
33804SOL    HW1 3244   1.151   5.832   3.228
33804SOL    HW2 3245   1.250   5.880   3.332
33805SOL     OW 3246  14.615   8.760   5.377
33805SOL    HW1 3247  14.706   8.762   5.347
33805SOL    HW2 3248  14.574   8.834   5.332
33806SOL     OW 3249   5.686   0.062   4.151
33806SOL    HW1 3250   5.670   0.075   4.057
33806SOL    HW2 3251   5.603   0.030   4.185
33807SOL     OW 3252   4.036   5.096   6.676
33807SOL    HW1 3253   4.011   5.188   6.677
33807SOL    HW2 3254   3.953   5.049   6.685
33808SOL     OW 3255  11.479   7.685   6.579
33808SOL    HW1 3256  11.485   7.630   6.500
33808SOL    HW2 3257  11.422   7.636   6.638
33809SOL     OW 3258   9.655  10.443   2.507
33809SOL    HW1 3259   9.717  10.371   2.519
33809SOL    HW2 3260   9.708  10.522   2.516
33810SOL     OW 3261   2.611   1.063   9.831
33810SOL    HW1 3262   2.583   1.056   9.922
33810SOL    HW2 3263   2.529   1.061   9.781
33811SOL     OW 3264   8.119  12.047   3.811
33811SOL    HW1 3265   8.080  11.963   3.832
33811SOL    HW2 3266   8.048  12.110   3.820
33812SOL     OW 3267   9.527   3.011   4.040
33812SOL    HW1 3268   9.603   2.974   4.084
33812SOL    HW2 3269   9.517   3.098   4.078
33813SOL     OW 3270   0.305   0.875   8.715
33813SOL    HW1 3271   0.391   0.915   8.730
33813SOL    HW2 3272   0.316   0.783   8.740
33814SOL     OW 3273   0.494  14.650   8.899
33814SOL    HW1 3274   0.491  14.719   8.966
33814SOL    HW2 3275   0.488  14.568   8.949
33815SOL     OW 3276   5.443   3.018  13.895
33815SOL    HW1 3277   5.398   2.955  13.952
33815SOL    HW2 3278   5.516   2.969  13.858
33816SOL     OW 3279   0.159  13.209   3.284
33816SOL    HW1 3280   0.138  13.118   3.264
33816SOL    HW2 3281   0.130  13.257   3.206
33817SOL     OW 3282  12.935  13.841  12.498
33817SOL    HW1 3283  12.987  13.881  12.429
33817SOL    HW2 3284  12.851  13.886  12.495
33818SOL     OW 3285   3.223  11.577   5.258
33818SOL    HW1 3286   3.128  11.567   5.255
33818SOL    HW2 3287   3.246  11.617   5.175
33819SOL     OW 3288   3.636  13.906  10.188
33819SOL    HW1 3289   3.558  13.929  10.237
33819SOL    HW2 3290   3.708  13.948  10.236
33820SOL     OW 3291   7.923  13.498   0.917
33820SOL    HW1 3292   7.926  13.588   0.950
33820SOL    HW2 3293   7.836  13.466   0.943
33821SOL     OW 3294   7.526  10.524  13.569
33821SOL    HW1 3295   7.609  10.563  13.542
33821SOL    HW2 3296   7.477  10.514  13.487
33822SOL     OW 3297   5.982   7.103   1.762
33822SOL    HW1 3298   6.048   7.046   1.802
33822SOL    HW2 3299   6.020   7.191   1.768
33823SOL     OW 3300  13.566  11.891   5.559
33823SOL    HW1 3301  13.522  11.841   5.490
33823SOL    HW2 3302  13.569  11.980   5.525
33824SOL     OW 3303   7.910   5.836   2.418
33824SOL    HW1 3304   7.960   5.915   2.397
33824SOL    HW2 3305   7.926   5.777   2.344
33825SOL     OW 3306   3.623  12.813   8.195
33825SOL    HW1 3307   3.560  12.886   8.197
33825SOL    HW2 3308   3.583  12.749   8.136
33826SOL     OW 3309  11.071  11.981  13.795
33826SOL    HW1 3310  11.126  11.938  13.730
33826SOL    HW2 3311  11.129  12.044  13.837
33827SOL     OW 3312  12.915   7.927   4.660
33827SOL    HW1 3313  12.871   7.845   4.637
33827SOL    HW2 3314  12.854   7.995   4.631
33828SOL     OW 3315   6.320   3.705  12.488
33828SOL    HW1 3316   6.250   3.711  12.553
33828SOL    HW2 3317   6.274   3.716  12.404
33829SOL     OW 3318   2.349   2.709   5.574
33829SOL    HW1 3319   2.317   2.754   5.652
33829SOL    HW2 3320   2.277   2.652   5.547
33830SOL     OW 3321   5.260   4.888   3.282
33830SOL    HW1 3322   5.318   4.888   3.206
33830SOL    HW2 3323   5.303   4.830   3.345
33831SOL     OW 3324   7.189   9.357   2.273
33831SOL    HW1 3325   7.271   9.395   2.306
33831SOL    HW2 3326   7.125   9.427   2.281
33832SOL     OW 3327  12.835   6.928   5.538
33832SOL    HW1 3328  12.853   7.021   5.525
33832SOL    HW2 3329  12.871   6.908   5.624
33833SOL     OW 3330   9.611   6.992  12.925
33833SOL    HW1 3331   9.517   7.003  12.913
33833SOL    HW2 3332   9.620   6.912  12.976
33834SOL     OW 3333   2.978   7.223   1.004
33834SOL    HW1 3334   3.059   7.263   0.974
33834SOL    HW2 3335   2.946   7.281   1.073
33835SOL     OW 3336  10.829   9.035   2.856
33835SOL    HW1 3337  10.821   8.991   2.941
33835SOL    HW2 3338  10.747   9.017   2.811
33836SOL     OW 3339  13.156  10.899  14.324
33836SOL    HW1 3340  13.187  10.857  14.244
33836SOL    HW2 3341  13.217  10.972  14.338
33837SOL     OW 3342   6.200   8.207  11.047
33837SOL    HW1 3343   6.158   8.136  10.999
33837SOL    HW2 3344   6.255   8.164  11.112
33838SOL     OW 3345   4.826   3.048   8.583
33838SOL    HW1 3346   4.768   3.091   8.520
33838SOL    HW2 3347   4.845   3.116   8.648
33839SOL     OW 3348   3.506   2.658   3.251
33839SOL    HW1 3349   3.553   2.718   3.309
33839SOL    HW2 3350   3.502   2.704   3.167
33840SOL     OW 3351  13.062   1.273   7.570
33840SOL    HW1 3352  13.069   1.342   7.635
33840SOL    HW2 3353  13.018   1.201   7.615
33841SOL     OW 3354   6.362  10.975   5.360
33841SOL    HW1 3355   6.384  11.068   5.354
33841SOL    HW2 3356   6.352  10.959   5.454
33842SOL     OW 3357  12.052  11.845   3.329
33842SOL    HW1 3358  12.102  11.891   3.261
33842SOL    HW2 3359  12.119  11.804   3.383
33843SOL     OW 3360   1.784   0.156   9.619
33843SOL    HW1 3361   1.789   0.113   9.534
33843SOL    HW2 3362   1.690   0.172   9.632
33844SOL     OW 3363   2.163   2.632   4.922
33844SOL    HW1 3364   2.249   2.673   4.911
33844SOL    HW2 3365   2.181   2.549   4.965
33845SOL     OW 3366   0.222   4.727   5.544
33845SOL    HW1 3367   0.250   4.806   5.499
33845SOL    HW2 3368   0.300   4.671   5.545
33846SOL     OW 3369  12.269  10.734  12.725
33846SOL    HW1 3370  12.266  10.697  12.813
33846SOL    HW2 3371  12.177  10.756  12.705
33847SOL     OW 3372   4.488   8.750  12.812
33847SOL    HW1 3373   4.454   8.668  12.849
33847SOL    HW2 3374   4.567   8.723  12.764
33848SOL     OW 3375   4.090  14.745  14.593
33848SOL    HW1 3376   4.097  14.721  14.686
33848SOL    HW2 3377   4.040  14.826  14.594
33849SOL     OW 3378  13.076   6.816  14.448
33849SOL    HW1 3379  13.106   6.731  14.482
33849SOL    HW2 3380  12.984   6.802  14.426
33850SOL     OW 3381   2.370   6.337  11.945
33850SOL    HW1 3382   2.287   6.358  11.903
33850SOL    HW2 3383   2.354   6.353  12.038
33851SOL     OW 3384  12.946   8.275  11.009
33851SOL    HW1 3385  12.887   8.205  11.036
33851SOL    HW2 3386  12.990   8.302  11.090
33852SOL     OW 3387  12.830   9.193  12.053
33852SOL    HW1 3388  12.807   9.217  11.964
33852SOL    HW2 3389  12.861   9.102  12.047
33853SOL     OW 3390   1.939   5.747   2.384
33853SOL    HW1 3391   1.943   5.707   2.471
33853SOL    HW2 3392   1.909   5.676   2.327
33854SOL     OW 3393   8.418  12.403  11.166
33854SOL    HW1 3394   8.512  12.388  11.161
33854SOL    HW2 3395   8.381  12.354  11.093
33855SOL     OW 3396   0.351  11.737   8.641
33855SOL    HW1 3397   0.325  11.682   8.715
33855SOL    HW2 3398   0.278  11.799   8.630
33856SOL     OW 3399  10.519   5.423   3.614
33856SOL    HW1 3400  10.435   5.408   3.657
33856SOL    HW2 3401  10.498   5.478   3.538
33857SOL     OW 3402   1.204   3.940  12.423
33857SOL    HW1 3403   1.271   3.981  12.477
33857SOL    HW2 3404   1.132   3.923  12.483
33858SOL     OW 3405   5.956   8.107   5.869
33858SOL    HW1 3406   6.004   8.070   5.943
33858SOL    HW2 3407   6.024   8.136   5.808
33859SOL     OW 3408   3.137   9.333   7.899
33859SOL    HW1 3409   3.097   9.332   7.812
33859SOL    HW2 3410   3.063   9.327   7.960
33860SOL     OW 3411   7.927   1.804  10.764
33860SOL    HW1 3412   7.996   1.857  10.804
33860SOL    HW2 3413   7.850   1.860  10.768
33861SOL     OW 3414   3.622   5.594   0.507
33861SOL    HW1 3415   3.571   5.633   0.578
33861SOL    HW2 3416   3.559   5.579   0.437
33862SOL     OW 3417   5.540  11.086   4.828
33862SOL    HW1 3418   5.449  11.066   4.805
33862SOL    HW2 3419   5.533  11.146   4.902
33863SOL     OW 3420   9.070  12.628   3.207
33863SOL    HW1 3421   9.163  12.606   3.200
33863SOL    HW2 3422   9.030  12.590   3.129
33864SOL     OW 3423   2.707   1.868   0.942
33864SOL    HW1 3424   2.629   1.874   0.888
33864SOL    HW2 3425   2.780   1.883   0.882
33865SOL     OW 3426   6.688   5.628  12.453
33865SOL    HW1 3427   6.655   5.713  12.480
33865SOL    HW2 3428   6.689   5.632  12.358
33866SOL     OW 3429   6.742  13.181   3.892
33866SOL    HW1 3430   6.669  13.154   3.947
33866SOL    HW2 3431   6.725  13.274   3.873
33867SOL     OW 3432   3.320   0.082   6.740
33867SOL    HW1 3433   3.380   0.008   6.726
33867SOL    HW2 3434   3.311   0.088   6.835
33868SOL     OW 3435   0.164   7.933   0.268
33868SOL    HW1 3436   0.216   7.883   0.204
33868SOL    HW2 3437   0.191   7.898   0.353
33869SOL     OW 3438   4.328  12.435   3.427
33869SOL    HW1 3439   4.239  12.401   3.420
33869SOL    HW2 3440   4.383  12.357   3.430
33870SOL     OW 3441  14.588  12.520   9.286
33870SOL    HW1 3442  14.577  12.448   9.225
33870SOL    HW2 3443  14.507  12.520   9.337
33871SOL     OW 3444   6.794   1.671   8.655
33871SOL    HW1 3445   6.744   1.666   8.736
33871SOL    HW2 3446   6.819   1.581   8.636
33872SOL     OW 3447   7.226   4.492   3.747
33872SOL    HW1 3448   7.134   4.515   3.734
33872SOL    HW2 3449   7.228   4.397   3.734
33873SOL     OW 3450  12.238   4.414  12.270
33873SOL    HW1 3451  12.292   4.336  12.277
33873SOL    HW2 3452  12.232   4.447  12.360
33874SOL     OW 3453   9.514   1.725  12.665
33874SOL    HW1 3454   9.549   1.641  12.694
33874SOL    HW2 3455   9.584   1.788  12.681
33875SOL     OW 3456   1.422   4.045  13.946
33875SOL    HW1 3457   1.430   4.137  13.971
33875SOL    HW2 3458   1.329   4.024  13.957
33876SOL     OW 3459   1.762   3.471   0.394
33876SOL    HW1 3460   1.836   3.516   0.355
33876SOL    HW2 3461   1.796   3.386   0.421
33877SOL     OW 3462  11.739   6.069   4.486
33877SOL    HW1 3463  11.703   6.020   4.560
33877SOL    HW2 3464  11.687   6.041   4.411
33878SOL     OW 3465   8.508  11.024   2.896
33878SOL    HW1 3466   8.504  11.061   2.808
33878SOL    HW2 3467   8.516  10.929   2.882
33879SOL     OW 3468  14.061   4.908   3.083
33879SOL    HW1 3469  14.032   4.823   3.116
33879SOL    HW2 3470  14.122   4.887   3.013
33880SOL     OW 3471   7.258  12.702   6.099
33880SOL    HW1 3472   7.186  12.738   6.151
33880SOL    HW2 3473   7.295  12.778   6.054
33881SOL     OW 3474  12.194   4.892   5.151
33881SOL    HW1 3475  12.273   4.837   5.147
33881SOL    HW2 3476  12.191   4.936   5.067
33882SOL     OW 3477  12.302  11.669   4.594
33882SOL    HW1 3478  12.322  11.708   4.679
33882SOL    HW2 3479  12.316  11.575   4.607
33883SOL     OW 3480   9.848   4.396   9.306
33883SOL    HW1 3481   9.863   4.426   9.396
33883SOL    HW2 3482   9.894   4.458   9.251
33884SOL     OW 3483   1.590   4.595   1.649
33884SOL    HW1 3484   1.538   4.539   1.708
33884SOL    HW2 3485   1.561   4.570   1.561
33885SOL     OW 3486   4.161  11.386   9.638
33885SOL    HW1 3487   4.087  11.444   9.622
33885SOL    HW2 3488   4.213  11.431   9.705
33886SOL     OW 3489   8.236   8.354  11.946
33886SOL    HW1 3490   8.291   8.326  12.019
33886SOL    HW2 3491   8.296   8.355  11.870
33887SOL     OW 3492   9.668   8.498   3.435
33887SOL    HW1 3493   9.701   8.427   3.381
33887SOL    HW2 3494   9.591   8.462   3.479
33888SOL     OW 3495   6.648  12.063   8.727
33888SOL    HW1 3496   6.558  12.062   8.761
33888SOL    HW2 3497   6.703  12.047   8.803
33889SOL     OW 3498   6.275   3.440   0.539
33889SOL    HW1 3499   6.211   3.379   0.503
33889SOL    HW2 3500   6.244   3.526   0.513
33890SOL     OW 3501   7.677  10.163   8.574
33890SOL    HW1 3502   7.618  10.088   8.567
33890SOL    HW2 3503   7.763  10.127   8.553
33891SOL     OW 3504  13.398   8.444   1.158
33891SOL    HW1 3505  13.468   8.457   1.223
33891SOL    HW2 3506  13.441   8.458   1.074
33892SOL     OW 3507  12.712   9.767   0.876
33892SOL    HW1 3508  12.777   9.724   0.820
33892SOL    HW2 3509  12.639   9.705   0.881
33893SOL     OW 3510   7.980   8.499   1.540
33893SOL    HW1 3511   7.995   8.504   1.634
33893SOL    HW2 3512   7.983   8.405   1.520
33894SOL     OW 3513   0.148  13.543   3.540
33894SOL    HW1 3514   0.116  13.616   3.592
33894SOL    HW2 3515   0.074  13.482   3.536
33895SOL     OW 3516   4.679  11.107   7.496
33895SOL    HW1 3517   4.620  11.140   7.428
33895SOL    HW2 3518   4.750  11.065   7.447
33896SOL     OW 3519  13.866  11.930  10.975
33896SOL    HW1 3520  13.811  11.854  10.953
33896SOL    HW2 3521  13.804  11.998  11.000
33897SOL     OW 3522   9.425  10.277   5.926
33897SOL    HW1 3523   9.518  10.268   5.906
33897SOL    HW2 3524   9.391  10.336   5.858
33898SOL     OW 3525   0.503  14.432   6.094
33898SOL    HW1 3526   0.530  14.344   6.067
33898SOL    HW2 3527   0.583  14.472   6.128
33899SOL     OW 3528   5.740  14.620   4.029
33899SOL    HW1 3529   5.719  14.713   4.031
33899SOL    HW2 3530   5.678  14.580   4.090
33900SOL     OW 3531  10.930   0.709   1.048
33900SOL    HW1 3532  10.980   0.790   1.042
33900SOL    HW2 3533  10.996   0.641   1.062
33901SOL     OW 3534  10.160  11.842   4.347
33901SOL    HW1 3535  10.227  11.882   4.292
33901SOL    HW2 3536  10.199  11.758   4.374
33902SOL     OW 3537   7.604  12.440   9.882
33902SOL    HW1 3538   7.561  12.386   9.816
33902SOL    HW2 3539   7.693  12.406   9.887
33903SOL     OW 3540  10.814  10.757  13.957
33903SOL    HW1 3541  10.799  10.771  14.050
33903SOL    HW2 3542  10.763  10.679  13.936
33904SOL     OW 3543   7.763  10.387  13.185
33904SOL    HW1 3544   7.732  10.360  13.098
33904SOL    HW2 3545   7.772  10.482  13.179
33905SOL     OW 3546  12.395   2.393   2.319
33905SOL    HW1 3547  12.334   2.407   2.246
33905SOL    HW2 3548  12.345   2.418   2.397
33906SOL     OW 3549   7.446   4.127  10.397
33906SOL    HW1 3550   7.448   4.055  10.334
33906SOL    HW2 3551   7.417   4.086  10.479
33907SOL     OW 3552   3.842  10.734  10.463
33907SOL    HW1 3553   3.769  10.771  10.413
33907SOL    HW2 3554   3.809  10.726  10.552
33908SOL     OW 3555   9.493  10.947  14.512
33908SOL    HW1 3556   9.573  10.999  14.507
33908SOL    HW2 3557   9.455  10.970  14.596
33909SOL     OW 3558   7.625   8.775  13.728
33909SOL    HW1 3559   7.538   8.770  13.691
33909SOL    HW2 3560   7.622   8.851  13.787
33910SOL     OW 3561   2.012   8.901  12.761
33910SOL    HW1 3562   1.947   8.922  12.694
33910SOL    HW2 3563   1.982   8.948  12.839
33911SOL     OW 3564  11.960   5.976   2.449
33911SOL    HW1 3565  11.876   5.957   2.406
33911SOL    HW2 3566  11.999   6.045   2.396
33912SOL     OW 3567   9.729   8.793   2.484
33912SOL    HW1 3568   9.746   8.817   2.393
33912SOL    HW2 3569   9.639   8.761   2.484
33913SOL     OW 3570   8.389   2.898   5.045
33913SOL    HW1 3571   8.318   2.876   4.984
33913SOL    HW2 3572   8.467   2.901   4.991
33914SOL     OW 3573   2.517   4.103   0.745
33914SOL    HW1 3574   2.559   4.020   0.722
33914SOL    HW2 3575   2.544   4.120   0.835
33915SOL     OW 3576  12.615   3.068   7.350
33915SOL    HW1 3577  12.598   2.998   7.412
33915SOL    HW2 3578  12.698   3.106   7.379
33916SOL     OW 3579   7.708  11.318   6.156
33916SOL    HW1 3580   7.761  11.336   6.234
33916SOL    HW2 3581   7.703  11.222   6.151
33917SOL     OW 3582   5.024   6.434  10.152
33917SOL    HW1 3583   5.020   6.489  10.229
33917SOL    HW2 3584   5.108   6.388  10.159
33918SOL     OW 3585   0.017  14.558   1.394
33918SOL    HW1 3586   0.038  14.487   1.332
33918SOL    HW2 3587  14.842  14.622   1.341
33919SOL     OW 3588   8.570   8.920   0.804
33919SOL    HW1 3589   8.591   9.001   0.759
33919SOL    HW2 3590   8.654   8.879   0.822
33920SOL     OW 3591  12.364  13.373   2.843
33920SOL    HW1 3592  12.395  13.433   2.775
33920SOL    HW2 3593  12.406  13.403   2.923
33921SOL     OW 3594  11.909   4.331   2.954
33921SOL    HW1 3595  11.861   4.262   3.000
33921SOL    HW2 3596  11.857   4.346   2.874
33922SOL     OW 3597  11.767   7.415   9.285
33922SOL    HW1 3598  11.694   7.429   9.224
33922SOL    HW2 3599  11.731   7.359   9.354
33923SOL     OW 3600   1.187   5.787   2.713
33923SOL    HW1 3601   1.171   5.693   2.723
33923SOL    HW2 3602   1.171   5.824   2.800
33924SOL     OW 3603   6.455   6.547   1.460
33924SOL    HW1 3604   6.436   6.457   1.486
33924SOL    HW2 3605   6.457   6.545   1.364
33925SOL     OW 3606  13.933   4.242   4.551
33925SOL    HW1 3607  13.842   4.249   4.522
33925SOL    HW2 3608  13.957   4.332   4.574
33926SOL     OW 3609   8.873   6.098  13.552
33926SOL    HW1 3610   8.840   6.063  13.469
33926SOL    HW2 3611   8.951   6.046  13.570
33927SOL     OW 3612  14.257  11.320   9.540
33927SOL    HW1 3613  14.204  11.242   9.557
33927SOL    HW2 3614  14.219  11.388   9.596
33928SOL     OW 3615  14.248   4.432   8.893
33928SOL    HW1 3616  14.276   4.421   8.984
33928SOL    HW2 3617  14.329   4.422   8.842
33929SOL     OW 3618   5.412   8.295   4.676
33929SOL    HW1 3619   5.326   8.291   4.717
33929SOL    HW2 3620   5.412   8.379   4.629
33930SOL     OW 3621  10.763   6.663   7.896
33930SOL    HW1 3622  10.682   6.653   7.846
33930SOL    HW2 3623  10.756   6.749   7.937
33931SOL     OW 3624  14.037   1.539   1.319
33931SOL    HW1 3625  13.969   1.513   1.381
33931SOL    HW2 3626  13.989   1.567   1.241
33932SOL     OW 3627  11.425  10.189   2.997
33932SOL    HW1 3628  11.398  10.185   2.905
33932SOL    HW2 3629  11.492  10.257   2.999
33933SOL     OW 3630   4.102   8.282   0.155
33933SOL    HW1 3631   4.013   8.296   0.124
33933SOL    HW2 3632   4.151   8.356   0.121
33934SOL     OW 3633  14.626  13.189  10.911
33934SOL    HW1 3634  14.669  13.106  10.892
33934SOL    HW2 3635  14.697  13.253  10.915
33935SOL     OW 3636  10.892   1.328   3.558
33935SOL    HW1 3637  10.951   1.403   3.566
33935SOL    HW2 3638  10.950   1.253   3.543
33936SOL     OW 3639   5.314   5.779  12.668
33936SOL    HW1 3640   5.365   5.702  12.695
33936SOL    HW2 3641   5.305   5.831  12.748
33937SOL     OW 3642   3.775  14.205   5.453
33937SOL    HW1 3643   3.734  14.151   5.520
33937SOL    HW2 3644   3.857  14.161   5.433
33938SOL     OW 3645   0.432  11.061  11.058
33938SOL    HW1 3646   0.513  11.108  11.080
33938SOL    HW2 3647   0.460  10.994  10.996
33939SOL     OW 3648   1.604  10.095   2.805
33939SOL    HW1 3649   1.689  10.137   2.821
33939SOL    HW2 3650   1.621  10.033   2.733
33940SOL     OW 3651  10.612   8.593   6.514
33940SOL    HW1 3652  10.658   8.575   6.596
33940SOL    HW2 3653  10.624   8.513   6.462
33941SOL     OW 3654  11.451   9.330   9.005
33941SOL    HW1 3655  11.527   9.351   8.950
33941SOL    HW2 3656  11.382   9.388   8.973
33942SOL     OW 3657   4.049   5.181   9.064
33942SOL    HW1 3658   3.982   5.113   9.072
33942SOL    HW2 3659   4.004   5.262   9.086
33943SOL     OW 3660   6.519   0.837   1.443
33943SOL    HW1 3661   6.608   0.870   1.435
33943SOL    HW2 3662   6.464   0.915   1.441
33944SOL     OW 3663   9.214   0.582  11.335
33944SOL    HW1 3664   9.278   0.606  11.402
33944SOL    HW2 3665   9.192   0.491  11.355
33945SOL     OW 3666  13.407  11.059   1.856
33945SOL    HW1 3667  13.329  11.014   1.824
33945SOL    HW2 3668  13.429  11.014   1.938
33946SOL     OW 3669   5.292  14.186  14.475
33946SOL    HW1 3670   5.384  14.210  14.466
33946SOL    HW2 3671   5.253  14.205  14.390
33947SOL     OW 3672   6.337  14.635   6.857
33947SOL    HW1 3673   6.425  14.661   6.830
33947SOL    HW2 3674   6.296  14.601   6.778
33948SOL     OW 3675   6.129   0.408   9.592
33948SOL    HW1 3676   6.038   0.437   9.594
33948SOL    HW2 3677   6.139   0.367   9.506
33949SOL     OW 3678   1.117  12.102  10.919
33949SOL    HW1 3679   1.070  12.019  10.921
33949SOL    HW2 3680   1.064  12.162  10.972
33950SOL     OW 3681   8.105  12.845   6.321
33950SOL    HW1 3682   8.144  12.912   6.377
33950SOL    HW2 3683   8.043  12.799   6.377
33951SOL     OW 3684   6.819  12.016  11.637
33951SOL    HW1 3685   6.846  11.929  11.667
33951SOL    HW2 3686   6.889  12.074  11.665
33952SOL     OW 3687   0.410   2.830   7.482
33952SOL    HW1 3688   0.327   2.873   7.459
33952SOL    HW2 3689   0.456   2.819   7.399
33953SOL     OW 3690   3.191  13.235   2.005
33953SOL    HW1 3691   3.250  13.196   1.942
33953SOL    HW2 3692   3.157  13.161   2.056
33954SOL     OW 3693  10.928  13.623   1.390
33954SOL    HW1 3694  10.844  13.668   1.381
33954SOL    HW2 3695  10.991  13.693   1.409
33955SOL     OW 3696   5.992  10.836  13.988
33955SOL    HW1 3697   5.916  10.895  13.988
33955SOL    HW2 3698   6.054  10.877  13.928
33956SOL     OW 3699  13.446   8.210   1.518
33956SOL    HW1 3700  13.431   8.228   1.425
33956SOL    HW2 3701  13.359   8.208   1.557
33957SOL     OW 3702   5.695   3.848   4.576
33957SOL    HW1 3703   5.769   3.876   4.629
33957SOL    HW2 3704   5.625   3.909   4.597
33958SOL     OW 3705   6.755   1.727   6.033
33958SOL    HW1 3706   6.777   1.787   6.104
33958SOL    HW2 3707   6.835   1.719   5.982
33959SOL     OW 3708   1.799   5.103   2.316
33959SOL    HW1 3709   1.753   5.132   2.238
33959SOL    HW2 3710   1.771   5.164   2.385
33960SOL     OW 3711   8.794   3.392   5.146
33960SOL    HW1 3712   8.880   3.353   5.130
33960SOL    HW2 3713   8.757   3.405   5.059
33961SOL     OW 3714   7.199  10.461  10.799
33961SOL    HW1 3715   7.283  10.415  10.809
33961SOL    HW2 3716   7.212  10.544  10.844
33962SOL     OW 3717   7.575  12.999  13.977
33962SOL    HW1 3718   7.655  13.033  14.017
33962SOL    HW2 3719   7.554  12.920  14.028
33963SOL     OW 3720   6.184   4.297  11.170
33963SOL    HW1 3721   6.259   4.268  11.223
33963SOL    HW2 3722   6.205   4.268  11.081
33964SOL     OW 3723   9.567   6.935   6.543
33964SOL    HW1 3724   9.654   6.943   6.583
33964SOL    HW2 3725   9.559   7.012   6.487
33965SOL     OW 3726   4.918  13.299  12.003
33965SOL    HW1 3727   5.009  13.319  12.022
33965SOL    HW2 3728   4.906  13.208  12.031
33966SOL     OW 3729   5.395  11.162   3.586
33966SOL    HW1 3730   5.483  11.125   3.575
33966SOL    HW2 3731   5.409  11.249   3.622
33967SOL     OW 3732   8.132   0.238   2.686
33967SOL    HW1 3733   8.087   0.242   2.770
33967SOL    HW2 3734   8.147   0.144   2.672
33968SOL     OW 3735  12.782   3.858  11.321
33968SOL    HW1 3736  12.841   3.831  11.392
33968SOL    HW2 3737  12.764   3.950  11.339
33969SOL     OW 3738  12.386  14.498  10.823
33969SOL    HW1 3739  12.343  14.579  10.795
33969SOL    HW2 3740  12.400  14.509  10.917
33970SOL     OW 3741  13.435  12.223   8.109
33970SOL    HW1 3742  13.457  12.240   8.017
33970SOL    HW2 3743  13.483  12.289   8.158
33971SOL     OW 3744   4.797   9.179   0.204
33971SOL    HW1 3745   4.772   9.249   0.265
33971SOL    HW2 3746   4.848   9.119   0.258
33972SOL     OW 3747  11.024   3.422   8.632
33972SOL    HW1 3748  10.998   3.441   8.723
33972SOL    HW2 3749  11.069   3.502   8.604
33973SOL     OW 3750   5.062  11.229  14.523
33973SOL    HW1 3751   5.001  11.236  14.597
33973SOL    HW2 3752   5.127  11.166  14.552
33974SOL     OW 3753   7.959  12.273   1.888
33974SOL    HW1 3754   8.048  12.249   1.915
33974SOL    HW2 3755   7.955  12.250   1.795
33975SOL     OW 3756  11.983   2.758  10.439
33975SOL    HW1 3757  11.991   2.704  10.360
33975SOL    HW2 3758  11.982   2.695  10.511
33976SOL     OW 3759   9.230   8.421   6.992
33976SOL    HW1 3760   9.227   8.516   7.001
33976SOL    HW2 3761   9.218   8.405   6.898
33977SOL     OW 3762   9.331   3.227  14.764
33977SOL    HW1 3763   9.262   3.176  14.721
33977SOL    HW2 3764   9.289   3.262  14.843
33978SOL     OW 3765  10.078  14.409   0.171
33978SOL    HW1 3766  10.074  14.443   0.260
33978SOL    HW2 3767  10.029  14.473   0.119
33979SOL     OW 3768  13.438   7.075  13.630
33979SOL    HW1 3769  13.359   7.087  13.577
33979SOL    HW2 3770  13.441   6.981  13.648
33980SOL     OW 3771  10.900  12.146   3.956
33980SOL    HW1 3772  10.961  12.179   4.022
33980SOL    HW2 3773  10.877  12.058   3.986
33981SOL     OW 3774  11.868   2.654  11.798
33981SOL    HW1 3775  11.841   2.734  11.842
33981SOL    HW2 3776  11.964   2.657  11.797
33982SOL     OW 3777   3.046  12.925   7.785
33982SOL    HW1 3778   3.018  12.918   7.694
33982SOL    HW2 3779   2.966  12.940   7.834
33983SOL     OW 3780   4.029   9.152   5.202
33983SOL    HW1 3781   4.053   9.059   5.195
33983SOL    HW2 3782   4.109   9.196   5.230
33984SOL     OW 3783  13.925   1.458   8.651
33984SOL    HW1 3784  13.972   1.384   8.690
33984SOL    HW2 3785  13.984   1.533   8.664
33985SOL     OW 3786   5.147   2.719   9.224
33985SOL    HW1 3787   5.091   2.786   9.184
33985SOL    HW2 3788   5.105   2.700   9.308
33986SOL     OW 3789  13.978   9.481   3.110
33986SOL    HW1 3790  13.899   9.498   3.162
33986SOL    HW2 3791  14.048   9.472   3.175
33987SOL     OW 3792   8.413   0.546  14.405
33987SOL    HW1 3793   8.395   0.636  14.430
33987SOL    HW2 3794   8.504   0.547  14.374
33988SOL     OW 3795   4.957  13.975  14.792
33988SOL    HW1 3796   4.877  14.000  14.839
33988SOL    HW2 3797   5.028  14.000  14.852
33989SOL     OW 3798   0.087   1.959  13.903
33989SOL    HW1 3799   0.017   1.922  13.849
33989SOL    HW2 3800   0.105   2.044  13.864
33990SOL     OW 3801  12.205   2.352   4.955
33990SOL    HW1 3802  12.124   2.375   5.000
33990SOL    HW2 3803  12.177   2.306   4.876
33991SOL     OW 3804   0.439  13.910  14.574
33991SOL    HW1 3805   0.424  13.945  14.487
33991SOL    HW2 3806   0.481  13.825  14.559
33992SOL     OW 3807   4.013   1.819   0.696
33992SOL    HW1 3808   4.028   1.846   0.786
33992SOL    HW2 3809   4.076   1.870   0.644
33993SOL     OW 3810   0.235   7.255   7.385
33993SOL    HW1 3811   0.243   7.168   7.347
33993SOL    HW2 3812   0.199   7.240   7.472
33994SOL     OW 3813   3.120   6.849   8.432
33994SOL    HW1 3814   3.025   6.856   8.419
33994SOL    HW2 3815   3.153   6.936   8.410
33995SOL     OW 3816   1.898   4.359   5.692
33995SOL    HW1 3817   1.856   4.445   5.693
33995SOL    HW2 3818   1.830   4.298   5.723
33996SOL     OW 3819  13.792  13.575   4.739
33996SOL    HW1 3820  13.836  13.655   4.764
33996SOL    HW2 3821  13.859  13.507   4.746
33997SOL     OW 3822  10.264  12.150  13.251
33997SOL    HW1 3823  10.335  12.173  13.190
33997SOL    HW2 3824  10.233  12.065  13.220
33998SOL     OW 3825   8.079   8.664  14.052
33998SOL    HW1 3826   8.064   8.572  14.072
33998SOL    HW2 3827   8.139   8.694  14.121
33999SOL     OW 3828   8.389   6.081   8.370
33999SOL    HW1 3829   8.420   6.138   8.300
33999SOL    HW2 3830   8.439   6.000   8.360
34000SOL     OW 3831  11.691  10.905  14.395
34000SOL    HW1 3832  11.601  10.920  14.424
34000SOL    HW2 3833  11.697  10.811  14.382
34001SOL     OW 3834   0.997   2.297   1.918
34001SOL    HW1 3835   1.090   2.280   1.937
34001SOL    HW2 3836   0.963   2.212   1.889
34002SOL     OW 3837   5.320   3.971   0.545
34002SOL    HW1 3838   5.342   3.961   0.452
34002SOL    HW2 3839   5.376   3.907   0.589
34003SOL     OW 3840   0.814   3.237   8.505
34003SOL    HW1 3841   0.833   3.280   8.422
34003SOL    HW2 3842   0.766   3.302   8.556
34004SOL     OW 3843   6.975   6.433   0.092
34004SOL    HW1 3844   6.988   6.513   0.144
34004SOL    HW2 3845   7.036   6.370   0.131
34005SOL     OW 3846   1.611  11.371   4.219
34005SOL    HW1 3847   1.668  11.345   4.146
34005SOL    HW2 3848   1.669  11.414   4.280
34006SOL     OW 3849  14.674   1.470   6.309
34006SOL    HW1 3850  14.764   1.438   6.296
34006SOL    HW2 3851  14.685   1.562   6.334
34007SOL     OW 3852   7.484   6.962  12.394
34007SOL    HW1 3853   7.539   7.039  12.412
34007SOL    HW2 3854   7.414   6.996  12.339
34008SOL     OW 3855   9.075  13.689   8.062
34008SOL    HW1 3856   9.048  13.598   8.078
34008SOL    HW2 3857   9.076  13.730   8.148
34009SOL     OW 3858  12.931   5.365   5.957
34009SOL    HW1 3859  12.941   5.286   6.010
34009SOL    HW2 3860  12.882   5.425   6.013
34010SOL     OW 3861   2.513   0.100   0.520
34010SOL    HW1 3862   2.422   0.111   0.491
34010SOL    HW2 3863   2.538   0.187   0.552
34011SOL     OW 3864  10.924   6.739   6.094
34011SOL    HW1 3865  10.963   6.789   6.166
34011SOL    HW2 3866  10.966   6.774   6.015
34012SOL     OW 3867   3.099  11.402  12.996
34012SOL    HW1 3868   3.109  11.411  13.090
34012SOL    HW2 3869   3.115  11.309  12.979
34013SOL     OW 3870   6.152   8.241   4.321
34013SOL    HW1 3871   6.107   8.305   4.376
34013SOL    HW2 3872   6.228   8.214   4.372
34014SOL     OW 3873  12.366   0.487   5.851
34014SOL    HW1 3874  12.289   0.480   5.795
34014SOL    HW2 3875  12.360   0.411   5.909
34015SOL     OW 3876   5.429  10.623  13.376
34015SOL    HW1 3877   5.470  10.700  13.415
34015SOL    HW2 3878   5.407  10.567  13.451
34016SOL     OW 3879   6.209  10.954  11.909
34016SOL    HW1 3880   6.248  11.026  11.861
34016SOL    HW2 3881   6.277  10.886  11.910
34017SOL     OW 3882  14.847   7.447  13.645
34017SOL    HW1 3883  14.797   7.468  13.566
34017SOL    HW2 3884   0.054   7.405  13.613
34018SOL     OW 3885   0.328   9.569   2.595
34018SOL    HW1 3886   0.264   9.639   2.608
34018SOL    HW2 3887   0.280   9.499   2.551
34019SOL     OW 3888   8.536  14.822   5.799
34019SOL    HW1 3889   8.532   0.020   5.735
34019SOL    HW2 3890   8.497  14.746   5.755
34020SOL     OW 3891   3.020   3.600   7.883
34020SOL    HW1 3892   3.115   3.606   7.882
34020SOL    HW2 3893   2.996   3.562   7.799
34021SOL     OW 3894   5.153  10.764   1.978
34021SOL    HW1 3895   5.193  10.831   1.922
34021SOL    HW2 3896   5.147  10.686   1.922
34022SOL     OW 3897   4.820   9.080   1.110
34022SOL    HW1 3898   4.826   9.156   1.167
34022SOL    HW2 3899   4.889   9.021   1.142
34023SOL     OW 3900   1.020  13.759   6.484
34023SOL    HW1 3901   1.022  13.731   6.575
34023SOL    HW2 3902   0.927  13.766   6.462
34024SOL     OW 3903   2.477   2.983   5.202
34024SOL    HW1 3904   2.438   2.896   5.212
34024SOL    HW2 3905   2.514   3.002   5.288
34025SOL     OW 3906  12.706   0.490   0.814
34025SOL    HW1 3907  12.724   0.445   0.731
34025SOL    HW2 3908  12.626   0.539   0.797
34026SOL     OW 3909  10.107  10.004  11.091
34026SOL    HW1 3910  10.151  10.057  11.158
34026SOL    HW2 3911  10.024   9.979  11.131
34027SOL     OW 3912  13.890  10.253   0.712
34027SOL    HW1 3913  13.837  10.303   0.651
34027SOL    HW2 3914  13.905  10.312   0.786
34028SOL     OW 3915   5.438   9.773   3.223
34028SOL    HW1 3916   5.438   9.860   3.262
34028SOL    HW2 3917   5.480   9.717   3.289
34029SOL     OW 3918  13.824  13.929  10.534
34029SOL    HW1 3919  13.779  13.979  10.602
34029SOL    HW2 3920  13.757  13.871  10.498
34030SOL     OW 3921   8.597  14.668  13.987
34030SOL    HW1 3922   8.623  14.582  13.954
34030SOL    HW2 3923   8.649  14.730  13.936
34031SOL     OW 3924   3.214   5.964  13.705
34031SOL    HW1 3925   3.154   6.023  13.660
34031SOL    HW2 3926   3.187   5.877  13.678
34032SOL     OW 3927   2.375  11.723   8.198
34032SOL    HW1 3928   2.346  11.752   8.112
34032SOL    HW2 3929   2.328  11.778   8.259
34033SOL     OW 3930  12.147  10.581   9.876
34033SOL    HW1 3931  12.074  10.551   9.821
34033SOL    HW2 3932  12.214  10.514   9.866
34034SOL     OW 3933   9.821   5.229   8.098
34034SOL    HW1 3934   9.733   5.268   8.100
34034SOL    HW2 3935   9.879   5.300   8.125
34035SOL     OW 3936  10.298   6.907   7.423
34035SOL    HW1 3937  10.272   6.894   7.514
34035SOL    HW2 3938  10.264   6.993   7.400
34036SOL     OW 3939   4.541  13.092  12.455
34036SOL    HW1 3940   4.508  13.003  12.458
34036SOL    HW2 3941   4.490  13.135  12.386
34037SOL     OW 3942   1.024  11.910  12.458
34037SOL    HW1 3943   1.077  11.831  12.451
34037SOL    HW2 3944   0.983  11.920  12.372
34038SOL     OW 3945   1.375  11.391  10.903
34038SOL    HW1 3946   1.436  11.335  10.950
34038SOL    HW2 3947   1.392  11.374  10.810
34039SOL     OW 3948   3.678  12.028   1.859
34039SOL    HW1 3949   3.684  12.117   1.894
34039SOL    HW2 3950   3.666  11.972   1.936
34040SOL     OW 3951   4.901  14.672  14.357
34040SOL    HW1 3952   4.969  14.729  14.319
34040SOL    HW2 3953   4.847  14.647  14.282
34041SOL     OW 3954   9.697   5.139   0.276
34041SOL    HW1 3955   9.652   5.191   0.343
34041SOL    HW2 3956   9.626   5.100   0.225
34042SOL     OW 3957   8.770   1.424   1.362
34042SOL    HW1 3958   8.793   1.506   1.405
34042SOL    HW2 3959   8.798   1.435   1.271
34043SOL     OW 3960   5.671   8.909   2.359
34043SOL    HW1 3961   5.679   8.826   2.405
34043SOL    HW2 3962   5.748   8.914   2.303
34044SOL     OW 3963  10.380   4.478   1.189
34044SOL    HW1 3964  10.406   4.563   1.153
34044SOL    HW2 3965  10.430   4.469   1.270
34045SOL     OW 3966   9.625  14.124  14.016
34045SOL    HW1 3967   9.677  14.200  14.043
34045SOL    HW2 3968   9.607  14.077  14.097
34046SOL     OW 3969  12.312   2.623   9.213
34046SOL    HW1 3970  12.289   2.684   9.144
34046SOL    HW2 3971  12.388   2.576   9.179
34047SOL     OW 3972   2.094   7.634   2.934
34047SOL    HW1 3973   2.029   7.577   2.894
34047SOL    HW2 3974   2.043   7.703   2.976
34048SOL     OW 3975   1.969   7.792   3.805
34048SOL    HW1 3976   2.030   7.718   3.801
34048SOL    HW2 3977   1.886   7.757   3.774
34049SOL     OW 3978  14.290   8.663   0.458
34049SOL    HW1 3979  14.355   8.657   0.388
34049SOL    HW2 3980  14.320   8.736   0.512
34050SOL     OW 3981   5.155  12.021   0.561
34050SOL    HW1 3982   5.065  12.005   0.588
34050SOL    HW2 3983   5.159  11.991   0.470
34051SOL     OW 3984  14.238  12.699  13.209
34051SOL    HW1 3985  14.293  12.623  13.227
34051SOL    HW2 3986  14.240  12.709  13.114
34052SOL     OW 3987  14.257   8.351   6.044
34052SOL    HW1 3988  14.240   8.344   6.138
34052SOL    HW2 3989  14.309   8.274   6.022
34053SOL     OW 3990   8.202  12.629   4.860
34053SOL    HW1 3991   8.297  12.631   4.876
34053SOL    HW2 3992   8.189  12.687   4.786
34054SOL     OW 3993   7.928   5.591   4.034
34054SOL    HW1 3994   7.912   5.663   4.096
34054SOL    HW2 3995   7.906   5.627   3.949
34055SOL     OW 3996  14.108   3.126  11.785
34055SOL    HW1 3997  14.063   3.043  11.767
34055SOL    HW2 3998  14.170   3.105  11.855
34056SOL     OW 3999   5.535   0.037   3.896
34056SOL    HW1 4000   5.539  14.836   3.834
34056SOL    HW2 4001   5.522   0.114   3.841
34057SOL     OW 4002  14.010  14.527  10.172
34057SOL    HW1 4003  14.070  14.562  10.237
34057SOL    HW2 4004  13.998  14.435  10.197
34058SOL     OW 4005   6.226   3.239   7.769
34058SOL    HW1 4006   6.317   3.261   7.788
34058SOL    HW2 4007   6.198   3.185   7.843
34059SOL     OW 4008   2.923   7.784   1.246
34059SOL    HW1 4009   2.853   7.843   1.219
34059SOL    HW2 4010   3.002   7.838   1.241
34060SOL     OW 4011   4.742  11.881   1.571
34060SOL    HW1 4012   4.813  11.943   1.589
34060SOL    HW2 4013   4.783  11.795   1.575
34061SOL     OW 4014   2.850  14.822   6.610
34061SOL    HW1 4015   2.839   0.040   6.638
34061SOL    HW2 4016   2.866  14.773   6.691
34062SOL     OW 4017  14.019   9.452   7.098
34062SOL    HW1 4018  14.077   9.424   7.169
34062SOL    HW2 4019  14.078   9.462   7.023
34063SOL     OW 4020  10.225   6.967  10.303
34063SOL    HW1 4021  10.214   6.945  10.210
34063SOL    HW2 4022  10.261   7.056  10.302
34064SOL     OW 4023   1.982   1.519   5.806
34064SOL    HW1 4024   1.894   1.502   5.840
34064SOL    HW2 4025   2.040   1.468   5.861
34065SOL     OW 4026   0.850  14.268   3.171
34065SOL    HW1 4027   0.802  14.279   3.089
34065SOL    HW2 4028   0.939  14.297   3.150
34066SOL     OW 4029  10.500   5.519   0.556
34066SOL    HW1 4030  10.569   5.498   0.493
34066SOL    HW2 4031  10.495   5.442   0.613
34067SOL     OW 4032  12.801   2.577   4.123
34067SOL    HW1 4033  12.731   2.580   4.189
34067SOL    HW2 4034  12.880   2.601   4.171
34068SOL     OW 4035   8.713   8.725  14.666
34068SOL    HW1 4036   8.687   8.816  14.678
34068SOL    HW2 4037   8.699   8.709  14.573
34069SOL     OW 4038   5.817  14.352   1.081
34069SOL    HW1 4039   5.871  14.390   1.012
34069SOL    HW2 4040   5.811  14.421   1.148
34070SOL     OW 4041  14.178  11.665   4.727
34070SOL    HW1 4042  14.222  11.584   4.752
34070SOL    HW2 4043  14.142  11.700   4.808
34071SOL     OW 4044   2.799   2.660  12.768
34071SOL    HW1 4045   2.744   2.670  12.691
34071SOL    HW2 4046   2.780   2.737  12.822
34072SOL     OW 4047  14.729   0.741  11.569
34072SOL    HW1 4048  14.665   0.686  11.523
34072SOL    HW2 4049  14.750   0.692  11.648
34073SOL     OW 4050   0.289   6.228   1.643
34073SOL    HW1 4051   0.378   6.264   1.638
34073SOL    HW2 4052   0.301   6.136   1.666
34074SOL     OW 4053   8.898  14.547   9.616
34074SOL    HW1 4054   8.917  14.454   9.601
34074SOL    HW2 4055   8.883  14.554   9.710
34075SOL     OW 4056   9.940   0.630   9.312
34075SOL    HW1 4057  10.027   0.669   9.303
34075SOL    HW2 4058   9.880   0.698   9.281
34076SOL     OW 4059  11.126  12.969  14.564
34076SOL    HW1 4060  11.060  13.034  14.537
34076SOL    HW2 4061  11.124  12.903  14.495
34077SOL     OW 4062   1.467   9.727  12.532
34077SOL    HW1 4063   1.490   9.809  12.576
34077SOL    HW2 4064   1.531   9.664  12.564
34078SOL     OW 4065   1.493  14.857   6.762
34078SOL    HW1 4066   1.548   0.052   6.802
34078SOL    HW2 4067   1.468  14.800   6.835
34079SOL     OW 4068   8.929  12.855   2.884
34079SOL    HW1 4069   8.953  12.902   2.804
34079SOL    HW2 4070   8.833  12.864   2.888
34080SOL     OW 4071  11.492  12.783   0.578
34080SOL    HW1 4072  11.494  12.869   0.537
34080SOL    HW2 4073  11.569  12.738   0.543
34081SOL     OW 4074  12.627   2.019  12.141
34081SOL    HW1 4075  12.721   2.018  12.122
34081SOL    HW2 4076  12.590   2.081  12.078
34082SOL     OW 4077  13.319  13.382   5.579
34082SOL    HW1 4078  13.318  13.290   5.552
34082SOL    HW2 4079  13.331  13.378   5.674
34083SOL     OW 4080   5.013   2.736   7.323
34083SOL    HW1 4081   5.022   2.648   7.359
34083SOL    HW2 4082   4.919   2.753   7.323
34084SOL     OW 4083  12.992   5.450  14.858
34084SOL    HW1 4084  12.962   5.424  14.771
34084SOL    HW2 4085  13.002   5.545  14.853
34085SOL     OW 4086   4.003   6.296   1.009
34085SOL    HW1 4087   3.959   6.381   1.019
34085SOL    HW2 4088   4.039   6.299   0.920
34086SOL     OW 4089  12.952   8.421   6.480
34086SOL    HW1 4090  12.879   8.447   6.536
34086SOL    HW2 4091  13.020   8.486   6.497
34087SOL     OW 4092   6.191  11.402   9.891
34087SOL    HW1 4093   6.243  11.373   9.967
34087SOL    HW2 4094   6.190  11.326   9.833
34088SOL     OW 4095   2.350   9.785  12.854
34088SOL    HW1 4096   2.331   9.718  12.920
34088SOL    HW2 4097   2.270   9.791  12.802
34089SOL     OW 4098   4.517  12.373   6.341
34089SOL    HW1 4099   4.538  12.458   6.380
34089SOL    HW2 4100   4.447  12.338   6.396
34090SOL     OW 4101   5.037  12.072   3.008
34090SOL    HW1 4102   4.956  12.052   3.054
34090SOL    HW2 4103   5.051  12.166   3.022
34091SOL     OW 4104   8.232  10.985  14.583
34091SOL    HW1 4105   8.251  11.077  14.599
34091SOL    HW2 4106   8.261  10.940  14.663
34092SOL     OW 4107   3.504  14.357   4.308
34092SOL    HW1 4108   3.454  14.381   4.387
34092SOL    HW2 4109   3.584  14.409   4.314
34093SOL     OW 4110   0.866   9.401   4.260
34093SOL    HW1 4111   0.909   9.394   4.175
34093SOL    HW2 4112   0.788   9.455   4.243
34094SOL     OW 4113   9.679  10.238   1.762
34094SOL    HW1 4114   9.593  10.279   1.752
34094SOL    HW2 4115   9.737  10.309   1.790
34095SOL     OW 4116   1.635  13.795   8.721
34095SOL    HW1 4117   1.702  13.750   8.774
34095SOL    HW2 4118   1.669  13.792   8.632
34096SOL     OW 4119   6.600  12.939   4.980
34096SOL    HW1 4120   6.574  12.960   4.890
34096SOL    HW2 4121   6.674  12.997   4.998
34097SOL     OW 4122  13.379   1.058   1.492
34097SOL    HW1 4123  13.291   1.022   1.499
34097SOL    HW2 4124  13.418   1.011   1.417
34098SOL     OW 4125   2.475   0.516  14.434
34098SOL    HW1 4126   2.543   0.457  14.467
34098SOL    HW2 4127   2.511   0.604  14.446
34099SOL     OW 4128   6.713   5.783  11.030
34099SOL    HW1 4129   6.748   5.746  10.949
34099SOL    HW2 4130   6.783   5.840  11.063
34100SOL     OW 4131   8.569  10.126  11.819
34100SOL    HW1 4132   8.554  10.209  11.775
34100SOL    HW2 4133   8.642  10.086  11.771
34101SOL     OW 4134  12.349   0.133   1.359
34101SOL    HW1 4135  12.291   0.057   1.357
34101SOL    HW2 4136  12.295   0.205   1.326
34102SOL     OW 4137   4.839   1.129  12.169
34102SOL    HW1 4138   4.913   1.090  12.215
34102SOL    HW2 4139   4.879   1.194  12.110
34103SOL     OW 4140  10.926  12.739   1.117
34103SOL    HW1 4141  10.957  12.828   1.131
34103SOL    HW2 4142  10.976  12.708   1.041
34104SOL     OW 4143  12.679   4.584  11.696
34104SOL    HW1 4144  12.762   4.570  11.651
34104SOL    HW2 4145  12.680   4.676  11.721
34105SOL     OW 4146   7.379   1.506   8.827
34105SOL    HW1 4147   7.288   1.476   8.825
34105SOL    HW2 4148   7.429   1.433   8.789
34106SOL     OW 4149  12.159   9.735   1.304
34106SOL    HW1 4150  12.081   9.722   1.358
34106SOL    HW2 4151  12.158   9.663   1.242
34107SOL     OW 4152   4.883  14.023   9.884
34107SOL    HW1 4153   4.892  14.116   9.904
34107SOL    HW2 4154   4.908  14.015   9.792
34108SOL     OW 4155   1.682  13.114   6.152
34108SOL    HW1 4156   1.735  13.077   6.223
34108SOL    HW2 4157   1.654  13.038   6.101
34109SOL     OW 4158  14.303   6.485   5.947
34109SOL    HW1 4159  14.306   6.580   5.952
34109SOL    HW2 4160  14.246   6.459   6.020
34110SOL     OW 4161   5.480   3.299  10.726
34110SOL    HW1 4162   5.421   3.350  10.781
34110SOL    HW2 4163   5.561   3.349  10.725
34111SOL     OW 4164  10.778   4.437   3.030
34111SOL    HW1 4165  10.713   4.454   3.098
34111SOL    HW2 4166  10.809   4.348   3.047
34112SOL     OW 4167   9.706  14.627   0.907
34112SOL    HW1 4168   9.611  14.627   0.922
34112SOL    HW2 4169   9.739  14.698   0.962
34113SOL     OW 4170   9.853   8.618   5.692
34113SOL    HW1 4171   9.793   8.687   5.662
34113SOL    HW2 4172   9.914   8.607   5.620
34114SOL     OW 4173   2.308   8.132  10.597
34114SOL    HW1 4174   2.376   8.153  10.534
34114SOL    HW2 4175   2.321   8.195  10.668
34115SOL     OW 4176   3.532   1.636   6.707
34115SOL    HW1 4177   3.574   1.575   6.647
34115SOL    HW2 4178   3.486   1.698   6.651
34116SOL     OW 4179  10.429   0.119   2.296
34116SOL    HW1 4180  10.441   0.038   2.347
34116SOL    HW2 4181  10.505   0.121   2.237
34117SOL     OW 4182  14.183  10.553   0.419
34117SOL    HW1 4183  14.254  10.596   0.371
34117SOL    HW2 4184  14.225  10.480   0.464
34118SOL     OW 4185   3.761  10.936   4.858
34118SOL    HW1 4186   3.847  10.897   4.841
34118SOL    HW2 4187   3.751  11.002   4.789
34119SOL     OW 4188  11.696  14.556   9.183
34119SOL    HW1 4189  11.684  14.568   9.277
34119SOL    HW2 4190  11.773  14.609   9.161
34120SOL     OW 4191   7.009  11.905  10.172
34120SOL    HW1 4192   6.937  11.930  10.114
34120SOL    HW2 4193   6.970  11.905  10.260
34121SOL     OW 4194  13.457   2.785   1.505
34121SOL    HW1 4195  13.501   2.703   1.481
34121SOL    HW2 4196  13.364   2.763   1.506
34122SOL     OW 4197   1.462  12.472   3.161
34122SOL    HW1 4198   1.538  12.485   3.104
34122SOL    HW2 4199   1.390  12.454   3.101
34123SOL     OW 4200   5.439   8.955   5.087
34123SOL    HW1 4201   5.535   8.954   5.093
34123SOL    HW2 4202   5.411   8.880   5.139
34124SOL     OW 4203   1.508  13.247   8.064
34124SOL    HW1 4204   1.496  13.340   8.041
34124SOL    HW2 4205   1.459  13.237   8.146
34125SOL     OW 4206   2.783  10.744   5.954
34125SOL    HW1 4207   2.793  10.710   5.865
34125SOL    HW2 4208   2.712  10.692   5.991
34126SOL     OW 4209  14.308   3.890  11.378
34126SOL    HW1 4210  14.361   3.810  11.372
34126SOL    HW2 4211  14.303   3.907  11.472
34127SOL     OW 4212   0.554   0.949   8.007
34127SOL    HW1 4213   0.606   0.982   7.934
34127SOL    HW2 4214   0.520   0.865   7.977
34128SOL     OW 4215   2.671   0.735   6.853
34128SOL    HW1 4216   2.747   0.710   6.800
34128SOL    HW2 4217   2.669   0.671   6.924
34129SOL     OW 4218  13.671  11.153  14.027
34129SOL    HW1 4219  13.756  11.117  14.053
34129SOL    HW2 4220  13.688  11.192  13.941
34130SOL     OW 4221   5.357   3.689  13.112
34130SOL    HW1 4222   5.275   3.662  13.072
34130SOL    HW2 4223   5.425   3.664  13.049
34131SOL     OW 4224  11.815   0.893   4.087
34131SOL    HW1 4225  11.749   0.853   4.144
34131SOL    HW2 4226  11.897   0.884   4.134
34132SOL     OW 4227  10.437   6.594   7.222
34132SOL    HW1 4228  10.461   6.612   7.131
34132SOL    HW2 4229  10.351   6.636   7.233
34133SOL     OW 4230   7.318   4.728   2.448
34133SOL    HW1 4231   7.279   4.810   2.417
34133SOL    HW2 4232   7.263   4.703   2.523
34134SOL     OW 4233   7.929   4.568   1.225
34134SOL    HW1 4234   7.943   4.652   1.270
34134SOL    HW2 4235   8.015   4.526   1.226
34135SOL     OW 4236   5.247   0.796   0.467
34135SOL    HW1 4237   5.298   0.869   0.502
34135SOL    HW2 4238   5.311   0.744   0.418
34136SOL     OW 4239   0.921  12.832  13.754
34136SOL    HW1 4240   0.879  12.746  13.743
34136SOL    HW2 4241   0.897  12.880  13.674
34137SOL     OW 4242  14.416  12.506   2.344
34137SOL    HW1 4243  14.470  12.448   2.290
34137SOL    HW2 4244  14.456  12.501   2.431
34138SOL     OW 4245   9.430   4.492   0.773
34138SOL    HW1 4246   9.390   4.523   0.854
34138SOL    HW2 4247   9.441   4.398   0.787
34139SOL     OW 4248  11.049   6.969   7.204
34139SOL    HW1 4249  11.141   6.987   7.185
34139SOL    HW2 4250  11.022   7.042   7.260
34140SOL     OW 4251   1.245   5.679  14.756
34140SOL    HW1 4252   1.264   5.760  14.709
34140SOL    HW2 4253   1.287   5.691  14.842
34141SOL     OW 4254   5.342   8.119   0.609
34141SOL    HW1 4255   5.254   8.152   0.590
34141SOL    HW2 4256   5.375   8.091   0.523
34142SOL     OW 4257  14.313  14.198   7.784
34142SOL    HW1 4258  14.360  14.250   7.719
34142SOL    HW2 4259  14.288  14.118   7.737
34143SOL     OW 4260   0.775   4.388   0.331
34143SOL    HW1 4261   0.824   4.317   0.372
34143SOL    HW2 4262   0.768   4.455   0.400
34144SOL     OW 4263  14.725  13.570   0.167
34144SOL    HW1 4264  14.777  13.490   0.179
34144SOL    HW2 4265  14.766  13.614   0.092
34145SOL     OW 4266  13.027   8.501   2.636
34145SOL    HW1 4267  12.954   8.446   2.663
34145SOL    HW2 4268  12.989   8.589   2.628
34146SOL     OW 4269   7.116   9.309   7.623
34146SOL    HW1 4270   7.158   9.365   7.689
34146SOL    HW2 4271   7.176   9.236   7.612
34147SOL     OW 4272  11.687  10.227   5.469
34147SOL    HW1 4273  11.591  10.222   5.472
34147SOL    HW2 4274  11.708  10.240   5.377
34148SOL     OW 4275   6.720  14.597  10.268
34148SOL    HW1 4276   6.729  14.579  10.174
34148SOL    HW2 4277   6.626  14.604  10.282
34149SOL     OW 4278  13.246   2.099  13.759
34149SOL    HW1 4279  13.188   2.172  13.740
34149SOL    HW2 4280  13.334   2.136  13.758
34150SOL     OW 4281   0.390   1.804   5.266
34150SOL    HW1 4282   0.297   1.804   5.291
34150SOL    HW2 4283   0.430   1.740   5.325
34151SOL     OW 4284   6.391   1.300   1.838
34151SOL    HW1 4285   6.430   1.387   1.833
34151SOL    HW2 4286   6.431   1.260   1.915
34152SOL     OW 4287  10.997  10.862   0.712
34152SOL    HW1 4288  11.073  10.905   0.674
34152SOL    HW2 4289  10.981  10.909   0.794
34153SOL     OW 4290   6.168   3.360  11.223
34153SOL    HW1 4291   6.157   3.438  11.278
34153SOL    HW2 4292   6.200   3.293  11.283
34154SOL     OW 4293   9.813   1.031   2.088
34154SOL    HW1 4294   9.802   1.099   2.154
34154SOL    HW2 4295   9.740   1.044   2.027
34155SOL     OW 4296   0.055   7.884   1.538
34155SOL    HW1 4297  14.865   7.920   1.474
34155SOL    HW2 4298   0.013   7.805   1.572
34156SOL     OW 4299   7.326  13.607   2.736
34156SOL    HW1 4300   7.243  13.562   2.717
34156SOL    HW2 4301   7.382  13.585   2.662
34157SOL     OW 4302  14.537   3.102  11.902
34157SOL    HW1 4303  14.443   3.087  11.913
34157SOL    HW2 4304  14.578   3.032  11.953
34158SOL     OW 4305   7.301  14.747  12.163
34158SOL    HW1 4306   7.325  14.693  12.238
34158SOL    HW2 4307   7.382  14.757  12.114
34159SOL     OW 4308  10.852   8.974   9.878
34159SOL    HW1 4309  10.825   9.024   9.955
34159SOL    HW2 4310  10.830   9.030   9.804
34160SOL     OW 4311   1.656   0.507  13.318
34160SOL    HW1 4312   1.664   0.490  13.224
34160SOL    HW2 4313   1.569   0.546  13.328
34161SOL     OW 4314   3.905  10.110   8.167
34161SOL    HW1 4315   3.860  10.194   8.184
34161SOL    HW2 4316   3.918  10.109   8.072
34162SOL     OW 4317   1.377  11.439   3.346
34162SOL    HW1 4318   1.467  11.427   3.376
34162SOL    HW2 4319   1.353  11.355   3.308
34163SOL     OW 4320  13.710   4.099  11.149
34163SOL    HW1 4321  13.634   4.044  11.132
34163SOL    HW2 4322  13.680   4.164  11.213
34164SOL     OW 4323   1.548  12.107   5.576
34164SOL    HW1 4324   1.536  12.202   5.583
34164SOL    HW2 4325   1.459  12.072   5.576
34165SOL     OW 4326   2.700   2.108   0.075
34165SOL    HW1 4327   2.773   2.147   0.026
34165SOL    HW2 4328   2.714   2.014   0.068
34166SOL     OW 4329   8.590   4.330  11.026
34166SOL    HW1 4330   8.662   4.382  11.060
34166SOL    HW2 4331   8.621   4.298  10.941
34167SOL     OW 4332   4.019   9.825  14.459
34167SOL    HW1 4333   3.957   9.858  14.394
34167SOL    HW2 4334   3.996   9.732  14.468
34168SOL     OW 4335   9.549  14.712   6.052
34168SOL    HW1 4336   9.550  14.657   6.130
34168SOL    HW2 4337   9.476  14.678   5.999
34169SOL     OW 4338   1.286   0.388  14.091
34169SOL    HW1 4339   1.311   0.295  14.093
34169SOL    HW2 4340   1.292   0.416  14.182
34170SOL     OW 4341  11.878   2.095   6.552
34170SOL    HW1 4342  11.951   2.158   6.554
34170SOL    HW2 4343  11.874   2.066   6.461
34171SOL     OW 4344   4.755  10.993  11.582
34171SOL    HW1 4345   4.758  10.956  11.670
34171SOL    HW2 4346   4.676  10.956  11.543
34172SOL     OW 4347   5.616  12.710   2.610
34172SOL    HW1 4348   5.673  12.686   2.538
34172SOL    HW2 4349   5.576  12.628   2.638
34173SOL     OW 4350  14.811   3.183  11.626
34173SOL    HW1 4351  14.758   3.258  11.599
34173SOL    HW2 4352  14.871   3.168  11.553
34174SOL     OW 4353  10.158   6.272   7.507
34174SOL    HW1 4354  10.133   6.355   7.466
34174SOL    HW2 4355  10.250   6.283   7.529
34175SOL     OW 4356  13.193  11.319   7.272
34175SOL    HW1 4357  13.195  11.255   7.201
34175SOL    HW2 4358  13.285  11.328   7.299
34176SOL     OW 4359  12.535  11.875   2.504
34176SOL    HW1 4360  12.611  11.829   2.539
34176SOL    HW2 4361  12.558  11.968   2.511
34177SOL     OW 4362   1.087   6.026   1.993
34177SOL    HW1 4363   1.089   6.051   1.900
34177SOL    HW2 4364   1.050   5.938   1.994
34178SOL     OW 4365   3.067   7.837   0.300
34178SOL    HW1 4366   2.984   7.885   0.306
34178SOL    HW2 4367   3.093   7.847   0.208
34179SOL     OW 4368  13.459  11.500   8.239
34179SOL    HW1 4369  13.547  11.473   8.213
34179SOL    HW2 4370  13.435  11.567   8.175
34180SOL     OW 4371   0.969  13.734  13.279
34180SOL    HW1 4372   0.922  13.687  13.349
34180SOL    HW2 4373   1.032  13.670  13.245
34181SOL     OW 4374  13.947  10.783  11.108
34181SOL    HW1 4375  13.927  10.749  11.020
34181SOL    HW2 4376  14.017  10.725  11.140
34182SOL     OW 4377   3.282   6.966   1.582
34182SOL    HW1 4378   3.190   6.951   1.603
34182SOL    HW2 4379   3.283   7.051   1.537
34183SOL     OW 4380   3.475   5.909  11.013
34183SOL    HW1 4381   3.568   5.904  11.035
34183SOL    HW2 4382   3.430   5.894  11.096
34184SOL     OW 4383   6.971   9.818   1.008
34184SOL    HW1 4384   6.975   9.729   0.973
34184SOL    HW2 4385   6.947   9.806   1.100
34185SOL     OW 4386  13.810   9.311   3.446
34185SOL    HW1 4387  13.747   9.344   3.511
34185SOL    HW2 4388  13.853   9.238   3.490
34186SOL     OW 4389   9.735   1.139  12.675
34186SOL    HW1 4390   9.699   1.074  12.613
34186SOL    HW2 4391   9.711   1.106  12.761
34187SOL     OW 4392   1.477  12.529   3.851
34187SOL    HW1 4393   1.540  12.594   3.819
34187SOL    HW2 4394   1.413  12.521   3.780
34188SOL     OW 4395   8.176  13.059   7.738
34188SOL    HW1 4396   8.108  13.059   7.671
34188SOL    HW2 4397   8.144  13.120   7.804
34189SOL     OW 4398   8.600  12.659   2.420
34189SOL    HW1 4399   8.506  12.670   2.438
34189SOL    HW2 4400   8.642  12.671   2.505
34190SOL     OW 4401  14.506  11.193  12.142
34190SOL    HW1 4402  14.461  11.273  12.115
34190SOL    HW2 4403  14.541  11.156  12.062
34191SOL     OW 4404   1.468  14.022  12.196
34191SOL    HW1 4405   1.563  14.011  12.204
34191SOL    HW2 4406   1.457  14.111  12.163
34192SOL     OW 4407   6.677  10.857   3.910
34192SOL    HW1 4408   6.676  10.831   3.818
34192SOL    HW2 4409   6.615  10.930   3.915
34193SOL     OW 4410   3.028   4.689   3.159
34193SOL    HW1 4411   3.116   4.676   3.195
34193SOL    HW2 4412   3.010   4.609   3.110
34194SOL     OW 4413   3.385   0.902   6.215
34194SOL    HW1 4414   3.436   0.943   6.284
34194SOL    HW2 4415   3.300   0.882   6.256
34195SOL     OW 4416   0.575  12.418   2.086
34195SOL    HW1 4417   0.531  12.382   2.163
34195SOL    HW2 4418   0.668  12.418   2.109
34196SOL     OW 4419   8.303  13.688  13.197
34196SOL    HW1 4420   8.317  13.607  13.148
34196SOL    HW2 4421   8.270  13.751  13.133
34197SOL     OW 4422  10.985   5.530  13.908
34197SOL    HW1 4423  10.892   5.537  13.931
34197SOL    HW2 4424  11.031   5.540  13.992
34198SOL     OW 4425   0.231   0.713   7.327
34198SOL    HW1 4426   0.196   0.801   7.313
34198SOL    HW2 4427   0.208   0.666   7.246
34199SOL     OW 4428  10.558  11.651   1.327
34199SOL    HW1 4429  10.618  11.590   1.370
34199SOL    HW2 4430  10.471  11.623   1.356
34200SOL     OW 4431   1.654   2.172  11.454
34200SOL    HW1 4432   1.734   2.204  11.411
34200SOL    HW2 4433   1.594   2.247  11.450
34201SOL     OW 4434  12.171  12.330   4.872
34201SOL    HW1 4435  12.094  12.384   4.888
34201SOL    HW2 4436  12.239  12.369   4.927
34202SOL     OW 4437   9.598  13.039   3.332
34202SOL    HW1 4438   9.564  12.953   3.308
34202SOL    HW2 4439   9.563  13.055   3.420
34203SOL     OW 4440   4.417   9.513   1.920
34203SOL    HW1 4441   4.504   9.544   1.892
34203SOL    HW2 4442   4.396   9.443   1.859
34204SOL     OW 4443  10.061  13.203   3.294
34204SOL    HW1 4444  10.145  13.230   3.256
34204SOL    HW2 4445  10.066  13.230   3.385
34205SOL     OW 4446   9.804  14.044  11.207
34205SOL    HW1 4447   9.721  14.013  11.170
34205SOL    HW2 4448   9.817  14.130  11.167
34206SOL     OW 4449   0.707   8.260   0.296
34206SOL    HW1 4450   0.686   8.223   0.382
34206SOL    HW2 4451   0.628   8.244   0.243
34207SOL     OW 4452   0.945  10.075   6.550
34207SOL    HW1 4453   0.929  10.018   6.475
34207SOL    HW2 4454   0.859  10.088   6.589
34208SOL     OW 4455  12.083   4.665   8.244
34208SOL    HW1 4456  12.113   4.683   8.155
34208SOL    HW2 4457  12.072   4.751   8.284
34209SOL     OW 4458   8.148   2.261  13.720
34209SOL    HW1 4459   8.157   2.350  13.688
34209SOL    HW2 4460   8.169   2.206  13.644
34210SOL     OW 4461  12.440   5.497   8.087
34210SOL    HW1 4462  12.522   5.540   8.064
34210SOL    HW2 4463  12.402   5.470   8.003
34211SOL     OW 4464   1.999  13.776   5.525
34211SOL    HW1 4465   2.057  13.768   5.449
34211SOL    HW2 4466   2.051  13.741   5.598
34212SOL     OW 4467   8.430  13.164   6.920
34212SOL    HW1 4468   8.504  13.186   6.863
34212SOL    HW2 4469   8.365  13.232   6.901
34213SOL     OW 4470  10.749   1.513   9.769
34213SOL    HW1 4471  10.679   1.524   9.833
34213SOL    HW2 4472  10.799   1.438   9.801
34214SOL     OW 4473   2.756   8.514  12.948
34214SOL    HW1 4474   2.817   8.467  12.892
34214SOL    HW2 4475   2.673   8.514  12.899
34215SOL     OW 4476   5.055  12.299  10.660
34215SOL    HW1 4477   5.061  12.326  10.569
34215SOL    HW2 4478   5.107  12.218  10.664
34216SOL     OW 4479   0.704   7.826  13.650
34216SOL    HW1 4480   0.697   7.912  13.693
34216SOL    HW2 4481   0.621   7.817  13.603
34217SOL     OW 4482   3.471  12.681  14.003
34217SOL    HW1 4483   3.447  12.689  14.095
34217SOL    HW2 4484   3.409  12.737  13.957
34218SOL     OW 4485   4.736  12.699  14.145
34218SOL    HW1 4486   4.751  12.791  14.125
34218SOL    HW2 4487   4.655  12.677  14.099
34219SOL     OW 4488   2.471   1.049   3.488
34219SOL    HW1 4489   2.447   1.129   3.442
34219SOL    HW2 4490   2.565   1.057   3.504
34220SOL     OW 4491   7.533   8.210   7.562
34220SOL    HW1 4492   7.597   8.142   7.581
34220SOL    HW2 4493   7.584   8.291   7.559
34221SOL     OW 4494  14.696   7.909   1.031
34221SOL    HW1 4495  14.683   7.902   0.936
34221SOL    HW2 4496  14.743   7.830   1.055
34222SOL     OW 4497  13.364   9.389  14.540
34222SOL    HW1 4498  13.389   9.469  14.586
34222SOL    HW2 4499  13.429   9.381  14.470
34223SOL     OW 4500   3.212   8.732   0.161
34223SOL    HW1 4501   3.258   8.688   0.090
34223SOL    HW2 4502   3.280   8.782   0.206
34224SOL     OW 4503   8.944   1.792   1.025
34224SOL    HW1 4504   8.947   1.746   1.109
34224SOL    HW2 4505   8.851   1.796   1.003
34225SOL     OW 4506   0.535   0.007  12.140
34225SOL    HW1 4507   0.544  14.855  12.048
34225SOL    HW2 4508   0.579   0.092  12.147
34226SOL     OW 4509   7.464   4.100  12.729
34226SOL    HW1 4510   7.414   4.170  12.687
34226SOL    HW2 4511   7.415   4.080  12.808
34227SOL     OW 4512  12.913   0.869  12.791
34227SOL    HW1 4513  13.004   0.843  12.775
34227SOL    HW2 4514  12.864   0.833  12.717
34228SOL     OW 4515   3.746   5.330  10.669
34228SOL    HW1 4516   3.819   5.311  10.728
34228SOL    HW2 4517   3.788   5.345  10.584
34229SOL     OW 4518   1.760   7.193   6.002
34229SOL    HW1 4519   1.728   7.219   6.089
34229SOL    HW2 4520   1.769   7.098   6.008
34230SOL     OW 4521  14.386  13.939   3.484
34230SOL    HW1 4522  14.474  13.902   3.479
34230SOL    HW2 4523  14.328  13.864   3.471
34231SOL     OW 4524   6.555   4.452  11.035
34231SOL    HW1 4525   6.577   4.528  11.090
34231SOL    HW2 4526   6.633   4.439  10.981
34232SOL     OW 4527   6.084   2.772   9.030
34232SOL    HW1 4528   5.995   2.782   9.062
34232SOL    HW2 4529   6.139   2.797   9.105
34233SOL     OW 4530  14.291   4.648   1.849
34233SOL    HW1 4531  14.270   4.714   1.916
34233SOL    HW2 4532  14.315   4.699   1.772
34234SOL     OW 4533   0.198  12.678   0.971
34234SOL    HW1 4534   0.231  12.717   0.890
34234SOL    HW2 4535   0.212  12.584   0.961
34235SOL     OW 4536   6.684   4.944  14.440
34235SOL    HW1 4537   6.632   4.933  14.360
34235SOL    HW2 4538   6.773   4.961  14.408
34236SOL     OW 4539  13.976   0.173   4.180
34236SOL    HW1 4540  13.889   0.137   4.196
34236SOL    HW2 4541  13.960   0.251   4.126
34237SOL     OW 4542   8.042  11.255   5.885
34237SOL    HW1 4543   8.046  11.235   5.791
34237SOL    HW2 4544   8.020  11.172   5.927
34238SOL     OW 4545   4.666  13.686   0.386
34238SOL    HW1 4546   4.618  13.611   0.350
34238SOL    HW2 4547   4.699  13.655   0.470
34239SOL     OW 4548   7.637   9.946   5.367
34239SOL    HW1 4549   7.732   9.951   5.380
34239SOL    HW2 4550   7.605  10.033   5.390
34240SOL     OW 4551  14.287   2.361   4.214
34240SOL    HW1 4552  14.382   2.370   4.229
34240SOL    HW2 4553  14.261   2.444   4.173
34241SOL     OW 4554  13.930  11.163  12.045
34241SOL    HW1 4555  13.836  11.176  12.057
34241SOL    HW2 4556  13.970  11.194  12.126
34242SOL     OW 4557  10.942  11.042   9.030
34242SOL    HW1 4558  10.854  11.070   9.004
34242SOL    HW2 4559  10.992  11.124   9.035
34243SOL     OW 4560   0.325   6.834  14.715
34243SOL    HW1 4561   0.347   6.911  14.661
34243SOL    HW2 4562   0.266   6.782  14.660
34244SOL     OW 4563  13.581   2.292   3.426
34244SOL    HW1 4564  13.638   2.348   3.373
34244SOL    HW2 4565  13.638   2.223   3.459
34245SOL     OW 4566   3.334   4.017  14.330
34245SOL    HW1 4567   3.400   3.948  14.332
34245SOL    HW2 4568   3.333   4.053  14.419
34246SOL     OW 4569  11.474   8.620  14.670
34246SOL    HW1 4570  11.395   8.633  14.618
34246SOL    HW2 4571  11.478   8.696  14.728
34247SOL     OW 4572   9.068   0.768  10.629
34247SOL    HW1 4573   9.077   0.709  10.703
34247SOL    HW2 4574   9.124   0.730  10.561
34248SOL     OW 4575  10.863  11.441  10.737
34248SOL    HW1 4576  10.936  11.501  10.751
34248SOL    HW2 4577  10.863  11.423  10.643
34249SOL     OW 4578   6.013  13.745   1.905
34249SOL    HW1 4579   5.979  13.683   1.840
34249SOL    HW2 4580   6.088  13.700   1.944
34250SOL     OW 4581  11.142   0.637   4.057
34250SOL    HW1 4582  11.150   0.646   3.962
34250SOL    HW2 4583  11.158   0.544   4.074
34251SOL     OW 4584  12.410   2.113   9.705
34251SOL    HW1 4585  12.420   2.023   9.674
34251SOL    HW2 4586  12.370   2.159   9.631
34252SOL     OW 4587   9.432   6.792   4.152
34252SOL    HW1 4588   9.405   6.871   4.199
34252SOL    HW2 4589   9.422   6.722   4.216
34253SOL     OW 4590   2.298  11.876   1.783
34253SOL    HW1 4591   2.381  11.902   1.743
34253SOL    HW2 4592   2.231  11.910   1.724
34254SOL     OW 4593   3.645  13.707   7.557
34254SOL    HW1 4594   3.556  13.733   7.531
34254SOL    HW2 4595   3.635  13.667   7.643
34255SOL     OW 4596   9.564  12.938  10.490
34255SOL    HW1 4597   9.516  12.856  10.504
34255SOL    HW2 4598   9.506  13.005  10.526
34256SOL     OW 4599   6.900   3.708   5.803
34256SOL    HW1 4600   6.933   3.619   5.819
34256SOL    HW2 4601   6.854   3.701   5.719
34257SOL     OW 4602   1.574   5.354   7.267
34257SOL    HW1 4603   1.479   5.348   7.253
34257SOL    HW2 4604   1.585   5.434   7.318
34258SOL     OW 4605   4.912   6.517   9.026
34258SOL    HW1 4606   4.868   6.544   8.946
34258SOL    HW2 4607   4.863   6.441   9.057
34259SOL     OW 4608   7.232   7.120   3.167
34259SOL    HW1 4609   7.142   7.128   3.198
34259SOL    HW2 4610   7.223   7.087   3.077
34260SOL     OW 4611   5.869  14.531   9.668
34260SOL    HW1 4612   5.846  14.547   9.760
34260SOL    HW2 4613   5.801  14.577   9.619
34261SOL     OW 4614   8.315   2.593   7.578
34261SOL    HW1 4615   8.242   2.542   7.613
34261SOL    HW2 4616   8.382   2.527   7.558
34262SOL     OW 4617   5.300   0.262  13.530
34262SOL    HW1 4618   5.358   0.308  13.470
34262SOL    HW2 4619   5.346   0.262  13.614
34263SOL     OW 4620  10.538   8.259   5.421
34263SOL    HW1 4621  10.581   8.302   5.495
34263SOL    HW2 4622  10.543   8.165   5.442
34264SOL     OW 4623  13.829   2.431   5.919
34264SOL    HW1 4624  13.808   2.507   5.972
34264SOL    HW2 4625  13.831   2.464   5.829
34265SOL     OW 4626   0.983   0.910  12.982
34265SOL    HW1 4627   1.029   0.930  13.063
34265SOL    HW2 4628   0.930   0.833  13.003
34266SOL     OW 4629   7.112   9.952   8.159
34266SOL    HW1 4630   7.133   9.874   8.211
34266SOL    HW2 4631   7.045   9.997   8.211
34267SOL     OW 4632   5.532  12.950   3.396
34267SOL    HW1 4633   5.484  12.951   3.313
34267SOL    HW2 4634   5.598  12.882   3.384
34268SOL     OW 4635   2.490  10.304   2.513
34268SOL    HW1 4636   2.542  10.342   2.584
34268SOL    HW2 4637   2.439  10.378   2.479
34269SOL     OW 4638   4.838   5.139   0.168
34269SOL    HW1 4639   4.780   5.115   0.096
34269SOL    HW2 4640   4.807   5.225   0.196
34270SOL     OW 4641   2.725  13.591   2.214
34270SOL    HW1 4642   2.747  13.507   2.173
34270SOL    HW2 4643   2.638  13.577   2.251
34271SOL     OW 4644  14.480   0.758   9.518
34271SOL    HW1 4645  14.500   0.826   9.455
34271SOL    HW2 4646  14.402   0.714   9.482
34272SOL     OW 4647  14.511  11.942   1.738
34272SOL    HW1 4648  14.543  11.865   1.784
34272SOL    HW2 4649  14.556  12.016   1.780
34273SOL     OW 4650   3.331  14.600   5.122
34273SOL    HW1 4651   3.365  14.530   5.066
34273SOL    HW2 4652   3.382  14.594   5.203
34274SOL     OW 4653   5.415   8.362   8.848
34274SOL    HW1 4654   5.326   8.331   8.833
34274SOL    HW2 4655   5.413   8.455   8.825
34275SOL     OW 4656  12.985   0.192   9.385
34275SOL    HW1 4657  13.011   0.141   9.461
34275SOL    HW2 4658  12.944   0.129   9.326
34276SOL     OW 4659   9.559  11.520   3.297
34276SOL    HW1 4660   9.526  11.568   3.221
34276SOL    HW2 4661   9.507  11.552   3.371
34277SOL     OW 4662   7.953  11.764   5.559
34277SOL    HW1 4663   8.027  11.703   5.557
34277SOL    HW2 4664   7.882  11.713   5.599
34278SOL     OW 4665  13.397  12.306   3.672
34278SOL    HW1 4666  13.468  12.261   3.626
34278SOL    HW2 4667  13.383  12.386   3.622
34279SOL     OW 4668   0.324   4.945   8.712
34279SOL    HW1 4669   0.236   4.944   8.674
34279SOL    HW2 4670   0.380   4.909   8.644
34280SOL     OW 4671   5.392   1.478  10.521
34280SOL    HW1 4672   5.481   1.493  10.490
34280SOL    HW2 4673   5.345   1.443  10.445
34281SOL     OW 4674  14.514   8.162   6.939
34281SOL    HW1 4675  14.571   8.232   6.907
34281SOL    HW2 4676  14.453   8.145   6.867
34282SOL     OW 4677   1.521   4.870   6.625
34282SOL    HW1 4678   1.553   4.784   6.600
34282SOL    HW2 4679   1.507   4.915   6.541
34283SOL     OW 4680   4.871  12.927   8.549
34283SOL    HW1 4681   4.802  12.962   8.607
34283SOL    HW2 4682   4.939  12.994   8.551
34284SOL     OW 4683  14.091   8.662   4.020
34284SOL    HW1 4684  14.020   8.682   4.081
34284SOL    HW2 4685  14.049   8.659   3.934
34285SOL     OW 4686   3.663   2.065  13.047
34285SOL    HW1 4687   3.641   1.972  13.047
34285SOL    HW2 4688   3.579   2.110  13.035
34286SOL     OW 4689   9.765   2.980   8.066
34286SOL    HW1 4690   9.690   2.951   8.118
34286SOL    HW2 4691   9.834   2.997   8.130
34287SOL     OW 4692   4.985  14.262   8.493
34287SOL    HW1 4693   4.920  14.332   8.502
34287SOL    HW2 4694   5.068  14.303   8.517
34288SOL     OW 4695   5.873   9.004  12.185
34288SOL    HW1 4696   5.862   8.993  12.091
34288SOL    HW2 4697   5.784   9.000  12.221
34289SOL     OW 4698   5.305   5.691   2.852
34289SOL    HW1 4699   5.260   5.648   2.779
34289SOL    HW2 4700   5.387   5.643   2.861
34290SOL     OW 4701   7.295  12.076   9.183
34290SOL    HW1 4702   7.256  12.159   9.210
34290SOL    HW2 4703   7.354  12.053   9.254
34291SOL     OW 4704   4.479   8.495   1.229
34291SOL    HW1 4705   4.447   8.519   1.317
34291SOL    HW2 4706   4.415   8.430   1.198
34292SOL     OW 4707   0.379  13.615   8.659
34292SOL    HW1 4708   0.417  13.545   8.605
34292SOL    HW2 4709   0.446  13.634   8.724
34293SOL     OW 4710   2.979  13.432  14.235
34293SOL    HW1 4711   2.928  13.404  14.160
34293SOL    HW2 4712   2.955  13.524  14.247
34294SOL     OW 4713  12.028   5.663   9.632
34294SOL    HW1 4714  11.936   5.654   9.607
34294SOL    HW2 4715  12.074   5.603   9.573
34295SOL     OW 4716   1.916   2.089  10.953
34295SOL    HW1 4717   1.878   2.007  10.923
34295SOL    HW2 4718   2.010   2.070  10.961
34296SOL     OW 4719   3.348   7.934   2.904
34296SOL    HW1 4720   3.368   7.898   2.818
34296SOL    HW2 4721   3.271   7.989   2.890
34297SOL     OW 4722  13.732  14.250   9.790
34297SOL    HW1 4723  13.694  14.308   9.724
34297SOL    HW2 4724  13.806  14.208   9.746
34298SOL     OW 4725  13.582   9.692  14.031
34298SOL    HW1 4726  13.547   9.604  14.016
34298SOL    HW2 4727  13.651   9.703  13.966
34299SOL     OW 4728   5.510   5.378   5.915
34299SOL    HW1 4729   5.575   5.448   5.920
34299SOL    HW2 4730   5.505   5.344   6.005
34300SOL     OW 4731  10.914   1.826   3.224
34300SOL    HW1 4732  10.879   1.767   3.290
34300SOL    HW2 4733  11.005   1.800   3.214
34301SOL     OW 4734   1.636  10.118   7.608
34301SOL    HW1 4735   1.541  10.114   7.612
34301SOL    HW2 4736   1.657  10.090   7.518
34302SOL     OW 4737   7.244  10.557   9.425
34302SOL    HW1 4738   7.256  10.468   9.392
34302SOL    HW2 4739   7.150  10.573   9.417
34303SOL     OW 4740  11.494  13.691  10.079
34303SOL    HW1 4741  11.509  13.625  10.010
34303SOL    HW2 4742  11.582  13.718  10.106
34304SOL     OW 4743   2.121   5.552   9.368
34304SOL    HW1 4744   2.116   5.624   9.432
34304SOL    HW2 4745   2.083   5.589   9.288
34305SOL     OW 4746   3.227  12.104   0.160
34305SOL    HW1 4747   3.287  12.176   0.138
34305SOL    HW2 4748   3.257  12.073   0.246
34306SOL     OW 4749   4.148  12.563   6.519
34306SOL    HW1 4750   4.205  12.522   6.584
34306SOL    HW2 4751   4.061  12.562   6.558
34307SOL     OW 4752   4.675   6.008   2.166
34307SOL    HW1 4753   4.633   6.093   2.178
34307SOL    HW2 4754   4.647   5.979   2.079
34308SOL     OW 4755  14.356  14.493   2.582
34308SOL    HW1 4756  14.384  14.401   2.589
34308SOL    HW2 4757  14.436  14.543   2.593
34309SOL     OW 4758   4.064   2.672   5.941
34309SOL    HW1 4759   4.099   2.635   5.860
34309SOL    HW2 4760   4.099   2.615   6.010
34310SOL     OW 4761   6.397   3.767  14.154
34310SOL    HW1 4762   6.427   3.858  14.159
34310SOL    HW2 4763   6.477   3.716  14.141
34311SOL     OW 4764   6.040  12.196  11.076
34311SOL    HW1 4765   6.008  12.268  11.131
34311SOL    HW2 4766   6.126  12.174  11.113
34312SOL     OW 4767   7.943   2.704   8.056
34312SOL    HW1 4768   7.945   2.741   7.968
34312SOL    HW2 4769   8.035   2.686   8.077
34313SOL     OW 4770   3.819  13.376   2.466
34313SOL    HW1 4771   3.798  13.284   2.450
34313SOL    HW2 4772   3.881  13.399   2.397
34314SOL     OW 4773   4.993   0.424   4.499
34314SOL    HW1 4774   4.917   0.458   4.452
34314SOL    HW2 4775   4.976   0.443   4.591
34315SOL     OW 4776   9.535   7.960  12.324
34315SOL    HW1 4777   9.604   7.919  12.376
34315SOL    HW2 4778   9.531   7.909  12.243
34316SOL     OW 4779   6.706  12.799   3.937
34316SOL    HW1 4780   6.797  12.784   3.911
34316SOL    HW2 4781   6.700  12.761   4.024
34317SOL     OW 4782  11.613  14.155   9.035
34317SOL    HW1 4783  11.535  14.210   9.034
34317SOL    HW2 4784  11.615  14.113   8.949
34318SOL     OW 4785   7.060   9.616  10.048
34318SOL    HW1 4786   6.965   9.623  10.039
34318SOL    HW2 4787   7.094   9.636   9.961
34319SOL     OW 4788   9.783   7.519   5.057
34319SOL    HW1 4789   9.793   7.489   4.967
34319SOL    HW2 4790   9.739   7.603   5.049
34320SOL     OW 4791   2.124  12.898   5.195
34320SOL    HW1 4792   2.048  12.872   5.246
34320SOL    HW2 4793   2.088  12.955   5.127
34321SOL     OW 4794   7.280   1.152  10.544
34321SOL    HW1 4795   7.362   1.200  10.538
34321SOL    HW2 4796   7.213   1.221  10.551
34322SOL     OW 4797   7.031   6.103  12.081
34322SOL    HW1 4798   6.996   6.138  11.999
34322SOL    HW2 4799   7.047   6.010  12.062
34323SOL     OW 4800  12.317   4.167   3.146
34323SOL    HW1 4801  12.401   4.133   3.116
34323SOL    HW2 4802  12.322   4.162   3.241
34324SOL     OW 4803   8.881   2.084  10.577
34324SOL    HW1 4804   8.921   2.114  10.659
34324SOL    HW2 4805   8.942   2.019  10.543
34325SOL     OW 4806  10.603  13.021  14.485
34325SOL    HW1 4807  10.664  12.972  14.540
34325SOL    HW2 4808  10.536  12.956  14.461
34326SOL     OW 4809  10.710  12.358  10.841
34326SOL    HW1 4810  10.747  12.298  10.907
34326SOL    HW2 4811  10.776  12.427  10.832
34327SOL     OW 4812   1.515  11.389   1.834
34327SOL    HW1 4813   1.435  11.385   1.886
34327SOL    HW2 4814   1.584  11.360   1.894
34328SOL     OW 4815   5.321   0.383   1.664
34328SOL    HW1 4816   5.248   0.324   1.645
34328SOL    HW2 4817   5.394   0.347   1.614
34329SOL     OW 4818  14.177   1.465  12.309
34329SOL    HW1 4819  14.263   1.481  12.269
34329SOL    HW2 4820  14.141   1.553  12.323
34330SOL     OW 4821  12.539   6.636   3.609
34330SOL    HW1 4822  12.628   6.656   3.636
34330SOL    HW2 4823  12.544   6.626   3.514
34331SOL     OW 4824   2.919   4.221   8.486
34331SOL    HW1 4825   2.930   4.270   8.567
34331SOL    HW2 4826   2.847   4.266   8.441
34332SOL     OW 4827  10.036  10.842   8.925
34332SOL    HW1 4828   9.972  10.803   8.984
34332SOL    HW2 4829  10.029  10.791   8.844
34333SOL     OW 4830   6.518   2.457  10.328
34333SOL    HW1 4831   6.601   2.411  10.318
34333SOL    HW2 4832   6.458   2.413  10.269
34334SOL     OW 4833  13.017   3.339  11.979
34334SOL    HW1 4834  13.100   3.340  11.932
34334SOL    HW2 4835  13.009   3.427  12.016
34335SOL     OW 4836  12.769  12.775   0.868
34335SOL    HW1 4837  12.786  12.689   0.832
34335SOL    HW2 4838  12.682  12.769   0.907
34336SOL     OW 4839  10.452   9.542   1.475
34336SOL    HW1 4840  10.473   9.580   1.560
34336SOL    HW2 4841  10.408   9.613   1.427
34337SOL     OW 4842  12.760  12.317  14.658
34337SOL    HW1 4843  12.722  12.345  14.574
34337SOL    HW2 4844  12.698  12.251  14.690
34338SOL     OW 4845   8.968  12.937   2.011
34338SOL    HW1 4846   8.968  12.843   2.027
34338SOL    HW2 4847   9.023  12.949   1.933
34339SOL     OW 4848   4.344   7.657   6.798
34339SOL    HW1 4849   4.380   7.569   6.799
34339SOL    HW2 4850   4.259   7.649   6.842
34340SOL     OW 4851   9.659   9.352   4.427
34340SOL    HW1 4852   9.578   9.385   4.466
34340SOL    HW2 4853   9.634   9.326   4.338
34341SOL     OW 4854   6.806   2.033   9.502
34341SOL    HW1 4855   6.828   2.102   9.565
34341SOL    HW2 4856   6.887   2.019   9.453
34342SOL     OW 4857  13.483   5.015   2.567
34342SOL    HW1 4858  13.552   5.031   2.632
34342SOL    HW2 4859  13.529   5.001   2.485
34343SOL     OW 4860  12.384   1.055  13.234
34343SOL    HW1 4861  12.455   1.063  13.297
34343SOL    HW2 4862  12.320   1.122  13.260
34344SOL     OW 4863   2.898  11.185   4.968
34344SOL    HW1 4864   2.946  11.110   4.935
34344SOL    HW2 4865   2.835  11.149   5.031
34345SOL     OW 4866   5.916  12.377  11.875
34345SOL    HW1 4867   6.008  12.368  11.848
34345SOL    HW2 4868   5.886  12.457  11.831
34346SOL     OW 4869   6.296  14.499   6.297
34346SOL    HW1 4870   6.326  14.480   6.208
34346SOL    HW2 4871   6.249  14.420   6.324
34347SOL     OW 4872   4.128   5.046  10.966
34347SOL    HW1 4873   4.118   5.010  11.054
34347SOL    HW2 4874   4.217   5.022  10.941
34348SOL     OW 4875   9.030  10.281   7.216
34348SOL    HW1 4876   9.126  10.279   7.223
34348SOL    HW2 4877   9.013  10.332   7.137
34349SOL     OW 4878   9.115  10.212  13.366
34349SOL    HW1 4879   9.023  10.189  13.359
34349SOL    HW2 4880   9.132  10.216  13.460
34350SOL     OW 4881   0.080   1.194   0.526
34350SOL    HW1 4882   0.136   1.263   0.560
34350SOL    HW2 4883   0.006   1.240   0.487
34351SOL     OW 4884  10.401   5.984   8.341
34351SOL    HW1 4885  10.391   5.988   8.246
34351SOL    HW2 4886  10.495   5.972   8.355
34352SOL     OW 4887   4.491  13.713   5.303
34352SOL    HW1 4888   4.415  13.659   5.281
34352SOL    HW2 4889   4.454  13.795   5.333
34353SOL     OW 4890   8.840  11.862  13.418
34353SOL    HW1 4891   8.901  11.916  13.368
34353SOL    HW2 4892   8.785  11.925  13.465
34354SOL     OW 4893   3.662   0.416  10.760
34354SOL    HW1 4894   3.701   0.331  10.779
34354SOL    HW2 4895   3.731   0.479  10.779
34355SOL     OW 4896   8.126   7.023   4.487
34355SOL    HW1 4897   8.177   7.065   4.418
34355SOL    HW2 4898   8.155   7.066   4.567
34356SOL     OW 4899   4.099  11.370   6.284
34356SOL    HW1 4900   4.072  11.349   6.373
34356SOL    HW2 4901   4.180  11.420   6.295
34357SOL     OW 4902   6.601   2.333   5.432
34357SOL    HW1 4903   6.576   2.342   5.524
34357SOL    HW2 4904   6.572   2.245   5.408
34358SOL     OW 4905   2.222   8.655  14.413
34358SOL    HW1 4906   2.212   8.740  14.371
34358SOL    HW2 4907   2.275   8.673  14.491
34359SOL     OW 4908   6.799  14.181   7.303
34359SOL    HW1 4909   6.773  14.227   7.383
34359SOL    HW2 4910   6.732  14.204   7.239
34360SOL     OW 4911   1.462   4.158  11.327
34360SOL    HW1 4912   1.387   4.118  11.371
34360SOL    HW2 4913   1.429   4.241  11.294
34361SOL     OW 4914   8.575   1.243  14.737
34361SOL    HW1 4915   8.531   1.324  14.761
34361SOL    HW2 4916   8.614   1.261  14.651
34362SOL     OW 4917   4.485   3.594  13.972
34362SOL    HW1 4918   4.405   3.642  13.993
34362SOL    HW2 4919   4.529   3.650  13.908
34363SOL     OW 4920   6.308  12.310   6.097
34363SOL    HW1 4921   6.286  12.225   6.134
34363SOL    HW2 4922   6.323  12.366   6.174
34364SOL     OW 4923  10.141   8.941   6.702
34364SOL    HW1 4924  10.051   8.941   6.736
34364SOL    HW2 4925  10.129   8.941   6.607
34365SOL     OW 4926   8.071   1.990  12.637
34365SOL    HW1 4927   8.098   2.079  12.659
34365SOL    HW2 4928   7.988   1.978  12.684
34366SOL     OW 4929   3.475   9.431   7.600
34366SOL    HW1 4930   3.542   9.465   7.540
34366SOL    HW2 4931   3.524   9.404   7.677
34367SOL     OW 4932   8.654   6.231   5.308
34367SOL    HW1 4933   8.697   6.262   5.228
34367SOL    HW2 4934   8.670   6.137   5.308
34368SOL     OW 4935   0.372   2.622   9.056
34368SOL    HW1 4936   0.424   2.650   9.131
34368SOL    HW2 4937   0.435   2.613   8.984
34369SOL     OW 4938   2.273   7.144   9.094
34369SOL    HW1 4939   2.183   7.126   9.066
34369SOL    HW2 4940   2.271   7.132   9.189
34370SOL     OW 4941   9.046   0.717   9.022
34370SOL    HW1 4942   9.132   0.678   9.040
34370SOL    HW2 4943   8.991   0.690   9.096
34371SOL     OW 4944   3.335   7.540   7.850
34371SOL    HW1 4945   3.262   7.492   7.889
34371SOL    HW2 4946   3.349   7.615   7.907
34372SOL     OW 4947   8.277  11.924  13.111
34372SOL    HW1 4948   8.213  11.949  13.043
34372SOL    HW2 4949   8.223  11.901  13.186
34373SOL     OW 4950   7.442   1.242   7.958
34373SOL    HW1 4951   7.535   1.219   7.961
34373SOL    HW2 4952   7.440   1.337   7.968
34374SOL     OW 4953   6.979  12.452   6.601
34374SOL    HW1 4954   6.983  12.426   6.509
34374SOL    HW2 4955   6.994  12.371   6.650
34375SOL     OW 4956   0.843  11.824  14.000
34375SOL    HW1 4957   0.847  11.858  14.089
34375SOL    HW2 4958   0.833  11.901  13.944
34376SOL     OW 4959   5.445   7.252   2.815
34376SOL    HW1 4960   5.517   7.208   2.771
34376SOL    HW2 4961   5.453   7.227   2.907
34377SOL     OW 4962  13.511   7.728   8.577
34377SOL    HW1 4963  13.560   7.757   8.500
34377SOL    HW2 4964  13.562   7.655   8.613
34378SOL     OW 4965   6.379  10.192   6.026
34378SOL    HW1 4966   6.426  10.275   6.027
34378SOL    HW2 4967   6.394  10.155   6.113
34379SOL     OW 4968  14.332   6.373   2.910
34379SOL    HW1 4969  14.411   6.332   2.946
34379SOL    HW2 4970  14.274   6.299   2.891
34380SOL     OW 4971   5.317   3.817   5.205
34380SOL    HW1 4972   5.372   3.766   5.265
34380SOL    HW2 4973   5.243   3.759   5.186
34381SOL     OW 4974   9.017   3.056   1.203
34381SOL    HW1 4975   9.089   3.063   1.140
34381SOL    HW2 4976   8.949   3.113   1.167
34382SOL     OW 4977   6.896  10.871   5.325
34382SOL    HW1 4978   6.808  10.878   5.363
34382SOL    HW2 4979   6.888  10.914   5.240
34383SOL     OW 4980   0.752   1.368  11.845
34383SOL    HW1 4981   0.830   1.409  11.883
34383SOL    HW2 4982   0.774   1.275  11.838
34384SOL     OW 4983  12.691  12.215   7.400
34384SOL    HW1 4984  12.634  12.181   7.470
34384SOL    HW2 4985  12.759  12.264   7.446
34385SOL     OW 4986   3.766  10.111  13.125
34385SOL    HW1 4987   3.781  10.134  13.033
34385SOL    HW2 4988   3.671  10.114  13.135
34386SOL     OW 4989   2.150   0.805  11.282
34386SOL    HW1 4990   2.107   0.784  11.199
34386SOL    HW2 4991   2.241   0.777  11.271
34387SOL     OW 4992   3.021   4.300   5.485
34387SOL    HW1 4993   3.005   4.327   5.575
34387SOL    HW2 4994   3.031   4.383   5.437
34388SOL     OW 4995  13.827   4.069   5.201
34388SOL    HW1 4996  13.869   4.117   5.274
34388SOL    HW2 4997  13.826   4.132   5.129
34389SOL     OW 4998   3.476  12.850   9.912
34389SOL    HW1 4999   3.386  12.831   9.939
34389SOL    HW2 5000   3.470  12.865   9.818
34390SOL     OW 5001  13.561   4.782   3.187
34390SOL    HW1 5002  13.594   4.771   3.098
34390SOL    HW2 5003  13.639   4.797   3.240
34391SOL     OW 5004  14.392  13.884   1.415
34391SOL    HW1 5005  14.314  13.832   1.433
34391SOL    HW2 5006  14.359  13.971   1.395
34392SOL     OW 5007  14.751   5.534  11.832
34392SOL    HW1 5008  14.701   5.487  11.898
34392SOL    HW2 5009  14.753   5.624  11.863
34393SOL     OW 5010   3.093   1.090   4.017
34393SOL    HW1 5011   3.068   1.177   3.987
34393SOL    HW2 5012   3.015   1.036   4.002
34394SOL     OW 5013   3.711   9.524   7.488
34394SOL    HW1 5014   3.733   9.542   7.579
34394SOL    HW2 5015   3.706   9.610   7.446
34395SOL     OW 5016   0.279   8.480   5.650
34395SOL    HW1 5017   0.221   8.427   5.595
34395SOL    HW2 5018   0.228   8.496   5.730
34396SOL     OW 5019   6.076   0.512   9.959
34396SOL    HW1 5020   6.040   0.593   9.924
34396SOL    HW2 5021   6.126   0.474   9.886
34397SOL     OW 5022   5.059   1.355   0.542
34397SOL    HW1 5023   5.011   1.411   0.481
34397SOL    HW2 5024   5.085   1.414   0.613
34398SOL     OW 5025  12.798   3.057   9.803
34398SOL    HW1 5026  12.760   2.976   9.837
34398SOL    HW2 5027  12.740   3.082   9.731
34399SOL     OW 5028   4.590   0.589   4.430
34399SOL    HW1 5029   4.553   0.594   4.518
34399SOL    HW2 5030   4.558   0.668   4.386
34400SOL     OW 5031   4.420   6.487  12.867
34400SOL    HW1 5032   4.476   6.428  12.918
34400SOL    HW2 5033   4.445   6.472  12.776
34401SOL     OW 5034  12.205   9.129   5.975
34401SOL    HW1 5035  12.153   9.071   5.920
34401SOL    HW2 5036  12.296   9.107   5.955
34402SOL     OW 5037  10.602   3.393  13.682
34402SOL    HW1 5038  10.651   3.475  13.680
34402SOL    HW2 5039  10.634   3.344  13.606
34403SOL     OW 5040   6.622  13.910   2.935
34403SOL    HW1 5041   6.581  13.823   2.933
34403SOL    HW2 5042   6.554  13.970   2.905
34404SOL     OW 5043   5.735   1.423  10.649
34404SOL    HW1 5044   5.737   1.511  10.612
34404SOL    HW2 5045   5.778   1.368  10.583
34405SOL     OW 5046   9.293   3.897  13.654
34405SOL    HW1 5047   9.328   3.986  13.646
34405SOL    HW2 5048   9.209   3.899  13.609
34406SOL     OW 5049  11.300  10.142   5.746
34406SOL    HW1 5050  11.319  10.090   5.824
34406SOL    HW2 5051  11.212  10.177   5.761
34407SOL     OW 5052   6.669  11.839   3.747
34407SOL    HW1 5053   6.743  11.857   3.805
34407SOL    HW2 5054   6.706  11.788   3.675
34408SOL     OW 5055   5.475  11.074   8.704
34408SOL    HW1 5056   5.416  11.037   8.770
34408SOL    HW2 5057   5.488  11.004   8.640
34409SOL     OW 5058   1.919   6.518   7.587
34409SOL    HW1 5059   1.903   6.531   7.494
34409SOL    HW2 5060   1.948   6.604   7.619
34410SOL     OW 5061   4.622  14.800   6.176
34410SOL    HW1 5062   4.686  14.871   6.174
34410SOL    HW2 5063   4.667  14.725   6.139
34411SOL     OW 5064   7.106  12.372  10.665
34411SOL    HW1 5065   7.183  12.352  10.719
34411SOL    HW2 5066   7.037  12.390  10.728
34412SOL     OW 5067   2.057   4.212   9.994
34412SOL    HW1 5068   1.978   4.158   9.987
34412SOL    HW2 5069   2.060   4.260   9.911
34413SOL     OW 5070   5.475   8.475   7.621
34413SOL    HW1 5071   5.542   8.422   7.578
34413SOL    HW2 5072   5.399   8.417   7.627
34414SOL     OW 5073   0.984  14.495   7.525
34414SOL    HW1 5074   1.070  14.482   7.564
34414SOL    HW2 5075   0.940  14.411   7.532
34415SOL     OW 5076   2.343   8.832   3.462
34415SOL    HW1 5077   2.270   8.854   3.404
34415SOL    HW2 5078   2.329   8.740   3.482
34416SOL     OW 5079   0.069   6.288   1.402
34416SOL    HW1 5080   0.046   6.196   1.414
34416SOL    HW2 5081   0.147   6.301   1.455
34417SOL     OW 5082  11.490   2.857  12.901
34417SOL    HW1 5083  11.565   2.908  12.873
34417SOL    HW2 5084  11.527   2.776  12.936
34418SOL     OW 5085   8.449  12.868   1.494
34418SOL    HW1 5086   8.356  12.850   1.512
34418SOL    HW2 5087   8.449  12.906   1.406
34419SOL     OW 5088  13.087   8.463   6.200
34419SOL    HW1 5089  13.117   8.374   6.182
34419SOL    HW2 5090  13.125   8.485   6.285
34420SOL     OW 5091   6.066  13.633   6.867
34420SOL    HW1 5092   6.140  13.574   6.858
34420SOL    HW2 5093   6.089  13.710   6.815
34421SOL     OW 5094   8.862   9.213   3.146
34421SOL    HW1 5095   8.902   9.141   3.194
34421SOL    HW2 5096   8.771   9.186   3.134
34422SOL     OW 5097   9.066   9.548   2.792
34422SOL    HW1 5098   9.067   9.512   2.881
34422SOL    HW2 5099   8.999   9.615   2.793
34423SOL     OW 5100   2.129   8.998   8.546
34423SOL    HW1 5101   2.044   8.956   8.546
34423SOL    HW2 5102   2.160   8.989   8.456
34424SOL     OW 5103   3.181  13.909   8.294
34424SOL    HW1 5104   3.217  13.828   8.329
34424SOL    HW2 5105   3.196  13.974   8.362
34425SOL     OW 5106  11.534   4.578   4.968
34425SOL    HW1 5107  11.502   4.658   5.010
34425SOL    HW2 5108  11.496   4.580   4.881
34426SOL     OW 5109   4.691   9.778   0.180
34426SOL    HW1 5110   4.725   9.690   0.200
34426SOL    HW2 5111   4.761   9.837   0.208
34427SOL     OW 5112   3.323   9.637   3.780
34427SOL    HW1 5113   3.368   9.643   3.864
34427SOL    HW2 5114   3.391   9.610   3.718
34428SOL     OW 5115   6.280  12.569  13.304
34428SOL    HW1 5116   6.233  12.545  13.223
34428SOL    HW2 5117   6.349  12.629  13.274
34429SOL     OW 5118   3.091   9.016  12.077
34429SOL    HW1 5119   3.008   9.050  12.111
34429SOL    HW2 5120   3.079   9.017  11.982
34430SOL     OW 5121  13.033  13.921  14.752
34430SOL    HW1 5122  12.997  13.871  14.825
34430SOL    HW2 5123  13.124  13.891  14.745
34431SOL     OW 5124   7.028   0.418   2.154
34431SOL    HW1 5125   6.981   0.484   2.104
34431SOL    HW2 5126   7.117   0.452   2.163
34432SOL     OW 5127  14.841  10.745   3.986
34432SOL    HW1 5128   0.055  10.718   3.955
34432SOL    HW2 5129  14.784  10.671   3.965
34433SOL     OW 5130  11.598   0.575  14.411
34433SOL    HW1 5131  11.684   0.593  14.372
34433SOL    HW2 5132  11.541   0.560  14.335
34434SOL     OW 5133   2.860   4.225   7.944
34434SOL    HW1 5134   2.853   4.288   7.872
34434SOL    HW2 5135   2.876   4.279   8.022
34435SOL     OW 5136  13.877   8.889   7.524
34435SOL    HW1 5137  13.806   8.940   7.563
34435SOL    HW2 5138  13.922   8.850   7.599
34436SOL     OW 5139   1.461   4.893  13.038
34436SOL    HW1 5140   1.481   4.927  12.951
34436SOL    HW2 5141   1.529   4.930  13.094
34437SOL     OW 5142   5.622  10.601   5.666
34437SOL    HW1 5143   5.716  10.588   5.681
34437SOL    HW2 5144   5.613  10.601   5.570
34438SOL     OW 5145   8.065   1.081   6.869
34438SOL    HW1 5146   8.059   1.098   6.963
34438SOL    HW2 5147   7.984   1.034   6.849
34439SOL     OW 5148   5.967   6.124   0.711
34439SOL    HW1 5149   5.893   6.126   0.772
34439SOL    HW2 5150   5.970   6.213   0.675
34440SOL     OW 5151   8.262   8.262   4.261
34440SOL    HW1 5152   8.229   8.298   4.343
34440SOL    HW2 5153   8.186   8.262   4.202
34441SOL     OW 5154  10.263   3.895   2.845
34441SOL    HW1 5155  10.244   3.852   2.762
34441SOL    HW2 5156  10.261   3.989   2.825
34442SOL     OW 5157   0.785   2.972   6.231
34442SOL    HW1 5158   0.775   2.995   6.138
34442SOL    HW2 5159   0.833   2.890   6.231
34443SOL     OW 5160   3.016   5.627  12.100
34443SOL    HW1 5161   3.045   5.546  12.141
34443SOL    HW2 5162   2.973   5.600  12.019
34444SOL     OW 5163   3.357  14.562   7.357
34444SOL    HW1 5164   3.382  14.497   7.422
34444SOL    HW2 5165   3.303  14.625   7.405
34445SOL     OW 5166   0.430   0.356   0.007
34445SOL    HW1 5167   0.524   0.375   0.017
34445SOL    HW2 5168   0.409   0.305   0.086
34446SOL     OW 5169   8.279  11.007  10.039
34446SOL    HW1 5170   8.352  10.999   9.978
34446SOL    HW2 5171   8.214  10.944  10.007
34447SOL     OW 5172   0.668   7.166  10.897
34447SOL    HW1 5173   0.627   7.082  10.920
34447SOL    HW2 5174   0.596   7.229  10.901
34448SOL     OW 5175   5.752   8.114  10.918
34448SOL    HW1 5176   5.800   8.066  10.986
34448SOL    HW2 5177   5.681   8.156  10.965
34449SOL     OW 5178   5.541   3.476   7.888
34449SOL    HW1 5179   5.559   3.463   7.795
34449SOL    HW2 5180   5.627   3.485   7.929
34450SOL     OW 5181   1.754   1.635   7.259
34450SOL    HW1 5182   1.789   1.704   7.203
34450SOL    HW2 5183   1.783   1.659   7.347
34451SOL     OW 5184   7.233  11.096   2.935
34451SOL    HW1 5185   7.183  11.178   2.946
34451SOL    HW2 5186   7.281  11.109   2.853
34452SOL     OW 5187   5.432   6.184   4.245
34452SOL    HW1 5188   5.523   6.155   4.254
34452SOL    HW2 5189   5.392   6.119   4.186
34453SOL     OW 5190   2.776  13.333   7.863
34453SOL    HW1 5191   2.733  13.396   7.806
34453SOL    HW2 5192   2.805  13.263   7.804
34454SOL     OW 5193   3.657  12.695   9.659
34454SOL    HW1 5194   3.671  12.769   9.718
34454SOL    HW2 5195   3.706  12.718   9.580
34455SOL     OW 5196   1.778   8.450  11.397
34455SOL    HW1 5197   1.751   8.424  11.486
34455SOL    HW2 5198   1.700   8.490  11.359
34456SOL     OW 5199   1.914   6.021   5.454
34456SOL    HW1 5200   1.891   5.956   5.520
34456SOL    HW2 5201   1.869   5.992   5.375
34457SOL     OW 5202   1.684   0.885  13.787
34457SOL    HW1 5203   1.594   0.904  13.759
34457SOL    HW2 5204   1.722   0.971  13.807
34458SOL     OW 5205   4.489   1.485   3.306
34458SOL    HW1 5206   4.465   1.500   3.398
34458SOL    HW2 5207   4.502   1.391   3.299
34459SOL     OW 5208   8.662  11.291  12.694
34459SOL    HW1 5209   8.729  11.317  12.757
34459SOL    HW2 5210   8.635  11.204  12.723
34460SOL     OW 5211   8.801   3.272   1.055
34460SOL    HW1 5212   8.787   3.245   1.146
34460SOL    HW2 5213   8.798   3.368   1.058
34461SOL     OW 5214   8.142  14.508   4.768
34461SOL    HW1 5215   8.180  14.471   4.689
34461SOL    HW2 5216   8.117  14.597   4.744
34462SOL     OW 5217  13.088   6.659  11.013
34462SOL    HW1 5218  13.067   6.577  10.970
34462SOL    HW2 5219  13.020   6.670  11.079
34463SOL     OW 5220   3.072   3.570   3.937
34463SOL    HW1 5221   3.132   3.620   3.880
34463SOL    HW2 5222   3.094   3.479   3.920
34464SOL     OW 5223   7.608  10.334  14.300
34464SOL    HW1 5224   7.627  10.358  14.391
34464SOL    HW2 5225   7.679  10.275  14.276
34465SOL     OW 5226   6.045   5.504   7.391
34465SOL    HW1 5227   6.048   5.411   7.413
34465SOL    HW2 5228   5.957   5.518   7.357
34466SOL     OW 5229   9.867  12.727   3.943
34466SOL    HW1 5230   9.837  12.780   3.869
34466SOL    HW2 5231   9.866  12.786   4.017
34467SOL     OW 5232   9.183   2.027   8.339
34467SOL    HW1 5233   9.211   1.935   8.338
34467SOL    HW2 5234   9.089   2.023   8.319
34468SOL     OW 5235   2.436   6.668  10.360
34468SOL    HW1 5236   2.513   6.652  10.306
34468SOL    HW2 5237   2.470   6.672  10.450
34469SOL     OW 5238  14.817   7.454  13.105
34469SOL    HW1 5239  14.790   7.542  13.079
34469SOL    HW2 5240   0.036   7.447  13.075
34470SOL     OW 5241   2.169   7.203   5.399
34470SOL    HW1 5242   2.246   7.258   5.411
34470SOL    HW2 5243   2.140   7.220   5.309
34471SOL     OW 5244  10.495  10.587  14.840
34471SOL    HW1 5245  10.507  10.676  14.871
34471SOL    HW2 5246  10.414  10.590  14.788
34472SOL     OW 5247  11.027   5.162   1.569
34472SOL    HW1 5248  10.948   5.186   1.520
34472SOL    HW2 5249  11.011   5.072   1.597
34473SOL     OW 5250   5.347   4.734   0.852
34473SOL    HW1 5251   5.267   4.760   0.806
34473SOL    HW2 5252   5.339   4.639   0.863
34474SOL     OW 5253   9.374   1.670  14.261
34474SOL    HW1 5254   9.296   1.652  14.314
34474SOL    HW2 5255   9.340   1.704  14.178
34475SOL     OW 5256  13.624  10.275   5.752
34475SOL    HW1 5257  13.670  10.235   5.826
34475SOL    HW2 5258  13.597  10.361   5.783
34476SOL     OW 5259   2.610  10.799   8.552
34476SOL    HW1 5260   2.675  10.787   8.622
34476SOL    HW2 5261   2.526  10.805   8.598
34477SOL     OW 5262  11.621   7.219   4.057
34477SOL    HW1 5263  11.623   7.264   4.142
34477SOL    HW2 5264  11.686   7.266   4.004
34478SOL     OW 5265   3.034   5.629   0.981
34478SOL    HW1 5266   2.946   5.663   0.970
34478SOL    HW2 5267   3.090   5.688   0.929
34479SOL     OW 5268   6.085   0.139   6.637
34479SOL    HW1 5269   6.046   0.128   6.724
34479SOL    HW2 5270   6.094   0.050   6.603
34480SOL     OW 5271  14.292   0.733  11.540
34480SOL    HW1 5272  14.350   0.778  11.601
34480SOL    HW2 5273  14.315   0.640  11.548
34481SOL     OW 5274   8.400  14.010   6.442
34481SOL    HW1 5275   8.377  13.928   6.486
34481SOL    HW2 5276   8.354  14.078   6.493
34482SOL     OW 5277   9.512  13.742   4.865
34482SOL    HW1 5278   9.419  13.735   4.885
34482SOL    HW2 5279   9.553  13.772   4.946
34483SOL     OW 5280  13.991  14.213  10.869
34483SOL    HW1 5281  13.932  14.160  10.921
34483SOL    HW2 5282  14.066  14.229  10.926
34484SOL     OW 5283   2.537   0.716   6.432
34484SOL    HW1 5284   2.563   0.795   6.479
34484SOL    HW2 5285   2.441   0.720   6.430
34485SOL     OW 5286  10.543   9.689   1.040
34485SOL    HW1 5287  10.604   9.751   1.079
34485SOL    HW2 5288  10.521   9.727   0.955
34486SOL     OW 5289   1.800   0.241  12.046
34486SOL    HW1 5290   1.705   0.237  12.051
34486SOL    HW2 5291   1.830   0.186  12.119
34487SOL     OW 5292   8.668   8.525   6.240
34487SOL    HW1 5293   8.718   8.510   6.159
34487SOL    HW2 5294   8.594   8.465   6.233
34488SOL     OW 5295   4.330  10.849  13.971
34488SOL    HW1 5296   4.311  10.770  13.920
34488SOL    HW2 5297   4.264  10.912  13.943
34489SOL     OW 5298   2.483   1.055  14.462
34489SOL    HW1 5299   2.573   1.068  14.433
34489SOL    HW2 5300   2.435   1.131  14.428
34490SOL     OW 5301   7.060   0.967   9.207
34490SOL    HW1 5302   7.045   0.937   9.297
34490SOL    HW2 5303   6.977   0.949   9.162
34491SOL     OW 5304   5.053   3.726   5.904
34491SOL    HW1 5305   5.062   3.803   5.848
34491SOL    HW2 5306   5.008   3.662   5.849
34492SOL     OW 5307   6.822   0.755  12.201
34492SOL    HW1 5308   6.787   0.732  12.287
34492SOL    HW2 5309   6.837   0.849  12.205
34493SOL     OW 5310   5.512   0.376   9.883
34493SOL    HW1 5311   5.416   0.380   9.877
34493SOL    HW2 5312   5.542   0.436   9.814
34494SOL     OW 5313  13.212   7.231   7.774
34494SOL    HW1 5314  13.169   7.233   7.689
34494SOL    HW2 5315  13.268   7.309   7.774
34495SOL     OW 5316   4.276  10.805   6.717
34495SOL    HW1 5317   4.277  10.874   6.783
34495SOL    HW2 5318   4.195  10.758   6.734
34496SOL     OW 5319   7.498   0.556  10.911
34496SOL    HW1 5320   7.511   0.588  11.000
34496SOL    HW2 5321   7.486   0.461  10.921
34497SOL     OW 5322   2.503  14.538   4.749
34497SOL    HW1 5323   2.420  14.503   4.717
34497SOL    HW2 5324   2.564  14.523   4.677
34498SOL     OW 5325  14.308   6.877   7.888
34498SOL    HW1 5326  14.212   6.882   7.890
34498SOL    HW2 5327  14.335   6.954   7.839
34499SOL     OW 5328   4.362   6.392  13.726
34499SOL    HW1 5329   4.330   6.302  13.738
34499SOL    HW2 5330   4.283   6.443  13.706
34500SOL     OW 5331   8.836  13.385   5.502
34500SOL    HW1 5332   8.843  13.347   5.414
34500SOL    HW2 5333   8.868  13.316   5.560
34501SOL     OW 5334   2.284   9.416   6.026
34501SOL    HW1 5335   2.288   9.406   5.931
34501SOL    HW2 5336   2.211   9.476   6.041
34502SOL     OW 5337   4.478  12.185   1.688
34502SOL    HW1 5338   4.472  12.116   1.755
34502SOL    HW2 5339   4.516  12.260   1.734
34503SOL     OW 5340  11.541   3.104  11.354
34503SOL    HW1 5341  11.598   3.111  11.431
34503SOL    HW2 5342  11.453   3.094  11.389
34504SOL     OW 5343   1.654  10.632   9.852
34504SOL    HW1 5344   1.563  10.640   9.824
34504SOL    HW2 5345   1.690  10.561   9.799
34505SOL     OW 5346   4.677   9.529  12.106
34505SOL    HW1 5347   4.594   9.570  12.129
34505SOL    HW2 5348   4.716   9.587  12.041
34506SOL     OW 5349   9.551  10.679   9.930
34506SOL    HW1 5350   9.514  10.600   9.968
34506SOL    HW2 5351   9.560  10.740  10.004
34507SOL     OW 5352  11.800   8.040   0.220
34507SOL    HW1 5353  11.831   8.094   0.148
34507SOL    HW2 5354  11.729   7.988   0.183
34508SOL     OW 5355  11.332  13.966   4.390
34508SOL    HW1 5356  11.295  13.887   4.430
34508SOL    HW2 5357  11.276  13.983   4.315
34509SOL     OW 5358   2.685  13.089   8.683
34509SOL    HW1 5359   2.626  13.123   8.617
34509SOL    HW2 5360   2.631  13.030   8.735
34510SOL     OW 5361   6.657   5.723  13.184
34510SOL    HW1 5362   6.679   5.680  13.267
34510SOL    HW2 5363   6.591   5.788  13.208
34511SOL     OW 5364  14.191  10.394   2.328
34511SOL    HW1 5365  14.207  10.415   2.236
34511SOL    HW2 5366  14.236  10.462   2.377
34512SOL     OW 5367   2.388   3.740   2.900
34512SOL    HW1 5368   2.426   3.659   2.866
34512SOL    HW2 5369   2.294   3.732   2.882
34513SOL     OW 5370   0.262  13.951   9.781
34513SOL    HW1 5371   0.350  13.964   9.817
34513SOL    HW2 5372   0.256  14.011   9.707
34514SOL     OW 5373   6.155   7.031   7.894
34514SOL    HW1 5374   6.200   6.952   7.865
34514SOL    HW2 5375   6.182   7.041   7.985
34515SOL     OW 5376  11.401   2.280   7.874
34515SOL    HW1 5377  11.375   2.255   7.785
34515SOL    HW2 5378  11.467   2.215   7.898
34516SOL     OW 5379   3.232   8.549  11.608
34516SOL    HW1 5380   3.204   8.616  11.669
34516SOL    HW2 5381   3.325   8.538  11.625
34517SOL     OW 5382   1.991   4.271   8.200
34517SOL    HW1 5383   1.965   4.348   8.251
34517SOL    HW2 5384   1.911   4.219   8.194
34518SOL     OW 5385   6.842  13.187   4.241
34518SOL    HW1 5386   6.799  13.272   4.236
34518SOL    HW2 5387   6.904  13.187   4.168
34519SOL     OW 5388   2.747   3.936   5.230
34519SOL    HW1 5389   2.698   4.014   5.205
34519SOL    HW2 5390   2.754   3.884   5.149
34520SOL     OW 5391   9.995  14.857   6.398
34520SOL    HW1 5392  10.006  14.821   6.486
34520SOL    HW2 5393   9.904   0.017   6.397
34521SOL     OW 5394  14.305   0.198   0.791
34521SOL    HW1 5395  14.251   0.229   0.718
34521SOL    HW2 5396  14.299   0.268   0.857
34522SOL     OW 5397  10.022   7.129  10.440
34522SOL    HW1 5398  10.058   7.213  10.470
34522SOL    HW2 5399  10.098   7.082  10.406
34523SOL     OW 5400  12.831   9.087  10.415
34523SOL    HW1 5401  12.889   9.060  10.344
34523SOL    HW2 5402  12.814   9.180  10.398
34524SOL     OW 5403   3.133   5.917   9.244
34524SOL    HW1 5404   3.144   5.958   9.158
34524SOL    HW2 5405   3.188   5.839   9.241
34525SOL     OW 5406   2.456   4.224  10.106
34525SOL    HW1 5407   2.445   4.308  10.150
34525SOL    HW2 5408   2.504   4.245  10.026
34526SOL     OW 5409   7.836  13.842  10.606
34526SOL    HW1 5410   7.862  13.803  10.689
34526SOL    HW2 5411   7.760  13.792  10.578
34527SOL     OW 5412   1.877   8.038  14.494
34527SOL    HW1 5413   1.813   8.033  14.423
34527SOL    HW2 5414   1.842   8.103  14.554
34528SOL     OW 5415   9.905   3.237  14.287
34528SOL    HW1 5416   9.950   3.162  14.325
34528SOL    HW2 5417   9.895   3.215  14.194
34529SOL     OW 5418   7.789  14.208   0.440
34529SOL    HW1 5419   7.815  14.149   0.511
34529SOL    HW2 5420   7.868  14.260   0.423
34530SOL     OW 5421  12.076  11.430  10.744
34530SOL    HW1 5422  11.983  11.409  10.742
34530SOL    HW2 5423  12.081  11.521  10.714
34531SOL     OW 5424   8.486   1.086  13.358
34531SOL    HW1 5425   8.466   1.095  13.451
34531SOL    HW2 5426   8.453   1.166  13.318
34532SOL     OW 5427  12.405   4.551  11.710
34532SOL    HW1 5428  12.363   4.612  11.650
34532SOL    HW2 5429  12.499   4.564  11.696
34533SOL     OW 5430   9.387  13.101   6.665
34533SOL    HW1 5431   9.320  13.035   6.684
34533SOL    HW2 5432   9.467  13.067   6.705
34534SOL     OW 5433   7.666   7.871   5.858
34534SOL    HW1 5434   7.733   7.828   5.911
34534SOL    HW2 5435   7.703   7.956   5.836
34535SOL     OW 5436   0.782   7.980  12.067
34535SOL    HW1 5437   0.712   7.965  12.131
34535SOL    HW2 5438   0.833   8.052  12.104
34536SOL     OW 5439   1.654  13.414  14.198
34536SOL    HW1 5440   1.726  13.459  14.155
34536SOL    HW2 5441   1.646  13.457  14.283
34537SOL     OW 5442   2.147  13.126   7.669
34537SOL    HW1 5443   2.158  13.218   7.693
34537SOL    HW2 5444   2.109  13.129   7.580
34538SOL     OW 5445   4.034   5.809  11.107
34538SOL    HW1 5446   4.091   5.735  11.127
34538SOL    HW2 5447   4.045   5.869  11.182
34539SOL     OW 5448  11.369  10.507   3.337
34539SOL    HW1 5449  11.322  10.478   3.416
34539SOL    HW2 5450  11.420  10.582   3.366
34540SOL     OW 5451  11.713   0.261   5.200
34540SOL    HW1 5452  11.688   0.177   5.239
34540SOL    HW2 5453  11.713   0.245   5.106
34541SOL     OW 5454   8.516   8.168   9.545
34541SOL    HW1 5455   8.603   8.145   9.514
34541SOL    HW2 5456   8.458   8.151   9.470
34542SOL     OW 5457   5.915   5.675   3.645
34542SOL    HW1 5458   5.856   5.611   3.684
34542SOL    HW2 5459   5.944   5.729   3.719
34543SOL     OW 5460   8.538  13.870  13.213
34543SOL    HW1 5461   8.515  13.962  13.203
34543SOL    HW2 5462   8.455  13.824  13.207
34544SOL     OW 5463   8.267   9.574   0.512
34544SOL    HW1 5464   8.282   9.627   0.590
34544SOL    HW2 5465   8.332   9.604   0.449
34545SOL     OW 5466  12.951   2.592   6.382
34545SOL    HW1 5467  12.921   2.513   6.338
34545SOL    HW2 5468  13.029   2.619   6.332
34546SOL     OW 5469  12.348   6.904   3.285
34546SOL    HW1 5470  12.380   6.825   3.241
34546SOL    HW2 5471  12.264   6.922   3.244
34547SOL     OW 5472   6.917  14.738   5.742
34547SOL    HW1 5473   6.944  14.770   5.657
34547SOL    HW2 5474   6.909  14.816   5.796
34548SOL     OW 5475  11.704   1.035   4.986
34548SOL    HW1 5476  11.799   1.036   5.002
34548SOL    HW2 5477  11.680   1.127   4.979
34549SOL     OW 5478   6.160  12.344   1.524
34549SOL    HW1 5479   6.178  12.373   1.435
34549SOL    HW2 5480   6.103  12.268   1.514
34550SOL     OW 5481  10.489  14.026  10.898
34550SOL    HW1 5482  10.582  14.034  10.916
34550SOL    HW2 5483  10.467  14.103  10.847
34551SOL     OW 5484   7.403   9.304   2.684
34551SOL    HW1 5485   7.443   9.260   2.608
34551SOL    HW2 5486   7.309   9.291   2.672
34552SOL     OW 5487   7.439  14.397  13.386
34552SOL    HW1 5488   7.476  14.477  13.347
34552SOL    HW2 5489   7.416  14.342  13.310
34553SOL     OW 5490   2.077   7.549   3.529
34553SOL    HW1 5491   2.123   7.633   3.528
34553SOL    HW2 5492   2.146   7.484   3.537
34554SOL     OW 5493   9.229  13.446   6.836
34554SOL    HW1 5494   9.187  13.500   6.769
34554SOL    HW2 5495   9.309  13.415   6.796
34555SOL     OW 5496  11.613   5.180  14.291
34555SOL    HW1 5497  11.561   5.230  14.229
34555SOL    HW2 5498  11.567   5.188  14.374
34556SOL     OW 5499   7.696   0.504  12.333
34556SOL    HW1 5500   7.767   0.497  12.397
34556SOL    HW2 5501   7.617   0.481  12.382
34557SOL     OW 5502   3.634   7.779  14.450
34557SOL    HW1 5503   3.568   7.772  14.520
34557SOL    HW2 5504   3.598   7.728  14.378
34558SOL     OW 5505  14.164   6.282   8.212
34558SOL    HW1 5506  14.074   6.305   8.236
34558SOL    HW2 5507  14.168   6.187   8.225
34559SOL     OW 5508   5.821  11.649  11.470
34559SOL    HW1 5509   5.891  11.586  11.451
34559SOL    HW2 5510   5.741  11.596  11.470
34560SOL     OW 5511   5.505   2.718  11.659
34560SOL    HW1 5512   5.588   2.743  11.699
34560SOL    HW2 5513   5.503   2.623  11.665
34561SOL     OW 5514  14.391   3.239   1.308
34561SOL    HW1 5515  14.473   3.238   1.258
34561SOL    HW2 5516  14.340   3.167   1.272
34562SOL     OW 5517   5.245   5.143   1.923
34562SOL    HW1 5518   5.187   5.095   1.983
34562SOL    HW2 5519   5.228   5.235   1.944
34563SOL     OW 5520  11.662   8.031   1.841
34563SOL    HW1 5521  11.721   8.065   1.908
34563SOL    HW2 5522  11.574   8.046   1.877
34564SOL     OW 5523   8.838   6.486   0.090
34564SOL    HW1 5524   8.906   6.530   0.141
34564SOL    HW2 5525   8.756   6.506   0.136
34565SOL     OW 5526  12.573   2.000   0.849
34565SOL    HW1 5527  12.484   1.968   0.837
34565SOL    HW2 5528  12.563   2.081   0.898
34566SOL     OW 5529   9.000  10.698   6.875
34566SOL    HW1 5530   8.975  10.720   6.785
34566SOL    HW2 5531   9.090  10.669   6.869
34567SOL     OW 5532   8.587  12.988   5.361
34567SOL    HW1 5533   8.506  13.027   5.330
34567SOL    HW2 5534   8.642  12.981   5.283
34568SOL     OW 5535  13.260  12.062  10.358
34568SOL    HW1 5536  13.339  12.081  10.408
34568SOL    HW2 5537  13.217  11.991  10.406
34569SOL     OW 5538  11.473   0.549   1.739
34569SOL    HW1 5539  11.402   0.581   1.794
34569SOL    HW2 5540  11.430   0.494   1.673
34570SOL     OW 5541   6.563   6.159   4.890
34570SOL    HW1 5542   6.589   6.071   4.918
34570SOL    HW2 5543   6.628   6.217   4.930
34571SOL     OW 5544   1.288   6.804   6.131
34571SOL    HW1 5545   1.307   6.786   6.223
34571SOL    HW2 5546   1.195   6.784   6.120
34572SOL     OW 5547  14.669   2.157  11.081
34572SOL    HW1 5548  14.595   2.144  11.021
34572SOL    HW2 5549  14.745   2.163  11.023
34573SOL     OW 5550   8.682   7.352  11.256
34573SOL    HW1 5551   8.710   7.422  11.197
34573SOL    HW2 5552   8.705   7.383  11.343
34574SOL     OW 5553  13.158   4.733   3.267
34574SOL    HW1 5554  13.195   4.697   3.186
34574SOL    HW2 5555  13.228   4.787   3.303
34575SOL     OW 5556   9.772  10.657  14.372
34575SOL    HW1 5557   9.813  10.743  14.374
34575SOL    HW2 5558   9.820  10.606  14.437
34576SOL     OW 5559  14.781   3.611   0.744
34576SOL    HW1 5560  14.854   3.632   0.802
34576SOL    HW2 5561  14.821   3.602   0.657
34577SOL     OW 5562   3.903   6.747  11.592
34577SOL    HW1 5563   3.928   6.656  11.575
34577SOL    HW2 5564   3.984   6.790  11.620
34578SOL     OW 5565   8.486   8.753  13.171
34578SOL    HW1 5566   8.399   8.737  13.135
34578SOL    HW2 5567   8.516   8.666  13.198
34579SOL     OW 5568   1.952   7.486  12.202
34579SOL    HW1 5569   1.965   7.448  12.115
34579SOL    HW2 5570   1.953   7.581  12.186
34580SOL     OW 5571   9.361  11.552  13.291
34580SOL    HW1 5572   9.301  11.488  13.253
34580SOL    HW2 5573   9.313  11.589  13.365
34581SOL     OW 5574   8.052   2.765   7.626
34581SOL    HW1 5575   7.975   2.709   7.616
34581SOL    HW2 5576   8.116   2.729   7.565
34582SOL     OW 5577  13.880  10.552   6.415
34582SOL    HW1 5578  13.844  10.555   6.326
34582SOL    HW2 5579  13.859  10.464   6.446
34583SOL     OW 5580   1.871   9.621   3.740
34583SOL    HW1 5581   1.887   9.706   3.700
34583SOL    HW2 5582   1.938   9.613   3.808
34584SOL     OW 5583   7.129   9.272  14.189
34584SOL    HW1 5584   7.116   9.205  14.256
34584SOL    HW2 5585   7.213   9.250  14.149
34585SOL     OW 5586   1.702   1.758   6.614
34585SOL    HW1 5587   1.735   1.699   6.682
34585SOL    HW2 5588   1.661   1.700   6.550
34586SOL     OW 5589   3.235  11.396  13.438
34586SOL    HW1 5590   3.285  11.405  13.519
34586SOL    HW2 5591   3.299  11.411  13.368
34587SOL     OW 5592   0.058  11.110  11.778
34587SOL    HW1 5593   0.018  11.080  11.860
34587SOL    HW2 5594   0.044  11.037  11.718
34588SOL     OW 5595   9.594   7.985   2.501
34588SOL    HW1 5596   9.586   7.903   2.550
34588SOL    HW2 5597   9.600   7.958   2.410
34589SOL     OW 5598   7.599   3.747   5.034
34589SOL    HW1 5599   7.544   3.681   5.077
34589SOL    HW2 5600   7.537   3.808   4.994
34590SOL     OW 5601   8.251   4.911   9.862
34590SOL    HW1 5602   8.249   4.984   9.924
34590SOL    HW2 5603   8.169   4.863   9.879
34591SOL     OW 5604   4.677   8.867   9.146
34591SOL    HW1 5605   4.771   8.858   9.163
34591SOL    HW2 5606   4.666   8.959   9.123
34592SOL     OW 5607  10.747   4.476   2.465
34592SOL    HW1 5608  10.717   4.486   2.375
34592SOL    HW2 5609  10.771   4.565   2.492
34593SOL     OW 5610   8.116   6.927   1.571
34593SOL    HW1 5611   8.105   7.013   1.611
34593SOL    HW2 5612   8.210   6.909   1.579
34594SOL     OW 5613  14.757  10.055  10.926
34594SOL    HW1 5614  14.727  10.107  11.001
34594SOL    HW2 5615  14.682  10.001  10.902
34595SOL     OW 5616  13.270   2.811   4.789
34595SOL    HW1 5617  13.328   2.798   4.714
34595SOL    HW2 5618  13.248   2.722   4.817
34596SOL     OW 5619   9.809   7.423   5.471
34596SOL    HW1 5620   9.890   7.403   5.423
34596SOL    HW2 5621   9.746   7.359   5.439
34597SOL     OW 5622   1.103   0.780  11.157
34597SOL    HW1 5623   1.160   0.819  11.224
34597SOL    HW2 5624   1.098   0.846  11.088
34598SOL     OW 5625   4.456   1.669   4.268
34598SOL    HW1 5626   4.517   1.654   4.196
34598SOL    HW2 5627   4.512   1.673   4.346
34599SOL     OW 5628   5.346  13.759  10.309
34599SOL    HW1 5629   5.277  13.710  10.263
34599SOL    HW2 5630   5.367  13.704  10.385
34600SOL     OW 5631  10.429   2.642   8.813
34600SOL    HW1 5632  10.479   2.719   8.840
34600SOL    HW2 5633  10.345   2.678   8.784
34601SOL     OW 5634   3.046   5.642   2.233
34601SOL    HW1 5635   2.965   5.611   2.193
34601SOL    HW2 5636   3.112   5.579   2.204
34602SOL     OW 5637   8.460   9.118  14.467
34602SOL    HW1 5638   8.501   9.187  14.518
34602SOL    HW2 5639   8.420   9.164  14.393
34603SOL     OW 5640   6.842   0.766   3.854
34603SOL    HW1 5641   6.892   0.691   3.820
34603SOL    HW2 5642   6.802   0.805   3.776
34604SOL     OW 5643   5.407   7.633   2.329
34604SOL    HW1 5644   5.381   7.661   2.416
34604SOL    HW2 5645   5.335   7.578   2.298
34605SOL     OW 5646   0.765  12.725  11.073
34605SOL    HW1 5647   0.842  12.772  11.103
34605SOL    HW2 5648   0.788  12.695  10.985
34606SOL     OW 5649  13.994   9.239  12.705
34606SOL    HW1 5650  14.031   9.317  12.664
34606SOL    HW2 5651  13.899   9.251  12.697
34607SOL     OW 5652   1.007   3.283  12.595
34607SOL    HW1 5653   0.964   3.199  12.607
34607SOL    HW2 5654   0.942   3.338  12.551
34608SOL     OW 5655   7.113  14.704   2.591
34608SOL    HW1 5656   7.176  14.759   2.544
34608SOL    HW2 5657   7.123  14.617   2.550
34609SOL     OW 5658   3.245   3.956   2.270
34609SOL    HW1 5659   3.158   3.982   2.240
34609SOL    HW2 5660   3.231   3.920   2.358
34610SOL     OW 5661   0.854   7.223  10.157
34610SOL    HW1 5662   0.837   7.312  10.127
34610SOL    HW2 5663   0.939   7.200  10.117
34611SOL     OW 5664   4.305   5.047   9.939
34611SOL    HW1 5665   4.359   4.982   9.984
34611SOL    HW2 5666   4.344   5.131   9.962
34612SOL     OW 5667   9.334   9.802   2.898
34612SOL    HW1 5668   9.242   9.822   2.879
34612SOL    HW2 5669   9.377   9.803   2.813
34613SOL     OW 5670  11.479  13.530  11.182
34613SOL    HW1 5671  11.550  13.566  11.235
34613SOL    HW2 5672  11.523  13.498  11.103
34614SOL     OW 5673   4.524   4.262  14.317
34614SOL    HW1 5674   4.597   4.296  14.265
34614SOL    HW2 5675   4.484   4.341  14.355
34615SOL     OW 5676   7.575  10.367  10.363
34615SOL    HW1 5677   7.648  10.380  10.424
34615SOL    HW2 5678   7.616  10.367  10.276
34616SOL     OW 5679  11.693   3.974   3.179
34616SOL    HW1 5680  11.635   3.903   3.208
34616SOL    HW2 5681  11.766   3.971   3.241
34617SOL     OW 5682   7.244  10.269   7.368
34617SOL    HW1 5683   7.163  10.302   7.330
34617SOL    HW2 5684   7.220  10.242   7.457
34618SOL     OW 5685   2.812   0.728  12.857
34618SOL    HW1 5686   2.723   0.703  12.832
34618SOL    HW2 5687   2.807   0.744  12.952
34619SOL     OW 5688   3.038  11.119   9.426
34619SOL    HW1 5689   3.123  11.119   9.469
34619SOL    HW2 5690   3.055  11.082   9.339
34620SOL     OW 5691   4.201   5.013   2.254
34620SOL    HW1 5692   4.267   5.072   2.217
34620SOL    HW2 5693   4.207   5.027   2.349
34621SOL     OW 5694  10.974  13.823   5.899
34621SOL    HW1 5695  11.041  13.843   5.965
34621SOL    HW2 5696  10.892  13.820   5.948
34622SOL     OW 5697  10.522   0.233  13.923
34622SOL    HW1 5698  10.483   0.217  14.009
34622SOL    HW2 5699  10.485   0.165  13.868
34623SOL     OW 5700   5.486   2.060   7.666
34623SOL    HW1 5701   5.396   2.046   7.693
34623SOL    HW2 5702   5.496   2.006   7.588
34624SOL     OW 5703   7.562  13.242   5.759
34624SOL    HW1 5704   7.498  13.292   5.708
34624SOL    HW2 5705   7.644  13.250   5.709
34625SOL     OW 5706  13.174   9.320   4.557
34625SOL    HW1 5707  13.124   9.362   4.627
34625SOL    HW2 5708  13.240   9.269   4.604
34626SOL     OW 5709   2.479   2.268   0.110
34626SOL    HW1 5710   2.487   2.347   0.058
34626SOL    HW2 5711   2.563   2.224   0.100
34627SOL     OW 5712   5.306   8.732   6.323
34627SOL    HW1 5713   5.299   8.778   6.240
34627SOL    HW2 5714   5.241   8.774   6.379
34628SOL     OW 5715  12.459   4.340   0.908
34628SOL    HW1 5716  12.454   4.435   0.902
34628SOL    HW2 5717  12.402   4.308   0.837
34629SOL     OW 5718   1.510   6.169   3.429
34629SOL    HW1 5719   1.592   6.197   3.389
34629SOL    HW2 5720   1.500   6.077   3.403
34630SOL     OW 5721   9.688   8.109   0.514
34630SOL    HW1 5722   9.764   8.143   0.562
34630SOL    HW2 5723   9.613   8.144   0.562
34631SOL     OW 5724  11.080  14.508   2.808
34631SOL    HW1 5725  10.990  14.487   2.835
34631SOL    HW2 5726  11.109  14.573   2.872
34632SOL     OW 5727   1.990  10.806   7.943
34632SOL    HW1 5728   2.052  10.840   8.007
34632SOL    HW2 5729   1.906  10.846   7.968
34633SOL     OW 5730   1.212   2.583   7.096
34633SOL    HW1 5731   1.156   2.506   7.106
34633SOL    HW2 5732   1.263   2.586   7.177
34634SOL     OW 5733   5.926   8.216   3.840
34634SOL    HW1 5734   6.013   8.177   3.836
34634SOL    HW2 5735   5.889   8.200   3.753
34635SOL     OW 5736  11.982   0.843   1.104
34635SOL    HW1 5737  11.993   0.865   1.197
34635SOL    HW2 5738  11.975   0.927   1.060
34636SOL     OW 5739   7.757   1.130   0.245
34636SOL    HW1 5740   7.765   1.083   0.328
34636SOL    HW2 5741   7.820   1.087   0.187
34637SOL     OW 5742   2.986  11.125   5.991
34637SOL    HW1 5743   2.920  11.193   5.980
34637SOL    HW2 5744   2.942  11.058   6.044
34638SOL     OW 5745   9.289   1.227   7.973
34638SOL    HW1 5746   9.202   1.265   7.957
34638SOL    HW2 5747   9.317   1.196   7.887
34639SOL     OW 5748   0.322  12.171   8.115
34639SOL    HW1 5749   0.366  12.222   8.047
34639SOL    HW2 5750   0.311  12.233   8.187
34640SOL     OW 5751  10.406   9.099   7.080
34640SOL    HW1 5752  10.343   9.169   7.095
34640SOL    HW2 5753  10.356   9.031   7.036
34641SOL     OW 5754   6.919  12.440  11.496
34641SOL    HW1 5755   6.934  12.534  11.508
34641SOL    HW2 5756   6.987  12.398  11.549
34642SOL     OW 5757   1.645   3.529   1.217
34642SOL    HW1 5758   1.716   3.557   1.275
34642SOL    HW2 5759   1.569   3.579   1.246
34643SOL     OW 5760  14.608   0.900  11.905
34643SOL    HW1 5761  14.595   0.994  11.902
34643SOL    HW2 5762  14.680   0.887  11.967
34644SOL     OW 5763   0.834   7.894   0.932
34644SOL    HW1 5764   0.806   7.950   1.004
34644SOL    HW2 5765   0.759   7.891   0.873
34645SOL     OW 5766   0.075  10.466   3.838
34645SOL    HW1 5767   0.135  10.397   3.868
34645SOL    HW2 5768   0.131  10.543   3.826
34646SOL     OW 5769   2.366   8.276   0.887
34646SOL    HW1 5770   2.287   8.240   0.846
34646SOL    HW2 5771   2.350   8.370   0.891
34647SOL     OW 5772  12.166  10.072   9.504
34647SOL    HW1 5773  12.133   9.994   9.460
34647SOL    HW2 5774  12.088  10.115   9.538
34648SOL     OW 5775   6.937  11.208   6.541
34648SOL    HW1 5776   6.988  11.157   6.604
34648SOL    HW2 5777   6.925  11.293   6.583
34649SOL     OW 5778   1.036   3.568   6.632
34649SOL    HW1 5779   1.022   3.542   6.723
34649SOL    HW2 5780   0.993   3.500   6.580
34650SOL     OW 5781  10.031   6.611  11.776
34650SOL    HW1 5782  10.081   6.563  11.709
34650SOL    HW2 5783   9.942   6.613  11.743
34651SOL     OW 5784  14.722   4.213  12.818
34651SOL    HW1 5785  14.681   4.176  12.896
34651SOL    HW2 5786  14.684   4.301  12.812
34652SOL     OW 5787   0.743   3.208   7.026
34652SOL    HW1 5788   0.694   3.227   6.946
34652SOL    HW2 5789   0.698   3.132   7.064
34653SOL     OW 5790   8.742  12.009   8.672
34653SOL    HW1 5791   8.674  12.053   8.622
34653SOL    HW2 5792   8.820  12.015   8.618
34654SOL     OW 5793   0.602  14.640   2.833
34654SOL    HW1 5794   0.661  14.583   2.784
34654SOL    HW2 5795   0.519  14.594   2.835
34655SOL     OW 5796   5.229   5.132   5.916
34655SOL    HW1 5797   5.245   5.081   5.836
34655SOL    HW2 5798   5.231   5.223   5.887
34656SOL     OW 5799   6.676  13.078  11.284
34656SOL    HW1 5800   6.631  13.160  11.267
34656SOL    HW2 5801   6.608  13.019  11.318
34657SOL     OW 5802   5.064  12.337   6.843
34657SOL    HW1 5803   5.063  12.353   6.749
34657SOL    HW2 5804   5.106  12.252   6.852
34658SOL     OW 5805   4.075   7.240   0.509
34658SOL    HW1 5806   4.112   7.207   0.428
34658SOL    HW2 5807   3.983   7.216   0.505
34659SOL     OW 5808   2.935   3.047   8.400
34659SOL    HW1 5809   2.870   3.076   8.464
34659SOL    HW2 5810   2.970   2.966   8.436
34660SOL     OW 5811   8.647   5.982  12.815
34660SOL    HW1 5812   8.570   6.007  12.764
34660SOL    HW2 5813   8.719   5.984  12.751
34661SOL     OW 5814   3.620   2.744   1.743
34661SOL    HW1 5815   3.570   2.802   1.800
34661SOL    HW2 5816   3.668   2.687   1.803
34662SOL     OW 5817   0.508  11.390   9.851
34662SOL    HW1 5818   0.493  11.394   9.946
34662SOL    HW2 5819   0.469  11.471   9.817
34663SOL     OW 5820  14.432  14.753  14.252
34663SOL    HW1 5821  14.455  14.837  14.212
34663SOL    HW2 5822  14.496  14.691  14.215
34664SOL     OW 5823   6.065   3.754   3.472
34664SOL    HW1 5824   6.011   3.779   3.548
34664SOL    HW2 5825   6.108   3.836   3.446
34665SOL     OW 5826   7.620   5.257   1.889
34665SOL    HW1 5827   7.569   5.192   1.937
34665SOL    HW2 5828   7.584   5.341   1.916
34666SOL     OW 5829  12.428   6.575   7.719
34666SOL    HW1 5830  12.489   6.549   7.650
34666SOL    HW2 5831  12.369   6.637   7.677
34667SOL     OW 5832   1.754  12.196   2.547
34667SOL    HW1 5833   1.684  12.256   2.521
34667SOL    HW2 5834   1.730  12.113   2.507
34668SOL     OW 5835  14.264   9.725   1.333
34668SOL    HW1 5836  14.192   9.787   1.349
34668SOL    HW2 5837  14.235   9.672   1.259
34669SOL     OW 5838   3.758   4.464  11.999
34669SOL    HW1 5839   3.772   4.389  12.058
34669SOL    HW2 5840   3.777   4.430  11.912
34670SOL     OW 5841  13.539   1.889   4.937
34670SOL    HW1 5842  13.512   1.876   4.846
34670SOL    HW2 5843  13.477   1.953   4.971
34671SOL     OW 5844   7.958  13.594   8.288
34671SOL    HW1 5845   7.997  13.513   8.256
34671SOL    HW2 5846   7.993  13.662   8.229
34672SOL     OW 5847   2.416   4.093   2.732
34672SOL    HW1 5848   2.488   4.099   2.794
34672SOL    HW2 5849   2.363   4.019   2.763
34673SOL     OW 5850   2.058   4.365   8.854
34673SOL    HW1 5851   1.978   4.318   8.875
34673SOL    HW2 5852   2.046   4.452   8.891
34674SOL     OW 5853   0.024   7.939  11.478
34674SOL    HW1 5854   0.028   7.940  11.573
34674SOL    HW2 5855   0.071   8.019  11.452
34675SOL     OW 5856   3.458   0.474   3.283
34675SOL    HW1 5857   3.383   0.415   3.290
34675SOL    HW2 5858   3.534   0.419   3.299
34676SOL     OW 5859  11.896   8.719   4.728
34676SOL    HW1 5860  11.976   8.766   4.752
34676SOL    HW2 5861  11.850   8.778   4.669
34677SOL     OW 5862   4.211   6.935   8.974
34677SOL    HW1 5863   4.282   6.900   8.920
34677SOL    HW2 5864   4.139   6.948   8.913
34678SOL     OW 5865   4.717   5.054  10.770
34678SOL    HW1 5866   4.669   5.028  10.691
34678SOL    HW2 5867   4.696   5.147  10.781
34679SOL     OW 5868   3.002  11.017   3.543
34679SOL    HW1 5869   2.977  11.065   3.464
34679SOL    HW2 5870   2.931  11.033   3.605
34680SOL     OW 5871   4.232   8.107   0.308
34680SOL    HW1 5872   4.196   8.180   0.258
34680SOL    HW2 5873   4.221   8.031   0.251
34681SOL     OW 5874   9.826  13.014   9.705
34681SOL    HW1 5875   9.845  13.078   9.636
34681SOL    HW2 5876   9.732  13.023   9.720
34682SOL     OW 5877  13.290   2.931   3.809
34682SOL    HW1 5878  13.219   2.958   3.867
34682SOL    HW2 5879  13.263   2.962   3.723
34683SOL     OW 5880  10.608   6.231   1.208
34683SOL    HW1 5881  10.695   6.192   1.213
34683SOL    HW2 5882  10.555   6.180   1.269
34684SOL     OW 5883   6.668  14.612   2.163
34684SOL    HW1 5884   6.742  14.666   2.135
34684SOL    HW2 5885   6.682  14.598   2.257
34685SOL     OW 5886  14.654  13.616  13.763
34685SOL    HW1 5887  14.564  13.608  13.732
34685SOL    HW2 5888  14.663  13.708  13.787
34686SOL     OW 5889   4.827   7.965  11.318
34686SOL    HW1 5890   4.862   7.902  11.256
34686SOL    HW2 5891   4.755   7.919  11.361
34687SOL     OW 5892   9.778   3.573   7.879
34687SOL    HW1 5893   9.757   3.658   7.839
34687SOL    HW2 5894   9.693   3.532   7.893
34688SOL     OW 5895   5.580   0.419  11.169
34688SOL    HW1 5896   5.597   0.510  11.145
34688SOL    HW2 5897   5.521   0.387  11.101
34689SOL     OW 5898   2.308  13.817  13.683
34689SOL    HW1 5899   2.243  13.846  13.748
34689SOL    HW2 5900   2.276  13.732  13.654
34690SOL     OW 5901  14.391   3.934   2.728
34690SOL    HW1 5902  14.298   3.919   2.746
34690SOL    HW2 5903  14.418   3.999   2.793
34691SOL     OW 5904  14.850   1.859  10.007
34691SOL    HW1 5905   0.025   1.940   9.986
34691SOL    HW2 5906  14.760   1.887  10.021
34692SOL     OW 5907   2.244   7.569   1.662
34692SOL    HW1 5908   2.216   7.478   1.668
34692SOL    HW2 5909   2.326   7.567   1.613
34693SOL     OW 5910  13.318   6.489   0.932
34693SOL    HW1 5911  13.370   6.493   1.013
34693SOL    HW2 5912  13.247   6.428   0.952
34694SOL     OW 5913   6.425  11.916  13.160
34694SOL    HW1 5914   6.432  12.001  13.203
34694SOL    HW2 5915   6.337  11.886  13.180
34695SOL     OW 5916   7.041  12.744  13.784
34695SOL    HW1 5917   6.977  12.697  13.730
34695SOL    HW2 5918   7.100  12.784  13.720
34696SOL     OW 5919   2.749   4.086   8.839
34696SOL    HW1 5920   2.656   4.091   8.863
34696SOL    HW2 5921   2.748   4.071   8.744
34697SOL     OW 5922  10.687   5.726   4.288
34697SOL    HW1 5923  10.768   5.776   4.298
34697SOL    HW2 5924  10.617   5.788   4.311
34698SOL     OW 5925  10.603   3.257   5.580
34698SOL    HW1 5926  10.558   3.235   5.662
34698SOL    HW2 5927  10.623   3.350   5.587
34699SOL     OW 5928  10.403   5.444   8.381
34699SOL    HW1 5929  10.421   5.538   8.387
34699SOL    HW2 5930  10.446   5.406   8.458
34700SOL     OW 5931   0.171   8.951  10.803
34700SOL    HW1 5932   0.125   8.868  10.816
34700SOL    HW2 5933   0.240   8.931  10.740
34701SOL     OW 5934  12.937  13.147  12.884
34701SOL    HW1 5935  12.961  13.188  12.967
34701SOL    HW2 5936  12.983  13.063  12.884
34702SOL     OW 5937   3.912  12.381   6.233
34702SOL    HW1 5938   3.830  12.333   6.223
34702SOL    HW2 5939   3.961  12.364   6.152
34703SOL     OW 5940  10.147   2.105   0.803
34703SOL    HW1 5941  10.090   2.181   0.789
34703SOL    HW2 5942  10.097   2.031   0.769
34704SOL     OW 5943   2.297   7.124   1.731
34704SOL    HW1 5944   2.342   7.070   1.666
34704SOL    HW2 5945   2.368   7.156   1.787
34705SOL     OW 5946   6.422   8.303  14.783
34705SOL    HW1 5947   6.510   8.269  14.767
34705SOL    HW2 5948   6.437   8.394  14.811
34706SOL     OW 5949  14.559   6.893   2.364
34706SOL    HW1 5950  14.502   6.821   2.337
34706SOL    HW2 5951  14.642   6.852   2.388
34707SOL     OW 5952   5.622   6.958   5.560
34707SOL    HW1 5953   5.649   6.972   5.651
34707SOL    HW2 5954   5.530   6.931   5.566
34708SOL     OW 5955   4.838   0.518  13.506
34708SOL    HW1 5956   4.891   0.540  13.430
34708SOL    HW2 5957   4.769   0.462  13.470
34709SOL     OW 5958  14.186  13.451   1.488
34709SOL    HW1 5959  14.202  13.396   1.564
34709SOL    HW2 5960  14.230  13.406   1.416
34710SOL     OW 5961   6.169  12.457  14.718
34710SOL    HW1 5962   6.161  12.526  14.653
34710SOL    HW2 5963   6.230  12.492  14.783
34711SOL     OW 5964   1.082  14.486   6.770
34711SOL    HW1 5965   1.055  14.578   6.764
34711SOL    HW2 5966   1.013  14.444   6.819
34712SOL     OW 5967   2.592   1.526  14.585
34712SOL    HW1 5968   2.636   1.532  14.500
34712SOL    HW2 5969   2.584   1.432  14.602
34713SOL     OW 5970  10.307   2.795   7.114
34713SOL    HW1 5971  10.326   2.867   7.174
34713SOL    HW2 5972  10.217   2.810   7.085
34714SOL     OW 5973   2.686   8.828  14.161
34714SOL    HW1 5974   2.715   8.884  14.089
34714SOL    HW2 5975   2.741   8.855  14.235
34715SOL     OW 5976   1.399   8.733   8.115
34715SOL    HW1 5977   1.399   8.703   8.206
34715SOL    HW2 5978   1.380   8.654   8.064
34716SOL     OW 5979   8.575   7.680  11.404
34716SOL    HW1 5980   8.521   7.676  11.482
34716SOL    HW2 5981   8.647   7.619  11.422
34717SOL     OW 5982   3.184   2.777  14.641
34717SOL    HW1 5983   3.155   2.707  14.583
34717SOL    HW2 5984   3.188   2.854  14.585
34718SOL     OW 5985   1.188   7.450  13.992
34718SOL    HW1 5986   1.276   7.487  13.991
34718SOL    HW2 5987   1.135   7.514  14.039
34719SOL     OW 5988   2.833   0.308   4.180
34719SOL    HW1 5989   2.797   0.368   4.245
34719SOL    HW2 5990   2.779   0.229   4.187
34720SOL     OW 5991   7.903   8.744   2.051
34720SOL    HW1 5992   7.977   8.769   1.996
34720SOL    HW2 5993   7.918   8.652   2.071
34721SOL     OW 5994  10.515   8.512  10.101
34721SOL    HW1 5995  10.589   8.523  10.160
34721SOL    HW2 5996  10.517   8.590  10.045
34722SOL     OW 5997   6.855  14.793   6.802
34722SOL    HW1 5998   6.943  14.759   6.822
34722SOL    HW2 5999   6.869   0.014   6.786
34723SOL     OW 6000   8.935   2.431   1.389
34723SOL    HW1 6001   9.005   2.484   1.427
34723SOL    HW2 6002   8.911   2.478   1.309
34724SOL     OW 6003   2.828   5.189   0.556
34724SOL    HW1 6004   2.804   5.176   0.465
34724SOL    HW2 6005   2.829   5.284   0.567
34725SOL     OW 6006   4.040   7.717   1.976
34725SOL    HW1 6007   4.099   7.694   1.904
34725SOL    HW2 6008   4.081   7.681   2.054
34726SOL     OW 6009   9.580   0.135   4.042
34726SOL    HW1 6010   9.521   0.092   4.105
34726SOL    HW2 6011   9.608   0.064   3.984
34727SOL     OW 6012   1.535  13.629  10.178
34727SOL    HW1 6013   1.467  13.607  10.114
34727SOL    HW2 6014   1.590  13.551  10.182
34728SOL     OW 6015  11.884   7.203  10.557
34728SOL    HW1 6016  11.946   7.153  10.610
34728SOL    HW2 6017  11.910   7.294  10.569
34729SOL     OW 6018  14.618  13.449   7.793
34729SOL    HW1 6019  14.578  13.527   7.754
34729SOL    HW2 6020  14.661  13.481   7.873
34730SOL     OW 6021  12.852   3.392   8.425
34730SOL    HW1 6022  12.833   3.469   8.371
34730SOL    HW2 6023  12.768   3.347   8.432
34731SOL     OW 6024   8.000   2.252   6.021
34731SOL    HW1 6025   8.091   2.269   6.046
34731SOL    HW2 6026   7.971   2.183   6.081
34732SOL     OW 6027   4.760  14.544   9.704
34732SOL    HW1 6028   4.786  14.626   9.746
34732SOL    HW2 6029   4.832  14.523   9.645
34733SOL     OW 6030  13.594   8.323   6.820
34733SOL    HW1 6031  13.594   8.296   6.729
34733SOL    HW2 6032  13.502   8.319   6.847
34734SOL     OW 6033   5.526   7.853  13.413
34734SOL    HW1 6034   5.545   7.766  13.447
34734SOL    HW2 6035   5.434   7.849  13.387
34735SOL     OW 6036  10.704  14.254  14.012
34735SOL    HW1 6037  10.718  14.300  14.094
34735SOL    HW2 6038  10.635  14.304  13.967
34736SOL     OW 6039   5.903   2.117   7.867
34736SOL    HW1 6040   5.904   2.061   7.945
34736SOL    HW2 6041   5.891   2.056   7.794
34737SOL     OW 6042   4.437   3.785   2.420
34737SOL    HW1 6043   4.344   3.772   2.437
34737SOL    HW2 6044   4.480   3.752   2.499
34738SOL     OW 6045   5.730  11.094  11.373
34738SOL    HW1 6046   5.749  11.011  11.417
34738SOL    HW2 6047   5.763  11.161  11.432
34739SOL     OW 6048   4.186   0.508  12.516
34739SOL    HW1 6049   4.211   0.568  12.446
34739SOL    HW2 6050   4.135   0.441  12.472
34740SOL     OW 6051   1.874  14.435   5.359
34740SOL    HW1 6052   1.839  14.522   5.343
34740SOL    HW2 6053   1.809  14.375   5.323
34741SOL     OW 6054   7.506  11.879   2.764
34741SOL    HW1 6055   7.483  11.787   2.749
34741SOL    HW2 6056   7.591  11.889   2.723
34742SOL     OW 6057  14.457   8.256   1.504
34742SOL    HW1 6058  14.537   8.292   1.466
34742SOL    HW2 6059  14.482   8.168   1.533
34743SOL     OW 6060   0.746   6.029  12.565
34743SOL    HW1 6061   0.730   5.984  12.648
34743SOL    HW2 6062   0.738   5.960  12.499
34744SOL     OW 6063   9.531   5.787   7.228
34744SOL    HW1 6064   9.436   5.788   7.237
34744SOL    HW2 6065   9.560   5.727   7.297
34745SOL     OW 6066   4.794   8.086   2.543
34745SOL    HW1 6067   4.854   8.128   2.606
34745SOL    HW2 6068   4.775   8.155   2.479
34746SOL     OW 6069  14.797  11.676   7.318
34746SOL    HW1 6070  14.855  11.647   7.248
34746SOL    HW2 6071  14.749  11.597   7.344
34747SOL     OW 6072  11.411   3.439   6.273
34747SOL    HW1 6073  11.452   3.361   6.236
34747SOL    HW2 6074  11.432   3.436   6.366
34748SOL     OW 6075   0.961  11.849   5.702
34748SOL    HW1 6076   1.053  11.866   5.722
34748SOL    HW2 6077   0.952  11.870   5.609
34749SOL     OW 6078   8.162  12.235   2.772
34749SOL    HW1 6079   8.078  12.188   2.774
34749SOL    HW2 6080   8.228  12.166   2.776
34750SOL     OW 6081  10.960   7.740  14.229
34750SOL    HW1 6082  11.007   7.733  14.313
34750SOL    HW2 6083  10.996   7.669  14.176
34751SOL     OW 6084   8.149   7.652   8.622
34751SOL    HW1 6085   8.165   7.570   8.668
34751SOL    HW2 6086   8.065   7.683   8.656
34752SOL     OW 6087   4.820  12.815   5.107
34752SOL    HW1 6088   4.857  12.903   5.108
34752SOL    HW2 6089   4.857  12.773   5.185
34753SOL     OW 6090   3.409   6.420  14.690
34753SOL    HW1 6091   3.474   6.470  14.641
34753SOL    HW2 6092   3.338   6.406  14.627
34754SOL     OW 6093   9.274   0.171   8.187
34754SOL    HW1 6094   9.277   0.075   8.182
34754SOL    HW2 6095   9.348   0.200   8.133
34755SOL     OW 6096   3.855   0.044   8.468
34755SOL    HW1 6097   3.893   0.007   8.389
34755SOL    HW2 6098   3.925   0.039   8.533
34756SOL     OW 6099   7.269   0.227   8.544
34756SOL    HW1 6100   7.212   0.182   8.606
34756SOL    HW2 6101   7.312   0.156   8.495
34757SOL     OW 6102  10.523   8.589  11.779
34757SOL    HW1 6103  10.594   8.531  11.809
34757SOL    HW2 6104  10.525   8.581  11.683
34758SOL     OW 6105   2.527   7.775   7.002
34758SOL    HW1 6106   2.479   7.803   7.080
34758SOL    HW2 6107   2.601   7.724   7.036
34759SOL     OW 6108   9.535   9.573   4.074
34759SOL    HW1 6109   9.600   9.551   4.008
34759SOL    HW2 6110   9.524   9.668   4.068
34760SOL     OW 6111   9.161   2.928   4.204
34760SOL    HW1 6112   9.225   2.917   4.274
34760SOL    HW2 6113   9.198   2.996   4.147
34761SOL     OW 6114   0.195  11.833   0.261
34761SOL    HW1 6115   0.116  11.792   0.224
34761SOL    HW2 6116   0.229  11.886   0.189
34762SOL     OW 6117  10.963   2.063   8.168
34762SOL    HW1 6118  11.003   2.137   8.213
34762SOL    HW2 6119  10.913   2.017   8.235
34763SOL     OW 6120   9.751   0.274   9.721
34763SOL    HW1 6121   9.711   0.277   9.634
34763SOL    HW2 6122   9.802   0.193   9.722
34764SOL     OW 6123   4.719   0.392  10.639
34764SOL    HW1 6124   4.712   0.410  10.733
34764SOL    HW2 6125   4.668   0.460  10.597
34765SOL     OW 6126   5.854   6.347  11.674
34765SOL    HW1 6127   5.801   6.379  11.746
34765SOL    HW2 6128   5.915   6.418  11.655
34766SOL     OW 6129  13.565  14.682   2.774
34766SOL    HW1 6130  13.485  14.732   2.789
34766SOL    HW2 6131  13.611  14.684   2.858
34767SOL     OW 6132   1.452  11.511   8.419
34767SOL    HW1 6133   1.382  11.471   8.368
34767SOL    HW2 6134   1.412  11.588   8.459
34768SOL     OW 6135  14.639   5.496   5.472
34768SOL    HW1 6136  14.554   5.502   5.516
34768SOL    HW2 6137  14.652   5.402   5.458
34769SOL     OW 6138   1.182   1.888  10.550
34769SOL    HW1 6139   1.087   1.890  10.562
34769SOL    HW2 6140   1.204   1.795  10.549
34770SOL     OW 6141  12.968   6.786   1.163
34770SOL    HW1 6142  13.038   6.763   1.102
34770SOL    HW2 6143  12.896   6.728   1.140
34771SOL     OW 6144  13.391   0.201   8.199
34771SOL    HW1 6145  13.308   0.225   8.241
34771SOL    HW2 6146  13.437   0.284   8.189
34772SOL     OW 6147   1.760   5.267   3.286
34772SOL    HW1 6148   1.789   5.264   3.377
34772SOL    HW2 6149   1.759   5.176   3.258
34773SOL     OW 6150   5.295  11.586  14.644
34773SOL    HW1 6151   5.216  11.613  14.691
34773SOL    HW2 6152   5.339  11.668  14.621
34774SOL     OW 6153  10.635   4.378   1.420
34774SOL    HW1 6154  10.718   4.397   1.464
34774SOL    HW2 6155  10.579   4.341   1.488
34775SOL     OW 6156   3.256   8.762   1.384
34775SOL    HW1 6157   3.168   8.781   1.352
34775SOL    HW2 6158   3.271   8.825   1.454
34776SOL     OW 6159  14.045  13.713  11.638
34776SOL    HW1 6160  14.126  13.734  11.684
34776SOL    HW2 6161  14.019  13.628  11.674
34777SOL     OW 6162  11.451   0.230   1.866
34777SOL    HW1 6163  11.435   0.323   1.878
34777SOL    HW2 6164  11.509   0.206   1.938
34778SOL     OW 6165   4.454   5.651  10.355
34778SOL    HW1 6166   4.443   5.742  10.328
34778SOL    HW2 6167   4.389   5.639  10.424
34779SOL     OW 6168  13.928  14.791   8.216
34779SOL    HW1 6169  13.920  14.712   8.161
34779SOL    HW2 6170  13.901  14.863   8.159
34780SOL     OW 6171   6.387   8.155   1.532
34780SOL    HW1 6172   6.402   8.249   1.529
34780SOL    HW2 6173   6.328   8.137   1.459
34781SOL     OW 6174   5.480   6.043  10.702
34781SOL    HW1 6175   5.432   5.961  10.708
34781SOL    HW2 6176   5.416   6.110  10.725
34782SOL     OW 6177   4.763   5.051   1.573
34782SOL    HW1 6178   4.788   5.140   1.549
34782SOL    HW2 6179   4.668   5.049   1.564
34783SOL     OW 6180   8.436   8.359   6.184
34783SOL    HW1 6181   8.416   8.353   6.090
34783SOL    HW2 6182   8.351   8.374   6.226
34784SOL     OW 6183   3.604   0.283   9.661
34784SOL    HW1 6184   3.675   0.218   9.661
34784SOL    HW2 6185   3.530   0.237   9.621
34785SOL     OW 6186   4.619   0.138  11.820
34785SOL    HW1 6187   4.544   0.081  11.801
34785SOL    HW2 6188   4.671   0.089  11.884
34786SOL     OW 6189  10.882   9.322   1.071
34786SOL    HW1 6190  10.851   9.361   0.990
34786SOL    HW2 6191  10.885   9.395   1.133
34787SOL     OW 6192   2.849   6.292   4.469
34787SOL    HW1 6193   2.914   6.252   4.528
34787SOL    HW2 6194   2.791   6.219   4.446
34788SOL     OW 6195  13.123  13.450   3.174
34788SOL    HW1 6196  13.157  13.501   3.101
34788SOL    HW2 6197  13.057  13.392   3.135
34789SOL     OW 6198   0.912   3.413   3.363
34789SOL    HW1 6199   0.978   3.462   3.315
34789SOL    HW2 6200   0.829   3.437   3.322
34790SOL     OW 6201   9.403  14.787   8.204
34790SOL    HW1 6202   9.445  14.727   8.265
34790SOL    HW2 6203   9.320  14.744   8.181
34791SOL     OW 6204  14.635   7.883   6.789
34791SOL    HW1 6205  14.675   7.859   6.872
34791SOL    HW2 6206  14.548   7.916   6.813
34792SOL     OW 6207   0.970   8.834   8.368
34792SOL    HW1 6208   0.987   8.872   8.281
34792SOL    HW2 6209   0.999   8.902   8.430
34793SOL     OW 6210   0.576  12.032  13.075
34793SOL    HW1 6211   0.562  11.943  13.108
34793SOL    HW2 6212   0.669  12.050  13.092
34794SOL     OW 6213  14.091   2.426   5.287
34794SOL    HW1 6214  14.139   2.355   5.329
34794SOL    HW2 6215  14.078   2.491   5.356
34795SOL     OW 6216   5.057   5.878   2.500
34795SOL    HW1 6217   5.092   5.809   2.444
34795SOL    HW2 6218   4.997   5.926   2.443
34796SOL     OW 6219  11.173  13.526   5.977
34796SOL    HW1 6220  11.221  13.461   6.029
34796SOL    HW2 6221  11.085  13.489   5.969
34797SOL     OW 6222  14.380   2.104  14.472
34797SOL    HW1 6223  14.435   2.082  14.548
34797SOL    HW2 6224  14.437   2.157  14.417
34798SOL     OW 6225   2.165  11.856  11.068
34798SOL    HW1 6226   2.206  11.821  11.147
34798SOL    HW2 6227   2.082  11.810  11.062
34799SOL     OW 6228   4.555   0.410  14.341
34799SOL    HW1 6229   4.551   0.318  14.368
34799SOL    HW2 6230   4.649   0.427  14.329
34800SOL     OW 6231   8.050   5.025   2.782
34800SOL    HW1 6232   8.065   5.071   2.700
34800SOL    HW2 6233   8.127   5.044   2.836
34801SOL     OW 6234   2.194  14.795   6.720
34801SOL    HW1 6235   2.211  14.713   6.765
34801SOL    HW2 6236   2.101  14.791   6.698
34802SOL     OW 6237   2.225   3.792   8.775
34802SOL    HW1 6238   2.296   3.778   8.838
34802SOL    HW2 6239   2.234   3.719   8.714
34803SOL     OW 6240  14.088   8.438   5.273
34803SOL    HW1 6241  14.132   8.358   5.303
34803SOL    HW2 6242  14.022   8.407   5.211
34804SOL     OW 6243   9.315   0.746   6.338
34804SOL    HW1 6244   9.290   0.670   6.285
34804SOL    HW2 6245   9.292   0.722   6.427
34805SOL     OW 6246   9.655   3.179   8.302
34805SOL    HW1 6247   9.583   3.134   8.258
34805SOL    HW2 6248   9.729   3.120   8.293
34806SOL     OW 6249  14.259  10.082   1.232
34806SOL    HW1 6250  14.210  10.031   1.297
34806SOL    HW2 6251  14.193  10.137   1.190
34807SOL     OW 6252  12.215  12.397  12.281
34807SOL    HW1 6253  12.255  12.330  12.225
34807SOL    HW2 6254  12.264  12.393  12.363
34808SOL     OW 6255  10.263   4.939   6.184
34808SOL    HW1 6256  10.219   4.857   6.164
34808SOL    HW2 6257  10.195   5.006   6.171
34809SOL     OW 6258   3.156   4.098  13.586
34809SOL    HW1 6259   3.181   4.189  13.601
34809SOL    HW2 6260   3.063   4.103  13.561
34810SOL     OW 6261   0.987   8.148  12.131
34810SOL    HW1 6262   1.044   8.104  12.194
34810SOL    HW2 6263   0.966   8.232  12.172
34811SOL     OW 6264   7.193   4.410  13.038
34811SOL    HW1 6265   7.285   4.385  13.038
34811SOL    HW2 6266   7.150   4.344  13.091
34812SOL     OW 6267  13.590   4.899  10.079
34812SOL    HW1 6268  13.567   4.842  10.005
34812SOL    HW2 6269  13.683   4.881  10.095
34813SOL     OW 6270   3.797   4.663   5.178
34813SOL    HW1 6271   3.770   4.671   5.270
34813SOL    HW2 6272   3.811   4.569   5.166
34814SOL     OW 6273  14.792  13.588  12.803
34814SOL    HW1 6274  14.810  13.657  12.740
34814SOL    HW2 6275  14.826  13.508  12.762
34815SOL     OW 6276  12.448   2.380  13.697
34815SOL    HW1 6277  12.413   2.456  13.651
34815SOL    HW2 6278  12.454   2.408  13.789
34816SOL     OW 6279   3.309   8.182   1.976
34816SOL    HW1 6280   3.403   8.189   1.957
34816SOL    HW2 6281   3.305   8.169   2.071
34817SOL     OW 6282  14.307   4.791   7.901
34817SOL    HW1 6283  14.321   4.831   7.815
34817SOL    HW2 6284  14.324   4.698   7.887
34818SOL     OW 6285  14.365   3.776   8.516
34818SOL    HW1 6286  14.372   3.707   8.450
34818SOL    HW2 6287  14.318   3.847   8.471
34819SOL     OW 6288  10.470   2.545   4.090
34819SOL    HW1 6289  10.553   2.581   4.057
34819SOL    HW2 6290  10.478   2.551   4.185
34820SOL     OW 6291   3.798  13.179  13.784
34820SOL    HW1 6292   3.855  13.254  13.768
34820SOL    HW2 6293   3.853  13.117  13.834
34821SOL     OW 6294  12.364  11.247  12.088
34821SOL    HW1 6295  12.279  11.208  12.068
34821SOL    HW2 6296  12.428  11.182  12.061
34822SOL     OW 6297   7.721   0.061   5.146
34822SOL    HW1 6298   7.655   0.124   5.116
34822SOL    HW2 6299   7.678  14.848   5.140
34823SOL     OW 6300   4.026  10.407   1.423
34823SOL    HW1 6301   4.034  10.432   1.515
34823SOL    HW2 6302   3.959  10.466   1.388
34824SOL     OW 6303   2.555   1.110   9.160
34824SOL    HW1 6304   2.585   1.020   9.146
34824SOL    HW2 6305   2.484   1.121   9.096
34825SOL     OW 6306   3.552   1.235  12.464
34825SOL    HW1 6307   3.539   1.147  12.499
34825SOL    HW2 6308   3.568   1.290  12.541
34826SOL     OW 6309  12.956  11.786   6.400
34826SOL    HW1 6310  13.001  11.729   6.462
34826SOL    HW2 6311  12.877  11.737   6.376
34827SOL     OW 6312  13.689   9.035   5.597
34827SOL    HW1 6313  13.769   9.072   5.558
34827SOL    HW2 6314  13.628   9.027   5.523
34828SOL     OW 6315  14.191   7.831   0.077
34828SOL    HW1 6316  14.190   7.901   0.013
34828SOL    HW2 6317  14.281   7.799   0.076
34829SOL     OW 6318   9.227  13.316   7.218
34829SOL    HW1 6319   9.285  13.378   7.263
34829SOL    HW2 6320   9.150  13.310   7.274
34830SOL     OW 6321   2.143  13.644   7.345
34830SOL    HW1 6322   2.146  13.604   7.258
34830SOL    HW2 6323   2.211  13.711   7.343
34831SOL     OW 6324   1.038   5.292   1.835
34831SOL    HW1 6325   1.104   5.362   1.835
34831SOL    HW2 6326   0.974   5.319   1.900
34832SOL     OW 6327   5.653  12.450   3.993
34832SOL    HW1 6328   5.603  12.500   3.929
34832SOL    HW2 6329   5.706  12.390   3.940
34833SOL     OW 6330  14.790   7.779   3.335
34833SOL    HW1 6331  14.746   7.712   3.283
34833SOL    HW2 6332  14.831   7.731   3.407
34834SOL     OW 6333  11.937   6.928   5.332
34834SOL    HW1 6334  12.009   6.919   5.269
34834SOL    HW2 6335  11.922   6.838   5.363
34835SOL     OW 6336   8.821  12.614   7.557
34835SOL    HW1 6337   8.855  12.674   7.491
34835SOL    HW2 6338   8.726  12.618   7.546
34836SOL     OW 6339  10.225  11.796   0.592
34836SOL    HW1 6340  10.157  11.809   0.526
34836SOL    HW2 6341  10.182  11.820   0.675
34837SOL     OW 6342   0.593  11.885   0.621
34837SOL    HW1 6343   0.548  11.969   0.616
34837SOL    HW2 6344   0.527  11.821   0.593
34838SOL     OW 6345   8.582   6.171   9.823
34838SOL    HW1 6346   8.659   6.157   9.878
34838SOL    HW2 6347   8.617   6.181   9.734
34839SOL     OW 6348  12.376  13.662   7.480
34839SOL    HW1 6349  12.414  13.615   7.554
34839SOL    HW2 6350  12.433  13.642   7.406
34840SOL     OW 6351  10.553   4.046   7.564
34840SOL    HW1 6352  10.558   3.960   7.522
34840SOL    HW2 6353  10.474   4.041   7.618
34841SOL     OW 6354  11.868   5.676   8.534
34841SOL    HW1 6355  11.803   5.662   8.603
34841SOL    HW2 6356  11.942   5.622   8.560
34842SOL     OW 6357  12.210  10.501   5.065
34842SOL    HW1 6358  12.239  10.585   5.102
34842SOL    HW2 6359  12.117  10.497   5.088
34843SOL     OW 6360  10.484   6.609   0.602
34843SOL    HW1 6361  10.421   6.640   0.536
34843SOL    HW2 6362  10.431   6.557   0.663
34844SOL     OW 6363  14.497   6.938   9.184
34844SOL    HW1 6364  14.486   6.846   9.209
34844SOL    HW2 6365  14.487   6.939   9.089
34845SOL     OW 6366   1.301   6.148  10.811
34845SOL    HW1 6367   1.321   6.124  10.721
34845SOL    HW2 6368   1.274   6.240  10.806
34846SOL     OW 6369  14.539   0.027  11.537
34846SOL    HW1 6370  14.584   0.014  11.621
34846SOL    HW2 6371  14.462   0.078  11.558
34847SOL     OW 6372  13.213  12.940   5.264
34847SOL    HW1 6373  13.300  12.948   5.303
34847SOL    HW2 6374  13.159  13.001   5.314
34848SOL     OW 6375   5.405  10.971   5.946
34848SOL    HW1 6376   5.370  10.922   6.021
34848SOL    HW2 6377   5.435  10.904   5.885
34849SOL     OW 6378   1.347   9.841  10.469
34849SOL    HW1 6379   1.374   9.837  10.377
34849SOL    HW2 6380   1.429   9.837  10.518
34850SOL     OW 6381  10.463   7.672   2.430
34850SOL    HW1 6382  10.370   7.671   2.407
34850SOL    HW2 6383  10.492   7.582   2.417
34851SOL     OW 6384   3.445   9.001   7.002
34851SOL    HW1 6385   3.376   8.953   7.049
34851SOL    HW2 6386   3.493   9.047   7.070
34852SOL     OW 6387   6.499   9.882   7.819
34852SOL    HW1 6388   6.563   9.912   7.884
34852SOL    HW2 6389   6.546   9.881   7.737
34853SOL     OW 6390   3.045   4.694   9.247
34853SOL    HW1 6391   3.018   4.768   9.192
34853SOL    HW2 6392   2.999   4.619   9.209
34854SOL     OW 6393  12.773   0.956  12.244
34854SOL    HW1 6394  12.794   1.034  12.193
34854SOL    HW2 6395  12.858   0.924  12.275
34855SOL     OW 6396   2.855   7.540   2.171
34855SOL    HW1 6397   2.769   7.530   2.210
34855SOL    HW2 6398   2.887   7.450   2.160
34856SOL     OW 6399   3.987   5.289  11.668
34856SOL    HW1 6400   3.942   5.212  11.634
34856SOL    HW2 6401   3.921   5.359  11.663
34857SOL     OW 6402   3.586   9.208  14.181
34857SOL    HW1 6403   3.653   9.273  14.161
34857SOL    HW2 6404   3.547   9.239  14.263
34858SOL     OW 6405  12.913   5.836   7.771
34858SOL    HW1 6406  12.984   5.782   7.805
34858SOL    HW2 6407  12.873   5.875   7.849
34859SOL     OW 6408   4.359   0.740   5.362
34859SOL    HW1 6409   4.352   0.793   5.282
34859SOL    HW2 6410   4.451   0.748   5.388
34860SOL     OW 6411   7.284  12.880  12.450
34860SOL    HW1 6412   7.245  12.964  12.426
34860SOL    HW2 6413   7.276  12.826  12.371
34861SOL     OW 6414  14.045  11.423   4.843
34861SOL    HW1 6415  14.139  11.405   4.841
34861SOL    HW2 6416  14.008  11.368   4.775
34862SOL     OW 6417  11.473   0.592  13.411
34862SOL    HW1 6418  11.478   0.680  13.448
34862SOL    HW2 6419  11.447   0.606  13.320
34863SOL     OW 6420  10.217   8.475   3.447
34863SOL    HW1 6421  10.162   8.405   3.412
34863SOL    HW2 6422  10.163   8.553   3.441
34864SOL     OW 6423   0.581   8.126   5.878
34864SOL    HW1 6424   0.636   8.148   5.952
34864SOL    HW2 6425   0.492   8.120   5.914
34865SOL     OW 6426   2.272  11.074   5.623
34865SOL    HW1 6427   2.199  11.038   5.573
34865SOL    HW2 6428   2.231  11.138   5.682
34866SOL     OW 6429  11.192   4.647   9.015
34866SOL    HW1 6430  11.196   4.712   9.085
34866SOL    HW2 6431  11.128   4.583   9.044
34867SOL     OW 6432  13.406   9.116   2.874
34867SOL    HW1 6433  13.373   9.044   2.822
34867SOL    HW2 6434  13.328   9.158   2.911
34868SOL     OW 6435   8.465  12.712   5.665
34868SOL    HW1 6436   8.557  12.687   5.661
34868SOL    HW2 6437   8.466  12.808   5.676
34869SOL     OW 6438  11.468   4.678   8.198
34869SOL    HW1 6439  11.482   4.773   8.193
34869SOL    HW2 6440  11.519   4.642   8.126
34870SOL     OW 6441   6.329   3.981   3.806
34870SOL    HW1 6442   6.400   3.917   3.815
34870SOL    HW2 6443   6.330   4.005   3.714
34871SOL     OW 6444   5.163   9.768  13.345
34871SOL    HW1 6445   5.146   9.675  13.337
34871SOL    HW2 6446   5.155   9.787  13.439
34872SOL     OW 6447   9.346  14.022   0.024
34872SOL    HW1 6448   9.394  14.021  14.813
34872SOL    HW2 6449   9.409  14.060   0.086
34873SOL     OW 6450   7.503  12.234  14.015
34873SOL    HW1 6451   7.530  12.235  13.924
34873SOL    HW2 6452   7.578  12.198  14.063
34874SOL     OW 6453  12.999   7.319  13.912
34874SOL    HW1 6454  12.912   7.300  13.947
34874SOL    HW2 6455  13.053   7.334  13.989
34875SOL     OW 6456  13.450  11.411   7.430
34875SOL    HW1 6457  13.479  11.464   7.504
34875SOL    HW2 6458  13.502  11.442   7.356
34876SOL     OW 6459   7.910   4.574  13.057
34876SOL    HW1 6460   7.911   4.659  13.012
34876SOL    HW2 6461   7.887   4.511  12.988
34877SOL     OW 6462  12.275   6.366   1.118
34877SOL    HW1 6463  12.232   6.306   1.057
34877SOL    HW2 6464  12.231   6.352   1.202
34878SOL     OW 6465   7.233  12.863   9.927
34878SOL    HW1 6466   7.150  12.902   9.899
34878SOL    HW2 6467   7.232  12.775   9.892
34879SOL     OW 6468  13.061   0.938   3.927
34879SOL    HW1 6469  13.082   0.991   4.004
34879SOL    HW2 6470  13.124   0.866   3.929
34880SOL     OW 6471   8.888   2.125   3.124
34880SOL    HW1 6472   8.982   2.137   3.139
34880SOL    HW2 6473   8.863   2.201   3.072
34881SOL     OW 6474  12.937   3.639   8.710
34881SOL    HW1 6475  12.845   3.666   8.714
34881SOL    HW2 6476  12.981   3.710   8.663
34882SOL     OW 6477   0.112   4.173   8.371
34882SOL    HW1 6478   0.050   4.101   8.357
34882SOL    HW2 6479   0.190   4.146   8.324
34883SOL     OW 6480   3.722   2.060   5.018
34883SOL    HW1 6481   3.797   2.119   5.019
34883SOL    HW2 6482   3.665   2.093   5.088
34884SOL     OW 6483   8.319  10.200   4.859
34884SOL    HW1 6484   8.371  10.163   4.930
34884SOL    HW2 6485   8.308  10.292   4.881
34885SOL     OW 6486   8.617  10.619  13.329
34885SOL    HW1 6487   8.526  10.607  13.305
34885SOL    HW2 6488   8.652  10.530  13.338
34886SOL     OW 6489   4.992  13.170  13.619
34886SOL    HW1 6490   5.047  13.108  13.571
34886SOL    HW2 6491   5.054  13.232  13.658
34887SOL     OW 6492  13.404  12.362   0.050
34887SOL    HW1 6493  13.378  12.449   0.083
34887SOL    HW2 6494  13.369  12.301   0.115
34888SOL     OW 6495  10.153   5.321   9.559
34888SOL    HW1 6496  10.125   5.230   9.570
34888SOL    HW2 6497  10.222   5.317   9.493
34889SOL     OW 6498   3.231  13.679   9.151
34889SOL    HW1 6499   3.183  13.750   9.196
34889SOL    HW2 6500   3.165  13.611   9.137
34890SOL     OW 6501   4.167   4.213   0.218
34890SOL    HW1 6502   4.238   4.150   0.209
34890SOL    HW2 6503   4.176   4.272   0.143
34891SOL     OW 6504  13.137   7.084   7.367
34891SOL    HW1 6505  13.230   7.064   7.360
34891SOL    HW2 6506  13.108   7.037   7.445
34892SOL     OW 6507  10.072   3.164   7.876
34892SOL    HW1 6508   9.982   3.193   7.856
34892SOL    HW2 6509  10.072   3.071   7.853
34893SOL     OW 6510  12.166   1.471   7.629
34893SOL    HW1 6511  12.193   1.472   7.721
34893SOL    HW2 6512  12.071   1.479   7.631
34894SOL     OW 6513   2.013   4.459   0.439
34894SOL    HW1 6514   2.010   4.554   0.433
34894SOL    HW2 6515   2.023   4.442   0.533
34895SOL     OW 6516   8.446  14.356  12.727
34895SOL    HW1 6517   8.538  14.331  12.733
34895SOL    HW2 6518   8.442  14.442  12.770
34896SOL     OW 6519   4.311  11.832  12.769
34896SOL    HW1 6520   4.359  11.851  12.849
34896SOL    HW2 6521   4.238  11.777  12.797
34897SOL     OW 6522   6.132   1.784   2.190
34897SOL    HW1 6523   6.108   1.789   2.098
34897SOL    HW2 6524   6.223   1.815   2.193
34898SOL     OW 6525  11.692   4.349   5.263
34898SOL    HW1 6526  11.739   4.425   5.230
34898SOL    HW2 6527  11.743   4.319   5.338
34899SOL     OW 6528   9.032  12.444   7.160
34899SOL    HW1 6529   8.966  12.513   7.145
34899SOL    HW2 6530   9.082  12.476   7.235
34900SOL     OW 6531   9.751   8.960   9.505
34900SOL    HW1 6532   9.703   8.960   9.422
34900SOL    HW2 6533   9.832   8.913   9.486
34901SOL     OW 6534   9.917   4.058   7.834
34901SOL    HW1 6535   9.828   4.089   7.817
34901SOL    HW2 6536   9.910   4.009   7.916
34902SOL     OW 6537   2.188   5.324   3.795
34902SOL    HW1 6538   2.119   5.389   3.781
34902SOL    HW2 6539   2.179   5.263   3.721
34903SOL     OW 6540   6.536  10.582   2.990
34903SOL    HW1 6541   6.499  10.668   3.009
34903SOL    HW2 6542   6.600  10.567   3.060
34904SOL     OW 6543  10.952  11.497   4.774
34904SOL    HW1 6544  10.929  11.533   4.860
34904SOL    HW2 6545  11.030  11.546   4.748
34905SOL     OW 6546   4.447   3.341   2.754
34905SOL    HW1 6547   4.392   3.267   2.780
34905SOL    HW2 6548   4.490   3.313   2.674
34906SOL     OW 6549   6.427   5.309   5.297
34906SOL    HW1 6550   6.448   5.237   5.356
34906SOL    HW2 6551   6.512   5.337   5.261
34907SOL     OW 6552  11.718   9.087  12.242
34907SOL    HW1 6553  11.740   8.997  12.266
34907SOL    HW2 6554  11.693   9.082  12.150
34908SOL     OW 6555  12.973   0.368   1.534
34908SOL    HW1 6556  12.965   0.339   1.443
34908SOL    HW2 6557  12.909   0.438   1.542
34909SOL     OW 6558  12.145   9.721   0.858
34909SOL    HW1 6559  12.063   9.731   0.906
34909SOL    HW2 6560  12.147   9.628   0.833
34910SOL     OW 6561   5.657   3.813   6.642
34910SOL    HW1 6562   5.726   3.767   6.594
34910SOL    HW2 6563   5.578   3.797   6.590
34911SOL     OW 6564  12.682   1.549   0.686
34911SOL    HW1 6565  12.665   1.597   0.605
34911SOL    HW2 6566  12.649   1.606   0.755
34912SOL     OW 6567   3.342  10.333   6.925
34912SOL    HW1 6568   3.299  10.336   6.839
34912SOL    HW2 6569   3.423  10.383   6.913
34913SOL     OW 6570   8.779  11.001   8.789
34913SOL    HW1 6571   8.758  11.003   8.882
34913SOL    HW2 6572   8.769  11.091   8.760
34914SOL     OW 6573   9.731   6.593  14.046
34914SOL    HW1 6574   9.680   6.598  14.127
34914SOL    HW2 6575   9.793   6.666  14.052
34915SOL     OW 6576   4.510   2.429   7.953
34915SOL    HW1 6577   4.490   2.338   7.933
34915SOL    HW2 6578   4.431   2.477   7.927
34916SOL     OW 6579   8.409   7.346  14.642
34916SOL    HW1 6580   8.327   7.321  14.598
34916SOL    HW2 6581   8.380   7.398  14.718
34917SOL     OW 6582  11.654   5.100   2.725
34917SOL    HW1 6583  11.668   5.111   2.631
34917SOL    HW2 6584  11.742   5.089   2.761
34918SOL     OW 6585  13.408  13.461  14.755
34918SOL    HW1 6586  13.425  13.500  14.669
34918SOL    HW2 6587  13.321  13.422  14.746
34919SOL     OW 6588   1.247   1.268   4.672
34919SOL    HW1 6589   1.260   1.337   4.737
34919SOL    HW2 6590   1.153   1.268   4.656
34920SOL     OW 6591   0.625   0.898   9.352
34920SOL    HW1 6592   0.601   0.865   9.266
34920SOL    HW2 6593   0.558   0.863   9.411
34921SOL     OW 6594   8.733  10.614   3.712
34921SOL    HW1 6595   8.741  10.673   3.637
34921SOL    HW2 6596   8.650  10.567   3.697
34922SOL     OW 6597   5.071  14.524   2.146
34922SOL    HW1 6598   5.106  14.497   2.061
34922SOL    HW2 6599   5.143  14.508   2.208
34923SOL     OW 6600  10.698  10.094  10.920
34923SOL    HW1 6601  10.758  10.149  10.870
34923SOL    HW2 6602  10.736  10.092  11.008
34924SOL     OW 6603  11.578   6.117   6.883
34924SOL    HW1 6604  11.518   6.089   6.953
34924SOL    HW2 6605  11.559   6.211   6.872
34925SOL     OW 6606   7.905   1.558  11.005
34925SOL    HW1 6607   7.840   1.558  11.074
34925SOL    HW2 6608   7.962   1.483  11.024
34926SOL     OW 6609  11.231   2.190   7.666
34926SOL    HW1 6610  11.154   2.178   7.722
34926SOL    HW2 6611  11.217   2.275   7.624
34927SOL     OW 6612   1.378   3.041   4.666
34927SOL    HW1 6613   1.354   3.133   4.669
34927SOL    HW2 6614   1.337   3.008   4.586
34928SOL     OW 6615  11.353   0.702  11.957
34928SOL    HW1 6616  11.303   0.716  12.038
34928SOL    HW2 6617  11.296   0.647  11.904
34929SOL     OW 6618   0.424   4.689   0.251
34929SOL    HW1 6619   0.519   4.698   0.252
34929SOL    HW2 6620   0.402   4.654   0.337
34930SOL     OW 6621   2.317   9.557  13.077
34930SOL    HW1 6622   2.309   9.614  13.153
34930SOL    HW2 6623   2.382   9.491  13.102
34931SOL     OW 6624   5.259   7.861   5.490
34931SOL    HW1 6625   5.269   7.947   5.450
34931SOL    HW2 6626   5.342   7.846   5.535
34932SOL     OW 6627   1.952   3.558  11.903
34932SOL    HW1 6628   1.985   3.619  11.836
34932SOL    HW2 6629   1.861   3.542  11.878
34933SOL     OW 6630  12.772   4.608  14.296
34933SOL    HW1 6631  12.746   4.671  14.363
34933SOL    HW2 6632  12.703   4.616  14.229
34934SOL     OW 6633   6.650   9.672  14.295
34934SOL    HW1 6634   6.563   9.696  14.326
34934SOL    HW2 6635   6.694   9.756  14.279
34935SOL     OW 6636  12.422  14.033   1.815
34935SOL    HW1 6637  12.463  14.120   1.821
34935SOL    HW2 6638  12.328  14.051   1.811
34936SOL     OW 6639   7.830  12.051   3.728
34936SOL    HW1 6640   7.795  12.127   3.681
34936SOL    HW2 6641   7.832  11.981   3.663
34937SOL     OW 6642  10.255   6.430  13.866
34937SOL    HW1 6643  10.238   6.406  13.957
34937SOL    HW2 6644  10.181   6.393  13.818
34938SOL     OW 6645   2.874  13.216   4.278
34938SOL    HW1 6646   2.847  13.176   4.195
34938SOL    HW2 6647   2.810  13.185   4.342
34939SOL     OW 6648   1.340  12.112   4.816
34939SOL    HW1 6649   1.387  12.079   4.739
34939SOL    HW2 6650   1.247  12.105   4.792
34940SOL     OW 6651   3.209   8.592   4.865
34940SOL    HW1 6652   3.128   8.643   4.875
34940SOL    HW2 6653   3.279   8.653   4.888
34941SOL     OW 6654  10.105   9.096   9.331
34941SOL    HW1 6655  10.132   9.051   9.251
34941SOL    HW2 6656  10.109   9.028   9.398
34942SOL     OW 6657   5.732   7.243  10.799
34942SOL    HW1 6658   5.695   7.227  10.712
34942SOL    HW2 6659   5.782   7.324  10.789
34943SOL     OW 6660  12.942   1.100   4.187
34943SOL    HW1 6661  12.983   1.183   4.163
34943SOL    HW2 6662  12.849   1.114   4.171
34944SOL     OW 6663   0.541   0.051   3.732
34944SOL    HW1 6664   0.471   0.066   3.795
34944SOL    HW2 6665   0.616   0.101   3.766
34945SOL     OW 6666  13.093  13.992   0.141
34945SOL    HW1 6667  13.045  13.919   0.102
34945SOL    HW2 6668  13.072  14.067   0.085
34946SOL     OW 6669   1.886   9.475  14.072
34946SOL    HW1 6670   1.934   9.397  14.100
34946SOL    HW2 6671   1.940   9.548  14.104
34947SOL     OW 6672  14.371   1.412   8.810
34947SOL    HW1 6673  14.432   1.393   8.881
34947SOL    HW2 6674  14.368   1.331   8.759
34948SOL     OW 6675   1.746   5.327   8.899
34948SOL    HW1 6676   1.656   5.294   8.899
34948SOL    HW2 6677   1.768   5.338   8.807
34949SOL     OW 6678   0.510   3.289   4.128
34949SOL    HW1 6679   0.483   3.247   4.210
34949SOL    HW2 6680   0.478   3.378   4.136
34950SOL     OW 6681   3.727  13.983   3.287
34950SOL    HW1 6682   3.678  14.055   3.326
34950SOL    HW2 6683   3.718  13.996   3.193
34951SOL     OW 6684   5.681  14.346  11.754
34951SOL    HW1 6685   5.682  14.277  11.820
34951SOL    HW2 6686   5.602  14.330  11.703
34952SOL     OW 6687   6.232  13.102   8.773
34952SOL    HW1 6688   6.320  13.111   8.736
34952SOL    HW2 6689   6.220  13.182   8.825
34953SOL     OW 6690   6.137   5.061   0.685
34953SOL    HW1 6691   6.199   5.133   0.670
34953SOL    HW2 6692   6.162   5.025   0.770
34954SOL     OW 6693   6.994   2.297  10.957
34954SOL    HW1 6694   7.049   2.239  11.011
34954SOL    HW2 6695   6.906   2.261  10.964
34955SOL     OW 6696  12.862   7.187   3.957
34955SOL    HW1 6697  12.790   7.189   4.020
34955SOL    HW2 6698  12.881   7.279   3.939
34956SOL     OW 6699   9.385   6.736   6.589
34956SOL    HW1 6700   9.436   6.672   6.639
34956SOL    HW2 6701   9.446   6.808   6.573
34957SOL     OW 6702   3.374   5.806   3.830
34957SOL    HW1 6703   3.432   5.746   3.785
34957SOL    HW2 6704   3.316   5.840   3.761
34958SOL     OW 6705   0.563   5.217  12.843
34958SOL    HW1 6706   0.564   5.121  12.843
34958SOL    HW2 6707   0.654   5.242  12.830
34959SOL     OW 6708   7.530   2.898  13.081
34959SOL    HW1 6709   7.476   2.920  13.157
34959SOL    HW2 6710   7.560   2.809  13.097
34960SOL     OW 6711  12.511   4.912   7.537
34960SOL    HW1 6712  12.496   4.895   7.630
34960SOL    HW2 6713  12.513   5.008   7.530
34961SOL     OW 6714   9.545  14.313   3.869
34961SOL    HW1 6715   9.513  14.401   3.889
34961SOL    HW2 6716   9.505  14.257   3.936
34962SOL     OW 6717   3.697   8.691   0.101
34962SOL    HW1 6718   3.773   8.735   0.139
34962SOL    HW2 6719   3.722   8.676   0.010
34963SOL     OW 6720   3.808   2.398   5.534
34963SOL    HW1 6721   3.731   2.454   5.528
34963SOL    HW2 6722   3.800   2.355   5.619
34964SOL     OW 6723   1.249   8.977   8.734
34964SOL    HW1 6724   1.154   8.963   8.735
34964SOL    HW2 6725   1.259   9.072   8.735
34965SOL     OW 6726  10.439   1.976   5.098
34965SOL    HW1 6727  10.423   1.901   5.041
34965SOL    HW2 6728  10.502   2.029   5.049
34966SOL     OW 6729   6.540  11.766  12.949
34966SOL    HW1 6730   6.519  11.815  13.028
34966SOL    HW2 6731   6.635  11.773  12.940
34967SOL     OW 6732  11.646   3.367  12.998
34967SOL    HW1 6733  11.700   3.430  12.950
34967SOL    HW2 6734  11.629   3.297  12.935
34968SOL     OW 6735  11.683  10.770  10.670
34968SOL    HW1 6736  11.763  10.717  10.668
34968SOL    HW2 6737  11.666  10.783  10.763
34969SOL     OW 6738  14.367  11.148   6.051
34969SOL    HW1 6739  14.390  11.169   5.960
34969SOL    HW2 6740  14.292  11.090   6.044
34970SOL     OW 6741   0.605  13.904  11.133
34970SOL    HW1 6742   0.682  13.879  11.184
34970SOL    HW2 6743   0.617  13.997  11.115
34971SOL     OW 6744   1.016   3.253  11.036
34971SOL    HW1 6745   1.076   3.180  11.020
34971SOL    HW2 6746   1.057   3.303  11.107
34972SOL     OW 6747   6.072   8.712  13.016
34972SOL    HW1 6748   6.108   8.670  12.938
34972SOL    HW2 6749   6.023   8.643  13.061
34973SOL     OW 6750   9.150   0.259  14.739
34973SOL    HW1 6751   9.086   0.266  14.809
34973SOL    HW2 6752   9.148   0.167  14.713
34974SOL     OW 6753   2.640  14.351  10.676
34974SOL    HW1 6754   2.611  14.329  10.588
34974SOL    HW2 6755   2.736  14.354  10.669
34975SOL     OW 6756   2.032   9.927   7.402
34975SOL    HW1 6757   1.978   9.849   7.416
34975SOL    HW2 6758   2.076   9.911   7.318
34976SOL     OW 6759   8.018   4.762  10.521
34976SOL    HW1 6760   8.006   4.788  10.613
34976SOL    HW2 6761   8.026   4.846  10.475
34977SOL     OW 6762   4.709   7.332  10.424
34977SOL    HW1 6763   4.659   7.265  10.470
34977SOL    HW2 6764   4.644   7.395  10.395
34978SOL     OW 6765  14.829  14.263   5.551
34978SOL    HW1 6766  14.844  14.357   5.542
34978SOL    HW2 6767   0.044  14.224   5.543
34979SOL     OW 6768   4.190   0.127   0.437
34979SOL    HW1 6769   4.277   0.151   0.406
34979SOL    HW2 6770   4.138   0.207   0.424
34980SOL     OW 6771   2.547  12.881   2.885
34980SOL    HW1 6772   2.595  12.810   2.927
34980SOL    HW2 6773   2.573  12.877   2.793
34981SOL     OW 6774   4.059   1.066   9.386
34981SOL    HW1 6775   4.006   1.097   9.460
34981SOL    HW2 6776   4.002   1.076   9.310
34982SOL     OW 6777  10.810  10.687  12.122
34982SOL    HW1 6778  10.771  10.600  12.116
34982SOL    HW2 6779  10.871  10.682  12.196
34983SOL     OW 6780  12.156   7.247  12.970
34983SOL    HW1 6781  12.220   7.191  13.013
34983SOL    HW2 6782  12.074   7.198  12.973
34984SOL     OW 6783  10.293   9.699   9.656
34984SOL    HW1 6784  10.218   9.677   9.711
34984SOL    HW2 6785  10.351   9.623   9.662
34985SOL     OW 6786  13.437   3.986   4.619
34985SOL    HW1 6787  13.393   3.930   4.683
34985SOL    HW2 6788  13.385   3.977   4.540
34986SOL     OW 6789  13.619   1.397   3.326
34986SOL    HW1 6790  13.630   1.315   3.373
34986SOL    HW2 6791  13.683   1.392   3.254
34987SOL     OW 6792   2.777  11.156   3.716
34987SOL    HW1 6793   2.682  11.155   3.727
34987SOL    HW2 6794   2.809  11.083   3.769
34988SOL     OW 6795  10.627   9.409   2.735
34988SOL    HW1 6796  10.540   9.436   2.706
34988SOL    HW2 6797  10.655   9.344   2.670
34989SOL     OW 6798  10.104   4.652   2.357
34989SOL    HW1 6799  10.119   4.557   2.355
34989SOL    HW2 6800  10.169   4.685   2.419
34990SOL     OW 6801   4.933   5.971   6.366
34990SOL    HW1 6802   4.845   5.933   6.364
34990SOL    HW2 6803   4.924   6.053   6.318
34991SOL     OW 6804  12.632   4.411   9.948
34991SOL    HW1 6805  12.680   4.461  10.014
34991SOL    HW2 6806  12.544   4.403   9.983
34992SOL     OW 6807  12.480  13.654  11.116
34992SOL    HW1 6808  12.464  13.742  11.080
34992SOL    HW2 6809  12.511  13.670  11.205
34993SOL     OW 6810  10.515   5.166   7.855
34993SOL    HW1 6811  10.424   5.138   7.870
34993SOL    HW2 6812  10.561   5.138   7.934
34994SOL     OW 6813   0.974  13.056   9.579
34994SOL    HW1 6814   1.047  13.103   9.539
34994SOL    HW2 6815   1.000  13.045   9.670
34995SOL     OW 6816  11.364   4.431   0.967
34995SOL    HW1 6817  11.386   4.524   0.961
34995SOL    HW2 6818  11.430   4.394   1.025
34996SOL     OW 6819   8.482  10.294   6.978
34996SOL    HW1 6820   8.447  10.375   6.940
34996SOL    HW2 6821   8.429  10.281   7.057
34997SOL     OW 6822   4.174   0.928   4.756
34997SOL    HW1 6823   4.224   0.967   4.684
34997SOL    HW2 6824   4.161   1.000   4.818
34998SOL     OW 6825  14.160   8.006  12.703
34998SOL    HW1 6826  14.110   7.939  12.750
34998SOL    HW2 6827  14.250   7.973  12.703
34999SOL     OW 6828  13.150  10.229   4.840
34999SOL    HW1 6829  13.128  10.268   4.755
34999SOL    HW2 6830  13.243  10.249   4.851
35000SOL     OW 6831  10.783   5.994  13.866
35000SOL    HW1 6832  10.859   6.019  13.918
35000SOL    HW2 6833  10.806   5.909  13.829
35001SOL     OW 6834   5.095   9.011   0.809
35001SOL    HW1 6835   5.039   8.948   0.764
35001SOL    HW2 6836   5.053   9.096   0.795
35002SOL     OW 6837  11.931  13.323   7.276
35002SOL    HW1 6838  11.917  13.334   7.370
35002SOL    HW2 6839  11.991  13.249   7.269
35003SOL     OW 6840  10.042   4.239   6.051
35003SOL    HW1 6841  10.097   4.306   6.010
35003SOL    HW2 6842  10.089   4.215   6.131
35004SOL     OW 6843   7.758   1.999   1.278
35004SOL    HW1 6844   7.753   1.915   1.232
35004SOL    HW2 6845   7.801   2.058   1.216
35005SOL     OW 6846   7.868   2.997  11.090
35005SOL    HW1 6847   7.955   2.987  11.128
35005SOL    HW2 6848   7.862   2.928  11.025
35006SOL     OW 6849  11.692   8.214  10.023
35006SOL    HW1 6850  11.617   8.156  10.036
35006SOL    HW2 6851  11.768   8.159  10.040
35007SOL     OW 6852   9.522   2.061   3.241
35007SOL    HW1 6853   9.479   2.079   3.157
35007SOL    HW2 6854   9.569   2.141   3.262
35008SOL     OW 6855  10.303   0.401   5.297
35008SOL    HW1 6856  10.344   0.315   5.309
35008SOL    HW2 6857  10.249   0.392   5.219
35009SOL     OW 6858   1.576  14.052  11.091
35009SOL    HW1 6859   1.668  14.058  11.118
35009SOL    HW2 6860   1.579  14.049  10.995
35010SOL     OW 6861  14.554   0.429   4.835
35010SOL    HW1 6862  14.634   0.377   4.834
35010SOL    HW2 6863  14.512   0.406   4.918
35011SOL     OW 6864  14.827   4.555   1.298
35011SOL    HW1 6865  14.851   4.464   1.317
35011SOL    HW2 6866  14.847   4.602   1.379
35012SOL     OW 6867   6.683  12.900   5.548
35012SOL    HW1 6868   6.773  12.917   5.522
35012SOL    HW2 6869   6.683  12.807   5.574
35013SOL     OW 6870   5.794   1.101   5.861
35013SOL    HW1 6871   5.843   1.022   5.881
35013SOL    HW2 6872   5.771   1.092   5.768
35014SOL     OW 6873   7.556   6.647   9.524
35014SOL    HW1 6874   7.557   6.698   9.605
35014SOL    HW2 6875   7.621   6.691   9.468
35015SOL     OW 6876   6.934   7.773  12.525
35015SOL    HW1 6877   7.006   7.835  12.537
35015SOL    HW2 6878   6.936   7.753  12.431
35016SOL     OW 6879   4.590  12.510   5.703
35016SOL    HW1 6880   4.636  12.450   5.761
35016SOL    HW2 6881   4.563  12.455   5.629
35017SOL     OW 6882   0.340   3.362   9.594
35017SOL    HW1 6883   0.295   3.400   9.670
35017SOL    HW2 6884   0.288   3.284   9.573
35018SOL     OW 6885   1.438   6.141   0.919
35018SOL    HW1 6886   1.401   6.228   0.905
35018SOL    HW2 6887   1.364   6.081   0.912
35019SOL     OW 6888   2.660   9.562  14.524
35019SOL    HW1 6889   2.639   9.482  14.574
35019SOL    HW2 6890   2.751   9.550  14.497
35020SOL     OW 6891   2.387   3.928   5.164
35020SOL    HW1 6892   2.423   3.841   5.179
35020SOL    HW2 6893   2.462   3.987   5.175
35021SOL     OW 6894   8.777  14.155   0.323
35021SOL    HW1 6895   8.797  14.063   0.341
35021SOL    HW2 6896   8.722  14.152   0.245
35022SOL     OW 6897  11.350  11.052   9.887
35022SOL    HW1 6898  11.417  11.120   9.893
35022SOL    HW2 6899  11.300  11.060   9.968
35023SOL     OW 6900  12.245  13.614   4.043
35023SOL    HW1 6901  12.257  13.709   4.036
35023SOL    HW2 6902  12.334  13.579   4.036
35024SOL     OW 6903  14.254   2.506   5.738
35024SOL    HW1 6904  14.285   2.417   5.757
35024SOL    HW2 6905  14.210   2.534   5.818
35025SOL     OW 6906  13.230  13.758   7.423
35025SOL    HW1 6907  13.304  13.776   7.365
35025SOL    HW2 6908  13.266  13.706   7.494
35026SOL     OW 6909  14.295   3.944  10.565
35026SOL    HW1 6910  14.386   3.964  10.587
35026SOL    HW2 6911  14.254   3.922  10.649
35027SOL     OW 6912  10.235   7.554   1.105
35027SOL    HW1 6913  10.317   7.600   1.086
35027SOL    HW2 6914  10.214   7.507   1.024
35028SOL     OW 6915   4.453   6.632   8.222
35028SOL    HW1 6916   4.462   6.541   8.248
35028SOL    HW2 6917   4.530   6.650   8.168
35029SOL     OW 6918  13.065  13.405   8.974
35029SOL    HW1 6919  13.002  13.450   9.032
35029SOL    HW2 6920  13.080  13.467   8.903
35030SOL     OW 6921  11.511   5.751   2.903
35030SOL    HW1 6922  11.425   5.762   2.944
35030SOL    HW2 6923  11.569   5.808   2.953
35031SOL     OW 6924   7.861   3.935   2.474
35031SOL    HW1 6925   7.898   4.018   2.447
35031SOL    HW2 6926   7.771   3.936   2.441
35032SOL     OW 6927   9.097   9.963   4.180
35032SOL    HW1 6928   9.002   9.972   4.174
35032SOL    HW2 6929   9.131  10.003   4.100
35033SOL     OW 6930  10.135   6.416  11.592
35033SOL    HW1 6931  10.071   6.364  11.542
35033SOL    HW2 6932  10.188   6.459  11.525
35034SOL     OW 6933   8.589   6.591   4.912
35034SOL    HW1 6934   8.642   6.605   4.833
35034SOL    HW2 6935   8.638   6.635   4.982
35035SOL     OW 6936  13.950   3.868   8.437
35035SOL    HW1 6937  13.884   3.936   8.422
35035SOL    HW2 6938  14.027   3.916   8.466
35036SOL     OW 6939   8.154   8.314  10.959
35036SOL    HW1 6940   8.076   8.279  10.916
35036SOL    HW2 6941   8.214   8.240  10.964
35037SOL     OW 6942   8.972  13.183  10.184
35037SOL    HW1 6943   9.012  13.193  10.270
35037SOL    HW2 6944   8.995  13.264  10.137
35038SOL     OW 6945   5.207   6.021   2.921
35038SOL    HW1 6946   5.246   5.934   2.915
35038SOL    HW2 6947   5.225   6.049   3.011
35039SOL     OW 6948  14.698   7.128  14.025
35039SOL    HW1 6949  14.622   7.108  14.079
35039SOL    HW2 6950  14.666   7.121  13.935
35040SOL     OW 6951   1.860   4.498   7.588
35040SOL    HW1 6952   1.771   4.496   7.623
35040SOL    HW2 6953   1.899   4.577   7.626
35041SOL     OW 6954  10.884   1.350  12.191
35041SOL    HW1 6955  10.836   1.426  12.223
35041SOL    HW2 6956  10.840   1.327  12.109
35042SOL     OW 6957   4.708  10.953   7.736
35042SOL    HW1 6958   4.801  10.934   7.751
35042SOL    HW2 6959   4.708  11.018   7.666
35043SOL     OW 6960   0.054   8.878   8.295
35043SOL    HW1 6961   0.101   8.871   8.212
35043SOL    HW2 6962   0.094   8.953   8.340
35044SOL     OW 6963   1.009  10.322   1.121
35044SOL    HW1 6964   0.953  10.400   1.118
35044SOL    HW2 6965   0.962  10.257   1.068
35045SOL     OW 6966  11.190   9.258   9.830
35045SOL    HW1 6967  11.221   9.193   9.893
35045SOL    HW2 6968  11.160   9.208   9.755
35046SOL     OW 6969  12.240   1.842   9.642
35046SOL    HW1 6970  12.189   1.762   9.630
35046SOL    HW2 6971  12.312   1.817   9.700
35047SOL     OW 6972  14.208   8.160   4.080
35047SOL    HW1 6973  14.173   8.228   4.024
35047SOL    HW2 6974  14.300   8.184   4.093
35048SOL     OW 6975   6.950   8.234   9.160
35048SOL    HW1 6976   6.882   8.166   9.166
35048SOL    HW2 6977   6.914   8.307   9.210
35049SOL     OW 6978  11.589   6.973   6.957
35049SOL    HW1 6979  11.534   7.049   6.936
35049SOL    HW2 6980  11.575   6.959   7.051
35050SOL     OW 6981  11.348  14.346   1.478
35050SOL    HW1 6982  11.291  14.298   1.418
35050SOL    HW2 6983  11.353  14.290   1.556
35051SOL     OW 6984  12.526   6.234   1.453
35051SOL    HW1 6985  12.469   6.167   1.415
35051SOL    HW2 6986  12.487   6.317   1.427
35052SOL     OW 6987   5.514  12.101   1.845
35052SOL    HW1 6988   5.461  12.034   1.887
35052SOL    HW2 6989   5.575  12.053   1.789
35053SOL     OW 6990   3.239   5.385  12.948
35053SOL    HW1 6991   3.302   5.445  12.988
35053SOL    HW2 6992   3.291   5.306  12.930
35054SOL     OW 6993  14.657   3.231  12.659
35054SOL    HW1 6994  14.584   3.224  12.598
35054SOL    HW2 6995  14.617   3.247  12.744
35055SOL     OW 6996   2.625   7.329  10.489
35055SOL    HW1 6997   2.712   7.357  10.519
35055SOL    HW2 6998   2.566   7.399  10.518
35056SOL     OW 6999  12.448   2.873  13.717
35056SOL    HW1 7000  12.543   2.885  13.720
35056SOL    HW2 7001  12.429   2.814  13.791
35057SOL     OW 7002  11.228   6.782   1.495
35057SOL    HW1 7003  11.221   6.836   1.417
35057SOL    HW2 7004  11.150   6.727   1.493
35058SOL     OW 7005  12.480  12.584   0.589
35058SOL    HW1 7006  12.417  12.512   0.595
35058SOL    HW2 7007  12.435  12.658   0.631
35059SOL     OW 7008   3.560  13.048  14.606
35059SOL    HW1 7009   3.591  12.967  14.566
35059SOL    HW2 7010   3.546  13.026  14.698
35060SOL     OW 7011   9.186  14.529  10.752
35060SOL    HW1 7012   9.091  14.516  10.751
35060SOL    HW2 7013   9.206  14.561  10.664
35061SOL     OW 7014   7.412  13.747   3.136
35061SOL    HW1 7015   7.462  13.708   3.065
35061SOL    HW2 7016   7.333  13.694   3.142
35062SOL     OW 7017   3.643   3.143   5.992
35062SOL    HW1 7018   3.710   3.075   5.986
35062SOL    HW2 7019   3.690   3.225   5.982
35063SOL     OW 7020   8.552   4.375  13.368
35063SOL    HW1 7021   8.646   4.386  13.354
35063SOL    HW2 7022   8.525   4.453  13.416
35064SOL     OW 7023   6.201   8.422  14.370
35064SOL    HW1 7024   6.229   8.514  14.366
35064SOL    HW2 7025   6.193   8.397  14.278
35065SOL     OW 7026  10.495   2.987   0.790
35065SOL    HW1 7027  10.548   3.067   0.794
35065SOL    HW2 7028  10.558   2.918   0.769
35066SOL     OW 7029  12.333  11.059  14.379
35066SOL    HW1 7030  12.428  11.075  14.373
35066SOL    HW2 7031  12.302  11.061  14.289
35067SOL     OW 7032   4.690  14.786   0.459
35067SOL    HW1 7033   4.700  14.701   0.501
35067SOL    HW2 7034   4.777  14.827   0.468
35068SOL     OW 7035   1.182  11.863   4.867
35068SOL    HW1 7036   1.180  11.835   4.959
35068SOL    HW2 7037   1.245  11.803   4.826
35069SOL     OW 7038  13.871  11.250   1.029
35069SOL    HW1 7039  13.931  11.182   0.998
35069SOL    HW2 7040  13.840  11.218   1.114
35070SOL     OW 7041  13.057   6.044   0.978
35070SOL    HW1 7042  13.127   5.988   0.942
35070SOL    HW2 7043  13.008   6.073   0.901
35071SOL     OW 7044  13.978   7.454   9.315
35071SOL    HW1 7045  14.068   7.477   9.293
35071SOL    HW2 7046  13.936   7.436   9.231
35072SOL     OW 7047   1.615   1.092  12.263
35072SOL    HW1 7048   1.678   1.064  12.328
35072SOL    HW2 7049   1.573   1.011  12.234
35073SOL     OW 7050   2.195   6.611   3.180
35073SOL    HW1 7051   2.199   6.643   3.090
35073SOL    HW2 7052   2.121   6.656   3.219
35074SOL     OW 7053  14.864  11.789  10.116
35074SOL    HW1 7054   0.046  11.738  10.176
35074SOL    HW2 7055  14.847  11.729  10.043
35075SOL     OW 7056  13.654   8.745   9.572
35075SOL    HW1 7057  13.571   8.704   9.596
35075SOL    HW2 7058  13.673   8.805   9.645
35076SOL     OW 7059  10.219   6.461   2.200
35076SOL    HW1 7060  10.205   6.370   2.228
35076SOL    HW2 7061  10.182   6.464   2.112
35077SOL     OW 7062   1.223   3.693  12.722
35077SOL    HW1 7063   1.267   3.676  12.639
35077SOL    HW2 7064   1.169   3.614  12.736
35078SOL     OW 7065   9.569   1.059   2.292
35078SOL    HW1 7066   9.502   1.046   2.225
35078SOL    HW2 7067   9.649   1.026   2.253
35079SOL     OW 7068   4.022   9.544   5.591
35079SOL    HW1 7069   3.962   9.617   5.578
35079SOL    HW2 7070   4.037   9.510   5.503
35080SOL     OW 7071   8.324   5.846   5.200
35080SOL    HW1 7072   8.303   5.810   5.114
35080SOL    HW2 7073   8.271   5.925   5.207
35081SOL     OW 7074   0.211   9.960  14.248
35081SOL    HW1 7075   0.233   9.994  14.334
35081SOL    HW2 7076   0.116   9.965  14.243
35082SOL     OW 7077   1.391   5.998  13.216
35082SOL    HW1 7078   1.474   5.954  13.198
35082SOL    HW2 7079   1.343   5.995  13.133
35083SOL     OW 7080   4.162  13.456  14.354
35083SOL    HW1 7081   4.072  13.475  14.326
35083SOL    HW2 7082   4.156  13.449  14.449
35084SOL     OW 7083   8.827   7.844   5.535
35084SOL    HW1 7084   8.822   7.756   5.498
35084SOL    HW2 7085   8.901   7.840   5.595
35085SOL     OW 7086   6.432   2.113   8.804
35085SOL    HW1 7087   6.509   2.093   8.751
35085SOL    HW2 7088   6.359   2.075   8.756
35086SOL     OW 7089  13.757   5.018   5.808
35086SOL    HW1 7090  13.685   5.016   5.871
35086SOL    HW2 7091  13.755   5.107   5.772
35087SOL     OW 7092  11.786   4.441   6.246
35087SOL    HW1 7093  11.790   4.501   6.321
35087SOL    HW2 7094  11.760   4.497   6.173
35088SOL     OW 7095   5.054   3.375  11.045
35088SOL    HW1 7096   5.023   3.462  11.071
35088SOL    HW2 7097   5.107   3.346  11.120
35089SOL     OW 7098   0.239  11.541  12.153
35089SOL    HW1 7099   0.329  11.570  12.138
35089SOL    HW2 7100   0.215  11.496  12.073
35090SOL     OW 7101   7.301   7.469  14.741
35090SOL    HW1 7102   7.372   7.496  14.684
35090SOL    HW2 7103   7.308   7.527  14.817
35091SOL     OW 7104   2.851  10.594  12.203
35091SOL    HW1 7105   2.774  10.586  12.259
35091SOL    HW2 7106   2.918  10.633  12.259
35092SOL     OW 7107   5.945   3.775  14.860
35092SOL    HW1 7108   5.918   3.744  14.774
35092SOL    HW2 7109   6.038   3.755  14.865
35093SOL     OW 7110   6.469   0.915  10.040
35093SOL    HW1 7111   6.504   1.002  10.022
35093SOL    HW2 7112   6.543   0.865  10.074
35094SOL     OW 7113   6.420  10.108   6.799
35094SOL    HW1 7114   6.509  10.142   6.801
35094SOL    HW2 7115   6.374  10.157   6.867
35095SOL     OW 7116   5.626   9.499   5.148
35095SOL    HW1 7117   5.715   9.534   5.149
35095SOL    HW2 7118   5.582   9.542   5.220
35096SOL     OW 7119   8.371   0.431   8.159
35096SOL    HW1 7120   8.435   0.473   8.217
35096SOL    HW2 7121   8.424   0.386   8.094
35097SOL     OW 7122   3.043   1.225  13.505
35097SOL    HW1 7123   3.039   1.316  13.536
35097SOL    HW2 7124   2.991   1.176  13.569
35098SOL     OW 7125   9.817  13.317   4.635
35098SOL    HW1 7126   9.816  13.255   4.708
35098SOL    HW2 7127   9.910  13.328   4.615
35099SOL     OW 7128   9.706  14.135   2.084
35099SOL    HW1 7129   9.722  14.060   2.141
35099SOL    HW2 7130   9.789  14.151   2.040
35100SOL     OW 7131   9.808   9.203   0.417
35100SOL    HW1 7132   9.718   9.172   0.431
35100SOL    HW2 7133   9.853   9.181   0.499
35101SOL     OW 7134   8.007  14.776   6.874
35101SOL    HW1 7135   8.087  14.804   6.829
35101SOL    HW2 7136   8.032  14.769   6.966
35102SOL     OW 7137   8.639   8.155   5.400
35102SOL    HW1 7138   8.620   8.124   5.488
35102SOL    HW2 7139   8.618   8.081   5.343
35103SOL     OW 7140   0.461   1.062  10.598
35103SOL    HW1 7141   0.514   1.140  10.581
35103SOL    HW2 7142   0.372   1.095  10.609
35104SOL     OW 7143  10.745  10.339   3.599
35104SOL    HW1 7144  10.682  10.275   3.567
35104SOL    HW2 7145  10.790  10.294   3.671
35105SOL     OW 7146   1.358   0.688   1.346
35105SOL    HW1 7147   1.292   0.640   1.396
35105SOL    HW2 7148   1.414   0.620   1.308
35106SOL     OW 7149   8.685  12.190   0.746
35106SOL    HW1 7150   8.679  12.096   0.732
35106SOL    HW2 7151   8.622  12.228   0.685
35107SOL     OW 7152   5.770   8.409   4.712
35107SOL    HW1 7153   5.861   8.379   4.712
35107SOL    HW2 7154   5.719   8.331   4.731
35108SOL     OW 7155  11.607   3.521   5.779
35108SOL    HW1 7156  11.517   3.490   5.781
35108SOL    HW2 7157  11.626   3.543   5.870
35109SOL     OW 7158  12.532   9.205   7.789
35109SOL    HW1 7159  12.594   9.253   7.845
35109SOL    HW2 7160  12.517   9.123   7.835
35110SOL     OW 7161   1.763   1.131   0.156
35110SOL    HW1 7162   1.745   1.081   0.236
35110SOL    HW2 7163   1.811   1.071   0.100
35111SOL     OW 7164   3.255   8.117   8.049
35111SOL    HW1 7165   3.325   8.080   8.102
35111SOL    HW2 7166   3.298   8.186   7.998
35112SOL     OW 7167  13.485   4.182  12.688
35112SOL    HW1 7168  13.425   4.226  12.748
35112SOL    HW2 7169  13.441   4.100  12.666
35113SOL     OW 7170  14.649   7.409  10.794
35113SOL    HW1 7171  14.669   7.393  10.886
35113SOL    HW2 7172  14.674   7.501  10.780
35114SOL     OW 7173  14.014  10.839  12.378
35114SOL    HW1 7174  13.959  10.889  12.439
35114SOL    HW2 7175  13.983  10.865  12.292
35115SOL     OW 7176  13.010   4.281  10.639
35115SOL    HW1 7177  13.053   4.257  10.722
35115SOL    HW2 7178  13.014   4.376  10.637
35116SOL     OW 7179   4.424   5.488   2.562
35116SOL    HW1 7180   4.352   5.551   2.560
35116SOL    HW2 7181   4.396   5.420   2.623
35117SOL     OW 7182   0.527  11.703   2.942
35117SOL    HW1 7183   0.515  11.795   2.965
35117SOL    HW2 7184   0.508  11.699   2.848
35118SOL     OW 7185  14.366   1.245   1.843
35118SOL    HW1 7186  14.367   1.156   1.877
35118SOL    HW2 7187  14.371   1.234   1.748
35119SOL     OW 7188  11.230   3.358  10.448
35119SOL    HW1 7189  11.142   3.324  10.430
35119SOL    HW2 7190  11.266   3.376  10.361
35120SOL     OW 7191   4.542   5.530   1.172
35120SOL    HW1 7192   4.466   5.584   1.150
35120SOL    HW2 7193   4.556   5.545   1.265
35121SOL     OW 7194  10.898   0.431   3.848
35121SOL    HW1 7195  10.899   0.348   3.801
35121SOL    HW2 7196  10.889   0.407   3.940
35122SOL     OW 7197  14.272   9.045   0.765
35122SOL    HW1 7198  14.185   9.084   0.768
35122SOL    HW2 7199  14.292   9.023   0.856
35123SOL     OW 7200  14.818   1.418  10.212
35123SOL    HW1 7201  14.862   1.367  10.281
35123SOL    HW2 7202  14.779   1.492  10.258
35124SOL     OW 7203   3.337   4.647  14.449
35124SOL    HW1 7204   3.320   4.623  14.541
35124SOL    HW2 7205   3.286   4.726  14.435
35125SOL     OW 7206  10.296   6.522   4.631
35125SOL    HW1 7207  10.296   6.612   4.666
35125SOL    HW2 7208  10.355   6.526   4.556
35126SOL     OW 7209   4.046   7.334  13.527
35126SOL    HW1 7210   4.067   7.399  13.594
35126SOL    HW2 7211   4.123   7.277  13.524
35127SOL     OW 7212   3.464   4.881  11.283
35127SOL    HW1 7213   3.429   4.831  11.209
35127SOL    HW2 7214   3.544   4.921  11.248
35128SOL     OW 7215   1.157   1.558   3.178
35128SOL    HW1 7216   1.155   1.539   3.272
35128SOL    HW2 7217   1.065   1.563   3.152
35129SOL     OW 7218   7.284   6.971   1.077
35129SOL    HW1 7219   7.326   6.901   1.127
35129SOL    HW2 7220   7.226   7.014   1.139
35130SOL     OW 7221   3.367   0.169  13.935
35130SOL    HW1 7222   3.276   0.190  13.915
35130SOL    HW2 7223   3.369   0.158  14.030
35131SOL     OW 7224   1.048   9.340   5.096
35131SOL    HW1 7225   1.077   9.368   5.183
35131SOL    HW2 7226   1.024   9.248   5.107
35132SOL     OW 7227   7.489   3.869   9.519
35132SOL    HW1 7228   7.505   3.784   9.478
35132SOL    HW2 7229   7.419   3.908   9.467
35133SOL     OW 7230   8.169  12.482   2.666
35133SOL    HW1 7231   8.165  12.390   2.694
35133SOL    HW2 7232   8.100  12.491   2.601
35134SOL     OW 7233   4.734  12.704   9.285
35134SOL    HW1 7234   4.639  12.697   9.291
35134SOL    HW2 7235   4.755  12.668   9.200
35135SOL     OW 7236  13.306   2.979   7.279
35135SOL    HW1 7237  13.251   2.980   7.358
35135SOL    HW2 7238  13.320   3.072   7.258
35136SOL     OW 7239  10.369   1.427  13.883
35136SOL    HW1 7240  10.353   1.520  13.898
35136SOL    HW2 7241  10.463   1.416  13.896
35137SOL     OW 7242  13.692  12.301   0.907
35137SOL    HW1 7243  13.694  12.396   0.913
35137SOL    HW2 7244  13.599  12.280   0.896
35138SOL     OW 7245  10.881   1.455   2.102
35138SOL    HW1 7246  10.961   1.508   2.098
35138SOL    HW2 7247  10.865   1.429   2.012
35139SOL     OW 7248  10.991  13.716   7.501
35139SOL    HW1 7249  10.970  13.803   7.536
35139SOL    HW2 7250  11.003  13.661   7.579
35140SOL     OW 7251  12.446   8.371   6.527
35140SOL    HW1 7252  12.404   8.448   6.487
35140SOL    HW2 7253  12.489   8.327   6.454
35141SOL     OW 7254  11.419  14.521  12.165
35141SOL    HW1 7255  11.350  14.580  12.196
35141SOL    HW2 7256  11.414  14.526  12.069
35142SOL     OW 7257   7.215  14.385   2.439
35142SOL    HW1 7258   7.178  14.313   2.490
35142SOL    HW2 7259   7.294  14.349   2.399
35143SOL     OW 7260   9.996  12.218   3.117
35143SOL    HW1 7261  10.084  12.180   3.113
35143SOL    HW2 7262   9.999  12.291   3.054
35144SOL     OW 7263   0.506   5.159   3.697
35144SOL    HW1 7264   0.562   5.087   3.668
35144SOL    HW2 7265   0.561   5.211   3.756
35145SOL     OW 7266  14.774   9.745  10.933
35145SOL    HW1 7267  14.832   9.683  10.889
35145SOL    HW2 7268  14.830   9.818  10.958
35146SOL     OW 7269   6.927   8.613  13.605
35146SOL    HW1 7270   6.953   8.705  13.607
35146SOL    HW2 7271   7.010   8.565  13.605
35147SOL     OW 7272  10.745   3.496   9.508
35147SOL    HW1 7273  10.656   3.531   9.510
35147SOL    HW2 7274  10.795   3.556   9.564
35148SOL     OW 7275   6.318   0.977  14.412
35148SOL    HW1 7276   6.252   1.030  14.368
35148SOL    HW2 7277   6.345   1.029  14.488
35149SOL     OW 7278  14.619   7.416   6.898
35149SOL    HW1 7279  14.682   7.387   6.963
35149SOL    HW2 7280  14.672   7.442   6.823
35150SOL     OW 7281   2.528  14.064   5.812
35150SOL    HW1 7282   2.486  14.137   5.766
35150SOL    HW2 7283   2.458  14.000   5.824
35151SOL     OW 7284  11.971  14.145  14.665
35151SOL    HW1 7285  11.941  14.218  14.610
35151SOL    HW2 7286  12.017  14.087  14.605
35152SOL     OW 7287   8.921   5.700   5.051
35152SOL    HW1 7288   8.985   5.769   5.037
35152SOL    HW2 7289   8.871   5.696   4.969
35153SOL     OW 7290  12.205   4.468   4.218
35153SOL    HW1 7291  12.227   4.519   4.140
35153SOL    HW2 7292  12.272   4.400   4.222
35154SOL     OW 7293   0.057   7.285   8.616
35154SOL    HW1 7294  14.842   7.309   8.583
35154SOL    HW2 7295   0.113   7.358   8.590
35155SOL     OW 7296   5.826   9.928  11.079
35155SOL    HW1 7297   5.831   9.837  11.109
35155SOL    HW2 7298   5.903   9.939  11.022
35156SOL     OW 7299  14.168   6.542  11.797
35156SOL    HW1 7300  14.167   6.597  11.718
35156SOL    HW2 7301  14.076   6.527  11.817
35157SOL     OW 7302   3.410  13.067  13.418
35157SOL    HW1 7303   3.428  13.081  13.325
35157SOL    HW2 7304   3.442  13.147  13.460
35158SOL     OW 7305   1.603   2.486   5.371
35158SOL    HW1 7306   1.634   2.445   5.291
35158SOL    HW2 7307   1.580   2.413   5.429
35159SOL     OW 7308   4.018   8.906   4.475
35159SOL    HW1 7309   4.084   8.972   4.455
35159SOL    HW2 7310   3.953   8.952   4.528
35160SOL     OW 7311  13.479   8.340   7.722
35160SOL    HW1 7312  13.517   8.428   7.728
35160SOL    HW2 7313  13.539   8.292   7.665
35161SOL     OW 7314   7.980  12.913  14.181
35161SOL    HW1 7315   7.955  12.851  14.250
35161SOL    HW2 7316   8.006  12.857  14.107
35162SOL     OW 7317  14.071   9.483  14.221
35162SOL    HW1 7318  14.106   9.554  14.274
35162SOL    HW2 7319  14.001   9.524  14.170
35163SOL     OW 7320   1.421   9.942   3.144
35163SOL    HW1 7321   1.455  10.028   3.117
35163SOL    HW2 7322   1.461   9.926   3.229
35164SOL     OW 7323   2.077   2.446   4.692
35164SOL    HW1 7324   2.070   2.446   4.788
35164SOL    HW2 7325   2.171   2.432   4.676
35165SOL     OW 7326   8.970   5.760   5.985
35165SOL    HW1 7327   8.984   5.681   5.932
35165SOL    HW2 7328   8.912   5.731   6.055
35166SOL     OW 7329  11.902  14.740   0.124
35166SOL    HW1 7330  11.902  14.826   0.083
35166SOL    HW2 7331  11.882  14.756   0.216
35167SOL     OW 7332   2.507  12.048   6.413
35167SOL    HW1 7333   2.498  12.114   6.481
35167SOL    HW2 7334   2.572  12.085   6.352
35168SOL     OW 7335   3.926   7.916   5.061
35168SOL    HW1 7336   3.978   7.933   4.982
35168SOL    HW2 7337   3.882   7.833   5.043
35169SOL     OW 7338   7.033   7.331   5.341
35169SOL    HW1 7339   6.981   7.289   5.273
35169SOL    HW2 7340   7.043   7.421   5.311
35170SOL     OW 7341   5.207   4.559   6.151
35170SOL    HW1 7342   5.141   4.569   6.082
35170SOL    HW2 7343   5.271   4.499   6.114
35171SOL     OW 7344   8.597   4.959   0.917
35171SOL    HW1 7345   8.668   4.911   0.960
35171SOL    HW2 7346   8.637   5.043   0.893
35172SOL     OW 7347  12.149   7.255   4.058
35172SOL    HW1 7348  12.117   7.294   3.977
35172SOL    HW2 7349  12.205   7.322   4.096
35173SOL     OW 7350   3.633   6.732   8.702
35173SOL    HW1 7351   3.673   6.777   8.777
35173SOL    HW2 7352   3.556   6.688   8.738
35174SOL     OW 7353   2.087  13.307   1.820
35174SOL    HW1 7354   2.075  13.360   1.898
35174SOL    HW2 7355   2.025  13.344   1.756
35175SOL     OW 7356   5.338   7.916   7.515
35175SOL    HW1 7357   5.402   7.957   7.573
35175SOL    HW2 7358   5.381   7.837   7.483
35176SOL     OW 7359  12.289   7.429  13.874
35176SOL    HW1 7360  12.358   7.379  13.917
35176SOL    HW2 7361  12.328   7.456  13.791
35177SOL     OW 7362   0.350   1.343  11.543
35177SOL    HW1 7363   0.417   1.380  11.601
35177SOL    HW2 7364   0.313   1.419  11.499
35178SOL     OW 7365  11.674   8.433  10.994
35178SOL    HW1 7366  11.638   8.405  10.910
35178SOL    HW2 7367  11.687   8.527  10.985
35179SOL     OW 7368   9.099   8.622  14.168
35179SOL    HW1 7369   9.185   8.580  14.174
35179SOL    HW2 7370   9.065   8.621  14.257
35180SOL     OW 7371   7.160  10.591   6.772
35180SOL    HW1 7372   7.190  10.668   6.723
35180SOL    HW2 7373   7.072  10.614   6.801
35181SOL     OW 7374   5.545   0.093   9.930
35181SOL    HW1 7375   5.542   0.189   9.934
35181SOL    HW2 7376   5.565   0.066  10.020
35182SOL     OW 7377   9.154   4.166   4.902
35182SOL    HW1 7378   9.146   4.258   4.929
35182SOL    HW2 7379   9.145   4.117   4.984
35183SOL     OW 7380   6.283   0.785  10.299
35183SOL    HW1 7381   6.320   0.863  10.340
35183SOL    HW2 7382   6.358   0.726  10.287
35184SOL     OW 7383   6.545  11.227   7.580
35184SOL    HW1 7384   6.602  11.235   7.504
35184SOL    HW2 7385   6.493  11.149   7.562
35185SOL     OW 7386   8.894   2.293   8.046
35185SOL    HW1 7387   8.903   2.381   8.083
35185SOL    HW2 7388   8.942   2.297   7.963
35186SOL     OW 7389   8.425   3.570   8.777
35186SOL    HW1 7390   8.343   3.523   8.767
35186SOL    HW2 7391   8.402   3.647   8.829
35187SOL     OW 7392  12.174  14.344   5.286
35187SOL    HW1 7393  12.173  14.360   5.381
35187SOL    HW2 7394  12.145  14.254   5.276
35188SOL     OW 7395  11.778   8.238   3.165
35188SOL    HW1 7396  11.745   8.148   3.164
35188SOL    HW2 7397  11.766   8.267   3.255
35189SOL     OW 7398   6.203   9.465   1.530
35189SOL    HW1 7399   6.131   9.448   1.590
35189SOL    HW2 7400   6.203   9.560   1.517
35190SOL     OW 7401  12.895   2.049  13.275
35190SOL    HW1 7402  12.966   2.051  13.210
35190SOL    HW2 7403  12.933   2.004  13.350
35191SOL     OW 7404  12.256   7.535   6.997
35191SOL    HW1 7405  12.194   7.464   6.980
35191SOL    HW2 7406  12.211   7.614   6.966
35192SOL     OW 7407   4.350  11.670   6.678
35192SOL    HW1 7408   4.430  11.646   6.632
35192SOL    HW2 7409   4.380  11.706   6.762
35193SOL     OW 7410   7.343   2.421   8.092
35193SOL    HW1 7411   7.319   2.437   8.183
35193SOL    HW2 7412   7.360   2.327   8.088
35194SOL     OW 7413   4.522   2.076  13.432
35194SOL    HW1 7414   4.443   2.029  13.461
35194SOL    HW2 7415   4.568   2.014  13.376
35195SOL     OW 7416  11.334  10.156   1.968
35195SOL    HW1 7417  11.253  10.170   2.017
35195SOL    HW2 7418  11.306  10.116   1.885
35196SOL     OW 7419   1.658  13.243   5.564
35196SOL    HW1 7420   1.716  13.245   5.640
35196SOL    HW2 7421   1.590  13.181   5.587
35197SOL     OW 7422   7.707   8.812   7.277
35197SOL    HW1 7423   7.630   8.797   7.333
35197SOL    HW2 7424   7.671   8.848   7.196
35198SOL     OW 7425  11.324   1.663  11.191
35198SOL    HW1 7426  11.348   1.701  11.107
35198SOL    HW2 7427  11.283   1.735  11.239
35199SOL     OW 7428   4.214   0.120   1.839
35199SOL    HW1 7429   4.203   0.215   1.845
35199SOL    HW2 7430   4.296   0.102   1.885
35200SOL     OW 7431   3.657   3.937   8.603
35200SOL    HW1 7432   3.624   4.003   8.541
35200SOL    HW2 7433   3.625   3.854   8.568
35201SOL     OW 7434   1.245   8.295   3.831
35201SOL    HW1 7435   1.243   8.367   3.769
35201SOL    HW2 7436   1.218   8.218   3.781
35202SOL     OW 7437  12.834   4.679   9.691
35202SOL    HW1 7438  12.839   4.671   9.787
35202SOL    HW2 7439  12.898   4.616   9.658
35203SOL     OW 7440   1.132  13.369   7.890
35203SOL    HW1 7441   1.079  13.320   7.954
35203SOL    HW2 7442   1.074  13.379   7.814
35204SOL     OW 7443   7.742  11.674  10.744
35204SOL    HW1 7444   7.720  11.738  10.675
35204SOL    HW2 7445   7.699  11.709  10.822
35205SOL     OW 7446  13.267  14.311  10.673
35205SOL    HW1 7447  13.318  14.379  10.629
35205SOL    HW2 7448  13.219  14.357  10.741
35206SOL     OW 7449  11.606   8.397   4.193
35206SOL    HW1 7450  11.599   8.383   4.098
35206SOL    HW2 7451  11.600   8.492   4.203
35207SOL     OW 7452  12.061   3.829   2.100
35207SOL    HW1 7453  11.965   3.833   2.102
35207SOL    HW2 7454  12.081   3.738   2.121
35208SOL     OW 7455   7.812   9.806   4.194
35208SOL    HW1 7456   7.842   9.771   4.110
35208SOL    HW2 7457   7.824   9.734   4.256
35209SOL     OW 7458   2.550   6.554   1.863
35209SOL    HW1 7459   2.646   6.552   1.871
35209SOL    HW2 7460   2.521   6.472   1.903
35210SOL     OW 7461   6.285   1.438   7.924
35210SOL    HW1 7462   6.260   1.352   7.960
35210SOL    HW2 7463   6.224   1.499   7.965
35211SOL     OW 7464   7.545  13.348   7.282
35211SOL    HW1 7465   7.583  13.339   7.370
35211SOL    HW2 7466   7.531  13.442   7.271
35212SOL     OW 7467  12.576   0.675   0.632
35212SOL    HW1 7468  12.589   0.758   0.677
35212SOL    HW2 7469  12.504   0.691   0.572
35213SOL     OW 7470  14.658   4.456  12.859
35213SOL    HW1 7471  14.696   4.502  12.785
35213SOL    HW2 7472  14.607   4.523  12.905
35214SOL     OW 7473  12.435  11.914  13.017
35214SOL    HW1 7474  12.411  11.938  12.928
35214SOL    HW2 7475  12.417  11.820  13.022
35215SOL     OW 7476  11.313   4.683   7.161
35215SOL    HW1 7477  11.220   4.661   7.171
35215SOL    HW2 7478  11.316   4.738   7.083
35216SOL     OW 7479  12.670   7.663   2.472
35216SOL    HW1 7480  12.696   7.607   2.546
35216SOL    HW2 7481  12.689   7.752   2.503
35217SOL     OW 7482   7.267   3.911   0.252
35217SOL    HW1 7483   7.338   3.874   0.199
35217SOL    HW2 7484   7.289   4.004   0.258
35218SOL     OW 7485   2.632   2.215   1.046
35218SOL    HW1 7486   2.615   2.306   1.072
35218SOL    HW2 7487   2.622   2.216   0.950
35219SOL     OW 7488  12.584   4.179   3.663
35219SOL    HW1 7489  12.560   4.183   3.570
35219SOL    HW2 7490  12.651   4.246   3.673
35220SOL     OW 7491   7.490   4.524   1.674
35220SOL    HW1 7492   7.523   4.570   1.596
35220SOL    HW2 7493   7.444   4.591   1.724
35221SOL     OW 7494  10.686   0.526  12.161
35221SOL    HW1 7495  10.762   0.473  12.184
35221SOL    HW2 7496  10.661   0.570  12.242
35222SOL     OW 7497   8.769   3.610  14.168
35222SOL    HW1 7498   8.795   3.604  14.076
35222SOL    HW2 7499   8.843   3.651  14.211
35223SOL     OW 7500  11.716   6.761   2.710
35223SOL    HW1 7501  11.784   6.748   2.777
35223SOL    HW2 7502  11.672   6.676   2.705
35224SOL     OW 7503   9.636   4.188   3.676
35224SOL    HW1 7504   9.682   4.111   3.711
35224SOL    HW2 7505   9.680   4.262   3.717
35225SOL     OW 7506  14.755   8.076   3.758
35225SOL    HW1 7507  14.676   8.117   3.724
35225SOL    HW2 7508  14.808   8.148   3.792
35226SOL     OW 7509   2.537  13.547  13.094
35226SOL    HW1 7510   2.608  13.529  13.032
35226SOL    HW2 7511   2.480  13.470  13.090
35227SOL     OW 7512  10.956  13.990   3.916
35227SOL    HW1 7513  10.862  14.003   3.908
35227SOL    HW2 7514  10.991  14.008   3.828
35228SOL     OW 7515  11.039   2.322  12.432
35228SOL    HW1 7516  11.019   2.389  12.368
35228SOL    HW2 7517  10.967   2.326  12.495
35229SOL     OW 7518  11.442   0.878  13.437
35229SOL    HW1 7519  11.362   0.906  13.393
35229SOL    HW2 7520  11.495   0.958  13.445
35230SOL     OW 7521   4.254   3.444   7.950
35230SOL    HW1 7522   4.243   3.349   7.941
35230SOL    HW2 7523   4.166   3.480   7.942
35231SOL     OW 7524   7.354   2.400   4.441
35231SOL    HW1 7525   7.345   2.493   4.459
35231SOL    HW2 7526   7.447   2.389   4.422
35232SOL     OW 7527  13.149  11.295   1.118
35232SOL    HW1 7528  13.109  11.373   1.156
35232SOL    HW2 7529  13.240  11.297   1.150
35233SOL     OW 7530  12.669  13.409  12.511
35233SOL    HW1 7531  12.659  13.496  12.472
35233SOL    HW2 7532  12.643  13.421  12.603
35234SOL     OW 7533   3.176   3.530   2.207
35234SOL    HW1 7534   3.131   3.480   2.274
35234SOL    HW2 7535   3.268   3.523   2.230
35235SOL     OW 7536   8.705   0.705  14.175
35235SOL    HW1 7537   8.663   0.658  14.103
35235SOL    HW2 7538   8.748   0.780  14.132
35236SOL     OW 7539   9.560   5.092   9.922
35236SOL    HW1 7540   9.592   5.128  10.004
35236SOL    HW2 7541   9.560   5.166   9.862
35237SOL     OW 7542   4.490  14.642  12.835
35237SOL    HW1 7543   4.581  14.646  12.805
35237SOL    HW2 7544   4.481  14.556  12.876
35238SOL     OW 7545   6.862   8.059   2.900
35238SOL    HW1 7546   6.946   8.068   2.854
35238SOL    HW2 7547   6.799   8.037   2.832
35239SOL     OW 7548  12.465   0.776  10.595
35239SOL    HW1 7549  12.519   0.745  10.668
35239SOL    HW2 7550  12.398   0.708  10.585
35240SOL     OW 7551   7.840   1.225   5.258
35240SOL    HW1 7552   7.859   1.319   5.256
35240SOL    HW2 7553   7.905   1.188   5.318
35241SOL     OW 7554   8.547   0.195   7.199
35241SOL    HW1 7555   8.639   0.192   7.227
35241SOL    HW2 7556   8.535   0.113   7.151
35242SOL     OW 7557   7.120   6.819  12.442
35242SOL    HW1 7558   7.078   6.757  12.502
35242SOL    HW2 7559   7.208   6.784  12.429
35243SOL     OW 7560  12.326   6.101   8.574
35243SOL    HW1 7561  12.319   6.006   8.586
35243SOL    HW2 7562  12.247   6.125   8.526
35244SOL     OW 7563  13.151  12.502   0.330
35244SOL    HW1 7564  13.122  12.444   0.260
35244SOL    HW2 7565  13.246  12.506   0.320
35245SOL     OW 7566  14.843  10.058   2.357
35245SOL    HW1 7567  14.846   9.969   2.324
35245SOL    HW2 7568  14.782  10.056   2.431
35246SOL     OW 7569   9.943   3.144   8.851
35246SOL    HW1 7570  10.015   3.175   8.796
35246SOL    HW2 7571   9.884   3.100   8.790
35247SOL     OW 7572   2.008   5.547  13.109
35247SOL    HW1 7573   1.982   5.532  13.200
35247SOL    HW2 7574   1.926   5.563  13.062
35248SOL     OW 7575   8.261  13.805   0.004
35248SOL    HW1 7576   8.269  13.887   0.053
35248SOL    HW2 7577   8.172  13.805  14.843
35249SOL     OW 7578   1.336  12.496  12.497
35249SOL    HW1 7579   1.279  12.567  12.524
35249SOL    HW2 7580   1.286  12.448  12.431
35250SOL     OW 7581  12.141   4.797  12.367
35250SOL    HW1 7582  12.083   4.764  12.298
35250SOL    HW2 7583  12.141   4.892  12.354
35251SOL     OW 7584   6.442   4.743   8.246
35251SOL    HW1 7585   6.460   4.776   8.158
35251SOL    HW2 7586   6.347   4.730   8.248
35252SOL     OW 7587   7.215  10.463  11.778
35252SOL    HW1 7588   7.286  10.452  11.715
35252SOL    HW2 7589   7.259  10.475  11.862
35253SOL     OW 7590  10.631  13.526   4.174
35253SOL    HW1 7591  10.680  13.588   4.228
35253SOL    HW2 7592  10.689  13.507   4.100
35254SOL     OW 7593  14.132   6.958  14.625
35254SOL    HW1 7594  14.138   7.053  14.619
35254SOL    HW2 7595  14.218   6.930  14.657
35255SOL     OW 7596   8.061  11.905   8.774
35255SOL    HW1 7597   8.124  11.834   8.761
35255SOL    HW2 7598   8.022  11.888   8.859
35256SOL     OW 7599   8.209  12.125   7.303
35256SOL    HW1 7600   8.202  12.182   7.379
35256SOL    HW2 7601   8.271  12.057   7.330
35257SOL     OW 7602   3.354  12.968  11.048
35257SOL    HW1 7603   3.366  12.931  11.136
35257SOL    HW2 7604   3.404  12.910  10.991
35258SOL     OW 7605   5.237  13.478   9.969
35258SOL    HW1 7606   5.202  13.393   9.997
35258SOL    HW2 7607   5.164  13.520   9.923
35259SOL     OW 7608   2.295   2.607  13.814
35259SOL    HW1 7609   2.242   2.562  13.748
35259SOL    HW2 7610   2.242   2.603  13.893
35260SOL     OW 7611  13.092  12.517   9.410
35260SOL    HW1 7612  13.066  12.501   9.500
35260SOL    HW2 7613  13.011  12.509   9.360
35261SOL     OW 7614   2.288  13.449   2.132
35261SOL    HW1 7615   2.196  13.458   2.153
35261SOL    HW2 7616   2.307  13.523   2.074
35262SOL     OW 7617   2.932   5.973  12.449
35262SOL    HW1 7618   2.957   6.040  12.385
35262SOL    HW2 7619   2.932   5.891  12.398
35263SOL     OW 7620  13.300   2.512   8.589
35263SOL    HW1 7621  13.298   2.417   8.600
35263SOL    HW2 7622  13.238   2.545   8.654
35264SOL     OW 7623   8.505   0.013   9.769
35264SOL    HW1 7624   8.453  14.859   9.845
35264SOL    HW2 7625   8.441   0.049   9.707
35265SOL     OW 7626   6.598   3.803   8.961
35265SOL    HW1 7627   6.510   3.838   8.944
35265SOL    HW2 7628   6.652   3.881   8.971
35266SOL     OW 7629  10.933   1.730  10.000
35266SOL    HW1 7630  10.893   1.644   9.993
35266SOL    HW2 7631  10.919   1.756  10.091
35267SOL     OW 7632  12.352  13.674   6.730
35267SOL    HW1 7633  12.356  13.690   6.824
35267SOL    HW2 7634  12.353  13.578   6.722
35268SOL     OW 7635  10.941   4.027   0.242
35268SOL    HW1 7636  11.020   4.025   0.297
35268SOL    HW2 7637  10.974   4.020   0.152
35269SOL     OW 7638  12.943   6.277   4.266
35269SOL    HW1 7639  12.998   6.269   4.188
35269SOL    HW2 7640  12.980   6.351   4.314
35270SOL     OW 7641   1.193   4.872   8.627
35270SOL    HW1 7642   1.129   4.841   8.690
35270SOL    HW2 7643   1.238   4.793   8.597
35271SOL     OW 7644   7.046   8.678  10.012
35271SOL    HW1 7645   7.088   8.757   9.978
35271SOL    HW2 7646   7.016   8.702  10.100
35272SOL     OW 7647   9.214   7.619   9.149
35272SOL    HW1 7648   9.256   7.549   9.100
35272SOL    HW2 7649   9.285   7.680   9.169
35273SOL     OW 7650  14.517  11.329   2.950
35273SOL    HW1 7651  14.550  11.286   3.029
35273SOL    HW2 7652  14.473  11.407   2.981
35274SOL     OW 7653  13.503  12.686   2.206
35274SOL    HW1 7654  13.531  12.596   2.223
35274SOL    HW2 7655  13.548  12.710   2.125
35275SOL     OW 7656   2.887   7.623   5.088
35275SOL    HW1 7657   2.936   7.686   5.036
35275SOL    HW2 7658   2.819   7.674   5.131
35276SOL     OW 7659  10.286  11.178  11.246
35276SOL    HW1 7660  10.300  11.260  11.197
35276SOL    HW2 7661  10.366  11.168  11.298
35277SOL     OW 7662   7.406  11.574   6.706
35277SOL    HW1 7663   7.471  11.589   6.774
35277SOL    HW2 7664   7.457  11.544   6.631
35278SOL     OW 7665   1.344   7.148  13.898
35278SOL    HW1 7666   1.399   7.079  13.862
35278SOL    HW2 7667   1.400   7.194  13.960
35279SOL     OW 7668   1.285   9.100   2.385
35279SOL    HW1 7669   1.362   9.087   2.441
35279SOL    HW2 7670   1.234   9.021   2.395
35280SOL     OW 7671   1.924  14.031   5.423
35280SOL    HW1 7672   1.930  13.943   5.461
35280SOL    HW2 7673   1.840  14.031   5.376
35281SOL     OW 7674   5.016  10.340  10.910
35281SOL    HW1 7675   5.082  10.398  10.948
35281SOL    HW2 7676   5.015  10.364  10.817
35282SOL     OW 7677   1.993   2.152   6.489
35282SOL    HW1 7678   2.027   2.186   6.407
35282SOL    HW2 7679   1.898   2.152   6.478
35283SOL     OW 7680   9.657   3.840   9.945
35283SOL    HW1 7681   9.717   3.771   9.917
35283SOL    HW2 7682   9.584   3.793   9.986
35284SOL     OW 7683   9.360   0.989   0.001
35284SOL    HW1 7684   9.391   0.914  14.823
35284SOL    HW2 7685   9.295   1.031  14.817
35285SOL     OW 7686  10.766  12.190  14.508
35285SOL    HW1 7687  10.750  12.218  14.598
35285SOL    HW2 7688  10.850  12.230  14.486
35286SOL     OW 7689  13.755  14.665  14.387
35286SOL    HW1 7690  13.775  14.645  14.296
35286SOL    HW2 7691  13.839  14.685  14.427
35287SOL     OW 7692   4.980  11.497  10.170
35287SOL    HW1 7693   4.889  11.496  10.139
35287SOL    HW2 7694   5.030  11.458  10.098
35288SOL     OW 7695   4.577  14.708   2.933
35288SOL    HW1 7696   4.670  14.723   2.946
35288SOL    HW2 7697   4.534  14.770   2.991
35289SOL     OW 7698   6.311   2.029   8.371
35289SOL    HW1 7699   6.334   2.042   8.463
35289SOL    HW2 7700   6.217   2.010   8.373
35290SOL     OW 7701  10.216   3.571   7.788
35290SOL    HW1 7702  10.194   3.632   7.858
35290SOL    HW2 7703  10.132   3.536   7.759
35291SOL     OW 7704   9.487   7.368  10.829
35291SOL    HW1 7705   9.543   7.295  10.854
35291SOL    HW2 7706   9.402   7.328  10.809
35292SOL     OW 7707   2.595  13.898   3.828
35292SOL    HW1 7708   2.621  13.834   3.893
35292SOL    HW2 7709   2.598  13.982   3.874
35293SOL     OW 7710   1.684   8.687   6.950
35293SOL    HW1 7711   1.610   8.634   6.982
35293SOL    HW2 7712   1.728   8.717   7.030
35294SOL     OW 7713  10.887   8.676  12.400
35294SOL    HW1 7714  10.974   8.693  12.436
35294SOL    HW2 7715  10.840   8.758  12.409
35295SOL     OW 7716   1.124   1.059  13.980
35295SOL    HW1 7717   1.047   1.024  14.026
35295SOL    HW2 7718   1.193   1.058  14.046
35296SOL     OW 7719  10.306   2.311   4.152
35296SOL    HW1 7720  10.321   2.402   4.175
35296SOL    HW2 7721  10.352   2.298   4.070
35297SOL     OW 7722  11.747   0.458  13.645
35297SOL    HW1 7723  11.766   0.473  13.737
35297SOL    HW2 7724  11.686   0.528  13.621
35298SOL     OW 7725   1.926   4.519   3.678
35298SOL    HW1 7726   1.900   4.591   3.736
35298SOL    HW2 7727   1.849   4.462   3.675
35299SOL     OW 7728   8.399   5.190   4.517
35299SOL    HW1 7729   8.417   5.118   4.457
35299SOL    HW2 7730   8.449   5.263   4.482
35300SOL     OW 7731  10.207  12.406   9.421
35300SOL    HW1 7732  10.300  12.386   9.417
35300SOL    HW2 7733  10.165  12.339   9.368
35301SOL     OW 7734   3.830   1.700   5.159
35301SOL    HW1 7735   3.861   1.611   5.178
35301SOL    HW2 7736   3.776   1.691   5.080
35302SOL     OW 7737   1.954   9.789  13.017
35302SOL    HW1 7738   1.927   9.835  13.096
35302SOL    HW2 7739   1.956   9.697  13.041
35303SOL     OW 7740   2.399  12.646   0.898
35303SOL    HW1 7741   2.469  12.710   0.888
35303SOL    HW2 7742   2.334  12.670   0.832
35304SOL     OW 7743   0.458  12.010   0.917
35304SOL    HW1 7744   0.544  12.050   0.929
35304SOL    HW2 7745   0.425  12.048   0.836
35305SOL     OW 7746   6.135   9.865  13.437
35305SOL    HW1 7747   6.115   9.959  13.441
35305SOL    HW2 7748   6.051   9.823  13.457
35306SOL     OW 7749  14.694  14.615   3.756
35306SOL    HW1 7750  14.606  14.611   3.794
35306SOL    HW2 7751  14.746  14.660   3.821
35307SOL     OW 7752   0.150   9.992  10.997
35307SOL    HW1 7753   0.063  10.021  10.969
35307SOL    HW2 7754   0.210  10.031  10.934
35308SOL     OW 7755   4.289   0.400   5.082
35308SOL    HW1 7756   4.381   0.416   5.104
35308SOL    HW2 7757   4.275   0.450   5.001
35309SOL     OW 7758  10.554   8.616   3.846
35309SOL    HW1 7759  10.511   8.637   3.763
35309SOL    HW2 7760  10.482   8.607   3.908
35310SOL     OW 7761   6.356  14.611  11.124
35310SOL    HW1 7762   6.369  14.524  11.160
35310SOL    HW2 7763   6.269  14.608  11.084
35311SOL     OW 7764   4.040   0.757  11.403
35311SOL    HW1 7765   4.013   0.675  11.444
35311SOL    HW2 7766   4.067   0.732  11.314
35312SOL     OW 7767   3.009   0.984   3.675
35312SOL    HW1 7768   3.061   1.036   3.737
35312SOL    HW2 7769   3.061   0.983   3.595
35313SOL     OW 7770   7.356  10.328   9.967
35313SOL    HW1 7771   7.331  10.390  10.035
35313SOL    HW2 7772   7.273  10.307   9.923
35314SOL     OW 7773   4.054  11.905  10.560
35314SOL    HW1 7774   4.148  11.915  10.548
35314SOL    HW2 7775   4.044  11.850  10.637
35315SOL     OW 7776   6.099   5.348  12.438
35315SOL    HW1 7777   6.156   5.317  12.367
35315SOL    HW2 7778   6.121   5.291  12.512
35316SOL     OW 7779   6.020   0.853  10.198
35316SOL    HW1 7780   6.116   0.848  10.207
35316SOL    HW2 7781   5.991   0.762  10.204
35317SOL     OW 7782   8.051  12.012   3.153
35317SOL    HW1 7783   8.140  11.979   3.159
35317SOL    HW2 7784   8.025  11.996   3.062
35318SOL     OW 7785  13.011   9.311  11.553
35318SOL    HW1 7786  12.997   9.270  11.467
35318SOL    HW2 7787  13.078   9.256  11.594
35319SOL     OW 7788  12.863   2.655   0.839
35319SOL    HW1 7789  12.906   2.646   0.924
35319SOL    HW2 7790  12.791   2.716   0.855
35320SOL     OW 7791   3.357   4.978   5.826
35320SOL    HW1 7792   3.339   4.987   5.733
35320SOL    HW2 7793   3.397   4.892   5.836
35321SOL     OW 7794   0.534   4.771  13.213
35321SOL    HW1 7795   0.519   4.809  13.126
35321SOL    HW2 7796   0.609   4.713  13.202
35322SOL     OW 7797   9.384  13.073   5.720
35322SOL    HW1 7798   9.292  13.073   5.748
35322SOL    HW2 7799   9.428  13.016   5.784
35323SOL     OW 7800   4.800  14.137  11.638
35323SOL    HW1 7801   4.893  14.122  11.656
35323SOL    HW2 7802   4.786  14.102  11.550
35324SOL     OW 7803   2.569   4.309   7.652
35324SOL    HW1 7804   2.599   4.362   7.726
35324SOL    HW2 7805   2.494   4.261   7.686
35325SOL     OW 7806   8.653  14.027   1.947
35325SOL    HW1 7807   8.571  14.007   1.900
35325SOL    HW2 7808   8.673  13.947   1.995
35326SOL     OW 7809   6.846  11.546   5.049
35326SOL    HW1 7810   6.833  11.469   4.994
35326SOL    HW2 7811   6.869  11.616   4.989
35327SOL     OW 7812   0.487  10.474   9.353
35327SOL    HW1 7813   0.454  10.384   9.346
35327SOL    HW2 7814   0.536  10.487   9.272
35328SOL     OW 7815   2.931   8.200   9.225
35328SOL    HW1 7816   2.862   8.135   9.219
35328SOL    HW2 7817   3.012   8.149   9.227
35329SOL     OW 7818   1.678  10.343   4.575
35329SOL    HW1 7819   1.716  10.411   4.632
35329SOL    HW2 7820   1.722  10.355   4.491
35330SOL     OW 7821  11.760   7.121   5.218
35330SOL    HW1 7822  11.805   7.056   5.272
35330SOL    HW2 7823  11.830   7.177   5.185
35331SOL     OW 7824  13.746   3.631  11.414
35331SOL    HW1 7825  13.666   3.676  11.389
35331SOL    HW2 7826  13.724   3.538  11.409
35332SOL     OW 7827   4.609  14.376  14.473
35332SOL    HW1 7828   4.695  14.377  14.513
35332SOL    HW2 7829   4.553  14.331  14.536
35333SOL     OW 7830  13.420   9.044   8.595
35333SOL    HW1 7831  13.350   8.982   8.609
35333SOL    HW2 7832  13.451   9.027   8.506
35334SOL     OW 7833  12.920   8.534   9.094
35334SOL    HW1 7834  12.830   8.531   9.124
35334SOL    HW2 7835  12.967   8.473   9.151
35335SOL     OW 7836   6.439  11.482   1.178
35335SOL    HW1 7837   6.353  11.519   1.194
35335SOL    HW2 7838   6.478  11.472   1.265
35336SOL     OW 7839   4.120   5.496  10.083
35336SOL    HW1 7840   4.082   5.414  10.114
35336SOL    HW2 7841   4.197   5.470  10.032
35337SOL     OW 7842  13.507   1.673   1.591
35337SOL    HW1 7843  13.572   1.742   1.603
35337SOL    HW2 7844  13.553   1.592   1.612
35338SOL     OW 7845  12.494   4.284  11.195
35338SOL    HW1 7846  12.501   4.189  11.194
35338SOL    HW2 7847  12.577   4.315  11.158
35339SOL     OW 7848   5.286   0.567   6.783
35339SOL    HW1 7849   5.233   0.634   6.826
35339SOL    HW2 7850   5.225   0.496   6.765
35340SOL     OW 7851   7.350  11.955  14.183
35340SOL    HW1 7852   7.361  11.935  14.090
35340SOL    HW2 7853   7.358  11.871  14.227
35341SOL     OW 7854  12.335   5.752  10.953
35341SOL    HW1 7855  12.301   5.722  10.869
35341SOL    HW2 7856  12.422   5.712  10.960
35342SOL     OW 7857   5.274   0.023   1.515
35342SOL    HW1 7858   5.277   0.054   1.424
35342SOL    HW2 7859   5.223  14.814   1.511
35343SOL     OW 7860   1.464   5.059   2.456
35343SOL    HW1 7861   1.463   5.101   2.370
35343SOL    HW2 7862   1.423   5.122   2.514
35344SOL     OW 7863   1.907  14.637  11.224
35344SOL    HW1 7864   1.816  14.664  11.214
35344SOL    HW2 7865   1.951  14.671  11.146
35345SOL     OW 7866   9.576  10.240  10.494
35345SOL    HW1 7867   9.664  10.230  10.457
35345SOL    HW2 7868   9.522  10.178  10.445
35346SOL     OW 7869   8.794   4.800   1.028
35346SOL    HW1 7870   8.799   4.774   1.120
35346SOL    HW2 7871   8.752   4.726   0.984
35347SOL     OW 7872   8.684   3.020  12.815
35347SOL    HW1 7873   8.742   3.004  12.741
35347SOL    HW2 7874   8.629   3.094  12.788
35348SOL     OW 7875  13.902   5.262  11.756
35348SOL    HW1 7876  13.910   5.174  11.720
35348SOL    HW2 7877  13.977   5.272  11.814
35349SOL     OW 7878   4.740  12.213   4.054
35349SOL    HW1 7879   4.752  12.257   4.138
35349SOL    HW2 7880   4.808  12.146   4.051
35350SOL     OW 7881   7.139  13.748   1.728
35350SOL    HW1 7882   7.187  13.691   1.789
35350SOL    HW2 7883   7.094  13.687   1.669
35351SOL     OW 7884   5.824   6.572   8.841
35351SOL    HW1 7885   5.899   6.630   8.835
35351SOL    HW2 7886   5.754   6.627   8.878
35352SOL     OW 7887   3.511   3.205   0.293
35352SOL    HW1 7888   3.472   3.256   0.221
35352SOL    HW2 7889   3.552   3.271   0.350
35353SOL     OW 7890   2.185   0.523  10.695
35353SOL    HW1 7891   2.124   0.460  10.656
35353SOL    HW2 7892   2.271   0.495  10.664
35354SOL     OW 7893   0.576  14.124   9.520
35354SOL    HW1 7894   0.666  14.155   9.522
35354SOL    HW2 7895   0.581  14.033   9.551
35355SOL     OW 7896   0.204   2.915   7.767
35355SOL    HW1 7897   0.258   2.879   7.837
35355SOL    HW2 7898   0.165   2.839   7.724
35356SOL     OW 7899   1.189   6.047   3.450
35356SOL    HW1 7900   1.217   6.120   3.505
35356SOL    HW2 7901   1.166   6.087   3.366
35357SOL     OW 7902  11.979   0.109   6.423
35357SOL    HW1 7903  12.007   0.041   6.484
35357SOL    HW2 7904  11.914   0.066   6.368
35358SOL     OW 7905  12.882   5.537  11.058
35358SOL    HW1 7906  12.922   5.459  11.021
35358SOL    HW2 7907  12.850   5.508  11.144
35359SOL     OW 7908   6.540  11.156   1.158
35359SOL    HW1 7909   6.510  11.240   1.194
35359SOL    HW2 7910   6.506  11.090   1.218
35360SOL     OW 7911   5.889   0.390   8.887
35360SOL    HW1 7912   5.865   0.431   8.804
35360SOL    HW2 7913   5.964   0.441   8.918
35361SOL     OW 7914   0.675   5.407  14.302
35361SOL    HW1 7915   0.617   5.362  14.241
35361SOL    HW2 7916   0.712   5.337  14.356
35362SOL     OW 7917   5.807   7.394  11.940
35362SOL    HW1 7918   5.862   7.443  11.880
35362SOL    HW2 7919   5.732   7.451  11.956
35363SOL     OW 7920   9.319   9.004   3.214
35363SOL    HW1 7921   9.279   8.919   3.194
35363SOL    HW2 7922   9.399   8.982   3.262
35364SOL     OW 7923   3.834   4.885   3.144
35364SOL    HW1 7924   3.903   4.822   3.166
35364SOL    HW2 7925   3.767   4.834   3.099
35365SOL     OW 7926   0.304  10.518   3.293
35365SOL    HW1 7927   0.266  10.536   3.379
35365SOL    HW2 7928   0.399  10.521   3.309
35366SOL     OW 7929   3.606  10.739   3.879
35366SOL    HW1 7930   3.687  10.690   3.891
35366SOL    HW2 7931   3.547  10.679   3.832
35367SOL     OW 7932   3.170  11.003   9.749
35367SOL    HW1 7933   3.154  10.974   9.659
35367SOL    HW2 7934   3.247  10.955   9.777
35368SOL     OW 7935   6.133  14.703  11.455
35368SOL    HW1 7936   6.047  14.689  11.496
35368SOL    HW2 7937   6.113  14.736  11.368
35369SOL     OW 7938   8.321   3.893  13.720
35369SOL    HW1 7939   8.270   3.877  13.641
35369SOL    HW2 7940   8.359   3.808  13.743
35370SOL     OW 7941   1.067   2.838   7.470
35370SOL    HW1 7942   1.055   2.929   7.496
35370SOL    HW2 7943   0.981   2.798   7.484
35371SOL     OW 7944   6.557  10.793  10.470
35371SOL    HW1 7945   6.492  10.746  10.523
35371SOL    HW2 7946   6.598  10.854  10.531
35372SOL     OW 7947  11.431   8.833  14.820
35372SOL    HW1 7948  11.490   8.894  14.775
35372SOL    HW2 7949  11.422   8.870   0.036
35373SOL     OW 7950   4.168   1.121   4.042
35373SOL    HW1 7951   4.137   1.052   3.984
35373SOL    HW2 7952   4.217   1.075   4.110
35374SOL     OW 7953   5.784   1.815   0.278
35374SOL    HW1 7954   5.700   1.824   0.233
35374SOL    HW2 7955   5.849   1.838   0.212
35375SOL     OW 7956  11.164   1.480   4.652
35375SOL    HW1 7957  11.160   1.526   4.568
35375SOL    HW2 7958  11.234   1.416   4.641
35376SOL     OW 7959  14.325  12.541  11.170
35376SOL    HW1 7960  14.246  12.594  11.176
35376SOL    HW2 7961  14.350  12.524  11.261
35377SOL     OW 7962  11.544  14.108  13.137
35377SOL    HW1 7963  11.628  14.069  13.160
35377SOL    HW2 7964  11.539  14.188  13.189
35378SOL     OW 7965  13.689   3.289   9.166
35378SOL    HW1 7966  13.622   3.221   9.171
35378SOL    HW2 7967  13.665   3.341   9.090
35379SOL     OW 7968   6.792   1.856  13.402
35379SOL    HW1 7969   6.875   1.822  13.437
35379SOL    HW2 7970   6.818   1.911  13.328
35380SOL     OW 7971  12.338   4.093  10.973
35380SOL    HW1 7972  12.253   4.109  11.015
35380SOL    HW2 7973  12.366   4.009  11.008
35381SOL     OW 7974   2.420   8.092   5.337
35381SOL    HW1 7975   2.381   8.180   5.330
35381SOL    HW2 7976   2.390   8.047   5.258
35382SOL     OW 7977   5.433   2.195   9.528
35382SOL    HW1 7978   5.502   2.261   9.519
35382SOL    HW2 7979   5.352   2.241   9.504
35383SOL     OW 7980   2.945   0.804   4.821
35383SOL    HW1 7981   2.865   0.775   4.779
35383SOL    HW2 7982   2.980   0.726   4.864
35384SOL     OW 7983   4.991   3.306   7.163
35384SOL    HW1 7984   4.946   3.356   7.096
35384SOL    HW2 7985   5.042   3.241   7.115
35385SOL     OW 7986  14.121   1.432   5.157
35385SOL    HW1 7987  14.216   1.442   5.168
35385SOL    HW2 7988  14.083   1.462   5.239
35386SOL     OW 7989   7.971   3.464   2.172
35386SOL    HW1 7990   7.982   3.389   2.230
35386SOL    HW2 7991   7.916   3.525   2.221
35387SOL     OW 7992  13.030  14.617  10.461
35387SOL    HW1 7993  13.025  14.712  10.471
35387SOL    HW2 7994  13.075  14.587  10.539
35388SOL     OW 7995  13.298   1.985   6.193
35388SOL    HW1 7996  13.279   1.931   6.116
35388SOL    HW2 7997  13.316   1.923   6.263
35389SOL     OW 7998   5.294   4.040   0.972
35389SOL    HW1 7999   5.271   4.041   0.879
35389SOL    HW2 8000   5.214   4.069   1.016
35390SOL     OW 8001   3.380   0.076   7.007
35390SOL    HW1 8002   3.423  14.864   6.994
35390SOL    HW2 8003   3.359   0.078   7.100
35391SOL     OW 8004   9.582   6.430  10.671
35391SOL    HW1 8005   9.513   6.418  10.606
35391SOL    HW2 8006   9.659   6.388  10.632
35392SOL     OW 8007   0.734   8.176   9.222
35392SOL    HW1 8008   0.697   8.263   9.236
35392SOL    HW2 8009   0.749   8.141   9.310
35393SOL     OW 8010   1.608  14.782   8.684
35393SOL    HW1 8011   1.519  14.817   8.689
35393SOL    HW2 8012   1.628  14.754   8.773
35394SOL     OW 8013  11.412  12.127  10.088
35394SOL    HW1 8014  11.345  12.174  10.137
35394SOL    HW2 8015  11.486  12.187  10.086
35395SOL     OW 8016   1.520   7.162   0.301
35395SOL    HW1 8017   1.432   7.127   0.310
35395SOL    HW2 8018   1.538   7.205   0.385
35396SOL     OW 8019   9.485  13.677   9.592
35396SOL    HW1 8020   9.532  13.651   9.513
35396SOL    HW2 8021   9.400  13.707   9.560
35397SOL     OW 8022   5.946   2.048   1.229
35397SOL    HW1 8023   6.039   2.067   1.237
35397SOL    HW2 8024   5.935   1.966   1.278
35398SOL     OW 8025   0.677   9.719  11.491
35398SOL    HW1 8026   0.626   9.800  11.485
35398SOL    HW2 8027   0.748   9.731  11.427
35399SOL     OW 8028  12.245  11.976   1.029
35399SOL    HW1 8029  12.201  11.951   0.948
35399SOL    HW2 8030  12.334  11.943   1.019
35400SOL     OW 8031   2.394  14.694  14.627
35400SOL    HW1 8032   2.490  14.697  14.624
35400SOL    HW2 8033   2.371  14.753  14.699
35401SOL     OW 8034   3.367   0.582   7.315
35401SOL    HW1 8035   3.436   0.648   7.313
35401SOL    HW2 8036   3.348   0.564   7.223
35402SOL     OW 8037  11.347  13.984   5.126
35402SOL    HW1 8038  11.306  13.989   5.213
35402SOL    HW2 8039  11.433  13.946   5.142
35403SOL     OW 8040  12.109  11.504  12.370
35403SOL    HW1 8041  12.053  11.429  12.391
35403SOL    HW2 8042  12.118  11.500  12.275
35404SOL     OW 8043   1.053   8.540   5.890
35404SOL    HW1 8044   1.043   8.618   5.836
35404SOL    HW2 8045   1.143   8.545   5.922
35405SOL     OW 8046   1.933  13.278   0.612
35405SOL    HW1 8047   2.007  13.275   0.552
35405SOL    HW2 8048   1.972  13.292   0.698
35406SOL     OW 8049   6.269   1.660   8.128
35406SOL    HW1 8050   6.185   1.704   8.117
35406SOL    HW2 8051   6.333   1.718   8.088
35407SOL     OW 8052  11.492  12.284   6.596
35407SOL    HW1 8053  11.398  12.299   6.609
35407SOL    HW2 8054  11.520  12.235   6.673
35408SOL     OW 8055   2.146  10.726  14.041
35408SOL    HW1 8056   2.051  10.725  14.032
35408SOL    HW2 8057   2.170  10.818  14.035
35409SOL     OW 8058   4.410   5.248   8.954
35409SOL    HW1 8059   4.339   5.203   8.999
35409SOL    HW2 8060   4.378   5.337   8.940
35410SOL     OW 8061   3.636  10.420   1.265
35410SOL    HW1 8062   3.666  10.331   1.283
35410SOL    HW2 8063   3.556  10.430   1.318
35411SOL     OW 8064   9.633   1.884   1.730
35411SOL    HW1 8065   9.622   1.860   1.823
35411SOL    HW2 8066   9.571   1.955   1.717
35412SOL     OW 8067   0.007   9.637   8.253
35412SOL    HW1 8068   0.052   9.650   8.170
35412SOL    HW2 8069  14.790   9.667   8.236
35413SOL     OW 8070   7.804   4.690  10.916
35413SOL    HW1 8071   7.770   4.675  10.827
35413SOL    HW2 8072   7.773   4.615  10.966
35414SOL     OW 8073   8.357  14.334  14.680
35414SOL    HW1 8074   8.298  14.371  14.614
35414SOL    HW2 8075   8.308  14.260  14.717
35415SOL     OW 8076  13.404  10.255   2.504
35415SOL    HW1 8077  13.476  10.318   2.508
35415SOL    HW2 8078  13.445  10.172   2.480
35416SOL     OW 8079  13.820   1.159   0.512
35416SOL    HW1 8080  13.790   1.246   0.537
35416SOL    HW2 8081  13.741   1.105   0.516
35417SOL     OW 8082  11.107   4.558   7.634
35417SOL    HW1 8083  11.122   4.464   7.641
35417SOL    HW2 8084  11.053   4.580   7.710
35418SOL     OW 8085  14.556   5.325   7.410
35418SOL    HW1 8086  14.637   5.276   7.426
35418SOL    HW2 8087  14.506   5.316   7.491
35419SOL     OW 8088  14.354   4.418  10.123
35419SOL    HW1 8089  14.393   4.393  10.206
35419SOL    HW2 8090  14.267   4.379  10.124
35420SOL     OW 8091  12.337   0.023   1.929
35420SOL    HW1 8092  12.309   0.046   1.840
35420SOL    HW2 8093  12.390  14.817   1.918
35421SOL     OW 8094   5.997  14.808  12.397
35421SOL    HW1 8095   5.907  14.811  12.429
35421SOL    HW2 8096   6.040  14.744  12.453
35422SOL     OW 8097   8.595   8.504   0.099
35422SOL    HW1 8098   8.509   8.498   0.140
35422SOL    HW2 8099   8.620   8.596   0.112
35423SOL     OW 8100  14.762  13.210   7.718
35423SOL    HW1 8101  14.786  13.265   7.643
35423SOL    HW2 8102  14.694  13.259   7.763
35424SOL     OW 8103  10.472   0.540   2.890
35424SOL    HW1 8104  10.543   0.603   2.879
35424SOL    HW2 8105  10.425   0.543   2.807
35425SOL     OW 8106  10.310   2.826   3.481
35425SOL    HW1 8107  10.227   2.814   3.527
35425SOL    HW2 8108  10.350   2.739   3.482
35426SOL     OW 8109   5.771  14.657   7.245
35426SOL    HW1 8110   5.750  14.695   7.330
35426SOL    HW2 8111   5.686  14.646   7.202
35427SOL     OW 8112  10.368   4.746   9.998
35427SOL    HW1 8113  10.434   4.683  10.029
35427SOL    HW2 8114  10.354   4.804  10.073
35428SOL     OW 8115   5.021   2.480   7.432
35428SOL    HW1 8116   4.983   2.460   7.517
35428SOL    HW2 8117   5.023   2.396   7.386
35429SOL     OW 8118   3.918   6.288   4.122
35429SOL    HW1 8119   3.985   6.309   4.057
35429SOL    HW2 8120   3.967   6.275   4.203
35430SOL     OW 8121  14.078   0.450  14.393
35430SOL    HW1 8122  14.029   0.522  14.353
35430SOL    HW2 8123  14.119   0.489  14.470
35431SOL     OW 8124  13.822   6.315  10.654
35431SOL    HW1 8125  13.834   6.398  10.608
35431SOL    HW2 8126  13.856   6.249  10.594
35432SOL     OW 8127   1.887   6.564   1.928
35432SOL    HW1 8128   1.828   6.587   2.000
35432SOL    HW2 8129   1.966   6.532   1.971
35433SOL     OW 8130   9.518   7.770  14.062
35433SOL    HW1 8131   9.549   7.680  14.051
35433SOL    HW2 8132   9.474   7.791  13.980
35434SOL     OW 8133  10.094   2.084   4.780
35434SOL    HW1 8134  10.110   2.109   4.871
35434SOL    HW2 8135  10.175   2.040   4.753
35435SOL     OW 8136   8.801   6.729   4.293
35435SOL    HW1 8137   8.737   6.780   4.344
35435SOL    HW2 8138   8.753   6.701   4.215
35436SOL     OW 8139  11.737   4.688   0.610
35436SOL    HW1 8140  11.683   4.629   0.558
35436SOL    HW2 8141  11.720   4.664   0.701
35437SOL     OW 8142   7.094   5.531   7.281
35437SOL    HW1 8143   7.149   5.604   7.252
35437SOL    HW2 8144   7.142   5.491   7.352
35438SOL     OW 8145   0.202   1.213  12.325
35438SOL    HW1 8146   0.173   1.270  12.253
35438SOL    HW2 8147   0.167   1.254  12.404
35439SOL     OW 8148   9.174   9.832   4.673
35439SOL    HW1 8149   9.264   9.860   4.693
35439SOL    HW2 8150   9.167   9.838   4.578
35440SOL     OW 8151   9.562  11.436   1.991
35440SOL    HW1 8152   9.574  11.504   1.925
35440SOL    HW2 8153   9.602  11.357   1.953
35441SOL     OW 8154   6.316   9.636   6.606
35441SOL    HW1 8155   6.232   9.681   6.613
35441SOL    HW2 8156   6.349   9.631   6.695
35442SOL     OW 8157   5.748   9.864  12.369
35442SOL    HW1 8158   5.727   9.905  12.285
35442SOL    HW2 8159   5.716   9.774  12.360
35443SOL     OW 8160  10.321   0.360  10.179
35443SOL    HW1 8161  10.392   0.407  10.137
35443SOL    HW2 8162  10.290   0.298  10.113
35444SOL     OW 8163   2.867   2.055   2.019
35444SOL    HW1 8164   2.897   2.079   1.931
35444SOL    HW2 8165   2.777   2.025   2.007
35445SOL     OW 8166   7.396  11.106   6.640
35445SOL    HW1 8167   7.354  11.118   6.556
35445SOL    HW2 8168   7.465  11.173   6.643
35446SOL     OW 8169   4.425   0.783  13.610
35446SOL    HW1 8170   4.448   0.732  13.533
35446SOL    HW2 8171   4.507   0.824  13.637
35447SOL     OW 8172  11.430   4.324   3.119
35447SOL    HW1 8173  11.524   4.309   3.104
35447SOL    HW2 8174  11.409   4.270   3.195
35448SOL     OW 8175  14.287   3.724  10.200
35448SOL    HW1 8176  14.272   3.657  10.267
35448SOL    HW2 8177  14.283   3.676  10.117
35449SOL     OW 8178   5.498   5.178   7.181
35449SOL    HW1 8179   5.464   5.266   7.167
35449SOL    HW2 8180   5.495   5.165   7.276
35450SOL     OW 8181   3.436   9.140   1.001
35450SOL    HW1 8182   3.412   9.221   1.046
35450SOL    HW2 8183   3.382   9.073   1.043
35451SOL     OW 8184   9.448   7.025   4.361
35451SOL    HW1 8185   9.386   7.016   4.434
35451SOL    HW2 8186   9.412   7.094   4.306
35452SOL     OW 8187   3.694   8.177   6.785
35452SOL    HW1 8188   3.682   8.095   6.834
35452SOL    HW2 8189   3.760   8.156   6.719
35453SOL     OW 8190   6.909   2.620  10.094
35453SOL    HW1 8191   6.838   2.680  10.111
35453SOL    HW2 8192   6.915   2.566  10.173
35454SOL     OW 8193   9.076   7.677   7.961
35454SOL    HW1 8194   9.164   7.648   7.988
35454SOL    HW2 8195   9.047   7.612   7.898
35455SOL     OW 8196   6.115   1.345   0.467
35455SOL    HW1 8197   6.173   1.366   0.540
35455SOL    HW2 8198   6.165   1.372   0.389
35456SOL     OW 8199  14.325   8.042   9.079
35456SOL    HW1 8200  14.421   8.042   9.076
35456SOL    HW2 8201  14.300   7.950   9.076
35457SOL     OW 8202   0.817   4.851   9.204
35457SOL    HW1 8203   0.786   4.852   9.295
35457SOL    HW2 8204   0.907   4.881   9.209
35458SOL     OW 8205   8.789   8.796   6.094
35458SOL    HW1 8206   8.730   8.724   6.115
35458SOL    HW2 8207   8.859   8.788   6.158
35459SOL     OW 8208   4.577   7.118  11.407
35459SOL    HW1 8209   4.591   7.024  11.422
35459SOL    HW2 8210   4.562   7.125  11.312
35460SOL     OW 8211  14.182   8.394   6.307
35460SOL    HW1 8212  14.173   8.483   6.340
35460SOL    HW2 8213  14.092   8.365   6.291
35461SOL     OW 8214   8.090  13.704  12.754
35461SOL    HW1 8215   8.087  13.731  12.662
35461SOL    HW2 8216   8.020  13.638  12.762
35462SOL     OW 8217   5.070   8.607  12.154
35462SOL    HW1 8218   5.137   8.675  12.147
35462SOL    HW2 8219   5.088   8.549  12.080
35463SOL     OW 8220  12.077   2.351  12.449
35463SOL    HW1 8221  12.156   2.323  12.495
35463SOL    HW2 8222  12.014   2.371  12.519
35464SOL     OW 8223   8.344   2.638   8.628
35464SOL    HW1 8224   8.276   2.627   8.561
35464SOL    HW2 8225   8.299   2.623   8.711
35465SOL     OW 8226   1.741   4.278   5.965
35465SOL    HW1 8227   1.746   4.258   6.059
35465SOL    HW2 8228   1.807   4.222   5.925
35466SOL     OW 8229  14.610   3.096  10.864
35466SOL    HW1 8230  14.649   3.069  10.781
35466SOL    HW2 8231  14.551   3.167  10.841
35467SOL     OW 8232   4.944  13.685   4.046
35467SOL    HW1 8233   4.995  13.747   3.994
35467SOL    HW2 8234   4.958  13.714   4.136
35468SOL     OW 8235  13.481   5.186   5.583
35468SOL    HW1 8236  13.526   5.270   5.582
35468SOL    HW2 8237  13.406   5.198   5.525
35469SOL     OW 8238   9.298   6.247   9.224
35469SOL    HW1 8239   9.374   6.283   9.270
35469SOL    HW2 8240   9.324   6.158   9.200
35470SOL     OW 8241   2.532   3.070   2.102
35470SOL    HW1 8242   2.546   3.052   2.195
35470SOL    HW2 8243   2.582   3.150   2.085
35471SOL     OW 8244   3.766   9.885  10.139
35471SOL    HW1 8245   3.759   9.973  10.103
35471SOL    HW2 8246   3.829   9.893  10.211
35472SOL     OW 8247   6.611   7.472   1.419
35472SOL    HW1 8248   6.676   7.528   1.377
35472SOL    HW2 8249   6.647   7.453   1.505
35473SOL     OW 8250   0.106   9.202  10.822
35473SOL    HW1 8251   0.183   9.259  10.827
35473SOL    HW2 8252   0.142   9.115  10.802
35474SOL     OW 8253   9.335   7.608  12.393
35474SOL    HW1 8254   9.409   7.555  12.422
35474SOL    HW2 8255   9.324   7.585  12.301
35475SOL     OW 8256   5.173   9.868   9.460
35475SOL    HW1 8257   5.245   9.846   9.401
35475SOL    HW2 8258   5.101   9.811   9.432
35476SOL     OW 8259   8.738   5.997   1.306
35476SOL    HW1 8260   8.806   6.015   1.241
35476SOL    HW2 8261   8.784   5.951   1.377
35477SOL     OW 8262   7.869   6.843  10.729
35477SOL    HW1 8263   7.886   6.906  10.799
35477SOL    HW2 8264   7.825   6.770  10.772
35478SOL     OW 8265  12.201   7.552   0.916
35478SOL    HW1 8266  12.149   7.612   0.969
35478SOL    HW2 8267  12.152   7.470   0.916
35479SOL     OW 8268  11.162  12.112   2.601
35479SOL    HW1 8269  11.256  12.103   2.587
35479SOL    HW2 8270  11.142  12.052   2.673
35480SOL     OW 8271   1.938   9.385   4.069
35480SOL    HW1 8272   1.869   9.373   4.004
35480SOL    HW2 8273   1.891   9.411   4.149
35481SOL     OW 8274   1.015   2.987   6.431
35481SOL    HW1 8275   0.921   2.972   6.425
35481SOL    HW2 8276   1.034   3.052   6.363
35482SOL     OW 8277  11.326   3.114   2.455
35482SOL    HW1 8278  11.347   3.111   2.362
35482SOL    HW2 8279  11.378   3.044   2.494
35483SOL     OW 8280   0.921   1.353   6.299
35483SOL    HW1 8281   0.946   1.373   6.389
35483SOL    HW2 8282   0.881   1.266   6.303
35484SOL     OW 8283  11.254   2.051   0.349
35484SOL    HW1 8284  11.202   1.975   0.323
35484SOL    HW2 8285  11.228   2.120   0.288
35485SOL     OW 8286   8.302   7.002  12.925
35485SOL    HW1 8287   8.223   6.999  12.871
35485SOL    HW2 8288   8.374   7.007  12.863
35486SOL     OW 8289   7.403   3.378   6.891
35486SOL    HW1 8290   7.310   3.383   6.912
35486SOL    HW2 8291   7.407   3.392   6.797
35487SOL     OW 8292  14.747  10.461  10.985
35487SOL    HW1 8293  14.696  10.475  10.905
35487SOL    HW2 8294  14.822  10.519  10.976
35488SOL     OW 8295  11.005   5.421   8.271
35488SOL    HW1 8296  10.935   5.450   8.213
35488SOL    HW2 8297  10.961   5.368   8.337
35489SOL     OW 8298   0.035   8.456   7.953
35489SOL    HW1 8299   0.010   8.367   7.931
35489SOL    HW2 8300  14.833   8.490   8.003
35490SOL     OW 8301   4.836   8.589   8.653
35490SOL    HW1 8302   4.787   8.544   8.585
35490SOL    HW2 8303   4.770   8.636   8.705
35491SOL     OW 8304   5.703   3.346   3.206
35491SOL    HW1 8305   5.661   3.411   3.262
35491SOL    HW2 8306   5.777   3.315   3.257
35492SOL     OW 8307  14.289   3.340   5.398
35492SOL    HW1 8308  14.239   3.303   5.326
35492SOL    HW2 8309  14.324   3.264   5.445
35493SOL     OW 8310  10.755  11.704  12.343
35493SOL    HW1 8311  10.773  11.615  12.315
35493SOL    HW2 8312  10.660  11.714  12.334
35494SOL     OW 8313  10.930   3.726   6.357
35494SOL    HW1 8314  10.938   3.631   6.364
35494SOL    HW2 8315  10.958   3.758   6.443
35495SOL     OW 8316  10.546  13.630   8.750
35495SOL    HW1 8317  10.552  13.605   8.658
35495SOL    HW2 8318  10.530  13.724   8.748
35496SOL     OW 8319   0.578  11.849   1.356
35496SOL    HW1 8320   0.564  11.943   1.355
35496SOL    HW2 8321   0.553  11.822   1.445
35497SOL     OW 8322  10.607   0.166  11.779
35497SOL    HW1 8323  10.585   0.199  11.691
35497SOL    HW2 8324  10.668   0.231  11.814
35498SOL     OW 8325   7.125   3.623   2.905
35498SOL    HW1 8326   7.033   3.615   2.931
35498SOL    HW2 8327   7.165   3.540   2.931
35499SOL     OW 8328   6.535   8.495   9.045
35499SOL    HW1 8329   6.504   8.490   9.136
35499SOL    HW2 8330   6.464   8.456   8.994
35500SOL     OW 8331   5.336   7.972   8.441
35500SOL    HW1 8332   5.319   7.997   8.532
35500SOL    HW2 8333   5.305   8.047   8.390
35501SOL     OW 8334   0.148  13.395  13.848
35501SOL    HW1 8335   0.229  13.362  13.809
35501SOL    HW2 8336   0.139  13.346  13.930
35502SOL     OW 8337   9.259   3.040   0.514
35502SOL    HW1 8338   9.328   3.083   0.565
35502SOL    HW2 8339   9.290   3.042   0.424
35503SOL     OW 8340  13.340   3.142   4.338
35503SOL    HW1 8341  13.326   3.115   4.248
35503SOL    HW2 8342  13.303   3.230   4.343
35504SOL     OW 8343   7.519   8.591   2.166
35504SOL    HW1 8344   7.504   8.638   2.248
35504SOL    HW2 8345   7.597   8.539   2.181
35505SOL     OW 8346  14.024   0.822  12.487
35505SOL    HW1 8347  13.974   0.843  12.408
35505SOL    HW2 8348  14.024   0.726  12.491
35506SOL     OW 8349   3.253   8.592  14.015
35506SOL    HW1 8350   3.219   8.666  14.066
35506SOL    HW2 8351   3.205   8.595  13.933
35507SOL     OW 8352   7.721   1.985   9.576
35507SOL    HW1 8353   7.779   2.030   9.514
35507SOL    HW2 8354   7.632   2.008   9.546
35508SOL     OW 8355  11.088  11.698   0.083
35508SOL    HW1 8356  11.104  11.670   0.173
35508SOL    HW2 8357  11.103  11.793   0.084
35509SOL     OW 8358  14.842   6.282   4.292
35509SOL    HW1 8359  14.766   6.288   4.234
35509SOL    HW2 8360   0.014   6.202   4.264
35510SOL     OW 8361  10.878   3.169   3.378
35510SOL    HW1 8362  10.818   3.214   3.320
35510SOL    HW2 8363  10.962   3.172   3.333
35511SOL     OW 8364   4.349  12.791  11.935
35511SOL    HW1 8365   4.284  12.721  11.929
35511SOL    HW2 8366   4.422  12.752  11.984
35512SOL     OW 8367   8.672   9.084   6.943
35512SOL    HW1 8368   8.708   9.155   6.890
35512SOL    HW2 8369   8.722   9.088   7.025
35513SOL     OW 8370   5.958  13.393   1.802
35513SOL    HW1 8371   5.870  13.393   1.839
35513SOL    HW2 8372   6.016  13.373   1.876
35514SOL     OW 8373   1.553   7.118   7.182
35514SOL    HW1 8374   1.594   7.093   7.099
35514SOL    HW2 8375   1.606   7.075   7.249
35515SOL     OW 8376   2.788   6.837   6.392
35515SOL    HW1 8377   2.699   6.818   6.419
35515SOL    HW2 8378   2.789   6.821   6.298
35516SOL     OW 8379   3.725   2.586   3.425
35516SOL    HW1 8380   3.781   2.615   3.497
35516SOL    HW2 8381   3.770   2.509   3.390
35517SOL     OW 8382   9.508   4.726   1.980
35517SOL    HW1 8383   9.430   4.773   1.950
35517SOL    HW2 8384   9.581   4.778   1.946
35518SOL     OW 8385  13.630  12.123   5.394
35518SOL    HW1 8386  13.725  12.119   5.390
35518SOL    HW2 8387  13.610  12.217   5.395
35519SOL     OW 8388   8.942  11.228  10.910
35519SOL    HW1 8389   8.982  11.229  10.823
35519SOL    HW2 8390   9.014  11.205  10.969
35520SOL     OW 8391   5.229   2.319   6.642
35520SOL    HW1 8392   5.230   2.412   6.619
35520SOL    HW2 8393   5.176   2.278   6.574
35521SOL     OW 8394   8.797   3.442   4.885
35521SOL    HW1 8395   8.837   3.404   4.807
35521SOL    HW2 8396   8.829   3.533   4.886
35522SOL     OW 8397   1.376  11.212  12.965
35522SOL    HW1 8398   1.466  11.226  12.996
35522SOL    HW2 8399   1.386  11.176  12.877
35523SOL     OW 8400   9.405  10.370   0.005
35523SOL    HW1 8401   9.401  10.331  14.789
35523SOL    HW2 8402   9.350  10.312   0.058
35524SOL     OW 8403   3.371   9.089  12.385
35524SOL    HW1 8404   3.343   9.016  12.330
35524SOL    HW2 8405   3.348   9.167  12.336
35525SOL     OW 8406   9.059   7.990  13.581
35525SOL    HW1 8407   9.146   8.004  13.619
35525SOL    HW2 8408   9.049   8.061  13.517
35526SOL     OW 8409   2.874   9.855   2.671
35526SOL    HW1 8410   2.799   9.911   2.691
35526SOL    HW2 8411   2.944   9.916   2.649
35527SOL     OW 8412   5.750   2.134   5.157
35527SOL    HW1 8413   5.816   2.148   5.088
35527SOL    HW2 8414   5.671   2.176   5.123
35528SOL     OW 8415   1.411   0.053   5.108
35528SOL    HW1 8416   1.445   0.059   5.197
35528SOL    HW2 8417   1.431   0.139   5.069
35529SOL     OW 8418   8.288   0.949   2.543
35529SOL    HW1 8419   8.195   0.951   2.520
35529SOL    HW2 8420   8.295   0.877   2.607
35530SOL     OW 8421   1.196   7.272   2.494
35530SOL    HW1 8422   1.211   7.365   2.511
35530SOL    HW2 8423   1.277   7.241   2.455
35531SOL     OW 8424  12.279   6.359  11.341
35531SOL    HW1 8425  12.209   6.316  11.390
35531SOL    HW2 8426  12.307   6.431  11.397
35532SOL     OW 8427  14.164  11.302   2.867
35532SOL    HW1 8428  14.188  11.257   2.948
35532SOL    HW2 8429  14.109  11.240   2.820
35533SOL     OW 8430   7.377  11.948  13.898
35533SOL    HW1 8431   7.415  12.036  13.900
35533SOL    HW2 8432   7.342  11.939  13.809
35534SOL     OW 8433  11.780   6.618   4.927
35534SOL    HW1 8434  11.840   6.553   4.963
35534SOL    HW2 8435  11.802   6.622   4.833
35535SOL     OW 8436  10.868  12.353  14.207
35535SOL    HW1 8437  10.772  12.349  14.198
35535SOL    HW2 8438  10.882  12.395  14.291
35536SOL     OW 8439  11.206   5.717   6.839
35536SOL    HW1 8440  11.226   5.798   6.792
35536SOL    HW2 8441  11.263   5.718   6.916
35537SOL     OW 8442   7.499   0.459  14.250
35537SOL    HW1 8443   7.534   0.518  14.183
35537SOL    HW2 8444   7.404   0.461  14.237
35538SOL     OW 8445  13.667   5.260   5.903
35538SOL    HW1 8446  13.694   5.352   5.902
35538SOL    HW2 8447  13.571   5.264   5.905
35539SOL     OW 8448   2.780   1.628   2.966
35539SOL    HW1 8449   2.822   1.693   3.022
35539SOL    HW2 8450   2.690   1.660   2.955
35540SOL     OW 8451  13.304   0.843  11.924
35540SOL    HW1 8452  13.366   0.811  11.989
35540SOL    HW2 8453  13.264   0.920  11.964
35541SOL     OW 8454   2.756  10.813  11.488
35541SOL    HW1 8455   2.698  10.807  11.413
35541SOL    HW2 8456   2.739  10.734  11.539
35542SOL     OW 8457  11.884  13.975   9.787
35542SOL    HW1 8458  11.906  13.975   9.694
35542SOL    HW2 8459  11.853  13.886   9.805
35543SOL     OW 8460  10.238  11.070   6.921
35543SOL    HW1 8461  10.325  11.052   6.958
35543SOL    HW2 8462  10.256  11.091   6.829
35544SOL     OW 8463   1.960   1.544   2.435
35544SOL    HW1 8464   1.877   1.521   2.393
35544SOL    HW2 8465   1.999   1.461   2.460
35545SOL     OW 8466  14.659  13.806  10.657
35545SOL    HW1 8467  14.620  13.893  10.667
35545SOL    HW2 8468  14.725  13.816  10.589
35546SOL     OW 8469   3.640  14.373  14.541
35546SOL    HW1 8470   3.641  14.307  14.472
35546SOL    HW2 8471   3.650  14.323  14.622
35547SOL     OW 8472  10.275   5.087   3.569
35547SOL    HW1 8473  10.324   5.111   3.490
35547SOL    HW2 8474  10.187   5.068   3.538
35548SOL     OW 8475   5.167   8.513   6.339
35548SOL    HW1 8476   5.233   8.581   6.354
35548SOL    HW2 8477   5.215   8.443   6.297
35549SOL     OW 8478  14.487   3.478  13.632
35549SOL    HW1 8479  14.474   3.397  13.582
35549SOL    HW2 8480  14.420   3.538  13.599
35550SOL     OW 8481  13.804  14.560   7.085
35550SOL    HW1 8482  13.872  14.582   7.149
35550SOL    HW2 8483  13.783  14.468   7.104
35551SOL     OW 8484  12.310  14.851  12.810
35551SOL    HW1 8485  12.303   0.013  12.722
35551SOL    HW2 8486  12.400  14.821  12.818
35552SOL     OW 8487   3.329   1.719  12.085
35552SOL    HW1 8488   3.383   1.789  12.122
35552SOL    HW2 8489   3.300   1.669  12.162
35553SOL     OW 8490   6.298  10.623   6.469
35553SOL    HW1 8491   6.318  10.550   6.528
35553SOL    HW2 8492   6.378  10.676   6.469
35554SOL     OW 8493   8.177  12.841   9.702
35554SOL    HW1 8494   8.136  12.817   9.785
35554SOL    HW2 8495   8.264  12.802   9.707
35555SOL     OW 8496  11.117  14.714   6.072
35555SOL    HW1 8497  11.123  14.694   6.166
35555SOL    HW2 8498  11.028  14.688   6.047
35556SOL     OW 8499   1.396  12.175  12.900
35556SOL    HW1 8500   1.474  12.157  12.951
35556SOL    HW2 8501   1.423  12.159  12.809
35557SOL     OW 8502   9.371   5.717   3.575
35557SOL    HW1 8503   9.307   5.725   3.645
35557SOL    HW2 8504   9.443   5.775   3.601
35558SOL     OW 8505   4.179   0.722   4.964
35558SOL    HW1 8506   4.204   0.644   4.915
35558SOL    HW2 8507   4.150   0.784   4.897
35559SOL     OW 8508   7.507   5.073  10.488
35559SOL    HW1 8509   7.572   5.134  10.453
35559SOL    HW2 8510   7.472   5.118  10.565
35560SOL     OW 8511  11.225   4.020   4.606
35560SOL    HW1 8512  11.313   4.051   4.627
35560SOL    HW2 8513  11.182   4.009   4.691
35561SOL     OW 8514   5.438   0.207  14.482
35561SOL    HW1 8515   5.438   0.165  14.396
35561SOL    HW2 8516   5.504   0.275  14.475
35562SOL     OW 8517   8.919   0.993   1.066
35562SOL    HW1 8518   8.873   1.038   1.137
35562SOL    HW2 8519   9.012   1.003   1.086
35563SOL     OW 8520  13.884   0.284  14.869
35563SOL    HW1 8521  13.918   0.265  14.782
35563SOL    HW2 8522  13.789   0.271  14.861
35564SOL     OW 8523  14.332   7.677   6.818
35564SOL    HW1 8524  14.310   7.640   6.733
35564SOL    HW2 8525  14.412   7.728   6.803
35565SOL     OW 8526  12.822   8.597  11.280
35565SOL    HW1 8527  12.917   8.595  11.271
35565SOL    HW2 8528  12.796   8.505  11.284
35566SOL     OW 8529  10.581  13.973   8.946
35566SOL    HW1 8530  10.637  13.897   8.959
35566SOL    HW2 8531  10.513  13.942   8.886
35567SOL     OW 8532   5.485   2.465  14.762
35567SOL    HW1 8533   5.438   2.456  14.680
35567SOL    HW2 8534   5.572   2.497  14.737
35568SOL     OW 8535   1.919  11.295   7.272
35568SOL    HW1 8536   1.894  11.387   7.263
35568SOL    HW2 8537   1.998  11.297   7.327
35569SOL     OW 8538   3.754   5.381   6.442
35569SOL    HW1 8539   3.673   5.336   6.466
35569SOL    HW2 8540   3.767   5.445   6.512
35570SOL     OW 8541   5.923   0.818   5.416
35570SOL    HW1 8542   5.870   0.820   5.496
35570SOL    HW2 8543   5.864   0.784   5.349
35571SOL     OW 8544  12.680   0.908   0.708
35571SOL    HW1 8545  12.771   0.928   0.690
35571SOL    HW2 8546  12.654   0.973   0.773
35572SOL     OW 8547   5.049   7.485   8.609
35572SOL    HW1 8548   5.088   7.398   8.604
35572SOL    HW2 8549   4.956   7.470   8.594
35573SOL     OW 8550  11.102   9.566  11.886
35573SOL    HW1 8551  11.173   9.626  11.866
35573SOL    HW2 8552  11.045   9.569  11.809
35574SOL     OW 8553   5.265   6.501   6.030
35574SOL    HW1 8554   5.317   6.470   5.956
35574SOL    HW2 8555   5.288   6.594   6.038
35575SOL     OW 8556   7.291  14.826   3.252
35575SOL    HW1 8557   7.264   0.046   3.260
35575SOL    HW2 8558   7.382  14.826   3.281
35576SOL     OW 8559  14.138  12.401   3.225
35576SOL    HW1 8560  14.179  12.425   3.308
35576SOL    HW2 8561  14.194  12.332   3.190
35577SOL     OW 8562   0.136   9.516  12.323
35577SOL    HW1 8563   0.206   9.576  12.297
35577SOL    HW2 8564   0.098   9.487  12.240
35578SOL     OW 8565  14.139   4.234   0.926
35578SOL    HW1 8566  14.175   4.236   0.837
35578SOL    HW2 8567  14.127   4.326   0.949
35579SOL     OW 8568  12.925   5.936   5.482
35579SOL    HW1 8569  12.840   5.966   5.448
35579SOL    HW2 8570  12.985   6.007   5.460
35580SOL     OW 8571   4.617  14.833   3.873
35580SOL    HW1 8572   4.623   0.032   3.810
35580SOL    HW2 8573   4.621  14.753   3.820
35581SOL     OW 8574   3.529   9.330   5.671
35581SOL    HW1 8575   3.519   9.235   5.662
35581SOL    HW2 8576   3.440   9.364   5.672
35582SOL     OW 8577   5.635   1.898  10.307
35582SOL    HW1 8578   5.595   1.950  10.377
35582SOL    HW2 8579   5.593   1.929  10.227
35583SOL     OW 8580  11.910  10.550   6.201
35583SOL    HW1 8581  11.939  10.583   6.116
35583SOL    HW2 8582  11.858  10.621   6.238
35584SOL     OW 8583   5.944   8.767  12.286
35584SOL    HW1 8584   5.907   8.833  12.227
35584SOL    HW2 8585   5.935   8.685  12.237
35585SOL     OW 8586   7.189  11.880   6.435
35585SOL    HW1 8587   7.104  11.861   6.475
35585SOL    HW2 8588   7.172  11.954   6.377
35586SOL     OW 8589   2.939   1.027   4.491
35586SOL    HW1 8590   3.021   1.029   4.541
35586SOL    HW2 8591   2.948   0.951   4.434
35587SOL     OW 8592   0.876   5.062   3.250
35587SOL    HW1 8593   0.879   5.118   3.328
35587SOL    HW2 8594   0.830   4.983   3.279
35588SOL     OW 8595   3.156   9.126   7.301
35588SOL    HW1 8596   3.221   9.064   7.267
35588SOL    HW2 8597   3.072   9.083   7.285
35589SOL     OW 8598   8.438   6.785   6.866
35589SOL    HW1 8599   8.413   6.836   6.789
35589SOL    HW2 8600   8.481   6.848   6.923
35590SOL     OW 8601  13.086  10.524   4.045
35590SOL    HW1 8602  13.137  10.569   3.977
35590SOL    HW2 8603  13.025  10.469   3.996
35591SOL     OW 8604   1.264   5.819   4.067
35591SOL    HW1 8605   1.203   5.891   4.086
35591SOL    HW2 8606   1.346   5.863   4.043
35592SOL     OW 8607   5.234  11.051   5.090
35592SOL    HW1 8608   5.269  10.965   5.069
35592SOL    HW2 8609   5.202  11.085   5.007
35593SOL     OW 8610   3.811   8.771  14.085
35593SOL    HW1 8611   3.811   8.843  14.148
35593SOL    HW2 8612   3.898   8.732  14.093
35594SOL     OW 8613  13.224   5.120  14.203
35594SOL    HW1 8614  13.213   5.143  14.295
35594SOL    HW2 8615  13.189   5.031  14.197
35595SOL     OW 8616  12.251   2.567   2.990
35595SOL    HW1 8617  12.199   2.544   2.913
35595SOL    HW2 8618  12.229   2.659   3.007
35596SOL     OW 8619  13.356  12.487  10.237
35596SOL    HW1 8620  13.436  12.438  10.224
35596SOL    HW2 8621  13.311  12.483  10.153
35597SOL     OW 8622   2.447   2.131   8.199
35597SOL    HW1 8623   2.408   2.217   8.210
35597SOL    HW2 8624   2.421   2.082   8.277
35598SOL     OW 8625  11.974  14.198   8.848
35598SOL    HW1 8626  12.051  14.170   8.896
35598SOL    HW2 8627  11.929  14.260   8.906
35599SOL     OW 8628   4.341  13.431   6.766
35599SOL    HW1 8629   4.377  13.479   6.841
35599SOL    HW2 8630   4.263  13.388   6.801
35600SOL     OW 8631   1.014   0.711  14.781
35600SOL    HW1 8632   1.017   0.653  14.705
35600SOL    HW2 8633   0.952   0.780  14.756
35601SOL     OW 8634  11.145   1.580   7.364
35601SOL    HW1 8635  11.235   1.553   7.348
35601SOL    HW2 8636  11.148   1.624   7.449
35602SOL     OW 8637   3.472   9.366  14.645
35602SOL    HW1 8638   3.415   9.413  14.585
35602SOL    HW2 8639   3.557   9.411  14.638
35603SOL     OW 8640   8.617   2.903  12.149
35603SOL    HW1 8641   8.542   2.937  12.197
35603SOL    HW2 8642   8.692   2.951  12.183
35604SOL     OW 8643  10.036   7.543   2.944
35604SOL    HW1 8644  10.125   7.510   2.951
35604SOL    HW2 8645   9.988   7.476   2.896
35605SOL     OW 8646   6.186   5.713   2.674
35605SOL    HW1 8647   6.233   5.759   2.605
35605SOL    HW2 8648   6.173   5.625   2.639
35606SOL     OW 8649  13.991  12.228  11.055
35606SOL    HW1 8650  14.048  12.295  11.017
35606SOL    HW2 8651  14.013  12.147  11.010
35607SOL     OW 8652   4.711  11.161   8.661
35607SOL    HW1 8653   4.660  11.099   8.609
35607SOL    HW2 8654   4.720  11.238   8.604
35608SOL     OW 8655  14.365  10.784  13.887
35608SOL    HW1 8656  14.398  10.694  13.890
35608SOL    HW2 8657  14.344  10.804  13.978
35609SOL     OW 8658  11.731  14.596   9.709
35609SOL    HW1 8659  11.726  14.652   9.786
35609SOL    HW2 8660  11.720  14.508   9.742
35610SOL     OW 8661  12.544   8.243  13.781
35610SOL    HW1 8662  12.528   8.151  13.803
35610SOL    HW2 8663  12.545   8.245  13.685
35611SOL     OW 8664   5.870   0.866   1.708
35611SOL    HW1 8665   5.926   0.802   1.751
35611SOL    HW2 8666   5.927   0.907   1.643
35612SOL     OW 8667  12.895   7.856   4.349
35612SOL    HW1 8668  12.919   7.790   4.414
35612SOL    HW2 8669  12.977   7.879   4.306
35613SOL     OW 8670  13.317  12.665  12.619
35613SOL    HW1 8671  13.310  12.648  12.525
35613SOL    HW2 8672  13.277  12.588  12.659
35614SOL     OW 8673   1.822  14.041  11.177
35614SOL    HW1 8674   1.850  14.025  11.267
35614SOL    HW2 8675   1.850  14.131  11.159
35615SOL     OW 8676   4.596   0.584  14.623
35615SOL    HW1 8677   4.534   0.610  14.555
35615SOL    HW2 8678   4.635   0.666  14.653
35616SOL     OW 8679  11.703  13.513   0.779
35616SOL    HW1 8680  11.656  13.558   0.708
35616SOL    HW2 8681  11.771  13.464   0.734
35617SOL     OW 8682   4.271   6.090   3.483
35617SOL    HW1 8683   4.347   6.049   3.441
35617SOL    HW2 8684   4.213   6.016   3.504
35618SOL     OW 8685   9.874  11.392   8.915
35618SOL    HW1 8686   9.884  11.303   8.948
35618SOL    HW2 8687   9.784  11.397   8.884
35619SOL     OW 8688   1.210   2.739   5.197
35619SOL    HW1 8689   1.291   2.699   5.166
35619SOL    HW2 8690   1.141   2.695   5.147
35620SOL     OW 8691   7.129   5.367  10.665
35620SOL    HW1 8692   7.040   5.355  10.696
35620SOL    HW2 8693   7.184   5.357  10.743
35621SOL     OW 8694   6.167   7.388   0.420
35621SOL    HW1 8695   6.237   7.430   0.470
35621SOL    HW2 8696   6.213   7.340   0.351
35622SOL     OW 8697   9.544   6.979   2.828
35622SOL    HW1 8698   9.474   7.022   2.877
35622SOL    HW2 8699   9.499   6.917   2.771
35623SOL     OW 8700   8.333   9.906   8.478
35623SOL    HW1 8701   8.334   9.937   8.568
35623SOL    HW2 8702   8.418   9.864   8.466
35624SOL     OW 8703   0.856   9.313  13.662
35624SOL    HW1 8704   0.815   9.229  13.683
35624SOL    HW2 8705   0.871   9.354  13.747
35625SOL     OW 8706   6.951  10.999  12.571
35625SOL    HW1 8707   7.046  11.004  12.566
35625SOL    HW2 8708   6.921  11.028  12.484
35626SOL     OW 8709   0.335   4.942   0.468
35626SOL    HW1 8710   0.280   4.876   0.509
35626SOL    HW2 8711   0.315   4.935   0.374
35627SOL     OW 8712  11.767  10.584   2.349
35627SOL    HW1 8713  11.804  10.511   2.300
35627SOL    HW2 8714  11.824  10.659   2.327
35628SOL     OW 8715   2.160   7.739   8.934
35628SOL    HW1 8716   2.079   7.768   8.975
35628SOL    HW2 8717   2.191   7.668   8.990
35629SOL     OW 8718  11.776   5.435   3.335
35629SOL    HW1 8719  11.857   5.416   3.287
35629SOL    HW2 8720  11.767   5.363   3.397
35630SOL     OW 8721   2.396   6.871   6.200
35630SOL    HW1 8722   2.449   6.913   6.267
35630SOL    HW2 8723   2.447   6.878   6.120
35631SOL     OW 8724   5.280  10.089   7.129
35631SOL    HW1 8725   5.205  10.134   7.089
35631SOL    HW2 8726   5.345  10.158   7.141
35632SOL     OW 8727  13.364   6.078  14.384
35632SOL    HW1 8728  13.286   6.060  14.437
35632SOL    HW2 8729  13.335   6.065  14.294
35633SOL     OW 8730  14.465   4.197  14.408
35633SOL    HW1 8731  14.374   4.224  14.396
35633SOL    HW2 8732  14.466   4.105  14.380
35634SOL     OW 8733   9.492   1.984  10.874
35634SOL    HW1 8734   9.540   1.902  10.860
35634SOL    HW2 8735   9.533   2.024  10.950
35635SOL     OW 8736  12.113  12.823   6.310
35635SOL    HW1 8737  12.164  12.759   6.260
35635SOL    HW2 8738  12.032  12.777   6.331
35636SOL     OW 8739   6.392   7.620   1.139
35636SOL    HW1 8740   6.410   7.567   1.061
35636SOL    HW2 8741   6.475   7.663   1.158
35637SOL     OW 8742   3.404   8.700   2.862
35637SOL    HW1 8743   3.498   8.686   2.854
35637SOL    HW2 8744   3.394   8.796   2.857
35638SOL     OW 8745  11.560  11.970  13.854
35638SOL    HW1 8746  11.602  12.014  13.928
35638SOL    HW2 8747  11.490  12.029  13.827
35639SOL     OW 8748   6.067   2.857   2.387
35639SOL    HW1 8749   6.071   2.950   2.408
35639SOL    HW2 8750   6.053   2.855   2.293
35640SOL     OW 8751   4.647   7.076  10.076
35640SOL    HW1 8752   4.726   7.111  10.117
35640SOL    HW2 8753   4.579   7.084  10.143
35641SOL     OW 8754  13.693   1.939  13.895
35641SOL    HW1 8755  13.755   1.954  13.824
35641SOL    HW2 8756  13.611   1.915  13.850
35642SOL     OW 8757   4.171  13.724   9.885
35642SOL    HW1 8758   4.199  13.800   9.937
35642SOL    HW2 8759   4.248  13.668   9.881
35643SOL     OW 8760  10.605   5.545   5.645
35643SOL    HW1 8761  10.513   5.546   5.618
35643SOL    HW2 8762  10.639   5.630   5.616
35644SOL     OW 8763  14.672   7.398  13.917
35644SOL    HW1 8764  14.684   7.478  13.967
35644SOL    HW2 8765  14.721   7.411  13.836
35645SOL     OW 8766   8.170  14.602   3.016
35645SOL    HW1 8767   8.142  14.642   3.099
35645SOL    HW2 8768   8.107  14.532   3.001
35646SOL     OW 8769   1.517  10.834  10.755
35646SOL    HW1 8770   1.483  10.785  10.680
35646SOL    HW2 8771   1.441  10.847  10.811
35647SOL     OW 8772   6.024  13.476   5.389
35647SOL    HW1 8773   6.028  13.563   5.348
35647SOL    HW2 8774   6.100  13.474   5.446
35648SOL     OW 8775  10.622   7.684   8.044
35648SOL    HW1 8776  10.565   7.644   7.978
35648SOL    HW2 8777  10.681   7.740   7.993
35649SOL     OW 8778   2.577   2.285  13.195
35649SOL    HW1 8779   2.618   2.215  13.246
35649SOL    HW2 8780   2.625   2.364  13.219
35650SOL     OW 8781   7.432   3.104  11.816
35650SOL    HW1 8782   7.467   3.022  11.782
35650SOL    HW2 8783   7.473   3.172  11.763
35651SOL     OW 8784   6.909  13.151   6.376
35651SOL    HW1 8785   6.966  13.155   6.299
35651SOL    HW2 8786   6.900  13.241   6.405
35652SOL     OW 8787  13.732   1.196   9.623
35652SOL    HW1 8788  13.710   1.187   9.716
35652SOL    HW2 8789  13.772   1.283   9.616
35653SOL     OW 8790   5.140   1.254   3.290
35653SOL    HW1 8791   5.062   1.242   3.235
35653SOL    HW2 8792   5.174   1.166   3.301
35654SOL     OW 8793  12.317  14.796  10.080
35654SOL    HW1 8794  12.269  14.800  10.163
35654SOL    HW2 8795  12.276  14.863  10.025
35655SOL     OW 8796   8.376   6.212   3.831
35655SOL    HW1 8797   8.453   6.230   3.776
35655SOL    HW2 8798   8.344   6.128   3.800
35656SOL     OW 8799   3.804  11.373  14.617
35656SOL    HW1 8800   3.896  11.352  14.600
35656SOL    HW2 8801   3.758  11.347  14.538
35657SOL     OW 8802   9.792   6.756   2.952
35657SOL    HW1 8803   9.733   6.806   3.009
35657SOL    HW2 8804   9.751   6.762   2.866
35658SOL     OW 8805   2.400   7.905  12.254
35658SOL    HW1 8806   2.334   7.974  12.244
35658SOL    HW2 8807   2.475   7.937  12.204
35659SOL     OW 8808  12.497   0.120   0.226
35659SOL    HW1 8809  12.547   0.119   0.144
35659SOL    HW2 8810  12.439   0.195   0.217
35660SOL     OW 8811   4.926  14.480   9.485
35660SOL    HW1 8812   4.866  14.427   9.433
35660SOL    HW2 8813   5.010  14.471   9.440
35661SOL     OW 8814   4.552   5.803   1.039
35661SOL    HW1 8815   4.525   5.781   0.950
35661SOL    HW2 8816   4.487   5.760   1.095
35662SOL     OW 8817   4.576   2.872   9.001
35662SOL    HW1 8818   4.660   2.827   9.001
35662SOL    HW2 8819   4.589   2.946   8.941
35663SOL     OW 8820  14.044   3.979   4.026
35663SOL    HW1 8821  13.949   3.977   4.019
35663SOL    HW2 8822  14.064   3.932   4.107
35664SOL     OW 8823   3.221   2.817   8.419
35664SOL    HW1 8824   3.223   2.886   8.353
35664SOL    HW2 8825   3.300   2.765   8.402
35665SOL     OW 8826   7.880   3.779   7.809
35665SOL    HW1 8827   7.813   3.750   7.871
35665SOL    HW2 8828   7.915   3.699   7.771
35666SOL     OW 8829   9.893   6.747   8.257
35666SOL    HW1 8830   9.887   6.800   8.337
35666SOL    HW2 8831   9.958   6.791   8.203
35667SOL     OW 8832  13.763   2.803   4.631
35667SOL    HW1 8833  13.851   2.784   4.599
35667SOL    HW2 8834  13.719   2.718   4.631
35668SOL     OW 8835   6.255   9.424  11.306
35668SOL    HW1 8836   6.208   9.341  11.308
35668SOL    HW2 8837   6.336   9.408  11.354
35669SOL     OW 8838   6.830  10.896   2.547
35669SOL    HW1 8839   6.772  10.860   2.480
35669SOL    HW2 8840   6.837  10.827   2.613
35670SOL     OW 8841   8.684  13.515   8.570
35670SOL    HW1 8842   8.602  13.468   8.586
35670SOL    HW2 8843   8.677  13.593   8.626
35671SOL     OW 8844   7.895   4.182  13.124
35671SOL    HW1 8845   7.972   4.218  13.080
35671SOL    HW2 8846   7.888   4.232  13.205
35672SOL     OW 8847   4.681   2.428  11.898
35672SOL    HW1 8848   4.705   2.336  11.894
35672SOL    HW2 8849   4.642   2.439  11.985
35673SOL     OW 8850  11.137   5.226   8.679
35673SOL    HW1 8851  11.215   5.249   8.730
35673SOL    HW2 8852  11.068   5.283   8.714
35674SOL     OW 8853  11.522   9.419  13.826
35674SOL    HW1 8854  11.436   9.414  13.784
35674SOL    HW2 8855  11.518   9.356  13.897
35675SOL     OW 8856   9.693  12.850   7.870
35675SOL    HW1 8857   9.633  12.779   7.892
35675SOL    HW2 8858   9.759  12.810   7.814
35676SOL     OW 8859   6.764   6.955   2.873
35676SOL    HW1 8860   6.803   6.868   2.860
35676SOL    HW2 8861   6.815   7.013   2.817
35677SOL     OW 8862  12.138   0.841  12.736
35677SOL    HW1 8863  12.088   0.879  12.664
35677SOL    HW2 8864  12.227   0.833  12.702
35678SOL     OW 8865   9.310   6.987  13.647
35678SOL    HW1 8866   9.240   6.981  13.582
35678SOL    HW2 8867   9.296   7.072  13.689
35679SOL     OW 8868   8.052   3.320   1.138
35679SOL    HW1 8869   7.998   3.331   1.216
35679SOL    HW2 8870   8.042   3.228   1.114
35680SOL     OW 8871   1.337   0.779   2.060
35680SOL    HW1 8872   1.430   0.756   2.057
35680SOL    HW2 8873   1.292   0.695   2.048
35681SOL     OW 8874   5.829  14.824  12.152
35681SOL    HW1 8875   5.885  14.856  12.223
35681SOL    HW2 8876   5.831   0.022  12.087
35682SOL     OW 8877  14.603   8.479  13.997
35682SOL    HW1 8878  14.525   8.479  14.052
35682SOL    HW2 8879  14.651   8.401  14.024
35683SOL     OW 8880  11.207   5.646  12.073
35683SOL    HW1 8881  11.148   5.719  12.050
35683SOL    HW2 8882  11.226   5.659  12.166
35684SOL     OW 8883   1.823   7.043   3.571
35684SOL    HW1 8884   1.828   6.957   3.614
35684SOL    HW2 8885   1.864   7.103   3.634
35685SOL     OW 8886   1.072   7.423   3.007
35685SOL    HW1 8887   1.113   7.339   2.986
35685SOL    HW2 8888   1.141   7.472   3.053
35686SOL     OW 8889   8.489   0.579  12.656
35686SOL    HW1 8890   8.435   0.561  12.579
35686SOL    HW2 8891   8.560   0.515  12.651
35687SOL     OW 8892  13.874   7.701   4.289
35687SOL    HW1 8893  13.893   7.794   4.293
35687SOL    HW2 8894  13.868   7.682   4.195
35688SOL     OW 8895   2.865  14.294   8.132
35688SOL    HW1 8896   2.948  14.247   8.141
35688SOL    HW2 8897   2.870  14.366   8.195
35689SOL     OW 8898   2.529   6.290   6.794
35689SOL    HW1 8899   2.578   6.353   6.740
35689SOL    HW2 8900   2.476   6.344   6.852
35690SOL     OW 8901  14.702   0.649   7.586
35690SOL    HW1 8902  14.766   0.587   7.621
35690SOL    HW2 8903  14.756   0.716   7.543
35691SOL     OW 8904   4.410  14.043   6.787
35691SOL    HW1 8905   4.480  13.979   6.801
35691SOL    HW2 8906   4.384  14.069   6.876
35692SOL     OW 8907   1.729   9.113   7.373
35692SOL    HW1 8908   1.648   9.161   7.355
35692SOL    HW2 8909   1.726   9.096   7.468
35693SOL     OW 8910  11.714   1.929   8.691
35693SOL    HW1 8911  11.787   1.964   8.742
35693SOL    HW2 8912  11.636   1.963   8.734
35694SOL     OW 8913  11.981  14.836   0.967
35694SOL    HW1 8914  12.015   0.037   0.916
35694SOL    HW2 8915  11.978  14.868   1.057
35695SOL     OW 8916   8.512  12.951  14.093
35695SOL    HW1 8917   8.588  12.984  14.141
35695SOL    HW2 8918   8.488  12.870  14.139
35696SOL     OW 8919  11.128  12.801  11.208
35696SOL    HW1 8920  11.118  12.711  11.240
35696SOL    HW2 8921  11.045  12.843  11.231
35697SOL     OW 8922   8.563  13.140  10.359
35697SOL    HW1 8923   8.492  13.105  10.413
35697SOL    HW2 8924   8.628  13.069  10.356
35698SOL     OW 8925   8.183   4.029   2.009
35698SOL    HW1 8926   8.217   3.961   1.951
35698SOL    HW2 8927   8.098   3.996   2.038
35699SOL     OW 8928   0.869  11.247  10.026
35699SOL    HW1 8929   0.814  11.189   9.973
35699SOL    HW2 8930   0.927  11.290   9.963
35700SOL     OW 8931   0.915   1.034   5.326
35700SOL    HW1 8932   0.860   1.027   5.248
35700SOL    HW2 8933   0.987   1.091   5.299
35701SOL     OW 8934   1.674  11.006   9.333
35701SOL    HW1 8935   1.643  10.931   9.385
35701SOL    HW2 8936   1.766  10.986   9.317
35702SOL     OW 8937   5.341  11.581   8.953
35702SOL    HW1 8938   5.429  11.550   8.973
35702SOL    HW2 8939   5.285  11.504   8.968
35703SOL     OW 8940   7.512   2.930   5.460
35703SOL    HW1 8941   7.511   3.018   5.423
35703SOL    HW2 8942   7.527   2.873   5.385
35704SOL     OW 8943   2.654   0.620  11.065
35704SOL    HW1 8944   2.573   0.569  11.068
35704SOL    HW2 8945   2.711   0.578  11.129
35705SOL     OW 8946  13.851   5.185   7.704
35705SOL    HW1 8947  13.843   5.227   7.790
35705SOL    HW2 8948  13.777   5.123   7.701
35706SOL     OW 8949   8.337   0.114  12.386
35706SOL    HW1 8950   8.425   0.151  12.388
35706SOL    HW2 8951   8.317   0.094  12.477
35707SOL     OW 8952   5.611  11.553   5.897
35707SOL    HW1 8953   5.676  11.620   5.878
35707SOL    HW2 8954   5.560  11.545   5.816
35708SOL     OW 8955   4.893  13.209  13.895
35708SOL    HW1 8956   4.899  13.198  13.801
35708SOL    HW2 8957   4.812  13.259  13.909
35709SOL     OW 8958   0.972   4.357   8.531
35709SOL    HW1 8959   0.881   4.343   8.558
35709SOL    HW2 8960   1.023   4.346   8.611
35710SOL     OW 8961  13.167   6.061  10.966
35710SOL    HW1 8962  13.180   5.977  10.921
35710SOL    HW2 8963  13.158   6.037  11.058
35711SOL     OW 8964  13.184   0.033   3.818
35711SOL    HW1 8965  13.243   0.010   3.746
35711SOL    HW2 8966  13.129  14.828   3.831
35712SOL     OW 8967   6.462   4.493   5.781
35712SOL    HW1 8968   6.516   4.453   5.849
35712SOL    HW2 8969   6.521   4.554   5.736
35713SOL     OW 8970  10.104   9.743   0.538
35713SOL    HW1 8971  10.144   9.755   0.625
35713SOL    HW2 8972  10.010   9.744   0.555
35714SOL     OW 8973   5.735   6.790  11.198
35714SOL    HW1 8974   5.680   6.839  11.138
35714SOL    HW2 8975   5.824   6.811  11.172
35715SOL     OW 8976  12.099   0.424  12.619
35715SOL    HW1 8977  12.056   0.507  12.598
35715SOL    HW2 8978  12.137   0.438  12.706
35716SOL     OW 8979   5.738   5.407   2.854
35716SOL    HW1 8980   5.771   5.450   2.775
35716SOL    HW2 8981   5.783   5.452   2.926
35717SOL     OW 8982   7.031   2.878  12.619
35717SOL    HW1 8983   7.062   2.969  12.625
35717SOL    HW2 8984   7.109   2.825  12.634
35718SOL     OW 8985   4.398   0.150   5.433
35718SOL    HW1 8986   4.441   0.234   5.419
35718SOL    HW2 8987   4.323   0.151   5.374
35719SOL     OW 8988   3.355   6.746   1.720
35719SOL    HW1 8989   3.266   6.721   1.745
35719SOL    HW2 8990   3.344   6.829   1.674
35720SOL     OW 8991  10.698  13.037  10.302
35720SOL    HW1 8992  10.790  13.014  10.313
35720SOL    HW2 8993  10.673  13.078  10.385
35721SOL     OW 8994   1.052   8.375   6.560
35721SOL    HW1 8995   1.064   8.368   6.655
35721SOL    HW2 8996   0.963   8.408   6.550
35722SOL     OW 8997   5.328  12.436  11.159
35722SOL    HW1 8998   5.252  12.378  11.149
35722SOL    HW2 8999   5.394  12.383  11.203
35723SOL     OW 9000   2.781   8.858   2.311
35723SOL    HW1 9001   2.769   8.771   2.273
35723SOL    HW2 9002   2.749   8.918   2.243
35724SOL     OW 9003  13.401   4.508   1.521
35724SOL    HW1 9004  13.337   4.524   1.590
35724SOL    HW2 9005  13.435   4.595   1.500
35725SOL     OW 9006   4.324   2.698   6.317
35725SOL    HW1 9007   4.309   2.791   6.330
35725SOL    HW2 9008   4.337   2.663   6.405
35726SOL     OW 9009   3.396  10.992   2.465
35726SOL    HW1 9010   3.469  10.959   2.517
35726SOL    HW2 9011   3.378  11.079   2.500
35727SOL     OW 9012   7.660   1.759   4.775
35727SOL    HW1 9013   7.714   1.816   4.830
35727SOL    HW2 9014   7.716   1.685   4.754
35728SOL     OW 9015   5.773   5.921  10.259
35728SOL    HW1 9016   5.734   5.899  10.344
35728SOL    HW2 9017   5.740   5.854  10.199
35729SOL     OW 9018   3.738   1.159   2.474
35729SOL    HW1 9019   3.771   1.217   2.405
35729SOL    HW2 9020   3.697   1.219   2.537
35730SOL     OW 9021  10.351   2.546   7.884
35730SOL    HW1 9022  10.344   2.491   7.962
35730SOL    HW2 9023  10.440   2.582   7.889
35731SOL     OW 9024  12.538   6.166   8.381
35731SOL    HW1 9025  12.473   6.149   8.449
35731SOL    HW2 9026  12.489   6.163   8.300
35732SOL     OW 9027  13.850   2.008   6.224
35732SOL    HW1 9028  13.839   2.052   6.140
35732SOL    HW2 9029  13.811   1.921   6.211
35733SOL     OW 9030   8.976   6.502   5.099
35733SOL    HW1 9031   9.032   6.484   5.175
35733SOL    HW2 9032   8.908   6.560   5.132
35734SOL     OW 9033  13.075   4.953  10.311
35734SOL    HW1 9034  13.131   4.877  10.295
35734SOL    HW2 9035  13.132   5.018  10.351
35735SOL     OW 9036  13.775   2.660   6.703
35735SOL    HW1 9037  13.784   2.568   6.729
35735SOL    HW2 9038  13.754   2.657   6.610
35736SOL     OW 9039   9.649  14.659  10.314
35736SOL    HW1 9040   9.625  14.629  10.402
35736SOL    HW2 9041   9.653  14.754  10.322
35737SOL     OW 9042  13.632   7.662   1.673
35737SOL    HW1 9043  13.663   7.649   1.763
35737SOL    HW2 9044  13.560   7.600   1.663
35738SOL     OW 9045   4.307   9.126   0.882
35738SOL    HW1 9046   4.392   9.083   0.896
35738SOL    HW2 9047   4.323   9.218   0.906
35739SOL     OW 9048  10.834   1.488   8.731
35739SOL    HW1 9049  10.882   1.421   8.781
35739SOL    HW2 9050  10.823   1.560   8.793
35740SOL     OW 9051  13.046  14.371   7.149
35740SOL    HW1 9052  12.951  14.376   7.164
35740SOL    HW2 9053  13.074  14.462   7.140
35741SOL     OW 9054   9.187  12.083   1.974
35741SOL    HW1 9055   9.150  12.131   1.900
35741SOL    HW2 9056   9.248  12.020   1.934
35742SOL     OW 9057   5.755  14.223  10.123
35742SOL    HW1 9058   5.836  14.176  10.140
35742SOL    HW2 9059   5.716  14.178  10.048
35743SOL     OW 9060   9.408  14.574  14.122
35743SOL    HW1 9061   9.323  14.534  14.103
35743SOL    HW2 9062   9.388  14.664  14.147
35744SOL     OW 9063   7.147   5.565   3.111
35744SOL    HW1 9064   7.081   5.496   3.113
35744SOL    HW2 9065   7.143   5.604   3.199
35745SOL     OW 9066   5.857   4.279  13.124
35745SOL    HW1 9067   5.881   4.223  13.198
35745SOL    HW2 9068   5.938   4.323  13.099
35746SOL     OW 9069   8.785   0.897   7.248
35746SOL    HW1 9070   8.853   0.941   7.197
35746SOL    HW2 9071   8.736   0.847   7.183
35747SOL     OW 9072   9.081  11.901   2.228
35747SOL    HW1 9073   9.074  11.957   2.150
35747SOL    HW2 9074   9.073  11.812   2.194
35748SOL     OW 9075   9.681   9.748   5.883
35748SOL    HW1 9076   9.762   9.723   5.838
35748SOL    HW2 9077   9.614   9.691   5.845
35749SOL     OW 9078   8.709   6.469   3.534
35749SOL    HW1 9079   8.805   6.472   3.541
35749SOL    HW2 9080   8.692   6.486   3.441
35750SOL     OW 9081   9.278   1.635  11.982
35750SOL    HW1 9082   9.347   1.580  11.945
35750SOL    HW2 9083   9.223   1.658  11.908
35751SOL     OW 9084   0.678   2.535  12.204
35751SOL    HW1 9085   0.686   2.455  12.153
35751SOL    HW2 9086   0.694   2.508  12.294
35752SOL     OW 9087   8.712   6.969  11.079
35752SOL    HW1 9088   8.681   6.885  11.046
35752SOL    HW2 9089   8.705   6.962  11.174
35753SOL     OW 9090   8.362   7.183   7.230
35753SOL    HW1 9091   8.312   7.103   7.217
35753SOL    HW2 9092   8.454   7.156   7.224
35754SOL     OW 9093   6.835  13.810  13.029
35754SOL    HW1 9094   6.778  13.771  12.962
35754SOL    HW2 9095   6.918  13.764  13.020
35755SOL     OW 9096   8.260   6.208   7.632
35755SOL    HW1 9097   8.344   6.168   7.655
35755SOL    HW2 9098   8.256   6.202   7.537
35756SOL     OW 9099   8.198   9.575   5.374
35756SOL    HW1 9100   8.243   9.561   5.457
35756SOL    HW2 9101   8.194   9.671   5.364
35757SOL     OW 9102   8.296   9.767  13.009
35757SOL    HW1 9103   8.306   9.672  13.006
35757SOL    HW2 9104   8.303   9.789  13.102
35758SOL     OW 9105  12.722   6.804  11.018
35758SOL    HW1 9106  12.778   6.783  10.943
35758SOL    HW2 9107  12.754   6.748  11.089
35759SOL     OW 9108  13.671   0.076   1.048
35759SOL    HW1 9109  13.637   0.017   1.116
35759SOL    HW2 9110  13.606   0.071   0.979
35760SOL     OW 9111  11.700   7.713   1.245
35760SOL    HW1 9112  11.789   7.738   1.270
35760SOL    HW2 9113  11.646   7.788   1.269
35761SOL     OW 9114   3.793   8.285   2.038
35761SOL    HW1 9115   3.853   8.214   2.013
35761SOL    HW2 9116   3.722   8.279   1.974
35762SOL     OW 9117   1.030   4.427   5.474
35762SOL    HW1 9118   0.959   4.371   5.445
35762SOL    HW2 9119   0.987   4.495   5.525
35763SOL     OW 9120   9.055   4.508   6.808
35763SOL    HW1 9121   9.018   4.440   6.864
35763SOL    HW2 9122   9.070   4.582   6.867
35764SOL     OW 9123   8.600   5.210  13.486
35764SOL    HW1 9124   8.547   5.277  13.528
35764SOL    HW2 9125   8.550   5.185  13.408
35765SOL     OW 9126   8.718  11.561   2.388
35765SOL    HW1 9127   8.701  11.627   2.321
35765SOL    HW2 9128   8.799  11.589   2.430
35766SOL     OW 9129   0.157  14.847   0.280
35766SOL    HW1 9130   0.068  14.837   0.313
35766SOL    HW2 9131   0.179  14.761   0.244
35767SOL     OW 9132   2.964  10.447   6.493
35767SOL    HW1 9133   2.994  10.527   6.537
35767SOL    HW2 9134   3.030  10.382   6.515
35768SOL     OW 9135  14.672   1.800   5.538
35768SOL    HW1 9136  14.660   1.783   5.445
35768SOL    HW2 9137  14.599   1.858   5.562
35769SOL     OW 9138  12.653   3.401   5.077
35769SOL    HW1 9139  12.587   3.339   5.109
35769SOL    HW2 9140  12.730   3.383   5.131
35770SOL     OW 9141   8.624   0.652   3.723
35770SOL    HW1 9142   8.579   0.735   3.743
35770SOL    HW2 9143   8.602   0.594   3.796
35771SOL     OW 9144  12.459   1.436   9.521
35771SOL    HW1 9145  12.388   1.409   9.580
35771SOL    HW2 9146  12.504   1.354   9.499
35772SOL     OW 9147  12.755   7.525   0.496
35772SOL    HW1 9148  12.689   7.535   0.427
35772SOL    HW2 9149  12.834   7.495   0.450
35773SOL     OW 9150   2.634   3.978   6.956
35773SOL    HW1 9151   2.683   4.016   6.883
35773SOL    HW2 9152   2.648   4.039   7.029
35774SOL     OW 9153  13.901   8.271   0.628
35774SOL    HW1 9154  13.834   8.328   0.666
35774SOL    HW2 9155  13.890   8.281   0.533
35775SOL     OW 9156   2.138  14.260  11.241
35775SOL    HW1 9157   2.153  14.354  11.244
35775SOL    HW2 9158   2.066  14.248  11.179
35776SOL     OW 9159   2.984   3.856   8.641
35776SOL    HW1 9160   3.029   3.874   8.724
35776SOL    HW2 9161   3.021   3.773   8.611
35777SOL     OW 9162   6.067   1.911  13.699
35777SOL    HW1 9163   6.034   1.893  13.787
35777SOL    HW2 9164   6.025   1.846  13.643
35778SOL     OW 9165   3.399   8.973   8.026
35778SOL    HW1 9166   3.357   9.007   7.947
35778SOL    HW2 9167   3.481   8.935   7.995
35779SOL     OW 9168   6.656   7.917  12.878
35779SOL    HW1 9169   6.581   7.910  12.937
35779SOL    HW2 9170   6.683   7.826  12.864
35780SOL     OW 9171   9.516   4.615   6.246
35780SOL    HW1 9172   9.579   4.645   6.311
35780SOL    HW2 9173   9.468   4.693   6.220
35781SOL     OW 9174   8.480  10.468   4.521
35781SOL    HW1 9175   8.445  10.487   4.434
35781SOL    HW2 9176   8.540  10.540   4.539
35782SOL     OW 9177   0.953   8.870   7.923
35782SOL    HW1 9178   0.940   8.777   7.941
35782SOL    HW2 9179   0.978   8.873   7.831
35783SOL     OW 9180   1.929  14.802   6.633
35783SOL    HW1 9181   1.950  14.721   6.585
35783SOL    HW2 9182   1.835  14.814   6.620
35784SOL     OW 9183   7.288   0.850  13.188
35784SOL    HW1 9184   7.347   0.776  13.201
35784SOL    HW2 9185   7.345   0.923  13.167
35785SOL     OW 9186  10.485   9.379   6.381
35785SOL    HW1 9187  10.420   9.317   6.415
35785SOL    HW2 9188  10.472   9.458   6.433
35786SOL     OW 9189  13.198  14.647   6.053
35786SOL    HW1 9190  13.136  14.587   6.013
35786SOL    HW2 9191  13.173  14.650   6.146
35787SOL     OW 9192   6.146   8.049   0.955
35787SOL    HW1 9193   6.096   7.975   0.989
35787SOL    HW2 9194   6.207   8.009   0.892
35788SOL     OW 9195   5.033   7.732  11.904
35788SOL    HW1 9196   5.097   7.661  11.918
35788SOL    HW2 9197   4.981   7.702  11.829
35789SOL     OW 9198  12.816   2.313   6.449
35789SOL    HW1 9199  12.910   2.300   6.465
35789SOL    HW2 9200  12.777   2.318   6.536
35790SOL     OW 9201  12.478   3.197   3.125
35790SOL    HW1 9202  12.530   3.276   3.113
35790SOL    HW2 9203  12.528   3.129   3.079
35791SOL     OW 9204   0.564   2.846  13.502
35791SOL    HW1 9205   0.536   2.920  13.448
35791SOL    HW2 9206   0.654   2.867  13.527
35792SOL     OW 9207   2.094  10.815   5.949
35792SOL    HW1 9208   2.189  10.809   5.946
35792SOL    HW2 9209   2.063  10.725   5.954
35793SOL     OW 9210  11.406   1.196   1.211
35793SOL    HW1 9211  11.392   1.101   1.212
35793SOL    HW2 9212  11.348   1.228   1.143
35794SOL     OW 9213  13.761   9.812  11.177
35794SOL    HW1 9214  13.729   9.722  11.178
35794SOL    HW2 9215  13.856   9.804  11.189
35795SOL     OW 9216  13.497   6.815  13.872
35795SOL    HW1 9217  13.479   6.793  13.781
35795SOL    HW2 9218  13.411   6.836  13.909
35796SOL     OW 9219   4.013  14.295  10.965
35796SOL    HW1 9220   3.944  14.264  10.907
35796SOL    HW2 9221   4.086  14.236  10.949
35797SOL     OW 9222   0.976   5.742  12.753
35797SOL    HW1 9223   1.010   5.777  12.671
35797SOL    HW2 9224   1.053   5.730  12.808
35798SOL     OW 9225   9.758  11.701   9.321
35798SOL    HW1 9226   9.745  11.608   9.303
35798SOL    HW2 9227   9.818  11.729   9.252
35799SOL     OW 9228   8.298  14.038  13.269
35799SOL    HW1 9229   8.237  13.976  13.309
35799SOL    HW2 9230   8.253  14.068  13.190
35800SOL     OW 9231   6.796   2.236   1.958
35800SOL    HW1 9232   6.781   2.160   2.014
35800SOL    HW2 9233   6.732   2.300   1.986
35801SOL     OW 9234   6.382   3.500  12.211
35801SOL    HW1 9235   6.323   3.454  12.270
35801SOL    HW2 9236   6.325   3.537  12.144
35802SOL     OW 9237   8.029   4.971   5.609
35802SOL    HW1 9238   8.023   4.989   5.703
35802SOL    HW2 9239   8.042   5.057   5.569
35803SOL     OW 9240   1.849   8.475   1.322
35803SOL    HW1 9241   1.871   8.427   1.402
35803SOL    HW2 9242   1.757   8.499   1.333
35804SOL     OW 9243   1.822  14.490  14.403
35804SOL    HW1 9244   1.734  14.485  14.439
35804SOL    HW2 9245   1.813  14.544  14.325
35805SOL     OW 9246  13.100   1.639   7.725
35805SOL    HW1 9247  13.036   1.707   7.701
35805SOL    HW2 9248  13.050   1.577   7.777
35806SOL     OW 9249   1.214   6.669   6.625
35806SOL    HW1 9250   1.260   6.677   6.709
35806SOL    HW2 9251   1.129   6.632   6.647
35807SOL     OW 9252   6.319  14.039   6.349
35807SOL    HW1 9253   6.308  13.980   6.424
35807SOL    HW2 9254   6.345  13.981   6.277
35808SOL     OW 9255  10.383   5.765  14.802
35808SOL    HW1 9256  10.318   5.736  14.738
35808SOL    HW2 9257  10.454   5.701  14.795
35809SOL     OW 9258  12.193  11.994  13.643
35809SOL    HW1 9259  12.247  11.982  13.565
35809SOL    HW2 9260  12.227  12.074  13.683
35810SOL     OW 9261   4.216   2.514   7.383
35810SOL    HW1 9262   4.186   2.443   7.326
35810SOL    HW2 9263   4.139   2.538   7.434
35811SOL     OW 9264   0.501   3.517  11.398
35811SOL    HW1 9265   0.588   3.488  11.423
35811SOL    HW2 9266   0.471   3.570  11.472
35812SOL     OW 9267   7.614   5.783   4.049
35812SOL    HW1 9268   7.550   5.717   4.077
35812SOL    HW2 9269   7.632   5.834   4.128
35813SOL     OW 9270   9.155   2.759  11.261
35813SOL    HW1 9271   9.123   2.809  11.337
35813SOL    HW2 9272   9.078   2.713  11.229
35814SOL     OW 9273   8.732  14.592   7.146
35814SOL    HW1 9274   8.824  14.574   7.166
35814SOL    HW2 9275   8.733  14.617   7.053
35815SOL     OW 9276   1.299  14.323   5.042
35815SOL    HW1 9277   1.287  14.277   5.125
35815SOL    HW2 9278   1.320  14.413   5.067
35816SOL     OW 9279   7.362   5.091  12.968
35816SOL    HW1 9280   7.324   5.141  12.896
35816SOL    HW2 9281   7.291   5.033  12.996
35817SOL     OW 9282  14.454  11.774   9.416
35817SOL    HW1 9283  14.405  11.715   9.359
35817SOL    HW2 9284  14.508  11.825   9.356
35818SOL     OW 9285   4.305   4.150   5.203
35818SOL    HW1 9286   4.400   4.149   5.213
35818SOL    HW2 9287   4.290   4.111   5.117
35819SOL     OW 9288  11.249   9.133   7.319
35819SOL    HW1 9289  11.192   9.057   7.332
35819SOL    HW2 9290  11.191   9.208   7.332
35820SOL     OW 9291   2.990  12.853   6.294
35820SOL    HW1 9292   3.049  12.830   6.366
35820SOL    HW2 9293   3.041  12.838   6.215
35821SOL     OW 9294  12.787   0.599  12.411
35821SOL    HW1 9295  12.718   0.627  12.351
35821SOL    HW2 9296  12.805   0.676  12.464
35822SOL     OW 9297  10.025   3.164  13.356
35822SOL    HW1 9298  10.033   3.259  13.343
35822SOL    HW2 9299   9.959   3.137  13.292
35823SOL     OW 9300  12.495  11.637  13.152
35823SOL    HW1 9301  12.524  11.550  13.179
35823SOL    HW2 9302  12.562  11.667  13.091
35824SOL     OW 9303  13.230   5.187  10.422
35824SOL    HW1 9304  13.186   5.241  10.487
35824SOL    HW2 9305  13.308   5.154  10.466
35825SOL     OW 9306   5.132   4.607  14.861
35825SOL    HW1 9307   5.059   4.663   0.017
35825SOL    HW2 9308   5.207   4.638   0.040
35826SOL     OW 9309   5.340  11.806   6.438
35826SOL    HW1 9310   5.279  11.812   6.511
35826SOL    HW2 9311   5.399  11.880   6.450
35827SOL     OW 9312   2.063   1.682   6.671
35827SOL    HW1 9313   2.149   1.644   6.653
35827SOL    HW2 9314   2.057   1.758   6.613
35828SOL     OW 9315   3.892  13.759  14.253
35828SOL    HW1 9316   3.909  13.666  14.266
35828SOL    HW2 9317   3.802  13.772  14.283
35829SOL     OW 9318  11.578   0.334   1.534
35829SOL    HW1 9319  11.639   0.320   1.606
35829SOL    HW2 9320  11.600   0.421   1.500
35830SOL     OW 9321   7.710  14.336   6.467
35830SOL    HW1 9322   7.774  14.346   6.396
35830SOL    HW2 9323   7.650  14.268   6.436
35831SOL     OW 9324   1.905  13.344   3.340
35831SOL    HW1 9325   1.812  13.364   3.350
35831SOL    HW2 9326   1.908  13.249   3.328
35832SOL     OW 9327  10.547   0.990   5.937
35832SOL    HW1 9328  10.559   1.058   6.003
35832SOL    HW2 9329  10.631   0.983   5.893
35833SOL     OW 9330  10.683   6.274  11.641
35833SOL    HW1 9331  10.603   6.222  11.632
35833SOL    HW2 9332  10.733   6.229  11.709
35834SOL     OW 9333   6.091  13.836   5.100
35834SOL    HW1 9334   6.088  13.772   5.029
35834SOL    HW2 9335   6.005  13.877   5.101
35835SOL     OW 9336   6.103   7.128   2.201
35835SOL    HW1 9337   6.048   7.133   2.279
35835SOL    HW2 9338   6.163   7.202   2.209
35836SOL     OW 9339   0.352   2.155  14.042
35836SOL    HW1 9340   0.347   2.166  14.137
35836SOL    HW2 9341   0.372   2.062  14.029
35837SOL     OW 9342   5.587   7.455  13.464
35837SOL    HW1 9343   5.660   7.437  13.524
35837SOL    HW2 9344   5.566   7.369  13.427
35838SOL     OW 9345  14.665   8.706   3.713
35838SOL    HW1 9346  14.612   8.684   3.789
35838SOL    HW2 9347  14.755   8.695   3.742
35839SOL     OW 9348  13.550  11.315   8.596
35839SOL    HW1 9349  13.569  11.408   8.582
35839SOL    HW2 9350  13.636  11.274   8.604
35840SOL     OW 9351   8.251   3.489  12.072
35840SOL    HW1 9352   8.205   3.487  12.156
35840SOL    HW2 9353   8.344   3.492  12.096
35841SOL     OW 9354   1.662   7.903   9.610
35841SOL    HW1 9355   1.690   7.812   9.597
35841SOL    HW2 9356   1.676   7.919   9.703
35842SOL     OW 9357   8.877   0.221  12.693
35842SOL    HW1 9358   8.913   0.236  12.781
35842SOL    HW2 9359   8.844   0.131  12.697
35843SOL     OW 9360   2.317   6.511   6.692
35843SOL    HW1 9361   2.336   6.452   6.619
35843SOL    HW2 9362   2.233   6.550   6.670
35844SOL     OW 9363   3.639  11.156  13.182
35844SOL    HW1 9364   3.681  11.201  13.109
35844SOL    HW2 9365   3.616  11.070  13.147
35845SOL     OW 9366   5.691  11.195   8.774
35845SOL    HW1 9367   5.630  11.130   8.741
35845SOL    HW2 9368   5.731  11.154   8.851
35846SOL     OW 9369  14.817   4.528   2.232
35846SOL    HW1 9370  14.747   4.471   2.199
35846SOL    HW2 9371   0.026   4.481   2.211
35847SOL     OW 9372  11.771   5.212   1.418
35847SOL    HW1 9373  11.785   5.273   1.491
35847SOL    HW2 9374  11.742   5.131   1.460
35848SOL     OW 9375   1.547   5.198   8.349
35848SOL    HW1 9376   1.570   5.282   8.386
35848SOL    HW2 9377   1.468   5.171   8.396
35849SOL     OW 9378  10.028   3.803   9.914
35849SOL    HW1 9379  10.091   3.745   9.958
35849SOL    HW2 9380  10.030   3.884   9.965
35850SOL     OW 9381   8.316   4.591   6.960
35850SOL    HW1 9382   8.335   4.499   6.977
35850SOL    HW2 9383   8.358   4.608   6.875
35851SOL     OW 9384   4.013   5.621  12.550
35851SOL    HW1 9385   3.942   5.669  12.594
35851SOL    HW2 9386   4.050   5.684  12.488
35852SOL     OW 9387   9.624   3.244  13.234
35852SOL    HW1 9388   9.596   3.186  13.305
35852SOL    HW2 9389   9.694   3.195  13.190
35853SOL     OW 9390   0.671   3.209  11.809
35853SOL    HW1 9391   0.764   3.188  11.806
35853SOL    HW2 9392   0.658   3.253  11.892
35854SOL     OW 9393  14.160  11.661  10.156
35854SOL    HW1 9394  14.254  11.679  10.150
35854SOL    HW2 9395  14.145  11.590  10.094
35855SOL     OW 9396  11.536   4.706   6.356
35855SOL    HW1 9397  11.623   4.746   6.360
35855SOL    HW2 9398  11.513   4.706   6.263
35856SOL     OW 9399   6.274  13.755  10.823
35856SOL    HW1 9400   6.343  13.767  10.889
35856SOL    HW2 9401   6.195  13.737  10.875
35857SOL     OW 9402   5.588  10.250  12.483
35857SOL    HW1 9403   5.622  10.231  12.396
35857SOL    HW2 9404   5.637  10.193  12.542
35858SOL     OW 9405   9.303  10.071  13.200
35858SOL    HW1 9406   9.243  10.131  13.245
35858SOL    HW2 9407   9.371  10.052  13.264
35859SOL     OW 9408  13.949  10.661  10.786
35859SOL    HW1 9409  13.974  10.572  10.761
35859SOL    HW2 9410  14.024  10.715  10.761
35860SOL     OW 9411   5.952  14.864   7.334
35860SOL    HW1 9412   5.939   0.082   7.363
35860SOL    HW2 9413   5.865  14.826   7.332
35861SOL     OW 9414  14.199  12.064  12.236
35861SOL    HW1 9415  14.155  12.023  12.310
35861SOL    HW2 9416  14.201  11.996  12.169
35862SOL     OW 9417   8.926   3.406  11.051
35862SOL    HW1 9418   8.983   3.414  10.974
35862SOL    HW2 9419   8.978   3.444  11.123
35863SOL     OW 9420   8.215   1.690  13.284
35863SOL    HW1 9421   8.214   1.636  13.204
35863SOL    HW2 9422   8.258   1.635  13.349
35864SOL     OW 9423   1.489   2.820   0.178
35864SOL    HW1 9424   1.406   2.857   0.209
35864SOL    HW2 9425   1.469   2.787   0.091
35865SOL     OW 9426  14.520   4.103   2.904
35865SOL    HW1 9427  14.573   4.167   2.952
35865SOL    HW2 9428  14.459   4.069   2.969
35866SOL     OW 9429   9.955   3.052  13.785
35866SOL    HW1 9430  10.013   2.982  13.814
35866SOL    HW2 9431  10.002   3.094  13.713
35867SOL     OW 9432   5.666   1.325   6.493
35867SOL    HW1 9433   5.647   1.414   6.466
35867SOL    HW2 9434   5.580   1.289   6.519
35868SOL     OW 9435  11.298   3.163  10.214
35868SOL    HW1 9436  11.376   3.161  10.268
35868SOL    HW2 9437  11.235   3.108  10.260
35869SOL     OW 9438  13.722   9.967   7.506
35869SOL    HW1 9439  13.750   9.968   7.415
35869SOL    HW2 9440  13.627   9.974   7.503
35870SOL     OW 9441   0.864  14.575   1.707
35870SOL    HW1 9442   0.915  14.654   1.725
35870SOL    HW2 9443   0.923  14.503   1.728
35871SOL     OW 9444   8.605   6.822  10.343
35871SOL    HW1 9445   8.564   6.889  10.398
35871SOL    HW2 9446   8.534   6.762  10.321
35872SOL     OW 9447   2.969   1.606  14.310
35872SOL    HW1 9448   2.938   1.676  14.368
35872SOL    HW2 9449   2.997   1.536  14.369
35873SOL     OW 9450   8.268  12.004   9.420
35873SOL    HW1 9451   8.305  11.964   9.342
35873SOL    HW2 9452   8.207  11.939   9.454
35874SOL     OW 9453   8.799  12.018  12.677
35874SOL    HW1 9454   8.841  12.050  12.597
35874SOL    HW2 9455   8.735  11.953  12.646
35875SOL     OW 9456   9.597  13.790   3.786
35875SOL    HW1 9457   9.548  13.708   3.792
35875SOL    HW2 9458   9.637  13.802   3.872
35876SOL     OW 9459  13.094   0.715   4.521
35876SOL    HW1 9460  13.075   0.769   4.445
35876SOL    HW2 9461  13.043   0.755   4.592
35877SOL     OW 9462   6.248   5.537  11.614
35877SOL    HW1 9463   6.336   5.500  11.611
35877SOL    HW2 9464   6.219   5.539  11.523
35878SOL     OW 9465  13.051   8.615   0.049
35878SOL    HW1 9466  12.994   8.662   0.109
35878SOL    HW2 9467  13.000   8.539   0.022
35879SOL     OW 9468   4.424   2.739   1.821
35879SOL    HW1 9469   4.519   2.729   1.808
35879SOL    HW2 9470   4.412   2.832   1.840
35880SOL     OW 9471   4.339  11.368   8.779
35880SOL    HW1 9472   4.355  11.415   8.697
35880SOL    HW2 9473   4.245  11.377   8.794
35881SOL     OW 9474  11.165  12.177   4.488
35881SOL    HW1 9475  11.218  12.098   4.500
35881SOL    HW2 9476  11.111  12.182   4.567
35882SOL     OW 9477   6.019  12.099   1.541
35882SOL    HW1 9478   5.975  12.024   1.500
35882SOL    HW2 9479   6.061  12.062   1.619
35883SOL     OW 9480   3.008   9.657   2.466
35883SOL    HW1 9481   3.061   9.580   2.482
35883SOL    HW2 9482   3.071   9.726   2.444
35884SOL     OW 9483  13.113   0.875  13.585
35884SOL    HW1 9484  13.081   0.822  13.512
35884SOL    HW2 9485  13.053   0.854  13.657
35885SOL     OW 9486  10.368  12.189  12.822
35885SOL    HW1 9487  10.399  12.185  12.912
35885SOL    HW2 9488  10.378  12.280  12.796
35886SOL     OW 9489   8.856   4.862  13.689
35886SOL    HW1 9490   8.904   4.880  13.608
35886SOL    HW2 9491   8.790   4.931  13.694
35887SOL     OW 9492   3.880  10.243   1.913
35887SOL    HW1 9493   3.884  10.339   1.917
35887SOL    HW2 9494   3.946  10.219   1.849
35888SOL     OW 9495   7.728   9.154   7.214
35888SOL    HW1 9496   7.654   9.186   7.162
35888SOL    HW2 9497   7.734   9.061   7.193
35889SOL     OW 9498   5.644   5.881   7.603
35889SOL    HW1 9499   5.632   5.878   7.508
35889SOL    HW2 9500   5.556   5.887   7.638
35890SOL     OW 9501  11.230  11.951  14.095
35890SOL    HW1 9502  11.230  12.029  14.151
35890SOL    HW2 9503  11.231  11.986  14.006
35891SOL     OW 9504   5.962  11.342   3.693
35891SOL    HW1 9505   5.992  11.252   3.704
35891SOL    HW2 9506   5.896  11.354   3.761
35892SOL     OW 9507   2.727   0.007  11.357
35892SOL    HW1 9508   2.729  14.834  11.441
35892SOL    HW2 9509   2.749   0.098  11.378
35893SOL     OW 9510   9.275   1.245  13.779
35893SOL    HW1 9511   9.360   1.240  13.735
35893SOL    HW2 9512   9.227   1.168  13.749
35894SOL     OW 9513  12.981   9.168  13.270
35894SOL    HW1 9514  12.967   9.073  13.269
35894SOL    HW2 9515  12.995   9.191  13.178
35895SOL     OW 9516   1.910  11.180  12.027
35895SOL    HW1 9517   1.902  11.092  12.064
35895SOL    HW2 9518   1.821  11.214  12.026
35896SOL     OW 9519   0.101  10.550  14.326
35896SOL    HW1 9520   0.123  10.472  14.377
35896SOL    HW2 9521   0.014  10.532  14.291
35897SOL     OW 9522   0.413   9.400   9.393
35897SOL    HW1 9523   0.428   9.462   9.322
35897SOL    HW2 9524   0.435   9.315   9.356
35898SOL     OW 9525   6.194  10.695   9.001
35898SOL    HW1 9526   6.161  10.661   9.084
35898SOL    HW2 9527   6.141  10.773   8.984
35899SOL     OW 9528   0.500   7.464  10.087
35899SOL    HW1 9529   0.535   7.541  10.131
35899SOL    HW2 9530   0.544   7.462  10.003
35900SOL     OW 9531  10.177   9.168  13.804
35900SOL    HW1 9532  10.140   9.220  13.732
35900SOL    HW2 9533  10.156   9.219  13.883
35901SOL     OW 9534   1.119  14.159   6.162
35901SOL    HW1 9535   1.187  14.226   6.165
35901SOL    HW2 9536   1.144  14.103   6.088
35902SOL     OW 9537  13.720   0.610  12.346
35902SOL    HW1 9538  13.666   0.543  12.304
35902SOL    HW2 9539  13.657   0.672  12.382
35903SOL     OW 9540   2.079   7.850  12.554
35903SOL    HW1 9541   2.146   7.879  12.492
35903SOL    HW2 9542   2.128   7.823  12.631
35904SOL     OW 9543   8.335  10.202  12.100
35904SOL    HW1 9544   8.408  10.150  12.067
35904SOL    HW2 9545   8.284  10.141  12.154
35905SOL     OW 9546  12.747   2.180   5.279
35905SOL    HW1 9547  12.652   2.186   5.265
35905SOL    HW2 9548  12.756   2.106   5.340
35906SOL     OW 9549  10.096  10.358   2.585
35906SOL    HW1 9550  10.190  10.377   2.580
35906SOL    HW2 9551  10.067  10.404   2.664
35907SOL     OW 9552   4.735  10.346   7.995
35907SOL    HW1 9553   4.641  10.355   8.010
35907SOL    HW2 9554   4.771  10.322   8.081
35908SOL     OW 9555   7.917   7.495  10.157
35908SOL    HW1 9556   7.972   7.418  10.140
35908SOL    HW2 9557   7.963   7.542  10.227
35909SOL     OW 9558   5.482  12.642  11.969
35909SOL    HW1 9559   5.501  12.556  11.931
35909SOL    HW2 9560   5.561  12.665  12.018
35910SOL     OW 9561   1.835   8.319   8.800
35910SOL    HW1 9562   1.879   8.314   8.885
35910SOL    HW2 9563   1.906   8.316   8.736
35911SOL     OW 9564  10.285   1.398   8.785
35911SOL    HW1 9565  10.310   1.336   8.717
35911SOL    HW2 9566  10.256   1.476   8.737
35912SOL     OW 9567   5.134   7.225   3.269
35912SOL    HW1 9568   5.065   7.290   3.286
35912SOL    HW2 9569   5.094   7.163   3.209
35913SOL     OW 9570   5.295   3.047   1.410
35913SOL    HW1 9571   5.364   3.076   1.469
35913SOL    HW2 9572   5.291   2.952   1.422
35914SOL     OW 9573  12.170   5.484   1.400
35914SOL    HW1 9574  12.177   5.530   1.316
35914SOL    HW2 9575  12.254   5.438   1.410
35915SOL     OW 9576  13.303   2.455   0.232
35915SOL    HW1 9577  13.300   2.441   0.326
35915SOL    HW2 9578  13.246   2.387   0.195
35916SOL     OW 9579   7.820   3.714   8.188
35916SOL    HW1 9580   7.761   3.724   8.114
35916SOL    HW2 9581   7.879   3.643   8.162
35917SOL     OW 9582  14.388   6.464   0.750
35917SOL    HW1 9583  14.368   6.551   0.786
35917SOL    HW2 9584  14.384   6.406   0.825
35918SOL     OW 9585   4.407   1.236   6.534
35918SOL    HW1 9586   4.423   1.202   6.622
35918SOL    HW2 9587   4.494   1.245   6.496
35919SOL     OW 9588   2.808   2.766  11.752
35919SOL    HW1 9589   2.783   2.752  11.661
35919SOL    HW2 9590   2.855   2.849  11.752
35920SOL     OW 9591   8.098  10.308   5.268
35920SOL    HW1 9592   8.122  10.225   5.310
35920SOL    HW2 9593   8.059  10.360   5.338
35921SOL     OW 9594   1.150   4.592  12.560
35921SOL    HW1 9595   1.055   4.603  12.559
35921SOL    HW2 9596   1.165   4.512  12.510
35922SOL     OW 9597   0.501   3.826  14.199
35922SOL    HW1 9598   0.411   3.793  14.202
35922SOL    HW2 9599   0.546   3.777  14.268
35923SOL     OW 9600  12.404  14.355   0.273
35923SOL    HW1 9601  12.358  14.280   0.236
35923SOL    HW2 9602  12.411  14.335   0.366
35924SOL     OW 9603  10.518   4.313  14.624
35924SOL    HW1 9604  10.463   4.235  14.630
35924SOL    HW2 9605  10.607   4.280  14.618
35925SOL     OW 9606  10.728  10.788  13.516
35925SOL    HW1 9607  10.766  10.840  13.587
35925SOL    HW2 9608  10.726  10.698  13.550
35926SOL     OW 9609  11.438  13.088   3.216
35926SOL    HW1 9610  11.453  13.111   3.308
35926SOL    HW2 9611  11.523  13.058   3.185
35927SOL     OW 9612   0.173   2.158   3.171
35927SOL    HW1 9613   0.177   2.099   3.096
35927SOL    HW2 9614   0.175   2.246   3.133
35928SOL     OW 9615  14.105  12.057   9.873
35928SOL    HW1 9616  14.009  12.066   9.875
35928SOL    HW2 9617  14.138  12.131   9.922
35929SOL     OW 9618   2.442  13.842  11.272
35929SOL    HW1 9619   2.399  13.926  11.287
35929SOL    HW2 9620   2.375  13.790  11.226
35930SOL     OW 9621   5.804   9.968   8.908
35930SOL    HW1 9622   5.720   9.999   8.875
35930SOL    HW2 9623   5.786   9.938   8.997
35931SOL     OW 9624  12.349  14.386   9.137
35931SOL    HW1 9625  12.338  14.353   9.048
35931SOL    HW2 9626  12.393  14.470   9.126
35932SOL     OW 9627   5.777   9.645   7.514
35932SOL    HW1 9628   5.852   9.704   7.517
35932SOL    HW2 9629   5.815   9.560   7.491
35933SOL     OW 9630  13.885   1.896   5.722
35933SOL    HW1 9631  13.847   1.967   5.670
35933SOL    HW2 9632  13.979   1.900   5.704
35934SOL     OW 9633  10.119   4.976   0.970
35934SOL    HW1 9634  10.069   4.942   1.044
35934SOL    HW2 9635  10.141   4.898   0.918
35935SOL     OW 9636  12.930  11.670   8.887
35935SOL    HW1 9637  12.945  11.596   8.945
35935SOL    HW2 9638  12.982  11.650   8.809
35936SOL     OW 9639   3.949   6.652   7.655
35936SOL    HW1 9640   4.031   6.679   7.696
35936SOL    HW2 9641   3.972   6.637   7.564
35937SOL     OW 9642   3.489   9.860   3.308
35937SOL    HW1 9643   3.572   9.900   3.281
35937SOL    HW2 9644   3.463   9.807   3.233
35938SOL     OW 9645   9.206   4.906  13.351
35938SOL    HW1 9646   9.276   4.944  13.404
35938SOL    HW2 9647   9.203   4.961  13.273
35939SOL     OW 9648   7.369   4.440   5.253
35939SOL    HW1 9649   7.320   4.516   5.284
35939SOL    HW2 9650   7.350   4.436   5.159
35940SOL     OW 9651  12.564   6.368   0.027
35940SOL    HW1 9652  12.474   6.396   0.007
35940SOL    HW2 9653  12.559   6.332   0.115
35941SOL     OW 9654   9.478   4.235   1.262
35941SOL    HW1 9655   9.548   4.295   1.238
35941SOL    HW2 9656   9.455   4.261   1.352
35942SOL     OW 9657   2.321  10.123   3.706
35942SOL    HW1 9658   2.343  10.185   3.636
35942SOL    HW2 9659   2.388  10.138   3.773
35943SOL     OW 9660  10.625  11.989   6.901
35943SOL    HW1 9661  10.532  11.981   6.877
35943SOL    HW2 9662  10.632  12.078   6.937
35944SOL     OW 9663  12.034   2.314   7.145
35944SOL    HW1 9664  12.008   2.272   7.063
35944SOL    HW2 9665  11.954   2.316   7.198
35945SOL     OW 9666  14.569   0.738   4.883
35945SOL    HW1 9667  14.599   0.711   4.970
35945SOL    HW2 9668  14.519   0.663   4.851
35946SOL     OW 9669  13.282  11.087  10.635
35946SOL    HW1 9670  13.345  11.075  10.564
35946SOL    HW2 9671  13.296  11.011  10.692
35947SOL     OW 9672   1.377   4.369   0.109
35947SOL    HW1 9673   1.460   4.360   0.156
35947SOL    HW2 9674   1.385   4.451   0.061
35948SOL     OW 9675   7.277   8.040   3.012
35948SOL    HW1 9676   7.342   8.075   2.952
35948SOL    HW2 9677   7.198   8.029   2.958
35949SOL     OW 9678   2.256  12.113   3.117
35949SOL    HW1 9679   2.185  12.052   3.138
35949SOL    HW2 9680   2.230  12.153   3.034
35950SOL     OW 9681   0.129  14.841   7.984
35950SOL    HW1 9682   0.067  14.819   8.053
35950SOL    HW2 9683   0.192   0.028   8.026
35951SOL     OW 9684   8.841   2.497   2.415
35951SOL    HW1 9685   8.780   2.444   2.364
35951SOL    HW2 9686   8.832   2.586   2.379
35952SOL     OW 9687   5.697   7.111   4.536
35952SOL    HW1 9688   5.617   7.151   4.504
35952SOL    HW2 9689   5.765   7.177   4.518
35953SOL     OW 9690   4.433  12.140   9.874
35953SOL    HW1 9691   4.435  12.046   9.888
35953SOL    HW2 9692   4.473  12.152   9.787
35954SOL     OW 9693   2.157  11.532   2.359
35954SOL    HW1 9694   2.130  11.469   2.292
35954SOL    HW2 9695   2.094  11.603   2.351
35955SOL     OW 9696   9.757  10.451   4.848
35955SOL    HW1 9697   9.732  10.541   4.826
35955SOL    HW2 9698   9.852  10.455   4.859
35956SOL     OW 9699  10.921  12.342   3.401
35956SOL    HW1 9700  10.931  12.339   3.306
35956SOL    HW2 9701  11.005  12.313   3.436
35957SOL     OW 9702  11.753   3.972   5.753
35957SOL    HW1 9703  11.737   4.055   5.798
35957SOL    HW2 9704  11.670   3.925   5.761
35958SOL     OW 9705   5.016   1.493   5.095
35958SOL    HW1 9706   4.937   1.547   5.089
35958SOL    HW2 9707   5.085   1.554   5.122
35959SOL     OW 9708   5.713   1.494   1.182
35959SOL    HW1 9709   5.697   1.541   1.264
35959SOL    HW2 9710   5.704   1.401   1.205
35960SOL     OW 9711   7.643   7.618   8.994
35960SOL    HW1 9712   7.687   7.703   8.987
35960SOL    HW2 9713   7.596   7.623   9.077
35961SOL     OW 9714   7.592   3.834   3.151
35961SOL    HW1 9715   7.567   3.790   3.070
35961SOL    HW2 9716   7.510   3.869   3.186
35962SOL     OW 9717  13.628  13.999  12.880
35962SOL    HW1 9718  13.704  14.053  12.901
35962SOL    HW2 9719  13.644  13.971  12.789
35963SOL     OW 9720   4.170   9.342   6.117
35963SOL    HW1 9721   4.182   9.375   6.206
35963SOL    HW2 9722   4.086   9.296   6.120
35964SOL     OW 9723  14.080  11.825  10.874
35964SOL    HW1 9724  14.086  11.867  10.788
35964SOL    HW2 9725  14.008  11.870  10.918
35965SOL     OW 9726   4.196  14.609   9.755
35965SOL    HW1 9727   4.250  14.661   9.815
35965SOL    HW2 9728   4.109  14.649   9.760
35966SOL     OW 9729   7.208  10.142  13.633
35966SOL    HW1 9730   7.300  10.162  13.617
35966SOL    HW2 9731   7.198  10.050  13.610
35967SOL     OW 9732  10.277  11.492   7.679
35967SOL    HW1 9733  10.265  11.428   7.749
35967SOL    HW2 9734  10.210  11.470   7.615
35968SOL     OW 9735   1.188   8.056   5.341
35968SOL    HW1 9736   1.122   8.078   5.407
35968SOL    HW2 9737   1.139   8.053   5.259
35969SOL     OW 9738   5.431   4.829   4.552
35969SOL    HW1 9739   5.514   4.837   4.600
35969SOL    HW2 9740   5.457   4.826   4.460
35970SOL     OW 9741   1.780   2.469   4.463
35970SOL    HW1 9742   1.805   2.391   4.513
35970SOL    HW2 9743   1.687   2.459   4.447
35971SOL     OW 9744  10.807   1.595  11.996
35971SOL    HW1 9745  10.721   1.636  11.983
35971SOL    HW2 9746  10.795   1.505  11.966
35972SOL     OW 9747   6.047  11.374   5.423
35972SOL    HW1 9748   6.018  11.451   5.374
35972SOL    HW2 9749   6.068  11.407   5.510
35973SOL     OW 9750   4.676   6.373   4.807
35973SOL    HW1 9751   4.735   6.409   4.740
35973SOL    HW2 9752   4.725   6.300   4.845
35974SOL     OW 9753   3.017   1.880  12.528
35974SOL    HW1 9754   3.030   1.812  12.594
35974SOL    HW2 9755   2.992   1.958  12.578
35975SOL     OW 9756   4.166  12.341   2.257
35975SOL    HW1 9757   4.193  12.311   2.343
35975SOL    HW2 9758   4.204  12.428   2.248
35976SOL     OW 9759   7.984  12.734   3.007
35976SOL    HW1 9760   7.905  12.709   3.054
35976SOL    HW2 9761   7.956  12.743   2.915
35977SOL     OW 9762  10.484   5.697  13.853
35977SOL    HW1 9763  10.551   5.628  13.860
35977SOL    HW2 9764  10.476   5.714  13.759
35978SOL     OW 9765  12.725  14.679   4.550
35978SOL    HW1 9766  12.717  14.630   4.468
35978SOL    HW2 9767  12.800  14.640   4.594
35979SOL     OW 9768   5.563   2.417   1.902
35979SOL    HW1 9769   5.556   2.385   1.812
35979SOL    HW2 9770   5.539   2.342   1.956
35980SOL     OW 9771   4.185  13.621   1.972
35980SOL    HW1 9772   4.271  13.664   1.975
35980SOL    HW2 9773   4.136  13.670   1.907
35981SOL     OW 9774   3.283   8.502   1.548
35981SOL    HW1 9775   3.264   8.434   1.483
35981SOL    HW2 9776   3.206   8.559   1.546
35982SOL     OW 9777   0.659   5.351   3.850
35982SOL    HW1 9778   0.667   5.436   3.894
35982SOL    HW2 9779   0.656   5.372   3.757
35983SOL     OW 9780   7.743  10.785  11.815
35983SOL    HW1 9781   7.666  10.742  11.779
35983SOL    HW2 9782   7.812  10.718  11.812
35984SOL     OW 9783   4.501   7.098  13.772
35984SOL    HW1 9784   4.554   7.171  13.806
35984SOL    HW2 9785   4.528   7.088  13.681
35985SOL     OW 9786   8.585   0.311   3.141
35985SOL    HW1 9787   8.570   0.295   3.234
35985SOL    HW2 9788   8.612   0.226   3.105
35986SOL     OW 9789   2.050   7.795   7.327
35986SOL    HW1 9790   1.965   7.816   7.288
35986SOL    HW2 9791   2.040   7.817   7.420
35987SOL     OW 9792   7.051  14.300   5.565
35987SOL    HW1 9793   6.969  14.267   5.603
35987SOL    HW2 9794   7.024  14.378   5.517
35988SOL     OW 9795  11.995  13.869   0.812
35988SOL    HW1 9796  11.950  13.810   0.872
35988SOL    HW2 9797  12.019  13.813   0.737
35989SOL     OW 9798   9.005   7.001  10.450
35989SOL    HW1 9799   9.048   7.066  10.505
35989SOL    HW2 9800   8.925   6.978  10.498
35990SOL     OW 9801  11.547   9.791  11.043
35990SOL    HW1 9802  11.612   9.725  11.066
35990SOL    HW2 9803  11.560   9.806  10.950
35991SOL     OW 9804   3.682   7.972   2.465
35991SOL    HW1 9805   3.640   7.890   2.491
35991SOL    HW2 9806   3.775   7.958   2.485
35992SOL     OW 9807  13.666  14.365  12.775
35992SOL    HW1 9808  13.732  14.321  12.829
35992SOL    HW2 9809  13.599  14.394  12.837
35993SOL     OW 9810   3.122   2.479   7.898
35993SOL    HW1 9811   3.062   2.527   7.840
35993SOL    HW2 9812   3.085   2.391   7.903
35994SOL     OW 9813  14.220   9.013  13.896
35994SOL    HW1 9814  14.245   9.093  13.851
35994SOL    HW2 9815  14.303   8.968  13.914
35995SOL     OW 9816   4.686   7.906   0.181
35995SOL    HW1 9817   4.628   7.971   0.221
35995SOL    HW2 9818   4.627   7.847   0.133
35996SOL     OW 9819   7.698   5.563  14.454
35996SOL    HW1 9820   7.638   5.490  14.468
35996SOL    HW2 9821   7.648   5.641  14.477
35997SOL     OW 9822  12.462   4.790   4.597
35997SOL    HW1 9823  12.457   4.758   4.507
35997SOL    HW2 9824  12.496   4.880   4.588
35998SOL     OW 9825   4.649   2.593  13.729
35998SOL    HW1 9826   4.717   2.655  13.703
35998SOL    HW2 9827   4.586   2.596  13.658
35999SOL     OW 9828   5.814   1.907   9.408
35999SOL    HW1 9829   5.792   1.899   9.501
35999SOL    HW2 9830   5.907   1.885   9.403
36000SOL     OW 9831   1.307  10.912   4.292
36000SOL    HW1 9832   1.326  10.844   4.357
36000SOL    HW2 9833   1.317  10.994   4.341
36001SOL     OW 9834   5.998   1.974   9.037
36001SOL    HW1 9835   6.049   2.053   9.057
36001SOL    HW2 9836   5.993   1.972   8.941
36002SOL     OW 9837   7.403   1.363   3.149
36002SOL    HW1 9838   7.340   1.388   3.217
36002SOL    HW2 9839   7.461   1.301   3.193
36003SOL     OW 9840  12.058  13.256  11.718
36003SOL    HW1 9841  11.969  13.221  11.711
36003SOL    HW2 9842  12.046  13.341  11.761
36004SOL     OW 9843   2.809  14.487   4.191
36004SOL    HW1 9844   2.810  14.411   4.249
36004SOL    HW2 9845   2.718  14.518   4.194
36005SOL     OW 9846   8.768   6.155  14.852
36005SOL    HW1 9847   8.800   6.072  14.814
36005SOL    HW2 9848   8.809   6.223  14.799
36006SOL     OW 9849  12.346   4.748   4.310
36006SOL    HW1 9850  12.392   4.817   4.263
36006SOL    HW2 9851  12.328   4.682   4.243
36007SOL     OW 9852   0.667   2.991  13.132
36007SOL    HW1 9853   0.591   2.957  13.085
36007SOL    HW2 9854   0.673   3.083  13.105
36008SOL     OW 9855   5.765   2.991   3.985
36008SOL    HW1 9856   5.782   3.059   4.051
36008SOL    HW2 9857   5.752   3.039   3.904
36009SOL     OW 9858   2.134  12.014  12.780
36009SOL    HW1 9859   2.131  11.961  12.860
36009SOL    HW2 9860   2.079  12.090  12.800
36010SOL     OW 9861   7.617   1.816   9.181
36010SOL    HW1 9862   7.642   1.822   9.088
36010SOL    HW2 9863   7.700   1.802   9.227
36011SOL     OW 9864   7.346   1.468   3.405
36011SOL    HW1 9865   7.382   1.382   3.383
36011SOL    HW2 9866   7.296   1.453   3.485
36012SOL     OW 9867   3.569   1.568   0.983
36012SOL    HW1 9868   3.499   1.517   1.025
36012SOL    HW2 9869   3.522   1.635   0.933
36013SOL     OW 9870   9.120   9.546   5.330
36013SOL    HW1 9871   9.110   9.617   5.393
36013SOL    HW2 9872   9.179   9.484   5.372
36014SOL     OW 9873   0.958  11.681   2.541
36014SOL    HW1 9874   1.038  11.732   2.527
36014SOL    HW2 9875   0.887  11.739   2.510
36015SOL     OW 9876  12.574  13.352   8.327
36015SOL    HW1 9877  12.626  13.324   8.403
36015SOL    HW2 9878  12.507  13.284   8.317
36016SOL     OW 9879   7.649   2.635  13.110
36016SOL    HW1 9880   7.638   2.617  13.017
36016SOL    HW2 9881   7.741   2.662  13.119
36017SOL     OW 9882   7.888   2.184   1.094
36017SOL    HW1 9883   7.878   2.279   1.103
36017SOL    HW2 9884   7.964   2.162   1.147
36018SOL     OW 9885   1.505   1.715  11.093
36018SOL    HW1 9886   1.514   1.634  11.042
36018SOL    HW2 9887   1.488   1.685  11.182
36019SOL     OW 9888   5.696   9.074  10.390
36019SOL    HW1 9889   5.779   9.087  10.436
36019SOL    HW2 9890   5.634   9.130  10.437
36020SOL     OW 9891   5.677   8.202   1.355
36020SOL    HW1 9892   5.658   8.197   1.261
36020SOL    HW2 9893   5.592   8.188   1.397
36021SOL     OW 9894   9.016   6.839   9.425
36021SOL    HW1 9895   8.999   6.753   9.463
36021SOL    HW2 9896   9.068   6.885   9.490
36022SOL     OW 9897   1.897   9.322   6.135
36022SOL    HW1 9898   1.957   9.330   6.209
36022SOL    HW2 9899   1.810   9.325   6.174
36023SOL     OW 9900   0.916   8.732   0.005
36023SOL    HW1 9901   0.920   8.646   0.048
36023SOL    HW2 9902   0.895   8.711  14.786
36024SOL     OW 9903   8.366   4.561   3.172
36024SOL    HW1 9904   8.286   4.509   3.171
36024SOL    HW2 9905   8.354   4.624   3.101
36025SOL     OW 9906   1.715   4.663   2.424
36025SOL    HW1 9907   1.666   4.745   2.434
36025SOL    HW2 9908   1.744   4.664   2.333
36026SOL     OW 9909   6.314  12.719  10.490
36026SOL    HW1 9910   6.293  12.628  10.469
36026SOL    HW2 9911   6.407  12.727  10.473
36027SOL     OW 9912   5.655   8.665   6.101
36027SOL    HW1 9913   5.738   8.670   6.054
36027SOL    HW2 9914   5.678   8.632   6.187
36028SOL     OW 9915  13.242   8.624   1.314
36028SOL    HW1 9916  13.170   8.633   1.252
36028SOL    HW2 9917  13.312   8.582   1.264
36029SOL     OW 9918   5.224   1.152  11.099
36029SOL    HW1 9919   5.217   1.057  11.089
36029SOL    HW2 9920   5.177   1.172  11.180
36030SOL     OW 9921   7.205   3.278   4.964
36030SOL    HW1 9922   7.117   3.253   4.937
36030SOL    HW2 9923   7.195   3.310   5.053
36031SOL     OW 9924   3.680  14.289  10.546
36031SOL    HW1 9925   3.604  14.339  10.577
36031SOL    HW2 9926   3.743  14.295  10.617
36032SOL     OW 9927   5.641   3.076   5.719
36032SOL    HW1 9928   5.614   3.031   5.799
36032SOL    HW2 9929   5.621   3.014   5.649
36033SOL     OW 9930  12.273   9.344   1.527
36033SOL    HW1 9931  12.363   9.365   1.502
36033SOL    HW2 9932  12.249   9.410   1.592
36034SOL     OW 9933  12.496   0.420  10.911
36034SOL    HW1 9934  12.480   0.391  11.000
36034SOL    HW2 9935  12.442   0.499  10.902
36035SOL     OW 9936   4.692  12.753   1.733
36035SOL    HW1 9937   4.672  12.683   1.670
36035SOL    HW2 9938   4.612  12.762   1.785
36036SOL     OW 9939   9.121  12.037  12.780
36036SOL    HW1 9940   9.121  12.079  12.694
36036SOL    HW2 9941   9.164  11.953  12.765
36037SOL     OW 9942   1.523   5.013  11.660
36037SOL    HW1 9943   1.600   4.961  11.641
36037SOL    HW2 9944   1.498   4.988  11.749
36038SOL     OW 9945   6.073  12.154  14.662
36038SOL    HW1 9946   6.103  12.245  14.660
36038SOL    HW2 9947   5.983  12.158  14.629
36039SOL     OW 9948   0.619  14.623   6.437
36039SOL    HW1 9949   0.555  14.556   6.458
36039SOL    HW2 9950   0.671  14.585   6.366
36040SOL     OW 9951  12.836   5.999   9.946
36040SOL    HW1 9952  12.785   6.075   9.920
36040SOL    HW2 9953  12.779   5.949  10.004
36041SOL     OW 9954  11.672   1.662  12.021
36041SOL    HW1 9955  11.630   1.578  11.998
36041SOL    HW2 9956  11.758   1.657  11.979
36042SOL     OW 9957   9.085  13.004  11.808
36042SOL    HW1 9958   8.999  13.045  11.796
36042SOL    HW2 9959   9.088  12.934  11.744
36043SOL     OW 9960   5.805  10.463  12.121
36043SOL    HW1 9961   5.843  10.427  12.041
36043SOL    HW2 9962   5.869  10.445  12.189
36044SOL     OW 9963   2.619   9.379  11.554
36044SOL    HW1 9964   2.713   9.367  11.539
36044SOL    HW2 9965   2.596   9.311  11.618
36045SOL     OW 9966  14.310   9.371   9.252
36045SOL    HW1 9967  14.354   9.332   9.176
36045SOL    HW2 9968  14.377   9.373   9.320
36046SOL     OW 9969   5.720   9.904   0.918
36046SOL    HW1 9970   5.637   9.948   0.897
36046SOL    HW2 9971   5.735   9.845   0.843
36047SOL     OW 9972   8.961   1.111  10.290
36047SOL    HW1 9973   9.041   1.138  10.336
36047SOL    HW2 9974   8.892   1.163  10.330
36048SOL     OW 9975   5.879   7.449   1.191
36048SOL    HW1 9976   5.808   7.415   1.244
36048SOL    HW2 9977   5.886   7.541   1.216
36049SOL     OW 9978   3.269   4.716   2.819
36049SOL    HW1 9979   3.322   4.785   2.778
36049SOL    HW2 9980   3.326   4.678   2.885
36050SOL     OW 9981   1.680  13.320   5.033
36050SOL    HW1 9982   1.643  13.408   5.031
36050SOL    HW2 9983   1.643  13.280   5.111
36051SOL     OW 9984   1.968  12.610   7.052
36051SOL    HW1 9985   2.034  12.586   6.987
36051SOL    HW2 9986   1.909  12.669   7.006
36052SOL     OW 9987   3.648   7.309   4.314
36052SOL    HW1 9988   3.632   7.308   4.409
36052SOL    HW2 9989   3.644   7.402   4.290
36053SOL     OW 9990   7.031  13.747   7.037
36053SOL    HW1 9991   7.110  13.767   7.089
36053SOL    HW2 9992   6.961  13.796   7.082
36054SOL     OW 9993   5.641  10.864   4.734
36054SOL    HW1 9994   5.681  10.805   4.798
36054SOL    HW2 9995   5.636  10.949   4.778
36055SOL     OW 9996  11.621   1.325   7.357
36055SOL    HW1 9997  11.621   1.285   7.270
36055SOL    HW2 9998  11.577   1.261   7.413
36056SOL     OW 9999   6.387  10.042  10.423
36056SOL    HW110000   6.339  10.122  10.403
36056SOL    HW210001   6.332   9.972  10.388
36057SOL     OW10002   8.392   7.833   0.173
36057SOL    HW110003   8.438   7.757   0.135
36057SOL    HW210004   8.348   7.798   0.250
36058SOL     OW10005  11.773  14.129   2.260
36058SOL    HW110006  11.699  14.101   2.206
36058SOL    HW210007  11.774  14.224   2.250
36059SOL     OW10008   2.597   7.696   6.459
36059SOL    HW110009   2.603   7.621   6.399
36059SOL    HW210010   2.594   7.656   6.546
36060SOL     OW10011   5.555  13.944   2.507
36060SOL    HW110012   5.606  14.025   2.511
36060SOL    HW210013   5.621  13.875   2.501
36061SOL     OW10014   4.939   2.961  10.394
36061SOL    HW110015   5.032   2.983  10.389
36061SOL    HW210016   4.919   2.963  10.488
36062SOL     OW10017  13.741   3.827   1.045
36062SOL    HW110018  13.692   3.870   0.974
36062SOL    HW210019  13.833   3.839   1.022
36063SOL     OW10020   3.884   6.016   6.557
36063SOL    HW110021   3.900   6.073   6.481
36063SOL    HW210022   3.838   6.072   6.619
36064SOL     OW10023   8.226   2.856   8.132
36064SOL    HW110024   8.207   2.778   8.080
36064SOL    HW210025   8.294   2.828   8.193
36065SOL     OW10026   7.112   7.545  11.960
36065SOL    HW110027   7.182   7.495  12.001
36065SOL    HW210028   7.133   7.542  11.866
36066SOL     OW10029   4.892   2.945  12.564
36066SOL    HW110030   4.933   2.997  12.633
36066SOL    HW210031   4.818   2.902  12.607
36067SOL     OW10032   7.101   0.855   5.017
36067SOL    HW110033   7.035   0.819   5.076
36067SOL    HW210034   7.179   0.803   5.034
36068SOL     OW10035   1.386  10.969  12.748
36068SOL    HW110036   1.338  11.034  12.697
36068SOL    HW210037   1.344  10.886  12.726
36069SOL     OW10038   4.374  12.337  13.832
36069SOL    HW110039   4.397  12.247  13.808
36069SOL    HW210040   4.349  12.332  13.924
36070SOL     OW10041  13.715   8.494   9.175
36070SOL    HW110042  13.696   8.436   9.248
36070SOL    HW210043  13.668   8.457   9.101
36071SOL     OW10044  14.030   8.215   6.521
36071SOL    HW110045  13.981   8.164   6.457
36071SOL    HW210046  13.964   8.269   6.565
36072SOL     OW10047   3.085  10.485  11.555
36072SOL    HW110048   3.043  10.406  11.520
36072SOL    HW210049   3.124  10.528  11.479
36073SOL     OW10050   5.528   2.327   6.550
36073SOL    HW110051   5.538   2.253   6.611
36073SOL    HW210052   5.437   2.356   6.563
36074SOL     OW10053   8.005  13.198  10.120
36074SOL    HW110054   8.002  13.292  10.100
36074SOL    HW210055   8.073  13.163  10.063
36075SOL     OW10056   6.841   1.849   0.621
36075SOL    HW110057   6.752   1.821   0.645
36075SOL    HW210058   6.895   1.770   0.634
36076SOL     OW10059   1.140  13.551   4.331
36076SOL    HW110060   1.112  13.499   4.407
36076SOL    HW210061   1.100  13.507   4.256
36077SOL     OW10062   0.302   2.679   1.881
36077SOL    HW110063   0.313   2.597   1.834
36077SOL    HW210064   0.207   2.689   1.891
36078SOL     OW10065   0.006   1.463   1.480
36078SOL    HW110066   0.037   1.456   1.390
36078SOL    HW210067  14.785   1.484   1.472
36079SOL     OW10068   4.556  12.596   2.138
36079SOL    HW110069   4.607  12.665   2.180
36079SOL    HW210070   4.567  12.611   2.044
36080SOL     OW10071   8.966   5.171   0.657
36080SOL    HW110072   8.899   5.107   0.632
36080SOL    HW210073   9.047   5.120   0.663
36081SOL     OW10074  11.680   8.908   9.375
36081SOL    HW110075  11.683   8.816   9.402
36081SOL    HW210076  11.697   8.957   9.455
36082SOL     OW10077  12.326  10.812   2.106
36082SOL    HW110078  12.250  10.777   2.059
36082SOL    HW210079  12.355  10.886   2.053
36083SOL     OW10080  10.823   1.136   2.015
36083SOL    HW110081  10.801   1.073   2.083
36083SOL    HW210082  10.788   1.219   2.047
36084SOL     OW10083  11.543   3.850   4.827
36084SOL    HW110084  11.576   3.761   4.844
36084SOL    HW210085  11.471   3.861   4.889
36085SOL     OW10086   3.781  11.796   4.466
36085SOL    HW110087   3.857  11.852   4.459
36085SOL    HW210088   3.816  11.707   4.471
36086SOL     OW10089  13.707   3.090  11.873
36086SOL    HW110090  13.636   3.060  11.816
36086SOL    HW210091  13.705   3.030  11.948
36087SOL     OW10092  13.340   5.919   9.802
36087SOL    HW110093  13.303   5.877   9.880
36087SOL    HW210094  13.331   5.853   9.733
36088SOL     OW10095   0.323   7.474   0.093
36088SOL    HW110096   0.393   7.437   0.039
36088SOL    HW210097   0.247   7.421   0.073
36089SOL     OW10098  12.708  14.762  11.758
36089SOL    HW110099  12.747  14.836  11.805
36089SOL    HW210100  12.779  14.699  11.751
36090SOL     OW10101  11.663   1.814   2.460
36090SOL    HW110102  11.673   1.882   2.527
36090SOL    HW210103  11.752   1.796   2.431
36091SOL     OW10104   9.641   0.083  13.709
36091SOL    HW110105   9.581   0.126  13.648
36091SOL    HW210106   9.644   0.140  13.785
36092SOL     OW10107   4.497  10.691   0.390
36092SOL    HW110108   4.410  10.727   0.409
36092SOL    HW210109   4.532  10.666   0.476
36093SOL     OW10110  10.855  13.297   8.314
36093SOL    HW110111  10.914  13.292   8.389
36093SOL    HW210112  10.776  13.252   8.343
36094SOL     OW10113  14.261   7.335  14.066
36094SOL    HW110114  14.328   7.356  14.132
36094SOL    HW210115  14.312   7.302  13.991
36095SOL     OW10116   7.288  12.501   7.466
36095SOL    HW110117   7.251  12.444   7.399
36095SOL    HW210118   7.228  12.495   7.540
36096SOL     OW10119   4.127  13.363  10.491
36096SOL    HW110120   4.187  13.330  10.424
36096SOL    HW210121   4.170  13.441  10.526
36097SOL     OW10122   2.141  14.055  13.100
36097SOL    HW110123   2.097  14.048  13.015
36097SOL    HW210124   2.212  13.992  13.095
36098SOL     OW10125   0.193  14.069   4.976
36098SOL    HW110126   0.269  14.037   4.928
36098SOL    HW210127   0.225  14.146   5.023
36099SOL     OW10128   7.069  14.524   0.952
36099SOL    HW110129   7.005  14.457   0.927
36099SOL    HW210130   7.056  14.536   1.046
36100SOL     OW10131  10.141   6.074  14.685
36100SOL    HW110132  10.080   6.031  14.625
36100SOL    HW210133  10.155   6.011  14.755
36101SOL     OW10134   4.617   6.763  11.047
36101SOL    HW110135   4.625   6.719  11.131
36101SOL    HW210136   4.704   6.755  11.008
36102SOL     OW10137   3.413  13.391  10.922
36102SOL    HW110138   3.407  13.296  10.921
36102SOL    HW210139   3.483  13.412  10.861
36103SOL     OW10140   3.602  11.818   9.348
36103SOL    HW110141   3.515  11.778   9.339
36103SOL    HW210142   3.648  11.792   9.268
36104SOL     OW10143  11.321  12.678  14.472
36104SOL    HW110144  11.238  12.700  14.429
36104SOL    HW210145  11.387  12.689  14.404
36105SOL     OW10146   3.484  11.205  12.069
36105SOL    HW110147   3.530  11.139  12.121
36105SOL    HW210148   3.428  11.154  12.010
36106SOL     OW10149  10.946  14.854  10.645
36106SOL    HW110150  10.915  14.830  10.732
36106SOL    HW210151  10.998   0.061  10.659
36107SOL     OW10152  12.449   5.329  12.345
36107SOL    HW110153  12.488   5.356  12.262
36107SOL    HW210154  12.360   5.364  12.342
36108SOL     OW10155   7.044   0.960   9.735
36108SOL    HW110156   7.092   0.879   9.753
36108SOL    HW210157   7.008   0.986   9.820
36109SOL     OW10158   4.798  12.116   8.737
36109SOL    HW110159   4.890  12.137   8.728
36109SOL    HW210160   4.796  12.022   8.757
36110SOL     OW10161  13.914   8.543  11.420
36110SOL    HW110162  13.964   8.487  11.361
36110SOL    HW210163  13.833   8.495  11.438
36111SOL     OW10164   5.611   3.343  12.930
36111SOL    HW110165   5.574   3.431  12.942
36111SOL    HW210166   5.537   3.289  12.904
36112SOL     OW10167   3.036   4.955   8.895
36112SOL    HW110168   3.003   4.998   8.974
36112SOL    HW210169   3.131   4.966   8.899
36113SOL     OW10170   0.848   6.751  10.852
36113SOL    HW110171   0.868   6.657  10.854
36113SOL    HW210172   0.833   6.770  10.759
36114SOL     OW10173   4.341  11.423   6.000
36114SOL    HW110174   4.248  11.441   5.995
36114SOL    HW210175   4.358  11.409   6.093
36115SOL     OW10176   7.191   3.094   6.055
36115SOL    HW110177   7.207   3.036   6.130
36115SOL    HW210178   7.249   3.169   6.069
36116SOL     OW10179   9.957  14.486   0.406
36116SOL    HW110180   9.884  14.433   0.437
36116SOL    HW210181   9.918  14.570   0.382
36117SOL     OW10182   5.830   9.265   5.691
36117SOL    HW110183   5.788   9.247   5.775
36117SOL    HW210184   5.872   9.183   5.667
36118SOL     OW10185   0.796  13.311   3.025
36118SOL    HW110186   0.748  13.393   3.039
36118SOL    HW210187   0.779  13.260   3.104
36119SOL     OW10188   0.576   6.070  10.714
36119SOL    HW110189   0.649   6.087  10.654
36119SOL    HW210190   0.560   5.976  10.706
36120SOL     OW10191  14.164  13.168  14.539
36120SOL    HW110192  14.095  13.116  14.580
36120SOL    HW210193  14.132  13.184  14.450
36121SOL     OW10194   3.056   0.964   7.872
36121SOL    HW110195   3.111   0.975   7.950
36121SOL    HW210196   3.012   0.880   7.885
36122SOL     OW10197   8.508   7.963   6.664
36122SOL    HW110198   8.552   7.883   6.694
36122SOL    HW210199   8.514   8.022   6.739
36123SOL     OW10200   1.541   1.153   1.967
36123SOL    HW110201   1.501   1.096   2.033
36123SOL    HW210202   1.550   1.097   1.890
36124SOL     OW10203   3.932  12.128  12.775
36124SOL    HW110204   3.901  12.075  12.848
36124SOL    HW210205   3.853  12.158  12.731
36125SOL     OW10206  10.884   3.803  13.598
36125SOL    HW110207  10.968   3.763  13.575
36125SOL    HW210208  10.819   3.738  13.574
36126SOL     OW10209  10.380  11.942   8.738
36126SOL    HW110210  10.340  11.863   8.774
36126SOL    HW210211  10.387  11.925   8.644
36127SOL     OW10212  10.997   9.173   8.674
36127SOL    HW110213  10.940   9.207   8.605
36127SOL    HW210214  10.977   9.227   8.751
36128SOL     OW10215   6.714   8.719   7.296
36128SOL    HW110216   6.688   8.806   7.325
36128SOL    HW210217   6.781   8.691   7.358
36129SOL     OW10218   3.403   8.665   1.200
36129SOL    HW110219   3.348   8.696   1.272
36129SOL    HW210220   3.360   8.586   1.169
36130SOL     OW10221   8.916   9.855   1.021
36130SOL    HW110222   8.848   9.894   0.965
36130SOL    HW210223   8.883   9.769   1.044
36131SOL     OW10224  12.943  10.763   1.709
36131SOL    HW110225  12.890  10.814   1.770
36131SOL    HW210226  12.893  10.765   1.627
36132SOL     OW10227   0.310   9.680   9.772
36132SOL    HW110228   0.328   9.620   9.844
36132SOL    HW210229   0.219   9.661   9.748
36133SOL     OW10230   3.863  11.398   9.959
36133SOL    HW110231   3.888  11.306   9.966
36133SOL    HW210232   3.767  11.397   9.962
36134SOL     OW10233   5.727  10.601   1.960
36134SOL    HW110234   5.706  10.517   2.001
36134SOL    HW210235   5.690  10.666   2.018
36135SOL     OW10236  11.574  10.164  12.857
36135SOL    HW110237  11.561  10.079  12.815
36135SOL    HW210238  11.572  10.227  12.785
36136SOL     OW10239   5.464  11.472   3.000
36136SOL    HW110240   5.524  11.448   3.071
36136SOL    HW210241   5.419  11.390   2.978
36137SOL     OW10242   5.339   0.119  13.232
36137SOL    HW110243   5.321   0.073  13.314
36137SOL    HW210244   5.312   0.058  13.163
36138SOL     OW10245   7.682   6.443  14.426
36138SOL    HW110246   7.689   6.389  14.347
36138SOL    HW210247   7.700   6.382  14.498
36139SOL     OW10248  13.394   8.076   2.140
36139SOL    HW110249  13.485   8.088   2.164
36139SOL    HW210250  13.374   8.152   2.084
36140SOL     OW10251   7.391   4.031  10.902
36140SOL    HW110252   7.407   3.945  10.940
36140SOL    HW210253   7.478   4.070  10.894
36141SOL     OW10254   3.973  13.804   2.511
36141SOL    HW110255   4.021  13.721   2.507
36141SOL    HW210256   3.903  13.794   2.446
36142SOL     OW10257   0.526   2.404  10.405
36142SOL    HW110258   0.444   2.367  10.372
36142SOL    HW210259   0.593   2.343  10.374
36143SOL     OW10260   0.887   6.580   4.075
36143SOL    HW110261   0.931   6.499   4.048
36143SOL    HW210262   0.919   6.595   4.164
36144SOL     OW10263  12.172   1.729  10.750
36144SOL    HW110264  12.202   1.654  10.698
36144SOL    HW210265  12.104   1.770  10.697
36145SOL     OW10266   7.886  10.542   1.219
36145SOL    HW110267   7.917  10.453   1.199
36145SOL    HW210268   7.880  10.584   1.133
36146SOL     OW10269   2.437  12.001  12.729
36146SOL    HW110270   2.374  12.061  12.768
36146SOL    HW210271   2.466  11.946  12.802
36147SOL     OW10272   0.580   4.066  14.287
36147SOL    HW110273   0.619   4.066  14.200
36147SOL    HW210274   0.547   3.977  14.299
36148SOL     OW10275   6.264   9.307   4.325
36148SOL    HW110276   6.348   9.262   4.312
36148SOL    HW210277   6.203   9.237   4.349
36149SOL     OW10278  12.461   0.808   6.121
36149SOL    HW110279  12.548   0.768   6.121
36149SOL    HW210280  12.445   0.830   6.212
36150SOL     OW10281  14.117   8.918  11.867
36150SOL    HW110282  14.109   8.986  11.800
36150SOL    HW210283  14.055   8.850  11.840
36151SOL     OW10284   7.822   3.250   9.962
36151SOL    HW110285   7.829   3.165  10.006
36151SOL    HW210286   7.876   3.309  10.013
36152SOL     OW10287  11.149   4.397   8.237
36152SOL    HW110288  11.208   4.322   8.236
36152SOL    HW210289  11.062   4.359   8.246
36153SOL     OW10290  11.704   9.494   6.707
36153SOL    HW110291  11.614   9.501   6.677
36153SOL    HW210292  11.757   9.526   6.634
36154SOL     OW10293  14.500   7.487   0.755
36154SOL    HW110294  14.448   7.522   0.683
36154SOL    HW210295  14.452   7.408   0.783
36155SOL     OW10296  13.475  12.827   5.725
36155SOL    HW110297  13.528  12.806   5.802
36155SOL    HW210298  13.385  12.825   5.756
36156SOL     OW10299  11.730  14.743   3.555
36156SOL    HW110300  11.736  14.753   3.460
36156SOL    HW210301  11.690  14.824   3.586
36157SOL     OW10302  10.731   3.161   1.951
36157SOL    HW110303  10.680   3.086   1.920
36157SOL    HW210304  10.820   3.142   1.924
36158SOL     OW10305  13.054   9.267   6.631
36158SOL    HW110306  13.044   9.227   6.718
36158SOL    HW210307  13.088   9.355   6.650
36159SOL     OW10308  12.327   2.733   6.329
36159SOL    HW110309  12.333   2.809   6.271
36159SOL    HW210310  12.413   2.691   6.323
36160SOL     OW10311   9.278   0.622   3.135
36160SOL    HW110312   9.322   0.705   3.119
36160SOL    HW210313   9.226   0.636   3.214
36161SOL     OW10314   0.495   6.136  11.842
36161SOL    HW110315   0.412   6.172  11.874
36161SOL    HW210316   0.562   6.195  11.876
36162SOL     OW10317  10.902  10.698  10.962
36162SOL    HW110318  10.920  10.624  10.904
36162SOL    HW210319  10.836  10.665  11.024
36163SOL     OW10320  10.047  10.929   6.377
36163SOL    HW110321  10.142  10.945   6.378
36163SOL    HW210322  10.037  10.844   6.419
36164SOL     OW10323   6.293   9.254  10.784
36164SOL    HW110324   6.275   9.167  10.748
36164SOL    HW210325   6.257   9.251  10.873
36165SOL     OW10326   2.954   9.928   8.362
36165SOL    HW110327   3.043   9.957   8.379
36165SOL    HW210328   2.959   9.882   8.279
36166SOL     OW10329   1.889   3.769  13.712
36166SOL    HW110330   1.820   3.822  13.673
36166SOL    HW210331   1.848   3.684  13.729
36167SOL     OW10332  12.116   0.537   1.031
36167SOL    HW110333  12.113   0.613   0.974
36167SOL    HW210334  12.191   0.486   1.001
36168SOL     OW10335  10.170   8.384   1.199
36168SOL    HW110336  10.147   8.477   1.195
36168SOL    HW210337  10.264   8.384   1.220
36169SOL     OW10338   0.600   0.757  13.257
36169SOL    HW110339   0.663   0.704  13.209
36169SOL    HW210340   0.607   0.844  13.219
36170SOL     OW10341  12.334  10.039   5.229
36170SOL    HW110342  12.354  10.119   5.180
36170SOL    HW210343  12.416  10.018   5.274
36171SOL     OW10344   9.268   0.781   0.440
36171SOL    HW110345   9.201   0.757   0.503
36171SOL    HW210346   9.302   0.865   0.472
36172SOL     OW10347   2.980   0.094   9.530
36172SOL    HW110348   3.012   0.184   9.528
36172SOL    HW210349   2.941   0.084   9.617
36173SOL     OW10350   0.868  10.032  10.894
36173SOL    HW110351   0.878   9.942  10.860
36173SOL    HW210352   0.775  10.038  10.916
36174SOL     OW10353   9.691   3.455   5.943
36174SOL    HW110354   9.776   3.411   5.930
36174SOL    HW210355   9.712   3.532   5.996
36175SOL     OW10356  11.462   1.067  10.765
36175SOL    HW110357  11.479   1.136  10.700
36175SOL    HW210358  11.516   1.091  10.840
36176SOL     OW10359  11.071   0.551   3.371
36176SOL    HW110360  11.058   0.641   3.340
36176SOL    HW210361  11.045   0.496   3.297
36177SOL     OW10362   4.189   9.506  12.631
36177SOL    HW110363   4.280   9.536  12.626
36177SOL    HW210364   4.193   9.424  12.679
36178SOL     OW10365   9.182  10.953  14.212
36178SOL    HW110366   9.145  11.016  14.150
36178SOL    HW210367   9.276  10.957  14.197
36179SOL     OW10368   3.263   1.771   5.445
36179SOL    HW110369   3.324   1.720   5.499
36179SOL    HW210370   3.182   1.771   5.496
36180SOL     OW10371   2.321   3.913   0.016
36180SOL    HW110372   2.293   3.851   0.084
36180SOL    HW210373   2.279   3.880  14.809
36181SOL     OW10374   7.117   0.050  10.246
36181SOL    HW110375   7.143   0.108  10.317
36181SOL    HW210376   7.162   0.086  10.169
36182SOL     OW10377   5.592   4.422   8.535
36182SOL    HW110378   5.553   4.335   8.544
36182SOL    HW210379   5.623   4.425   8.444
36183SOL     OW10380   7.244   7.348  10.507
36183SOL    HW110381   7.159   7.380  10.479
36183SOL    HW210382   7.305   7.376  10.439
36184SOL     OW10383  11.824   4.430  10.031
36184SOL    HW110384  11.896   4.487  10.060
36184SOL    HW210385  11.809   4.455   9.940
36185SOL     OW10386   4.406   9.614   2.177
36185SOL    HW110387   4.414   9.586   2.086
36185SOL    HW210388   4.490   9.593   2.217
36186SOL     OW10389   8.719  14.746  10.592
36186SOL    HW110390   8.812  14.723  10.582
36186SOL    HW210391   8.678  14.711  10.513
36187SOL     OW10392   2.820   8.395   8.438
36187SOL    HW110393   2.824   8.489   8.423
36187SOL    HW210394   2.731   8.380   8.470
36188SOL     OW10395   4.841   3.238  14.618
36188SOL    HW110396   4.850   3.150  14.582
36188SOL    HW210397   4.913   3.288  14.580
36189SOL     OW10398   0.832   2.798   7.798
36189SOL    HW110399   0.824   2.704   7.781
36189SOL    HW210400   0.767   2.839   7.741
36190SOL     OW10401   7.746   4.272   2.904
36190SOL    HW110402   7.752   4.298   2.812
36190SOL    HW210403   7.837   4.273   2.935
36191SOL     OW10404  14.176  14.244   1.671
36191SOL    HW110405  14.267  14.229   1.698
36191SOL    HW210406  14.142  14.156   1.655
36192SOL     OW10407  13.140   6.558  12.016
36192SOL    HW110408  13.201   6.512  11.958
36192SOL    HW210409  13.185   6.563  12.100
36193SOL     OW10410   5.655   4.047   3.949
36193SOL    HW110411   5.747   4.075   3.946
36193SOL    HW210412   5.619   4.090   4.027
36194SOL     OW10413   3.666   1.192   6.434
36194SOL    HW110414   3.606   1.130   6.477
36194SOL    HW210415   3.749   1.181   6.480
36195SOL     OW10416  13.530   1.388   1.354
36195SOL    HW110417  13.496   1.467   1.396
36195SOL    HW210418  13.520   1.405   1.260
36196SOL     OW10419   1.648   7.547   0.901
36196SOL    HW110420   1.666   7.631   0.860
36196SOL    HW210421   1.661   7.563   0.995
36197SOL     OW10422   9.463   2.010   6.530
36197SOL    HW110423   9.520   1.984   6.457
36197SOL    HW210424   9.376   1.982   6.503
36198SOL     OW10425   3.376   9.575  13.124
36198SOL    HW110426   3.425   9.532  13.194
36198SOL    HW210427   3.439   9.637  13.086
36199SOL     OW10428   7.843  10.827   0.381
36199SOL    HW110429   7.842  10.805   0.474
36199SOL    HW210430   7.751  10.840   0.358
36200SOL     OW10431  14.634   3.918   6.750
36200SOL    HW110432  14.686   3.858   6.697
36200SOL    HW210433  14.546   3.881   6.749
36201SOL     OW10434   9.610  11.777   4.811
36201SOL    HW110435   9.613  11.779   4.906
36201SOL    HW210436   9.700  11.759   4.784
36202SOL     OW10437   2.767   6.905   2.635
36202SOL    HW110438   2.693   6.928   2.580
36202SOL    HW210439   2.792   6.987   2.677
36203SOL     OW10440   6.816   3.680   4.849
36203SOL    HW110441   6.792   3.703   4.939
36203SOL    HW210442   6.844   3.763   4.810
36204SOL     OW10443   3.878  13.709   7.923
36204SOL    HW110444   3.945  13.737   7.861
36204SOL    HW210445   3.928  13.673   7.997
36205SOL     OW10446  13.784  13.669   2.180
36205SOL    HW110447  13.816  13.723   2.252
36205SOL    HW210448  13.798  13.579   2.209
36206SOL     OW10449   7.637  13.532   9.255
36206SOL    HW110450   7.589  13.579   9.187
36206SOL    HW210451   7.616  13.579   9.336
36207SOL     OW10452   3.156   0.573  10.408
36207SOL    HW110453   3.061   0.585  10.403
36207SOL    HW210454   3.187   0.593  10.320
36208SOL     OW10455   0.513   0.875  12.463
36208SOL    HW110456   0.548   0.798  12.420
36208SOL    HW210457   0.469   0.924  12.394
36209SOL     OW10458   4.355  11.108  14.495
36209SOL    HW110459   4.273  11.151  14.471
36209SOL    HW210460   4.374  11.049  14.423
36210SOL     OW10461  11.560  13.281  14.691
36210SOL    HW110462  11.565  13.258  14.599
36210SOL    HW210463  11.630  13.345  14.703
36211SOL     OW10464  14.091  12.160   7.710
36211SOL    HW110465  14.065  12.068   7.712
36211SOL    HW210466  14.076  12.191   7.800
36212SOL     OW10467  12.917   1.616   2.070
36212SOL    HW110468  12.857   1.644   2.140
36212SOL    HW210469  12.902   1.522   2.061
36213SOL     OW10470  10.666   1.266   0.830
36213SOL    HW110471  10.606   1.337   0.849
36213SOL    HW210472  10.712   1.294   0.751
36214SOL     OW10473   9.229   6.952   0.552
36214SOL    HW110474   9.273   6.977   0.471
36214SOL    HW210475   9.222   7.033   0.602
36215SOL     OW10476  12.495   3.632  12.825
36215SOL    HW110477  12.444   3.666  12.752
36215SOL    HW210478  12.573   3.593  12.784
36216SOL     OW10479   6.821  10.016  13.196
36216SOL    HW110480   6.824   9.933  13.148
36216SOL    HW210481   6.891  10.009  13.260
36217SOL     OW10482   0.738  11.149  11.518
36217SOL    HW110483   0.671  11.135  11.585
36217SOL    HW210484   0.688  11.167  11.438
36218SOL     OW10485   9.724  11.432   7.455
36218SOL    HW110486   9.685  11.517   7.476
36218SOL    HW210487   9.659  11.389   7.399
36219SOL     OW10488  12.408  10.515   1.722
36219SOL    HW110489  12.398  10.439   1.665
36219SOL    HW210490  12.427  10.477   1.808
36220SOL     OW10491   5.289  13.378   5.641
36220SOL    HW110492   5.201  13.390   5.606
36220SOL    HW210493   5.286  13.418   5.728
36221SOL     OW10494   1.562   6.978  13.831
36221SOL    HW110495   1.633   7.040  13.816
36221SOL    HW210496   1.603   6.903  13.874
36222SOL     OW10497   8.595  10.450  10.597
36222SOL    HW110498   8.563  10.518  10.537
36222SOL    HW210499   8.516  10.418  10.641
36223SOL     OW10500   1.141  11.688  14.361
36223SOL    HW110501   1.227  11.711  14.395
36223SOL    HW210502   1.128  11.597  14.388
36224SOL     OW10503   3.587  11.917   5.748
36224SOL    HW110504   3.549  11.956   5.669
36224SOL    HW210505   3.517  11.862   5.783
36225SOL     OW10506  13.939  14.740  10.509
36225SOL    HW110507  14.010  14.681  10.483
36225SOL    HW210508  13.872  14.681  10.544
36226SOL     OW10509   0.510   1.452   9.208
36226SOL    HW110510   0.550   1.367   9.226
36226SOL    HW210511   0.497   1.491   9.294
36227SOL     OW10512  10.707   2.965   7.797
36227SOL    HW110513  10.631   2.934   7.847
36227SOL    HW210514  10.746   3.033   7.852
36228SOL     OW10515   8.191  13.967   7.324
36228SOL    HW110516   8.189  13.873   7.338
36228SOL    HW210517   8.106  13.988   7.286
36229SOL     OW10518   2.398   6.129   4.068
36229SOL    HW110519   2.462   6.062   4.043
36229SOL    HW210520   2.418   6.203   4.010
36230SOL     OW10521   5.292   8.549   1.210
36230SOL    HW110522   5.229   8.604   1.163
36230SOL    HW210523   5.375   8.564   1.165
36231SOL     OW10524   1.712   1.133  10.318
36231SOL    HW110525   1.692   1.226  10.310
36231SOL    HW210526   1.632   1.094  10.353
36232SOL     OW10527   7.586   6.205   5.614
36232SOL    HW110528   7.504   6.240   5.648
36232SOL    HW210529   7.634   6.282   5.582
36233SOL     OW10530   6.951   7.861   5.471
36233SOL    HW110531   7.000   7.856   5.389
36233SOL    HW210532   6.977   7.782   5.519
36234SOL     OW10533   5.824  10.444   9.787
36234SOL    HW110534   5.741  10.413   9.822
36234SOL    HW210535   5.843  10.386   9.713
36235SOL     OW10536   9.884   0.547  11.610
36235SOL    HW110537   9.979   0.545  11.599
36235SOL    HW210538   9.857   0.455  11.607
36236SOL     OW10539   9.931  13.556   3.281
36236SOL    HW110540   9.916  13.592   3.368
36236SOL    HW210541   9.916  13.462   3.291
36237SOL     OW10542   1.802  14.691   5.819
36237SOL    HW110543   1.733  14.625   5.814
36237SOL    HW210544   1.865  14.664   5.753
36238SOL     OW10545  10.061   5.684   8.996
36238SOL    HW110546  10.094   5.652   8.912
36238SOL    HW210547  10.039   5.605   9.045
36239SOL     OW10548   0.339  12.651   3.669
36239SOL    HW110549   0.375  12.646   3.757
36239SOL    HW210550   0.335  12.561   3.639
36240SOL     OW10551   3.587   7.668  13.877
36240SOL    HW110552   3.616   7.579  13.896
36240SOL    HW210553   3.643   7.696  13.804
36241SOL     OW10554   0.071  13.008   6.488
36241SOL    HW110555   0.072  12.947   6.562
36241SOL    HW210556  14.852  13.010   6.459
36242SOL     OW10557   4.742   7.821   7.573
36242SOL    HW110558   4.823   7.847   7.529
36242SOL    HW210559   4.764   7.739   7.617
36243SOL     OW10560  14.352   9.537  11.195
36243SOL    HW110561  14.433   9.517  11.147
36243SOL    HW210562  14.307   9.453  11.202
36244SOL     OW10563   6.156   8.793   5.375
36244SOL    HW110564   6.235   8.780   5.322
36244SOL    HW210565   6.180   8.861   5.438
36245SOL     OW10566  10.097   6.628   5.474
36245SOL    HW110567  10.150   6.705   5.454
36245SOL    HW210568  10.156   6.571   5.524
36246SOL     OW10569   9.038   3.171  11.136
36246SOL    HW110570   9.065   3.165  11.044
36246SOL    HW210571   8.976   3.245  11.138
36247SOL     OW10572  12.548   2.776   0.258
36247SOL    HW110573  12.494   2.706   0.221
36247SOL    HW210574  12.522   2.781   0.349
36248SOL     OW10575   6.330   4.505   6.788
36248SOL    HW110576   6.322   4.528   6.881
36248SOL    HW210577   6.421   4.478   6.778
36249SOL     OW10578  10.442   2.263  13.910
36249SOL    HW110579  10.444   2.184  13.964
36249SOL    HW210580  10.508   2.249  13.843
36250SOL     OW10581   0.672   6.958  13.268
36250SOL    HW110582   0.768   6.960  13.262
36250SOL    HW210583   0.653   6.887  13.330
36251SOL     OW10584  12.738   1.733   1.437
36251SOL    HW110585  12.764   1.730   1.344
36251SOL    HW210586  12.761   1.822   1.465
36252SOL     OW10587   9.505   7.840  13.348
36252SOL    HW110588   9.423   7.791  13.344
36252SOL    HW210589   9.573   7.774  13.359
36253SOL     OW10590   1.040   8.898   3.995
36253SOL    HW110591   1.064   8.807   3.977
36253SOL    HW210592   1.108   8.949   3.951
36254SOL     OW10593  14.504   2.763  11.414
36254SOL    HW110594  14.481   2.846  11.372
36254SOL    HW210595  14.599   2.756  11.402
36255SOL     OW10596   4.167   4.816   0.601
36255SOL    HW110597   4.122   4.889   0.644
36255SOL    HW210598   4.235   4.857   0.548
36256SOL     OW10599   8.422   5.869  11.632
36256SOL    HW110600   8.416   5.820  11.714
36256SOL    HW210601   8.502   5.837  11.591
36257SOL     OW10602   8.644   3.765  13.859
36257SOL    HW110603   8.730   3.733  13.887
36257SOL    HW210604   8.600   3.689  13.823
36258SOL     OW10605  11.113  12.227   9.216
36258SOL    HW110606  11.092  12.309   9.261
36258SOL    HW210607  11.191  12.247   9.165
36259SOL     OW10608   1.197  14.645   1.368
36259SOL    HW110609   1.146  14.587   1.425
36259SOL    HW210610   1.132  14.694   1.318
36260SOL     OW10611  14.225   7.762   5.369
36260SOL    HW110612  14.134   7.792   5.364
36260SOL    HW210613  14.254   7.758   5.278
36261SOL     OW10614  14.022  11.132   1.992
36261SOL    HW110615  14.084  11.063   2.015
36261SOL    HW210616  13.983  11.102   1.910
36262SOL     OW10617   5.883   3.677   8.958
36262SOL    HW110618   5.887   3.608   8.892
36262SOL    HW210619   5.964   3.668   9.008
36263SOL     OW10620   9.679   8.676   9.770
36263SOL    HW110621   9.732   8.642   9.697
36263SOL    HW210622   9.703   8.621   9.844
36264SOL     OW10623   3.142  11.697  10.756
36264SOL    HW110624   3.143  11.679  10.661
36264SOL    HW210625   3.200  11.772  10.767
36265SOL     OW10626   5.385   0.130  10.625
36265SOL    HW110627   5.342   0.183  10.558
36265SOL    HW210628   5.431   0.194  10.680
36266SOL     OW10629  10.336   9.704   3.504
36266SOL    HW110630  10.426   9.732   3.521
36266SOL    HW210631  10.294   9.780   3.464
36267SOL     OW10632   0.744  10.119  10.153
36267SOL    HW110633   0.721  10.031  10.123
36267SOL    HW210634   0.711  10.123  10.243
36268SOL     OW10635  13.235   9.776   2.823
36268SOL    HW110636  13.304   9.710   2.830
36268SOL    HW210637  13.272   9.854   2.863
36269SOL     OW10638   1.279  10.531   3.347
36269SOL    HW110639   1.195  10.499   3.381
36269SOL    HW210640   1.310  10.593   3.414
36270SOL     OW10641   9.619  12.237   0.302
36270SOL    HW110642   9.673  12.304   0.262
36270SOL    HW210643   9.657  12.224   0.389
36271SOL     OW10644  13.848  12.529  12.640
36271SOL    HW110645  13.760  12.528  12.602
36271SOL    HW210646  13.888  12.448  12.611
36272SOL     OW10647   4.725   7.449   9.035
36272SOL    HW110648   4.664   7.521   9.047
36272SOL    HW210649   4.804   7.490   8.999
36273SOL     OW10650  11.785  14.740  12.313
36273SOL    HW110651  11.709  14.750  12.255
36273SOL    HW210652  11.859  14.728  12.253
36274SOL     OW10653   5.145  10.645  13.242
36274SOL    HW110654   5.158  10.550  13.242
36274SOL    HW210655   5.199  10.676  13.314
36275SOL     OW10656   3.995   4.662   5.722
36275SOL    HW110657   4.012   4.656   5.628
36275SOL    HW210658   4.071   4.621   5.763
36276SOL     OW10659   5.915   0.306  13.453
36276SOL    HW110660   5.840   0.337  13.503
36276SOL    HW210661   5.903   0.211  13.446
36277SOL     OW10662   9.812   7.888  10.750
36277SOL    HW110663   9.739   7.940  10.786
36277SOL    HW210664   9.797   7.888  10.656
36278SOL     OW10665   4.550  11.640   9.163
36278SOL    HW110666   4.563  11.599   9.249
36278SOL    HW210667   4.521  11.568   9.106
36279SOL     OW10668  11.623  10.592   4.574
36279SOL    HW110669  11.558  10.656   4.546
36279SOL    HW210670  11.707  10.636   4.562
36280SOL     OW10671   1.991   9.876   2.130
36280SOL    HW110672   2.030   9.789   2.140
36280SOL    HW210673   1.906   9.859   2.089
36281SOL     OW10674   9.871  10.729  11.550
36281SOL    HW110675   9.825  10.777  11.618
36281SOL    HW210676   9.836  10.640  11.556
36282SOL     OW10677  10.310   2.304   3.200
36282SOL    HW110678  10.328   2.278   3.110
36282SOL    HW210679  10.270   2.226   3.239
36283SOL     OW10680  10.932   1.535   5.699
36283SOL    HW110681  10.967   1.617   5.663
36283SOL    HW210682  10.910   1.556   5.790
36284SOL     OW10683   7.195   6.936   5.566
36284SOL    HW110684   7.277   6.970   5.530
36284SOL    HW210685   7.202   6.841   5.557
36285SOL     OW10686   2.184  11.101  11.892
36285SOL    HW110687   2.093  11.121  11.912
36285SOL    HW210688   2.216  11.178  11.846
36286SOL     OW10689  12.058   9.578   9.080
36286SOL    HW110690  12.148   9.591   9.111
36286SOL    HW210691  12.012   9.657   9.108
36287SOL     OW10692   8.424   4.443   4.608
36287SOL    HW110693   8.449   4.508   4.674
36287SOL    HW210694   8.358   4.488   4.555
36288SOL     OW10695   6.367   6.599   6.237
36288SOL    HW110696   6.296   6.662   6.222
36288SOL    HW210697   6.326   6.528   6.287
36289SOL     OW10698   3.923   7.363   5.806
36289SOL    HW110699   3.972   7.419   5.746
36289SOL    HW210700   3.898   7.421   5.879
36290SOL     OW10701  12.960   5.835   3.808
36290SOL    HW110702  13.028   5.800   3.750
36290SOL    HW210703  12.880   5.792   3.779
36291SOL     OW10704   2.207   9.159   8.215
36291SOL    HW110705   2.238   9.225   8.276
36291SOL    HW210706   2.227   9.196   8.128
36292SOL     OW10707   8.217   2.813   1.618
36292SOL    HW110708   8.248   2.723   1.626
36292SOL    HW210709   8.297   2.866   1.622
36293SOL     OW10710   4.327  11.420  14.155
36293SOL    HW110711   4.366  11.407  14.242
36293SOL    HW210712   4.381  11.368  14.096
36294SOL     OW10713  13.406  10.426   0.458
36294SOL    HW110714  13.353  10.504   0.472
36294SOL    HW210715  13.405  10.414   0.363
36295SOL     OW10716   1.464   6.284   1.901
36295SOL    HW110717   1.409   6.253   1.973
36295SOL    HW210718   1.466   6.379   1.912
36296SOL     OW10719  11.130   4.433  14.222
36296SOL    HW110720  11.189   4.435  14.147
36296SOL    HW210721  11.094   4.522  14.227
36297SOL     OW10722   0.901   8.723  14.395
36297SOL    HW110723   0.942   8.773  14.467
36297SOL    HW210724   0.973   8.703  14.336
36298SOL     OW10725   3.473  12.859   0.383
36298SOL    HW110726   3.560  12.893   0.363
36298SOL    HW210727   3.490  12.777   0.430
36299SOL     OW10728  13.273   3.503   3.179
36299SOL    HW110729  13.301   3.446   3.107
36299SOL    HW210730  13.231   3.444   3.242
36300SOL     OW10731  11.104   4.706   9.505
36300SOL    HW110732  11.131   4.619   9.534
36300SOL    HW210733  11.156   4.766   9.558
36301SOL     OW10734   2.472  13.704  10.831
36301SOL    HW110735   2.396  13.657  10.795
36301SOL    HW210736   2.501  13.760  10.759
36302SOL     OW10737  13.289   2.428   0.507
36302SOL    HW110738  13.271   2.343   0.548
36302SOL    HW210739  13.241   2.491   0.561
36303SOL     OW10740   1.541   0.472   0.387
36303SOL    HW110741   1.580   0.455   0.301
36303SOL    HW210742   1.609   0.520   0.434
36304SOL     OW10743   2.149   6.010   8.804
36304SOL    HW110744   2.222   5.950   8.815
36304SOL    HW210745   2.117   6.026   8.893
36305SOL     OW10746   5.198   8.650   9.494
36305SOL    HW110747   5.103   8.640   9.492
36305SOL    HW210748   5.216   8.700   9.573
36306SOL     OW10749   5.650  10.290   9.961
36306SOL    HW110750   5.575  10.237   9.988
36306SOL    HW210751   5.665  10.350  10.033
36307SOL     OW10752  12.589  12.868  13.180
36307SOL    HW110753  12.567  12.846  13.090
36307SOL    HW210754  12.672  12.916  13.173
36308SOL     OW10755   4.794  11.430   7.509
36308SOL    HW110756   4.702  11.456   7.505
36308SOL    HW210757   4.796  11.358   7.572
36309SOL     OW10758  13.994   5.156   1.359
36309SOL    HW110759  13.930   5.091   1.329
36309SOL    HW210760  13.968   5.174   1.449
36310SOL     OW10761   9.756   1.107   2.494
36310SOL    HW110762   9.711   1.159   2.560
36310SOL    HW210763   9.687   1.077   2.435
36311SOL     OW10764   8.269   2.661   1.318
36311SOL    HW110765   8.349   2.642   1.269
36311SOL    HW210766   8.254   2.754   1.304
36312SOL     OW10767  10.027   5.881   6.313
36312SOL    HW110768  10.094   5.919   6.255
36312SOL    HW210769  10.057   5.903   6.401
36313SOL     OW10770   6.343  11.067  13.638
36313SOL    HW110771   6.302  11.028  13.715
36313SOL    HW210772   6.432  11.087  13.668
36314SOL     OW10773   2.679   3.998  12.511
36314SOL    HW110774   2.650   3.918  12.554
36314SOL    HW210775   2.767   3.978  12.479
36315SOL     OW10776   3.296  12.577  12.072
36315SOL    HW110777   3.235  12.650  12.067
36315SOL    HW210778   3.251  12.505  12.029
36316SOL     OW10779   5.202  10.790   5.625
36316SOL    HW110780   5.226  10.699   5.605
36316SOL    HW210781   5.282  10.840   5.611
36317SOL     OW10782  10.690   6.044   3.235
36317SOL    HW110783  10.757   6.092   3.185
36317SOL    HW210784  10.734   6.020   3.317
36318SOL     OW10785   9.771   3.929   0.269
36318SOL    HW110786   9.835   3.994   0.295
36318SOL    HW210787   9.695   3.945   0.326
36319SOL     OW10788  11.395   0.449   7.595
36319SOL    HW110789  11.317   0.401   7.622
36319SOL    HW210790  11.452   0.381   7.557
36320SOL     OW10791   9.017   1.002   6.475
36320SOL    HW110792   9.095   1.050   6.449
36320SOL    HW210793   8.974   0.979   6.393
36321SOL     OW10794   9.803   4.435  11.023
36321SOL    HW110795   9.740   4.426  10.953
36321SOL    HW210796   9.839   4.347  11.036
36322SOL     OW10797  10.759  11.382   8.978
36322SOL    HW110798  10.833  11.420   9.025
36322SOL    HW210799  10.797  11.339   8.902
36323SOL     OW10800  10.224   9.919   6.600
36323SOL    HW110801  10.215   9.842   6.544
36323SOL    HW210802  10.208   9.886   6.688
36324SOL     OW10803  10.165   5.414   8.857
36324SOL    HW110804  10.072   5.398   8.869
36324SOL    HW210805  10.208   5.349   8.913
36325SOL     OW10806   4.279   2.200   8.257
36325SOL    HW110807   4.333   2.267   8.214
36325SOL    HW210808   4.338   2.158   8.319
36326SOL     OW10809   9.753   4.146   1.127
36326SOL    HW110810   9.807   4.068   1.115
36326SOL    HW210811   9.805   4.218   1.090
36327SOL     OW10812  13.576  12.991   9.506
36327SOL    HW110813  13.604  12.915   9.454
36327SOL    HW210814  13.616  13.066   9.462
36328SOL     OW10815   7.662  14.612   5.015
36328SOL    HW110816   7.572  14.643   5.010
36328SOL    HW210817   7.654  14.520   5.042
36329SOL     OW10818   6.236   5.122   9.296
36329SOL    HW110819   6.153   5.074   9.288
36329SOL    HW210820   6.272   5.123   9.208
36330SOL     OW10821  13.176   1.740   2.861
36330SOL    HW110822  13.119   1.709   2.792
36330SOL    HW210823  13.226   1.663   2.888
36331SOL     OW10824  12.992   1.146  10.670
36331SOL    HW110825  13.008   1.232  10.631
36331SOL    HW210826  13.079   1.110  10.687
36332SOL     OW10827   4.116   1.444   3.386
36332SOL    HW110828   4.105   1.386   3.462
36332SOL    HW210829   4.184   1.506   3.412
36333SOL     OW10830   7.398  13.695   0.847
36333SOL    HW110831   7.493  13.702   0.851
36333SOL    HW210832   7.373  13.650   0.928
36334SOL     OW10833  10.350  13.318   1.935
36334SOL    HW110834  10.358  13.223   1.937
36334SOL    HW210835  10.381  13.343   1.848
36335SOL     OW10836   2.630   3.180   6.352
36335SOL    HW110837   2.698   3.221   6.299
36335SOL    HW210838   2.579   3.253   6.387
36336SOL     OW10839   9.716   9.140   4.023
36336SOL    HW110840   9.680   9.201   4.087
36336SOL    HW210841   9.640   9.106   3.977
36337SOL     OW10842   8.287  10.205   6.710
36337SOL    HW110843   8.276  10.296   6.737
36337SOL    HW210844   8.335  10.165   6.782
36338SOL     OW10845  12.123   1.104   7.542
36338SOL    HW110846  12.128   1.018   7.585
36338SOL    HW210847  12.080   1.160   7.607
36339SOL     OW10848   5.222  11.995   8.609
36339SOL    HW110849   5.216  11.913   8.658
36339SOL    HW210850   5.281  11.976   8.536
36340SOL     OW10851  10.836   8.667  13.962
36340SOL    HW110852  10.792   8.595  14.007
36340SOL    HW210853  10.906   8.624  13.913
36341SOL     OW10854  14.034   5.018   6.679
36341SOL    HW110855  14.078   4.952   6.625
36341SOL    HW210856  14.002   4.969   6.755
36342SOL     OW10857   3.723   3.554   6.202
36342SOL    HW110858   3.716   3.649   6.215
36342SOL    HW210859   3.777   3.525   6.276
36343SOL     OW10860   8.935  13.416   8.662
36343SOL    HW110861   8.845  13.448   8.667
36343SOL    HW210862   8.952  13.380   8.749
36344SOL     OW10863   3.770   2.780  14.487
36344SOL    HW110864   3.755   2.862  14.535
36344SOL    HW210865   3.742   2.712  14.549
36345SOL     OW10866   4.528  10.942   0.845
36345SOL    HW110867   4.561  11.032   0.852
36345SOL    HW210868   4.436  10.952   0.821
36346SOL     OW10869   9.934   9.303  10.377
36346SOL    HW110870   9.996   9.341  10.440
36346SOL    HW210871   9.983   9.295  10.296
36347SOL     OW10872   6.115  12.623   5.561
36347SOL    HW110873   6.093  12.658   5.648
36347SOL    HW210874   6.094  12.530   5.567
36348SOL     OW10875   6.914   4.146   6.057
36348SOL    HW110876   6.858   4.097   6.117
36348SOL    HW210877   6.909   4.098   5.975
36349SOL     OW10878  13.096   7.054  11.136
36349SOL    HW110879  13.181   7.013  11.152
36349SOL    HW210880  13.068   7.084  11.223
36350SOL     OW10881  12.643   4.540  10.281
36350SOL    HW110882  12.581   4.478  10.319
36350SOL    HW210883  12.720   4.487  10.259
36351SOL     OW10884   5.086  12.340   2.731
36351SOL    HW110885   5.031  12.268   2.762
36351SOL    HW210886   5.057  12.354   2.640
36352SOL     OW10887   5.232   3.695  10.828
36352SOL    HW110888   5.229   3.732  10.916
36352SOL    HW210889   5.195   3.764  10.772
36353SOL     OW10890   8.459   8.610   5.509
36353SOL    HW110891   8.381   8.599   5.454
36353SOL    HW210892   8.527   8.636   5.447
36354SOL     OW10893  14.552   6.291   3.040
36354SOL    HW110894  14.646   6.275   3.048
36354SOL    HW210895  14.511   6.225   3.096
36355SOL     OW10896   5.898   4.200  11.767
36355SOL    HW110897   5.895   4.277  11.824
36355SOL    HW210898   5.987   4.166  11.777
36356SOL     OW10899   1.355  10.869   5.890
36356SOL    HW110900   1.322  10.908   5.971
36356SOL    HW210901   1.286  10.884   5.826
36357SOL     OW10902   7.413  12.825   9.423
36357SOL    HW110903   7.376  12.899   9.471
36357SOL    HW210904   7.447  12.863   9.342
36358SOL     OW10905  13.678   0.177   5.204
36358SOL    HW110906  13.620   0.112   5.244
36358SOL    HW210907  13.643   0.191   5.116
36359SOL     OW10908  11.913   2.158  12.761
36359SOL    HW110909  11.877   2.172  12.848
36359SOL    HW210910  11.880   2.232  12.709
36360SOL     OW10911   5.304   1.899  12.132
36360SOL    HW110912   5.299   1.805  12.148
36360SOL    HW210913   5.361   1.908  12.056
36361SOL     OW10914  12.435  11.517  11.396
36361SOL    HW110915  12.369  11.586  11.392
36361SOL    HW210916  12.446  11.499  11.490
36362SOL     OW10917  12.431  13.352   5.574
36362SOL    HW110918  12.433  13.335   5.480
36362SOL    HW210919  12.431  13.447   5.582
36363SOL     OW10920   5.338   4.742   3.502
36363SOL    HW110921   5.350   4.762   3.595
36363SOL    HW210922   5.410   4.683   3.480
36364SOL     OW10923   0.727   2.588  10.685
36364SOL    HW110924   0.745   2.495  10.704
36364SOL    HW210925   0.814   2.626  10.670
36365SOL     OW10926   9.317  14.500  10.004
36365SOL    HW110927   9.400  14.491   9.957
36365SOL    HW210928   9.250  14.489   9.937
36366SOL     OW10929  13.399   8.117  11.967
36366SOL    HW110930  13.457   8.087  11.898
36366SOL    HW210931  13.443   8.194  12.004
36367SOL     OW10932   4.635  10.384  14.101
36367SOL    HW110933   4.585  10.417  14.026
36367SOL    HW210934   4.579  10.318  14.141
36368SOL     OW10935   0.882  10.255  13.222
36368SOL    HW110936   0.866  10.348  13.236
36368SOL    HW210937   0.801  10.224  13.181
36369SOL     OW10938   3.320   1.162  13.840
36369SOL    HW110939   3.235   1.164  13.796
36369SOL    HW210940   3.369   1.094  13.794
36370SOL     OW10941  12.925   7.161   7.037
36370SOL    HW110942  12.830   7.150   7.039
36370SOL    HW210943  12.958   7.086   7.086
36371SOL     OW10944   9.178   6.125   2.382
36371SOL    HW110945   9.154   6.068   2.308
36371SOL    HW210946   9.273   6.120   2.386
36372SOL     OW10947   5.109   7.150   2.115
36372SOL    HW110948   5.081   7.230   2.071
36372SOL    HW210949   5.124   7.177   2.206
36373SOL     OW10950   3.686   9.822   2.644
36373SOL    HW110951   3.705   9.840   2.552
36373SOL    HW210952   3.690   9.908   2.686
36374SOL     OW10953   0.489   4.982  10.267
36374SOL    HW110954   0.401   4.981  10.229
36374SOL    HW210955   0.474   4.994  10.361
36375SOL     OW10956   8.474  11.520  13.374
36375SOL    HW110957   8.460  11.614  13.364
36375SOL    HW210958   8.569  11.509  13.368
36376SOL     OW10959  10.199   7.332   3.835
36376SOL    HW110960  10.292   7.355   3.828
36376SOL    HW210961  10.155   7.416   3.846
36377SOL     OW10962   4.648  10.043   4.705
36377SOL    HW110963   4.566   9.999   4.682
36377SOL    HW210964   4.641  10.130   4.664
36378SOL     OW10965   6.987   2.096  14.566
36378SOL    HW110966   7.000   2.131  14.478
36378SOL    HW210967   7.071   2.056  14.589
36379SOL     OW10968  11.353   7.057   1.064
36379SOL    HW110969  11.352   6.994   1.135
36379SOL    HW210970  11.301   7.017   0.994
36380SOL     OW10971   2.657   0.935  11.788
36380SOL    HW110972   2.592   1.001  11.814
36380SOL    HW210973   2.653   0.932  11.693
36381SOL     OW10974   3.859  10.340   9.254
36381SOL    HW110975   3.899  10.307   9.335
36381SOL    HW210976   3.772  10.301   9.253
36382SOL     OW10977   1.520   1.938   0.014
36382SOL    HW110978   1.506   1.845   0.035
36382SOL    HW210979   1.432   1.974   0.002
36383SOL     OW10980   7.370   6.305   8.661
36383SOL    HW110981   7.298   6.247   8.685
36383SOL    HW210982   7.448   6.251   8.666
36384SOL     OW10983   2.771  14.132   6.425
36384SOL    HW110984   2.779  14.048   6.379
36384SOL    HW210985   2.827  14.192   6.376
36385SOL     OW10986   2.801  10.690   1.760
36385SOL    HW110987   2.730  10.712   1.700
36385SOL    HW210988   2.767  10.712   1.847
36386SOL     OW10989  10.257  11.727   5.013
36386SOL    HW110990  10.350  11.744   5.025
36386SOL    HW210991  10.254  11.652   4.954
36387SOL     OW10992   2.175  12.685   4.202
36387SOL    HW110993   2.226  12.631   4.262
36387SOL    HW210994   2.163  12.768   4.248
36388SOL     OW10995   6.628  11.790  11.605
36388SOL    HW110996   6.532  11.796  11.600
36388SOL    HW210997   6.658  11.880  11.614
36389SOL     OW10998   5.487  10.086  10.016
36389SOL    HW110999   5.435  10.057   9.941
36389SOL    HW211000   5.423  10.096  10.086
36390SOL     OW11001   5.494  11.511   5.649
36390SOL    HW111002   5.438  11.459   5.591
36390SOL    HW211003   5.579  11.514   5.604
36391SOL     OW11004   3.427   0.026   3.844
36391SOL    HW111005   3.361   0.025   3.775
36391SOL    HW211006   3.482  14.822   3.825
36392SOL     OW11007   4.753   4.419   7.881
36392SOL    HW111008   4.839   4.437   7.844
36392SOL    HW211009   4.768   4.345   7.941
36393SOL     OW11010   2.019  13.633   0.555
36393SOL    HW111011   2.109  13.606   0.573
36393SOL    HW211012   2.024  13.680   0.472
36394SOL     OW11013   6.868   2.297   0.443
36394SOL    HW111014   6.861   2.377   0.392
36394SOL    HW211015   6.884   2.327   0.533
36395SOL     OW11016   0.819   5.653  13.334
36395SOL    HW111017   0.909   5.686  13.337
36395SOL    HW211018   0.779   5.698  13.260
36396SOL     OW11019   0.355   9.690   0.198
36396SOL    HW111020   0.341   9.625   0.267
36396SOL    HW211021   0.420   9.652   0.140
36397SOL     OW11022  14.449   9.088   8.222
36397SOL    HW111023  14.515   9.135   8.272
36397SOL    HW211024  14.484   9.000   8.211
36398SOL     OW11025   3.943  12.444  10.377
36398SOL    HW111026   3.941  12.538  10.396
36398SOL    HW211027   4.017  12.411  10.428
36399SOL     OW11028   2.514   6.085   3.044
36399SOL    HW111029   2.545   6.041   2.964
36399SOL    HW211030   2.470   6.164   3.012
36400SOL     OW11031   2.884   1.976   7.472
36400SOL    HW111032   2.852   1.975   7.382
36400SOL    HW211033   2.948   1.904   7.475
36401SOL     OW11034   1.575  13.509   5.574
36401SOL    HW111035   1.649  13.558   5.609
36401SOL    HW211036   1.598  13.417   5.585
36402SOL     OW11037   7.278  12.745   4.077
36402SOL    HW111038   7.190  12.781   4.092
36402SOL    HW211039   7.327  12.817   4.037
36403SOL     OW11040   8.728   1.485  12.296
36403SOL    HW111041   8.766   1.518  12.214
36403SOL    HW211042   8.654   1.432  12.269
36404SOL     OW11043   5.472  11.413  13.179
36404SOL    HW111044   5.535  11.475  13.140
36404SOL    HW211045   5.439  11.364  13.104
36405SOL     OW11046  14.083   8.857  12.770
36405SOL    HW111047  14.106   8.811  12.851
36405SOL    HW211048  14.139   8.934  12.769
36406SOL     OW11049   6.872   9.186   7.602
36406SOL    HW111050   6.860   9.183   7.697
36406SOL    HW211051   6.960   9.224   7.591
36407SOL     OW11052   3.264   6.985   4.861
36407SOL    HW111053   3.297   7.065   4.819
36407SOL    HW211054   3.188   7.015   4.912
36408SOL     OW11055   5.985  13.681   9.866
36408SOL    HW111056   5.989  13.738   9.789
36408SOL    HW211057   5.893  13.683   9.893
36409SOL     OW11058   6.108   3.468   1.266
36409SOL    HW111059   6.132   3.408   1.196
36409SOL    HW211060   6.024   3.504   1.240
36410SOL     OW11061  14.583  10.827  14.421
36410SOL    HW111062  14.567  10.921  14.435
36410SOL    HW211063  14.643  10.803  14.492
36411SOL     OW11064   7.193  11.045  13.674
36411SOL    HW111065   7.283  11.048  13.707
36411SOL    HW211066   7.145  11.107  13.729
36412SOL     OW11067  14.179   7.797   3.172
36412SOL    HW111068  14.136   7.715   3.197
36412SOL    HW211069  14.110   7.847   3.128
36413SOL     OW11070   0.367   1.064  10.332
36413SOL    HW111071   0.304   1.134  10.314
36413SOL    HW211072   0.413   1.093  10.411
36414SOL     OW11073  14.084   1.615   6.309
36414SOL    HW111074  14.025   1.667   6.253
36414SOL    HW211075  14.045   1.621   6.396
36415SOL     OW11076   2.285  10.569   8.880
36415SOL    HW111077   2.376  10.538   8.879
36415SOL    HW211078   2.292  10.659   8.912
36416SOL     OW11079   2.715   8.427   1.778
36416SOL    HW111080   2.706   8.332   1.777
36416SOL    HW211081   2.723   8.452   1.686
36417SOL     OW11082   2.340   8.924   2.246
36417SOL    HW111083   2.364   8.901   2.336
36417SOL    HW211084   2.383   8.858   2.192
36418SOL     OW11085   8.454   0.094  14.862
36418SOL    HW111086   8.468   0.142  14.780
36418SOL    HW211087   8.413   0.012  14.835
36419SOL     OW11088   5.454  14.459   5.232
36419SOL    HW111089   5.454  14.553   5.211
36419SOL    HW211090   5.396  14.420   5.167
36420SOL     OW11091  14.529   9.318   2.354
36420SOL    HW111092  14.461   9.376   2.387
36420SOL    HW211093  14.502   9.231   2.383
36421SOL     OW11094  12.034   2.672   9.104
36421SOL    HW111095  12.027   2.582   9.074
36421SOL    HW211096  12.006   2.669   9.196
36422SOL     OW11097  13.465   1.709  14.257
36422SOL    HW111098  13.425   1.623  14.242
36422SOL    HW211099  13.394   1.763  14.291
36423SOL     OW11100  10.794   8.250   7.036
36423SOL    HW111101  10.732   8.182   7.062
36423SOL    HW211102  10.862   8.203   6.987
36424SOL     OW11103   6.962  14.799   3.540
36424SOL    HW111104   7.011  14.743   3.479
36424SOL    HW211105   6.874  14.805   3.502
36425SOL     OW11106   2.799   0.173  11.845
36425SOL    HW111107   2.733   0.143  11.907
36425SOL    HW211108   2.806   0.267  11.861
36426SOL     OW11109   2.413   9.143   4.865
36426SOL    HW111110   2.354   9.108   4.799
36426SOL    HW211111   2.362   9.209   4.911
36427SOL     OW11112  11.325  14.438   3.964
36427SOL    HW111113  11.314  14.527   3.998
36427SOL    HW211114  11.324  14.383   4.043
36428SOL     OW11115   6.808  12.104   2.264
36428SOL    HW111116   6.789  12.162   2.190
36428SOL    HW211117   6.852  12.160   2.328
36429SOL     OW11118  13.570   2.925  12.053
36429SOL    HW111119  13.496   2.980  12.030
36429SOL    HW211120  13.555   2.900  12.144
36430SOL     OW11121   5.400   6.937  12.857
36430SOL    HW111122   5.471   6.999  12.843
36430SOL    HW211123   5.390   6.934  12.952
36431SOL     OW11124   7.978  12.788   1.390
36431SOL    HW111125   8.024  12.833   1.460
36431SOL    HW211126   8.016  12.700   1.389
36432SOL     OW11127   9.711  10.911   4.225
36432SOL    HW111128   9.759  10.994   4.224
36432SOL    HW211129   9.620  10.936   4.236
36433SOL     OW11130   4.514   6.724  12.376
36433SOL    HW111131   4.522   6.647  12.320
36433SOL    HW211132   4.450   6.779  12.331
36434SOL     OW11133  13.414  11.238   8.306
36434SOL    HW111134  13.415  11.333   8.295
36434SOL    HW211135  13.469  11.221   8.382
36435SOL     OW11136   2.869   4.964  10.058
36435SOL    HW111137   2.948   4.977  10.110
36435SOL    HW211138   2.823   4.891  10.100
36436SOL     OW11139   9.627   8.731   5.586
36436SOL    HW111140   9.620   8.663   5.519
36436SOL    HW211141   9.551   8.788   5.571
36437SOL     OW11142  14.153   5.282  13.826
36437SOL    HW111143  14.186   5.370  13.845
36437SOL    HW211144  14.163   5.235  13.908
36438SOL     OW11145   2.498   3.369   7.326
36438SOL    HW111146   2.404   3.380   7.338
36438SOL    HW211147   2.535   3.455   7.344
36439SOL     OW11148  14.475   1.734   0.754
36439SOL    HW111149  14.536   1.794   0.710
36439SOL    HW211150  14.405   1.791   0.786
36440SOL     OW11151   2.064   3.026  13.956
36440SOL    HW111152   2.017   2.974  14.022
36440SOL    HW211153   2.151   2.987  13.952
36441SOL     OW11154   3.225   1.446   4.432
36441SOL    HW111155   3.217   1.375   4.495
36441SOL    HW211156   3.214   1.403   4.347
36442SOL     OW11157  10.678   5.640   0.816
36442SOL    HW111158  10.613   5.633   0.746
36442SOL    HW211159  10.654   5.720   0.862
36443SOL     OW11160   1.840   9.967   9.753
36443SOL    HW111161   1.892   9.979   9.673
36443SOL    HW211162   1.894  10.005   9.822
36444SOL     OW11163   6.979   6.555  10.930
36444SOL    HW111164   6.994   6.507  10.848
36444SOL    HW211165   6.934   6.635  10.904
36445SOL     OW11166   4.129   5.882  13.444
36445SOL    HW111167   4.192   5.826  13.490
36445SOL    HW211168   4.162   5.887  13.354
36446SOL     OW11169   4.250  11.514   5.682
36446SOL    HW111170   4.338  11.487   5.657
36446SOL    HW211171   4.264  11.579   5.751
36447SOL     OW11172   0.103   4.233  10.180
36447SOL    HW111173   0.082   4.153  10.130
36447SOL    HW211174   0.115   4.202  10.270
36448SOL     OW11175   0.082  13.421  10.322
36448SOL    HW111176   0.030  13.392  10.248
36448SOL    HW211177   0.020  13.426  10.395
36449SOL     OW11178   9.770  14.409   9.714
36449SOL    HW111179   9.759  14.372   9.801
36449SOL    HW211180   9.731  14.345   9.655
36450SOL     OW11181   1.319   0.731  11.596
36450SOL    HW111182   1.269   0.675  11.537
36450SOL    HW211183   1.395   0.758  11.546
36451SOL     OW11184  14.052  14.183  12.340
36451SOL    HW111185  14.045  14.244  12.414
36451SOL    HW211186  13.968  14.190  12.296
36452SOL     OW11187  12.592  11.306  10.637
36452SOL    HW111188  12.594  11.385  10.583
36452SOL    HW211189  12.579  11.235  10.574
36453SOL     OW11190  12.519   2.129  12.436
36453SOL    HW111191  12.576   2.195  12.395
36453SOL    HW211192  12.447   2.117  12.374
36454SOL     OW11193  14.076  11.802   7.008
36454SOL    HW111194  14.140  11.873   7.016
36454SOL    HW211195  14.118  11.726   7.048
36455SOL     OW11196   1.990  11.667  14.248
36455SOL    HW111197   2.084  11.681  14.231
36455SOL    HW211198   1.969  11.585  14.202
36456SOL     OW11199  14.008  14.542   4.567
36456SOL    HW111200  14.064  14.589   4.629
36456SOL    HW211201  13.922  14.543   4.609
36457SOL     OW11202   1.103   3.306   2.437
36457SOL    HW111203   1.025   3.267   2.477
36457SOL    HW211204   1.129   3.242   2.370
36458SOL     OW11205   5.885   6.515   2.642
36458SOL    HW111206   5.914   6.605   2.624
36458SOL    HW211207   5.936   6.489   2.718
36459SOL     OW11208   7.670  10.388  14.547
36459SOL    HW111209   7.704  10.344  14.625
36459SOL    HW211210   7.703  10.478  14.554
36460SOL     OW11211  13.421  12.008   8.426
36460SOL    HW111212  13.362  12.080   8.451
36460SOL    HW211213  13.501  12.024   8.477
36461SOL     OW11214   7.336   0.245  10.661
36461SOL    HW111215   7.289   0.328  10.668
36461SOL    HW211216   7.302   0.205  10.580
36462SOL     OW11217   7.347  13.197   8.074
36462SOL    HW111218   7.331  13.207   8.168
36462SOL    HW211219   7.303  13.115   8.051
36463SOL     OW11220   8.120   0.431   5.547
36463SOL    HW111221   8.093   0.523   5.549
36463SOL    HW211222   8.215   0.434   5.536
36464SOL     OW11223   9.224  13.417   5.023
36464SOL    HW111224   9.141  13.410   4.977
36464SOL    HW211225   9.201  13.425   5.115
36465SOL     OW11226  13.076   3.914   2.108
36465SOL    HW111227  13.058   3.889   2.199
36465SOL    HW211228  13.159   3.961   2.111
36466SOL     OW11229   9.723   5.126   6.782
36466SOL    HW111230   9.819   5.132   6.780
36466SOL    HW211231   9.706   5.037   6.814
36467SOL     OW11232  10.644  10.657   4.875
36467SOL    HW111233  10.567  10.608   4.907
36467SOL    HW211234  10.687  10.689   4.954
36468SOL     OW11235  11.408   8.766   6.050
36468SOL    HW111236  11.498   8.791   6.031
36468SOL    HW211237  11.383   8.821   6.124
36469SOL     OW11238   1.757   8.242   7.648
36469SOL    HW111239   1.675   8.235   7.698
36469SOL    HW211240   1.744   8.319   7.592
36470SOL     OW11241   9.809  10.103   1.150
36470SOL    HW111242   9.846  10.038   1.091
36470SOL    HW211243   9.867  10.101   1.227
36471SOL     OW11244  11.674  11.183   2.193
36471SOL    HW111245  11.765  11.202   2.216
36471SOL    HW211246  11.674  11.090   2.169
36472SOL     OW11247   6.002   0.290   0.795
36472SOL    HW111248   6.042   0.373   0.822
36472SOL    HW211249   5.945   0.267   0.868
36473SOL     OW11250   1.646   9.959  14.512
36473SOL    HW111251   1.712   9.973  14.580
36473SOL    HW211252   1.654  10.036  14.455
36474SOL     OW11253  11.343  10.331   4.291
36474SOL    HW111254  11.289  10.252   4.291
36474SOL    HW211255  11.414  10.312   4.351
36475SOL     OW11256   7.042   2.706  12.959
36475SOL    HW111257   7.134   2.731  12.963
36475SOL    HW211258   6.995   2.789  12.950
36476SOL     OW11259  10.579  13.991   4.882
36476SOL    HW111260  10.560  13.985   4.975
36476SOL    HW211261  10.650  14.055   4.876
36477SOL     OW11262  13.994   2.829   2.774
36477SOL    HW111263  14.057   2.877   2.720
36477SOL    HW211264  14.006   2.864   2.862
36478SOL     OW11265   3.597  13.906   6.414
36478SOL    HW111266   3.641  13.963   6.351
36478SOL    HW211267   3.522  13.871   6.366
36479SOL     OW11268  10.342  10.682  10.906
36479SOL    HW111269  10.251  10.710  10.892
36479SOL    HW211270  10.393  10.763  10.902
36480SOL     OW11271  11.509  14.854   8.006
36480SOL    HW111272  11.514   0.055   7.946
36480SOL    HW211273  11.599  14.825   8.018
36481SOL     OW11274   7.966  12.170   1.604
36481SOL    HW111275   8.035  12.121   1.649
36481SOL    HW211276   7.930  12.108   1.541
36482SOL     OW11277   2.960  11.098   7.777
36482SOL    HW111278   2.866  11.086   7.766
36482SOL    HW211279   2.967  11.167   7.843
36483SOL     OW11280   2.909   8.336  11.276
36483SOL    HW111281   2.940   8.371  11.359
36483SOL    HW211282   2.845   8.401  11.245
36484SOL     OW11283   0.526  14.710   4.778
36484SOL    HW111284   0.447  14.694   4.829
36484SOL    HW211285   0.546  14.625   4.737
36485SOL     OW11286  11.244  10.602  10.239
36485SOL    HW111287  11.216  10.521  10.282
36485SOL    HW211288  11.264  10.662  10.311
36486SOL     OW11289   1.158  12.847   4.912
36486SOL    HW111290   1.224  12.847   4.843
36486SOL    HW211291   1.075  12.860   4.866
36487SOL     OW11292   0.051   5.119   9.815
36487SOL    HW111293   0.018   5.030   9.801
36487SOL    HW211294   0.056   5.127   9.911
36488SOL     OW11295   6.721  11.765   6.721
36488SOL    HW111296   6.782  11.815   6.776
36488SOL    HW211297   6.650  11.741   6.781
36489SOL     OW11298   2.455   8.657  14.634
36489SOL    HW111299   2.429   8.633  14.723
36489SOL    HW211300   2.473   8.574  14.590
36490SOL     OW11301  12.319  14.149  14.469
36490SOL    HW111302  12.355  14.190  14.547
36490SOL    HW211303  12.247  14.096  14.501
36491SOL     OW11304   6.518   8.545   6.186
36491SOL    HW111305   6.598   8.548   6.239
36491SOL    HW211306   6.531   8.612   6.119
36492SOL     OW11307   4.676   8.694   2.634
36492SOL    HW111308   4.691   8.621   2.694
36492SOL    HW211309   4.621   8.657   2.565
36493SOL     OW11310   1.806  14.596  14.139
36493SOL    HW111311   1.860  14.554  14.071
36493SOL    HW211312   1.739  14.644  14.090
36494SOL     OW11313   1.001   5.170  11.263
36494SOL    HW111314   1.055   5.209  11.332
36494SOL    HW211315   0.950   5.242  11.228
36495SOL     OW11316   0.535  13.669   1.927
36495SOL    HW111317   0.472  13.741   1.926
36495SOL    HW211318   0.600  13.696   1.992
36496SOL     OW11319   2.437  14.038   3.042
36496SOL    HW111320   2.455  13.944   3.045
36496SOL    HW211321   2.464  14.065   2.954
36497SOL     OW11322   2.178   8.962   7.488
36497SOL    HW111323   2.106   9.009   7.446
36497SOL    HW211324   2.235   8.935   7.415
36498SOL     OW11325  13.509  10.145   3.882
36498SOL    HW111326  13.591  10.166   3.928
36498SOL    HW211327  13.442  10.194   3.929
36499SOL     OW11328  12.952   4.209   2.933
36499SOL    HW111329  12.939   4.202   2.839
36499SOL    HW211330  12.963   4.303   2.949
36500SOL     OW11331   5.325  12.776  13.523
36500SOL    HW111332   5.390  12.710  13.496
36500SOL    HW211333   5.377  12.849  13.555
36501SOL     OW11334  13.901   7.997   4.297
36501SOL    HW111335  13.974   7.977   4.356
36501SOL    HW211336  13.923   8.083   4.261
36502SOL     OW11337   3.229  13.168   5.670
36502SOL    HW111338   3.250  13.111   5.596
36502SOL    HW211339   3.261  13.254   5.643
36503SOL     OW11340   9.669  11.511   0.030
36503SOL    HW111341   9.610  11.474  14.837
36503SOL    HW211342   9.617  11.579   0.073
36504SOL     OW11343  14.489   7.861   2.775
36504SOL    HW111344  14.580   7.832   2.778
36504SOL    HW211345  14.486   7.927   2.706
36505SOL     OW11346   8.318   7.876  11.788
36505SOL    HW111347   8.226   7.902  11.801
36505SOL    HW211348   8.365   7.926  11.855
36506SOL     OW11349   8.573   9.598   9.115
36506SOL    HW111350   8.491   9.556   9.143
36506SOL    HW211351   8.637   9.527   9.116
36507SOL     OW11352   1.524   6.656   5.477
36507SOL    HW111353   1.482   6.662   5.392
36507SOL    HW211354   1.463   6.605   5.530
36508SOL     OW11355   7.683   8.182  10.997
36508SOL    HW111356   7.729   8.261  10.967
36508SOL    HW211357   7.602   8.181  10.947
36509SOL     OW11358  14.130   0.694   7.923
36509SOL    HW111359  14.123   0.713   7.830
36509SOL    HW211360  14.048   0.650   7.946
36510SOL     OW11361   7.206   5.073   0.740
36510SOL    HW111362   7.119   5.035   0.750
36510SOL    HW211363   7.252   5.048   0.821
36511SOL     OW11364   0.367   8.201   6.477
36511SOL    HW111365   0.413   8.182   6.396
36511SOL    HW211366   0.277   8.170   6.461
36512SOL     OW11367   2.637   6.691   9.073
36512SOL    HW111368   2.639   6.597   9.052
36512SOL    HW211369   2.619   6.734   8.990
36513SOL     OW11370   3.576   8.247   1.877
36513SOL    HW111371   3.595   8.162   1.836
36513SOL    HW211372   3.533   8.298   1.808
36514SOL     OW11373   3.389   5.377  13.938
36514SOL    HW111374   3.415   5.287  13.956
36514SOL    HW211375   3.325   5.370  13.868
36515SOL     OW11376  11.103   5.178   0.007
36515SOL    HW111377  11.013   5.171  14.847
36515SOL    HW211378  11.126   5.270  14.868
36516SOL     OW11379  11.009   9.061  13.942
36516SOL    HW111380  10.978   9.001  14.010
36516SOL    HW211381  11.044   9.136  13.990
36517SOL     OW11382  12.249  10.884  13.509
36517SOL    HW111383  12.222  10.799  13.476
36517SOL    HW211384  12.261  10.872  13.603
36518SOL     OW11385   4.948   1.731   1.278
36518SOL    HW111386   5.013   1.795   1.250
36518SOL    HW211387   4.975   1.649   1.237
36519SOL     OW11388   1.248   5.719  11.151
36519SOL    HW111389   1.275   5.780  11.219
36519SOL    HW211390   1.233   5.637  11.197
36520SOL     OW11391  11.818  14.603  14.770
36520SOL    HW111392  11.892  14.575  14.717
36520SOL    HW211393  11.857  14.633  14.852
36521SOL     OW11394   5.474  10.700   2.926
36521SOL    HW111395   5.570  10.708   2.927
36521SOL    HW211396   5.448  10.711   3.017
36522SOL     OW11397   3.783   3.602   9.435
36522SOL    HW111398   3.739   3.610   9.351
36522SOL    HW211399   3.746   3.523   9.475
36523SOL     OW11400   1.543   4.554  11.046
36523SOL    HW111401   1.557   4.579  11.137
36523SOL    HW211402   1.523   4.461  11.049
36524SOL     OW11403  13.238   7.881   0.826
36524SOL    HW111404  13.309   7.900   0.887
36524SOL    HW211405  13.282   7.843   0.750
36525SOL     OW11406   4.289   6.746  11.473
36525SOL    HW111407   4.239   6.677  11.428
36525SOL    HW211408   4.222   6.804  11.508
36526SOL     OW11409  13.684   4.751   8.407
36526SOL    HW111410  13.708   4.844   8.400
36526SOL    HW211411  13.746   4.715   8.469
36527SOL     OW11412  14.715   4.858   7.887
36527SOL    HW111413  14.791   4.881   7.941
36527SOL    HW211414  14.645   4.915   7.918
36528SOL     OW11415   5.580  10.168   5.921
36528SOL    HW111416   5.614  10.242   5.872
36528SOL    HW211417   5.490  10.157   5.890
36529SOL     OW11418   3.044   1.056   0.668
36529SOL    HW111419   3.091   1.032   0.588
36529SOL    HW211420   3.101   1.027   0.739
36530SOL     OW11421   0.475   3.870   6.139
36530SOL    HW111422   0.530   3.794   6.121
36530SOL    HW211423   0.523   3.919   6.206
36531SOL     OW11424  13.218   7.513   3.492
36531SOL    HW111425  13.193   7.602   3.470
36531SOL    HW211426  13.287   7.522   3.557
36532SOL     OW11427   5.748  12.815  13.760
36532SOL    HW111428   5.730  12.843  13.850
36532SOL    HW211429   5.843  12.798  13.759
36533SOL     OW11430   0.561   3.972  13.682
36533SOL    HW111431   0.509   3.936  13.754
36533SOL    HW211432   0.550   4.067  13.689
36534SOL     OW11433   5.597   9.328   3.134
36534SOL    HW111434   5.644   9.245   3.137
36534SOL    HW211435   5.531   9.320   3.203
36535SOL     OW11436  13.394   3.221   9.577
36535SOL    HW111437  13.339   3.279   9.630
36535SOL    HW211438  13.337   3.193   9.506
36536SOL     OW11439   7.764   2.489  14.057
36536SOL    HW111440   7.856   2.474  14.077
36536SOL    HW211441   7.747   2.436  13.980
36537SOL     OW11442   2.896   4.532  12.183
36537SOL    HW111443   2.803   4.537  12.202
36537SOL    HW211444   2.934   4.484  12.256
36538SOL     OW11445  13.588   8.887   8.780
36538SOL    HW111446  13.646   8.961   8.793
36538SOL    HW211447  13.503   8.916   8.814
36539SOL     OW11448  12.112   7.587   1.378
36539SOL    HW111449  12.084   7.648   1.447
36539SOL    HW211450  12.110   7.640   1.298
36540SOL     OW11451  12.605  14.810   1.121
36540SOL    HW111452  12.575  14.726   1.156
36540SOL    HW211453  12.680  14.833   1.176
36541SOL     OW11454   3.523   2.210  12.586
36541SOL    HW111455   3.595   2.151  12.607
36541SOL    HW211456   3.480   2.228  12.669
36542SOL     OW11457   2.339   2.759   5.254
36542SOL    HW111458   2.248   2.785   5.265
36542SOL    HW211459   2.373   2.752   5.343
36543SOL     OW11460  13.142   9.132  12.283
36543SOL    HW111461  13.222   9.099  12.243
36543SOL    HW211462  13.108   9.195  12.220
36544SOL     OW11463  12.078   2.149   5.724
36544SOL    HW111464  12.070   2.220   5.788
36544SOL    HW211465  12.124   2.079   5.772
36545SOL     OW11466   2.275  12.299  13.052
36545SOL    HW111467   2.268  12.292  13.148
36545SOL    HW211468   2.363  12.267  13.032
36546SOL     OW11469  11.040   7.918   4.987
36546SOL    HW111470  10.957   7.908   5.036
36546SOL    HW211471  11.021   7.880   4.901
36547SOL     OW11472  11.642  11.366  12.189
36547SOL    HW111473  11.661  11.419  12.111
36547SOL    HW211474  11.551  11.339  12.179
36548SOL     OW11475  13.793   9.963  13.494
36548SOL    HW111476  13.879  10.005  13.493
36548SOL    HW211477  13.766   9.966  13.586
36549SOL     OW11478  14.115  11.645   2.430
36549SOL    HW111479  14.191  11.634   2.487
36549SOL    HW211480  14.094  11.739   2.436
36550SOL     OW11481  11.899   1.291   0.036
36550SOL    HW111482  11.909   1.204  14.870
36550SOL    HW211483  11.847   1.277   0.115
36551SOL     OW11484  12.813  14.130   2.365
36551SOL    HW111485  12.893  14.091   2.331
36551SOL    HW211486  12.828  14.225   2.360
36552SOL     OW11487   5.715   5.544   6.609
36552SOL    HW111488   5.806   5.567   6.629
36552SOL    HW211489   5.713   5.449   6.609
36553SOL     OW11490   6.551  10.892  13.739
36553SOL    HW111491   6.527  10.880  13.831
36553SOL    HW211492   6.609  10.818  13.720
36554SOL     OW11493   3.848  10.280   7.227
36554SOL    HW111494   3.883  10.266   7.139
36554SOL    HW211495   3.923  10.309   7.278
36555SOL     OW11496   0.846   5.436  12.191
36555SOL    HW111497   0.937   5.439  12.161
36555SOL    HW211498   0.842   5.498  12.264
36556SOL     OW11499  11.817   0.503   9.737
36556SOL    HW111500  11.841   0.410   9.734
36556SOL    HW211501  11.757   0.509   9.811
36557SOL     OW11502   5.633   2.186   3.237
36557SOL    HW111503   5.684   2.166   3.158
36557SOL    HW211504   5.615   2.280   3.231
36558SOL     OW11505   7.033   0.462   0.276
36558SOL    HW111506   7.123   0.431   0.265
36558SOL    HW211507   6.987   0.388   0.315
36559SOL     OW11508   0.745   0.353   8.422
36559SOL    HW111509   0.826   0.404   8.430
36559SOL    HW211510   0.771   0.273   8.377
36560SOL     OW11511   1.322   2.249   5.114
36560SOL    HW111512   1.394   2.186   5.111
36560SOL    HW211513   1.289   2.253   5.024
36561SOL     OW11514   6.068  14.317   9.689
36561SOL    HW111515   6.161  14.337   9.675
36561SOL    HW211516   6.028  14.402   9.707
36562SOL     OW11517   8.153  14.280  14.264
36562SOL    HW111518   8.101  14.248  14.190
36562SOL    HW211519   8.183  14.201  14.308
36563SOL     OW11520  10.347   9.236   6.739
36563SOL    HW111521  10.272   9.251   6.796
36563SOL    HW211522  10.420   9.278   6.784
36564SOL     OW11523  12.299  14.738   4.862
36564SOL    HW111524  12.394  14.742   4.859
36564SOL    HW211525  12.276  14.786   4.942
36565SOL     OW11526  12.272   0.590  10.552
36565SOL    HW111527  12.292   0.497  10.557
36565SOL    HW211528  12.195   0.596  10.497
36566SOL     OW11529  11.391   5.174   8.168
36566SOL    HW111530  11.388   5.098   8.226
36566SOL    HW211531  11.481   5.206   8.175
36567SOL     OW11532   6.690   6.709   6.729
36567SOL    HW111533   6.651   6.719   6.643
36567SOL    HW211534   6.717   6.798   6.753
36568SOL     OW11535   3.614  13.592   3.284
36568SOL    HW111536   3.576  13.678   3.300
36568SOL    HW211537   3.662  13.571   3.364
36569SOL     OW11538  11.591  12.980   6.421
36569SOL    HW111539  11.539  12.987   6.502
36569SOL    HW211540  11.541  13.031   6.357
36570SOL     OW11541   0.902   3.181  14.194
36570SOL    HW111542   0.954   3.216  14.266
36570SOL    HW211543   0.929   3.233  14.118
36571SOL     OW11544  10.846   7.234   0.795
36571SOL    HW111545  10.862   7.140   0.783
36571SOL    HW211546  10.753   7.240   0.817
36572SOL     OW11547   4.009   5.383  10.372
36572SOL    HW111548   4.098   5.347  10.372
36572SOL    HW211549   4.020   5.475  10.395
36573SOL     OW11550  12.737   3.943   7.659
36573SOL    HW111551  12.679   3.868   7.645
36573SOL    HW211552  12.699   4.013   7.606
36574SOL     OW11553   7.028   8.806  14.776
36574SOL    HW111554   7.046   8.751  14.851
36574SOL    HW211555   7.112   8.845  14.753
36575SOL     OW11556  10.525   0.107   6.231
36575SOL    HW111557  10.614   0.082   6.258
36575SOL    HW211558  10.521   0.201   6.249
36576SOL     OW11559   3.925   5.049  14.720
36576SOL    HW111560   3.880   5.127  14.754
36576SOL    HW211561   3.896   5.042  14.629
36577SOL     OW11562  12.537   7.014   6.569
36577SOL    HW111563  12.476   6.978   6.633
36577SOL    HW211564  12.614   6.958   6.574
36578SOL     OW11565   0.615   5.522  13.477
36578SOL    HW111566   0.627   5.586  13.407
36578SOL    HW211567   0.593   5.574  13.554
36579SOL     OW11568  12.976  13.159   8.446
36579SOL    HW111569  12.948  13.112   8.525
36579SOL    HW211570  12.907  13.140   8.382
36580SOL     OW11571   1.504   2.651   7.903
36580SOL    HW111572   1.584   2.659   7.850
36580SOL    HW211573   1.535   2.615   7.986
36581SOL     OW11574   0.087   2.484  11.965
36581SOL    HW111575   0.042   2.567  11.948
36581SOL    HW211576   0.165   2.509  12.015
36582SOL     OW11577   4.436   9.769  13.094
36582SOL    HW111578   4.431   9.865  13.088
36582SOL    HW211579   4.366   9.738  13.036
36583SOL     OW11580   6.292   5.544   8.105
36583SOL    HW111581   6.267   5.625   8.151
36583SOL    HW211582   6.286   5.566   8.012
36584SOL     OW11583   6.185   6.636  14.186
36584SOL    HW111584   6.193   6.731  14.183
36584SOL    HW211585   6.242   6.605  14.116
36585SOL     OW11586   6.047   0.350   6.968
36585SOL    HW111587   6.142   0.357   6.955
36585SOL    HW211588   6.027   0.258   6.954
36586SOL     OW11589   7.118   4.934   6.282
36586SOL    HW111590   7.192   4.987   6.313
36586SOL    HW211591   7.159   4.859   6.237
36587SOL     OW11592   4.487   2.827   3.418
36587SOL    HW111593   4.545   2.899   3.443
36587SOL    HW211594   4.402   2.852   3.453
36588SOL     OW11595   6.083   4.734   1.507
36588SOL    HW111596   6.035   4.754   1.427
36588SOL    HW211597   6.020   4.750   1.578
36589SOL     OW11598   0.773  12.370  13.426
36589SOL    HW111599   0.722  12.290  13.411
36589SOL    HW211600   0.841  12.343  13.488
36590SOL     OW11601  13.741   9.646   6.768
36590SOL    HW111602  13.666   9.616   6.819
36590SOL    HW211603  13.706   9.665   6.681
36591SOL     OW11604  12.217  13.081   4.761
36591SOL    HW111605  12.123  13.081   4.774
36591SOL    HW211606  12.253  13.046   4.842
36592SOL     OW11607   9.682  13.519   2.106
36592SOL    HW111608   9.712  13.610   2.113
36592SOL    HW211609   9.614  13.521   2.038
36593SOL     OW11610   3.251  11.545   6.153
36593SOL    HW111611   3.306  11.619   6.129
36593SOL    HW211612   3.212  11.515   6.071
36594SOL     OW11613   5.880   5.788  13.661
36594SOL    HW111614   5.812   5.752  13.605
36594SOL    HW211615   5.845   5.872  13.690
36595SOL     OW11616  11.487  10.150  10.973
36595SOL    HW111617  11.538  10.215  11.020
36595SOL    HW211618  11.549  10.079  10.956
36596SOL     OW11619   0.073  13.368   1.010
36596SOL    HW111620   0.138  13.437   1.026
36596SOL    HW211621   0.030  13.394   0.929
36597SOL     OW11622   7.059   4.628   3.222
36597SOL    HW111623   6.966   4.648   3.231
36597SOL    HW211624   7.102   4.681   3.289
36598SOL     OW11625  14.450   0.544   3.837
36598SOL    HW111626  14.418   0.566   3.924
36598SOL    HW211627  14.446   0.449   3.832
36599SOL     OW11628  10.903  14.181   7.935
36599SOL    HW111629  10.968  14.242   7.900
36599SOL    HW211630  10.822  14.232   7.941
36600SOL     OW11631   8.813   2.715   9.319
36600SOL    HW111632   8.781   2.748   9.403
36600SOL    HW211633   8.840   2.794   9.272
36601SOL     OW11634   8.771   4.415   7.479
36601SOL    HW111635   8.763   4.509   7.498
36601SOL    HW211636   8.838   4.384   7.540
36602SOL     OW11637   8.602  11.066   7.024
36602SOL    HW111638   8.513  11.081   7.057
36602SOL    HW211639   8.621  10.975   7.046
36603SOL     OW11640   0.905   8.717   4.986
36603SOL    HW111641   0.847   8.793   4.974
36603SOL    HW211642   0.940   8.728   5.075
36604SOL     OW11643  11.166   2.479   3.368
36604SOL    HW111644  11.241   2.431   3.404
36604SOL    HW211645  11.202   2.565   3.345
36605SOL     OW11646   7.244   4.322   7.650
36605SOL    HW111647   7.243   4.354   7.560
36605SOL    HW211648   7.171   4.366   7.693
36606SOL     OW11649   0.247  12.899   1.165
36606SOL    HW111650   0.243  12.825   1.105
36606SOL    HW211651   0.210  12.973   1.116
36607SOL     OW11652   3.343   0.230  10.664
36607SOL    HW111653   3.372   0.283  10.589
36607SOL    HW211654   3.264   0.273  10.695
36608SOL     OW11655   2.471   3.497   6.984
36608SOL    HW111656   2.443   3.530   7.070
36608SOL    HW211657   2.392   3.457   6.947
36609SOL     OW11658   2.621  14.090   5.103
36609SOL    HW111659   2.600  14.120   5.191
36609SOL    HW211660   2.710  14.120   5.088
36610SOL     OW11661   4.164   6.546  11.332
36610SOL    HW111662   4.104   6.538  11.258
36610SOL    HW211663   4.129   6.485  11.398
36611SOL     OW11664   2.915  13.336  10.050
36611SOL    HW111665   2.872  13.333  10.136
36611SOL    HW211666   2.867  13.273   9.997
36612SOL     OW11667   3.657   1.867   5.708
36612SOL    HW111668   3.591   1.799   5.720
36612SOL    HW211669   3.726   1.845   5.771
36613SOL     OW11670   5.577   6.202   7.092
36613SOL    HW111671   5.511   6.133   7.081
36613SOL    HW211672   5.634   6.170   7.161
36614SOL     OW11673   1.901   6.225   8.191
36614SOL    HW111674   1.850   6.306   8.189
36614SOL    HW211675   1.989   6.251   8.162
36615SOL     OW11676  12.190   7.753   5.765
36615SOL    HW111677  12.192   7.843   5.733
36615SOL    HW211678  12.141   7.705   5.698
36616SOL     OW11679  11.165   9.889   0.931
36616SOL    HW111680  11.162   9.799   0.961
36616SOL    HW211681  11.246   9.894   0.879
36617SOL     OW11682   9.801  13.770   8.516
36617SOL    HW111683   9.798  13.746   8.609
36617SOL    HW211684   9.861  13.845   8.512
36618SOL     OW11685   6.507   7.676   3.111
36618SOL    HW111686   6.469   7.624   3.182
36618SOL    HW211687   6.486   7.767   3.134
36619SOL     OW11688  13.381   6.941  10.081
36619SOL    HW111689  13.304   6.971  10.032
36619SOL    HW211690  13.442   7.014  10.078
36620SOL     OW11691  14.186  12.084  13.353
36620SOL    HW111692  14.249  12.040  13.410
36620SOL    HW211693  14.163  12.164  13.401
36621SOL     OW11694  11.873  12.406   2.468
36621SOL    HW111695  11.860  12.335   2.531
36621SOL    HW211696  11.784  12.433   2.443
36622SOL     OW11697   3.116   7.421   5.678
36622SOL    HW111698   3.176   7.394   5.748
36622SOL    HW211699   3.029   7.406   5.714
36623SOL     OW11700   6.315   8.409   4.674
36623SOL    HW111701   6.364   8.387   4.594
36623SOL    HW211702   6.375   8.387   4.745
36624SOL     OW11703   4.803  10.429   6.094
36624SOL    HW111704   4.851  10.439   6.176
36624SOL    HW211705   4.716  10.398   6.120
36625SOL     OW11706   7.414  12.125   7.624
36625SOL    HW111707   7.375  12.144   7.709
36625SOL    HW211708   7.437  12.033   7.628
36626SOL     OW11709  13.275  14.044  12.599
36626SOL    HW111710  13.280  13.950  12.614
36626SOL    HW211711  13.268  14.083  12.686
36627SOL     OW11712   1.605  12.059   8.194
36627SOL    HW111713   1.521  12.012   8.194
36627SOL    HW211714   1.618  12.083   8.102
36628SOL     OW11715   4.838   0.289   6.444
36628SOL    HW111716   4.919   0.266   6.397
36628SOL    HW211717   4.821   0.379   6.418
36629SOL     OW11718  11.998  11.297   4.817
36629SOL    HW111719  12.039  11.211   4.806
36629SOL    HW211720  11.995  11.334   4.728
36630SOL     OW11721   0.025  11.466   6.387
36630SOL    HW111722   0.058  11.514   6.310
36630SOL    HW211723  14.814  11.509   6.408
36631SOL     OW11724   2.321  14.022   2.369
36631SOL    HW111725   2.329  13.960   2.297
36631SOL    HW211726   2.334  13.970   2.448
36632SOL     OW11727   5.672   3.182  11.868
36632SOL    HW111728   5.761   3.218  11.873
36632SOL    HW211729   5.679   3.096  11.910
36633SOL     OW11730   3.520  10.562   7.463
36633SOL    HW111731   3.553  10.518   7.384
36633SOL    HW211732   3.434  10.594   7.438
36634SOL     OW11733   3.121  13.002   1.784
36634SOL    HW111734   3.075  12.980   1.865
36634SOL    HW211735   3.073  12.954   1.716
36635SOL     OW11736   3.678   7.735   9.873
36635SOL    HW111737   3.609   7.781   9.826
36635SOL    HW211738   3.640   7.650   9.896
36636SOL     OW11739  12.422  13.769   5.854
36636SOL    HW111740  12.380  13.689   5.823
36636SOL    HW211741  12.514  13.747   5.861
36637SOL     OW11742   8.820   4.909   4.176
36637SOL    HW111743   8.848   4.996   4.146
36637SOL    HW211744   8.754   4.882   4.112
36638SOL     OW11745   4.983   6.351  14.112
36638SOL    HW111746   4.933   6.317  14.187
36638SOL    HW211747   5.064   6.383  14.150
36639SOL     OW11748   9.225   6.371  14.500
36639SOL    HW111749   9.223   6.303  14.433
36639SOL    HW211750   9.234   6.324  14.583
36640SOL     OW11751  13.578   2.381  13.098
36640SOL    HW111752  13.583   2.475  13.079
36640SOL    HW211753  13.668   2.356  13.117
36641SOL     OW11754   8.271  13.410   6.870
36641SOL    HW111755   8.250  13.498   6.902
36641SOL    HW211756   8.249  13.413   6.777
36642SOL     OW11757   1.858   7.066   9.606
36642SOL    HW111758   1.927   7.018   9.652
36642SOL    HW211759   1.777   7.023   9.633
36643SOL     OW11760   0.261   8.451   8.659
36643SOL    HW111761   0.345   8.433   8.618
36643SOL    HW211762   0.211   8.370   8.650
36644SOL     OW11763   1.324   6.733  12.580
36644SOL    HW111764   1.359   6.761  12.495
36644SOL    HW211765   1.261   6.664  12.559
36645SOL     OW11766  12.200   9.050   4.826
36645SOL    HW111767  12.129   9.095   4.873
36645SOL    HW211768  12.233   9.115   4.765
36646SOL     OW11769  12.225   2.445   4.324
36646SOL    HW111770  12.281   2.453   4.246
36646SOL    HW211771  12.284   2.456   4.398
36647SOL     OW11772   4.199   9.877  10.502
36647SOL    HW111773   4.175   9.952  10.556
36647SOL    HW211774   4.213   9.806  10.564
36648SOL     OW11775  10.831   3.012  13.863
36648SOL    HW111776  10.814   3.097  13.903
36648SOL    HW211777  10.926   3.000  13.872
36649SOL     OW11778   7.359   7.790   5.018
36649SOL    HW111779   7.342   7.763   5.109
36649SOL    HW211780   7.412   7.718   4.982
36650SOL     OW11781  11.207  10.422   6.786
36650SOL    HW111782  11.189  10.515   6.791
36650SOL    HW211783  11.126  10.380   6.812
36651SOL     OW11784   7.531   9.487   4.486
36651SOL    HW111785   7.509   9.462   4.397
36651SOL    HW211786   7.619   9.452   4.501
36652SOL     OW11787   8.734  13.098   3.501
36652SOL    HW111788   8.771  13.010   3.489
36652SOL    HW211789   8.773  13.151   3.432
36653SOL     OW11790   6.931   9.009   3.161
36653SOL    HW111791   6.957   9.101   3.162
36653SOL    HW211792   6.837   9.011   3.179
36654SOL     OW11793   8.196   2.449   3.952
36654SOL    HW111794   8.106   2.456   3.985
36654SOL    HW211795   8.186   2.429   3.859
36655SOL     OW11796  13.405   4.662   5.246
36655SOL    HW111797  13.500   4.676   5.253
36655SOL    HW211798  13.377   4.644   5.336
36656SOL     OW11799   2.224  10.606   5.270
36656SOL    HW111800   2.190  10.521   5.241
36656SOL    HW211801   2.153  10.667   5.255
36657SOL     OW11802  14.764   5.928  12.749
36657SOL    HW111803  14.753   6.005  12.805
36657SOL    HW211804  14.839   5.950  12.693
36658SOL     OW11805  10.993   2.546  12.241
36658SOL    HW111806  10.906   2.585  12.229
36658SOL    HW211807  11.035   2.556  12.155
36659SOL     OW11808   1.924   2.730   4.802
36659SOL    HW111809   2.012   2.693   4.813
36659SOL    HW211810   1.865   2.657   4.822
36660SOL     OW11811   3.431   1.789  14.520
36660SOL    HW111812   3.469   1.701  14.519
36660SOL    HW211813   3.507   1.848  14.512
36661SOL     OW11814  14.064  11.375   1.315
36661SOL    HW111815  13.984  11.415   1.349
36661SOL    HW211816  14.087  11.428   1.239
36662SOL     OW11817   5.533   9.602   0.439
36662SOL    HW111818   5.567   9.585   0.527
36662SOL    HW211819   5.478   9.526   0.419
36663SOL     OW11820  14.359  12.110   9.850
36663SOL    HW111821  14.279  12.059   9.865
36663SOL    HW211822  14.375  12.103   9.756
36664SOL     OW11823  12.992   7.722  12.269
36664SOL    HW111824  13.021   7.796  12.215
36664SOL    HW211825  12.963   7.656  12.206
36665SOL     OW11826   0.852   8.839  10.992
36665SOL    HW111827   0.842   8.920  11.043
36665SOL    HW211828   0.921   8.791  11.036
36666SOL     OW11829  11.079   0.059   1.099
36666SOL    HW111830  11.045   0.039   1.012
36666SOL    HW211831  11.091  14.846   1.140
36667SOL     OW11832   2.844   0.720   5.651
36667SOL    HW111833   2.854   0.739   5.744
36667SOL    HW211834   2.837   0.624   5.647
36668SOL     OW11835   2.602   8.903   9.099
36668SOL    HW111836   2.696   8.920   9.097
36668SOL    HW211837   2.561   8.986   9.075
36669SOL     OW11838   0.877   5.546   1.245
36669SOL    HW111839   0.805   5.489   1.218
36669SOL    HW211840   0.896   5.520   1.335
36670SOL     OW11841   9.576   7.509  14.702
36670SOL    HW111842   9.542   7.428  14.664
36670SOL    HW211843   9.650   7.533  14.647
36671SOL     OW11844   6.027  10.817   4.152
36671SOL    HW111845   6.080  10.861   4.086
36671SOL    HW211846   5.999  10.736   4.109
36672SOL     OW11847   9.898   4.411   7.238
36672SOL    HW111848   9.964   4.343   7.233
36672SOL    HW211849   9.827   4.373   7.289
36673SOL     OW11850  14.269  11.085  14.536
36673SOL    HW111851  14.357  11.105  14.502
36673SOL    HW211852  14.286  11.034  14.615
36674SOL     OW11853   9.993  10.359  13.008
36674SOL    HW111854  10.081  10.376  13.042
36674SOL    HW211855   9.991  10.400  12.922
36675SOL     OW11856  10.219  11.476   4.888
36675SOL    HW111857  10.208  11.446   4.798
36675SOL    HW211858  10.142  11.444   4.935
36676SOL     OW11859  12.813  13.314  13.116
36676SOL    HW111860  12.792  13.402  13.085
36676SOL    HW211861  12.848  13.328  13.204
36677SOL     OW11862   9.223  10.481  13.957
36677SOL    HW111863   9.284  10.440  13.897
36677SOL    HW211864   9.273  10.553  13.997
36678SOL     OW11865  12.882   0.310   4.553
36678SOL    HW111866  12.845   0.313   4.465
36678SOL    HW211867  12.835   0.239   4.596
36679SOL     OW11868  13.756   3.174   4.251
36679SOL    HW111869  13.736   3.163   4.158
36679SOL    HW211870  13.750   3.085   4.287
36680SOL     OW11871   8.379  14.349   3.035
36680SOL    HW111872   8.368  14.424   2.977
36680SOL    HW211873   8.342  14.377   3.118
36681SOL     OW11874   6.187  10.831   6.875
36681SOL    HW111875   6.110  10.818   6.931
36681SOL    HW211876   6.247  10.881   6.930
36682SOL     OW11877  13.641  14.157  14.760
36682SOL    HW111878  13.555  14.117  14.744
36682SOL    HW211879  13.687  14.092  14.813
36683SOL     OW11880  10.460  10.331   6.199
36683SOL    HW111881  10.489  10.356   6.112
36683SOL    HW211882  10.500  10.397   6.257
36684SOL     OW11883   3.263   6.300   5.782
36684SOL    HW111884   3.257   6.387   5.742
36684SOL    HW211885   3.172   6.270   5.788
36685SOL     OW11886  13.889   9.776  14.613
36685SOL    HW111887  13.866   9.839  14.681
36685SOL    HW211888  13.943   9.826  14.551
36686SOL     OW11889  14.807   2.330  10.519
36686SOL    HW111890   0.000   2.331  10.588
36686SOL    HW211891  14.723   2.343  10.565
36687SOL     OW11892   7.083  13.225   5.495
36687SOL    HW111893   7.087  13.174   5.576
36687SOL    HW211894   6.997  13.206   5.458
36688SOL     OW11895  10.112   2.040   7.846
36688SOL    HW111896  10.125   2.122   7.798
36688SOL    HW211897  10.185   1.984   7.818
36689SOL     OW11898  13.021   3.241  13.487
36689SOL    HW111899  13.069   3.242  13.570
36689SOL    HW211900  13.000   3.334  13.470
36690SOL     OW11901   1.911   1.158   3.334
36690SOL    HW111902   1.831   1.199   3.369
36690SOL    HW211903   1.970   1.152   3.410
36691SOL     OW11904  13.446  11.377   6.434
36691SOL    HW111905  13.464  11.283   6.438
36691SOL    HW211906  13.352  11.383   6.418
36692SOL     OW11907   2.849   2.154   0.358
36692SOL    HW111908   2.904   2.094   0.306
36692SOL    HW211909   2.818   2.219   0.295
36693SOL     OW11910   5.436  12.001  12.603
36693SOL    HW111911   5.444  11.950  12.522
36693SOL    HW211912   5.491  12.078  12.588
36694SOL     OW11913   8.817   0.341   6.054
36694SOL    HW111914   8.838   0.276   5.988
36694SOL    HW211915   8.722   0.336   6.064
36695SOL     OW11916   0.474   0.956  13.810
36695SOL    HW111917   0.492   0.881  13.753
36695SOL    HW211918   0.558   1.002  13.815
36696SOL     OW11919   9.558   2.185   4.565
36696SOL    HW111920   9.511   2.104   4.585
36696SOL    HW211921   9.620   2.195   4.637
36697SOL     OW11922   1.157   7.275   5.663
36697SOL    HW111923   1.241   7.256   5.621
36697SOL    HW211924   1.173   7.355   5.713
36698SOL     OW11925  10.946   7.991   9.681
36698SOL    HW111926  10.917   7.935   9.609
36698SOL    HW211927  10.882   8.063   9.684
36699SOL     OW11928   3.251   5.871  13.022
36699SOL    HW111929   3.166   5.828  13.020
36699SOL    HW211930   3.240   5.943  13.084
36700SOL     OW11931   8.406   4.407   1.767
36700SOL    HW111932   8.456   4.481   1.732
36700SOL    HW211933   8.470   4.356   1.816
36701SOL     OW11934  12.467   9.396   2.728
36701SOL    HW111935  12.407   9.470   2.727
36701SOL    HW211936  12.450   9.351   2.645
36702SOL     OW11937   7.540   2.800   5.705
36702SOL    HW111938   7.450   2.774   5.723
36702SOL    HW211939   7.532   2.871   5.641
36703SOL     OW11940   9.057  12.871   2.446
36703SOL    HW111941   9.078  12.934   2.377
36703SOL    HW211942   8.993  12.917   2.501
36704SOL     OW11943  14.023   3.279   9.270
36704SOL    HW111944  13.941   3.244   9.306
36704SOL    HW211945  14.035   3.363   9.314
36705SOL     OW11946  10.080   5.420  11.146
36705SOL    HW111947  10.131   5.492  11.109
36705SOL    HW211948  10.106   5.343  11.096
36706SOL     OW11949   3.226   3.156  11.840
36706SOL    HW111950   3.143   3.201  11.823
36706SOL    HW211951   3.236   3.157  11.935
36707SOL     OW11952   0.275  10.272   0.972
36707SOL    HW111953   0.369  10.288   0.971
36707SOL    HW211954   0.245  10.299   0.885
36708SOL     OW11955   2.947  13.719  14.279
36708SOL    HW111956   2.968  13.749  14.191
36708SOL    HW211957   2.904  13.793  14.321
36709SOL     OW11958  14.395   6.709   1.559
36709SOL    HW111959  14.409   6.802   1.578
36709SOL    HW211960  14.310   6.689   1.597
36710SOL     OW11961   8.776  10.499   7.215
36710SOL    HW111962   8.784  10.574   7.273
36710SOL    HW211963   8.854  10.503   7.159
36711SOL     OW11964   4.156   6.212   3.257
36711SOL    HW111965   4.062   6.225   3.245
36711SOL    HW211966   4.162   6.146   3.326
36712SOL     OW11967   5.590  13.927   5.807
36712SOL    HW111968   5.666  13.891   5.854
36712SOL    HW211969   5.559  13.998   5.864
36713SOL     OW11970   0.581  14.822   5.781
36713SOL    HW111971   0.535  14.763   5.841
36713SOL    HW211972   0.637  14.764   5.729
36714SOL     OW11973   4.326  13.681   4.710
36714SOL    HW111974   4.245  13.635   4.690
36714SOL    HW211975   4.371  13.624   4.773
36715SOL     OW11976   7.115   8.280  13.088
36715SOL    HW111977   7.031   8.292  13.131
36715SOL    HW211978   7.154   8.368  13.085
36716SOL     OW11979   0.368  13.074  14.784
36716SOL    HW111980   0.316  13.029  14.851
36716SOL    HW211981   0.416  13.004  14.740
36717SOL     OW11982  14.417   5.757  13.908
36717SOL    HW111983  14.337   5.805  13.924
36717SOL    HW211984  14.391   5.665  13.912
36718SOL     OW11985  13.288   3.138   2.528
36718SOL    HW111986  13.338   3.190   2.466
36718SOL    HW211987  13.354   3.095   2.582
36719SOL     OW11988  10.257   8.551   6.115
36719SOL    HW111989  10.259   8.643   6.088
36719SOL    HW211990  10.278   8.553   6.209
36720SOL     OW11991   3.952   4.152  11.639
36720SOL    HW111992   4.014   4.122  11.573
36720SOL    HW211993   3.874   4.176  11.589
36721SOL     OW11994  14.685   3.894   3.055
36721SOL    HW111995  14.759   3.947   3.084
36721SOL    HW211996  14.610   3.931   3.102
36722SOL     OW11997   1.743   5.658   7.874
36722SOL    HW111998   1.693   5.647   7.955
36722SOL    HW211999   1.806   5.727   7.895
36723SOL     OW12000   6.513   2.990  12.615
36723SOL    HW112001   6.429   2.994  12.661
36723SOL    HW212002   6.569   2.939  12.673
36724SOL     OW12003  14.053   9.295  11.254
36724SOL    HW112004  14.088   9.206  11.259
36724SOL    HW212005  13.979   9.289  11.193
36725SOL     OW12006  10.916  10.627   2.936
36725SOL    HW112007  10.854  10.567   2.977
36725SOL    HW212008  11.001  10.599   2.969
36726SOL     OW12009   1.200  11.118  10.283
36726SOL    HW112010   1.144  11.055  10.239
36726SOL    HW212011   1.162  11.128  10.371
36727SOL     OW12012   1.024   9.435  12.402
36727SOL    HW112013   1.118   9.419  12.391
36727SOL    HW212014   0.988   9.352  12.432
36728SOL     OW12015  10.925  10.101   0.083
36728SOL    HW112016  10.918  10.195   0.071
36728SOL    HW212017  10.976  10.091   0.163
36729SOL     OW12018   9.681   0.768  14.436
36729SOL    HW112019   9.604   0.711  14.426
36729SOL    HW212020   9.729   0.758  14.354
36730SOL     OW12021   1.746   6.485   4.648
36730SOL    HW112022   1.820   6.443   4.693
36730SOL    HW212023   1.716   6.553   4.709
36731SOL     OW12024   3.162   9.269   5.655
36731SOL    HW112025   3.188   9.193   5.604
36731SOL    HW212026   3.192   9.251   5.744
36732SOL     OW12027  13.453   6.659  11.442
36732SOL    HW112028  13.404   6.586  11.480
36732SOL    HW212029  13.385   6.716  11.405
36733SOL     OW12030  14.371   9.575   9.810
36733SOL    HW112031  14.313   9.532   9.873
36733SOL    HW212032  14.349   9.668   9.817
36734SOL     OW12033   7.021   7.794  13.823
36734SOL    HW112034   7.087   7.771  13.757
36734SOL    HW212035   7.013   7.716  13.878
36735SOL     OW12036   1.013   6.920  11.171
36735SOL    HW112037   0.963   6.996  11.202
36735SOL    HW212038   0.947   6.861  11.136
36736SOL     OW12039   9.034   2.759   8.907
36736SOL    HW112040   8.958   2.768   8.849
36736SOL    HW212041   9.007   2.696   8.973
36737SOL     OW12042   0.083   4.585  14.800
36737SOL    HW112043   0.046   4.629   0.005
36737SOL    HW212044   0.177   4.595  14.809
36738SOL     OW12045   5.677  10.316   3.302
36738SOL    HW112046   5.646  10.251   3.239
36738SOL    HW212047   5.684  10.269   3.385
36739SOL     OW12048   8.715   4.933   8.846
36739SOL    HW112049   8.802   4.898   8.868
36739SOL    HW212050   8.679   4.870   8.784
36740SOL     OW12051   3.305   0.420   9.754
36740SOL    HW112052   3.398   0.404   9.736
36740SOL    HW212053   3.270   0.451   9.670
36741SOL     OW12054  11.031  13.567   7.721
36741SOL    HW112055  10.964  13.562   7.789
36741SOL    HW212056  11.109  13.529   7.761
36742SOL     OW12057   5.270   5.056   1.665
36742SOL    HW112058   5.272   5.091   1.753
36742SOL    HW212059   5.177   5.038   1.648
36743SOL     OW12060   4.825   0.851   2.028
36743SOL    HW112061   4.807   0.801   2.107
36743SOL    HW212062   4.787   0.938   2.045
36744SOL     OW12063   8.755   9.038   8.321
36744SOL    HW112064   8.714   9.117   8.284
36744SOL    HW212065   8.762   9.058   8.415
36745SOL     OW12066   8.806   9.975   4.226
36745SOL    HW112067   8.777  10.063   4.250
36745SOL    HW212068   8.757   9.954   4.147
36746SOL     OW12069  14.795   2.042  13.408
36746SOL    HW112070  14.783   1.985  13.332
36746SOL    HW212071  14.870   2.096  13.386
36747SOL     OW12072   7.899  10.606   0.905
36747SOL    HW112073   7.871  10.523   0.866
36747SOL    HW212074   7.991  10.592   0.927
36748SOL     OW12075  12.517  13.641  13.061
36748SOL    HW112076  12.456  13.689  13.116
36748SOL    HW212077  12.564  13.709  13.012
36749SOL     OW12078  10.362   2.333   1.245
36749SOL    HW112079  10.405   2.280   1.313
36749SOL    HW212080  10.406   2.417   1.248
36750SOL     OW12081   8.075   2.060   5.526
36750SOL    HW112082   7.989   2.103   5.536
36750SOL    HW212083   8.097   2.032   5.615
36751SOL     OW12084   7.693  13.641   0.443
36751SOL    HW112085   7.756  13.624   0.373
36751SOL    HW212086   7.688  13.559   0.491
36752SOL     OW12087  13.785   7.922  13.400
36752SOL    HW112088  13.769   8.016  13.407
36752SOL    HW212089  13.755   7.886  13.484
36753SOL     OW12090   9.567   3.260  10.868
36753SOL    HW112091   9.630   3.272  10.797
36753SOL    HW212092   9.482   3.283  10.829
36754SOL     OW12093  13.861   6.654  14.463
36754SOL    HW112094  13.903   6.691  14.541
36754SOL    HW212095  13.769   6.644  14.488
36755SOL     OW12096   4.409   3.781   3.617
36755SOL    HW112097   4.317   3.758   3.612
36755SOL    HW212098   4.428   3.824   3.534
36756SOL     OW12099   9.524   0.232  12.147
36756SOL    HW112100   9.527   0.198  12.236
36756SOL    HW212101   9.441   0.281  12.142
36757SOL     OW12102  12.720   6.894   9.533
36757SOL    HW112103  12.653   6.872   9.597
36757SOL    HW212104  12.738   6.987   9.548
36758SOL     OW12105  12.883   7.809   3.365
36758SOL    HW112106  12.828   7.738   3.397
36758SOL    HW212107  12.970   7.770   3.355
36759SOL     OW12108   7.618   9.191   4.717
36759SOL    HW112109   7.711   9.195   4.694
36759SOL    HW212110   7.580   9.132   4.652
36760SOL     OW12111  12.020   0.588  10.431
36760SOL    HW112112  11.993   0.522  10.367
36760SOL    HW212113  11.959   0.661  10.418
36761SOL     OW12114   8.889  13.217   2.825
36761SOL    HW112115   8.954  13.175   2.882
36761SOL    HW212116   8.923  13.305   2.810
36762SOL     OW12117   2.799  11.867   4.348
36762SOL    HW112118   2.741  11.791   4.356
36762SOL    HW212119   2.835  11.879   4.436
36763SOL     OW12120  14.112   6.116   9.805
36763SOL    HW112121  14.057   6.101   9.882
36763SOL    HW212122  14.110   6.032   9.758
36764SOL     OW12123   8.051   9.290   0.248
36764SOL    HW112124   8.080   9.330   0.330
36764SOL    HW212125   8.128   9.294   0.191
36765SOL     OW12126   6.605   8.407   6.482
36765SOL    HW112127   6.522   8.446   6.511
36765SOL    HW212128   6.671   8.471   6.509
36766SOL     OW12129   3.695   1.747  10.946
36766SOL    HW112130   3.646   1.789  11.016
36766SOL    HW212131   3.755   1.687  10.991
36767SOL     OW12132   6.311   3.745   3.147
36767SOL    HW112133   6.335   3.688   3.074
36767SOL    HW212134   6.278   3.686   3.214
36768SOL     OW12135   9.559  14.452   8.748
36768SOL    HW112136   9.572  14.417   8.660
36768SOL    HW212137   9.476  14.499   8.743
36769SOL     OW12138   8.131   4.881   6.996
36769SOL    HW112139   8.112   4.963   7.042
36769SOL    HW212140   8.174   4.909   6.915
36770SOL     OW12141  10.744   8.470  12.198
36770SOL    HW112142  10.790   8.540  12.244
36770SOL    HW212143  10.710   8.413  12.267
36771SOL     OW12144  14.587   8.313   3.746
36771SOL    HW112145  14.596   8.365   3.827
36771SOL    HW212146  14.492   8.307   3.732
36772SOL     OW12147   7.250   0.206   9.130
36772SOL    HW112148   7.187   0.148   9.173
36772SOL    HW212149   7.229   0.293   9.163
36773SOL     OW12150   3.945   3.311  12.273
36773SOL    HW112151   3.887   3.264  12.213
36773SOL    HW212152   4.019   3.252  12.286
36774SOL     OW12153  11.826  12.201   6.843
36774SOL    HW112154  11.833  12.218   6.749
36774SOL    HW212155  11.917  12.191   6.873
36775SOL     OW12156   8.017   6.130   0.446
36775SOL    HW112157   8.087   6.172   0.397
36775SOL    HW212158   8.013   6.177   0.529
36776SOL     OW12159  12.823   3.362  14.415
36776SOL    HW112160  12.791   3.452  14.417
36776SOL    HW212161  12.917   3.369  14.431
36777SOL     OW12162   4.402   4.277   4.389
36777SOL    HW112163   4.335   4.217   4.357
36777SOL    HW212164   4.478   4.222   4.407
36778SOL     OW12165   5.223   9.239  14.434
36778SOL    HW112166   5.147   9.254  14.491
36778SOL    HW212167   5.298   9.240  14.494
36779SOL     OW12168   4.383   1.799  12.151
36779SOL    HW112169   4.360   1.836  12.237
36779SOL    HW212170   4.465   1.844  12.128
36780SOL     OW12171  13.032   7.458   5.085
36780SOL    HW112172  13.105   7.492   5.136
36780SOL    HW212173  13.041   7.363   5.091
36781SOL     OW12174  10.275   7.587  10.480
36781SOL    HW112175  10.249   7.620  10.394
36781SOL    HW212176  10.354   7.638  10.501
36782SOL     OW12177   0.598  13.322   7.412
36782SOL    HW112178   0.583  13.334   7.318
36782SOL    HW212179   0.516  13.286   7.446
36783SOL     OW12180   6.439  14.401   4.967
36783SOL    HW112181   6.529  14.428   4.985
36783SOL    HW212182   6.439  14.375   4.875
36784SOL     OW12183   0.337   1.445   2.987
36784SOL    HW112184   0.404   1.377   2.994
36784SOL    HW212185   0.290   1.442   3.070
36785SOL     OW12186   4.871   4.684   6.642
36785SOL    HW112187   4.889   4.696   6.735
36785SOL    HW212188   4.946   4.723   6.598
36786SOL     OW12189   0.275  11.601  13.202
36786SOL    HW112190   0.208  11.667  13.222
36786SOL    HW212191   0.352  11.652  13.177
36787SOL     OW12192   7.623  11.782  14.063
36787SOL    HW112193   7.650  11.701  14.107
36787SOL    HW212194   7.671  11.781  13.980
36788SOL     OW12195   0.473   1.603   9.431
36788SOL    HW112196   0.434   1.585   9.517
36788SOL    HW212197   0.441   1.690   9.408
36789SOL     OW12198   5.123   3.700  14.470
36789SOL    HW112199   5.195   3.640  14.489
36789SOL    HW212200   5.049   3.643  14.447
36790SOL     OW12201  11.325   6.600   0.459
36790SOL    HW112202  11.252   6.641   0.504
36790SOL    HW212203  11.306   6.610   0.366
36791SOL     OW12204  13.951   2.731   9.860
36791SOL    HW112205  13.958   2.721   9.955
36791SOL    HW212206  13.866   2.692   9.839
36792SOL     OW12207   8.149   9.308   1.082
36792SOL    HW112208   8.227   9.266   1.118
36792SOL    HW212209   8.104   9.239   1.034
36793SOL     OW12210   9.845  12.891  11.188
36793SOL    HW112211   9.926  12.844  11.167
36793SOL    HW212212   9.815  12.926  11.105
36794SOL     OW12213   3.987   7.678   6.431
36794SOL    HW112214   4.022   7.699   6.344
36794SOL    HW212215   4.057   7.632   6.476
36795SOL     OW12216   3.937   8.156   8.031
36795SOL    HW112217   3.849   8.139   8.063
36795SOL    HW212218   3.951   8.087   7.965
36796SOL     OW12219  10.335  10.546   5.431
36796SOL    HW112220  10.266  10.500   5.384
36796SOL    HW212221  10.288  10.609   5.487
36797SOL     OW12222   3.944  13.416  11.474
36797SOL    HW112223   3.935  13.327  11.507
36797SOL    HW212224   3.915  13.472  11.546
36798SOL     OW12225   1.696  11.178   6.201
36798SOL    HW112226   1.605  11.148   6.207
36798SOL    HW212227   1.739  11.136   6.276
36799SOL     OW12228  13.970  12.541  13.491
36799SOL    HW112229  13.951  12.540  13.397
36799SOL    HW212230  14.037  12.609  13.501
36800SOL     OW12231   0.161  10.465   2.663
36800SOL    HW112232   0.153  10.392   2.602
36800SOL    HW212233   0.089  10.452   2.725
36801SOL     OW12234  14.454   2.018  14.007
36801SOL    HW112235  14.524   2.006  14.071
36801SOL    HW212236  14.401   2.090  14.043
36802SOL     OW12237   4.411  12.968   8.641
36802SOL    HW112238   4.494  12.999   8.605
36802SOL    HW212239   4.412  12.995   8.733
36803SOL     OW12240  12.607  12.611  14.100
36803SOL    HW112241  12.665  12.647  14.167
36803SOL    HW212242  12.664  12.600  14.023
36804SOL     OW12243   0.989  12.046  13.627
36804SOL    HW112244   1.084  12.059  13.624
36804SOL    HW212245   0.953  12.124  13.586
36805SOL     OW12246   9.845   7.993   8.307
36805SOL    HW112247   9.906   7.931   8.346
36805SOL    HW212248   9.887   8.021   8.226
36806SOL     OW12249   4.762  14.640   9.056
36806SOL    HW112250   4.760  14.582   8.980
36806SOL    HW212251   4.796  14.723   9.023
36807SOL     OW12252   0.959   1.158   7.136
36807SOL    HW112253   0.933   1.095   7.069
36807SOL    HW212254   1.038   1.199   7.102
36808SOL     OW12255  14.386   1.519   1.958
36808SOL    HW112256  14.377   1.427   1.933
36808SOL    HW212257  14.386   1.567   1.875
36809SOL     OW12258   3.113   4.335   7.592
36809SOL    HW112259   3.044   4.390   7.554
36809SOL    HW212260   3.189   4.353   7.537
36810SOL     OW12261   8.857   4.276   7.254
36810SOL    HW112262   8.815   4.300   7.336
36810SOL    HW212263   8.898   4.191   7.272
36811SOL     OW12264  11.424   9.917  14.293
36811SOL    HW112265  11.396   9.984  14.356
36811SOL    HW212266  11.472   9.967  14.226
36812SOL     OW12267  10.136  13.067  12.687
36812SOL    HW112268  10.225  13.098  12.707
36812SOL    HW212269  10.080  13.141  12.708
36813SOL     OW12270  12.246   1.430   3.349
36813SOL    HW112271  12.295   1.427   3.431
36813SOL    HW212272  12.235   1.338   3.324
36814SOL     OW12273  10.873   0.974   5.902
36814SOL    HW112274  10.916   0.959   5.818
36814SOL    HW212275  10.878   0.890   5.947
36815SOL     OW12276  14.277   9.647   4.923
36815SOL    HW112277  14.278   9.573   4.862
36815SOL    HW212278  14.185   9.654   4.951
36816SOL     OW12279   6.278   6.244   4.579
36816SOL    HW112280   6.245   6.299   4.650
36816SOL    HW212281   6.249   6.288   4.499
36817SOL     OW12282  12.431   4.657   9.042
36817SOL    HW112283  12.366   4.687   8.978
36817SOL    HW212284  12.388   4.586   9.088
36818SOL     OW12285   4.089  12.560  11.164
36818SOL    HW112286   4.034  12.615  11.220
36818SOL    HW212287   4.155  12.524  11.223
36819SOL     OW12288  10.212   5.789   2.607
36819SOL    HW112289  10.260   5.834   2.676
36819SOL    HW212290  10.261   5.808   2.527
36820SOL     OW12291  10.238   0.156  13.817
36820SOL    HW112292  10.213   0.240  13.855
36820SOL    HW212293  10.239   0.096  13.892
36821SOL     OW12294   2.734  10.661   4.111
36821SOL    HW112295   2.799  10.663   4.040
36821SOL    HW212296   2.772  10.716   4.179
36822SOL     OW12297   3.930   3.243   7.344
36822SOL    HW112298   3.942   3.229   7.250
36822SOL    HW212299   3.946   3.336   7.356
36823SOL     OW12300   2.532   8.252   6.712
36823SOL    HW112301   2.491   8.167   6.699
36823SOL    HW212302   2.470   8.301   6.766
36824SOL     OW12303   8.853   7.940   9.700
36824SOL    HW112304   8.830   7.856   9.662
36824SOL    HW212305   8.935   7.964   9.657
36825SOL     OW12306   4.045   0.335   2.171
36825SOL    HW112307   4.075   0.296   2.252
36825SOL    HW212308   3.971   0.390   2.197
36826SOL     OW12309   4.090   3.868   3.742
36826SOL    HW112310   4.145   3.823   3.678
36826SOL    HW212311   4.001   3.859   3.708
36827SOL     OW12312   8.884  14.438  12.717
36827SOL    HW112313   8.936  14.416  12.640
36827SOL    HW212314   8.924  14.518  12.751
36828SOL     OW12315   8.761  10.167   2.542
36828SOL    HW112316   8.818  10.119   2.601
36828SOL    HW212317   8.815  10.240   2.510
36829SOL     OW12318   5.033   4.243  12.899
36829SOL    HW112319   4.943   4.235  12.930
36829SOL    HW212320   5.075   4.161  12.927
36830SOL     OW12321  10.569   9.159  13.646
36830SOL    HW112322  10.636   9.104  13.606
36830SOL    HW212323  10.604   9.181  13.733
36831SOL     OW12324  14.234   3.588   5.247
36831SOL    HW112325  14.276   3.514   5.293
36831SOL    HW212326  14.291   3.663   5.266
36832SOL     OW12327   9.770  10.514  13.117
36832SOL    HW112328   9.827  10.447  13.080
36832SOL    HW212329   9.682  10.479  13.105
36833SOL     OW12330  12.511  10.333   1.001
36833SOL    HW112331  12.548  10.266   0.943
36833SOL    HW212332  12.578  10.345   1.068
36834SOL     OW12333  13.880   3.209  12.043
36834SOL    HW112334  13.876   3.135  11.981
36834SOL    HW212335  13.854   3.285  11.991
36835SOL     OW12336   1.852  12.188   2.202
36835SOL    HW112337   1.781  12.206   2.264
36835SOL    HW212338   1.932  12.214   2.247
36836SOL     OW12339   8.514   7.521  12.158
36836SOL    HW112340   8.511   7.426  12.148
36836SOL    HW212341   8.436   7.553  12.114
36837SOL     OW12342  11.459   9.245   4.799
36837SOL    HW112343  11.430   9.253   4.890
36837SOL    HW212344  11.453   9.151   4.780
36838SOL     OW12345   8.780   5.188   1.864
36838SOL    HW112346   8.799   5.182   1.771
36838SOL    HW212347   8.685   5.178   1.870
36839SOL     OW12348   7.589   8.683  11.604
36839SOL    HW112349   7.588   8.767  11.557
36839SOL    HW212350   7.546   8.622  11.545
36840SOL     OW12351   3.664   2.055  10.044
36840SOL    HW112352   3.689   1.978   9.993
36840SOL    HW212353   3.606   2.104   9.986
36841SOL     OW12354   0.530   4.763   8.500
36841SOL    HW112355   0.624   4.745   8.508
36841SOL    HW212356   0.489   4.677   8.491
36842SOL     OW12357  14.287  10.005   9.244
36842SOL    HW112358  14.360  10.000   9.305
36842SOL    HW212359  14.232   9.929   9.267
36843SOL     OW12360   8.697  12.665  11.577
36843SOL    HW112361   8.692  12.590  11.637
36843SOL    HW212362   8.713  12.625  11.491
36844SOL     OW12363   7.725  11.556  14.208
36844SOL    HW112364   7.691  11.489  14.149
36844SOL    HW212365   7.665  11.554  14.283
36845SOL     OW12366  12.640   8.765  14.795
36845SOL    HW112367  12.592   8.742   0.002
36845SOL    HW212368  12.618   8.696  14.733
36846SOL     OW12369  10.257   3.280   4.231
36846SOL    HW112370  10.320   3.350   4.214
36846SOL    HW212371  10.213   3.267   4.147
36847SOL     OW12372   6.140  11.312   2.263
36847SOL    HW112373   6.106  11.326   2.175
36847SOL    HW212374   6.212  11.375   2.272
36848SOL     OW12375   2.287  11.568   0.916
36848SOL    HW112376   2.289  11.635   0.847
36848SOL    HW212377   2.215  11.510   0.890
36849SOL     OW12378  12.069  10.686  10.419
36849SOL    HW112379  12.057  10.675  10.325
36849SOL    HW212380  12.095  10.777  10.430
36850SOL     OW12381   3.007   4.685  11.983
36850SOL    HW112382   2.963   4.629  12.047
36850SOL    HW212383   3.089   4.710  12.026
36851SOL     OW12384   7.101   7.379   1.378
36851SOL    HW112385   7.128   7.335   1.297
36851SOL    HW212386   7.166   7.449   1.389
36852SOL     OW12387  12.960   6.805  13.465
36852SOL    HW112388  12.964   6.889  13.421
36852SOL    HW212389  12.964   6.826  13.558
36853SOL     OW12390   5.229  12.063   3.392
36853SOL    HW112391   5.220  12.156   3.409
36853SOL    HW212392   5.221  12.022   3.479
36854SOL     OW12393   8.992   3.569  10.456
36854SOL    HW112394   8.900   3.559  10.480
36854SOL    HW212395   8.992   3.572  10.361
36855SOL     OW12396   1.678   8.461   5.809
36855SOL    HW112397   1.693   8.485   5.900
36855SOL    HW212398   1.756   8.411   5.784
36856SOL     OW12399   1.490  14.642  14.373
36856SOL    HW112400   1.430  14.644  14.448
36856SOL    HW212401   1.571  14.680  14.406
36857SOL     OW12402   4.753   8.187   8.671
36857SOL    HW112403   4.719   8.197   8.760
36857SOL    HW212404   4.684   8.140   8.625
36858SOL     OW12405  11.748   4.761  12.758
36858SOL    HW112406  11.774   4.680  12.715
36858SOL    HW212407  11.742   4.825  12.687
36859SOL     OW12408   0.377   6.303  14.045
36859SOL    HW112409   0.309   6.300  14.112
36859SOL    HW212410   0.452   6.258  14.084
36860SOL     OW12411   0.700   5.838   4.925
36860SOL    HW112412   0.628   5.840   4.988
36860SOL    HW212413   0.743   5.755   4.941
36861SOL     OW12414   5.487   8.563   1.950
36861SOL    HW112415   5.530   8.509   1.883
36861SOL    HW212416   5.535   8.646   1.948
36862SOL     OW12417  14.469  11.476   8.762
36862SOL    HW112418  14.511  11.396   8.730
36862SOL    HW212419  14.393  11.445   8.812
36863SOL     OW12420   5.248   7.696  10.423
36863SOL    HW112421   5.242   7.605  10.453
36863SOL    HW212422   5.173   7.708  10.365
36864SOL     OW12423   0.066  14.731   6.980
36864SOL    HW112424   0.085  14.652   6.930
36864SOL    HW212425  14.851  14.716   7.017
36865SOL     OW12426   8.228  11.519   6.927
36865SOL    HW112427   8.267  11.591   6.876
36865SOL    HW212428   8.281  11.515   7.007
36866SOL     OW12429   2.010   0.504   4.225
36866SOL    HW112430   2.079   0.438   4.220
36866SOL    HW212431   2.047   0.574   4.280
36867SOL     OW12432  10.227  14.866  13.596
36867SOL    HW112433  10.194  14.787  13.638
36867SOL    HW212434  10.231   0.059  13.665
36868SOL     OW12435   8.381   0.986   7.142
36868SOL    HW112436   8.443   1.058   7.148
36868SOL    HW212437   8.323   0.998   7.217
36869SOL     OW12438   7.097  12.369   6.991
36869SOL    HW112439   7.018  12.370   6.937
36869SOL    HW212440   7.115  12.276   7.005
36870SOL     OW12441   6.701   2.147  12.252
36870SOL    HW112442   6.617   2.179  12.219
36870SOL    HW212443   6.762   2.162  12.180
36871SOL     OW12444  12.426   0.220   5.565
36871SOL    HW112445  12.482   0.298   5.571
36871SOL    HW212446  12.405   0.199   5.656
36872SOL     OW12447   4.471   7.432  14.686
36872SOL    HW112448   4.541   7.464  14.743
36872SOL    HW212449   4.495   7.342  14.667
36873SOL     OW12450   1.720  10.362   5.338
36873SOL    HW112451   1.716  10.289   5.399
36873SOL    HW212452   1.708  10.322   5.252
36874SOL     OW12453  10.819  14.232   1.026
36874SOL    HW112454  10.725  14.215   1.026
36874SOL    HW212455  10.829  14.314   0.978
36875SOL     OW12456   1.960   7.785  13.942
36875SOL    HW112457   1.894   7.764  14.008
36875SOL    HW212458   2.032   7.823  13.992
36876SOL     OW12459   3.486   1.724   2.207
36876SOL    HW112460   3.488   1.800   2.265
36876SOL    HW212461   3.468   1.650   2.266
36877SOL     OW12462   5.419  13.963   1.611
36877SOL    HW112463   5.397  13.872   1.633
36877SOL    HW212464   5.344  13.995   1.563
36878SOL     OW12465   1.369   1.306   1.141
36878SOL    HW112466   1.393   1.361   1.067
36878SOL    HW212467   1.352   1.220   1.103
36879SOL     OW12468   4.834  14.680   2.406
36879SOL    HW112469   4.871  14.603   2.364
36879SOL    HW212470   4.801  14.649   2.490
36880SOL     OW12471   6.729  12.809   1.585
36880SOL    HW112472   6.721  12.722   1.625
36880SOL    HW212473   6.802  12.800   1.524
36881SOL     OW12474   2.893  11.064   2.134
36881SOL    HW112475   2.935  11.143   2.168
36881SOL    HW212476   2.885  11.007   2.211
36882SOL     OW12477   6.524  14.606  10.911
36882SOL    HW112478   6.468  14.603  10.989
36882SOL    HW212479   6.479  14.665  10.851
36883SOL     OW12480   5.078  13.628  10.515
36883SOL    HW112481   4.988  13.596  10.515
36883SOL    HW212482   5.097  13.647  10.423
36884SOL     OW12483   4.249   0.454   3.576
36884SOL    HW112484   4.248   0.374   3.629
36884SOL    HW212485   4.196   0.516   3.626
36885SOL     OW12486   3.869  12.011   8.524
36885SOL    HW112487   3.955  12.003   8.483
36885SOL    HW212488   3.818  11.939   8.488
36886SOL     OW12489   0.672   2.814   9.793
36886SOL    HW112490   0.674   2.724   9.827
36886SOL    HW212491   0.639   2.866   9.866
36887SOL     OW12492   8.277   1.551  14.157
36887SOL    HW112493   8.273   1.623  14.094
36887SOL    HW212494   8.326   1.586  14.231
36888SOL     OW12495  13.435   7.329  11.523
36888SOL    HW112496  13.429   7.259  11.458
36888SOL    HW212497  13.379   7.399  11.488
36889SOL     OW12498  12.449   5.333   5.606
36889SOL    HW112499  12.372   5.364   5.559
36889SOL    HW212500  12.490   5.413   5.640
36890SOL     OW12501  11.064  13.821   8.833
36890SOL    HW112502  11.146  13.869   8.843
36890SOL    HW212503  11.079  13.737   8.877
36891SOL     OW12504   1.017   3.589   8.096
36891SOL    HW112505   1.005   3.668   8.045
36891SOL    HW212506   1.060   3.618   8.177
36892SOL     OW12507   9.440  10.062   6.414
36892SOL    HW112508   9.438   9.985   6.471
36892SOL    HW212509   9.380  10.124   6.455
36893SOL     OW12510   9.200  11.146   1.858
36893SOL    HW112511   9.255  11.118   1.784
36893SOL    HW212512   9.207  11.242   1.858
36894SOL     OW12513   2.430  14.081   3.972
36894SOL    HW112514   2.465  14.165   4.003
36894SOL    HW212515   2.380  14.104   3.893
36895SOL     OW12516   5.635  10.388   2.549
36895SOL    HW112517   5.697  10.327   2.509
36895SOL    HW212518   5.562  10.391   2.487
36896SOL     OW12519  12.489   0.262   8.589
36896SOL    HW112520  12.521   0.175   8.565
36896SOL    HW212521  12.427   0.245   8.660
36897SOL     OW12522   3.759  10.527   0.755
36897SOL    HW112523   3.733  10.436   0.771
36897SOL    HW212524   3.677  10.577   0.759
36898SOL     OW12525   0.940  10.245  12.266
36898SOL    HW112526   0.851  10.255  12.298
36898SOL    HW212527   0.994  10.297  12.326
36899SOL     OW12528   0.984   9.490   8.096
36899SOL    HW112529   0.896   9.462   8.119
36899SOL    HW212530   1.041   9.419   8.128
36900SOL     OW12531   4.547   6.859   2.469
36900SOL    HW112532   4.591   6.910   2.401
36900SOL    HW212533   4.561   6.768   2.444
36901SOL     OW12534  10.591   7.186  13.230
36901SOL    HW112535  10.674   7.183  13.279
36901SOL    HW212536  10.552   7.100  13.242
36902SOL     OW12537  10.531   0.572   0.059
36902SOL    HW112538  10.481   0.566  14.850
36902SOL    HW212539  10.483   0.635   0.113
36903SOL     OW12540  14.742   9.368  13.345
36903SOL    HW112541  14.820   9.368  13.290
36903SOL    HW212542  14.680   9.425  13.299
36904SOL     OW12543   9.903   3.074   8.283
36904SOL    HW112544   9.862   2.997   8.322
36904SOL    HW212545   9.984   3.086   8.334
36905SOL     OW12546   6.114  10.133   1.156
36905SOL    HW112547   6.030  10.089   1.163
36905SOL    HW212548   6.094  10.226   1.165
36906SOL     OW12549  10.540   7.977   0.331
36906SOL    HW112550  10.444   7.974   0.323
36906SOL    HW212551  10.555   7.967   0.425
36907SOL     OW12552  10.242   4.837   0.367
36907SOL    HW112553  10.179   4.772   0.336
36907SOL    HW212554  10.225   4.914   0.314
36908SOL     OW12555   2.510  14.312   3.563
36908SOL    HW112556   2.558  14.372   3.506
36908SOL    HW212557   2.562  14.309   3.644
36909SOL     OW12558  12.050   9.111   0.568
36909SOL    HW112559  12.039   9.120   0.473
36909SOL    HW212560  12.110   9.182   0.591
36910SOL     OW12561  12.622  10.510  13.974
36910SOL    HW112562  12.614  10.593  14.022
36910SOL    HW212563  12.707  10.516  13.931
36911SOL     OW12564  13.911   8.699   4.220
36911SOL    HW112565  13.870   8.623   4.261
36911SOL    HW212566  13.861   8.774   4.254
36912SOL     OW12567  14.048  14.445   9.815
36912SOL    HW112568  14.049  14.373   9.879
36912SOL    HW212569  14.124  14.429   9.760
36913SOL     OW12570  14.558   6.284  10.595
36913SOL    HW112571  14.611   6.277  10.516
36913SOL    HW212572  14.594   6.218  10.654
36914SOL     OW12573   2.570   5.959   0.374
36914SOL    HW112574   2.583   6.051   0.352
36914SOL    HW212575   2.515   5.961   0.453
36915SOL     OW12576  13.916   1.146   1.409
36915SOL    HW112577  13.974   1.128   1.335
36915SOL    HW212578  13.940   1.082   1.475
36916SOL     OW12579   9.395   2.551   5.314
36916SOL    HW112580   9.460   2.613   5.282
36916SOL    HW212581   9.424   2.467   5.280
36917SOL     OW12582   9.859  13.184   5.870
36917SOL    HW112583   9.946  13.190   5.908
36917SOL    HW212584   9.800  13.186   5.945
36918SOL     OW12585  10.565   6.491   1.125
36918SOL    HW112586  10.548   6.403   1.159
36918SOL    HW212587  10.479   6.531   1.116
36919SOL     OW12588   0.689   6.821   3.305
36919SOL    HW112589   0.638   6.901   3.289
36919SOL    HW212590   0.751   6.817   3.232
36920SOL     OW12591  11.997   0.108   2.287
36920SOL    HW112592  11.960   0.194   2.264
36920SOL    HW212593  12.029   0.120   2.376
36921SOL     OW12594   4.391   9.997   7.227
36921SOL    HW112595   4.422   9.949   7.150
36921SOL    HW212596   4.405   9.936   7.300
36922SOL     OW12597  11.522   9.234   2.311
36922SOL    HW112598  11.477   9.309   2.274
36922SOL    HW212599  11.615   9.249   2.292
36923SOL     OW12600   8.199   4.892   5.413
36923SOL    HW112601   8.243   4.812   5.440
36923SOL    HW212602   8.126   4.901   5.474
36924SOL     OW12603   7.943   1.572   8.119
36924SOL    HW112604   8.001   1.516   8.170
36924SOL    HW212605   7.992   1.654   8.109
36925SOL     OW12606   2.241   0.386   6.718
36925SOL    HW112607   2.181   0.438   6.772
36925SOL    HW212608   2.192   0.307   6.696
36926SOL     OW12609   8.504  13.970   8.514
36926SOL    HW112610   8.446  14.041   8.539
36926SOL    HW212611   8.530  13.929   8.597
36927SOL     OW12612   9.903   1.855   5.019
36927SOL    HW112613   9.914   1.881   4.927
36927SOL    HW212614   9.905   1.937   5.068
36928SOL     OW12615  11.232   8.192   9.149
36928SOL    HW112616  11.241   8.276   9.194
36928SOL    HW212617  11.213   8.130   9.220
36929SOL     OW12618   7.124   6.407  10.176
36929SOL    HW112619   7.059   6.477  10.182
36929SOL    HW212620   7.205   6.451  10.149
36930SOL     OW12621   9.251   6.433  10.155
36930SOL    HW112622   9.249   6.516  10.204
36930SOL    HW212623   9.344   6.412  10.148
36931SOL     OW12624  14.344   6.121  12.945
36931SOL    HW112625  14.406   6.108  12.874
36931SOL    HW212626  14.347   6.214  12.964
36932SOL     OW12627   0.917   5.419   7.350
36932SOL    HW112628   0.822   5.421   7.336
36932SOL    HW212629   0.935   5.499   7.399
36933SOL     OW12630   1.577   0.883   4.969
36933SOL    HW112631   1.534   0.816   4.916
36933SOL    HW212632   1.507   0.918   5.024
36934SOL     OW12633   9.975  10.381   1.833
36934SOL    HW112634   9.995  10.316   1.900
36934SOL    HW212635  10.041  10.449   1.844
36935SOL     OW12636   9.595  12.846  13.630
36935SOL    HW112637   9.689  12.863  13.631
36935SOL    HW212638   9.560  12.908  13.566
36936SOL     OW12639   1.820   9.432  12.610
36936SOL    HW112640   1.787   9.420  12.521
36936SOL    HW212641   1.764   9.500  12.647
36937SOL     OW12642   2.317  10.148  11.249
36937SOL    HW112643   2.263  10.205  11.193
36937SOL    HW212644   2.255  10.110  11.311
36938SOL     OW12645   9.248   1.820   3.523
36938SOL    HW112646   9.290   1.791   3.443
36938SOL    HW212647   9.267   1.914   3.527
36939SOL     OW12648   5.169  10.017   6.442
36939SOL    HW112649   5.186  10.040   6.534
36939SOL    HW212650   5.162  10.101   6.397
36940SOL     OW12651   5.115   6.608  12.723
36940SOL    HW112652   5.153   6.589  12.637
36940SOL    HW212653   5.026   6.573  12.719
36941SOL     OW12654   6.315   2.574   0.542
36941SOL    HW112655   6.360   2.648   0.584
36941SOL    HW212656   6.354   2.497   0.582
36942SOL     OW12657   3.458   4.590   4.775
36942SOL    HW112658   3.387   4.571   4.713
36942SOL    HW212659   3.413   4.607   4.858
36943SOL     OW12660   0.822   6.751   7.775
36943SOL    HW112661   0.768   6.684   7.816
36943SOL    HW212662   0.843   6.716   7.689
36944SOL     OW12663   7.403   9.219  14.135
36944SOL    HW112664   7.409   9.228  14.039
36944SOL    HW212665   7.468   9.282  14.168
36945SOL     OW12666   4.542   0.294   3.932
36945SOL    HW112667   4.468   0.256   3.885
36945SOL    HW212668   4.605   0.318   3.863
36946SOL     OW12669   3.558  11.737  13.968
36946SOL    HW112670   3.621  11.668  13.945
36946SOL    HW212671   3.560  11.796  13.892
36947SOL     OW12672   5.443   2.862   4.919
36947SOL    HW112673   5.420   2.953   4.901
36947SOL    HW212674   5.425   2.816   4.837
36948SOL     OW12675  10.547   0.247   4.606
36948SOL    HW112676  10.639   0.270   4.621
36948SOL    HW212677  10.537   0.162   4.649
36949SOL     OW12678   6.991   2.759   8.564
36949SOL    HW112679   6.937   2.814   8.507
36949SOL    HW212680   6.930   2.696   8.602
36950SOL     OW12681   0.089   8.660   2.901
36950SOL    HW112682   0.084   8.697   2.813
36950SOL    HW212683   0.101   8.736   2.958
36951SOL     OW12684   0.222   2.813   1.586
36951SOL    HW112685   0.262   2.771   1.510
36951SOL    HW212686   0.171   2.885   1.549
36952SOL     OW12687   0.461  13.176  13.571
36952SOL    HW112688   0.540  13.131  13.542
36952SOL    HW212689   0.391  13.112  13.559
36953SOL     OW12690   2.398   2.369   8.450
36953SOL    HW112691   2.489   2.401   8.448
36953SOL    HW212692   2.399   2.298   8.513
36954SOL     OW12693   7.264   1.105  10.827
36954SOL    HW112694   7.351   1.084  10.861
36954SOL    HW212695   7.263   1.200  10.820
36955SOL     OW12696  14.005  12.682   7.286
36955SOL    HW112697  13.936  12.627   7.326
36955SOL    HW212698  14.006  12.656   7.194
36956SOL     OW12699   6.237   8.999   3.852
36956SOL    HW112700   6.199   9.078   3.890
36956SOL    HW212701   6.161   8.944   3.830
36957SOL     OW12702   2.025   4.684   6.909
36957SOL    HW112703   1.935   4.688   6.877
36957SOL    HW212704   2.047   4.775   6.930
36958SOL     OW12705   9.711  11.964   1.427
36958SOL    HW112706   9.659  11.886   1.408
36958SOL    HW212707   9.720  12.008   1.343
36959SOL     OW12708   7.568   5.871  12.123
36959SOL    HW112709   7.524   5.812  12.062
36959SOL    HW212710   7.659   5.874  12.092
36960SOL     OW12711  10.710  12.092  12.776
36960SOL    HW112712  10.661  12.171  12.801
36960SOL    HW212713  10.743  12.111  12.688
36961SOL     OW12714   3.579   5.286   1.760
36961SOL    HW112715   3.555   5.294   1.667
36961SOL    HW212716   3.556   5.371   1.797
36962SOL     OW12717   5.551   5.205  12.108
36962SOL    HW112718   5.581   5.291  12.077
36962SOL    HW212719   5.632   5.157  12.128
36963SOL     OW12720   9.981   8.325   6.816
36963SOL    HW112721  10.052   8.264   6.837
36963SOL    HW212722   9.908   8.268   6.789
36964SOL     OW12723   8.091   1.587   2.729
36964SOL    HW112724   8.116   1.623   2.814
36964SOL    HW212725   8.143   1.508   2.720
36965SOL     OW12726  14.584   2.539   0.988
36965SOL    HW112727  14.571   2.447   0.965
36965SOL    HW212728  14.527   2.587   0.928
36966SOL     OW12729   3.280   0.562   0.693
36966SOL    HW112730   3.361   0.597   0.730
36966SOL    HW212731   3.299   0.469   0.680
36967SOL     OW12732   8.870   5.245   6.515
36967SOL    HW112733   8.939   5.220   6.577
36967SOL    HW212734   8.791   5.201   6.547
36968SOL     OW12735  12.633   9.629   4.874
36968SOL    HW112736  12.618   9.722   4.890
36968SOL    HW212737  12.560   9.601   4.819
36969SOL     OW12738   9.862  12.787   5.025
36969SOL    HW112739   9.785  12.841   5.008
36969SOL    HW212740   9.829  12.697   5.032
36970SOL     OW12741  14.021   7.443   3.660
36970SOL    HW112742  14.024   7.427   3.566
36970SOL    HW212743  14.004   7.537   3.668
36971SOL     OW12744   9.233   2.778  14.167
36971SOL    HW112745   9.302   2.791  14.102
36971SOL    HW212746   9.222   2.864  14.209
36972SOL     OW12747   2.821   8.853  10.452
36972SOL    HW112748   2.807   8.807  10.534
36972SOL    HW212749   2.748   8.827  10.396
36973SOL     OW12750   3.343  12.840   0.111
36973SOL    HW112751   3.369  12.851   0.203
36973SOL    HW212752   3.252  12.809   0.116
36974SOL     OW12753  11.303   8.633  12.378
36974SOL    HW112754  11.357   8.710  12.359
36974SOL    HW212755  11.321   8.573  12.305
36975SOL     OW12756  13.404   8.988  13.683
36975SOL    HW112757  13.397   9.083  13.682
36975SOL    HW212758  13.319   8.957  13.651
36976SOL     OW12759  10.922  11.051  14.267
36976SOL    HW112760  10.973  11.049  14.187
36976SOL    HW212761  10.865  11.127  14.258
36977SOL     OW12762   1.496   8.975  14.011
36977SOL    HW112763   1.540   8.941  13.934
36977SOL    HW212764   1.539   8.931  14.085
36978SOL     OW12765   5.911  12.741   0.331
36978SOL    HW112766   5.973  12.813   0.343
36978SOL    HW212767   5.944  12.694   0.255
36979SOL     OW12768   0.360   6.046   6.772
36979SOL    HW112769   0.409   6.128   6.766
36979SOL    HW212770   0.422   5.979   6.743
36980SOL     OW12771   2.000  12.078   0.371
36980SOL    HW112772   2.032  12.149   0.316
36980SOL    HW212773   1.906  12.073   0.353
36981SOL     OW12774  10.926   0.289  14.731
36981SOL    HW112775  10.948   0.196  14.739
36981SOL    HW212776  11.010   0.333  14.731
36982SOL     OW12777   9.839   7.350   8.362
36982SOL    HW112778   9.835   7.293   8.285
36982SOL    HW212779   9.773   7.315   8.421
36983SOL     OW12780   8.788   7.124   6.964
36983SOL    HW112781   8.733   7.201   6.980
36983SOL    HW212782   8.863   7.136   7.022
36984SOL     OW12783   0.740   4.906   0.555
36984SOL    HW112784   0.735   4.989   0.603
36984SOL    HW212785   0.751   4.933   0.463
36985SOL     OW12786   5.639  13.211   1.348
36985SOL    HW112787   5.625  13.234   1.440
36985SOL    HW212788   5.616  13.290   1.300
36986SOL     OW12789   0.504   9.298   8.046
36986SOL    HW112790   0.448   9.226   8.017
36986SOL    HW212791   0.500   9.294   8.141
36987SOL     OW12792  13.435   6.485   1.632
36987SOL    HW112793  13.382   6.406   1.620
36987SOL    HW212794  13.373   6.557   1.624
36988SOL     OW12795   8.660  14.866  12.396
36988SOL    HW112796   8.665   0.089  12.402
36988SOL    HW212797   8.640  14.849  12.304
36989SOL     OW12798   6.423  12.116   9.515
36989SOL    HW112799   6.350  12.153   9.464
36989SOL    HW212800   6.406  12.022   9.515
36990SOL     OW12801   9.848   1.339   6.994
36990SOL    HW112802   9.870   1.430   7.008
36990SOL    HW212803   9.789   1.340   6.918
36991SOL     OW12804  14.054  13.083   9.728
36991SOL    HW112805  14.075  13.024   9.800
36991SOL    HW212806  13.961  13.070   9.713
36992SOL     OW12807   3.279   5.888   6.873
36992SOL    HW112808   3.199   5.925   6.837
36992SOL    HW212809   3.250   5.815   6.928
36993SOL     OW12810   4.407   4.743   3.494
36993SOL    HW112811   4.377   4.769   3.581
36993SOL    HW212812   4.329   4.745   3.439
36994SOL     OW12813   6.191   6.348   7.741
36994SOL    HW112814   6.141   6.281   7.696
36994SOL    HW212815   6.127   6.415   7.764
36995SOL     OW12816  11.116   7.895  10.818
36995SOL    HW112817  11.109   7.811  10.864
36995SOL    HW212818  11.110   7.961  10.886
36996SOL     OW12819   6.805  12.394   0.368
36996SOL    HW112820   6.838  12.355   0.287
36996SOL    HW212821   6.713  12.413   0.350
36997SOL     OW12822   6.305  10.870   9.601
36997SOL    HW112823   6.351  10.894   9.682
36997SOL    HW212824   6.375  10.844   9.541
36998SOL     OW12825  12.803   6.536  11.470
36998SOL    HW112826  12.718   6.578  11.480
36998SOL    HW212827  12.785   6.458  11.416
36999SOL     OW12828   1.331   6.539   9.635
36999SOL    HW112829   1.409   6.502   9.678
36999SOL    HW212830   1.278   6.464   9.611
37000SOL     OW12831   5.732  12.979  10.672
37000SOL    HW112832   5.817  12.992  10.716
37000SOL    HW212833   5.680  12.930  10.735
37001SOL     OW12834   3.858   7.274   8.727
37001SOL    HW112835   3.825   7.184   8.730
37001SOL    HW212836   3.940   7.268   8.678
37002SOL     OW12837  13.076  14.684   9.460
37002SOL    HW112838  13.161  14.714   9.428
37002SOL    HW212839  13.017  14.696   9.386
37003SOL     OW12840   3.345   5.795   5.413
37003SOL    HW112841   3.396   5.726   5.457
37003SOL    HW212842   3.391   5.808   5.330
37004SOL     OW12843  10.631   9.378   7.359
37004SOL    HW112844  10.547   9.344   7.388
37004SOL    HW212845  10.673   9.411   7.439
37005SOL     OW12846   6.165   5.177  11.732
37005SOL    HW112847   6.161   5.082  11.736
37005SOL    HW212848   6.107   5.207  11.802
37006SOL     OW12849  11.984   9.925  14.733
37006SOL    HW112850  11.987   9.983  14.809
37006SOL    HW212851  12.041   9.852  14.755
37007SOL     OW12852   3.547  12.146   3.255
37007SOL    HW112853   3.608  12.077   3.229
37007SOL    HW212854   3.586  12.185   3.333
37008SOL     OW12855   9.877   6.570   4.651
37008SOL    HW112856   9.906   6.576   4.560
37008SOL    HW212857   9.928   6.636   4.697
37009SOL     OW12858  14.778   6.476  13.003
37009SOL    HW112859  14.694   6.461  12.959
37009SOL    HW212860  14.770   6.431  13.086
37010SOL     OW12861  13.952   1.748   3.981
37010SOL    HW112862  14.044   1.770   3.989
37010SOL    HW212863  13.905   1.830   3.999
37011SOL     OW12864   3.923  13.874   8.893
37011SOL    HW112865   3.855  13.935   8.925
37011SOL    HW212866   3.967  13.844   8.972
37012SOL     OW12867  13.109  13.382   6.932
37012SOL    HW112868  13.181  13.369   6.870
37012SOL    HW212869  13.045  13.435   6.883
37013SOL     OW12870   0.747   3.854   0.043
37013SOL    HW112871   0.789   3.917  14.856
37013SOL    HW212872   0.794   3.864   0.125
37014SOL     OW12873  14.054   8.879  14.428
37014SOL    HW112874  14.025   8.941  14.496
37014SOL    HW212875  14.146   8.904  14.413
37015SOL     OW12876  12.484  11.963  10.138
37015SOL    HW112877  12.533  11.972  10.056
37015SOL    HW212878  12.482  12.051  10.175
37016SOL     OW12879   9.628  12.436   8.904
37016SOL    HW112880   9.658  12.412   8.817
37016SOL    HW212881   9.555  12.496   8.889
37017SOL     OW12882   8.500   5.034  12.897
37017SOL    HW112883   8.464   5.100  12.956
37017SOL    HW212884   8.430   4.969  12.888
37018SOL     OW12885  11.323   9.798  10.232
37018SOL    HW112886  11.417   9.814  10.246
37018SOL    HW212887  11.295   9.753  10.312
37019SOL     OW12888   3.173   0.738  14.478
37019SOL    HW112889   3.082   0.712  14.490
37019SOL    HW212890   3.169   0.810  14.414
37020SOL     OW12891  12.325   9.004  11.189
37020SOL    HW112892  12.341   8.923  11.141
37020SOL    HW212893  12.390   9.004  11.259
37021SOL     OW12894  14.752  12.033  14.813
37021SOL    HW112895  14.797  11.950  14.793
37021SOL    HW212896  14.709  12.056  14.731
37022SOL     OW12897  13.322  13.866   7.911
37022SOL    HW112898  13.290  13.776   7.915
37022SOL    HW212899  13.290  13.899   7.827
37023SOL     OW12900   9.292   3.419   6.483
37023SOL    HW112901   9.272   3.504   6.444
37023SOL    HW212902   9.209   3.390   6.520
37024SOL     OW12903   8.914   7.250  11.597
37024SOL    HW112904   8.964   7.318  11.550
37024SOL    HW212905   8.912   7.176  11.536
37025SOL     OW12906   3.454   9.203   0.293
37025SOL    HW112907   3.379   9.171   0.342
37025SOL    HW212908   3.475   9.132   0.232
37026SOL     OW12909   9.392   6.195   1.341
37026SOL    HW112910   9.332   6.121   1.338
37026SOL    HW212911   9.369   6.242   1.421
37027SOL     OW12912   2.377   7.887   4.959
37027SOL    HW112913   2.426   7.847   5.031
37027SOL    HW212914   2.347   7.970   4.993
37028SOL     OW12915   6.924   8.073  12.180
37028SOL    HW112916   6.875   8.063  12.262
37028SOL    HW212917   7.006   8.026  12.196
37029SOL     OW12918  14.070  11.775   0.258
37029SOL    HW112919  14.024  11.835   0.200
37029SOL    HW212920  14.095  11.829   0.333
37030SOL     OW12921   1.577  11.561   7.084
37030SOL    HW112922   1.608  11.473   7.105
37030SOL    HW212923   1.558  11.601   7.169
37031SOL     OW12924   8.329   1.958  12.708
37031SOL    HW112925   8.234   1.948  12.703
37031SOL    HW212926   8.343   2.020  12.780
37032SOL     OW12927   6.575   0.268   0.059
37032SOL    HW112928   6.546   0.187   0.101
37032SOL    HW212929   6.510   0.284  14.863
37033SOL     OW12930   8.766  12.749  11.138
37033SOL    HW112931   8.835  12.738  11.072
37033SOL    HW212932   8.758  12.663  11.179
37034SOL     OW12933   6.484  14.300   9.789
37034SOL    HW112934   6.507  14.249   9.711
37034SOL    HW212935   6.415  14.359   9.759
37035SOL     OW12936   6.493   7.966   4.814
37035SOL    HW112937   6.518   7.947   4.905
37035SOL    HW212938   6.515   8.058   4.801
37036SOL     OW12939   8.738  13.197   1.520
37036SOL    HW112940   8.806  13.235   1.464
37036SOL    HW212941   8.657  13.211   1.473
37037SOL     OW12942   5.844   9.462   9.274
37037SOL    HW112943   5.831   9.401   9.201
37037SOL    HW212944   5.876   9.542   9.232
37038SOL     OW12945   0.299   6.141   8.510
37038SOL    HW112946   0.293   6.076   8.439
37038SOL    HW212947   0.382   6.123   8.553
37039SOL     OW12948   8.412   5.875  13.405
37039SOL    HW112949   8.461   5.874  13.323
37039SOL    HW212950   8.343   5.809  13.394
37040SOL     OW12951   8.530   5.346   5.526
37040SOL    HW112952   8.439   5.323   5.544
37040SOL    HW212953   8.578   5.311   5.601
37041SOL     OW12954  11.391   5.605   4.419
37041SOL    HW112955  11.388   5.572   4.329
37041SOL    HW212956  11.304   5.641   4.434
37042SOL     OW12957   1.183   2.383  14.459
37042SOL    HW112958   1.161   2.403  14.368
37042SOL    HW212959   1.277   2.363  14.457
37043SOL     OW12960  13.177   0.224   1.365
37043SOL    HW112961  13.183   0.265   1.452
37043SOL    HW212962  13.111   0.156   1.375
37044SOL     OW12963   1.551  14.797  10.631
37044SOL    HW112964   1.628  14.802  10.687
37044SOL    HW212965   1.491  14.738  10.677
37045SOL     OW12966   6.773   2.722   5.927
37045SOL    HW112967   6.784   2.632   5.896
37045SOL    HW212968   6.682   2.727   5.954
37046SOL     OW12969   1.698   6.773   3.524
37046SOL    HW112970   1.752   6.783   3.602
37046SOL    HW212971   1.631   6.709   3.548
37047SOL     OW12972  10.673  10.902   2.621
37047SOL    HW112973  10.671  10.892   2.716
37047SOL    HW212974  10.581  10.901   2.595
37048SOL     OW12975   4.585   8.464   7.424
37048SOL    HW112976   4.512   8.401   7.421
37048SOL    HW212977   4.584   8.506   7.338
37049SOL     OW12978  13.595   4.842   0.089
37049SOL    HW112979  13.511   4.805   0.114
37049SOL    HW212980  13.649   4.836   0.168
37050SOL     OW12981   5.834   3.883  12.589
37050SOL    HW112982   5.793   3.964  12.618
37050SOL    HW212983   5.763   3.819  12.586
37051SOL     OW12984   6.120  12.230   7.154
37051SOL    HW112985   6.087  12.290   7.221
37051SOL    HW212986   6.144  12.151   7.203
37052SOL     OW12987   9.333  10.446  10.442
37052SOL    HW112988   9.408  10.399  10.478
37052SOL    HW212989   9.281  10.470  10.519
37053SOL     OW12990   9.843   0.838   9.943
37053SOL    HW112991   9.929   0.806   9.968
37053SOL    HW212992   9.860   0.911   9.884
37054SOL     OW12993   3.300   0.396   1.323
37054SOL    HW112994   3.347   0.314   1.340
37054SOL    HW212995   3.304   0.444   1.406
37055SOL     OW12996   4.675   0.544   9.826
37055SOL    HW112997   4.605   0.567   9.765
37055SOL    HW212998   4.752   0.534   9.771
37056SOL     OW12999   1.761  12.166   8.968
37056SOL    HW113000   1.838  12.198   9.015
37056SOL    HW213001   1.779  12.187   8.876
37057SOL     OW13002   5.597   9.554   6.231
37057SOL    HW113003   5.668   9.490   6.226
37057SOL    HW213004   5.583   9.581   6.140
37058SOL     OW13005  12.556  10.733   2.229
37058SOL    HW113006  12.468  10.753   2.198
37058SOL    HW213007  12.558  10.637   2.232
37059SOL     OW13008  11.805  10.587  12.791
37059SOL    HW113009  11.711  10.593  12.776
37059SOL    HW213010  11.843  10.588  12.703
37060SOL     OW13011   8.505  11.477  14.816
37060SOL    HW113012   8.524  11.434  14.734
37060SOL    HW213013   8.498  11.570  14.794
37061SOL     OW13014   8.902   5.162   7.643
37061SOL    HW113015   8.970   5.209   7.595
37061SOL    HW213016   8.921   5.180   7.735
37062SOL     OW13017   7.999   9.170   5.812
37062SOL    HW113018   8.019   9.102   5.747
37062SOL    HW213019   8.001   9.252   5.762
37063SOL     OW13020   2.688  11.805  12.883
37063SOL    HW113021   2.639  11.759  12.814
37063SOL    HW213022   2.776  11.768  12.878
37064SOL     OW13023   2.235   9.533   8.569
37064SOL    HW113024   2.296   9.598   8.534
37064SOL    HW213025   2.149   9.576   8.563
37065SOL     OW13026   8.160   0.954   8.533
37065SOL    HW113027   8.202   1.039   8.538
37065SOL    HW213028   8.219   0.900   8.481
37066SOL     OW13029   3.673   7.370  11.293
37066SOL    HW113030   3.725   7.349  11.370
37066SOL    HW213031   3.588   7.327  11.309
37067SOL     OW13032   6.434  12.618   1.183
37067SOL    HW113033   6.419  12.702   1.139
37067SOL    HW213034   6.377  12.557   1.137
37068SOL     OW13035  13.008  14.187  12.118
37068SOL    HW113036  13.036  14.105  12.157
37068SOL    HW213037  13.083  14.245  12.127
37069SOL     OW13038   4.366   0.269   8.534
37069SOL    HW113039   4.381   0.191   8.481
37069SOL    HW213040   4.320   0.237   8.612
37070SOL     OW13041   0.697   1.339   5.993
37070SOL    HW113042   0.672   1.411   5.935
37070SOL    HW213043   0.696   1.378   6.080
37071SOL     OW13044   0.211   3.045  12.657
37071SOL    HW113045   0.128   3.064  12.702
37071SOL    HW213046   0.207   3.096  12.577
37072SOL     OW13047  13.689  10.377   3.946
37072SOL    HW113048  13.630  10.432   3.894
37072SOL    HW213049  13.730  10.438   4.008
37073SOL     OW13050  10.124   1.312   8.540
37073SOL    HW113051  10.089   1.331   8.453
37073SOL    HW213052  10.051   1.332   8.599
37074SOL     OW13053   3.342   9.922   7.817
37074SOL    HW113054   3.385   9.843   7.783
37074SOL    HW213055   3.345   9.984   7.744
37075SOL     OW13056   9.366   8.564  14.167
37075SOL    HW113057   9.437   8.505  14.195
37075SOL    HW213058   9.400   8.651  14.185
37076SOL     OW13059   4.344   6.286  14.837
37076SOL    HW113060   4.261   6.278  14.790
37076SOL    HW213061   4.394   6.209  14.811
37077SOL     OW13062  14.443   5.252  12.444
37077SOL    HW113063  14.419   5.199  12.519
37077SOL    HW213064  14.539   5.250  12.442
37078SOL     OW13065   0.604   6.596   8.757
37078SOL    HW113066   0.582   6.567   8.846
37078SOL    HW213067   0.652   6.522   8.719
37079SOL     OW13068   9.824  11.056   7.426
37079SOL    HW113069   9.872  11.098   7.497
37079SOL    HW213070   9.799  11.129   7.369
37080SOL     OW13071   7.249  13.658  14.073
37080SOL    HW113072   7.264  13.609  13.993
37080SOL    HW213073   7.263  13.749  14.048
37081SOL     OW13074  10.969   1.801  10.612
37081SOL    HW113075  10.939   1.778  10.700
37081SOL    HW213076  10.897   1.851  10.574
37082SOL     OW13077   2.983   9.397   8.428
37082SOL    HW113078   2.990   9.316   8.378
37082SOL    HW213079   3.009   9.372   8.517
37083SOL     OW13080   2.961   8.958  13.465
37083SOL    HW113081   2.932   8.867  13.458
37083SOL    HW213082   3.056   8.952  13.477
37084SOL     OW13083   0.986  11.326   6.357
37084SOL    HW113084   0.993  11.267   6.432
37084SOL    HW213085   0.905  11.374   6.372
37085SOL     OW13086   0.745   0.755   5.610
37085SOL    HW113087   0.799   0.775   5.686
37085SOL    HW213088   0.696   0.677   5.636
37086SOL     OW13089   7.286  11.123   6.396
37086SOL    HW113090   7.308  11.215   6.378
37086SOL    HW213091   7.206  11.107   6.345
37087SOL     OW13092  12.257  12.977  10.734
37087SOL    HW113093  12.172  12.987  10.776
37087SOL    HW213094  12.292  12.895  10.768
37088SOL     OW13095   6.759   1.872  11.061
37088SOL    HW113096   6.773   1.918  11.144
37088SOL    HW213097   6.839   1.890  11.011
37089SOL     OW13098   6.333   8.328   6.997
37089SOL    HW113099   6.402   8.352   6.935
37089SOL    HW213100   6.338   8.233   7.003
37090SOL     OW13101   8.451   8.513   3.540
37090SOL    HW113102   8.411   8.553   3.463
37090SOL    HW213103   8.457   8.584   3.604
37091SOL     OW13104  11.566  13.818   5.151
37091SOL    HW113105  11.590  13.755   5.219
37091SOL    HW213106  11.601  13.780   5.070
37092SOL     OW13107  11.179   5.179   2.409
37092SOL    HW113108  11.258   5.145   2.367
37092SOL    HW213109  11.131   5.101   2.437
37093SOL     OW13110  11.233   5.057   3.566
37093SOL    HW113111  11.143   5.063   3.599
37093SOL    HW213112  11.272   5.141   3.589
37094SOL     OW13113  11.498   4.499   9.748
37094SOL    HW113114  11.520   4.558   9.820
37094SOL    HW213115  11.542   4.536   9.672
37095SOL     OW13116  11.404   2.283  12.881
37095SOL    HW113117  11.346   2.221  12.925
37095SOL    HW213118  11.468   2.308  12.948
37096SOL     OW13119  14.504  11.091   1.515
37096SOL    HW113120  14.508  11.007   1.469
37096SOL    HW213121  14.582  11.138   1.487
37097SOL     OW13122  11.303   5.021  11.624
37097SOL    HW113123  11.221   5.066  11.604
37097SOL    HW213124  11.311   4.954  11.557
37098SOL     OW13125   9.080  10.908   1.616
37098SOL    HW113126   8.992  10.918   1.579
37098SOL    HW213127   9.095  10.990   1.664
37099SOL     OW13128   9.107   6.400   1.894
37099SOL    HW113129   9.049   6.350   1.952
37099SOL    HW213130   9.184   6.343   1.884
37100SOL     OW13131   3.400   9.257  13.043
37100SOL    HW113132   3.384   9.310  12.965
37100SOL    HW213133   3.479   9.208  13.022
37101SOL     OW13134  13.062   5.503  10.377
37101SOL    HW113135  13.027   5.436  10.436
37101SOL    HW213136  13.094   5.454  10.302
37102SOL     OW13137   1.374   1.283  10.698
37102SOL    HW113138   1.437   1.354  10.705
37102SOL    HW213139   1.367   1.248  10.787
37103SOL     OW13140  11.717   5.639  14.190
37103SOL    HW113141  11.639   5.600  14.231
37103SOL    HW213142  11.693   5.649  14.098
37104SOL     OW13143   0.034   2.432   8.309
37104SOL    HW113144   0.020   2.453   8.401
37104SOL    HW213145   0.120   2.389   8.307
37105SOL     OW13146   5.638   0.720  13.595
37105SOL    HW113147   5.630   0.773  13.674
37105SOL    HW213148   5.576   0.759  13.533
37106SOL     OW13149   0.617   8.865  11.621
37106SOL    HW113150   0.704   8.840  11.590
37106SOL    HW213151   0.623   8.960  11.636
37107SOL     OW13152  14.124   0.944   4.755
37107SOL    HW113153  14.132   0.863   4.705
37107SOL    HW213154  14.065   0.922   4.827
37108SOL     OW13155   6.238   3.125  11.362
37108SOL    HW113156   6.291   3.061  11.315
37108SOL    HW213157   6.159   3.077  11.387
37109SOL     OW13158   5.860  13.693   1.446
37109SOL    HW113159   5.794  13.667   1.510
37109SOL    HW213160   5.810  13.707   1.365
37110SOL     OW13161   6.871  10.687  13.962
37110SOL    HW113162   6.953  10.684  13.914
37110SOL    HW213163   6.884  10.753  14.030
37111SOL     OW13164   6.046   0.872   2.598
37111SOL    HW113165   5.967   0.912   2.636
37111SOL    HW213166   6.055   0.914   2.512
37112SOL     OW13167   5.895   4.197   4.339
37112SOL    HW113168   5.979   4.205   4.293
37112SOL    HW213169   5.851   4.125   4.295
37113SOL     OW13170  12.511   7.200   2.935
37113SOL    HW113171  12.555   7.153   2.864
37113SOL    HW213172  12.578   7.259   2.969
37114SOL     OW13173   1.737   5.402   5.642
37114SOL    HW113174   1.830   5.382   5.637
37114SOL    HW213175   1.713   5.427   5.553
37115SOL     OW13176   2.011  13.488  10.609
37115SOL    HW113177   2.017  13.392  10.605
37115SOL    HW213178   1.963  13.506  10.689
37116SOL     OW13179   3.525   5.369   7.703
37116SOL    HW113180   3.432   5.346   7.702
37116SOL    HW213181   3.570   5.287   7.726
37117SOL     OW13182   4.158   3.990   8.582
37117SOL    HW113183   4.070   3.972   8.615
37117SOL    HW213184   4.150   4.077   8.541
37118SOL     OW13185  14.632  10.597   0.782
37118SOL    HW113186  14.671  10.683   0.768
37118SOL    HW213187  14.593  10.602   0.869
37119SOL     OW13188   2.116   0.256   4.803
37119SOL    HW113189   2.187   0.195   4.824
37119SOL    HW213190   2.095   0.238   4.712
37120SOL     OW13191   3.370   8.686  10.417
37120SOL    HW113192   3.363   8.596  10.385
37120SOL    HW213193   3.285   8.704  10.456
37121SOL     OW13194   5.142  13.882  10.659
37121SOL    HW113195   5.236  13.899  10.659
37121SOL    HW213196   5.131  13.808  10.599
37122SOL     OW13197   7.384   8.965   0.303
37122SOL    HW113198   7.369   9.020   0.226
37122SOL    HW213199   7.299   8.925   0.321
37123SOL     OW13200   8.116   0.530   9.727
37123SOL    HW113201   8.049   0.594   9.704
37123SOL    HW213202   8.185   0.581   9.769
37124SOL     OW13203   4.165  13.256  10.941
37124SOL    HW113204   4.140  13.316  11.012
37124SOL    HW213205   4.098  13.270  10.874
37125SOL     OW13206   7.386   5.217   6.809
37125SOL    HW113207   7.421   5.139   6.767
37125SOL    HW213208   7.308   5.187   6.856
37126SOL     OW13209   5.804  14.232   7.674
37126SOL    HW113210   5.837  14.178   7.603
37126SOL    HW213211   5.881  14.255   7.725
37127SOL     OW13212   0.253   8.459   8.247
37127SOL    HW113213   0.311   8.523   8.288
37127SOL    HW213214   0.166   8.481   8.278
37128SOL     OW13215  14.416   4.243  11.561
37128SOL    HW113216  14.437   4.316  11.618
37128SOL    HW213217  14.341   4.273  11.510
37129SOL     OW13218   9.966   9.417  11.822
37129SOL    HW113219   9.950   9.411  11.727
37129SOL    HW213220   9.955   9.327  11.854
37130SOL     OW13221  10.745  14.666   3.188
37130SOL    HW113222  10.694  14.704   3.116
37130SOL    HW213223  10.749  14.735   3.254
37131SOL     OW13224  10.083  11.407   7.024
37131SOL    HW113225  10.021  11.441   7.089
37131SOL    HW213226  10.138  11.346   7.073
37132SOL     OW13227   9.419   7.346   9.827
37132SOL    HW113228   9.409   7.329   9.734
37132SOL    HW213229   9.374   7.429   9.842
37133SOL     OW13230   1.633  10.058  10.443
37133SOL    HW113231   1.556  10.091  10.490
37133SOL    HW213232   1.674   9.996  10.504
37134SOL     OW13233   7.301   4.426   5.579
37134SOL    HW113234   7.279   4.453   5.490
37134SOL    HW213235   7.230   4.461   5.633
37135SOL     OW13236  10.522   9.624   1.732
37135SOL    HW113237  10.537   9.695   1.795
37135SOL    HW213238  10.569   9.549   1.769
37136SOL     OW13239   7.091   2.518   5.886
37136SOL    HW113240   7.010   2.501   5.836
37136SOL    HW213241   7.159   2.471   5.837
37137SOL     OW13242   8.400  11.798   5.693
37137SOL    HW113243   8.348  11.781   5.772
37137SOL    HW213244   8.356  11.873   5.652
37138SOL     OW13245   3.432  10.285   1.752
37138SOL    HW113246   3.349  10.329   1.737
37138SOL    HW213247   3.413  10.219   1.820
37139SOL     OW13248   4.359  11.882   9.951
37139SOL    HW113249   4.439  11.835   9.973
37139SOL    HW213250   4.329  11.920  10.033
37140SOL     OW13251   7.545  14.550  14.343
37140SOL    HW113252   7.638  14.542  14.323
37140SOL    HW213253   7.510  14.607  14.274
37141SOL     OW13254   3.167  10.265   8.127
37141SOL    HW113255   3.173  10.170   8.133
37141SOL    HW213256   3.222  10.297   8.198
37142SOL     OW13257   9.770   0.407   2.985
37142SOL    HW113258   9.808   0.321   3.003
37142SOL    HW213259   9.680   0.389   2.958
37143SOL     OW13260   8.717   4.600   5.844
37143SOL    HW113261   8.637   4.560   5.809
37143SOL    HW213262   8.713   4.691   5.815
37144SOL     OW13263  11.509   0.774   8.121
37144SOL    HW113264  11.565   0.789   8.045
37144SOL    HW213265  11.538   0.838   8.186
37145SOL     OW13266   1.625   2.677  12.017
37145SOL    HW113267   1.594   2.755  12.065
37145SOL    HW213268   1.665   2.622  12.084
37146SOL     OW13269   4.107  11.808   5.959
37146SOL    HW113270   4.189  11.790   5.914
37146SOL    HW213271   4.134  11.844   6.044
37147SOL     OW13272   0.089   2.234   8.824
37147SOL    HW113273   0.183   2.214   8.827
37147SOL    HW213274   0.059   2.195   8.742
37148SOL     OW13275   3.158   7.048   8.802
37148SOL    HW113276   3.150   7.090   8.716
37148SOL    HW213277   3.215   6.973   8.786
37149SOL     OW13278  12.220   0.159   8.757
37149SOL    HW113279  12.155   0.217   8.798
37149SOL    HW213280  12.203   0.073   8.796
37150SOL     OW13281  13.233   2.087   3.285
37150SOL    HW113282  13.296   2.024   3.252
37150SOL    HW213283  13.277   2.172   3.278
37151SOL     OW13284   5.709   6.225   4.995
37151SOL    HW113285   5.675   6.148   4.949
37151SOL    HW213286   5.699   6.203   5.088
37152SOL     OW13287   9.995   2.947  11.703
37152SOL    HW113288   9.983   3.005  11.778
37152SOL    HW213289   9.925   2.882  11.711
37153SOL     OW13290  11.199   8.522   8.398
37153SOL    HW113291  11.224   8.444   8.349
37153SOL    HW213292  11.174   8.488   8.485
37154SOL     OW13293   4.438   4.980  12.734
37154SOL    HW113294   4.443   5.059  12.681
37154SOL    HW213295   4.529   4.956  12.751
37155SOL     OW13296  12.561   5.837   4.779
37155SOL    HW113297  12.587   5.925   4.750
37155SOL    HW213298  12.543   5.789   4.698
37156SOL     OW13299   2.804   5.444   8.200
37156SOL    HW113300   2.796   5.463   8.106
37156SOL    HW213301   2.714   5.449   8.233
37157SOL     OW13302  11.309   1.962   5.443
37157SOL    HW113303  11.357   1.881   5.423
37157SOL    HW213304  11.377   2.023   5.473
37158SOL     OW13305  11.833  11.019   4.481
37158SOL    HW113306  11.752  11.062   4.506
37158SOL    HW213307  11.810  10.966   4.405
37159SOL     OW13308  12.739  13.587   0.200
37159SOL    HW113309  12.775  13.632   0.277
37159SOL    HW213310  12.680  13.521   0.237
37160SOL     OW13311  13.274   0.968  14.389
37160SOL    HW113312  13.335   0.922  14.448
37160SOL    HW213313  13.326   0.987  14.311
37161SOL     OW13314   6.777   5.093  13.283
37161SOL    HW113315   6.801   5.127  13.197
37161SOL    HW213316   6.860   5.087  13.330
37162SOL     OW13317   1.738  12.138   6.679
37162SOL    HW113318   1.734  12.172   6.590
37162SOL    HW213319   1.671  12.069   6.682
37163SOL     OW13320   2.258   1.951  12.346
37163SOL    HW113321   2.301   2.022  12.299
37163SOL    HW213322   2.204   1.994  12.412
37164SOL     OW13323  10.054   1.317  10.738
37164SOL    HW113324   9.960   1.307  10.725
37164SOL    HW213325  10.094   1.263  10.669
37165SOL     OW13326  11.275  10.078  13.924
37165SOL    HW113327  11.261  10.001  13.980
37165SOL    HW213328  11.187  10.104  13.897
37166SOL     OW13329   7.061   1.452   2.024
37166SOL    HW113330   7.043   1.359   2.014
37166SOL    HW213331   7.019   1.493   1.948
37167SOL     OW13332   5.922   8.639   1.907
37167SOL    HW113333   5.856   8.683   1.961
37167SOL    HW213334   5.940   8.701   1.836
37168SOL     OW13335   2.524   3.654  13.504
37168SOL    HW113336   2.470   3.704  13.443
37168SOL    HW213337   2.471   3.648  13.584
37169SOL     OW13338   7.543  14.097   0.520
37169SOL    HW113339   7.550  14.006   0.490
37169SOL    HW213340   7.622  14.140   0.486
37170SOL     OW13341   5.007   0.766   7.953
37170SOL    HW113342   4.955   0.715   7.892
37170SOL    HW213343   5.097   0.733   7.943
37171SOL     OW13344   4.510   4.051  11.980
37171SOL    HW113345   4.469   4.132  11.949
37171SOL    HW213346   4.599   4.076  12.004
37172SOL     OW13347  13.657   6.250  13.439
37172SOL    HW113348  13.629   6.236  13.348
37172SOL    HW213349  13.725   6.184  13.453
37173SOL     OW13350  10.930   6.333  14.606
37173SOL    HW113351  10.896   6.321  14.695
37173SOL    HW213352  11.025   6.341  14.618
37174SOL     OW13353   0.904   7.862   7.464
37174SOL    HW113354   0.965   7.861   7.537
37174SOL    HW213355   0.923   7.782   7.415
37175SOL     OW13356   2.711   5.795   4.335
37175SOL    HW113357   2.788   5.741   4.349
37175SOL    HW213358   2.654   5.743   4.279
37176SOL     OW13359  12.382   7.239  11.321
37176SOL    HW113360  12.462   7.189  11.303
37176SOL    HW213361  12.406   7.329  11.300
37177SOL     OW13362  11.765   4.846   6.909
37177SOL    HW113363  11.847   4.833   6.860
37177SOL    HW213364  11.741   4.758   6.939
37178SOL     OW13365  10.411  13.846   7.202
37178SOL    HW113366  10.469  13.821   7.274
37178SOL    HW213367  10.390  13.764   7.158
37179SOL     OW13368   5.788   9.487   9.531
37179SOL    HW113369   5.807   9.483   9.438
37179SOL    HW213370   5.874   9.481   9.574
37180SOL     OW13371   4.842   0.752   2.555
37180SOL    HW113372   4.861   0.687   2.623
37180SOL    HW213373   4.895   0.828   2.580
37181SOL     OW13374   0.915   2.009  11.475
37181SOL    HW113375   0.888   2.063  11.401
37181SOL    HW213376   1.005   2.037  11.493
37182SOL     OW13377   0.978   1.935  14.235
37182SOL    HW113378   1.057   1.971  14.195
37182SOL    HW213379   0.908   1.995  14.210
37183SOL     OW13380   0.852  11.636   5.262
37183SOL    HW113381   0.796  11.697   5.311
37183SOL    HW213382   0.913  11.602   5.327
37184SOL     OW13383   3.075   5.521  14.151
37184SOL    HW113384   3.003   5.550  14.207
37184SOL    HW213385   3.149   5.576  14.178
37185SOL     OW13386  12.664   1.309   8.366
37185SOL    HW113387  12.578   1.314   8.324
37185SOL    HW213388  12.684   1.216   8.369
37186SOL     OW13389   7.102   7.716   1.069
37186SOL    HW113390   7.144   7.643   1.023
37186SOL    HW213391   7.010   7.710   1.044
37187SOL     OW13392   4.566   9.795  11.571
37187SOL    HW113393   4.656   9.825  11.578
37187SOL    HW213394   4.561   9.721  11.632
37188SOL     OW13395  10.933   3.284   5.657
37188SOL    HW113396  10.933   3.322   5.569
37188SOL    HW213397  11.022   3.252   5.670
37189SOL     OW13398   0.716  12.438   7.423
37189SOL    HW113399   0.772  12.366   7.454
37189SOL    HW213400   0.648  12.446   7.491
37190SOL     OW13401  13.193   8.777   2.656
37190SOL    HW113402  13.273   8.727   2.645
37190SOL    HW213403  13.152   8.777   2.570
37191SOL     OW13404  13.750   1.873  10.345
37191SOL    HW113405  13.685   1.897  10.411
37191SOL    HW213406  13.819   1.827  10.393
37192SOL     OW13407  13.327  14.864  13.491
37192SOL    HW113408  13.306  14.816  13.411
37192SOL    HW213409  13.367  14.798  13.548
37193SOL     OW13410   0.624   4.511   5.465
37193SOL    HW113411   0.675   4.516   5.546
37193SOL    HW213412   0.664   4.575   5.407
37194SOL     OW13413  12.517   1.441  10.804
37194SOL    HW113414  12.563   1.358  10.820
37194SOL    HW213415  12.586   1.506  10.800
37195SOL     OW13416  14.515   9.723  10.689
37195SOL    HW113417  14.424   9.710  10.716
37195SOL    HW213418  14.514   9.707  10.595
37196SOL     OW13419  13.671  12.563   1.909
37196SOL    HW113420  13.661  12.537   1.818
37196SOL    HW213421  13.586  12.598   1.934
37197SOL     OW13422   8.883   7.296   4.741
37197SOL    HW113423   8.959   7.246   4.772
37197SOL    HW213424   8.887   7.379   4.789
37198SOL     OW13425  13.323   5.068   6.609
37198SOL    HW113426  13.246   5.031   6.566
37198SOL    HW213427  13.309   5.163   6.605
37199SOL     OW13428  12.480  13.960   6.774
37199SOL    HW113429  12.385  13.948   6.765
37199SOL    HW213430  12.500  14.038   6.722
37200SOL     OW13431  14.456   2.056  10.940
37200SOL    HW113432  14.452   1.963  10.962
37200SOL    HW213433  14.470   2.058  10.845
37201SOL     OW13434  13.461  11.566  10.690
37201SOL    HW113435  13.504  11.495  10.738
37201SOL    HW213436  13.368  11.550  10.703
37202SOL     OW13437  11.747  10.751  11.218
37202SOL    HW113438  11.689  10.824  11.196
37202SOL    HW213439  11.829  10.793  11.243
37203SOL     OW13440   5.715   1.907   3.964
37203SOL    HW113441   5.782   1.975   3.968
37203SOL    HW213442   5.642   1.942   4.016
37204SOL     OW13443   4.249   8.830  11.097
37204SOL    HW113444   4.207   8.752  11.135
37204SOL    HW213445   4.319   8.795  11.042
37205SOL     OW13446  11.321   2.170   8.565
37205SOL    HW113447  11.391   2.123   8.520
37205SOL    HW213448  11.319   2.256   8.525
37206SOL     OW13449  10.053   6.660   0.933
37206SOL    HW113450   9.999   6.670   1.011
37206SOL    HW213451  10.141   6.640   0.966
37207SOL     OW13452   4.944  12.802   4.518
37207SOL    HW113453   5.022  12.853   4.496
37207SOL    HW213454   4.891  12.861   4.572
37208SOL     OW13455   9.362  14.667   2.895
37208SOL    HW113456   9.324  14.591   2.850
37208SOL    HW213457   9.454  14.643   2.908
37209SOL     OW13458   8.013   5.876   9.118
37209SOL    HW113459   8.097   5.868   9.163
37209SOL    HW213460   7.949   5.883   9.188
37210SOL     OW13461  11.445   7.865   7.028
37210SOL    HW113462  11.397   7.852   7.110
37210SOL    HW213463  11.396   7.815   6.963
37211SOL     OW13464  13.337  12.874   0.345
37211SOL    HW113465  13.319  12.967   0.333
37211SOL    HW213466  13.385  12.849   0.265
37212SOL     OW13467  14.198   8.097   5.591
37212SOL    HW113468  14.196   8.114   5.685
37212SOL    HW213469  14.233   8.009   5.583
37213SOL     OW13470   2.327   6.315   9.316
37213SOL    HW113471   2.356   6.401   9.348
37213SOL    HW213472   2.355   6.312   9.225
37214SOL     OW13473  12.806   8.861   8.057
37214SOL    HW113474  12.745   8.789   8.041
37214SOL    HW213475  12.751   8.937   8.071
37215SOL     OW13476  11.684  13.082   1.582
37215SOL    HW113477  11.731  13.158   1.617
37215SOL    HW213478  11.611  13.069   1.642
37216SOL     OW13479  10.435   3.625   7.621
37216SOL    HW113480  10.432   3.556   7.554
37216SOL    HW213481  10.379   3.592   7.691
37217SOL     OW13482   4.294   5.958  10.525
37217SOL    HW113483   4.226   5.896  10.551
37217SOL    HW213484   4.252   6.044  10.531
37218SOL     OW13485  12.548  10.009   5.380
37218SOL    HW113486  12.575  10.024   5.470
37218SOL    HW213487  12.630  10.013   5.330
37219SOL     OW13488   5.784   6.879   9.183
37219SOL    HW113489   5.724   6.834   9.241
37219SOL    HW213490   5.749   6.864   9.095
37220SOL     OW13491   2.061   9.924  14.401
37220SOL    HW113492   2.127   9.862  14.370
37220SOL    HW213493   2.007   9.873  14.461
37221SOL     OW13494   5.039   8.839   0.070
37221SOL    HW113495   5.134   8.849   0.056
37221SOL    HW213496   5.027   8.746   0.084
37222SOL     OW13497  10.285   3.332  10.630
37222SOL    HW113498  10.344   3.295  10.695
37222SOL    HW213499  10.205   3.280  10.637
37223SOL     OW13500  11.775   5.129  13.154
37223SOL    HW113501  11.807   5.134  13.064
37223SOL    HW213502  11.724   5.048  13.158
37224SOL     OW13503   1.055   7.541   3.966
37224SOL    HW113504   1.036   7.611   4.029
37224SOL    HW213505   1.114   7.482   4.012
37225SOL     OW13506  12.527  11.292   0.572
37225SOL    HW113507  12.486  11.336   0.497
37225SOL    HW213508  12.613  11.265   0.541
37226SOL     OW13509   1.488   0.874  11.978
37226SOL    HW113510   1.518   0.878  12.069
37226SOL    HW213511   1.496   0.964  11.947
37227SOL     OW13512   1.105  13.010  13.273
37227SOL    HW113513   1.193  13.011  13.309
37227SOL    HW213514   1.107  12.940  13.207
37228SOL     OW13515   9.761   7.102   2.037
37228SOL    HW113516   9.703   7.112   2.113
37228SOL    HW213517   9.708   7.055   1.973
37229SOL     OW13518   5.281   1.052   2.337
37229SOL    HW113519   5.345   1.064   2.266
37229SOL    HW213520   5.230   1.133   2.336
37230SOL     OW13521   9.494   9.339   5.664
37230SOL    HW113522   9.556   9.273   5.634
37230SOL    HW213523   9.427   9.342   5.596
37231SOL     OW13524   6.689   4.537  12.109
37231SOL    HW113525   6.686   4.625  12.144
37231SOL    HW213526   6.737   4.546  12.026
37232SOL     OW13527   2.999  11.675   1.520
37232SOL    HW113528   3.031  11.715   1.601
37232SOL    HW213529   3.078  11.636   1.481
37233SOL     OW13530  13.850   9.885   9.500
37233SOL    HW113531  13.943   9.889   9.480
37233SOL    HW213532  13.816   9.815   9.445
37234SOL     OW13533   2.858   8.971   7.521
37234SOL    HW113534   2.819   8.996   7.605
37234SOL    HW213535   2.861   9.052   7.471
37235SOL     OW13536  10.953   8.498  13.412
37235SOL    HW113537  10.979   8.407  13.428
37235SOL    HW213538  10.924   8.530  13.498
37236SOL     OW13539   9.326   5.101   8.933
37236SOL    HW113540   9.328   5.195   8.949
37236SOL    HW213541   9.233   5.080   8.923
37237SOL     OW13542   3.992   8.542  14.790
37237SOL    HW113543   3.955   8.630  14.796
37237SOL    HW213544   4.079   8.555  14.751
37238SOL     OW13545   0.524   6.251  10.963
37238SOL    HW113546   0.606   6.212  10.992
37238SOL    HW213547   0.505   6.207  10.880
37239SOL     OW13548  12.659   3.061   8.839
37239SOL    HW113549  12.571   3.037   8.869
37239SOL    HW213550  12.646   3.140   8.788
37240SOL     OW13551   8.034   0.975   2.418
37240SOL    HW113552   7.950   0.953   2.377
37240SOL    HW213553   8.077   1.032   2.354
37241SOL     OW13554   6.906   7.153  11.009
37241SOL    HW113555   6.973   7.193  10.953
37241SOL    HW213556   6.889   7.220  11.076
37242SOL     OW13557   9.643   7.620   6.945
37242SOL    HW113558   9.577   7.596   6.880
37242SOL    HW213559   9.611   7.702   6.982
37243SOL     OW13560  13.903   3.603   3.951
37243SOL    HW113561  13.935   3.566   3.868
37243SOL    HW213562  13.862   3.528   3.995
37244SOL     OW13563   2.402  14.381  10.965
37244SOL    HW113564   2.480  14.415  10.920
37244SOL    HW213565   2.333  14.384  10.899
37245SOL     OW13566  12.911   1.911   4.429
37245SOL    HW113567  12.894   1.944   4.340
37245SOL    HW213568  12.873   1.823   4.430
37246SOL     OW13569  14.075   2.177   0.969
37246SOL    HW113570  14.160   2.168   0.927
37246SOL    HW213571  14.013   2.183   0.897
37247SOL     OW13572   7.896   3.304   8.269
37247SOL    HW113573   7.952   3.228   8.252
37247SOL    HW213574   7.807   3.271   8.263
37248SOL     OW13575   6.130   1.563   4.170
37248SOL    HW113576   6.130   1.565   4.265
37248SOL    HW213577   6.046   1.602   4.145
37249SOL     OW13578   5.029  11.528   8.021
37249SOL    HW113579   4.986  11.591   8.080
37249SOL    HW213580   5.002  11.555   7.934
37250SOL     OW13581   4.794   0.507  14.396
37250SOL    HW113582   4.771   0.599  14.384
37250SOL    HW213583   4.782   0.491  14.489
37251SOL     OW13584  12.622   5.658   7.921
37251SOL    HW113585  12.552   5.665   7.857
37251SOL    HW213586  12.683   5.594   7.883
37252SOL     OW13587  12.579   8.376  10.737
37252SOL    HW113588  12.654   8.317  10.737
37252SOL    HW213589  12.558   8.389  10.829
37253SOL     OW13590  14.031   8.894   7.280
37253SOL    HW113591  14.045   8.804   7.250
37253SOL    HW213592  13.982   8.885   7.361
37254SOL     OW13593   5.533  13.247  11.575
37254SOL    HW113594   5.532  13.257  11.480
37254SOL    HW213595   5.444  13.217  11.596
37255SOL     OW13596   6.837   0.969  13.445
37255SOL    HW113597   6.888   0.945  13.367
37255SOL    HW213598   6.765   0.906  13.447
37256SOL     OW13599   4.618   6.819   0.457
37256SOL    HW113600   4.602   6.906   0.421
37256SOL    HW213601   4.607   6.829   0.552
37257SOL     OW13602   3.886   4.122   0.218
37257SOL    HW113603   3.969   4.167   0.234
37257SOL    HW213604   3.827   4.159   0.284
37258SOL     OW13605   6.947  13.849   9.533
37258SOL    HW113606   6.978  13.764   9.565
37258SOL    HW213607   7.021  13.885   9.483
37259SOL     OW13608   3.838  12.749   8.395
37259SOL    HW113609   3.768  12.779   8.337
37259SOL    HW213610   3.798  12.682   8.450
37260SOL     OW13611   4.736   6.419   7.918
37260SOL    HW113612   4.661   6.396   7.863
37260SOL    HW213613   4.738   6.352   7.986
37261SOL     OW13614  10.191   1.568  11.044
37261SOL    HW113615  10.193   1.621  10.964
37261SOL    HW213616  10.208   1.630  11.114
37262SOL     OW13617  10.153   8.185   4.686
37262SOL    HW113618  10.115   8.114   4.739
37262SOL    HW213619  10.084   8.252   4.683
37263SOL     OW13620  11.975  14.814   4.721
37263SOL    HW113621  11.926  14.751   4.668
37263SOL    HW213622  12.033  14.759   4.775
37264SOL     OW13623   6.354   7.015   5.200
37264SOL    HW113624   6.329   7.083   5.262
37264SOL    HW213625   6.387   6.944   5.254
37265SOL     OW13626  14.456  10.527   9.363
37265SOL    HW113627  14.490  10.608   9.326
37265SOL    HW213628  14.519  10.460   9.337
37266SOL     OW13629   3.687   7.949   4.842
37266SOL    HW113630   3.752   7.892   4.884
37266SOL    HW213631   3.651   8.001   4.914
37267SOL     OW13632  11.275  14.472   5.798
37267SOL    HW113633  11.351  14.437   5.753
37267SOL    HW213634  11.303  14.559   5.827
37268SOL     OW13635  12.199   5.659   8.251
37268SOL    HW113636  12.108   5.651   8.223
37268SOL    HW213637  12.246   5.680   8.170
37269SOL     OW13638   0.956  13.354  10.618
37269SOL    HW113639   0.863  13.375  10.608
37269SOL    HW213640   0.987  13.418  10.682
37270SOL     OW13641  12.928  14.651  13.229
37270SOL    HW113642  12.925  14.678  13.321
37270SOL    HW213643  12.888  14.564  13.228
37271SOL     OW13644   0.440   6.515   2.022
37271SOL    HW113645   0.462   6.582   2.087
37271SOL    HW213646   0.353   6.539   1.991
37272SOL     OW13647  13.194   6.229   7.550
37272SOL    HW113648  13.254   6.272   7.489
37272SOL    HW213649  13.245   6.221   7.631
37273SOL     OW13650   7.696   4.937  14.333
37273SOL    HW113651   7.626   4.871  14.331
37273SOL    HW213652   7.757   4.909  14.264
37274SOL     OW13653   4.642   0.659   0.583
37274SOL    HW113654   4.595   0.687   0.505
37274SOL    HW213655   4.663   0.740   0.630
37275SOL     OW13656   5.511   8.570  13.806
37275SOL    HW113657   5.477   8.496  13.856
37275SOL    HW213658   5.587   8.599  13.857
37276SOL     OW13659   4.083  10.793  10.773
37276SOL    HW113660   4.085  10.709  10.727
37276SOL    HW213661   4.154  10.843  10.733
37277SOL     OW13662  12.074  14.524   4.072
37277SOL    HW113663  12.127  14.499   4.147
37277SOL    HW213664  12.090  14.618   4.061
37278SOL     OW13665  14.368  13.298  13.734
37278SOL    HW113666  14.393  13.242  13.660
37278SOL    HW213667  14.382  13.244  13.811
37279SOL     OW13668  12.374   7.450  10.937
37279SOL    HW113669  12.280   7.442  10.954
37279SOL    HW213670  12.413   7.467  11.022
37280SOL     OW13671   2.137  13.578   6.765
37280SOL    HW113672   2.089  13.553   6.686
37280SOL    HW213673   2.229  13.574   6.740
37281SOL     OW13674  12.259   9.150   7.914
37281SOL    HW113675  12.179   9.140   7.863
37281SOL    HW213676  12.318   9.198   7.855
37282SOL     OW13677   5.156  14.759   3.861
37282SOL    HW113678   5.159  14.709   3.779
37282SOL    HW213679   5.080  14.723   3.907
37283SOL     OW13680  10.261   0.585   7.168
37283SOL    HW113681  10.218   0.643   7.105
37283SOL    HW213682  10.354   0.608   7.163
37284SOL     OW13683   2.782   9.294   0.476
37284SOL    HW113684   2.864   9.318   0.434
37284SOL    HW213685   2.793   9.322   0.567
37285SOL     OW13686   4.668   1.725   1.269
37285SOL    HW113687   4.620   1.806   1.287
37285SOL    HW213688   4.760   1.753   1.264
37286SOL     OW13689   5.198   1.807   7.982
37286SOL    HW113690   5.184   1.732   7.924
37286SOL    HW213691   5.291   1.800   8.007
37287SOL     OW13692  10.432   9.500   2.223
37287SOL    HW113693  10.389   9.456   2.296
37287SOL    HW213694  10.422   9.440   2.149
37288SOL     OW13695   3.808   7.946  11.560
37288SOL    HW113696   3.799   8.023  11.615
37288SOL    HW213697   3.789   7.977  11.472
37289SOL     OW13698  13.411   4.356   0.404
37289SOL    HW113699  13.449   4.425   0.351
37289SOL    HW213700  13.328   4.336   0.361
37290SOL     OW13701   5.485  10.635  14.867
37290SOL    HW113702   5.578  10.647  14.850
37290SOL    HW213703   5.454  10.579  14.796
37291SOL     OW13704   5.105   2.423  12.684
37291SOL    HW113705   5.106   2.339  12.729
37291SOL    HW213706   5.055   2.481  12.741
37292SOL     OW13707   0.645   2.052   9.325
37292SOL    HW113708   0.610   2.037   9.238
37292SOL    HW213709   0.714   2.117   9.313
37293SOL     OW13710   9.267   0.667   7.810
37293SOL    HW113711   9.219   0.597   7.854
37293SOL    HW213712   9.352   0.628   7.790
37294SOL     OW13713   9.251   6.517  10.799
37294SOL    HW113714   9.329   6.553  10.841
37294SOL    HW213715   9.280   6.492  10.712
37295SOL     OW13716   7.987   4.091   5.231
37295SOL    HW113717   8.015   4.183   5.233
37295SOL    HW213718   7.908   4.089   5.284
37296SOL     OW13719   8.279   9.704   7.038
37296SOL    HW113720   8.253   9.612   7.033
37296SOL    HW213721   8.363   9.703   7.083
37297SOL     OW13722   3.926   7.722   9.705
37297SOL    HW113723   3.855   7.725   9.769
37297SOL    HW213724   3.906   7.646   9.650
37298SOL     OW13725  10.451  14.156  13.292
37298SOL    HW113726  10.492  14.151  13.378
37298SOL    HW213727  10.468  14.245  13.262
37299SOL     OW13728   0.707   1.155   5.636
37299SOL    HW113729   0.688   1.120   5.723
37299SOL    HW213730   0.687   1.083   5.576
37300SOL     OW13731  12.117   2.702   0.600
37300SOL    HW113732  12.048   2.767   0.587
37300SOL    HW213733  12.139   2.672   0.512
37301SOL     OW13734  14.629  12.325  13.332
37301SOL    HW113735  14.595  12.242  13.364
37301SOL    HW213736  14.718  12.306  13.303
37302SOL     OW13737   5.323   3.240   3.237
37302SOL    HW113738   5.231   3.260   3.257
37302SOL    HW213739   5.319   3.175   3.167
37303SOL     OW13740  10.651   2.006   5.613
37303SOL    HW113741  10.567   2.051   5.619
37303SOL    HW213742  10.696   2.048   5.540
37304SOL     OW13743   4.771   9.116  12.211
37304SOL    HW113744   4.757   9.159  12.295
37304SOL    HW213745   4.821   9.180  12.160
37305SOL     OW13746   5.450   2.529  13.872
37305SOL    HW113747   5.473   2.491  13.787
37305SOL    HW213748   5.447   2.623  13.857
37306SOL     OW13749   1.491  12.903   3.813
37306SOL    HW113750   1.439  12.835   3.858
37306SOL    HW213751   1.557  12.928   3.877
37307SOL     OW13752   7.571  13.096   3.829
37307SOL    HW113753   7.617  13.139   3.757
37307SOL    HW213754   7.593  13.149   3.906
37308SOL     OW13755  14.744   3.012  13.928
37308SOL    HW113756  14.738   2.947  13.999
37308SOL    HW213757  14.781   2.963  13.854
37309SOL     OW13758   8.527   0.620   9.047
37309SOL    HW113759   8.449   0.572   9.074
37309SOL    HW213760   8.558   0.572   8.970
37310SOL     OW13761  11.038  13.976   6.126
37310SOL    HW113762  11.090  14.026   6.189
37310SOL    HW213763  10.952  13.969   6.166
37311SOL     OW13764  10.638  13.983  11.983
37311SOL    HW113765  10.610  13.893  11.967
37311SOL    HW213766  10.708  13.975  12.048
37312SOL     OW13767   5.746  10.742  13.595
37312SOL    HW113768   5.769  10.649  13.598
37312SOL    HW213769   5.818  10.783  13.546
37313SOL     OW13770   2.346   1.782   8.251
37313SOL    HW113771   2.281   1.838   8.293
37313SOL    HW213772   2.352   1.816   8.161
37314SOL     OW13773  12.232   2.948   1.129
37314SOL    HW113774  12.156   2.903   1.091
37314SOL    HW213775  12.290   2.877   1.158
37315SOL     OW13776   0.674  10.487   9.112
37315SOL    HW113777   0.625  10.435   9.048
37315SOL    HW213778   0.644  10.577   9.097
37316SOL     OW13779   9.545  11.553  10.561
37316SOL    HW113780   9.517  11.516  10.477
37316SOL    HW213781   9.464  11.559  10.612
37317SOL     OW13782  12.464  11.794  13.618
37317SOL    HW113783  12.394  11.838  13.568
37317SOL    HW213784  12.532  11.860  13.627
37318SOL     OW13785   1.472  10.894  13.051
37318SOL    HW113786   1.383  10.865  13.030
37318SOL    HW213787   1.493  10.957  12.981
37319SOL     OW13788   4.716   6.039  10.367
37319SOL    HW113789   4.755   6.097  10.303
37319SOL    HW213790   4.772   5.961  10.367
37320SOL     OW13791   3.676   1.597   8.459
37320SOL    HW113792   3.580   1.597   8.464
37320SOL    HW213793   3.695   1.570   8.369
37321SOL     OW13794  12.792   6.004   8.390
37321SOL    HW113795  12.814   6.075   8.450
37321SOL    HW213796  12.768   6.048   8.308
37322SOL     OW13797   2.617   9.444   1.192
37322SOL    HW113798   2.634   9.526   1.147
37322SOL    HW213799   2.602   9.380   1.122
37323SOL     OW13800   7.939  12.431   5.679
37323SOL    HW113801   7.988  12.496   5.730
37323SOL    HW213802   7.867  12.404   5.736
37324SOL     OW13803   8.177  10.988   3.179
37324SOL    HW113804   8.142  11.019   3.263
37324SOL    HW213805   8.104  10.939   3.140
37325SOL     OW13806   6.456  13.293   9.961
37325SOL    HW113807   6.417  13.352  10.026
37325SOL    HW213808   6.508  13.231  10.012
37326SOL     OW13809   6.458   1.284   0.839
37326SOL    HW113810   6.438   1.310   0.930
37326SOL    HW213811   6.482   1.192   0.845
37327SOL     OW13812   5.766   8.990   6.419
37327SOL    HW113813   5.831   8.939   6.369
37327SOL    HW213814   5.684   8.942   6.407
37328SOL     OW13815   4.316   4.160  10.055
37328SOL    HW113816   4.391   4.106  10.082
37328SOL    HW213817   4.244   4.128  10.109
37329SOL     OW13818  10.581  13.016   2.910
37329SOL    HW113819  10.619  12.930   2.930
37329SOL    HW213820  10.654  13.077   2.920
37330SOL     OW13821   9.655   5.550   8.451
37330SOL    HW113822   9.626   5.474   8.501
37330SOL    HW213823   9.654   5.622   8.514
37331SOL     OW13824   0.267  10.905   0.432
37331SOL    HW113825   0.193  10.846   0.419
37331SOL    HW213826   0.227  10.990   0.453
37332SOL     OW13827   1.845  14.158   4.356
37332SOL    HW113828   1.853  14.137   4.449
37332SOL    HW213829   1.761  14.204   4.349
37333SOL     OW13830  12.456   5.271   7.179
37333SOL    HW113831  12.425   5.277   7.089
37333SOL    HW213832  12.539   5.224   7.172
37334SOL     OW13833   6.364  12.101   8.778
37334SOL    HW113834   6.300  12.034   8.753
37334SOL    HW213835   6.319  12.184   8.765
37335SOL     OW13836   0.385   7.711   1.793
37335SOL    HW113837   0.476   7.732   1.813
37335SOL    HW213838   0.387   7.675   1.704
37336SOL     OW13839   6.806   3.127  14.523
37336SOL    HW113840   6.877   3.083  14.475
37336SOL    HW213841   6.849   3.162  14.601
37337SOL     OW13842  11.454  12.500   0.737
37337SOL    HW113843  11.545  12.498   0.710
37337SOL    HW213844  11.442  12.589   0.772
37338SOL     OW13845   5.006   8.001   2.096
37338SOL    HW113846   5.045   8.021   2.011
37338SOL    HW213847   4.974   7.911   2.087
37339SOL     OW13848  12.275   5.203   9.150
37339SOL    HW113849  12.242   5.284   9.110
37339SOL    HW213850  12.364   5.195   9.117
37340SOL     OW13851  10.111  11.687   9.224
37340SOL    HW113852  10.140  11.733   9.303
37340SOL    HW213853  10.185  11.693   9.164
37341SOL     OW13854  11.798  14.574  11.290
37341SOL    HW113855  11.803  14.643  11.224
37341SOL    HW213856  11.878  14.586  11.342
37342SOL     OW13857   1.784  10.079   8.440
37342SOL    HW113858   1.818   9.993   8.417
37342SOL    HW213859   1.711  10.061   8.500
37343SOL     OW13860  10.713   0.555   4.368
37343SOL    HW113861  10.771   0.582   4.297
37343SOL    HW213862  10.636   0.611   4.358
37344SOL     OW13863   5.358   1.532   9.222
37344SOL    HW113864   5.406   1.614   9.209
37344SOL    HW213865   5.355   1.520   9.317
37345SOL     OW13866  13.884   9.616  11.466
37345SOL    HW113867  13.841   9.567  11.536
37345SOL    HW213868  13.939   9.680  11.512
37346SOL     OW13869   1.018   3.459   2.941
37346SOL    HW113870   0.938   3.439   2.892
37346SOL    HW213871   1.086   3.466   2.874
37347SOL     OW13872  10.721   5.146  11.853
37347SOL    HW113873  10.766   5.197  11.785
37347SOL    HW213874  10.630   5.176  11.848
37348SOL     OW13875   2.245  14.182  13.296
37348SOL    HW113876   2.181  14.246  13.326
37348SOL    HW213877   2.200  14.133  13.227
37349SOL     OW13878   0.720   8.898   8.513
37349SOL    HW113879   0.736   8.842   8.589
37349SOL    HW213880   0.703   8.836   8.441
37350SOL     OW13881   6.689  11.953   8.480
37350SOL    HW113882   6.696  12.008   8.558
37350SOL    HW213883   6.602  11.971   8.446
37351SOL     OW13884  10.733  13.103   5.315
37351SOL    HW113885  10.646  13.141   5.312
37351SOL    HW213886  10.792  13.178   5.313
37352SOL     OW13887   3.710   7.469   2.886
37352SOL    HW113888   3.639   7.446   2.827
37352SOL    HW213889   3.694   7.561   2.909
37353SOL     OW13890  13.472  11.555  10.378
37353SOL    HW113891  13.469  11.569  10.473
37353SOL    HW213892  13.520  11.630  10.344
37354SOL     OW13893   9.165  11.383  11.256
37354SOL    HW113894   9.085  11.380  11.205
37354SOL    HW213895   9.228  11.428  11.200
37355SOL     OW13896   1.410  12.895  12.658
37355SOL    HW113897   1.480  12.898  12.593
37355SOL    HW213898   1.332  12.926  12.612
37356SOL     OW13899  12.850  13.603   0.671
37356SOL    HW113900  12.799  13.668   0.719
37356SOL    HW213901  12.941  13.633   0.678
37357SOL     OW13902   7.829   4.043   7.806
37357SOL    HW113903   7.917   4.066   7.776
37357SOL    HW213904   7.830   3.947   7.808
37358SOL     OW13905   5.517   4.387   4.656
37358SOL    HW113906   5.450   4.370   4.721
37358SOL    HW213907   5.521   4.306   4.604
37359SOL     OW13908   1.187   3.051   5.299
37359SOL    HW113909   1.094   3.042   5.319
37359SOL    HW213910   1.207   2.973   5.246
37360SOL     OW13911  11.777  13.699   8.403
37360SOL    HW113912  11.831  13.746   8.467
37360SOL    HW213913  11.725  13.768   8.360
37361SOL     OW13914   0.166   7.004   5.470
37361SOL    HW113915   0.075   7.025   5.493
37361SOL    HW213916   0.175   7.034   5.380
37362SOL     OW13917   6.495  11.278  11.369
37362SOL    HW113918   6.505  11.185  11.350
37362SOL    HW213919   6.424  11.283  11.433
37363SOL     OW13920   6.258   6.367   6.441
37363SOL    HW113921   6.236   6.387   6.532
37363SOL    HW213922   6.311   6.287   6.446
37364SOL     OW13923  10.926   0.503   9.672
37364SOL    HW113924  10.848   0.556   9.686
37364SOL    HW213925  10.962   0.533   9.589
37365SOL     OW13926  14.732  13.906   8.980
37365SOL    HW113927  14.715  13.869   8.894
37365SOL    HW213928  14.709  13.999   8.972
37366SOL     OW13929   0.966   5.841  11.550
37366SOL    HW113930   0.916   5.768  11.587
37366SOL    HW213931   1.032   5.861  11.616
37367SOL     OW13932   1.025  13.432   4.537
37367SOL    HW113933   0.930  13.427   4.532
37367SOL    HW213934   1.054  13.341   4.544
37368SOL     OW13935  14.523   0.309   0.431
37368SOL    HW113936  14.559   0.381   0.379
37368SOL    HW213937  14.566   0.316   0.515
37369SOL     OW13938   1.399   0.563   5.173
37369SOL    HW113939   1.355   0.605   5.099
37369SOL    HW213940   1.463   0.627   5.203
37370SOL     OW13941   2.937   1.817  11.374
37370SOL    HW113942   2.995   1.888  11.348
37370SOL    HW213943   2.930   1.825  11.470
37371SOL     OW13944   2.246  13.360  12.809
37371SOL    HW113945   2.319  13.406  12.849
37371SOL    HW213946   2.268  13.267  12.818
37372SOL     OW13947  12.569  11.903   4.875
37372SOL    HW113948  12.479  11.874   4.862
37372SOL    HW213949  12.569  11.995   4.852
37373SOL     OW13950   8.375   1.231  12.754
37373SOL    HW113951   8.309   1.299  12.747
37373SOL    HW213952   8.381   1.214  12.848
37374SOL     OW13953  12.108   6.761   7.856
37374SOL    HW113954  12.119   6.712   7.774
37374SOL    HW213955  12.026   6.727   7.893
37375SOL     OW13956   4.069   8.247  10.312
37375SOL    HW113957   4.076   8.203  10.227
37375SOL    HW213958   4.126   8.197  10.370
37376SOL     OW13959  10.542   1.339   2.313
37376SOL    HW113960  10.537   1.306   2.224
37376SOL    HW213961  10.591   1.421   2.306
37377SOL     OW13962   1.873  14.246  11.811
37377SOL    HW113963   1.926  14.204  11.879
37377SOL    HW213964   1.926  14.238  11.731
37378SOL     OW13965   1.315   7.534   3.055
37378SOL    HW113966   1.317   7.602   3.122
37378SOL    HW213967   1.373   7.465   3.088
37379SOL     OW13968   4.133   5.371   8.302
37379SOL    HW113969   4.207   5.311   8.310
37379SOL    HW213970   4.135   5.423   8.382
37380SOL     OW13971  12.090   7.376   2.785
37380SOL    HW113972  12.054   7.406   2.702
37380SOL    HW213973  12.178   7.344   2.764
37381SOL     OW13974   0.815   1.388   9.416
37381SOL    HW113975   0.822   1.330   9.341
37381SOL    HW213976   0.872   1.462   9.396
37382SOL     OW13977   0.833   0.248   4.455
37382SOL    HW113978   0.747   0.288   4.468
37382SOL    HW213979   0.826   0.162   4.497
37383SOL     OW13980   8.560   4.643  11.574
37383SOL    HW113981   8.563   4.551  11.549
37383SOL    HW213982   8.652   4.667  11.588
37384SOL     OW13983   5.358   2.159   5.123
37384SOL    HW113984   5.407   2.177   5.203
37384SOL    HW213985   5.387   2.227   5.062
37385SOL     OW13986  12.753  14.690  12.647
37385SOL    HW113987  12.770  14.784  12.651
37385SOL    HW213988  12.833  14.650  12.682
37386SOL     OW13989  14.586   0.245  14.379
37386SOL    HW113990  14.566   0.284  14.294
37386SOL    HW213991  14.549   0.306  14.443
37387SOL     OW13992   8.230  12.003   5.616
37387SOL    HW113993   8.203  12.070   5.553
37387SOL    HW213994   8.160  12.003   5.681
37388SOL     OW13995  12.639  14.606   0.659
37388SOL    HW113996  12.721  14.654   0.652
37388SOL    HW213997  12.576  14.656   0.607
37389SOL     OW13998   7.554   1.848   4.100
37389SOL    HW113999   7.459   1.852   4.109
37389SOL    HW214000   7.579   1.935   4.070
37390SOL     OW14001   9.154   6.669   6.826
37390SOL    HW114002   9.136   6.745   6.881
37390SOL    HW214003   9.247   6.678   6.803
37391SOL     OW14004   6.965  13.244   6.116
37391SOL    HW114005   6.880  13.284   6.099
37391SOL    HW214006   7.028  13.315   6.104
37392SOL     OW14007   6.505   8.857   8.698
37392SOL    HW114008   6.461   8.794   8.641
37392SOL    HW214009   6.570   8.805   8.746
37393SOL     OW14010   5.816  13.970  13.280
37393SOL    HW114011   5.784  14.056  13.308
37393SOL    HW214012   5.738  13.915  13.277
37394SOL     OW14013  13.557   5.100  14.070
37394SOL    HW114014  13.480   5.118  14.016
37394SOL    HW214015  13.537   5.016  14.113
37395SOL     OW14016  14.061  14.630   8.393
37395SOL    HW114017  14.042  14.598   8.481
37395SOL    HW214018  14.003  14.705   8.381
37396SOL     OW14019  12.150   5.250  13.570
37396SOL    HW114020  12.144   5.340  13.537
37396SOL    HW214021  12.062   5.232  13.604
37397SOL     OW14022   3.000  12.107   5.216
37397SOL    HW114023   3.030  12.137   5.302
37397SOL    HW214024   3.076  12.116   5.159
37398SOL     OW14025  11.954   2.336   3.737
37398SOL    HW114026  11.881   2.392   3.710
37398SOL    HW214027  12.029   2.371   3.690
37399SOL     OW14028   5.339  12.948  11.496
37399SOL    HW114029   5.331  12.856  11.472
37399SOL    HW214030   5.291  12.956  11.579
37400SOL     OW14031   5.406   1.484   5.794
37400SOL    HW114032   5.314   1.470   5.772
37400SOL    HW214033   5.406   1.564   5.847
37401SOL     OW14034   2.693   4.630  10.364
37401SOL    HW114035   2.659   4.591  10.445
37401SOL    HW214036   2.772   4.677  10.392
37402SOL     OW14037   6.156   8.796   0.495
37402SOL    HW114038   6.155   8.887   0.466
37402SOL    HW214039   6.170   8.745   0.415
37403SOL     OW14040   1.177  13.425   1.689
37403SOL    HW114041   1.146  13.343   1.729
37403SOL    HW214042   1.216  13.473   1.763
37404SOL     OW14043   9.055   5.426   0.357
37404SOL    HW114044   9.130   5.376   0.326
37404SOL    HW214045   8.979   5.377   0.326
37405SOL     OW14046  12.102   8.596   8.371
37405SOL    HW114047  12.127   8.541   8.297
37405SOL    HW214048  12.114   8.686   8.339
37406SOL     OW14049  14.023  13.138  10.062
37406SOL    HW114050  13.950  13.094  10.018
37406SOL    HW214051  13.988  13.224  10.086
37407SOL     OW14052   7.319   6.559   7.936
37407SOL    HW114053   7.337   6.653   7.937
37407SOL    HW214054   7.405   6.518   7.924
37408SOL     OW14055  12.000   3.061   6.301
37408SOL    HW114056  12.009   3.010   6.382
37408SOL    HW214057  12.036   3.147   6.323
37409SOL     OW14058   5.535  13.922  10.244
37409SOL    HW114059   5.455  13.872  10.263
37409SOL    HW214060   5.513  14.012  10.267
37410SOL     OW14061  12.886  11.175   6.449
37410SOL    HW114062  12.902  11.107   6.514
37410SOL    HW214063  12.945  11.153   6.376
37411SOL     OW14064   8.142   8.036   6.220
37411SOL    HW114065   8.169   8.127   6.235
37411SOL    HW214066   8.090   8.014   6.297
37412SOL     OW14067  12.275  11.250   1.762
37412SOL    HW114068  12.346  11.203   1.717
37412SOL    HW214069  12.197  11.196   1.747
37413SOL     OW14070   4.141  11.842   6.545
37413SOL    HW114071   4.220  11.796   6.574
37413SOL    HW214072   4.086  11.847   6.624
37414SOL     OW14073   4.252   4.420   9.254
37414SOL    HW114074   4.306   4.352   9.213
37414SOL    HW214075   4.226   4.477   9.181
37415SOL     OW14076   4.031   9.033   8.231
37415SOL    HW114077   4.020   8.939   8.218
37415SOL    HW214078   4.006   9.072   8.147
37416SOL     OW14079   3.683   8.053   0.419
37416SOL    HW114080   3.675   7.970   0.468
37416SOL    HW214081   3.616   8.109   0.457
37417SOL     OW14082  10.862   5.438  14.347
37417SOL    HW114083  10.791   5.472  14.292
37417SOL    HW214084  10.863   5.344  14.330
37418SOL     OW14085   0.478   4.013   8.659
37418SOL    HW114086   0.406   3.981   8.604
37418SOL    HW214087   0.555   4.010   8.603
37419SOL     OW14088  12.890   0.043  11.255
37419SOL    HW114089  12.935  14.838  11.220
37419SOL    HW214090  12.809   0.049  11.203
37420SOL     OW14091   0.453   0.352   9.013
37420SOL    HW114092   0.373   0.404   9.016
37420SOL    HW214093   0.459   0.323   8.922
37421SOL     OW14094  10.688   3.089   1.164
37421SOL    HW114095  10.594   3.075   1.177
37421SOL    HW214096  10.695   3.119   1.073
37422SOL     OW14097   7.216   2.614   8.685
37422SOL    HW114098   7.203   2.549   8.616
37422SOL    HW214099   7.158   2.686   8.661
37423SOL     OW14100  14.473   6.667   9.221
37423SOL    HW114101  14.487   6.576   9.198
37423SOL    HW214102  14.382   6.672   9.248
37424SOL     OW14103   9.268   4.767   8.378
37424SOL    HW114104   9.218   4.748   8.457
37424SOL    HW214105   9.337   4.827   8.407
37425SOL     OW14106   7.679  14.093  13.518
37425SOL    HW114107   7.762  14.046  13.527
37425SOL    HW214108   7.679  14.155  13.591
37426SOL     OW14109  12.924   7.315  14.293
37426SOL    HW114110  13.009   7.273  14.285
37426SOL    HW214111  12.944   7.406  14.314
37427SOL     OW14112   9.094  10.855   3.114
37427SOL    HW114113   9.115  10.788   3.049
37427SOL    HW214114   9.166  10.919   3.105
37428SOL     OW14115  14.736  12.296  12.965
37428SOL    HW114116  14.774  12.267  13.048
37428SOL    HW214117  14.749  12.390  12.963
37429SOL     OW14118   0.469   2.937   6.868
37429SOL    HW114119   0.501   2.947   6.778
37429SOL    HW214120   0.379   2.970   6.864
37430SOL     OW14121   4.259   1.197   9.819
37430SOL    HW114122   4.312   1.192   9.740
37430SOL    HW214123   4.201   1.121   9.814
37431SOL     OW14124  14.666   8.544  14.795
37431SOL    HW114125  14.741   8.603  14.807
37431SOL    HW214126  14.628   8.571  14.711
37432SOL     OW14127   5.812  10.864   0.905
37432SOL    HW114128   5.851  10.859   0.818
37432SOL    HW214129   5.831  10.780   0.946
37433SOL     OW14130   6.347  13.627   9.741
37433SOL    HW114131   6.431  13.589   9.766
37433SOL    HW214132   6.357  13.720   9.757
37434SOL     OW14133  11.584  11.977   7.990
37434SOL    HW114134  11.516  11.967   7.923
37434SOL    HW214135  11.606  12.070   7.988
37435SOL     OW14136   5.928  12.189   5.392
37435SOL    HW114137   6.012  12.221   5.359
37435SOL    HW214138   5.864  12.255   5.364
37436SOL     OW14139  14.198  10.885   1.730
37436SOL    HW114140  14.125  10.885   1.793
37436SOL    HW214141  14.273  10.917   1.781
37437SOL     OW14142   4.184   6.307   0.232
37437SOL    HW114143   4.176   6.401   0.252
37437SOL    HW214144   4.239   6.303   0.154
37438SOL     OW14145   0.989   2.673   5.004
37438SOL    HW114146   0.907   2.675   4.954
37438SOL    HW214147   1.053   2.713   4.945
37439SOL     OW14148   8.219   3.335   8.576
37439SOL    HW114149   8.178   3.373   8.654
37439SOL    HW214150   8.274   3.265   8.610
37440SOL     OW14151   4.581   8.851   2.984
37440SOL    HW114152   4.569   8.847   3.079
37440SOL    HW214153   4.661   8.803   2.967
37441SOL     OW14154  13.120  10.608   1.369
37441SOL    HW114155  13.075  10.566   1.442
37441SOL    HW214156  13.107  10.547   1.296
37442SOL     OW14157  12.221  11.711   2.380
37442SOL    HW114158  12.315  11.702   2.367
37442SOL    HW214159  12.208  11.801   2.408
37443SOL     OW14160  10.748   2.312  10.784
37443SOL    HW114161  10.725   2.403  10.799
37443SOL    HW214162  10.677   2.261  10.824
37444SOL     OW14163   8.494  11.254   9.658
37444SOL    HW114164   8.532  11.291   9.739
37444SOL    HW214165   8.454  11.330   9.615
37445SOL     OW14166   4.001  14.154   1.373
37445SOL    HW114167   3.990  14.177   1.465
37445SOL    HW214168   4.085  14.192   1.348
37446SOL     OW14169   2.070   0.749  12.525
37446SOL    HW114170   2.149   0.703  12.552
37446SOL    HW214171   2.075   0.834  12.567
37447SOL     OW14172  11.988   2.010   8.748
37447SOL    HW114173  12.023   1.969   8.827
37447SOL    HW214174  11.954   2.094   8.778
37448SOL     OW14175   8.195   5.784  13.686
37448SOL    HW114176   8.134   5.856  13.698
37448SOL    HW214177   8.208   5.779  13.591
37449SOL     OW14178  10.143   0.503   9.666
37449SOL    HW114179  10.232   0.490   9.633
37449SOL    HW214180  10.116   0.586   9.629
37450SOL     OW14181   9.018   9.298   8.512
37450SOL    HW114182   9.097   9.351   8.524
37450SOL    HW214183   9.012   9.246   8.592
37451SOL     OW14184   2.434   0.498   1.920
37451SOL    HW114185   2.376   0.452   1.981
37451SOL    HW214186   2.430   0.589   1.948
37452SOL     OW14187  13.048  10.366  11.059
37452SOL    HW114188  12.969  10.318  11.082
37452SOL    HW214189  13.022  10.458  11.064
37453SOL     OW14190   6.929   3.590  13.799
37453SOL    HW114191   6.967   3.560  13.881
37453SOL    HW214192   6.935   3.514  13.741
37454SOL     OW14193   2.874  10.002  13.714
37454SOL    HW114194   2.886   9.966  13.626
37454SOL    HW214195   2.792   9.963  13.745
37455SOL     OW14196   1.813   3.234   6.896
37455SOL    HW114197   1.810   3.329   6.883
37455SOL    HW214198   1.722   3.206   6.893
37456SOL     OW14199   7.530   4.246   9.139
37456SOL    HW114200   7.480   4.295   9.205
37456SOL    HW214201   7.612   4.223   9.183
37457SOL     OW14202  14.331  11.114  13.894
37457SOL    HW114203  14.284  11.152  13.969
37457SOL    HW214204  14.410  11.168  13.886
37458SOL     OW14205  14.035   0.528   0.895
37458SOL    HW114206  13.993   0.499   0.976
37458SOL    HW214207  14.067   0.616   0.915
37459SOL     OW14208  10.206   6.248  13.045
37459SOL    HW114209  10.147   6.230  12.972
37459SOL    HW214210  10.149   6.259  13.121
37460SOL     OW14211   7.785   0.793  14.259
37460SOL    HW114212   7.782   0.779  14.164
37460SOL    HW214213   7.764   0.707  14.296
37461SOL     OW14214   8.719  14.565   8.810
37461SOL    HW114215   8.713  14.562   8.906
37461SOL    HW214216   8.641  14.516   8.781
37462SOL     OW14217  14.421   1.892   9.647
37462SOL    HW114218  14.449   1.929   9.564
37462SOL    HW214219  14.330   1.921   9.657
37463SOL     OW14220  14.346   7.925  11.155
37463SOL    HW114221  14.401   7.940  11.079
37463SOL    HW214222  14.271   7.983  11.143
37464SOL     OW14223  10.555  12.889   5.164
37464SOL    HW114224  10.516  12.968   5.199
37464SOL    HW214225  10.614  12.858   5.233
37465SOL     OW14226   3.744   5.660   4.483
37465SOL    HW114227   3.672   5.634   4.425
37465SOL    HW214228   3.715   5.632   4.570
37466SOL     OW14229   9.184   3.406  10.932
37466SOL    HW114230   9.239   3.418  10.855
37466SOL    HW214231   9.195   3.487  10.982
37467SOL     OW14232  10.218   8.728  10.229
37467SOL    HW114233  10.164   8.800  10.264
37467SOL    HW214234  10.235   8.753  10.139
37468SOL     OW14235   6.004  11.052   3.734
37468SOL    HW114236   5.940  11.053   3.805
37468SOL    HW214237   6.059  10.975   3.752
37469SOL     OW14238   0.395  10.850   2.198
37469SOL    HW114239   0.451  10.881   2.127
37469SOL    HW214240   0.397  10.755   2.190
37470SOL     OW14241  12.793   8.347   2.721
37470SOL    HW114242  12.740   8.361   2.642
37470SOL    HW214243  12.743   8.283   2.771
37471SOL     OW14244   8.860  12.494  12.180
37471SOL    HW114245   8.794  12.487  12.111
37471SOL    HW214246   8.817  12.546  12.248
37472SOL     OW14247  14.514   6.393   9.165
37472SOL    HW114248  14.564   6.428   9.092
37472SOL    HW214249  14.439   6.349   9.124
37473SOL     OW14250   3.057  13.495   9.696
37473SOL    HW114251   3.055  13.585   9.664
37473SOL    HW214252   3.150  13.473   9.700
37474SOL     OW14253   1.475   5.882   3.440
37474SOL    HW114254   1.469   5.883   3.536
37474SOL    HW214255   1.475   5.789   3.417
37475SOL     OW14256   8.306  14.162   2.261
37475SOL    HW114257   8.389  14.205   2.277
37475SOL    HW214258   8.325  14.069   2.268
37476SOL     OW14259   4.369   9.070   2.268
37476SOL    HW114260   4.278   9.075   2.294
37476SOL    HW214261   4.408   9.152   2.300
37477SOL     OW14262  13.673   9.700   8.473
37477SOL    HW114263  13.749   9.741   8.514
37477SOL    HW214264  13.605   9.767   8.478
37478SOL     OW14265   2.242  12.362   9.859
37478SOL    HW114266   2.193  12.429   9.812
37478SOL    HW214267   2.245  12.288   9.799
37479SOL     OW14268   4.643  10.838   7.269
37479SOL    HW114269   4.677  10.759   7.311
37479SOL    HW214270   4.591  10.805   7.196
37480SOL     OW14271   3.910  10.588   4.707
37480SOL    HW114272   3.845  10.540   4.654
37480SOL    HW214273   3.869  10.674   4.721
37481SOL     OW14274   0.198   6.821  13.019
37481SOL    HW114275   0.126   6.834  13.081
37481SOL    HW214276   0.214   6.727  13.021
37482SOL     OW14277   3.052   2.580   2.587
37482SOL    HW114278   3.132   2.606   2.633
37482SOL    HW214279   3.019   2.505   2.637
37483SOL     OW14280   7.865   7.693   2.526
37483SOL    HW114281   7.896   7.728   2.610
37483SOL    HW214282   7.778   7.656   2.545
37484SOL     OW14283   6.333  12.844   1.029
37484SOL    HW114284   6.342  12.887   1.114
37484SOL    HW214285   6.251  12.878   0.994
37485SOL     OW14286   9.711   4.579   2.157
37485SOL    HW114287   9.622   4.591   2.188
37485SOL    HW214288   9.733   4.660   2.112
37486SOL     OW14289   3.728   2.140   1.401
37486SOL    HW114290   3.731   2.159   1.495
37486SOL    HW214291   3.636   2.121   1.383
37487SOL     OW14292   5.922   9.180  14.541
37487SOL    HW114293   5.862   9.233  14.593
37487SOL    HW214294   6.006   9.186  14.587
37488SOL     OW14295  13.728   0.215  13.322
37488SOL    HW114296  13.686   0.182  13.401
37488SOL    HW214297  13.678   0.293  13.298
37489SOL     OW14298   0.033  11.735  12.602
37489SOL    HW114299   0.094  11.732  12.528
37489SOL    HW214300   0.056  11.817  12.647
37490SOL     OW14301   9.465  12.593   5.431
37490SOL    HW114302   9.428  12.634   5.509
37490SOL    HW214303   9.556  12.576   5.454
37491SOL     OW14304   5.411   9.889  10.544
37491SOL    HW114305   5.416   9.864  10.452
37491SOL    HW214306   5.323   9.861  10.571
37492SOL     OW14307   2.811  13.026   6.434
37492SOL    HW114308   2.860  12.945   6.417
37492SOL    HW214309   2.741  12.999   6.494
37493SOL     OW14310   2.544   0.047   2.351
37493SOL    HW114311   2.534   0.099   2.271
37493SOL    HW214312   2.506   0.102   2.420
37494SOL     OW14313   2.962   4.631  10.047
37494SOL    HW114314   2.870   4.626  10.019
37494SOL    HW214315   3.013   4.607   9.970
37495SOL     OW14316  13.199   5.927   8.273
37495SOL    HW114317  13.294   5.940   8.274
37495SOL    HW214318  13.176   5.932   8.180
37496SOL     OW14319  11.005  14.673   8.195
37496SOL    HW114320  11.082  14.694   8.143
37496SOL    HW214321  10.945  14.747   8.181
37497SOL     OW14322  11.884   1.599   2.628
37497SOL    HW114323  11.874   1.516   2.674
37497SOL    HW214324  11.864   1.578   2.537
37498SOL     OW14325   8.166   1.031   2.065
37498SOL    HW114326   8.099   1.063   2.004
37498SOL    HW214327   8.134   0.944   2.092
37499SOL     OW14328  14.332  11.439   5.831
37499SOL    HW114329  14.381  11.388   5.767
37499SOL    HW214330  14.265  11.379   5.863
37500SOL     OW14331   9.993   2.487   3.773
37500SOL    HW114332  10.006   2.468   3.866
37500SOL    HW214333   9.952   2.573   3.772
37501SOL     OW14334  12.244   8.409   1.392
37501SOL    HW114335  12.183   8.372   1.457
37501SOL    HW214336  12.188   8.435   1.319
37502SOL     OW14337  10.105  11.061   1.514
37502SOL    HW114338  10.032  11.089   1.569
37502SOL    HW214339  10.131  11.141   1.467
37503SOL     OW14340   8.912  12.541   9.391
37503SOL    HW114341   8.855  12.594   9.446
37503SOL    HW214342   8.991  12.528   9.443
37504SOL     OW14343   2.854   3.298   5.066
37504SOL    HW114344   2.857   3.253   4.981
37504SOL    HW214345   2.946   3.304   5.092
37505SOL     OW14346   6.384   1.885   3.992
37505SOL    HW114347   6.375   1.928   4.077
37505SOL    HW214348   6.357   1.794   4.007
37506SOL     OW14349   2.352  13.850   1.584
37506SOL    HW114350   2.392  13.763   1.588
37506SOL    HW214351   2.400  13.896   1.515
37507SOL     OW14352  13.220   0.807   6.202
37507SOL    HW114353  13.193   0.719   6.175
37507SOL    HW214354  13.307   0.818   6.162
37508SOL     OW14355   1.272  11.105  13.586
37508SOL    HW114356   1.239  11.088  13.675
37508SOL    HW214357   1.263  11.022  13.541
37509SOL     OW14358   6.305  12.961  14.465
37509SOL    HW114359   6.303  13.012  14.546
37509SOL    HW214360   6.351  12.881  14.488
37510SOL     OW14361  10.122  11.825   5.879
37510SOL    HW114362  10.062  11.896   5.905
37510SOL    HW214363  10.205  11.847   5.922
37511SOL     OW14364   1.051  13.568   0.742
37511SOL    HW114365   0.984  13.509   0.705
37511SOL    HW214366   1.087  13.519   0.816
37512SOL     OW14367  10.984  10.912   3.494
37512SOL    HW114368  10.998  10.822   3.465
37512SOL    HW214369  10.993  10.965   3.415
37513SOL     OW14370  11.070   4.933   6.944
37513SOL    HW114371  11.162   4.915   6.964
37513SOL    HW214372  11.034   4.969   7.025
37514SOL     OW14373   0.225   0.074   3.561
37514SOL    HW114374   0.300   0.113   3.515
37514SOL    HW214375   0.165   0.047   3.492
37515SOL     OW14376  12.100   8.256   8.062
37515SOL    HW114377  12.017   8.288   8.096
37515SOL    HW214378  12.078   8.174   8.018
37516SOL     OW14379   3.534   1.943  11.113
37516SOL    HW114380   3.600   1.907  11.172
37516SOL    HW214381   3.487   1.866  11.080
37517SOL     OW14382  10.176   3.611   3.527
37517SOL    HW114383  10.149   3.521   3.544
37517SOL    HW214384  10.272   3.606   3.519
37518SOL     OW14385  14.435   8.021   7.470
37518SOL    HW114386  14.375   8.095   7.462
37518SOL    HW214387  14.521   8.058   7.447
37519SOL     OW14388  12.902  10.128  10.726
37519SOL    HW114389  12.809  10.114  10.743
37519SOL    HW214390  12.911  10.118  10.631
37520SOL     OW14391  13.565   6.179   4.799
37520SOL    HW114392  13.614   6.104   4.764
37520SOL    HW214393  13.569   6.168   4.894
37521SOL     OW14394  14.454  10.884   9.813
37521SOL    HW114395  14.537  10.837   9.807
37521SOL    HW214396  14.393  10.833   9.759
37522SOL     OW14397   9.447   4.349  12.207
37522SOL    HW114398   9.532   4.358  12.163
37522SOL    HW214399   9.406   4.434  12.197
37523SOL     OW14400  12.203   8.598   4.180
37523SOL    HW114401  12.235   8.678   4.138
37523SOL    HW214402  12.201   8.533   4.109
37524SOL     OW14403   4.070  12.719   6.813
37524SOL    HW114404   4.013  12.659   6.764
37524SOL    HW214405   4.116  12.768   6.745
37525SOL     OW14406   4.117   7.781  11.603
37525SOL    HW114407   4.023   7.796  11.613
37525SOL    HW214408   4.127   7.755  11.512
37526SOL     OW14409   3.602   7.341   7.449
37526SOL    HW114410   3.509   7.362   7.453
37526SOL    HW214411   3.615   7.307   7.360
37527SOL     OW14412   6.344   0.670   0.749
37527SOL    HW114413   6.418   0.729   0.733
37527SOL    HW214414   6.301   0.705   0.827
37528SOL     OW14415   3.938   5.516  14.577
37528SOL    HW114416   3.963   5.548  14.490
37528SOL    HW214417   4.018   5.524  14.629
37529SOL     OW14418   9.045   5.251   9.432
37529SOL    HW114419   9.072   5.239   9.341
37529SOL    HW214420   9.126   5.270   9.479
37530SOL     OW14421   5.191   8.353   2.736
37530SOL    HW114422   5.208   8.339   2.829
37530SOL    HW214423   5.259   8.302   2.691
37531SOL     OW14424   2.545   9.448   2.099
37531SOL    HW114425   2.496   9.519   2.141
37531SOL    HW214426   2.523   9.370   2.150
37532SOL     OW14427  12.029  13.361   2.099
37532SOL    HW114428  11.953  13.306   2.081
37532SOL    HW214429  11.993  13.442   2.135
37533SOL     OW14430  10.373   0.394   9.509
37533SOL    HW114431  10.347   0.309   9.474
37533SOL    HW214432  10.469   0.390   9.511
37534SOL     OW14433  14.730   2.715   5.254
37534SOL    HW114434  14.720   2.678   5.166
37534SOL    HW214435  14.726   2.810   5.240
37535SOL     OW14436   7.669   2.904   0.874
37535SOL    HW114437   7.625   2.988   0.884
37535SOL    HW214438   7.700   2.903   0.783
37536SOL     OW14439   3.927   4.701   3.929
37536SOL    HW114440   3.954   4.775   3.983
37536SOL    HW214441   3.831   4.700   3.936
37537SOL     OW14442  10.877  11.681   6.147
37537SOL    HW114443  10.782  11.691   6.149
37537SOL    HW214444  10.910  11.760   6.188
37538SOL     OW14445   4.130   9.671   2.672
37538SOL    HW114446   4.090   9.611   2.609
37538SOL    HW214447   4.224   9.654   2.665
37539SOL     OW14448  10.029  12.019   8.856
37539SOL    HW114449  10.066  11.931   8.862
37539SOL    HW214450   9.936  12.007   8.874
37540SOL     OW14451   0.979   8.157   0.554
37540SOL    HW114452   0.910   8.103   0.593
37540SOL    HW214453   0.939   8.244   0.545
37541SOL     OW14454   5.419   6.269  10.025
37541SOL    HW114455   5.455   6.358  10.017
37541SOL    HW214456   5.484   6.213   9.985
37542SOL     OW14457  10.734  10.548   9.410
37542SOL    HW114458  10.740  10.595   9.327
37542SOL    HW214459  10.731  10.456   9.385
37543SOL     OW14460   5.025  10.141   4.638
37543SOL    HW114461   5.053  10.081   4.569
37543SOL    HW214462   5.104  10.156   4.691
37544SOL     OW14463   5.800   8.436   9.548
37544SOL    HW114464   5.836   8.392   9.625
37544SOL    HW214465   5.732   8.377   9.517
37545SOL     OW14466   6.743   1.099   7.586
37545SOL    HW114467   6.708   1.150   7.513
37545SOL    HW214468   6.672   1.099   7.651
37546SOL     OW14469   5.749   1.979  13.395
37546SOL    HW114470   5.737   1.971  13.490
37546SOL    HW214471   5.843   1.997  13.385
37547SOL     OW14472  13.109   5.958   6.096
37547SOL    HW114473  13.167   5.885   6.113
37547SOL    HW214474  13.021   5.920   6.102
37548SOL     OW14475  12.938   9.464  11.990
37548SOL    HW114476  12.979   9.385  11.956
37548SOL    HW214477  12.844   9.443  11.994
37549SOL     OW14478   3.677  14.446   1.185
37549SOL    HW114479   3.686  14.524   1.240
37549SOL    HW214480   3.733  14.463   1.110
37550SOL     OW14481   3.844   6.191   6.817
37550SOL    HW114482   3.750   6.192   6.836
37550SOL    HW214483   3.856   6.261   6.753
37551SOL     OW14484   2.349   3.371   7.768
37551SOL    HW114485   2.368   3.453   7.814
37551SOL    HW214486   2.405   3.306   7.810
37552SOL     OW14487  13.383   3.930  12.728
37552SOL    HW114488  13.344   3.847  12.703
37552SOL    HW214489  13.426   3.913  12.812
37553SOL     OW14490   4.785   9.304   4.457
37553SOL    HW114491   4.836   9.379   4.427
37553SOL    HW214492   4.758   9.326   4.545
37554SOL     OW14493   6.949   9.218   6.788
37554SOL    HW114494   7.024   9.199   6.843
37554SOL    HW214495   6.986   9.250   6.706
37555SOL     OW14496   1.421  10.537  12.164
37555SOL    HW114497   1.395  10.483  12.089
37555SOL    HW214498   1.489  10.486  12.208
37556SOL     OW14499   9.004  11.804   9.464
37556SOL    HW114500   8.929  11.844   9.422
37556SOL    HW214501   9.019  11.723   9.415
37557SOL     OW14502  12.766   3.748   2.648
37557SOL    HW114503  12.738   3.836   2.625
37557SOL    HW214504  12.758   3.698   2.566
37558SOL     OW14505   8.219   5.448   0.285
37558SOL    HW114506   8.141   5.424   0.234
37558SOL    HW214507   8.194   5.433   0.376
37559SOL     OW14508   0.296   0.669   7.694
37559SOL    HW114509   0.322   0.584   7.660
37559SOL    HW214510   0.201   0.664   7.702
37560SOL     OW14511  10.213  10.168  10.060
37560SOL    HW114512  10.212  10.074  10.039
37560SOL    HW214513  10.125  10.199  10.036
37561SOL     OW14514   1.613   3.648  14.002
37561SOL    HW114515   1.643   3.725  13.955
37561SOL    HW214516   1.523   3.670  14.029
37562SOL     OW14517   6.331   4.291  10.900
37562SOL    HW114518   6.376   4.207  10.906
37562SOL    HW214519   6.385   4.350  10.953
37563SOL     OW14520  10.207  13.422  13.005
37563SOL    HW114521  10.264  13.413  13.081
37563SOL    HW214522  10.125  13.458  13.039
37564SOL     OW14523   6.153   6.597   8.732
37564SOL    HW114524   6.099   6.675   8.745
37564SOL    HW214525   6.243   6.629   8.738
37565SOL     OW14526   0.039  13.662   1.459
37565SOL    HW114527   0.023  13.676   1.366
37565SOL    HW214528   0.092  13.736   1.486
37566SOL     OW14529   2.328  11.419   3.047
37566SOL    HW114530   2.280  11.477   2.987
37566SOL    HW214531   2.270  11.409   3.122
37567SOL     OW14532   5.395  12.685   0.872
37567SOL    HW114533   5.457  12.667   0.942
37567SOL    HW214534   5.416  12.621   0.804
37568SOL     OW14535   1.060  11.827  10.888
37568SOL    HW114536   1.155  11.828  10.890
37568SOL    HW214537   1.034  11.790  10.972
37569SOL     OW14538  10.833   8.815   8.546
37569SOL    HW114539  10.797   8.747   8.488
37569SOL    HW214540  10.829   8.895   8.493
37570SOL     OW14541   3.665   6.977   1.635
37570SOL    HW114542   3.635   6.942   1.551
37570SOL    HW214543   3.597   7.040   1.661
37571SOL     OW14544   5.576   6.623   6.122
37571SOL    HW114545   5.554   6.685   6.052
37571SOL    HW214546   5.662   6.588   6.097
37572SOL     OW14547  11.521  13.367  12.107
37572SOL    HW114548  11.488  13.368  12.196
37572SOL    HW214549  11.615  13.376  12.116
37573SOL     OW14550  11.153   7.730   3.416
37573SOL    HW114551  11.222   7.729   3.350
37573SOL    HW214552  11.075   7.699   3.370
37574SOL     OW14553  14.817  12.020  11.943
37574SOL    HW114554  14.854  12.107  11.928
37574SOL    HW214555  14.867  11.985  12.017
37575SOL     OW14556   6.422   7.364   9.314
37575SOL    HW114557   6.370   7.303   9.261
37575SOL    HW214558   6.358   7.420   9.357
37576SOL     OW14559   5.690  13.781   9.157
37576SOL    HW114560   5.722  13.870   9.141
37576SOL    HW214561   5.768  13.730   9.174
37577SOL     OW14562   3.686   1.915   9.495
37577SOL    HW114563   3.691   1.910   9.400
37577SOL    HW214564   3.626   1.988   9.513
37578SOL     OW14565   4.926  10.474   6.340
37578SOL    HW114566   4.866  10.488   6.413
37578SOL    HW214567   4.983  10.403   6.370
37579SOL     OW14568  14.623   2.051  14.220
37579SOL    HW114569  14.702   2.012  14.183
37579SOL    HW214570  14.654   2.123  14.274
37580SOL     OW14571   0.211  12.072  11.304
37580SOL    HW114572   0.141  12.118  11.259
37580SOL    HW214573   0.261  12.029  11.235
37581SOL     OW14574   2.841   1.708   4.531
37581SOL    HW114575   2.917   1.652   4.547
37581SOL    HW214576   2.795   1.665   4.459
37582SOL     OW14577  13.854   0.343   7.751
37582SOL    HW114578  13.928   0.351   7.811
37582SOL    HW214579  13.877   0.401   7.677
37583SOL     OW14580  14.052   3.163   4.512
37583SOL    HW114581  14.056   3.258   4.519
37583SOL    HW214582  13.966   3.140   4.548
37584SOL     OW14583   1.515   6.768  14.752
37584SOL    HW114584   1.466   6.847  14.772
37584SOL    HW214585   1.551   6.740  14.837
37585SOL     OW14586  14.504  11.060   8.889
37585SOL    HW114587  14.590  11.024   8.866
37585SOL    HW214588  14.479  11.013   8.968
37586SOL     OW14589   7.476   0.152   1.542
37586SOL    HW114590   7.488   0.222   1.606
37586SOL    HW214591   7.551   0.095   1.555
37587SOL     OW14592   6.845   2.799  11.370
37587SOL    HW114593   6.879   2.875  11.324
37587SOL    HW214594   6.819   2.738  11.301
37588SOL     OW14595  12.515   9.407   9.832
37588SOL    HW114596  12.528   9.351   9.909
37588SOL    HW214597  12.449   9.362   9.780
37589SOL     OW14598   4.739  10.944   2.318
37589SOL    HW114599   4.797  10.934   2.393
37589SOL    HW214600   4.771  10.881   2.254
37590SOL     OW14601  13.868   4.928  13.068
37590SOL    HW114602  13.956   4.951  13.038
37590SOL    HW214603  13.882   4.854  13.127
37591SOL     OW14604  13.321   6.522   8.548
37591SOL    HW114605  13.387   6.527   8.478
37591SOL    HW214606  13.365   6.559   8.625
37592SOL     OW14607   4.550   1.043  13.064
37592SOL    HW114608   4.483   1.111  13.072
37592SOL    HW214609   4.508   0.974  13.013
37593SOL     OW14610   5.611   6.073  11.615
37593SOL    HW114611   5.602   5.978  11.622
37593SOL    HW214612   5.652   6.099  11.697
37594SOL     OW14613   1.953   7.108  10.273
37594SOL    HW114614   1.979   7.119  10.181
37594SOL    HW214615   1.881   7.045  10.271
37595SOL     OW14616   4.887  11.241  14.716
37595SOL    HW114617   4.900  11.248  14.811
37595SOL    HW214618   4.835  11.162  14.705
37596SOL     OW14619   4.964   7.305   4.504
37596SOL    HW114620   4.945   7.369   4.435
37596SOL    HW214621   4.879   7.269   4.528
37597SOL     OW14622   4.041   2.844  12.273
37597SOL    HW114623   4.069   2.870  12.361
37597SOL    HW214624   4.004   2.923  12.235
37598SOL     OW14625  11.383  14.360  14.858
37598SOL    HW114626  11.357  14.410   0.063
37598SOL    HW214627  11.301  14.323  14.824
37599SOL     OW14628   9.164  10.305   4.264
37599SOL    HW114629   9.156  10.269   4.352
37599SOL    HW214630   9.199  10.393   4.277
37600SOL     OW14631  11.948  13.174   3.023
37600SOL    HW114632  11.972  13.266   3.033
37600SOL    HW214633  12.028  13.132   2.992
37601SOL     OW14634   3.122  14.305   1.064
37601SOL    HW114635   3.213  14.325   1.043
37601SOL    HW214636   3.072  14.377   1.025
37602SOL     OW14637  10.906   7.115  12.141
37602SOL    HW114638  10.970   7.051  12.171
37602SOL    HW214639  10.854   7.068  12.075
37603SOL     OW14640   1.360   3.930   3.346
37603SOL    HW114641   1.279   3.891   3.377
37603SOL    HW214642   1.429   3.870   3.377
37604SOL     OW14643   7.653   5.205  11.578
37604SOL    HW114644   7.655   5.254  11.496
37604SOL    HW214645   7.650   5.113  11.552
37605SOL     OW14646   7.615   9.352   3.345
37605SOL    HW114647   7.672   9.412   3.393
37605SOL    HW214648   7.668   9.321   3.271
37606SOL     OW14649  10.745  10.434   5.167
37606SOL    HW114650  10.804  10.504   5.139
37606SOL    HW214651  10.704  10.468   5.247
37607SOL     OW14652   1.885   8.056   6.408
37607SOL    HW114653   1.938   8.021   6.480
37607SOL    HW214654   1.946   8.071   6.337
37608SOL     OW14655  12.813   5.798   7.524
37608SOL    HW114656  12.856   5.814   7.608
37608SOL    HW214657  12.728   5.841   7.532
37609SOL     OW14658  13.429   3.490  14.832
37609SOL    HW114659  13.430   3.477  14.737
37609SOL    HW214660  13.350   3.445  14.861
37610SOL     OW14661  12.463   2.146  14.830
37610SOL    HW114662  12.436   2.220  14.775
37610SOL    HW214663  12.434   2.069  14.781
37611SOL     OW14664   6.606   6.877   0.314
37611SOL    HW114665   6.601   6.794   0.266
37611SOL    HW214666   6.519   6.890   0.351
37612SOL     OW14667  12.264   9.102   0.157
37612SOL    HW114668  12.190   9.097   0.218
37612SOL    HW214669  12.228   9.144   0.079
37613SOL     OW14670  13.497   1.463   4.641
37613SOL    HW114671  13.591   1.458   4.629
37613SOL    HW214672  13.481   1.419   4.725
37614SOL     OW14673  13.724   2.613  10.285
37614SOL    HW114674  13.766   2.601  10.200
37614SOL    HW214675  13.673   2.532  10.298
37615SOL     OW14676   7.584   5.376  10.972
37615SOL    HW114677   7.563   5.423  11.053
37615SOL    HW214678   7.609   5.445  10.910
37616SOL     OW14679   7.296   4.084  12.969
37616SOL    HW114680   7.330   4.011  13.020
37616SOL    HW214681   7.263   4.146  13.034
37617SOL     OW14682   9.033   8.432   8.489
37617SOL    HW114683   9.002   8.522   8.482
37617SOL    HW214684   9.086   8.419   8.409
37618SOL     OW14685   7.936  12.596   6.860
37618SOL    HW114686   7.937  12.602   6.764
37618SOL    HW214687   7.847  12.566   6.880
37619SOL     OW14688  14.691  10.523   3.060
37619SOL    HW114689  14.706  10.521   3.154
37619SOL    HW214690  14.595  10.524   3.052
37620SOL     OW14691  10.472   7.621   6.006
37620SOL    HW114692  10.400   7.572   6.045
37620SOL    HW214693  10.518   7.660   6.080
37621SOL     OW14694   7.153   1.877   5.373
37621SOL    HW114695   7.179   1.856   5.284
37621SOL    HW214696   7.133   1.793   5.413
37622SOL     OW14697   0.796   6.569  13.772
37622SOL    HW114698   0.845   6.537  13.848
37622SOL    HW214699   0.826   6.515  13.699
37623SOL     OW14700   5.311   8.157  11.251
37623SOL    HW114701   5.280   8.066  11.255
37623SOL    HW214702   5.271   8.191  11.171
37624SOL     OW14703   0.789   6.289   6.372
37624SOL    HW114704   0.700   6.281   6.337
37624SOL    HW214705   0.829   6.204   6.354
37625SOL     OW14706   2.038   0.261   7.021
37625SOL    HW114707   2.018   0.171   6.994
37625SOL    HW214708   1.988   0.316   6.961
37626SOL     OW14709   2.667   8.512  12.504
37626SOL    HW114710   2.751   8.555  12.525
37626SOL    HW214711   2.637   8.556  12.425
37627SOL     OW14712   5.985  11.924   6.034
37627SOL    HW114713   5.914  11.935   6.097
37627SOL    HW214714   5.960  11.980   5.961
37628SOL     OW14715   7.208  11.419  11.592
37628SOL    HW114716   7.135  11.439  11.533
37628SOL    HW214717   7.266  11.364  11.540
37629SOL     OW14718   9.737   3.558  11.627
37629SOL    HW114719   9.744   3.605  11.544
37629SOL    HW214720   9.802   3.489  11.621
37630SOL     OW14721   7.205  14.159   4.025
37630SOL    HW114722   7.268  14.162   4.097
37630SOL    HW214723   7.218  14.240   3.977
37631SOL     OW14724  11.470  10.283   7.503
37631SOL    HW114725  11.484  10.241   7.418
37631SOL    HW214726  11.520  10.229   7.565
37632SOL     OW14727   9.699   2.183   0.206
37632SOL    HW114728   9.690   2.161   0.114
37632SOL    HW214729   9.785   2.226   0.211
37633SOL     OW14730  11.802  10.894  10.252
37633SOL    HW114731  11.824  10.912  10.343
37633SOL    HW214732  11.802  10.798  10.246
37634SOL     OW14733   2.355   9.101  12.030
37634SOL    HW114734   2.361   9.078  11.937
37634SOL    HW214735   2.435   9.065  12.069
37635SOL     OW14736   9.314   4.860   1.125
37635SOL    HW114737   9.335   4.919   1.053
37635SOL    HW214738   9.397   4.815   1.144
37636SOL     OW14739  12.741   1.238   7.008
37636SOL    HW114740  12.817   1.183   7.026
37636SOL    HW214741  12.666   1.181   7.022
37637SOL     OW14742   0.990  12.388   3.055
37637SOL    HW114743   0.906  12.395   3.101
37637SOL    HW214744   0.974  12.430   2.970
37638SOL     OW14745   2.883  13.706   5.026
37638SOL    HW114746   2.882  13.610   5.028
37638SOL    HW214747   2.807  13.733   5.077
37639SOL     OW14748   5.391   3.653   7.632
37639SOL    HW114749   5.400   3.557   7.636
37639SOL    HW214750   5.454   3.686   7.695
37640SOL     OW14751   9.710  11.611   7.974
37640SOL    HW114752   9.780  11.564   7.929
37640SOL    HW214753   9.631  11.591   7.924
37641SOL     OW14754   1.399  10.867   3.407
37641SOL    HW114755   1.401  10.788   3.462
37641SOL    HW214756   1.466  10.851   3.341
37642SOL     OW14757   2.954   5.494   7.535
37642SOL    HW114758   2.866   5.496   7.572
37642SOL    HW214759   2.967   5.402   7.510
37643SOL     OW14760   0.585   5.906   6.677
37643SOL    HW114761   0.663   5.939   6.723
37643SOL    HW214762   0.609   5.817   6.650
37644SOL     OW14763   0.935   1.965  12.253
37644SOL    HW114764   0.958   2.008  12.171
37644SOL    HW214765   0.842   1.986  12.265
37645SOL     OW14766   4.536   7.168  11.144
37645SOL    HW114767   4.609   7.182  11.084
37645SOL    HW214768   4.480   7.104  11.099
37646SOL     OW14769  11.202   3.027   1.434
37646SOL    HW114770  11.265   3.100   1.436
37646SOL    HW214771  11.190   3.009   1.341
37647SOL     OW14772   5.180  13.550   0.558
37647SOL    HW114773   5.224  13.630   0.530
37647SOL    HW214774   5.151  13.509   0.476
37648SOL     OW14775  13.355  14.263   4.166
37648SOL    HW114776  13.428  14.274   4.227
37648SOL    HW214777  13.341  14.168   4.162
37649SOL     OW14778   6.292   5.699   8.841
37649SOL    HW114779   6.338   5.766   8.891
37649SOL    HW214780   6.358   5.663   8.782
37650SOL     OW14781  11.198   3.757  10.875
37650SOL    HW114782  11.199   3.771  10.780
37650SOL    HW214783  11.118   3.707  10.892
37651SOL     OW14784   0.071  14.297  13.277
37651SOL    HW114785   0.093  14.302  13.370
37651SOL    HW214786  14.866  14.241  13.274
37652SOL     OW14787  14.254  14.846  12.096
37652SOL    HW114788  14.251   0.065  12.125
37652SOL    HW214789  14.170  14.831  12.054
37653SOL     OW14790  11.745   7.781   4.827
37653SOL    HW114791  11.703   7.762   4.744
37653SOL    HW214792  11.764   7.875   4.824
37654SOL     OW14793   9.807  11.858   7.219
37654SOL    HW114794   9.886  11.887   7.172
37654SOL    HW214795   9.840  11.797   7.285
37655SOL     OW14796  14.071   7.304  12.114
37655SOL    HW114797  14.122   7.381  12.137
37655SOL    HW214798  13.984   7.338  12.094
37656SOL     OW14799   8.795   7.949   0.767
37656SOL    HW114800   8.749   7.946   0.684
37656SOL    HW214801   8.770   8.033   0.806
37657SOL     OW14802  11.763   4.879   3.491
37657SOL    HW114803  11.765   4.825   3.413
37657SOL    HW214804  11.671   4.898   3.506
37658SOL     OW14805   0.711  11.598   1.711
37658SOL    HW114806   0.750  11.682   1.736
37658SOL    HW214807   0.710  11.547   1.792
37659SOL     OW14808   9.014   4.112   3.239
37659SOL    HW114809   8.923   4.082   3.230
37659SOL    HW214810   9.047   4.115   3.150
37660SOL     OW14811   4.518   5.615  11.567
37660SOL    HW114812   4.577   5.546  11.537
37660SOL    HW214813   4.530   5.617  11.662
37661SOL     OW14814   5.443   6.030  12.586
37661SOL    HW114815   5.432   5.935  12.579
37661SOL    HW214816   5.529   6.040  12.628
37662SOL     OW14817  12.699  11.844  12.273
37662SOL    HW114818  12.750  11.913  12.231
37662SOL    HW214819  12.668  11.790  12.200
37663SOL     OW14820   2.611   9.193  14.218
37663SOL    HW114821   2.672   9.167  14.150
37663SOL    HW214822   2.665   9.238  14.283
37664SOL     OW14823   6.848   0.811   3.261
37664SOL    HW114824   6.859   0.869   3.336
37664SOL    HW214825   6.877   0.863   3.186
37665SOL     OW14826   4.036   4.953   3.582
37665SOL    HW114827   3.955   4.964   3.632
37665SOL    HW214828   4.015   4.884   3.519
37666SOL     OW14829  12.693   2.010   7.141
37666SOL    HW114830  12.651   1.925   7.151
37666SOL    HW214831  12.666   2.059   7.219
37667SOL     OW14832   3.311   2.780   5.662
37667SOL    HW114833   3.401   2.812   5.663
37667SOL    HW214834   3.313   2.707   5.600
37668SOL     OW14835   0.617  12.684   8.615
37668SOL    HW114836   0.550  12.732   8.663
37668SOL    HW214837   0.587  12.593   8.616
37669SOL     OW14838  12.781   9.435   4.198
37669SOL    HW114839  12.722   9.393   4.261
37669SOL    HW214840  12.851   9.472   4.252
37670SOL     OW14841   5.700   8.266   2.367
37670SOL    HW114842   5.727   8.356   2.346
37670SOL    HW214843   5.693   8.223   2.282
37671SOL     OW14844   4.783   2.317   9.484
37671SOL    HW114845   4.833   2.287   9.408
37671SOL    HW214846   4.723   2.245   9.503
37672SOL     OW14847   3.042  12.425  10.553
37672SOL    HW114848   3.056  12.519  10.545
37672SOL    HW214849   3.025  12.395  10.464
37673SOL     OW14850   5.061  12.316  12.159
37673SOL    HW114851   5.027  12.384  12.101
37673SOL    HW214852   4.988  12.255  12.170
37674SOL     OW14853   6.236   1.843  14.739
37674SOL    HW114854   6.202   1.932  14.744
37674SOL    HW214855   6.234   1.821  14.646
37675SOL     OW14856  11.870   1.610   7.702
37675SOL    HW114857  11.800   1.580   7.643
37675SOL    HW214858  11.902   1.691   7.662
37676SOL     OW14859   2.789   3.849   4.603
37676SOL    HW114860   2.769   3.887   4.688
37676SOL    HW214861   2.707   3.856   4.554
37677SOL     OW14862   9.135  11.506   2.214
37677SOL    HW114863   9.096  11.432   2.260
37677SOL    HW214864   9.197  11.543   2.277
37678SOL     OW14865   6.821   5.582   2.262
37678SOL    HW114866   6.772   5.502   2.248
37678SOL    HW214867   6.766   5.652   2.226
37679SOL     OW14868  11.381   2.329   2.613
37679SOL    HW114869  11.371   2.234   2.614
37679SOL    HW214870  11.373   2.353   2.521
37680SOL     OW14871   4.619  11.329   6.582
37680SOL    HW114872   4.639  11.295   6.669
37680SOL    HW214873   4.528  11.302   6.566
37681SOL     OW14874   0.012  14.711   9.798
37681SOL    HW114875  14.864  14.804   9.808
37681SOL    HW214876   0.108  14.706   9.803
37682SOL     OW14877   8.042  12.390   5.260
37682SOL    HW114878   8.046  12.320   5.325
37682SOL    HW214879   7.993  12.460   5.304
37683SOL     OW14880   7.256  14.587   9.226
37683SOL    HW114881   7.254  14.672   9.271
37683SOL    HW214882   7.294  14.607   9.140
37684SOL     OW14883   7.417   7.538   3.724
37684SOL    HW114884   7.371   7.457   3.743
37684SOL    HW214885   7.402   7.593   3.801
37685SOL     OW14886   0.029   8.906  11.643
37685SOL    HW114887   0.029   8.873  11.554
37685SOL    HW214888   0.120   8.897  11.672
37686SOL     OW14889  14.838  14.461   1.800
37686SOL    HW114890   0.055  14.447   1.833
37686SOL    HW214891  14.806  14.373   1.779
37687SOL     OW14892   1.333  14.197   1.085
37687SOL    HW114893   1.297  14.235   1.005
37687SOL    HW214894   1.326  14.102   1.071
37688SOL     OW14895  13.161   5.251   9.913
37688SOL    HW114896  13.122   5.304   9.843
37688SOL    HW214897  13.103   5.175   9.920
37689SOL     OW14898   7.668   0.318  14.377
37689SOL    HW114899   7.614   0.274  14.442
37689SOL    HW214900   7.606   0.370  14.325
37690SOL     OW14901   7.925   4.959   0.645
37690SOL    HW114902   7.905   5.027   0.709
37690SOL    HW214903   7.947   4.882   0.697
37691SOL     OW14904   2.949  12.158   4.508
37691SOL    HW114905   2.975  12.248   4.528
37691SOL    HW214906   2.864  12.148   4.551
37692SOL     OW14907  12.757   9.710   7.794
37692SOL    HW114908  12.762   9.804   7.781
37692SOL    HW214909  12.823   9.691   7.861
37693SOL     OW14910   5.812  13.816   2.665
37693SOL    HW114911   5.793  13.773   2.582
37693SOL    HW214912   5.891  13.868   2.649
37694SOL     OW14913  14.602   1.117   2.494
37694SOL    HW114914  14.573   1.208   2.498
37694SOL    HW214915  14.696   1.122   2.481
37695SOL     OW14916   9.421   6.121   4.218
37695SOL    HW114917   9.494   6.155   4.166
37695SOL    HW214918   9.463   6.073   4.289
37696SOL     OW14919  10.388   6.068   5.910
37696SOL    HW114920  10.390   6.086   5.816
37696SOL    HW214921  10.352   5.980   5.916
37697SOL     OW14922  12.187  14.745   5.194
37697SOL    HW114923  12.217  14.748   5.285
37697SOL    HW214924  12.243  14.678   5.153
37698SOL     OW14925   2.036   1.546   7.657
37698SOL    HW114926   2.056   1.456   7.681
37698SOL    HW214927   2.119   1.592   7.662
37699SOL     OW14928   0.543   8.334   6.638
37699SOL    HW114929   0.475   8.282   6.594
37699SOL    HW214930   0.518   8.425   6.621
37700SOL     OW14931   9.237   0.120   6.981
37700SOL    HW114932   9.277   0.088   7.062
37700SOL    HW214933   9.300   0.184   6.947
37701SOL     OW14934   6.142  10.284   2.424
37701SOL    HW114935   6.188  10.232   2.358
37701SOL    HW214936   6.200  10.286   2.499
37702SOL     OW14937  14.752   4.062   8.475
37702SOL    HW114938  14.719   4.086   8.388
37702SOL    HW214939  14.768   3.967   8.469
37703SOL     OW14940   7.534  10.358   9.759
37703SOL    HW114941   7.477  10.329   9.830
37703SOL    HW214942   7.511  10.450   9.745
37704SOL     OW14943   5.031   9.635  10.353
37704SOL    HW114944   5.080   9.557  10.326
37704SOL    HW214945   4.996   9.671  10.272
37705SOL     OW14946  11.834   0.775  14.452
37705SOL    HW114947  11.892   0.822  14.392
37705SOL    HW214948  11.747   0.811  14.434
37706SOL     OW14949  14.206   3.944   7.761
37706SOL    HW114950  14.288   3.895   7.756
37706SOL    HW214951  14.139   3.878   7.779
37707SOL     OW14952  13.543   3.111  10.389
37707SOL    HW114953  13.546   3.146  10.300
37707SOL    HW214954  13.633   3.119  10.420
37708SOL     OW14955   6.281  11.498  14.482
37708SOL    HW114956   6.231  11.577  14.463
37708SOL    HW214957   6.372  11.526  14.476
37709SOL     OW14958   7.427   5.681  11.992
37709SOL    HW114959   7.494   5.643  11.935
37709SOL    HW214960   7.377   5.606  12.024
37710SOL     OW14961  13.913   5.582   7.123
37710SOL    HW114962  13.990   5.638   7.137
37710SOL    HW214963  13.947   5.493   7.127
37711SOL     OW14964  12.691   6.390   8.333
37711SOL    HW114965  12.644   6.312   8.361
37711SOL    HW214966  12.665   6.458   8.395
37712SOL     OW14967  14.495   9.068  14.436
37712SOL    HW114968  14.520   9.040  14.525
37712SOL    HW214969  14.460   8.990  14.395
37713SOL     OW14970   3.772   1.228  11.545
37713SOL    HW114971   3.728   1.168  11.606
37713SOL    HW214972   3.755   1.191  11.459
37714SOL     OW14973   2.310  13.609   4.068
37714SOL    HW114974   2.358  13.682   4.029
37714SOL    HW214975   2.341  13.532   4.022
37715SOL     OW14976  14.480   4.990   2.284
37715SOL    HW114977  14.495   5.085   2.280
37715SOL    HW214978  14.553   4.957   2.336
37716SOL     OW14979   9.250   7.470   5.781
37716SOL    HW114980   9.234   7.392   5.836
37716SOL    HW214981   9.206   7.451   5.699
37717SOL     OW14982  13.962   0.767  12.077
37717SOL    HW114983  13.963   0.793  11.985
37717SOL    HW214984  13.903   0.830  12.118
37718SOL     OW14985  13.767   2.807   1.467
37718SOL    HW114986  13.725   2.730   1.506
37718SOL    HW214987  13.726   2.817   1.381
37719SOL     OW14988   7.901  14.495  10.229
37719SOL    HW114989   7.886  14.403  10.252
37719SOL    HW214990   7.821  14.521  10.182
37720SOL     OW14991  14.521   6.831   3.520
37720SOL    HW114992  14.439   6.838   3.471
37720SOL    HW214993  14.525   6.740   3.547
37721SOL     OW14994   4.943   1.139   3.104
37721SOL    HW114995   4.939   1.170   3.014
37721SOL    HW214996   4.947   1.044   3.097
37722SOL     OW14997  13.054  12.994   0.022
37722SOL    HW114998  13.065  12.922   0.084
37722SOL    HW214999  13.013  12.955  14.818
37723SOL     OW15000  12.936   5.224   7.731
37723SOL    HW115001  12.986   5.149   7.700
37723SOL    HW215002  12.845   5.194   7.733
37724SOL     OW15003  14.862   0.482   8.498
37724SOL    HW115004   0.028   0.545   8.437
37724SOL    HW215005  14.769   0.507   8.503
37725SOL     OW15006   5.748   7.392   7.301
37725SOL    HW115007   5.828   7.366   7.256
37725SOL    HW215008   5.683   7.327   7.275
37726SOL     OW15009   0.239   4.788   1.629
37726SOL    HW115010   0.159   4.742   1.605
37726SOL    HW215011   0.217   4.834   1.710
37727SOL     OW15012  10.692  13.806   5.738
37727SOL    HW115013  10.671  13.896   5.763
37727SOL    HW215014  10.630  13.752   5.787
37728SOL     OW15015   8.356   3.759   6.016
37728SOL    HW115016   8.380   3.824   6.082
37728SOL    HW215017   8.321   3.810   5.943
37729SOL     OW15018   2.645  10.244  14.001
37729SOL    HW115019   2.691  10.172  14.043
37729SOL    HW215020   2.622  10.303  14.072
37730SOL     OW15021  13.069   4.519   2.818
37730SOL    HW115022  13.133   4.483   2.880
37730SOL    HW215023  13.120   4.544   2.742
37731SOL     OW15024   0.745  11.481  10.276
37731SOL    HW115025   0.673  11.420  10.262
37731SOL    HW215026   0.759  11.480  10.371
37732SOL     OW15027  13.001   5.167  13.897
37732SOL    HW115028  12.979   5.099  13.960
37732SOL    HW215029  12.954   5.143  13.818
37733SOL     OW15030   7.571   2.289   8.563
37733SOL    HW115031   7.535   2.301   8.475
37733SOL    HW215032   7.644   2.350   8.568
37734SOL     OW15033  14.734   6.980  10.874
37734SOL    HW115034  14.778   6.896  10.887
37734SOL    HW215035  14.698   6.976  10.785
37735SOL     OW15036  11.922   8.835  10.015
37735SOL    HW115037  11.827   8.830  10.005
37735SOL    HW215038  11.956   8.832   9.925
37736SOL     OW15039   7.117   4.125  10.350
37736SOL    HW115040   7.066   4.155  10.426
37736SOL    HW215041   7.189   4.189  10.343
37737SOL     OW15042  12.113  13.991   9.961
37737SOL    HW115043  12.178  13.944   9.910
37737SOL    HW215044  12.033  13.985   9.910
37738SOL     OW15045   1.659  10.979  12.848
37738SOL    HW115046   1.599  10.935  12.788
37738SOL    HW215047   1.736  10.921  12.852
37739SOL     OW15048   9.513   1.042   3.324
37739SOL    HW115049   9.517   0.974   3.257
37739SOL    HW215050   9.480   1.119   3.278
37740SOL     OW15051  14.208  14.765   5.076
37740SOL    HW115052  14.121  14.725   5.077
37740SOL    HW215053  14.268  14.691   5.065
37741SOL     OW15054   0.977  13.108   5.996
37741SOL    HW115055   0.935  13.084   6.078
37741SOL    HW215056   1.037  13.179   6.020
37742SOL     OW15057  14.723   4.537   5.041
37742SOL    HW115058  14.799   4.576   5.083
37742SOL    HW215059  14.721   4.575   4.953
37743SOL     OW15060   2.677   4.724   7.698
37743SOL    HW115061   2.632   4.650   7.740
37743SOL    HW215062   2.762   4.689   7.674
37744SOL     OW15063  14.151  12.553   2.266
37744SOL    HW115064  14.238  12.556   2.306
37744SOL    HW215065  14.163  12.590   2.179
37745SOL     OW15066   4.273  14.613   2.340
37745SOL    HW115067   4.243  14.663   2.264
37745SOL    HW215068   4.367  14.600   2.325
37746SOL     OW15069   0.983   0.528  11.054
37746SOL    HW115070   0.971   0.621  11.075
37746SOL    HW215071   0.902   0.486  11.083
37747SOL     OW15072  13.795   9.919   1.365
37747SOL    HW115073  13.790   9.910   1.269
37747SOL    HW215074  13.707   9.896   1.395
37748SOL     OW15075   9.161  14.018  12.751
37748SOL    HW115076   9.157  13.985  12.661
37748SOL    HW215077   9.125  13.947  12.804
37749SOL     OW15078   9.792   9.989   7.326
37749SOL    HW115079   9.795   9.895   7.347
37749SOL    HW215080   9.720   9.997   7.263
37750SOL     OW15081   7.740   9.183  13.075
37750SOL    HW115082   7.752   9.223  12.989
37750SOL    HW215083   7.822   9.202  13.122
37751SOL     OW15084  10.740   8.225   8.265
37751SOL    HW115085  10.745   8.235   8.360
37751SOL    HW215086  10.646   8.226   8.247
37752SOL     OW15087   9.557  13.724  10.994
37752SOL    HW115088   9.559  13.643  11.046
37752SOL    HW215089   9.470  13.761  11.012
37753SOL     OW15090  12.221   5.713   7.957
37753SOL    HW115091  12.281   5.769   7.909
37753SOL    HW215092  12.135   5.734   7.921
37754SOL     OW15093   9.244   6.550  12.018
37754SOL    HW115094   9.339   6.557  12.010
37754SOL    HW215095   9.213   6.640  12.026
37755SOL     OW15096  13.302   9.064   1.099
37755SOL    HW115097  13.211   9.094   1.095
37755SOL    HW215098  13.303   9.002   1.173
37756SOL     OW15099   8.179   2.276  11.970
37756SOL    HW115100   8.167   2.361  11.927
37756SOL    HW215101   8.251   2.290  12.031
37757SOL     OW15102  12.718   0.594   6.509
37757SOL    HW115103  12.698   0.677   6.465
37757SOL    HW215104  12.799   0.564   6.468
37758SOL     OW15105   9.350   7.019   9.273
37758SOL    HW115106   9.365   7.111   9.293
37758SOL    HW215107   9.423   6.993   9.217
37759SOL     OW15108  11.427   2.685   1.762
37759SOL    HW115109  11.332   2.689   1.747
37759SOL    HW215110  11.462   2.761   1.717
37760SOL     OW15111   9.438   1.417   2.070
37760SOL    HW115112   9.399   1.443   2.153
37760SOL    HW215113   9.515   1.366   2.095
37761SOL     OW15114   5.459   1.937   3.041
37761SOL    HW115115   5.502   1.906   3.120
37761SOL    HW215116   5.529   1.941   2.976
37762SOL     OW15117  13.523   3.872   8.937
37762SOL    HW115118  13.504   3.778   8.941
37762SOL    HW215119  13.445   3.914   8.974
37763SOL     OW15120   1.190   6.046   3.834
37763SOL    HW115121   1.163   6.068   3.745
37763SOL    HW215122   1.205   6.130   3.876
37764SOL     OW15123   7.441  14.042  11.951
37764SOL    HW115124   7.407  14.131  11.959
37764SOL    HW215125   7.512  14.050  11.888
37765SOL     OW15126   4.024   2.477   3.162
37765SOL    HW115127   4.054   2.536   3.230
37765SOL    HW215128   3.932   2.500   3.149
37766SOL     OW15129  11.128   7.723   6.361
37766SOL    HW115130  11.156   7.702   6.450
37766SOL    HW215131  11.067   7.653   6.337
37767SOL     OW15132   2.802  11.529  10.486
37767SOL    HW115133   2.880  11.584  10.490
37767SOL    HW215134   2.775  11.533  10.394
37768SOL     OW15135  10.711   2.201  11.916
37768SOL    HW115136  10.700   2.294  11.895
37768SOL    HW215137  10.623   2.172  11.942
37769SOL     OW15138  12.628   2.232   2.313
37769SOL    HW115139  12.551   2.290   2.312
37769SOL    HW215140  12.693   2.279   2.365
37770SOL     OW15141   6.015   5.191  11.956
37770SOL    HW115142   6.007   5.115  12.014
37770SOL    HW215143   5.927   5.204  11.922
37771SOL     OW15144   5.279  13.876   8.243
37771SOL    HW115145   5.268  13.967   8.270
37771SOL    HW215146   5.366  13.873   8.202
37772SOL     OW15147   2.680   1.150  13.887
37772SOL    HW115148   2.588   1.171  13.870
37772SOL    HW215149   2.717   1.230  13.925
37773SOL     OW15150   1.423   4.356   3.806
37773SOL    HW115151   1.365   4.313   3.868
37773SOL    HW215152   1.492   4.292   3.789
37774SOL     OW15153  11.472   5.201   2.441
37774SOL    HW115154  11.451   5.118   2.483
37774SOL    HW215155  11.408   5.263   2.477
37775SOL     OW15156   3.661  13.037   6.295
37775SOL    HW115157   3.623  12.967   6.241
37775SOL    HW215158   3.755  13.020   6.294
37776SOL     OW15159   7.512  11.148  14.487
37776SOL    HW115160   7.579  11.137  14.555
37776SOL    HW215161   7.440  11.191  14.532
37777SOL     OW15162   6.535   1.473   9.342
37777SOL    HW115163   6.477   1.429   9.405
37777SOL    HW215164   6.547   1.409   9.272
37778SOL     OW15165   3.907   6.412   2.154
37778SOL    HW115166   3.991   6.457   2.149
37778SOL    HW215167   3.911   6.345   2.086
37779SOL     OW15168   7.773   8.219   1.444
37779SOL    HW115169   7.686   8.255   1.426
37779SOL    HW215170   7.771   8.195   1.537
37780SOL     OW15171   2.916   2.310  12.160
37780SOL    HW115172   2.900   2.219  12.133
37780SOL    HW215173   2.922   2.359  12.079
37781SOL     OW15174   0.394   5.061   1.719
37781SOL    HW115175   0.418   5.142   1.674
37781SOL    HW215176   0.448   4.994   1.676
37782SOL     OW15177   4.949  12.750  11.556
37782SOL    HW115178   4.943  12.805  11.634
37782SOL    HW215179   5.003  12.675  11.583
37783SOL     OW15180  13.870   0.466   4.568
37783SOL    HW115181  13.930   0.448   4.640
37783SOL    HW215182  13.787   0.427   4.595
37784SOL     OW15183   6.865   0.698  11.697
37784SOL    HW115184   6.936   0.756  11.726
37784SOL    HW215185   6.817   0.678  11.777
37785SOL     OW15186  12.904  10.368   8.788
37785SOL    HW115187  12.945  10.414   8.714
37785SOL    HW215188  12.865  10.438   8.841
37786SOL     OW15189   8.801   6.495   1.214
37786SOL    HW115190   8.811   6.573   1.159
37786SOL    HW215191   8.708   6.495   1.238
37787SOL     OW15192   4.527  13.552  11.417
37787SOL    HW115193   4.457  13.601  11.459
37787SOL    HW215194   4.591  13.619  11.391
37788SOL     OW15195  10.214  14.141   0.311
37788SOL    HW115196  10.251  14.146   0.223
37788SOL    HW215197  10.124  14.172   0.300
37789SOL     OW15198  10.401   2.120  14.823
37789SOL    HW115199  10.447   2.190  14.778
37789SOL    HW215200  10.418   2.042  14.769
37790SOL     OW15201   9.229  12.935   0.966
37790SOL    HW115202   9.183  12.877   0.906
37790SOL    HW215203   9.205  13.023   0.937
37791SOL     OW15204   4.246   7.997   8.104
37791SOL    HW115205   4.242   8.092   8.088
37791SOL    HW215206   4.303   7.964   8.034
37792SOL     OW15207   5.956   6.839  12.963
37792SOL    HW115208   6.000   6.785  13.029
37792SOL    HW215209   5.899   6.897  13.013
37793SOL     OW15210  10.408   8.000   4.336
37793SOL    HW115211  10.320   7.964   4.345
37793SOL    HW215212  10.428   8.036   4.422
37794SOL     OW15213   8.926   2.305   6.843
37794SOL    HW115214   8.918   2.305   6.939
37794SOL    HW215215   8.932   2.398   6.820
37795SOL     OW15216   7.892  12.928  12.596
37795SOL    HW115217   7.803  12.923  12.632
37795SOL    HW215218   7.941  12.977  12.661
37796SOL     OW15219   7.993   9.000  13.618
37796SOL    HW115220   8.028   9.017  13.530
37796SOL    HW215221   7.951   8.914  13.611
37797SOL     OW15222   5.359  14.870   7.599
37797SOL    HW115223   5.453  14.865   7.619
37797SOL    HW215224   5.325   0.066   7.656
37798SOL     OW15225   1.185   2.200   8.829
37798SOL    HW115226   1.233   2.275   8.794
37798SOL    HW215227   1.099   2.236   8.854
37799SOL     OW15228  13.783  11.113   5.224
37799SOL    HW115229  13.849  11.179   5.202
37799SOL    HW215230  13.701  11.148   5.190
37800SOL     OW15231   1.120   8.472   2.772
37800SOL    HW115232   1.136   8.428   2.855
37800SOL    HW215233   1.096   8.561   2.796
37801SOL     OW15234   5.795  13.050   2.440
37801SOL    HW115235   5.824  12.960   2.430
37801SOL    HW215236   5.817  13.072   2.531
37802SOL     OW15237  10.495  12.944   9.221
37802SOL    HW115238  10.424  12.974   9.277
37802SOL    HW215239  10.463  12.864   9.181
37803SOL     OW15240   4.862   2.378   2.611
37803SOL    HW115241   4.945   2.408   2.574
37803SOL    HW215242   4.847   2.437   2.685
37804SOL     OW15243  13.657   7.477  13.920
37804SOL    HW115244  13.590   7.453  13.856
37804SOL    HW215245  13.698   7.556  13.883
37805SOL     OW15246  14.010  11.741  14.037
37805SOL    HW115247  13.959  11.820  14.019
37805SOL    HW215248  13.949  11.669  14.027
37806SOL     OW15249   5.966   1.282   9.658
37806SOL    HW115250   6.044   1.284   9.713
37806SOL    HW215251   5.893   1.272   9.719
37807SOL     OW15252   6.204   4.094   2.886
37807SOL    HW115253   6.265   4.090   2.960
37807SOL    HW215254   6.225   4.016   2.835
37808SOL     OW15255   0.123   4.799   0.621
37808SOL    HW115256   0.089   4.807   0.710
37808SOL    HW215257   0.058   4.843   0.567
37809SOL     OW15258   8.551   5.081  11.705
37809SOL    HW115259   8.621   5.016  11.706
37809SOL    HW215260   8.544   5.107  11.613
37810SOL     OW15261  10.684  12.570  10.543
37810SOL    HW115262  10.622  12.614  10.602
37810SOL    HW215263  10.644  12.485  10.524
37811SOL     OW15264   1.444   3.633   0.749
37811SOL    HW115265   1.411   3.712   0.792
37811SOL    HW215266   1.484   3.664   0.668
37812SOL     OW15267   4.446   6.669   6.223
37812SOL    HW115268   4.535   6.658   6.257
37812SOL    HW215269   4.455   6.653   6.129
37813SOL     OW15270   8.625   9.957   2.335
37813SOL    HW115271   8.690   9.957   2.264
37813SOL    HW215272   8.644  10.035   2.385
37814SOL     OW15273  12.582  14.769   6.407
37814SOL    HW115274  12.657  14.710   6.409
37814SOL    HW215275  12.601  14.835   6.473
37815SOL     OW15276  14.735  14.741   1.159
37815SOL    HW115277  14.703  14.785   1.237
37815SOL    HW215278  14.688  14.658   1.156
37816SOL     OW15279   3.272  14.723  10.070
37816SOL    HW115280   3.364  14.748  10.075
37816SOL    HW215281   3.275  14.628  10.056
37817SOL     OW15282   9.331   2.311   6.166
37817SOL    HW115283   9.286   2.282   6.087
37817SOL    HW215284   9.273   2.376   6.205
37818SOL     OW15285  13.407   5.873   7.210
37818SOL    HW115286  13.371   5.960   7.224
37818SOL    HW215287  13.500   5.882   7.228
37819SOL     OW15288   4.570  11.522   3.061
37819SOL    HW115289   4.505  11.585   3.028
37819SOL    HW215290   4.528  11.437   3.051
37820SOL     OW15291   9.020   1.925  13.261
37820SOL    HW115292   8.980   1.894  13.179
37820SOL    HW215293   9.106   1.958  13.234
37821SOL     OW15294   7.585   8.268   4.350
37821SOL    HW115295   7.643   8.337   4.319
37821SOL    HW215296   7.574   8.210   4.275
37822SOL     OW15297   6.360  11.676  12.120
37822SOL    HW115298   6.439  11.729  12.107
37822SOL    HW215299   6.381  11.621  12.196
37823SOL     OW15300   0.482   1.034  14.404
37823SOL    HW115301   0.439   1.088  14.471
37823SOL    HW215302   0.432   1.052  14.324
37824SOL     OW15303   5.354  11.752   4.609
37824SOL    HW115304   5.364  11.716   4.520
37824SOL    HW215305   5.421  11.820   4.615
37825SOL     OW15306   4.400  13.931   7.983
37825SOL    HW115307   4.415  14.007   7.927
37825SOL    HW215308   4.381  13.860   7.922
37826SOL     OW15309   8.745   9.394   2.885
37826SOL    HW115310   8.698   9.407   2.802
37826SOL    HW215311   8.819   9.338   2.860
37827SOL     OW15312  13.750   0.476   1.886
37827SOL    HW115313  13.694   0.542   1.844
37827SOL    HW215314  13.699   0.445   1.961
37828SOL     OW15315   9.020   1.721  11.810
37828SOL    HW115316   9.090   1.761  11.759
37828SOL    HW215317   8.995   1.643  11.761
37829SOL     OW15318   7.949   4.716   4.284
37829SOL    HW115319   7.898   4.664   4.222
37829SOL    HW215320   8.003   4.651   4.330
37830SOL     OW15321   6.996   0.336  13.635
37830SOL    HW115322   7.049   0.262  13.604
37830SOL    HW215323   6.917   0.296  13.671
37831SOL     OW15324  10.316  14.597   6.967
37831SOL    HW115325  10.237  14.595   7.021
37831SOL    HW215326  10.306  14.675   6.912
37832SOL     OW15327  11.345   2.305   4.771
37832SOL    HW115328  11.403   2.242   4.814
37832SOL    HW215329  11.289   2.338   4.842
37833SOL     OW15330   8.816  12.894  12.644
37833SOL    HW115331   8.803  12.895  12.739
37833SOL    HW215332   8.903  12.857  12.632
37834SOL     OW15333   9.874   8.524   2.514
37834SOL    HW115334   9.876   8.480   2.429
37834SOL    HW215335   9.872   8.617   2.492
37835SOL     OW15336   5.556  12.557   8.305
37835SOL    HW115337   5.617  12.522   8.239
37835SOL    HW215338   5.593  12.530   8.389
37836SOL     OW15339  12.614   1.237   6.416
37836SOL    HW115340  12.682   1.170   6.407
37836SOL    HW215341  12.574   1.218   6.501
37837SOL     OW15342   5.393   1.601   9.483
37837SOL    HW115343   5.367   1.644   9.565
37837SOL    HW215344   5.477   1.641   9.461
37838SOL     OW15345   3.649  12.584   5.820
37838SOL    HW115346   3.707  12.548   5.753
37838SOL    HW215347   3.597  12.509   5.850
37839SOL     OW15348  12.777   1.918   2.379
37839SOL    HW115349  12.705   1.897   2.438
37839SOL    HW215350  12.829   1.983   2.426
37840SOL     OW15351   3.336  12.766   8.512
37840SOL    HW115352   3.309  12.835   8.452
37840SOL    HW215353   3.414  12.801   8.555
37841SOL     OW15354  12.025  13.665   8.613
37841SOL    HW115355  12.029  13.599   8.682
37841SOL    HW215356  12.065  13.743   8.653
37842SOL     OW15357   8.284   1.002   3.394
37842SOL    HW115358   8.209   1.052   3.426
37842SOL    HW215359   8.319   1.054   3.322
37843SOL     OW15360  12.427  12.025   6.976
37843SOL    HW115361  12.402  11.937   6.948
37843SOL    HW215362  12.512  12.013   7.019
37844SOL     OW15363  11.294   7.406   6.866
37844SOL    HW115364  11.288   7.356   6.784
37844SOL    HW215365  11.347   7.351   6.923
37845SOL     OW15366  11.144   0.481   8.358
37845SOL    HW115367  11.188   0.505   8.276
37845SOL    HW215368  11.189   0.532   8.425
37846SOL     OW15369   3.041   1.308  11.158
37846SOL    HW115370   2.981   1.357  11.214
37846SOL    HW215371   2.996   1.225  11.142
37847SOL     OW15372  13.708  10.788   5.162
37847SOL    HW115373  13.716  10.822   5.073
37847SOL    HW215374  13.798  10.771   5.190
37848SOL     OW15375   4.693  12.646  14.635
37848SOL    HW115376   4.710  12.577  14.572
37848SOL    HW215377   4.733  12.724  14.597
37849SOL     OW15378   4.118   1.973   8.146
37849SOL    HW115379   4.164   2.044   8.191
37849SOL    HW215380   4.041   1.957   8.201
37850SOL     OW15381   2.265  11.419   7.836
37850SOL    HW115382   2.247  11.326   7.851
37850SOL    HW215383   2.189  11.451   7.788
37851SOL     OW15384   9.048   8.147  12.997
37851SOL    HW115385   9.088   8.227  13.031
37851SOL    HW215386   9.042   8.089  13.073
37852SOL     OW15387   6.691   5.365   2.195
37852SOL    HW115388   6.608   5.317   2.195
37852SOL    HW215389   6.715   5.372   2.102
37853SOL     OW15390  14.567  11.977   2.093
37853SOL    HW115391  14.568  11.894   2.044
37853SOL    HW215392  14.524  11.955   2.175
37854SOL     OW15393   7.210  14.683   4.677
37854SOL    HW115394   7.254  14.737   4.612
37854SOL    HW215395   7.279  14.658   4.738
37855SOL     OW15396   4.004  12.903  11.205
37855SOL    HW115397   3.984  12.816  11.240
37855SOL    HW215398   4.035  12.953  11.280
37856SOL     OW15399  13.089   2.687   5.204
37856SOL    HW115400  13.007   2.692   5.153
37856SOL    HW215401  13.065   2.721   5.290
37857SOL     OW15402   0.364   6.322  13.573
37857SOL    HW115403   0.329   6.306  13.661
37857SOL    HW215404   0.291   6.307  13.514
37858SOL     OW15405   9.886   7.360   8.900
37858SOL    HW115406   9.951   7.311   8.849
37858SOL    HW215407   9.806   7.309   8.892
37859SOL     OW15408   3.245   0.374   1.805
37859SOL    HW115409   3.266   0.432   1.878
37859SOL    HW215410   3.157   0.400   1.777
37860SOL     OW15411  14.197  10.440   5.074
37860SOL    HW115412  14.238  10.408   5.154
37860SOL    HW215413  14.103  10.422   5.086
37861SOL     OW15414  11.083   7.122   1.590
37861SOL    HW115415  11.083   7.030   1.564
37861SOL    HW215416  11.014   7.129   1.655
37862SOL     OW15417  12.845   9.150   7.600
37862SOL    HW115418  12.784   9.100   7.545
37862SOL    HW215419  12.879   9.087   7.663
37863SOL     OW15420   1.749  11.991   3.088
37863SOL    HW115421   1.702  12.023   3.012
37863SOL    HW215422   1.838  12.023   3.076
37864SOL     OW15423   3.296   6.483   3.205
37864SOL    HW115424   3.301   6.466   3.111
37864SOL    HW215425   3.256   6.404   3.241
37865SOL     OW15426   4.241   5.461   3.578
37865SOL    HW115427   4.155   5.438   3.544
37865SOL    HW215428   4.288   5.497   3.503
37866SOL     OW15429   3.802   1.029  12.572
37866SOL    HW115430   3.834   1.071  12.491
37866SOL    HW215431   3.726   0.979  12.544
37867SOL     OW15432   3.132  12.962   8.184
37867SOL    HW115433   3.117  12.875   8.146
37867SOL    HW215434   3.211  12.994   8.140
37868SOL     OW15435   7.193  12.206   5.109
37868SOL    HW115436   7.211  12.243   5.023
37868SOL    HW215437   7.123  12.142   5.094
37869SOL     OW15438  11.195   2.249   7.048
37869SOL    HW115439  11.114   2.201   7.033
37869SOL    HW215440  11.254   2.219   6.978
37870SOL     OW15441   2.680   5.200  10.828
37870SOL    HW115442   2.694   5.215  10.922
37870SOL    HW215443   2.596   5.242  10.810
37871SOL     OW15444   9.003  12.705   6.490
37871SOL    HW115445   8.999  12.792   6.528
37871SOL    HW215446   9.003  12.646   6.566
37872SOL     OW15447  11.462  13.688   6.173
37872SOL    HW115448  11.400  13.662   6.106
37872SOL    HW215449  11.544  13.703   6.126
37873SOL     OW15450   8.627   8.394   5.287
37873SOL    HW115451   8.634   8.301   5.309
37873SOL    HW215452   8.714   8.429   5.304
37874SOL     OW15453   0.802  11.479  10.917
37874SOL    HW115454   0.759  11.546  10.863
37874SOL    HW215455   0.857  11.431  10.855
37875SOL     OW15456  11.154   3.394   5.259
37875SOL    HW115457  11.231   3.433   5.301
37875SOL    HW215458  11.146   3.440   5.176
37876SOL     OW15459   2.391   8.206   1.755
37876SOL    HW115460   2.346   8.121   1.763
37876SOL    HW215461   2.380   8.246   1.842
37877SOL     OW15462  13.747  11.865   9.867
37877SOL    HW115463  13.818  11.924   9.892
37877SOL    HW215464  13.689  11.918   9.813
37878SOL     OW15465  14.694  12.346   9.862
37878SOL    HW115466  14.776  12.350   9.910
37878SOL    HW215467  14.626  12.339   9.930
37879SOL     OW15468   1.210   3.716   3.854
37879SOL    HW115469   1.165   3.649   3.801
37879SOL    HW215470   1.185   3.695   3.944
37880SOL     OW15471   2.491   1.670   9.493
37880SOL    HW115472   2.460   1.582   9.512
37880SOL    HW215473   2.528   1.664   9.405
37881SOL     OW15474  12.738   0.524   6.917
37881SOL    HW115475  12.816   0.568   6.881
37881SOL    HW215476  12.702   0.587   6.979
37882SOL     OW15477   3.153  14.730   3.995
37882SOL    HW115478   3.178  14.695   4.081
37882SOL    HW215479   3.059  14.709   3.988
37883SOL     OW15480  11.049   8.189  10.357
37883SOL    HW115481  10.962   8.206  10.321
37883SOL    HW215482  11.038   8.109  10.408
37884SOL     OW15483   2.116  12.240   3.825
37884SOL    HW115484   2.173  12.163   3.828
37884SOL    HW215485   2.118  12.267   3.734
37885SOL     OW15486  13.465   4.824  14.211
37885SOL    HW115487  13.398   4.803  14.146
37885SOL    HW215488  13.458   4.755  14.277
37886SOL     OW15489  12.656   7.294  10.315
37886SOL    HW115490  12.580   7.272  10.369
37886SOL    HW215491  12.709   7.214  10.314
37887SOL     OW15492   7.606  12.580  10.447
37887SOL    HW115493   7.612  12.485  10.446
37887SOL    HW215494   7.529  12.599  10.500
37888SOL     OW15495  12.129   6.421   5.358
37888SOL    HW115496  12.068   6.365   5.407
37888SOL    HW215497  12.196   6.445   5.422
37889SOL     OW15498   1.909   9.555   2.481
37889SOL    HW115499   1.955   9.637   2.468
37889SOL    HW215500   1.966   9.489   2.442
37890SOL     OW15501   9.481  13.885   0.438
37890SOL    HW115502   9.539  13.852   0.370
37890SOL    HW215503   9.418  13.814   0.451
37891SOL     OW15504   4.882   8.485   9.919
37891SOL    HW115505   4.821   8.418   9.950
37891SOL    HW215506   4.968   8.444   9.926
37892SOL     OW15507   1.084  14.823   0.559
37892SOL    HW115508   1.144  14.805   0.487
37892SOL    HW215509   1.141  14.856   0.629
37893SOL     OW15510   7.834   0.547  14.378
37893SOL    HW115511   7.783   0.466  14.381
37893SOL    HW215512   7.812   0.592  14.459
37894SOL     OW15513   8.747   7.127   2.566
37894SOL    HW115514   8.720   7.175   2.644
37894SOL    HW215515   8.665   7.093   2.530
37895SOL     OW15516   1.563   5.132   4.357
37895SOL    HW115517   1.546   5.162   4.446
37895SOL    HW215518   1.593   5.042   4.366
37896SOL     OW15519   2.839   9.947   7.050
37896SOL    HW115520   2.814   9.993   7.131
37896SOL    HW215521   2.934   9.957   7.045
37897SOL     OW15522   3.631   0.164   5.974
37897SOL    HW115523   3.672   0.248   5.990
37897SOL    HW215524   3.651   0.144   5.883
37898SOL     OW15525   1.508   9.584   6.851
37898SOL    HW115526   1.415   9.594   6.874
37898SOL    HW215527   1.514   9.622   6.763
37899SOL     OW15528  13.896   0.814   0.664
37899SOL    HW115529  13.866   0.753   0.731
37899SOL    HW215530  13.874   0.771   0.581
37900SOL     OW15531  12.876   4.166  11.471
37900SOL    HW115532  12.800   4.206  11.513
37900SOL    HW215533  12.873   4.199  11.381
37901SOL     OW15534  14.809   5.250   7.816
37901SOL    HW115535   0.001   5.179   7.818
37901SOL    HW215536  14.851   5.318   7.761
37902SOL     OW15537   8.415   9.454   4.136
37902SOL    HW115538   8.331   9.416   4.163
37902SOL    HW215539   8.432   9.523   4.201
37903SOL     OW15540   8.168  11.727   6.551
37903SOL    HW115541   8.263  11.741   6.554
37903SOL    HW215542   8.131  11.799   6.602
37904SOL     OW15543  11.872  11.070   5.231
37904SOL    HW115544  11.932  11.012   5.277
37904SOL    HW215545  11.926  11.114   5.165
37905SOL     OW15546   5.988   5.040   1.806
37905SOL    HW115547   5.926   5.032   1.733
37905SOL    HW215548   6.042   5.115   1.782
37906SOL     OW15549   6.778   7.307   3.755
37906SOL    HW115550   6.798   7.275   3.843
37906SOL    HW215551   6.755   7.399   3.767
37907SOL     OW15552   5.258   1.425   2.034
37907SOL    HW115553   5.330   1.423   2.097
37907SOL    HW215554   5.209   1.345   2.052
37908SOL     OW15555   6.806  10.564   1.038
37908SOL    HW115556   6.761  10.592   0.958
37908SOL    HW215557   6.753  10.601   1.109
37909SOL     OW15558   1.891  10.523   1.618
37909SOL    HW115559   1.799  10.509   1.594
37909SOL    HW215560   1.937  10.526   1.534
37910SOL     OW15561  13.587   8.783   1.104
37910SOL    HW115562  13.610   8.863   1.056
37910SOL    HW215563  13.556   8.723   1.037
37911SOL     OW15564  14.503  13.553   4.262
37911SOL    HW115565  14.473  13.560   4.353
37911SOL    HW215566  14.534  13.640   4.240
37912SOL     OW15567   9.539   2.892   2.474
37912SOL    HW115568   9.460   2.917   2.425
37912SOL    HW215569   9.570   2.973   2.514
37913SOL     OW15570   4.377   6.782   7.657
37913SOL    HW115571   4.359   6.702   7.608
37913SOL    HW215572   4.472   6.785   7.665
37914SOL     OW15573  13.655  11.763  10.910
37914SOL    HW115574  13.649  11.732  10.820
37914SOL    HW215575  13.567  11.750  10.946
37915SOL     OW15576  10.922   3.258   1.064
37915SOL    HW115577  10.953   3.167   1.057
37915SOL    HW215578  10.947   3.297   0.980
37916SOL     OW15579   2.299   3.068   6.522
37916SOL    HW115580   2.271   2.982   6.551
37916SOL    HW215581   2.394   3.067   6.533
37917SOL     OW15582   2.840   3.435  14.076
37917SOL    HW115583   2.857   3.470  14.164
37917SOL    HW215584   2.748   3.456  14.059
37918SOL     OW15585   1.702  13.289   8.373
37918SOL    HW115586   1.716  13.383   8.383
37918SOL    HW215587   1.612  13.282   8.343
37919SOL     OW15588   3.422  11.449  13.654
37919SOL    HW115589   3.412  11.483  13.743
37919SOL    HW215590   3.468  11.366  13.665
37920SOL     OW15591   7.157  13.906   8.782
37920SOL    HW115592   7.121  13.887   8.869
37920SOL    HW215593   7.082  13.937   8.731
37921SOL     OW15594  12.119   1.685   0.651
37921SOL    HW115595  12.178   1.685   0.576
37921SOL    HW215596  12.174   1.660   0.726
37922SOL     OW15597   2.163   9.138   5.126
37922SOL    HW115598   2.218   9.079   5.177
37922SOL    HW215599   2.193   9.226   5.149
37923SOL     OW15600   4.816   7.948  10.928
37923SOL    HW115601   4.814   7.956  10.833
37923SOL    HW215602   4.879   8.014  10.957
37924SOL     OW15603  13.556   9.086   8.067
37924SOL    HW115604  13.641   9.059   8.101
37924SOL    HW215605  13.508   9.118   8.143
37925SOL     OW15606  10.251  14.553  14.401
37925SOL    HW115607  10.299  14.477  14.368
37925SOL    HW215608  10.302  14.581  14.477
37926SOL     OW15609  11.075  12.063  10.854
37926SOL    HW115610  10.986  12.046  10.824
37926SOL    HW215611  11.087  12.005  10.929
37927SOL     OW15612  10.171   8.903   5.083
37927SOL    HW115613  10.160   8.989   5.041
37927SOL    HW215614  10.205   8.923   5.170
37928SOL     OW15615   0.016  13.908   6.109
37928SOL    HW115616  14.822  13.843   6.132
37928SOL    HW215617  14.866  13.984   6.162
37929SOL     OW15618   2.609   9.113   4.672
37929SOL    HW115619   2.614   9.190   4.615
37929SOL    HW215620   2.548   9.138   4.741
37930SOL     OW15621  12.685  11.580   5.303
37930SOL    HW115622  12.703  11.502   5.357
37930SOL    HW215623  12.668  11.544   5.216
37931SOL     OW15624   6.435  12.503   8.930
37931SOL    HW115625   6.514  12.478   8.976
37931SOL    HW215626   6.442  12.598   8.918
37932SOL     OW15627   3.497   4.465  10.595
37932SOL    HW115628   3.428   4.437  10.535
37932SOL    HW215629   3.454   4.523  10.656
37933SOL     OW15630   8.362  10.524  11.352
37933SOL    HW115631   8.280  10.556  11.390
37933SOL    HW215632   8.368  10.571  11.268
37934SOL     OW15633   4.150   3.624   5.181
37934SOL    HW115634   4.226   3.599   5.234
37934SOL    HW215635   4.081   3.642   5.245
37935SOL     OW15636  12.487  10.477   5.308
37935SOL    HW115637  12.538  10.417   5.362
37935SOL    HW215638  12.520  10.564   5.332
37936SOL     OW15639  13.681   2.414  14.555
37936SOL    HW115640  13.774   2.423  14.574
37936SOL    HW215641  13.639   2.413  14.641
37937SOL     OW15642   0.443   5.905   5.032
37937SOL    HW115643   0.383   5.881   5.102
37937SOL    HW215644   0.387   5.916   4.955
37938SOL     OW15645  14.641   4.559   7.168
37938SOL    HW115646  14.705   4.628   7.147
37938SOL    HW215647  14.692   4.478   7.166
37939SOL     OW15648  10.580   4.819  12.333
37939SOL    HW115649  10.553   4.821  12.241
37939SOL    HW215650  10.663   4.773  12.333
37940SOL     OW15651   4.466  13.503   7.155
37940SOL    HW115652   4.517  13.535   7.229
37940SOL    HW215653   4.519  13.434   7.117
37941SOL     OW15654  13.629   6.609   4.238
37941SOL    HW115655  13.667   6.678   4.292
37941SOL    HW215656  13.534   6.617   4.253
37942SOL     OW15657   1.368   8.772   1.440
37942SOL    HW115658   1.313   8.696   1.456
37942SOL    HW215659   1.368   8.820   1.523
37943SOL     OW15660   9.562   4.111  11.448
37943SOL    HW115661   9.488   4.054  11.425
37943SOL    HW215662   9.637   4.051  11.453
37944SOL     OW15663  14.085  13.276   4.956
37944SOL    HW115664  14.143  13.262   4.881
37944SOL    HW215665  14.143  13.280   5.032
37945SOL     OW15666   1.046  14.209   9.235
37945SOL    HW115667   0.986  14.172   9.300
37945SOL    HW215668   1.130  14.216   9.281
37946SOL     OW15669  10.749   8.052   7.417
37946SOL    HW115670  10.828   8.030   7.466
37946SOL    HW215671  10.725   8.139   7.449
37947SOL     OW15672  12.432   3.778   3.385
37947SOL    HW115673  12.478   3.860   3.401
37947SOL    HW215674  12.477   3.740   3.309
37948SOL     OW15675   6.948   1.835   1.577
37948SOL    HW115676   7.002   1.909   1.550
37948SOL    HW215677   6.872   1.875   1.619
37949SOL     OW15678  14.057  13.948   3.418
37949SOL    HW115679  14.024  13.975   3.503
37949SOL    HW215680  13.978  13.935   3.365
37950SOL     OW15681   7.418   6.648   3.510
37950SOL    HW115682   7.356   6.601   3.566
37950SOL    HW215683   7.465   6.579   3.464
37951SOL     OW15684   1.391   4.026   1.548
37951SOL    HW115685   1.313   4.015   1.603
37951SOL    HW215686   1.357   4.047   1.461
37952SOL     OW15687   5.688   4.696   0.679
37952SOL    HW115688   5.714   4.609   0.710
37952SOL    HW215689   5.622   4.679   0.612
37953SOL     OW15690  11.651   7.510   3.640
37953SOL    HW115691  11.683   7.579   3.699
37953SOL    HW215692  11.668   7.543   3.552
37954SOL     OW15693  14.851   2.230   9.462
37954SOL    HW115694  14.821   2.282   9.537
37954SOL    HW215695  14.820   2.278   9.385
37955SOL     OW15696   1.308   1.740   1.914
37955SOL    HW115697   1.330   1.811   1.975
37955SOL    HW215698   1.392   1.695   1.900
37956SOL     OW15699   9.645   5.970   2.097
37956SOL    HW115700   9.560   5.930   2.113
37956SOL    HW215701   9.679   5.992   2.184
37957SOL     OW15702  14.826  12.758   9.736
37957SOL    HW115703   0.004  12.678   9.727
37957SOL    HW215704  14.819  12.792   9.646
37958SOL     OW15705   0.405   4.589   1.601
37958SOL    HW115706   0.470   4.623   1.539
37958SOL    HW215707   0.352   4.666   1.623
37959SOL     OW15708   4.731  11.737   5.894
37959SOL    HW115709   4.689  11.684   5.962
37959SOL    HW215710   4.817  11.759   5.931
37960SOL     OW15711   0.447  13.778   6.796
37960SOL    HW115712   0.394  13.857   6.785
37960SOL    HW215713   0.529  13.810   6.835
37961SOL     OW15714   0.386   9.835   7.611
37961SOL    HW115715   0.387   9.767   7.678
37961SOL    HW215716   0.371   9.788   7.529
37962SOL     OW15717  13.625   0.345   4.602
37962SOL    HW115718  13.609   0.298   4.521
37962SOL    HW215719  13.555   0.410   4.607
37963SOL     OW15720   8.960   9.486  10.779
37963SOL    HW115721   8.877   9.501  10.824
37963SOL    HW215722   8.940   9.497  10.686
37964SOL     OW15723   2.519   0.819   1.833
37964SOL    HW115724   2.555   0.818   1.745
37964SOL    HW215725   2.534   0.908   1.865
37965SOL     OW15726   6.591   5.471   6.720
37965SOL    HW115727   6.552   5.429   6.796
37965SOL    HW215728   6.670   5.420   6.701
37966SOL     OW15729  10.661   4.121  13.858
37966SOL    HW115730  10.717   4.100  13.933
37966SOL    HW215731  10.689   4.062  13.789
37967SOL     OW15732   4.945  12.018   4.089
37967SOL    HW115733   4.986  11.997   4.173
37967SOL    HW215734   4.979  11.952   4.028
37968SOL     OW15735   3.014  10.037  12.329
37968SOL    HW115736   2.949   9.974  12.299
37968SOL    HW215737   3.098   9.991  12.323
37969SOL     OW15738   7.592  10.600   4.748
37969SOL    HW115739   7.614  10.544   4.674
37969SOL    HW215740   7.497  10.588   4.760
37970SOL     OW15741  14.643  12.421   7.370
37970SOL    HW115742  14.656  12.388   7.281
37970SOL    HW215743  14.730  12.417   7.410
37971SOL     OW15744   8.581  11.643   5.582
37971SOL    HW115745   8.513  11.610   5.524
37971SOL    HW215746   8.536  11.707   5.638
37972SOL     OW15747   1.536  12.455   6.876
37972SOL    HW115748   1.580  12.380   6.916
37972SOL    HW215749   1.444  12.430   6.872
37973SOL     OW15750  11.454   5.337   9.629
37973SOL    HW115751  11.435   5.390   9.551
37973SOL    HW215752  11.511   5.392   9.682
37974SOL     OW15753  14.146  10.434   0.906
37974SOL    HW115754  14.062  10.408   0.944
37974SOL    HW215755  14.122  10.482   0.827
37975SOL     OW15756   1.834   0.320   5.871
37975SOL    HW115757   1.766   0.252   5.866
37975SOL    HW215758   1.903   0.280   5.924
37976SOL     OW15759   5.189   9.216  11.630
37976SOL    HW115760   5.253   9.203  11.700
37976SOL    HW215761   5.145   9.298  11.653
37977SOL     OW15762  10.092   2.861   2.339
37977SOL    HW115763  10.102   2.870   2.434
37977SOL    HW215764   9.998   2.868   2.324
37978SOL     OW15765  11.239  12.424   6.135
37978SOL    HW115766  11.299  12.447   6.207
37978SOL    HW215767  11.173  12.493   6.137
37979SOL     OW15768   9.118   6.258  12.534
37979SOL    HW115769   9.168   6.189  12.577
37979SOL    HW215770   9.176   6.334  12.535
37980SOL     OW15771   6.146   2.133  10.527
37980SOL    HW115772   6.208   2.071  10.489
37980SOL    HW215773   6.194   2.216  10.530
37981SOL     OW15774   5.686   0.980  12.880
37981SOL    HW115775   5.598   1.014  12.868
37981SOL    HW215776   5.686   0.896  12.835
37982SOL     OW15777   1.758   5.019   6.677
37982SOL    HW115778   1.776   5.014   6.771
37982SOL    HW215779   1.671   4.980   6.667
37983SOL     OW15780   5.505  14.282   4.604
37983SOL    HW115781   5.454  14.350   4.558
37983SOL    HW215782   5.521  14.319   4.691
37984SOL     OW15783   0.064   1.134   4.586
37984SOL    HW115784   0.071   1.119   4.680
37984SOL    HW215785   0.013   1.214   4.578
37985SOL     OW15786   5.767  10.784  10.950
37985SOL    HW115787   5.715  10.704  10.955
37985SOL    HW215788   5.789  10.804  11.041
37986SOL     OW15789   9.955   1.595   7.060
37986SOL    HW115790  10.025   1.533   7.080
37986SOL    HW215791   9.985   1.678   7.097
37987SOL     OW15792   8.549   3.145  13.510
37987SOL    HW115793   8.643   3.162  13.505
37987SOL    HW215794   8.511   3.198  13.440
37988SOL     OW15795   2.879  13.172   7.669
37988SOL    HW115796   2.931  13.100   7.633
37988SOL    HW215797   2.846  13.219   7.593
37989SOL     OW15798   9.320   4.166   3.386
37989SOL    HW115799   9.231   4.194   3.406
37989SOL    HW215800   9.347   4.116   3.463
37990SOL     OW15801   2.018  13.499  14.015
37990SOL    HW115802   1.967  13.418  14.025
37990SOL    HW215803   2.070  13.485  13.935
37991SOL     OW15804   9.232   9.683   5.593
37991SOL    HW115805   9.206   9.598   5.628
37991SOL    HW215806   9.170   9.745   5.632
37992SOL     OW15807  10.057   6.347  13.284
37992SOL    HW115808  10.087   6.418  13.341
37992SOL    HW215809   9.965   6.335  13.306
37993SOL     OW15810   4.796   2.926   9.671
37993SOL    HW115811   4.849   2.853   9.703
37993SOL    HW215812   4.761   2.967   9.750
37994SOL     OW15813  13.428  14.674   4.883
37994SOL    HW115814  13.343  14.688   4.843
37994SOL    HW215815  13.447  14.581   4.869
37995SOL     OW15816  12.031   8.845   5.693
37995SOL    HW115817  12.060   8.936   5.689
37995SOL    HW215818  12.008   8.823   5.603
37996SOL     OW15819   8.698   5.938   1.820
37996SOL    HW115820   8.646   5.955   1.741
37996SOL    HW215821   8.669   5.851   1.848
37997SOL     OW15822   9.295  11.778   1.335
37997SOL    HW115823   9.241  11.849   1.369
37997SOL    HW215824   9.361  11.822   1.280
37998SOL     OW15825   9.904   8.248   5.555
37998SOL    HW115826   9.967   8.282   5.491
37998SOL    HW215827   9.874   8.325   5.603
37999SOL     OW15828   8.871   3.155  14.831
37999SOL    HW115829   8.829   3.071  14.852
37999SOL    HW215830   8.854   3.210   0.036
38000SOL     OW15831  11.626   2.075   3.544
38000SOL    HW115832  11.587   2.158   3.571
38000SOL    HW215833  11.695   2.099   3.483
38001SOL     OW15834   2.055  10.506   8.166
38001SOL    HW115835   2.137  10.527   8.122
38001SOL    HW215836   2.078  10.507   8.259
38002SOL     OW15837  13.220   2.167  10.826
38002SOL    HW115838  13.135   2.163  10.871
38002SOL    HW215839  13.197   2.185  10.735
38003SOL     OW15840   4.873   6.722  10.951
38003SOL    HW115841   4.935   6.663  10.993
38003SOL    HW215842   4.906   6.734  10.863
38004SOL     OW15843   6.293   0.649   3.040
38004SOL    HW115844   6.240   0.593   2.983
38004SOL    HW215845   6.380   0.648   3.001
38005SOL     OW15846   7.433  12.921  10.520
38005SOL    HW115847   7.479  12.885  10.444
38005SOL    HW215848   7.462  12.866  10.593
38006SOL     OW15849   1.501   9.101  10.361
38006SOL    HW115850   1.513   9.084  10.455
38006SOL    HW215851   1.521   9.018  10.319
38007SOL     OW15852  10.200  12.532  11.055
38007SOL    HW115853  10.282  12.579  11.071
38007SOL    HW215854  10.206  12.504  10.963
38008SOL     OW15855   5.254   9.712   7.396
38008SOL    HW115856   5.187   9.644   7.391
38008SOL    HW215857   5.327   9.670   7.442
38009SOL     OW15858   9.747   5.909  11.381
38009SOL    HW115859   9.780   5.940  11.297
38009SOL    HW215860   9.799   5.956  11.446
38010SOL     OW15861   1.303  14.670   8.230
38010SOL    HW115862   1.342  14.743   8.278
38010SOL    HW215863   1.363  14.597   8.245
38011SOL     OW15864   9.951   6.815   3.711
38011SOL    HW115865   9.979   6.863   3.789
38011SOL    HW215866   9.869   6.857   3.685
38012SOL     OW15867   2.259   2.617   1.688
38012SOL    HW115868   2.172   2.611   1.646
38012SOL    HW215869   2.285   2.526   1.702
38013SOL     OW15870   4.748   7.947  13.143
38013SOL    HW115871   4.825   7.899  13.112
38013SOL    HW215872   4.725   8.006  13.070
38014SOL     OW15873  13.511   5.778  11.757
38014SOL    HW115874  13.429   5.776  11.708
38014SOL    HW215875  13.577   5.752  11.694
38015SOL     OW15876  10.022  12.802   0.613
38015SOL    HW115877   9.971  12.854   0.551
38015SOL    HW215878  10.098  12.857   0.633
38016SOL     OW15879   7.391  13.173  10.393
38016SOL    HW115880   7.412  13.086  10.358
38016SOL    HW215881   7.301  13.166  10.423
38017SOL     OW15882  14.673   7.294   3.363
38017SOL    HW115883  14.729   7.364   3.329
38017SOL    HW215884  14.721   7.259   3.439
38018SOL     OW15885   4.630   4.160  12.792
38018SOL    HW115886   4.550   4.108  12.791
38018SOL    HW215887   4.604   4.246  12.826
38019SOL     OW15888   5.238   1.050   9.403
38019SOL    HW115889   5.177   0.977   9.394
38019SOL    HW215890   5.318   1.021   9.360
38020SOL     OW15891   6.109   4.575   8.031
38020SOL    HW115892   6.088   4.494   8.076
38020SOL    HW215893   6.119   4.640   8.100
38021SOL     OW15894  14.439   5.851   7.647
38021SOL    HW115895  14.518   5.821   7.691
38021SOL    HW215896  14.391   5.770   7.628
38022SOL     OW15897  11.613  14.628   9.432
38022SOL    HW115898  11.623  14.659   9.523
38022SOL    HW215899  11.604  14.533   9.441
38023SOL     OW15900  11.672   2.938   7.020
38023SOL    HW115901  11.602   2.978   6.967
38023SOL    HW215902  11.692   3.003   7.086
38024SOL     OW15903   8.822  10.391   5.361
38024SOL    HW115904   8.770  10.328   5.410
38024SOL    HW215905   8.774  10.401   5.278
38025SOL     OW15906   6.875  10.313   1.488
38025SOL    HW115907   6.788  10.352   1.481
38025SOL    HW215908   6.935  10.388   1.492
38026SOL     OW15909  14.083   8.234  12.539
38026SOL    HW115910  14.000   8.282  12.540
38026SOL    HW215911  14.089   8.196  12.627
38027SOL     OW15912  10.620   6.868   4.683
38027SOL    HW115913  10.570   6.786   4.680
38027SOL    HW215914  10.682   6.855   4.755
38028SOL     OW15915   9.870   5.526   2.825
38028SOL    HW115916   9.920   5.604   2.799
38028SOL    HW215917   9.782   5.559   2.843
38029SOL     OW15918   7.933   5.285   6.950
38029SOL    HW115919   7.999   5.339   6.993
38029SOL    HW215920   7.858   5.287   7.009
38030SOL     OW15921   2.492   9.182   1.192
38030SOL    HW115922   2.493   9.089   1.169
38030SOL    HW215923   2.451   9.224   1.116
38031SOL     OW15924   2.319   3.531   8.300
38031SOL    HW115925   2.248   3.593   8.286
38031SOL    HW215926   2.398   3.585   8.308
38032SOL     OW15927   6.202   0.172   6.233
38032SOL    HW115928   6.180   0.241   6.170
38032SOL    HW215929   6.168   0.092   6.195
38033SOL     OW15930   2.564   8.385   8.176
38033SOL    HW115931   2.626   8.419   8.112
38033SOL    HW215932   2.585   8.433   8.257
38034SOL     OW15933   7.192   7.124  11.812
38034SOL    HW115934   7.186   7.036  11.850
38034SOL    HW215935   7.144   7.179  11.873
38035SOL     OW15936  12.782  10.132   8.744
38035SOL    HW115937  12.841  10.067   8.705
38035SOL    HW215938  12.836  10.210   8.756
38036SOL     OW15939  13.936  10.338   2.316
38036SOL    HW115940  14.027  10.367   2.309
38036SOL    HW215941  13.938  10.267   2.380
38037SOL     OW15942  10.140  11.897   7.001
38037SOL    HW115943  10.100  11.982   6.982
38037SOL    HW215944  10.075  11.833   6.972
38038SOL     OW15945  12.461  14.177   9.279
38038SOL    HW115946  12.458  14.209   9.370
38038SOL    HW215947  12.440  14.253   9.226
38039SOL     OW15948   7.468  12.750   2.372
38039SOL    HW115949   7.544  12.807   2.362
38039SOL    HW215950   7.500  12.676   2.423
38040SOL     OW15951   0.976  12.363   0.735
38040SOL    HW115952   0.905  12.424   0.718
38040SOL    HW215953   0.991  12.319   0.652
38041SOL     OW15954   5.772   5.752  14.519
38041SOL    HW115955   5.758   5.766  14.426
38041SOL    HW215956   5.844   5.810  14.542
38042SOL     OW15957  10.992  11.918  14.415
38042SOL    HW115958  10.897  11.913  14.403
38042SOL    HW215959  11.015  12.006  14.383
38043SOL     OW15960   3.379   2.574  10.549
38043SOL    HW115961   3.446   2.525  10.502
38043SOL    HW215962   3.373   2.531  10.634
38044SOL     OW15963  13.130  13.089   2.281
38044SOL    HW115964  13.096  13.072   2.193
38044SOL    HW215965  13.180  13.170   2.272
38045SOL     OW15966   5.480  11.083   1.768
38045SOL    HW115967   5.524  11.154   1.814
38045SOL    HW215968   5.474  11.113   1.677
38046SOL     OW15969   9.253  11.188  11.589
38046SOL    HW115970   9.268  11.273  11.547
38046SOL    HW215971   9.304  11.192  11.670
38047SOL     OW15972   2.466  14.300  10.200
38047SOL    HW115973   2.392  14.358  10.181
38047SOL    HW215974   2.477  14.249  10.119
38048SOL     OW15975  10.010  14.748  10.633
38048SOL    HW115976  10.090  14.773  10.587
38048SOL    HW215977  10.002  14.811  10.705
38049SOL     OW15978   6.724  14.646   8.785
38049SOL    HW115979   6.791  14.688   8.730
38049SOL    HW215980   6.650  14.706   8.783
38050SOL     OW15981   6.694   7.194  13.731
38050SOL    HW115982   6.714   7.288  13.724
38050SOL    HW215983   6.778   7.151  13.719
38051SOL     OW15984   3.591   5.928   4.762
38051SOL    HW115985   3.500   5.937   4.735
38051SOL    HW215986   3.594   5.967   4.849
38052SOL     OW15987   7.644   1.002  13.214
38052SOL    HW115988   7.703   0.980  13.287
38052SOL    HW215989   7.700   1.048  13.151
38053SOL     OW15990  13.148  11.772   8.401
38053SOL    HW115991  13.237  11.804   8.386
38053SOL    HW215992  13.152  11.732   8.488
38054SOL     OW15993  10.863   7.178   1.730
38054SOL    HW115994  10.873   7.199   1.823
38054SOL    HW215995  10.840   7.262   1.689
38055SOL     OW15996   2.682   7.506   9.707
38055SOL    HW115997   2.733   7.487   9.628
38055SOL    HW215998   2.747   7.517   9.776
38056SOL     OW15999   1.192   5.877   1.056
38056SOL    HW116000   1.277   5.881   1.099
38056SOL    HW216001   1.211   5.901   0.965
38057SOL     OW16002   5.695   2.849   7.155
38057SOL    HW116003   5.775   2.799   7.139
38057SOL    HW216004   5.715   2.901   7.233
38058SOL     OW16005   5.271   1.966  13.365
38058SOL    HW116006   5.204   1.915  13.411
38058SOL    HW216007   5.353   1.921  13.384
38059SOL     OW16008  11.580   7.863   9.807
38059SOL    HW116009  11.644   7.791   9.809
38059SOL    HW216010  11.500   7.824   9.773
38060SOL     OW16011   2.750  12.279  11.681
38060SOL    HW116012   2.810  12.304  11.751
38060SOL    HW216013   2.759  12.348  11.615
38061SOL     OW16014  12.446  11.009   7.217
38061SOL    HW116015  12.360  10.975   7.193
38061SOL    HW216016  12.484  11.040   7.134
38062SOL     OW16017   4.260   5.542   5.480
38062SOL    HW116018   4.270   5.486   5.403
38062SOL    HW216019   4.344   5.587   5.489
38063SOL     OW16020   5.963   2.327  13.275
38063SOL    HW116021   5.996   2.242  13.306
38063SOL    HW216022   6.030   2.390  13.303
38064SOL     OW16023  12.705   4.391   5.162
38064SOL    HW116024  12.763   4.445   5.217
38064SOL    HW216025  12.738   4.403   5.073
38065SOL     OW16026   4.140   7.778   0.282
38065SOL    HW116027   4.209   7.751   0.343
38065SOL    HW216028   4.062   7.733   0.313
38066SOL     OW16029  12.974   3.524  12.888
38066SOL    HW116030  12.990   3.617  12.899
38066SOL    HW216031  12.950   3.514  12.796
38067SOL     OW16032  12.942   4.073   0.586
38067SOL    HW116033  12.945   4.132   0.661
38067SOL    HW216034  13.031   4.075   0.551
38068SOL     OW16035   2.368   0.078   3.654
38068SOL    HW116036   2.362   0.104   3.746
38068SOL    HW216037   2.462   0.080   3.635
38069SOL     OW16038  13.447   3.595   7.569
38069SOL    HW116039  13.526   3.650   7.571
38069SOL    HW216040  13.415   3.602   7.479
38070SOL     OW16041   1.386  11.872   5.250
38070SOL    HW116042   1.451  11.934   5.282
38070SOL    HW216043   1.305  11.924   5.244
38071SOL     OW16044   4.133   8.850   2.345
38071SOL    HW116045   4.084   8.782   2.391
38071SOL    HW216046   4.099   8.932   2.380
38072SOL     OW16047   4.254   8.351   1.104
38072SOL    HW116048   4.280   8.272   1.057
38072SOL    HW216049   4.262   8.421   1.038
38073SOL     OW16050   4.905   0.604   7.437
38073SOL    HW116051   4.968   0.535   7.454
38073SOL    HW216052   4.957   0.682   7.421
38074SOL     OW16053   2.402  11.404   4.342
38074SOL    HW116054   2.345  11.354   4.400
38074SOL    HW216055   2.490  11.371   4.359
38075SOL     OW16056   7.936   9.640   9.182
38075SOL    HW116057   7.957   9.563   9.235
38075SOL    HW216058   8.014   9.653   9.128
38076SOL     OW16059   5.620  10.803   1.129
38076SOL    HW116060   5.681  10.840   1.066
38076SOL    HW216061   5.638  10.709   1.128
38077SOL     OW16062  13.261   7.005   0.756
38077SOL    HW116063  13.257   7.080   0.696
38077SOL    HW216064  13.256   6.928   0.700
38078SOL     OW16065  11.613   5.897  13.981
38078SOL    HW116066  11.619   5.879  13.887
38078SOL    HW216067  11.704   5.901  14.011
38079SOL     OW16068   7.118   9.266  14.514
38079SOL    HW116069   7.066   9.190  14.489
38079SOL    HW216070   7.063   9.341  14.494
38080SOL     OW16071   1.646   6.991   3.110
38080SOL    HW116072   1.693   7.036   3.180
38080SOL    HW216073   1.714   6.940   3.066
38081SOL     OW16074   2.706   5.907   7.746
38081SOL    HW116075   2.794   5.935   7.720
38081SOL    HW216076   2.691   5.949   7.831
38082SOL     OW16077   9.707  12.163   9.385
38082SOL    HW116078   9.735  12.255   9.383
38082SOL    HW216079   9.624  12.164   9.432
38083SOL     OW16080  11.164  10.516   0.013
38083SOL    HW116081  11.166  10.553  14.797
38083SOL    HW216082  11.191  10.588   0.070
38084SOL     OW16083   0.694   4.690   6.603
38084SOL    HW116084   0.619   4.749   6.598
38084SOL    HW216085   0.676   4.622   6.538
38085SOL     OW16086  13.579  13.426   6.968
38085SOL    HW116087  13.500  13.464   6.930
38085SOL    HW216088  13.648  13.445   6.904
38086SOL     OW16089   4.961   7.361   3.837
38086SOL    HW116090   5.024   7.386   3.905
38086SOL    HW216091   5.014   7.340   3.761
38087SOL     OW16092  12.432   0.681   8.389
38087SOL    HW116093  12.499   0.670   8.457
38087SOL    HW216094  12.386   0.597   8.387
38088SOL     OW16095   9.091  10.037  11.792
38088SOL    HW116096   9.148   9.965  11.767
38088SOL    HW216097   9.072  10.082  11.710
38089SOL     OW16098   4.732   9.076   9.366
38089SOL    HW116099   4.709   8.992   9.406
38089SOL    HW216100   4.669   9.138   9.402
38090SOL     OW16101  13.042   6.406   0.912
38090SOL    HW116102  12.994   6.477   0.867
38090SOL    HW216103  13.001   6.326   0.879
38091SOL     OW16104   4.996   8.568  11.489
38091SOL    HW116105   4.925   8.513  11.456
38091SOL    HW216106   4.953   8.645  11.526
38092SOL     OW16107  12.097  10.316   8.643
38092SOL    HW116108  12.145  10.353   8.569
38092SOL    HW216109  12.139  10.353   8.721
38093SOL     OW16110   3.917   1.422  14.127
38093SOL    HW116111   4.012   1.432  14.120
38093SOL    HW216112   3.888   1.410  14.036
38094SOL     OW16113   2.036  13.147   8.895
38094SOL    HW116114   1.995  13.137   8.981
38094SOL    HW216115   2.058  13.058   8.869
38095SOL     OW16116   8.815   4.303   6.602
38095SOL    HW116117   8.773   4.239   6.544
38095SOL    HW216118   8.769   4.294   6.685
38096SOL     OW16119   5.550   6.774   8.704
38096SOL    HW116120   5.468   6.732   8.680
38096SOL    HW216121   5.586   6.805   8.621
38097SOL     OW16122   2.227  11.820   6.391
38097SOL    HW116123   2.174  11.893   6.422
38097SOL    HW216124   2.299  11.814   6.454
38098SOL     OW16125   2.688   2.070  11.404
38098SOL    HW116126   2.597   2.100  11.405
38098SOL    HW216127   2.735   2.135  11.353
38099SOL     OW16128  10.625  14.239   3.767
38099SOL    HW116129  10.640  14.144   3.769
38099SOL    HW216130  10.695  14.273   3.711
38100SOL     OW16131   1.253   4.402  11.312
38100SOL    HW116132   1.244   4.411  11.217
38100SOL    HW216133   1.173   4.439  11.347
38101SOL     OW16134  11.019  13.457   5.663
38101SOL    HW116135  10.951  13.416   5.716
38101SOL    HW216136  11.036  13.394   5.593
38102SOL     OW16137   4.387  10.588   1.058
38102SOL    HW116138   4.305  10.538   1.063
38102SOL    HW216139   4.449  10.536   1.110
38103SOL     OW16140   7.684   0.442   5.270
38103SOL    HW116141   7.754   0.380   5.250
38103SOL    HW216142   7.730   0.525   5.286
38104SOL     OW16143  11.346   1.511   5.192
38104SOL    HW116144  11.281   1.455   5.150
38104SOL    HW216145  11.337   1.595   5.147
38105SOL     OW16146  12.508  11.590   6.210
38105SOL    HW116147  12.501  11.649   6.286
38105SOL    HW216148  12.417  11.574   6.185
38106SOL     OW16149   4.290  14.484  10.700
38106SOL    HW116150   4.344  14.553  10.738
38106SOL    HW216151   4.201  14.503  10.730
38107SOL     OW16152  10.650   1.009  11.395
38107SOL    HW116153  10.602   0.949  11.453
38107SOL    HW216154  10.620   0.986  11.307
38108SOL     OW16155   9.854  14.802   7.480
38108SOL    HW116156   9.922  14.869   7.476
38108SOL    HW216157   9.902  14.719   7.489
38109SOL     OW16158  10.545  10.374  11.340
38109SOL    HW116159  10.483  10.409  11.276
38109SOL    HW216160  10.586  10.300  11.296
38110SOL     OW16161   1.042   9.398   0.859
38110SOL    HW116162   0.968   9.412   0.799
38110SOL    HW216163   1.019   9.317   0.906
38111SOL     OW16164   2.896   4.064  11.364
38111SOL    HW116165   2.808   4.037  11.340
38111SOL    HW216166   2.948   3.983  11.357
38112SOL     OW16167  13.236   4.980   7.426
38112SOL    HW116168  13.176   4.906   7.424
38112SOL    HW216169  13.323   4.941   7.419
38113SOL     OW16170   7.707   2.521   5.879
38113SOL    HW116171   7.632   2.497   5.934
38113SOL    HW216172   7.778   2.539   5.942
38114SOL     OW16173  12.189   2.448  10.320
38114SOL    HW116174  12.157   2.427  10.232
38114SOL    HW216175  12.113   2.433  10.377
38115SOL     OW16176  14.846   5.522  13.835
38115SOL    HW116177   0.069   5.525  13.839
38115SOL    HW216178  14.818   5.538  13.925
38116SOL     OW16179   3.557   2.923  13.054
38116SOL    HW116180   3.551   2.909  12.959
38116SOL    HW216181   3.504   3.001  13.070
38117SOL     OW16182   4.004   2.156  11.895
38117SOL    HW116183   3.966   2.169  11.808
38117SOL    HW216184   3.990   2.063  11.914
38118SOL     OW16185   2.303  13.835   0.278
38118SOL    HW116186   2.346  13.912   0.316
38118SOL    HW216187   2.337  13.761   0.328
38119SOL     OW16188   5.577   8.260   0.186
38119SOL    HW116189   5.616   8.348   0.187
38119SOL    HW216190   5.615   8.216   0.262
38120SOL     OW16191   6.085  13.674   4.884
38120SOL    HW116192   6.016  13.719   4.836
38120SOL    HW216193   6.147  13.647   4.816
38121SOL     OW16194   9.372   5.654   6.156
38121SOL    HW116195   9.323   5.705   6.220
38121SOL    HW216196   9.436   5.716   6.120
38122SOL     OW16197  11.794  11.231   2.810
38122SOL    HW116198  11.833  11.242   2.723
38122SOL    HW216199  11.766  11.319   2.834
38123SOL     OW16200  11.136   9.667   7.553
38123SOL    HW116201  11.056   9.632   7.514
38123SOL    HW216202  11.107   9.744   7.602
38124SOL     OW16203   6.174  13.198  14.119
38124SOL    HW116204   6.092  13.237  14.087
38124SOL    HW216205   6.146  13.135  14.185
38125SOL     OW16206   9.978  10.871   6.761
38125SOL    HW116207   9.952  10.802   6.700
38125SOL    HW216208   9.934  10.950   6.728
38126SOL     OW16209   1.036   1.999  12.502
38126SOL    HW116210   0.951   2.019  12.541
38126SOL    HW216211   1.015   1.978  12.411
38127SOL     OW16212  14.361  14.590  10.057
38127SOL    HW116213  14.373  14.510  10.005
38127SOL    HW216214  14.443  14.638  10.045
38128SOL     OW16215   5.427   9.843  10.264
38128SOL    HW116216   5.365   9.914  10.247
38128SOL    HW216217   5.461   9.820  10.177
38129SOL     OW16218  11.989  14.423   9.888
38129SOL    HW116219  11.906  14.397   9.848
38129SOL    HW216220  11.978  14.404   9.981
38130SOL     OW16221  10.182   7.848   5.064
38130SOL    HW116222  10.196   7.814   5.152
38130SOL    HW216223  10.241   7.797   5.009
38131SOL     OW16224   6.912   1.659   1.171
38131SOL    HW116225   6.975   1.724   1.140
38131SOL    HW216226   6.846   1.710   1.218
38132SOL     OW16227   5.657   0.183   9.523
38132SOL    HW116228   5.721   0.180   9.594
38132SOL    HW216229   5.579   0.141   9.560
38133SOL     OW16230  11.047  14.011   0.119
38133SOL    HW116231  10.983  14.042   0.183
38133SOL    HW216232  11.119  14.074   0.125
38134SOL     OW16233  14.565  13.560   1.614
38134SOL    HW116234  14.650  13.518   1.597
38134SOL    HW216235  14.509  13.531   1.542
38135SOL     OW16236   9.596   4.677   4.223
38135SOL    HW116237   9.611   4.605   4.284
38135SOL    HW216238   9.522   4.648   4.169
38136SOL     OW16239   7.828  11.873   7.055
38136SOL    HW116240   7.750  11.860   7.109
38136SOL    HW216241   7.805  11.947   6.998
38137SOL     OW16242   1.193  10.834  13.915
38137SOL    HW116243   1.254  10.820  13.988
38137SOL    HW216244   1.210  10.761  13.855
38138SOL     OW16245   6.912   9.750   7.560
38138SOL    HW116246   6.981   9.706   7.610
38138SOL    HW216247   6.882   9.684   7.498
38139SOL     OW16248   2.436   7.536   0.190
38139SOL    HW116249   2.424   7.444   0.216
38139SOL    HW216250   2.387   7.544   0.108
38140SOL     OW16251  11.752   7.040  14.302
38140SOL    HW116252  11.809   6.966  14.279
38140SOL    HW216253  11.778   7.109  14.242
38141SOL     OW16254  14.381  14.320  13.550
38141SOL    HW116255  14.440  14.299  13.478
38141SOL    HW216256  14.418  14.399  13.589
38142SOL     OW16257   1.909   6.955   2.058
38142SOL    HW116258   1.895   7.048   2.080
38142SOL    HW216259   1.897   6.909   2.140
38143SOL     OW16260  11.679   8.649   7.896
38143SOL    HW116261  11.603   8.692   7.857
38143SOL    HW216262  11.697   8.698   7.976
38144SOL     OW16263   1.398  12.008  11.384
38144SOL    HW116264   1.382  12.021  11.291
38144SOL    HW216265   1.325  11.953  11.413
38145SOL     OW16266   8.024   0.191   4.227
38145SOL    HW116267   8.001   0.178   4.319
38145SOL    HW216268   8.099   0.251   4.229
38146SOL     OW16269  14.211  10.359   3.084
38146SOL    HW116270  14.144  10.341   3.018
38146SOL    HW216271  14.199  10.289   3.149
38147SOL     OW16272  12.634   3.216   8.357
38147SOL    HW116273  12.649   3.125   8.381
38147SOL    HW216274  12.574   3.249   8.424
38148SOL     OW16275   4.976  13.569   0.726
38148SOL    HW116276   4.970  13.475   0.745
38148SOL    HW216277   5.059  13.578   0.679
38149SOL     OW16278   4.080   4.062  10.150
38149SOL    HW116279   4.012   4.060  10.218
38149SOL    HW216280   4.059   4.139  10.097
38150SOL     OW16281   8.662   2.185  14.693
38150SOL    HW116282   8.681   2.143  14.610
38150SOL    HW216283   8.618   2.118  14.745
38151SOL     OW16284   6.854   9.620   2.745
38151SOL    HW116285   6.842   9.712   2.723
38151SOL    HW216286   6.921   9.621   2.814
38152SOL     OW16287  10.950   6.926   4.742
38152SOL    HW116288  10.936   6.835   4.769
38152SOL    HW216289  11.043   6.941   4.756
38153SOL     OW16290   1.321   5.443  10.215
38153SOL    HW116291   1.274   5.367  10.181
38153SOL    HW216292   1.346   5.494  10.138
38154SOL     OW16293  12.125  11.913  11.031
38154SOL    HW116294  12.047  11.892  10.980
38154SOL    HW216295  12.196  11.918  10.966
38155SOL     OW16296   8.067   8.049   9.478
38155SOL    HW116297   8.088   8.111   9.548
38155SOL    HW216298   8.116   7.970   9.501
38156SOL     OW16299  13.288   7.938   1.509
38156SOL    HW116300  13.244   7.920   1.426
38156SOL    HW216301  13.381   7.927   1.490
38157SOL     OW16302  13.986   7.125  11.565
38157SOL    HW116303  13.956   7.080  11.644
38157SOL    HW216304  13.926   7.095  11.496
38158SOL     OW16305  10.199   2.110   3.361
38158SOL    HW116306  10.122   2.066   3.397
38158SOL    HW216307  10.271   2.048   3.373
38159SOL     OW16308   9.570   9.913   1.235
38159SOL    HW116309   9.626   9.971   1.183
38159SOL    HW216310   9.538   9.968   1.306
38160SOL     OW16311  10.996  13.286   8.547
38160SOL    HW116312  10.999  13.345   8.622
38160SOL    HW216313  11.081  13.300   8.503
38161SOL     OW16314   4.727  10.433  10.992
38161SOL    HW116315   4.813  10.390  10.990
38161SOL    HW216316   4.741  10.517  10.949
38162SOL     OW16317   8.166   4.211   3.344
38162SOL    HW116318   8.160   4.135   3.285
38162SOL    HW216319   8.143   4.286   3.289
38163SOL     OW16320  11.458  12.529   6.265
38163SOL    HW116321  11.439  12.613   6.225
38163SOL    HW216322  11.533  12.546   6.323
38164SOL     OW16323   2.122   3.749   1.047
38164SOL    HW116324   2.079   3.664   1.054
38164SOL    HW216325   2.214   3.728   1.029
38165SOL     OW16326   3.836   7.516  10.419
38165SOL    HW116327   3.822   7.492  10.327
38165SOL    HW216328   3.806   7.440  10.469
38166SOL     OW16329   0.717   3.134   2.183
38166SOL    HW116330   0.643   3.189   2.158
38166SOL    HW216331   0.677   3.059   2.228
38167SOL     OW16332   4.450   6.627   5.925
38167SOL    HW116333   4.362   6.655   5.897
38167SOL    HW216334   4.460   6.540   5.886
38168SOL     OW16335  14.096   2.791   5.208
38168SOL    HW116336  14.101   2.876   5.252
38168SOL    HW216337  14.032   2.741   5.259
38169SOL     OW16338   8.345  13.832   3.626
38169SOL    HW116339   8.313  13.746   3.602
38169SOL    HW216340   8.283  13.864   3.691
38170SOL     OW16341   4.118   6.972   0.051
38170SOL    HW116342   4.172   6.904   0.011
38170SOL    HW216343   4.033   6.966   0.007
38171SOL     OW16344   1.622   9.679   3.104
38171SOL    HW116345   1.545   9.735   3.114
38171SOL    HW216346   1.688   9.734   3.063
38172SOL     OW16347   3.675   0.836   1.277
38172SOL    HW116348   3.587   0.846   1.242
38172SOL    HW216349   3.733   0.867   1.207
38173SOL     OW16350   0.173  13.882   1.510
38173SOL    HW116351   0.189  13.935   1.588
38173SOL    HW216352   0.181  13.944   1.437
38174SOL     OW16353   9.872   3.169  14.013
38174SOL    HW116354   9.900   3.123  13.934
38174SOL    HW216355   9.853   3.258  13.983
38175SOL     OW16356  12.940   9.263   4.074
38175SOL    HW116357  12.897   9.181   4.097
38175SOL    HW216358  12.879   9.331   4.104
38176SOL     OW16359   5.338   1.342  10.756
38176SOL    HW116360   5.357   1.400  10.682
38176SOL    HW216361   5.360   1.394  10.833
38177SOL     OW16362   2.784   3.036  12.019
38177SOL    HW116363   2.768   3.056  11.926
38177SOL    HW216364   2.761   3.117  12.064
38178SOL     OW16365  12.812   0.989   7.177
38178SOL    HW116366  12.749   0.945   7.234
38178SOL    HW216367  12.860   1.048   7.236
38179SOL     OW16368   5.143   2.589   8.684
38179SOL    HW116369   5.161   2.495   8.671
38179SOL    HW216370   5.075   2.609   8.620
38180SOL     OW16371   7.264  10.915  13.137
38180SOL    HW116372   7.207  10.938  13.063
38180SOL    HW216373   7.234  10.970  13.209
38181SOL     OW16374   3.076   7.581  10.956
38181SOL    HW116375   3.158   7.618  10.989
38181SOL    HW216376   3.008   7.621  11.010
38182SOL     OW16377  13.535   0.480  14.598
38182SOL    HW116378  13.496   0.393  14.603
38182SOL    HW216379  13.594   0.477  14.523
38183SOL     OW16380   8.131  11.163   3.408
38183SOL    HW116381   8.207  11.137   3.460
38183SOL    HW216382   8.081  11.220   3.466
38184SOL     OW16383   1.983  12.685   3.722
38184SOL    HW116384   2.046  12.727   3.663
38184SOL    HW216385   1.991  12.733   3.804
38185SOL     OW16386   1.906   9.543  11.588
38185SOL    HW116387   1.863   9.525  11.672
38185SOL    HW216388   1.993   9.576  11.612
38186SOL     OW16389   7.668   0.194  13.148
38186SOL    HW116390   7.658   0.242  13.231
38186SOL    HW216391   7.761   0.198  13.129
38187SOL     OW16392   3.955   6.280  10.322
38187SOL    HW116393   3.926   6.371  10.319
38187SOL    HW216394   3.875   6.229  10.333
38188SOL     OW16395   5.058   4.654   9.827
38188SOL    HW116396   5.123   4.724   9.816
38188SOL    HW216397   5.015   4.648   9.742
38189SOL     OW16398   5.081   7.336  14.116
38189SOL    HW116399   5.046   7.424  14.130
38189SOL    HW216400   5.084   7.326  14.021
38190SOL     OW16401  11.890  14.533   5.853
38190SOL    HW116402  11.921  14.454   5.808
38190SOL    HW216403  11.818  14.502   5.908
38191SOL     OW16404  13.426   8.493  12.517
38191SOL    HW116405  13.424   8.397  12.521
38191SOL    HW216406  13.340   8.521  12.547
38192SOL     OW16407  13.580  14.495   0.191
38192SOL    HW116408  13.556  14.509   0.099
38192SOL    HW216409  13.568  14.401   0.204
38193SOL     OW16410  11.661   1.687   3.753
38193SOL    HW116411  11.609   1.718   3.678
38193SOL    HW216412  11.598   1.682   3.825
38194SOL     OW16413  14.721   4.884  13.335
38194SOL    HW116414  14.694   4.874  13.426
38194SOL    HW216415  14.696   4.801  13.293
38195SOL     OW16416  11.889   2.231   9.668
38195SOL    HW116417  11.894   2.199   9.578
38195SOL    HW216418  11.966   2.195   9.711
38196SOL     OW16419   4.434   7.715  11.160
38196SOL    HW116420   4.352   7.746  11.198
38196SOL    HW216421   4.421   7.721  11.065
38197SOL     OW16422   8.077   6.436   1.548
38197SOL    HW116423   8.171   6.447   1.532
38197SOL    HW216424   8.049   6.372   1.482
38198SOL     OW16425  11.325   7.681   6.867
38198SOL    HW116426  11.262   7.730   6.814
38198SOL    HW216427  11.302   7.589   6.852
38199SOL     OW16428   5.756   0.017  11.434
38199SOL    HW116429   5.844   0.037  11.402
38199SOL    HW216430   5.770  14.855  11.522
38200SOL     OW16431   7.786   8.725  14.300
38200SOL    HW116432   7.809   8.632  14.303
38200SOL    HW216433   7.830   8.763  14.377
38201SOL     OW16434   8.232   6.146   4.689
38201SOL    HW116435   8.297   6.210   4.661
38201SOL    HW216436   8.175   6.134   4.613
38202SOL     OW16437   5.797   6.069  13.378
38202SOL    HW116438   5.869   6.021  13.336
38202SOL    HW216439   5.720   6.015  13.362
38203SOL     OW16440  10.265  12.963   3.820
38203SOL    HW116441  10.348  12.918   3.832
38203SOL    HW216442  10.206  12.922   3.883
38204SOL     OW16443  12.413  11.047   9.544
38204SOL    HW116444  12.381  11.074   9.630
38204SOL    HW216445  12.494  11.000   9.562
38205SOL     OW16446   4.229   8.938   4.762
38205SOL    HW116447   4.290   8.960   4.832
38205SOL    HW216448   4.155   8.897   4.806
38206SOL     OW16449   9.168   5.748   8.528
38206SOL    HW116450   9.182   5.663   8.487
38206SOL    HW216451   9.129   5.802   8.459
38207SOL     OW16452   6.708   6.651  12.123
38207SOL    HW116453   6.713   6.606  12.038
38207SOL    HW216454   6.786   6.707  12.125
38208SOL     OW16455  14.362   5.934   8.330
38208SOL    HW116456  14.360   5.841   8.353
38208SOL    HW216457  14.455   5.953   8.315
38209SOL     OW16458   8.148   1.400  11.907
38209SOL    HW116459   8.059   1.378  11.877
38209SOL    HW216460   8.166   1.485  11.868
38210SOL     OW16461  10.670   2.102   4.917
38210SOL    HW116462  10.709   2.047   4.985
38210SOL    HW216463  10.732   2.099   4.845
38211SOL     OW16464   1.380  10.715   6.658
38211SOL    HW116465   1.445  10.776   6.624
38211SOL    HW216466   1.422  10.673   6.733
38212SOL     OW16467  12.037   5.495  14.855
38212SOL    HW116468  12.069   5.519   0.069
38212SOL    HW216469  11.994   5.411  14.868
38213SOL     OW16470   0.024   5.456   6.248
38213SOL    HW116471   0.098   5.410   6.289
38213SOL    HW216472   0.057   5.545   6.234
38214SOL     OW16473   0.776   6.071   1.103
38214SOL    HW116474   0.826   6.105   1.177
38214SOL    HW216475   0.764   5.978   1.123
38215SOL     OW16476   5.453  10.625   5.413
38215SOL    HW116477   5.403  10.568   5.471
38215SOL    HW216478   5.533  10.575   5.393
38216SOL     OW16479   9.595  13.236   1.083
38216SOL    HW116480   9.662  13.272   1.142
38216SOL    HW216481   9.644  13.179   1.023
38217SOL     OW16482   0.258  11.128   0.987
38217SOL    HW116483   0.281  11.087   0.903
38217SOL    HW216484   0.254  11.055   1.049
38218SOL     OW16485   5.878  13.342  10.705
38218SOL    HW116486   5.817  13.340  10.779
38218SOL    HW216487   5.887  13.435  10.685
38219SOL     OW16488  10.527   8.660   1.676
38219SOL    HW116489  10.560   8.620   1.595
38219SOL    HW216490  10.600   8.650   1.738
38220SOL     OW16491   0.958  14.303   0.287
38220SOL    HW116492   0.954  14.252   0.206
38220SOL    HW216493   0.981  14.391   0.259
38221SOL     OW16494   7.136   7.653  14.110
38221SOL    HW116495   7.115   7.744  14.129
38221SOL    HW216496   7.134   7.609  14.195
38222SOL     OW16497   8.704  11.222   2.831
38222SOL    HW116498   8.698  11.128   2.849
38222SOL    HW216499   8.755  11.228   2.751
38223SOL     OW16500   6.953   9.441   4.336
38223SOL    HW116501   6.922   9.529   4.314
38223SOL    HW216502   6.887   9.406   4.396
38224SOL     OW16503  11.665   5.848   2.409
38224SOL    HW116504  11.699   5.825   2.496
38224SOL    HW216505  11.654   5.764   2.364
38225SOL     OW16506  12.827   0.741   0.974
38225SOL    HW116507  12.805   0.649   0.963
38225SOL    HW216508  12.877   0.764   0.896
38226SOL     OW16509   8.697   8.699  14.375
38226SOL    HW116510   8.688   8.631  14.308
38226SOL    HW216511   8.715   8.779  14.325
38227SOL     OW16512   1.375   7.139   8.271
38227SOL    HW116513   1.450   7.110   8.324
38227SOL    HW216514   1.402   7.123   8.181
38228SOL     OW16515   0.662   6.948   9.825
38228SOL    HW116516   0.756   6.939   9.809
38228SOL    HW216517   0.653   6.943   9.920
38229SOL     OW16518   2.878  12.852   3.344
38229SOL    HW116519   2.895  12.945   3.335
38229SOL    HW216520   2.789  12.840   3.312
38230SOL     OW16521  13.785   3.335   5.675
38230SOL    HW116522  13.722   3.403   5.651
38230SOL    HW216523  13.809   3.356   5.765
38231SOL     OW16524   3.888  11.543   4.408
38231SOL    HW116525   3.864  11.452   4.390
38231SOL    HW216526   3.954  11.563   4.341
38232SOL     OW16527  12.202   7.543   9.448
38232SOL    HW116528  12.123   7.521   9.498
38232SOL    HW216529  12.181   7.516   9.358
38233SOL     OW16530  12.494   6.349  14.349
38233SOL    HW116531  12.475   6.356  14.255
38233SOL    HW216532  12.576   6.300  14.353
38234SOL     OW16533   9.978   4.110   9.668
38234SOL    HW116534  10.051   4.098   9.607
38234SOL    HW216535  10.013   4.084   9.753
38235SOL     OW16536   3.651  12.805  14.525
38235SOL    HW116537   3.689  12.733  14.576
38235SOL    HW216538   3.644  12.772  14.436
38236SOL     OW16539   4.064   8.023   9.129
38236SOL    HW116540   4.021   7.975   9.059
38236SOL    HW216541   4.156   8.027   9.102
38237SOL     OW16542   1.345   4.875   3.104
38237SOL    HW116543   1.276   4.935   3.132
38237SOL    HW216544   1.395   4.856   3.184
38238SOL     OW16545   7.827   1.589  12.106
38238SOL    HW116546   7.857   1.679  12.120
38238SOL    HW216547   7.901   1.535  12.132
38239SOL     OW16548  12.548   1.657  12.288
38239SOL    HW116549  12.598   1.719  12.342
38239SOL    HW216550  12.515   1.711  12.216
38240SOL     OW16551  12.005  11.530  14.328
38240SOL    HW116552  11.933  11.484  14.284
38240SOL    HW216553  12.074  11.464  14.337
38241SOL     OW16554   8.167  12.196   7.044
38241SOL    HW116555   8.179  12.290   7.030
38241SOL    HW216556   8.158  12.187   7.139
38242SOL     OW16557   9.281   6.663   7.252
38242SOL    HW116558   9.294   6.732   7.187
38242SOL    HW216559   9.193   6.679   7.285
38243SOL     OW16560  10.042   4.058   9.094
38243SOL    HW116561  10.110   4.082   9.156
38243SOL    HW216562  10.017   4.140   9.051
38244SOL     OW16563   8.676   5.374   6.992
38244SOL    HW116564   8.725   5.358   7.073
38244SOL    HW216565   8.636   5.289   6.971
38245SOL     OW16566   4.790  14.757   8.678
38245SOL    HW116567   4.864  14.732   8.733
38245SOL    HW216568   4.758  14.674   8.642
38246SOL     OW16569   3.322   0.690   6.809
38246SOL    HW116570   3.418   0.683   6.816
38246SOL    HW216571   3.295   0.606   6.772
38247SOL     OW16572   6.683   2.770   7.828
38247SOL    HW116573   6.737   2.691   7.822
38247SOL    HW216574   6.618   2.750   7.895
38248SOL     OW16575  12.678   6.598  13.705
38248SOL    HW116576  12.671   6.626  13.796
38248SOL    HW216577  12.600   6.633  13.663
38249SOL     OW16578   3.559   6.725  10.468
38249SOL    HW116579   3.631   6.680  10.426
38249SOL    HW216580   3.529   6.665  10.536
38250SOL     OW16581  12.780   0.635   4.573
38250SOL    HW116582  12.737   0.570   4.518
38250SOL    HW216583  12.786   0.593   4.660
38251SOL     OW16584  12.298  13.297   3.206
38251SOL    HW116585  12.311  13.375   3.261
38251SOL    HW216586  12.307  13.224   3.267
38252SOL     OW16587   2.276   4.484   6.186
38252SOL    HW116588   2.368   4.488   6.213
38252SOL    HW216589   2.243   4.573   6.199
38253SOL     OW16590   8.594   6.344   8.962
38253SOL    HW116591   8.680   6.377   8.935
38253SOL    HW216592   8.592   6.254   8.931
38254SOL     OW16593   5.412  11.042  11.528
38254SOL    HW116594   5.388  10.967  11.473
38254SOL    HW216595   5.332  11.063  11.576
38255SOL     OW16596   0.688  11.457   7.844
38255SOL    HW116597   0.698  11.549   7.869
38255SOL    HW216598   0.719  11.408   7.919
38256SOL     OW16599   2.071   7.510   0.331
38256SOL    HW116600   2.109   7.442   0.387
38256SOL    HW216601   1.989   7.472   0.299
38257SOL     OW16602  11.088   9.919   9.769
38257SOL    HW116603  11.092   9.989   9.834
38257SOL    HW216604  11.097   9.964   9.685
38258SOL     OW16605  10.588  13.000   5.692
38258SOL    HW116606  10.676  12.978   5.661
38258SOL    HW216607  10.551  12.917   5.722
38259SOL     OW16608   7.410   8.677   5.690
38259SOL    HW116609   7.373   8.591   5.669
38259SOL    HW216610   7.493   8.657   5.735
38260SOL     OW16611   9.547   1.184  10.114
38260SOL    HW116612   9.485   1.112  10.108
38260SOL    HW216613   9.633   1.142  10.121
38261SOL     OW16614  11.686   3.152  12.344
38261SOL    HW116615  11.757   3.159  12.280
38261SOL    HW216616  11.632   3.229  12.328
38262SOL     OW16617   7.233  10.282   1.187
38262SOL    HW116618   7.305  10.222   1.169
38262SOL    HW216619   7.215  10.271   1.280
38263SOL     OW16620  13.333   1.770  13.126
38263SOL    HW116621  13.329   1.852  13.076
38263SOL    HW216622  13.381   1.793  13.206
38264SOL     OW16623   6.546  13.457  14.346
38264SOL    HW116624   6.521  13.371  14.312
38264SOL    HW216625   6.642  13.454  14.349
38265SOL     OW16626   7.488   1.013  12.961
38265SOL    HW116627   7.568   1.001  13.012
38265SOL    HW216628   7.449   1.094  12.995
38266SOL     OW16629   8.395   3.305   0.084
38266SOL    HW116630   8.392   3.401   0.089
38266SOL    HW216631   8.312   3.281   0.043
38267SOL     OW16632   0.099  12.191   9.471
38267SOL    HW116633   0.051  12.247   9.533
38267SOL    HW216634   0.186  12.231   9.465
38268SOL     OW16635  11.192   4.072   9.368
38268SOL    HW116636  11.132   4.106   9.301
38268SOL    HW216637  11.172   4.124   9.446
38269SOL     OW16638   4.805   3.862   6.167
38269SOL    HW116639   4.725   3.826   6.127
38269SOL    HW216640   4.774   3.920   6.236
38270SOL     OW16641   2.065  13.239  10.025
38270SOL    HW116642   2.048  13.179   9.952
38270SOL    HW216643   2.039  13.325   9.993
38271SOL     OW16644  12.490  13.503   4.184
38271SOL    HW116645  12.451  13.417   4.199
38271SOL    HW216646  12.533  13.524   4.267
38272SOL     OW16647   0.699   9.651   7.685
38272SOL    HW116648   0.652   9.636   7.602
38272SOL    HW216649   0.668   9.581   7.742
38273SOL     OW16650  12.270   5.121   2.375
38273SOL    HW116651  12.230   5.189   2.320
38273SOL    HW216652  12.239   5.039   2.337
38274SOL     OW16653  12.463   0.428   9.705
38274SOL    HW116654  12.400   0.382   9.650
38274SOL    HW216655  12.454   0.520   9.681
38275SOL     OW16656   7.654   8.802   0.542
38275SOL    HW116657   7.747   8.813   0.563
38275SOL    HW216658   7.635   8.711   0.563
38276SOL     OW16659  14.295  14.139   2.163
38276SOL    HW116660  14.340  14.172   2.241
38276SOL    HW216661  14.322  14.197   2.093
38277SOL     OW16662  13.263  13.671   3.359
38277SOL    HW116663  13.244  13.719   3.440
38277SOL    HW216664  13.191  13.694   3.300
38278SOL     OW16665   8.740  14.023   9.751
38278SOL    HW116666   8.740  14.066   9.665
38278SOL    HW216667   8.711  14.091   9.812
38279SOL     OW16668   7.009   8.781   0.944
38279SOL    HW116669   7.035   8.750   1.031
38279SOL    HW216670   7.092   8.784   0.895
38280SOL     OW16671  10.684   7.557  12.088
38280SOL    HW116672  10.644   7.644  12.099
38280SOL    HW216673  10.778   7.572  12.100
38281SOL     OW16674   9.625  10.706   6.844
38281SOL    HW116675   9.674  10.630   6.877
38281SOL    HW216676   9.567  10.670   6.777
38282SOL     OW16677   5.994  10.822   0.652
38282SOL    HW116678   6.022  10.731   0.664
38282SOL    HW216679   5.958  10.825   0.563
38283SOL     OW16680   8.848   5.243  10.678
38283SOL    HW116681   8.847   5.166  10.734
38283SOL    HW216682   8.915   5.300  10.716
38284SOL     OW16683   7.543   9.061   6.075
38284SOL    HW116684   7.621   9.036   6.025
38284SOL    HW216685   7.509   9.138   6.030
38285SOL     OW16686   0.438  14.213  14.558
38285SOL    HW116687   0.468  14.128  14.590
38285SOL    HW216688   0.364  14.235  14.615
38286SOL     OW16689  11.312  12.164   0.287
38286SOL    HW116690  11.389  12.140   0.237
38286SOL    HW216691  11.275  12.239   0.240
38287SOL     OW16692  13.262   7.193  12.793
38287SOL    HW116693  13.317   7.270  12.778
38287SOL    HW216694  13.218   7.211  12.877
38288SOL     OW16695   8.940  10.505   6.643
38288SOL    HW116696   8.887  10.585   6.638
38288SOL    HW216697   8.875  10.434   6.642
38289SOL     OW16698   6.453   9.198   6.029
38289SOL    HW116699   6.432   9.222   6.119
38289SOL    HW216700   6.386   9.133   6.006
38290SOL     OW16701   4.346   2.692   5.539
38290SOL    HW116702   4.387   2.669   5.456
38290SOL    HW216703   4.288   2.766   5.517
38291SOL     OW16704  11.634  10.651   9.296
38291SOL    HW116705  11.667  10.690   9.214
38291SOL    HW216706  11.540  10.643   9.282
38292SOL     OW16707   9.683   6.503   0.170
38292SOL    HW116708   9.675   6.443   0.096
38292SOL    HW216709   9.726   6.581   0.133
38293SOL     OW16710  10.872   2.318   5.045
38293SOL    HW116711  10.837   2.242   4.999
38293SOL    HW216712  10.851   2.392   4.988
38294SOL     OW16713   6.718  12.698   2.738
38294SOL    HW116714   6.797  12.743   2.770
38294SOL    HW216715   6.651  12.766   2.737
38295SOL     OW16716   2.162   8.667   4.903
38295SOL    HW116717   2.081   8.718   4.905
38295SOL    HW216718   2.224   8.717   4.955
38296SOL     OW16719   9.999  10.901   8.523
38296SOL    HW116720   9.935  10.830   8.525
38296SOL    HW216721   9.962  10.967   8.582
38297SOL     OW16722   1.941  11.852   1.797
38297SOL    HW116723   1.883  11.777   1.812
38297SOL    HW216724   1.995  11.827   1.723
38298SOL     OW16725  12.656   8.908   0.301
38298SOL    HW116726  12.674   8.874   0.388
38298SOL    HW216727  12.571   8.870   0.277
38299SOL     OW16728   9.144   2.313  12.445
38299SOL    HW116729   9.104   2.294  12.530
38299SOL    HW216730   9.234   2.283  12.454
38300SOL     OW16731   0.846   8.492   4.384
38300SOL    HW116732   0.925   8.539   4.411
38300SOL    HW216733   0.824   8.437   4.460
38301SOL     OW16734   5.539   6.535  10.626
38301SOL    HW116735   5.584   6.453  10.645
38301SOL    HW216736   5.446   6.514  10.636
38302SOL     OW16737   3.189   9.024   5.316
38302SOL    HW116738   3.104   8.981   5.326
38302SOL    HW216739   3.210   9.056   5.403
38303SOL     OW16740  14.776  11.486   2.970
38303SOL    HW116741  14.771  11.410   2.913
38303SOL    HW216742  14.799  11.450   3.056
38304SOL     OW16743   5.506  12.210  11.232
38304SOL    HW116744   5.571  12.207  11.163
38304SOL    HW216745   5.485  12.118  11.250
38305SOL     OW16746  12.382   3.363  13.449
38305SOL    HW116747  12.347   3.308  13.519
38305SOL    HW216748  12.306   3.413  13.418
38306SOL     OW16749  13.345   9.198  10.967
38306SOL    HW116750  13.282   9.266  10.988
38306SOL    HW216751  13.295   9.116  10.971
38307SOL     OW16752   0.800  10.968   3.939
38307SOL    HW116753   0.831  11.058   3.945
38307SOL    HW216754   0.805  10.934   4.029
38308SOL     OW16755   4.130  14.574   6.314
38308SOL    HW116756   4.127  14.666   6.289
38308SOL    HW216757   4.041  14.543   6.300
38309SOL     OW16758   6.639   4.115   7.100
38309SOL    HW116759   6.565   4.078   7.148
38309SOL    HW216760   6.715   4.071   7.137
38310SOL     OW16761   9.078  14.488   1.594
38310SOL    HW116762   9.084  14.478   1.689
38310SOL    HW216763   9.026  14.566   1.580
38311SOL     OW16764   5.192  12.846   7.010
38311SOL    HW116765   5.144  12.843   7.092
38311SOL    HW216766   5.171  12.763   6.967
38312SOL     OW16767  13.674   8.286   3.259
38312SOL    HW116768  13.728   8.290   3.180
38312SOL    HW216769  13.632   8.200   3.255
38313SOL     OW16770  11.885   6.010  11.826
38313SOL    HW116771  11.980   6.017  11.816
38313SOL    HW216772  11.872   5.926  11.871
38314SOL     OW16773   5.712  13.960   1.544
38314SOL    HW116774   5.621  13.977   1.568
38314SOL    HW216775   5.763  13.989   1.619
38315SOL     OW16776   3.742   1.686  14.009
38315SOL    HW116777   3.760   1.605  13.961
38315SOL    HW216778   3.660   1.668  14.055
38316SOL     OW16779   3.139   8.419  11.947
38316SOL    HW116780   3.074   8.352  11.970
38316SOL    HW216781   3.102   8.463  11.870
38317SOL     OW16782   6.686   4.324  10.447
38317SOL    HW116783   6.736   4.386  10.501
38317SOL    HW216784   6.718   4.339  10.358
38318SOL     OW16785  11.534   8.808   7.680
38318SOL    HW116786  11.524   8.743   7.610
38318SOL    HW216787  11.503   8.890   7.640
38319SOL     OW16788  11.064  13.104   2.753
38319SOL    HW116789  11.111  13.116   2.835
38319SOL    HW216790  11.079  13.012   2.730
38320SOL     OW16791   0.872   2.512  10.470
38320SOL    HW116792   0.811   2.585  10.478
38320SOL    HW216793   0.955   2.554  10.447
38321SOL     OW16794  13.249   7.473   0.969
38321SOL    HW116795  13.305   7.416   1.022
38321SOL    HW216796  13.303   7.496   0.894
38322SOL     OW16797   1.558   1.681  11.357
38322SOL    HW116798   1.526   1.614  11.419
38322SOL    HW216799   1.649   1.657  11.341
38323SOL     OW16800   9.984   0.680   8.387
38323SOL    HW116801  10.076   0.670   8.363
38323SOL    HW216802   9.977   0.770   8.419
38324SOL     OW16803   5.679  10.614  11.711
38324SOL    HW116804   5.623  10.618  11.789
38324SOL    HW216805   5.617  10.621  11.638
38325SOL     OW16806  10.001   9.757  10.746
38325SOL    HW116807   9.945   9.750  10.668
38325SOL    HW216808  10.065   9.824  10.724
38326SOL     OW16809  12.054   7.501   5.878
38326SOL    HW116810  11.986   7.549   5.829
38326SOL    HW216811  12.102   7.569   5.924
38327SOL     OW16812   2.720   4.932   2.350
38327SOL    HW116813   2.677   4.847   2.343
38327SOL    HW216814   2.794   4.917   2.409
38328SOL     OW16815   2.566   8.230  12.080
38328SOL    HW116816   2.646   8.277  12.104
38328SOL    HW216817   2.588   8.138  12.092
38329SOL     OW16818   8.703  14.862   6.015
38329SOL    HW116819   8.643  14.862   5.941
38329SOL    HW216820   8.665   0.053   6.076
38330SOL     OW16821   6.021   6.132  11.602
38330SOL    HW116822   6.012   6.113  11.509
38330SOL    HW216823   5.950   6.194  11.621
38331SOL     OW16824   4.152   8.407   9.423
38331SOL    HW116825   4.098   8.424   9.500
38331SOL    HW216826   4.126   8.320   9.394
38332SOL     OW16827  12.893  14.201   7.557
38332SOL    HW116828  12.830  14.246   7.614
38332SOL    HW216829  12.974  14.199   7.607
38333SOL     OW16830  12.420  12.810  13.389
38333SOL    HW116831  12.329  12.823  13.362
38333SOL    HW216832  12.471  12.843  13.316
38334SOL     OW16833  11.526   0.738   8.963
38334SOL    HW116834  11.550   0.652   8.998
38334SOL    HW216835  11.606   0.790   8.972
38335SOL     OW16836   8.883  10.332   9.921
38335SOL    HW116837   8.828  10.290   9.987
38335SOL    HW216838   8.838  10.317   9.838
38336SOL     OW16839  10.553   6.695  14.526
38336SOL    HW116840  10.550   6.782  14.485
38336SOL    HW216841  10.514   6.708  14.613
38337SOL     OW16842   1.521   7.409  13.640
38337SOL    HW116843   1.432   7.429  13.670
38337SOL    HW216844   1.510   7.355  13.562
38338SOL     OW16845  10.450  10.670   8.344
38338SOL    HW116846  10.448  10.704   8.255
38338SOL    HW216847  10.380  10.717   8.390
38339SOL     OW16848   4.394  13.698   3.370
38339SOL    HW116849   4.441  13.781   3.373
38339SOL    HW216850   4.309  13.719   3.332
38340SOL     OW16851   5.390  13.570  13.364
38340SOL    HW116852   5.301  13.602  13.346
38340SOL    HW216853   5.435  13.645  13.402
38341SOL     OW16854   8.107   4.629   1.936
38341SOL    HW116855   8.015   4.626   1.959
38341SOL    HW216856   8.123   4.547   1.887
38342SOL     OW16857   5.502   3.694  11.266
38342SOL    HW116858   5.597   3.698  11.268
38342SOL    HW216859   5.482   3.612  11.221
38343SOL     OW16860   9.030   1.839   1.566
38343SOL    HW116861   9.049   1.748   1.588
38343SOL    HW216862   9.019   1.882   1.651
38344SOL     OW16863   7.039   0.637   8.742
38344SOL    HW116864   7.036   0.644   8.647
38344SOL    HW216865   7.124   0.598   8.761
38345SOL     OW16866   8.899   5.974  11.403
38345SOL    HW116867   8.954   5.923  11.344
38345SOL    HW216868   8.882   6.056  11.356
38346SOL     OW16869  12.452   9.080   5.408
38346SOL    HW116870  12.363   9.065   5.440
38346SOL    HW216871  12.504   9.010   5.447
38347SOL     OW16872   1.374   3.256  13.192
38347SOL    HW116873   1.279   3.252  13.205
38347SOL    HW216874   1.400   3.164  13.181
38348SOL     OW16875  13.481   5.889  14.605
38348SOL    HW116876  13.501   5.921  14.518
38348SOL    HW216877  13.494   5.965  14.662
38349SOL     OW16878   3.281   0.403   5.702
38349SOL    HW116879   3.260   0.435   5.790
38349SOL    HW216880   3.369   0.437   5.684
38350SOL     OW16881   1.803   3.906  10.329
38350SOL    HW116882   1.719   3.861  10.330
38350SOL    HW216883   1.868   3.838  10.313
38351SOL     OW16884  14.623   3.785   7.478
38351SOL    HW116885  14.563   3.782   7.552
38351SOL    HW216886  14.567   3.773   7.401
38352SOL     OW16887   8.610   3.058   5.149
38352SOL    HW116888   8.550   2.987   5.169
38352SOL    HW216889   8.671   3.022   5.085
38353SOL     OW16890  14.110  10.526   6.651
38353SOL    HW116891  14.120  10.620   6.635
38353SOL    HW216892  14.016  10.511   6.649
38354SOL     OW16893  12.341   0.231   9.088
38354SOL    HW116894  12.249   0.243   9.112
38354SOL    HW216895  12.375   0.170   9.153
38355SOL     OW16896   1.866  14.713   1.475
38355SOL    HW116897   1.954  14.738   1.446
38355SOL    HW216898   1.881  14.639   1.534
38356SOL     OW16899   6.280   6.822   8.156
38356SOL    HW116900   6.358   6.864   8.120
38356SOL    HW216901   6.289   6.730   8.132
38357SOL     OW16902   7.735   7.420  13.118
38357SOL    HW116903   7.652   7.462  13.096
38357SOL    HW216904   7.732   7.335  13.073
38358SOL     OW16905   4.046   6.916  12.705
38358SOL    HW116906   4.092   6.868  12.637
38358SOL    HW216907   3.982   6.970  12.658
38359SOL     OW16908   7.041   1.081   4.886
38359SOL    HW116909   7.052   0.992   4.920
38359SOL    HW216910   7.122   1.098   4.839
38360SOL     OW16911  14.267  12.626   0.539
38360SOL    HW116912  14.209  12.621   0.615
38360SOL    HW216913  14.262  12.539   0.499
38361SOL     OW16914   9.671   8.805   0.745
38361SOL    HW116915   9.677   8.875   0.810
38361SOL    HW216916   9.729   8.833   0.674
38362SOL     OW16917   9.775  14.411   7.013
38362SOL    HW116918   9.714  14.381   6.946
38362SOL    HW216919   9.827  14.333   7.034
38363SOL     OW16920  10.841   9.586   6.765
38363SOL    HW116921  10.798   9.617   6.845
38363SOL    HW216922  10.772   9.545   6.714
38364SOL     OW16923   3.692  11.798  11.448
38364SOL    HW116924   3.726  11.879  11.409
38364SOL    HW216925   3.713  11.806  11.541
38365SOL     OW16926   6.439   1.009   0.882
38365SOL    HW116927   6.478   0.950   0.817
38365SOL    HW216928   6.353   0.970   0.900
38366SOL     OW16929   4.197  14.175  12.132
38366SOL    HW116930   4.178  14.244  12.195
38366SOL    HW216931   4.265  14.122  12.174
38367SOL     OW16932  10.648  12.189  13.305
38367SOL    HW116933  10.649  12.189  13.401
38367SOL    HW216934  10.737  12.163  13.280
38368SOL     OW16935   8.193   6.876  12.286
38368SOL    HW116936   8.233   6.794  12.257
38368SOL    HW216937   8.248   6.906  12.358
38369SOL     OW16938   1.258  11.586   1.434
38369SOL    HW116939   1.167  11.601   1.407
38369SOL    HW216940   1.272  11.649   1.504
38370SOL     OW16941   9.404   2.228   2.658
38370SOL    HW116942   9.432   2.207   2.569
38370SOL    HW216943   9.377   2.320   2.654
38371SOL     OW16944   0.974   7.615   7.811
38371SOL    HW116945   1.031   7.563   7.868
38371SOL    HW216946   0.945   7.553   7.744
38372SOL     OW16947  13.062   5.474  14.538
38372SOL    HW116948  13.011   5.407  14.491
38372SOL    HW216949  13.153   5.451  14.520
38373SOL     OW16950   7.012   5.785  12.594
38373SOL    HW116951   6.947   5.750  12.533
38373SOL    HW216952   7.065   5.844  12.541
38374SOL     OW16953   1.248  13.909   7.642
38374SOL    HW116954   1.163  13.915   7.687
38374SOL    HW216955   1.247  13.983   7.580
38375SOL     OW16956   3.115   1.826   1.451
38375SOL    HW116957   3.151   1.773   1.380
38375SOL    HW216958   3.191   1.855   1.501
38376SOL     OW16959  10.064  13.713  13.413
38376SOL    HW116960  10.045  13.775  13.483
38376SOL    HW216961  10.131  13.655  13.449
38377SOL     OW16962  10.926   9.716  12.090
38377SOL    HW116963  10.931   9.734  12.184
38377SOL    HW216964  11.013   9.683  12.067
38378SOL     OW16965   1.721   8.246   3.340
38378SOL    HW116966   1.742   8.180   3.275
38378SOL    HW216967   1.761   8.213   3.421
38379SOL     OW16968   2.862   5.312  13.862
38379SOL    HW116969   2.887   5.326  13.771
38379SOL    HW216970   2.838   5.220  13.867
38380SOL     OW16971  14.515  14.700  13.643
38380SOL    HW116972  14.536  14.792  13.660
38380SOL    HW216973  14.446  14.679  13.706
38381SOL     OW16974   8.789   8.463  12.057
38381SOL    HW116975   8.712   8.499  12.100
38381SOL    HW216976   8.825   8.401  12.121
38382SOL     OW16977  12.243  10.727   9.538
38382SOL    HW116978  12.249  10.820   9.514
38382SOL    HW216979  12.154  10.717   9.571
38383SOL     OW16980   1.656   9.469  10.257
38383SOL    HW116981   1.609   9.403  10.206
38383SOL    HW216982   1.669   9.542  10.197
38384SOL     OW16983   4.775  11.527  14.713
38384SOL    HW116984   4.825  11.449  14.733
38384SOL    HW216985   4.690  11.495  14.683
38385SOL     OW16986   9.399  11.661   2.791
38385SOL    HW116987   9.422  11.589   2.850
38385SOL    HW216988   9.476  11.671   2.735
38386SOL     OW16989   3.308  10.475   6.440
38386SOL    HW116990   3.282  10.554   6.486
38386SOL    HW216991   3.276  10.486   6.351
38387SOL     OW16992   6.786   5.251  12.813
38387SOL    HW116993   6.741   5.288  12.737
38387SOL    HW216994   6.860   5.203  12.775
38388SOL     OW16995  13.124  11.374  12.316
38388SOL    HW116996  13.138  11.457  12.361
38388SOL    HW216997  13.179  11.312  12.362
38389SOL     OW16998   9.574  14.455  12.308
38389SOL    HW116999   9.661  14.465  12.346
38389SOL    HW217000   9.517  14.504  12.367
38390SOL     OW17001   8.293   1.403   9.963
38390SOL    HW117002   8.366   1.375  10.017
38390SOL    HW217003   8.326   1.478   9.913
38391SOL     OW17004   6.907   9.211  12.557
38391SOL    HW117005   6.862   9.171  12.632
38391SOL    HW217006   6.842   9.267  12.516
38392SOL     OW17007   7.677   0.653   3.757
38392SOL    HW117008   7.678   0.575   3.702
38392SOL    HW217009   7.708   0.723   3.700
38393SOL     OW17010  10.616   0.654   7.888
38393SOL    HW117011  10.564   0.606   7.823
38393SOL    HW217012  10.558   0.725   7.917
38394SOL     OW17013   2.740   7.216   9.251
38394SOL    HW117014   2.827   7.177   9.239
38394SOL    HW217015   2.681   7.156   9.205
38395SOL     OW17016   8.666   2.173   0.521
38395SOL    HW117017   8.737   2.204   0.577
38395SOL    HW217018   8.590   2.227   0.545
38396SOL     OW17019  12.281   8.130   7.795
38396SOL    HW117020  12.267   8.120   7.701
38396SOL    HW217021  12.369   8.097   7.810
38397SOL     OW17022   4.154   0.368  13.430
38397SOL    HW117023   4.112   0.283  13.443
38397SOL    HW217024   4.245   0.346  13.408
38398SOL     OW17025   5.589  12.208   2.093
38398SOL    HW117026   5.683  12.212   2.110
38398SOL    HW217027   5.582  12.168   2.006
38399SOL     OW17028  10.713   0.100   6.573
38399SOL    HW117029  10.649   0.131   6.509
38399SOL    HW217030  10.780   0.168   6.576
38400SOL     OW17031   9.910   6.032   4.581
38400SOL    HW117032   9.901   6.109   4.525
38400SOL    HW217033   9.822   6.019   4.617
38401SOL     OW17034  10.937  11.318  10.214
38401SOL    HW117035  10.984  11.263  10.152
38401SOL    HW217036  10.852  11.334  10.172
38402SOL     OW17037  12.701   2.853   1.739
38402SOL    HW117038  12.777   2.907   1.716
38402SOL    HW217039  12.720   2.768   1.700
38403SOL     OW17040   0.347  14.099  11.924
38403SOL    HW117041   0.351  14.027  11.862
38403SOL    HW217042   0.401  14.072  11.997
38404SOL     OW17043  10.662   3.217   9.003
38404SOL    HW117044  10.577   3.251   8.974
38404SOL    HW217045  10.642   3.160   9.077
38405SOL     OW17046   7.337   9.180   6.658
38405SOL    HW117047   7.289   9.156   6.737
38405SOL    HW217048   7.367   9.097   6.621
38406SOL     OW17049   5.306  10.405   4.525
38406SOL    HW117050   5.291  10.499   4.525
38406SOL    HW217051   5.348  10.387   4.609
38407SOL     OW17052   4.423   7.782   7.523
38407SOL    HW117053   4.428   7.872   7.492
38407SOL    HW217054   4.345   7.746   7.480
38408SOL     OW17055   8.850   1.553   8.951
38408SOL    HW117056   8.802   1.495   8.892
38408SOL    HW217057   8.907   1.494   9.002
38409SOL     OW17058   7.255   1.144   7.021
38409SOL    HW117059   7.230   1.053   7.014
38409SOL    HW217060   7.188   1.192   6.972
38410SOL     OW17061  12.528   4.345  10.438
38410SOL    HW117062  12.492   4.259  10.416
38410SOL    HW217063  12.619   4.328  10.463
38411SOL     OW17064   6.992   9.530   3.139
38411SOL    HW117065   7.038   9.556   3.059
38411SOL    HW217066   6.914   9.584   3.140
38412SOL     OW17067   8.196   2.431   4.998
38412SOL    HW117068   8.189   2.477   5.081
38412SOL    HW217069   8.216   2.499   4.934
38413SOL     OW17070  14.184   7.487   6.141
38413SOL    HW117071  14.221   7.536   6.068
38413SOL    HW217072  14.254   7.486   6.207
38414SOL     OW17073   6.192   7.328   2.939
38414SOL    HW117074   6.236   7.259   2.889
38414SOL    HW217075   6.195   7.404   2.881
38415SOL     OW17076   6.333   9.295  10.024
38415SOL    HW117077   6.249   9.282   9.980
38415SOL    HW217078   6.310   9.335  10.108
38416SOL     OW17079   7.804   1.340   4.492
38416SOL    HW117080   7.722   1.364   4.534
38416SOL    HW217081   7.847   1.281   4.555
38417SOL     OW17082  13.265   2.963  11.004
38417SOL    HW117083  13.251   2.996  10.915
38417SOL    HW217084  13.352   2.995  11.028
38418SOL     OW17085   2.686  13.873   1.349
38418SOL    HW117086   2.710  13.898   1.259
38418SOL    HW217087   2.619  13.806   1.338
38419SOL     OW17088  11.485   1.607   9.665
38419SOL    HW117089  11.421   1.633   9.598
38419SOL    HW217090  11.448   1.639   9.747
38420SOL     OW17091   8.030   7.792   0.826
38420SOL    HW117092   8.059   7.717   0.879
38420SOL    HW217093   7.935   7.794   0.838
38421SOL     OW17094   7.093  12.411  10.412
38421SOL    HW117095   7.103  12.367  10.496
38421SOL    HW217096   7.024  12.362  10.367
38422SOL     OW17097   0.689  14.142   5.515
38422SOL    HW117098   0.757  14.126   5.580
38422SOL    HW217099   0.611  14.163   5.567
38423SOL     OW17100  10.363  10.726  10.600
38423SOL    HW117101  10.274  10.726  10.566
38423SOL    HW217102  10.379  10.817  10.625
38424SOL     OW17103   6.965   6.152  11.835
38424SOL    HW117104   7.034   6.191  11.781
38424SOL    HW217105   6.909   6.106  11.772
38425SOL     OW17106   8.195   1.684  12.721
38425SOL    HW117107   8.255   1.754  12.746
38425SOL    HW217108   8.153   1.715  12.641
38426SOL     OW17109  12.347   8.594  13.713
38426SOL    HW117110  12.284   8.547  13.658
38426SOL    HW217111  12.431   8.582  13.669
38427SOL     OW17112  12.450   5.664   0.091
38427SOL    HW117113  12.408   5.746   0.065
38427SOL    HW217114  12.405   5.597   0.038
38428SOL     OW17115  12.716  11.587  14.036
38428SOL    HW117116  12.636  11.534  14.034
38428SOL    HW217117  12.760  11.563  14.117
38429SOL     OW17118  11.084   9.976   4.335
38429SOL    HW117119  11.050  10.066   4.337
38429SOL    HW217120  11.177   9.987   4.315
38430SOL     OW17121  13.261  12.704   4.602
38430SOL    HW117122  13.276  12.700   4.508
38430SOL    HW217123  13.328  12.645   4.639
38431SOL     OW17124  12.399   6.086   6.631
38431SOL    HW117125  12.321   6.080   6.687
38431SOL    HW217126  12.366   6.077   6.542
38432SOL     OW17127  12.237  11.002   4.890
38432SOL    HW117128  12.243  11.001   4.986
38432SOL    HW217129  12.327  11.017   4.860
38433SOL     OW17130   2.260  12.155   1.405
38433SOL    HW117131   2.244  12.226   1.342
38433SOL    HW217132   2.292  12.199   1.484
38434SOL     OW17133   8.736   3.688  10.293
38434SOL    HW117134   8.805   3.746  10.261
38434SOL    HW217135   8.666   3.696  10.228
38435SOL     OW17136   7.065  11.806   9.003
38435SOL    HW117137   7.059  11.795   8.908
38435SOL    HW217138   7.027  11.892   9.020
38436SOL     OW17139   6.313  13.793   4.563
38436SOL    HW117140   6.263  13.717   4.595
38436SOL    HW217141   6.340  13.768   4.475
38437SOL     OW17142   3.659   9.748  11.498
38437SOL    HW117143   3.598   9.808  11.541
38437SOL    HW217144   3.608   9.706  11.430
38438SOL     OW17145  14.683   8.601  10.997
38438SOL    HW117146  14.681   8.687  10.955
38438SOL    HW217147  14.598   8.593  11.041
38439SOL     OW17148   3.928   8.645   6.477
38439SOL    HW117149   3.929   8.693   6.395
38439SOL    HW217150   3.910   8.711   6.544
38440SOL     OW17151   4.234   2.735  10.479
38440SOL    HW117152   4.159   2.692  10.520
38440SOL    HW217153   4.284   2.771  10.553
38441SOL     OW17154  11.558   9.221  13.225
38441SOL    HW117155  11.590   9.132  13.240
38441SOL    HW217156  11.636   9.271  13.200
38442SOL     OW17157  10.411  11.642   9.588
38442SOL    HW117158  10.357  11.700   9.642
38442SOL    HW217159  10.448  11.699   9.520
38443SOL     OW17160   3.086   4.883   2.915
38443SOL    HW117161   3.140   4.809   2.889
38443SOL    HW217162   3.042   4.854   2.995
38444SOL     OW17163  12.316   9.313   5.274
38444SOL    HW117164  12.283   9.369   5.344
38444SOL    HW217165  12.350   9.236   5.318
38445SOL     OW17166   2.774   8.590   9.739
38445SOL    HW117167   2.851   8.534   9.729
38445SOL    HW217168   2.749   8.613   9.649
38446SOL     OW17169   9.145   0.309  13.430
38446SOL    HW117170   9.052   0.328  13.417
38446SOL    HW217171   9.182   0.309  13.342
38447SOL     OW17172   9.944  12.535   1.715
38447SOL    HW117173   9.914  12.565   1.801
38447SOL    HW217174  10.012  12.471   1.734
38448SOL     OW17175  13.096  10.425   0.794
38448SOL    HW117176  13.185  10.459   0.781
38448SOL    HW217177  13.056  10.486   0.856
38449SOL     OW17178   7.627  13.831  12.889
38449SOL    HW117179   7.595  13.921  12.901
38449SOL    HW217180   7.602  13.808  12.800
38450SOL     OW17181   3.226  12.993   4.540
38450SOL    HW117182   3.232  12.935   4.615
38450SOL    HW217183   3.225  12.934   4.464
38451SOL     OW17184   1.337   0.194   5.513
38451SOL    HW117185   1.293   0.272   5.549
38451SOL    HW217186   1.396   0.229   5.447
38452SOL     OW17187   3.566   8.614  13.245
38452SOL    HW117188   3.581   8.595  13.337
38452SOL    HW217189   3.511   8.541  13.214
38453SOL     OW17190   1.023  12.615   8.557
38453SOL    HW117191   0.973  12.676   8.611
38453SOL    HW217192   1.114  12.633   8.579
38454SOL     OW17193   6.469   3.627  14.810
38454SOL    HW117194   6.516   3.569  14.751
38454SOL    HW217195   6.465   3.580   0.021
38455SOL     OW17196   5.576   2.695   5.862
38455SOL    HW117197   5.529   2.770   5.898
38455SOL    HW217198   5.560   2.699   5.768
38456SOL     OW17199  11.677  10.673   6.308
38456SOL    HW117200  11.666  10.596   6.363
38456SOL    HW217201  11.731  10.733   6.359
38457SOL     OW17202  11.186   1.367  14.548
38457SOL    HW117203  11.101   1.405  14.571
38457SOL    HW217204  11.183   1.278  14.584
38458SOL     OW17205   9.427   2.904   2.820
38458SOL    HW117206   9.390   2.903   2.732
38458SOL    HW217207   9.478   2.984   2.824
38459SOL     OW17208   8.852   5.528  10.330
38459SOL    HW117209   8.917   5.461  10.349
38459SOL    HW217210   8.768   5.481  10.331
38460SOL     OW17211   3.222   7.865   6.888
38460SOL    HW117212   3.212   7.902   6.801
38460SOL    HW217213   3.181   7.930   6.946
38461SOL     OW17214   3.105   7.443   6.096
38461SOL    HW117215   3.058   7.514   6.052
38461SOL    HW217216   3.041   7.406   6.156
38462SOL     OW17217  11.053   5.634  13.637
38462SOL    HW117218  11.109   5.569  13.594
38462SOL    HW217219  11.060   5.613  13.730
38463SOL     OW17220   5.274  14.086   1.191
38463SOL    HW117221   5.315  14.125   1.115
38463SOL    HW217222   5.314  14.131   1.266
38464SOL     OW17223  13.422   7.709   3.539
38464SOL    HW117224  13.436   7.734   3.448
38464SOL    HW217225  13.510   7.704   3.576
38465SOL     OW17226   4.627   1.402   8.756
38465SOL    HW117227   4.642   1.467   8.825
38465SOL    HW217228   4.569   1.447   8.694
38466SOL     OW17229   7.886   3.058   5.497
38466SOL    HW117230   7.812   3.027   5.550
38466SOL    HW217231   7.855   3.054   5.407
38467SOL     OW17232   8.320   2.024   8.803
38467SOL    HW117233   8.236   1.977   8.809
38467SOL    HW217234   8.295   2.117   8.802
38468SOL     OW17235   0.594   7.718  12.431
38468SOL    HW117236   0.589   7.651  12.498
38468SOL    HW217237   0.664   7.776  12.459
38469SOL     OW17238   8.990   4.386   1.726
38469SOL    HW117239   8.943   4.464   1.697
38469SOL    HW217240   8.952   4.365   1.811
38470SOL     OW17241   7.995   6.410  13.061
38470SOL    HW117242   8.062   6.441  13.000
38470SOL    HW217243   7.973   6.487  13.114
38471SOL     OW17244   9.256   1.514   9.568
38471SOL    HW117245   9.351   1.521   9.556
38471SOL    HW217246   9.244   1.489   9.659
38472SOL     OW17247   7.042   2.199   5.126
38472SOL    HW117248   7.014   2.176   5.214
38472SOL    HW217249   7.075   2.117   5.089
38473SOL     OW17250   4.502   3.022   4.152
38473SOL    HW117251   4.427   2.964   4.138
38473SOL    HW217252   4.477   3.104   4.110
38474SOL     OW17253  11.852   4.650   3.005
38474SOL    HW117254  11.880   4.645   2.913
38474SOL    HW217255  11.806   4.734   3.011
38475SOL     OW17256   9.396  12.488  13.128
38475SOL    HW117257   9.445  12.565  13.156
38475SOL    HW217258   9.462  12.433  13.085
38476SOL     OW17259  14.108  14.101   2.470
38476SOL    HW117260  14.094  14.186   2.428
38476SOL    HW217261  14.092  14.037   2.400
38477SOL     OW17262   6.103   2.486   2.542
38477SOL    HW117263   6.138   2.559   2.594
38477SOL    HW217264   6.120   2.409   2.596
38478SOL     OW17265   5.724   8.539   8.425
38478SOL    HW117266   5.750   8.628   8.448
38478SOL    HW217267   5.765   8.484   8.491
38479SOL     OW17268   1.309   0.279   2.861
38479SOL    HW117269   1.278   0.224   2.933
38479SOL    HW217270   1.289   0.368   2.889
38480SOL     OW17271   5.645  13.280   5.268
38480SOL    HW117272   5.714  13.220   5.238
38480SOL    HW217273   5.567  13.251   5.222
38481SOL     OW17274  14.182   3.620  12.871
38481SOL    HW117275  14.243   3.661  12.810
38481SOL    HW217276  14.105   3.600  12.818
38482SOL     OW17277  13.279  11.660  13.964
38482SOL    HW117278  13.231  11.615  14.033
38482SOL    HW217279  13.211  11.705  13.914
38483SOL     OW17280   5.870   8.449   6.154
38483SOL    HW117281   5.924   8.481   6.081
38483SOL    HW217282   5.820   8.376   6.117
38484SOL     OW17283   9.374  13.381   3.337
38484SOL    HW117284   9.449  13.327   3.314
38484SOL    HW217285   9.412  13.458   3.379
38485SOL     OW17286  10.432  13.200   6.003
38485SOL    HW117287  10.460  13.291   5.996
38485SOL    HW217288  10.512  13.149   5.993
38486SOL     OW17289   2.781   9.940   9.126
38486SOL    HW117290   2.819  10.016   9.170
38486SOL    HW217291   2.731   9.896   9.194
38487SOL     OW17292   3.264  14.385   5.812
38487SOL    HW117293   3.187  14.411   5.863
38487SOL    HW217294   3.263  14.290   5.814
38488SOL     OW17295  12.338  11.943  13.420
38488SOL    HW117296  12.360  12.035  13.409
38488SOL    HW217297  12.299  11.917  13.337
38489SOL     OW17298  11.650   9.889   6.801
38489SOL    HW117299  11.567   9.867   6.844
38489SOL    HW217300  11.715   9.886   6.872
38490SOL     OW17301   0.652   4.983   8.344
38490SOL    HW117302   0.608   5.036   8.411
38490SOL    HW217303   0.606   4.899   8.345
38491SOL     OW17304   6.160   5.418   0.152
38491SOL    HW117305   6.142   5.449   0.063
38491SOL    HW217306   6.117   5.333   0.157
38492SOL     OW17307   6.529   6.338   9.879
38492SOL    HW117308   6.533   6.425   9.921
38492SOL    HW217309   6.597   6.340   9.813
38493SOL     OW17310   3.571   2.880  11.752
38493SOL    HW117311   3.649   2.872  11.696
38493SOL    HW217312   3.542   2.789  11.764
38494SOL     OW17313   2.309  14.843  13.775
38494SOL    HW117314   2.370  14.807  13.839
38494SOL    HW217315   2.320  14.786  13.698
38495SOL     OW17316   4.586   1.173   0.759
38495SOL    HW117317   4.675   1.189   0.727
38495SOL    HW217318   4.539   1.138   0.683
38496SOL     OW17319   2.658   1.658   5.403
38496SOL    HW117320   2.681   1.738   5.450
38496SOL    HW217321   2.573   1.633   5.439
38497SOL     OW17322   0.667   6.055   9.625
38497SOL    HW117323   0.759   6.040   9.647
38497SOL    HW217324   0.666   6.143   9.589
38498SOL     OW17325   5.775   0.716   8.075
38498SOL    HW117326   5.838   0.755   8.135
38498SOL    HW217327   5.756   0.786   8.012
38499SOL     OW17328  13.793   7.378   2.580
38499SOL    HW117329  13.793   7.373   2.676
38499SOL    HW217330  13.838   7.298   2.552
38500SOL     OW17331  11.703   5.933  14.326
38500SOL    HW117332  11.735   5.847  14.297
38500SOL    HW217333  11.633   5.912  14.388
38501SOL     OW17334   1.096  13.711  12.406
38501SOL    HW117335   1.099  13.805  12.423
38501SOL    HW217336   1.187  13.683  12.413
38502SOL     OW17337   6.965  10.634  14.250
38502SOL    HW117338   7.050  10.677  14.239
38502SOL    HW217339   6.982  10.542  14.232
38503SOL     OW17340   6.409   0.942   6.623
38503SOL    HW117341   6.323   0.911   6.595
38503SOL    HW217342   6.452   0.971   6.543
38504SOL     OW17343  10.593   6.967   4.424
38504SOL    HW117344  10.670   6.951   4.370
38504SOL    HW217345  10.617   6.931   4.510
38505SOL     OW17346   9.871   4.640   1.244
38505SOL    HW117347   9.833   4.656   1.330
38505SOL    HW217348   9.839   4.553   1.219
38506SOL     OW17349  11.280   8.407   1.716
38506SOL    HW117350  11.317   8.468   1.652
38506SOL    HW217351  11.206   8.367   1.671
38507SOL     OW17352   3.947  12.404   2.781
38507SOL    HW117353   3.986  12.407   2.869
38507SOL    HW217354   3.978  12.322   2.744
38508SOL     OW17355  10.274   8.794   4.173
38508SOL    HW117356  10.341   8.793   4.242
38508SOL    HW217357  10.192   8.773   4.219
38509SOL     OW17358   4.030  14.080   5.219
38509SOL    HW117359   3.943  14.116   5.199
38509SOL    HW217360   4.023  13.987   5.196
38510SOL     OW17361   8.815  13.072  13.342
38510SOL    HW117362   8.837  13.129  13.268
38510SOL    HW217363   8.737  13.112  13.380
38511SOL     OW17364   4.706   4.764   5.075
38511SOL    HW117365   4.665   4.816   5.006
38511SOL    HW217366   4.638   4.703   5.103
38512SOL     OW17367   8.498   9.051   2.435
38512SOL    HW117368   8.527   9.042   2.526
38512SOL    HW217369   8.577   9.075   2.387
38513SOL     OW17370   4.228  13.030  10.699
38513SOL    HW117371   4.298  13.012  10.761
38513SOL    HW217372   4.148  13.030  10.752
38514SOL     OW17373  11.620   1.541  13.146
38514SOL    HW117374  11.624   1.611  13.080
38514SOL    HW217375  11.572   1.581  13.219
38515SOL     OW17376  11.937   5.266   0.094
38515SOL    HW117377  11.951   5.194   0.155
38515SOL    HW217378  11.899   5.225   0.016
38516SOL     OW17379  14.665   3.332  11.929
38516SOL    HW117380  14.620   3.250  11.909
38516SOL    HW217381  14.618   3.398  11.879
38517SOL     OW17382   4.696   2.494   7.245
38517SOL    HW117383   4.634   2.482   7.317
38517SOL    HW217384   4.650   2.548   7.181
38518SOL     OW17385   4.489   9.773   2.437
38518SOL    HW117386   4.575   9.809   2.456
38518SOL    HW217387   4.481   9.697   2.495
38519SOL     OW17388   6.801   9.534   4.634
38519SOL    HW117389   6.880   9.587   4.642
38519SOL    HW217390   6.832   9.449   4.606
38520SOL     OW17391   7.840   4.327   0.624
38520SOL    HW117392   7.746   4.326   0.608
38520SOL    HW217393   7.853   4.266   0.697
38521SOL     OW17394   0.729   5.185  12.174
38521SOL    HW117395   0.784   5.116  12.210
38521SOL    HW217396   0.783   5.264  12.178
38522SOL     OW17397   2.086   0.684   4.929
38522SOL    HW117398   2.044   0.598   4.931
38522SOL    HW217399   2.015   0.744   4.904
38523SOL     OW17400   4.918   6.645   1.355
38523SOL    HW117401   4.844   6.704   1.366
38523SOL    HW217402   4.954   6.666   1.269
38524SOL     OW17403  14.696   4.928  10.864
38524SOL    HW117404  14.642   5.000  10.897
38524SOL    HW217405  14.718   4.877  10.942
38525SOL     OW17406   0.097   5.614   7.209
38525SOL    HW117407   0.080   5.567   7.291
38525SOL    HW217408   0.030   5.582   7.149
38526SOL     OW17409   8.086   4.382   4.224
38526SOL    HW117410   8.014   4.415   4.169
38526SOL    HW217411   8.165   4.396   4.172
38527SOL     OW17412   9.861   4.704   0.532
38527SOL    HW117413   9.839   4.749   0.450
38527SOL    HW217414   9.780   4.660   0.558
38528SOL     OW17415   0.263   2.392   5.951
38528SOL    HW117416   0.252   2.439   5.868
38528SOL    HW217417   0.310   2.312   5.927
38529SOL     OW17418  10.181   7.441   5.852
38529SOL    HW117419  10.266   7.425   5.813
38529SOL    HW217420  10.120   7.445   5.778
38530SOL     OW17421   1.916  13.333   9.509
38530SOL    HW117422   1.910  13.248   9.465
38530SOL    HW217423   1.908  13.313   9.602
38531SOL     OW17424   2.210   7.105   9.590
38531SOL    HW117425   2.211   7.055   9.508
38531SOL    HW217426   2.123   7.087   9.627
38532SOL     OW17427   8.480   6.824   8.787
38532SOL    HW117428   8.413   6.790   8.847
38532SOL    HW217429   8.518   6.745   8.747
38533SOL     OW17430  10.291  11.651  10.693
38533SOL    HW117431  10.295  11.588  10.765
38533SOL    HW217432  10.199  11.676  10.689
38534SOL     OW17433   2.596   5.962  11.451
38534SOL    HW117434   2.552   5.883  11.480
38534SOL    HW217435   2.637   5.938  11.368
38535SOL     OW17436   1.295  12.977  12.181
38535SOL    HW117437   1.215  13.019  12.212
38535SOL    HW217438   1.354  13.050  12.161
38536SOL     OW17439  14.836   7.706   1.150
38536SOL    HW117440  14.872   7.664   1.073
38536SOL    HW217441  14.769   7.646   1.182
38537SOL     OW17442   7.138  14.744  12.892
38537SOL    HW117443   7.190  14.713  12.965
38537SOL    HW217444   7.065  14.682  12.885
38538SOL     OW17445   0.750   5.701  11.338
38538SOL    HW117446   0.728   5.610  11.320
38538SOL    HW217447   0.768   5.702  11.432
38539SOL     OW17448   6.856   8.816   0.549
38539SOL    HW117449   6.784   8.871   0.580
38539SOL    HW217450   6.823   8.775   0.469
38540SOL     OW17451   9.822   4.669   0.258
38540SOL    HW117452   9.780   4.715   0.185
38540SOL    HW217453   9.916   4.671   0.236
38541SOL     OW17454   1.298   0.653   4.160
38541SOL    HW117455   1.334   0.609   4.083
38541SOL    HW217456   1.359   0.631   4.230
38542SOL     OW17457  13.329   8.255  13.376
38542SOL    HW117458  13.311   8.280  13.285
38542SOL    HW217459  13.396   8.316  13.405
38543SOL     OW17460   7.207   1.699  10.869
38543SOL    HW117461   7.232   1.658  10.952
38543SOL    HW217462   7.286   1.745  10.840
38544SOL     OW17463   8.665  14.032   5.036
38544SOL    HW117464   8.730  14.098   5.010
38544SOL    HW217465   8.694  13.952   4.993
38545SOL     OW17466   8.755   2.072   7.596
38545SOL    HW117467   8.845   2.050   7.571
38545SOL    HW217468   8.738   2.019   7.674
38546SOL     OW17469  14.048   2.607   3.055
38546SOL    HW117470  14.054   2.532   3.113
38546SOL    HW217471  14.097   2.581   2.977
38547SOL     OW17472   9.714   2.503  12.441
38547SOL    HW117473   9.681   2.447  12.371
38547SOL    HW217474   9.636   2.533  12.488
38548SOL     OW17475  13.870   4.032   0.597
38548SOL    HW117476  13.883   3.937   0.597
38548SOL    HW217477  13.942   4.066   0.650
38549SOL     OW17478   6.214  13.043  10.874
38549SOL    HW117479   6.303  13.043  10.910
38549SOL    HW217480   6.207  12.959  10.829
38550SOL     OW17481  13.949   3.000   4.932
38550SOL    HW117482  13.971   2.951   4.853
38550SOL    HW217483  13.870   3.049   4.908
38551SOL     OW17484   4.948  10.305   0.906
38551SOL    HW117485   4.922  10.277   0.818
38551SOL    HW217486   4.873  10.352   0.940
38552SOL     OW17487   4.301   8.677  10.176
38552SOL    HW117488   4.234   8.610  10.188
38552SOL    HW217489   4.311   8.716  10.263
38553SOL     OW17490  14.640  12.292  14.540
38553SOL    HW117491  14.718  12.316  14.490
38553SOL    HW217492  14.631  12.197  14.526
38554SOL     OW17493   2.883   0.710  12.080
38554SOL    HW117494   2.923   0.734  12.163
38554SOL    HW217495   2.791   0.694  12.102
38555SOL     OW17496   0.296   5.269   1.286
38555SOL    HW117497   0.253   5.270   1.200
38555SOL    HW217498   0.280   5.181   1.320
38556SOL     OW17499  13.913   8.462  14.130
38556SOL    HW117500  13.965   8.484  14.208
38556SOL    HW217501  13.897   8.368  14.137
38557SOL     OW17502  14.140  12.226  10.414
38557SOL    HW117503  14.124  12.188  10.327
38557SOL    HW217504  14.180  12.155  10.463
38558SOL     OW17505   1.113   4.508   1.328
38558SOL    HW117506   1.048   4.547   1.385
38558SOL    HW217507   1.193   4.558   1.344
38559SOL     OW17508   4.236   9.654   5.751
38559SOL    HW117509   4.164   9.607   5.710
38559SOL    HW217510   4.220   9.746   5.730
38560SOL     OW17511  11.219   9.728   1.416
38560SOL    HW117512  11.159   9.749   1.344
38560SOL    HW217513  11.249   9.639   1.396
38561SOL     OW17514  11.281   8.144   8.630
38561SOL    HW117515  11.263   8.198   8.707
38561SOL    HW217516  11.201   8.148   8.579
38562SOL     OW17517   1.146   9.378  10.632
38562SOL    HW117518   1.209   9.434  10.677
38562SOL    HW217519   1.096   9.336  10.703
38563SOL     OW17520   5.635   1.748   1.749
38563SOL    HW117521   5.660   1.800   1.825
38563SOL    HW217522   5.539   1.741   1.755
38564SOL     OW17523   3.001   5.238   7.479
38564SOL    HW117524   2.979   5.184   7.555
38564SOL    HW217525   2.969   5.187   7.404
38565SOL     OW17526  11.483  13.546   9.279
38565SOL    HW117527  11.563  13.594   9.258
38565SOL    HW217528  11.470  13.558   9.373
38566SOL     OW17529   8.522  11.216   6.777
38566SOL    HW117530   8.581  11.215   6.852
38566SOL    HW217531   8.535  11.131   6.735
38567SOL     OW17532   7.808   0.792  10.978
38567SOL    HW117533   7.780   0.731  10.909
38567SOL    HW217534   7.839   0.736  11.049
38568SOL     OW17535   3.001   5.674   4.681
38568SOL    HW117536   3.011   5.769   4.688
38568SOL    HW217537   2.916   5.656   4.722
38569SOL     OW17538   0.763   9.955   1.268
38569SOL    HW117539   0.855   9.935   1.256
38569SOL    HW217540   0.757   9.987   1.358
38570SOL     OW17541  14.411   4.611   9.359
38570SOL    HW117542  14.443   4.676   9.297
38570SOL    HW217543  14.334   4.651   9.398
38571SOL     OW17544   7.121   8.987  10.662
38571SOL    HW117545   7.216   8.997  10.671
38571SOL    HW217546   7.085   9.055  10.719
38572SOL     OW17547  11.410   0.362   6.540
38572SOL    HW117548  11.499   0.368   6.574
38572SOL    HW217549  11.402   0.437   6.481
38573SOL     OW17550   1.905   9.188  10.802
38573SOL    HW117551   1.813   9.174  10.821
38573SOL    HW217552   1.947   9.196  10.888
38574SOL     OW17553   6.975   2.283   5.570
38574SOL    HW117554   6.912   2.355   5.568
38574SOL    HW217555   6.950   2.227   5.497
38575SOL     OW17556   8.904  12.563   6.744
38575SOL    HW117557   8.927  12.645   6.787
38575SOL    HW217558   8.926  12.495   6.808
38576SOL     OW17559   6.075   4.316   2.986
38576SOL    HW117560   6.092   4.233   2.942
38576SOL    HW217561   6.058   4.292   3.077
38577SOL     OW17562   5.203   4.633   8.100
38577SOL    HW117563   5.255   4.654   8.178
38577SOL    HW217564   5.214   4.709   8.042
38578SOL     OW17565  10.690   0.586  13.444
38578SOL    HW117566  10.651   0.607  13.359
38578SOL    HW217567  10.672   0.493  13.456
38579SOL     OW17568   3.183   2.718  10.451
38579SOL    HW117569   3.137   2.639  10.477
38579SOL    HW217570   3.276   2.699  10.467
38580SOL     OW17571   9.920  10.618  10.707
38580SOL    HW117572   9.888  10.689  10.653
38580SOL    HW217573   9.927  10.543  10.648
38581SOL     OW17574   8.813  11.759   4.525
38581SOL    HW117575   8.884  11.727   4.580
38581SOL    HW217576   8.738  11.764   4.585
38582SOL     OW17577   7.412  11.378  14.630
38582SOL    HW117578   7.419  11.380  14.725
38582SOL    HW217579   7.344  11.442  14.609
38583SOL     OW17580   0.492   8.102  13.447
38583SOL    HW117581   0.515   8.014  13.479
38583SOL    HW217582   0.492   8.094  13.352
38584SOL     OW17583   7.677   9.800   1.898
38584SOL    HW117584   7.756   9.773   1.944
38584SOL    HW217585   7.671   9.741   1.823
38585SOL     OW17586   2.601   0.155  12.429
38585SOL    HW117587   2.662   0.128  12.360
38585SOL    HW217588   2.534   0.205  12.383
38586SOL     OW17589   7.452  11.402  10.911
38586SOL    HW117590   7.403  11.320  10.910
38586SOL    HW217591   7.477  11.417  10.820
38587SOL     OW17592   8.239   7.129   7.688
38587SOL    HW117593   8.173   7.060   7.686
38587SOL    HW217594   8.189   7.210   7.702
38588SOL     OW17595   7.674   4.955  11.463
38588SOL    HW117596   7.634   4.890  11.405
38588SOL    HW217597   7.705   4.905  11.538
38589SOL     OW17598  14.314   3.599   7.124
38589SOL    HW117599  14.387   3.550   7.085
38589SOL    HW217600  14.276   3.648   7.051
38590SOL     OW17601   0.062   1.639   8.695
38590SOL    HW117602   0.049   1.730   8.719
38590SOL    HW217603   0.126   1.641   8.625
38591SOL     OW17604   0.323  14.088  11.486
38591SOL    HW117605   0.399  14.029  11.490
38591SOL    HW217606   0.327  14.125  11.398
38592SOL     OW17607  10.626   9.656   7.259
38592SOL    HW117608  10.637   9.687   7.349
38592SOL    HW217609  10.664   9.568   7.259
38593SOL     OW17610  13.438   9.950   5.287
38593SOL    HW117611  13.354   9.945   5.332
38593SOL    HW217612  13.466  10.041   5.297
38594SOL     OW17613  12.741   8.152  14.259
38594SOL    HW117614  12.702   8.238  14.242
38594SOL    HW217615  12.802   8.138  14.185
38595SOL     OW17616  11.919   8.789   5.935
38595SOL    HW117617  11.971   8.710   5.952
38595SOL    HW217618  11.965   8.833   5.864
38596SOL     OW17619  12.115   1.522  10.029
38596SOL    HW117620  12.046   1.494   9.969
38596SOL    HW217621  12.172   1.446  10.037
38597SOL     OW17622  14.564   5.650   9.063
38597SOL    HW117623  14.524   5.732   9.035
38597SOL    HW217624  14.657   5.659   9.038
38598SOL     OW17625   0.203  14.673   8.535
38598SOL    HW117626   0.263  14.617   8.485
38598SOL    HW217627   0.201  14.634   8.622
38599SOL     OW17628   2.055   4.899  11.101
38599SOL    HW117629   2.068   4.855  11.017
38599SOL    HW217630   2.032   4.989  11.078
38600SOL     OW17631  10.467   3.451   4.256
38600SOL    HW117632  10.501   3.536   4.229
38600SOL    HW217633  10.534   3.415   4.314
38601SOL     OW17634   7.217   4.446   7.010
38601SOL    HW117635   7.136   4.481   6.974
38601SOL    HW217636   7.243   4.509   7.077
38602SOL     OW17637  10.932  10.096   5.429
38602SOL    HW117638  10.855  10.050   5.464
38602SOL    HW217639  11.007  10.048   5.463
38603SOL     OW17640   8.923   8.232  12.142
38603SOL    HW117641   8.860   8.201  12.077
38603SOL    HW217642   8.907   8.177  12.219
38604SOL     OW17643   6.916   1.620   5.819
38604SOL    HW117644   6.982   1.562   5.858
38604SOL    HW217645   6.894   1.578   5.736
38605SOL     OW17646   9.027   4.527  12.545
38605SOL    HW117647   9.112   4.483  12.543
38605SOL    HW217648   8.988   4.499  12.628
38606SOL     OW17649   3.845   4.879  12.628
38606SOL    HW117650   3.896   4.937  12.684
38606SOL    HW217651   3.764   4.927  12.611
38607SOL     OW17652   5.568  13.996   0.907
38607SOL    HW117653   5.660  14.021   0.912
38607SOL    HW217654   5.560  13.920   0.965
38608SOL     OW17655   7.901   7.180  12.139
38608SOL    HW117656   7.899   7.114  12.070
38608SOL    HW217657   7.869   7.134  12.217
38609SOL     OW17658  13.318  11.971   9.342
38609SOL    HW117659  13.294  11.931   9.426
38609SOL    HW217660  13.295  12.064   9.353
38610SOL     OW17661  11.211  12.832   0.310
38610SOL    HW117662  11.257  12.875   0.237
38610SOL    HW217663  11.278  12.821   0.377
38611SOL     OW17664   8.996   1.255   2.480
38611SOL    HW117665   8.991   1.244   2.385
38611SOL    HW217666   9.078   1.302   2.495
38612SOL     OW17667   9.847   1.400  12.891
38612SOL    HW117668   9.820   1.349  12.968
38612SOL    HW217669   9.942   1.408  12.900
38613SOL     OW17670   3.897   8.345   4.889
38613SOL    HW117671   3.863   8.269   4.936
38613SOL    HW217672   3.820   8.401   4.874
38614SOL     OW17673   4.420   1.248   4.767
38614SOL    HW117674   4.387   1.172   4.720
38614SOL    HW217675   4.515   1.236   4.770
38615SOL     OW17676   8.966   2.720  13.009
38615SOL    HW117677   8.965   2.661  12.933
38615SOL    HW217678   8.982   2.662  13.084
38616SOL     OW17679   0.557  11.095  11.764
38616SOL    HW117680   0.528  11.176  11.806
38616SOL    HW217681   0.484  11.035  11.772
38617SOL     OW17682   2.125  10.686  11.378
38617SOL    HW117683   2.105  10.627  11.305
38617SOL    HW217684   2.064  10.660  11.447
38618SOL     OW17685   4.370  11.709   2.976
38618SOL    HW117686   4.331  11.788   3.014
38618SOL    HW217687   4.296  11.663   2.936
38619SOL     OW17688   4.080   7.729   6.139
38619SOL    HW117689   4.120   7.673   6.072
38619SOL    HW217690   4.138   7.805   6.143
38620SOL     OW17691  13.504  13.742   8.559
38620SOL    HW117692  13.505  13.759   8.465
38620SOL    HW217693  13.464  13.656   8.567
38621SOL     OW17694  12.026   1.304  10.310
38621SOL    HW117695  12.043   1.396  10.330
38621SOL    HW217696  12.063   1.256  10.384
38622SOL     OW17697   7.090  10.949  12.119
38622SOL    HW117698   7.114  10.972  12.208
38622SOL    HW217699   7.038  11.024  12.088
38623SOL     OW17700   4.791  11.121   6.234
38623SOL    HW117701   4.766  11.209   6.261
38623SOL    HW217702   4.855  11.134   6.164
38624SOL     OW17703  13.014  10.102  14.192
38624SOL    HW117704  13.036  10.191  14.165
38624SOL    HW217705  12.918  10.102  14.199
38625SOL     OW17706   4.893   7.653  10.604
38625SOL    HW117707   4.846   7.655  10.688
38625SOL    HW217708   4.969   7.709  10.618
38626SOL     OW17709  14.495  12.614   3.194
38626SOL    HW117710  14.549  12.545   3.157
38626SOL    HW217711  14.505  12.606   3.289
38627SOL     OW17712   2.383   5.150   0.485
38627SOL    HW117713   2.432   5.090   0.542
38627SOL    HW217714   2.433   5.152   0.404
38628SOL     OW17715   1.144   3.008   0.433
38628SOL    HW117716   1.164   3.101   0.438
38628SOL    HW217717   1.171   2.983   0.344
38629SOL     OW17718  14.135  10.805   7.583
38629SOL    HW117719  14.137  10.869   7.512
38629SOL    HW217720  14.160  10.722   7.542
38630SOL     OW17721   7.602  10.060   2.858
38630SOL    HW117722   7.689  10.085   2.891
38630SOL    HW217723   7.580   9.981   2.908
38631SOL     OW17724   9.205   6.262   0.627
38631SOL    HW117725   9.164   6.341   0.664
38631SOL    HW217726   9.186   6.194   0.692
38632SOL     OW17727   3.168   0.404  12.563
38632SOL    HW117728   3.212   0.321  12.546
38632SOL    HW217729   3.181   0.420  12.657
38633SOL     OW17730  13.111  10.131  12.573
38633SOL    HW117731  13.163  10.053  12.590
38633SOL    HW217732  13.119  10.182  12.654
38634SOL     OW17733   1.913  10.363  11.284
38634SOL    HW117734   1.962  10.435  11.245
38634SOL    HW217735   1.844  10.343  11.220
38635SOL     OW17736   6.765  11.783   7.206
38635SOL    HW117737   6.849  11.820   7.232
38635SOL    HW217738   6.759  11.701   7.256
38636SOL     OW17739   9.736   9.781  11.974
38636SOL    HW117740   9.773   9.868  11.990
38636SOL    HW217741   9.812   9.722  11.977
38637SOL     OW17742   3.414   9.234  14.862
38637SOL    HW117743   3.428   9.293  14.787
38637SOL    HW217744   3.423   9.291   0.066
38638SOL     OW17745   5.636  14.371   8.834
38638SOL    HW117746   5.551  14.328   8.838
38638SOL    HW217747   5.619  14.462   8.860
38639SOL     OW17748  10.045   1.528   2.912
38639SOL    HW117749  10.060   1.511   3.005
38639SOL    HW217750  10.133   1.535   2.874
38640SOL     OW17751  13.217   0.515   2.075
38640SOL    HW117752  13.246   0.431   2.039
38640SOL    HW217753  13.153   0.492   2.142
38641SOL     OW17754   0.670   3.150   3.262
38641SOL    HW117755   0.631   3.237   3.248
38641SOL    HW217756   0.677   3.113   3.174
38642SOL     OW17757   5.248   1.479   6.220
38642SOL    HW117758   5.255   1.414   6.150
38642SOL    HW217759   5.241   1.427   6.300
38643SOL     OW17760  10.552  11.675   4.353
38643SOL    HW117761  10.570  11.634   4.268
38643SOL    HW217762  10.489  11.744   4.333
38644SOL     OW17763   8.313   2.117   7.999
38644SOL    HW117764   8.221   2.136   7.980
38644SOL    HW217765   8.322   2.134   8.093
38645SOL     OW17766   6.250   7.928   5.144
38645SOL    HW117767   6.334   7.885   5.128
38645SOL    HW217768   6.220   7.955   5.058
38646SOL     OW17769   9.660   2.170   6.775
38646SOL    HW117770   9.724   2.211   6.717
38646SOL    HW217771   9.575   2.204   6.746
38647SOL     OW17772   4.062   5.266   7.336
38647SOL    HW117773   3.997   5.319   7.381
38647SOL    HW217774   4.110   5.327   7.281
38648SOL     OW17775   8.990  13.446   8.145
38648SOL    HW117776   8.946  13.454   8.229
38648SOL    HW217777   8.963  13.361   8.111
38649SOL     OW17778   1.373   4.395  10.600
38649SOL    HW117779   1.385   4.480  10.642
38649SOL    HW217780   1.359   4.416  10.508
38650SOL     OW17781   5.464   3.894   6.962
38650SOL    HW117782   5.391   3.955   6.968
38650SOL    HW217783   5.486   3.873   7.053
38651SOL     OW17784  11.685   5.078  12.310
38651SOL    HW117785  11.611   5.081  12.250
38651SOL    HW217786  11.745   5.015  12.270
38652SOL     OW17787   2.762  11.973   8.495
38652SOL    HW117788   2.696  11.977   8.565
38652SOL    HW217789   2.845  11.990   8.540
38653SOL     OW17790  14.204   1.842   8.396
38653SOL    HW117791  14.191   1.802   8.310
38653SOL    HW217792  14.254   1.778   8.445
38654SOL     OW17793   3.521   9.859   4.951
38654SOL    HW117794   3.441   9.857   5.005
38654SOL    HW217795   3.516   9.942   4.905
38655SOL     OW17796   2.437  10.436  12.526
38655SOL    HW117797   2.406  10.346  12.534
38655SOL    HW217798   2.517  10.438  12.578
38656SOL     OW17799  13.792  11.725   2.821
38656SOL    HW117800  13.822  11.761   2.904
38656SOL    HW217801  13.873  11.700   2.776
38657SOL     OW17802   7.374   3.362   0.089
38657SOL    HW117803   7.334   3.287   0.045
38657SOL    HW217804   7.338   3.358   0.178
38658SOL     OW17805   2.934   3.087   5.605
38658SOL    HW117806   3.006   3.029   5.630
38658SOL    HW217807   2.930   3.080   5.510
38659SOL     OW17808   7.846  13.590  10.340
38659SOL    HW117809   7.899  13.571  10.418
38659SOL    HW217810   7.813  13.504  10.312
38660SOL     OW17811  11.092  14.236  13.950
38660SOL    HW117812  11.135  14.175  13.890
38660SOL    HW217813  11.155  14.307  13.961
38661SOL     OW17814   5.327  13.888  14.481
38661SOL    HW117815   5.242  13.851  14.504
38661SOL    HW217816   5.314  13.983  14.482
38662SOL     OW17817   0.968   9.073  12.773
38662SOL    HW117818   1.051   9.076  12.820
38662SOL    HW217819   0.902   9.084  12.841
38663SOL     OW17820  13.621   5.565   9.614
38663SOL    HW117821  13.618   5.556   9.709
38663SOL    HW217822  13.592   5.480   9.581
38664SOL     OW17823   9.604   8.787   4.160
38664SOL    HW117824   9.663   8.846   4.206
38664SOL    HW217825   9.535   8.844   4.126
38665SOL     OW17826   3.824  13.917   8.392
38665SOL    HW117827   3.880  13.994   8.387
38665SOL    HW217828   3.812  13.889   8.301
38666SOL     OW17829  10.188  14.257  10.762
38666SOL    HW117830  10.282  14.263  10.747
38666SOL    HW217831  10.160  14.348  10.776
38667SOL     OW17832   4.212  14.365  12.370
38667SOL    HW117833   4.238  14.356  12.461
38667SOL    HW217834   4.272  14.431  12.334
38668SOL     OW17835   4.566  12.271   4.508
38668SOL    HW117836   4.493  12.213   4.485
38668SOL    HW217837   4.524  12.346   4.550
38669SOL     OW17838   0.178  13.716   6.580
38669SOL    HW117839   0.258  13.666   6.599
38669SOL    HW217840   0.171  13.778   6.652
38670SOL     OW17841   1.451  14.360   1.458
38670SOL    HW117842   1.510  14.380   1.385
38670SOL    HW217843   1.492  14.402   1.533
38671SOL     OW17844   1.166  12.781  10.761
38671SOL    HW117845   1.196  12.721  10.692
38671SOL    HW217846   1.244  12.831  10.785
38672SOL     OW17847  14.587  11.877  11.254
38672SOL    HW117848  14.593  11.857  11.160
38672SOL    HW217849  14.538  11.960  11.258
38673SOL     OW17850   8.285   8.229   0.863
38673SOL    HW117851   8.245   8.161   0.918
38673SOL    HW217852   8.261   8.311   0.905
38674SOL     OW17853   2.572   7.611   4.181
38674SOL    HW117854   2.521   7.532   4.195
38674SOL    HW217855   2.507   7.681   4.171
38675SOL     OW17856  12.814  14.577   8.462
38675SOL    HW117857  12.896  14.534   8.441
38675SOL    HW217858  12.751  14.542   8.399
38676SOL     OW17859   3.410   5.511   9.837
38676SOL    HW117860   3.341   5.455   9.873
38676SOL    HW217861   3.382   5.600   9.856
38677SOL     OW17862   5.269  13.057  14.208
38677SOL    HW117863   5.339  12.993  14.217
38677SOL    HW217864   5.214  13.023  14.137
38678SOL     OW17865   5.010   1.102  14.373
38678SOL    HW117866   4.997   1.173  14.310
38678SOL    HW217867   4.934   1.106  14.430
38679SOL     OW17868  10.219  10.290   7.820
38679SOL    HW117869  10.268  10.247   7.749
38679SOL    HW217870  10.128  10.263   7.805
38680SOL     OW17871  13.453  11.528   5.546
38680SOL    HW117872  13.483  11.574   5.468
38680SOL    HW217873  13.366  11.495   5.522
38681SOL     OW17874   8.239  13.391   7.647
38681SOL    HW117875   8.156  13.407   7.603
38681SOL    HW217876   8.215  13.348   7.730
38682SOL     OW17877   2.116   3.801  13.835
38682SOL    HW117878   2.029   3.789  13.797
38682SOL    HW217879   2.113   3.888  13.876
38683SOL     OW17880  11.127   7.956   9.272
38683SOL    HW117881  11.128   7.891   9.202
38683SOL    HW217882  11.200   7.930   9.329
38684SOL     OW17883   2.824   1.411  13.972
38684SOL    HW117884   2.913   1.406  14.007
38684SOL    HW217885   2.792   1.496  14.001
38685SOL     OW17886   9.337   7.105  12.825
38685SOL    HW117887   9.292   7.061  12.897
38685SOL    HW217888   9.268   7.148  12.775
38686SOL     OW17889   4.333   3.049  10.897
38686SOL    HW117890   4.392   3.124  10.885
38686SOL    HW217891   4.317   3.017  10.808
38687SOL     OW17892   7.268   9.545  11.987
38687SOL    HW117893   7.343   9.486  11.979
38687SOL    HW217894   7.258   9.560  12.081
38688SOL     OW17895  13.272   6.286  10.719
38688SOL    HW117896  13.289   6.301  10.812
38688SOL    HW217897  13.236   6.368  10.686
38689SOL     OW17898  11.329  12.149   7.491
38689SOL    HW117899  11.250  12.179   7.538
38689SOL    HW217900  11.398  12.151   7.557
38690SOL     OW17901  12.165   1.328  13.094
38690SOL    HW117902  12.256   1.351  13.115
38690SOL    HW217903  12.112   1.384  13.151
38691SOL     OW17904   4.846   4.227  11.892
38691SOL    HW117905   4.824   4.166  11.963
38691SOL    HW217906   4.809   4.186  11.814
38692SOL     OW17907   4.044  11.421   1.280
38692SOL    HW117908   3.966  11.384   1.237
38692SOL    HW217909   4.052  11.371   1.361
38693SOL     OW17910   8.012  10.284   0.016
38693SOL    HW117911   8.026  10.210   0.075
38693SOL    HW217912   8.100  10.320   0.002
38694SOL     OW17913   5.000   4.102   2.978
38694SOL    HW117914   5.017   4.187   3.017
38694SOL    HW217915   5.047   4.104   2.894
38695SOL     OW17916  10.132   1.345   8.245
38695SOL    HW117917  10.165   1.266   8.202
38695SOL    HW217918  10.039   1.346   8.225
38696SOL     OW17919  14.473  11.756  12.594
38696SOL    HW117920  14.506  11.757  12.684
38696SOL    HW217921  14.544  11.717  12.542
38697SOL     OW17922   5.860   5.329   2.228
38697SOL    HW117923   5.939   5.276   2.226
38697SOL    HW217924   5.826   5.320   2.317
38698SOL     OW17925  12.818  12.178   1.229
38698SOL    HW117926  12.788  12.249   1.173
38698SOL    HW217927  12.785  12.099   1.187
38699SOL     OW17928  14.387   2.779   1.681
38699SOL    HW117929  14.390   2.746   1.771
38699SOL    HW217930  14.296   2.805   1.668
38700SOL     OW17931  14.602  11.005  12.335
38700SOL    HW117932  14.676  10.972  12.283
38700SOL    HW217933  14.549  11.053  12.272
38701SOL     OW17934   9.331  12.310  12.490
38701SOL    HW117935   9.376  12.314  12.574
38701SOL    HW217936   9.399  12.327  12.425
38702SOL     OW17937   6.090  12.638   1.439
38702SOL    HW117938   6.009  12.638   1.491
38702SOL    HW217939   6.150  12.693   1.490
38703SOL     OW17940   9.059  12.979  13.239
38703SOL    HW117941   9.081  13.068  13.212
38703SOL    HW217942   8.970  12.985  13.274
38704SOL     OW17943  11.841   3.227   7.354
38704SOL    HW117944  11.826   3.231   7.448
38704SOL    HW217945  11.936   3.218   7.345
38705SOL     OW17946   5.622   2.909   2.542
38705SOL    HW117947   5.544   2.865   2.576
38705SOL    HW217948   5.640   2.979   2.605
38706SOL     OW17949  11.796   3.104  10.376
38706SOL    HW117950  11.840   3.102  10.461
38706SOL    HW217951  11.864   3.083  10.312
38707SOL     OW17952   9.226  11.758   8.389
38707SOL    HW117953   9.321  11.759   8.377
38707SOL    HW217954   9.208  11.669   8.421
38708SOL     OW17955   2.822  12.577   9.887
38708SOL    HW117956   2.807  12.540   9.800
38708SOL    HW217957   2.756  12.645   9.896
38709SOL     OW17958   9.610   3.101   2.882
38709SOL    HW117959   9.696   3.061   2.895
38709SOL    HW217960   9.554   3.060   2.947
38710SOL     OW17961   7.222  12.558   9.974
38710SOL    HW117962   7.260  12.532   9.890
38710SOL    HW217963   7.138  12.512   9.978
38711SOL     OW17964   0.160   4.575   4.033
38711SOL    HW117965   0.078   4.530   4.014
38711SOL    HW217966   0.135   4.663   4.059
38712SOL     OW17967   6.775  11.934   0.937
38712SOL    HW117968   6.802  11.842   0.930
38712SOL    HW217969   6.748  11.958   0.849
38713SOL     OW17970  12.127   4.736   7.983
38713SOL    HW117971  12.093   4.744   7.894
38713SOL    HW217972  12.220   4.759   7.976
38714SOL     OW17973  13.257  14.140   3.751
38714SOL    HW117974  13.258  14.216   3.809
38714SOL    HW217975  13.165  14.128   3.729
38715SOL     OW17976   5.011   8.871  10.419
38715SOL    HW117977   5.076   8.941  10.417
38715SOL    HW217978   4.929   8.913  10.390
38716SOL     OW17979   3.760  11.891   8.283
38716SOL    HW117980   3.806  11.905   8.200
38716SOL    HW217981   3.676  11.935   8.271
38717SOL     OW17982   3.290   1.314   9.447
38717SOL    HW117983   3.358   1.252   9.477
38717SOL    HW217984   3.327   1.400   9.468
38718SOL     OW17985  13.419  11.712   4.752
38718SOL    HW117986  13.389  11.625   4.777
38718SOL    HW217987  13.369  11.772   4.807
38719SOL     OW17988   6.905   6.411   1.467
38719SOL    HW117989   6.898   6.501   1.497
38719SOL    HW217990   6.924   6.419   1.373
38720SOL     OW17991   6.069  12.749  10.353
38720SOL    HW117992   6.150  12.781  10.394
38720SOL    HW217993   6.086  12.656  10.337
38721SOL     OW17994   4.787  14.065   7.493
38721SOL    HW117995   4.857  14.000   7.484
38721SOL    HW217996   4.790  14.091   7.584
38722SOL     OW17997  14.475  12.549   1.806
38722SOL    HW117998  14.519  12.512   1.883
38722SOL    HW217999  14.478  12.480   1.740
38723SOL     OW18000   2.922   9.615  12.213
38723SOL    HW118001   2.863   9.540  12.222
38723SOL    HW218002   2.868   9.683  12.174
38724SOL     OW18003   2.080   0.218   5.969
38724SOL    HW118004   2.084   0.145   5.907
38724SOL    HW218005   2.098   0.178   6.054
38725SOL     OW18006   1.277  14.193   2.373
38725SOL    HW118007   1.185  14.184   2.396
38725SOL    HW218008   1.323  14.132   2.430
38726SOL     OW18009  13.220   7.782   9.850
38726SOL    HW118010  13.257   7.789   9.762
38726SOL    HW218011  13.287   7.819   9.907
38727SOL     OW18012   7.850   7.561   9.904
38727SOL    HW118013   7.864   7.489   9.843
38727SOL    HW218014   7.877   7.526   9.989
38728SOL     OW18015   0.516   0.221  14.668
38728SOL    HW118016   0.538   0.145  14.722
38728SOL    HW218017   0.475   0.283  14.728
38729SOL     OW18018   1.519   8.965   9.660
38729SOL    HW118019   1.535   8.875   9.688
38729SOL    HW218020   1.424   8.975   9.664
38730SOL     OW18021   8.529  10.518   9.112
38730SOL    HW118022   8.611  10.529   9.160
38730SOL    HW218023   8.462  10.552   9.172
38731SOL     OW18024   0.196   3.482   7.061
38731SOL    HW118025   0.127   3.473   6.996
38731SOL    HW218026   0.254   3.407   7.045
38732SOL     OW18027   8.704   7.306   5.169
38732SOL    HW118028   8.679   7.398   5.179
38732SOL    HW218029   8.631   7.267   5.121
38733SOL     OW18030   8.332   7.942   6.963
38733SOL    HW118031   8.279   8.021   6.972
38733SOL    HW218032   8.423   7.973   6.972
38734SOL     OW18033  12.834   1.958   0.928
38734SOL    HW118034  12.750   1.998   0.907
38734SOL    HW218035  12.855   1.904   0.851
38735SOL     OW18036   3.837  11.965   6.986
38735SOL    HW118037   3.750  11.987   6.952
38735SOL    HW218038   3.895  11.975   6.910
38736SOL     OW18039   3.125  11.204  13.853
38736SOL    HW118040   3.107  11.164  13.768
38736SOL    HW218041   3.110  11.297  13.839
38737SOL     OW18042   4.657   1.353   9.326
38737SOL    HW118043   4.656   1.447   9.308
38737SOL    HW218044   4.745   1.325   9.304
38738SOL     OW18045   1.773  10.564   8.513
38738SOL    HW118046   1.736  10.477   8.503
38738SOL    HW218047   1.864  10.556   8.483
38739SOL     OW18048   8.200  13.487   2.793
38739SOL    HW118049   8.149  13.410   2.819
38739SOL    HW218050   8.166  13.557   2.848
38740SOL     OW18051  11.003   6.348  12.012
38740SOL    HW118052  10.959   6.408  11.950
38740SOL    HW218053  10.933   6.318  12.070
38741SOL     OW18054  14.495   3.979   3.312
38741SOL    HW118055  14.477   4.071   3.295
38741SOL    HW218056  14.447   3.959   3.392
38742SOL     OW18057   5.148   1.337  13.108
38742SOL    HW118058   5.107   1.351  13.194
38742SOL    HW218059   5.213   1.268  13.124
38743SOL     OW18060   5.460   6.013  14.502
38743SOL    HW118061   5.397   5.985  14.569
38743SOL    HW218062   5.529   6.057  14.551
38744SOL     OW18063   9.877   8.834   4.553
38744SOL    HW118064   9.851   8.757   4.603
38744SOL    HW218065   9.804   8.895   4.564
38745SOL     OW18066  14.427   3.688   5.815
38745SOL    HW118067  14.375   3.762   5.846
38745SOL    HW218068  14.425   3.696   5.719
38746SOL     OW18069   5.406   6.687   4.715
38746SOL    HW118070   5.399   6.756   4.649
38746SOL    HW218071   5.402   6.733   4.799
38747SOL     OW18072  11.674   2.802   8.940
38747SOL    HW118073  11.629   2.734   8.991
38747SOL    HW218074  11.622   2.809   8.860
38748SOL     OW18075  10.926   2.820  10.492
38748SOL    HW118076  10.955   2.735  10.458
38748SOL    HW218077  10.908   2.803  10.585
38749SOL     OW18078   5.470   9.778   1.413
38749SOL    HW118079   5.413   9.847   1.445
38749SOL    HW218080   5.558   9.801   1.445
38750SOL     OW18081   1.980  11.670  12.759
38750SOL    HW118082   1.942  11.758  12.760
38750SOL    HW218083   1.917  11.617  12.709
38751SOL     OW18084  12.473  14.484  14.068
38751SOL    HW118085  12.435  14.514  13.985
38751SOL    HW218086  12.567  14.498  14.057
38752SOL     OW18087   7.952   0.051  12.250
38752SOL    HW118088   8.021   0.078  12.311
38752SOL    HW218089   7.997   0.035  12.168
38753SOL     OW18090   4.720   2.515  14.197
38753SOL    HW118091   4.784   2.449  14.168
38753SOL    HW218092   4.681   2.548  14.116
38754SOL     OW18093   6.478  12.018  11.823
38754SOL    HW118094   6.394  11.987  11.855
38754SOL    HW218095   6.468  12.023  11.728
38755SOL     OW18096   7.713   1.230   9.972
38755SOL    HW118097   7.797   1.236   9.927
38755SOL    HW218098   7.735   1.209  10.063
38756SOL     OW18099  11.690   4.967   1.897
38756SOL    HW118100  11.762   5.030   1.906
38756SOL    HW218101  11.726   4.898   1.841
38757SOL     OW18102  11.488  12.872   9.059
38757SOL    HW118103  11.421  12.859   8.992
38757SOL    HW218104  11.474  12.962   9.090
38758SOL     OW18105  11.637  10.092   3.148
38758SOL    HW118106  11.560  10.143   3.124
38758SOL    HW218107  11.642  10.100   3.243
38759SOL     OW18108   6.840   2.202   1.586
38759SOL    HW118109   6.788   2.270   1.630
38759SOL    HW218110   6.930   2.232   1.596
38760SOL     OW18111  11.463  12.306   2.156
38760SOL    HW118112  11.453  12.220   2.117
38760SOL    HW218113  11.413  12.365   2.099
38761SOL     OW18114   3.587  12.986   4.392
38761SOL    HW118115   3.503  12.975   4.348
38761SOL    HW218116   3.587  12.918   4.460
38762SOL     OW18117   1.712   5.767  10.978
38762SOL    HW118118   1.706   5.819  10.898
38762SOL    HW218119   1.753   5.826  11.041
38763SOL     OW18120  14.814   0.802   1.735
38763SOL    HW118121  14.783   0.771   1.820
38763SOL    HW218122   0.023   0.850   1.754
38764SOL     OW18123   5.027  10.310  11.662
38764SOL    HW118124   4.945  10.327  11.707
38764SOL    HW218125   5.043  10.389  11.610
38765SOL     OW18126  11.335   6.576   2.825
38765SOL    HW118127  11.281   6.618   2.759
38765SOL    HW218128  11.360   6.647   2.885
38766SOL     OW18129   8.379   3.993   5.426
38766SOL    HW118130   8.425   4.061   5.378
38766SOL    HW218131   8.345   4.037   5.504
38767SOL     OW18132  13.059   3.139   7.859
38767SOL    HW118133  13.149   3.173   7.854
38767SOL    HW218134  13.023   3.177   7.939
38768SOL     OW18135  12.737  11.666   1.919
38768SOL    HW118136  12.810  11.691   1.976
38768SOL    HW218137  12.679  11.742   1.921
38769SOL     OW18138   8.119   0.241   0.066
38769SOL    HW118139   8.153   0.198  14.860
38769SOL    HW218140   8.145   0.183   0.138
38770SOL     OW18141  14.692  13.152   8.863
38770SOL    HW118142  14.673  13.084   8.927
38770SOL    HW218143  14.615  13.209   8.865
38771SOL     OW18144   7.576   2.702   2.782
38771SOL    HW118145   7.629   2.696   2.861
38771SOL    HW218146   7.630   2.659   2.715
38772SOL     OW18147   9.178  11.657  10.063
38772SOL    HW118148   9.115  11.587  10.080
38772SOL    HW218149   9.124  11.733  10.042
38773SOL     OW18150   8.693   4.863   9.132
38773SOL    HW118151   8.692   4.871   9.036
38773SOL    HW218152   8.775   4.903   9.159
38774SOL     OW18153   1.201   4.345   0.396
38774SOL    HW118154   1.260   4.309   0.462
38774SOL    HW218155   1.215   4.291   0.319
38775SOL     OW18156  11.869   7.643  11.968
38775SOL    HW118157  11.799   7.638  12.033
38775SOL    HW218158  11.939   7.588  12.004
38776SOL     OW18159   1.283   3.154   2.874
38776SOL    HW118160   1.208   3.209   2.895
38776SOL    HW218161   1.291   3.161   2.778
38777SOL     OW18162  12.803  14.026   3.040
38777SOL    HW118163  12.860  13.966   2.992
38777SOL    HW218164  12.797  14.103   2.983
38778SOL     OW18165   9.424  11.437   3.903
38778SOL    HW118166   9.471  11.489   3.838
38778SOL    HW218167   9.462  11.463   3.987
38779SOL     OW18168   6.679   8.043   0.267
38779SOL    HW118169   6.625   7.968   0.294
38779SOL    HW218170   6.747   8.048   0.335
38780SOL     OW18171   0.949   8.419   3.234
38780SOL    HW118172   0.957   8.514   3.246
38780SOL    HW218173   0.938   8.384   3.323
38781SOL     OW18174  11.848   7.253   4.816
38781SOL    HW118175  11.821   7.279   4.728
38781SOL    HW218176  11.922   7.310   4.837
38782SOL     OW18177   7.787  14.405  11.035
38782SOL    HW118178   7.800  14.476  11.098
38782SOL    HW218179   7.723  14.439  10.974
38783SOL     OW18180   2.013  13.128   5.465
38783SOL    HW118181   2.083  13.182   5.429
38783SOL    HW218182   1.962  13.188   5.519
38784SOL     OW18183  10.590   5.165   8.957
38784SOL    HW118184  10.655   5.225   8.993
38784SOL    HW218185  10.508   5.215   8.958
38785SOL     OW18186   1.360  12.726   3.981
38785SOL    HW118187   1.382  12.744   4.073
38785SOL    HW218188   1.410  12.648   3.959
38786SOL     OW18189   3.312   7.270   5.014
38786SOL    HW118190   3.379   7.308   4.957
38786SOL    HW218191   3.238   7.329   5.006
38787SOL     OW18192   6.072   5.465  10.545
38787SOL    HW118193   6.101   5.535  10.603
38787SOL    HW218194   6.151   5.412  10.529
38788SOL     OW18195   7.830   4.292   1.292
38788SOL    HW118196   7.854   4.384   1.303
38788SOL    HW218197   7.911   4.244   1.308
38789SOL     OW18198  12.775   7.027   4.976
38789SOL    HW118199  12.864   6.994   4.986
38789SOL    HW218200  12.729   6.958   4.928
38790SOL     OW18201  10.057  10.206   2.037
38790SOL    HW118202  10.138  10.218   2.087
38790SOL    HW218203  10.075  10.130   1.981
38791SOL     OW18204  13.978   6.832   6.947
38791SOL    HW118205  14.066   6.832   6.985
38791SOL    HW218206  13.947   6.921   6.958
38792SOL     OW18207  11.852   4.492   0.044
38792SOL    HW118208  11.849   4.487   0.139
38792SOL    HW218209  11.769   4.534   0.020
38793SOL     OW18210   9.678  11.046   8.814
38793SOL    HW118211   9.762  11.082   8.842
38793SOL    HW218212   9.648  10.993   8.887
38794SOL     OW18213   3.942  14.003   3.770
38794SOL    HW118214   3.906  14.091   3.763
38794SOL    HW218215   3.867  13.945   3.762
38795SOL     OW18216   3.270   8.467   2.338
38795SOL    HW118217   3.278   8.482   2.244
38795SOL    HW218218   3.323   8.536   2.379
38796SOL     OW18219  13.747   6.688   4.007
38796SOL    HW118220  13.711   6.679   4.095
38796SOL    HW218221  13.711   6.770   3.974
38797SOL     OW18222   5.087   4.221   4.548
38797SOL    HW118223   5.080   4.313   4.524
38797SOL    HW218224   5.041   4.214   4.631
38798SOL     OW18225   4.561   1.630   0.643
38798SOL    HW118226   4.565   1.549   0.593
38798SOL    HW218227   4.648   1.669   0.632
38799SOL     OW18228   9.533   3.076   5.954
38799SOL    HW118229   9.441   3.057   5.937
38799SOL    HW218230   9.540   3.079   6.049
38800SOL     OW18231   7.448   5.832   3.112
38800SOL    HW118232   7.459   5.797   3.201
38800SOL    HW218233   7.358   5.862   3.109
38801SOL     OW18234  12.745   6.171   7.543
38801SOL    HW118235  12.762   6.128   7.627
38801SOL    HW218236  12.830   6.174   7.500
38802SOL     OW18237   2.212   2.755   0.282
38802SOL    HW118238   2.245   2.844   0.269
38802SOL    HW218239   2.290   2.702   0.293
38803SOL     OW18240   9.231  13.315   8.290
38803SOL    HW118241   9.192  13.310   8.202
38803SOL    HW218242   9.210  13.403   8.320
38804SOL     OW18243   8.873  12.051   6.426
38804SOL    HW118244   8.809  12.121   6.426
38804SOL    HW218245   8.953  12.090   6.391
38805SOL     OW18246  12.068  12.707   3.342
38805SOL    HW118247  12.028  12.708   3.429
38805SOL    HW218248  12.091  12.799   3.325
38806SOL     OW18249  12.061   8.464  11.776
38806SOL    HW118250  12.025   8.489  11.861
38806SOL    HW218251  12.124   8.533  11.756
38807SOL     OW18252   3.444   6.041   9.388
38807SOL    HW118253   3.467   6.069   9.299
38807SOL    HW218254   3.387   6.110   9.420
38808SOL     OW18255   5.948   2.216   4.969
38808SOL    HW118256   5.987   2.170   4.894
38808SOL    HW218257   5.995   2.300   4.973
38809SOL     OW18258   8.440   8.449   0.580
38809SOL    HW118259   8.506   8.502   0.625
38809SOL    HW218260   8.491   8.384   0.531
38810SOL     OW18261   7.335   3.534   6.454
38810SOL    HW118262   7.282   3.457   6.429
38810SOL    HW218263   7.397   3.500   6.519
38811SOL     OW18264   9.199   3.583  12.562
38811SOL    HW118265   9.259   3.539  12.622
38811SOL    HW218266   9.251   3.596  12.482
38812SOL     OW18267  14.851   2.081  12.745
38812SOL    HW118268   0.037   2.087  12.821
38812SOL    HW218269   0.038   2.074  12.670
38813SOL     OW18270   7.953  11.182   4.329
38813SOL    HW118271   8.046  11.187   4.305
38813SOL    HW218272   7.953  11.175   4.424
38814SOL     OW18273   1.372   1.986   8.592
38814SOL    HW118274   1.444   2.031   8.637
38814SOL    HW218275   1.399   1.983   8.500
38815SOL     OW18276   6.755  10.913   0.811
38815SOL    HW118277   6.775  10.996   0.855
38815SOL    HW218278   6.825  10.854   0.838
38816SOL     OW18279   0.103  14.839   2.162
38816SOL    HW118280   0.139  14.755   2.190
38816SOL    HW218281   0.123  14.843   2.068
38817SOL     OW18282   4.937  13.902  12.228
38817SOL    HW118283   4.926  13.996  12.212
38817SOL    HW218284   5.028  13.884  12.207
38818SOL     OW18285   4.385  10.494   1.420
38818SOL    HW118286   4.319  10.425   1.427
38818SOL    HW218287   4.447  10.461   1.355
38819SOL     OW18288  13.255   0.300   0.880
38819SOL    HW118289  13.334   0.308   0.934
38819SOL    HW218290  13.193   0.362   0.918
38820SOL     OW18291   9.298  14.857  10.497
38820SOL    HW118292   9.298   0.071  10.455
38820SOL    HW218293   9.274   0.002  10.588
38821SOL     OW18294   0.183   7.783  14.280
38821SOL    HW118295   0.146   7.793  14.368
38821SOL    HW218296   0.226   7.866  14.262
38822SOL     OW18297   0.913  14.081  12.891
38822SOL    HW118298   0.885  14.109  12.804
38822SOL    HW218299   0.963  14.000  12.876
38823SOL     OW18300   5.368   1.703   5.433
38823SOL    HW118301   5.446   1.652   5.414
38823SOL    HW218302   5.399   1.774   5.490
38824SOL     OW18303   1.803   1.220   1.042
38824SOL    HW118304   1.856   1.162   0.988
38824SOL    HW218305   1.827   1.198   1.132
38825SOL     OW18306   1.486   9.117   6.649
38825SOL    HW118307   1.503   9.051   6.716
38825SOL    HW218308   1.560   9.178   6.655
38826SOL     OW18309  10.253   5.764  14.348
38826SOL    HW118310  10.296   5.847  14.370
38826SOL    HW218311  10.196   5.786  14.274
38827SOL     OW18312   2.941   2.377  11.884
38827SOL    HW118313   2.885   2.450  11.908
38827SOL    HW218314   2.986   2.407  11.804
38828SOL     OW18315   6.541   0.580   9.198
38828SOL    HW118316   6.490   0.565   9.119
38828SOL    HW218317   6.549   0.675   9.205
38829SOL     OW18318   3.268   4.928   5.351
38829SOL    HW118319   3.209   4.864   5.310
38829SOL    HW218320   3.294   4.987   5.280
38830SOL     OW18321  11.803   2.641   3.515
38830SOL    HW118322  11.845   2.726   3.525
38830SOL    HW218323  11.712   2.657   3.542
38831SOL     OW18324  12.182   9.548  10.307
38831SOL    HW118325  12.233   9.592  10.239
38831SOL    HW218326  12.169   9.459  10.274
38832SOL     OW18327  12.510   6.332  14.046
38832SOL    HW118328  12.496   6.327  13.952
38832SOL    HW218329  12.587   6.278  14.062
38833SOL     OW18330  11.930   2.918  13.281
38833SOL    HW118331  11.956   3.010  13.276
38833SOL    HW218332  11.879   2.902  13.201
38834SOL     OW18333   4.582   4.278  11.371
38834SOL    HW118334   4.592   4.372  11.361
38834SOL    HW218335   4.542   4.267  11.457
38835SOL     OW18336  10.789  12.025   9.028
38835SOL    HW118337  10.836  12.109   9.026
38835SOL    HW218338  10.697  12.050   9.042
38836SOL     OW18339   2.344   6.973  11.610
38836SOL    HW118340   2.251   6.952  11.603
38836SOL    HW218341   2.369   6.943  11.697
38837SOL     OW18342   0.246   0.193   7.753
38837SOL    HW118343   0.153   0.199   7.733
38837SOL    HW218344   0.250   0.173   7.846
38838SOL     OW18345  13.765   1.630   3.685
38838SOL    HW118346  13.687   1.608   3.634
38838SOL    HW218347  13.808   1.546   3.701
38839SOL     OW18348   4.266   5.351   5.285
38839SOL    HW118349   4.211   5.275   5.305
38839SOL    HW218350   4.350   5.314   5.259
38840SOL     OW18351  10.386   4.091   1.398
38840SOL    HW118352  10.428   4.157   1.342
38840SOL    HW218353  10.296   4.124   1.409
38841SOL     OW18354   3.333   1.941  10.072
38841SOL    HW118355   3.247   1.897  10.072
38841SOL    HW218356   3.312   2.034  10.069
38842SOL     OW18357   1.868  13.789   3.850
38842SOL    HW118358   1.861  13.881   3.824
38842SOL    HW218359   1.957  13.780   3.884
38843SOL     OW18360   2.173   7.477   1.081
38843SOL    HW118361   2.192   7.516   0.995
38843SOL    HW218362   2.080   7.497   1.095
38844SOL     OW18363   3.956  14.704  14.250
38844SOL    HW118364   3.909  14.756  14.315
38844SOL    HW218365   4.000  14.635  14.301
38845SOL     OW18366   9.868   1.973   7.952
38845SOL    HW118367   9.811   2.046   7.932
38845SOL    HW218368   9.952   1.995   7.910
38846SOL     OW18369   5.363   8.761  10.735
38846SOL    HW118370   5.298   8.691  10.737
38846SOL    HW218371   5.339   8.818  10.808
38847SOL     OW18372  10.164   1.533  12.073
38847SOL    HW118373  10.081   1.546  12.119
38847SOL    HW218374  10.203   1.455  12.114
38848SOL     OW18375   8.658   2.123   8.024
38848SOL    HW118376   8.745   2.163   8.034
38848SOL    HW218377   8.600   2.197   8.007
38849SOL     OW18378   9.574   1.449  13.872
38849SOL    HW118379   9.515   1.379  13.900
38849SOL    HW218380   9.658   1.405  13.858
38850SOL     OW18381  10.592  14.044  14.181
38850SOL    HW118382  10.617  14.136  14.190
38850SOL    HW218383  10.589  14.029  14.087
38851SOL     OW18384   9.459   0.140   1.508
38851SOL    HW118385   9.383   0.091   1.477
38851SOL    HW218386   9.422   0.206   1.567
38852SOL     OW18387  13.910  10.747  14.293
38852SOL    HW118388  13.986  10.768  14.349
38852SOL    HW218389  13.942  10.680  14.233
38853SOL     OW18390  11.894  11.749  10.408
38853SOL    HW118391  11.819  11.715  10.457
38853SOL    HW218392  11.878  11.844  10.403
38854SOL     OW18393   2.960   9.555   8.193
38854SOL    HW118394   2.933   9.487   8.131
38854SOL    HW218395   2.963   9.510   8.278
38855SOL     OW18396   4.096   3.119   8.739
38855SOL    HW118397   4.117   3.205   8.777
38855SOL    HW218398   4.069   3.139   8.649
38856SOL     OW18399   0.380   3.605   7.856
38856SOL    HW118400   0.384   3.615   7.951
38856SOL    HW218401   0.377   3.511   7.841
38857SOL     OW18402   8.384   8.269  10.080
38857SOL    HW118403   8.425   8.244   9.997
38857SOL    HW218404   8.404   8.362  10.090
38858SOL     OW18405  12.950   3.922   9.952
38858SOL    HW118406  12.960   4.014   9.927
38858SOL    HW218407  13.039   3.892   9.968
38859SOL     OW18408   7.117   0.996   1.429
38859SOL    HW118409   7.177   1.044   1.371
38859SOL    HW218410   7.102   1.056   1.502
38860SOL     OW18411  10.679  11.966   7.890
38860SOL    HW118412  10.752  11.928   7.840
38860SOL    HW218413  10.645  12.035   7.833
38861SOL     OW18414  12.704  13.455   5.166
38861SOL    HW118415  12.661  13.471   5.083
38861SOL    HW218416  12.774  13.520   5.170
38862SOL     OW18417   0.139  12.755   2.279
38862SOL    HW118418   0.221  12.803   2.266
38862SOL    HW218419   0.165  12.675   2.325
38863SOL     OW18420  12.915  14.791  14.838
38863SOL    HW118421  12.950  14.709  14.872
38863SOL    HW218422  12.972  14.859   0.002
38864SOL     OW18423   0.695   0.034   4.878
38864SOL    HW118424   0.776   0.021   4.827
38864SOL    HW218425   0.644  14.826   4.861
38865SOL     OW18426  11.848  10.653   5.329
38865SOL    HW118427  11.763  10.687   5.354
38865SOL    HW218428  11.867  10.585   5.394
38866SOL     OW18429   5.071   4.064   7.468
38866SOL    HW118430   5.091   4.041   7.377
38866SOL    HW218431   4.991   4.016   7.488
38867SOL     OW18432   6.885   4.790   2.462
38867SOL    HW118433   6.906   4.874   2.422
38867SOL    HW218434   6.831   4.812   2.538
38868SOL     OW18435   1.444   4.643  10.816
38868SOL    HW118436   1.484   4.616  10.899
38868SOL    HW218437   1.518   4.664  10.759
38869SOL     OW18438   2.138   6.056   1.696
38869SOL    HW118439   2.196   6.129   1.676
38869SOL    HW218440   2.051   6.096   1.705
38870SOL     OW18441   2.213   1.935   4.238
38870SOL    HW118442   2.301   1.909   4.212
38870SOL    HW218443   2.220   2.028   4.258
38871SOL     OW18444   3.548   9.187   5.306
38871SOL    HW118445   3.508   9.105   5.276
38871SOL    HW218446   3.620   9.158   5.362
38872SOL     OW18447   8.419   5.188  14.230
38872SOL    HW118448   8.348   5.248  14.255
38872SOL    HW218449   8.375   5.117  14.184
38873SOL     OW18450   0.059  13.410  12.630
38873SOL    HW118451   0.120  13.484  12.627
38873SOL    HW218452   0.059  13.375  12.541
38874SOL     OW18453   6.668  13.162   2.559
38874SOL    HW118454   6.761  13.157   2.580
38874SOL    HW218455   6.633  13.225   2.622
38875SOL     OW18456  14.578  12.190  10.688
38875SOL    HW118457  14.506  12.175  10.748
38875SOL    HW218458  14.571  12.120  10.623
38876SOL     OW18459   8.128  13.866  14.228
38876SOL    HW118460   8.157  13.810  14.156
38876SOL    HW218461   8.078  13.936  14.185
38877SOL     OW18462   7.274  11.821  10.239
38877SOL    HW118463   7.293  11.727  10.245
38877SOL    HW218464   7.190  11.825  10.193
38878SOL     OW18465  12.831   0.466   0.047
38878SOL    HW118466  12.769   0.524   0.091
38878SOL    HW218467  12.815   0.380   0.085
38879SOL     OW18468   6.815  14.717   4.564
38879SOL    HW118469   6.759  14.778   4.516
38879SOL    HW218470   6.867  14.674   4.496
38880SOL     OW18471   2.106   6.158   5.643
38880SOL    HW118472   2.103   6.148   5.738
38880SOL    HW218473   2.091   6.252   5.628
38881SOL     OW18474   9.814   8.836  11.598
38881SOL    HW118475   9.811   8.754  11.647
38881SOL    HW218476   9.843   8.810  11.510
38882SOL     OW18477  10.359  13.936   7.564
38882SOL    HW118478  10.305  13.904   7.491
38882SOL    HW218479  10.296  13.967   7.629
38883SOL     OW18480   5.034  12.994  10.880
38883SOL    HW118481   5.045  13.052  10.804
38883SOL    HW218482   5.121  12.957  10.895
38884SOL     OW18483  12.176   0.081   7.317
38884SOL    HW118484  12.242   0.024   7.277
38884SOL    HW218485  12.173   0.053   7.409
38885SOL     OW18486   8.148  10.053   0.177
38885SOL    HW118487   8.056  10.056   0.204
38885SOL    HW218488   8.149   9.995   0.101
38886SOL     OW18489   6.443  10.001   5.357
38886SOL    HW118490   6.518  10.052   5.388
38886SOL    HW218491   6.410  10.050   5.282
38887SOL     OW18492   2.093  11.874   2.766
38887SOL    HW118493   2.082  11.905   2.676
38887SOL    HW218494   2.099  11.953   2.819
38888SOL     OW18495   1.704  10.738   3.791
38888SOL    HW118496   1.690  10.804   3.860
38888SOL    HW218497   1.721  10.657   3.839
38889SOL     OW18498  10.486   5.676   6.623
38889SOL    HW118499  10.553   5.676   6.691
38889SOL    HW218500  10.510   5.749   6.566
38890SOL     OW18501   8.480  12.484   6.778
38890SOL    HW118502   8.405  12.537   6.807
38890SOL    HW218503   8.533  12.544   6.725
38891SOL     OW18504  12.485   1.280   7.930
38891SOL    HW118505  12.473   1.374   7.944
38891SOL    HW218506  12.416   1.256   7.868
38892SOL     OW18507   1.724   3.534   3.522
38892SOL    HW118508   1.765   3.612   3.483
38892SOL    HW218509   1.791   3.466   3.516
38893SOL     OW18510  14.780   2.863   1.599
38893SOL    HW118511  14.685   2.854   1.605
38893SOL    HW218512  14.794   2.934   1.537
38894SOL     OW18513   5.451   7.141   4.811
38894SOL    HW118514   5.467   7.161   4.719
38894SOL    HW218515   5.537   7.120   4.847
38895SOL     OW18516   8.858  12.092  11.705
38895SOL    HW118517   8.857  12.139  11.788
38895SOL    HW218518   8.885  12.159  11.641
38896SOL     OW18519   6.004   4.361  10.093
38896SOL    HW118520   5.943   4.395  10.028
38896SOL    HW218521   6.082   4.416  10.085
38897SOL     OW18522   8.001  12.118  11.978
38897SOL    HW118523   7.937  12.185  12.000
38897SOL    HW218524   7.991  12.105  11.883
38898SOL     OW18525   9.169  11.904   3.146
38898SOL    HW118526   9.133  11.916   3.059
38898SOL    HW218527   9.179  11.992   3.181
38899SOL     OW18528  14.745   1.292  11.151
38899SOL    HW118529  14.836   1.274  11.177
38899SOL    HW218530  14.703   1.325  11.230
38900SOL     OW18531   8.320  10.696   2.194
38900SOL    HW118532   8.326  10.710   2.288
38900SOL    HW218533   8.370  10.768   2.155
38901SOL     OW18534  12.984  12.886   4.360
38901SOL    HW118535  12.988  12.981   4.366
38901SOL    HW218536  13.022  12.866   4.275
38902SOL     OW18537   1.351  13.635  11.487
38902SOL    HW118538   1.317  13.576  11.553
38902SOL    HW218539   1.275  13.683  11.455
38903SOL     OW18540   2.317   9.508   3.227
38903SOL    HW118541   2.288   9.536   3.140
38903SOL    HW218542   2.402   9.551   3.238
38904SOL     OW18543  12.871   2.843   8.183
38904SOL    HW118544  12.800   2.784   8.210
38904SOL    HW218545  12.920   2.859   8.263
38905SOL     OW18546   1.784  12.204   1.240
38905SOL    HW118547   1.848  12.272   1.221
38905SOL    HW218548   1.784  12.148   1.162
38906SOL     OW18549   8.082   7.495   7.497
38906SOL    HW118550   8.157   7.441   7.472
38906SOL    HW218551   8.028   7.438   7.552
38907SOL     OW18552   3.214   3.526   7.614
38907SOL    HW118553   3.303   3.561   7.621
38907SOL    HW218554   3.161   3.602   7.587
38908SOL     OW18555  13.209   0.480   9.325
38908SOL    HW118556  13.214   0.569   9.359
38908SOL    HW218557  13.194   0.425   9.402
38909SOL     OW18558  13.854   4.055  13.043
38909SOL    HW118559  13.917   4.045  13.115
38909SOL    HW218560  13.905   4.095  12.972
38910SOL     OW18561  10.424  13.495   8.948
38910SOL    HW118562  10.466  13.546   8.879
38910SOL    HW218563  10.336  13.531   8.955
38911SOL     OW18564   4.454   7.978   0.825
38911SOL    HW118565   4.416   8.062   0.799
38911SOL    HW218566   4.548   7.994   0.830
38912SOL     OW18567   4.539   2.777   2.491
38912SOL    HW118568   4.518   2.709   2.555
38912SOL    HW218569   4.548   2.731   2.408
38913SOL     OW18570  10.853   5.075   6.841
38913SOL    HW118571  10.840   5.043   6.752
38913SOL    HW218572  10.925   5.022   6.876
38914SOL     OW18573  14.232   0.478  12.332
38914SOL    HW118574  14.154   0.516  12.373
38914SOL    HW218575  14.305   0.520  12.376
38915SOL     OW18576   3.663   4.717   4.003
38915SOL    HW118577   3.595   4.756   4.058
38915SOL    HW218578   3.684   4.634   4.047
38916SOL     OW18579  10.424  10.568   5.000
38916SOL    HW118580  10.416  10.483   5.043
38916SOL    HW218581  10.373  10.627   5.056
38917SOL     OW18582   8.315   5.001  10.426
38917SOL    HW118583   8.338   4.981  10.517
38917SOL    HW218584   8.219   5.000  10.425
38918SOL     OW18585   7.890   6.786   7.495
38918SOL    HW118586   7.942   6.778   7.415
38918SOL    HW218587   7.856   6.876   7.492
38919SOL     OW18588   8.499   9.722   2.314
38919SOL    HW118589   8.540   9.799   2.354
38919SOL    HW218590   8.572   9.660   2.303
38920SOL     OW18591  14.612   4.364   2.157
38920SOL    HW118592  14.588   4.317   2.237
38920SOL    HW218593  14.581   4.308   2.086
38921SOL     OW18594  13.879  12.335   0.719
38921SOL    HW118595  13.935  12.259   0.736
38921SOL    HW218596  13.806  12.324   0.780
38922SOL     OW18597  12.023   8.380   1.531
38922SOL    HW118598  11.986   8.468   1.540
38922SOL    HW218599  11.948   8.323   1.516
38923SOL     OW18600   3.779  10.986   1.045
38923SOL    HW118601   3.758  11.069   1.001
38923SOL    HW218602   3.781  10.921   0.974
38924SOL     OW18603  12.897  11.865   1.225
38924SOL    HW118604  12.901  11.877   1.130
38924SOL    HW218605  12.839  11.790   1.238
38925SOL     OW18606  12.031   0.974   6.050
38925SOL    HW118607  11.995   1.063   6.055
38925SOL    HW218608  12.123   0.984   6.075
38926SOL     OW18609   1.688   9.660   0.922
38926SOL    HW118610   1.630   9.734   0.939
38926SOL    HW218611   1.695   9.656   0.826
38927SOL     OW18612   0.714   6.285   8.024
38927SOL    HW118613   0.640   6.239   8.064
38927SOL    HW218614   0.752   6.221   7.963
38928SOL     OW18615  10.338   0.979  12.989
38928SOL    HW118616  10.343   1.068  13.024
38928SOL    HW218617  10.252   0.947  13.016
38929SOL     OW18618  11.440  14.380   9.037
38929SOL    HW118619  11.476  14.447   9.094
38929SOL    HW218620  11.346  14.401   9.032
38930SOL     OW18621  13.975   0.080   0.156
38930SOL    HW118622  14.016   0.022   0.091
38930SOL    HW218623  13.931   0.147   0.104
38931SOL     OW18624  14.613   3.845  12.790
38931SOL    HW118625  14.644   3.803  12.710
38931SOL    HW218626  14.692   3.863  12.841
38932SOL     OW18627  10.920  10.421   2.640
38932SOL    HW118628  10.936  10.394   2.550
38932SOL    HW218629  10.944  10.514   2.641
38933SOL     OW18630  10.051  12.063   7.789
38933SOL    HW118631  10.006  12.113   7.856
38933SOL    HW218632  10.144  12.067   7.814
38934SOL     OW18633  14.592  10.895   3.625
38934SOL    HW118634  14.589  10.921   3.717
38934SOL    HW218635  14.613  10.801   3.628
38935SOL     OW18636  13.922  14.372   6.304
38935SOL    HW118637  13.883  14.375   6.392
38935SOL    HW218638  13.855  14.330   6.250
38936SOL     OW18639   0.554   6.867  13.990
38936SOL    HW118640   0.505   6.808  13.933
38936SOL    HW218641   0.503   6.948  13.991
38937SOL     OW18642   7.004   5.467   6.099
38937SOL    HW118643   6.974   5.381   6.127
38937SOL    HW218644   7.035   5.508   6.180
38938SOL     OW18645   6.087   6.392   4.752
38938SOL    HW118646   5.998   6.384   4.786
38938SOL    HW218647   6.115   6.479   4.781
38939SOL     OW18648   3.262   8.433   3.981
38939SOL    HW118649   3.319   8.450   3.905
38939SOL    HW218650   3.187   8.386   3.944
38940SOL     OW18651   0.066  14.278  11.843
38940SOL    HW118652   0.046  14.204  11.901
38940SOL    HW218653   0.059  14.241  11.755
38941SOL     OW18654   3.514  14.283   8.988
38941SOL    HW118655   3.501  14.357   8.929
38941SOL    HW218656   3.455  14.300   9.062
38942SOL     OW18657   5.087   8.676   3.322
38942SOL    HW118658   5.143   8.748   3.293
38942SOL    HW218659   5.148   8.611   3.357
38943SOL     OW18660   9.093  11.608   1.263
38943SOL    HW118661   9.178  11.650   1.276
38943SOL    HW218662   9.029  11.677   1.280
38944SOL     OW18663   2.913  14.644   6.157
38944SOL    HW118664   2.821  14.618   6.152
38944SOL    HW218665   2.921  14.688   6.241
38945SOL     OW18666  10.378   1.785   6.454
38945SOL    HW118667  10.440   1.857   6.442
38945SOL    HW218668  10.390   1.758   6.545
38946SOL     OW18669   9.884   1.610   5.188
38946SOL    HW118670   9.885   1.668   5.111
38946SOL    HW218671   9.812   1.549   5.171
38947SOL     OW18672   0.829   7.542   3.000
38947SOL    HW118673   0.918   7.521   3.026
38947SOL    HW218674   0.797   7.603   3.067
38948SOL     OW18675   4.748   0.424  10.287
38948SOL    HW118676   4.795   0.492  10.335
38948SOL    HW218677   4.680   0.471  10.239
38949SOL     OW18678   3.462  14.378  11.585
38949SOL    HW118679   3.500  14.443  11.644
38949SOL    HW218680   3.447  14.301  11.640
38950SOL     OW18681  13.925   3.967   6.163
38950SOL    HW118682  13.950   3.875   6.174
38950SOL    HW218683  13.834   3.965   6.135
38951SOL     OW18684   8.712  12.370   4.189
38951SOL    HW118685   8.776  12.301   4.173
38951SOL    HW218686   8.717  12.426   4.112
38952SOL     OW18687   1.962   9.771   0.972
38952SOL    HW118688   1.867   9.757   0.968
38952SOL    HW218689   1.986   9.747   1.061
38953SOL     OW18690  11.962   6.996   7.393
38953SOL    HW118691  12.006   6.998   7.478
38953SOL    HW218692  12.018   6.941   7.339
38954SOL     OW18693   5.409   7.710   8.422
38954SOL    HW118694   5.432   7.659   8.500
38954SOL    HW218695   5.412   7.801   8.451
38955SOL     OW18696  14.279   4.246   6.942
38955SOL    HW118697  14.273   4.312   6.873
38955SOL    HW218698  14.331   4.288   7.010
38956SOL     OW18699   7.257   7.604   1.325
38956SOL    HW118700   7.315   7.562   1.388
38956SOL    HW218701   7.315   7.645   1.262
38957SOL     OW18702   9.941   4.580  12.424
38957SOL    HW118703   9.894   4.661  12.402
38957SOL    HW218704   9.972   4.547  12.340
38958SOL     OW18705   4.606  11.803   4.982
38958SOL    HW118706   4.541  11.864   4.946
38958SOL    HW218707   4.575  11.785   5.070
38959SOL     OW18708  13.812   6.395   5.235
38959SOL    HW118709  13.816   6.299   5.236
38959SOL    HW218710  13.847   6.419   5.149
38960SOL     OW18711   1.998   7.768   6.878
38960SOL    HW118712   1.924   7.799   6.930
38960SOL    HW218713   2.075   7.798   6.925
38961SOL     OW18714   2.381   9.592   6.782
38961SOL    HW118715   2.451   9.590   6.717
38961SOL    HW218716   2.407   9.662   6.843
38962SOL     OW18717  11.136  13.205   2.217
38962SOL    HW118718  11.197  13.140   2.251
38962SOL    HW218719  11.144  13.279   2.278
38963SOL     OW18720  13.326   0.379   4.630
38963SOL    HW118721  13.260   0.409   4.567
38963SOL    HW218722  13.323   0.284   4.624
38964SOL     OW18723   0.920   2.508   6.718
38964SOL    HW118724   1.008   2.541   6.738
38964SOL    HW218725   0.868   2.531   6.795
38965SOL     OW18726   7.478   2.634   3.721
38965SOL    HW118727   7.570   2.648   3.698
38965SOL    HW218728   7.439   2.602   3.640
38966SOL     OW18729   6.129   4.774   2.733
38966SOL    HW118730   6.063   4.706   2.746
38966SOL    HW218731   6.100   4.846   2.789
38967SOL     OW18732   2.725   8.311   3.592
38967SOL    HW118733   2.649   8.282   3.643
38967SOL    HW218734   2.750   8.234   3.541
38968SOL     OW18735  11.075  11.212   6.378
38968SOL    HW118736  11.018  11.202   6.454
38968SOL    HW218737  11.093  11.306   6.373
38969SOL     OW18738  13.579   9.960  11.305
38969SOL    HW118739  13.632   9.945  11.227
38969SOL    HW218740  13.625   9.913  11.374
38970SOL     OW18741   6.366  11.577  11.846
38970SOL    HW118742   6.379  11.654  11.790
38970SOL    HW218743   6.351  11.614  11.933
38971SOL     OW18744   9.633  13.023  14.145
38971SOL    HW118745   9.714  12.991  14.105
38971SOL    HW218746   9.662  13.081  14.216
38972SOL     OW18747   5.806   2.884  12.480
38972SOL    HW118748   5.846   2.970  12.466
38972SOL    HW218749   5.871   2.822  12.446
38973SOL     OW18750  13.753   0.919   7.712
38973SOL    HW118751  13.718   0.990   7.658
38973SOL    HW218752  13.723   0.839   7.668
38974SOL     OW18753  14.482  12.713   8.773
38974SOL    HW118754  14.544  12.641   8.775
38974SOL    HW218755  14.460  12.728   8.865
38975SOL     OW18756   5.209  12.008  11.879
38975SOL    HW118757   5.168  12.060  11.810
38975SOL    HW218758   5.303  12.023  11.867
38976SOL     OW18759  12.950   1.973  10.871
38976SOL    HW118760  12.909   1.895  10.833
38976SOL    HW218761  12.908   1.982  10.957
38977SOL     OW18762   1.817   7.847   5.411
38977SOL    HW118763   1.824   7.924   5.466
38977SOL    HW218764   1.776   7.878   5.331
38978SOL     OW18765   3.161   9.461   5.030
38978SOL    HW118766   3.237   9.456   5.088
38978SOL    HW218767   3.167   9.547   4.989
38979SOL     OW18768  11.886   2.267   8.787
38979SOL    HW118769  11.801   2.311   8.794
38979SOL    HW218770  11.948   2.338   8.774
38980SOL     OW18771   9.642   4.521   0.625
38980SOL    HW118772   9.565   4.495   0.676
38980SOL    HW218773   9.713   4.469   0.662
38981SOL     OW18774   8.641   6.562   0.808
38981SOL    HW118775   8.713   6.499   0.814
38981SOL    HW218776   8.684   6.648   0.813
38982SOL     OW18777   1.860  13.644   1.797
38982SOL    HW118778   1.875  13.559   1.755
38982SOL    HW218779   1.909  13.639   1.879
38983SOL     OW18780  13.053   0.405  13.141
38983SOL    HW118781  12.978   0.464  13.130
38983SOL    HW218782  13.107   0.447  13.208
38984SOL     OW18783   0.562  10.334   2.682
38984SOL    HW118784   0.630  10.291   2.734
38984SOL    HW218785   0.487  10.275   2.687
38985SOL     OW18786   7.134  13.973   5.292
38985SOL    HW118787   7.063  14.018   5.337
38985SOL    HW218788   7.092  13.929   5.219
38986SOL     OW18789   0.606  13.476  13.199
38986SOL    HW118790   0.606  13.561  13.243
38986SOL    HW218791   0.645  13.493  13.113
38987SOL     OW18792  12.075   2.096   1.596
38987SOL    HW118793  12.138   2.034   1.558
38987SOL    HW218794  12.024   2.127   1.521
38988SOL     OW18795  12.208   5.761   1.750
38988SOL    HW118796  12.269   5.834   1.764
38988SOL    HW218797  12.142   5.772   1.819
38989SOL     OW18798  14.254   0.280  10.292
38989SOL    HW118799  14.249   0.209  10.356
38989SOL    HW218800  14.186   0.260  10.228
38990SOL     OW18801   9.026  14.358  11.825
38990SOL    HW118802   9.016  14.435  11.770
38990SOL    HW218803   9.036  14.392  11.913
38991SOL     OW18804   9.340   1.736   2.444
38991SOL    HW118805   9.435   1.728   2.453
38991SOL    HW218806   9.312   1.788   2.520
38992SOL     OW18807   5.256   4.910  10.907
38992SOL    HW118808   5.306   4.919  10.826
38992SOL    HW218809   5.306   4.846  10.958
38993SOL     OW18810   9.954   0.577  14.802
38993SOL    HW118811   9.978   0.507  14.863
38993SOL    HW218812   9.993   0.656  14.839
38994SOL     OW18813   5.165   1.611   7.302
38994SOL    HW118814   5.118   1.592   7.220
38994SOL    HW218815   5.110   1.572   7.370
38995SOL     OW18816  13.226  13.346   6.350
38995SOL    HW118817  13.134  13.345   6.374
38995SOL    HW218818  13.228  13.376   6.260
38996SOL     OW18819  11.348   7.150   1.650
38996SOL    HW118820  11.354   7.243   1.671
38996SOL    HW218821  11.254   7.135   1.635
38997SOL     OW18822  10.588   0.107  12.851
38997SOL    HW118823  10.619   0.120  12.762
38997SOL    HW218824  10.498   0.077  12.842
38998SOL     OW18825   5.985  14.041  12.099
38998SOL    HW118826   5.954  14.110  12.158
38998SOL    HW218827   5.997  14.085  12.015
38999SOL     OW18828  10.149  13.075   9.737
38999SOL    HW118829  10.069  13.091   9.786
38999SOL    HW218830  10.120  13.040   9.653
39000SOL     OW18831   0.283   9.257   3.590
39000SOL    HW118832   0.249   9.169   3.608
39000SOL    HW218833   0.369   9.259   3.632
39001SOL     OW18834  14.262   7.209  11.159
39001SOL    HW118835  14.276   7.140  11.094
39001SOL    HW218836  14.197   7.172  11.219
39002SOL     OW18837  11.217   9.069  14.315
39002SOL    HW118838  11.206   9.151  14.266
39002SOL    HW218839  11.128   9.037  14.329
39003SOL     OW18840   1.645   2.447   6.584
39003SOL    HW118841   1.684   2.429   6.498
39003SOL    HW218842   1.607   2.534   6.575
39004SOL     OW18843   4.521  10.128   5.771
39004SOL    HW118844   4.514  10.057   5.836
39004SOL    HW218845   4.597  10.105   5.718
39005SOL     OW18846  12.990  13.261   8.110
39005SOL    HW118847  12.896  13.266   8.092
39005SOL    HW218848  13.008  13.335   8.168
39006SOL     OW18849  12.302  12.396   2.344
39006SOL    HW118850  12.326  12.398   2.437
39006SOL    HW218851  12.348  12.471   2.306
39007SOL     OW18852   8.977   9.367   9.229
39007SOL    HW118853   8.982   9.272   9.217
39007SOL    HW218854   8.928   9.378   9.310
39008SOL     OW18855   3.611  13.749   4.525
39008SOL    HW118856   3.562  13.829   4.504
39008SOL    HW218857   3.553  13.678   4.500
39009SOL     OW18858   2.525   8.596   9.883
39009SOL    HW118859   2.613   8.582   9.848
39009SOL    HW218860   2.482   8.652   9.818
39010SOL     OW18861   8.854   3.168   3.838
39010SOL    HW118862   8.902   3.097   3.880
39010SOL    HW218863   8.820   3.220   3.910
39011SOL     OW18864  11.152   7.336  13.091
39011SOL    HW118865  11.058   7.347  13.105
39011SOL    HW218866  11.158   7.269  13.022
39012SOL     OW18867   0.993   5.825   2.477
39012SOL    HW118868   0.933   5.894   2.507
39012SOL    HW218869   1.026   5.785   2.557
39013SOL     OW18870  13.646   7.857   9.874
39013SOL    HW118871  13.710   7.792   9.902
39013SOL    HW218872  13.684   7.942   9.898
39014SOL     OW18873  11.875   6.699   7.023
39014SOL    HW118874  11.933   6.652   7.083
39014SOL    HW218875  11.934   6.727   6.952
39015SOL     OW18876  12.119   2.997   1.501
39015SOL    HW118877  12.072   3.002   1.418
39015SOL    HW218878  12.197   2.946   1.481
39016SOL     OW18879   6.198  12.706  14.228
39016SOL    HW118880   6.104  12.686  14.232
39016SOL    HW218881   6.207  12.788  14.276
39017SOL     OW18882  11.806   5.303   7.062
39017SOL    HW118883  11.823   5.376   7.121
39017SOL    HW218884  11.711   5.295   7.060
39018SOL     OW18885   1.440  13.127   1.224
39018SOL    HW118886   1.471  13.195   1.283
39018SOL    HW218887   1.418  13.174   1.143
39019SOL     OW18888   7.843   9.800   5.845
39019SOL    HW118889   7.772   9.751   5.887
39019SOL    HW218890   7.811   9.890   5.841
39020SOL     OW18891   4.609  13.453   3.720
39020SOL    HW118892   4.526  13.492   3.693
39020SOL    HW218893   4.647  13.516   3.782
39021SOL     OW18894  10.771  11.179  11.120
39021SOL    HW118895  10.756  11.135  11.037
39021SOL    HW218896  10.757  11.111  11.186
39022SOL     OW18897   4.877  13.396   7.681
39022SOL    HW118898   4.924  13.413   7.763
39022SOL    HW218899   4.805  13.458   7.682
39023SOL     OW18900   0.965   6.871   1.473
39023SOL    HW118901   1.007   6.954   1.492
39023SOL    HW218902   0.872   6.886   1.489
39024SOL     OW18903  14.686  13.378   2.862
39024SOL    HW118904  14.653  13.307   2.917
39024SOL    HW218905  14.777  13.389   2.888
39025SOL     OW18906  10.966   0.564   5.515
39025SOL    HW118907  10.983   0.495   5.452
39025SOL    HW218908  11.051   0.606   5.530
39026SOL     OW18909   3.609  12.170  10.943
39026SOL    HW118910   3.696  12.201  10.968
39026SOL    HW218911   3.611  12.167  10.847
39027SOL     OW18912   9.326  14.761   9.793
39027SOL    HW118913   9.269  14.694   9.756
39027SOL    HW218914   9.296  14.843   9.753
39028SOL     OW18915   7.178  13.037  13.745
39028SOL    HW118916   7.153  13.117  13.699
39028SOL    HW218917   7.118  13.033  13.820
39029SOL     OW18918   4.571   9.605   5.879
39029SOL    HW118919   4.624   9.667   5.830
39029SOL    HW218920   4.481   9.624   5.852
39030SOL     OW18921   6.768   3.256  14.207
39030SOL    HW118922   6.795   3.327  14.266
39030SOL    HW218923   6.850   3.229  14.166
39031SOL     OW18924   6.593   3.074   1.378
39031SOL    HW118925   6.626   3.164   1.381
39031SOL    HW218926   6.629   3.033   1.457
39032SOL     OW18927  14.332   5.896   7.908
39032SOL    HW118928  14.402   5.961   7.914
39032SOL    HW218929  14.313   5.891   7.814
39033SOL     OW18930   2.817  12.456   3.186
39033SOL    HW118931   2.892  12.507   3.215
39033SOL    HW218932   2.819  12.377   3.240
39034SOL     OW18933   0.688  10.594   9.511
39034SOL    HW118934   0.750  10.523   9.495
39034SOL    HW218935   0.604  10.560   9.481
39035SOL     OW18936  11.181  13.779   0.134
39035SOL    HW118937  11.185  13.747   0.044
39035SOL    HW218938  11.143  13.867   0.127
39036SOL     OW18939  13.742   0.248   2.653
39036SOL    HW118940  13.713   0.213   2.738
39036SOL    HW218941  13.724   0.342   2.660
39037SOL     OW18942   6.283  11.011   4.718
39037SOL    HW118943   6.272  10.990   4.625
39037SOL    HW218944   6.199  11.050   4.743
39038SOL     OW18945   9.221   9.930   7.234
39038SOL    HW118946   9.197  10.019   7.207
39038SOL    HW218947   9.233   9.936   7.329
39039SOL     OW18948   3.496  14.289   5.274
39039SOL    HW118949   3.483  14.367   5.327
39039SOL    HW218950   3.424  14.230   5.299
39040SOL     OW18951   1.415  10.771  14.073
39040SOL    HW118952   1.422  10.677  14.058
39040SOL    HW218953   1.504  10.804  14.064
39041SOL     OW18954   2.391   9.524  11.574
39041SOL    HW118955   2.475   9.487  11.600
39041SOL    HW218956   2.397   9.532  11.479
39042SOL     OW18957  11.048   0.214   3.193
39042SOL    HW118958  11.120   0.267   3.161
39042SOL    HW218959  10.978   0.227   3.129
39043SOL     OW18960   8.432   4.408  13.673
39043SOL    HW118961   8.443   4.343  13.603
39043SOL    HW218962   8.490   4.378  13.743
39044SOL     OW18963   4.195   6.539  14.579
39044SOL    HW118964   4.147   6.482  14.638
39044SOL    HW218965   4.281   6.498  14.571
39045SOL     OW18966   4.596   0.389  11.924
39045SOL    HW118967   4.594   0.301  11.886
39045SOL    HW218968   4.644   0.441  11.860
39046SOL     OW18969  10.786   5.558   1.497
39046SOL    HW118970  10.745   5.471   1.501
39046SOL    HW218971  10.857   5.548   1.434
39047SOL     OW18972   0.279   1.731  10.584
39047SOL    HW118973   0.249   1.820  10.604
39047SOL    HW218974   0.308   1.695  10.668
39048SOL     OW18975   3.093   9.643   3.626
39048SOL    HW118976   3.156   9.644   3.698
39048SOL    HW218977   3.105   9.558   3.585
39049SOL     OW18978  13.830  11.841   3.066
39049SOL    HW118979  13.887  11.844   3.143
39049SOL    HW218980  13.829  11.932   3.034
39050SOL     OW18981  11.519  11.118   9.439
39050SOL    HW118982  11.491  11.026   9.442
39050SOL    HW218983  11.443  11.167   9.471
39051SOL     OW18984   6.818   8.909   4.395
39051SOL    HW118985   6.742   8.932   4.448
39051SOL    HW218986   6.891   8.958   4.434
39052SOL     OW18987   9.491   7.465   1.529
39052SOL    HW118988   9.417   7.510   1.487
39052SOL    HW218989   9.563   7.527   1.524
39053SOL     OW18990   9.684   4.143  11.147
39053SOL    HW118991   9.765   4.139  11.097
39053SOL    HW218992   9.711   4.174  11.234
39054SOL     OW18993   3.544  11.902   6.732
39054SOL    HW118994   3.516  11.972   6.673
39054SOL    HW218995   3.629  11.875   6.698
39055SOL     OW18996   2.811   7.729  10.583
39055SOL    HW118997   2.831   7.809  10.631
39055SOL    HW218998   2.890   7.675  10.593
39056SOL     OW18999   6.628   0.218   0.722
39056SOL    HW119000   6.549   0.261   0.752
39056SOL    HW219001   6.606   0.185   0.635
39057SOL     OW19002   1.570  14.024   7.442
39057SOL    HW119003   1.659  14.047   7.467
39057SOL    HW219004   1.520  14.105   7.454
39058SOL     OW19005  10.859  12.201   4.343
39058SOL    HW119006  10.882  12.122   4.392
39058SOL    HW219007  10.807  12.170   4.269
39059SOL     OW19008   9.067   3.156   9.847
39059SOL    HW119009   9.159   3.168   9.825
39059SOL    HW219010   9.021   3.163   9.763
39060SOL     OW19011   6.678  12.244  14.757
39060SOL    HW119012   6.753  12.218  14.704
39060SOL    HW219013   6.601  12.219  14.705
39061SOL     OW19014   2.380   1.231   8.956
39061SOL    HW119015   2.456   1.229   8.897
39061SOL    HW219016   2.320   1.294   8.917
39062SOL     OW19017  10.155  12.191  14.483
39062SOL    HW119018  10.070  12.155  14.459
39062SOL    HW219019  10.205  12.116  14.516
39063SOL     OW19020   8.823   1.582  14.552
39063SOL    HW119021   8.773   1.572  14.470
39063SOL    HW219022   8.896   1.521  14.543
39064SOL     OW19023  13.231   5.219  11.048
39064SOL    HW119024  13.192   5.137  11.077
39064SOL    HW219025  13.252   5.205  10.955
39065SOL     OW19026   2.309  10.294   4.941
39065SOL    HW119027   2.372  10.238   4.896
39065SOL    HW219028   2.346  10.306   5.028
39066SOL     OW19029   1.647   5.960  14.319
39066SOL    HW119030   1.562   5.918  14.328
39066SOL    HW219031   1.642   6.039  14.373
39067SOL     OW19032  12.171   0.144  11.488
39067SOL    HW119033  12.264   0.133  11.468
39067SOL    HW219034  12.129   0.158  11.403
39068SOL     OW19035   1.034   8.083   1.382
39068SOL    HW119036   0.987   8.160   1.415
39068SOL    HW219037   1.097   8.061   1.451
39069SOL     OW19038   3.330  13.632   1.242
39069SOL    HW119039   3.348  13.641   1.336
39069SOL    HW219040   3.304  13.720   1.214
39070SOL     OW19041  13.802   1.186  13.400
39070SOL    HW119042  13.732   1.248  13.381
39070SOL    HW219043  13.758   1.109  13.435
39071SOL     OW19044   6.923   5.473   1.428
39071SOL    HW119045   6.866   5.399   1.449
39071SOL    HW219046   6.870   5.550   1.449
39072SOL     OW19047  14.833  11.817   0.636
39072SOL    HW119048   0.051  11.842   0.658
39072SOL    HW219049  14.778  11.877   0.686
39073SOL     OW19050   8.431   1.382   7.921
39073SOL    HW119051   8.396   1.469   7.904
39073SOL    HW219052   8.476   1.358   7.840
39074SOL     OW19053   3.825  12.753  13.918
39074SOL    HW119054   3.798  12.792  14.001
39074SOL    HW219055   3.784  12.809  13.852
39075SOL     OW19056  14.699   2.086   7.128
39075SOL    HW119057  14.699   2.168   7.177
39075SOL    HW219058  14.644   2.104   7.052
39076SOL     OW19059   6.882   2.836   5.098
39076SOL    HW119060   6.799   2.874   5.067
39076SOL    HW219061   6.938   2.912   5.115
39077SOL     OW19062   3.266   6.227   5.355
39077SOL    HW119063   3.234   6.315   5.372
39077SOL    HW219064   3.343   6.240   5.300
39078SOL     OW19065   1.645  11.225   2.606
39078SOL    HW119066   1.559  11.201   2.571
39078SOL    HW219067   1.657  11.167   2.682
39079SOL     OW19068  13.410   5.675   6.504
39079SOL    HW119069  13.403   5.704   6.595
39079SOL    HW219070  13.502   5.651   6.493
39080SOL     OW19071   9.989   9.236   3.208
39080SOL    HW119072  10.057   9.172   3.189
39080SOL    HW219073   9.992   9.296   3.133
39081SOL     OW19074   8.338   2.565   0.401
39081SOL    HW119075   8.339   2.484   0.350
39081SOL    HW219076   8.357   2.537   0.490
39082SOL     OW19077   9.193   5.553  10.977
39082SOL    HW119078   9.171   5.502  11.055
39082SOL    HW219079   9.134   5.629  10.980
39083SOL     OW19080  14.220   9.399   4.071
39083SOL    HW119081  14.198   9.466   4.006
39083SOL    HW219082  14.143   9.342   4.074
39084SOL     OW19083   2.063   5.870   0.647
39084SOL    HW119084   2.009   5.919   0.586
39084SOL    HW219085   2.066   5.781   0.611
39085SOL     OW19086   1.421  13.800   8.459
39085SOL    HW119087   1.418  13.730   8.393
39085SOL    HW219088   1.499  13.851   8.438
39086SOL     OW19089  12.855  11.090   4.343
39086SOL    HW119090  12.851  11.142   4.263
39086SOL    HW219091  12.815  11.146   4.410
39087SOL     OW19092   8.088   0.827   8.854
39087SOL    HW119093   8.058   0.902   8.906
39087SOL    HW219094   8.177   0.851   8.827
39088SOL     OW19095   8.809   8.881   7.509
39088SOL    HW119096   8.783   8.829   7.584
39088SOL    HW219097   8.732   8.935   7.489
39089SOL     OW19098   0.757   1.863   4.187
39089SOL    HW119099   0.695   1.902   4.125
39089SOL    HW219100   0.813   1.935   4.214
39090SOL     OW19101  10.748   8.366   7.888
39090SOL    HW119102  10.663   8.390   7.924
39090SOL    HW219103  10.805   8.358   7.964
39091SOL     OW19104   9.046  13.423   1.606
39091SOL    HW119105   9.016  13.342   1.565
39091SOL    HW219106   9.105  13.394   1.676
39092SOL     OW19107   7.955  14.392   2.281
39092SOL    HW119108   7.937  14.485   2.289
39092SOL    HW219109   8.022  14.374   2.348
39093SOL     OW19110   8.690   7.012   8.745
39093SOL    HW119111   8.717   7.017   8.837
39093SOL    HW219112   8.616   6.951   8.745
39094SOL     OW19113  14.856   2.393   7.490
39094SOL    HW119114   0.014   2.302   7.498
39094SOL    HW219115   0.064   2.445   7.499
39095SOL     OW19116   4.519   5.743   7.748
39095SOL    HW119117   4.480   5.819   7.791
39095SOL    HW219118   4.451   5.676   7.752
39096SOL     OW19119   7.943   3.044   9.303
39096SOL    HW119120   8.037   3.031   9.289
39096SOL    HW219121   7.927   3.134   9.275
39097SOL     OW19122   1.284   7.568   8.865
39097SOL    HW119123   1.259   7.505   8.797
39097SOL    HW219124   1.356   7.618   8.827
39098SOL     OW19125  13.605   5.454  13.627
39098SOL    HW119126  13.573   5.489  13.543
39098SOL    HW219127  13.589   5.525  13.690
39099SOL     OW19128   2.389   2.924   3.582
39099SOL    HW119129   2.402   2.942   3.675
39099SOL    HW219130   2.299   2.895   3.576
39100SOL     OW19131   1.131   2.114   1.580
39100SOL    HW119132   1.211   2.135   1.532
39100SOL    HW219133   1.149   2.031   1.624
39101SOL     OW19134  10.296   4.699   3.005
39101SOL    HW119135  10.229   4.692   3.073
39101SOL    HW219136  10.346   4.776   3.028
39102SOL     OW19137   1.275   3.376   4.296
39102SOL    HW119138   1.291   3.311   4.228
39102SOL    HW219139   1.181   3.371   4.313
39103SOL     OW19140   5.151   2.453  13.852
39103SOL    HW119141   5.078   2.470  13.791
39103SOL    HW219142   5.206   2.532  13.846
39104SOL     OW19143   2.951   2.620   3.156
39104SOL    HW119144   3.011   2.582   3.092
39104SOL    HW219145   2.992   2.601   3.241
39105SOL     OW19146  12.895   1.959  10.393
39105SOL    HW119147  12.957   1.991  10.459
39105SOL    HW219148  12.822   2.021  10.397
39106SOL     OW19149  10.225   9.767   3.135
39106SOL    HW119150  10.259   9.692   3.182
39106SOL    HW219151  10.149   9.733   3.087
39107SOL     OW19152  10.910  10.179  12.224
39107SOL    HW119153  10.928  10.115  12.155
39107SOL    HW219154  10.849  10.134  12.282
39108SOL     OW19155   9.681   9.161   0.159
39108SOL    HW119156   9.741   9.162   0.233
39108SOL    HW219157   9.736   9.139   0.084
39109SOL     OW19158   9.543  14.221  10.470
39109SOL    HW119159   9.619  14.195  10.419
39109SOL    HW219160   9.475  14.158  10.446
39110SOL     OW19161   7.871  13.884  10.275
39110SOL    HW119162   7.848  13.792  10.291
39110SOL    HW219163   7.965  13.883  10.260
39111SOL     OW19164   2.346  12.215   1.687
39111SOL    HW119165   2.432  12.204   1.648
39111SOL    HW219166   2.354  12.173   1.773
39112SOL     OW19167   8.429  10.185   6.463
39112SOL    HW119168   8.390  10.171   6.550
39112SOL    HW219169   8.428  10.280   6.452
39113SOL     OW19170  13.894   2.522   5.095
39113SOL    HW119171  13.879   2.617   5.095
39113SOL    HW219172  13.965   2.510   5.158
39114SOL     OW19173   3.079   7.072   7.644
39114SOL    HW119174   3.086   7.167   7.628
39114SOL    HW219175   3.075   7.034   7.556
39115SOL     OW19176   4.240  10.331   8.704
39115SOL    HW119177   4.206  10.304   8.619
39115SOL    HW219178   4.330  10.359   8.686
39116SOL     OW19179   6.168   5.969  13.169
39116SOL    HW119180   6.117   5.893  13.194
39116SOL    HW219181   6.202   6.004  13.251
39117SOL     OW19182  10.677  14.358  12.966
39117SOL    HW119183  10.742  14.295  12.997
39117SOL    HW219184  10.700  14.374  12.875
39118SOL     OW19185   8.577   0.136  10.211
39118SOL    HW119186   8.633   0.176  10.145
39118SOL    HW219187   8.561   0.206  10.275
39119SOL     OW19188   5.933   3.885   4.721
39119SOL    HW119189   5.990   3.809   4.729
39119SOL    HW219190   5.896   3.897   4.808
39120SOL     OW19191   2.613   3.633   8.589
39120SOL    HW119192   2.558   3.710   8.603
39120SOL    HW219193   2.673   3.659   8.519
39121SOL     OW19194   2.713   4.470   6.408
39121SOL    HW119195   2.677   4.384   6.427
39121SOL    HW219196   2.728   4.469   6.313
39122SOL     OW19197   5.248  10.127   2.492
39122SOL    HW119198   5.236  10.188   2.565
39122SOL    HW219199   5.198  10.165   2.420
39123SOL     OW19200   7.862   8.127   6.658
39123SOL    HW119201   7.950   8.094   6.675
39123SOL    HW219202   7.850   8.197   6.721
39124SOL     OW19203   9.367   5.587  11.995
39124SOL    HW119204   9.432   5.591  11.925
39124SOL    HW219205   9.415   5.553  12.071
39125SOL     OW19206   7.599  13.131  10.598
39125SOL    HW119207   7.526  13.077  10.567
39125SOL    HW219208   7.676  13.095  10.553
39126SOL     OW19209   7.453  12.741  13.442
39126SOL    HW119210   7.394  12.802  13.485
39126SOL    HW219211   7.487  12.789  13.366
39127SOL     OW19212   2.461   2.793   7.448
39127SOL    HW119213   2.405   2.719   7.472
39127SOL    HW219214   2.422   2.868   7.493
39128SOL     OW19215   0.174   6.973   1.600
39128SOL    HW119216   0.105   7.012   1.546
39128SOL    HW219217   0.167   7.019   1.684
39129SOL     OW19218   7.165   8.490   7.112
39129SOL    HW119219   7.086   8.523   7.154
39129SOL    HW219220   7.211   8.443   7.181
39130SOL     OW19221  10.004   0.917   0.305
39130SOL    HW119222  10.025   0.837   0.352
39130SOL    HW219223  10.075   0.978   0.328
39131SOL     OW19224  12.710   3.303   8.111
39131SOL    HW119225  12.659   3.313   8.191
39131SOL    HW219226  12.732   3.393   8.085
39132SOL     OW19227   3.774  13.976   2.154
39132SOL    HW119228   3.701  13.998   2.095
39132SOL    HW219229   3.777  14.047   2.217
39133SOL     OW19230  10.762  10.620   0.070
39133SOL    HW119231  10.740  10.612   0.162
39133SOL    HW219232  10.679  10.643   0.027
39134SOL     OW19233   1.900  10.518   4.642
39134SOL    HW119234   1.902  10.499   4.548
39134SOL    HW219235   1.853  10.601   4.649
39135SOL     OW19236   1.515  12.089   2.964
39135SOL    HW119237   1.427  12.085   3.004
39135SOL    HW219238   1.522  12.177   2.929
39136SOL     OW19239   8.305   9.212  14.239
39136SOL    HW119240   8.309   9.268  14.161
39136SOL    HW219241   8.213   9.185  14.243
39137SOL     OW19242  14.070   1.110   1.766
39137SOL    HW119243  13.984   1.079   1.795
39137SOL    HW219244  14.126   1.098   1.843
39138SOL     OW19245  12.261  11.467   4.988
39138SOL    HW119246  12.297  11.457   5.076
39138SOL    HW219247  12.169  11.491   5.002
39139SOL     OW19248   2.983   1.471  13.293
39139SOL    HW119249   2.919   1.408  13.327
39139SOL    HW219250   2.951   1.556  13.322
39140SOL     OW19251   7.662   8.177   4.636
39140SOL    HW119252   7.629   8.198   4.549
39140SOL    HW219253   7.621   8.094   4.659
39141SOL     OW19254   8.087  14.847   2.588
39141SOL    HW119255   7.994  14.862   2.600
39141SOL    HW219256   8.093  14.795   2.507
39142SOL     OW19257   6.390   7.455  13.125
39142SOL    HW119258   6.457   7.409  13.176
39142SOL    HW219259   6.431   7.537  13.100
39143SOL     OW19260   6.310   1.092  13.339
39143SOL    HW119261   6.248   1.058  13.274
39143SOL    HW219262   6.291   1.042  13.418
39144SOL     OW19263  11.721   5.648   7.635
39144SOL    HW119264  11.720   5.685   7.723
39144SOL    HW219265  11.792   5.694   7.590
39145SOL     OW19266  14.599   4.101   2.287
39145SOL    HW119267  14.543   4.099   2.365
39145SOL    HW219268  14.564   4.030   2.232
39146SOL     OW19269   2.078   0.678   6.600
39146SOL    HW119270   2.149   0.633   6.554
39146SOL    HW219271   2.076   0.639   6.687
39147SOL     OW19272  11.227  11.851   5.479
39147SOL    HW119273  11.185  11.923   5.525
39147SOL    HW219274  11.319  11.857   5.504
39148SOL     OW19275  13.810   3.902   9.169
39148SOL    HW119276  13.815   3.995   9.147
39148SOL    HW219277  13.886   3.864   9.125
39149SOL     OW19278   2.551  11.484   3.548
39149SOL    HW119279   2.477  11.518   3.599
39149SOL    HW219280   2.517  11.473   3.460
39150SOL     OW19281   6.886  11.811  10.437
39150SOL    HW119282   6.865  11.746  10.369
39150SOL    HW219283   6.845  11.777  10.516
39151SOL     OW19284   8.061   5.153   9.678
39151SOL    HW119285   8.148   5.144   9.719
39151SOL    HW219286   8.042   5.246   9.685
39152SOL     OW19287   7.040  12.325  14.431
39152SOL    HW119288   7.053  12.401  14.487
39152SOL    HW219289   7.086  12.346  14.350
39153SOL     OW19290   8.989   8.729   5.520
39153SOL    HW119291   8.983   8.801   5.457
39153SOL    HW219292   8.935   8.757   5.594
39154SOL     OW19293   9.745   7.574   7.237
39154SOL    HW119294   9.784   7.611   7.157
39154SOL    HW219295   9.820   7.554   7.293
39155SOL     OW19296   5.880   8.619   3.022
39155SOL    HW119297   5.918   8.703   3.048
39155SOL    HW219298   5.868   8.626   2.927
39156SOL     OW19299   4.467   3.073   8.666
39156SOL    HW119300   4.496   3.075   8.575
39156SOL    HW219301   4.440   2.982   8.680
39157SOL     OW19302   9.048  11.628   4.225
39157SOL    HW119303   9.104  11.622   4.302
39157SOL    HW219304   8.991  11.551   4.231
39158SOL     OW19305   2.410   7.041  13.942
39158SOL    HW119306   2.452   6.957  13.924
39158SOL    HW219307   2.416   7.090  13.860
39159SOL     OW19308   2.528   8.700  11.549
39159SOL    HW119309   2.529   8.624  11.490
39159SOL    HW219310   2.621   8.719  11.564
39160SOL     OW19311  11.146   8.776   2.473
39160SOL    HW119312  11.105   8.743   2.553
39160SOL    HW219313  11.110   8.864   2.462
39161SOL     OW19314   7.461  13.081  13.736
39161SOL    HW119315   7.509  13.051  13.813
39161SOL    HW219316   7.369  13.063  13.756
39162SOL     OW19317  13.156   6.790   2.512
39162SOL    HW119318  13.244   6.810   2.479
39162SOL    HW219319  13.101   6.860   2.479
39163SOL     OW19320   7.540   6.821   5.161
39163SOL    HW119321   7.604   6.888   5.186
39163SOL    HW219322   7.587   6.738   5.171
39164SOL     OW19323   2.873   0.736   3.511
39164SOL    HW119324   2.825   0.771   3.436
39164SOL    HW219325   2.963   0.729   3.480
39165SOL     OW19326   3.171  14.794  13.922
39165SOL    HW119327   3.091  14.812  13.971
39165SOL    HW219328   3.235  14.856  13.957
39166SOL     OW19329  14.845   9.837   2.216
39166SOL    HW119330   0.032   9.853   2.144
39166SOL    HW219331  14.802   9.754   2.194
39167SOL     OW19332   7.626  10.531   9.461
39167SOL    HW119333   7.608  10.582   9.540
39167SOL    HW219334   7.659  10.595   9.398
39168SOL     OW19335   8.221   0.497   1.742
39168SOL    HW119336   8.232   0.577   1.793
39168SOL    HW219337   8.227   0.526   1.651
39169SOL     OW19338  13.445   1.457  12.718
39169SOL    HW119339  13.375   1.493  12.772
39169SOL    HW219340  13.516   1.440  12.779
39170SOL     OW19341   3.256  10.450  14.688
39170SOL    HW119342   3.350  10.447  14.706
39170SOL    HW219343   3.237  10.543  14.675
39171SOL     OW19344   3.451   8.592   3.237
39171SOL    HW119345   3.423   8.680   3.210
39171SOL    HW219346   3.535   8.580   3.192
39172SOL     OW19347   1.175  13.412  13.930
39172SOL    HW119348   1.255  13.390  13.978
39172SOL    HW219349   1.104  13.385  13.989
39173SOL     OW19350   9.789   2.265  14.454
39173SOL    HW119351   9.724   2.218  14.506
39173SOL    HW219352   9.816   2.203  14.386
39174SOL     OW19353   2.236   4.167   8.979
39174SOL    HW119354   2.187   4.154   9.060
39174SOL    HW219355   2.193   4.241   8.935
39175SOL     OW19356   9.971  10.966   5.594
39175SOL    HW119357  10.023  11.025   5.648
39175SOL    HW219358   9.904  10.932   5.653
39176SOL     OW19359  12.185   7.080   3.450
39176SOL    HW119360  12.170   7.105   3.359
39176SOL    HW219361  12.262   7.023   3.447
39177SOL     OW19362  11.117  12.833   2.722
39177SOL    HW119363  11.096  12.751   2.766
39177SOL    HW219364  11.211  12.829   2.706
39178SOL     OW19365  14.780  13.737   9.916
39178SOL    HW119366  14.756  13.751  10.008
39178SOL    HW219367  14.698  13.751   9.868
39179SOL     OW19368   3.938   0.054  12.836
39179SOL    HW119369   3.975   0.128  12.884
39179SOL    HW219370   3.876   0.094  12.775
39180SOL     OW19371  11.592   3.401  12.265
39180SOL    HW119372  11.654   3.441  12.325
39180SOL    HW219373  11.633   3.409  12.179
39181SOL     OW19374   0.922   0.938   2.242
39181SOL    HW119375   0.854   0.872   2.260
39181SOL    HW219376   0.974   0.900   2.172
39182SOL     OW19377   8.644  13.245  12.609
39182SOL    HW119378   8.618  13.298  12.533
39182SOL    HW219379   8.727  13.205  12.582
39183SOL     OW19380   7.675   8.330   0.186
39183SOL    HW119381   7.674   8.396   0.118
39183SOL    HW219382   7.681   8.247   0.139
39184SOL     OW19383   4.474   8.316   2.841
39184SOL    HW119384   4.446   8.323   2.932
39184SOL    HW219385   4.407   8.261   2.800
39185SOL     OW19386  13.337  14.493   2.974
39185SOL    HW119387  13.281  14.505   2.897
39185SOL    HW219388  13.411  14.442   2.942
39186SOL     OW19389   4.892  13.048  12.082
39186SOL    HW119390   4.866  12.997  12.159
39186SOL    HW219391   4.982  13.022  12.065
39187SOL     OW19392  13.739   2.793  11.903
39187SOL    HW119393  13.683   2.844  11.962
39187SOL    HW219394  13.699   2.805  11.817
39188SOL     OW19395   4.819   7.986  13.725
39188SOL    HW119396   4.799   8.073  13.691
39188SOL    HW219397   4.881   7.949  13.662
39189SOL     OW19398  13.946  13.175   0.310
39189SOL    HW119399  13.914  13.265   0.320
39189SOL    HW219400  13.880  13.120   0.351
39190SOL     OW19401   3.864  11.506   5.869
39190SOL    HW119402   3.913  11.576   5.827
39190SOL    HW219403   3.924  11.470   5.935
39191SOL     OW19404   5.309   8.450   7.328
39191SOL    HW119405   5.239   8.425   7.268
39191SOL    HW219406   5.264   8.477   7.408
39192SOL     OW19407   4.723   3.362  13.580
39192SOL    HW119408   4.709   3.295  13.647
39192SOL    HW219409   4.636   3.377  13.543
39193SOL     OW19410   8.367   7.197   5.844
39193SOL    HW119411   8.411   7.170   5.925
39193SOL    HW219412   8.332   7.115   5.808
39194SOL     OW19413   6.850  10.282   1.059
39194SOL    HW119414   6.922  10.263   0.999
39194SOL    HW219415   6.825  10.372   1.037
39195SOL     OW19416  14.441   0.497   3.374
39195SOL    HW119417  14.415   0.427   3.435
39195SOL    HW219418  14.507   0.457   3.318
39196SOL     OW19419   1.864   8.380  10.349
39196SOL    HW119420   1.822   8.455  10.307
39196SOL    HW219421   1.913   8.337  10.279
39197SOL     OW19422   5.083   2.590   9.687
39197SOL    HW119423   5.002   2.539   9.687
39197SOL    HW219424   5.134   2.554   9.759
39198SOL     OW19425   6.999   5.397   9.702
39198SOL    HW119426   7.073   5.338   9.713
39198SOL    HW219427   6.979   5.426   9.791
39199SOL     OW19428  13.026   0.909  12.324
39199SOL    HW119429  13.104   0.949  12.362
39199SOL    HW219430  13.052   0.819  12.304
39200SOL     OW19431  10.150   3.794   6.847
39200SOL    HW119432  10.154   3.875   6.898
39200SOL    HW219433  10.221   3.740   6.881
39201SOL     OW19434  11.238   5.306  10.641
39201SOL    HW119435  11.145   5.324  10.654
39201SOL    HW219436  11.247   5.212  10.654
39202SOL     OW19437   6.258   9.064  12.649
39202SOL    HW119438   6.177   9.076  12.600
39202SOL    HW219439   6.259   9.137  12.712
39203SOL     OW19440   7.996  14.819   5.740
39203SOL    HW119441   8.041  14.748   5.694
39203SOL    HW219442   7.998   0.020   5.678
39204SOL     OW19443   4.417   6.453  11.382
39204SOL    HW119444   4.357   6.513  11.336
39204SOL    HW219445   4.362   6.378  11.405
39205SOL     OW19446   7.940   6.724   1.513
39205SOL    HW119447   7.901   6.700   1.597
39205SOL    HW219448   7.997   6.799   1.534
39206SOL     OW19449  12.174  10.366   5.786
39206SOL    HW119450  12.157  10.341   5.876
39206SOL    HW219451  12.145  10.291   5.734
39207SOL     OW19452   0.534  10.587  14.309
39207SOL    HW119453   0.445  10.606  14.280
39207SOL    HW219454   0.525  10.514  14.371
39208SOL     OW19455   6.884  11.995   0.056
39208SOL    HW119456   6.907  12.037  14.845
39208SOL    HW219457   6.944  11.920   0.063
39209SOL     OW19458  11.339   5.341   2.103
39209SOL    HW119459  11.360   5.397   2.178
39209SOL    HW219460  11.424   5.322   2.063
39210SOL     OW19461   1.090   4.834   5.641
39210SOL    HW119462   1.132   4.832   5.727
39210SOL    HW219463   1.162   4.844   5.579
39211SOL     OW19464  11.324  13.084   8.737
39211SOL    HW119465  11.251  13.134   8.774
39211SOL    HW219466  11.321  13.103   8.643
39212SOL     OW19467   2.530  11.129   2.968
39212SOL    HW119468   2.623  11.109   2.973
39212SOL    HW219469   2.525  11.224   2.979
39213SOL     OW19470   0.431   7.176   1.029
39213SOL    HW119471   0.435   7.244   0.961
39213SOL    HW219472   0.472   7.100   0.989
39214SOL     OW19473  10.156   8.829   7.791
39214SOL    HW119474  10.231   8.829   7.851
39214SOL    HW219475  10.180   8.765   7.724
39215SOL     OW19476  13.036   1.939  13.463
39215SOL    HW119477  13.106   1.914  13.523
39215SOL    HW219478  12.967   1.973  13.521
39216SOL     OW19479   2.364   8.922  14.469
39216SOL    HW119480   2.398   8.837  14.442
39216SOL    HW219481   2.409   8.985  14.413
39217SOL     OW19482  12.149   0.402  11.078
39217SOL    HW119483  12.153   0.425  10.985
39217SOL    HW219484  12.056   0.389  11.095
39218SOL     OW19485  14.083   7.076   0.770
39218SOL    HW119486  14.044   6.999   0.812
39218SOL    HW219487  14.174   7.077   0.801
39219SOL     OW19488   6.904   8.183   4.275
39219SOL    HW119489   6.911   8.221   4.362
39219SOL    HW219490   6.905   8.258   4.215
39220SOL     OW19491   9.253  13.057   5.010
39220SOL    HW119492   9.187  13.107   5.057
39220SOL    HW219493   9.320  13.122   4.987
39221SOL     OW19494   5.657   0.132  11.840
39221SOL    HW119495   5.744   0.150  11.874
39221SOL    HW219496   5.616   0.218  11.831
39222SOL     OW19497   5.537   0.208   1.335
39222SOL    HW119498   5.575   0.141   1.391
39222SOL    HW219499   5.552   0.290   1.381
39223SOL     OW19500  12.329   8.701   4.424
39223SOL    HW119501  12.281   8.629   4.384
39223SOL    HW219502  12.366   8.749   4.350
39224SOL     OW19503   3.610   6.985  10.245
39224SOL    HW119504   3.675   6.919  10.269
39224SOL    HW219505   3.595   7.034  10.326
39225SOL     OW19506   1.182   7.221  10.670
39225SOL    HW119507   1.110   7.277  10.700
39225SOL    HW219508   1.221   7.187  10.750
39226SOL     OW19509  13.962   6.439  12.442
39226SOL    HW119510  13.922   6.369  12.493
39226SOL    HW219511  13.913   6.441  12.360
39227SOL     OW19512   0.534  12.433   6.356
39227SOL    HW119513   0.523  12.476   6.272
39227SOL    HW219514   0.624  12.399   6.354
39228SOL     OW19515  13.968  13.192   8.507
39228SOL    HW119516  13.975  13.099   8.485
39228SOL    HW219517  14.057  13.220   8.525
39229SOL     OW19518   1.443   9.381   7.557
39229SOL    HW119519   1.438   9.412   7.648
39229SOL    HW219520   1.526   9.334   7.553
39230SOL     OW19521   8.211  11.741   2.929
39230SOL    HW119522   8.266  11.810   2.966
39230SOL    HW219523   8.190  11.684   3.003
39231SOL     OW19524   5.884   3.462   8.769
39231SOL    HW119525   5.808   3.405   8.778
39231SOL    HW219526   5.958   3.403   8.758
39232SOL     OW19527   1.736  10.763   4.380
39232SOL    HW119528   1.732  10.695   4.312
39232SOL    HW219529   1.780  10.837   4.338
39233SOL     OW19530   3.088  13.799  12.465
39233SOL    HW119531   3.178  13.769  12.453
39233SOL    HW219532   3.041  13.766  12.388
39234SOL     OW19533  13.491  13.730   9.537
39234SOL    HW119534  13.499  13.715   9.443
39234SOL    HW219535  13.544  13.808   9.553
39235SOL     OW19536   8.849   9.698  14.051
39235SOL    HW119537   8.927   9.747  14.025
39235SOL    HW219538   8.852   9.698  14.147
39236SOL     OW19539  14.105   1.389  14.729
39236SOL    HW119540  14.039   1.370  14.796
39236SOL    HW219541  14.151   1.306  14.717
39237SOL     OW19542   8.403   6.215   5.111
39237SOL    HW119543   8.473   6.180   5.166
39237SOL    HW219544   8.448   6.251   5.035
39238SOL     OW19545  10.310   8.139  14.602
39238SOL    HW119546  10.347   8.071  14.545
39238SOL    HW219547  10.261   8.089  14.668
39239SOL     OW19548  12.683   3.630   2.886
39239SOL    HW119549  12.733   3.655   2.809
39239SOL    HW219550  12.599   3.674   2.875
39240SOL     OW19551   2.315   4.607   3.074
39240SOL    HW119552   2.372   4.613   2.997
39240SOL    HW219553   2.304   4.697   3.103
39241SOL     OW19554   1.290   0.168   7.744
39241SOL    HW119555   1.195   0.163   7.736
39241SOL    HW219556   1.318   0.215   7.666
39242SOL     OW19557   6.044   8.407   1.886
39242SOL    HW119558   6.132   8.439   1.903
39242SOL    HW219559   5.988   8.483   1.898
39243SOL     OW19560   0.830   4.579   5.889
39243SOL    HW119561   0.925   4.582   5.890
39243SOL    HW219562   0.805   4.553   5.977
39244SOL     OW19563  11.353   0.493   7.229
39244SOL    HW119564  11.438   0.478   7.189
39244SOL    HW219565  11.324   0.407   7.259
39245SOL     OW19566   7.406   9.267   7.366
39245SOL    HW119567   7.420   9.230   7.279
39245SOL    HW219568   7.471   9.337   7.373
39246SOL     OW19569   0.902  14.098   0.853
39246SOL    HW119570   0.932  14.012   0.881
39246SOL    HW219571   0.827  14.079   0.795
39247SOL     OW19572   1.630   8.954   6.847
39247SOL    HW119573   1.641   8.860   6.859
39247SOL    HW219574   1.703   8.981   6.792
39248SOL     OW19575  11.609  12.896  11.876
39248SOL    HW119576  11.685  12.879  11.820
39248SOL    HW219577  11.601  12.818  11.930
39249SOL     OW19578   1.366   2.527   9.420
39249SOL    HW119579   1.301   2.480   9.472
39249SOL    HW219580   1.323   2.542   9.336
39250SOL     OW19581  12.360   6.084   4.557
39250SOL    HW119582  12.286   6.122   4.509
39250SOL    HW219583  12.322   6.017   4.613
39251SOL     OW19584   7.413  10.900   6.378
39251SOL    HW119585   7.359  10.979   6.375
39251SOL    HW219586   7.409  10.871   6.469
39252SOL     OW19587  10.606  13.633   6.905
39252SOL    HW119588  10.667  13.646   6.977
39252SOL    HW219589  10.570  13.546   6.919
39253SOL     OW19590  14.852   9.736   4.336
39253SOL    HW119591   0.007   9.749   4.245
39253SOL    HW219592  14.801   9.655   4.334
39254SOL     OW19593   0.519  13.570   0.166
39254SOL    HW119594   0.579  13.646   0.165
39254SOL    HW219595   0.477  13.573   0.081
39255SOL     OW19596   5.669   7.521   2.924
39255SOL    HW119597   5.600   7.540   2.987
39255SOL    HW219598   5.650   7.433   2.892
39256SOL     OW19599   9.147   6.010  13.605
39256SOL    HW119600   9.169   6.068  13.678
39256SOL    HW219601   9.206   6.036  13.535
39257SOL     OW19602   1.787   5.318   6.774
39257SOL    HW119603   1.778   5.224   6.759
39257SOL    HW219604   1.881   5.331   6.787
39258SOL     OW19605   3.380   7.341   3.067
39258SOL    HW119606   3.466   7.359   3.106
39258SOL    HW219607   3.356   7.255   3.102
39259SOL     OW19608   2.813   7.158   6.512
39259SOL    HW119609   2.808   7.064   6.492
39259SOL    HW219610   2.723   7.182   6.534
39260SOL     OW19611   6.666   5.362  12.574
39260SOL    HW119612   6.661   5.411  12.492
39260SOL    HW219613   6.612   5.412  12.635
39261SOL     OW19614   3.547   4.898  12.224
39261SOL    HW119615   3.624   4.944  12.190
39261SOL    HW219616   3.513   4.849  12.149
39262SOL     OW19617   8.812  10.753   5.734
39262SOL    HW119618   8.839  10.837   5.696
39262SOL    HW219619   8.834  10.688   5.668
39263SOL     OW19620   8.394   4.824  11.440
39263SOL    HW119621   8.458   4.752  11.437
39263SOL    HW219622   8.358   4.819  11.529
39264SOL     OW19623  10.789  11.626   8.365
39264SOL    HW119624  10.708  11.638   8.316
39264SOL    HW219625  10.769  11.558   8.429
39265SOL     OW19626   5.497  12.402   5.960
39265SOL    HW119627   5.437  12.376   5.889
39265SOL    HW219628   5.471  12.347   6.034
39266SOL     OW19629   6.044   4.248   5.134
39266SOL    HW119630   5.951   4.227   5.135
39266SOL    HW219631   6.064   4.264   5.041
39267SOL     OW19632  11.149   3.631   0.417
39267SOL    HW119633  11.116   3.706   0.467
39267SOL    HW219634  11.227   3.602   0.466
39268SOL     OW19635  13.669   9.630   9.925
39268SOL    HW119636  13.676   9.643  10.020
39268SOL    HW219637  13.686   9.717   9.888
39269SOL     OW19638   6.718  14.147   1.143
39269SOL    HW119639   6.651  14.177   1.204
39269SOL    HW219640   6.773  14.088   1.195
39270SOL     OW19641   4.362   7.876  13.967
39270SOL    HW119642   4.370   7.790  14.006
39270SOL    HW219643   4.442   7.888  13.916
39271SOL     OW19644  12.646  13.489   2.787
39271SOL    HW119645  12.682  13.577   2.772
39271SOL    HW219646  12.662  13.442   2.705
39272SOL     OW19647  14.681   0.744  13.092
39272SOL    HW119648  14.656   0.835  13.074
39272SOL    HW219649  14.620   0.692  13.040
39273SOL     OW19650   6.925  12.266   1.459
39273SOL    HW119651   6.917  12.358   1.432
39273SOL    HW219652   6.856  12.221   1.411
39274SOL     OW19653   3.906  12.156  12.142
39274SOL    HW119654   3.942  12.198  12.220
39274SOL    HW219655   3.858  12.226  12.097
39275SOL     OW19656  10.281  10.225   9.295
39275SOL    HW119657  10.190  10.207   9.271
39275SOL    HW219658  10.281  10.228   9.391
39276SOL     OW19659   4.442  14.493   0.458
39276SOL    HW119660   4.393  14.455   0.385
39276SOL    HW219661   4.385  14.563   0.490
39277SOL     OW19662   8.936   3.035  13.399
39277SOL    HW119663   9.024   3.064  13.375
39277SOL    HW219664   8.878   3.089  13.345
39278SOL     OW19665  13.052   2.939   1.866
39278SOL    HW119666  12.992   2.872   1.899
39278SOL    HW219667  13.133   2.925   1.915
39279SOL     OW19668   9.724  12.846   6.392
39279SOL    HW119669   9.704  12.808   6.477
39279SOL    HW219670   9.792  12.789   6.356
39280SOL     OW19671   8.795   3.298   2.087
39280SOL    HW119672   8.745   3.260   2.159
39280SOL    HW219673   8.823   3.223   2.035
39281SOL     OW19674   4.260  10.953   0.795
39281SOL    HW119675   4.201  10.879   0.812
39281SOL    HW219676   4.211  11.030   0.824
39282SOL     OW19677  10.480   4.354   3.041
39282SOL    HW119678  10.391   4.320   3.031
39282SOL    HW219679  10.472   4.447   3.022
39283SOL     OW19680   1.983  13.823   5.176
39283SOL    HW119681   1.903  13.773   5.162
39283SOL    HW219682   1.960  13.913   5.153
39284SOL     OW19683  13.268  13.502  11.537
39284SOL    HW119684  13.276  13.514  11.443
39284SOL    HW219685  13.176  13.479  11.551
39285SOL     OW19686   6.819  11.182   4.107
39285SOL    HW119687   6.872  11.262   4.105
39285SOL    HW219688   6.759  11.191   4.034
39286SOL     OW19689   3.660  12.999  11.248
39286SOL    HW119690   3.732  13.017  11.309
39286SOL    HW219691   3.659  13.075  11.189
39287SOL     OW19692  12.687  10.121   6.352
39287SOL    HW119693  12.748  10.066   6.304
39287SOL    HW219694  12.686  10.204   6.304
39288SOL     OW19695  11.770   7.226   1.854
39288SOL    HW119696  11.793   7.295   1.915
39288SOL    HW219697  11.711   7.168   1.903
39289SOL     OW19698  14.016   2.185   0.681
39289SOL    HW119699  13.946   2.221   0.627
39289SOL    HW219700  13.998   2.091   0.683
39290SOL     OW19701   6.965   0.285   7.894
39290SOL    HW119702   6.994   0.337   7.818
39290SOL    HW219703   6.942   0.200   7.858
39291SOL     OW19704   2.303  13.547   1.857
39291SOL    HW119705   2.305  13.489   1.781
39291SOL    HW219706   2.210  13.566   1.871
39292SOL     OW19707   2.809   9.751   6.379
39292SOL    HW119708   2.719   9.721   6.368
39292SOL    HW219709   2.849   9.739   6.293
39293SOL     OW19710   0.852   6.828  10.563
39293SOL    HW119711   0.792   6.903  10.567
39293SOL    HW219712   0.802   6.760  10.517
39294SOL     OW19713   6.093   9.886   0.290
39294SOL    HW119714   6.092   9.967   0.239
39294SOL    HW219715   6.030   9.901   0.360
39295SOL     OW19716   5.568   3.960   0.319
39295SOL    HW119717   5.659   3.967   0.350
39295SOL    HW219718   5.552   4.041   0.272
39296SOL     OW19719   5.797  14.528   3.124
39296SOL    HW119720   5.816  14.610   3.078
39296SOL    HW219721   5.705  14.511   3.106
39297SOL     OW19722   4.821   1.756   0.629
39297SOL    HW119723   4.889   1.726   0.689
39297SOL    HW219724   4.786   1.836   0.669
39298SOL     OW19725  13.534  12.667  10.382
39298SOL    HW119726  13.477  12.739  10.409
39298SOL    HW219727  13.474  12.598  10.354
39299SOL     OW19728   3.253   2.033   9.561
39299SOL    HW119729   3.168   2.070   9.584
39299SOL    HW219730   3.288   2.000   9.644
39300SOL     OW19731   7.603   7.080   2.499
39300SOL    HW119732   7.614   7.165   2.457
39300SOL    HW219733   7.623   7.096   2.591
39301SOL     OW19734   0.777   6.147  10.535
39301SOL    HW119735   0.798   6.239  10.550
39301SOL    HW219736   0.828   6.122  10.458
39302SOL     OW19737  11.632   4.979  10.089
39302SOL    HW119738  11.613   5.024  10.171
39302SOL    HW219739  11.727   4.967  10.088
39303SOL     OW19740   7.531   2.854   8.633
39303SOL    HW119741   7.547   2.761   8.615
39303SOL    HW219742   7.589   2.900   8.573
39304SOL     OW19743   8.992   2.974   2.723
39304SOL    HW119744   8.926   2.908   2.743
39304SOL    HW219745   9.039   2.986   2.806
39305SOL     OW19746   8.189   4.029   2.291
39305SOL    HW119747   8.182   4.032   2.196
39305SOL    HW219748   8.273   4.071   2.310
39306SOL     OW19749   7.981  12.915   3.511
39306SOL    HW119750   8.028  12.963   3.443
39306SOL    HW219751   8.032  12.836   3.525
39307SOL     OW19752   4.036  11.092   7.182
39307SOL    HW119753   4.114  11.054   7.142
39307SOL    HW219754   4.045  11.073   7.275
39308SOL     OW19755   5.184  12.246  11.452
39308SOL    HW119756   5.182  12.151  11.464
39308SOL    HW219757   5.144  12.260  11.366
39309SOL     OW19758  13.965   7.671   6.265
39309SOL    HW119759  14.051   7.713   6.277
39309SOL    HW219760  13.977   7.612   6.191
39310SOL     OW19761   5.604  10.223   9.226
39310SOL    HW119762   5.661  10.146   9.230
39310SOL    HW219763   5.662  10.297   9.241
39311SOL     OW19764   4.001   8.675   2.541
39311SOL    HW119765   3.910   8.704   2.546
39311SOL    HW219766   3.995   8.579   2.539
39312SOL     OW19767  11.356   0.302   8.451
39312SOL    HW119768  11.442   0.315   8.411
39312SOL    HW219769  11.299   0.362   8.403
39313SOL     OW19770  12.724  11.614   9.346
39313SOL    HW119771  12.762  11.664   9.419
39313SOL    HW219772  12.687  11.536   9.387
39314SOL     OW19773   7.998   7.033   4.990
39314SOL    HW119774   7.981   7.120   4.954
39314SOL    HW219775   7.911   6.996   5.007
39315SOL     OW19776   1.472   4.760  11.513
39315SOL    HW119777   1.461   4.854  11.528
39315SOL    HW219778   1.560   4.741  11.544
39316SOL     OW19779   1.672   6.045  10.775
39316SOL    HW119780   1.594   6.001  10.741
39316SOL    HW219781   1.637   6.116  10.829
39317SOL     OW19782   0.257   0.026   8.361
39317SOL    HW119783   0.268  14.808   8.391
39317SOL    HW219784   0.345   0.062   8.359
39318SOL     OW19785   7.681   0.304  10.071
39318SOL    HW119786   7.672   0.364   9.998
39318SOL    HW219787   7.601   0.317  10.123
39319SOL     OW19788  12.602  13.156   2.434
39319SOL    HW119789  12.517  13.127   2.399
39319SOL    HW219790  12.636  13.080   2.481
39320SOL     OW19791   9.084  12.117   7.707
39320SOL    HW119792   9.012  12.132   7.768
39320SOL    HW219793   9.056  12.041   7.656
39321SOL     OW19794   3.769  12.704   6.912
39321SOL    HW119795   3.848  12.660   6.943
39321SOL    HW219796   3.752  12.772   6.976
39322SOL     OW19797   3.993   2.398   2.703
39322SOL    HW119798   4.066   2.457   2.686
39322SOL    HW219799   3.974   2.358   2.618
39323SOL     OW19800  10.441   2.379   0.127
39323SOL    HW119801  10.348   2.383   0.149
39323SOL    HW219802  10.444   2.362   0.033
39324SOL     OW19803   4.000  14.278   9.025
39324SOL    HW119804   3.953  14.276   9.109
39324SOL    HW219805   3.940  14.235   8.964
39325SOL     OW19806   5.193   4.052  10.850
39325SOL    HW119807   5.194   4.143  10.881
39325SOL    HW219808   5.237   4.056  10.765
39326SOL     OW19809   5.899  10.941  13.363
39326SOL    HW119810   5.931  10.986  13.441
39326SOL    HW219811   5.974  10.892  13.331
39327SOL     OW19812   3.437   3.447   2.263
39327SOL    HW119813   3.472   3.522   2.310
39327SOL    HW219814   3.508   3.382   2.263
39328SOL     OW19815   5.221   4.929  12.224
39328SOL    HW119816   5.193   5.019  12.244
39328SOL    HW219817   5.293   4.912  12.285
39329SOL     OW19818   6.320   1.053   1.491
39329SOL    HW119819   6.306   1.143   1.462
39329SOL    HW219820   6.300   1.055   1.585
39330SOL     OW19821   2.965  14.443   6.882
39330SOL    HW119822   2.923  14.396   6.953
39330SOL    HW219823   3.029  14.381   6.847
39331SOL     OW19824   9.685  10.220   0.585
39331SOL    HW119825   9.670  10.301   0.537
39331SOL    HW219826   9.630  10.155   0.541
39332SOL     OW19827   2.518  14.249  13.891
39332SOL    HW119828   2.484  14.235  13.802
39332SOL    HW219829   2.463  14.194  13.946
39333SOL     OW19830   3.486   8.635   8.297
39333SOL    HW119831   3.566   8.610   8.252
39333SOL    HW219832   3.460   8.557   8.345
39334SOL     OW19833   3.361   9.564   3.342
39334SOL    HW119834   3.389   9.611   3.264
39334SOL    HW219835   3.307   9.626   3.391
39335SOL     OW19836   5.583   5.092  14.330
39335SOL    HW119837   5.536   5.056  14.405
39335SOL    HW219838   5.574   5.026  14.261
39336SOL     OW19839  12.835  13.563  10.670
39336SOL    HW119840  12.765  13.559  10.605
39336SOL    HW219841  12.832  13.479  10.715
39337SOL     OW19842   9.041  14.224   7.302
39337SOL    HW119843   9.131  14.251   7.288
39337SOL    HW219844   9.013  14.272   7.380
39338SOL     OW19845   1.475   4.967  13.748
39338SOL    HW119846   1.382   4.985  13.736
39338SOL    HW219847   1.500   5.013  13.827
39339SOL     OW19848  12.578   1.105   6.661
39339SOL    HW119849  12.608   1.014   6.662
39339SOL    HW219850  12.484   1.100   6.679
39340SOL     OW19851   2.642   8.204   6.129
39340SOL    HW119852   2.578   8.151   6.083
39340SOL    HW219853   2.594   8.244   6.202
39341SOL     OW19854   0.580   3.630   5.136
39341SOL    HW119855   0.499   3.676   5.157
39341SOL    HW219856   0.629   3.691   5.081
39342SOL     OW19857  14.307   3.148   6.275
39342SOL    HW119858  14.360   3.227   6.279
39342SOL    HW219859  14.254   3.158   6.195
39343SOL     OW19860   9.468  12.948   2.260
39343SOL    HW119861   9.450  13.029   2.307
39343SOL    HW219862   9.468  12.973   2.168
39344SOL     OW19863  11.051   3.132   8.640
39344SOL    HW119864  11.028   3.138   8.733
39344SOL    HW219865  11.028   3.219   8.605
39345SOL     OW19866   0.556   6.851   7.057
39345SOL    HW119867   0.495   6.925   7.055
39345SOL    HW219868   0.504   6.776   7.029
39346SOL     OW19869  13.155   9.935  14.870
39346SOL    HW119870  13.126   9.844  14.871
39346SOL    HW219871  13.185   9.953   0.087
39347SOL     OW19872   9.733  10.689   5.965
39347SOL    HW119873   9.746  10.781   5.943
39347SOL    HW219874   9.820  10.658   5.992
39348SOL     OW19875   0.602   9.594  13.928
39348SOL    HW119876   0.567   9.683  13.937
39348SOL    HW219877   0.529   9.543  13.893
39349SOL     OW19878   0.888  10.356   0.110
39349SOL    HW119879   0.969  10.325   0.068
39349SOL    HW219880   0.913  10.371   0.201
39350SOL     OW19881   8.608  14.661  10.317
39350SOL    HW119882   8.533  14.608  10.344
39350SOL    HW219883   8.586  14.688  10.228
39351SOL     OW19884   2.745   1.804  12.501
39351SOL    HW119885   2.783   1.879  12.547
39351SOL    HW219886   2.753   1.827  12.408
39352SOL     OW19887   0.977  11.802  11.169
39352SOL    HW119888   0.965  11.775  11.260
39352SOL    HW219889   1.006  11.893  11.175
39353SOL     OW19890   1.047   1.626  13.157
39353SOL    HW119891   1.010   1.550  13.201
39353SOL    HW219892   0.971   1.674  13.124
39354SOL     OW19893   7.064   5.538   8.574
39354SOL    HW119894   7.159   5.544   8.586
39354SOL    HW219895   7.051   5.453   8.531
39355SOL     OW19896   0.491  13.858   9.549
39355SOL    HW119897   0.437  13.830   9.475
39355SOL    HW219898   0.484  13.785   9.612
39356SOL     OW19899  10.864  13.612   8.410
39356SOL    HW119900  10.893  13.553   8.340
39356SOL    HW219901  10.941  13.621   8.466
39357SOL     OW19902   3.595  13.567   8.622
39357SOL    HW119903   3.519  13.591   8.675
39357SOL    HW219904   3.637  13.650   8.600
39358SOL     OW19905   5.238  13.144   9.609
39358SOL    HW119906   5.190  13.223   9.585
39358SOL    HW219907   5.174  13.074   9.602
39359SOL     OW19908   8.164   1.754  11.328
39359SOL    HW119909   8.130   1.665  11.331
39359SOL    HW219910   8.181   1.770  11.235
39360SOL     OW19911   4.711  13.503  13.038
39360SOL    HW119912   4.737  13.483  13.128
39360SOL    HW219913   4.673  13.591  13.043
39361SOL     OW19914   0.416   2.727   8.571
39361SOL    HW119915   0.480   2.731   8.500
39361SOL    HW219916   0.462   2.683   8.642
39362SOL     OW19917  13.261  12.569   9.043
39362SOL    HW119918  13.297  12.629   8.979
39362SOL    HW219919  13.306  12.486   9.028
39363SOL     OW19920   0.312   5.272   3.517
39363SOL    HW119921   0.310   5.363   3.545
39363SOL    HW219922   0.370   5.229   3.580
39364SOL     OW19923   4.318   7.042   5.190
39364SOL    HW119924   4.306   7.023   5.284
39364SOL    HW219925   4.229   7.037   5.154
39365SOL     OW19926   4.192   2.577   2.665
39365SOL    HW119927   4.178   2.589   2.759
39365SOL    HW219928   4.231   2.659   2.636
39366SOL     OW19929   2.059   6.195  11.094
39366SOL    HW119930   1.984   6.238  11.054
39366SOL    HW219931   2.031   6.104  11.104
39367SOL     OW19932   5.610   0.975   8.647
39367SOL    HW119933   5.534   0.930   8.611
39367SOL    HW219934   5.574   1.048   8.697
39368SOL     OW19935   2.912   0.414   7.826
39368SOL    HW119936   2.822   0.393   7.848
39368SOL    HW219937   2.963   0.345   7.868
39369SOL     OW19938   6.068   7.020  11.362
39369SOL    HW119939   5.980   7.040  11.329
39369SOL    HW219940   6.111   7.105  11.369
39370SOL     OW19941   0.085   9.074  11.922
39370SOL    HW119942   0.114   8.982  11.926
39370SOL    HW219943   0.029   9.078  11.845
39371SOL     OW19944   1.351  10.987   4.751
39371SOL    HW119945   1.316  11.046   4.817
39371SOL    HW219946   1.432  11.029   4.721
39372SOL     OW19947  13.781  12.734   9.632
39372SOL    HW119948  13.775  12.829   9.635
39372SOL    HW219949  13.766  12.711   9.540
39373SOL     OW19950   2.375   0.623  13.562
39373SOL    HW119951   2.460   0.661  13.544
39373SOL    HW219952   2.314   0.675  13.511
39374SOL     OW19953   7.642   1.311   3.550
39374SOL    HW119954   7.691   1.231   3.531
39374SOL    HW219955   7.680   1.377   3.492
39375SOL     OW19956   8.024   0.640   4.529
39375SOL    HW119957   7.953   0.609   4.585
39375SOL    HW219958   7.988   0.637   4.440
39376SOL     OW19959  12.894  14.806   9.933
39376SOL    HW119960  12.799  14.821   9.940
39376SOL    HW219961  12.906  14.715   9.958
39377SOL     OW19962  14.615  11.987   5.856
39377SOL    HW119963  14.536  11.993   5.803
39377SOL    HW219964  14.585  11.951   5.939
39378SOL     OW19965   7.376   8.149   0.246
39378SOL    HW119966   7.284   8.125   0.235
39378SOL    HW219967   7.374   8.242   0.270
39379SOL     OW19968  11.987   7.992  11.318
39379SOL    HW119969  11.892   7.978  11.307
39379SOL    HW219970  12.000   8.084  11.295
39380SOL     OW19971   5.313   8.536   4.534
39380SOL    HW119972   5.363   8.566   4.458
39380SOL    HW219973   5.267   8.458   4.503
39381SOL     OW19974  10.898   5.927   8.801
39381SOL    HW119975  10.873   5.897   8.888
39381SOL    HW219976  10.815   5.942   8.756
39382SOL     OW19977   0.207   2.069  12.367
39382SOL    HW119978   0.171   2.156  12.383
39382SOL    HW219979   0.183   2.018  12.445
39383SOL     OW19980  10.626   4.231   1.180
39383SOL    HW119981  10.659   4.154   1.227
39383SOL    HW219982  10.637   4.303   1.242
39384SOL     OW19983  10.957  11.536   1.405
39384SOL    HW119984  10.884  11.594   1.385
39384SOL    HW219985  11.033  11.578   1.365
39385SOL     OW19986   6.739  13.104  12.815
39385SOL    HW119987   6.776  13.044  12.750
39385SOL    HW219988   6.813  13.155  12.846
39386SOL     OW19989   1.551   0.167   8.205
39386SOL    HW119990   1.516   0.234   8.263
39386SOL    HW219991   1.546   0.086   8.256
39387SOL     OW19992  13.381   0.223   0.325
39387SOL    HW119993  13.331   0.294   0.285
39387SOL    HW219994  13.470   0.257   0.332
39388SOL     OW19995   7.755  12.335  12.871
39388SOL    HW119996   7.848  12.330  12.891
39388SOL    HW219997   7.720  12.399  12.933
39389SOL     OW19998   0.602   1.662  14.612
39389SOL    HW119999   0.521   1.663  14.662
39389SOL    HW220000   0.648   1.584  14.643
39390SOL     OW20001   9.533   3.362   0.516
39390SOL    HW120002   9.528   3.267   0.531
39390SOL    HW220003   9.597   3.371   0.446
39391SOL     OW20004   3.497  11.942  14.789
39391SOL    HW120005   3.561  11.871  14.784
39391SOL    HW220006   3.413  11.901  14.771
39392SOL     OW20007   9.885  13.496  10.863
39392SOL    HW120008   9.931  13.543  10.793
39392SOL    HW220009   9.915  13.538  10.943
39393SOL     OW20010   6.725  12.135   6.858
39393SOL    HW120011   6.778  12.056   6.855
39393SOL    HW220012   6.639  12.108   6.824
39394SOL     OW20013  10.281   1.936  11.495
39394SOL    HW120014  10.375   1.926  11.508
39394SOL    HW220015  10.250   1.981  11.574
39395SOL     OW20016  14.758   7.688   9.532
39395SOL    HW120017  14.840   7.716   9.492
39395SOL    HW220018  14.769   7.707   9.625
39396SOL     OW20019  11.458   4.641   5.901
39396SOL    HW120020  11.530   4.644   5.965
39396SOL    HW220021  11.502   4.640   5.816
39397SOL     OW20022   0.582   6.137   5.085
39397SOL    HW120023   0.503   6.191   5.087
39397SOL    HW220024   0.552   6.050   5.059
39398SOL     OW20025   5.878  12.375   1.925
39398SOL    HW120026   5.823  12.322   1.866
39398SOL    HW220027   5.936  12.423   1.867
39399SOL     OW20028   2.790   6.524   3.355
39399SOL    HW120029   2.826   6.563   3.275
39399SOL    HW220030   2.703   6.494   3.330
39400SOL     OW20031   8.913   7.808   8.180
39400SOL    HW120032   8.980   7.760   8.132
39400SOL    HW220033   8.962   7.869   8.236
39401SOL     OW20034   8.260   6.175  12.895
39401SOL    HW120035   8.299   6.125  12.967
39401SOL    HW220036   8.226   6.254  12.936
39402SOL     OW20037  13.159   6.355   1.724
39402SOL    HW120038  13.128   6.441   1.695
39402SOL    HW220039  13.220   6.375   1.796
39403SOL     OW20040  12.749   7.230   4.617
39403SOL    HW120041  12.824   7.177   4.591
39403SOL    HW220042  12.702   7.247   4.535
39404SOL     OW20043   0.148  11.764  11.403
39404SOL    HW120044   0.091  11.837  11.380
39404SOL    HW220045   0.237  11.799  11.395
39405SOL     OW20046  14.547  13.062   5.279
39405SOL    HW120047  14.560  12.976   5.317
39405SOL    HW220048  14.505  13.045   5.195
39406SOL     OW20049   1.627   0.799   5.687
39406SOL    HW120050   1.631   0.720   5.633
39406SOL    HW220051   1.578   0.772   5.765
39407SOL     OW20052  14.383   4.997   4.033
39407SOL    HW120053  14.310   4.938   4.016
39407SOL    HW220054  14.446   4.945   4.083
39408SOL     OW20055   9.124   9.670   4.172
39408SOL    HW120056   9.037   9.641   4.145
39408SOL    HW220057   9.118   9.765   4.176
39409SOL     OW20058  11.209   2.887   1.127
39409SOL    HW120059  11.138   2.950   1.108
39409SOL    HW220060  11.286   2.925   1.085
39410SOL     OW20061   4.446   4.267   0.590
39410SOL    HW120062   4.473   4.191   0.538
39410SOL    HW220063   4.358   4.287   0.560
39411SOL     OW20064   3.136  13.156  11.103
39411SOL    HW120065   3.172  13.068  11.112
39411SOL    HW220066   3.046  13.143  11.074
39412SOL     OW20067   2.283   3.343   3.995
39412SOL    HW120068   2.204   3.314   3.950
39412SOL    HW220069   2.348   3.352   3.925
39413SOL     OW20070  12.193  13.139   1.616
39413SOL    HW120071  12.165  13.097   1.697
39413SOL    HW220072  12.185  13.233   1.634
39414SOL     OW20073   0.369  10.913   6.410
39414SOL    HW120074   0.447  10.929   6.358
39414SOL    HW220075   0.300  10.898   6.346
39415SOL     OW20076   8.260   5.309  13.422
39415SOL    HW120077   8.207   5.258  13.483
39415SOL    HW220078   8.313   5.245  13.375
39416SOL     OW20079   7.374   4.521  10.817
39416SOL    HW120080   7.344   4.473  10.894
39416SOL    HW220081   7.382   4.454  10.749
39417SOL     OW20082  11.563   9.830   3.525
39417SOL    HW120083  11.505   9.809   3.451
39417SOL    HW220084  11.651   9.814   3.491
39418SOL     OW20085  12.048   8.295   6.822
39418SOL    HW120086  12.051   8.373   6.767
39418SOL    HW220087  12.046   8.329   6.912
39419SOL     OW20088  11.313  11.091   1.015
39419SOL    HW120089  11.304  11.154   1.086
39419SOL    HW220090  11.391  11.120   0.967
39420SOL     OW20091   6.250  11.337   4.877
39420SOL    HW120092   6.220  11.251   4.905
39420SOL    HW220093   6.346  11.333   4.883
39421SOL     OW20094   6.909   7.391   9.886
39421SOL    HW120095   6.830   7.394   9.831
39421SOL    HW220096   6.962   7.321   9.848
39422SOL     OW20097   1.221  13.799   6.309
39422SOL    HW120098   1.253  13.888   6.322
39422SOL    HW220099   1.167  13.781   6.386
39423SOL     OW20100  12.916   4.260   0.808
39423SOL    HW120101  12.854   4.262   0.881
39423SOL    HW220102  12.995   4.220   0.845
39424SOL     OW20103   2.795  12.289   1.370
39424SOL    HW120104   2.884  12.276   1.337
39424SOL    HW220105   2.742  12.301   1.291
39425SOL     OW20106  11.612  13.596   3.280
39425SOL    HW120107  11.624  13.503   3.299
39425SOL    HW220108  11.636  13.641   3.361
39426SOL     OW20109   5.182   0.111   5.439
39426SOL    HW120110   5.138   0.156   5.367
39426SOL    HW220111   5.275   0.128   5.425
39427SOL     OW20112   0.017   6.996   7.383
39427SOL    HW120113   0.079   6.963   7.449
39427SOL    HW220114   0.009   6.925   7.320
39428SOL     OW20115   0.429   1.354   7.771
39428SOL    HW120116   0.513   1.398   7.788
39428SOL    HW220117   0.454   1.268   7.738
39429SOL     OW20118   4.560  10.613   3.670
39429SOL    HW120119   4.647  10.648   3.648
39429SOL    HW220120   4.503  10.650   3.603
39430SOL     OW20121   4.361   3.682   7.047
39430SOL    HW120122   4.385   3.750   7.110
39430SOL    HW220123   4.287   3.637   7.087
39431SOL     OW20124   0.827   6.169   0.848
39431SOL    HW120125   0.769   6.244   0.832
39431SOL    HW220126   0.802   6.138   0.935
39432SOL     OW20127   3.701   9.308   5.964
39432SOL    HW120128   3.633   9.358   6.009
39432SOL    HW220129   3.726   9.362   5.889
39433SOL     OW20130   6.021   2.246  12.468
39433SOL    HW120131   6.048   2.231  12.558
39433SOL    HW220132   5.936   2.202  12.460
39434SOL     OW20133   8.614   3.861   7.776
39434SOL    HW120134   8.610   3.932   7.841
39434SOL    HW220135   8.635   3.906   7.694
39435SOL     OW20136   3.614   7.606  13.419
39435SOL    HW120137   3.604   7.639  13.508
39435SOL    HW220138   3.543   7.646  13.370
39436SOL     OW20139   9.845  12.720  13.869
39436SOL    HW120140   9.768  12.667  13.849
39436SOL    HW220141   9.913  12.656  13.891
39437SOL     OW20142  14.479   7.173  11.662
39437SOL    HW120143  14.455   7.241  11.600
39437SOL    HW220144  14.548   7.212  11.716
39438SOL     OW20145   1.508   3.151  10.698
39438SOL    HW120146   1.419   3.186  10.711
39438SOL    HW220147   1.496   3.057  10.692
39439SOL     OW20148   4.156   2.547   9.662
39439SOL    HW120149   4.248   2.522   9.672
39439SOL    HW220150   4.113   2.467   9.633
39440SOL     OW20151  14.241   7.339  10.800
39440SOL    HW120152  14.174   7.273  10.783
39440SOL    HW220153  14.322   7.289  10.812
39441SOL     OW20154   3.928   2.056  13.094
39441SOL    HW120155   3.934   2.129  13.155
39441SOL    HW220156   3.835   2.049  13.073
39442SOL     OW20157   0.538  13.056  10.006
39442SOL    HW120158   0.630  13.069   9.983
39442SOL    HW220159   0.512  12.976   9.960
39443SOL     OW20160   7.945   8.639   8.513
39443SOL    HW120161   7.964   8.732   8.509
39443SOL    HW220162   7.859   8.633   8.555
39444SOL     OW20163   8.081   1.096   0.497
39444SOL    HW120164   8.130   1.015   0.508
39444SOL    HW220165   8.139   1.153   0.448
39445SOL     OW20166   0.277  11.954   9.968
39445SOL    HW120167   0.349  11.949   9.905
39445SOL    HW220168   0.199  11.968   9.914
39446SOL     OW20169   2.410   0.773  12.259
39446SOL    HW120170   2.345   0.733  12.317
39446SOL    HW220171   2.372   0.764  12.171
39447SOL     OW20172   0.418   8.246   1.253
39447SOL    HW120173   0.488   8.261   1.189
39447SOL    HW220174   0.345   8.212   1.201
39448SOL     OW20175   8.423  13.040   1.852
39448SOL    HW120176   8.387  13.100   1.917
39448SOL    HW220177   8.400  13.081   1.768
39449SOL     OW20178   6.771   8.276  11.689
39449SOL    HW120179   6.768   8.221  11.767
39449SOL    HW220180   6.787   8.215  11.617
39450SOL     OW20181   5.196  13.341  13.656
39450SOL    HW120182   5.258  13.380  13.718
39450SOL    HW220183   5.248  13.327  13.577
39451SOL     OW20184   4.490  14.316  11.393
39451SOL    HW120185   4.508  14.407  11.419
39451SOL    HW220186   4.577  14.278  11.379
39452SOL     OW20187   6.120  11.092   3.477
39452SOL    HW120188   6.063  11.111   3.552
39452SOL    HW220189   6.209  11.101   3.512
39453SOL     OW20190   0.917   7.263   8.200
39453SOL    HW120191   0.843   7.212   8.233
39453SOL    HW220192   0.939   7.323   8.272
39454SOL     OW20193   9.174   5.412   4.294
39454SOL    HW120194   9.261   5.432   4.259
39454SOL    HW220195   9.151   5.328   4.255
39455SOL     OW20196   4.535   2.291  11.484
39455SOL    HW120197   4.576   2.246  11.410
39455SOL    HW220198   4.466   2.344  11.444
39456SOL     OW20199   7.991  12.052   0.244
39456SOL    HW120200   8.027  12.041   0.156
39456SOL    HW220201   8.066  12.080   0.297
39457SOL     OW20202   4.246   6.419  12.249
39457SOL    HW120203   4.189   6.342  12.251
39457SOL    HW220204   4.287   6.420  12.336
39458SOL     OW20205   5.068   2.124   7.802
39458SOL    HW120206   5.094   2.049   7.749
39458SOL    HW220207   5.145   2.145   7.854
39459SOL     OW20208   3.247   9.358   2.784
39459SOL    HW120209   3.203   9.369   2.699
39459SOL    HW220210   3.190   9.298   2.832
39460SOL     OW20211   0.791   5.840  10.456
39460SOL    HW120212   0.783   5.893  10.536
39460SOL    HW220213   0.801   5.903  10.386
39461SOL     OW20214   6.105   5.351   7.809
39461SOL    HW120215   6.184   5.299   7.792
39461SOL    HW220216   6.053   5.342   7.729
39462SOL     OW20217   2.597  12.714   9.985
39462SOL    HW120218   2.576  12.624  10.011
39462SOL    HW220219   2.603  12.763  10.067
39463SOL     OW20220   1.555   9.832  10.641
39463SOL    HW120221   1.579   9.740  10.656
39463SOL    HW220222   1.525   9.863  10.726
39464SOL     OW20223   3.435  12.417   4.100
39464SOL    HW120224   3.441  12.482   4.030
39464SOL    HW220225   3.447  12.467   4.181
39465SOL     OW20226   8.404   1.601   9.827
39465SOL    HW120227   8.463   1.527   9.811
39465SOL    HW220228   8.459   1.670   9.862
39466SOL     OW20229   0.424   4.461   4.766
39466SOL    HW120230   0.355   4.416   4.815
39466SOL    HW220231   0.490   4.394   4.750
39467SOL     OW20232   6.933   3.672  13.313
39467SOL    HW120233   6.970   3.629  13.236
39467SOL    HW220234   6.886   3.603  13.359
39468SOL     OW20235  12.180   6.833  14.212
39468SOL    HW120236  12.088   6.829  14.240
39468SOL    HW220237  12.176   6.847  14.118
39469SOL     OW20238   4.054   8.014  11.913
39469SOL    HW120239   4.126   8.009  11.851
39469SOL    HW220240   4.073   8.090  11.967
39470SOL     OW20241  13.152   0.463  10.155
39470SOL    HW120242  13.180   0.428  10.071
39470SOL    HW220243  13.223   0.441  10.216
39471SOL     OW20244   1.382  12.435   7.282
39471SOL    HW120245   1.314  12.477   7.335
39471SOL    HW220246   1.459  12.491   7.293
39472SOL     OW20247   9.342   9.122  11.480
39472SOL    HW120248   9.264   9.146  11.531
39472SOL    HW220249   9.316   9.045  11.430
39473SOL     OW20250  13.223   6.764  12.285
39473SOL    HW120251  13.136   6.755  12.247
39473SOL    HW220252  13.223   6.849  12.328
39474SOL     OW20253   4.293   5.737   0.547
39474SOL    HW120254   4.217   5.744   0.489
39474SOL    HW220255   4.368   5.756   0.490
39475SOL     OW20256   4.503   0.860   2.168
39475SOL    HW120257   4.572   0.918   2.134
39475SOL    HW220258   4.434   0.920   2.196
39476SOL     OW20259   2.203  10.228  14.642
39476SOL    HW120260   2.121  10.206  14.597
39476SOL    HW220261   2.199  10.323  14.653
39477SOL     OW20262  10.875   9.731   5.161
39477SOL    HW120263  10.816   9.725   5.085
39477SOL    HW220264  10.824   9.696   5.234
39478SOL     OW20265  12.937   6.231  12.602
39478SOL    HW120266  12.932   6.304  12.539
39478SOL    HW220267  12.893   6.159  12.558
39479SOL     OW20268  13.573   6.197  10.817
39479SOL    HW120269  13.515   6.243  10.879
39479SOL    HW220270  13.578   6.255  10.741
39480SOL     OW20271   4.186   8.506   4.047
39480SOL    HW120272   4.218   8.582   4.096
39480SOL    HW220273   4.211   8.431   4.101
39481SOL     OW20274   5.517   0.013  10.205
39481SOL    HW120275   5.552   0.085  10.257
39481SOL    HW220276   5.581  14.815  10.215
39482SOL     OW20277   9.522  11.914   2.881
39482SOL    HW120278   9.538  11.943   2.791
39482SOL    HW220279   9.471  11.833   2.872
39483SOL     OW20280   4.811  14.005   4.085
39483SOL    HW120281   4.735  14.040   4.038
39483SOL    HW220282   4.882  14.006   4.020
39484SOL     OW20283  14.210   1.370   2.588
39484SOL    HW120284  14.160   1.450   2.574
39484SOL    HW220285  14.182   1.312   2.518
39485SOL     OW20286   5.054   8.088   6.467
39485SOL    HW120287   4.995   8.163   6.480
39485SOL    HW220288   5.083   8.065   6.555
39486SOL     OW20289  10.468   0.800  10.026
39486SOL    HW120290  10.430   0.771   9.943
39486SOL    HW220291  10.562   0.786  10.016
39487SOL     OW20292   0.978   5.251  13.467
39487SOL    HW120293   1.007   5.300  13.390
39487SOL    HW220294   0.884   5.239  13.453
39488SOL     OW20295  14.555   6.798   9.904
39488SOL    HW120296  14.539   6.794   9.998
39488SOL    HW220297  14.606   6.720   9.885
39489SOL     OW20298  10.751   5.938  13.434
39489SOL    HW120299  10.722   5.885  13.509
39489SOL    HW220300  10.843   5.916  13.423
39490SOL     OW20301   8.948   4.832  11.027
39490SOL    HW120302   8.961   4.820  11.121
39490SOL    HW220303   9.016   4.778  10.986
39491SOL     OW20304  11.153   3.219  12.498
39491SOL    HW120305  11.169   3.156  12.568
39491SOL    HW220306  11.235   3.269  12.492
39492SOL     OW20307   1.236   4.059   7.504
39492SOL    HW120308   1.292   4.097   7.571
39492SOL    HW220309   1.235   4.125   7.434
39493SOL     OW20310  12.380   6.870   7.002
39493SOL    HW120311  12.329   6.790   6.985
39493SOL    HW220312  12.465   6.839   7.030
39494SOL     OW20313   2.423   3.880   2.533
39494SOL    HW120314   2.407   3.923   2.449
39494SOL    HW220315   2.384   3.938   2.598
39495SOL     OW20316   9.125   1.037  11.538
39495SOL    HW120317   9.146   0.986  11.459
39495SOL    HW220318   9.126   1.128  11.508
39496SOL     OW20319   3.564  14.509  13.534
39496SOL    HW120320   3.552  14.604  13.524
39496SOL    HW220321   3.518  14.487  13.614
39497SOL     OW20322   4.242   7.668  11.351
39497SOL    HW120323   4.325   7.653  11.396
39497SOL    HW220324   4.205   7.581  11.340
39498SOL     OW20325   9.873   3.640  13.345
39498SOL    HW120326   9.937   3.703  13.313
39498SOL    HW220327   9.793   3.659  13.296
39499SOL     OW20328   2.180   7.332   0.482
39499SOL    HW120329   2.167   7.238   0.496
39499SOL    HW220330   2.256   7.354   0.536
39500SOL     OW20331  12.920   4.101   1.828
39500SOL    HW120332  12.842   4.048   1.816
39500SOL    HW220333  12.992   4.038   1.835
39501SOL     OW20334   7.798  11.423  11.824
39501SOL    HW120335   7.735  11.476  11.873
39501SOL    HW220336   7.806  11.343  11.875
39502SOL     OW20337   9.421   0.001   9.473
39502SOL    HW120338   9.514  14.855   9.458
39502SOL    HW220339   9.421   0.074   9.535
39503SOL     OW20340   8.051   5.710  11.872
39503SOL    HW120341   8.130   5.667  11.839
39503SOL    HW220342   8.003   5.735  11.794
39504SOL     OW20343  10.433   8.978  14.581
39504SOL    HW120344  10.381   8.911  14.537
39504SOL    HW220345  10.464   8.936  14.661
39505SOL     OW20346  10.392   9.157   5.368
39505SOL    HW120347  10.417   9.217   5.297
39505SOL    HW220348  10.389   9.212   5.446
39506SOL     OW20349  14.551   6.089   9.932
39506SOL    HW120350  14.473   6.037   9.954
39506SOL    HW220351  14.536   6.119   9.843
39507SOL     OW20352   8.378   3.855  10.311
39507SOL    HW120353   8.392   3.925  10.375
39507SOL    HW220354   8.289   3.869  10.279
39508SOL     OW20355   8.816  13.791   2.302
39508SOL    HW120356   8.746  13.778   2.367
39508SOL    HW220357   8.868  13.711   2.306
39509SOL     OW20358   2.784   4.079   4.775
39509SOL    HW120359   2.716   4.131   4.731
39509SOL    HW220360   2.847   4.143   4.807
39510SOL     OW20361   9.117   8.797   3.125
39510SOL    HW120362   9.131   8.831   3.036
39510SOL    HW220363   9.142   8.704   3.119
39511SOL     OW20364   2.681   6.918   1.378
39511SOL    HW120365   2.718   6.998   1.416
39511SOL    HW220366   2.709   6.921   1.286
39512SOL     OW20367   4.722   8.029   0.885
39512SOL    HW120368   4.718   7.954   0.944
39512SOL    HW220369   4.804   8.073   0.905
39513SOL     OW20370   8.028   1.227   5.440
39513SOL    HW120371   8.122   1.240   5.438
39513SOL    HW220372   8.006   1.225   5.533
39514SOL     OW20373   9.097   9.121  13.452
39514SOL    HW120374   9.107   9.123  13.357
39514SOL    HW220375   9.160   9.186  13.484
39515SOL     OW20376  10.067   6.879  13.941
39515SOL    HW120377  10.049   6.882  13.847
39515SOL    HW220378  10.149   6.830  13.948
39516SOL     OW20379   8.687   6.170   4.189
39516SOL    HW120380   8.687   6.221   4.270
39516SOL    HW220381   8.639   6.090   4.211
39517SOL     OW20382  13.623   5.175  10.095
39517SOL    HW120383  13.611   5.080  10.094
39517SOL    HW220384  13.558   5.208  10.033
39518SOL     OW20385  12.856   2.951   4.568
39518SOL    HW120386  12.826   2.964   4.478
39518SOL    HW220387  12.946   2.985   4.569
39519SOL     OW20388  12.797   7.508   5.191
39519SOL    HW120389  12.748   7.427   5.202
39519SOL    HW220390  12.874   7.483   5.139
39520SOL     OW20391   5.784  14.147   7.226
39520SOL    HW120392   5.850  14.206   7.189
39520SOL    HW220393   5.743  14.107   7.149
39521SOL     OW20394   6.489   2.929   9.156
39521SOL    HW120395   6.542   2.939   9.235
39521SOL    HW220396   6.516   3.002   9.100
39522SOL     OW20397   4.960  10.149  11.123
39522SOL    HW120398   4.986  10.201  11.047
39522SOL    HW220399   5.034  10.156  11.183
39523SOL     OW20400  10.711  10.876   7.593
39523SOL    HW120401  10.658  10.938   7.642
39523SOL    HW220402  10.727  10.804   7.654
39524SOL     OW20403   4.351   5.215   6.466
39524SOL    HW120404   4.282   5.156   6.493
39524SOL    HW220405   4.431   5.178   6.504
39525SOL     OW20406   4.052   3.030   4.012
39525SOL    HW120407   4.031   3.097   3.947
39525SOL    HW220408   3.986   3.042   4.080
39526SOL     OW20409   7.858   9.865  11.039
39526SOL    HW120410   7.902   9.906  11.114
39526SOL    HW220411   7.767   9.893  11.046
39527SOL     OW20412   0.200  11.191   5.480
39527SOL    HW120413   0.278  11.146   5.448
39527SOL    HW220414   0.189  11.159   5.570
39528SOL     OW20415   0.667   6.606   2.841
39528SOL    HW120416   0.629   6.593   2.928
39528SOL    HW220417   0.725   6.681   2.852
39529SOL     OW20418  12.748  11.868   3.501
39529SOL    HW120419  12.656  11.893   3.492
39529SOL    HW220420  12.773  11.899   3.588
39530SOL     OW20421  12.168   7.663   6.135
39530SOL    HW120422  12.186   7.569   6.136
39530SOL    HW220423  12.138   7.682   6.224
39531SOL     OW20424  13.656   1.165   1.349
39531SOL    HW120425  13.607   1.248   1.348
39531SOL    HW220426  13.747   1.192   1.358
39532SOL     OW20427   6.906   4.482   0.772
39532SOL    HW120428   6.976   4.426   0.737
39532SOL    HW220429   6.840   4.421   0.804
39533SOL     OW20430   8.426   0.399   1.903
39533SOL    HW120431   8.403   0.313   1.939
39533SOL    HW220432   8.355   0.418   1.842
39534SOL     OW20433  13.278  13.320   4.990
39534SOL    HW120434  13.355  13.327   5.047
39534SOL    HW220435  13.297  13.380   4.918
39535SOL     OW20436  10.012  14.667  14.619
39535SOL    HW120437   9.950  14.619  14.673
39535SOL    HW220438  10.002  14.629  14.532
39536SOL     OW20439   7.422  13.440  11.046
39536SOL    HW120440   7.514  13.436  11.073
39536SOL    HW220441   7.423  13.484  10.962
39537SOL     OW20442   1.209   1.016  12.832
39537SOL    HW120443   1.138   1.006  12.896
39537SOL    HW220444   1.282   0.968  12.869
39538SOL     OW20445  14.398   1.528  13.499
39538SOL    HW120446  14.491   1.524  13.522
39538SOL    HW220447  14.381   1.621  13.484
39539SOL     OW20448  13.659  12.410   8.026
39539SOL    HW120449  13.659  12.505   8.011
39539SOL    HW220450  13.649  12.402   8.121
39540SOL     OW20451  13.969   5.380   2.975
39540SOL    HW120452  13.877   5.364   2.954
39540SOL    HW220453  14.005   5.293   2.992
39541SOL     OW20454  11.379  11.594  12.851
39541SOL    HW120455  11.422  11.659  12.906
39541SOL    HW220456  11.372  11.636  12.765
39542SOL     OW20457   6.114  13.509   9.659
39542SOL    HW120458   6.188  13.564   9.633
39542SOL    HW220459   6.126  13.495   9.753
39543SOL     OW20460  13.792   9.035   2.469
39543SOL    HW120461  13.808   8.978   2.394
39543SOL    HW220462  13.847   9.112   2.452
39544SOL     OW20463   6.264  11.906   7.463
39544SOL    HW120464   6.230  11.820   7.487
39544SOL    HW220465   6.233  11.965   7.532
39545SOL     OW20466   2.856   6.362   4.886
39545SOL    HW120467   2.784   6.423   4.871
39545SOL    HW220468   2.933   6.405   4.849
39546SOL     OW20469  10.458   6.019   0.463
39546SOL    HW120470  10.470   5.933   0.504
39546SOL    HW220471  10.401   6.066   0.523
39547SOL     OW20472   1.291   4.289  13.163
39547SOL    HW120473   1.347   4.293  13.086
39547SOL    HW220474   1.210   4.250  13.132
39548SOL     OW20475  13.314   5.773   4.847
39548SOL    HW120476  13.232   5.822   4.840
39548SOL    HW220477  13.311   5.735   4.935
39549SOL     OW20478   2.240  12.803   9.605
39549SOL    HW120479   2.306  12.838   9.666
39549SOL    HW220480   2.283  12.805   9.520
39550SOL     OW20481   3.938   4.610  12.176
39550SOL    HW120482   3.959   4.569  12.260
39550SOL    HW220483   3.868   4.556  12.140
39551SOL     OW20484   0.312   7.825   0.072
39551SOL    HW120485   0.400   7.843   0.104
39551SOL    HW220486   0.326   7.796  14.853
39552SOL     OW20487   9.959   6.378  11.209
39552SOL    HW120488   9.909   6.436  11.151
39552SOL    HW220489   9.894   6.341  11.269
39553SOL     OW20490  14.263  14.509   8.230
39553SOL    HW120491  14.332  14.472   8.285
39553SOL    HW220492  14.202  14.548   8.292
39554SOL     OW20493   4.555   2.570   5.703
39554SOL    HW120494   4.479   2.611   5.660
39554SOL    HW220495   4.544   2.477   5.685
39555SOL     OW20496  13.305   5.574   8.310
39555SOL    HW120497  13.398   5.596   8.316
39555SOL    HW220498  13.265   5.619   8.384
39556SOL     OW20499   5.229   3.118   2.824
39556SOL    HW120500   5.152   3.173   2.838
39556SOL    HW220501   5.233   3.107   2.729
39557SOL     OW20502   0.979   8.192   0.276
39557SOL    HW120503   0.888   8.221   0.271
39557SOL    HW220504   0.987   8.155   0.364
39558SOL     OW20505  13.749  11.164   7.556
39558SOL    HW120506  13.787  11.095   7.501
39558SOL    HW220507  13.656  11.142   7.561
39559SOL     OW20508   3.932   6.371   6.622
39559SOL    HW120509   3.979   6.446   6.659
39559SOL    HW220510   3.911   6.398   6.532
39560SOL     OW20511  10.525  12.344   1.204
39560SOL    HW120512  10.570  12.289   1.141
39560SOL    HW220513  10.586  12.354   1.276
39561SOL     OW20514  12.058   9.093  14.116
39561SOL    HW120515  12.088   9.136  14.036
39561SOL    HW220516  11.964   9.081  14.103
39562SOL     OW20517   7.548  14.413  11.552
39562SOL    HW120518   7.496  14.333  11.562
39562SOL    HW220519   7.538  14.436  11.460
39563SOL     OW20520   5.797  14.816   9.999
39563SOL    HW120521   5.877  14.868  10.001
39563SOL    HW220522   5.747  14.849   9.924
39564SOL     OW20523   4.019   4.308  10.044
39564SOL    HW120524   4.018   4.276   9.954
39564SOL    HW220525   3.952   4.376  10.047
39565SOL     OW20526   1.959   1.170   8.503
39565SOL    HW120527   1.918   1.184   8.417
39565SOL    HW220528   2.052   1.165   8.484
39566SOL     OW20529   2.900   1.968   5.147
39566SOL    HW120530   2.929   1.942   5.059
39566SOL    HW220531   2.981   1.991   5.193
39567SOL     OW20532  11.359   6.610   3.546
39567SOL    HW120533  11.404   6.646   3.469
39567SOL    HW220534  11.357   6.683   3.609
39568SOL     OW20535   6.963  14.407   3.618
39568SOL    HW120536   6.892  14.446   3.568
39568SOL    HW220537   7.042  14.451   3.587
39569SOL     OW20538   0.103  13.778  13.617
39569SOL    HW120539   0.188  13.820  13.600
39569SOL    HW220540   0.102  13.763  13.711
39570SOL     OW20541   0.699   3.500   3.208
39570SOL    HW120542   0.624   3.479   3.263
39570SOL    HW220543   0.665   3.497   3.119
39571SOL     OW20544   7.571  14.772  12.922
39571SOL    HW120545   7.500  14.835  12.906
39571SOL    HW220546   7.526  14.693  12.951
39572SOL     OW20547   4.522  11.811   5.239
39572SOL    HW120548   4.588  11.761   5.288
39572SOL    HW220549   4.550  11.902   5.247
39573SOL     OW20550   8.528  12.952  11.723
39573SOL    HW120551   8.615  12.949  11.683
39573SOL    HW220552   8.468  12.969  11.650
39574SOL     OW20553   0.282   0.077  12.657
39574SOL    HW120554   0.373   0.094  12.631
39574SOL    HW220555   0.238   0.057  12.575
39575SOL     OW20556  10.701  10.301   1.749
39575SOL    HW120557  10.662  10.218   1.777
39575SOL    HW220558  10.657  10.320   1.666
39576SOL     OW20559  10.421  11.491   8.759
39576SOL    HW120560  10.330  11.494   8.729
39576SOL    HW220561  10.472  11.483   8.678
39577SOL     OW20562   5.647   3.443   6.946
39577SOL    HW120563   5.722   3.464   6.891
39577SOL    HW220564   5.572   3.482   6.902
39578SOL     OW20565   7.028  11.236  14.448
39578SOL    HW120566   6.970  11.295  14.496
39578SOL    HW220567   7.035  11.275  14.361
39579SOL     OW20568  12.738   9.845  13.560
39579SOL    HW120569  12.763   9.824  13.650
39579SOL    HW220570  12.690   9.927  13.567
39580SOL     OW20571  14.582   0.041  11.031
39580SOL    HW120572  14.502   0.039  10.977
39580SOL    HW220573  14.557  14.868  11.111
39581SOL     OW20574  14.265   0.311   7.304
39581SOL    HW120575  14.357   0.304   7.332
39581SOL    HW220576  14.231   0.385   7.355
39582SOL     OW20577   7.485   9.869   3.046
39582SOL    HW120578   7.501   9.895   3.137
39582SOL    HW220579   7.391   9.854   3.041
39583SOL     OW20580   3.888   7.941   2.243
39583SOL    HW120581   3.973   7.977   2.268
39583SOL    HW220582   3.828   7.970   2.312
39584SOL     OW20583   8.727   9.219   2.333
39584SOL    HW120584   8.809   9.172   2.323
39584SOL    HW220585   8.704   9.249   2.245
39585SOL     OW20586   0.118   4.695   9.641
39585SOL    HW120587   0.101   4.622   9.582
39585SOL    HW220588   0.161   4.656   9.717
39586SOL     OW20589   6.176  13.677  12.922
39586SOL    HW120590   6.200  13.609  12.986
39586SOL    HW220591   6.087  13.703  12.947
39587SOL     OW20592  10.400   5.614   2.841
39587SOL    HW120593  10.395   5.700   2.800
39587SOL    HW220594  10.309   5.588   2.853
39588SOL     OW20595   8.081   1.915   8.851
39588SOL    HW120596   8.060   1.826   8.820
39588SOL    HW220597   8.061   1.912   8.944
39589SOL     OW20598  10.816   8.567   5.634
39589SOL    HW120599  10.731   8.557   5.591
39589SOL    HW220600  10.859   8.638   5.588
39590SOL     OW20601  12.029   9.334   7.193
39590SOL    HW120602  12.035   9.241   7.218
39590SOL    HW220603  12.120   9.358   7.174
39591SOL     OW20604  12.142   6.897   7.223
39591SOL    HW120605  12.184   6.977   7.191
39591SOL    HW220606  12.211   6.831   7.216
39592SOL     OW20607   9.612   2.040  14.639
39592SOL    HW120608   9.567   2.076  14.715
39592SOL    HW220609   9.667   1.970  14.674
39593SOL     OW20610   4.847   1.836   1.832
39593SOL    HW120611   4.779   1.883   1.785
39593SOL    HW220612   4.910   1.903   1.858
39594SOL     OW20613  11.290   7.305  11.123
39594SOL    HW120614  11.200   7.322  11.095
39594SOL    HW220615  11.344   7.359  11.065
39595SOL     OW20616   1.310   6.720  14.453
39595SOL    HW120617   1.222   6.698  14.421
39595SOL    HW220618   1.300   6.807  14.491
39596SOL     OW20619   0.058  10.807   2.483
39596SOL    HW120620   0.049  10.719   2.446
39596SOL    HW220621   0.099  10.794   2.569
39597SOL     OW20622   8.493  12.442   1.228
39597SOL    HW120623   8.585  12.418   1.224
39597SOL    HW220624   8.471  12.437   1.321
39598SOL     OW20625  13.323   4.105   8.807
39598SOL    HW120626  13.381   4.116   8.882
39598SOL    HW220627  13.371   4.142   8.733
39599SOL     OW20628  12.170  13.707   2.778
39599SOL    HW120629  12.243  13.651   2.752
39599SOL    HW220630  12.171  13.779   2.716
39600SOL     OW20631  11.911   6.462   8.011
39600SOL    HW120632  11.911   6.481   7.917
39600SOL    HW220633  11.952   6.539   8.051
39601SOL     OW20634  12.043   9.183   1.635
39601SOL    HW120635  12.137   9.196   1.620
39601SOL    HW220636  12.039   9.111   1.697
39602SOL     OW20637   9.618   5.697  11.497
39602SOL    HW120638   9.527   5.703  11.468
39602SOL    HW220639   9.662   5.769  11.453
39603SOL     OW20640   1.871   9.884   3.707
39603SOL    HW120641   1.843   9.888   3.798
39603SOL    HW220642   1.843   9.968   3.670
39604SOL     OW20643   8.038   3.570   7.633
39604SOL    HW120644   8.002   3.566   7.545
39604SOL    HW220645   8.132   3.556   7.622
39605SOL     OW20646   3.616   3.944   1.081
39605SOL    HW120647   3.651   3.965   1.168
39605SOL    HW220648   3.523   3.926   1.097
39606SOL     OW20649  11.206   1.969   7.499
39606SOL    HW120650  11.188   2.058   7.529
39606SOL    HW220651  11.156   1.913   7.559
39607SOL     OW20652  14.149  10.912   9.058
39607SOL    HW120653  14.114  10.825   9.043
39607SOL    HW220654  14.144  10.925   9.152
39608SOL     OW20655   4.996   6.002   2.766
39608SOL    HW120656   5.039   5.955   2.694
39608SOL    HW220657   5.068   6.025   2.826
39609SOL     OW20658   5.411   7.848   3.805
39609SOL    HW120659   5.452   7.762   3.803
39609SOL    HW220660   5.427   7.880   3.894
39610SOL     OW20661   3.754   2.103   8.459
39610SOL    HW120662   3.676   2.052   8.481
39610SOL    HW220663   3.809   2.098   8.538
39611SOL     OW20664  10.311  12.645   5.838
39611SOL    HW120665  10.223  12.683   5.834
39611SOL    HW220666  10.339  12.660   5.928
39612SOL     OW20667   6.708   4.236  13.608
39612SOL    HW120668   6.658   4.204  13.683
39612SOL    HW220669   6.705   4.164  13.545
39613SOL     OW20670   5.162   0.993  13.772
39613SOL    HW120671   5.226   0.985  13.843
39613SOL    HW220672   5.145   0.902  13.745
39614SOL     OW20673   9.082   9.859   4.423
39614SOL    HW120674   9.106   9.893   4.337
39614SOL    HW220675   9.014   9.918   4.455
39615SOL     OW20676   7.656  11.605   3.340
39615SOL    HW120677   7.634  11.545   3.268
39615SOL    HW220678   7.675  11.688   3.297
39616SOL     OW20679   0.637   7.280  10.396
39616SOL    HW120680   0.652   7.334  10.474
39616SOL    HW220681   0.706   7.306  10.335
39617SOL     OW20682   2.539  10.517   5.477
39617SOL    HW120683   2.619  10.478   5.511
39617SOL    HW220684   2.531  10.482   5.388
39618SOL     OW20685   7.475  13.093   3.552
39618SOL    HW120686   7.555  13.042   3.568
39618SOL    HW220687   7.446  13.065   3.465
39619SOL     OW20688   5.793  14.774   5.706
39619SOL    HW120689   5.828  14.689   5.678
39619SOL    HW220690   5.869  14.822   5.739
39620SOL     OW20691   5.188   2.021   1.381
39620SOL    HW120692   5.123   2.073   1.333
39620SOL    HW220693   5.269   2.031   1.331
39621SOL     OW20694   9.328  10.620   7.907
39621SOL    HW120695   9.358  10.710   7.894
39621SOL    HW220696   9.384  10.567   7.849
39622SOL     OW20697  10.782   5.601   7.330
39622SOL    HW120698  10.760   5.612   7.423
39622SOL    HW220699  10.843   5.673   7.312
39623SOL     OW20700  12.029  10.981   4.067
39623SOL    HW120701  12.080  10.902   4.084
39623SOL    HW220702  11.946  10.966   4.113
39624SOL     OW20703   6.325   0.858   2.476
39624SOL    HW120704   6.306   0.939   2.524
39624SOL    HW220705   6.254   0.850   2.413
39625SOL     OW20706  12.666   7.550   9.932
39625SOL    HW120707  12.715   7.475   9.965
39625SOL    HW220708  12.595   7.562   9.995
39626SOL     OW20709  14.482  13.520   7.432
39626SOL    HW120710  14.387  13.529   7.425
39626SOL    HW220711  14.516  13.564   7.354
39627SOL     OW20712   6.157   8.443   8.672
39627SOL    HW120713   6.105   8.403   8.602
39627SOL    HW220714   6.095   8.452   8.744
39628SOL     OW20715   1.416   8.372   0.516
39628SOL    HW120716   1.488   8.436   0.509
39628SOL    HW220717   1.344   8.412   0.468
39629SOL     OW20718   8.429  13.050   7.879
39629SOL    HW120719   8.369  13.088   7.815
39629SOL    HW220720   8.432  12.957   7.857
39630SOL     OW20721  10.389   1.503   9.726
39630SOL    HW120722  10.436   1.420   9.713
39630SOL    HW220723  10.413   1.556   9.649
39631SOL     OW20724   4.932   5.095   2.761
39631SOL    HW120725   4.897   5.103   2.673
39631SOL    HW220726   4.959   5.183   2.785
39632SOL     OW20727  13.520   1.947   3.545
39632SOL    HW120728  13.460   1.939   3.619
39632SOL    HW220729  13.463   1.961   3.470
39633SOL     OW20730   3.609  10.743   0.852
39633SOL    HW120731   3.614  10.693   0.934
39633SOL    HW220732   3.515  10.745   0.832
39634SOL     OW20733  12.717  13.739   2.732
39634SOL    HW120734  12.664  13.798   2.786
39634SOL    HW220735  12.683  13.749   2.644
39635SOL     OW20736   9.800  12.213   1.117
39635SOL    HW120737   9.800  12.308   1.126
39635SOL    HW220738   9.861  12.182   1.185
39636SOL     OW20739   2.193   4.916   7.628
39636SOL    HW120740   2.172   5.004   7.599
39636SOL    HW220741   2.284   4.903   7.604
39637SOL     OW20742  14.519   2.405  10.851
39637SOL    HW120743  14.455   2.349  10.895
39637SOL    HW220744  14.516   2.378  10.759
39638SOL     OW20745   2.470  13.827   4.088
39638SOL    HW120746   2.457  13.904   4.032
39638SOL    HW220747   2.449  13.857   4.176
39639SOL     OW20748   0.201   5.741  10.726
39639SOL    HW120749   0.108   5.763  10.730
39639SOL    HW220750   0.242   5.801  10.789
39640SOL     OW20751  13.730  14.130   5.594
39640SOL    HW120752  13.729  14.220   5.626
39640SOL    HW220753  13.818  14.118   5.558
39641SOL     OW20754  12.377   4.706   5.099
39641SOL    HW120755  12.394   4.740   5.011
39641SOL    HW220756  12.354   4.614   5.086
39642SOL     OW20757   7.748   8.042  14.294
39642SOL    HW120758   7.837   8.058  14.262
39642SOL    HW220759   7.742   8.092  14.375
39643SOL     OW20760  11.306   2.285   6.779
39643SOL    HW120761  11.314   2.203   6.732
39643SOL    HW220762  11.388   2.332   6.761
39644SOL     OW20763   3.982   5.868   2.082
39644SOL    HW120764   3.940   5.884   1.998
39644SOL    HW220765   4.049   5.802   2.063
39645SOL     OW20766   7.763   9.337  13.802
39645SOL    HW120767   7.791   9.251  13.833
39645SOL    HW220768   7.754   9.326  13.707
39646SOL     OW20769   2.217   7.115   6.859
39646SOL    HW120770   2.132   7.127   6.901
39646SOL    HW220771   2.251   7.203   6.848
39647SOL     OW20772   1.552   4.148   1.699
39647SOL    HW120773   1.501   4.102   1.632
39647SOL    HW220774   1.487   4.200   1.747
39648SOL     OW20775   0.624  13.657   8.250
39648SOL    HW120776   0.654  13.632   8.163
39648SOL    HW220777   0.692  13.627   8.309
39649SOL     OW20778   7.976   0.510  12.782
39649SOL    HW120779   7.939   0.585  12.829
39649SOL    HW220780   8.060   0.541  12.749
39650SOL     OW20781   0.910  10.835  13.631
39650SOL    HW120782   0.892  10.908  13.572
39650SOL    HW220783   0.986  10.791  13.594
39651SOL     OW20784  10.887   4.422   1.527
39651SOL    HW120785  10.962   4.367   1.508
39651SOL    HW220786  10.921   4.490   1.585
39652SOL     OW20787   5.280  13.524  12.430
39652SOL    HW120788   5.210  13.459  12.430
39652SOL    HW220789   5.361  13.473  12.425
39653SOL     OW20790  14.093   7.781   6.953
39653SOL    HW120791  14.164   7.728   6.916
39653SOL    HW220792  14.013   7.742   6.918
39654SOL     OW20793   4.894   8.356   6.111
39654SOL    HW120794   4.847   8.350   6.028
39654SOL    HW220795   4.854   8.432   6.155
39655SOL     OW20796   4.812   5.894  11.644
39655SOL    HW120797   4.758   5.971  11.661
39655SOL    HW220798   4.756   5.836  11.592
39656SOL     OW20799  11.112   0.262   2.120
39656SOL    HW120800  11.131   0.177   2.160
39656SOL    HW220801  11.027   0.287   2.157
39657SOL     OW20802  14.419   9.908  11.196
39657SOL    HW120803  14.409   9.997  11.230
39657SOL    HW220804  14.369   9.908  11.114
39658SOL     OW20805  14.566   3.683   2.924
39658SOL    HW120806  14.591   3.769   2.958
39658SOL    HW220807  14.471   3.679   2.937
39659SOL     OW20808   9.331   1.719   2.052
39659SOL    HW120809   9.255   1.726   1.994
39659SOL    HW220810   9.363   1.630   2.038
39660SOL     OW20811  12.375   1.217   9.893
39660SOL    HW120812  12.295   1.189   9.849
39660SOL    HW220813  12.399   1.143   9.949
39661SOL     OW20814   8.437   8.221   8.207
39661SOL    HW120815   8.348   8.187   8.217
39661SOL    HW220816   8.493   8.148   8.234
39662SOL     OW20817   4.250   7.577  14.499
39662SOL    HW120818   4.201   7.597  14.419
39662SOL    HW220819   4.194   7.611  14.570
39663SOL     OW20820   3.979   1.049   5.257
39663SOL    HW120821   3.904   0.998   5.227
39663SOL    HW220822   4.009   1.002   5.335
39664SOL     OW20823   5.759   6.410   5.513
39664SOL    HW120824   5.703   6.413   5.591
39664SOL    HW220825   5.826   6.476   5.529
39665SOL     OW20826  10.561   3.182  14.673
39665SOL    HW120827  10.592   3.268  14.643
39665SOL    HW220828  10.609   3.119  14.619
39666SOL     OW20829   2.117   2.832   8.846
39666SOL    HW120830   2.058   2.775   8.895
39666SOL    HW220831   2.135   2.784   8.765
39667SOL     OW20832  11.040   1.709   2.502
39667SOL    HW120833  11.118   1.677   2.548
39667SOL    HW220834  10.980   1.635   2.503
39668SOL     OW20835   7.402   6.927   3.252
39668SOL    HW120836   7.372   6.841   3.225
39668SOL    HW220837   7.366   6.987   3.187
39669SOL     OW20838  10.374   2.311   7.555
39669SOL    HW120839  10.431   2.371   7.603
39669SOL    HW220840  10.426   2.283   7.480
39670SOL     OW20841  13.220   8.418   2.846
39670SOL    HW120842  13.237   8.471   2.924
39670SOL    HW220843  13.204   8.483   2.776
39671SOL     OW20844   2.240   8.247   7.069
39671SOL    HW120845   2.252   8.292   6.985
39671SOL    HW220846   2.250   8.316   7.135
39672SOL     OW20847  13.701  11.633   4.256
39672SOL    HW120848  13.659  11.560   4.300
39672SOL    HW220849  13.712  11.700   4.324
39673SOL     OW20850   4.290   1.212   7.949
39673SOL    HW120851   4.333   1.223   8.034
39673SOL    HW220852   4.324   1.130   7.915
39674SOL     OW20853   1.741   0.549  11.096
39674SOL    HW120854   1.676   0.534  11.027
39674SOL    HW220855   1.821   0.509  11.063
39675SOL     OW20856  10.049   9.587  12.315
39675SOL    HW120857  10.046   9.682  12.302
39675SOL    HW220858  10.108   9.555  12.246
39676SOL     OW20859  13.407  11.568   7.777
39676SOL    HW120860  13.484  11.598   7.825
39676SOL    HW220861  13.351  11.645   7.770
39677SOL     OW20862   1.476   6.723  11.097
39677SOL    HW120863   1.403   6.769  11.055
39677SOL    HW220864   1.480   6.760  11.185
39678SOL     OW20865   7.421  14.098   8.104
39678SOL    HW120866   7.437  14.172   8.045
39678SOL    HW220867   7.490  14.035   8.081
39679SOL     OW20868  13.093   4.751  10.057
39679SOL    HW120869  13.135   4.785   9.978
39679SOL    HW220870  13.024   4.813  10.077
39680SOL     OW20871   0.268   7.149   3.303
39680SOL    HW120872   0.219   7.078   3.345
39680SOL    HW220873   0.281   7.214   3.371
39681SOL     OW20874   3.184   9.914   3.861
39681SOL    HW120875   3.232   9.832   3.875
39681SOL    HW220876   3.099   9.899   3.902
39682SOL     OW20877   6.258  11.674   4.296
39682SOL    HW120878   6.177  11.654   4.343
39682SOL    HW220879   6.272  11.767   4.312
39683SOL     OW20880   4.480   7.442   1.257
39683SOL    HW120881   4.396   7.404   1.282
39683SOL    HW220882   4.504   7.499   1.330
39684SOL     OW20883   9.329   3.754   6.130
39684SOL    HW120884   9.314   3.676   6.077
39684SOL    HW220885   9.408   3.793   6.093
39685SOL     OW20886   7.671  11.937   2.966
39685SOL    HW120887   7.711  12.023   2.958
39685SOL    HW220888   7.610  11.931   2.893
39686SOL     OW20889   9.798   3.637   9.835
39686SOL    HW120890   9.879   3.687   9.845
39686SOL    HW220891   9.798   3.609   9.744
39687SOL     OW20892   3.432   4.411   4.512
39687SOL    HW120893   3.383   4.473   4.566
39687SOL    HW220894   3.397   4.326   4.536
39688SOL     OW20895   3.828   5.604   9.849
39688SOL    HW120896   3.770   5.679   9.835
39688SOL    HW220897   3.895   5.637   9.908
39689SOL     OW20898   7.810  10.856   0.040
39689SOL    HW120899   7.825  10.805   0.120
39689SOL    HW220900   7.742  10.918   0.064
39690SOL     OW20901  12.391  12.740   9.804
39690SOL    HW120902  12.313  12.715   9.754
39690SOL    HW220903  12.465  12.716   9.748
39691SOL     OW20904  14.147  13.862   4.709
39691SOL    HW120905  14.070  13.828   4.754
39691SOL    HW220906  14.207  13.787   4.705
39692SOL     OW20907   0.228   3.066   6.759
39692SOL    HW120908   0.157   3.064   6.694
39692SOL    HW220909   0.308   3.058   6.707
39693SOL     OW20910   6.193   5.977   6.542
39693SOL    HW120911   6.194   5.982   6.638
39693SOL    HW220912   6.277   6.013   6.515
39694SOL     OW20913   7.614  13.610  14.399
39694SOL    HW120914   7.553  13.539  14.421
39694SOL    HW220915   7.697  13.584  14.439
39695SOL     OW20916   4.182   3.233   9.232
39695SOL    HW120917   4.142   3.147   9.222
39695SOL    HW220918   4.229   3.229   9.315
39696SOL     OW20919   1.856   6.688   9.329
39696SOL    HW120920   1.805   6.710   9.407
39696SOL    HW220921   1.836   6.758   9.267
39697SOL     OW20922   2.812   7.151   2.753
39697SOL    HW120923   2.787   7.128   2.842
39697SOL    HW220924   2.796   7.245   2.746
39698SOL     OW20925   7.231   8.262   0.569
39698SOL    HW120926   7.313   8.268   0.521
39698SOL    HW220927   7.170   8.317   0.520
39699SOL     OW20928  14.533   4.174  13.739
39699SOL    HW120929  14.508   4.147  13.651
39699SOL    HW220930  14.506   4.266  13.745
39700SOL     OW20931   6.432   3.906   4.455
39700SOL    HW120932   6.488   3.850   4.508
39700SOL    HW220933   6.357   3.926   4.511
39701SOL     OW20934   3.097   1.632   8.448
39701SOL    HW120935   3.135   1.704   8.498
39701SOL    HW220936   3.054   1.674   8.374
39702SOL     OW20937   8.477   1.559   0.688
39702SOL    HW120938   8.547   1.580   0.626
39702SOL    HW220939   8.406   1.619   0.665
39703SOL     OW20940  10.594  14.680  12.109
39703SOL    HW120941  10.567  14.746  12.046
39703SOL    HW220942  10.517  14.625  12.122
39704SOL     OW20943   5.367  14.430  10.179
39704SOL    HW120944   5.309  14.496  10.216
39704SOL    HW220945   5.310  14.374  10.126
39705SOL     OW20946  10.768  14.499   4.219
39705SOL    HW120947  10.741  14.588   4.242
39705SOL    HW220948  10.793  14.504   4.127
39706SOL     OW20949   0.711  13.073   4.265
39706SOL    HW120950   0.702  13.127   4.187
39706SOL    HW220951   0.775  13.007   4.241
39707SOL     OW20952   5.937  14.451  10.114
39707SOL    HW120953   5.980  14.387  10.057
39707SOL    HW220954   5.856  14.407  10.142
39708SOL     OW20955  11.233  13.687   3.307
39708SOL    HW120956  11.295  13.714   3.240
39708SOL    HW220957  11.272  13.610   3.346
39709SOL     OW20958  13.375   7.947  11.059
39709SOL    HW120959  13.309   7.893  11.103
39709SOL    HW220960  13.341   8.036  11.066
39710SOL     OW20961   8.081  13.633   1.843
39710SOL    HW120962   8.174  13.607   1.847
39710SOL    HW220963   8.041  13.587   1.917
39711SOL     OW20964   0.782  11.352   8.591
39711SOL    HW120965   0.779  11.428   8.648
39711SOL    HW220966   0.871  11.319   8.600
39712SOL     OW20967   8.633  11.259  10.250
39712SOL    HW120968   8.608  11.271  10.341
39712SOL    HW220969   8.674  11.342  10.224
39713SOL     OW20970  12.911   3.743  11.547
39713SOL    HW120971  12.989   3.796  11.532
39713SOL    HW220972  12.927   3.697  11.629
39714SOL     OW20973   6.180   1.506  13.693
39714SOL    HW120974   6.196   1.421  13.732
39714SOL    HW220975   6.236   1.566  13.743
39715SOL     OW20976  11.805   2.635   4.403
39715SOL    HW120977  11.740   2.705   4.405
39715SOL    HW220978  11.753   2.554   4.405
39716SOL     OW20979  14.845  10.561   8.556
39716SOL    HW120980  14.864  10.520   8.640
39716SOL    HW220981   0.038  10.630   8.548
39717SOL     OW20982   0.750   1.394  13.112
39717SOL    HW120983   0.725   1.436  13.029
39717SOL    HW220984   0.794   1.314  13.085
39718SOL     OW20985   2.685   6.995   0.769
39718SOL    HW120986   2.748   6.927   0.746
39718SOL    HW220987   2.644   7.018   0.686
39719SOL     OW20988  11.503  12.733   7.044
39719SOL    HW120989  11.464  12.683   7.115
39719SOL    HW220990  11.489  12.679   6.966
39720SOL     OW20991   8.261   0.947  11.181
39720SOL    HW120992   8.204   0.945  11.104
39720SOL    HW220993   8.204   0.921  11.254
39721SOL     OW20994   6.211  12.006   9.690
39721SOL    HW120995   6.253  11.923   9.713
39721SOL    HW220996   6.284  12.065   9.671
39722SOL     OW20997   8.845  13.413   7.124
39722SOL    HW120998   8.755  13.446   7.118
39722SOL    HW220999   8.900  13.491   7.112
39723SOL     OW21000   1.746   5.859  13.386
39723SOL    HW121001   1.675   5.795  13.394
39723SOL    HW221002   1.789   5.837  13.303
39724SOL     OW21003   0.616   4.890  12.780
39724SOL    HW121004   0.553   4.914  12.712
39724SOL    HW221005   0.571   4.822  12.831
39725SOL     OW21006   0.982   1.690   4.198
39725SOL    HW121007   1.036   1.740   4.259
39725SOL    HW221008   0.904   1.743   4.185
39726SOL     OW21009  12.258   6.328  13.062
39726SOL    HW121010  12.292   6.389  12.996
39726SOL    HW221011  12.174   6.367  13.089
39727SOL     OW21012  11.018   1.623   1.358
39727SOL    HW121013  10.998   1.564   1.431
39727SOL    HW221014  10.971   1.704   1.378
39728SOL     OW21015   6.612   9.956   8.567
39728SOL    HW121016   6.643   9.898   8.497
39728SOL    HW221017   6.548   9.903   8.614
39729SOL     OW21018  10.747   0.148   4.861
39729SOL    HW121019  10.669   0.166   4.912
39729SOL    HW221020  10.801   0.226   4.871
39730SOL     OW21021  11.355  13.370   6.098
39730SOL    HW121022  11.441  13.397   6.068
39730SOL    HW221023  11.352  13.396   6.190
39731SOL     OW21024   0.547   9.300   6.776
39731SOL    HW121025   0.552   9.284   6.870
39731SOL    HW221026   0.544   9.395   6.768
39732SOL     OW21027   5.701  12.437   6.364
39732SOL    HW121028   5.757  12.438   6.442
39732SOL    HW221029   5.733  12.510   6.311
39733SOL     OW21030   2.884  11.381   6.915
39733SOL    HW121031   2.880  11.361   6.821
39733SOL    HW221032   2.961  11.438   6.924
39734SOL     OW21033   5.201  13.395   4.505
39734SOL    HW121034   5.138  13.428   4.441
39734SOL    HW221035   5.286  13.420   4.470
39735SOL     OW21036   3.227   2.423   5.163
39735SOL    HW121037   3.212   2.504   5.113
39735SOL    HW221038   3.211   2.353   5.099
39736SOL     OW21039   0.110   5.848   5.463
39736SOL    HW121040   0.025   5.892   5.456
39736SOL    HW221041   0.087   5.756   5.477
39737SOL     OW21042  10.526  12.697   1.465
39737SOL    HW121043  10.553  12.683   1.375
39737SOL    HW221044  10.505  12.790   1.470
39738SOL     OW21045   6.530   4.369   2.273
39738SOL    HW121046   6.530   4.460   2.300
39738SOL    HW221047   6.496   4.321   2.349
39739SOL     OW21048   3.508   0.599   0.837
39739SOL    HW121049   3.465   0.571   0.918
39739SOL    HW221050   3.594   0.557   0.840
39740SOL     OW21051   0.268   6.489  14.667
39740SOL    HW121052   0.210   6.488  14.591
39740SOL    HW221053   0.352   6.522  14.633
39741SOL     OW21054  10.693  10.897   8.318
39741SOL    HW121055  10.739  10.819   8.350
39741SOL    HW221056  10.655  10.870   8.235
39742SOL     OW21057  12.068  10.580   5.649
39742SOL    HW121058  12.116  10.644   5.595
39742SOL    HW221059  12.135  10.517   5.675
39743SOL     OW21060   6.961   9.771   1.279
39743SOL    HW121061   7.025   9.842   1.281
39743SOL    HW221062   6.889   9.802   1.335
39744SOL     OW21063   1.027   6.830   8.552
39744SOL    HW121064   1.000   6.846   8.643
39744SOL    HW221065   1.026   6.734   8.544
39745SOL     OW21066  13.017   5.726  12.484
39745SOL    HW121067  13.100   5.719  12.532
39745SOL    HW221068  13.030   5.673  12.406
39746SOL     OW21069   5.203   6.531  13.016
39746SOL    HW121070   5.199   6.456  13.075
39746SOL    HW221071   5.123   6.526  12.964
39747SOL     OW21072  14.401   7.423  14.619
39747SOL    HW121073  14.446   7.347  14.583
39747SOL    HW221074  14.318   7.427  14.571
39748SOL     OW21075   3.228   7.832  11.377
39748SOL    HW121076   3.251   7.743  11.350
39748SOL    HW221077   3.137   7.824  11.408
39749SOL     OW21078   7.871  13.272   1.984
39749SOL    HW121079   7.794  13.304   1.937
39749SOL    HW221080   7.893  13.190   1.941
39750SOL     OW21081  14.810  13.078   8.422
39750SOL    HW121082  14.728  13.117   8.454
39750SOL    HW221083   0.007  13.123   8.471
39751SOL     OW21084  14.253   9.661  10.724
39751SOL    HW121085  14.237   9.688  10.814
39751SOL    HW221086  14.262   9.566  10.728
39752SOL     OW21087   3.814   2.502   8.528
39752SOL    HW121088   3.724   2.528   8.547
39752SOL    HW221089   3.839   2.556   8.453
39753SOL     OW21090   1.072   7.505  11.679
39753SOL    HW121091   1.045   7.427  11.728
39753SOL    HW221092   0.993   7.560  11.676
39754SOL     OW21093   5.036   2.820  13.207
39754SOL    HW121094   5.061   2.867  13.287
39754SOL    HW221095   5.116   2.819  13.155
39755SOL     OW21096   9.062   1.032   4.842
39755SOL    HW121097   9.017   1.037   4.758
39755SOL    HW221098   9.124   0.960   4.833
39756SOL     OW21099   6.393   6.719   3.407
39756SOL    HW121100   6.451   6.665   3.460
39756SOL    HW221101   6.315   6.665   3.393
39757SOL     OW21102  13.416  12.768   4.186
39757SOL    HW121103  13.411  12.804   4.098
39757SOL    HW221104  13.425  12.845   4.243
39758SOL     OW21105  13.598   3.806   8.378
39758SOL    HW121106  13.655   3.871   8.419
39758SOL    HW221107  13.531   3.788   8.444
39759SOL     OW21108  13.973   2.929   7.041
39759SOL    HW121109  13.957   2.917   6.947
39759SOL    HW221110  13.913   3.000   7.066
39760SOL     OW21111  14.004  13.374  11.458
39760SOL    HW121112  13.944  13.317  11.410
39760SOL    HW221113  14.056  13.417  11.390
39761SOL     OW21114  10.965  12.516   9.468
39761SOL    HW121115  10.993  12.603   9.439
39761SOL    HW221116  10.885  12.531   9.517
39762SOL     OW21117  11.642   7.284  14.585
39762SOL    HW121118  11.571   7.269  14.522
39762SOL    HW221119  11.634   7.211  14.647
39763SOL     OW21120  14.493   4.427   6.601
39763SOL    HW121121  14.425   4.398   6.661
39763SOL    HW221122  14.468   4.389   6.516
39764SOL     OW21123   3.732   9.814  13.343
39764SOL    HW121124   3.642   9.846  13.354
39764SOL    HW221125   3.780   9.888  13.306
39765SOL     OW21126   9.572  11.889  14.291
39765SOL    HW121127   9.665  11.908  14.283
39765SOL    HW221128   9.554  11.895  14.385
39766SOL     OW21129  12.048  13.334   9.617
39766SOL    HW121130  12.004  13.379   9.545
39766SOL    HW221131  12.140  13.357   9.606
39767SOL     OW21132   3.205  12.119   5.888
39767SOL    HW121133   3.253  12.109   5.970
39767SOL    HW221134   3.238  12.049   5.831
39768SOL     OW21135   5.343   1.969  14.370
39768SOL    HW121136   5.365   1.989  14.279
39768SOL    HW221137   5.375   2.046  14.419
39769SOL     OW21138  13.940  14.485  12.703
39769SOL    HW121139  13.969  14.496  12.794
39769SOL    HW221140  13.869  14.421  12.708
39770SOL     OW21141  12.454   0.335  13.380
39770SOL    HW121142  12.516   0.357  13.449
39770SOL    HW221143  12.393   0.409  13.378
39771SOL     OW21144  10.156   3.136  12.812
39771SOL    HW121145  10.139   3.224  12.846
39771SOL    HW221146  10.230   3.104  12.864
39772SOL     OW21147   7.099   8.688   1.180
39772SOL    HW121148   7.059   8.672   1.266
39772SOL    HW221149   7.160   8.615   1.168
39773SOL     OW21150   9.771   5.441  11.778
39773SOL    HW121151   9.778   5.363  11.834
39773SOL    HW221152   9.857   5.448  11.736
39774SOL     OW21153   2.716   2.083   1.268
39774SOL    HW121154   2.779   2.019   1.233
39774SOL    HW221155   2.670   2.116   1.190
39775SOL     OW21156  12.410   8.327  10.202
39775SOL    HW121157  12.315   8.318  10.206
39775SOL    HW221158  12.427   8.362  10.114
39776SOL     OW21159  14.098   1.623   7.702
39776SOL    HW121160  14.191   1.608   7.719
39776SOL    HW221161  14.053   1.572   7.769
39777SOL     OW21162   8.913   6.069   1.735
39777SOL    HW121163   8.831   6.020   1.746
39777SOL    HW221164   8.899   6.150   1.783
39778SOL     OW21165   5.349   5.380   3.105
39778SOL    HW121166   5.325   5.288   3.096
39778SOL    HW221167   5.269   5.422   3.136
39779SOL     OW21168   7.635   8.208   6.157
39779SOL    HW121169   7.718   8.193   6.201
39779SOL    HW221170   7.591   8.275   6.209
39780SOL     OW21171  11.246   5.651  14.851
39780SOL    HW121172  11.153   5.633  14.843
39780SOL    HW221173  11.283   5.571   0.016
39781SOL     OW21174   8.367  11.141   3.092
39781SOL    HW121175   8.409  11.092   3.021
39781SOL    HW221176   8.290  11.088   3.115
39782SOL     OW21177  13.247  12.110   7.815
39782SOL    HW121178  13.335  12.088   7.782
39782SOL    HW221179  13.246  12.076   7.904
39783SOL     OW21180   9.593   8.899  13.018
39783SOL    HW121181   9.664   8.964  13.018
39783SOL    HW221182   9.556   8.906  12.930
39784SOL     OW21183   9.078  12.766   0.506
39784SOL    HW121184   9.144  12.830   0.480
39784SOL    HW221185   9.102  12.686   0.459
39785SOL     OW21186   5.307  12.245   6.522
39785SOL    HW121187   5.297  12.198   6.604
39785SOL    HW221188   5.397  12.278   6.524
39786SOL     OW21189  10.328  12.932   9.878
39786SOL    HW121190  10.280  12.996   9.825
39786SOL    HW221191  10.292  12.943   9.966
39787SOL     OW21192  12.189   7.125   8.136
39787SOL    HW121193  12.146   7.210   8.145
39787SOL    HW221194  12.204   7.096   8.226
39788SOL     OW21195  14.646  13.259  11.442
39788SOL    HW121196  14.633  13.292  11.531
39788SOL    HW221197  14.690  13.332  11.396
39789SOL     OW21198   3.602   0.862   0.972
39789SOL    HW121199   3.693   0.838   0.955
39789SOL    HW221200   3.561   0.860   0.885
39790SOL     OW21201   5.494  13.865   0.243
39790SOL    HW121202   5.571  13.832   0.290
39790SOL    HW221203   5.529  13.902   0.162
39791SOL     OW21204   1.595   2.917   0.444
39791SOL    HW121205   1.592   2.868   0.362
39791SOL    HW221206   1.511   2.898   0.485
39792SOL     OW21207  13.991   4.139   0.095
39792SOL    HW121208  13.949   4.132   0.181
39792SOL    HW221209  14.061   4.203   0.109
39793SOL     OW21210   8.317  11.484  13.620
39793SOL    HW121211   8.261  11.409  13.597
39793SOL    HW221212   8.373  11.496  13.544
39794SOL     OW21213  12.228   8.133   7.532
39794SOL    HW121214  12.269   8.122   7.447
39794SOL    HW221215  12.134   8.122   7.516
39795SOL     OW21216   9.840   7.052   6.905
39795SOL    HW121217   9.902   6.987   6.936
39795SOL    HW221218   9.755   7.022   6.938
39796SOL     OW21219  14.734  13.656  11.978
39796SOL    HW121220  14.658  13.656  11.920
39796SOL    HW221221  14.725  13.735  12.031
39797SOL     OW21222   4.948  13.740   0.942
39797SOL    HW121223   4.965  13.671   0.878
39797SOL    HW221224   4.877  13.791   0.904
39798SOL     OW21225  11.489   9.645   0.523
39798SOL    HW121226  11.558   9.671   0.462
39798SOL    HW221227  11.430   9.591   0.471
39799SOL     OW21228   1.392  10.311  11.546
39799SOL    HW121229   1.392  10.315  11.451
39799SOL    HW221230   1.479  10.278  11.569
39800SOL     OW21231   9.285  13.142  11.436
39800SOL    HW121232   9.203  13.105  11.470
39800SOL    HW221233   9.335  13.166  11.514
39801SOL     OW21234   7.403   9.884   4.619
39801SOL    HW121235   7.490   9.908   4.649
39801SOL    HW221236   7.349   9.961   4.638
39802SOL     OW21237  11.804   6.719  14.574
39802SOL    HW121238  11.772   6.639  14.533
39802SOL    HW221239  11.849   6.689  14.653
39803SOL     OW21240   8.248   5.979   6.297
39803SOL    HW121241   8.240   6.074   6.296
39803SOL    HW221242   8.160   5.947   6.319
39804SOL     OW21243  10.131   5.503   0.809
39804SOL    HW121244  10.220   5.527   0.832
39804SOL    HW221245  10.076   5.560   0.863
39805SOL     OW21246   4.529   5.742   4.655
39805SOL    HW121247   4.612   5.782   4.631
39805SOL    HW221248   4.487   5.804   4.714
39806SOL     OW21249   5.281   3.577   8.865
39806SOL    HW121250   5.288   3.482   8.879
39806SOL    HW221251   5.330   3.593   8.785
39807SOL     OW21252  12.062   5.425  10.007
39807SOL    HW121253  12.109   5.506  10.031
39807SOL    HW221254  12.025   5.394  10.090
39808SOL     OW21255   7.555   5.178  14.274
39808SOL    HW121256   7.591   5.095  14.307
39808SOL    HW221257   7.460   5.166  14.278
39809SOL     OW21258   1.131   6.469   4.129
39809SOL    HW121259   1.173   6.551   4.104
39809SOL    HW221260   1.202   6.414   4.163
39810SOL     OW21261   8.656   4.495  12.609
39810SOL    HW121262   8.711   4.481  12.532
39810SOL    HW221263   8.577   4.444  12.591
39811SOL     OW21264   1.202   2.401   0.203
39811SOL    HW121265   1.169   2.313   0.221
39811SOL    HW221266   1.192   2.448   0.286
39812SOL     OW21267   6.554  12.689   5.928
39812SOL    HW121268   6.567  12.637   6.007
39812SOL    HW221269   6.605  12.769   5.942
39813SOL     OW21270  10.043   1.347   5.848
39813SOL    HW121271  10.041   1.418   5.913
39813SOL    HW221272  10.134   1.318   5.847
39814SOL     OW21273   9.922   6.775   1.202
39814SOL    HW121274   9.877   6.858   1.213
39814SOL    HW221275   9.873   6.713   1.256
39815SOL     OW21276  10.672  13.528   5.074
39815SOL    HW121277  10.607  13.560   5.136
39815SOL    HW221278  10.655  13.577   4.994
39816SOL     OW21279   8.311   7.385   7.406
39816SOL    HW121280   8.315   7.327   7.330
39816SOL    HW221281   8.332   7.472   7.370
39817SOL     OW21282  13.473   8.519   7.343
39817SOL    HW121283  13.497   8.589   7.281
39817SOL    HW221284  13.493   8.438   7.295
39818SOL     OW21285   5.940   1.909   7.309
39818SOL    HW121286   5.926   1.817   7.333
39818SOL    HW221287   6.034   1.922   7.322
39819SOL     OW21288  14.112   8.771   5.686
39819SOL    HW121289  14.204   8.767   5.661
39819SOL    HW221290  14.074   8.691   5.651
39820SOL     OW21291  12.789   3.736   9.425
39820SOL    HW121292  12.722   3.766   9.486
39820SOL    HW221293  12.741   3.712   9.345
39821SOL     OW21294   4.582   9.543  10.556
39821SOL    HW121295   4.553   9.466  10.506
39821SOL    HW221296   4.674   9.525  10.576
39822SOL     OW21297   2.757   3.413   9.695
39822SOL    HW121298   2.727   3.356   9.766
39822SOL    HW221299   2.747   3.501   9.729
39823SOL     OW21300   3.168   1.605   5.686
39823SOL    HW121301   3.156   1.661   5.763
39823SOL    HW221302   3.087   1.554   5.680
39824SOL     OW21303  10.138  11.494  11.298
39824SOL    HW121304  10.222  11.475  11.255
39824SOL    HW221305  10.159  11.497  11.391
39825SOL     OW21306  11.324   0.052  14.405
39825SOL    HW121307  11.341  14.830  14.398
39825SOL    HW221308  11.233   0.062  14.377
39826SOL     OW21309   6.069  11.328   3.342
39826SOL    HW121310   6.103  11.251   3.388
39826SOL    HW221311   6.138  11.352   3.280
39827SOL     OW21312  13.291  13.245   3.550
39827SOL    HW121313  13.214  13.299   3.568
39827SOL    HW221314  13.341  13.295   3.486
39828SOL     OW21315   6.135  13.860   3.053
39828SOL    HW121316   6.186  13.886   3.129
39828SOL    HW221317   6.047  13.845   3.087
39829SOL     OW21318   0.583   9.448   4.246
39829SOL    HW121319   0.499   9.476   4.210
39829SOL    HW221320   0.599   9.363   4.205
39830SOL     OW21321   2.458   5.130   1.563
39830SOL    HW121322   2.367   5.133   1.531
39830SOL    HW221323   2.450   5.136   1.658
39831SOL     OW21324  11.593   0.135   5.600
39831SOL    HW121325  11.654   0.208   5.587
39831SOL    HW221326  11.508   0.170   5.575
39832SOL     OW21327   6.427   4.971   5.264
39832SOL    HW121328   6.357   5.001   5.206
39832SOL    HW221329   6.389   4.974   5.352
39833SOL     OW21330   6.320   5.396   8.956
39833SOL    HW121331   6.370   5.416   8.877
39833SOL    HW221332   6.249   5.460   8.957
39834SOL     OW21333   1.398   0.991   3.445
39834SOL    HW121334   1.476   0.978   3.391
39834SOL    HW221335   1.332   0.934   3.405
39835SOL     OW21336  12.092   5.370   8.973
39835SOL    HW121337  12.048   5.440   9.022
39835SOL    HW221338  12.137   5.416   8.902
39836SOL     OW21339   3.150   0.952   4.667
39836SOL    HW121340   3.094   0.899   4.723
39836SOL    HW221341   3.234   0.956   4.713
39837SOL     OW21342  11.066   7.429   8.228
39837SOL    HW121343  11.092   7.487   8.300
39837SOL    HW221344  10.974   7.450   8.213
39838SOL     OW21345   4.392  10.260  12.909
39838SOL    HW121346   4.446  10.321  12.860
39838SOL    HW221347   4.314  10.248  12.855
39839SOL     OW21348   1.223  12.638  11.353
39839SOL    HW121349   1.248  12.618  11.443
39839SOL    HW221350   1.252  12.728  11.339
39840SOL     OW21351   7.873  13.297   4.508
39840SOL    HW121352   7.935  13.241   4.462
39840SOL    HW221353   7.794  13.244   4.515
39841SOL     OW21354   9.312   9.080   1.647
39841SOL    HW121355   9.297   9.111   1.558
39841SOL    HW221356   9.227   9.089   1.690
39842SOL     OW21357   4.498   5.939   4.056
39842SOL    HW121358   4.419   5.991   4.063
39842SOL    HW221359   4.528   5.927   4.146
39843SOL     OW21360   7.345  12.764  13.997
39843SOL    HW121361   7.383  12.800  13.918
39843SOL    HW221362   7.407  12.697  14.026
39844SOL     OW21363   2.928   0.237  13.731
39844SOL    HW121364   2.866   0.294  13.685
39844SOL    HW221365   2.878   0.159  13.753
39845SOL     OW21366  12.117   8.484   2.821
39845SOL    HW121367  12.032   8.517   2.792
39845SOL    HW221368  12.126   8.518   2.910
39846SOL     OW21369  14.708   9.429  14.626
39846SOL    HW121370  14.803   9.443  14.628
39846SOL    HW221371  14.696   9.359  14.561
39847SOL     OW21372  11.609  14.344   5.088
39847SOL    HW121373  11.632  14.257   5.121
39847SOL    HW221374  11.691  14.393   5.089
39848SOL     OW21375  12.206   9.560   5.964
39848SOL    HW121376  12.274   9.627   5.967
39848SOL    HW221377  12.151   9.578   6.041
39849SOL     OW21378  14.724   1.694   2.067
39849SOL    HW121379  14.739   1.617   2.012
39849SOL    HW221380  14.798   1.752   2.047
39850SOL     OW21381   0.120   9.160  11.590
39850SOL    HW121382   0.071   9.083  11.620
39850SOL    HW221383   0.054   9.213  11.545
39851SOL     OW21384   1.311   8.769   2.968
39851SOL    HW121385   1.325   8.679   2.998
39851SOL    HW221386   1.254   8.760   2.892
39852SOL     OW21387   6.711  14.417  10.825
39852SOL    HW121388   6.668  14.413  10.739
39852SOL    HW221389   6.651  14.468  10.879
39853SOL     OW21390  11.920   2.936   0.183
39853SOL    HW121391  11.862   2.895   0.247
39853SOL    HW221392  12.008   2.917   0.216
39854SOL     OW21393   4.250   5.898   7.513
39854SOL    HW121394   4.212   5.941   7.437
39854SOL    HW221395   4.175   5.862   7.560
39855SOL     OW21396   4.646   8.975   2.666
39855SOL    HW121397   4.670   8.998   2.756
39855SOL    HW221398   4.653   8.880   2.662
39856SOL     OW21399   4.248   0.203  11.483
39856SOL    HW121400   4.240   0.180  11.576
39856SOL    HW221401   4.209   0.290  11.477
39857SOL     OW21402  10.639   0.335   9.560
39857SOL    HW121403  10.685   0.338   9.476
39857SOL    HW221404  10.674   0.410   9.609
39858SOL     OW21405   7.577   0.364   4.382
39858SOL    HW121406   7.481   0.371   4.379
39858SOL    HW221407   7.608   0.437   4.328
39859SOL     OW21408   3.970  11.297   6.524
39859SOL    HW121409   4.018  11.302   6.607
39859SOL    HW221410   3.880  11.275   6.550
39860SOL     OW21411  10.834  12.511   3.598
39860SOL    HW121412  10.820  12.453   3.673
39860SOL    HW221413  10.868  12.453   3.530
39861SOL     OW21414  10.686   0.992   6.459
39861SOL    HW121415  10.740   0.948   6.394
39861SOL    HW221416  10.601   0.948   6.454
39862SOL     OW21417   7.506  12.820  11.951
39862SOL    HW121418   7.462  12.736  11.964
39862SOL    HW221419   7.468  12.878  12.017
39863SOL     OW21420   6.303   9.985   3.326
39863SOL    HW121421   6.392  10.021   3.328
39863SOL    HW221422   6.249  10.057   3.294
39864SOL     OW21423   1.078   1.131   0.711
39864SOL    HW121424   0.983   1.140   0.699
39864SOL    HW221425   1.089   1.133   0.806
39865SOL     OW21426   5.025  12.369   4.901
39865SOL    HW121427   4.991  12.458   4.898
39865SOL    HW221428   5.120  12.380   4.910
39866SOL     OW21429   2.545   2.045  13.984
39866SOL    HW121430   2.482   2.087  13.925
39866SOL    HW221431   2.629   2.086  13.962
39867SOL     OW21432   8.858   9.525   0.458
39867SOL    HW121433   8.945   9.514   0.497
39867SOL    HW221434   8.870   9.591   0.390
39868SOL     OW21435  10.794   8.746   7.932
39868SOL    HW121436  10.825   8.767   8.020
39868SOL    HW221437  10.725   8.680   7.946
39869SOL     OW21438   9.559   1.084   5.322
39869SOL    HW121439   9.597   1.026   5.257
39869SOL    HW221440   9.624   1.089   5.392
39870SOL     OW21441   3.394  11.500   9.853
39870SOL    HW121442   3.358  11.584   9.881
39870SOL    HW221443   3.465  11.483   9.915
39871SOL     OW21444  12.748   4.419   2.834
39871SOL    HW121445  12.837   4.455   2.837
39871SOL    HW221446  12.760   4.327   2.814
39872SOL     OW21447  13.334   4.572   2.633
39872SOL    HW121448  13.356   4.520   2.710
39872SOL    HW221449  13.388   4.650   2.639
39873SOL     OW21450   6.607   1.352   6.900
39873SOL    HW121451   6.541   1.293   6.864
39873SOL    HW221452   6.641   1.399   6.823
39874SOL     OW21453  13.253  11.240   2.868
39874SOL    HW121454  13.190  11.307   2.893
39874SOL    HW221455  13.314  11.285   2.808
39875SOL     OW21456  10.735  12.898   4.368
39875SOL    HW121457  10.795  12.932   4.302
39875SOL    HW221458  10.788  12.836   4.419
39876SOL     OW21459  12.362   6.150  14.756
39876SOL    HW121460  12.455   6.174  14.752
39876SOL    HW221461  12.330   6.163  14.667
39877SOL     OW21462  14.623   2.033   1.302
39877SOL    HW121463  14.538   2.048   1.261
39877SOL    HW221464  14.628   1.938   1.313
39878SOL     OW21465  10.165   5.262   4.733
39878SOL    HW121466  10.195   5.298   4.817
39878SOL    HW221467  10.204   5.320   4.668
39879SOL     OW21468  13.402   1.745   2.465
39879SOL    HW121469  13.415   1.787   2.550
39879SOL    HW221470  13.316   1.777   2.435
39880SOL     OW21471   7.710  13.899   8.582
39880SOL    HW121472   7.770  13.825   8.582
39880SOL    HW221473   7.766  13.975   8.564
39881SOL     OW21474   1.100   5.800   5.679
39881SOL    HW121475   1.042   5.871   5.705
39881SOL    HW221476   1.084   5.788   5.586
39882SOL     OW21477   0.118   7.913   5.514
39882SOL    HW121478   0.096   7.821   5.499
39882SOL    HW221479   0.109   7.925   5.609
39883SOL     OW21480   0.625   2.728   0.090
39883SOL    HW121481   0.597   2.637   0.080
39883SOL    HW221482   0.546   2.780   0.074
39884SOL     OW21483  14.809   1.869  13.022
39884SOL    HW121484   0.015   1.923  13.007
39884SOL    HW221485  14.761   1.916  13.090
39885SOL     OW21486   6.726  14.519   1.908
39885SOL    HW121487   6.784  14.481   1.842
39885SOL    HW221488   6.759  14.487   1.992
39886SOL     OW21489   2.842   9.201   4.405
39886SOL    HW121490   2.911   9.151   4.447
39886SOL    HW221491   2.843   9.170   4.314
39887SOL     OW21492   4.266  12.818  13.309
39887SOL    HW121493   4.190  12.875  13.304
39887SOL    HW221494   4.259  12.776  13.395
39888SOL     OW21495   1.314  12.895   6.558
39888SOL    HW121496   1.318  12.898   6.653
39888SOL    HW221497   1.301  12.986   6.531
39889SOL     OW21498   0.642   9.926   4.041
39889SOL    HW121499   0.578   9.858   4.022
39889SOL    HW221500   0.601   9.980   4.108
39890SOL     OW21501   2.278   9.208  10.512
39890SOL    HW121502   2.217   9.143  10.548
39890SOL    HW221503   2.235   9.292  10.529
39891SOL     OW21504  11.166   2.972   2.849
39891SOL    HW121505  11.172   2.877   2.839
39891SOL    HW221506  11.073   2.990   2.863
39892SOL     OW21507  13.440   6.791   7.667
39892SOL    HW121508  13.426   6.873   7.715
39892SOL    HW221509  13.487   6.735   7.728
39893SOL     OW21510   9.395   0.048   9.200
39893SOL    HW121511   9.399   0.033   9.295
39893SOL    HW221512   9.468   0.109   9.184
39894SOL     OW21513   5.655   4.024  12.733
39894SOL    HW121514   5.691   4.034  12.821
39894SOL    HW221515   5.560   4.020  12.746
39895SOL     OW21516  10.507  14.212   0.410
39895SOL    HW121517  10.501  14.308   0.405
39895SOL    HW221518  10.417  14.182   0.398
39896SOL     OW21519   7.364   2.765   0.312
39896SOL    HW121520   7.339   2.857   0.317
39896SOL    HW221521   7.397   2.744   0.400
39897SOL     OW21522  11.104   8.019   2.808
39897SOL    HW121523  11.198   8.004   2.794
39897SOL    HW221524  11.062   7.975   2.735
39898SOL     OW21525   8.309   8.963  10.579
39898SOL    HW121526   8.367   8.892  10.607
39898SOL    HW221527   8.299   8.950  10.484
39899SOL     OW21528  13.177   0.340  12.684
39899SOL    HW121529  13.218   0.398  12.747
39899SOL    HW221530  13.099   0.388  12.655
39900SOL     OW21531  10.207   8.185   6.880
39900SOL    HW121532  10.234   8.108   6.930
39900SOL    HW221533  10.286   8.239   6.873
39901SOL     OW21534  12.251   3.662  13.246
39901SOL    HW121535  12.202   3.586  13.278
39901SOL    HW221536  12.315   3.625  13.186
39902SOL     OW21537   4.290  12.754   5.657
39902SOL    HW121538   4.371  12.757   5.707
39902SOL    HW221539   4.279  12.661   5.635
39903SOL     OW21540  11.241  13.614  12.269
39903SOL    HW121541  11.220  13.549  12.337
39903SOL    HW221542  11.337  13.616  12.267
39904SOL     OW21543  13.140  12.625  14.840
39904SOL    HW121544  13.085  12.650   0.042
39904SOL    HW221545  13.082  12.573  14.784
39905SOL     OW21546   6.896   3.120   4.669
39905SOL    HW121547   6.902   3.177   4.746
39905SOL    HW221548   6.833   3.163   4.612
39906SOL     OW21549   8.312   0.663   9.839
39906SOL    HW121550   8.370   0.662   9.763
39906SOL    HW221551   8.296   0.756   9.855
39907SOL     OW21552   1.811   0.434  10.808
39907SOL    HW121553   1.845   0.385  10.883
39907SOL    HW221554   1.850   0.521  10.818
39908SOL     OW21555   1.219  14.715   7.981
39908SOL    HW121556   1.245  14.686   8.069
39908SOL    HW221557   1.219  14.634   7.929
39909SOL     OW21558  10.756   5.026   6.605
39909SOL    HW121559  10.676   5.035   6.553
39909SOL    HW221560  10.804   4.955   6.562
39910SOL     OW21561   3.635  10.130   1.989
39910SOL    HW121562   3.717  10.179   1.979
39910SOL    HW221563   3.625  10.083   1.906
39911SOL     OW21564   2.157   5.590  14.206
39911SOL    HW121565   2.103   5.535  14.263
39911SOL    HW221566   2.110   5.592  14.123
39912SOL     OW21567  13.521   5.846   8.934
39912SOL    HW121568  13.452   5.868   8.997
39912SOL    HW221569  13.507   5.907   8.861
39913SOL     OW21570   3.338   7.269  10.779
39913SOL    HW121571   3.245   7.270  10.799
39913SOL    HW221572   3.344   7.300  10.689
39914SOL     OW21573  10.298   2.439  13.615
39914SOL    HW121574  10.256   2.366  13.661
39914SOL    HW221575  10.391   2.418  13.618
39915SOL     OW21576   1.372  11.803   4.311
39915SOL    HW121577   1.465  11.820   4.293
39915SOL    HW221578   1.354  11.719   4.267
39916SOL     OW21579   1.029   9.313   1.877
39916SOL    HW121580   1.046   9.406   1.861
39916SOL    HW221581   0.971   9.312   1.953
39917SOL     OW21582  13.750  13.797  14.149
39917SOL    HW121583  13.841  13.770  14.141
39917SOL    HW221584  13.700  13.720  14.120
39918SOL     OW21585   8.719   1.781   2.791
39918SOL    HW121586   8.647   1.730   2.753
39918SOL    HW221587   8.782   1.716   2.820
39919SOL     OW21588   4.818   6.173   4.945
39919SOL    HW121589   4.852   6.215   5.024
39919SOL    HW221590   4.876   6.204   4.875
39920SOL     OW21591   4.795   1.714  11.632
39920SOL    HW121592   4.856   1.780  11.598
39920SOL    HW221593   4.709   1.744  11.606
39921SOL     OW21594  10.494  10.720  10.210
39921SOL    HW121595  10.503  10.707  10.116
39921SOL    HW221596  10.446  10.803  10.218
39922SOL     OW21597   6.078   4.985  11.070
39922SOL    HW121598   6.141   4.951  11.007
39922SOL    HW221599   5.994   4.980  11.024
39923SOL     OW21600   0.657  14.545   7.135
39923SOL    HW121601   0.742  14.501   7.143
39923SOL    HW221602   0.647  14.593   7.217
39924SOL     OW21603   1.548   3.185   2.957
39924SOL    HW121604   1.466   3.220   2.923
39924SOL    HW221605   1.586   3.137   2.884
39925SOL     OW21606   3.894   5.791   7.205
39925SOL    HW121607   3.862   5.838   7.129
39925SOL    HW221608   3.816   5.770   7.256
39926SOL     OW21609   3.164  12.363   7.221
39926SOL    HW121610   3.222  12.399   7.288
39926SOL    HW221611   3.161  12.270   7.240
39927SOL     OW21612   8.488  11.557  13.088
39927SOL    HW121613   8.480  11.534  13.180
39927SOL    HW221614   8.543  11.636  13.088
39928SOL     OW21615   3.520   4.175   1.382
39928SOL    HW121616   3.537   4.083   1.365
39928SOL    HW221617   3.451   4.175   1.449
39929SOL     OW21618  14.675   6.465   6.021
39929SOL    HW121619  14.667   6.384   5.970
39929SOL    HW221620  14.768   6.489   6.012
39930SOL     OW21621   8.269   1.628   3.849
39930SOL    HW121622   8.352   1.612   3.804
39930SOL    HW221623   8.252   1.721   3.834
39931SOL     OW21624  10.156   8.569   3.706
39931SOL    HW121625  10.117   8.535   3.787
39931SOL    HW221626  10.170   8.492   3.651
39932SOL     OW21627  11.668  11.552   1.697
39932SOL    HW121628  11.617  11.476   1.725
39932SOL    HW221629  11.744  11.552   1.755
39933SOL     OW21630   0.834   9.500   0.709
39933SOL    HW121631   0.832   9.593   0.730
39933SOL    HW221632   0.863   9.496   0.618
39934SOL     OW21633   7.435   9.519  14.507
39934SOL    HW121634   7.476   9.463  14.441
39934SOL    HW221635   7.451   9.474  14.590
39935SOL     OW21636  11.067   7.901   8.720
39935SOL    HW121637  11.143   7.844   8.708
39935SOL    HW221638  11.074   7.931   8.810
39936SOL     OW21639  11.360   3.697   4.281
39936SOL    HW121640  11.413   3.694   4.201
39936SOL    HW221641  11.384   3.617   4.329
39937SOL     OW21642  14.013   4.674   3.193
39937SOL    HW121643  13.955   4.681   3.269
39937SOL    HW221644  13.994   4.588   3.155
39938SOL     OW21645   3.089   5.615   8.915
39938SOL    HW121646   3.174   5.625   8.872
39938SOL    HW221647   3.051   5.702   8.915
39939SOL     OW21648  12.131   7.862   9.076
39939SOL    HW121649  12.060   7.920   9.048
39939SOL    HW221650  12.087   7.792   9.123
39940SOL     OW21651  14.618   5.032   5.605
39940SOL    HW121652  14.544   4.975   5.628
39940SOL    HW221653  14.675   5.029   5.682
39941SOL     OW21654  11.296  12.558  10.841
39941SOL    HW121655  11.250  12.478  10.866
39941SOL    HW221656  11.332  12.539  10.754
39942SOL     OW21657   4.451   2.114  12.117
39942SOL    HW121658   4.400   2.079  12.190
39942SOL    HW221659   4.540   2.121  12.150
39943SOL     OW21660  10.771  11.822   7.075
39943SOL    HW121661  10.867  11.813   7.069
39943SOL    HW221662  10.746  11.872   6.998
39944SOL     OW21663  14.419   3.771   9.665
39944SOL    HW121664  14.372   3.831   9.608
39944SOL    HW221665  14.357   3.748   9.734
39945SOL     OW21666   1.169   6.840   3.150
39945SOL    HW121667   1.202   6.924   3.182
39945SOL    HW221668   1.243   6.780   3.160
39946SOL     OW21669   5.956  11.010   4.328
39946SOL    HW121670   5.902  10.966   4.393
39946SOL    HW221671   5.978  10.941   4.264
39947SOL     OW21672   3.177   1.528  11.669
39947SOL    HW121673   3.191   1.591  11.740
39947SOL    HW221674   3.223   1.565  11.594
39948SOL     OW21675   3.774  13.948   7.617
39948SOL    HW121676   3.772  13.856   7.593
39948SOL    HW221677   3.845  13.955   7.681
39949SOL     OW21678  12.264   2.675  12.186
39949SOL    HW121679  12.277   2.617  12.111
39949SOL    HW221680  12.198   2.631  12.239
39950SOL     OW21681   3.571   7.102  11.654
39950SOL    HW121682   3.547   7.042  11.725
39950SOL    HW221683   3.611   7.046  11.588
39951SOL     OW21684   5.188  13.507  10.720
39951SOL    HW121685   5.142  13.539  10.642
39951SOL    HW221686   5.196  13.413  10.706
39952SOL     OW21687   4.816  14.846  13.717
39952SOL    HW121688   4.847   0.063  13.699
39952SOL    HW221689   4.822  14.802  13.632
39953SOL     OW21690  14.230  14.367  10.900
39953SOL    HW121691  14.260  14.424  10.970
39953SOL    HW221692  14.256  14.279  10.928
39954SOL     OW21693   8.526   2.790   8.045
39954SOL    HW121694   8.443   2.769   8.001
39954SOL    HW221695   8.572   2.847   7.984
39955SOL     OW21696   4.611   9.395  14.741
39955SOL    HW121697   4.699   9.362  14.758
39955SOL    HW221698   4.570   9.397  14.827
39956SOL     OW21699   6.225   3.627   5.303
39956SOL    HW121700   6.180   3.546   5.282
39956SOL    HW221701   6.162   3.696   5.283
39957SOL     OW21702  14.440   2.274   9.035
39957SOL    HW121703  14.440   2.368   9.022
39957SOL    HW221704  14.467   2.237   8.951
39958SOL     OW21705   9.705   8.755   3.437
39958SOL    HW121706   9.781   8.760   3.495
39958SOL    HW221707   9.695   8.661   3.419
39959SOL     OW21708  10.302   7.700  12.699
39959SOL    HW121709  10.383   7.715  12.748
39959SOL    HW221710  10.290   7.780  12.648
39960SOL     OW21711   0.025   8.562   7.626
39960SOL    HW121712   0.008   8.535   7.716
39960SOL    HW221713   0.030   8.658   7.631
39961SOL     OW21714   6.470   2.456   4.670
39961SOL    HW121715   6.557   2.436   4.635
39961SOL    HW221716   6.488   2.494   4.757
39962SOL     OW21717   6.001  13.274   6.659
39962SOL    HW121718   5.930  13.314   6.609
39962SOL    HW221719   6.057  13.234   6.593
39963SOL     OW21720   9.573  11.796   5.089
39963SOL    HW121721   9.591  11.821   5.180
39963SOL    HW221722   9.540  11.707   5.095
39964SOL     OW21723   6.090   8.075  10.522
39964SOL    HW121724   6.114   7.982  10.516
39964SOL    HW221725   6.047   8.094  10.438
39965SOL     OW21726  12.539  10.043   7.935
39965SOL    HW121727  12.455  10.086   7.923
39965SOL    HW221728  12.569  10.023   7.847
39966SOL     OW21729   7.521   3.627  11.652
39966SOL    HW121730   7.462   3.609  11.725
39966SOL    HW221731   7.608   3.607  11.686
39967SOL     OW21732   9.196   7.990  11.706
39967SOL    HW121733   9.126   8.039  11.750
39967SOL    HW221734   9.161   7.971  11.619
39968SOL     OW21735   2.491  10.875   9.854
39968SOL    HW121736   2.465  10.856   9.763
39968SOL    HW221737   2.522  10.792   9.889
39969SOL     OW21738  10.124   2.542  10.486
39969SOL    HW121739  10.183   2.589  10.427
39969SOL    HW221740  10.157   2.453  10.486
39970SOL     OW21741   6.538  14.312   3.267
39970SOL    HW121742   6.566  14.309   3.359
39970SOL    HW221743   6.524  14.405   3.250
39971SOL     OW21744   1.013  12.168   3.454
39971SOL    HW121745   1.040  12.159   3.546
39971SOL    HW221746   1.076  12.229   3.416
39972SOL     OW21747   5.748   3.125   3.730
39972SOL    HW121748   5.811   3.058   3.704
39972SOL    HW221749   5.701   3.147   3.649
39973SOL     OW21750  11.530   4.792   5.175
39973SOL    HW121751  11.525   4.864   5.237
39973SOL    HW221752  11.440   4.760   5.168
39974SOL     OW21753   3.147   4.215   1.186
39974SOL    HW121754   3.163   4.147   1.252
39974SOL    HW221755   3.201   4.189   1.112
39975SOL     OW21756   9.667  12.956  11.966
39975SOL    HW121757   9.684  12.944  12.059
39975SOL    HW221758   9.676  12.868  11.929
39976SOL     OW21759   9.181   1.088   6.781
39976SOL    HW121760   9.094   1.073   6.746
39976SOL    HW221761   9.176   1.174   6.822
39977SOL     OW21762  14.557   6.246   1.289
39977SOL    HW121763  14.565   6.325   1.342
39977SOL    HW221764  14.590   6.176   1.346
39978SOL     OW21765   4.078   3.116   7.535
39978SOL    HW121766   4.065   3.167   7.455
39978SOL    HW221767   4.078   3.025   7.505
39979SOL     OW21768   7.320  10.314   9.309
39979SOL    HW121769   7.260  10.284   9.241
39979SOL    HW221770   7.406  10.316   9.266
39980SOL     OW21771   8.390  10.500   9.742
39980SOL    HW121772   8.421  10.579   9.786
39980SOL    HW221773   8.359  10.530   9.656
39981SOL     OW21774   1.237   9.989   4.914
39981SOL    HW121775   1.246  10.005   4.820
39981SOL    HW221776   1.179  10.059   4.944
39982SOL     OW21777  12.469   5.852   3.794
39982SOL    HW121778  12.429   5.872   3.709
39982SOL    HW221779  12.398   5.866   3.857
39983SOL     OW21780   6.361  14.340   6.658
39983SOL    HW121781   6.372  14.280   6.584
39983SOL    HW221782   6.282  14.310   6.702
39984SOL     OW21783  11.463   7.171   7.799
39984SOL    HW121784  11.383   7.155   7.848
39984SOL    HW221785  11.433   7.202   7.713
39985SOL     OW21786  14.642  11.587  14.427
39985SOL    HW121787  14.590  11.532  14.367
39985SOL    HW221788  14.719  11.534  14.447
39986SOL     OW21789   5.294   0.736   4.537
39986SOL    HW121790   5.283   0.803   4.604
39986SOL    HW221791   5.358   0.675   4.575
39987SOL     OW21792   4.833   5.048   8.945
39987SOL    HW121793   4.892   5.025   8.873
39987SOL    HW221794   4.872   5.008   9.022
39988SOL     OW21795   8.342   0.885   0.735
39988SOL    HW121796   8.275   0.873   0.802
39988SOL    HW221797   8.358   0.797   0.701
39989SOL     OW21798   4.983   3.020   8.056
39989SOL    HW121799   4.946   3.044   7.971
39989SOL    HW221800   5.020   2.933   8.042
39990SOL     OW21801   5.766   1.735   3.767
39990SOL    HW121802   5.735   1.795   3.835
39990SOL    HW221803   5.747   1.648   3.800
39991SOL     OW21804  13.576   2.314   9.655
39991SOL    HW121805  13.602   2.400   9.622
39991SOL    HW221806  13.640   2.295   9.724
39992SOL     OW21807   5.616  13.222   2.713
39992SOL    HW121808   5.590  13.313   2.729
39992SOL    HW221809   5.539  13.182   2.674
39993SOL     OW21810   9.299  13.773   5.411
39993SOL    HW121811   9.272  13.726   5.490
39993SOL    HW221812   9.366  13.718   5.372
39994SOL     OW21813   9.030   7.990   8.350
39994SOL    HW121814   8.955   8.046   8.372
39994SOL    HW221815   9.081   7.986   8.431
39995SOL     OW21816   8.821  11.834   7.012
39995SOL    HW121817   8.800  11.823   7.105
39995SOL    HW221818   8.781  11.917   6.987
39996SOL     OW21819   8.404   4.596  13.453
39996SOL    HW121820   8.373   4.564  13.537
39996SOL    HW221821   8.433   4.686  13.470
39997SOL     OW21822   0.468   2.178  10.566
39997SOL    HW121823   0.418   2.257  10.546
39997SOL    HW221824   0.454   2.122  10.489
39998SOL     OW21825  13.860   3.461   6.583
39998SOL    HW121826  13.937   3.411   6.556
39998SOL    HW221827  13.846   3.437   6.674
39999SOL     OW21828   8.655  10.831   2.168
39999SOL    HW121829   8.712  10.786   2.229
39999SOL    HW221830   8.711  10.893   2.123
40000SOL     OW21831   5.355   6.963   0.774
40000SOL    HW121832   5.388   6.888   0.824
40000SOL    HW221833   5.361   6.934   0.683
40001SOL     OW21834  12.820   1.051   3.878
40001SOL    HW121835  12.774   0.970   3.854
40001SOL    HW221836  12.903   1.021   3.915
40002SOL     OW21837  11.988   1.498  13.233
40002SOL    HW121838  12.001   1.557  13.159
40002SOL    HW221839  11.958   1.554  13.304
40003SOL     OW21840   5.117  10.445   2.434
40003SOL    HW121841   5.083  10.505   2.500
40003SOL    HW221842   5.128  10.499   2.356
40004SOL     OW21843   5.614   3.296  12.181
40004SOL    HW121844   5.581   3.384  12.162
40004SOL    HW221845   5.537   3.240  12.174
40005SOL     OW21846   2.807  11.731   8.717
40005SOL    HW121847   2.844  11.651   8.754
40005SOL    HW221848   2.878  11.770   8.666
40006SOL     OW21849   8.506   6.548   1.223
40006SOL    HW121850   8.449   6.610   1.178
40006SOL    HW221851   8.509   6.471   1.165
40007SOL     OW21852   4.196   1.597   5.982
40007SOL    HW121853   4.205   1.628   6.072
40007SOL    HW221854   4.135   1.524   5.988
40008SOL     OW21855   7.823   0.706  11.758
40008SOL    HW121856   7.755   0.676  11.817
40008SOL    HW221857   7.853   0.789  11.796
40009SOL     OW21858   3.817   2.808   1.516
40009SOL    HW121859   3.789   2.752   1.588
40009SOL    HW221860   3.756   2.882   1.517
40010SOL     OW21861  14.495  10.028   7.239
40010SOL    HW121862  14.471  10.048   7.329
40010SOL    HW221863  14.542  10.106   7.209
40011SOL     OW21864  10.658   9.747  11.198
40011SOL    HW121865  10.626   9.835  11.215
40011SOL    HW221866  10.583   9.690  11.215
40012SOL     OW21867  13.621  14.091   9.419
40012SOL    HW121868  13.528  14.083   9.398
40012SOL    HW221869  13.666  14.063   9.340
40013SOL     OW21870  11.655   0.038   5.319
40013SOL    HW121871  11.631  14.834   5.267
40013SOL    HW221872  11.617   0.021   5.405
40014SOL     OW21873  10.145   4.317   1.203
40014SOL    HW121874  10.162   4.348   1.292
40014SOL    HW221875  10.225   4.338   1.155
40015SOL     OW21876   6.767  13.997   5.002
40015SOL    HW121877   6.855  13.971   5.028
40015SOL    HW221878   6.740  13.932   4.938
40016SOL     OW21879  13.039  11.967   6.794
40016SOL    HW121880  12.955  11.983   6.751
40016SOL    HW221881  13.027  11.999   6.884
40017SOL     OW21882  10.909  12.292   8.989
40017SOL    HW121883  10.909  12.320   9.081
40017SOL    HW221884  10.892  12.372   8.939
40018SOL     OW21885   6.169   0.636   5.042
40018SOL    HW121886   6.231   0.709   5.047
40018SOL    HW221887   6.173   0.608   4.950
40019SOL     OW21888   0.981   5.602   8.019
40019SOL    HW121889   1.020   5.588   7.933
40019SOL    HW221890   1.046   5.570   8.081
40020SOL     OW21891   1.689  11.837  12.900
40020SOL    HW121892   1.610  11.879  12.867
40020SOL    HW221893   1.741  11.910  12.935
40021SOL     OW21894   3.112   8.959  10.880
40021SOL    HW121895   3.119   8.872  10.919
40021SOL    HW221896   3.201   8.979  10.852
40022SOL     OW21897  12.943   6.496   3.907
40022SOL    HW121898  13.007   6.438   3.949
40022SOL    HW221899  12.863   6.444   3.901
40023SOL     OW21900   2.249  11.380  11.014
40023SOL    HW121901   2.307  11.306  10.997
40023SOL    HW221902   2.307  11.455  11.024
40024SOL     OW21903   0.318  11.464   8.021
40024SOL    HW121904   0.379  11.524   8.064
40024SOL    HW221905   0.357  11.377   8.035
40025SOL     OW21906   2.225   4.543  10.737
40025SOL    HW121907   2.229   4.544  10.641
40025SOL    HW221908   2.139   4.507  10.757
40026SOL     OW21909  12.557  11.004   3.118
40026SOL    HW121910  12.609  11.066   3.067
40026SOL    HW221911  12.579  10.918   3.082
40027SOL     OW21912   3.978   3.066   1.877
40027SOL    HW121913   3.946   3.090   1.790
40027SOL    HW221914   4.025   2.984   1.864
40028SOL     OW21915   6.279   1.108  12.012
40028SOL    HW121916   6.368   1.103  12.048
40028SOL    HW221917   6.277   1.193  11.967
40029SOL     OW21918   7.019  14.086  10.409
40029SOL    HW121919   7.058  14.008  10.450
40029SOL    HW221920   7.071  14.100  10.330
40030SOL     OW21921   9.905   6.510   2.869
40030SOL    HW121922   9.823   6.473   2.835
40030SOL    HW221923   9.881   6.596   2.902
40031SOL     OW21924  14.568  13.809   3.775
40031SOL    HW121925  14.637  13.873   3.792
40031SOL    HW221926  14.563  13.803   3.679
40032SOL     OW21927   3.121   5.388   7.924
40032SOL    HW121928   3.045   5.330   7.927
40032SOL    HW221929   3.164   5.367   7.841
40033SOL     OW21930   5.383   6.274   3.385
40033SOL    HW121931   5.327   6.223   3.326
40033SOL    HW221932   5.427   6.209   3.439
40034SOL     OW21933  12.100  10.295   2.104
40034SOL    HW121934  12.025  10.239   2.084
40034SOL    HW221935  12.176  10.247   2.068
40035SOL     OW21936  13.633   4.920  11.473
40035SOL    HW121937  13.599   4.833  11.450
40035SOL    HW221938  13.596   4.978  11.407
40036SOL     OW21939   1.536   0.169   3.518
40036SOL    HW121940   1.574   0.174   3.606
40036SOL    HW221941   1.453   0.216   3.524
40037SOL     OW21942   1.475  10.394   4.381
40037SOL    HW121943   1.496  10.421   4.470
40037SOL    HW221944   1.490  10.300   4.380
40038SOL     OW21945   9.075  11.445   4.578
40038SOL    HW121946   8.990  11.438   4.535
40038SOL    HW221947   9.113  11.357   4.570
40039SOL     OW21948  11.651   4.571   8.046
40039SOL    HW121949  11.579   4.508   8.040
40039SOL    HW221950  11.659   4.607   7.958
40040SOL     OW21951   8.947   0.531   2.386
40040SOL    HW121952   8.932   0.523   2.480
40040SOL    HW221953   9.041   0.516   2.375
40041SOL     OW21954  10.329  12.680  10.414
40041SOL    HW121955  10.391  12.637  10.472
40041SOL    HW221956  10.339  12.773  10.433
40042SOL     OW21957   3.373  13.708  11.507
40042SOL    HW121958   3.313  13.769  11.550
40042SOL    HW221959   3.319  13.632  11.486
40043SOL     OW21960  10.137   2.761   1.758
40043SOL    HW121961  10.061   2.768   1.701
40043SOL    HW221962  10.140   2.669   1.783
40044SOL     OW21963   4.793  14.402   6.614
40044SOL    HW121964   4.720  14.341   6.601
40044SOL    HW221965   4.778  14.470   6.548
40045SOL     OW21966   5.108   0.662  12.008
40045SOL    HW121967   5.070   0.734  12.059
40045SOL    HW221968   5.050   0.655  11.932
40046SOL     OW21969  10.231   9.789   9.335
40046SOL    HW121970  10.219   9.822   9.246
40046SOL    HW221971  10.233   9.694   9.326
40047SOL     OW21972  14.548  14.324  14.392
40047SOL    HW121973  14.589  14.321  14.478
40047SOL    HW221974  14.470  14.378  14.404
40048SOL     OW21975   3.995  14.746   8.837
40048SOL    HW121976   4.082  14.706   8.833
40048SOL    HW221977   3.940  14.677   8.874
40049SOL     OW21978   2.726  10.942   2.950
40049SOL    HW121979   2.764  10.878   2.891
40049SOL    HW221980   2.795  10.960   3.014
40050SOL     OW21981  11.820   4.958  12.552
40050SOL    HW121982  11.727   4.966  12.529
40050SOL    HW221983  11.866   4.997  12.479
40051SOL     OW21984   7.248  12.451   8.122
40051SOL    HW121985   7.157  12.475   8.137
40051SOL    HW221986   7.290  12.464   8.208
40052SOL     OW21987   9.052   5.737   9.676
40052SOL    HW121988   9.012   5.813   9.719
40052SOL    HW221989   9.119   5.707   9.737
40053SOL     OW21990   0.795   4.001   5.369
40053SOL    HW121991   0.768   3.926   5.423
40053SOL    HW221992   0.875   4.033   5.410
40054SOL     OW21993   1.654   4.629   6.574
40054SOL    HW121994   1.668   4.564   6.644
40054SOL    HW221995   1.737   4.632   6.527
40055SOL     OW21996   4.750  12.969  14.099
40055SOL    HW121997   4.713  13.040  14.045
40055SOL    HW221998   4.733  12.996  14.189
40056SOL     OW21999   3.356   5.936  12.754
40056SOL    HW122000   3.331   6.021  12.718
40056SOL    HW222001   3.290   5.918  12.822
40057SOL     OW22002   5.430   4.503   6.008
40057SOL    HW122003   5.381   4.487   5.927
40057SOL    HW222004   5.472   4.420   6.028
40058SOL     OW22005   5.051   4.874  14.084
40058SOL    HW122006   5.118   4.847  14.147
40058SOL    HW222007   5.063   4.968  14.076
40059SOL     OW22008   7.886  11.735  11.976
40059SOL    HW122009   7.964  11.723  11.923
40059SOL    HW222010   7.866  11.647  12.010
40060SOL     OW22011   0.890  10.913  10.340
40060SOL    HW122012   0.953  10.932  10.410
40060SOL    HW222013   0.848  10.998  10.323
40061SOL     OW22014   0.453  12.777  10.113
40061SOL    HW122015   0.505  12.849  10.149
40061SOL    HW222016   0.366  12.815  10.100
40062SOL     OW22017  13.396   2.065  11.082
40062SOL    HW122018  13.319   2.046  11.135
40062SOL    HW222019  13.387   2.157  11.059
40063SOL     OW22020   1.506  13.821   7.652
40063SOL    HW122021   1.417  13.855   7.663
40063SOL    HW222022   1.535  13.859   7.569
40064SOL     OW22023   9.039   7.546   3.073
40064SOL    HW122024   9.003   7.480   3.014
40064SOL    HW222025   8.965   7.603   3.093
40065SOL     OW22026   4.445   3.951   5.795
40065SOL    HW122027   4.369   3.964   5.852
40065SOL    HW222028   4.413   3.895   5.724
40066SOL     OW22029  14.070   7.555  11.203
40066SOL    HW122030  14.047   7.484  11.264
40066SOL    HW222031  14.139   7.518  11.149
40067SOL     OW22032  11.663   1.571   4.683
40067SOL    HW122033  11.702   1.604   4.765
40067SOL    HW222034  11.578   1.615   4.678
40068SOL     OW22035  10.758  12.558  12.547
40068SOL    HW122036  10.816  12.627  12.582
40068SOL    HW222037  10.778  12.481  12.600
40069SOL     OW22038   8.832   5.499   1.824
40069SOL    HW122039   8.845   5.408   1.796
40069SOL    HW222040   8.829   5.548   1.742
40070SOL     OW22041  12.739   6.463   0.727
40070SOL    HW122042  12.685   6.427   0.797
40070SOL    HW222043  12.745   6.556   0.746
40071SOL     OW22044  11.860   2.627   9.714
40071SOL    HW122045  11.795   2.600   9.779
40071SOL    HW222046  11.816   2.693   9.661
40072SOL     OW22047   3.071   6.686   1.914
40072SOL    HW122048   3.032   6.681   1.827
40072SOL    HW222049   3.111   6.773   1.917
40073SOL     OW22050   3.637   0.572   9.299
40073SOL    HW122051   3.731   0.555   9.291
40073SOL    HW222052   3.617   0.552   9.390
40074SOL     OW22053   2.377   1.290   2.103
40074SOL    HW122054   2.440   1.272   2.172
40074SOL    HW222055   2.421   1.353   2.046
40075SOL     OW22056   5.868   1.394   5.814
40075SOL    HW122057   5.872   1.487   5.839
40075SOL    HW222058   5.837   1.350   5.893
40076SOL     OW22059   7.299  11.874   9.441
40076SOL    HW122060   7.320  11.818   9.366
40076SOL    HW222061   7.353  11.952   9.428
40077SOL     OW22062  13.384   4.944   5.273
40077SOL    HW122063  13.435   4.928   5.352
40077SOL    HW222064  13.379   4.859   5.230
40078SOL     OW22065  14.853  13.272  13.320
40078SOL    HW122066  14.791  13.336  13.356
40078SOL    HW222067  14.831  13.190  13.364
40079SOL     OW22068  13.781  11.796  11.320
40079SOL    HW122069  13.849  11.863  11.312
40079SOL    HW222070  13.700  11.842  11.299
40080SOL     OW22071  13.384  11.839  10.967
40080SOL    HW122072  13.322  11.820  10.897
40080SOL    HW222073  13.350  11.791  11.043
40081SOL     OW22074   4.382  12.179   1.302
40081SOL    HW122075   4.371  12.244   1.371
40081SOL    HW222076   4.421  12.103   1.347
40082SOL     OW22077   9.137  13.826   8.293
40082SOL    HW122078   9.231  13.837   8.280
40082SOL    HW222079   9.123  13.844   8.386
40083SOL     OW22080   6.436  14.510   1.511
40083SOL    HW122081   6.454  14.530   1.603
40083SOL    HW222082   6.515  14.463   1.482
40084SOL     OW22083  11.938  14.830  14.618
40084SOL    HW122084  12.033  14.834  14.623
40084SOL    HW222085  11.908   0.019  14.685
40085SOL     OW22086   8.787   7.417   0.429
40085SOL    HW122087   8.791   7.344   0.491
40085SOL    HW222088   8.857   7.399   0.366
40086SOL     OW22089   9.101   4.123  10.161
40086SOL    HW122090   9.158   4.153  10.232
40086SOL    HW222091   9.154   4.058  10.114
40087SOL     OW22092  11.665  14.594  10.685
40087SOL    HW122093  11.661  14.612  10.779
40087SOL    HW222094  11.603  14.522  10.672
40088SOL     OW22095   7.773   7.416  10.973
40088SOL    HW122096   7.789   7.498  10.927
40088SOL    HW222097   7.802   7.348  10.912
40089SOL     OW22098   4.195   1.000   8.715
40089SOL    HW122099   4.203   1.054   8.637
40089SOL    HW222100   4.186   0.910   8.682
40090SOL     OW22101  11.915   4.983  10.162
40090SOL    HW122102  11.912   4.942  10.249
40090SOL    HW222103  11.992   5.039  10.165
40091SOL     OW22104   3.089   4.555  11.330
40091SOL    HW122105   3.109   4.649  11.334
40091SOL    HW222106   2.993   4.552  11.333
40092SOL     OW22107   4.608   2.236   7.208
40092SOL    HW122108   4.603   2.332   7.211
40092SOL    HW222109   4.665   2.217   7.133
40093SOL     OW22110   7.874  10.232  10.001
40093SOL    HW122111   7.899  10.193  10.085
40093SOL    HW222112   7.781  10.253  10.011
40094SOL     OW22113   7.452  11.421   5.354
40094SOL    HW122114   7.384  11.391   5.415
40094SOL    HW222115   7.523  11.357   5.365
40095SOL     OW22116  13.759   4.723   2.982
40095SOL    HW122117  13.821   4.785   2.942
40095SOL    HW222118  13.812   4.645   3.000
40096SOL     OW22119   4.580  12.338   2.747
40096SOL    HW122120   4.556  12.418   2.700
40096SOL    HW222121   4.549  12.267   2.691
40097SOL     OW22122   0.773  11.183   3.060
40097SOL    HW122123   0.852  11.168   3.111
40097SOL    HW222124   0.703  11.191   3.124
40098SOL     OW22125   0.565  11.582   6.188
40098SOL    HW122126   0.523  11.577   6.102
40098SOL    HW222127   0.501  11.628   6.243
40099SOL     OW22128   7.436   5.805   3.403
40099SOL    HW122129   7.416   5.881   3.456
40099SOL    HW222130   7.443   5.733   3.465
40100SOL     OW22131  14.064   7.264   6.245
40100SOL    HW122132  14.018   7.302   6.320
40100SOL    HW222133  14.085   7.338   6.189
40101SOL     OW22134  10.616   1.293  14.697
40101SOL    HW122135  10.638   1.233  14.626
40101SOL    HW222136  10.634   1.380  14.661
40102SOL     OW22137   1.866   1.859   2.347
40102SOL    HW122138   1.952   1.902   2.348
40102SOL    HW222139   1.818   1.903   2.277
40103SOL     OW22140  10.121  13.856   4.631
40103SOL    HW122141  10.182  13.889   4.697
40103SOL    HW222142  10.163  13.872   4.547
40104SOL     OW22143   6.062  10.188  10.235
40104SOL    HW122144   6.048  10.169  10.143
40104SOL    HW222145   6.044  10.105  10.280
40105SOL     OW22146  13.794  11.561  14.020
40105SOL    HW122147  13.733  11.575  14.093
40105SOL    HW222148  13.741  11.576  13.942
40106SOL     OW22149  13.656   0.619  13.679
40106SOL    HW122150  13.602   0.697  13.663
40106SOL    HW222151  13.619   0.552  13.621
40107SOL     OW22152   2.912   7.423   5.259
40107SOL    HW122153   2.999   7.434   5.296
40107SOL    HW222154   2.905   7.492   5.193
40108SOL     OW22155   2.141   0.327   9.422
40108SOL    HW122156   2.173   0.406   9.379
40108SOL    HW222157   2.062   0.355   9.468
40109SOL     OW22158   7.242   3.072   7.123
40109SOL    HW122159   7.225   3.118   7.041
40109SOL    HW222160   7.178   3.001   7.125
40110SOL     OW22161   3.899  13.016  12.561
40110SOL    HW122162   3.977  12.976  12.599
40110SOL    HW222163   3.883  12.965  12.481
40111SOL     OW22164   6.538  10.282   7.878
40111SOL    HW122165   6.529  10.187   7.879
40111SOL    HW222166   6.582  10.303   7.960
40112SOL     OW22167   2.035   2.213   3.166
40112SOL    HW122168   2.024   2.142   3.104
40112SOL    HW222169   2.113   2.189   3.217
40113SOL     OW22170   3.426  11.401   0.673
40113SOL    HW122171   3.487  11.398   0.599
40113SOL    HW222172   3.340  11.410   0.632
40114SOL     OW22173   2.643   4.155   5.934
40114SOL    HW122174   2.683   4.164   5.847
40114SOL    HW222175   2.569   4.096   5.920
40115SOL     OW22176  10.993   8.747   4.629
40115SOL    HW122177  11.054   8.803   4.676
40115SOL    HW222178  10.931   8.718   4.695
40116SOL     OW22179   3.199  10.207   6.152
40116SOL    HW122180   3.170  10.292   6.186
40116SOL    HW222181   3.119  10.154   6.150
40117SOL     OW22182   6.676   8.462  14.593
40117SOL    HW122183   6.720   8.547  14.588
40117SOL    HW222184   6.622   8.458  14.515
40118SOL     OW22185   6.090   1.291   4.591
40118SOL    HW122186   6.185   1.280   4.595
40118SOL    HW222187   6.058   1.248   4.670
40119SOL     OW22188  10.079   7.410   8.487
40119SOL    HW122189   9.989   7.411   8.454
40119SOL    HW222190  10.117   7.492   8.456
40120SOL     OW22191  11.376  12.813   9.885
40120SOL    HW122192  11.465  12.780   9.897
40120SOL    HW222193  11.320  12.735   9.887
40121SOL     OW22194   8.267   0.673   0.223
40121SOL    HW122195   8.270   0.711   0.136
40121SOL    HW222196   8.326   0.597   0.218
40122SOL     OW22197   2.917   5.380   8.938
40122SOL    HW122198   2.981   5.442   8.905
40122SOL    HW222199   2.832   5.422   8.922
40123SOL     OW22200   8.192   0.015   5.452
40123SOL    HW122201   8.130   0.088   5.466
40123SOL    HW222202   8.189  14.837   5.533
40124SOL     OW22203  14.452  12.823   5.466
40124SOL    HW122204  14.532  12.804   5.417
40124SOL    HW222205  14.482  12.841   5.555
40125SOL     OW22206   0.206   9.529  10.464
40125SOL    HW122207   0.152   9.559  10.537
40125SOL    HW222208   0.288   9.578  10.473
40126SOL     OW22209  13.014   8.458   0.780
40126SOL    HW122210  13.019   8.422   0.868
40126SOL    HW222211  13.105   8.464   0.751
40127SOL     OW22212  10.395  11.471   5.991
40127SOL    HW122213  10.403  11.531   5.917
40127SOL    HW222214  10.485  11.463   6.024
40128SOL     OW22215   5.235  10.461   6.170
40128SOL    HW122216   5.215  10.498   6.084
40128SOL    HW222217   5.150  10.445   6.210
40129SOL     OW22218   5.198  14.067   0.532
40129SOL    HW122219   5.284  14.109   0.541
40129SOL    HW222220   5.169  14.052   0.622
40130SOL     OW22221   5.720   3.209   2.202
40130SOL    HW122222   5.656   3.271   2.238
40130SOL    HW222223   5.676   3.124   2.205
40131SOL     OW22224   6.081  11.392   7.397
40131SOL    HW122225   6.012  11.419   7.337
40131SOL    HW222226   6.042  11.400   7.484
40132SOL     OW22227   6.903   0.287  13.918
40132SOL    HW122228   6.982   0.235  13.901
40132SOL    HW222229   6.916   0.323  14.005
40133SOL     OW22230   5.711   9.060  12.841
40133SOL    HW122231   5.804   9.044  12.848
40133SOL    HW222232   5.693   9.129  12.905
40134SOL     OW22233   1.453   6.829   1.479
40134SOL    HW122234   1.484   6.743   1.452
40134SOL    HW222235   1.523   6.889   1.456
40135SOL     OW22236   4.081   4.343   6.210
40135SOL    HW122237   4.046   4.404   6.275
40135SOL    HW222238   4.028   4.358   6.131
40136SOL     OW22239   7.860   1.634  13.894
40136SOL    HW122240   7.768   1.650  13.916
40136SOL    HW222241   7.884   1.559  13.950
40137SOL     OW22242  13.950  14.390   5.984
40137SOL    HW122243  13.989  14.319   6.034
40137SOL    HW222244  13.928  14.456   6.049
40138SOL     OW22245   8.889   9.957  10.950
40138SOL    HW122246   8.890  10.051  10.931
40138SOL    HW222247   8.934   9.917  10.876
40139SOL     OW22248   7.983  10.842   3.060
40139SOL    HW122249   8.018  10.753   3.051
40139SOL    HW222250   7.894  10.829   3.093
40140SOL     OW22251   3.213   3.664  11.540
40140SOL    HW122252   3.282   3.601  11.562
40140SOL    HW222253   3.180   3.634  11.455
40141SOL     OW22254  12.032   8.428  14.426
40141SOL    HW122255  11.965   8.376  14.383
40141SOL    HW222256  12.105   8.430  14.364
40142SOL     OW22257   8.763  12.352   7.525
40142SOL    HW122258   8.786  12.444   7.529
40142SOL    HW222259   8.843  12.308   7.497
40143SOL     OW22260  12.919   8.632  11.686
40143SOL    HW122261  12.917   8.643  11.781
40143SOL    HW222262  12.872   8.709  11.653
40144SOL     OW22263   6.603   6.333  12.421
40144SOL    HW122264   6.572   6.330  12.511
40144SOL    HW222265   6.577   6.420  12.390
40145SOL     OW22266   1.023   4.968  10.066
40145SOL    HW122267   1.076   4.917  10.127
40145SOL    HW222268   0.933   4.958  10.098
40146SOL     OW22269   8.372   0.191   8.804
40146SOL    HW122270   8.401   0.100   8.808
40146SOL    HW222271   8.427   0.237   8.868
40147SOL     OW22272   1.334   4.505  14.559
40147SOL    HW122273   1.377   4.424  14.584
40147SOL    HW222274   1.279   4.481  14.484
40148SOL     OW22275   0.846  10.380   6.232
40148SOL    HW122276   0.923  10.354   6.283
40148SOL    HW222277   0.808  10.452   6.282
40149SOL     OW22278  10.276   4.113   6.676
40149SOL    HW122279  10.204   4.098   6.738
40149SOL    HW222280  10.256   4.056   6.602
40150SOL     OW22281   5.188   1.167   8.098
40150SOL    HW122282   5.241   1.222   8.156
40150SOL    HW222283   5.132   1.229   8.051
40151SOL     OW22284  13.670   2.020  13.448
40151SOL    HW122285  13.744   1.977  13.406
40151SOL    HW222286  13.608   2.036  13.377
40152SOL     OW22287  12.389   0.280   4.075
40152SOL    HW122288  12.445   0.274   3.998
40152SOL    HW222289  12.317   0.220   4.058
40153SOL     OW22290   5.779   7.198  11.758
40153SOL    HW122291   5.821   7.243  11.684
40153SOL    HW222292   5.789   7.258  11.832
40154SOL     OW22293   4.076   0.536  13.202
40154SOL    HW122294   4.121   0.491  13.273
40154SOL    HW222295   4.017   0.470  13.165
40155SOL     OW22296   6.771  10.875  14.568
40155SOL    HW122297   6.793  10.852  14.658
40155SOL    HW222298   6.703  10.813  14.542
40156SOL     OW22299   8.849   6.853  13.377
40156SOL    HW122300   8.927   6.800  13.359
40156SOL    HW222301   8.780   6.812  13.326
40157SOL     OW22302   1.004   1.773   1.128
40157SOL    HW122303   1.090   1.809   1.146
40157SOL    HW222304   0.955   1.846   1.090
40158SOL     OW22305   3.559   4.347   0.748
40158SOL    HW122306   3.649   4.355   0.779
40158SOL    HW222307   3.540   4.253   0.754
40159SOL     OW22308   7.398  11.374   3.596
40159SOL    HW122309   7.391  11.444   3.532
40159SOL    HW222310   7.307  11.355   3.620
40160SOL     OW22311   2.461  14.710  13.967
40160SOL    HW122312   2.380  14.685  14.012
40160SOL    HW222313   2.513  14.630  13.964
40161SOL     OW22314  14.121  10.297   1.177
40161SOL    HW122315  14.056  10.293   1.247
40161SOL    HW222316  14.071  10.321   1.099
40162SOL     OW22317  10.299   6.332   1.173
40162SOL    HW122318  10.273   6.361   1.260
40162SOL    HW222319  10.226   6.278   1.143
40163SOL     OW22320  11.641   7.445   5.949
40163SOL    HW122321  11.558   7.401   5.931
40163SOL    HW222322  11.694   7.379   5.994
40164SOL     OW22323   7.218   6.049   8.378
40164SOL    HW122324   7.217   6.095   8.294
40164SOL    HW222325   7.137   6.075   8.421
40165SOL     OW22326   3.044   8.177   7.436
40165SOL    HW122327   2.968   8.219   7.475
40165SOL    HW222328   3.033   8.084   7.454
40166SOL     OW22329  13.007   7.020   2.974
40166SOL    HW122330  13.034   6.981   2.891
40166SOL    HW222331  13.088   7.037   3.020
40167SOL     OW22332   0.418  11.416   1.640
40167SOL    HW122333   0.414  11.439   1.733
40167SOL    HW222334   0.370  11.333   1.634
40168SOL     OW22335  12.105   0.064   6.886
40168SOL    HW122336  12.101   0.154   6.853
40168SOL    HW222337  12.022   0.052   6.933
40169SOL     OW22338   7.356   0.150   2.771
40169SOL    HW122339   7.300   0.119   2.700
40169SOL    HW222340   7.425   0.084   2.777
40170SOL     OW22341   6.127   8.171   5.165
40170SOL    HW122342   6.148   8.077   5.170
40170SOL    HW222343   6.034   8.174   5.142
40171SOL     OW22344   9.356  12.855   7.882
40171SOL    HW122345   9.397  12.915   7.945
40171SOL    HW222346   9.417  12.782   7.875
40172SOL     OW22347  11.971  13.440   3.033
40172SOL    HW122348  12.058  13.477   3.053
40172SOL    HW222349  11.909  13.502   3.072
40173SOL     OW22350  11.197  14.687   7.406
40173SOL    HW122351  11.270  14.728   7.360
40173SOL    HW222352  11.125  14.689   7.344
40174SOL     OW22353   2.315   6.308   2.012
40174SOL    HW122354   2.344   6.270   1.928
40174SOL    HW222355   2.364   6.259   2.078
40175SOL     OW22356   6.379   0.650   5.942
40175SOL    HW122357   6.451   0.708   5.964
40175SOL    HW222358   6.374   0.588   6.016
40176SOL     OW22359   1.831   5.516   0.690
40176SOL    HW122360   1.856   5.579   0.758
40176SOL    HW222361   1.910   5.507   0.636
40177SOL     OW22362   1.682   8.489   2.290
40177SOL    HW122363   1.724   8.545   2.356
40177SOL    HW222364   1.750   8.430   2.261
40178SOL     OW22365   0.290   5.780  13.758
40178SOL    HW122366   0.208   5.825  13.739
40178SOL    HW222367   0.263   5.691  13.781
40179SOL     OW22368   8.458  13.094   4.658
40179SOL    HW122369   8.470  13.185   4.686
40179SOL    HW222370   8.438  13.100   4.564
40180SOL     OW22371   5.067  13.121   5.364
40180SOL    HW122372   5.001  13.108   5.432
40180SOL    HW222373   5.031  13.191   5.310
40181SOL     OW22374  13.549   2.733   3.323
40181SOL    HW122375  13.640   2.746   3.297
40181SOL    HW222376  13.554   2.688   3.407
40182SOL     OW22377  11.378   7.085   0.369
40182SOL    HW122378  11.422   7.170   0.369
40182SOL    HW222379  11.397   7.049   0.283
40183SOL     OW22380   6.934  13.198   1.063
40183SOL    HW122381   6.846  13.176   1.094
40183SOL    HW222382   6.932  13.179   0.969
40184SOL     OW22383   5.336   1.110   6.320
40184SOL    HW122384   5.408   1.122   6.259
40184SOL    HW222385   5.366   1.042   6.380
40185SOL     OW22386   8.934  12.381   3.908
40185SOL    HW122387   8.912  12.399   3.817
40185SOL    HW222388   8.921  12.286   3.918
40186SOL     OW22389  14.568  11.453   5.169
40186SOL    HW122390  14.545  11.532   5.218
40186SOL    HW222391  14.651  11.475   5.126
40187SOL     OW22392  14.772  12.353   4.180
40187SOL    HW122393  14.768  12.265   4.218
40187SOL    HW222394  14.738  12.410   4.249
40188SOL     OW22395   7.188   0.326   5.229
40188SOL    HW122396   7.098   0.295   5.233
40188SOL    HW222397   7.200   0.377   5.309
40189SOL     OW22398   7.914   6.724  14.244
40189SOL    HW122399   7.935   6.760  14.158
40189SOL    HW222400   7.834   6.673  14.230
40190SOL     OW22401   9.483   9.815   3.834
40190SOL    HW122402   9.543   9.741   3.839
40190SOL    HW222403   9.413   9.786   3.775
40191SOL     OW22404  11.253  11.730   6.227
40191SOL    HW122405  11.278  11.798   6.164
40191SOL    HW222406  11.320  11.735   6.295
40192SOL     OW22407   5.788   2.360  10.513
40192SOL    HW122408   5.836   2.343  10.594
40192SOL    HW222409   5.824   2.443  10.481
40193SOL     OW22410  12.701   4.618   9.045
40193SOL    HW122411  12.753   4.693   9.018
40193SOL    HW222412  12.610   4.645   9.030
40194SOL     OW22413   4.780   0.606   7.708
40194SOL    HW122414   4.863   0.584   7.665
40194SOL    HW222415   4.719   0.624   7.636
40195SOL     OW22416   8.702  13.820  12.982
40195SOL    HW122417   8.730  13.729  12.992
40195SOL    HW222418   8.677  13.847  13.070
40196SOL     OW22419  13.607   4.500   0.260
40196SOL    HW122420  13.660   4.493   0.340
40196SOL    HW222421  13.663   4.465   0.191
40197SOL     OW22422   5.979   5.282   9.752
40197SOL    HW122423   6.012   5.194   9.772
40197SOL    HW222424   5.942   5.275   9.664
40198SOL     OW22425   0.249   1.719   4.472
40198SOL    HW122426   0.282   1.781   4.537
40198SOL    HW222427   0.154   1.725   4.478
40199SOL     OW22428   3.158   2.452   3.020
40199SOL    HW122429   3.119   2.377   3.065
40199SOL    HW222430   3.248   2.456   3.053
40200SOL     OW22431   3.042   8.798   7.062
40200SOL    HW122432   3.029   8.858   7.135
40200SOL    HW222433   3.016   8.712   7.096
40201SOL     OW22434   3.296  11.114  12.379
40201SOL    HW122435   3.379  11.131  12.423
40201SOL    HW222436   3.306  11.026  12.341
40202SOL     OW22437  14.563   0.304  12.063
40202SOL    HW122438  14.560   0.395  12.033
40202SOL    HW222439  14.650   0.293  12.099
40203SOL     OW22440   6.097   0.138  11.683
40203SOL    HW122441   6.168   0.174  11.631
40203SOL    HW222442   6.017   0.165  11.637
40204SOL     OW22443   4.882   6.180  12.353
40204SOL    HW122444   4.858   6.131  12.432
40204SOL    HW222445   4.942   6.122  12.306
40205SOL     OW22446   1.098  13.621   4.722
40205SOL    HW122447   1.077  13.563   4.648
40205SOL    HW222448   1.118  13.562   4.794
40206SOL     OW22449   3.586  14.869   2.770
40206SOL    HW122450   3.550  14.852   2.683
40206SOL    HW222451   3.512   0.029   2.821
40207SOL     OW22452   7.743   2.526   6.547
40207SOL    HW122453   7.825   2.486   6.518
40207SOL    HW222454   7.676   2.482   6.496
40208SOL     OW22455  12.186   1.861   2.011
40208SOL    HW122456  12.169   1.870   2.105
40208SOL    HW222457  12.180   1.951   1.977
40209SOL     OW22458  10.962   1.869  11.715
40209SOL    HW122459  10.992   1.958  11.733
40209SOL    HW222460  11.037   1.826  11.674
40210SOL     OW22461   6.267   6.657  12.122
40210SOL    HW122462   6.283   6.662  12.028
40210SOL    HW222463   6.211   6.581  12.133
40211SOL     OW22464   1.823   2.918  13.122
40211SOL    HW122465   1.783   2.882  13.042
40211SOL    HW222466   1.785   2.867  13.193
40212SOL     OW22467   2.763  12.207   8.991
40212SOL    HW122468   2.825  12.159   8.935
40212SOL    HW222469   2.678  12.190   8.952
40213SOL     OW22470  13.271   1.256  10.429
40213SOL    HW122471  13.201   1.321  10.423
40213SOL    HW222472  13.257   1.214  10.514
40214SOL     OW22473  13.879   1.387   3.695
40214SOL    HW122474  13.919   1.302   3.712
40214SOL    HW222475  13.920   1.418   3.614
40215SOL     OW22476  13.022   2.569   8.095
40215SOL    HW122477  12.975   2.649   8.071
40215SOL    HW222478  13.043   2.581   8.188
40216SOL     OW22479   8.760  12.690  12.368
40216SOL    HW122480   8.823  12.760  12.351
40216SOL    HW222481   8.790  12.650  12.449
40217SOL     OW22482   2.529   6.501   3.259
40217SOL    HW122483   2.519   6.499   3.164
40217SOL    HW222484   2.492   6.418   3.289
40218SOL     OW22485  12.218   5.202   8.351
40218SOL    HW122486  12.279   5.216   8.279
40218SOL    HW222487  12.132   5.222   8.314
40219SOL     OW22488   5.959   6.241   4.520
40219SOL    HW122489   5.867   6.268   4.518
40219SOL    HW222490   5.994   6.282   4.599
40220SOL     OW22491  13.413   2.730  13.904
40220SOL    HW122492  13.473   2.803  13.923
40220SOL    HW222493  13.443   2.659  13.960
40221SOL     OW22494   5.484   5.213  14.099
40221SOL    HW122495   5.566   5.164  14.096
40221SOL    HW222496   5.428   5.163  14.159
40222SOL     OW22497   4.332   8.433  12.403
40222SOL    HW122498   4.327   8.378  12.481
40222SOL    HW222499   4.336   8.523  12.437
40223SOL     OW22500   3.203  13.165   0.060
40223SOL    HW122501   3.293  13.133   0.064
40223SOL    HW222502   3.212  13.258   0.040
40224SOL     OW22503  11.235   9.351  10.281
40224SOL    HW122504  11.247   9.399  10.199
40224SOL    HW222505  11.309   9.377  10.335
40225SOL     OW22506   1.344   1.056   1.037
40225SOL    HW122507   1.420   1.018   1.079
40225SOL    HW222508   1.314   0.989   0.975
40226SOL     OW22509   7.206  10.539  13.550
40226SOL    HW122510   7.252  10.500  13.476
40226SOL    HW222511   7.118  10.559  13.516
40227SOL     OW22512   8.120  11.430  14.088
40227SOL    HW122513   8.125  11.348  14.137
40227SOL    HW222514   8.063  11.410  14.014
40228SOL     OW22515   0.834   2.404   8.413
40228SOL    HW122516   0.929   2.396   8.418
40228SOL    HW222517   0.818   2.449   8.330
40229SOL     OW22518   0.244  12.362   0.866
40229SOL    HW122519   0.193  12.283   0.845
40229SOL    HW222520   0.334  12.331   0.873
40230SOL     OW22521   9.649   2.412   1.132
40230SOL    HW122522   9.702   2.412   1.212
40230SOL    HW222523   9.707   2.373   1.066
40231SOL     OW22524   4.292  12.410  13.359
40231SOL    HW122525   4.259  12.426  13.271
40231SOL    HW222526   4.360  12.475  13.371
40232SOL     OW22527   9.626   1.244   6.377
40232SOL    HW122528   9.648   1.242   6.470
40232SOL    HW222529   9.584   1.160   6.361
40233SOL     OW22530   5.466  12.073   4.906
40233SOL    HW122531   5.379  12.078   4.867
40233SOL    HW222532   5.524  12.053   4.833
40234SOL     OW22533  14.511   5.679  12.924
40234SOL    HW122534  14.472   5.683  13.012
40234SOL    HW222535  14.603   5.702  12.938
40235SOL     OW22536   1.837  14.213  12.542
40235SOL    HW122537   1.760  14.157  12.545
40235SOL    HW222538   1.872  14.201  12.453
40236SOL     OW22539   5.869   5.285  10.713
40236SOL    HW122540   5.931   5.300  10.642
40236SOL    HW222541   5.896   5.202  10.752
40237SOL     OW22542   2.960  14.641   9.691
40237SOL    HW122543   2.957  14.737   9.700
40237SOL    HW222544   3.038  14.625   9.639
40238SOL     OW22545   4.411   0.568   8.454
40238SOL    HW122546   4.450   0.484   8.478
40238SOL    HW222547   4.336   0.545   8.399
40239SOL     OW22548   9.724  13.293   6.361
40239SOL    HW122549   9.765  13.268   6.444
40239SOL    HW222550   9.633  13.266   6.370
40240SOL     OW22551   2.284  11.519  13.198
40240SOL    HW122552   2.261  11.584  13.264
40240SOL    HW222553   2.286  11.567  13.116
40241SOL     OW22554  12.068   4.038   6.899
40241SOL    HW122555  12.149   4.030   6.849
40241SOL    HW222556  12.041   3.948   6.916
40242SOL     OW22557   7.109   6.283   0.567
40242SOL    HW122558   7.195   6.247   0.545
40242SOL    HW222559   7.047   6.226   0.522
40243SOL     OW22560  10.650  13.840  13.106
40243SOL    HW122561  10.691  13.862  13.190
40243SOL    HW222562  10.600  13.761  13.124
40244SOL     OW22563   7.674  12.766   8.415
40244SOL    HW122564   7.715  12.708   8.480
40244SOL    HW222565   7.603  12.714   8.378
40245SOL     OW22566   1.710   5.095   0.847
40245SOL    HW122567   1.731   5.014   0.800
40245SOL    HW222568   1.792   5.119   0.890
40246SOL     OW22569   5.531   4.872   1.738
40246SOL    HW122570   5.529   4.967   1.745
40246SOL    HW222571   5.453   4.850   1.688
40247SOL     OW22572   9.246  10.902  10.893
40247SOL    HW122573   9.214  10.937  10.810
40247SOL    HW222574   9.168  10.862  10.933
40248SOL     OW22575  12.185   0.424  14.387
40248SOL    HW122576  12.172   0.329  14.387
40248SOL    HW222577  12.108   0.458  14.433
40249SOL     OW22578  12.336  12.535   3.979
40249SOL    HW122579  12.418  12.537   4.029
40249SOL    HW222580  12.343  12.457   3.924
40250SOL     OW22581   7.046   3.096   4.379
40250SOL    HW122582   7.003   3.014   4.356
40250SOL    HW222583   6.978   3.163   4.373
40251SOL     OW22584  13.211   5.045   1.793
40251SOL    HW122585  13.158   5.094   1.730
40251SOL    HW222586  13.149   5.014   1.859
40252SOL     OW22587   2.414   4.704   9.448
40252SOL    HW122588   2.394   4.795   9.467
40252SOL    HW222589   2.500   4.706   9.408
40253SOL     OW22590  13.105  12.084  11.382
40253SOL    HW122591  13.119  12.057  11.291
40253SOL    HW222592  13.181  12.050  11.429
40254SOL     OW22593   3.571  10.502   5.288
40254SOL    HW122594   3.576  10.524   5.195
40254SOL    HW222595   3.652  10.535   5.326
40255SOL     OW22596   0.425  11.817  11.370
40255SOL    HW122597   0.494  11.766  11.328
40255SOL    HW222598   0.469  11.859  11.444
40256SOL     OW22599   5.228  13.820   0.148
40256SOL    HW122600   5.167  13.863   0.208
40256SOL    HW222601   5.310  13.867   0.159
40257SOL     OW22602  10.672  10.233  10.018
40257SOL    HW122603  10.595  10.254  10.071
40257SOL    HW222604  10.682  10.138  10.027
40258SOL     OW22605   4.635   6.173   0.764
40258SOL    HW122606   4.703   6.238   0.752
40258SOL    HW222607   4.635   6.155   0.858
40259SOL     OW22608  14.598   3.949   6.356
40259SOL    HW122609  14.596   3.853   6.354
40259SOL    HW222610  14.507   3.976   6.350
40260SOL     OW22611  10.756   5.925   0.859
40260SOL    HW122612  10.720   6.013   0.867
40260SOL    HW222613  10.756   5.907   0.765
40261SOL     OW22614   3.613  11.621  12.388
40261SOL    HW122615   3.543  11.599  12.450
40261SOL    HW222616   3.593  11.570  12.310
40262SOL     OW22617  11.956   3.851  11.477
40262SOL    HW122618  11.924   3.865  11.566
40262SOL    HW222619  11.908   3.916  11.424
40263SOL     OW22620  11.071  11.934   0.457
40263SOL    HW122621  11.003  11.868   0.473
40263SOL    HW222622  11.140  11.913   0.520
40264SOL     OW22623   4.820  13.475  13.308
40264SOL    HW122624   4.828  13.543  13.375
40264SOL    HW222625   4.816  13.393  13.358
40265SOL     OW22626   4.057  10.022  14.641
40265SOL    HW122627   4.019   9.952  14.588
40265SOL    HW222628   4.113   9.976  14.704
40266SOL     OW22629   6.228   0.707   9.020
40266SOL    HW122630   6.176   0.720   9.099
40266SOL    HW222631   6.310   0.753   9.038
40267SOL     OW22632  10.630   7.016   8.671
40267SOL    HW122633  10.637   7.006   8.577
40267SOL    HW222634  10.631   7.111   8.685
40268SOL     OW22635  10.155   6.553  10.224
40268SOL    HW122636  10.121   6.536  10.136
40268SOL    HW222637  10.247   6.526  10.220
40269SOL     OW22638  10.869  10.363   7.314
40269SOL    HW122639  10.843  10.360   7.222
40269SOL    HW222640  10.915  10.280   7.328
40270SOL     OW22641   5.689   0.787  13.918
40270SOL    HW122642   5.770   0.771  13.868
40270SOL    HW222643   5.686   0.882  13.929
40271SOL     OW22644   0.864   0.927   0.936
40271SOL    HW122645   0.872   0.854   0.874
40271SOL    HW222646   0.820   0.996   0.887
40272SOL     OW22647   1.793   8.470   8.004
40272SOL    HW122648   1.833   8.424   7.930
40272SOL    HW222649   1.754   8.548   7.965
40273SOL     OW22650   8.507   1.365   4.376
40273SOL    HW122651   8.452   1.336   4.449
40273SOL    HW222652   8.589   1.391   4.417
40274SOL     OW22653   1.656   7.206  11.694
40274SOL    HW122654   1.567   7.201  11.729
40274SOL    HW222655   1.712   7.176  11.766
40275SOL     OW22656  12.568   6.321   0.508
40275SOL    HW122657  12.519   6.273   0.574
40275SOL    HW222658  12.659   6.319   0.540
40276SOL     OW22659   1.392   0.515   8.228
40276SOL    HW122660   1.336   0.504   8.150
40276SOL    HW222661   1.412   0.608   8.229
40277SOL     OW22662   4.535   1.536   3.806
40277SOL    HW122663   4.477   1.468   3.841
40277SOL    HW222664   4.495   1.618   3.833
40278SOL     OW22665   9.594   7.339   6.553
40278SOL    HW122666   9.513   7.379   6.584
40278SOL    HW222667   9.654   7.347   6.626
40279SOL     OW22668  14.131   2.516   2.757
40279SOL    HW122669  14.061   2.529   2.693
40279SOL    HW222670  14.210   2.545   2.712
40280SOL     OW22671  13.146  13.816   2.697
40280SOL    HW122672  13.213  13.786   2.636
40280SOL    HW222673  13.065  13.779   2.663
40281SOL     OW22674   0.356   1.505   4.713
40281SOL    HW122675   0.388   1.424   4.674
40281SOL    HW222676   0.283   1.531   4.657
40282SOL     OW22677  12.683  12.928   2.511
40282SOL    HW122678  12.681  12.897   2.601
40282SOL    HW222679  12.766  12.897   2.477
40283SOL     OW22680   8.437  10.361   8.619
40283SOL    HW122681   8.496  10.322   8.555
40283SOL    HW222682   8.486  10.358   8.701
40284SOL     OW22683  12.749   5.247   6.376
40284SOL    HW122684  12.768   5.285   6.463
40284SOL    HW222685  12.671   5.295   6.346
40285SOL     OW22686   6.335   4.977   5.530
40285SOL    HW122687   6.401   4.934   5.584
40285SOL    HW222688   6.296   5.042   5.588
40286SOL     OW22689   6.488   9.677  11.280
40286SOL    HW122690   6.419   9.683  11.213
40286SOL    HW222691   6.479   9.589  11.316
40287SOL     OW22692  11.240   0.015   0.242
40287SOL    HW122693  11.210   0.052   0.159
40287SOL    HW222694  11.274  14.801   0.219
40288SOL     OW22695   2.507   5.090   8.905
40288SOL    HW122696   2.522   5.153   8.835
40288SOL    HW222697   2.547   5.009   8.873
40289SOL     OW22698  10.698   8.418  11.927
40289SOL    HW122699  10.682   8.432  12.020
40289SOL    HW222700  10.787   8.384  11.923
40290SOL     OW22701   6.658   3.669  14.174
40290SOL    HW122702   6.649   3.583  14.135
40290SOL    HW222703   6.751   3.691  14.164
40291SOL     OW22704   7.454   6.847   7.508
40291SOL    HW122705   7.361   6.828   7.517
40291SOL    HW222706   7.458   6.914   7.439
40292SOL     OW22707   6.556  11.027  14.063
40292SOL    HW122708   6.506  10.947  14.045
40292SOL    HW222709   6.601  11.010  14.146
40293SOL     OW22710  10.493  13.354   8.055
40293SOL    HW122711  10.550  13.400   7.993
40293SOL    HW222712  10.453  13.284   8.003
40294SOL     OW22713   9.518   2.059   4.106
40294SOL    HW122714   9.518   1.992   4.174
40294SOL    HW222715   9.503   2.141   4.153
40295SOL     OW22716  13.746  12.402   4.364
40295SOL    HW122717  13.731  12.401   4.269
40295SOL    HW222718  13.683  12.465   4.398
40296SOL     OW22719  12.355   4.566   8.244
40296SOL    HW122720  12.388   4.612   8.321
40296SOL    HW222721  12.260   4.577   8.248
40297SOL     OW22722   0.618   2.797   8.940
40297SOL    HW122723   0.627   2.749   8.858
40297SOL    HW222724   0.567   2.875   8.916
40298SOL     OW22725   7.009  14.276  11.963
40298SOL    HW122726   7.070  14.336  11.918
40298SOL    HW222727   6.925  14.321  11.961
40299SOL     OW22728   3.969   8.670   3.592
40299SOL    HW122729   3.995   8.625   3.672
40299SOL    HW222730   3.894   8.619   3.559
40300SOL     OW22731   2.041   1.762  14.339
40300SOL    HW122732   2.017   1.801  14.255
40300SOL    HW222733   1.995   1.815  14.404
40301SOL     OW22734   5.298  13.749   6.380
40301SOL    HW122735   5.368  13.779   6.322
40301SOL    HW222736   5.218  13.787   6.343
40302SOL     OW22737   4.601  13.514  13.873
40302SOL    HW122738   4.584  13.553  13.959
40302SOL    HW222739   4.692  13.537  13.854
40303SOL     OW22740  12.098   9.300   2.559
40303SOL    HW122741  12.194   9.301   2.557
40303SOL    HW222742  12.072   9.262   2.476
40304SOL     OW22743   5.065   7.256   0.106
40304SOL    HW122744   5.112   7.313   0.167
40304SOL    HW222745   5.133   7.206   0.061
40305SOL     OW22746   7.374  14.453  12.551
40305SOL    HW122747   7.291  14.471  12.508
40305SOL    HW222748   7.361  14.481  12.642
40306SOL     OW22749   9.868   3.273  10.954
40306SOL    HW122750   9.856   3.223  11.035
40306SOL    HW222751   9.962   3.275  10.940
40307SOL     OW22752  14.181   4.501   0.988
40307SOL    HW122753  14.248   4.540   1.044
40307SOL    HW222754  14.118   4.572   0.974
40308SOL     OW22755   9.805  13.900   5.095
40308SOL    HW122756   9.844  13.922   5.010
40308SOL    HW222757   9.754  13.978   5.119
40309SOL     OW22758   8.932  12.932   0.704
40309SOL    HW122759   8.996  12.887   0.649
40309SOL    HW222760   8.928  12.880   0.784
40310SOL     OW22761   1.265  14.097   0.631
40310SOL    HW122762   1.202  14.153   0.586
40310SOL    HW222763   1.341  14.096   0.573
40311SOL     OW22764   2.014  13.575  11.276
40311SOL    HW122765   1.938  13.631  11.292
40311SOL    HW222766   2.077  13.601  11.342
40312SOL     OW22767   7.886   0.313   1.195
40312SOL    HW122768   7.883   0.313   1.100
40312SOL    HW222769   7.802   0.277   1.223
40313SOL     OW22770  11.875   8.178   0.587
40313SOL    HW122771  11.894   8.085   0.575
40313SOL    HW222772  11.815   8.180   0.661
40314SOL     OW22773  10.140   0.789   7.973
40314SOL    HW122774  10.180   0.818   8.055
40314SOL    HW222775  10.061   0.742   8.000
40315SOL     OW22776  13.398   2.637  13.664
40315SOL    HW122777  13.430   2.681  13.743
40315SOL    HW222778  13.321   2.588  13.693
40316SOL     OW22779  12.373   0.657  10.914
40316SOL    HW122780  12.300   0.677  10.855
40316SOL    HW222781  12.343   0.687  11.000
40317SOL     OW22782   9.518   8.346   8.467
40317SOL    HW122783   9.485   8.280   8.406
40317SOL    HW222784   9.609   8.323   8.481
40318SOL     OW22785  10.711  11.835   7.511
40318SOL    HW122786  10.704  11.741   7.528
40318SOL    HW222787  10.787  11.863   7.563
40319SOL     OW22788   6.807   5.362  11.596
40319SOL    HW122789   6.858   5.336  11.520
40319SOL    HW222790   6.816   5.457  11.600
40320SOL     OW22791   4.895   7.315  12.148
40320SOL    HW122792   4.878   7.408  12.141
40320SOL    HW222793   4.888   7.282  12.058
40321SOL     OW22794  13.356  14.387   1.032
40321SOL    HW122795  13.321  14.399   1.120
40321SOL    HW222796  13.331  14.297   1.008
40322SOL     OW22797   8.988  12.013   4.858
40322SOL    HW122798   9.030  12.087   4.902
40322SOL    HW222799   8.966  12.047   4.771
40323SOL     OW22800   3.930   0.436   6.033
40323SOL    HW122801   3.882   0.371   6.084
40323SOL    HW222802   3.984   0.482   6.098
40324SOL     OW22803   0.262  14.764   9.912
40324SOL    HW122804   0.344  14.740   9.956
40324SOL    HW222805   0.288  14.783   9.822
40325SOL     OW22806  10.284  10.261   0.116
40325SOL    HW122807  10.243  10.313   0.047
40325SOL    HW222808  10.377  10.283   0.111
40326SOL     OW22809   9.638  11.168  10.392
40326SOL    HW122810   9.709  11.164  10.327
40326SOL    HW222811   9.674  11.124  10.469
40327SOL     OW22812   0.418   0.330   8.703
40327SOL    HW122813   0.508   0.323   8.669
40327SOL    HW222814   0.389   0.239   8.711
40328SOL     OW22815  13.366   6.281  10.962
40328SOL    HW122816  13.300   6.221  10.997
40328SOL    HW222817  13.403   6.323  11.040
40329SOL     OW22818   2.768  14.396   7.340
40329SOL    HW122819   2.796  14.486   7.358
40329SOL    HW222820   2.683  14.389   7.384
40330SOL     OW22821  10.564   7.716  12.547
40330SOL    HW122822  10.529   7.633  12.516
40330SOL    HW222823  10.550   7.777  12.475
40331SOL     OW22824  13.714  13.667   8.880
40331SOL    HW122825  13.700  13.762   8.886
40331SOL    HW222826  13.805  13.655   8.907
40332SOL     OW22827  11.139  14.192   2.524
40332SOL    HW122828  11.077  14.153   2.585
40332SOL    HW222829  11.220  14.202   2.573
40333SOL     OW22830   5.293   5.804   1.215
40333SOL    HW122831   5.365   5.742   1.204
40333SOL    HW222832   5.215   5.753   1.195
40334SOL     OW22833  13.497   5.577  10.854
40334SOL    HW122834  13.407   5.545  10.841
40334SOL    HW222835  13.493   5.669  10.830
40335SOL     OW22836   3.229   1.007   4.270
40335SOL    HW122837   3.203   0.914   4.270
40335SOL    HW222838   3.183   1.044   4.195
40336SOL     OW22839  14.469  13.397   3.052
40336SOL    HW122840  14.503  13.314   3.085
40336SOL    HW222841  14.432  13.375   2.966
40337SOL     OW22842  10.389   8.087   5.942
40337SOL    HW122843  10.301   8.068   5.975
40337SOL    HW222844  10.427   8.000   5.924
40338SOL     OW22845   5.095   2.205   9.698
40338SOL    HW122846   5.114   2.111   9.704
40338SOL    HW222847   5.123   2.241   9.782
40339SOL     OW22848   8.891  11.569   9.117
40339SOL    HW122849   8.897  11.491   9.062
40339SOL    HW222850   8.802  11.602   9.103
40340SOL     OW22851  11.652  12.469   9.178
40340SOL    HW122852  11.620  12.410   9.110
40340SOL    HW222853  11.678  12.548   9.131
40341SOL     OW22854   6.431  10.811   3.111
40341SOL    HW122855   6.342  10.846   3.112
40341SOL    HW222856   6.487  10.889   3.112
40342SOL     OW22857   0.895   0.347   8.865
40342SOL    HW122858   0.982   0.327   8.899
40342SOL    HW222859   0.836   0.335   8.939
40343SOL     OW22860   2.459  13.721  11.831
40343SOL    HW122861   2.445  13.629  11.855
40343SOL    HW222862   2.551  13.726  11.808
40344SOL     OW22863   8.879   3.003  10.839
40344SOL    HW122864   8.959   3.050  10.816
40344SOL    HW222865   8.873   2.933  10.774
40345SOL     OW22866  13.711   0.123   2.875
40345SOL    HW122867  13.645   0.079   2.929
40345SOL    HW222868  13.791   0.118   2.928
40346SOL     OW22869   9.476   3.889  11.610
40346SOL    HW122870   9.431   3.836  11.676
40346SOL    HW222871   9.485   3.831  11.535
40347SOL     OW22872   0.419  12.441  11.836
40347SOL    HW122873   0.357  12.432  11.909
40347SOL    HW222874   0.426  12.353  11.800
40348SOL     OW22875   6.976   6.569  10.531
40348SOL    HW122876   6.888   6.601  10.546
40348SOL    HW222877   6.967   6.502  10.463
40349SOL     OW22878   7.815   7.267   1.269
40349SOL    HW122879   7.831   7.214   1.191
40349SOL    HW222880   7.897   7.314   1.283
40350SOL     OW22881   6.418   4.978  10.341
40350SOL    HW122882   6.393   5.004  10.429
40350SOL    HW222883   6.486   4.912  10.353
40351SOL     OW22884  12.689   9.123   6.945
40351SOL    HW122885  12.606   9.136   6.991
40351SOL    HW222886  12.729   9.210   6.943
40352SOL     OW22887   8.591   7.779  14.414
40352SOL    HW122888   8.629   7.810  14.331
40352SOL    HW222889   8.498   7.769  14.396
40353SOL     OW22890   5.496   8.329   7.134
40353SOL    HW122891   5.583   8.366   7.122
40353SOL    HW222892   5.460   8.377   7.210
40354SOL     OW22893   7.081  14.851   0.012
40354SOL    HW122894   7.055  14.803   0.091
40354SOL    HW222895   7.044  14.800  14.812
40355SOL     OW22896   9.582   1.693   3.921
40355SOL    HW122897   9.615   1.782   3.911
40355SOL    HW222898   9.587   1.675   4.015
40356SOL     OW22899   1.435   8.346  10.096
40356SOL    HW122900   1.372   8.331  10.026
40356SOL    HW222901   1.469   8.259  10.118
40357SOL     OW22902  11.385   5.083   9.700
40357SOL    HW122903  11.410   5.151   9.638
40357SOL    HW222904  11.467   5.054   9.738
40358SOL     OW22905  12.993   9.194   3.160
40358SOL    HW122906  12.914   9.222   3.205
40358SOL    HW222907  12.973   9.203   3.067
40359SOL     OW22908   0.956   2.875  14.577
40359SOL    HW122909   1.010   2.949  14.604
40359SOL    HW222910   1.005   2.834  14.506
40360SOL     OW22911   5.099   7.728   8.010
40360SOL    HW122912   5.093   7.764   7.921
40360SOL    HW222913   5.030   7.773   8.059
40361SOL     OW22914   2.566  10.702   2.581
40361SOL    HW122915   2.578  10.619   2.628
40361SOL    HW222916   2.481  10.693   2.539
40362SOL     OW22917   4.955   3.040   2.507
40362SOL    HW122918   4.864   3.032   2.535
40362SOL    HW222919   4.950   3.078   2.419
40363SOL     OW22920   4.509  13.637   9.674
40363SOL    HW122921   4.486  13.671   9.588
40363SOL    HW222922   4.455  13.558   9.684
40364SOL     OW22923  10.869   0.790   0.575
40364SOL    HW122924  10.902   0.753   0.493
40364SOL    HW222925  10.900   0.730   0.643
40365SOL     OW22926   3.993   2.348   8.347
40365SOL    HW122927   3.958   2.271   8.392
40365SOL    HW222928   3.991   2.418   8.413
40366SOL     OW22929   2.470  11.581   8.842
40366SOL    HW122930   2.379  11.554   8.827
40366SOL    HW222931   2.497  11.622   8.760
40367SOL     OW22932   6.874   0.341   0.772
40367SOL    HW122933   6.817   0.268   0.748
40367SOL    HW222934   6.816   0.417   0.773
40368SOL     OW22935   6.050   3.917  10.091
40368SOL    HW122936   5.996   3.854  10.140
40368SOL    HW222937   6.045   3.886  10.000
40369SOL     OW22938  14.329  13.764  10.849
40369SOL    HW122939  14.237  13.741  10.868
40369SOL    HW222940  14.352  13.710  10.774
40370SOL     OW22941   5.862   8.263   4.988
40370SOL    HW122942   5.772   8.289   4.968
40370SOL    HW222943   5.913   8.342   4.974
40371SOL     OW22944   2.722   4.806   5.604
40371SOL    HW122945   2.684   4.865   5.669
40371SOL    HW222946   2.723   4.720   5.647
40372SOL     OW22947  10.477  11.698  14.239
40372SOL    HW122948  10.534  11.643  14.292
40372SOL    HW222949  10.480  11.784  14.281
40373SOL     OW22950   6.822   1.575  11.204
40373SOL    HW122951   6.835   1.482  11.222
40373SOL    HW222952   6.773   1.607  11.281
40374SOL     OW22953  14.617  14.512   0.346
40374SOL    HW122954  14.635  14.602   0.320
40374SOL    HW222955  14.603  14.466   0.263
40375SOL     OW22956   5.757  13.417   9.293
40375SOL    HW122957   5.827  13.477   9.271
40375SOL    HW222958   5.740  13.432   9.386
40376SOL     OW22959   6.326  13.100  11.711
40376SOL    HW122960   6.238  13.128  11.685
40376SOL    HW222961   6.360  13.173  11.763
40377SOL     OW22962   3.998  11.813  12.743
40377SOL    HW122963   3.924  11.755  12.760
40377SOL    HW222964   3.997  11.875  12.816
40378SOL     OW22965  14.784   6.337  14.042
40378SOL    HW122966  14.810   6.364  13.954
40378SOL    HW222967  14.694   6.307  14.032
40379SOL     OW22968   5.410  11.606   1.406
40379SOL    HW122969   5.417  11.545   1.333
40379SOL    HW222970   5.483  11.583   1.463
40380SOL     OW22971   9.355   7.192   5.507
40380SOL    HW122972   9.292   7.221   5.573
40380SOL    HW222973   9.335   7.245   5.430
40381SOL     OW22974   6.189   2.367  11.135
40381SOL    HW122975   6.103   2.408  11.144
40381SOL    HW222976   6.199   2.316  11.216
40382SOL     OW22977   1.967   5.507   3.944
40382SOL    HW122978   1.968   5.599   3.971
40382SOL    HW222979   1.947   5.459   4.025
40383SOL     OW22980  12.270   0.177   5.328
40383SOL    HW122981  12.189   0.127   5.315
40383SOL    HW222982  12.308   0.139   5.407
40384SOL     OW22983  12.380   4.635  13.765
40384SOL    HW122984  12.415   4.576  13.698
40384SOL    HW222985  12.314   4.687  13.719
40385SOL     OW22986  12.485   9.237  14.691
40385SOL    HW122987  12.510   9.145  14.704
40385SOL    HW222988  12.533   9.263  14.612
40386SOL     OW22989   1.493  10.448  13.472
40386SOL    HW122990   1.509  10.354  13.463
40386SOL    HW222991   1.400  10.455  13.492
40387SOL     OW22992   8.935   1.895  11.304
40387SOL    HW122993   8.893   1.975  11.336
40387SOL    HW222994   8.875   1.825  11.327
40388SOL     OW22995   3.276  13.415   2.170
40388SOL    HW122996   3.254  13.359   2.096
40388SOL    HW222997   3.268  13.504   2.136
40389SOL     OW22998   3.478  11.492   6.465
40389SOL    HW122999   3.432  11.563   6.421
40389SOL    HW223000   3.566  11.494   6.427
40390SOL     OW23001  11.362   5.974   0.742
40390SOL    HW123002  11.342   6.062   0.775
40390SOL    HW223003  11.340   5.916   0.815
40391SOL     OW23004   5.818   9.033   8.373
40391SOL    HW123005   5.903   9.078   8.365
40391SOL    HW223006   5.761   9.078   8.312
40392SOL     OW23007  11.754   5.240   3.517
40392SOL    HW123008  11.664   5.237   3.549
40392SOL    HW223009  11.804   5.191   3.582
40393SOL     OW23010   9.708   8.747   5.157
40393SOL    HW123011   9.674   8.785   5.238
40393SOL    HW223012   9.802   8.762   5.161
40394SOL     OW23013   7.517   3.926   8.208
40394SOL    HW123014   7.526   3.986   8.134
40394SOL    HW223015   7.431   3.946   8.245
40395SOL     OW23016   9.720   5.503   0.928
40395SOL    HW123017   9.800   5.548   0.955
40395SOL    HW223018   9.680   5.562   0.864
40396SOL     OW23019   5.452  14.022  14.225
40396SOL    HW123020   5.496  13.949  14.267
40396SOL    HW223021   5.497  14.032  14.140
40397SOL     OW23022   8.759   3.095  13.947
40397SOL    HW123023   8.734   3.027  14.009
40397SOL    HW223024   8.723   3.066  13.863
40398SOL     OW23025  13.918  13.789  11.103
40398SOL    HW123026  13.969  13.779  11.183
40398SOL    HW223027  13.832  13.817  11.133
40399SOL     OW23028   6.083   7.556   7.684
40399SOL    HW123029   6.121   7.472   7.708
40399SOL    HW223030   5.988   7.543   7.692
40400SOL     OW23031  10.582   2.459   9.974
40400SOL    HW123032  10.660   2.419   9.935
40400SOL    HW223033  10.532   2.385  10.009
40401SOL     OW23034   0.954   6.940   8.822
40401SOL    HW123035   1.042   6.953   8.858
40401SOL    HW223036   0.904   6.902   8.894
40402SOL     OW23037  13.495   6.354  11.194
40402SOL    HW123038  13.554   6.279  11.184
40402SOL    HW223039  13.552   6.426  11.224
40403SOL     OW23040  11.439   6.280   3.978
40403SOL    HW123041  11.426   6.338   3.904
40403SOL    HW223042  11.406   6.329   4.053
40404SOL     OW23043   2.936   4.410   8.145
40404SOL    HW123044   2.999   4.479   8.168
40404SOL    HW223045   2.850   4.450   8.162
40405SOL     OW23046   7.561  14.687   9.787
40405SOL    HW123047   7.526  14.601   9.809
40405SOL    HW223048   7.484  14.743   9.775
40406SOL     OW23049   6.656  10.956  14.323
40406SOL    HW123050   6.716  10.950  14.398
40406SOL    HW223051   6.589  11.017  14.352
40407SOL     OW23052   1.743   1.525  13.297
40407SOL    HW123053   1.669   1.585  13.290
40407SOL    HW223054   1.730   1.463  13.225
40408SOL     OW23055  12.074   5.506   3.554
40408SOL    HW123056  12.003   5.553   3.597
40408SOL    HW223057  12.091   5.430   3.610
40409SOL     OW23058   0.202   2.864   8.743
40409SOL    HW123059   0.280   2.851   8.689
40409SOL    HW223060   0.162   2.944   8.710
40410SOL     OW23061   5.185   1.663   0.519
40410SOL    HW123062   5.173   1.748   0.561
40410SOL    HW223063   5.242   1.614   0.579
40411SOL     OW23064  12.321   6.302   7.235
40411SOL    HW123065  12.398   6.280   7.287
40411SOL    HW223066  12.343   6.384   7.191
40412SOL     OW23067   8.170  11.317   5.153
40412SOL    HW123068   8.193  11.224   5.155
40412SOL    HW223069   8.168  11.344   5.245
40413SOL     OW23070   5.432   8.423   0.523
40413SOL    HW123071   5.460   8.480   0.595
40413SOL    HW223072   5.337   8.422   0.528
40414SOL     OW23073  10.684   8.856   5.418
40414SOL    HW123074  10.611   8.794   5.407
40414SOL    HW223075  10.687   8.903   5.335
40415SOL     OW23076   8.284   6.142  12.277
40415SOL    HW123077   8.368   6.181  12.301
40415SOL    HW223078   8.286   6.054  12.316
40416SOL     OW23079   7.198  11.468   8.384
40416SOL    HW123080   7.114  11.480   8.427
40416SOL    HW223081   7.246  11.407   8.440
40417SOL     OW23082   0.472   5.955  13.867
40417SOL    HW123083   0.430   5.980  13.949
40417SOL    HW223084   0.419   5.882  13.835
40418SOL     OW23085   1.643   0.894   8.055
40418SOL    HW123086   1.567   0.945   8.028
40418SOL    HW223087   1.628   0.807   8.016
40419SOL     OW23088  11.937   1.462   9.839
40419SOL    HW123089  11.872   1.533   9.839
40419SOL    HW223090  11.888   1.384   9.862
40420SOL     OW23091   6.948   2.264   8.814
40420SOL    HW123092   6.876   2.309   8.859
40420SOL    HW223093   7.027   2.303   8.851
40421SOL     OW23094  11.441   3.048   9.178
40421SOL    HW123095  11.359   3.097   9.173
40421SOL    HW223096  11.447   3.019   9.269
40422SOL     OW23097  14.864  14.449   3.033
40422SOL    HW123098  14.808  14.412   3.101
40422SOL    HW223099  14.850  14.393   2.957
40423SOL     OW23100   1.643   3.359  13.136
40423SOL    HW123101   1.565   3.304  13.143
40423SOL    HW223102   1.715   3.297  13.128
40424SOL     OW23103  10.463  13.263   0.608
40424SOL    HW123104  10.505  13.186   0.645
40424SOL    HW223105  10.534  13.312   0.565
40425SOL     OW23106  12.400   1.734   5.900
40425SOL    HW123107  12.325   1.679   5.923
40425SOL    HW223108  12.474   1.673   5.898
40426SOL     OW23109   3.496  12.796  10.888
40426SOL    HW123110   3.582  12.832  10.909
40426SOL    HW223111   3.489  12.719  10.943
40427SOL     OW23112  11.861  10.384  12.970
40427SOL    HW123113  11.884  10.474  12.945
40427SOL    HW223114  11.855  10.337  12.887
40428SOL     OW23115  12.488   6.305  13.732
40428SOL    HW123116  12.458   6.277  13.646
40428SOL    HW223117  12.556   6.370  13.714
40429SOL     OW23118   2.032   0.959   9.187
40429SOL    HW123119   2.048   1.053   9.190
40429SOL    HW223120   2.107   0.923   9.140
40430SOL     OW23121  13.344   1.914   4.720
40430SOL    HW123122  13.252   1.937   4.708
40430SOL    HW223123  13.392   1.991   4.690
40431SOL     OW23124  10.122   1.736   4.828
40431SOL    HW123125  10.166   1.669   4.776
40431SOL    HW223126  10.188   1.765   4.891
40432SOL     OW23127  13.932  10.452   3.255
40432SOL    HW123128  13.956  10.449   3.162
40432SOL    HW223129  13.992  10.390   3.297
40433SOL     OW23130   0.282   8.687   7.441
40433SOL    HW123131   0.188   8.706   7.435
40433SOL    HW223132   0.296   8.619   7.375
40434SOL     OW23133   1.892   2.190  13.194
40434SOL    HW123134   1.939   2.142  13.262
40434SOL    HW223135   1.951   2.262  13.172
40435SOL     OW23136   9.542   4.277   5.979
40435SOL    HW123137   9.616   4.303   6.034
40435SOL    HW223138   9.479   4.349   5.987
40436SOL     OW23139  11.773   2.805   5.991
40436SOL    HW123140  11.747   2.800   5.899
40436SOL    HW223141  11.794   2.897   6.006
40437SOL     OW23142   0.906   7.501   0.859
40437SOL    HW123143   0.919   7.517   0.766
40437SOL    HW223144   0.987   7.458   0.888
40438SOL     OW23145  10.868   4.278   8.209
40438SOL    HW123146  10.782   4.245   8.184
40438SOL    HW223147  10.851   4.368   8.239
40439SOL     OW23148  12.740   2.361   7.042
40439SOL    HW123149  12.655   2.316   7.032
40439SOL    HW223150  12.732   2.440   6.989
40440SOL     OW23151   2.923  12.290   8.173
40440SOL    HW123152   2.926  12.358   8.241
40440SOL    HW223153   2.888  12.213   8.217
40441SOL     OW23154   2.206   7.421   3.118
40441SOL    HW123155   2.161   7.499   3.082
40441SOL    HW223156   2.136   7.356   3.127
40442SOL     OW23157   9.776   1.868   2.995
40442SOL    HW123158   9.758   1.955   3.032
40442SOL    HW223159   9.868   1.870   2.971
40443SOL     OW23160   6.247  10.356  12.872
40443SOL    HW123161   6.264  10.373  12.965
40443SOL    HW223162   6.219  10.265  12.868
40444SOL     OW23163  10.480   7.118   2.377
40444SOL    HW123164  10.470   7.069   2.458
40444SOL    HW223165  10.554   7.077   2.333
40445SOL     OW23166   6.002   6.280   3.470
40445SOL    HW123167   5.922   6.305   3.516
40445SOL    HW223168   6.071   6.332   3.512
40446SOL     OW23169   0.410   3.200  13.232
40446SOL    HW123170   0.408   3.128  13.170
40446SOL    HW223171   0.318   3.224  13.244
40447SOL     OW23172  10.966   1.573   8.118
40447SOL    HW123173  10.884   1.536   8.085
40447SOL    HW223174  11.029   1.502   8.110
40448SOL     OW23175   4.384  10.604   1.799
40448SOL    HW123176   4.449  10.544   1.835
40448SOL    HW223177   4.433  10.663   1.742
40449SOL     OW23178  11.455   3.936   0.331
40449SOL    HW123179  11.491   3.969   0.413
40449SOL    HW223180  11.466   3.841   0.336
40450SOL     OW23181   8.427  12.447  12.093
40450SOL    HW123182   8.417  12.353  12.085
40450SOL    HW223183   8.341  12.478  12.123
40451SOL     OW23184   0.105   1.219   8.550
40451SOL    HW123185   0.052   1.294   8.524
40451SOL    HW223186   0.194   1.243   8.522
40452SOL     OW23187  10.406   8.318   0.161
40452SOL    HW123188  10.499   8.301   0.149
40452SOL    HW223189  10.373   8.336   0.074
40453SOL     OW23190   1.647   6.613   8.394
40453SOL    HW123191   1.582   6.582   8.457
40453SOL    HW223192   1.723   6.636   8.447
40454SOL     OW23193  13.097   5.813   1.770
40454SOL    HW123194  13.191   5.832   1.766
40454SOL    HW223195  13.055   5.899   1.766
40455SOL     OW23196   7.939   3.125   0.010
40455SOL    HW123197   7.896   3.171  14.810
40455SOL    HW223198   7.948   3.035  14.852
40456SOL     OW23199   6.922   4.916   5.973
40456SOL    HW123200   6.946   4.835   6.019
40456SOL    HW223201   6.984   4.981   6.005
40457SOL     OW23202   5.181  13.756   2.488
40457SOL    HW123203   5.131  13.725   2.563
40457SOL    HW223204   5.193  13.849   2.504
40458SOL     OW23205  11.962   1.421   5.808
40458SOL    HW123206  11.888   1.444   5.751
40458SOL    HW223207  11.991   1.505   5.843
40459SOL     OW23208  10.361  10.938   1.401
40459SOL    HW123209  10.456  10.932   1.411
40459SOL    HW223210  10.329  10.959   1.488
40460SOL     OW23211   0.908   0.261   0.700
40460SOL    HW123212   0.972   0.235   0.633
40460SOL    HW223213   0.850   0.321   0.654
40461SOL     OW23214   3.396  10.875   9.387
40461SOL    HW123215   3.375  10.963   9.417
40461SOL    HW223216   3.397  10.822   9.467
40462SOL     OW23217   4.938  11.677   8.226
40462SOL    HW123218   4.925  11.735   8.301
40462SOL    HW223219   4.869  11.611   8.234
40463SOL     OW23220   4.623   0.918   6.619
40463SOL    HW123221   4.663   0.995   6.659
40463SOL    HW223222   4.636   0.930   6.525
40464SOL     OW23223   9.540   2.007   8.907
40464SOL    HW123224   9.495   2.072   8.853
40464SOL    HW223225   9.481   1.932   8.908
40465SOL     OW23226  11.923   0.131  14.836
40465SOL    HW123227  11.988   0.201  14.841
40465SOL    HW223228  11.849   0.163   0.015
40466SOL     OW23229  14.325   4.437   9.162
40466SOL    HW123230  14.310   4.385   9.241
40466SOL    HW223231  14.377   4.512   9.191
40467SOL     OW23232   6.223   3.838   4.619
40467SOL    HW123233   6.294   3.783   4.651
40467SOL    HW223234   6.189   3.882   4.697
40468SOL     OW23235   2.618   9.115   3.438
40468SOL    HW123236   2.678   9.040   3.438
40468SOL    HW223237   2.670   9.187   3.473
40469SOL     OW23238   0.000   3.634   8.973
40469SOL    HW123239  14.800   3.673   8.924
40469SOL    HW223240  14.867   3.541   8.953
40470SOL     OW23241  14.252  10.535  12.028
40470SOL    HW123242  14.196  10.585  11.969
40470SOL    HW223243  14.226  10.562  12.116
40471SOL     OW23244   2.113   2.159   6.779
40471SOL    HW123245   2.094   2.163   6.685
40471SOL    HW223246   2.206   2.138   6.784
40472SOL     OW23247   2.892   2.678  13.542
40472SOL    HW123248   2.936   2.696  13.458
40472SOL    HW223249   2.884   2.764  13.583
40473SOL     OW23250  14.345   9.099   3.816
40473SOL    HW123251  14.363   9.179   3.767
40473SOL    HW223252  14.398   9.032   3.773
40474SOL     OW23253  13.011   3.789   0.512
40474SOL    HW123254  12.988   3.728   0.582
40474SOL    HW223255  12.975   3.873   0.540
40475SOL     OW23256   0.153  13.572  10.870
40475SOL    HW123257   0.198  13.647  10.832
40475SOL    HW223258   0.208  13.547  10.945
40476SOL     OW23259  10.427  10.687   9.335
40476SOL    HW123260  10.476  10.660   9.412
40476SOL    HW223261  10.335  10.681   9.362
40477SOL     OW23262  11.364   8.877   3.721
40477SOL    HW123263  11.381   8.903   3.812
40477SOL    HW223264  11.351   8.960   3.674
40478SOL     OW23265  11.822   4.567   8.292
40478SOL    HW123266  11.785   4.576   8.205
40478SOL    HW223267  11.917   4.573   8.279
40479SOL     OW23268   8.210   0.565   7.656
40479SOL    HW123269   8.196   0.636   7.718
40479SOL    HW223270   8.269   0.602   7.590
40480SOL     OW23271   0.061   5.015  14.303
40480SOL    HW123272   0.019   5.101  14.301
40480SOL    HW223273   0.155   5.034  14.310
40481SOL     OW23274  11.415  12.105  11.148
40481SOL    HW123275  11.393  12.028  11.200
40481SOL    HW223276  11.341  12.164  11.161
40482SOL     OW23277   2.076   5.515   2.589
40482SOL    HW123278   2.152   5.561   2.626
40482SOL    HW223279   2.009   5.522   2.658
40483SOL     OW23280  11.315   9.908   8.419
40483SOL    HW123281  11.384   9.844   8.401
40483SOL    HW223282  11.247   9.888   8.355
40484SOL     OW23283   0.536   9.926  13.224
40484SOL    HW123284   0.565   9.908  13.313
40484SOL    HW223285   0.458   9.872  13.212
40485SOL     OW23286  13.263   6.295  14.122
40485SOL    HW123287  13.226   6.330  14.042
40485SOL    HW223288  13.314   6.219  14.094
40486SOL     OW23289  11.612   8.173  12.367
40486SOL    HW123290  11.699   8.132  12.364
40486SOL    HW223291  11.607   8.214  12.453
40487SOL     OW23292   1.876   8.701   6.304
40487SOL    HW123293   1.905   8.715   6.395
40487SOL    HW223294   1.800   8.644   6.312
40488SOL     OW23295   4.881   8.437   9.077
40488SOL    HW123296   4.863   8.530   9.063
40488SOL    HW223297   4.965   8.423   9.035
40489SOL     OW23298  14.133   0.878   5.562
40489SOL    HW123299  14.156   0.790   5.591
40489SOL    HW223300  14.119   0.869   5.467
40490SOL     OW23301   9.482   1.899   7.988
40490SOL    HW123302   9.501   1.992   8.002
40490SOL    HW223303   9.391   1.898   7.958
40491SOL     OW23304  11.844   8.620  12.790
40491SOL    HW123305  11.806   8.542  12.751
40491SOL    HW223306  11.827   8.611  12.884
40492SOL     OW23307   2.223  13.862  10.688
40492SOL    HW123308   2.191  13.926  10.752
40492SOL    HW223309   2.287  13.911  10.636
40493SOL     OW23310   0.078   9.945  14.721
40493SOL    HW123311   0.094   9.897  14.802
40493SOL    HW223312   0.077   9.878  14.653
40494SOL     OW23313   6.054   2.398   0.400
40494SOL    HW123314   6.119   2.335   0.370
40494SOL    HW223315   6.058   2.470   0.337
40495SOL     OW23316   3.466   7.666  14.256
40495SOL    HW123317   3.374   7.645  14.243
40495SOL    HW223318   3.511   7.621  14.184
40496SOL     OW23319   5.919  11.943  12.412
40496SOL    HW123320   5.907  11.887  12.488
40496SOL    HW223321   5.830  11.959  12.379
40497SOL     OW23322   9.431   1.421  14.783
40497SOL    HW123323   9.474   1.488  14.835
40497SOL    HW223324   9.497   1.393  14.719
40498SOL     OW23325   2.450  13.863   8.590
40498SOL    HW123326   2.482  13.796   8.530
40498SOL    HW223327   2.401  13.923   8.534
40499SOL     OW23328   0.374   8.237   8.369
40499SOL    HW123329   0.303   8.272   8.314
40499SOL    HW223330   0.361   8.143   8.367
40500SOL     OW23331  10.415   7.025   4.736
40500SOL    HW123332  10.479   6.958   4.712
40500SOL    HW223333  10.459   7.108   4.720
40501SOL     OW23334  13.636  12.358   5.729
40501SOL    HW123335  13.616  12.406   5.809
40501SOL    HW223336  13.603  12.269   5.746
40502SOL     OW23337   6.271   4.243   9.481
40502SOL    HW123338   6.330   4.288   9.542
40502SOL    HW223339   6.273   4.298   9.402
40503SOL     OW23340  12.411   3.760  12.284
40503SOL    HW123341  12.415   3.735  12.192
40503SOL    HW223342  12.318   3.764  12.304
40504SOL     OW23343   9.922  11.504   4.980
40504SOL    HW123344   9.953  11.577   5.034
40504SOL    HW223345   9.829  11.496   5.001
40505SOL     OW23346   1.244  12.086   3.064
40505SOL    HW123347   1.221  11.993   3.072
40505SOL    HW223348   1.249  12.117   3.154
40506SOL     OW23349   4.636   6.852  14.042
40506SOL    HW123350   4.545   6.876  14.060
40506SOL    HW223351   4.640   6.758  14.062
40507SOL     OW23352   8.174  14.699   1.849
40507SOL    HW123353   8.167  14.607   1.875
40507SOL    HW223354   8.268  14.714   1.841
40508SOL     OW23355  13.687   6.797   8.905
40508SOL    HW123356  13.701   6.801   8.811
40508SOL    HW223357  13.689   6.888   8.935
40509SOL     OW23358  10.234   1.679   5.308
40509SOL    HW123359  10.198   1.611   5.251
40509SOL    HW223360  10.176   1.753   5.297
40510SOL     OW23361   8.014   3.003  13.945
40510SOL    HW123362   8.008   2.911  13.970
40510SOL    HW223363   8.079   3.040  14.006
40511SOL     OW23364  14.012   5.241   0.416
40511SOL    HW123365  14.060   5.274   0.340
40511SOL    HW223366  14.067   5.264   0.491
40512SOL     OW23367  11.777   0.829  12.800
40512SOL    HW123368  11.867   0.830  12.768
40512SOL    HW223369  11.745   0.917  12.782
40513SOL     OW23370  12.055  12.980  11.618
40513SOL    HW123371  12.116  13.054  11.616
40513SOL    HW223372  12.108  12.905  11.642
40514SOL     OW23373  13.395   1.340   7.958
40514SOL    HW123374  13.338   1.279   8.004
40514SOL    HW223375  13.404   1.415   8.017
40515SOL     OW23376   5.356  14.745   2.560
40515SOL    HW123377   5.272  14.778   2.590
40515SOL    HW223378   5.418  14.816   2.579
40516SOL     OW23379  10.435   2.922  13.950
40516SOL    HW123380  10.493   2.992  13.923
40516SOL    HW223381  10.487   2.842  13.940
40517SOL     OW23382  12.841  14.464  10.934
40517SOL    HW123383  12.756  14.425  10.913
40517SOL    HW223384  12.870  14.414  11.011
40518SOL     OW23385  13.420  14.764   9.717
40518SOL    HW123386  13.339  14.780   9.765
40518SOL    HW223387  13.392  14.722   9.635
40519SOL     OW23388   2.656   4.368   9.067
40519SOL    HW123389   2.609   4.444   9.102
40519SOL    HW223390   2.636   4.368   8.974
40520SOL     OW23391   7.001   3.916  12.286
40520SOL    HW123392   7.094   3.919  12.309
40520SOL    HW223393   6.968   4.004  12.308
40521SOL     OW23394  14.305   5.326   6.377
40521SOL    HW123395  14.229   5.278   6.344
40521SOL    HW223396  14.268   5.393   6.435
40522SOL     OW23397   6.291  12.044   5.203
40522SOL    HW123398   6.278  12.091   5.121
40522SOL    HW223399   6.383  12.020   5.203
40523SOL     OW23400   5.780   4.613  11.078
40523SOL    HW123401   5.705   4.572  11.123
40523SOL    HW223402   5.789   4.698  11.122
40524SOL     OW23403   6.621   4.375   9.064
40524SOL    HW123404   6.674   4.388   9.142
40524SOL    HW223405   6.680   4.334   9.001
40525SOL     OW23406   9.505   3.371   4.965
40525SOL    HW123407   9.424   3.384   5.014
40525SOL    HW223408   9.477   3.358   4.875
40526SOL     OW23409  12.400   7.760   6.073
40526SOL    HW123410  12.392   7.853   6.053
40526SOL    HW223411  12.311   7.730   6.087
40527SOL     OW23412  14.843  14.846  14.872
40527SOL    HW123413  14.772   0.024  14.831
40527SOL    HW223414   0.044   0.035   0.004
40528SOL     OW23415   9.107   5.448   8.128
40528SOL    HW123416   9.084   5.539   8.107
40528SOL    HW223417   9.142   5.413   8.047
40529SOL     OW23418  11.961  12.158   3.634
40529SOL    HW123419  12.054  12.135   3.633
40529SOL    HW223420  11.953  12.221   3.706
40530SOL     OW23421   8.953   9.655   1.800
40530SOL    HW123422   8.925   9.652   1.708
40530SOL    HW223423   9.048   9.664   1.796
40531SOL     OW23424   0.047  12.854  10.918
40531SOL    HW123425   0.099  12.932  10.937
40531SOL    HW223426   0.015  12.825  11.004
40532SOL     OW23427   5.866  12.397   9.750
40532SOL    HW123428   5.889  12.391   9.657
40532SOL    HW223429   5.820  12.315   9.768
40533SOL     OW23430   3.832   9.039   8.615
40533SOL    HW123431   3.827   8.960   8.670
40533SOL    HW223432   3.798   9.012   8.530
40534SOL     OW23433   3.845   4.456   3.259
40534SOL    HW123434   3.932   4.451   3.220
40534SOL    HW223435   3.858   4.431   3.351
40535SOL     OW23436  11.869   5.638   1.076
40535SOL    HW123437  11.915   5.700   1.018
40535SOL    HW223438  11.905   5.657   1.163
40536SOL     OW23439  14.030  10.399  11.111
40536SOL    HW123440  13.999  10.359  11.192
40536SOL    HW223441  14.039  10.492  11.132
40537SOL     OW23442   4.222  10.829   3.153
40537SOL    HW123443   4.190  10.919   3.158
40537SOL    HW223444   4.145  10.775   3.172
40538SOL     OW23445   7.912   6.235   2.576
40538SOL    HW123446   7.885   6.148   2.606
40538SOL    HW223447   7.965   6.218   2.498
40539SOL     OW23448   8.129   1.036   9.063
40539SOL    HW123449   8.222   1.025   9.083
40539SOL    HW223450   8.084   1.025   9.147
40540SOL     OW23451   6.124   5.026   7.481
40540SOL    HW123452   6.169   4.992   7.404
40540SOL    HW223453   6.155   4.973   7.554
40541SOL     OW23454  10.946  12.692   9.813
40541SOL    HW123455  10.904  12.650   9.738
40541SOL    HW223456  10.876  12.738   9.857
40542SOL     OW23457  11.088   9.715  14.244
40542SOL    HW123458  11.140   9.635  14.241
40542SOL    HW223459  11.118   9.766  14.168
40543SOL     OW23460  10.215   3.316  14.503
40543SOL    HW123461  10.219   3.241  14.443
40543SOL    HW223462  10.301   3.357  14.496
40544SOL     OW23463   8.941   9.264   2.740
40544SOL    HW123464   9.007   9.197   2.752
40544SOL    HW223465   8.989   9.347   2.744
40545SOL     OW23466   2.538   4.426   1.097
40545SOL    HW123467   2.600   4.421   1.024
40545SOL    HW223468   2.562   4.506   1.143
40546SOL     OW23469  10.322   5.126   4.475
40546SOL    HW123470  10.284   5.050   4.519
40546SOL    HW223471  10.391   5.155   4.535
40547SOL     OW23472  14.488   8.323   7.854
40547SOL    HW123473  14.420   8.349   7.917
40547SOL    HW223474  14.465   8.233   7.831
40548SOL     OW23475  13.747  11.766   3.513
40548SOL    HW123476  13.735  11.690   3.570
40548SOL    HW223477  13.816  11.740   3.452
40549SOL     OW23478   1.442  12.442  12.792
40549SOL    HW123479   1.393  12.442  12.709
40549SOL    HW223480   1.386  12.393  12.852
40550SOL     OW23481  14.052   9.198   1.915
40550SOL    HW123482  14.053   9.202   1.820
40550SOL    HW223483  14.065   9.288   1.944
40551SOL     OW23484   9.138   1.208  10.936
40551SOL    HW123485   9.124   1.118  10.966
40551SOL    HW223486   9.060   1.229  10.884
40552SOL     OW23487   8.628   6.906   7.015
40552SOL    HW123488   8.682   6.980   6.989
40552SOL    HW223489   8.612   6.919   7.109
40553SOL     OW23490  11.032   5.405   6.770
40553SOL    HW123491  10.973   5.480   6.780
40553SOL    HW223492  10.983   5.341   6.719
40554SOL     OW23493   7.132   5.046   8.010
40554SOL    HW123494   7.043   5.011   8.001
40554SOL    HW223495   7.120   5.140   8.019
40555SOL     OW23496   4.938  11.803   3.875
40555SOL    HW123497   4.886  11.784   3.797
40555SOL    HW223498   5.027  11.778   3.851
40556SOL     OW23499  12.887   8.598  13.892
40556SOL    HW123500  12.965   8.631  13.847
40556SOL    HW223501  12.853   8.530  13.834
40557SOL     OW23502   6.710   0.699  12.432
40557SOL    HW123503   6.740   0.718  12.521
40557SOL    HW223504   6.615   0.691  12.441
40558SOL     OW23505   7.425   2.421   6.803
40558SOL    HW123506   7.475   2.381   6.874
40558SOL    HW223507   7.464   2.384   6.723
40559SOL     OW23508  14.385   5.871   6.266
40559SOL    HW123509  14.354   5.935   6.330
40559SOL    HW223510  14.332   5.793   6.284
40560SOL     OW23511   3.977   7.708  14.045
40560SOL    HW123512   3.933   7.793  14.043
40560SOL    HW223513   4.037   7.711  13.970
40561SOL     OW23514  12.777   8.419   2.019
40561SOL    HW123515  12.724   8.345   1.989
40561SOL    HW223516  12.826   8.385   2.093
40562SOL     OW23517  11.423   0.280  11.729
40562SOL    HW123518  11.356   0.341  11.699
40562SOL    HW223519  11.453   0.236  11.649
40563SOL     OW23520   5.938   5.803   7.366
40563SOL    HW123521   6.006   5.812   7.432
40563SOL    HW223522   5.893   5.722   7.389
40564SOL     OW23523   8.938  10.624   4.362
40564SOL    HW123524   8.970  10.714   4.355
40564SOL    HW223525   9.014  10.569   4.343
40565SOL     OW23526   7.978  12.000   5.442
40565SOL    HW123527   7.986  11.906   5.456
40565SOL    HW223528   7.925  12.031   5.515
40566SOL     OW23529  12.407   6.334   2.772
40566SOL    HW123530  12.372   6.401   2.713
40566SOL    HW223531  12.415   6.256   2.717
40567SOL     OW23532  13.043   4.426  10.993
40567SOL    HW123533  13.053   4.353  10.931
40567SOL    HW223534  12.990   4.490  10.946
40568SOL     OW23535   0.855   5.442   0.051
40568SOL    HW123536   0.865   5.405  14.835
40568SOL    HW223537   0.808   5.524   0.037
40569SOL     OW23538   9.220  14.312   4.072
40569SOL    HW123539   9.126  14.322   4.087
40569SOL    HW223540   9.260  14.344   4.153
40570SOL     OW23541  14.126  10.938  13.786
40570SOL    HW123542  14.201  10.894  13.827
40570SOL    HW223543  14.128  11.026  13.823
40571SOL     OW23544   8.624  11.358   1.810
40571SOL    HW123545   8.661  11.373   1.897
40571SOL    HW223546   8.631  11.442   1.766
40572SOL     OW23547   1.625   1.891  13.349
40572SOL    HW123548   1.542   1.873  13.392
40572SOL    HW223549   1.613   1.860  13.260
40573SOL     OW23550   8.997  13.435   4.035
40573SOL    HW123551   8.990  13.528   4.055
40573SOL    HW223552   8.983  13.430   3.940
40574SOL     OW23553   5.030   3.928   3.341
40574SOL    HW123554   5.027   3.964   3.430
40574SOL    HW223555   5.076   3.844   3.350
40575SOL     OW23556   0.386   0.787   2.793
40575SOL    HW123557   0.475   0.814   2.816
40575SOL    HW223558   0.359   0.849   2.725
40576SOL     OW23559  13.077  10.467   2.337
40576SOL    HW123560  13.108  10.415   2.263
40576SOL    HW223561  13.094  10.413   2.413
40577SOL     OW23562   5.320   9.956  14.497
40577SOL    HW123563   5.374  10.024  14.536
40577SOL    HW223564   5.365   9.935  14.414
40578SOL     OW23565  12.960   1.306   8.172
40578SOL    HW123566  13.034   1.366   8.167
40578SOL    HW223567  12.885   1.358   8.143
40579SOL     OW23568   2.418   0.973  11.022
40579SOL    HW123569   2.347   1.028  11.054
40579SOL    HW223570   2.378   0.919  10.954
40580SOL     OW23571   7.784   6.966  13.064
40580SOL    HW123572   7.777   6.880  13.022
40580SOL    HW223573   7.711   6.969  13.126
40581SOL     OW23574   7.099  14.617   7.967
40581SOL    HW123575   7.085  14.666   7.886
40581SOL    HW223576   7.179  14.655   8.003
40582SOL     OW23577  10.607   7.832  12.076
40582SOL    HW123578  10.699   7.858  12.087
40582SOL    HW223579  10.575   7.887  12.005
40583SOL     OW23580  10.342   1.498   4.174
40583SOL    HW123581  10.349   1.473   4.266
40583SOL    HW223582  10.304   1.586   4.177
40584SOL     OW23583   8.104  13.043   0.627
40584SOL    HW123584   8.132  13.118   0.573
40584SOL    HW223585   8.141  13.061   0.713
40585SOL     OW23586   1.508  10.165   0.145
40585SOL    HW123587   1.415  10.170   0.171
40585SOL    HW223588   1.516  10.228   0.074
40586SOL     OW23589   3.476   9.407   9.802
40586SOL    HW123590   3.546   9.342   9.795
40586SOL    HW223591   3.446   9.400   9.893
40587SOL     OW23592   7.670  11.633  13.135
40587SOL    HW123593   7.596  11.581  13.105
40587SOL    HW223594   7.632  11.718  13.159
40588SOL     OW23595  11.768  11.541  11.146
40588SOL    HW123596  11.703  11.582  11.089
40588SOL    HW223597  11.850  11.587  11.127
40589SOL     OW23598  10.946   1.749  12.156
40589SOL    HW123599  10.913   1.701  12.080
40589SOL    HW223600  10.873   1.747  12.219
40590SOL     OW23601   6.101   3.519   2.005
40590SOL    HW123602   6.075   3.521   1.913
40590SOL    HW223603   6.196   3.532   2.003
40591SOL     OW23604  14.526  14.033   0.982
40591SOL    HW123605  14.533  14.050   0.888
40591SOL    HW223606  14.465  14.099   1.014
40592SOL     OW23607  13.395  13.478  13.873
40592SOL    HW123608  13.429  13.415  13.810
40592SOL    HW223609  13.439  13.456  13.955
40593SOL     OW23610  12.636   3.140   2.711
40593SOL    HW123611  12.664   3.205   2.647
40593SOL    HW223612  12.640   3.056   2.664
40594SOL     OW23613   8.561   9.201  13.084
40594SOL    HW123614   8.573   9.106  13.082
40594SOL    HW223615   8.615   9.234  13.013
40595SOL     OW23616   7.932  14.704   6.300
40595SOL    HW123617   8.008  14.737   6.252
40595SOL    HW223618   7.969  14.658   6.375
40596SOL     OW23619   8.872   6.562   5.685
40596SOL    HW123620   8.778   6.545   5.693
40596SOL    HW223621   8.904   6.489   5.632
40597SOL     OW23622  10.454   8.957  10.800
40597SOL    HW123623  10.516   8.919  10.861
40597SOL    HW223624  10.485   8.930  10.713
40598SOL     OW23625   1.822   9.141   4.971
40598SOL    HW123626   1.915   9.121   4.958
40598SOL    HW223627   1.823   9.222   5.022
40599SOL     OW23628   1.616   7.276   5.792
40599SOL    HW123629   1.688   7.253   5.851
40599SOL    HW223630   1.546   7.307   5.850
40600SOL     OW23631   4.623  12.408   6.092
40600SOL    HW123632   4.609  12.337   6.154
40600SOL    HW223633   4.553  12.470   6.110
40601SOL     OW23634  12.275  12.692   5.818
40601SOL    HW123635  12.357  12.707   5.772
40601SOL    HW223636  12.293  12.720   5.908
40602SOL     OW23637   7.932  13.378   9.120
40602SOL    HW123638   7.982  13.429   9.184
40602SOL    HW223639   7.969  13.290   9.126
40603SOL     OW23640   1.304   1.812  12.520
40603SOL    HW123641   1.338   1.768  12.442
40603SOL    HW223642   1.224   1.856  12.489
40604SOL     OW23643   1.143  13.641   8.879
40604SOL    HW123644   1.161  13.598   8.796
40604SOL    HW223645   1.222  13.693   8.897
40605SOL     OW23646  13.314   5.235   6.991
40605SOL    HW123647  13.298   5.222   7.084
40605SOL    HW223648  13.231   5.268   6.957
40606SOL     OW23649   9.148  12.971  12.745
40606SOL    HW123650   9.165  13.015  12.662
40606SOL    HW223651   9.107  13.038  12.800
40607SOL     OW23652   6.696  14.218  14.856
40607SOL    HW123653   6.672  14.138  14.809
40607SOL    HW223654   6.764  14.191   0.045
40608SOL     OW23655   7.045   0.167   5.633
40608SOL    HW123656   7.026   0.260   5.621
40608SOL    HW223657   7.137   0.165   5.659
40609SOL     OW23658  10.657  11.863  10.949
40609SOL    HW123659  10.728  11.868  10.885
40609SOL    HW223660  10.578  11.850  10.896
40610SOL     OW23661  12.508   1.613  14.686
40610SOL    HW123662  12.573   1.684  14.688
40610SOL    HW223663  12.519   1.573  14.599
40611SOL     OW23664  11.009   9.258  13.694
40611SOL    HW123665  10.941   9.248  13.761
40611SOL    HW223666  11.068   9.185  13.709
40612SOL     OW23667   1.484  10.497   1.983
40612SOL    HW123668   1.547  10.429   2.007
40612SOL    HW223669   1.536  10.564   1.939
40613SOL     OW23670   4.836   5.737  11.388
40613SOL    HW123671   4.767   5.800  11.408
40613SOL    HW223672   4.837   5.677  11.463
40614SOL     OW23673   6.300   0.906   9.723
40614SOL    HW123674   6.222   0.927   9.672
40614SOL    HW223675   6.267   0.880   9.809
40615SOL     OW23676   2.325   4.862   8.344
40615SOL    HW123677   2.231   4.872   8.326
40615SOL    HW223678   2.358   4.814   8.269
40616SOL     OW23679   7.314   9.031   6.219
40616SOL    HW123680   7.314   9.127   6.214
40616SOL    HW223681   7.386   9.004   6.163
40617SOL     OW23682  13.280   6.998   3.063
40617SOL    HW123683  13.287   6.903   3.067
40617SOL    HW223684  13.367   7.029   3.086
40618SOL     OW23685   7.798   0.050   0.267
40618SOL    HW123686   7.774  14.852   0.328
40618SOL    HW223687   7.719   0.064   0.215
40619SOL     OW23688  11.172  12.824   5.897
40619SOL    HW123689  11.164  12.910   5.938
40619SOL    HW223690  11.264  12.815   5.875
40620SOL     OW23691   0.453   9.208   3.783
40620SOL    HW123692   0.547   9.186   3.779
40620SOL    HW223693   0.418   9.149   3.849
40621SOL     OW23694  12.178  11.215   3.894
40621SOL    HW123695  12.123  11.141   3.920
40621SOL    HW223696  12.167  11.280   3.963
40622SOL     OW23697  12.565  14.192  13.881
40622SOL    HW123698  12.624  14.236  13.943
40622SOL    HW223699  12.574  14.099  13.902
40623SOL     OW23700   7.403   0.810   6.096
40623SOL    HW123701   7.385   0.741   6.160
40623SOL    HW223702   7.329   0.805   6.035
40624SOL     OW23703   9.987  13.275   5.495
40624SOL    HW123704   9.954  13.195   5.535
40624SOL    HW223705   9.972  13.343   5.560
40625SOL     OW23706  13.155   6.507   2.561
40625SOL    HW123707  13.151   6.602   2.546
40625SOL    HW223708  13.112   6.469   2.484
40626SOL     OW23709   1.462   2.326  14.419
40626SOL    HW123710   1.475   2.406  14.470
40626SOL    HW223711   1.488   2.351  14.330
40627SOL     OW23712   8.131   9.437  10.994
40627SOL    HW123713   8.056   9.490  11.021
40627SOL    HW223714   8.189   9.499  10.948
40628SOL     OW23715   4.023   7.561   2.284
40628SOL    HW123716   4.072   7.484   2.313
40628SOL    HW223717   4.066   7.635   2.328
40629SOL     OW23718   5.375   0.657   7.463
40629SOL    HW123719   5.439   0.721   7.433
40629SOL    HW223720   5.382   0.584   7.402
40630SOL     OW23721  12.363   6.391   2.280
40630SOL    HW123722  12.421   6.340   2.338
40630SOL    HW223723  12.380   6.356   2.193
40631SOL     OW23724   9.501  13.286   4.135
40631SOL    HW123725   9.414  13.253   4.113
40631SOL    HW223726   9.554  13.206   4.145
40632SOL     OW23727   3.385  11.766   9.963
40632SOL    HW123728   3.466  11.757  10.013
40632SOL    HW223729   3.325  11.812  10.023
40633SOL     OW23730   8.124   4.617   6.070
40633SOL    HW123731   8.085   4.535   6.040
40633SOL    HW223732   8.102   4.620   6.163
40634SOL     OW23733   7.723   5.284   0.722
40634SOL    HW123734   7.666   5.357   0.746
40634SOL    HW223735   7.715   5.278   0.627
40635SOL     OW23736   8.480   0.152   5.622
40635SOL    HW123737   8.455   0.215   5.690
40635SOL    HW223738   8.474   0.202   5.540
40636SOL     OW23739   5.007  13.341   1.655
40636SOL    HW123740   5.020  13.322   1.562
40636SOL    HW223741   4.937  13.407   1.657
40637SOL     OW23742  14.291   9.005   1.039
40637SOL    HW123743  14.377   9.046   1.028
40637SOL    HW223744  14.267   9.025   1.130
40638SOL     OW23745  12.729   9.020   1.416
40638SOL    HW123746  12.738   8.935   1.461
40638SOL    HW223747  12.808   9.068   1.440
40639SOL     OW23748   6.055  13.867  13.556
40639SOL    HW123749   6.093  13.895  13.473
40639SOL    HW223750   6.104  13.916  13.622
40640SOL     OW23751   7.118  11.386   3.595
40640SOL    HW123752   7.110  11.383   3.500
40640SOL    HW223753   7.117  11.480   3.617
40641SOL     OW23754  14.563   4.774  10.336
40641SOL    HW123755  14.527   4.746  10.252
40641SOL    HW223756  14.486   4.793  10.390
40642SOL     OW23757   0.471   1.261  12.359
40642SOL    HW123758   0.380   1.281  12.337
40642SOL    HW223759   0.485   1.304  12.443
40643SOL     OW23760  14.660   9.714   0.864
40643SOL    HW123761  14.742   9.677   0.831
40643SOL    HW223762  14.629   9.649   0.928
40644SOL     OW23763  14.436   3.636  10.823
40644SOL    HW123764  14.472   3.632  10.734
40644SOL    HW223765  14.397   3.723  10.829
40645SOL     OW23766   0.908  14.054   5.703
40645SOL    HW123767   0.958  14.113   5.759
40645SOL    HW223768   0.884  13.981   5.761
40646SOL     OW23769   2.696  13.332  11.701
40646SOL    HW123770   2.705  13.276  11.624
40646SOL    HW223771   2.784  13.335  11.739
40647SOL     OW23772  13.337   0.307   2.768
40647SOL    HW123773  13.380   0.232   2.726
40647SOL    HW223774  13.388   0.383   2.739
40648SOL     OW23775   7.971   7.097   8.954
40648SOL    HW123776   7.918   7.141   9.021
40648SOL    HW223777   8.053   7.147   8.952
40649SOL     OW23778  12.818   8.468   3.210
40649SOL    HW123779  12.780   8.427   3.287
40649SOL    HW223780  12.913   8.456   3.220
40650SOL     OW23781  14.170  13.262   0.148
40650SOL    HW123782  14.177  13.325   0.219
40650SOL    HW223783  14.118  13.307   0.081
40651SOL     OW23784   0.060   7.714   2.113
40651SOL    HW123785   0.129   7.656   2.081
40651SOL    HW223786   0.027   7.672   2.192
40652SOL     OW23787   3.239   3.258   5.654
40652SOL    HW123788   3.182   3.181   5.657
40652SOL    HW223789   3.211   3.312   5.728
40653SOL     OW23790  14.240   9.317   7.384
40653SOL    HW123791  14.227   9.250   7.316
40653SOL    HW223792  14.323   9.293   7.426
40654SOL     OW23793   8.854   0.939   3.265
40654SOL    HW123794   8.876   0.860   3.314
40654SOL    HW223795   8.916   1.005   3.297
40655SOL     OW23796   1.798  13.297   9.788
40655SOL    HW123797   1.751  13.323   9.867
40655SOL    HW223798   1.841  13.215   9.812
40656SOL     OW23799   2.973   9.591   1.025
40656SOL    HW123800   2.897   9.595   0.967
40656SOL    HW223801   3.042   9.552   0.971
40657SOL     OW23802   0.375   8.649   5.157
40657SOL    HW123803   0.394   8.739   5.184
40657SOL    HW223804   0.299   8.657   5.100
40658SOL     OW23805   8.288  14.431   6.533
40658SOL    HW123806   8.277  14.349   6.579
40658SOL    HW223807   8.379  14.430   6.503
40659SOL     OW23808  11.611   0.838   4.829
40659SOL    HW123809  11.649   0.908   4.881
40659SOL    HW223810  11.574   0.882   4.753
40660SOL     OW23811  11.030  12.237   7.906
40660SOL    HW123812  10.939  12.258   7.884
40660SOL    HW223813  11.036  12.251   8.000
40661SOL     OW23814   2.434   1.531  14.829
40661SOL    HW123815   2.487   1.542   0.036
40661SOL    HW223816   2.497   1.527  14.758
40662SOL     OW23817   8.130   8.998  14.605
40662SOL    HW123818   8.163   9.050  14.531
40662SOL    HW223819   8.097   9.063  14.667
40663SOL     OW23820  14.808   9.072  12.569
40663SOL    HW123821  14.857   9.012  12.625
40663SOL    HW223822   0.003   9.117  12.518
40664SOL     OW23823   5.467   4.417   1.897
40664SOL    HW123824   5.533   4.453   1.956
40664SOL    HW223825   5.420   4.493   1.863
40665SOL     OW23826  13.923   2.791  13.356
40665SOL    HW123827  13.887   2.764  13.440
40665SOL    HW223828  13.931   2.886  13.363
40666SOL     OW23829   6.093   4.402   2.619
40666SOL    HW123830   6.060   4.454   2.546
40666SOL    HW223831   6.073   4.454   2.697
40667SOL     OW23832   2.252   4.425  14.414
40667SOL    HW123833   2.237   4.476  14.494
40667SOL    HW223834   2.332   4.376  14.432
40668SOL     OW23835  10.365   0.552  12.586
40668SOL    HW123836  10.406   0.583  12.667
40668SOL    HW223837  10.357   0.457  12.597
40669SOL     OW23838   2.490   0.625  13.155
40669SOL    HW123839   2.518   0.650  13.067
40669SOL    HW223840   2.497   0.705  13.207
40670SOL     OW23841  13.054   9.582   0.946
40670SOL    HW123842  13.146   9.573   0.924
40670SOL    HW223843  13.014   9.623   0.869
40671SOL     OW23844  13.173  12.737   7.488
40671SOL    HW123845  13.139  12.782   7.411
40671SOL    HW223846  13.248  12.687   7.457
40672SOL     OW23847   7.286   3.373  12.627
40672SOL    HW123848   7.229   3.339  12.558
40672SOL    HW223849   7.225   3.407  12.693
40673SOL     OW23850   2.290   7.632  13.584
40673SOL    HW123851   2.227   7.560  13.595
40673SOL    HW223852   2.257   7.681  13.509
40674SOL     OW23853   4.950   6.768   2.055
40674SOL    HW123854   5.018   6.708   2.023
40674SOL    HW223855   4.881   6.764   1.989
40675SOL     OW23856   0.614  10.346   4.728
40675SOL    HW123857   0.608  10.437   4.699
40675SOL    HW223858   0.676  10.305   4.668
40676SOL     OW23859  12.765   3.562   1.545
40676SOL    HW123860  12.841   3.602   1.503
40676SOL    HW223861  12.769   3.470   1.518
40677SOL     OW23862   6.227   9.719   3.371
40677SOL    HW123863   6.253   9.811   3.371
40677SOL    HW223864   6.132   9.721   3.360
40678SOL     OW23865  11.705   2.270   2.924
40678SOL    HW123866  11.701   2.345   2.983
40678SOL    HW223867  11.656   2.201   2.970
40679SOL     OW23868   0.834   1.508  12.861
40679SOL    HW123869   0.782   1.536  12.786
40679SOL    HW223870   0.885   1.433  12.829
40680SOL     OW23871  10.620   9.438   1.206
40680SOL    HW123872  10.692   9.426   1.267
40680SOL    HW223873  10.636   9.525   1.167
40681SOL     OW23874   2.084   7.373   7.730
40681SOL    HW123875   2.134   7.333   7.801
40681SOL    HW223876   2.104   7.319   7.653
40682SOL     OW23877  10.869   6.792  13.655
40682SOL    HW123878  10.883   6.702  13.625
40682SOL    HW223879  10.896   6.791  13.747
40683SOL     OW23880   7.623   5.628   4.473
40683SOL    HW123881   7.709   5.589   4.485
40683SOL    HW223882   7.608   5.680   4.553
40684SOL     OW23883   9.181   2.913   5.300
40684SOL    HW123884   9.173   2.828   5.257
40684SOL    HW223885   9.130   2.973   5.246
40685SOL     OW23886   5.539  12.962   9.864
40685SOL    HW123887   5.560  13.029   9.928
40685SOL    HW223888   5.444  12.959   9.862
40686SOL     OW23889   6.013   0.787  10.497
40686SOL    HW123890   5.974   0.820  10.578
40686SOL    HW223891   6.105   0.815  10.502
40687SOL     OW23892   0.933  13.972   5.434
40687SOL    HW123893   0.864  14.028   5.399
40687SOL    HW223894   0.938  13.995   5.527
40688SOL     OW23895  11.082  13.781  10.626
40688SOL    HW123896  11.096  13.746  10.713
40688SOL    HW223897  11.157  13.751  10.575
40689SOL     OW23898  12.806   9.818   7.330
40689SOL    HW123899  12.761   9.786   7.408
40689SOL    HW223900  12.897   9.829   7.358
40690SOL     OW23901  13.611  10.804   0.333
40690SOL    HW123902  13.610  10.880   0.275
40690SOL    HW223903  13.702  10.795   0.360
40691SOL     OW23904   5.715  11.984   7.246
40691SOL    HW123905   5.730  12.023   7.332
40691SOL    HW223906   5.623  12.002   7.228
40692SOL     OW23907  14.566   4.069  12.632
40692SOL    HW123908  14.622   4.145  12.648
40692SOL    HW223909  14.595   4.003  12.695
40693SOL     OW23910  13.311   9.487   2.759
40693SOL    HW123911  13.231   9.525   2.795
40693SOL    HW223912  13.376   9.496   2.829
40694SOL     OW23913  12.587  12.529   3.720
40694SOL    HW123914  12.651  12.466   3.753
40694SOL    HW223915  12.528  12.478   3.666
40695SOL     OW23916   6.371   7.462   8.878
40695SOL    HW123917   6.386   7.555   8.898
40695SOL    HW223918   6.389   7.416   8.960
40696SOL     OW23919  12.350  12.497   9.450
40696SOL    HW123920  12.272  12.445   9.430
40696SOL    HW223921  12.316  12.584   9.470
40697SOL     OW23922   8.318   6.286  14.225
40697SOL    HW123923   8.298   6.356  14.162
40697SOL    HW223924   8.261   6.213  14.199
40698SOL     OW23925   3.838  13.470   5.936
40698SOL    HW123926   3.879  13.460   5.850
40698SOL    HW223927   3.850  13.384   5.978
40699SOL     OW23928   0.819   5.285   4.949
40699SOL    HW123929   0.743   5.241   4.986
40699SOL    HW223930   0.872   5.310   5.025
40700SOL     OW23931   3.940  11.017  10.451
40700SOL    HW123932   4.033  10.995  10.450
40700SOL    HW223933   3.896  10.933  10.463
40701SOL     OW23934  11.490   1.982   1.180
40701SOL    HW123935  11.487   1.944   1.268
40701SOL    HW223936  11.573   1.951   1.143
40702SOL     OW23937   1.261   3.887  14.729
40702SOL    HW123938   1.304   3.944  14.665
40702SOL    HW223939   1.178   3.864  14.689
40703SOL     OW23940   0.586   9.964   0.616
40703SOL    HW123941   0.578  10.059   0.615
40703SOL    HW223942   0.506   9.933   0.657
40704SOL     OW23943   8.610  10.432  11.314
40704SOL    HW123944   8.520  10.457  11.333
40704SOL    HW223945   8.661  10.476  11.383
40705SOL     OW23946   0.524   3.605   0.645
40705SOL    HW123947   0.608   3.575   0.610
40705SOL    HW223948   0.485   3.527   0.684
40706SOL     OW23949  12.996  13.587   8.769
40706SOL    HW123950  13.012  13.676   8.802
40706SOL    HW223951  13.053  13.579   8.693
40707SOL     OW23952  13.059   4.333   8.438
40707SOL    HW123953  12.974   4.295   8.416
40707SOL    HW223954  13.068   4.318   8.533
40708SOL     OW23955   0.033   8.035   2.516
40708SOL    HW123956  14.868   8.085   2.444
40708SOL    HW223957   0.066   7.955   2.475
40709SOL     OW23958   4.956   9.560   4.965
40709SOL    HW123959   4.915   9.477   4.991
40709SOL    HW223960   5.011   9.537   4.891
40710SOL     OW23961   5.750   2.129   9.260
40710SOL    HW123962   5.835   2.171   9.252
40710SOL    HW223963   5.767   2.047   9.306
40711SOL     OW23964   1.028   1.878   7.878
40711SOL    HW123965   1.113   1.846   7.906
40711SOL    HW223966   1.001   1.939   7.947
40712SOL     OW23967   6.344  11.959   0.574
40712SOL    HW123968   6.313  11.908   0.499
40712SOL    HW223969   6.356  12.047   0.540
40713SOL     OW23970   0.772   3.997   4.060
40713SOL    HW123971   0.802   4.086   4.078
40713SOL    HW223972   0.851   3.950   4.033
40714SOL     OW23973   0.167   7.818   2.422
40714SOL    HW123974   0.148   7.724   2.422
40714SOL    HW223975   0.245   7.826   2.477
40715SOL     OW23976   3.217  14.302  14.859
40715SOL    HW123977   3.213  14.377  14.799
40715SOL    HW223978   3.141  14.314   0.044
40716SOL     OW23979   0.616   1.076  12.680
40716SOL    HW123980   0.691   1.127  12.647
40716SOL    HW223981   0.571   1.046  12.601
40717SOL     OW23982  13.296   0.507   4.860
40717SOL    HW123983  13.270   0.598   4.847
40717SOL    HW223984  13.305   0.472   4.771
40718SOL     OW23985   5.818  10.962   3.899
40718SOL    HW123986   5.745  10.989   3.842
40718SOL    HW223987   5.798  10.872   3.923
40719SOL     OW23988   0.065   0.266  12.346
40719SOL    HW123989   0.042   0.186  12.395
40719SOL    HW223990   0.150   0.293  12.383
40720SOL     OW23991  11.563  13.036   0.463
40720SOL    HW123992  11.586  13.070   0.377
40720SOL    HW223993  11.549  13.114   0.517
40721SOL     OW23994   7.255   5.977   4.002
40721SOL    HW123995   7.280   6.036   4.073
40721SOL    HW223996   7.165   6.002   3.980
40722SOL     OW23997   9.089  10.561  14.598
40722SOL    HW123998   9.059  10.535  14.511
40722SOL    HW223999   9.180  10.587  14.585
40723SOL     OW24000   3.426   0.287   6.582
40723SOL    HW124001   3.374   0.366   6.601
40723SOL    HW224002   3.393   0.222   6.644
40724SOL     OW24003  10.375   7.009   7.139
40724SOL    HW124004  10.388   6.915   7.142
40724SOL    HW224005  10.291   7.024   7.182
40725SOL     OW24006   2.600  14.280  14.444
40725SOL    HW124007   2.530  14.336  14.409
40725SOL    HW224008   2.565  14.191  14.436
40726SOL     OW24009   9.486  14.106   3.080
40726SOL    HW124010   9.568  14.106   3.129
40726SOL    HW224011   9.500  14.043   3.010
40727SOL     OW24012  12.580   0.730   7.598
40727SOL    HW124013  12.495   0.761   7.630
40727SOL    HW224014  12.565   0.640   7.571
40728SOL     OW24015  12.868  14.495   5.787
40728SOL    HW124016  12.850  14.451   5.704
40728SOL    HW224017  12.783  14.528   5.816
40729SOL     OW24018   1.543  11.884   3.800
40729SOL    HW124019   1.589  11.917   3.723
40729SOL    HW224020   1.469  11.834   3.764
40730SOL     OW24021   8.130  11.572   1.452
40730SOL    HW124022   8.103  11.502   1.511
40730SOL    HW224023   8.130  11.651   1.505
40731SOL     OW24024  12.213   4.838  13.680
40731SOL    HW124025  12.215   4.913  13.740
40731SOL    HW224026  12.187   4.875  13.596
40732SOL     OW24027   4.121   1.116  11.285
40732SOL    HW124028   4.075   1.048  11.237
40732SOL    HW224029   4.054   1.160  11.337
40733SOL     OW24030   9.570  13.653   6.571
40733SOL    HW124031   9.507  13.614   6.511
40733SOL    HW224032   9.618  13.578   6.606
40734SOL     OW24033   3.061   2.200  11.473
40734SOL    HW124034   3.116   2.256  11.418
40734SOL    HW224035   3.107   2.197  11.557
40735SOL     OW24036  11.814   6.951   4.448
40735SOL    HW124037  11.766   6.905   4.378
40735SOL    HW224038  11.845   7.031   4.406
40736SOL     OW24039   4.496   6.448   2.693
40736SOL    HW124040   4.405   6.418   2.688
40736SOL    HW224041   4.501   6.500   2.773
40737SOL     OW24042   9.022   5.917   1.163
40737SOL    HW124043   8.961   5.844   1.164
40737SOL    HW224044   9.013   5.955   1.075
40738SOL     OW24045   1.762   6.415   9.443
40738SOL    HW124046   1.699   6.418   9.515
40738SOL    HW224047   1.825   6.485   9.464
40739SOL     OW24048  12.990  10.008   6.483
40739SOL    HW124049  12.935   9.999   6.405
40739SOL    HW224050  13.048   9.932   6.482
40740SOL     OW24051   3.285   6.375   7.737
40740SOL    HW124052   3.293   6.413   7.649
40740SOL    HW224053   3.196   6.340   7.740
40741SOL     OW24054   2.294   0.643   1.244
40741SOL    HW124055   2.213   0.687   1.219
40741SOL    HW224056   2.363   0.697   1.205
40742SOL     OW24057   2.588   1.129   6.308
40742SOL    HW124058   2.635   1.111   6.227
40742SOL    HW224059   2.649   1.181   6.360
40743SOL     OW24060   7.037   2.890   4.671
40743SOL    HW124061   6.992   2.973   4.688
40743SOL    HW224062   7.061   2.894   4.579
40744SOL     OW24063  13.432   9.495  12.742
40744SOL    HW124064  13.488   9.471  12.816
40744SOL    HW224065  13.491   9.538  12.680
40745SOL     OW24066   7.303   4.272  11.965
40745SOL    HW124067   7.331   4.212  11.896
40745SOL    HW224068   7.220   4.237  11.996
40746SOL     OW24069  12.484   2.233  11.378
40746SOL    HW124070  12.572   2.242  11.341
40746SOL    HW224071  12.499   2.204  11.468
40747SOL     OW24072  13.121  13.270   0.605
40747SOL    HW124073  13.105  13.298   0.695
40747SOL    HW224074  13.212  13.295   0.587
40748SOL     OW24075  10.875   1.606   3.744
40748SOL    HW124076  10.798   1.650   3.706
40748SOL    HW224077  10.908   1.551   3.673
40749SOL     OW24078   7.126   8.953  11.488
40749SOL    HW124079   7.166   9.039  11.503
40749SOL    HW224080   7.095   8.926  11.574
40750SOL     OW24081  12.400  12.663   3.210
40750SOL    HW124082  12.451  12.740   3.186
40750SOL    HW224083  12.320  12.670   3.159
40751SOL     OW24084  14.344   0.893   0.425
40751SOL    HW124085  14.307   0.868   0.509
40751SOL    HW224086  14.319   0.985   0.413
40752SOL     OW24087   8.442   9.762   4.264
40752SOL    HW124088   8.471   9.847   4.297
40752SOL    HW224089   8.346   9.769   4.263
40753SOL     OW24090   9.865   0.978   8.574
40753SOL    HW124091   9.818   1.052   8.536
40753SOL    HW224092   9.950   1.013   8.600
40754SOL     OW24093   9.437   6.415   3.648
40754SOL    HW124094   9.530   6.432   3.640
40754SOL    HW224095   9.423   6.335   3.597
40755SOL     OW24096  12.907  12.813   7.928
40755SOL    HW124097  12.922  12.761   8.007
40755SOL    HW224098  12.928  12.754   7.855
40756SOL     OW24099   1.528  10.939   1.894
40756SOL    HW124100   1.522  10.990   1.812
40756SOL    HW224101   1.533  10.848   1.865
40757SOL     OW24102   1.790   1.459   7.075
40757SOL    HW124103   1.879   1.428   7.094
40757SOL    HW224104   1.762   1.502   7.155
40758SOL     OW24105   3.153  12.059   8.777
40758SOL    HW124106   3.090  12.118   8.737
40758SOL    HW224107   3.238  12.090   8.745
40759SOL     OW24108   5.566   3.684   8.619
40759SOL    HW124109   5.595   3.766   8.579
40759SOL    HW224110   5.472   3.696   8.632
40760SOL     OW24111  11.716   3.402  13.537
40760SOL    HW124112  11.623   3.419  13.518
40760SOL    HW224113  11.727   3.308  13.525
40761SOL     OW24114   0.365   5.667   6.525
40761SOL    HW124115   0.344   5.654   6.432
40761SOL    HW224116   0.460   5.660   6.529
40762SOL     OW24117  11.067   5.150   8.110
40762SOL    HW124118  11.075   5.059   8.137
40762SOL    HW224119  10.973   5.164   8.099
40763SOL     OW24120  14.313   7.398   7.860
40763SOL    HW124121  14.286   7.424   7.772
40763SOL    HW224122  14.231   7.377   7.905
40764SOL     OW24123   6.620   8.664   6.849
40764SOL    HW124124   6.566   8.731   6.807
40764SOL    HW224125   6.706   8.671   6.807
40765SOL     OW24126  14.470  13.832  14.802
40765SOL    HW124127  14.559  13.840  14.836
40765SOL    HW224128  14.423  13.782  14.868
40766SOL     OW24129   6.663   7.807  11.657
40766SOL    HW124130   6.727   7.796  11.587
40766SOL    HW224131   6.669   7.726  11.707
40767SOL     OW24132   4.002   1.499   2.953
40767SOL    HW124133   3.910   1.516   2.934
40767SOL    HW224134   4.002   1.412   2.994
40768SOL     OW24135   4.575   7.420  12.805
40768SOL    HW124136   4.641   7.351  12.814
40768SOL    HW224137   4.615   7.497  12.845
40769SOL     OW24138   1.606   2.833  14.403
40769SOL    HW124139   1.649   2.874  14.478
40769SOL    HW224140   1.519   2.874  14.399
40770SOL     OW24141  12.151   9.520  11.800
40770SOL    HW124142  12.140   9.447  11.740
40770SOL    HW224143  12.064   9.532  11.839
40771SOL     OW24144   9.223  13.984   5.818
40771SOL    HW124145   9.218  14.009   5.725
40771SOL    HW224146   9.253  14.063   5.862
40772SOL     OW24147   7.321  14.700   7.634
40772SOL    HW124148   7.381  14.641   7.680
40772SOL    HW224149   7.372  14.780   7.622
40773SOL     OW24150  10.088   4.698   0.177
40773SOL    HW124151  10.181   4.678   0.162
40773SOL    HW224152  10.062   4.747   0.099
40774SOL     OW24153   4.036   7.617  14.295
40774SOL    HW124154   4.010   7.698  14.339
40774SOL    HW224155   4.042   7.641  14.203
40775SOL     OW24156   1.736   3.034   1.610
40775SOL    HW124157   1.670   3.030   1.541
40775SOL    HW224158   1.697   3.089   1.678
40776SOL     OW24159  14.176   9.953  12.148
40776SOL    HW124160  14.095   9.907  12.171
40776SOL    HW224161  14.188  10.017  12.218
40777SOL     OW24162   0.553   3.895   7.960
40777SOL    HW124163   0.580   3.979   7.997
40777SOL    HW224164   0.636   3.850   7.941
40778SOL     OW24165  12.628   5.839  12.531
40778SOL    HW124166  12.599   5.769  12.472
40778SOL    HW224167  12.590   5.817  12.616
40779SOL     OW24168   4.301  12.834   2.126
40779SOL    HW124169   4.330  12.890   2.198
40779SOL    HW224170   4.206  12.848   2.122
40780SOL     OW24171   8.686   7.500   8.247
40780SOL    HW124172   8.648   7.460   8.169
40780SOL    HW224173   8.769   7.454   8.260
40781SOL     OW24174  12.344  14.817   3.323
40781SOL    HW124175  12.253  14.838   3.301
40781SOL    HW224176  12.394   0.020   3.291
40782SOL     OW24177   2.747  14.251  13.276
40782SOL    HW124178   2.782  14.333  13.241
40782SOL    HW224179   2.653  14.257  13.263
40783SOL     OW24180   6.611  10.593  14.044
40783SOL    HW124181   6.604  10.555  14.132
40783SOL    HW224182   6.705  10.601  14.029
40784SOL     OW24183   9.717  12.510   8.147
40784SOL    HW124184   9.634  12.519   8.195
40784SOL    HW224185   9.769  12.450   8.200
40785SOL     OW24186  10.682   2.758   8.144
40785SOL    HW124187  10.689   2.662   8.143
40785SOL    HW224188  10.591   2.775   8.168
40786SOL     OW24189   6.512   5.118   0.143
40786SOL    HW124190   6.531   5.153   0.230
40786SOL    HW224191   6.546   5.184   0.082
40787SOL     OW24192  10.898   1.133  13.138
40787SOL    HW124193  10.817   1.085  13.153
40787SOL    HW224194  10.902   1.144  13.043
40788SOL     OW24195   2.200   1.689  12.377
40788SOL    HW124196   2.182   1.683  12.471
40788SOL    HW224197   2.236   1.777  12.365
40789SOL     OW24198  10.390   3.098   1.177
40789SOL    HW124199  10.366   3.105   1.084
40789SOL    HW224200  10.312   3.062   1.219
40790SOL     OW24201  13.304   4.343  13.208
40790SOL    HW124202  13.346   4.400  13.144
40790SOL    HW224203  13.373   4.322  13.271
40791SOL     OW24204   8.020   8.253  14.528
40791SOL    HW124205   8.040   8.340  14.560
40791SOL    HW224206   8.083   8.237  14.458
40792SOL     OW24207  10.598   8.321  10.367
40792SOL    HW124208  10.666   8.367  10.416
40792SOL    HW224209  10.531   8.388  10.351
40793SOL     OW24210  14.804   9.928  14.147
40793SOL    HW124211  14.710   9.913  14.142
40793SOL    HW224212  14.842   9.858  14.094
40794SOL     OW24213   9.825  10.229  12.485
40794SOL    HW124214   9.872  10.167  12.429
40794SOL    HW224215   9.802  10.178  12.562
40795SOL     OW24216  13.368   7.364  13.982
40795SOL    HW124217  13.408   7.332  13.901
40795SOL    HW224218  13.434   7.422  14.020
40796SOL     OW24219   8.764   6.546   6.700
40796SOL    HW124220   8.774   6.558   6.794
40796SOL    HW224221   8.779   6.453   6.685
40797SOL     OW24222   2.174   6.581   1.686
40797SOL    HW124223   2.207   6.610   1.771
40797SOL    HW224224   2.113   6.650   1.660
40798SOL     OW24225   9.929  10.247   7.460
40798SOL    HW124226   9.842  10.220   7.432
40798SOL    HW224227   9.979  10.166   7.466
40799SOL     OW24228   6.192   4.805   7.704
40799SOL    HW124229   6.107   4.766   7.724
40799SOL    HW224230   6.213   4.774   7.616
40800SOL     OW24231  14.419  13.564   3.568
40800SOL    HW124232  14.354  13.626   3.537
40800SOL    HW224233  14.474  13.546   3.491
40801SOL     OW24234   7.076   2.953  14.851
40801SOL    HW124235   7.134   2.877  14.844
40801SOL    HW224236   6.988   2.915  14.858
40802SOL     OW24237   0.611  14.164   7.880
40802SOL    HW124238   0.545  14.226   7.912
40802SOL    HW224239   0.564  14.107   7.820
40803SOL     OW24240   6.879   3.374  10.475
40803SOL    HW124241   6.935   3.299  10.458
40803SOL    HW224242   6.792   3.336  10.489
40804SOL     OW24243   3.521   7.912  11.950
40804SOL    HW124244   3.555   7.852  11.884
40804SOL    HW224245   3.597   7.964  11.977
40805SOL     OW24246   4.597  11.974   5.860
40805SOL    HW124247   4.638  11.890   5.879
40805SOL    HW224248   4.622  11.993   5.770
40806SOL     OW24249   7.984  13.349   8.508
40806SOL    HW124250   8.062  13.326   8.456
40806SOL    HW224251   7.936  13.411   8.453
40807SOL     OW24252   8.100   0.962  12.378
40807SOL    HW124253   8.047   1.024  12.428
40807SOL    HW224254   8.038   0.921  12.318
40808SOL     OW24255   3.722  12.021   6.398
40808SOL    HW124256   3.754  11.941   6.357
40808SOL    HW224257   3.793  12.047   6.457
40809SOL     OW24258  10.390   5.961   0.948
40809SOL    HW124259  10.329   6.025   0.912
40809SOL    HW224260  10.395   5.892   0.882
40810SOL     OW24261  13.115  13.236  10.758
40810SOL    HW124262  13.123  13.166  10.823
40810SOL    HW224263  13.203  13.245  10.722
40811SOL     OW24264   4.678   4.957   6.873
40811SOL    HW124265   4.714   5.007   6.800
40811SOL    HW224266   4.635   5.023   6.928
40812SOL     OW24267   5.799   4.213   8.782
40812SOL    HW124268   5.880   4.263   8.780
40812SOL    HW224269   5.729   4.277   8.771
40813SOL     OW24270   6.946   4.395   9.230
40813SOL    HW124271   6.932   4.343   9.151
40813SOL    HW224272   6.960   4.484   9.199
40814SOL     OW24273  13.707  10.188   9.242
40814SOL    HW124274  13.691  10.280   9.225
40814SOL    HW224275  13.783  10.187   9.300
40815SOL     OW24276  12.358  11.382  11.075
40815SOL    HW124277  12.289  11.382  11.142
40815SOL    HW224278  12.433  11.343  11.120
40816SOL     OW24279  11.424   6.833   8.845
40816SOL    HW124280  11.465   6.749   8.868
40816SOL    HW224281  11.347   6.809   8.794
40817SOL     OW24282  12.792   1.926   2.747
40817SOL    HW124283  12.843   1.862   2.697
40817SOL    HW224284  12.843   1.939   2.828
40818SOL     OW24285   3.322   7.100   9.046
40818SOL    HW124286   3.237   7.088   9.004
40818SOL    HW224287   3.386   7.087   8.976
40819SOL     OW24288   6.394   4.121   8.598
40819SOL    HW124289   6.466   4.059   8.587
40819SOL    HW224290   6.407   4.185   8.528
40820SOL     OW24291  10.327   2.657   5.685
40820SOL    HW124292  10.289   2.635   5.600
40820SOL    HW224293  10.323   2.576   5.736
40821SOL     OW24294   9.908   2.928  11.010
40821SOL    HW124295   9.911   2.839  11.043
40821SOL    HW224296   9.912   2.984  11.088
40822SOL     OW24297   1.938   0.769  10.422
40822SOL    HW124298   1.869   0.726  10.473
40822SOL    HW224299   1.970   0.838  10.479
40823SOL     OW24300   6.393   6.394   3.257
40823SOL    HW124301   6.346   6.451   3.318
40823SOL    HW224302   6.329   6.328   3.232
40824SOL     OW24303   5.286   8.334  14.226
40824SOL    HW124304   5.253   8.280  14.298
40824SOL    HW224305   5.222   8.405  14.218
40825SOL     OW24306   2.286   8.783  13.447
40825SOL    HW124307   2.381   8.796  13.446
40825SOL    HW224308   2.271   8.727  13.523
40826SOL     OW24309   3.973  13.227   2.763
40826SOL    HW124310   3.888  13.196   2.734
40826SOL    HW224311   4.025  13.233   2.683
40827SOL     OW24312  12.263   9.442   7.151
40827SOL    HW124313  12.295   9.525   7.115
40827SOL    HW224314  12.308   9.434   7.236
40828SOL     OW24315   3.080   0.950  14.288
40828SOL    HW124316   3.119   0.981  14.207
40828SOL    HW224317   2.998   0.908  14.261
40829SOL     OW24318   2.885   1.023  13.005
40829SOL    HW124319   2.868   1.051  12.915
40829SOL    HW224320   2.832   1.083  13.059
40830SOL     OW24321   0.958  13.747   1.800
40830SOL    HW124322   1.028  13.777   1.858
40830SOL    HW224323   0.878  13.783   1.839
40831SOL     OW24324   5.883   5.160   4.145
40831SOL    HW124325   5.894   5.252   4.169
40831SOL    HW224326   5.970   5.122   4.152
40832SOL     OW24327  10.134   9.569   6.747
40832SOL    HW124328  10.066   9.612   6.695
40832SOL    HW224329  10.085   9.510   6.805
40833SOL     OW24330   9.450   8.103  11.731
40833SOL    HW124331   9.370   8.054  11.749
40833SOL    HW224332   9.434   8.147  11.648
40834SOL     OW24333   4.338  13.612   7.515
40834SOL    HW124334   4.380  13.532   7.484
40834SOL    HW224335   4.283  13.640   7.443
40835SOL     OW24336  12.053   5.648  11.351
40835SOL    HW124337  12.003   5.616  11.427
40835SOL    HW224338  11.988   5.693  11.297
40836SOL     OW24339   6.268  10.979   7.103
40836SOL    HW124340   6.220  11.060   7.123
40836SOL    HW224341   6.219  10.911   7.150
40837SOL     OW24342   4.036   5.762   2.720
40837SOL    HW124343   4.054   5.791   2.809
40837SOL    HW224344   3.959   5.813   2.693
40838SOL     OW24345   8.291   9.797   2.116
40838SOL    HW124346   8.231   9.828   2.183
40838SOL    HW224347   8.365   9.760   2.164
40839SOL     OW24348   8.699  12.926   6.469
40839SOL    HW124349   8.703  13.008   6.419
40839SOL    HW224350   8.719  12.858   6.405
40840SOL     OW24351  13.422   5.814   5.425
40840SOL    HW124352  13.336   5.778   5.405
40840SOL    HW224353  13.438   5.788   5.516
40841SOL     OW24354  14.719   2.535  12.778
40841SOL    HW124355  14.724   2.462  12.839
40841SOL    HW224356  14.753   2.500  12.696
40842SOL     OW24357   9.590  12.179   6.657
40842SOL    HW124358   9.526  12.209   6.593
40842SOL    HW224359   9.640  12.258   6.679
40843SOL     OW24360  14.814   6.691  10.926
40843SOL    HW124361   0.006   6.636  10.880
40843SOL    HW224362  14.732   6.675  10.879
40844SOL     OW24363   7.312   7.367   8.932
40844SOL    HW124364   7.400   7.398   8.911
40844SOL    HW224365   7.312   7.275   8.907
40845SOL     OW24366   6.430  12.529   7.079
40845SOL    HW124367   6.447  12.578   6.998
40845SOL    HW224368   6.338  12.506   7.073
40846SOL     OW24369   5.997   7.885   7.081
40846SOL    HW124370   6.060   7.918   7.017
40846SOL    HW224371   6.045   7.883   7.164
40847SOL     OW24372   4.180   2.494   0.712
40847SOL    HW124373   4.107   2.515   0.653
40847SOL    HW224374   4.207   2.578   0.749
40848SOL     OW24375   7.816   3.428  14.186
40848SOL    HW124376   7.842   3.336  14.197
40848SOL    HW224377   7.730   3.433  14.226
40849SOL     OW24378   3.841  10.335  11.750
40849SOL    HW124379   3.902  10.324  11.823
40849SOL    HW224380   3.854  10.426  11.722
40850SOL     OW24381   1.097   7.849   4.971
40850SOL    HW124382   1.186   7.878   4.949
40850SOL    HW224383   1.060   7.920   5.023
40851SOL     OW24384   8.080  10.949  10.976
40851SOL    HW124385   8.163  10.913  11.005
40851SOL    HW224386   8.029  10.960  11.056
40852SOL     OW24387  14.192   8.651  11.314
40852SOL    HW124388  14.168   8.708  11.387
40852SOL    HW224389  14.262   8.596  11.349
40853SOL     OW24390   1.537  10.232   1.493
40853SOL    HW124391   1.582  10.212   1.411
40853SOL    HW224392   1.569  10.166   1.555
40854SOL     OW24393   9.554  13.518   0.603
40854SOL    HW124394   9.632  13.568   0.626
40854SOL    HW224395   9.481  13.579   0.617
40855SOL     OW24396   3.769   3.056  11.493
40855SOL    HW124397   3.734   3.060  11.404
40855SOL    HW224398   3.771   2.963  11.514
40856SOL     OW24399   7.685   4.744   9.712
40856SOL    HW124400   7.665   4.660   9.753
40856SOL    HW224401   7.676   4.727   9.618
40857SOL     OW24402   9.498   0.361   7.176
40857SOL    HW124403   9.423   0.305   7.157
40857SOL    HW224404   9.542   0.372   7.091
40858SOL     OW24405  12.661   2.948  13.388
40858SOL    HW124406  12.738   2.995  13.419
40858SOL    HW224407  12.603   3.017  13.356
40859SOL     OW24408  10.088   2.745   0.942
40859SOL    HW124409  10.140   2.825   0.936
40859SOL    HW224410  10.069   2.723   0.851
40860SOL     OW24411  13.328   2.390  11.043
40860SOL    HW124412  13.279   2.447  10.985
40860SOL    HW224413  13.277   2.388  11.124
40861SOL     OW24414   9.415   0.667   5.571
40861SOL    HW124415   9.509   0.654   5.570
40861SOL    HW224416   9.403   0.754   5.610
40862SOL     OW24417   7.849  13.506  14.494
40862SOL    HW124418   7.872  13.444  14.563
40862SOL    HW224419   7.897  13.585  14.516
40863SOL     OW24420   2.242  14.777   8.572
40863SOL    HW124421   2.157  14.796   8.610
40863SOL    HW224422   2.269  14.859   8.530
40864SOL     OW24423   2.131   7.566  11.680
40864SOL    HW124424   2.136   7.653  11.720
40864SOL    HW224425   2.041   7.538  11.692
40865SOL     OW24426   9.522   3.601  14.147
40865SOL    HW124427   9.495   3.595  14.239
40865SOL    HW224428   9.595   3.664  14.148
40866SOL     OW24429   0.313  12.984   4.143
40866SOL    HW124430   0.278  13.033   4.069
40866SOL    HW224431   0.256  13.008   4.217
40867SOL     OW24432  13.158   8.704   0.910
40867SOL    HW124433  13.244   8.696   0.869
40867SOL    HW224434  13.104   8.750   0.845
40868SOL     OW24435   2.181   5.552  10.943
40868SOL    HW124436   2.159   5.634  10.987
40868SOL    HW224437   2.268   5.566  10.906
40869SOL     OW24438   1.836  14.067  13.169
40869SOL    HW124439   1.820  14.016  13.249
40869SOL    HW224440   1.931  14.073  13.163
40870SOL     OW24441  14.484   7.809  11.638
40870SOL    HW124442  14.391   7.802  11.658
40870SOL    HW224443  14.526   7.830  11.721
40871SOL     OW24444  12.154   5.052   5.401
40871SOL    HW124445  12.144   4.977   5.341
40871SOL    HW224446  12.170   5.013   5.486
40872SOL     OW24447   2.646  10.555  12.365
40872SOL    HW124448   2.615  10.465  12.351
40872SOL    HW224449   2.571  10.601  12.401
40873SOL     OW24450   0.199   6.869   2.266
40873SOL    HW124451   0.285   6.893   2.299
40873SOL    HW224452   0.146   6.856   2.344
40874SOL     OW24453   6.250   1.940  10.034
40874SOL    HW124454   6.327   1.966   9.983
40874SOL    HW224455   6.175   1.968   9.981
40875SOL     OW24456   2.890   3.523  10.236
40875SOL    HW124457   2.918   3.459  10.171
40875SOL    HW224458   2.794   3.522  10.232
40876SOL     OW24459   6.717   0.686  14.670
40876SOL    HW124460   6.761   0.738  14.738
40876SOL    HW224461   6.677   0.751  14.612
40877SOL     OW24462  12.683  11.039  10.749
40877SOL    HW124463  12.732  11.098  10.805
40877SOL    HW224464  12.613  11.005  10.805
40878SOL     OW24465   2.612   0.790   5.096
40878SOL    HW124466   2.546   0.841   5.144
40878SOL    HW224467   2.675   0.855   5.065
40879SOL     OW24468   0.471   6.616   7.731
40879SOL    HW124469   0.385   6.617   7.772
40879SOL    HW224470   0.533   6.619   7.804
40880SOL     OW24471   4.641  14.732  10.290
40880SOL    HW124472   4.607  14.766  10.373
40880SOL    HW224473   4.701  14.801  10.260
40881SOL     OW24474  12.582  10.248   3.270
40881SOL    HW124475  12.591  10.291   3.355
40881SOL    HW224476  12.491  10.261   3.245
40882SOL     OW24477  13.397  13.687  11.706
40882SOL    HW124478  13.373  13.606  11.662
40882SOL    HW224479  13.361  13.756  11.649
40883SOL     OW24480   2.956   9.356   0.132
40883SOL    HW124481   2.884   9.406   0.094
40883SOL    HW224482   3.035   9.399   0.101
40884SOL     OW24483  13.850  14.772   6.874
40884SOL    HW124484  13.818  14.753   6.962
40884SOL    HW224485  13.891  14.858   6.882
40885SOL     OW24486   9.471   2.140   7.182
40885SOL    HW124487   9.476   2.200   7.256
40885SOL    HW224488   9.391   2.089   7.197
40886SOL     OW24489   9.974   4.487   4.867
40886SOL    HW124490   9.887   4.504   4.903
40886SOL    HW224491   9.982   4.549   4.795
40887SOL     OW24492   6.753   4.444   5.458
40887SOL    HW124493   6.722   4.357   5.432
40887SOL    HW224494   6.708   4.504   5.398
40888SOL     OW24495   5.735   9.671   2.085
40888SOL    HW124496   5.646   9.638   2.097
40888SOL    HW224497   5.767   9.690   2.173
40889SOL     OW24498   6.653   4.559   8.024
40889SOL    HW124499   6.709   4.600   7.958
40889SOL    HW224500   6.692   4.473   8.039
40890SOL     OW24501   2.695   9.077   2.149
40890SOL    HW124502   2.603   9.104   2.143
40890SOL    HW224503   2.716   9.043   2.062
40891SOL     OW24504  13.978   0.843   7.281
40891SOL    HW124505  13.895   0.882   7.305
40891SOL    HW224506  13.959   0.750   7.268
40892SOL     OW24507  14.174   8.196   7.691
40892SOL    HW124508  14.231   8.202   7.615
40892SOL    HW224509  14.146   8.286   7.707
40893SOL     OW24510  11.877  12.145  11.680
40893SOL    HW124511  11.858  12.202  11.605
40893SOL    HW224512  11.824  12.181  11.751
40894SOL     OW24513   5.129   5.560   4.294
40894SOL    HW124514   5.125   5.521   4.207
40894SOL    HW224515   5.221   5.585   4.305
40895SOL     OW24516  12.309  13.731  14.554
40895SOL    HW124517  12.392  13.774  14.532
40895SOL    HW224518  12.332  13.638  14.562
40896SOL     OW24519   5.390   7.164   4.529
40896SOL    HW124520   5.390   7.260   4.528
40896SOL    HW224521   5.298   7.140   4.530
40897SOL     OW24522   0.585   8.436   0.848
40897SOL    HW124523   0.510   8.389   0.811
40897SOL    HW224524   0.552   8.471   0.931
40898SOL     OW24525   9.351   0.862  12.016
40898SOL    HW124526   9.319   0.891  12.102
40898SOL    HW224527   9.286   0.896  11.954
40899SOL     OW24528  10.395  14.815   3.018
40899SOL    HW124529  10.429   0.021   2.975
40899SOL    HW224530  10.401  14.834   3.112
40900SOL     OW24531   6.507  14.287   3.825
40900SOL    HW124532   6.548  14.318   3.745
40900SOL    HW224533   6.513  14.192   3.821
40901SOL     OW24534   2.870   6.940   2.086
40901SOL    HW124535   2.917   6.872   2.135
40901SOL    HW224536   2.826   6.893   2.015
40902SOL     OW24537   2.328   5.944   6.066
40902SOL    HW124538   2.294   5.931   6.154
40902SOL    HW224539   2.421   5.963   6.078
40903SOL     OW24540   6.855   3.606   0.617
40903SOL    HW124541   6.896   3.664   0.681
40903SOL    HW224542   6.779   3.570   0.662
40904SOL     OW24543   3.000   3.514   0.017
40904SOL    HW124544   3.018   3.563  14.809
40904SOL    HW224545   3.045   3.431   0.005
40905SOL     OW24546  14.443   4.560   7.850
40905SOL    HW124547  14.471   4.471   7.830
40905SOL    HW224548  14.502   4.616   7.800
40906SOL     OW24549   3.423   2.947   5.364
40906SOL    HW124550   3.493   2.891   5.396
40906SOL    HW224551   3.351   2.888   5.346
40907SOL     OW24552   1.596   5.939   3.167
40907SOL    HW124553   1.544   5.918   3.245
40907SOL    HW224554   1.687   5.932   3.196
40908SOL     OW24555  10.808   7.715   1.818
40908SOL    HW124556  10.850   7.667   1.747
40908SOL    HW224557  10.721   7.675   1.825
40909SOL     OW24558   2.731   8.671   4.752
40909SOL    HW124559   2.660   8.721   4.710
40909SOL    HW224560   2.707   8.579   4.738
40910SOL     OW24561   6.365   5.063   4.376
40910SOL    HW124562   6.455   5.090   4.356
40910SOL    HW224563   6.362   4.970   4.353
40911SOL     OW24564  14.797   8.748  14.127
40911SOL    HW124565  14.770   8.687  14.058
40911SOL    HW224566   0.020   8.748  14.123
40912SOL     OW24567  11.730   3.541  14.257
40912SOL    HW124568  11.707   3.488  14.182
40912SOL    HW224569  11.822   3.564  14.243
40913SOL     OW24570  14.408   7.529   4.894
40913SOL    HW124571  14.324   7.528   4.850
40913SOL    HW224572  14.411   7.447   4.943
40914SOL     OW24573   7.913   0.956  12.627
40914SOL    HW124574   7.922   1.043  12.665
40914SOL    HW224575   7.878   0.971  12.540
40915SOL     OW24576  12.667   1.814  12.477
40915SOL    HW124577  12.658   1.865  12.557
40915SOL    HW224578  12.749   1.845  12.438
40916SOL     OW24579  13.456  10.331  12.077
40916SOL    HW124580  13.537  10.380  12.064
40916SOL    HW224581  13.477  10.269  12.147
40917SOL     OW24582   8.267  10.468   6.274
40917SOL    HW124583   8.292  10.513   6.354
40917SOL    HW224584   8.228  10.536   6.219
40918SOL     OW24585  12.300   3.356   2.908
40918SOL    HW124586  12.389   3.331   2.933
40918SOL    HW224587  12.312   3.423   2.841
40919SOL     OW24588  11.616   8.041  13.752
40919SOL    HW124589  11.692   8.023  13.697
40919SOL    HW224590  11.653   8.072  13.835
40920SOL     OW24591   0.079  12.240   2.916
40920SOL    HW124592   0.137  12.310   2.888
40920SOL    HW224593   0.036  12.209   2.836
40921SOL     OW24594   4.673   7.061   0.307
40921SOL    HW124595   4.713   7.148   0.304
40921SOL    HW224596   4.580   7.076   0.291
40922SOL     OW24597   9.928  14.564  13.256
40922SOL    HW124598   9.858  14.565  13.321
40922SOL    HW224599   9.986  14.635  13.283
40923SOL     OW24600  11.021   4.164  10.071
40923SOL    HW124601  11.015   4.243  10.017
40923SOL    HW224602  11.103   4.173  10.120
40924SOL     OW24603   8.639  10.701  10.888
40924SOL    HW124604   8.670  10.614  10.911
40924SOL    HW224605   8.558  10.686  10.840
40925SOL     OW24606  11.564   1.113  14.434
40925SOL    HW124607  11.582   1.207  14.425
40925SOL    HW224608  11.480   1.110  14.479
40926SOL     OW24609   5.419   7.728  14.518
40926SOL    HW124610   5.378   7.771  14.593
40926SOL    HW224611   5.512   7.723  14.540
40927SOL     OW24612   2.067   6.208   5.316
40927SOL    HW124613   2.077   6.218   5.411
40927SOL    HW224614   2.000   6.141   5.305
40928SOL     OW24615  12.124   5.341   7.758
40928SOL    HW124616  12.162   5.283   7.691
40928SOL    HW224617  12.076   5.406   7.707
40929SOL     OW24618   0.559   3.559   9.041
40929SOL    HW124619   0.477   3.570   8.993
40929SOL    HW224620   0.532   3.555   9.133
40930SOL     OW24621  13.860   4.062   9.834
40930SOL    HW124622  13.912   3.983   9.815
40930SOL    HW224623  13.906   4.103   9.907
40931SOL     OW24624  12.120   9.337   8.422
40931SOL    HW124625  12.134   9.371   8.510
40931SOL    HW224626  12.146   9.410   8.364
40932SOL     OW24627   0.670   8.696   9.806
40932SOL    HW124628   0.645   8.603   9.811
40932SOL    HW224629   0.607   8.741   9.861
40933SOL     OW24630  14.202   6.984   2.672
40933SOL    HW124631  14.234   7.024   2.753
40933SOL    HW224632  14.198   6.891   2.691
40934SOL     OW24633  12.077   0.897   0.641
40934SOL    HW124634  11.992   0.885   0.600
40934SOL    HW224635  12.132   0.935   0.572
40935SOL     OW24636   4.301  12.019   8.153
40935SOL    HW124637   4.259  12.000   8.236
40935SOL    HW224638   4.285  11.942   8.099
40936SOL     OW24639   0.480  12.660   9.872
40936SOL    HW124640   0.432  12.729   9.826
40936SOL    HW224641   0.478  12.686   9.964
40937SOL     OW24642  10.795   2.194   0.714
40937SOL    HW124643  10.771   2.282   0.745
40937SOL    HW224644  10.738   2.179   0.639
40938SOL     OW24645   8.015   8.696   6.645
40938SOL    HW124646   8.107   8.677   6.664
40938SOL    HW224647   7.972   8.688   6.730
40939SOL     OW24648   6.605   1.605   8.368
40939SOL    HW124649   6.636   1.515   8.377
40939SOL    HW224650   6.595   1.618   8.274
40940SOL     OW24651   0.960  11.297   8.293
40940SOL    HW124652   1.034  11.262   8.243
40940SOL    HW224653   0.967  11.253   8.378
40941SOL     OW24654   0.718   5.531  11.970
40941SOL    HW124655   0.767   5.492  11.897
40941SOL    HW224656   0.767   5.505  12.048
40942SOL     OW24657  12.846   3.954  14.268
40942SOL    HW124658  12.913   3.978  14.332
40942SOL    HW224659  12.796   4.035  14.254
40943SOL     OW24660  10.108   0.392  13.411
40943SOL    HW124661  10.195   0.382  13.450
40943SOL    HW224662  10.079   0.479  13.437
40944SOL     OW24663  11.761   5.871   1.882
40944SOL    HW124664  11.766   5.801   1.818
40944SOL    HW224665  11.768   5.952   1.831
40945SOL     OW24666  14.109   2.773  12.840
40945SOL    HW124667  14.062   2.713  12.899
40945SOL    HW224668  14.156   2.715  12.780
40946SOL     OW24669   1.854   7.235   3.768
40946SOL    HW124670   1.943   7.248   3.800
40946SOL    HW224671   1.801   7.228   3.847
40947SOL     OW24672   9.088   2.383   2.531
40947SOL    HW124673   9.080   2.299   2.486
40947SOL    HW224674   9.001   2.423   2.522
40948SOL     OW24675  12.139   9.181  12.288
40948SOL    HW124676  12.085   9.185  12.209
40948SOL    HW224677  12.198   9.255  12.282
40949SOL     OW24678   6.683   0.144   9.844
40949SOL    HW124679   6.773   0.133   9.811
40949SOL    HW224680   6.655   0.228   9.808
40950SOL     OW24681   3.607   8.920   5.380
40950SOL    HW124682   3.533   8.923   5.320
40950SOL    HW224683   3.575   8.869   5.455
40951SOL     OW24684   2.173  11.076   2.360
40951SOL    HW124685   2.091  11.126   2.362
40951SOL    HW224686   2.145  10.985   2.348
40952SOL     OW24687   7.183   2.191   0.870
40952SOL    HW124688   7.093   2.160   0.859
40952SOL    HW224689   7.231   2.153   0.796
40953SOL     OW24690   9.422  13.062   5.287
40953SOL    HW124691   9.463  13.115   5.219
40953SOL    HW224692   9.473  13.081   5.366
40954SOL     OW24693   1.962  11.638   3.444
40954SOL    HW124694   1.919  11.710   3.398
40954SOL    HW224695   2.051  11.670   3.462
40955SOL     OW24696  13.328  14.405   8.156
40955SOL    HW124697  13.400  14.422   8.095
40955SOL    HW224698  13.320  14.485   8.206
40956SOL     OW24699   0.976  10.398  11.407
40956SOL    HW124700   1.027  10.416  11.486
40956SOL    HW224701   1.039  10.361  11.346
40957SOL     OW24702  12.413   4.735   6.259
40957SOL    HW124703  12.385   4.786   6.182
40957SOL    HW224704  12.436   4.802   6.324
40958SOL     OW24705  12.043   3.824  14.494
40958SOL    HW124706  11.981   3.894  14.474
40958SOL    HW224707  12.050   3.774  14.412
40959SOL     OW24708   9.323   3.943   2.661
40959SOL    HW124709   9.267   3.869   2.684
40959SOL    HW224710   9.382   3.952   2.735
40960SOL     OW24711   7.826   9.366   4.956
40960SOL    HW124712   7.835   9.382   4.862
40960SOL    HW224713   7.785   9.279   4.962
40961SOL     OW24714   6.334   5.678   2.902
40961SOL    HW124715   6.289   5.686   2.817
40961SOL    HW224716   6.276   5.724   2.963
40962SOL     OW24717   4.474   8.761  14.759
40962SOL    HW124718   4.425   8.807  14.692
40962SOL    HW224719   4.437   8.792  14.842
40963SOL     OW24720   4.013   7.613   7.611
40963SOL    HW124721   3.966   7.583   7.689
40963SOL    HW224722   4.098   7.568   7.615
40964SOL     OW24723   8.642   2.432  13.045
40964SOL    HW124724   8.659   2.367  13.113
40964SOL    HW224725   8.595   2.502  13.091
40965SOL     OW24726   2.280   5.587   9.637
40965SOL    HW124727   2.250   5.501   9.610
40965SOL    HW224728   2.254   5.594   9.729
40966SOL     OW24729   6.008   6.252   2.515
40966SOL    HW124730   5.984   6.168   2.554
40966SOL    HW224731   5.952   6.316   2.559
40967SOL     OW24732   9.002   3.168  14.143
40967SOL    HW124733   9.046   3.090  14.111
40967SOL    HW224734   8.969   3.211  14.064
40968SOL     OW24735  11.161   4.372   0.181
40968SOL    HW124736  11.068   4.392   0.178
40968SOL    HW224737  11.174   4.331   0.267
40969SOL     OW24738   3.075  13.766   9.593
40969SOL    HW124739   3.060  13.815   9.674
40969SOL    HW224740   3.163  13.791   9.566
40970SOL     OW24741   5.868   1.072   8.661
40970SOL    HW124742   5.890   1.143   8.722
40970SOL    HW224743   5.773   1.068   8.662
40971SOL     OW24744   7.957   1.704  11.670
40971SOL    HW124745   7.942   1.798  11.679
40971SOL    HW224746   8.038   1.688  11.718
40972SOL     OW24747  13.145   7.930  13.573
40972SOL    HW124748  13.222   7.888  13.611
40972SOL    HW224749  13.169   7.945  13.481
40973SOL     OW24750   9.773   7.140  10.350
40973SOL    HW124751   9.854   7.118  10.396
40973SOL    HW224752   9.795   7.216  10.297
40974SOL     OW24753   8.926  14.737   1.577
40974SOL    HW124754   8.972  14.806   1.625
40974SOL    HW224755   8.837  14.770   1.566
40975SOL     OW24756   2.975   4.020   2.167
40975SOL    HW124757   2.945   4.034   2.257
40975SOL    HW224758   2.932   4.090   2.117
40976SOL     OW24759  11.695   5.876  10.311
40976SOL    HW124760  11.726   5.955  10.269
40976SOL    HW224761  11.768   5.848  10.367
40977SOL     OW24762  10.007   9.982   5.749
40977SOL    HW124763   9.999  10.007   5.841
40977SOL    HW224764   9.998   9.887   5.749
40978SOL     OW24765   9.922  11.532  12.133
40978SOL    HW124766   9.850  11.564  12.079
40978SOL    HW224767   9.990  11.508  12.069
40979SOL     OW24768   7.239   6.658   7.619
40979SOL    HW124769   7.236   6.681   7.712
40979SOL    HW224770   7.162   6.700   7.582
40980SOL     OW24771  13.031   4.713  11.169
40980SOL    HW124772  13.112   4.663  11.178
40980SOL    HW224773  12.986   4.673  11.095
40981SOL     OW24774   0.510  12.863  14.683
40981SOL    HW124775   0.514  12.828  14.594
40981SOL    HW224776   0.599  12.892  14.701
40982SOL     OW24777   3.051  13.393   5.338
40982SOL    HW124778   3.098  13.310   5.342
40982SOL    HW224779   3.069  13.427   5.251
40983SOL     OW24780   4.987  14.075  14.375
40983SOL    HW124781   5.069  14.090  14.328
40983SOL    HW224782   4.919  14.099  14.312
40984SOL     OW24783  13.477  12.530   4.030
40984SOL    HW124784  13.482  12.581   4.110
40984SOL    HW224785  13.422  12.455   4.052
40985SOL     OW24786  11.917   6.413   5.039
40985SOL    HW124787  11.994   6.430   5.094
40985SOL    HW224788  11.852   6.376   5.098
40986SOL     OW24789   5.882   6.609   6.158
40986SOL    HW124790   5.862   6.561   6.077
40986SOL    HW224791   5.909   6.541   6.220
40987SOL     OW24792   6.897   0.193   2.100
40987SOL    HW124793   6.827   0.200   2.165
40987SOL    HW224794   6.954   0.269   2.118
40988SOL     OW24795   7.685  14.856   4.601
40988SOL    HW124796   7.668   0.078   4.594
40988SOL    HW224797   7.615  14.822   4.656
40989SOL     OW24798   6.158  12.747   9.799
40989SOL    HW124799   6.138  12.839   9.781
40989SOL    HW224800   6.087  12.718   9.856
40990SOL     OW24801   3.195  10.053  13.451
40990SOL    HW124802   3.204  10.093  13.537
40990SOL    HW224803   3.101  10.036  13.443
40991SOL     OW24804   0.210   1.504   5.883
40991SOL    HW124805   0.303   1.504   5.906
40991SOL    HW224806   0.166   1.472   5.962
40992SOL     OW24807   9.004   7.665   1.401
40992SOL    HW124808   8.977   7.715   1.479
40992SOL    HW224809   8.925   7.662   1.347
40993SOL     OW24810  14.738   8.555   1.040
40993SOL    HW124811  14.689   8.602   1.108
40993SOL    HW224812  14.707   8.465   1.046
40994SOL     OW24813   6.677  10.591  11.778
40994SOL    HW124814   6.764  10.631  11.781
40994SOL    HW224815   6.655  10.573  11.869
40995SOL     OW24816   1.192   6.184   2.657
40995SOL    HW124817   1.281   6.167   2.687
40995SOL    HW224818   1.138   6.180   2.737
40996SOL     OW24819   6.192   8.675  10.188
40996SOL    HW124820   6.097   8.688  10.191
40996SOL    HW224821   6.216   8.688  10.096
40997SOL     OW24822  13.102   4.230  13.066
40997SOL    HW124823  13.018   4.235  13.111
40997SOL    HW224824  13.165   4.264  13.129
40998SOL     OW24825   8.544  10.263  10.300
40998SOL    HW124826   8.551  10.248  10.206
40998SOL    HW224827   8.635  10.274  10.329
40999SOL     OW24828  14.601   1.963   4.337
40999SOL    HW124829  14.570   1.873   4.344
40999SOL    HW224830  14.696   1.957   4.346
41000SOL     OW24831   6.010   1.099   0.300
41000SOL    HW124832   6.100   1.129   0.297
41000SOL    HW224833   5.983   1.110   0.391
41001SOL     OW24834   6.811   6.434  11.899
41001SOL    HW124835   6.804   6.513  11.846
41001SOL    HW224836   6.741   6.377  11.868
41002SOL     OW24837   7.644  11.960  10.932
41002SOL    HW124838   7.580  11.965  10.861
41002SOL    HW224839   7.727  11.986  10.892
41003SOL     OW24840  13.016   5.320   2.869
41003SOL    HW124841  13.000   5.413   2.879
41003SOL    HW224842  12.949   5.290   2.808
41004SOL     OW24843   2.760  12.006   1.612
41004SOL    HW124844   2.812  11.954   1.551
41004SOL    HW224845   2.817  12.019   1.688
41005SOL     OW24846   4.124   4.810   7.915
41005SOL    HW124847   4.047   4.756   7.893
41005SOL    HW224848   4.160   4.836   7.830
41006SOL     OW24849   3.030   6.136   3.727
41006SOL    HW124850   3.066   6.217   3.691
41006SOL    HW224851   3.086   6.067   3.693
41007SOL     OW24852   6.872  10.753   9.938
41007SOL    HW124853   6.833  10.673   9.903
41007SOL    HW224854   6.838  10.823   9.883
41008SOL     OW24855  11.492   1.902  10.668
41008SOL    HW124856  11.447   1.955  10.734
41008SOL    HW224857  11.460   1.936  10.584
41009SOL     OW24858  10.474  11.409   9.014
41009SOL    HW124859  10.461  11.438   8.924
41009SOL    HW224860  10.569  11.400   9.023
41010SOL     OW24861   3.202  14.418   7.213
41010SOL    HW124862   3.258  14.475   7.265
41010SOL    HW224863   3.116  14.461   7.215
41011SOL     OW24864  11.258   9.612  13.082
41011SOL    HW124865  11.230   9.652  13.164
41011SOL    HW224866  11.277   9.521  13.106
41012SOL     OW24867   0.261   3.054  13.692
41012SOL    HW124868   0.206   3.065  13.770
41012SOL    HW224869   0.326   3.123  13.699
41013SOL     OW24870   5.281   7.967  12.251
41013SOL    HW124871   5.292   7.872  12.254
41013SOL    HW224872   5.333   7.999  12.324
41014SOL     OW24873   6.153  12.539  10.703
41014SOL    HW124874   6.226  12.488  10.669
41014SOL    HW224875   6.075  12.499  10.663
41015SOL     OW24876   2.438   2.256   7.262
41015SOL    HW124877   2.519   2.254   7.210
41015SOL    HW224878   2.391   2.333   7.229
41016SOL     OW24879  13.163  10.984   3.897
41016SOL    HW124880  13.191  11.032   3.974
41016SOL    HW224881  13.167  10.892   3.923
41017SOL     OW24882   2.739   2.998  11.082
41017SOL    HW124883   2.806   3.066  11.074
41017SOL    HW224884   2.661   3.044  11.112
41018SOL     OW24885   6.409   9.746   8.659
41018SOL    HW124886   6.444   9.677   8.715
41018SOL    HW224887   6.352   9.798   8.717
41019SOL     OW24888  14.652   9.171   3.848
41019SOL    HW124889  14.609   9.094   3.884
41019SOL    HW224890  14.625   9.173   3.756
41020SOL     OW24891   2.114   6.168  12.506
41020SOL    HW124892   2.024   6.135  12.511
41020SOL    HW224893   2.169   6.092  12.524
41021SOL     OW24894   3.186   1.576   0.535
41021SOL    HW124895   3.148   1.630   0.605
41021SOL    HW224896   3.128   1.500   0.530
41022SOL     OW24897   4.232   3.247  14.502
41022SOL    HW124898   4.308   3.206  14.544
41022SOL    HW224899   4.220   3.330  14.549
41023SOL     OW24900  14.847   4.193   6.156
41023SOL    HW124901  14.824   4.276   6.197
41023SOL    HW224902  14.869   4.217   6.066
41024SOL     OW24903   5.494   8.033   4.175
41024SOL    HW124904   5.501   8.070   4.263
41024SOL    HW224905   5.407   8.059   4.145
41025SOL     OW24906   8.938   2.935  12.745
41025SOL    HW124907   8.949   2.867  12.678
41025SOL    HW224908   8.960   2.893  12.827
41026SOL     OW24909  12.632   7.431   2.729
41026SOL    HW124910  12.594   7.364   2.673
41026SOL    HW224911  12.563   7.498   2.735
41027SOL     OW24912  12.929  12.271   2.587
41027SOL    HW124913  12.978  12.350   2.609
41027SOL    HW224914  12.839  12.291   2.613
41028SOL     OW24915   2.575   8.077   2.692
41028SOL    HW124916   2.524   8.158   2.684
41028SOL    HW224917   2.636   8.080   2.618
41029SOL     OW24918   5.494  12.238  12.878
41029SOL    HW124919   5.471  12.320  12.923
41029SOL    HW224920   5.574  12.259  12.830
41030SOL     OW24921  13.502  13.789   1.252
41030SOL    HW124922  13.525  13.754   1.166
41030SOL    HW224923  13.526  13.720   1.313
41031SOL     OW24924   6.278  11.684   2.958
41031SOL    HW124925   6.219  11.710   2.887
41031SOL    HW224926   6.326  11.609   2.924
41032SOL     OW24927   0.821  14.632   8.691
41032SOL    HW124928   0.875  14.584   8.754
41032SOL    HW224929   0.773  14.695   8.744
41033SOL     OW24930   4.289   4.895  14.626
41033SOL    HW124931   4.377   4.929  14.606
41033SOL    HW224932   4.305   4.826  14.690
41034SOL     OW24933   1.564   8.802  11.138
41034SOL    HW124934   1.640   8.780  11.085
41034SOL    HW224935   1.560   8.898  11.137
41035SOL     OW24936   5.437   9.605   4.143
41035SOL    HW124937   5.495   9.648   4.206
41035SOL    HW224938   5.447   9.655   4.062
41036SOL     OW24939   7.453   6.213   6.239
41036SOL    HW124940   7.393   6.139   6.236
41036SOL    HW224941   7.520   6.191   6.174
41037SOL     OW24942  13.447   3.055   8.155
41037SOL    HW124943  13.453   2.961   8.136
41037SOL    HW224944  13.418   3.059   8.246
41038SOL     OW24945  11.320   5.034  10.667
41038SOL    HW124946  11.265   5.056  10.743
41038SOL    HW224947  11.380   4.967  10.700
41039SOL     OW24948  12.677   4.536   1.178
41039SOL    HW124949  12.597   4.537   1.231
41039SOL    HW224950  12.656   4.591   1.103
41040SOL     OW24951   2.979   8.816  12.763
41040SOL    HW124952   3.027   8.820  12.846
41040SOL    HW224953   3.003   8.896  12.717
41041SOL     OW24954  11.549  14.364   0.760
41041SOL    HW124955  11.584  14.453   0.758
41041SOL    HW224956  11.463  14.370   0.718
41042SOL     OW24957   2.728   5.769  10.703
41042SOL    HW124958   2.740   5.815  10.620
41042SOL    HW224959   2.646   5.720  10.691
41043SOL     OW24960   0.790  13.841   7.420
41043SOL    HW124961   0.881  13.841   7.392
41043SOL    HW224962   0.752  13.764   7.377
41044SOL     OW24963  14.717  12.985   2.765
41044SOL    HW124964  14.672  12.907   2.733
41044SOL    HW224965  14.680  13.057   2.714
41045SOL     OW24966   4.461   0.383  13.639
41045SOL    HW124967   4.459   0.415  13.729
41045SOL    HW224968   4.423   0.296  13.643
41046SOL     OW24969   1.536   5.374   4.114
41046SOL    HW124970   1.576   5.381   4.027
41046SOL    HW224971   1.586   5.304   4.157
41047SOL     OW24972   3.091  11.407  11.143
41047SOL    HW124973   3.052  11.450  11.067
41047SOL    HW224974   3.053  11.319  11.143
41048SOL     OW24975  13.790  13.464   3.091
41048SOL    HW124976  13.862  13.410   3.125
41048SOL    HW224977  13.786  13.443   2.998
41049SOL     OW24978   4.205   5.395   1.313
41049SOL    HW124979   4.265   5.412   1.386
41049SOL    HW224980   4.128   5.448   1.333
41050SOL     OW24981   3.374  10.498  13.035
41050SOL    HW124982   3.350  10.481  13.126
41050SOL    HW224983   3.291  10.508  12.989
41051SOL     OW24984   9.194   7.085   6.669
41051SOL    HW124985   9.240   7.142   6.730
41051SOL    HW224986   9.260   7.021   6.643
41052SOL     OW24987   9.381  12.675   6.973
41052SOL    HW124988   9.404  12.584   6.995
41052SOL    HW224989   9.296  12.689   7.014
41053SOL     OW24990  13.657   1.148  11.946
41053SOL    HW124991  13.737   1.200  11.937
41053SOL    HW224992  13.607   1.168  11.867
41054SOL     OW24993  14.128   1.120   4.498
41054SOL    HW124994  14.054   1.178   4.483
41054SOL    HW224995  14.106   1.073   4.578
41055SOL     OW24996   2.905   2.457   6.717
41055SOL    HW124997   2.857   2.380   6.747
41055SOL    HW224998   2.963   2.479   6.789
41056SOL     OW24999   8.507  14.290   8.252
41056SOL    HW125000   8.579  14.243   8.293
41056SOL    HW225001   8.448  14.311   8.325
41057SOL     OW25002   3.073  14.782  12.473
41057SOL    HW125003   3.146  14.765  12.532
41057SOL    HW225004   3.071   0.005  12.465
41058SOL     OW25005  13.310   8.897   4.427
41058SOL    HW125006  13.377   8.900   4.495
41058SOL    HW225007  13.233   8.935   4.468
41059SOL     OW25008   5.184  13.204   6.892
41059SOL    HW125009   5.242  13.132   6.866
41059SOL    HW225010   5.096  13.173   6.870
41060SOL     OW25011  10.080  14.098  14.735
41060SOL    HW125012  10.112  14.133  14.651
41060SOL    HW225013  10.122  14.013  14.743
41061SOL     OW25014   1.931   2.249   1.273
41061SOL    HW125015   1.923   2.230   1.367
41061SOL    HW225016   1.967   2.337   1.270
41062SOL     OW25017  14.251   3.577   9.928
41062SOL    HW125018  14.285   3.490   9.905
41062SOL    HW225019  14.157   3.563   9.940
41063SOL     OW25020   2.709  13.012   2.566
41063SOL    HW125021   2.760  12.952   2.622
41063SOL    HW225022   2.671  12.955   2.499
41064SOL     OW25023  10.569  12.296   7.022
41064SOL    HW125024  10.603  12.380   7.053
41064SOL    HW225025  10.522  12.260   7.097
41065SOL     OW25026   7.562   7.346  14.162
41065SOL    HW125027   7.492   7.284  14.143
41065SOL    HW225028   7.537   7.387  14.244
41066SOL     OW25029  13.196  13.603   0.371
41066SOL    HW125030  13.203  13.608   0.275
41066SOL    HW225031  13.122  13.545   0.386
41067SOL     OW25032   6.990   3.137  12.742
41067SOL    HW125033   7.011   3.134  12.649
41067SOL    HW225034   7.075   3.135  12.786
41068SOL     OW25035   1.405   4.651   8.964
41068SOL    HW125036   1.337   4.588   8.939
41068SOL    HW225037   1.485   4.619   8.922
41069SOL     OW25038   4.992   4.369  13.486
41069SOL    HW125039   4.981   4.458  13.453
41069SOL    HW225040   4.984   4.313  13.409
41070SOL     OW25041   0.545  11.603  14.637
41070SOL    HW125042   0.471  11.562  14.593
41070SOL    HW225043   0.622  11.560  14.600
41071SOL     OW25044  14.203  13.178   9.481
41071SOL    HW125045  14.138  13.229   9.432
41071SOL    HW225046  14.158  13.152   9.561
41072SOL     OW25047  14.705   7.431   5.811
41072SOL    HW125048  14.660   7.409   5.892
41072SOL    HW225049  14.768   7.360   5.799
41073SOL     OW25050   4.204  14.694   2.597
41073SOL    HW125051   4.229  14.680   2.506
41073SOL    HW225052   4.116  14.658   2.604
41074SOL     OW25053   2.467  14.284  13.199
41074SOL    HW125054   2.388  14.257  13.246
41074SOL    HW225055   2.435  14.316  13.115
41075SOL     OW25056   3.028   3.603   1.612
41075SOL    HW125057   3.060   3.565   1.694
41075SOL    HW225058   3.108   3.630   1.566
41076SOL     OW25059   0.244   3.930   1.414
41076SOL    HW125060   0.223   3.942   1.507
41076SOL    HW225061   0.162   3.898   1.375
41077SOL     OW25062   2.143  14.106   8.513
41077SOL    HW125063   2.076  14.110   8.582
41077SOL    HW225064   2.108  14.161   8.443
41078SOL     OW25065   3.804  13.863   4.906
41078SOL    HW125066   3.794  13.954   4.879
41078SOL    HW225067   3.724  13.844   4.955
41079SOL     OW25068   7.508   5.273   2.329
41079SOL    HW125069   7.479   5.347   2.382
41079SOL    HW225070   7.584   5.307   2.281
41080SOL     OW25071   3.467  12.599   3.488
41080SOL    HW125072   3.384  12.643   3.504
41080SOL    HW225073   3.466  12.577   3.395
41081SOL     OW25074   3.391  10.717   9.644
41081SOL    HW125075   3.451  10.646   9.665
41081SOL    HW225076   3.306  10.685   9.674
41082SOL     OW25077   3.615  12.213   8.358
41082SOL    HW125078   3.599  12.137   8.302
41082SOL    HW225079   3.685  12.261   8.313
41083SOL     OW25080   4.826   8.654   0.122
41083SOL    HW125081   4.823   8.722   0.054
41083SOL    HW225082   4.750   8.671   0.177
41084SOL     OW25083  11.133   8.006   8.973
41084SOL    HW125084  11.148   8.073   9.039
41084SOL    HW225085  11.146   7.923   9.019
41085SOL     OW25086   5.370  13.446  13.818
41085SOL    HW125087   5.319  13.501  13.877
41085SOL    HW225088   5.458  13.483  13.821
41086SOL     OW25089   1.346   2.483   8.137
41086SOL    HW125090   1.360   2.400   8.092
41086SOL    HW225091   1.434   2.518   8.152
41087SOL     OW25092   2.173   6.940   5.073
41087SOL    HW125093   2.227   7.019   5.077
41087SOL    HW225094   2.225   6.873   5.116
41088SOL     OW25095  14.424   9.309  11.979
41088SOL    HW125096  14.377   9.392  11.974
41088SOL    HW225097  14.452   9.291  11.890
41089SOL     OW25098   0.128   3.210  13.925
41089SOL    HW125099   0.194   3.274  13.954
41089SOL    HW225100   0.096   3.170  14.006
41090SOL     OW25101   9.247  11.587  11.662
41090SOL    HW125102   9.253  11.520  11.730
41090SOL    HW225103   9.304  11.556  11.592
41091SOL     OW25104   2.206  11.315   3.381
41091SOL    HW125105   2.254  11.274   3.309
41091SOL    HW225106   2.156  11.243   3.420
41092SOL     OW25107  14.609   0.379   5.532
41092SOL    HW125108  14.523   0.369   5.573
41092SOL    HW225109  14.658   0.302   5.558
41093SOL     OW25110   7.936   0.790   6.338
41093SOL    HW125111   7.934   0.881   6.306
41093SOL    HW225112   7.977   0.796   6.424
41094SOL     OW25113   3.112   5.886  10.704
41094SOL    HW125114   3.139   5.817  10.764
41094SOL    HW225115   3.171   5.959  10.723
41095SOL     OW25116  10.529   4.671   6.995
41095SOL    HW125117  10.614   4.654   7.035
41095SOL    HW225118  10.541   4.752   6.944
41096SOL     OW25119   5.305   1.808  11.594
41096SOL    HW125120   5.309   1.867  11.669
41096SOL    HW225121   5.391   1.767  11.591
41097SOL     OW25122   6.071   0.922   7.600
41097SOL    HW125123   6.050   0.828   7.599
41097SOL    HW225124   6.083   0.945   7.508
41098SOL     OW25125  10.228  14.591   8.716
41098SOL    HW125126  10.305  14.538   8.700
41098SOL    HW225127  10.163  14.561   8.653
41099SOL     OW25128  11.163  11.608   1.033
41099SOL    HW125129  11.124  11.527   1.000
41099SOL    HW225130  11.204  11.648   0.956
41100SOL     OW25131  13.714  10.126   8.468
41100SOL    HW125132  13.765  10.207   8.458
41100SOL    HW225133  13.669  10.136   8.552
41101SOL     OW25134   0.379   5.556   4.499
41101SOL    HW125135   0.463   5.511   4.488
41101SOL    HW225136   0.401   5.649   4.496
41102SOL     OW25137  11.412  10.739   1.740
41102SOL    HW125138  11.474  10.685   1.790
41102SOL    HW225139  11.326  10.711   1.771
41103SOL     OW25140  11.248  13.998  10.892
41103SOL    HW125141  11.182  14.053  10.852
41103SOL    HW225142  11.236  14.011  10.987
41104SOL     OW25143  11.063   3.017   8.921
41104SOL    HW125144  11.097   2.940   8.875
41104SOL    HW225145  11.129   3.036   8.988
41105SOL     OW25146  12.504   3.820  10.609
41105SOL    HW125147  12.544   3.734  10.620
41105SOL    HW225148  12.488   3.828  10.514
41106SOL     OW25149   7.251  11.467   7.843
41106SOL    HW125150   7.275  11.552   7.880
41106SOL    HW225151   7.308  11.404   7.889
41107SOL     OW25152   4.908   0.202   5.342
41107SOL    HW125153   4.873   0.284   5.310
41107SOL    HW225154   4.857   0.135   5.297
41108SOL     OW25155   2.910   4.090   9.530
41108SOL    HW125156   2.867   4.121   9.450
41108SOL    HW225157   2.979   4.032   9.499
41109SOL     OW25158  12.309   5.249   0.254
41109SOL    HW125159  12.299   5.238   0.160
41109SOL    HW225160  12.403   5.262   0.267
41110SOL     OW25161   0.565   7.012   8.600
41110SOL    HW125162   0.500   7.063   8.552
41110SOL    HW225163   0.537   7.017   8.691
41111SOL     OW25164   9.858  14.119   2.511
41111SOL    HW125165   9.935  14.063   2.522
41111SOL    HW225166   9.886  14.206   2.539
41112SOL     OW25167   8.547   4.642   2.441
41112SOL    HW125168   8.508   4.699   2.507
41112SOL    HW225169   8.556   4.697   2.364
41113SOL     OW25170   8.665  14.578   7.827
41113SOL    HW125171   8.642  14.526   7.904
41113SOL    HW225172   8.658  14.669   7.857
41114SOL     OW25173   6.481  11.580   4.990
41114SOL    HW125174   6.541  11.520   4.945
41114SOL    HW225175   6.489  11.662   4.943
41115SOL     OW25176   8.216  14.666   5.633
41115SOL    HW125177   8.297  14.693   5.590
41115SOL    HW225178   8.226  14.571   5.644
41116SOL     OW25179   1.534  14.741   6.341
41116SOL    HW125180   1.607  14.766   6.284
41116SOL    HW225181   1.570  14.746   6.429
41117SOL     OW25182   6.481  11.940  14.720
41117SOL    HW125183   6.464  12.033  14.713
41117SOL    HW225184   6.513  11.914  14.634
41118SOL     OW25185   8.463  14.306   7.649
41118SOL    HW125186   8.554  14.335   7.651
41118SOL    HW225187   8.418  14.372   7.597
41119SOL     OW25188  14.737  11.939   7.274
41119SOL    HW125189  14.771  11.849   7.279
41119SOL    HW225190  14.723  11.954   7.180
41120SOL     OW25191   6.530  10.864   4.252
41120SOL    HW125192   6.489  10.788   4.212
41120SOL    HW225193   6.540  10.842   4.344
41121SOL     OW25194   6.479   3.818   2.861
41121SOL    HW125195   6.452   3.869   2.938
41121SOL    HW225196   6.481   3.882   2.790
41122SOL     OW25197   0.192   4.360   6.481
41122SOL    HW125198   0.096   4.362   6.482
41122SOL    HW225199   0.214   4.267   6.475
41123SOL     OW25200   7.512   2.294   2.150
41123SOL    HW125201   7.606   2.300   2.165
41123SOL    HW225202   7.478   2.247   2.226
41124SOL     OW25203   6.612   1.005   3.171
41124SOL    HW125204   6.653   0.932   3.124
41124SOL    HW225205   6.519   0.998   3.148
41125SOL     OW25206   1.364  11.609   4.981
41125SOL    HW125207   1.377  11.582   5.072
41125SOL    HW225208   1.451  11.612   4.943
41126SOL     OW25209  12.428   8.453   2.829
41126SOL    HW125210  12.363   8.482   2.892
41126SOL    HW225211  12.512   8.471   2.870
41127SOL     OW25212  11.314   4.155   7.234
41127SOL    HW125213  11.398   4.144   7.190
41127SOL    HW225214  11.334   4.204   7.313
41128SOL     OW25215  10.016  13.187  10.815
41128SOL    HW125216  10.060  13.271  10.808
41128SOL    HW225217   9.949  13.189  10.747
41129SOL     OW25218   0.028  12.847   2.594
41129SOL    HW125219  14.865  12.871   2.508
41129SOL    HW225220   0.006  12.921   2.651
41130SOL     OW25221  10.888   3.492  14.442
41130SOL    HW125222  10.942   3.571  14.449
41130SOL    HW225223  10.803   3.523  14.412
41131SOL     OW25224   3.742   5.381  10.381
41131SOL    HW125225   3.830   5.352  10.356
41131SOL    HW225226   3.736   5.470  10.346
41132SOL     OW25227   7.856  14.060   6.048
41132SOL    HW125228   7.938  14.095   6.013
41132SOL    HW225229   7.877  14.035   6.138
41133SOL     OW25230   8.445  11.669   3.385
41133SOL    HW125231   8.375  11.672   3.451
41133SOL    HW225232   8.518  11.625   3.430
41134SOL     OW25233   0.749   3.494   3.579
41134SOL    HW125234   0.817   3.468   3.516
41134SOL    HW225235   0.731   3.414   3.628
41135SOL     OW25236  13.563  12.250  14.513
41135SOL    HW125237  13.651  12.268  14.545
41135SOL    HW225238  13.568  12.268  14.419
41136SOL     OW25239   7.450   6.834   2.142
41136SOL    HW125240   7.456   6.929   2.149
41136SOL    HW225241   7.378   6.810   2.201
41137SOL     OW25242  14.242   5.946   2.178
41137SOL    HW125243  14.168   5.959   2.118
41137SOL    HW225244  14.272   5.857   2.160
41138SOL     OW25245   1.420   3.868  11.647
41138SOL    HW125246   1.444   3.949  11.691
41138SOL    HW225247   1.381   3.897  11.564
41139SOL     OW25248   8.006   0.537   7.899
41139SOL    HW125249   8.063   0.479   7.949
41139SOL    HW225250   7.998   0.494   7.813
41140SOL     OW25251   6.426   2.345  14.544
41140SOL    HW125252   6.495   2.299  14.496
41140SOL    HW225253   6.351   2.347  14.484
41141SOL     OW25254   9.818  11.018   0.586
41141SOL    HW125255   9.728  11.042   0.564
41141SOL    HW225256   9.833  10.937   0.537
41142SOL     OW25257  11.456  10.908   1.520
41142SOL    HW125258  11.408  10.861   1.588
41142SOL    HW225259  11.537  10.857   1.508
41143SOL     OW25260   5.262   7.516   5.445
41143SOL    HW125261   5.290   7.606   5.427
41143SOL    HW225262   5.332   7.479   5.499
41144SOL     OW25263  13.818   6.598  11.622
41144SOL    HW125264  13.785   6.546  11.548
41144SOL    HW225265  13.786   6.686  11.604
41145SOL     OW25266  10.282   8.871   3.561
41145SOL    HW125267  10.257   8.957   3.597
41145SOL    HW225268  10.270   8.811   3.635
41146SOL     OW25269   8.284   7.557   3.127
41146SOL    HW125270   8.245   7.548   3.040
41146SOL    HW225271   8.209   7.558   3.187
41147SOL     OW25272   9.929   2.695  11.117
41147SOL    HW125273   9.918   2.605  11.087
41147SOL    HW225274   9.894   2.696  11.206
41148SOL     OW25275   7.700  13.275  13.852
41148SOL    HW125276   7.641  13.222  13.905
41148SOL    HW225277   7.760  13.314  13.915
41149SOL     OW25278   7.961   7.261   4.792
41149SOL    HW125279   8.040   7.247   4.741
41149SOL    HW225280   7.967   7.351   4.823
41150SOL     OW25281   3.268  12.475   5.489
41150SOL    HW125282   3.242  12.415   5.558
41150SOL    HW225283   3.194  12.535   5.480
41151SOL     OW25284  12.901   4.684   3.196
41151SOL    HW125285  12.989   4.713   3.218
41151SOL    HW225286  12.868   4.752   3.137
41152SOL     OW25287   2.875   1.418  12.662
41152SOL    HW125288   2.824   1.337  12.656
41152SOL    HW225289   2.965   1.389  12.673
41153SOL     OW25290  11.266   0.262   0.591
41153SOL    HW125291  11.252   0.170   0.567
41153SOL    HW225292  11.281   0.306   0.507
41154SOL     OW25293  11.277   6.355   4.947
41154SOL    HW125294  11.239   6.282   4.898
41154SOL    HW225295  11.364   6.367   4.908
41155SOL     OW25296   9.223   1.845  12.939
41155SOL    HW125297   9.164   1.779  12.902
41155SOL    HW225298   9.304   1.797  12.958
41156SOL     OW25299  14.034  11.585   9.394
41156SOL    HW125300  14.002  11.653   9.453
41156SOL    HW225301  14.103  11.540   9.444
41157SOL     OW25302  11.362   4.438   1.355
41157SOL    HW125303  11.345   4.521   1.309
41157SOL    HW225304  11.436   4.400   1.308
41158SOL     OW25305   4.432   8.880   6.640
41158SOL    HW125306   4.396   8.947   6.583
41158SOL    HW225307   4.470   8.815   6.580
41159SOL     OW25308   7.569   7.401  11.162
41159SOL    HW125309   7.635   7.418  11.095
41159SOL    HW225310   7.604   7.327  11.212
41160SOL     OW25311   3.566   3.223   5.044
41160SOL    HW125312   3.552   3.303   5.095
41160SOL    HW225313   3.478   3.190   5.027
41161SOL     OW25314   1.917   3.939   1.589
41161SOL    HW125315   2.007   3.905   1.596
41161SOL    HW225316   1.896   3.932   1.496
41162SOL     OW25317  10.059   6.556   3.633
41162SOL    HW125318  10.026   6.481   3.683
41162SOL    HW225319   9.993   6.624   3.645
41163SOL     OW25320   6.498   6.973   2.697
41163SOL    HW125321   6.547   6.922   2.762
41163SOL    HW225322   6.562   6.993   2.629
41164SOL     OW25323  13.272   3.827  14.556
41164SOL    HW125324  13.297   3.882  14.630
41164SOL    HW225325  13.355   3.799  14.517
41165SOL     OW25326  11.819   6.887   2.059
41165SOL    HW125327  11.801   6.817   1.996
41165SOL    HW225328  11.767   6.961   2.029
41166SOL     OW25329   3.212   4.532  12.306
41166SOL    HW125330   3.153   4.459  12.289
41166SOL    HW225331   3.226   4.530  12.400
41167SOL     OW25332   2.478  11.973   3.381
41167SOL    HW125333   2.419  12.047   3.366
41167SOL    HW225334   2.564  12.006   3.356
41168SOL     OW25335  11.136  13.196   9.698
41168SOL    HW125336  11.150  13.265   9.633
41168SOL    HW225337  11.041  13.194   9.709
41169SOL     OW25338   1.462  12.406   5.544
41169SOL    HW125339   1.550  12.443   5.544
41169SOL    HW225340   1.424  12.433   5.460
41170SOL     OW25341   4.141  12.070   2.208
41170SOL    HW125342   4.235  12.066   2.188
41170SOL    HW225343   4.128  12.158   2.243
41171SOL     OW25344  13.353   7.893   8.236
41171SOL    HW125345  13.316   7.971   8.277
41171SOL    HW225346  13.445   7.894   8.263
41172SOL     OW25347   1.581   0.449   2.630
41172SOL    HW125348   1.504   0.441   2.573
41172SOL    HW225349   1.554   0.509   2.699
41173SOL     OW25350   4.657   2.732  12.999
41173SOL    HW125351   4.714   2.699  13.069
41173SOL    HW225352   4.575   2.754  13.043
41174SOL     OW25353   6.665   8.363   1.295
41174SOL    HW125354   6.647   8.396   1.207
41174SOL    HW225355   6.635   8.433   1.353
41175SOL     OW25356  12.349   3.863   2.197
41175SOL    HW125357  12.282   3.914   2.152
41175SOL    HW225358  12.322   3.772   2.186
41176SOL     OW25359   0.568   2.318   5.322
41176SOL    HW125360   0.548   2.251   5.256
41176SOL    HW225361   0.560   2.401   5.275
41177SOL     OW25362   3.528   6.828   3.018
41177SOL    HW125363   3.560   6.918   3.013
41177SOL    HW225364   3.559   6.786   2.938
41178SOL     OW25365   1.732   9.548   7.994
41178SOL    HW125366   1.802   9.608   7.970
41178SOL    HW225367   1.679   9.596   8.058
41179SOL     OW25368  10.017   7.751   5.544
41179SOL    HW125369   9.940   7.806   5.536
41179SOL    HW225370  10.078   7.785   5.480
41180SOL     OW25371   1.772   2.658   1.238
41180SOL    HW125372   1.802   2.720   1.305
41180SOL    HW225373   1.723   2.592   1.288
41181SOL     OW25374  13.177  10.416   3.437
41181SOL    HW125375  13.106  10.399   3.375
41181SOL    HW225376  13.228  10.335   3.438
41182SOL     OW25377   3.867   0.886  10.799
41182SOL    HW125378   3.822   0.902  10.882
41182SOL    HW225379   3.845   0.961  10.745
41183SOL     OW25380   1.536  13.884   2.161
41183SOL    HW125381   1.602  13.897   2.230
41183SOL    HW225382   1.539  13.965   2.110
41184SOL     OW25383   5.016   5.949  10.721
41184SOL    HW125384   4.936   5.904  10.750
41184SOL    HW225385   5.072   5.879  10.688
41185SOL     OW25386  14.619   3.940  14.826
41185SOL    HW125387  14.660   3.872   0.007
41185SOL    HW225388  14.675   3.946  14.748
41186SOL     OW25389   4.761   0.545   3.214
41186SOL    HW125390   4.819   0.493   3.270
41186SOL    HW225391   4.746   0.490   3.137
41187SOL     OW25392   4.977   8.748  13.865
41187SOL    HW125393   4.909   8.772  13.803
41187SOL    HW225394   4.935   8.752  13.950
41188SOL     OW25395  10.486  12.195   5.364
41188SOL    HW125396  10.503  12.278   5.320
41188SOL    HW225397  10.401  12.205   5.406
41189SOL     OW25398  11.260   0.012   4.660
41189SOL    HW125399  11.193   0.004   4.728
41189SOL    HW225400  11.247   0.100   4.624
41190SOL     OW25401   1.969   5.393   4.735
41190SOL    HW125402   1.894   5.411   4.679
41190SOL    HW225403   2.033   5.460   4.713
41191SOL     OW25404   0.032   8.667  14.850
41191SOL    HW125405   0.102   8.678  14.785
41191SOL    HW225406   0.074   8.691   0.061
41192SOL     OW25407   0.147  13.023  11.385
41192SOL    HW125408   0.225  13.003  11.436
41192SOL    HW225409   0.180  13.051  11.300
41193SOL     OW25410   1.779   5.838   4.412
41193SOL    HW125411   1.715   5.895   4.369
41193SOL    HW225412   1.853   5.836   4.351
41194SOL     OW25413   5.310   5.023   2.877
41194SOL    HW125414   5.234   5.034   2.934
41194SOL    HW225415   5.311   5.103   2.824
41195SOL     OW25416   7.273  12.079  11.032
41195SOL    HW125417   7.180  12.085  11.054
41195SOL    HW225418   7.319  12.096  11.114
41196SOL     OW25419   4.783   1.502   6.932
41196SOL    HW125420   4.721   1.473   6.998
41196SOL    HW225421   4.750   1.587   6.904
41197SOL     OW25422   3.302   7.122   7.977
41197SOL    HW125423   3.358   7.110   7.900
41197SOL    HW225424   3.247   7.198   7.955
41198SOL     OW25425  10.105   1.819   3.544
41198SOL    HW125426  10.103   1.724   3.550
41198SOL    HW225427  10.061   1.849   3.624
41199SOL     OW25428  14.188   2.226   2.896
41199SOL    HW125429  14.144   2.305   2.864
41199SOL    HW225430  14.159   2.157   2.836
41200SOL     OW25431  10.689  13.223   3.731
41200SOL    HW125432  10.624  13.190   3.669
41200SOL    HW225433  10.650  13.208   3.817
41201SOL     OW25434  11.580  10.634   8.857
41201SOL    HW125435  11.616  10.545   8.850
41201SOL    HW225436  11.657  10.690   8.863
41202SOL     OW25437  10.568  10.965   4.956
41202SOL    HW125438  10.482  10.978   4.996
41202SOL    HW225439  10.618  10.918   5.022
41203SOL     OW25440   2.260   7.301   4.431
41203SOL    HW125441   2.299   7.216   4.455
41203SOL    HW225442   2.166   7.285   4.429
41204SOL     OW25443  12.694  13.106  10.573
41204SOL    HW125444  12.680  13.055  10.493
41204SOL    HW225445  12.789  13.101  10.588
41205SOL     OW25446   1.960   7.384  11.918
41205SOL    HW125447   1.896   7.314  11.925
41205SOL    HW225448   1.958   7.411  11.826
41206SOL     OW25449   2.832  11.668   3.777
41206SOL    HW125450   2.910  11.720   3.755
41206SOL    HW225451   2.859  11.577   3.764
41207SOL     OW25452   6.661  14.276   4.489
41207SOL    HW125453   6.662  14.226   4.570
41207SOL    HW225454   6.741  14.251   4.444
41208SOL     OW25455   0.822   3.772   7.480
41208SOL    HW125456   0.740   3.790   7.433
41208SOL    HW225457   0.871   3.854   7.475
41209SOL     OW25458   4.734  11.494   0.138
41209SOL    HW125459   4.790  11.455   0.071
41209SOL    HW225460   4.651  11.449   0.129
41210SOL     OW25461   1.618   0.518   6.902
41210SOL    HW125462   1.574   0.511   6.818
41210SOL    HW225463   1.663   0.434   6.913
41211SOL     OW25464  10.116   1.157  11.829
41211SOL    HW125465  10.074   1.100  11.765
41211SOL    HW225466  10.205   1.168  11.797
41212SOL     OW25467  12.081  11.741  13.672
41212SOL    HW125468  12.079  11.680  13.598
41212SOL    HW225469  12.121  11.821  13.637
41213SOL     OW25470   7.551   7.449   8.768
41213SOL    HW125471   7.606   7.371   8.763
41213SOL    HW225472   7.606   7.515   8.809
41214SOL     OW25473   3.827  12.519  13.784
41214SOL    HW125474   3.867  12.568  13.712
41214SOL    HW225475   3.811  12.585  13.852
41215SOL     OW25476  10.917   8.355   6.686
41215SOL    HW125477  10.833   8.309   6.687
41215SOL    HW225478  10.967   8.317   6.758
41216SOL     OW25479  12.531   9.382   7.048
41216SOL    HW125480  12.462   9.354   7.108
41216SOL    HW225481  12.602   9.413   7.105
41217SOL     OW25482   3.051   1.154   3.300
41217SOL    HW125483   2.976   1.210   3.317
41217SOL    HW225484   3.076   1.122   3.387
41218SOL     OW25485   0.478   5.102   7.348
41218SOL    HW125486   0.433   5.033   7.397
41218SOL    HW225487   0.571   5.079   7.355
41219SOL     OW25488   8.098   8.235   1.467
41219SOL    HW125489   8.041   8.191   1.530
41219SOL    HW225490   8.148   8.164   1.427
41220SOL     OW25491  14.849   8.465   4.912
41220SOL    HW125492  14.780   8.463   4.978
41220SOL    HW225493  14.809   8.425   4.835
41221SOL     OW25494   5.843  14.135   6.076
41221SOL    HW125495   5.839  14.154   6.170
41221SOL    HW225496   5.755  14.154   6.044
41222SOL     OW25497   6.868   0.132   5.877
41222SOL    HW125498   6.780   0.108   5.904
41222SOL    HW225499   6.859   0.220   5.842
41223SOL     OW25500   1.722   7.138  13.216
41223SOL    HW125501   1.814   7.157  13.196
41223SOL    HW225502   1.680   7.130  13.130
41224SOL     OW25503   3.498   3.469  14.707
41224SOL    HW125504   3.509   3.419  14.787
41224SOL    HW225505   3.541   3.553  14.724
41225SOL     OW25506   5.104   3.230   9.442
41225SOL    HW125507   5.115   3.153   9.498
41225SOL    HW225508   5.136   3.302   9.496
41226SOL     OW25509  11.965   0.806   6.280
41226SOL    HW125510  11.998   0.840   6.196
41226SOL    HW225511  11.974   0.711   6.273
41227SOL     OW25512   5.209   0.986  13.295
41227SOL    HW125513   5.248   1.053  13.240
41227SOL    HW225514   5.235   1.010  13.384
41228SOL     OW25515   0.529   1.084   1.134
41228SOL    HW125516   0.551   1.135   1.212
41228SOL    HW225517   0.486   1.146   1.076
41229SOL     OW25518   3.998  12.627  14.514
41229SOL    HW125519   3.981  12.674  14.596
41229SOL    HW225520   3.913  12.593  14.487
41230SOL     OW25521   1.501   5.218   5.180
41230SOL    HW125522   1.563   5.261   5.121
41230SOL    HW225523   1.492   5.130   5.144
41231SOL     OW25524   5.599   0.504  13.963
41231SOL    HW125525   5.615   0.595  13.935
41231SOL    HW225526   5.528   0.511  14.026
41232SOL     OW25527  11.904   3.410   6.649
41232SOL    HW125528  11.847   3.342   6.613
41232SOL    HW225529  11.847   3.459   6.708
41233SOL     OW25530   1.574   7.231  10.857
41233SOL    HW125531   1.575   7.315  10.903
41233SOL    HW225532   1.481   7.210  10.847
41234SOL     OW25533  14.151   2.561   4.105
41234SOL    HW125534  14.167   2.621   4.178
41234SOL    HW225535  14.069   2.592   4.066
41235SOL     OW25536  12.089   4.993   6.457
41235SOL    HW125537  12.086   4.954   6.545
41235SOL    HW225538  12.022   5.060   6.458
41236SOL     OW25539  14.154  12.254   0.192
41236SOL    HW125540  14.073  12.254   0.242
41236SOL    HW225541  14.136  12.198   0.117
41237SOL     OW25542   1.738   0.059   9.151
41237SOL    HW125543   1.760  14.865   9.085
41237SOL    HW225544   1.644   0.071   9.142
41238SOL     OW25545  13.295   3.736   0.461
41238SOL    HW125546  13.297   3.730   0.366
41238SOL    HW225547  13.204   3.720   0.485
41239SOL     OW25548   6.565   1.166   7.105
41239SOL    HW125549   6.589   1.240   7.049
41239SOL    HW225550   6.492   1.124   7.059
41240SOL     OW25551   7.020   0.960   4.248
41240SOL    HW125552   7.013   0.874   4.288
41240SOL    HW225553   6.944   0.966   4.190
41241SOL     OW25554   6.115   6.657   4.894
41241SOL    HW125555   6.089   6.748   4.898
41241SOL    HW225556   6.209   6.657   4.914
41242SOL     OW25557   8.987  12.590   1.138
41242SOL    HW125558   9.024  12.508   1.171
41242SOL    HW225559   8.993  12.650   1.212
41243SOL     OW25560   4.057   3.508   4.156
41243SOL    HW125561   4.021   3.461   4.231
41243SOL    HW225562   3.986   3.509   4.092
41244SOL     OW25563  14.844   3.485  10.965
41244SOL    HW125564   0.062   3.455  10.957
41244SOL    HW225565  14.833   3.505  11.058
41245SOL     OW25566  14.696   7.356   5.050
41245SOL    HW125567  14.789   7.345   5.071
41245SOL    HW225568  14.693   7.431   4.992
41246SOL     OW25569   6.000  13.592   3.291
41246SOL    HW125570   5.960  13.626   3.370
41246SOL    HW225571   5.937  13.614   3.221
41247SOL     OW25572   4.562   9.958  14.407
41247SOL    HW125573   4.601   9.870  14.407
41247SOL    HW225574   4.634  10.015  14.379
41248SOL     OW25575   8.850  10.040   0.745
41248SOL    HW125576   8.911  10.046   0.671
41248SOL    HW225577   8.771  10.083   0.714
41249SOL     OW25578   7.558   9.543   0.237
41249SOL    HW125579   7.498   9.478   0.272
41249SOL    HW225580   7.641   9.496   0.224
41250SOL     OW25581  14.703   1.746   6.350
41250SOL    HW125582  14.783   1.788   6.322
41250SOL    HW225583  14.633   1.804   6.319
41251SOL     OW25584  10.044  12.065  10.127
41251SOL    HW125585   9.976  12.007  10.163
41251SOL    HW225586  10.001  12.150  10.117
41252SOL     OW25587  10.296   2.965  10.899
41252SOL    HW125588  10.269   2.961  10.990
41252SOL    HW225589  10.215   2.954  10.849
41253SOL     OW25590   7.527   3.234  11.448
41253SOL    HW125591   7.546   3.258  11.357
41253SOL    HW225592   7.597   3.275  11.499
41254SOL     OW25593   9.109   1.542   0.992
41254SOL    HW125594   9.071   1.607   1.051
41254SOL    HW225595   9.085   1.571   0.904
41255SOL     OW25596   0.972   5.150   1.590
41255SOL    HW125597   0.990   5.209   1.663
41255SOL    HW225598   0.879   5.128   1.599
41256SOL     OW25599   6.077   0.365   2.404
41256SOL    HW125600   6.061   0.339   2.314
41256SOL    HW225601   6.172   0.364   2.413
41257SOL     OW25602  12.310   2.339  13.203
41257SOL    HW125603  12.393   2.342  13.249
41257SOL    HW225604  12.244   2.353  13.270
41258SOL     OW25605   9.889  11.888  10.281
41258SOL    HW125606   9.848  11.844  10.355
41258SOL    HW225607   9.883  11.825  10.209
41259SOL     OW25608   2.880   7.710  13.758
41259SOL    HW125609   2.954   7.756  13.797
41259SOL    HW225610   2.847   7.653  13.827
41260SOL     OW25611   7.359  10.586   4.551
41260SOL    HW125612   7.292  10.552   4.610
41260SOL    HW225613   7.367  10.519   4.483
41261SOL     OW25614   5.225   7.373   7.873
41261SOL    HW125615   5.159   7.347   7.808
41261SOL    HW225616   5.305   7.386   7.821
41262SOL     OW25617  14.126  12.385   4.827
41262SOL    HW125618  14.035  12.409   4.813
41262SOL    HW225619  14.123  12.308   4.883
41263SOL     OW25620   8.429   8.796   0.250
41263SOL    HW125621   8.491   8.825   0.183
41263SOL    HW225622   8.483   8.771   0.324
41264SOL     OW25623  14.372   2.347  14.077
41264SOL    HW125624  14.303   2.293  14.040
41264SOL    HW225625  14.328   2.427  14.106
41265SOL     OW25626   7.929  11.294   3.541
41265SOL    HW125627   7.842  11.255   3.533
41265SOL    HW225628   7.923  11.376   3.493
41266SOL     OW25629   4.037   6.978  10.134
41266SOL    HW125630   3.992   6.941  10.210
41266SOL    HW225631   4.109   6.918  10.118
41267SOL     OW25632   5.887  14.730  13.228
41267SOL    HW125633   5.908  14.738  13.135
41267SOL    HW225634   5.879  14.636  13.243
41268SOL     OW25635   7.494   8.790  12.051
41268SOL    HW125636   7.471   8.698  12.067
41268SOL    HW225637   7.469   8.805  11.960
41269SOL     OW25638  14.611   8.344   5.775
41269SOL    HW125639  14.578   8.328   5.863
41269SOL    HW225640  14.662   8.425   5.783
41270SOL     OW25641  14.317   2.120   9.221
41270SOL    HW125642  14.353   2.193   9.171
41270SOL    HW225643  14.283   2.060   9.154
41271SOL     OW25644   6.786  14.083   4.344
41271SOL    HW125645   6.714  14.038   4.386
41271SOL    HW225646   6.747  14.124   4.267
41272SOL     OW25647  12.297   3.043  13.389
41272SOL    HW125648  12.314   3.071  13.479
41272SOL    HW225649  12.371   3.079  13.339
41273SOL     OW25650   6.521  10.099   4.903
41273SOL    HW125651   6.609  10.126   4.929
41273SOL    HW225652   6.507  10.016   4.950
41274SOL     OW25653  11.216   2.479  12.730
41274SOL    HW125654  11.122   2.465  12.726
41274SOL    HW225655  11.248   2.408  12.786
41275SOL     OW25656   3.836   9.434   2.285
41275SOL    HW125657   3.764   9.462   2.340
41275SOL    HW225658   3.855   9.509   2.229
41276SOL     OW25659   7.607   8.022   8.383
41276SOL    HW125660   7.630   7.957   8.450
41276SOL    HW225661   7.561   7.972   8.316
41277SOL     OW25662  10.448   2.843   2.570
41277SOL    HW125663  10.461   2.812   2.481
41277SOL    HW225664  10.353   2.853   2.579
41278SOL     OW25665  10.834  13.202   6.136
41278SOL    HW125666  10.752  13.155   6.119
41278SOL    HW225667  10.832  13.220   6.230
41279SOL     OW25668   4.552  12.159   4.814
41279SOL    HW125669   4.583  12.247   4.793
41279SOL    HW225670   4.474  12.147   4.761
41280SOL     OW25671  14.653  10.262   6.282
41280SOL    HW125672  14.695  10.332   6.332
41280SOL    HW225673  14.659  10.185   6.339
41281SOL     OW25674   8.753  11.300   8.370
41281SOL    HW125675   8.758  11.257   8.455
41281SOL    HW225676   8.683  11.365   8.380
41282SOL     OW25677   4.499   2.003   3.239
41282SOL    HW125678   4.410   2.021   3.271
41282SOL    HW225679   4.533   1.936   3.299
41283SOL     OW25680  11.680   5.565  13.069
41283SOL    HW125681  11.644   5.513  12.997
41283SOL    HW225682  11.766   5.594  13.037
41284SOL     OW25683   4.714  12.980   4.911
41284SOL    HW125684   4.723  12.906   4.970
41284SOL    HW225685   4.673  12.944   4.833
41285SOL     OW25686   5.171   3.487   9.605
41285SOL    HW125687   5.154   3.556   9.542
41285SOL    HW225688   5.178   3.532   9.689
41286SOL     OW25689   6.372   6.847   4.694
41286SOL    HW125690   6.406   6.876   4.779
41286SOL    HW225691   6.437   6.783   4.663
41287SOL     OW25692   3.938   3.632  13.136
41287SOL    HW125693   3.853   3.647  13.178
41287SOL    HW225694   3.916   3.589  13.053
41288SOL     OW25695   7.413   2.082   4.881
41288SOL    HW125696   7.415   2.128   4.797
41288SOL    HW225697   7.483   2.121   4.933
41289SOL     OW25698   5.760   0.508   4.221
41289SOL    HW125699   5.718   0.558   4.290
41289SOL    HW225700   5.697   0.440   4.199
41290SOL     OW25701  14.820   4.656   6.470
41290SOL    HW125702  14.737   4.702   6.482
41290SOL    HW225703  14.805   4.569   6.506
41291SOL     OW25704   1.796   2.382   5.886
41291SOL    HW125705   1.836   2.334   5.813
41291SOL    HW225706   1.843   2.465   5.888
41292SOL     OW25707   2.919   4.167  10.356
41292SOL    HW125708   2.824   4.157  10.353
41292SOL    HW225709   2.936   4.249  10.311
41293SOL     OW25710   3.754  11.828  11.713
41293SOL    HW125711   3.806  11.748  11.702
41293SOL    HW225712   3.734  11.829  11.807
41294SOL     OW25713  10.558  12.818   7.263
41294SOL    HW125714  10.562  12.723   7.251
41294SOL    HW225715  10.640  12.840   7.307
41295SOL     OW25716   9.914   7.865  13.740
41295SOL    HW125717   9.886   7.809  13.667
41295SOL    HW225718  10.005   7.885  13.721
41296SOL     OW25719   2.465   3.969   6.625
41296SOL    HW125720   2.447   3.967   6.719
41296SOL    HW225721   2.494   4.059   6.609
41297SOL     OW25722  14.621   9.966   8.809
41297SOL    HW125723  14.655   9.912   8.738
41297SOL    HW225724  14.550  10.017   8.769
41298SOL     OW25725   3.936   2.519   0.566
41298SOL    HW125726   3.843   2.542   0.575
41298SOL    HW225727   3.937   2.450   0.499
41299SOL     OW25728   5.470   0.227   2.399
41299SOL    HW125729   5.530   0.159   2.427
41299SOL    HW225730   5.391   0.180   2.371
41300SOL     OW25731  12.174   8.361   1.757
41300SOL    HW125732  12.141   8.337   1.671
41300SOL    HW225733  12.189   8.455   1.752
41301SOL     OW25734   9.435  14.509  14.576
41301SOL    HW125735   9.455  14.601  14.561
41301SOL    HW225736   9.340  14.507  14.589
41302SOL     OW25737   9.923  14.375   2.629
41302SOL    HW125738   9.846  14.420   2.663
41302SOL    HW225739   9.996  14.406   2.683
41303SOL     OW25740   7.208   2.056   9.802
41303SOL    HW125741   7.195   2.004   9.722
41303SOL    HW225742   7.237   1.993   9.867
41304SOL     OW25743   2.239  10.537   3.669
41304SOL    HW125744   2.188  10.481   3.727
41304SOL    HW225745   2.197  10.622   3.674
41305SOL     OW25746  12.364   0.228   6.741
41305SOL    HW125747  12.283   0.256   6.785
41305SOL    HW225748  12.388   0.303   6.687
41306SOL     OW25749  11.404  14.603   6.249
41306SOL    HW125750  11.491  14.612   6.209
41306SOL    HW225751  11.371  14.520   6.216
41307SOL     OW25752   5.196  12.449   4.386
41307SOL    HW125753   5.190  12.362   4.425
41307SOL    HW225754   5.147  12.506   4.445
41308SOL     OW25755   8.108   1.147  13.895
41308SOL    HW125756   8.111   1.242  13.913
41308SOL    HW225757   8.161   1.136  13.816
41309SOL     OW25758  10.298  12.352  10.474
41309SOL    HW125759  10.281  12.268  10.516
41309SOL    HW225760  10.394  12.361  10.475
41310SOL     OW25761   6.977  13.321   6.768
41310SOL    HW125762   7.065  13.294   6.741
41310SOL    HW225763   6.953  13.388   6.704
41311SOL     OW25764   2.547   3.567   2.176
41311SOL    HW125765   2.604   3.643   2.175
41311SOL    HW225766   2.483   3.585   2.245
41312SOL     OW25767   1.845  11.627   5.061
41312SOL    HW125768   1.883  11.638   5.148
41312SOL    HW225769   1.903  11.565   5.017
41313SOL     OW25770  14.844  11.473  13.860
41313SOL    HW125771  14.803  11.456  13.775
41313SOL    HW225772  14.799  11.549  13.895
41314SOL     OW25773   6.319   8.828   9.469
41314SOL    HW125774   6.249   8.846   9.533
41314SOL    HW225775   6.321   8.907   9.414
41315SOL     OW25776  10.553   3.661   5.484
41315SOL    HW125777  10.461   3.635   5.487
41315SOL    HW225778  10.597   3.590   5.437
41316SOL     OW25779   4.694   8.480   8.471
41316SOL    HW125780   4.683   8.395   8.513
41316SOL    HW225781   4.716   8.460   8.380
41317SOL     OW25782  12.369  10.475   0.821
41317SOL    HW125783  12.315  10.415   0.771
41317SOL    HW225784  12.411  10.420   0.887
41318SOL     OW25785  11.747  14.537   7.146
41318SOL    HW125786  11.697  14.597   7.091
41318SOL    HW225787  11.744  14.454   7.099
41319SOL     OW25788  11.772  14.054  11.097
41319SOL    HW125789  11.816  14.020  11.020
41319SOL    HW225790  11.752  14.145  11.075
41320SOL     OW25791  12.734   5.601   6.574
41320SOL    HW125792  12.700   5.630   6.658
41320SOL    HW225793  12.759   5.510   6.588
41321SOL     OW25794   5.938  12.246   7.398
41321SOL    HW125795   5.990  12.264   7.476
41321SOL    HW225796   5.850  12.225   7.431
41322SOL     OW25797   5.007   2.392   3.581
41322SOL    HW125798   4.949   2.461   3.550
41322SOL    HW225799   4.977   2.313   3.537
41323SOL     OW25800   3.319  11.761   0.268
41323SOL    HW125801   3.381  11.694   0.241
41323SOL    HW225802   3.257  11.767   0.196
41324SOL     OW25803   2.796   4.615   3.318
41324SOL    HW125804   2.726   4.608   3.253
41324SOL    HW225805   2.864   4.665   3.274
41325SOL     OW25806   0.549   1.019   4.314
41325SOL    HW125807   0.487   1.058   4.375
41325SOL    HW225808   0.520   1.049   4.228
41326SOL     OW25809   7.928   8.777   0.643
41326SOL    HW125810   7.973   8.771   0.559
41326SOL    HW225811   7.934   8.688   0.679
41327SOL     OW25812   1.032   2.805   7.144
41327SOL    HW125813   1.088   2.880   7.163
41327SOL    HW225814   1.091   2.730   7.146
41328SOL     OW25815  13.702   0.847   5.974
41328SOL    HW125816  13.608   0.833   5.966
41328SOL    HW225817  13.722   0.914   5.909
41329SOL     OW25818   0.358   3.409  14.008
41329SOL    HW125819   0.429   3.420  14.071
41329SOL    HW225820   0.399   3.370  13.931
41330SOL     OW25821   8.460  12.567   1.469
41330SOL    HW125822   8.515  12.645   1.465
41330SOL    HW225823   8.418  12.571   1.555
41331SOL     OW25824  13.871   5.994   3.633
41331SOL    HW125825  13.906   6.039   3.710
41331SOL    HW225826  13.875   6.059   3.563
41332SOL     OW25827   7.674   6.008   9.937
41332SOL    HW125828   7.762   6.038   9.914
41332SOL    HW225829   7.619   6.086   9.930
41333SOL     OW25830   8.860   1.731   0.094
41333SOL    HW125831   8.852   1.769   0.006
41333SOL    HW225832   8.794   1.662   0.096
41334SOL     OW25833  13.092   4.784   3.966
41334SOL    HW125834  13.001   4.796   3.937
41334SOL    HW225835  13.120   4.703   3.924
41335SOL     OW25836  12.308   2.931   3.538
41335SOL    HW125837  12.253   3.006   3.557
41335SOL    HW225838  12.373   2.930   3.609
41336SOL     OW25839   8.537   7.917   1.748
41336SOL    HW125840   8.575   8.003   1.765
41336SOL    HW225841   8.478   7.931   1.673
41337SOL     OW25842   2.278   1.212   2.664
41337SOL    HW125843   2.308   1.122   2.652
41337SOL    HW225844   2.356   1.260   2.692
41338SOL     OW25845   8.242  13.799  13.466
41338SOL    HW125846   8.238  13.733  13.397
41338SOL    HW225847   8.322  13.778  13.515
41339SOL     OW25848  14.289  10.706   5.114
41339SOL    HW125849  14.312  10.725   5.205
41339SOL    HW225850  14.240  10.623   5.119
41340SOL     OW25851   4.722   3.679   6.690
41340SOL    HW125852   4.789   3.718   6.747
41340SOL    HW225853   4.645   3.734   6.702
41341SOL     OW25854  13.775   5.039   7.060
41341SOL    HW125855  13.698   5.092   7.040
41341SOL    HW225856  13.740   4.963   7.106
41342SOL     OW25857   6.580   6.576   3.564
41342SOL    HW125858   6.627   6.588   3.646
41342SOL    HW225859   6.648   6.561   3.498
41343SOL     OW25860   7.952  14.193  13.580
41343SOL    HW125861   7.950  14.252  13.505
41343SOL    HW225862   7.962  14.106  13.542
41344SOL     OW25863   2.415   0.389  11.414
41344SOL    HW125864   2.429   0.375  11.508
41344SOL    HW225865   2.476   0.327  11.373
41345SOL     OW25866   5.604   1.583   4.846
41345SOL    HW125867   5.629   1.671   4.873
41345SOL    HW225868   5.658   1.525   4.898
41346SOL     OW25869   9.402   7.103   3.306
41346SOL    HW125870   9.311   7.090   3.279
41346SOL    HW225871   9.428   7.019   3.343
41347SOL     OW25872  14.697  11.845   1.117
41347SOL    HW125873  14.701  11.932   1.078
41347SOL    HW225874  14.606  11.817   1.106
41348SOL     OW25875   8.632   3.020   7.749
41348SOL    HW125876   8.622   3.077   7.825
41348SOL    HW225877   8.547   3.026   7.704
41349SOL     OW25878   2.168   6.536   7.091
41349SOL    HW125879   2.145   6.621   7.056
41349SOL    HW225880   2.087   6.486   7.090
41350SOL     OW25881   6.861  14.363   8.752
41350SOL    HW125882   6.795  14.432   8.755
41350SOL    HW225883   6.869  14.342   8.659
41351SOL     OW25884   3.918   7.917  12.301
41351SOL    HW125885   3.844   7.904  12.360
41351SOL    HW225886   3.953   7.829  12.287
41352SOL     OW25887  12.477   4.449   1.386
41352SOL    HW125888  12.405   4.420   1.331
41352SOL    HW225889  12.435   4.484   1.464
41353SOL     OW25890  12.930   5.844   0.328
41353SOL    HW125891  12.835   5.836   0.330
41353SOL    HW225892  12.962   5.765   0.372
41354SOL     OW25893   2.154  14.576   1.970
41354SOL    HW125894   2.086  14.577   1.903
41354SOL    HW225895   2.160  14.484   1.998
41355SOL     OW25896   1.192   1.331  14.414
41355SOL    HW125897   1.097   1.340  14.404
41355SOL    HW225898   1.204   1.246  14.455
41356SOL     OW25899   5.304  11.349   0.285
41356SOL    HW125900   5.283  11.271   0.233
41356SOL    HW225901   5.229  11.406   0.273
41357SOL     OW25902  13.102   9.041   9.301
41357SOL    HW125903  13.039   9.112   9.290
41357SOL    HW225904  13.108   9.028   9.395
41358SOL     OW25905   6.739  12.502  10.214
41358SOL    HW125906   6.786  12.421  10.235
41358SOL    HW225907   6.803  12.572  10.226
41359SOL     OW25908   8.284  10.287   9.859
41359SOL    HW125909   8.323  10.368   9.825
41359SOL    HW225910   8.208  10.272   9.803
41360SOL     OW25911  13.236  14.439   3.233
41360SOL    HW125912  13.268  14.438   3.142
41360SOL    HW225913  13.140  14.440   3.224
41361SOL     OW25914   6.202   1.425   6.291
41361SOL    HW125915   6.230   1.432   6.382
41361SOL    HW225916   6.114   1.463   6.290
41362SOL     OW25917   6.404  10.618  13.307
41362SOL    HW125918   6.414  10.697  13.361
41362SOL    HW225919   6.484  10.568  13.323
41363SOL     OW25920  14.860   1.759   8.114
41363SOL    HW125921  14.823   1.817   8.181
41363SOL    HW225922   0.081   1.780   8.113
41364SOL     OW25923  13.686   4.715  14.727
41364SOL    HW125924  13.664   4.769  14.802
41364SOL    HW225925  13.771   4.676  14.749
41365SOL     OW25926  11.791   8.838  12.314
41365SOL    HW125927  11.813   8.811  12.403
41365SOL    HW225928  11.875   8.847  12.269
41366SOL     OW25929   5.173  10.487  12.282
41366SOL    HW125930   5.238  10.422  12.307
41366SOL    HW225931   5.091  10.453  12.318
41367SOL     OW25932   4.279   9.127  14.079
41367SOL    HW125933   4.311   9.167  13.999
41367SOL    HW225934   4.198   9.082  14.053
41368SOL     OW25935   4.990  11.903  11.632
41368SOL    HW125936   5.071  11.929  11.587
41368SOL    HW225937   4.925  11.894  11.562
41369SOL     OW25938   1.769  13.689   6.973
41369SOL    HW125939   1.776  13.758   7.040
41369SOL    HW225940   1.756  13.609   7.023
41370SOL     OW25941   0.544   4.423  13.064
41370SOL    HW125942   0.604   4.364  13.109
41370SOL    HW225943   0.471   4.435  13.125
41371SOL     OW25944   9.652  10.528  10.472
41371SOL    HW125945   9.664  10.438  10.504
41371SOL    HW225946   9.617  10.517  10.384
41372SOL     OW25947  12.288  12.213   6.764
41372SOL    HW125948  12.294  12.156   6.840
41372SOL    HW225949  12.379  12.235   6.743
41373SOL     OW25950   0.223   5.692  12.305
41373SOL    HW125951   0.236   5.599  12.284
41373SOL    HW225952   0.198   5.732  12.222
41374SOL     OW25953   4.875  10.961   1.189
41374SOL    HW125954   4.874  10.917   1.104
41374SOL    HW225955   4.804  10.920   1.238
41375SOL     OW25956   9.853  14.677   8.062
41375SOL    HW125957   9.824  14.685   7.971
41375SOL    HW225958   9.946  14.700   8.061
41376SOL     OW25959   1.103   6.360   0.683
41376SOL    HW125960   1.092   6.423   0.611
41376SOL    HW225961   1.017   6.358   0.726
41377SOL     OW25962  11.439  13.116   5.047
41377SOL    HW125963  11.424  13.111   5.142
41377SOL    HW225964  11.404  13.201   5.021
41378SOL     OW25965   7.040   2.361  12.514
41378SOL    HW125966   6.963   2.379  12.567
41378SOL    HW225967   7.080   2.284  12.556
41379SOL     OW25968   4.738   5.688  13.709
41379SOL    HW125969   4.739   5.648  13.796
41379SOL    HW225970   4.666   5.750  13.711
41380SOL     OW25971   1.802   3.411   1.628
41380SOL    HW125972   1.862   3.343   1.661
41380SOL    HW225973   1.795   3.393   1.534
41381SOL     OW25974   9.618   0.152  12.739
41381SOL    HW125975   9.655   0.230  12.697
41381SOL    HW225976   9.667   0.079  12.701
41382SOL     OW25977   9.849  10.454  11.448
41382SOL    HW125978   9.757  10.479  11.460
41382SOL    HW225979   9.845  10.365  11.414
41383SOL     OW25980   4.412   8.363   3.108
41383SOL    HW125981   4.454   8.330   3.187
41383SOL    HW225982   4.381   8.450   3.132
41384SOL     OW25983   3.572   7.259   0.389
41384SOL    HW125984   3.483   7.285   0.412
41384SOL    HW225985   3.583   7.289   0.298
41385SOL     OW25986  14.402  11.273  13.239
41385SOL    HW125987  14.344  11.342  13.206
41385SOL    HW225988  14.350  11.193  13.231
41386SOL     OW25989   9.822   9.317  10.110
41386SOL    HW125990   9.804   9.288  10.021
41386SOL    HW225991   9.918   9.315  10.117
41387SOL     OW25992   3.470   7.996  11.102
41387SOL    HW125993   3.505   7.910  11.124
41387SOL    HW225994   3.460   8.040  11.186
41388SOL     OW25995  10.607   3.472   5.740
41388SOL    HW125996  10.551   3.515   5.675
41388SOL    HW225997  10.691   3.519   5.733
41389SOL     OW25998   3.177  13.294   0.833
41389SOL    HW125999   3.161  13.367   0.774
41389SOL    HW226000   3.268  13.268   0.815
41390SOL     OW26001  12.637   5.915  11.882
41390SOL    HW126002  12.596   5.831  11.857
41390SOL    HW226003  12.573   5.955  11.941
41391SOL     OW26004   7.006  12.569   8.154
41391SOL    HW126005   6.927  12.516   8.138
41391SOL    HW226006   7.023  12.560   8.247
41392SOL     OW26007   6.942   2.723   7.271
41392SOL    HW126008   6.913   2.661   7.338
41392SOL    HW226009   6.990   2.790   7.320
41393SOL     OW26010  11.696  13.566  12.557
41393SOL    HW126011  11.714  13.531  12.644
41393SOL    HW226012  11.606  13.600  12.563
41394SOL     OW26013   6.557   3.414   2.000
41394SOL    HW126014   6.616   3.453   2.066
41394SOL    HW226015   6.612   3.352   1.953
41395SOL     OW26016   0.872   0.191   0.339
41395SOL    HW126017   0.819   0.148   0.406
41395SOL    HW226018   0.859   0.284   0.355
41396SOL     OW26019   9.384  13.502   1.574
41396SOL    HW126020   9.328  13.470   1.644
41396SOL    HW226021   9.345  13.465   1.494
41397SOL     OW26022   6.003   0.430   1.092
41397SOL    HW126023   6.059   0.402   1.164
41397SOL    HW226024   5.969   0.349   1.054
41398SOL     OW26025   5.495   9.551  13.120
41398SOL    HW126026   5.419   9.608  13.109
41398SOL    HW226027   5.478   9.477  13.062
41399SOL     OW26028   8.324   2.368   9.512
41399SOL    HW126029   8.244   2.315   9.519
41399SOL    HW226030   8.295   2.456   9.536
41400SOL     OW26031  12.310   6.271  12.021
41400SOL    HW126032  12.262   6.291  12.102
41400SOL    HW226033  12.397   6.246  12.051
41401SOL     OW26034  14.555   2.452  11.165
41401SOL    HW126035  14.487   2.413  11.221
41401SOL    HW226036  14.612   2.378  11.142
41402SOL     OW26037  11.452  11.623  10.238
41402SOL    HW126038  11.495  11.672  10.168
41402SOL    HW226039  11.524  11.575  10.281
41403SOL     OW26040   1.615   3.763   7.064
41403SOL    HW126041   1.597   3.774   7.157
41403SOL    HW226042   1.542   3.711   7.031
41404SOL     OW26043   5.713   4.855  12.751
41404SOL    HW126044   5.636   4.809  12.717
41404SOL    HW226045   5.726   4.927  12.689
41405SOL     OW26046  12.014   9.051  13.220
41405SOL    HW126047  12.056   9.129  13.184
41405SOL    HW226048  11.939   9.035  13.162
41406SOL     OW26049   6.585   5.841  12.541
41406SOL    HW126050   6.566   5.884  12.624
41406SOL    HW226051   6.512   5.866  12.484
41407SOL     OW26052   6.274   8.528   1.934
41407SOL    HW126053   6.314   8.593   1.877
41407SOL    HW226054   6.348   8.473   1.962
41408SOL     OW26055  13.327  10.172   7.665
41408SOL    HW126056  13.345  10.090   7.710
41408SOL    HW226057  13.332  10.239   7.733
41409SOL     OW26058   7.211   9.395   1.545
41409SOL    HW126059   7.139   9.333   1.557
41409SOL    HW226060   7.184   9.448   1.470
41410SOL     OW26061  11.270  14.653   8.071
41410SOL    HW126062  11.337  14.703   8.025
41410SOL    HW226063  11.314  14.621   8.150
41411SOL     OW26064   5.227  12.623   1.275
41411SOL    HW126065   5.254  12.539   1.313
41411SOL    HW226066   5.212  12.604   1.182
41412SOL     OW26067  13.885  11.354   9.701
41412SOL    HW126068  13.965  11.394   9.734
41412SOL    HW226069  13.906  11.332   9.610
41413SOL     OW26070  10.655   9.744  12.695
41413SOL    HW126071  10.633   9.836  12.678
41413SOL    HW226072  10.750   9.742  12.697
41414SOL     OW26073   6.089   0.178   1.730
41414SOL    HW126074   6.129   0.239   1.793
41414SOL    HW226075   6.133   0.095   1.746
41415SOL     OW26076   8.197  13.243  14.489
41415SOL    HW126077   8.247  13.171  14.526
41415SOL    HW226078   8.221  13.245  14.396
41416SOL     OW26079   8.093   1.961   2.653
41416SOL    HW126080   8.103   2.000   2.566
41416SOL    HW226081   7.999   1.948   2.663
41417SOL     OW26082  12.747   4.950   2.570
41417SOL    HW126083  12.661   4.976   2.538
41417SOL    HW226084  12.765   5.011   2.642
41418SOL     OW26085   8.953  13.348  12.616
41418SOL    HW126086   8.958  13.347  12.712
41418SOL    HW226087   8.927  13.259  12.593
41419SOL     OW26088  14.299   0.624   5.973
41419SOL    HW126089  14.363   0.554   5.987
41419SOL    HW226090  14.347   0.705   5.993
41420SOL     OW26091   5.713  11.534   5.515
41420SOL    HW126092   5.766  11.557   5.438
41420SOL    HW226093   5.746  11.591   5.584
41421SOL     OW26094  10.918   4.087   5.797
41421SOL    HW126095  10.982   4.148   5.762
41421SOL    HW226096  10.931   4.006   5.747
41422SOL     OW26097   4.830   4.118   3.262
41422SOL    HW126098   4.783   4.100   3.180
41422SOL    HW226099   4.897   4.049   3.266
41423SOL     OW26100  11.233  11.617   6.639
41423SOL    HW126101  11.182  11.612   6.720
41423SOL    HW226102  11.181  11.566   6.575
41424SOL     OW26103   4.188   8.293   8.047
41424SOL    HW126104   4.099   8.255   8.045
41424SOL    HW226105   4.175   8.382   8.078
41425SOL     OW26106   8.336   0.465   9.138
41425SOL    HW126107   8.251   0.424   9.153
41425SOL    HW226108   8.381   0.458   9.222
41426SOL     OW26109   1.752  10.283  12.523
41426SOL    HW126110   1.798  10.251  12.601
41426SOL    HW226111   1.766  10.378  12.525
41427SOL     OW26112   5.669   6.565   1.779
41427SOL    HW126113   5.577   6.568   1.804
41427SOL    HW226114   5.702   6.484   1.820
41428SOL     OW26115   0.676   5.175   4.056
41428SOL    HW126116   0.694   5.086   4.025
41428SOL    HW226117   0.645   5.222   3.978
41429SOL     OW26118  14.398  12.776   2.345
41429SOL    HW126119  14.370  12.779   2.254
41429SOL    HW226120  14.405  12.683   2.365
41430SOL     OW26121  11.184   5.605   7.321
41430SOL    HW126122  11.126   5.551   7.375
41430SOL    HW226123  11.272   5.582   7.350
41431SOL     OW26124   1.596   5.330  10.720
41431SOL    HW126125   1.503   5.352  10.713
41431SOL    HW226126   1.641   5.400  10.673
41432SOL     OW26127  14.156   6.177   6.837
41432SOL    HW126128  14.155   6.088   6.801
41432SOL    HW226129  14.128   6.233   6.765
41433SOL     OW26130   2.356   6.235   1.095
41433SOL    HW126131   2.268   6.265   1.072
41433SOL    HW226132   2.413   6.277   1.030
41434SOL     OW26133  12.584   3.273   1.733
41434SOL    HW126134  12.672   3.293   1.766
41434SOL    HW226135  12.593   3.275   1.638
41435SOL     OW26136   6.973   2.432  10.282
41435SOL    HW126137   6.982   2.417  10.377
41435SOL    HW226138   7.062   2.424  10.248
41436SOL     OW26139   0.649   1.556   3.434
41436SOL    HW126140   0.652   1.494   3.507
41436SOL    HW226141   0.644   1.642   3.476
41437SOL     OW26142   4.142   4.297  13.844
41437SOL    HW126143   4.230   4.281  13.878
41437SOL    HW226144   4.130   4.231  13.776
41438SOL     OW26145  14.412   7.983  10.545
41438SOL    HW126146  14.504   7.992  10.567
41438SOL    HW226147  14.407   7.903  10.494
41439SOL     OW26148   3.654   8.247   4.432
41439SOL    HW126149   3.740   8.289   4.424
41439SOL    HW226150   3.668   8.175   4.493
41440SOL     OW26151  13.647   0.409  12.659
41440SOL    HW126152  13.591   0.384  12.585
41440SOL    HW226153  13.653   0.330  12.713
41441SOL     OW26154  12.143   4.500   0.569
41441SOL    HW126155  12.178   4.560   0.503
41441SOL    HW226156  12.088   4.554   0.625
41442SOL     OW26157   7.362   9.053  13.127
41442SOL    HW126158   7.287   9.066  13.069
41442SOL    HW226159   7.433   9.026  13.068
41443SOL     OW26160   8.161   3.358   8.088
41443SOL    HW126161   8.165   3.286   8.025
41443SOL    HW226162   8.169   3.437   8.035
41444SOL     OW26163   8.626   3.028  11.908
41444SOL    HW126164   8.626   2.957  11.973
41444SOL    HW226165   8.661   2.987  11.828
41445SOL     OW26166   8.345  11.025   7.148
41445SOL    HW126167   8.259  11.013   7.188
41445SOL    HW226168   8.359  10.945   7.097
41446SOL     OW26169  12.154  10.772   0.714
41446SOL    HW126170  12.212  10.745   0.785
41446SOL    HW226171  12.085  10.706   0.712
41447SOL     OW26172   3.821  12.884   9.926
41447SOL    HW126173   3.804  12.899   9.833
41447SOL    HW226174   3.763  12.946   9.972
41448SOL     OW26175   1.587  12.688  11.262
41448SOL    HW126176   1.622  12.600  11.270
41448SOL    HW226177   1.564  12.713  11.351
41449SOL     OW26178   0.637   0.272   2.478
41449SOL    HW126179   0.653   0.273   2.384
41449SOL    HW226180   0.605   0.184   2.496
41450SOL     OW26181   1.865   9.547   6.828
41450SOL    HW126182   1.844   9.543   6.922
41450SOL    HW226183   1.959   9.533   6.824
41451SOL     OW26184   2.839   6.282  12.551
41451SOL    HW126185   2.928   6.301  12.583
41451SOL    HW226186   2.844   6.296  12.457
41452SOL     OW26187   4.254   0.441   3.283
41452SOL    HW126188   4.238   0.428   3.376
41452SOL    HW226189   4.204   0.520   3.262
41453SOL     OW26190   5.184  12.928   0.800
41453SOL    HW126191   5.163  12.903   0.890
41453SOL    HW226192   5.151  12.857   0.746
41454SOL     OW26193  13.013  14.768   8.878
41454SOL    HW126194  13.014  14.682   8.920
41454SOL    HW226195  12.940  14.764   8.817
41455SOL     OW26196   4.788  12.071   3.743
41455SOL    HW126197   4.876  12.051   3.775
41455SOL    HW226198   4.735  11.996   3.772
41456SOL     OW26199   8.547   4.482   9.293
41456SOL    HW126200   8.552   4.551   9.360
41456SOL    HW226201   8.586   4.521   9.215
41457SOL     OW26202   6.316   2.868   9.504
41457SOL    HW126203   6.247   2.835   9.561
41457SOL    HW226204   6.274   2.878   9.418
41458SOL     OW26205   0.561  12.378   3.300
41458SOL    HW126206   0.615  12.387   3.221
41458SOL    HW226207   0.624  12.374   3.372
41459SOL     OW26208   8.937  12.202   1.529
41459SOL    HW126209   8.920  12.223   1.438
41459SOL    HW226210   8.866  12.243   1.578
41460SOL     OW26211   1.390   5.733   4.715
41460SOL    HW126212   1.475   5.769   4.690
41460SOL    HW226213   1.401   5.708   4.807
41461SOL     OW26214  13.742  13.512  11.144
41461SOL    HW126215  13.833  13.484  11.158
41461SOL    HW226216  13.737  13.598  11.186
41462SOL     OW26217   0.056  14.854  12.439
41462SOL    HW126218   0.120  14.870  12.370
41462SOL    HW226219   0.024  14.766  12.423
41463SOL     OW26220   2.270   3.633  14.038
41463SOL    HW126221   2.268   3.720  14.078
41463SOL    HW226222   2.190   3.629  13.986
41464SOL     OW26223  14.480   7.165   6.193
41464SOL    HW126224  14.466   7.100   6.261
41464SOL    HW226225  14.431   7.242   6.221
41465SOL     OW26226  13.011   0.142   4.054
41465SOL    HW126227  12.924   0.102   4.058
41465SOL    HW226228  13.060   0.088   3.993
41466SOL     OW26229  12.139   9.230  11.190
41466SOL    HW126230  12.216   9.285  11.198
41466SOL    HW226231  12.171   9.141  11.206
41467SOL     OW26232   2.829   3.323   5.667
41467SOL    HW126233   2.883   3.253   5.631
41467SOL    HW226234   2.761   3.338   5.600
41468SOL     OW26235  14.062   4.194   6.068
41468SOL    HW126236  14.037   4.109   6.105
41468SOL    HW226237  14.044   4.257   6.138
41469SOL     OW26238  11.651   7.350   1.377
41469SOL    HW126239  11.664   7.335   1.471
41469SOL    HW226240  11.603   7.433   1.372
41470SOL     OW26241   7.425   8.236   7.825
41470SOL    HW126242   7.445   8.241   7.732
41470SOL    HW226243   7.433   8.143   7.846
41471SOL     OW26244   1.275  14.149   0.124
41471SOL    HW126245   1.245  14.239   0.114
41471SOL    HW226246   1.252  14.125   0.214
41472SOL     OW26247  12.699   9.652  10.756
41472SOL    HW126248  12.755   9.712  10.806
41472SOL    HW226249  12.671   9.587  10.820
41473SOL     OW26250  13.164   2.218   9.007
41473SOL    HW126251  13.227   2.156   9.045
41473SOL    HW226252  13.176   2.210   8.912
41474SOL     OW26253  14.637   4.599   9.489
41474SOL    HW126254  14.638   4.523   9.548
41474SOL    HW226255  14.561   4.585   9.433
41475SOL     OW26256   5.032   7.703  10.307
41475SOL    HW126257   4.985   7.651  10.241
41475SOL    HW226258   4.963   7.732  10.367
41476SOL     OW26259   4.649  10.729  11.077
41476SOL    HW126260   4.713  10.754  11.144
41476SOL    HW226261   4.701  10.709  11.000
41477SOL     OW26262   4.361   2.696  10.730
41477SOL    HW126263   4.387   2.783  10.760
41477SOL    HW226264   4.335   2.649  10.809
41478SOL     OW26265   1.665  12.577   7.573
41478SOL    HW126266   1.704  12.664   7.585
41478SOL    HW226267   1.740  12.517   7.571
41479SOL     OW26268  10.863   8.782   9.400
41479SOL    HW126269  10.844   8.871   9.370
41479SOL    HW226270  10.888   8.734   9.321
41480SOL     OW26271   7.280   2.000   1.775
41480SOL    HW126272   7.203   2.044   1.812
41480SOL    HW226273   7.332   1.974   1.851
41481SOL     OW26274   7.807   7.930  12.723
41481SOL    HW126275   7.748   7.971  12.786
41481SOL    HW226276   7.751   7.871  12.672
41482SOL     OW26277   2.383  14.223   1.796
41482SOL    HW126278   2.334  14.161   1.850
41482SOL    HW226279   2.473  14.217   1.827
41483SOL     OW26280   6.974   4.773  13.852
41483SOL    HW126281   7.015   4.752  13.936
41483SOL    HW226282   6.901   4.712  13.845
41484SOL     OW26283  14.851   1.676   5.031
41484SOL    HW126284   0.051   1.622   5.063
41484SOL    HW226285  14.816   1.629   4.955
41485SOL     OW26286   4.177  12.059   1.144
41485SOL    HW126287   4.259  12.106   1.158
41485SOL    HW226288   4.162  12.012   1.226
41486SOL     OW26289  13.192   5.123   7.688
41486SOL    HW126290  13.250   5.086   7.621
41486SOL    HW226291  13.173   5.212   7.657
41487SOL     OW26292   5.386   0.401   6.521
41487SOL    HW126293   5.391   0.340   6.595
41487SOL    HW226294   5.380   0.488   6.562
41488SOL     OW26295   8.012  11.789   2.558
41488SOL    HW126296   8.058  11.872   2.544
41488SOL    HW226297   8.062  11.725   2.507
41489SOL     OW26298   6.159   1.109  14.246
41489SOL    HW126299   6.174   1.202  14.227
41489SOL    HW226300   6.073   1.091  14.209
41490SOL     OW26301   2.005   4.160   5.877
41490SOL    HW126302   2.065   4.122   5.813
41490SOL    HW226303   2.035   4.251   5.888
41491SOL     OW26304   9.563   1.239  11.682
41491SOL    HW126305   9.541   1.239  11.589
41491SOL    HW226306   9.655   1.215  11.685
41492SOL     OW26307  12.532   3.823   6.550
41492SOL    HW126308  12.585   3.857   6.478
41492SOL    HW226309  12.442   3.823   6.516
41493SOL     OW26310   7.815   1.930   2.688
41493SOL    HW126311   7.816   1.973   2.774
41493SOL    HW226312   7.777   1.843   2.705
41494SOL     OW26313   8.175   3.808   7.220
41494SOL    HW126314   8.182   3.891   7.267
41494SOL    HW226315   8.263   3.771   7.223
41495SOL     OW26316   8.678   9.412   7.717
41495SOL    HW126317   8.588   9.386   7.696
41495SOL    HW226318   8.718   9.333   7.753
41496SOL     OW26319   0.607  12.676   9.481
41496SOL    HW126320   0.664  12.747   9.449
41496SOL    HW226321   0.607  12.687   9.576
41497SOL     OW26322  13.971  13.055   1.848
41497SOL    HW126323  13.928  13.119   1.905
41497SOL    HW226324  13.967  12.973   1.897
41498SOL     OW26325   4.810   7.600   4.956
41498SOL    HW126326   4.750   7.537   4.916
41498SOL    HW226327   4.805   7.582   5.050
41499SOL     OW26328   8.660   4.359   3.728
41499SOL    HW126329   8.593   4.376   3.662
41499SOL    HW226330   8.632   4.278   3.770
41500SOL     OW26331  14.033   9.519   1.762
41500SOL    HW126332  14.006   9.610   1.779
41500SOL    HW226333  14.093   9.498   1.834
41501SOL     OW26334   5.100  12.583  13.406
41501SOL    HW126335   5.143  12.652  13.355
41501SOL    HW226336   5.172  12.533  13.445
41502SOL     OW26337   0.229  13.460  12.140
41502SOL    HW126338   0.163  13.395  12.115
41502SOL    HW226339   0.182  13.521  12.197
41503SOL     OW26340  12.414   0.750  12.939
41503SOL    HW126341  12.349   0.683  12.961
41503SOL    HW226342  12.438   0.731  12.848
41504SOL     OW26343   4.488   8.506  10.052
41504SOL    HW126344   4.453   8.579  10.102
41504SOL    HW226345   4.479   8.533   9.960
41505SOL     OW26346   8.019  11.544  14.335
41505SOL    HW126347   8.039  11.476  14.399
41505SOL    HW226348   7.928  11.528  14.311
41506SOL     OW26349  12.300  12.748   4.872
41506SOL    HW126350  12.245  12.760   4.795
41506SOL    HW226351  12.259  12.801   4.940
41507SOL     OW26352  11.269  12.339  11.251
41507SOL    HW126353  11.327  12.387  11.191
41507SOL    HW226354  11.328  12.293  11.310
41508SOL     OW26355   6.866   7.684  12.038
41508SOL    HW126356   6.957   7.657  12.027
41508SOL    HW226357   6.822   7.607  12.076
41509SOL     OW26358  11.911   1.599  13.480
41509SOL    HW126359  11.877   1.687  13.499
41509SOL    HW226360  11.839   1.540  13.504
41510SOL     OW26361   1.603  13.824   4.216
41510SOL    HW126362   1.548  13.880   4.271
41510SOL    HW226363   1.561  13.738   4.220
41511SOL     OW26364   6.652   9.066   6.701
41511SOL    HW126365   6.669   9.158   6.680
41511SOL    HW226366   6.714   9.017   6.647
41512SOL     OW26367   3.318  13.338   9.768
41512SOL    HW126368   3.332  13.383   9.852
41512SOL    HW226369   3.255  13.269   9.788
41513SOL     OW26370   4.042  14.527  10.820
41513SOL    HW126371   4.021  14.445  10.864
41513SOL    HW226372   3.971  14.586  10.844
41514SOL     OW26373   6.226   5.160  11.442
41514SOL    HW126374   6.178   5.227  11.392
41514SOL    HW226375   6.211   5.184  11.534
41515SOL     OW26376   0.943   0.316   6.964
41515SOL    HW126377   1.002   0.383   6.929
41515SOL    HW226378   0.884   0.365   7.022
41516SOL     OW26379   2.518  13.381  12.103
41516SOL    HW126380   2.543  13.289  12.105
41516SOL    HW226381   2.496  13.398  12.012
41517SOL     OW26382  13.396   7.679   7.254
41517SOL    HW126383  13.312   7.650   7.220
41517SOL    HW226384  13.384   7.772   7.271
41518SOL     OW26385   4.738   4.224   8.705
41518SOL    HW126386   4.773   4.295   8.758
41518SOL    HW226387   4.653   4.256   8.674
41519SOL     OW26388   7.453  12.296   2.678
41519SOL    HW126389   7.473  12.342   2.759
41519SOL    HW226390   7.410  12.215   2.706
41520SOL     OW26391   1.268  12.242   7.766
41520SOL    HW126392   1.279  12.147   7.763
41520SOL    HW226393   1.328  12.275   7.699
41521SOL     OW26394  14.671   8.459   0.346
41521SOL    HW126395  14.747   8.511   0.373
41521SOL    HW226396  14.611   8.522   0.306
41522SOL     OW26397   3.204  12.431  11.250
41522SOL    HW126398   3.132  12.370  11.237
41522SOL    HW226399   3.187  12.501  11.187
41523SOL     OW26400  13.138   9.479   7.607
41523SOL    HW126401  13.107   9.410   7.549
41523SOL    HW226402  13.202   9.435   7.664
41524SOL     OW26403   0.108   5.984   4.420
41524SOL    HW126404   0.190   6.034   4.426
41524SOL    HW226405   0.093   5.975   4.326
41525SOL     OW26406  12.708   1.372  10.185
41525SOL    HW126407  12.721   1.453  10.234
41525SOL    HW226408  12.796   1.339  10.167
41526SOL     OW26409  12.277  13.368   7.614
41526SOL    HW126410  12.254  13.288   7.567
41526SOL    HW226411  12.231  13.360   7.698
41527SOL     OW26412  13.173  14.782  12.270
41527SOL    HW126413  13.109  14.800  12.338
41527SOL    HW226414  13.189  14.688  12.277
41528SOL     OW26415   3.586   3.446   6.475
41528SOL    HW126416   3.601   3.365   6.426
41528SOL    HW226417   3.527   3.497   6.420
41529SOL     OW26418   0.911  14.079   6.778
41529SOL    HW126419   0.840  14.096   6.716
41529SOL    HW226420   0.986  14.126   6.741
41530SOL     OW26421   4.697  13.564   0.657
41530SOL    HW126422   4.736  13.497   0.601
41530SOL    HW226423   4.770  13.599   0.708
41531SOL     OW26424   7.152   9.784  14.441
41531SOL    HW126425   7.213   9.720  14.404
41531SOL    HW226426   7.164   9.862  14.386
41532SOL     OW26427   7.263   7.570  13.894
41532SOL    HW126428   7.226   7.610  13.973
41532SOL    HW226429   7.287   7.645  13.839
41533SOL     OW26430   5.666   9.831  13.850
41533SOL    HW126431   5.633   9.745  13.828
41533SOL    HW226432   5.697   9.823  13.940
41534SOL     OW26433  12.438   1.834  14.178
41534SOL    HW126434  12.438   1.748  14.220
41534SOL    HW226435  12.347   1.848  14.152
41535SOL     OW26436   2.237   0.623   0.435
41535SOL    HW126437   2.187   0.695   0.397
41535SOL    HW226438   2.249   0.562   0.362
41536SOL     OW26439   3.696   3.631   5.730
41536SOL    HW126440   3.783   3.608   5.763
41536SOL    HW226441   3.691   3.588   5.644
41537SOL     OW26442   9.712  14.362   7.889
41537SOL    HW126443   9.680  14.356   7.979
41537SOL    HW226444   9.719  14.456   7.872
41538SOL     OW26445  13.850   9.644  14.125
41538SOL    HW126446  13.805   9.561  14.115
41538SOL    HW226447  13.804   9.689  14.195
41539SOL     OW26448   8.546  11.511   9.294
41539SOL    HW126449   8.495  11.433   9.313
41539SOL    HW226450   8.561  11.552   9.380
41540SOL     OW26451  10.346   0.636   0.935
41540SOL    HW126452  10.394   0.685   1.002
41540SOL    HW226453  10.379   0.546   0.942
41541SOL     OW26454   3.601   7.715  10.684
41541SOL    HW126455   3.560   7.781  10.739
41541SOL    HW226456   3.528   7.668  10.644
41542SOL     OW26457   8.922   0.871  11.630
41542SOL    HW126458   8.842   0.906  11.591
41542SOL    HW226459   8.989   0.936  11.609
41543SOL     OW26460   2.268   9.160   7.019
41543SOL    HW126461   2.211   9.114   6.958
41543SOL    HW226462   2.345   9.183   6.967
41544SOL     OW26463  14.221   3.873   3.846
41544SOL    HW126464  14.154   3.913   3.901
41544SOL    HW226465  14.302   3.881   3.897
41545SOL     OW26466   9.844  12.939   0.444
41545SOL    HW126467   9.836  13.033   0.426
41545SOL    HW226468   9.754  12.907   0.442
41546SOL     OW26469   7.370  14.419   5.714
41546SOL    HW126470   7.323  14.336   5.726
41546SOL    HW226471   7.358  14.466   5.797
41547SOL     OW26472   7.716   5.016   8.601
41547SOL    HW126473   7.679   4.953   8.539
41547SOL    HW226474   7.753   4.962   8.670
41548SOL     OW26475  10.144   3.509  10.952
41548SOL    HW126476  10.234   3.541  10.964
41548SOL    HW226477  10.136   3.435  11.012
41549SOL     OW26478   3.986   3.808  11.676
41549SOL    HW126479   3.921   3.802  11.605
41549SOL    HW226480   3.948   3.871  11.738
41550SOL     OW26481   3.793   0.253   1.271
41550SOL    HW126482   3.752   0.275   1.354
41550SOL    HW226483   3.880   0.221   1.295
41551SOL     OW26484   5.073   2.442   3.269
41551SOL    HW126485   5.001   2.471   3.325
41551SOL    HW226486   5.037   2.367   3.221
41552SOL     OW26487   5.965   4.218   9.176
41552SOL    HW126488   5.930   4.288   9.230
41552SOL    HW226489   5.887   4.172   9.143
41553SOL     OW26490   0.837   0.107   8.351
41553SOL    HW126491   0.836   0.015   8.377
41553SOL    HW226492   0.928   0.135   8.366
41554SOL     OW26493   5.330   3.321   8.923
41554SOL    HW126494   5.333   3.244   8.866
41554SOL    HW226495   5.412   3.316   8.973
41555SOL     OW26496  10.566   0.701  11.993
41555SOL    HW126497  10.594   0.624  12.043
41555SOL    HW226498  10.478   0.679  11.963
41556SOL     OW26499   2.912  10.061   4.727
41556SOL    HW126500   2.921   9.965   4.727
41556SOL    HW226501   2.864  10.081   4.807
41557SOL     OW26502   3.106  13.838  11.914
41557SOL    HW126503   3.014  13.826  11.935
41557SOL    HW226504   3.131  13.919  11.957
41558SOL     OW26505  13.869  13.524   1.798
41558SOL    HW126506  13.904  13.529   1.887
41558SOL    HW226507  13.919  13.454   1.756
41559SOL     OW26508   9.119   2.887   7.994
41559SOL    HW126509   9.120   2.981   7.975
41559SOL    HW226510   9.037   2.855   7.955
41560SOL     OW26511  13.738   2.460   3.271
41560SOL    HW126512  13.778   2.546   3.280
41560SOL    HW226513  13.812   2.399   3.276
41561SOL     OW26514  12.529   1.823   2.528
41561SOL    HW126515  12.510   1.729   2.533
41561SOL    HW226516  12.505   1.856   2.615
41562SOL     OW26517   2.834   0.688  11.704
41562SOL    HW126518   2.885   0.753  11.655
41562SOL    HW226519   2.785   0.739  11.768
41563SOL     OW26520   6.505  13.815   8.990
41563SOL    HW126521   6.434  13.791   8.930
41563SOL    HW226522   6.542  13.732   9.018
41564SOL     OW26523   7.352   2.181  10.199
41564SOL    HW126524   7.425   2.176  10.137
41564SOL    HW226525   7.362   2.104  10.254
41565SOL     OW26526  11.073   9.164   3.230
41565SOL    HW126527  11.101   9.108   3.157
41565SOL    HW226528  11.154   9.193   3.271
41566SOL     OW26529  14.493   1.260   2.245
41566SOL    HW126530  14.400   1.267   2.264
41566SOL    HW226531  14.536   1.315   2.310
41567SOL     OW26532   4.126   2.274  11.248
41567SOL    HW126533   4.189   2.209  11.216
41567SOL    HW226534   4.171   2.316  11.321
41568SOL     OW26535  11.100  10.142   0.305
41568SOL    HW126536  11.155  10.064   0.307
41568SOL    HW226537  11.155  10.209   0.263
41569SOL     OW26538   7.616  12.124  12.978
41569SOL    HW126539   7.682  12.155  12.916
41569SOL    HW226540   7.665  12.070  13.041
41570SOL     OW26541   0.434  11.039   8.767
41570SOL    HW126542   0.517  11.033   8.720
41570SOL    HW226543   0.383  10.965   8.735
41571SOL     OW26544   1.318   1.705   5.743
41571SOL    HW126545   1.234   1.661   5.750
41571SOL    HW226546   1.382   1.640   5.772
41572SOL     OW26547   5.136  12.600   6.930
41572SOL    HW126548   5.182  12.576   7.011
41572SOL    HW226549   5.086  12.522   6.907
41573SOL     OW26550   2.408  10.127   2.207
41573SOL    HW126551   2.441  10.183   2.137
41573SOL    HW226552   2.323  10.096   2.176
41574SOL     OW26553   5.689   7.091  13.637
41574SOL    HW126554   5.647   7.087  13.723
41574SOL    HW226555   5.622   7.060  13.576
41575SOL     OW26556   3.420   6.633  13.023
41575SOL    HW126557   3.382   6.546  13.011
41575SOL    HW226558   3.508   6.626  12.986
41576SOL     OW26559   7.462   3.521   5.202
41576SOL    HW126560   7.438   3.450   5.142
41576SOL    HW226561   7.523   3.481   5.264
41577SOL     OW26562   0.988  12.293   4.567
41577SOL    HW126563   1.061  12.232   4.553
41577SOL    HW226564   0.925  12.242   4.618
41578SOL     OW26565   5.868  12.181   0.945
41578SOL    HW126566   5.924  12.251   0.913
41578SOL    HW226567   5.926  12.105   0.951
41579SOL     OW26568   7.831   2.192   5.589
41579SOL    HW126569   7.806   2.283   5.601
41579SOL    HW226570   7.748   2.145   5.579
41580SOL     OW26571  12.668   1.870   5.097
41580SOL    HW126572  12.611   1.945   5.079
41580SOL    HW226573  12.655   1.812   5.022
41581SOL     OW26574   9.956   2.641  13.209
41581SOL    HW126575  10.006   2.620  13.131
41581SOL    HW226576   9.984   2.730  13.233
41582SOL     OW26577  10.145   9.133   9.929
41582SOL    HW126578  10.214   9.074   9.957
41582SOL    HW226579  10.177   9.172   9.848
41583SOL     OW26580   0.310   6.485   8.976
41583SOL    HW126581   0.373   6.530   9.033
41583SOL    HW226582   0.272   6.555   8.923
41584SOL     OW26583   3.634  12.183  10.658
41584SOL    HW126584   3.627  12.235  10.578
41584SOL    HW226585   3.726  12.157  10.662
41585SOL     OW26586   5.092  12.458   9.846
41585SOL    HW126587   5.090  12.441   9.752
41585SOL    HW226588   5.177  12.500   9.861
41586SOL     OW26589   2.190   2.772   8.220
41586SOL    HW126590   2.261   2.789   8.283
41586SOL    HW226591   2.185   2.853   8.169
41587SOL     OW26592   0.430   0.297   4.226
41587SOL    HW126593   0.416   0.369   4.287
41587SOL    HW226594   0.414   0.336   4.140
41588SOL     OW26595   5.230   5.391   5.129
41588SOL    HW126596   5.237   5.301   5.097
41588SOL    HW226597   5.248   5.385   5.222
41589SOL     OW26598   4.934  13.802  14.235
41589SOL    HW126599   4.888  13.741  14.293
41589SOL    HW226600   4.997  13.847  14.292
41590SOL     OW26601   3.919   2.881  10.598
41590SOL    HW126602   3.976   2.857  10.671
41590SOL    HW226603   3.896   2.973  10.615
41591SOL     OW26604  11.201  10.926  11.801
41591SOL    HW126605  11.287  10.967  11.797
41591SOL    HW226606  11.214  10.840  11.761
41592SOL     OW26607   3.375   7.948   9.965
41592SOL    HW126608   3.353   7.857   9.943
41592SOL    HW226609   3.423   7.980   9.889
41593SOL     OW26610  11.508  14.116   1.654
41593SOL    HW126611  11.564  14.146   1.726
41593SOL    HW226612  11.538  14.027   1.636
41594SOL     OW26613  12.201   2.664  11.777
41594SOL    HW126614  12.296   2.656  11.782
41594SOL    HW226615  12.180   2.638  11.688
41595SOL     OW26616   7.394   6.966   0.093
41595SOL    HW126617   7.326   6.998   0.153
41595SOL    HW226618   7.448   7.043   0.076
41596SOL     OW26619   2.229   8.765  13.166
41596SOL    HW126620   2.252   8.789  13.256
41596SOL    HW226621   2.312   8.739  13.126
41597SOL     OW26622   3.315   3.156   9.314
41597SOL    HW126623   3.290   3.103   9.238
41597SOL    HW226624   3.370   3.097   9.367
41598SOL     OW26625   4.937   2.205   1.721
41598SOL    HW126626   4.896   2.208   1.635
41598SOL    HW226627   5.026   2.175   1.704
41599SOL     OW26628  13.124  11.634  12.730
41599SOL    HW126629  13.086  11.710  12.686
41599SOL    HW226630  13.051  11.573  12.741
41600SOL     OW26631  11.343   3.545   9.961
41600SOL    HW126632  11.267   3.492   9.936
41600SOL    HW226633  11.390   3.559   9.879
41601SOL     OW26634   0.488   3.831  10.286
41601SOL    HW126635   0.564   3.783  10.317
41601SOL    HW226636   0.419   3.765  10.277
41602SOL     OW26637  10.332  14.869  12.814
41602SOL    HW126638  10.267  14.836  12.877
41602SOL    HW226639  10.283   0.005  12.732
41603SOL     OW26640   1.370   6.707   5.242
41603SOL    HW126641   1.281   6.698   5.276
41603SOL    HW226642   1.382   6.801   5.230
41604SOL     OW26643  11.931   1.263   0.681
41604SOL    HW126644  11.924   1.337   0.742
41604SOL    HW226645  11.930   1.186   0.738
41605SOL     OW26646   8.064   9.518   2.300
41605SOL    HW126647   8.080   9.585   2.234
41605SOL    HW226648   8.119   9.545   2.374
41606SOL     OW26649   5.012   2.920   9.108
41606SOL    HW126650   5.085   2.943   9.050
41606SOL    HW226651   4.988   3.002   9.150
41607SOL     OW26652   6.578   3.131   8.998
41607SOL    HW126653   6.588   3.179   8.916
41607SOL    HW226654   6.659   3.147   9.046
41608SOL     OW26655  10.455   3.772   3.020
41608SOL    HW126656  10.525   3.834   3.000
41608SOL    HW226657  10.395   3.779   2.946
41609SOL     OW26658  14.299   4.359   2.406
41609SOL    HW126659  14.252   4.436   2.376
41609SOL    HW226660  14.335   4.384   2.491
41610SOL     OW26661   4.521   2.489   0.173
41610SOL    HW126662   4.463   2.547   0.222
41610SOL    HW226663   4.509   2.514   0.081
41611SOL     OW26664  10.741  10.968   9.284
41611SOL    HW126665  10.664  11.012   9.250
41611SOL    HW226666  10.801  11.039   9.308
41612SOL     OW26667   6.365   4.496   7.086
41612SOL    HW126668   6.356   4.486   7.180
41612SOL    HW226669   6.453   4.529   7.073
41613SOL     OW26670  13.924  11.087   6.417
41613SOL    HW126671  13.909  11.027   6.490
41613SOL    HW226672  13.875  11.166   6.440
41614SOL     OW26673   4.815   8.107   4.522
41614SOL    HW126674   4.753   8.159   4.471
41614SOL    HW226675   4.810   8.020   4.483
41615SOL     OW26676   0.502  11.476   4.942
41615SOL    HW126677   0.596  11.478   4.962
41615SOL    HW226678   0.482  11.383   4.929
41616SOL     OW26679   6.647   8.734  13.954
41616SOL    HW126680   6.559   8.755  13.986
41616SOL    HW226681   6.682   8.817  13.924
41617SOL     OW26682   2.634  12.037  14.787
41617SOL    HW126683   2.593  12.002  14.708
41617SOL    HW226684   2.688  12.109  14.756
41618SOL     OW26685   8.210   0.351  10.186
41618SOL    HW126686   8.118   0.329  10.200
41618SOL    HW226687   8.214   0.446  10.193
41619SOL     OW26688  13.115   0.362  11.836
41619SOL    HW126689  13.046   0.427  11.824
41619SOL    HW226690  13.163   0.392  11.913
41620SOL     OW26691  13.401   0.859   5.966
41620SOL    HW126692  13.391   0.945   5.926
41620SOL    HW226693  13.344   0.802   5.913
41621SOL     OW26694   3.818   2.242   7.245
41621SOL    HW126695   3.815   2.192   7.163
41621SOL    HW226696   3.799   2.178   7.313
41622SOL     OW26697   8.961  14.020  10.317
41622SOL    HW126698   8.980  14.110  10.343
41622SOL    HW226699   8.904  14.029  10.240
41623SOL     OW26700  10.203   5.035  12.775
41623SOL    HW126701  10.162   5.100  12.832
41623SOL    HW226702  10.274   5.082  12.731
41624SOL     OW26703   4.515   7.629   4.359
41624SOL    HW126704   4.518   7.606   4.266
41624SOL    HW226705   4.429   7.670   4.371
41625SOL     OW26706   6.009  11.736   9.105
41625SOL    HW126707   5.981  11.824   9.077
41625SOL    HW226708   5.956  11.677   9.051
41626SOL     OW26709  11.385   7.902  14.295
41626SOL    HW126710  11.412   7.811  14.288
41626SOL    HW226711  11.412   7.942  14.212
41627SOL     OW26712   0.396   3.849   0.748
41627SOL    HW126713   0.454   3.777   0.723
41627SOL    HW226714   0.429   3.924   0.700
41628SOL     OW26715   1.775   5.638  10.103
41628SOL    HW126716   1.758   5.614  10.195
41628SOL    HW226717   1.862   5.603  10.086
41629SOL     OW26718   2.105   1.570   9.724
41629SOL    HW126719   2.089   1.545   9.633
41629SOL    HW226720   2.027   1.619   9.750
41630SOL     OW26721   0.957   6.640   9.945
41630SOL    HW126722   1.015   6.677   9.878
41630SOL    HW226723   0.877   6.617   9.897
41631SOL     OW26724   0.689   0.582  10.985
41631SOL    HW126725   0.616   0.641  11.008
41631SOL    HW226726   0.711   0.605  10.895
41632SOL     OW26727  11.349   3.196   8.645
41632SOL    HW126728  11.255   3.181   8.654
41632SOL    HW226729  11.386   3.162   8.727
41633SOL     OW26730   8.011  13.827   5.594
41633SOL    HW126731   7.959  13.856   5.519
41633SOL    HW226732   8.003  13.898   5.658
41634SOL     OW26733   4.850   2.074   8.852
41634SOL    HW126734   4.925   2.072   8.911
41634SOL    HW226735   4.863   1.999   8.794
41635SOL     OW26736  12.593  13.844   1.900
41635SOL    HW126737  12.528  13.911   1.876
41635SOL    HW226738  12.632  13.877   1.981
41636SOL     OW26739   8.243   4.783  11.130
41636SOL    HW126740   8.218   4.875  11.122
41636SOL    HW226741   8.325   4.776  11.081
41637SOL     OW26742   1.489   3.184   0.346
41637SOL    HW126743   1.531   3.209   0.264
41637SOL    HW226744   1.539   3.108   0.376
41638SOL     OW26745   1.680   3.332   8.594
41638SOL    HW126746   1.677   3.335   8.689
41638SOL    HW226747   1.680   3.238   8.573
41639SOL     OW26748  13.762  11.120   8.187
41639SOL    HW126749  13.707  11.191   8.156
41639SOL    HW226750  13.734  11.044   8.135
41640SOL     OW26751   6.954   8.602   1.728
41640SOL    HW126752   6.930   8.522   1.774
41640SOL    HW226753   6.909   8.672   1.776
41641SOL     OW26754  10.229   0.934  12.300
41641SOL    HW126755  10.240   0.846  12.336
41641SOL    HW226756  10.175   0.980  12.365
41642SOL     OW26757  11.535   0.418   4.269
41642SOL    HW126758  11.591   0.361   4.321
41642SOL    HW226759  11.508   0.487   4.329
41643SOL     OW26760   4.454   1.866   5.499
41643SOL    HW126761   4.498   1.907   5.573
41643SOL    HW226762   4.436   1.776   5.528
41644SOL     OW26763   7.568  12.864   7.884
41644SOL    HW126764   7.571  12.768   7.884
41644SOL    HW226765   7.477  12.886   7.903
41645SOL     OW26766   6.333  10.355  11.249
41645SOL    HW126767   6.345  10.292  11.177
41645SOL    HW226768   6.308  10.436  11.205
41646SOL     OW26769  12.358  13.787   0.365
41646SOL    HW126770  12.288  13.774   0.301
41646SOL    HW226771  12.384  13.698   0.390
41647SOL     OW26772   3.558  14.747   0.697
41647SOL    HW126773   3.499  14.682   0.735
41647SOL    HW226774   3.518  14.770   0.613
41648SOL     OW26775  11.119   6.077   6.070
41648SOL    HW126776  11.080   6.136   6.005
41648SOL    HW226777  11.161   6.009   6.017
41649SOL     OW26778   3.380  12.730  14.275
41649SOL    HW126779   3.375  12.678  14.356
41649SOL    HW226780   3.412  12.815  14.304
41650SOL     OW26781   4.533  14.151   6.112
41650SOL    HW126782   4.531  14.230   6.166
41650SOL    HW226783   4.472  14.091   6.155
41651SOL     OW26784   6.737   1.288  11.250
41651SOL    HW126785   6.763   1.260  11.162
41651SOL    HW226786   6.729   1.206  11.299
41652SOL     OW26787  10.478  11.075   1.914
41652SOL    HW126788  10.484  11.099   1.822
41652SOL    HW226789  10.566  11.092   1.949
41653SOL     OW26790  12.116  14.644   9.775
41653SOL    HW126791  12.077  14.586   9.841
41653SOL    HW226792  12.195  14.599   9.747
41654SOL     OW26793  10.377  13.050   6.948
41654SOL    HW126794  10.326  13.130   6.938
41654SOL    HW226795  10.378  13.033   7.042
41655SOL     OW26796  12.097   6.711   0.063
41655SOL    HW126797  12.127   6.740  14.849
41655SOL    HW226798  12.118   6.784   0.121
41656SOL     OW26799   2.467   7.080   4.736
41656SOL    HW126800   2.428   7.043   4.657
41656SOL    HW226801   2.537   7.137   4.704
41657SOL     OW26802   7.035   0.481   6.883
41657SOL    HW126803   7.096   0.419   6.844
41657SOL    HW226804   7.013   0.541   6.812
41658SOL     OW26805  13.405   8.206  12.587
41658SOL    HW126806  13.313   8.219  12.567
41658SOL    HW226807  13.433   8.136  12.527
41659SOL     OW26808   5.595   8.400  13.610
41659SOL    HW126809   5.647   8.344  13.667
41659SOL    HW226810   5.536   8.447  13.669
41660SOL     OW26811   4.588  10.966   9.368
41660SOL    HW126812   4.535  11.004   9.438
41660SOL    HW226813   4.542  10.885   9.346
41661SOL     OW26814  14.542   8.724   1.244
41661SOL    HW126815  14.583   8.797   1.197
41661SOL    HW226816  14.577   8.731   1.333
41662SOL     OW26817  11.280   4.500   5.671
41662SOL    HW126818  11.260   4.460   5.586
41662SOL    HW226819  11.372   4.524   5.665
41663SOL     OW26820  10.675   1.006   9.830
41663SOL    HW126821  10.686   1.020   9.736
41663SOL    HW226822  10.596   1.055   9.852
41664SOL     OW26823   8.755   2.003  10.235
41664SOL    HW126824   8.799   2.085  10.213
41664SOL    HW226825   8.663   2.027  10.244
41665SOL     OW26826   4.231   0.502   4.820
41665SOL    HW126827   4.295   0.441   4.781
41665SOL    HW226828   4.200   0.554   4.746
41666SOL     OW26829   6.828   7.308   9.038
41666SOL    HW126830   6.863   7.221   9.016
41666SOL    HW226831   6.885   7.369   8.992
41667SOL     OW26832   6.339   9.064   3.608
41667SOL    HW126833   6.312   9.046   3.698
41667SOL    HW226834   6.406   8.997   3.589
41668SOL     OW26835   6.548   3.204  14.057
41668SOL    HW126836   6.633   3.199  14.100
41668SOL    HW226837   6.493   3.253  14.117
41669SOL     OW26838   2.579  12.637  14.501
41669SOL    HW126839   2.650  12.689  14.463
41669SOL    HW226840   2.558  12.682  14.583
41670SOL     OW26841   0.660   2.155   8.655
41670SOL    HW126842   0.632   2.209   8.728
41670SOL    HW226843   0.629   2.202   8.577
41671SOL     OW26844   1.962   1.262   5.070
41671SOL    HW126845   2.047   1.222   5.091
41671SOL    HW226846   1.897   1.200   5.103
41672SOL     OW26847  10.563   5.744   7.847
41672SOL    HW126848  10.580   5.682   7.917
41672SOL    HW226849  10.641   5.799   7.843
41673SOL     OW26850   0.852  13.401   7.111
41673SOL    HW126851   0.932  13.452   7.099
41673SOL    HW226852   0.843  13.393   7.206
41674SOL     OW26853   5.504   2.901   4.196
41674SOL    HW126854   5.579   2.842   4.202
41674SOL    HW226855   5.473   2.891   4.106
41675SOL     OW26856   5.047   3.013   8.426
41675SOL    HW126857   4.974   3.005   8.488
41675SOL    HW226858   5.008   3.052   8.348
41676SOL     OW26859   3.859   2.871   7.369
41676SOL    HW126860   3.774   2.838   7.342
41676SOL    HW226861   3.845   2.965   7.381
41677SOL     OW26862   1.621   5.385   1.160
41677SOL    HW126863   1.588   5.367   1.072
41677SOL    HW226864   1.711   5.352   1.160
41678SOL     OW26865   8.110  10.626   7.230
41678SOL    HW126866   8.084  10.698   7.174
41678SOL    HW226867   8.131  10.666   7.314
41679SOL     OW26868   9.585   4.379   7.057
41679SOL    HW126869   9.595   4.398   7.150
41679SOL    HW226870   9.672   4.351   7.028
41680SOL     OW26871   5.021   1.329   6.810
41680SOL    HW126872   4.983   1.362   6.728
41680SOL    HW226873   4.948   1.333   6.872
41681SOL     OW26874   5.166   4.818  12.912
41681SOL    HW126875   5.257   4.847  12.911
41681SOL    HW226876   5.122   4.880  12.969
41682SOL     OW26877   6.917   2.522  11.568
41682SOL    HW126878   6.935   2.434  11.537
41682SOL    HW226879   6.881   2.568  11.492
41683SOL     OW26880   9.477   0.314   0.725
41683SOL    HW126881   9.407   0.249   0.730
41683SOL    HW226882   9.442   0.390   0.772
41684SOL     OW26883   5.531   8.694   7.812
41684SOL    HW126884   5.514   8.629   7.744
41684SOL    HW226885   5.594   8.754   7.773
41685SOL     OW26886   7.301   2.743   1.576
41685SOL    HW126887   7.282   2.657   1.613
41685SOL    HW226888   7.390   2.736   1.544
41686SOL     OW26889   0.358   8.876   7.742
41686SOL    HW126890   0.396   8.790   7.725
41686SOL    HW226891   0.284   8.881   7.681
41687SOL     OW26892   1.821  11.283  14.474
41687SOL    HW126893   1.796  11.292  14.383
41687SOL    HW226894   1.815  11.189  14.492
41688SOL     OW26895  14.094  10.171   0.457
41688SOL    HW126896  14.042  10.136   0.530
41688SOL    HW226897  14.031  10.220   0.405
41689SOL     OW26898   0.313   5.883  13.026
41689SOL    HW126899   0.341   5.914  13.112
41689SOL    HW226900   0.252   5.811  13.045
41690SOL     OW26901   0.659  12.135  14.145
41690SOL    HW126902   0.730  12.097  14.198
41690SOL    HW226903   0.598  12.062  14.132
41691SOL     OW26904  10.285   6.444   5.606
41691SOL    HW126905  10.372   6.483   5.598
41691SOL    HW226906  10.284   6.405   5.693
41692SOL     OW26907   1.515   3.475  12.754
41692SOL    HW126908   1.454   3.450  12.824
41692SOL    HW226909   1.602   3.466  12.794
41693SOL     OW26910  10.080   1.519   4.457
41693SOL    HW126911  10.015   1.472   4.510
41693SOL    HW226912  10.066   1.486   4.368
41694SOL     OW26913   0.905   8.029  13.327
41694SOL    HW126914   0.869   7.942  13.340
41694SOL    HW226915   0.835   8.079  13.286
41695SOL     OW26916   4.953   7.383   3.447
41695SOL    HW126917   5.010   7.377   3.523
41695SOL    HW226918   4.963   7.474   3.417
41696SOL     OW26919   7.625   4.484  10.996
41696SOL    HW126920   7.540   4.446  11.016
41696SOL    HW226921   7.609   4.578  10.990
41697SOL     OW26922  14.708   7.406   8.265
41697SOL    HW126923  14.624   7.453   8.262
41697SOL    HW226924  14.709   7.365   8.352
41698SOL     OW26925  10.504  12.142  14.696
41698SOL    HW126926  10.531  12.232  14.678
41698SOL    HW226927  10.453  12.148  14.776
41699SOL     OW26928   9.350   4.779   8.119
41699SOL    HW126929   9.318   4.785   8.209
41699SOL    HW226930   9.440   4.813   8.124
41700SOL     OW26931   1.959  11.335   6.477
41700SOL    HW126932   1.928  11.314   6.565
41700SOL    HW226933   1.960  11.251   6.432
41701SOL     OW26934   9.674  13.930   2.675
41701SOL    HW126935   9.724  13.941   2.755
41701SOL    HW226936   9.737  13.946   2.605
41702SOL     OW26937   2.113   5.917   9.872
41702SOL    HW126938   2.182   5.851   9.874
41702SOL    HW226939   2.033   5.868   9.851
41703SOL     OW26940   4.706   9.868   5.385
41703SOL    HW126941   4.636   9.804   5.399
41703SOL    HW226942   4.784   9.815   5.367
41704SOL     OW26943  12.917   9.800  10.841
41704SOL    HW126944  12.943   9.859  10.771
41704SOL    HW226945  12.952   9.841  10.921
41705SOL     OW26946   5.693   2.572   3.296
41705SOL    HW126947   5.689   2.584   3.391
41705SOL    HW226948   5.772   2.618   3.269
41706SOL     OW26949   5.297   4.190   5.699
41706SOL    HW126950   5.233   4.224   5.637
41706SOL    HW226951   5.376   4.242   5.683
41707SOL     OW26952  13.280   6.637   4.060
41707SOL    HW126953  13.338   6.679   4.123
41707SOL    HW226954  13.198   6.685   4.067
41708SOL     OW26955  12.625   7.760   4.341
41708SOL    HW126956  12.600   7.770   4.433
41708SOL    HW226957  12.721   7.754   4.343
41709SOL     OW26958   8.493  10.489   2.847
41709SOL    HW126959   8.469  10.520   2.760
41709SOL    HW226960   8.537  10.564   2.888
41710SOL     OW26961   5.850  10.286  11.301
41710SOL    HW126962   5.875  10.374  11.274
41710SOL    HW226963   5.826  10.242  11.219
41711SOL     OW26964   6.509   3.859  10.371
41711SOL    HW126965   6.550   3.943  10.393
41711SOL    HW226966   6.554   3.796  10.428
41712SOL     OW26967   8.318   7.636  10.630
41712SOL    HW126968   8.288   7.561  10.577
41712SOL    HW226969   8.249   7.701  10.621
41713SOL     OW26970   5.576  13.492   2.794
41713SOL    HW126971   5.628  13.545   2.854
41713SOL    HW226972   5.526  13.556   2.743
41714SOL     OW26973   0.073   6.000   4.148
41714SOL    HW126974   0.085   5.905   4.146
41714SOL    HW226975   0.073   6.026   4.055
41715SOL     OW26976   1.555  13.669  11.113
41715SOL    HW126977   1.640  13.698  11.080
41715SOL    HW226978   1.552  13.701  11.204
41716SOL     OW26979   5.376  10.781   0.221
41716SOL    HW126980   5.364  10.718   0.292
41716SOL    HW226981   5.401  10.729   0.145
41717SOL     OW26982   6.646   4.029   4.045
41717SOL    HW126983   6.579   3.982   4.095
41717SOL    HW226984   6.651   3.982   3.961
41718SOL     OW26985   1.185   5.736   7.417
41718SOL    HW126986   1.226   5.651   7.435
41718SOL    HW226987   1.094   5.724   7.440
41719SOL     OW26988   2.422  13.724  10.448
41719SOL    HW126989   2.331  13.744  10.469
41719SOL    HW226990   2.420  13.635  10.413
41720SOL     OW26991  11.392   6.631  10.599
41720SOL    HW126992  11.353   6.552  10.636
41720SOL    HW226993  11.335   6.652  10.524
41721SOL     OW26994   3.479  13.891  12.719
41721SOL    HW126995   3.530  13.913  12.796
41721SOL    HW226996   3.393  13.867  12.753
41722SOL     OW26997  12.573   5.061   3.087
41722SOL    HW126998  12.591   5.024   3.174
41722SOL    HW226999  12.535   4.989   3.037
41723SOL     OW27000  14.807   2.306   0.274
41723SOL    HW127001  14.862   2.372   0.232
41723SOL    HW227002  14.838   2.222   0.238
41724SOL     OW27003  12.571   0.698  14.417
41724SOL    HW127004  12.572   0.773  14.478
41724SOL    HW227005  12.568   0.621  14.474
41725SOL     OW27006   1.416  13.636   4.229
41725SOL    HW127007   1.368  13.649   4.147
41725SOL    HW227008   1.355  13.591   4.287
41726SOL     OW27009   3.509   9.168  13.893
41726SOL    HW127010   3.471   9.255  13.882
41726SOL    HW227011   3.555   9.173  13.977
41727SOL     OW27012  11.433   5.659  14.598
41727SOL    HW127013  11.507   5.651  14.658
41727SOL    HW227014  11.356   5.653  14.654
41728SOL     OW27015  13.172   1.933  12.016
41728SOL    HW127016  13.202   1.981  12.093
41728SOL    HW227017  13.246   1.936  11.955
41729SOL     OW27018   8.020  10.575  12.316
41729SOL    HW127019   7.942  10.582  12.261
41729SOL    HW227020   8.071  10.504  12.277
41730SOL     OW27021  14.021   6.580  14.237
41730SOL    HW127022  13.970   6.601  14.315
41730SOL    HW227023  13.981   6.633  14.167
41731SOL     OW27024   6.488   8.456  10.494
41731SOL    HW127025   6.572   8.421  10.523
41731SOL    HW227026   6.424   8.390  10.521
41732SOL     OW27027   6.809   5.333   9.419
41732SOL    HW127028   6.768   5.395   9.480
41732SOL    HW227029   6.741   5.270   9.399
41733SOL     OW27030   7.917   5.727   3.476
41733SOL    HW127031   7.869   5.647   3.454
41733SOL    HW227032   7.996   5.696   3.520
41734SOL     OW27033   2.694  12.739  11.897
41734SOL    HW127034   2.785  12.722  11.875
41734SOL    HW227035   2.694  12.828  11.934
41735SOL     OW27036  12.452  13.820  14.827
41735SOL    HW127037  12.409  13.736  14.842
41735SOL    HW227038  12.464  13.823  14.732
41736SOL     OW27039  11.907   3.200  14.257
41736SOL    HW127040  11.933   3.135  14.192
41736SOL    HW227041  11.812   3.192  14.263
41737SOL     OW27042  13.834   4.104   7.762
41737SOL    HW127043  13.898   4.058   7.707
41737SOL    HW227044  13.860   4.196   7.756
41738SOL     OW27045  13.763   3.494  10.122
41738SOL    HW127046  13.837   3.450  10.164
41738SOL    HW227047  13.709   3.524  10.195
41739SOL     OW27048   7.497   1.787  11.609
41739SOL    HW127049   7.454   1.718  11.559
41739SOL    HW227050   7.579   1.804  11.563
41740SOL     OW27051   8.917   2.857   5.701
41740SOL    HW127052   8.960   2.905   5.630
41740SOL    HW227053   8.888   2.775   5.660
41741SOL     OW27054   1.255   4.411   2.887
41741SOL    HW127055   1.344   4.378   2.873
41741SOL    HW227056   1.257   4.447   2.976
41742SOL     OW27057   8.566   9.716  13.253
41742SOL    HW127058   8.614   9.763  13.321
41742SOL    HW227059   8.478   9.755  13.254
41743SOL     OW27060  13.993  14.735  12.067
41743SOL    HW127061  13.993  14.639  12.073
41743SOL    HW227062  13.944  14.753  11.987
41744SOL     OW27063  11.484  14.391   6.476
41744SOL    HW127064  11.482  14.329   6.404
41744SOL    HW227065  11.469  14.338   6.555
41745SOL     OW27066  14.190  10.976   1.056
41745SOL    HW127067  14.215  11.058   1.097
41745SOL    HW227068  14.272  10.941   1.021
41746SOL     OW27069   7.021   9.798   7.903
41746SOL    HW127070   7.108   9.765   7.881
41746SOL    HW227071   7.036   9.855   7.979
41747SOL     OW27072   0.813   4.007   3.419
41747SOL    HW127073   0.839   3.965   3.501
41747SOL    HW227074   0.835   3.942   3.351
41748SOL     OW27075   6.292   4.131   9.904
41748SOL    HW127076   6.290   4.134  10.000
41748SOL    HW227077   6.311   4.040   9.883
41749SOL     OW27078  14.430  14.659   7.926
41749SOL    HW127079  14.492  14.721   7.889
41749SOL    HW227080  14.484  14.592   7.967
41750SOL     OW27081   2.245   2.703   7.097
41750SOL    HW127082   2.315   2.754   7.139
41750SOL    HW227083   2.229   2.749   7.014
41751SOL     OW27084  12.401   8.940   8.512
41751SOL    HW127085  12.417   9.012   8.451
41751SOL    HW227086  12.421   8.861   8.461
41752SOL     OW27087  11.882   2.833   5.290
41752SOL    HW127088  11.880   2.829   5.194
41752SOL    HW227089  11.814   2.896   5.313
41753SOL     OW27090   4.132  10.053   4.361
41753SOL    HW127091   4.207   9.994   4.355
41753SOL    HW227092   4.157  10.115   4.430
41754SOL     OW27093   7.237   3.547   1.751
41754SOL    HW127094   7.270   3.467   1.791
41754SOL    HW227095   7.304   3.571   1.687
41755SOL     OW27096   5.477   5.226   4.819
41755SOL    HW127097   5.456   5.307   4.773
41755SOL    HW227098   5.436   5.158   4.766
41756SOL     OW27099  14.428   6.607  10.527
41756SOL    HW127100  14.349   6.608  10.581
41756SOL    HW227101  14.419   6.529  10.473
41757SOL     OW27102  13.298   9.697   8.331
41757SOL    HW127103  13.373   9.748   8.361
41757SOL    HW227104  13.329   9.654   8.250
41758SOL     OW27105   0.577  11.497  13.182
41758SOL    HW127106   0.652  11.506  13.240
41758SOL    HW227107   0.613  11.465  13.099
41759SOL     OW27108  13.693   5.593   4.095
41759SOL    HW127109  13.662   5.508   4.063
41759SOL    HW227110  13.709   5.643   4.015
41760SOL     OW27111   6.395   5.628   7.574
41760SOL    HW127112   6.371   5.580   7.653
41760SOL    HW227113   6.465   5.687   7.602
41761SOL     OW27114   7.181  10.401   5.542
41761SOL    HW127115   7.184  10.492   5.514
41761SOL    HW227116   7.143  10.354   5.468
41762SOL     OW27117   5.353   0.434   2.090
41762SOL    HW127118   5.375   0.528   2.089
41762SOL    HW227119   5.415   0.394   2.030
41763SOL     OW27120   4.368  14.534  12.168
41763SOL    HW127121   4.278  14.558  12.148
41763SOL    HW227122   4.416  14.617  12.171
41764SOL     OW27123   3.147  12.738   4.408
41764SOL    HW127124   3.149  12.645   4.433
41764SOL    HW227125   3.187  12.740   4.321
41765SOL     OW27126   6.396   7.223  13.635
41765SOL    HW127127   6.332   7.293  13.625
41765SOL    HW227128   6.425   7.229  13.726
41766SOL     OW27129  11.515   0.093  12.120
41766SOL    HW127130  11.470   0.047  12.191
41766SOL    HW227131  11.444   0.134  12.070
41767SOL     OW27132  10.986   1.164   3.182
41767SOL    HW127133  11.012   1.173   3.090
41767SOL    HW227134  11.033   1.234   3.227
41768SOL     OW27135   8.192   1.031   7.386
41768SOL    HW127136   8.181   1.055   7.478
41768SOL    HW227137   8.150   0.945   7.380
41769SOL     OW27138  11.798   0.737   2.586
41769SOL    HW127139  11.745   0.686   2.524
41769SOL    HW227140  11.850   0.672   2.632
41770SOL     OW27141   0.489  10.649  11.012
41770SOL    HW127142   0.409  10.645  10.960
41770SOL    HW227143   0.543  10.578  10.977
41771SOL     OW27144   1.599   0.591  12.410
41771SOL    HW127145   1.687   0.554  12.407
41771SOL    HW227146   1.541   0.515  12.409
41772SOL     OW27147   5.408   0.313   0.013
41772SOL    HW127148   5.364   0.244  14.837
41772SOL    HW227149   5.493   0.324  14.842
41773SOL     OW27150   0.848   9.436   5.993
41773SOL    HW127151   0.931   9.425   6.040
41773SOL    HW227152   0.873   9.478   5.911
41774SOL     OW27153   4.634   6.722  12.618
41774SOL    HW127154   4.559   6.732  12.677
41774SOL    HW227155   4.598   6.742  12.531
41775SOL     OW27156   7.507   7.827   2.136
41775SOL    HW127157   7.519   7.744   2.182
41775SOL    HW227158   7.412   7.833   2.122
41776SOL     OW27159   3.853  12.712   8.870
41776SOL    HW127160   3.944  12.711   8.899
41776SOL    HW227161   3.824  12.802   8.884
41777SOL     OW27162   6.918   0.184  10.601
41777SOL    HW127163   6.978   0.114  10.626
41777SOL    HW227164   6.862   0.197  10.678
41778SOL     OW27165   2.595   4.462   9.548
41778SOL    HW127166   2.684   4.440   9.518
41778SOL    HW227167   2.606   4.544   9.596
41779SOL     OW27168  14.791   9.245   8.550
41779SOL    HW127169  14.703   9.209   8.541
41779SOL    HW227170  14.849   9.170   8.540
41780SOL     OW27171   7.309  10.986  14.662
41780SOL    HW127172   7.249  10.964  14.591
41780SOL    HW227173   7.254  11.031  14.727
41781SOL     OW27174   0.609   4.572   2.958
41781SOL    HW127175   0.575   4.626   3.029
41781SOL    HW227176   0.550   4.497   2.954
41782SOL     OW27177   6.575   0.551   6.436
41782SOL    HW127178   6.523   0.568   6.515
41782SOL    HW227179   6.599   0.459   6.442
41783SOL     OW27180  11.464  11.631  14.771
41783SOL    HW127181  11.375  11.616  14.803
41783SOL    HW227182  11.469  11.584  14.688
41784SOL     OW27183  12.096  14.584   9.319
41784SOL    HW127184  12.179  14.537   9.331
41784SOL    HW227185  12.062  14.596   9.408
41785SOL     OW27186   3.127   7.178   8.550
41785SOL    HW127187   3.183   7.173   8.472
41785SOL    HW227188   3.127   7.270   8.574
41786SOL     OW27189   8.569   9.316   0.226
41786SOL    HW127190   8.596   9.407   0.219
41786SOL    HW227191   8.571   9.298   0.320
41787SOL     OW27192   3.062   5.884   9.944
41787SOL    HW127193   3.055   5.868  10.039
41787SOL    HW227194   2.995   5.827   9.906
41788SOL     OW27195   3.280  13.373  11.567
41788SOL    HW127196   3.375  13.366  11.568
41788SOL    HW227197   3.260  13.435  11.498
41789SOL     OW27198  10.153  11.036   9.649
41789SOL    HW127199  10.108  11.120   9.641
41789SOL    HW227200  10.094  10.982   9.702
41790SOL     OW27201   0.521  10.329  12.711
41790SOL    HW127202   0.489  10.251  12.666
41790SOL    HW227203   0.545  10.297  12.799
41791SOL     OW27204   9.325   0.491  14.847
41791SOL    HW127205   9.246   0.445  14.818
41791SOL    HW227206   9.372   0.427   0.028
41792SOL     OW27207   2.770   3.516   5.344
41792SOL    HW127208   2.855   3.489   5.379
41792SOL    HW227209   2.706   3.475   5.402
41793SOL     OW27210   8.234  12.397   8.839
41793SOL    HW127211   8.198  12.315   8.807
41793SOL    HW227212   8.205  12.402   8.931
41794SOL     OW27213   1.209   5.158  13.739
41794SOL    HW127214   1.149   5.226  13.772
41794SOL    HW227215   1.247   5.197  13.660
41795SOL     OW27216  13.728  11.856   7.749
41795SOL    HW127217  13.822  11.875   7.745
41795SOL    HW227218  13.718  11.800   7.826
41796SOL     OW27219   1.423   1.221   6.651
41796SOL    HW127220   1.444   1.240   6.559
41796SOL    HW227221   1.422   1.125   6.656
41797SOL     OW27222   9.962   3.747   2.114
41797SOL    HW127223  10.053   3.719   2.128
41797SOL    HW227224   9.928   3.686   2.049
41798SOL     OW27225  13.356   2.023   5.081
41798SOL    HW127226  13.352   2.021   5.176
41798SOL    HW227227  13.268   1.999   5.052
41799SOL     OW27228   0.057   3.326   4.470
41799SOL    HW127229   0.090   3.385   4.401
41799SOL    HW227230  14.834   3.338   4.468
41800SOL     OW27231   3.186   5.650  10.102
41800SOL    HW127232   3.155   5.724  10.155
41800SOL    HW227233   3.152   5.573  10.147
41801SOL     OW27234   5.221   1.118   0.722
41801SOL    HW127235   5.169   1.087   0.647
41801SOL    HW227236   5.158   1.166   0.776
41802SOL     OW27237  13.062   3.945  11.842
41802SOL    HW127238  13.111   3.867  11.865
41802SOL    HW227239  12.981   3.938  11.893
41803SOL     OW27240   7.769   8.040   5.546
41803SOL    HW127241   7.686   8.044   5.497
41803SOL    HW227242   7.804   7.953   5.526
41804SOL     OW27243   0.447  14.430  14.189
41804SOL    HW127244   0.398  14.353  14.161
41804SOL    HW227245   0.390  14.504  14.168
41805SOL     OW27246   2.937  12.869   3.963
41805SOL    HW127247   3.006  12.832   3.908
41805SOL    HW227248   2.904  12.794   4.013
41806SOL     OW27249   6.803   8.459   9.200
41806SOL    HW127250   6.740   8.505   9.144
41806SOL    HW227251   6.809   8.514   9.278
41807SOL     OW27252   5.003  11.354   0.692
41807SOL    HW127253   4.924  11.401   0.718
41807SOL    HW227254   5.000  11.273   0.742
41808SOL     OW27255   3.730   2.159   6.777
41808SOL    HW127256   3.715   2.230   6.715
41808SOL    HW227257   3.643   2.122   6.793
41809SOL     OW27258   2.673  14.745  13.012
41809SOL    HW127259   2.645  14.808  12.946
41809SOL    HW227260   2.768  14.755  13.016
41810SOL     OW27261  14.417   6.114   9.672
41810SOL    HW127262  14.490   6.091   9.615
41810SOL    HW227263  14.347   6.054   9.646
41811SOL     OW27264  13.889  11.090   6.739
41811SOL    HW127265  13.963  11.078   6.799
41811SOL    HW227266  13.892  11.183   6.716
41812SOL     OW27267  13.742  10.702   9.572
41812SOL    HW127268  13.733  10.607   9.560
41812SOL    HW227269  13.790  10.711   9.654
41813SOL     OW27270   8.746   0.856  10.854
41813SOL    HW127271   8.713   0.787  10.796
41813SOL    HW227272   8.801   0.910  10.797
41814SOL     OW27273  11.511   8.003   6.611
41814SOL    HW127274  11.495   7.934   6.547
41814SOL    HW227275  11.512   8.084   6.560
41815SOL     OW27276   4.241   1.506   8.685
41815SOL    HW127277   4.160   1.547   8.654
41815SOL    HW227278   4.214   1.450   8.757
41816SOL     OW27279  14.588   4.902   0.418
41816SOL    HW127280  14.630   4.867   0.340
41816SOL    HW227281  14.639   4.980   0.441
41817SOL     OW27282   1.468  10.418  11.295
41817SOL    HW127283   1.428  10.456  11.217
41817SOL    HW227284   1.475  10.490  11.357
41818SOL     OW27285  13.989  12.497   1.415
41818SOL    HW127286  13.897  12.500   1.442
41818SOL    HW227287  13.987  12.453   1.330
41819SOL     OW27288  10.445   0.076   7.774
41819SOL    HW127289  10.370   0.089   7.831
41819SOL    HW227290  10.459   0.161   7.731
41820SOL     OW27291   1.937  14.621  12.563
41820SOL    HW127292   1.993  14.624  12.641
41820SOL    HW227293   1.851  14.649  12.594
41821SOL     OW27294   8.659  12.796   0.140
41821SOL    HW127295   8.575  12.793   0.186
41821SOL    HW227296   8.721  12.827   0.206
41822SOL     OW27297  10.014   4.218  11.847
41822SOL    HW127298   9.929   4.250  11.818
41822SOL    HW227299  10.068   4.217  11.768
41823SOL     OW27300  12.544   7.837   9.314
41823SOL    HW127301  12.566   7.773   9.246
41823SOL    HW227302  12.477   7.892   9.273
41824SOL     OW27303   5.098  11.871  12.472
41824SOL    HW127304   5.102  11.775  12.463
41824SOL    HW227305   5.135  11.888  12.558
41825SOL     OW27306   7.424   0.706  14.410
41825SOL    HW127307   7.335   0.680  14.388
41825SOL    HW227308   7.456   0.637  14.469
41826SOL     OW27309   0.473   1.554   5.967
41826SOL    HW127310   0.524   1.550   5.887
41826SOL    HW227311   0.490   1.641   6.003
41827SOL     OW27312  13.967  13.817  14.652
41827SOL    HW127313  14.060  13.816  14.676
41827SOL    HW227314  13.966  13.859  14.566
41828SOL     OW27315  11.796  10.649  14.354
41828SOL    HW127316  11.875  10.670  14.402
41828SOL    HW227317  11.826  10.596  14.280
41829SOL     OW27318  11.823   3.703  11.165
41829SOL    HW127319  11.788   3.676  11.080
41829SOL    HW227320  11.817   3.624  11.219
41830SOL     OW27321   9.967   1.695  10.646
41830SOL    HW127322   9.993   1.650  10.566
41830SOL    HW227323  10.047   1.737  10.677
41831SOL     OW27324  13.764   1.502   4.734
41831SOL    HW127325  13.821   1.565   4.690
41831SOL    HW227326  13.770   1.526   4.827
41832SOL     OW27327  14.058   1.418   3.488
41832SOL    HW127328  14.035   1.440   3.397
41832SOL    HW227329  14.128   1.355   3.480
41833SOL     OW27330   5.843   0.152  13.180
41833SOL    HW127331   5.828   0.239  13.218
41833SOL    HW227332   5.778   0.096  13.223
41834SOL     OW27333   3.183   7.361   0.937
41834SOL    HW127334   3.212   7.363   0.846
41834SOL    HW227335   3.259   7.391   0.987
41835SOL     OW27336  10.402  12.707  11.657
41835SOL    HW127337  10.481  12.656  11.637
41835SOL    HW227338  10.338  12.678  11.592
41836SOL     OW27339   9.690   2.091   3.522
41836SOL    HW127340   9.613   2.146   3.538
41836SOL    HW227341   9.764   2.144   3.551
41837SOL     OW27342   4.871  12.215  12.420
41837SOL    HW127343   4.839  12.305  12.416
41837SOL    HW227344   4.964  12.222  12.399
41838SOL     OW27345   1.344   3.041  14.126
41838SOL    HW127346   1.416   2.986  14.094
41838SOL    HW227347   1.281   3.042  14.054
41839SOL     OW27348   9.428  11.837   5.837
41839SOL    HW127349   9.503  11.863   5.891
41839SOL    HW227350   9.354  11.836   5.898
41840SOL     OW27351   1.751   0.263   7.234
41840SOL    HW127352   1.793   0.349   7.240
41840SOL    HW227353   1.756   0.240   7.142
41841SOL     OW27354   0.315   2.034  11.027
41841SOL    HW127355   0.298   2.074  11.112
41841SOL    HW227356   0.405   2.001  11.034
41842SOL     OW27357   5.082   2.196   6.470
41842SOL    HW127358   5.128   2.241   6.399
41842SOL    HW227359   4.990   2.220   6.458
41843SOL     OW27360   4.820   9.845   9.535
41843SOL    HW127361   4.874   9.772   9.504
41843SOL    HW227362   4.858   9.869   9.619
41844SOL     OW27363   8.681  12.799  13.881
41844SOL    HW127364   8.604  12.808  13.937
41844SOL    HW227365   8.712  12.889  13.869
41845SOL     OW27366   0.860   3.390   7.212
41845SOL    HW127367   0.788   3.333   7.185
41845SOL    HW227368   0.935   3.331   7.224
41846SOL     OW27369   9.858   5.405   7.727
41846SOL    HW127370   9.928   5.468   7.711
41846SOL    HW227371   9.777   5.455   7.712
41847SOL     OW27372   0.569   7.897  12.212
41847SOL    HW127373   0.552   7.806  12.235
41847SOL    HW227374   0.515   7.947  12.273
41848SOL     OW27375  13.966   6.553   8.809
41848SOL    HW127376  13.969   6.622   8.874
41848SOL    HW227377  14.041   6.569   8.752
41849SOL     OW27378   4.394  13.867   0.968
41849SOL    HW127379   4.455  13.813   1.019
41849SOL    HW227380   4.310  13.857   1.013
41850SOL     OW27381  10.521  10.482  11.604
41850SOL    HW127382  10.545  10.420  11.672
41850SOL    HW227383  10.554  10.443  11.523
41851SOL     OW27384   0.945   1.577   2.961
41851SOL    HW127385   0.870   1.549   3.014
41851SOL    HW227386   0.911   1.580   2.872
41852SOL     OW27387   0.437   7.885   3.597
41852SOL    HW127388   0.522   7.859   3.562
41852SOL    HW227389   0.451   7.891   3.692
41853SOL     OW27390   6.431   7.540   5.975
41853SOL    HW127391   6.375   7.614   6.001
41853SOL    HW227392   6.504   7.543   6.037
41854SOL     OW27393   2.611   5.439   3.358
41854SOL    HW127394   2.687   5.389   3.387
41854SOL    HW227395   2.571   5.385   3.290
41855SOL     OW27396   8.155  11.538   9.458
41855SOL    HW127397   8.066  11.508   9.471
41855SOL    HW227398   8.180  11.504   9.372
41856SOL     OW27399  12.592   1.413   2.777
41856SOL    HW127400  12.550   1.443   2.697
41856SOL    HW227401  12.615   1.321   2.760
41857SOL     OW27402  13.718  12.021   2.865
41857SOL    HW127403  13.625  12.021   2.889
41857SOL    HW227404  13.723  11.962   2.790
41858SOL     OW27405  12.145   8.058   1.842
41858SOL    HW127406  12.194   8.002   1.782
41858SOL    HW227407  12.168   8.147   1.816
41859SOL     OW27408   8.514   2.746  14.306
41859SOL    HW127409   8.504   2.652  14.291
41859SOL    HW227410   8.543   2.753  14.397
41860SOL     OW27411  12.163   7.236   5.536
41860SOL    HW127412  12.136   7.318   5.576
41860SOL    HW227413  12.147   7.248   5.442
41861SOL     OW27414   2.217   6.110  11.662
41861SOL    HW127415   2.304   6.111  11.702
41861SOL    HW227416   2.228   6.161  11.582
41862SOL     OW27417   2.715   5.563  13.665
41862SOL    HW127418   2.715   5.639  13.608
41862SOL    HW227419   2.740   5.490  13.608
41863SOL     OW27420   0.314   4.702  10.096
41863SOL    HW127421   0.399   4.686  10.137
41863SOL    HW227422   0.284   4.615  10.069
41864SOL     OW27423   6.379   0.244  14.146
41864SOL    HW127424   6.292   0.204  14.151
41864SOL    HW227425   6.389   0.269  14.054
41865SOL     OW27426  10.483  12.328  14.444
41865SOL    HW127427  10.576  12.305  14.445
41865SOL    HW227428  10.481  12.420  14.469
41866SOL     OW27429   3.500  10.185   3.393
41866SOL    HW127430   3.470  10.134   3.468
41866SOL    HW227431   3.592  10.161   3.382
41867SOL     OW27432   9.901  13.267   2.517
41867SOL    HW127433   9.985  13.294   2.554
41867SOL    HW227434   9.900  13.172   2.526
41868SOL     OW27435  11.408   8.311   5.716
41868SOL    HW127436  11.414   8.361   5.635
41868SOL    HW227437  11.338   8.354   5.766
41869SOL     OW27438  13.675  12.038  13.594
41869SOL    HW127439  13.710  11.950  13.581
41869SOL    HW227440  13.604  12.026  13.658
41870SOL     OW27441  13.731   6.400   7.682
41870SOL    HW127442  13.781   6.479   7.705
41870SOL    HW227443  13.733   6.347   7.762
41871SOL     OW27444  13.715   1.714   0.772
41871SOL    HW127445  13.688   1.640   0.717
41871SOL    HW227446  13.633   1.759   0.792
41872SOL     OW27447   7.275   7.609  13.433
41872SOL    HW127448   7.196   7.576  13.391
41872SOL    HW227449   7.328   7.531  13.449
41873SOL     OW27450  12.480   1.585  10.070
41873SOL    HW127451  12.565   1.625  10.049
41873SOL    HW227452  12.494   1.491  10.056
41874SOL     OW27453   4.055   0.166   4.937
41874SOL    HW127454   4.059   0.095   5.001
41874SOL    HW227455   4.135   0.155   4.885
41875SOL     OW27456   1.938   2.441   9.331
41875SOL    HW127457   2.027   2.460   9.363
41875SOL    HW227458   1.917   2.515   9.275
41876SOL     OW27459  13.114   7.427   2.720
41876SOL    HW127460  13.172   7.503   2.722
41876SOL    HW227461  13.110   7.397   2.811
41877SOL     OW27462   9.091   4.962   0.282
41877SOL    HW127463   9.110   4.988   0.372
41877SOL    HW227464   9.098   5.043   0.231
41878SOL     OW27465   5.050   2.013   0.098
41878SOL    HW127466   4.967   2.045   0.133
41878SOL    HW227467   5.093   1.973   0.173
41879SOL     OW27468   8.322  13.155   5.023
41879SOL    HW127469   8.251  13.151   4.959
41879SOL    HW227470   8.347  13.064   5.038
41880SOL     OW27471  13.882   0.832   8.353
41880SOL    HW127472  13.938   0.909   8.347
41880SOL    HW227473  13.793   0.867   8.350
41881SOL     OW27474   2.736   9.812  13.185
41881SOL    HW127475   2.781   9.773  13.260
41881SOL    HW227476   2.803   9.821  13.118
41882SOL     OW27477   0.677   6.188  12.315
41882SOL    HW127478   0.589   6.181  12.350
41882SOL    HW227479   0.722   6.110  12.347
41883SOL     OW27480  13.815   2.132   7.794
41883SOL    HW127481  13.783   2.042   7.800
41883SOL    HW227482  13.738   2.184   7.774
41884SOL     OW27483   0.415   6.498  10.831
41884SOL    HW127484   0.456   6.491  10.917
41884SOL    HW227485   0.475   6.452  10.772
41885SOL     OW27486  10.008   6.811   6.369
41885SOL    HW127487  10.058   6.892   6.365
41885SOL    HW227488  10.037   6.769   6.451
41886SOL     OW27489  12.199  12.335  13.545
41886SOL    HW127490  12.280  12.304  13.504
41886SOL    HW227491  12.208  12.312  13.637
41887SOL     OW27492   2.957   9.845   9.622
41887SOL    HW127493   2.893   9.823   9.690
41887SOL    HW227494   3.033   9.789   9.641
41888SOL     OW27495   3.079  11.823  12.891
41888SOL    HW127496   3.008  11.759  12.897
41888SOL    HW227497   3.085  11.844  12.798
41889SOL     OW27498   0.971   6.293   3.990
41889SOL    HW127499   1.040   6.297   3.923
41889SOL    HW227500   1.015   6.319   4.071
41890SOL     OW27501   3.204   7.637   6.537
41890SOL    HW127502   3.166   7.567   6.590
41890SOL    HW227503   3.299   7.621   6.541
41891SOL     OW27504   1.417   5.303  13.595
41891SOL    HW127505   1.478   5.230  13.585
41891SOL    HW227506   1.440   5.341  13.680
41892SOL     OW27507  14.243   3.406   1.927
41892SOL    HW127508  14.257   3.501   1.929
41892SOL    HW227509  14.285   3.377   1.846
41893SOL     OW27510   6.088  11.724   5.042
41893SOL    HW127511   6.056  11.780   5.112
41893SOL    HW227512   6.125  11.648   5.087
41894SOL     OW27513   2.249   0.006  12.402
41894SOL    HW127514   2.286  14.791  12.391
41894SOL    HW227515   2.184   0.013  12.333
41895SOL     OW27516   8.973   5.366  11.781
41895SOL    HW127517   8.897   5.308  11.781
41895SOL    HW227518   9.048   5.306  11.776
41896SOL     OW27519  11.715   4.208   0.486
41896SOL    HW127520  11.698   4.243   0.573
41896SOL    HW227521  11.631   4.212   0.441
41897SOL     OW27522   4.070  10.457  12.540
41897SOL    HW127523   4.025  10.528  12.494
41897SOL    HW227524   4.123  10.415  12.473
41898SOL     OW27525  12.549   5.988   7.222
41898SOL    HW127526  12.625   6.017   7.172
41898SOL    HW227527  12.485   5.961   7.156
41899SOL     OW27528   8.873  14.781   3.045
41899SOL    HW127529   8.931  14.799   3.118
41899SOL    HW227530   8.841  14.692   3.061
41900SOL     OW27531  11.377   2.515   3.123
41900SOL    HW127532  11.285   2.491   3.127
41900SOL    HW227533  11.395   2.529   3.030
41901SOL     OW27534   6.200   7.132  10.202
41901SOL    HW127535   6.244   7.055  10.166
41901SOL    HW227536   6.253   7.206  10.174
41902SOL     OW27537   1.256   7.072   0.279
41902SOL    HW127538   1.189   7.104   0.339
41902SOL    HW227539   1.208   7.051   0.199
41903SOL     OW27540  14.853  11.894  14.294
41903SOL    HW127541  14.792  11.837  14.248
41903SOL    HW227542   0.053  11.906  14.232
41904SOL     OW27543   1.571   9.174  11.377
41904SOL    HW127544   1.552   9.123  11.456
41904SOL    HW227545   1.497   9.234  11.369
41905SOL     OW27546  10.715  13.543  14.630
41905SOL    HW127547  10.757  13.629  14.622
41905SOL    HW227548  10.640  13.559  14.688
41906SOL     OW27549   3.151   7.286  11.170
41906SOL    HW127550   3.241   7.317  11.155
41906SOL    HW227551   3.162   7.195  11.196
41907SOL     OW27552   3.360   1.061   9.072
41907SOL    HW127553   3.285   1.081   9.128
41907SOL    HW227554   3.337   1.100   8.988
41908SOL     OW27555   8.560   7.708  14.069
41908SOL    HW127556   8.493   7.776  14.064
41908SOL    HW227557   8.543   7.652  13.993
41909SOL     OW27558   4.034   4.099   2.353
41909SOL    HW127559   3.939   4.111   2.359
41909SOL    HW227560   4.065   4.179   2.311
41910SOL     OW27561   7.506  12.307   6.684
41910SOL    HW127562   7.514  12.229   6.739
41910SOL    HW227563   7.423  12.346   6.710
41911SOL     OW27564   4.841  13.523   6.507
41911SOL    HW127565   4.764  13.523   6.564
41911SOL    HW227566   4.812  13.566   6.427
41912SOL     OW27567   1.156   4.927   9.813
41912SOL    HW127568   1.108   4.962   9.889
41912SOL    HW227569   1.220   4.995   9.792
41913SOL     OW27570  11.178   5.010   6.674
41913SOL    HW127571  11.116   4.993   6.603
41913SOL    HW227572  11.152   4.949   6.743
41914SOL     OW27573  14.047   2.478   2.382
41914SOL    HW127574  14.066   2.557   2.432
41914SOL    HW227575  14.107   2.412   2.417
41915SOL     OW27576   0.602  10.210   3.887
41915SOL    HW127577   0.521  10.218   3.837
41915SOL    HW227578   0.651  10.142   3.842
41916SOL     OW27579   1.597   5.704  12.676
41916SOL    HW127580   1.592   5.696  12.580
41916SOL    HW227581   1.540   5.779  12.696
41917SOL     OW27582   0.281  14.016   2.709
41917SOL    HW127583   0.238  14.025   2.794
41917SOL    HW227584   0.344  13.945   2.721
41918SOL     OW27585   7.347   7.654  11.459
41918SOL    HW127586   7.387   7.738  11.437
41918SOL    HW227587   7.373   7.640  11.550
41919SOL     OW27588   2.383   7.263   3.408
41919SOL    HW127589   2.374   7.220   3.323
41919SOL    HW227590   2.407   7.354   3.386
41920SOL     OW27591  10.168   3.063   9.231
41920SOL    HW127592  10.083   3.036   9.196
41920SOL    HW227593  10.181   3.009   9.308
41921SOL     OW27594   4.689  12.109   8.444
41921SOL    HW127595   4.610  12.074   8.485
41921SOL    HW227596   4.730  12.033   8.402
41922SOL     OW27597   1.821   0.067   2.894
41922SOL    HW127598   1.787  14.854   2.867
41922SOL    HW227599   1.747   0.126   2.885
41923SOL     OW27600   9.074   9.875   2.806
41923SOL    HW127601   9.013   9.844   2.873
41923SOL    HW227602   9.020   9.887   2.728
41924SOL     OW27603   9.637  11.212  11.457
41924SOL    HW127604   9.552  11.248  11.432
41924SOL    HW227605   9.616  11.134  11.508
41925SOL     OW27606   0.825   3.279  10.844
41925SOL    HW127607   0.751   3.233  10.882
41925SOL    HW227608   0.889   3.284  10.914
41926SOL     OW27609   9.915  12.075   7.022
41926SOL    HW127610   9.943  12.139   6.956
41926SOL    HW227611   9.823  12.060   7.002
41927SOL     OW27612   7.608   6.028   1.185
41927SOL    HW127613   7.597   6.118   1.155
41927SOL    HW227614   7.532   5.981   1.150
41928SOL     OW27615  10.364   1.939  10.953
41928SOL    HW127616  10.398   1.899  11.033
41928SOL    HW227617  10.289   1.991  10.981
41929SOL     OW27618   4.726   1.269   2.296
41929SOL    HW127619   4.816   1.239   2.304
41929SOL    HW227620   4.721   1.305   2.207
41930SOL     OW27621   8.872   9.239  11.817
41930SOL    HW127622   8.935   9.174  11.846
41930SOL    HW227623   8.808   9.190  11.765
41931SOL     OW27624   9.963  14.042   5.761
41931SOL    HW127625   9.985  14.122   5.809
41931SOL    HW227626  10.035  14.030   5.699
41932SOL     OW27627   5.286  12.686  11.428
41932SOL    HW127628   5.347  12.615  11.409
41932SOL    HW227629   5.241  12.658  11.508
41933SOL     OW27630   4.544  12.767   7.793
41933SOL    HW127631   4.465  12.726   7.828
41933SOL    HW227632   4.512  12.842   7.743
41934SOL     OW27633   3.201   1.006  13.644
41934SOL    HW127634   3.268   0.954  13.688
41934SOL    HW227635   3.249   1.067  13.589
41935SOL     OW27636   7.692   1.073   9.651
41935SOL    HW127637   7.600   1.098   9.648
41935SOL    HW227638   7.704   1.019   9.572
41936SOL     OW27639  12.837   0.724  14.625
41936SOL    HW127640  12.879   0.639  14.637
41936SOL    HW227641  12.906   0.779  14.585
41937SOL     OW27642   8.618   3.379  10.480
41937SOL    HW127643   8.670   3.377  10.400
41937SOL    HW227644   8.604   3.472  10.497
41938SOL     OW27645  12.531   3.501   7.954
41938SOL    HW127646  12.598   3.557   7.917
41938SOL    HW227647  12.549   3.414   7.916
41939SOL     OW27648  10.512  10.005   9.438
41939SOL    HW127649  10.581  10.057   9.479
41939SOL    HW227650  10.510  10.033   9.347
41940SOL     OW27651   6.321  11.472  13.817
41940SOL    HW127652   6.301  11.379  13.832
41940SOL    HW227653   6.315  11.512  13.904
41941SOL     OW27654  14.135   1.157  11.831
41941SOL    HW127655  14.209   1.176  11.773
41941SOL    HW227656  14.146   1.064  11.855
41942SOL     OW27657   4.248  10.363   4.410
41942SOL    HW127658   4.165  10.373   4.364
41942SOL    HW227659   4.226  10.313   4.489
41943SOL     OW27660   6.775   3.787   8.579
41943SOL    HW127661   6.788   3.694   8.566
41943SOL    HW227662   6.834   3.810   8.650
41944SOL     OW27663   8.433   5.679   1.551
41944SOL    HW127664   8.350   5.678   1.504
41944SOL    HW227665   8.487   5.743   1.504
41945SOL     OW27666   5.179   6.402   9.902
41945SOL    HW127667   5.106   6.381   9.960
41945SOL    HW227668   5.253   6.355   9.939
41946SOL     OW27669   1.292   0.702   4.937
41946SOL    HW127670   1.280   0.633   4.872
41946SOL    HW227671   1.234   0.772   4.908
41947SOL     OW27672   7.762   4.380   5.352
41947SOL    HW127673   7.719   4.434   5.419
41947SOL    HW227674   7.700   4.380   5.279
41948SOL     OW27675   8.946  12.500   2.966
41948SOL    HW127676   8.864  12.507   2.917
41948SOL    HW227677   9.010  12.546   2.912
41949SOL     OW27678   6.407   5.916   9.017
41949SOL    HW127679   6.345   5.985   9.040
41949SOL    HW227680   6.491   5.948   9.050
41950SOL     OW27681   9.718   0.746   6.204
41950SOL    HW127682   9.649   0.683   6.222
41950SOL    HW227683   9.792   0.693   6.175
41951SOL     OW27684   6.401   1.926   2.646
41951SOL    HW127685   6.326   1.955   2.595
41951SOL    HW227686   6.387   1.964   2.733
41952SOL     OW27687   8.688  11.600   7.453
41952SOL    HW127688   8.594  11.601   7.468
41952SOL    HW227689   8.701  11.534   7.384
41953SOL     OW27690   3.485  12.800  12.594
41953SOL    HW127691   3.554  12.778  12.656
41953SOL    HW227692   3.454  12.716  12.561
41954SOL     OW27693   3.366  13.295   2.625
41954SOL    HW127694   3.358  13.249   2.541
41954SOL    HW227695   3.280  13.333   2.640
41955SOL     OW27696   5.831  10.136   1.968
41955SOL    HW127697   5.908  10.093   1.931
41955SOL    HW227698   5.856  10.156   2.058
41956SOL     OW27699   8.646   2.036  14.452
41956SOL    HW127700   8.552   2.029  14.465
41956SOL    HW227701   8.657   2.109  14.390
41957SOL     OW27702   5.753   7.578  14.071
41957SOL    HW127703   5.696   7.535  14.007
41957SOL    HW227704   5.737   7.672  14.058
41958SOL     OW27705   2.352   1.002   4.040
41958SOL    HW127706   2.358   1.034   3.950
41958SOL    HW227707   2.278   1.048   4.078
41959SOL     OW27708  11.693   7.914  11.071
41959SOL    HW127709  11.779   7.873  11.073
41959SOL    HW227710  11.711   8.006  11.052
41960SOL     OW27711  10.488  14.636   4.389
41960SOL    HW127712  10.570  14.666   4.350
41960SOL    HW227713  10.449  14.579   4.323
41961SOL     OW27714   4.272   5.927   6.474
41961SOL    HW127715   4.238   6.008   6.512
41961SOL    HW227716   4.302   5.876   6.549
41962SOL     OW27717   6.979   3.926   1.442
41962SOL    HW127718   6.932   3.996   1.396
41962SOL    HW227719   7.058   3.912   1.390
41963SOL     OW27720   2.155   3.569  11.094
41963SOL    HW127721   2.207   3.623  11.153
41963SOL    HW227722   2.197   3.579  11.009
41964SOL     OW27723   3.133  13.045   2.306
41964SOL    HW127724   3.100  12.972   2.358
41964SOL    HW227725   3.076  13.119   2.330
41965SOL     OW27726   5.036   3.661  11.385
41965SOL    HW127727   5.010   3.574  11.354
41965SOL    HW227728   5.131   3.658  11.387
41966SOL     OW27729   0.637  11.192   1.893
41966SOL    HW127730   0.598  11.139   1.824
41966SOL    HW227731   0.730  11.197   1.869
41967SOL     OW27732   5.957   3.264  14.129
41967SOL    HW127733   5.937   3.324  14.201
41967SOL    HW227734   6.004   3.192  14.170
41968SOL     OW27735   7.932   4.751  13.780
41968SOL    HW127736   7.857   4.768  13.723
41968SOL    HW227737   7.949   4.835  13.822
41969SOL     OW27738  12.671   0.259   5.806
41969SOL    HW127739  12.714   0.323   5.864
41969SOL    HW227740  12.657   0.183   5.862
41970SOL     OW27741   9.132   4.708   0.277
41970SOL    HW127742   9.114   4.800   0.258
41970SOL    HW227743   9.158   4.671   0.192
41971SOL     OW27744   5.183   1.827   1.563
41971SOL    HW127745   5.105   1.860   1.608
41971SOL    HW227746   5.199   1.890   1.493
41972SOL     OW27747   5.761   8.673  13.899
41972SOL    HW127748   5.782   8.767  13.900
41972SOL    HW227749   5.832   8.633  13.849
41973SOL     OW27750   4.484   7.416   8.657
41973SOL    HW127751   4.450   7.344   8.605
41973SOL    HW227752   4.440   7.409   8.741
41974SOL     OW27753   4.303   6.075   4.373
41974SOL    HW127754   4.276   6.078   4.281
41974SOL    HW227755   4.276   5.988   4.403
41975SOL     OW27756   6.823   8.930   9.816
41975SOL    HW127757   6.916   8.915   9.836
41975SOL    HW227758   6.777   8.895   9.892
41976SOL     OW27759   9.536   4.820   3.963
41976SOL    HW127760   9.629   4.840   3.960
41976SOL    HW227761   9.529   4.731   3.929
41977SOL     OW27762   5.809   4.068   9.780
41977SOL    HW127763   5.722   4.108   9.777
41977SOL    HW227764   5.838   4.080   9.870
41978SOL     OW27765   2.142   3.948  12.110
41978SOL    HW127766   2.057   3.986  12.089
41978SOL    HW227767   2.180   4.008  12.174
41979SOL     OW27768   4.379   0.319   6.255
41979SOL    HW127769   4.372   0.239   6.308
41979SOL    HW227770   4.339   0.296   6.172
41980SOL     OW27771   7.720   7.685   7.940
41980SOL    HW127772   7.802   7.681   7.990
41980SOL    HW227773   7.747   7.667   7.850
41981SOL     OW27774   7.990  10.567   0.362
41981SOL    HW127775   7.974  10.653   0.402
41981SOL    HW227776   7.989  10.583   0.268
41982SOL     OW27777  10.902   5.329   8.785
41982SOL    HW127778  10.865   5.412   8.815
41982SOL    HW227779  10.908   5.275   8.863
41983SOL     OW27780   6.635   2.225   8.988
41983SOL    HW127781   6.590   2.169   8.925
41983SOL    HW227782   6.622   2.182   9.072
41984SOL     OW27783  10.839   6.701   0.865
41984SOL    HW127784  10.838   6.743   0.951
41984SOL    HW227785  10.831   6.772   0.802
41985SOL     OW27786   5.725   6.040  11.037
41985SOL    HW127787   5.711   5.978  11.108
41985SOL    HW227788   5.807   6.011  10.996
41986SOL     OW27789  11.717   8.803   8.102
41986SOL    HW127790  11.704   8.746   8.178
41986SOL    HW227791  11.667   8.882   8.123
41987SOL     OW27792  10.417   7.623   7.135
41987SOL    HW127793  10.339   7.646   7.085
41987SOL    HW227794  10.428   7.529   7.121
41988SOL     OW27795  10.038   8.084  10.842
41988SOL    HW127796  10.015   8.058  10.753
41988SOL    HW227797   9.967   8.142  10.870
41989SOL     OW27798   7.703   4.272   4.043
41989SOL    HW127799   7.754   4.305   3.969
41989SOL    HW227800   7.617   4.253   4.007
41990SOL     OW27801   3.643  13.969   6.741
41990SOL    HW127802   3.604  13.936   6.660
41990SOL    HW227803   3.723  14.013   6.714
41991SOL     OW27804   4.848   0.668   2.884
41991SOL    HW127805   4.763   0.623   2.881
41991SOL    HW227806   4.912   0.597   2.887
41992SOL     OW27807   6.703   3.688  12.917
41992SOL    HW127808   6.710   3.755  12.984
41992SOL    HW227809   6.741   3.728  12.839
41993SOL     OW27810   5.559   5.281   0.997
41993SOL    HW127811   5.582   5.239   1.080
41993SOL    HW227812   5.529   5.210   0.941
41994SOL     OW27813  13.870   6.773  12.152
41994SOL    HW127814  13.942   6.812  12.202
41994SOL    HW227815  13.912   6.731  12.077
41995SOL     OW27816   6.851  13.409   0.273
41995SOL    HW127817   6.772  13.355   0.264
41995SOL    HW227818   6.920  13.347   0.296
41996SOL     OW27819   5.070   5.693  10.911
41996SOL    HW127820   5.064   5.762  10.977
41996SOL    HW227821   5.107   5.618  10.957
41997SOL     OW27822  14.822   0.004   2.698
41997SOL    HW127823  14.871  14.869   2.616
41997SOL    HW227824  14.747  14.817   2.686
41998SOL     OW27825   8.881   8.485  13.160
41998SOL    HW127826   8.825   8.536  13.219
41998SOL    HW227827   8.969   8.516  13.179
41999SOL     OW27828   9.955  13.560  12.313
41999SOL    HW127829   9.864  13.535  12.298
41999SOL    HW227830   9.970  13.541  12.406
42000SOL     OW27831   1.003   8.144  10.283
42000SOL    HW127832   0.977   8.138  10.191
42000SOL    HW227833   0.998   8.238  10.303
42001SOL     OW27834  11.075  12.266  11.923
42001SOL    HW127835  11.146  12.305  11.974
42001SOL    HW227836  11.108  12.180  11.897
42002SOL     OW27837   4.507   3.118  13.380
42002SOL    HW127838   4.503   3.202  13.333
42002SOL    HW227839   4.530   3.054  13.313
42003SOL     OW27840   4.849   0.495   4.090
42003SOL    HW127841   4.862   0.547   4.170
42003SOL    HW227842   4.754   0.481   4.087
42004SOL     OW27843  10.346   8.593   3.991
42004SOL    HW127844  10.269   8.539   4.002
42004SOL    HW227845  10.329   8.671   4.044
42005SOL     OW27846   0.122   6.777  10.692
42005SOL    HW127847   0.121   6.682  10.709
42005SOL    HW227848   0.032   6.797  10.666
42006SOL     OW27849   8.731   8.253   6.053
42006SOL    HW127850   8.653   8.239   5.999
42006SOL    HW227851   8.749   8.346   6.046
42007SOL     OW27852  11.879  10.049   4.754
42007SOL    HW127853  11.897  10.070   4.846
42007SOL    HW227854  11.789  10.076   4.740
42008SOL     OW27855   5.802   0.417   2.645
42008SOL    HW127856   5.821   0.468   2.566
42008SOL    HW227857   5.884   0.373   2.666
42009SOL     OW27858  13.336   3.875   9.528
42009SOL    HW127859  13.328   3.948   9.591
42009SOL    HW227860  13.250   3.833   9.531
42010SOL     OW27861   5.624   7.569   0.805
42010SOL    HW127862   5.589   7.521   0.881
42010SOL    HW227863   5.557   7.559   0.738
42011SOL     OW27864  12.249  11.857   5.776
42011SOL    HW127865  12.176  11.796   5.787
42011SOL    HW227866  12.208  11.943   5.779
42012SOL     OW27867   3.650   9.561   4.231
42012SOL    HW127868   3.723   9.600   4.183
42012SOL    HW227869   3.668   9.580   4.323
42013SOL     OW27870   1.668  12.921   3.570
42013SOL    HW127871   1.611  12.873   3.631
42013SOL    HW227872   1.608  12.978   3.522
42014SOL     OW27873   7.115  11.504   5.525
42014SOL    HW127874   7.130  11.565   5.597
42014SOL    HW227875   7.120  11.417   5.566
42015SOL     OW27876  11.608  12.066  12.237
42015SOL    HW127877  11.684  12.110  12.276
42015SOL    HW227878  11.561  12.028  12.311
42016SOL     OW27879   3.539  13.447  13.578
42016SOL    HW127880   3.578  13.534  13.565
42016SOL    HW227881   3.464  13.463  13.636
42017SOL     OW27882   1.820   7.067   7.969
42017SOL    HW127883   1.741   7.116   7.946
42017SOL    HW227884   1.887   7.098   7.908
42018SOL     OW27885  14.508  13.372  10.431
42018SOL    HW127886  14.485  13.297  10.486
42018SOL    HW227887  14.485  13.448  10.484
42019SOL     OW27888  12.912  11.118  12.641
42019SOL    HW127889  12.830  11.084  12.676
42019SOL    HW227890  12.892  11.141  12.550
42020SOL     OW27891   8.957   1.968   8.054
42020SOL    HW127892   8.920   1.890   8.094
42020SOL    HW227893   9.050   1.947   8.043
42021SOL     OW27894   6.327   2.401   7.079
42021SOL    HW127895   6.407   2.416   7.129
42021SOL    HW227896   6.357   2.376   6.992
42022SOL     OW27897  13.283   2.890  12.570
42022SOL    HW127898  13.204   2.915  12.522
42022SOL    HW227899  13.333   2.971  12.578
42023SOL     OW27900  13.875   7.972   4.960
42023SOL    HW127901  13.825   8.041   4.917
42023SOL    HW227902  13.835   7.891   4.931
42024SOL     OW27903  11.149  11.490  10.468
42024SOL    HW127904  11.229  11.495  10.519
42024SOL    HW227905  11.176  11.505  10.377
42025SOL     OW27906   0.060  12.656   4.217
42025SOL    HW127907   0.018  12.736   4.249
42025SOL    HW227908  14.860  12.593   4.211
42026SOL     OW27909  11.495   6.859   1.280
42026SOL    HW127910  11.584   6.894   1.271
42026SOL    HW227911  11.473   6.875   1.372
42027SOL     OW27912   8.889   8.577   4.948
42027SOL    HW127913   8.814   8.518   4.942
42027SOL    HW227914   8.853   8.657   4.987
42028SOL     OW27915  14.790  13.703   2.225
42028SOL    HW127916  14.776  13.734   2.314
42028SOL    HW227917   0.001  13.744   2.198
42029SOL     OW27918   4.660   7.599   7.934
42029SOL    HW127919   4.583   7.636   7.893
42029SOL    HW227920   4.718   7.673   7.948
42030SOL     OW27921   2.179  14.853  11.096
42030SOL    HW127922   2.234   0.018  11.028
42030SOL    HW227923   2.240  14.833  11.168
42031SOL     OW27924   2.757  10.724   9.736
42031SOL    HW127925   2.800  10.702   9.819
42031SOL    HW227926   2.783  10.814   9.720
42032SOL     OW27927   6.119   1.577   4.441
42032SOL    HW127928   6.057   1.589   4.513
42032SOL    HW227929   6.205   1.570   4.484
42033SOL     OW27930   6.997   1.744   4.985
42033SOL    HW127931   6.918   1.796   4.968
42033SOL    HW227932   7.060   1.807   5.020
42034SOL     OW27933  10.572   4.064  12.522
42034SOL    HW127934  10.603   4.121  12.592
42034SOL    HW227935  10.485   4.036  12.551
42035SOL     OW27936   0.266  12.740  11.407
42035SOL    HW127937   0.358  12.713  11.403
42035SOL    HW227938   0.217  12.659  11.398
42036SOL     OW27939   2.602   0.417  10.755
42036SOL    HW127940   2.548   0.418  10.676
42036SOL    HW227941   2.686   0.453  10.726
42037SOL     OW27942  11.053   6.105   0.128
42037SOL    HW127943  11.117   6.045   0.090
42037SOL    HW227944  11.103   6.185   0.144
42038SOL     OW27945   5.608   8.265   9.465
42038SOL    HW127946   5.521   8.305   9.470
42038SOL    HW227947   5.617   8.237   9.374
42039SOL     OW27948   2.220   6.970   3.164
42039SOL    HW127949   2.309   6.938   3.181
42039SOL    HW227950   2.169   6.940   3.239
42040SOL     OW27951   8.160  14.576  13.827
42040SOL    HW127952   8.220  14.641  13.864
42040SOL    HW227953   8.212  14.529  13.762
42041SOL     OW27954   1.809   3.867  13.287
42041SOL    HW127955   1.754   3.888  13.211
42041SOL    HW227956   1.858   3.948  13.304
42042SOL     OW27957   1.875   7.425   0.131
42042SOL    HW127958   1.814   7.492   0.099
42042SOL    HW227959   1.823   7.345   0.136
42043SOL     OW27960  12.759  10.489   3.448
42043SOL    HW127961  12.724  10.519   3.532
42043SOL    HW227962  12.732  10.557   3.386
42044SOL     OW27963  12.830  12.134   0.698
42044SOL    HW127964  12.787  12.123   0.613
42044SOL    HW227965  12.924  12.134   0.677
42045SOL     OW27966   8.601  10.560  14.207
42045SOL    HW127967   8.532  10.560  14.141
42045SOL    HW227968   8.676  10.600  14.163
42046SOL     OW27969   5.739   9.809   1.448
42046SOL    HW127970   5.777   9.775   1.367
42046SOL    HW227971   5.770   9.900   1.453
42047SOL     OW27972  12.138   6.923  10.627
42047SOL    HW127973  12.157   6.995  10.565
42047SOL    HW227974  12.138   6.845  10.572
42048SOL     OW27975   5.926   3.014   6.595
42048SOL    HW127976   6.002   2.960   6.571
42048SOL    HW227977   5.901   2.983   6.682
42049SOL     OW27978  12.900   9.245  13.569
42049SOL    HW127979  12.954   9.320  13.547
42049SOL    HW227980  12.886   9.200  13.485
42050SOL     OW27981  12.504  12.065   8.736
42050SOL    HW127982  12.480  11.993   8.677
42050SOL    HW227983  12.557  12.024   8.804
42051SOL     OW27984  11.071   2.819  11.155
42051SOL    HW127985  11.042   2.731  11.127
42051SOL    HW227986  11.089   2.809  11.249
42052SOL     OW27987   4.473   1.771   4.933
42052SOL    HW127988   4.497   1.681   4.911
42052SOL    HW227989   4.553   1.821   4.916
42053SOL     OW27990  13.841   4.143   9.062
42053SOL    HW127991  13.902   4.215   9.047
42053SOL    HW227992  13.795   4.167   9.142
42054SOL     OW27993   3.742   8.351   2.317
42054SOL    HW127994   3.783   8.355   2.230
42054SOL    HW227995   3.658   8.308   2.302
42055SOL     OW27996  11.668  12.671  10.749
42055SOL    HW127997  11.611  12.740  10.782
42055SOL    HW227998  11.637  12.592  10.793
42056SOL     OW27999  14.420  12.015  12.526
42056SOL    HW128000  14.330  12.032  12.497
42056SOL    HW228001  14.418  11.925  12.558
42057SOL     OW28002   8.884  13.506   7.887
42057SOL    HW128003   8.877  13.421   7.844
42057SOL    HW228004   8.906  13.486   7.978
42058SOL     OW28005   0.005   5.589   5.151
42058SOL    HW128006   0.070   5.544   5.206
42058SOL    HW228007   0.052   5.663   5.113
42059SOL     OW28008  13.132   6.451   0.292
42059SOL    HW128009  13.071   6.416   0.358
42059SOL    HW228010  13.217   6.453   0.337
42060SOL     OW28011   0.404   6.389  12.778
42060SOL    HW128012   0.481   6.349  12.739
42060SOL    HW228013   0.433   6.475  12.808
42061SOL     OW28014  11.455   1.928   1.438
42061SOL    HW128015  11.399   1.978   1.497
42061SOL    HW228016  11.530   1.902   1.491
42062SOL     OW28017  14.187  10.906   8.116
42062SOL    HW128018  14.163  10.880   8.205
42062SOL    HW228019  14.116  10.872   8.061
42063SOL     OW28020   2.556   1.591   4.132
42063SOL    HW128021   2.543   1.502   4.166
42063SOL    HW228022   2.642   1.589   4.091
42064SOL     OW28023   9.059   3.351   6.610
42064SOL    HW128024   8.984   3.291   6.604
42064SOL    HW228025   9.025   3.428   6.656
42065SOL     OW28026   1.177  14.405   5.833
42065SOL    HW128027   1.244  14.367   5.776
42065SOL    HW228028   1.222  14.418   5.917
42066SOL     OW28029   8.657   5.550   1.591
42066SOL    HW128030   8.579   5.606   1.585
42066SOL    HW228031   8.635   5.473   1.540
42067SOL     OW28032   0.088  12.485   7.967
42067SOL    HW128033   0.032  12.557   7.937
42067SOL    HW228034   0.045  12.406   7.936
42068SOL     OW28035   0.489   2.388   9.514
42068SOL    HW128036   0.451   2.429   9.436
42068SOL    HW228037   0.462   2.296   9.508
42069SOL     OW28038   3.103   7.722   8.794
42069SOL    HW128039   3.025   7.670   8.815
42069SOL    HW228040   3.070   7.796   8.742
42070SOL     OW28041   8.636   6.168   9.552
42070SOL    HW128042   8.725   6.203   9.553
42070SOL    HW228043   8.646   6.077   9.524
42071SOL     OW28044   6.026   9.054   2.669
42071SOL    HW128045   6.080   8.993   2.718
42071SOL    HW228046   5.937   9.037   2.700
42072SOL     OW28047   7.273  14.268  11.624
42072SOL    HW128048   7.344  14.203  11.623
42072SOL    HW228049   7.240  14.268  11.534
42073SOL     OW28050   1.166   3.592  12.319
42073SOL    HW128051   1.162   3.528  12.389
42073SOL    HW228052   1.229   3.556  12.256
42074SOL     OW28053   1.006  12.450   4.346
42074SOL    HW128054   1.058  12.391   4.291
42074SOL    HW228055   1.023  12.420   4.435
42075SOL     OW28056   9.064  13.129   5.336
42075SOL    HW128057   9.144  13.081   5.360
42075SOL    HW228058   9.093  13.219   5.326
42076SOL     OW28059   3.378   8.463   3.006
42076SOL    HW128060   3.394   8.489   3.097
42076SOL    HW228061   3.380   8.545   2.957
42077SOL     OW28062  13.855   5.267  12.112
42077SOL    HW128063  13.771   5.273  12.066
42077SOL    HW228064  13.854   5.340  12.174
42078SOL     OW28065   8.737   6.054  13.295
42078SOL    HW128066   8.655   6.020  13.260
42078SOL    HW228067   8.803   6.025  13.232
42079SOL     OW28068   6.374   4.701   4.152
42079SOL    HW128069   6.355   4.618   4.107
42079SOL    HW228070   6.396   4.761   4.081
42080SOL     OW28071  14.536   5.023   8.000
42080SOL    HW128072  14.515   4.961   8.070
42080SOL    HW228073  14.471   5.093   8.009
42081SOL     OW28074   8.749   5.813   9.688
42081SOL    HW128075   8.726   5.857   9.606
42081SOL    HW228076   8.814   5.870   9.728
42082SOL     OW28077   0.113   4.499   6.863
42082SOL    HW128078   0.117   4.404   6.866
42082SOL    HW228079   0.028   4.518   6.823
42083SOL     OW28080   4.146  13.490   6.282
42083SOL    HW128081   4.188  13.515   6.364
42083SOL    HW228082   4.218  13.458   6.227
42084SOL     OW28083  11.687  10.327   0.787
42084SOL    HW128084  11.735  10.368   0.715
42084SOL    HW228085  11.733  10.355   0.866
42085SOL     OW28086   1.219   3.711  10.137
42085SOL    HW128087   1.149   3.646  10.129
42085SOL    HW228088   1.184   3.776  10.197
42086SOL     OW28089   8.708  14.179  14.075
42086SOL    HW128090   8.754  14.101  14.108
42086SOL    HW228091   8.757  14.252  14.112
42087SOL     OW28092   7.879  10.507  12.076
42087SOL    HW128093   7.874  10.545  11.988
42087SOL    HW228094   7.889  10.413  12.061
42088SOL     OW28095   6.155   7.316   3.308
42088SOL    HW128096   6.159   7.383   3.376
42088SOL    HW228097   6.203   7.354   3.235
42089SOL     OW28098  14.778  10.014   0.470
42089SOL    HW128099  14.808  10.079   0.534
42089SOL    HW228100  14.858   9.980   0.430
42090SOL     OW28101   1.183  14.079  14.539
42090SOL    HW128102   1.100  14.127  14.536
42090SOL    HW228103   1.187  14.045  14.629
42091SOL     OW28104   2.841   8.535  12.092
42091SOL    HW128105   2.827   8.453  12.139
42091SOL    HW228106   2.754   8.558  12.057
42092SOL     OW28107   9.597   3.969   0.786
42092SOL    HW128108   9.566   3.994   0.873
42092SOL    HW228109   9.554   3.885   0.768
42093SOL     OW28110   4.560   1.428   5.512
42093SOL    HW128111   4.590   1.350   5.559
42093SOL    HW228112   4.507   1.395   5.440
42094SOL     OW28113   4.454   0.270   9.789
42094SOL    HW128114   4.425   0.358   9.764
42094SOL    HW228115   4.426   0.260   9.880
42095SOL     OW28116   7.336   5.499   8.653
42095SOL    HW128117   7.326   5.508   8.747
42095SOL    HW228118   7.429   5.480   8.640
42096SOL     OW28119  13.694  13.510  12.799
42096SOL    HW128120  13.672  13.594  12.839
42096SOL    HW228121  13.614  13.484  12.752
42097SOL     OW28122  10.198  14.111   2.784
42097SOL    HW128123  10.217  14.203   2.801
42097SOL    HW228124  10.252  14.063   2.846
42098SOL     OW28125  14.150   0.411   8.165
42098SOL    HW128126  14.097   0.488   8.185
42098SOL    HW228127  14.147   0.358   8.245
42099SOL     OW28128  12.813  14.110   8.541
42099SOL    HW128129  12.889  14.057   8.568
42099SOL    HW228130  12.812  14.105   8.446
42100SOL     OW28131   5.281   5.224   9.658
42100SOL    HW128132   5.237   5.286   9.600
42100SOL    HW228133   5.221   5.214   9.731
42101SOL     OW28134   6.805  12.175   9.275
42101SOL    HW128135   6.771  12.093   9.309
42101SOL    HW228136   6.739  12.240   9.297
42102SOL     OW28137   8.250  10.070   4.177
42102SOL    HW128138   8.275  10.047   4.267
42102SOL    HW228139   8.287  10.157   4.163
42103SOL     OW28140  11.537  14.626   8.685
42103SOL    HW128141  11.599  14.662   8.748
42103SOL    HW228142  11.468  14.586   8.738
42104SOL     OW28143   9.300   9.869  11.709
42104SOL    HW128144   9.388   9.868  11.746
42104SOL    HW228145   9.313   9.896  11.618
42105SOL     OW28146   5.715   3.267  12.654
42105SOL    HW128147   5.805   3.263  12.687
42105SOL    HW228148   5.680   3.349  12.690
42106SOL     OW28149   9.050  10.389   9.372
42106SOL    HW128150   9.068  10.475   9.334
42106SOL    HW228151   9.023  10.335   9.298
42107SOL     OW28152  13.918  10.235   7.312
42107SOL    HW128153  14.006  10.198   7.315
42107SOL    HW228154  13.861  10.158   7.303
42108SOL     OW28155   2.666  13.783  13.131
42108SOL    HW128156   2.623  13.698  13.125
42108SOL    HW228157   2.699  13.800  13.043
42109SOL     OW28158  11.982  13.302   8.827
42109SOL    HW128159  11.927  13.230   8.859
42109SOL    HW228160  12.026  13.266   8.750
42110SOL     OW28161   4.381  10.329  12.509
42110SOL    HW128162   4.443  10.272  12.555
42110SOL    HW228163   4.334  10.271  12.449
42111SOL     OW28164   1.890   2.010  13.430
42111SOL    HW128165   1.813   2.002  13.486
42111SOL    HW228166   1.860   1.982  13.344
42112SOL     OW28167  14.533   4.394   4.656
42112SOL    HW128168  14.568   4.451   4.587
42112SOL    HW228169  14.484   4.452   4.714
42113SOL     OW28170   7.448   6.009   4.332
42113SOL    HW128171   7.369   5.960   4.309
42113SOL    HW228172   7.437   6.095   4.292
42114SOL     OW28173   4.613  12.866  11.770
42114SOL    HW128174   4.601  12.920  11.692
42114SOL    HW228175   4.536  12.884  11.824
42115SOL     OW28176   8.332  10.695   3.924
42115SOL    HW128177   8.370  10.753   3.989
42115SOL    HW228178   8.347  10.740   3.840
42116SOL     OW28179  12.977   0.816   5.125
42116SOL    HW128180  12.901   0.873   5.133
42116SOL    HW228181  12.958   0.760   5.050
42117SOL     OW28182   1.692  13.083  10.154
42117SOL    HW128183   1.671  13.064  10.245
42117SOL    HW228184   1.778  13.042  10.140
42118SOL     OW28185   5.587  14.268   4.876
42118SOL    HW128186   5.552  14.198   4.930
42118SOL    HW228187   5.682  14.252   4.876
42119SOL     OW28188   8.453   5.246   0.573
42119SOL    HW128189   8.525   5.218   0.516
42119SOL    HW228190   8.411   5.164   0.600
42120SOL     OW28191   0.491   1.559  10.627
42120SOL    HW128192   0.526   1.618  10.560
42120SOL    HW228193   0.491   1.611  10.707
42121SOL     OW28194   2.593   6.317   8.244
42121SOL    HW128195   2.681   6.354   8.253
42121SOL    HW228196   2.539   6.371   8.301
42122SOL     OW28197   4.133   1.627   3.177
42122SOL    HW128198   4.114   1.551   3.231
42122SOL    HW228199   4.066   1.626   3.109
42123SOL     OW28200  13.468   3.809  13.008
42123SOL    HW128201  13.432   3.783  13.092
42123SOL    HW228202  13.514   3.891  13.026
42124SOL     OW28203   7.882   1.244  11.248
42124SOL    HW128204   7.918   1.294  11.174
42124SOL    HW228205   7.959   1.208  11.292
42125SOL     OW28206   4.671   3.276   9.563
42125SOL    HW128207   4.610   3.319   9.624
42125SOL    HW228208   4.743   3.247   9.618
42126SOL     OW28209   2.001  12.361  10.061
42126SOL    HW128210   2.059  12.331   9.991
42126SOL    HW228211   2.058  12.375  10.136
42127SOL     OW28212  10.836   9.404  12.354
42127SOL    HW128213  10.864   9.404  12.263
42127SOL    HW228214  10.754   9.453  12.354
42128SOL     OW28215  13.402  11.672   6.028
42128SOL    HW128216  13.329  11.698   6.085
42128SOL    HW228217  13.393  11.727   5.950
42129SOL     OW28218   9.855   2.453   9.087
42129SOL    HW128219   9.772   2.460   9.134
42129SOL    HW228220   9.874   2.542   9.058
42130SOL     OW28221  14.196  10.404   8.405
42130SOL    HW128222  14.287  10.411   8.375
42130SOL    HW228223  14.200  10.426   8.498
42131SOL     OW28224  13.433   0.089   1.443
42131SOL    HW128225  13.353   0.141   1.437
42131SOL    HW228226  13.419   0.033   1.520
42132SOL     OW28227   7.813   8.149   3.651
42132SOL    HW128228   7.763   8.188   3.722
42132SOL    HW228229   7.902   8.182   3.662
42133SOL     OW28230   1.933  12.840  13.117
42133SOL    HW128231   1.928  12.761  13.170
42133SOL    HW228232   1.921  12.810  13.027
42134SOL     OW28233   2.555  12.976   3.748
42134SOL    HW128234   2.486  13.038   3.725
42134SOL    HW228235   2.636  13.025   3.740
42135SOL     OW28236   9.599  14.729   5.219
42135SOL    HW128237   9.659  14.747   5.292
42135SOL    HW228238   9.586  14.635   5.222
42136SOL     OW28239  10.712   4.359   6.855
42136SOL    HW128240  10.783   4.296   6.869
42136SOL    HW228241  10.669   4.329   6.775
42137SOL     OW28242  12.986  12.972  10.347
42137SOL    HW128243  13.001  12.993  10.439
42137SOL    HW228244  12.893  12.947  10.344
42138SOL     OW28245   1.507  14.007   9.060
42138SOL    HW128246   1.520  13.917   9.090
42138SOL    HW228247   1.531  14.061   9.135
42139SOL     OW28248   9.418  10.343   1.751
42139SOL    HW128249   9.437  10.429   1.712
42139SOL    HW228250   9.378  10.363   1.835
42140SOL     OW28251   3.340   5.442  14.608
42140SOL    HW128252   3.398   5.372  14.578
42140SOL    HW228253   3.336   5.430  14.703
42141SOL     OW28254   1.172  10.930  11.287
42141SOL    HW128255   1.246  10.987  11.270
42141SOL    HW228256   1.109  10.986  11.333
42142SOL     OW28257   2.190   1.897   6.304
42142SOL    HW128258   2.264   1.932   6.354
42142SOL    HW228259   2.115   1.905   6.363
42143SOL     OW28260  14.552   7.892  14.224
42143SOL    HW128261  14.587   7.805  14.208
42143SOL    HW228262  14.493   7.882  14.299
42144SOL     OW28263   2.842   3.252   2.979
42144SOL    HW128264   2.928   3.262   2.937
42144SOL    HW228265   2.862   3.216   3.065
42145SOL     OW28266   4.896  13.075  12.484
42145SOL    HW128267   4.828  13.038  12.539
42145SOL    HW228268   4.930  13.001  12.433
42146SOL     OW28269   8.155  12.012   8.339
42146SOL    HW128270   8.111  12.097   8.330
42146SOL    HW228271   8.236  12.033   8.386
42147SOL     OW28272   0.324   7.705   6.355
42147SOL    HW128273   0.311   7.711   6.450
42147SOL    HW228274   0.413   7.671   6.346
42148SOL     OW28275  14.524   7.322   9.397
42148SOL    HW128276  14.535   7.399   9.453
42148SOL    HW228277  14.481   7.258   9.452
42149SOL     OW28278   2.091   3.648  10.338
42149SOL    HW128279   2.067   3.682  10.424
42149SOL    HW228280   2.174   3.692  10.317
42150SOL     OW28281   3.826   1.506   0.900
42150SOL    HW128282   3.817   1.505   0.805
42150SOL    HW228283   3.740   1.535   0.932
42151SOL     OW28284   6.957  11.934   2.519
42151SOL    HW128285   6.887  11.898   2.574
42151SOL    HW228286   6.932  12.025   2.504
42152SOL     OW28287   7.051   9.833  12.378
42152SOL    HW128288   7.043   9.909  12.436
42152SOL    HW228289   7.144   9.811  12.380
42153SOL     OW28290   7.782   0.735  11.287
42153SOL    HW128291   7.772   0.829  11.301
42153SOL    HW228292   7.783   0.698  11.376
42154SOL     OW28293   9.271  14.476  11.117
42154SOL    HW128294   9.199  14.449  11.060
42154SOL    HW228295   9.233  14.477  11.205
42155SOL     OW28296  12.702  12.943  10.341
42155SOL    HW128297  12.680  12.851  10.356
42155SOL    HW228298  12.634  12.974  10.281
42156SOL     OW28299   4.605   3.543   9.702
42156SOL    HW128300   4.627   3.583   9.786
42156SOL    HW228301   4.674   3.572   9.643
42157SOL     OW28302   3.045   7.748   7.989
42157SOL    HW128303   3.062   7.820   8.050
42157SOL    HW228304   3.007   7.791   7.912
42158SOL     OW28305   6.934   7.889   9.807
42158SOL    HW128306   6.838   7.887   9.813
42158SOL    HW228307   6.962   7.808   9.851
42159SOL     OW28308   1.464   3.521   2.830
42159SOL    HW128309   1.480   3.597   2.775
42159SOL    HW228310   1.509   3.541   2.912
42160SOL     OW28311   8.791   2.443   0.153
42160SOL    HW128312   8.745   2.385   0.213
42160SOL    HW228313   8.850   2.386   0.104
42161SOL     OW28314   9.730   4.064   2.348
42161SOL    HW128315   9.738   4.159   2.354
42161SOL    HW228316   9.820   4.034   2.333
42162SOL     OW28317   0.381   3.055  11.122
42162SOL    HW128318   0.346   3.003  11.049
42162SOL    HW228319   0.314   3.122  11.138
42163SOL     OW28320   6.986   7.929   6.044
42163SOL    HW128321   6.988   8.004   5.985
42163SOL    HW228322   6.896   7.898   6.039
42164SOL     OW28323   0.104   9.722   0.975
42164SOL    HW128324   0.145   9.806   0.956
42164SOL    HW228325   0.058   9.698   0.895
42165SOL     OW28326   1.854  13.511   5.332
42165SOL    HW128327   1.811  13.591   5.301
42165SOL    HW228328   1.783  13.451   5.350
42166SOL     OW28329  13.177   4.239  14.387
42166SOL    HW128330  13.093   4.283  14.374
42166SOL    HW228331  13.224   4.296  14.449
42167SOL     OW28332   1.970   5.156   8.663
42167SOL    HW128333   2.030   5.162   8.738
42167SOL    HW228334   1.891   5.116   8.700
42168SOL     OW28335   1.864   4.789   9.517
42168SOL    HW128336   1.912   4.706   9.506
42168SOL    HW228337   1.772   4.764   9.506
42169SOL     OW28338  11.869  10.217   3.776
42169SOL    HW128339  11.873  10.129   3.813
42169SOL    HW228340  11.783  10.222   3.733
42170SOL     OW28341   2.697   1.376   9.477
42170SOL    HW128342   2.770   1.436   9.492
42170SOL    HW228343   2.622   1.419   9.517
42171SOL     OW28344  11.042  11.343   3.962
42171SOL    HW128345  11.064  11.250   3.973
42171SOL    HW228346  11.123  11.389   3.986
42172SOL     OW28347   0.869   4.942  10.504
42172SOL    HW128348   0.953   4.986  10.489
42172SOL    HW228349   0.892   4.851  10.521
42173SOL     OW28350   7.189  13.357   1.333
42173SOL    HW128351   7.140  13.357   1.415
42173SOL    HW228352   7.178  13.268   1.298
42174SOL     OW28353   6.906   0.454  11.584
42174SOL    HW128354   6.915   0.538  11.629
42174SOL    HW228355   6.929   0.389  11.650
42175SOL     OW28356   7.356  10.142  10.690
42175SOL    HW128357   7.351  10.047  10.679
42175SOL    HW228358   7.266  10.172  10.683
42176SOL     OW28359  12.923   6.894   8.227
42176SOL    HW128360  12.836   6.907   8.264
42176SOL    HW228361  12.931   6.800   8.216
42177SOL     OW28362   3.538   3.565   3.146
42177SOL    HW128363   3.574   3.652   3.157
42177SOL    HW228364   3.572   3.514   3.219
42178SOL     OW28365   4.194   6.165   6.605
42178SOL    HW128366   4.277   6.213   6.615
42178SOL    HW228367   4.131   6.232   6.578
42179SOL     OW28368  13.413  13.096   3.737
42179SOL    HW128369  13.410  13.019   3.679
42179SOL    HW228370  13.371  13.165   3.687
42180SOL     OW28371  10.825   8.242   5.137
42180SOL    HW128372  10.881   8.256   5.060
42180SOL    HW228373  10.836   8.149   5.158
42181SOL     OW28374  10.939   2.779   6.316
42181SOL    HW128375  10.913   2.839   6.246
42181SOL    HW228376  10.919   2.827   6.397
42182SOL     OW28377   7.028  11.065   6.344
42182SOL    HW128378   6.985  11.120   6.409
42182SOL    HW228379   7.027  10.977   6.383
42183SOL     OW28380   1.818  11.890   6.142
42183SOL    HW128381   1.810  11.800   6.173
42183SOL    HW228382   1.877  11.932   6.204
42184SOL     OW28383   8.970   2.515  11.168
42184SOL    HW128384   9.005   2.429  11.145
42184SOL    HW228385   8.951   2.556  11.083
42185SOL     OW28386   5.684   3.062   4.965
42185SOL    HW128387   5.651   2.973   4.968
42185SOL    HW228388   5.608   3.117   4.983
42186SOL     OW28389   6.142  11.134   7.806
42186SOL    HW128390   6.163  11.052   7.762
42186SOL    HW228391   6.112  11.107   7.893
42187SOL     OW28392   5.841   2.963   2.946
42187SOL    HW128393   5.756   2.922   2.932
42187SOL    HW228394   5.891   2.898   2.996
42188SOL     OW28395  13.115   3.524  10.884
42188SOL    HW128396  13.059   3.450  10.905
42188SOL    HW228397  13.060   3.583  10.833
42189SOL     OW28398   9.769   0.647   5.778
42189SOL    HW128399   9.756   0.727   5.829
42189SOL    HW228400   9.782   0.678   5.688
42190SOL     OW28401   1.001   0.694   1.365
42190SOL    HW128402   1.080   0.666   1.412
42190SOL    HW228403   1.033   0.737   1.287
42191SOL     OW28404   6.027   4.485   0.963
42191SOL    HW128405   5.957   4.519   0.907
42191SOL    HW228406   6.067   4.415   0.912
42192SOL     OW28407   2.110   1.899   5.244
42192SOL    HW128408   2.049   1.828   5.265
42192SOL    HW228409   2.173   1.859   5.184
42193SOL     OW28410  11.123   6.726   4.624
42193SOL    HW128411  11.155   6.816   4.633
42193SOL    HW228412  11.113   6.714   4.529
42194SOL     OW28413   2.291   5.810  11.869
42194SOL    HW128414   2.227   5.799  11.940
42194SOL    HW228415   2.351   5.877  11.901
42195SOL     OW28416   9.071   0.502   7.895
42195SOL    HW128417   9.006   0.461   7.952
42195SOL    HW228418   9.075   0.446   7.818
42196SOL     OW28419   6.656   8.750   3.397
42196SOL    HW128420   6.733   8.723   3.447
42196SOL    HW228421   6.654   8.690   3.323
42197SOL     OW28422  12.237   8.978   2.377
42197SOL    HW128423  12.144   8.961   2.369
42197SOL    HW228424  12.261   8.944   2.463
42198SOL     OW28425  11.689  12.855   1.168
42198SOL    HW128426  11.740  12.907   1.229
42198SOL    HW228427  11.672  12.913   1.094
42199SOL     OW28428   6.607   6.895  13.552
42199SOL    HW128429   6.607   6.857  13.464
42199SOL    HW228430   6.596   6.989  13.537
42200SOL     OW28431  11.930  14.139   5.741
42200SOL    HW128432  11.925  14.183   5.826
42200SOL    HW228433  11.876  14.060   5.751
42201SOL     OW28434   6.708  11.229   7.102
42201SOL    HW128435   6.675  11.171   7.033
42201SOL    HW228436   6.647  11.303   7.102
42202SOL     OW28437  13.979   5.571   8.323
42202SOL    HW128438  13.983   5.622   8.242
42202SOL    HW228439  14.063   5.587   8.366
42203SOL     OW28440  12.221   5.014  12.893
42203SOL    HW128441  12.126   5.020  12.879
42203SOL    HW228442  12.251   5.105  12.898
42204SOL     OW28443   7.379  14.571   4.896
42204SOL    HW128444   7.350  14.480   4.898
42204SOL    HW228445   7.346  14.609   4.978
42205SOL     OW28446   8.502  12.167   8.141
42205SOL    HW128447   8.449  12.166   8.061
42205SOL    HW228448   8.460  12.102   8.198
42206SOL     OW28449   3.531   4.892   8.103
42206SOL    HW128450   3.616   4.893   8.059
42206SOL    HW228451   3.532   4.968   8.160
42207SOL     OW28452  11.830   8.363   5.790
42207SOL    HW128453  11.908   8.418   5.800
42207SOL    HW228454  11.757   8.425   5.797
42208SOL     OW28455  14.368   4.792  14.532
42208SOL    HW128456  14.339   4.714  14.485
42208SOL    HW228457  14.462   4.781  14.541
42209SOL     OW28458   4.038   0.719   8.379
42209SOL    HW128459   4.095   0.719   8.302
42209SOL    HW228460   3.951   0.701   8.343
42210SOL     OW28461  11.061   2.114  13.322
42210SOL    HW128462  11.087   2.139  13.411
42210SOL    HW228463  10.971   2.146  13.314
42211SOL     OW28464  12.528   1.912   2.775
42211SOL    HW128465  12.525   1.954   2.862
42211SOL    HW228466  12.621   1.896   2.760
42212SOL     OW28467   1.773  13.548   7.465
42212SOL    HW128468   1.679  13.567   7.467
42212SOL    HW228469   1.790  13.501   7.547
42213SOL     OW28470   2.793   2.223   8.963
42213SOL    HW128471   2.736   2.155   8.999
42213SOL    HW228472   2.861   2.235   9.030
42214SOL     OW28473   1.933  11.224  10.052
42214SOL    HW128474   1.986  11.265  10.121
42214SOL    HW228475   1.927  11.292   9.984
42215SOL     OW28476   2.334   9.339   8.383
42215SOL    HW128477   2.286   9.395   8.445
42215SOL    HW228478   2.397   9.398   8.341
42216SOL     OW28479   3.460   9.475  13.497
42216SOL    HW128480   3.442   9.384  13.475
42216SOL    HW228481   3.525   9.504  13.433
42217SOL     OW28482   0.288   3.597   5.901
42217SOL    HW128483   0.198   3.574   5.879
42217SOL    HW228484   0.293   3.691   5.887
42218SOL     OW28485   3.911  10.815   0.171
42218SOL    HW128486   3.905  10.839   0.079
42218SOL    HW228487   3.930  10.897   0.217
42219SOL     OW28488   4.288   2.379   6.303
42219SOL    HW128489   4.367   2.343   6.263
42219SOL    HW228490   4.317   2.411   6.389
42220SOL     OW28491   1.223   6.608  12.272
42220SOL    HW128492   1.146   6.631  12.219
42220SOL    HW228493   1.293   6.594  12.209
42221SOL     OW28494   9.822   9.071  10.459
42221SOL    HW128495   9.746   9.073  10.518
42221SOL    HW228496   9.848   9.162  10.450
42222SOL     OW28497   8.731   2.449   8.885
42222SOL    HW128498   8.730   2.537   8.847
42222SOL    HW228499   8.760   2.463   8.975
42223SOL     OW28500   3.609   4.515   7.698
42223SOL    HW128501   3.573   4.525   7.786
42223SOL    HW228502   3.669   4.440   7.705
42224SOL     OW28503   8.803   9.675  12.908
42224SOL    HW128504   8.855   9.687  12.829
42224SOL    HW228505   8.719   9.716  12.888
42225SOL     OW28506   6.427   9.021  11.161
42225SOL    HW128507   6.472   9.078  11.223
42225SOL    HW228508   6.489   9.009  11.089
42226SOL     OW28509  11.200  12.612   9.895
42226SOL    HW128510  11.111  12.619   9.860
42226SOL    HW228511  11.228  12.525   9.869
42227SOL     OW28512   3.994   3.182   6.310
42227SOL    HW128513   3.906   3.159   6.279
42227SOL    HW228514   3.980   3.237   6.387
42228SOL     OW28515   3.497   5.199   0.093
42228SOL    HW128516   3.549   5.162   0.021
42228SOL    HW228517   3.553   5.189   0.170
42229SOL     OW28518   9.616   4.229  11.982
42229SOL    HW128519   9.655   4.149  11.947
42229SOL    HW228520   9.523   4.220  11.963
42230SOL     OW28521   0.854   9.145   8.149
42230SOL    HW128522   0.928   9.085   8.151
42230SOL    HW228523   0.844   9.168   8.057
42231SOL     OW28524  13.337   8.712  11.535
42231SOL    HW128525  13.432   8.705  11.548
42231SOL    HW228526  13.306   8.622  11.532
42232SOL     OW28527   4.148   0.569   0.955
42232SOL    HW128528   4.061   0.564   0.994
42232SOL    HW228529   4.188   0.484   0.972
42233SOL     OW28530   8.550  13.198   2.449
42233SOL    HW128531   8.461  13.216   2.478
42233SOL    HW228532   8.555  13.102   2.446
42234SOL     OW28533  10.681   8.279  10.964
42234SOL    HW128534  10.766   8.319  10.947
42234SOL    HW228535  10.648   8.255  10.877
42235SOL     OW28536   7.969  10.295   1.185
42235SOL    HW128537   8.050  10.289   1.235
42235SOL    HW228538   7.993  10.266   1.097
42236SOL     OW28539   3.462   5.464   0.286
42236SOL    HW128540   3.533   5.401   0.303
42236SOL    HW228541   3.491   5.511   0.208
42237SOL     OW28542   6.844   9.195   8.780
42237SOL    HW128543   6.882   9.108   8.762
42237SOL    HW228544   6.881   9.251   8.712
42238SOL     OW28545  11.844  13.414   2.733
42238SOL    HW128546  11.877  13.497   2.766
42238SOL    HW228547  11.767  13.438   2.681
42239SOL     OW28548   0.414  10.480   2.467
42239SOL    HW128549   0.470  10.463   2.543
42239SOL    HW228550   0.383  10.394   2.440
42240SOL     OW28551   6.031   4.241   4.860
42240SOL    HW128552   6.017   4.324   4.814
42240SOL    HW228553   6.040   4.176   4.789
42241SOL     OW28554   9.616  12.224  14.713
42241SOL    HW128555   9.621  12.282  14.638
42241SOL    HW228556   9.536  12.250  14.759
42242SOL     OW28557   8.924  10.526  12.873
42242SOL    HW128558   8.966  10.444  12.900
42242SOL    HW228559   8.949  10.588  12.942
42243SOL     OW28560   1.664   8.969   0.868
42243SOL    HW128561   1.594   9.000   0.811
42243SOL    HW228562   1.740   9.023   0.846
42244SOL     OW28563   9.776   9.748   6.193
42244SOL    HW128564   9.793   9.670   6.244
42244SOL    HW228565   9.730   9.717   6.115
42245SOL     OW28566  12.005   0.153  11.281
42245SOL    HW128567  11.935   0.089  11.295
42245SOL    HW228568  11.959   0.234  11.262
42246SOL     OW28569   9.797   3.355   8.567
42246SOL    HW128570   9.800   3.401   8.483
42246SOL    HW228571   9.855   3.280   8.556
42247SOL     OW28572   3.948   4.724   8.449
42247SOL    HW128573   3.973   4.809   8.413
42247SOL    HW228574   3.853   4.729   8.460
42248SOL     OW28575   0.722  11.648   1.005
42248SOL    HW128576   0.647  11.667   0.949
42248SOL    HW228577   0.788  11.613   0.945
42249SOL     OW28578   6.964   0.320   7.117
42249SOL    HW128579   6.986   0.340   7.026
42249SOL    HW228580   6.881   0.273   7.112
42250SOL     OW28581   0.446   9.189   2.454
42250SOL    HW128582   0.445   9.108   2.505
42250SOL    HW228583   0.391   9.171   2.378
42251SOL     OW28584  14.402  10.134   8.604
42251SOL    HW128585  14.396  10.229   8.614
42251SOL    HW228586  14.442  10.121   8.519
42252SOL     OW28587  13.731   7.422  10.762
42252SOL    HW128588  13.670   7.402  10.691
42252SOL    HW228589  13.788   7.489  10.726
42253SOL     OW28590  13.071  12.449   5.886
42253SOL    HW128591  13.022  12.384   5.937
42253SOL    HW228592  13.037  12.533   5.916
42254SOL     OW28593   8.916   3.216  11.658
42254SOL    HW128594   8.987   3.211  11.594
42254SOL    HW228595   8.868   3.296  11.635
42255SOL     OW28596   5.953   3.422  12.450
42255SOL    HW128597   5.869   3.381  12.430
42255SOL    HW228598   5.933   3.481  12.523
42256SOL     OW28599   7.593   0.878  13.745
42256SOL    HW128600   7.522   0.854  13.686
42256SOL    HW228601   7.549   0.915  13.821
42257SOL     OW28602   1.027  10.744   2.723
42257SOL    HW128603   1.078  10.700   2.654
42257SOL    HW228604   0.999  10.826   2.684
42258SOL     OW28605   7.568   9.583  11.687
42258SOL    HW128606   7.519   9.539  11.617
42258SOL    HW228607   7.583   9.671  11.654
42259SOL     OW28608   0.442  14.853   2.442
42259SOL    HW128609   0.449  14.847   2.347
42259SOL    HW228610   0.379   0.052   2.457
42260SOL     OW28611   2.373   0.325  14.247
42260SOL    HW128612   2.433   0.259  14.282
42260SOL    HW228613   2.398   0.406  14.292
42261SOL     OW28614  12.952   3.694  14.202
42261SOL    HW128615  13.039   3.709  14.164
42261SOL    HW228616  12.910   3.781  14.201
42262SOL     OW28617  12.660  11.246   2.447
42262SOL    HW128618  12.746  11.240   2.405
42262SOL    HW228619  12.600  11.268   2.377
42263SOL     OW28620   0.421  13.325   9.783
42263SOL    HW128621   0.368  13.387   9.732
42263SOL    HW228622   0.503  13.320   9.735
42264SOL     OW28623   6.120  12.730   7.848
42264SOL    HW128624   6.181  12.781   7.795
42264SOL    HW228625   6.049  12.707   7.788
42265SOL     OW28626   2.823   9.215   7.430
42265SOL    HW128627   2.767   9.191   7.357
42265SOL    HW228628   2.797   9.304   7.453
42266SOL     OW28629   8.456   4.390   4.316
42266SOL    HW128630   8.443   4.334   4.393
42266SOL    HW228631   8.456   4.328   4.242
42267SOL     OW28632  14.601   7.783   9.160
42267SOL    HW128633  14.583   7.853   9.223
42267SOL    HW228634  14.691   7.758   9.178
42268SOL     OW28635  14.563  12.447  13.620
42268SOL    HW128636  14.630  12.394  13.662
42268SOL    HW228637  14.555  12.411  13.532
42269SOL     OW28638  11.295  10.163   1.200
42269SOL    HW128639  11.390  10.176   1.191
42269SOL    HW228640  11.268  10.125   1.117
42270SOL     OW28641  11.944  13.936  12.525
42270SOL    HW128642  11.861  13.965  12.563
42270SOL    HW228643  11.926  13.926  12.432
42271SOL     OW28644   6.646  12.946   6.409
42271SOL    HW128645   6.726  12.994   6.431
42271SOL    HW228646   6.590  13.012   6.368
42272SOL     OW28647  14.748   9.414   9.863
42272SOL    HW128648  14.691   9.337   9.861
42272SOL    HW228649  14.729   9.456   9.947
42273SOL     OW28650   2.642  12.652  11.272
42273SOL    HW128651   2.561  12.644  11.222
42273SOL    HW228652   2.624  12.721  11.336
42274SOL     OW28653   6.859  13.665   3.056
42274SOL    HW128654   6.871  13.655   3.150
42274SOL    HW228655   6.822  13.582   3.027
42275SOL     OW28656   4.256   0.769   3.879
42275SOL    HW128657   4.228   0.709   3.810
42275SOL    HW228658   4.174   0.806   3.912
42276SOL     OW28659   4.982  14.866   2.794
42276SOL    HW128660   5.038  14.870   2.717
42276SOL    HW228661   4.969  14.772   2.809
42277SOL     OW28662  12.171   5.904   6.748
42277SOL    HW128663  12.139   5.820   6.781
42277SOL    HW228664  12.093   5.947   6.713
42278SOL     OW28665   0.330   3.371  11.992
42278SOL    HW128666   0.265   3.334  11.933
42278SOL    HW228667   0.312   3.465  11.992
42279SOL     OW28668   8.141   1.763  11.017
42279SOL    HW128669   8.053   1.726  11.029
42279SOL    HW228670   8.126   1.853  10.991
42280SOL     OW28671   9.965   2.246   9.916
42280SOL    HW128672   9.937   2.291   9.995
42280SOL    HW228673   9.917   2.290   9.845
42281SOL     OW28674   5.736  13.538   8.901
42281SOL    HW128675   5.749  13.545   8.806
42281SOL    HW228676   5.645  13.562   8.915
42282SOL     OW28677   9.846   7.054   8.752
42282SOL    HW128678   9.921   7.113   8.745
42282SOL    HW228679   9.872   6.989   8.817
42283SOL     OW28680   6.596   7.247   9.683
42283SOL    HW128681   6.609   7.299   9.763
42283SOL    HW228682   6.523   7.291   9.639
42284SOL     OW28683   1.166  14.685   9.352
42284SOL    HW128684   1.216  14.761   9.381
42284SOL    HW228685   1.206  14.611   9.398
42285SOL     OW28686   1.092   4.174   6.732
42285SOL    HW128687   1.123   4.207   6.648
42285SOL    HW228688   1.007   4.134   6.712
42286SOL     OW28689   1.072   2.026   5.202
42286SOL    HW128690   1.141   2.070   5.152
42286SOL    HW228691   1.048   2.089   5.270
42287SOL     OW28692  12.698   1.927   1.841
42287SOL    HW128693  12.655   1.932   1.926
42287SOL    HW228694  12.683   1.836   1.812
42288SOL     OW28695   6.922  11.374   8.086
42288SOL    HW128696   6.860  11.447   8.097
42288SOL    HW228697   7.008  11.416   8.082
42289SOL     OW28698  11.594   1.002   6.047
42289SOL    HW128699  11.532   1.056   5.998
42289SOL    HW228700  11.646   0.958   5.980
42290SOL     OW28701   2.562   7.726   4.558
42290SOL    HW128702   2.609   7.687   4.632
42290SOL    HW228703   2.509   7.654   4.523
42291SOL     OW28704   2.951   4.652   7.684
42291SOL    HW128705   2.995   4.669   7.767
42291SOL    HW228706   2.996   4.710   7.621
42292SOL     OW28707  10.325  10.684   8.069
42292SOL    HW128708  10.251  10.724   8.114
42292SOL    HW228709  10.355  10.750   8.007
42293SOL     OW28710  10.942   0.246  13.336
42293SOL    HW128711  10.899   0.320  13.379
42293SOL    HW228712  10.888   0.170  13.360
42294SOL     OW28713  13.343   7.773   4.613
42294SOL    HW128714  13.344   7.855   4.661
42294SOL    HW228715  13.367   7.707   4.678
42295SOL     OW28716   5.102   2.324   1.487
42295SOL    HW128717   5.140   2.252   1.536
42295SOL    HW228718   5.107   2.399   1.546
42296SOL     OW28719  14.559  10.230   4.509
42296SOL    HW128720  14.487  10.247   4.449
42296SOL    HW228721  14.539  10.282   4.586
42297SOL     OW28722  12.483   3.432  11.396
42297SOL    HW128723  12.461   3.345  11.429
42297SOL    HW228724  12.546   3.467  11.459
42298SOL     OW28725  13.755   3.215   6.412
42298SOL    HW128726  13.762   3.294   6.464
42298SOL    HW228727  13.724   3.245   6.326
42299SOL     OW28728  12.017   7.963   7.199
42299SOL    HW128729  11.968   7.916   7.131
42299SOL    HW228730  11.961   8.038   7.221
42300SOL     OW28731   3.829   4.973   3.755
42300SOL    HW128732   3.798   5.051   3.800
42300SOL    HW228733   3.886   4.930   3.818
42301SOL     OW28734   2.518   4.764   2.457
42301SOL    HW128735   2.448   4.829   2.458
42301SOL    HW228736   2.480   4.688   2.412
42302SOL     OW28737   1.807  13.815  11.004
42302SOL    HW128738   1.879  13.754  10.993
42302SOL    HW228739   1.833  13.869  11.079
42303SOL     OW28740   1.072   4.295   3.148
42303SOL    HW128741   0.983   4.326   3.132
42303SOL    HW228742   1.066   4.200   3.139
42304SOL     OW28743   2.155  11.302   0.807
42304SOL    HW128744   2.060  11.298   0.794
42304SOL    HW228745   2.171  11.247   0.884
42305SOL     OW28746  12.017   5.044   8.100
42305SOL    HW128747  11.971   5.026   8.018
42305SOL    HW228748  11.982   5.127   8.130
42306SOL     OW28749  12.063   4.629  10.099
42306SOL    HW128750  12.149   4.601  10.129
42306SOL    HW228751  12.020   4.664  10.177
42307SOL     OW28752   6.852   7.616   1.341
42307SOL    HW128753   6.931   7.639   1.389
42307SOL    HW228754   6.884   7.576   1.260
42308SOL     OW28755   1.081  10.184   7.818
42308SOL    HW128756   0.997  10.140   7.815
42308SOL    HW228757   1.090  10.212   7.909
42309SOL     OW28758  14.312   7.575  10.006
42309SOL    HW128759  14.319   7.480  10.014
42309SOL    HW228760  14.399   7.607  10.030
42310SOL     OW28761  13.651   7.363   5.383
42310SOL    HW128762  13.700   7.347   5.302
42310SOL    HW228763  13.627   7.275   5.413
42311SOL     OW28764   0.608   8.972   0.353
42311SOL    HW128765   0.655   8.937   0.278
42311SOL    HW228766   0.620   9.067   0.346
42312SOL     OW28767   1.226   6.571  13.704
42312SOL    HW128768   1.160   6.573  13.636
42312SOL    HW228769   1.226   6.660  13.741
42313SOL     OW28770  11.501   1.043   0.580
42313SOL    HW128771  11.416   1.054   0.622
42313SOL    HW228772  11.480   1.012   0.492
42314SOL     OW28773  11.766  11.326   5.215
42314SOL    HW128774  11.704  11.328   5.142
42314SOL    HW228775  11.798  11.236   5.216
42315SOL     OW28776   5.527   9.449   0.711
42315SOL    HW128777   5.496   9.437   0.801
42315SOL    HW228778   5.618   9.419   0.713
42316SOL     OW28779  14.122   2.730   1.987
42316SOL    HW128780  14.065   2.666   1.944
42316SOL    HW228781  14.211   2.700   1.969
42317SOL     OW28782   7.216  11.127   8.456
42317SOL    HW128783   7.190  11.052   8.510
42317SOL    HW228784   7.133  11.161   8.422
42318SOL     OW28785  12.431  13.105   2.832
42318SOL    HW128786  12.431  13.056   2.750
42318SOL    HW228787  12.410  13.195   2.806
42319SOL     OW28788  12.791   3.622  14.402
42319SOL    HW128789  12.832   3.645  14.486
42319SOL    HW228790  12.852   3.654  14.336
42320SOL     OW28791   2.691  14.755   1.746
42320SOL    HW128792   2.721  14.838   1.784
42320SOL    HW228793   2.596  14.760   1.750
42321SOL     OW28794   5.676  11.840   0.356
42321SOL    HW128795   5.594  11.791   0.348
42321SOL    HW228796   5.745  11.776   0.340
42322SOL     OW28797   0.255  10.352   0.711
42322SOL    HW128798   0.257  10.447   0.697
42322SOL    HW228799   0.175  10.322   0.669
42323SOL     OW28800   3.285   9.513  14.506
42323SOL    HW128801   3.206   9.547  14.548
42323SOL    HW228802   3.268   9.524  14.412
42324SOL     OW28803   6.905   5.230   6.191
42324SOL    HW128804   6.949   5.146   6.187
42324SOL    HW228805   6.893   5.247   6.285
42325SOL     OW28806   9.546   0.943   2.725
42325SOL    HW128807   9.568   1.036   2.716
42325SOL    HW228808   9.484   0.926   2.655
42326SOL     OW28809  14.764   6.046   8.137
42326SOL    HW128810  14.705   6.044   8.213
42326SOL    HW228811  14.849   6.019   8.172
42327SOL     OW28812   9.668  11.164  12.903
42327SOL    HW128813   9.702  11.251  12.880
42327SOL    HW228814   9.708  11.144  12.987
42328SOL     OW28815   2.825   8.143   8.587
42328SOL    HW128816   2.756   8.183   8.640
42328SOL    HW228817   2.831   8.199   8.509
42329SOL     OW28818   3.965   2.594  12.242
42329SOL    HW128819   3.992   2.553  12.324
42329SOL    HW228820   3.984   2.687  12.254
42330SOL     OW28821   3.084   1.615   3.338
42330SOL    HW128822   3.140   1.598   3.262
42330SOL    HW228823   2.995   1.609   3.303
42331SOL     OW28824  12.475   9.999   7.250
42331SOL    HW128825  12.423   9.949   7.313
42331SOL    HW228826  12.411  10.029   7.185
42332SOL     OW28827   3.000  12.382   7.925
42332SOL    HW128828   2.933  12.321   7.894
42332SOL    HW228829   3.011  12.361   8.018
42333SOL     OW28830   6.643  10.086   9.542
42333SOL    HW128831   6.716  10.024   9.537
42333SOL    HW228832   6.593  10.056   9.619
42334SOL     OW28833   0.628   3.545  13.552
42334SOL    HW128834   0.675   3.613  13.601
42334SOL    HW228835   0.690   3.472  13.548
42335SOL     OW28836   6.740  14.604   9.995
42335SOL    HW128837   6.809  14.670  10.002
42335SOL    HW228838   6.662  14.653   9.972
42336SOL     OW28839   6.449   7.024  14.504
42336SOL    HW128840   6.461   7.097  14.565
42336SOL    HW228841   6.434   7.067  14.419
42337SOL     OW28842   0.422   1.243   4.611
42337SOL    HW128843   0.467   1.271   4.532
42337SOL    HW228844   0.399   1.152   4.595
42338SOL     OW28845   2.090   9.729  13.654
42338SOL    HW128846   2.162   9.714  13.593
42338SOL    HW228847   2.033   9.653  13.643
42339SOL     OW28848   8.415   9.346   5.364
42339SOL    HW128849   8.412   9.341   5.269
42339SOL    HW228850   8.330   9.313   5.393
42340SOL     OW28851  14.472   0.497  13.010
42340SOL    HW128852  14.394   0.447  12.984
42340SOL    HW228853  14.534   0.430  13.040
42341SOL     OW28854  10.732   6.340   8.417
42341SOL    HW128855  10.719   6.345   8.322
42341SOL    HW228856  10.826   6.354   8.428
42342SOL     OW28857   0.042  12.489   1.504
42342SOL    HW128858   0.110  12.425   1.481
42342SOL    HW228859   0.047  12.554   1.434
42343SOL     OW28860  14.016   1.794   9.531
42343SOL    HW128861  13.965   1.831   9.459
42343SOL    HW228862  14.036   1.869   9.587
42344SOL     OW28863   9.131  14.776   7.437
42344SOL    HW128864   9.067  14.721   7.392
42344SOL    HW228865   9.088  14.800   7.519
42345SOL     OW28866   9.144  10.503   8.598
42345SOL    HW128867   9.061  10.473   8.561
42345SOL    HW228868   9.153  10.593   8.569
42346SOL     OW28869  14.281   6.915   5.794
42346SOL    HW128870  14.229   6.905   5.874
42346SOL    HW228871  14.237   6.860   5.729
42347SOL     OW28872   4.483   9.844   4.626
42347SOL    HW128873   4.445   9.810   4.707
42347SOL    HW228874   4.482   9.769   4.566
42348SOL     OW28875  12.391  13.908   9.906
42348SOL    HW128876  12.358  13.834   9.855
42348SOL    HW228877  12.434  13.964   9.841
42349SOL     OW28878   6.181   3.870   7.200
42349SOL    HW128879   6.134   3.815   7.138
42349SOL    HW228880   6.113   3.899   7.262
42350SOL     OW28881   0.986   7.698  14.772
42350SOL    HW128882   0.920   7.702  14.703
42350SOL    HW228883   1.053   7.760  14.745
42351SOL     OW28884   6.213   9.709  14.199
42351SOL    HW128885   6.179   9.627  14.165
42351SOL    HW228886   6.261   9.685  14.278
42352SOL     OW28887   1.599   9.559   3.731
42352SOL    HW128888   1.555   9.628   3.781
42352SOL    HW228889   1.690   9.587   3.726
42353SOL     OW28890   6.602   4.493   6.847
42353SOL    HW128891   6.681   4.517   6.799
42353SOL    HW228892   6.629   4.488   6.938
42354SOL     OW28893   9.755   8.875   8.201
42354SOL    HW128894   9.734   8.799   8.147
42354SOL    HW228895   9.838   8.854   8.242
42355SOL     OW28896  12.722   4.653   6.747
42355SOL    HW128897  12.718   4.563   6.779
42355SOL    HW228898  12.732   4.645   6.652
42356SOL     OW28899  10.786   0.403  13.162
42356SOL    HW128900  10.872   0.379  13.130
42356SOL    HW228901  10.760   0.479  13.108
42357SOL     OW28902   8.589   0.217   0.727
42357SOL    HW128903   8.605   0.275   0.801
42357SOL    HW228904   8.620   0.266   0.651
42358SOL     OW28905   4.595   4.591   6.217
42358SOL    HW128906   4.560   4.574   6.304
42358SOL    HW228907   4.563   4.518   6.163
42359SOL     OW28908   3.810   9.719  13.040
42359SOL    HW128909   3.868   9.716  13.116
42359SOL    HW228910   3.866   9.696  12.966
42360SOL     OW28911   4.346  13.489   0.686
42360SOL    HW128912   4.258  13.480   0.650
42360SOL    HW228913   4.402  13.498   0.610
42361SOL     OW28914   7.889   6.071   2.956
42361SOL    HW128915   7.827   6.007   2.992
42361SOL    HW228916   7.859   6.155   2.992
42362SOL     OW28917   3.219   9.770   3.426
42362SOL    HW128918   3.168   9.748   3.504
42362SOL    HW228919   3.190   9.858   3.403
42363SOL     OW28920  12.372  10.583   4.826
42363SOL    HW128921  12.302  10.646   4.810
42363SOL    HW228922  12.350  10.545   4.911
42364SOL     OW28923  13.850  12.568   0.520
42364SOL    HW128924  13.817  12.599   0.604
42364SOL    HW228925  13.803  12.486   0.504
42365SOL     OW28926   8.509   7.880   5.980
42365SOL    HW128927   8.428   7.919   5.948
42365SOL    HW228928   8.565   7.873   5.902
42366SOL     OW28929   5.644  13.742  12.974
42366SOL    HW128930   5.567  13.690  12.997
42366SOL    HW228931   5.618  13.832  12.991
42367SOL     OW28932  12.394   5.069   1.005
42367SOL    HW128933  12.354   4.987   0.978
42367SOL    HW228934  12.391   5.067   1.101
42368SOL     OW28935  11.354   4.236   0.039
42368SOL    HW128936  11.340   4.232  14.816
42368SOL    HW228937  11.273   4.274   0.073
42369SOL     OW28938  10.755  12.808   1.672
42369SOL    HW128939  10.737  12.843   1.760
42369SOL    HW228940  10.683  12.843   1.618
42370SOL     OW28941   1.285  11.183   3.344
42370SOL    HW128942   1.318  11.109   3.293
42370SOL    HW228943   1.205  11.151   3.385
42371SOL     OW28944   7.270   0.094   4.796
42371SOL    HW128945   7.288   0.156   4.725
42371SOL    HW228946   7.197   0.042   4.764
42372SOL     OW28947   4.589   3.752   6.058
42372SOL    HW128948   4.607   3.742   5.964
42372SOL    HW228949   4.494   3.743   6.065
42373SOL     OW28950   0.712   3.428   8.704
42373SOL    HW128951   0.651   3.501   8.709
42373SOL    HW228952   0.723   3.400   8.795
42374SOL     OW28953   3.145   0.065  13.654
42374SOL    HW128954   3.095   0.144  13.677
42374SOL    HW228955   3.156   0.019  13.737
42375SOL     OW28956   6.586  13.711   3.633
42375SOL    HW128957   6.560  13.725   3.542
42375SOL    HW228958   6.659  13.771   3.647
42376SOL     OW28959   3.667   7.961  13.228
42376SOL    HW128960   3.749   7.913  13.233
42376SOL    HW228961   3.691   8.053  13.239
42377SOL     OW28962   0.398   6.703  11.675
42377SOL    HW128963   0.354   6.779  11.713
42377SOL    HW228964   0.364   6.628  11.724
42378SOL     OW28965   1.691   6.203   6.525
42378SOL    HW128966   1.702   6.136   6.458
42378SOL    HW228967   1.777   6.244   6.532
42379SOL     OW28968   3.414  12.096   6.109
42379SOL    HW128969   3.395  12.035   6.180
42379SOL    HW228970   3.505  12.078   6.086
42380SOL     OW28971   3.676   8.832  13.709
42380SOL    HW128972   3.590   8.801  13.737
42380SOL    HW228973   3.669   8.928  13.710
42381SOL     OW28974   3.603  10.128   3.973
42381SOL    HW128975   3.551  10.159   3.899
42381SOL    HW228976   3.662  10.201   3.993
42382SOL     OW28977   0.232   9.207   7.002
42382SOL    HW128978   0.227   9.302   6.998
42382SOL    HW228979   0.141   9.177   7.004
42383SOL     OW28980   6.008  13.672   5.960
42383SOL    HW128981   5.936  13.615   5.935
42383SOL    HW228982   6.084  13.636   5.915
42384SOL     OW28983   1.058  13.651  14.661
42384SOL    HW128984   1.122  13.712  14.695
42384SOL    HW228985   1.097  13.618  14.580
42385SOL     OW28986   4.654  13.451   2.739
42385SOL    HW128987   4.714  13.501   2.794
42385SOL    HW228988   4.591  13.516   2.707
42386SOL     OW28989  11.571  12.671   5.542
42386SOL    HW128990  11.615  12.687   5.625
42386SOL    HW228991  11.523  12.752   5.523
42387SOL     OW28992   6.645   0.411   6.867
42387SOL    HW128993   6.666   0.329   6.821
42387SOL    HW228994   6.672   0.396   6.957
42388SOL     OW28995  13.753   8.032   1.655
42388SOL    HW128996  13.823   8.070   1.601
42388SOL    HW228997  13.798   7.968   1.710
42389SOL     OW28998  10.020   5.797  14.839
42389SOL    HW128999  10.041   5.792  14.745
42389SOL    HW229000  10.085   5.741   0.009
42390SOL     OW29001   2.507  11.387  14.835
42390SOL    HW129002   2.558  11.430  14.766
42390SOL    HW229003   2.547  11.300  14.844
42391SOL     OW29004   3.832   3.274   6.811
42391SOL    HW129005   3.758   3.326   6.843
42391SOL    HW229006   3.905   3.335   6.810
42392SOL     OW29007   6.392   2.142   3.799
42392SOL    HW129008   6.427   2.087   3.869
42392SOL    HW229009   6.308   2.102   3.776
42393SOL     OW29010   1.189   0.242  11.435
42393SOL    HW129011   1.191   0.230  11.530
42393SOL    HW229012   1.114   0.298  11.419
42394SOL     OW29013   0.261   1.596   7.349
42394SOL    HW129014   0.345   1.632   7.320
42394SOL    HW229015   0.284   1.528   7.412
42395SOL     OW29016  13.557   7.578   6.608
42395SOL    HW129017  13.564   7.518   6.682
42395SOL    HW229018  13.490   7.641   6.634
42396SOL     OW29019  11.125   5.895   9.893
42396SOL    HW129020  11.046   5.926   9.848
42396SOL    HW229021  11.116   5.927   9.982
42397SOL     OW29022   2.230   0.723   8.861
42397SOL    HW129023   2.256   0.743   8.771
42397SOL    HW229024   2.224   0.809   8.903
42398SOL     OW29025   3.200   0.132  13.398
42398SOL    HW129026   3.181   0.115  13.490
42398SOL    HW229027   3.168   0.222  13.383
42399SOL     OW29028   6.984   5.879   0.312
42399SOL    HW129029   7.062   5.825   0.320
42399SOL    HW229030   7.001   5.935   0.236
42400SOL     OW29031   3.221   6.242   2.756
42400SOL    HW129032   3.228   6.221   2.663
42400SOL    HW229033   3.126   6.252   2.771
42401SOL     OW29034   5.453   3.625  10.696
42401SOL    HW129035   5.373   3.652  10.740
42401SOL    HW229036   5.423   3.586  10.614
42402SOL     OW29037  14.186   5.940  10.975
42402SOL    HW129038  14.266   5.925  11.025
42402SOL    HW229039  14.124   5.876  11.009
42403SOL     OW29040   3.411   3.651  10.171
42403SOL    HW129041   3.433   3.675  10.081
42403SOL    HW229042   3.315   3.648  10.172
42404SOL     OW29043   1.587   0.609   6.330
42404SOL    HW129044   1.668   0.618   6.380
42404SOL    HW229045   1.519   0.644   6.387
42405SOL     OW29046   8.056  13.530   6.323
42405SOL    HW129047   8.087  13.441   6.304
42405SOL    HW229048   7.966  13.518   6.352
42406SOL     OW29049   3.735   2.618  14.698
42406SOL    HW129050   3.762   2.538  14.654
42406SOL    HW229051   3.665   2.591  14.757
42407SOL     OW29052   5.516  14.187   1.414
42407SOL    HW129053   5.423  14.211   1.417
42407SOL    HW229054   5.534  14.174   1.321
42408SOL     OW29055  11.208   9.938   9.512
42408SOL    HW129056  11.188  10.028   9.485
42408SOL    HW229057  11.301   9.929   9.495
42409SOL     OW29058   4.679   5.634  10.535
42409SOL    HW129059   4.741   5.621  10.463
42409SOL    HW229060   4.594   5.640  10.492
42410SOL     OW29061   2.260  12.954  11.647
42410SOL    HW129062   2.327  13.009  11.688
42410SOL    HW229063   2.193  12.944  11.714
42411SOL     OW29064  13.868  11.561   0.624
42411SOL    HW129065  13.910  11.600   0.548
42411SOL    HW229066  13.854  11.470   0.600
42412SOL     OW29067   8.314   9.505  13.023
42412SOL    HW129068   8.405   9.535  13.023
42412SOL    HW229069   8.320   9.410  13.038
42413SOL     OW29070  13.316   3.503  14.277
42413SOL    HW129071  13.364   3.427  14.244
42413SOL    HW229072  13.293   3.553  14.199
42414SOL     OW29073   9.075   6.568   2.805
42414SOL    HW129074   9.115   6.577   2.718
42414SOL    HW229075   9.094   6.651   2.849
42415SOL     OW29076  11.736  13.595   7.837
42415SOL    HW129077  11.699  13.665   7.891
42415SOL    HW229078  11.801  13.639   7.782
42416SOL     OW29079   6.521   7.530  13.850
42416SOL    HW129080   6.615   7.513  13.842
42416SOL    HW229081   6.492   7.542  13.759
42417SOL     OW29082   7.118   7.885   9.355
42417SOL    HW129083   7.050   7.948   9.380
42417SOL    HW229084   7.171   7.932   9.291
42418SOL     OW29085   0.351   9.218  11.680
42418SOL    HW129086   0.345   9.304  11.638
42418SOL    HW229087   0.276   9.169  11.646
42419SOL     OW29088   7.211   6.676   2.145
42419SOL    HW129089   7.126   6.674   2.101
42419SOL    HW229090   7.270   6.720   2.084
42420SOL     OW29091   8.315  12.945   7.065
42420SOL    HW129092   8.230  12.987   7.076
42420SOL    HW229093   8.366  13.006   7.011
42421SOL     OW29094   7.634   4.999   8.313
42421SOL    HW129095   7.707   5.056   8.337
42421SOL    HW229096   7.559   5.058   8.303
42422SOL     OW29097   7.375   9.516   8.337
42422SOL    HW129098   7.460   9.518   8.294
42422SOL    HW229099   7.382   9.446   8.402
42423SOL     OW29100   7.656   1.184  12.054
42423SOL    HW129101   7.628   1.234  12.131
42423SOL    HW229102   7.747   1.162  12.070
42424SOL     OW29103   6.657   7.415  14.106
42424SOL    HW129104   6.700   7.495  14.077
42424SOL    HW229105   6.580   7.445  14.153
42425SOL     OW29106   5.387   6.792   1.883
42425SOL    HW129107   5.413   6.755   1.967
42425SOL    HW229108   5.465   6.836   1.850
42426SOL     OW29109   5.302   9.626  14.527
42426SOL    HW129110   5.277   9.702  14.579
42426SOL    HW229111   5.371   9.659  14.469
42427SOL     OW29112   1.449   0.668  14.269
42427SOL    HW129113   1.543   0.678  14.260
42427SOL    HW229114   1.420   0.748  14.314
42428SOL     OW29115   8.617   7.773   3.290
42428SOL    HW129116   8.524   7.755   3.308
42428SOL    HW229117   8.663   7.745   3.369
42429SOL     OW29118   5.967  13.568   2.278
42429SOL    HW129119   5.921  13.536   2.356
42429SOL    HW229120   6.051  13.522   2.280
42430SOL     OW29121   0.870   0.721   3.002
42430SOL    HW129122   0.790   0.691   2.960
42430SOL    HW229123   0.847   0.807   3.038
42431SOL     OW29124   9.722   3.517   7.332
42431SOL    HW129125   9.782   3.507   7.258
42431SOL    HW229126   9.701   3.610   7.334
42432SOL     OW29127  14.496   8.302  13.298
42432SOL    HW129128  14.445   8.379  13.323
42432SOL    HW229129  14.492   8.244  13.374
42433SOL     OW29130   5.325   5.758   8.902
42433SOL    HW129131   5.286   5.844   8.884
42433SOL    HW229132   5.253   5.707   8.940
42434SOL     OW29133   2.086   9.786   4.755
42434SOL    HW129134   2.118   9.846   4.822
42434SOL    HW229135   2.147   9.712   4.757
42435SOL     OW29136   8.610   4.439  11.785
42435SOL    HW129137   8.525   4.459  11.745
42435SOL    HW229138   8.623   4.346  11.768
42436SOL     OW29139   4.266   0.639   1.426
42436SOL    HW129140   4.286   0.729   1.452
42436SOL    HW229141   4.312   0.585   1.490
42437SOL     OW29142   4.519   3.766   1.109
42437SOL    HW129143   4.445   3.733   1.160
42437SOL    HW229144   4.593   3.762   1.169
42438SOL     OW29145  11.041  10.012   8.947
42438SOL    HW129146  11.074   9.991   9.035
42438SOL    HW229147  11.034   9.927   8.904
42439SOL     OW29148   8.013   8.840   6.421
42439SOL    HW129149   7.952   8.914   6.422
42439SOL    HW229150   7.995   8.794   6.503
42440SOL     OW29151  10.085   7.386   6.780
42440SOL    HW129152  10.020   7.382   6.851
42440SOL    HW229153  10.054   7.322   6.716
42441SOL     OW29154  14.157   8.164  11.488
42441SOL    HW129155  14.131   8.080  11.450
42441SOL    HW229156  14.242   8.183  11.449
42442SOL     OW29157  14.066  13.709  13.799
42442SOL    HW129158  14.024  13.644  13.856
42442SOL    HW229159  14.156  13.677  13.789
42443SOL     OW29160  13.450   1.253   9.119
42443SOL    HW129161  13.376   1.287   9.169
42443SOL    HW229162  13.456   1.161   9.144
42444SOL     OW29163  13.765  11.848   5.974
42444SOL    HW129164  13.855  11.833   6.002
42444SOL    HW229165  13.727  11.760   5.969
42445SOL     OW29166   0.405  14.828   6.195
42445SOL    HW129167   0.415  14.749   6.141
42445SOL    HW229168   0.360  14.798   6.274
42446SOL     OW29169   4.802   5.220   5.082
42446SOL    HW129170   4.728   5.190   5.135
42446SOL    HW229171   4.791   5.314   5.075
42447SOL     OW29172   1.497   0.290  10.432
42447SOL    HW129173   1.508   0.326  10.344
42447SOL    HW229174   1.475   0.365  10.486
42448SOL     OW29175   5.035   5.062  10.851
42448SOL    HW129176   4.967   5.064  10.917
42448SOL    HW229177   5.097   4.995  10.882
42449SOL     OW29178   0.284   3.576   3.825
42449SOL    HW129179   0.260   3.494   3.782
42449SOL    HW229180   0.376   3.589   3.803
42450SOL     OW29181   3.582  10.665  12.967
42450SOL    HW129182   3.653  10.606  12.943
42450SOL    HW229183   3.510  10.607  12.993
42451SOL     OW29184  12.485   9.112   0.490
42451SOL    HW129185  12.471   9.028   0.446
42451SOL    HW229186  12.459   9.177   0.426
42452SOL     OW29187   6.590  11.824   5.808
42452SOL    HW129188   6.563  11.905   5.765
42452SOL    HW229189   6.513  11.796   5.858
42453SOL     OW29190  14.641   5.720   7.763
42453SOL    HW129191  14.656   5.626   7.756
42453SOL    HW229192  14.667   5.743   7.852
42454SOL     OW29193  11.023   1.006  14.082
42454SOL    HW129194  11.024   0.992  13.987
42454SOL    HW229195  11.114   0.994  14.108
42455SOL     OW29196  12.294   2.338  14.242
42455SOL    HW129197  12.349   2.403  14.196
42455SOL    HW229198  12.213   2.385  14.261
42456SOL     OW29199   1.091  13.009   0.583
42456SOL    HW129200   1.089  12.918   0.613
42456SOL    HW229201   1.029  13.055   0.640
42457SOL     OW29202   2.491   6.851  12.202
42457SOL    HW129203   2.534   6.904  12.135
42457SOL    HW229204   2.531   6.764  12.193
42458SOL     OW29205   0.102   6.512   6.659
42458SOL    HW129206   0.070   6.428   6.692
42458SOL    HW229207   0.181   6.529   6.709
42459SOL     OW29208   5.693   7.660   2.280
42459SOL    HW129209   5.604   7.649   2.314
42459SOL    HW229210   5.749   7.644   2.356
42460SOL     OW29211   7.797   9.791   1.287
42460SOL    HW129212   7.856   9.859   1.256
42460SOL    HW229213   7.851   9.732   1.339
42461SOL     OW29214   6.193   7.036   1.388
42461SOL    HW129215   6.141   7.112   1.360
42461SOL    HW229216   6.263   7.074   1.441
42462SOL     OW29217   4.000   7.564   8.622
42462SOL    HW129218   4.062   7.637   8.628
42462SOL    HW229219   4.028   7.515   8.545
42463SOL     OW29220  14.665  13.557   2.020
42463SOL    HW129221  14.724  13.563   1.945
42463SOL    HW229222  14.706  13.611   2.087
42464SOL     OW29223   1.314   1.120   8.758
42464SOL    HW129224   1.401   1.080   8.761
42464SOL    HW229225   1.264   1.061   8.701
42465SOL     OW29226   2.900   1.392   8.068
42465SOL    HW129227   2.943   1.346   8.140
42465SOL    HW229228   2.894   1.326   7.998
42466SOL     OW29229   9.245   0.531   5.395
42466SOL    HW129230   9.306   0.475   5.348
42466SOL    HW229231   9.300   0.594   5.441
42467SOL     OW29232   4.472   9.867   0.035
42467SOL    HW129233   4.532   9.833   0.101
42467SOL    HW229234   4.525   9.873  14.827
42468SOL     OW29235  12.311  13.724  11.425
42468SOL    HW129236  12.399  13.758  11.411
42468SOL    HW229237  12.267  13.734  11.341
42469SOL     OW29238   0.204   1.149  10.667
42469SOL    HW129239   0.193   1.103  10.751
42469SOL    HW229240   0.151   1.099  10.605
42470SOL     OW29241   5.728   5.001   0.367
42470SOL    HW129242   5.799   4.967   0.421
42470SOL    HW229243   5.698   5.079   0.414
42471SOL     OW29244  10.413   8.639   5.715
42471SOL    HW129245  10.419   8.715   5.657
42471SOL    HW229246  10.367   8.573   5.663
42472SOL     OW29247   8.431  14.168  13.467
42472SOL    HW129248   8.470  14.092  13.509
42472SOL    HW229249   8.394  14.135  13.385
42473SOL     OW29250   5.744  13.124   9.697
42473SOL    HW129251   5.741  13.072   9.617
42473SOL    HW229252   5.735  13.061   9.768
42474SOL     OW29253   2.359  10.799   5.976
42474SOL    HW129254   2.393  10.842   5.897
42474SOL    HW229255   2.414  10.721   5.985
42475SOL     OW29256   1.829   6.780   8.053
42475SOL    HW129257   1.747   6.780   8.103
42475SOL    HW229258   1.829   6.866   8.009
42476SOL     OW29259  10.981  12.968  10.965
42476SOL    HW129260  10.950  12.894  11.017
42476SOL    HW229261  11.042  12.930  10.902
42477SOL     OW29262   8.429   6.802  10.763
42477SOL    HW129263   8.489   6.866  10.725
42477SOL    HW229264   8.352   6.804  10.707
42478SOL     OW29265   0.345   7.750  13.943
42478SOL    HW129266   0.411   7.681  13.942
42478SOL    HW229267   0.293   7.734  13.864
42479SOL     OW29268   9.656   1.185   3.979
42479SOL    HW129269   9.698   1.158   3.897
42479SOL    HW229270   9.652   1.105   4.031
42480SOL     OW29271  12.465  12.803  14.526
42480SOL    HW129272  12.510  12.850  14.456
42480SOL    HW229273  12.506  12.834  14.607
42481SOL     OW29274   0.894   2.889   8.840
42481SOL    HW129275   0.939   2.953   8.786
42481SOL    HW229276   0.842   2.941   8.901
42482SOL     OW29277   4.377  10.735   4.150
42482SOL    HW129278   4.306  10.688   4.106
42482SOL    HW229279   4.408  10.675   4.217
42483SOL     OW29280   0.279   6.884   7.142
42483SOL    HW129281   0.268   6.789   7.149
42483SOL    HW229282   0.223   6.909   7.068
42484SOL     OW29283   3.613   3.674   9.219
42484SOL    HW129284   3.622   3.723   9.137
42484SOL    HW229285   3.531   3.705   9.256
42485SOL     OW29286   7.581   7.678   0.820
42485SOL    HW129287   7.583   7.590   0.857
42485SOL    HW229288   7.507   7.721   0.863
42486SOL     OW29289   3.216   5.141  13.533
42486SOL    HW129290   3.196   5.206  13.466
42486SOL    HW229291   3.264   5.073  13.487
42487SOL     OW29292  11.712   6.548   1.001
42487SOL    HW129293  11.638   6.568   1.057
42487SOL    HW229294  11.674   6.508   0.923
42488SOL     OW29295   2.451   2.106   3.895
42488SOL    HW129296   2.484   2.179   3.947
42488SOL    HW229297   2.427   2.039   3.959
42489SOL     OW29298   3.112  10.433  12.630
42489SOL    HW129299   3.055  10.389  12.568
42489SOL    HW229300   3.114  10.375  12.706
42490SOL     OW29301   4.407   4.088   6.764
42490SOL    HW129302   4.339   4.084   6.831
42490SOL    HW229303   4.483   4.125   6.809
42491SOL     OW29304  11.507   5.504  13.959
42491SOL    HW129305  11.550   5.475  13.878
42491SOL    HW229306  11.494   5.424  14.009
42492SOL     OW29307   9.243   1.524  13.653
42492SOL    HW129308   9.158   1.544  13.691
42492SOL    HW229309   9.270   1.442  13.696
42493SOL     OW29310   5.059  10.476   2.943
42493SOL    HW129311   4.969  10.481   2.976
42493SOL    HW229312   5.100  10.407   2.996
42494SOL     OW29313  13.300   5.227   8.941
42494SOL    HW129314  13.383   5.213   8.985
42494SOL    HW229315  13.243   5.264   9.008
42495SOL     OW29316  10.478   2.753  10.832
42495SOL    HW129317  10.424   2.823  10.797
42495SOL    HW229318  10.419   2.701  10.887
42496SOL     OW29319   3.317   0.523   6.381
42496SOL    HW129320   3.302   0.618   6.376
42496SOL    HW229321   3.242   0.485   6.336
42497SOL     OW29322  10.368  13.321   2.210
42497SOL    HW129323  10.295  13.378   2.234
42497SOL    HW229324  10.363  13.314   2.115
42498SOL     OW29325   7.566   0.003  12.509
42498SOL    HW129326   7.521   0.058  12.573
42498SOL    HW229327   7.612   0.065  12.452
42499SOL     OW29328  10.788   0.450   5.772
42499SOL    HW129329  10.754   0.452   5.683
42499SOL    HW229330  10.736   0.516   5.819
42500SOL     OW29331   5.261   2.073   2.516
42500SOL    HW129332   5.228   2.088   2.605
42500SOL    HW229333   5.222   2.143   2.464
42501SOL     OW29334   6.457   8.572  10.238
42501SOL    HW129335   6.372   8.612  10.250
42501SOL    HW229336   6.451   8.488  10.283
42502SOL     OW29337   9.397  13.474  13.805
42502SOL    HW129338   9.480  13.509  13.771
42502SOL    HW229339   9.388  13.514  13.891
42503SOL     OW29340   3.601   0.685  11.320
42503SOL    HW129341   3.555   0.611  11.358
42503SOL    HW229342   3.533   0.737  11.277
42504SOL     OW29343  10.124   9.248   6.883
42504SOL    HW129344  10.148   9.217   6.970
42504SOL    HW229345  10.058   9.315   6.898
42505SOL     OW29346   1.907   5.698  13.511
42505SOL    HW129347   1.837   5.760  13.487
42505SOL    HW229348   1.895   5.624  13.452
42506SOL     OW29349   2.487   1.378   4.338
42506SOL    HW129350   2.394   1.381   4.360
42506SOL    HW229351   2.498   1.295   4.292
42507SOL     OW29352   6.236  13.456   4.926
42507SOL    HW129353   6.155  13.502   4.948
42507SOL    HW229354   6.214  13.363   4.934
42508SOL     OW29355  10.983   3.621  11.031
42508SOL    HW129356  11.021   3.605  11.117
42508SOL    HW229357  10.985   3.536  10.987
42509SOL     OW29358   9.847  10.410   3.437
42509SOL    HW129359   9.900  10.449   3.507
42509SOL    HW229360   9.777  10.363   3.484
42510SOL     OW29361  12.790  14.853   8.142
42510SOL    HW129362  12.813  14.820   8.055
42510SOL    HW229363  12.723   0.047   8.126
42511SOL     OW29364   0.558  14.582  11.391
42511SOL    HW129365   0.610  14.572  11.312
42511SOL    HW229366   0.622  14.593  11.461
42512SOL     OW29367  10.719   4.077   5.277
42512SOL    HW129368  10.644   4.121   5.319
42512SOL    HW229369  10.767   4.148   5.234
42513SOL     OW29370   4.591  12.949   4.303
42513SOL    HW129371   4.575  13.031   4.350
42513SOL    HW229372   4.630  12.891   4.368
42514SOL     OW29373   2.466   7.897   4.208
42514SOL    HW129374   2.402   7.870   4.274
42514SOL    HW229375   2.511   7.972   4.247
42515SOL     OW29376   9.113   3.366   7.180
42515SOL    HW129377   9.131   3.272   7.173
42515SOL    HW229378   9.150   3.391   7.264
42516SOL     OW29379  12.541  13.633  12.424
42516SOL    HW129380  12.515  13.700  12.360
42516SOL    HW229381  12.465  13.625  12.482
42517SOL     OW29382   5.519   6.616   4.347
42517SOL    HW129383   5.561   6.700   4.368
42517SOL    HW229384   5.580   6.572   4.288
42518SOL     OW29385   3.566   9.605   0.765
42518SOL    HW129386   3.564   9.687   0.814
42518SOL    HW229387   3.480   9.598   0.723
42519SOL     OW29388   6.381   4.893   1.201
42519SOL    HW129389   6.365   4.821   1.262
42519SOL    HW229390   6.322   4.963   1.230
42520SOL     OW29391   5.985   1.145   1.260
42520SOL    HW129392   6.003   1.239   1.256
42520SOL    HW229393   5.961   1.121   1.171
42521SOL     OW29394   7.961  13.967   2.553
42521SOL    HW129395   7.985  14.053   2.588
42521SOL    HW229396   7.890  13.985   2.492
42522SOL     OW29397   4.665  12.231   0.075
42522SOL    HW129398   4.626  12.310   0.112
42522SOL    HW229399   4.706  12.187   0.149
42523SOL     OW29400   0.857  14.803  12.540
42523SOL    HW129401   0.813  14.869  12.592
42523SOL    HW229402   0.787  14.748  12.506
42524SOL     OW29403   3.140   2.305  13.005
42524SOL    HW129404   3.095   2.291  13.089
42524SOL    HW229405   3.078   2.356  12.953
42525SOL     OW29406   3.252  11.101   1.992
42525SOL    HW129407   3.315  11.104   2.063
42525SOL    HW229408   3.303  11.075   1.915
42526SOL     OW29409   0.727   1.653   9.224
42526SOL    HW129410   0.697   1.570   9.263
42526SOL    HW229411   0.647   1.696   9.194
42527SOL     OW29412   7.305   0.169  11.579
42527SOL    HW129413   7.213   0.163  11.605
42527SOL    HW229414   7.302   0.204  11.490
42528SOL     OW29415   6.266   9.113  11.522
42528SOL    HW129416   6.218   9.053  11.579
42528SOL    HW229417   6.327   9.158  11.582
42529SOL     OW29418   0.238   1.507   5.126
42529SOL    HW129419   0.320   1.474   5.163
42529SOL    HW229420   0.185   1.531   5.203
42530SOL     OW29421  12.107   7.136   9.415
42530SOL    HW129422  12.160   7.099   9.485
42530SOL    HW229423  12.036   7.182   9.459
42531SOL     OW29424   3.348   2.259   9.176
42531SOL    HW129425   3.382   2.348   9.185
42531SOL    HW229426   3.409   2.216   9.116
42532SOL     OW29427   6.616   6.855   1.788
42532SOL    HW129428   6.590   6.777   1.837
42532SOL    HW229429   6.557   6.857   1.713
42533SOL     OW29430   7.234  11.893   2.318
42533SOL    HW129431   7.152  11.853   2.291
42533SOL    HW229432   7.259  11.845   2.397
42534SOL     OW29433  10.191  14.790  14.317
42534SOL    HW129434  10.249  14.807  14.391
42534SOL    HW229435  10.176  14.696  14.319
42535SOL     OW29436   5.144  12.285   9.524
42535SOL    HW129437   5.075  12.223   9.501
42535SOL    HW229438   5.203  12.235   9.581
42536SOL     OW29439   8.839   7.251  10.819
42536SOL    HW129440   8.812   7.246  10.727
42536SOL    HW229441   8.759   7.240  10.869
42537SOL     OW29442   1.388  10.123   6.434
42537SOL    HW129443   1.379  10.216   6.457
42537SOL    HW229444   1.322  10.078   6.487
42538SOL     OW29445   8.706   0.352   4.206
42538SOL    HW129446   8.695   0.261   4.234
42538SOL    HW229447   8.799   0.358   4.182
42539SOL     OW29448   8.551   7.499  10.672
42539SOL    HW129449   8.539   7.498  10.767
42539SOL    HW229450   8.474   7.545  10.639
42540SOL     OW29451   2.376   9.419   6.287
42540SOL    HW129452   2.291   9.416   6.332
42540SOL    HW229453   2.355   9.446   6.198
42541SOL     OW29454  12.327   5.935   7.852
42541SOL    HW129455  12.242   5.943   7.807
42541SOL    HW229456  12.374   6.015   7.827
42542SOL     OW29457   9.823  11.237   1.567
42542SOL    HW129458   9.765  11.222   1.492
42542SOL    HW229459   9.824  11.332   1.578
42543SOL     OW29460   6.968   6.734  13.407
42543SOL    HW129461   6.910   6.750  13.481
42543SOL    HW229462   6.951   6.643  13.382
42544SOL     OW29463   8.472  10.136   4.635
42544SOL    HW129464   8.425  10.129   4.718
42544SOL    HW229465   8.414  10.187   4.579
42545SOL     OW29466   3.796   2.498   7.369
42545SOL    HW129467   3.815   2.523   7.278
42545SOL    HW229468   3.808   2.403   7.370
42546SOL     OW29469   6.318  14.662   4.954
42546SOL    HW129470   6.326  14.698   4.866
42546SOL    HW229471   6.342  14.570   4.945
42547SOL     OW29472  13.761   5.259   8.636
42547SOL    HW129473  13.677   5.300   8.657
42547SOL    HW229474  13.765   5.260   8.541
42548SOL     OW29475  12.529  12.146  13.195
42548SOL    HW129476  12.507  12.059  13.161
42548SOL    HW229477  12.496  12.207  13.128
42549SOL     OW29478  13.076   3.214   6.912
42549SOL    HW129479  13.164   3.248   6.921
42549SOL    HW229480  13.038   3.264   6.840
42550SOL     OW29481   4.303   8.204   2.630
42550SOL    HW129482   4.238   8.214   2.700
42550SOL    HW229483   4.279   8.123   2.586
42551SOL     OW29484   8.071   4.195   1.362
42551SOL    HW129485   8.057   4.193   1.457
42551SOL    HW229486   8.065   4.103   1.335
42552SOL     OW29487   3.023   5.046   1.862
42552SOL    HW129488   3.008   5.040   1.768
42552SOL    HW229489   3.112   5.013   1.875
42553SOL     OW29490   2.261   2.503   3.843
42553SOL    HW129491   2.241   2.441   3.772
42553SOL    HW229492   2.349   2.534   3.823
42554SOL     OW29493   0.701   2.041   5.374
42554SOL    HW129494   0.616   2.047   5.417
42554SOL    HW229495   0.695   2.102   5.301
42555SOL     OW29496  14.611   6.982  12.559
42555SOL    HW129497  14.596   7.019  12.472
42555SOL    HW229498  14.638   6.892  12.542
42556SOL     OW29499   8.949   6.644   3.968
42556SOL    HW129500   9.025   6.603   4.010
42556SOL    HW229501   8.875   6.589   3.994
42557SOL     OW29502   3.779   7.811  10.470
42557SOL    HW129503   3.712   7.799  10.537
42557SOL    HW229504   3.799   7.723  10.439
42558SOL     OW29505   6.532   3.880   0.654
42558SOL    HW129506   6.528   3.801   0.601
42558SOL    HW229507   6.447   3.922   0.640
42559SOL     OW29508   5.283  11.073   4.763
42559SOL    HW129509   5.236  11.138   4.710
42559SOL    HW229510   5.214  11.023   4.807
42560SOL     OW29511   1.578   3.207   7.559
42560SOL    HW129512   1.555   3.259   7.482
42560SOL    HW229513   1.646   3.259   7.603
42561SOL     OW29514  11.581   6.524   2.696
42561SOL    HW129515  11.575   6.549   2.604
42561SOL    HW229516  11.490   6.521   2.726
42562SOL     OW29517   9.307  13.679   7.123
42562SOL    HW129518   9.292  13.770   7.149
42562SOL    HW229519   9.402  13.672   7.116
42563SOL     OW29520   4.395  11.461   8.508
42563SOL    HW129521   4.392  11.543   8.459
42563SOL    HW229522   4.339  11.401   8.458
42564SOL     OW29523   4.108   0.931   6.750
42564SOL    HW129524   4.175   0.916   6.683
42564SOL    HW229525   4.147   0.896   6.830
42565SOL     OW29526   8.134   1.518   3.014
42565SOL    HW129527   8.190   1.579   3.062
42565SOL    HW229528   8.047   1.558   3.016
42566SOL     OW29529   5.937   9.875  14.782
42566SOL    HW129530   5.970   9.964  14.778
42566SOL    HW229531   6.006   9.821  14.743
42567SOL     OW29532   5.181  10.980  10.877
42567SOL    HW129533   5.236  11.015  10.946
42567SOL    HW229534   5.143  11.057  10.834
42568SOL     OW29535   5.265  10.176  14.715
42568SOL    HW129536   5.321  10.108  14.753
42568SOL    HW229537   5.313  10.206  14.637
42569SOL     OW29538  10.336  11.607  11.532
42569SOL    HW129539  10.289  11.691  11.525
42569SOL    HW229540  10.307  11.571  11.615
42570SOL     OW29541   6.015   7.814   5.343
42570SOL    HW129542   6.061   7.868   5.278
42570SOL    HW229543   6.075   7.741   5.361
42571SOL     OW29544   8.310  13.421   3.116
42571SOL    HW129545   8.334  13.356   3.051
42571SOL    HW229546   8.262  13.372   3.183
42572SOL     OW29547   8.241   1.489  13.693
42572SOL    HW129548   8.218   1.581  13.696
42572SOL    HW229549   8.197   1.450  13.768
42573SOL     OW29550   2.605   7.312  12.461
42573SOL    HW129551   2.534   7.249  12.452
42573SOL    HW229552   2.593   7.373  12.388
42574SOL     OW29553   5.075   4.437   1.192
42574SOL    HW129554   5.031   4.509   1.147
42574SOL    HW229555   5.069   4.458   1.285
42575SOL     OW29556   8.141   3.142   3.522
42575SOL    HW129557   8.137   3.236   3.502
42575SOL    HW229558   8.114   3.135   3.613
42576SOL     OW29559   7.297  12.503   6.491
42576SOL    HW129560   7.233  12.490   6.562
42576SOL    HW229561   7.379  12.471   6.527
42577SOL     OW29562   6.861   6.142   1.442
42577SOL    HW129563   6.855   6.238   1.441
42577SOL    HW229564   6.940   6.122   1.393
42578SOL     OW29565  10.927   7.722  13.037
42578SOL    HW129566  11.009   7.726  13.086
42578SOL    HW229567  10.953   7.733  12.945
42579SOL     OW29568   2.570   0.508   4.993
42579SOL    HW129569   2.611   0.458   5.063
42579SOL    HW229570   2.622   0.588   4.987
42580SOL     OW29571   4.458   8.866   0.891
42580SOL    HW129572   4.522   8.860   0.962
42580SOL    HW229573   4.445   8.776   0.862
42581SOL     OW29574   5.338  10.218   6.166
42581SOL    HW129575   5.318  10.226   6.073
42581SOL    HW229576   5.298  10.296   6.205
42582SOL     OW29577  11.325   4.714   7.547
42582SOL    HW129578  11.339   4.771   7.622
42582SOL    HW229579  11.242   4.670   7.566
42583SOL     OW29580   4.299   7.766   5.445
42583SOL    HW129581   4.359   7.693   5.430
42583SOL    HW229582   4.219   7.725   5.479
42584SOL     OW29583  13.982   1.740   0.758
42584SOL    HW129584  13.886   1.738   0.764
42584SOL    HW229585  14.011   1.679   0.826
42585SOL     OW29586  13.545   2.084   4.624
42585SOL    HW129587  13.527   2.173   4.592
42585SOL    HW229588  13.630   2.063   4.588
42586SOL     OW29589   5.296  11.568  13.590
42586SOL    HW129590   5.213  11.566  13.637
42586SOL    HW229591   5.295  11.487  13.538
42587SOL     OW29592   9.546   2.669  12.595
42587SOL    HW129593   9.556   2.690  12.688
42587SOL    HW229594   9.452   2.667  12.580
42588SOL     OW29595   3.920   3.330   4.660
42588SOL    HW129596   3.965   3.250   4.685
42588SOL    HW229597   3.849   3.339   4.724
42589SOL     OW29598   6.230  11.626   7.786
42589SOL    HW129599   6.263  11.543   7.820
42589SOL    HW229600   6.208  11.608   7.694
42590SOL     OW29601   4.164   1.061   0.200
42590SOL    HW129602   4.259   1.071   0.199
42590SOL    HW229603   4.149   0.968   0.183
42591SOL     OW29604   0.369  10.018   7.176
42591SOL    HW129605   0.444  10.048   7.123
42591SOL    HW229606   0.365  10.080   7.249
42592SOL     OW29607   5.452   1.356  13.923
42592SOL    HW129608   5.372   1.352  13.976
42592SOL    HW229609   5.516   1.398  13.980
42593SOL     OW29610  13.185  12.218  12.221
42593SOL    HW129611  13.148  12.170  12.296
42593SOL    HW229612  13.198  12.307  12.254
42594SOL     OW29613   1.936   5.219  11.464
42594SOL    HW129614   1.977   5.152  11.518
42594SOL    HW229615   1.851   5.181  11.440
42595SOL     OW29616   8.516   5.227  10.191
42595SOL    HW129617   8.518   5.322  10.199
42595SOL    HW229618   8.576   5.195  10.259
42596SOL     OW29619   8.322   2.411   9.237
42596SOL    HW129620   8.385   2.366   9.181
42596SOL    HW229621   8.337   2.376   9.325
42597SOL     OW29622   7.750  10.063   7.301
42597SOL    HW129623   7.845  10.063   7.289
42597SOL    HW229624   7.731  10.148   7.340
42598SOL     OW29625   5.756   1.889   9.913
42598SOL    HW129626   5.847   1.869   9.889
42598SOL    HW229627   5.715   1.803   9.925
42599SOL     OW29628   3.755   9.410   7.181
42599SOL    HW129629   3.765   9.443   7.270
42599SOL    HW229630   3.667   9.439   7.155
42600SOL     OW29631  10.519   5.244  12.414
42600SOL    HW129632  10.561   5.165  12.380
42600SOL    HW229633  10.573   5.270  12.489
42601SOL     OW29634  13.006  13.074   0.414
42601SOL    HW129635  13.018  13.151   0.470
42601SOL    HW229636  12.911  13.063   0.408
42602SOL     OW29637   8.576  13.687  12.522
42602SOL    HW129638   8.568  13.768  12.572
42602SOL    HW229639   8.642  13.636  12.570
42603SOL     OW29640  12.080   4.013   4.066
42603SOL    HW129641  12.094   3.921   4.088
42603SOL    HW229642  11.998   4.036   4.110
42604SOL     OW29643   1.047   1.228   5.867
42604SOL    HW129644   1.030   1.157   5.929
42604SOL    HW229645   1.126   1.202   5.820
42605SOL     OW29646   3.639   0.223  12.149
42605SOL    HW129647   3.687   0.269  12.080
42605SOL    HW229648   3.613   0.140  12.109
42606SOL     OW29649   9.658   6.560  12.893
42606SOL    HW129650   9.564   6.548  12.910
42606SOL    HW229651   9.699   6.550  12.979
42607SOL     OW29652   5.270  12.780   3.309
42607SOL    HW129653   5.247  12.846   3.375
42607SOL    HW229654   5.280  12.829   3.228
42608SOL     OW29655   0.174  10.458  10.118
42608SOL    HW129656   0.092  10.506  10.116
42608SOL    HW229657   0.226  10.495  10.047
42609SOL     OW29658   2.762  13.235   0.915
42609SOL    HW129659   2.743  13.227   1.008
42609SOL    HW229660   2.689  13.191   0.871
42610SOL     OW29661   8.848  14.263  13.072
42610SOL    HW129662   8.887  14.327  13.012
42610SOL    HW229663   8.821  14.191  13.016
42611SOL     OW29664  13.949   0.620  11.331
42611SOL    HW129665  14.022   0.658  11.283
42611SOL    HW229666  13.879   0.611  11.266
42612SOL     OW29667   9.522   4.336   8.830
42612SOL    HW129668   9.444   4.297   8.869
42612SOL    HW229669   9.574   4.262   8.800
42613SOL     OW29670   7.944  14.772   8.886
42613SOL    HW129671   7.967  14.860   8.856
42613SOL    HW229672   7.893  14.786   8.966
42614SOL     OW29673  13.771   3.986  12.126
42614SOL    HW129674  13.862   4.015  12.133
42614SOL    HW229675  13.771   3.898  12.163
42615SOL     OW29676  12.055   9.549   6.198
42615SOL    HW129677  12.097   9.559   6.284
42615SOL    HW229678  12.068   9.457   6.176
42616SOL     OW29679   0.448  14.294   8.087
42616SOL    HW129680   0.378  14.345   8.127
42616SOL    HW229681   0.521  14.356   8.077
42617SOL     OW29682   3.529   9.473   6.098
42617SOL    HW129683   3.497   9.563   6.098
42617SOL    HW229684   3.478   9.430   6.167
42618SOL     OW29685   4.501  14.600  11.470
42618SOL    HW129686   4.497  14.604  11.566
42618SOL    HW229687   4.543  14.681  11.444
42619SOL     OW29688   2.866   5.991  10.816
42619SOL    HW129689   2.950   5.960  10.784
42619SOL    HW229690   2.804   5.922  10.790
42620SOL     OW29691   1.419   6.903  12.283
42620SOL    HW129692   1.479   6.875  12.352
42620SOL    HW229693   1.367   6.973  12.323
42621SOL     OW29694  13.517   4.679   4.417
42621SOL    HW129695  13.440   4.700   4.470
42621SOL    HW229696  13.530   4.757   4.363
42622SOL     OW29697  14.100  11.331  10.626
42622SOL    HW129698  14.109  11.414  10.579
42622SOL    HW229699  14.188  11.311  10.656
42623SOL     OW29700   5.957   7.244  13.646
42623SOL    HW129701   5.896   7.301  13.600
42623SOL    HW229702   5.901   7.185  13.697
42624SOL     OW29703  11.598   4.352   9.322
42624SOL    HW129704  11.544   4.274   9.314
42624SOL    HW229705  11.595   4.393   9.236
42625SOL     OW29706   7.413  12.770   7.452
42625SOL    HW129707   7.498  12.752   7.493
42625SOL    HW229708   7.353  12.708   7.494
42626SOL     OW29709   8.526   1.837   1.967
42626SOL    HW129710   8.585   1.764   1.983
42626SOL    HW229711   8.582   1.905   1.929
42627SOL     OW29712  10.120  14.755   8.108
42627SOL    HW129713  10.182  14.824   8.087
42627SOL    HW229714  10.175  14.684   8.143
42628SOL     OW29715  12.169   5.462   2.037
42628SOL    HW129716  12.242   5.524   2.038
42628SOL    HW229717  12.119   5.485   1.959
42629SOL     OW29718   9.657   1.907   6.133
42629SOL    HW129719   9.629   1.975   6.072
42629SOL    HW229720   9.741   1.939   6.167
42630SOL     OW29721  10.166   4.662   5.202
42630SOL    HW129722  10.135   4.680   5.290
42630SOL    HW229723  10.128   4.577   5.180
42631SOL     OW29724   0.075  13.352  13.082
42631SOL    HW129725   0.120  13.278  13.042
42631SOL    HW229726   0.074  13.332  13.176
42632SOL     OW29727   1.062  11.910   0.980
42632SOL    HW129728   1.007  11.899   0.902
42632SOL    HW229729   1.120  11.834   0.979
42633SOL     OW29730   9.122  10.096   3.662
42633SOL    HW129731   9.213  10.127   3.660
42633SOL    HW229732   9.114  10.050   3.745
42634SOL     OW29733  10.345   0.819   5.898
42634SOL    HW129734  10.421   0.876   5.909
42634SOL    HW229735  10.273   0.867   5.939
42635SOL     OW29736   9.940  10.040   7.059
42635SOL    HW129737   9.926   9.948   7.036
42635SOL    HW229738   9.915  10.045   7.151
42636SOL     OW29739   3.614  13.418   6.251
42636SOL    HW129740   3.706  13.433   6.270
42636SOL    HW229741   3.614  13.372   6.166
42637SOL     OW29742   2.278  13.668  14.041
42637SOL    HW129743   2.217  13.724  13.994
42637SOL    HW229744   2.301  13.598  13.979
42638SOL     OW29745   0.510  10.722   7.606
42638SOL    HW129746   0.486  10.770   7.527
42638SOL    HW229747   0.542  10.789   7.666
42639SOL     OW29748   0.479   7.387   7.145
42639SOL    HW129749   0.468   7.362   7.237
42639SOL    HW229750   0.570   7.415   7.139
42640SOL     OW29751   1.816   4.858   0.650
42640SOL    HW129752   1.811   4.923   0.580
42640SOL    HW229753   1.905   4.867   0.685
42641SOL     OW29754  10.350   0.321   8.189
42641SOL    HW129755  10.332   0.314   8.282
42641SOL    HW229756  10.437   0.361   8.184
42642SOL     OW29757  10.987   3.344   1.590
42642SOL    HW129758  10.909   3.357   1.536
42642SOL    HW229759  11.023   3.432   1.602
42643SOL     OW29760   4.018  11.615   4.658
42643SOL    HW129761   3.985  11.579   4.576
42643SOL    HW229762   4.100  11.569   4.673
42644SOL     OW29763   6.971   2.720   1.275
42644SOL    HW129764   7.064   2.744   1.269
42644SOL    HW229765   6.969   2.646   1.335
42645SOL     OW29766   4.326   7.216   7.836
42645SOL    HW129767   4.373   7.167   7.904
42645SOL    HW229768   4.249   7.162   7.817
42646SOL     OW29769  11.414  10.717   5.015
42646SOL    HW129770  11.442  10.662   5.089
42646SOL    HW229771  11.431  10.663   4.938
42647SOL     OW29772   8.902   3.957   3.710
42647SOL    HW129773   8.963   3.956   3.636
42647SOL    HW229774   8.865   3.869   3.713
42648SOL     OW29775   1.450   2.545  13.492
42648SOL    HW129776   1.476   2.603  13.564
42648SOL    HW229777   1.532   2.518  13.451
42649SOL     OW29778   7.695   1.533   2.491
42649SOL    HW129779   7.623   1.565   2.438
42649SOL    HW229780   7.710   1.444   2.460
42650SOL     OW29781   8.859  10.048  13.624
42650SOL    HW129782   8.952  10.071  13.627
42650SOL    HW229783   8.858   9.954  13.642
42651SOL     OW29784  12.798   5.763  10.816
42651SOL    HW129785  12.776   5.740  10.906
42651SOL    HW229786  12.869   5.705  10.792
42652SOL     OW29787   6.808   7.906   7.308
42652SOL    HW129788   6.901   7.893   7.292
42652SOL    HW229789   6.804   7.986   7.361
42653SOL     OW29790  11.669   3.290  14.054
42653SOL    HW129791  11.589   3.239  14.067
42653SOL    HW229792  11.683   3.288  13.960
42654SOL     OW29793   4.272   3.680   6.794
42654SOL    HW129794   4.190   3.729   6.792
42654SOL    HW229795   4.299   3.680   6.886
42655SOL     OW29796  14.778  11.182   1.173
42655SOL    HW129797  14.871  11.206   1.175
42655SOL    HW229798  14.734  11.255   1.215
42656SOL     OW29799   8.869   1.573  12.073
42656SOL    HW129800   8.903   1.642  12.016
42656SOL    HW229801   8.921   1.496  12.052
42657SOL     OW29802   2.300   6.404  10.520
42657SOL    HW129803   2.362   6.395  10.447
42657SOL    HW229804   2.249   6.323  10.517
42658SOL     OW29805   4.522  12.494  12.009
42658SOL    HW129806   4.529  12.402  11.983
42658SOL    HW229807   4.434  12.520  11.980
42659SOL     OW29808   2.861  12.553   4.332
42659SOL    HW129809   2.840  12.627   4.275
42659SOL    HW229810   2.817  12.478   4.292
42660SOL     OW29811  11.936   9.391  11.083
42660SOL    HW129812  11.889   9.308  11.072
42660SOL    HW229813  12.005   9.372  11.146
42661SOL     OW29814  14.468   2.530   5.097
42661SOL    HW129815  14.507   2.544   5.183
42661SOL    HW229816  14.380   2.498   5.116
42662SOL     OW29817   8.862   8.475   2.450
42662SOL    HW129818   8.816   8.551   2.415
42662SOL    HW229819   8.928   8.455   2.384
42663SOL     OW29820   5.773   4.129  10.658
42663SOL    HW129821   5.831   4.124  10.734
42663SOL    HW229822   5.695   4.081  10.685
42664SOL     OW29823   0.597  11.104  12.694
42664SOL    HW129824   0.531  11.038  12.675
42664SOL    HW229825   0.546  11.185  12.703
42665SOL     OW29826  10.262   7.210   3.578
42665SOL    HW129827  10.245   7.246   3.665
42665SOL    HW229828  10.224   7.275   3.518
42666SOL     OW29829   5.838   6.427   3.805
42666SOL    HW129830   5.914   6.472   3.769
42666SOL    HW229831   5.798   6.490   3.865
42667SOL     OW29832  13.619  14.139  13.434
42667SOL    HW129833  13.551  14.204  13.452
42667SOL    HW229834  13.583  14.086  13.364
42668SOL     OW29835   9.820   6.134   8.600
42668SOL    HW129836   9.884   6.137   8.528
42668SOL    HW229837   9.846   6.206   8.658
42669SOL     OW29838   9.916   9.375   0.701
42669SOL    HW129839   9.907   9.460   0.745
42669SOL    HW229840  10.007   9.351   0.714
42670SOL     OW29841   7.833   3.226  10.973
42670SOL    HW129842   7.856   3.143  11.014
42670SOL    HW229843   7.793   3.202  10.890
42671SOL     OW29844   2.536   6.968   2.954
42671SOL    HW129845   2.507   7.001   2.869
42671SOL    HW229846   2.456   6.961   3.006
42672SOL     OW29847   9.499   3.896   1.498
42672SOL    HW129848   9.558   3.877   1.425
42672SOL    HW229849   9.538   3.972   1.541
42673SOL     OW29850  11.462  14.039   0.076
42673SOL    HW129851  11.492  14.104   0.139
42673SOL    HW229852  11.375  14.070   0.049
42674SOL     OW29853   3.388   6.213   6.463
42674SOL    HW129854   3.309   6.251   6.501
42674SOL    HW229855   3.433   6.286   6.421
42675SOL     OW29856  13.553   7.059   6.297
42675SOL    HW129857  13.506   7.102   6.368
42675SOL    HW229858  13.535   6.966   6.309
42676SOL     OW29859  10.756   3.514   9.974
42676SOL    HW129860  10.842   3.523  10.015
42676SOL    HW229861  10.712   3.597   9.992
42677SOL     OW29862  13.080   9.545  13.942
42677SOL    HW129863  13.119   9.577  13.860
42677SOL    HW229864  12.989   9.528  13.919
42678SOL     OW29865  11.959   5.280   5.350
42678SOL    HW129866  11.919   5.246   5.269
42678SOL    HW229867  12.017   5.209   5.379
42679SOL     OW29868   0.866  10.440  12.841
42679SOL    HW129869   0.957  10.470  12.848
42679SOL    HW229870   0.814  10.520  12.836
42680SOL     OW29871   2.256  14.238   6.509
42680SOL    HW129872   2.351  14.246   6.518
42680SOL    HW229873   2.244  14.181   6.432
42681SOL     OW29874   3.947   6.899   1.513
42681SOL    HW129875   3.872   6.854   1.553
42681SOL    HW229876   3.934   6.888   1.419
42682SOL     OW29877  11.370   8.051  11.430
42682SOL    HW129878  11.394   7.960  11.415
42682SOL    HW229879  11.419   8.078  11.507
42683SOL     OW29880   2.621   1.399  12.962
42683SOL    HW129881   2.526   1.387  12.970
42683SOL    HW229882   2.631   1.481  12.914
42684SOL     OW29883  11.928   8.800   6.463
42684SOL    HW129884  11.995   8.795   6.394
42684SOL    HW229885  11.948   8.881   6.510
42685SOL     OW29886  10.906  11.140  13.342
42685SOL    HW129887  10.995  11.130  13.375
42685SOL    HW229888  10.877  11.225  13.375
42686SOL     OW29889   4.153   5.914  14.848
42686SOL    HW129890   4.209   5.954   0.043
42686SOL    HW229891   4.083   5.979  14.834
42687SOL     OW29892   4.575  14.866   7.999
42687SOL    HW129893   4.588  14.777   8.032
42687SOL    HW229894   4.480   0.001   7.987
42688SOL     OW29895  10.164  13.884  11.524
42688SOL    HW129896  10.206  13.958  11.566
42688SOL    HW229897  10.104  13.923  11.461
42689SOL     OW29898   7.100   6.700   8.441
42689SOL    HW129899   7.155   6.641   8.389
42689SOL    HW229900   7.158   6.773   8.462
42690SOL     OW29901   8.930   1.473  10.632
42690SOL    HW129902   8.883   1.530  10.693
42690SOL    HW229903   8.932   1.388  10.676
42691SOL     OW29904   3.543   5.167   4.266
42691SOL    HW129905   3.542   5.233   4.197
42691SOL    HW229906   3.488   5.096   4.233
42692SOL     OW29907   3.996   8.679   5.323
42692SOL    HW129908   3.956   8.656   5.407
42692SOL    HW229909   4.049   8.603   5.301
42693SOL     OW29910   3.102   3.368   9.861
42693SOL    HW129911   3.039   3.438   9.842
42693SOL    HW229912   3.082   3.342   9.951
42694SOL     OW29913  12.212   7.241   7.373
42694SOL    HW129914  12.261   7.318   7.402
42694SOL    HW229915  12.139   7.277   7.323
42695SOL     OW29916  10.607   9.475   4.844
42695SOL    HW129917  10.595   9.385   4.873
42695SOL    HW229918  10.613   9.469   4.748
42696SOL     OW29919   8.983   1.620  13.877
42696SOL    HW129920   8.897   1.646  13.845
42696SOL    HW229921   9.037   1.699  13.868
42697SOL     OW29922   0.462   8.866   1.360
42697SOL    HW129923   0.408   8.882   1.282
42697SOL    HW229924   0.502   8.781   1.344
42698SOL     OW29925   8.646   5.867   9.178
42698SOL    HW129926   8.733   5.906   9.191
42698SOL    HW229927   8.617   5.901   9.094
42699SOL     OW29928  11.928   0.885   3.796
42699SOL    HW129929  12.017   0.850   3.803
42699SOL    HW229930  11.897   0.887   3.887
42700SOL     OW29931   6.577  11.614  10.097
42700SOL    HW129932   6.570  11.678  10.026
42700SOL    HW229933   6.647  11.555  10.070
42701SOL     OW29934   7.239   5.704   7.559
42701SOL    HW129935   7.262   5.737   7.646
42701SOL    HW229936   7.303   5.744   7.501
42702SOL     OW29937   3.625  14.772   7.617
42702SOL    HW129938   3.632  14.769   7.522
42702SOL    HW229939   3.634  14.865   7.639
42703SOL     OW29940  11.427  10.400   6.237
42703SOL    HW129941  11.395  10.490   6.232
42703SOL    HW229942  11.411  10.372   6.327
42704SOL     OW29943   3.314  14.837  12.638
42704SOL    HW129944   3.322   0.042  12.582
42704SOL    HW229945   3.338  14.763  12.582
42705SOL     OW29946  11.166   0.875   0.683
42705SOL    HW129947  11.190   0.878   0.590
42705SOL    HW229948  11.146   0.966   0.705
42706SOL     OW29949  11.852   1.867   0.146
42706SOL    HW129950  11.915   1.808   0.104
42706SOL    HW229951  11.833   1.933   0.079
42707SOL     OW29952  11.101   5.120   5.492
42707SOL    HW129953  11.162   5.173   5.440
42707SOL    HW229954  11.097   5.165   5.576
42708SOL     OW29955   1.333  10.510  11.086
42708SOL    HW129956   1.283  10.587  11.114
42708SOL    HW229957   1.398  10.544  11.024
42709SOL     OW29958   6.943  13.199   2.629
42709SOL    HW129959   6.985  13.115   2.607
42709SOL    HW229960   6.961  13.255   2.553
42710SOL     OW29961   4.063   8.713  12.185
42710SOL    HW129962   4.136   8.772  12.170
42710SOL    HW229963   3.999   8.735  12.117
42711SOL     OW29964  10.189   2.621   1.170
42711SOL    HW129965  10.259   2.686   1.179
42711SOL    HW229966  10.140   2.650   1.093
42712SOL     OW29967  13.558   1.145   6.721
42712SOL    HW129968  13.650   1.154   6.746
42712SOL    HW229969  13.557   1.070   6.661
42713SOL     OW29970   6.109  11.167   5.611
42713SOL    HW129971   6.061  11.148   5.530
42713SOL    HW229972   6.163  11.090   5.626
42714SOL     OW29973   4.848   9.064   4.327
42714SOL    HW129974   4.802   9.077   4.244
42714SOL    HW229975   4.830   9.142   4.378
42715SOL     OW29976   4.700   9.630   4.198
42715SOL    HW129977   4.689   9.552   4.143
42715SOL    HW229978   4.742   9.597   4.277
42716SOL     OW29979  10.556   8.500   0.743
42716SOL    HW129980  10.515   8.424   0.785
42716SOL    HW229981  10.567   8.563   0.815
42717SOL     OW29982   0.903  11.357   5.938
42717SOL    HW129983   0.946  11.276   5.911
42717SOL    HW229984   0.915  11.416   5.863
42718SOL     OW29985   8.001   3.491  11.020
42718SOL    HW129986   7.938   3.532  10.960
42718SOL    HW229987   7.975   3.399  11.023
42719SOL     OW29988   4.490  12.734   5.829
42719SOL    HW129989   4.546  12.767   5.899
42719SOL    HW229990   4.533  12.653   5.801
42720SOL     OW29991  10.959   7.517  12.694
42720SOL    HW129992  10.987   7.472  12.614
42720SOL    HW229993  10.907   7.591  12.664
42721SOL     OW29994   1.029  14.781   6.748
42721SOL    HW129995   1.017  14.793   6.654
42721SOL    HW229996   0.941  14.768   6.782
42722SOL     OW29997   0.049  11.054   6.582
42722SOL    HW129998   0.033  11.093   6.497
42722SOL    HW229999  14.847  10.995   6.596
42723SOL     OW30000  11.453   2.326   5.511
42723SOL    HW130001  11.432   2.338   5.419
42723SOL    HW230002  11.467   2.414   5.545
42724SOL     OW30003   8.158  13.339   0.007
42724SOL    HW130004   8.200  13.407   0.060
42724SOL    HW230005   8.107  13.288   0.070
42725SOL     OW30006   1.548   3.543  14.591
42725SOL    HW130007   1.623   3.530  14.533
42725SOL    HW230008   1.501   3.617  14.553
42726SOL     OW30009   7.024   0.752   2.385
42726SOL    HW130010   7.053   0.744   2.476
42726SOL    HW230011   6.953   0.688   2.376
42727SOL     OW30012  10.491   2.935   7.949
42727SOL    HW130013  10.488   2.914   8.043
42727SOL    HW230014  10.427   3.004   7.937
42728SOL     OW30015   0.328   2.666   6.052
42728SOL    HW130016   0.299   2.686   5.963
42728SOL    HW230017   0.400   2.728   6.068
42729SOL     OW30018  12.939   7.032   7.802
42729SOL    HW130019  12.913   7.120   7.773
42729SOL    HW230020  12.932   7.036   7.898
42730SOL     OW30021   8.474   2.494  14.228
42730SOL    HW130022   8.457   2.491  14.134
42730SOL    HW230023   8.427   2.418  14.263
42731SOL     OW30024   2.972   8.580   0.284
42731SOL    HW130025   2.992   8.488   0.267
42731SOL    HW230026   3.048   8.627   0.250
42732SOL     OW30027   3.323   3.407  11.305
42732SOL    HW130028   3.411   3.372  11.293
42732SOL    HW230029   3.269   3.330  11.324
42733SOL     OW30030   4.321   0.755  13.877
42733SOL    HW130031   4.388   0.705  13.924
42733SOL    HW230032   4.342   0.742  13.784
42734SOL     OW30033   6.748   9.129   4.793
42734SOL    HW130034   6.749   9.034   4.804
42734SOL    HW230035   6.682   9.159   4.856
42735SOL     OW30036   8.471  10.149   1.776
42735SOL    HW130037   8.555  10.142   1.822
42735SOL    HW230038   8.416  10.082   1.816
42736SOL     OW30039   3.939   3.814   2.683
42736SOL    HW130040   3.950   3.887   2.622
42736SOL    HW230041   3.910   3.855   2.765
42737SOL     OW30042  11.479   5.493   9.378
42737SOL    HW130043  11.574   5.484   9.386
42737SOL    HW230044  11.459   5.459   9.291
42738SOL     OW30045  11.401   0.829   4.418
42738SOL    HW130046  11.339   0.850   4.348
42738SOL    HW230047  11.484   0.865   4.388
42739SOL     OW30048  12.347  13.331   8.079
42739SOL    HW130049  12.422  13.370   8.123
42739SOL    HW230050  12.273  13.350   8.136
42740SOL     OW30051  10.083   5.755  12.401
42740SOL    HW130052  10.122   5.813  12.335
42740SOL    HW230053  10.024   5.699  12.351
42741SOL     OW30054   9.990   6.252  14.337
42741SOL    HW130055   9.974   6.157  14.337
42741SOL    HW230056   9.904   6.291  14.324
42742SOL     OW30057   5.919   6.668   2.296
42742SOL    HW130058   5.956   6.596   2.245
42742SOL    HW230059   5.980   6.679   2.369
42743SOL     OW30060   8.418  10.626  13.810
42743SOL    HW130061   8.504  10.585  13.806
42743SOL    HW230062   8.372  10.580  13.880
42744SOL     OW30063   5.757   3.263  14.839
42744SOL    HW130064   5.844   3.294  14.816
42744SOL    HW230065   5.768   3.170  14.856
42745SOL     OW30066   9.985  10.056   9.502
42745SOL    HW130067  10.074  10.020   9.512
42745SOL    HW230068   9.982  10.086   9.411
42746SOL     OW30069   0.881   7.556   6.537
42746SOL    HW130070   0.896   7.587   6.447
42746SOL    HW230071   0.798   7.597   6.562
42747SOL     OW30072  11.045   0.495   6.104
42747SOL    HW130073  11.115   0.430   6.092
42747SOL    HW230074  11.058   0.528   6.193
42748SOL     OW30075   7.619  11.615   2.221
42748SOL    HW130076   7.592  11.600   2.130
42748SOL    HW230077   7.554  11.675   2.256
42749SOL     OW30078   6.204  12.789   6.467
42749SOL    HW130079   6.126  12.767   6.518
42749SOL    HW230080   6.171  12.806   6.379
42750SOL     OW30081  11.887  13.112   3.868
42750SOL    HW130082  11.821  13.069   3.923
42750SOL    HW230083  11.864  13.205   3.873
42751SOL     OW30084  11.525   2.431   6.787
42751SOL    HW130085  11.470   2.508   6.795
42751SOL    HW230086  11.608   2.464   6.752
42752SOL     OW30087   2.377   3.606   2.565
42752SOL    HW130088   2.380   3.536   2.500
42752SOL    HW230089   2.403   3.684   2.516
42753SOL     OW30090   3.004   4.053   7.654
42753SOL    HW130091   3.075   4.117   7.642
42753SOL    HW230092   2.983   4.057   7.747
42754SOL     OW30093  12.805   2.417   5.077
42754SOL    HW130094  12.842   2.379   5.157
42754SOL    HW230095  12.768   2.342   5.030
42755SOL     OW30096   8.759   7.444   1.525
42755SOL    HW130097   8.754   7.532   1.563
42755SOL    HW230098   8.853   7.425   1.520
42756SOL     OW30099   4.010   8.446   3.372
42756SOL    HW130100   4.023   8.390   3.296
42756SOL    HW230101   4.005   8.534   3.337
42757SOL     OW30102   5.765   8.533   0.547
42757SOL    HW130103   5.861   8.536   0.537
42757SOL    HW230104   5.734   8.606   0.494
42758SOL     OW30105  10.955  12.708   3.122
42758SOL    HW130106  10.961  12.672   3.211
42758SOL    HW230107  11.042  12.742   3.104
42759SOL     OW30108  11.130   1.651   4.031
42759SOL    HW130109  11.149   1.732   3.984
42759SOL    HW230110  11.171   1.663   4.116
42760SOL     OW30111  10.022  14.003   9.277
42760SOL    HW130112   9.992  14.046   9.357
42760SOL    HW230113  10.021  13.909   9.298
42761SOL     OW30114   4.715  14.140   0.599
42761SOL    HW130115   4.664  14.176   0.527
42761SOL    HW230116   4.778  14.209   0.620
42762SOL     OW30117   4.362   9.202   7.470
42762SOL    HW130118   4.345   9.296   7.473
42762SOL    HW230119   4.447   9.194   7.427
42763SOL     OW30120  12.460  13.043   6.098
42763SOL    HW130121  12.471  12.953   6.128
42763SOL    HW230122  12.442  13.092   6.178
42764SOL     OW30123   4.298  13.022   6.318
42764SOL    HW130124   4.268  13.086   6.382
42764SOL    HW230125   4.262  12.939   6.348
42765SOL     OW30126   8.808  11.415  14.823
42765SOL    HW130127   8.741  11.482  14.818
42765SOL    HW230128   8.777  11.345  14.765
42766SOL     OW30129  13.156   0.125   4.973
42766SOL    HW130130  13.213   0.126   5.050
42766SOL    HW230131  13.215   0.141   4.899
42767SOL     OW30132  10.898   6.363   8.041
42767SOL    HW130133  10.852   6.445   8.022
42767SOL    HW230134  10.907   6.320   7.956
42768SOL     OW30135  10.454   7.400   3.738
42768SOL    HW130136  10.477   7.483   3.779
42768SOL    HW230137  10.447   7.420   3.644
42769SOL     OW30138   5.296  11.935   9.495
42769SOL    HW130139   5.333  11.852   9.467
42769SOL    HW230140   5.337  12.000   9.439
42770SOL     OW30141   5.651  13.960  11.695
42770SOL    HW130142   5.692  13.898  11.756
42770SOL    HW230143   5.700  13.949  11.613
42771SOL     OW30144   6.268   1.130   6.200
42771SOL    HW130145   6.360   1.156   6.195
42771SOL    HW230146   6.221   1.212   6.216
42772SOL     OW30147   8.261  12.781  14.855
42772SOL    HW130148   8.313  12.736  14.788
42772SOL    HW230149   8.306  12.864  14.869
42773SOL     OW30150   0.406   1.520   1.307
42773SOL    HW130151   0.460   1.441   1.308
42773SOL    HW230152   0.424   1.562   1.391
42774SOL     OW30153   8.631   1.771  11.845
42774SOL    HW130154   8.556   1.730  11.889
42774SOL    HW230155   8.665   1.833  11.910
42775SOL     OW30156   3.839   7.702  11.695
42775SOL    HW130157   3.856   7.733  11.785
42775SOL    HW230158   3.809   7.780  11.649
42776SOL     OW30159   6.530   0.897   0.141
42776SOL    HW130160   6.456   0.921   0.085
42776SOL    HW230161   6.531   0.802   0.140
42777SOL     OW30162   2.820   0.884   1.758
42777SOL    HW130163   2.793   0.892   1.849
42777SOL    HW230164   2.887   0.952   1.746
42778SOL     OW30165   1.979   4.302  14.001
42778SOL    HW130166   2.016   4.387  14.023
42778SOL    HW230167   1.926   4.318  13.923
42779SOL     OW30168   7.252   3.636  14.861
42779SOL    HW130169   7.310   3.673  14.794
42779SOL    HW230170   7.281   3.545  14.870
42780SOL     OW30171  14.326  11.899   2.231
42780SOL    HW130172  14.231  11.892   2.239
42780SOL    HW230173  14.340  11.967   2.165
42781SOL     OW30174   9.660   3.931   6.448
42781SOL    HW130175   9.615   3.943   6.531
42781SOL    HW230176   9.748   3.902   6.472
42782SOL     OW30177   6.365   1.648  13.870
42782SOL    HW130178   6.412   1.718  13.825
42782SOL    HW230179   6.362   1.675  13.962
42783SOL     OW30180  12.787   1.764  10.077
42783SOL    HW130181  12.787   1.689  10.017
42783SOL    HW230182  12.769   1.726  10.163
42784SOL     OW30183   6.941   7.800   4.773
42784SOL    HW130184   6.997   7.856   4.719
42784SOL    HW230185   6.968   7.818   4.863
42785SOL     OW30186  14.613  10.650   7.534
42785SOL    HW130187  14.647  10.565   7.506
42785SOL    HW230188  14.586  10.637   7.625
42786SOL     OW30189   2.733   2.296  12.949
42786SOL    HW130190   2.646   2.256  12.959
42786SOL    HW230191   2.744   2.350  13.028
42787SOL     OW30192   6.203   2.599   5.545
42787SOL    HW130193   6.169   2.532   5.605
42787SOL    HW230194   6.166   2.576   5.460
42788SOL     OW30195  11.386  12.596   7.273
42788SOL    HW130196  11.389  12.672   7.331
42788SOL    HW230197  11.430  12.526   7.322
42789SOL     OW30198   1.626  14.050   8.822
42789SOL    HW130199   1.603  14.068   8.913
42789SOL    HW230200   1.621  13.955   8.814
42790SOL     OW30201  14.709   0.131   5.657
42790SOL    HW130202  14.772   0.141   5.728
42790SOL    HW230203  14.697   0.036   5.649
42791SOL     OW30204   4.153   0.792   0.140
42791SOL    HW130205   4.148   0.797   0.236
42791SOL    HW230206   4.130   0.701   0.119
42792SOL     OW30207   5.620  10.153  13.220
42792SOL    HW130208   5.576  10.119  13.143
42792SOL    HW230209   5.602  10.089  13.289
42793SOL     OW30210  14.846  12.584   7.178
42793SOL    HW130211   0.033  12.509   7.181
42793SOL    HW230212  14.864  12.632   7.259
42794SOL     OW30213  12.175   8.900  14.577
42794SOL    HW130214  12.218   8.969  14.527
42794SOL    HW230215  12.108   8.946  14.628
42795SOL     OW30216   4.259  12.638  14.450
42795SOL    HW130217   4.173  12.638  14.490
42795SOL    HW230218   4.244  12.615  14.358
42796SOL     OW30219  12.180  14.450  14.812
42796SOL    HW130220  12.200  14.359  14.789
42796SOL    HW230221  12.128  14.483  14.738
42797SOL     OW30222  11.716   7.846   5.594
42797SOL    HW130223  11.653   7.906   5.635
42797SOL    HW230224  11.672   7.761   5.595
42798SOL     OW30225  11.252   5.523   1.003
42798SOL    HW130226  11.275   5.481   0.920
42798SOL    HW230227  11.332   5.518   1.055
42799SOL     OW30228  12.153   4.951   5.650
42799SOL    HW130229  12.229   4.998   5.683
42799SOL    HW230230  12.083   4.973   5.711
42800SOL     OW30231  14.116   0.966  10.301
42800SOL    HW130232  14.062   0.891  10.276
42800SOL    HW230233  14.054   1.025  10.345
42801SOL     OW30234   4.182   7.386   3.835
42801SOL    HW130235   4.154   7.365   3.746
42801SOL    HW230236   4.204   7.301   3.873
42802SOL     OW30237   8.093   6.757   0.637
42802SOL    HW130238   8.119   6.669   0.613
42802SOL    HW230239   8.009   6.770   0.593
42803SOL     OW30240   6.547  14.082   1.546
42803SOL    HW130241   6.477  14.018   1.564
42803SOL    HW230242   6.569  14.118   1.632
42804SOL     OW30243   8.324   2.294  14.546
42804SOL    HW130244   8.266   2.364  14.517
42804SOL    HW230245   8.380   2.276  14.471
42805SOL     OW30246   6.135   0.974  11.603
42805SOL    HW130247   6.096   1.010  11.683
42805SOL    HW230248   6.118   0.880  11.609
42806SOL     OW30249   1.190  12.246  10.215
42806SOL    HW130250   1.252  12.191  10.263
42806SOL    HW230251   1.119  12.187  10.190
42807SOL     OW30252   0.431  14.062   6.330
42807SOL    HW130253   0.517  14.052   6.287
42807SOL    HW230254   0.389  13.977   6.321
42808SOL     OW30255   6.651   9.984   0.244
42808SOL    HW130256   6.559  10.008   0.258
42808SOL    HW230257   6.698  10.026   0.315
42809SOL     OW30258   2.741   6.363  13.697
42809SOL    HW130259   2.686   6.398  13.626
42809SOL    HW230260   2.716   6.271  13.703
42810SOL     OW30261  13.638  12.838   5.936
42810SOL    HW130262  13.680  12.847   6.021
42810SOL    HW230263  13.589  12.919   5.924
42811SOL     OW30264   2.067   1.752   2.716
42811SOL    HW130265   2.053   1.705   2.634
42811SOL    HW230266   2.019   1.833   2.706
42812SOL     OW30267   9.100  12.496   9.569
42812SOL    HW130268   9.068  12.444   9.643
42812SOL    HW230269   9.170  12.443   9.531
42813SOL     OW30270   2.540   2.143   0.780
42813SOL    HW130271   2.473   2.172   0.718
42813SOL    HW230272   2.597   2.087   0.729
42814SOL     OW30273   2.715   9.981   0.035
42814SOL    HW130274   2.712  10.001  14.813
42814SOL    HW230275   2.672  10.055   0.077
42815SOL     OW30276   7.843  14.689   9.899
42815SOL    HW130277   7.875  14.760   9.955
42815SOL    HW230278   7.840  14.728   9.811
42816SOL     OW30279   5.085  10.713   1.488
42816SOL    HW130280   5.033  10.766   1.429
42816SOL    HW230281   5.175  10.744   1.477
42817SOL     OW30282   0.438   0.267   9.772
42817SOL    HW130283   0.394   0.327   9.832
42817SOL    HW230284   0.429   0.307   9.686
42818SOL     OW30285   9.078  12.770   9.459
42818SOL    HW130286   9.118  12.720   9.530
42818SOL    HW230287   9.000  12.809   9.498
42819SOL     OW30288  13.227  14.512   7.813
42819SOL    HW130289  13.318  14.530   7.837
42819SOL    HW230290  13.181  14.594   7.832
42820SOL     OW30291   9.715  13.875   0.557
42820SOL    HW130292   9.720  13.880   0.652
42820SOL    HW230293   9.622  13.884   0.537
42821SOL     OW30294   3.085  13.830   6.486
42821SOL    HW130295   3.114  13.744   6.514
42821SOL    HW230296   3.158  13.865   6.434
42822SOL     OW30297   2.582   9.178  13.363
42822SOL    HW130298   2.591   9.092  13.323
42822SOL    HW230299   2.541   9.161  13.448
42823SOL     OW30300   0.916   3.354   6.478
42823SOL    HW130301   0.965   3.328   6.400
42823SOL    HW230302   0.826   3.364   6.448
42824SOL     OW30303   7.806  14.178   8.580
42824SOL    HW130304   7.814  14.265   8.620
42824SOL    HW230305   7.734  14.187   8.517
42825SOL     OW30306  11.838   0.669  10.153
42825SOL    HW130307  11.792   0.685  10.236
42825SOL    HW230308  11.768   0.651  10.090
42826SOL     OW30309  12.751   5.347   5.587
42826SOL    HW130310  12.688   5.410   5.621
42826SOL    HW230311  12.747   5.358   5.492
42827SOL     OW30312   1.367  12.733  11.098
42827SOL    HW130313   1.328  12.646  11.087
42827SOL    HW230314   1.447  12.717  11.148
42828SOL     OW30315  10.580   0.057   5.593
42828SOL    HW130316  10.642   0.044   5.521
42828SOL    HW230317  10.544  14.842   5.610
42829SOL     OW30318   7.511  11.676   7.494
42829SOL    HW130319   7.421  11.653   7.517
42829SOL    HW230320   7.544  11.725   7.569
42830SOL     OW30321   3.810   8.204  13.872
42830SOL    HW130322   3.719   8.191  13.845
42830SOL    HW230323   3.807   8.277  13.934
42831SOL     OW30324   9.507   7.479  11.777
42831SOL    HW130325   9.486   7.388  11.797
42831SOL    HW230326   9.602   7.479  11.762
42832SOL     OW30327   5.189   0.519   3.392
42832SOL    HW130328   5.250   0.533   3.319
42832SOL    HW230329   5.123   0.588   3.381
42833SOL     OW30330   4.065  14.073   5.831
42833SOL    HW130331   4.158  14.068   5.808
42833SOL    HW230332   4.039  14.161   5.805
42834SOL     OW30333  13.562  14.026   7.004
42834SOL    HW130334  13.520  13.948   7.043
42834SOL    HW230335  13.512  14.042   6.924
42835SOL     OW30336   1.287  11.208   5.722
42835SOL    HW130337   1.212  11.155   5.746
42835SOL    HW230338   1.262  11.250   5.640
42836SOL     OW30339   3.433  11.998   1.282
42836SOL    HW130340   3.438  12.094   1.280
42836SOL    HW230341   3.345  11.978   1.251
42837SOL     OW30342   7.860   3.417   7.764
42837SOL    HW130343   7.876   3.399   7.857
42837SOL    HW230344   7.945   3.441   7.729
42838SOL     OW30345   4.293   3.148   0.237
42838SOL    HW130346   4.266   3.070   0.286
42838SOL    HW230347   4.212   3.194   0.218
42839SOL     OW30348   5.735  14.578   7.945
42839SOL    HW130349   5.718  14.619   8.030
42839SOL    HW230350   5.802  14.634   7.905
42840SOL     OW30351   5.351   6.962   5.552
42840SOL    HW130352   5.267   6.984   5.511
42840SOL    HW230353   5.353   7.014   5.632
42841SOL     OW30354  12.808   3.593   8.219
42841SOL    HW130355  12.879   3.573   8.158
42841SOL    HW230356  12.770   3.674   8.186
42842SOL     OW30357   1.303   0.586   5.802
42842SOL    HW130358   1.295   0.661   5.744
42842SOL    HW230359   1.267   0.513   5.752
42843SOL     OW30360   7.627   2.353   4.352
42843SOL    HW130361   7.629   2.440   4.313
42843SOL    HW230362   7.680   2.299   4.294
42844SOL     OW30363   9.843   4.681   2.446
42844SOL    HW130364   9.934   4.679   2.416
42844SOL    HW230365   9.822   4.774   2.453
42845SOL     OW30366  13.590   4.931   4.326
42845SOL    HW130367  13.672   4.904   4.284
42845SOL    HW230368  13.618   4.992   4.395
42846SOL     OW30369   9.950   0.091   9.960
42846SOL    HW130370   9.952  14.869   9.981
42846SOL    HW230371   9.988   0.097   9.873
42847SOL     OW30372  12.322   9.858   7.674
42847SOL    HW130373  12.406   9.831   7.711
42847SOL    HW230374  12.284   9.777   7.639
42848SOL     OW30375   3.777  10.441   1.621
42848SOL    HW130376   3.856  10.492   1.643
42848SOL    HW230377   3.707  10.506   1.618
42849SOL     OW30378  13.523  10.322  14.051
42849SOL    HW130379  13.460  10.298  14.118
42849SOL    HW230380  13.480  10.301  13.968
42850SOL     OW30381   8.925  14.582  13.325
42850SOL    HW130382   8.960  14.496  13.305
42850SOL    HW230383   8.905  14.579  13.418
42851SOL     OW30384   1.873  11.290   0.793
42851SOL    HW130385   1.829  11.374   0.804
42851SOL    HW230386   1.832  11.253   0.714
42852SOL     OW30387   2.337  14.060   2.019
42852SOL    HW130388   2.354  13.970   1.990
42852SOL    HW230389   2.416  14.084   2.067
42853SOL     OW30390   2.899   8.864   8.530
42853SOL    HW130391   2.890   8.825   8.617
42853SOL    HW230392   2.867   8.953   8.540
42854SOL     OW30393   0.657   4.761  14.023
42854SOL    HW130394   0.684   4.815  13.949
42854SOL    HW230395   0.570   4.728  13.999
42855SOL     OW30396   6.932   6.788  12.178
42855SOL    HW130397   7.020   6.751  12.187
42855SOL    HW230398   6.947   6.877  12.146
42856SOL     OW30399  10.996   8.165   8.281
42856SOL    HW130400  10.910   8.203   8.265
42856SOL    HW230401  10.990   8.075   8.249
42857SOL     OW30402  13.228  13.276   2.523
42857SOL    HW130403  13.224  13.311   2.434
42857SOL    HW230404  13.307  13.221   2.524
42858SOL     OW30405   4.403  14.656   0.022
42858SOL    HW130406   4.486  14.701   0.004
42858SOL    HW230407   4.392  14.662   0.116
42859SOL     OW30408   8.034   2.359   5.777
42859SOL    HW130409   7.986   2.335   5.857
42859SOL    HW230410   7.975   2.333   5.706
42860SOL     OW30411  10.536   1.035  10.668
42860SOL    HW130412  10.626   1.020  10.640
42860SOL    HW230413  10.541   1.039  10.763
42861SOL     OW30414   9.488   4.970  11.599
42861SOL    HW130415   9.480   5.027  11.522
42861SOL    HW230416   9.533   5.025  11.664
42862SOL     OW30417   1.981  10.681   6.658
42862SOL    HW130418   2.034  10.620   6.709
42862SOL    HW230419   1.898  10.634   6.644
42863SOL     OW30420   6.631   3.381   8.138
42863SOL    HW130421   6.636   3.476   8.149
42863SOL    HW230422   6.539   3.364   8.120
42864SOL     OW30423  12.679   7.148   4.174
42864SOL    HW130424  12.609   7.173   4.115
42864SOL    HW230425  12.699   7.058   4.151
42865SOL     OW30426   7.214   2.409   7.576
42865SOL    HW130427   7.280   2.383   7.640
42865SOL    HW230428   7.223   2.504   7.569
42866SOL     OW30429   8.841  14.765   5.313
42866SOL    HW130430   8.760  14.742   5.266
42866SOL    HW230431   8.836  14.715   5.395
42867SOL     OW30432   5.527   4.039   1.092
42867SOL    HW130433   5.509   4.118   1.144
42867SOL    HW230434   5.449   4.029   1.037
42868SOL     OW30435   2.596   2.913   8.519
42868SOL    HW130436   2.632   2.869   8.596
42868SOL    HW230437   2.609   2.851   8.448
42869SOL     OW30438  10.065   2.897   6.529
42869SOL    HW130439  10.043   2.884   6.621
42869SOL    HW230440  10.025   2.822   6.484
42870SOL     OW30441   8.743   4.553   0.533
42870SOL    HW130442   8.722   4.471   0.576
42870SOL    HW230443   8.821   4.534   0.482
42871SOL     OW30444  12.851   5.862   6.679
42871SOL    HW130445  12.801   5.943   6.685
42871SOL    HW230446  12.786   5.794   6.665
42872SOL     OW30447   8.468  14.804  12.203
42872SOL    HW130448   8.486  14.858  12.126
42872SOL    HW230449   8.399  14.850  12.250
42873SOL     OW30450   3.525   5.719   0.121
42873SOL    HW130451   3.496   5.738   0.032
42873SOL    HW230452   3.472   5.776   0.177
42874SOL     OW30453   0.455  11.585  11.005
42874SOL    HW130454   0.458  11.538  11.088
42874SOL    HW230455   0.363  11.584  10.980
42875SOL     OW30456   6.879   5.474  13.140
42875SOL    HW130457   6.956   5.430  13.104
42875SOL    HW230458   6.912   5.559  13.171
42876SOL     OW30459   7.298   5.144   7.694
42876SOL    HW130460   7.274   5.152   7.602
42876SOL    HW230461   7.249   5.215   7.737
42877SOL     OW30462   7.288   8.762  10.355
42877SOL    HW130463   7.225   8.834  10.358
42877SOL    HW230464   7.288   8.734  10.263
42878SOL     OW30465   0.443   7.266  11.478
42878SOL    HW130466   0.487   7.183  11.459
42878SOL    HW230467   0.351   7.249  11.458
42879SOL     OW30468  13.234   7.603  14.301
42879SOL    HW130469  13.282   7.562  14.373
42879SOL    HW230470  13.252   7.697  14.311
42880SOL     OW30471  10.660   1.959  13.461
42880SOL    HW130472  10.616   2.041  13.439
42880SOL    HW230473  10.743   1.986  13.500
42881SOL     OW30474   8.943   3.104   3.306
42881SOL    HW130475   8.875   3.081   3.369
42881SOL    HW230476   8.914   3.063   3.224
42882SOL     OW30477   5.596  10.632   2.432
42882SOL    HW130478   5.640  10.553   2.463
42882SOL    HW230479   5.515  10.601   2.392
42883SOL     OW30480  14.818   0.633   2.970
42883SOL    HW130481  14.814   0.576   3.046
42883SOL    HW230482   0.019   0.692   2.987
42884SOL     OW30483   2.586   5.250  13.025
42884SOL    HW130484   2.500   5.253  13.066
42884SOL    HW230485   2.642   5.206  13.089
42885SOL     OW30486  13.224  12.393   5.663
42885SOL    HW130487  13.234  12.301   5.685
42885SOL    HW230488  13.176  12.431   5.737
42886SOL     OW30489   7.036   1.189  13.163
42886SOL    HW130490   6.981   1.143  13.100
42886SOL    HW230491   6.989   1.272  13.178
42887SOL     OW30492   7.486  12.092   6.845
42887SOL    HW130493   7.547  12.125   6.912
42887SOL    HW230494   7.450  12.012   6.883
42888SOL     OW30495   6.434   4.234  11.281
42888SOL    HW130496   6.520   4.214  11.317
42888SOL    HW230497   6.400   4.149  11.251
42889SOL     OW30498  10.207  13.203   0.217
42889SOL    HW130499  10.190  13.208   0.311
42889SOL    HW230500  10.293  13.163   0.210
42890SOL     OW30501   1.922   0.845   5.785
42890SOL    HW130502   2.000   0.841   5.730
42890SOL    HW230503   1.863   0.905   5.739
42891SOL     OW30504   8.217   4.501   2.218
42891SOL    HW130505   8.147   4.539   2.272
42891SOL    HW230506   8.174   4.432   2.169
42892SOL     OW30507  13.647   1.544   6.263
42892SOL    HW130508  13.562   1.508   6.289
42892SOL    HW230509  13.692   1.562   6.346
42893SOL     OW30510  12.819  11.064   5.358
42893SOL    HW130511  12.802  11.070   5.452
42893SOL    HW230512  12.733  11.080   5.318
42894SOL     OW30513   0.587   2.625  13.649
42894SOL    HW130514   0.627   2.621  13.736
42894SOL    HW230515   0.580   2.718  13.629
42895SOL     OW30516  12.183   5.606  13.128
42895SOL    HW130517  12.123   5.535  13.105
42895SOL    HW230518  12.244   5.567  13.191
42896SOL     OW30519   3.820   9.081   4.590
42896SOL    HW130520   3.783   9.057   4.675
42896SOL    HW230521   3.754   9.138   4.551
42897SOL     OW30522   1.703   4.473   5.071
42897SOL    HW130523   1.733   4.471   5.162
42897SOL    HW230524   1.652   4.393   5.060
42898SOL     OW30525   0.542  10.030  10.578
42898SOL    HW130526   0.507  10.023  10.666
42898SOL    HW230527   0.476   9.988  10.523
42899SOL     OW30528   2.528   6.897  10.799
42899SOL    HW130529   2.593   6.851  10.853
42899SOL    HW230530   2.444   6.858  10.823
42900SOL     OW30531   2.954   5.644   4.395
42900SOL    HW130532   2.973   5.720   4.450
42900SOL    HW230533   3.032   5.634   4.340
42901SOL     OW30534   1.530   6.995   3.408
42901SOL    HW130535   1.587   6.954   3.472
42901SOL    HW230536   1.532   6.937   3.332
42902SOL     OW30537  13.347   0.275   1.793
42902SOL    HW130538  13.396   0.330   1.731
42902SOL    HW230539  13.398   0.195   1.799
42903SOL     OW30540   5.548   9.520   9.669
42903SOL    HW130541   5.565   9.508   9.763
42903SOL    HW230542   5.629   9.494   9.626
42904SOL     OW30543   9.667   9.787   4.549
42904SOL    HW130544   9.737   9.849   4.567
42904SOL    HW230545   9.679   9.762   4.458
42905SOL     OW30546   2.080  12.352   3.518
42905SOL    HW130547   2.023  12.342   3.442
42905SOL    HW230548   2.119  12.439   3.508
42906SOL     OW30549   5.525   1.396  11.259
42906SOL    HW130550   5.451   1.432  11.307
42906SOL    HW230551   5.584   1.362  11.326
42907SOL     OW30552   4.298   7.518   3.424
42907SOL    HW130553   4.387   7.541   3.397
42907SOL    HW230554   4.295   7.423   3.417
42908SOL     OW30555  14.736  14.640  11.404
42908SOL    HW130556  14.794  14.699  11.452
42908SOL    HW230557  14.650  14.680  11.409
42909SOL     OW30558   5.513   6.369   2.492
42909SOL    HW130559   5.563   6.423   2.431
42909SOL    HW230560   5.575   6.347   2.561
42910SOL     OW30561   6.785   8.380   5.673
42910SOL    HW130562   6.803   8.341   5.588
42910SOL    HW230563   6.829   8.465   5.670
42911SOL     OW30564   3.850   3.186   8.104
42911SOL    HW130565   3.792   3.126   8.058
42911SOL    HW230566   3.917   3.129   8.144
42912SOL     OW30567   8.379  10.723  10.747
42912SOL    HW130568   8.323  10.670  10.804
42912SOL    HW230569   8.332  10.806  10.738
42913SOL     OW30570  10.576   4.027   5.976
42913SOL    HW130571  10.608   3.960   5.916
42913SOL    HW230572  10.547   3.979   6.053
42914SOL     OW30573   3.334   3.468   7.196
42914SOL    HW130574   3.402   3.527   7.164
42914SOL    HW230575   3.252   3.501   7.158
42915SOL     OW30576   1.872   2.114  10.140
42915SOL    HW130577   1.793   2.078  10.179
42915SOL    HW230578   1.889   2.059  10.064
42916SOL     OW30579   6.674   1.582   7.931
42916SOL    HW130580   6.677   1.494   7.894
42916SOL    HW230581   6.581   1.604   7.935
42917SOL     OW30582   4.171   0.836   1.022
42917SOL    HW130583   4.262   0.848   1.048
42917SOL    HW230584   4.164   0.742   1.001
42918SOL     OW30585   4.684   4.182   4.489
42918SOL    HW130586   4.760   4.239   4.477
42918SOL    HW230587   4.710   4.098   4.451
42919SOL     OW30588   4.532   5.721  11.815
42919SOL    HW130589   4.552   5.788  11.880
42919SOL    HW230590   4.472   5.661  11.859
42920SOL     OW30591  12.555   3.814   0.953
42920SOL    HW130592  12.647   3.825   0.926
42920SOL    HW230593  12.524   3.904   0.966
42921SOL     OW30594   9.688   4.466   1.728
42921SOL    HW130595   9.711   4.439   1.817
42921SOL    HW230596   9.659   4.385   1.685
42922SOL     OW30597  10.626   9.844   8.865
42922SOL    HW130598  10.678   9.848   8.785
42922SOL    HW230599  10.535   9.840   8.834
42923SOL     OW30600  12.530  10.629   9.723
42923SOL    HW130601  12.484  10.654   9.803
42923SOL    HW230602  12.462  10.600   9.663
42924SOL     OW30603  11.749  10.786   5.737
42924SOL    HW130604  11.682  10.730   5.777
42924SOL    HW230605  11.782  10.839   5.810
42925SOL     OW30606   4.920   8.872  12.734
42925SOL    HW130607   4.959   8.855  12.648
42925SOL    HW230608   4.966   8.814  12.794
42926SOL     OW30609  12.642   6.309   1.968
42926SOL    HW130610  12.636   6.333   2.060
42926SOL    HW230611  12.728   6.267   1.959
42927SOL     OW30612  12.827  13.478   9.155
42927SOL    HW130613  12.801  13.448   9.068
42927SOL    HW230614  12.787  13.416   9.216
42928SOL     OW30615  11.890   1.251  13.271
42928SOL    HW130616  11.872   1.227  13.180
42928SOL    HW230617  11.926   1.340  13.265
42929SOL     OW30618  11.042   4.395   9.943
42929SOL    HW130619  11.128   4.396   9.899
42929SOL    HW230620  11.053   4.453  10.018
42930SOL     OW30621   8.842   2.069   9.906
42930SOL    HW130622   8.893   1.991   9.931
42930SOL    HW230623   8.789   2.040   9.832
42931SOL     OW30624   4.447  12.727   1.102
42931SOL    HW130625   4.390  12.802   1.086
42931SOL    HW230626   4.484  12.742   1.189
42932SOL     OW30627   9.672  11.601  13.585
42932SOL    HW130628   9.727  11.540  13.537
42932SOL    HW230629   9.669  11.565  13.674
42933SOL     OW30630   1.923  10.758   3.053
42933SOL    HW130631   1.857  10.699   3.090
42933SOL    HW230632   1.893  10.776   2.964
42934SOL     OW30633   3.620   3.771   0.863
42934SOL    HW130634   3.637   3.827   0.938
42934SOL    HW230635   3.524   3.773   0.854
42935SOL     OW30636   4.765   6.271   0.112
42935SOL    HW130637   4.710   6.320   0.174
42935SOL    HW230638   4.719   6.278   0.028
42936SOL     OW30639  12.634  12.003  13.664
42936SOL    HW130640  12.619  12.039  13.577
42936SOL    HW230641  12.728  11.985  13.667
42937SOL     OW30642   4.988  10.142   5.280
42937SOL    HW130643   5.027  10.079   5.341
42937SOL    HW230644   4.928  10.193   5.334
42938SOL     OW30645  10.075   1.155  12.101
42938SOL    HW130646  10.019   1.077  12.106
42938SOL    HW230647  10.085   1.171  12.007
42939SOL     OW30648   8.706  12.200   2.929
42939SOL    HW130649   8.682  12.291   2.918
42939SOL    HW230650   8.691  12.160   2.844
42940SOL     OW30651   8.328   6.535  10.777
42940SOL    HW130652   8.380   6.616  10.773
42940SOL    HW230653   8.382   6.475  10.829
42941SOL     OW30654   4.117   9.143   1.620
42941SOL    HW130655   4.132   9.049   1.608
42941SOL    HW230656   4.203   9.183   1.611
42942SOL     OW30657  12.967  14.525   3.092
42942SOL    HW130658  12.920  14.586   3.037
42942SOL    HW230659  12.965  14.442   3.044
42943SOL     OW30660   5.377  12.074   9.996
42943SOL    HW130661   5.387  12.000   9.936
42943SOL    HW230662   5.461  12.081  10.040
42944SOL     OW30663  13.326   6.373   7.346
42944SOL    HW130664  13.317   6.447   7.405
42944SOL    HW230665  13.388   6.402   7.279
42945SOL     OW30666   5.983  13.546   0.987
42945SOL    HW130667   5.911  13.609   0.977
42945SOL    HW230668   6.032  13.578   1.063
42946SOL     OW30669  10.800  12.756  11.535
42946SOL    HW130670  10.812  12.775  11.442
42946SOL    HW230671  10.761  12.836  11.571
42947SOL     OW30672   6.399   4.237   5.380
42947SOL    HW130673   6.419   4.330   5.374
42947SOL    HW230674   6.390   4.221   5.474
42948SOL     OW30675  11.905   9.738   0.590
42948SOL    HW130676  11.930   9.734   0.498
42948SOL    HW230677  11.953   9.666   0.631
42949SOL     OW30678  13.424   8.447  13.189
42949SOL    HW130679  13.354   8.509  13.210
42949SOL    HW230680  13.505   8.498  13.195
42950SOL     OW30681   6.021  11.737   5.795
42950SOL    HW130682   6.047  11.829   5.789
42950SOL    HW230683   6.045  11.711   5.884
42951SOL     OW30684   7.307   5.246  11.540
42951SOL    HW130685   7.216   5.276  11.538
42951SOL    HW230686   7.337   5.266  11.629
42952SOL     OW30687  14.307  10.590  11.488
42952SOL    HW130688  14.286  10.636  11.569
42952SOL    HW230689  14.403  10.585  11.487
42953SOL     OW30690   2.904  14.628   3.970
42953SOL    HW130691   2.883  14.560   4.035
42953SOL    HW230692   2.826  14.684   3.969
42954SOL     OW30693   5.773  11.994   4.818
42954SOL    HW130694   5.767  12.084   4.787
42954SOL    HW230695   5.812  12.001   4.905
42955SOL     OW30696   3.910   8.547   2.954
42955SOL    HW130697   3.998   8.584   2.959
42955SOL    HW230698   3.922   8.460   2.916
42956SOL     OW30699   9.323   6.819  14.730
42956SOL    HW130700   9.401   6.787  14.775
42956SOL    HW230701   9.260   6.747  14.737
42957SOL     OW30702  14.569   6.965   4.224
42957SOL    HW130703  14.653   6.976   4.269
42957SOL    HW230704  14.507   7.012   4.279
42958SOL     OW30705   0.823   9.792   4.334
42958SOL    HW130706   0.730   9.803   4.316
42958SOL    HW230707   0.856   9.739   4.262
42959SOL     OW30708  11.188   7.581   4.430
42959SOL    HW130709  11.106   7.629   4.439
42959SOL    HW230710  11.241   7.610   4.505
42960SOL     OW30711   5.203   4.585  10.061
42960SOL    HW130712   5.124   4.595  10.007
42960SOL    HW230713   5.189   4.643  10.135
42961SOL     OW30714   6.811   1.505   3.150
42961SOL    HW130715   6.876   1.545   3.209
42961SOL    HW230716   6.745   1.468   3.209
42962SOL     OW30717  14.260   9.708  12.434
42962SOL    HW130718  14.280   9.620  12.466
42962SOL    HW230719  14.268   9.764  12.512
42963SOL     OW30720   1.501   7.389  12.703
42963SOL    HW130721   1.504   7.483  12.683
42963SOL    HW230722   1.547   7.382  12.788
42964SOL     OW30723   0.628  10.959   2.074
42964SOL    HW130724   0.700  10.904   2.043
42964SOL    HW230725   0.614  11.022   2.004
42965SOL     OW30726  14.511  14.517   5.974
42965SOL    HW130727  14.571  14.487   6.043
42965SOL    HW230728  14.519  14.451   5.906
42966SOL     OW30729   3.621   1.309  14.056
42966SOL    HW130730   3.534   1.327  14.018
42966SOL    HW230731   3.680   1.368  14.008
42967SOL     OW30732   6.132   1.085   3.417
42967SOL    HW130733   6.187   1.148   3.463
42967SOL    HW230734   6.181   1.003   3.420
42968SOL     OW30735   0.442   7.134  12.073
42968SOL    HW130736   0.374   7.200  12.060
42968SOL    HW230737   0.431   7.106  12.164
42969SOL     OW30738   3.533   1.037   3.053
42969SOL    HW130739   3.496   0.991   2.978
42969SOL    HW230740   3.628   1.031   3.040
42970SOL     OW30741  11.852   7.264   6.258
42970SOL    HW130742  11.788   7.321   6.301
42970SOL    HW230743  11.931   7.273   6.311
42971SOL     OW30744  10.799   9.604   2.801
42971SOL    HW130745  10.732   9.535   2.794
42971SOL    HW230746  10.753   9.684   2.774
42972SOL     OW30747   2.996   5.064   1.011
42972SOL    HW130748   3.062   5.015   0.962
42972SOL    HW230749   2.952   5.117   0.945
42973SOL     OW30750   5.432   2.755   4.670
42973SOL    HW130751   5.422   2.678   4.615
42973SOL    HW230752   5.391   2.826   4.620
42974SOL     OW30753   0.916  12.039  12.698
42974SOL    HW130754   0.943  11.997  12.616
42974SOL    HW230755   0.826  12.009  12.712
42975SOL     OW30756   7.002   3.275   7.502
42975SOL    HW130757   7.021   3.263   7.408
42975SOL    HW230758   7.083   3.309   7.538
42976SOL     OW30759   7.032   0.637   1.192
42976SOL    HW130760   7.017   0.659   1.284
42976SOL    HW230761   6.963   0.683   1.145
42977SOL     OW30762   0.186  13.485  11.462
42977SOL    HW130763   0.167  13.519  11.550
42977SOL    HW230764   0.138  13.543  11.404
42978SOL     OW30765   1.995   2.302   4.930
42978SOL    HW130766   2.026   2.212   4.942
42978SOL    HW230767   2.001   2.341   5.018
42979SOL     OW30768  12.912   4.890  14.582
42979SOL    HW130769  12.826   4.849  14.578
42979SOL    HW230770  12.920   4.921  14.672
42980SOL     OW30771   1.049   7.373   0.170
42980SOL    HW130772   1.058   7.291   0.122
42980SOL    HW230773   1.108   7.434   0.125
42981SOL     OW30774   2.631   7.119   3.442
42981SOL    HW130775   2.548   7.161   3.465
42981SOL    HW230776   2.609   7.026   3.435
42982SOL     OW30777   8.417   3.051   7.605
42982SOL    HW130778   8.385   2.983   7.546
42982SOL    HW230779   8.349   3.118   7.604
42983SOL     OW30780  14.444   5.690   6.829
42983SOL    HW130781  14.482   5.683   6.742
42983SOL    HW230782  14.350   5.682   6.815
42984SOL     OW30783   1.955  11.213   4.790
42984SOL    HW130784   1.937  11.307   4.788
42984SOL    HW230785   1.970  11.194   4.883
42985SOL     OW30786  14.319   0.678   1.216
42985SOL    HW130787  14.353   0.589   1.227
42985SOL    HW230788  14.320   0.692   1.121
42986SOL     OW30789   3.019   6.709  10.831
42986SOL    HW130790   2.987   6.620  10.817
42986SOL    HW230791   3.111   6.698  10.856
42987SOL     OW30792   8.778  12.403   4.493
42987SOL    HW130793   8.796  12.395   4.399
42987SOL    HW230794   8.861  12.435   4.530
42988SOL     OW30795   7.965   6.449   7.613
42988SOL    HW130796   7.920   6.365   7.625
42988SOL    HW230797   7.912   6.512   7.662
42989SOL     OW30798  10.073  14.324   6.123
42989SOL    HW130799  10.026  14.314   6.040
42989SOL    HW230800  10.005  14.314   6.190
42990SOL     OW30801  13.530  11.230   7.104
42990SOL    HW130802  13.504  11.284   7.029
42990SOL    HW230803  13.587  11.287   7.156
42991SOL     OW30804   0.210   7.431  13.154
42991SOL    HW130805   0.292   7.472  13.127
42991SOL    HW230806   0.220   7.415  13.248
42992SOL     OW30807  10.034   8.139   4.456
42992SOL    HW130808  10.047   8.045   4.439
42992SOL    HW230809  10.097   8.160   4.526
42993SOL     OW30810  11.193   3.898   5.755
42993SOL    HW130811  11.198   3.985   5.717
42993SOL    HW230812  11.114   3.860   5.718
42994SOL     OW30813   9.849   0.425  13.642
42994SOL    HW130814   9.825   0.390  13.557
42994SOL    HW230815   9.898   0.354  13.684
42995SOL     OW30816  10.675   1.342   0.503
42995SOL    HW130817  10.653   1.277   0.436
42995SOL    HW230818  10.605   1.407   0.496
42996SOL     OW30819   1.420   2.540   1.729
42996SOL    HW130820   1.383   2.525   1.817
42996SOL    HW230821   1.353   2.505   1.670
42997SOL     OW30822   0.823   7.020   0.457
42997SOL    HW130823   0.866   6.941   0.424
42997SOL    HW230824   0.885   7.056   0.520
42998SOL     OW30825  11.201   0.784   8.851
42998SOL    HW130826  11.259   0.856   8.875
42998SOL    HW230827  11.147   0.819   8.780
42999SOL     OW30828   8.948   7.835  10.966
42999SOL    HW130829   9.024   7.781  10.942
42999SOL    HW230830   8.904   7.853  10.883
43000SOL     OW30831  14.307   3.683   3.001
43000SOL    HW130832  14.273   3.635   3.076
43000SOL    HW230833  14.247   3.660   2.929
43001SOL     OW30834   9.412   5.366  12.369
43001SOL    HW130835   9.462   5.386  12.290
43001SOL    HW230836   9.340   5.428  12.369
43002SOL     OW30837   0.444   4.789   6.891
43002SOL    HW130838   0.508   4.851   6.927
43002SOL    HW230839   0.387   4.767   6.964
43003SOL     OW30840   7.174   9.596   1.340
43003SOL    HW130841   7.221   9.672   1.375
43003SOL    HW230842   7.081   9.621   1.347
43004SOL     OW30843  13.141   1.615   5.485
43004SOL    HW130844  13.118   1.688   5.427
43004SOL    HW230845  13.060   1.563   5.490
43005SOL     OW30846   6.075  13.904   3.857
43005SOL    HW130847   6.092  13.997   3.865
43005SOL    HW230848   6.002  13.897   3.796
43006SOL     OW30849   5.029  11.341   6.288
43006SOL    HW130850   5.000  11.351   6.197
43006SOL    HW230851   5.118  11.306   6.281
43007SOL     OW30852   5.767   3.759   3.199
43007SOL    HW130853   5.843   3.803   3.162
43007SOL    HW230854   5.803   3.701   3.266
43008SOL     OW30855   7.337   2.934  13.745
43008SOL    HW130856   7.399   2.872  13.706
43008SOL    HW230857   7.389   2.981  13.811
43009SOL     OW30858  11.503  13.777   3.131
43009SOL    HW130859  11.522  13.731   3.049
43009SOL    HW230860  11.542  13.722   3.199
43010SOL     OW30861  14.551  11.318  11.037
43010SOL    HW130862  14.614  11.339  11.106
43010SOL    HW230863  14.492  11.254  11.077
43011SOL     OW30864   6.075   9.241   9.951
43011SOL    HW130865   6.030   9.293   9.884
43011SOL    HW230866   6.024   9.253  10.030
43012SOL     OW30867   7.574   5.470   3.776
43012SOL    HW130868   7.562   5.536   3.708
43012SOL    HW230869   7.518   5.498   3.848
43013SOL     OW30870   5.060   1.594   2.813
43013SOL    HW130871   5.023   1.681   2.795
43013SOL    HW230872   5.016   1.566   2.894
43014SOL     OW30873   3.031  10.873  11.378
43014SOL    HW130874   2.947  10.892  11.419
43014SOL    HW230875   3.095  10.877  11.449
43015SOL     OW30876   8.812  12.503   3.673
43015SOL    HW130877   8.839  12.587   3.710
43015SOL    HW230878   8.870  12.491   3.597
43016SOL     OW30879   5.473   1.176   5.630
43016SOL    HW130880   5.415   1.187   5.705
43016SOL    HW230881   5.444   1.242   5.567
43017SOL     OW30882   0.970   7.062   5.106
43017SOL    HW130883   0.987   7.155   5.092
43017SOL    HW230884   0.874   7.055   5.105
43018SOL     OW30885   7.201   3.369   2.883
43018SOL    HW130886   7.293   3.358   2.862
43018SOL    HW230887   7.165   3.280   2.884
43019SOL     OW30888   9.473   0.248  14.239
43019SOL    HW130889   9.530   0.238  14.163
43019SOL    HW230890   9.522   0.303  14.300
43020SOL     OW30891  12.167   7.899   3.842
43020SOL    HW130892  12.100   7.955   3.803
43020SOL    HW230893  12.135   7.810   3.829
43021SOL     OW30894  13.336   3.928   2.470
43021SOL    HW130895  13.276   3.990   2.429
43021SOL    HW230896  13.336   3.852   2.412
43022SOL     OW30897   5.465   7.795   9.234
43022SOL    HW130898   5.465   7.744   9.153
43022SOL    HW230899   5.434   7.882   9.208
43023SOL     OW30900  10.603   8.550   5.097
43023SOL    HW130901  10.598   8.457   5.078
43023SOL    HW230902  10.694   8.566   5.120
43024SOL     OW30903   1.051   1.806   7.184
43024SOL    HW130904   1.085   1.765   7.104
43024SOL    HW230905   1.128   1.824   7.237
43025SOL     OW30906  13.993  14.342   7.702
43025SOL    HW130907  14.044  14.386   7.635
43025SOL    HW230908  14.018  14.385   7.784
43026SOL     OW30909  14.762   1.543   1.014
43026SOL    HW130910  14.834   1.481   1.003
43026SOL    HW230911  14.756   1.556   1.109
43027SOL     OW30912  10.984   4.665   3.314
43027SOL    HW130913  11.037   4.739   3.343
43027SOL    HW230914  11.046   4.592   3.306
43028SOL     OW30915   5.711   4.214   3.163
43028SOL    HW130916   5.662   4.190   3.084
43028SOL    HW230917   5.663   4.289   3.199
43029SOL     OW30918  12.824  11.696  10.653
43029SOL    HW130919  12.851  11.658  10.569
43029SOL    HW230920  12.808  11.621  10.710
43030SOL     OW30921   8.059   6.015  11.762
43030SOL    HW130922   8.117   6.064  11.703
43030SOL    HW230923   8.117   5.985  11.832
43031SOL     OW30924   5.059  10.223   4.291
43031SOL    HW130925   5.092  10.134   4.302
43031SOL    HW230926   4.970  10.220   4.326
43032SOL     OW30927   7.585  10.277  11.212
43032SOL    HW130928   7.558  10.355  11.260
43032SOL    HW230929   7.678  10.291  11.194
43033SOL     OW30930   8.588  11.290   2.183
43033SOL    HW130931   8.528  11.364   2.178
43033SOL    HW230932   8.623  11.293   2.272
43034SOL     OW30933   8.661  13.886   7.207
43034SOL    HW130934   8.709  13.820   7.257
43034SOL    HW230935   8.708  13.893   7.124
43035SOL     OW30936  14.048   5.906   8.397
43035SOL    HW130937  14.142   5.892   8.381
43035SOL    HW230938  14.045   5.983   8.453
43036SOL     OW30939   3.895   4.301  10.880
43036SOL    HW130940   3.963   4.267  10.823
43036SOL    HW230941   3.814   4.294  10.829
43037SOL     OW30942  13.915   7.838   0.163
43037SOL    HW130943  13.898   7.838   0.257
43037SOL    HW230944  14.006   7.810   0.155
43038SOL     OW30945   9.116   1.340  11.822
43038SOL    HW130946   9.071   1.390  11.754
43038SOL    HW230947   9.207   1.372  11.818
43039SOL     OW30948   9.151  10.802  11.690
43039SOL    HW130949   9.219  10.826  11.753
43039SOL    HW230950   9.072  10.793  11.743
43040SOL     OW30951   3.310   3.695   1.272
43040SOL    HW130952   3.336   3.773   1.222
43040SOL    HW230953   3.274   3.635   1.207
43041SOL     OW30954   5.639  13.679  11.508
43041SOL    HW130955   5.545  13.661  11.496
43041SOL    HW230956   5.667  13.613  11.572
43042SOL     OW30957   7.299  13.740   5.272
43042SOL    HW130958   7.289  13.835   5.276
43042SOL    HW230959   7.211  13.706   5.286
43043SOL     OW30960  11.099  10.074  13.663
43043SOL    HW130961  11.067  10.161  13.686
43043SOL    HW230962  11.043  10.046  13.590
43044SOL     OW30963   8.658   1.273   7.746
43044SOL    HW130964   8.693   1.322   7.671
43044SOL    HW230965   8.659   1.182   7.716
43045SOL     OW30966   6.420  14.348   2.356
43045SOL    HW130967   6.382  14.261   2.340
43045SOL    HW230968   6.509  14.329   2.386
43046SOL     OW30969   0.652  12.990   9.618
43046SOL    HW130970   0.698  12.958   9.541
43046SOL    HW230971   0.682  13.080   9.629
43047SOL     OW30972   7.759   9.325   6.495
43047SOL    HW130973   7.769   9.265   6.421
43047SOL    HW230974   7.844   9.368   6.502
43048SOL     OW30975   7.060   4.166   7.033
43048SOL    HW130976   7.123   4.096   7.049
43048SOL    HW230977   6.985   4.121   6.994
43049SOL     OW30978   9.738   4.822   0.066
43049SOL    HW130979   9.664   4.884   0.065
43049SOL    HW230980   9.726   4.768  14.861
43050SOL     OW30981   5.080   9.471   4.722
43050SOL    HW130982   5.167   9.507   4.707
43050SOL    HW230983   5.092   9.377   4.713
43051SOL     OW30984   7.941  12.989  13.098
43051SOL    HW130985   7.874  12.999  13.166
43051SOL    HW230986   7.960  12.895  13.098
43052SOL     OW30987   4.042   5.882   1.473
43052SOL    HW130988   4.104   5.954   1.460
43052SOL    HW230989   4.024   5.851   1.384
43053SOL     OW30990   8.151   9.868   5.670
43053SOL    HW130991   8.245   9.849   5.662
43053SOL    HW230992   8.132   9.859   5.763
43054SOL     OW30993   4.679   2.741   0.293
43054SOL    HW130994   4.762   2.737   0.246
43054SOL    HW230995   4.614   2.764   0.227
43055SOL     OW30996   3.605   1.973   4.792
43055SOL    HW130997   3.677   1.995   4.733
43055SOL    HW230998   3.639   1.994   4.880
43056SOL     OW30999   5.532   0.680   5.597
43056SOL    HW131000   5.585   0.639   5.666
43056SOL    HW231001   5.533   0.773   5.618
43057SOL     OW31002   1.667   4.389   3.672
43057SOL    HW131003   1.583   4.434   3.675
43057SOL    HW231004   1.672   4.352   3.584
43058SOL     OW31005  13.396   9.282  13.551
43058SOL    HW131006  13.326   9.221  13.527
43058SOL    HW231007  13.363   9.368  13.524
43059SOL     OW31008   2.432   5.063   6.307
43059SOL    HW131009   2.514   5.109   6.288
43059SOL    HW231010   2.384   5.063   6.224
43060SOL     OW31011   7.900  10.388   6.254
43060SOL    HW131012   7.924  10.303   6.289
43060SOL    HW231013   7.805  10.384   6.244
43061SOL     OW31014   5.242  14.435  10.954
43061SOL    HW131015   5.296  14.396  10.886
43061SOL    HW231016   5.183  14.494  10.906
43062SOL     OW31017  13.562   6.216  13.188
43062SOL    HW131018  13.569   6.289  13.126
43062SOL    HW231019  13.606   6.143  13.143
43063SOL     OW31020   3.671   6.092  12.376
43063SOL    HW131021   3.746   6.134  12.334
43063SOL    HW231022   3.612   6.164  12.398
43064SOL     OW31023  10.333   3.164   7.916
43064SOL    HW131024  10.240   3.177   7.898
43064SOL    HW231025  10.359   3.239   7.969
43065SOL     OW31026  11.494  12.400   8.633
43065SOL    HW131027  11.526  12.474   8.684
43065SOL    HW231028  11.452  12.440   8.557
43066SOL     OW31029   1.844  12.385  11.754
43066SOL    HW131030   1.910  12.316  11.758
43066SOL    HW231031   1.770  12.349  11.804
43067SOL     OW31032   7.043   9.183  10.020
43067SOL    HW131033   7.084   9.230  10.093
43067SOL    HW231034   6.964   9.234  10.001
43068SOL     OW31035   2.353   4.183   7.810
43068SOL    HW131036   2.293   4.173   7.884
43068SOL    HW231037   2.386   4.095   7.794
43069SOL     OW31038   2.509   6.165   2.342
43069SOL    HW131039   2.555   6.248   2.345
43069SOL    HW231040   2.428   6.180   2.392
43070SOL     OW31041  12.367   4.975  11.347
43070SOL    HW131042  12.393   4.887  11.373
43070SOL    HW231043  12.272   4.976  11.353
43071SOL     OW31044   6.139  11.901   9.377
43071SOL    HW131045   6.134  11.996   9.374
43071SOL    HW231046   6.064  11.872   9.324
43072SOL     OW31047  12.146  10.683   1.944
43072SOL    HW131048  12.058  10.719   1.956
43072SOL    HW231049  12.132  10.590   1.926
43073SOL     OW31050   5.605   8.187  14.811
43073SOL    HW131051   5.612   8.199   0.033
43073SOL    HW231052   5.672   8.245  14.774
43074SOL     OW31053   3.666  14.126  12.412
43074SOL    HW131054   3.749  14.081  12.398
43074SOL    HW231055   3.666  14.148  12.505
43075SOL     OW31056   5.811   1.132  11.067
43075SOL    HW131057   5.815   1.139  10.971
43075SOL    HW231058   5.717   1.135  11.087
43076SOL     OW31059   3.787   5.357   4.544
43076SOL    HW131060   3.727   5.419   4.586
43076SOL    HW231061   3.872   5.375   4.585
43077SOL     OW31062   4.975  14.200  11.240
43077SOL    HW131063   4.984  14.191  11.146
43077SOL    HW231064   5.063  14.184  11.275
43078SOL     OW31065   5.159  10.179   3.101
43078SOL    HW131066   5.099  10.192   3.175
43078SOL    HW231067   5.241  10.220   3.128
43079SOL     OW31068   0.019  13.737   9.367
43079SOL    HW131069   0.036  13.795   9.293
43079SOL    HW231070   0.005  13.651   9.328
43080SOL     OW31071   8.179  10.810   8.666
43080SOL    HW131072   8.245  10.743   8.647
43080SOL    HW231073   8.144  10.834   8.580
43081SOL     OW31074  13.214   2.256   4.497
43081SOL    HW131075  13.187   2.193   4.430
43081SOL    HW231076  13.133   2.293   4.530
43082SOL     OW31077   1.965   5.893   9.469
43082SOL    HW131078   1.952   5.988   9.464
43082SOL    HW231079   1.882   5.859   9.502
43083SOL     OW31080  12.684   7.726  14.174
43083SOL    HW131081  12.689   7.787  14.247
43083SOL    HW231082  12.774   7.718  14.142
43084SOL     OW31083  10.254  10.477   1.079
43084SOL    HW131084  10.213  10.438   1.002
43084SOL    HW231085  10.225  10.568   1.077
43085SOL     OW31086   9.732   5.341   4.347
43085SOL    HW131087   9.761   5.253   4.372
43085SOL    HW231088   9.796   5.400   4.386
43086SOL     OW31089   4.410   9.968   6.334
43086SOL    HW131090   4.324   9.982   6.372
43086SOL    HW231091   4.393   9.931   6.248
43087SOL     OW31092   1.846   4.797   5.189
43087SOL    HW131093   1.788   4.793   5.265
43087SOL    HW231094   1.800   4.751   5.120
43088SOL     OW31095   3.594   7.642   3.285
43088SOL    HW131096   3.586   7.692   3.366
43088SOL    HW231097   3.558   7.701   3.218
43089SOL     OW31098   7.661   8.704   3.348
43089SOL    HW131099   7.687   8.626   3.398
43089SOL    HW231100   7.576   8.728   3.385
43090SOL     OW31101   9.880  12.854   4.185
43090SOL    HW131102   9.801  12.847   4.239
43090SOL    HW231103   9.951  12.865   4.248
43091SOL     OW31104  10.459   4.364   9.178
43091SOL    HW131105  10.517   4.327   9.111
43091SOL    HW231106  10.388   4.404   9.128
43092SOL     OW31107   4.226   4.593   2.075
43092SOL    HW131108   4.293   4.525   2.063
43092SOL    HW231109   4.148   4.555   2.035
43093SOL     OW31110   5.085   6.266   5.713
43093SOL    HW131111   5.130   6.216   5.781
43093SOL    HW231112   5.074   6.204   5.641
43094SOL     OW31113  12.462   7.653   7.205
43094SOL    HW131114  12.462   7.739   7.163
43094SOL    HW231115  12.383   7.610   7.171
43095SOL     OW31116  13.615   8.770   5.688
43095SOL    HW131117  13.660   8.760   5.772
43095SOL    HW231118  13.653   8.849   5.649
43096SOL     OW31119   5.658  11.386   4.144
43096SOL    HW131120   5.677  11.301   4.185
43096SOL    HW231121   5.668  11.449   4.215
43097SOL     OW31122  13.776   3.010   8.692
43097SOL    HW131123  13.703   2.958   8.725
43097SOL    HW231124  13.822   2.952   8.632
43098SOL     OW31125  14.016   4.237  14.114
43098SOL    HW131126  14.025   4.327  14.083
43098SOL    HW231127  13.945   4.200  14.061
43099SOL     OW31128   5.977   6.211   2.988
43099SOL    HW131129   5.969   6.201   3.083
43099SOL    HW231130   6.005   6.125   2.957
43100SOL     OW31131  12.909  12.636   1.594
43100SOL    HW131132  12.938  12.572   1.660
43100SOL    HW231133  12.837  12.594   1.549
43101SOL     OW31134  13.885   5.787  12.681
43101SOL    HW131135  13.849   5.739  12.607
43101SOL    HW231136  13.980   5.784  12.667
43102SOL     OW31137  14.078   9.684   3.552
43102SOL    HW131138  14.015   9.634   3.603
43102SOL    HW231139  14.051   9.775   3.563
43103SOL     OW31140  12.602   3.938   6.277
43103SOL    HW131141  12.539   4.008   6.263
43103SOL    HW231142  12.630   3.913   6.189
43104SOL     OW31143  12.485   7.890  14.683
43104SOL    HW131144  12.512   7.954  14.617
43104SOL    HW231145  12.405   7.851  14.648
43105SOL     OW31146   5.910  10.916   7.840
43105SOL    HW131147   5.827  10.896   7.795
43105SOL    HW231148   5.978  10.888   7.778
43106SOL     OW31149  10.152   7.970   0.521
43106SOL    HW131150  10.066   7.961   0.563
43106SOL    HW231151  10.214   7.948   0.590
43107SOL     OW31152   5.596   5.266  12.494
43107SOL    HW131153   5.619   5.353  12.527
43107SOL    HW231154   5.585   5.279  12.399
43108SOL     OW31155  14.771   0.332   1.470
43108SOL    HW131156  14.854   0.330   1.518
43108SOL    HW231157  14.745   0.424   1.473
43109SOL     OW31158   0.037   0.505   5.927
43109SOL    HW131159  14.871   0.550   5.851
43109SOL    HW231160   0.048   0.574   5.992
43110SOL     OW31161   9.083   9.350   6.492
43110SOL    HW131162   9.123   9.345   6.406
43110SOL    HW231163   9.075   9.444   6.510
43111SOL     OW31164  14.219   6.291  11.699
43111SOL    HW131165  14.218   6.243  11.782
43111SOL    HW231166  14.207   6.382  11.724
43112SOL     OW31167   8.831   2.799   7.007
43112SOL    HW131168   8.785   2.806   6.923
43112SOL    HW231169   8.885   2.878   7.012
43113SOL     OW31170   7.970   4.999   3.439
43113SOL    HW131171   8.047   5.008   3.494
43113SOL    HW231172   7.999   5.024   3.352
43114SOL     OW31173   8.252   1.555   7.361
43114SOL    HW131174   8.205   1.633   7.332
43114SOL    HW231175   8.308   1.533   7.287
43115SOL     OW31176   7.711   0.307  11.308
43115SOL    HW131177   7.794   0.269  11.279
43115SOL    HW231178   7.727   0.332  11.399
43116SOL     OW31179   6.397  13.704  11.446
43116SOL    HW131180   6.363  13.781  11.401
43116SOL    HW231181   6.350  13.630  11.409
43117SOL     OW31182   2.444  10.828   4.579
43117SOL    HW131183   2.442  10.879   4.499
43117SOL    HW231184   2.399  10.746   4.557
43118SOL     OW31185   3.434  13.293   3.960
43118SOL    HW131186   3.469  13.326   4.043
43118SOL    HW231187   3.382  13.216   3.985
43119SOL     OW31188  14.588  10.585  11.839
43119SOL    HW131189  14.538  10.627  11.909
43119SOL    HW231190  14.642  10.520  11.883
43120SOL     OW31191   0.016  12.186   3.319
43120SOL    HW131192  14.857  12.267   3.278
43120SOL    HW231193   0.015  12.122   3.247
43121SOL     OW31194   7.750  13.002   7.728
43121SOL    HW131195   7.814  13.031   7.794
43121SOL    HW231196   7.687  12.949   7.777
43122SOL     OW31197   8.189   6.502  13.703
43122SOL    HW131198   8.206   6.495  13.609
43122SOL    HW231199   8.094   6.516  13.709
43123SOL     OW31200  13.976   7.980   7.320
43123SOL    HW131201  13.981   7.886   7.338
43123SOL    HW231202  13.981   7.986   7.224
43124SOL     OW31203   5.899   3.886   2.295
43124SOL    HW131204   5.852   3.955   2.248
43124SOL    HW231205   5.941   3.834   2.225
43125SOL     OW31206   4.151   8.684  13.073
43125SOL    HW131207   4.065   8.687  13.115
43125SOL    HW231208   4.212   8.663  13.143
43126SOL     OW31209   5.322  11.549   8.565
43126SOL    HW131210   5.245  11.508   8.526
43126SOL    HW231211   5.352  11.487   8.631
43127SOL     OW31212   7.045   1.273   7.824
43127SOL    HW131213   7.032   1.253   7.731
43127SOL    HW231214   7.116   1.337   7.825
43128SOL     OW31215   8.392  14.462  12.489
43128SOL    HW131216   8.418  14.425  12.573
43128SOL    HW231217   8.308  14.421  12.469
43129SOL     OW31218  13.036   1.720  11.856
43129SOL    HW131219  13.053   1.793  11.915
43129SOL    HW231220  12.946   1.734  11.827
43130SOL     OW31221   7.946   4.848   8.752
43130SOL    HW131222   8.011   4.818   8.690
43130SOL    HW231223   7.868   4.796   8.733
43131SOL     OW31224   4.066   1.241   5.798
43131SOL    HW131225   4.096   1.300   5.729
43131SOL    HW231226   3.987   1.201   5.763
43132SOL     OW31227   3.738   4.004   5.186
43132SOL    HW131228   3.783   3.999   5.270
43132SOL    HW231229   3.709   4.095   5.180
43133SOL     OW31230   7.050   2.326   9.083
43133SOL    HW131231   7.049   2.418   9.057
43133SOL    HW231232   7.141   2.309   9.108
43134SOL     OW31233   4.255  14.118   4.502
43134SOL    HW131234   4.286  14.099   4.590
43134SOL    HW231235   4.236  14.212   4.503
43135SOL     OW31236   7.466  14.672   3.601
43135SOL    HW131237   7.482  14.606   3.535
43135SOL    HW231238   7.511  14.750   3.569
43136SOL     OW31239   1.060   5.152   1.333
43136SOL    HW131240   1.154   5.165   1.342
43136SOL    HW231241   1.022   5.195   1.409
43137SOL     OW31242   3.512   8.856  12.042
43137SOL    HW131243   3.576   8.879  11.974
43137SOL    HW231244   3.449   8.800  11.999
43138SOL     OW31245   8.679  12.279  10.063
43138SOL    HW131246   8.608  12.332  10.098
43138SOL    HW231247   8.759  12.317  10.100
43139SOL     OW31248  12.711   7.576   8.009
43139SOL    HW131249  12.728   7.482   8.017
43139SOL    HW231250  12.791   7.611   7.969
43140SOL     OW31251   6.910   5.083   1.380
43140SOL    HW131252   6.998   5.046   1.394
43140SOL    HW231253   6.852   5.008   1.382
43141SOL     OW31254   1.064  11.434   1.145
43141SOL    HW131255   1.037  11.442   1.054
43141SOL    HW231256   1.046  11.343   1.169
43142SOL     OW31257  13.683   0.610   4.840
43142SOL    HW131258  13.628   0.655   4.776
43142SOL    HW231259  13.771   0.613   4.803
43143SOL     OW31260   1.470   9.469   0.275
43143SOL    HW131261   1.393   9.498   0.226
43143SOL    HW231262   1.447   9.481   0.367
43144SOL     OW31263   3.637   6.826  11.771
43144SOL    HW131264   3.568   6.770  11.735
43144SOL    HW231265   3.591   6.889  11.826
43145SOL     OW31266  12.252  11.638  10.270
43145SOL    HW131267  12.324  11.578  10.289
43145SOL    HW231268  12.228  11.619  10.179
43146SOL     OW31269   8.772   0.007  11.414
43146SOL    HW131270   8.699   0.024  11.355
43146SOL    HW231271   8.739   0.032  11.500
43147SOL     OW31272   2.553  10.851   5.539
43147SOL    HW131273   2.480  10.791   5.524
43147SOL    HW231274   2.619  10.825   5.475
43148SOL     OW31275   6.635   3.129   7.018
43148SOL    HW131276   6.660   3.220   7.000
43148SOL    HW231277   6.704   3.077   6.975
43149SOL     OW31278   6.725  14.267  13.858
43149SOL    HW131279   6.693  14.349  13.895
43149SOL    HW231280   6.820  14.270  13.870
43150SOL     OW31281   1.234   7.937  14.197
43150SOL    HW131282   1.155   7.963  14.149
43150SOL    HW231283   1.208   7.940  14.289
43151SOL     OW31284  13.047   8.306   4.233
43151SOL    HW131285  13.085   8.237   4.287
43151SOL    HW231286  13.006   8.366   4.296
43152SOL     OW31287   4.687   2.352  12.752
43152SOL    HW131288   4.641   2.274  12.719
43152SOL    HW231289   4.654   2.363  12.841
43153SOL     OW31290   0.905  12.316   6.509
43153SOL    HW131291   0.957  12.310   6.589
43153SOL    HW231292   0.872  12.406   6.509
43154SOL     OW31293  13.525   5.884   2.514
43154SOL    HW131294  13.460   5.815   2.499
43154SOL    HW231295  13.524   5.899   2.608
43155SOL     OW31296   1.384   1.242   3.594
43155SOL    HW131297   1.348   1.192   3.521
43155SOL    HW231298   1.424   1.177   3.651
43156SOL     OW31299   9.976  13.705   4.802
43156SOL    HW131300   9.890  13.745   4.794
43156SOL    HW231301  10.026  13.738   4.728
43157SOL     OW31302  12.017   9.688   2.471
43157SOL    HW131303  11.985   9.771   2.506
43157SOL    HW231304  12.008   9.627   2.544
43158SOL     OW31305   4.368   1.705   7.091
43158SOL    HW131306   4.422   1.626   7.087
43158SOL    HW231307   4.430   1.777   7.085
43159SOL     OW31308   6.057  11.434   1.619
43159SOL    HW131309   6.112  11.398   1.689
43159SOL    HW231310   6.119  11.481   1.563
43160SOL     OW31311   4.711   0.605   6.078
43160SOL    HW131312   4.656   0.527   6.070
43160SOL    HW231313   4.800   0.573   6.061
43161SOL     OW31314   7.392  11.600   8.039
43161SOL    HW131315   7.447  11.597   8.117
43161SOL    HW231316   7.424  11.675   7.989
43162SOL     OW31317   7.323  10.447   4.890
43162SOL    HW131318   7.250  10.384   4.885
43162SOL    HW231319   7.280  10.533   4.892
43163SOL     OW31320   8.108   3.486   5.805
43163SOL    HW131321   8.167   3.506   5.732
43163SOL    HW231322   8.086   3.393   5.792
43164SOL     OW31323   9.167   8.174  11.465
43164SOL    HW131324   9.097   8.191  11.528
43164SOL    HW231325   9.165   8.080  11.452
43165SOL     OW31326   4.819   0.787   5.284
43165SOL    HW131327   4.761   0.805   5.210
43165SOL    HW231328   4.907   0.802   5.250
43166SOL     OW31329  11.956   6.508  10.151
43166SOL    HW131330  11.917   6.425  10.178
43166SOL    HW231331  11.911   6.574  10.203
43167SOL     OW31332   5.083  10.714  12.662
43167SOL    HW131333   5.120  10.646  12.718
43167SOL    HW231334   5.147  10.723  12.591
43168SOL     OW31335  14.799   2.572   2.573
43168SOL    HW131336  14.869   2.584   2.509
43168SOL    HW231337  14.822   2.631   2.644
43169SOL     OW31338   7.559  13.369  13.026
43169SOL    HW131339   7.500  13.339  13.095
43169SOL    HW231340   7.631  13.411  13.072
43170SOL     OW31341   5.944   7.427  10.161
43170SOL    HW131342   5.938   7.472  10.077
43170SOL    HW231343   5.916   7.337  10.143
43171SOL     OW31344  10.522   1.871   1.568
43171SOL    HW131345  10.543   1.952   1.521
43171SOL    HW231346  10.569   1.803   1.520
43172SOL     OW31347  13.432   5.566  13.018
43172SOL    HW131348  13.457   5.499  13.081
43172SOL    HW231349  13.396   5.637  13.070
43173SOL     OW31350   1.403  14.072   5.244
43173SOL    HW131351   1.311  14.097   5.254
43173SOL    HW231352   1.444  14.100   5.326
43174SOL     OW31353  13.633   1.917  13.107
43174SOL    HW131354  13.576   1.985  13.142
43174SOL    HW231355  13.602   1.903  13.017
43175SOL     OW31356   4.744  10.894  13.615
43175SOL    HW131357   4.696  10.883  13.533
43175SOL    HW231358   4.681  10.869  13.683
43176SOL     OW31359  13.097  10.850   7.878
43176SOL    HW131360  13.137  10.852   7.965
43176SOL    HW231361  13.073  10.758   7.865
43177SOL     OW31362  12.122   9.536   1.940
43177SOL    HW131363  12.047   9.529   1.881
43177SOL    HW231364  12.093   9.597   2.008
43178SOL     OW31365   5.985   2.294  11.695
43178SOL    HW131366   6.078   2.311  11.681
43178SOL    HW231367   5.983   2.207  11.735
43179SOL     OW31368   2.376   7.307  13.274
43179SOL    HW131369   2.451   7.362  13.253
43179SOL    HW231370   2.399   7.267  13.358
43180SOL     OW31371   5.719  13.720   2.427
43180SOL    HW131372   5.697  13.718   2.334
43180SOL    HW231373   5.711  13.628   2.455
43181SOL     OW31374  11.468   7.875   3.039
43181SOL    HW131375  11.493   7.848   2.950
43181SOL    HW231376  11.373   7.867   3.041
43182SOL     OW31377   4.132  14.694  14.862
43182SOL    HW131378   4.094  14.775   0.024
43182SOL    HW231379   4.227  14.707  14.868
43183SOL     OW31380   3.838   7.565   5.981
43183SOL    HW131381   3.879   7.643   5.945
43183SOL    HW231382   3.873   7.558   6.070
43184SOL     OW31383  12.647   3.731  12.420
43184SOL    HW131384  12.562   3.736  12.376
43184SOL    HW231385  12.663   3.820  12.450
43185SOL     OW31386   8.150   1.289   1.485
43185SOL    HW131387   8.146   1.372   1.533
43185SOL    HW231388   8.107   1.308   1.401
43186SOL     OW31389   9.290   6.992   5.979
43186SOL    HW131390   9.379   7.022   5.961
43186SOL    HW231391   9.271   6.931   5.908
43187SOL     OW31392   1.392   5.202   4.610
43187SOL    HW131393   1.473   5.191   4.659
43187SOL    HW231394   1.386   5.296   4.595
43188SOL     OW31395   6.488   1.338   9.128
43188SOL    HW131396   6.397   1.308   9.138
43188SOL    HW231397   6.491   1.372   9.038
43189SOL     OW31398   2.319   8.113  12.601
43189SOL    HW131399   2.362   8.052  12.660
43189SOL    HW231400   2.383   8.183  12.588
43190SOL     OW31401  12.303  10.434   9.663
43190SOL    HW131402  12.210  10.435   9.637
43190SOL    HW231403  12.315  10.348   9.703
43191SOL     OW31404   5.237   6.101   4.731
43191SOL    HW131405   5.301   6.137   4.791
43191SOL    HW231406   5.273   6.120   4.644
43192SOL     OW31407   2.666   3.364   2.384
43192SOL    HW131408   2.576   3.367   2.351
43192SOL    HW231409   2.712   3.305   2.325
43193SOL     OW31410  11.843   5.850   3.901
43193SOL    HW131411  11.891   5.932   3.893
43193SOL    HW231412  11.855   5.806   3.816
43194SOL     OW31413   8.161   2.284   1.813
43194SOL    HW131414   8.163   2.379   1.830
43194SOL    HW231415   8.178   2.276   1.719
43195SOL     OW31416   3.668   3.676   2.212
43195SOL    HW131417   3.622   3.759   2.200
43195SOL    HW231418   3.626   3.617   2.150
43196SOL     OW31419  11.897   4.937   5.221
43196SOL    HW131420  11.916   4.919   5.313
43196SOL    HW231421  11.979   4.917   5.176
43197SOL     OW31422   1.939   9.841   2.620
43197SOL    HW131423   2.022   9.870   2.658
43197SOL    HW231424   1.933   9.888   2.537
43198SOL     OW31425  13.433   5.348   8.389
43198SOL    HW131426  13.414   5.355   8.483
43198SOL    HW231427  13.372   5.409   8.348
43199SOL     OW31428  10.418  12.233   9.250
43199SOL    HW131429  10.406  12.219   9.344
43199SOL    HW231430  10.329  12.242   9.215
43200SOL     OW31431  14.841  13.348   3.876
43200SOL    HW131432  14.841  13.367   3.970
43200SOL    HW231433  14.869  13.256   3.870
43201SOL     OW31434   8.570   5.621   3.350
43201SOL    HW131435   8.568   5.713   3.323
43201SOL    HW231436   8.659   5.592   3.331
43202SOL     OW31437   4.079   2.455   6.552
43202SOL    HW131438   4.129   2.506   6.488
43202SOL    HW231439   3.989   2.458   6.520
43203SOL     OW31440   6.138  12.535   3.890
43203SOL    HW131441   6.081  12.588   3.946
43203SOL    HW231442   6.126  12.445   3.922
43204SOL     OW31443   8.549  14.369  13.325
43204SOL    HW131444   8.490  14.312  13.375
43204SOL    HW231445   8.636  14.331  13.340
43205SOL     OW31446   2.200   1.534  13.460
43205SOL    HW131447   2.254   1.594  13.512
43205SOL    HW231448   2.129   1.588  13.427
43206SOL     OW31449   6.745  10.682  13.721
43206SOL    HW131450   6.826  10.699  13.671
43206SOL    HW231451   6.776  10.657  13.808
43207SOL     OW31452  10.762   5.997  12.083
43207SOL    HW131453  10.796   5.915  12.119
43207SOL    HW231454  10.676   5.974  12.047
43208SOL     OW31455   8.828   8.795  11.291
43208SOL    HW131456   8.918   8.784  11.260
43208SOL    HW231457   8.793   8.707  11.296
43209SOL     OW31458  12.462   2.724   7.345
43209SOL    HW131459  12.419   2.808   7.332
43209SOL    HW231460  12.531   2.721   7.279
43210SOL     OW31461   9.760  12.154  11.621
43210SOL    HW131462   9.796  12.068  11.602
43210SOL    HW231463   9.740  12.152  11.714
43211SOL     OW31464   6.669   1.029   9.511
43211SOL    HW131465   6.620   1.079   9.446
43211SOL    HW231466   6.605   1.004   9.577
43212SOL     OW31467   7.645  13.717   2.170
43212SOL    HW131468   7.598  13.798   2.150
43212SOL    HW231469   7.578  13.649   2.159
43213SOL     OW31470   3.506   6.971  10.578
43213SOL    HW131471   3.416   6.969  10.545
43213SOL    HW231472   3.538   6.881  10.564
43214SOL     OW31473   0.773  13.002  10.435
43214SOL    HW131474   0.695  13.042  10.398
43214SOL    HW231475   0.826  12.977  10.359
43215SOL     OW31476   3.430  11.946  14.287
43215SOL    HW131477   3.432  11.851  14.274
43215SOL    HW231478   3.522  11.973  14.279
43216SOL     OW31479   7.984  13.514   0.638
43216SOL    HW131480   7.971  13.504   0.732
43216SOL    HW231481   7.900  13.489   0.599
43217SOL     OW31482   7.795  10.122   7.820
43217SOL    HW131483   7.870  10.096   7.766
43217SOL    HW231484   7.810  10.214   7.840
43218SOL     OW31485   8.138   3.961   3.500
43218SOL    HW131486   8.185   4.008   3.431
43218SOL    HW231487   8.189   3.978   3.580
43219SOL     OW31488   3.817   2.103   0.473
43219SOL    HW131489   3.890   2.154   0.440
43219SOL    HW231490   3.788   2.149   0.551
43220SOL     OW31491   7.792  13.364  10.609
43220SOL    HW131492   7.849  13.357  10.533
43220SOL    HW231493   7.712  13.317  10.583
43221SOL     OW31494   6.964   7.392   6.214
43221SOL    HW131495   6.942   7.476   6.174
43221SOL    HW231496   6.981   7.413   6.306
43222SOL     OW31497  11.230   5.992  13.271
43222SOL    HW131498  11.197   5.917  13.221
43222SOL    HW231499  11.293   6.034  13.212
43223SOL     OW31500   7.069  11.524   7.230
43223SOL    HW131501   7.072  11.569   7.146
43223SOL    HW231502   7.132  11.570   7.285
43224SOL     OW31503   2.288   5.338   2.171
43224SOL    HW131504   2.209   5.381   2.202
43224SOL    HW231505   2.354   5.358   2.237
43225SOL     OW31506   2.272  12.969   8.584
43225SOL    HW131507   2.189  12.978   8.632
43225SOL    HW231508   2.272  13.043   8.522
43226SOL     OW31509  10.710   3.124   0.477
43226SOL    HW131510  10.759   3.090   0.403
43226SOL    HW231511  10.672   3.047   0.518
43227SOL     OW31512   8.563  13.195   6.671
43227SOL    HW131513   8.601  13.244   6.598
43227SOL    HW231514   8.625  13.125   6.689
43228SOL     OW31515   8.819   6.427  14.691
43228SOL    HW131516   8.729   6.432  14.659
43228SOL    HW231517   8.813   6.456  14.782
43229SOL     OW31518   1.446  14.556   4.100
43229SOL    HW131519   1.458  14.632   4.044
43229SOL    HW231520   1.512  14.493   4.070
43230SOL     OW31521   7.032  10.726  10.556
43230SOL    HW131522   6.975  10.680  10.618
43230SOL    HW231523   7.090  10.659  10.522
43231SOL     OW31524   3.664  11.433   2.129
43231SOL    HW131525   3.637  11.507   2.182
43231SOL    HW231526   3.692  11.367   2.193
43232SOL     OW31527   0.215  12.389  10.849
43232SOL    HW131528   0.229  12.480  10.823
43232SOL    HW231529   0.122  12.373  10.832
43233SOL     OW31530   3.762   8.707   7.549
43233SOL    HW131531   3.741   8.777   7.610
43233SOL    HW231532   3.724   8.628   7.587
43234SOL     OW31533  10.093   7.002   4.957
43234SOL    HW131534  10.013   7.051   4.977
43234SOL    HW231535  10.138   7.056   4.891
43235SOL     OW31536  12.311   1.644  13.102
43235SOL    HW131537  12.332   1.557  13.135
43235SOL    HW231538  12.347   1.703  13.169
43236SOL     OW31539   4.072   5.736   6.896
43236SOL    HW131540   4.036   5.757   6.809
43236SOL    HW231541   4.032   5.800   6.955
43237SOL     OW31542  14.220   7.810   5.665
43237SOL    HW131543  14.138   7.793   5.713
43237SOL    HW231544  14.210   7.761   5.583
43238SOL     OW31545  10.246   8.950  10.647
43238SOL    HW131546  10.230   8.859  10.620
43238SOL    HW231547  10.297   8.942  10.727
43239SOL     OW31548  12.071   2.632   4.461
43239SOL    HW131549  12.128   2.573   4.411
43239SOL    HW231550  11.983   2.612   4.430
43240SOL     OW31551  14.418   7.620   8.719
43240SOL    HW131552  14.417   7.547   8.657
43240SOL    HW231553  14.332   7.617   8.760
43241SOL     OW31554  13.469  10.908   2.113
43241SOL    HW131555  13.559  10.876   2.112
43241SOL    HW231556  13.415  10.830   2.096
43242SOL     OW31557  13.829   2.497   1.393
43242SOL    HW131558  13.898   2.495   1.459
43242SOL    HW231559  13.873   2.524   1.312
43243SOL     OW31560  10.721   7.657   3.353
43243SOL    HW131561  10.777   7.641   3.429
43243SOL    HW231562  10.688   7.570   3.330
43244SOL     OW31563   5.692  14.621   4.459
43244SOL    HW131564   5.679  14.646   4.550
43244SOL    HW231565   5.604  14.619   4.421
43245SOL     OW31566  13.131  13.862   0.429
43245SOL    HW131567  13.121  13.908   0.345
43245SOL    HW231568  13.111  13.771   0.408
43246SOL     OW31569   5.941   5.116  14.523
43246SOL    HW131570   5.866   5.168  14.553
43246SOL    HW231571   5.997   5.179  14.477
43247SOL     OW31572  13.136   4.111  10.376
43247SOL    HW131573  13.192   4.034  10.362
43247SOL    HW231574  13.047   4.075  10.381
43248SOL     OW31575   1.932   3.243   0.443
43248SOL    HW131576   1.978   3.189   0.379
43248SOL    HW231577   1.959   3.210   0.528
43249SOL     OW31578  13.193   0.052  10.700
43249SOL    HW131579  13.255   0.067  10.628
43249SOL    HW231580  13.165  14.833  10.689
43250SOL     OW31581   8.653  13.518  11.222
43250SOL    HW131582   8.597  13.542  11.295
43250SOL    HW231583   8.611  13.558  11.145
43251SOL     OW31584  13.487  14.140  11.295
43251SOL    HW131585  13.464  14.129  11.387
43251SOL    HW231586  13.408  14.113  11.248
43252SOL     OW31587   7.512   2.366  13.096
43252SOL    HW131588   7.578   2.332  13.157
43252SOL    HW231589   7.547   2.450  13.068
43253SOL     OW31590   7.041  14.390   7.597
43253SOL    HW131591   7.019  14.341   7.676
43253SOL    HW231592   7.117  14.345   7.560
43254SOL     OW31593   5.762   8.125   8.550
43254SOL    HW131594   5.670   8.153   8.549
43254SOL    HW231595   5.778   8.100   8.641
43255SOL     OW31596  13.757   6.246   2.616
43255SOL    HW131597  13.730   6.162   2.579
43255SOL    HW231598  13.690   6.266   2.681
43256SOL     OW31599   1.520   0.428  11.256
43256SOL    HW131600   1.448   0.469  11.208
43256SOL    HW231601   1.599   0.468  11.221
43257SOL     OW31602   7.116   3.532   7.785
43257SOL    HW131603   7.084   3.442   7.779
43257SOL    HW231604   7.070   3.568   7.861
43258SOL     OW31605  14.748  10.155   6.053
43258SOL    HW131606  14.699  10.197   6.123
43258SOL    HW231607  14.812  10.100   6.098
43259SOL     OW31608   2.746  10.808   2.011
43259SOL    HW131609   2.817  10.872   2.006
43259SOL    HW231610   2.670  10.855   1.978
43260SOL     OW31611  14.448   7.380   5.213
43260SOL    HW131612  14.486   7.339   5.136
43260SOL    HW231613  14.464   7.474   5.201
43261SOL     OW31614  13.347   8.470   5.826
43261SOL    HW131615  13.315   8.559   5.831
43261SOL    HW231616  13.442   8.479   5.813
43262SOL     OW31617   1.589   9.736   8.164
43262SOL    HW131618   1.567   9.829   8.162
43262SOL    HW231619   1.504   9.691   8.173
43263SOL     OW31620   8.088  11.493  11.842
43263SOL    HW131621   8.040  11.528  11.766
43263SOL    HW231622   8.033  11.421  11.873
43264SOL     OW31623   6.264   2.951  12.077
43264SOL    HW131624   6.279   2.872  12.024
43264SOL    HW231625   6.351   2.974  12.110
43265SOL     OW31626   3.256   1.832  13.618
43265SOL    HW131627   3.330   1.890  13.634
43265SOL    HW231628   3.189   1.861  13.680
43266SOL     OW31629  14.572   0.530   1.314
43266SOL    HW131630  14.546   0.438   1.322
43266SOL    HW231631  14.581   0.560   1.405
43267SOL     OW31632  12.789  13.646   1.830
43267SOL    HW131633  12.708  13.597   1.846
43267SOL    HW231634  12.776  13.730   1.874
43268SOL     OW31635   5.164   8.739   5.449
43268SOL    HW131636   5.142   8.764   5.539
43268SOL    HW231637   5.131   8.649   5.441
43269SOL     OW31638   1.836   1.410  14.700
43269SOL    HW131639   1.826   1.487  14.644
43269SOL    HW231640   1.777   1.345  14.660
43270SOL     OW31641  12.800  12.479  12.230
43270SOL    HW131642  12.738  12.406  12.220
43270SOL    HW231643  12.744  12.557  12.236
43271SOL     OW31644   0.778  14.543  11.236
43271SOL    HW131645   0.859  14.546  11.185
43271SOL    HW231646   0.807  14.530  11.327
43272SOL     OW31647   6.894   5.379   6.468
43272SOL    HW131648   6.846   5.435   6.407
43272SOL    HW231649   6.830   5.357   6.535
43273SOL     OW31650   9.770  12.159  11.877
43273SOL    HW131651   9.736  12.127  11.960
43273SOL    HW231652   9.846  12.213  11.901
43274SOL     OW31653   7.090   4.527   1.562
43274SOL    HW131654   7.167   4.582   1.574
43274SOL    HW231655   7.087   4.509   1.468
43275SOL     OW31656  14.070   5.483   8.008
43275SOL    HW131657  14.011   5.551   8.038
43275SOL    HW231658  14.138   5.479   8.074
43276SOL     OW31659  13.856  13.498  14.395
43276SOL    HW131660  13.821  13.586  14.382
43276SOL    HW231661  13.927  13.491  14.332
43277SOL     OW31662  13.489  12.038   1.523
43277SOL    HW131663  13.462  12.034   1.614
43277SOL    HW231664  13.517  11.949   1.502
43278SOL     OW31665   6.169   1.382  10.986
43278SOL    HW131666   6.085   1.403  11.028
43278SOL    HW231667   6.235   1.416  11.047
43279SOL     OW31668  12.881  13.618   3.014
43279SOL    HW131669  12.806  13.559   3.022
43279SOL    HW231670  12.957  13.561   3.015
43280SOL     OW31671   0.374   5.568   3.611
43280SOL    HW131672   0.345   5.617   3.687
43280SOL    HW231673   0.467   5.552   3.627
43281SOL     OW31674   6.406   1.839   4.941
43281SOL    HW131675   6.421   1.764   4.883
43281SOL    HW231676   6.440   1.914   4.892
43282SOL     OW31677  13.568   8.337  11.987
43282SOL    HW131678  13.587   8.381  12.070
43282SOL    HW231679  13.652   8.300  11.961
43283SOL     OW31680  11.937   2.551  10.610
43283SOL    HW131681  11.942   2.476  10.550
43283SOL    HW231682  11.957   2.514  10.696
43284SOL     OW31683  12.204  10.606  13.354
43284SOL    HW131684  12.115  10.583  13.327
43284SOL    HW231685  12.255  10.600  13.274
43285SOL     OW31686   6.776  14.611   2.788
43285SOL    HW131687   6.809  14.545   2.728
43285SOL    HW231688   6.848  14.627   2.849
43286SOL     OW31689  13.335   7.728   6.670
43286SOL    HW131690  13.261   7.699   6.616
43286SOL    HW231691  13.318   7.689   6.756
43287SOL     OW31692   0.723  13.788   1.341
43287SOL    HW131693   0.774  13.749   1.412
43287SOL    HW231694   0.779  13.857   1.306
43288SOL     OW31695  13.583  11.841  11.892
43288SOL    HW131696  13.501  11.841  11.844
43288SOL    HW231697  13.618  11.930  11.879
43289SOL     OW31698  11.463   5.840  11.251
43289SOL    HW131699  11.551   5.844  11.288
43289SOL    HW231700  11.420   5.770  11.299
43290SOL     OW31701   2.526   6.707  13.453
43290SOL    HW131702   2.435   6.711  13.424
43290SOL    HW231703   2.577   6.707  13.372
43291SOL     OW31704   6.937   1.743  10.760
43291SOL    HW131705   6.875   1.688  10.808
43291SOL    HW231706   7.022   1.724  10.799
43292SOL     OW31707  10.614  12.397   0.249
43292SOL    HW131708  10.528  12.364   0.274
43292SOL    HW231709  10.657  12.417   0.333
43293SOL     OW31710   9.543   8.116   3.868
43293SOL    HW131711   9.459   8.117   3.823
43293SOL    HW231712   9.574   8.207   3.861
43294SOL     OW31713   7.146  12.620  14.248
43294SOL    HW131714   7.168  12.558  14.179
43294SOL    HW231715   7.222  12.622  14.305
43295SOL     OW31716  11.847  12.794   4.816
43295SOL    HW131717  11.765  12.756   4.846
43295SOL    HW231718  11.891  12.822   4.897
43296SOL     OW31719   7.403  11.192   3.975
43296SOL    HW131720   7.493  11.157   3.975
43296SOL    HW231721   7.373  11.180   3.884
43297SOL     OW31722  11.365   7.844  10.731
43297SOL    HW131723  11.336   7.753  10.719
43297SOL    HW231724  11.286   7.891  10.756
43298SOL     OW31725  13.293   3.177  14.377
43298SOL    HW131726  13.246   3.159  14.296
43298SOL    HW231727  13.382   3.198  14.350
43299SOL     OW31728   8.724   7.775   9.193
43299SOL    HW131729   8.711   7.773   9.288
43299SOL    HW231730   8.805   7.724   9.179
43300SOL     OW31731   6.342  10.613   2.589
43300SOL    HW131732   6.264  10.655   2.625
43300SOL    HW231733   6.409  10.682   2.590
43301SOL     OW31734  12.998   7.398   3.603
43301SOL    HW131735  13.070   7.453   3.574
43301SOL    HW231736  13.040   7.323   3.645
43302SOL     OW31737   4.789   2.462   0.290
43302SOL    HW131738   4.740   2.522   0.233
43302SOL    HW231739   4.737   2.382   0.291
43303SOL     OW31740   2.982   4.404  10.556
43303SOL    HW131741   2.961   4.316  10.588
43303SOL    HW231742   2.940   4.408  10.470
43304SOL     OW31743   5.528   9.593   5.983
43304SOL    HW131744   5.467   9.626   5.917
43304SOL    HW231745   5.611   9.583   5.936
43305SOL     OW31746   8.515  13.389  11.796
43305SOL    HW131747   8.589  13.351  11.749
43305SOL    HW231748   8.474  13.448  11.733
43306SOL     OW31749  12.213  12.374   9.777
43306SOL    HW131750  12.193  12.383   9.684
43306SOL    HW231751  12.307  12.391   9.783
43307SOL     OW31752  13.208   1.031   7.092
43307SOL    HW131753  13.272   1.006   7.026
43307SOL    HW231754  13.219   1.125   7.103
43308SOL     OW31755   7.373  13.647   3.996
43308SOL    HW131756   7.399  13.577   4.056
43308SOL    HW231757   7.381  13.727   4.047
43309SOL     OW31758  13.211   4.832   9.811
43309SOL    HW131759  13.300   4.828   9.776
43309SOL    HW231760  13.177   4.743   9.800
43310SOL     OW31761   0.497   0.233  10.326
43310SOL    HW131762   0.504   0.138  10.338
43310SOL    HW231763   0.403   0.250  10.319
43311SOL     OW31764   7.184  13.364   3.005
43311SOL    HW131765   7.164  13.403   2.920
43311SOL    HW231766   7.229  13.283   2.985
43312SOL     OW31767  12.336  10.276   9.315
43312SOL    HW131768  12.372  10.265   9.227
43312SOL    HW231769  12.383  10.213   9.369
43313SOL     OW31770  10.673  11.097   7.303
43313SOL    HW131771  10.666  11.180   7.257
43313SOL    HW231772  10.722  11.118   7.383
43314SOL     OW31773   1.123   9.815  10.650
43314SOL    HW131774   1.191   9.815  10.582
43314SOL    HW231775   1.162   9.866  10.721
43315SOL     OW31776   9.175   0.147   8.676
43315SOL    HW131777   9.206   0.112   8.760
43315SOL    HW231778   9.125   0.075   8.638
43316SOL     OW31779   0.500  12.167  11.168
43316SOL    HW131780   0.527  12.246  11.215
43316SOL    HW231781   0.537  12.095  11.220
43317SOL     OW31782   7.825   1.789   9.373
43317SOL    HW131783   7.910   1.760   9.405
43317SOL    HW231784   7.777   1.814   9.452
43318SOL     OW31785   3.103   6.734  10.479
43318SOL    HW131786   3.181   6.784  10.455
43318SOL    HW231787   3.078   6.767  10.564
43319SOL     OW31788   7.100   2.296   1.626
43319SOL    HW131789   7.095   2.234   1.699
43319SOL    HW231790   7.163   2.362   1.655
43320SOL     OW31791  10.990  11.042   4.471
43320SOL    HW131792  11.027  11.125   4.503
43320SOL    HW231793  11.004  10.981   4.544
43321SOL     OW31794  11.155  10.944   4.832
43321SOL    HW131795  11.155  11.010   4.901
43321SOL    HW231796  11.248  10.922   4.822
43322SOL     OW31797   1.303   1.193   9.157
43322SOL    HW131798   1.284   1.256   9.227
43322SOL    HW231799   1.310   1.247   9.078
43323SOL     OW31800  10.636   5.065  13.861
43323SOL    HW131801  10.689   5.012  13.921
43323SOL    HW231802  10.682   5.149  13.856
43324SOL     OW31803  12.795   3.570   0.040
43324SOL    HW131804  12.743   3.550   0.119
43324SOL    HW231805  12.743   3.636  14.866
43325SOL     OW31806   1.757   0.053   2.539
43325SOL    HW131807   1.765   0.012   2.452
43325SOL    HW231808   1.740   0.145   2.521
43326SOL     OW31809   2.982   4.355   4.107
43326SOL    HW131810   2.956   4.263   4.117
43326SOL    HW231811   3.061   4.363   4.161
43327SOL     OW31812   6.405   7.997  13.535
43327SOL    HW131813   6.452   7.917  13.557
43327SOL    HW231814   6.450   8.065  13.585
43328SOL     OW31815   2.835  12.132  12.633
43328SOL    HW131816   2.798  12.049  12.604
43328SOL    HW231817   2.759  12.190  12.643
43329SOL     OW31818  10.002   6.943  12.967
43329SOL    HW131819   9.911   6.949  12.997
43329SOL    HW231820  10.004   6.864  12.913
43330SOL     OW31821   7.795   6.168  14.436
43330SOL    HW131822   7.885   6.165  14.468
43330SOL    HW231823   7.803   6.167  14.340
43331SOL     OW31824  14.818   5.810  10.741
43331SOL    HW131825  14.755   5.746  10.707
43331SOL    HW231826  14.773   5.894  10.733
43332SOL     OW31827   4.441   0.045   5.688
43332SOL    HW131828   4.431   0.086   5.602
43332SOL    HW231829   4.353   0.017   5.712
43333SOL     OW31830   6.785   8.904   1.026
43333SOL    HW131831   6.816   8.908   1.117
43333SOL    HW231832   6.854   8.854   0.981
43334SOL     OW31833  11.978   5.459   6.541
43334SOL    HW131834  11.990   5.364   6.537
43334SOL    HW231835  11.963   5.485   6.450
43335SOL     OW31836   5.733   7.145   1.670
43335SOL    HW131837   5.821   7.127   1.702
43335SOL    HW231838   5.702   7.216   1.724
43336SOL     OW31839   2.327   9.271   4.516
43336SOL    HW131840   2.421   9.264   4.502
43336SOL    HW231841   2.293   9.305   4.433
43337SOL     OW31842  10.139   5.367  14.795
43337SOL    HW131843  10.195   5.346  14.870
43337SOL    HW231844  10.184   5.328  14.720
43338SOL     OW31845   3.386   9.891   4.324
43338SOL    HW131846   3.404   9.844   4.405
43338SOL    HW231847   3.471   9.921   4.293
43339SOL     OW31848   0.007  13.600   4.265
43339SOL    HW131849  14.842  13.610   4.177
43339SOL    HW231850  14.806  13.615   4.324
43340SOL     OW31851  10.716   8.876  10.938
43340SOL    HW131852  10.783   8.937  10.908
43340SOL    HW231853  10.736   8.863  11.031
43341SOL     OW31854   7.391  10.901   0.954
43341SOL    HW131855   7.440  10.943   1.024
43341SOL    HW231856   7.318  10.857   0.998
43342SOL     OW31857   3.319   6.540   6.137
43342SOL    HW131858   3.311   6.619   6.190
43342SOL    HW231859   3.411   6.536   6.112
43343SOL     OW31860  12.892   8.993  13.789
43343SOL    HW131861  12.844   8.926  13.839
43343SOL    HW231862  12.832   9.067  13.784
43344SOL     OW31863   0.931   8.026   7.185
43344SOL    HW131864   0.938   8.109   7.233
43344SOL    HW231865   0.971   7.961   7.244
43345SOL     OW31866   1.123  14.650   7.281
43345SOL    HW131867   1.126  14.619   7.371
43345SOL    HW231868   1.215  14.647   7.252
43346SOL     OW31869   4.313  13.666  10.431
43346SOL    HW131870   4.303  13.650  10.337
43346SOL    HW231871   4.357  13.750  10.437
43347SOL     OW31872   3.492   3.878  11.152
43347SOL    HW131873   3.496   3.972  11.134
43347SOL    HW231874   3.411   3.867  11.202
43348SOL     OW31875  12.423   8.350   3.475
43348SOL    HW131876  12.429   8.363   3.380
43348SOL    HW231877  12.512   8.326   3.502
43349SOL     OW31878   3.834   2.333  11.704
43349SOL    HW131879   3.830   2.386  11.783
43349SOL    HW231880   3.781   2.382  11.640
43350SOL     OW31881   6.032  12.299  14.383
43350SOL    HW131882   5.979  12.274  14.460
43350SOL    HW231883   6.059  12.216  14.345
43351SOL     OW31884  13.448  11.374   6.865
43351SOL    HW131885  13.408  11.424   6.936
43351SOL    HW231886  13.527  11.424   6.842
43352SOL     OW31887   2.764   1.254   3.720
43352SOL    HW131888   2.677   1.262   3.760
43352SOL    HW231889   2.747   1.228   3.630
43353SOL     OW31890   6.593   1.359   7.482
43353SOL    HW131891   6.571   1.390   7.570
43353SOL    HW231892   6.512   1.319   7.450
43354SOL     OW31893  13.994   9.670  12.319
43354SOL    HW131894  14.083   9.667  12.354
43354SOL    HW231895  13.979   9.581  12.286
43355SOL     OW31896  11.807  12.331  10.465
43355SOL    HW131897  11.720  12.291  10.463
43355SOL    HW231898  11.802  12.398  10.532
43356SOL     OW31899   3.034   0.357   9.530
43356SOL    HW131900   2.988   0.363   9.614
43356SOL    HW231901   3.020   0.442   9.489
43357SOL     OW31902   6.220   2.072  14.398
43357SOL    HW131903   6.287   2.087  14.465
43357SOL    HW231904   6.144   2.041  14.448
43358SOL     OW31905   6.131  13.664   2.865
43358SOL    HW131906   6.225  13.667   2.846
43358SOL    HW231907   6.112  13.747   2.908
43359SOL     OW31908   4.346   6.321  12.487
43359SOL    HW131909   4.391   6.400  12.516
43359SOL    HW231910   4.383   6.251  12.540
43360SOL     OW31911   7.563  11.945   9.666
43360SOL    HW131912   7.655  11.962   9.646
43360SOL    HW231913   7.542  12.003   9.739
43361SOL     OW31914  12.462   8.445   8.412
43361SOL    HW131915  12.387   8.471   8.465
43361SOL    HW231916  12.525   8.516   8.421
43362SOL     OW31917  13.691  10.958   6.336
43362SOL    HW131918  13.644  11.041   6.343
43362SOL    HW231919  13.781  10.983   6.313
43363SOL     OW31920   8.693   9.922   9.419
43363SOL    HW131921   8.689   9.873   9.501
43363SOL    HW231922   8.773   9.973   9.425
43364SOL     OW31923   1.146   4.021  13.927
43364SOL    HW131924   1.097   3.983  13.854
43364SOL    HW231925   1.128   4.115  13.922
43365SOL     OW31926   9.590  11.103   0.481
43365SOL    HW131927   9.512  11.050   0.502
43365SOL    HW231928   9.561  11.193   0.493
43366SOL     OW31929   5.869  11.221   6.766
43366SOL    HW131930   5.859  11.259   6.678
43366SOL    HW231931   5.935  11.153   6.756
43367SOL     OW31932   1.493   3.454  12.350
43367SOL    HW131933   1.538   3.507  12.284
43367SOL    HW231934   1.443   3.517  12.402
43368SOL     OW31935   5.901   4.709   7.943
43368SOL    HW131936   5.834   4.650   7.907
43368SOL    HW231937   5.974   4.651   7.964
43369SOL     OW31938   2.154  14.868  13.471
43369SOL    HW131939   2.083  14.830  13.522
43369SOL    HW231940   2.114   0.067  13.422
43370SOL     OW31941  10.028   9.388   2.571
43370SOL    HW131942  10.063   9.351   2.652
43370SOL    HW231943   9.969   9.457   2.600
43371SOL     OW31944   6.287   1.201   8.768
43371SOL    HW131945   6.376   1.167   8.767
43371SOL    HW231946   6.242   1.155   8.698
43372SOL     OW31947   6.179  11.067  14.338
43372SOL    HW131948   6.198  11.146  14.288
43372SOL    HW231949   6.242  11.069  14.411
43373SOL     OW31950  13.475   6.831   7.386
43373SOL    HW131951  13.504   6.746   7.351
43373SOL    HW231952  13.474   6.818   7.481
43374SOL     OW31953   7.790  13.514   4.900
43374SOL    HW131954   7.813  13.602   4.930
43374SOL    HW231955   7.849  13.498   4.827
43375SOL     OW31956   0.571  12.017   4.761
43375SOL    HW131957   0.537  11.953   4.698
43375SOL    HW231958   0.609  11.963   4.830
43376SOL     OW31959   4.379   0.473   7.274
43376SOL    HW131960   4.353   0.432   7.356
43376SOL    HW231961   4.463   0.432   7.253
43377SOL     OW31962   0.357   8.771  10.725
43377SOL    HW131963   0.308   8.702  10.769
43377SOL    HW231964   0.445   8.764  10.760
43378SOL     OW31965   1.711   6.310  14.796
43378SOL    HW131966   1.798   6.273  14.806
43378SOL    HW231967   1.719   6.371  14.722
43379SOL     OW31968  12.480   9.165   9.997
43379SOL    HW131969  12.415   9.099   9.971
43379SOL    HW231970  12.565   9.126   9.973
43380SOL     OW31971   6.417   6.162  14.230
43380SOL    HW131972   6.350   6.133  14.292
43380SOL    HW231973   6.479   6.212  14.283
43381SOL     OW31974   5.704   3.153   1.780
43381SOL    HW131975   5.765   3.176   1.709
43381SOL    HW231976   5.760   3.125   1.852
43382SOL     OW31977   0.650  13.867   8.430
43382SOL    HW131978   0.556  13.882   8.441
43382SOL    HW231979   0.656  13.792   8.371
43383SOL     OW31980   5.159   3.283   6.245
43383SOL    HW131981   5.176   3.376   6.230
43383SOL    HW231982   5.065   3.278   6.264
43384SOL     OW31983   7.742  14.567   8.351
43384SOL    HW131984   7.801  14.525   8.289
43384SOL    HW231985   7.681  14.498   8.377
43385SOL     OW31986   7.164   9.378  10.189
43385SOL    HW131987   7.134   9.460  10.152
43385SOL    HW231988   7.122   9.373  10.275
43386SOL     OW31989  10.551   4.882   8.487
43386SOL    HW131990  10.527   4.934   8.410
43386SOL    HW231991  10.481   4.899   8.550
43387SOL     OW31992  13.632   2.893  13.931
43387SOL    HW131993  13.670   2.944  14.002
43387SOL    HW231994  13.679   2.810  13.933
43388SOL     OW31995   9.414   9.877   6.171
43388SOL    HW131996   9.374   9.904   6.088
43388SOL    HW231997   9.364   9.925   6.238
43389SOL     OW31998   8.624   2.741  12.743
43389SOL    HW131999   8.592   2.793  12.670
43389SOL    HW232000   8.628   2.802  12.817
43390SOL     OW32001   1.097   2.539  13.225
43390SOL    HW132002   1.180   2.524  13.180
43390SOL    HW232003   1.033   2.493  13.171
43391SOL     OW32004  12.945   1.110  12.509
43391SOL    HW132005  12.958   1.083  12.600
43391SOL    HW232006  13.031   1.098  12.468
43392SOL     OW32007   6.586   0.988   4.001
43392SOL    HW132008   6.563   1.079   4.018
43392SOL    HW232009   6.506   0.939   4.021
43393SOL     OW32010  12.036   5.325  11.725
43393SOL    HW132011  11.997   5.243  11.754
43393SOL    HW232012  12.054   5.312  11.632
43394SOL     OW32013   0.391  13.163   2.541
43394SOL    HW132014   0.305  13.176   2.581
43394SOL    HW232015   0.374  13.163   2.446
43395SOL     OW32016   5.700  10.400   4.787
43395SOL    HW132017   5.694  10.485   4.742
43395SOL    HW232018   5.779  10.359   4.751
43396SOL     OW32019   6.459  12.105   7.216
43396SOL    HW132020   6.431  12.016   7.194
43396SOL    HW232021   6.380  12.148   7.249
43397SOL     OW32022   5.946   0.261  10.036
43397SOL    HW132023   5.994   0.344  10.039
43397SOL    HW232024   5.893   0.261  10.116
43398SOL     OW32025   1.457  11.728   6.892
43398SOL    HW132026   1.511  11.658   6.929
43398SOL    HW232027   1.415  11.769   6.967
43399SOL     OW32028  12.104  12.377  11.794
43399SOL    HW132029  12.082  12.323  11.869
43399SOL    HW232030  12.157  12.321  11.738
43400SOL     OW32031   2.646   7.413  12.722
43400SOL    HW132032   2.631   7.433  12.630
43400SOL    HW232033   2.559   7.392  12.757
43401SOL     OW32034   4.664  14.365   6.897
43401SOL    HW132035   4.700  14.349   6.810
43401SOL    HW232036   4.575  14.396   6.881
43402SOL     OW32037  13.690   9.422   3.897
43402SOL    HW132038  13.725   9.456   3.979
43402SOL    HW232039  13.662   9.333   3.917
43403SOL     OW32040   4.215  10.408   0.487
43403SOL    HW132041   4.204  10.315   0.468
43403SOL    HW232042   4.241  10.447   0.403
43404SOL     OW32043   1.472   0.239  10.755
43404SOL    HW132044   1.538   0.173  10.733
43404SOL    HW232045   1.392   0.189  10.771
43405SOL     OW32046   8.787   6.987   8.418
43405SOL    HW132047   8.703   6.977   8.464
43405SOL    HW232048   8.853   6.974   8.486
43406SOL     OW32049  13.477  13.519   8.843
43406SOL    HW132050  13.428  13.574   8.905
43406SOL    HW232051  13.561  13.564   8.833
43407SOL     OW32052   1.576   9.683  11.280
43407SOL    HW132053   1.512   9.751  11.261
43407SOL    HW232054   1.535   9.629  11.348
43408SOL     OW32055   4.466   3.919  14.124
43408SOL    HW132056   4.387   3.964  14.095
43408SOL    HW232057   4.439   3.829  14.139
43409SOL     OW32058   2.245   8.682   2.414
43409SOL    HW132059   2.283   8.685   2.501
43409SOL    HW232060   2.281   8.759   2.370
43410SOL     OW32061  11.658  10.027   2.847
43410SOL    HW132062  11.742  10.070   2.828
43410SOL    HW232063  11.655  10.022   2.942
43411SOL     OW32064   0.374   5.736  10.115
43411SOL    HW132065   0.331   5.739  10.029
43411SOL    HW232066   0.337   5.659  10.158
43412SOL     OW32067   5.382  10.553   4.855
43412SOL    HW132068   5.447  10.567   4.786
43412SOL    HW232069   5.403  10.465   4.889
43413SOL     OW32070  13.926   3.241   9.016
43413SOL    HW132071  13.834   3.264   9.005
43413SOL    HW232072  13.937   3.228   9.110
43414SOL     OW32073   4.256   3.626  10.852
43414SOL    HW132074   4.324   3.632  10.785
43414SOL    HW232075   4.195   3.698  10.831
43415SOL     OW32076   3.842  12.284   7.648
43415SOL    HW132077   3.794  12.207   7.617
43415SOL    HW232078   3.774  12.348   7.670
43416SOL     OW32079  14.657   5.290   3.882
43416SOL    HW132080  14.739   5.333   3.905
43416SOL    HW232081  14.670   5.198   3.907
43417SOL     OW32082   2.712   1.194   5.779
43417SOL    HW132083   2.621   1.223   5.771
43417SOL    HW232084   2.715   1.113   5.729
43418SOL     OW32085   6.995  12.064  13.068
43418SOL    HW132086   6.951  12.085  13.150
43418SOL    HW232087   6.971  12.135  13.009
43419SOL     OW32088   6.680   2.985  10.502
43419SOL    HW132089   6.743   2.988  10.574
43419SOL    HW232090   6.675   3.076  10.471
43420SOL     OW32091   1.106   8.032   2.450
43420SOL    HW132092   1.123   8.110   2.503
43420SOL    HW232093   1.153   7.961   2.495
43421SOL     OW32094   2.941  13.294  11.855
43421SOL    HW132095   3.007  13.344  11.903
43421SOL    HW232096   2.919  13.221  11.914
43422SOL     OW32097   7.539   3.344   2.698
43422SOL    HW132098   7.621   3.295   2.701
43422SOL    HW232099   7.472   3.280   2.719
43423SOL     OW32100  11.064   3.592   1.649
43423SOL    HW132101  11.049   3.636   1.733
43423SOL    HW232102  11.077   3.664   1.587
43424SOL     OW32103  13.518   2.275   2.557
43424SOL    HW132104  13.486   2.220   2.485
43424SOL    HW232105  13.607   2.299   2.530
43425SOL     OW32106   6.223  12.741  12.685
43425SOL    HW132107   6.154  12.718  12.622
43425SOL    HW232108   6.197  12.697  12.766
43426SOL     OW32109   0.074  11.749  13.288
43426SOL    HW132110   0.086  11.833  13.331
43426SOL    HW232111   0.017  11.768  13.214
43427SOL     OW32112   2.291  11.082   6.922
43427SOL    HW132113   2.274  11.080   7.016
43427SOL    HW232114   2.302  11.174   6.901
43428SOL     OW32115  14.189   5.169   2.617
43428SOL    HW132116  14.258   5.233   2.599
43428SOL    HW232117  14.118   5.194   2.558
43429SOL     OW32118  10.217   0.137   1.686
43429SOL    HW132119  10.150   0.204   1.699
43429SOL    HW232120  10.219   0.089   1.769
43430SOL     OW32121  13.727   6.024  12.073
43430SOL    HW132122  13.652   5.972  12.103
43430SOL    HW232123  13.689   6.107  12.046
43431SOL     OW32124   3.855  11.078  14.763
43431SOL    HW132125   3.814  11.162  14.782
43431SOL    HW232126   3.943  11.085  14.799
43432SOL     OW32127  11.985   0.590   0.320
43432SOL    HW132128  11.990   0.496   0.299
43432SOL    HW232129  11.944   0.593   0.406
43433SOL     OW32130   0.546  11.349   2.561
43433SOL    HW132131   0.517  11.401   2.486
43433SOL    HW232132   0.622  11.395   2.594
43434SOL     OW32133  10.799   3.135   7.975
43434SOL    HW132134  10.840   3.219   7.993
43434SOL    HW232135  10.742   3.119   8.050
43435SOL     OW32136   7.606   8.016   9.357
43435SOL    HW132137   7.543   7.974   9.416
43435SOL    HW232138   7.692   7.989   9.390
43436SOL     OW32139   7.346   7.860  12.458
43436SOL    HW132140   7.441   7.851  12.452
43436SOL    HW232141   7.317   7.780  12.503
43437SOL     OW32142  13.916   3.818   5.178
43437SOL    HW132143  13.983   3.814   5.110
43437SOL    HW232144  13.870   3.900   5.161
43438SOL     OW32145  12.856   0.646   0.553
43438SOL    HW132146  12.887   0.577   0.612
43438SOL    HW232147  12.770   0.671   0.587
43439SOL     OW32148   2.647  12.864   3.200
43439SOL    HW132149   2.560  12.826   3.192
43439SOL    HW232150   2.647  12.937   3.138
43440SOL     OW32151  14.217   2.292  11.946
43440SOL    HW132152  14.171   2.214  11.977
43440SOL    HW232153  14.198   2.359  12.012
43441SOL     OW32154  10.591  13.661  11.927
43441SOL    HW132155  10.640  13.639  11.848
43441SOL    HW232156  10.499  13.664  11.899
43442SOL     OW32157   1.014   3.163   7.067
43442SOL    HW132158   1.068   3.115   7.004
43442SOL    HW232159   0.927   3.165   7.026
43443SOL     OW32160  12.522  12.434  10.318
43443SOL    HW132161  12.606  12.478  10.323
43443SOL    HW232162  12.474  12.481  10.249
43444SOL     OW32163   9.010   2.823  10.999
43444SOL    HW132164   8.970   2.888  10.942
43444SOL    HW232165   8.951   2.817  11.074
43445SOL     OW32166   0.515   7.381   1.699
43445SOL    HW132167   0.528   7.290   1.671
43445SOL    HW232168   0.422   7.398   1.684
43446SOL     OW32169   8.594   2.974   8.634
43446SOL    HW132170   8.681   3.013   8.631
43446SOL    HW232171   8.538   3.039   8.589
43447SOL     OW32172   3.814   5.711  13.046
43447SOL    HW132173   3.728   5.753  13.041
43447SOL    HW232174   3.868   5.758  12.982
43448SOL     OW32175   2.909   8.527  14.449
43448SOL    HW132176   2.851   8.583  14.502
43448SOL    HW232177   2.938   8.459  14.510
43449SOL     OW32178  14.279   8.566  13.518
43449SOL    HW132179  14.258   8.476  13.545
43449SOL    HW232180  14.222   8.621  13.571
43450SOL     OW32181   7.399   8.714  13.566
43450SOL    HW132182   7.330   8.676  13.512
43450SOL    HW232183   7.457   8.757  13.503
43451SOL     OW32184  11.433  11.272   6.113
43451SOL    HW132185  11.420  11.287   6.206
43451SOL    HW232186  11.472  11.353   6.080
43452SOL     OW32187   3.430  11.213   3.576
43452SOL    HW132188   3.447  11.300   3.540
43452SOL    HW232189   3.516  11.178   3.599
43453SOL     OW32190   2.593  12.329   5.843
43453SOL    HW132191   2.574  12.392   5.774
43453SOL    HW232192   2.566  12.372   5.924
43454SOL     OW32193   0.134   1.749   7.523
43454SOL    HW132194   0.188   1.710   7.454
43454SOL    HW232195   0.076   1.810   7.477
43455SOL     OW32196  10.506  10.506  14.184
43455SOL    HW132197  10.430  10.479  14.131
43455SOL    HW232198  10.498  10.601  14.190
43456SOL     OW32199  10.828   4.185  13.189
43456SOL    HW132200  10.795   4.258  13.137
43456SOL    HW232201  10.857   4.121  13.124
43457SOL     OW32202  10.222   1.663   5.704
43457SOL    HW132203  10.161   1.613   5.650
43457SOL    HW232204  10.168   1.701   5.773
43458SOL     OW32205   3.934   3.960   9.631
43458SOL    HW132206   3.874   3.886   9.629
43458SOL    HW232207   4.020   3.922   9.613
43459SOL     OW32208   2.087   0.145  10.277
43459SOL    HW132209   2.071   0.222  10.223
43459SOL    HW232210   2.067   0.071  10.220
43460SOL     OW32211   6.788   9.925  14.826
43460SOL    HW132212   6.743   9.951  14.746
43460SOL    HW232213   6.729   9.950   0.024
43461SOL     OW32214   9.243   4.788   7.434
43461SOL    HW132215   9.234   4.749   7.520
43461SOL    HW232216   9.210   4.722   7.373
43462SOL     OW32217  14.587   7.210   9.150
43462SOL    HW132218  14.570   7.117   9.162
43462SOL    HW232219  14.570   7.249   9.235
43463SOL     OW32220  14.361  10.545   7.399
43463SOL    HW132221  14.439  10.563   7.452
43463SOL    HW232222  14.290  10.534   7.463
43464SOL     OW32223   8.149  10.021  12.992
43464SOL    HW132224   8.197   9.939  12.986
43464SOL    HW232225   8.190  10.068  13.065
43465SOL     OW32226   2.222  10.098   1.208
43465SOL    HW132227   2.225  10.033   1.138
43465SOL    HW232228   2.309  10.136   1.211
43466SOL     OW32229   7.956  14.846  14.722
43466SOL    HW132230   8.037   0.024  14.726
43466SOL    HW232231   7.947  14.807  14.809
43467SOL     OW32232  11.226  11.448   0.008
43467SOL    HW132233  11.163  11.516   0.031
43467SOL    HW232234  11.251  11.409   0.092
43468SOL     OW32235   5.065   4.591   2.814
43468SOL    HW132236   5.047   4.536   2.890
43468SOL    HW232237   4.978   4.613   2.780
43469SOL     OW32238   8.775  13.513   6.662
43469SOL    HW132239   8.756  13.603   6.636
43469SOL    HW232240   8.708  13.461   6.618
43470SOL     OW32241   1.983  10.417   5.730
43470SOL    HW132242   2.061  10.471   5.745
43470SOL    HW232243   1.910  10.478   5.743
43471SOL     OW32244  12.775  11.117   3.348
43471SOL    HW132245  12.854  11.063   3.346
43471SOL    HW232246  12.785  11.178   3.275
43472SOL     OW32247  12.966   9.530  10.283
43472SOL    HW132248  13.039   9.567  10.233
43472SOL    HW232249  13.004   9.458  10.333
43473SOL     OW32250   6.857   0.469   8.953
43473SOL    HW132251   6.776   0.518   8.969
43473SOL    HW232252   6.900   0.517   8.882
43474SOL     OW32253   8.421   0.614   4.456
43474SOL    HW132254   8.380   0.700   4.447
43474SOL    HW232255   8.451   0.611   4.546
43475SOL     OW32256   2.639   3.448   3.074
43475SOL    HW132257   2.707   3.408   3.021
43475SOL    HW232258   2.577   3.486   3.011
43476SOL     OW32259  14.508  11.315   5.642
43476SOL    HW132260  14.522  11.269   5.559
43476SOL    HW232261  14.589  11.298   5.691
43477SOL     OW32262  13.922   5.924   2.578
43477SOL    HW132263  14.015   5.935   2.599
43477SOL    HW232264  13.876   5.952   2.658
43478SOL     OW32265   0.862  12.917  14.039
43478SOL    HW132266   0.773  12.898  14.009
43478SOL    HW232267   0.918  12.897  13.964
43479SOL     OW32268   8.125   5.796   8.460
43479SOL    HW132269   8.109   5.771   8.369
43479SOL    HW232270   8.198   5.741   8.487
43480SOL     OW32271   5.630   3.095   0.958
43480SOL    HW132272   5.662   3.147   1.033
43480SOL    HW232273   5.674   3.134   0.882
43481SOL     OW32274   0.253   6.359  11.452
43481SOL    HW132275   0.320   6.321  11.509
43481SOL    HW232276   0.291   6.353  11.364
43482SOL     OW32277  14.239   0.406  11.582
43482SOL    HW132278  14.149   0.404  11.550
43482SOL    HW232279  14.292   0.388  11.505
43483SOL     OW32280   3.100  14.176   8.827
43483SOL    HW132281   3.089  14.240   8.897
43483SOL    HW232282   3.027  14.191   8.768
43484SOL     OW32283   3.254   8.476  14.542
43484SOL    HW132284   3.169   8.496  14.582
43484SOL    HW232285   3.236   8.405  14.481
43485SOL     OW32286   6.827   8.717   2.993
43485SOL    HW132287   6.889   8.765   2.938
43485SOL    HW232288   6.857   8.626   2.988
43486SOL     OW32289   0.164   2.987  13.444
43486SOL    HW132290   0.198   3.013  13.530
43486SOL    HW232291   0.156   3.069  13.396
43487SOL     OW32292   0.447  10.148   6.453
43487SOL    HW132293   0.434  10.237   6.421
43487SOL    HW232294   0.511  10.110   6.392
43488SOL     OW32295   5.278  10.177   5.599
43488SOL    HW132296   5.318  10.099   5.561
43488SOL    HW232297   5.213  10.143   5.661
43489SOL     OW32298   9.291   6.909   9.897
43489SOL    HW132299   9.371   6.951   9.929
43489SOL    HW232300   9.261   6.965   9.825
43490SOL     OW32301   7.832   0.393   0.299
43490SOL    HW132302   7.911   0.424   0.253
43490SOL    HW232303   7.865   0.330   0.362
43491SOL     OW32304   9.694   5.298   4.759
43491SOL    HW132305   9.623   5.279   4.699
43491SOL    HW232306   9.771   5.256   4.720
43492SOL     OW32307   2.641  11.973  12.003
43492SOL    HW132308   2.734  11.993  12.008
43492SOL    HW232309   2.604  12.042  11.948
43493SOL     OW32310   2.201   3.780   2.325
43493SOL    HW132311   2.252   3.825   2.393
43493SOL    HW232312   2.176   3.697   2.366
43494SOL     OW32313  10.087   3.491   8.653
43494SOL    HW132314   9.998   3.469   8.626
43494SOL    HW232315  10.113   3.563   8.595
43495SOL     OW32316   2.983   4.090   4.567
43495SOL    HW132317   2.923   4.146   4.519
43495SOL    HW232318   2.927   4.021   4.603
43496SOL     OW32319  14.215   5.453  13.589
43496SOL    HW132320  14.303   5.440  13.626
43496SOL    HW232321  14.217   5.541  13.554
43497SOL     OW32322  12.572   9.633   3.696
43497SOL    HW132323  12.504   9.698   3.715
43497SOL    HW232324  12.578   9.580   3.775
43498SOL     OW32325   8.386   3.057   1.752
43498SOL    HW132326   8.381   2.979   1.808
43498SOL    HW232327   8.307   3.106   1.773
43499SOL     OW32328   8.734  11.660   3.856
43499SOL    HW132329   8.801  11.673   3.923
43499SOL    HW232330   8.665  11.723   3.880
43500SOL     OW32331  10.416   3.538   3.192
43500SOL    HW132332  10.452   3.615   3.147
43500SOL    HW232333  10.419   3.562   3.285
43501SOL     OW32334  13.904  10.373  12.552
43501SOL    HW132335  13.885  10.321  12.630
43501SOL    HW232336  13.857  10.455  12.566
43502SOL     OW32337   3.468   1.040   2.183
43502SOL    HW132338   3.528   0.976   2.222
43502SOL    HW232339   3.389   1.035   2.236
43503SOL     OW32340   6.267   2.101   7.741
43503SOL    HW132341   6.262   2.102   7.836
43503SOL    HW232342   6.223   2.183   7.715
43504SOL     OW32343  13.250   8.509  11.846
43504SOL    HW132344  13.326   8.561  11.871
43504SOL    HW232345  13.274   8.468  11.763
43505SOL     OW32346  11.218   6.642   1.028
43505SOL    HW132347  11.141   6.694   1.052
43505SOL    HW232348  11.211   6.631   0.933
43506SOL     OW32349  14.591   4.456   0.206
43506SOL    HW132350  14.629   4.435   0.120
43506SOL    HW232351  14.513   4.506   0.186
43507SOL     OW32352   2.506   1.995   2.275
43507SOL    HW132353   2.536   2.049   2.202
43507SOL    HW232354   2.580   1.996   2.337
43508SOL     OW32355   7.675   0.205   1.764
43508SOL    HW132356   7.670   0.292   1.725
43508SOL    HW232357   7.762   0.173   1.741
43509SOL     OW32358  11.469   5.483  13.575
43509SOL    HW132359  11.475   5.503  13.482
43509SOL    HW232360  11.376   5.492  13.596
43510SOL     OW32361  13.382  11.573   8.735
43510SOL    HW132362  13.431  11.585   8.816
43510SOL    HW232363  13.449  11.576   8.666
43511SOL     OW32364   5.371  13.191  10.729
43511SOL    HW132365   5.282  13.162  10.708
43511SOL    HW232366   5.383  13.164  10.820
43512SOL     OW32367   6.123   7.548   5.375
43512SOL    HW132368   6.133   7.524   5.467
43512SOL    HW232369   6.213   7.563   5.345
43513SOL     OW32370   9.521   2.326  10.832
43513SOL    HW132371   9.508   2.271  10.755
43513SOL    HW232372   9.569   2.271  10.894
43514SOL     OW32373   7.131   3.775  12.549
43514SOL    HW132374   7.144   3.795  12.642
43514SOL    HW232375   7.070   3.701  12.550
43515SOL     OW32376  11.390   7.067  11.051
43515SOL    HW132377  11.354   7.069  10.962
43515SOL    HW232378  11.357   7.147  11.092
43516SOL     OW32379  13.453   3.438   3.831
43516SOL    HW132380  13.388   3.433   3.760
43516SOL    HW232381  13.443   3.355   3.878
43517SOL     OW32382  10.575  14.262   8.513
43517SOL    HW132383  10.652  14.233   8.464
43517SOL    HW232384  10.593  14.353   8.535
43518SOL     OW32385  14.790  14.667   1.630
43518SOL    HW132386  14.821  14.627   1.549
43518SOL    HW232387  14.797  14.598   1.696
43519SOL     OW32388  12.513   5.999   9.310
43519SOL    HW132389  12.552   5.985   9.223
43519SOL    HW232390  12.572   6.062   9.352
43520SOL     OW32391  13.291   2.492   0.917
43520SOL    HW132392  13.373   2.442   0.911
43520SOL    HW232393  13.319   2.583   0.922
43521SOL     OW32394   9.107  10.946   2.826
43521SOL    HW132395   9.068  10.861   2.844
43521SOL    HW232396   9.200  10.935   2.849
43522SOL     OW32397   9.255  13.212   0.908
43522SOL    HW132398   9.346  13.232   0.885
43522SOL    HW232399   9.216  13.297   0.927
43523SOL     OW32400   8.512   6.031  12.067
43523SOL    HW132401   8.604   6.006  12.077
43523SOL    HW232402   8.511   6.125  12.087
43524SOL     OW32403   2.659   8.744   4.087
43524SOL    HW132404   2.610   8.814   4.129
43524SOL    HW232405   2.601   8.710   4.020
43525SOL     OW32406  14.674   5.397   2.474
43525SOL    HW132407  14.623   5.424   2.550
43525SOL    HW232408  14.761   5.377   2.508
43526SOL     OW32409   3.497   7.804  14.686
43526SOL    HW132410   3.440   7.746  14.737
43526SOL    HW232411   3.567   7.829  14.746
43527SOL     OW32412   6.039   6.081  10.014
43527SOL    HW132413   6.041   6.028   9.934
43527SOL    HW232414   6.060   6.020  10.084
43528SOL     OW32415   6.202   9.772   4.952
43528SOL    HW132416   6.283   9.796   4.906
43528SOL    HW232417   6.155   9.717   4.889
43529SOL     OW32418   1.482   9.145   7.021
43529SOL    HW132419   1.520   9.066   6.982
43529SOL    HW232420   1.495   9.213   6.956
43530SOL     OW32421   8.492   1.082  13.980
43530SOL    HW132422   8.478   1.167  14.022
43530SOL    HW232423   8.555   1.100  13.911
43531SOL     OW32424   6.791  11.395   0.886
43531SOL    HW132425   6.706  11.438   0.896
43531SOL    HW232426   6.850  11.466   0.859
43532SOL     OW32427   2.595  10.323   1.593
43532SOL    HW132428   2.561  10.323   1.682
43532SOL    HW232429   2.687  10.351   1.602
43533SOL     OW32430   6.673  14.748   3.237
43533SOL    HW132431   6.741  14.722   3.175
43533SOL    HW232432   6.642  14.833   3.206
43534SOL     OW32433   1.218  14.736   9.016
43534SOL    HW132434   1.239  14.702   9.103
43534SOL    HW232435   1.241  14.664   8.957
43535SOL     OW32436   4.604  14.097   3.967
43535SOL    HW132437   4.591  14.186   3.936
43535SOL    HW232438   4.525  14.050   3.939
43536SOL     OW32439   6.326   1.098   4.537
43536SOL    HW132440   6.263   1.027   4.534
43536SOL    HW232441   6.396   1.071   4.477
43537SOL     OW32442   4.533   8.127   9.178
43537SOL    HW132443   4.463   8.093   9.235
43537SOL    HW232444   4.486   8.174   9.108
43538SOL     OW32445   9.047  12.242   2.583
43538SOL    HW132446   9.045  12.185   2.659
43538SOL    HW232447   9.108  12.312   2.606
43539SOL     OW32448   5.097   2.472  12.304
43539SOL    HW132449   5.014   2.463  12.257
43539SOL    HW232450   5.082   2.430  12.388
43540SOL     OW32451  13.638  11.115  14.353
43540SOL    HW132452  13.712  11.055  14.345
43540SOL    HW232453  13.621  11.145  14.264
43541SOL     OW32454   9.340   4.310   1.486
43541SOL    HW132455   9.262   4.257   1.505
43541SOL    HW232456   9.306   4.397   1.465
43542SOL     OW32457   7.098   1.417   9.317
43542SOL    HW132458   7.162   1.362   9.273
43542SOL    HW232459   7.106   1.394   9.410
43543SOL     OW32460   8.349  10.861   6.508
43543SOL    HW132461   8.313  10.941   6.547
43543SOL    HW232462   8.394  10.890   6.429
43544SOL     OW32463   6.828   3.706   6.078
43544SOL    HW132464   6.830   3.708   5.983
43544SOL    HW232465   6.919   3.721   6.105
43545SOL     OW32466   3.684   8.393   0.949
43545SOL    HW132467   3.706   8.388   0.855
43545SOL    HW232468   3.667   8.486   0.965
43546SOL     OW32469   5.273   8.762   2.737
43546SOL    HW132470   5.194   8.765   2.790
43546SOL    HW232471   5.279   8.671   2.708
43547SOL     OW32472   3.665   1.213  14.495
43547SOL    HW132473   3.617   1.211  14.578
43547SOL    HW232474   3.604   1.253  14.434
43548SOL     OW32475  12.730   0.754   8.687
43548SOL    HW132476  12.663   0.791   8.630
43548SOL    HW232477  12.706   0.661   8.695
43549SOL     OW32478   6.643   1.348   4.629
43549SOL    HW132479   6.650   1.328   4.723
43549SOL    HW232480   6.708   1.292   4.587
43550SOL     OW32481   9.696   6.629  11.472
43550SOL    HW132482   9.748   6.683  11.411
43550SOL    HW232483   9.742   6.637  11.556
43551SOL     OW32484   8.954  14.323   8.679
43551SOL    HW132485   8.988  14.249   8.628
43551SOL    HW232486   8.926  14.284   8.762
43552SOL     OW32487  12.534   5.895   8.275
43552SOL    HW132488  12.573   5.952   8.342
43552SOL    HW232489  12.488   5.954   8.216
43553SOL     OW32490   0.910  12.009   2.604
43553SOL    HW132491   0.946  11.973   2.685
43553SOL    HW232492   0.829  11.961   2.590
43554SOL     OW32493   7.735   4.874  12.080
43554SOL    HW132494   7.808   4.830  12.124
43554SOL    HW232495   7.684   4.804  12.042
43555SOL     OW32496   2.932  11.251  10.540
43555SOL    HW132497   2.937  11.268  10.446
43555SOL    HW232498   2.838  11.258  10.561
43556SOL     OW32499   8.136   8.876   9.344
43556SOL    HW132500   8.171   8.827   9.270
43556SOL    HW232501   8.145   8.816   9.418
43557SOL     OW32502   7.721   1.969   0.250
43557SOL    HW132503   7.705   2.062   0.266
43557SOL    HW232504   7.659   1.924   0.307
43558SOL     OW32505   4.278  14.693   0.548
43558SOL    HW132506   4.201  14.724   0.597
43558SOL    HW232507   4.261  14.720   0.458
43559SOL     OW32508   1.793   8.169   3.604
43559SOL    HW132509   1.869   8.125   3.565
43559SOL    HW232510   1.768   8.114   3.678
43560SOL     OW32511   8.764  13.040  14.178
43560SOL    HW132512   8.789  13.011  14.090
43560SOL    HW232513   8.799  13.128  14.186
43561SOL     OW32514  12.241   4.797   8.522
43561SOL    HW132515  12.334   4.816   8.508
43561SOL    HW232516  12.197   4.838   8.448
43562SOL     OW32517  11.010  13.915   3.246
43562SOL    HW132518  11.054  13.988   3.289
43562SOL    HW232519  11.055  13.837   3.280
43563SOL     OW32520   8.345  10.263  11.564
43563SOL    HW132521   8.329  10.185  11.617
43563SOL    HW232522   8.421  10.240  11.511
43564SOL     OW32523  13.337  13.309   0.165
43564SOL    HW132524  13.329  13.248   0.239
43564SOL    HW232525  13.257  13.295   0.114
43565SOL     OW32526  13.371   6.647   8.199
43565SOL    HW132527  13.288   6.615   8.163
43565SOL    HW232528  13.346   6.700   8.274
43566SOL     OW32529   6.936   5.776  13.063
43566SOL    HW132530   6.933   5.735  12.976
43566SOL    HW232531   6.850   5.757  13.101
43567SOL     OW32532   9.471   1.660   5.140
43567SOL    HW132533   9.424   1.594   5.089
43567SOL    HW232534   9.548   1.614   5.173
43568SOL     OW32535   1.863   5.608   4.996
43568SOL    HW132536   1.937   5.643   5.046
43568SOL    HW232537   1.864   5.656   4.914
43569SOL     OW32538   7.218   3.895   8.043
43569SOL    HW132539   7.207   3.936   8.129
43569SOL    HW232540   7.158   3.943   7.986
43570SOL     OW32541  13.018  10.980   3.369
43570SOL    HW132542  13.061  11.047   3.316
43570SOL    HW232543  13.022  10.901   3.315
43571SOL     OW32544   5.173   0.470   0.273
43571SOL    HW132545   5.226   0.542   0.238
43571SOL    HW232546   5.130   0.507   0.351
43572SOL     OW32547  11.168  10.595   3.062
43572SOL    HW132548  11.209  10.672   3.102
43572SOL    HW232549  11.183  10.524   3.125
43573SOL     OW32550   3.550  12.596  11.131
43573SOL    HW132551   3.622  12.543  11.165
43573SOL    HW232552   3.491  12.533  11.089
43574SOL     OW32553   3.354  12.512   1.439
43574SOL    HW132554   3.353  12.603   1.410
43574SOL    HW232555   3.444  12.496   1.465
43575SOL     OW32556   9.009   4.699  10.789
43575SOL    HW132557   9.018   4.665  10.700
43575SOL    HW232558   9.096   4.690  10.828
43576SOL     OW32559   5.546   4.069  13.425
43576SOL    HW132560   5.538   4.024  13.341
43576SOL    HW232561   5.520   4.004  13.490
43577SOL     OW32562   5.691   9.928   6.933
43577SOL    HW132563   5.657   9.992   6.871
43577SOL    HW232564   5.615   9.903   6.986
43578SOL     OW32565  11.580   8.401  10.728
43578SOL    HW132566  11.505   8.442  10.685
43578SOL    HW232567  11.563   8.307  10.723
43579SOL     OW32568   9.359   0.381   8.783
43579SOL    HW132569   9.313   0.340   8.710
43579SOL    HW232570   9.437   0.420   8.743
43580SOL     OW32571   3.406  13.234   7.310
43580SOL    HW132572   3.461  13.312   7.319
43580SOL    HW232573   3.370  13.219   7.397
43581SOL     OW32574  13.800   2.347   9.806
43581SOL    HW132575  13.804   2.286   9.879
43581SOL    HW232576  13.885   2.391   9.807
43582SOL     OW32577  13.278  13.273   4.064
43582SOL    HW132578  13.187  13.264   4.037
43582SOL    HW232579  13.319  13.321   3.992
43583SOL     OW32580   0.519   5.313   8.830
43583SOL    HW132581   0.576   5.384   8.801
43583SOL    HW232582   0.564   5.274   8.905
43584SOL     OW32583  12.743   7.538   3.426
43584SOL    HW132584  12.791   7.514   3.347
43584SOL    HW232585  12.738   7.456   3.476
43585SOL     OW32586   3.153   1.783   5.887
43585SOL    HW132587   3.142   1.847   5.817
43585SOL    HW232588   3.218   1.823   5.946
43586SOL     OW32589  14.282  11.233   3.111
43586SOL    HW132590  14.300  11.325   3.093
43586SOL    HW232591  14.306  11.222   3.204
43587SOL     OW32592   6.200  14.667   5.579
43587SOL    HW132593   6.251  14.594   5.543
43587SOL    HW232594   6.109  14.639   5.570
43588SOL     OW32595   6.666   7.885   3.655
43588SOL    HW132596   6.735   7.897   3.590
43588SOL    HW232597   6.624   7.802   3.630
43589SOL     OW32598   7.960  11.653  11.669
43589SOL    HW132599   7.991  11.676  11.582
43589SOL    HW232600   7.868  11.632  11.658
43590SOL     OW32601  13.008   8.873   8.398
43590SOL    HW132602  12.914   8.870   8.415
43590SOL    HW232603  13.021   8.813   8.324
43591SOL     OW32604   1.182   5.115   5.161
43591SOL    HW132605   1.098   5.071   5.151
43591SOL    HW232606   1.165   5.205   5.133
43592SOL     OW32607   3.785  11.619   0.185
43592SOL    HW132608   3.748  11.559   0.251
43592SOL    HW232609   3.861  11.572   0.151
43593SOL     OW32610   6.367  11.246   7.311
43593SOL    HW132611   6.359  11.262   7.217
43593SOL    HW232612   6.280  11.265   7.346
43594SOL     OW32613   6.621   5.386   5.108
43594SOL    HW132614   6.591   5.446   5.039
43594SOL    HW232615   6.600   5.299   5.075
43595SOL     OW32616  10.722   4.137   1.595
43595SOL    HW132617  10.800   4.126   1.539
43595SOL    HW232618  10.749   4.201   1.661
43596SOL     OW32619   0.404   6.848   0.853
43596SOL    HW132620   0.373   6.928   0.810
43596SOL    HW232621   0.477   6.877   0.908
43597SOL     OW32622   0.119   7.104   0.278
43597SOL    HW132623   0.167   7.162   0.337
43597SOL    HW232624   0.187   7.060   0.226
43598SOL     OW32625   2.146   2.986  10.980
43598SOL    HW132626   2.155   3.035  11.062
43598SOL    HW232627   2.230   2.942  10.969
43599SOL     OW32628   1.634  10.534   4.857
43599SOL    HW132629   1.567  10.473   4.824
43599SOL    HW232630   1.621  10.614   4.805
43600SOL     OW32631  14.419   9.614  14.513
43600SOL    HW132632  14.502   9.604  14.467
43600SOL    HW232633  14.431   9.567  14.595
43601SOL     OW32634  13.330   5.164  11.797
43601SOL    HW132635  13.336   5.183  11.891
43601SOL    HW232636  13.326   5.251  11.756
43602SOL     OW32637   3.489  11.743   1.364
43602SOL    HW132638   3.432  11.691   1.308
43602SOL    HW232639   3.484  11.832   1.329
43603SOL     OW32640   8.219  12.282   4.538
43603SOL    HW132641   8.251  12.212   4.481
43603SOL    HW232642   8.242  12.363   4.494
43604SOL     OW32643   5.483   8.997   6.377
43604SOL    HW132644   5.517   9.083   6.353
43604SOL    HW232645   5.482   8.947   6.296
43605SOL     OW32646   9.293  10.749  14.036
43605SOL    HW132647   9.227  10.759  13.967
43605SOL    HW232648   9.260  10.800  14.109
43606SOL     OW32649   6.136  14.210  14.813
43606SOL    HW132650   6.150  14.305  14.809
43606SOL    HW232651   6.225  14.173  14.815
43607SOL     OW32652   4.615   1.014  12.297
43607SOL    HW132653   4.689   1.067  12.267
43607SOL    HW232654   4.582   0.972  12.218
43608SOL     OW32655   5.257   7.834  13.388
43608SOL    HW132656   5.183   7.785  13.425
43608SOL    HW232657   5.229   7.856  13.299
43609SOL     OW32658   1.861  11.311   8.932
43609SOL    HW132659   1.917  11.316   9.008
43609SOL    HW232660   1.870  11.221   8.900
43610SOL     OW32661  12.270  12.385   0.637
43610SOL    HW132662  12.276  12.320   0.707
43610SOL    HW232663  12.199  12.352   0.580
43611SOL     OW32664  12.726   3.432   7.517
43611SOL    HW132665  12.675   3.485   7.456
43611SOL    HW232666  12.765   3.496   7.577
43612SOL     OW32667   0.823  12.190   5.598
43612SOL    HW132668   0.853  12.224   5.513
43612SOL    HW232669   0.903  12.183   5.651
43613SOL     OW32670   0.892   0.894  12.075
43613SOL    HW132671   0.859   0.936  12.155
43613SOL    HW232672   0.814   0.885  12.020
43614SOL     OW32673   6.422  12.271   6.430
43614SOL    HW132674   6.389  12.241   6.514
43614SOL    HW232675   6.360  12.340   6.404
43615SOL     OW32676   1.410   6.714   3.224
43615SOL    HW132677   1.488   6.706   3.169
43615SOL    HW232678   1.408   6.634   3.276
43616SOL     OW32679   0.594   6.954   1.019
43616SOL    HW132680   0.575   6.887   1.084
43616SOL    HW232681   0.660   7.010   1.060
43617SOL     OW32682   3.501   3.481   5.110
43617SOL    HW132683   3.507   3.508   5.202
43617SOL    HW232684   3.453   3.551   5.067
43618SOL     OW32685   1.878   0.559   0.577
43618SOL    HW132686   1.910   0.493   0.516
43618SOL    HW232687   1.876   0.515   0.662
43619SOL     OW32688  13.490  13.904   9.053
43619SOL    HW132689  13.447  13.920   8.969
43619SOL    HW232690  13.584  13.910   9.033
43620SOL     OW32691   9.390  10.610  11.304
43620SOL    HW132692   9.399  10.517  11.284
43620SOL    HW232693   9.361  10.650  11.221
43621SOL     OW32694   8.048  10.630  13.979
43621SOL    HW132695   8.042  10.539  14.009
43621SOL    HW232696   8.117  10.669  14.033
43622SOL     OW32697   7.756   6.494  13.981
43622SOL    HW132698   7.749   6.433  13.908
43622SOL    HW232699   7.748   6.580  13.940
43623SOL     OW32700   4.608   0.571   3.634
43623SOL    HW132701   4.675   0.637   3.615
43623SOL    HW232702   4.527   0.609   3.600
43624SOL     OW32703   9.503   0.894  13.900
43624SOL    HW132704   9.540   0.896  13.989
43624SOL    HW232705   9.550   0.962  13.853
43625SOL     OW32706  10.308   5.330   0.147
43625SOL    HW132707  10.375   5.351   0.082
43625SOL    HW232708  10.338   5.248   0.186
43626SOL     OW32709   8.880  11.182   8.155
43626SOL    HW132710   8.975  11.192   8.160
43626SOL    HW232711   8.845  11.252   8.210
43627SOL     OW32712  14.254   0.413   0.434
43627SOL    HW132713  14.229   0.383   0.521
43627SOL    HW232714  14.334   0.365   0.414
43628SOL     OW32715   5.219  12.242  13.342
43628SOL    HW132716   5.289  12.268  13.402
43628SOL    HW232717   5.258  12.172  13.290
43629SOL     OW32718   2.340  10.721   1.704
43629SOL    HW132719   2.258  10.730   1.754
43629SOL    HW232720   2.312  10.704   1.615
43630SOL     OW32721   8.853   4.926  13.422
43630SOL    HW132722   8.872   5.020  13.429
43630SOL    HW232723   8.828   4.913  13.331
43631SOL     OW32724  12.888  10.459   9.254
43631SOL    HW132725  12.804  10.415   9.270
43631SOL    HW232726  12.890  10.531   9.317
43632SOL     OW32727  12.726   0.123   1.550
43632SOL    HW132728  12.712   0.036   1.513
43632SOL    HW232729  12.701   0.184   1.481
43633SOL     OW32730   7.982   3.291   8.999
43633SOL    HW132731   7.953   3.306   9.090
43633SOL    HW232732   7.909   3.244   8.958
43634SOL     OW32733   1.774   2.916   9.496
43634SOL    HW132734   1.681   2.897   9.508
43634SOL    HW232735   1.810   2.914   9.585
43635SOL     OW32736   1.195   8.605   8.667
43635SOL    HW132737   1.129   8.600   8.598
43635SOL    HW232738   1.228   8.516   8.675
43636SOL     OW32739   0.367   4.914   9.627
43636SOL    HW132740   0.297   4.849   9.633
43636SOL    HW232741   0.406   4.916   9.714
43637SOL     OW32742   9.047  12.174   1.763
43637SOL    HW132743   8.956  12.167   1.791
43637SOL    HW232744   9.043  12.179   1.667
43638SOL     OW32745   1.232   9.342   4.900
43638SOL    HW132746   1.308   9.380   4.945
43638SOL    HW232747   1.159   9.359   4.959
43639SOL     OW32748  13.786   8.715   1.288
43639SOL    HW132749  13.855   8.695   1.226
43639SOL    HW232750  13.717   8.754   1.236
43640SOL     OW32751   1.503  14.376  10.878
43640SOL    HW132752   1.498  14.293  10.832
43640SOL    HW232753   1.588  14.374  10.922
43641SOL     OW32754   4.134   0.049  11.713
43641SOL    HW132755   4.063  14.863  11.738
43641SOL    HW232756   4.135   0.117  11.780
43642SOL     OW32757   9.362   6.118  11.056
43642SOL    HW132758   9.400   6.178  10.992
43642SOL    HW232759   9.428   6.109  11.124
43643SOL     OW32760   0.169  12.763   8.734
43643SOL    HW132761   0.207  12.688   8.780
43643SOL    HW232762   0.186  12.746   8.642
43644SOL     OW32763   8.800  11.792   3.139
43644SOL    HW132764   8.806  11.699   3.160
43644SOL    HW232765   8.706  11.812   3.145
43645SOL     OW32766  11.645  11.965   6.896
43645SOL    HW132767  11.706  12.039   6.895
43645SOL    HW232768  11.569  11.996   6.848
43646SOL     OW32769   6.646   5.425   4.763
43646SOL    HW132770   6.666   5.503   4.711
43646SOL    HW232771   6.646   5.353   4.700
43647SOL     OW32772   7.750   1.175  13.991
43647SOL    HW132773   7.661   1.156  14.022
43647SOL    HW232774   7.797   1.093  14.001
43648SOL     OW32775  14.185  14.019   5.681
43648SOL    HW132776  14.218  14.108   5.670
43648SOL    HW232777  14.262  13.963   5.669
43649SOL     OW32778   2.014   6.526   9.162
43649SOL    HW132779   1.983   6.436   9.176
43649SOL    HW232780   1.958   6.579   9.218
43650SOL     OW32781   3.017   8.397   8.716
43650SOL    HW132782   3.062   8.337   8.657
43650SOL    HW232783   2.955   8.443   8.661
43651SOL     OW32784  11.647   7.684   3.410
43651SOL    HW132785  11.640   7.773   3.443
43651SOL    HW232786  11.691   7.693   3.325
43652SOL     OW32787   2.529   1.672   8.433
43652SOL    HW132788   2.525   1.717   8.517
43652SOL    HW232789   2.458   1.710   8.382
43653SOL     OW32790   6.826   8.041   1.442
43653SOL    HW132791   6.767   7.994   1.500
43653SOL    HW232792   6.909   7.994   1.449
43654SOL     OW32793   8.927   0.071  10.778
43654SOL    HW132794   8.832   0.079  10.778
43654SOL    HW232795   8.944  14.862  10.730
43655SOL     OW32796   9.558   5.835   1.722
43655SOL    HW132797   9.600   5.920   1.732
43655SOL    HW232798   9.604   5.778   1.784
43656SOL     OW32799   4.217   1.357  12.555
43656SOL    HW132800   4.184   1.426  12.612
43656SOL    HW232801   4.147   1.344  12.490
43657SOL     OW32802   5.220  14.850   7.377
43657SOL    HW132803   5.285  14.867   7.446
43657SOL    HW232804   5.148  14.807   7.422
43658SOL     OW32805   3.531  13.423  11.200
43658SOL    HW132806   3.586  13.344  11.193
43658SOL    HW232807   3.490  13.432  11.114
43659SOL     OW32808   2.959  14.032  11.266
43659SOL    HW132809   3.025  14.010  11.200
43659SOL    HW232810   3.010  14.046  11.346
43660SOL     OW32811   7.463   5.628   9.392
43660SOL    HW132812   7.382   5.595   9.352
43660SOL    HW232813   7.453   5.723   9.390
43661SOL     OW32814  14.225   0.485   4.532
43661SOL    HW132815  14.237   0.428   4.608
43661SOL    HW232816  14.212   0.425   4.458
43662SOL     OW32817  12.103  11.502   3.454
43662SOL    HW132818  12.149  11.580   3.423
43662SOL    HW232819  12.157  11.470   3.527
43663SOL     OW32820   6.544  10.675   8.723
43663SOL    HW132821   6.508  10.735   8.658
43663SOL    HW232822   6.470  10.653   8.779
43664SOL     OW32823  14.028   5.804   1.471
43664SOL    HW132824  13.956   5.743   1.487
43664SOL    HW232825  14.054   5.787   1.380
43665SOL     OW32826   0.379   7.067   9.405
43665SOL    HW132827   0.468   7.084   9.437
43665SOL    HW232828   0.324   7.125   9.457
43666SOL     OW32829  10.583  12.021  10.617
43666SOL    HW132830  10.676  12.022  10.639
43666SOL    HW232831  10.554  11.933  10.640
43667SOL     OW32832   3.471   5.242  10.781
43667SOL    HW132833   3.431   5.203  10.703
43667SOL    HW232834   3.547   5.290  10.748
43668SOL     OW32835   7.746  10.282   8.802
43668SOL    HW132836   7.666  10.263   8.852
43668SOL    HW232837   7.727  10.250   8.714
43669SOL     OW32838   4.682   3.535  11.197
43669SOL    HW132839   4.770   3.518  11.232
43669SOL    HW232840   4.634   3.454  11.212
43670SOL     OW32841   7.923   5.296   7.619
43670SOL    HW132842   7.878   5.333   7.543
43670SOL    HW232843   7.971   5.221   7.585
43671SOL     OW32844   4.613   8.176   3.929
43671SOL    HW132845   4.524   8.194   3.898
43671SOL    HW232846   4.665   8.249   3.896
43672SOL     OW32847   6.548  12.727  12.756
43672SOL    HW132848   6.543  12.784  12.679
43672SOL    HW232849   6.511  12.780  12.827
43673SOL     OW32850   5.162  14.583  13.598
43673SOL    HW132851   5.081  14.534  13.585
43673SOL    HW232852   5.156  14.656  13.537
43674SOL     OW32853   2.029   4.005   1.084
43674SOL    HW132854   2.075   4.067   1.026
43674SOL    HW232855   2.060   3.919   1.055
43675SOL     OW32856   6.377   8.106   5.889
43675SOL    HW132857   6.352   8.125   5.979
43675SOL    HW232858   6.457   8.155   5.875
43676SOL     OW32859  14.701   9.821   9.694
43676SOL    HW132860  14.638   9.781   9.635
43676SOL    HW232861  14.652   9.836   9.775
43677SOL     OW32862  10.726   2.472  10.305
43677SOL    HW132863  10.709   2.528  10.230
43677SOL    HW232864  10.693   2.386  10.279
43678SOL     OW32865  12.127  12.505   6.266
43678SOL    HW132866  12.202  12.527   6.322
43678SOL    HW232867  12.167  12.465   6.188
43679SOL     OW32868   2.494   2.225  12.035
43679SOL    HW132869   2.495   2.148  11.978
43679SOL    HW232870   2.517   2.298  11.978
43680SOL     OW32871   2.758   8.837   3.836
43680SOL    HW132872   2.735   8.857   3.927
43680SOL    HW232873   2.718   8.909   3.786
43681SOL     OW32874   0.045   8.567   9.096
43681SOL    HW132875  14.831   8.583   9.134
43681SOL    HW232876   0.097   8.532   9.169
43682SOL     OW32877   6.407   9.200  11.734
43682SOL    HW132878   6.420   9.124  11.791
43682SOL    HW232879   6.495   9.237  11.722
43683SOL     OW32880   5.865   7.567  11.051
43683SOL    HW132881   5.884   7.525  10.967
43683SOL    HW232882   5.807   7.639  11.028
43684SOL     OW32883   3.011   9.143   8.694
43684SOL    HW132884   3.089   9.108   8.736
43684SOL    HW232885   3.015   9.237   8.709
43685SOL     OW32886   5.946   6.609   8.421
43685SOL    HW132887   6.009   6.585   8.488
43685SOL    HW232888   5.983   6.685   8.378
43686SOL     OW32889  12.929  12.189   2.054
43686SOL    HW132890  12.872  12.130   2.103
43686SOL    HW232891  12.893  12.277   2.071
43687SOL     OW32892   8.431   2.306   3.630
43687SOL    HW132893   8.375   2.383   3.640
43687SOL    HW232894   8.424   2.284   3.537
43688SOL     OW32895   0.861   2.528   0.502
43688SOL    HW132896   0.805   2.606   0.511
43688SOL    HW232897   0.828   2.467   0.568
43689SOL     OW32898   3.590  11.501   5.791
43689SOL    HW132899   3.671  11.517   5.840
43689SOL    HW232900   3.618  11.503   5.699
43690SOL     OW32901   8.536   0.205  14.148
43690SOL    HW132902   8.579   0.234  14.067
43690SOL    HW232903   8.459   0.261  14.156
43691SOL     OW32904  10.256   0.328  11.716
43691SOL    HW132905  10.342   0.367  11.705
43691SOL    HW232906  10.271   0.233  11.712
43692SOL     OW32907   1.153  13.692  10.517
43692SOL    HW132908   1.071  13.698  10.567
43692SOL    HW232909   1.128  13.648  10.436
43693SOL     OW32910  14.702  10.723  13.839
43693SOL    HW132911  14.750  10.752  13.762
43693SOL    HW232912  14.724  10.630  13.848
43694SOL     OW32913  11.136  14.405   5.533
43694SOL    HW132914  11.193  14.331   5.511
43694SOL    HW232915  11.154  14.423   5.625
43695SOL     OW32916  11.413   9.726   2.720
43695SOL    HW132917  11.329   9.730   2.765
43695SOL    HW232918  11.461   9.803   2.751
43696SOL     OW32919  14.303   8.494   3.463
43696SOL    HW132920  14.211   8.477   3.443
43696SOL    HW232921  14.322   8.578   3.422
43697SOL     OW32922  13.179  11.121   7.052
43697SOL    HW132923  13.090  11.100   7.081
43697SOL    HW232924  13.180  11.100   6.959
43698SOL     OW32925  12.618  11.938   1.931
43698SOL    HW132926  12.524  11.923   1.917
43698SOL    HW232927  12.644  11.993   1.858
43699SOL     OW32928   6.165   5.381   4.859
43699SOL    HW132929   6.226   5.319   4.821
43699SOL    HW232930   6.190   5.386   4.951
43700SOL     OW32931  14.584  11.873   6.744
43700SOL    HW132932  14.502  11.918   6.722
43700SOL    HW232933  14.637  11.881   6.664
43701SOL     OW32934   5.944  10.783  13.049
43701SOL    HW132935   6.001  10.770  13.125
43701SOL    HW232936   5.995  10.749  12.976
43702SOL     OW32937   6.662   4.374   2.037
43702SOL    HW132938   6.623   4.375   2.124
43702SOL    HW232939   6.652   4.464   2.005
43703SOL     OW32940   7.780  12.053  10.670
43703SOL    HW132941   7.718  11.987  10.637
43703SOL    HW232942   7.862  12.034  10.624
43704SOL     OW32943  12.915   8.659  12.580
43704SOL    HW132944  12.913   8.730  12.644
43704SOL    HW232945  12.828   8.620  12.585
43705SOL     OW32946   7.417  14.738  11.217
43705SOL    HW132947   7.374  14.760  11.134
43705SOL    HW232948   7.431  14.823  11.259
43706SOL     OW32949   2.802   4.576   6.120
43706SOL    HW132950   2.792   4.490   6.078
43706SOL    HW232951   2.888   4.606   6.093
43707SOL     OW32952   1.653   6.089   6.851
43707SOL    HW132953   1.584   6.051   6.797
43707SOL    HW232954   1.619   6.087   6.940
43708SOL     OW32955  10.143   8.766  11.623
43708SOL    HW132956  10.113   8.680  11.651
43708SOL    HW232957  10.215   8.787  11.682
43709SOL     OW32958   2.529  13.958  13.876
43709SOL    HW132959   2.544  13.927  13.787
43709SOL    HW232960   2.603  13.922  13.926
43710SOL     OW32961  13.776   5.100   2.697
43710SOL    HW132962  13.832   5.065   2.766
43710SOL    HW232963  13.815   5.070   2.615
43711SOL     OW32964   6.664   4.915   4.312
43711SOL    HW132965   6.653   4.977   4.240
43711SOL    HW232966   6.732   4.953   4.367
43712SOL     OW32967   3.753   7.445   1.413
43712SOL    HW132968   3.810   7.453   1.489
43712SOL    HW232969   3.755   7.351   1.392
43713SOL     OW32970   1.323  10.462   0.101
43713SOL    HW132971   1.276  10.393   0.055
43713SOL    HW232972   1.414  10.454   0.070
43714SOL     OW32973   1.691   5.233   0.536
43714SOL    HW132974   1.739   5.153   0.514
43714SOL    HW232975   1.601   5.203   0.551
43715SOL     OW32976  10.884   4.802  14.344
43715SOL    HW132977  10.939   4.748  14.288
43715SOL    HW232978  10.796   4.768  14.331
43716SOL     OW32979  12.406   1.601   7.553
43716SOL    HW132980  12.313   1.579   7.556
43716SOL    HW232981  12.423   1.616   7.460
43717SOL     OW32982   2.687   0.107   7.215
43717SOL    HW132983   2.714   0.111   7.123
43717SOL    HW232984   2.642   0.023   7.223
43718SOL     OW32985   6.415   7.881   4.168
43718SOL    HW132986   6.404   7.880   4.263
43718SOL    HW232987   6.331   7.848   4.135
43719SOL     OW32988   3.076  12.713   3.784
43719SOL    HW132989   3.150  12.735   3.727
43719SOL    HW232990   3.083  12.619   3.797
43720SOL     OW32991   2.428  13.076   1.592
43720SOL    HW132992   2.502  13.123   1.631
43720SOL    HW232993   2.360  13.078   1.659
43721SOL     OW32994  14.217   2.279   2.492
43721SOL    HW132995  14.255   2.222   2.426
43721SOL    HW232996  14.194   2.220   2.564
43722SOL     OW32997  12.092   5.522   8.581
43722SOL    HW132998  12.146   5.549   8.655
43722SOL    HW232999  12.154   5.509   8.509
43723SOL     OW33000   9.217   6.882   3.213
43723SOL    HW133001   9.258   6.863   3.297
43723SOL    HW233002   9.124   6.863   3.227
43724SOL     OW33003  14.716   7.182   7.664
43724SOL    HW133004  14.685   7.270   7.682
43724SOL    HW233005  14.808   7.193   7.640
43725SOL     OW33006  13.150   4.646   8.683
43725SOL    HW133007  13.170   4.736   8.707
43725SOL    HW233008  13.159   4.643   8.588
43726SOL     OW33009   2.109   4.336   8.563
43726SOL    HW133010   2.026   4.370   8.530
43726SOL    HW233011   2.090   4.312   8.654
43727SOL     OW33012   9.346   8.023   7.291
43727SOL    HW133013   9.346   8.104   7.239
43727SOL    HW233014   9.360   8.053   7.381
43728SOL     OW33015   1.788   1.080  11.630
43728SOL    HW133016   1.872   1.059  11.589
43728SOL    HW233017   1.765   1.001  11.679
43729SOL     OW33018   1.689   8.015  10.534
43729SOL    HW133019   1.614   7.959  10.513
43729SOL    HW233020   1.742   8.013  10.455
43730SOL     OW33021   0.043   8.259   6.004
43730SOL    HW133022  14.834   8.211   6.016
43730SOL    HW233023   0.029   8.343   6.047
43731SOL     OW33024   9.040   9.638   5.831
43731SOL    HW133025   9.042   9.652   5.925
43731SOL    HW233026   9.034   9.726   5.794
43732SOL     OW33027   7.291  13.988  13.397
43732SOL    HW133028   7.248  13.910  13.431
43732SOL    HW233029   7.221  14.042  13.362
43733SOL     OW33030  12.152   0.067   0.146
43733SOL    HW133031  12.153   0.149   0.098
43733SOL    HW233032  12.202   0.006   0.090
43734SOL     OW33033   9.161   9.369  11.325
43734SOL    HW133034   9.173   9.449  11.274
43734SOL    HW233035   9.198   9.389  11.410
43735SOL     OW33036   4.740   3.964   3.044
43735SOL    HW133037   4.771   3.875   3.025
43735SOL    HW233038   4.787   4.019   2.981
43736SOL     OW33039  14.707   6.478   4.796
43736SOL    HW133040  14.791   6.521   4.813
43736SOL    HW233041  14.708   6.459   4.702
43737SOL     OW33042  10.719   4.846   1.638
43737SOL    HW133043  10.657   4.828   1.708
43737SOL    HW233044  10.693   4.787   1.567
43738SOL     OW33045   7.162  10.721  11.641
43738SOL    HW133046   7.156  10.679  11.555
43738SOL    HW233047   7.215  10.660  11.693
43739SOL     OW33048   1.697   9.548   0.155
43739SOL    HW133049   1.628   9.512   0.211
43739SOL    HW233050   1.652   9.609   0.097
43740SOL     OW33051   5.272  14.153   1.956
43740SOL    HW133052   5.341  14.178   1.895
43740SOL    HW233053   5.200  14.123   1.900
43741SOL     OW33054   3.072  12.047   7.496
43741SOL    HW133055   3.028  12.123   7.534
43741SOL    HW233056   3.058  11.977   7.559
43742SOL     OW33057   0.006   1.414   4.758
43742SOL    HW133058  14.852   1.479   4.693
43742SOL    HW233059  14.800   1.398   4.810
43743SOL     OW33060   4.552   0.162  11.175
43743SOL    HW133061   4.495   0.200  11.109
43743SOL    HW233062   4.528   0.069  11.177
43744SOL     OW33063   8.703   2.372   4.008
43744SOL    HW133064   8.707   2.337   4.096
43744SOL    HW233065   8.618   2.343   3.974
43745SOL     OW33066   8.266   8.400  14.648
43745SOL    HW133067   8.346   8.438  14.686
43745SOL    HW233068   8.218   8.475  14.613
43746SOL     OW33069  12.613  10.367   8.529
43746SOL    HW133070  12.657  10.449   8.508
43746SOL    HW233071  12.662  10.300   8.481
43747SOL     OW33072   3.746  10.461   3.355
43747SOL    HW133073   3.807  10.397   3.318
43747SOL    HW233074   3.730  10.429   3.444
43748SOL     OW33075   0.199   7.275  13.640
43748SOL    HW133076   0.154   7.262  13.724
43748SOL    HW233077   0.204   7.187  13.602
43749SOL     OW33078   9.548   6.986   1.568
43749SOL    HW133079   9.477   7.046   1.545
43749SOL    HW233080   9.503   6.905   1.593
43750SOL     OW33081   2.916   2.178   4.380
43750SOL    HW133082   2.848   2.229   4.425
43750SOL    HW233083   2.975   2.244   4.344
43751SOL     OW33084   3.950   6.563  10.789
43751SOL    HW133085   3.894   6.504  10.739
43751SOL    HW233086   3.890   6.622  10.834
43752SOL     OW33087   0.442   9.428  12.861
43752SOL    HW133088   0.480   9.481  12.791
43752SOL    HW233089   0.387   9.490  12.910
43753SOL     OW33090   0.195  14.784   1.514
43753SOL    HW133091   0.161  14.705   1.472
43753SOL    HW233092   0.284  14.760   1.542
43754SOL     OW33093   8.733  10.225   4.966
43754SOL    HW133094   8.765  10.311   4.939
43754SOL    HW233095   8.801  10.164   4.939
43755SOL     OW33096   0.895  12.892  10.772
43755SOL    HW133097   0.856  12.924  10.691
43755SOL    HW233098   0.987  12.876  10.750
43756SOL     OW33099  14.443   4.702   7.474
43756SOL    HW133100  14.537   4.697   7.487
43756SOL    HW233101  14.409   4.620   7.510
43757SOL     OW33102   5.057   3.629  14.185
43757SOL    HW133103   4.981   3.571  14.189
43757SOL    HW233104   5.029   3.709  14.229
43758SOL     OW33105  14.086   8.079  11.000
43758SOL    HW133106  14.101   8.025  10.922
43758SOL    HW233107  13.991   8.081  11.010
43759SOL     OW33108  13.529   2.686   8.519
43759SOL    HW133109  13.454   2.629   8.533
43759SOL    HW233110  13.582   2.641   8.453
43760SOL     OW33111   1.299   2.545  10.539
43760SOL    HW133112   1.250   2.494  10.475
43760SOL    HW233113   1.372   2.488  10.565
43761SOL     OW33114   4.840   4.802   9.971
43761SOL    HW133115   4.887   4.884   9.986
43761SOL    HW233116   4.892   4.756   9.906
43762SOL     OW33117   5.822  14.829   0.805
43762SOL    HW133118   5.726  14.829   0.798
43762SOL    HW233119   5.838  14.816   0.899
43763SOL     OW33120   3.701   5.079   7.319
43763SOL    HW133121   3.688   5.023   7.396
43763SOL    HW233122   3.679   5.167   7.350
43764SOL     OW33123   0.362  14.486  14.500
43764SOL    HW133124   0.308  14.532  14.565
43764SOL    HW233125   0.414  14.425  14.551
43765SOL     OW33126  12.034   9.126   9.817
43765SOL    HW133127  12.048   9.161   9.729
43765SOL    HW233128  11.973   9.053   9.805
43766SOL     OW33129   7.991   4.160  14.042
43766SOL    HW133130   7.983   4.253  14.018
43766SOL    HW233131   8.068   4.130  13.994
43767SOL     OW33132   4.970   5.659   2.014
43767SOL    HW133133   5.058   5.670   1.978
43767SOL    HW233134   4.917   5.724   1.968
43768SOL     OW33135   9.904  12.452  13.755
43768SOL    HW133136   9.827  12.396  13.750
43768SOL    HW233137   9.875  12.536  13.719
43769SOL     OW33138  12.612  12.768   7.867
43769SOL    HW133139  12.632  12.826   7.793
43769SOL    HW233140  12.695  12.757   7.912
43770SOL     OW33141   7.365  10.117  10.966
43770SOL    HW133142   7.273  10.112  10.989
43770SOL    HW233143   7.367  10.172  10.887
43771SOL     OW33144  13.435   9.671   8.086
43771SOL    HW133145  13.439   9.578   8.063
43771SOL    HW233146  13.485   9.715   8.018
43772SOL     OW33147   1.804   8.082  11.435
43772SOL    HW133148   1.831   8.174  11.431
43772SOL    HW233149   1.837   8.051  11.520
43773SOL     OW33150   8.616  10.074   9.807
43773SOL    HW133151   8.623  10.110   9.718
43773SOL    HW233152   8.537  10.019   9.804
43774SOL     OW33153   2.052   1.077   3.851
43774SOL    HW133154   2.010   1.039   3.929
43774SOL    HW233155   2.137   1.032   3.846
43775SOL     OW33156  14.202   5.655   7.616
43775SOL    HW133157  14.269   5.618   7.558
43775SOL    HW233158  14.186   5.587   7.681
43776SOL     OW33159   0.655   9.522   3.348
43776SOL    HW133160   0.600   9.592   3.314
43776SOL    HW233161   0.625   9.509   3.438
43777SOL     OW33162  10.841   2.740   9.797
43777SOL    HW133163  10.937   2.740   9.788
43777SOL    HW233164  10.825   2.704   9.884
43778SOL     OW33165   1.834   8.300   6.861
43778SOL    HW133166   1.909   8.261   6.816
43778SOL    HW233167   1.870   8.333   6.943
43779SOL     OW33168  12.764   0.912  13.065
43779SOL    HW133169  12.822   0.912  12.989
43779SOL    HW233170  12.732   1.002  13.071
43780SOL     OW33171   8.151   6.024   9.995
43780SOL    HW133172   8.176   5.955  10.056
43780SOL    HW233173   8.232   6.074   9.981
43781SOL     OW33174   1.726   7.717   1.885
43781SOL    HW133175   1.746   7.647   1.822
43781SOL    HW233176   1.632   7.732   1.874
43782SOL     OW33177  10.374   4.665  14.547
43782SOL    HW133178  10.452   4.663  14.603
43782SOL    HW233179  10.388   4.595  14.484
43783SOL     OW33180   8.504   2.066   5.905
43783SOL    HW133181   8.414   2.093   5.890
43783SOL    HW233182   8.531   2.114   5.983
43784SOL     OW33183   7.674   0.770   6.063
43784SOL    HW133184   7.581   0.793   6.060
43784SOL    HW233185   7.720   0.852   6.046
43785SOL     OW33186   9.993  12.455   4.082
43785SOL    HW133187  10.052  12.454   4.157
43785SOL    HW233188  10.015  12.375   4.033
43786SOL     OW33189   1.159  10.435  14.438
43786SOL    HW133190   1.235  10.493  14.437
43786SOL    HW233191   1.102  10.468  14.369
43787SOL     OW33192   7.542   8.367   9.119
43787SOL    HW133193   7.586   8.451   9.108
43787SOL    HW233194   7.475   8.366   9.051
43788SOL     OW33195  13.653   5.679   5.255
43788SOL    HW133196  13.739   5.715   5.272
43788SOL    HW233197  13.593   5.733   5.305
43789SOL     OW33198   3.659   6.038   9.638
43789SOL    HW133199   3.679   6.005   9.551
43789SOL    HW233200   3.608   6.118   9.623
43790SOL     OW33201  11.334   6.142  11.653
43790SOL    HW133202  11.291   6.147  11.567
43790SOL    HW233203  11.412   6.197  11.643
43791SOL     OW33204   5.596   6.294   3.772
43791SOL    HW133205   5.687   6.323   3.767
43791SOL    HW233206   5.545   6.372   3.752
43792SOL     OW33207   1.896  11.931   7.421
43792SOL    HW133208   1.867  11.907   7.332
43792SOL    HW233209   1.991  11.940   7.414
43793SOL     OW33210  10.661   6.221   2.977
43793SOL    HW133211  10.711   6.302   2.987
43793SOL    HW233212  10.573   6.250   2.953
43794SOL     OW33213   3.009   1.531  11.334
43794SOL    HW133214   3.105   1.529  11.331
43794SOL    HW233215   2.986   1.623  11.324
43795SOL     OW33216  12.104  13.282   2.741
43795SOL    HW133217  12.041  13.353   2.740
43795SOL    HW233218  12.187  13.323   2.765
43796SOL     OW33219   0.733  12.528   1.813
43796SOL    HW133220   0.660  12.536   1.875
43796SOL    HW233221   0.691  12.500   1.732
43797SOL     OW33222   3.941  13.199   6.025
43797SOL    HW133223   4.010  13.252   5.985
43797SOL    HW233224   3.976  13.110   6.026
43798SOL     OW33225   3.031  10.802  12.399
43798SOL    HW133226   3.053  10.860  12.325
43798SOL    HW233227   3.051  10.854  12.477
43799SOL     OW33228   4.349  10.174   2.268
43799SOL    HW133229   4.415  10.223   2.316
43799SOL    HW233230   4.388  10.086   2.258
43800SOL     OW33231   1.648   5.665  11.364
43800SOL    HW133232   1.642   5.588  11.421
43800SOL    HW233233   1.602   5.639  11.284
43801SOL     OW33234   0.178   5.456   7.936
43801SOL    HW133235   0.151   5.383   7.992
43801SOL    HW233236   0.121   5.449   7.859
43802SOL     OW33237   9.692  13.144   0.126
43802SOL    HW133238   9.631  13.126   0.054
43802SOL    HW233239   9.760  13.198   0.087
43803SOL     OW33240   5.584   9.098  14.328
43803SOL    HW133241   5.533   9.165  14.373
43803SOL    HW233242   5.586   9.024  14.389
43804SOL     OW33243  12.919   3.446   2.731
43804SOL    HW133244  12.962   3.362   2.747
43804SOL    HW233245  12.887   3.439   2.641
43805SOL     OW33246   0.858   8.607   8.050
43805SOL    HW133247   0.764   8.624   8.062
43805SOL    HW233248   0.860   8.520   8.009
43806SOL     OW33249   0.456  14.473  12.130
43806SOL    HW133250   0.400  14.430  12.065
43806SOL    HW233251   0.402  14.478  12.209
43807SOL     OW33252  11.651   3.043   2.906
43807SOL    HW133253  11.594   3.117   2.929
43807SOL    HW233254  11.684   3.011   2.991
43808SOL     OW33255   9.673  11.617  12.439
43808SOL    HW133256   9.742  11.661  12.389
43808SOL    HW233257   9.600  11.678  12.437
43809SOL     OW33258   7.886  12.288  13.634
43809SOL    HW133259   7.850  12.359  13.581
43809SOL    HW233260   7.978  12.285  13.611
43810SOL     OW33261  14.794  14.574   9.407
43810SOL    HW133262  14.780  14.527   9.490
43810SOL    HW233263  14.707  14.576   9.366
43811SOL     OW33264  12.025   5.060  11.233
43811SOL    HW133265  12.032   5.143  11.186
43811SOL    HW233266  11.944   5.020  11.199
43812SOL     OW33267  13.210   3.524   6.977
43812SOL    HW133268  13.299   3.512   6.944
43812SOL    HW233269  13.218   3.597   7.039
43813SOL     OW33270  11.778   1.343   1.789
43813SOL    HW133271  11.845   1.330   1.721
43813SOL    HW233272  11.718   1.269   1.778
43814SOL     OW33273   8.829   8.219  13.188
43814SOL    HW133274   8.890   8.184  13.253
43814SOL    HW233275   8.840   8.314  13.193
43815SOL     OW33276   6.499   9.373   8.586
43815SOL    HW133277   6.456   9.292   8.560
43815SOL    HW233278   6.427   9.432   8.610
43816SOL     OW33279  12.430   9.076   0.946
43816SOL    HW133280  12.509   9.130   0.947
43816SOL    HW233281  12.448   9.005   1.007
43817SOL     OW33282  11.086  13.429   1.727
43817SOL    HW133283  11.040  13.345   1.723
43817SOL    HW233284  11.151  13.418   1.796
43818SOL     OW33285   8.189   9.666  12.112
43818SOL    HW133286   8.122   9.732  12.095
43818SOL    HW233287   8.268   9.699  12.070
43819SOL     OW33288  14.229   1.488  13.959
43819SOL    HW133289  14.268   1.441  13.885
43819SOL    HW233290  14.137   1.463  13.957
43820SOL     OW33291  10.415   4.107   6.336
43820SOL    HW133292  10.433   4.014   6.329
43820SOL    HW233293  10.497   4.145   6.368
43821SOL     OW33294   7.311   1.493  12.548
43821SOL    HW133295   7.318   1.547  12.627
43821SOL    HW233296   7.217   1.488  12.530
43822SOL     OW33297   9.467   3.423   0.950
43822SOL    HW133298   9.437   3.489   0.887
43822SOL    HW233299   9.541   3.381   0.906
43823SOL     OW33300   4.500   1.263  13.321
43823SOL    HW133301   4.535   1.352  13.325
43823SOL    HW233302   4.461   1.256  13.234
43824SOL     OW33303   4.865  14.741   1.966
43824SOL    HW133304   4.956  14.724   1.942
43824SOL    HW233305   4.861  14.721   2.060
43825SOL     OW33306   6.044   3.252  13.399
43825SOL    HW133307   6.075   3.284  13.314
43825SOL    HW233308   5.953   3.281  13.404
43826SOL     OW33309   5.946   5.813  13.294
43826SOL    HW133310   5.899   5.745  13.343
43826SOL    HW233311   5.932   5.790  13.202
43827SOL     OW33312   2.537   0.262   7.365
43827SOL    HW133313   2.561   0.237   7.455
43827SOL    HW233314   2.590   0.204   7.310
43828SOL     OW33315   4.034   0.124  13.418
43828SOL    HW133316   4.016   0.066  13.344
43828SOL    HW233317   4.021   0.069  13.495
43829SOL     OW33318   9.768   5.188   1.857
43829SOL    HW133319   9.732   5.277   1.849
43829SOL    HW233320   9.845   5.188   1.800
43830SOL     OW33321   2.736  14.482   1.818
43830SOL    HW133322   2.719  14.573   1.790
43830SOL    HW233323   2.783  14.491   1.901
43831SOL     OW33324  10.338   7.706  13.354
43831SOL    HW133325  10.340   7.736  13.263
43831SOL    HW233326  10.348   7.611  13.348
43832SOL     OW33327  12.460  12.570  10.062
43832SOL    HW133328  12.536  12.624  10.082
43832SOL    HW233329  12.429  12.602   9.977
43833SOL     OW33330   3.261  14.370  13.107
43833SOL    HW133331   3.320  14.350  13.179
43833SOL    HW233332   3.232  14.460  13.123
43834SOL     OW33333   1.896   2.176   4.139
43834SOL    HW133334   1.868   2.133   4.059
43834SOL    HW233335   1.964   2.119   4.175
43835SOL     OW33336   5.628  13.738  13.922
43835SOL    HW133337   5.631  13.666  13.858
43835SOL    HW233338   5.624  13.695  14.007
43836SOL     OW33339   8.941   7.033  11.433
43836SOL    HW133340   8.970   7.099  11.370
43836SOL    HW233341   8.969   6.950  11.395
43837SOL     OW33342   4.026   7.351   6.773
43837SOL    HW133343   4.120   7.366   6.761
43837SOL    HW233344   3.992   7.339   6.684
43838SOL     OW33345  14.006  13.035   6.452
43838SOL    HW133346  14.040  13.037   6.362
43838SOL    HW233347  13.921  13.077   6.446
43839SOL     OW33348   9.836   7.219  13.824
43839SOL    HW133349   9.927   7.228  13.853
43839SOL    HW233350   9.784   7.257  13.895
43840SOL     OW33351   0.234   3.404  11.438
43840SOL    HW133352   0.293   3.461  11.390
43840SOL    HW233353   0.204   3.456  11.513
43841SOL     OW33354   0.445   5.971  14.203
43841SOL    HW133355   0.359   5.949  14.167
43841SOL    HW233356   0.447   5.929  14.289
43842SOL     OW33357   3.461   6.989   8.148
43842SOL    HW133358   3.415   7.052   8.091
43842SOL    HW233359   3.441   6.904   8.110
43843SOL     OW33360   5.708   7.971   9.917
43843SOL    HW133361   5.662   8.030   9.857
43843SOL    HW233362   5.639   7.937   9.974
43844SOL     OW33363  13.461   8.405   3.091
43844SOL    HW133364  13.537   8.361   3.130
43844SOL    HW233365  13.495   8.444   3.010
43845SOL     OW33366   1.155   3.730   0.588
43845SOL    HW133367   1.125   3.670   0.657
43845SOL    HW233368   1.245   3.750   0.613
43846SOL     OW33369  14.424   3.027  10.633
43846SOL    HW133370  14.496   2.973  10.664
43846SOL    HW233371  14.346   2.984  10.668
43847SOL     OW33372   7.783   7.052   1.988
43847SOL    HW133373   7.785   6.977   2.046
43847SOL    HW233374   7.870   7.055   1.948
43848SOL     OW33375  14.563  11.328   1.245
43848SOL    HW133376  14.502  11.290   1.182
43848SOL    HW233377  14.509  11.348   1.322
43849SOL     OW33378   1.692   8.109   1.590
43849SOL    HW133379   1.632   8.161   1.537
43849SOL    HW233380   1.636   8.046   1.634
43850SOL     OW33381  12.491   7.271   4.033
43850SOL    HW133382  12.439   7.351   4.033
43850SOL    HW233383  12.431   7.203   4.002
43851SOL     OW33384   9.324   6.282  11.937
43851SOL    HW133385   9.334   6.215  12.004
43851SOL    HW233386   9.262   6.345  11.976
43852SOL     OW33387   6.385   9.969   0.606
43852SOL    HW133388   6.450   9.960   0.676
43852SOL    HW233389   6.364   9.878   0.582
43853SOL     OW33390   1.938  13.808   2.818
43853SOL    HW133391   1.887  13.735   2.855
43853SOL    HW233392   2.021  13.768   2.792
43854SOL     OW33393   1.148   5.106  10.441
43854SOL    HW133394   1.113   5.172  10.382
43854SOL    HW233395   1.115   5.130  10.527
43855SOL     OW33396   9.395  11.081  11.065
43855SOL    HW133397   9.472  11.041  11.106
43855SOL    HW233398   9.337  11.007  11.045
43856SOL     OW33399   8.513   7.089   8.299
43856SOL    HW133400   8.458   7.034   8.243
43856SOL    HW233401   8.600   7.086   8.258
43857SOL     OW33402  13.542  14.430  14.746
43857SOL    HW133403  13.585  14.346  14.731
43857SOL    HW233404  13.511  14.457  14.659
43858SOL     OW33405   2.298   2.167   2.256
43858SOL    HW133406   2.357   2.092   2.241
43858SOL    HW233407   2.337   2.214   2.329
43859SOL     OW33408   3.720   7.452  12.629
43859SOL    HW133409   3.749   7.525  12.574
43859SOL    HW233410   3.640   7.420  12.586
43860SOL     OW33411   4.110  10.742  14.211
43860SOL    HW133412   4.075  10.735  14.123
43860SOL    HW233413   4.179  10.676  14.216
43861SOL     OW33414   8.278   7.951   9.875
43861SOL    HW133415   8.231   7.867   9.884
43861SOL    HW233416   8.329   7.941   9.795
43862SOL     OW33417   2.459  13.810   6.267
43862SOL    HW133418   2.400  13.735   6.270
43862SOL    HW233419   2.522  13.788   6.199
43863SOL     OW33420  13.398   9.289   9.501
43863SOL    HW133421  13.472   9.331   9.458
43863SOL    HW233422  13.321   9.330   9.462
43864SOL     OW33423  11.657   7.766   0.649
43864SOL    HW133424  11.650   7.707   0.574
43864SOL    HW233425  11.742   7.808   0.639
43865SOL     OW33426   8.293  10.751   2.797
43865SOL    HW133427   8.328  10.681   2.743
43865SOL    HW233428   8.237  10.801   2.739
43866SOL     OW33429   3.826  11.621   8.358
43866SOL    HW133430   3.836  11.572   8.276
43866SOL    HW233431   3.817  11.712   8.331
43867SOL     OW33432   3.751  12.575  12.981
43867SOL    HW133433   3.750  12.482  12.961
43867SOL    HW233434   3.834  12.588  13.028
43868SOL     OW33435  12.258   5.818   3.985
43868SOL    HW133436  12.192   5.777   4.041
43868SOL    HW233437  12.239   5.912   3.989
43869SOL     OW33438   4.833   6.597   1.842
43869SOL    HW133439   4.787   6.676   1.814
43869SOL    HW233440   4.922   6.627   1.860
43870SOL     OW33441  11.456   6.168  13.576
43870SOL    HW133442  11.511   6.090  13.580
43870SOL    HW233443  11.376   6.144  13.624
43871SOL     OW33444  13.754   5.923   5.077
43871SOL    HW133445  13.826   5.927   5.015
43871SOL    HW233446  13.691   5.863   5.037
43872SOL     OW33447  10.504  11.090  13.194
43872SOL    HW133448  10.576  11.039  13.231
43872SOL    HW233449  10.504  11.068  13.101
43873SOL     OW33450   2.729   9.160  10.216
43873SOL    HW133451   2.676   9.132  10.142
43873SOL    HW233452   2.674   9.222  10.264
43874SOL     OW33453   4.785   7.427   2.725
43874SOL    HW133454   4.706   7.408   2.674
43874SOL    HW233455   4.790   7.356   2.789
43875SOL     OW33456   9.097   8.226  12.433
43875SOL    HW133457   9.186   8.191  12.422
43875SOL    HW233458   9.111   8.318  12.455
43876SOL     OW33459   8.622   8.100   3.545
43876SOL    HW133460   8.590   8.126   3.459
43876SOL    HW233461   8.574   8.019   3.564
43877SOL     OW33462  13.551   7.463   4.579
43877SOL    HW133463  13.632   7.427   4.616
43877SOL    HW233464  13.501   7.493   4.655
43878SOL     OW33465  14.174   7.252  11.838
43878SOL    HW133466  14.206   7.290  11.757
43878SOL    HW233467  14.146   7.327  11.891
43879SOL     OW33468  11.659  11.693  10.573
43879SOL    HW133469  11.587  11.756  10.566
43879SOL    HW233470  11.643  11.630  10.502
43880SOL     OW33471   3.952   8.801   1.688
43880SOL    HW133472   3.971   8.817   1.595
43880SOL    HW233473   3.912   8.882   1.718
43881SOL     OW33474  13.210   8.145   9.586
43881SOL    HW133475  13.168   8.061   9.605
43881SOL    HW233476  13.220   8.146   9.491
43882SOL     OW33477  11.296  12.711   9.468
43882SOL    HW133478  11.230  12.708   9.399
43882SOL    HW233479  11.255  12.761   9.539
43883SOL     OW33480   2.520   2.508   8.217
43883SOL    HW133481   2.606   2.494   8.178
43883SOL    HW233482   2.459   2.471   8.154
43884SOL     OW33483   8.913   7.962   2.953
43884SOL    HW133484   8.996   8.008   2.962
43884SOL    HW233485   8.922   7.911   2.873
43885SOL     OW33486  13.247   9.712   4.975
43885SOL    HW133487  13.316   9.681   4.917
43885SOL    HW233488  13.168   9.710   4.922
43886SOL     OW33489   4.285   1.417   8.431
43886SOL    HW133490   4.337   1.337   8.445
43886SOL    HW233491   4.263   1.447   8.519
43887SOL     OW33492   9.306   2.245  11.999
43887SOL    HW133493   9.369   2.275  11.934
43887SOL    HW233494   9.351   2.175  12.046
43888SOL     OW33495  11.996   0.999  11.555
43888SOL    HW133496  12.008   1.082  11.509
43888SOL    HW233497  11.914   1.011  11.604
43889SOL     OW33498   0.137   0.171  14.716
43889SOL    HW133499   0.188   0.123  14.651
43889SOL    HW233500   0.106   0.249  14.669
43890SOL     OW33501   8.753  14.137   9.485
43890SOL    HW133502   8.805  14.067   9.447
43890SOL    HW233503   8.817  14.206   9.504
43891SOL     OW33504   3.982  12.791  14.727
43891SOL    HW133505   4.037  12.758  14.798
43891SOL    HW233506   4.033  12.860  14.686
43892SOL     OW33507  11.183  11.688   2.192
43892SOL    HW133508  11.188  11.705   2.286
43892SOL    HW233509  11.243  11.615   2.178
43893SOL     OW33510   5.323  11.925   3.069
43893SOL    HW133511   5.261  11.950   3.138
43893SOL    HW233512   5.357  12.008   3.036
43894SOL     OW33513   6.522  11.614  14.492
43894SOL    HW133514   6.568  11.698  14.493
43894SOL    HW233515   6.577  11.558  14.436
43895SOL     OW33516  12.310  11.641   9.046
43895SOL    HW133517  12.317  11.558   9.093
43895SOL    HW233518  12.251  11.694   9.099
43896SOL     OW33519   6.342   9.064   1.331
43896SOL    HW133520   6.380   8.984   1.368
43896SOL    HW233521   6.248   9.057   1.351
43897SOL     OW33522   5.221   7.448   6.205
43897SOL    HW133523   5.216   7.366   6.155
43897SOL    HW233524   5.142   7.449   6.258
43898SOL     OW33525   1.959  11.496   9.993
43898SOL    HW133526   2.024  11.460  10.053
43898SOL    HW233527   1.995  11.580   9.965
43899SOL     OW33528  13.988   9.325   7.511
43899SOL    HW133529  14.021   9.336   7.600
43899SOL    HW233530  14.067   9.321   7.457
43900SOL     OW33531  10.871  13.920  12.106
43900SOL    HW133532  10.863  13.899  12.199
43900SOL    HW233533  10.937  13.858  12.073
43901SOL     OW33534   0.051   5.761   0.758
43901SOL    HW133535  14.836   5.723   0.750
43901SOL    HW233536   0.050   5.836   0.698
43902SOL     OW33537   7.198  14.309   2.757
43902SOL    HW133538   7.178  14.391   2.713
43902SOL    HW233539   7.141  14.245   2.715
43903SOL     OW33540  11.268  11.018   6.165
43903SOL    HW133541  11.295  11.107   6.143
43903SOL    HW233542  11.278  11.012   6.260
43904SOL     OW33543   1.123  13.931  10.305
43904SOL    HW133544   1.216  13.909  10.316
43904SOL    HW233545   1.082  13.849  10.278
43905SOL     OW33546  13.263   4.058   9.726
43905SOL    HW133547  13.297   4.126   9.783
43905SOL    HW233548  13.246   3.984   9.784
43906SOL     OW33549   6.357   1.157   2.488
43906SOL    HW133550   6.403   1.230   2.448
43906SOL    HW233551   6.272   1.193   2.514
43907SOL     OW33552  14.436  14.388   0.127
43907SOL    HW133553  14.516  14.410   0.079
43907SOL    HW233554  14.430  14.293   0.123
43908SOL     OW33555  13.374   0.771   2.731
43908SOL    HW133556  13.361   0.793   2.639
43908SOL    HW233557  13.466   0.790   2.747
43909SOL     OW33558  10.266  11.881  13.929
43909SOL    HW133559  10.255  11.953  13.867
43909SOL    HW233560  10.359  11.881  13.950
43910SOL     OW33561   0.592  10.505   3.306
43910SOL    HW133562   0.600  10.412   3.329
43910SOL    HW233563   0.681  10.540   3.315
43911SOL     OW33564   7.452   3.715  14.674
43911SOL    HW133565   7.541   3.681  14.675
43911SOL    HW233566   7.432   3.731  14.582
43912SOL     OW33567   8.625   4.381   8.810
43912SOL    HW133568   8.539   4.381   8.767
43912SOL    HW233569   8.623   4.459   8.866
43913SOL     OW33570  11.238  12.354  12.325
43913SOL    HW133571  11.320  12.393  12.355
43913SOL    HW233572  11.170  12.407  12.367
43914SOL     OW33573   7.590   4.668   7.346
43914SOL    HW133574   7.625   4.683   7.434
43914SOL    HW233575   7.586   4.573   7.338
43915SOL     OW33576   9.840   0.704  11.365
43915SOL    HW133577   9.858   0.677  11.455
43915SOL    HW233578   9.801   0.791  11.374
43916SOL     OW33579  11.932  12.234   4.365
43916SOL    HW133580  11.947  12.255   4.273
43916SOL    HW233581  11.929  12.319   4.409
43917SOL     OW33582  11.468   8.910  11.947
43917SOL    HW133583  11.452   8.929  11.854
43917SOL    HW233584  11.545   8.854  11.947
43918SOL     OW33585  10.011   9.476   3.362
43918SOL    HW133586   9.992   9.388   3.332
43918SOL    HW233587  10.100   9.493   3.333
43919SOL     OW33588   1.969   8.436   0.356
43919SOL    HW133589   2.048   8.387   0.333
43919SOL    HW233590   2.001   8.511   0.407
43920SOL     OW33591   0.239   4.372  11.598
43920SOL    HW133592   0.211   4.374  11.506
43920SOL    HW233593   0.167   4.412  11.646
43921SOL     OW33594  12.791   8.221   5.092
43921SOL    HW133595  12.873   8.172   5.101
43921SOL    HW233596  12.746   8.180   5.018
43922SOL     OW33597   1.160   6.614  13.285
43922SOL    HW133598   1.217   6.617  13.208
43922SOL    HW233599   1.075   6.643  13.252
43923SOL     OW33600   5.777  12.166   9.916
43923SOL    HW133601   5.803  12.223   9.989
43923SOL    HW233602   5.698  12.122   9.947
43924SOL     OW33603   2.128   1.606   4.796
43924SOL    HW133604   2.056   1.623   4.858
43924SOL    HW233605   2.108   1.520   4.760
43925SOL     OW33606   7.474   4.320   8.888
43925SOL    HW133607   7.427   4.399   8.915
43925SOL    HW233608   7.520   4.291   8.967
43926SOL     OW33609  13.835  11.653  12.172
43926SOL    HW133610  13.812  11.604  12.252
43926SOL    HW233611  13.751  11.681  12.137
43927SOL     OW33612  11.268   4.557   6.675
43927SOL    HW133613  11.201   4.570   6.741
43927SOL    HW233614  11.220   4.541   6.594
43928SOL     OW33615  11.175  14.799  14.038
43928SOL    HW133616  11.120  14.747  13.980
43928SOL    HW233617  11.114  14.842  14.097
43929SOL     OW33618  12.312   1.405  12.136
43929SOL    HW133619  12.302   1.360  12.219
43929SOL    HW233620  12.405   1.424  12.130
43930SOL     OW33621   2.749  13.836   2.140
43930SOL    HW133622   2.804  13.868   2.211
43930SOL    HW233623   2.748  13.741   2.151
43931SOL     OW33624  10.817   8.725   2.972
43931SOL    HW133625  10.796   8.797   3.031
43931SOL    HW233626  10.758   8.737   2.897
43932SOL     OW33627  12.854  10.950  14.691
43932SOL    HW133628  12.799  10.923  14.617
43932SOL    HW233629  12.936  10.903  14.679
43933SOL     OW33630   0.121   7.538   7.386
43933SOL    HW133631   0.170   7.463   7.353
43933SOL    HW233632   0.040   7.501   7.420
43934SOL     OW33633   8.074   1.351   7.361
43934SOL    HW133634   8.127   1.276   7.388
43934SOL    HW233635   8.134   1.426   7.367
43935SOL     OW33636   5.893  10.802  11.768
43935SOL    HW133637   5.857  10.847  11.844
43935SOL    HW233638   5.853  10.715  11.770
43936SOL     OW33639  14.518   5.543   8.616
43936SOL    HW133640  14.469   5.527   8.697
43936SOL    HW233641  14.603   5.501   8.631
43937SOL     OW33642   9.370   5.612   9.651
43937SOL    HW133643   9.370   5.683   9.714
43937SOL    HW233644   9.462   5.591   9.637
43938SOL     OW33645  13.582   5.227   6.974
43938SOL    HW133646  13.487   5.234   6.978
43938SOL    HW233647  13.614   5.307   7.015
43939SOL     OW33648   9.287  12.411  14.089
43939SOL    HW133649   9.321  12.322  14.085
43939SOL    HW233650   9.264  12.432  13.998
43940SOL     OW33651   5.116   6.156   2.270
43940SOL    HW133652   5.039   6.105   2.292
43940SOL    HW233653   5.096   6.197   2.186
43941SOL     OW33654   4.322   7.086  11.790
43941SOL    HW133655   4.370   7.125  11.716
43941SOL    HW233656   4.352   7.135  11.866
43942SOL     OW33657   2.483   6.680   4.731
43942SOL    HW133658   2.399   6.653   4.692
43942SOL    HW233659   2.515   6.601   4.774
43943SOL     OW33660   8.499   5.680   0.535
43943SOL    HW133661   8.508   5.613   0.466
43943SOL    HW233662   8.573   5.665   0.593
43944SOL     OW33663   2.399   4.990  12.152
43944SOL    HW133664   2.451   4.979  12.231
43944SOL    HW233665   2.361   4.903  12.136
43945SOL     OW33666   2.751  10.332   8.969
43945SOL    HW133667   2.759  10.369   9.057
43945SOL    HW233668   2.838  10.345   8.930
43946SOL     OW33669   3.555   7.740  11.094
43946SOL    HW133670   3.566   7.701  11.181
43946SOL    HW233671   3.640   7.728  11.052
43947SOL     OW33672   5.003   0.075  13.989
43947SOL    HW133673   5.073   0.010  13.977
43947SOL    HW233674   4.932   0.044  13.933
43948SOL     OW33675   9.563   2.561   4.235
43948SOL    HW133676   9.541   2.483   4.285
43948SOL    HW233677   9.531   2.634   4.288
43949SOL     OW33678   3.549  12.644  13.201
43949SOL    HW133679   3.618  12.594  13.245
43949SOL    HW233680   3.561  12.625  13.108
43950SOL     OW33681   2.549   2.241  10.075
43950SOL    HW133682   2.511   2.242  10.162
43950SOL    HW233683   2.484   2.284  10.020
43951SOL     OW33684  10.821   5.759  13.680
43951SOL    HW133685  10.751   5.695  13.669
43951SOL    HW233686  10.899   5.715  13.649
43952SOL     OW33687  10.674  12.832   5.403
43952SOL    HW133688  10.614  12.828   5.478
43952SOL    HW233689  10.694  12.924   5.393
43953SOL     OW33690   8.352  14.223   1.944
43953SOL    HW133691   8.361  14.147   2.001
43953SOL    HW233692   8.266  14.259   1.965
43954SOL     OW33693   2.864   4.486   2.310
43954SOL    HW133694   2.823   4.532   2.383
43954SOL    HW233695   2.793   4.439   2.268
43955SOL     OW33696   0.910   8.383   9.825
43955SOL    HW133697   0.838   8.387   9.762
43955SOL    HW233698   0.988   8.371   9.771
43956SOL     OW33699   9.833   9.584   4.301
43956SOL    HW133700   9.771   9.517   4.330
43956SOL    HW233701   9.871   9.549   4.220
43957SOL     OW33702   4.041  10.449   8.835
43957SOL    HW133703   4.112  10.407   8.785
43957SOL    HW233704   4.009  10.380   8.893
43958SOL     OW33705   6.395  10.141   4.661
43958SOL    HW133706   6.336  10.065   4.655
43958SOL    HW233707   6.446  10.125   4.740
43959SOL     OW33708  11.885   6.770  10.321
43959SOL    HW133709  11.796   6.743  10.343
43959SOL    HW233710  11.896   6.855  10.364
43960SOL     OW33711   8.241   8.826  11.850
43960SOL    HW133712   8.195   8.743  11.836
43960SOL    HW233713   8.189   8.872  11.915
43961SOL     OW33714   4.009   1.806   2.627
43961SOL    HW133715   4.056   1.808   2.544
43961SOL    HW233716   4.078   1.796   2.693
43962SOL     OW33717  13.895   1.586   0.421
43962SOL    HW133718  13.964   1.566   0.357
43962SOL    HW233719  13.820   1.612   0.368
43963SOL     OW33720  10.409  14.544  11.433
43963SOL    HW133721  10.494  14.506  11.408
43963SOL    HW233722  10.347  14.506  11.371
43964SOL     OW33723   3.998  10.269  12.004
43964SOL    HW133724   3.971  10.204  12.069
43964SOL    HW233725   4.078  10.233  11.965
43965SOL     OW33726   3.613  13.694   8.969
43965SOL    HW133727   3.521  13.707   8.945
43965SOL    HW233728   3.657  13.775   8.942
43966SOL     OW33729   4.840   1.255   3.300
43966SOL    HW133730   4.866   1.229   3.212
43966SOL    HW233731   4.745   1.248   3.301
43967SOL     OW33732  10.565   6.473  13.090
43967SOL    HW133733  10.486   6.527  13.097
43967SOL    HW233734  10.571   6.453  12.996
43968SOL     OW33735   4.378   8.853  10.620
43968SOL    HW133736   4.289   8.880  10.643
43968SOL    HW233737   4.377   8.757  10.629
43969SOL     OW33738   5.348   8.011   2.737
43969SOL    HW133739   5.394   8.021   2.653
43969SOL    HW233740   5.416   8.017   2.803
43970SOL     OW33741   1.604  14.570  13.694
43970SOL    HW133742   1.601  14.649  13.747
43970SOL    HW233743   1.589  14.600  13.605
43971SOL     OW33744   9.547   2.066  12.917
43971SOL    HW133745   9.518   1.987  12.963
43971SOL    HW233746   9.634   2.044  12.885
43972SOL     OW33747  14.603   6.115   2.705
43972SOL    HW133748  14.524   6.080   2.746
43972SOL    HW233749  14.647   6.039   2.668
43973SOL     OW33750   5.720  10.292   7.507
43973SOL    HW133751   5.704  10.238   7.583
43973SOL    HW233752   5.764  10.234   7.445
43974SOL     OW33753  12.707  13.173   7.211
43974SOL    HW133754  12.651  13.143   7.282
43974SOL    HW233755  12.776  13.107   7.205
43975SOL     OW33756   1.646   0.374  11.490
43975SOL    HW133757   1.718   0.342  11.436
43975SOL    HW233758   1.577   0.396  11.427
43976SOL     OW33759   9.434   8.403  13.572
43976SOL    HW133760   9.468   8.449  13.496
43976SOL    HW233761   9.489   8.432  13.645
43977SOL     OW33762   0.774  12.689   4.397
43977SOL    HW133763   0.850  12.633   4.385
43977SOL    HW233764   0.720  12.673   4.319
43978SOL     OW33765   8.833   7.575   5.482
43978SOL    HW133766   8.857   7.482   5.487
43978SOL    HW233767   8.755   7.576   5.426
43979SOL     OW33768  10.149   5.288   7.914
43979SOL    HW133769  10.201   5.279   7.993
43979SOL    HW233770  10.067   5.330   7.944
43980SOL     OW33771   9.673   9.093   2.726
43980SOL    HW133772   9.651   9.111   2.635
43980SOL    HW233773   9.768   9.083   2.726
43981SOL     OW33774   8.916   8.161   2.285
43981SOL    HW133775   8.840   8.161   2.343
43981SOL    HW233776   8.987   8.128   2.340
43982SOL     OW33777   3.327  14.017   4.092
43982SOL    HW133778   3.320  13.939   4.036
43982SOL    HW233779   3.412  14.054   4.070
43983SOL     OW33780   3.671   1.579   0.521
43983SOL    HW133781   3.764   1.567   0.503
43983SOL    HW233782   3.663   1.671   0.546
43984SOL     OW33783   0.600   9.077  14.601
43984SOL    HW133784   0.693   9.095  14.611
43984SOL    HW233785   0.569   9.143  14.538
43985SOL     OW33786  11.480   1.786  10.934
43985SOL    HW133787  11.387   1.780  10.912
43985SOL    HW233788  11.525   1.746  10.860
43986SOL     OW33789  10.519   9.790   1.377
43986SOL    HW133790  10.611   9.764   1.368
43986SOL    HW233791  10.500   9.836   1.295
43987SOL     OW33792   7.050   8.531   7.741
43987SOL    HW133793   6.963   8.571   7.744
43987SOL    HW233794   7.097   8.570   7.815
43988SOL     OW33795  11.316   6.593   2.322
43988SOL    HW133796  11.292   6.519   2.378
43988SOL    HW233797  11.319   6.557   2.234
43989SOL     OW33798   0.209   9.712   1.236
43989SOL    HW133799   0.303   9.696   1.232
43989SOL    HW233800   0.182   9.713   1.144
43990SOL     OW33801  11.630   1.254   7.902
43990SOL    HW133802  11.709   1.290   7.942
43990SOL    HW233803  11.658   1.172   7.862
43991SOL     OW33804   3.861   5.344   6.872
43991SOL    HW133805   3.842   5.414   6.935
43991SOL    HW233806   3.914   5.281   6.921
43992SOL     OW33807   7.743   8.482  11.167
43992SOL    HW133808   7.714   8.534  11.242
43992SOL    HW233809   7.804   8.418  11.205
43993SOL     OW33810  12.363  11.128   6.423
43993SOL    HW133811  12.415  11.101   6.499
43993SOL    HW233812  12.404  11.208   6.392
43994SOL     OW33813   6.318   1.391   3.821
43994SOL    HW133814   6.352   1.339   3.748
43994SOL    HW233815   6.275   1.326   3.877
43995SOL     OW33816   0.863   4.339   5.002
43995SOL    HW133817   0.878   4.255   4.959
43995SOL    HW233818   0.771   4.336   5.029
43996SOL     OW33819  14.190  13.868   8.348
43996SOL    HW133820  14.150  13.878   8.434
43996SOL    HW233821  14.283  13.854   8.367
43997SOL     OW33822   5.631   8.275   7.899
43997SOL    HW133823   5.699   8.338   7.922
43997SOL    HW233824   5.671   8.220   7.831
43998SOL     OW33825   2.535   3.700   5.464
43998SOL    HW133826   2.628   3.724   5.466
43998SOL    HW233827   2.516   3.672   5.554
43999SOL     OW33828   0.192   9.291   0.955
43999SOL    HW133829   0.169   9.339   0.876
43999SOL    HW233830   0.263   9.341   0.994
44000SOL     OW33831   1.591  14.415  14.519
44000SOL    HW133832   1.514  14.375  14.479
44000SOL    HW233833   1.560  14.499  14.552
44001SOL     OW33834   5.087   8.455   5.373
44001SOL    HW133835   5.003   8.417   5.345
44001SOL    HW233836   5.121   8.392   5.436
44002SOL     OW33837   3.551   6.275  12.744
44002SOL    HW133838   3.589   6.356  12.710
44002SOL    HW233839   3.500   6.240  12.671
44003SOL     OW33840   6.984  11.217   0.734
44003SOL    HW133841   6.937  11.142   0.696
44003SOL    HW233842   6.927  11.248   0.804
44004SOL     OW33843  11.367  11.546  10.618
44004SOL    HW133844  11.359  11.495  10.699
44004SOL    HW233845  11.457  11.579  10.621
44005SOL     OW33846   1.203   9.240   8.951
44005SOL    HW133847   1.201   9.298   8.875
44005SOL    HW233848   1.287   9.194   8.944
44006SOL     OW33849  12.500   2.994   3.749
44006SOL    HW133850  12.458   3.024   3.830
44006SOL    HW233851  12.594   2.991   3.770
44007SOL     OW33852   9.959   8.258   3.232
44007SOL    HW133853   9.996   8.232   3.316
44007SOL    HW233854  10.035   8.280   3.178
44008SOL     OW33855   0.301   0.146   1.382
44008SOL    HW133856   0.396   0.152   1.373
44008SOL    HW233857   0.285   0.054   1.406
44009SOL     OW33858   1.148   9.461  13.390
44009SOL    HW133859   1.117   9.414  13.312
44009SOL    HW233860   1.096   9.542  13.391
44010SOL     OW33861  11.083   9.439  13.331
44010SOL    HW133862  11.165   9.435  13.282
44010SOL    HW233863  11.074   9.531  13.354
44011SOL     OW33864  13.530  12.871  12.376
44011SOL    HW133865  13.587  12.891  12.303
44011SOL    HW233866  13.523  12.775  12.375
44012SOL     OW33867  12.121  12.294   7.977
44012SOL    HW133868  12.116  12.297   8.072
44012SOL    HW233869  12.079  12.211   7.953
44013SOL     OW33870  12.977   1.436   5.812
44013SOL    HW133871  12.936   1.397   5.888
44013SOL    HW233872  12.987   1.529   5.835
44014SOL     OW33873   5.979   3.001   0.221
44014SOL    HW133874   6.045   3.070   0.228
44014SOL    HW233875   5.985   2.953   0.303
44015SOL     OW33876   5.883   3.761  10.240
44015SOL    HW133877   5.836   3.773  10.323
44015SOL    HW233878   5.917   3.672  10.244
44016SOL     OW33879   0.966   1.812   5.068
44016SOL    HW133880   1.000   1.843   4.984
44016SOL    HW233881   0.978   1.886   5.128
44017SOL     OW33882  11.485   4.057   6.890
44017SOL    HW133883  11.430   4.127   6.854
44017SOL    HW233884  11.438   3.976   6.869
44018SOL     OW33885   6.957   2.405   8.367
44018SOL    HW133886   6.881   2.353   8.341
44018SOL    HW233887   6.941   2.492   8.331
44019SOL     OW33888   8.333   4.913   6.476
44019SOL    HW133889   8.327   4.984   6.413
44019SOL    HW233890   8.421   4.877   6.464
44020SOL     OW33891   7.353   3.175   0.590
44020SOL    HW133892   7.268   3.212   0.613
44020SOL    HW233893   7.340   3.081   0.595
44021SOL     OW33894   1.270  14.429  12.928
44021SOL    HW133895   1.279  14.341  12.965
44021SOL    HW233896   1.176  14.445  12.925
44022SOL     OW33897   9.905   1.554  13.471
44022SOL    HW133898   9.949   1.554  13.386
44022SOL    HW233899   9.850   1.475  13.469
44023SOL     OW33900   7.374  13.206   2.217
44023SOL    HW133901   7.334  13.253   2.144
44023SOL    HW233902   7.303  13.197   2.281
44024SOL     OW33903  11.993   1.361  10.757
44024SOL    HW133904  12.061   1.406  10.706
44024SOL    HW233905  12.041   1.310  10.822
44025SOL     OW33906   0.838  14.590   9.125
44025SOL    HW133907   0.840  14.562   9.034
44025SOL    HW233908   0.796  14.517   9.171
44026SOL     OW33909   5.906   2.808   5.488
44026SOL    HW133910   5.856   2.889   5.480
44026SOL    HW233911   5.978   2.830   5.548
44027SOL     OW33912   6.217   7.801   2.382
44027SOL    HW133913   6.240   7.761   2.298
44027SOL    HW233914   6.142   7.750   2.413
44028SOL     OW33915   2.787   0.888   9.676
44028SOL    HW133916   2.784   0.944   9.599
44028SOL    HW233917   2.770   0.948   9.749
44029SOL     OW33918  14.779   8.344   9.395
44029SOL    HW133919  14.845   8.276   9.385
44029SOL    HW233920  14.757   8.371   9.306
44030SOL     OW33921   4.185  14.031  10.658
44030SOL    HW133922   4.090  14.032  10.651
44030SOL    HW233923   4.214  14.113  10.619
44031SOL     OW33924   5.621   7.371   8.411
44031SOL    HW133925   5.656   7.347   8.325
44031SOL    HW233926   5.663   7.455   8.431
44032SOL     OW33927  12.684   4.009   2.551
44032SOL    HW133928  12.689   4.010   2.456
44032SOL    HW233929  12.590   4.013   2.570
44033SOL     OW33930   3.166   7.062   2.975
44033SOL    HW133931   3.079   7.023   2.975
44033SOL    HW233932   3.161   7.133   2.911
44034SOL     OW33933  11.223   4.450   9.481
44034SOL    HW133934  11.309   4.422   9.514
44034SOL    HW233935  11.218   4.413   9.393
44035SOL     OW33936   0.127  13.253  11.928
44035SOL    HW133937   0.107  13.177  11.873
44035SOL    HW233938   0.202  13.294  11.884
44036SOL     OW33939  10.735   2.846   7.364
44036SOL    HW133940  10.686   2.902   7.425
44036SOL    HW233941  10.672   2.824   7.296
44037SOL     OW33942   3.642   8.491   7.676
44037SOL    HW133943   3.549   8.468   7.669
44037SOL    HW233944   3.683   8.411   7.711
44038SOL     OW33945  14.744   8.332   2.694
44038SOL    HW133946  14.823   8.349   2.745
44038SOL    HW233947  14.753   8.388   2.616
44039SOL     OW33948   2.940  13.099  12.077
44039SOL    HW133949   2.912  13.067  12.163
44039SOL    HW233950   3.036  13.093  12.079
44040SOL     OW33951   1.182   3.285   7.250
44040SOL    HW133952   1.168   3.287   7.345
44040SOL    HW233953   1.112   3.230   7.216
44041SOL     OW33954  10.825  12.192   0.228
44041SOL    HW133955  10.744  12.242   0.243
44041SOL    HW233956  10.843  12.149   0.311
44042SOL     OW33957  10.385  13.819   6.656
44042SOL    HW133958  10.419  13.730   6.646
44042SOL    HW233959  10.335  13.835   6.576
44043SOL     OW33960   8.070  11.548  13.787
44043SOL    HW133961   8.044  11.462  13.819
44043SOL    HW233962   8.141  11.530  13.725
44044SOL     OW33963  13.451   1.270  11.205
44044SOL    HW133964  13.441   1.314  11.120
44044SOL    HW233965  13.545   1.250  11.210
44045SOL     OW33966  13.141  12.131  13.655
44045SOL    HW133967  13.134  12.223  13.631
44045SOL    HW233968  13.179  12.089  13.578
44046SOL     OW33969  12.925  12.529   0.490
44046SOL    HW133970  12.857  12.502   0.428
44046SOL    HW233971  13.007  12.507   0.447
44047SOL     OW33972   9.528   1.642  13.244
44047SOL    HW133973   9.539   1.555  13.206
44047SOL    HW233974   9.510   1.626  13.336
44048SOL     OW33975  10.121  12.393   2.116
44048SOL    HW133976  10.100  12.351   2.199
44048SOL    HW233977  10.095  12.484   2.128
44049SOL     OW33978  10.549   7.205   0.556
44049SOL    HW133979  10.615   7.158   0.607
44049SOL    HW233980  10.474   7.212   0.615
44050SOL     OW33981  11.895   1.822  14.603
44050SOL    HW133982  11.923   1.854  14.688
44050SOL    HW233983  11.976   1.815  14.552
44051SOL     OW33984   3.525   4.359   3.972
44051SOL    HW133985   3.467   4.412   4.028
44051SOL    HW233986   3.612   4.393   3.990
44052SOL     OW33987   2.431   8.912   7.261
44052SOL    HW133988   2.389   8.866   7.188
44052SOL    HW233989   2.392   8.999   7.261
44053SOL     OW33990   0.114   0.878   0.598
44053SOL    HW133991   0.050   0.930   0.646
44053SOL    HW233992   0.140   0.934   0.525
44054SOL     OW33993   3.598   3.240   7.821
44054SOL    HW133994   3.527   3.269   7.879
44054SOL    HW233995   3.569   3.156   7.787
44055SOL     OW33996  10.865   6.636   3.463
44055SOL    HW133997  10.825   6.561   3.418
44055SOL    HW233998  10.791   6.682   3.503
44056SOL     OW33999  14.248  12.805  12.964
44056SOL    HW134000  14.237  12.899  12.982
44056SOL    HW234001  14.196  12.791  12.884
44057SOL     OW34002  13.339   4.157  13.474
44057SOL    HW134003  13.420   4.205  13.455
44057SOL    HW234004  13.338   4.087  13.408
44058SOL     OW34005   3.771  10.414   6.975
44058SOL    HW134006   3.710  10.483   6.948
44058SOL    HW234007   3.724  10.332   6.957
44059SOL     OW34008   8.054   9.349   3.598
44059SOL    HW134009   8.084   9.258   3.598
44059SOL    HW234010   8.135   9.401   3.594
44060SOL     OW34011   2.939   6.974  14.544
44060SOL    HW134012   2.898   6.889  14.528
44060SOL    HW234013   2.984   6.995  14.462
44061SOL     OW34014  14.686   2.116   2.127
44061SOL    HW134015  14.677   2.169   2.206
44061SOL    HW234016  14.743   2.168   2.070
44062SOL     OW34017   5.317   1.070  11.715
44062SOL    HW134018   5.258   1.037  11.783
44062SOL    HW234019   5.394   1.101  11.764
44063SOL     OW34020   7.049  13.122  10.132
44063SOL    HW134021   7.125  13.178  10.115
44063SOL    HW234022   7.047  13.111  10.227
44064SOL     OW34023  13.487  10.346   2.796
44064SOL    HW134024  13.430  10.419   2.773
44064SOL    HW234025  13.431  10.269   2.792
44065SOL     OW34026   2.180   0.946   6.852
44065SOL    HW134027   2.210   0.927   6.941
44065SOL    HW234028   2.255   0.927   6.797
44066SOL     OW34029   9.791  10.651   3.010
44066SOL    HW134030   9.769  10.744   3.017
44066SOL    HW234031   9.708  10.608   2.992
44067SOL     OW34032   5.643   8.637   3.169
44067SOL    HW134033   5.666   8.728   3.188
44067SOL    HW234034   5.719   8.602   3.124
44068SOL     OW34035  10.253  10.092   0.306
44068SOL    HW134036  10.263  10.153   0.233
44068SOL    HW234037  10.285  10.141   0.382
44069SOL     OW34038  11.978  10.456   3.914
44069SOL    HW134039  11.999  10.367   3.886
44069SOL    HW234040  11.883  10.454   3.929
44070SOL     OW34041   9.450   8.847   6.324
44070SOL    HW134042   9.444   8.758   6.359
44070SOL    HW234043   9.360   8.874   6.312
44071SOL     OW34044   0.687   0.579  14.503
44071SOL    HW134045   0.627   0.647  14.474
44071SOL    HW234046   0.632   0.516  14.549
44072SOL     OW34047   5.232  10.124   8.605
44072SOL    HW134048   5.163  10.058   8.611
44072SOL    HW234049   5.304  10.080   8.561
44073SOL     OW34050  12.877   0.310   8.979
44073SOL    HW134051  12.955   0.278   9.025
44073SOL    HW234052  12.853   0.239   8.920
44074SOL     OW34053   9.849   7.361   0.751
44074SOL    HW134054   9.768   7.412   0.742
44074SOL    HW234055   9.919   7.426   0.742
44075SOL     OW34056   6.064  12.157   2.886
44075SOL    HW134057   6.076  12.071   2.925
44075SOL    HW234058   6.025  12.139   2.800
44076SOL     OW34059   2.630  12.684  12.474
44076SOL    HW134060   2.570  12.666  12.547
44076SOL    HW234061   2.692  12.611  12.476
44077SOL     OW34062  10.653   6.751   1.278
44077SOL    HW134063  10.746   6.748   1.301
44077SOL    HW234064  10.630   6.661   1.257
44078SOL     OW34065  14.260   6.613   8.706
44078SOL    HW134066  14.353   6.596   8.692
44078SOL    HW234067  14.253   6.629   8.800
44079SOL     OW34068  13.918  13.092   2.374
44079SOL    HW134069  13.848  13.152   2.347
44079SOL    HW234070  13.903  13.013   2.323
44080SOL     OW34071   1.529   0.966   9.775
44080SOL    HW134072   1.614   0.941   9.810
44080SOL    HW234073   1.512   0.903   9.705
44081SOL     OW34074   1.724   9.273   9.939
44081SOL    HW134075   1.654   9.272  10.005
44081SOL    HW234076   1.737   9.181   9.917
44082SOL     OW34077  10.363  13.197   8.288
44082SOL    HW134078  10.382  13.257   8.216
44082SOL    HW234079  10.337  13.115   8.244
44083SOL     OW34080  12.793   4.142   5.927
44083SOL    HW134081  12.849   4.064   5.925
44083SOL    HW234082  12.852   4.215   5.910
44084SOL     OW34083   0.801   4.331  12.137
44084SOL    HW134084   0.770   4.415  12.104
44084SOL    HW234085   0.807   4.343  12.232
44085SOL     OW34086   6.447  12.550   9.430
44085SOL    HW134087   6.474  12.585   9.515
44085SOL    HW234088   6.498  12.599   9.367
44086SOL     OW34089   9.890   8.002   0.240
44086SOL    HW134090   9.930   7.953   0.311
44086SOL    HW234091   9.834   7.939   0.195
44087SOL     OW34092  12.700  10.690   5.836
44087SOL    HW134093  12.735  10.779   5.843
44087SOL    HW234094  12.774  10.634   5.861
44088SOL     OW34095   4.371  12.690  11.649
44088SOL    HW134096   4.456  12.687  11.606
44088SOL    HW234097   4.391  12.710  11.740
44089SOL     OW34098   3.454   3.854  13.246
44089SOL    HW134099   3.448   3.925  13.182
44089SOL    HW234100   3.383   3.870  13.307
44090SOL     OW34101   0.797  10.587   0.631
44090SOL    HW134102   0.828  10.588   0.540
44090SOL    HW234103   0.719  10.643   0.630
44091SOL     OW34104   4.136  12.281   4.698
44091SOL    HW134105   4.204  12.228   4.739
44091SOL    HW234106   4.118  12.238   4.615
44092SOL     OW34107  10.671   1.829   4.529
44092SOL    HW134108  10.663   1.755   4.590
44092SOL    HW234109  10.597   1.886   4.551
44093SOL     OW34110   7.237  11.041   1.578
44093SOL    HW134111   7.214  11.128   1.546
44093SOL    HW234112   7.289  11.002   1.508
44094SOL     OW34113   4.669  13.504  10.518
44094SOL    HW134114   4.608  13.576  10.534
44094SOL    HW234115   4.690  13.510  10.425
44095SOL     OW34116   9.042   2.087   2.043
44095SOL    HW134117   9.045   2.019   2.110
44095SOL    HW234118   9.133   2.098   2.016
44096SOL     OW34119   6.994  13.953   7.436
44096SOL    HW134120   7.054  13.937   7.509
44096SOL    HW234121   6.914  13.907   7.460
44097SOL     OW34122  13.465  13.557  13.153
44097SOL    HW134123  13.527  13.544  13.225
44097SOL    HW234124  13.444  13.468  13.123
44098SOL     OW34125   9.012   7.807   0.827
44098SOL    HW134126   8.996   7.805   0.921
44098SOL    HW234127   8.959   7.880   0.795
44099SOL     OW34128  11.767  14.826   7.774
44099SOL    HW134129  11.771   0.043   7.741
44099SOL    HW234130  11.834  14.779   7.725
44100SOL     OW34131   9.738   7.037   4.843
44100SOL    HW134132   9.736   7.122   4.799
44100SOL    HW234133   9.654   6.997   4.821
44101SOL     OW34134  13.632  13.974   5.938
44101SOL    HW134135  13.564  14.038   5.919
44101SOL    HW234136  13.667  13.950   5.852
44102SOL     OW34137   4.158   2.879  14.517
44102SOL    HW134138   4.102   2.956  14.521
44102SOL    HW234139   4.184   2.864  14.608
44103SOL     OW34140  14.206  12.942   5.462
44103SOL    HW134141  14.287  12.892   5.470
44103SOL    HW234142  14.220  13.020   5.517
44104SOL     OW34143   1.871   9.089   2.363
44104SOL    HW134144   1.803   9.153   2.341
44104SOL    HW234145   1.929   9.090   2.287
44105SOL     OW34146   6.158  10.471  14.024
44105SOL    HW134147   6.233  10.477  13.965
44105SOL    HW234148   6.150  10.378  14.044
44106SOL     OW34149   5.415   4.426  11.484
44106SOL    HW134150   5.499   4.399  11.520
44106SOL    HW234151   5.369   4.466  11.558
44107SOL     OW34152   3.014   5.027   2.229
44107SOL    HW134153   3.025   5.094   2.297
44107SOL    HW234154   2.942   5.060   2.175
44108SOL     OW34155   5.227   1.507  14.461
44108SOL    HW134156   5.266   1.575  14.517
44108SOL    HW234157   5.143   1.487  14.503
44109SOL     OW34158   2.830  13.884   8.719
44109SOL    HW134159   2.867  13.825   8.785
44109SOL    HW234160   2.867  13.969   8.741
44110SOL     OW34161   5.754  12.358  10.491
44110SOL    HW134162   5.838  12.353  10.537
44110SOL    HW234163   5.742  12.272  10.452
44111SOL     OW34164   3.020   2.694   6.066
44111SOL    HW134165   3.005   2.613   6.114
44111SOL    HW234166   2.987   2.762   6.125
44112SOL     OW34167   4.087  11.599  10.890
44112SOL    HW134168   4.144  11.577  10.964
44112SOL    HW234169   4.139  11.580  10.813
44113SOL     OW34170  10.801   9.767  13.003
44113SOL    HW134171  10.859   9.819  12.948
44113SOL    HW234172  10.750   9.831  13.052
44114SOL     OW34173   7.717   5.662   0.420
44114SOL    HW134174   7.771   5.583   0.427
44114SOL    HW234175   7.772   5.732   0.455
44115SOL     OW34176  13.287   8.211   3.901
44115SOL    HW134177  13.323   8.184   3.817
44115SOL    HW234178  13.363   8.239   3.952
44116SOL     OW34179   0.071   7.330   0.106
44116SOL    HW134180   0.046   7.245   0.142
44116SOL    HW234181   0.000   7.389   0.133
44117SOL     OW34182   5.575   4.366  13.239
44117SOL    HW134183   5.660   4.347  13.200
44117SOL    HW234184   5.543   4.443  13.191
44118SOL     OW34185   4.055   2.255  13.530
44118SOL    HW134186   4.006   2.239  13.611
44118SOL    HW234187   4.118   2.324  13.553
44119SOL     OW34188  12.326   1.019   7.167
44119SOL    HW134189  12.349   0.933   7.202
44119SOL    HW234190  12.372   1.082   7.223
44120SOL     OW34191   2.107   2.375  13.148
44120SOL    HW134192   2.184   2.324  13.121
44120SOL    HW234193   2.143   2.461  13.170
44121SOL     OW34194   9.949   4.878  12.443
44121SOL    HW134195  10.043   4.886  12.460
44121SOL    HW234196   9.941   4.889  12.348
44122SOL     OW34197   8.458   3.867  14.324
44122SOL    HW134198   8.446   3.796  14.260
44122SOL    HW234199   8.520   3.831  14.387
44123SOL     OW34200  11.538   1.137   9.194
44123SOL    HW134201  11.619   1.161   9.149
44123SOL    HW234202  11.557   1.149   9.287
44124SOL     OW34203   2.382   9.285  13.879
44124SOL    HW134204   2.412   9.337  13.953
44124SOL    HW234205   2.293   9.258  13.903
44125SOL     OW34206  12.979   1.759  14.787
44125SOL    HW134207  13.010   1.724  14.704
44125SOL    HW234208  13.034   1.716  14.853
44126SOL     OW34209   2.760   5.529   0.346
44126SOL    HW134210   2.708   5.513   0.268
44126SOL    HW234211   2.849   5.543   0.313
44127SOL     OW34212   5.064   5.049   4.723
44127SOL    HW134213   5.023   4.968   4.755
44127SOL    HW234214   5.064   5.107   4.800
44128SOL     OW34215  10.438  13.672  10.014
44128SOL    HW134216  10.464  13.637   9.929
44128SOL    HW234217  10.447  13.767  10.005
44129SOL     OW34218   2.143  10.002   4.925
44129SOL    HW134219   2.176  10.065   4.989
44129SOL    HW234220   2.104  10.056   4.857
44130SOL     OW34221  10.056   8.030   2.900
44130SOL    HW134222   9.986   7.966   2.915
44130SOL    HW234223  10.016   8.115   2.922
44131SOL     OW34224   1.289   3.465  12.070
44131SOL    HW134225   1.274   3.487  11.978
44131SOL    HW234226   1.284   3.369  12.072
44132SOL     OW34227   1.256  12.575   4.708
44132SOL    HW134228   1.201  12.643   4.671
44132SOL    HW234229   1.199  12.528   4.769
44133SOL     OW34230   0.512  10.048   4.241
44133SOL    HW134231   0.420  10.070   4.258
44133SOL    HW234232   0.559  10.129   4.256
44134SOL     OW34233  12.359   9.629   9.759
44134SOL    HW134234  12.328   9.616   9.669
44134SOL    HW234235  12.426   9.562   9.772
44135SOL     OW34236   9.521   1.558   9.624
44135SOL    HW134237   9.572   1.638   9.630
44135SOL    HW234238   9.542   1.510   9.704
44136SOL     OW34239   3.285   9.730   8.220
44136SOL    HW134240   3.260   9.653   8.169
44136SOL    HW234241   3.255   9.711   8.308
44137SOL     OW34242   4.389   0.847  10.880
44137SOL    HW134243   4.337   0.927  10.869
44137SOL    HW234244   4.478   0.873  10.855
44138SOL     OW34245   0.214   1.842   1.605
44138SOL    HW134246   0.171   1.875   1.527
44138SOL    HW234247   0.294   1.894   1.613
44139SOL     OW34248  11.811  11.363   9.953
44139SOL    HW134249  11.759  11.433   9.993
44139SOL    HW234250  11.749  11.293   9.936
44140SOL     OW34251  13.311   4.036   4.391
44140SOL    HW134252  13.250   3.975   4.348
44140SOL    HW234253  13.358   4.077   4.318
44141SOL     OW34254   6.339   5.635  13.228
44141SOL    HW134255   6.387   5.676  13.300
44141SOL    HW234256   6.336   5.542  13.251
44142SOL     OW34257   3.208   9.124   9.088
44142SOL    HW134258   3.152   9.197   9.061
44142SOL    HW234259   3.208   9.064   9.014
44143SOL     OW34260   5.632  10.552  14.552
44143SOL    HW134261   5.603  10.627  14.500
44143SOL    HW234262   5.552  10.519  14.592
44144SOL     OW34263   1.241  14.032   8.875
44144SOL    HW134264   1.248  13.964   8.809
44144SOL    HW234265   1.324  14.028   8.923
44145SOL     OW34266   5.046   1.952  14.221
44145SOL    HW134267   5.126   1.978  14.267
44145SOL    HW234268   5.015   1.876  14.270
44146SOL     OW34269   6.088   2.812   0.424
44146SOL    HW134270   6.133   2.737   0.463
44146SOL    HW234271   6.153   2.851   0.366
44147SOL     OW34272  13.014  13.946   2.253
44147SOL    HW134273  13.014  13.912   2.164
44147SOL    HW234274  13.101  13.924   2.287
44148SOL     OW34275   8.461   3.344   2.612
44148SOL    HW134276   8.420   3.339   2.699
44148SOL    HW234277   8.470   3.253   2.585
44149SOL     OW34278  11.859   4.678   6.629
44149SOL    HW134279  11.888   4.591   6.602
44149SOL    HW234280  11.772   4.663   6.668
44150SOL     OW34281   2.797   6.562   0.560
44150SOL    HW134282   2.742   6.486   0.576
44150SOL    HW234283   2.748   6.614   0.495
44151SOL     OW34284   3.245   8.428   7.218
44151SOL    HW134285   3.166   8.439   7.272
44151SOL    HW234286   3.221   8.464   7.133
44152SOL     OW34287   6.959  11.756   2.306
44152SOL    HW134288   6.952  11.834   2.361
44152SOL    HW234289   6.916  11.779   2.224
44153SOL     OW34290   0.868   8.964   4.606
44153SOL    HW134291   0.935   9.007   4.659
44153SOL    HW234292   0.791   9.021   4.614
44154SOL     OW34293   2.190   1.629   9.126
44154SOL    HW134294   2.253   1.700   9.142
44154SOL    HW234295   2.238   1.550   9.149
44155SOL     OW34296   1.612   8.740  10.605
44155SOL    HW134297   1.547   8.737  10.536
44155SOL    HW234298   1.584   8.674  10.668
44156SOL     OW34299   6.125  14.361  12.662
44156SOL    HW134300   6.128  14.426  12.733
44156SOL    HW234301   6.105  14.279  12.705
44157SOL     OW34302   2.997  14.817   1.107
44157SOL    HW134303   2.916  14.866   1.091
44157SOL    HW234304   2.967  14.732   1.140
44158SOL     OW34305  14.136  10.599  11.263
44158SOL    HW134306  14.199  10.614  11.333
44158SOL    HW234307  14.057  10.568  11.308
44159SOL     OW34308   1.637   4.544   3.250
44159SOL    HW134309   1.690   4.616   3.284
44159SOL    HW234310   1.582   4.584   3.183
44160SOL     OW34311   8.895   2.366   2.959
44160SOL    HW134312   8.867   2.438   3.015
44160SOL    HW234313   8.991   2.365   2.968
44161SOL     OW34314   5.822   1.818   0.839
44161SOL    HW134315   5.877   1.743   0.861
44161SOL    HW234316   5.733   1.782   0.832
44162SOL     OW34317  10.952  12.164  13.336
44162SOL    HW134318  11.001  12.141  13.416
44162SOL    HW234319  10.917  12.080  13.305
44163SOL     OW34320  14.395   2.625   5.344
44163SOL    HW134321  14.453   2.646   5.417
44163SOL    HW234322  14.404   2.699   5.284
44164SOL     OW34323   6.420   9.689   0.424
44164SOL    HW134324   6.474   9.679   0.503
44164SOL    HW234325   6.481   9.674   0.351
44165SOL     OW34326  12.942   0.981   6.785
44165SOL    HW134327  12.958   1.032   6.865
44165SOL    HW234328  13.002   0.906   6.793
44166SOL     OW34329  10.246  13.239  14.640
44166SOL    HW134330  10.236  13.290  14.559
44166SOL    HW234331  10.228  13.302  14.710
44167SOL     OW34332  12.864  11.619  10.392
44167SOL    HW134333  12.863  11.624  10.296
44167SOL    HW234334  12.895  11.530  10.411
44168SOL     OW34335  11.095  13.977  14.281
44168SOL    HW134336  11.153  13.901  14.283
44168SOL    HW234337  11.151  14.049  14.250
44169SOL     OW34338   3.183   5.265  11.249
44169SOL    HW134339   3.191   5.176  11.285
44169SOL    HW234340   3.255   5.313  11.290
44170SOL     OW34341   0.069   6.512   6.254
44170SOL    HW134342   0.146   6.548   6.210
44170SOL    HW234343   0.100   6.429   6.290
44171SOL     OW34344   4.163  10.553   3.386
44171SOL    HW134345   4.116  10.471   3.370
44171SOL    HW234346   4.114  10.618   3.336
44172SOL     OW34347  10.945   8.451  12.619
44172SOL    HW134348  11.013   8.509  12.586
44172SOL    HW234349  10.993   8.382  12.666
44173SOL     OW34350   8.122   5.012  12.360
44173SOL    HW134351   8.045   5.063  12.385
44173SOL    HW234352   8.086   4.934  12.318
44174SOL     OW34353  11.528  12.436  14.645
44174SOL    HW134354  11.552  12.383  14.570
44174SOL    HW234355  11.500  12.520  14.608
44175SOL     OW34356   5.344  10.549  14.376
44175SOL    HW134357   5.355  10.633  14.331
44175SOL    HW234358   5.261  10.557  14.422
44176SOL     OW34359   8.344   1.395   9.457
44176SOL    HW134360   8.353   1.345   9.538
44176SOL    HW234361   8.431   1.433   9.442
44177SOL     OW34362   4.914  14.624   7.401
44177SOL    HW134363   4.895  14.602   7.492
44177SOL    HW234364   5.002  14.589   7.386
44178SOL     OW34365  13.967   7.006  12.797
44178SOL    HW134366  13.891   6.953  12.824
44178SOL    HW234367  14.038   6.976  12.854
44179SOL     OW34368   7.837   5.289   2.742
44179SOL    HW134369   7.815   5.239   2.821
44179SOL    HW234370   7.924   5.257   2.718
44180SOL     OW34371   0.738   9.073   2.069
44180SOL    HW134372   0.690   9.144   2.026
44180SOL    HW234373   0.670   9.020   2.110
44181SOL     OW34374  13.054  12.856   4.091
44181SOL    HW134375  13.072  12.763   4.081
44181SOL    HW234376  13.084  12.895   4.009
44182SOL     OW34377   3.150   7.771   7.275
44182SOL    HW134378   3.133   7.861   7.304
44182SOL    HW234379   3.244   7.769   7.256
44183SOL     OW34380   5.412   0.512   1.368
44183SOL    HW134381   5.451   0.492   1.453
44183SOL    HW234382   5.379   0.601   1.378
44184SOL     OW34383   6.715   5.220   3.990
44184SOL    HW134384   6.674   5.306   3.997
44184SOL    HW234385   6.754   5.220   3.902
44185SOL     OW34386   1.409  11.620  11.407
44185SOL    HW134387   1.326  11.668  11.406
44185SOL    HW234388   1.437  11.622  11.499
44186SOL     OW34389   5.625   4.052  11.692
44186SOL    HW134390   5.655   4.143  11.686
44186SOL    HW234391   5.640   4.028  11.784
44187SOL     OW34392   2.335   8.349   6.525
44187SOL    HW134393   2.418   8.310   6.553
44187SOL    HW234394   2.306   8.400   6.600
44188SOL     OW34395   6.883   6.733   3.593
44188SOL    HW134396   6.964   6.757   3.547
44188SOL    HW234397   6.851   6.656   3.546
44189SOL     OW34398   6.858   4.953   6.332
44189SOL    HW134399   6.849   4.911   6.417
44189SOL    HW234400   6.951   4.942   6.310
44190SOL     OW34401   1.389   0.687   9.116
44190SOL    HW134402   1.332   0.763   9.103
44190SOL    HW234403   1.387   0.671   9.210
44191SOL     OW34404   0.246  10.489   6.156
44191SOL    HW134405   0.340  10.472   6.159
44191SOL    HW234406   0.209  10.413   6.109
44192SOL     OW34407  10.714   3.531  10.845
44192SOL    HW134408  10.651   3.547  10.775
44192SOL    HW234409  10.722   3.436  10.850
44193SOL     OW34410   6.309   3.560   6.209
44193SOL    HW134411   6.388   3.522   6.248
44193SOL    HW234412   6.336   3.587   6.121
44194SOL     OW34413   6.595  13.711   0.934
44194SOL    HW134414   6.657  13.778   0.906
44194SOL    HW234415   6.637  13.628   0.914
44195SOL     OW34416  14.168   2.945  13.981
44195SOL    HW134417  14.089   2.892  13.992
44195SOL    HW234418  14.137   3.036  13.989
44196SOL     OW34419  13.585   5.759   4.913
44196SOL    HW134420  13.532   5.816   4.857
44196SOL    HW234421  13.576   5.672   4.874
44197SOL     OW34422  14.466   2.447   0.520
44197SOL    HW134423  14.424   2.430   0.435
44197SOL    HW234424  14.542   2.389   0.521
44198SOL     OW34425  14.592   7.103   0.174
44198SOL    HW134426  14.526   7.036   0.194
44198SOL    HW234427  14.673   7.053   0.162
44199SOL     OW34428   7.339  10.891   8.688
44199SOL    HW134429   7.348  10.796   8.679
44199SOL    HW234430   7.406  10.927   8.631
44200SOL     OW34431   5.606   8.868  14.513
44200SOL    HW134432   5.696   8.841  14.497
44200SOL    HW234433   5.613   8.937  14.579
44201SOL     OW34434   5.953   4.429   7.811
44201SOL    HW134435   5.917   4.340   7.808
44201SOL    HW234436   6.016   4.427   7.883
44202SOL     OW34437   0.104   3.823   3.967
44202SOL    HW134438   0.178   3.780   3.925
44202SOL    HW234439   0.034   3.820   3.902
44203SOL     OW34440   7.452   6.829   6.112
44203SOL    HW134441   7.399   6.828   6.192
44203SOL    HW234442   7.479   6.738   6.100
44204SOL     OW34443  10.184   9.974   6.050
44204SOL    HW134444  10.223  10.021   6.124
44204SOL    HW234445  10.116   9.920   6.090
44205SOL     OW34446   1.926   7.018   2.694
44205SOL    HW134447   1.863   7.051   2.758
44205SOL    HW234448   1.887   7.040   2.609
44206SOL     OW34449   6.318   6.840  13.338
44206SOL    HW134450   6.268   6.768  13.375
44206SOL    HW234451   6.316   6.908  13.405
44207SOL     OW34452   5.264   1.088   1.774
44207SOL    HW134453   5.195   1.022   1.772
44207SOL    HW234454   5.277   1.112   1.683
44208SOL     OW34455   7.850  13.816   9.074
44208SOL    HW134456   7.778  13.846   9.128
44208SOL    HW234457   7.815  13.740   9.027
44209SOL     OW34458   1.395   5.603   5.894
44209SOL    HW134459   1.388   5.645   5.808
44209SOL    HW234460   1.489   5.603   5.913
44210SOL     OW34461  13.212  11.609   1.493
44210SOL    HW134462  13.180  11.689   1.451
44210SOL    HW234463  13.306  11.623   1.502
44211SOL     OW34464  13.161   3.453   0.848
44211SOL    HW134465  13.238   3.403   0.819
44211SOL    HW234466  13.198   3.529   0.893
44212SOL     OW34467   7.115   8.032   0.474
44212SOL    HW134468   7.122   8.075   0.389
44212SOL    HW234469   7.148   8.096   0.537
44213SOL     OW34470   5.530   3.083   6.318
44213SOL    HW134471   5.541   2.990   6.298
44213SOL    HW234472   5.619   3.114   6.337
44214SOL     OW34473   1.771   4.393  12.081
44214SOL    HW134474   1.761   4.379  12.175
44214SOL    HW234475   1.784   4.488  12.073
44215SOL     OW34476   8.211   2.504   6.739
44215SOL    HW134477   8.247   2.521   6.652
44215SOL    HW234478   8.287   2.483   6.793
44216SOL     OW34479   8.321  13.802  13.973
44216SOL    HW134480   8.335  13.725  14.028
44216SOL    HW234481   8.408  13.840  13.964
44217SOL     OW34482   2.360  11.032  12.081
44217SOL    HW134483   2.284  11.057  12.028
44217SOL    HW234484   2.361  11.094  12.154
44218SOL     OW34485   9.823   6.716   0.070
44218SOL    HW134486   9.807   6.729  14.848
44218SOL    HW234487   9.911   6.679   0.074
44219SOL     OW34488   2.706   0.380   5.211
44219SOL    HW134489   2.767   0.435   5.259
44219SOL    HW234490   2.633   0.367   5.271
44220SOL     OW34491   9.374  12.334   7.222
44220SOL    HW134492   9.349  12.272   7.154
44220SOL    HW234493   9.353  12.290   7.304
44221SOL     OW34494   8.670   0.728   4.037
44221SOL    HW134495   8.675   0.720   4.132
44221SOL    HW234496   8.675   0.638   4.005
44222SOL     OW34497   1.077   7.112   0.072
44222SOL    HW134498   0.985   7.110   0.100
44222SOL    HW234499   1.072   7.135  14.851
44223SOL     OW34500   6.881  10.756  12.720
44223SOL    HW134501   6.857  10.679  12.668
44223SOL    HW234502   6.876  10.829  12.659
44224SOL     OW34503   2.485   4.243   9.436
44224SOL    HW134504   2.425   4.295   9.381
44224SOL    HW234505   2.509   4.302   9.508
44225SOL     OW34506  14.593  13.362   8.255
44225SOL    HW134507  14.535  13.386   8.327
44225SOL    HW234508  14.681  13.373   8.290
44226SOL     OW34509   3.842   1.082   8.575
44226SOL    HW134510   3.773   1.148   8.578
44226SOL    HW234511   3.798   1.000   8.594
44227SOL     OW34512   5.000  11.641   4.748
44227SOL    HW134513   4.917  11.689   4.740
44227SOL    HW234514   5.031  11.661   4.836
44228SOL     OW34515   4.341   2.503   3.220
44228SOL    HW134516   4.294   2.562   3.279
44228SOL    HW234517   4.292   2.421   3.225
44229SOL     OW34518   9.247   2.615   9.601
44229SOL    HW134519   9.246   2.710   9.584
44229SOL    HW234520   9.164   2.599   9.645
44230SOL     OW34521   5.090   9.882   8.753
44230SOL    HW134522   5.086   9.838   8.668
44230SOL    HW234523   5.078   9.812   8.817
44231SOL     OW34524  13.526   7.086   3.208
44231SOL    HW134525  13.587   7.076   3.281
44231SOL    HW234526  13.530   7.180   3.186
44232SOL     OW34527   4.061   8.702  14.098
44232SOL    HW134528   4.146   8.726  14.060
44232SOL    HW234529   4.076   8.701  14.192
44233SOL     OW34530   1.767   2.121   7.024
44233SOL    HW134531   1.686   2.143   6.979
44233SOL    HW234532   1.747   2.131   7.117
44234SOL     OW34533   3.364   7.018   4.319
44234SOL    HW134534   3.313   6.948   4.279
44234SOL    HW234535   3.401   6.979   4.398
44235SOL     OW34536  10.400   7.199   8.250
44235SOL    HW134537  10.472   7.174   8.308
44235SOL    HW234538  10.422   7.288   8.222
44236SOL     OW34539   7.553  11.162   5.347
44236SOL    HW134540   7.574  11.092   5.409
44236SOL    HW234541   7.482  11.126   5.294
44237SOL     OW34542   6.338   3.266   8.127
44237SOL    HW134543   6.361   3.227   8.043
44237SOL    HW234544   6.248   3.296   8.115
44238SOL     OW34545  13.736   1.997   2.551
44238SOL    HW134546  13.720   1.930   2.485
44238SOL    HW234547  13.823   2.030   2.531
44239SOL     OW34548   8.722   8.310  12.322
44239SOL    HW134549   8.681   8.355  12.395
44239SOL    HW234550   8.799   8.267  12.360
44240SOL     OW34551   9.419  12.664  11.949
44240SOL    HW134552   9.339  12.662  12.001
44240SOL    HW234553   9.479  12.718  12.001
44241SOL     OW34554   1.383   3.918   0.565
44241SOL    HW134555   1.403   3.957   0.651
44241SOL    HW234556   1.405   3.987   0.502
44242SOL     OW34557   1.339   4.608   3.878
44242SOL    HW134558   1.367   4.643   3.963
44242SOL    HW234559   1.387   4.525   3.870
44243SOL     OW34560   3.012  14.112   5.693
44243SOL    HW134561   3.100  14.126   5.728
44243SOL    HW234562   2.954  14.122   5.768
44244SOL     OW34563   9.904   2.069  14.289
44244SOL    HW134564   9.912   1.975  14.272
44244SOL    HW234565   9.975   2.088  14.350
44245SOL     OW34566   2.785  12.666   4.060
44245SOL    HW134567   2.816  12.577   4.049
44245SOL    HW234568   2.705  12.671   4.007
44246SOL     OW34569   5.536   3.408   1.726
44246SOL    HW134570   5.472   3.469   1.763
44246SOL    HW234571   5.615   3.423   1.777
44247SOL     OW34572  12.515  11.784  10.334
44247SOL    HW134573  12.429  11.769  10.373
44247SOL    HW234574  12.498  11.839  10.258
44248SOL     OW34575   8.663   7.249  10.553
44248SOL    HW134576   8.711   7.265  10.471
44248SOL    HW234577   8.630   7.335  10.578
44249SOL     OW34578   7.091   0.089  13.570
44249SOL    HW134579   7.185   0.105  13.582
44249SOL    HW234580   7.064   0.044  13.649
44250SOL     OW34581   5.947   2.407  11.078
44250SOL    HW134582   5.907   2.456  11.150
44250SOL    HW234583   5.874   2.358  11.039
44251SOL     OW34584   8.461  13.532   5.976
44251SOL    HW134585   8.521  13.482   5.920
44251SOL    HW234586   8.479  13.624   5.955
44252SOL     OW34587  14.450   4.951  11.206
44252SOL    HW134588  14.463   5.039  11.242
44252SOL    HW234589  14.486   4.892  11.272
44253SOL     OW34590   0.142  12.526   4.594
44253SOL    HW134591   0.110  12.614   4.614
44253SOL    HW234592   0.066  12.470   4.602
44254SOL     OW34593  12.773  14.060   1.251
44254SOL    HW134594  12.770  14.144   1.297
44254SOL    HW234595  12.855  14.063   1.202
44255SOL     OW34596   0.319   7.687  11.825
44255SOL    HW134597   0.405   7.645  11.825
44255SOL    HW234598   0.295   7.694  11.917
44256SOL     OW34599   9.361   8.160  12.416
44256SOL    HW134600   9.394   8.203  12.495
44256SOL    HW234601   9.409   8.077  12.413
44257SOL     OW34602   1.851  10.210  13.280
44257SOL    HW134603   1.854  10.306  13.278
44257SOL    HW234604   1.782  10.189  13.342
44258SOL     OW34605  11.565   0.783  10.059
44258SOL    HW134606  11.569   0.778   9.964
44258SOL    HW234607  11.545   0.875  10.078
44259SOL     OW34608  14.844   1.021   8.387
44259SOL    HW134609   0.031   1.096   8.393
44259SOL    HW234610  14.859   0.972   8.468
44260SOL     OW34611  12.851   1.895   3.507
44260SOL    HW134612  12.913   1.846   3.561
44260SOL    HW234613  12.897   1.908   3.424
44261SOL     OW34614   1.455   9.852   9.211
44261SOL    HW134615   1.549   9.858   9.231
44261SOL    HW234616   1.451   9.791   9.138
44262SOL     OW34617  13.050   5.320   6.891
44262SOL    HW134618  13.017   5.410   6.894
44262SOL    HW234619  13.033   5.285   6.978
44263SOL     OW34620   5.188   9.441   2.542
44263SOL    HW134621   5.223   9.409   2.625
44263SOL    HW234622   5.229   9.526   2.529
44264SOL     OW34623  11.607  14.078  12.285
44264SOL    HW134624  11.597  14.078  12.381
44264SOL    HW234625  11.617  14.170  12.262
44265SOL     OW34626   0.975   3.812   2.685
44265SOL    HW134627   1.042   3.876   2.662
44265SOL    HW234628   0.900   3.835   2.631
44266SOL     OW34629  13.122  11.456   2.920
44266SOL    HW134630  13.089  11.501   2.842
44266SOL    HW234631  13.211  11.487   2.930
44267SOL     OW34632  13.423   9.779   1.788
44267SOL    HW134633  13.383   9.859   1.820
44267SOL    HW234634  13.516   9.789   1.809
44268SOL     OW34635   3.997   4.949   4.410
44268SOL    HW134636   4.034   5.019   4.357
44268SOL    HW234637   3.907   4.977   4.427
44269SOL     OW34638  10.445   7.520  11.869
44269SOL    HW134639  10.485   7.601  11.835
44269SOL    HW234640  10.515   7.454  11.861
44270SOL     OW34641   7.726  13.832   6.634
44270SOL    HW134642   7.664  13.890   6.589
44270SOL    HW234643   7.679  13.750   6.644
44271SOL     OW34644   8.001  10.259   2.955
44271SOL    HW134645   8.069  10.196   2.974
44271SOL    HW234646   8.042  10.345   2.970
44272SOL     OW34647  11.238   7.489   4.088
44272SOL    HW134648  11.226   7.576   4.127
44272SOL    HW234649  11.323   7.494   4.045
44273SOL     OW34650  10.987  10.674   2.662
44273SOL    HW134651  11.078  10.688   2.688
44273SOL    HW234652  10.937  10.680   2.743
44274SOL     OW34653   3.010   8.317  13.766
44274SOL    HW134654   3.061   8.242  13.737
44274SOL    HW234655   2.942   8.327  13.700
44275SOL     OW34656   5.265  13.803  14.188
44275SOL    HW134657   5.278  13.714  14.221
44275SOL    HW234658   5.309  13.859  14.253
44276SOL     OW34659   3.357   0.108   7.724
44276SOL    HW134660   3.311   0.055   7.660
44276SOL    HW234661   3.365   0.194   7.684
44277SOL     OW34662  12.577  11.441   1.313
44277SOL    HW134663  12.566  11.436   1.218
44277SOL    HW234664  12.488  11.447   1.347
44278SOL     OW34665   8.935   8.582  14.781
44278SOL    HW134666   8.917   8.572   0.002
44278SOL    HW234667   8.857   8.625  14.746
44279SOL     OW34668   8.671   8.538   0.704
44279SOL    HW134669   8.645   8.555   0.794
44279SOL    HW234670   8.746   8.596   0.690
44280SOL     OW34671  13.701   1.496  12.358
44280SOL    HW134672  13.778   1.540  12.395
44280SOL    HW234673  13.735   1.443  12.286
44281SOL     OW34674   6.195  10.487  12.160
44281SOL    HW134675   6.159  10.575  12.178
44281SOL    HW234676   6.137  10.428  12.208
44282SOL     OW34677   9.114   5.081  11.540
44282SOL    HW134678   9.074   5.145  11.481
44282SOL    HW234679   9.170   5.028  11.484
44283SOL     OW34680   4.628   5.506   5.252
44283SOL    HW134681   4.604   5.518   5.343
44283SOL    HW234682   4.569   5.438   5.219
44284SOL     OW34683  11.730   8.636  13.318
44284SOL    HW134684  11.777   8.712  13.352
44284SOL    HW234685  11.651   8.629  13.373
44285SOL     OW34686  11.265   5.685  11.436
44285SOL    HW134687  11.190   5.742  11.455
44285SOL    HW234688  11.304   5.666  11.521
44286SOL     OW34689   2.212  12.736  12.434
44286SOL    HW134690   2.255  12.821  12.444
44286SOL    HW234691   2.260  12.677  12.491
44287SOL     OW34692   0.557  12.387   4.557
44287SOL    HW134693   0.631  12.353   4.507
44287SOL    HW234694   0.499  12.426   4.491
44288SOL     OW34695   7.224   3.254   5.458
44288SOL    HW134696   7.303   3.200   5.447
44288SOL    HW234697   7.250   3.321   5.521
44289SOL     OW34698  14.613  11.329  14.236
44289SOL    HW134699  14.621  11.281  14.154
44289SOL    HW234700  14.703  11.339  14.267
44290SOL     OW34701  14.142   2.357   2.142
44290SOL    HW134702  14.218   2.311   2.107
44290SOL    HW234703  14.177   2.408   2.215
44291SOL     OW34704   7.038   5.535  10.912
44291SOL    HW134705   6.945   5.554  10.900
44291SOL    HW234706   7.063   5.585  10.990
44292SOL     OW34707   5.936   3.972   7.729
44292SOL    HW134708   5.958   3.941   7.641
44292SOL    HW234709   5.880   3.904   7.766
44293SOL     OW34710   2.172  13.938   3.245
44293SOL    HW134711   2.244  13.925   3.307
44293SOL    HW234712   2.206  13.903   3.162
44294SOL     OW34713  13.607   2.829   1.236
44294SOL    HW134714  13.634   2.886   1.164
44294SOL    HW234715  13.635   2.741   1.209
44295SOL     OW34716   1.472   3.328   3.979
44295SOL    HW134717   1.538   3.307   4.045
44295SOL    HW234718   1.488   3.420   3.958
44296SOL     OW34719   5.347  11.737   0.489
44296SOL    HW134720   5.362  11.820   0.534
44296SOL    HW234721   5.253  11.734   0.474
44297SOL     OW34722   0.929   4.564   6.292
44297SOL    HW134723   0.937   4.495   6.225
44297SOL    HW234724   0.868   4.627   6.254
44298SOL     OW34725   1.586   0.496   3.102
44298SOL    HW134726   1.663   0.498   3.158
44298SOL    HW234727   1.512   0.490   3.163
44299SOL     OW34728   2.934   4.870   9.729
44299SOL    HW134729   2.902   4.866   9.819
44299SOL    HW234730   3.017   4.918   9.736
44300SOL     OW34731  10.604   3.679   1.795
44300SOL    HW134732  10.625   3.652   1.885
44300SOL    HW234733  10.539   3.748   1.805
44301SOL     OW34734   2.341   9.583   2.276
44301SOL    HW134735   2.398   9.560   2.349
44301SOL    HW234736   2.390   9.650   2.227
44302SOL     OW34737  12.279  11.625   5.993
44302SOL    HW134738  12.224  11.701   5.974
44302SOL    HW234739  12.369  11.658   5.984
44303SOL     OW34740   8.093  12.870   2.532
44303SOL    HW134741   8.155  12.899   2.599
44303SOL    HW234742   8.043  12.949   2.511
44304SOL     OW34743   3.083   3.613   8.645
44304SOL    HW134744   3.034   3.535   8.618
44304SOL    HW234745   3.103   3.598   8.737
44305SOL     OW34746   0.309  10.464   8.845
44305SOL    HW134747   0.328  10.547   8.890
44305SOL    HW234748   0.374  10.403   8.879
44306SOL     OW34749  10.735  11.570   2.931
44306SOL    HW134750  10.746  11.559   3.025
44306SOL    HW234751  10.739  11.481   2.896
44307SOL     OW34752  10.806  10.487  11.471
44307SOL    HW134753  10.875  10.434  11.431
44307SOL    HW234754  10.725  10.453  11.434
44308SOL     OW34755   2.834   4.335   6.003
44308SOL    HW134756   2.896   4.356   5.933
44308SOL    HW234757   2.782   4.263   5.968
44309SOL     OW34758   0.932   4.621  12.108
44309SOL    HW134759   0.866   4.678  12.148
44309SOL    HW234760   0.984   4.589  12.182
44310SOL     OW34761  10.989   0.072   6.846
44310SOL    HW134762  11.067   0.074   6.901
44310SOL    HW234763  10.925   0.022   6.897
44311SOL     OW34764   8.997   7.101  10.214
44311SOL    HW134765   8.993   7.061  10.301
44311SOL    HW234766   9.090   7.107  10.195
44312SOL     OW34767  14.772  12.855   4.306
44312SOL    HW134768  14.814  12.921   4.251
44312SOL    HW234769  14.714  12.905   4.364
44313SOL     OW34770   1.760   4.003   0.274
44313SOL    HW134771   1.782   4.078   0.330
44313SOL    HW234772   1.836   3.945   0.282
44314SOL     OW34773   9.363  10.923  12.590
44314SOL    HW134774   9.444  10.956  12.630
44314SOL    HW234775   9.381  10.925  12.496
44315SOL     OW34776   2.375   5.478   7.796
44315SOL    HW134777   2.329   5.544   7.743
44315SOL    HW234778   2.342   5.491   7.885
44316SOL     OW34779  12.969  14.691  13.882
44316SOL    HW134780  13.060  14.669  13.864
44316SOL    HW234781  12.971  14.740  13.964
44317SOL     OW34782   7.808   2.585  14.735
44317SOL    HW134783   7.798   2.502  14.688
44317SOL    HW234784   7.887   2.573  14.788
44318SOL     OW34785  12.067   2.248   6.716
44318SOL    HW134786  11.996   2.312   6.726
44318SOL    HW234787  12.139   2.297   6.676
44319SOL     OW34788  10.913   9.567   9.377
44319SOL    HW134789  10.901   9.527   9.463
44319SOL    HW234790  10.950   9.498   9.323
44320SOL     OW34791   4.879  10.313   3.779
44320SOL    HW134792   4.955  10.336   3.832
44320SOL    HW234793   4.840  10.239   3.825
44321SOL     OW34794   7.187   9.144   3.580
44321SOL    HW134795   7.242   9.074   3.543
44321SOL    HW234796   7.245   9.220   3.583
44322SOL     OW34797   3.666   8.956   3.459
44322SOL    HW134798   3.594   9.012   3.431
44322SOL    HW234799   3.689   8.904   3.382
44323SOL     OW34800  12.280   8.202  13.007
44323SOL    HW134801  12.216   8.201  12.936
44323SOL    HW234802  12.361   8.233  12.966
44324SOL     OW34803   3.600   0.719   9.615
44324SOL    HW134804   3.630   0.780   9.546
44324SOL    HW234805   3.644   0.637   9.595
44325SOL     OW34806   1.528   5.628  11.139
44325SOL    HW134807   1.590   5.674  11.083
44325SOL    HW234808   1.442   5.648  11.102
44326SOL     OW34809   0.568   9.337   7.759
44326SOL    HW134810   0.538   9.282   7.687
44326SOL    HW234811   0.510   9.316   7.832
44327SOL     OW34812   3.991   8.886   4.887
44327SOL    HW134813   4.011   8.904   4.979
44327SOL    HW234814   3.973   8.792   4.885
44328SOL     OW34815   5.130   5.536   0.924
44328SOL    HW134816   5.037   5.536   0.948
44328SOL    HW234817   5.130   5.554   0.830
44329SOL     OW34818   5.301   1.206   5.408
44329SOL    HW134819   5.231   1.222   5.344
44329SOL    HW234820   5.262   1.149   5.473
44330SOL     OW34821   3.092   6.473   9.054
44330SOL    HW134822   3.043   6.455   9.134
44330SOL    HW234823   3.126   6.388   9.026
44331SOL     OW34824   4.781   8.308   5.871
44331SOL    HW134825   4.763   8.287   5.779
44331SOL    HW234826   4.701   8.282   5.918
44332SOL     OW34827   1.685   0.080   5.715
44332SOL    HW134828   1.702  14.862   5.742
44332SOL    HW234829   1.594   0.096   5.738
44333SOL     OW34830   4.941   1.081   6.974
44333SOL    HW134831   5.027   1.053   6.942
44333SOL    HW234832   4.957   1.167   7.013
44334SOL     OW34833   4.060   9.016   9.788
44334SOL    HW134834   4.078   9.102   9.826
44334SOL    HW234835   4.075   9.028   9.694
44335SOL     OW34836   7.602   4.756   1.854
44335SOL    HW134837   7.546   4.681   1.872
44335SOL    HW234838   7.544   4.819   1.810
44336SOL     OW34839  12.388   8.816   0.648
44336SOL    HW134840  12.402   8.759   0.723
44336SOL    HW234841  12.476   8.829   0.611
44337SOL     OW34842   6.673   0.015  12.793
44337SOL    HW134843   6.621   0.095  12.782
44337SOL    HW234844   6.763   0.046  12.802
44338SOL     OW34845   4.226   3.481   7.170
44338SOL    HW134846   4.174   3.428   7.110
44338SOL    HW234847   4.254   3.419   7.237
44339SOL     OW34848   5.135   7.518  11.206
44339SOL    HW134849   5.069   7.449  11.195
44339SOL    HW234850   5.149   7.522  11.301
44340SOL     OW34851   2.241  14.478  14.690
44340SOL    HW134852   2.273  14.561  14.655
44340SOL    HW234853   2.167  14.455  14.633
44341SOL     OW34854   0.565   3.712   3.490
44341SOL    HW134855   0.609   3.627   3.493
44341SOL    HW234856   0.532   3.719   3.401
44342SOL     OW34857  12.496   2.653   4.717
44342SOL    HW134858  12.567   2.641   4.779
44342SOL    HW234859  12.510   2.740   4.681
44343SOL     OW34860  13.120   3.547   8.251
44343SOL    HW134861  13.092   3.562   8.161
44343SOL    HW234862  13.089   3.624   8.299
44344SOL     OW34863   0.234   5.901   9.637
44344SOL    HW134864   0.226   5.984   9.590
44344SOL    HW234865   0.145   5.866   9.640
44345SOL     OW34866   9.039   3.013   5.513
44345SOL    HW134867   9.009   3.056   5.433
44345SOL    HW234868   9.121   2.971   5.488
44346SOL     OW34869   9.871  13.916   7.769
44346SOL    HW134870   9.815  13.993   7.776
44346SOL    HW234871   9.813  13.846   7.741
44347SOL     OW34872  12.158  10.040   6.865
44347SOL    HW134873  12.118  10.031   6.778
44347SOL    HW234874  12.150   9.953   6.904
44348SOL     OW34875  13.021  12.881   0.827
44348SOL    HW134876  12.947  12.822   0.832
44348SOL    HW234877  13.032  12.897   0.733
44349SOL     OW34878  12.773   9.285  12.312
44349SOL    HW134879  12.868   9.298  12.312
44349SOL    HW234880  12.750   9.272  12.220
44350SOL     OW34881   5.754   5.314   2.472
44350SOL    HW134882   5.771   5.263   2.551
44350SOL    HW234883   5.686   5.377   2.499
44351SOL     OW34884  14.241   7.972  11.972
44351SOL    HW134885  14.275   7.883  11.962
44351SOL    HW234886  14.307   8.028  11.930
44352SOL     OW34887   7.240   9.914  13.500
44352SOL    HW134888   7.272   9.919  13.410
44352SOL    HW234889   7.287   9.840  13.538
44353SOL     OW34890   9.491   3.913   9.256
44353SOL    HW134891   9.474   3.819   9.262
44353SOL    HW234892   9.408   3.954   9.282
44354SOL     OW34893   2.721   3.055  10.132
44354SOL    HW134894   2.729   3.023  10.222
44354SOL    HW234895   2.633   3.028  10.105
44355SOL     OW34896  12.414   0.931   1.773
44355SOL    HW134897  12.503   0.959   1.791
44355SOL    HW234898  12.411   0.839   1.798
44356SOL     OW34899   8.934   9.227   5.752
44356SOL    HW134900   8.976   9.149   5.788
44356SOL    HW234901   8.849   9.197   5.720
44357SOL     OW34902  11.207   7.830   3.026
44357SOL    HW134903  11.153   7.753   3.009
44357SOL    HW234904  11.167   7.899   2.973
44358SOL     OW34905   9.616   6.040   8.779
44358SOL    HW134906   9.689   6.062   8.721
44358SOL    HW234907   9.539   6.076   8.736
44359SOL     OW34908  10.042  10.882  10.136
44359SOL    HW134909  10.069  10.803  10.088
44359SOL    HW234910   9.963  10.911  10.090
44360SOL     OW34911  13.286   0.292  13.679
44360SOL    HW134912  13.210   0.325  13.632
44360SOL    HW234913  13.254   0.218  13.730
44361SOL     OW34914  10.595   3.782   7.469
44361SOL    HW134915  10.553   3.728   7.537
44361SOL    HW234916  10.644   3.720   7.417
44362SOL     OW34917   6.216  11.636   7.499
44362SOL    HW134918   6.153  11.576   7.458
44362SOL    HW234919   6.301  11.598   7.479
44363SOL     OW34920   1.442   6.628   6.007
44363SOL    HW134921   1.380   6.696   6.031
44363SOL    HW234922   1.441   6.626   5.911
44364SOL     OW34923  12.358   7.821   2.145
44364SOL    HW134924  12.280   7.791   2.098
44364SOL    HW234925  12.384   7.901   2.100
44365SOL     OW34926   7.521  14.504   1.136
44365SOL    HW134927   7.456  14.555   1.183
44365SOL    HW234928   7.504  14.413   1.162
44366SOL     OW34929   6.290   5.846  10.929
44366SOL    HW134930   6.307   5.761  10.969
44366SOL    HW234931   6.374   5.891  10.930
44367SOL     OW34932   2.990   1.695  13.602
44367SOL    HW134933   2.980   1.757  13.674
44367SOL    HW234934   3.084   1.683  13.593
44368SOL     OW34935   1.845   9.426   7.380
44368SOL    HW134936   1.821   9.377   7.302
44368SOL    HW234937   1.939   9.412   7.390
44369SOL     OW34938   0.517   7.313   0.791
44369SOL    HW134939   0.515   7.408   0.780
44369SOL    HW234940   0.603   7.295   0.828
44370SOL     OW34941   5.639   5.406  14.369
44370SOL    HW134942   5.597   5.477  14.418
44370SOL    HW234943   5.629   5.329  14.425
44371SOL     OW34944  12.578   5.095  10.143
44371SOL    HW134945  12.665   5.067  10.118
44371SOL    HW234946  12.585   5.190  10.151
44372SOL     OW34947   4.667  10.210   6.954
44372SOL    HW134948   4.749  10.224   6.908
44372SOL    HW234949   4.630  10.130   6.914
44373SOL     OW34950  12.975  11.760   0.660
44373SOL    HW134951  13.009  11.847   0.680
44373SOL    HW234952  12.904  11.747   0.722
44374SOL     OW34953   5.160   5.917   1.862
44374SOL    HW134954   5.136   5.930   1.770
44374SOL    HW234955   5.250   5.886   1.859
44375SOL     OW34956   8.527  11.187   1.108
44375SOL    HW134957   8.598  11.221   1.163
44375SOL    HW234958   8.447  11.215   1.154
44376SOL     OW34959  12.488  13.990   9.671
44376SOL    HW134960  12.516  13.913   9.621
44376SOL    HW234961  12.525  14.064   9.623
44377SOL     OW34962   0.014   3.273   7.868
44377SOL    HW134963  14.836   3.231   7.798
44377SOL    HW234964  14.853   3.363   7.870
44378SOL     OW34965  10.298   9.372  11.875
44378SOL    HW134966  10.346   9.289  11.869
44378SOL    HW234967  10.209   9.350  11.850
44379SOL     OW34968   5.634   4.924  10.734
44379SOL    HW134969   5.683   4.843  10.744
44379SOL    HW234970   5.617   4.930  10.640
44380SOL     OW34971   8.827   3.114  14.355
44380SOL    HW134972   8.769   3.187  14.375
44380SOL    HW234973   8.852   3.126  14.264
44381SOL     OW34974   1.836   7.228  10.727
44381SOL    HW134975   1.811   7.268  10.644
44381SOL    HW234976   1.755   7.189  10.760
44382SOL     OW34977   1.622   0.607  13.057
44382SOL    HW134978   1.686   0.549  13.017
44382SOL    HW234979   1.637   0.693  13.017
44383SOL     OW34980   0.538   9.737   5.220
44383SOL    HW134981   0.543   9.773   5.132
44383SOL    HW234982   0.518   9.645   5.207
44384SOL     OW34983   1.013   4.899   3.675
44384SOL    HW134984   1.044   4.815   3.710
44384SOL    HW234985   1.090   4.957   3.681
44385SOL     OW34986   2.659  12.459   9.329
44385SOL    HW134987   2.739  12.424   9.289
44385SOL    HW234988   2.614  12.503   9.257
44386SOL     OW34989   7.465   0.637   2.020
44386SOL    HW134990   7.446   0.726   1.991
44386SOL    HW234991   7.468   0.585   1.940
44387SOL     OW34992   1.711   7.977   9.869
44387SOL    HW134993   1.661   8.010   9.942
44387SOL    HW234994   1.741   8.055   9.822
44388SOL     OW34995   9.949   3.690   0.327
44388SOL    HW134996  10.031   3.738   0.340
44388SOL    HW234997   9.883   3.758   0.319
44389SOL     OW34998   6.231   3.002   8.281
44389SOL    HW134999   6.314   3.043   8.303
44389SOL    HW235000   6.169   3.075   8.272
44390SOL     OW35001   8.796   1.920  13.105
44390SOL    HW135002   8.752   1.971  13.037
44390SOL    HW235003   8.729   1.863  13.140
44391SOL     OW35004   2.373  13.387   4.923
44391SOL    HW135005   2.298  13.344   4.964
44391SOL    HW235006   2.352  13.389   4.830
44392SOL     OW35007   0.768   9.757   8.386
44392SOL    HW135008   0.696   9.730   8.443
44392SOL    HW235009   0.769   9.853   8.392
44393SOL     OW35010   5.888   7.644   6.092
44393SOL    HW135011   5.797   7.630   6.120
44393SOL    HW235012   5.902   7.581   6.022
44394SOL     OW35013   3.774   3.400   9.025
44394SOL    HW135014   3.698   3.366   9.074
44394SOL    HW235015   3.759   3.494   9.020
44395SOL     OW35016   8.539  10.816  11.525
44395SOL    HW135017   8.535  10.729  11.566
44395SOL    HW235018   8.590  10.869  11.587
44396SOL     OW35019   3.020   6.492   8.634
44396SOL    HW135020   2.992   6.582   8.616
44396SOL    HW235021   2.992   6.476   8.724
44397SOL     OW35022   4.012  14.013   0.365
44397SOL    HW135023   4.107  14.001   0.357
44397SOL    HW235024   3.999  14.107   0.354
44398SOL     OW35025   2.834   5.917   2.131
44398SOL    HW135026   2.854   5.918   2.038
44398SOL    HW235027   2.912   5.954   2.173
44399SOL     OW35028   0.795  14.061  14.068
44399SOL    HW135029   0.753  14.097  13.989
44399SOL    HW235030   0.883  14.038  14.039
44400SOL     OW35031  14.107   8.310  13.817
44400SOL    HW135032  14.123   8.299  13.910
44400SOL    HW235033  14.020   8.348  13.812
44401SOL     OW35034   1.906   9.538  13.626
44401SOL    HW135035   1.877   9.525  13.717
44401SOL    HW235036   1.834   9.504  13.573
44402SOL     OW35037  12.032   4.471   1.671
44402SOL    HW135038  11.951   4.421   1.659
44402SOL    HW235039  12.009   4.540   1.734
44403SOL     OW35040  13.885  12.883   2.211
44403SOL    HW135041  13.806  12.835   2.189
44403SOL    HW235042  13.922  12.909   2.126
44404SOL     OW35043   6.381   9.247   0.534
44404SOL    HW135044   6.315   9.250   0.603
44404SOL    HW235045   6.452   9.302   0.567
44405SOL     OW35046   1.345   2.378  13.825
44405SOL    HW135047   1.386   2.463  13.811
44405SOL    HW235048   1.329   2.344  13.737
44406SOL     OW35049   1.391   8.177  14.166
44406SOL    HW135050   1.443   8.134  14.098
44406SOL    HW235051   1.315   8.120  14.178
44407SOL     OW35052  11.841   5.486   7.295
44407SOL    HW135053  11.921   5.537   7.303
44407SOL    HW235054  11.770   5.550   7.302
44408SOL     OW35055   8.734   4.011   6.543
44408SOL    HW135056   8.759   3.980   6.630
44408SOL    HW235057   8.817   4.020   6.496
44409SOL     OW35058  12.776  11.789  10.157
44409SOL    HW135059  12.713  11.745  10.100
44409SOL    HW235060  12.723  11.818  10.232
44410SOL     OW35061   8.845   4.551   9.675
44410SOL    HW135062   8.885   4.513   9.753
44410SOL    HW235063   8.788   4.620   9.709
44411SOL     OW35064   4.458  14.149   7.783
44411SOL    HW135065   4.427  14.171   7.695
44411SOL    HW235066   4.552  14.134   7.772
44412SOL     OW35067   9.354   5.354   2.761
44412SOL    HW135068   9.392   5.325   2.844
44412SOL    HW235069   9.402   5.306   2.694
44413SOL     OW35070  11.947   7.459   3.367
44413SOL    HW135071  12.007   7.414   3.308
44413SOL    HW235072  11.976   7.550   3.366
44414SOL     OW35073  10.073   3.408  14.744
44414SOL    HW135074  10.099   3.394  14.653
44414SOL    HW235075  10.012   3.337  14.763
44415SOL     OW35076   4.294   1.708   7.436
44415SOL    HW135077   4.258   1.716   7.525
44415SOL    HW235078   4.228   1.749   7.381
44416SOL     OW35079   5.510   5.872  13.909
44416SOL    HW135080   5.448   5.807  13.876
44416SOL    HW235081   5.492   5.876  14.003
44417SOL     OW35082  12.106   2.040  11.571
44417SOL    HW135083  12.080   2.114  11.627
44417SOL    HW235084  12.100   2.075  11.482
44418SOL     OW35085  13.983   1.878   1.120
44418SOL    HW135086  14.018   1.912   1.038
44418SOL    HW235087  14.034   1.922   1.188
44419SOL     OW35088   0.180  12.856  10.050
44419SOL    HW135089   0.117  12.915  10.091
44419SOL    HW235090   0.138  12.769  10.056
44420SOL     OW35091  10.361  11.685  10.330
44420SOL    HW135092  10.302  11.759  10.311
44420SOL    HW235093  10.419  11.718  10.398
44421SOL     OW35094   6.558   3.399  13.577
44421SOL    HW135095   6.478   3.348  13.566
44421SOL    HW235096   6.608   3.351  13.644
44422SOL     OW35097   5.422   2.597  13.431
44422SOL    HW135098   5.436   2.509  13.467
44422SOL    HW235099   5.332   2.596  13.400
44423SOL     OW35100  12.050  13.734   5.633
44423SOL    HW135101  12.069  13.707   5.723
44423SOL    HW235102  12.136  13.750   5.594
44424SOL     OW35103  10.397   6.880   8.715
44424SOL    HW135104  10.465   6.930   8.670
44424SOL    HW235105  10.445   6.824   8.777
44425SOL     OW35106   0.422   5.386   8.063
44425SOL    HW135107   0.344   5.419   8.018
44425SOL    HW235108   0.401   5.296   8.086
44426SOL     OW35109  14.855   4.061  13.722
44426SOL    HW135110  14.852   4.080  13.628
44426SOL    HW235111  14.764   4.073  13.752
44427SOL     OW35112  14.622  11.042  14.808
44427SOL    HW135113  14.643  11.007   0.022
44427SOL    HW235114  14.533  11.010  14.791
44428SOL     OW35115  11.810   9.781  10.542
44428SOL    HW135116  11.810   9.693  10.505
44428SOL    HW235117  11.893   9.819  10.513
44429SOL     OW35118  12.817   9.800   2.946
44429SOL    HW135119  12.745   9.782   2.886
44429SOL    HW235120  12.873   9.722   2.940
44430SOL     OW35121  12.065   0.882   7.718
44430SOL    HW135122  11.998   0.919   7.776
44430SOL    HW235123  12.096   0.805   7.764
44431SOL     OW35124  13.542  13.074   6.526
44431SOL    HW135125  13.473  13.028   6.573
44431SOL    HW235126  13.508  13.163   6.514
44432SOL     OW35127   4.790   5.832   1.191
44432SOL    HW135128   4.859   5.847   1.127
44432SOL    HW235129   4.709   5.835   1.141
44433SOL     OW35130  13.786   6.526  12.254
44433SOL    HW135131  13.758   6.480  12.175
44433SOL    HW235132  13.817   6.610  12.223
44434SOL     OW35133   5.184   0.957   2.976
44434SOL    HW135134   5.264   0.944   3.027
44434SOL    HW235135   5.210   0.943   2.886
44435SOL     OW35136   3.879   9.786   3.690
44435SOL    HW135137   3.804   9.807   3.746
44435SOL    HW235138   3.939   9.740   3.748
44436SOL     OW35139   7.660   0.879   3.931
44436SOL    HW135140   7.659   0.800   3.877
44436SOL    HW235141   7.748   0.883   3.968
44437SOL     OW35142   5.518   4.007   5.162
44437SOL    HW135143   5.554   4.033   5.247
44437SOL    HW235144   5.439   3.957   5.184
44438SOL     OW35145   6.449   4.017  14.520
44438SOL    HW135146   6.450   3.980  14.608
44438SOL    HW235147   6.505   4.094  14.526
44439SOL     OW35148   8.593   3.932   1.891
44439SOL    HW135149   8.613   3.949   1.799
44439SOL    HW235150   8.663   3.874   1.921
44440SOL     OW35151  10.453  10.174  10.438
44440SOL    HW135152  10.443  10.140  10.527
44440SOL    HW235153  10.494  10.103  10.390
44441SOL     OW35154   1.927  11.019  13.612
44441SOL    HW135155   1.852  11.035  13.553
44441SOL    HW235156   1.980  11.098  13.605
44442SOL     OW35157  11.188   8.755   3.257
44442SOL    HW135158  11.237   8.676   3.280
44442SOL    HW235159  11.099   8.723   3.238
44443SOL     OW35160  14.037   3.341   6.198
44443SOL    HW135161  14.042   3.349   6.294
44443SOL    HW235162  14.006   3.251   6.184
44444SOL     OW35163   9.416   4.923  11.022
44444SOL    HW135164   9.388   4.989  10.958
44444SOL    HW235165   9.509   4.911  11.005
44445SOL     OW35166   4.880  14.865   6.131
44445SOL    HW135167   4.908   0.059   6.194
44445SOL    HW235168   4.961  14.828   6.097
44446SOL     OW35169   0.310   3.293  12.567
44446SOL    HW135170   0.321   3.251  12.482
44446SOL    HW235171   0.260   3.373  12.548
44447SOL     OW35172   0.663   8.451  11.918
44447SOL    HW135173   0.576   8.488  11.931
44447SOL    HW235174   0.650   8.378  11.858
44448SOL     OW35175   6.936   3.712   7.037
44448SOL    HW135176   6.976   3.774   7.098
44448SOL    HW235177   6.847   3.744   7.024
44449SOL     OW35178   7.028   3.407  14.318
44449SOL    HW135179   7.118   3.438  14.303
44449SOL    HW235180   7.015   3.418  14.412
44450SOL     OW35181   4.130   6.597  13.067
44450SOL    HW135182   4.200   6.550  13.113
44450SOL    HW235183   4.118   6.677  13.117
44451SOL     OW35184   1.917   1.242  12.352
44451SOL    HW135185   1.824   1.263  12.347
44451SOL    HW235186   1.961   1.326  12.344
44452SOL     OW35187   9.765   5.326   5.258
44452SOL    HW135188   9.756   5.317   5.164
44452SOL    HW235189   9.705   5.261   5.295
44453SOL     OW35190  10.504  12.676   9.453
44453SOL    HW135191  10.552  12.604   9.495
44453SOL    HW235192  10.456  12.717   9.525
44454SOL     OW35193   0.993   5.550   4.760
44454SOL    HW135194   1.054   5.623   4.749
44454SOL    HW235195   1.016   5.511   4.845
44455SOL     OW35196   5.141   4.505  14.312
44455SOL    HW135197   5.224   4.457  14.316
44455SOL    HW235198   5.167   4.597  14.305
44456SOL     OW35199   6.195  12.430  12.784
44456SOL    HW135200   6.281  12.431  12.824
44456SOL    HW235201   6.212  12.410  12.692
44457SOL     OW35202   1.886  14.063  12.183
44457SOL    HW135203   1.962  14.005  12.185
44457SOL    HW235204   1.822  14.018  12.128
44458SOL     OW35205   9.572  11.296  11.078
44458SOL    HW135206   9.613  11.245  11.008
44458SOL    HW235207   9.491  11.250  11.098
44459SOL     OW35208  13.518   3.107  11.373
44459SOL    HW135209  13.554   3.176  11.317
44459SOL    HW235210  13.566   3.029  11.347
44460SOL     OW35211  11.246  12.813   7.755
44460SOL    HW135212  11.163  12.828   7.800
44460SOL    HW235213  11.241  12.723   7.724
44461SOL     OW35214   3.419  10.297   6.018
44461SOL    HW135215   3.380  10.311   5.932
44461SOL    HW235216   3.351  10.251   6.068
44462SOL     OW35217   6.326   5.038   5.935
44462SOL    HW135218   6.283   4.988   5.865
44462SOL    HW235219   6.397   4.981   5.965
44463SOL     OW35220   9.137  12.515  12.455
44463SOL    HW135221   9.177  12.443  12.503
44463SOL    HW235222   9.048  12.521  12.490
44464SOL     OW35223  12.214   1.188  11.951
44464SOL    HW135224  12.162   1.165  12.028
44464SOL    HW235225  12.260   1.268  11.976
44465SOL     OW35226  11.705   1.940  12.540
44465SOL    HW135227  11.707   1.962  12.633
44465SOL    HW235228  11.797   1.944  12.513
44466SOL     OW35229  12.314   9.665   9.156
44466SOL    HW135230  12.361   9.696   9.233
44466SOL    HW235231  12.315   9.739   9.095
44467SOL     OW35232   7.613   5.542   0.710
44467SOL    HW135233   7.637   5.575   0.797
44467SOL    HW235234   7.567   5.616   0.669
44468SOL     OW35235   1.657   8.661   8.838
44468SOL    HW135236   1.570   8.683   8.804
44468SOL    HW235237   1.642   8.582   8.890
44469SOL     OW35238  13.855   3.121  13.862
44469SOL    HW135239  13.785   3.179  13.891
44469SOL    HW235240  13.814   3.035  13.856
44470SOL     OW35241  14.317   2.518   6.904
44470SOL    HW135242  14.280   2.459   6.969
44470SOL    HW235243  14.395   2.555   6.946
44471SOL     OW35244   8.157  14.064   8.374
44471SOL    HW135245   8.124  14.120   8.303
44471SOL    HW235246   8.239  14.028   8.339
44472SOL     OW35247   7.646  14.378   9.375
44472SOL    HW135248   7.695  14.297   9.365
44472SOL    HW235249   7.560  14.359   9.338
44473SOL     OW35250   8.787  13.882   0.307
44473SOL    HW135251   8.696  13.855   0.294
44473SOL    HW235252   8.837  13.830   0.243
44474SOL     OW35253   0.692  10.172  13.557
44474SOL    HW135254   0.662  10.262  13.565
44474SOL    HW235255   0.767  10.166  13.617
44475SOL     OW35256  12.574  14.809  12.893
44475SOL    HW135257  12.563  14.730  12.840
44475SOL    HW235258  12.659  14.798  12.935
44476SOL     OW35259   8.367  12.385   3.200
44476SOL    HW135260   8.397  12.297   3.177
44476SOL    HW235261   8.318  12.415   3.123
44477SOL     OW35262  12.326   4.310  13.353
44477SOL    HW135263  12.280   4.394  13.362
44477SOL    HW235264  12.269   4.247  13.397
44478SOL     OW35265   5.389  10.950   4.560
44478SOL    HW135266   5.474  10.994   4.563
44478SOL    HW235267   5.340  10.990   4.632
44479SOL     OW35268  13.000   3.213   5.598
44479SOL    HW135269  13.031   3.122   5.598
44479SOL    HW235270  13.079   3.264   5.579
44480SOL     OW35271   0.789   6.094   7.851
44480SOL    HW135272   0.743   6.114   7.769
44480SOL    HW235273   0.787   5.998   7.856
44481SOL     OW35274   9.096   9.620   6.524
44481SOL    HW135275   9.108   9.632   6.618
44481SOL    HW235276   9.159   9.680   6.484
44482SOL     OW35277   6.051   9.103   2.200
44482SOL    HW135278   6.143   9.081   2.216
44482SOL    HW235279   6.049   9.199   2.202
44483SOL     OW35280   5.706   5.371   5.239
44483SOL    HW135281   5.700   5.355   5.145
44483SOL    HW235282   5.667   5.458   5.251
44484SOL     OW35283  14.778  10.644   5.600
44484SOL    HW135284  14.791  10.562   5.554
44484SOL    HW235285  14.761  10.619   5.690
44485SOL     OW35286   9.865  14.455  10.292
44485SOL    HW135287   9.793  14.513  10.315
44485SOL    HW235288   9.887  14.477  10.202
44486SOL     OW35289  14.551   6.454  12.394
44486SOL    HW135290  14.526   6.362  12.398
44486SOL    HW235291  14.508   6.494  12.470
44487SOL     OW35292  12.801  10.209   4.124
44487SOL    HW135293  12.718  10.163   4.112
44487SOL    HW235294  12.819  10.247   4.038
44488SOL     OW35295   3.564   6.294  10.000
44488SOL    HW135296   3.626   6.234   9.960
44488SOL    HW235297   3.484   6.285   9.949
44489SOL     OW35298   1.567   7.503   0.111
44489SOL    HW135299   1.546   7.412   0.130
44489SOL    HW235300   1.609   7.536   0.190
44490SOL     OW35301   4.299   9.939   8.651
44490SOL    HW135302   4.212   9.979   8.650
44490SOL    HW235303   4.297   9.879   8.726
44491SOL     OW35304   7.863   5.772   5.306
44491SOL    HW135305   7.800   5.739   5.370
44491SOL    HW235306   7.933   5.809   5.360
44492SOL     OW35307   9.373  11.186   5.730
44492SOL    HW135308   9.407  11.252   5.789
44492SOL    HW235309   9.300  11.147   5.777
44493SOL     OW35310  11.750   7.148  13.909
44493SOL    HW135311  11.670   7.096  13.907
44493SOL    HW235312  11.748   7.198  13.828
44494SOL     OW35313   0.974   8.021   8.108
44494SOL    HW135314   0.881   8.031   8.127
44494SOL    HW235315   0.976   7.968   8.028
44495SOL     OW35316   2.930  11.671   9.265
44495SOL    HW135317   2.835  11.670   9.273
44495SOL    HW235318   2.953  11.582   9.238
44496SOL     OW35319   4.670  12.742  13.279
44496SOL    HW135320   4.598  12.799  13.253
44496SOL    HW235321   4.747  12.798  13.279
44497SOL     OW35322  11.455   2.245   3.215
44497SOL    HW135323  11.385   2.268   3.155
44497SOL    HW235324  11.470   2.152   3.201
44498SOL     OW35325   3.965  14.781   7.970
44498SOL    HW135326   3.953  14.807   7.879
44498SOL    HW235327   3.955  14.686   7.970
44499SOL     OW35328  10.909   9.267  13.437
44499SOL    HW135329  10.979   9.304  13.383
44499SOL    HW235330  10.939   9.281  13.527
44500SOL     OW35331   3.612   3.595   9.835
44500SOL    HW135332   3.518   3.599   9.853
44500SOL    HW235333   3.635   3.503   9.846
44501SOL     OW35334   9.815   3.143   3.410
44501SOL    HW135335   9.805   3.080   3.482
44501SOL    HW235336   9.726   3.168   3.387
44502SOL     OW35337   2.832   8.290   7.573
44502SOL    HW135338   2.793   8.283   7.660
44502SOL    HW235339   2.758   8.308   7.515
44503SOL     OW35340  11.777   5.474  11.217
44503SOL    HW135341  11.801   5.417  11.144
44503SOL    HW235342  11.682   5.471  11.220
44504SOL     OW35343  10.065   2.695   4.915
44504SOL    HW135344  10.006   2.647   4.973
44504SOL    HW235345  10.065   2.784   4.950
44505SOL     OW35346  12.533  10.807   4.935
44505SOL    HW135347  12.556  10.778   5.023
44505SOL    HW235348  12.486  10.733   4.897
44506SOL     OW35349   8.028   8.709   5.930
44506SOL    HW135350   7.971   8.696   6.006
44506SOL    HW235351   8.054   8.620   5.904
44507SOL     OW35352   4.470   7.476  10.434
44507SOL    HW135353   4.386   7.468  10.388
44507SOL    HW235354   4.449   7.460  10.526
44508SOL     OW35355  11.929  12.609  10.460
44508SOL    HW135356  11.990  12.538  10.441
44508SOL    HW235357  11.846  12.580  10.424
44509SOL     OW35358   9.851  13.570  13.330
44509SOL    HW135359   9.791  13.641  13.306
44509SOL    HW235360   9.923  13.614  13.376
44510SOL     OW35361  11.727   2.514   3.807
44510SOL    HW135362  11.779   2.593   3.823
44510SOL    HW235363  11.659   2.515   3.874
44511SOL     OW35364   0.194   2.367   2.980
44511SOL    HW135365   0.232   2.344   2.895
44511SOL    HW235366   0.104   2.391   2.961
44512SOL     OW35367   5.377   2.296   6.063
44512SOL    HW135368   5.417   2.247   5.991
44512SOL    HW235369   5.431   2.374   6.071
44513SOL     OW35370  14.056   0.617   4.080
44513SOL    HW135371  14.017   0.619   4.168
44513SOL    HW235372  14.148   0.598   4.097
44514SOL     OW35373   2.820   1.456   4.806
44514SOL    HW135374   2.887   1.450   4.874
44514SOL    HW235375   2.828   1.546   4.772
44515SOL     OW35376   6.072   1.423  10.717
44515SOL    HW135377   6.098   1.426  10.809
44515SOL    HW235378   6.034   1.509  10.700
44516SOL     OW35379   5.179  14.485   1.866
44516SOL    HW135380   5.266  14.493   1.827
44516SOL    HW235381   5.128  14.435   1.802
44517SOL     OW35382   9.924  12.383   5.023
44517SOL    HW135383   9.878  12.302   5.001
44517SOL    HW235384   9.993  12.357   5.084
44518SOL     OW35385  13.517   3.227   5.841
44518SOL    HW135386  13.547   3.166   5.773
44518SOL    HW235387  13.422   3.214   5.844
44519SOL     OW35388   0.076   6.463   9.923
44519SOL    HW135389   0.017   6.500   9.857
44519SOL    HW235390   0.128   6.538   9.953
44520SOL     OW35391   1.787   1.226   4.274
44520SOL    HW135392   1.825   1.229   4.361
44520SOL    HW235393   1.824   1.146   4.235
44521SOL     OW35394  11.066  10.268   1.347
44521SOL    HW135395  11.148  10.227   1.321
44521SOL    HW235396  11.078  10.361   1.328
44522SOL     OW35397   9.809   6.958   5.979
44522SOL    HW135398   9.863   6.947   5.901
44522SOL    HW235399   9.816   6.874   6.025
44523SOL     OW35400   1.769   0.482   6.640
44523SOL    HW135401   1.767   0.558   6.582
44523SOL    HW235402   1.677   0.457   6.650
44524SOL     OW35403   1.885  12.304  14.168
44524SOL    HW135404   1.842  12.234  14.217
44524SOL    HW235405   1.916  12.262  14.088
44525SOL     OW35406  10.997   0.166   0.771
44525SOL    HW135407  10.951   0.251   0.776
44525SOL    HW235408  10.967   0.128   0.688
44526SOL     OW35409  11.904  12.899   5.111
44526SOL    HW135410  11.916  12.913   5.205
44526SOL    HW235411  11.815  12.931   5.094
44527SOL     OW35412   7.212  12.419  12.072
44527SOL    HW135413   7.269  12.342  12.074
44527SOL    HW235414   7.124  12.383  12.086
44528SOL     OW35415  12.677  12.029  14.425
44528SOL    HW135416  12.664  11.979  14.505
44528SOL    HW235417  12.761  11.998  14.390
44529SOL     OW35418   5.111  10.260   1.118
44529SOL    HW135419   5.096  10.261   1.023
44529SOL    HW235420   5.127  10.352   1.140
44530SOL     OW35421  12.110   0.032  13.647
44530SOL    HW135422  12.105   0.102  13.712
44530SOL    HW235423  12.102   0.076  13.563
44531SOL     OW35424   2.129   9.441  10.499
44531SOL    HW135425   2.114   9.510  10.564
44531SOL    HW235426   2.103   9.480  10.416
44532SOL     OW35427   4.701  10.647   9.566
44532SOL    HW135428   4.687  10.706   9.640
44532SOL    HW235429   4.618  10.600   9.556
44533SOL     OW35430   1.801   1.058  11.972
44533SOL    HW135431   1.807   0.969  12.006
44533SOL    HW235432   1.737   1.101  12.029
44534SOL     OW35433   0.775   6.511  12.530
44534SOL    HW135434   0.753   6.604  12.538
44534SOL    HW235435   0.858   6.502  12.576
44535SOL     OW35436   4.576   6.850   8.830
44535SOL    HW135437   4.593   6.906   8.906
44535SOL    HW235438   4.561   6.911   8.758
44536SOL     OW35439   1.443  14.837   8.385
44536SOL    HW135440   1.508  14.768   8.399
44536SOL    HW235441   1.416  14.863   8.473
44537SOL     OW35442   9.075   2.067   0.184
44537SOL    HW135443   9.133   1.998   0.151
44537SOL    HW235444   9.128   2.115   0.247
44538SOL     OW35445   2.112   2.731   3.138
44538SOL    HW135446   2.077   2.722   3.226
44538SOL    HW235447   2.207   2.723   3.149
44539SOL     OW35448  12.451  10.518   0.060
44539SOL    HW135449  12.501  10.586   0.106
44539SOL    HW235450  12.385  10.567   0.011
44540SOL     OW35451  10.561   7.512   6.356
44540SOL    HW135452  10.624   7.549   6.295
44540SOL    HW235453  10.478   7.553   6.332
44541SOL     OW35454   3.868   2.098  10.240
44541SOL    HW135455   3.803   2.150  10.193
44541SOL    HW235456   3.854   2.119  10.332
44542SOL     OW35457  12.452   0.812  14.202
44542SOL    HW135458  12.509   0.764  14.263
44542SOL    HW235459  12.379   0.842  14.257
44543SOL     OW35460   9.547   4.850   3.625
44543SOL    HW135461   9.526   4.781   3.688
44543SOL    HW235462   9.485   4.921   3.644
44544SOL     OW35463   9.549  10.783   2.418
44544SOL    HW135464   9.555  10.866   2.465
44544SOL    HW235465   9.628  10.735   2.442
44545SOL     OW35466  12.570  14.052   4.215
44545SOL    HW135467  12.598  14.028   4.127
44545SOL    HW235468  12.479  14.021   4.220
44546SOL     OW35469  12.752  13.982   0.380
44546SOL    HW135470  12.793  14.060   0.342
44546SOL    HW235471  12.671  13.971   0.330
44547SOL     OW35472  10.209  13.906  10.108
44547SOL    HW135473  10.132  13.884  10.160
44547SOL    HW235474  10.266  13.955  10.168
44548SOL     OW35475   9.642   7.620  12.649
44548SOL    HW135476   9.647   7.712  12.622
44548SOL    HW235477   9.587   7.579  12.582
44549SOL     OW35478   3.316   5.999  12.368
44549SOL    HW135479   3.284   6.004  12.277
44549SOL    HW235480   3.288   5.912  12.398
44550SOL     OW35481   8.274  12.263   7.521
44550SOL    HW135482   8.266  12.236   7.612
44550SOL    HW235483   8.355  12.314   7.518
44551SOL     OW35484  11.178   7.727  14.839
44551SOL    HW135485  11.092   7.734   0.008
44551SOL    HW235486  11.194   7.813  14.801
44552SOL     OW35487  13.493  12.073  13.388
44552SOL    HW135488  13.427  12.012  13.420
44552SOL    HW235489  13.552  12.085  13.462
44553SOL     OW35490  12.275  14.280   3.590
44553SOL    HW135491  12.283  14.348   3.657
44553SOL    HW235492  12.192  14.237   3.608
44554SOL     OW35493  14.865  12.768   2.019
44554SOL    HW135494  14.847  12.675   2.022
44554SOL    HW235495   0.032  12.788   2.105
44555SOL     OW35496  14.022   6.535  10.876
44555SOL    HW135497  14.074   6.455  10.874
44555SOL    HW235498  13.931   6.505  10.881
44556SOL     OW35499   7.342  14.112   2.903
44556SOL    HW135500   7.320  14.186   2.846
44556SOL    HW235501   7.355  14.039   2.843
44557SOL     OW35502   9.759   6.880   0.673
44557SOL    HW135503   9.668   6.908   0.676
44557SOL    HW235504   9.757   6.796   0.628
44558SOL     OW35505  10.687  10.139   4.091
44558SOL    HW135506  10.706  10.049   4.117
44558SOL    HW235507  10.610  10.131   4.034
44559SOL     OW35508   7.755   2.655  11.279
44559SOL    HW135509   7.822   2.721  11.298
44559SOL    HW235510   7.674   2.692  11.312
44560SOL     OW35511   8.823   9.689  10.235
44560SOL    HW135512   8.898   9.653  10.187
44560SOL    HW235513   8.747   9.666  10.181
44561SOL     OW35514   4.584   0.624   8.871
44561SOL    HW135515   4.545   0.711   8.863
44561SOL    HW235516   4.564   0.581   8.789
44562SOL     OW35517  10.238  11.238   2.749
44562SOL    HW135518  10.221  11.317   2.800
44562SOL    HW235519  10.192  11.252   2.666
44563SOL     OW35520   6.391   6.333  11.515
44563SOL    HW135521   6.313   6.358  11.465
44563SOL    HW235522   6.407   6.242  11.489
44564SOL     OW35523  10.964   1.058   2.440
44564SOL    HW135524  10.988   1.141   2.397
44564SOL    HW235525  10.963   1.079   2.533
44565SOL     OW35526   9.800   1.572   0.443
44565SOL    HW135527   9.797   1.519   0.523
44565SOL    HW235528   9.746   1.523   0.381
44566SOL     OW35529   9.484   6.563  10.985
44566SOL    HW135530   9.527   6.622  10.923
44566SOL    HW235531   9.515   6.476  10.961
44567SOL     OW35532  12.628   2.255   4.861
44567SOL    HW135533  12.582   2.312   4.922
44567SOL    HW235534  12.585   2.170   4.872
44568SOL     OW35535  13.422   4.982   6.337
44568SOL    HW135536  13.514   4.979   6.363
44568SOL    HW235537  13.386   4.897   6.366
44569SOL     OW35538   9.233   6.566   3.741
44569SOL    HW135539   9.229   6.575   3.836
44569SOL    HW235540   9.315   6.519   3.726
44570SOL     OW35541   7.916  11.512  12.125
44570SOL    HW135542   7.935  11.418  12.124
44570SOL    HW235543   7.998  11.553  12.152
44571SOL     OW35544   9.248  13.228  11.716
44571SOL    HW135545   9.171  13.173  11.731
44571SOL    HW235546   9.315  13.192  11.775
44572SOL     OW35547   9.618   0.212  12.999
44572SOL    HW135548   9.634   0.195  12.906
44572SOL    HW235549   9.662   0.141  13.045
44573SOL     OW35550   6.973   2.255  13.054
44573SOL    HW135551   6.928   2.261  12.970
44573SOL    HW235552   6.925   2.315  13.112
44574SOL     OW35553   4.117   1.016   4.395
44574SOL    HW135554   4.081   0.927   4.397
44574SOL    HW235555   4.075   1.060   4.468
44575SOL     OW35556   8.520   0.797  14.713
44575SOL    HW135557   8.593   0.858  14.721
44575SOL    HW235558   8.504   0.790  14.619
44576SOL     OW35559  12.081   9.077   7.303
44576SOL    HW135560  12.018   9.009   7.280
44576SOL    HW235561  12.099   9.063   7.396
44577SOL     OW35562  14.280   6.181  14.527
44577SOL    HW135563  14.189   6.193  14.501
44577SOL    HW235564  14.303   6.262  14.572
44578SOL     OW35565  12.922   7.255   2.670
44578SOL    HW135566  12.904   7.264   2.764
44578SOL    HW235567  12.987   7.322   2.651
44579SOL     OW35568  11.057   5.638   0.831
44579SOL    HW135569  11.102   5.587   0.898
44579SOL    HW235570  11.011   5.706   0.879
44580SOL     OW35571   8.797   3.584   2.360
44580SOL    HW135572   8.840   3.668   2.380
44580SOL    HW235573   8.717   3.586   2.412
44581SOL     OW35574   6.839   2.624   8.275
44581SOL    HW135575   6.775   2.601   8.209
44581SOL    HW235576   6.825   2.718   8.291
44582SOL     OW35577   7.527   7.207   8.411
44582SOL    HW135578   7.603   7.249   8.452
44582SOL    HW235579   7.453   7.235   8.465
44583SOL     OW35580   2.921   2.109  11.788
44583SOL    HW135581   3.012   2.101  11.814
44583SOL    HW235582   2.896   2.198  11.813
44584SOL     OW35583   9.518   2.712   9.421
44584SOL    HW135584   9.573   2.737   9.347
44584SOL    HW235585   9.447   2.661   9.382
44585SOL     OW35586   2.280   4.342   1.043
44585SOL    HW135587   2.372   4.371   1.044
44585SOL    HW235588   2.282   4.260   0.993
44586SOL     OW35589  10.381   1.614   6.026
44586SOL    HW135590  10.399   1.594   5.935
44586SOL    HW235591  10.446   1.680   6.050
44587SOL     OW35592   2.611   4.591   3.767
44587SOL    HW135593   2.684   4.548   3.811
44587SOL    HW235594   2.589   4.533   3.694
44588SOL     OW35595   1.218   8.045   0.149
44588SOL    HW135596   1.282   8.101   0.104
44588SOL    HW235597   1.154   8.107   0.185
44589SOL     OW35598  14.097  13.308   2.330
44589SOL    HW135599  14.150  13.320   2.409
44589SOL    HW235600  14.092  13.213   2.319
44590SOL     OW35601  11.718  11.857  13.310
44590SOL    HW135602  11.685  11.792  13.372
44590SOL    HW235603  11.764  11.921  13.364
44591SOL     OW35604   2.337  12.237   7.228
44591SOL    HW135605   2.351  12.275   7.142
44591SOL    HW235606   2.416  12.257   7.277
44592SOL     OW35607  12.997  14.615  12.807
44592SOL    HW135608  13.035  14.541  12.760
44592SOL    HW235609  13.019  14.600  12.899
44593SOL     OW35610   1.624  13.149   6.949
44593SOL    HW135611   1.574  13.070   6.966
44593SOL    HW235612   1.574  13.219   6.990
44594SOL     OW35613   2.004   5.054   7.287
44594SOL    HW135614   2.038   4.966   7.305
44594SOL    HW235615   1.910   5.047   7.301
44595SOL     OW35616   2.519   8.951   5.497
44595SOL    HW135617   2.502   8.924   5.587
44595SOL    HW235618   2.556   8.874   5.455
44596SOL     OW35619  13.415  13.253  10.373
44596SOL    HW135620  13.387  13.246  10.464
44596SOL    HW235621  13.381  13.173  10.332
44597SOL     OW35622  11.181   6.950  12.740
44597SOL    HW135623  11.102   6.897  12.744
44597SOL    HW235624  11.210   6.958  12.831
44598SOL     OW35625   5.125   0.821   1.140
44598SOL    HW135626   5.074   0.781   1.210
44598SOL    HW235627   5.192   0.873   1.185
44599SOL     OW35628   4.751  14.599  11.773
44599SOL    HW135629   4.801  14.624  11.850
44599SOL    HW235630   4.704  14.521  11.799
44600SOL     OW35631   1.355   7.807   1.812
44600SOL    HW135632   1.270   7.847   1.830
44600SOL    HW235633   1.374   7.755   1.890
44601SOL     OW35634   3.811   9.306  13.608
44601SOL    HW135635   3.811   9.288  13.514
44601SOL    HW235636   3.898   9.341  13.626
44602SOL     OW35637   6.921  13.562   3.299
44602SOL    HW135638   6.943  13.591   3.387
44602SOL    HW235639   6.851  13.497   3.312
44603SOL     OW35640  14.531   0.189   5.898
44603SOL    HW135641  14.605   0.147   5.943
44603SOL    HW235642  14.455   0.136   5.922
44604SOL     OW35643  10.240   0.924   6.207
44604SOL    HW135644  10.212   0.903   6.118
44604SOL    HW235645  10.266   0.840   6.244
44605SOL     OW35646   8.442   7.366   4.509
44605SOL    HW135647   8.478   7.430   4.447
44605SOL    HW235648   8.513   7.303   4.522
44606SOL     OW35649  11.077   1.165   7.021
44606SOL    HW135650  11.149   1.162   7.084
44606SOL    HW235651  11.018   1.095   7.048
44607SOL     OW35652   6.662  14.533   5.229
44607SOL    HW135653   6.731  14.468   5.221
44607SOL    HW235654   6.585  14.484   5.256
44608SOL     OW35655   8.291   1.260   9.223
44608SOL    HW135656   8.305   1.308   9.305
44608SOL    HW235657   8.281   1.169   9.251
44609SOL     OW35658  12.513   6.107   5.706
44609SOL    HW135659  12.560   6.049   5.766
44609SOL    HW235660  12.580   6.136   5.644
44610SOL     OW35661  11.237   1.696   1.034
44610SOL    HW135662  11.275   1.711   1.121
44610SOL    HW235663  11.177   1.623   1.047
44611SOL     OW35664  12.820   4.902   8.679
44611SOL    HW135665  12.757   4.971   8.655
44611SOL    HW235666  12.886   4.905   8.610
44612SOL     OW35667   1.321  10.453   0.839
44612SOL    HW135668   1.226  10.461   0.839
44612SOL    HW235669   1.347  10.476   0.928
44613SOL     OW35670   3.954   0.120   4.690
44613SOL    HW135671   4.033   0.068   4.674
44613SOL    HW235672   3.963   0.150   4.780
44614SOL     OW35673  13.100   6.785   9.117
44614SOL    HW135674  13.091   6.710   9.176
44614SOL    HW235675  13.034   6.848   9.146
44615SOL     OW35676  11.180   1.330   4.981
44615SOL    HW135677  11.104   1.307   4.928
44615SOL    HW235678  11.223   1.246   4.999
44616SOL     OW35679   5.876   5.892   8.390
44616SOL    HW135680   5.895   5.806   8.426
44616SOL    HW235681   5.910   5.954   8.454
44617SOL     OW35682  14.046   3.045   1.465
44617SOL    HW135683  14.087   2.960   1.483
44617SOL    HW235684  14.087   3.105   1.527
44618SOL     OW35685   7.772   0.561   1.106
44618SOL    HW135686   7.719   0.605   1.172
44618SOL    HW235687   7.842   0.518   1.155
44619SOL     OW35688   5.359  13.415  11.232
44619SOL    HW135689   5.384  13.323  11.243
44619SOL    HW235690   5.264  13.412  11.219
44620SOL     OW35691   8.056   3.156   1.649
44620SOL    HW135692   8.093   3.188   1.731
44620SOL    HW235693   8.023   3.069   1.669
44621SOL     OW35694   0.868  10.214   0.463
44621SOL    HW135695   0.943  10.228   0.405
44621SOL    HW235696   0.859  10.118   0.468
44622SOL     OW35697   2.850  11.585  13.206
44622SOL    HW135698   2.769  11.635  13.202
44622SOL    HW235699   2.824  11.501  13.246
44623SOL     OW35700   4.624  11.286  12.533
44623SOL    HW135701   4.568  11.327  12.599
44623SOL    HW235702   4.713  11.306  12.562
44624SOL     OW35703  12.988   8.083   8.368
44624SOL    HW135704  13.016   8.091   8.277
44624SOL    HW235705  12.901   8.043   8.363
44625SOL     OW35706   8.018   9.541   3.105
44625SOL    HW135707   7.953   9.565   3.038
44625SOL    HW235708   8.013   9.445   3.109
44626SOL     OW35709   0.007  12.858   4.969
44626SOL    HW135710   0.083  12.849   4.912
44626SOL    HW235711  14.863  12.770   5.002
44627SOL     OW35712   7.659  12.668   0.480
44627SOL    HW135713   7.595  12.614   0.526
44627SOL    HW235714   7.733  12.609   0.464
44628SOL     OW35715  10.661   7.268  10.600
44628SOL    HW135716  10.578   7.222  10.601
44628SOL    HW235717  10.681   7.284  10.692
44629SOL     OW35718  11.829  14.220   5.426
44629SOL    HW135719  11.806  14.312   5.412
44629SOL    HW235720  11.904  14.223   5.485
44630SOL     OW35721   9.845   2.559   0.629
44630SOL    HW135722   9.819   2.604   0.549
44630SOL    HW235723   9.795   2.602   0.698
44631SOL     OW35724   9.730   7.414  12.041
44631SOL    HW135725   9.734   7.414  11.945
44631SOL    HW235726   9.752   7.324  12.066
44632SOL     OW35727   6.886  14.389   3.912
44632SOL    HW135728   6.893  14.293   3.916
44632SOL    HW235729   6.893  14.409   3.819
44633SOL     OW35730   2.385   0.671   8.003
44633SOL    HW135731   2.339   0.727   8.066
44633SOL    HW235732   2.339   0.587   8.007
44634SOL     OW35733   2.230  12.299  14.005
44634SOL    HW135734   2.303  12.243  13.978
44634SOL    HW235735   2.211  12.272  14.094
44635SOL     OW35736   4.092   2.333   7.220
44635SOL    HW135737   3.999   2.312   7.206
44635SOL    HW235738   4.137   2.291   7.147
44636SOL     OW35739   9.754   8.782  14.119
44636SOL    HW135740   9.797   8.868  14.116
44636SOL    HW235741   9.791   8.734  14.046
44637SOL     OW35742  11.815   8.817   7.658
44637SOL    HW135743  11.736   8.766   7.676
44637SOL    HW235744  11.872   8.756   7.610
44638SOL     OW35745  11.760   8.149   5.133
44638SOL    HW135746  11.740   8.095   5.210
44638SOL    HW235747  11.829   8.100   5.087
44639SOL     OW35748   1.475   2.413   3.144
44639SOL    HW135749   1.558   2.446   3.181
44639SOL    HW235750   1.454   2.475   3.074
44640SOL     OW35751   6.189  13.439  13.088
44640SOL    HW135752   6.117  13.387  13.054
44640SOL    HW235753   6.182  13.432  13.183
44641SOL     OW35754   5.475   1.865  13.506
44641SOL    HW135755   5.525   1.936  13.465
44641SOL    HW235756   5.523   1.786  13.482
44642SOL     OW35757   0.733  12.331   4.375
44642SOL    HW135758   0.736  12.249   4.325
44642SOL    HW235759   0.821  12.367   4.367
44643SOL     OW35760  13.768  10.041   1.724
44643SOL    HW135761  13.705  10.107   1.698
44643SOL    HW235762  13.853  10.086   1.721
44644SOL     OW35763  14.202  10.141   0.874
44644SOL    HW135764  14.197  10.235   0.858
44644SOL    HW235765  14.291  10.117   0.848
44645SOL     OW35766  12.954  10.064   2.558
44645SOL    HW135767  12.887  10.096   2.618
44645SOL    HW235768  13.025  10.128   2.565
44646SOL     OW35769   3.737  11.885  12.299
44646SOL    HW135770   3.829  11.859  12.288
44646SOL    HW235771   3.693  11.804  12.325
44647SOL     OW35772  11.721   9.158   4.281
44647SOL    HW135773  11.794   9.170   4.219
44647SOL    HW235774  11.691   9.247   4.299
44648SOL     OW35775   8.009   5.072   7.481
44648SOL    HW135776   8.090   5.022   7.491
44648SOL    HW235777   7.943   5.006   7.459
44649SOL     OW35778   9.993  11.270   6.758
44649SOL    HW135779   9.901  11.294   6.764
44649SOL    HW235780  10.031  11.298   6.842
44650SOL     OW35781   0.178  14.087   5.521
44650SOL    HW135782   0.266  14.059   5.547
44650SOL    HW235783   0.170  14.057   5.430
44651SOL     OW35784   2.779   1.157   0.609
44651SOL    HW135785   2.865   1.130   0.577
44651SOL    HW235786   2.719   1.095   0.569
44652SOL     OW35787   7.217   6.689   0.674
44652SOL    HW135788   7.191   6.758   0.613
44652SOL    HW235789   7.162   6.704   0.751
44653SOL     OW35790   1.056  12.132   5.992
44653SOL    HW135791   0.978  12.119   6.046
44653SOL    HW235792   1.101  12.206   6.032
44654SOL     OW35793   3.100  14.370   4.314
44654SOL    HW135794   3.124  14.297   4.257
44654SOL    HW235795   3.011  14.351   4.342
44655SOL     OW35796   9.048   5.177  14.318
44655SOL    HW135797   9.075   5.156  14.229
44655SOL    HW235798   9.009   5.265  14.312
44656SOL     OW35799   5.448  11.322   2.681
44656SOL    HW135800   5.435  11.288   2.769
44656SOL    HW235801   5.368  11.369   2.660
44657SOL     OW35802   7.429   1.896   2.025
44657SOL    HW135803   7.348   1.898   2.077
44657SOL    HW235804   7.492   1.945   2.077
44658SOL     OW35805   4.397  11.039  11.085
44658SOL    HW135806   4.309  11.064  11.056
44658SOL    HW235807   4.408  11.084  11.169
44659SOL     OW35808   6.331   5.675   2.042
44659SOL    HW135809   6.252   5.677   2.095
44659SOL    HW235810   6.315   5.739   1.972
44660SOL     OW35811  12.121   5.559   7.034
44660SOL    HW135812  12.214   5.576   7.018
44660SOL    HW235813  12.112   5.465   7.022
44661SOL     OW35814   2.598  13.899  12.730
44661SOL    HW135815   2.573  13.935  12.645
44661SOL    HW235816   2.684  13.938  12.747
44662SOL     OW35817  14.205  13.732   1.541
44662SOL    HW135818  14.120  13.762   1.571
44662SOL    HW235819  14.188  13.648   1.498
44663SOL     OW35820   1.034  11.199   2.296
44663SOL    HW135821   1.068  11.121   2.341
44663SOL    HW235822   0.940  11.199   2.317
44664SOL     OW35823   0.614   4.192   3.754
44664SOL    HW135824   0.599   4.182   3.848
44664SOL    HW235825   0.604   4.104   3.718
44665SOL     OW35826   8.916   3.595   2.858
44665SOL    HW135827   8.911   3.554   2.944
44665SOL    HW235828   8.826   3.619   2.837
44666SOL     OW35829   4.008  10.270   5.681
44666SOL    HW135830   4.044  10.357   5.663
44666SOL    HW235831   3.973  10.277   5.770
44667SOL     OW35832   4.837  12.758   7.811
44667SOL    HW135833   4.865  12.667   7.816
44667SOL    HW235834   4.757  12.755   7.758
44668SOL     OW35835  11.827  11.607   1.921
44668SOL    HW135836  11.896  11.588   1.984
44668SOL    HW235837  11.750  11.628   1.974
44669SOL     OW35838  12.478   1.722   5.297
44669SOL    HW135839  12.489   1.685   5.384
44669SOL    HW235840  12.523   1.807   5.301
44670SOL     OW35841  14.138   5.345   4.757
44670SOL    HW135842  14.052   5.303   4.764
44670SOL    HW235843  14.140   5.379   4.668
44671SOL     OW35844   8.207   0.115   2.153
44671SOL    HW135845   8.216   0.030   2.195
44671SOL    HW235846   8.209   0.178   2.225
44672SOL     OW35847   2.211   7.608   0.828
44672SOL    HW135848   2.284   7.670   0.830
44672SOL    HW235849   2.241   7.537   0.771
44673SOL     OW35850  11.615  14.439  13.096
44673SOL    HW135851  11.618  14.523  13.050
44673SOL    HW235852  11.574  14.459  13.180
44674SOL     OW35853  12.721   8.342  11.257
44674SOL    HW135854  12.736   8.249  11.277
44674SOL    HW235855  12.632   8.359  11.286
44675SOL     OW35856   3.456   2.413   9.763
44675SOL    HW135857   3.541   2.450   9.738
44675SOL    HW235858   3.392   2.476   9.729
44676SOL     OW35859  14.644   2.213  10.301
44676SOL    HW135860  14.550   2.217  10.318
44676SOL    HW235861  14.684   2.224  10.387
44677SOL     OW35862  12.919   9.610   7.067
44677SOL    HW135863  12.829   9.635   7.090
44677SOL    HW235864  12.909   9.557   6.988
44678SOL     OW35865  10.217   1.105   9.124
44678SOL    HW135866  10.229   1.197   9.099
44678SOL    HW235867  10.124   1.089   9.110
44679SOL     OW35868   6.426   6.587  14.016
44679SOL    HW135869   6.404   6.671  13.977
44679SOL    HW235870   6.505   6.559  13.970
44680SOL     OW35871   4.554  11.158   8.025
44680SOL    HW135872   4.627  11.111   8.067
44680SOL    HW235873   4.576  11.158   7.932
44681SOL     OW35874  12.042  10.048  13.600
44681SOL    HW135875  12.050   9.971  13.657
44681SOL    HW235876  12.056  10.013  13.512
44682SOL     OW35877   6.829   9.473   7.462
44682SOL    HW135878   6.828   9.402   7.526
44682SOL    HW235879   6.869   9.435   7.384
44683SOL     OW35880   5.350   3.618   2.502
44683SOL    HW135881   5.314   3.607   2.590
44683SOL    HW235882   5.277   3.602   2.443
44684SOL     OW35883  13.260   9.476   7.338
44684SOL    HW135884  13.265   9.507   7.428
44684SOL    HW235885  13.172   9.440   7.329
44685SOL     OW35886   1.913   6.208  10.216
44685SOL    HW135887   1.853   6.204  10.290
44685SOL    HW235888   1.864   6.253  10.147
44686SOL     OW35889   1.639   5.011   6.022
44686SOL    HW135890   1.613   5.052   5.939
44686SOL    HW235891   1.727   4.977   6.006
44687SOL     OW35892   4.151   4.322   2.266
44687SOL    HW135893   4.181   4.372   2.342
44687SOL    HW235894   4.227   4.321   2.207
44688SOL     OW35895   7.492   1.077   9.913
44688SOL    HW135896   7.562   1.143   9.909
44688SOL    HW235897   7.442   1.100   9.992
44689SOL     OW35898   4.946   0.081   1.421
44689SOL    HW135899   4.994  14.871   1.421
44689SOL    HW235900   4.856   0.057   1.445
44690SOL     OW35901   6.526  13.439   6.985
44690SOL    HW135902   6.510  13.369   7.048
44690SOL    HW235903   6.517  13.397   6.899
44691SOL     OW35904  13.122   3.852   4.308
44691SOL    HW135905  13.089   3.882   4.224
44691SOL    HW235906  13.060   3.784   4.336
44692SOL     OW35907   7.457   5.766   0.583
44692SOL    HW135908   7.503   5.740   0.503
44692SOL    HW235909   7.507   5.839   0.618
44693SOL     OW35910   2.935   3.508   5.966
44693SOL    HW135911   2.912   3.458   6.045
44693SOL    HW235912   3.001   3.454   5.923
44694SOL     OW35913   8.591   7.639  14.625
44694SOL    HW135914   8.500   7.610  14.633
44694SOL    HW235915   8.595   7.682  14.540
44695SOL     OW35916   9.721  10.847  10.886
44695SOL    HW135917   9.705  10.754  10.902
44695SOL    HW235918   9.637  10.882  10.857
44696SOL     OW35919   8.245   7.955   5.850
44696SOL    HW135920   8.172   7.954   5.913
44696SOL    HW235921   8.215   8.015   5.782
44697SOL     OW35922  12.597  13.110   1.261
44697SOL    HW135923  12.530  13.079   1.323
44697SOL    HW235924  12.680  13.080   1.298
44698SOL     OW35925   0.170  11.828   2.931
44698SOL    HW135926   0.180  11.816   2.837
44698SOL    HW235927   0.185  11.740   2.968
44699SOL     OW35928  14.021   2.473   7.909
44699SOL    HW135929  13.941   2.484   7.859
44699SOL    HW235930  14.091   2.488   7.846
44700SOL     OW35931  14.313   2.379   5.479
44700SOL    HW135932  14.369   2.441   5.431
44700SOL    HW235933  14.285   2.428   5.556
44701SOL     OW35934   6.704   8.456   2.419
44701SOL    HW135935   6.787   8.464   2.466
44701SOL    HW235936   6.650   8.402   2.477
44702SOL     OW35937   4.396   2.401   0.926
44702SOL    HW135938   4.427   2.354   0.848
44702SOL    HW235939   4.372   2.488   0.894
44703SOL     OW35940   9.390   3.669   6.848
44703SOL    HW135941   9.472   3.642   6.808
44703SOL    HW235942   9.368   3.599   6.910
44704SOL     OW35943   2.648   3.300   1.722
44704SOL    HW135944   2.656   3.391   1.695
44704SOL    HW235945   2.559   3.275   1.698
44705SOL     OW35946   9.249   2.411   1.794
44705SOL    HW135947   9.183   2.364   1.742
44705SOL    HW235948   9.303   2.456   1.729
44706SOL     OW35949   8.780   8.169  12.669
44706SOL    HW135950   8.756   8.163  12.761
44706SOL    HW235951   8.848   8.236  12.666
44707SOL     OW35952   4.258   9.140  10.230
44707SOL    HW135953   4.231   9.075  10.166
44707SOL    HW235954   4.179   9.191  10.248
44708SOL     OW35955   9.924  13.894  13.568
44708SOL    HW135956   9.902  13.952  13.641
44708SOL    HW235957   9.875  13.929  13.493
44709SOL     OW35958  14.234  10.865  12.995
44709SOL    HW135959  14.175  10.940  13.004
44709SOL    HW235960  14.303  10.881  13.059
44710SOL     OW35961   4.119   7.361   8.066
44710SOL    HW135962   4.090   7.317   7.987
44710SOL    HW235963   4.189   7.305   8.101
44711SOL     OW35964   0.165   8.326   1.466
44711SOL    HW135965   0.124   8.250   1.423
44711SOL    HW235966   0.256   8.299   1.479
44712SOL     OW35967  13.774   1.721   5.895
44712SOL    HW135968  13.821   1.782   5.839
44712SOL    HW235969  13.818   1.727   5.979
44713SOL     OW35970   1.884   3.322   0.038
44713SOL    HW135971   1.923   3.275   0.112
44713SOL    HW235972   1.957   3.370  14.871
44714SOL     OW35973   4.083   3.903   3.277
44714SOL    HW135974   4.160   3.957   3.261
44714SOL    HW235975   4.066   3.860   3.194
44715SOL     OW35976  11.178   7.245   4.807
44715SOL    HW135977  11.226   7.301   4.745
44715SOL    HW235978  11.149   7.306   4.876
44716SOL     OW35979   6.786   5.406   2.913
44716SOL    HW135980   6.810   5.498   2.929
44716SOL    HW235981   6.830   5.358   2.984
44717SOL     OW35982   3.296   1.571  10.067
44717SOL    HW135983   3.230   1.586  10.134
44717SOL    HW235984   3.270   1.630   9.995
44718SOL     OW35985  13.452   2.406   7.171
44718SOL    HW135986  13.520   2.402   7.238
44718SOL    HW235987  13.493   2.451   7.097
44719SOL     OW35988   9.936   7.320   7.021
44719SOL    HW135989   9.934   7.324   7.117
44719SOL    HW235990   9.922   7.228   7.000
44720SOL     OW35991   1.831  11.366   1.400
44720SOL    HW135992   1.926  11.372   1.411
44720SOL    HW235993   1.797  11.362   1.490
44721SOL     OW35994  11.538  10.984   3.671
44721SOL    HW135995  11.590  11.044   3.617
44721SOL    HW235996  11.454  11.029   3.682
44722SOL     OW35997   5.787  11.724   2.862
44722SOL    HW135998   5.722  11.661   2.831
44722SOL    HW235999   5.780  11.720   2.958
44723SOL     OW36000   8.309  11.582  14.584
44723SOL    HW136001   8.235  11.527  14.559
44723SOL    HW236002   8.284  11.671  14.557
44724SOL     OW36003   7.403   5.834   2.181
44724SOL    HW136004   7.405   5.786   2.098
44724SOL    HW236005   7.311   5.833   2.207
44725SOL     OW36006   3.241  11.581   3.646
44725SOL    HW136007   3.169  11.556   3.588
44725SOL    HW236008   3.209  11.562   3.734
44726SOL     OW36009  10.399   4.949   2.206
44726SOL    HW136010  10.372   5.040   2.216
44726SOL    HW236011  10.447   4.929   2.286
44727SOL     OW36012   6.113   3.678   0.443
44727SOL    HW136013   6.041   3.712   0.390
44727SOL    HW236014   6.078   3.673   0.532
44728SOL     OW36015   9.143   5.058  12.455
44728SOL    HW136016   9.138   5.112  12.376
44728SOL    HW236017   9.053   5.034  12.473
44729SOL     OW36018  12.588   7.001   5.773
44729SOL    HW136019  12.510   6.947   5.784
44729SOL    HW236020  12.657   6.939   5.751
44730SOL     OW36021   2.135   2.921   6.115
44730SOL    HW136022   2.132   2.957   6.204
44730SOL    HW236023   2.184   2.986   6.065
44731SOL     OW36024   5.811  10.553   6.845
44731SOL    HW136025   5.871  10.525   6.914
44731SOL    HW236026   5.745  10.606   6.889
44732SOL     OW36027   3.004   4.824   8.285
44732SOL    HW136028   3.008   4.920   8.279
44732SOL    HW236029   3.042   4.793   8.203
44733SOL     OW36030  11.175   5.415   1.514
44733SOL    HW136031  11.162   5.427   1.420
44733SOL    HW236032  11.118   5.341   1.537
44734SOL     OW36033   7.975  11.409  13.324
44734SOL    HW136034   7.928  11.491  13.312
44734SOL    HW236035   8.066  11.430  13.301
44735SOL     OW36036  14.415   0.345   5.711
44735SOL    HW136037  14.470   0.297   5.773
44735SOL    HW236038  14.326   0.334   5.743
44736SOL     OW36039  14.271  12.594   7.404
44736SOL    HW136040  14.277  12.664   7.469
44736SOL    HW236041  14.191  12.614   7.355
44737SOL     OW36042   8.717   2.593  10.896
44737SOL    HW136043   8.627   2.579  10.865
44737SOL    HW236044   8.762   2.635  10.822
44738SOL     OW36045  13.110  12.500   1.301
44738SOL    HW136046  13.178  12.487   1.367
44738SOL    HW236047  13.098  12.414   1.260
44739SOL     OW36048   1.098  12.026   6.835
44739SOL    HW136049   1.129  11.936   6.846
44739SOL    HW236050   1.069  12.053   6.922
44740SOL     OW36051  14.502   7.020   7.734
44740SOL    HW136052  14.510   6.963   7.658
44740SOL    HW236053  14.578   7.079   7.728
44741SOL     OW36054   0.358   2.964  14.067
44741SOL    HW136055   0.349   3.058  14.052
44741SOL    HW236056   0.298   2.924  14.004
44742SOL     OW36057   1.920  11.764  14.495
44742SOL    HW136058   1.824  11.760  14.487
44742SOL    HW236059   1.952  11.725  14.414
44743SOL     OW36060   4.666   8.038   6.661
44743SOL    HW136061   4.756   8.068   6.664
44743SOL    HW236062   4.628   8.067   6.744
44744SOL     OW36063  13.725   0.600   0.816
44744SOL    HW136064  13.722   0.510   0.784
44744SOL    HW236065  13.665   0.601   0.891
44745SOL     OW36066   5.808  14.346   8.071
44745SOL    HW136067   5.721  14.311   8.087
44745SOL    HW236068   5.793  14.436   8.043
44746SOL     OW36069   2.955   1.419  13.658
44746SOL    HW136070   2.963   1.513  13.643
44746SOL    HW236071   2.898   1.411  13.734
44747SOL     OW36072  10.814  10.212  10.387
44747SOL    HW136073  10.858  10.255  10.460
44747SOL    HW236074  10.786  10.128  10.422
44748SOL     OW36075   2.619   1.153  11.072
44748SOL    HW136076   2.638   1.212  10.999
44748SOL    HW236077   2.559   1.088  11.035
44749SOL     OW36078   3.762  10.636   7.635
44749SOL    HW136079   3.695  10.639   7.567
44749SOL    HW236080   3.730  10.570   7.697
44750SOL     OW36081   0.598   1.555   3.069
44750SOL    HW136082   0.687   1.553   3.104
44750SOL    HW236083   0.570   1.463   3.071
44751SOL     OW36084   9.147   1.303   7.053
44751SOL    HW136085   9.133   1.357   6.975
44751SOL    HW236086   9.182   1.364   7.118
44752SOL     OW36087   2.062  13.855  10.004
44752SOL    HW136088   1.972  13.882   9.984
44752SOL    HW236089   2.067  13.858  10.100
44753SOL     OW36090   1.371   4.322  12.317
44753SOL    HW136091   1.433   4.388  12.284
44753SOL    HW236092   1.333   4.283  12.239
44754SOL     OW36093   6.566   3.320   2.831
44754SOL    HW136094   6.633   3.375   2.791
44754SOL    HW236095   6.535   3.371   2.906
44755SOL     OW36096  11.759   3.916   1.864
44755SOL    HW136097  11.715   3.862   1.800
44755SOL    HW236098  11.836   3.950   1.818
44756SOL     OW36099   2.406   5.442   3.045
44756SOL    HW136100   2.351   5.365   3.034
44756SOL    HW236101   2.483   5.425   2.991
44757SOL     OW36102  12.339  12.417   5.074
44757SOL    HW136103  12.380  12.341   5.115
44757SOL    HW236104  12.324  12.478   5.146
44758SOL     OW36105   2.942   1.827  10.759
44758SOL    HW136106   2.877   1.792  10.699
44758SOL    HW236107   2.943   1.921  10.741
44759SOL     OW36108   6.174   5.561   4.349
44759SOL    HW136109   6.088   5.600   4.335
44759SOL    HW236110   6.233   5.610   4.292
44760SOL     OW36111   3.043   7.416   0.049
44760SOL    HW136112   3.014   7.343  14.865
44760SOL    HW236113   3.107   7.376   0.108
44761SOL     OW36114   1.586   9.667   4.785
44761SOL    HW136115   1.598   9.577   4.817
44761SOL    HW236116   1.517   9.703   4.841
44762SOL     OW36117   4.024   9.775   0.908
44762SOL    HW136118   4.038   9.803   0.999
44762SOL    HW236119   4.030   9.856   0.857
44763SOL     OW36120   1.570  11.069  13.230
44763SOL    HW136121   1.575  11.144  13.171
44763SOL    HW236122   1.520  11.003  13.181
44764SOL     OW36123  11.044  13.920   6.800
44764SOL    HW136124  10.994  13.864   6.741
44764SOL    HW236125  11.079  13.860   6.866
44765SOL     OW36126   5.247   5.573  14.408
44765SOL    HW136127   5.327   5.583  14.460
44765SOL    HW236128   5.233   5.479  14.403
44766SOL     OW36129   2.622   9.610   9.096
44766SOL    HW136130   2.605   9.660   9.176
44766SOL    HW236131   2.587   9.523   9.114
44767SOL     OW36132  10.919   0.175   9.896
44767SOL    HW136133  10.905   0.083   9.917
44767SOL    HW236134  10.885   0.223   9.971
44768SOL     OW36135   8.760  12.025  10.059
44768SOL    HW136136   8.773  12.005   9.967
44768SOL    HW236137   8.720  12.112  10.059
44769SOL     OW36138  14.588   6.181  13.746
44769SOL    HW136139  14.593   6.086  13.758
44769SOL    HW236140  14.534   6.212  13.818
44770SOL     OW36141   3.031  11.138   4.063
44770SOL    HW136142   2.965  11.204   4.081
44770SOL    HW236143   3.115  11.181   4.083
44771SOL     OW36144   4.093  12.638   7.360
44771SOL    HW136145   4.027  12.667   7.423
44771SOL    HW236146   4.123  12.554   7.393
44772SOL     OW36147   2.836  12.066   2.247
44772SOL    HW136148   2.831  12.100   2.158
44772SOL    HW236149   2.762  12.005   2.254
44773SOL     OW36150   4.884   6.978  14.071
44773SOL    HW136151   4.788   6.974  14.072
44773SOL    HW236152   4.906   6.993  13.979
44774SOL     OW36153   3.608   0.903   6.434
44774SOL    HW136154   3.632   0.814   6.408
44774SOL    HW236155   3.610   0.902   6.530
44775SOL     OW36156  12.127   2.696   3.560
44775SOL    HW136157  12.208   2.746   3.549
44775SOL    HW236158  12.147   2.610   3.525
44776SOL     OW36159   8.711   6.420  13.160
44776SOL    HW136160   8.768   6.399  13.235
44776SOL    HW236161   8.709   6.339  13.109
44777SOL     OW36162  12.262   9.014   8.141
44777SOL    HW136163  12.180   8.965   8.150
44777SOL    HW236164  12.248   9.071   8.065
44778SOL     OW36165  14.721   1.484   0.044
44778SOL    HW136166  14.755   1.483   0.133
44778SOL    HW236167  14.641   1.432   0.049
44779SOL     OW36168   1.256  13.156   3.362
44779SOL    HW136169   1.258  13.149   3.458
44779SOL    HW236170   1.211  13.077   3.333
44780SOL     OW36171   2.928   3.304  10.066
44780SOL    HW136172   2.941   3.214  10.098
44780SOL    HW236173   2.850   3.300  10.012
44781SOL     OW36174   3.725   9.246  10.364
44781SOL    HW136175   3.656   9.281  10.420
44781SOL    HW236176   3.679   9.205  10.291
44782SOL     OW36177   9.159   0.075  13.994
44782SOL    HW136178   9.181   0.167  14.011
44782SOL    HW236179   9.064   0.072  14.005
44783SOL     OW36180   2.366   9.880   7.528
44783SOL    HW136181   2.279   9.864   7.563
44783SOL    HW236182   2.398   9.794   7.503
44784SOL     OW36183   6.493   2.702   2.579
44784SOL    HW136184   6.461   2.788   2.554
44784SOL    HW236185   6.583   2.699   2.549
44785SOL     OW36186   5.819   7.889   6.817
44785SOL    HW136187   5.890   7.920   6.873
44785SOL    HW236188   5.741   7.932   6.853
44786SOL     OW36189  10.277   0.075   3.549
44786SOL    HW136190  10.211   0.142   3.566
44786SOL    HW236191  10.232   0.009   3.497
44787SOL     OW36192   6.160   3.257   4.931
44787SOL    HW136193   6.193   3.265   4.842
44787SOL    HW236194   6.101   3.182   4.928
44788SOL     OW36195   6.290   7.772   8.760
44788SOL    HW136196   6.302   7.772   8.855
44788SOL    HW236197   6.376   7.745   8.726
44789SOL     OW36198   4.175   6.918   7.084
44789SOL    HW136199   4.149   6.999   7.038
44789SOL    HW236200   4.262   6.898   7.050
44790SOL     OW36201   3.550   1.146   8.311
44790SOL    HW136202   3.645   1.157   8.311
44790SOL    HW236203   3.528   1.128   8.220
44791SOL     OW36204   6.803   9.292  14.812
44791SOL    HW136205   6.880   9.348  14.804
44791SOL    HW236206   6.829   9.208  14.777
44792SOL     OW36207   0.783   8.943   4.080
44792SOL    HW136208   0.873   8.935   4.048
44792SOL    HW236209   0.792   8.967   4.172
44793SOL     OW36210   4.602  10.389   3.821
44793SOL    HW136211   4.691  10.354   3.811
44793SOL    HW236212   4.601  10.467   3.767
44794SOL     OW36213   4.848   1.992   5.570
44794SOL    HW136214   4.878   2.015   5.658
44794SOL    HW236215   4.829   2.076   5.529
44795SOL     OW36216   4.354   7.854  13.515
44795SOL    HW136217   4.351   7.937  13.564
44795SOL    HW236218   4.266   7.817  13.526
44796SOL     OW36219  11.630  14.372  12.191
44796SOL    HW136220  11.672  14.428  12.125
44796SOL    HW236221  11.544  14.411  12.205
44797SOL     OW36222   7.164   9.606   2.005
44797SOL    HW136223   7.113   9.588   1.926
44797SOL    HW236224   7.128   9.547   2.071
44798SOL     OW36225   8.663  14.151   9.225
44798SOL    HW136226   8.692  14.135   9.314
44798SOL    HW236227   8.596  14.220   9.233
44799SOL     OW36228  12.810   8.956   3.082
44799SOL    HW136229  12.827   8.976   3.174
44799SOL    HW236230  12.824   8.862   3.075
44800SOL     OW36231   9.775   3.952  11.450
44800SOL    HW136232   9.864   3.981  11.429
44800SOL    HW236233   9.779   3.856  11.444
44801SOL     OW36234  12.838   6.869   0.213
44801SOL    HW136235  12.802   6.836   0.131
44801SOL    HW236236  12.894   6.942   0.187
44802SOL     OW36237   3.138  11.332   7.469
44802SOL    HW136238   3.212  11.372   7.423
44802SOL    HW236239   3.067  11.396   7.461
44803SOL     OW36240   0.600   7.102   9.550
44803SOL    HW136241   0.688   7.064   9.544
44803SOL    HW236242   0.614   7.196   9.544
44804SOL     OW36243  10.564   9.113  10.581
44804SOL    HW136244  10.513   9.106  10.500
44804SOL    HW236245  10.525   9.187  10.627
44805SOL     OW36246   9.220   9.423   2.050
44805SOL    HW136247   9.217   9.330   2.024
44805SOL    HW236248   9.128   9.448   2.058
44806SOL     OW36249   7.456   4.870   6.835
44806SOL    HW136250   7.428   4.903   6.750
44806SOL    HW236251   7.516   4.799   6.815
44807SOL     OW36252   4.764   0.134   4.794
44807SOL    HW136253   4.714   0.054   4.779
44807SOL    HW236254   4.844   0.105   4.837
44808SOL     OW36255   2.619   0.704   8.198
44808SOL    HW136256   2.709   0.737   8.195
44808SOL    HW236257   2.609   0.655   8.116
44809SOL     OW36258   9.411   8.611   9.749
44809SOL    HW136259   9.410   8.554   9.672
44809SOL    HW236260   9.503   8.637   9.757
44810SOL     OW36261   4.972  12.948   1.426
44810SOL    HW136262   4.983  12.855   1.448
44810SOL    HW236263   4.880  12.966   1.447
44811SOL     OW36264  14.227   7.067   6.834
44811SOL    HW136265  14.180   7.142   6.870
44811SOL    HW236266  14.307   7.104   6.798
44812SOL     OW36267   4.176   8.102  10.516
44812SOL    HW136268   4.235   8.029  10.496
44812SOL    HW236269   4.107   8.063  10.570
44813SOL     OW36270   1.554   9.503   4.145
44813SOL    HW136271   1.641   9.544   4.150
44813SOL    HW236272   1.554   9.439   4.216
44814SOL     OW36273   2.920   9.604  14.360
44814SOL    HW136274   2.856   9.640  14.298
44814SOL    HW236275   3.005   9.626  14.324
44815SOL     OW36276  13.331  13.188  11.369
44815SOL    HW136277  13.268  13.254  11.340
44815SOL    HW236278  13.409  13.238  11.392
44816SOL     OW36279  12.424   6.427   1.658
44816SOL    HW136280  12.427   6.341   1.615
44816SOL    HW236281  12.344   6.467   1.627
44817SOL     OW36282   1.096   2.029   8.587
44817SOL    HW136283   1.068   2.042   8.678
44817SOL    HW236284   1.190   2.050   8.588
44818SOL     OW36285   6.342  10.476   0.661
44818SOL    HW136286   6.360  10.490   0.754
44818SOL    HW236287   6.403  10.535   0.616
44819SOL     OW36288   8.638   7.237  11.014
44819SOL    HW136289   8.653   7.272  11.102
44819SOL    HW236290   8.655   7.144  11.022
44820SOL     OW36291   4.443  12.707   4.733
44820SOL    HW136292   4.496  12.657   4.671
44820SOL    HW236293   4.372  12.648   4.758
44821SOL     OW36294   5.383  10.035   3.301
44821SOL    HW136295   5.308  10.062   3.354
44821SOL    HW236296   5.396  10.106   3.239
44822SOL     OW36297   5.883  12.272   6.098
44822SOL    HW136298   5.853  12.214   6.029
44822SOL    HW236299   5.901  12.355   6.053
44823SOL     OW36300  12.279   3.372   3.993
44823SOL    HW136301  12.247   3.429   4.063
44823SOL    HW236302  12.351   3.421   3.953
44824SOL     OW36303   0.855   6.042   3.029
44824SOL    HW136304   0.849   6.089   3.112
44824SOL    HW236305   0.771   6.058   2.985
44825SOL     OW36306   8.155   1.414   2.125
44825SOL    HW136307   8.109   1.468   2.189
44825SOL    HW236308   8.086   1.368   2.078
44826SOL     OW36309  10.155   3.807   1.008
44826SOL    HW136310  10.165   3.721   1.049
44826SOL    HW236311  10.244   3.829   0.979
44827SOL     OW36312  12.992  12.796  13.282
44827SOL    HW136313  12.998  12.727  13.215
44827SOL    HW236314  12.942  12.866  13.240
44828SOL     OW36315   2.223   1.085   8.449
44828SOL    HW136316   2.194   1.125   8.367
44828SOL    HW236317   2.314   1.113   8.459
44829SOL     OW36318  12.494   8.849   7.704
44829SOL    HW136319  12.502   8.889   7.791
44829SOL    HW236320  12.483   8.756   7.721
44830SOL     OW36321   6.347  13.668   8.820
44830SOL    HW136322   6.329  13.707   8.735
44830SOL    HW236323   6.263  13.629   8.846
44831SOL     OW36324   3.370  12.637   6.912
44831SOL    HW136325   3.436  12.629   6.842
44831SOL    HW236326   3.288  12.650   6.865
44832SOL     OW36327   8.421   7.647   2.691
44832SOL    HW136328   8.366   7.580   2.652
44832SOL    HW236329   8.432   7.620   2.782
44833SOL     OW36330   6.287   6.572  13.345
44833SOL    HW136331   6.304   6.481  13.320
44833SOL    HW236332   6.348   6.588  13.418
44834SOL     OW36333  12.258   7.664  12.836
44834SOL    HW136334  12.330   7.727  12.836
44834SOL    HW236335  12.224   7.668  12.926
44835SOL     OW36336   5.587  13.479   6.767
44835SOL    HW136337   5.662  13.506   6.820
44835SOL    HW236338   5.537  13.422   6.825
44836SOL     OW36339   7.807   5.206   6.457
44836SOL    HW136340   7.825   5.188   6.550
44836SOL    HW236341   7.789   5.120   6.419
44837SOL     OW36342   0.525   4.799   9.233
44837SOL    HW136343   0.576   4.785   9.153
44837SOL    HW236344   0.573   4.866   9.281
44838SOL     OW36345   4.680   9.065  11.462
44838SOL    HW136346   4.615   9.000  11.488
44838SOL    HW236347   4.633   9.125  11.404
44839SOL     OW36348   1.846   4.911   3.593
44839SOL    HW136349   1.861   4.843   3.527
44839SOL    HW236350   1.753   4.905   3.613
44840SOL     OW36351   7.495  14.070   5.334
44840SOL    HW136352   7.480  14.044   5.243
44840SOL    HW236353   7.434  14.142   5.349
44841SOL     OW36354   4.993  13.906   9.133
44841SOL    HW136355   4.997  13.811   9.122
44841SOL    HW236356   5.085  13.934   9.134
44842SOL     OW36357  13.873   4.449  11.273
44842SOL    HW136358  13.933   4.378  11.296
44842SOL    HW236359  13.786   4.415  11.294
44843SOL     OW36360  10.647   8.600  13.644
44843SOL    HW136361  10.722   8.648  13.609
44843SOL    HW236362  10.648   8.517  13.597
44844SOL     OW36363   1.315  13.063   1.864
44844SOL    HW136364   1.315  12.968   1.875
44844SOL    HW236365   1.385  13.094   1.921
44845SOL     OW36366   0.027   3.636   9.364
44845SOL    HW136367   0.082   3.557   9.364
44845SOL    HW236368  14.865   3.642   9.275
44846SOL     OW36369   9.190  12.864   9.000
44846SOL    HW136370   9.247  12.940   8.989
44846SOL    HW236371   9.234  12.809   9.065
44847SOL     OW36372   7.943   9.148   5.487
44847SOL    HW136373   7.901   9.211   5.427
44847SOL    HW236374   7.880   9.076   5.494
44848SOL     OW36375   0.900   1.000  11.662
44848SOL    HW136376   0.949   0.921  11.682
44848SOL    HW236377   0.828   0.971  11.605
44849SOL     OW36378  10.602   2.041   7.474
44849SOL    HW136379  10.537   1.972   7.486
44849SOL    HW236380  10.562   2.101   7.412
44850SOL     OW36381  11.024   8.823  12.792
44850SOL    HW136382  10.990   8.744  12.833
44850SOL    HW236383  11.031   8.801  12.699
44851SOL     OW36384   0.079  14.447  10.191
44851SOL    HW136385   0.030  14.507  10.135
44851SOL    HW236386   0.033  14.450  10.275
44852SOL     OW36387   3.562   0.574  12.918
44852SOL    HW136388   3.639   0.616  12.880
44852SOL    HW236389   3.541   0.627  12.995
44853SOL     OW36390   6.810   2.448   2.908
44853SOL    HW136391   6.735   2.487   2.863
44853SOL    HW236392   6.771   2.388   2.972
44854SOL     OW36393   9.175   2.208  11.722
44854SOL    HW136394   9.160   2.217  11.816
44854SOL    HW236395   9.133   2.285  11.684
44855SOL     OW36396   8.792   7.148  13.336
44855SOL    HW136397   8.703   7.180  13.335
44855SOL    HW236398   8.783   7.052  13.335
44856SOL     OW36399  12.576   7.049  11.860
44856SOL    HW136400  12.643   7.036  11.928
44856SOL    HW236401  12.626   7.066  11.780
44857SOL     OW36402  14.404  14.250   3.972
44857SOL    HW136403  14.379  14.206   3.891
44857SOL    HW236404  14.420  14.341   3.946
44858SOL     OW36405  14.846   0.799   9.313
44858SOL    HW136406  14.837   0.890   9.344
44858SOL    HW236407  14.820   0.803   9.221
44859SOL     OW36408   0.125   2.541   7.171
44859SOL    HW136409   0.092   2.490   7.097
44859SOL    HW236410   0.134   2.630   7.135
44860SOL     OW36411   5.772   3.179   6.451
44860SOL    HW136412   5.832   3.120   6.495
44860SOL    HW236413   5.744   3.241   6.519
44861SOL     OW36414   2.769   5.277  11.091
44861SOL    HW136415   2.839   5.262  11.027
44861SOL    HW236416   2.750   5.191  11.128
44862SOL     OW36417   6.546   3.564   6.919
44862SOL    HW136418   6.608   3.637   6.921
44862SOL    HW236419   6.492   3.576   6.997
44863SOL     OW36420  14.514   3.835   5.111
44863SOL    HW136421  14.455   3.846   5.186
44863SOL    HW236422  14.513   3.920   5.067
44864SOL     OW36423   2.046  13.411   7.506
44864SOL    HW136424   2.007  13.404   7.594
44864SOL    HW236425   2.048  13.505   7.489
44865SOL     OW36426   7.584   0.454  12.712
44865SOL    HW136427   7.583   0.491  12.800
44865SOL    HW236428   7.575   0.530  12.654
44866SOL     OW36429   2.987   8.968   9.832
44866SOL    HW136430   3.029   8.897   9.880
44866SOL    HW236431   2.901   8.933   9.809
44867SOL     OW36432   8.921  12.205   1.272
44867SOL    HW136433   8.922  12.145   1.197
44867SOL    HW236434   8.890  12.288   1.237
44868SOL     OW36435   4.362   1.152   9.583
44868SOL    HW136436   4.326   1.227   9.536
44868SOL    HW236437   4.347   1.078   9.525
44869SOL     OW36438  12.224   5.189   2.648
44869SOL    HW136439  12.189   5.278   2.653
44869SOL    HW236440  12.243   5.177   2.555
44870SOL     OW36441  12.371  10.272  10.661
44870SOL    HW136442  12.459  10.292  10.691
44870SOL    HW236443  12.333  10.357  10.639
44871SOL     OW36444   4.825   2.717   6.078
44871SOL    HW136445   4.790   2.690   5.993
44871SOL    HW236446   4.917   2.738   6.060
44872SOL     OW36447  12.706  13.211   2.905
44872SOL    HW136448  12.613  13.197   2.926
44872SOL    HW236449  12.719  13.165   2.822
44873SOL     OW36450   1.270   3.808   5.345
44873SOL    HW136451   1.319   3.748   5.288
44873SOL    HW236452   1.328   3.882   5.357
44874SOL     OW36453  12.124   0.200   3.973
44874SOL    HW136454  12.092   0.234   4.056
44874SOL    HW236455  12.048   0.204   3.914
44875SOL     OW36456  12.961  11.398   7.780
44875SOL    HW136457  13.027  11.329   7.775
44875SOL    HW236458  12.880  11.353   7.802
44876SOL     OW36459  12.967   6.932   8.789
44876SOL    HW136460  12.934   6.983   8.863
44876SOL    HW236461  12.987   6.846   8.826
44877SOL     OW36462  10.679  13.283   6.851
44877SOL    HW136463  10.636  13.319   6.928
44877SOL    HW236464  10.749  13.228   6.886
44878SOL     OW36465   0.089   9.497   8.462
44878SOL    HW136466   0.004   9.467   8.494
44878SOL    HW236467   0.068   9.548   8.384
44879SOL     OW36468  10.722  13.446   4.604
44879SOL    HW136469  10.680  13.470   4.687
44879SOL    HW236470  10.689  13.510   4.541
44880SOL     OW36471   2.998   9.644   2.824
44880SOL    HW136472   3.020   9.708   2.757
44880SOL    HW236473   2.938   9.583   2.781
44881SOL     OW36474   8.630   5.306   9.899
44881SOL    HW136475   8.586   5.378   9.944
44881SOL    HW236476   8.633   5.236   9.964
44882SOL     OW36477  11.062  13.414  13.465
44882SOL    HW136478  11.138  13.357  13.470
44882SOL    HW236479  10.987  13.355  13.459
44883SOL     OW36480  12.012   5.288  13.274
44883SOL    HW136481  11.986   5.326  13.358
44883SOL    HW236482  11.964   5.206  13.269
44884SOL     OW36483   9.322   7.063  14.865
44884SOL    HW136484   9.294   7.143  14.819
44884SOL    HW236485   9.300   6.992  14.805
44885SOL     OW36486   3.564  10.502   4.119
44885SOL    HW136487   3.491  10.560   4.097
44885SOL    HW236488   3.639  10.538   4.072
44886SOL     OW36489   9.493  13.597   5.916
44886SOL    HW136490   9.549  13.574   5.990
44886SOL    HW236491   9.404  13.586   5.949
44887SOL     OW36492   0.304   2.821  12.795
44887SOL    HW136493   0.283   2.737  12.756
44887SOL    HW236494   0.247   2.883  12.751
44888SOL     OW36495   9.696   3.233  12.070
44888SOL    HW136496   9.673   3.288  12.145
44888SOL    HW236497   9.738   3.157  12.109
44889SOL     OW36498  13.897   8.248   9.749
44889SOL    HW136499  13.983   8.258   9.790
44889SOL    HW236500  13.916   8.247   9.655
44890SOL     OW36501   2.384   0.239   4.328
44890SOL    HW136502   2.390   0.201   4.416
44890SOL    HW236503   2.473   0.268   4.309
44891SOL     OW36504  10.444   7.618   7.832
44891SOL    HW136505  10.384   7.673   7.883
44891SOL    HW236506  10.497   7.680   7.783
44892SOL     OW36507  13.250   0.791   2.212
44892SOL    HW136508  13.297   0.838   2.143
44892SOL    HW236509  13.218   0.711   2.170
44893SOL     OW36510  11.670   1.712  11.367
44893SOL    HW136511  11.722   1.747  11.439
44893SOL    HW236512  11.733   1.663  11.314
44894SOL     OW36513  12.413   9.360   3.391
44894SOL    HW136514  12.412   9.326   3.302
44894SOL    HW236515  12.372   9.291   3.444
44895SOL     OW36516  10.636  13.588  11.218
44895SOL    HW136517  10.723  13.548  11.220
44895SOL    HW236518  10.631  13.631  11.133
44896SOL     OW36519   7.747   3.319   0.296
44896SOL    HW136520   7.807   3.314   0.370
44896SOL    HW236521   7.709   3.232   0.289
44897SOL     OW36522  14.724   2.337   0.601
44897SOL    HW136523  14.743   2.431   0.605
44897SOL    HW236524  14.809   2.294   0.611
44898SOL     OW36525   9.863   4.869  14.352
44898SOL    HW136526   9.795   4.850  14.287
44898SOL    HW236527   9.872   4.789  14.403
44899SOL     OW36528   2.016   7.146  12.738
44899SOL    HW136529   2.068   7.088  12.794
44899SOL    HW236530   2.049   7.130  12.650
44900SOL     OW36531  12.960   9.062  14.627
44900SOL    HW136532  12.988   8.995  14.689
44900SOL    HW236533  12.986   9.029  14.541
44901SOL     OW36534   2.448   3.942  10.071
44901SOL    HW136535   2.445   4.036  10.091
44901SOL    HW236536   2.532   3.912  10.105
44902SOL     OW36537   7.755   2.660  11.850
44902SOL    HW136538   7.806   2.737  11.827
44902SOL    HW236539   7.744   2.612  11.768
44903SOL     OW36540  12.505   1.538  14.398
44903SOL    HW136541  12.493   1.446  14.375
44903SOL    HW236542  12.591   1.561  14.361
44904SOL     OW36543   5.667  11.146   8.480
44904SOL    HW136544   5.715  11.180   8.405
44904SOL    HW236545   5.687  11.207   8.551
44905SOL     OW36546   9.960   5.988  14.360
44905SOL    HW136547   9.969   5.916  14.422
44905SOL    HW236548   9.971   5.947  14.274
44906SOL     OW36549   8.494  13.189  13.313
44906SOL    HW136550   8.412  13.212  13.357
44906SOL    HW236551   8.525  13.112  13.360
44907SOL     OW36552   2.897   1.745   9.719
44907SOL    HW136553   2.869   1.833   9.694
44907SOL    HW236554   2.816   1.698   9.738
44908SOL     OW36555   8.123   9.803  13.779
44908SOL    HW136556   8.085   9.728  13.826
44908SOL    HW236557   8.203   9.824  13.827
44909SOL     OW36558   4.342   0.889   6.619
44909SOL    HW136559   4.430   0.916   6.592
44909SOL    HW236560   4.344   0.793   6.614
44910SOL     OW36561  12.687   0.599   2.918
44910SOL    HW136562  12.677   0.615   3.012
44910SOL    HW236563  12.615   0.648   2.878
44911SOL     OW36564   5.720  11.751   1.463
44911SOL    HW136565   5.719  11.691   1.389
44911SOL    HW236566   5.812  11.759   1.488
44912SOL     OW36567   4.080  12.666  13.956
44912SOL    HW136568   3.994  12.697  13.928
44912SOL    HW236569   4.124  12.640  13.875
44913SOL     OW36570   0.228   6.692   9.975
44913SOL    HW136571   0.195   6.698  10.065
44913SOL    HW236572   0.210   6.779   9.938
44914SOL     OW36573   6.993  13.683   9.185
44914SOL    HW136574   7.057  13.614   9.204
44914SOL    HW236575   7.022  13.758   9.236
44915SOL     OW36576   4.396   6.938   1.683
44915SOL    HW136577   4.344   6.891   1.618
44915SOL    HW236578   4.369   6.900   1.767
44916SOL     OW36579  12.209  12.867   3.882
44916SOL    HW136580  12.175  12.779   3.869
44916SOL    HW236581  12.158  12.903   3.954
44917SOL     OW36582   5.673   2.620  14.537
44917SOL    HW136583   5.646   2.614  14.446
44917SOL    HW236584   5.651   2.709  14.564
44918SOL     OW36585   7.656  14.066  11.799
44918SOL    HW136586   7.692  13.985  11.836
44918SOL    HW236587   7.727  14.129  11.806
44919SOL     OW36588  12.898   8.836  14.821
44919SOL    HW136589  12.803   8.827  14.809
44919SOL    HW236590  12.907   8.882   0.032
44920SOL     OW36591  14.491   0.523  10.327
44920SOL    HW136592  14.574   0.561  10.299
44920SOL    HW236593  14.440   0.512  10.247
44921SOL     OW36594   1.419   6.656   3.533
44921SOL    HW136595   1.336   6.688   3.497
44921SOL    HW236596   1.449   6.727   3.590
44922SOL     OW36597   8.246   2.949   1.278
44922SOL    HW136598   8.255   3.032   1.324
44922SOL    HW236599   8.160   2.955   1.236
44923SOL     OW36600  13.532  11.926   0.805
44923SOL    HW136601  13.517  11.961   0.717
44923SOL    HW236602  13.627  11.934   0.818
44924SOL     OW36603  12.151   4.087  13.430
44924SOL    HW136604  12.095   4.089  13.352
44924SOL    HW236605  12.089   4.094  13.503
44925SOL     OW36606   9.216   9.907   9.765
44925SOL    HW136607   9.199   9.952   9.683
44925SOL    HW236608   9.132   9.867   9.789
44926SOL     OW36609  12.544   6.082  12.125
44926SOL    HW136610  12.469   6.043  12.168
44926SOL    HW236611  12.619   6.060  12.180
44927SOL     OW36612   0.455   2.202   5.925
44927SOL    HW136613   0.485   2.173   6.010
44927SOL    HW236614   0.510   2.155   5.862
44928SOL     OW36615   5.476   0.776   6.780
44928SOL    HW136616   5.424   0.701   6.749
44928SOL    HW236617   5.501   0.754   6.869
44929SOL     OW36618  11.770   0.983  10.412
44929SOL    HW136619  11.779   1.075  10.435
44929SOL    HW236620  11.679   0.962  10.432
44930SOL     OW36621   7.086   2.943   8.037
44930SOL    HW136622   6.995   2.970   8.044
44930SOL    HW236623   7.090   2.856   8.076
44931SOL     OW36624   9.507   6.160  13.887
44931SOL    HW136625   9.597   6.184  13.909
44931SOL    HW236626   9.453   6.223  13.935
44932SOL     OW36627  11.335   8.928   6.697
44932SOL    HW136628  11.327   9.008   6.646
44932SOL    HW236629  11.377   8.866   6.636
44933SOL     OW36630   8.587   3.583   5.942
44933SOL    HW136631   8.676   3.617   5.936
44933SOL    HW236632   8.535   3.655   5.978
44934SOL     OW36633   1.015   3.107   3.095
44934SOL    HW136634   1.031   3.196   3.126
44934SOL    HW236635   1.057   3.051   3.160
44935SOL     OW36636   5.148  13.260  12.500
44935SOL    HW136637   5.223  13.235  12.554
44935SOL    HW236638   5.143  13.192  12.433
44936SOL     OW36639   6.666   1.171   1.530
44936SOL    HW136640   6.572   1.184   1.512
44936SOL    HW236641   6.707   1.252   1.500
44937SOL     OW36642   7.481  11.844   7.915
44937SOL    HW136643   7.397  11.858   7.872
44937SOL    HW236644   7.496  11.924   7.966
44938SOL     OW36645  13.180   1.250   5.561
44938SOL    HW136646  13.152   1.288   5.478
44938SOL    HW236647  13.274   1.233   5.550
44939SOL     OW36648  11.747   1.071   1.660
44939SOL    HW136649  11.783   1.138   1.603
44939SOL    HW236650  11.654   1.067   1.638
44940SOL     OW36651  13.669  12.626   9.010
44940SOL    HW136652  13.580  12.653   8.989
44940SOL    HW236653  13.716  12.709   9.023
44941SOL     OW36654  10.810  12.964   3.129
44941SOL    HW136655  10.816  12.984   3.036
44941SOL    HW236656  10.855  12.880   3.139
44942SOL     OW36657   6.310   3.712   0.951
44942SOL    HW136658   6.355   3.796   0.940
44942SOL    HW236659   6.316   3.694   1.045
44943SOL     OW36660   2.314   9.029   9.056
44943SOL    HW136661   2.276   9.006   8.971
44943SOL    HW236662   2.387   9.088   9.034
44944SOL     OW36663   5.566  14.057   5.018
44944SOL    HW136664   5.572  14.026   5.108
44944SOL    HW236665   5.473  14.045   4.995
44945SOL     OW36666   0.234   5.954   0.933
44945SOL    HW136667   0.172   6.026   0.948
44945SOL    HW236668   0.204   5.912   0.853
44946SOL     OW36669   9.144   5.386  13.324
44946SOL    HW136670   9.216   5.405  13.264
44946SOL    HW236671   9.161   5.438  13.402
44947SOL     OW36672   0.432  13.656  14.785
44947SOL    HW136673   0.348  13.611  14.780
44947SOL    HW236674   0.410  13.749  14.795
44948SOL     OW36675   8.498   9.598  12.772
44948SOL    HW136676   8.438   9.645  12.714
44948SOL    HW236677   8.580   9.594  12.724
44949SOL     OW36678   2.074   7.123   2.290
44949SOL    HW136679   2.050   7.161   2.205
44949SOL    HW236680   1.990   7.102   2.331
44950SOL     OW36681   7.638   9.141   4.964
44950SOL    HW136682   7.617   9.160   4.872
44950SOL    HW236683   7.684   9.057   4.961
44951SOL     OW36684   9.247   2.669   2.919
44951SOL    HW136685   9.294   2.735   2.870
44951SOL    HW236686   9.297   2.659   3.000
44952SOL     OW36687   2.761   7.309   7.586
44952SOL    HW136688   2.745   7.217   7.562
44952SOL    HW236689   2.698   7.327   7.655
44953SOL     OW36690   3.040   0.275   4.439
44953SOL    HW136691   2.978   0.234   4.378
44953SOL    HW236692   3.059   0.206   4.503
44954SOL     OW36693   3.127   0.602  12.349
44954SOL    HW136694   3.217   0.617  12.320
44954SOL    HW236695   3.130   0.520  12.397
44955SOL     OW36696   3.084   5.702   5.745
44955SOL    HW136697   2.991   5.678   5.745
44955SOL    HW236698   3.115   5.676   5.832
44956SOL     OW36699   6.137   7.816  14.036
44956SOL    HW136700   6.124   7.876  13.962
44956SOL    HW236701   6.230   7.791  14.030
44957SOL     OW36702  14.317   0.495   0.136
44957SOL    HW136703  14.340   0.459   0.221
44957SOL    HW236704  14.223   0.479   0.127
44958SOL     OW36705   6.950  14.025   8.662
44958SOL    HW136706   6.876  14.081   8.638
44958SOL    HW236707   6.932  13.941   8.619
44959SOL     OW36708  13.808  13.185   2.013
44959SOL    HW136709  13.782  13.263   1.963
44959SOL    HW236710  13.778  13.204   2.102
44960SOL     OW36711  11.422  11.926   7.202
44960SOL    HW136712  11.461  12.002   7.245
44960SOL    HW236713  11.351  11.899   7.261
44961SOL     OW36714   8.348   3.155   4.539
44961SOL    HW136715   8.353   3.155   4.635
44961SOL    HW236716   8.376   3.067   4.514
44962SOL     OW36717   7.441   7.058  13.924
44962SOL    HW136718   7.394   7.128  13.971
44962SOL    HW236719   7.389   6.979  13.942
44963SOL     OW36720  13.125  14.720   6.303
44963SOL    HW136721  13.108  14.666   6.380
44963SOL    HW236722  13.050  14.778   6.297
44964SOL     OW36723  14.528   5.410  14.416
44964SOL    HW136724  14.444   5.404  14.371
44964SOL    HW236725  14.585   5.348  14.370
44965SOL     OW36726   9.818   9.797  13.574
44965SOL    HW136727   9.902   9.843  13.566
44965SOL    HW236728   9.840   9.715  13.619
44966SOL     OW36729   9.738   8.646  12.976
44966SOL    HW136730   9.708   8.730  12.940
44966SOL    HW236731   9.831   8.643  12.955
44967SOL     OW36732   5.187   9.226   6.716
44967SOL    HW136733   5.219   9.298   6.662
44967SOL    HW236734   5.175   9.153   6.654
44968SOL     OW36735   4.329   7.120   4.906
44968SOL    HW136736   4.420   7.090   4.905
44968SOL    HW236737   4.312   7.144   4.997
44969SOL     OW36738   7.265   6.224  14.031
44969SOL    HW136739   7.264   6.292  14.098
44969SOL    HW236740   7.348   6.236  13.985
44970SOL     OW36741   6.931   9.417  13.724
44970SOL    HW136742   6.956   9.479  13.792
44970SOL    HW236743   6.889   9.345  13.770
44971SOL     OW36744  12.419   9.503  13.836
44971SOL    HW136745  12.384   9.530  13.751
44971SOL    HW236746  12.343   9.503  13.894
44972SOL     OW36747  14.020   8.695   4.523
44972SOL    HW136748  13.954   8.763   4.540
44972SOL    HW236749  14.091   8.742   4.478
44973SOL     OW36750   8.496   7.291  13.329
44973SOL    HW136751   8.427   7.226  13.314
44973SOL    HW236752   8.494   7.346  13.251
44974SOL     OW36753  13.244  14.866   7.222
44974SOL    HW136754  13.241   0.050   7.145
44974SOL    HW236755  13.227   0.052   7.295
44975SOL     OW36756  13.282   1.455   8.935
44975SOL    HW136757  13.323   1.541   8.949
44975SOL    HW236758  13.305   1.405   9.014
44976SOL     OW36759   9.029   3.778   3.162
44976SOL    HW136760   9.116   3.798   3.196
44976SOL    HW236761   8.992   3.863   3.138
44977SOL     OW36762   0.914   9.924   5.143
44977SOL    HW136763   0.857   9.985   5.095
44977SOL    HW236764   0.909   9.954   5.234
44978SOL     OW36765   2.165  10.029   8.361
44978SOL    HW136766   2.234   9.989   8.414
44978SOL    HW236767   2.188  10.122   8.357
44979SOL     OW36768   9.679   1.844   9.332
44979SOL    HW136769   9.749   1.900   9.298
44979SOL    HW236770   9.695   1.758   9.293
44980SOL     OW36771   0.164   1.152   6.804
44980SOL    HW136772   0.121   1.208   6.868
44980SOL    HW236773   0.250   1.193   6.791
44981SOL     OW36774   6.516   8.683  13.227
44981SOL    HW136775   6.595   8.656  13.274
44981SOL    HW236776   6.548   8.735  13.153
44982SOL     OW36777   9.120  11.037   6.102
44982SOL    HW136778   9.212  11.064   6.096
44982SOL    HW236779   9.123  10.949   6.139
44983SOL     OW36780   1.107  10.992   8.872
44983SOL    HW136781   1.149  11.025   8.792
44983SOL    HW236782   1.014  10.996   8.853
44984SOL     OW36783   0.671  10.118  13.075
44984SOL    HW136784   0.604  10.186  13.063
44984SOL    HW236785   0.633  10.057  13.138
44985SOL     OW36786   5.763   0.412   4.986
44985SOL    HW136787   5.823   0.452   5.049
44985SOL    HW236788   5.803   0.328   4.964
44986SOL     OW36789   0.807   4.573   0.818
44986SOL    HW136790   0.830   4.546   0.907
44986SOL    HW236791   0.711   4.578   0.818
44987SOL     OW36792  13.237  14.859   7.558
44987SOL    HW136793  13.254   0.080   7.564
44987SOL    HW236794  13.324  14.818   7.560
44988SOL     OW36795   2.260   2.180   5.649
44988SOL    HW136796   2.299   2.246   5.593
44988SOL    HW236797   2.279   2.097   5.605
44989SOL     OW36798  13.273  12.128  11.057
44989SOL    HW136799  13.357  12.102  11.095
44989SOL    HW236800  13.213  12.056  11.078
44990SOL     OW36801  13.651   1.857   2.762
44990SOL    HW136802  13.669   1.911   2.685
44990SOL    HW236803  13.615   1.776   2.727
44991SOL     OW36804   7.041   1.989  12.120
44991SOL    HW136805   7.128   2.029  12.123
44991SOL    HW236806   6.981   2.062  12.107
44992SOL     OW36807   9.758   1.794  13.225
44992SOL    HW136808   9.722   1.866  13.277
44992SOL    HW236809   9.685   1.734  13.214
44993SOL     OW36810   3.471   5.312   5.747
44993SOL    HW136811   3.449   5.219   5.740
44993SOL    HW236812   3.566   5.315   5.738
44994SOL     OW36813   5.313  14.149  13.093
44994SOL    HW136814   5.316  14.216  13.161
44994SOL    HW236815   5.219  14.132  13.081
44995SOL     OW36816   3.062   5.192   5.824
44995SOL    HW136817   3.015   5.259   5.774
44995SOL    HW236818   3.155   5.209   5.807
44996SOL     OW36819   6.129  14.562   1.199
44996SOL    HW136820   6.126  14.607   1.283
44996SOL    HW236821   6.180  14.483   1.216
44997SOL     OW36822  10.926   1.021   1.805
44997SOL    HW136823  10.937   1.104   1.758
44997SOL    HW236824  10.879   1.046   1.885
44998SOL     OW36825   7.004   5.211  12.092
44998SOL    HW136826   6.944   5.212  12.017
44998SOL    HW236827   7.069   5.144  12.069
44999SOL     OW36828   5.477   8.868  13.762
44999SOL    HW136829   5.407   8.802  13.755
44999SOL    HW236830   5.521   8.848  13.844
45000SOL     OW36831   3.164   1.246   2.894
45000SOL    HW136832   3.136   1.337   2.891
45000SOL    HW236833   3.110   1.205   2.961
45001SOL     OW36834   3.628   8.970   4.756
45001SOL    HW136835   3.633   9.017   4.839
45001SOL    HW236836   3.562   9.017   4.705
45002SOL     OW36837   7.792   3.667   9.541
45002SOL    HW136838   7.794   3.741   9.602
45002SOL    HW236839   7.699   3.655   9.522
45003SOL     OW36840   5.093   9.988   4.431
45003SOL    HW136841   5.155   9.921   4.460
45003SOL    HW236842   5.021   9.938   4.393
45004SOL     OW36843   2.054   7.189   1.555
45004SOL    HW136844   2.045   7.272   1.508
45004SOL    HW236845   2.115   7.207   1.626
45005SOL     OW36846   4.380   3.245   2.275
45005SOL    HW136847   4.340   3.328   2.250
45005SOL    HW236848   4.422   3.262   2.359
45006SOL     OW36849  10.541   3.030   9.673
45006SOL    HW136850  10.484   3.105   9.692
45006SOL    HW236851  10.623   3.070   9.644
45007SOL     OW36852  10.410   2.692   0.640
45007SOL    HW136853  10.424   2.613   0.588
45007SOL    HW236854  10.316   2.691   0.659
45008SOL     OW36855   6.078   8.313  12.105
45008SOL    HW136856   6.021   8.330  12.180
45008SOL    HW236857   6.047   8.230  12.069
45009SOL     OW36858   0.443   7.120  13.301
45009SOL    HW136859   0.528   7.078  13.289
45009SOL    HW236860   0.393   7.096  13.223
45010SOL     OW36861   7.748   5.372  13.366
45010SOL    HW136862   7.729   5.459  13.329
45010SOL    HW236863   7.771   5.319  13.290
45011SOL     OW36864   8.402   3.597  14.662
45011SOL    HW136865   8.363   3.523  14.614
45011SOL    HW236866   8.404   3.668  14.598
45012SOL     OW36867   9.055   8.044   8.975
45012SOL    HW136868   9.064   8.081   8.887
45012SOL    HW236869   8.960   8.043   8.990
45013SOL     OW36870  11.216   5.950  12.548
45013SOL    HW136871  11.286   5.966  12.612
45013SOL    HW236872  11.136   5.947  12.601
45014SOL     OW36873   1.191  11.927   2.340
45014SOL    HW136874   1.170  11.967   2.256
45014SOL    HW236875   1.212  11.836   2.319
45015SOL     OW36876   3.973  14.510   7.952
45015SOL    HW136877   3.886  14.471   7.942
45015SOL    HW236878   4.019  14.450   8.011
45016SOL     OW36879  12.051  14.034   6.573
45016SOL    HW136880  12.135  14.046   6.529
45016SOL    HW236881  12.069  13.967   6.640
45017SOL     OW36882   4.064  14.390   2.772
45017SOL    HW136883   4.029  14.446   2.703
45017SOL    HW236884   4.118  14.326   2.726
45018SOL     OW36885  11.673  14.318   3.413
45018SOL    HW136886  11.596  14.362   3.377
45018SOL    HW236887  11.725  14.389   3.452
45019SOL     OW36888   7.218   0.387  12.181
45019SOL    HW136889   7.169   0.466  12.159
45019SOL    HW236890   7.265   0.410  12.261
45020SOL     OW36891   4.727  12.082   9.747
45020SOL    HW136892   4.747  12.126   9.830
45020SOL    HW236893   4.667  12.141   9.702
45021SOL     OW36894   6.381   0.425   1.098
45021SOL    HW136895   6.355   0.504   1.147
45021SOL    HW236896   6.447   0.384   1.153
45022SOL     OW36897  13.703   8.338  13.943
45022SOL    HW136898  13.721   8.278  14.015
45022SOL    HW236899  13.637   8.292  13.890
45023SOL     OW36900  11.003  13.145   0.923
45023SOL    HW136901  11.050  13.173   1.001
45023SOL    HW236902  11.007  13.220   0.864
45024SOL     OW36903  12.143   6.058  11.896
45024SOL    HW136904  12.116   6.021  11.980
45024SOL    HW236905  12.202   6.130  11.919
45025SOL     OW36906   4.342   7.318   8.881
45025SOL    HW136907   4.404   7.307   8.954
45025SOL    HW236908   4.260   7.345   8.923
45026SOL     OW36909  11.085   6.245  14.041
45026SOL    HW136910  11.045   6.326  14.072
45026SOL    HW236911  11.020   6.177  14.060
45027SOL     OW36912   0.930  13.363   9.825
45027SOL    HW136913   1.017  13.356   9.785
45027SOL    HW236914   0.922  13.283   9.877
45028SOL     OW36915   8.179   8.652   6.298
45028SOL    HW136916   8.193   8.711   6.224
45028SOL    HW236917   8.104   8.689   6.345
45029SOL     OW36918   8.131   3.853   8.461
45029SOL    HW136919   8.053   3.875   8.410
45029SOL    HW236920   8.173   3.782   8.412
45030SOL     OW36921   9.262   2.228   4.018
45030SOL    HW136922   9.290   2.304   3.968
45030SOL    HW236923   9.328   2.161   3.999
45031SOL     OW36924  11.663   9.498   8.356
45031SOL    HW136925  11.665   9.504   8.260
45031SOL    HW236926  11.695   9.410   8.374
45032SOL     OW36927   7.848  10.764  11.169
45032SOL    HW136928   7.835  10.697  11.236
45032SOL    HW236929   7.829  10.719  11.087
45033SOL     OW36930   7.767  12.623   3.355
45033SOL    HW136931   7.853  12.638   3.316
45033SOL    HW236932   7.783  12.560   3.426
45034SOL     OW36933   3.526   8.059   7.149
45034SOL    HW136934   3.490   8.001   7.216
45034SOL    HW236935   3.615   8.026   7.134
45035SOL     OW36936  12.866  12.330   3.542
45035SOL    HW136937  12.813  12.328   3.462
45035SOL    HW236938  12.905  12.418   3.543
45036SOL     OW36939   1.899  10.924   6.101
45036SOL    HW136940   1.896  11.011   6.061
45036SOL    HW236941   1.959  10.874   6.045
45037SOL     OW36942  12.020   3.664  14.259
45037SOL    HW136943  11.953   3.705  14.203
45037SOL    HW236944  12.102   3.680  14.213
45038SOL     OW36945   4.553   9.308  11.939
45038SOL    HW136946   4.623   9.268  11.887
45038SOL    HW236947   4.596   9.333  12.021
45039SOL     OW36948  12.629   5.555   8.900
45039SOL    HW136949  12.571   5.535   8.974
45039SOL    HW236950  12.588   5.630   8.858
45040SOL     OW36951  13.041  12.467  13.351
45040SOL    HW136952  13.040  12.509  13.265
45040SOL    HW236953  13.043  12.540  13.413
45041SOL     OW36954   7.704  10.038  12.640
45041SOL    HW136955   7.689   9.949  12.671
45041SOL    HW236956   7.791  10.036  12.601
45042SOL     OW36957   8.648   1.882   3.145
45042SOL    HW136958   8.721   1.942   3.157
45042SOL    HW236959   8.594   1.924   3.078
45043SOL     OW36960   2.910   6.713   5.807
45043SOL    HW136961   2.976   6.738   5.742
45043SOL    HW236962   2.959   6.666   5.875
45044SOL     OW36963   9.978   3.965  14.190
45044SOL    HW136964   9.978   3.891  14.129
45044SOL    HW236965   9.999   4.041  14.134
45045SOL     OW36966   6.868  11.181  11.407
45045SOL    HW136967   6.852  11.249  11.473
45045SOL    HW236968   6.849  11.099  11.452
45046SOL     OW36969   9.837   8.286  10.858
45046SOL    HW136970   9.856   8.339  10.781
45046SOL    HW236971   9.746   8.258  10.846
45047SOL     OW36972   6.534  11.745   4.266
45047SOL    HW136973   6.439  11.747   4.280
45047SOL    HW236974   6.570  11.712   4.348
45048SOL     OW36975   3.521   6.281   9.531
45048SOL    HW136976   3.457   6.334   9.579
45048SOL    HW236977   3.528   6.324   9.445
45049SOL     OW36978  12.132   0.397   5.728
45049SOL    HW136979  12.062   0.387   5.792
45049SOL    HW236980  12.093   0.444   5.655
45050SOL     OW36981  13.807  14.449   4.980
45050SOL    HW136982  13.741  14.506   5.019
45050SOL    HW236983  13.784  14.361   5.011
45051SOL     OW36984  14.509  12.547   3.451
45051SOL    HW136985  14.489  12.605   3.524
45051SOL    HW236986  14.567  12.481   3.488
45052SOL     OW36987   6.558   6.287   4.654
45052SOL    HW136988   6.538   6.231   4.728
45052SOL    HW236989   6.494   6.262   4.587
45053SOL     OW36990   8.861  10.966   8.334
45053SOL    HW136991   8.915  10.912   8.276
45053SOL    HW236992   8.855  11.050   8.289
45054SOL     OW36993   3.679   7.934  14.872
45054SOL    HW136994   3.674   8.027   0.021
45054SOL    HW236995   3.729   7.895   0.072
45055SOL     OW36996   1.278  12.035   5.594
45055SOL    HW136997   1.210  12.098   5.617
45055SOL    HW236998   1.285  11.978   5.670
45056SOL     OW36999   0.532  10.727   0.732
45056SOL    HW137000   0.521  10.736   0.637
45056SOL    HW237001   0.530  10.817   0.764
45057SOL     OW37002  12.981   0.086   6.049
45057SOL    HW137003  13.034   0.076   5.970
45057SOL    HW237004  12.924   0.009   6.048
45058SOL     OW37005   6.883   5.016   4.812
45058SOL    HW137006   6.859   4.960   4.886
45058SOL    HW237007   6.926   5.091   4.852
45059SOL     OW37008  12.323   6.011  11.481
45059SOL    HW137009  12.232   6.035  11.498
45059SOL    HW237010  12.373   6.059  11.548
45060SOL     OW37011   7.025   0.087  11.635
45060SOL    HW137012   6.944   0.134  11.655
45060SOL    HW237013   7.012   0.054  11.546
45061SOL     OW37014   6.788   2.487   5.844
45061SOL    HW137015   6.758   2.404   5.882
45061SOL    HW237016   6.752   2.487   5.755
45062SOL     OW37017   8.660   0.062   4.318
45062SOL    HW137018   8.659   0.023   4.405
45062SOL    HW237019   8.572   0.098   4.307
45063SOL     OW37020   9.576   4.223   1.609
45063SOL    HW137021   9.497   4.274   1.589
45063SOL    HW237022   9.544   4.151   1.663
45064SOL     OW37023   3.555   5.344  11.236
45064SOL    HW137024   3.636   5.369  11.192
45064SOL    HW237025   3.583   5.287  11.308
45065SOL     OW37026   6.344   2.915   2.104
45065SOL    HW137027   6.432   2.948   2.089
45065SOL    HW237028   6.299   2.987   2.149
45066SOL     OW37029  10.953   0.118   2.921
45066SOL    HW137030  10.888   0.154   2.982
45066SOL    HW237031  10.901   0.072   2.856
45067SOL     OW37032  14.856  14.442   8.001
45067SOL    HW137033  14.773  14.479   8.032
45067SOL    HW237034  14.858  14.463   7.908
45068SOL     OW37035  12.361  10.519   3.407
45068SOL    HW137036  12.441  10.547   3.364
45068SOL    HW237037  12.291  10.543   3.346
45069SOL     OW37038  11.357  10.881   9.469
45069SOL    HW137039  11.388  10.797   9.436
45069SOL    HW237040  11.296  10.859   9.540
45070SOL     OW37041   6.324   8.336   5.274
45070SOL    HW137042   6.263   8.263   5.267
45070SOL    HW237043   6.269   8.413   5.281
45071SOL     OW37044  10.572   7.910  12.370
45071SOL    HW137045  10.515   7.979  12.404
45071SOL    HW237046  10.594   7.940  12.282
45072SOL     OW37047  13.134   2.568  11.579
45072SOL    HW137048  13.075   2.622  11.632
45072SOL    HW237049  13.104   2.478  11.593
45073SOL     OW37050   2.812   9.525   4.842
45073SOL    HW137051   2.867   9.510   4.765
45073SOL    HW237052   2.855   9.476   4.912
45074SOL     OW37053  14.458   6.083  11.611
45074SOL    HW137054  14.364   6.082  11.593
45074SOL    HW237055  14.475   6.001  11.657
45075SOL     OW37056   4.727   7.953   5.103
45075SOL    HW137057   4.780   7.888   5.149
45075SOL    HW237058   4.790   8.013   5.065
45076SOL     OW37059  14.624   2.625   3.492
45076SOL    HW137060  14.617   2.530   3.483
45076SOL    HW237061  14.687   2.652   3.424
45077SOL     OW37062   9.084   8.143   5.767
45077SOL    HW137063   9.084   8.198   5.689
45077SOL    HW237064   8.993   8.115   5.777
45078SOL     OW37065   8.316   8.556   8.098
45078SOL    HW137066   8.297   8.477   8.148
45078SOL    HW237067   8.412   8.566   8.104
45079SOL     OW37068   4.262   9.360   5.124
45079SOL    HW137069   4.257   9.394   5.035
45079SOL    HW237070   4.333   9.296   5.121
45080SOL     OW37071  13.190  11.229  11.305
45080SOL    HW137072  13.136  11.303  11.332
45080SOL    HW237073  13.140  11.152  11.331
45081SOL     OW37074   5.129   2.735   6.940
45081SOL    HW137075   5.170   2.650   6.958
45081SOL    HW237076   5.156   2.790   7.013
45082SOL     OW37077   9.703   3.841   9.620
45082SOL    HW137078   9.752   3.875   9.695
45082SOL    HW237079   9.750   3.761   9.596
45083SOL     OW37080  12.396   5.509   6.703
45083SOL    HW137081  12.463   5.574   6.686
45083SOL    HW237082  12.313   5.556   6.693
45084SOL     OW37083   9.114   7.917  11.445
45084SOL    HW137084   9.019   7.916  11.456
45084SOL    HW237085   9.127   7.896  11.352
45085SOL     OW37086   6.097  10.244   5.623
45085SOL    HW137087   6.007  10.232   5.592
45085SOL    HW237088   6.088  10.268   5.715
45086SOL     OW37089   8.444   5.524   5.209
45086SOL    HW137090   8.508   5.468   5.166
45086SOL    HW237091   8.483   5.543   5.295
45087SOL     OW37092   9.919  13.567  11.456
45087SOL    HW137093   9.896  13.634  11.392
45087SOL    HW237094   9.844  13.508  11.458
45088SOL     OW37095  12.881  13.526   7.221
45088SOL    HW137096  12.861  13.591   7.154
45088SOL    HW237097  12.869  13.442   7.177
45089SOL     OW37098   2.121   2.118   0.153
45089SOL    HW137099   2.051   2.080   0.100
45089SOL    HW237100   2.092   2.108   0.243
45090SOL     OW37101   1.412  11.838  10.312
45090SOL    HW137102   1.356  11.820  10.388
45090SOL    HW237103   1.463  11.758  10.300
45091SOL     OW37104  13.282   0.590   0.746
45091SOL    HW137105  13.367   0.633   0.750
45091SOL    HW237106  13.238   0.614   0.828
45092SOL     OW37107   6.180  12.954   1.964
45092SOL    HW137108   6.253  12.915   2.013
45092SOL    HW237109   6.131  12.878   1.931
45093SOL     OW37110  13.152  11.087  13.524
45093SOL    HW137111  13.242  11.065  13.499
45093SOL    HW237112  13.122  11.012  13.575
45094SOL     OW37113   9.536   0.480   5.801
45094SOL    HW137114   9.456   0.517   5.839
45094SOL    HW237115   9.606   0.536   5.833
45095SOL     OW37116   8.829   3.728   4.781
45095SOL    HW137117   8.921   3.752   4.795
45095SOL    HW237118   8.782   3.773   4.850
45096SOL     OW37119  11.978  14.068  10.235
45096SOL    HW137120  11.980  13.981  10.275
45096SOL    HW237121  12.034  14.060  10.158
45097SOL     OW37122  10.425  11.609   3.088
45097SOL    HW137123  10.340  11.605   3.045
45097SOL    HW237124  10.486  11.637   3.019
45098SOL     OW37125  13.464   3.614   4.846
45098SOL    HW137126  13.535   3.627   4.908
45098SOL    HW237127  13.506   3.585   4.765
45099SOL     OW37128   1.621   3.900   9.719
45099SOL    HW137129   1.557   3.861   9.660
45099SOL    HW237130   1.570   3.932   9.793
45100SOL     OW37131   0.415  11.689   7.279
45100SOL    HW137132   0.406  11.619   7.214
45100SOL    HW237133   0.438  11.766   7.228
45101SOL     OW37134   6.525   4.962  13.364
45101SOL    HW137135   6.566   5.007  13.291
45101SOL    HW237136   6.598   4.936  13.420
45102SOL     OW37137   2.990   3.361   7.558
45102SOL    HW137138   3.043   3.438   7.540
45102SOL    HW237139   2.938   3.385   7.635
45103SOL     OW37140   5.232  11.599  12.797
45103SOL    HW137141   5.230  11.672  12.735
45103SOL    HW237142   5.313  11.612  12.846
45104SOL     OW37143   7.987   1.677   6.746
45104SOL    HW137144   7.963   1.587   6.726
45104SOL    HW237145   7.989   1.681   6.841
45105SOL     OW37146   9.235   6.170  14.261
45105SOL    HW137147   9.299   6.198  14.195
45105SOL    HW237148   9.192   6.094  14.223
45106SOL     OW37149   5.167   7.407   4.029
45106SOL    HW137150   5.194   7.499   4.029
45106SOL    HW237151   5.247   7.359   4.052
45107SOL     OW37152   0.652  11.728   9.892
45107SOL    HW137153   0.730  11.673   9.884
45107SOL    HW237154   0.654  11.760   9.982
45108SOL     OW37155  11.082  11.560   7.712
45108SOL    HW137156  11.092  11.465   7.701
45108SOL    HW237157  11.008  11.569   7.773
45109SOL     OW37158  10.176   1.515   0.117
45109SOL    HW137159  10.157   1.422   0.105
45109SOL    HW237160  10.169   1.529   0.211
45110SOL     OW37161   5.099  12.352   3.021
45110SOL    HW137162   5.135  12.339   2.933
45110SOL    HW237163   5.170  12.393   3.070
45111SOL     OW37164   9.791   5.234   0.960
45111SOL    HW137165   9.874   5.229   0.911
45111SOL    HW237166   9.774   5.328   0.969
45112SOL     OW37167  10.514   5.098   5.822
45112SOL    HW137168  10.601   5.113   5.784
45112SOL    HW237169  10.484   5.016   5.782
45113SOL     OW37170   3.301  12.717  13.172
45113SOL    HW137171   3.384  12.672  13.189
45113SOL    HW237172   3.309  12.749  13.082
45114SOL     OW37173  10.985   7.697  13.802
45114SOL    HW137174  10.935   7.756  13.858
45114SOL    HW237175  10.929   7.684  13.725
45115SOL     OW37176   4.700   8.510   2.085
45115SOL    HW137177   4.732   8.421   2.069
45115SOL    HW237178   4.751   8.540   2.160
45116SOL     OW37179   7.207   3.093   3.763
45116SOL    HW137180   7.266   3.133   3.826
45116SOL    HW237181   7.146   3.041   3.816
45117SOL     OW37182  11.652   8.531   0.455
45117SOL    HW137183  11.672   8.438   0.440
45117SOL    HW237184  11.727   8.564   0.505
45118SOL     OW37185  14.300  12.439   3.813
45118SOL    HW137186  14.362  12.511   3.822
45118SOL    HW237187  14.267  12.446   3.724
45119SOL     OW37188  11.429   6.454  12.095
45119SOL    HW137189  11.361   6.442  12.029
45119SOL    HW237190  11.511   6.453  12.045
45120SOL     OW37191  10.924  13.349   2.045
45120SOL    HW137192  10.952  13.258   2.046
45120SOL    HW237193  11.005  13.399   2.036
45121SOL     OW37194   2.515   7.328  11.117
45121SOL    HW137195   2.455   7.375  11.058
45121SOL    HW237196   2.495   7.236  11.102
45122SOL     OW37197   0.565   2.094   5.132
45122SOL    HW137198   0.553   2.000   5.133
45122SOL    HW237199   0.497   2.127   5.074
45123SOL     OW37200   3.872   1.204   1.485
45123SOL    HW137201   3.853   1.287   1.442
45123SOL    HW237202   3.956   1.218   1.528
45124SOL     OW37203  11.830  11.996   6.235
45124SOL    HW137204  11.788  12.055   6.297
45124SOL    HW237205  11.783  11.913   6.245
45125SOL     OW37206   0.585   7.715   5.352
45125SOL    HW137207   0.564   7.624   5.374
45125SOL    HW237208   0.556   7.765   5.429
45126SOL     OW37209  12.495   7.157   8.053
45126SOL    HW137210  12.484   7.107   8.134
45126SOL    HW237211  12.433   7.230   8.062
45127SOL     OW37212   5.051  11.679  12.137
45127SOL    HW137213   5.087  11.632  12.212
45127SOL    HW237214   4.964  11.707  12.165
45128SOL     OW37215   0.460  13.677  10.005
45128SOL    HW137216   0.372  13.639   9.999
45128SOL    HW237217   0.517  13.602  10.024
45129SOL     OW37218   6.063  11.702   3.166
45129SOL    HW137219   6.087  11.619   3.124
45129SOL    HW237220   5.970  11.692   3.188
45130SOL     OW37221   7.961   6.407   2.868
45130SOL    HW137222   8.035   6.355   2.837
45130SOL    HW237223   7.951   6.476   2.803
45131SOL     OW37224  13.664   4.655   0.916
45131SOL    HW137225  13.684   4.593   0.846
45131SOL    HW237226  13.642   4.600   0.991
45132SOL     OW37227  12.254   8.097   9.958
45132SOL    HW137228  12.271   8.043   9.881
45132SOL    HW237229  12.203   8.040  10.016
45133SOL     OW37230   9.417   8.426  12.359
45133SOL    HW137231   9.396   8.333  12.351
45133SOL    HW237232   9.509   8.432  12.331
45134SOL     OW37233   4.584   6.662   6.554
45134SOL    HW137234   4.623   6.700   6.475
45134SOL    HW237235   4.615   6.571   6.554
45135SOL     OW37236   5.252   6.034   5.332
45135SOL    HW137237   5.226   5.943   5.348
45135SOL    HW237238   5.240   6.046   5.238
45136SOL     OW37239   8.064   5.919   2.108
45136SOL    HW137240   8.088   5.975   2.034
45136SOL    HW237241   8.129   5.849   2.106
45137SOL     OW37242   2.746   8.438   5.890
45137SOL    HW137243   2.784   8.518   5.926
45137SOL    HW237244   2.804   8.368   5.919
45138SOL     OW37245  12.145   6.089   0.821
45138SOL    HW137246  12.093   6.083   0.902
45138SOL    HW237247  12.175   6.180   0.820
45139SOL     OW37248   5.560   5.846   7.229
45139SOL    HW137249   5.518   5.862   7.145
45139SOL    HW237250   5.529   5.759   7.255
45140SOL     OW37251   9.663   7.214   0.545
45140SOL    HW137252   9.634   7.291   0.593
45140SOL    HW237253   9.672   7.243   0.455
45141SOL     OW37254  12.114  13.682   9.762
45141SOL    HW137255  12.202  13.675   9.725
45141SOL    HW237256  12.121  13.643   9.849
45142SOL     OW37257  10.196   3.653   7.364
45142SOL    HW137258  10.176   3.709   7.438
45142SOL    HW237259  10.262   3.592   7.397
45143SOL     OW37260   3.851   3.328   5.263
45143SOL    HW137261   3.780   3.389   5.243
45143SOL    HW237262   3.903   3.373   5.330
45144SOL     OW37263   5.228   7.662   6.412
45144SOL    HW137264   5.272   7.639   6.494
45144SOL    HW237265   5.266   7.602   6.347
45145SOL     OW37266  10.776   1.077   5.388
45145SOL    HW137267  10.838   1.135   5.432
45145SOL    HW237268  10.694   1.126   5.387
45146SOL     OW37269  11.428   7.184   6.325
45146SOL    HW137270  11.422   7.109   6.266
45146SOL    HW237271  11.356   7.242   6.298
45147SOL     OW37272   2.226  13.052   3.259
45147SOL    HW137273   2.290  13.102   3.309
45147SOL    HW237274   2.209  13.107   3.182
45148SOL     OW37275   2.121   5.463   6.096
45148SOL    HW137276   2.034   5.443   6.131
45148SOL    HW237277   2.159   5.523   6.159
45149SOL     OW37278   3.929  14.529   2.093
45149SOL    HW137279   4.018  14.532   2.057
45149SOL    HW237280   3.901  14.438   2.078
45150SOL     OW37281   6.514  11.809   4.832
45150SOL    HW137282   6.577  11.881   4.831
45150SOL    HW237283   6.434  11.848   4.867
45151SOL     OW37284   5.111   9.582   9.729
45151SOL    HW137285   5.084   9.642   9.798
45151SOL    HW237286   5.193   9.618   9.696
45152SOL     OW37287   2.921   7.953  10.691
45152SOL    HW137288   2.877   8.030  10.654
45152SOL    HW237289   2.987   7.990  10.749
45153SOL     OW37290   0.347  12.337   5.506
45153SOL    HW137291   0.316  12.287   5.581
45153SOL    HW237292   0.442  12.345   5.520
45154SOL     OW37293   4.075   8.543   4.892
45154SOL    HW137294   4.020   8.467   4.912
45154SOL    HW237295   4.110   8.525   4.805
45155SOL     OW37296  10.832  10.688   0.595
45155SOL    HW137297  10.895  10.753   0.625
45155SOL    HW237298  10.814  10.634   0.672
45156SOL     OW37299   2.270  12.410   6.400
45156SOL    HW137300   2.260  12.379   6.490
45156SOL    HW237301   2.260  12.330   6.347
45157SOL     OW37302   3.026   8.403   0.580
45157SOL    HW137303   3.052   8.492   0.559
45157SOL    HW237304   3.007   8.362   0.496
45158SOL     OW37305   2.043   3.988   7.645
45158SOL    HW137306   2.044   4.077   7.611
45158SOL    HW237307   1.986   3.940   7.585
45159SOL     OW37308  10.717   4.196   0.318
45159SOL    HW137309  10.790   4.143   0.285
45159SOL    HW237310  10.689   4.248   0.243
45160SOL     OW37311  11.685   3.454   3.526
45160SOL    HW137312  11.662   3.543   3.498
45160SOL    HW237313  11.748   3.424   3.460
45161SOL     OW37314  11.946   9.569   7.055
45161SOL    HW137315  11.851   9.575   7.056
45161SOL    HW237316  11.966   9.488   7.102
45162SOL     OW37317   3.021  11.122  11.849
45162SOL    HW137318   2.990  11.051  11.793
45162SOL    HW237319   2.962  11.120  11.925
45163SOL     OW37320   8.927   7.153   5.734
45163SOL    HW137321   8.848   7.204   5.753
45163SOL    HW237322   8.992   7.186   5.796
45164SOL     OW37323   8.461  13.874   3.154
45164SOL    HW137324   8.390  13.809   3.164
45164SOL    HW237325   8.434  13.925   3.077
45165SOL     OW37326  10.527   9.918   7.548
45165SOL    HW137327  10.602   9.894   7.493
45165SOL    HW237328  10.503   9.836   7.592
45166SOL     OW37329   3.992   7.529   5.618
45166SOL    HW137330   3.976   7.623   5.610
45166SOL    HW237331   4.019   7.502   5.530
45167SOL     OW37332   4.643   0.793   7.861
45167SOL    HW137333   4.693   0.723   7.819
45167SOL    HW237334   4.663   0.785   7.954
45168SOL     OW37335   3.206   6.080   0.055
45168SOL    HW137336   3.295   6.084   0.019
45168SOL    HW237337   3.202   5.996   0.100
45169SOL     OW37338   7.341   4.061   4.756
45169SOL    HW137339   7.280   4.134   4.742
45169SOL    HW237340   7.413   4.078   4.695
45170SOL     OW37341   3.744   7.288   1.891
45170SOL    HW137342   3.766   7.201   1.922
45170SOL    HW237343   3.757   7.345   1.966
45171SOL     OW37344   0.187   0.644   4.002
45171SOL    HW137345   0.150   0.687   3.925
45171SOL    HW237346   0.246   0.710   4.039
45172SOL     OW37347  12.006   1.286  11.766
45172SOL    HW137348  11.974   1.342  11.837
45172SOL    HW237349  12.075   1.234  11.806
45173SOL     OW37350  14.059  11.786   6.741
45173SOL    HW137351  14.057  11.823   6.829
45173SOL    HW237352  14.131  11.723   6.743
45174SOL     OW37353   1.163   5.059   0.556
45174SOL    HW137354   1.083   5.099   0.590
45174SOL    HW237355   1.162   5.080   0.462
45175SOL     OW37356  10.576   6.728   7.699
45175SOL    HW137357  10.566   6.679   7.618
45175SOL    HW237358  10.502   6.789   7.699
45176SOL     OW37359   4.874   0.084  14.499
45176SOL    HW137360   4.891   0.099  14.406
45176SOL    HW237361   4.779   0.097  14.509
45177SOL     OW37362   8.444   6.296   8.571
45177SOL    HW137363   8.410   6.209   8.551
45177SOL    HW237364   8.391   6.326   8.646
45178SOL     OW37365  12.832   3.896  12.043
45178SOL    HW137366  12.866   3.832  12.106
45178SOL    HW237367  12.740   3.907  12.067
45179SOL     OW37368  10.043  12.928   6.242
45179SOL    HW137369  10.030  13.016   6.278
45179SOL    HW237370  10.138  12.923   6.228
45180SOL     OW37371  14.625  13.177   3.068
45180SOL    HW137372  14.628  13.085   3.094
45180SOL    HW237373  14.680  13.222   3.133
45181SOL     OW37374   8.428   9.369   6.224
45181SOL    HW137375   8.516   9.369   6.187
45181SOL    HW237376   8.429   9.442   6.286
45182SOL     OW37377   1.001   6.824   8.166
45182SOL    HW137378   0.942   6.814   8.091
45182SOL    HW237379   1.034   6.913   8.159
45183SOL     OW37380   6.605   5.945   5.084
45183SOL    HW137381   6.609   5.853   5.111
45183SOL    HW237382   6.539   5.985   5.140
45184SOL     OW37383   9.066   1.609   5.492
45184SOL    HW137384   9.147   1.640   5.450
45184SOL    HW237385   9.067   1.515   5.477
45185SOL     OW37386   5.379   5.049   6.365
45185SOL    HW137387   5.375   5.018   6.274
45185SOL    HW237388   5.473   5.047   6.386
45186SOL     OW37389  12.526   8.702  13.324
45186SOL    HW137390  12.485   8.617  13.341
45186SOL    HW237391  12.554   8.697  13.232
45187SOL     OW37392  11.469  13.456   4.620
45187SOL    HW137393  11.502  13.521   4.558
45187SOL    HW237394  11.404  13.407   4.571
45188SOL     OW37395  10.050   4.724   4.392
45188SOL    HW137396   9.976   4.667   4.413
45188SOL    HW237397  10.062   4.714   4.297
45189SOL     OW37398   7.040   0.690  13.829
45189SOL    HW137399   7.096   0.614  13.843
45189SOL    HW237400   7.077   0.757  13.887
45190SOL     OW37401   1.131  12.651   2.511
45190SOL    HW137402   1.182  12.623   2.587
45190SOL    HW237403   1.118  12.571   2.460
45191SOL     OW37404  13.882  10.494   7.442
45191SOL    HW137405  13.788  10.492   7.460
45191SOL    HW237406  13.898  10.413   7.392
45192SOL     OW37407  14.741   4.815   7.199
45192SOL    HW137408  14.753   4.905   7.227
45192SOL    HW237409  14.647   4.800   7.203
45193SOL     OW37410   6.360   0.099   8.389
45193SOL    HW137411   6.328   0.189   8.390
45193SOL    HW237412   6.444   0.104   8.344
45194SOL     OW37413   1.861   9.812   7.174
45194SOL    HW137414   1.811   9.746   7.126
45194SOL    HW237415   1.849   9.788   7.266
45195SOL     OW37416  12.423   7.415  12.934
45195SOL    HW137417  12.389   7.502  12.917
45195SOL    HW237418  12.347   7.363  12.959
45196SOL     OW37419   2.545   6.136   0.741
45196SOL    HW137420   2.509   6.157   0.827
45196SOL    HW237421   2.468   6.134   0.683
45197SOL     OW37422  11.898   2.032   3.733
45197SOL    HW137423  11.932   2.118   3.707
45197SOL    HW237424  11.935   1.971   3.670
45198SOL     OW37425   3.505  13.184   3.728
45198SOL    HW137426   3.600  13.198   3.733
45198SOL    HW237427   3.470  13.228   3.805
45199SOL     OW37428   1.928   6.546   5.741
45199SOL    HW137429   1.900   6.460   5.770
45199SOL    HW237430   1.849   6.600   5.743
45200SOL     OW37431   6.909  11.482  10.496
45200SOL    HW137432   6.906  11.525  10.410
45200SOL    HW237433   6.968  11.407  10.482
45201SOL     OW37434   7.810   4.793   6.310
45201SOL    HW137435   7.901   4.800   6.282
45201SOL    HW237436   7.811   4.819   6.402
45202SOL     OW37437   9.986   4.647  13.467
45202SOL    HW137438  10.053   4.631  13.401
45202SOL    HW237439   9.943   4.562  13.477
45203SOL     OW37440  14.863   9.206   6.089
45203SOL    HW137441  14.794   9.253   6.042
45203SOL    HW237442   0.055   9.183   6.021
45204SOL     OW37443   0.777  13.000   6.186
45204SOL    HW137444   0.706  12.990   6.250
45204SOL    HW237445   0.857  12.998   6.237
45205SOL     OW37446  11.596  11.155   0.976
45205SOL    HW137447  11.554  11.224   0.924
45205SOL    HW237448  11.685  11.186   0.992
45206SOL     OW37449   9.839   0.280  11.673
45206SOL    HW137450   9.760   0.265  11.724
45206SOL    HW237451   9.911   0.257  11.733
45207SOL     OW37452  12.008   9.051  14.729
45207SOL    HW137453  12.073   9.113  14.763
45207SOL    HW237454  11.978   9.091  14.647
45208SOL     OW37455   1.693  13.652   7.767
45208SOL    HW137456   1.623  13.686   7.710
45208SOL    HW237457   1.758  13.723   7.768
45209SOL     OW37458   2.050  11.906   5.884
45209SOL    HW137459   2.053  11.892   5.790
45209SOL    HW237460   2.016  11.824   5.920
45210SOL     OW37461  12.880  11.705  14.680
45210SOL    HW137462  12.867  11.649  14.757
45210SOL    HW237463  12.975  11.704  14.666
45211SOL     OW37464   9.040   4.561   7.818
45211SOL    HW137465   9.054   4.643   7.770
45211SOL    HW237466   9.009   4.590   7.905
45212SOL     OW37467   8.912  13.876   3.720
45212SOL    HW137468   8.851  13.862   3.649
45212SOL    HW237469   8.963  13.795   3.725
45213SOL     OW37470  13.268   4.505   1.770
45213SOL    HW137471  13.334   4.438   1.789
45213SOL    HW237472  13.191   4.476   1.818
45214SOL     OW37473   4.308   9.458   7.478
45214SOL    HW137474   4.231   9.510   7.500
45214SOL    HW237475   4.382   9.513   7.504
45215SOL     OW37476   4.615  12.076   2.922
45215SOL    HW137477   4.667  12.025   2.984
45215SOL    HW237478   4.660  12.160   2.916
45216SOL     OW37479   6.186   8.838   7.504
45216SOL    HW137480   6.118   8.895   7.540
45216SOL    HW237481   6.138   8.762   7.470
45217SOL     OW37482   7.117   9.914   7.367
45217SOL    HW137483   7.138   9.920   7.460
45217SOL    HW237484   7.197   9.941   7.322
45218SOL     OW37485  11.160  12.215   7.660
45218SOL    HW137486  11.156  12.205   7.756
45218SOL    HW237487  11.087  12.273   7.639
45219SOL     OW37488  11.676   1.816   5.878
45219SOL    HW137489  11.582   1.830   5.866
45219SOL    HW237490  11.710   1.802   5.790
45220SOL     OW37491  10.279   6.627   3.828
45220SOL    HW137492  10.354   6.610   3.770
45220SOL    HW237493  10.205   6.639   3.769
45221SOL     OW37494  10.462   6.397   3.180
45221SOL    HW137495  10.520   6.347   3.237
45221SOL    HW237496  10.415   6.331   3.130
45222SOL     OW37497   7.962   9.700   8.574
45222SOL    HW137498   7.992   9.764   8.638
45222SOL    HW237499   7.874   9.731   8.549
45223SOL     OW37500   1.376   1.173   1.628
45223SOL    HW137501   1.377   1.117   1.550
45223SOL    HW237502   1.302   1.232   1.615
45224SOL     OW37503   2.814   5.063   3.125
45224SOL    HW137504   2.852   4.984   3.164
45224SOL    HW237505   2.785   5.034   3.038
45225SOL     OW37506   7.327  13.890  12.922
45225SOL    HW137507   7.353  13.907  13.013
45225SOL    HW237508   7.386  13.945  12.870
45226SOL     OW37509   0.058   0.370   1.089
45226SOL    HW137510   0.154   0.377   1.086
45226SOL    HW237511   0.042   0.297   1.148
45227SOL     OW37512   2.895   5.726   3.656
45227SOL    HW137513   2.968   5.780   3.686
45227SOL    HW237514   2.934   5.639   3.645
45228SOL     OW37515   3.040   2.984  12.691
45228SOL    HW137516   3.073   3.042  12.623
45228SOL    HW237517   2.982   2.923  12.646
45229SOL     OW37518  12.300  14.761   6.981
45229SOL    HW137519  12.221  14.806   6.950
45229SOL    HW237520  12.268  14.693   7.040
45230SOL     OW37521   0.414   7.444   6.206
45230SOL    HW137522   0.436   7.389   6.131
45230SOL    HW237523   0.322   7.467   6.193
45231SOL     OW37524  14.178   4.456  11.878
45231SOL    HW137525  14.142   4.397  11.945
45231SOL    HW237526  14.177   4.542  11.919
45232SOL     OW37527   2.966  11.479  14.171
45232SOL    HW137528   3.046  11.430  14.157
45232SOL    HW237529   2.896  11.414  14.166
45233SOL     OW37530  10.216  13.001   0.671
45233SOL    HW137531  10.308  12.992   0.696
45233SOL    HW237532  10.172  13.032   0.750
45234SOL     OW37533   7.721  10.990  13.305
45234SOL    HW137534   7.745  10.951  13.221
45234SOL    HW237535   7.652  10.934  13.339
45235SOL     OW37536  10.112   8.475   8.274
45235SOL    HW137537  10.165   8.405   8.234
45235SOL    HW237538  10.169   8.513   8.341
45236SOL     OW37539   2.495   9.046  10.013
45236SOL    HW137540   2.470   8.957  10.038
45236SOL    HW237541   2.437   9.068   9.941
45237SOL     OW37542   6.820   0.410   5.782
45237SOL    HW137543   6.842   0.483   5.840
45237SOL    HW237544   6.850   0.438   5.696
45238SOL     OW37545   8.775   6.478  11.024
45238SOL    HW137546   8.708   6.482  10.955
45238SOL    HW237547   8.825   6.398  11.005
45239SOL     OW37548   9.503   2.932   8.164
45239SOL    HW137549   9.439   3.002   8.169
45239SOL    HW237550   9.457   2.855   8.197
45240SOL     OW37551   2.385   4.044   8.758
45240SOL    HW137552   2.327   3.980   8.799
45240SOL    HW237553   2.373   4.124   8.810
45241SOL     OW37554   3.954   6.025  10.480
45241SOL    HW137555   4.001   6.099  10.441
45241SOL    HW237556   3.894   5.996  10.410
45242SOL     OW37557  14.860  13.979   3.485
45242SOL    HW137558   0.009  13.976   3.578
45242SOL    HW237559   0.073  13.984   3.441
45243SOL     OW37560  10.143  10.892   3.087
45243SOL    HW137561  10.082  10.956   3.125
45243SOL    HW237562  10.145  10.914   2.994
45244SOL     OW37563   8.305   6.030   9.111
45244SOL    HW137564   8.269   5.974   9.180
45244SOL    HW237565   8.374   5.977   9.070
45245SOL     OW37566  10.740   5.331   3.266
45245SOL    HW137567  10.792   5.346   3.187
45245SOL    HW237568  10.746   5.414   3.315
45246SOL     OW37569  12.020   5.413   7.995
45246SOL    HW137570  12.072   5.482   8.037
45246SOL    HW237571  12.061   5.400   7.910
45247SOL     OW37572   9.316   8.392   7.908
45247SOL    HW137573   9.237   8.440   7.932
45247SOL    HW237574   9.365   8.452   7.852
45248SOL     OW37575   7.278  11.751   0.321
45248SOL    HW137576   7.232  11.686   0.375
45248SOL    HW237577   7.357  11.771   0.370
45249SOL     OW37578   5.189   8.128   9.838
45249SOL    HW137579   5.246   8.093   9.770
45249SOL    HW237580   5.117   8.066   9.844
45250SOL     OW37581   0.831   2.702   1.686
45250SOL    HW137582   0.854   2.775   1.744
45250SOL    HW237583   0.736   2.703   1.681
45251SOL     OW37584   3.629   4.099  13.136
45251SOL    HW137585   3.637   4.194  13.151
45251SOL    HW237586   3.630   4.090  13.041
45252SOL     OW37587   1.704  13.809   6.382
45252SOL    HW137588   1.694  13.734   6.441
45252SOL    HW237589   1.657  13.880   6.425
45253SOL     OW37590   7.173   4.880   4.735
45253SOL    HW137591   7.182   4.830   4.654
45253SOL    HW237592   7.096   4.842   4.778
45254SOL     OW37593  10.940  14.728  12.316
45254SOL    HW137594  10.998  14.804  12.317
45254SOL    HW237595  10.938  14.700  12.224
45255SOL     OW37596   9.144   5.968   0.117
45255SOL    HW137597   9.167   5.972   0.025
45255SOL    HW237598   9.120   6.058   0.140
45256SOL     OW37599   0.418  11.950   3.852
45256SOL    HW137600   0.445  11.858   3.844
45256SOL    HW237601   0.407  11.980   3.761
45257SOL     OW37602   7.933   9.526  12.626
45257SOL    HW137603   7.900   9.492  12.709
45257SOL    HW237604   7.926   9.453  12.566
45258SOL     OW37605  12.355   1.854   7.410
45258SOL    HW137606  12.342   1.807   7.328
45258SOL    HW237607  12.385   1.787   7.471
45259SOL     OW37608  12.307   5.909   0.049
45259SOL    HW137609  12.344   5.997   0.052
45259SOL    HW237610  12.274   5.899  14.832
45260SOL     OW37611   7.423   5.297   4.839
45260SOL    HW137612   7.444   5.341   4.756
45260SOL    HW237613   7.362   5.227   4.814
45261SOL     OW37614   4.033  14.162   2.988
45261SOL    HW137615   3.964  14.228   2.985
45261SOL    HW237616   3.994  14.085   2.948
45262SOL     OW37617   5.523   4.021   1.632
45262SOL    HW137618   5.590   3.996   1.695
45262SOL    HW237619   5.545   4.112   1.609
45263SOL     OW37620  10.489   1.476   8.140
45263SOL    HW137621  10.488   1.570   8.157
45263SOL    HW237622  10.396   1.451   8.138
45264SOL     OW37623   5.913  13.827   4.698
45264SOL    HW137624   5.839  13.878   4.732
45264SOL    HW237625   5.936  13.870   4.616
45265SOL     OW37626   0.456  12.434   0.664
45265SOL    HW137627   0.490  12.455   0.752
45265SOL    HW237628   0.480  12.510   0.611
45266SOL     OW37629   7.189   3.118  14.191
45266SOL    HW137630   7.095   3.132  14.179
45266SOL    HW237631   7.226   3.123  14.103
45267SOL     OW37632   1.073   7.228   2.738
45267SOL    HW137633   1.101   7.228   2.647
45267SOL    HW237634   1.153   7.242   2.788
45268SOL     OW37635   0.263   8.945   2.401
45268SOL    HW137636   0.287   8.874   2.461
45268SOL    HW237637   0.211   9.005   2.454
45269SOL     OW37638   9.751   4.173   6.889
45269SOL    HW137639   9.744   4.110   6.960
45269SOL    HW237640   9.664   4.175   6.849
45270SOL     OW37641   8.985   3.235  13.071
45270SOL    HW137642   9.058   3.253  13.130
45270SOL    HW237643   8.978   3.140  13.069
45271SOL     OW37644   0.462   3.043   9.563
45271SOL    HW137645   0.452   3.090   9.645
45271SOL    HW237646   0.392   3.077   9.507
45272SOL     OW37647   5.671   9.660   5.495
45272SOL    HW137648   5.679   9.754   5.480
45272SOL    HW237649   5.602   9.632   5.434
45273SOL     OW37650   2.448   9.864  10.834
45273SOL    HW137651   2.406   9.949  10.823
45273SOL    HW237652   2.382   9.801  10.805
45274SOL     OW37653   0.624   9.558   9.900
45274SOL    HW137654   0.686   9.504   9.949
45274SOL    HW237655   0.666   9.572   9.815
45275SOL     OW37656   2.760   8.766  13.143
45275SOL    HW137657   2.746   8.837  13.081
45275SOL    HW237658   2.786   8.692  13.089
45276SOL     OW37659   9.980   5.977   2.109
45276SOL    HW137660   9.957   5.915   2.178
45276SOL    HW237661  10.021   5.923   2.041
45277SOL     OW37662  11.612  11.577   3.570
45277SOL    HW137663  11.582  11.508   3.629
45277SOL    HW237664  11.694  11.607   3.608
45278SOL     OW37665   0.400   6.331  12.126
45278SOL    HW137666   0.358   6.316  12.211
45278SOL    HW237667   0.377   6.254  12.074
45279SOL     OW37668  10.783  12.510   6.642
45279SOL    HW137669  10.702  12.494   6.594
45279SOL    HW237670  10.836  12.432   6.627
45280SOL     OW37671  11.531  10.222   2.146
45280SOL    HW137672  11.455  10.196   2.094
45280SOL    HW237673  11.600  10.236   2.081
45281SOL     OW37674   5.044   3.301  13.748
45281SOL    HW137675   5.072   3.281  13.659
45281SOL    HW237676   5.017   3.393  13.744
45282SOL     OW37677   2.576  11.784  11.272
45282SOL    HW137678   2.598  11.692  11.290
45282SOL    HW237679   2.617  11.802  11.188
45283SOL     OW37680   8.884   3.786   2.599
45283SOL    HW137681   8.940   3.811   2.672
45283SOL    HW237682   8.841   3.705   2.629
45284SOL     OW37683   0.899   3.740  14.374
45284SOL    HW137684   0.934   3.659  14.409
45284SOL    HW237685   0.804   3.731  14.381
45285SOL     OW37686  14.176  14.775   9.583
45285SOL    HW137687  14.246  14.822   9.628
45285SOL    HW237688  14.104  14.772   9.646
45286SOL     OW37689   6.878   6.201  13.277
45286SOL    HW137690   6.916   6.150  13.205
45286SOL    HW237691   6.916   6.162  13.356
45287SOL     OW37692   6.414   8.367   3.689
45287SOL    HW137693   6.463   8.287   3.707
45287SOL    HW237694   6.368   8.349   3.607
45288SOL     OW37695   0.938   9.969  14.107
45288SOL    HW137696   1.010   9.978  14.045
45288SOL    HW237697   0.950   9.883  14.147
45289SOL     OW37698   1.497  13.289   7.575
45289SOL    HW137699   1.525  13.197   7.569
45289SOL    HW237700   1.576  13.336   7.603
45290SOL     OW37701   4.659   7.222   2.849
45290SOL    HW137702   4.575   7.260   2.874
45290SOL    HW237703   4.635   7.145   2.797
45291SOL     OW37704   0.154   5.900   3.383
45291SOL    HW137705   0.239   5.890   3.341
45291SOL    HW237706   0.173   5.889   3.477
45292SOL     OW37707   0.323   3.884   9.245
45292SOL    HW137708   0.255   3.880   9.178
45292SOL    HW237709   0.404   3.864   9.198
45293SOL     OW37710   0.731   1.755   0.887
45293SOL    HW137711   0.755   1.670   0.923
45293SOL    HW237712   0.748   1.817   0.958
45294SOL     OW37713   0.730   2.994   3.029
45294SOL    HW137714   0.818   3.027   3.048
45294SOL    HW237715   0.740   2.942   2.949
45295SOL     OW37716   5.741  10.321   3.774
45295SOL    HW137717   5.807  10.317   3.843
45295SOL    HW237718   5.658  10.328   3.821
45296SOL     OW37719   3.890   6.410   7.066
45296SOL    HW137720   3.898   6.326   7.113
45296SOL    HW237721   3.807   6.403   7.019
45297SOL     OW37722   6.178  14.721   2.138
45297SOL    HW137723   6.266  14.685   2.144
45297SOL    HW237724   6.127  14.668   2.199
45298SOL     OW37725   8.488   5.713  11.114
45298SOL    HW137726   8.457   5.774  11.181
45298SOL    HW237727   8.450   5.746  11.032
45299SOL     OW37728   5.168   1.907   8.322
45299SOL    HW137729   5.088   1.946   8.357
45299SOL    HW237730   5.201   1.971   8.259
45300SOL     OW37731   8.599  12.693  14.207
45300SOL    HW137732   8.580  12.713  14.299
45300SOL    HW237733   8.693  12.706  14.200
45301SOL     OW37734   4.795   7.082   5.033
45301SOL    HW137735   4.836   6.997   5.048
45301SOL    HW237736   4.861   7.131   4.983
45302SOL     OW37737  13.871  10.299  10.355
45302SOL    HW137738  13.838  10.355  10.426
45302SOL    HW237739  13.810  10.314  10.283
45303SOL     OW37740  14.194   6.683   0.215
45303SOL    HW137741  14.225   6.641   0.135
45303SOL    HW237742  14.267   6.677   0.276
45304SOL     OW37743  11.784   5.767   5.907
45304SOL    HW137744  11.739   5.726   5.833
45304SOL    HW237745  11.713   5.799   5.963
45305SOL     OW37746   7.588   1.121   3.973
45305SOL    HW137747   7.603   1.031   3.944
45305SOL    HW237748   7.492   1.129   3.978
45306SOL     OW37749   1.982  12.356   2.356
45306SOL    HW137750   1.946  12.434   2.401
45306SOL    HW237751   2.037  12.314   2.422
45307SOL     OW37752  10.461   9.752   5.503
45307SOL    HW137753  10.459   9.847   5.489
45307SOL    HW237754  10.449   9.715   5.416
45308SOL     OW37755  10.091  10.628   2.504
45308SOL    HW137756  10.104  10.593   2.416
45308SOL    HW237757  10.112  10.556   2.562
45309SOL     OW37758   2.827  14.180   5.494
45309SOL    HW137759   2.894  14.170   5.562
45309SOL    HW237760   2.859  14.251   5.439
45310SOL     OW37761  10.334   6.721  14.772
45310SOL    HW137762  10.244   6.748  14.751
45310SOL    HW237763  10.388   6.796  14.745
45311SOL     OW37764   1.982   7.405   5.950
45311SOL    HW137765   1.914   7.347   5.986
45311SOL    HW237766   2.022   7.445   6.027
45312SOL     OW37767   9.014   8.661  12.807
45312SOL    HW137768   8.919   8.656  12.807
45312SOL    HW237769   9.036   8.717  12.881
45313SOL     OW37770   0.711   7.684   1.123
45313SOL    HW137771   0.664   7.698   1.205
45313SOL    HW237772   0.778   7.753   1.122
45314SOL     OW37773   0.898  10.075   4.361
45314SOL    HW137774   0.904  10.006   4.427
45314SOL    HW237775   0.868  10.029   4.282
45315SOL     OW37776   6.003   7.255   4.766
45315SOL    HW137777   5.940   7.283   4.833
45315SOL    HW237778   6.001   7.325   4.701
45316SOL     OW37779  10.098  10.461   9.087
45316SOL    HW137780  10.105  10.378   9.134
45316SOL    HW237781  10.004  10.478   9.080
45317SOL     OW37782   7.274  11.831   7.205
45317SOL    HW137783   7.290  11.869   7.119
45317SOL    HW237784   7.310  11.742   7.199
45318SOL     OW37785   1.455   1.885   6.713
45318SOL    HW137786   1.399   1.808   6.702
45318SOL    HW237787   1.543   1.854   6.692
45319SOL     OW37788  10.860   3.536   4.100
45319SOL    HW137789  10.950   3.545   4.131
45319SOL    HW237790  10.867   3.483   4.021
45320SOL     OW37791   3.328  14.255  10.491
45320SOL    HW137792   3.300  14.336  10.448
45320SOL    HW237793   3.280  14.186  10.446
45321SOL     OW37794   7.984  12.346   0.173
45321SOL    HW137795   8.031  12.384   0.099
45321SOL    HW237796   8.026  12.262   0.188
45322SOL     OW37797   2.446   3.817  12.252
45322SOL    HW137798   2.358   3.854  12.248
45322SOL    HW237799   2.503   3.889  12.228
45323SOL     OW37800   1.689  14.153   1.670
45323SOL    HW137801   1.631  14.221   1.702
45323SOL    HW237802   1.771  14.167   1.715
45324SOL     OW37803   5.547  14.227   7.740
45324SOL    HW137804   5.639  14.216   7.714
45324SOL    HW237805   5.498  14.181   7.672
45325SOL     OW37806  12.322  10.064   0.180
45325SOL    HW137807  12.284  10.137   0.131
45325SOL    HW237808  12.411  10.055   0.146
45326SOL     OW37809   7.359   3.045   8.134
45326SOL    HW137810   7.402   2.963   8.158
45326SOL    HW237811   7.267   3.022   8.122
45327SOL     OW37812  13.765  13.851   5.727
45327SOL    HW137813  13.799  13.849   5.637
45327SOL    HW237814  13.683  13.801   5.722
45328SOL     OW37815   0.078   8.915  13.266
45328SOL    HW137816   0.025   8.839  13.291
45328SOL    HW237817   0.024   8.963  13.204
45329SOL     OW37818   2.519   4.839  13.215
45329SOL    HW137819   2.501   4.887  13.296
45329SOL    HW237820   2.443   4.855  13.160
45330SOL     OW37821   5.156  13.456   7.711
45330SOL    HW137822   5.118  13.416   7.632
45330SOL    HW237823   5.162  13.549   7.689
45331SOL     OW37824   9.278   2.805  12.566
45331SOL    HW137825   9.220   2.770  12.498
45331SOL    HW237826   9.317   2.883  12.525
45332SOL     OW37827   5.620  13.351   0.881
45332SOL    HW137828   5.527  13.329   0.884
45332SOL    HW237829   5.661  13.276   0.839
45333SOL     OW37830   3.568   3.006   2.859
45333SOL    HW137831   3.521   3.026   2.940
45333SOL    HW237832   3.579   3.091   2.817
45334SOL     OW37833   0.014   2.685   8.647
45334SOL    HW137834  14.819   2.731   8.697
45334SOL    HW237835   0.096   2.708   8.690
45335SOL     OW37836  12.414   8.796  11.040
45335SOL    HW137837  12.456   8.710  11.043
45335SOL    HW237838  12.394   8.810  10.947
45336SOL     OW37839   6.917   9.761  10.531
45336SOL    HW137840   6.978   9.784  10.461
45336SOL    HW237841   6.904   9.843  10.579
45337SOL     OW37842  11.637  12.647   4.950
45337SOL    HW137843  11.559  12.667   5.003
45337SOL    HW237844  11.617  12.563   4.909
45338SOL     OW37845  11.892   4.359   2.030
45338SOL    HW137846  11.831   4.390   1.963
45338SOL    HW237847  11.963   4.318   1.981
45339SOL     OW37848  12.214   9.030  11.763
45339SOL    HW137849  12.239   9.056  11.674
45339SOL    HW237850  12.294   8.995  11.802
45340SOL     OW37851   3.215  13.094  11.548
45340SOL    HW137852   3.279  13.097  11.477
45340SOL    HW237853   3.236  13.169  11.603
45341SOL     OW37854   4.545   5.825   1.718
45341SOL    HW137855   4.620   5.770   1.698
45341SOL    HW237856   4.517   5.860   1.633
45342SOL     OW37857   1.688  14.343   3.410
45342SOL    HW137858   1.707  14.287   3.334
45342SOL    HW237859   1.632  14.289   3.465
45343SOL     OW37860   1.509   0.568  10.949
45343SOL    HW137861   1.428   0.563  11.000
45343SOL    HW237862   1.526   0.662  10.942
45344SOL     OW37863   1.725   3.700   1.701
45344SOL    HW137864   1.696   3.611   1.722
45344SOL    HW237865   1.789   3.689   1.631
45345SOL     OW37866   5.260  12.952   9.955
45345SOL    HW137867   5.181  12.899   9.970
45345SOL    HW237868   5.312  12.941  10.035
45346SOL     OW37869   1.133   3.694   1.839
45346SOL    HW137870   1.158   3.779   1.876
45346SOL    HW237871   1.039   3.702   1.823
45347SOL     OW37872   8.414  13.934  10.285
45347SOL    HW137873   8.459  13.877  10.347
45347SOL    HW237874   8.461  13.922  10.203
45348SOL     OW37875   8.460  12.795   6.515
45348SOL    HW137876   8.544  12.833   6.489
45348SOL    HW237877   8.453  12.715   6.463
45349SOL     OW37878   7.140  12.732   5.163
45349SOL    HW137879   7.153  12.762   5.252
45349SOL    HW237880   7.134  12.637   5.170
45350SOL     OW37881   0.133   5.386   0.973
45350SOL    HW137882   0.194   5.333   0.923
45350SOL    HW237883   0.056   5.331   0.985
45351SOL     OW37884   5.761  14.127   0.667
45351SOL    HW137885   5.813  14.055   0.633
45351SOL    HW237886   5.775  14.125   0.761
45352SOL     OW37887   1.372  12.093   0.098
45352SOL    HW137888   1.299  12.111   0.158
45352SOL    HW237889   1.423  12.025   0.142
45353SOL     OW37890   6.567  13.708   5.438
45353SOL    HW137891   6.529  13.776   5.493
45353SOL    HW237892   6.567  13.745   5.350
45354SOL     OW37893   2.382   3.567   7.989
45354SOL    HW137894   2.394   3.551   8.083
45354SOL    HW237895   2.337   3.652   7.985
45355SOL     OW37896   9.843   7.914   4.829
45355SOL    HW137897   9.791   7.930   4.908
45355SOL    HW237898   9.792   7.952   4.758
45356SOL     OW37899   4.048   9.694   6.713
45356SOL    HW137900   4.056   9.603   6.741
45356SOL    HW237901   4.070   9.745   6.790
45357SOL     OW37902   6.794  14.592   0.245
45357SOL    HW137903   6.778  14.576   0.338
45357SOL    HW237904   6.725  14.542   0.200
45358SOL     OW37905   4.598   7.411   8.124
45358SOL    HW137906   4.640   7.330   8.094
45358SOL    HW237907   4.629   7.478   8.062
45359SOL     OW37908   2.387   9.126   7.628
45359SOL    HW137909   2.327   9.110   7.555
45359SOL    HW237910   2.392   9.043   7.674
45360SOL     OW37911   9.286   1.382   8.982
45360SOL    HW137912   9.277   1.330   8.903
45360SOL    HW237913   9.199   1.420   8.996
45361SOL     OW37914  11.233  14.492   3.719
45361SOL    HW137915  11.259  14.450   3.801
45361SOL    HW237916  11.305  14.551   3.698
45362SOL     OW37917  13.664   4.320   5.279
45362SOL    HW137918  13.640   4.290   5.367
45362SOL    HW237919  13.703   4.243   5.238
45363SOL     OW37920   7.090   1.503   0.697
45363SOL    HW137921   7.001   1.525   0.721
45363SOL    HW237922   7.090   1.502   0.601
45364SOL     OW37923   9.283   3.318   1.829
45364SOL    HW137924   9.345   3.306   1.756
45364SOL    HW237925   9.197   3.313   1.787
45365SOL     OW37926   0.578   7.519   3.923
45365SOL    HW137927   0.656   7.505   3.869
45365SOL    HW237928   0.505   7.508   3.862
45366SOL     OW37929   0.164  13.253   9.461
45366SOL    HW137930   0.144  13.215   9.376
45366SOL    HW237931   0.231  13.194   9.498
45367SOL     OW37932   3.580   7.846  13.614
45367SOL    HW137933   3.523   7.910  13.657
45367SOL    HW237934   3.546   7.841  13.524
45368SOL     OW37935  11.078   4.507   1.061
45368SOL    HW137936  11.019   4.503   0.986
45368SOL    HW237937  11.157   4.462   1.032
45369SOL     OW37938   5.126   9.511   8.076
45369SOL    HW137939   5.080   9.444   8.026
45369SOL    HW237940   5.141   9.582   8.013
45370SOL     OW37941   4.378   5.553   6.456
45370SOL    HW137942   4.363   5.462   6.483
45370SOL    HW237943   4.387   5.549   6.361
45371SOL     OW37944  14.556  10.156  11.824
45371SOL    HW137945  14.492  10.086  11.836
45371SOL    HW237946  14.518  10.231  11.870
45372SOL     OW37947  10.886   0.162   1.863
45372SOL    HW137948  10.839   0.225   1.917
45372SOL    HW237949  10.975   0.195   1.859
45373SOL     OW37950  12.588   6.244   5.290
45373SOL    HW137951  12.540   6.314   5.244
45373SOL    HW237952  12.545   6.163   5.263
45374SOL     OW37953   4.317   3.338   7.373
45374SOL    HW137954   4.370   3.275   7.423
45374SOL    HW237955   4.272   3.390   7.440
45375SOL     OW37956   6.572   5.061  11.171
45375SOL    HW137957   6.633   5.050  11.099
45375SOL    HW237958   6.617   5.119  11.233
45376SOL     OW37959  14.811  13.969   8.564
45376SOL    HW137960  14.788  13.935   8.477
45376SOL    HW237961  14.749  13.926   8.623
45377SOL     OW37962   3.155   5.878  14.610
45377SOL    HW137963   3.163   5.947  14.544
45377SOL    HW237964   3.082   5.824  14.579
45378SOL     OW37965   8.600   2.145  12.230
45378SOL    HW137966   8.636   2.231  12.252
45378SOL    HW237967   8.608   2.094  12.311
45379SOL     OW37968   1.105   0.133   8.263
45379SOL    HW137969   1.154   0.161   8.340
45379SOL    HW237970   1.168   0.138   8.191
45380SOL     OW37971   5.518  13.428  10.123
45380SOL    HW137972   5.474  13.392  10.200
45380SOL    HW237973   5.450  13.473  10.075
45381SOL     OW37974   8.890   7.482   3.329
45381SOL    HW137975   8.806   7.470   3.372
45381SOL    HW237976   8.889   7.573   3.299
45382SOL     OW37977   9.916  10.856  13.448
45382SOL    HW137978   9.923  10.770  13.490
45382SOL    HW237979   9.837  10.851  13.395
45383SOL     OW37980   5.671   5.214   7.809
45383SOL    HW137981   5.706   5.292   7.852
45383SOL    HW237982   5.590   5.245   7.767
45384SOL     OW37983   4.960  11.646   1.844
45384SOL    HW137984   5.002  11.569   1.883
45384SOL    HW237985   4.930  11.616   1.758
45385SOL     OW37986  11.401   6.782  11.385
45385SOL    HW137987  11.397   6.742  11.298
45385SOL    HW237988  11.437   6.870  11.369
45386SOL     OW37989  12.287  13.554   4.682
45386SOL    HW137990  12.310  13.461   4.681
45386SOL    HW237991  12.249  13.571   4.595
45387SOL     OW37992   2.916   9.186  13.288
45387SOL    HW137993   2.903   9.106  13.340
45387SOL    HW237994   2.991   9.166  13.232
45388SOL     OW37995   6.267   2.396  11.595
45388SOL    HW137996   6.345   2.342  11.589
45388SOL    HW237997   6.300   2.486  11.601
45389SOL     OW37998   7.238   9.423   4.333
45389SOL    HW137999   7.144   9.439   4.335
45389SOL    HW238000   7.259   9.388   4.420
45390SOL     OW38001  12.351  13.790  13.236
45390SOL    HW138002  12.358  13.772  13.330
45390SOL    HW238003  12.262  13.764  13.213
45391SOL     OW38004   3.529  14.052   8.652
45391SOL    HW138005   3.481  14.089   8.577
45391SOL    HW238006   3.615  14.095   8.648
45392SOL     OW38007   1.277   4.463   3.213
45392SOL    HW138008   1.243   4.513   3.287
45392SOL    HW238009   1.206   4.404   3.189
45393SOL     OW38010   1.103   7.280   2.210
45393SOL    HW138011   1.146   7.278   2.296
45393SOL    HW238012   1.147   7.350   2.163
45394SOL     OW38013   2.645  11.355   2.068
45394SOL    HW138014   2.602  11.408   2.135
45394SOL    HW238015   2.690  11.286   2.117
45395SOL     OW38016   5.673   0.377  13.184
45395SOL    HW138017   5.732   0.433  13.135
45395SOL    HW238018   5.594   0.373  13.131
45396SOL     OW38019  12.462   3.554   9.476
45396SOL    HW138020  12.444   3.648   9.468
45396SOL    HW238021  12.416   3.515   9.401
45397SOL     OW38022   4.681   1.349  14.632
45397SOL    HW138023   4.730   1.427  14.656
45397SOL    HW238024   4.596   1.359  14.676
45398SOL     OW38025   5.762  11.982  13.426
45398SOL    HW138026   5.803  12.027  13.501
45398SOL    HW238027   5.702  12.048  13.390
45399SOL     OW38028   3.118   6.144   3.075
45399SOL    HW138029   3.154   6.178   2.992
45399SOL    HW238030   3.025   6.134   3.058
45400SOL     OW38031  12.778   3.570   7.796
45400SOL    HW138032  12.779   3.654   7.842
45400SOL    HW238033  12.857   3.525   7.826
45401SOL     OW38034   7.661   2.185  12.576
45401SOL    HW138035   7.729   2.136  12.531
45401SOL    HW238036   7.603   2.119  12.612
45402SOL     OW38037   4.222   3.983   5.968
45402SOL    HW138038   4.175   3.907   5.935
45402SOL    HW238039   4.171   4.012   6.044
45403SOL     OW38040  11.745   4.805   8.424
45403SOL    HW138041  11.748   4.710   8.411
45403SOL    HW238042  11.797   4.821   8.502
45404SOL     OW38043   7.898  10.462  12.692
45404SOL    HW138044   7.823  10.405  12.679
45404SOL    HW238045   7.972  10.413  12.654
45405SOL     OW38046  10.221   3.418   1.381
45405SOL    HW138047  10.176   3.340   1.412
45405SOL    HW238048  10.311   3.389   1.366
45406SOL     OW38049   2.068   5.228   6.663
45406SOL    HW138050   2.061   5.290   6.735
45406SOL    HW238051   2.157   5.240   6.629
45407SOL     OW38052   1.103   6.529   2.402
45407SOL    HW138053   1.032   6.593   2.407
45407SOL    HW238054   1.145   6.547   2.318
45408SOL     OW38055   1.973   7.417  10.132
45408SOL    HW138056   2.025   7.391  10.056
45408SOL    HW238057   1.969   7.513  10.127
45409SOL     OW38058   5.926   3.655  14.121
45409SOL    HW138059   5.901   3.690  14.035
45409SOL    HW238060   5.934   3.732  14.177
45410SOL     OW38061   6.426  12.901   9.844
45410SOL    HW138062   6.369  12.941   9.910
45410SOL    HW238063   6.376  12.826   9.811
45411SOL     OW38064   3.527   5.386   1.523
45411SOL    HW138065   3.569   5.461   1.566
45411SOL    HW238066   3.449   5.422   1.483
45412SOL     OW38067   1.845  11.118   1.282
45412SOL    HW138068   1.830  11.185   1.349
45412SOL    HW238069   1.890  11.047   1.329
45413SOL     OW38070   4.797  12.541   9.774
45413SOL    HW138071   4.855  12.543   9.698
45413SOL    HW238072   4.814  12.624   9.819
45414SOL     OW38073   4.800  10.090   3.912
45414SOL    HW138074   4.859  10.027   3.953
45414SOL    HW238075   4.719  10.041   3.897
45415SOL     OW38076  13.701   2.520   8.393
45415SOL    HW138077  13.653   2.439   8.374
45415SOL    HW238078  13.733   2.549   8.307
45416SOL     OW38079  12.279   4.401   5.289
45416SOL    HW138080  12.327   4.466   5.341
45416SOL    HW238081  12.249   4.336   5.353
45417SOL     OW38082   8.601   3.227  10.970
45417SOL    HW138083   8.586   3.294  11.037
45417SOL    HW238084   8.693   3.204  10.980
45418SOL     OW38085   4.221  10.208   1.985
45418SOL    HW138086   4.168  10.281   2.016
45418SOL    HW238087   4.256  10.168   2.064
45419SOL     OW38088  10.328   5.633   6.201
45419SOL    HW138089  10.390   5.586   6.256
45419SOL    HW238090  10.243   5.592   6.220
45420SOL     OW38091   9.194   3.125   7.712
45420SOL    HW138092   9.265   3.165   7.762
45420SOL    HW238093   9.118   3.129   7.769
45421SOL     OW38094   2.967  10.243  12.503
45421SOL    HW138095   2.968  10.198  12.419
45421SOL    HW238096   2.919  10.184  12.561
45422SOL     OW38097   1.496   6.957   6.084
45422SOL    HW138098   1.488   6.958   5.989
45422SOL    HW238099   1.408   6.941   6.116
45423SOL     OW38100  11.731  10.645   6.899
45423SOL    HW138101  11.738  10.601   6.814
45423SOL    HW238102  11.650  10.695   6.893
45424SOL     OW38103   5.368  13.659   0.827
45424SOL    HW138104   5.293  13.709   0.857
45424SOL    HW238105   5.401  13.708   0.752
45425SOL     OW38106  13.784   4.602   9.259
45425SOL    HW138107  13.858   4.568   9.309
45425SOL    HW238108  13.805   4.694   9.245
45426SOL     OW38109   5.846  11.592  12.077
45426SOL    HW138110   5.940  11.604  12.093
45426SOL    HW238111   5.806  11.672  12.111
45427SOL     OW38112   5.843   9.193  10.140
45427SOL    HW138113   5.825   9.121  10.080
45427SOL    HW238114   5.776   9.186  10.208
45428SOL     OW38115   3.011   7.428  12.137
45428SOL    HW138116   3.101   7.400  12.116
45428SOL    HW238117   2.975   7.356  12.187
45429SOL     OW38118   7.234   2.720  12.678
45429SOL    HW138119   7.289   2.642  12.670
45429SOL    HW238120   7.274   2.770  12.749
45430SOL     OW38121  14.006   1.873  12.836
45430SOL    HW138122  13.980   1.925  12.760
45430SOL    HW238123  13.986   1.928  12.912
45431SOL     OW38124  13.040  11.712   0.383
45431SOL    HW138125  13.055  11.801   0.352
45431SOL    HW238126  13.028  11.721   0.477
45432SOL     OW38127   9.265   9.027  12.240
45432SOL    HW138128   9.294   8.989  12.157
45432SOL    HW238129   9.280   8.959  12.305
45433SOL     OW38130   7.347   4.925  14.650
45433SOL    HW138131   7.361   5.018  14.631
45433SOL    HW238132   7.378   4.914  14.740
45434SOL     OW38133  10.325  14.592   5.321
45434SOL    HW138134  10.379  14.576   5.398
45434SOL    HW238135  10.297  14.684   5.331
45435SOL     OW38136   3.344   1.038  10.525
45435SOL    HW138137   3.427   1.054  10.570
45435SOL    HW238138   3.358   1.067  10.435
45436SOL     OW38139   7.961   7.370  14.278
45436SOL    HW138140   7.928   7.460  14.283
45436SOL    HW238141   7.986   7.358  14.187
45437SOL     OW38142   1.144  10.975   3.814
45437SOL    HW138143   1.142  11.068   3.791
45437SOL    HW238144   1.111  10.972   3.904
45438SOL     OW38145  13.697  13.928   9.647
45438SOL    HW138146  13.703  13.941   9.741
45438SOL    HW238147  13.721  14.013   9.609
45439SOL     OW38148   2.484  13.118  12.073
45439SOL    HW138149   2.506  13.061  12.146
45439SOL    HW238150   2.389  13.112  12.066
45440SOL     OW38151   6.936   5.570   0.549
45440SOL    HW138152   7.024   5.570   0.586
45440SOL    HW238153   6.882   5.527   0.615
45441SOL     OW38154   7.733   1.215   7.984
45441SOL    HW138155   7.807   1.264   8.019
45441SOL    HW238156   7.732   1.133   8.035
45442SOL     OW38157   4.816  13.162   8.940
45442SOL    HW138158   4.887  13.098   8.938
45442SOL    HW238159   4.848  13.233   8.995
45443SOL     OW38160   2.168  12.073  11.410
45443SOL    HW138161   2.105  12.110  11.347
45443SOL    HW238162   2.144  11.981  11.417
45444SOL     OW38163   7.257  11.484  14.132
45444SOL    HW138164   7.292  11.531  14.056
45444SOL    HW238165   7.267  11.545  14.205
45445SOL     OW38166  11.335   8.113  11.167
45445SOL    HW138167  11.358   8.039  11.111
45445SOL    HW238168  11.356   8.083  11.256
45446SOL     OW38169   4.113   0.062   2.677
45446SOL    HW138170   4.153  14.850   2.656
45446SOL    HW238171   4.065   0.046   2.758
45447SOL     OW38172   6.423   2.397   9.873
45447SOL    HW138173   6.421   2.488   9.902
45447SOL    HW238174   6.337   2.382   9.833
45448SOL     OW38175  12.690   8.295   0.757
45448SOL    HW138176  12.781   8.285   0.787
45448SOL    HW238177  12.637   8.256   0.827
45449SOL     OW38178   8.488  13.700  12.822
45449SOL    HW138179   8.538  13.722  12.900
45449SOL    HW238180   8.448  13.783  12.796
45450SOL     OW38181   2.572   8.084   9.409
45450SOL    HW138182   2.565   8.175   9.379
45450SOL    HW238183   2.635   8.087   9.482
45451SOL     OW38184  14.161   2.373  14.279
45451SOL    HW138185  14.165   2.301  14.215
45451SOL    HW238186  14.120   2.333  14.356
45452SOL     OW38187  10.271   4.611   6.889
45452SOL    HW138188  10.210   4.661   6.835
45452SOL    HW238189  10.336   4.675   6.917
45453SOL     OW38190  11.457  10.655   3.871
45453SOL    HW138191  11.461  10.620   3.960
45453SOL    HW238192  11.547  10.648   3.839
45454SOL     OW38193  11.777   4.362   8.475
45454SOL    HW138194  11.785   4.434   8.413
45454SOL    HW238195  11.853   4.371   8.533
45455SOL     OW38196   3.750   4.591  14.541
45455SOL    HW138197   3.705   4.517  14.583
45455SOL    HW238198   3.807   4.626  14.609
45456SOL     OW38199  10.360   5.558   0.897
45456SOL    HW138200  10.425   5.488   0.897
45456SOL    HW238201  10.359   5.591   0.987
45457SOL     OW38202   0.002   5.030   0.433
45457SOL    HW138203   0.054   5.083   0.372
45457SOL    HW238204  14.807   5.090   0.465
45458SOL     OW38205  14.178   2.996   1.980
45458SOL    HW138206  14.130   2.913   1.973
45458SOL    HW238207  14.160   3.028   2.068
45459SOL     OW38208   0.959   5.005   4.513
45459SOL    HW138209   0.915   5.068   4.570
45459SOL    HW238210   1.016   4.955   4.571
45460SOL     OW38211   2.699  11.594   6.853
45460SOL    HW138212   2.765  11.641   6.905
45460SOL    HW238213   2.734  11.505   6.847
45461SOL     OW38214  12.253   0.957  11.646
45461SOL    HW138215  12.280   0.867  11.629
45461SOL    HW238216  12.160   0.959  11.622
45462SOL     OW38217  14.536   1.937  11.459
45462SOL    HW138218  14.540   1.888  11.376
45462SOL    HW238219  14.454   1.910  11.499
45463SOL     OW38220  11.163   5.407  13.469
45463SOL    HW138221  11.193   5.401  13.378
45463SOL    HW238222  11.192   5.326  13.509
45464SOL     OW38223   9.811  14.601  12.497
45464SOL    HW138224   9.905  14.583  12.496
45464SOL    HW238225   9.772  14.519  12.528
45465SOL     OW38226  14.521  10.680  14.177
45465SOL    HW138227  14.556  10.706  14.092
45465SOL    HW238228  14.556  10.745  14.238
45466SOL     OW38229   4.695  10.132  11.199
45466SOL    HW138230   4.662  10.044  11.219
45466SOL    HW238231   4.788  10.119  11.180
45467SOL     OW38232   4.353   7.719   8.363
45467SOL    HW138233   4.271   7.762   8.339
45467SOL    HW238234   4.366   7.652   8.295
45468SOL     OW38235   1.395   7.002   9.566
45468SOL    HW138236   1.414   6.909   9.560
45468SOL    HW238237   1.311   7.007   9.611
45469SOL     OW38238  13.650   2.409   7.382
45469SOL    HW138239  13.744   2.397   7.367
45469SOL    HW238240  13.643   2.496   7.422
45470SOL     OW38241  13.756   5.687  10.540
45470SOL    HW138242  13.676   5.737  10.555
45470SOL    HW238243  13.725   5.602  10.507
45471SOL     OW38244   7.221  12.354   3.252
45471SOL    HW138245   7.282  12.418   3.216
45471SOL    HW238246   7.238  12.355   3.346
45472SOL     OW38247   5.526   9.718  10.730
45472SOL    HW138248   5.490   9.796  10.687
45472SOL    HW238249   5.538   9.656  10.658
45473SOL     OW38250  14.728   5.755   3.822
45473SOL    HW138251  14.666   5.727   3.755
45473SOL    HW238252  14.781   5.676   3.840
45474SOL     OW38253   4.423  12.813   3.136
45474SOL    HW138254   4.474  12.844   3.062
45474SOL    HW238255   4.417  12.888   3.195
45475SOL     OW38256   9.577  10.239   7.528
45475SOL    HW138257   9.503  10.178   7.534
45475SOL    HW238258   9.618  10.235   7.615
45476SOL     OW38259   9.330   6.735   8.541
45476SOL    HW138260   9.304   6.817   8.582
45476SOL    HW238261   9.252   6.679   8.545
45477SOL     OW38262   5.498   2.791  12.216
45477SOL    HW138263   5.420   2.747  12.181
45477SOL    HW238264   5.463   2.870  12.257
45478SOL     OW38265   3.104   2.685   9.436
45478SOL    HW138266   3.023   2.726   9.466
45478SOL    HW238267   3.077   2.599   9.402
45479SOL     OW38268  13.795   6.837   2.231
45479SOL    HW138269  13.791   6.776   2.304
45479SOL    HW238270  13.707   6.833   2.192
45480SOL     OW38271   5.002  13.396   1.210
45480SOL    HW138272   5.002  13.313   1.162
45480SOL    HW238273   4.974  13.373   1.298
45481SOL     OW38274   7.225  13.914   1.393
45481SOL    HW138275   7.245  13.850   1.324
45481SOL    HW238276   7.147  13.880   1.436
45482SOL     OW38277   1.928  13.660  12.257
45482SOL    HW138278   1.991  13.704  12.199
45482SOL    HW238279   1.976  13.647  12.339
45483SOL     OW38280  10.461   2.492   0.845
45483SOL    HW138281  10.447   2.542   0.765
45483SOL    HW238282  10.550   2.458   0.837
45484SOL     OW38283   2.580  12.392   4.970
45484SOL    HW138284   2.501  12.340   4.986
45484SOL    HW238285   2.608  12.418   5.058
45485SOL     OW38286   0.323   2.970   4.115
45485SOL    HW138287   0.361   2.894   4.070
45485SOL    HW238288   0.232   2.947   4.130
45486SOL     OW38289   5.168   0.692  12.331
45486SOL    HW138290   5.203   0.607  12.304
45486SOL    HW238291   5.167   0.689  12.426
45487SOL     OW38292   8.124   2.580   4.670
45487SOL    HW138293   8.201   2.524   4.655
45487SOL    HW238294   8.086   2.591   4.583
45488SOL     OW38295   4.536   3.535   6.256
45488SOL    HW138296   4.582   3.616   6.234
45488SOL    HW238297   4.443   3.557   6.245
45489SOL     OW38298   6.311  12.803   5.880
45489SOL    HW138299   6.394  12.756   5.893
45489SOL    HW238300   6.315  12.876   5.941
45490SOL     OW38301   8.559   1.069  10.782
45490SOL    HW138302   8.612   0.999  10.819
45490SOL    HW238303   8.473   1.030  10.767
45491SOL     OW38304   9.733   9.882   6.532
45491SOL    HW138305   9.696   9.898   6.445
45491SOL    HW238306   9.672   9.821   6.573
45492SOL     OW38307   5.995   2.138   1.923
45492SOL    HW138308   5.939   2.212   1.899
45492SOL    HW238309   6.027   2.159   2.010
45493SOL     OW38310   6.228  10.788   0.459
45493SOL    HW138311   6.321  10.788   0.482
45493SOL    HW238312   6.207  10.880   0.444
45494SOL     OW38313   9.474  11.790  12.408
45494SOL    HW138314   9.437  11.837  12.334
45494SOL    HW238315   9.454  11.845  12.484
45495SOL     OW38316   9.472   3.122  12.994
45495SOL    HW138317   9.509   3.165  12.917
45495SOL    HW238318   9.529   3.046  13.009
45496SOL     OW38319  12.318  12.166  14.249
45496SOL    HW138320  12.300  12.259  14.259
45496SOL    HW238321  12.413  12.161  14.235
45497SOL     OW38322   2.172  10.843  11.102
45497SOL    HW138323   2.196  10.759  11.142
45497SOL    HW238324   2.117  10.819  11.028
45498SOL     OW38325  11.466  10.350   9.380
45498SOL    HW138326  11.543  10.319   9.334
45498SOL    HW238327  11.470  10.307   9.466
45499SOL     OW38328   8.629   6.168  14.031
45499SOL    HW138329   8.631   6.074  14.011
45499SOL    HW238330   8.648   6.173  14.125
45500SOL     OW38331   7.725   1.114   2.102
45500SOL    HW138332   7.758   1.033   2.142
45500SOL    HW238333   7.793   1.141   2.042
45501SOL     OW38334   7.007   2.655   4.394
45501SOL    HW138335   6.972   2.569   4.417
45501SOL    HW238336   7.099   2.651   4.420
45502SOL     OW38337  10.260  13.903  14.789
45502SOL    HW138338  10.286  13.853  14.713
45502SOL    HW238339  10.232  13.838  14.853
45503SOL     OW38340   1.847  14.327   6.455
45503SOL    HW138341   1.756  14.332   6.484
45503SOL    HW238342   1.898  14.333   6.536
45504SOL     OW38343   2.426  12.023   7.469
45504SOL    HW138344   2.349  12.038   7.413
45504SOL    HW238345   2.498  12.010   7.408
45505SOL     OW38346  13.942  10.955   7.784
45505SOL    HW138347  13.941  10.891   7.855
45505SOL    HW238348  14.011  10.924   7.725
45506SOL     OW38349  14.340   1.807  10.007
45506SOL    HW138350  14.369   1.763   9.927
45506SOL    HW238351  14.247   1.827   9.990
45507SOL     OW38352  10.157   4.263   0.850
45507SOL    HW138353  10.144   4.247   0.757
45507SOL    HW238354  10.224   4.199   0.876
45508SOL     OW38355  13.360   5.041   3.653
45508SOL    HW138356  13.276   5.082   3.671
45508SOL    HW238357  13.350   4.951   3.685
45509SOL     OW38358   8.806   4.003   8.858
45509SOL    HW138359   8.744   4.062   8.899
45509SOL    HW238360   8.777   3.915   8.884
45510SOL     OW38361   3.749   5.018   3.371
45510SOL    HW138362   3.781   4.955   3.308
45510SOL    HW238363   3.680   5.065   3.325
45511SOL     OW38364   6.800   8.309   1.548
45511SOL    HW138365   6.805   8.215   1.531
45511SOL    HW238366   6.821   8.350   1.464
45512SOL     OW38367   5.096   4.788   0.766
45512SOL    HW138368   5.033   4.855   0.792
45512SOL    HW238369   5.067   4.760   0.679
45513SOL     OW38370   5.568   4.681  13.664
45513SOL    HW138371   5.506   4.617  13.699
45513SOL    HW238372   5.631   4.628  13.616
45514SOL     OW38373   1.308  10.639   3.068
45514SOL    HW138374   1.330  10.599   3.152
45514SOL    HW238375   1.212  10.634   3.064
45515SOL     OW38376   9.506  10.626   0.918
45515SOL    HW138377   9.588  10.656   0.957
45515SOL    HW238378   9.487  10.689   0.850
45516SOL     OW38379   1.140   8.384   1.693
45516SOL    HW138380   1.068   8.352   1.639
45516SOL    HW238381   1.199   8.309   1.701
45517SOL     OW38382  10.268   4.682   7.555
45517SOL    HW138383  10.313   4.704   7.474
45517SOL    HW238384  10.185   4.642   7.526
45518SOL     OW38385  14.241   8.324   8.014
45518SOL    HW138386  14.165   8.347   7.961
45518SOL    HW238387  14.233   8.379   8.092
45519SOL     OW38388  14.696   6.222  14.861
45519SOL    HW138389  14.744   6.148   0.025
45519SOL    HW238390  14.632   6.183  14.801
45520SOL     OW38391   8.566   9.220   3.016
45520SOL    HW138392   8.495   9.215   2.952
45520SOL    HW238393   8.642   9.250   2.965
45521SOL     OW38394   7.845   8.816  13.968
45521SOL    HW138395   7.815   8.763  13.894
45521SOL    HW238396   7.925   8.773  13.998
45522SOL     OW38397  13.014   5.648   9.406
45522SOL    HW138398  12.983   5.625   9.493
45522SOL    HW238399  12.948   5.707   9.372
45523SOL     OW38400   9.368   6.885  13.019
45523SOL    HW138401   9.447   6.853  13.062
45523SOL    HW238402   9.346   6.817  12.955
45524SOL     OW38403   4.280   1.507   8.177
45524SOL    HW138404   4.209   1.444   8.166
45524SOL    HW238405   4.308   1.496   8.268
45525SOL     OW38406  12.458   2.940   9.287
45525SOL    HW138407  12.426   3.004   9.351
45525SOL    HW238408  12.379   2.903   9.248
45526SOL     OW38409   4.042  13.141  14.313
45526SOL    HW138410   4.073  13.074  14.252
45526SOL    HW238411   4.101  13.215  14.300
45527SOL     OW38412  14.062   3.533   9.360
45527SOL    HW138413  13.995   3.543   9.292
45527SOL    HW238414  14.079   3.622   9.389
45528SOL     OW38415   1.997  12.896  11.791
45528SOL    HW138416   2.031  12.891  11.881
45528SOL    HW238417   1.963  12.808  11.775
45529SOL     OW38418   2.845  11.073  13.105
45529SOL    HW138419   2.914  11.139  13.115
45529SOL    HW238420   2.793  11.104  13.031
45530SOL     OW38421   2.392   8.076  14.814
45530SOL    HW138422   2.450   8.150  14.794
45530SOL    HW238423   2.304   8.111  14.801
45531SOL     OW38424  13.565  12.036   0.102
45531SOL    HW138425  13.659  12.023   0.116
45531SOL    HW238426  13.558  12.068   0.012
45532SOL     OW38427  13.105  12.062   0.645
45532SOL    HW138428  13.157  12.025   0.716
45532SOL    HW238429  13.145  12.147   0.627
45533SOL     OW38430  10.558  13.267   6.528
45533SOL    HW138431  10.491  13.229   6.471
45533SOL    HW238432  10.538  13.232   6.615
45534SOL     OW38433   9.269  12.009  12.349
45534SOL    HW138434   9.212  11.933  12.339
45534SOL    HW238435   9.223  12.066  12.412
45535SOL     OW38436   4.112   3.470   3.745
45535SOL    HW138437   4.200   3.486   3.778
45535SOL    HW238438   4.094   3.379   3.768
45536SOL     OW38439  10.583   4.829   5.050
45536SOL    HW138440  10.615   4.919   5.041
45536SOL    HW238441  10.508   4.836   5.108
45537SOL     OW38442  11.004   0.607   6.696
45537SOL    HW138443  11.047   0.627   6.779
45537SOL    HW238444  11.062   0.543   6.654
45538SOL     OW38445  13.140   8.759  10.296
45538SOL    HW138446  13.200   8.736  10.225
45538SOL    HW238447  13.053   8.745  10.259
45539SOL     OW38448   6.370  12.654   2.301
45539SOL    HW138449   6.397  12.714   2.371
45539SOL    HW238450   6.369  12.568   2.343
45540SOL     OW38451  11.333   5.710   1.455
45540SOL    HW138452  11.278   5.692   1.380
45540SOL    HW238453  11.407   5.760   1.420
45541SOL     OW38454  13.648  10.751   6.174
45541SOL    HW138455  13.552  10.748   6.167
45541SOL    HW238456  13.665  10.801   6.254
45542SOL     OW38457  12.017  13.899   5.981
45542SOL    HW138458  12.033  13.816   5.937
45542SOL    HW238459  12.062  13.964   5.927
45543SOL     OW38460  11.470   9.575   1.928
45543SOL    HW138461  11.416   9.552   1.853
45543SOL    HW238462  11.559   9.552   1.901
45544SOL     OW38463   4.218   8.276   4.483
45544SOL    HW138464   4.152   8.256   4.549
45544SOL    HW238465   4.301   8.272   4.530
45545SOL     OW38466   9.409   9.781   7.044
45545SOL    HW138467   9.354   9.825   7.109
45545SOL    HW238468   9.400   9.688   7.064
45546SOL     OW38469  11.088  12.120   2.897
45546SOL    HW138470  11.172  12.164   2.886
45546SOL    HW238471  11.109  12.027   2.896
45547SOL     OW38472   8.918   2.961   3.049
45547SOL    HW138473   9.007   2.984   3.024
45547SOL    HW238474   8.913   2.866   3.036
45548SOL     OW38475   5.741   8.051   6.589
45548SOL    HW138476   5.765   8.130   6.638
45548SOL    HW238477   5.811   7.989   6.607
45549SOL     OW38478  13.986   9.925  13.895
45549SOL    HW138479  14.045   9.875  13.952
45549SOL    HW238480  13.924   9.859  13.863
45550SOL     OW38481  12.614   6.858   3.382
45550SOL    HW138482  12.519   6.870   3.374
45550SOL    HW238483  12.651   6.945   3.368
45551SOL     OW38484   0.604   2.270   8.423
45551SOL    HW138485   0.692   2.308   8.419
45551SOL    HW238486   0.546   2.343   8.442
45552SOL     OW38487  10.392   3.321   9.404
45552SOL    HW138488  10.297   3.314   9.413
45552SOL    HW238489  10.420   3.371   9.480
45553SOL     OW38490   5.152   6.880   0.951
45553SOL    HW138491   5.072   6.891   0.900
45553SOL    HW238492   5.220   6.923   0.899
45554SOL     OW38493   2.020   8.294   1.171
45554SOL    HW138494   1.988   8.305   1.082
45554SOL    HW238495   1.971   8.358   1.223
45555SOL     OW38496   3.583   8.738   5.575
45555SOL    HW138497   3.637   8.665   5.546
45555SOL    HW238498   3.542   8.707   5.656
45556SOL     OW38499   2.255   3.948   9.717
45556SOL    HW138500   2.196   3.953   9.792
45556SOL    HW238501   2.269   3.854   9.704
45557SOL     OW38502  11.913   8.549   9.132
45557SOL    HW138503  11.967   8.625   9.152
45557SOL    HW238504  11.824   8.577   9.151
45558SOL     OW38505  11.458   1.509   2.424
45558SOL    HW138506  11.369   1.540   2.408
45558SOL    HW238507  11.487   1.560   2.500
45559SOL     OW38508   7.978   8.872   7.343
45559SOL    HW138509   8.014   8.869   7.431
45559SOL    HW238510   7.884   8.854   7.354
45560SOL     OW38511   6.569   2.908  14.238
45560SOL    HW138512   6.577   2.825  14.191
45560SOL    HW238513   6.623   2.897  14.316
45561SOL     OW38514   4.264   1.917   9.144
45561SOL    HW138515   4.217   1.932   9.226
45561SOL    HW238516   4.259   2.001   9.098
45562SOL     OW38517   4.152   1.801  10.556
45562SOL    HW138518   4.241   1.780  10.526
45562SOL    HW238519   4.107   1.829  10.476
45563SOL     OW38520   2.045   5.479  12.457
45563SOL    HW138521   2.135   5.508  12.445
45563SOL    HW238522   2.024   5.430  12.377
45564SOL     OW38523   7.294  10.028  14.236
45564SOL    HW138524   7.370  10.000  14.287
45564SOL    HW238525   7.283  10.120  14.257
45565SOL     OW38526   6.647  10.109  12.515
45565SOL    HW138527   6.689  10.031  12.481
45565SOL    HW238528   6.554  10.095  12.500
45566SOL     OW38529   2.200   6.527  13.534
45566SOL    HW138530   2.215   6.468  13.460
45566SOL    HW238531   2.163   6.607  13.495
45567SOL     OW38532   3.291   1.700  13.148
45567SOL    HW138533   3.272   1.665  13.235
45567SOL    HW238534   3.212   1.682  13.097
45568SOL     OW38535   9.322   3.037   4.889
45568SOL    HW138536   9.234   3.027   4.926
45568SOL    HW238537   9.315   3.111   4.829
45569SOL     OW38538   0.268  13.563   7.420
45569SOL    HW138539   0.331  13.634   7.423
45569SOL    HW238540   0.320  13.485   7.400
45570SOL     OW38541   9.438   1.274  14.076
45570SOL    HW138542   9.367   1.334  14.099
45570SOL    HW238543   9.402   1.187  14.095
45571SOL     OW38544   1.168   8.039  14.458
45571SOL    HW138545   1.078   8.070  14.470
45571SOL    HW238546   1.193   8.005  14.544
45572SOL     OW38547   8.214  10.237   1.296
45572SOL    HW138548   8.246  10.221   1.384
45572SOL    HW238549   8.293  10.240   1.242
45573SOL     OW38550   3.411   8.461   6.209
45573SOL    HW138551   3.390   8.554   6.221
45573SOL    HW238552   3.349   8.415   6.265
45574SOL     OW38553  13.308   3.849   1.614
45574SOL    HW138554  13.325   3.755   1.619
45574SOL    HW238555  13.261   3.860   1.531
45575SOL     OW38556   0.707   6.027  14.504
45575SOL    HW138557   0.800   6.027  14.530
45575SOL    HW238558   0.705   5.978  14.422
45576SOL     OW38559   1.862   9.871   2.908
45576SOL    HW138560   1.892   9.961   2.900
45576SOL    HW238561   1.859   9.839   2.817
45577SOL     OW38562   4.901  10.847   2.072
45577SOL    HW138563   4.977  10.820   2.020
45577SOL    HW238564   4.831  10.860   2.007
45578SOL     OW38565   8.598   2.435   2.261
45578SOL    HW138566   8.542   2.445   2.338
45578SOL    HW238567   8.578   2.347   2.228
45579SOL     OW38568   5.060   9.599  11.750
45579SOL    HW138569   4.971   9.565  11.758
45579SOL    HW238570   5.091   9.568  11.665
45580SOL     OW38571   8.377  10.829   8.322
45580SOL    HW138572   8.431  10.853   8.247
45580SOL    HW238573   8.439  10.790   8.385
45581SOL     OW38574   0.156   3.809  14.738
45581SOL    HW138575   0.163   3.875  14.807
45581SOL    HW238576   0.205   3.846  14.665
45582SOL     OW38577   6.556   4.913   3.084
45582SOL    HW138578   6.633   4.937   3.136
45582SOL    HW238579   6.482   4.936   3.139
45583SOL     OW38580   4.120   5.938  14.174
45583SOL    HW138581   4.148   5.985  14.095
45583SOL    HW238582   4.145   5.847  14.158
45584SOL     OW38583   3.523  13.309   4.703
45584SOL    HW138584   3.559  13.388   4.741
45584SOL    HW238585   3.546  13.315   4.610
45585SOL     OW38586  12.022  14.640   1.787
45585SOL    HW138587  12.056  14.651   1.876
45585SOL    HW238588  12.100  14.633   1.732
45586SOL     OW38589   0.483   9.151  12.921
45586SOL    HW138590   0.393   9.119  12.922
45586SOL    HW238591   0.474   9.246  12.906
45587SOL     OW38592  14.850   5.982  10.479
45587SOL    HW138593   0.067   5.973  10.447
45587SOL    HW238594  14.807   5.900  10.454
45588SOL     OW38595   8.043   5.072   0.134
45588SOL    HW138596   7.994   4.999   0.171
45588SOL    HW238597   8.135   5.050   0.149
45589SOL     OW38598   1.218   9.872  12.692
45589SOL    HW138599   1.179   9.954  12.661
45589SOL    HW238600   1.214   9.813  12.616
45590SOL     OW38601   6.676  10.739   9.005
45590SOL    HW138602   6.664  10.726   8.911
45590SOL    HW238603   6.597  10.786   9.032
45591SOL     OW38604  13.289   5.902   0.813
45591SOL    HW138605  13.366   5.919   0.866
45591SOL    HW238606  13.322   5.852   0.738
45592SOL     OW38607   4.063   9.676   3.839
45592SOL    HW138608   4.033   9.590   3.869
45592SOL    HW238609   4.155   9.663   3.818
45593SOL     OW38610   7.123   9.363   9.570
45593SOL    HW138611   7.212   9.355   9.604
45593SOL    HW238612   7.078   9.284   9.600
45594SOL     OW38613   6.821   5.700   2.512
45594SOL    HW138614   6.849   5.670   2.425
45594SOL    HW238615   6.902   5.726   2.556
45595SOL     OW38616  11.971   0.524   7.485
45595SOL    HW138617  11.944   0.526   7.577
45595SOL    HW238618  11.937   0.606   7.449
45596SOL     OW38619  12.262   4.794   8.846
45596SOL    HW138620  12.213   4.876   8.836
45596SOL    HW238621  12.239   4.742   8.769
45597SOL     OW38622   3.013  11.575  11.639
45597SOL    HW138623   3.044  11.505  11.582
45597SOL    HW238624   3.034  11.545  11.727
45598SOL     OW38625   5.040   4.475   1.916
45598SOL    HW138626   4.949   4.488   1.890
45598SOL    HW238627   5.075   4.414   1.851
45599SOL     OW38628   2.424   5.989   7.299
45599SOL    HW138629   2.398   5.975   7.390
45599SOL    HW238630   2.440   5.901   7.265
45600SOL     OW38631   0.518   9.018  14.855
45600SOL    HW138632   0.528   8.923  14.853
45600SOL    HW238633   0.551   9.048  14.770
45601SOL     OW38634   9.847   7.362  10.222
45601SOL    HW138635   9.867   7.393  10.133
45601SOL    HW238636   9.867   7.436  10.278
45602SOL     OW38637  13.669   9.840   1.904
45602SOL    HW138638  13.741   9.783   1.931
45602SOL    HW238639  13.712   9.914   1.862
45603SOL     OW38640   0.208   8.546   1.171
45603SOL    HW138641   0.159   8.545   1.253
45603SOL    HW238642   0.149   8.509   1.106
45604SOL     OW38643  14.103  13.462  10.800
45604SOL    HW138644  14.099  13.394  10.733
45604SOL    HW238645  14.131  13.417  10.879
45605SOL     OW38646   1.653  12.006  14.529
45605SOL    HW138647   1.594  12.080  14.542
45605SOL    HW238648   1.713  12.035  14.461
45606SOL     OW38649   8.509   3.410   4.962
45606SOL    HW138650   8.463   3.449   5.036
45606SOL    HW238651   8.581   3.470   4.943
45607SOL     OW38652   5.559   5.353   8.247
45607SOL    HW138653   5.629   5.354   8.313
45607SOL    HW238654   5.577   5.274   8.196
45608SOL     OW38655   1.450   7.314   0.873
45608SOL    HW138656   1.543   7.331   0.884
45608SOL    HW238657   1.420   7.382   0.813
45609SOL     OW38658   7.240   2.400   5.037
45609SOL    HW138659   7.318   2.345   5.028
45609SOL    HW238660   7.176   2.343   5.079
45610SOL     OW38661   0.690   5.608   1.654
45610SOL    HW138662   0.617   5.588   1.713
45610SOL    HW238663   0.733   5.683   1.695
45611SOL     OW38664   9.504   9.918   9.537
45611SOL    HW138665   9.467   9.859   9.472
45611SOL    HW238666   9.479  10.006   9.508
45612SOL     OW38667   8.002  10.363  14.058
45612SOL    HW138668   7.920  10.326  14.090
45612SOL    HW238669   8.029  10.303  13.988
45613SOL     OW38670  10.316   5.034   3.978
45613SOL    HW138671  10.383   5.102   3.982
45613SOL    HW238672  10.314   5.009   3.886
45614SOL     OW38673   1.485   4.523   1.417
45614SOL    HW138674   1.538   4.545   1.340
45614SOL    HW238675   1.498   4.429   1.428
45615SOL     OW38676   0.917  10.889   6.809
45615SOL    HW138677   0.906  10.984   6.801
45615SOL    HW238678   1.003  10.872   6.771
45616SOL     OW38679   9.292  13.595   8.484
45616SOL    HW138680   9.279  13.543   8.563
45616SOL    HW238681   9.382  13.626   8.491
45617SOL     OW38682   9.098   9.085   2.866
45617SOL    HW138683   9.119   9.155   2.927
45617SOL    HW238684   9.167   9.020   2.879
45618SOL     OW38685   4.121   0.134   3.628
45618SOL    HW138686   4.028   0.155   3.639
45618SOL    HW238687   4.125   0.086   3.546
45619SOL     OW38688  12.304   6.895  12.447
45619SOL    HW138689  12.386   6.920  12.490
45619SOL    HW238690  12.331   6.865  12.360
45620SOL     OW38691   7.433   1.816  13.344
45620SOL    HW138692   7.488   1.852  13.414
45620SOL    HW238693   7.345   1.848  13.364
45621SOL     OW38694   3.393   7.921   5.727
45621SOL    HW138695   3.341   7.844   5.707
45621SOL    HW238696   3.393   7.972   5.645
45622SOL     OW38697  13.157  13.619  10.431
45622SOL    HW138698  13.138  13.672  10.508
45622SOL    HW238699  13.071  13.601  10.393
45623SOL     OW38700   7.812   0.101   1.505
45623SOL    HW138701   7.845   0.025   1.552
45623SOL    HW238702   7.890   0.149   1.479
45624SOL     OW38703   1.601   1.605  14.870
45624SOL    HW138704   1.667   1.536  14.871
45624SOL    HW238705   1.565   1.601  14.781
45625SOL     OW38706  10.616  11.566  10.791
45625SOL    HW138707  10.707  11.535  10.786
45625SOL    HW238708  10.571  11.519  10.720
45626SOL     OW38709   8.717   9.117   4.292
45626SOL    HW138710   8.799   9.100   4.246
45626SOL    HW238711   8.652   9.127   4.223
45627SOL     OW38712   1.889   8.634   3.253
45627SOL    HW138713   1.863   8.613   3.343
45627SOL    HW238714   1.898   8.729   3.252
45628SOL     OW38715   8.772   3.422  14.375
45628SOL    HW138716   8.681   3.393  14.373
45628SOL    HW238717   8.779   3.486  14.304
45629SOL     OW38718   1.084   2.258  11.469
45629SOL    HW138719   1.063   2.280  11.560
45629SOL    HW238720   1.155   2.194  11.475
45630SOL     OW38721   3.764   2.293   4.278
45630SOL    HW138722   3.758   2.308   4.373
45630SOL    HW238723   3.858   2.289   4.261
45631SOL     OW38724   5.075   4.347   3.058
45631SOL    HW138725   5.090   4.333   3.152
45631SOL    HW238726   5.160   4.376   3.025
45632SOL     OW38727   8.369   2.828   7.443
45632SOL    HW138728   8.355   2.739   7.477
45632SOL    HW238729   8.344   2.822   7.351
45633SOL     OW38730  13.371   2.729   1.778
45633SOL    HW138731  13.381   2.824   1.787
45633SOL    HW238732  13.426   2.706   1.703
45634SOL     OW38733  10.348  12.253  12.517
45634SOL    HW138734  10.359  12.224  12.608
45634SOL    HW238735  10.403  12.331  12.509
45635SOL     OW38736   8.153  10.642  13.139
45635SOL    HW138737   8.130  10.629  13.231
45635SOL    HW238738   8.070  10.656  13.095
45636SOL     OW38739   1.827  11.579   6.212
45636SOL    HW138740   1.767  11.521   6.257
45636SOL    HW238741   1.909  11.530   6.205
45637SOL     OW38742   4.153  11.586   9.323
45637SOL    HW138743   4.160  11.503   9.276
45637SOL    HW238744   4.066  11.584   9.363
45638SOL     OW38745   1.496  10.562   8.712
45638SOL    HW138746   1.549  10.509   8.771
45638SOL    HW238747   1.519  10.530   8.624
45639SOL     OW38748  12.057  12.877  11.089
45639SOL    HW138749  12.047  12.938  11.163
45639SOL    HW238750  12.040  12.931  11.012
45640SOL     OW38751   6.420   7.986   0.799
45640SOL    HW138752   6.456   7.958   0.883
45640SOL    HW238753   6.440   8.080   0.794
45641SOL     OW38754   5.215   8.850   7.521
45641SOL    HW138755   5.188   8.885   7.437
45641SOL    HW238756   5.248   8.926   7.570
45642SOL     OW38757   0.343  12.245  10.002
45642SOL    HW138758   0.320  12.152  10.003
45642SOL    HW238759   0.372  12.263  10.092
45643SOL     OW38760   2.116  13.060   7.389
45643SOL    HW138761   2.088  13.081   7.300
45643SOL    HW238762   2.180  12.990   7.378
45644SOL     OW38763  12.327   1.467   6.246
45644SOL    HW138764  12.377   1.387   6.226
45644SOL    HW238765  12.250   1.436   6.293
45645SOL     OW38766   2.020  14.413   2.177
45645SOL    HW138767   2.063  14.335   2.213
45645SOL    HW238768   2.069  14.487   2.212
45646SOL     OW38769   6.226   6.443  11.277
45646SOL    HW138770   6.216   6.521  11.333
45646SOL    HW238771   6.307   6.460  11.228
45647SOL     OW38772  11.825  10.799   4.176
45647SOL    HW138773  11.788  10.721   4.216
45647SOL    HW238774  11.780  10.872   4.218
45648SOL     OW38775   0.352   8.744   7.124
45648SOL    HW138776   0.361   8.839   7.133
45648SOL    HW238777   0.299   8.733   7.045
45649SOL     OW38778   6.888   2.258  11.458
45649SOL    HW138779   6.860   2.304  11.378
45649SOL    HW238780   6.923   2.175  11.426
45650SOL     OW38781   5.046   3.265   3.315
45650SOL    HW138782   4.976   3.299   3.260
45650SOL    HW238783   5.053   3.327   3.387
45651SOL     OW38784   1.034   8.595   0.696
45651SOL    HW138785   1.109   8.592   0.755
45651SOL    HW238786   0.983   8.518   0.719
45652SOL     OW38787   9.519  12.181  12.750
45652SOL    HW138788   9.547  12.271  12.730
45652SOL    HW238789   9.466  12.189  12.830
45653SOL     OW38790  13.724  11.708   4.717
45653SOL    HW138791  13.633  11.686   4.696
45653SOL    HW238792  13.721  11.742   4.807
45654SOL     OW38793  12.589   5.097   9.816
45654SOL    HW138794  12.509   5.110   9.765
45654SOL    HW238795  12.580   5.009   9.852
45655SOL     OW38796   9.762  11.403  10.464
45655SOL    HW138797   9.702  11.443  10.527
45655SOL    HW238798   9.712  11.333  10.423
45656SOL     OW38799  12.238  10.340  13.913
45656SOL    HW138800  12.157  10.314  13.869
45656SOL    HW238801  12.307  10.320  13.850
45657SOL     OW38802  12.693  12.681  10.105
45657SOL    HW138803  12.765  12.736  10.075
45657SOL    HW238804  12.719  12.654  10.194
45658SOL     OW38805  12.009   5.524  12.772
45658SOL    HW138806  11.930   5.578  12.768
45658SOL    HW238807  12.004   5.480  12.856
45659SOL     OW38808  14.033  12.146   1.089
45659SOL    HW138809  14.049  12.231   1.130
45659SOL    HW238810  14.088  12.145   1.011
45660SOL     OW38811  13.510   2.962  11.731
45660SOL    HW138812  13.446   3.010  11.678
45660SOL    HW238813  13.544   2.894  11.672
45661SOL     OW38814   9.921   5.776  14.558
45661SOL    HW138815   9.934   5.692  14.512
45661SOL    HW238816   9.826   5.785  14.564
45662SOL     OW38817   8.116   7.634   9.188
45662SOL    HW138818   8.163   7.688   9.125
45662SOL    HW238819   8.173   7.558   9.201
45663SOL     OW38820   5.937   3.995   3.352
45663SOL    HW138821   5.964   4.043   3.430
45663SOL    HW238822   5.843   3.981   3.365
45664SOL     OW38823   5.218  10.595  11.682
45664SOL    HW138824   5.123  10.608  11.677
45664SOL    HW238825   5.232  10.548  11.764
45665SOL     OW38826   0.522   4.241  10.282
45665SOL    HW138827   0.557   4.224  10.195
45665SOL    HW238828   0.462   4.315  10.270
45666SOL     OW38829   7.208   4.841   7.356
45666SOL    HW138830   7.238   4.927   7.385
45666SOL    HW238831   7.246   4.780   7.418
45667SOL     OW38832  11.075   2.693   3.751
45667SOL    HW138833  11.080   2.683   3.846
45667SOL    HW238834  10.998   2.749   3.737
45668SOL     OW38835   3.300  11.015   7.850
45668SOL    HW138836   3.347  10.933   7.838
45668SOL    HW238837   3.245  11.001   7.926
45669SOL     OW38838  11.740  12.480   5.162
45669SOL    HW138839  11.647  12.459   5.152
45669SOL    HW238840  11.757  12.548   5.097
45670SOL     OW38841  10.824   7.776   7.866
45670SOL    HW138842  10.866   7.720   7.801
45670SOL    HW238843  10.883   7.850   7.875
45671SOL     OW38844   3.764   4.197   3.118
45671SOL    HW138845   3.754   4.102   3.117
45671SOL    HW238846   3.761   4.220   3.210
45672SOL     OW38847   3.231   1.088   2.288
45672SOL    HW138848   3.171   1.019   2.316
45672SOL    HW238849   3.181   1.137   2.222
45673SOL     OW38850   3.410   0.505  11.483
45673SOL    HW138851   3.412   0.582  11.540
45673SOL    HW238852   3.319   0.498  11.455
45674SOL     OW38853   5.417   3.121  14.725
45674SOL    HW138854   5.447   3.197  14.675
45674SOL    HW238855   5.326   3.140  14.746
45675SOL     OW38856  13.435   5.345  11.285
45675SOL    HW138857  13.493   5.414  11.255
45675SOL    HW238858  13.362   5.345  11.222
45676SOL     OW38859   1.473   5.089  14.736
45676SOL    HW138860   1.399   5.042  14.696
45676SOL    HW238861   1.549   5.033  14.719
45677SOL     OW38862  13.674   3.938   4.571
45677SOL    HW138863  13.659   3.856   4.524
45677SOL    HW238864  13.587   3.962   4.605
45678SOL     OW38865  10.803   2.795  12.520
45678SOL    HW138866  10.807   2.869  12.579
45678SOL    HW238867  10.820   2.832  12.433
45679SOL     OW38868   1.838   6.119   4.059
45679SOL    HW138869   1.913   6.112   4.119
45679SOL    HW238870   1.799   6.032   4.060
45680SOL     OW38871  11.299  12.622   7.937
45680SOL    HW138872  11.217  12.574   7.951
45680SOL    HW238873  11.271  12.703   7.892
45681SOL     OW38874   2.343  11.744  13.889
45681SOL    HW138875   2.363  11.651  13.892
45681SOL    HW238876   2.425  11.785  13.861
45682SOL     OW38877   8.818   1.279   3.616
45682SOL    HW138878   8.725   1.276   3.593
45682SOL    HW238879   8.863   1.297   3.534
45683SOL     OW38880  12.507  12.196   3.767
45683SOL    HW138881  12.596  12.230   3.777
45683SOL    HW238882  12.498  12.131   3.836
45684SOL     OW38883   9.928  10.248  10.010
45684SOL    HW138884   9.909  10.341   9.999
45684SOL    HW238885   9.964  10.220   9.926
45685SOL     OW38886  14.236   7.649   7.187
45685SOL    HW138887  14.212   7.727   7.138
45685SOL    HW238888  14.330   7.637   7.169
45686SOL     OW38889   6.545   2.531  14.725
45686SOL    HW138890   6.527   2.453  14.674
45686SOL    HW238891   6.557   2.499  14.815
45687SOL     OW38892  10.252   8.245  11.745
45687SOL    HW138893  10.313   8.231  11.672
45687SOL    HW238894  10.224   8.157  11.769
45688SOL     OW38895   8.671  14.440  13.883
45688SOL    HW138896   8.717  14.362  13.852
45688SOL    HW238897   8.634  14.479  13.804
45689SOL     OW38898   3.558  12.034   8.183
45689SOL    HW138899   3.487  11.973   8.162
45689SOL    HW238900   3.563  12.092   8.107
45690SOL     OW38901  14.442   3.106   5.578
45690SOL    HW138902  14.534   3.084   5.597
45690SOL    HW238903  14.400   3.022   5.561
45691SOL     OW38904   1.644  11.222  11.989
45691SOL    HW138905   1.653  11.256  11.900
45691SOL    HW238906   1.553  11.191  11.994
45692SOL     OW38907  14.254   9.172   5.244
45692SOL    HW138908  14.219   9.246   5.194
45692SOL    HW238909  14.314   9.127   5.183
45693SOL     OW38910   6.920  10.749   3.988
45693SOL    HW138911   6.984  10.819   3.978
45693SOL    HW238912   6.835  10.791   3.972
45694SOL     OW38913   2.401  10.575  11.639
45694SOL    HW138914   2.426  10.543  11.552
45694SOL    HW238915   2.323  10.523  11.661
45695SOL     OW38916  13.936   2.299  12.221
45695SOL    HW138917  13.974   2.212  12.236
45695SOL    HW238918  13.867   2.307  12.287
45696SOL     OW38919   4.838   0.554   1.761
45696SOL    HW138920   4.914   0.518   1.807
45696SOL    HW238921   4.875   0.612   1.695
45697SOL     OW38922   5.441  14.045   5.283
45697SOL    HW138923   5.402  13.961   5.305
45697SOL    HW238924   5.367  14.103   5.269
45698SOL     OW38925  11.065   1.551  13.366
45698SOL    HW138926  11.059   1.609  13.442
45698SOL    HW238927  11.156   1.519  13.368
45699SOL     OW38928  11.042  14.170   2.984
45699SOL    HW138929  11.094  14.192   3.061
45699SOL    HW238930  10.959  14.138   3.019
45700SOL     OW38931   8.412   2.439   6.278
45700SOL    HW138932   8.484   2.501   6.285
45700SOL    HW238933   8.367   2.462   6.197
45701SOL     OW38934   5.898   7.718  10.654
45701SOL    HW138935   5.872   7.810  10.665
45701SOL    HW238936   5.893   7.703  10.560
45702SOL     OW38937   1.113  12.377   4.862
45702SOL    HW138938   1.106  12.282   4.872
45702SOL    HW238939   1.032  12.411   4.900
45703SOL     OW38940   8.987   2.545  12.754
45703SOL    HW138941   8.908   2.510  12.794
45703SOL    HW238942   9.044   2.468  12.743
45704SOL     OW38943  10.279   2.101   2.149
45704SOL    HW138944  10.341   2.163   2.184
45704SOL    HW238945  10.301   2.018   2.191
45705SOL     OW38946  13.067   3.068   4.753
45705SOL    HW138947  13.105   3.048   4.668
45705SOL    HW238948  13.143   3.079   4.811
45706SOL     OW38949   9.356  11.007   9.383
45706SOL    HW138950   9.315  11.079   9.431
45706SOL    HW238951   9.441  10.995   9.426
45707SOL     OW38952   8.136   8.515   9.986
45707SOL    HW138953   8.180   8.477   9.910
45707SOL    HW238954   8.082   8.585   9.949
45708SOL     OW38955   3.579   8.533  10.626
45708SOL    HW138956   3.488   8.555  10.606
45708SOL    HW238957   3.630   8.591  10.570
45709SOL     OW38958   4.783   5.086  14.096
45709SOL    HW138959   4.875   5.102  14.116
45709SOL    HW238960   4.772   5.114  14.006
45710SOL     OW38961   6.902  12.209   2.499
45710SOL    HW138962   6.857  12.202   2.583
45710SOL    HW238963   6.982  12.259   2.518
45711SOL     OW38964  13.842  11.089   4.670
45711SOL    HW138965  13.846  11.094   4.766
45711SOL    HW238966  13.839  11.181   4.643
45712SOL     OW38967   4.621   6.292   2.227
45712SOL    HW138968   4.630   6.306   2.321
45712SOL    HW238969   4.677   6.359   2.187
45713SOL     OW38970   3.153   0.341   4.797
45713SOL    HW138971   3.114   0.264   4.755
45713SOL    HW238972   3.102   0.353   4.877
45714SOL     OW38973  11.228  12.893  14.183
45714SOL    HW138974  11.185  12.978  14.176
45714SOL    HW238975  11.321  12.912  14.185
45715SOL     OW38976   3.073  11.837   5.485
45715SOL    HW138977   2.984  11.840   5.519
45715SOL    HW238978   3.071  11.769   5.418
45716SOL     OW38979  11.736   5.048   6.373
45716SOL    HW138980  11.743   4.970   6.318
45716SOL    HW238981  11.643   5.070   6.370
45717SOL     OW38982   8.561   6.657   1.483
45717SOL    HW138983   8.541   6.657   1.389
45717SOL    HW238984   8.626   6.588   1.493
45718SOL     OW38985  14.680   3.693   0.320
45718SOL    HW138986  14.656   3.645   0.240
45718SOL    HW238987  14.634   3.648   0.390
45719SOL     OW38988   0.520   6.829   9.621
45719SOL    HW138989   0.498   6.900   9.561
45719SOL    HW238990   0.579   6.869   9.685
45720SOL     OW38991   9.240   8.495   0.070
45720SOL    HW138992   9.204   8.583   0.060
45720SOL    HW238993   9.305   8.488  14.872
45721SOL     OW38994  13.261   3.060  12.252
45721SOL    HW138995  13.311   3.116  12.312
45721SOL    HW238996  13.300   3.075  12.166
45722SOL     OW38997   7.103  10.283  12.231
45722SOL    HW138998   7.058  10.199  12.236
45722SOL    HW238999   7.074  10.321  12.148
45723SOL     OW39000  10.622  10.556   6.753
45723SOL    HW139001  10.532  10.547   6.721
45723SOL    HW239002  10.632  10.650   6.771
45724SOL     OW39003   6.634   3.276   7.536
45724SOL    HW139004   6.698   3.220   7.491
45724SOL    HW239005   6.554   3.224   7.538
45725SOL     OW39006   2.048  11.719  13.798
45725SOL    HW139007   2.043  11.760  13.884
45725SOL    HW239008   2.140  11.726  13.773
45726SOL     OW39009   1.870   1.174   2.287
45726SOL    HW139010   1.868   1.249   2.227
45726SOL    HW239011   1.923   1.203   2.361
45727SOL     OW39012   1.404   5.563   6.508
45727SOL    HW139013   1.346   5.553   6.583
45727SOL    HW239014   1.405   5.657   6.490
45728SOL     OW39015   7.380   6.530   8.819
45728SOL    HW139016   7.288   6.554   8.825
45728SOL    HW239017   7.379   6.439   8.789
45729SOL     OW39018   2.208  12.747   6.254
45729SOL    HW139019   2.153  12.707   6.187
45729SOL    HW239020   2.148  12.769   6.325
45730SOL     OW39021  12.984   3.586   7.569
45730SOL    HW139022  13.009   3.602   7.478
45730SOL    HW239023  12.976   3.673   7.607
45731SOL     OW39024   0.062   0.310   6.926
45731SOL    HW139025   0.126   0.278   6.862
45731SOL    HW239026   0.054   0.239   6.990
45732SOL     OW39027   8.410  11.629   0.284
45732SOL    HW139028   8.426  11.562   0.217
45732SOL    HW239029   8.349  11.690   0.244
45733SOL     OW39030   6.829  11.029   7.263
45733SOL    HW139031   6.824  11.104   7.203
45733SOL    HW239032   6.920  11.000   7.257
45734SOL     OW39033   2.319  13.105   9.956
45734SOL    HW139034   2.255  13.170   9.981
45734SOL    HW239035   2.336  13.055  10.036
45735SOL     OW39036  13.832   3.282   8.674
45735SOL    HW139037  13.832   3.275   8.578
45735SOL    HW239038  13.841   3.192   8.704
45736SOL     OW39039  10.639   4.977   4.497
45736SOL    HW139040  10.732   4.996   4.507
45736SOL    HW239041  10.601   4.995   4.583
45737SOL     OW39042   3.372  14.775  13.315
45737SOL    HW139043   3.320  14.850  13.346
45737SOL    HW239044   3.439  14.763  13.383
45738SOL     OW39045   2.822   7.547   6.727
45738SOL    HW139046   2.804   7.638   6.751
45738SOL    HW239047   2.852   7.507   6.808
45739SOL     OW39048  13.563   3.628  11.147
45739SOL    HW139049  13.495   3.562  11.135
45739SOL    HW239050  13.643   3.587  11.115
45740SOL     OW39051   7.735   3.306   4.976
45740SOL    HW139052   7.747   3.392   4.936
45740SOL    HW239053   7.794   3.307   5.052
45741SOL     OW39054   6.171   7.941  12.277
45741SOL    HW139055   6.233   7.982  12.338
45741SOL    HW239056   6.223   7.872  12.235
45742SOL     OW39057   4.338   2.833   8.720
45742SOL    HW139058   4.390   2.754   8.703
45742SOL    HW239059   4.260   2.801   8.764
45743SOL     OW39060  11.430   2.071   5.872
45743SOL    HW139061  11.516   2.100   5.841
45743SOL    HW239062  11.372   2.082   5.796
45744SOL     OW39063   2.332   3.789  10.703
45744SOL    HW139064   2.294   3.731  10.769
45744SOL    HW239065   2.372   3.859  10.754
45745SOL     OW39066  14.297  14.657  12.481
45745SOL    HW139067  14.352  14.639  12.404
45745SOL    HW239068  14.316  14.748  12.503
45746SOL     OW39069  11.858   4.893   1.474
45746SOL    HW139070  11.789   4.847   1.522
45746SOL    HW239071  11.834   4.883   1.382
45747SOL     OW39072   2.026  12.223  10.457
45747SOL    HW139073   1.936  12.229  10.424
45747SOL    HW239074   2.076  12.185  10.385
45748SOL     OW39075   8.190   5.526  13.806
45748SOL    HW139076   8.205   5.614  13.770
45748SOL    HW239077   8.116   5.537  13.866
45749SOL     OW39078  11.861  13.838  12.201
45749SOL    HW139079  11.878  13.799  12.115
45749SOL    HW239080  11.893  13.928  12.192
45750SOL     OW39081   2.572   9.522  11.880
45750SOL    HW139082   2.616   9.602  11.852
45750SOL    HW239083   2.479   9.536  11.859
45751SOL     OW39084   9.942   2.039   1.888
45751SOL    HW139085   9.923   1.966   1.948
45751SOL    HW239086   9.953   1.997   1.803
45752SOL     OW39087   3.068  12.597  13.294
45752SOL    HW139088   3.065  12.642  13.379
45752SOL    HW239089   3.145  12.634  13.251
45753SOL     OW39090   0.935   7.266   4.132
45753SOL    HW139091   0.953   7.243   4.041
45753SOL    HW239092   0.845   7.298   4.132
45754SOL     OW39093   9.000   1.918  10.778
45754SOL    HW139094   9.088   1.913  10.741
45754SOL    HW239095   9.013   1.932  10.871
45755SOL     OW39096   6.203   6.084   3.173
45755SOL    HW139097   6.177   6.174   3.196
45755SOL    HW239098   6.283   6.095   3.122
45756SOL     OW39099  11.653  11.081  13.655
45756SOL    HW139100  11.688  11.118  13.574
45756SOL    HW239101  11.651  10.986  13.640
45757SOL     OW39102   4.310   7.003  12.798
45757SOL    HW139103   4.330   6.909  12.799
45757SOL    HW239104   4.215   7.007  12.810
45758SOL     OW39105   3.194  14.305   8.473
45758SOL    HW139106   3.233  14.383   8.435
45758SOL    HW239107   3.130  14.337   8.536
45759SOL     OW39108   2.785   2.749  11.155
45759SOL    HW139109   2.770   2.739  11.249
45759SOL    HW239110   2.752   2.837  11.135
45760SOL     OW39111   2.006   8.310  11.211
45760SOL    HW139112   1.925   8.360  11.199
45760SOL    HW239113   2.016   8.304  11.306
45761SOL     OW39114  13.894  12.766   6.687
45761SOL    HW139115  13.868  12.811   6.606
45761SOL    HW239116  13.858  12.678   6.677
45762SOL     OW39117   1.345   8.208   2.661
45762SOL    HW139118   1.274   8.243   2.607
45762SOL    HW239119   1.402   8.284   2.677
45763SOL     OW39120   1.739   9.293  14.613
45763SOL    HW139121   1.687   9.305  14.692
45763SOL    HW239122   1.775   9.204  14.620
45764SOL     OW39123   0.082  12.533   9.691
45764SOL    HW139124   0.115  12.465   9.749
45764SOL    HW239125  14.866  12.506   9.668
45765SOL     OW39126   5.747   0.552   1.248
45765SOL    HW139127   5.654   0.530   1.243
45765SOL    HW239128   5.791   0.484   1.197
45766SOL     OW39129  12.155   4.220   7.570
45766SOL    HW139130  12.131   4.169   7.648
45766SOL    HW239131  12.072   4.237   7.525
45767SOL     OW39132   5.262   8.004   6.273
45767SOL    HW139133   5.226   7.979   6.188
45767SOL    HW239134   5.201   8.069   6.307
45768SOL     OW39135   7.109   3.640   6.175
45768SOL    HW139136   7.158   3.616   6.096
45768SOL    HW239137   7.176   3.662   6.239
45769SOL     OW39138  13.494   1.111  10.412
45769SOL    HW139139  13.424   1.171  10.438
45769SOL    HW239140  13.454   1.025  10.413
45770SOL     OW39141   3.114   3.878   2.529
45770SOL    HW139142   3.077   3.823   2.599
45770SOL    HW239143   3.208   3.863   2.535
45771SOL     OW39144  14.549   2.045  12.462
45771SOL    HW139145  14.589   2.109  12.522
45771SOL    HW239146  14.496   1.989  12.517
45772SOL     OW39147   5.436   3.800  14.750
45772SOL    HW139148   5.344   3.779  14.768
45772SOL    HW239149   5.434   3.857  14.673
45773SOL     OW39150   7.807   3.832   7.311
45773SOL    HW139151   7.754   3.752   7.307
45773SOL    HW239152   7.891   3.804   7.347
45774SOL     OW39153  12.499   4.515   4.113
45774SOL    HW139154  12.479   4.468   4.194
45774SOL    HW239155  12.438   4.478   4.049
45775SOL     OW39156   4.841   2.253  10.379
45775SOL    HW139157   4.831   2.274  10.472
45775SOL    HW239158   4.802   2.328  10.334
45776SOL     OW39159   4.432   5.130  11.997
45776SOL    HW139160   4.525   5.134  12.017
45776SOL    HW239161   4.388   5.153  12.079
45777SOL     OW39162   2.583   2.819   5.487
45777SOL    HW139163   2.615   2.874   5.558
45777SOL    HW239164   2.516   2.763   5.529
45778SOL     OW39165   4.848   0.642  10.423
45778SOL    HW139166   4.906   0.607  10.490
45778SOL    HW239167   4.906   0.693  10.366
45779SOL     OW39168  14.052   0.999   7.079
45779SOL    HW139169  14.004   1.065   7.129
45779SOL    HW239170  14.062   0.926   7.140
45780SOL     OW39171   6.556   4.169   1.865
45780SOL    HW139172   6.597   4.082   1.866
45780SOL    HW239173   6.606   4.219   1.929
45781SOL     OW39174   3.162   2.798   3.552
45781SOL    HW139175   3.112   2.788   3.471
45781SOL    HW239176   3.246   2.757   3.533
45782SOL     OW39177  14.271  14.042  12.775
45782SOL    HW139178  14.235  14.117  12.823
45782SOL    HW239179  14.222  14.040  12.693
45783SOL     OW39180   5.038   0.092  10.770
45783SOL    HW139181   5.053   0.067  10.678
45783SOL    HW239182   4.946   0.119  10.773
45784SOL     OW39183  14.630  12.934   9.024
45784SOL    HW139184  14.617  12.876   9.100
45784SOL    HW239185  14.683  12.882   8.963
45785SOL     OW39186   1.315   6.308  13.858
45785SOL    HW139187   1.272   6.384  13.819
45785SOL    HW239188   1.409   6.326  13.848
45786SOL     OW39189   9.801   6.031   1.253
45786SOL    HW139190   9.756   5.969   1.197
45786SOL    HW239191   9.863   6.075   1.195
45787SOL     OW39192   3.125   2.486   6.871
45787SOL    HW139193   3.159   2.396   6.873
45787SOL    HW239194   3.067   2.491   6.947
45788SOL     OW39195  10.292  13.513   5.543
45788SOL    HW139196  10.326  13.508   5.454
45788SOL    HW239197  10.349  13.575   5.588
45789SOL     OW39198   2.326   4.762  14.845
45789SOL    HW139199   2.418   4.740  14.832
45789SOL    HW239200   2.321   4.788   0.065
45790SOL     OW39201   5.211  12.672  11.160
45790SOL    HW139202   5.258  12.588  11.159
45790SOL    HW239203   5.233  12.710  11.245
45791SOL     OW39204   8.833  11.772   5.565
45791SOL    HW139205   8.770  11.723   5.619
45791SOL    HW239206   8.779  11.822   5.505
45792SOL     OW39207  10.160  14.197   1.397
45792SOL    HW139208  10.083  14.146   1.424
45792SOL    HW239209  10.181  14.164   1.310
45793SOL     OW39210   6.134   4.160  12.627
45793SOL    HW139211   6.072   4.232  12.630
45793SOL    HW239212   6.174   4.159  12.714
45794SOL     OW39213  12.056   5.533   4.658
45794SOL    HW139214  12.002   5.549   4.735
45794SOL    HW239215  12.005   5.570   4.585
45795SOL     OW39216   5.860  12.800   6.996
45795SOL    HW139217   5.951  12.823   6.977
45795SOL    HW239218   5.834  12.861   7.064
45796SOL     OW39219   0.501   4.504  14.496
45796SOL    HW139220   0.434   4.534  14.434
45796SOL    HW239221   0.483   4.411  14.507
45797SOL     OW39222   1.702   8.891   7.199
45797SOL    HW139223   1.742   8.938   7.126
45797SOL    HW239224   1.688   8.958   7.266
45798SOL     OW39225  14.656   8.009   5.441
45798SOL    HW139226  14.738   7.986   5.397
45798SOL    HW239227  14.620   7.926   5.471
45799SOL     OW39228   7.608   2.784  14.777
45799SOL    HW139229   7.681   2.733  14.743
45799SOL    HW239230   7.618   2.780   0.000
45800SOL     OW39231   5.586  13.032   0.127
45800SOL    HW139232   5.592  12.953   0.180
45800SOL    HW239233   5.615  13.102   0.185
45801SOL     OW39234   4.025  13.140   8.190
45801SOL    HW139235   4.049  13.076   8.257
45801SOL    HW239236   4.058  13.103   8.108
45802SOL     OW39237   2.708   2.938   2.585
45802SOL    HW139238   2.799   2.916   2.599
45802SOL    HW239239   2.659   2.879   2.642
45803SOL     OW39240   4.719  12.671   7.476
45803SOL    HW139241   4.664  12.619   7.417
45803SOL    HW239242   4.676  12.756   7.481
45804SOL     OW39243   0.232   7.605   5.717
45804SOL    HW139244   0.233   7.522   5.668
45804SOL    HW239245   0.140   7.615   5.743
45805SOL     OW39246  14.633  10.219   3.365
45805SOL    HW139247  14.593  10.191   3.283
45805SOL    HW239248  14.644  10.314   3.355
45806SOL     OW39249   5.446   7.858   8.160
45806SOL    HW139250   5.525   7.910   8.169
45806SOL    HW239251   5.405   7.862   8.247
45807SOL     OW39252   3.532   6.222   2.068
45807SOL    HW139253   3.543   6.222   1.973
45807SOL    HW239254   3.617   6.196   2.103
45808SOL     OW39255  14.433   1.578   2.451
45808SOL    HW139256  14.424   1.619   2.365
45808SOL    HW239257  14.408   1.647   2.513
45809SOL     OW39258   2.862   9.146  11.941
45809SOL    HW139259   2.922   9.188  12.002
45809SOL    HW239260   2.775   9.166  11.976
45810SOL     OW39261   4.597  14.444  10.874
45810SOL    HW139262   4.531  14.384  10.909
45810SOL    HW239263   4.666  14.446  10.940
45811SOL     OW39264   5.533   1.009   3.598
45811SOL    HW139265   5.598   1.031   3.664
45811SOL    HW239266   5.551   0.918   3.575
45812SOL     OW39267   8.535   2.189   6.162
45812SOL    HW139268   8.467   2.244   6.200
45812SOL    HW239269   8.605   2.250   6.138
45813SOL     OW39270   5.513   2.350  13.264
45813SOL    HW139271   5.578   2.317  13.202
45813SOL    HW239272   5.453   2.402  13.209
45814SOL     OW39273   2.267   0.046   3.177
45814SOL    HW139274   2.196   0.031   3.115
45814SOL    HW239275   2.248  14.860   3.250
45815SOL     OW39276   9.113   2.517  10.676
45815SOL    HW139277   9.143   2.430  10.703
45815SOL    HW239278   9.149   2.576  10.742
45816SOL     OW39279   2.157  11.726  11.718
45816SOL    HW139280   2.223  11.657  11.715
45816SOL    HW239281   2.202  11.803  11.683
45817SOL     OW39282   8.638  12.400  14.153
45817SOL    HW139283   8.718  12.398  14.207
45817SOL    HW239284   8.616  12.492  14.146
45818SOL     OW39285  13.945  13.735   2.955
45818SOL    HW139286  14.016  13.671   2.948
45818SOL    HW239287  13.921  13.735   3.048
45819SOL     OW39288   6.194   1.753  14.478
45819SOL    HW139289   6.276   1.774  14.434
45819SOL    HW239290   6.126   1.776  14.415
45820SOL     OW39291   1.334   4.875  10.730
45820SOL    HW139292   1.374   4.795  10.764
45820SOL    HW239293   1.240   4.853  10.723
45821SOL     OW39294  13.824   9.180   1.395
45821SOL    HW139295  13.798   9.269   1.373
45821SOL    HW239296  13.774   9.159   1.474
45822SOL     OW39297   1.842  10.766   6.934
45822SOL    HW139298   1.787  10.754   7.011
45822SOL    HW239299   1.788  10.734   6.861
45823SOL     OW39300   3.837   0.391   8.635
45823SOL    HW139301   3.868   0.315   8.685
45823SOL    HW239302   3.891   0.391   8.556
45824SOL     OW39303   1.409  10.525   1.098
45824SOL    HW139304   1.334  10.511   1.156
45824SOL    HW239305   1.485  10.513   1.156
45825SOL     OW39306   9.425  14.072   6.306
45825SOL    HW139307   9.487  14.008   6.272
45825SOL    HW239308   9.375  14.024   6.373
45826SOL     OW39309   8.501   1.050   9.909
45826SOL    HW139310   8.578   1.082   9.956
45826SOL    HW239311   8.430   1.054   9.973
45827SOL     OW39312  11.537  10.412   7.140
45827SOL    HW139313  11.486  10.493   7.154
45827SOL    HW239314  11.471  10.344   7.131
45828SOL     OW39315   8.729   3.352   9.743
45828SOL    HW139316   8.800   3.304   9.700
45828SOL    HW239317   8.652   3.297   9.730
45829SOL     OW39318   4.129   0.623   6.112
45829SOL    HW139319   4.139   0.717   6.127
45829SOL    HW239320   4.133   0.584   6.199
45830SOL     OW39321  14.786  12.848  13.683
45830SOL    HW139322  14.855  12.827  13.621
45830SOL    HW239323  14.807  12.937  13.714
45831SOL     OW39324  10.997   9.964   6.769
45831SOL    HW139325  11.029   9.890   6.718
45831SOL    HW239326  11.028   9.948   6.858
45832SOL     OW39327   6.095   7.975  13.822
45832SOL    HW139328   6.077   7.970  13.728
45832SOL    HW239329   6.190   7.981  13.828
45833SOL     OW39330  12.692   6.089   4.996
45833SOL    HW139331  12.672   6.018   4.935
45833SOL    HW239332  12.689   6.048   5.083
45834SOL     OW39333   9.660   5.653   9.652
45834SOL    HW139334   9.716   5.629   9.579
45834SOL    HW239335   9.719   5.697   9.714
45835SOL     OW39336  13.627   8.920   0.385
45835SOL    HW139337  13.593   9.002   0.422
45835SOL    HW239338  13.714   8.911   0.422
45836SOL     OW39339  11.558   8.227  14.790
45836SOL    HW139340  11.589   8.288  14.856
45836SOL    HW239341  11.487   8.274  14.746
45837SOL     OW39342   1.976  14.305  10.948
45837SOL    HW139343   1.920  14.286  10.872
45837SOL    HW239344   1.993  14.399  10.942
45838SOL     OW39345   0.302  10.399   8.586
45838SOL    HW139346   0.367  10.442   8.530
45838SOL    HW239347   0.315  10.437   8.673
45839SOL     OW39348   3.979   4.652   2.301
45839SOL    HW139349   3.894   4.616   2.276
45839SOL    HW239350   4.017   4.683   2.219
45840SOL     OW39351  10.733   6.308  14.147
45840SOL    HW139352  10.716   6.337  14.237
45840SOL    HW239353  10.645   6.292  14.111
45841SOL     OW39354   4.576   9.961   5.968
45841SOL    HW139355   4.497   9.910   5.984
45841SOL    HW239356   4.598  10.000   6.052
45842SOL     OW39357   9.061   8.196   3.071
45842SOL    HW139358   9.097   8.274   3.113
45842SOL    HW239359   9.002   8.229   3.003
45843SOL     OW39360  13.280   2.261   5.247
45843SOL    HW139361  13.321   2.345   5.226
45843SOL    HW239362  13.349   2.211   5.291
45844SOL     OW39363   9.977   4.077  12.834
45844SOL    HW139364   9.936   4.045  12.914
45844SOL    HW239365  10.005   4.166  12.855
45845SOL     OW39366   3.661   2.810  13.361
45845SOL    HW139367   3.656   2.878  13.293
45845SOL    HW239368   3.622   2.733  13.319
45846SOL     OW39369   3.330   7.913   8.643
45846SOL    HW139370   3.378   7.993   8.663
45846SOL    HW239371   3.380   7.844   8.686
45847SOL     OW39372  11.772   2.014   4.404
45847SOL    HW139373  11.797   1.926   4.431
45847SOL    HW239374  11.780   2.013   4.309
45848SOL     OW39375  10.289   3.962   3.235
45848SOL    HW139376  10.278   4.036   3.176
45848SOL    HW239377  10.325   3.892   3.180
45849SOL     OW39378   6.892  12.872  13.430
45849SOL    HW139379   6.882  12.857  13.336
45849SOL    HW239380   6.805  12.853  13.466
45850SOL     OW39381  13.221   2.929  13.889
45850SOL    HW139382  13.273   2.850  13.872
45850SOL    HW239383  13.274   3.000  13.854
45851SOL     OW39384  12.434   2.479   7.489
45851SOL    HW139385  12.475   2.562   7.465
45851SOL    HW239386  12.503   2.414   7.476
45852SOL     OW39387   1.459  12.287   3.987
45852SOL    HW139388   1.365  12.295   3.969
45852SOL    HW239389   1.500  12.357   3.935
45853SOL     OW39390   6.902  14.119  12.387
45853SOL    HW139391   6.811  14.118  12.356
45853SOL    HW239392   6.929  14.210  12.378
45854SOL     OW39393   6.793   1.742   4.088
45854SOL    HW139394   6.815   1.670   4.147
45854SOL    HW239395   6.834   1.717   4.005
45855SOL     OW39396   6.812  14.493   0.560
45855SOL    HW139397   6.799  14.424   0.625
45855SOL    HW239398   6.902  14.522   0.574
45856SOL     OW39399   5.184  12.354   5.744
45856SOL    HW139400   5.172  12.438   5.789
45856SOL    HW239401   5.096  12.329   5.716
45857SOL     OW39402   6.312   5.364   6.700
45857SOL    HW139403   6.339   5.385   6.611
45857SOL    HW239404   6.347   5.435   6.753
45858SOL     OW39405  12.675  11.074  11.238
45858SOL    HW139406  12.675  11.027  11.321
45858SOL    HW239407  12.650  11.164  11.261
45859SOL     OW39408  10.424  13.061   7.201
45859SOL    HW139409  10.488  13.106   7.256
45859SOL    HW239410  10.446  12.968   7.210
45860SOL     OW39411   1.517  12.296   5.927
45860SOL    HW139412   1.609  12.274   5.941
45860SOL    HW239413   1.475  12.283   6.012
45861SOL     OW39414   9.848   2.675  11.392
45861SOL    HW139415   9.787   2.601  11.397
45861SOL    HW239416   9.808   2.741  11.448
45862SOL     OW39417  11.660  13.580   4.229
45862SOL    HW139418  11.597  13.537   4.173
45862SOL    HW239419  11.618  13.584   4.315
45863SOL     OW39420   6.236   6.836   2.756
45863SOL    HW139421   6.202   6.781   2.826
45863SOL    HW239422   6.324   6.861   2.786
45864SOL     OW39423   7.023  10.406  12.008
45864SOL    HW139424   7.093  10.392  11.944
45864SOL    HW239425   7.019  10.501  12.018
45865SOL     OW39426   3.576  13.832   3.445
45865SOL    HW139427   3.495  13.882   3.454
45865SOL    HW239428   3.614  13.864   3.363
45866SOL     OW39429   3.338  10.026   9.319
45866SOL    HW139430   3.291  10.109   9.324
45866SOL    HW239431   3.277   9.962   9.357
45867SOL     OW39432   1.067   2.284   8.502
45867SOL    HW139433   1.053   2.196   8.537
45867SOL    HW239434   1.162   2.292   8.494
45868SOL     OW39435  13.852  10.186  14.811
45868SOL    HW139436  13.823  10.242  14.740
45868SOL    HW239437  13.819  10.227   0.018
45869SOL     OW39438   5.658  12.860  11.849
45869SOL    HW139439   5.698  12.922  11.789
45869SOL    HW239440   5.726  12.841  11.913
45870SOL     OW39441   2.684  14.579  14.241
45870SOL    HW139442   2.627  14.517  14.286
45870SOL    HW239443   2.660  14.572  14.149
45871SOL     OW39444   0.160   9.244   4.915
45871SOL    HW139445   0.161   9.331   4.956
45871SOL    HW239446   0.220   9.251   4.841
45872SOL     OW39447  10.473   6.427   9.519
45872SOL    HW139448  10.431   6.419   9.433
45872SOL    HW239449  10.516   6.512   9.517
45873SOL     OW39450   5.216   4.300  11.697
45873SOL    HW139451   5.192   4.208  11.706
45873SOL    HW239452   5.156   4.347  11.756
45874SOL     OW39453   4.601  11.673   1.472
45874SOL    HW139454   4.539  11.712   1.409
45874SOL    HW239455   4.673  11.735   1.476
45875SOL     OW39456  11.764  11.418   7.008
45875SOL    HW139457  11.778  11.324   7.012
45875SOL    HW239458  11.770  11.448   7.099
45876SOL     OW39459  11.384  10.213   6.749
45876SOL    HW139460  11.362  10.164   6.828
45876SOL    HW239461  11.327  10.290   6.752
45877SOL     OW39462  11.795   9.092   7.493
45877SOL    HW139463  11.835   9.052   7.570
45877SOL    HW239464  11.810   9.028   7.423
45878SOL     OW39465  13.206   0.227   2.012
45878SOL    HW139466  13.285   0.227   1.958
45878SOL    HW239467  13.133   0.231   1.950
45879SOL     OW39468   4.897   3.748   2.993
45879SOL    HW139469   4.918   3.723   2.903
45879SOL    HW239470   4.980   3.775   3.031
45880SOL     OW39471   9.416  10.616   8.338
45880SOL    HW139472   9.417  10.549   8.406
45880SOL    HW239473   9.324  10.624   8.313
45881SOL     OW39474  10.812  14.153   6.549
45881SOL    HW139475  10.759  14.078   6.576
45881SOL    HW239476  10.766  14.229   6.584
45882SOL     OW39477   5.166   0.119   0.688
45882SOL    HW139478   5.073   0.131   0.667
45882SOL    HW239479   5.197   0.057   0.622
45883SOL     OW39480   3.258  14.030  13.177
45883SOL    HW139481   3.185  14.077  13.217
45883SOL    HW239482   3.301  14.095  13.122
45884SOL     OW39483   5.733   2.714   7.593
45884SOL    HW139484   5.711   2.719   7.686
45884SOL    HW239485   5.803   2.649   7.588
45885SOL     OW39486   0.063  14.073  13.673
45885SOL    HW139487   0.057  14.036  13.585
45885SOL    HW239488  14.845  14.098  13.694
45886SOL     OW39489  12.813   6.683  14.368
45886SOL    HW139490  12.723   6.650  14.364
45886SOL    HW239491  12.839   6.692  14.277
45887SOL     OW39492  10.317  10.912  12.156
45887SOL    HW139493  10.240  10.958  12.121
45887SOL    HW239494  10.315  10.826  12.114
45888SOL     OW39495   8.486  11.806   7.182
45888SOL    HW139496   8.493  11.857   7.263
45888SOL    HW239497   8.427  11.856   7.127
45889SOL     OW39498   6.084  12.743   3.114
45889SOL    HW139499   6.142  12.742   3.038
45889SOL    HW239500   6.130  12.796   3.179
45890SOL     OW39501   9.555  13.807  10.160
45890SOL    HW139502   9.615  13.752  10.110
45890SOL    HW239503   9.483  13.826  10.099
45891SOL     OW39504   4.632  11.850   9.606
45891SOL    HW139505   4.623  11.900   9.525
45891SOL    HW239506   4.673  11.911   9.667
45892SOL     OW39507   6.414   4.916   6.327
45892SOL    HW139508   6.486   4.974   6.302
45892SOL    HW239509   6.350   4.974   6.368
45893SOL     OW39510  13.113   1.714  13.308
45893SOL    HW139511  13.165   1.769  13.249
45893SOL    HW239512  13.079   1.775  13.373
45894SOL     OW39513   6.524   0.269  14.456
45894SOL    HW139514   6.501   0.240  14.368
45894SOL    HW239515   6.461   0.338  14.476
45895SOL     OW39516   8.066   8.183   6.904
45895SOL    HW139517   8.151   8.206   6.867
45895SOL    HW239518   8.024   8.266   6.924
45896SOL     OW39519  12.030  14.396   3.010
45896SOL    HW139520  12.062  14.317   3.055
45896SOL    HW239521  12.081  14.399   2.929
45897SOL     OW39522   5.443   7.427   9.242
45897SOL    HW139523   5.530   7.422   9.283
45897SOL    HW239524   5.448   7.504   9.185
45898SOL     OW39525   3.883   5.981  11.361
45898SOL    HW139526   3.824   5.944  11.427
45898SOL    HW239527   3.888   6.074  11.383
45899SOL     OW39528   3.481   8.277   7.298
45899SOL    HW139529   3.489   8.212   7.229
45899SOL    HW239530   3.419   8.341   7.264
45900SOL     OW39531  12.244   2.823   4.426
45900SOL    HW139532  12.190   2.750   4.457
45900SOL    HW239533  12.200   2.901   4.461
45901SOL     OW39534   5.763  10.146   5.215
45901SOL    HW139535   5.759  10.149   5.119
45901SOL    HW239536   5.731  10.059   5.237
45902SOL     OW39537   5.892   8.758  11.003
45902SOL    HW139538   5.913   8.851  11.018
45902SOL    HW239539   5.806   8.747  11.043
45903SOL     OW39540   6.886   9.084   5.317
45903SOL    HW139541   6.981   9.074   5.312
45903SOL    HW239542   6.872   9.134   5.398
45904SOL     OW39543   1.165  10.221   0.039
45904SOL    HW139544   1.166  10.129   0.013
45904SOL    HW239545   1.169  10.269  14.829
45905SOL     OW39546  13.051  12.109   5.830
45905SOL    HW139547  12.982  12.055   5.790
45905SOL    HW239548  13.003  12.172   5.883
45906SOL     OW39549   8.280   9.467   8.926
45906SOL    HW139550   8.362   9.448   8.880
45906SOL    HW239551   8.221   9.396   8.900
45907SOL     OW39552   4.281   7.913   8.834
45907SOL    HW139553   4.374   7.897   8.851
45907SOL    HW239554   4.268   8.005   8.853
45908SOL     OW39555   3.970   0.584   1.470
45908SOL    HW139556   3.968   0.490   1.487
45908SOL    HW239557   4.063   0.606   1.465
45909SOL     OW39558   9.702  10.347   9.380
45909SOL    HW139559   9.722  10.293   9.304
45909SOL    HW239560   9.688  10.284   9.451
45910SOL     OW39561  13.925   0.269  10.997
45910SOL    HW139562  13.953   0.355  10.965
45910SOL    HW239563  13.855   0.287  11.059
45911SOL     OW39564   2.048  13.873  14.316
45911SOL    HW139565   2.039  13.881  14.411
45911SOL    HW239566   2.018  13.784  14.297
45912SOL     OW39567  13.354  10.196  11.134
45912SOL    HW139568  13.337  10.109  11.171
45912SOL    HW239569  13.433  10.184  11.081
45913SOL     OW39570   6.378   1.363   8.223
45913SOL    HW139571   6.471   1.340   8.233
45913SOL    HW239572   6.377   1.432   8.157
45914SOL     OW39573  10.709   2.665  12.163
45914SOL    HW139574  10.707   2.681  12.068
45914SOL    HW239575  10.667   2.742  12.202
45915SOL     OW39576   8.817  13.429   5.874
45915SOL    HW139577   8.833  13.476   5.792
45915SOL    HW239578   8.905  13.406   5.905
45916SOL     OW39579   1.440   3.374   7.376
45916SOL    HW139580   1.356   3.330   7.362
45916SOL    HW239581   1.417   3.464   7.400
45917SOL     OW39582   3.234   0.555   7.540
45917SOL    HW139583   3.251   0.644   7.571
45917SOL    HW239584   3.270   0.553   7.451
45918SOL     OW39585   5.442   3.427   5.470
45918SOL    HW139586   5.497   3.387   5.402
45918SOL    HW239587   5.456   3.373   5.548
45919SOL     OW39588   2.010   8.687  10.188
45919SOL    HW139589   1.975   8.771  10.159
45919SOL    HW239590   2.058   8.707  10.268
45920SOL     OW39591   6.513   2.087   1.841
45920SOL    HW139592   6.439   2.143   1.815
45920SOL    HW239593   6.482   2.042   1.919
45921SOL     OW39594   3.470   2.135   9.443
45921SOL    HW139595   3.431   2.203   9.389
45921SOL    HW239596   3.396   2.097   9.491
45922SOL     OW39597   7.867   3.366   4.402
45922SOL    HW139598   7.907   3.422   4.336
45922SOL    HW239599   7.920   3.379   4.480
45923SOL     OW39600  14.394   9.865  13.472
45923SOL    HW139601  14.349   9.948  13.457
45923SOL    HW239602  14.476   9.891  13.516
45924SOL     OW39603   6.284  11.283   1.734
45924SOL    HW139604   6.274  11.253   1.824
45924SOL    HW239605   6.369  11.249   1.706
45925SOL     OW39606   1.086   1.841   9.515
45925SOL    HW139607   1.161   1.841   9.455
45925SOL    HW239608   1.011   1.858   9.459
45926SOL     OW39609  10.633   4.253   6.411
45926SOL    HW139610  10.656   4.342   6.382
45926SOL    HW239611  10.697   4.197   6.368
45927SOL     OW39612   3.058   0.234   0.268
45927SOL    HW139613   3.028   0.318   0.303
45927SOL    HW239614   3.154   0.241   0.268
45928SOL     OW39615   1.272   0.401   3.516
45928SOL    HW139616   1.205   0.333   3.503
45928SOL    HW239617   1.314   0.377   3.599
45929SOL     OW39618   9.166  11.394  13.523
45929SOL    HW139619   9.200  11.474  13.482
45929SOL    HW239620   9.234  11.369  13.586
45930SOL     OW39621  12.626  13.425   2.535
45930SOL    HW139622  12.642  13.338   2.501
45930SOL    HW239623  12.543  13.452   2.495
45931SOL     OW39624   1.440   8.461   4.434
45931SOL    HW139625   1.514   8.521   4.447
45931SOL    HW239626   1.410   8.479   4.345
45932SOL     OW39627   0.412   6.587  13.530
45932SOL    HW139628   0.444   6.604  13.441
45932SOL    HW239629   0.422   6.492  13.541
45933SOL     OW39630  14.018   3.300  14.835
45933SOL    HW139631  14.001   3.361  14.763
45933SOL    HW239632  14.075   3.233  14.798
45934SOL     OW39633   7.331  10.695  12.821
45934SOL    HW139634   7.269  10.645  12.769
45934SOL    HW239635   7.365  10.762  12.762
45935SOL     OW39636   8.360   4.554   6.223
45935SOL    HW139637   8.294   4.618   6.194
45935SOL    HW239638   8.442   4.584   6.184
45936SOL     OW39639  14.462   0.648  12.523
45936SOL    HW139640  14.490   0.614  12.608
45936SOL    HW239641  14.405   0.722  12.545
45937SOL     OW39642   6.747   3.902   0.456
45937SOL    HW139643   6.672   3.860   0.415
45937SOL    HW239644   6.724   3.907   0.549
45938SOL     OW39645   7.131   0.885  10.656
45938SOL    HW139646   7.185   0.852  10.727
45938SOL    HW239647   7.149   0.978  10.652
45939SOL     OW39648  14.866   7.566   8.108
45939SOL    HW139649  14.798   7.623   8.071
45939SOL    HW239650  14.824   7.523   8.182
45940SOL     OW39651   9.718  14.164   3.210
45940SOL    HW139652   9.809  14.183   3.232
45940SOL    HW239653   9.671  14.170   3.293
45941SOL     OW39654   4.354   9.085   6.159
45941SOL    HW139655   4.281   9.024   6.171
45941SOL    HW239656   4.314   9.161   6.115
45942SOL     OW39657   7.321   3.368   5.695
45942SOL    HW139658   7.396   3.352   5.751
45942SOL    HW239659   7.291   3.456   5.718
45943SOL     OW39660  14.274   8.849   8.419
45943SOL    HW139661  14.291   8.772   8.365
45943SOL    HW239662  14.253   8.918   8.355
45944SOL     OW39663   4.797  12.934   1.074
45944SOL    HW139664   4.821  12.883   1.151
45944SOL    HW239665   4.714  12.977   1.098
45945SOL     OW39666   5.888   3.160   5.736
45945SOL    HW139667   5.800   3.144   5.702
45945SOL    HW239668   5.918   3.075   5.767
45946SOL     OW39669   1.534  10.002   8.260
45946SOL    HW139670   1.535   9.982   8.354
45946SOL    HW239671   1.517  10.096   8.255
45947SOL     OW39672   2.193   9.458   4.004
45947SOL    HW139673   2.228   9.463   3.915
45947SOL    HW239674   2.105   9.421   3.993
45948SOL     OW39675  13.104  10.210   2.814
45948SOL    HW139676  13.036  10.166   2.865
45948SOL    HW239677  13.168  10.238   2.880
45949SOL     OW39678   3.517   0.142   2.200
45949SOL    HW139679   3.445   0.181   2.250
45949SOL    HW239680   3.505   0.175   2.111
45950SOL     OW39681   5.105   6.593   0.039
45950SOL    HW139682   5.183   6.625  14.867
45950SOL    HW239683   5.078   6.666   0.095
45951SOL     OW39684   7.593   0.808   4.976
45951SOL    HW139685   7.656   0.880   4.974
45951SOL    HW239686   7.567   0.796   4.885
45952SOL     OW39687   7.497  12.322   3.771
45952SOL    HW139688   7.499  12.232   3.802
45952SOL    HW239689   7.531  12.373   3.844
45953SOL     OW39690   2.716   5.159   4.283
45953SOL    HW139691   2.639   5.103   4.296
45953SOL    HW239692   2.680   5.247   4.272
45954SOL     OW39693   8.776   4.951   8.235
45954SOL    HW139694   8.808   4.861   8.234
45954SOL    HW239695   8.855   5.004   8.228
45955SOL     OW39696   4.070   7.725  14.653
45955SOL    HW139697   4.079   7.687  14.740
45955SOL    HW239698   4.034   7.813  14.669
45956SOL     OW39699   5.009  11.767  14.621
45956SOL    HW139700   5.045  11.716  14.548
45956SOL    HW239701   4.922  11.794  14.591
45957SOL     OW39702   8.946  12.159  14.318
45957SOL    HW139703   9.040  12.142  14.318
45957SOL    HW239704   8.906  12.078  14.286
45958SOL     OW39705   4.925   0.290  12.759
45958SOL    HW139706   4.894   0.214  12.809
45958SOL    HW239707   4.916   0.364  12.820
45959SOL     OW39708  14.661  11.881   9.831
45959SOL    HW139709  14.645  11.802   9.883
45959SOL    HW239710  14.585  11.886   9.773
45960SOL     OW39711   0.498  10.421  10.671
45960SOL    HW139712   0.567  10.452  10.613
45960SOL    HW239713   0.469  10.339  10.632
45961SOL     OW39714   1.653  14.111   6.362
45961SOL    HW139715   1.736  14.160   6.357
45961SOL    HW239716   1.645  14.086   6.454
45962SOL     OW39717   0.519  10.586   5.661
45962SOL    HW139718   0.424  10.600   5.664
45962SOL    HW239719   0.556  10.673   5.649
45963SOL     OW39720   4.809   6.662  10.337
45963SOL    HW139721   4.740   6.716  10.373
45963SOL    HW239722   4.770   6.575  10.330
45964SOL     OW39723   5.695   9.037   1.406
45964SOL    HW139724   5.695   9.082   1.491
45964SOL    HW239725   5.722   8.948   1.427
45965SOL     OW39726  11.176  11.343  13.071
45965SOL    HW139727  11.153  11.423  13.024
45965SOL    HW239728  11.260  11.362  13.111
45966SOL     OW39729   7.739   2.126   2.888
45966SOL    HW139730   7.643   2.131   2.884
45966SOL    HW239731   7.756   2.075   2.968
45967SOL     OW39732   8.921   9.199   5.299
45967SOL    HW139733   8.851   9.242   5.348
45967SOL    HW239734   8.955   9.268   5.241
45968SOL     OW39735   9.205  13.025  13.481
45968SOL    HW139736   9.285  13.063  13.444
45968SOL    HW239737   9.155  12.997  13.405
45969SOL     OW39738   8.964  14.267   0.161
45969SOL    HW139739   8.933  14.357   0.154
45969SOL    HW239740   8.907  14.227   0.227
45970SOL     OW39741   7.547   0.064   0.139
45970SOL    HW139742   7.470   0.114   0.165
45970SOL    HW239743   7.513  14.851   0.112
45971SOL     OW39744   3.854  10.935   4.238
45971SOL    HW139745   3.872  10.938   4.332
45971SOL    HW239746   3.901  10.857   4.207
45972SOL     OW39747  10.235   8.869   5.652
45972SOL    HW139748  10.235   8.914   5.737
45972SOL    HW239749  10.191   8.785   5.669
45973SOL     OW39750   5.685   0.451   4.718
45973SOL    HW139751   5.778   0.449   4.692
45973SOL    HW239752   5.687   0.436   4.813
45974SOL     OW39753   6.143  10.001   5.378
45974SOL    HW139754   6.227   9.968   5.347
45974SOL    HW239755   6.162  10.041   5.463
45975SOL     OW39756  10.455   3.333   1.292
45975SOL    HW139757  10.447   3.251   1.244
45975SOL    HW239758  10.540   3.327   1.337
45976SOL     OW39759  13.046   5.644   3.368
45976SOL    HW139760  12.955   5.634   3.340
45976SOL    HW239761  13.092   5.676   3.290
45977SOL     OW39762  13.609   7.456   8.159
45977SOL    HW139763  13.579   7.367   8.137
45977SOL    HW239764  13.529   7.501   8.188
45978SOL     OW39765   4.403   1.318   5.341
45978SOL    HW139766   4.318   1.352   5.310
45978SOL    HW239767   4.450   1.295   5.260
45979SOL     OW39768   8.855  13.789  10.724
45979SOL    HW139769   8.863  13.881  10.751
45979SOL    HW239770   8.899  13.786  10.639
45980SOL     OW39771   7.211   1.899   9.536
45980SOL    HW139772   7.146   1.955   9.493
45980SOL    HW239773   7.261   1.860   9.465
45981SOL     OW39774   6.556   3.678   2.567
45981SOL    HW139775   6.544   3.741   2.638
45981SOL    HW239776   6.558   3.733   2.488
45982SOL     OW39777  12.311  11.419   1.417
45982SOL    HW139778  12.231  11.411   1.467
45982SOL    HW239779  12.325  11.332   1.379
45983SOL     OW39780   9.667   4.898  10.929
45983SOL    HW139781   9.681   4.913  10.836
45983SOL    HW239782   9.696   4.979  10.971
45984SOL     OW39783   6.670   4.988   1.769
45984SOL    HW139784   6.719   4.906   1.756
45984SOL    HW239785   6.735   5.057   1.755
45985SOL     OW39786   9.916  13.437   6.153
45985SOL    HW139787   9.893  13.444   6.060
45985SOL    HW239788   9.833  13.451   6.199
45986SOL     OW39789  11.813  14.150   6.303
45986SOL    HW139790  11.758  14.188   6.235
45986SOL    HW239791  11.788  14.057   6.306
45987SOL     OW39792   7.859  10.400  10.973
45987SOL    HW139793   7.947  10.361  10.976
45987SOL    HW239794   7.816  10.356  10.900
45988SOL     OW39795   7.896   4.162  12.697
45988SOL    HW139796   7.913   4.068  12.701
45988SOL    HW239797   7.814   4.170  12.649
45989SOL     OW39798   3.516   5.953  12.127
45989SOL    HW139799   3.492   5.862  12.144
45989SOL    HW239800   3.542   5.987  12.213
45990SOL     OW39801   1.809   5.851   9.943
45990SOL    HW139802   1.758   5.799  10.005
45990SOL    HW239803   1.823   5.792   9.868
45991SOL     OW39804   0.531   5.184   4.632
45991SOL    HW139805   0.606   5.192   4.691
45991SOL    HW239806   0.527   5.269   4.587
45992SOL     OW39807   9.189  11.864  10.564
45992SOL    HW139808   9.202  11.841  10.473
45992SOL    HW239809   9.094  11.880  10.571
45993SOL     OW39810  13.670   6.560  13.196
45993SOL    HW139811  13.623   6.510  13.129
45993SOL    HW239812  13.762   6.553  13.171
45994SOL     OW39813   6.700   3.115  10.820
45994SOL    HW139814   6.772   3.097  10.760
45994SOL    HW239815   6.730   3.190  10.871
45995SOL     OW39816   0.947  12.966   6.896
45995SOL    HW139817   0.985  12.886   6.860
45995SOL    HW239818   0.898  13.004   6.823
45996SOL     OW39819   0.063  10.470   0.436
45996SOL    HW139820   0.016  10.516   0.506
45996SOL    HW239821   0.125  10.534   0.402
45997SOL     OW39822   4.399   4.527  13.156
45997SOL    HW139823   4.431   4.578  13.082
45997SOL    HW239824   4.305   4.521  13.142
45998SOL     OW39825   7.753   0.252   3.379
45998SOL    HW139826   7.727   0.195   3.307
45998SOL    HW239827   7.844   0.228   3.397
45999SOL     OW39828   0.547   1.265  11.175
45999SOL    HW139829   0.508   1.338  11.126
45999SOL    HW239830   0.641   1.276  11.162
46000SOL     OW39831  14.829  14.010  11.845
46000SOL    HW139832  14.839  14.009  11.941
46000SOL    HW239833  14.747  13.962  11.830
46001SOL     OW39834   4.268   0.018   7.403
46001SOL    HW139835   4.339   0.062   7.450
46001SOL    HW239836   4.275  14.799   7.430
46002SOL     OW39837   2.211   0.037   2.304
46002SOL    HW139838   2.231   0.045   2.211
46002SOL    HW239839   2.160   0.116   2.324
46003SOL     OW39840   0.562  13.471   3.985
46003SOL    HW139841   0.524  13.496   4.069
46003SOL    HW239842   0.645  13.430   4.008
46004SOL     OW39843   0.622   1.874   8.149
46004SOL    HW139844   0.607   1.889   8.055
46004SOL    HW239845   0.647   1.960   8.182
46005SOL     OW39846   3.709  11.095   1.664
46005SOL    HW139847   3.701  11.106   1.759
46005SOL    HW239848   3.716  11.000   1.651
46006SOL     OW39849   2.563  11.680  14.742
46006SOL    HW139850   2.471  11.706  14.736
46006SOL    HW239851   2.593  11.716  14.826
46007SOL     OW39852   4.799  13.732  14.795
46007SOL    HW139853   4.830  13.822  14.809
46007SOL    HW239854   4.724  13.723  14.853
46008SOL     OW39855   4.051  14.156   3.525
46008SOL    HW139856   4.141  14.178   3.504
46008SOL    HW239857   4.027  14.089   3.460
46009SOL     OW39858   5.222   6.914   9.936
46009SOL    HW139859   5.177   6.853   9.993
46009SOL    HW239860   5.275   6.968   9.994
46010SOL     OW39861   4.498  11.988   3.555
46010SOL    HW139862   4.442  11.929   3.506
46010SOL    HW239863   4.476  11.971   3.647
46011SOL     OW39864   8.530   2.037   5.206
46011SOL    HW139865   8.609   1.985   5.194
46011SOL    HW239866   8.461   1.972   5.223
46012SOL     OW39867   6.399  12.557   7.698
46012SOL    HW139868   6.490  12.579   7.674
46012SOL    HW239869   6.402  12.465   7.721
46013SOL     OW39870  13.003   6.685   5.768
46013SOL    HW139871  13.031   6.662   5.679
46013SOL    HW239872  13.083   6.714   5.811
46014SOL     OW39873   5.722   9.199   5.936
46014SOL    HW139874   5.641   9.166   5.897
46014SOL    HW239875   5.761   9.122   5.979
46015SOL     OW39876   3.183   4.242   6.124
46015SOL    HW139877   3.278   4.234   6.118
46015SOL    HW239878   3.150   4.162   6.084
46016SOL     OW39879   1.730  11.167   3.399
46016SOL    HW139880   1.668  11.131   3.463
46016SOL    HW239881   1.772  11.091   3.360
46017SOL     OW39882   7.520   8.483  11.009
46017SOL    HW139883   7.605   8.487  11.052
46017SOL    HW239884   7.457   8.481  11.081
46018SOL     OW39885  11.284  14.253   5.056
46018SOL    HW139886  11.362  14.291   5.097
46018SOL    HW239887  11.304  14.159   5.050
46019SOL     OW39888   4.616   8.704  11.645
46019SOL    HW139889   4.651   8.686  11.558
46019SOL    HW239890   4.626   8.622  11.693
46020SOL     OW39891   7.234   0.447   9.588
46020SOL    HW139892   7.180   0.405   9.655
46020SOL    HW239893   7.319   0.403   9.595
46021SOL     OW39894   6.770   4.347   2.913
46021SOL    HW139895   6.779   4.270   2.857
46021SOL    HW239896   6.827   4.329   2.988
46022SOL     OW39897   7.227   3.618  12.341
46022SOL    HW139898   7.209   3.676  12.415
46022SOL    HW239899   7.160   3.639  12.276
46023SOL     OW39900   8.103   5.609   4.372
46023SOL    HW139901   8.143   5.571   4.294
46023SOL    HW239902   8.133   5.699   4.373
46024SOL     OW39903  11.139   1.885   4.361
46024SOL    HW139904  11.099   1.972   4.361
46024SOL    HW239905  11.131   1.855   4.451
46025SOL     OW39906  13.544   7.234  13.359
46025SOL    HW139907  13.589   7.157  13.324
46025SOL    HW239908  13.569   7.237  13.451
46026SOL     OW39909   9.155   4.484   2.200
46026SOL    HW139910   9.131   4.397   2.232
46026SOL    HW239911   9.189   4.468   2.112
46027SOL     OW39912   0.830   4.948  12.547
46027SOL    HW139913   0.785   5.032  12.537
46027SOL    HW239914   0.877   4.957  12.630
46028SOL     OW39915   7.357   9.213  11.304
46028SOL    HW139916   7.334   9.184  11.392
46028SOL    HW239917   7.324   9.303  11.298
46029SOL     OW39918   5.858   0.988   4.375
46029SOL    HW139919   5.832   1.041   4.451
46029SOL    HW239920   5.779   0.940   4.351
46030SOL     OW39921  13.517   3.101   3.432
46030SOL    HW139922  13.475   3.186   3.422
46030SOL    HW239923  13.491   3.051   3.354
46031SOL     OW39924   7.204  13.314  13.183
46031SOL    HW139925   7.114  13.315  13.217
46031SOL    HW239926   7.203  13.375  13.110
46032SOL     OW39927  11.186   3.080  12.744
46032SOL    HW139928  11.165   3.154  12.801
46032SOL    HW239929  11.172   3.003  12.799
46033SOL     OW39930   5.711   5.467   7.926
46033SOL    HW139931   5.657   5.538   7.960
46033SOL    HW239932   5.790   5.469   7.979
46034SOL     OW39933  14.285   4.229   1.154
46034SOL    HW139934  14.235   4.206   1.075
46034SOL    HW239935  14.217   4.242   1.221
46035SOL     OW39936   6.032   8.790   8.746
46035SOL    HW139937   6.008   8.704   8.711
46035SOL    HW239938   6.045   8.775   8.839
46036SOL     OW39939  12.161   7.475  13.253
46036SOL    HW139940  12.066   7.468  13.257
46036SOL    HW239941  12.177   7.557  13.207
46037SOL     OW39942  12.076  13.548   9.991
46037SOL    HW139943  12.102  13.507  10.074
46037SOL    HW239944  11.980  13.550   9.995
46038SOL     OW39945   6.062   2.042  14.645
46038SOL    HW139946   6.019   2.127  14.657
46038SOL    HW239947   5.990   1.981  14.629
46039SOL     OW39948   6.522  11.354  10.372
46039SOL    HW139949   6.534  11.268  10.332
46039SOL    HW239950   6.540  11.341  10.465
46040SOL     OW39951   0.794  11.029   4.831
46040SOL    HW139952   0.824  10.943   4.802
46040SOL    HW239953   0.751  11.013   4.915
46041SOL     OW39954   2.664  13.696   5.621
46041SOL    HW139955   2.746  13.653   5.598
46041SOL    HW239956   2.684  13.790   5.619
46042SOL     OW39957   9.413  14.676  13.008
46042SOL    HW139958   9.429  14.757  12.961
46042SOL    HW239959   9.318  14.665  13.006
46043SOL     OW39960   0.426   4.898   9.922
46043SOL    HW139961   0.394   4.842   9.993
46043SOL    HW239962   0.445   4.982   9.964
46044SOL     OW39963  14.827  13.932  14.354
46044SOL    HW139964   0.003  13.988  14.293
46044SOL    HW239965   0.023  13.890  14.406
46045SOL     OW39966   6.264  12.339   4.237
46045SOL    HW139967   6.324  12.360   4.165
46045SOL    HW239968   6.300  12.386   4.312
46046SOL     OW39969   4.208   7.295   5.756
46046SOL    HW139970   4.278   7.354   5.728
46046SOL    HW239971   4.247   7.244   5.827
46047SOL     OW39972  14.082  13.220  11.923
46047SOL    HW139973  14.101  13.249  11.834
46047SOL    HW239974  14.167  13.224  11.967
46048SOL     OW39975  10.108   9.379  10.567
46048SOL    HW139976  10.119   9.347  10.657
46048SOL    HW239977  10.131   9.472  10.571
46049SOL     OW39978  13.718   0.602  11.992
46049SOL    HW139979  13.776   0.675  11.971
46049SOL    HW239980  13.776   0.531  12.017
46050SOL     OW39981   6.852   9.248  14.168
46050SOL    HW139982   6.944   9.225  14.156
46050SOL    HW239983   6.821   9.267  14.079
46051SOL     OW39984   6.692  12.583   4.868
46051SOL    HW139985   6.759  12.622   4.923
46051SOL    HW239986   6.624  12.554   4.929
46052SOL     OW39987   5.981   0.404   5.383
46052SOL    HW139988   6.068   0.414   5.422
46052SOL    HW239989   5.969   0.481   5.329
46053SOL     OW39990   3.305   5.790   9.868
46053SOL    HW139991   3.221   5.800   9.912
46053SOL    HW239992   3.336   5.879   9.854
46054SOL     OW39993   6.839   5.033   0.458
46054SOL    HW139994   6.800   5.013   0.543
46054SOL    HW239995   6.880   5.119   0.469
46055SOL     OW39996  13.237  11.566  14.267
46055SOL    HW139997  13.289  11.551  14.346
46055SOL    HW239998  13.267  11.500  14.205
46056SOL     OW39999  12.585  10.730  13.738
46056SOL    HW140000  12.531  10.692  13.669
46056SOL    HW240001  12.597  10.659  13.801
46057SOL     OW40002  12.747  13.358   6.813
46057SOL    HW140003  12.821  13.419   6.813
46057SOL    HW240004  12.787  13.271   6.823
46058SOL     OW40005   3.846   4.080  14.811
46058SOL    HW140006   3.910   4.013  14.785
46058SOL    HW240007   3.846   4.078   0.034
46059SOL     OW40008  11.626   0.926   4.294
46059SOL    HW140009  11.694   0.991   4.309
46059SOL    HW240010  11.673   0.842   4.289
46060SOL     OW40011   5.381  12.293   0.482
46060SOL    HW140012   5.304  12.294   0.538
46060SOL    HW240013   5.370  12.216   0.426
46061SOL     OW40014   1.152   5.127   4.763
46061SOL    HW140015   1.151   5.043   4.809
46061SOL    HW240016   1.169   5.104   4.672
46062SOL     OW40017   6.552  14.856   8.866
46062SOL    HW140018   6.582   0.040   8.795
46062SOL    HW240019   6.576   0.032   8.946
46063SOL     OW40020   1.796   0.850  11.212
46063SOL    HW140021   1.879   0.874  11.171
46063SOL    HW240022   1.781   0.759  11.184
46064SOL     OW40023   4.248  13.462   2.310
46064SOL    HW140024   4.340  13.443   2.293
46064SOL    HW240025   4.243  13.557   2.318
46065SOL     OW40026   9.189  13.159   0.101
46065SOL    HW140027   9.276  13.195   0.083
46065SOL    HW240028   9.163  13.116   0.019
46066SOL     OW40029   5.795   5.559   7.655
46066SOL    HW140030   5.758   5.513   7.730
46066SOL    HW240031   5.868   5.609   7.691
46067SOL     OW40032   6.453  10.847  13.433
46067SOL    HW140033   6.521  10.911  13.412
46067SOL    HW240034   6.430  10.866  13.524
46068SOL     OW40035  11.248   0.769   5.298
46068SOL    HW140036  11.214   0.694   5.250
46068SOL    HW240037  11.343   0.753   5.304
46069SOL     OW40038  11.493  13.311   2.054
46069SOL    HW140039  11.446  13.384   2.013
46069SOL    HW240040  11.511  13.341   2.143
46070SOL     OW40041   5.765   5.005  13.288
46070SOL    HW140042   5.790   5.091  13.321
46070SOL    HW240043   5.821   4.991  13.211
46071SOL     OW40044  14.087   4.673   5.644
46071SOL    HW140045  14.049   4.657   5.731
46071SOL    HW240046  14.070   4.765   5.627
46072SOL     OW40047   9.471   0.320   4.367
46072SOL    HW140048   9.401   0.304   4.303
46072SOL    HW240049   9.432   0.381   4.430
46073SOL     OW40050   4.470   6.853   0.116
46073SOL    HW140051   4.524   6.788   0.162
46073SOL    HW240052   4.524   6.881   0.042
46074SOL     OW40053   2.169  14.707   8.921
46074SOL    HW140054   2.259  14.698   8.953
46074SOL    HW240055   2.161  14.801   8.901
46075SOL     OW40056  11.520   0.560   4.507
46075SOL    HW140057  11.437   0.523   4.537
46075SOL    HW240058  11.500   0.652   4.489
46076SOL     OW40059  14.613  13.969   6.977
46076SOL    HW140060  14.703  13.950   6.949
46076SOL    HW240061  14.604  14.064   6.962
46077SOL     OW40062   6.391  12.445   4.448
46077SOL    HW140063   6.390  12.464   4.542
46077SOL    HW240064   6.463  12.498   4.413
46078SOL     OW40065   2.124   0.119   6.222
46078SOL    HW140066   2.095   0.046   6.276
46078SOL    HW240067   2.210   0.092   6.190
46079SOL     OW40068  11.535   5.122  12.029
46079SOL    HW140069  11.498   5.134  11.941
46079SOL    HW240070  11.459   5.122  12.087
46080SOL     OW40071  14.507   4.689  11.646
46080SOL    HW140072  14.435   4.642  11.604
46080SOL    HW240073  14.562   4.620  11.683
46081SOL     OW40074   8.642   9.549   5.953
46081SOL    HW140075   8.653   9.599   6.034
46081SOL    HW240076   8.673   9.608   5.884
46082SOL     OW40077   4.256   2.667  11.756
46082SOL    HW140078   4.315   2.706  11.691
46082SOL    HW240079   4.212   2.597  11.709
46083SOL     OW40080  12.573   6.422  13.264
46083SOL    HW140081  12.552   6.514  13.248
46083SOL    HW240082  12.566   6.381  13.177
46084SOL     OW40083   5.727  11.891  14.251
46084SOL    HW140084   5.761  11.834  14.182
46084SOL    HW240085   5.707  11.832  14.323
46085SOL     OW40086   3.320  12.055  10.365
46085SOL    HW140087   3.306  12.127  10.303
46085SOL    HW240088   3.415  12.050  10.375
46086SOL     OW40089  10.968   5.205   9.735
46086SOL    HW140090  10.904   5.142   9.700
46086SOL    HW240091  11.013   5.238   9.657
46087SOL     OW40092   7.700   1.093  11.664
46087SOL    HW140093   7.653   1.176  11.674
46087SOL    HW240094   7.631   1.027  11.657
46088SOL     OW40095  13.341   0.379   6.506
46088SOL    HW140096  13.250   0.363   6.482
46088SOL    HW240097  13.392   0.333   6.440
46089SOL     OW40098   6.797   0.674   5.623
46089SOL    HW140099   6.853   0.620   5.567
46089SOL    HW240100   6.729   0.706   5.564
46090SOL     OW40101   1.013   6.492   0.260
46090SOL    HW140102   1.062   6.493   0.178
46090SOL    HW240103   0.929   6.453   0.238
46091SOL     OW40104  11.253  14.474   1.739
46091SOL    HW140105  11.342  14.441   1.732
46091SOL    HW240106  11.262  14.569   1.732
46092SOL     OW40107   8.785   5.657   4.826
46092SOL    HW140108   8.715   5.708   4.867
46092SOL    HW240109   8.815   5.712   4.753
46093SOL     OW40110   3.472   5.521  13.108
46093SOL    HW140111   3.490   5.610  13.138
46093SOL    HW240112   3.549   5.470  13.134
46094SOL     OW40113   5.829   8.696   2.480
46094SOL    HW140114   5.909   8.746   2.466
46094SOL    HW240115   5.851   8.606   2.456
46095SOL     OW40116  14.079   6.698  12.497
46095SOL    HW140117  14.042   6.610  12.500
46095SOL    HW240118  14.108   6.714  12.587
46096SOL     OW40119  12.563   5.437   6.360
46096SOL    HW140120  12.593   5.516   6.405
46096SOL    HW240121  12.554   5.463   6.268
46097SOL     OW40122   6.824   1.564   0.701
46097SOL    HW140123   6.758   1.596   0.762
46097SOL    HW240124   6.784   1.485   0.663
46098SOL     OW40125   2.688   3.065  12.438
46098SOL    HW140126   2.727   3.141  12.481
46098SOL    HW240127   2.660   3.097  12.352
46099SOL     OW40128   8.151  10.962   2.587
46099SOL    HW140129   8.170  11.055   2.573
46099SOL    HW240130   8.091  10.960   2.661
46100SOL     OW40131   9.621   8.154   1.152
46100SOL    HW140132   9.585   8.109   1.228
46100SOL    HW240133   9.550   8.153   1.087
46101SOL     OW40134   6.021   2.845   6.355
46101SOL    HW140135   6.090   2.792   6.314
46101SOL    HW240136   6.001   2.913   6.292
46102SOL     OW40137  10.140  12.115  13.505
46102SOL    HW140138  10.059  12.095  13.456
46102SOL    HW240139  10.201  12.146  13.438
46103SOL     OW40140   6.853  13.753   8.573
46103SOL    HW140141   6.883  13.693   8.641
46103SOL    HW240142   6.758  13.740   8.569
46104SOL     OW40143  11.634   5.700  14.825
46104SOL    HW140144  11.703   5.767  14.816
46104SOL    HW240145  11.623   5.688   0.047
46105SOL     OW40146   7.555  10.370   3.905
46105SOL    HW140147   7.482  10.408   3.855
46105SOL    HW240148   7.527  10.280   3.923
46106SOL     OW40149  14.508   9.445   6.084
46106SOL    HW140150  14.585   9.419   6.034
46106SOL    HW240151  14.459   9.502   6.025
46107SOL     OW40152   5.139   9.096  11.142
46107SOL    HW140153   5.045   9.111  11.133
46107SOL    HW240154   5.155   9.097  11.236
46108SOL     OW40155   6.085   0.318  14.350
46108SOL    HW140156   6.077   0.249  14.284
46108SOL    HW240157   5.996   0.350  14.362
46109SOL     OW40158  10.488  13.088  14.778
46109SOL    HW140159  10.475  13.053  14.689
46109SOL    HW240160  10.438  13.029  14.834
46110SOL     OW40161   1.677   1.329   4.788
46110SOL    HW140162   1.771   1.310   4.791
46110SOL    HW240163   1.665   1.375   4.705
46111SOL     OW40164   6.459  13.719  11.058
46111SOL    HW140165   6.515  13.654  11.014
46111SOL    HW240166   6.404  13.668  11.117
46112SOL     OW40167   4.769   4.888  10.282
46112SOL    HW140168   4.770   4.792  10.274
46112SOL    HW240169   4.724   4.918  10.204
46113SOL     OW40170   7.325   6.502  12.907
46113SOL    HW140171   7.326   6.440  12.834
46113SOL    HW240172   7.400   6.475  12.961
46114SOL     OW40173   6.313  11.909   8.332
46114SOL    HW140174   6.230  11.904   8.379
46114SOL    HW240175   6.315  11.830   8.277
46115SOL     OW40176  13.877   1.360   9.013
46115SOL    HW140177  13.917   1.437   9.054
46115SOL    HW240178  13.861   1.300   9.086
46116SOL     OW40179  10.344   2.434   5.898
46116SOL    HW140180  10.364   2.477   5.981
46116SOL    HW240181  10.364   2.342   5.913
46117SOL     OW40182   5.571   3.994  10.936
46117SOL    HW140183   5.603   4.062  10.995
46117SOL    HW240184   5.630   3.920  10.950
46118SOL     OW40185   2.507  12.182   8.854
46118SOL    HW140186   2.503  12.227   8.770
46118SOL    HW240187   2.463  12.098   8.839
46119SOL     OW40188  13.687  13.428   0.618
46119SOL    HW140189  13.715  13.421   0.526
46119SOL    HW240190  13.620  13.497   0.617
46120SOL     OW40191   9.323  10.691   9.416
46120SOL    HW140192   9.325  10.784   9.393
46120SOL    HW240193   9.415  10.669   9.433
46121SOL     OW40194  14.490   8.803  12.986
46121SOL    HW140195  14.566   8.801  12.928
46121SOL    HW240196  14.441   8.881  12.958
46122SOL     OW40197   2.268   7.274  11.439
46122SOL    HW140198   2.291   7.267  11.532
46122SOL    HW240199   2.250   7.367  11.426
46123SOL     OW40200   7.442  12.932   6.124
46123SOL    HW140201   7.492  12.960   6.047
46123SOL    HW240202   7.509  12.902   6.185
46124SOL     OW40203   0.715   2.757  14.628
46124SOL    HW140204   0.719   2.689  14.695
46124SOL    HW240205   0.807   2.782  14.614
46125SOL     OW40206  12.231   5.065   0.418
46125SOL    HW140207  12.280   5.125   0.362
46125SOL    HW240208  12.160   5.118   0.454
46126SOL     OW40209   0.578   3.873   9.154
46126SOL    HW140210   0.551   3.877   9.062
46126SOL    HW240211   0.623   3.789   9.163
46127SOL     OW40212   8.748  11.473   4.656
46127SOL    HW140213   8.763  11.482   4.750
46127SOL    HW240214   8.662  11.431   4.650
46128SOL     OW40215   3.690  12.739  10.454
46128SOL    HW140216   3.738  12.729  10.372
46128SOL    HW240217   3.600  12.757  10.428
46129SOL     OW40218   3.752   1.392   9.334
46129SOL    HW140219   3.712   1.464   9.383
46129SOL    HW240220   3.807   1.436   9.269
46130SOL     OW40221   4.921   9.079  13.914
46130SOL    HW140222   4.962   9.161  13.889
46130SOL    HW240223   4.944   9.018  13.843
46131SOL     OW40224   3.805  14.408  13.456
46131SOL    HW140225   3.785  14.418  13.363
46131SOL    HW240226   3.742  14.464  13.501
46132SOL     OW40227   0.813   6.567   1.452
46132SOL    HW140228   0.888   6.590   1.396
46132SOL    HW240229   0.776   6.652   1.477
46133SOL     OW40230  10.782  14.182   9.309
46133SOL    HW140231  10.796  14.256   9.250
46133SOL    HW240232  10.868  14.164   9.347
46134SOL     OW40233   5.389   2.172   3.854
46134SOL    HW140234   5.349   2.185   3.768
46134SOL    HW240235   5.453   2.242   3.862
46135SOL     OW40236  11.351   0.248   4.525
46135SOL    HW140237  11.283   0.283   4.467
46135SOL    HW240238  11.346   0.301   4.604
46136SOL     OW40239   6.429   2.288   8.210
46136SOL    HW140240   6.478   2.369   8.220
46136SOL    HW240241   6.417   2.256   8.299
46137SOL     OW40242  14.341  12.229   3.148
46137SOL    HW140243  14.433  12.241   3.169
46137SOL    HW240244  14.339  12.224   3.052
46138SOL     OW40245   6.633   1.622   9.561
46138SOL    HW140246   6.621   1.561   9.634
46138SOL    HW240247   6.608   1.572   9.483
46139SOL     OW40248  11.618   2.168  12.311
46139SOL    HW140249  11.698   2.220  12.305
46139SOL    HW240250  11.566   2.211  12.379
46140SOL     OW40251   5.854   2.791   9.143
46140SOL    HW140252   5.830   2.745   9.224
46140SOL    HW240253   5.775   2.839   9.119
46141SOL     OW40254   4.327   4.697   7.055
46141SOL    HW140255   4.422   4.684   7.053
46141SOL    HW240256   4.295   4.632   7.117
46142SOL     OW40257   6.316   1.400  10.238
46142SOL    HW140258   6.246   1.389  10.304
46142SOL    HW240259   6.377   1.461  10.279
46143SOL     OW40260   6.453  10.763   5.729
46143SOL    HW140261   6.522  10.780   5.794
46143SOL    HW240262   6.451  10.667   5.723
46144SOL     OW40263   2.064   3.657   7.167
46144SOL    HW140264   2.025   3.744   7.162
46144SOL    HW240265   2.110   3.646   7.084
46145SOL     OW40266  13.711   0.606   8.266
46145SOL    HW140267  13.722   0.675   8.332
46145SOL    HW240268  13.800   0.576   8.248
46146SOL     OW40269   8.714   3.526   6.846
46146SOL    HW140270   8.637   3.489   6.889
46146SOL    HW240271   8.679   3.575   6.771
46147SOL     OW40272  14.761   1.015   8.858
46147SOL    HW140273  14.731   0.924   8.856
46147SOL    HW240274  14.705   1.060   8.795
46148SOL     OW40275   9.460  14.286  10.965
46148SOL    HW140276   9.422  14.373  10.956
46148SOL    HW240277   9.405  14.242  11.030
46149SOL     OW40278  11.366   8.370   5.251
46149SOL    HW140279  11.391   8.292   5.202
46149SOL    HW240280  11.336   8.337   5.336
46150SOL     OW40281   6.649   3.192   0.577
46150SOL    HW140282   6.731   3.192   0.527
46150SOL    HW240283   6.650   3.109   0.625
46151SOL     OW40284   6.273   7.297  12.914
46151SOL    HW140285   6.315   7.348  12.983
46151SOL    HW240286   6.200   7.254  12.957
46152SOL     OW40287   9.093  10.324   5.361
46152SOL    HW140288   9.135  10.371   5.289
46152SOL    HW240289   9.000  10.344   5.353
46153SOL     OW40290  12.449   5.081  14.220
46153SOL    HW140291  12.376   5.032  14.258
46153SOL    HW240292  12.411   5.129  14.147
46154SOL     OW40293  13.176   9.164  13.476
46154SOL    HW140294  13.149   9.078  13.507
46154SOL    HW240295  13.126   9.176  13.395
46155SOL     OW40296   2.604   9.735   0.133
46155SOL    HW140297   2.522   9.778   0.157
46155SOL    HW240298   2.660   9.806   0.100
46156SOL     OW40299   4.872   5.556  10.346
46156SOL    HW140300   4.886   5.472  10.301
46156SOL    HW240301   4.958   5.597  10.346
46157SOL     OW40302  11.305   8.408  14.403
46157SOL    HW140303  11.393   8.407  14.364
46157SOL    HW240304  11.316   8.366  14.488
46158SOL     OW40305  11.903   7.403   1.265
46158SOL    HW140306  11.955   7.477   1.295
46158SOL    HW240307  11.818   7.415   1.307
46159SOL     OW40308   8.212   3.188  14.008
46159SOL    HW140309   8.190   3.240  14.086
46159SOL    HW240310   8.280   3.238  13.964
46160SOL     OW40311  12.378   9.305   3.119
46160SOL    HW140312  12.348   9.274   3.033
46160SOL    HW240313  12.303   9.352   3.154
46161SOL     OW40314   6.516   7.304  14.436
46161SOL    HW140315   6.462   7.337  14.364
46161SOL    HW240316   6.476   7.339  14.515
46162SOL     OW40317  12.127   1.094   9.861
46162SOL    HW140318  12.144   1.089   9.955
46162SOL    HW240319  12.040   1.056   9.850
46163SOL     OW40320   7.724   4.997   6.978
46163SOL    HW140321   7.663   5.049   6.927
46163SOL    HW240322   7.677   4.975   7.058
46164SOL     OW40323   9.354  12.164   6.999
46164SOL    HW140324   9.360  12.077   7.039
46164SOL    HW240325   9.314  12.148   6.913
46165SOL     OW40326   4.413  10.039   0.308
46165SOL    HW140327   4.447  10.009   0.224
46165SOL    HW240328   4.468   9.994   0.373
46166SOL     OW40329   5.003   2.782   7.721
46166SOL    HW140330   4.922   2.793   7.671
46166SOL    HW240331   4.978   2.725   7.794
46167SOL     OW40332   9.864  10.180   3.248
46167SOL    HW140333   9.827  10.227   3.323
46167SOL    HW240334   9.938  10.234   3.219
46168SOL     OW40335   2.861  10.205   1.203
46168SOL    HW140336   2.916  10.174   1.130
46168SOL    HW240337   2.873  10.139   1.271
46169SOL     OW40338  12.017   2.362   5.892
46169SOL    HW140339  12.108   2.389   5.899
46169SOL    HW240340  11.969   2.423   5.949
46170SOL     OW40341   7.713   3.299  12.326
46170SOL    HW140342   7.631   3.338  12.354
46170SOL    HW240343   7.701   3.205  12.340
46171SOL     OW40344   1.531   2.136   4.516
46171SOL    HW140345   1.440   2.152   4.491
46171SOL    HW240346   1.575   2.117   4.434
46172SOL     OW40347  10.551  11.221   4.028
46172SOL    HW140348  10.627  11.269   3.995
46172SOL    HW240349  10.587  11.161   4.094
46173SOL     OW40350  10.449   2.054  11.246
46173SOL    HW140351  10.525   2.106  11.270
46173SOL    HW240352  10.461   1.971  11.293
46174SOL     OW40353   9.158   0.041   0.913
46174SOL    HW140354   9.133   0.100   0.985
46174SOL    HW240355   9.087   0.051   0.849
46175SOL     OW40356   2.370   3.029   0.712
46175SOL    HW140357   2.284   2.987   0.717
46175SOL    HW240358   2.431   2.962   0.742
46176SOL     OW40359  14.403   7.859   0.913
46176SOL    HW140360  14.421   7.770   0.943
46176SOL    HW240361  14.470   7.875   0.846
46177SOL     OW40362   4.911   2.361   7.666
46177SOL    HW140363   4.981   2.337   7.725
46177SOL    HW240364   4.866   2.278   7.647
46178SOL     OW40365  14.139   5.124   3.397
46178SOL    HW140366  14.174   5.099   3.311
46178SOL    HW240367  14.162   5.217   3.406
46179SOL     OW40368   4.504   7.604   2.889
46179SOL    HW140369   4.575   7.634   2.833
46179SOL    HW240370   4.495   7.511   2.869
46180SOL     OW40371   1.325  10.803  14.322
46180SOL    HW140372   1.240  10.844  14.310
46180SOL    HW240373   1.367  10.808  14.236
46181SOL     OW40374   7.429  11.507   0.716
46181SOL    HW140375   7.427  11.554   0.799
46181SOL    HW240376   7.373  11.558   0.657
46182SOL     OW40377   9.511   5.384   8.605
46182SOL    HW140378   9.424   5.345   8.599
46182SOL    HW240379   9.541   5.362   8.694
46183SOL     OW40380   7.577   8.997  13.900
46183SOL    HW140381   7.492   9.041  13.902
46183SOL    HW240382   7.613   9.012  13.988
46184SOL     OW40383   1.407  10.861   3.777
46184SOL    HW140384   1.412  10.827   3.866
46184SOL    HW240385   1.332  10.920   3.778
46185SOL     OW40386  11.308   2.003   5.157
46185SOL    HW140387  11.397   2.039   5.148
46185SOL    HW240388  11.303   1.975   5.249
46186SOL     OW40389   0.808   2.547   3.053
46186SOL    HW140390   0.901   2.526   3.064
46186SOL    HW240391   0.766   2.513   3.132
46187SOL     OW40392   5.333   6.706   9.041
46187SOL    HW140393   5.282   6.761   8.982
46187SOL    HW240394   5.293   6.619   9.033
46188SOL     OW40395  11.428   5.273   3.305
46188SOL    HW140396  11.446   5.180   3.292
46188SOL    HW240397  11.333   5.278   3.314
46189SOL     OW40398  14.021   1.017  14.647
46189SOL    HW140399  13.974   1.046  14.725
46189SOL    HW240400  14.109   1.054  14.657
46190SOL     OW40401   4.454   6.499   7.821
46190SOL    HW140402   4.474   6.578   7.871
46190SOL    HW240403   4.439   6.431   7.886
46191SOL     OW40404   4.107   3.686   4.481
46191SOL    HW140405   4.020   3.646   4.488
46191SOL    HW240406   4.120   3.697   4.387
46192SOL     OW40407   3.705   0.872   9.403
46192SOL    HW140408   3.765   0.814   9.357
46192SOL    HW240409   3.719   0.959   9.364
46193SOL     OW40410   5.620   2.971   1.575
46193SOL    HW140411   5.566   2.900   1.610
46193SOL    HW240412   5.645   3.023   1.652
46194SOL     OW40413   8.009   6.273   5.569
46194SOL    HW140414   8.094   6.248   5.605
46194SOL    HW240415   7.986   6.201   5.510
46195SOL     OW40416   3.075  13.829   3.704
46195SOL    HW140417   3.144  13.784   3.753
46195SOL    HW240418   3.120  13.897   3.655
46196SOL     OW40419   9.282   1.580  12.622
46196SOL    HW140420   9.371   1.612  12.637
46196SOL    HW240421   9.259   1.612  12.535
46197SOL     OW40422  11.074   0.107  12.420
46197SOL    HW140423  11.159   0.146  12.401
46197SOL    HW240424  11.068   0.107  12.515
46198SOL     OW40425  14.230   3.100   4.912
46198SOL    HW140426  14.170   3.044   4.960
46198SOL    HW240427  14.193   3.188   4.920
46199SOL     OW40428  11.915   9.468  11.949
46199SOL    HW140429  11.878   9.431  11.868
46199SOL    HW240430  11.842   9.464  12.012
46200SOL     OW40431   6.893  13.420  10.440
46200SOL    HW140432   6.818  13.382  10.395
46200SOL    HW240433   6.865  13.508  10.466
46201SOL     OW40434   6.033   1.319   3.269
46201SOL    HW140435   6.045   1.226   3.290
46201SOL    HW240436   5.961   1.347   3.326
46202SOL     OW40437  13.014   1.334   4.081
46202SOL    HW140438  12.997   1.369   3.994
46202SOL    HW240439  13.096   1.376   4.108
46203SOL     OW40440   2.292   7.293   7.202
46203SOL    HW140441   2.334   7.324   7.121
46203SOL    HW240442   2.273   7.373   7.251
46204SOL     OW40443   4.118   0.636  12.742
46204SOL    HW140444   4.192   0.696  12.736
46204SOL    HW240445   4.116   0.592  12.657
46205SOL     OW40446   6.967   9.286   8.990
46205SOL    HW140447   6.925   9.328   9.065
46205SOL    HW240448   6.894   9.262   8.933
46206SOL     OW40449   9.014  10.802  14.716
46206SOL    HW140450   9.026  10.728  14.656
46206SOL    HW240451   8.919  10.814  14.720
46207SOL     OW40452   3.592  12.177   3.519
46207SOL    HW140453   3.507  12.220   3.520
46207SOL    HW240454   3.621  12.179   3.611
46208SOL     OW40455   1.599  14.255   4.315
46208SOL    HW140456   1.608  14.346   4.342
46208SOL    HW240457   1.517  14.252   4.266
46209SOL     OW40458  12.844   5.810   7.230
46209SOL    HW140459  12.778   5.773   7.289
46209SOL    HW240460  12.923   5.816   7.283
46210SOL     OW40461  13.816   3.484   9.553
46210SOL    HW140462  13.831   3.560   9.496
46210SOL    HW240463  13.895   3.478   9.606
46211SOL     OW40464  11.208   9.727   7.213
46211SOL    HW140465  11.296   9.753   7.242
46211SOL    HW240466  11.208   9.632   7.219
46212SOL     OW40467  11.784   1.970   7.139
46212SOL    HW140468  11.828   2.041   7.093
46212SOL    HW240469  11.820   1.890   7.100
46213SOL     OW40470   8.829  12.492   1.474
46213SOL    HW140471   8.858  12.580   1.452
46213SOL    HW240472   8.840  12.485   1.569
46214SOL     OW40473  10.253   3.587   4.705
46214SOL    HW140474  10.204   3.514   4.667
46214SOL    HW240475  10.301   3.548   4.778
46215SOL     OW40476  11.301   5.353   2.571
46215SOL    HW140477  11.241   5.325   2.502
46215SOL    HW240478  11.247   5.404   2.631
46216SOL     OW40479   6.308   3.761  10.988
46216SOL    HW140480   6.348   3.820  10.923
46216SOL    HW240481   6.362   3.682  10.985
46217SOL     OW40482   1.303   2.475  13.058
46217SOL    HW140483   1.275   2.535  12.988
46217SOL    HW240484   1.360   2.412  13.014
46218SOL     OW40485  12.217   5.128   7.249
46218SOL    HW140486  12.178   5.184   7.183
46218SOL    HW240487  12.310   5.151   7.248
46219SOL     OW40488   3.849  11.042   7.909
46219SOL    HW140489   3.795  11.110   7.869
46219SOL    HW240490   3.838  10.966   7.852
46220SOL     OW40491  13.111  12.721   3.319
46220SOL    HW140492  13.116  12.816   3.332
46220SOL    HW240493  13.177  12.704   3.251
46221SOL     OW40494  12.545   1.279  10.521
46221SOL    HW140495  12.619   1.324  10.480
46221SOL    HW240496  12.556   1.296  10.615
46222SOL     OW40497   5.707   6.701   0.065
46222SOL    HW140498   5.726   6.787   0.103
46222SOL    HW240499   5.708   6.715  14.843
46223SOL     OW40500  10.927  13.535  12.249
46223SOL    HW140501  11.015  13.503  12.228
46223SOL    HW240502  10.879  13.456  12.276
46224SOL     OW40503  14.808   5.063   4.624
46224SOL    HW140504   0.006   5.052   4.689
46224SOL    HW240505  14.750   4.989   4.639
46225SOL     OW40506  10.343   5.820   4.722
46225SOL    HW140507  10.367   5.913   4.728
46225SOL    HW240508  10.247   5.820   4.721
46226SOL     OW40509   6.289   8.487   6.273
46226SOL    HW140510   6.382   8.500   6.256
46226SOL    HW240511   6.283   8.399   6.310
46227SOL     OW40512   3.351  10.611   8.092
46227SOL    HW140513   3.384  10.671   8.160
46227SOL    HW240514   3.256  10.615   8.101
46228SOL     OW40515   9.499  14.247  10.052
46228SOL    HW140516   9.419  14.289  10.083
46228SOL    HW240517   9.472  14.157  10.034
46229SOL     OW40518   0.457   5.393  14.686
46229SOL    HW140519   0.408   5.321  14.646
46229SOL    HW240520   0.475   5.363  14.775
46230SOL     OW40521  11.211   0.563  14.506
46230SOL    HW140522  11.150   0.551  14.433
46230SOL    HW240523  11.264   0.638  14.480
46231SOL     OW40524   3.405   2.182  14.417
46231SOL    HW140525   3.315   2.150  14.420
46231SOL    HW240526   3.398   2.271  14.382
46232SOL     OW40527   7.216   3.834  11.869
46232SOL    HW140528   7.196   3.855  11.960
46232SOL    HW240529   7.307   3.863  11.857
46233SOL     OW40530  11.517  12.889  14.066
46233SOL    HW140531  11.452  12.853  14.006
46233SOL    HW240532  11.528  12.980  14.038
46234SOL     OW40533   2.803   4.217   5.702
46234SOL    HW140534   2.868   4.286   5.691
46234SOL    HW240535   2.800   4.174   5.616
46235SOL     OW40536   8.282   5.338  10.829
46235SOL    HW140537   8.377   5.330  10.842
46235SOL    HW240538   8.244   5.300  10.908
46236SOL     OW40539   6.484  11.453  14.704
46236SOL    HW140540   6.420  11.387  14.677
46236SOL    HW240541   6.490  11.513  14.629
46237SOL     OW40542  12.247   3.547   3.462
46237SOL    HW140543  12.325   3.600   3.445
46237SOL    HW240544  12.265   3.464   3.417
46238SOL     OW40545  10.096   1.561  11.410
46238SOL    HW140546  10.001   1.572  11.412
46238SOL    HW240547  10.109   1.468  11.391
46239SOL     OW40548   2.463   2.705  14.357
46239SOL    HW140549   2.532   2.647  14.325
46239SOL    HW240550   2.417   2.653  14.423
46240SOL     OW40551   3.537   3.854   5.472
46240SOL    HW140552   3.627   3.855   5.505
46240SOL    HW240553   3.523   3.943   5.438
46241SOL     OW40554   1.836   9.413  12.934
46241SOL    HW140555   1.860   9.455  13.016
46241SOL    HW240556   1.839   9.483  12.869
46242SOL     OW40557   8.628   4.590   1.420
46242SOL    HW140558   8.708   4.542   1.399
46242SOL    HW240559   8.640   4.675   1.377
46243SOL     OW40560   7.664   2.825  13.577
46243SOL    HW140561   7.748   2.809  13.620
46243SOL    HW240562   7.618   2.741  13.584
46244SOL     OW40563   1.135  11.082  13.826
46244SOL    HW140564   1.040  11.085  13.822
46244SOL    HW240565   1.156  10.997  13.864
46245SOL     OW40566  12.831   6.292  13.940
46245SOL    HW140567  12.914   6.253  13.967
46245SOL    HW240568  12.824   6.271  13.847
46246SOL     OW40569  12.133   1.711   3.179
46246SOL    HW140570  12.053   1.743   3.139
46246SOL    HW240571  12.134   1.618   3.159
46247SOL     OW40572   1.567   4.606   9.698
46247SOL    HW140573   1.596   4.593   9.608
46247SOL    HW240574   1.491   4.664   9.690
46248SOL     OW40575   9.136   6.340  11.460
46248SOL    HW140576   9.131   6.348  11.365
46248SOL    HW240577   9.187   6.416  11.487
46249SOL     OW40578  11.150   3.815   4.463
46249SOL    HW140579  11.182   3.881   4.525
46249SOL    HW240580  11.216   3.814   4.393
46250SOL     OW40581  13.064  12.483   2.662
46250SOL    HW140582  12.997  12.551   2.665
46250SOL    HW240583  13.106  12.488   2.748
46251SOL     OW40584   8.559   3.572   2.492
46251SOL    HW140585   8.534   3.482   2.513
46251SOL    HW240586   8.478   3.622   2.502
46252SOL     OW40587  11.475   5.777   9.255
46252SOL    HW140588  11.489   5.872   9.257
46252SOL    HW240589  11.430   5.758   9.337
46253SOL     OW40590   0.527  13.100   5.384
46253SOL    HW140591   0.603  13.152   5.409
46253SOL    HW240592   0.521  13.112   5.289
46254SOL     OW40593  11.692   9.350  12.711
46254SOL    HW140594  11.709   9.332  12.618
46254SOL    HW240595  11.665   9.442  12.713
46255SOL     OW40596   6.691   5.795  13.881
46255SOL    HW140597   6.628   5.867  13.886
46255SOL    HW240598   6.637   5.716  13.880
46256SOL     OW40599  14.743   8.777  13.362
46256SOL    HW140600  14.700   8.695  13.385
46256SOL    HW240601  14.673   8.842  13.362
46257SOL     OW40602   7.857   5.228   5.841
46257SOL    HW140603   7.851   5.133   5.833
46257SOL    HW240604   7.881   5.243   5.933
46258SOL     OW40605  13.893   5.614  11.826
46258SOL    HW140606  13.819   5.557  11.806
46258SOL    HW240607  13.864   5.702  11.801
46259SOL     OW40608   4.586   6.738  11.828
46259SOL    HW140609   4.586   6.770  11.918
46259SOL    HW240610   4.619   6.648  11.834
46260SOL     OW40611  13.225   5.106  12.445
46260SOL    HW140612  13.303   5.068  12.404
46260SOL    HW240613  13.243   5.102  12.539
46261SOL     OW40614  11.145   5.305   3.323
46261SOL    HW140615  11.064   5.255   3.314
46261SOL    HW240616  11.120   5.384   3.370
46262SOL     OW40617   5.211  11.048   2.810
46262SOL    HW140618   5.172  11.061   2.724
46262SOL    HW240619   5.261  10.967   2.802
46263SOL     OW40620  13.712   8.797  12.299
46263SOL    HW140621  13.697   8.871  12.357
46263SOL    HW240622  13.763   8.735  12.352
46264SOL     OW40623  10.508   0.743   7.160
46264SOL    HW140624  10.472   0.816   7.108
46264SOL    HW240625  10.543   0.784   7.239
46265SOL     OW40626  10.074   7.620   3.869
46265SOL    HW140627  10.122   7.694   3.908
46265SOL    HW240628  10.040   7.655   3.786
46266SOL     OW40629  10.563   1.986   1.961
46266SOL    HW140630  10.524   2.065   1.923
46266SOL    HW240631  10.578   2.009   2.053
46267SOL     OW40632   7.839   9.721   3.636
46267SOL    HW140633   7.879   9.683   3.558
46267SOL    HW240634   7.745   9.705   3.625
46268SOL     OW40635   2.845   1.654  12.188
46268SOL    HW140636   2.864   1.625  12.099
46268SOL    HW240637   2.813   1.575  12.232
46269SOL     OW40638  14.649  12.155  12.584
46269SOL    HW140639  14.580  12.097  12.552
46269SOL    HW240640  14.703  12.175  12.508
46270SOL     OW40641   4.190   3.657   9.664
46270SOL    HW140642   4.171   3.664   9.758
46270SOL    HW240643   4.184   3.746   9.632
46271SOL     OW40644   0.531   7.023  11.404
46271SOL    HW140645   0.483   6.971  11.340
46271SOL    HW240646   0.553   6.962  11.474
46272SOL     OW40647   2.836   0.225   6.674
46272SOL    HW140648   2.745   0.238   6.647
46272SOL    HW240649   2.887   0.278   6.612
46273SOL     OW40650   3.809  12.216  11.513
46273SOL    HW140651   3.764  12.248  11.434
46273SOL    HW240652   3.738  12.192  11.573
46274SOL     OW40653   8.040   2.593   2.816
46274SOL    HW140654   7.965   2.544   2.850
46274SOL    HW240655   8.029   2.681   2.852
46275SOL     OW40656   9.918   9.205  13.181
46275SOL    HW140657   9.846   9.246  13.134
46275SOL    HW240658   9.934   9.123  13.134
46276SOL     OW40659  13.463  12.962   9.052
46276SOL    HW140660  13.376  13.000   9.038
46276SOL    HW240661  13.494  12.937   8.965
46277SOL     OW40662   9.322   5.048   7.482
46277SOL    HW140663   9.312   5.093   7.398
46277SOL    HW240664   9.277   4.965   7.470
46278SOL     OW40665   9.699   6.496   3.659
46278SOL    HW140666   9.756   6.423   3.682
46278SOL    HW240667   9.739   6.535   3.581
46279SOL     OW40668  11.711   1.322   0.489
46279SOL    HW140669  11.738   1.412   0.473
46279SOL    HW240670  11.769   1.291   0.559
46280SOL     OW40671   7.678  12.695   7.552
46280SOL    HW140672   7.760  12.691   7.601
46280SOL    HW240673   7.705  12.693   7.460
46281SOL     OW40674  11.200   4.009   8.512
46281SOL    HW140675  11.255   3.979   8.584
46281SOL    HW240676  11.219   3.949   8.440
46282SOL     OW40677   6.849   5.362   6.905
46282SOL    HW140678   6.890   5.296   6.848
46282SOL    HW240679   6.781   5.314   6.952
46283SOL     OW40680   5.554   3.106   3.337
46283SOL    HW140681   5.460   3.124   3.344
46283SOL    HW240682   5.595   3.192   3.346
46284SOL     OW40683   9.044  13.295   5.987
46284SOL    HW140684   8.980  13.258   6.048
46284SOL    HW240685   9.081  13.219   5.942
46285SOL     OW40686  13.631   1.717  13.581
46285SOL    HW140687  13.558   1.671  13.622
46285SOL    HW240688  13.663   1.656  13.515
46286SOL     OW40689   3.224  13.962   5.010
46286SOL    HW140690   3.291  13.914   4.961
46286SOL    HW240691   3.167  13.999   4.942
46287SOL     OW40692  11.380   4.044   8.961
46287SOL    HW140693  11.444   4.106   8.995
46287SOL    HW240694  11.298   4.094   8.957
46288SOL     OW40695   7.063   4.877  10.952
46288SOL    HW140696   7.073   4.784  10.975
46288SOL    HW240697   7.071   4.922  11.036
46289SOL     OW40698   5.878   6.118   3.211
46289SOL    HW140699   5.851   6.098   3.301
46289SOL    HW240700   5.850   6.041   3.161
46290SOL     OW40701   7.876  11.387  13.962
46290SOL    HW140702   7.793  11.432  13.978
46290SOL    HW240703   7.852  11.294  13.955
46291SOL     OW40704   7.095   2.581  12.376
46291SOL    HW140705   7.086   2.653  12.439
46291SOL    HW240706   7.068   2.503  12.424
46292SOL     OW40707   7.013   4.507   1.288
46292SOL    HW140708   7.058   4.430   1.252
46292SOL    HW240709   6.920   4.490   1.273
46293SOL     OW40710   2.694   5.144   7.044
46293SOL    HW140711   2.634   5.070   7.042
46293SOL    HW240712   2.729   5.145   7.133
46294SOL     OW40713  11.527   0.012  10.785
46294SOL    HW140714  11.488  14.850  10.704
46294SOL    HW240715  11.621   0.015  10.766
46295SOL     OW40716   8.986   3.263   1.728
46295SOL    HW140717   8.999   3.340   1.673
46295SOL    HW240718   9.043   3.196   1.691
46296SOL     OW40719   5.101  11.330  12.776
46296SOL    HW140720   5.155  11.404  12.802
46296SOL    HW240721   5.064  11.296  12.858
46297SOL     OW40722  10.583   1.730   6.204
46297SOL    HW140723  10.646   1.670   6.243
46297SOL    HW240724  10.525   1.755   6.276
46298SOL     OW40725   0.489   8.470  10.964
46298SOL    HW140726   0.483   8.560  10.998
46298SOL    HW240727   0.457   8.415  11.036
46299SOL     OW40728  11.940   6.275  13.108
46299SOL    HW140729  11.932   6.211  13.037
46299SOL    HW240730  11.915   6.227  13.187
46300SOL     OW40731  10.788   0.329   8.729
46300SOL    HW140732  10.862   0.271   8.709
46300SOL    HW240733  10.825   0.417   8.727
46301SOL     OW40734   8.676  14.220   3.694
46301SOL    HW140735   8.747  14.178   3.744
46301SOL    HW240736   8.644  14.289   3.752
46302SOL     OW40737   5.140   3.177   5.815
46302SOL    HW140738   5.168   3.264   5.843
46302SOL    HW240739   5.125   3.129   5.897
46303SOL     OW40740   8.185  13.733   0.625
46303SOL    HW140741   8.094  13.712   0.645
46303SOL    HW240742   8.181  13.819   0.582
46304SOL     OW40743  11.754   0.535  12.329
46304SOL    HW140744  11.825   0.535  12.265
46304SOL    HW240745  11.681   0.493  12.283
46305SOL     OW40746  11.099   8.091  11.014
46305SOL    HW140747  11.151   8.146  11.073
46305SOL    HW240748  11.009   8.100  11.046
46306SOL     OW40749  14.788   5.675   1.126
46306SOL    HW140750  14.772   5.689   1.032
46306SOL    HW240751  14.716   5.619   1.154
46307SOL     OW40752  13.965  11.357  11.506
46307SOL    HW140753  13.948  11.381  11.597
46307SOL    HW240754  13.882  11.319  11.476
46308SOL     OW40755   8.873   6.793   2.786
46308SOL    HW140756   8.920   6.772   2.706
46308SOL    HW240757   8.838   6.709   2.816
46309SOL     OW40758   2.735   9.651   0.378
46309SOL    HW140759   2.676   9.644   0.303
46309SOL    HW240760   2.756   9.744   0.383
46310SOL     OW40761   4.850   4.340  11.516
46310SOL    HW140762   4.782   4.398  11.550
46310SOL    HW240763   4.829   4.330  11.423
46311SOL     OW40764  11.551  10.963  10.296
46311SOL    HW140765  11.521  10.877  10.325
46311SOL    HW240766  11.641  10.949  10.267
46312SOL     OW40767   4.174  11.895   7.247
46312SOL    HW140768   4.249  11.877   7.190
46312SOL    HW240769   4.210  11.889   7.335
46313SOL     OW40770  12.089  12.116  11.214
46313SOL    HW140771  12.087  12.188  11.151
46313SOL    HW240772  12.101  12.038  11.160
46314SOL     OW40773   9.785  14.818   6.143
46314SOL    HW140774   9.703  14.839   6.100
46314SOL    HW240775   9.781  14.864   6.227
46315SOL     OW40776  14.061   3.539  10.947
46315SOL    HW140777  14.004   3.605  10.908
46315SOL    HW240778  14.089   3.578  11.030
46316SOL     OW40779   6.610   0.969   8.520
46316SOL    HW140780   6.653   0.891   8.555
46316SOL    HW240781   6.681   1.018   8.477
46317SOL     OW40782   1.141  14.018   3.579
46317SOL    HW140783   1.146  13.952   3.647
46317SOL    HW240784   1.231  14.027   3.547
46318SOL     OW40785   0.968   4.595   1.527
46318SOL    HW140786   0.902   4.575   1.594
46318SOL    HW240787   1.043   4.627   1.576
46319SOL     OW40788   3.156   2.975   5.773
46319SOL    HW140789   3.235   3.004   5.817
46319SOL    HW240790   3.186   2.911   5.709
46320SOL     OW40791   3.401   2.716   7.818
46320SOL    HW140792   3.431   2.731   7.908
46320SOL    HW240793   3.425   2.625   7.800
46321SOL     OW40794   4.294  13.107   9.670
46321SOL    HW140795   4.375  13.121   9.718
46321SOL    HW240796   4.246  13.042   9.721
46322SOL     OW40797  12.036  14.239  13.749
46322SOL    HW140798  12.104  14.210  13.688
46322SOL    HW240799  12.033  14.169  13.815
46323SOL     OW40800   1.926   5.472  13.354
46323SOL    HW140801   1.863   5.425  13.410
46323SOL    HW240802   2.007   5.422  13.364
46324SOL     OW40803   0.817  14.282   8.035
46324SOL    HW140804   0.740  14.236   8.002
46324SOL    HW240805   0.782  14.364   8.071
46325SOL     OW40806   0.051  12.560  13.827
46325SOL    HW140807   0.079  12.531  13.914
46325SOL    HW240808  14.845  12.612  13.844
46326SOL     OW40809   0.623   8.760  12.241
46326SOL    HW140810   0.646   8.764  12.148
46326SOL    HW240811   0.642   8.670  12.267
46327SOL     OW40812   5.289   5.136   8.384
46327SOL    HW140813   5.308   5.211   8.440
46327SOL    HW240814   5.194   5.138   8.372
46328SOL     OW40815   0.037   0.975   4.153
46328SOL    HW140816   0.061   0.901   4.210
46328SOL    HW240817   0.018   0.935   4.069
46329SOL     OW40818  10.177   3.126   0.041
46329SOL    HW140819  10.119   3.089  14.847
46329SOL    HW240820  10.118   3.166   0.104
46330SOL     OW40821   0.316   2.500   0.344
46330SOL    HW140822   0.222   2.512   0.329
46330SOL    HW240823   0.323   2.415   0.386
46331SOL     OW40824   2.525   6.862   6.465
46331SOL    HW140825   2.544   6.873   6.558
46331SOL    HW240826   2.448   6.804   6.463
46332SOL     OW40827   4.423  10.927   4.336
46332SOL    HW140828   4.475  10.859   4.379
46332SOL    HW240829   4.404  10.891   4.249
46333SOL     OW40830   0.009  12.197   6.647
46333SOL    HW140831  14.827  12.125   6.617
46333SOL    HW240832  14.826  12.275   6.637
46334SOL     OW40833  10.406  10.373  10.051
46334SOL    HW140834  10.427  10.395  10.141
46334SOL    HW240835  10.337  10.307  10.057
46335SOL     OW40836  10.868  12.769   0.767
46335SOL    HW140837  10.841  12.823   0.693
46335SOL    HW240838  10.953  12.805   0.793
46336SOL     OW40839   7.416   2.341  11.615
46336SOL    HW140840   7.431   2.374  11.527
46336SOL    HW240841   7.333   2.294  11.610
46337SOL     OW40842   5.740   5.324  10.414
46337SOL    HW140843   5.774   5.393  10.357
46337SOL    HW240844   5.817   5.272  10.436
46338SOL     OW40845   8.675   6.623  11.728
46338SOL    HW140846   8.759   6.578  11.715
46338SOL    HW240847   8.620   6.558  11.772
46339SOL     OW40848   4.601  13.952   6.418
46339SOL    HW140849   4.574  13.893   6.488
46339SOL    HW240850   4.523  13.964   6.364
46340SOL     OW40851   2.728   7.492   5.884
46340SOL    HW140852   2.790   7.421   5.871
46340SOL    HW240853   2.645   7.448   5.901
46341SOL     OW40854   2.120   8.895   4.512
46341SOL    HW140855   2.143   8.878   4.421
46341SOL    HW240856   2.026   8.913   4.510
46342SOL     OW40857   5.899  11.872   0.672
46342SOL    HW140858   5.869  11.781   0.668
46342SOL    HW240859   5.990  11.865   0.700
46343SOL     OW40860   5.696  10.357   6.669
46343SOL    HW140861   5.745  10.361   6.586
46343SOL    HW240862   5.714  10.441   6.711
46344SOL     OW40863  10.409   6.233   2.420
46344SOL    HW140864  10.370   6.202   2.337
46344SOL    HW240865  10.477   6.294   2.393
46345SOL     OW40866  12.919  10.589   8.134
46345SOL    HW140867  12.880  10.660   8.185
46345SOL    HW240868  12.993  10.559   8.187
46346SOL     OW40869   2.894  12.503   0.291
46346SOL    HW140870   2.953  12.546   0.353
46346SOL    HW240871   2.888  12.564   0.218
46347SOL     OW40872   1.719   9.628   2.204
46347SOL    HW140873   1.710   9.549   2.257
46347SOL    HW240874   1.764   9.599   2.125
46348SOL     OW40875   7.843  12.256   5.882
46348SOL    HW140876   7.811  12.301   5.960
46348SOL    HW240877   7.866  12.168   5.912
46349SOL     OW40878   2.645   7.200   7.184
46349SOL    HW140879   2.583   7.200   7.111
46349SOL    HW240880   2.603   7.256   7.250
46350SOL     OW40881   7.196   5.133   4.787
46350SOL    HW140882   7.139   5.196   4.743
46350SOL    HW240883   7.170   5.048   4.751
46351SOL     OW40884   6.110   7.497  12.772
46351SOL    HW140885   6.029   7.535  12.805
46351SOL    HW240886   6.140   7.439  12.842
46352SOL     OW40887  13.840   6.020  10.538
46352SOL    HW140888  13.842   5.924  10.535
46352SOL    HW240889  13.928   6.044  10.565
46353SOL     OW40890   2.240  14.604   3.135
46353SOL    HW140891   2.230  14.660   3.211
46353SOL    HW240892   2.233  14.515   3.169
46354SOL     OW40893   4.509   2.276   6.229
46354SOL    HW140894   4.594   2.312   6.203
46354SOL    HW240895   4.530   2.197   6.278
46355SOL     OW40896   7.749   5.429  14.858
46355SOL    HW140897   7.658   5.456  14.854
46355SOL    HW240898   7.791   5.491   0.045
46356SOL     OW40899   2.907  14.737  12.687
46356SOL    HW140900   2.843  14.806  12.705
46356SOL    HW240901   2.945  14.762  12.603
46357SOL     OW40902   0.452   4.316   2.939
46357SOL    HW140903   0.401   4.250   2.891
46357SOL    HW240904   0.386   4.371   2.981
46358SOL     OW40905  11.100  12.433   2.209
46358SOL    HW140906  11.005  12.440   2.209
46358SOL    HW240907  11.119  12.376   2.284
46359SOL     OW40908  10.503   7.438   8.161
46359SOL    HW140909  10.421   7.488   8.165
46359SOL    HW240910  10.556   7.473   8.232
46360SOL     OW40911   5.777  13.837   8.666
46360SOL    HW140912   5.788  13.746   8.638
46360SOL    HW240913   5.839  13.848   8.738
46361SOL     OW40914   5.231   7.866   8.989
46361SOL    HW140915   5.276   7.933   9.042
46361SOL    HW240916   5.167   7.828   9.049
46362SOL     OW40917   7.590  10.433   6.222
46362SOL    HW140918   7.543  10.487   6.286
46362SOL    HW240919   7.568  10.473   6.137
46363SOL     OW40920  12.032   0.061  10.954
46363SOL    HW140921  12.082   0.126  11.003
46363SOL    HW240922  12.040   0.087  10.863
46364SOL     OW40923   0.779   8.407   6.527
46364SOL    HW140924   0.798   8.323   6.485
46364SOL    HW240925   0.697   8.392   6.574
46365SOL     OW40926   4.608   1.380   3.582
46365SOL    HW140927   4.658   1.315   3.632
46365SOL    HW240928   4.542   1.412   3.643
46366SOL     OW40929   2.620   0.935   4.030
46366SOL    HW140930   2.526   0.954   4.037
46366SOL    HW240931   2.638   0.940   3.936
46367SOL     OW40932   6.200  12.061  12.654
46367SOL    HW140933   6.124  12.056  12.712
46367SOL    HW240934   6.267  12.008  12.697
46368SOL     OW40935   1.393   3.700   1.729
46368SOL    HW140936   1.315   3.686   1.783
46368SOL    HW240937   1.420   3.790   1.749
46369SOL     OW40938   7.372   4.873   4.945
46369SOL    HW140939   7.443   4.936   4.959
46369SOL    HW240940   7.340   4.893   4.857
46370SOL     OW40941  11.089  14.666   1.186
46370SOL    HW140942  11.172  14.653   1.231
46370SOL    HW240943  11.028  14.606   1.229
46371SOL     OW40944   3.599  10.975   2.663
46371SOL    HW140945   3.622  11.065   2.684
46371SOL    HW240946   3.680  10.926   2.676
46372SOL     OW40947  13.440   0.645   1.414
46372SOL    HW140948  13.375   0.595   1.364
46372SOL    HW240949  13.524   0.606   1.391
46373SOL     OW40950   3.212   5.874   0.286
46373SOL    HW140951   3.261   5.915   0.357
46373SOL    HW240952   3.120   5.884   0.312
46374SOL     OW40953  10.936   2.669   5.655
46374SOL    HW140954  10.941   2.712   5.740
46374SOL    HW240955  10.921   2.577   5.676
46375SOL     OW40956   1.149  10.821   8.104
46375SOL    HW140957   1.102  10.755   8.052
46375SOL    HW240958   1.211  10.770   8.156
46376SOL     OW40959  13.945   3.707   6.006
46376SOL    HW140960  13.887   3.748   5.942
46376SOL    HW240961  14.018   3.674   5.954
46377SOL     OW40962  14.631  14.519   5.657
46377SOL    HW140963  14.638  14.426   5.675
46377SOL    HW240964  14.568  14.525   5.585
46378SOL     OW40965  10.441   5.207  11.873
46378SOL    HW140966  10.474   5.232  11.959
46378SOL    HW240967  10.403   5.120  11.886
46379SOL     OW40968  11.560   7.791  12.468
46379SOL    HW140969  11.649   7.826  12.474
46379SOL    HW240970  11.570   7.696  12.478
46380SOL     OW40971   7.752  11.127  13.824
46380SOL    HW140972   7.770  11.059  13.759
46380SOL    HW240973   7.747  11.208  13.773
46381SOL     OW40974  14.737  12.371   9.587
46381SOL    HW140975  14.698  12.333   9.666
46381SOL    HW240976  14.662  12.406   9.537
46382SOL     OW40977   5.172   2.819   2.639
46382SOL    HW140978   5.205   2.907   2.622
46382SOL    HW240979   5.238   2.761   2.602
46383SOL     OW40980  10.161   1.643  12.554
46383SOL    HW140981  10.219   1.602  12.618
46383SOL    HW240982  10.210   1.642  12.472
46384SOL     OW40983   1.558  10.122   1.883
46384SOL    HW140984   1.467  10.153   1.884
46384SOL    HW240985   1.610  10.202   1.873
46385SOL     OW40986  12.718   6.633  13.408
46385SOL    HW140987  12.770   6.710  13.432
46385SOL    HW240988  12.639   6.639  13.462
46386SOL     OW40989   8.249  14.543   0.071
46386SOL    HW140990   8.185  14.473   0.057
46386SOL    HW240991   8.332  14.505   0.043
46387SOL     OW40992   0.192  11.704   4.628
46387SOL    HW140993   0.174  11.640   4.697
46387SOL    HW240994   0.285  11.725   4.639
46388SOL     OW40995   5.096  13.198   2.592
46388SOL    HW140996   5.182  13.216   2.629
46388SOL    HW240997   5.054  13.285   2.587
46389SOL     OW40998   4.024  11.846  12.468
46389SOL    HW140999   4.007  11.874  12.558
46389SOL    HW241000   4.081  11.914  12.433
46390SOL     OW41001   9.358   7.019  12.416
46390SOL    HW141002   9.407   6.994  12.337
46390SOL    HW241003   9.295   7.084  12.385
46391SOL     OW41004   6.602  10.382  13.467
46391SOL    HW141005   6.675  10.340  13.513
46391SOL    HW241006   6.626  10.379  13.375
46392SOL     OW41007   5.154   0.308   8.094
46392SOL    HW141008   5.240   0.275   8.067
46392SOL    HW241009   5.173   0.374   8.160
46393SOL     OW41010   9.531   4.625   2.998
46393SOL    HW141011   9.449   4.668   3.024
46393SOL    HW241012   9.584   4.695   2.961
46394SOL     OW41013  11.977   0.323   8.844
46394SOL    HW141014  12.017   0.409   8.851
46394SOL    HW241015  11.916   0.330   8.771
46395SOL     OW41016   7.346  11.873  12.061
46395SOL    HW141017   7.348  11.931  12.136
46395SOL    HW241018   7.300  11.923  11.993
46396SOL     OW41019   7.216   8.548   5.030
46396SOL    HW141020   7.279   8.485   5.065
46396SOL    HW241021   7.223   8.539   4.935
46397SOL     OW41022   6.241  10.843   3.721
46397SOL    HW141023   6.303  10.911   3.695
46397SOL    HW241024   6.251  10.775   3.655
46398SOL     OW41025   5.724   8.056  14.050
46398SOL    HW141026   5.663   8.098  13.990
46398SOL    HW241027   5.683   8.064  14.136
46399SOL     OW41028   1.595  11.913   8.758
46399SOL    HW141029   1.689  11.901   8.739
46399SOL    HW241030   1.557  11.935   8.673
46400SOL     OW41031   4.215   9.237   5.483
46400SOL    HW141032   4.256   9.189   5.411
46400SOL    HW241033   4.212   9.175   5.556
46401SOL     OW41034   8.122  12.574  10.285
46401SOL    HW141035   8.049  12.537  10.237
46401SOL    HW241036   8.158  12.641  10.227
46402SOL     OW41037   0.333   7.150   5.658
46402SOL    HW141038   0.283   7.071   5.637
46402SOL    HW241039   0.423   7.129   5.634
46403SOL     OW41040  11.831   0.054   8.527
46403SOL    HW141041  11.868   0.131   8.572
46403SOL    HW241042  11.738   0.057   8.548
46404SOL     OW41043   2.402   8.808  10.506
46404SOL    HW141044   2.468   8.740  10.522
46404SOL    HW241045   2.452   8.884  10.477
46405SOL     OW41046   0.432   2.896   3.767
46405SOL    HW141047   0.343   2.872   3.743
46405SOL    HW241048   0.449   2.977   3.719
46406SOL     OW41049   3.697   8.077   8.171
46406SOL    HW141050   3.660   8.059   8.085
46406SOL    HW241051   3.754   8.001   8.188
46407SOL     OW41052   3.370  13.026  12.528
46407SOL    HW141053   3.419  12.948  12.555
46407SOL    HW241054   3.392  13.092  12.594
46408SOL     OW41055   0.885  12.280   5.355
46408SOL    HW141056   0.975  12.261   5.328
46408SOL    HW241057   0.841  12.308   5.275
46409SOL     OW41058  13.860  13.036   7.116
46409SOL    HW141059  13.885  13.125   7.138
46409SOL    HW241060  13.773  13.045   7.076
46410SOL     OW41061  13.113   6.364   9.066
46410SOL    HW141062  13.139   6.435   9.007
46410SOL    HW241063  13.040   6.322   9.022
46411SOL     OW41064  12.774   1.670  13.903
46411SOL    HW141065  12.816   1.733  13.961
46411SOL    HW241066  12.680   1.689  13.911
46412SOL     OW41067   8.605   4.144   3.906
46412SOL    HW141068   8.650   4.172   3.986
46412SOL    HW241069   8.587   4.051   3.919
46413SOL     OW41070   3.136  11.060   5.522
46413SOL    HW141071   3.196  11.046   5.595
46413SOL    HW241072   3.167  11.000   5.454
46414SOL     OW41073   8.100   1.307   0.285
46414SOL    HW141074   8.083   1.219   0.250
46414SOL    HW241075   8.013   1.343   0.302
46415SOL     OW41076   0.746  13.781   6.515
46415SOL    HW141077   0.665  13.762   6.468
46415SOL    HW241078   0.765  13.702   6.566
46416SOL     OW41079   6.517   2.071   7.651
46416SOL    HW141080   6.506   2.034   7.564
46416SOL    HW241081   6.428   2.080   7.685
46417SOL     OW41082  11.262   5.833   2.585
46417SOL    HW141083  11.341   5.785   2.558
46417SOL    HW241084  11.252   5.901   2.517
46418SOL     OW41085   9.704   6.045  13.615
46418SOL    HW141086   9.686   6.139  13.611
46418SOL    HW241087   9.639   6.011  13.676
46419SOL     OW41088  10.398  12.465   2.975
46419SOL    HW141089  10.393  12.472   2.879
46419SOL    HW241090  10.490  12.479   2.995
46420SOL     OW41091   2.361   4.027   2.316
46420SOL    HW141092   2.286   4.065   2.270
46420SOL    HW241093   2.436   4.050   2.261
46421SOL     OW41094   4.901   8.042   5.965
46421SOL    HW141095   4.845   8.119   5.954
46421SOL    HW241096   4.844   7.977   6.004
46422SOL     OW41097   4.873   2.793  11.454
46422SOL    HW141098   4.903   2.719  11.401
46422SOL    HW241099   4.944   2.809  11.515
46423SOL     OW41100   3.953  10.101   7.905
46423SOL    HW141101   4.014  10.037   7.870
46423SOL    HW241102   3.939  10.163   7.833
46424SOL     OW41103   2.276  10.866   7.374
46424SOL    HW141104   2.309  10.776   7.368
46424SOL    HW241105   2.342  10.919   7.331
46425SOL     OW41106   1.714   5.480  14.237
46425SOL    HW141107   1.643   5.432  14.280
46425SOL    HW241108   1.671   5.530  14.168
46426SOL     OW41109   5.469   7.844  10.423
46426SOL    HW141110   5.396   7.783  10.422
46426SOL    HW241111   5.544   7.793  10.392
46427SOL     OW41112  12.370   1.194  13.738
46427SOL    HW141113  12.309   1.244  13.791
46427SOL    HW241114  12.438   1.167  13.800
46428SOL     OW41115   9.545   9.517   8.434
46428SOL    HW141116   9.505   9.547   8.352
46428SOL    HW241117   9.606   9.586   8.458
46429SOL     OW41118   7.626  12.097   8.844
46429SOL    HW141119   7.623  12.126   8.753
46429SOL    HW241120   7.540  12.059   8.861
46430SOL     OW41121   5.311  11.449  14.408
46430SOL    HW141122   5.296  11.494  14.492
46430SOL    HW241123   5.223  11.438  14.372
46431SOL     OW41124   8.009  11.717  13.056
46431SOL    HW141125   8.078  11.661  13.092
46431SOL    HW241126   7.960  11.660  12.997
46432SOL     OW41127   5.597   2.200   7.122
46432SOL    HW141128   5.655   2.126   7.101
46432SOL    HW241129   5.633   2.235   7.203
46433SOL     OW41130  13.932  12.234   7.133
46433SOL    HW141131  13.969  12.318   7.107
46433SOL    HW241132  14.003  12.190   7.179
46434SOL     OW41133   1.438   2.927   8.562
46434SOL    HW141134   1.365   2.986   8.580
46434SOL    HW241135   1.427   2.904   8.469
46435SOL     OW41136  13.158  14.792  13.222
46435SOL    HW141137  13.101  14.869  13.222
46435SOL    HW241138  13.100  14.718  13.238
46436SOL     OW41139   1.773  11.086   0.276
46436SOL    HW141140   1.868  11.079   0.288
46436SOL    HW241141   1.738  11.092   0.365
46437SOL     OW41142   3.944   7.080   6.422
46437SOL    HW141143   4.020   7.060   6.367
46437SOL    HW241144   3.869   7.064   6.365
46438SOL     OW41145   7.100  12.639   1.547
46438SOL    HW141146   7.107  12.712   1.610
46438SOL    HW241147   7.168  12.577   1.575
46439SOL     OW41148  10.736   8.335   5.727
46439SOL    HW141149  10.804   8.389   5.688
46439SOL    HW241150  10.779   8.291   5.801
46440SOL     OW41151  12.408   7.430   7.919
46440SOL    HW141152  12.434   7.511   7.875
46440SOL    HW241153  12.380   7.457   8.006
46441SOL     OW41154   6.539   3.018   1.920
46441SOL    HW141155   6.601   2.975   1.861
46441SOL    HW241156   6.593   3.052   1.991
46442SOL     OW41157  11.222  13.434   8.498
46442SOL    HW141158  11.263  13.409   8.581
46442SOL    HW241159  11.193  13.524   8.512
46443SOL     OW41160   1.700   2.738   7.305
46443SOL    HW141161   1.621   2.772   7.264
46443SOL    HW241162   1.771   2.783   7.259
46444SOL     OW41163   5.245   3.595   3.025
46444SOL    HW141164   5.231   3.636   3.110
46444SOL    HW241165   5.301   3.520   3.044
46445SOL     OW41166   2.966   7.248   9.631
46445SOL    HW141167   2.997   7.174   9.579
46445SOL    HW241168   2.876   7.227   9.652
46446SOL     OW41169   2.084   3.563  13.605
46446SOL    HW141170   2.175   3.537  13.616
46446SOL    HW241171   2.062   3.608  13.687
46447SOL     OW41172   0.636   2.720   3.727
46447SOL    HW141173   0.662   2.677   3.808
46447SOL    HW241174   0.561   2.775   3.751
46448SOL     OW41175   7.355   4.650   4.296
46448SOL    HW141176   7.326   4.569   4.337
46448SOL    HW241177   7.442   4.666   4.333
46449SOL     OW41178   2.131   8.938   5.774
46449SOL    HW141179   2.130   8.843   5.765
46449SOL    HW241180   2.096   8.971   5.691
46450SOL     OW41181   8.583   7.170   2.241
46450SOL    HW141182   8.562   7.207   2.156
46450SOL    HW241183   8.555   7.079   2.235
46451SOL     OW41184   2.763  13.274   2.309
46451SOL    HW141185   2.727  13.266   2.397
46451SOL    HW241186   2.856  13.253   2.319
46452SOL     OW41187   6.609  10.464  10.576
46452SOL    HW141188   6.700  10.437  10.587
46452SOL    HW241189   6.599  10.474  10.481
46453SOL     OW41190   1.744   6.250   6.151
46453SOL    HW141191   1.657   6.226   6.120
46453SOL    HW241192   1.728   6.306   6.226
46454SOL     OW41193  14.513   9.116   8.589
46454SOL    HW141194  14.470   9.164   8.519
46454SOL    HW241195  14.444   9.061   8.626
46455SOL     OW41196   7.332   0.297   4.635
46455SOL    HW141197   7.411   0.346   4.659
46455SOL    HW241198   7.304   0.336   4.552
46456SOL     OW41199   9.999   3.109   4.374
46456SOL    HW141200  10.087   3.121   4.338
46456SOL    HW241201  10.006   3.034   4.432
46457SOL     OW41202   0.399  10.685   5.122
46457SOL    HW141203   0.315  10.700   5.078
46457SOL    HW241204   0.403  10.591   5.134
46458SOL     OW41205   4.317  12.960   1.025
46458SOL    HW141206   4.234  12.996   1.056
46458SOL    HW241207   4.317  12.977   0.931
46459SOL     OW41208   9.969   8.149  12.353
46459SOL    HW141209   9.903   8.161  12.421
46459SOL    HW241210   9.936   8.078  12.299
46460SOL     OW41211  13.518   5.849   9.402
46460SOL    HW141212  13.437   5.900   9.407
46460SOL    HW241213  13.576   5.903   9.347
46461SOL     OW41214   9.496  13.656   0.085
46461SOL    HW141215   9.570  13.716   0.094
46461SOL    HW241216   9.482  13.622   0.173
46462SOL     OW41217   7.937   8.947  13.217
46462SOL    HW141218   7.899   9.029  13.252
46462SOL    HW241219   8.030   8.966  13.209
46463SOL     OW41220   2.969   5.113   8.247
46463SOL    HW141221   3.055   5.151   8.265
46463SOL    HW241222   2.943   5.152   8.163
46464SOL     OW41223  10.532  14.167  14.536
46464SOL    HW141224  10.537  14.162  14.632
46464SOL    HW241225  10.577  14.088  14.506
46465SOL     OW41226  11.916   8.556  12.433
46465SOL    HW141227  11.902   8.647  12.461
46465SOL    HW241228  11.863   8.504  12.494
46466SOL     OW41229   6.036  14.549   3.927
46466SOL    HW141230   6.095  14.620   3.954
46466SOL    HW241231   5.949  14.588   3.934
46467SOL     OW41232  14.345  13.198  12.040
46467SOL    HW141233  14.355  13.105  12.020
46467SOL    HW241234  14.429  13.224  12.077
46468SOL     OW41235   4.125   9.441  10.435
46468SOL    HW141236   4.050   9.489  10.400
46468SOL    HW241237   4.122   9.456  10.530
46469SOL     OW41238  12.045   7.920   5.957
46469SOL    HW141239  12.008   7.975   5.888
46469SOL    HW241240  12.094   7.853   5.910
46470SOL     OW41241   5.720   2.491   7.203
46470SOL    HW141242   5.648   2.546   7.172
46470SOL    HW241243   5.797   2.548   7.201
46471SOL     OW41244   8.417   1.077   8.147
46471SOL    HW141245   8.362   1.034   8.081
46471SOL    HW241246   8.483   1.124   8.097
46472SOL     OW41247   6.551   3.997  14.197
46472SOL    HW141248   6.628   3.973  14.250
46472SOL    HW241249   6.586   4.004  14.108
46473SOL     OW41250  11.471   6.706   3.043
46473SOL    HW141251  11.429   6.744   3.120
46473SOL    HW241252  11.507   6.781   2.996
46474SOL     OW41253   3.807  11.634  12.752
46474SOL    HW141254   3.844  11.645  12.665
46474SOL    HW241255   3.736  11.570  12.740
46475SOL     OW41256   6.352   5.814   8.146
46475SOL    HW141257   6.417   5.860   8.094
46475SOL    HW241258   6.300   5.883   8.187
46476SOL     OW41259  10.541  13.142   4.990
46476SOL    HW141260  10.518  13.209   4.926
46476SOL    HW241261  10.460  13.092   5.004
46477SOL     OW41262  13.288   4.010  13.271
46477SOL    HW141263  13.255   4.050  13.190
46477SOL    HW241264  13.314   3.922  13.245
46478SOL     OW41265   9.187  10.887   7.716
46478SOL    HW141266   9.170  10.929   7.800
46478SOL    HW241267   9.259  10.826   7.734
46479SOL     OW41268  11.935   0.708  14.048
46479SOL    HW141269  11.987   0.788  14.039
46479SOL    HW241270  11.997   0.643  14.082
46480SOL     OW41271  14.616  13.167   1.027
46480SOL    HW141272  14.663  13.135   1.104
46480SOL    HW241273  14.677  13.155   0.955
46481SOL     OW41274  13.501   8.830   7.662
46481SOL    HW141275  13.530   8.888   7.591
46481SOL    HW241276  13.455   8.888   7.723
46482SOL     OW41277  11.316  14.400  13.078
46482SOL    HW141278  11.299  14.400  13.172
46482SOL    HW241279  11.245  14.453  13.041
46483SOL     OW41280  13.944  14.717   5.140
46483SOL    HW141281  13.859  14.728   5.098
46483SOL    HW241282  13.930  14.646   5.203
46484SOL     OW41283  11.290  12.051   7.843
46484SOL    HW141284  11.282  12.117   7.911
46484SOL    HW241285  11.235  11.978   7.874
46485SOL     OW41286  10.997  14.094   4.195
46485SOL    HW141287  11.016  14.160   4.128
46485SOL    HW241288  11.050  14.018   4.169
46486SOL     OW41289  11.883   0.789   7.475
46486SOL    HW141290  11.904   0.838   7.555
46486SOL    HW241291  11.944   0.823   7.410
46487SOL     OW41292   0.431  10.763   7.932
46487SOL    HW141293   0.431  10.859   7.923
46487SOL    HW241294   0.496  10.746   8.000
46488SOL     OW41295  14.697   4.201   4.764
46488SOL    HW141296  14.725   4.176   4.676
46488SOL    HW241297  14.643   4.279   4.752
46489SOL     OW41298   6.691   7.962  10.790
46489SOL    HW141299   6.755   7.978  10.720
46489SOL    HW241300   6.745   7.950  10.868
46490SOL     OW41301   9.944  14.694  10.018
46490SOL    HW141302   9.982  14.644   9.946
46490SOL    HW241303   9.855  14.659  10.027
46491SOL     OW41304  13.942   7.668   7.277
46491SOL    HW141305  14.033   7.654   7.250
46491SOL    HW241306  13.932   7.615   7.356
46492SOL     OW41307  14.352   9.784   8.213
46492SOL    HW141308  14.442   9.761   8.189
46492SOL    HW241309  14.339   9.742   8.298
46493SOL     OW41310   3.493   0.220   1.934
46493SOL    HW141311   3.538   0.178   1.861
46493SOL    HW241312   3.463   0.304   1.899
46494SOL     OW41313  14.679   4.198   1.538
46494SOL    HW141314  14.588   4.172   1.531
46494SOL    HW241315  14.677   4.293   1.543
46495SOL     OW41316   3.519   8.595   5.054
46495SOL    HW141317   3.594   8.635   5.097
46495SOL    HW241318   3.484   8.664   4.998
46496SOL     OW41319  14.743   5.888   5.659
46496SOL    HW141320  14.800   5.815   5.634
46496SOL    HW241321  14.714   5.867   5.747
46497SOL     OW41322   5.313   4.531   7.017
46497SOL    HW141323   5.341   4.482   7.095
46497SOL    HW241324   5.307   4.464   6.948
46498SOL     OW41325  13.545  13.301   9.440
46498SOL    HW141326  13.625  13.351   9.424
46498SOL    HW241327  13.511  13.281   9.353
46499SOL     OW41328   3.789  14.138   0.491
46499SOL    HW141329   3.754  14.219   0.528
46499SOL    HW241330   3.868  14.120   0.542
46500SOL     OW41331   3.653   3.738  12.623
46500SOL    HW141332   3.663   3.737  12.528
46500SOL    HW241333   3.647   3.646  12.648
46501SOL     OW41334  13.916   2.249   8.510
46501SOL    HW141335  13.958   2.334   8.499
46501SOL    HW241336  13.869   2.234   8.428
46502SOL     OW41337   4.806  12.102   1.105
46502SOL    HW141338   4.798  12.109   1.200
46502SOL    HW241339   4.858  12.178   1.079
46503SOL     OW41340   2.408   4.549   9.795
46503SOL    HW141341   2.314   4.545   9.814
46503SOL    HW241342   2.413   4.583   9.706
46504SOL     OW41343  13.735   3.929   6.602
46504SOL    HW141344  13.785   4.000   6.562
46504SOL    HW241345  13.672   3.972   6.659
46505SOL     OW41346   4.351   1.530   3.536
46505SOL    HW141347   4.369   1.600   3.598
46505SOL    HW241348   4.300   1.466   3.585
46506SOL     OW41349   7.997  13.080  12.791
46506SOL    HW141350   7.922  13.046  12.839
46506SOL    HW241351   7.971  13.169  12.764
46507SOL     OW41352   9.773  11.653  14.523
46507SOL    HW141353   9.779  11.568  14.566
46507SOL    HW241354   9.715  11.638  14.448
46508SOL     OW41355   4.115   3.331   8.244
46508SOL    HW141356   4.086   3.265   8.307
46508SOL    HW241357   4.104   3.288   8.159
46509SOL     OW41358   1.399   4.191   8.087
46509SOL    HW141359   1.401   4.258   8.155
46509SOL    HW241360   1.314   4.202   8.045
46510SOL     OW41361  14.046   9.328   0.537
46510SOL    HW141362  14.106   9.402   0.523
46510SOL    HW241363  13.959   9.367   0.537
46511SOL     OW41364   0.512   7.854   3.856
46511SOL    HW141365   0.449   7.786   3.880
46511SOL    HW241366   0.597   7.810   3.858
46512SOL     OW41367   2.034   2.042  12.524
46512SOL    HW141368   2.010   1.952  12.501
46512SOL    HW241369   1.964   2.096  12.486
46513SOL     OW41370   8.238  10.374  10.259
46513SOL    HW141371   8.327  10.342  10.267
46513SOL    HW241372   8.195  10.312  10.200
46514SOL     OW41373  10.839   9.438  13.928
46514SOL    HW141374  10.843   9.459  14.022
46514SOL    HW241375  10.794   9.353  13.925
46515SOL     OW41376   3.346   1.473   6.039
46515SOL    HW141377   3.310   1.544   5.986
46515SOL    HW241378   3.269   1.422   6.066
46516SOL     OW41379   2.011   1.117   0.908
46516SOL    HW141380   2.031   1.024   0.899
46516SOL    HW241381   1.984   1.144   0.820
46517SOL     OW41382   2.921   3.821   3.936
46517SOL    HW141383   2.984   3.846   4.004
46517SOL    HW241384   2.945   3.731   3.913
46518SOL     OW41385   7.896   4.966   5.900
46518SOL    HW141386   7.944   4.931   5.975
46518SOL    HW241387   7.855   4.889   5.860
46519SOL     OW41388  14.417  14.198   6.180
46519SOL    HW141389  14.362  14.252   6.237
46519SOL    HW241390  14.374  14.203   6.094
46520SOL     OW41391   7.079   5.242  14.408
46520SOL    HW141392   7.117   5.221  14.493
46520SOL    HW241393   7.092   5.337  14.399
46521SOL     OW41394  12.459   9.999  12.398
46521SOL    HW141395  12.397   9.960  12.336
46521SOL    HW241396  12.459   9.940  12.473
46522SOL     OW41397   3.351  11.313  12.640
46522SOL    HW141398   3.435  11.309  12.594
46522SOL    HW241399   3.349  11.233  12.692
46523SOL     OW41400   6.759  13.953   0.957
46523SOL    HW141401   6.719  13.959   0.870
46523SOL    HW241402   6.729  14.031   1.003
46524SOL     OW41403   2.435   2.403   2.094
46524SOL    HW141404   2.514   2.458   2.098
46524SOL    HW241405   2.379   2.437   2.164
46525SOL     OW41406   5.284   4.436  11.192
46525SOL    HW141407   5.242   4.420  11.277
46525SOL    HW241408   5.361   4.379  11.191
46526SOL     OW41409  11.132   8.009  12.716
46526SOL    HW141410  11.126   8.104  12.707
46526SOL    HW241411  11.226   7.991  12.713
46527SOL     OW41412   8.130   0.546   6.422
46527SOL    HW141413   8.069   0.514   6.355
46527SOL    HW241414   8.079   0.549   6.502
46528SOL     OW41415  12.212  10.447   8.413
46528SOL    HW141416  12.285  10.460   8.352
46528SOL    HW241417  12.220  10.516   8.477
46529SOL     OW41418   0.516   0.853  12.841
46529SOL    HW141419   0.432   0.898  12.849
46529SOL    HW241420   0.564   0.903  12.775
46530SOL     OW41421   2.780  12.420  10.313
46530SOL    HW141422   2.770  12.513  10.292
46530SOL    HW241423   2.875  12.405  10.310
46531SOL     OW41424   0.465  11.304   9.396
46531SOL    HW141425   0.530  11.361   9.355
46531SOL    HW241426   0.401  11.287   9.327
46532SOL     OW41427   1.415   2.705   8.771
46532SOL    HW141428   1.436   2.778   8.713
46532SOL    HW241429   1.325   2.722   8.799
46533SOL     OW41430   8.398  14.432   5.396
46533SOL    HW141431   8.413  14.518   5.434
46533SOL    HW241432   8.335  14.390   5.455
46534SOL     OW41433   5.954   0.433  12.132
46534SOL    HW141434   6.009   0.450  12.056
46534SOL    HW241435   6.012   0.387  12.193
46535SOL     OW41436  12.152   1.731   8.820
46535SOL    HW141437  12.243   1.733   8.789
46535SOL    HW241438  12.156   1.680   8.901
46536SOL     OW41439   3.642  12.836   5.099
46536SOL    HW141440   3.581  12.821   5.171
46536SOL    HW241441   3.587  12.854   5.023
46537SOL     OW41442   4.545   7.390   3.633
46537SOL    HW141443   4.608   7.318   3.638
46537SOL    HW241444   4.573   7.441   3.557
46538SOL     OW41445   3.194   7.010   0.249
46538SOL    HW141446   3.124   6.945   0.243
46538SOL    HW241447   3.269   6.961   0.284
46539SOL     OW41448   0.400  14.009   3.109
46539SOL    HW141449   0.370  13.922   3.083
46539SOL    HW241450   0.462  13.992   3.180
46540SOL     OW41451  13.585   0.634   7.960
46540SOL    HW141452  13.585   0.720   8.002
46540SOL    HW241453  13.576   0.572   8.033
46541SOL     OW41454   8.425   8.539   4.366
46541SOL    HW141455   8.471   8.476   4.310
46541SOL    HW241456   8.453   8.517   4.455
46542SOL     OW41457  10.820   5.295   7.900
46542SOL    HW141458  10.759   5.307   7.827
46542SOL    HW241459  10.879   5.370   7.894
46543SOL     OW41460  12.670   0.417  11.781
46543SOL    HW141461  12.597   0.377  11.827
46543SOL    HW241462  12.740   0.420  11.846
46544SOL     OW41463   2.262  10.661   7.642
46544SOL    HW141464   2.306  10.613   7.712
46544SOL    HW241465   2.233  10.742   7.682
46545SOL     OW41466   4.744   8.598   3.467
46545SOL    HW141467   4.779   8.509   3.470
46545SOL    HW241468   4.651   8.589   3.488
46546SOL     OW41469  12.766   9.741   9.112
46546SOL    HW141470  12.793   9.821   9.068
46546SOL    HW241471  12.705   9.699   9.051
46547SOL     OW41472   3.709  12.957   8.513
46547SOL    HW141473   3.756  12.876   8.498
46547SOL    HW241474   3.774  13.016   8.551
46548SOL     OW41475   2.684   1.125  14.286
46548SOL    HW141476   2.660   1.192  14.222
46548SOL    HW241477   2.779   1.132  14.294
46549SOL     OW41478   2.035   4.839   2.375
46549SOL    HW141479   1.960   4.828   2.316
46549SOL    HW241480   2.077   4.920   2.345
46550SOL     OW41481   9.206  12.543   1.955
46550SOL    HW141482   9.255  12.493   2.020
46550SOL    HW241483   9.271  12.601   1.915
46551SOL     OW41484   2.457   3.474   2.811
46551SOL    HW141485   2.409   3.391   2.807
46551SOL    HW241486   2.451   3.510   2.723
46552SOL     OW41487   7.362   2.629   6.195
46552SOL    HW141488   7.381   2.552   6.142
46552SOL    HW241489   7.446   2.656   6.230
46553SOL     OW41490   8.360   3.508   1.858
46553SOL    HW141491   8.355   3.416   1.883
46553SOL    HW241492   8.454   3.529   1.860
46554SOL     OW41493   1.837   5.649  12.363
46554SOL    HW141494   1.881   5.601  12.433
46554SOL    HW241495   1.744   5.639  12.382
46555SOL     OW41496  12.972   3.545  10.018
46555SOL    HW141497  12.884   3.580  10.008
46555SOL    HW241498  12.969   3.495  10.099
46556SOL     OW41499   9.935   1.294  14.733
46556SOL    HW141500   9.994   1.244  14.789
46556SOL    HW241501   9.992   1.331  14.666
46557SOL     OW41502   2.793   3.793   3.517
46557SOL    HW141503   2.743   3.869   3.547
46557SOL    HW241504   2.771   3.724   3.579
46558SOL     OW41505   8.700   5.955   5.380
46558SOL    HW141506   8.707   5.964   5.475
46558SOL    HW241507   8.742   5.872   5.360
46559SOL     OW41508   3.625   1.453   6.531
46559SOL    HW141509   3.711   1.495   6.522
46559SOL    HW241510   3.641   1.362   6.507
46560SOL     OW41511   7.061   8.298  14.838
46560SOL    HW141512   7.141   8.297  14.785
46560SOL    HW241513   6.997   8.250  14.785
46561SOL     OW41514  14.261   5.425  11.303
46561SOL    HW141515  14.293   5.433  11.214
46561SOL    HW241516  14.193   5.358  11.299
46562SOL     OW41517   3.721   4.692   5.450
46562SOL    HW141518   3.800   4.737   5.479
46562SOL    HW241519   3.649   4.742   5.490
46563SOL     OW41520  13.390   4.495   8.748
46563SOL    HW141521  13.303   4.535   8.745
46563SOL    HW241522  13.379   4.418   8.804
46564SOL     OW41523   1.906   9.001   7.024
46564SOL    HW141524   1.954   8.966   7.098
46564SOL    HW241525   1.957   8.974   6.947
46565SOL     OW41526   0.197   4.085  11.352
46565SOL    HW141527   0.157   4.002  11.324
46565SOL    HW241528   0.175   4.093  11.444
46566SOL     OW41529   4.947   2.396   5.862
46566SOL    HW141530   5.010   2.420   5.930
46566SOL    HW241531   4.926   2.480   5.820
46567SOL     OW41532  12.267   1.919  11.004
46567SOL    HW141533  12.334   1.947  11.067
46567SOL    HW241534  12.276   1.824  11.002
46568SOL     OW41535   0.532   3.459  11.127
46568SOL    HW141536   0.493   3.438  11.212
46568SOL    HW241537   0.611   3.405  11.123
46569SOL     OW41538   9.227   5.277  11.791
46569SOL    HW141539   9.280   5.279  11.871
46569SOL    HW241540   9.229   5.186  11.763
46570SOL     OW41541   5.374  13.613   2.056
46570SOL    HW141542   5.311  13.606   1.984
46570SOL    HW241543   5.387  13.707   2.068
46571SOL     OW41544   8.327   8.925   4.768
46571SOL    HW141545   8.254   8.986   4.764
46571SOL    HW241546   8.325   8.890   4.857
46572SOL     OW41547   6.557   5.491   1.278
46572SOL    HW141548   6.573   5.567   1.334
46572SOL    HW241549   6.642   5.470   1.240
46573SOL     OW41550  11.954   4.317  13.622
46573SOL    HW141551  11.883   4.344  13.680
46573SOL    HW241552  12.031   4.363  13.656
46574SOL     OW41553  14.038   3.815   9.035
46574SOL    HW141554  14.046   3.724   9.009
46574SOL    HW241555  14.042   3.864   8.952
46575SOL     OW41556   7.430  14.591   2.391
46575SOL    HW141557   7.391  14.648   2.324
46575SOL    HW241558   7.361  14.526   2.409
46576SOL     OW41559   8.050   0.312  11.762
46576SOL    HW141560   8.084   0.401  11.767
46576SOL    HW241561   7.959   0.319  11.791
46577SOL     OW41562   0.577  14.642   2.509
46577SOL    HW141563   0.633  14.670   2.581
46577SOL    HW241564   0.528  14.721   2.485
46578SOL     OW41565   4.338  13.278  10.337
46578SOL    HW141566   4.399  13.306  10.268
46578SOL    HW241567   4.318  13.187  10.316
46579SOL     OW41568   9.555   2.547   9.704
46579SOL    HW141569   9.617   2.508   9.642
46579SOL    HW241570   9.487   2.586   9.649
46580SOL     OW41571   2.600   6.685  10.596
46580SOL    HW141572   2.572   6.766  10.639
46580SOL    HW241573   2.688   6.670  10.630
46581SOL     OW41574   3.226   5.582   7.611
46581SOL    HW141575   3.231   5.676   7.626
46581SOL    HW241576   3.133   5.562   7.614
46582SOL     OW41577  14.367   6.458  13.747
46582SOL    HW141578  14.416   6.493  13.672
46582SOL    HW241579  14.308   6.529  13.772
46583SOL     OW41580   3.415   4.088   3.870
46583SOL    HW141581   3.368   4.075   3.953
46583SOL    HW241582   3.456   4.174   3.880
46584SOL     OW41583   6.957   6.807   6.438
46584SOL    HW141584   6.973   6.726   6.485
46584SOL    HW241585   6.862   6.816   6.436
46585SOL     OW41586  12.476  11.625   8.672
46585SOL    HW141587  12.488  11.616   8.766
46585SOL    HW241588  12.560  11.598   8.634
46586SOL     OW41589   3.993   7.213  14.571
46586SOL    HW141590   4.079   7.251  14.591
46586SOL    HW241591   3.985   7.141  14.633
46587SOL     OW41592   6.075  12.327   5.046
46587SOL    HW141593   6.062  12.383   5.122
46587SOL    HW241594   6.136  12.260   5.074
46588SOL     OW41595   6.619   5.239   1.916
46588SOL    HW141596   6.548   5.212   1.974
46588SOL    HW241597   6.657   5.156   1.886
46589SOL     OW41598  10.768  13.668   7.111
46589SOL    HW141599  10.778  13.729   7.184
46589SOL    HW241600  10.710  13.600   7.144
46590SOL     OW41601   2.209   6.403   5.176
46590SOL    HW141602   2.157   6.372   5.250
46590SOL    HW241603   2.153   6.387   5.100
46591SOL     OW41604  14.669  14.095   6.301
46591SOL    HW141605  14.597  14.083   6.238
46591SOL    HW241606  14.720  14.167   6.265
46592SOL     OW41607   9.872   2.022  10.468
46592SOL    HW141608   9.883   2.108  10.426
46592SOL    HW241609   9.922   1.962  10.412
46593SOL     OW41610   8.132  12.041   2.454
46593SOL    HW141611   8.127  12.040   2.359
46593SOL    HW241612   8.217  12.082   2.473
46594SOL     OW41613  14.718   2.341   7.254
46594SOL    HW141614  14.806   2.315   7.225
46594SOL    HW241615  14.733   2.418   7.308
46595SOL     OW41616  14.799   7.752  13.053
46595SOL    HW141617  14.855   7.801  13.113
46595SOL    HW241618  14.712   7.790  13.065
46596SOL     OW41619  12.050  11.830   2.835
46596SOL    HW141620  12.020  11.916   2.806
46596SOL    HW241621  12.136  11.820   2.795
46597SOL     OW41622   8.756  12.782   4.454
46597SOL    HW141623   8.767  12.872   4.425
46597SOL    HW241624   8.782  12.729   4.378
46598SOL     OW41625  10.728  13.840   8.505
46598SOL    HW141626  10.773  13.768   8.459
46598SOL    HW241627  10.660  13.868   8.444
46599SOL     OW41628   3.415   4.147  11.982
46599SOL    HW141629   3.363   4.128  11.904
46599SOL    HW241630   3.408   4.242  11.993
46600SOL     OW41631   0.993   0.523   5.504
46600SOL    HW141632   0.969   0.614   5.490
46600SOL    HW241633   0.909   0.476   5.505
46601SOL     OW41634   8.693  12.811   1.250
46601SOL    HW141635   8.653  12.796   1.164
46601SOL    HW241636   8.694  12.907   1.259
46602SOL     OW41637   6.975   2.890   5.823
46602SOL    HW141638   7.063   2.863   5.848
46602SOL    HW241639   6.919   2.818   5.852
46603SOL     OW41640  14.076   4.812   9.080
46603SOL    HW141641  14.012   4.756   9.036
46603SOL    HW241642  14.150   4.816   9.020
46604SOL     OW41643   6.243  13.348   9.227
46604SOL    HW141644   6.184  13.364   9.300
46604SOL    HW241645   6.328  13.329   9.268
46605SOL     OW41646   7.141   6.026   5.189
46605SOL    HW141647   7.186   5.953   5.147
46605SOL    HW241648   7.049   6.001   5.190
46606SOL     OW41649   3.926   2.026   9.147
46606SOL    HW141650   3.965   1.995   9.229
46606SOL    HW241651   3.924   2.121   9.155
46607SOL     OW41652   6.297   6.709   0.928
46607SOL    HW141653   6.258   6.721   0.841
46607SOL    HW241654   6.222   6.704   0.988
46608SOL     OW41655   5.676   6.332   1.954
46608SOL    HW141656   5.720   6.253   1.985
46608SOL    HW241657   5.583   6.310   1.958
46609SOL     OW41658  13.715   0.327   6.314
46609SOL    HW141659  13.751   0.259   6.370
46609SOL    HW241660  13.657   0.377   6.371
46610SOL     OW41661   8.519   4.454   0.397
46610SOL    HW141662   8.582   4.504   0.449
46610SOL    HW241663   8.571   4.384   0.357
46611SOL     OW41664   9.058   7.334   7.428
46611SOL    HW141665   8.983   7.361   7.482
46611SOL    HW241666   9.045   7.378   7.345
46612SOL     OW41667   8.530   1.845   9.824
46612SOL    HW141668   8.591   1.900   9.775
46612SOL    HW241669   8.475   1.907   9.873
46613SOL     OW41670   0.674   4.513   1.669
46613SOL    HW141671   0.620   4.451   1.620
46613SOL    HW241672   0.618   4.589   1.682
46614SOL     OW41673   3.089  12.156  14.650
46614SOL    HW141674   3.150  12.093  14.612
46614SOL    HW241675   3.120  12.242  14.619
46615SOL     OW41676   9.027   6.647   6.577
46615SOL    HW141677   8.951   6.600   6.612
46615SOL    HW241678   9.058   6.701   6.649
46616SOL     OW41679   5.232   4.306   9.152
46616SOL    HW141680   5.189   4.383   9.114
46616SOL    HW241681   5.304   4.342   9.204
46617SOL     OW41682   0.933   9.237   7.318
46617SOL    HW141683   0.936   9.315   7.262
46617SOL    HW241684   0.863   9.254   7.381
46618SOL     OW41685   0.345   2.807  10.237
46618SOL    HW141686   0.440   2.814  10.243
46618SOL    HW241687   0.329   2.726  10.189
46619SOL     OW41688   6.539  13.636   8.565
46619SOL    HW141689   6.507  13.648   8.654
46619SOL    HW241690   6.463  13.602   8.517
46620SOL     OW41691   3.882   7.640   3.185
46620SOL    HW141692   3.790   7.649   3.213
46620SOL    HW241693   3.918   7.728   3.192
46621SOL     OW41694  12.537   1.791   3.613
46621SOL    HW141695  12.533   1.880   3.576
46621SOL    HW241696  12.446   1.764   3.622
46622SOL     OW41697  12.913   8.770  12.836
46622SOL    HW141698  13.003   8.750  12.862
46622SOL    HW241699  12.878   8.824  12.907
46623SOL     OW41700   3.041  14.757   3.615
46623SOL    HW141701   3.020  14.829   3.674
46623SOL    HW241702   3.104  14.794   3.553
46624SOL     OW41703   8.259  13.902   7.596
46624SOL    HW141704   8.343  13.856   7.594
46624SOL    HW241705   8.222  13.887   7.509
46625SOL     OW41706  11.692   6.050   8.500
46625SOL    HW141707  11.680   5.962   8.464
46625SOL    HW241708  11.787   6.060   8.506
46626SOL     OW41709   7.770   2.025  14.386
46626SOL    HW141710   7.800   2.008  14.297
46626SOL    HW241711   7.694   1.967  14.397
46627SOL     OW41712   0.314   4.307  13.275
46627SOL    HW141713   0.274   4.235  13.228
46627SOL    HW241714   0.374   4.266  13.336
46628SOL     OW41715   2.345   5.587  13.078
46628SOL    HW141716   2.309   5.544  13.000
46628SOL    HW241717   2.431   5.618  13.051
46629SOL     OW41718   0.432   7.565   8.893
46629SOL    HW141719   0.442   7.474   8.922
46629SOL    HW241720   0.342   7.571   8.861
46630SOL     OW41721   8.997   4.955   0.900
46630SOL    HW141722   8.940   4.933   0.974
46630SOL    HW241723   9.041   5.036   0.926
46631SOL     OW41724   6.326  13.961  11.213
46631SOL    HW141725   6.282  14.031  11.165
46631SOL    HW241726   6.382  13.919  11.149
46632SOL     OW41727   1.593   7.846   3.611
46632SOL    HW141728   1.560   7.883   3.693
46632SOL    HW241729   1.640   7.767   3.637
46633SOL     OW41730  14.105  11.504   1.079
46633SOL    HW141731  14.124  11.560   1.004
46633SOL    HW241732  14.024  11.458   1.056
46634SOL     OW41733  13.236   1.120  11.338
46634SOL    HW141734  13.241   1.099  11.431
46634SOL    HW241735  13.281   1.203  11.328
46635SOL     OW41736   6.404   1.443  14.587
46635SOL    HW141737   6.476   1.469  14.530
46635SOL    HW241738   6.419   1.492  14.668
46636SOL     OW41739  11.991  12.639   6.782
46636SOL    HW141740  11.981  12.590   6.864
46636SOL    HW241741  11.901  12.657   6.755
46637SOL     OW41742   3.901  12.830   6.307
46637SOL    HW141743   3.896  12.862   6.397
46637SOL    HW241744   3.843  12.754   6.306
46638SOL     OW41745   4.810   1.083  13.027
46638SOL    HW141746   4.718   1.072  13.053
46638SOL    HW241747   4.860   1.055  13.103
46639SOL     OW41748   9.041   8.002  12.566
46639SOL    HW141749   9.040   8.022  12.660
46639SOL    HW241750   9.062   8.085  12.524
46640SOL     OW41751   9.060   4.109   6.152
46640SOL    HW141752   9.149   4.113   6.188
46640SOL    HW241753   9.057   4.179   6.087
46641SOL     OW41754   4.537   3.800   2.673
46641SOL    HW141755   4.498   3.887   2.678
46641SOL    HW241756   4.476   3.743   2.719
46642SOL     OW41757   4.632   1.675   4.051
46642SOL    HW141758   4.696   1.745   4.053
46642SOL    HW241759   4.681   1.598   4.022
46643SOL     OW41760   7.486   2.315  13.850
46643SOL    HW141761   7.409   2.360  13.813
46643SOL    HW241762   7.507   2.365  13.928
46644SOL     OW41763   6.617   2.719   8.518
46644SOL    HW141764   6.698   2.673   8.539
46644SOL    HW241765   6.564   2.713   8.598
46645SOL     OW41766  11.634  10.234   3.649
46645SOL    HW141767  11.546  10.233   3.686
46645SOL    HW241768  11.664  10.324   3.662
46646SOL     OW41769  10.881   1.860   8.323
46646SOL    HW141770  10.805   1.895   8.370
46646SOL    HW241771  10.876   1.765   8.335
46647SOL     OW41772   6.241   8.461   1.244
46647SOL    HW141773   6.257   8.548   1.279
46647SOL    HW241774   6.253   8.470   1.149
46648SOL     OW41775   9.428   4.896   4.724
46648SOL    HW141776   9.409   4.904   4.630
46648SOL    HW241777   9.355   4.844   4.758
46649SOL     OW41778  10.172   4.325   2.379
46649SOL    HW141779  10.268   4.328   2.384
46649SOL    HW241780  10.145   4.284   2.461
46650SOL     OW41781  12.833  11.918   4.331
46650SOL    HW141782  12.886  11.973   4.389
46650SOL    HW241783  12.765  11.881   4.387
46651SOL     OW41784   0.637   3.696  14.410
46651SOL    HW141785   0.586   3.719  14.488
46651SOL    HW241786   0.621   3.602  14.398
46652SOL     OW41787   1.498   7.656  10.342
46652SOL    HW141788   1.474   7.714  10.414
46652SOL    HW241789   1.581   7.618  10.369
46653SOL     OW41790   8.450   8.231   1.243
46653SOL    HW141791   8.500   8.287   1.184
46653SOL    HW241792   8.375   8.284   1.269
46654SOL     OW41793  14.846   7.703  12.774
46654SOL    HW141794  14.844   7.718  12.869
46654SOL    HW241795  14.779   7.636  12.759
46655SOL     OW41796  13.040  13.235  11.801
46655SOL    HW141797  13.047  13.239  11.706
46655SOL    HW241798  13.085  13.314  11.832
46656SOL     OW41799   2.997  12.427   2.096
46656SOL    HW141800   2.910  12.433   2.136
46656SOL    HW241801   3.057  12.418   2.171
46657SOL     OW41802   7.053   9.266   6.489
46657SOL    HW141803   7.116   9.330   6.458
46657SOL    HW241804   6.983   9.318   6.529
46658SOL     OW41805   4.443   9.350   2.400
46658SOL    HW141806   4.452   9.285   2.470
46658SOL    HW241807   4.490   9.427   2.432
46659SOL     OW41808  13.127  10.153   7.077
46659SOL    HW141809  13.064  10.087   7.046
46659SOL    HW241810  13.113  10.228   7.019
46660SOL     OW41811  13.417   9.317  13.199
46660SOL    HW141812  13.356   9.266  13.250
46660SOL    HW241813  13.474   9.252  13.157
46661SOL     OW41814   1.970   4.455   1.536
46661SOL    HW141815   1.943   4.379   1.587
46661SOL    HW241816   2.005   4.418   1.455
46662SOL     OW41817   8.456   8.769   7.380
46662SOL    HW141818   8.468   8.861   7.406
46662SOL    HW241819   8.381   8.739   7.432
46663SOL     OW41820   6.179   8.101   5.706
46663SOL    HW141821   6.245   8.094   5.774
46663SOL    HW241822   6.228   8.095   5.624
46664SOL     OW41823   3.898   3.338   0.772
46664SOL    HW141824   3.990   3.364   0.783
46664SOL    HW241825   3.874   3.370   0.685
46665SOL     OW41826   3.528   9.845   9.041
46665SOL    HW141827   3.610   9.850   8.991
46665SOL    HW241828   3.493   9.758   9.021
46666SOL     OW41829   0.345   1.480  12.759
46666SOL    HW141830   0.428   1.450  12.721
46666SOL    HW241831   0.363   1.489  12.852
46667SOL     OW41832   2.456  11.043   6.401
46667SOL    HW141833   2.403  11.006   6.329
46667SOL    HW241834   2.399  11.037   6.477
46668SOL     OW41835   6.490   6.038   7.231
46668SOL    HW141836   6.582   6.041   7.257
46668SOL    HW241837   6.490   5.990   7.148
46669SOL     OW41838  12.834   1.871  14.107
46669SOL    HW141839  12.929   1.859  14.109
46669SOL    HW241840  12.821   1.943  14.045
46670SOL     OW41841   8.137  11.763   5.250
46670SOL    HW141842   8.232  11.759   5.260
46670SOL    HW241843   8.116  11.856   5.253
46671SOL     OW41844   2.876   9.200   5.550
46671SOL    HW141845   2.820   9.185   5.626
46671SOL    HW241846   2.965   9.190   5.583
46672SOL     OW41847   3.583  13.029  11.524
46672SOL    HW141848   3.629  13.104  11.561
46672SOL    HW241849   3.530  13.066  11.453
46673SOL     OW41850   4.366   6.387  11.917
46673SOL    HW141851   4.281   6.418  11.948
46673SOL    HW241852   4.386   6.442  11.842
46674SOL     OW41853  14.235   5.617   1.609
46674SOL    HW141854  14.202   5.681   1.546
46674SOL    HW241855  14.189   5.536   1.587
46675SOL     OW41856  10.769   8.116   0.361
46675SOL    HW141857  10.685   8.071   0.360
46675SOL    HW241858  10.755   8.191   0.419
46676SOL     OW41859  13.837   8.949  10.274
46676SOL    HW141860  13.778   8.974  10.202
46676SOL    HW241861  13.828   8.854  10.280
46677SOL     OW41862   9.973   6.385   4.840
46677SOL    HW141863   9.904   6.398   4.775
46677SOL    HW241864  10.030   6.319   4.802
46678SOL     OW41865   4.676  12.360  14.143
46678SOL    HW141866   4.659  12.396  14.056
46678SOL    HW241867   4.624  12.280  14.147
46679SOL     OW41868   1.739  12.476   0.583
46679SOL    HW141869   1.768  12.464   0.493
46679SOL    HW241870   1.678  12.405   0.600
46680SOL     OW41871   6.262   2.183   6.328
46680SOL    HW141872   6.324   2.235   6.277
46680SOL    HW241873   6.206   2.141   6.263
46681SOL     OW41874  14.415   3.479  11.077
46681SOL    HW141875  14.361   3.549  11.114
46681SOL    HW241876  14.420   3.500  10.983
46682SOL     OW41877  13.410   0.240   7.791
46682SOL    HW141878  13.439   0.257   7.701
46682SOL    HW241879  13.346   0.309   7.809
46683SOL     OW41880   5.033   4.303  10.199
46683SOL    HW141881   5.114   4.252  10.202
46683SOL    HW241882   4.982   4.261  10.130
46684SOL     OW41883   1.961   4.573  10.713
46684SOL    HW141884   1.905   4.536  10.645
46684SOL    HW241885   1.904   4.634  10.760
46685SOL     OW41886  13.034   8.358   9.269
46685SOL    HW141887  13.022   8.264   9.254
46685SOL    HW241888  13.104   8.363   9.334
46686SOL     OW41889   2.656  14.654  10.384
46686SOL    HW141890   2.612  14.725  10.432
46686SOL    HW241891   2.674  14.692  10.298
46687SOL     OW41892  12.361   5.217   3.083
46687SOL    HW141893  12.381   5.310   3.092
46687SOL    HW241894  12.442   5.178   3.052
46688SOL     OW41895   9.655   7.869  12.856
46688SOL    HW141896   9.562   7.888  12.851
46688SOL    HW241897   9.681   7.853  12.766
46689SOL     OW41898   2.008   2.788  12.499
46689SOL    HW141899   1.992   2.700  12.535
46689SOL    HW241900   1.972   2.784  12.411
46690SOL     OW41901  12.879  13.655  10.312
46690SOL    HW141902  12.912  13.619  10.230
46690SOL    HW241903  12.785  13.640  10.309
46691SOL     OW41904   2.606   0.424   7.620
46691SOL    HW141905   2.623   0.420   7.526
46691SOL    HW241906   2.590   0.333   7.645
46692SOL     OW41907   0.462  12.801  11.693
46692SOL    HW141908   0.399  12.731  11.714
46692SOL    HW241909   0.547  12.758  11.694
46693SOL     OW41910   8.628  11.860   3.661
46693SOL    HW141911   8.573  11.852   3.739
46693SOL    HW241912   8.642  11.770   3.633
46694SOL     OW41913  13.056   4.345   1.907
46694SOL    HW141914  13.009   4.293   1.842
46694SOL    HW241915  12.991   4.410   1.936
46695SOL     OW41916   8.170   8.351  12.600
46695SOL    HW141917   8.129   8.315  12.679
46695SOL    HW241918   8.098   8.391  12.552
46696SOL     OW41919   3.982   0.196   2.968
46696SOL    HW141920   3.985   0.102   2.982
46696SOL    HW241921   3.926   0.229   3.038
46697SOL     OW41922   2.129   9.425   1.254
46697SOL    HW141923   2.113   9.352   1.194
46697SOL    HW241924   2.161   9.495   1.199
46698SOL     OW41925   5.835   3.131  12.221
46698SOL    HW141926   5.776   3.058  12.201
46698SOL    HW241927   5.792   3.207  12.181
46699SOL     OW41928  12.372   8.084   2.066
46699SOL    HW141929  12.301   8.096   2.004
46699SOL    HW241930  12.329   8.074   2.151
46700SOL     OW41931   0.612  13.889   7.015
46700SOL    HW141932   0.689  13.940   6.991
46700SOL    HW241933   0.540  13.952   7.018
46701SOL     OW41934  13.719   2.664   6.412
46701SOL    HW141935  13.753   2.753   6.406
46701SOL    HW241936  13.723   2.630   6.323
46702SOL     OW41937   1.142  10.402   0.577
46702SOL    HW141938   1.198  10.325   0.582
46702SOL    HW241939   1.056  10.372   0.607
46703SOL     OW41940   9.080   7.514   2.742
46703SOL    HW141941   9.001   7.520   2.688
46703SOL    HW241942   9.150   7.489   2.681
46704SOL     OW41943  11.614   8.380  11.715
46704SOL    HW141944  11.575   8.371  11.628
46704SOL    HW241945  11.670   8.457  11.710
46705SOL     OW41946   8.346   9.408   7.851
46705SOL    HW141947   8.417   9.444   7.904
46705SOL    HW241948   8.293   9.358   7.914
46706SOL     OW41949  14.834   9.701   2.883
46706SOL    HW141950  14.745   9.732   2.904
46706SOL    HW241951   0.016   9.734   2.955
46707SOL     OW41952   6.735  12.349  13.652
46707SOL    HW141953   6.759  12.312  13.568
46707SOL    HW241954   6.639  12.356  13.649
46708SOL     OW41955   7.548  11.496  13.469
46708SOL    HW141956   7.486  11.424  13.482
46708SOL    HW241957   7.606  11.466  13.399
46709SOL     OW41958  13.706   5.557   1.261
46709SOL    HW141959  13.698   5.649   1.283
46709SOL    HW241960  13.767   5.555   1.187
46710SOL     OW41961  12.919  12.631  14.664
46710SOL    HW141962  12.841  12.655  14.713
46710SOL    HW241963  12.899  12.546  14.626
46711SOL     OW41964  14.516   8.612   9.586
46711SOL    HW141965  14.603   8.648   9.570
46711SOL    HW241966  14.514   8.530   9.536
46712SOL     OW41967  10.491  13.277   5.667
46712SOL    HW141968  10.404  13.280   5.705
46712SOL    HW241969  10.520  13.187   5.682
46713SOL     OW41970  14.563   2.539  11.913
46713SOL    HW141971  14.546   2.555  11.821
46713SOL    HW241972  14.642   2.590  11.933
46714SOL     OW41973  11.305   6.118   8.788
46714SOL    HW141974  11.245   6.096   8.717
46714SOL    HW241975  11.257   6.097   8.868
46715SOL     OW41976  14.214  12.059  13.067
46715SOL    HW141977  14.303  12.036  13.041
46715SOL    HW241978  14.202  12.016  13.152
46716SOL     OW41979   4.565  14.670   9.534
46716SOL    HW141980   4.623  14.625   9.595
46716SOL    HW241981   4.560  14.760   9.566
46717SOL     OW41982   9.120   1.211  14.012
46717SOL    HW141983   9.169   1.159  14.075
46717SOL    HW241984   9.177   1.214  13.935
46718SOL     OW41985   9.108   6.001   1.578
46718SOL    HW141986   9.124   5.917   1.621
46718SOL    HW241987   9.039   6.042   1.631
46719SOL     OW41988   2.523  12.216   4.281
46719SOL    HW141989   2.437  12.257   4.289
46719SOL    HW241990   2.554  12.208   4.371
46720SOL     OW41991  12.564  12.820  11.413
46720SOL    HW141992  12.481  12.866  11.398
46720SOL    HW241993  12.592  12.850  11.500
46721SOL     OW41994   2.053  12.284  13.402
46721SOL    HW141995   1.976  12.316  13.449
46721SOL    HW241996   2.034  12.191  13.385
46722SOL     OW41997   2.499   8.133   2.991
46722SOL    HW141998   2.544   8.128   2.907
46722SOL    HW241999   2.552   8.192   3.044
46723SOL     OW42000  12.316   5.023  11.767
46723SOL    HW142001  12.382   4.954  11.770
46723SOL    HW242002  12.324   5.061  11.679
46724SOL     OW42003  13.328   1.643   1.396
46724SOL    HW142004  13.395   1.665   1.460
46724SOL    HW242005  13.272   1.580   1.441
46725SOL     OW42006  10.351  12.373  11.737
46725SOL    HW142007  10.390  12.286  11.729
46725SOL    HW242008  10.423  12.433  11.718
46726SOL     OW42009  10.100   7.320  14.481
46726SOL    HW142010  10.100   7.224  14.474
46726SOL    HW242011  10.061   7.350  14.399
46727SOL     OW42012   8.083  14.234   8.146
46727SOL    HW142013   8.041  14.167   8.092
46727SOL    HW242014   8.098  14.307   8.086
46728SOL     OW42015   4.873   9.868   4.640
46728SOL    HW142016   4.942   9.886   4.705
46728SOL    HW242017   4.802   9.928   4.665
46729SOL     OW42018   0.401  12.342  11.538
46729SOL    HW142019   0.342  12.408  11.502
46729SOL    HW242020   0.349  12.262  11.541
46730SOL     OW42021  10.967  12.660   3.404
46730SOL    HW142022  10.906  12.603   3.451
46730SOL    HW242023  11.036  12.678   3.468
46731SOL     OW42024   2.996   9.870  14.777
46731SOL    HW142025   3.054   9.924  14.830
46731SOL    HW242026   2.908   9.896  14.803
46732SOL     OW42027   1.022   4.272  10.496
46732SOL    HW142028   1.099   4.327  10.487
46732SOL    HW242029   1.056   4.184  10.514
46733SOL     OW42030  12.959   7.802   1.395
46733SOL    HW142031  13.047   7.813   1.359
46733SOL    HW242032  12.901   7.829   1.324
46734SOL     OW42033  13.152  14.599   6.583
46734SOL    HW142034  13.153  14.695   6.580
46734SOL    HW242035  13.089  14.578   6.652
46735SOL     OW42036   6.992   7.826   6.820
46735SOL    HW142037   6.996   7.885   6.895
46735SOL    HW242038   7.041   7.872   6.751
46736SOL     OW42039  11.203   7.390   6.304
46736SOL    HW142040  11.123   7.442   6.319
46736SOL    HW242041  11.273   7.455   6.306
46737SOL     OW42042   4.013   9.662   8.914
46737SOL    HW142043   4.094   9.671   8.966
46737SOL    HW242044   3.954   9.728   8.950
46738SOL     OW42045  13.965  10.662   3.525
46738SOL    HW142046  13.923  10.679   3.441
46738SOL    HW242047  14.054  10.635   3.502
46739SOL     OW42048   4.946   3.920  13.860
46739SOL    HW142049   5.026   3.971  13.871
46739SOL    HW242050   4.875   3.982  13.878
46740SOL     OW42051  13.739   6.180  14.479
46740SOL    HW142052  13.753   6.228  14.561
46740SOL    HW242053  13.735   6.088  14.505
46741SOL     OW42054   4.290   3.091   2.818
46741SOL    HW142055   4.366   3.047   2.779
46741SOL    HW242056   4.215   3.040   2.787
46742SOL     OW42057   5.549   3.454   4.780
46742SOL    HW142058   5.550   3.525   4.716
46742SOL    HW242059   5.475   3.399   4.755
46743SOL     OW42060   9.257   1.351   2.536
46743SOL    HW142061   9.253   1.266   2.580
46743SOL    HW242062   9.327   1.399   2.583
46744SOL     OW42063  14.432  10.087  12.437
46744SOL    HW142064  14.339  10.106  12.429
46744SOL    HW242065  14.443  10.001  12.396
46745SOL     OW42066  11.232  14.023  10.419
46745SOL    HW142067  11.323  14.005  10.445
46745SOL    HW242068  11.180  13.963  10.472
46746SOL     OW42069   0.460   5.458   0.556
46746SOL    HW142070   0.531   5.466   0.621
46746SOL    HW242071   0.384   5.495   0.600
46747SOL     OW42072   3.095   0.438   6.209
46747SOL    HW142073   3.034   0.374   6.244
46747SOL    HW242074   3.040   0.506   6.171
46748SOL     OW42075   7.253  11.382   4.763
46748SOL    HW142076   7.174  11.407   4.715
46748SOL    HW242077   7.250  11.433   4.843
46749SOL     OW42078   5.180   2.412   9.908
46749SOL    HW142079   5.257   2.460   9.876
46749SOL    HW242080   5.214   2.353   9.974
46750SOL     OW42081   9.333  11.209   6.087
46750SOL    HW142082   9.410  11.169   6.126
46750SOL    HW242083   9.365  11.288   6.044
46751SOL     OW42084   1.418   3.839  13.244
46751SOL    HW142085   1.470   3.771  13.203
46751SOL    HW242086   1.430   3.916  13.188
46752SOL     OW42087   8.574   1.058   8.396
46752SOL    HW142088   8.620   0.979   8.371
46752SOL    HW242089   8.561   1.106   8.314
46753SOL     OW42090   6.492   2.865  12.346
46753SOL    HW142091   6.516   2.930  12.412
46753SOL    HW242092   6.574   2.843  12.303
46754SOL     OW42093  14.374   0.867   9.769
46754SOL    HW142094  14.388   0.960   9.750
46754SOL    HW242095  14.412   0.821   9.694
46755SOL     OW42096   8.306  13.885   7.994
46755SOL    HW142097   8.307  13.912   8.086
46755SOL    HW242098   8.255  13.953   7.950
46756SOL     OW42099   2.260  13.967   1.285
46756SOL    HW142100   2.240  13.879   1.253
46756SOL    HW242101   2.332  13.997   1.228
46757SOL     OW42102   4.617   2.038  14.256
46757SOL    HW142103   4.531   1.997  14.248
46757SOL    HW242104   4.645   2.054  14.166
46758SOL     OW42105   8.749   5.993   5.660
46758SOL    HW142106   8.764   5.972   5.752
46758SOL    HW242107   8.836   5.995   5.621
46759SOL     OW42108  13.700   5.161  10.392
46759SOL    HW142109  13.794   5.176  10.399
46759SOL    HW242110  13.679   5.184  10.302
46760SOL     OW42111  13.406  12.919  12.954
46760SOL    HW142112  13.318  12.952  12.935
46760SOL    HW242113  13.452  12.994  12.992
46761SOL     OW42114   2.526   9.353   0.752
46761SOL    HW142115   2.619   9.372   0.763
46761SOL    HW242116   2.506   9.384   0.663
46762SOL     OW42117   8.863   0.711  11.042
46762SOL    HW142118   8.797   0.743  10.980
46762SOL    HW242119   8.818   0.645  11.094
46763SOL     OW42120  10.020   0.741   9.640
46763SOL    HW142121   9.989   0.799   9.571
46763SOL    HW242122   9.945   0.685   9.660
46764SOL     OW42123   5.204   0.153   3.899
46764SOL    HW142124   5.196   0.058   3.886
46764SOL    HW242125   5.115   0.186   3.887
46765SOL     OW42126   1.953  11.277   3.119
46765SOL    HW142127   1.885  11.236   3.172
46765SOL    HW242128   1.965  11.218   3.045
46766SOL     OW42129  13.894   2.657   8.852
46766SOL    HW142130  13.819   2.685   8.905
46766SOL    HW242131  13.856   2.618   8.774
46767SOL     OW42132  12.542   6.565   0.347
46767SOL    HW142133  12.546   6.481   0.392
46767SOL    HW242134  12.620   6.612   0.376
46768SOL     OW42135   6.549  12.680  10.784
46768SOL    HW142136   6.465  12.636  10.780
46768SOL    HW242137   6.528  12.773  10.780
46769SOL     OW42138   8.744   3.765   4.199
46769SOL    HW142139   8.693   3.783   4.120
46769SOL    HW242140   8.698   3.812   4.269
46770SOL     OW42141   1.184  13.541   8.629
46770SOL    HW142142   1.166  13.626   8.587
46770SOL    HW242143   1.279  13.534   8.628
46771SOL     OW42144   2.606   6.547   6.632
46771SOL    HW142145   2.639   6.566   6.720
46771SOL    HW242146   2.511   6.556   6.639
46772SOL     OW42147  10.297   0.919   8.176
46772SOL    HW142148  10.253   1.000   8.149
46772SOL    HW242149  10.247   0.891   8.253
46773SOL     OW42150  13.231   8.658   9.227
46773SOL    HW142151  13.153   8.640   9.176
46773SOL    HW242152  13.244   8.580   9.281
46774SOL     OW42153   9.263   1.014  10.419
46774SOL    HW142154   9.263   0.997  10.513
46774SOL    HW242155   9.264   1.110  10.412
46775SOL     OW42156   9.836  11.861   5.045
46775SOL    HW142157   9.756  11.811   5.061
46775SOL    HW242158   9.902  11.817   5.099
46776SOL     OW42159   8.420   8.814   5.724
46776SOL    HW142160   8.425   8.735   5.670
46776SOL    HW242161   8.442   8.784   5.812
46777SOL     OW42162   0.808  13.699   4.380
46777SOL    HW142163   0.755  13.682   4.458
46777SOL    HW242164   0.817  13.613   4.339
46778SOL     OW42165  13.333   0.345  11.250
46778SOL    HW142166  13.283   0.420  11.218
46778SOL    HW242167  13.330   0.282  11.177
46779SOL     OW42168   9.635   7.414   1.228
46779SOL    HW142169   9.671   7.451   1.147
46779SOL    HW242170   9.711   7.403   1.285
46780SOL     OW42171  10.755  12.375   3.040
46780SOL    HW142172  10.678  12.321   3.024
46780SOL    HW242173  10.811  12.322   3.096
46781SOL     OW42174  13.857  14.420   2.864
46781SOL    HW142175  13.892  14.397   2.778
46781SOL    HW242176  13.910  14.371   2.926
46782SOL     OW42177  10.219   1.060   0.397
46782SOL    HW142178  10.262   1.039   0.314
46782SOL    HW242179  10.254   1.145   0.422
46783SOL     OW42180   5.753   6.782   7.955
46783SOL    HW142181   5.663   6.808   7.933
46783SOL    HW242182   5.802   6.864   7.957
46784SOL     OW42183   1.262   3.598   8.414
46784SOL    HW142184   1.220   3.676   8.378
46784SOL    HW242185   1.217   3.525   8.372
46785SOL     OW42186   7.277  13.788  14.439
46785SOL    HW142187   7.301  13.700  14.411
46785SOL    HW242188   7.182  13.783  14.455
46786SOL     OW42189   4.782   7.083   5.701
46786SOL    HW142190   4.876   7.073   5.720
46786SOL    HW242191   4.749   6.993   5.696
46787SOL     OW42192   7.841   2.537  13.631
46787SOL    HW142193   7.851   2.585  13.548
46787SOL    HW242194   7.754   2.562  13.662
46788SOL     OW42195  10.716   0.612   7.071
46788SOL    HW142196  10.629   0.652   7.078
46788SOL    HW242197  10.701   0.530   7.024
46789SOL     OW42198  11.077   7.357  14.440
46789SOL    HW142199  11.045   7.319  14.522
46789SOL    HW242200  11.101   7.446  14.463
46790SOL     OW42201   0.649   6.711  13.392
46790SOL    HW142202   0.679   6.621  13.404
46790SOL    HW242203   0.685   6.758  13.467
46791SOL     OW42204   4.025  11.172  13.219
46791SOL    HW142205   3.954  11.131  13.268
46791SOL    HW242206   3.994  11.173  13.128
46792SOL     OW42207  10.590  13.603  10.691
46792SOL    HW142208  10.522  13.546  10.654
46792SOL    HW242209  10.656  13.543  10.725
46793SOL     OW42210  11.811  14.352   9.055
46793SOL    HW142211  11.749  14.280   9.052
46793SOL    HW242212  11.769  14.418   9.111
46794SOL     OW42213   4.155   5.689   7.251
46794SOL    HW142214   4.068   5.718   7.225
46794SOL    HW242215   4.215   5.743   7.199
46795SOL     OW42216  12.069   5.378   6.265
46795SOL    HW142217  12.161   5.375   6.291
46795SOL    HW242218  12.059   5.303   6.206
46796SOL     OW42219   5.648   9.496   0.208
46796SOL    HW142220   5.593   9.560   0.254
46796SOL    HW242221   5.710   9.549   0.158
46797SOL     OW42222   1.004  10.432   8.694
46797SOL    HW142223   1.036  10.348   8.659
46797SOL    HW242224   0.966  10.409   8.779
46798SOL     OW42225   2.567  12.469   4.453
46798SOL    HW142226   2.486  12.489   4.405
46798SOL    HW242227   2.637  12.486   4.389
46799SOL     OW42228  13.398   4.893  11.137
46799SOL    HW142229  13.365   4.982  11.125
46799SOL    HW242230  13.399   4.881  11.232
46800SOL     OW42231   0.136   2.115  10.827
46800SOL    HW142232   0.197   2.129  10.899
46800SOL    HW242233   0.126   2.202  10.787
46801SOL     OW42234  10.909   8.772  13.317
46801SOL    HW142235  10.905   8.683  13.352
46801SOL    HW242236  10.998   8.780  13.281
46802SOL     OW42237  14.130   8.734   9.777
46802SOL    HW142238  14.126   8.691   9.692
46802SOL    HW242239  14.091   8.671   9.837
46803SOL     OW42240   6.956   1.220   9.045
46803SOL    HW142241   6.910   1.282   9.102
46803SOL    HW242242   6.998   1.158   9.105
46804SOL     OW42243  10.222   5.759   5.274
46804SOL    HW142244  10.141   5.725   5.312
46804SOL    HW242245  10.208   5.853   5.268
46805SOL     OW42246   5.436   4.598   9.183
46805SOL    HW142247   5.377   4.571   9.112
46805SOL    HW242248   5.380   4.646   9.244
46806SOL     OW42249   7.782   9.031   2.491
46806SOL    HW142250   7.795   8.991   2.405
46806SOL    HW242251   7.707   9.089   2.479
46807SOL     OW42252   3.360   8.416   7.695
46807SOL    HW142253   3.356   8.467   7.775
46807SOL    HW242254   3.272   8.420   7.659
46808SOL     OW42255   0.869   4.661   5.621
46808SOL    HW142256   0.939   4.726   5.622
46808SOL    HW242257   0.845   4.650   5.713
46809SOL     OW42258   1.340  10.261   0.412
46809SOL    HW142259   1.396  10.185   0.397
46809SOL    HW242260   1.400  10.329   0.444
46810SOL     OW42261   5.028   4.545   7.861
46810SOL    HW142262   5.058   4.542   7.770
46810SOL    HW242263   5.083   4.612   7.902
46811SOL     OW42264  13.649   9.893   3.194
46811SOL    HW142265  13.632   9.815   3.142
46811SOL    HW242266  13.627   9.966   3.136
46812SOL     OW42267   0.570   5.087   1.086
46812SOL    HW142268   0.478   5.059   1.085
46812SOL    HW242269   0.571   5.168   1.035
46813SOL     OW42270  13.070   3.096   4.471
46813SOL    HW142271  13.147   3.094   4.414
46813SOL    HW242272  13.009   3.155   4.427
46814SOL     OW42273   7.155   5.330   6.478
46814SOL    HW142274   7.061   5.348   6.478
46814SOL    HW242275   7.164   5.247   6.526
46815SOL     OW42276   1.368  14.045   8.272
46815SOL    HW142277   1.296  13.982   8.268
46815SOL    HW242278   1.327  14.129   8.253
46816SOL     OW42279   4.381  13.428   2.559
46816SOL    HW142280   4.324  13.404   2.486
46816SOL    HW242281   4.388  13.523   2.554
46817SOL     OW42282   5.294  12.339  12.581
46817SOL    HW142283   5.217  12.379  12.620
46817SOL    HW242284   5.260  12.292  12.505
46818SOL     OW42285   4.864   2.581   1.493
46818SOL    HW142286   4.782   2.535   1.509
46818SOL    HW242287   4.913   2.573   1.575
46819SOL     OW42288   5.299   5.367   8.552
46819SOL    HW142289   5.362   5.356   8.623
46819SOL    HW242290   5.318   5.454   8.516
46820SOL     OW42291   3.611   3.450  10.120
46820SOL    HW142292   3.686   3.509  10.129
46820SOL    HW242293   3.535   3.504  10.144
46821SOL     OW42294   7.730  13.046   4.502
46821SOL    HW142295   7.793  12.975   4.507
46821SOL    HW242296   7.646  13.007   4.528
46822SOL     OW42297   4.387   4.251   9.036
46822SOL    HW142298   4.306   4.227   8.991
46822SOL    HW242299   4.447   4.276   8.965
46823SOL     OW42300   5.521   3.076  13.608
46823SOL    HW142301   5.505   3.125  13.527
46823SOL    HW242302   5.533   2.986  13.580
46824SOL     OW42303  11.053   4.052  10.472
46824SOL    HW142304  11.104   4.110  10.529
46824SOL    HW242305  11.117   4.016  10.411
46825SOL     OW42306  10.858   2.863   3.738
46825SOL    HW142307  10.766   2.838   3.733
46825SOL    HW242308  10.879   2.864   3.831
46826SOL     OW42309   8.799   8.277   6.596
46826SOL    HW142310   8.750   8.356   6.617
46826SOL    HW242311   8.745   8.233   6.530
46827SOL     OW42312   0.441  11.945   3.004
46827SOL    HW142313   0.433  12.000   3.082
46827SOL    HW242314   0.351  11.934   2.973
46828SOL     OW42315  14.322  14.033   9.074
46828SOL    HW142316  14.392  14.076   9.024
46828SOL    HW242317  14.347  13.940   9.074
46829SOL     OW42318  10.149  11.000  14.043
46829SOL    HW142319  10.177  10.974  14.131
46829SOL    HW242320  10.097  10.925  14.012
46830SOL     OW42321   9.573   2.235   9.054
46830SOL    HW142322   9.565   2.304   8.988
46830SOL    HW242323   9.574   2.154   9.004
46831SOL     OW42324   9.142   8.433   1.601
46831SOL    HW142325   9.206   8.501   1.578
46831SOL    HW242326   9.137   8.378   1.523
46832SOL     OW42327   3.808   5.824  13.873
46832SOL    HW142328   3.870   5.767  13.829
46832SOL    HW242329   3.778   5.773  13.948
46833SOL     OW42330   4.016  11.233  10.303
46833SOL    HW142331   3.990  11.151  10.345
46833SOL    HW242332   3.947  11.295  10.326
46834SOL     OW42333   3.251  10.695   9.271
46834SOL    HW142334   3.284  10.775   9.312
46834SOL    HW242335   3.309  10.626   9.303
46835SOL     OW42336  11.335   1.610  14.718
46835SOL    HW142337  11.424   1.580  14.732
46835SOL    HW242338  11.297   1.548  14.656
46836SOL     OW42339   0.517   1.177   6.522
46836SOL    HW142340   0.494   1.099   6.573
46836SOL    HW242341   0.506   1.151   6.431
46837SOL     OW42342  13.343  11.018  13.747
46837SOL    HW142343  13.332  10.983  13.659
46837SOL    HW242344  13.331  10.942  13.805
46838SOL     OW42345   5.870   2.447   7.561
46838SOL    HW142346   5.786   2.400   7.552
46838SOL    HW242347   5.917   2.428   7.480
46839SOL     OW42348   2.979  11.799   7.274
46839SOL    HW142349   2.991  11.894   7.277
46839SOL    HW242350   3.044  11.769   7.209
46840SOL     OW42351   6.804   2.073   8.143
46840SOL    HW142352   6.741   2.041   8.207
46840SOL    HW242353   6.752   2.088   8.064
46841SOL     OW42354   3.279   8.892  12.223
46841SOL    HW142355   3.207   8.926  12.169
46841SOL    HW242356   3.351   8.879  12.161
46842SOL     OW42357   2.900   7.097   7.143
46842SOL    HW142358   2.822   7.152   7.153
46842SOL    HW242359   2.973   7.157   7.159
46843SOL     OW42360   0.370  13.188   1.763
46843SOL    HW142361   0.441  13.221   1.707
46843SOL    HW242362   0.373  13.093   1.752
46844SOL     OW42363   1.367   0.388   3.246
46844SOL    HW142364   1.422   0.309   3.253
46844SOL    HW242365   1.334   0.401   3.335
46845SOL     OW42366   6.627   5.315   3.550
46845SOL    HW142367   6.566   5.382   3.581
46845SOL    HW242368   6.581   5.232   3.564
46846SOL     OW42369   0.051  11.391   8.055
46846SOL    HW142370   0.123  11.439   8.014
46846SOL    HW242371   0.078  11.383   8.147
46847SOL     OW42372  10.913  11.681   2.098
46847SOL    HW142373  11.003  11.674   2.129
46847SOL    HW242374  10.921  11.679   2.002
46848SOL     OW42375   4.852   9.658   9.150
46848SOL    HW142376   4.801   9.738   9.157
46848SOL    HW242377   4.801   9.601   9.092
46849SOL     OW42378  12.074   4.905   8.335
46849SOL    HW142379  12.020   4.912   8.256
46849SOL    HW242380  12.101   4.995   8.353
46850SOL     OW42381   9.497   0.018   8.731
46850SOL    HW142382   9.452  14.808   8.713
46850SOL    HW242383   9.467   0.076   8.661
46851SOL     OW42384   0.570   6.506   5.082
46851SOL    HW142385   0.643   6.477   5.027
46851SOL    HW242386   0.493   6.464   5.045
46852SOL     OW42387  12.463  10.038   6.042
46852SOL    HW142388  12.421  10.118   6.010
46852SOL    HW242389  12.543  10.030   5.990
46853SOL     OW42390  14.126   9.467   4.570
46853SOL    HW142391  14.143   9.432   4.482
46853SOL    HW242392  14.114   9.561   4.556
46854SOL     OW42393  14.381   9.551   4.211
46854SOL    HW142394  14.416   9.489   4.275
46854SOL    HW242395  14.353   9.495   4.137
46855SOL     OW42396   3.700   5.823   4.169
46855SOL    HW142397   3.666   5.737   4.194
46855SOL    HW242398   3.622   5.872   4.141
46856SOL     OW42399  12.926   0.878   0.337
46856SOL    HW142400  12.948   0.947   0.274
46856SOL    HW242401  13.010   0.835   0.355
46857SOL     OW42402  14.795  10.824   6.202
46857SOL    HW142403  14.710  10.836   6.245
46857SOL    HW242404  14.773  10.809   6.109
46858SOL     OW42405   3.405   0.815  12.813
46858SOL    HW142406   3.500   0.824  12.800
46858SOL    HW242407   3.396   0.746  12.878
46859SOL     OW42408   4.959   4.738   3.175
46859SOL    HW142409   5.012   4.795   3.120
46859SOL    HW242410   5.023   4.692   3.230
46860SOL     OW42411   3.353  11.829   9.705
46860SOL    HW142412   3.374  11.801   9.794
46860SOL    HW242413   3.267  11.791   9.686
46861SOL     OW42414  14.769  11.449   1.743
46861SOL    HW142415  14.825  11.487   1.676
46861SOL    HW242416  14.680  11.460   1.709
46862SOL     OW42417  10.517  12.072   9.036
46862SOL    HW142418  10.457  12.079   8.962
46862SOL    HW242419  10.496  12.147   9.092
46863SOL     OW42420   5.091  14.441  13.080
46863SOL    HW142421   5.083  14.516  13.138
46863SOL    HW242422   5.002  14.408  13.070
46864SOL     OW42423   0.656   0.068   0.511
46864SOL    HW142424   0.637   0.073   0.605
46864SOL    HW242425   0.574   0.093   0.468
46865SOL     OW42426   5.907   3.539  10.625
46865SOL    HW142427   5.958   3.603  10.674
46865SOL    HW242428   5.832   3.519  10.682
46866SOL     OW42429   2.328   1.088   1.209
46866SOL    HW142430   2.407   1.075   1.156
46866SOL    HW242431   2.356   1.070   1.298
46867SOL     OW42432   5.115   9.496  13.251
46867SOL    HW142433   5.135   9.430  13.185
46867SOL    HW242434   5.022   9.515  13.239
46868SOL     OW42435   9.265   8.224   8.606
46868SOL    HW142436   9.316   8.143   8.604
46868SOL    HW242437   9.302   8.278   8.536
46869SOL     OW42438   8.449  10.763   6.735
46869SOL    HW142439   8.543  10.751   6.721
46869SOL    HW242440   8.414  10.785   6.649
46870SOL     OW42441   2.171  14.689   9.891
46870SOL    HW142442   2.134  14.745   9.823
46870SOL    HW242443   2.214  14.619   9.842
46871SOL     OW42444  12.071  12.292   5.272
46871SOL    HW142445  12.075  12.386   5.258
46871SOL    HW242446  12.156  12.259   5.243
46872SOL     OW42447  11.211  11.977  13.325
46872SOL    HW142448  11.304  11.974  13.304
46872SOL    HW242449  11.207  12.007  13.415
46873SOL     OW42450   8.490   3.649  13.163
46873SOL    HW142451   8.577   3.667  13.198
46873SOL    HW242452   8.466   3.728  13.116
46874SOL     OW42453  12.248  10.086  10.207
46874SOL    HW142454  12.242  10.001  10.250
46874SOL    HW242455  12.159  10.105  10.179
46875SOL     OW42456   3.630   5.280   7.090
46875SOL    HW142457   3.691   5.352   7.107
46875SOL    HW242458   3.685   5.202   7.095
46876SOL     OW42459  13.821   1.106   4.779
46876SOL    HW142460  13.885   1.155   4.831
46876SOL    HW242461  13.793   1.035   4.836
46877SOL     OW42462  13.746  10.847   2.077
46877SOL    HW142463  13.783  10.811   1.996
46877SOL    HW242464  13.797  10.807   2.147
46878SOL     OW42465  12.905   9.065   5.159
46878SOL    HW142466  12.897   9.112   5.076
46878SOL    HW242467  12.884   8.974   5.137
46879SOL     OW42468   3.914   8.155   0.563
46879SOL    HW142469   3.862   8.232   0.586
46879SOL    HW242470   3.895   8.139   0.471
46880SOL     OW42471   4.143  12.985   8.393
46880SOL    HW142472   4.057  12.944   8.403
46880SOL    HW242473   4.204  12.922   8.432
46881SOL     OW42474   3.817   6.031   8.245
46881SOL    HW142475   3.834   6.039   8.151
46881SOL    HW242476   3.894   5.988   8.280
46882SOL     OW42477   3.050   9.100  12.636
46882SOL    HW142478   3.032   9.189  12.606
46882SOL    HW242479   3.145   9.098  12.649
46883SOL     OW42480   7.702  12.275   3.587
46883SOL    HW142481   7.620  12.283   3.636
46883SOL    HW242482   7.749  12.357   3.607
46884SOL     OW42483   8.165   0.478  10.748
46884SOL    HW142484   8.150   0.388  10.719
46884SOL    HW242485   8.181   0.527  10.667
46885SOL     OW42486   4.478   9.499   6.897
46885SOL    HW142487   4.475   9.557   6.822
46885SOL    HW242488   4.468   9.411   6.860
46886SOL     OW42489  10.716   1.570   2.324
46886SOL    HW142490  10.799   1.540   2.286
46886SOL    HW242491  10.685   1.637   2.263
46887SOL     OW42492   1.007   0.439   9.668
46887SOL    HW142493   0.923   0.481   9.650
46887SOL    HW242494   1.073   0.506   9.650
46888SOL     OW42495  12.525  13.007   8.494
46888SOL    HW142496  12.515  12.913   8.507
46888SOL    HW242497  12.479  13.046   8.569
46889SOL     OW42498   4.032  13.867   2.186
46889SOL    HW142499   3.942  13.861   2.154
46889SOL    HW242500   4.046  13.960   2.201
46890SOL     OW42501  11.860   8.163   1.334
46890SOL    HW142502  11.833   8.185   1.423
46890SOL    HW242503  11.800   8.212   1.278
46891SOL     OW42504  13.389   5.308   5.972
46891SOL    HW142505  13.416   5.293   6.062
46891SOL    HW242506  13.362   5.400   5.970
46892SOL     OW42507  10.032   8.284  14.753
46892SOL    HW142508  10.072   8.218  14.810
46892SOL    HW242509   9.940   8.283  14.777
46893SOL     OW42510   9.138  11.165   6.607
46893SOL    HW142511   9.200  11.123   6.667
46893SOL    HW242512   9.185  11.170   6.524
46894SOL     OW42513  10.697  10.261  13.150
46894SOL    HW142514  10.628  10.280  13.086
46894SOL    HW242515  10.736  10.347  13.167
46895SOL     OW42516   2.539  11.160  11.870
46895SOL    HW142517   2.542  11.251  11.897
46895SOL    HW242518   2.498  11.114  11.943
46896SOL     OW42519  12.147   4.719  12.746
46896SOL    HW142520  12.168   4.705  12.839
46896SOL    HW242521  12.113   4.808  12.742
46897SOL     OW42522   8.591   3.549   9.845
46897SOL    HW142523   8.656   3.485   9.816
46897SOL    HW242524   8.534   3.562   9.770
46898SOL     OW42525   5.427   7.267   3.680
46898SOL    HW142526   5.419   7.218   3.598
46898SOL    HW242527   5.482   7.211   3.735
46899SOL     OW42528   8.926  11.157   0.514
46899SOL    HW142529   8.883  11.180   0.597
46899SOL    HW242530   8.947  11.242   0.474
46900SOL     OW42531   3.988   0.860  10.208
46900SOL    HW142532   3.970   0.947  10.172
46900SOL    HW242533   3.902   0.821  10.221
46901SOL     OW42534   6.467   2.719  12.916
46901SOL    HW142535   6.442   2.630  12.892
46901SOL    HW242536   6.407   2.743  12.987
46902SOL     OW42537  12.354  12.556  12.558
46902SOL    HW142538  12.332  12.640  12.516
46902SOL    HW242539  12.312  12.561  12.644
46903SOL     OW42540  14.825   8.175   2.293
46903SOL    HW142541  14.847   8.257   2.248
46903SOL    HW242542  14.828   8.108   2.225
46904SOL     OW42543   7.249  13.415   7.616
46904SOL    HW142544   7.274  13.355   7.546
46904SOL    HW242545   7.178  13.370   7.662
46905SOL     OW42546  14.243   4.953   5.798
46905SOL    HW142547  14.163   4.919   5.758
46905SOL    HW242548  14.255   5.039   5.758
46906SOL     OW42549   7.558   5.347  14.498
46906SOL    HW142550   7.525   5.294  14.426
46906SOL    HW242551   7.609   5.286  14.551
46907SOL     OW42552  14.852   0.645   9.001
46907SOL    HW142553  14.766   0.688   9.005
46907SOL    HW242554  14.834   0.553   9.020
46908SOL     OW42555  11.770   9.802   4.666
46908SOL    HW142556  11.821   9.724   4.687
46908SOL    HW242557  11.827   9.876   4.688
46909SOL     OW42558   1.945   7.916   3.384
46909SOL    HW142559   1.989   7.943   3.465
46909SOL    HW242560   2.014   7.917   3.318
46910SOL     OW42561   1.152  13.454   0.463
46910SOL    HW142562   1.205  13.384   0.501
46910SOL    HW242563   1.116  13.500   0.539
46911SOL     OW42564  10.467   8.788   4.413
46911SOL    HW142565  10.401   8.800   4.481
46911SOL    HW242566  10.548   8.818   4.454
46912SOL     OW42567  11.167   2.115   4.141
46912SOL    HW142568  11.082   2.134   4.100
46912SOL    HW242569  11.220   2.077   4.071
46913SOL     OW42570  14.370   7.058  13.041
46913SOL    HW142571  14.444   7.041  12.983
46913SOL    HW242572  14.352   7.152  13.029
46914SOL     OW42573   3.513  12.414  14.583
46914SOL    HW142574   3.529  12.399  14.490
46914SOL    HW242575   3.497  12.327  14.620
46915SOL     OW42576   2.450   9.251   8.757
46915SOL    HW142577   2.503   9.320   8.717
46915SOL    HW242578   2.447   9.181   8.691
46916SOL     OW42579  12.682  13.549  11.636
46916SOL    HW142580  12.744  13.574  11.567
46916SOL    HW242581  12.720  13.582  11.717
46917SOL     OW42582  12.770   1.125  12.757
46917SOL    HW142583  12.804   1.036  12.770
46917SOL    HW242584  12.849   1.179  12.749
46918SOL     OW42585   3.730   5.487   6.685
46918SOL    HW142586   3.660   5.472   6.748
46918SOL    HW242587   3.808   5.452   6.727
46919SOL     OW42588   2.828   2.286   8.462
46919SOL    HW142589   2.809   2.269   8.554
46919SOL    HW242590   2.765   2.354   8.437
46920SOL     OW42591  12.093   6.450   5.943
46920SOL    HW142592  12.055   6.375   5.898
46920SOL    HW242593  12.018   6.507   5.961
46921SOL     OW42594   1.596   3.739   2.544
46921SOL    HW142595   1.576   3.652   2.510
46921SOL    HW242596   1.521   3.763   2.597
46922SOL     OW42597  13.432   2.557  10.485
46922SOL    HW142598  13.476   2.483  10.444
46922SOL    HW242599  13.381   2.597  10.414
46923SOL     OW42600   4.315   1.355   7.089
46923SOL    HW142601   4.296   1.404   7.169
46923SOL    HW242602   4.287   1.266   7.109
46924SOL     OW42603   6.385   5.099  14.177
46924SOL    HW142604   6.319   5.107  14.109
46924SOL    HW242605   6.337   5.072  14.255
46925SOL     OW42606   5.716   8.958   5.068
46925SOL    HW142607   5.761   9.042   5.056
46925SOL    HW242608   5.760   8.919   5.144
46926SOL     OW42609   9.665  13.962   9.817
46926SOL    HW142610   9.607  13.972   9.893
46926SOL    HW242611   9.617  14.002   9.745
46927SOL     OW42612   0.362   9.312   1.846
46927SOL    HW142613   0.336   9.398   1.814
46927SOL    HW242614   0.345   9.253   1.772
46928SOL     OW42615   4.951  13.748   9.396
46928SOL    HW142616   4.953  13.818   9.330
46928SOL    HW242617   5.026  13.766   9.452
46929SOL     OW42618  10.249   2.163   1.077
46929SOL    HW142619  10.278   2.220   1.148
46929SOL    HW242620  10.240   2.221   1.002
46930SOL     OW42621   6.396   9.625   2.024
46930SOL    HW142622   6.376   9.557   1.959
46930SOL    HW242623   6.389   9.707   1.976
46931SOL     OW42624   8.513   3.341  14.328
46931SOL    HW142625   8.479   3.252  14.312
46931SOL    HW242626   8.435   3.394  14.340
46932SOL     OW42627   1.025   2.805   3.790
46932SOL    HW142628   1.084   2.748   3.741
46932SOL    HW242629   1.056   2.801   3.880
46933SOL     OW42630   7.673   3.071  12.952
46933SOL    HW142631   7.614   3.083  12.877
46933SOL    HW242632   7.626   3.010  13.009
46934SOL     OW42633  12.583   4.620   5.924
46934SOL    HW142634  12.536   4.670   5.857
46934SOL    HW242635  12.673   4.650   5.918
46935SOL     OW42636   0.339  13.681   6.118
46935SOL    HW142637   0.320  13.652   6.029
46935SOL    HW242638   0.276  13.633   6.173
46936SOL     OW42639   2.150  12.586   9.760
46936SOL    HW142640   2.170  12.641   9.685
46936SOL    HW242641   2.067  12.543   9.737
46937SOL     OW42642   1.640   4.426  13.287
46937SOL    HW142643   1.594   4.507  13.266
46937SOL    HW242644   1.687   4.403  13.207
46938SOL     OW42645   9.086   7.444   8.915
46938SOL    HW142646   9.089   7.530   8.958
46938SOL    HW242647   9.026   7.392   8.970
46939SOL     OW42648  11.071  13.587   6.591
46939SOL    HW142649  11.035  13.663   6.546
46939SOL    HW242650  10.995  13.531   6.607
46940SOL     OW42651   8.150  12.345  14.022
46940SOL    HW142652   8.233  12.368  13.981
46940SOL    HW242653   8.172  12.326  14.113
46941SOL     OW42654   1.866   7.876   1.586
46941SOL    HW142655   1.923   7.857   1.660
46941SOL    HW242656   1.815   7.952   1.613
46942SOL     OW42657   5.736  10.889   8.207
46942SOL    HW142658   5.816  10.837   8.198
46942SOL    HW242659   5.675  10.832   8.253
46943SOL     OW42660  13.901  11.198   2.234
46943SOL    HW142661  13.806  11.192   2.224
46943SOL    HW242662  13.935  11.159   2.153
46944SOL     OW42663   5.506  11.916  13.526
46944SOL    HW142664   5.571  11.935  13.459
46944SOL    HW242665   5.533  11.833  13.563
46945SOL     OW42666   3.938   9.046   3.376
46945SOL    HW142667   3.987   9.016   3.453
46945SOL    HW242668   3.847   9.022   3.396
46946SOL     OW42669   4.231   2.158  14.813
46946SOL    HW142670   4.290   2.179  14.741
46946SOL    HW242671   4.175   2.234  14.822
46947SOL     OW42672   6.457  12.826   8.888
46947SOL    HW142673   6.535  12.831   8.832
46947SOL    HW242674   6.384  12.819   8.826
46948SOL     OW42675   1.017   1.595   5.815
46948SOL    HW142676   1.001   1.534   5.743
46948SOL    HW242677   1.018   1.539   5.893
46949SOL     OW42678   2.439   6.399  13.306
46949SOL    HW142679   2.390   6.413  13.225
46949SOL    HW242680   2.522   6.361  13.277
46950SOL     OW42681   9.451   9.897   4.656
46950SOL    HW142682   9.460   9.984   4.618
46950SOL    HW242683   9.522   9.847   4.617
46951SOL     OW42684   2.912   3.293   6.165
46951SOL    HW142685   2.987   3.277   6.223
46951SOL    HW242686   2.911   3.218   6.106
46952SOL     OW42687   3.412   8.031   9.499
46952SOL    HW142688   3.384   8.002   9.412
46952SOL    HW242689   3.488   8.087   9.482
46953SOL     OW42690  10.401   6.284  13.660
46953SOL    HW142691  10.310   6.316  13.659
46953SOL    HW242692  10.443   6.329  13.587
46954SOL     OW42693   3.604   6.889   9.191
46954SOL    HW142694   3.681   6.833   9.178
46954SOL    HW242695   3.530   6.829   9.180
46955SOL     OW42696   7.614  12.233  13.768
46955SOL    HW142697   7.707  12.243  13.752
46955SOL    HW242698   7.573  12.243  13.682
46956SOL     OW42699   3.139   3.633   3.258
46956SOL    HW142700   3.047   3.607   3.253
46956SOL    HW242701   3.140   3.708   3.318
46957SOL     OW42702   8.574   9.844  12.909
46957SOL    HW142703   8.516   9.768  12.917
46957SOL    HW242704   8.534   9.898  12.841
46958SOL     OW42705   0.666   3.514  10.701
46958SOL    HW142706   0.580   3.525  10.659
46958SOL    HW242707   0.658   3.433  10.750
46959SOL     OW42708  12.108   5.366   5.072
46959SOL    HW142709  12.179   5.328   5.123
46959SOL    HW242710  12.089   5.301   5.004
46960SOL     OW42711  13.805   3.665   9.918
46960SOL    HW142712  13.794   3.635  10.009
46960SOL    HW242713  13.723   3.641   9.875
46961SOL     OW42714  12.358   9.122  12.868
46961SOL    HW142715  12.411   9.045  12.891
46961SOL    HW242716  12.284   9.119  12.928
46962SOL     OW42717   1.291   4.283   1.259
46962SOL    HW142718   1.347   4.311   1.187
46962SOL    HW242719   1.226   4.352   1.267
46963SOL     OW42720   3.031  13.310   6.043
46963SOL    HW142721   2.984  13.244   5.992
46963SOL    HW242722   3.081  13.360   5.978
46964SOL     OW42723   7.415  14.298   7.896
46964SOL    HW142724   7.433  14.268   7.807
46964SOL    HW242725   7.323  14.325   7.894
46965SOL     OW42726   2.260   6.476   0.089
46965SOL    HW142727   2.201   6.498   0.162
46965SOL    HW242728   2.225   6.526   0.015
46966SOL     OW42729   1.806   7.403   1.859
46966SOL    HW142730   1.860   7.459   1.803
46966SOL    HW242731   1.818   7.439   1.947
46967SOL     OW42732   2.773   0.608   9.983
46967SOL    HW142733   2.815   0.672  10.041
46967SOL    HW242734   2.833   0.601   9.909
46968SOL     OW42735  12.951   1.119   3.352
46968SOL    HW142736  12.937   1.193   3.293
46968SOL    HW242737  13.034   1.081   3.323
46969SOL     OW42738  10.199   5.233   3.284
46969SOL    HW142739  10.269   5.182   3.325
46969SOL    HW242740  10.184   5.189   3.200
46970SOL     OW42741   0.124  10.561   7.251
46970SOL    HW142742   0.028  10.557   7.260
46970SOL    HW242743   0.139  10.632   7.189
46971SOL     OW42744   5.841   2.101   3.696
46971SOL    HW142745   5.787   2.087   3.617
46971SOL    HW242746   5.913   2.040   3.687
46972SOL     OW42747   1.919  14.546   0.255
46972SOL    HW142748   1.826  14.565   0.245
46972SOL    HW242749   1.959  14.578   0.174
46973SOL     OW42750   2.762   4.461   8.457
46973SOL    HW142751   2.753   4.536   8.398
46973SOL    HW242752   2.675   4.422   8.460
46974SOL     OW42753   7.205  10.897   3.483
46974SOL    HW142754   7.213  10.896   3.579
46974SOL    HW242755   7.212  10.990   3.460
46975SOL     OW42756   1.454  10.598   8.152
46975SOL    HW142757   1.517  10.560   8.091
46975SOL    HW242758   1.374  10.547   8.139
46976SOL     OW42759   5.755  14.058   6.671
46976SOL    HW142760   5.684  13.998   6.691
46976SOL    HW242761   5.798  14.020   6.594
46977SOL     OW42762   7.219  11.004   7.049
46977SOL    HW142763   7.253  10.927   7.004
46977SOL    HW242764   7.295  11.059   7.064
46978SOL     OW42765   4.815   5.441   9.462
46978SOL    HW142766   4.757   5.409   9.392
46978SOL    HW242767   4.761   5.504   9.511
46979SOL     OW42768   2.420  11.456  13.796
46979SOL    HW142769   2.448  11.423  13.711
46979SOL    HW242770   2.379  11.381  13.839
46980SOL     OW42771   2.347  14.427  12.933
46980SOL    HW142772   2.272  14.474  12.972
46980SOL    HW242773   2.308  14.349  12.893
46981SOL     OW42774   8.053  10.354  13.018
46981SOL    HW142775   7.994  10.428  13.003
46981SOL    HW242776   8.138  10.395  13.038
46982SOL     OW42777   2.077   4.765  14.520
46982SOL    HW142778   1.982   4.758  14.507
46982SOL    HW242779   2.087   4.797  14.609
46983SOL     OW42780   8.529   9.776  11.388
46983SOL    HW142781   8.551   9.684  11.397
46983SOL    HW242782   8.563   9.818  11.467
46984SOL     OW42783   9.049   1.907   4.782
46984SOL    HW142784   9.095   1.904   4.866
46984SOL    HW242785   9.069   1.994   4.747
46985SOL     OW42786   2.330  12.443  12.817
46985SOL    HW142787   2.300  12.382  12.749
46985SOL    HW242788   2.302  12.403  12.899
46986SOL     OW42789  13.263   0.476   0.264
46986SOL    HW142790  13.257   0.494   0.171
46986SOL    HW242791  13.346   0.516   0.291
46987SOL     OW42792   2.696  13.993  11.931
46987SOL    HW142793   2.702  14.088  11.934
46987SOL    HW242794   2.625  13.975  11.869
46988SOL     OW42795   0.824  12.370   9.186
46988SOL    HW142796   0.889  12.385   9.255
46988SOL    HW242797   0.740  12.367   9.233
46989SOL     OW42798   8.204  12.177   2.007
46989SOL    HW142799   8.205  12.272   2.018
46989SOL    HW242800   8.293  12.149   2.031
46990SOL     OW42801   4.280  14.363   7.888
46990SOL    HW142802   4.333  14.295   7.846
46990SOL    HW242803   4.227  14.399   7.817
46991SOL     OW42804  13.142  10.722   8.716
46991SOL    HW142805  13.226  10.735   8.759
46991SOL    HW242806  13.134  10.796   8.655
46992SOL     OW42807  12.237   2.155   2.223
46992SOL    HW142808  12.283   2.164   2.306
46992SOL    HW242809  12.258   2.235   2.175
46993SOL     OW42810   3.373   6.711  12.406
46993SOL    HW142811   3.329   6.707  12.491
46993SOL    HW242812   3.409   6.623  12.394
46994SOL     OW42813   5.427  14.786   2.104
46994SOL    HW142814   5.472  14.725   2.046
46994SOL    HW242815   5.468  14.871   2.086
46995SOL     OW42816   4.032   9.010   9.507
46995SOL    HW142817   3.952   8.976   9.467
46995SOL    HW242818   4.102   8.983   9.447
46996SOL     OW42819   0.917  10.589   6.619
46996SOL    HW142820   0.848  10.620   6.560
46996SOL    HW242821   0.881  10.598   6.707
46997SOL     OW42822   4.273   6.975   8.652
46997SOL    HW142823   4.361   7.011   8.647
46997SOL    HW242824   4.274   6.898   8.595
46998SOL     OW42825   9.089  13.729  11.938
46998SOL    HW142826   9.135  13.650  11.965
46998SOL    HW242827   9.135  13.757  11.858
46999SOL     OW42828   0.145   5.446   9.171
46999SOL    HW142829   0.231   5.459   9.211
46999SOL    HW242830   0.157   5.374   9.109
47000SOL     OW42831  14.698   8.333   6.813
47000SOL    HW142832  14.668   8.413   6.856
47000SOL    HW242833  14.781   8.312   6.856
47001SOL     OW42834   6.102   0.889  14.708
47001SOL    HW142835   6.021   0.852  14.743
47001SOL    HW242836   6.094   0.877  14.613
47002SOL     OW42837   9.247  11.683   7.717
47002SOL    HW142838   9.173  11.710   7.771
47002SOL    HW242839   9.213  11.613   7.662
47003SOL     OW42840   9.391   2.149  13.673
47003SOL    HW142841   9.459   2.091  13.710
47003SOL    HW242842   9.382   2.219  13.737
47004SOL     OW42843   5.414   1.491  10.994
47004SOL    HW142844   5.452   1.571  10.959
47004SOL    HW242845   5.471   1.468  11.068
47005SOL     OW42846   8.503   1.736   3.302
47005SOL    HW142847   8.430   1.741   3.239
47005SOL    HW242848   8.571   1.790   3.262
47006SOL     OW42849   6.280   1.451   9.980
47006SOL    HW142850   6.351   1.512   9.961
47006SOL    HW242851   6.299   1.418  10.068
47007SOL     OW42852   5.028   1.146   4.804
47007SOL    HW142853   4.950   1.132   4.751
47007SOL    HW242854   5.010   1.100   4.886
47008SOL     OW42855   6.935   0.941   2.700
47008SOL    HW142856   6.955   0.858   2.744
47008SOL    HW242857   6.844   0.960   2.724
47009SOL     OW42858  12.722  13.476   2.110
47009SOL    HW142859  12.690  13.391   2.081
47009SOL    HW242860  12.735  13.466   2.204
47010SOL     OW42861   8.118   7.767   1.152
47010SOL    HW142862   8.161   7.681   1.143
47010SOL    HW242863   8.106   7.778   1.246
47011SOL     OW42864   3.183  11.298   1.570
47011SOL    HW142865   3.176  11.344   1.654
47011SOL    HW242866   3.092  11.275   1.548
47012SOL     OW42867   6.230   6.357   6.927
47012SOL    HW142868   6.140   6.382   6.908
47012SOL    HW242869   6.232   6.347   7.023
47013SOL     OW42870  11.920   7.307  11.164
47013SOL    HW142871  11.882   7.314  11.251
47013SOL    HW242872  11.852   7.262  11.112
47014SOL     OW42873   7.435   0.404   9.761
47014SOL    HW142874   7.473   0.469   9.821
47014SOL    HW242875   7.344   0.396   9.789
47015SOL     OW42876   4.086   5.379   0.321
47015SOL    HW142877   4.168   5.388   0.370
47015SOL    HW242878   4.022   5.428   0.372
47016SOL     OW42879   4.621   7.523   8.382
47016SOL    HW142880   4.645   7.499   8.293
47016SOL    HW242881   4.525   7.527   8.380
47017SOL     OW42882  11.996  13.478   3.368
47017SOL    HW142883  12.076  13.437   3.333
47017SOL    HW242884  11.928  13.412   3.354
47018SOL     OW42885  13.711  14.374  11.624
47018SOL    HW142886  13.736  14.382  11.532
47018SOL    HW242887  13.782  14.325  11.664
47019SOL     OW42888   0.593  14.853  14.191
47019SOL    HW142889   0.571   0.070  14.217
47019SOL    HW242890   0.518  14.824  14.138
47020SOL     OW42891  14.344   2.056   6.395
47020SOL    HW142892  14.252   2.036   6.411
47020SOL    HW242893  14.344   2.147   6.364
47021SOL     OW42894   5.135  12.110   2.292
47021SOL    HW142895   5.120  12.157   2.210
47021SOL    HW242896   5.061  12.134   2.348
47022SOL     OW42897  11.897   9.948   5.425
47022SOL    HW142898  11.896   9.986   5.513
47022SOL    HW242899  11.985   9.909   5.417
47023SOL     OW42900   3.035   1.830  12.256
47023SOL    HW142901   2.963   1.769  12.263
47023SOL    HW242902   3.041   1.871  12.342
47024SOL     OW42903  14.403  13.119   7.716
47024SOL    HW142904  14.461  13.052   7.680
47024SOL    HW242905  14.416  13.195   7.658
47025SOL     OW42906   2.388   6.717   8.270
47025SOL    HW142907   2.412   6.730   8.178
47025SOL    HW242908   2.460   6.757   8.319
47026SOL     OW42909  12.965   7.511   7.600
47026SOL    HW142910  12.907   7.521   7.524
47026SOL    HW242911  13.053   7.511   7.563
47027SOL     OW42912   8.015  12.835   4.252
47027SOL    HW142913   8.031  12.765   4.189
47027SOL    HW242914   7.926  12.865   4.231
47028SOL     OW42915  12.552   8.809  13.711
47028SOL    HW142916  12.607   8.836  13.785
47028SOL    HW242917  12.586   8.723  13.686
47029SOL     OW42918   8.674   7.360   3.461
47029SOL    HW142919   8.644   7.376   3.551
47029SOL    HW242920   8.610   7.404   3.406
47030SOL     OW42921  11.180  13.520   7.456
47030SOL    HW142922  11.112  13.587   7.464
47030SOL    HW242923  11.136  13.438   7.479
47031SOL     OW42924   3.248   4.540  10.447
47031SOL    HW142925   3.207   4.460  10.480
47031SOL    HW242926   3.181   4.608  10.457
47032SOL     OW42927   6.783   5.278  11.881
47032SOL    HW142928   6.809   5.323  11.802
47032SOL    HW242929   6.695   5.312  11.901
47033SOL     OW42930  12.697   1.535  10.541
47033SOL    HW142931  12.684   1.607  10.479
47033SOL    HW242932  12.723   1.579  10.623
47034SOL     OW42933  14.405   5.390   5.259
47034SOL    HW142934  14.363   5.418   5.177
47034SOL    HW242935  14.498   5.410   5.247
47035SOL     OW42936  11.967   7.312  11.557
47035SOL    HW142937  11.894   7.344  11.609
47035SOL    HW242938  11.927   7.255  11.491
47036SOL     OW42939   0.914   5.868  11.000
47036SOL    HW142940   0.960   5.808  10.941
47036SOL    HW242941   0.978   5.935  11.021
47037SOL     OW42942  11.508   5.431  11.279
47037SOL    HW142943  11.481   5.404  11.367
47037SOL    HW242944  11.436   5.486  11.248
47038SOL     OW42945   4.523   5.567   5.484
47038SOL    HW142946   4.564   5.651   5.505
47038SOL    HW242947   4.540   5.511   5.559
47039SOL     OW42948   2.411   9.851  13.734
47039SOL    HW142949   2.402   9.945  13.752
47039SOL    HW242950   2.361   9.808  13.804
47040SOL     OW42951   2.114   1.298  10.822
47040SOL    HW142952   2.207   1.294  10.798
47040SOL    HW242953   2.110   1.370  10.885
47041SOL     OW42954  11.227   9.065  10.593
47041SOL    HW142955  11.320   9.071  10.571
47041SOL    HW242956  11.196   9.155  10.591
47042SOL     OW42957  10.564   9.895   3.346
47042SOL    HW142958  10.608   9.815   3.375
47042SOL    HW242959  10.570   9.891   3.250
47043SOL     OW42960   0.236   0.499   7.019
47043SOL    HW142961   0.193   0.579   6.990
47043SOL    HW242962   0.174   0.429   6.998
47044SOL     OW42963  14.321  13.200  13.984
47044SOL    HW142964  14.360  13.279  14.022
47044SOL    HW242965  14.327  13.135  14.054
47045SOL     OW42966   2.195  13.630  12.698
47045SOL    HW142967   2.204  13.552  12.753
47045SOL    HW242968   2.243  13.698  12.745
47046SOL     OW42969   7.669  13.873  11.537
47046SOL    HW142970   7.665  13.778  11.550
47046SOL    HW242971   7.747  13.901  11.586
47047SOL     OW42972   8.725   2.017   1.845
47047SOL    HW142973   8.726   2.081   1.915
47047SOL    HW242974   8.817   2.005   1.822
47048SOL     OW42975   8.381   9.538   1.371
47048SOL    HW142976   8.327   9.609   1.408
47048SOL    HW242977   8.471   9.568   1.382
47049SOL     OW42978   2.611  11.347   7.203
47049SOL    HW142979   2.654  11.285   7.143
47049SOL    HW242980   2.664  11.426   7.196
47050SOL     OW42981  14.402  12.959  11.941
47050SOL    HW142982  14.400  12.863  11.945
47050SOL    HW242983  14.374  12.980  11.853
47051SOL     OW42984   3.388   9.918  13.737
47051SOL    HW142985   3.456   9.894  13.675
47051SOL    HW242986   3.331   9.841  13.743
47052SOL     OW42987   2.650   3.561   0.544
47052SOL    HW142988   2.582   3.515   0.594
47052SOL    HW242989   2.731   3.515   0.567
47053SOL     OW42990   0.756   5.886  14.289
47053SOL    HW142991   0.734   5.881  14.196
47053SOL    HW242992   0.825   5.821  14.301
47054SOL     OW42993   5.154   7.323   9.003
47054SOL    HW142994   5.231   7.283   8.962
47054SOL    HW242995   5.107   7.249   9.042
47055SOL     OW42996   4.407   7.699  12.223
47055SOL    HW142997   4.404   7.613  12.182
47055SOL    HW242998   4.499   7.713  12.244
47056SOL     OW42999   7.292   0.492  12.427
47056SOL    HW143000   7.360   0.557  12.445
47056SOL    HW243001   7.257   0.469  12.513
47057SOL     OW43002   0.133  10.236   3.998
47057SOL    HW143003   0.198  10.257   4.064
47057SOL    HW243004   0.073  10.176   4.041
47058SOL     OW43005  12.519   1.719  13.919
47058SOL    HW143006  12.485   1.770  13.993
47058SOL    HW243007  12.462   1.642  13.914
47059SOL     OW43008   9.103   3.748   9.772
47059SOL    HW143009   9.034   3.731   9.708
47059SOL    HW243010   9.139   3.833   9.746
47060SOL     OW43011   6.954   5.457  12.566
47060SOL    HW143012   6.867   5.492  12.549
47060SOL    HW243013   6.942   5.362  12.565
47061SOL     OW43014   4.931   4.980   9.196
47061SOL    HW143015   4.898   4.903   9.243
47061SOL    HW243016   5.010   4.949   9.151
47062SOL     OW43017   8.957   4.789   4.413
47062SOL    HW143018   8.896   4.817   4.345
47062SOL    HW243019   9.024   4.858   4.415
47063SOL     OW43020  14.327  12.298   4.183
47063SOL    HW143021  14.342  12.209   4.149
47063SOL    HW243022  14.243  12.324   4.146
47064SOL     OW43023  12.203   6.083   2.276
47064SOL    HW143024  12.266   6.071   2.347
47064SOL    HW243025  12.256   6.084   2.196
47065SOL     OW43026  14.475   7.216   0.900
47065SOL    HW143027  14.563   7.187   0.927
47065SOL    HW243028  14.425   7.216   0.981
47066SOL     OW43029   9.523   0.008  12.388
47066SOL    HW143030   9.482   0.083  12.431
47066SOL    HW243031   9.483  14.804  12.429
47067SOL     OW43032   6.138   5.163  10.778
47067SOL    HW143033   6.058   5.131  10.820
47067SOL    HW243034   6.181   5.084  10.746
47068SOL     OW43035   2.997   2.359  13.289
47068SOL    HW143036   3.025   2.405  13.367
47068SOL    HW243037   2.903   2.378  13.282
47069SOL     OW43038   3.349   1.623   8.635
47069SOL    HW143039   3.349   1.635   8.730
47069SOL    HW243040   3.306   1.701   8.600
47070SOL     OW43041   9.181   4.456   5.444
47070SOL    HW143042   9.156   4.548   5.457
47070SOL    HW243043   9.116   4.422   5.383
47071SOL     OW43044   4.660   3.143  13.112
47071SOL    HW143045   4.582   3.110  13.069
47071SOL    HW243046   4.730   3.084  13.083
47072SOL     OW43047   9.678   0.771  12.222
47072SOL    HW143048   9.683   0.705  12.292
47072SOL    HW243049   9.722   0.848  12.258
47073SOL     OW43050   1.018   2.178   0.603
47073SOL    HW143051   0.923   2.170   0.612
47073SOL    HW243052   1.030   2.252   0.543
47074SOL     OW43053  10.478   0.858  10.461
47074SOL    HW143054  10.457   0.936  10.512
47074SOL    HW243055  10.507   0.793  10.526
47075SOL     OW43056   8.250   7.369   6.070
47075SOL    HW143057   8.170   7.317   6.078
47075SOL    HW243058   8.283   7.375   6.159
47076SOL     OW43059  13.506   2.892   5.399
47076SOL    HW143060  13.538   2.866   5.485
47076SOL    HW243061  13.558   2.969   5.377
47077SOL     OW43062   1.989  11.985   2.045
47077SOL    HW143063   1.936  11.952   1.973
47077SOL    HW243064   1.938  12.057   2.081
47078SOL     OW43065  14.523   6.662   3.850
47078SOL    HW143066  14.451   6.687   3.908
47078SOL    HW243067  14.480   6.635   3.769
47079SOL     OW43068   3.939   9.270   4.953
47079SOL    HW143069   3.988   9.282   4.871
47079SOL    HW243070   4.006   9.268   5.021
47080SOL     OW43071  13.774   2.093   5.573
47080SOL    HW143072  13.817   2.161   5.521
47080SOL    HW243073  13.694   2.134   5.605
47081SOL     OW43074   7.897  11.416  11.289
47081SOL    HW143075   7.933  11.473  11.221
47081SOL    HW243076   7.807  11.448  11.301
47082SOL     OW43077   3.643   0.812   8.579
47082SOL    HW143078   3.724   0.797   8.629
47082SOL    HW243079   3.576   0.764   8.627
47083SOL     OW43080  10.556   7.458   2.711
47083SOL    HW143081  10.497   7.519   2.666
47083SOL    HW243082  10.615   7.514   2.762
47084SOL     OW43083   0.434   2.307   4.200
47084SOL    HW143084   0.502   2.318   4.134
47084SOL    HW243085   0.387   2.391   4.200
47085SOL     OW43086  11.506   4.719   9.259
47085SOL    HW143087  11.571   4.788   9.246
47085SOL    HW243088  11.422   4.762   9.246
47086SOL     OW43089   1.257   8.405   5.498
47086SOL    HW143090   1.283   8.478   5.553
47086SOL    HW243091   1.255   8.330   5.558
47087SOL     OW43092   9.819   7.038   5.115
47087SOL    HW143093   9.768   7.037   5.034
47087SOL    HW243094   9.758   7.009   5.183
47088SOL     OW43095  12.304   1.109   9.432
47088SOL    HW143096  12.302   1.041   9.499
47088SOL    HW243097  12.396   1.136   9.428
47089SOL     OW43098   3.327   2.492   6.684
47089SOL    HW143099   3.255   2.497   6.747
47089SOL    HW243100   3.309   2.412   6.634
47090SOL     OW43101   1.351   3.724   6.992
47090SOL    HW143102   1.317   3.635   6.988
47090SOL    HW243103   1.292   3.775   6.937
47091SOL     OW43104   8.702   2.285  13.276
47091SOL    HW143105   8.734   2.369  13.309
47091SOL    HW243106   8.756   2.219  13.320
47092SOL     OW43107   0.759   8.693   9.524
47092SOL    HW143108   0.727   8.717   9.611
47092SOL    HW243109   0.847   8.732   9.519
47093SOL     OW43110  10.212   9.922  13.423
47093SOL    HW143111  10.193   9.828  13.416
47093SOL    HW243112  10.247   9.946  13.337
47094SOL     OW43113  10.827   2.269   1.066
47094SOL    HW143114  10.780   2.338   1.113
47094SOL    HW243115  10.898   2.315   1.020
47095SOL     OW43116  14.244   5.367  14.639
47095SOL    HW143117  14.288   5.283  14.627
47095SOL    HW243118  14.250   5.410  14.554
47096SOL     OW43119  11.418   3.297   0.988
47096SOL    HW143120  11.450   3.246   0.914
47096SOL    HW243121  11.336   3.335   0.957
47097SOL     OW43122   0.446   3.208   7.190
47097SOL    HW143123   0.473   3.182   7.278
47097SOL    HW243124   0.468   3.301   7.184
47098SOL     OW43125   6.257   3.397   8.678
47098SOL    HW143126   6.259   3.305   8.704
47098SOL    HW243127   6.262   3.446   8.760
47099SOL     OW43128   8.918  12.183   7.896
47099SOL    HW143129   8.900  12.103   7.945
47099SOL    HW243130   8.878  12.253   7.949
47100SOL     OW43131  12.283  14.034   5.909
47100SOL    HW143132  12.301  14.074   5.994
47100SOL    HW243133  12.327  13.949   5.912
47101SOL     OW43134   2.527   1.643   7.578
47101SOL    HW143135   2.605   1.678   7.619
47101SOL    HW243136   2.529   1.549   7.599
47102SOL     OW43137   3.729   3.398   1.787
47102SOL    HW143138   3.811   3.350   1.775
47102SOL    HW243139   3.668   3.358   1.725
47103SOL     OW43140   6.444  13.761  12.155
47103SOL    HW143141   6.389  13.827  12.113
47103SOL    HW243142   6.409  13.753  12.243
47104SOL     OW43143   7.756   8.873  11.830
47104SOL    HW143144   7.727   8.845  11.917
47104SOL    HW243145   7.794   8.794  11.792
47105SOL     OW43146   2.351   9.091   9.466
47105SOL    HW143147   2.325   9.037   9.541
47105SOL    HW243148   2.287   9.070   9.398
47106SOL     OW43149   2.239  12.446  14.452
47106SOL    HW143150   2.191  12.528  14.454
47106SOL    HW243151   2.325  12.469  14.416
47107SOL     OW43152   5.938   1.501  12.118
47107SOL    HW143153   5.894   1.441  12.179
47107SOL    HW243154   6.027   1.510  12.154
47108SOL     OW43155  10.784   8.674   0.198
47108SOL    HW143156  10.848   8.603   0.195
47108SOL    HW243157  10.821   8.742   0.141
47109SOL     OW43158   1.630   1.543  14.337
47109SOL    HW143159   1.672   1.596  14.404
47109SOL    HW243160   1.537   1.550  14.354
47110SOL     OW43161  12.454   3.590   8.478
47110SOL    HW143162  12.455   3.584   8.382
47110SOL    HW243163  12.430   3.502   8.507
47111SOL     OW43164   1.731   5.890  11.944
47111SOL    HW143165   1.657   5.862  11.889
47111SOL    HW243166   1.751   5.979  11.914
47112SOL     OW43167   1.329   7.323   4.284
47112SOL    HW143168   1.370   7.288   4.363
47112SOL    HW243169   1.274   7.251   4.253
47113SOL     OW43170  13.193  10.627   3.782
47113SOL    HW143171  13.271  10.582   3.751
47113SOL    HW243172  13.178  10.696   3.719
47114SOL     OW43173  13.277  11.329   5.003
47114SOL    HW143174  13.224  11.326   5.082
47114SOL    HW243175  13.275  11.239   4.969
47115SOL     OW43176   3.661   3.170  12.296
47115SOL    HW143177   3.584   3.125  12.261
47115SOL    HW243178   3.709   3.102  12.343
47116SOL     OW43179   3.972  13.169  10.119
47116SOL    HW143180   3.891  13.119  10.121
47116SOL    HW243181   3.956  13.244  10.178
47117SOL     OW43182  11.596   8.276   8.948
47117SOL    HW143183  11.503   8.255   8.949
47117SOL    HW243184  11.599   8.372   8.955
47118SOL     OW43185   8.088  10.629  11.440
47118SOL    HW143186   8.129  10.604  11.523
47118SOL    HW243187   8.132  10.710  11.415
47119SOL     OW43188  10.868  10.732   7.193
47119SOL    HW143189  10.890  10.680   7.270
47119SOL    HW243190  10.799  10.682   7.149
47120SOL     OW43191  10.489  13.945  10.235
47120SOL    HW143192  10.521  13.856  10.246
47120SOL    HW243193  10.559  13.989  10.186
47121SOL     OW43194  10.379  12.644  12.220
47121SOL    HW143195  10.375  12.612  12.130
47121SOL    HW243196  10.295  12.686  12.235
47122SOL     OW43197   5.142  14.215   6.796
47122SOL    HW143198   5.222  14.228   6.745
47122SOL    HW243199   5.172  14.179   6.880
47123SOL     OW43200   9.029   1.868   7.631
47123SOL    HW143201   9.045   1.943   7.688
47123SOL    HW243202   9.102   1.809   7.647
47124SOL     OW43203   0.319   8.007  14.203
47124SOL    HW143204   0.322   8.096  14.237
47124SOL    HW243205   0.346   8.016  14.111
47125SOL     OW43206   6.711   0.213   7.077
47125SOL    HW143207   6.707   0.223   7.173
47125SOL    HW243208   6.644   0.148   7.057
47126SOL     OW43209   3.863   1.239   0.302
47126SOL    HW143210   3.769   1.256   0.304
47126SOL    HW243211   3.897   1.302   0.239
47127SOL     OW43212  10.290  14.424   0.817
47127SOL    HW143213  10.279  14.345   0.763
47127SOL    HW243214  10.257  14.398   0.903
47128SOL     OW43215   4.761   7.912   7.237
47128SOL    HW143216   4.666   7.908   7.253
47128SOL    HW243217   4.789   7.993   7.279
47129SOL     OW43218   8.952   2.111   6.271
47129SOL    HW143219   8.866   2.083   6.302
47129SOL    HW243220   8.939   2.202   6.246
47130SOL     OW43221   2.666   6.672   7.920
47130SOL    HW143222   2.761   6.666   7.916
47130SOL    HW243223   2.636   6.582   7.930
47131SOL     OW43224  12.474   0.504   3.672
47131SOL    HW143225  12.502   0.582   3.624
47131SOL    HW243226  12.454   0.536   3.760
47132SOL     OW43227   0.603   2.765   1.438
47132SOL    HW143228   0.567   2.812   1.513
47132SOL    HW243229   0.648   2.832   1.387
47133SOL     OW43230   1.819  14.555   5.078
47133SOL    HW143231   1.909  14.576   5.101
47133SOL    HW243232   1.767  14.627   5.113
47134SOL     OW43233   0.195   8.706   4.957
47134SOL    HW143234   0.106   8.738   4.941
47134SOL    HW243235   0.203   8.629   4.901
47135SOL     OW43236  13.498  11.588   2.321
47135SOL    HW143237  13.539  11.571   2.237
47135SOL    HW243238  13.569  11.620   2.377
47136SOL     OW43239   9.112   2.207   6.485
47136SOL    HW143240   9.143   2.285   6.439
47136SOL    HW243241   9.084   2.147   6.415
47137SOL     OW43242  12.848   3.292   1.452
47137SOL    HW143243  12.834   3.199   1.436
47137SOL    HW243244  12.936   3.298   1.488
47138SOL     OW43245   7.019  11.581  11.418
47138SOL    HW143246   6.933  11.610  11.387
47138SOL    HW243247   7.079  11.650  11.388
47139SOL     OW43248  13.041  14.351  13.880
47139SOL    HW143249  13.059  14.273  13.828
47139SOL    HW243250  13.109  14.413  13.854
47140SOL     OW43251  14.197  10.543   4.824
47140SOL    HW143252  14.199  10.517   4.917
47140SOL    HW243253  14.138  10.618   4.821
47141SOL     OW43254   3.222  12.718   3.518
47141SOL    HW143255   3.236  12.805   3.481
47141SOL    HW243256   3.175  12.670   3.450
47142SOL     OW43257   8.806   9.518   6.541
47142SOL    HW143258   8.765   9.434   6.561
47142SOL    HW243259   8.847   9.545   6.623
47143SOL     OW43260  13.519  13.170  11.846
47143SOL    HW143261  13.590  13.144  11.905
47143SOL    HW243262  13.561  13.182  11.761
47144SOL     OW43263   2.161  13.244   0.419
47144SOL    HW143264   2.143  13.281   0.332
47144SOL    HW243265   2.169  13.150   0.403
47145SOL     OW43266  14.369   6.398  10.388
47145SOL    HW143267  14.310   6.362  10.453
47145SOL    HW243268  14.349   6.349  10.308
47146SOL     OW43269  11.548   8.663  13.535
47146SOL    HW143270  11.616   8.672  13.602
47146SOL    HW243271  11.525   8.754  13.514
47147SOL     OW43272   7.605   3.419   4.027
47147SOL    HW143273   7.649   3.430   4.110
47147SOL    HW243274   7.645   3.484   3.969
47148SOL     OW43275  13.155   6.730   0.982
47148SOL    HW143276  13.183   6.639   0.972
47148SOL    HW243277  13.116   6.753   0.898
47149SOL     OW43278   1.088   3.473   5.734
47149SOL    HW143279   1.140   3.406   5.779
47149SOL    HW243280   1.143   3.551   5.736
47150SOL     OW43281   5.610   5.121   1.236
47150SOL    HW143282   5.640   5.035   1.209
47150SOL    HW243283   5.542   5.103   1.301
47151SOL     OW43284   7.695   0.156  12.312
47151SOL    HW143285   7.700   0.209  12.392
47151SOL    HW243286   7.784   0.126  12.298
47152SOL     OW43287  14.818  12.445  11.055
47152SOL    HW143288  14.825  12.433  10.960
47152SOL    HW243289   0.033  12.424  11.088
47153SOL     OW43290   6.142   9.902   2.885
47153SOL    HW143291   6.116   9.992   2.905
47153SOL    HW243292   6.059   9.858   2.865
47154SOL     OW43293   0.036   3.480  12.133
47154SOL    HW143294  14.848   3.477  12.207
47154SOL    HW243295   0.014   3.402  12.081
47155SOL     OW43296   1.681   9.898   1.318
47155SOL    HW143297   1.597   9.859   1.292
47155SOL    HW243298   1.744   9.827   1.306
47156SOL     OW43299   3.342   8.689   9.356
47156SOL    HW143300   3.381   8.684   9.443
47156SOL    HW243301   3.346   8.783   9.334
47157SOL     OW43302   7.153   3.395   4.312
47157SOL    HW143303   7.158   3.436   4.398
47157SOL    HW243304   7.214   3.322   4.316
47158SOL     OW43305   3.765   8.945  10.472
47158SOL    HW143306   3.749   9.039  10.457
47158SOL    HW243307   3.859   8.934  10.457
47159SOL     OW43308  11.469  12.552   3.351
47159SOL    HW143309  11.447  12.584   3.264
47159SOL    HW243310  11.562  12.573   3.361
47160SOL     OW43311   1.672  11.816   4.210
47160SOL    HW143312   1.621  11.765   4.148
47160SOL    HW243313   1.762  11.810   4.179
47161SOL     OW43314  12.720   3.610  10.590
47161SOL    HW143315  12.710   3.514  10.590
47161SOL    HW243316  12.762   3.629  10.507
47162SOL     OW43317  11.964  13.741   3.200
47162SOL    HW143318  12.031  13.746   3.269
47162SOL    HW243319  12.006  13.693   3.129
47163SOL     OW43320   0.617  14.561  14.851
47163SOL    HW143321   0.610  14.625  14.781
47163SOL    HW243322   0.616  14.613   0.059
47164SOL     OW43323  14.181   6.553   4.206
47164SOL    HW143324  14.113   6.619   4.218
47164SOL    HW243325  14.256   6.602   4.172
47165SOL     OW43326   8.090   9.199   4.576
47165SOL    HW143327   8.179   9.233   4.567
47165SOL    HW243328   8.096   9.139   4.650
47166SOL     OW43329   2.683   2.232   6.295
47166SOL    HW143330   2.661   2.322   6.317
47166SOL    HW243331   2.682   2.186   6.379
47167SOL     OW43332   6.063   3.168  10.434
47167SOL    HW143333   6.067   3.261  10.412
47167SOL    HW243334   6.046   3.167  10.529
47168SOL     OW43335   7.455  12.940   9.064
47168SOL    HW143336   7.472  12.989   9.145
47168SOL    HW243337   7.367  12.904   9.076
47169SOL     OW43338   7.383   9.930   7.235
47169SOL    HW143339   7.352   9.863   7.173
47169SOL    HW243340   7.470   9.954   7.203
47170SOL     OW43341   2.878  13.089  11.046
47170SOL    HW143342   2.830  13.007  11.052
47170SOL    HW243343   2.810  13.156  11.039
47171SOL     OW43344  12.237   1.290   5.539
47171SOL    HW143345  12.224   1.238   5.460
47171SOL    HW243346  12.188   1.243   5.607
47172SOL     OW43347   7.673  11.756   5.178
47172SOL    HW143348   7.650  11.848   5.191
47172SOL    HW243349   7.747  11.741   5.236
47173SOL     OW43350  14.410  13.922   2.018
47173SOL    HW143351  14.372  13.994   2.068
47173SOL    HW243352  14.345  13.903   1.951
47174SOL     OW43353   5.187   6.415   7.974
47174SOL    HW143354   5.192   6.483   8.042
47174SOL    HW243355   5.173   6.334   8.022
47175SOL     OW43356   3.366  11.743   9.256
47175SOL    HW143357   3.306  11.818   9.264
47175SOL    HW243358   3.340  11.684   9.326
47176SOL     OW43359  13.590  14.815   4.160
47176SOL    HW143360  13.572  14.870   4.083
47176SOL    HW243361  13.504  14.793   4.195
47177SOL     OW43362   5.858   5.494  14.610
47177SOL    HW143363   5.845   5.560  14.541
47177SOL    HW243364   5.814   5.416  14.577
47178SOL     OW43365   8.948   4.713   7.579
47178SOL    HW143366   8.876   4.776   7.585
47178SOL    HW243367   9.026   4.768   7.568
47179SOL     OW43368   3.839  10.851   2.688
47179SOL    HW143369   3.886  10.897   2.618
47179SOL    HW243370   3.899  10.853   2.762
47180SOL     OW43371  13.962  11.443  14.226
47180SOL    HW143372  13.908  11.454  14.148
47180SOL    HW243373  13.946  11.522  14.277
47181SOL     OW43374   7.756   5.499   2.914
47181SOL    HW143375   7.793   5.445   2.845
47181SOL    HW243376   7.666   5.467   2.924
47182SOL     OW43377   6.219  10.907  12.260
47182SOL    HW143378   6.226  10.895  12.354
47182SOL    HW243379   6.132  10.872  12.237
47183SOL     OW43380   1.204   7.520   2.559
47183SOL    HW143381   1.266   7.559   2.621
47183SOL    HW243382   1.121   7.563   2.580
47184SOL     OW43383   9.464  10.141   4.519
47184SOL    HW143384   9.509  10.181   4.445
47184SOL    HW243385   9.384  10.192   4.529
47185SOL     OW43386   5.658  13.589  12.270
47185SOL    HW143387   5.686  13.668  12.315
47185SOL    HW243388   5.739  13.552  12.233
47186SOL     OW43389  14.756  14.019  13.992
47186SOL    HW143390  14.752  14.091  14.054
47186SOL    HW243391  14.698  13.952  14.030
47187SOL     OW43392   6.993  11.001   6.714
47187SOL    HW143393   7.072  10.961   6.678
47187SOL    HW243394   7.018  11.027   6.803
47188SOL     OW43395  12.747  12.608  10.386
47188SOL    HW143396  12.720  12.629  10.475
47188SOL    HW243397  12.841  12.595  10.391
47189SOL     OW43398   3.722   5.351   4.021
47189SOL    HW143399   3.795   5.354   4.083
47189SOL    HW243400   3.698   5.443   4.009
47190SOL     OW43401  10.426  12.767   5.612
47190SOL    HW143402  10.381  12.712   5.676
47190SOL    HW243403  10.415  12.721   5.529
47191SOL     OW43404   5.630  13.175   4.388
47191SOL    HW143405   5.709  13.192   4.439
47191SOL    HW243406   5.642  13.086   4.355
47192SOL     OW43407   7.437   1.360   7.034
47192SOL    HW143408   7.408   1.290   6.975
47192SOL    HW243409   7.355   1.399   7.067
47193SOL     OW43410  13.255  12.596   8.073
47193SOL    HW143411  13.187  12.646   8.118
47193SOL    HW243412  13.268  12.642   7.990
47194SOL     OW43413  11.392   2.635   4.057
47194SOL    HW143414  11.392   2.541   4.073
47194SOL    HW243415  11.481   2.656   4.031
47195SOL     OW43416  10.235   4.552  13.330
47195SOL    HW143417  10.264   4.527  13.418
47195SOL    HW243418  10.271   4.485  13.273
47196SOL     OW43419   3.862   6.819  10.320
47196SOL    HW143420   3.853   6.737  10.273
47196SOL    HW243421   3.907   6.795  10.401
47197SOL     OW43422   2.142   1.651   2.260
47197SOL    HW143423   2.082   1.657   2.185
47197SOL    HW243424   2.086   1.623   2.333
47198SOL     OW43425   6.805   9.581   5.807
47198SOL    HW143426   6.870   9.645   5.779
47198SOL    HW243427   6.746   9.572   5.732
47199SOL     OW43428   6.026   5.991   9.761
47199SOL    HW143429   6.078   6.020   9.686
47199SOL    HW243430   5.935   6.000   9.733
47200SOL     OW43431  12.215  13.518   5.334
47200SOL    HW143432  12.129  13.520   5.376
47200SOL    HW243433  12.218  13.435   5.288
47201SOL     OW43434  12.522   0.744   3.570
47201SOL    HW143435  12.604   0.775   3.608
47201SOL    HW243436  12.479   0.823   3.538
47202SOL     OW43437   5.482   6.836   3.718
47202SOL    HW143438   5.505   6.747   3.747
47202SOL    HW243439   5.522   6.844   3.631
47203SOL     OW43440  14.381   1.652   3.833
47203SOL    HW143441  14.320   1.581   3.854
47203SOL    HW243442  14.401   1.640   3.741
47204SOL     OW43443  14.036   4.866  11.737
47204SOL    HW143444  14.029   4.779  11.697
47204SOL    HW243445  13.988   4.858  11.819
47205SOL     OW43446  11.949  11.804  11.249
47205SOL    HW143447  11.876  11.816  11.188
47205SOL    HW243448  12.024  11.785  11.193
47206SOL     OW43449   9.455   4.563   9.951
47206SOL    HW143450   9.488   4.652   9.963
47206SOL    HW243451   9.529   4.507   9.973
47207SOL     OW43452  11.885   4.927   5.749
47207SOL    HW143453  11.800   4.896   5.719
47207SOL    HW243454  11.903   4.876   5.828
47208SOL     OW43455   2.527   1.113  10.350
47208SOL    HW143456   2.519   1.165  10.270
47208SOL    HW243457   2.490   1.028  10.326
47209SOL     OW43458   7.395   4.539  13.206
47209SOL    HW143459   7.421   4.580  13.124
47209SOL    HW243460   7.301   4.522  13.196
47210SOL     OW43461   6.113   9.031   6.139
47210SOL    HW143462   6.146   8.973   6.208
47210SOL    HW243463   6.098   9.115   6.182
47211SOL     OW43464  14.496  13.737   3.116
47211SOL    HW143465  14.563  13.705   3.176
47211SOL    HW243466  14.515  13.831   3.107
47212SOL     OW43467   0.823  12.689  14.739
47212SOL    HW143468   0.790  12.778  14.733
47212SOL    HW243469   0.908  12.697  14.783
47213SOL     OW43470   5.923   0.446  11.275
47213SOL    HW143471   5.930   0.451  11.370
47213SOL    HW243472   5.838   0.487  11.255
47214SOL     OW43473   7.405  11.163   1.052
47214SOL    HW143474   7.415  11.243   1.103
47214SOL    HW243475   7.430  11.188   0.963
47215SOL     OW43476   0.813  10.242   5.319
47215SOL    HW143477   0.879  10.182   5.355
47215SOL    HW243478   0.804  10.310   5.385
47216SOL     OW43479   8.145  12.541  11.654
47216SOL    HW143480   8.182  12.622  11.617
47216SOL    HW243481   8.187  12.533  11.740
47217SOL     OW43482   2.114   6.353  11.800
47217SOL    HW143483   2.164   6.280  11.763
47217SOL    HW243484   2.065   6.388  11.725
47218SOL     OW43485   2.114   1.607   8.456
47218SOL    HW143486   2.192   1.554   8.475
47218SOL    HW243487   2.041   1.546   8.464
47219SOL     OW43488  13.056  13.142   4.329
47219SOL    HW143489  13.115  13.169   4.258
47219SOL    HW243490  13.011  13.223   4.354
47220SOL     OW43491   0.052  13.736  12.590
47220SOL    HW143492   0.000  13.722  12.510
47220SOL    HW243493   0.141  13.709  12.566
47221SOL     OW43494   8.893  13.621  13.027
47221SOL    HW143495   8.917  13.553  12.964
47221SOL    HW243496   8.968  13.628  13.086
47222SOL     OW43497   1.074   7.194  14.001
47222SOL    HW143498   1.157   7.162  13.967
47222SOL    HW243499   1.095   7.281  14.036
47223SOL     OW43500   1.157  12.339  12.862
47223SOL    HW143501   1.070  12.326  12.825
47223SOL    HW243502   1.189  12.251  12.879
47224SOL     OW43503   1.652  10.877   4.028
47224SOL    HW143504   1.622  10.930   4.103
47224SOL    HW243505   1.738  10.845   4.054
47225SOL     OW43506   2.684  12.126   3.630
47225SOL    HW143507   2.607  12.183   3.641
47225SOL    HW243508   2.691  12.079   3.714
47226SOL     OW43509   2.908   8.622  12.586
47226SOL    HW143510   2.983   8.562  12.586
47226SOL    HW243511   2.938   8.697  12.637
47227SOL     OW43512   0.796   0.690  10.077
47227SOL    HW143513   0.714   0.663  10.118
47227SOL    HW243514   0.773   0.705   9.986
47228SOL     OW43515   5.347   3.069  10.758
47228SOL    HW143516   5.407   3.143  10.750
47228SOL    HW243517   5.374   3.026  10.839
47229SOL     OW43518  14.002   1.829   6.968
47229SOL    HW143519  14.079   1.884   6.981
47229SOL    HW243520  13.971   1.810   7.056
47230SOL     OW43521  14.825   1.349   3.809
47230SOL    HW143522   0.003   1.311   3.881
47230SOL    HW243523   0.004   1.425   3.781
47231SOL     OW43524   5.181  14.452   9.392
47231SOL    HW143525   5.250  14.392   9.420
47231SOL    HW243526   5.170  14.433   9.298
47232SOL     OW43527   1.029   1.297  12.832
47232SOL    HW143528   1.069   1.256  12.755
47232SOL    HW243529   1.104   1.331  12.882
47233SOL     OW43530   7.555  14.512  11.809
47233SOL    HW143531   7.491  14.456  11.854
47233SOL    HW243532   7.546  14.490  11.717
47234SOL     OW43533   4.621   9.109   6.163
47234SOL    HW143534   4.642   9.150   6.079
47234SOL    HW243535   4.526   9.099   6.162
47235SOL     OW43536  11.864   1.503  14.735
47235SOL    HW143537  11.944   1.503  14.683
47235SOL    HW243538  11.875   1.430  14.796
47236SOL     OW43539  13.282   0.173  11.051
47236SOL    HW143540  13.192   0.171  11.019
47236SOL    HW243541  13.336   0.166  10.972
47237SOL     OW43542   5.292  14.015   7.960
47237SOL    HW143543   5.332  14.101   7.944
47237SOL    HW243544   5.351  13.952   7.920
47238SOL     OW43545  11.264   3.842   3.637
47238SOL    HW143546  11.192   3.894   3.672
47238SOL    HW243547  11.252   3.755   3.676
47239SOL     OW43548   4.176   2.059   2.598
47239SOL    HW143549   4.222   2.038   2.679
47239SOL    HW243550   4.184   2.154   2.591
47240SOL     OW43551   0.734   4.923   0.248
47240SOL    HW143552   0.828   4.931   0.266
47240SOL    HW243553   0.725   4.837   0.208
47241SOL     OW43554  12.146   0.510   4.318
47241SOL    HW143555  12.080   0.499   4.386
47241SOL    HW243556  12.221   0.549   4.364
47242SOL     OW43557   8.482  11.800  10.987
47242SOL    HW143558   8.436  11.721  11.014
47242SOL    HW243559   8.414  11.855  10.947
47243SOL     OW43560   4.415  14.575  11.756
47243SOL    HW143561   4.484  14.545  11.815
47243SOL    HW243562   4.362  14.498  11.739
47244SOL     OW43563  13.498   3.593   0.606
47244SOL    HW143564  13.573   3.635   0.564
47244SOL    HW243565  13.423   3.645   0.576
47245SOL     OW43566   8.975   5.461  14.268
47245SOL    HW143567   9.022   5.420  14.196
47245SOL    HW243568   8.883   5.443  14.250
47246SOL     OW43569   3.767   0.071  11.627
47246SOL    HW143570   3.832   0.001  11.635
47246SOL    HW243571   3.790   0.114  11.544
47247SOL     OW43572   0.681   8.001   7.368
47247SOL    HW143573   0.759   7.953   7.395
47247SOL    HW243574   0.684   8.083   7.419
47248SOL     OW43575   5.909   6.105   4.767
47248SOL    HW143576   5.906   6.092   4.862
47248SOL    HW243577   5.910   6.200   4.756
47249SOL     OW43578  11.013   5.919   9.579
47249SOL    HW143579  11.098   5.963   9.584
47249SOL    HW243580  10.963   5.972   9.517
47250SOL     OW43581   7.451  13.398   3.218
47250SOL    HW143582   7.480  13.309   3.237
47250SOL    HW243583   7.359  13.399   3.246
47251SOL     OW43584   9.222   8.128  11.063
47251SOL    HW143585   9.241   8.154  10.973
47251SOL    HW243586   9.127   8.120  11.066
47252SOL     OW43587  10.755  11.567   7.514
47252SOL    HW143588  10.781  11.519   7.593
47252SOL    HW243589  10.690  11.510   7.472
47253SOL     OW43590   6.476  10.562  13.645
47253SOL    HW143591   6.483  10.483  13.591
47253SOL    HW243592   6.567  10.584  13.667
47254SOL     OW43593   5.692   0.293   5.287
47254SOL    HW143594   5.772   0.314   5.335
47254SOL    HW243595   5.632   0.365   5.308
47255SOL     OW43596  13.330  13.598   4.295
47255SOL    HW143597  13.341  13.596   4.200
47255SOL    HW243598  13.261  13.663   4.310
47256SOL     OW43599   8.540   6.965  13.094
47256SOL    HW143600   8.451   6.993  13.071
47256SOL    HW243601   8.540   6.961  13.190
47257SOL     OW43602  14.419   6.403  11.361
47257SOL    HW143603  14.426   6.467  11.432
47257SOL    HW243604  14.326   6.380  11.358
47258SOL     OW43605   5.017   4.121   2.194
47258SOL    HW143606   5.068   4.062   2.249
47258SOL    HW243607   5.071   4.200   2.187
47259SOL     OW43608  12.590  12.151  14.191
47259SOL    HW143609  12.633  12.100  14.122
47259SOL    HW243610  12.612  12.104  14.272
47260SOL     OW43611  12.831  12.569   1.246
47260SOL    HW143612  12.925  12.564   1.258
47260SOL    HW243613  12.794  12.516   1.317
47261SOL     OW43614   0.125   6.332  10.568
47261SOL    HW143615   0.184   6.273  10.616
47261SOL    HW243616   0.100   6.282  10.490
47262SOL     OW43617   4.501  14.662   1.482
47262SOL    HW143618   4.415  14.690   1.511
47262SOL    HW243619   4.493  14.566   1.474
47263SOL     OW43620  14.808   4.819   5.210
47263SOL    HW143621  14.726   4.828   5.259
47263SOL    HW243622  14.846   4.737   5.243
47264SOL     OW43623   9.980   6.143  11.789
47264SOL    HW143624  10.024   6.060  11.772
47264SOL    HW243625   9.953   6.174  11.703
47265SOL     OW43626   9.280  11.500   9.691
47265SOL    HW143627   9.244  11.458   9.612
47265SOL    HW243628   9.228  11.580   9.701
47266SOL     OW43629  11.885   7.767   5.311
47266SOL    HW143630  11.821   7.697   5.305
47266SOL    HW243631  11.833   7.847   5.311
47267SOL     OW43632  11.805   4.375  13.841
47267SOL    HW143633  11.715   4.342  13.839
47267SOL    HW243634  11.805   4.443  13.909
47268SOL     OW43635  13.101   6.717   6.153
47268SOL    HW143636  13.011   6.743   6.134
47268SOL    HW243637  13.153   6.792   6.125
47269SOL     OW43638  13.626   7.450  14.177
47269SOL    HW143639  13.673   7.461  14.094
47269SOL    HW243640  13.691   7.472  14.244
47270SOL     OW43641  13.897   1.712   1.816
47270SOL    HW143642  13.946   1.655   1.875
47270SOL    HW243643  13.864   1.783   1.871
47271SOL     OW43644   3.862  12.533   1.119
47271SOL    HW143645   3.847  12.466   1.186
47271SOL    HW243646   3.932  12.498   1.065
47272SOL     OW43647   1.178  11.590   0.345
47272SOL    HW143648   1.090  11.553   0.347
47272SOL    HW243649   1.236  11.515   0.359
47273SOL     OW43650   4.374  10.826  11.827
47273SOL    HW143651   4.414  10.807  11.742
47273SOL    HW243652   4.389  10.920  11.841
47274SOL     OW43653  14.140   7.986   8.841
47274SOL    HW143654  14.218   7.960   8.793
47274SOL    HW243655  14.172   8.010   8.928
47275SOL     OW43656   9.260   9.969   8.697
47275SOL    HW143657   9.216   9.885   8.708
47275SOL    HW243658   9.285   9.971   8.604
47276SOL     OW43659   1.038   3.443   1.275
47276SOL    HW143660   0.957   3.493   1.265
47276SOL    HW243661   1.064   3.456   1.367
47277SOL     OW43662   7.859   5.696   0.111
47277SOL    HW143663   7.911   5.737   0.180
47277SOL    HW243664   7.778   5.749   0.107
47278SOL     OW43665   1.268  11.823   9.818
47278SOL    HW143666   1.193  11.805   9.875
47278SOL    HW243667   1.332  11.866   9.876
47279SOL     OW43668  10.484   4.984   2.745
47279SOL    HW143669  10.447   5.046   2.684
47279SOL    HW243670  10.524   4.916   2.690
47280SOL     OW43671   1.954   3.948  12.505
47280SOL    HW143672   1.920   3.958  12.416
47280SOL    HW243673   1.976   3.855  12.511
47281SOL     OW43674   9.980   3.851   4.998
47281SOL    HW143675   9.928   3.781   5.038
47281SOL    HW243676   9.931   3.931   5.015
47282SOL     OW43677   9.528   2.430   6.603
47282SOL    HW143678   9.608   2.379   6.590
47282SOL    HW243679   9.466   2.368   6.642
47283SOL     OW43680   5.774   2.399  11.308
47283SOL    HW143681   5.726   2.317  11.295
47283SOL    HW243682   5.712   2.457  11.352
47284SOL     OW43683   1.183  14.815   5.241
47284SOL    HW143684   1.099  14.846   5.209
47284SOL    HW243685   1.247  14.850   5.178
47285SOL     OW43686   0.047   4.173   1.243
47285SOL    HW143687  14.840   4.221   1.220
47285SOL    HW243688   0.024   4.081   1.230
47286SOL     OW43689   2.348  14.261  10.459
47286SOL    HW143690   2.256  14.269  10.432
47286SOL    HW243691   2.397  14.260  10.378
47287SOL     OW43692   3.965   2.729  10.301
47287SOL    HW143693   4.030   2.714  10.369
47287SOL    HW243694   3.977   2.821  10.277
47288SOL     OW43695  10.661   5.602   8.339
47288SOL    HW143696  10.653   5.669   8.406
47288SOL    HW243697  10.728   5.542   8.373
47289SOL     OW43698  14.443  14.187  12.520
47289SOL    HW143699  14.402  14.252  12.577
47289SOL    HW243700  14.522  14.161  12.567
47290SOL     OW43701  14.782   3.487  10.198
47290SOL    HW143702  14.760   3.565  10.249
47290SOL    HW243703  14.706   3.475  10.140
47291SOL     OW43704  12.240   9.650  14.299
47291SOL    HW143705  12.244   9.730  14.352
47291SOL    HW243706  12.180   9.671  14.228
47292SOL     OW43707   4.828  10.503   5.052
47292SOL    HW143708   4.898  10.560   5.085
47292SOL    HW243709   4.818  10.529   4.961
47293SOL     OW43710   6.186  14.775   2.560
47293SOL    HW143711   6.138  14.808   2.636
47293SOL    HW243712   6.219  14.689   2.587
47294SOL     OW43713  10.124   2.279  13.766
47294SOL    HW143714  10.121   2.274  13.861
47294SOL    HW243715  10.032   2.278  13.739
47295SOL     OW43716  14.792   5.297  13.616
47295SOL    HW143717  14.834   5.367  13.666
47295SOL    HW243718  14.746   5.343  13.546
47296SOL     OW43719   5.805  11.980   2.766
47296SOL    HW143720   5.710  11.974   2.772
47296SOL    HW243721   5.836  11.895   2.799
47297SOL     OW43722   4.916   5.621   7.042
47297SOL    HW143723   4.853   5.574   7.096
47297SOL    HW243724   4.871   5.636   6.959
47298SOL     OW43725  12.285   5.658  10.671
47298SOL    HW143726  12.222   5.730  10.677
47298SOL    HW243727  12.234   5.584  10.639
47299SOL     OW43728  10.955   8.261  11.783
47299SOL    HW143729  10.974   8.355  11.790
47299SOL    HW243730  10.943   8.247  11.689
47300SOL     OW43731   9.767   2.733   2.153
47300SOL    HW143732   9.796   2.824   2.161
47300SOL    HW243733   9.768   2.700   2.243
47301SOL     OW43734   0.072   1.146   1.244
47301SOL    HW143735   0.080   1.220   1.183
47301SOL    HW243736   0.096   1.070   1.192
47302SOL     OW43737   4.544   0.984   5.148
47302SOL    HW143738   4.457   0.963   5.181
47302SOL    HW243739   4.536   1.073   5.113
47303SOL     OW43740  13.780  14.140   4.969
47303SOL    HW143741  13.807  14.143   4.877
47303SOL    HW243742  13.687  14.121   4.965
47304SOL     OW43743  11.527   6.733  12.426
47304SOL    HW143744  11.454   6.674  12.408
47304SOL    HW243745  11.487   6.820  12.429
47305SOL     OW43746   5.676   9.778   9.639
47305SOL    HW143747   5.616   9.706   9.622
47305SOL    HW243748   5.640   9.852   9.591
47306SOL     OW43749   8.687   6.167   8.521
47306SOL    HW143750   8.617   6.226   8.549
47306SOL    HW243751   8.704   6.192   8.431
47307SOL     OW43752   9.592  10.841   2.094
47307SOL    HW143753   9.631  10.760   2.125
47307SOL    HW243754   9.522  10.860   2.157
47308SOL     OW43755  13.352   1.835   6.805
47308SOL    HW143756  13.296   1.774   6.757
47308SOL    HW243757  13.433   1.838   6.753
47309SOL     OW43758   9.785  13.340   9.076
47309SOL    HW143759   9.701  13.331   9.120
47309SOL    HW243760   9.773  13.299   8.990
47310SOL     OW43761   8.848  13.171   8.075
47310SOL    HW143762   8.763  13.167   8.030
47310SOL    HW243763   8.849  13.094   8.131
47311SOL     OW43764   9.571   3.053   8.546
47311SOL    HW143765   9.479   3.027   8.540
47311SOL    HW243766   9.574   3.141   8.509
47312SOL     OW43767   8.746  10.881   3.543
47312SOL    HW143768   8.685  10.839   3.482
47312SOL    HW243769   8.697  10.955   3.579
47313SOL     OW43770   7.332   0.710   2.891
47313SOL    HW143771   7.316   0.749   2.805
47313SOL    HW243772   7.389   0.636   2.874
47314SOL     OW43773  10.815   9.091   8.392
47314SOL    HW143774  10.747   9.096   8.325
47314SOL    HW243775  10.853   9.179   8.393
47315SOL     OW43776  12.551   1.359   5.230
47315SOL    HW143777  12.537   1.317   5.315
47315SOL    HW243778  12.592   1.291   5.176
47316SOL     OW43779   8.296   7.517   6.776
47316SOL    HW143780   8.223   7.578   6.786
47316SOL    HW243781   8.255   7.432   6.761
47317SOL     OW43782   4.148  11.637  12.374
47317SOL    HW143783   4.150  11.567  12.440
47317SOL    HW243784   4.103  11.710  12.418
47318SOL     OW43785   4.041   2.834   8.746
47318SOL    HW143786   4.056   2.928   8.755
47318SOL    HW243787   4.078   2.812   8.660
47319SOL     OW43788   7.876  13.999  12.199
47319SOL    HW143789   7.790  14.037  12.215
47319SOL    HW243790   7.884  13.998  12.103
47320SOL     OW43791   4.187   1.944   5.580
47320SOL    HW143792   4.150   1.908   5.499
47320SOL    HW243793   4.279   1.962   5.558
47321SOL     OW43794   5.648  12.106   0.255
47321SOL    HW143795   5.671  12.141   0.341
47321SOL    HW243796   5.703  12.029   0.246
47322SOL     OW43797   2.176  10.139  13.524
47322SOL    HW143798   2.212  10.107  13.441
47322SOL    HW243799   2.141  10.226  13.503
47323SOL     OW43800  11.283   9.767  14.530
47323SOL    HW143801  11.302   9.831  14.462
47323SOL    HW243802  11.193   9.788  14.557
47324SOL     OW43803   6.097  12.628   4.498
47324SOL    HW143804   6.141  12.618   4.413
47324SOL    HW243805   6.008  12.596   4.484
47325SOL     OW43806   3.700   8.968   0.548
47325SOL    HW143807   3.695   9.056   0.511
47325SOL    HW243808   3.779   8.930   0.509
47326SOL     OW43809   7.061   8.986   6.548
47326SOL    HW143810   7.073   9.075   6.516
47326SOL    HW243811   7.122   8.978   6.621
47327SOL     OW43812  11.246   0.823  14.102
47327SOL    HW143813  11.246   0.815  14.198
47327SOL    HW243814  11.317   0.765  14.073
47328SOL     OW43815   2.884   0.027   9.798
47328SOL    HW143816   2.827   0.073   9.860
47328SOL    HW243817   2.969   0.023   9.842
47329SOL     OW43818  10.026  14.400  11.877
47329SOL    HW143819   9.995  14.372  11.791
47329SOL    HW243820   9.946  14.416  11.928
47330SOL     OW43821  10.727   8.489   3.678
47330SOL    HW143822  10.781   8.568   3.690
47330SOL    HW243823  10.658   8.497   3.743
47331SOL     OW43824   6.841   3.383   0.147
47331SOL    HW143825   6.864   3.476   0.144
47331SOL    HW243826   6.924   3.339   0.165
47332SOL     OW43827   9.607   1.827   7.531
47332SOL    HW143828   9.655   1.744   7.539
47332SOL    HW243829   9.653   1.875   7.462
47333SOL     OW43830   0.873  10.664   3.918
47333SOL    HW143831   0.848  10.756   3.933
47333SOL    HW243832   0.933  10.643   3.989
47334SOL     OW43833  11.575  10.342  10.393
47334SOL    HW143834  11.488  10.303  10.408
47334SOL    HW243835  11.636  10.271  10.411
47335SOL     OW43836  11.937   8.115  10.231
47335SOL    HW143837  11.974   8.106  10.319
47335SOL    HW243838  11.951   8.029  10.191
47336SOL     OW43839   1.972  13.449  13.642
47336SOL    HW143840   1.925  13.523  13.681
47336SOL    HW243841   1.947  13.451  13.549
47337SOL     OW43842  14.180   6.632  10.678
47337SOL    HW143843  14.128   6.607  10.753
47337SOL    HW243844  14.126   6.610  10.602
47338SOL     OW43845   9.614   0.532  11.430
47338SOL    HW143846   9.612   0.558  11.522
47338SOL    HW243847   9.675   0.593  11.389
47339SOL     OW43848  12.402  10.536   9.396
47339SOL    HW143849  12.348  10.568   9.468
47339SOL    HW243850  12.378  10.443   9.388
47340SOL     OW43851   8.371   7.457   5.825
47340SOL    HW143852   8.297   7.509   5.856
47340SOL    HW243853   8.347   7.367   5.845
47341SOL     OW43854   2.416  13.312   8.701
47341SOL    HW143855   2.427  13.403   8.672
47341SOL    HW243856   2.441  13.260   8.624
47342SOL     OW43857   1.616  13.183  14.356
47342SOL    HW143858   1.636  13.218  14.269
47342SOL    HW243859   1.701  13.152  14.388
47343SOL     OW43860  10.627  10.815   8.075
47343SOL    HW143861  10.555  10.853   8.025
47343SOL    HW243862  10.673  10.758   8.013
47344SOL     OW43863   0.364   8.974   4.056
47344SOL    HW143864   0.392   8.883   4.066
47344SOL    HW243865   0.359   9.008   4.146
47345SOL     OW43866   7.971   4.027   0.216
47345SOL    HW143867   8.062   4.038   0.243
47345SOL    HW243868   7.972   4.039   0.121
47346SOL     OW43869   6.727  12.129   0.506
47346SOL    HW143870   6.726  12.056   0.444
47346SOL    HW243871   6.679  12.199   0.461
47347SOL     OW43872   5.238   2.487   2.758
47347SOL    HW143873   5.191   2.445   2.830
47347SOL    HW243874   5.178   2.483   2.684
47348SOL     OW43875   3.342  12.562   8.069
47348SOL    HW143876   3.320  12.499   8.000
47348SOL    HW243877   3.348  12.509   8.149
47349SOL     OW43878   9.202   6.928   4.507
47349SOL    HW143879   9.159   6.900   4.427
47349SOL    HW243880   9.194   6.853   4.566
47350SOL     OW43881   0.540   6.977  13.673
47350SOL    HW143882   0.628   7.008  13.652
47350SOL    HW243883   0.552   6.886  13.702
47351SOL     OW43884   9.749  13.800   2.014
47351SOL    HW143885   9.808  13.861   2.058
47351SOL    HW243886   9.763  13.816   1.921
47352SOL     OW43887   9.839  11.247   2.637
47352SOL    HW143888   9.761  11.245   2.581
47352SOL    HW243889   9.845  11.159   2.673
47353SOL     OW43890   0.917  14.598   2.585
47353SOL    HW143891   0.947  14.554   2.505
47353SOL    HW243892   0.871  14.530   2.634
47354SOL     OW43893  10.537   2.953  10.581
47354SOL    HW143894  10.609   2.990  10.632
47354SOL    HW243895  10.509   2.876  10.632
47355SOL     OW43896  11.459  12.175   9.355
47355SOL    HW143897  11.426  12.255   9.397
47355SOL    HW243898  11.471  12.114   9.427
47356SOL     OW43899   1.772   9.503  11.066
47356SOL    HW143900   1.783   9.485  11.159
47356SOL    HW243901   1.749   9.418  11.028
47357SOL     OW43902   7.016  12.635   2.277
47357SOL    HW143903   6.922  12.636   2.294
47357SOL    HW243904   7.029  12.561   2.218
47358SOL     OW43905   9.655   6.380   6.983
47358SOL    HW143906   9.717   6.419   6.922
47358SOL    HW243907   9.616   6.307   6.935
47359SOL     OW43908  14.277  13.306   2.593
47359SOL    HW143909  14.318  13.223   2.567
47359SOL    HW243910  14.335  13.373   2.557
47360SOL     OW43911  12.948  13.878   8.649
47360SOL    HW143912  13.019  13.911   8.704
47360SOL    HW243913  12.979  13.793   8.618
47361SOL     OW43914   5.974  12.366   6.858
47361SOL    HW143915   6.046  12.302   6.854
47361SOL    HW243916   6.013  12.443   6.899
47362SOL     OW43917  10.643  11.083   2.383
47362SOL    HW143918  10.581  11.010   2.392
47362SOL    HW243919  10.727  11.046   2.409
47363SOL     OW43920  10.266   8.414   4.552
47363SOL    HW143921  10.252   8.353   4.625
47363SOL    HW243922  10.359   8.408   4.533
47364SOL     OW43923  12.666   9.256  13.750
47364SOL    HW143924  12.590   9.240  13.694
47364SOL    HW243925  12.741   9.246  13.692
47365SOL     OW43926   9.334  10.655  10.228
47365SOL    HW143927   9.319  10.705  10.308
47365SOL    HW243928   9.358  10.567  10.258
47366SOL     OW43929  11.111  12.019   8.500
47366SOL    HW143930  11.028  11.980   8.473
47366SOL    HW243931  11.139  11.966   8.575
47367SOL     OW43932  11.217   8.573  11.530
47367SOL    HW143933  11.141   8.552  11.585
47367SOL    HW243934  11.190   8.653  11.484
47368SOL     OW43935   4.079   4.346  10.372
47368SOL    HW143936   4.152   4.323  10.316
47368SOL    HW243937   4.047   4.429  10.336
47369SOL     OW43938   6.062   7.932   4.405
47369SOL    HW143939   6.049   7.975   4.321
47369SOL    HW243940   6.038   7.998   4.470
47370SOL     OW43941   6.261  12.653  11.761
47370SOL    HW143942   6.179  12.682  11.722
47370SOL    HW243943   6.307  12.734  11.785
47371SOL     OW43944  14.742   4.912   4.362
47371SOL    HW143945  14.763   4.928   4.454
47371SOL    HW243946  14.692   4.989   4.335
47372SOL     OW43947  13.114   8.010   5.881
47372SOL    HW143948  13.034   7.984   5.836
47372SOL    HW243949  13.132   8.098   5.849
47373SOL     OW43950   8.363   3.589   0.905
47373SOL    HW143951   8.402   3.511   0.867
47373SOL    HW243952   8.436   3.650   0.915
47374SOL     OW43953   5.502  11.425  11.032
47374SOL    HW143954   5.518  11.349  11.088
47374SOL    HW243955   5.407  11.434  11.030
47375SOL     OW43956   9.224  13.479   4.364
47375SOL    HW143957   9.139  13.500   4.405
47375SOL    HW243958   9.287  13.485   4.436
47376SOL     OW43959  14.191   9.824   0.841
47376SOL    HW143960  14.149   9.908   0.825
47376SOL    HW243961  14.281   9.836   0.810
47377SOL     OW43962  12.697  10.410   1.707
47377SOL    HW143963  12.785  10.387   1.740
47377SOL    HW243964  12.664  10.473   1.772
47378SOL     OW43965   6.714   0.054  14.009
47378SOL    HW143966   6.733   0.086  14.097
47378SOL    HW243967   6.799   0.042  13.968
47379SOL     OW43968   2.087  11.598   8.094
47379SOL    HW143969   2.069  11.608   8.187
47379SOL    HW243970   2.149  11.668   8.074
47380SOL     OW43971   2.296  12.421   0.454
47380SOL    HW143972   2.385  12.385   0.457
47380SOL    HW243973   2.243  12.357   0.502
47381SOL     OW43974   4.273  10.728  11.339
47381SOL    HW143975   4.331  10.654  11.323
47381SOL    HW243976   4.241  10.753  11.252
47382SOL     OW43977  11.448  10.127   9.095
47382SOL    HW143978  11.360  10.091   9.096
47382SOL    HW243979  11.437  10.218   9.067
47383SOL     OW43980  12.875  12.114   9.196
47383SOL    HW143981  12.918  12.104   9.281
47383SOL    HW243982  12.864  12.024   9.164
47384SOL     OW43983   5.808  10.133   7.204
47384SOL    HW143984   5.871  10.068   7.234
47384SOL    HW243985   5.726  10.084   7.194
47385SOL     OW43986   8.812  11.375   1.193
47385SOL    HW143987   8.906  11.358   1.187
47385SOL    HW243988   8.793  11.432   1.118
47386SOL     OW43989   4.658  10.611   8.496
47386SOL    HW143990   4.599  10.685   8.511
47386SOL    HW243991   4.735  10.632   8.549
47387SOL     OW43992   4.018  13.807   5.066
47387SOL    HW143993   3.934  13.819   5.022
47387SOL    HW243994   4.083  13.817   4.997
47388SOL     OW43995   6.809   1.378  10.575
47388SOL    HW143996   6.784   1.381  10.668
47388SOL    HW243997   6.792   1.467  10.543
47389SOL     OW43998   4.291   0.243   0.712
47389SOL    HW143999   4.353   0.174   0.735
47389SOL    HW244000   4.274   0.230   0.619
47390SOL     OW44001  14.811   1.655   9.864
47390SOL    HW144002  14.851   1.682   9.781
47390SOL    HW244003  14.818   1.732   9.920
47391SOL     OW44004   1.467   7.106   8.015
47391SOL    HW144005   1.468   7.012   7.997
47391SOL    HW244006   1.518   7.145   7.943
47392SOL     OW44007  10.893  12.100   5.460
47392SOL    HW144008  10.851  12.185   5.457
47392SOL    HW244009  10.845  12.046   5.397
47393SOL     OW44010   6.124   6.836   3.197
47393SOL    HW144011   6.069   6.908   3.228
47393SOL    HW244012   6.204   6.879   3.167
47394SOL     OW44013  11.804   2.435   3.291
47394SOL    HW144014  11.800   2.481   3.376
47394SOL    HW244015  11.781   2.345   3.312
47395SOL     OW44016   0.400  14.783   3.143
47395SOL    HW144017   0.314  14.750   3.115
47395SOL    HW244018   0.434  14.828   3.065
47396SOL     OW44019   6.226   5.641  10.693
47396SOL    HW144020   6.215   5.710  10.758
47396SOL    HW244021   6.299   5.589  10.725
47397SOL     OW44022   7.548   4.116   5.794
47397SOL    HW144023   7.478   4.139   5.856
47397SOL    HW244024   7.545   4.021   5.788
47398SOL     OW44025  10.411   2.931   8.488
47398SOL    HW144026  10.419   3.026   8.488
47398SOL    HW244027  10.380   2.909   8.576
47399SOL     OW44028  14.538  11.727   7.551
47399SOL    HW144029  14.569  11.691   7.468
47399SOL    HW244030  14.515  11.818   7.532
47400SOL     OW44031  12.413   6.412   9.985
47400SOL    HW144032  12.339   6.441  10.038
47400SOL    HW244033  12.404   6.461   9.903
47401SOL     OW44034   2.850   3.110   6.554
47401SOL    HW144035   2.874   3.138   6.642
47401SOL    HW244036   2.823   3.019   6.564
47402SOL     OW44037  11.489   3.621   7.263
47402SOL    HW144038  11.436   3.693   7.296
47402SOL    HW244039  11.541   3.593   7.339
47403SOL     OW44040   0.049   8.528   6.166
47403SOL    HW144041   0.009   8.591   6.225
47403SOL    HW244042   0.120   8.488   6.217
47404SOL     OW44043  12.600   2.891   6.867
47404SOL    HW144044  12.520   2.868   6.914
47404SOL    HW244045  12.575   2.966   6.812
47405SOL     OW44046  12.479  10.335  12.741
47405SOL    HW144047  12.568  10.302  12.746
47405SOL    HW244048  12.428  10.262  12.707
47406SOL     OW44049   9.949   9.286   9.216
47406SOL    HW144050   9.921   9.266   9.126
47406SOL    HW244051  10.000   9.209   9.242
47407SOL     OW44052  12.946   1.455  10.617
47407SOL    HW144053  12.866   1.439  10.566
47407SOL    HW244054  12.924   1.529  10.674
47408SOL     OW44055   8.708  14.682   2.241
47408SOL    HW144056   8.670  14.754   2.191
47408SOL    HW244057   8.660  14.682   2.324
47409SOL     OW44058   4.270  11.544   4.895
47409SOL    HW144059   4.237  11.525   4.983
47409SOL    HW244060   4.306  11.461   4.864
47410SOL     OW44061  12.864   2.372   8.750
47410SOL    HW144062  12.862   2.289   8.796
47410SOL    HW244063  12.898   2.351   8.663
47411SOL     OW44064   5.428   4.304   9.416
47411SOL    HW144065   5.496   4.240   9.437
47411SOL    HW244066   5.346   4.255   9.426
47412SOL     OW44067   9.609   6.223  12.240
47412SOL    HW144068   9.679   6.287  12.252
47412SOL    HW244069   9.655   6.141  12.222
47413SOL     OW44070   9.205   2.366   3.566
47413SOL    HW144071   9.126   2.321   3.536
47413SOL    HW244072   9.180   2.402   3.652
47414SOL     OW44073  14.090   3.150   8.505
47414SOL    HW144074  14.131   3.232   8.531
47414SOL    HW244075  14.078   3.102   8.587
47415SOL     OW44076   5.051   2.447  14.528
47415SOL    HW144077   4.992   2.506  14.480
47415SOL    HW244078   5.028   2.461  14.620
47416SOL     OW44079   7.638   3.109   6.758
47416SOL    HW144080   7.560   3.100   6.703
47416SOL    HW244081   7.605   3.147   6.839
47417SOL     OW44082   2.022   1.773  10.876
47417SOL    HW144083   2.062   1.846  10.828
47417SOL    HW244084   2.010   1.806  10.965
47418SOL     OW44085  14.112   6.959   0.113
47418SOL    HW144086  14.041   7.023   0.112
47418SOL    HW244087  14.068   6.876   0.132
47419SOL     OW44088   4.677   9.534  10.225
47419SOL    HW144089   4.730   9.456  10.210
47419SOL    HW244090   4.670   9.540  10.320
47420SOL     OW44091  13.448   3.395   8.604
47420SOL    HW144092  13.379   3.401   8.539
47420SOL    HW244093  13.522   3.442   8.565
47421SOL     OW44094  12.198   3.380   4.395
47421SOL    HW144095  12.216   3.446   4.328
47421SOL    HW244096  12.284   3.351   4.425
47422SOL     OW44097   2.470  12.296   0.188
47422SOL    HW144098   2.441  12.381   0.153
47422SOL    HW244099   2.565  12.295   0.174
47423SOL     OW44100  10.759   6.721  14.292
47423SOL    HW144101  10.743   6.637  14.336
47423SOL    HW244102  10.724   6.709  14.204
47424SOL     OW44103  11.191   4.217   5.678
47424SOL    HW144104  11.266   4.157   5.676
47424SOL    HW244105  11.204   4.274   5.603
47425SOL     OW44106   3.238   4.733  12.131
47425SOL    HW144107   3.248   4.659  12.190
47425SOL    HW244108   3.312   4.725  12.070
47426SOL     OW44109   3.226   6.638   8.129
47426SOL    HW144110   3.313   6.676   8.122
47426SOL    HW244111   3.239   6.544   8.118
47427SOL     OW44112   4.238   4.074  14.022
47427SOL    HW144113   4.147   4.046  14.034
47427SOL    HW244114   4.259   4.120  14.104
47428SOL     OW44115  12.762   1.302   6.717
47428SOL    HW144116  12.683   1.250   6.706
47428SOL    HW244117  12.762   1.326   6.810
47429SOL     OW44118  11.154   1.818   2.867
47429SOL    HW144119  11.058   1.819   2.874
47429SOL    HW244120  11.184   1.839   2.955
47430SOL     OW44121   0.285   6.790  10.283
47430SOL    HW144122   0.259   6.714  10.334
47430SOL    HW244123   0.244   6.864  10.327
47431SOL     OW44124   4.565  12.343   2.268
47431SOL    HW144125   4.478  12.340   2.307
47431SOL    HW244126   4.561  12.417   2.206
47432SOL     OW44127   0.861   2.369   3.726
47432SOL    HW144128   0.888   2.425   3.653
47432SOL    HW244129   0.787   2.319   3.692
47433SOL     OW44130  10.642   1.659   4.747
47433SOL    HW144131  10.732   1.687   4.765
47433SOL    HW244132  10.643   1.565   4.760
47434SOL     OW44133   5.324   4.330   7.210
47434SOL    HW144134   5.236   4.329   7.172
47434SOL    HW244135   5.309   4.330   7.305
47435SOL     OW44136   1.795   8.578   7.225
47435SOL    HW144137   1.828   8.652   7.276
47435SOL    HW244138   1.736   8.532   7.285
47436SOL     OW44139  12.891   7.115   0.796
47436SOL    HW144140  12.865   7.044   0.855
47436SOL    HW244141  12.924   7.184   0.854
47437SOL     OW44142  14.290  10.609   1.681
47437SOL    HW144143  14.306  10.678   1.746
47437SOL    HW244144  14.374  10.598   1.637
47438SOL     OW44145  10.482   3.954   8.564
47438SOL    HW144146  10.541   3.904   8.620
47438SOL    HW244147  10.502   4.046   8.584
47439SOL     OW44148   8.685  10.155  12.362
47439SOL    HW144149   8.722  10.110  12.286
47439SOL    HW244150   8.748  10.140  12.432
47440SOL     OW44151   0.148   4.219  13.055
47440SOL    HW144152   0.056   4.225  13.028
47440SOL    HW244153   0.160   4.127  13.076
47441SOL     OW44154   7.258  14.610   1.547
47441SOL    HW144155   7.179  14.646   1.587
47441SOL    HW244156   7.290  14.678   1.488
47442SOL     OW44157   7.014  13.992  14.749
47442SOL    HW144158   7.066  14.053  14.697
47442SOL    HW244159   7.003  14.036  14.834
47443SOL     OW44160   0.635   4.734   7.174
47443SOL    HW144161   0.705   4.697   7.120
47443SOL    HW244162   0.610   4.814   7.129
47444SOL     OW44163   2.210   8.927   1.618
47444SOL    HW144164   2.129   8.933   1.668
47444SOL    HW244165   2.182   8.932   1.527
47445SOL     OW44166  13.674   4.504   2.454
47445SOL    HW144167  13.621   4.490   2.533
47445SOL    HW244168  13.686   4.599   2.450
47446SOL     OW44169   9.204   0.922  10.951
47446SOL    HW144170   9.156   0.860  11.006
47446SOL    HW244171   9.296   0.902  10.966
47447SOL     OW44172  10.102   5.505  13.888
47447SOL    HW144173  10.127   5.415  13.864
47447SOL    HW244174  10.075   5.545  13.805
47448SOL     OW44175   0.177  10.028   4.314
47448SOL    HW144176   0.169   9.976   4.234
47448SOL    HW244177   0.176   9.964   4.385
47449SOL     OW44178   9.904  13.359  10.070
47449SOL    HW144179   9.908  13.451  10.095
47449SOL    HW244180   9.875  13.314  10.149
47450SOL     OW44181  12.180   6.882  12.106
47450SOL    HW144182  12.262   6.846  12.137
47450SOL    HW244183  12.129   6.806  12.078
47451SOL     OW44184   6.873   0.858   7.725
47451SOL    HW144185   6.919   0.924   7.776
47451SOL    HW244186   6.825   0.908   7.659
47452SOL     OW44187   3.248  14.377   2.155
47452SOL    HW144188   3.200  14.305   2.194
47452SOL    HW244189   3.236  14.450   2.216
47453SOL     OW44190   7.998   9.422   9.526
47453SOL    HW144191   8.035   9.341   9.560
47453SOL    HW244192   7.993   9.408   9.431
47454SOL     OW44193  12.015  12.352   5.903
47454SOL    HW144194  12.079  12.422   5.917
47454SOL    HW244195  11.951  12.389   5.842
47455SOL     OW44196   5.724   8.460  14.101
47455SOL    HW144197   5.644   8.422  14.066
47455SOL    HW244198   5.735   8.542  14.054
47456SOL     OW44199   7.777  12.052   1.902
47456SOL    HW144200   7.791  12.094   1.987
47456SOL    HW244201   7.823  11.968   1.908
47457SOL     OW44202   5.817   7.508   7.696
47457SOL    HW144203   5.827   7.413   7.696
47457SOL    HW244204   5.748   7.526   7.760
47458SOL     OW44205   5.433   8.093   1.432
47458SOL    HW144206   5.440   8.009   1.385
47458SOL    HW244207   5.346   8.126   1.409
47459SOL     OW44208   0.153   8.302   6.752
47459SOL    HW144209   0.089   8.264   6.693
47459SOL    HW244210   0.161   8.239   6.823
47460SOL     OW44211   9.895  11.410   0.605
47460SOL    HW144212   9.894  11.394   0.511
47460SOL    HW244213   9.803  11.406   0.631
47461SOL     OW44214   0.758   2.338  12.805
47461SOL    HW144215   0.751   2.243  12.810
47461SOL    HW244216   0.672   2.367  12.777
47462SOL     OW44217   6.310   2.614   5.042
47462SOL    HW144218   6.316   2.558   5.119
47462SOL    HW244219   6.287   2.700   5.076
47463SOL     OW44220  10.102   4.508   9.160
47463SOL    HW144221  10.130   4.586   9.112
47463SOL    HW244222  10.115   4.531   9.252
47464SOL     OW44223   2.605   2.424   0.792
47464SOL    HW144224   2.699   2.407   0.791
47464SOL    HW244225   2.566   2.339   0.772
47465SOL     OW44226   3.356   7.209   5.689
47465SOL    HW144227   3.281   7.150   5.700
47465SOL    HW244228   3.361   7.257   5.771
47466SOL     OW44229  11.129   9.118   1.309
47466SOL    HW144230  11.058   9.078   1.259
47466SOL    HW244231  11.208   9.071   1.279
47467SOL     OW44232   7.536  13.868  14.438
47467SOL    HW144233   7.441  13.862  14.450
47467SOL    HW244234   7.564  13.777  14.430
47468SOL     OW44235   5.562   5.159   9.815
47468SOL    HW144236   5.583   5.085   9.758
47468SOL    HW244237   5.546   5.232   9.755
47469SOL     OW44238  12.348  14.054   8.658
47469SOL    HW144239  12.274  14.110   8.684
47469SOL    HW244240  12.420  14.115   8.642
47470SOL     OW44241   8.725  13.775  13.389
47470SOL    HW144242   8.728  13.680  13.393
47470SOL    HW244243   8.660  13.794  13.321
47471SOL     OW44244   6.587   2.265  14.329
47471SOL    HW144245   6.600   2.334  14.263
47471SOL    HW244246   6.624   2.186  14.289
47472SOL     OW44247   6.359   4.501   0.054
47472SOL    HW144248   6.282   4.550   0.026
47472SOL    HW244249   6.400   4.556   0.121
47473SOL     OW44250   9.290   5.347  14.704
47473SOL    HW144251   9.248   5.278  14.653
47473SOL    HW244252   9.366   5.372  14.651
47474SOL     OW44253  10.899   3.087  10.583
47474SOL    HW144254  10.818   3.096  10.632
47474SOL    HW244255  10.900   2.996  10.554
47475SOL     OW44256  14.673   7.800   9.819
47475SOL    HW144257  14.591   7.751   9.814
47475SOL    HW244258  14.648   7.890   9.799
47476SOL     OW44259  14.273   9.564   9.033
47476SOL    HW144260  14.361   9.564   8.995
47476SOL    HW244261  14.261   9.475   9.067
47477SOL     OW44262   4.092   5.566   9.165
47477SOL    HW144263   4.084   5.640   9.227
47477SOL    HW244264   4.113   5.491   9.220
47478SOL     OW44265   4.422  10.231   5.100
47478SOL    HW144266   4.486  10.170   5.063
47478SOL    HW244267   4.380  10.271   5.024
47479SOL     OW44268   4.250  13.758  14.505
47479SOL    HW144269   4.341  13.752  14.475
47479SOL    HW244270   4.212  13.672  14.485
47480SOL     OW44271  10.412   6.383  12.639
47480SOL    HW144272  10.494   6.405  12.594
47480SOL    HW244273  10.433   6.304  12.689
47481SOL     OW44274   2.965   2.210  10.989
47481SOL    HW144275   2.961   2.283  10.929
47481SOL    HW244276   2.882   2.213  11.037
47482SOL     OW44277  13.654   3.508   1.712
47482SOL    HW144278  13.731   3.488   1.659
47482SOL    HW244279  13.674   3.593   1.753
47483SOL     OW44280   8.187   1.152   3.930
47483SOL    HW144281   8.264   1.183   3.978
47483SOL    HW244282   8.149   1.231   3.892
47484SOL     OW44283   3.294   7.761  10.979
47484SOL    HW144284   3.369   7.740  11.035
47484SOL    HW244285   3.332   7.803  10.902
47485SOL     OW44286   6.905   3.226  14.777
47485SOL    HW144287   6.847   3.281  14.830
47485SOL    HW244288   6.908   3.143  14.824
47486SOL     OW44289   3.361   6.305   9.823
47486SOL    HW144290   3.290   6.345   9.874
47486SOL    HW244291   3.332   6.215   9.808
47487SOL     OW44292  11.071  12.778  14.366
47487SOL    HW144293  10.994  12.724  14.346
47487SOL    HW244294  11.109  12.797  14.280
47488SOL     OW44295  11.406   6.141   8.008
47488SOL    HW144296  11.370   6.129   8.096
47488SOL    HW244297  11.500   6.148   8.022
47489SOL     OW44298   9.427  11.706   4.628
47489SOL    HW144299   9.467  11.752   4.701
47489SOL    HW244300   9.455  11.755   4.551
47490SOL     OW44301   7.782   7.686  10.892
47490SOL    HW144302   7.838   7.748  10.845
47490SOL    HW244303   7.752   7.735  10.969
47491SOL     OW44304   6.771   9.094   9.366
47491SOL    HW144305   6.823   9.174   9.367
47491SOL    HW244306   6.711   9.105   9.292
47492SOL     OW44307   6.678   9.410   7.116
47492SOL    HW144308   6.720   9.495   7.099
47492SOL    HW244309   6.643   9.384   7.030
47493SOL     OW44310   7.934   5.706  14.518
47493SOL    HW144311   7.956   5.677  14.606
47493SOL    HW244312   7.858   5.653  14.493
47494SOL     OW44313   5.044   9.268   5.121
47494SOL    HW144314   5.122   9.322   5.106
47494SOL    HW244315   5.071   9.180   5.096
47495SOL     OW44316   0.107   7.152   4.077
47495SOL    HW144317   0.115   7.060   4.103
47495SOL    HW244318   0.042   7.151   4.006
47496SOL     OW44319   9.673   9.004   0.925
47496SOL    HW144320   9.673   9.097   0.902
47496SOL    HW244321   9.732   8.998   1.000
47497SOL     OW44322   8.567  13.730   8.723
47497SOL    HW144323   8.473  13.712   8.720
47497SOL    HW244324   8.588  13.735   8.817
47498SOL     OW44325   0.374   8.352  12.767
47498SOL    HW144326   0.462   8.314  12.759
47498SOL    HW244327   0.324   8.286  12.815
47499SOL     OW44328  12.016  11.533  10.993
47499SOL    HW144329  12.080  11.580  11.046
47499SOL    HW244330  12.059  11.520  10.908
47500SOL     OW44331  11.782   0.096   7.429
47500SOL    HW144332  11.804   0.017   7.476
47500SOL    HW244333  11.844   0.099   7.356
47501SOL     OW44334   0.711   1.726  12.036
47501SOL    HW144335   0.801   1.722  12.068
47501SOL    HW244336   0.719   1.727  11.941
47502SOL     OW44337  10.957   0.716  12.871
47502SOL    HW144338  10.885   0.779  12.869
47502SOL    HW244339  10.921   0.637  12.830
47503SOL     OW44340  12.394  12.235  12.122
47503SOL    HW144341  12.478  12.238  12.168
47503SOL    HW244342  12.407  12.289  12.044
47504SOL     OW44343   0.174   0.610   2.420
47504SOL    HW144344   0.139   0.592   2.507
47504SOL    HW244345   0.173   0.706   2.414
47505SOL     OW44346   6.176  12.206   1.983
47505SOL    HW144347   6.221  12.195   1.899
47505SOL    HW244348   6.118  12.281   1.970
47506SOL     OW44349   5.523   7.048   3.896
47506SOL    HW144350   5.528   6.971   3.839
47506SOL    HW244351   5.447   7.032   3.951
47507SOL     OW44352  10.182   1.259  14.308
47507SOL    HW144353  10.157   1.269  14.216
47507SOL    HW244354  10.195   1.348  14.339
47508SOL     OW44355   9.891   4.851  13.818
47508SOL    HW144356   9.846   4.767  13.829
47508SOL    HW244357   9.982   4.832  13.842
47509SOL     OW44358  14.752   9.903  12.576
47509SOL    HW144359  14.696   9.921  12.500
47509SOL    HW244360  14.797   9.822  12.554
47510SOL     OW44361   6.701   3.886  11.750
47510SOL    HW144362   6.753   3.858  11.825
47510SOL    HW244363   6.632   3.942  11.788
47511SOL     OW44364  12.089  12.309  12.930
47511SOL    HW144365  12.138  12.278  12.854
47511SOL    HW244366  12.041  12.232  12.960
47512SOL     OW44367   7.604   4.541   0.155
47512SOL    HW144368   7.658   4.619   0.168
47512SOL    HW244369   7.514   4.573   0.166
47513SOL     OW44370   2.451   8.973  14.156
47513SOL    HW144371   2.491   9.055  14.184
47513SOL    HW244372   2.517   8.906  14.177
47514SOL     OW44373  13.802  11.852   6.972
47514SOL    HW144374  13.772  11.916   7.036
47514SOL    HW244375  13.896  11.843   6.990
47515SOL     OW44376   9.498   3.628  10.124
47515SOL    HW144377   9.566   3.620  10.192
47515SOL    HW244378   9.416   3.635  10.173
47516SOL     OW44379   6.431  13.339   0.837
47516SOL    HW144380   6.354  13.393   0.822
47516SOL    HW244381   6.401  13.249   0.822
47517SOL     OW44382  11.206   8.970   4.114
47517SOL    HW144383  11.190   9.064   4.106
47517SOL    HW244384  11.194   8.951   4.207
47518SOL     OW44385   3.958   9.680   2.092
47518SOL    HW144386   4.000   9.766   2.094
47518SOL    HW244387   3.987   9.642   2.009
47519SOL     OW44388  14.863   7.645   5.838
47519SOL    HW144389  14.789   7.583   5.838
47519SOL    HW244390   0.004   7.667   5.930
47520SOL     OW44391   9.205   5.531   7.051
47520SOL    HW144392   9.282   5.475   7.054
47520SOL    HW244393   9.234   5.610   7.005
47521SOL     OW44394   9.434   6.467   2.654
47521SOL    HW144395   9.396   6.493   2.739
47521SOL    HW244396   9.517   6.425   2.677
47522SOL     OW44397   8.129  13.177   4.830
47522SOL    HW144398   8.140  13.263   4.791
47522SOL    HW244399   8.099  13.121   4.759
47523SOL     OW44400   9.497   6.137   9.505
47523SOL    HW144401   9.516   6.226   9.476
47523SOL    HW244402   9.403   6.128   9.491
47524SOL     OW44403   6.204  11.292  10.594
47524SOL    HW144404   6.237  11.370  10.637
47524SOL    HW244405   6.150  11.325  10.522
47525SOL     OW44406   9.930  13.517   4.995
47525SOL    HW144407  10.006  13.461   4.981
47525SOL    HW244408   9.932  13.579   4.921
47526SOL     OW44409   6.375  11.798   9.345
47526SOL    HW144410   6.289  11.839   9.358
47526SOL    HW244411   6.413  11.847   9.272
47527SOL     OW44412   8.632   1.639  10.960
47527SOL    HW144413   8.542   1.655  10.934
47527SOL    HW244414   8.631   1.640  11.056
47528SOL     OW44415  12.323   9.935   3.150
47528SOL    HW144416  12.305   9.901   3.062
47528SOL    HW244417  12.398   9.885   3.181
47529SOL     OW44418  12.462   2.324   6.168
47529SOL    HW144419  12.550   2.360   6.182
47529SOL    HW244420  12.450   2.261   6.239
47530SOL     OW44421   8.366   0.123   1.500
47530SOL    HW144422   8.420   0.187   1.453
47530SOL    HW244423   8.350   0.163   1.586
47531SOL     OW44424   3.810   7.237   0.556
47531SOL    HW144425   3.749   7.250   0.484
47531SOL    HW244426   3.766   7.275   0.632
47532SOL     OW44427  12.544  11.090   6.958
47532SOL    HW144428  12.560  11.057   6.870
47532SOL    HW244429  12.469  11.148   6.948
47533SOL     OW44430  12.843  10.978   7.958
47533SOL    HW144431  12.868  10.962   8.049
47533SOL    HW244432  12.914  10.939   7.906
47534SOL     OW44433  10.373   0.290  12.658
47534SOL    HW144434  10.442   0.224  12.652
47534SOL    HW244435  10.297   0.247  12.619
47535SOL     OW44436   3.672   4.652   9.239
47535SOL    HW144437   3.669   4.725   9.178
47535SOL    HW244438   3.663   4.692   9.326
47536SOL     OW44439   4.200   4.510   1.397
47536SOL    HW144440   4.293   4.502   1.377
47536SOL    HW244441   4.160   4.432   1.358
47537SOL     OW44442  13.622   0.948   5.541
47537SOL    HW144443  13.671   0.999   5.606
47537SOL    HW244444  13.621   0.859   5.577
47538SOL     OW44445  11.053  13.099   9.160
47538SOL    HW144446  11.084  13.084   9.250
47538SOL    HW244447  10.987  13.031   9.146
47539SOL     OW44448  13.047   6.821  14.824
47539SOL    HW144449  12.958   6.834  14.790
47539SOL    HW244450  13.044   6.734  14.865
47540SOL     OW44451   9.697   1.816   9.651
47540SOL    HW144452   9.687   1.830   9.557
47540SOL    HW244453   9.644   1.885   9.691
47541SOL     OW44454  11.379   5.513   4.112
47541SOL    HW144455  11.303   5.555   4.073
47541SOL    HW244456  11.453   5.541   4.058
47542SOL     OW44457   3.877   5.379   8.242
47542SOL    HW144458   3.851   5.341   8.158
47542SOL    HW244459   3.972   5.373   8.243
47543SOL     OW44460   2.282  10.731   0.252
47543SOL    HW144461   2.323  10.801   0.303
47543SOL    HW244462   2.238  10.676   0.316
47544SOL     OW44463   4.482   4.376   0.266
47544SOL    HW144464   4.550   4.349   0.328
47544SOL    HW244465   4.522   4.362   0.180
47545SOL     OW44466   5.085   9.007   4.654
47545SOL    HW144467   5.149   9.079   4.656
47545SOL    HW244468   5.000   9.051   4.656
47546SOL     OW44469   8.207   8.818   6.089
47546SOL    HW144470   8.161   8.776   6.017
47546SOL    HW244471   8.179   8.910   6.085
47547SOL     OW44472   3.477   5.487   9.331
47547SOL    HW144473   3.489   5.515   9.422
47547SOL    HW244474   3.489   5.392   9.334
47548SOL     OW44475  11.613  10.075   6.115
47548SOL    HW144476  11.649  10.152   6.159
47548SOL    HW244477  11.548  10.041   6.176
47549SOL     OW44478   4.718   5.834   3.553
47549SOL    HW144479   4.707   5.834   3.648
47549SOL    HW244480   4.802   5.790   3.539
47550SOL     OW44481  14.715   9.961  12.283
47550SOL    HW144482  14.739   9.969  12.190
47550SOL    HW244483  14.629   9.919  12.282
47551SOL     OW44484   2.352   3.092  14.560
47551SOL    HW144485   2.258   3.093  14.543
47551SOL    HW244486   2.361   3.052  14.646
47552SOL     OW44487   3.397   9.901  12.786
47552SOL    HW144488   3.337   9.921  12.714
47552SOL    HW244489   3.435   9.985  12.810
47553SOL     OW44490   5.997   3.244   9.664
47553SOL    HW144491   5.980   3.338   9.670
47553SOL    HW244492   5.994   3.213   9.755
47554SOL     OW44493   4.595   6.192  10.572
47554SOL    HW144494   4.657   6.144  10.518
47554SOL    HW244495   4.550   6.123  10.622
47555SOL     OW44496  14.599  11.986  10.497
47555SOL    HW144497  14.571  11.895  10.502
47555SOL    HW244498  14.648  11.992  10.416
47556SOL     OW44499   8.726   1.405   7.485
47556SOL    HW144500   8.783   1.482   7.491
47556SOL    HW244501   8.660   1.429   7.420
47557SOL     OW44502  14.082   1.219   9.996
47557SOL    HW144503  14.074   1.296   9.940
47557SOL    HW244504  13.993   1.184  10.000
47558SOL     OW44505   0.134   8.094  13.597
47558SOL    HW144506   0.176   8.178  13.616
47558SOL    HW244507   0.071   8.082  13.668
47559SOL     OW44508  10.798   3.400   2.099
47559SOL    HW144509  10.858   3.411   2.025
47559SOL    HW244510  10.737   3.332   2.070
47560SOL     OW44511   9.663   9.116  10.188
47560SOL    HW144512   9.729   9.050  10.169
47560SOL    HW244513   9.705   9.199  10.168
47561SOL     OW44514  14.696   4.917   1.453
47561SOL    HW144515  14.690   4.881   1.541
47561SOL    HW244516  14.764   4.984   1.458
47562SOL     OW44517   5.342   3.710   0.644
47562SOL    HW144518   5.255   3.749   0.641
47562SOL    HW244519   5.351   3.676   0.733
47563SOL     OW44520  10.983   7.163  11.403
47563SOL    HW144521  10.896   7.127  11.422
47563SOL    HW244522  10.985   7.170  11.307
47564SOL     OW44523  11.067  10.424   9.789
47564SOL    HW144524  11.105  10.378   9.864
47564SOL    HW244525  11.019  10.357   9.742
47565SOL     OW44526  10.807   2.973   9.373
47565SOL    HW144527  10.819   2.934   9.460
47565SOL    HW244528  10.731   3.031   9.383
47566SOL     OW44529   9.666   0.654  10.064
47566SOL    HW144530   9.726   0.711  10.016
47566SOL    HW244531   9.721   0.607  10.126
47567SOL     OW44532   4.969   9.556   8.344
47567SOL    HW144533   4.878   9.533   8.323
47567SOL    HW244534   5.015   9.549   8.260
47568SOL     OW44535   7.126  10.338   7.981
47568SOL    HW144536   7.220  10.351   7.994
47568SOL    HW244537   7.093  10.426   7.960
47569SOL     OW44538   0.369  14.506  10.219
47569SOL    HW144539   0.324  14.553  10.289
47569SOL    HW244540   0.299  14.485  10.157
47570SOL     OW44541   7.063   1.427   8.106
47570SOL    HW144542   7.059   1.521   8.088
47570SOL    HW244543   7.036   1.386   8.023
47571SOL     OW44544  13.067   4.639  14.259
47571SOL    HW144545  12.978   4.603  14.257
47571SOL    HW244546  13.054   4.731  14.284
47572SOL     OW44547  13.698  10.411   2.944
47572SOL    HW144548  13.667  10.486   2.994
47572SOL    HW244549  13.629  10.393   2.881
47573SOL     OW44550  14.194   5.468  14.871
47573SOL    HW144551  14.196   5.420  14.788
47573SOL    HW244552  14.157   5.553  14.848
47574SOL     OW44553   9.505   7.513   5.844
47574SOL    HW144554   9.500   7.606   5.865
47574SOL    HW244555   9.425   7.495   5.795
47575SOL     OW44556   3.708  10.126   5.717
47575SOL    HW144557   3.659  10.084   5.787
47575SOL    HW244558   3.799  10.128   5.748
47576SOL     OW44559  14.483   6.560   3.087
47576SOL    HW144560  14.550   6.618   3.124
47576SOL    HW244561  14.527   6.475   3.079
47577SOL     OW44562   3.633  13.356   8.442
47577SOL    HW144563   3.590  13.426   8.492
47577SOL    HW244564   3.699  13.402   8.389
47578SOL     OW44565   2.223  13.445  14.841
47578SOL    HW144566   2.265  13.527  14.870
47578SOL    HW244567   2.169  13.471  14.767
47579SOL     OW44568  11.888   8.873   7.287
47579SOL    HW144569  11.868   8.781   7.303
47579SOL    HW244570  11.816   8.904   7.232
47580SOL     OW44571  12.003   6.786   3.130
47580SOL    HW144572  11.959   6.817   3.209
47580SOL    HW244573  12.064   6.856   3.107
47581SOL     OW44574   2.338   5.426   5.588
47581SOL    HW144575   2.259   5.392   5.548
47581SOL    HW244576   2.346   5.515   5.555
47582SOL     OW44577   6.292   0.802   0.371
47582SOL    HW144578   6.254   0.780   0.286
47582SOL    HW244579   6.367   0.743   0.381
47583SOL     OW44580   2.148   2.054   4.984
47583SOL    HW144581   2.212   2.009   5.039
47583SOL    HW244582   2.138   1.996   4.908
47584SOL     OW44583   9.011   0.162   2.226
47584SOL    HW144584   8.954   0.141   2.300
47584SOL    HW244585   8.954   0.203   2.162
47585SOL     OW44586  10.265   9.000  14.276
47585SOL    HW144587  10.195   8.938  14.296
47585SOL    HW244588  10.316   8.957  14.207
47586SOL     OW44589  13.167   6.852   8.613
47586SOL    HW144590  13.217   6.785   8.658
47586SOL    HW244591  13.111   6.890   8.680
47587SOL     OW44592   3.581   0.268   3.937
47587SOL    HW144593   3.550   0.178   3.921
47587SOL    HW244594   3.501   0.320   3.938
47588SOL     OW44595   2.516   7.645  14.496
47588SOL    HW144596   2.467   7.727  14.500
47588SOL    HW244597   2.466   7.589  14.437
47589SOL     OW44598   7.016   9.988  14.097
47589SOL    HW144599   7.073   9.928  14.050
47589SOL    HW244600   7.033  10.074  14.058
47590SOL     OW44601  11.973   2.613   6.919
47590SOL    HW144602  11.955   2.705   6.897
47590SOL    HW244603  11.901   2.587   6.975
47591SOL     OW44604  11.327  13.175   0.055
47591SOL    HW144605  11.247  13.128   0.078
47591SOL    HW244606  11.314  13.201  14.836
47592SOL     OW44607   9.556  12.840  13.105
47592SOL    HW144608   9.598  12.795  13.031
47592SOL    HW244609   9.567  12.780  13.179
47593SOL     OW44610  13.837  12.280  11.263
47593SOL    HW144611  13.870  12.355  11.312
47593SOL    HW244612  13.888  12.279  11.182
47594SOL     OW44613  13.374   3.286   7.356
47594SOL    HW144614  13.388   3.349   7.426
47594SOL    HW244615  13.285   3.304   7.325
47595SOL     OW44616  10.874   3.323   7.608
47595SOL    HW144617  10.932   3.251   7.585
47595SOL    HW244618  10.904   3.351   7.695
47596SOL     OW44619  14.196   2.286  13.197
47596SOL    HW144620  14.112   2.253  13.228
47596SOL    HW244621  14.179   2.314  13.107
47597SOL     OW44622   0.664   7.709  10.761
47597SOL    HW144623   0.590   7.759  10.727
47597SOL    HW244624   0.663   7.726  10.855
47598SOL     OW44625   7.334   1.867   6.837
47598SOL    HW144626   7.291   1.859   6.923
47598SOL    HW244627   7.397   1.795   6.835
47599SOL     OW44628  11.618   0.455  12.074
47599SOL    HW144629  11.682   0.404  12.125
47599SOL    HW244630  11.630   0.425  11.984
47600SOL     OW44631   3.579   6.420   2.972
47600SOL    HW144632   3.665   6.379   2.975
47600SOL    HW244633   3.593   6.501   2.924
47601SOL     OW44634  11.399   4.202   3.775
47601SOL    HW144635  11.469   4.137   3.778
47601SOL    HW244636  11.432   4.277   3.823
47602SOL     OW44637   1.956   2.279   8.660
47602SOL    HW144638   1.994   2.308   8.577
47602SOL    HW244639   1.949   2.184   8.652
47603SOL     OW44640   3.712   9.957   1.480
47603SOL    HW144641   3.672  10.031   1.433
47603SOL    HW244642   3.733   9.993   1.567
47604SOL     OW44643   4.960  11.112   3.437
47604SOL    HW144644   5.015  11.177   3.393
47604SOL    HW244645   4.925  11.159   3.513
47605SOL     OW44646   1.510   3.128   6.289
47605SOL    HW144647   1.474   3.068   6.355
47605SOL    HW244648   1.563   3.189   6.339
47606SOL     OW44649  11.835   6.819   3.455
47606SOL    HW144650  11.925   6.786   3.453
47606SOL    HW244651  11.790   6.772   3.385
47607SOL     OW44652  10.955   7.764  11.824
47607SOL    HW144653  10.950   7.696  11.757
47607SOL    HW244654  11.000   7.836  11.781
47608SOL     OW44655   1.846   9.722   7.422
47608SOL    HW144656   1.856   9.629   7.442
47608SOL    HW244657   1.755   9.742   7.442
47609SOL     OW44658   2.180   8.040   8.908
47609SOL    HW144659   2.105   7.982   8.910
47609SOL    HW244660   2.254   7.986   8.935
47610SOL     OW44661  11.210   1.375   9.679
47610SOL    HW144662  11.215   1.359   9.585
47610SOL    HW244663  11.170   1.462   9.688
47611SOL     OW44664  11.513  13.106  10.373
47611SOL    HW144665  11.444  13.145  10.319
47611SOL    HW244666  11.484  13.017  10.389
47612SOL     OW44667   1.361   2.732   2.097
47612SOL    HW144668   1.351   2.802   2.033
47612SOL    HW244669   1.273   2.721   2.134
47613SOL     OW44670  13.557   9.412  11.688
47613SOL    HW144671  13.594   9.344  11.632
47613SOL    HW244672  13.476   9.438  11.644
47614SOL     OW44673  12.801  10.629   4.474
47614SOL    HW144674  12.796  10.662   4.385
47614SOL    HW244675  12.862  10.688   4.518
47615SOL     OW44676  13.138   6.025  13.472
47615SOL    HW144677  13.057   6.066  13.441
47615SOL    HW244678  13.207   6.085  13.444
47616SOL     OW44679   3.488   2.065   7.964
47616SOL    HW144680   3.458   1.984   8.004
47616SOL    HW244681   3.528   2.114   8.036
47617SOL     OW44682  10.033   4.556   8.403
47617SOL    HW144683  10.008   4.464   8.412
47617SOL    HW244684  10.093   4.557   8.328
47618SOL     OW44685   0.813   7.854  12.516
47618SOL    HW144686   0.832   7.871  12.608
47618SOL    HW244687   0.856   7.926  12.469
47619SOL     OW44688  14.460   8.495   5.275
47619SOL    HW144689  14.382   8.550   5.280
47619SOL    HW244690  14.491   8.489   5.365
47620SOL     OW44691   8.862   3.633   5.870
47620SOL    HW144692   8.924   3.697   5.834
47620SOL    HW244693   8.911   3.550   5.870
47621SOL     OW44694   7.870   7.780   0.157
47621SOL    HW144695   7.949   7.803   0.109
47621SOL    HW244696   7.898   7.772   0.248
47622SOL     OW44697   6.992   3.748   0.825
47622SOL    HW144698   7.085   3.748   0.800
47622SOL    HW244699   6.992   3.753   0.920
47623SOL     OW44700   6.726   8.572  14.848
47623SOL    HW144701   6.745   8.551  14.757
47623SOL    HW244702   6.652   8.632  14.844
47624SOL     OW44703   7.958   8.617   3.013
47624SOL    HW144704   7.880   8.565   2.993
47624SOL    HW244705   8.009   8.615   2.932
47625SOL     OW44706   9.630   8.998   9.257
47625SOL    HW144707   9.609   9.070   9.198
47625SOL    HW244708   9.672   8.933   9.201
47626SOL     OW44709   6.468   2.078   1.498
47626SOL    HW144710   6.493   2.062   1.589
47626SOL    HW244711   6.442   2.170   1.497
47627SOL     OW44712  10.293   5.831   9.120
47627SOL    HW144713  10.368   5.885   9.094
47627SOL    HW244714  10.242   5.821   9.039
47628SOL     OW44715   9.945   8.953   1.842
47628SOL    HW144716   9.915   8.932   1.931
47628SOL    HW244717  10.036   8.980   1.853
47629SOL     OW44718   6.538  11.535   2.807
47629SOL    HW144719   6.530  11.608   2.745
47629SOL    HW244720   6.523  11.457   2.753
47630SOL     OW44721   3.526   2.601  10.859
47630SOL    HW144722   3.496   2.687  10.830
47630SOL    HW244723   3.586   2.571  10.790
47631SOL     OW44724   0.452   6.255   9.425
47631SOL    HW144725   0.509   6.314   9.474
47631SOL    HW244726   0.407   6.311   9.362
47632SOL     OW44727  14.765   8.313   4.690
47632SOL    HW144728  14.847   8.313   4.641
47632SOL    HW244729  14.714   8.241   4.652
47633SOL     OW44730   7.526   0.497   4.726
47633SOL    HW144731   7.591   0.564   4.702
47633SOL    HW244732   7.445   0.546   4.739
47634SOL     OW44733  14.867   6.248   6.683
47634SOL    HW144734   0.052   6.204   6.621
47634SOL    HW244735  14.780   6.215   6.664
47635SOL     OW44736  12.069   2.808   8.209
47635SOL    HW144737  12.161   2.821   8.187
47635SOL    HW244738  12.022   2.857   8.142
47636SOL     OW44739  12.889  14.627   7.311
47636SOL    HW144740  12.864  14.534   7.316
47636SOL    HW244741  12.932  14.636   7.227
47637SOL     OW44742   5.795  11.712  14.077
47637SOL    HW144743   5.720  11.653  14.082
47637SOL    HW244744   5.871  11.657  14.099
47638SOL     OW44745  13.662  11.844   3.819
47638SOL    HW144746  13.745  11.888   3.802
47638SOL    HW244747  13.672  11.758   3.779
47639SOL     OW44748   8.618  10.372   0.720
47639SOL    HW144749   8.622  10.287   0.675
47639SOL    HW244750   8.654  10.434   0.657
47640SOL     OW44751  14.309  10.545   8.026
47640SOL    HW144752  14.302  10.575   7.935
47640SOL    HW244753  14.361  10.613   8.069
47641SOL     OW44754   7.807   5.948  13.010
47641SOL    HW144755   7.723   5.921  12.972
47641SOL    HW244756   7.866   5.954  12.935
47642SOL     OW44757   9.655   9.107  11.916
47642SOL    HW144758   9.573   9.157  11.918
47642SOL    HW244759   9.641   9.037  11.980
47643SOL     OW44760   3.172  11.860   0.021
47643SOL    HW144761   3.100  11.865  14.831
47643SOL    HW244762   3.188  11.951   0.046
47644SOL     OW44763   4.834   5.436   2.082
47644SOL    HW144764   4.856   5.386   2.003
47644SOL    HW244765   4.876   5.521   2.069
47645SOL     OW44766   1.566   2.744   6.907
47645SOL    HW144767   1.512   2.665   6.912
47645SOL    HW244768   1.653   2.712   6.882
47646SOL     OW44769  12.931   2.213   7.710
47646SOL    HW144770  12.976   2.227   7.626
47646SOL    HW244771  12.897   2.298   7.734
47647SOL     OW44772  10.465   6.554  11.749
47647SOL    HW144773  10.528   6.511  11.691
47647SOL    HW244774  10.419   6.481  11.791
47648SOL     OW44775   3.034   7.105  12.900
47648SOL    HW144776   2.958   7.138  12.852
47648SOL    HW244777   3.108   7.153  12.862
47649SOL     OW44778   1.412  10.763   0.965
47649SOL    HW144779   1.327  10.763   0.921
47649SOL    HW244780   1.417  10.677   1.007
47650SOL     OW44781   8.418  13.541   8.102
47650SOL    HW144782   8.514  13.547   8.107
47650SOL    HW244783   8.399  13.554   8.009
47651SOL     OW44784   3.648  12.907  13.723
47651SOL    HW144785   3.734  12.920  13.682
47651SOL    HW244786   3.617  12.824  13.688
47652SOL     OW44787   5.745  10.556  12.672
47652SOL    HW144788   5.816  10.608  12.634
47652SOL    HW244789   5.717  10.606  12.749
47653SOL     OW44790  13.805   8.524   4.832
47653SOL    HW144791  13.848   8.457   4.884
47653SOL    HW244792  13.766   8.583   4.896
47654SOL     OW44793  10.844   8.289  13.982
47654SOL    HW144794  10.775   8.226  13.962
47654SOL    HW244795  10.926   8.245  13.959
47655SOL     OW44796   7.404   6.278   1.462
47655SOL    HW144797   7.400   6.189   1.497
47655SOL    HW244798   7.326   6.321   1.497
47656SOL     OW44799   4.844   2.091   7.529
47656SOL    HW144800   4.854   1.996   7.524
47656SOL    HW244801   4.893   2.124   7.455
47657SOL     OW44802  14.283   6.251  14.046
47657SOL    HW144803  14.199   6.256  14.093
47657SOL    HW244804  14.259   6.228  13.957
47658SOL     OW44805  13.046   7.052   0.238
47658SOL    HW144806  13.065   7.012   0.153
47658SOL    HW244807  13.132   7.063   0.279
47659SOL     OW44808   2.857  13.869   6.360
47659SOL    HW144809   2.794  13.856   6.431
47659SOL    HW244810   2.942  13.847   6.400
47660SOL     OW44811  11.238   9.665  10.436
47660SOL    HW144812  11.250   9.663  10.531
47660SOL    HW244813  11.153   9.623  10.422
47661SOL     OW44814   6.707   2.419   6.140
47661SOL    HW144815   6.737   2.329   6.130
47661SOL    HW244816   6.787   2.472   6.138
47662SOL     OW44817   1.220   3.111   7.821
47662SOL    HW144818   1.314   3.112   7.838
47662SOL    HW244819   1.190   3.198   7.847
47663SOL     OW44820   6.844  12.602  13.680
47663SOL    HW144821   6.824  12.511  13.660
47663SOL    HW244822   6.759  12.644  13.691
47664SOL     OW44823  12.528  13.928   1.147
47664SOL    HW144824  12.531  13.854   1.208
47664SOL    HW244825  12.597  13.987   1.176
47665SOL     OW44826   8.567  11.530   8.389
47665SOL    HW144827   8.558  11.624   8.403
47665SOL    HW244828   8.483  11.494   8.419
47666SOL     OW44829   7.672   1.415   6.660
47666SOL    HW144830   7.749   1.362   6.640
47666SOL    HW244831   7.685   1.443   6.750
47667SOL     OW44832   4.728  13.345   4.074
47667SOL    HW144833   4.799  13.387   4.123
47667SOL    HW244834   4.694  13.413   4.017
47668SOL     OW44835   5.728  10.243   7.915
47668SOL    HW144836   5.706  10.158   7.876
47668SOL    HW244837   5.643  10.285   7.928
47669SOL     OW44838   0.377   2.378   8.554
47669SOL    HW144839   0.331   2.332   8.624
47669SOL    HW244840   0.398   2.464   8.592
47670SOL     OW44841   0.771  10.330   7.049
47670SOL    HW144842   0.784  10.298   6.959
47670SOL    HW244843   0.696  10.389   7.043
47671SOL     OW44844  11.715   2.539   6.262
47671SOL    HW144845  11.700   2.473   6.193
47671SOL    HW244846  11.628   2.551   6.301
47672SOL     OW44847   8.507  13.265  10.843
47672SOL    HW144848   8.436  13.313  10.800
47672SOL    HW244849   8.464  13.217  10.914
47673SOL     OW44850   9.588   6.969   1.086
47673SOL    HW144851   9.647   7.004   1.153
47673SOL    HW244852   9.611   7.016   1.007
47674SOL     OW44853  11.917   6.463   3.854
47674SOL    HW144854  11.927   6.446   3.761
47674SOL    HW244855  12.001   6.498   3.882
47675SOL     OW44856   1.741  12.384   0.318
47675SOL    HW144857   1.658  12.413   0.279
47675SOL    HW244858   1.803  12.388   0.245
47676SOL     OW44859  10.525   2.042   4.546
47676SOL    HW144860  10.535   2.125   4.591
47676SOL    HW244861  10.502   2.066   4.456
47677SOL     OW44862   7.364   5.763   2.613
47677SOL    HW144863   7.349   5.857   2.618
47677SOL    HW244864   7.400   5.740   2.698
47678SOL     OW44865  13.876  14.267  10.096
47678SOL    HW144866  13.824  14.284  10.017
47678SOL    HW244867  13.960  14.236  10.062
47679SOL     OW44868  14.458   0.982   1.636
47679SOL    HW144869  14.434   0.925   1.563
47679SOL    HW244870  14.540   1.023   1.609
47680SOL     OW44871   1.950   3.899   7.175
47680SOL    HW144872   1.874   3.954   7.195
47680SOL    HW244873   1.978   3.929   7.088
47681SOL     OW44874  11.072   9.687   3.138
47681SOL    HW144875  11.016   9.763   3.154
47681SOL    HW244876  11.011   9.613   3.129
47682SOL     OW44877  14.784   9.753   5.894
47682SOL    HW144878  14.731   9.748   5.973
47682SOL    HW244879  14.725   9.789   5.828
47683SOL     OW44880   8.429   3.689   5.485
47683SOL    HW144881   8.377   3.759   5.524
47683SOL    HW244882   8.518   3.706   5.516
47684SOL     OW44883  12.158   3.104   4.454
47684SOL    HW144884  12.111   3.066   4.379
47684SOL    HW244885  12.143   3.198   4.447
47685SOL     OW44886  12.157   0.348   6.903
47685SOL    HW144887  12.105   0.403   6.845
47685SOL    HW244888  12.187   0.407   6.972
47686SOL     OW44889   1.089  10.697   8.598
47686SOL    HW144890   1.147  10.754   8.650
47686SOL    HW244891   1.089  10.614   8.646
47687SOL     OW44892  11.356   8.214  12.312
47687SOL    HW144893  11.365   8.300  12.271
47687SOL    HW244894  11.445   8.180  12.316
47688SOL     OW44895   3.474  14.493   7.023
47688SOL    HW144896   3.424  14.528   6.949
47688SOL    HW244897   3.412  14.492   7.096
47689SOL     OW44898   9.700  12.043   7.442
47689SOL    HW144899   9.713  11.957   7.401
47689SOL    HW244900   9.716  12.027   7.536
47690SOL     OW44901   3.554   8.675  14.069
47690SOL    HW144902   3.635   8.725  14.066
47690SOL    HW244903   3.574   8.594  14.022
47691SOL     OW44904   1.943  11.668   4.060
47691SOL    HW144905   1.875  11.646   3.997
47691SOL    HW244906   1.968  11.758   4.039
47692SOL     OW44907  13.273   5.460  10.761
47692SOL    HW144908  13.305   5.478  10.673
47692SOL    HW244909  13.261   5.365  10.764
47693SOL     OW44910  10.005  11.690  12.644
47693SOL    HW144911  10.096  11.695  12.670
47693SOL    HW244912  10.006  11.650  12.557
47694SOL     OW44913   8.222   2.253  10.879
47694SOL    HW144914   8.147   2.307  10.857
47694SOL    HW244915   8.292   2.284  10.822
47695SOL     OW44916   2.321  10.535   4.650
47695SOL    HW144917   2.272  10.453   4.651
47695SOL    HW244918   2.319  10.566   4.740
47696SOL     OW44919   4.152   4.198   5.649
47696SOL    HW144920   4.231   4.190   5.703
47696SOL    HW244921   4.112   4.281   5.676
47697SOL     OW44922  14.115   5.212   8.347
47697SOL    HW144923  14.189   5.248   8.396
47697SOL    HW244924  14.101   5.276   8.276
47698SOL     OW44925   5.269  13.778   4.643
47698SOL    HW144926   5.266  13.737   4.557
47698SOL    HW244927   5.352  13.826   4.644
47699SOL     OW44928   9.765   4.843   6.806
47699SOL    HW144929   9.856   4.831   6.831
47699SOL    HW244930   9.724   4.758   6.824
47700SOL     OW44931   2.104  10.578   1.139
47700SOL    HW144932   2.069  10.667   1.139
47700SOL    HW244933   2.080  10.543   1.053
47701SOL     OW44934  10.065  10.844   3.629
47701SOL    HW144935  10.022  10.856   3.545
47701SOL    HW244936  10.155  10.819   3.606
47702SOL     OW44937   4.404   6.510  11.650
47702SOL    HW144938   4.450   6.497  11.567
47702SOL    HW244939   4.345   6.584  11.632
47703SOL     OW44940   3.788   0.296  13.872
47703SOL    HW144941   3.724   0.367  13.885
47703SOL    HW244942   3.854   0.334  13.814
47704SOL     OW44943   2.029   1.424  12.764
47704SOL    HW144944   2.063   1.334  12.760
47704SOL    HW244945   1.948   1.420  12.714
47705SOL     OW44946   6.541   0.523  10.694
47705SOL    HW144947   6.578   0.611  10.696
47705SOL    HW244948   6.561   0.491  10.606
47706SOL     OW44949   6.959  13.039   1.757
47706SOL    HW144950   6.940  13.032   1.664
47706SOL    HW244951   6.894  12.984   1.800
47707SOL     OW44952  12.626  10.368   6.026
47707SOL    HW144953  12.560  10.374   6.095
47707SOL    HW244954  12.575  10.366   5.945
47708SOL     OW44955   1.194   5.672  12.149
47708SOL    HW144956   1.162   5.743  12.206
47708SOL    HW244957   1.119   5.650  12.094
47709SOL     OW44958  13.164   2.616   5.667
47709SOL    HW144959  13.214   2.676   5.723
47709SOL    HW244960  13.230   2.572   5.614
47710SOL     OW44961  14.675   6.359   9.390
47710SOL    HW144962  14.632   6.364   9.304
47710SOL    HW244963  14.639   6.432   9.439
47711SOL     OW44964   3.621   3.434   8.652
47711SOL    HW144965   3.676   3.511   8.634
47711SOL    HW244966   3.668   3.388   8.722
47712SOL     OW44967  13.473   6.938   0.979
47712SOL    HW144968  13.445   6.953   1.070
47712SOL    HW244969  13.391   6.936   0.929
47713SOL     OW44970   5.480   6.176   2.310
47713SOL    HW144971   5.481   6.252   2.367
47713SOL    HW244972   5.479   6.213   2.221
47714SOL     OW44973   5.003   1.243   3.936
47714SOL    HW144974   5.050   1.326   3.946
47714SOL    HW244975   5.059   1.191   3.879
47715SOL     OW44976  14.682   5.051  13.937
47715SOL    HW144977  14.695   5.136  13.979
47715SOL    HW244978  14.757   4.998  13.965
47716SOL     OW44979   9.598  11.599  11.674
47716SOL    HW144980   9.608  11.630  11.584
47716SOL    HW244981   9.536  11.660  11.714
47717SOL     OW44982   5.819  14.339   2.824
47717SOL    HW144983   5.734  14.381   2.831
47717SOL    HW244984   5.836  14.305   2.911
47718SOL     OW44985   5.840  11.431   8.716
47718SOL    HW144986   5.775  11.488   8.676
47718SOL    HW244987   5.791  11.350   8.737
47719SOL     OW44988   4.256   0.692   4.380
47719SOL    HW144989   4.162   0.695   4.365
47719SOL    HW244990   4.265   0.637   4.458
47720SOL     OW44991  12.891  10.659   2.984
47720SOL    HW144992  12.893  10.563   2.987
47720SOL    HW244993  12.945  10.682   2.908
47721SOL     OW44994   4.569   1.761   7.361
47721SOL    HW144995   4.486   1.733   7.400
47721SOL    HW244996   4.555   1.852   7.335
47722SOL     OW44997  11.810   9.378  14.001
47722SOL    HW144998  11.736   9.317  13.998
47722SOL    HW244999  11.822   9.405  13.910
47723SOL     OW45000   5.618  12.329   7.042
47723SOL    HW145001   5.627  12.417   7.005
47723SOL    HW245002   5.549  12.338   7.108
47724SOL     OW45003  12.927   2.794   8.723
47724SOL    HW145004  12.955   2.881   8.749
47724SOL    HW245005  12.916   2.799   8.628
47725SOL     OW45006  11.588   8.181   9.491
47725SOL    HW145007  11.535   8.111   9.453
47725SOL    HW245008  11.656   8.135   9.539
47726SOL     OW45009   3.325   0.364   3.987
47726SOL    HW145010   3.310   0.327   4.074
47726SOL    HW245011   3.348   0.456   4.004
47727SOL     OW45012   3.085  14.579   0.226
47727SOL    HW145013   3.090  14.656   0.282
47727SOL    HW245014   3.028  14.518   0.275
47728SOL     OW45015  10.373   9.773  14.104
47728SOL    HW145016  10.466   9.753  14.096
47728SOL    HW245017  10.370   9.853  14.156
47729SOL     OW45018   3.421   9.670   5.253
47729SOL    HW145019   3.392   9.584   5.222
47729SOL    HW245020   3.491   9.651   5.315
47730SOL     OW45021   1.543   8.866  12.121
47730SOL    HW145022   1.590   8.949  12.117
47730SOL    HW245023   1.564   8.830  12.208
47731SOL     OW45024   5.091  11.465   4.518
47731SOL    HW145025   5.173  11.422   4.495
47731SOL    HW245026   5.110  11.514   4.598
47732SOL     OW45027  10.825   6.049  12.958
47732SOL    HW145028  10.917   6.073  12.949
47732SOL    HW245029  10.785   6.121  13.007
47733SOL     OW45030  12.305   2.557  13.519
47733SOL    HW145031  12.231   2.499  13.502
47733SOL    HW245032  12.324   2.596  13.433
47734SOL     OW45033   0.728   0.135  13.184
47734SOL    HW145034   0.667   0.062  13.196
47734SOL    HW245035   0.673   0.208  13.157
47735SOL     OW45036   4.457  12.777   1.902
47735SOL    HW145037   4.439  12.820   1.986
47735SOL    HW245038   4.375  12.782   1.854
47736SOL     OW45039   6.099   6.235  14.303
47736SOL    HW145040   6.011   6.217  14.336
47736SOL    HW245041   6.155   6.175  14.352
47737SOL     OW45042  13.753   3.790   1.517
47737SOL    HW145043  13.768   3.749   1.602
47737SOL    HW245044  13.787   3.879   1.527
47738SOL     OW45045  14.656   6.862   0.562
47738SOL    HW145046  14.694   6.818   0.486
47738SOL    HW245047  14.672   6.802   0.635
47739SOL     OW45048  10.392  10.604  12.880
47739SOL    HW145049  10.396  10.642  12.968
47739SOL    HW245050  10.354  10.673  12.826
47740SOL     OW45051   5.546  10.412   3.951
47740SOL    HW145052   5.471  10.359   3.980
47740SOL    HW245053   5.573  10.460   4.029
47741SOL     OW45054   5.894  12.514  11.510
47741SOL    HW145055   5.859  12.562  11.435
47741SOL    HW245056   5.831  12.443  11.526
47742SOL     OW45057  13.071   3.202   1.155
47742SOL    HW145058  12.989   3.251   1.153
47742SOL    HW245059  13.137   3.264   1.126
47743SOL     OW45060   2.758  12.369   3.814
47743SOL    HW145061   2.853  12.378   3.805
47743SOL    HW245062   2.724  12.395   3.729
47744SOL     OW45063  13.985   8.728   8.503
47744SOL    HW145064  14.009   8.640   8.532
47744SOL    HW245065  14.062   8.759   8.456
47745SOL     OW45066   4.067  10.868   2.100
47745SOL    HW145067   4.149  10.875   2.150
47745SOL    HW245068   4.094  10.871   2.009
47746SOL     OW45069   3.571  10.146  14.327
47746SOL    HW145070   3.556  10.076  14.264
47746SOL    HW245071   3.647  10.193  14.293
47747SOL     OW45072   8.882  12.016   1.086
47747SOL    HW145073   8.945  12.027   1.015
47747SOL    HW245074   8.804  11.980   1.043
47748SOL     OW45075  10.985  10.527  14.312
47748SOL    HW145076  10.954  10.447  14.354
47748SOL    HW245077  11.048  10.497  14.247
47749SOL     OW45078   8.653  11.576  11.829
47749SOL    HW145079   8.717  11.587  11.900
47749SOL    HW245080   8.604  11.658  11.828
47750SOL     OW45081   5.031  13.342   9.752
47750SOL    HW145082   5.056  13.277   9.818
47750SOL    HW245083   4.943  13.370   9.777
47751SOL     OW45084   6.577   6.083   0.266
47751SOL    HW145085   6.602   6.009   0.211
47751SOL    HW245086   6.505   6.051   0.319
47752SOL     OW45087   8.761  14.557   3.159
47752SOL    HW145088   8.800  14.472   3.178
47752SOL    HW245089   8.669  14.548   3.186
47753SOL     OW45090   3.404   5.584  11.389
47753SOL    HW145091   3.442   5.551  11.470
47753SOL    HW245092   3.444   5.530  11.320
47754SOL     OW45093   4.048   7.565  12.653
47754SOL    HW145094   4.050   7.489  12.711
47754SOL    HW245095   4.118   7.549  12.589
47755SOL     OW45096   2.543  11.186   8.179
47755SOL    HW145097   2.545  11.280   8.163
47755SOL    HW245098   2.570  11.147   8.096
47756SOL     OW45099   3.968   7.680   0.666
47756SOL    HW145100   4.001   7.594   0.690
47756SOL    HW245101   4.039   7.741   0.689
47757SOL     OW45102   8.416   1.095  14.511
47757SOL    HW145103   8.358   1.108  14.436
47757SOL    HW245104   8.487   1.157  14.497
47758SOL     OW45105  11.947   4.813   5.987
47758SOL    HW145106  11.979   4.878   6.050
47758SOL    HW245107  12.000   4.735   6.004
47759SOL     OW45108  11.750  10.489   5.822
47759SOL    HW145109  11.673  10.545   5.831
47759SOL    HW245110  11.814  10.525   5.883
47760SOL     OW45111   9.904   3.841  10.445
47760SOL    HW145112   9.984   3.789  10.434
47760SOL    HW245113   9.911   3.880  10.531
47761SOL     OW45114   1.624   9.891   9.894
47761SOL    HW145115   1.687   9.864   9.827
47761SOL    HW245116   1.576   9.963   9.854
47762SOL     OW45117  14.791   3.033   3.069
47762SOL    HW145118  14.755   3.035   2.981
47762SOL    HW245119   0.014   3.032   3.056
47763SOL     OW45120  11.625  12.734   9.904
47763SOL    HW145121  11.681  12.678   9.850
47763SOL    HW245122  11.674  12.745   9.986
47764SOL     OW45123   5.343  13.093  10.968
47764SOL    HW145124   5.333  13.107  11.062
47764SOL    HW245125   5.332  12.998  10.956
47765SOL     OW45126   9.405   6.528  12.965
47765SOL    HW145127   9.356   6.456  13.003
47765SOL    HW245128   9.338   6.593  12.944
47766SOL     OW45129   4.474  10.568  11.961
47766SOL    HW145130   4.414  10.578  12.034
47766SOL    HW245131   4.489  10.657  11.930
47767SOL     OW45132  12.968   4.972   4.841
47767SOL    HW145133  13.061   4.987   4.859
47767SOL    HW245134  12.953   5.012   4.755
47768SOL     OW45135  12.488   1.294   4.398
47768SOL    HW145136  12.530   1.326   4.318
47768SOL    HW245137  12.446   1.213   4.372
47769SOL     OW45138  10.089  13.969   2.550
47769SOL    HW145139  10.112  13.884   2.588
47769SOL    HW245140  10.143  14.032   2.598
47770SOL     OW45141  14.041   7.522  14.756
47770SOL    HW145142  14.061   7.500  14.846
47770SOL    HW245143  13.956   7.481  14.739
47771SOL     OW45144   3.793   3.422  14.082
47771SOL    HW145145   3.722   3.360  14.067
47771SOL    HW245146   3.803   3.426  14.177
47772SOL     OW45147   2.302   6.249   6.218
47772SOL    HW145148   2.359   6.175   6.196
47772SOL    HW245149   2.348   6.325   6.181
47773SOL     OW45150  11.976   4.167  12.058
47773SOL    HW145151  11.979   4.130  12.146
47773SOL    HW245152  11.994   4.260  12.070
47774SOL     OW45153  11.202   7.352   1.246
47774SOL    HW145154  11.158   7.338   1.162
47774SOL    HW245155  11.294   7.333   1.228
47775SOL     OW45156   4.076  14.312  12.881
47775SOL    HW145157   4.074  14.297  12.787
47775SOL    HW245158   4.062  14.407  12.890
47776SOL     OW45159   8.747   8.106   9.418
47776SOL    HW145160   8.819   8.066   9.468
47776SOL    HW245161   8.789   8.165   9.356
47777SOL     OW45162   6.397  10.463   8.359
47777SOL    HW145163   6.469  10.403   8.379
47777SOL    HW245164   6.318  10.409   8.362
47778SOL     OW45165   9.711  14.761  11.389
47778SOL    HW145166   9.777  14.752  11.458
47778SOL    HW245167   9.760  14.750  11.307
47779SOL     OW45168   3.079   7.175   2.351
47779SOL    HW145169   3.106   7.251   2.401
47779SOL    HW245170   3.060   7.108   2.417
47780SOL     OW45171   5.273  13.210   8.858
47780SOL    HW145172   5.275  13.177   8.769
47780SOL    HW245173   5.346  13.166   8.902
47781SOL     OW45174  12.729   0.258  13.821
47781SOL    HW145175  12.730   0.167  13.850
47781SOL    HW245176  12.819   0.288  13.836
47782SOL     OW45177  13.911  10.552   7.928
47782SOL    HW145178  13.875  10.586   8.010
47782SOL    HW245179  13.836  10.545   7.869
47783SOL     OW45180   2.377   5.768   3.437
47783SOL    HW145181   2.411   5.786   3.349
47783SOL    HW245182   2.318   5.693   3.425
47784SOL     OW45183   3.647   9.479   3.143
47784SOL    HW145184   3.732   9.506   3.110
47784SOL    HW245185   3.654   9.487   3.238
47785SOL     OW45186  12.503  12.451   4.534
47785SOL    HW145187  12.483  12.545   4.533
47785SOL    HW245188  12.484  12.424   4.623
47786SOL     OW45189   4.027   4.627  10.239
47786SOL    HW145190   4.049   4.670  10.322
47786SOL    HW245191   4.096   4.655  10.179
47787SOL     OW45192  13.643  11.572   1.278
47787SOL    HW145193  13.635  11.524   1.196
47787SOL    HW245194  13.736  11.566   1.300
47788SOL     OW45195   1.559   5.977   4.299
47788SOL    HW145196   1.518   5.891   4.299
47788SOL    HW245197   1.528   6.019   4.379
47789SOL     OW45198  10.479   5.576   3.364
47789SOL    HW145199  10.433   5.523   3.299
47789SOL    HW245200  10.412   5.632   3.401
47790SOL     OW45201   6.766  10.040   4.154
47790SOL    HW145202   6.700  10.083   4.207
47790SOL    HW245203   6.801  10.110   4.098
47791SOL     OW45204   6.780   7.052  13.257
47791SOL    HW145205   6.707   6.993  13.235
47791SOL    HW245206   6.781   7.053  13.353
47792SOL     OW45207   7.926   3.500  13.743
47792SOL    HW145208   8.014   3.524  13.771
47792SOL    HW245209   7.891   3.448  13.815
47793SOL     OW45210  14.136  11.455   0.667
47793SOL    HW145211  14.059  11.474   0.613
47793SOL    HW245212  14.196  11.528   0.650
47794SOL     OW45213  11.592  10.623  14.551
47794SOL    HW145214  11.616  10.623  14.643
47794SOL    HW245215  11.672  10.645  14.504
47795SOL     OW45216   3.900   5.793   0.401
47795SOL    HW145217   3.889   5.706   0.439
47795SOL    HW245218   3.918   5.850   0.475
47796SOL     OW45219  14.526   9.938  13.742
47796SOL    HW145220  14.580   9.858  13.741
47796SOL    HW245221  14.587  10.008  13.765
47797SOL     OW45222  14.835   4.706   1.924
47797SOL    HW145223   0.013   4.629   1.901
47797SOL    HW245224  14.832   4.706   2.020
47798SOL     OW45225   6.004   2.913  14.771
47798SOL    HW145226   5.997   2.984  14.707
47798SOL    HW245227   5.924   2.919  14.822
47799SOL     OW45228   6.160   9.831   7.119
47799SOL    HW145229   6.064   9.838   7.121
47799SOL    HW245230   6.177   9.740   7.094
47800SOL     OW45231   0.575   4.685   3.687
47800SOL    HW145232   0.638   4.645   3.747
47800SOL    HW245233   0.498   4.702   3.741
47801SOL     OW45234   7.443   1.030   6.268
47801SOL    HW145235   7.485   0.991   6.345
47801SOL    HW245236   7.436   0.958   6.206
47802SOL     OW45237   6.437   6.102  13.990
47802SOL    HW145238   6.364   6.041  13.997
47802SOL    HW245239   6.455   6.129  14.080
47803SOL     OW45240   4.337  12.561   3.650
47803SOL    HW145241   4.253  12.599   3.677
47803SOL    HW245242   4.321  12.525   3.563
47804SOL     OW45243   7.414  13.486   1.464
47804SOL    HW145244   7.323  13.466   1.444
47804SOL    HW245245   7.449  13.525   1.384
47805SOL     OW45246   9.119  10.373   5.664
47805SOL    HW145247   9.119  10.427   5.584
47805SOL    HW245248   9.198  10.401   5.710
47806SOL     OW45249  12.230   1.730   4.393
47806SOL    HW145250  12.216   1.637   4.376
47806SOL    HW245251  12.224   1.771   4.306
47807SOL     OW45252  12.757  12.314   3.805
47807SOL    HW145253  12.833  12.294   3.750
47807SOL    HW245254  12.783  12.391   3.855
47808SOL     OW45255   9.427   0.725   2.169
47808SOL    HW145256   9.387   0.809   2.147
47808SOL    HW245257   9.494   0.712   2.101
47809SOL     OW45258   6.017   6.999   5.780
47809SOL    HW145259   5.971   6.915   5.778
47809SOL    HW245260   6.108   6.977   5.763
47810SOL     OW45261  12.580   0.129   4.230
47810SOL    HW145262  12.516   0.106   4.297
47810SOL    HW245263  12.535   0.192   4.174
47811SOL     OW45264   1.232   3.920   2.978
47811SOL    HW145265   1.233   3.831   3.012
47811SOL    HW245266   1.139   3.942   2.969
47812SOL     OW45267  13.015   8.483   8.011
47812SOL    HW145268  13.038   8.423   7.940
47812SOL    HW245269  12.926   8.457   8.036
47813SOL     OW45270   9.350  12.615   6.232
47813SOL    HW145271   9.424  12.668   6.205
47813SOL    HW245272   9.321  12.655   6.315
47814SOL     OW45273   7.135   4.390   8.248
47814SOL    HW145274   7.163   4.398   8.339
47814SOL    HW245275   7.051   4.434   8.244
47815SOL     OW45276   9.562  12.737   0.894
47815SOL    HW145277   9.562  12.810   0.832
47815SOL    HW245278   9.521  12.771   0.973
47816SOL     OW45279  11.652   9.642  12.664
47816SOL    HW145280  11.620   9.666  12.577
47816SOL    HW245281  11.746   9.656  12.661
47817SOL     OW45282  11.387   8.567   0.315
47817SOL    HW145283  11.385   8.662   0.303
47817SOL    HW245284  11.478   8.548   0.338
47818SOL     OW45285   3.843   5.013   8.071
47818SOL    HW145286   3.935   5.022   8.095
47818SOL    HW245287   3.795   5.054   8.143
47819SOL     OW45288  11.008   7.336   6.552
47819SOL    HW145289  10.931   7.302   6.598
47819SOL    HW245290  10.995   7.311   6.461
47820SOL     OW45291   9.890   6.160  13.042
47820SOL    HW145292   9.905   6.240  13.091
47820SOL    HW245293   9.938   6.173  12.960
47821SOL     OW45294   4.929  11.709   9.101
47821SOL    HW145295   4.940  11.624   9.144
47821SOL    HW245296   4.990  11.767   9.146
47822SOL     OW45297   8.136   5.121  11.264
47822SOL    HW145298   8.085   5.193  11.227
47822SOL    HW245299   8.071   5.066  11.308
47823SOL     OW45300   2.319  14.118  13.754
47823SOL    HW145301   2.295  14.128  13.662
47823SOL    HW245302   2.339  14.025  13.764
47824SOL     OW45303  11.656  12.013   2.297
47824SOL    HW145304  11.652  12.057   2.382
47824SOL    HW245305  11.594  12.060   2.242
47825SOL     OW45306   1.098   6.221  14.556
47825SOL    HW145307   1.048   6.290  14.600
47825SOL    HW245308   1.042   6.144  14.561
47826SOL     OW45309   1.508   5.903   5.939
47826SOL    HW145310   1.425   5.924   5.981
47826SOL    HW245311   1.571   5.899   6.011
47827SOL     OW45312   5.357   7.144   9.700
47827SOL    HW145313   5.298   7.152   9.625
47827SOL    HW245314   5.307   7.182   9.773
47828SOL     OW45315   5.920   8.956   6.681
47828SOL    HW145316   5.938   9.042   6.720
47828SOL    HW245317   5.852   8.973   6.615
47829SOL     OW45318  14.262  10.864   0.118
47829SOL    HW145319  14.321  10.826   0.183
47829SOL    HW245320  14.186  10.806   0.118
47830SOL     OW45321  11.001   2.563  11.642
47830SOL    HW145322  11.072   2.526  11.589
47830SOL    HW245323  10.966   2.488  11.691
47831SOL     OW45324   4.443  12.372   7.528
47831SOL    HW145325   4.460  12.465   7.512
47831SOL    HW245326   4.433  12.365   7.623
47832SOL     OW45327   4.845   3.250   5.935
47832SOL    HW145328   4.824   3.327   5.987
47832SOL    HW245329   4.794   3.179   5.974
47833SOL     OW45330   2.548  10.718  14.746
47833SOL    HW145331   2.554  10.792  14.685
47833SOL    HW245332   2.579  10.643  14.696
47834SOL     OW45333   8.415   9.927   9.694
47834SOL    HW145334   8.384   9.976   9.618
47834SOL    HW245335   8.405   9.835   9.669
47835SOL     OW45336   8.611   2.919  10.439
47835SOL    HW145337   8.633   2.994  10.495
47835SOL    HW245338   8.696   2.884  10.412
47836SOL     OW45339  11.864   9.677   6.035
47836SOL    HW145340  11.911   9.691   5.953
47836SOL    HW245341  11.927   9.634   6.093
47837SOL     OW45342   9.469  12.585   2.651
47837SOL    HW145343   9.541  12.648   2.650
47837SOL    HW245344   9.390  12.639   2.639
47838SOL     OW45345   2.722   0.426  11.909
47838SOL    HW145346   2.707   0.430  12.004
47838SOL    HW245347   2.644   0.466  11.871
47839SOL     OW45348  14.397   6.425   7.728
47839SOL    HW145349  14.307   6.404   7.750
47839SOL    HW245350  14.411   6.513   7.763
47840SOL     OW45351   7.720   2.610   2.203
47840SOL    HW145352   7.646   2.549   2.212
47840SOL    HW245353   7.703   2.678   2.268
47841SOL     OW45354  13.307   9.949   7.876
47841SOL    HW145355  13.251   9.873   7.892
47841SOL    HW245356  13.396   9.914   7.884
47842SOL     OW45357   2.595  12.316   7.322
47842SOL    HW145358   2.608  12.336   7.415
47842SOL    HW245359   2.637  12.387   7.275
47843SOL     OW45360   7.098   0.564   5.358
47843SOL    HW145361   7.178   0.614   5.372
47843SOL    HW245362   7.041   0.624   5.310
47844SOL     OW45363   7.081   8.146  10.924
47844SOL    HW145364   7.137   8.164  10.849
47844SOL    HW245365   7.141   8.143  10.999
47845SOL     OW45366  12.351   7.706   3.037
47845SOL    HW145367  12.317   7.795   3.049
47845SOL    HW245368  12.326   7.661   3.118
47846SOL     OW45369   7.882   2.788  10.900
47846SOL    HW145370   7.865   2.696  10.919
47846SOL    HW245371   7.974   2.791  10.874
47847SOL     OW45372   4.003  11.019  13.667
47847SOL    HW145373   4.022  11.075  13.742
47847SOL    HW245374   4.017  11.075  13.591
47848SOL     OW45375  11.253  12.930   3.757
47848SOL    HW145376  11.253  12.996   3.687
47848SOL    HW245377  11.165  12.893   3.755
47849SOL     OW45378   5.810   7.691   8.054
47849SOL    HW145379   5.778   7.663   8.140
47849SOL    HW245380   5.820   7.609   8.005
47850SOL     OW45381   7.351  12.758  11.042
47850SOL    HW145382   7.353  12.709  10.959
47850SOL    HW245383   7.262  12.745  11.074
47851SOL     OW45384  13.714   1.511   8.854
47851SOL    HW145385  13.782   1.497   8.788
47851SOL    HW245386  13.737   1.451   8.925
47852SOL     OW45387  11.120   4.409   8.576
47852SOL    HW145388  11.100   4.476   8.510
47852SOL    HW245389  11.215   4.412   8.586
47853SOL     OW45390   0.393  10.004   4.736
47853SOL    HW145391   0.400  10.041   4.648
47853SOL    HW245392   0.399  10.079   4.795
47854SOL     OW45393  11.351   1.704   0.157
47854SOL    HW145394  11.370   1.665   0.242
47854SOL    HW245395  11.360   1.631   0.095
47855SOL     OW45396   4.958  11.578   2.787
47855SOL    HW145397   5.019  11.640   2.828
47855SOL    HW245398   4.888  11.566   2.852
47856SOL     OW45399  13.462  10.286   0.676
47856SOL    HW145400  13.450  10.336   0.595
47856SOL    HW245401  13.469  10.352   0.744
47857SOL     OW45402  13.524  11.672   2.831
47857SOL    HW145403  13.478  11.749   2.798
47857SOL    HW245404  13.615  11.701   2.842
47858SOL     OW45405   4.870   9.693  13.461
47858SOL    HW145406   4.854   9.616  13.516
47858SOL    HW245407   4.822   9.763  13.505
47859SOL     OW45408   5.622   5.968  14.766
47859SOL    HW145409   5.715   5.946  14.771
47859SOL    HW245410   5.621   6.061  14.746
47860SOL     OW45411  13.462   7.208  12.559
47860SOL    HW145412  13.459   7.276  12.627
47860SOL    HW245413  13.376   7.213  12.517
47861SOL     OW45414   3.717   1.479  13.418
47861SOL    HW145415   3.797   1.471  13.365
47861SOL    HW245416   3.745   1.528  13.496
47862SOL     OW45417   0.613  14.647  11.966
47862SOL    HW145418   0.542  14.599  12.009
47862SOL    HW245419   0.619  14.607  11.879
47863SOL     OW45420   5.422   0.539   8.897
47863SOL    HW145421   5.427   0.445   8.912
47863SOL    HW245422   5.432   0.548   8.802
47864SOL     OW45423  11.461  13.217   6.353
47864SOL    HW145424  11.420  13.250   6.433
47864SOL    HW245425  11.529  13.282   6.333
47865SOL     OW45426   2.288   6.089   0.618
47865SOL    HW145427   2.249   6.082   0.530
47865SOL    HW245428   2.310   5.999   0.642
47866SOL     OW45429   5.402  11.794  14.492
47866SOL    HW145430   5.403  11.889  14.502
47866SOL    HW245431   5.488  11.772  14.457
47867SOL     OW45432   8.687   3.589  11.055
47867SOL    HW145433   8.685   3.635  10.971
47867SOL    HW245434   8.756   3.523  11.044
47868SOL     OW45435   2.153   4.168   8.017
47868SOL    HW145436   2.088   4.215   8.070
47868SOL    HW245437   2.113   4.083   8.000
47869SOL     OW45438   3.371   0.012   8.222
47869SOL    HW145439   3.437   0.003   8.290
47869SOL    HW245440   3.418   0.047   8.146
47870SOL     OW45441   1.951   2.326   5.459
47870SOL    HW145442   1.938   2.298   5.550
47870SOL    HW245443   1.933   2.248   5.407
47871SOL     OW45444   5.552   0.862   8.326
47871SOL    HW145445   5.484   0.846   8.261
47871SOL    HW245446   5.563   0.957   8.326
47872SOL     OW45447  13.858   4.209  13.620
47872SOL    HW145448  13.902   4.235  13.701
47872SOL    HW245449  13.767   4.192  13.646
47873SOL     OW45450   9.980   6.932  13.647
47873SOL    HW145451  10.025   7.010  13.679
47873SOL    HW245452   9.926   6.963  13.574
47874SOL     OW45453  11.539  11.758  11.515
47874SOL    HW145454  11.570  11.681  11.466
47874SOL    HW245455  11.491  11.722  11.589
47875SOL     OW45456   7.363  12.122   3.947
47875SOL    HW145457   7.382  12.030   3.927
47875SOL    HW245458   7.289  12.119   4.007
47876SOL     OW45459   6.615   3.666  10.904
47876SOL    HW145460   6.679   3.725  10.864
47876SOL    HW245461   6.599   3.600  10.837
47877SOL     OW45462   9.505   4.051   4.784
47877SOL    HW145463   9.500   4.119   4.852
47877SOL    HW245464   9.451   3.980   4.819
47878SOL     OW45465   2.428   8.984   0.340
47878SOL    HW145466   2.443   8.959   0.431
47878SOL    HW245467   2.405   9.077   0.345
47879SOL     OW45468  13.516  13.138   0.993
47879SOL    HW145469  13.565  13.139   0.911
47879SOL    HW245470  13.535  13.052   1.030
47880SOL     OW45471   5.755  13.557   8.625
47880SOL    HW145472   5.663  13.546   8.603
47880SOL    HW245473   5.802  13.511   8.556
47881SOL     OW45474   6.055  10.298  14.390
47881SOL    HW145475   6.106  10.289  14.470
47881SOL    HW245476   6.024  10.388  14.390
47882SOL     OW45477   7.454  12.070   1.905
47882SOL    HW145478   7.473  12.073   1.999
47882SOL    HW245479   7.397  12.146   1.891
47883SOL     OW45480   5.973   2.172   2.555
47883SOL    HW145481   5.945   2.157   2.465
47883SOL    HW245482   5.904   2.133   2.608
47884SOL     OW45483   9.480   2.920   6.908
47884SOL    HW145484   9.388   2.939   6.889
47884SOL    HW245485   9.498   2.839   6.861
47885SOL     OW45486   0.919  10.909   6.026
47885SOL    HW145487   0.836  10.862   6.020
47885SOL    HW245488   0.902  10.979   6.090
47886SOL     OW45489  11.815   0.443   4.837
47886SOL    HW145490  11.895   0.393   4.853
47886SOL    HW245491  11.744   0.386   4.868
47887SOL     OW45492   6.737   6.876   8.874
47887SOL    HW145493   6.769   6.961   8.842
47887SOL    HW245494   6.778   6.866   8.960
47888SOL     OW45495  11.464   8.402   3.912
47888SOL    HW145496  11.429   8.472   3.967
47888SOL    HW245497  11.475   8.442   3.826
47889SOL     OW45498   2.503  14.601   8.650
47889SOL    HW145499   2.430  14.617   8.590
47889SOL    HW245500   2.531  14.688   8.677
47890SOL     OW45501   3.706   2.300  11.294
47890SOL    HW145502   3.629   2.288  11.239
47890SOL    HW245503   3.670   2.318  11.381
47891SOL     OW45504   4.503   3.831   6.725
47891SOL    HW145505   4.471   3.921   6.719
47891SOL    HW245506   4.431   3.782   6.765
47892SOL     OW45507   1.173   0.988   6.413
47892SOL    HW145508   1.127   0.913   6.377
47892SOL    HW245509   1.222   1.025   6.340
47893SOL     OW45510   9.301   1.501   2.292
47893SOL    HW145511   9.297   1.440   2.367
47893SOL    HW245512   9.292   1.588   2.331
47894SOL     OW45513  12.488  10.083  11.516
47894SOL    HW145514  12.510  10.019  11.584
47894SOL    HW245515  12.568  10.089  11.463
47895SOL     OW45516   6.219  11.681  10.252
47895SOL    HW145517   6.241  11.588  10.251
47895SOL    HW245518   6.126  11.684  10.231
47896SOL     OW45519   4.324  14.130   3.720
47896SOL    HW145520   4.253  14.193   3.712
47896SOL    HW245521   4.351  14.113   3.629
47897SOL     OW45522  14.661  11.419   8.447
47897SOL    HW145523  14.635  11.366   8.522
47897SOL    HW245524  14.696  11.356   8.384
47898SOL     OW45525   1.352   6.838   0.786
47898SOL    HW145526   1.441   6.854   0.756
47898SOL    HW245527   1.356   6.752   0.827
47899SOL     OW45528   1.247  10.772   9.518
47899SOL    HW145529   1.188  10.760   9.593
47899SOL    HW245530   1.188  10.796   9.446
47900SOL     OW45531  13.814   5.579   3.304
47900SOL    HW145532  13.846   5.573   3.394
47900SOL    HW245533  13.884   5.542   3.251
47901SOL     OW45534   7.251   4.239  11.402
47901SOL    HW145535   7.335   4.246  11.357
47901SOL    HW245536   7.234   4.145  11.407
47902SOL     OW45537   0.602   6.726  13.135
47902SOL    HW145538   0.596   6.732  13.231
47902SOL    HW245539   0.643   6.809  13.109
47903SOL     OW45540   4.916  12.389  14.512
47903SOL    HW145541   4.963  12.446  14.573
47903SOL    HW245542   4.835  12.366  14.559
47904SOL     OW45543   5.891   9.673   3.895
47904SOL    HW145544   5.980   9.684   3.928
47904SOL    HW245545   5.855   9.602   3.948
47905SOL     OW45546   9.582  11.163   3.743
47905SOL    HW145547   9.607  11.243   3.790
47905SOL    HW245548   9.641  11.096   3.777
47906SOL     OW45549   1.759   9.767   9.487
47906SOL    HW145550   1.765   9.853   9.528
47906SOL    HW245551   1.738   9.785   9.396
47907SOL     OW45552  14.265   6.671  13.431
47907SOL    HW145553  14.244   6.750  13.381
47907SOL    HW245554  14.185   6.619  13.429
47908SOL     OW45555   5.224  13.091   1.749
47908SOL    HW145556   5.245  13.184   1.747
47908SOL    HW245557   5.199  13.070   1.659
47909SOL     OW45558   3.878  13.294   9.908
47909SOL    HW145559   3.928  13.262   9.833
47909SOL    HW245560   3.920  13.252   9.983
47910SOL     OW45561  10.409  14.193   4.111
47910SOL    HW145562  10.468  14.239   4.171
47910SOL    HW245563  10.372  14.263   4.058
47911SOL     OW45564   6.239   0.302   5.452
47911SOL    HW145565   6.239   0.216   5.411
47911SOL    HW245566   6.264   0.362   5.381
47912SOL     OW45567  11.920  10.651  10.680
47912SOL    HW145568  11.981  10.683  10.613
47912SOL    HW245569  11.888  10.568  10.645
47913SOL     OW45570   8.262   5.735   8.943
47913SOL    HW145571   8.283   5.788   8.867
47913SOL    HW245572   8.254   5.646   8.910
47914SOL     OW45573   9.966  12.334  11.992
47914SOL    HW145574   9.993  12.413  11.946
47914SOL    HW245575  10.033  12.269  11.971
47915SOL     OW45576  12.855  11.880  12.947
47915SOL    HW145577  12.947  11.856  12.933
47915SOL    HW245578  12.858  11.946  13.016
47916SOL     OW45579   3.889   5.767  13.533
47916SOL    HW145580   3.916   5.710  13.606
47916SOL    HW245581   3.971   5.799  13.495
47917SOL     OW45582  13.180  10.255   2.121
47917SOL    HW145583  13.265  10.222   2.149
47917SOL    HW245584  13.139  10.181   2.076
47918SOL     OW45585  12.231   5.703   7.636
47918SOL    HW145586  12.170   5.630   7.624
47918SOL    HW245587  12.200   5.770   7.575
47919SOL     OW45588   3.610  11.417  11.691
47919SOL    HW145589   3.590  11.399  11.599
47919SOL    HW245590   3.588  11.510  11.703
47920SOL     OW45591  13.254   6.252  11.771
47920SOL    HW145592  13.302   6.173  11.747
47920SOL    HW245593  13.241   6.244  11.865
47921SOL     OW45594  10.590   8.798   8.234
47921SOL    HW145595  10.541   8.775   8.313
47921SOL    HW245596  10.548   8.748   8.164
47922SOL     OW45597  14.738   7.806   3.727
47922SOL    HW145598  14.728   7.900   3.743
47922SOL    HW245599  14.702   7.764   3.805
47923SOL     OW45600   0.440   3.790  11.245
47923SOL    HW145601   0.451   3.696  11.260
47923SOL    HW245602   0.381   3.796  11.170
47924SOL     OW45603   4.190   9.039  11.264
47924SOL    HW145604   4.204   9.118  11.210
47924SOL    HW245605   4.224   8.968  11.209
47925SOL     OW45606   8.072  10.531   1.796
47925SOL    HW145607   8.074  10.513   1.702
47925SOL    HW245608   8.154  10.495   1.830
47926SOL     OW45609   3.507   9.585   8.931
47926SOL    HW145610   3.490   9.493   8.950
47926SOL    HW245611   3.596   9.600   8.961
47927SOL     OW45612   4.820  14.770  10.914
47927SOL    HW145613   4.809  14.855  10.870
47927SOL    HW245614   4.791  14.786  11.004
47928SOL     OW45615   4.510  13.733  14.378
47928SOL    HW145616   4.577  13.712  14.443
47928SOL    HW245617   4.546  13.806  14.328
47929SOL     OW45618   4.602   2.809  11.400
47929SOL    HW145619   4.693   2.810  11.432
47929SOL    HW245620   4.605   2.752  11.324
47930SOL     OW45621   5.181   9.912  11.295
47930SOL    HW145622   5.178  10.005  11.319
47930SOL    HW245623   5.106   9.874  11.340
47931SOL     OW45624   4.267   1.904   1.462
47931SOL    HW145625   4.219   1.943   1.535
47931SOL    HW245626   4.203   1.901   1.391
47932SOL     OW45627   7.960   8.924   2.657
47932SOL    HW145628   7.907   8.956   2.584
47932SOL    HW245629   7.984   8.835   2.632
47933SOL     OW45630  11.002   4.175   8.669
47933SOL    HW145631  11.069   4.107   8.666
47933SOL    HW245632  11.046   4.253   8.637
47934SOL     OW45633  12.019   4.992   1.696
47934SOL    HW145634  11.968   4.988   1.615
47934SOL    HW245635  12.066   4.908   1.698
47935SOL     OW45636  13.552   3.960   9.216
47935SOL    HW145637  13.613   3.894   9.182
47935SOL    HW245638  13.559   3.953   9.311
47936SOL     OW45639  13.810   2.209  14.294
47936SOL    HW145640  13.834   2.137  14.236
47936SOL    HW245641  13.735   2.176  14.344
47937SOL     OW45642   6.542  10.653   5.060
47937SOL    HW145643   6.600  10.677   4.987
47937SOL    HW245644   6.478  10.593   5.021
47938SOL     OW45645   0.299  10.254   4.209
47938SOL    HW145646   0.273  10.338   4.248
47938SOL    HW245647   0.244  10.189   4.253
47939SOL     OW45648  13.912   2.181   3.044
47939SOL    HW145649  13.871   2.195   2.959
47939SOL    HW245650  13.966   2.103   3.032
47940SOL     OW45651   2.559  10.451   4.809
47940SOL    HW145652   2.528  10.493   4.889
47940SOL    HW245653   2.655  10.454   4.816
47941SOL     OW45654  10.046   6.282   5.726
47941SOL    HW145655  10.140   6.282   5.713
47941SOL    HW245656  10.024   6.374   5.740
47942SOL     OW45657   1.163   3.324   9.400
47942SOL    HW145658   1.227   3.260   9.430
47942SOL    HW245659   1.106   3.338   9.476
47943SOL     OW45660   9.272  11.088   5.480
47943SOL    HW145661   9.257  11.174   5.441
47943SOL    HW245662   9.301  11.107   5.569
47944SOL     OW45663   8.893   7.694   9.416
47944SOL    HW145664   8.862   7.676   9.504
47944SOL    HW245665   8.932   7.781   9.422
47945SOL     OW45666  14.103   7.945  14.294
47945SOL    HW145667  14.152   7.889  14.233
47945SOL    HW245668  14.011   7.931  14.271
47946SOL     OW45669   8.301  12.512   4.455
47946SOL    HW145670   8.391  12.536   4.478
47946SOL    HW245671   8.276  12.575   4.388
47947SOL     OW45672  12.044   7.311  12.671
47947SOL    HW145673  12.105   7.240  12.653
47947SOL    HW245674  11.994   7.281  12.747
47948SOL     OW45675  10.229   6.895  13.462
47948SOL    HW145676  10.254   6.819  13.515
47948SOL    HW245677  10.134   6.893  13.461
47949SOL     OW45678   8.311  11.306   7.799
47949SOL    HW145679   8.330  11.393   7.835
47949SOL    HW245680   8.230  11.279   7.844
47950SOL     OW45681   0.990  13.444   7.688
47950SOL    HW145682   0.917  13.382   7.683
47950SOL    HW245683   0.957  13.523   7.645
47951SOL     OW45684   7.531  11.515   6.454
47951SOL    HW145685   7.590  11.554   6.390
47951SOL    HW245686   7.478  11.453   6.402
47952SOL     OW45687  11.859   6.578   4.611
47952SOL    HW145688  11.783   6.543   4.566
47952SOL    HW245689  11.925   6.509   4.604
47953SOL     OW45690   5.313  14.559   7.502
47953SOL    HW145691   5.408  14.554   7.512
47953SOL    HW245692   5.283  14.606   7.579
47954SOL     OW45693   3.222  13.405   5.891
47954SOL    HW145694   3.195  13.411   5.800
47954SOL    HW245695   3.317  13.416   5.889
47955SOL     OW45696   2.808  14.113   9.650
47955SOL    HW145697   2.715  14.120   9.627
47955SOL    HW245698   2.808  14.111   9.746
47956SOL     OW45699  12.046  11.127   1.672
47956SOL    HW145700  12.092  11.106   1.590
47956SOL    HW245701  11.960  11.084   1.663
47957SOL     OW45702  13.140   2.684   0.117
47957SOL    HW145703  13.095   2.697   0.200
47957SOL    HW245704  13.227   2.650   0.142
47958SOL     OW45705   0.961  11.768  12.963
47958SOL    HW145706   0.973  11.700  13.030
47958SOL    HW245707   0.940  11.847  13.012
47959SOL     OW45708  11.364  10.966   9.178
47959SOL    HW145709  11.345  10.876   9.152
47959SOL    HW245710  11.373  10.962   9.273
47960SOL     OW45711   3.369  14.522   0.241
47960SOL    HW145712   3.332  14.534   0.154
47960SOL    HW245713   3.435  14.591   0.249
47961SOL     OW45714  14.183  13.872   7.370
47961SOL    HW145715  14.249  13.816   7.412
47961SOL    HW245716  14.102  13.854   7.417
47962SOL     OW45717   9.947   3.082   2.607
47962SOL    HW145718   9.915   3.067   2.696
47962SOL    HW245719   9.884   3.142   2.568
47963SOL     OW45720   2.543   0.733   1.176
47963SOL    HW145721   2.571   0.663   1.118
47963SOL    HW245722   2.538   0.693   1.262
47964SOL     OW45723   0.727   2.804   3.244
47964SOL    HW145724   0.732   2.888   3.197
47964SOL    HW245725   0.819   2.777   3.252
47965SOL     OW45726   1.692   3.306  10.205
47965SOL    HW145727   1.690   3.356  10.287
47965SOL    HW245728   1.600   3.294  10.182
47966SOL     OW45729   2.460   6.647   7.700
47966SOL    HW145730   2.500   6.643   7.786
47966SOL    HW245731   2.533   6.662   7.640
47967SOL     OW45732  13.729   4.479   4.851
47967SOL    HW145733  13.701   4.462   4.761
47967SOL    HW245734  13.648   4.504   4.896
47968SOL     OW45735   3.873   7.790   5.633
47968SOL    HW145736   3.921   7.869   5.609
47968SOL    HW245737   3.851   7.802   5.725
47969SOL     OW45738   8.955   3.994   6.363
47969SOL    HW145739   9.036   3.967   6.405
47969SOL    HW245740   8.982   4.032   6.280
47970SOL     OW45741  14.708   7.318   3.681
47970SOL    HW145742  14.624   7.364   3.680
47970SOL    HW245743  14.774   7.388   3.673
47971SOL     OW45744  10.496   0.689   1.191
47971SOL    HW145745  10.568   0.720   1.246
47971SOL    HW245746  10.482   0.599   1.220
47972SOL     OW45747  11.862   4.731  14.724
47972SOL    HW145748  11.784   4.710  14.774
47972SOL    HW245749  11.927   4.756  14.791
47973SOL     OW45750   0.971   9.385   1.319
47973SOL    HW145751   0.983   9.473   1.282
47973SOL    HW245752   1.027   9.383   1.396
47974SOL     OW45753  13.564   0.860   9.835
47974SOL    HW145754  13.648   0.892   9.865
47974SOL    HW245755  13.499   0.908   9.887
47975SOL     OW45756   9.305   2.591  13.075
47975SOL    HW145757   9.319   2.627  12.987
47975SOL    HW245758   9.211   2.570  13.076
47976SOL     OW45759   5.801   1.504   1.638
47976SOL    HW145760   5.764   1.579   1.685
47976SOL    HW245761   5.887   1.491   1.679
47977SOL     OW45762   0.588   3.221   4.825
47977SOL    HW145763   0.632   3.278   4.887
47977SOL    HW245764   0.514   3.185   4.875
47978SOL     OW45765   2.160  11.329   4.105
47978SOL    HW145766   2.145  11.314   4.199
47978SOL    HW245767   2.174  11.424   4.098
47979SOL     OW45768   7.687  10.556   4.060
47979SOL    HW145769   7.735  10.504   4.124
47979SOL    HW245770   7.633  10.492   4.013
47980SOL     OW45771  14.294  10.667  10.244
47980SOL    HW145772  14.232  10.739  10.259
47980SOL    HW245773  14.257  10.593  10.293
47981SOL     OW45774  10.838   1.509   7.657
47981SOL    HW145775  10.894   1.503   7.735
47981SOL    HW245776  10.842   1.422   7.618
47982SOL     OW45777   5.835   9.031  11.927
47982SOL    HW145778   5.893   9.065  11.859
47982SOL    HW245779   5.760   8.997  11.879
47983SOL     OW45780   9.523   6.122   6.914
47983SOL    HW145781   9.447   6.119   6.972
47983SOL    HW245782   9.487   6.122   6.826
47984SOL     OW45783  11.860  10.971   6.205
47984SOL    HW145784  11.835  10.934   6.289
47984SOL    HW245785  11.846  11.065   6.215
47985SOL     OW45786  10.220  14.818  14.750
47985SOL    HW145787  10.259  14.867  14.678
47985SOL    HW245788  10.156  14.761  14.708
47986SOL     OW45789  11.388   9.018   0.538
47986SOL    HW145790  11.462   9.047   0.485
47986SOL    HW245791  11.380   8.924   0.518
47987SOL     OW45792   0.928   8.157  10.017
47987SOL    HW145793   0.910   8.228   9.955
47987SOL    HW245794   0.870   8.086   9.988
47988SOL     OW45795   3.041   8.054   6.256
47988SOL    HW145796   2.996   8.139   6.261
47988SOL    HW245797   3.127   8.074   6.219
47989SOL     OW45798   7.988   8.374   6.019
47989SOL    HW145799   8.065   8.364   6.075
47989SOL    HW245800   8.003   8.314   5.946
47990SOL     OW45801   5.809   9.708   0.741
47990SOL    HW145802   5.897   9.688   0.711
47990SOL    HW245803   5.763   9.624   0.737
47991SOL     OW45804   0.730  12.136   3.446
47991SOL    HW145805   0.758  12.054   3.405
47991SOL    HW245806   0.807  12.193   3.440
47992SOL     OW45807  10.900  10.824   6.902
47992SOL    HW145808  10.804  10.824   6.906
47992SOL    HW245809  10.922  10.887   6.834
47993SOL     OW45810   8.097   4.614   8.246
47993SOL    HW145811   8.055   4.697   8.269
47993SOL    HW245812   8.025   4.556   8.222
47994SOL     OW45813  10.697   0.245   4.346
47994SOL    HW145814  10.625   0.237   4.409
47994SOL    HW245815  10.726   0.335   4.353
47995SOL     OW45816   3.912   0.614  10.729
47995SOL    HW145817   3.918   0.700  10.772
47995SOL    HW245818   3.917   0.551  10.801
47996SOL     OW45819  11.500  12.528  13.910
47996SOL    HW145820  11.576  12.538  13.967
47996SOL    HW245821  11.464  12.443  13.933
47997SOL     OW45822   2.938   3.829  10.017
47997SOL    HW145823   3.008   3.804  10.077
47997SOL    HW245824   2.961   3.917   9.988
47998SOL     OW45825   2.356   2.887  14.181
47998SOL    HW145826   2.285   2.907  14.241
47998SOL    HW245827   2.411   2.825  14.228
47999SOL     OW45828   5.305  12.070   6.771
47999SOL    HW145829   5.296  11.975   6.775
47999SOL    HW245830   5.364  12.092   6.843
48000SOL     OW45831   6.705   7.549  12.320
48000SOL    HW145832   6.673   7.560  12.409
48000SOL    HW245833   6.626   7.539  12.267
48001SOL     OW45834   8.959  13.261   1.363
48001SOL    HW145835   8.936  13.290   1.275
48001SOL    HW245836   9.000  13.175   1.350
48002SOL     OW45837   1.615  10.810  14.321
48002SOL    HW145838   1.641  10.743  14.385
48002SOL    HW245839   1.537  10.851  14.359
48003SOL     OW45840   4.558  11.348  14.028
48003SOL    HW145841   4.621  11.283  13.998
48003SOL    HW245842   4.609  11.406  14.084
48004SOL     OW45843   4.714   7.562   5.199
48004SOL    HW145844   4.622   7.578   5.221
48004SOL    HW245845   4.763   7.614   5.262
48005SOL     OW45846  10.576  13.538   8.496
48005SOL    HW145847  10.529  13.599   8.439
48005SOL    HW245848  10.668  13.563   8.488
48006SOL     OW45849   3.510  10.831   5.428
48006SOL    HW145850   3.578  10.777   5.388
48006SOL    HW245851   3.458  10.862   5.355
48007SOL     OW45852   8.358   2.582   9.863
48007SOL    HW145853   8.454   2.579   9.853
48007SOL    HW245854   8.336   2.498   9.903
48008SOL     OW45855   5.964   9.618   6.933
48008SOL    HW145856   6.005   9.535   6.910
48008SOL    HW245857   5.885   9.592   6.981
48009SOL     OW45858   4.880   0.392   6.904
48009SOL    HW145859   4.861   0.299   6.905
48009SOL    HW245860   4.948   0.404   6.971
48010SOL     OW45861  10.138   9.856   3.770
48010SOL    HW145862  10.108   9.835   3.682
48010SOL    HW245863  10.059   9.857   3.823
48011SOL     OW45864  10.012  12.212   0.204
48011SOL    HW145865   9.957  12.209   0.125
48011SOL    HW245866   9.974  12.282   0.257
48012SOL     OW45867   4.430   8.868  11.381
48012SOL    HW145868   4.515   8.831  11.360
48012SOL    HW245869   4.399   8.906  11.298
48013SOL     OW45870   0.295   7.045   3.597
48013SOL    HW145871   0.263   7.070   3.683
48013SOL    HW245872   0.246   6.966   3.575
48014SOL     OW45873   2.123  13.908   8.333
48014SOL    HW145874   2.060  13.976   8.308
48014SOL    HW245875   2.156  13.936   8.419
48015SOL     OW45876   1.266   0.047   0.737
48015SOL    HW145877   1.344   0.096   0.711
48015SOL    HW245878   1.300  14.841   0.781
48016SOL     OW45879   7.570   0.123  14.557
48016SOL    HW145880   7.606   0.149  14.642
48016SOL    HW245881   7.627   0.051  14.528
48017SOL     OW45882   1.595  14.202   2.017
48017SOL    HW145883   1.635  14.235   1.937
48017SOL    HW245884   1.631  14.258   2.086
48018SOL     OW45885  13.878   6.177   6.520
48018SOL    HW145886  13.843   6.091   6.546
48018SOL    HW245887  13.891   6.169   6.425
48019SOL     OW45888  13.547  10.799  10.016
48019SOL    HW145889  13.588  10.726  10.063
48019SOL    HW245890  13.533  10.866  10.083
48020SOL     OW45891  14.860   2.033   0.495
48020SOL    HW145892   0.018   2.105   0.551
48020SOL    HW245893   0.013   2.060   0.406
48021SOL     OW45894  10.256  14.861   0.804
48021SOL    HW145895  10.239   0.061   0.744
48021SOL    HW245896  10.297   0.030   0.880
48022SOL     OW45897   5.245   9.309  10.460
48022SOL    HW145898   5.207   9.357  10.387
48022SOL    HW245899   5.178   9.310  10.528
48023SOL     OW45900   4.781   3.847   9.168
48023SOL    HW145901   4.871   3.877   9.167
48023SOL    HW245902   4.776   3.780   9.100
48024SOL     OW45903   3.551   8.327  11.753
48024SOL    HW145904   3.495   8.321  11.831
48024SOL    HW245905   3.538   8.416  11.721
48025SOL     OW45906   8.323  12.490   5.869
48025SOL    HW145907   8.311  12.508   5.775
48025SOL    HW245908   8.257  12.545   5.912
48026SOL     OW45909   6.519   4.060   2.191
48026SOL    HW145910   6.539   4.154   2.187
48026SOL    HW245911   6.604   4.017   2.193
48027SOL     OW45912   0.997   5.544   0.289
48027SOL    HW145913   0.979   5.499   0.207
48027SOL    HW245914   0.918   5.530   0.342
48028SOL     OW45915  12.507  12.311   0.442
48028SOL    HW145916  12.590  12.358   0.439
48028SOL    HW245917  12.470  12.321   0.355
48029SOL     OW45918   4.462   6.546   1.430
48029SOL    HW145919   4.451   6.612   1.498
48029SOL    HW245920   4.460   6.595   1.348
48030SOL     OW45921  13.151   3.213   3.310
48030SOL    HW145922  13.154   3.193   3.216
48030SOL    HW245923  13.058   3.227   3.328
48031SOL     OW45924  13.439   0.778  13.663
48031SOL    HW145925  13.355   0.734  13.658
48031SOL    HW245926  13.442   0.814  13.752
48032SOL     OW45927   9.697   4.790  11.881
48032SOL    HW145928   9.758   4.803  11.809
48032SOL    HW245929   9.667   4.700  11.871
48033SOL     OW45930   9.649   6.711   2.719
48033SOL    HW145931   9.576   6.696   2.780
48033SOL    HW245932   9.679   6.624   2.694
48034SOL     OW45933   1.637  14.026  12.501
48034SOL    HW145934   1.546  14.055  12.496
48034SOL    HW245935   1.645  13.962  12.430
48035SOL     OW45936   5.460   6.619  10.357
48035SOL    HW145937   5.441   6.635  10.450
48035SOL    HW245938   5.522   6.546  10.358
48036SOL     OW45939   3.084  13.789   3.050
48036SOL    HW145940   3.031  13.788   3.130
48036SOL    HW245941   3.153  13.725   3.067
48037SOL     OW45942   7.377  11.108   7.696
48037SOL    HW145943   7.449  11.096   7.759
48037SOL    HW245944   7.413  11.169   7.631
48038SOL     OW45945   8.477   1.008   2.840
48038SOL    HW145946   8.506   0.922   2.813
48038SOL    HW245947   8.405   0.991   2.901
48039SOL     OW45948   9.283   0.018   1.323
48039SOL    HW145949   9.233  14.816   1.356
48039SOL    HW245950   9.370  14.854   1.304
48040SOL     OW45951   2.976   0.054   3.868
48040SOL    HW145952   3.049   0.005   3.906
48040SOL    HW245953   2.989   0.144   3.898
48041SOL     OW45954  11.126  13.295   5.458
48041SOL    HW145955  11.161  13.215   5.497
48041SOL    HW245956  11.050  13.265   5.408
48042SOL     OW45957   9.029   4.015   7.647
48042SOL    HW145958   9.095   3.974   7.702
48042SOL    HW245959   8.980   4.072   7.707
48043SOL     OW45960   0.668   4.782  14.307
48043SOL    HW145961   0.706   4.867  14.329
48043SOL    HW245962   0.679   4.775  14.212
48044SOL     OW45963  10.341   7.558  14.578
48044SOL    HW145964  10.419   7.503  14.585
48044SOL    HW245965  10.316   7.552  14.486
48045SOL     OW45966   7.637   0.559   0.388
48045SOL    HW145967   7.600   0.557   0.300
48045SOL    HW245968   7.726   0.525   0.378
48046SOL     OW45969   6.200  10.332   3.454
48046SOL    HW145970   6.162  10.295   3.534
48046SOL    HW245971   6.150  10.293   3.383
48047SOL     OW45972   5.545   1.167  10.616
48047SOL    HW145973   5.464   1.190  10.662
48047SOL    HW245974   5.556   1.235  10.550
48048SOL     OW45975   0.556   6.276  14.485
48048SOL    HW145976   0.598   6.195  14.454
48048SOL    HW245977   0.525   6.319  14.405
48049SOL     OW45978   7.428   4.593   6.615
48049SOL    HW145979   7.392   4.547   6.691
48049SOL    HW245980   7.353   4.603   6.555
48050SOL     OW45981  12.978  10.126  10.061
48050SOL    HW145982  12.992  10.214  10.095
48050SOL    HW245983  12.903  10.093  10.110
48051SOL     OW45984  13.739  13.993   0.453
48051SOL    HW145985  13.658  14.038   0.476
48051SOL    HW245986  13.765  14.031   0.369
48052SOL     OW45987   4.465  14.245   8.954
48052SOL    HW145988   4.462  14.309   9.025
48052SOL    HW245989   4.440  14.162   8.995
48053SOL     OW45990   7.432   8.992   6.474
48053SOL    HW145991   7.418   8.899   6.489
48053SOL    HW245992   7.420   9.003   6.379
48054SOL     OW45993   7.135   4.089  14.718
48054SOL    HW145994   7.129   4.001  14.681
48054SOL    HW245995   7.102   4.079  14.808
48055SOL     OW45996  12.485   1.449  11.735
48055SOL    HW145997  12.430   1.492  11.801
48055SOL    HW245998  12.501   1.361  11.770
48056SOL     OW45999  13.362   3.588   5.690
48056SOL    HW146000  13.393   3.637   5.766
48056SOL    HW246001  13.348   3.654   5.623
48057SOL     OW46002  13.545   3.895   5.114
48057SOL    HW146003  13.527   3.945   5.034
48057SOL    HW246004  13.549   3.962   5.183
48058SOL     OW46005   0.693   3.805  10.733
48058SOL    HW146006   0.714   3.834  10.645
48058SOL    HW246007   0.698   3.709  10.729
48059SOL     OW46008   9.692  10.975  14.830
48059SOL    HW146009   9.679  10.949   0.049
48059SOL    HW246010   9.604  11.001  14.800
48060SOL     OW46011   9.891   9.472   9.438
48060SOL    HW146012   9.800   9.502   9.436
48060SOL    HW246013   9.889   9.387   9.394
48061SOL     OW46014   9.660   3.110   4.693
48061SOL    HW146015   9.642   3.204   4.686
48061SOL    HW246016   9.748   3.105   4.730
48062SOL     OW46017  13.969  14.045   7.764
48062SOL    HW146018  14.064  14.036   7.765
48062SOL    HW246019  13.955  14.139   7.748
48063SOL     OW46020  10.602  12.572   6.332
48063SOL    HW146021  10.565  12.649   6.289
48063SOL    HW246022  10.695  12.575   6.311
48064SOL     OW46023   4.453   8.024   7.383
48064SOL    HW146024   4.405   8.003   7.303
48064SOL    HW246025   4.448   8.120   7.389
48065SOL     OW46026   9.496   3.476   7.906
48065SOL    HW146027   9.463   3.388   7.890
48065SOL    HW246028   9.538   3.502   7.823
48066SOL     OW46029   3.058   2.675   5.600
48066SOL    HW146030   3.069   2.743   5.534
48066SOL    HW246031   3.130   2.689   5.662
48067SOL     OW46032   9.150   8.019   4.478
48067SOL    HW146033   9.164   7.925   4.483
48067SOL    HW246034   9.057   8.028   4.455
48068SOL     OW46035  13.883   1.593   3.332
48068SOL    HW146036  13.890   1.570   3.425
48068SOL    HW246037  13.817   1.662   3.330
48069SOL     OW46038   6.207   6.565  10.959
48069SOL    HW146039   6.123   6.525  10.984
48069SOL    HW246040   6.192   6.597  10.870
48070SOL     OW46041   8.268   2.331   8.552
48070SOL    HW146042   8.219   2.411   8.531
48070SOL    HW246043   8.328   2.356   8.622
48071SOL     OW46044   0.479   1.680   1.855
48071SOL    HW146045   0.428   1.662   1.934
48071SOL    HW246046   0.466   1.773   1.839
48072SOL     OW46047  14.240  11.860   5.275
48072SOL    HW146048  14.195  11.836   5.356
48072SOL    HW246049  14.326  11.890   5.304
48073SOL     OW46050   9.472   1.874   4.340
48073SOL    HW146051   9.438   1.794   4.300
48073SOL    HW246052   9.419   1.885   4.419
48074SOL     OW46053   2.472   2.559  11.498
48074SOL    HW146054   2.566   2.571  11.488
48074SOL    HW246055   2.452   2.594  11.585
48075SOL     OW46056  14.596   9.824   1.381
48075SOL    HW146057  14.676   9.876   1.373
48075SOL    HW246058  14.556   9.829   1.295
48076SOL     OW46059  14.119   9.589   7.844
48076SOL    HW146060  14.110   9.649   7.770
48076SOL    HW246061  14.110   9.645   7.921
48077SOL     OW46062   0.943   5.990   1.521
48077SOL    HW146063   0.956   6.084   1.530
48077SOL    HW246064   0.945   5.975   1.426
48078SOL     OW46065   5.096   7.222   9.502
48078SOL    HW146066   5.151   7.258   9.433
48078SOL    HW246067   5.007   7.249   9.477
48079SOL     OW46068   5.435  12.031   4.538
48079SOL    HW146069   5.483  12.110   4.516
48079SOL    HW246070   5.354  12.063   4.579
48080SOL     OW46071  12.216  11.872   7.505
48080SOL    HW146072  12.124  11.887   7.481
48080SOL    HW246073  12.264  11.879   7.422
48081SOL     OW46074   4.266   3.617   5.660
48081SOL    HW146075   4.282   3.695   5.608
48081SOL    HW246076   4.269   3.545   5.598
48082SOL     OW46077  14.235  12.273  14.058
48082SOL    HW146078  14.205  12.329  13.987
48082SOL    HW246079  14.161  12.214  14.075
48083SOL     OW46080   1.849  13.092   7.543
48083SOL    HW146081   1.873  13.131   7.627
48083SOL    HW246082   1.929  13.052   7.511
48084SOL     OW46083  10.009  14.542   9.777
48084SOL    HW146084  10.061  14.495   9.712
48084SOL    HW246085   9.920  14.509   9.764
48085SOL     OW46086   6.749   8.249   3.962
48085SOL    HW146087   6.822   8.216   3.910
48085SOL    HW246088   6.787   8.319   4.016
48086SOL     OW46089   4.055   0.366   9.097
48086SOL    HW146090   4.108   0.286   9.094
48086SOL    HW246091   4.104   0.430   9.045
48087SOL     OW46092   7.232  13.631   4.937
48087SOL    HW146093   7.320  13.617   4.973
48087SOL    HW246094   7.175  13.579   4.994
48088SOL     OW46095  11.829  14.034  11.472
48088SOL    HW146096  11.918  14.048  11.503
48088SOL    HW246097  11.838  14.016  11.379
48089SOL     OW46098   3.420  14.479  13.760
48089SOL    HW146099   3.447  14.406  13.814
48089SOL    HW246100   3.454  14.556  13.804
48090SOL     OW46101  12.690   7.093   1.127
48090SOL    HW146102  12.662   7.072   1.216
48090SOL    HW246103  12.608   7.098   1.077
48091SOL     OW46104   7.416  14.554   7.023
48091SOL    HW146105   7.447  14.471   7.061
48091SOL    HW246106   7.447  14.552   6.933
48092SOL     OW46107   9.247   5.713   9.896
48092SOL    HW146108   9.216   5.795   9.936
48092SOL    HW246109   9.325   5.690   9.945
48093SOL     OW46110   3.194   9.366  10.689
48093SOL    HW146111   3.284   9.398  10.683
48093SOL    HW246112   3.190   9.323  10.775
48094SOL     OW46113  13.104   6.905  10.632
48094SOL    HW146114  13.033   6.859  10.587
48094SOL    HW246115  13.067   6.927  10.718
48095SOL     OW46116  14.414   0.276   3.599
48095SOL    HW146117  14.413   0.262   3.693
48095SOL    HW246118  14.373   0.197   3.562
48096SOL     OW46119   7.187  10.611   9.922
48096SOL    HW146120   7.194  10.573  10.009
48096SOL    HW246121   7.099  10.646   9.918
48097SOL     OW46122   2.069   4.708  10.107
48097SOL    HW146123   2.163   4.698  10.090
48097SOL    HW246124   2.043   4.623  10.145
48098SOL     OW46125  13.255   3.568   6.545
48098SOL    HW146126  13.192   3.576   6.616
48098SOL    HW246127  13.330   3.620   6.573
48099SOL     OW46128   5.786   1.349   2.626
48099SOL    HW146129   5.739   1.352   2.542
48099SOL    HW246130   5.742   1.414   2.680
48100SOL     OW46131   9.106   9.414   8.061
48100SOL    HW146132   9.021   9.377   8.086
48100SOL    HW246133   9.136   9.359   7.989
48101SOL     OW46134  14.198   7.617   1.036
48101SOL    HW146135  14.154   7.628   0.952
48101SOL    HW246136  14.241   7.701   1.052
48102SOL     OW46137   6.086   3.476   6.321
48102SOL    HW146138   6.170   3.485   6.277
48102SOL    HW246139   6.107   3.475   6.414
48103SOL     OW46140  12.029   3.016  10.510
48103SOL    HW146141  12.073   3.009  10.595
48103SOL    HW246142  12.021   2.926  10.479
48104SOL     OW46143  10.986  10.464   4.264
48104SOL    HW146144  11.018  10.378   4.238
48104SOL    HW246145  11.065  10.519   4.268
48105SOL     OW46146  10.129  13.964   2.247
48105SOL    HW146147  10.095  13.964   2.337
48105SOL    HW246148  10.077  13.897   2.202
48106SOL     OW46149   6.040   3.866   3.140
48106SOL    HW146150   6.009   3.916   3.216
48106SOL    HW246151   6.134   3.857   3.153
48107SOL     OW46152   3.114  14.595   8.894
48107SOL    HW146153   3.118  14.655   8.969
48107SOL    HW246154   3.204  14.563   8.885
48108SOL     OW46155   2.654   1.065   1.984
48108SOL    HW146156   2.661   1.154   2.019
48108SOL    HW246157   2.670   1.008   2.059
48109SOL     OW46158  11.107   3.214  12.097
48109SOL    HW146159  11.129   3.188  12.008
48109SOL    HW246160  11.191   3.213  12.144
48110SOL     OW46161   3.769   9.430   2.582
48110SOL    HW146162   3.701   9.475   2.531
48110SOL    HW246163   3.851   9.452   2.537
48111SOL     OW46164   1.911   0.685   1.421
48111SOL    HW146165   1.994   0.651   1.456
48111SOL    HW246166   1.930   0.776   1.399
48112SOL     OW46167  12.916  10.167  13.607
48112SOL    HW146168  12.823  10.142  13.609
48112SOL    HW246169  12.933  10.205  13.693
48113SOL     OW46170   6.361   1.373  12.983
48113SOL    HW146171   6.330   1.327  12.905
48113SOL    HW246172   6.456   1.360  12.983
48114SOL     OW46173   9.517   8.924  14.790
48114SOL    HW146174   9.596   8.976  14.807
48114SOL    HW246175   9.535   8.840  14.832
48115SOL     OW46176  12.639   4.211   9.307
48115SOL    HW146177  12.730   4.228   9.330
48115SOL    HW246178  12.630   4.241   9.217
48116SOL     OW46179   8.870  12.311   4.806
48116SOL    HW146180   8.911  12.382   4.856
48116SOL    HW246181   8.940  12.279   4.749
48117SOL     OW46182   8.847  11.390  12.853
48117SOL    HW146183   8.857  11.434  12.938
48117SOL    HW246184   8.892  11.306  12.865
48118SOL     OW46185   1.955   7.184  14.053
48118SOL    HW146186   2.025   7.244  14.027
48118SOL    HW246187   1.994   7.097  14.046
48119SOL     OW46188   1.006  12.303  11.486
48119SOL    HW146189   1.098  12.295  11.513
48119SOL    HW246190   1.009  12.359  11.408
48120SOL     OW46191  13.685   7.800  10.755
48120SOL    HW146192  13.639   7.799  10.671
48120SOL    HW246193  13.773   7.768  10.735
48121SOL     OW46194   2.950   2.100  10.736
48121SOL    HW146195   2.969   2.128  10.825
48121SOL    HW246196   2.871   2.149  10.711
48122SOL     OW46197   1.410   9.718   3.561
48122SOL    HW146198   1.342   9.739   3.625
48122SOL    HW246199   1.474   9.667   3.611
48123SOL     OW46200   3.449   2.500   5.546
48123SOL    HW146201   3.505   2.528   5.473
48123SOL    HW246202   3.388   2.437   5.507
48124SOL     OW46203   2.250   5.663  13.904
48124SOL    HW146204   2.295   5.660  13.820
48124SOL    HW246205   2.161   5.691  13.883
48125SOL     OW46206   6.576   4.939   9.989
48125SOL    HW146207   6.503   4.976  10.038
48125SOL    HW246208   6.650   4.945  10.049
48126SOL     OW46209   7.284   8.143   0.796
48126SOL    HW146210   7.267   8.188   0.713
48126SOL    HW246211   7.373   8.109   0.787
48127SOL     OW46212   0.631   5.167   6.651
48127SOL    HW146213   0.687   5.150   6.575
48127SOL    HW246214   0.598   5.256   6.637
48128SOL     OW46215   4.137  11.577  12.776
48128SOL    HW146216   4.085  11.656  12.762
48128SOL    HW246217   4.125  11.525  12.697
48129SOL     OW46218   1.393  11.357  11.245
48129SOL    HW146219   1.405  11.449  11.269
48129SOL    HW246220   1.477  11.315  11.267
48130SOL     OW46221   8.682   5.209   9.294
48130SOL    HW146222   8.701   5.303   9.286
48130SOL    HW246223   8.754   5.166   9.247
48131SOL     OW46224   0.953   5.529   6.963
48131SOL    HW146225   1.020   5.597   6.956
48131SOL    HW246226   0.999   5.448   6.943
48132SOL     OW46227   9.406   8.750   2.423
48132SOL    HW146228   9.409   8.777   2.515
48132SOL    HW246229   9.352   8.671   2.424
48133SOL     OW46230   0.771   1.012   3.103
48133SOL    HW146231   0.864   0.999   3.083
48133SOL    HW246232   0.769   1.087   3.162
48134SOL     OW46233   1.347   7.840   1.503
48134SOL    HW146234   1.310   7.790   1.430
48134SOL    HW246235   1.358   7.775   1.572
48135SOL     OW46236  14.590   2.021   0.845
48135SOL    HW146237  14.652   1.952   0.867
48135SOL    HW246238  14.504   1.981   0.857
48136SOL     OW46239   3.289   0.350   6.973
48136SOL    HW146240   3.366   0.391   6.933
48136SOL    HW246241   3.318   0.262   6.997
48137SOL     OW46242  11.454   4.284   5.373
48137SOL    HW146243  11.526   4.317   5.319
48137SOL    HW246244  11.450   4.190   5.353
48138SOL     OW46245   4.662   3.376  13.981
48138SOL    HW146246   4.588   3.434  14.000
48138SOL    HW246247   4.655   3.359  13.887
48139SOL     OW46248   1.661  11.536   8.031
48139SOL    HW146249   1.604  11.585   7.972
48139SOL    HW246250   1.644  11.444   8.010
48140SOL     OW46251   3.057  13.781   0.011
48140SOL    HW146252   3.070  13.869  14.847
48140SOL    HW246253   3.072  13.722  14.809
48141SOL     OW46254   0.376  10.049   5.796
48141SOL    HW146255   0.431   9.971   5.806
48141SOL    HW246256   0.368  10.084   5.885
48142SOL     OW46257   2.061   4.836   8.262
48142SOL    HW146258   2.017   4.887   8.194
48142SOL    HW246259   2.025   4.748   8.254
48143SOL     OW46260   7.536   9.457   9.797
48143SOL    HW146261   7.490   9.373   9.791
48143SOL    HW246262   7.627   9.436   9.777
48144SOL     OW46263   5.483   2.372  11.131
48144SOL    HW146264   5.548   2.303  11.118
48144SOL    HW246265   5.485   2.424  11.050
48145SOL     OW46266   3.449   8.279  14.864
48145SOL    HW146267   3.418   8.201  14.818
48145SOL    HW246268   3.529   8.252   0.035
48146SOL     OW46269   5.414   5.993   5.934
48146SOL    HW146270   5.362   6.072   5.948
48146SOL    HW246271   5.357   5.921   5.960
48147SOL     OW46272   7.347  10.408   6.920
48147SOL    HW146273   7.303  10.449   6.846
48147SOL    HW246274   7.355  10.478   6.985
48148SOL     OW46275   3.339   9.602   5.623
48148SOL    HW146276   3.407   9.580   5.560
48148SOL    HW246277   3.356   9.693   5.646
48149SOL     OW46278   5.793   7.334   0.757
48149SOL    HW146279   5.854   7.402   0.728
48149SOL    HW246280   5.731   7.381   0.813
48150SOL     OW46281   9.963   8.673   0.598
48150SOL    HW146282   9.995   8.634   0.517
48150SOL    HW246283   9.938   8.762   0.574
48151SOL     OW46284   1.197   6.316  11.882
48151SOL    HW146285   1.183   6.410  11.888
48151SOL    HW246286   1.226   6.301  11.792
48152SOL     OW46287  14.660   9.749   8.111
48152SOL    HW146288  14.663   9.826   8.054
48152SOL    HW246289  14.654   9.675   8.050
48153SOL     OW46290   7.028   1.258   6.774
48153SOL    HW146291   7.050   1.166   6.759
48153SOL    HW246292   7.081   1.307   6.711
48154SOL     OW46293   8.687   9.276   6.623
48154SOL    HW146294   8.616   9.241   6.568
48154SOL    HW246295   8.741   9.199   6.643
48155SOL     OW46296  12.150   8.758   1.265
48155SOL    HW146297  12.110   8.792   1.345
48155SOL    HW246298  12.244   8.758   1.283
48156SOL     OW46299   0.429  12.399   2.596
48156SOL    HW146300   0.397  12.378   2.683
48156SOL    HW246301   0.467  12.486   2.604
48157SOL     OW46302   1.952   0.916   1.761
48157SOL    HW146303   1.937   0.997   1.810
48157SOL    HW246304   1.893   0.923   1.686
48158SOL     OW46305   4.817  12.387   1.548
48158SOL    HW146306   4.744  12.399   1.610
48158SOL    HW246307   4.894  12.419   1.596
48159SOL     OW46308   4.189   1.839   3.905
48159SOL    HW146309   4.239   1.888   3.970
48159SOL    HW246310   4.100   1.874   3.911
48160SOL     OW46311   7.706   1.599   0.856
48160SOL    HW146312   7.627   1.649   0.834
48160SOL    HW246313   7.753   1.590   0.773
48161SOL     OW46314   2.513   4.388   1.887
48161SOL    HW146315   2.430   4.351   1.919
48161SOL    HW246316   2.501   4.394   1.792
48162SOL     OW46317   5.711  10.457   2.811
48162SOL    HW146318   5.737  10.549   2.812
48162SOL    HW246319   5.669  10.445   2.726
48163SOL     OW46320   0.490  12.833   0.104
48163SOL    HW146321   0.396  12.848   0.114
48163SOL    HW246322   0.502  12.826   0.009
48164SOL     OW46323  11.310   4.347   9.081
48164SOL    HW146324  11.234   4.405   9.072
48164SOL    HW246325  11.347   4.341   8.993
48165SOL     OW46326   0.926   1.743   8.187
48165SOL    HW146327   0.873   1.669   8.157
48165SOL    HW246328   0.885   1.819   8.146
48166SOL     OW46329   9.952   5.667   0.959
48166SOL    HW146330  10.003   5.735   1.003
48166SOL    HW246331   9.938   5.700   0.870
48167SOL     OW46332  13.566   1.563   3.519
48167SOL    HW146333  13.612   1.633   3.474
48167SOL    HW246334  13.547   1.499   3.450
48168SOL     OW46335   1.176   7.840   3.890
48168SOL    HW146336   1.092   7.850   3.935
48168SOL    HW246337   1.238   7.821   3.960
48169SOL     OW46338   2.568   0.592   3.333
48169SOL    HW146339   2.537   0.610   3.244
48169SOL    HW246340   2.603   0.503   3.328
48170SOL     OW46341  11.853   6.532   2.508
48170SOL    HW146342  11.911   6.531   2.584
48170SOL    HW246343  11.813   6.619   2.509
48171SOL     OW46344   7.263  10.201   5.989
48171SOL    HW146345   7.322  10.193   6.064
48171SOL    HW246346   7.225  10.113   5.979
48172SOL     OW46347   2.169  11.853   8.360
48172SOL    HW146348   2.107  11.886   8.295
48172SOL    HW246349   2.122  11.781   8.403
48173SOL     OW46350   5.942  10.364   1.130
48173SOL    HW146351   5.898  10.362   1.215
48173SOL    HW246352   5.915  10.283   1.087
48174SOL     OW46353  14.830  11.795   2.455
48174SOL    HW146354  14.754  11.782   2.512
48174SOL    HW246355  14.830  11.718   2.398
48175SOL     OW46356   1.177   9.948   8.501
48175SOL    HW146357   1.187   9.946   8.406
48175SOL    HW246358   1.184   9.856   8.528
48176SOL     OW46359   6.106   6.038   8.478
48176SOL    HW146360   6.160   6.041   8.399
48176SOL    HW246361   6.131   5.957   8.522
48177SOL     OW46362   9.055  13.117  13.948
48177SOL    HW146363   9.101  13.043  13.990
48177SOL    HW246364   9.100  13.195  13.982
48178SOL     OW46365  14.195   9.446  12.226
48178SOL    HW146366  14.228   9.492  12.149
48178SOL    HW246367  14.273   9.413  12.270
48179SOL     OW46368   0.640   7.279   4.409
48179SOL    HW146369   0.582   7.337   4.459
48179SOL    HW246370   0.611   7.290   4.318
48180SOL     OW46371   8.947  10.114  14.031
48180SOL    HW146372   8.853  10.101  14.042
48180SOL    HW246373   8.953  10.184  13.966
48181SOL     OW46374  14.013   1.672  10.742
48181SOL    HW146375  13.957   1.608  10.698
48181SOL    HW246376  14.041   1.628  10.822
48182SOL     OW46377  14.460   8.920  11.277
48182SOL    HW146378  14.512   8.846  11.244
48182SOL    HW246379  14.377   8.913  11.231
48183SOL     OW46380   0.792  10.990  12.950
48183SOL    HW146381   0.877  11.015  12.913
48183SOL    HW246382   0.733  10.987  12.874
48184SOL     OW46383   0.580  12.750   2.109
48184SOL    HW146384   0.561  12.686   2.040
48184SOL    HW246385   0.666  12.724   2.142
48185SOL     OW46386   8.853   9.103   3.658
48185SOL    HW146387   8.931   9.079   3.608
48185SOL    HW246388   8.834   9.193   3.632
48186SOL     OW46389   0.245   0.687   9.322
48186SOL    HW146390   0.156   0.711   9.350
48186SOL    HW246391   0.236   0.663   9.230
48187SOL     OW46392   7.490  10.507   2.225
48187SOL    HW146393   7.462  10.498   2.133
48187SOL    HW246394   7.523  10.421   2.249
48188SOL     OW46395  12.831  13.933  10.698
48188SOL    HW146396  12.738  13.956  10.707
48188SOL    HW246397  12.866  13.997  10.637
48189SOL     OW46398   9.024   9.873   3.516
48189SOL    HW146399   9.071   9.932   3.575
48189SOL    HW246400   9.062   9.787   3.532
48190SOL     OW46401   8.440   8.268   3.834
48190SOL    HW146402   8.428   8.175   3.813
48190SOL    HW246403   8.352   8.306   3.831
48191SOL     OW46404   4.225  10.093   6.495
48191SOL    HW146405   4.205  10.120   6.585
48191SOL    HW246406   4.289  10.158   6.464
48192SOL     OW46407   6.033   7.526   2.137
48192SOL    HW146408   5.964   7.573   2.089
48192SOL    HW246409   6.023   7.435   2.109
48193SOL     OW46410   4.669   1.569  10.456
48193SOL    HW146411   4.744   1.510  10.445
48193SOL    HW246412   4.708   1.656  10.465
48194SOL     OW46413  10.230  13.768  10.542
48194SOL    HW146414  10.202  13.859  10.535
48194SOL    HW246415  10.288  13.766  10.618
48195SOL     OW46416  11.983   6.463   0.110
48195SOL    HW146417  12.049   6.403   0.075
48195SOL    HW246418  12.026   6.548   0.109
48196SOL     OW46419   6.756   0.568   6.112
48196SOL    HW146420   6.815   0.568   6.037
48196SOL    HW246421   6.695   0.640   6.094
48197SOL     OW46422   4.609  14.570   3.790
48197SOL    HW146423   4.562  14.516   3.726
48197SOL    HW246424   4.616  14.515   3.868
48198SOL     OW46425  13.746   2.244   4.401
48198SOL    HW146426  13.709   2.166   4.360
48198SOL    HW246427  13.670   2.292   4.435
48199SOL     OW46428  11.763  14.857  12.569
48199SOL    HW146429  11.820   0.061  12.563
48199SOL    HW246430  11.758  14.824  12.479
48200SOL     OW46431   4.967   0.011   4.937
48200SOL    HW146432   5.026  14.870   4.863
48200SOL    HW246433   5.023   0.043   5.008
48201SOL     OW46434   8.729   8.086   6.821
48201SOL    HW146435   8.711   8.146   6.749
48201SOL    HW246436   8.793   8.024   6.786
48202SOL     OW46437   0.478  12.229   1.889
48202SOL    HW146438   0.382  12.232   1.886
48202SOL    HW246439   0.502  12.301   1.947
48203SOL     OW46440   3.733   7.706   7.094
48203SOL    HW146441   3.761   7.628   7.047
48203SOL    HW246442   3.747   7.684   7.186
48204SOL     OW46443   7.319  10.656   7.827
48204SOL    HW146444   7.278  10.713   7.762
48204SOL    HW246445   7.285  10.685   7.911
48205SOL     OW46446   7.403  14.000  10.476
48205SOL    HW146447   7.460  13.969  10.406
48205SOL    HW246448   7.314  13.978  10.446
48206SOL     OW46449   5.616   8.336   6.819
48206SOL    HW146450   5.605   8.275   6.892
48206SOL    HW246451   5.711   8.338   6.803
48207SOL     OW46452  14.108  13.512   2.958
48207SOL    HW146453  14.185  13.473   2.918
48207SOL    HW246454  14.076  13.446   3.020
48208SOL     OW46455  10.111   8.718  14.192
48208SOL    HW146456  10.067   8.634  14.176
48208SOL    HW246457  10.193   8.693  14.235
48209SOL     OW46458   0.450   9.593  10.579
48209SOL    HW146459   0.522   9.535  10.556
48209SOL    HW246460   0.472   9.676  10.538
48210SOL     OW46461  12.087  13.775  13.079
48210SOL    HW146462  12.112  13.855  13.031
48210SOL    HW246463  12.032  13.727  13.017
48211SOL     OW46464   6.071  11.917   1.208
48211SOL    HW146465   6.043  11.896   1.119
48211SOL    HW246466   6.095  12.010   1.205
48212SOL     OW46467   6.680   7.267   2.563
48212SOL    HW146468   6.611   7.308   2.615
48212SOL    HW246469   6.746   7.336   2.551
48213SOL     OW46470  10.528  11.086   7.772
48213SOL    HW146471  10.441  11.113   7.744
48213SOL    HW246472  10.573  11.167   7.794
48214SOL     OW46473   3.546   3.292  10.364
48214SOL    HW146474   3.535   3.331  10.451
48214SOL    HW246475   3.555   3.367  10.305
48215SOL     OW46476   2.118  11.574   6.274
48215SOL    HW146477   2.178  11.511   6.313
48215SOL    HW246478   2.160  11.659   6.288
48216SOL     OW46479   6.119   7.595   1.745
48216SOL    HW146480   6.077   7.672   1.706
48216SOL    HW246481   6.191   7.630   1.797
48217SOL     OW46482   2.745   1.760  14.663
48217SOL    HW146483   2.780   1.795  14.581
48217SOL    HW246484   2.689   1.687  14.635
48218SOL     OW46485  13.364  14.725  13.728
48218SOL    HW146486  13.297  14.784  13.761
48218SOL    HW246487  13.363  14.650  13.787
48219SOL     OW46488   0.245   8.744   6.863
48219SOL    HW146489   0.223   8.722   6.772
48219SOL    HW246490   0.320   8.804   6.855
48220SOL     OW46491   4.441  14.554   4.304
48220SOL    HW146492   4.437  14.470   4.258
48220SOL    HW246493   4.512  14.601   4.261
48221SOL     OW46494  14.636  13.440   1.044
48221SOL    HW146495  14.601  13.351   1.032
48221SOL    HW246496  14.731  13.428   1.048
48222SOL     OW46497  14.706   3.345   0.229
48222SOL    HW146498  14.758   3.342   0.309
48222SOL    HW246499  14.761   3.393   0.166
48223SOL     OW46500   1.204  10.956   6.109
48223SOL    HW146501   1.116  10.984   6.083
48223SOL    HW246502   1.190  10.880   6.165
48224SOL     OW46503  11.290   1.609   8.495
48224SOL    HW146504  11.239   1.651   8.426
48224SOL    HW246505  11.277   1.666   8.571
48225SOL     OW46506   4.003   5.960  12.835
48225SOL    HW146507   4.090   5.993  12.858
48225SOL    HW246508   3.946   6.037  12.837
48226SOL     OW46509   5.732   9.133   0.635
48226SOL    HW146510   5.664   9.099   0.577
48226SOL    HW246511   5.805   9.073   0.625
48227SOL     OW46512  12.569  12.792   7.131
48227SOL    HW146513  12.630  12.734   7.084
48227SOL    HW246514  12.534  12.850   7.063
48228SOL     OW46515   5.423   7.750   0.425
48228SOL    HW146516   5.495   7.758   0.362
48228SOL    HW246517   5.402   7.657   0.425
48229SOL     OW46518  14.151   5.364   1.575
48229SOL    HW146519  14.071   5.312   1.567
48229SOL    HW246520  14.194   5.354   1.490
48230SOL     OW46521   8.213   5.281   7.427
48230SOL    HW146522   8.197   5.319   7.341
48230SOL    HW246523   8.133   5.232   7.447
48231SOL     OW46524   5.628  10.613   4.638
48231SOL    HW146525   5.606  10.611   4.545
48231SOL    HW246526   5.620  10.706   4.662
48232SOL     OW46527  13.659   6.481   3.566
48232SOL    HW146528  13.746   6.492   3.605
48232SOL    HW246529  13.612   6.560   3.592
48233SOL     OW46530   1.418   7.809   8.658
48233SOL    HW146531   1.467   7.737   8.697
48233SOL    HW246532   1.358   7.767   8.597
48234SOL     OW46533   6.827  12.779  11.458
48234SOL    HW146534   6.756  12.727  11.421
48234SOL    HW246535   6.851  12.840  11.389
48235SOL     OW46536  13.708   7.030  10.524
48235SOL    HW146537  13.719   6.945  10.566
48235SOL    HW246538  13.625   7.063  10.558
48236SOL     OW46539   1.515  10.833  11.756
48236SOL    HW146540   1.468  10.916  11.746
48236SOL    HW246541   1.455  10.777  11.804
48237SOL     OW46542   4.857   9.023   3.107
48237SOL    HW146543   4.849   8.963   3.180
48237SOL    HW246544   4.864   8.967   3.030
48238SOL     OW46545  13.197   7.544  10.605
48238SOL    HW146546  13.156   7.519  10.688
48238SOL    HW246547  13.150   7.493  10.539
48239SOL     OW46548  10.848   2.541   2.629
48239SOL    HW146549  10.926   2.571   2.675
48239SOL    HW246550  10.816   2.618   2.583
48240SOL     OW46551   6.363   6.647  14.592
48240SOL    HW146552   6.309   6.654  14.670
48240SOL    HW246553   6.384   6.554  14.586
48241SOL     OW46554  12.431   6.266  13.475
48241SOL    HW146555  12.377   6.199  13.433
48241SOL    HW246556  12.469   6.315  13.403
48242SOL     OW46557  10.590   7.036   8.010
48242SOL    HW146558  10.681   7.007   8.014
48242SOL    HW246559  10.592   7.125   8.046
48243SOL     OW46560   4.035   0.144  14.237
48243SOL    HW146561   4.020   0.237  14.221
48243SOL    HW246562   3.961   0.117  14.291
48244SOL     OW46563   9.574  14.208   2.592
48244SOL    HW146564   9.507  14.141   2.600
48244SOL    HW246565   9.632  14.176   2.523
48245SOL     OW46566  12.974   2.707  11.780
48245SOL    HW146567  12.889   2.735  11.747
48245SOL    HW246568  12.954   2.658  11.860
48246SOL     OW46569   9.928   4.901   1.138
48246SOL    HW146570   9.839   4.911   1.104
48246SOL    HW246571   9.946   4.807   1.130
48247SOL     OW46572  14.713  12.967   1.603
48247SOL    HW146573  14.650  12.921   1.548
48247SOL    HW246574  14.681  13.057   1.606
48248SOL     OW46575   9.711   2.957  11.430
48248SOL    HW146576   9.681   2.906  11.505
48248SOL    HW246577   9.674   3.045  11.445
48249SOL     OW46578   3.323   7.410   9.847
48249SOL    HW146579   3.307   7.388   9.939
48249SOL    HW246580   3.236   7.430   9.812
48250SOL     OW46581   1.841   1.659   7.514
48250SOL    HW146582   1.774   1.594   7.533
48250SOL    HW246583   1.912   1.641   7.575
48251SOL     OW46584   4.404  13.577   9.941
48251SOL    HW146585   4.427  13.493   9.981
48251SOL    HW246586   4.485  13.608   9.902
48252SOL     OW46587   3.959   9.614  11.168
48252SOL    HW146588   4.040   9.589  11.124
48252SOL    HW246589   3.987   9.660  11.247
48253SOL     OW46590   8.475   8.446   4.602
48253SOL    HW146591   8.549   8.490   4.645
48253SOL    HW246592   8.509   8.360   4.579
48254SOL     OW46593  10.578   6.183   7.406
48254SOL    HW146594  10.517   6.225   7.346
48254SOL    HW246595  10.534   6.103   7.433
48255SOL     OW46596   3.383  13.142  10.848
48255SOL    HW146597   3.357  13.102  10.765
48255SOL    HW246598   3.350  13.082  10.915
48256SOL     OW46599   3.940   6.301   8.563
48256SOL    HW146600   3.918   6.273   8.651
48256SOL    HW246601   3.909   6.391   8.557
48257SOL     OW46602   8.683  10.744  14.703
48257SOL    HW146603   8.690  10.724  14.609
48257SOL    HW246604   8.657  10.661  14.743
48258SOL     OW46605   4.462  10.191   9.298
48258SOL    HW146606   4.504  10.183   9.384
48258SOL    HW246607   4.420  10.106   9.284
48259SOL     OW46608  14.786  10.105   6.781
48259SOL    HW146609  14.694  10.078   6.777
48259SOL    HW246610  14.787  10.181   6.839
48260SOL     OW46611   2.077  14.565   0.021
48260SOL    HW146612   2.158  14.538  14.849
48260SOL    HW246613   2.025  14.607  14.825
48261SOL     OW46614  13.205   5.211   4.488
48261SOL    HW146615  13.286   5.237   4.532
48261SOL    HW246616  13.226   5.128   4.447
48262SOL     OW46617  13.204  11.805   3.612
48262SOL    HW146618  13.203  11.787   3.518
48262SOL    HW246619  13.254  11.886   3.621
48263SOL     OW46620   1.982   8.031   3.948
48263SOL    HW146621   1.949   7.965   3.888
48263SOL    HW246622   1.929   8.109   3.930
48264SOL     OW46623   4.977  12.674  13.704
48264SOL    HW146624   4.973  12.581  13.727
48264SOL    HW246625   4.973  12.720  13.788
48265SOL     OW46626   3.985  10.233  10.331
48265SOL    HW146627   3.986  10.240  10.236
48265SOL    HW246628   3.944  10.315  10.360
48266SOL     OW46629   9.533  10.316  10.966
48266SOL    HW146630   9.604  10.304  11.028
48266SOL    HW246631   9.551  10.400  10.924
48267SOL     OW46632   6.896   2.636   4.759
48267SOL    HW146633   6.984   2.617   4.790
48267SOL    HW246634   6.900   2.727   4.729
48268SOL     OW46635   1.446  11.466  12.662
48268SOL    HW146636   1.395  11.493  12.739
48268SOL    HW246637   1.410  11.518  12.590
48269SOL     OW46638   2.277   1.026   4.532
48269SOL    HW146639   2.364   1.060   4.550
48269SOL    HW246640   2.291   0.937   4.500
48270SOL     OW46641   7.376  14.431   1.390
48270SOL    HW146642   7.316  14.488   1.438
48270SOL    HW246643   7.336  14.345   1.392
48271SOL     OW46644   4.990   4.957   7.434
48271SOL    HW146645   5.026   4.869   7.433
48271SOL    HW246646   4.915   4.953   7.374
48272SOL     OW46647  13.616  13.194   5.441
48272SOL    HW146648  13.658  13.280   5.442
48272SOL    HW246649  13.581  13.183   5.530
48273SOL     OW46650   1.867   9.107   3.914
48273SOL    HW146651   1.791   9.165   3.926
48273SOL    HW246652   1.915   9.147   3.841
48274SOL     OW46653  10.675   3.990   4.776
48274SOL    HW146654  10.661   4.058   4.710
48274SOL    HW246655  10.629   4.022   4.854
48275SOL     OW46656   2.106   1.294   2.898
48275SOL    HW146657   2.087   1.232   2.968
48275SOL    HW246658   2.123   1.239   2.821
48276SOL     OW46659  13.245   7.203   3.579
48276SOL    HW146660  13.216   7.115   3.553
48276SOL    HW246661  13.273   7.244   3.497
48277SOL     OW46662   8.977   8.236   1.857
48277SOL    HW146663   8.989   8.167   1.793
48277SOL    HW246664   8.994   8.194   1.942
48278SOL     OW46665   4.500   7.332  12.545
48278SOL    HW146666   4.582   7.285  12.528
48278SOL    HW246667   4.517   7.383  12.624
48279SOL     OW46668   6.063   9.246  11.865
48279SOL    HW146669   6.094   9.160  11.836
48279SOL    HW246670   6.043   9.293  11.784
48280SOL     OW46671  11.501   7.303  10.501
48280SOL    HW146672  11.570   7.325  10.564
48280SOL    HW246673  11.448   7.382  10.494
48281SOL     OW46674  12.904   6.500  10.007
48281SOL    HW146675  12.894   6.475   9.915
48281SOL    HW246676  12.815   6.510  10.039
48282SOL     OW46677   9.978   4.311   9.021
48282SOL    HW146678   9.992   4.374   9.091
48282SOL    HW246679  10.037   4.339   8.951
48283SOL     OW46680  12.458   5.690   5.934
48283SOL    HW146681  12.504   5.765   5.971
48283SOL    HW246682  12.387   5.727   5.883
48284SOL     OW46683   8.306   4.823   4.001
48284SOL    HW146684   8.234   4.761   4.000
48284SOL    HW246685   8.268   4.904   4.035
48285SOL     OW46686   6.116   9.515   4.006
48285SOL    HW146687   6.155   9.534   4.091
48285SOL    HW246688   6.029   9.480   4.027
48286SOL     OW46689  11.863   6.393   7.044
48286SOL    HW146690  11.777   6.377   7.082
48286SOL    HW246691  11.882   6.312   6.995
48287SOL     OW46692   0.303  14.673  11.438
48287SOL    HW146693   0.258  14.600  11.480
48287SOL    HW246694   0.393  14.642  11.425
48288SOL     OW46695   9.725  10.438   6.857
48288SOL    HW146696   9.773  10.356   6.871
48288SOL    HW246697   9.633  10.412   6.854
48289SOL     OW46698   6.248   0.917   2.805
48289SOL    HW146699   6.321   0.865   2.772
48289SOL    HW246700   6.183   0.913   2.734
48290SOL     OW46701   2.110  14.550  11.391
48290SOL    HW146702   2.038  14.585  11.339
48290SOL    HW246703   2.181  14.536  11.328
48291SOL     OW46704  12.015   2.114   2.011
48291SOL    HW146705  12.070   2.088   2.085
48291SOL    HW246706  12.077   2.137   1.942
48292SOL     OW46707  10.984   3.791   9.513
48292SOL    HW146708  11.031   3.852   9.570
48292SOL    HW246709  10.908   3.764   9.565
48293SOL     OW46710  10.432   0.638  13.919
48293SOL    HW146711  10.416   0.654  14.012
48293SOL    HW246712  10.495   0.705  13.894
48294SOL     OW46713  14.160   7.807  10.116
48294SOL    HW146714  14.206   7.891  10.121
48294SOL    HW246715  14.226   7.746  10.083
48295SOL     OW46716   3.806   7.591  12.874
48295SOL    HW146717   3.822   7.500  12.898
48295SOL    HW246718   3.772   7.586  12.785
48296SOL     OW46719   6.231  11.750  14.198
48296SOL    HW146720   6.266  11.818  14.140
48296SOL    HW246721   6.139  11.741  14.172
48297SOL     OW46722  11.341   3.750   1.351
48297SOL    HW146723  11.402   3.768   1.279
48297SOL    HW246724  11.299   3.668   1.328
48298SOL     OW46725  14.383   6.119  10.212
48298SOL    HW146726  14.335   6.065  10.150
48298SOL    HW246727  14.455   6.064  10.242
48299SOL     OW46728  12.628  10.049   3.092
48299SOL    HW146729  12.614  10.119   3.157
48299SOL    HW246730  12.688   9.989   3.135
48300SOL     OW46731  11.594   2.593  11.729
48300SOL    HW146732  11.689   2.609  11.728
48300SOL    HW246733  11.570   2.599  11.821
48301SOL     OW46734  14.299  10.691   7.116
48301SOL    HW146735  14.276  10.639   7.039
48301SOL    HW246736  14.322  10.626   7.182
48302SOL     OW46737   1.897  11.880   4.773
48302SOL    HW146738   1.858  11.897   4.859
48302SOL    HW246739   1.988  11.857   4.793
48303SOL     OW46740   9.056   4.080   8.983
48303SOL    HW146741   9.090   4.126   8.907
48303SOL    HW246742   8.969   4.050   8.956
48304SOL     OW46743   4.874   7.053  13.322
48304SOL    HW146744   4.806   6.992  13.349
48304SOL    HW246745   4.940   7.049  13.391
48305SOL     OW46746  14.486  12.731  14.629
48305SOL    HW146747  14.406  12.778  14.656
48305SOL    HW246748  14.459  12.640  14.623
48306SOL     OW46749   3.606  13.012   7.922
48306SOL    HW146750   3.540  13.081   7.932
48306SOL    HW246751   3.682  13.045   7.970
48307SOL     OW46752   8.412  12.941   8.745
48307SOL    HW146753   8.399  12.898   8.829
48307SOL    HW246754   8.495  12.905   8.712
48308SOL     OW46755   1.595   0.233   2.831
48308SOL    HW146756   1.619   0.289   2.757
48308SOL    HW246757   1.500   0.241   2.837
48309SOL     OW46758  14.548  14.867   2.554
48309SOL    HW146759  14.567   0.073   2.606
48309SOL    HW246760  14.462   0.011   2.516
48310SOL     OW46761   4.561   3.090  11.302
48310SOL    HW146762   4.519   3.031  11.365
48310SOL    HW246763   4.641   3.044  11.276
48311SOL     OW46764  13.566  11.783   1.428
48311SOL    HW146765  13.577  11.694   1.395
48311SOL    HW246766  13.551  11.836   1.350
48312SOL     OW46767  14.162   6.216   1.756
48312SOL    HW146768  14.241   6.234   1.705
48312SOL    HW246769  14.136   6.128   1.728
48313SOL     OW46770   1.330  13.459   1.947
48313SOL    HW146771   1.420  13.436   1.924
48313SOL    HW246772   1.307  13.400   2.018
48314SOL     OW46773   9.859   9.206   8.230
48314SOL    HW146774   9.934   9.150   8.250
48314SOL    HW246775   9.854   9.206   8.134
48315SOL     OW46776   4.755   6.334  14.711
48315SOL    HW146777   4.759   6.403  14.777
48315SOL    HW246778   4.840   6.338  14.667
48316SOL     OW46779   0.539   3.998   6.373
48316SOL    HW146780   0.634   4.006   6.365
48316SOL    HW246781   0.524   3.983   6.466
48317SOL     OW46782   7.321  10.971  11.581
48317SOL    HW146783   7.271  11.016  11.649
48317SOL    HW246784   7.256  10.922  11.531
48318SOL     OW46785  12.000   8.871  13.889
48318SOL    HW146786  12.008   8.776  13.881
48318SOL    HW246787  12.085   8.905  13.862
48319SOL     OW46788   1.767  13.043   1.342
48319SOL    HW146789   1.808  13.046   1.256
48319SOL    HW246790   1.679  13.080   1.328
48320SOL     OW46791   5.905   4.192   3.986
48320SOL    HW146792   5.956   4.206   3.906
48320SOL    HW246793   5.901   4.278   4.027
48321SOL     OW46794  12.211   1.147  12.766
48321SOL    HW146795  12.258   1.072  12.804
48321SOL    HW246796  12.258   1.224  12.799
48322SOL     OW46797  10.285   8.467  10.232
48322SOL    HW146798  10.238   8.550  10.228
48322SOL    HW246799  10.361   8.480  10.177
48323SOL     OW46800  13.513   9.662   0.644
48323SOL    HW146801  13.469   9.732   0.596
48323SOL    HW246802  13.570   9.620   0.580
48324SOL     OW46803   7.497  14.093   2.018
48324SOL    HW146804   7.554  14.152   1.969
48324SOL    HW246805   7.450  14.044   1.950
48325SOL     OW46806   1.542   7.936   0.063
48325SOL    HW146807   1.565   7.977   0.146
48325SOL    HW246808   1.610   7.871   0.047
48326SOL     OW46809   3.495   4.013   2.671
48326SOL    HW146810   3.460   4.094   2.635
48326SOL    HW246811   3.429   3.947   2.651
48327SOL     OW46812   9.824   0.050   5.020
48327SOL    HW146813   9.738   0.089   5.032
48327SOL    HW246814   9.860   0.044   5.109
48328SOL     OW46815   8.995   5.860  14.377
48328SOL    HW146816   8.933   5.914  14.426
48328SOL    HW246817   9.006   5.906  14.293
48329SOL     OW46818   7.552  13.266   2.686
48329SOL    HW146819   7.459  13.246   2.681
48329SOL    HW246820   7.575  13.298   2.599
48330SOL     OW46821  13.997   8.043   7.061
48330SOL    HW146822  14.037   7.968   7.019
48330SOL    HW246823  13.925   8.068   7.003
48331SOL     OW46824   7.541   0.700  13.374
48331SOL    HW146825   7.608   0.713  13.441
48331SOL    HW246826   7.516   0.788  13.346
48332SOL     OW46827   2.717   7.176   9.718
48332SOL    HW146828   2.698   7.166   9.811
48332SOL    HW246829   2.637   7.213   9.681
48333SOL     OW46830  10.327   6.154   6.296
48333SOL    HW146831  10.365   6.066   6.304
48333SOL    HW246832  10.240   6.138   6.257
48334SOL     OW46833  12.477   0.135  10.809
48334SOL    HW146834  12.456   0.205  10.871
48334SOL    HW246835  12.413   0.066  10.826
48335SOL     OW46836   5.385   7.543   3.448
48335SOL    HW146837   5.289   7.545   3.452
48335SOL    HW246838   5.406   7.454   3.418
48336SOL     OW46839   1.117   2.900  11.644
48336SOL    HW146840   1.066   2.905  11.725
48336SOL    HW246841   1.064   2.846  11.585
48337SOL     OW46842   0.530   5.381  10.285
48337SOL    HW146843   0.505   5.403  10.195
48337SOL    HW246844   0.466   5.315  10.312
48338SOL     OW46845  12.571   3.035  10.182
48338SOL    HW146846  12.537   2.974  10.247
48338SOL    HW246847  12.666   3.036  10.198
48339SOL     OW46848  11.232   6.712   0.228
48339SOL    HW146849  11.264   6.780   0.169
48339SOL    HW246850  11.145   6.690   0.194
48340SOL     OW46851   8.897  14.669   4.418
48340SOL    HW146852   8.941  14.749   4.388
48340SOL    HW246853   8.966  14.603   4.421
48341SOL     OW46854   0.062   1.463  14.745
48341SOL    HW146855   0.061   1.403  14.671
48341SOL    HW246856  14.866   1.429  14.804
48342SOL     OW46857   5.628   3.750  13.895
48342SOL    HW146858   5.606   3.840  13.871
48342SOL    HW246859   5.722   3.743  13.879
48343SOL     OW46860   1.503   8.600  11.449
48343SOL    HW146861   1.541   8.640  11.527
48343SOL    HW246862   1.428   8.550  11.483
48344SOL     OW46863   9.569   5.541  12.701
48344SOL    HW146864   9.600   5.497  12.781
48344SOL    HW246865   9.643   5.595  12.673
48345SOL     OW46866   6.533   1.658   6.525
48345SOL    HW146867   6.552   1.707   6.604
48345SOL    HW246868   6.595   1.585   6.526
48346SOL     OW46869   2.585   3.559  14.045
48346SOL    HW146870   2.513   3.616  14.016
48346SOL    HW246871   2.585   3.568  14.141
48347SOL     OW46872   0.849  10.426   9.314
48347SOL    HW146873   0.938  10.458   9.301
48347SOL    HW246874   0.810  10.427   9.227
48348SOL     OW46875   2.430   0.820   4.464
48348SOL    HW146876   2.515   0.864   4.467
48348SOL    HW246877   2.446   0.734   4.503
48349SOL     OW46878   3.930   6.759  11.320
48349SOL    HW146879   3.846   6.744  11.276
48349SOL    HW246880   3.906   6.779  11.411
48350SOL     OW46881   0.674   7.765   3.505
48350SOL    HW146882   0.615   7.690   3.514
48350SOL    HW246883   0.762   7.728   3.505
48351SOL     OW46884   0.520  14.491   9.740
48351SOL    HW146885   0.600  14.517   9.694
48351SOL    HW246886   0.536  14.516   9.831
48352SOL     OW46887   3.340  12.315   0.025
48352SOL    HW146888   3.394  12.394   0.021
48352SOL    HW246889   3.350  12.274  14.812
48353SOL     OW46890   2.051   7.053   8.362
48353SOL    HW146891   2.060   7.006   8.445
48353SOL    HW246892   2.045   6.985   8.296
48354SOL     OW46893   9.272   1.322  10.716
48354SOL    HW146894   9.219   1.365  10.783
48354SOL    HW246895   9.362   1.331  10.747
48355SOL     OW46896   2.236  11.992   7.265
48355SOL    HW146897   2.278  11.977   7.180
48355SOL    HW246898   2.195  12.079   7.257
48356SOL     OW46899   3.859   7.371  13.039
48356SOL    HW146900   3.880   7.398  13.128
48356SOL    HW246901   3.797   7.298  13.050
48357SOL     OW46902   5.187   4.565   9.017
48357SOL    HW146903   5.159   4.559   8.925
48357SOL    HW246904   5.111   4.600   9.063
48358SOL     OW46905  12.947   6.004   8.756
48358SOL    HW146906  12.890   6.065   8.711
48358SOL    HW246907  13.024   5.997   8.700
48359SOL     OW46908  12.121  14.071   5.244
48359SOL    HW146909  12.104  13.977   5.248
48359SOL    HW246910  12.198  14.079   5.188
48360SOL     OW46911   2.718   9.330   2.288
48360SOL    HW146912   2.757   9.256   2.242
48360SOL    HW246913   2.772   9.405   2.264
48361SOL     OW46914   2.599  11.134   8.789
48361SOL    HW146915   2.580  11.228   8.795
48361SOL    HW246916   2.530  11.100   8.732
48362SOL     OW46917   8.098  10.695   6.183
48362SOL    HW146918   8.131  10.775   6.142
48362SOL    HW246919   8.011  10.717   6.214
48363SOL     OW46920  12.550   3.529  10.982
48363SOL    HW146921  12.602   3.449  10.990
48363SOL    HW246922  12.613   3.600  10.994
48364SOL     OW46923  14.017   4.123   7.187
48364SOL    HW146924  14.037   4.197   7.245
48364SOL    HW246925  13.987   4.164   7.106
48365SOL     OW46926   6.572   4.166   6.192
48365SOL    HW146927   6.490   4.150   6.238
48365SOL    HW246928   6.627   4.091   6.216
48366SOL     OW46929   3.712   6.800   2.082
48366SOL    HW146930   3.687   6.717   2.120
48366SOL    HW246931   3.753   6.848   2.153
48367SOL     OW46932   0.664   9.844   6.611
48367SOL    HW146933   0.638   9.813   6.697
48367SOL    HW246934   0.705   9.768   6.569
48368SOL     OW46935  11.037   9.270  10.488
48368SOL    HW146936  11.084   9.283  10.406
48368SOL    HW246937  10.957   9.322  10.479
48369SOL     OW46938  11.233  10.462  14.224
48369SOL    HW146939  11.217  10.412  14.304
48369SOL    HW246940  11.316  10.508  14.241
48370SOL     OW46941   0.512   4.321   9.535
48370SOL    HW146942   0.533   4.250   9.474
48370SOL    HW246943   0.421   4.344   9.513
48371SOL     OW46944   0.028   3.182   1.760
48371SOL    HW146945   0.012   3.254   1.699
48371SOL    HW246946   0.100   3.133   1.720
48372SOL     OW46947   6.450   1.858  10.331
48372SOL    HW146948   6.486   1.947  10.328
48372SOL    HW246949   6.357   1.870  10.351
48373SOL     OW46950   7.761   5.324   7.226
48373SOL    HW146951   7.796   5.236   7.234
48373SOL    HW246952   7.830   5.380   7.263
48374SOL     OW46953  14.708  11.002  13.216
48374SOL    HW146954  14.648  11.010  13.290
48374SOL    HW246955  14.764  11.079  13.221
48375SOL     OW46956  14.239   6.737   7.306
48375SOL    HW146957  14.187   6.774   7.234
48375SOL    HW246958  14.248   6.644   7.283
48376SOL     OW46959  12.960   7.599   7.867
48376SOL    HW146960  12.950   7.565   7.778
48376SOL    HW246961  13.044   7.564   7.896
48377SOL     OW46962   6.843  12.000   8.902
48377SOL    HW146963   6.891  11.956   8.832
48377SOL    HW246964   6.910  12.019   8.968
48378SOL     OW46965   4.859   5.455   7.721
48378SOL    HW146966   4.851   5.423   7.632
48378SOL    HW246967   4.849   5.550   7.714
48379SOL     OW46968   0.098   0.887   3.883
48379SOL    HW146969   0.042   0.957   3.849
48379SOL    HW246970   0.134   0.845   3.805
48380SOL     OW46971  13.019  10.849   1.303
48380SOL    HW146972  13.095  10.898   1.269
48380SOL    HW246973  13.055  10.765   1.330
48381SOL     OW46974   9.593   4.582   8.925
48381SOL    HW146975   9.625   4.493   8.909
48381SOL    HW246976   9.543   4.575   9.005
48382SOL     OW46977   9.174   3.078   1.646
48382SOL    HW146978   9.169   3.020   1.721
48382SOL    HW246979   9.145   3.025   1.572
48383SOL     OW46980   2.363  10.644  14.163
48383SOL    HW146981   2.404  10.577  14.109
48383SOL    HW246982   2.277  10.658  14.123
48384SOL     OW46983  11.707  12.479  10.956
48384SOL    HW146984  11.766  12.516  11.023
48384SOL    HW246985  11.711  12.385  10.970
48385SOL     OW46986   9.343   0.385   9.560
48385SOL    HW146987   9.311   0.453   9.500
48385SOL    HW246988   9.345   0.428   9.646
48386SOL     OW46989   2.319   6.002   4.627
48386SOL    HW146990   2.229   6.019   4.598
48386SOL    HW246991   2.374   6.038   4.558
48387SOL     OW46992   3.538   0.191   8.897
48387SOL    HW146993   3.576   0.105   8.880
48387SOL    HW246994   3.445   0.175   8.910
48388SOL     OW46995   6.926   3.311   4.860
48388SOL    HW146996   6.930   3.397   4.817
48388SOL    HW246997   6.834   3.300   4.883
48389SOL     OW46998   2.391   0.011   7.950
48389SOL    HW146999   2.333  14.812   7.976
48389SOL    HW247000   2.338   0.067   7.894
48390SOL     OW47001  10.057   9.999   7.515
48390SOL    HW147002  10.030   9.955   7.434
48390SOL    HW247003  10.019   9.946   7.585
48391SOL     OW47004  10.827   2.163  10.520
48391SOL    HW147005  10.777   2.093  10.564
48391SOL    HW247006  10.854   2.221  10.591
48392SOL     OW47007   3.186   9.018   3.639
48392SOL    HW147008   3.098   9.053   3.653
48392SOL    HW247009   3.241   9.065   3.701
48393SOL     OW47010   3.138   8.744   5.698
48393SOL    HW147011   3.187   8.681   5.644
48393SOL    HW247012   3.046   8.726   5.678
48394SOL     OW47013   5.487   2.958   1.163
48394SOL    HW147014   5.399   2.998   1.161
48394SOL    HW247015   5.527   2.984   1.080
48395SOL     OW47016   5.327  12.099   0.054
48395SOL    HW147017   5.315  12.080  14.833
48395SOL    HW247018   5.390  12.171   0.056
48396SOL     OW47019  12.491   8.164   8.636
48396SOL    HW147020  12.493   8.258   8.658
48396SOL    HW247021  12.583   8.137   8.638
48397SOL     OW47022   2.736   1.942   7.882
48397SOL    HW147023   2.753   2.006   7.812
48397SOL    HW247024   2.726   1.859   7.836
48398SOL     OW47025   0.372  14.829   9.649
48398SOL    HW147026   0.355   0.036   9.599
48398SOL    HW247027   0.333  14.759   9.598
48399SOL     OW47028   5.314   3.589   2.098
48399SOL    HW147029   5.326   3.679   2.129
48399SOL    HW247030   5.312   3.597   2.002
48400SOL     OW47031  13.202  12.991   2.612
48400SOL    HW147032  13.273  13.007   2.549
48400SOL    HW247033  13.135  13.055   2.589
48401SOL     OW47034   4.157  11.736   6.258
48401SOL    HW147035   4.233  11.685   6.283
48401SOL    HW247036   4.105  11.743   6.339
48402SOL     OW47037   9.871  12.379   1.402
48402SOL    HW147038   9.836  12.329   1.476
48402SOL    HW247039   9.963  12.353   1.397
48403SOL     OW47040  10.210   4.092   9.495
48403SOL    HW147041  10.203   4.141   9.413
48403SOL    HW247042  10.232   4.003   9.469
48404SOL     OW47043   1.815   6.848  13.179
48404SOL    HW147044   1.751   6.796  13.228
48404SOL    HW247045   1.798   6.938  13.204
48405SOL     OW47046  11.288  14.267  11.351
48405SOL    HW147047  11.238  14.272  11.432
48405SOL    HW247048  11.380  14.263  11.380
48406SOL     OW47049   7.591   5.540   8.356
48406SOL    HW147050   7.572   5.501   8.442
48406SOL    HW247051   7.563   5.632   8.365
48407SOL     OW47052   1.438   6.773   7.112
48407SOL    HW147053   1.372   6.839   7.094
48407SOL    HW247054   1.456   6.733   7.027
48408SOL     OW47055   2.863   4.782  10.545
48408SOL    HW147056   2.795   4.838  10.580
48408SOL    HW247057   2.844   4.695  10.581
48409SOL     OW47058   4.878  10.302  13.406
48409SOL    HW147059   4.794  10.311  13.362
48409SOL    HW247060   4.935  10.262  13.340
48410SOL     OW47061   3.403   2.688   7.038
48410SOL    HW147062   3.320   2.735   7.037
48410SOL    HW247063   3.421   2.674   7.131
48411SOL     OW47064  10.897  13.048   3.765
48411SOL    HW147065  10.904  12.996   3.685
48411SOL    HW247066  10.816  13.099   3.753
48412SOL     OW47067  10.645  12.256   0.886
48412SOL    HW147068  10.575  12.321   0.893
48412SOL    HW247069  10.637  12.222   0.797
48413SOL     OW47070   1.275   5.168   2.958
48413SOL    HW147071   1.293   5.243   3.015
48413SOL    HW247072   1.259   5.095   3.018
48414SOL     OW47073   9.250   0.734   2.878
48414SOL    HW147074   9.285   0.685   2.804
48414SOL    HW247075   9.248   0.671   2.950
48415SOL     OW47076   2.139   5.846   8.019
48415SOL    HW147077   2.049   5.871   7.999
48415SOL    HW247078   2.135   5.754   8.043
48416SOL     OW47079   9.475   1.401   0.550
48416SOL    HW147080   9.458   1.379   0.459
48416SOL    HW247081   9.425   1.481   0.565
48417SOL     OW47082  10.229   5.636  14.628
48417SOL    HW147083  10.230   5.681  14.544
48417SOL    HW247084  10.256   5.546  14.608
48418SOL     OW47085   5.507  11.287  10.784
48418SOL    HW147086   5.536  11.197  10.802
48418SOL    HW247087   5.523  11.334  10.865
48419SOL     OW47088   1.501  13.384   1.347
48419SOL    HW147089   1.580  13.431   1.321
48419SOL    HW247090   1.429  13.441   1.319
48420SOL     OW47091   7.427   3.897   1.440
48420SOL    HW147092   7.378   3.870   1.518
48420SOL    HW247093   7.497   3.952   1.474
48421SOL     OW47094   2.383   4.202  14.644
48421SOL    HW147095   2.417   4.245  14.722
48421SOL    HW247096   2.436   4.237  14.572
48422SOL     OW47097  10.599   5.845  13.203
48422SOL    HW147098  10.667   5.791  13.163
48422SOL    HW247099  10.644   5.895  13.270
48423SOL     OW47100   1.728   8.210   0.649
48423SOL    HW147101   1.791   8.199   0.577
48423SOL    HW247102   1.652   8.158   0.622
48424SOL     OW47103  14.846   0.620   6.821
48424SOL    HW147104  14.815   0.556   6.757
48424SOL    HW247105  14.768   0.672   6.842
48425SOL     OW47106   2.995  12.316  10.825
48425SOL    HW147107   2.908  12.292  10.854
48425SOL    HW247108   2.983  12.349  10.736
48426SOL     OW47109  13.389   9.367   5.866
48426SOL    HW147110  13.433   9.388   5.783
48426SOL    HW247111  13.315   9.428   5.869
48427SOL     OW47112  12.367  12.062  12.437
48427SOL    HW147113  12.458  12.090  12.435
48427SOL    HW247114  12.348  12.034  12.347
48428SOL     OW47115   6.731   8.978   7.424
48428SOL    HW147116   6.637   8.967   7.433
48428SOL    HW247117   6.754   9.045   7.489
48429SOL     OW47118   9.125   2.462   8.238
48429SOL    HW147119   9.175   2.405   8.179
48429SOL    HW247120   9.189   2.488   8.304
48430SOL     OW47121   8.758   9.723   8.092
48430SOL    HW147122   8.839   9.681   8.063
48430SOL    HW247123   8.714   9.749   8.011
48431SOL     OW47124   5.376  13.963   6.583
48431SOL    HW147125   5.403  13.902   6.652
48431SOL    HW247126   5.314  13.913   6.530
48432SOL     OW47127  13.700   7.902   7.449
48432SOL    HW147128  13.791   7.909   7.479
48432SOL    HW247129  13.667   7.991   7.449
48433SOL     OW47130  14.854   9.522   5.755
48433SOL    HW147131  14.853   9.587   5.826
48433SOL    HW247132   0.013   9.571   5.679
48434SOL     OW47133   4.061  12.347   1.008
48434SOL    HW147134   4.051  12.252   1.014
48434SOL    HW247135   4.140  12.360   0.957
48435SOL     OW47136   3.309   6.445   9.604
48435SOL    HW147137   3.336   6.535   9.622
48435SOL    HW247138   3.299   6.404   9.690
48436SOL     OW47139   3.136   6.551   5.922
48436SOL    HW147140   3.172   6.571   5.836
48436SOL    HW247141   3.212   6.542   5.979
48437SOL     OW47142   0.628  11.254   8.349
48437SOL    HW147143   0.682  11.310   8.406
48437SOL    HW247144   0.661  11.165   8.364
48438SOL     OW47145   0.870   8.194   1.758
48438SOL    HW147146   0.816   8.262   1.799
48438SOL    HW247147   0.900   8.140   1.830
48439SOL     OW47148   4.085   7.114   3.143
48439SOL    HW147149   4.163   7.109   3.087
48439SOL    HW247150   4.067   7.207   3.150
48440SOL     OW47151   8.931  12.743  13.244
48440SOL    HW147152   8.950  12.705  13.158
48440SOL    HW247153   8.974  12.828  13.243
48441SOL     OW47154  13.836   8.215  12.865
48441SOL    HW147155  13.742   8.212  12.847
48441SOL    HW247156  13.862   8.124  12.875
48442SOL     OW47157  12.455   9.718   5.290
48442SOL    HW147158  12.434   9.774   5.365
48442SOL    HW247159  12.381   9.727   5.231
48443SOL     OW47160   6.052   9.039   5.016
48443SOL    HW147161   6.060   8.944   5.011
48443SOL    HW247162   5.991   9.054   5.088
48444SOL     OW47163  14.792  13.215   1.818
48444SOL    HW147164  14.730  13.209   1.745
48444SOL    HW247165  14.871  13.253   1.779
48445SOL     OW47166   9.107  12.059  12.089
48445SOL    HW147167   9.167  12.031  12.158
48445SOL    HW247168   9.105  12.154  12.097
48446SOL     OW47169  11.787  12.585   1.161
48446SOL    HW147170  11.747  12.672   1.167
48446SOL    HW247171  11.735  12.531   1.220
48447SOL     OW47172   3.398  13.762   2.797
48447SOL    HW147173   3.426  13.854   2.803
48447SOL    HW247174   3.391  13.745   2.703
48448SOL     OW47175   6.846   3.122   0.948
48448SOL    HW147176   6.861   3.128   1.043
48448SOL    HW247177   6.933   3.113   0.911
48449SOL     OW47178  12.375  10.211   9.059
48449SOL    HW147179  12.444  10.183   8.999
48449SOL    HW247180  12.326  10.277   9.010
48450SOL     OW47181   7.719   0.264  12.558
48450SOL    HW147182   7.749   0.209  12.630
48450SOL    HW247183   7.698   0.348  12.599
48451SOL     OW47184   2.103   9.686   8.372
48451SOL    HW147185   2.167   9.622   8.339
48451SOL    HW247186   2.040   9.696   8.301
48452SOL     OW47187   8.415   8.004   3.848
48452SOL    HW147188   8.473   7.965   3.783
48452SOL    HW247189   8.335   7.951   3.842
48453SOL     OW47190  11.057   6.010   2.178
48453SOL    HW147191  11.059   5.917   2.156
48453SOL    HW247192  10.967   6.026   2.206
48454SOL     OW47193   7.008  10.287  11.379
48454SOL    HW147194   7.099  10.300  11.351
48454SOL    HW247195   7.006  10.318  11.470
48455SOL     OW47196   9.061  14.358  11.002
48455SOL    HW147197   9.050  14.266  11.027
48455SOL    HW247198   8.983  14.402  11.036
48456SOL     OW47199   6.496   0.566  13.933
48456SOL    HW147200   6.413   0.566  13.979
48456SOL    HW247201   6.552   0.507  13.983
48457SOL     OW47202   2.703  10.187   2.364
48457SOL    HW147203   2.663  10.104   2.339
48457SOL    HW247204   2.663  10.208   2.449
48458SOL     OW47205   6.607   1.122  12.369
48458SOL    HW147206   6.677   1.125  12.435
48458SOL    HW247207   6.546   1.190  12.397
48459SOL     OW47208   5.957   4.670   0.140
48459SOL    HW147209   5.969   4.577   0.162
48459SOL    HW247210   6.035   4.693   0.090
48460SOL     OW47211  13.777   8.861  12.030
48460SOL    HW147212  13.748   8.841  12.119
48460SOL    HW247213  13.869   8.884  12.039
48461SOL     OW47214  11.823  10.614   1.656
48461SOL    HW147215  11.909  10.577   1.639
48461SOL    HW247216  11.826  10.641   1.747
48462SOL     OW47217   1.224   9.661  12.209
48462SOL    HW147218   1.150   9.722  12.204
48462SOL    HW247219   1.241   9.650  12.302
48463SOL     OW47220   1.065   0.572   4.619
48463SOL    HW147221   1.046   0.539   4.531
48463SOL    HW247222   1.126   0.508   4.657
48464SOL     OW47223   8.892  13.449  11.363
48464SOL    HW147224   8.817  13.469  11.309
48464SOL    HW247225   8.964  13.501  11.325
48465SOL     OW47226   2.215  10.004  10.935
48465SOL    HW147227   2.135  10.051  10.957
48465SOL    HW247228   2.231   9.946  11.010
48466SOL     OW47229  13.679  10.629   7.775
48466SOL    HW147230  13.643  10.678   7.701
48466SOL    HW247231  13.660  10.537   7.755
48467SOL     OW47232   8.076   1.123  13.154
48467SOL    HW147233   8.102   1.187  13.219
48467SOL    HW247234   8.092   1.038  13.196
48468SOL     OW47235  13.957   5.483  12.712
48468SOL    HW147236  14.014   5.556  12.688
48468SOL    HW247237  13.912   5.513  12.791
48469SOL     OW47238   8.928  14.409   3.850
48469SOL    HW147239   8.930  14.314   3.848
48469SOL    HW247240   8.880  14.430   3.930
48470SOL     OW47241   1.962   7.090  12.444
48470SOL    HW147242   2.011   7.118  12.367
48470SOL    HW247243   2.028   7.048  12.500
48471SOL     OW47244   5.548   4.577  12.812
48471SOL    HW147245   5.483   4.640  12.842
48471SOL    HW247246   5.617   4.581  12.879
48472SOL     OW47247   8.653  13.235   3.274
48472SOL    HW147248   8.557  13.232   3.275
48472SOL    HW247249   8.674  13.328   3.271
48473SOL     OW47250  10.944  14.648   5.041
48473SOL    HW147251  11.006  14.585   5.005
48473SOL    HW247252  10.887  14.595   5.098
48474SOL     OW47253  10.251   3.826   4.822
48474SOL    HW147254  10.171   3.826   4.873
48474SOL    HW247255  10.252   3.740   4.778
48475SOL     OW47256   1.065  12.614   5.060
48475SOL    HW147257   1.098  12.675   4.994
48475SOL    HW247258   1.059  12.666   5.140
48476SOL     OW47259   5.555   5.551   1.982
48476SOL    HW147260   5.569   5.564   1.888
48476SOL    HW247261   5.575   5.458   1.996
48477SOL     OW47262   8.516   7.859   3.619
48477SOL    HW147263   8.597   7.808   3.630
48477SOL    HW247264   8.464   7.809   3.556
48478SOL     OW47265   6.861   4.564  14.476
48478SOL    HW147266   6.857   4.634  14.540
48478SOL    HW247267   6.894   4.488  14.525
48479SOL     OW47268   6.524  14.496   2.738
48479SOL    HW147269   6.601  14.553   2.734
48479SOL    HW247270   6.499  14.495   2.831
48480SOL     OW47271   7.846   6.429  13.501
48480SOL    HW147272   7.913   6.375  13.460
48480SOL    HW247273   7.764   6.400  13.461
48481SOL     OW47274   3.387   0.493   2.020
48481SOL    HW147275   3.477   0.503   1.988
48481SOL    HW247276   3.353   0.583   2.024
48482SOL     OW47277   5.228  13.983  13.958
48482SOL    HW147278   5.323  13.990  13.943
48482SOL    HW247279   5.220  13.936  14.040
48483SOL     OW47280   6.828   5.598   5.317
48483SOL    HW147281   6.755   5.588   5.255
48483SOL    HW247282   6.800   5.550   5.395
48484SOL     OW47283  13.312   9.134   6.912
48484SOL    HW147284  13.295   9.049   6.871
48484SOL    HW247285  13.349   9.112   6.998
48485SOL     OW47286  14.108   1.626  12.811
48485SOL    HW147287  14.085   1.710  12.850
48485SOL    HW247288  14.197   1.638  12.779
48486SOL     OW47289   8.752  13.790   2.040
48486SOL    HW147290   8.688  13.725   2.070
48486SOL    HW247291   8.808  13.805   2.117
48487SOL     OW47292   0.032   1.981   5.628
48487SOL    HW147293   0.123   2.004   5.645
48487SOL    HW247294  14.860   1.994   5.711
48488SOL     OW47295   4.222  14.455   5.103
48488SOL    HW147296   4.131  14.469   5.074
48488SOL    HW247297   4.259  14.398   5.036
48489SOL     OW47298   1.391   2.474   7.720
48489SOL    HW147299   1.318   2.493   7.662
48489SOL    HW247300   1.397   2.549   7.779
48490SOL     OW47301   3.326   1.620  11.416
48490SOL    HW147302   3.295   1.690  11.359
48490SOL    HW247303   3.400   1.658  11.463
48491SOL     OW47304   1.194  12.525  10.989
48491SOL    HW147305   1.151  12.470  10.923
48491SOL    HW247306   1.227  12.600  10.940
48492SOL     OW47307  11.586  14.196  10.468
48492SOL    HW147308  11.604  14.103  10.454
48492SOL    HW247309  11.673  14.236  10.476
48493SOL     OW47310   5.473   5.368   2.845
48493SOL    HW147311   5.566   5.388   2.848
48493SOL    HW247312   5.436   5.412   2.921
48494SOL     OW47313   2.786   0.466   1.157
48494SOL    HW147314   2.756   0.524   1.087
48494SOL    HW247315   2.862   0.511   1.194
48495SOL     OW47316   8.801  10.386   2.034
48495SOL    HW147317   8.890  10.372   2.067
48495SOL    HW247318   8.744  10.357   2.105
48496SOL     OW47319   0.942   2.775   9.978
48496SOL    HW147320   0.907   2.787  10.067
48496SOL    HW247321   0.891   2.836   9.924
48497SOL     OW47322  14.661   3.059   6.191
48497SOL    HW147323  14.671   2.964   6.180
48497SOL    HW247324  14.638   3.090   6.103
48498SOL     OW47325  14.618  12.258  10.201
48498SOL    HW147326  14.585  12.189  10.144
48498SOL    HW247327  14.539  12.304  10.231
48499SOL     OW47328   5.616   1.856   7.837
48499SOL    HW147329   5.582   1.930   7.788
48499SOL    HW247330   5.565   1.856   7.918
48500SOL     OW47331   9.700   0.814  13.607
48500SOL    HW147332   9.666   0.731  13.639
48500SOL    HW247333   9.661   0.825  13.521
48501SOL     OW47334  11.804   4.452   0.324
48501SOL    HW147335  11.871   4.392   0.358
48501SOL    HW247336  11.729   4.439   0.382
48502SOL     OW47337   6.186   0.001  10.075
48502SOL    HW147338   6.279   0.026  10.078
48502SOL    HW247339   6.151   0.028  10.160
48503SOL     OW47340   3.650   1.558   4.006
48503SOL    HW147341   3.744   1.547   4.021
48503SOL    HW247342   3.632   1.649   4.027
48504SOL     OW47343   6.733   2.324   7.824
48504SOL    HW147344   6.811   2.303   7.773
48504SOL    HW247345   6.699   2.238   7.852
48505SOL     OW47346   6.380   5.575   5.721
48505SOL    HW147347   6.432   5.499   5.749
48505SOL    HW247348   6.326   5.541   5.649
48506SOL     OW47349   0.089  12.096   0.782
48506SOL    HW147350  14.866  12.096   0.775
48506SOL    HW247351   0.120  12.090   0.691
48507SOL     OW47352  13.009   5.621   8.244
48507SOL    HW147353  12.983   5.692   8.304
48507SOL    HW247354  13.102   5.609   8.262
48508SOL     OW47355   5.723   5.964   9.706
48508SOL    HW147356   5.666   6.018   9.651
48508SOL    HW247357   5.676   5.881   9.716
48509SOL     OW47358   2.524  12.201  11.852
48509SOL    HW147359   2.495  12.271  11.910
48509SOL    HW247360   2.594  12.240  11.800
48510SOL     OW47361   8.536   9.928   0.206
48510SOL    HW147362   8.477   9.982   0.259
48510SOL    HW247363   8.576   9.990   0.144
48511SOL     OW47364   2.365   3.184   1.762
48511SOL    HW147365   2.364   3.182   1.858
48511SOL    HW247366   2.362   3.277   1.740
48512SOL     OW47367   2.005   9.072  14.435
48512SOL    HW147368   1.971   9.006  14.374
48512SOL    HW247369   1.966   9.048  14.520
48513SOL     OW47370  12.625   0.949   2.087
48513SOL    HW147371  12.623   0.859   2.120
48513SOL    HW247372  12.613   1.003   2.165
48514SOL     OW47373   1.693  12.423   2.262
48514SOL    HW147374   1.781  12.385   2.268
48514SOL    HW247375   1.685  12.451   2.171
48515SOL     OW47376   7.832   3.585   9.050
48515SOL    HW147377   7.816   3.496   9.083
48515SOL    HW247378   7.828   3.577   8.955
48516SOL     OW47379   5.155   8.095   1.891
48516SOL    HW147380   5.167   8.041   1.814
48516SOL    HW247381   5.225   8.161   1.886
48517SOL     OW47382  12.485  13.607   1.803
48517SOL    HW147383  12.515  13.686   1.848
48517SOL    HW247384  12.390  13.616   1.799
48518SOL     OW47385   2.728   0.156   4.775
48518SOL    HW147386   2.797   0.139   4.839
48518SOL    HW247387   2.693   0.069   4.754
48519SOL     OW47388  14.428   1.530   9.442
48519SOL    HW147389  14.391   1.615   9.420
48519SOL    HW247390  14.374   1.468   9.393
48520SOL     OW47391   4.587   6.886   4.293
48520SOL    HW147392   4.555   6.821   4.230
48520SOL    HW247393   4.616   6.959   4.240
48521SOL     OW47394   9.023   2.914   3.811
48521SOL    HW147395   9.081   2.886   3.881
48521SOL    HW247396   8.941   2.866   3.827
48522SOL     OW47397  12.209   8.165   2.269
48522SOL    HW147398  12.145   8.212   2.216
48522SOL    HW247399  12.226   8.222   2.344
48523SOL     OW47400   7.506   8.193  13.344
48523SOL    HW147401   7.595   8.193  13.310
48523SOL    HW247402   7.512   8.238  13.428
48524SOL     OW47403   7.169  12.460   7.756
48524SOL    HW147404   7.260  12.462   7.786
48524SOL    HW247405   7.145  12.553   7.749
48525SOL     OW47406   8.352   9.698   2.939
48525SOL    HW147407   8.306   9.615   2.928
48525SOL    HW247408   8.442   9.678   2.915
48526SOL     OW47409   6.976  10.214   6.493
48526SOL    HW147410   7.010  10.292   6.451
48526SOL    HW247411   7.045  10.149   6.482
48527SOL     OW47412   5.219   1.322   6.436
48527SOL    HW147413   5.253   1.234   6.419
48527SOL    HW247414   5.275   1.355   6.507
48528SOL     OW47415   5.224   5.406   1.429
48528SOL    HW147416   5.296   5.457   1.395
48528SOL    HW247417   5.146   5.456   1.407
48529SOL     OW47418  13.792  14.532   3.969
48529SOL    HW147419  13.778  14.606   3.910
48529SOL    HW247420  13.704  14.498   3.987
48530SOL     OW47421   9.034  11.967  13.160
48530SOL    HW147422   8.965  12.030  13.143
48530SOL    HW247423   9.000  11.884  13.125
48531SOL     OW47424  13.044   7.947  12.578
48531SOL    HW147425  13.096   8.004  12.521
48531SOL    HW247426  12.971   7.920  12.523
48532SOL     OW47427  11.868   7.670  10.868
48532SOL    HW147428  11.887   7.578  10.881
48532SOL    HW247429  11.772   7.674  10.864
48533SOL     OW47430   9.557  12.016   3.465
48533SOL    HW147431   9.479  12.044   3.512
48533SOL    HW247432   9.531  12.015   3.373
48534SOL     OW47433  13.612   7.744  14.544
48534SOL    HW147434  13.611   7.806  14.471
48534SOL    HW247435  13.675   7.780  14.606
48535SOL     OW47436   6.338   2.805   1.046
48535SOL    HW147437   6.398   2.823   1.118
48535SOL    HW247438   6.258   2.853   1.067
48536SOL     OW47439  12.836  14.519   3.616
48536SOL    HW147440  12.797  14.574   3.548
48536SOL    HW247441  12.899  14.464   3.569
48537SOL     OW47442   4.461   0.074   1.922
48537SOL    HW147443   4.421  14.861   1.904
48537SOL    HW247444   4.493   0.104   1.837
48538SOL     OW47445   2.800   4.726  13.349
48538SOL    HW147446   2.742   4.754  13.278
48538SOL    HW247447   2.865   4.796  13.356
48539SOL     OW47448   6.362   5.965  11.848
48539SOL    HW147449   6.430   5.963  11.780
48539SOL    HW247450   6.345   5.873  11.868
48540SOL     OW47451  13.187   2.682   2.999
48540SOL    HW147452  13.133   2.714   3.071
48540SOL    HW247453  13.242   2.756   2.974
48541SOL     OW47454   6.701   1.731  14.329
48541SOL    HW147455   6.727   1.764  14.415
48541SOL    HW247456   6.768   1.665  14.308
48542SOL     OW47457   6.715  10.727   7.020
48542SOL    HW147458   6.637  10.751   7.069
48542SOL    HW247459   6.775  10.692   7.086
48543SOL     OW47460  12.419  13.323   1.432
48543SOL    HW147461  12.328  13.305   1.456
48543SOL    HW247462  12.447  13.247   1.382
48544SOL     OW47463   8.760  10.740   6.476
48544SOL    HW147464   8.693  10.674   6.459
48544SOL    HW247465   8.802  10.754   6.391
48545SOL     OW47466  11.715   8.436  14.648
48545SOL    HW147467  11.744   8.441  14.739
48545SOL    HW247468  11.648   8.504  14.640
48546SOL     OW47469   9.221   9.009   9.451
48546SOL    HW147470   9.193   9.005   9.359
48546SOL    HW247471   9.277   8.933   9.462
48547SOL     OW47472  10.394  14.432   1.759
48547SOL    HW147473  10.416  14.475   1.842
48547SOL    HW247474  10.474  14.386   1.734
48548SOL     OW47475   8.127   4.617   3.985
48548SOL    HW147476   8.182   4.540   3.972
48548SOL    HW247477   8.059   4.610   3.917
48549SOL     OW47478  12.669   8.403   2.978
48549SOL    HW147479  12.732   8.448   2.923
48549SOL    HW247480  12.698   8.422   3.068
48550SOL     OW47481  11.758  11.256   0.673
48550SOL    HW147482  11.747  11.334   0.727
48550SOL    HW247483  11.823  11.281   0.607
48551SOL     OW47484  14.523  12.177   3.793
48551SOL    HW147485  14.467  12.203   3.720
48551SOL    HW247486  14.500  12.237   3.864
48552SOL     OW47487   8.684   2.746  13.562
48552SOL    HW147488   8.643   2.791  13.488
48552SOL    HW247489   8.732   2.814  13.609
48553SOL     OW47490  14.280  10.793   1.403
48553SOL    HW147491  14.217  10.834   1.343
48553SOL    HW247492  14.246  10.814   1.490
48554SOL     OW47493   7.970   2.744  13.987
48554SOL    HW147494   7.924   2.735  14.070
48554SOL    HW247495   8.019   2.663  13.977
48555SOL     OW47496  13.009  12.452   5.476
48555SOL    HW147497  12.946  12.380   5.474
48555SOL    HW247498  13.083  12.418   5.527
48556SOL     OW47499   9.832   6.223   8.288
48556SOL    HW147500   9.867   6.306   8.256
48556SOL    HW247501   9.905   6.182   8.332
48557SOL     OW47502  13.692   4.037   2.450
48557SOL    HW147503  13.712   4.024   2.543
48557SOL    HW247504  13.632   4.112   2.449
48558SOL     OW47505   8.871   8.524   5.311
48558SOL    HW147506   8.866   8.598   5.251
48558SOL    HW247507   8.962   8.495   5.306
48559SOL     OW47508   6.736  13.312   1.299
48559SOL    HW147509   6.659  13.345   1.253
48559SOL    HW247510   6.700  13.267   1.376
48560SOL     OW47511  10.498  12.933   8.820
48560SOL    HW147512  10.588  12.956   8.801
48560SOL    HW247513  10.449  13.014   8.809
48561SOL     OW47514  10.655   7.520   0.691
48561SOL    HW147515  10.685   7.515   0.601
48561SOL    HW247516  10.706   7.590   0.731
48562SOL     OW47517   2.837  14.369  11.092
48562SOL    HW147518   2.864  14.336  11.178
48562SOL    HW247519   2.912  14.420  11.061
48563SOL     OW47520   6.874   0.985   0.497
48563SOL    HW147521   6.780   0.989   0.475
48563SOL    HW247522   6.914   0.944   0.421
48564SOL     OW47523   6.278   3.782   1.509
48564SOL    HW147524   6.221   3.803   1.582
48564SOL    HW247525   6.302   3.690   1.523
48565SOL     OW47526   5.607   2.340   1.637
48565SOL    HW147527   5.595   2.422   1.588
48565SOL    HW247528   5.665   2.288   1.581
48566SOL     OW47529   9.729   7.543  11.475
48566SOL    HW147530   9.775   7.611  11.523
48566SOL    HW247531   9.734   7.571  11.383
48567SOL     OW47532   8.052   2.179   7.969
48567SOL    HW147533   8.011   2.264   7.981
48567SOL    HW247534   7.984   2.116   7.990
48568SOL     OW47535   2.229   2.496   0.678
48568SOL    HW147536   2.222   2.580   0.633
48568SOL    HW247537   2.156   2.496   0.740
48569SOL     OW47538   8.509  12.946   4.874
48569SOL    HW147539   8.601  12.968   4.891
48569SOL    HW247540   8.489  12.990   4.792
48570SOL     OW47541  10.441   6.936  13.250
48570SOL    HW147542  10.389   6.969  13.177
48570SOL    HW247543  10.380   6.935  13.324
48571SOL     OW47544   3.064   7.932   1.871
48571SOL    HW147545   3.085   7.874   1.797
48571SOL    HW247546   3.148   7.947   1.915
48572SOL     OW47547  13.013  11.842  12.620
48572SOL    HW147548  12.944  11.907  12.609
48572SOL    HW247549  13.090  11.881  12.579
48573SOL     OW47550   9.164   6.046  14.740
48573SOL    HW147551   9.224   6.036  14.667
48573SOL    HW247552   9.086   6.086  14.702
48574SOL     OW47553  14.388  12.339   5.467
48574SOL    HW147554  14.303  12.300   5.445
48574SOL    HW247555  14.420  12.373   5.384
48575SOL     OW47556   8.314   4.546  12.317
48575SOL    HW147557   8.264   4.483  12.369
48575SOL    HW247558   8.272   4.545  12.231
48576SOL     OW47559   7.854   4.349  10.883
48576SOL    HW147560   7.894   4.329  10.968
48576SOL    HW247561   7.776   4.399  10.904
48577SOL     OW47562   1.129  14.094  12.087
48577SOL    HW147563   1.099  14.176  12.125
48577SOL    HW247564   1.172  14.119  12.005
48578SOL     OW47565   1.037   5.134  14.044
48578SOL    HW147566   1.020   5.052  13.999
48578SOL    HW247567   0.956   5.153  14.092
48579SOL     OW47568  10.485   8.306   0.927
48579SOL    HW147569  10.474   8.213   0.945
48579SOL    HW247570  10.448   8.350   1.003
48580SOL     OW47571   1.316   9.416   0.832
48580SOL    HW147572   1.223   9.394   0.833
48580SOL    HW247573   1.353   9.368   0.907
48581SOL     OW47574  12.046   5.785   2.014
48581SOL    HW147575  11.997   5.728   2.074
48581SOL    HW247576  11.978   5.833   1.967
48582SOL     OW47577  13.806   0.751   9.634
48582SOL    HW147578  13.823   0.670   9.681
48582SOL    HW247579  13.807   0.818   9.703
48583SOL     OW47580   1.319  12.585   9.937
48583SOL    HW147581   1.241  12.553   9.984
48583SOL    HW247582   1.301  12.565   9.845
48584SOL     OW47583   2.039   1.717   3.462
48584SOL    HW147584   2.005   1.803   3.438
48584SOL    HW247585   1.966   1.674   3.507
48585SOL     OW47586   6.120   8.919  14.118
48585SOL    HW147587   6.037   8.963  14.134
48585SOL    HW247588   6.102   8.826  14.136
48586SOL     OW47589   0.142  11.140   7.738
48586SOL    HW147590   0.086  11.066   7.758
48586SOL    HW247591   0.087  11.217   7.757
48587SOL     OW47592   7.645   4.225   3.161
48587SOL    HW147593   7.675   4.301   3.210
48587SOL    HW247594   7.693   4.228   3.078
48588SOL     OW47595   0.310   8.050  14.684
48588SOL    HW147596   0.405   8.036  14.683
48588SOL    HW247597   0.274   7.966  14.713
48589SOL     OW47598  10.941  12.083  10.484
48589SOL    HW147599  11.012  12.043  10.433
48589SOL    HW247600  10.885  12.124  10.418
48590SOL     OW47601  12.981   2.898  14.022
48590SOL    HW147602  13.062   2.908  13.971
48590SOL    HW247603  13.010   2.870  14.109
48591SOL     OW47604  10.442   0.018   5.999
48591SOL    HW147605  10.473   0.043   6.086
48591SOL    HW247606  10.515   0.041   5.940
48592SOL     OW47607  10.259  14.172   5.869
48592SOL    HW147608  10.296  14.189   5.956
48592SOL    HW247609  10.332  14.184   5.809
48593SOL     OW47610   0.603  12.394  12.114
48593SOL    HW147611   0.632  12.485  12.120
48593SOL    HW247612   0.508  12.400  12.109
48594SOL     OW47613  10.714   6.934   5.619
48594SOL    HW147614  10.628   6.915   5.654
48594SOL    HW247615  10.713   6.900   5.530
48595SOL     OW47616   5.911   7.940   1.892
48595SOL    HW147617   5.902   7.873   1.960
48595SOL    HW247618   5.828   7.989   1.895
48596SOL     OW47619  12.837   5.669  12.712
48596SOL    HW147620  12.881   5.686  12.796
48596SOL    HW247621  12.905   5.683  12.646
48597SOL     OW47622   8.656   9.213  11.057
48597SOL    HW147623   8.596   9.270  11.009
48597SOL    HW247624   8.678   9.144  10.994
48598SOL     OW47625   0.428  11.428   1.060
48598SOL    HW147626   0.408  11.520   1.039
48598SOL    HW247627   0.431  11.426   1.156
48599SOL     OW47628  12.294   7.063  14.285
48599SOL    HW147629  12.224   7.119  14.318
48599SOL    HW247630  12.250   6.980  14.263
48600SOL     OW47631   8.035   1.333  14.461
48600SOL    HW147632   7.955   1.304  14.417
48600SOL    HW247633   8.072   1.400  14.404
48601SOL     OW47634   4.125  13.026   9.056
48601SOL    HW147635   4.090  13.099   9.108
48601SOL    HW247636   4.191  13.066   9.000
48602SOL     OW47637   3.311   8.187   3.420
48602SOL    HW147638   3.346   8.273   3.446
48602SOL    HW247639   3.313   8.189   3.325
48603SOL     OW47640  14.278  13.603   9.930
48603SOL    HW147641  14.295  13.517   9.892
48603SOL    HW247642  14.336  13.608  10.005
48604SOL     OW47643   0.691  13.289   6.449
48604SOL    HW147644   0.722  13.321   6.364
48604SOL    HW247645   0.598  13.309   6.450
48605SOL     OW47646  14.686   4.407  12.543
48605SOL    HW147647  14.765   4.393  12.491
48605SOL    HW247648  14.615   4.413  12.479
48606SOL     OW47649   5.191   6.261  11.123
48606SOL    HW147650   5.269   6.212  11.148
48606SOL    HW247651   5.147   6.281  11.205
48607SOL     OW47652   7.141   1.982   0.663
48607SOL    HW147653   7.216   1.991   0.604
48607SOL    HW247654   7.161   1.906   0.717
48608SOL     OW47655   6.633   8.056   7.097
48608SOL    HW147656   6.636   8.150   7.114
48608SOL    HW247657   6.693   8.019   7.162
48609SOL     OW47658   7.905   2.159  13.522
48609SOL    HW147659   7.836   2.094  13.540
48609SOL    HW247660   7.859   2.243  13.519
48610SOL     OW47661  11.076  12.716   9.310
48610SOL    HW147662  11.012  12.767   9.261
48610SOL    HW247663  11.133  12.677   9.244
48611SOL     OW47664  11.677  14.025   7.316
48611SOL    HW147665  11.584  14.041   7.330
48611SOL    HW247666  11.686  14.020   7.221
48612SOL     OW47667  12.781  11.805   5.456
48612SOL    HW147668  12.874  11.784   5.451
48612SOL    HW247669  12.739  11.741   5.400
48613SOL     OW47670   6.351   9.771   3.007
48613SOL    HW147671   6.271   9.806   2.970
48613SOL    HW247672   6.342   9.676   2.998
48614SOL     OW47673   1.279  12.330   8.222
48614SOL    HW147674   1.186  12.340   8.246
48614SOL    HW247675   1.289  12.383   8.143
48615SOL     OW47676   8.413  10.081   2.826
48615SOL    HW147677   8.338  10.052   2.879
48615SOL    HW247678   8.399  10.176   2.815
48616SOL     OW47679   7.306  13.013   1.081
48616SOL    HW147680   7.250  12.999   1.005
48616SOL    HW247681   7.333  12.925   1.108
48617SOL     OW47682  14.823  10.201  14.098
48617SOL    HW147683  14.835  10.124  14.153
48617SOL    HW247684   0.039  10.230  14.076
48618SOL     OW47685  12.226  10.641   7.458
48618SOL    HW147686  12.308  10.688   7.441
48618SOL    HW247687  12.200  10.606   7.374
48619SOL     OW47688  11.623   7.081   9.807
48619SOL    HW147689  11.664   7.044   9.728
48619SOL    HW247690  11.544   7.125   9.775
48620SOL     OW47691  14.600  10.462   9.786
48620SOL    HW147692  14.688  10.470   9.748
48620SOL    HW247693  14.591  10.369   9.805
48621SOL     OW47694   9.798   4.809   2.004
48621SOL    HW147695   9.867   4.855   2.053
48621SOL    HW247696   9.827   4.811   1.913
48622SOL     OW47697  11.508   6.922   2.854
48622SOL    HW147698  11.603   6.929   2.842
48622SOL    HW247699  11.491   6.963   2.939
48623SOL     OW47700  14.539   3.618   1.090
48623SOL    HW147701  14.606   3.562   1.129
48623SOL    HW247702  14.456   3.581   1.120
48624SOL     OW47703  11.022  10.950   7.980
48624SOL    HW147704  11.029  10.911   8.067
48624SOL    HW247705  11.016  10.875   7.920
48625SOL     OW47706  10.982   5.092   0.933
48625SOL    HW147707  11.011   5.014   0.980
48625SOL    HW247708  11.032   5.092   0.852
48626SOL     OW47709  11.362   8.588   4.873
48626SOL    HW147710  11.442   8.539   4.893
48626SOL    HW247711  11.342   8.567   4.782
48627SOL     OW47712   4.663   3.035   9.869
48627SOL    HW147713   4.618   3.096   9.927
48627SOL    HW247714   4.624   2.950   9.887
48628SOL     OW47715   0.412   2.997  12.987
48628SOL    HW147716   0.403   3.072  12.929
48628SOL    HW247717   0.365   2.926  12.943
48629SOL     OW47718   0.554   4.966  11.366
48629SOL    HW147719   0.484   4.901  11.372
48629SOL    HW247720   0.534   5.015  11.286
48630SOL     OW47721   0.688   0.784   2.413
48630SOL    HW147722   0.612   0.731   2.437
48630SOL    HW247723   0.752   0.764   2.482
48631SOL     OW47724  11.683   1.911  11.084
48631SOL    HW147725  11.621   1.857  11.035
48631SOL    HW247726  11.734   1.849  11.136
48632SOL     OW47727   0.945   9.673   2.711
48632SOL    HW147728   0.951   9.663   2.616
48632SOL    HW247729   0.916   9.587   2.743
48633SOL     OW47730   6.550   6.100  10.301
48633SOL    HW147731   6.598   6.159  10.243
48633SOL    HW247732   6.458   6.126  10.292
48634SOL     OW47733   7.131   8.357   0.831
48634SOL    HW147734   7.165   8.271   0.808
48634SOL    HW247735   7.204   8.417   0.817
48635SOL     OW47736  14.640   8.118   2.939
48635SOL    HW147737  14.659   8.050   3.003
48635SOL    HW247738  14.650   8.074   2.854
48636SOL     OW47739   7.953   7.332   8.632
48636SOL    HW147740   7.896   7.293   8.565
48636SOL    HW247741   7.919   7.420   8.644
48637SOL     OW47742   1.929  13.492   6.633
48637SOL    HW147743   1.898  13.579   6.609
48637SOL    HW247744   1.875  13.467   6.708
48638SOL     OW47745   3.654   6.947   3.356
48638SOL    HW147746   3.712   6.965   3.283
48638SOL    HW247747   3.704   6.889   3.413
48639SOL     OW47748  13.033  10.472  12.495
48639SOL    HW147749  12.946  10.465  12.535
48639SOL    HW247750  13.077  10.391  12.519
48640SOL     OW47751   4.263  12.446  11.328
48640SOL    HW147752   4.327  12.469  11.395
48640SOL    HW247753   4.200  12.389  11.372
48641SOL     OW47754  13.456   6.103   7.820
48641SOL    HW147755  13.399   6.040   7.776
48641SOL    HW247756  13.545   6.073   7.800
48642SOL     OW47757   7.327   2.226  11.869
48642SOL    HW147758   7.385   2.166  11.821
48642SOL    HW247759   7.270   2.264  11.802
48643SOL     OW47760  14.160   4.917   2.235
48643SOL    HW147761  14.154   4.914   2.331
48643SOL    HW247762  14.237   4.864   2.214
48644SOL     OW47763   0.645   8.097   8.981
48644SOL    HW147764   0.574   8.160   8.963
48644SOL    HW247765   0.661   8.107   9.075
48645SOL     OW47766  14.833   5.514   7.441
48645SOL    HW147767  14.818   5.420   7.442
48645SOL    HW247768  14.747   5.552   7.454
48646SOL     OW47769   5.533   7.453  12.461
48646SOL    HW147770   5.489   7.397  12.524
48646SOL    HW247771   5.511   7.542  12.487
48647SOL     OW47772   5.724   2.727   4.093
48647SOL    HW147773   5.787   2.720   4.164
48647SOL    HW247774   5.737   2.815   4.058
48648SOL     OW47775  12.672  11.330   5.717
48648SOL    HW147776  12.646  11.346   5.807
48648SOL    HW247777  12.631  11.400   5.667
48649SOL     OW47778   0.378   5.805   7.442
48649SOL    HW147779   0.290   5.801   7.480
48649SOL    HW247780   0.388   5.722   7.396
48650SOL     OW47781  13.564   6.932  12.811
48650SOL    HW147782  13.544   6.878  12.887
48650SOL    HW247783  13.602   7.012  12.848
48651SOL     OW47784   9.498   4.778  13.929
48651SOL    HW147785   9.420   4.727  13.952
48651SOL    HW247786   9.549   4.782  14.010
48652SOL     OW47787   2.800   6.357   4.157
48652SOL    HW147788   2.747   6.281   4.180
48652SOL    HW247789   2.806   6.408   4.238
48653SOL     OW47790   4.084   2.809   9.613
48653SOL    HW147791   4.163   2.835   9.566
48653SOL    HW247792   4.097   2.717   9.635
48654SOL     OW47793   7.300   4.390   4.043
48654SOL    HW147794   7.359   4.465   4.044
48654SOL    HW247795   7.284   4.371   4.136
48655SOL     OW47796  13.383   6.475   7.076
48655SOL    HW147797  13.448   6.531   7.118
48655SOL    HW247798  13.330   6.535   7.023
48656SOL     OW47799   0.775   7.430  14.034
48656SOL    HW147800   0.807   7.488  14.103
48656SOL    HW247801   0.685   7.459  14.019
48657SOL     OW47802   0.454   6.737  12.818
48657SOL    HW147803   0.443   6.805  12.884
48657SOL    HW247804   0.546   6.711  12.826
48658SOL     OW47805   5.049  13.949   3.924
48658SOL    HW147806   5.020  13.978   3.837
48658SOL    HW247807   5.144  13.952   3.920
48659SOL     OW47808  10.893   7.352   2.019
48659SOL    HW147809  10.971   7.408   2.023
48659SOL    HW247810  10.911   7.281   2.080
48660SOL     OW47811   1.081  11.903   5.434
48660SOL    HW147812   1.171  11.928   5.454
48660SOL    HW247813   1.066  11.932   5.344
48661SOL     OW47814   5.483  12.705   7.771
48661SOL    HW147815   5.527  12.765   7.710
48661SOL    HW247816   5.525  12.620   7.756
48662SOL     OW47817   7.262   8.730   8.423
48662SOL    HW147818   7.276   8.696   8.334
48662SOL    HW247819   7.269   8.825   8.413
48663SOL     OW47820   8.376  10.154   0.276
48663SOL    HW147821   8.351  10.244   0.298
48663SOL    HW247822   8.296  10.115   0.241
48664SOL     OW47823   7.111   5.822   3.480
48664SOL    HW147824   7.069   5.816   3.394
48664SOL    HW247825   7.041   5.806   3.543
48665SOL     OW47826   7.007   5.859   8.261
48665SOL    HW147827   7.097   5.885   8.280
48665SOL    HW247828   6.955   5.938   8.279
48666SOL     OW47829  14.601   8.996   5.201
48666SOL    HW147830  14.658   9.036   5.135
48666SOL    HW247831  14.624   9.040   5.283
48667SOL     OW47832   1.336   5.379   6.028
48667SOL    HW147833   1.366   5.458   5.984
48667SOL    HW247834   1.416   5.336   6.059
48668SOL     OW47835  11.823   0.146   4.776
48668SOL    HW147836  11.736   0.162   4.739
48668SOL    HW247837  11.855   0.069   4.729
48669SOL     OW47838   0.726   8.914   4.381
48669SOL    HW147839   0.670   8.837   4.390
48669SOL    HW247840   0.781   8.913   4.459
48670SOL     OW47841   0.299   1.035   4.455
48670SOL    HW147842   0.230   1.058   4.517
48670SOL    HW247843   0.283   1.092   4.379
48671SOL     OW47844   8.108  13.749   8.952
48671SOL    HW147845   8.026  13.751   8.904
48671SOL    HW247846   8.147  13.664   8.932
48672SOL     OW47847   6.851  10.343  10.490
48672SOL    HW147848   6.873  10.385  10.407
48672SOL    HW247849   6.789  10.273  10.466
48673SOL     OW47850   7.558  10.110  14.605
48673SOL    HW147851   7.520  10.132  14.690
48673SOL    HW247852   7.645  10.151  14.606
48674SOL     OW47853   0.410   1.841  13.327
48674SOL    HW147854   0.438   1.932  13.324
48674SOL    HW247855   0.472   1.795  13.269
48675SOL     OW47856   2.328  13.800   2.179
48675SOL    HW147857   2.234  13.817   2.173
48675SOL    HW247858   2.358  13.797   2.088
48676SOL     OW47859   0.809  14.595   2.166
48676SOL    HW147860   0.882  14.612   2.106
48676SOL    HW247861   0.788  14.503   2.153
48677SOL     OW47862  11.634   2.478   1.488
48677SOL    HW147863  11.640   2.419   1.412
48677SOL    HW247864  11.668   2.426   1.561
48678SOL     OW47865  11.114  14.243  14.777
48678SOL    HW147866  11.053  14.231  14.850
48678SOL    HW247867  11.071  14.199  14.703
48679SOL     OW47868   9.873   0.063  10.423
48679SOL    HW147869   9.895   0.013  10.501
48679SOL    HW247870   9.920   0.019  10.352
48680SOL     OW47871   3.846   7.090  11.769
48680SOL    HW147872   3.861   7.123  11.680
48680SOL    HW247873   3.867   6.996  11.763
48681SOL     OW47874   5.866  13.998  12.443
48681SOL    HW147875   5.917  14.059  12.389
48681SOL    HW247876   5.827  14.052  12.511
48682SOL     OW47877   0.212   5.756   7.024
48682SOL    HW147878   0.132   5.777   6.975
48682SOL    HW247879   0.181   5.705   7.099
48683SOL     OW47880   2.479   4.832   5.440
48683SOL    HW147881   2.568   4.839   5.474
48683SOL    HW247882   2.490   4.838   5.345
48684SOL     OW47883  11.866  12.812   1.999
48684SOL    HW147884  11.896  12.731   1.957
48684SOL    HW247885  11.910  12.812   2.084
48685SOL     OW47886   2.552   9.951   2.327
48685SOL    HW147887   2.509   9.898   2.395
48685SOL    HW247888   2.482  10.007   2.294
48686SOL     OW47889  11.741   6.666   5.328
48686SOL    HW147890  11.749   6.713   5.246
48686SOL    HW247891  11.648   6.644   5.335
48687SOL     OW47892   3.879  13.237  12.907
48687SOL    HW147893   3.850  13.243  12.815
48687SOL    HW247894   3.971  13.263  12.905
48688SOL     OW47895   6.551   9.073   4.057
48688SOL    HW147896   6.513   9.004   4.002
48688SOL    HW247897   6.644   9.072   4.034
48689SOL     OW47898   5.902   8.962   7.989
48689SOL    HW147899   5.814   8.924   7.983
48689SOL    HW247900   5.957   8.903   7.937
48690SOL     OW47901   7.502   1.285  10.537
48690SOL    HW147902   7.528   1.269  10.447
48690SOL    HW247903   7.555   1.359  10.565
48691SOL     OW47904   2.014   6.334   2.572
48691SOL    HW147905   2.077   6.355   2.504
48691SOL    HW247906   2.068   6.316   2.649
48692SOL     OW47907   1.191   9.094  12.928
48692SOL    HW147908   1.204   9.093  13.023
48692SOL    HW247909   1.272   9.057  12.892
48693SOL     OW47910  10.417  11.103   8.902
48693SOL    HW147911  10.345  11.070   8.956
48693SOL    HW247912  10.451  11.177   8.952
48694SOL     OW47913   8.422  12.034  11.227
48694SOL    HW147914   8.502  11.985  11.244
48694SOL    HW247915   8.425  12.108  11.288
48695SOL     OW47916  11.834   0.151   4.411
48695SOL    HW147917  11.759   0.093   4.422
48695SOL    HW247918  11.809   0.232   4.455
48696SOL     OW47919   6.145   9.866   0.969
48696SOL    HW147920   6.238   9.873   0.945
48696SOL    HW247921   6.099   9.911   0.898
48697SOL     OW47922  11.190  14.189   1.300
48697SOL    HW147923  11.145  14.132   1.238
48697SOL    HW247924  11.124  14.211   1.365
48698SOL     OW47925   6.377  10.330   6.594
48698SOL    HW147926   6.324  10.272   6.539
48698SOL    HW247927   6.352  10.307   6.684
48699SOL     OW47928  11.259  10.679   2.804
48699SOL    HW147929  11.270  10.768   2.838
48699SOL    HW247930  11.231  10.627   2.880
48700SOL     OW47931   9.318   3.863   8.320
48700SOL    HW147932   9.239   3.816   8.348
48700SOL    HW247933   9.333   3.833   8.231
48701SOL     OW47934   4.407   4.701  12.691
48701SOL    HW147935   4.468   4.696  12.618
48701SOL    HW247936   4.430   4.782  12.736
48702SOL     OW47937   1.657   1.913   2.138
48702SOL    HW147938   1.650   1.827   2.097
48702SOL    HW247939   1.583   1.918   2.198
48703SOL     OW47940  11.261   6.272   3.307
48703SOL    HW147941  11.326   6.236   3.367
48703SOL    HW247942  11.183   6.287   3.362
48704SOL     OW47943  11.290   6.850  10.298
48704SOL    HW147944  11.202   6.887  10.291
48704SOL    HW247945  11.277   6.755  10.302
48705SOL     OW47946   8.156   4.465   8.963
48705SOL    HW147947   8.113   4.429   8.885
48705SOL    HW247948   8.110   4.547   8.980
48706SOL     OW47949  11.805   2.161   3.349
48706SOL    HW147950  11.899   2.174   3.362
48706SOL    HW247951  11.800   2.110   3.268
48707SOL     OW47952  14.848   9.992   7.185
48707SOL    HW147953   0.046  10.014   7.124
48707SOL    HW247954  14.789  10.068   7.182
48708SOL     OW47955   6.557   9.820   2.640
48708SOL    HW147956   6.558   9.737   2.688
48708SOL    HW247957   6.480   9.866   2.673
48709SOL     OW47958   9.514   3.091   0.656
48709SOL    HW147959   9.604   3.113   0.677
48709SOL    HW247960   9.518   3.000   0.626
48710SOL     OW47961  14.510   5.324  10.074
48710SOL    HW147962  14.536   5.345  10.164
48710SOL    HW247963  14.504   5.409  10.031
48711SOL     OW47964   2.976  13.400   3.225
48711SOL    HW147965   3.068  13.427   3.232
48711SOL    HW247966   2.943  13.449   3.151
48712SOL     OW47967   7.433   8.345   5.080
48712SOL    HW147968   7.396   8.329   5.167
48712SOL    HW247969   7.518   8.384   5.097
48713SOL     OW47970   5.929   0.906   6.758
48713SOL    HW147971   5.838   0.937   6.755
48713SOL    HW247972   5.947   0.895   6.851
48714SOL     OW47973   5.712   7.547  13.221
48714SOL    HW147974   5.691   7.635  13.191
48714SOL    HW247975   5.688   7.546  13.314
48715SOL     OW47976   3.740  12.465   4.644
48715SOL    HW147977   3.703  12.377   4.630
48715SOL    HW247978   3.834  12.451   4.642
48716SOL     OW47979   0.848   9.178   3.372
48716SOL    HW147980   0.881   9.236   3.302
48716SOL    HW247981   0.783   9.231   3.418
48717SOL     OW47982  13.820   8.253   0.340
48717SOL    HW147983  13.775   8.312   0.279
48717SOL    HW247984  13.757   8.183   0.357
48718SOL     OW47985   1.280  10.108  10.490
48718SOL    HW147986   1.279  10.012  10.482
48718SOL    HW247987   1.188  10.132  10.502
48719SOL     OW47988  14.662   1.146   1.230
48719SOL    HW147989  14.757   1.141   1.229
48719SOL    HW247990  14.634   1.069   1.280
48720SOL     OW47991   7.350  12.941   0.078
48720SOL    HW147992   7.365  12.947  14.856
48720SOL    HW247993   7.329  12.849   0.094
48721SOL     OW47994   8.547   3.112   3.369
48721SOL    HW147995   8.536   3.192   3.420
48721SOL    HW247996   8.633   3.080   3.393
48722SOL     OW47997   3.833  13.687  13.574
48722SOL    HW147998   3.746  13.722  13.551
48722SOL    HW247999   3.890  13.764  13.577
48723SOL     OW48000   2.414  12.462   7.006
48723SOL    HW148001   2.439  12.546   6.968
48723SOL    HW248002   2.327  12.478   7.044
48724SOL     OW48003  12.365  12.746   8.349
48724SOL    HW148004  12.376  12.675   8.286
48724SOL    HW248005  12.428  12.727   8.418
48725SOL     OW48006  12.129   6.249   8.067
48725SOL    HW148007  12.048   6.261   8.115
48725SOL    HW248008  12.192   6.307   8.111
48726SOL     OW48009   9.900   2.147  14.757
48726SOL    HW148010   9.898   2.099  14.674
48726SOL    HW248011   9.989   2.134  14.790
48727SOL     OW48012   7.350  10.043   0.243
48727SOL    HW148013   7.261  10.044   0.278
48727SOL    HW248014   7.389   9.962   0.277
48728SOL     OW48015  13.364  14.237  11.892
48728SOL    HW148016  13.399  14.316  11.852
48728SOL    HW248017  13.274  14.232  11.861
48729SOL     OW48018   9.384   5.527   4.105
48729SOL    HW148019   9.343   5.565   4.027
48729SOL    HW248020   9.410   5.602   4.158
48730SOL     OW48021   9.409  13.577   3.858
48730SOL    HW148022   9.398  13.564   3.952
48730SOL    HW248023   9.325  13.613   3.829
48731SOL     OW48024   0.604  12.143  11.501
48731SOL    HW148025   0.559  12.067  11.538
48731SOL    HW248026   0.540  12.214  11.509
48732SOL     OW48027   9.576   0.724   1.945
48732SOL    HW148028   9.642   0.656   1.934
48732SOL    HW248029   9.616   0.802   1.907
48733SOL     OW48030   8.850   6.372  11.979
48733SOL    HW148031   8.777   6.389  11.921
48733SOL    HW248032   8.916   6.331  11.923
48734SOL     OW48033  11.743   6.031  13.402
48734SOL    HW148034  11.794   6.028  13.483
48734SOL    HW248035  11.687   5.954  13.406
48735SOL     OW48036   2.542   6.973   4.292
48735SOL    HW148037   2.618   6.983   4.349
48735SOL    HW248038   2.495   6.897   4.327
48736SOL     OW48039   7.557  12.785   2.824
48736SOL    HW148040   7.479  12.749   2.780
48736SOL    HW248041   7.551  12.879   2.810
48737SOL     OW48042   2.437   5.269  10.710
48737SOL    HW148043   2.436   5.341  10.648
48737SOL    HW248044   2.367   5.210  10.680
48738SOL     OW48045   9.677  10.896   3.082
48738SOL    HW148046   9.734  10.973   3.087
48738SOL    HW248047   9.589  10.931   3.095
48739SOL     OW48048   5.468  11.435  10.539
48739SOL    HW148049   5.544  11.492  10.534
48739SOL    HW248050   5.473  11.395  10.626
48740SOL     OW48051  10.162   8.281   2.648
48740SOL    HW148052  10.255   8.261   2.634
48740SOL    HW248053  10.120   8.258   2.565
48741SOL     OW48054  12.021  14.624   0.792
48741SOL    HW148055  12.116  14.617   0.789
48741SOL    HW248056  12.004  14.713   0.822
48742SOL     OW48057   9.500  12.386   3.655
48742SOL    HW148058   9.503  12.315   3.719
48742SOL    HW248059   9.590  12.419   3.652
48743SOL     OW48060   8.930  10.678   0.881
48743SOL    HW148061   8.982  10.732   0.822
48743SOL    HW248062   8.885  10.741   0.938
48744SOL     OW48063   9.537   6.602  13.521
48744SOL    HW148064   9.572   6.590  13.610
48744SOL    HW248065   9.600   6.661  13.479
48745SOL     OW48066   2.179  14.684   1.485
48745SOL    HW148067   2.236  14.757   1.510
48745SOL    HW248068   2.163  14.638   1.567
48746SOL     OW48069   0.880  10.356   8.931
48746SOL    HW148070   0.837  10.278   8.966
48746SOL    HW248071   0.955  10.370   8.990
48747SOL     OW48072   0.244   7.711  11.573
48747SOL    HW148073   0.262   7.692  11.665
48747SOL    HW248074   0.153   7.741  11.572
48748SOL     OW48075   6.835   9.329   5.905
48748SOL    HW148076   6.812   9.418   5.878
48748SOL    HW248077   6.753   9.280   5.900
48749SOL     OW48078  11.426   8.731   6.539
48749SOL    HW148079  11.510   8.777   6.534
48749SOL    HW248080  11.386   8.743   6.453
48750SOL     OW48081  14.461   2.650  13.687
48750SOL    HW148082  14.484   2.558  13.699
48750SOL    HW248083  14.463   2.687  13.775
48751SOL     OW48084   8.612   2.208   3.313
48751SOL    HW148085   8.597   2.126   3.360
48751SOL    HW248086   8.707   2.218   3.312
48752SOL     OW48087   6.539   4.775   6.611
48752SOL    HW148088   6.574   4.696   6.651
48752SOL    HW248089   6.472   4.743   6.550
48753SOL     OW48090  13.635   0.922   8.397
48753SOL    HW148091  13.614   0.906   8.489
48753SOL    HW248092  13.565   0.979   8.366
48754SOL     OW48093   2.997  11.283  13.331
48754SOL    HW148094   3.053  11.338  13.385
48754SOL    HW248095   2.909  11.294  13.369
48755SOL     OW48096   2.529   0.182  11.215
48755SOL    HW148097   2.596   0.165  11.280
48755SOL    HW248098   2.570   0.242  11.153
48756SOL     OW48099  11.072  12.671  11.583
48756SOL    HW148100  11.091  12.637  11.496
48756SOL    HW248101  10.983  12.705  11.577
48757SOL     OW48102  11.077   9.173   3.723
48757SOL    HW148103  11.033   9.224   3.790
48757SOL    HW248104  11.089   9.086   3.761
48758SOL     OW48105   3.973   0.689   9.587
48758SOL    HW148106   3.945   0.712   9.499
48758SOL    HW248107   4.044   0.627   9.574
48759SOL     OW48108   5.563   0.365   9.174
48759SOL    HW148109   5.518   0.339   9.094
48759SOL    HW248110   5.496   0.414   9.224
48760SOL     OW48111   0.569   5.978   6.084
48760SOL    HW148112   0.605   5.921   6.151
48760SOL    HW248113   0.575   5.928   6.003
48761SOL     OW48114  11.970  12.340   8.852
48761SOL    HW148115  11.882  12.309   8.831
48761SOL    HW248116  11.962  12.435   8.848
48762SOL     OW48117  14.536   5.932  12.048
48762SOL    HW148118  14.441   5.916  12.045
48762SOL    HW248119  14.545   6.026  12.035
48763SOL     OW48120  14.013   9.609  13.713
48763SOL    HW148121  14.061   9.555  13.651
48763SOL    HW248122  14.077   9.631  13.780
48764SOL     OW48123   7.123   5.086   6.580
48764SOL    HW148124   7.144   4.999   6.615
48764SOL    HW248125   7.056   5.069   6.514
48765SOL     OW48126   6.940   5.630   4.517
48765SOL    HW148127   7.023   5.615   4.472
48765SOL    HW248128   6.918   5.721   4.499
48766SOL     OW48129   5.802  13.734   1.060
48766SOL    HW148130   5.757  13.698   0.984
48766SOL    HW248131   5.732  13.764   1.118
48767SOL     OW48132   9.608   2.480   9.248
48767SOL    HW148133   9.582   2.398   9.207
48767SOL    HW248134   9.535   2.501   9.306
48768SOL     OW48135   3.524   6.250   0.808
48768SOL    HW148136   3.440   6.296   0.806
48768SOL    HW248137   3.590   6.320   0.806
48769SOL     OW48138  13.637  12.159   6.432
48769SOL    HW148139  13.582  12.089   6.469
48769SOL    HW248140  13.616  12.158   6.338
48770SOL     OW48141   3.728  12.043   1.295
48770SOL    HW148142   3.766  11.955   1.293
48770SOL    HW248143   3.643  12.033   1.251
48771SOL     OW48144   4.097  14.303   8.105
48771SOL    HW148145   4.154  14.335   8.035
48771SOL    HW248146   4.051  14.229   8.066
48772SOL     OW48147  12.903   5.214   1.402
48772SOL    HW148148  12.909   5.119   1.395
48772SOL    HW248149  12.986   5.246   1.366
48773SOL     OW48150   9.204  14.533   7.630
48773SOL    HW148151   9.262  14.553   7.557
48773SOL    HW248152   9.145  14.608   7.635
48774SOL     OW48153   1.241  14.740   2.938
48774SOL    HW148154   1.312  14.684   2.906
48774SOL    HW248155   1.188  14.683   2.993
48775SOL     OW48156   4.543  10.750  11.594
48775SOL    HW148157   4.537  10.819  11.528
48775SOL    HW248158   4.591  10.679  11.550
48776SOL     OW48159   0.766  13.948   3.087
48776SOL    HW148160   0.810  13.864   3.074
48776SOL    HW248161   0.787  13.973   3.177
48777SOL     OW48162   6.048   8.573   7.724
48777SOL    HW148163   6.125   8.570   7.668
48777SOL    HW248164   6.006   8.488   7.710
48778SOL     OW48165   1.170   1.303   4.223
48778SOL    HW148166   1.223   1.353   4.285
48778SOL    HW248167   1.193   1.212   4.240
48779SOL     OW48168   5.453   9.281   9.962
48779SOL    HW148169   5.480   9.230   9.886
48779SOL    HW248170   5.416   9.216  10.022
48780SOL     OW48171   6.441  14.513   8.115
48780SOL    HW148172   6.433  14.417   8.114
48780SOL    HW248173   6.392  14.541   8.038
48781SOL     OW48174   3.080   3.129  14.649
48781SOL    HW148175   3.037   3.181  14.581
48781SOL    HW248176   3.155   3.090  14.605
48782SOL     OW48177   9.413   9.270  14.711
48782SOL    HW148178   9.387   9.186  14.750
48782SOL    HW248179   9.415   9.252  14.617
48783SOL     OW48180   3.217   7.797  10.269
48783SOL    HW148181   3.283   7.858  10.301
48783SOL    HW248182   3.147   7.852  10.235
48784SOL     OW48183   3.035  11.957   2.381
48784SOL    HW148184   2.971  11.996   2.322
48784SOL    HW248185   3.042  11.866   2.351
48785SOL     OW48186   1.262  13.271  14.333
48785SOL    HW148187   1.325  13.317  14.389
48785SOL    HW248188   1.249  13.330  14.259
48786SOL     OW48189  11.847   9.087   5.914
48786SOL    HW148190  11.795   9.075   5.834
48786SOL    HW248191  11.785   9.072   5.985
48787SOL     OW48192   9.343  11.354   5.348
48787SOL    HW148193   9.248  11.357   5.336
48787SOL    HW248194   9.369  11.445   5.360
48788SOL     OW48195   5.403   2.789   3.940
48788SOL    HW148196   5.322   2.749   3.972
48788SOL    HW248197   5.433   2.730   3.870
48789SOL     OW48198   8.892  12.383   8.485
48789SOL    HW148199   8.933  12.462   8.450
48789SOL    HW248200   8.949  12.356   8.557
48790SOL     OW48201  13.993   5.934   4.812
48790SOL    HW148202  14.024   5.888   4.734
48790SOL    HW248203  14.064   5.924   4.875
48791SOL     OW48204  10.837   7.519   8.151
48791SOL    HW148205  10.798   7.521   8.239
48791SOL    HW248206  10.790   7.587   8.103
48792SOL     OW48207   5.317  11.279  12.540
48792SOL    HW148208   5.289  11.218  12.472
48792SOL    HW248209   5.237  11.298  12.590
48793SOL     OW48210  13.838   4.299   0.814
48793SOL    HW148211  13.911   4.275   0.871
48793SOL    HW248212  13.824   4.221   0.759
48794SOL     OW48213   2.397  10.689   1.229
48794SOL    HW148214   2.488  10.670   1.252
48794SOL    HW248215   2.382  10.640   1.148
48795SOL     OW48216   6.674   0.689  10.086
48795SOL    HW148217   6.757   0.640  10.089
48795SOL    HW248218   6.680   0.740  10.005
48796SOL     OW48219   6.551  10.785   9.466
48796SOL    HW148220   6.587  10.850   9.405
48796SOL    HW248221   6.627  10.753   9.514
48797SOL     OW48222   7.670   1.574   8.166
48797SOL    HW148223   7.647   1.663   8.191
48797SOL    HW248224   7.762   1.578   8.141
48798SOL     OW48225  12.234   3.451   1.392
48798SOL    HW148226  12.212   3.385   1.326
48798SOL    HW248227  12.326   3.471   1.375
48799SOL     OW48228  10.885  10.243  14.149
48799SOL    HW148229  10.880  10.293  14.231
48799SOL    HW248230  10.801  10.197  14.145
48800SOL     OW48231   2.357   0.732   9.640
48800SOL    HW148232   2.268   0.698   9.628
48800SOL    HW248233   2.412   0.672   9.589
48801SOL     OW48234  10.385  12.418   2.098
48801SOL    HW148235  10.293  12.401   2.119
48801SOL    HW248236  10.434  12.377   2.169
48802SOL     OW48237   4.063   4.591   2.562
48802SOL    HW148238   4.060   4.501   2.593
48802SOL    HW248239   4.074   4.584   2.467
48803SOL     OW48240   3.296   4.517   1.162
48803SOL    HW148241   3.353   4.441   1.148
48803SOL    HW248242   3.273   4.513   1.255
48804SOL     OW48243   3.730   5.867   2.362
48804SOL    HW148244   3.650   5.863   2.310
48804SOL    HW248245   3.783   5.935   2.321
48805SOL     OW48246   8.305  11.398   3.346
48805SOL    HW148247   8.268  11.320   3.305
48805SOL    HW248248   8.282  11.469   3.286
48806SOL     OW48249   2.686   1.719  13.010
48806SOL    HW148250   2.697   1.645  12.951
48806SOL    HW248251   2.672   1.794  12.953
48807SOL     OW48252  13.519   5.380   4.004
48807SOL    HW148253  13.434   5.385   4.048
48807SOL    HW248254  13.502   5.324   3.928
48808SOL     OW48255  14.866  10.112   0.907
48808SOL    HW148256   0.062  10.071   0.961
48808SOL    HW248257  14.793  10.050   0.910
48809SOL     OW48258   8.550   6.377  11.343
48809SOL    HW148259   8.569   6.327  11.423
48809SOL    HW248260   8.614   6.344  11.280
48810SOL     OW48261   6.876   4.527   2.710
48810SOL    HW148262   6.837   4.483   2.786
48810SOL    HW248263   6.840   4.481   2.634
48811SOL     OW48264  11.055   7.482   2.792
48811SOL    HW148265  10.974   7.478   2.844
48811SOL    HW248266  11.115   7.534   2.845
48812SOL     OW48267   6.651  14.533  14.675
48812SOL    HW148268   6.642  14.544  14.770
48812SOL    HW248269   6.693  14.614  14.646
48813SOL     OW48270   6.224  10.368   8.685
48813SOL    HW148271   6.153  10.311   8.716
48813SOL    HW248272   6.206  10.379   8.591
48814SOL     OW48273  12.177  10.539   3.204
48814SOL    HW148274  12.084  10.547   3.182
48814SOL    HW248275  12.214  10.625   3.184
48815SOL     OW48276   3.468  12.332   7.689
48815SOL    HW148277   3.391  12.353   7.742
48815SOL    HW248278   3.537  12.389   7.724
48816SOL     OW48279   7.685   1.880   6.429
48816SOL    HW148280   7.695   1.787   6.450
48816SOL    HW248281   7.616   1.910   6.489
48817SOL     OW48282  11.949   0.513   6.776
48817SOL    HW148283  11.906   0.455   6.713
48817SOL    HW248284  11.969   0.592   6.725
48818SOL     OW48285   5.692  10.258  11.548
48818SOL    HW148286   5.733  10.303  11.622
48818SOL    HW248287   5.752  10.272  11.475
48819SOL     OW48288  14.409  13.530  14.355
48819SOL    HW148289  14.426  13.469  14.427
48819SOL    HW248290  14.479  13.595  14.361
48820SOL     OW48291   3.142  12.095  12.146
48820SOL    HW148292   3.187  12.154  12.206
48820SOL    HW248293   3.211  12.045  12.104
48821SOL     OW48294   5.274   5.546   7.492
48821SOL    HW148295   5.220   5.469   7.506
48821SOL    HW248296   5.212   5.617   7.478
48822SOL     OW48297   7.613   0.978   5.671
48822SOL    HW148298   7.616   1.063   5.627
48822SOL    HW248299   7.593   0.915   5.601
48823SOL     OW48300   9.997   8.822   9.473
48823SOL    HW148301  10.025   8.778   9.553
48823SOL    HW248302  10.071   8.813   9.413
48824SOL     OW48303   1.593   9.364  14.838
48824SOL    HW148304   1.654   9.365   0.039
48824SOL    HW248305   1.513   9.324   0.001
48825SOL     OW48306   0.806   4.786   7.685
48825SOL    HW148307   0.886   4.834   7.663
48825SOL    HW248308   0.769   4.835   7.759
48826SOL     OW48309  11.318  13.487  11.976
48826SOL    HW148310  11.273  13.425  12.033
48826SOL    HW248311  11.383  13.529  12.033
48827SOL     OW48312   1.989   8.889  13.779
48827SOL    HW148313   1.960   8.851  13.696
48827SOL    HW248314   2.038   8.967  13.754
48828SOL     OW48315   1.137   9.944  13.918
48828SOL    HW148316   1.201   9.910  13.981
48828SOL    HW248317   1.125   9.872  13.856
48829SOL     OW48318   9.711   7.358   4.242
48829SOL    HW148319   9.650   7.323   4.178
48829SOL    HW248320   9.786   7.388   4.191
48830SOL     OW48321   7.084   5.954   8.945
48830SOL    HW148322   6.990   5.956   8.960
48830SOL    HW248323   7.120   5.916   9.025
48831SOL     OW48324   5.165  13.143   7.342
48831SOL    HW148325   5.098  13.076   7.356
48831SOL    HW248326   5.118  13.226   7.343
48832SOL     OW48327  14.534   9.715  12.929
48832SOL    HW148328  14.479   9.703  13.006
48832SOL    HW248329  14.512   9.803  12.898
48833SOL     OW48330  14.284   5.146   2.025
48833SOL    HW148331  14.295   5.084   2.097
48833SOL    HW248332  14.373   5.163   1.994
48834SOL     OW48333   9.860  12.388   6.538
48834SOL    HW148334   9.856  12.385   6.634
48834SOL    HW248335   9.943  12.433   6.519
48835SOL     OW48336   1.731  13.212   4.093
48835SOL    HW148337   1.774  13.127   4.089
48835SOL    HW248338   1.685  13.220   4.009
48836SOL     OW48339   2.685   3.258   9.937
48836SOL    HW148340   2.667   3.183   9.993
48836SOL    HW248341   2.599   3.294   9.916
48837SOL     OW48342  10.671   4.574   4.126
48837SOL    HW148343  10.585   4.536   4.109
48837SOL    HW248344  10.657   4.669   4.124
48838SOL     OW48345   4.956   7.098   3.725
48838SOL    HW148346   4.929   7.167   3.785
48838SOL    HW248347   5.024   7.050   3.772
48839SOL     OW48348   4.566   5.719   0.007
48839SOL    HW148349   4.489   5.663  14.867
48839SOL    HW248350   4.629   5.664   0.054
48840SOL     OW48351   8.641  14.073  12.416
48840SOL    HW148352   8.707  14.036  12.357
48840SOL    HW248353   8.649  14.167  12.405
48841SOL     OW48354   8.219   3.897   9.184
48841SOL    HW148355   8.168   3.828   9.140
48841SOL    HW248356   8.159   3.970   9.192
48842SOL     OW48357   1.437  11.121   6.251
48842SOL    HW148358   1.415  11.183   6.321
48842SOL    HW248359   1.352  11.092   6.217
48843SOL     OW48360  11.666   5.467  14.610
48843SOL    HW148361  11.703   5.521  14.680
48843SOL    HW248362  11.602   5.411  14.654
48844SOL     OW48363   3.327   3.182  12.538
48844SOL    HW148364   3.234   3.189  12.516
48844SOL    HW248365   3.357   3.272  12.549
48845SOL     OW48366   4.821   2.984  11.213
48845SOL    HW148367   4.816   2.891  11.191
48845SOL    HW248368   4.906   2.994  11.256
48846SOL     OW48369   5.140  12.405   8.888
48846SOL    HW148370   5.134  12.360   8.972
48846SOL    HW248371   5.209  12.470   8.900
48847SOL     OW48372   9.162   7.938   3.260
48847SOL    HW148373   9.170   7.958   3.167
48847SOL    HW248374   9.076   7.974   3.285
48848SOL     OW48375  13.884   3.629  14.274
48848SOL    HW148376  13.967   3.663  14.240
48848SOL    HW248377  13.875   3.669  14.360
48849SOL     OW48378   6.622   9.016   9.047
48849SOL    HW148379   6.558   8.945   9.049
48849SOL    HW248380   6.706   8.973   9.066
48850SOL     OW48381   7.964  12.739  13.205
48850SOL    HW148382   7.936  12.758  13.294
48850SOL    HW248383   8.059  12.728  13.212
48851SOL     OW48384  12.890   4.051   1.180
48851SOL    HW148385  12.797   4.037   1.199
48851SOL    HW248386  12.915   4.126   1.236
48852SOL     OW48387  10.355   4.941   1.936
48852SOL    HW148388  10.384   4.930   2.027
48852SOL    HW248389  10.264   4.968   1.943
48853SOL     OW48390   6.478  12.713   6.885
48853SOL    HW148391   6.522  12.789   6.848
48853SOL    HW248392   6.439  12.669   6.809
48854SOL     OW48393   7.589   9.346   5.383
48854SOL    HW148394   7.571   9.257   5.413
48854SOL    HW248395   7.667   9.336   5.328
48855SOL     OW48396  13.921  11.362  13.872
48855SOL    HW148397  13.990  11.413  13.830
48855SOL    HW248398  13.877  11.424  13.931
48856SOL     OW48399   0.045   4.569   1.041
48856SOL    HW148400   0.138   4.557   1.061
48856SOL    HW248401   0.001   4.560   1.126
48857SOL     OW48402  14.585   5.665   3.144
48857SOL    HW148403  14.553   5.744   3.100
48857SOL    HW248404  14.507   5.623   3.179
48858SOL     OW48405  12.406   1.492   1.985
48858SOL    HW148406  12.375   1.419   1.931
48858SOL    HW248407  12.327   1.525   2.028
48859SOL     OW48408  13.280  10.666   0.871
48859SOL    HW148409  13.319  10.744   0.911
48859SOL    HW248410  13.247  10.695   0.787
48860SOL     OW48411   5.855   6.055   3.664
48860SOL    HW148412   5.827   5.964   3.671
48860SOL    HW248413   5.937   6.051   3.614
48861SOL     OW48414  12.887   2.979  10.837
48861SOL    HW148415  12.981   2.989  10.825
48861SOL    HW248416  12.873   2.996  10.931
48862SOL     OW48417  14.742   3.685  13.516
48862SOL    HW148418  14.807   3.615  13.510
48862SOL    HW248419  14.712   3.683  13.607
48863SOL     OW48420   4.869   9.161  13.606
48863SOL    HW148421   4.950   9.199  13.642
48863SOL    HW248422   4.856   9.207  13.523
48864SOL     OW48423   2.536  13.007   2.151
48864SOL    HW148424   2.544  13.016   2.056
48864SOL    HW248425   2.509  13.094   2.182
48865SOL     OW48426  10.665   2.329   0.265
48865SOL    HW148427  10.597   2.346   0.200
48865SOL    HW248428  10.721   2.407   0.262
48866SOL     OW48429   1.901  13.902   8.040
48866SOL    HW148430   1.874  13.924   7.951
48866SOL    HW248431   1.950  13.978   8.070
48867SOL     OW48432   6.372   9.544   6.065
48867SOL    HW148433   6.348   9.634   6.046
48867SOL    HW248434   6.464   9.547   6.090
48868SOL     OW48435   4.245   8.908   1.607
48868SOL    HW148436   4.326   8.896   1.658
48868SOL    HW248437   4.222   8.819   1.578
48869SOL     OW48438   7.795   6.995   7.860
48869SOL    HW148439   7.788   7.080   7.817
48869SOL    HW248440   7.718   6.947   7.831
48870SOL     OW48441   2.236   0.541   6.210
48870SOL    HW148442   2.268   0.614   6.262
48870SOL    HW248443   2.231   0.468   6.272
48871SOL     OW48444  11.863   8.702   9.758
48871SOL    HW148445  11.788   8.642   9.753
48871SOL    HW248446  11.938   8.648   9.732
48872SOL     OW48447  12.582  13.710  10.301
48872SOL    HW148448  12.627  13.774  10.246
48872SOL    HW248449  12.530  13.659  10.238
48873SOL     OW48450   1.167   1.365   8.328
48873SOL    HW148451   1.076   1.386   8.349
48873SOL    HW248452   1.218   1.430   8.375
48874SOL     OW48453  10.349  13.421   8.597
48874SOL    HW148454  10.338  13.510   8.629
48874SOL    HW248455  10.418  13.427   8.531
48875SOL     OW48456   4.903   3.899   2.430
48875SOL    HW148457   4.992   3.933   2.426
48875SOL    HW248458   4.847   3.973   2.410
48876SOL     OW48459   2.486   1.193   4.552
48876SOL    HW148460   2.562   1.219   4.604
48876SOL    HW248461   2.488   1.250   4.476
48877SOL     OW48462   5.434   9.330   4.102
48877SOL    HW148463   5.467   9.420   4.107
48877SOL    HW248464   5.488   9.288   4.035
48878SOL     OW48465  10.789   2.150   1.463
48878SOL    HW148466  10.824   2.171   1.550
48878SOL    HW248467  10.864   2.160   1.404
48879SOL     OW48468  12.128   6.252   0.005
48879SOL    HW148469  12.215   6.231  14.844
48879SOL    HW248470  12.079   6.281  14.800
48880SOL     OW48471  11.045  13.289  11.316
48880SOL    HW148472  11.115  13.319  11.258
48880SOL    HW248473  11.091  13.255  11.393
48881SOL     OW48474  11.425   4.825  10.178
48881SOL    HW148475  11.404   4.837  10.271
48881SOL    HW248476  11.507   4.872  10.166
48882SOL     OW48477  11.161  13.553  12.572
48882SOL    HW148478  11.124  13.620  12.630
48882SOL    HW248479  11.228  13.510  12.625
48883SOL     OW48480   5.885   1.273  10.446
48883SOL    HW148481   5.964   1.325  10.463
48883SOL    HW248482   5.917   1.184  10.433
48884SOL     OW48483  14.239  12.868   7.080
48884SOL    HW148484  14.245  12.949   7.029
48884SOL    HW248485  14.296  12.884   7.156
48885SOL     OW48486   1.651   6.819  12.461
48885SOL    HW148487   1.692   6.880  12.522
48885SOL    HW248488   1.723   6.788  12.406
48886SOL     OW48489   5.687  14.094   8.653
48886SOL    HW148490   5.713  14.002   8.651
48886SOL    HW248491   5.645  14.105   8.738
48887SOL     OW48492  14.288  10.559  14.217
48887SOL    HW148493  14.309  10.469  14.191
48887SOL    HW248494  14.372  10.604  14.218
48888SOL     OW48495  14.070  12.564   9.582
48888SOL    HW148496  14.016  12.624   9.633
48888SOL    HW248497  14.103  12.618   9.510
48889SOL     OW48498   8.473  13.728   7.556
48889SOL    HW148499   8.525  13.807   7.540
48889SOL    HW248500   8.536  13.656   7.547
48890SOL     OW48501   9.856  14.146   7.062
48890SOL    HW148502   9.807  14.128   6.982
48890SOL    HW248503   9.798  14.115   7.132
48891SOL     OW48504  11.031   4.068   3.065
48891SOL    HW148505  11.018   4.137   3.000
48891SOL    HW248506  11.122   4.080   3.095
48892SOL     OW48507   7.656  14.089  13.220
48892SOL    HW148508   7.645  14.183  13.204
48892SOL    HW248509   7.676  14.083  13.313
48893SOL     OW48510   5.957   0.623   2.885
48893SOL    HW148511   5.999   0.633   2.800
48893SOL    HW248512   5.894   0.552   2.873
48894SOL     OW48513   1.647   3.177  13.496
48894SOL    HW148514   1.634   3.271  13.493
48894SOL    HW248515   1.562   3.141  13.521
48895SOL     OW48516   4.177  12.571  11.927
48895SOL    HW148517   4.105  12.596  11.984
48895SOL    HW248518   4.135  12.546  11.844
48896SOL     OW48519   2.685   8.058   5.278
48896SOL    HW148520   2.656   8.064   5.187
48896SOL    HW248521   2.609   8.023   5.325
48897SOL     OW48522  10.211   4.711   7.940
48897SOL    HW148523  10.219   4.696   8.034
48897SOL    HW248524  10.262   4.640   7.900
48898SOL     OW48525  11.998  10.774  14.071
48898SOL    HW148526  11.956  10.812  14.148
48898SOL    HW248527  11.988  10.841  14.003
48899SOL     OW48528   1.920   7.470   1.164
48899SOL    HW148529   1.880   7.385   1.143
48899SOL    HW248530   1.854   7.534   1.139
48900SOL     OW48531  14.519  12.036  10.989
48900SOL    HW148532  14.561  12.075  10.913
48900SOL    HW248533  14.490  11.950  10.959
48901SOL     OW48534  11.105   3.624   4.184
48901SOL    HW148535  11.057   3.706   4.171
48901SOL    HW248536  11.188   3.651   4.223
48902SOL     OW48537   5.415   0.032   4.646
48902SOL    HW148538   5.493  14.851   4.661
48902SOL    HW248539   5.382   0.004   4.561
48903SOL     OW48540  14.449   8.744   0.012
48903SOL    HW148541  14.527   8.694  14.861
48903SOL    HW248542  14.436   8.805  14.811
48904SOL     OW48543  12.439  12.624   9.160
48904SOL    HW148544  12.392  12.541   9.161
48904SOL    HW248545  12.441  12.650   9.068
48905SOL     OW48546   9.283   9.385  11.698
48905SOL    HW148547   9.217   9.356  11.636
48905SOL    HW248548   9.234   9.414  11.775
48906SOL     OW48549  14.707   0.067   9.806
48906SOL    HW148550  14.775   0.129   9.830
48906SOL    HW248551  14.653   0.114   9.743
48907SOL     OW48552  13.496   3.322   0.672
48907SOL    HW148553  13.478   3.411   0.640
48907SOL    HW248554  13.562   3.288   0.612
48908SOL     OW48555   2.189   6.379   2.353
48908SOL    HW148556   2.274   6.421   2.366
48908SOL    HW248557   2.209   6.285   2.354
48909SOL     OW48558   7.446   8.323  14.433
48909SOL    HW148559   7.505   8.367  14.372
48909SOL    HW248560   7.380   8.282  14.377
48910SOL     OW48561   1.328   5.233  11.004
48910SOL    HW148562   1.390   5.279  11.059
48910SOL    HW248563   1.318   5.147  11.046
48911SOL     OW48564   9.303   0.884  11.350
48911SOL    HW148565   9.371   0.859  11.413
48911SOL    HW248566   9.250   0.806  11.339
48912SOL     OW48567   9.909   9.453   0.422
48912SOL    HW148568   9.862   9.384   0.375
48912SOL    HW248569   9.893   9.434   0.514
48913SOL     OW48570   1.796   0.399   4.061
48913SOL    HW148571   1.844   0.317   4.063
48913SOL    HW248572   1.849   0.459   4.113
48914SOL     OW48573  13.048   0.805   7.163
48914SOL    HW148574  13.125   0.859   7.146
48914SOL    HW248575  12.979   0.868   7.186
48915SOL     OW48576  13.108   8.867  11.642
48915SOL    HW148577  13.024   8.840  11.605
48915SOL    HW248578  13.173   8.818  11.592
48916SOL     OW48579   6.436   1.700  10.651
48916SOL    HW148580   6.495   1.775  10.648
48916SOL    HW248581   6.402   1.699  10.740
48917SOL     OW48582   0.348  13.838  13.759
48917SOL    HW148583   0.396  13.772  13.809
48917SOL    HW248584   0.407  13.913  13.756
48918SOL     OW48585  12.846   4.941   0.655
48918SOL    HW148586  12.798   4.868   0.615
48918SOL    HW248587  12.924   4.901   0.692
48919SOL     OW48588  12.171   7.064   7.586
48919SOL    HW148589  12.213   7.092   7.668
48919SOL    HW248590  12.203   7.126   7.521
48920SOL     OW48591   3.372   0.628   4.083
48920SOL    HW148592   3.381   0.690   4.155
48920SOL    HW248593   3.435   0.659   4.017
48921SOL     OW48594   6.085   8.092   8.166
48921SOL    HW148595   6.160   8.045   8.202
48921SOL    HW248596   6.108   8.184   8.177
48922SOL     OW48597   8.767   5.649   8.417
48922SOL    HW148598   8.780   5.742   8.399
48922SOL    HW248599   8.765   5.607   8.331
48923SOL     OW48600   9.680  12.075   8.156
48923SOL    HW148601   9.662  12.001   8.098
48923SOL    HW248602   9.625  12.146   8.123
48924SOL     OW48603   4.848   7.662   3.015
48924SOL    HW148604   4.756   7.641   3.003
48924SOL    HW248605   4.893   7.578   3.005
48925SOL     OW48606   8.310   0.418   7.433
48925SOL    HW148607   8.396   0.461   7.436
48925SOL    HW248608   8.264   0.450   7.510
48926SOL     OW48609  11.746  13.234  11.370
48926SOL    HW148610  11.667  13.212  11.420
48926SOL    HW248611  11.776  13.316  11.409
48927SOL     OW48612   8.015   1.843   0.240
48927SOL    HW148613   7.927   1.877   0.224
48927SOL    HW248614   8.025   1.773   0.175
48928SOL     OW48615  12.110  12.551   2.630
48928SOL    HW148616  12.051  12.491   2.585
48928SOL    HW248617  12.194  12.505   2.634
48929SOL     OW48618   3.920   2.349   2.346
48929SOL    HW148619   3.841   2.341   2.292
48929SOL    HW248620   3.907   2.286   2.416
48930SOL     OW48621  12.955   1.080  13.382
48930SOL    HW148622  12.968   1.151  13.320
48930SOL    HW248623  12.975   1.118  13.467
48931SOL     OW48624  10.456  12.718   8.639
48931SOL    HW148625  10.542  12.725   8.599
48931SOL    HW248626  10.459  12.778   8.714
48932SOL     OW48627   5.354  11.230   2.971
48932SOL    HW148628   5.349  11.216   3.065
48932SOL    HW248629   5.310  11.154   2.933
48933SOL     OW48630   4.028   4.555  11.572
48933SOL    HW148631   3.987   4.480  11.613
48933SOL    HW248632   3.955   4.604  11.533
48934SOL     OW48633  14.671   0.585   1.575
48934SOL    HW148634  14.729   0.652   1.611
48934SOL    HW248635  14.644   0.534   1.651
48935SOL     OW48636   7.703   6.618   1.428
48935SOL    HW148637   7.670   6.683   1.366
48935SOL    HW248638   7.788   6.653   1.456
48936SOL     OW48639   7.251  11.005  12.587
48936SOL    HW148640   7.271  11.041  12.501
48936SOL    HW248641   7.326  10.948  12.607
48937SOL     OW48642   5.457  13.893   0.689
48937SOL    HW148643   5.470  13.975   0.641
48937SOL    HW248644   5.508  13.904   0.769
48938SOL     OW48645  11.457  11.155   1.405
48938SOL    HW148646  11.446  11.076   1.458
48938SOL    HW248647  11.551  11.164   1.392
48939SOL     OW48648  11.020   6.616   7.909
48939SOL    HW148649  11.035   6.583   7.997
48939SOL    HW248650  10.936   6.662   7.914
48940SOL     OW48651   1.415   2.084  14.580
48940SOL    HW148652   1.458   2.145  14.520
48940SOL    HW248653   1.389   2.138  14.654
48941SOL     OW48654  11.295  11.544   9.795
48941SOL    HW148655  11.267  11.608   9.729
48941SOL    HW248656  11.218  11.531   9.850
48942SOL     OW48657   9.514   4.282  13.870
48942SOL    HW148658   9.579   4.213  13.874
48942SOL    HW248659   9.498   4.305  13.962
48943SOL     OW48660   0.011   2.053   2.490
48943SOL    HW148661  14.863   2.068   2.583
48943SOL    HW248662   0.095   2.009   2.491
48944SOL     OW48663  11.835  10.152   6.320
48944SOL    HW148664  11.794  10.120   6.400
48944SOL    HW248665  11.770  10.211   6.281
48945SOL     OW48666   3.828  10.667  10.017
48945SOL    HW148667   3.732  10.663  10.017
48945SOL    HW248668   3.848  10.760  10.024
48946SOL     OW48669   3.359   6.604   6.529
48946SOL    HW148670   3.351   6.640   6.441
48946SOL    HW248671   3.428   6.537   6.521
48947SOL     OW48672   0.882   5.247  12.741
48947SOL    HW148673   0.972   5.249  12.708
48947SOL    HW248674   0.828   5.233  12.663
48948SOL     OW48675  13.360   3.698   5.163
48948SOL    HW148676  13.420   3.768   5.139
48948SOL    HW248677  13.383   3.626   5.104
48949SOL     OW48678   3.311  10.740   1.582
48949SOL    HW148679   3.385  10.788   1.620
48949SOL    HW248680   3.258  10.808   1.540
48950SOL     OW48681   7.103   3.321   5.214
48950SOL    HW148682   7.034   3.381   5.243
48950SOL    HW248683   7.147   3.294   5.295
48951SOL     OW48684   0.262   7.329  12.104
48951SOL    HW148685   0.168   7.316  12.119
48951SOL    HW248686   0.273   7.424  12.106
48952SOL     OW48687   8.909   0.495   8.367
48952SOL    HW148688   8.871   0.414   8.402
48952SOL    HW248689   8.903   0.484   8.272
48953SOL     OW48690   9.217   8.540   2.425
48953SOL    HW148691   9.226   8.495   2.509
48953SOL    HW248692   9.181   8.474   2.366
48954SOL     OW48693   5.936   2.386   9.845
48954SOL    HW148694   5.957   2.308   9.896
48954SOL    HW248695   5.850   2.413   9.877
48955SOL     OW48696   9.215  10.410   8.917
48955SOL    HW148697   9.198  10.330   8.868
48955SOL    HW248698   9.309  10.410   8.932
48956SOL     OW48699   9.383  13.833   3.084
48956SOL    HW148700   9.433  13.805   3.161
48956SOL    HW248701   9.354  13.922   3.105
48957SOL     OW48702   0.608  12.990   7.264
48957SOL    HW148703   0.527  13.004   7.312
48957SOL    HW248704   0.586  13.010   7.173
48958SOL     OW48705   9.938   3.554  14.165
48958SOL    HW148706   9.875   3.497  14.121
48958SOL    HW248707   9.971   3.611  14.095
48959SOL     OW48708   5.883   9.972   7.432
48959SOL    HW148709   5.926  10.012   7.508
48959SOL    HW248710   5.954   9.954   7.371
48960SOL     OW48711   1.866   8.717  11.637
48960SOL    HW148712   1.890   8.809  11.646
48960SOL    HW248713   1.910   8.689  11.557
48961SOL     OW48714  12.972   5.587   6.889
48961SOL    HW148715  13.013   5.674   6.888
48961SOL    HW248716  12.879   5.605   6.901
48962SOL     OW48717  13.889   2.604   2.638
48962SOL    HW148718  13.866   2.665   2.567
48962SOL    HW248719  13.930   2.659   2.704
48963SOL     OW48720   9.040  10.809   5.036
48963SOL    HW148721   9.064  10.899   5.059
48963SOL    HW248722   9.081  10.755   5.103
48964SOL     OW48723  14.598   9.559   8.311
48964SOL    HW148724  14.595   9.505   8.232
48964SOL    HW248725  14.619   9.647   8.279
48965SOL     OW48726   7.093   5.281   7.134
48965SOL    HW148727   7.042   5.248   7.208
48965SOL    HW248728   7.082   5.376   7.136
48966SOL     OW48729   3.127   2.126   5.261
48966SOL    HW148730   3.051   2.182   5.275
48966SOL    HW248731   3.172   2.164   5.185
48967SOL     OW48732   8.938   7.343   9.526
48967SOL    HW148733   8.985   7.282   9.469
48967SOL    HW248734   8.889   7.399   9.467
48968SOL     OW48735   0.758   5.630  10.872
48968SOL    HW148736   0.691   5.637  10.940
48968SOL    HW248737   0.829   5.687  10.902
48969SOL     OW48738  13.128  12.364   7.927
48969SOL    HW148739  13.133  12.270   7.940
48969SOL    HW248740  13.198  12.400   7.981
48970SOL     OW48741   2.923   0.526   2.496
48970SOL    HW148742   3.011   0.491   2.479
48970SOL    HW248743   2.938   0.600   2.555
48971SOL     OW48744  14.283   2.885   6.398
48971SOL    HW148745  14.297   2.887   6.493
48971SOL    HW248746  14.301   2.974   6.369
48972SOL     OW48747   3.423   5.863   4.088
48972SOL    HW148748   3.332   5.853   4.117
48972SOL    HW248749   3.420   5.850   3.994
48973SOL     OW48750  14.367   3.499   8.862
48973SOL    HW148751  14.388   3.406   8.870
48973SOL    HW248752  14.321   3.521   8.943
48974SOL     OW48753  10.897   1.221  11.291
48974SOL    HW148754  10.910   1.251  11.381
48974SOL    HW248755  10.809   1.250  11.269
48975SOL     OW48756  14.721  13.012   2.029
48975SOL    HW148757  14.738  13.055   1.945
48975SOL    HW248758  14.766  12.928   2.023
48976SOL     OW48759   6.305   3.879  13.583
48976SOL    HW148760   6.331   3.885  13.675
48976SOL    HW248761   6.355   3.805  13.549
48977SOL     OW48762   5.780   6.459  10.336
48977SOL    HW148763   5.744   6.402  10.403
48977SOL    HW248764   5.868   6.425  10.319
48978SOL     OW48765  10.830  11.221   5.659
48978SOL    HW148766  10.901  11.285   5.651
48978SOL    HW248767  10.751  11.271   5.638
48979SOL     OW48768   5.562   6.601   7.826
48979SOL    HW148769   5.627   6.540   7.792
48979SOL    HW248770   5.478   6.564   7.799
48980SOL     OW48771  11.433  12.389  11.663
48980SOL    HW148772  11.504  12.337  11.699
48980SOL    HW248773  11.426  12.465  11.721
48981SOL     OW48774   3.974   1.590   0.532
48981SOL    HW148775   4.031   1.516   0.553
48981SOL    HW248776   3.980   1.647   0.608
48982SOL     OW48777   6.532   3.324   3.530
48982SOL    HW148778   6.579   3.386   3.474
48982SOL    HW248779   6.472   3.379   3.581
48983SOL     OW48780   2.362   7.338   1.490
48983SOL    HW148781   2.395   7.387   1.415
48983SOL    HW248782   2.293   7.282   1.454
48984SOL     OW48783   7.397   0.758   0.348
48984SOL    HW148784   7.371   0.829   0.407
48984SOL    HW248785   7.468   0.713   0.393
48985SOL     OW48786   8.851   2.202  11.569
48985SOL    HW148787   8.805   2.125  11.601
48985SOL    HW248788   8.814   2.219  11.483
48986SOL     OW48789   2.566   3.009   9.475
48986SOL    HW148790   2.525   2.942   9.531
48986SOL    HW248791   2.507   3.015   9.400
48987SOL     OW48792  13.421   8.500  10.362
48987SOL    HW148793  13.431   8.407  10.379
48987SOL    HW248794  13.332   8.521  10.389
48988SOL     OW48795   5.015   1.512   3.075
48988SOL    HW148796   5.024   1.543   3.166
48988SOL    HW248797   5.087   1.450   3.064
48989SOL     OW48798  10.679   0.365   5.239
48989SOL    HW148799  10.595   0.319   5.246
48989SOL    HW248800  10.682   0.394   5.148
48990SOL     OW48801  10.681   9.924   4.489
48990SOL    HW148802  10.739   9.877   4.548
48990SOL    HW248803  10.638   9.989   4.544
48991SOL     OW48804   9.857   4.601   3.279
48991SOL    HW148805   9.769   4.636   3.264
48991SOL    HW248806   9.842   4.516   3.320
48992SOL     OW48807   5.007   0.064  13.028
48992SOL    HW148808   4.941   0.079  12.960
48992SOL    HW248809   4.982  14.852  13.067
48993SOL     OW48810   2.256  14.724  14.154
48993SOL    HW148811   2.239  14.705  14.247
48993SOL    HW248812   2.231  14.816  14.144
48994SOL     OW48813   7.236  10.408  12.419
48994SOL    HW148814   7.194  10.361  12.346
48994SOL    HW248815   7.203  10.498  12.412
48995SOL     OW48816   6.909   8.542   8.233
48995SOL    HW148817   6.837   8.500   8.186
48995SOL    HW248818   6.987   8.520   8.181
48996SOL     OW48819   6.462   0.790  11.837
48996SOL    HW148820   6.402   0.774  11.910
48996SOL    HW248821   6.514   0.865  11.865
48997SOL     OW48822   3.274   1.231   1.075
48997SOL    HW148823   3.273   1.235   1.171
48997SOL    HW248824   3.367   1.230   1.052
48998SOL     OW48825   5.415   1.631   7.206
48998SOL    HW148826   5.349   1.611   7.272
48998SOL    HW248827   5.407   1.560   7.142
48999SOL     OW48828  10.627   2.912   1.912
48999SOL    HW148829  10.659   2.842   1.969
48999SOL    HW248830  10.644   2.881   1.823
49000SOL     OW48831   4.516  14.423   8.718
49000SOL    HW148832   4.469  14.350   8.678
49000SOL    HW248833   4.487  14.424   8.809
49001SOL     OW48834   1.294  11.837  13.751
49001SOL    HW148835   1.279  11.802  13.839
49001SOL    HW248836   1.246  11.920  13.750
49002SOL     OW48837   5.441   5.636   8.710
49002SOL    HW148838   5.451   5.544   8.734
49002SOL    HW248839   5.396   5.675   8.786
49003SOL     OW48840  14.136   3.319   2.176
49003SOL    HW148841  14.118   3.399   2.226
49003SOL    HW248842  14.172   3.350   2.093
49004SOL     OW48843  14.415   7.009   0.577
49004SOL    HW148844  14.503   6.993   0.543
49004SOL    HW248845  14.421   6.991   0.670
49005SOL     OW48846   9.641   6.835   6.809
49005SOL    HW148847   9.614   6.906   6.751
49005SOL    HW248848   9.703   6.783   6.756
49006SOL     OW48849  10.262   8.737   4.596
49006SOL    HW148850  10.211   8.767   4.671
49006SOL    HW248851  10.290   8.649   4.620
49007SOL     OW48852   3.686   7.066  12.395
49007SOL    HW148853   3.707   7.145  12.344
49007SOL    HW248854   3.637   7.011  12.334
49008SOL     OW48855  13.609   6.683  14.556
49008SOL    HW148856  13.570   6.759  14.598
49008SOL    HW248857  13.534   6.628  14.532
49009SOL     OW48858  12.648   8.069   9.745
49009SOL    HW148859  12.556   8.098   9.741
49009SOL    HW248860  12.665   8.032   9.658
49010SOL     OW48861   2.851   6.788  10.392
49010SOL    HW148862   2.837   6.870  10.438
49010SOL    HW248863   2.933   6.754  10.429
49011SOL     OW48864   1.366  11.710   4.680
49011SOL    HW148865   1.313  11.755   4.615
49011SOL    HW248866   1.449  11.757   4.679
49012SOL     OW48867   4.981   5.337   6.455
49012SOL    HW148868   5.059   5.316   6.404
49012SOL    HW248869   4.991   5.290   6.537
49013SOL     OW48870   4.568   4.374  10.128
49013SOL    HW148871   4.595   4.334  10.046
49013SOL    HW248872   4.613   4.323  10.196
49014SOL     OW48873   5.627   5.300   2.053
49014SOL    HW148874   5.702   5.317   2.110
49014SOL    HW248875   5.563   5.256   2.109
49015SOL     OW48876  10.265   1.123   1.466
49015SOL    HW148877  10.344   1.171   1.489
49015SOL    HW248878  10.240   1.077   1.546
49016SOL     OW48879   1.165   7.792  12.090
49016SOL    HW148880   1.121   7.727  12.144
49016SOL    HW248881   1.146   7.766  12.000
49017SOL     OW48882  10.039   3.167   6.074
49017SOL    HW148883   9.989   3.211   6.006
49017SOL    HW248884   9.971   3.129   6.131
49018SOL     OW48885   0.625   8.074  13.777
49018SOL    HW148886   0.706   8.114  13.745
49018SOL    HW248887   0.555   8.128  13.742
49019SOL     OW48888   2.279  11.463   9.156
49019SOL    HW148889   2.350  11.447   9.095
49019SOL    HW248890   2.260  11.556   9.148
49020SOL     OW48891   9.249   6.342   7.221
49020SOL    HW148892   9.314   6.408   7.247
49020SOL    HW248893   9.296   6.259   7.225
49021SOL     OW48894   5.228   2.603   6.629
49021SOL    HW148895   5.195   2.692   6.617
49021SOL    HW248896   5.322   2.614   6.645
49022SOL     OW48897   5.967   6.575   5.345
49022SOL    HW148898   5.975   6.572   5.249
49022SOL    HW248899   5.889   6.628   5.361
49023SOL     OW48900   9.874   9.309   5.791
49023SOL    HW148901   9.853   9.380   5.852
49023SOL    HW248902   9.966   9.290   5.807
49024SOL     OW48903  12.729   2.367  13.273
49024SOL    HW148904  12.692   2.437  13.220
49024SOL    HW248905  12.690   2.287  13.239
49025SOL     OW48906   1.035   7.766  13.868
49025SOL    HW148907   1.094   7.752  13.942
49025SOL    HW248908   1.084   7.823  13.809
49026SOL     OW48909   2.147  13.279   0.812
49026SOL    HW148910   2.144  13.189   0.843
49026SOL    HW248911   2.125  13.332   0.889
49027SOL     OW48912   0.076   1.764   4.749
49027SOL    HW148913   0.031   1.836   4.793
49027SOL    HW248914   0.136   1.729   4.814
49028SOL     OW48915  13.956   5.469   6.253
49028SOL    HW148916  13.881   5.521   6.227
49028SOL    HW248917  13.990   5.432   6.171
49029SOL     OW48918  10.126  10.144   0.891
49029SOL    HW148919  10.123  10.107   0.802
49029SOL    HW248920  10.041  10.120   0.929
49030SOL     OW48921  10.946   1.617  13.091
49030SOL    HW148922  10.980   1.567  13.166
49030SOL    HW248923  10.916   1.699  13.129
49031SOL     OW48924  10.735   9.298   6.654
49031SOL    HW148925  10.818   9.283   6.699
49031SOL    HW248926  10.738   9.239   6.578
49032SOL     OW48927   6.096  10.861  10.590
49032SOL    HW148928   6.172  10.855  10.533
49032SOL    HW248929   6.102  10.948  10.629
49033SOL     OW48930   2.769  12.489   9.649
49033SOL    HW148931   2.692  12.531   9.611
49033SOL    HW248932   2.836  12.497   9.581
49034SOL     OW48933  11.242   5.477   5.759
49034SOL    HW148934  11.336   5.486   5.770
49034SOL    HW248935  11.213   5.562   5.726
49035SOL     OW48936   2.022  13.561   0.234
49035SOL    HW148937   2.115  13.561   0.256
49035SOL    HW248938   1.989  13.476   0.266
49036SOL     OW48939   9.625  11.497   0.322
49036SOL    HW148940   9.549  11.555   0.329
49036SOL    HW248941   9.626  11.449   0.405
49037SOL     OW48942   5.358   6.629   7.055
49037SOL    HW148943   5.362   6.659   6.964
49037SOL    HW248944   5.440   6.582   7.069
49038SOL     OW48945  10.030   7.688   3.353
49038SOL    HW148946   9.950   7.710   3.402
49038SOL    HW248947  10.005   7.700   3.261
49039SOL     OW48948  13.700   1.231  10.562
49039SOL    HW148949  13.693   1.169  10.635
49039SOL    HW248950  13.628   1.207  10.504
49040SOL     OW48951   3.316   9.717  13.530
49040SOL    HW148952   3.378   9.782  13.498
49040SOL    HW248953   3.369   9.640  13.550
49041SOL     OW48954   5.144   9.344   4.215
49041SOL    HW148955   5.226   9.337   4.166
49041SOL    HW248956   5.142   9.434   4.246
49042SOL     OW48957   3.286  10.754   7.439
49042SOL    HW148958   3.239  10.825   7.395
49042SOL    HW248959   3.217  10.699   7.476
49043SOL     OW48960   8.818  11.433   0.273
49043SOL    HW148961   8.841  11.526   0.268
49043SOL    HW248962   8.789  11.410   0.185
49044SOL     OW48963  10.068   5.953   6.570
49044SOL    HW148964  10.072   5.903   6.651
49044SOL    HW248965  10.050   6.043   6.598
49045SOL     OW48966  13.468   2.348   5.020
49045SOL    HW148967  13.426   2.267   5.047
49045SOL    HW248968  13.396   2.410   5.010
49046SOL     OW48969   2.128   6.144   8.518
49046SOL    HW148970   2.161   6.068   8.567
49046SOL    HW248971   2.195   6.162   8.452
49047SOL     OW48972  13.865   7.043   9.622
49047SOL    HW148973  13.865   6.991   9.702
49047SOL    HW248974  13.791   7.010   9.571
49048SOL     OW48975   6.845   8.716   6.705
49048SOL    HW148976   6.911   8.709   6.775
49048SOL    HW248977   6.896   8.737   6.627
49049SOL     OW48978  11.459   1.576   6.896
49049SOL    HW148979  11.547   1.552   6.865
49049SOL    HW248980  11.455   1.541   6.985
49050SOL     OW48981  13.162   4.614   6.922
49050SOL    HW148982  13.110   4.539   6.951
49050SOL    HW248983  13.097   4.679   6.894
49051SOL     OW48984   3.576  11.041  11.531
49051SOL    HW148985   3.602  11.080  11.614
49051SOL    HW248986   3.575  10.947  11.548
49052SOL     OW48987   1.665  13.283   0.589
49052SOL    HW148988   1.652  13.376   0.570
49052SOL    HW248989   1.760  13.271   0.588
49053SOL     OW48990  13.390  12.294  12.662
49053SOL    HW148991  13.341  12.239  12.601
49053SOL    HW248992  13.480  12.262  12.657
49054SOL     OW48993  11.888   5.223  13.634
49054SOL    HW148994  11.807   5.233  13.583
49054SOL    HW248995  11.873   5.144  13.686
49055SOL     OW48996   9.446  12.995   7.341
49055SOL    HW148997   9.471  13.011   7.432
49055SOL    HW248998   9.490  13.064   7.292
49056SOL     OW48999  10.670   3.240  12.234
49056SOL    HW149000  10.638   3.184  12.304
49056SOL    HW249001  10.713   3.180  12.173
49057SOL     OW49002  12.716   9.183   2.693
49057SOL    HW149003  12.749   9.158   2.606
49057SOL    HW249004  12.684   9.273   2.682
49058SOL     OW49005   9.272   0.997  13.073
49058SOL    HW149006   9.254   1.065  13.138
49058SOL    HW249007   9.359   1.017  13.040
49059SOL     OW49008   3.122   7.461   4.977
49059SOL    HW149009   3.149   7.534   4.920
49059SOL    HW249010   3.037   7.488   5.011
49060SOL     OW49011  10.914   2.445  13.973
49060SOL    HW149012  10.982   2.416  13.913
49060SOL    HW249013  10.885   2.529  13.938
49061SOL     OW49014   2.860   5.317  10.650
49061SOL    HW149015   2.794   5.301  10.718
49061SOL    HW249016   2.915   5.385  10.686
49062SOL     OW49017   1.800   0.902   0.049
49062SOL    HW149018   1.835   0.860  14.842
49062SOL    HW249019   1.705   0.895   0.039
49063SOL     OW49020   5.879  12.820   8.258
49063SOL    HW149021   5.840  12.736   8.281
49063SOL    HW249022   5.973  12.801   8.251
49064SOL     OW49023   7.532  13.724  11.347
49064SOL    HW149024   7.613  13.674  11.341
49064SOL    HW249025   7.540  13.772  11.430
49065SOL     OW49026   6.022   7.412  11.222
49065SOL    HW149027   5.971   7.473  11.168
49065SOL    HW249028   5.972   7.330  11.220
49066SOL     OW49029   5.516  10.613   6.847
49066SOL    HW149030   5.494  10.689   6.901
49066SOL    HW249031   5.514  10.647   6.757
49067SOL     OW49032  11.789   1.199   8.363
49067SOL    HW149033  11.789   1.290   8.392
49067SOL    HW249034  11.701   1.167   8.384
49068SOL     OW49035   3.889   6.490  12.216
49068SOL    HW149036   3.926   6.575  12.238
49068SOL    HW249037   3.808   6.510  12.169
49069SOL     OW49038   5.341   7.100   1.170
49069SOL    HW149039   5.402   7.067   1.104
49069SOL    HW249040   5.396   7.148   1.232
49070SOL     OW49041   4.649  10.628   5.504
49070SOL    HW149042   4.672  10.714   5.471
49070SOL    HW249043   4.656  10.570   5.427
49071SOL     OW49044   3.101   6.809   5.628
49071SOL    HW149045   3.052   6.859   5.563
49071SOL    HW249046   3.143   6.876   5.683
49072SOL     OW49047  14.282   1.688   6.147
49072SOL    HW149048  14.248   1.749   6.082
49072SOL    HW249049  14.212   1.682   6.213
49073SOL     OW49050   3.139   2.789   8.053
49073SOL    HW149051   3.181   2.711   8.090
49073SOL    HW249052   3.144   2.854   8.124
49074SOL     OW49053   4.531  12.873   0.359
49074SOL    HW149054   4.596  12.913   0.300
49074SOL    HW249055   4.479  12.817   0.302
49075SOL     OW49056   5.059  14.093   3.215
49075SOL    HW149057   4.985  14.051   3.258
49075SOL    HW249058   5.024  14.125   3.132
49076SOL     OW49059   1.114   0.096   0.990
49076SOL    HW149060   1.151   0.097   0.902
49076SOL    HW249061   1.026   0.132   0.980
49077SOL     OW49062   3.973   4.514  10.648
49077SOL    HW149063   3.891   4.504  10.598
49077SOL    HW249064   4.012   4.427  10.647
49078SOL     OW49065  10.282   5.248   2.270
49078SOL    HW149066  10.298   5.341   2.287
49078SOL    HW249067  10.228   5.248   2.191
49079SOL     OW49068   9.117   7.157   0.377
49079SOL    HW149069   9.196   7.175   0.427
49079SOL    HW249070   9.084   7.243   0.352
49080SOL     OW49071   9.308  10.543   1.471
49080SOL    HW149072   9.295  10.617   1.411
49080SOL    HW249073   9.399  10.517   1.458
49081SOL     OW49074   7.178  13.377   5.082
49081SOL    HW149075   7.155  13.375   5.175
49081SOL    HW249076   7.256  13.322   5.076
49082SOL     OW49077   8.647  14.197   6.019
49082SOL    HW149078   8.687  14.283   6.035
49082SOL    HW249079   8.711  14.151   5.964
49083SOL     OW49080   0.594   4.298   5.108
49083SOL    HW149081   0.536   4.306   5.184
49083SOL    HW249082   0.536   4.271   5.036
49084SOL     OW49083   4.396   6.762   1.241
49084SOL    HW149084   4.321   6.794   1.293
49084SOL    HW249085   4.383   6.801   1.155
49085SOL     OW49086   5.006  10.706  13.651
49085SOL    HW149087   4.957  10.667  13.723
49085SOL    HW249088   4.966  10.792  13.637
49086SOL     OW49089   0.575  10.159  11.423
49086SOL    HW149090   0.585  10.197  11.336
49086SOL    HW249091   0.609  10.227  11.482
49087SOL     OW49092   4.717  13.135  11.738
49087SOL    HW149093   4.677  13.154  11.823
49087SOL    HW249094   4.676  13.197  11.677
49088SOL     OW49095  12.237  10.133  11.991
49088SOL    HW149096  12.269  10.216  12.025
49088SOL    HW249097  12.164  10.110  12.048
49089SOL     OW49098   5.964   7.439   4.574
49089SOL    HW149099   6.014   7.481   4.505
49089SOL    HW249100   5.939   7.511   4.633
49090SOL     OW49101   2.399   1.674   4.369
49090SOL    HW149102   2.317   1.647   4.328
49090SOL    HW249103   2.467   1.651   4.306
49091SOL     OW49104  14.067   5.526   9.826
49091SOL    HW149105  14.163   5.533   9.823
49091SOL    HW249106  14.045   5.475   9.748
49092SOL     OW49107   3.282   9.724   7.433
49092SOL    HW149108   3.339   9.740   7.357
49092SOL    HW249109   3.197   9.757   7.406
49093SOL     OW49110   7.543   8.703   0.215
49093SOL    HW149111   7.472   8.764   0.231
49093SOL    HW249112   7.500   8.617   0.209
49094SOL     OW49113   7.748   3.124  11.940
49094SOL    HW149114   7.767   3.096  11.850
49094SOL    HW249115   7.779   3.215  11.943
49095SOL     OW49116  14.672   9.388  11.310
49095SOL    HW149117  14.621   9.384  11.229
49095SOL    HW249118  14.763   9.396  11.281
49096SOL     OW49119  10.707   8.360   1.114
49096SOL    HW149120  10.690   8.326   1.026
49096SOL    HW249121  10.740   8.286   1.163
49097SOL     OW49122  12.555   5.274  12.084
49097SOL    HW149123  12.602   5.219  12.022
49097SOL    HW249124  12.465   5.239  12.085
49098SOL     OW49125   4.919   2.987   0.226
49098SOL    HW149126   4.946   2.900   0.195
49098SOL    HW249127   5.002   3.033   0.242
49099SOL     OW49128   0.233   2.679   5.803
49099SOL    HW149129   0.138   2.682   5.815
49099SOL    HW249130   0.250   2.590   5.772
49100SOL     OW49131   2.117   1.548   3.061
49100SOL    HW149132   2.029   1.571   3.089
49100SOL    HW249133   2.105   1.473   3.003
49101SOL     OW49134  13.296  14.667   1.846
49101SOL    HW149135  13.202  14.655   1.831
49101SOL    HW249136  13.324  14.587   1.889
49102SOL     OW49137  13.170  14.138   7.440
49102SOL    HW149138  13.165  14.135   7.345
49102SOL    HW249139  13.094  14.088   7.470
49103SOL     OW49140  12.729   9.385   6.693
49103SOL    HW149141  12.736   9.300   6.649
49103SOL    HW249142  12.732   9.449   6.622
49104SOL     OW49143   7.972   4.489   7.564
49104SOL    HW149144   8.047   4.519   7.511
49104SOL    HW249145   8.008   4.477   7.652
49105SOL     OW49146  12.077   9.001   1.412
49105SOL    HW149147  12.039   9.058   1.479
49105SOL    HW249148  12.166   8.985   1.441
49106SOL     OW49149   6.407   5.017   1.638
49106SOL    HW149150   6.496   5.021   1.674
49106SOL    HW249151   6.386   4.924   1.638
49107SOL     OW49152   5.114   8.613   2.947
49107SOL    HW149153   5.126   8.521   2.923
49107SOL    HW249154   5.078   8.610   3.036
49108SOL     OW49155   8.727   6.431   6.050
49108SOL    HW149156   8.673   6.493   6.099
49108SOL    HW249157   8.692   6.434   5.961
49109SOL     OW49158   7.399   1.265   1.250
49109SOL    HW149159   7.450   1.331   1.202
49109SOL    HW249160   7.386   1.303   1.336
49110SOL     OW49161   5.237   1.315  10.041
49110SOL    HW149162   5.265   1.345   9.955
49110SOL    HW249163   5.143   1.303  10.034
49111SOL     OW49164   5.427   8.945   0.213
49111SOL    HW149165   5.428   8.879   0.283
49111SOL    HW249166   5.519   8.954   0.188
49112SOL     OW49167  11.634   6.016  10.960
49112SOL    HW149168  11.668   6.037  11.046
49112SOL    HW249169  11.605   5.925  10.968
49113SOL     OW49170   8.628  13.391  10.074
49113SOL    HW149171   8.577  13.397  10.155
49113SOL    HW249172   8.609  13.472  10.027
49114SOL     OW49173  11.477  14.514  11.152
49114SOL    HW149174  11.475  14.608  11.133
49114SOL    HW249175  11.488  14.509  11.247
49115SOL     OW49176  12.227  12.083   2.947
49115SOL    HW149177  12.296  12.107   3.008
49115SOL    HW249178  12.260  12.110   2.861
49116SOL     OW49179   3.256  10.498   3.284
49116SOL    HW149180   3.249  10.410   3.246
49116SOL    HW249181   3.287  10.552   3.211
49117SOL     OW49182   2.782   5.064  13.572
49117SOL    HW149183   2.840   5.005  13.524
49117SOL    HW249184   2.705   5.011  13.592
49118SOL     OW49185   6.794   9.901  12.719
49118SOL    HW149186   6.802   9.894  12.624
49118SOL    HW249187   6.791   9.810  12.750
49119SOL     OW49188   5.184   3.007   4.040
49119SOL    HW149189   5.148   2.926   4.075
49119SOL    HW249190   5.189   2.991   3.945
49120SOL     OW49191   3.120   4.450   7.209
49120SOL    HW149192   3.043   4.454   7.265
49120SOL    HW249193   3.180   4.514   7.247
49121SOL     OW49194   0.045  14.535  13.597
49121SOL    HW149195  14.840  14.542  13.541
49121SOL    HW249196   0.071  14.443  13.590
49122SOL     OW49197   3.148  11.447  14.731
49122SOL    HW149198   3.229  11.492  14.707
49122SOL    HW249199   3.084  11.517  14.743
49123SOL     OW49200   5.601   3.417  13.257
49123SOL    HW149201   5.610   3.452  13.169
49123SOL    HW249202   5.531   3.468  13.297
49124SOL     OW49203   1.438  10.090  13.996
49124SOL    HW149204   1.423   9.995  14.004
49124SOL    HW249205   1.453  10.119  14.086
49125SOL     OW49206   2.922  11.889   0.315
49125SOL    HW149207   2.872  11.930   0.385
49125SOL    HW249208   2.921  11.953   0.243
49126SOL     OW49209   1.130   3.904   4.424
49126SOL    HW149210   1.178   3.948   4.354
49126SOL    HW249211   1.153   3.811   4.414
49127SOL     OW49212   5.040  14.137   2.955
49127SOL    HW149213   4.952  14.129   2.918
49127SOL    HW249214   5.076  14.217   2.916
49128SOL     OW49215  12.662  13.640   0.940
49128SOL    HW149216  12.621  13.690   0.869
49128SOL    HW249217  12.596  13.638   1.009
49129SOL     OW49218  10.195  11.877   2.238
49129SOL    HW149219  10.245  11.945   2.193
49129SOL    HW249220  10.126  11.924   2.283
49130SOL     OW49221   8.549   9.038   4.619
49130SOL    HW149222   8.473   9.006   4.668
49130SOL    HW249223   8.573   9.120   4.662
49131SOL     OW49224  14.214   5.194   5.688
49131SOL    HW149225  14.285   5.242   5.646
49131SOL    HW249226  14.145   5.190   5.622
49132SOL     OW49227   0.922   6.734   6.954
49132SOL    HW149228   0.896   6.825   6.939
49132SOL    HW249229   0.843   6.683   6.935
49133SOL     OW49230   8.423   7.768   2.439
49133SOL    HW149231   8.491   7.830   2.465
49133SOL    HW249232   8.415   7.709   2.514
49134SOL     OW49233   4.451  10.266  11.500
49134SOL    HW149234   4.468  10.176  11.528
49134SOL    HW249235   4.472  10.319  11.577
49135SOL     OW49236   3.691   3.437  13.802
49135SOL    HW149237   3.738   3.462  13.882
49135SOL    HW249238   3.697   3.341  13.800
49136SOL     OW49239   1.101   6.607   7.928
49136SOL    HW149240   1.071   6.621   7.838
49136SOL    HW249241   1.055   6.528   7.957
49137SOL     OW49242  14.841  14.095   5.902
49137SOL    HW149243  14.867  14.034   5.971
49137SOL    HW249244  14.811  14.040   5.831
49138SOL     OW49245   1.831  14.313  14.807
49138SOL    HW149246   1.871  14.252  14.745
49138SOL    HW249247   1.745  14.275  14.826
49139SOL     OW49248   4.088   6.829  10.885
49139SOL    HW149249   4.154   6.888  10.849
49139SOL    HW249250   4.136   6.769  10.941
49140SOL     OW49251   7.428  12.544   3.449
49140SOL    HW149252   7.418  12.637   3.467
49140SOL    HW249253   7.510  12.537   3.402
49141SOL     OW49254  12.480  12.986  10.175
49141SOL    HW149255  12.407  13.040  10.205
49141SOL    HW249256  12.470  12.983  10.080
49142SOL     OW49257  10.243  14.321   8.523
49142SOL    HW149258  10.287  14.256   8.578
49142SOL    HW249259  10.269  14.299   8.434
49143SOL     OW49260   1.681   1.359  11.938
49143SOL    HW149261   1.693   1.432  11.878
49143SOL    HW249262   1.769   1.321  11.947
49144SOL     OW49263  11.693   7.880   8.447
49144SOL    HW149264  11.667   7.817   8.379
49144SOL    HW249265  11.729   7.825   8.517
49145SOL     OW49266   8.122   4.986   8.506
49145SOL    HW149267   8.110   4.912   8.565
49145SOL    HW249268   8.090   4.955   8.422
49146SOL     OW49269   8.855   0.467   5.800
49146SOL    HW149270   8.906   0.438   5.724
49146SOL    HW249271   8.895   0.422   5.874
49147SOL     OW49272  12.736  14.059   2.604
49147SOL    HW149273  12.671  13.989   2.592
49147SOL    HW249274  12.750  14.094   2.516
49148SOL     OW49275  11.033   4.933   0.515
49148SOL    HW149276  10.938   4.942   0.505
49148SOL    HW249277  11.055   4.991   0.588
49149SOL     OW49278   5.869   0.231  10.305
49149SOL    HW149279   5.817   0.206  10.381
49149SOL    HW249280   5.911   0.313  10.331
49150SOL     OW49281   5.968   7.406  14.624
49150SOL    HW149282   5.909   7.384  14.696
49150SOL    HW249283   5.966   7.329  14.567
49151SOL     OW49284   2.944  10.864  11.104
49151SOL    HW149285   2.893  10.782  11.101
49151SOL    HW249286   2.969  10.873  11.196
49152SOL     OW49287   9.397   0.630  12.943
49152SOL    HW149288   9.395   0.652  12.850
49152SOL    HW249289   9.388   0.534  12.945
49153SOL     OW49290   9.698  10.799  13.298
49153SOL    HW149291   9.648  10.840  13.227
49153SOL    HW249292   9.646  10.721  13.321
49154SOL     OW49293   6.974   9.609   9.740
49154SOL    HW149294   7.027   9.586   9.664
49154SOL    HW249295   6.889   9.569   9.722
49155SOL     OW49296  13.533  14.062   4.533
49155SOL    HW149297  13.594  13.990   4.517
49155SOL    HW249298  13.491  14.040   4.616
49156SOL     OW49299  12.949   5.291   0.533
49156SOL    HW149300  12.899   5.371   0.544
49156SOL    HW249301  13.005   5.286   0.611
49157SOL     OW49302   5.119   5.933  11.114
49157SOL    HW149303   5.209   5.938  11.082
49157SOL    HW249304   5.077   6.011  11.079
49158SOL     OW49305  11.291   8.193   4.813
49158SOL    HW149306  11.219   8.234   4.862
49158SOL    HW249307  11.369   8.242   4.839
49159SOL     OW49308   5.784  10.868  11.522
49159SOL    HW149309   5.707  10.812  11.523
49159SOL    HW249310   5.821  10.859  11.610
49160SOL     OW49311   0.331   8.851   9.722
49160SOL    HW149312   0.395   8.921   9.729
49160SOL    HW249313   0.255   8.882   9.771
49161SOL     OW49314   6.955   8.528   2.566
49161SOL    HW149315   7.037   8.484   2.543
49161SOL    HW249316   6.978   8.621   2.568
49162SOL     OW49317   4.314  13.359   5.717
49162SOL    HW149318   4.330  13.268   5.696
49162SOL    HW249319   4.311  13.404   5.632
49163SOL     OW49320   6.887  14.812  10.081
49163SOL    HW149321   6.960  14.813  10.143
49163SOL    HW249322   6.823  14.872  10.120
49164SOL     OW49323   7.204  13.505  13.857
49164SOL    HW149324   7.201  13.475  13.767
49164SOL    HW249325   7.136  13.454  13.902
49165SOL     OW49326  11.142  13.710  14.732
49165SOL    HW149327  11.155  13.616  14.741
49165SOL    HW249328  11.228  13.743  14.707
49166SOL     OW49329  14.024   9.087   5.993
49166SOL    HW149330  14.002   9.032   6.068
49166SOL    HW249331  14.014   9.029   5.917
49167SOL     OW49332   4.445   5.440  11.813
49167SOL    HW149333   4.358   5.448  11.853
49167SOL    HW249334   4.432   5.385  11.736
49168SOL     OW49335  14.741   5.978  14.607
49168SOL    HW149336  14.789   5.898  14.629
49168SOL    HW249337  14.809   6.040  14.583
49169SOL     OW49338   6.552  12.666   8.014
49169SOL    HW149339   6.589  12.687   8.100
49169SOL    HW249340   6.618  12.612   7.971
49170SOL     OW49341  12.660  12.092   0.043
49170SOL    HW149342  12.587  12.092  14.853
49170SOL    HW249343  12.628  12.037   0.116
49171SOL     OW49344   0.095   7.214   3.063
49171SOL    HW149345   0.144   7.253   2.990
49171SOL    HW249346   0.163   7.184   3.124
49172SOL     OW49347   6.379   9.397   5.706
49172SOL    HW149348   6.324   9.390   5.628
49172SOL    HW249349   6.439   9.469   5.687
49173SOL     OW49350   2.985  12.037  13.389
49173SOL    HW149351   3.023  12.117  13.352
49173SOL    HW249352   3.061  11.982  13.409
49174SOL     OW49353   2.807   7.370   4.448
49174SOL    HW149354   2.770   7.312   4.515
49174SOL    HW249355   2.879   7.320   4.410
49175SOL     OW49356   6.746   5.741  10.095
49175SOL    HW149357   6.657   5.771  10.113
49175SOL    HW249358   6.751   5.735   9.999
49176SOL     OW49359   5.816  13.392   4.947
49176SOL    HW149360   5.888  13.371   5.008
49176SOL    HW249361   5.760  13.452   4.997
49177SOL     OW49362   6.096  12.519   9.317
49177SOL    HW149363   6.015  12.472   9.296
49177SOL    HW249364   6.076  12.566   9.398
49178SOL     OW49365   0.707   2.022  10.924
49178SOL    HW149366   0.785   1.971  10.948
49178SOL    HW249367   0.652   2.021  11.002
49179SOL     OW49368   4.339   8.287  11.053
49179SOL    HW149369   4.291   8.301  11.135
49179SOL    HW249370   4.271   8.275  10.987
49180SOL     OW49371   0.860  13.657   8.824
49180SOL    HW149372   0.867  13.581   8.766
49180SOL    HW249373   0.949  13.672   8.855
49181SOL     OW49374  10.130  13.092   2.867
49181SOL    HW149375  10.081  13.149   2.927
49181SOL    HW249376  10.177  13.031   2.925
49182SOL     OW49377   2.469  12.716   8.281
49182SOL    HW149378   2.537  12.648   8.288
49182SOL    HW249379   2.420  12.693   8.202
49183SOL     OW49380   7.989  13.045   4.654
49183SOL    HW149381   7.987  12.998   4.570
49183SOL    HW249382   7.906  13.092   4.656
49184SOL     OW49383   2.049   1.216  12.996
49184SOL    HW149384   2.026   1.133  13.036
49184SOL    HW249385   2.054   1.278  13.069
49185SOL     OW49386   6.356   8.036  13.841
49185SOL    HW149387   6.402   7.953  13.825
49185SOL    HW249388   6.426   8.097  13.864
49186SOL     OW49389   7.023   6.985   5.180
49186SOL    HW149390   7.036   6.896   5.212
49186SOL    HW249391   6.951   7.019   5.232
49187SOL     OW49392  11.133   4.581   1.990
49187SOL    HW149393  11.062   4.639   2.019
49187SOL    HW249394  11.212   4.635   1.995
49188SOL     OW49395   2.131   0.803   6.006
49188SOL    HW149396   2.198   0.752   6.051
49188SOL    HW249397   2.081   0.739   5.955
49189SOL     OW49398  14.145   2.031  10.454
49189SOL    HW149399  14.107   1.987  10.530
49189SOL    HW249400  14.141   1.966  10.384
49190SOL     OW49401   5.497  11.134   2.458
49190SOL    HW149402   5.590  11.115   2.443
49190SOL    HW249403   5.497  11.209   2.518
49191SOL     OW49404   6.479   5.906  13.333
49191SOL    HW149405   6.499   5.881  13.424
49191SOL    HW249406   6.512   5.995  13.325
49192SOL     OW49407  10.909   6.107   8.119
49192SOL    HW149408  11.004   6.111   8.119
49192SOL    HW249409  10.880   6.194   8.095
49193SOL     OW49410   7.496  14.341   6.152
49193SOL    HW149411   7.559  14.289   6.101
49193SOL    HW249412   7.423  14.356   6.092
49194SOL     OW49413  13.793  13.939  12.591
49194SOL    HW149414  13.748  13.858  12.565
49194SOL    HW249415  13.755  14.006  12.535
49195SOL     OW49416  13.770   1.830   9.326
49195SOL    HW149417  13.812   1.806   9.244
49195SOL    HW249418  13.713   1.904   9.303
49196SOL     OW49419  12.658   0.390   0.313
49196SOL    HW149420  12.687   0.481   0.313
49196SOL    HW249421  12.562   0.396   0.314
49197SOL     OW49422  10.989   8.922  13.626
49197SOL    HW149423  10.926   8.965  13.569
49197SOL    HW249424  11.054   8.989  13.646
49198SOL     OW49425   3.859   0.168   9.682
49198SOL    HW149426   3.938   0.131   9.722
49198SOL    HW249427   3.876   0.164   9.588
49199SOL     OW49428   5.960   6.113   6.029
49199SOL    HW149429   5.964   6.187   6.090
49199SOL    HW249430   5.910   6.046   6.076
49200SOL     OW49431   2.857  14.543   4.915
49200SOL    HW149432   2.882  14.454   4.940
49200SOL    HW249433   2.781  14.563   4.969
49201SOL     OW49434  13.759   1.499   5.252
49201SOL    HW149435  13.748   1.425   5.193
49201SOL    HW249436  13.714   1.572   5.210
49202SOL     OW49437   2.273   1.282  13.560
49202SOL    HW149438   2.233   1.359  13.519
49202SOL    HW249439   2.248   1.288  13.652
49203SOL     OW49440  10.497   2.346   5.373
49203SOL    HW149441  10.550   2.421   5.400
49203SOL    HW249442  10.428   2.383   5.318
49204SOL     OW49443  11.010   7.736  14.486
49204SOL    HW149444  11.028   7.796  14.558
49204SOL    HW249445  10.917   7.715  14.495
49205SOL     OW49446   6.573   0.543   7.164
49205SOL    HW149447   6.594   0.616   7.107
49205SOL    HW249448   6.641   0.544   7.231
49206SOL     OW49449  10.497   6.456  13.467
49206SOL    HW149450  10.480   6.419  13.381
49206SOL    HW249451  10.549   6.534  13.450
49207SOL     OW49452   5.474   0.144  12.104
49207SOL    HW149453   5.525   0.181  12.032
49207SOL    HW249454   5.383   0.154  12.077
49208SOL     OW49455  11.996   4.598   2.765
49208SOL    HW149456  12.090   4.603   2.746
49208SOL    HW249457  11.983   4.509   2.796
49209SOL     OW49458   3.576  14.612  13.233
49209SOL    HW149459   3.522  14.534  13.245
49209SOL    HW249460   3.516  14.685  13.245
49210SOL     OW49461   4.879  13.608   4.896
49210SOL    HW149462   4.959  13.569   4.863
49210SOL    HW249463   4.901  13.639   4.984
49211SOL     OW49464  12.449  14.686  13.522
49211SOL    HW149465  12.455  14.776  13.491
49211SOL    HW249466  12.364  14.681  13.565
49212SOL     OW49467   7.237  14.200  11.187
49212SOL    HW149468   7.253  14.215  11.094
49212SOL    HW249469   7.319  14.223  11.231
49213SOL     OW49470   4.300  10.985   7.200
49213SOL    HW149471   4.369  11.044   7.229
49213SOL    HW249472   4.303  10.912   7.261
49214SOL     OW49473   6.279   5.219   3.024
49214SOL    HW149474   6.373   5.215   3.007
49214SOL    HW249475   6.238   5.195   2.940
49215SOL     OW49476   9.020  11.851   9.929
49215SOL    HW149477   8.984  11.935   9.900
49215SOL    HW249478   9.015  11.795   9.853
49216SOL     OW49479  10.154   2.503   8.540
49216SOL    HW149480  10.175   2.589   8.503
49216SOL    HW249481  10.238   2.468   8.568
49217SOL     OW49482   6.022  12.233   4.319
49217SOL    HW149483   6.106  12.260   4.282
49217SOL    HW249484   5.957  12.263   4.255
49218SOL     OW49485   4.796  14.256   4.236
49218SOL    HW149486   4.784  14.167   4.204
49218SOL    HW249487   4.729  14.266   4.303
49219SOL     OW49488  11.280   8.439   4.402
49219SOL    HW149489  11.258   8.467   4.490
49219SOL    HW249490  11.288   8.520   4.352
49220SOL     OW49491   5.271   6.611  11.771
49220SOL    HW149492   5.307   6.691  11.811
49220SOL    HW249493   5.336   6.586  11.705
49221SOL     OW49494   3.783   8.691  11.219
49221SOL    HW149495   3.787   8.786  11.222
49221SOL    HW249496   3.874   8.662  11.232
49222SOL     OW49497   2.188   5.935   5.531
49222SOL    HW149498   2.118   6.000   5.536
49222SOL    HW249499   2.196   5.901   5.620
49223SOL     OW49500   4.242  12.727   4.143
49223SOL    HW149501   4.293  12.781   4.083
49223SOL    HW249502   4.247  12.639   4.105
49224SOL     OW49503   4.395  10.522   2.975
49224SOL    HW149504   4.401  10.427   2.965
49224SOL    HW249505   4.425  10.539   3.064
49225SOL     OW49506   7.114   6.750   3.392
49225SOL    HW149507   7.098   6.662   3.426
49225SOL    HW249508   7.169   6.737   3.315
49226SOL     OW49509  13.942   9.633  10.889
49226SOL    HW149510  13.961   9.688  10.813
49226SOL    HW249511  13.847   9.624  10.890
49227SOL     OW49512   6.794  11.878  14.094
49227SOL    HW149513   6.808  11.970  14.117
49227SOL    HW249514   6.882  11.844  14.079
49228SOL     OW49515   1.450  11.378  10.336
49228SOL    HW149516   1.360  11.349  10.317
49228SOL    HW249517   1.505  11.307  10.305
49229SOL     OW49518   1.988   2.431   3.647
49229SOL    HW149519   2.083   2.428   3.633
49229SOL    HW249520   1.955   2.352   3.606
49230SOL     OW49521   6.157   4.087  11.840
49230SOL    HW149522   6.230   4.133  11.800
49230SOL    HW249523   6.147   4.127  11.927
49231SOL     OW49524   0.636   3.951   6.979
49231SOL    HW149525   0.607   4.012   6.911
49231SOL    HW249526   0.574   3.963   7.050
49232SOL     OW49527   7.752   1.916  14.809
49232SOL    HW149528   7.761   1.957   0.023
49232SOL    HW249529   7.659   1.897  14.801
49233SOL     OW49530   7.286   6.511  14.780
49233SOL    HW149531   7.327   6.598  14.775
49233SOL    HW249532   7.357   6.453  14.808
49234SOL     OW49533   1.752  14.284  10.065
49234SOL    HW149534   1.662  14.256  10.085
49234SOL    HW249535   1.744  14.377  10.046
49235SOL     OW49536   9.702   9.809   9.689
49235SOL    HW149537   9.781   9.797   9.636
49235SOL    HW249538   9.641   9.854   9.631
49236SOL     OW49539   7.154   0.698   3.982
49236SOL    HW149540   7.242   0.677   3.951
49236SOL    HW249541   7.101   0.702   3.902
49237SOL     OW49542   2.785  12.738   2.358
49237SOL    HW149543   2.754  12.678   2.291
49237SOL    HW249544   2.788  12.685   2.438
49238SOL     OW49545  11.850   6.154  14.666
49238SOL    HW149546  11.795   6.178  14.592
49238SOL    HW249547  11.928   6.209  14.657
49239SOL     OW49548   2.829   0.963   2.491
49239SOL    HW149549   2.812   1.032   2.554
49239SOL    HW249550   2.747   0.952   2.444
49240SOL     OW49551  13.332  11.669   0.225
49240SOL    HW149552  13.242  11.692   0.203
49240SOL    HW249553  13.332  11.662   0.321
49241SOL     OW49554   9.918   7.368  14.850
49241SOL    HW149555   9.986   7.427  14.819
49241SOL    HW249556   9.874   7.337  14.771
49242SOL     OW49557   8.148  11.582  11.356
49242SOL    HW149558   8.092  11.505  11.350
49242SOL    HW249559   8.235  11.551  11.332
49243SOL     OW49560   3.715   6.208  11.481
49243SOL    HW149561   3.727   6.168  11.567
49243SOL    HW249562   3.731   6.301  11.496
49244SOL     OW49563  10.663   5.594  11.693
49244SOL    HW149564  10.658   5.689  11.690
49244SOL    HW249565  10.584   5.567  11.741
49245SOL     OW49566   5.641   6.084  10.047
49245SOL    HW149567   5.718   6.062  10.100
49245SOL    HW249568   5.674   6.089   9.957
49246SOL     OW49569   6.505  12.006  13.840
49246SOL    HW149570   6.473  12.065  13.772
49246SOL    HW249571   6.589  12.045  13.867
49247SOL     OW49572  10.073   7.624  12.077
49247SOL    HW149573  10.062   7.535  12.044
49247SOL    HW249574  10.161   7.626  12.113
49248SOL     OW49575   4.336  14.686   9.083
49248SOL    HW149576   4.377  14.738   9.013
49248SOL    HW249577   4.390  14.608   9.090
49249SOL     OW49578  12.146   5.412   9.546
49249SOL    HW149579  12.087   5.380   9.614
49249SOL    HW249580  12.137   5.349   9.474
49250SOL     OW49581   5.144   4.617   3.331
49250SOL    HW149582   5.189   4.669   3.397
49250SOL    HW249583   5.174   4.527   3.346
49251SOL     OW49584  10.283   4.173   3.045
49251SOL    HW149585  10.192   4.157   3.069
49251SOL    HW249586  10.286   4.162   2.950
49252SOL     OW49587   6.055  12.358   7.626
49252SOL    HW149588   6.002  12.330   7.701
49252SOL    HW249589   6.059  12.453   7.634
49253SOL     OW49590   0.345  10.889   5.754
49253SOL    HW149591   0.270  10.856   5.705
49253SOL    HW249592   0.311  10.909   5.841
49254SOL     OW49593  14.680   3.822   5.631
49254SOL    HW149594  14.678   3.878   5.553
49254SOL    HW249595  14.684   3.884   5.704
49255SOL     OW49596   5.355   3.179  11.463
49255SOL    HW149597   5.402   3.097  11.479
49255SOL    HW249598   5.349   3.220  11.548
49256SOL     OW49599   9.306   9.261   5.859
49256SOL    HW149600   9.327   9.311   5.780
49256SOL    HW249601   9.237   9.201   5.832
49257SOL     OW49602  11.949   2.480   0.282
49257SOL    HW149603  11.896   2.487   0.202
49257SOL    HW249604  11.976   2.388   0.284
49258SOL     OW49605  11.947   6.708  11.712
49258SOL    HW149606  11.906   6.624  11.692
49258SOL    HW249607  12.017   6.716  11.647
49259SOL     OW49608   5.007  14.254   7.324
49259SOL    HW149609   5.027  14.347   7.314
49259SOL    HW249610   5.080  14.219   7.375
49260SOL     OW49611   7.637   5.864   6.071
49260SOL    HW149612   7.575   5.791   6.077
49260SOL    HW249613   7.596   5.924   6.009
49261SOL     OW49614   9.424  14.689   0.045
49261SOL    HW149615   9.433  14.710  14.825
49261SOL    HW249616   9.359  14.751   0.078
49262SOL     OW49617   8.622   8.558   2.150
49262SOL    HW149618   8.718   8.566   2.142
49262SOL    HW249619   8.594   8.641   2.187
49263SOL     OW49620  13.626   6.700   8.137
49263SOL    HW149621  13.536   6.684   8.163
49263SOL    HW249622  13.622   6.710   8.041
49264SOL     OW49623   0.160  10.723   2.723
49264SOL    HW149624   0.160  10.630   2.699
49264SOL    HW249625   0.252  10.749   2.716
49265SOL     OW49626   0.246   4.034   3.198
49265SOL    HW149627   0.321   4.091   3.215
49265SOL    HW249628   0.230   3.990   3.281
49266SOL     OW49629  12.606  14.000  11.304
49266SOL    HW149630  12.573  13.992  11.214
49266SOL    HW249631  12.588  13.915  11.343
49267SOL     OW49632   1.560   9.293  11.772
49267SOL    HW149633   1.537   9.231  11.704
49267SOL    HW249634   1.514   9.262  11.850
49268SOL     OW49635   7.920   2.902   6.953
49268SOL    HW149636   7.881   2.893   6.866
49268SOL    HW249637   7.846   2.896   7.014
49269SOL     OW49638   3.256   2.738  14.239
49269SOL    HW149639   3.305   2.715  14.160
49269SOL    HW249640   3.322   2.752  14.306
49270SOL     OW49641  13.580  10.193   1.590
49270SOL    HW149642  13.643  10.168   1.522
49270SOL    HW249643  13.500  10.145   1.566
49271SOL     OW49644  12.195  12.547  12.778
49271SOL    HW149645  12.135  12.480  12.743
49271SOL    HW249646  12.145  12.589  12.848
49272SOL     OW49647   9.479  10.322   3.192
49272SOL    HW149648   9.426  10.400   3.176
49272SOL    HW249649   9.490  10.319   3.287
49273SOL     OW49650  14.516   9.719   1.139
49273SOL    HW149651  14.447   9.725   1.206
49273SOL    HW249652  14.589   9.677   1.185
49274SOL     OW49653   9.738  11.251   0.130
49274SOL    HW149654   9.711  11.339   0.102
49274SOL    HW249655   9.791  11.218   0.058
49275SOL     OW49656   1.196   2.533  11.061
49275SOL    HW149657   1.252   2.540  11.138
49275SOL    HW249658   1.256   2.511  10.990
49276SOL     OW49659   1.500   2.080  10.850
49276SOL    HW149660   1.424   2.096  10.795
49276SOL    HW249661   1.466   2.078  10.939
49277SOL     OW49662   2.954   6.311   2.843
49277SOL    HW149663   2.905   6.300   2.761
49277SOL    HW249664   2.926   6.395   2.877
49278SOL     OW49665   0.319   3.079   3.292
49278SOL    HW149666   0.317   3.163   3.246
49278SOL    HW249667   0.233   3.073   3.334
49279SOL     OW49668   0.958   6.277  12.052
49279SOL    HW149669   0.985   6.298  12.141
49279SOL    HW249670   1.039   6.263  12.004
49280SOL     OW49671  10.832   8.295   3.961
49280SOL    HW149672  10.747   8.331   3.933
49280SOL    HW249673  10.842   8.325   4.051
49281SOL     OW49674   8.828   4.553   4.337
49281SOL    HW149675   8.739   4.588   4.331
49281SOL    HW249676   8.881   4.627   4.368
49282SOL     OW49677  10.479  13.157   4.578
49282SOL    HW149678  10.572  13.155   4.556
49282SOL    HW249679  10.435  13.174   4.495
49283SOL     OW49680   2.664  11.783   6.310
49283SOL    HW149681   2.615  11.819   6.384
49283SOL    HW249682   2.754  11.776   6.342
49284SOL     OW49683   3.652   0.576   1.191
49284SOL    HW149684   3.740   0.578   1.154
49284SOL    HW249685   3.650   0.647   1.255
49285SOL     OW49686  13.287   5.719  12.565
49285SOL    HW149687  13.354   5.761  12.511
49285SOL    HW249688  13.321   5.632  12.584
49286SOL     OW49689  10.101   2.926   0.447
49286SOL    HW149690  10.134   2.900   0.360
49286SOL    HW249691  10.164   2.991   0.478
49287SOL     OW49692   5.320   1.931   6.889
49287SOL    HW149693   5.352   2.004   6.942
49287SOL    HW249694   5.331   1.961   6.798
49288SOL     OW49695   9.974   7.033   1.842
49288SOL    HW149696  10.004   6.956   1.891
49288SOL    HW249697   9.880   7.038   1.861
49289SOL     OW49698  10.610   9.774   6.692
49289SOL    HW149699  10.589   9.865   6.714
49289SOL    HW249700  10.651   9.740   6.772
49290SOL     OW49701   8.200   2.177   4.946
49290SOL    HW149702   8.192   2.270   4.971
49290SOL    HW249703   8.294   2.160   4.947
49291SOL     OW49704   3.391   9.172   3.088
49291SOL    HW149705   3.473   9.136   3.121
49291SOL    HW249706   3.338   9.189   3.166
49292SOL     OW49707   9.036   6.519   7.309
49292SOL    HW149708   9.107   6.460   7.285
49292SOL    HW249709   9.010   6.491   7.397
49293SOL     OW49710  13.359   8.521   2.182
49293SOL    HW149711  13.415   8.540   2.258
49293SOL    HW249712  13.289   8.466   2.218
49294SOL     OW49713   6.395   4.582  13.640
49294SOL    HW149714   6.385   4.644  13.568
49294SOL    HW249715   6.306   4.559  13.665
49295SOL     OW49716   2.638  13.936  13.373
49295SOL    HW149717   2.654  13.899  13.287
49295SOL    HW249718   2.709  14.000  13.385
49296SOL     OW49719   1.240   4.867  11.390
49296SOL    HW149720   1.268   4.914  11.312
49296SOL    HW249721   1.320   4.829  11.426
49297SOL     OW49722   0.706  11.018  13.998
49297SOL    HW149723   0.791  10.978  13.981
49297SOL    HW249724   0.707  11.036  14.092
49298SOL     OW49725  11.133   4.328  14.482
49298SOL    HW149726  11.105   4.238  14.466
49298SOL    HW249727  11.131   4.370  14.396
49299SOL     OW49728  14.155   7.417   1.948
49299SOL    HW149729  14.234   7.369   1.973
49299SOL    HW249730  14.186   7.489   1.894
49300SOL     OW49731  14.322   3.293   4.241
49300SOL    HW149732  14.271   3.305   4.161
49300SOL    HW249733  14.366   3.209   4.229
49301SOL     OW49734  14.508   3.266  14.470
49301SOL    HW149735  14.525   3.251  14.377
49301SOL    HW249736  14.586   3.235  14.515
49302SOL     OW49737  10.714  11.070  12.467
49302SOL    HW149738  10.659  11.000  12.433
49302SOL    HW249739  10.789  11.025  12.506
49303SOL     OW49740   9.239   8.223   1.761
49303SOL    HW149741   9.224   8.304   1.712
49303SOL    HW249742   9.329   8.197   1.738
49304SOL     OW49743   4.010  12.660   1.529
49304SOL    HW149744   3.949  12.730   1.508
49304SOL    HW249745   4.075  12.663   1.459
49305SOL     OW49746   9.666   2.890   5.796
49305SOL    HW149747   9.610   2.880   5.719
49305SOL    HW249748   9.626   2.962   5.845
49306SOL     OW49749   6.910  13.061  14.651
49306SOL    HW149750   6.870  13.130  14.598
49306SOL    HW249751   6.968  13.106  14.711
49307SOL     OW49752   7.096   8.493   6.587
49307SOL    HW149753   7.037   8.418   6.575
49307SOL    HW249754   7.063   8.559   6.525
49308SOL     OW49755   8.872   7.207   1.727
49308SOL    HW149756   8.921   7.265   1.668
49308SOL    HW249757   8.816   7.265   1.777
49309SOL     OW49758   8.788   0.649   8.537
49309SOL    HW149759   8.827   0.688   8.615
49309SOL    HW249760   8.859   0.598   8.498
49310SOL     OW49761  12.158   4.217   8.823
49310SOL    HW149762  12.244   4.205   8.784
49310SOL    HW249763  12.171   4.200   8.916
49311SOL     OW49764   1.177   6.351   9.500
49311SOL    HW149765   1.234   6.372   9.427
49311SOL    HW249766   1.109   6.296   9.463
49312SOL     OW49767   3.057   4.276  12.010
49312SOL    HW149768   3.070   4.186  12.040
49312SOL    HW249769   3.025   4.323  12.087
49313SOL     OW49770   8.555   1.643  12.648
49313SOL    HW149771   8.515   1.641  12.561
49313SOL    HW249772   8.537   1.731  12.681
49314SOL     OW49773  14.624  14.572  14.135
49314SOL    HW149774  14.698  14.610  14.184
49314SOL    HW249775  14.657  14.566  14.045
49315SOL     OW49776  10.922   2.102   9.642
49315SOL    HW149777  10.957   2.127   9.557
49315SOL    HW249778  10.873   2.179   9.671
49316SOL     OW49779   7.227   0.626   9.983
49316SOL    HW149780   7.237   0.597  10.073
49316SOL    HW249781   7.311   0.666   9.961
49317SOL     OW49782  10.665  13.933   6.659
49317SOL    HW149783  10.697  13.850   6.625
49317SOL    HW249784  10.576  13.914   6.690
49318SOL     OW49785   1.557  13.284   6.443
49318SOL    HW149786   1.568  13.195   6.410
49318SOL    HW249787   1.476  13.281   6.495
49319SOL     OW49788   2.657  13.608   2.991
49319SOL    HW149789   2.731  13.550   2.975
49319SOL    HW249790   2.661  13.672   2.919
49320SOL     OW49791   3.441   7.181   6.708
49320SOL    HW149792   3.525   7.166   6.664
49320SOL    HW249793   3.457   7.157   6.799
49321SOL     OW49794   7.217   8.084  11.153
49321SOL    HW149795   7.294   8.093  11.209
49321SOL    HW249796   7.194   7.991  11.157
49322SOL     OW49797  14.595   2.832   7.685
49322SOL    HW149798  14.558   2.905   7.635
49322SOL    HW249799  14.669   2.870   7.732
49323SOL     OW49800   8.313   2.129   0.518
49323SOL    HW149801   8.256   2.125   0.594
49323SOL    HW249802   8.310   2.041   0.480
49324SOL     OW49803   2.292   1.478   0.433
49324SOL    HW149804   2.279   1.391   0.396
49324SOL    HW249805   2.240   1.536   0.378
49325SOL     OW49806  10.342   3.323   7.644
49325SOL    HW149807  10.314   3.232   7.639
49325SOL    HW249808  10.328   3.348   7.736
49326SOL     OW49809   4.128   6.219  11.110
49326SOL    HW149810   4.088   6.306  11.108
49326SOL    HW249811   4.110   6.181  11.024
49327SOL     OW49812   4.028   3.131  10.847
49327SOL    HW149813   4.086   3.202  10.874
49327SOL    HW249814   4.079   3.051  10.860
49328SOL     OW49815   9.724   6.248   9.120
49328SOL    HW149816   9.727   6.311   9.192
49328SOL    HW249817   9.780   6.287   9.052
49329SOL     OW49818  12.142   0.122   5.810
49329SOL    HW149819  12.099   0.077   5.737
49329SOL    HW249820  12.154   0.212   5.779
49330SOL     OW49821  12.645   1.340   0.927
49330SOL    HW149822  12.737   1.359   0.942
49330SOL    HW249823  12.603   1.352   1.012
49331SOL     OW49824  10.367   8.082  12.092
49331SOL    HW149825  10.427   8.041  12.030
49331SOL    HW249826  10.321   8.148  12.040
49332SOL     OW49827   0.205   4.487  10.993
49332SOL    HW149828   0.206   4.454  11.083
49332SOL    HW249829   0.116   4.518  10.980
49333SOL     OW49830   5.269   6.212   2.741
49333SOL    HW149831   5.262   6.136   2.798
49333SOL    HW249832   5.279   6.176   2.653
49334SOL     OW49833   5.139   0.312  14.348
49334SOL    HW149834   5.168   0.402  14.334
49334SOL    HW249835   5.215   0.258  14.325
49335SOL     OW49836   9.511   6.536   6.731
49335SOL    HW149837   9.481   6.548   6.821
49335SOL    HW249838   9.606   6.523   6.739
49336SOL     OW49839   6.800   1.270   4.887
49336SOL    HW149840   6.886   1.230   4.878
49336SOL    HW249841   6.750   1.207   4.939
49337SOL     OW49842  14.156   5.698  12.639
49337SOL    HW149843  14.187   5.627  12.582
49337SOL    HW249844  14.236   5.746  12.661
49338SOL     OW49845   9.132   5.494   6.108
49338SOL    HW149846   9.202   5.557   6.128
49338SOL    HW249847   9.087   5.482   6.191
49339SOL     OW49848   4.363   3.225  11.506
49339SOL    HW149849   4.432   3.247  11.442
49339SOL    HW249850   4.410   3.183  11.578
49340SOL     OW49851   4.351  12.206   8.564
49340SOL    HW149852   4.384  12.251   8.642
49340SOL    HW249853   4.319  12.276   8.508
49341SOL     OW49854   8.399   0.942   9.044
49341SOL    HW149855   8.477   0.994   9.025
49341SOL    HW249856   8.390   0.885   8.969
49342SOL     OW49857   4.258   2.927   0.405
49342SOL    HW149858   4.178   2.896   0.447
49342SOL    HW249859   4.322   2.932   0.476
49343SOL     OW49860   1.216   6.943  13.482
49343SOL    HW149861   1.274   6.943  13.406
49343SOL    HW249862   1.270   6.908  13.553
49344SOL     OW49863   2.888   3.906  10.767
49344SOL    HW149864   2.969   3.893  10.817
49344SOL    HW249865   2.877   4.001  10.764
49345SOL     OW49866   4.802   6.526   4.144
49345SOL    HW149867   4.743   6.548   4.072
49345SOL    HW249868   4.889   6.543   4.108
49346SOL     OW49869  13.719   8.841   3.949
49346SOL    HW149870  13.701   8.859   3.857
49346SOL    HW249871  13.696   8.749   3.961
49347SOL     OW49872   0.978  10.359  12.014
49347SOL    HW149873   0.960  10.325  12.101
49347SOL    HW249874   0.900  10.408  11.990
49348SOL     OW49875   1.087  14.791  12.686
49348SOL    HW149876   1.008  14.812  12.637
49348SOL    HW249877   1.156  14.842  12.644
49349SOL     OW49878   6.509   6.526  14.278
49349SOL    HW149879   6.550   6.607  14.309
49349SOL    HW249880   6.478   6.547  14.190
49350SOL     OW49881   5.333  11.301   6.861
49350SOL    HW149882   5.254  11.349   6.835
49350SOL    HW249883   5.405  11.363   6.846
49351SOL     OW49884  13.592   4.443   6.122
49351SOL    HW149885  13.521   4.443   6.186
49351SOL    HW249886  13.649   4.370   6.148
49352SOL     OW49887   1.699   8.452   3.739
49352SOL    HW149888   1.635   8.414   3.799
49352SOL    HW249889   1.745   8.377   3.702
49353SOL     OW49890   1.940   7.644   8.634
49353SOL    HW149891   1.945   7.577   8.703
49353SOL    HW249892   1.965   7.725   8.679
49354SOL     OW49893   3.167   4.118   5.802
49354SOL    HW149894   3.236   4.058   5.774
49354SOL    HW249895   3.185   4.133   5.895
49355SOL     OW49896  13.603   0.661  12.732
49355SOL    HW149897  13.670   0.725  12.709
49355SOL    HW249898  13.634   0.579  12.692
49356SOL     OW49899   8.447  14.380  11.077
49356SOL    HW149900   8.394  14.453  11.046
49356SOL    HW249901   8.505  14.419  11.142
49357SOL     OW49902   6.610  12.766  14.363
49357SOL    HW149903   6.690  12.719  14.340
49357SOL    HW249904   6.638  12.832  14.426
49358SOL     OW49905  14.409   9.297   3.669
49358SOL    HW149906  14.475   9.255   3.614
49358SOL    HW249907  14.424   9.391   3.658
49359SOL     OW49908  11.108   4.214   2.248
49359SOL    HW149909  11.160   4.181   2.321
49359SOL    HW249910  11.017   4.197   2.274
49360SOL     OW49911   8.863   0.926   1.709
49360SOL    HW149912   8.919   0.998   1.682
49360SOL    HW249913   8.860   0.933   1.805
49361SOL     OW49914   0.481   1.816  13.672
49361SOL    HW149915   0.454   1.790  13.760
49361SOL    HW249916   0.438   1.901  13.658
49362SOL     OW49917  12.214  10.141   5.459
49362SOL    HW149918  12.148  10.200   5.423
49362SOL    HW249919  12.251  10.096   5.383
49363SOL     OW49920   9.406   4.753  12.417
49363SOL    HW149921   9.326   4.710  12.386
49363SOL    HW249922   9.473   4.684  12.413
49364SOL     OW49923  14.251   4.983   3.634
49364SOL    HW149924  14.221   5.000   3.545
49364SOL    HW249925  14.206   5.049   3.688
49365SOL     OW49926  10.103   8.060  11.851
49365SOL    HW149927  10.049   8.128  11.891
49365SOL    HW249928  10.068   7.978  11.885
49366SOL     OW49929   9.298   1.717  14.858
49366SOL    HW149930   9.375   1.670   0.017
49366SOL    HW249931   9.236   1.649  14.834
49367SOL     OW49932   8.271   0.570   3.306
49367SOL    HW149933   8.234   0.652   3.272
49367SOL    HW249934   8.365   0.587   3.311
49368SOL     OW49935   8.602   4.747   2.170
49368SOL    HW149936   8.615   4.842   2.177
49368SOL    HW249937   8.515   4.739   2.131
49369SOL     OW49938   1.259   3.351  10.370
49369SOL    HW149939   1.294   3.439  10.383
49369SOL    HW249940   1.310   3.315  10.297
49370SOL     OW49941  14.447   8.547   0.773
49370SOL    HW149942  14.533   8.511   0.796
49370SOL    HW249943  14.466   8.634   0.739
49371SOL     OW49944   1.848   5.201   8.256
49371SOL    HW149945   1.901   5.142   8.309
49371SOL    HW249946   1.758   5.173   8.272
49372SOL     OW49947  10.424   6.522  10.231
49372SOL    HW149948  10.465   6.576  10.298
49372SOL    HW249949  10.497   6.492  10.176
49373SOL     OW49950   0.276   5.310   3.947
49373SOL    HW149951   0.333   5.307   4.025
49373SOL    HW249952   0.294   5.228   3.902
49374SOL     OW49953   1.239   1.333   1.385
49374SOL    HW149954   1.292   1.352   1.308
49374SOL    HW249955   1.196   1.250   1.365
49375SOL     OW49956  14.778  12.730   7.884
49375SOL    HW149957  14.720  12.701   7.955
49375SOL    HW249958  14.767  12.825   7.881
49376SOL     OW49959   2.286   5.600  12.427
49376SOL    HW149960   2.290   5.655  12.506
49376SOL    HW249961   2.372   5.559  12.422
49377SOL     OW49962  10.179   0.001  14.057
49377SOL    HW149963  10.121  14.822  14.001
49377SOL    HW249964  10.145  14.860  14.146
49378SOL     OW49965  13.411   6.644  11.908
49378SOL    HW149966  13.362   6.690  11.841
49378SOL    HW249967  13.428   6.709  11.976
49379SOL     OW49968  10.979   5.057  14.479
49379SOL    HW149969  10.968   4.967  14.448
49379SOL    HW249970  10.954   5.111  14.404
49380SOL     OW49971   7.856  11.663  13.327
49380SOL    HW149972   7.788  11.652  13.260
49380SOL    HW249973   7.838  11.748  13.365
49381SOL     OW49974   7.664  11.788   8.172
49381SOL    HW149975   7.668  11.858   8.237
49381SOL    HW249976   7.630  11.712   8.219
49382SOL     OW49977   6.371  13.972  12.442
49382SOL    HW149978   6.354  13.941  12.352
49382SOL    HW249979   6.314  13.917  12.496
49383SOL     OW49980   4.303   4.967  10.330
49383SOL    HW149981   4.261   4.907  10.268
49383SOL    HW249982   4.394   4.938  10.334
49384SOL     OW49983  12.614  12.669   9.381
49384SOL    HW149984  12.532  12.625   9.361
49384SOL    HW249985  12.620  12.668   9.477
49385SOL     OW49986   0.428   0.516   4.396
49385SOL    HW149987   0.346   0.476   4.426
49385SOL    HW249988   0.410   0.610   4.395
49386SOL     OW49989   8.093  14.232   4.897
49386SOL    HW149990   8.165  14.266   4.844
49386SOL    HW249991   8.113  14.261   4.986
49387SOL     OW49992   6.025   3.643  14.460
49387SOL    HW149993   6.071   3.710  14.409
49387SOL    HW249994   5.968   3.692  14.520
49388SOL     OW49995   6.892   5.172  13.050
49388SOL    HW149996   6.836   5.200  12.979
49388SOL    HW249997   6.971   5.225  13.041
49389SOL     OW49998   5.701   5.683   8.288
49389SOL    HW149999   5.691   5.688   8.383
49389SOL    HW250000   5.647   5.755   8.255
49390SOL     OW50001   6.185   0.987   9.353
49390SOL    HW150002   6.154   0.998   9.443
49390SOL    HW250003   6.146   0.904   9.325
49391SOL     OW50004   7.120   2.085   7.746
49391SOL    HW150005   7.206   2.111   7.712
49391SOL    HW250006   7.102   2.001   7.702
49392SOL     OW50007   9.741   8.021  13.360
49392SOL    HW150008   9.755   8.043  13.268
49392SOL    HW250009   9.653   7.983  13.361
49393SOL     OW50010   6.860   9.047  12.879
49393SOL    HW150011   6.905   8.973  12.838
49393SOL    HW250012   6.803   9.082  12.811
49394SOL     OW50013   8.359   2.216   0.947
49394SOL    HW150014   8.356   2.198   0.853
49394SOL    HW250015   8.278   2.265   0.964
49395SOL     OW50016  12.720  14.215   2.823
49395SOL    HW150017  12.749  14.137   2.776
49395SOL    HW250018  12.660  14.258   2.761
49396SOL     OW50019   6.729  12.055   7.252
49396SOL    HW150020   6.635  12.074   7.248
49396SOL    HW250021   6.740  11.975   7.202
49397SOL     OW50022   2.134   2.897  14.358
49397SOL    HW150023   2.124   2.966  14.424
49397SOL    HW250024   2.141   2.816  14.409
49398SOL     OW50025   9.512   9.099   2.219
49398SOL    HW150026   9.521   9.173   2.160
49398SOL    HW250027   9.489   9.026   2.162
49399SOL     OW50028   8.482  10.261   3.558
49399SOL    HW150029   8.428  10.183   3.545
49399SOL    HW250030   8.523  10.248   3.644
49400SOL     OW50031  13.984   8.624  10.697
49400SOL    HW150032  13.936   8.704  10.718
49400SOL    HW250033  14.022   8.640  10.610
49401SOL     OW50034   7.101   8.121  10.188
49401SOL    HW150035   7.194   8.123  10.211
49401SOL    HW250036   7.101   8.115  10.092
49402SOL     OW50037  11.305   2.953  10.456
49402SOL    HW150038  11.301   2.907  10.540
49402SOL    HW250039  11.382   3.010  10.464
49403SOL     OW50040   5.654   4.449  10.726
49403SOL    HW150041   5.742   4.437  10.763
49403SOL    HW250042   5.661   4.416  10.636
49404SOL     OW50043  12.699   5.403   9.529
49404SOL    HW150044  12.694   5.313   9.561
49404SOL    HW250045  12.608   5.426   9.510
49405SOL     OW50046   4.847   8.400  10.929
49405SOL    HW150047   4.896   8.346  10.866
49405SOL    HW250048   4.783   8.447  10.875
49406SOL     OW50049   7.183  10.098   7.883
49406SOL    HW150050   7.155  10.032   7.947
49406SOL    HW250051   7.161  10.182   7.924
49407SOL     OW50052   1.184   6.788   1.607
49407SOL    HW150053   1.122   6.800   1.535
49407SOL    HW250054   1.269   6.778   1.564
49408SOL     OW50055   5.358   3.143   9.241
49408SOL    HW150056   5.369   3.086   9.317
49408SOL    HW250057   5.273   3.186   9.255
49409SOL     OW50058  14.249  12.362   1.813
49409SOL    HW150059  14.164  12.371   1.771
49409SOL    HW250060  14.312  12.359   1.740
49410SOL     OW50061   1.152   7.212   6.491
49410SOL    HW150062   1.239   7.222   6.454
49410SOL    HW250063   1.138   7.117   6.493
49411SOL     OW50064   0.283   0.322   2.556
49411SOL    HW150065   0.233   0.371   2.621
49411SOL    HW250066   0.217   0.289   2.494
49412SOL     OW50067  10.690  11.232   7.972
49412SOL    HW150068  10.776  11.193   7.952
49412SOL    HW250069  10.668  11.197   8.059
49413SOL     OW50070   9.035   3.941   4.187
49413SOL    HW150071   9.019   3.993   4.108
49413SOL    HW250072   8.957   3.888   4.197
49414SOL     OW50073  12.307   8.269  10.632
49414SOL    HW150074  12.401   8.290  10.638
49414SOL    HW250075  12.304   8.190  10.577
49415SOL     OW50076   0.133   4.491   0.790
49415SOL    HW150077   0.110   4.507   0.881
49415SOL    HW250078   0.066   4.537   0.739
49416SOL     OW50079   8.627   3.364  14.007
49416SOL    HW150080   8.698   3.301  13.997
49416SOL    HW250081   8.609   3.366  14.101
49417SOL     OW50082   8.973   6.458   8.497
49417SOL    HW150083   8.969   6.492   8.408
49417SOL    HW250084   8.947   6.532   8.552
49418SOL     OW50085   4.270  10.605  11.022
49418SOL    HW150086   4.319  10.570  11.096
49418SOL    HW250087   4.336  10.650  10.969
49419SOL     OW50088   8.307   5.381   1.601
49419SOL    HW150089   8.249   5.434   1.546
49419SOL    HW250090   8.252   5.352   1.674
49420SOL     OW50091   1.721   4.039   4.529
49420SOL    HW150092   1.698   4.110   4.469
49420SOL    HW250093   1.737   4.083   4.612
49421SOL     OW50094  11.070   7.601   8.441
49421SOL    HW150095  10.999   7.664   8.453
49421SOL    HW250096  11.148   7.654   8.429
49422SOL     OW50097   7.766   1.354   2.301
49422SOL    HW150098   7.794   1.263   2.302
49422SOL    HW250099   7.843   1.403   2.272
49423SOL     OW50100   0.662   4.804   0.990
49423SOL    HW150101   0.617   4.880   0.954
49423SOL    HW250102   0.725   4.841   1.052
49424SOL     OW50103   8.339   4.980   3.087
49424SOL    HW150104   8.340   5.054   3.026
49424SOL    HW250105   8.384   5.013   3.165
49425SOL     OW50106   4.067  11.042   6.773
49425SOL    HW150107   4.055  11.136   6.784
49425SOL    HW250108   4.070  11.007   6.862
49426SOL     OW50109  12.927   6.910   2.353
49426SOL    HW150110  12.970   6.937   2.272
49426SOL    HW250111  12.886   6.990   2.386
49427SOL     OW50112  14.275   5.216   7.561
49427SOL    HW150113  14.324   5.288   7.599
49427SOL    HW250114  14.208   5.257   7.507
49428SOL     OW50115   2.839  13.609  10.445
49428SOL    HW150116   2.841  13.629  10.352
49428SOL    HW250117   2.786  13.679  10.483
49429SOL     OW50118  14.715   7.889  12.396
49429SOL    HW150119  14.726   7.924  12.485
49429SOL    HW250120  14.801   7.898  12.356
49430SOL     OW50121   2.914  14.745  14.809
49430SOL    HW150122   2.931  14.811  14.741
49430SOL    HW250123   2.997  14.698  14.817
49431SOL     OW50124   1.003   7.152   1.939
49431SOL    HW150125   1.094   7.177   1.955
49431SOL    HW250126   1.005   7.057   1.932
49432SOL     OW50127  11.650   5.398   0.108
49432SOL    HW150128  11.744   5.379   0.112
49432SOL    HW250129  11.644   5.492   0.123
49433SOL     OW50130  13.131   2.652  10.418
49433SOL    HW150131  13.172   2.608  10.344
49433SOL    HW250132  13.158   2.743  10.410
49434SOL     OW50133   1.484   6.414   5.812
49434SOL    HW150134   1.407   6.407   5.754
49434SOL    HW250135   1.530   6.331   5.801
49435SOL     OW50136   3.767  14.793   4.670
49435SOL    HW150137   3.759  14.745   4.752
49435SOL    HW250138   3.846  14.845   4.680
49436SOL     OW50139  14.149   3.684  14.196
49436SOL    HW150140  14.146   3.654  14.105
49436SOL    HW250141  14.211   3.757  14.196
49437SOL     OW50142   6.912   4.383   7.167
49437SOL    HW150143   6.927   4.327   7.243
49437SOL    HW250144   6.955   4.337   7.095
49438SOL     OW50145  11.005  13.555   3.247
49438SOL    HW150146  11.083  13.605   3.272
49438SOL    HW250147  11.034  13.501   3.174
49439SOL     OW50148  14.787   7.409   1.487
49439SOL    HW150149  14.799   7.345   1.557
49439SOL    HW250150  14.700   7.388   1.451
49440SOL     OW50151   6.886  10.054   7.405
49440SOL    HW150152   6.862  10.046   7.497
49440SOL    HW250153   6.968  10.004   7.397
49441SOL     OW50154   0.238   6.286  13.811
49441SOL    HW150155   0.171   6.351  13.834
49441SOL    HW250156   0.298   6.287  13.886
49442SOL     OW50157   2.397   3.069   1.004
49442SOL    HW150158   2.345   3.135   0.959
49442SOL    HW250159   2.472   3.053   0.946
49443SOL     OW50160  14.626   5.438  10.914
49443SOL    HW150161  14.640   5.497  10.988
49443SOL    HW250162  14.674   5.478  10.842
49444SOL     OW50163  14.051  10.598   1.558
49444SOL    HW150164  14.138  10.612   1.596
49444SOL    HW250165  13.999  10.673   1.587
49445SOL     OW50166   2.481   6.749  14.223
49445SOL    HW150167   2.523   6.818  14.275
49445SOL    HW250168   2.520   6.668  14.256
49446SOL     OW50169   2.189   6.772   6.532
49446SOL    HW150170   2.120   6.711   6.558
49446SOL    HW250171   2.254   6.718   6.489
49447SOL     OW50172   6.390   1.658  14.146
49447SOL    HW150173   6.456   1.589  14.158
49447SOL    HW250174   6.411   1.723  14.214
49448SOL     OW50175  10.602  12.195   4.170
49448SOL    HW150176  10.558  12.197   4.255
49448SOL    HW250177  10.607  12.102   4.148
49449SOL     OW50178   5.511  13.131   8.996
49449SOL    HW150179   5.537  13.209   9.045
49449SOL    HW250180   5.501  13.063   9.062
49450SOL     OW50181   2.201   5.698   8.785
49450SOL    HW150182   2.116   5.669   8.818
49450SOL    HW250183   2.265   5.644   8.832
49451SOL     OW50184   5.035  13.471   4.261
49451SOL    HW150185   4.999  13.557   4.283
49451SOL    HW250186   5.064  13.479   4.170
49452SOL     OW50187   2.072   8.795   9.549
49452SOL    HW150188   2.068   8.700   9.563
49452SOL    HW250189   1.993   8.815   9.498
49453SOL     OW50190   1.848   1.896   0.278
49453SOL    HW150191   1.925   1.925   0.328
49453SOL    HW250192   1.881   1.884   0.189
49454SOL     OW50193   8.300   5.555   3.079
49454SOL    HW150194   8.234   5.610   3.038
49454SOL    HW250195   8.384   5.589   3.048
49455SOL     OW50196   7.677   9.853   6.215
49455SOL    HW150197   7.631   9.900   6.284
49455SOL    HW250198   7.762   9.897   6.208
49456SOL     OW50199   5.457   7.568   3.706
49456SOL    HW150200   5.446   7.481   3.744
49456SOL    HW250201   5.429   7.557   3.615
49457SOL     OW50202   1.776  12.135   5.752
49457SOL    HW150203   1.769  12.060   5.812
49457SOL    HW250204   1.693  12.137   5.706
49458SOL     OW50205   7.295  13.257   2.619
49458SOL    HW150206   7.245  13.176   2.627
49458SOL    HW250207   7.249  13.306   2.550
49459SOL     OW50208   1.710  13.999   4.759
49459SOL    HW150209   1.714  13.904   4.771
49459SOL    HW250210   1.617  14.021   4.767
49460SOL     OW50211   8.923   0.598  11.533
49460SOL    HW150212   8.979   0.546  11.591
49460SOL    HW250213   8.928   0.687  11.569
49461SOL     OW50214   5.856  12.294  13.805
49461SOL    HW150215   5.924  12.227  13.802
49461SOL    HW250216   5.799  12.266  13.877
49462SOL     OW50217  13.175  13.673   0.684
49462SOL    HW150218  13.222  13.743   0.728
49462SOL    HW250219  13.181  13.694   0.591
49463SOL     OW50220   7.008  14.802   3.820
49463SOL    HW150221   6.969  14.759   3.744
49463SOL    HW250222   7.102  14.802   3.802
49464SOL     OW50223   1.699   7.514   6.253
49464SOL    HW150224   1.661   7.577   6.191
49464SOL    HW250225   1.690   7.556   6.338
49465SOL     OW50226  10.677  14.196   4.583
49465SOL    HW150227  10.745  14.222   4.521
49465SOL    HW250228  10.625  14.131   4.535
49466SOL     OW50229   2.517   3.587   6.716
49466SOL    HW150230   2.605   3.622   6.708
49466SOL    HW250231   2.511   3.558   6.807
49467SOL     OW50232  14.176   9.301   6.669
49467SOL    HW150233  14.089   9.316   6.707
49467SOL    HW250234  14.216   9.235   6.726
49468SOL     OW50235   9.422  14.809   4.217
49468SOL    HW150236   9.436  14.842   4.305
49468SOL    HW250237   9.327  14.800   4.210
49469SOL     OW50238   7.078   5.959   6.849
49469SOL    HW150239   7.060   5.876   6.894
49469SOL    HW250240   7.084   6.023   6.920
49470SOL     OW50241   1.502  10.251   1.042
49470SOL    HW150242   1.423  10.279   1.088
49470SOL    HW250243   1.533  10.330   0.997
49471SOL     OW50244  12.178  10.064   4.314
49471SOL    HW150245  12.202  10.026   4.398
49471SOL    HW250246  12.258  10.105   4.282
49472SOL     OW50247   7.030   4.657   8.228
49472SOL    HW150248   7.010   4.621   8.141
49472SOL    HW250249   7.080   4.736   8.210
49473SOL     OW50250   0.080  11.021   9.997
49473SOL    HW150251   0.160  11.049   9.954
49473SOL    HW250252   0.026  10.984   9.927
49474SOL     OW50253  10.081  11.102  12.140
49474SOL    HW150254  10.016  11.169  12.163
49474SOL    HW250255  10.147  11.150  12.089
49475SOL     OW50256  12.475   0.099   9.330
49475SOL    HW150257  12.419   0.077   9.404
49475SOL    HW250258  12.560   0.117   9.369
49476SOL     OW50259   7.989   4.382  11.813
49476SOL    HW150260   8.059   4.345  11.868
49476SOL    HW250261   7.971   4.313  11.749
49477SOL     OW50262  11.229   1.060  13.824
49477SOL    HW150263  11.175   0.986  13.797
49477SOL    HW250264  11.202   1.132  13.766
49478SOL     OW50265   5.811   1.407   0.585
49478SOL    HW150266   5.805   1.327   0.637
49478SOL    HW250267   5.903   1.433   0.591
49479SOL     OW50268  14.483   2.240   4.839
49479SOL    HW150269  14.535   2.317   4.817
49479SOL    HW250270  14.410   2.242   4.777
49480SOL     OW50271   7.604  11.145   9.179
49480SOL    HW150272   7.533  11.129   9.117
49480SOL    HW250273   7.626  11.058   9.214
49481SOL     OW50274   0.202  13.843   7.948
49481SOL    HW150275   0.170  13.859   8.037
49481SOL    HW250276   0.273  13.908   7.936
49482SOL     OW50277   7.007   1.195  12.485
49482SOL    HW150278   7.079   1.147  12.527
49482SOL    HW250279   6.928   1.166  12.532
49483SOL     OW50280   2.642  11.816   1.181
49483SOL    HW150281   2.700  11.804   1.256
49483SOL    HW250282   2.562  11.854   1.218
49484SOL     OW50283  11.440   6.934   9.655
49484SOL    HW150284  11.431   7.002   9.589
49484SOL    HW250285  11.418   6.853   9.610
49485SOL     OW50286   7.727   4.800  13.323
49485SOL    HW150287   7.720   4.806  13.419
49485SOL    HW250288   7.650   4.848  13.291
49486SOL     OW50289   5.239   0.244   2.898
49486SOL    HW150290   5.294   0.268   2.972
49486SOL    HW250291   5.151   0.242   2.933
49487SOL     OW50292  14.076   8.841  11.119
49487SOL    HW150293  14.021   8.809  11.047
49487SOL    HW250294  14.102   8.762  11.166
49488SOL     OW50295   1.740   3.360   3.004
49488SOL    HW150296   1.784   3.366   2.920
49488SOL    HW250297   1.664   3.304   2.987
49489SOL     OW50298   5.299   9.225   0.785
49489SOL    HW150299   5.354   9.251   0.859
49489SOL    HW250300   5.211   9.219   0.821
49490SOL     OW50301  12.308  11.309   2.143
49490SOL    HW150302  12.287  11.341   2.231
49490SOL    HW250303  12.351  11.383   2.100
49491SOL     OW50304   3.165  10.345  10.857
49491SOL    HW150305   3.154  10.343  10.952
49491SOL    HW250306   3.125  10.264  10.826
49492SOL     OW50307   1.898   5.675   9.734
49492SOL    HW150308   1.868   5.586   9.751
49492SOL    HW250309   1.844   5.706   9.661
49493SOL     OW50310   1.409   2.302   2.438
49493SOL    HW150311   1.361   2.221   2.421
49493SOL    HW250312   1.349   2.372   2.412
49494SOL     OW50313   5.782   5.774   6.400
49494SOL    HW150314   5.812   5.823   6.476
49494SOL    HW250315   5.846   5.703   6.391
49495SOL     OW50316   3.933   8.876   0.438
49495SOL    HW150317   4.008   8.819   0.458
49495SOL    HW250318   3.908   8.851   0.349
49496SOL     OW50319   2.697   3.244   9.483
49496SOL    HW150320   2.729   3.243   9.574
49496SOL    HW250321   2.648   3.162   9.474
49497SOL     OW50322   0.652  10.842   5.997
49497SOL    HW150323   0.607  10.904   5.939
49497SOL    HW250324   0.638  10.756   5.957
49498SOL     OW50325   3.731   0.686   0.139
49498SOL    HW150326   3.646   0.696   0.183
49498SOL    HW250327   3.783   0.760   0.171
49499SOL     OW50328   1.566   0.583   4.867
49499SOL    HW150329   1.642   0.529   4.889
49499SOL    HW250330   1.577   0.605   4.775
49500SOL     OW50331   3.738   2.517  13.787
49500SOL    HW150332   3.758   2.593  13.733
49500SOL    HW250333   3.673   2.549  13.850
49501SOL     OW50334   7.911   3.942  13.311
49501SOL    HW150335   7.899   4.013  13.248
49501SOL    HW250336   7.987   3.894  13.279
49502SOL     OW50337   0.984   8.820   7.668
49502SOL    HW150338   0.951   8.745   7.619
49502SOL    HW250339   0.942   8.896   7.627
49503SOL     OW50340   7.944   7.723   9.583
49503SOL    HW150341   8.016   7.782   9.558
49503SOL    HW250342   7.970   7.637   9.548
49504SOL     OW50343   5.303   6.784  14.827
49504SOL    HW150344   5.356   6.826  14.760
49504SOL    HW250345   5.326   6.829   0.036
49505SOL     OW50346   0.592   5.767   9.177
49505SOL    HW150347   0.575   5.816   9.258
49505SOL    HW250348   0.527   5.800   9.115
49506SOL     OW50349  14.254   6.464  14.289
49506SOL    HW150350  14.280   6.519  14.363
49506SOL    HW250351  14.180   6.510  14.250
49507SOL     OW50352  13.853   1.723  13.986
49507SOL    HW150353  13.932   1.761  13.949
49507SOL    HW250354  13.782   1.748  13.926
49508SOL     OW50355  13.533   2.303  11.261
49508SOL    HW150356  13.527   2.312  11.166
49508SOL    HW250357  13.605   2.361  11.286
49509SOL     OW50358   9.711   2.209   7.479
49509SOL    HW150359   9.768   2.263   7.534
49509SOL    HW250360   9.633   2.196   7.532
49510SOL     OW50361   2.924   2.474   3.631
49510SOL    HW150362   2.992   2.474   3.564
49510SOL    HW250363   2.843   2.493   3.583
49511SOL     OW50364   9.723   3.656   3.466
49511SOL    HW150365   9.719   3.601   3.544
49511SOL    HW250366   9.790   3.722   3.487
49512SOL     OW50367   7.195  10.937  14.104
49512SOL    HW150368   7.135  11.010  14.121
49512SOL    HW250369   7.188  10.882  14.182
49513SOL     OW50370  11.896  13.649   5.084
49513SOL    HW150371  11.961  13.673   5.150
49513SOL    HW250372  11.943  13.591   5.024
49514SOL     OW50373   2.402  14.457   9.843
49514SOL    HW150374   2.477  14.511   9.867
49514SOL    HW250375   2.427  14.368   9.868
49515SOL     OW50376   3.354  13.048   5.141
49515SOL    HW150377   3.404  13.087   5.069
49515SOL    HW250378   3.390  12.959   5.148
49516SOL     OW50379   1.227   0.898   8.119
49516SOL    HW150380   1.290   0.953   8.072
49516SOL    HW250381   1.281   0.836   8.168
49517SOL     OW50382  11.656  10.204   5.859
49517SOL    HW150383  11.610  10.169   5.935
49517SOL    HW250384  11.710  10.275   5.893
49518SOL     OW50385  11.045   3.094   6.307
49518SOL    HW150386  11.085   3.152   6.371
49518SOL    HW250387  10.962   3.137   6.284
49519SOL     OW50388  10.659   6.974   8.404
49519SOL    HW150389  10.682   7.059   8.368
49519SOL    HW250390  10.736   6.919   8.387
49520SOL     OW50391  10.340   9.825   8.768
49520SOL    HW150392  10.360   9.843   8.677
49520SOL    HW250393  10.264   9.766   8.765
49521SOL     OW50394   2.877   1.806   3.624
49521SOL    HW150395   2.806   1.866   3.644
49521SOL    HW250396   2.860   1.777   3.534
49522SOL     OW50397   3.340   3.715   4.087
49522SOL    HW150398   3.333   3.804   4.119
49522SOL    HW250399   3.378   3.666   4.159
49523SOL     OW50400   8.084  14.064  12.351
49523SOL    HW150401   7.999  14.054  12.309
49523SOL    HW250402   8.142  14.091  12.280
49524SOL     OW50403   8.639  11.875   1.062
49524SOL    HW150404   8.570  11.810   1.049
49524SOL    HW250405   8.604  11.934   1.130
49525SOL     OW50406   6.437   8.290  12.925
49525SOL    HW150407   6.515   8.269  12.875
49525SOL    HW250408   6.463   8.364  12.980
49526SOL     OW50409   9.812   1.175  11.723
49526SOL    HW150410   9.867   1.241  11.766
49526SOL    HW250411   9.875   1.114  11.684
49527SOL     OW50412  14.566   0.967   9.395
49527SOL    HW150413  14.650   1.014   9.395
49527SOL    HW250414  14.517   1.006   9.323
49528SOL     OW50415  10.814   3.394   2.816
49528SOL    HW150416  10.740   3.367   2.871
49528SOL    HW250417  10.824   3.321   2.754
49529SOL     OW50418   7.591  10.558   0.693
49529SOL    HW150419   7.572  10.471   0.658
49529SOL    HW250420   7.516  10.578   0.750
49530SOL     OW50421   8.582   1.002   2.360
49530SOL    HW150422   8.584   0.965   2.272
49530SOL    HW250423   8.489   1.011   2.380
49531SOL     OW50424   1.546   0.619   2.855
49531SOL    HW150425   1.535   0.714   2.843
49531SOL    HW250426   1.537   0.605   2.949
49532SOL     OW50427  11.039  14.066  14.539
49532SOL    HW150428  11.113  14.057  14.478
49532SOL    HW250429  11.012  13.976  14.556
49533SOL     OW50430   9.801   2.735   1.460
49533SOL    HW150431   9.750   2.798   1.409
49533SOL    HW250432   9.834   2.673   1.395
49534SOL     OW50433   7.733  14.820  14.459
49534SOL    HW150434   7.815  14.864  14.481
49534SOL    HW250435   7.753  14.770  14.380
49535SOL     OW50436  11.097   8.699   9.542
49535SOL    HW150437  11.019   8.727   9.494
49535SOL    HW250438  11.070   8.620   9.588
49536SOL     OW50439   6.110   5.503  14.770
49536SOL    HW150440   6.084   5.591  14.796
49536SOL    HW250441   6.042   5.475  14.708
49537SOL     OW50442  12.160   0.842  10.813
49537SOL    HW150443  12.072   0.875  10.831
49537SOL    HW250444  12.159   0.822  10.719
49538SOL     OW50445   3.808   7.765   8.602
49538SOL    HW150446   3.863   7.688   8.586
49538SOL    HW250447   3.745   7.765   8.530
49539SOL     OW50448   9.657  14.226   5.413
49539SOL    HW150449   9.701  14.141   5.416
49539SOL    HW250450   9.708  14.282   5.472
49540SOL     OW50451   2.149   1.112   3.529
49540SOL    HW150452   2.104   1.054   3.591
49540SOL    HW250453   2.192   1.052   3.468
49541SOL     OW50454   1.530  13.907   7.197
49541SOL    HW150455   1.554  13.987   7.150
49541SOL    HW250456   1.536  13.930   7.289
49542SOL     OW50457   3.023   5.649   7.323
49542SOL    HW150458   3.025   5.597   7.403
49542SOL    HW250459   3.028   5.740   7.353
49543SOL     OW50460   7.132  14.500  11.397
49543SOL    HW150461   7.111  14.530  11.308
49543SOL    HW250462   7.076  14.424  11.411
49544SOL     OW50463   7.983   4.857   2.366
49544SOL    HW150464   7.914   4.915   2.400
49544SOL    HW250465   8.003   4.892   2.279
49545SOL     OW50466   5.433   7.494   1.544
49545SOL    HW150467   5.372   7.523   1.613
49545SOL    HW250468   5.411   7.402   1.530
49546SOL     OW50469   5.932   8.975   5.255
49546SOL    HW150470   6.005   8.915   5.271
49546SOL    HW250471   5.900   8.998   5.343
49547SOL     OW50472   3.158   9.853  13.252
49547SOL    HW150473   3.184   9.929  13.304
49547SOL    HW250474   3.241   9.812  13.227
49548SOL     OW50475   5.313   4.345   4.849
49548SOL    HW150476   5.368   4.400   4.905
49548SOL    HW250477   5.241   4.318   4.906
49549SOL     OW50478  13.139   0.755   0.132
49549SOL    HW150479  13.145   0.708   0.215
49549SOL    HW250480  13.050   0.737   0.100
49550SOL     OW50481   9.714   7.353   6.785
49550SOL    HW150482   9.712   7.415   6.857
49550SOL    HW250483   9.748   7.272   6.823
49551SOL     OW50484   1.186  14.369   2.077
49551SOL    HW150485   1.234  14.437   2.125
49551SOL    HW250486   1.254  14.309   2.046
49552SOL     OW50487   5.946   0.872  14.436
49552SOL    HW150488   5.948   0.945  14.499
49552SOL    HW250489   5.944   0.914  14.350
49553SOL     OW50490   1.936   4.318   9.767
49553SOL    HW150491   1.845   4.341   9.784
49553SOL    HW250492   1.933   4.226   9.742
49554SOL     OW50493  10.943   7.760   0.095
49554SOL    HW150494  10.864   7.790   0.052
49554SOL    HW250495  10.950   7.814   0.174
49555SOL     OW50496   8.797   9.390   4.990
49555SOL    HW150497   8.885   9.378   5.026
49555SOL    HW250498   8.807   9.465   4.930
49556SOL     OW50499   4.692  12.695   3.951
49556SOL    HW150500   4.607  12.654   3.936
49556SOL    HW250501   4.755  12.623   3.940
49557SOL     OW50502  14.316   3.666   1.936
49557SOL    HW150503  14.397   3.655   1.886
49557SOL    HW250504  14.302   3.760   1.939
49558SOL     OW50505  10.820   0.782  10.314
49558SOL    HW150506  10.772   0.860  10.287
49558SOL    HW250507  10.823   0.728  10.235
49559SOL     OW50508   9.565   1.974   2.733
49559SOL    HW150509   9.557   1.934   2.820
49559SOL    HW250510   9.521   2.059   2.741
49560SOL     OW50511  12.875   8.337  14.831
49560SOL    HW150512  12.800   8.395  14.842
49560SOL    HW250513  12.851   8.256   0.004
49561SOL     OW50514   4.515   7.254   0.959
49561SOL    HW150515   4.543   7.346   0.961
49561SOL    HW250516   4.561   7.217   0.883
49562SOL     OW50517   0.418   1.233  14.017
49562SOL    HW150518   0.445   1.151  13.976
49562SOL    HW250519   0.419   1.297  13.945
49563SOL     OW50520  10.490   2.837   9.453
49563SOL    HW150521  10.535   2.797   9.526
49563SOL    HW250522  10.447   2.914   9.490
49564SOL     OW50523   5.478  14.527   4.885
49564SOL    HW150524   5.535  14.570   4.949
49564SOL    HW250525   5.514  14.439   4.875
49565SOL     OW50526   8.208   5.855   4.394
49565SOL    HW150527   8.251   5.834   4.477
49565SOL    HW250528   8.148   5.926   4.416
49566SOL     OW50529   8.640   7.341   7.087
49566SOL    HW150530   8.655   7.436   7.094
49566SOL    HW250531   8.676   7.306   7.169
49567SOL     OW50532   8.515   3.439   4.316
49567SOL    HW150533   8.438   3.394   4.351
49567SOL    HW250534   8.503   3.530   4.341
49568SOL     OW50535  13.105   5.045   6.806
49568SOL    HW150536  13.104   5.139   6.825
49568SOL    HW250537  13.046   5.007   6.871
49569SOL     OW50538   1.521   4.644   3.696
49569SOL    HW150539   1.451   4.631   3.759
49569SOL    HW250540   1.490   4.599   3.617
49570SOL     OW50541   4.572  14.623   5.106
49570SOL    HW150542   4.661  14.650   5.083
49570SOL    HW250543   4.523  14.705   5.113
49571SOL     OW50544   5.585   5.348  12.900
49571SOL    HW150545   5.536   5.323  12.979
49571SOL    HW250546   5.661   5.289  12.900
49572SOL     OW50547  10.184   8.976   8.308
49572SOL    HW150548  10.150   8.979   8.397
49572SOL    HW250549  10.202   9.067   8.286
49573SOL     OW50550  13.390   7.620   9.127
49573SOL    HW150551  13.306   7.593   9.091
49573SOL    HW250552  13.393   7.715   9.114
49574SOL     OW50553  14.189   3.084  10.987
49574SOL    HW150554  14.240   3.019  10.939
49574SOL    HW250555  14.184   3.159  10.928
49575SOL     OW50556  10.538  13.190  13.104
49575SOL    HW150557  10.488  13.198  13.185
49575SOL    HW250558  10.578  13.275  13.092
49576SOL     OW50559   5.007  13.455  12.676
49576SOL    HW150560   5.026  13.373  12.630
49576SOL    HW250561   4.915  13.473  12.654
49577SOL     OW50562   1.615   9.517   8.765
49577SOL    HW150563   1.683   9.462   8.805
49577SOL    HW250564   1.562   9.458   8.713
49578SOL     OW50565   3.620   5.311   8.890
49578SOL    HW150566   3.554   5.250   8.857
49578SOL    HW250567   3.571   5.387   8.921
49579SOL     OW50568  11.342   4.434   3.969
49579SOL    HW150569  11.436   4.434   3.986
49579SOL    HW250570  11.302   4.439   4.056
49580SOL     OW50571   6.675   7.287   1.660
49580SOL    HW150572   6.744   7.301   1.596
49580SOL    HW250573   6.625   7.212   1.627
49581SOL     OW50574  12.282   1.456   2.937
49581SOL    HW150575  12.364   1.502   2.920
49581SOL    HW250576  12.279   1.387   2.871
49582SOL     OW50577  10.267   9.400  13.104
49582SOL    HW150578  10.309   9.382  13.020
49582SOL    HW250579  10.181   9.436  13.081
49583SOL     OW50580   5.254   7.922  11.863
49583SOL    HW150581   5.202   7.877  11.929
49583SOL    HW250582   5.340   7.881  11.868
49584SOL     OW50583   6.715   0.267   8.030
49584SOL    HW150584   6.711   0.337   8.096
49584SOL    HW250585   6.785   0.295   7.970
49585SOL     OW50586   4.672   6.626   9.773
49585SOL    HW150587   4.678   6.602   9.680
49585SOL    HW250588   4.762   6.619   9.805
49586SOL     OW50589  10.895   8.124   9.315
49586SOL    HW150590  10.965   8.063   9.292
49586SOL    HW250591  10.940   8.207   9.333
49587SOL     OW50592   0.138  13.981   2.938
49587SOL    HW150593   0.122  14.040   3.012
49587SOL    HW250594   0.178  13.903   2.978
49588SOL     OW50595   0.245   6.011  11.417
49588SOL    HW150596   0.312   6.043  11.477
49588SOL    HW250597   0.176   6.077  11.420
49589SOL     OW50598   0.380   9.555   6.301
49589SOL    HW150599   0.310   9.589   6.245
49589SOL    HW250600   0.459   9.559   6.247
49590SOL     OW50601   2.283   6.655   9.198
49590SOL    HW150602   2.277   6.732   9.143
49590SOL    HW250603   2.196   6.615   9.193
49591SOL     OW50604   6.949  14.025  13.617
49591SOL    HW150605   6.907  13.946  13.650
49591SOL    HW250606   7.023  14.038  13.677
49592SOL     OW50607   1.042   5.401  13.254
49592SOL    HW150608   1.082   5.431  13.172
49592SOL    HW250609   0.950   5.427  13.246
49593SOL     OW50610   0.148   8.411   7.102
49593SOL    HW150611   0.184   8.406   7.014
49593SOL    HW250612   0.223   8.397   7.160
49594SOL     OW50613  12.202   0.464   5.351
49594SOL    HW150614  12.287   0.501   5.372
49594SOL    HW250615  12.216   0.369   5.352
49595SOL     OW50616   5.128   2.271   2.328
49595SOL    HW150617   5.061   2.208   2.301
49595SOL    HW250618   5.149   2.319   2.248
49596SOL     OW50619   7.903   0.955   1.212
49596SOL    HW150620   7.816   0.950   1.252
49596SOL    HW250621   7.920   1.048   1.202
49597SOL     OW50622   4.494   7.723   9.940
49597SOL    HW150623   4.520   7.639   9.903
49597SOL    HW250624   4.518   7.787   9.873
49598SOL     OW50625   4.160   9.466  14.379
49598SOL    HW150626   4.217   9.391  14.400
49598SOL    HW250627   4.221   9.537  14.358
49599SOL     OW50628  12.601   2.190   3.812
49599SOL    HW150629  12.640   2.269   3.774
49599SOL    HW250630  12.627   2.192   3.904
49600SOL     OW50631   0.056  12.933   3.240
49600SOL    HW150632  14.857  12.908   3.181
49600SOL    HW250633   0.116  12.859   3.237
49601SOL     OW50634  12.671   4.762  14.841
49601SOL    HW150635  12.601   4.738   0.030
49601SOL    HW250636  12.658   4.855  14.825
49602SOL     OW50637   1.921   9.494  14.706
49602SOL    HW150638   2.005   9.454  14.683
49602SOL    HW250639   1.859   9.421  14.705
49603SOL     OW50640  12.936   0.946   0.617
49603SOL    HW150641  12.997   1.018   0.603
49603SOL    HW250642  12.918   0.911   0.530
49604SOL     OW50643  12.051   5.502   7.555
49604SOL    HW150644  12.055   5.500   7.460
49604SOL    HW250645  11.973   5.554   7.575
49605SOL     OW50646   3.150   8.775  12.958
49605SOL    HW150647   3.221   8.795  12.897
49605SOL    HW250648   3.172   8.824  13.037
49606SOL     OW50649  10.662  14.454   3.316
49606SOL    HW150650  10.595  14.416   3.259
49606SOL    HW250651  10.714  14.511   3.259
49607SOL     OW50652  10.970  12.695   4.359
49607SOL    HW150653  10.947  12.612   4.402
49607SOL    HW250654  11.055  12.717   4.396
49608SOL     OW50655  11.410   9.325   4.098
49608SOL    HW150656  11.504   9.321   4.117
49608SOL    HW250657  11.406   9.334   4.003
49609SOL     OW50658   9.113   4.006   4.652
49609SOL    HW150659   9.155   4.082   4.693
49609SOL    HW250660   9.028   4.038   4.622
49610SOL     OW50661   1.650  11.427  12.169
49610SOL    HW150662   1.648  11.359  12.102
49610SOL    HW250663   1.707  11.495  12.133
49611SOL     OW50664   9.494   2.135   2.177
49611SOL    HW150665   9.512   2.207   2.116
49611SOL    HW250666   9.426   2.084   2.134
49612SOL     OW50667   0.377  11.957   7.143
49612SOL    HW150668   0.445  12.025   7.136
49612SOL    HW250669   0.333  11.958   7.058
49613SOL     OW50670   6.488  12.931   1.589
49613SOL    HW150671   6.562  12.873   1.570
49613SOL    HW250672   6.415  12.892   1.542
49614SOL     OW50673  14.326   7.396   6.622
49614SOL    HW150674  14.376   7.325   6.662
49614SOL    HW250675  14.242   7.396   6.668
49615SOL     OW50676  12.722  14.834   3.299
49615SOL    HW150677  12.701   0.017   3.374
49615SOL    HW250678  12.765   0.021   3.237
49616SOL     OW50679  13.100  11.442   4.285
49616SOL    HW150680  13.077  11.420   4.375
49616SOL    HW250681  13.088  11.537   4.279
49617SOL     OW50682  13.435   5.533   1.321
49617SOL    HW150683  13.438   5.610   1.377
49617SOL    HW250684  13.525   5.525   1.286
49618SOL     OW50685   3.586   1.394   8.165
49618SOL    HW150686   3.656   1.438   8.117
49618SOL    HW250687   3.565   1.317   8.113
49619SOL     OW50688   5.832   7.059   6.904
49619SOL    HW150689   5.889   7.036   6.978
49619SOL    HW250690   5.884   7.038   6.827
49620SOL     OW50691   2.613   5.153  13.868
49620SOL    HW150692   2.554   5.180  13.938
49620SOL    HW250693   2.557   5.140  13.792
49621SOL     OW50694   5.839  11.974  13.914
49621SOL    HW150695   5.779  12.043  13.940
49621SOL    HW250696   5.809  11.896  13.961
49622SOL     OW50697   9.451   5.858   4.626
49622SOL    HW150698   9.485   5.898   4.706
49622SOL    HW250699   9.387   5.794   4.656
49623SOL     OW50700   7.829  10.653   4.330
49623SOL    HW150701   7.905  10.648   4.272
49623SOL    HW250702   7.842  10.734   4.379
49624SOL     OW50703  10.861   8.191  12.586
49624SOL    HW150704  10.956   8.178  12.579
49624SOL    HW250705  10.852   8.280  12.620
49625SOL     OW50706   9.531  14.395   0.684
49625SOL    HW150707   9.475  14.318   0.677
49625SOL    HW250708   9.513  14.430   0.772
49626SOL     OW50709  11.767   3.490   4.068
49626SOL    HW150710  11.833   3.461   4.131
49626SOL    HW250711  11.688   3.441   4.092
49627SOL     OW50712  13.574   3.299  12.090
49627SOL    HW150713  13.616   3.299  12.176
49627SOL    HW250714  13.605   3.219  12.048
49628SOL     OW50715   8.886   0.671   3.604
49628SOL    HW150716   8.813   0.644   3.660
49628SOL    HW250717   8.942   0.723   3.661
49629SOL     OW50718   9.113   8.085   2.434
49629SOL    HW150719   9.125   7.997   2.470
49629SOL    HW250720   9.196   8.130   2.452
49630SOL     OW50721   6.410   6.540   1.154
49630SOL    HW150722   6.352   6.597   1.103
49630SOL    HW250723   6.479   6.514   1.092
49631SOL     OW50724   9.821   1.120   4.269
49631SOL    HW150725   9.747   1.167   4.230
49631SOL    HW250726   9.847   1.056   4.202
49632SOL     OW50727  11.529  10.274   8.531
49632SOL    HW150728  11.439  10.273   8.565
49632SOL    HW250729  11.555  10.182   8.529
49633SOL     OW50730  13.484  13.732   5.865
49633SOL    HW150731  13.406  13.740   5.810
49633SOL    HW250732  13.497  13.820   5.902
49634SOL     OW50733  11.946  12.956   2.478
49634SOL    HW150734  11.926  12.872   2.520
49634SOL    HW250735  11.868  13.009   2.491
49635SOL     OW50736   1.169   6.841  12.099
49635SOL    HW150737   1.173   6.937  12.096
49635SOL    HW250738   1.248   6.816  12.147
49636SOL     OW50739   8.106   1.667   8.472
49636SOL    HW150740   8.063   1.749   8.496
49636SOL    HW250741   8.164   1.648   8.545
49637SOL     OW50742   2.210   8.519  10.111
49637SOL    HW150743   2.215   8.435  10.157
49637SOL    HW250744   2.141   8.567  10.157
49638SOL     OW50745   7.332  11.120  12.344
49638SOL    HW150746   7.324  11.213  12.326
49638SOL    HW250747   7.419  11.096  12.311
49639SOL     OW50748   1.328  12.393   6.658
49639SOL    HW150749   1.402  12.332   6.649
49639SOL    HW250750   1.355  12.469   6.606
49640SOL     OW50751  10.527   3.157  13.816
49640SOL    HW150752  10.588   3.228  13.798
49640SOL    HW250753  10.496   3.130  13.729
49641SOL     OW50754   0.870  14.292   5.396
49641SOL    HW150755   0.792  14.253   5.435
49641SOL    HW250756   0.853  14.287   5.301
49642SOL     OW50757   3.893   3.897   9.116
49642SOL    HW150758   3.805   3.925   9.141
49642SOL    HW250759   3.924   3.846   9.191
49643SOL     OW50760   7.239   5.000   3.246
49643SOL    HW150761   7.211   4.918   3.287
49643SOL    HW250762   7.226   4.985   3.152
49644SOL     OW50763   7.472   1.663   8.619
49644SOL    HW150764   7.481   1.750   8.658
49644SOL    HW250765   7.449   1.606   8.692
49645SOL     OW50766  10.974   5.139   3.662
49645SOL    HW150767  10.885   5.136   3.628
49645SOL    HW250768  10.976   5.215   3.719
49646SOL     OW50769  10.212   1.320  14.629
49646SOL    HW150770  10.201   1.413  14.608
49646SOL    HW250771  10.174   1.275  14.554
49647SOL     OW50772  12.439  14.199  13.103
49647SOL    HW150773  12.440  14.227  13.011
49647SOL    HW250774  12.347  14.201  13.127
49648SOL     OW50775  11.980   1.514   6.724
49648SOL    HW150776  11.991   1.440   6.783
49648SOL    HW250777  12.059   1.567   6.736
49649SOL     OW50778   0.781   5.177   2.192
49649SOL    HW150779   0.757   5.085   2.181
49649SOL    HW250780   0.769   5.194   2.286
49650SOL     OW50781  11.896   9.029   8.283
49650SOL    HW150782  11.956   9.008   8.354
49650SOL    HW250783  11.895   8.951   8.228
49651SOL     OW50784  14.074  13.898   9.100
49651SOL    HW150785  14.084  13.825   9.162
49651SOL    HW250786  14.163  13.929   9.084
49652SOL     OW50787  10.474  13.516   9.346
49652SOL    HW150788  10.544  13.520   9.281
49652SOL    HW250789  10.454  13.422   9.354
49653SOL     OW50790   6.091   4.088   6.969
49653SOL    HW150791   6.185   4.082   6.983
49653SOL    HW250792   6.071   4.181   6.981
49654SOL     OW50793  10.641   0.320  14.684
49654SOL    HW150794  10.728   0.294  14.714
49654SOL    HW250795  10.647   0.415  14.674
49655SOL     OW50796  12.935   1.584   7.996
49655SOL    HW150797  12.870   1.555   8.059
49655SOL    HW250798  12.940   1.514   7.931
49656SOL     OW50799  13.102   7.975   2.721
49656SOL    HW150800  13.185   7.993   2.676
49656SOL    HW250801  13.037   8.024   2.671
49657SOL     OW50802   8.937  10.240   6.092
49657SOL    HW150803   8.957  10.160   6.043
49657SOL    HW250804   8.883  10.292   6.033
49658SOL     OW50805   6.215  13.176   4.886
49658SOL    HW150806   6.299  13.151   4.925
49658SOL    HW250807   6.150  13.150   4.951
49659SOL     OW50808   5.047   5.770  12.441
49659SOL    HW150809   5.130   5.726  12.455
49659SOL    HW250810   5.004   5.719  12.372
49660SOL     OW50811   2.316   6.870   6.867
49660SOL    HW150812   2.260   6.945   6.845
49660SOL    HW250813   2.324   6.821   6.785
49661SOL     OW50814   0.932   2.106  10.425
49661SOL    HW150815   0.990   2.053  10.371
49661SOL    HW250816   0.902   2.047  10.494
49662SOL     OW50817  11.036   8.056   0.024
49662SOL    HW150818  10.981   8.025   0.096
49662SOL    HW250819  10.990   8.028  14.817
49663SOL     OW50820  14.367  13.567  10.184
49663SOL    HW150821  14.429  13.495  10.179
49663SOL    HW250822  14.331  13.562  10.272
49664SOL     OW50823  11.058   5.530  14.532
49664SOL    HW150824  11.136   5.476  14.519
49664SOL    HW250825  10.988   5.482  14.489
49665SOL     OW50826  12.966  11.480   3.352
49665SOL    HW150827  12.923  11.464   3.436
49665SOL    HW250828  12.903  11.533   3.303
49666SOL     OW50829   4.937   1.022  13.252
49666SOL    HW150830   5.030   1.005  13.268
49666SOL    HW250831   4.892   0.952  13.299
49667SOL     OW50832   1.838   3.432   1.908
49667SOL    HW150833   1.797   3.376   1.973
49667SOL    HW250834   1.792   3.413   1.826
49668SOL     OW50835   6.826   9.004  14.782
49668SOL    HW150836   6.885   8.934  14.809
49668SOL    HW250837   6.745   8.960  14.755
49669SOL     OW50838   4.426   5.088   2.098
49669SOL    HW150839   4.361   5.094   2.028
49669SOL    HW250840   4.498   5.145   2.069
49670SOL     OW50841   7.800  13.718   1.735
49670SOL    HW150842   7.822  13.645   1.677
49670SOL    HW250843   7.882  13.738   1.780
49671SOL     OW50844  11.244   2.547   0.098
49671SOL    HW150845  11.263   2.622   0.042
49671SOL    HW250846  11.237   2.583   0.187
49672SOL     OW50847   2.360   7.534   4.493
49672SOL    HW150848   2.329   7.524   4.583
49672SOL    HW250849   2.315   7.465   4.444
49673SOL     OW50850   3.193   7.829  10.661
49673SOL    HW150851   3.163   7.902  10.607
49673SOL    HW250852   3.226   7.870  10.741
49674SOL     OW50853   4.601   4.692   9.343
49674SOL    HW150854   4.630   4.601   9.355
49674SOL    HW250855   4.635   4.716   9.257
49675SOL     OW50856  10.193   6.643  10.707
49675SOL    HW150857  10.278   6.676  10.737
49675SOL    HW250858  10.204   6.634  10.612
49676SOL     OW50859   4.794   9.508   4.688
49676SOL    HW150860   4.889   9.503   4.696
49676SOL    HW250861   4.769   9.580   4.747
49677SOL     OW50862   1.570   7.002  11.522
49677SOL    HW150863   1.614   7.073  11.569
49677SOL    HW250864   1.641   6.947  11.490
49678SOL     OW50865   9.448   1.612   4.190
49678SOL    HW150866   9.356   1.638   4.191
49678SOL    HW250867   9.451   1.537   4.131
49679SOL     OW50868   1.984   4.715   4.804
49679SOL    HW150869   1.911   4.716   4.866
49679SOL    HW250870   2.053   4.667   4.849
49680SOL     OW50871   8.523  12.759  13.352
49680SOL    HW150872   8.429  12.760  13.367
49680SOL    HW250873   8.556  12.835  13.399
49681SOL     OW50874   9.291   7.631   7.711
49681SOL    HW150875   9.355   7.628   7.640
49681SOL    HW250876   9.338   7.672   7.783
49682SOL     OW50877  11.669   1.278   2.619
49682SOL    HW150878  11.577   1.254   2.611
49682SOL    HW250879  11.688   1.329   2.540
49683SOL     OW50880  14.270   1.320   6.332
49683SOL    HW150881  14.247   1.397   6.384
49683SOL    HW250882  14.245   1.343   6.243
49684SOL     OW50883  11.044   2.898   6.605
49684SOL    HW150884  11.103   2.900   6.529
49684SOL    HW250885  10.983   2.970   6.590
49685SOL     OW50886  11.737   0.250  12.232
49685SOL    HW150887  11.770   0.184  12.170
49685SOL    HW250888  11.793   0.240  12.309
49686SOL     OW50889  10.191   6.841   3.591
49686SOL    HW150890  10.179   6.784   3.515
49686SOL    HW250891  10.104   6.848   3.630
49687SOL     OW50892   9.862  11.903   9.145
49687SOL    HW150893   9.895  11.827   9.097
49687SOL    HW250894   9.820  11.958   9.079
49688SOL     OW50895  11.760  14.545   1.710
49688SOL    HW150896  11.848  14.563   1.744
49688SOL    HW250897  11.723  14.631   1.692
49689SOL     OW50898   8.035   8.636   4.395
49689SOL    HW150899   8.051   8.542   4.396
49689SOL    HW250900   8.064   8.666   4.481
49690SOL     OW50901   2.574   5.444   1.165
49690SOL    HW150902   2.487   5.462   1.128
49690SOL    HW250903   2.558   5.437   1.259
49691SOL     OW50904  11.678   3.597   4.894
49691SOL    HW150905  11.766   3.561   4.903
49691SOL    HW250906  11.621   3.533   4.938
49692SOL     OW50907   2.498  12.351   2.169
49692SOL    HW150908   2.456  12.391   2.093
49692SOL    HW250909   2.452  12.268   2.182
49693SOL     OW50910   6.700   3.989   4.977
49693SOL    HW150911   6.641   4.055   5.014
49693SOL    HW250912   6.683   3.992   4.882
49694SOL     OW50913  11.327   2.432   1.636
49694SOL    HW150914  11.365   2.514   1.667
49694SOL    HW250915  11.361   2.422   1.547
49695SOL     OW50916   7.070   9.744  12.090
49695SOL    HW150917   7.134   9.694  12.040
49695SOL    HW250918   7.111   9.759  12.175
49696SOL     OW50919   5.694   5.321  14.859
49696SOL    HW150920   5.696   5.407   0.029
49696SOL    HW250921   5.738   5.263   0.048
49697SOL     OW50922   0.299  14.790  10.951
49697SOL    HW150923   0.257  14.798  10.865
49697SOL    HW250924   0.274  14.870  10.997
49698SOL     OW50925  14.166   7.676   4.587
49698SOL    HW150926  14.176   7.613   4.658
49698SOL    HW250927  14.157   7.622   4.508
49699SOL     OW50928   2.710  10.616   6.719
49699SOL    HW150929   2.683  10.620   6.627
49699SOL    HW250930   2.761  10.535   6.725
49700SOL     OW50931   7.067   4.093  14.395
49700SOL    HW150932   7.128   4.166  14.407
49700SOL    HW250933   7.103   4.022  14.448
49701SOL     OW50934   5.113  11.422   6.784
49701SOL    HW150935   5.166  11.496   6.754
49701SOL    HW250936   5.032  11.462   6.815
49702SOL     OW50937   3.745   3.233  12.799
49702SOL    HW150938   3.667   3.189  12.833
49702SOL    HW250939   3.791   3.166  12.750
49703SOL     OW50940   9.090  10.587  11.508
49703SOL    HW150941   9.113  10.671  11.548
49703SOL    HW250942   9.128  10.521  11.567
49704SOL     OW50943   9.775   2.268   4.733
49704SOL    HW150944   9.771   2.205   4.805
49704SOL    HW250945   9.858   2.248   4.689
49705SOL     OW50946   7.198  13.440   0.719
49705SOL    HW150947   7.281  13.407   0.685
49705SOL    HW250948   7.168  13.501   0.652
49706SOL     OW50949   1.102   0.758   2.569
49706SOL    HW150950   1.098   0.664   2.585
49706SOL    HW250951   1.053   0.796   2.642
49707SOL     OW50952  14.722  12.985   6.999
49707SOL    HW150953  14.752  12.923   6.933
49707SOL    HW250954  14.775  12.966   7.076
49708SOL     OW50955   7.853   1.985   0.586
49708SOL    HW150956   7.837   1.988   0.681
49708SOL    HW250957   7.797   1.914   0.555
49709SOL     OW50958  12.573   3.237  11.216
49709SOL    HW150959  12.659   3.258  11.253
49709SOL    HW250960  12.511   3.285  11.271
49710SOL     OW50961   0.737   1.286   5.301
49710SOL    HW150962   0.658   1.305   5.250
49710SOL    HW250963   0.754   1.193   5.286
49711SOL     OW50964   3.991  10.041  13.280
49711SOL    HW150965   4.072  10.092  13.270
49711SOL    HW250966   3.925  10.093  13.234
49712SOL     OW50967   1.847  11.734   9.046
49712SOL    HW150968   1.811  11.776   9.124
49712SOL    HW250969   1.913  11.795   9.014
49713SOL     OW50970   1.715  12.013   0.407
49713SOL    HW150971   1.680  11.935   0.451
49713SOL    HW250972   1.642  12.046   0.355
49714SOL     OW50973   3.468   3.090   6.379
49714SOL    HW150974   3.494   3.174   6.341
49714SOL    HW250975   3.404   3.113   6.446
49715SOL     OW50976  13.454   4.469   6.364
49715SOL    HW150977  13.415   4.555   6.352
49715SOL    HW250978  13.454   4.454   6.459
49716SOL     OW50979   1.264   2.420   5.344
49716SOL    HW150980   1.211   2.484   5.297
49716SOL    HW250981   1.265   2.342   5.288
49717SOL     OW50982   1.345  11.154  14.242
49717SOL    HW150983   1.425  11.130  14.195
49717SOL    HW250984   1.288  11.191  14.175
49718SOL     OW50985   4.774   6.344  12.561
49718SOL    HW150986   4.858   6.305  12.588
49718SOL    HW250987   4.787   6.366  12.469
49719SOL     OW50988   8.601   2.793   5.614
49719SOL    HW150989   8.529   2.826   5.669
49719SOL    HW250990   8.640   2.872   5.576
49720SOL     OW50991  11.144   5.796   6.461
49720SOL    HW150992  11.228   5.760   6.433
49720SOL    HW250993  11.159   5.823   6.552
49721SOL     OW50994   1.059  14.253   0.529
49721SOL    HW150995   1.043  14.270   0.436
49721SOL    HW250996   0.974  14.266   0.571
49722SOL     OW50997   6.160  13.041   2.284
49722SOL    HW150998   6.129  12.959   2.244
49722SOL    HW250999   6.212  13.013   2.360
49723SOL     OW51000  13.662   1.042  12.925
49723SOL    HW151001  13.690   1.079  12.842
49723SOL    HW251002  13.732   0.981  12.949
49724SOL     OW51003   8.603   9.593  12.061
49724SOL    HW151004   8.641   9.511  12.031
49724SOL    HW251005   8.641   9.607  12.148
49725SOL     OW51006   0.992  11.073   9.804
49725SOL    HW151007   1.087  11.077   9.815
49725SOL    HW251008   0.978  11.095   9.712
49726SOL     OW51009  10.416  12.305   8.568
49726SOL    HW151010  10.387  12.223   8.608
49726SOL    HW251011  10.458  12.353   8.640
49727SOL     OW51012  12.827   8.275   9.619
49727SOL    HW151013  12.878   8.303   9.696
49727SOL    HW251014  12.777   8.200   9.650
49728SOL     OW51015   1.338   1.187   5.912
49728SOL    HW151016   1.332   1.171   5.817
49728SOL    HW251017   1.390   1.113   5.945
49729SOL     OW51018   3.536   8.449  14.551
49729SOL    HW151019   3.445   8.476  14.561
49729SOL    HW251020   3.586   8.516  14.599
49730SOL     OW51021   5.596  11.325  12.354
49730SOL    HW151022   5.635  11.257  12.408
49730SOL    HW251023   5.548  11.380  12.416
49731SOL     OW51024   2.882  12.255   2.973
49731SOL    HW151025   2.829  12.249   2.893
49731SOL    HW251026   2.843  12.326   3.023
49732SOL     OW51027   3.363   1.378   1.812
49732SOL    HW151028   3.376   1.463   1.852
49732SOL    HW251029   3.388   1.315   1.880
49733SOL     OW51030   1.227   5.504   7.537
49733SOL    HW151031   1.307   5.511   7.590
49733SOL    HW251032   1.255   5.460   7.457
49734SOL     OW51033  13.290   6.338   5.941
49734SOL    HW151034  13.329   6.285   5.871
49734SOL    HW251035  13.199   6.308   5.945
49735SOL     OW51036  12.370   8.206  11.066
49735SOL    HW151037  12.302   8.257  11.022
49735SOL    HW251038  12.451   8.254  11.050
49736SOL     OW51039  14.803  13.722   7.491
49736SOL    HW151040  14.789  13.777   7.568
49736SOL    HW251041  14.865  13.771   7.437
49737SOL     OW51042   9.536   9.481  13.799
49737SOL    HW151043   9.547   9.401  13.748
49737SOL    HW251044   9.444   9.479  13.827
49738SOL     OW51045   8.512  13.958  12.640
49738SOL    HW151046   8.562  14.005  12.574
49738SOL    HW251047   8.498  14.022  12.710
49739SOL     OW51048   5.755   2.821  11.793
49739SOL    HW151049   5.832   2.773  11.825
49739SOL    HW251050   5.792   2.889  11.737
49740SOL     OW51051   0.012   4.805  11.979
49740SOL    HW151052  14.857   4.835  11.892
49740SOL    HW251053   0.037   4.885  12.025
49741SOL     OW51054   3.878   2.995   5.980
49741SOL    HW151055   3.865   2.919   6.037
49741SOL    HW251056   3.890   2.957   5.893
49742SOL     OW51057   5.550   0.128   1.972
49742SOL    HW151058   5.645   0.133   1.967
49742SOL    HW251059   5.519   0.201   1.918
49743SOL     OW51060   2.072   7.128   6.339
49743SOL    HW151061   2.057   7.047   6.291
49743SOL    HW251062   2.022   7.118   6.420
49744SOL     OW51063  14.183   8.061   9.427
49744SOL    HW151064  14.212   8.108   9.348
49744SOL    HW251065  14.133   7.986   9.393
49745SOL     OW51066   5.777   4.624   3.131
49745SOL    HW151067   5.802   4.699   3.078
49745SOL    HW251068   5.797   4.548   3.076
49746SOL     OW51069   3.983  14.145   6.950
49746SOL    HW151070   4.047  14.075   6.957
49746SOL    HW251071   4.033  14.221   6.920
49747SOL     OW51072   0.449   8.319   7.777
49747SOL    HW151073   0.450   8.265   7.856
49747SOL    HW251074   0.539   8.350   7.768
49748SOL     OW51075  12.648   1.182   5.067
49748SOL    HW151076  12.655   1.089   5.087
49748SOL    HW251077  12.665   1.188   4.973
49749SOL     OW51078   2.976   2.730  11.484
49749SOL    HW151079   2.988   2.801  11.547
49749SOL    HW251080   3.013   2.764  11.402
49750SOL     OW51081  11.991   5.958  10.370
49750SOL    HW151082  11.928   6.002  10.313
49750SOL    HW251083  12.019   6.027  10.430
49751SOL     OW51084   5.588   1.115   8.031
49751SOL    HW151085   5.612   1.034   7.986
49751SOL    HW251086   5.671   1.163   8.040
49752SOL     OW51087  13.611   7.783   7.896
49752SOL    HW151088  13.523   7.815   7.919
49752SOL    HW251089  13.604   7.757   7.805
49753SOL     OW51090  14.574   0.925  10.342
49753SOL    HW151091  14.589   0.861  10.412
49753SOL    HW251092  14.524   0.878  10.276
49754SOL     OW51093   3.275   2.912  10.282
49754SOL    HW151094   3.370   2.898  10.280
49754SOL    HW251095   3.243   2.847  10.344
49755SOL     OW51096  13.988   6.327  14.483
49755SOL    HW151097  13.895   6.309  14.469
49755SOL    HW251098  14.023   6.343  14.395
49756SOL     OW51099  11.358   7.498   5.493
49756SOL    HW151100  11.366   7.556   5.417
49756SOL    HW251101  11.308   7.549   5.557
49757SOL     OW51102   8.193   8.286   1.825
49757SOL    HW151103   8.288   8.299   1.832
49757SOL    HW251104   8.161   8.365   1.782
49758SOL     OW51105   2.594   8.704   1.839
49758SOL    HW151106   2.651   8.629   1.821
49758SOL    HW251107   2.513   8.685   1.792
49759SOL     OW51108   5.815  12.179   8.072
49759SOL    HW151109   5.742  12.146   8.020
49759SOL    HW251110   5.844  12.103   8.123
49760SOL     OW51111  13.580  13.553   7.797
49760SOL    HW151112  13.606  13.476   7.746
49760SOL    HW251113  13.544  13.518   7.878
49761SOL     OW51114  14.011  13.912   8.558
49761SOL    HW151115  14.007  13.884   8.650
49761SOL    HW251116  13.954  13.850   8.512
49762SOL     OW51117  13.368   4.898  11.736
49762SOL    HW151118  13.356   4.993  11.739
49762SOL    HW251119  13.461   4.885  11.757
49763SOL     OW51120   1.014  13.294  12.609
49763SOL    HW151121   0.990  13.383  12.634
49763SOL    HW251122   1.085  13.270  12.669
49764SOL     OW51123   5.274   1.791  10.321
49764SOL    HW151124   5.179   1.792  10.327
49764SOL    HW251125   5.304   1.777  10.411
49765SOL     OW51126   4.728   8.335  10.342
49765SOL    HW151127   4.732   8.430  10.351
49765SOL    HW251128   4.653   8.309  10.397
49766SOL     OW51129  11.999  11.663   0.198
49766SOL    HW151130  11.921  11.641   0.250
49766SOL    HW251131  11.988  11.616   0.116
49767SOL     OW51132   1.735   5.140   9.352
49767SOL    HW151133   1.672   5.201   9.315
49767SOL    HW251134   1.797   5.196   9.400
49768SOL     OW51135   8.119   7.973  12.235
49768SOL    HW151136   8.178   8.042  12.265
49768SOL    HW251137   8.100   7.921  12.313
49769SOL     OW51138   3.941  10.757  13.715
49769SOL    HW151139   3.985  10.840  13.696
49769SOL    HW251140   3.995  10.691  13.672
49770SOL     OW51141  11.405   0.707   3.199
49770SOL    HW151142  11.382   0.718   3.107
49770SOL    HW251143  11.485   0.654   3.198
49771SOL     OW51144   0.164  11.563  14.026
49771SOL    HW151145   0.196  11.639  13.978
49771SOL    HW251146   0.108  11.517  13.963
49772SOL     OW51147  13.390  13.750  12.673
49772SOL    HW151148  13.375  13.765  12.766
49772SOL    HW251149  13.302  13.749  12.635
49773SOL     OW51150   0.285   4.463   3.732
49773SOL    HW151151   0.218   4.486   3.668
49773SOL    HW251152   0.325   4.546   3.756
49774SOL     OW51153   5.598   2.588   8.616
49774SOL    HW151154   5.655   2.611   8.543
49774SOL    HW251155   5.521   2.645   8.604
49775SOL     OW51156   0.055   6.488   7.278
49775SOL    HW151157   0.024   6.547   7.210
49775SOL    HW251158  14.866   6.414   7.275
49776SOL     OW51159  13.594   5.167  12.047
49776SOL    HW151160  13.506   5.136  12.069
49776SOL    HW251161  13.606   5.143  11.955
49777SOL     OW51162   6.159   7.412   9.816
49777SOL    HW151163   6.184   7.458   9.897
49777SOL    HW251164   6.102   7.341   9.845
49778SOL     OW51165  12.226   6.913   8.768
49778SOL    HW151166  12.236   6.905   8.863
49778SOL    HW251167  12.282   6.844   8.732
49779SOL     OW51168   6.792   3.527   2.184
49779SOL    HW151169   6.760   3.490   2.266
49779SOL    HW251170   6.887   3.517   2.188
49780SOL     OW51171   5.470   6.848   5.135
49780SOL    HW151172   5.531   6.891   5.195
49780SOL    HW251173   5.383   6.878   5.165
49781SOL     OW51174   8.464   2.780  13.941
49781SOL    HW151175   8.440   2.688  13.957
49781SOL    HW251176   8.386   2.818  13.901
49782SOL     OW51177   2.788   0.991   1.158
49782SOL    HW151178   2.816   1.000   1.067
49782SOL    HW251179   2.693   0.981   1.154
49783SOL     OW51180  13.672  13.316  10.895
49783SOL    HW151181  13.672  13.409  10.917
49783SOL    HW251182  13.738  13.277  10.952
49784SOL     OW51183   1.600   4.754  10.630
49784SOL    HW151184   1.531   4.761  10.564
49784SOL    HW251185   1.633   4.843  10.641
49785SOL     OW51186  10.757  10.561   3.767
49785SOL    HW151187  10.757  10.496   3.698
49785SOL    HW251188  10.770  10.511   3.848
49786SOL     OW51189   1.287   5.074   7.040
49786SOL    HW151190   1.373   5.097   7.074
49786SOL    HW251191   1.228   5.086   7.114
49787SOL     OW51192  11.350   9.016  12.187
49787SOL    HW151193  11.392   8.981  12.266
49787SOL    HW251194  11.411   8.995  12.116
49788SOL     OW51195   6.783  12.535   8.616
49788SOL    HW151196   6.749  12.455   8.575
49788SOL    HW251197   6.850  12.504   8.677
49789SOL     OW51198   0.513  12.118   5.980
49789SOL    HW151199   0.571  12.072   6.041
49789SOL    HW251200   0.573  12.169   5.925
49790SOL     OW51201   2.295   7.535  12.417
49790SOL    HW151202   2.224   7.473  12.436
49790SOL    HW251203   2.299   7.538  12.322
49791SOL     OW51204   3.201  14.638   4.255
49791SOL    HW151205   3.269  14.671   4.314
49791SOL    HW251206   3.176  14.553   4.293
49792SOL     OW51207  13.240   4.110   3.156
49792SOL    HW151208  13.228   4.178   3.090
49792SOL    HW251209  13.252   4.029   3.106
49793SOL     OW51210   6.801   1.740  11.884
49793SOL    HW151211   6.870   1.674  11.871
49793SOL    HW251212   6.782   1.772  11.796
49794SOL     OW51213   6.451   6.091  11.400
49794SOL    HW151214   6.534   6.123  11.366
49794SOL    HW251215   6.414   6.039  11.330
49795SOL     OW51216   9.385   7.578   4.570
49795SOL    HW151217   9.353   7.508   4.513
49795SOL    HW251218   9.451   7.536   4.626
49796SOL     OW51219   7.615  10.883   9.890
49796SOL    HW151220   7.531  10.921   9.864
49796SOL    HW251221   7.597  10.838   9.972
49797SOL     OW51222   9.449   2.930   4.630
49797SOL    HW151223   9.437   2.867   4.701
49797SOL    HW251224   9.523   2.984   4.658
49798SOL     OW51225   3.856  10.643   9.250
49798SOL    HW151226   3.901  10.559   9.257
49798SOL    HW251227   3.893  10.683   9.171
49799SOL     OW51228   3.964   6.450   9.998
49799SOL    HW151229   3.897   6.472   9.932
49799SOL    HW251230   4.042   6.498   9.970
49800SOL     OW51231   8.951  10.970   4.161
49800SOL    HW151232   8.971  11.062   4.140
49800SOL    HW251233   8.971  10.962   4.254
49801SOL     OW51234  13.989   5.745   3.609
49801SOL    HW151235  14.020   5.738   3.700
49801SOL    HW251236  13.930   5.821   3.609
49802SOL     OW51237   2.266   0.903   3.395
49802SOL    HW151238   2.346   0.945   3.426
49802SOL    HW251239   2.286   0.810   3.397
49803SOL     OW51240  11.648   3.428   6.782
49803SOL    HW151241  11.676   3.421   6.874
49803SOL    HW251242  11.650   3.338   6.750
49804SOL     OW51243  12.832  13.669   6.521
49804SOL    HW151244  12.854  13.670   6.428
49804SOL    HW251245  12.754  13.725   6.528
49805SOL     OW51246  12.196  11.851   3.100
49805SOL    HW151247  12.140  11.785   3.060
49805SOL    HW251248  12.215  11.913   3.030
49806SOL     OW51249   2.487   2.408  11.273
49806SOL    HW151250   2.487   2.487  11.327
49806SOL    HW251251   2.477   2.336  11.336
49807SOL     OW51252   2.295   6.475  10.794
49807SOL    HW151253   2.205   6.499  10.814
49807SOL    HW251254   2.295   6.457  10.700
49808SOL     OW51255   6.619   7.956  13.252
49808SOL    HW151256   6.673   8.035  13.259
49808SOL    HW251257   6.567   7.970  13.172
49809SOL     OW51258  14.737   4.809  13.641
49809SOL    HW151259  14.694   4.871  13.700
49809SOL    HW251260  14.695   4.725  13.659
49810SOL     OW51261  11.934  11.153   3.298
49810SOL    HW151262  11.867  11.096   3.262
49810SOL    HW251263  11.930  11.232   3.244
49811SOL     OW51264  12.883  12.231   8.411
49811SOL    HW151265  12.847  12.181   8.485
49811SOL    HW251266  12.821  12.216   8.340
49812SOL     OW51267   7.917  13.799   5.042
49812SOL    HW151268   7.974  13.738   4.995
49812SOL    HW251269   7.977  13.850   5.098
49813SOL     OW51270   8.052   3.073   7.249
49813SOL    HW151271   8.054   3.068   7.153
49813SOL    HW251272   8.019   2.988   7.277
49814SOL     OW51273   0.696   5.699   0.514
49814SOL    HW151274   0.699   5.606   0.490
49814SOL    HW251275   0.788   5.725   0.522
49815SOL     OW51276   6.146   8.825   6.912
49815SOL    HW151277   6.230   8.869   6.927
49815SOL    HW251278   6.084   8.897   6.899
49816SOL     OW51279  11.097  11.091   5.914
49816SOL    HW151280  11.032  11.040   5.962
49816SOL    HW251281  11.109  11.042   5.832
49817SOL     OW51282   7.686   9.981  11.471
49817SOL    HW151283   7.768  10.017  11.435
49817SOL    HW251284   7.624   9.988  11.399
49818SOL     OW51285  13.141  14.735  10.992
49818SOL    HW151286  13.115  14.818  10.953
49818SOL    HW251287  13.069  14.712  11.051
49819SOL     OW51288  14.254  11.092   4.831
49819SOL    HW151289  14.232  11.131   4.747
49819SOL    HW251290  14.286  11.165   4.884
49820SOL     OW51291  14.709   8.889   9.233
49820SOL    HW151292  14.684   8.886   9.325
49820SOL    HW251293  14.675   8.973   9.202
49821SOL     OW51294   6.755   9.947   8.225
49821SOL    HW151295   6.801   9.915   8.147
49821SOL    HW251296   6.740   9.869   8.278
49822SOL     OW51297   2.296   8.317   8.183
49822SOL    HW151298   2.279   8.232   8.142
49822SOL    HW251299   2.389   8.334   8.165
49823SOL     OW51300   3.210   1.671   9.759
49823SOL    HW151301   3.181   1.708   9.842
49823SOL    HW251302   3.132   1.671   9.704
49824SOL     OW51303   9.770   2.284   0.925
49824SOL    HW151304   9.726   2.258   0.844
49824SOL    HW251305   9.856   2.315   0.898
49825SOL     OW51306   5.071  12.709   9.024
49825SOL    HW151307   5.056  12.802   9.004
49825SOL    HW251308   5.130  12.679   8.955
49826SOL     OW51309  10.900  11.018   3.738
49826SOL    HW151310  10.922  10.979   3.654
49826SOL    HW251311  10.865  10.945   3.790
49827SOL     OW51312   8.844  11.453   4.391
49827SOL    HW151313   8.802  11.368   4.383
49827SOL    HW251314   8.807  11.492   4.470
49828SOL     OW51315   9.515   1.987   9.745
49828SOL    HW151316   9.523   2.081   9.756
49828SOL    HW251317   9.466   1.957   9.822
49829SOL     OW51318   3.099   0.904  12.666
49829SOL    HW151319   3.124   0.955  12.589
49829SOL    HW251320   3.104   0.813  12.638
49830SOL     OW51321   0.364   4.732   7.331
49830SOL    HW151322   0.395   4.745   7.421
49830SOL    HW251323   0.444   4.738   7.278
49831SOL     OW51324   6.884   6.864   9.116
49831SOL    HW151325   6.848   6.825   9.196
49831SOL    HW251326   6.965   6.905   9.144
49832SOL     OW51327   2.988   0.323  14.132
49832SOL    HW151328   3.038   0.359  14.205
49832SOL    HW251329   2.907   0.374  14.131
49833SOL     OW51330   3.154   9.859   0.303
49833SOL    HW151331   3.091   9.917   0.347
49833SOL    HW251332   3.178   9.906   0.224
49834SOL     OW51333   1.020   0.175   6.336
49834SOL    HW151334   1.104   0.220   6.347
49834SOL    HW251335   0.974   0.225   6.268
49835SOL     OW51336   1.707   2.824  11.743
49835SOL    HW151337   1.732   2.776  11.664
49835SOL    HW251338   1.612   2.824  11.742
49836SOL     OW51339   4.106  12.941  14.528
49836SOL    HW151340   4.158  12.948  14.449
49836SOL    HW251341   4.021  12.980  14.505
49837SOL     OW51342  10.882  14.448   0.739
49837SOL    HW151343  10.872  14.521   0.677
49837SOL    HW251344  10.828  14.472   0.814
49838SOL     OW51345  13.781   8.700   6.775
49838SOL    HW151346  13.778   8.678   6.682
49838SOL    HW251347  13.699   8.665   6.810
49839SOL     OW51348   0.633  12.839   3.129
49839SOL    HW151349   0.562  12.786   3.164
49839SOL    HW251350   0.602  12.868   3.043
49840SOL     OW51351   7.386   6.869   2.508
49840SOL    HW151352   7.443   6.944   2.528
49840SOL    HW251353   7.445   6.805   2.468
49841SOL     OW51354  12.131   8.255   1.190
49841SOL    HW151355  12.125   8.204   1.271
49841SOL    HW251356  12.050   8.235   1.143
49842SOL     OW51357  13.342   5.245   2.584
49842SOL    HW151358  13.310   5.248   2.674
49842SOL    HW251359  13.381   5.158   2.575
49843SOL     OW51360   9.629  14.787   2.833
49843SOL    HW151361   9.685  14.853   2.791
49843SOL    HW251362   9.676  14.761   2.912
49844SOL     OW51363  13.936   4.861   0.733
49844SOL    HW151364  13.851   4.851   0.689
49844SOL    HW251365  13.947   4.956   0.742
49845SOL     OW51366  14.216   5.505   2.950
49845SOL    HW151367  14.260   5.446   3.011
49845SOL    HW251368  14.123   5.485   2.960
49846SOL     OW51369   8.053  11.172  14.242
49846SOL    HW151370   8.005  11.134  14.168
49846SOL    HW251371   7.986  11.215  14.294
49847SOL     OW51372  12.262   2.434   6.645
49847SOL    HW151373  12.273   2.432   6.740
49847SOL    HW251374  12.240   2.524   6.625
49848SOL     OW51375   9.115   8.158   5.233
49848SOL    HW151376   9.166   8.121   5.304
49848SOL    HW251377   9.124   8.253   5.244
49849SOL     OW51378   3.181  12.435   1.648
49849SOL    HW151379   3.243  12.438   1.576
49849SOL    HW251380   3.151  12.526   1.658
49850SOL     OW51381   3.280   4.310  14.788
49850SOL    HW151382   3.210   4.308  14.854
49850SOL    HW251383   3.350   4.256  14.826
49851SOL     OW51384   2.622  10.241   1.913
49851SOL    HW151385   2.662  10.189   1.982
49851SOL    HW251386   2.540  10.272   1.951
49852SOL     OW51387   4.126   2.829   7.399
49852SOL    HW151388   4.032   2.834   7.382
49852SOL    HW251389   4.137   2.748   7.449
49853SOL     OW51390   6.030   0.489  12.977
49853SOL    HW151391   6.040   0.465  13.069
49853SOL    HW251392   6.101   0.443  12.932
49854SOL     OW51393  14.374   0.566   8.258
49854SOL    HW151394  14.431   0.541   8.185
49854SOL    HW251395  14.339   0.651   8.232
49855SOL     OW51396  14.816   6.687   2.059
49855SOL    HW151397  14.841   6.601   2.025
49855SOL    HW251398  14.833   6.681   2.153
49856SOL     OW51399  10.391   2.798   1.201
49856SOL    HW151400  10.375   2.853   1.278
49856SOL    HW251401  10.452   2.849   1.148
49857SOL     OW51402   4.431  10.259   1.801
49857SOL    HW151403   4.358  10.264   1.863
49857SOL    HW251404   4.508  10.284   1.851
49858SOL     OW51405   2.293  11.169   4.441
49858SOL    HW151406   2.222  11.127   4.490
49858SOL    HW251407   2.352  11.097   4.419
49859SOL     OW51408  14.737   7.702  11.585
49859SOL    HW151409  14.665   7.761  11.563
49859SOL    HW251410  14.773   7.737  11.666
49860SOL     OW51411  13.895   9.435  13.353
49860SOL    HW151412  13.843   9.483  13.417
49860SOL    HW251413  13.979   9.420  13.396
49861SOL     OW51414   5.643   9.063   3.089
49861SOL    HW151415   5.610   9.041   3.002
49861SOL    HW251416   5.655   8.978   3.132
49862SOL     OW51417  13.762   6.216   0.978
49862SOL    HW151418  13.724   6.130   0.961
49862SOL    HW251419  13.856   6.203   0.966
49863SOL     OW51420  14.508   8.544  14.326
49863SOL    HW151421  14.529   8.452  14.345
49863SOL    HW251422  14.592   8.589  14.331
49864SOL     OW51423   4.037  12.623   1.942
49864SOL    HW151424   3.978  12.681   1.894
49864SOL    HW251425   3.983  12.588   2.013
49865SOL     OW51426   3.709   7.662   1.707
49865SOL    HW151427   3.618   7.650   1.683
49865SOL    HW251428   3.707   7.673   1.802
49866SOL     OW51429   8.433  10.915   6.053
49866SOL    HW151430   8.452  11.005   6.028
49866SOL    HW251431   8.471  10.862   5.983
49867SOL     OW51432  14.782   7.123   5.561
49867SOL    HW151433  14.706   7.067   5.578
49867SOL    HW251434  14.752   7.185   5.494
49868SOL     OW51435   7.893   2.217   9.756
49868SOL    HW151436   7.872   2.300   9.798
49868SOL    HW251437   7.809   2.181   9.730
49869SOL     OW51438  14.291  12.937   4.228
49869SOL    HW151439  14.222  12.876   4.204
49869SOL    HW251440  14.314  12.981   4.146
49870SOL     OW51441   1.177  13.878   4.743
49870SOL    HW151442   1.187  13.889   4.648
49870SOL    HW251443   1.163  13.784   4.755
49871SOL     OW51444   5.340   0.625   0.870
49871SOL    HW151445   5.380   0.711   0.881
49871SOL    HW251446   5.410   0.570   0.835
49872SOL     OW51447   9.476   2.545   0.932
49872SOL    HW151448   9.519   2.487   0.995
49872SOL    HW251449   9.393   2.568   0.973
49873SOL     OW51450   3.352   1.924   3.348
49873SOL    HW151451   3.416   1.862   3.383
49873SOL    HW251452   3.382   1.941   3.259
49874SOL     OW51453   5.316   4.437  13.902
49874SOL    HW151454   5.221   4.448  13.911
49874SOL    HW251455   5.332   4.345  13.922
49875SOL     OW51456   2.625   0.070   3.182
49875SOL    HW151457   2.712   0.076   3.220
49875SOL    HW251458   2.602  14.849   3.189
49876SOL     OW51459   2.986   8.497   7.931
49876SOL    HW151460   2.916   8.496   7.998
49876SOL    HW251461   3.062   8.534   7.976
49877SOL     OW51462  13.557   7.400  14.852
49877SOL    HW151463  13.586   7.490  14.867
49877SOL    HW251464  13.569   7.357   0.064
49878SOL     OW51465  11.655  10.324  14.823
49878SOL    HW151466  11.634  10.354   0.039
49878SOL    HW251467  11.746  10.349  14.809
49879SOL     OW51468  10.677  11.037   8.859
49879SOL    HW151469  10.583  11.038   8.843
49879SOL    HW251470  10.709  11.119   8.821
49880SOL     OW51471   7.093   7.062   8.388
49880SOL    HW151472   7.101   6.992   8.322
49880SOL    HW251473   7.019   7.035   8.442
49881SOL     OW51474   1.562   0.438  10.197
49881SOL    HW151475   1.563   0.424  10.103
49881SOL    HW251476   1.510   0.517  10.210
49882SOL     OW51477   2.820   3.355  10.753
49882SOL    HW151478   2.815   3.367  10.658
49882SOL    HW251479   2.747   3.297  10.773
49883SOL     OW51480   9.151   8.013   8.088
49883SOL    HW151481   9.213   7.941   8.098
49883SOL    HW251482   9.096   8.008   8.166
49884SOL     OW51483   3.982  11.535   8.151
49884SOL    HW151484   3.914  11.502   8.092
49884SOL    HW251485   4.062  11.530   8.100
49885SOL     OW51486   8.383   2.804   5.379
49885SOL    HW151487   8.342   2.804   5.465
49885SOL    HW251488   8.473   2.776   5.395
49886SOL     OW51489  14.345   1.210  11.668
49886SOL    HW151490  14.425   1.259  11.685
49886SOL    HW251491  14.376   1.123  11.644
49887SOL     OW51492   4.013   8.928  10.361
49887SOL    HW151493   4.008   9.023  10.352
49887SOL    HW251494   4.095   8.912  10.408
49888SOL     OW51495   4.078  10.089   9.562
49888SOL    HW151496   4.108  10.029   9.631
49888SOL    HW251497   4.140  10.075   9.490
49889SOL     OW51498   9.503  12.825  12.255
49889SOL    HW151499   9.487  12.839  12.349
49889SOL    HW251500   9.495  12.912  12.217
49890SOL     OW51501   5.994   4.661   6.944
49890SOL    HW151502   5.925   4.674   7.009
49890SOL    HW251503   5.954   4.684   6.861
49891SOL     OW51504   6.096   3.411   5.161
49891SOL    HW151505   6.111   3.360   5.082
49891SOL    HW251506   6.104   3.348   5.233
49892SOL     OW51507  14.396   0.102   1.231
49892SOL    HW151508  14.402   0.120   1.325
49892SOL    HW251509  14.415   0.009   1.223
49893SOL     OW51510  12.606   4.742   3.969
49893SOL    HW151511  12.584   4.671   4.029
49893SOL    HW251512  12.540   4.736   3.900
49894SOL     OW51513   0.305   0.559   0.344
49894SOL    HW151514   0.376   0.495   0.336
49894SOL    HW251515   0.228   0.514   0.310
49895SOL     OW51516   7.466  13.184   4.517
49895SOL    HW151517   7.407  13.128   4.568
49895SOL    HW251518   7.409  13.226   4.454
49896SOL     OW51519   2.996  10.381  13.049
49896SOL    HW151520   2.968  10.452  13.108
49896SOL    HW251521   2.916  10.353  13.005
49897SOL     OW51522   5.316   8.548  14.521
49897SOL    HW151523   5.304   8.458  14.552
49897SOL    HW251524   5.401   8.547  14.477
49898SOL     OW51525   8.808  11.496  13.098
49898SOL    HW151526   8.793  11.539  13.182
49898SOL    HW251527   8.794  11.403  13.116
49899SOL     OW51528  14.156  12.244   6.715
49899SOL    HW151529  14.196  12.329   6.734
49899SOL    HW251530  14.120  12.254   6.627
49900SOL     OW51531  12.788  13.247   4.091
49900SOL    HW151532  12.697  13.249   4.065
49900SOL    HW251533  12.809  13.154   4.100
49901SOL     OW51534   8.189   0.049  12.916
49901SOL    HW151535   8.144  14.854  12.864
49901SOL    HW251536   8.166   0.132  12.873
49902SOL     OW51537   0.013   1.643   5.605
49902SOL    HW151538   0.068   1.697   5.662
49902SOL    HW251539  14.816   1.703   5.576
49903SOL     OW51540  12.310   7.101   9.895
49903SOL    HW151541  12.233   7.089   9.951
49903SOL    HW251542  12.372   7.035   9.925
49904SOL     OW51543   8.176   9.853   8.278
49904SOL    HW151544   8.227   9.858   8.359
49904SOL    HW251545   8.140   9.941   8.267
49905SOL     OW51546   2.461   2.674  12.534
49905SOL    HW151547   2.419   2.758  12.518
49905SOL    HW251548   2.397   2.624  12.585
49906SOL     OW51549   8.693   5.514   4.289
49906SOL    HW151550   8.667   5.597   4.249
49906SOL    HW251551   8.616   5.487   4.339
49907SOL     OW51552   3.910   4.650   7.860
49907SOL    HW151553   3.915   4.566   7.814
49907SOL    HW251554   3.871   4.628   7.945
49908SOL     OW51555   4.899   4.687   3.490
49908SOL    HW151556   4.972   4.628   3.509
49908SOL    HW251557   4.839   4.635   3.436
49909SOL     OW51558  12.050  10.853   7.472
49909SOL    HW151559  12.112  10.780   7.476
49909SOL    HW251560  12.035  10.876   7.563
49910SOL     OW51561   9.024   9.875   5.689
49910SOL    HW151562   8.975   9.890   5.608
49910SOL    HW251563   9.049   9.962   5.718
49911SOL     OW51564   9.279   8.426   7.568
49911SOL    HW151565   9.274   8.503   7.625
49911SOL    HW251566   9.194   8.384   7.577
49912SOL     OW51567   9.463   0.893   3.058
49912SOL    HW151568   9.408   0.857   2.988
49912SOL    HW251569   9.542   0.839   3.057
49913SOL     OW51570  14.722   7.462  10.487
49913SOL    HW151571  14.671   7.448  10.566
49913SOL    HW251572  14.684   7.401  10.423
49914SOL     OW51573   5.540  14.839   5.629
49914SOL    HW151574   5.635  14.844   5.637
49914SOL    HW251575   5.508  14.870   5.714
49915SOL     OW51576   9.283  12.396   5.615
49915SOL    HW151577   9.328  12.376   5.697
49915SOL    HW251578   9.276  12.312   5.570
49916SOL     OW51579  12.965  13.828   1.398
49916SOL    HW151580  12.994  13.771   1.327
49916SOL    HW251581  12.905  13.774   1.450
49917SOL     OW51582   7.258  11.937   1.224
49917SOL    HW151583   7.179  11.901   1.264
49917SOL    HW251584   7.330  11.891   1.268
49918SOL     OW51585   9.459   5.165   1.665
49918SOL    HW151586   9.478   5.251   1.700
49918SOL    HW251587   9.373   5.174   1.624
49919SOL     OW51588  12.427   7.650   8.740
49919SOL    HW151589  12.349   7.668   8.792
49919SOL    HW251590  12.486   7.723   8.758
49920SOL     OW51591   4.019  13.070  11.433
49920SOL    HW151592   4.110  13.038  11.435
49920SOL    HW251593   4.008  13.114  11.517
49921SOL     OW51594   1.734   6.975   4.914
49921SOL    HW151595   1.803   6.915   4.944
49921SOL    HW251596   1.741   6.975   4.819
49922SOL     OW51597   5.038   9.185   2.907
49922SOL    HW151598   4.985   9.129   2.850
49922SOL    HW251599   5.070   9.127   2.976
49923SOL     OW51600   3.440   0.831  13.999
49923SOL    HW151601   3.418   0.883  14.076
49923SOL    HW251602   3.491   0.758  14.033
49924SOL     OW51603  13.246   1.881  13.606
49924SOL    HW151604  13.256   1.960  13.658
49924SOL    HW251605  13.286   1.812  13.659
49925SOL     OW51606   1.162   9.894  13.148
49925SOL    HW151607   1.089   9.868  13.205
49925SOL    HW251608   1.142   9.984  13.123
49926SOL     OW51609   1.164   1.252   3.027
49926SOL    HW151610   1.256   1.245   3.052
49926SOL    HW251611   1.165   1.307   2.948
49927SOL     OW51612  14.265  10.933  12.029
49927SOL    HW151613  14.334  10.866  12.023
49927SOL    HW251614  14.268  10.962  12.120
49928SOL     OW51615  10.809   9.642   0.623
49928SOL    HW151616  10.844   9.729   0.641
49928SOL    HW251617  10.874   9.601   0.565
49929SOL     OW51618   7.633  11.758  10.298
49929SOL    HW151619   7.674  11.676  10.327
49929SOL    HW251620   7.547  11.731  10.265
49930SOL     OW51621  13.295  13.967   4.206
49930SOL    HW151622  13.313  13.988   4.114
49930SOL    HW251623  13.214  13.916   4.203
49931SOL     OW51624   3.470  14.227   0.026
49931SOL    HW151625   3.457  14.132   0.026
49931SOL    HW251626   3.383  14.263   0.045
49932SOL     OW51627   5.240   3.408   9.975
49932SOL    HW151628   5.269   3.374  10.059
49932SOL    HW251629   5.146   3.423   9.985
49933SOL     OW51630  12.415   1.369  12.578
49933SOL    HW151631  12.438   1.279  12.556
49933SOL    HW251632  12.370   1.362  12.662
49934SOL     OW51633   8.614   1.757   1.372
49934SOL    HW151634   8.688   1.804   1.333
49934SOL    HW251635   8.642   1.739   1.462
49935SOL     OW51636   8.445   7.008   7.822
49935SOL    HW151637   8.432   6.915   7.801
49935SOL    HW251638   8.371   7.052   7.781
49936SOL     OW51639   6.077   4.502  13.458
49936SOL    HW151640   6.123   4.570  13.409
49936SOL    HW251641   5.985   4.514  13.434
49937SOL     OW51642   8.226   6.745   3.794
49937SOL    HW151643   8.317   6.749   3.821
49937SOL    HW251644   8.228   6.768   3.701
49938SOL     OW51645  11.591  14.112   6.765
49938SOL    HW151646  11.578  14.077   6.677
49938SOL    HW251647  11.673  14.073   6.795
49939SOL     OW51648  10.171  12.425  13.026
49939SOL    HW151649  10.086  12.420  12.981
49939SOL    HW251650  10.235  12.421  12.955
49940SOL     OW51651   0.241   6.313  12.375
49940SOL    HW151652   0.156   6.268  12.365
49940SOL    HW251653   0.222   6.387  12.432
49941SOL     OW51654   7.477   9.081   5.416
49941SOL    HW151655   7.448   9.057   5.328
49941SOL    HW251656   7.420   9.031   5.474
49942SOL     OW51657  13.237   1.363   5.063
49942SOL    HW151658  13.306   1.427   5.080
49942SOL    HW251659  13.278   1.299   5.004
49943SOL     OW51660  13.982   1.688  11.188
49943SOL    HW151661  14.001   1.775  11.224
49943SOL    HW251662  13.893   1.669  11.219
49944SOL     OW51663  12.876   6.699  11.199
49944SOL    HW151664  12.861   6.630  11.263
49944SOL    HW251665  12.872   6.780  11.250
49945SOL     OW51666   7.477   8.283   2.012
49945SOL    HW151667   7.448   8.199   1.976
49945SOL    HW251668   7.397   8.335   2.017
49946SOL     OW51669  14.523  14.156   2.907
49946SOL    HW151670  14.609  14.132   2.872
49946SOL    HW251671  14.465  14.084   2.880
49947SOL     OW51672  12.480   0.754   2.440
49947SOL    HW151673  12.408   0.805   2.403
49947SOL    HW251674  12.535   0.733   2.365
49948SOL     OW51675   3.328  13.384   8.852
49948SOL    HW151676   3.253  13.328   8.831
49948SOL    HW251677   3.403  13.335   8.820
49949SOL     OW51678   5.902   4.111  13.744
49949SOL    HW151679   5.916   4.078  13.655
49949SOL    HW251680   5.835   4.179  13.734
49950SOL     OW51681  12.335   7.480   0.320
49950SOL    HW151682  12.417   7.433   0.331
49950SOL    HW251683  12.336   7.509   0.229
49951SOL     OW51684  12.558  11.314   5.968
49951SOL    HW151685  12.466  11.290   5.961
49951SOL    HW251686  12.589  11.270   6.047
49952SOL     OW51687   1.925   3.372   3.503
49952SOL    HW151688   1.927   3.285   3.543
49952SOL    HW251689   2.017   3.392   3.486
49953SOL     OW51690   7.242   5.847   4.295
49953SOL    HW151691   7.206   5.758   4.296
49953SOL    HW251692   7.169   5.903   4.323
49954SOL     OW51693  13.325  13.860  11.476
49954SOL    HW151694  13.355  13.934  11.528
49954SOL    HW251695  13.311  13.896  11.389
49955SOL     OW51696   5.835   6.961  10.284
49955SOL    HW151697   5.841   6.932  10.375
49955SOL    HW251698   5.743   6.947  10.261
49956SOL     OW51699   4.672   0.957   3.400
49956SOL    HW151700   4.662   0.887   3.336
49956SOL    HW251701   4.656   0.916   3.484
49957SOL     OW51702   4.996   0.732   1.631
49957SOL    HW151703   4.952   0.801   1.581
49957SOL    HW251704   5.023   0.775   1.712
49958SOL     OW51705   2.824  12.473  12.538
49958SOL    HW151706   2.826  12.463  12.633
49958SOL    HW251707   2.916  12.483  12.512
49959SOL     OW51708   4.609   3.145  14.738
49959SOL    HW151709   4.635   3.107  14.822
49959SOL    HW251710   4.689   3.187  14.706
49960SOL     OW51711   7.330   6.558   7.335
49960SOL    HW151712   7.333   6.596   7.422
49960SOL    HW251713   7.289   6.625   7.280
49961SOL     OW51714  12.415   3.114   3.971
49961SOL    HW151715  12.388   3.030   4.009
49961SOL    HW251716  12.359   3.179   4.015
49962SOL     OW51717   5.376   4.470   2.275
49962SOL    HW151718   5.456   4.479   2.223
49962SOL    HW251719   5.404   4.483   2.365
49963SOL     OW51720   5.165   0.755  13.172
49963SOL    HW151721   5.114   0.803  13.106
49963SOL    HW251722   5.191   0.823  13.235
49964SOL     OW51723  11.537   9.050   8.891
49964SOL    HW151724  11.597   9.022   8.960
49964SOL    HW251725  11.499   9.132   8.924
49965SOL     OW51726  14.365   3.325   1.717
49965SOL    HW151727  14.391   3.240   1.754
49965SOL    HW251728  14.425   3.338   1.643
49966SOL     OW51729   9.544  10.025  13.910
49966SOL    HW151730   9.513  10.060  13.993
49966SOL    HW251731   9.560   9.933  13.927
49967SOL     OW51732   6.660   5.705   9.272
49967SOL    HW151733   6.568   5.724   9.291
49967SOL    HW251734   6.700   5.695   9.358
49968SOL     OW51735   9.107   1.177  14.767
49968SOL    HW151736   9.057   1.250  14.729
49968SOL    HW251737   9.040   1.117  14.800
49969SOL     OW51738  11.077   8.799   9.841
49969SOL    HW151739  11.003   8.852   9.871
49969SOL    HW251740  11.146   8.863   9.821
49970SOL     OW51741  10.214  14.401   2.449
49970SOL    HW151742  10.144  14.396   2.384
49970SOL    HW251743  10.168  14.410   2.533
49971SOL     OW51744   6.520   3.094   6.466
49971SOL    HW151745   6.536   3.168   6.525
49971SOL    HW251746   6.473   3.132   6.392
49972SOL     OW51747  12.488   2.669  11.876
49972SOL    HW151748  12.517   2.758  11.896
49972SOL    HW251749  12.569   2.619  11.867
49973SOL     OW51750  13.312  13.772   5.036
49973SOL    HW151751  13.395  13.744   4.998
49973SOL    HW251752  13.334  13.846   5.091
49974SOL     OW51753   8.102  13.482  13.971
49974SOL    HW151754   8.076  13.536  13.896
49974SOL    HW251755   8.054  13.519  14.045
49975SOL     OW51756   3.344   4.089  14.612
49975SOL    HW151757   3.440   4.086  14.610
49975SOL    HW251758   3.323   4.166  14.664
49976SOL     OW51759   0.600  10.036  10.951
49976SOL    HW151760   0.513  10.066  10.979
49976SOL    HW251761   0.582   9.971  10.883
49977SOL     OW51762   1.537   3.372   3.633
49977SOL    HW151763   1.600   3.411   3.572
49977SOL    HW251764   1.493   3.446   3.673
49978SOL     OW51765  10.242  13.474  10.066
49978SOL    HW151766  10.179  13.470   9.994
49978SOL    HW251767  10.298  13.548  10.046
49979SOL     OW51768   0.742   6.123   4.780
49979SOL    HW151769   0.704   6.035   4.778
49979SOL    HW251770   0.739   6.148   4.872
49980SOL     OW51771  14.475  11.982  13.018
49980SOL    HW151772  14.515  12.024  12.942
49980SOL    HW251773  14.544  11.985  13.085
49981SOL     OW51774  13.422   4.317   6.647
49981SOL    HW151775  13.485   4.276   6.589
49981SOL    HW251776  13.473   4.344   6.723
49982SOL     OW51777   3.779   7.656   1.971
49982SOL    HW151778   3.768   7.563   1.991
49982SOL    HW251779   3.873   7.670   1.974
49983SOL     OW51780  12.168  14.172  13.108
49983SOL    HW151781  12.112  14.109  13.064
49983SOL    HW251782  12.124  14.189  13.191
49984SOL     OW51783  13.510   3.367  11.844
49984SOL    HW151784  13.537   3.365  11.935
49984SOL    HW251785  13.586   3.332  11.796
49985SOL     OW51786  12.888  10.502   5.946
49985SOL    HW151787  12.818  10.486   6.010
49985SOL    HW251788  12.968  10.506   5.998
49986SOL     OW51789   7.898  10.042  11.286
49986SOL    HW151790   7.981  10.036  11.333
49986SOL    HW251791   7.879  10.136  11.281
49987SOL     OW51792   9.064   8.882   7.752
49987SOL    HW151793   9.043   8.938   7.676
49987SOL    HW251794   9.115   8.810   7.715
49988SOL     OW51795   8.209   0.377   3.872
49988SOL    HW151796   8.271   0.364   3.800
49988SOL    HW251797   8.136   0.426   3.832
49989SOL     OW51798  12.688   8.782  10.050
49989SOL    HW151799  12.597   8.801  10.076
49989SOL    HW251800  12.737   8.784  10.132
49990SOL     OW51801   9.128   5.898  10.088
49990SOL    HW151802   9.106   5.980  10.043
49990SOL    HW251803   9.194   5.923  10.152
49991SOL     OW51804   6.531  11.669   1.782
49991SOL    HW151805   6.520  11.609   1.856
49991SOL    HW251806   6.509  11.616   1.705
49992SOL     OW51807   2.095   0.113   7.987
49992SOL    HW151808   2.041   0.151   7.917
49992SOL    HW251809   2.058   0.149   8.068
49993SOL     OW51810   3.964   7.597   3.959
49993SOL    HW151811   4.051   7.567   3.932
49993SOL    HW251812   3.903   7.534   3.920
49994SOL     OW51813   3.576   3.988   5.970
49994SOL    HW151814   3.529   4.066   5.997
49994SOL    HW251815   3.668   4.010   5.981
49995SOL     OW51816   5.533   6.735   1.523
49995SOL    HW151817   5.592   6.689   1.582
49995SOL    HW251818   5.585   6.752   1.445
49996SOL     OW51819   4.181   6.472   7.752
49996SOL    HW151820   4.129   6.463   7.832
49996SOL    HW251821   4.267   6.502   7.783
49997SOL     OW51822  12.805   8.012   2.013
49997SOL    HW151823  12.776   8.073   1.945
49997SOL    HW251824  12.735   7.947   2.019
49998SOL     OW51825  13.175  11.766   2.109
49998SOL    HW151826  13.182  11.740   2.201
49998SOL    HW251827  13.107  11.708   2.074
49999SOL     OW51828  14.111   0.145   4.575
49999SOL    HW151829  14.094   0.216   4.513
49999SOL    HW251830  14.180   0.180   4.632
50000SOL     OW51831   6.617   5.137   8.695
50000SOL    HW151832   6.651   5.200   8.758
50000SOL    HW251833   6.624   5.182   8.610
50001SOL     OW51834   9.925   2.573   8.287
50001SOL    HW151835   9.923   2.488   8.243
50001SOL    HW251836   9.933   2.552   8.380
50002SOL     OW51837  13.365   3.031   1.832
50002SOL    HW151838  13.441   3.085   1.809
50002SOL    HW251839  13.289   3.083   1.806
50003SOL     OW51840  10.765   4.559   7.059
50003SOL    HW151841  10.750   4.490   6.994
50003SOL    HW251842  10.778   4.512   7.141
50004SOL     OW51843   7.287   9.169   0.545
50004SOL    HW151844   7.373   9.150   0.508
50004SOL    HW251845   7.283   9.118   0.626
50005SOL     OW51846   2.425   8.448   5.413
50005SOL    HW151847   2.419   8.530   5.462
50005SOL    HW251848   2.426   8.380   5.480
50006SOL     OW51849   8.839   7.850   5.025
50006SOL    HW151850   8.861   7.809   5.109
50006SOL    HW251851   8.832   7.943   5.045
50007SOL     OW51852   7.208   5.236   1.011
50007SOL    HW151853   7.114   5.244   1.028
50007SOL    HW251854   7.239   5.173   1.077
50008SOL     OW51855   5.296   4.088   6.648
50008SOL    HW151856   5.346   4.162   6.614
50008SOL    HW251857   5.313   4.017   6.586
50009SOL     OW51858   5.771   6.458  14.626
50009SOL    HW151859   5.863   6.480  14.639
50009SOL    HW251860   5.732   6.538  14.589
50010SOL     OW51861   4.522  11.143   1.629
50010SOL    HW151862   4.452  11.202   1.601
50010SOL    HW251863   4.603  11.188   1.603
50011SOL     OW51864  11.267   1.051   4.094
50011SOL    HW151865  11.287   1.002   4.015
50011SOL    HW251866  11.251   0.984   4.161
50012SOL     OW51867  11.361  12.667  12.300
50012SOL    HW151868  11.384  12.747  12.347
50012SOL    HW251869  11.276  12.641  12.335
50013SOL     OW51870  14.512  11.402  12.358
50013SOL    HW151871  14.485  11.346  12.431
50013SOL    HW251872  14.525  11.343  12.285
50014SOL     OW51873  13.007   8.247   6.988
50014SOL    HW151874  13.028   8.327   7.035
50014SOL    HW251875  13.011   8.271   6.895
50015SOL     OW51876   2.860   6.141   0.561
50015SOL    HW151877   2.809   6.158   0.482
50015SOL    HW251878   2.942   6.189   0.549
50016SOL     OW51879   1.881   6.492   2.860
50016SOL    HW151880   1.854   6.545   2.785
50016SOL    HW251881   1.973   6.516   2.875
50017SOL     OW51882  12.454   6.887  14.033
50017SOL    HW151883  12.430   6.857  13.945
50017SOL    HW251884  12.391   6.956  14.053
50018SOL     OW51885   6.849   3.881   9.411
50018SOL    HW151886   6.789   3.840   9.348
50018SOL    HW251887   6.821   3.846   9.495
50019SOL     OW51888   4.389  11.243   5.630
50019SOL    HW151889   4.400  11.293   5.549
50019SOL    HW251890   4.328  11.173   5.607
50020SOL     OW51891  13.739   5.684  14.460
50020SOL    HW151892  13.755   5.776  14.482
50020SOL    HW251893  13.818   5.638  14.489
50021SOL     OW51894  11.300   6.549   5.129
50021SOL    HW151895  11.376   6.595   5.094
50021SOL    HW251896  11.296   6.468   5.079
50022SOL     OW51897   6.539   1.569   1.915
50022SOL    HW151898   6.565   1.560   1.823
50022SOL    HW251899   6.480   1.644   1.916
50023SOL     OW51900   0.440  10.946   2.925
50023SOL    HW151901   0.411  10.892   2.851
50023SOL    HW251902   0.453  10.883   2.996
50024SOL     OW51903   3.840   1.541  11.111
50024SOL    HW151904   3.862   1.516  11.201
50024SOL    HW251905   3.787   1.468  11.079
50025SOL     OW51906   0.705   5.621   6.862
50025SOL    HW151907   0.664   5.662   6.938
50025SOL    HW251908   0.786   5.583   6.896
50026SOL     OW51909   3.427  12.481  10.290
50026SOL    HW151910   3.464  12.520  10.211
50026SOL    HW251911   3.411  12.556  10.348
50027SOL     OW51912   4.475  10.243   5.376
50027SOL    HW151913   4.471  10.199   5.291
50027SOL    HW251914   4.402  10.206   5.425
50028SOL     OW51915  12.268   1.279   2.460
50028SOL    HW151916  12.237   1.277   2.370
50028SOL    HW251917  12.363   1.267   2.454
50029SOL     OW51918   6.907  13.724   6.219
50029SOL    HW151919   6.837  13.750   6.280
50029SOL    HW251920   6.986  13.724   6.272
50030SOL     OW51921   2.806  13.514   7.119
50030SOL    HW151922   2.765  13.477   7.041
50030SOL    HW251923   2.898  13.489   7.111
50031SOL     OW51924  14.466  13.789   8.417
50031SOL    HW151925  14.425  13.720   8.468
50031SOL    HW251926  14.556  13.760   8.404
50032SOL     OW51927   3.669   5.113  12.621
50032SOL    HW151928   3.760   5.124  12.595
50032SOL    HW251929   3.665   5.142  12.712
50033SOL     OW51930   7.891   0.616   5.363
50033SOL    HW151931   7.963   0.622   5.425
50033SOL    HW251932   7.869   0.706   5.341
50034SOL     OW51933   9.982   4.979  10.523
50034SOL    HW151934  10.040   5.033  10.469
50034SOL    HW251935   9.894   5.011  10.503
50035SOL     OW51936  12.624   9.480  12.456
50035SOL    HW151937  12.706   9.523  12.479
50035SOL    HW251938  12.651   9.397  12.416
50036SOL     OW51939  12.665   8.654   4.698
50036SOL    HW151940  12.659   8.616   4.786
50036SOL    HW251941  12.594   8.718   4.695
50037SOL     OW51942  11.231   7.613   8.057
50037SOL    HW151943  11.162   7.665   8.016
50037SOL    HW251944  11.185   7.547   8.108
50038SOL     OW51945  11.134   6.027  12.950
50038SOL    HW151946  11.134   5.943  12.996
50038SOL    HW251947  11.188   6.084  13.004
50039SOL     OW51948   8.546   4.625   7.284
50039SOL    HW151949   8.533   4.535   7.254
50039SOL    HW251950   8.528   4.679   7.207
50040SOL     OW51951   5.092   2.194  12.838
50040SOL    HW151952   5.167   2.148  12.877
50040SOL    HW251953   5.064   2.256  12.906
50041SOL     OW51954   8.331  10.247   6.080
50041SOL    HW151955   8.290  10.299   6.150
50041SOL    HW251956   8.418  10.226   6.114
50042SOL     OW51957   4.515   2.550  13.397
50042SOL    HW151958   4.422   2.570  13.410
50042SOL    HW251959   4.515   2.466  13.352
50043SOL     OW51960   1.273  12.093  13.566
50043SOL    HW151961   1.369  12.093  13.573
50043SOL    HW251962   1.255  12.080  13.473
50044SOL     OW51963  13.478   6.842   6.030
50044SOL    HW151964  13.421   6.881   6.096
50044SOL    HW251965  13.422   6.778   5.984
50045SOL     OW51966  11.772   1.735   6.279
50045SOL    HW151967  11.811   1.651   6.254
50045SOL    HW251968  11.694   1.711   6.329
50046SOL     OW51969   9.685  12.412   6.784
50046SOL    HW151970   9.672  12.501   6.819
50046SOL    HW251971   9.774  12.389   6.812
50047SOL     OW51972  12.398   0.327  11.163
50047SOL    HW151973  12.384   0.295  11.252
50047SOL    HW251974  12.313   0.315  11.119
50048SOL     OW51975   2.427   5.225   3.217
50048SOL    HW151976   2.444   5.299   3.159
50048SOL    HW251977   2.334   5.207   3.206
50049SOL     OW51978   1.807   7.497   7.316
50049SOL    HW151979   1.773   7.586   7.321
50049SOL    HW251980   1.882   7.503   7.257
50050SOL     OW51981  13.243   8.302   3.600
50050SOL    HW151982  13.283   8.375   3.553
50050SOL    HW251983  13.204   8.343   3.678
50051SOL     OW51984  11.745   2.747   7.471
50051SOL    HW151985  11.815   2.781   7.527
50051SOL    HW251986  11.717   2.666   7.513
50052SOL     OW51987   4.352   5.291   7.765
50052SOL    HW151988   4.277   5.263   7.712
50052SOL    HW251989   4.418   5.316   7.701
50053SOL     OW51990   0.832   1.703   2.209
50053SOL    HW151991   0.822   1.797   2.224
50053SOL    HW251992   0.857   1.697   2.116
50054SOL     OW51993  13.603   4.054  13.015
50054SOL    HW151994  13.697   4.073  13.011
50054SOL    HW251995  13.571   4.075  12.927
50055SOL     OW51996   7.356   4.152   0.480
50055SOL    HW151997   7.342   4.058   0.490
50055SOL    HW251998   7.311   4.175   0.398
50056SOL     OW51999  10.529   2.590  14.640
50056SOL    HW152000  10.436   2.593  14.619
50056SOL    HW252001  10.573   2.627  14.564
50057SOL     OW52002   1.580  11.388   0.627
50057SOL    HW152003   1.527  11.405   0.705
50057SOL    HW252004   1.615  11.474   0.602
50058SOL     OW52005  12.811   0.908   1.423
50058SOL    HW152006  12.887   0.866   1.462
50058SOL    HW252007  12.736   0.860   1.459
50059SOL     OW52008  14.505   1.477   6.758
50059SOL    HW152009  14.535   1.568   6.753
50059SOL    HW252010  14.548   1.433   6.684
50060SOL     OW52011  14.788   5.956   0.046
50060SOL    HW152012  14.771   5.893  14.848
50060SOL    HW252013  14.850   5.912   0.104
50061SOL     OW52014   1.538   7.416   7.634
50061SOL    HW152015   1.468   7.351   7.632
50061SOL    HW252016   1.604   7.381   7.574
50062SOL     OW52017  11.547   8.867   0.958
50062SOL    HW152018  11.618   8.930   0.971
50062SOL    HW252019  11.471   8.920   0.935
50063SOL     OW52020   2.228   2.418   3.530
50063SOL    HW152021   2.268   2.406   3.444
50063SOL    HW252022   2.262   2.345   3.583
50064SOL     OW52023   5.735  10.319   5.726
50064SOL    HW152024   5.765  10.259   5.657
50064SOL    HW252025   5.786  10.398   5.713
50065SOL     OW52026   9.970  11.600  13.870
50065SOL    HW152027  10.026  11.575  13.944
50065SOL    HW252028  10.030  11.604  13.796
50066SOL     OW52029   4.126  10.922   4.313
50066SOL    HW152030   4.216  10.935   4.283
50066SOL    HW252031   4.103  10.835   4.279
50067SOL     OW52032  14.471   5.434  13.714
50067SOL    HW152033  14.518   5.356  13.745
50067SOL    HW252034  14.538   5.502  13.712
50068SOL     OW52035  13.560   6.767  13.045
50068SOL    HW152036  13.608   6.711  13.106
50068SOL    HW252037  13.497   6.814  13.100
50069SOL     OW52038  11.167  13.431   3.047
50069SOL    HW152039  11.198  13.508   2.999
50069SOL    HW252040  11.240  13.406   3.103
50070SOL     OW52041   3.306   7.162  10.486
50070SOL    HW152042   3.258   7.172  10.404
50070SOL    HW252043   3.255   7.099  10.537
50071SOL     OW52044   3.877   8.583  11.880
50071SOL    HW152045   3.918   8.648  11.937
50071SOL    HW252046   3.804   8.549  11.932
50072SOL     OW52047  13.618   7.475   9.383
50072SOL    HW152048  13.696   7.450   9.433
50072SOL    HW252049  13.613   7.570   9.395
50073SOL     OW52050   8.963  14.794   1.309
50073SOL    HW152051   8.984  14.744   1.389
50073SOL    HW252052   9.006   0.006   1.322
50074SOL     OW52053  14.569   4.857   5.347
50074SOL    HW152054  14.540   4.778   5.392
50074SOL    HW252055  14.544   4.929   5.405
50075SOL     OW52056   9.976  12.801   3.444
50075SOL    HW152057   9.922  12.879   3.439
50075SOL    HW252058   9.948  12.747   3.369
50076SOL     OW52059  12.061   6.190  12.818
50076SOL    HW152060  12.116   6.255  12.861
50076SOL    HW252061  12.032   6.232  12.737
50077SOL     OW52062  13.702   6.432   9.688
50077SOL    HW152063  13.793   6.419   9.715
50077SOL    HW252064  13.651   6.406   9.765
50078SOL     OW52065   1.655   8.658   1.980
50078SOL    HW152066   1.592   8.688   2.045
50078SOL    HW252067   1.729   8.718   1.988
50079SOL     OW52068   7.817   3.117   8.042
50079SOL    HW152069   7.731   3.153   8.019
50079SOL    HW252070   7.799   3.025   8.062
50080SOL     OW52071  13.184   4.304   6.787
50080SOL    HW152072  13.214   4.229   6.837
50080SOL    HW252073  13.247   4.312   6.715
50081SOL     OW52074  13.289  10.599  10.007
50081SOL    HW152075  13.263  10.618  10.097
50081SOL    HW252076  13.369  10.651   9.993
50082SOL     OW52077  10.457   1.562   3.911
50082SOL    HW152078  10.520   1.633   3.918
50082SOL    HW252079  10.429   1.545   4.001
50083SOL     OW52080  10.665   7.284   3.629
50083SOL    HW152081  10.673   7.238   3.713
50083SOL    HW252082  10.580   7.329   3.635
50084SOL     OW52083   3.069   4.804   1.634
50084SOL    HW152084   3.042   4.895   1.648
50084SOL    HW252085   3.056   4.790   1.540
50085SOL     OW52086   3.665  13.417   0.064
50085SOL    HW152087   3.624  13.354   0.123
50085SOL    HW252088   3.709  13.363  14.870
50086SOL     OW52089   8.467  10.587   3.596
50086SOL    HW152090   8.390  10.531   3.590
50086SOL    HW252091   8.502  10.587   3.507
50087SOL     OW52092  10.634   9.825  14.825
50087SOL    HW152093  10.683   9.893  14.780
50087SOL    HW252094  10.552   9.818  14.777
50088SOL     OW52095  10.721   0.690   3.229
50088SOL    HW152096  10.704   0.688   3.323
50088SOL    HW252097  10.771   0.770   3.214
50089SOL     OW52098  14.243   6.370  13.258
50089SOL    HW152099  14.280   6.336  13.177
50089SOL    HW252100  14.200   6.295  13.299
50090SOL     OW52101   2.486   3.748  10.998
50090SOL    HW152102   2.431   3.681  10.956
50090SOL    HW252103   2.436   3.775  11.075
50091SOL     OW52104  13.615   4.079  14.645
50091SOL    HW152105  13.698   4.045  14.677
50091SOL    HW252106  13.549   4.025  14.688
50092SOL     OW52107   7.324  14.219   0.208
50092SOL    HW152108   7.403  14.204   0.156
50092SOL    HW252109   7.312  14.314   0.208
50093SOL     OW52110   0.858  13.193   8.710
50093SOL    HW152111   0.925  13.137   8.747
50093SOL    HW252112   0.817  13.140   8.641
50094SOL     OW52113   0.429   1.010  11.210
50094SOL    HW152114   0.472   0.946  11.152
50094SOL    HW252115   0.485   1.087  11.206
50095SOL     OW52116   3.249   3.375   0.420
50095SOL    HW152117   3.298   3.443   0.373
50095SOL    HW252118   3.162   3.378   0.380
50096SOL     OW52119   0.658   0.019   2.881
50096SOL    HW152120   0.579   0.072   2.871
50096SOL    HW252121   0.629  14.801   2.864
50097SOL     OW52122   0.554   2.058   7.111
50097SOL    HW152123   0.513   2.022   7.189
50097SOL    HW252124   0.575   1.982   7.057
50098SOL     OW52125   7.197   5.530  12.850
50098SOL    HW152126   7.148   5.552  12.771
50098SOL    HW252127   7.280   5.576  12.842
50099SOL     OW52128   0.690   3.305   5.814
50099SOL    HW152129   0.600   3.336   5.800
50099SOL    HW252130   0.692   3.280   5.907
50100SOL     OW52131   1.760   5.521   9.109
50100SOL    HW152132   1.769   5.453   9.043
50100SOL    HW252133   1.843   5.569   9.105
50101SOL     OW52134   2.342   1.006   7.364
50101SOL    HW152135   2.424   0.961   7.344
50101SOL    HW252136   2.362   1.099   7.349
50102SOL     OW52137   3.618  11.559   5.528
50102SOL    HW152138   3.635  11.642   5.482
50102SOL    HW252139   3.528  11.536   5.505
50103SOL     OW52140   3.439   2.462   4.704
50103SOL    HW152141   3.432   2.376   4.744
50103SOL    HW252142   3.354   2.477   4.663
50104SOL     OW52143  11.461  13.382   2.833
50104SOL    HW152144  11.525  13.376   2.904
50104SOL    HW252145  11.446  13.476   2.823
50105SOL     OW52146   8.587   5.181   4.091
50105SOL    HW152147   8.521   5.117   4.064
50105SOL    HW252148   8.602   5.164   4.184
50106SOL     OW52149   3.468   6.754  11.444
50106SOL    HW152150   3.379   6.765  11.476
50106SOL    HW252151   3.474   6.661  11.421
50107SOL     OW52152   1.736   7.532  13.121
50107SOL    HW152153   1.826   7.566  13.125
50107SOL    HW252154   1.726   7.502  13.031
50108SOL     OW52155   2.669   5.914  10.074
50108SOL    HW152156   2.609   5.981  10.041
50108SOL    HW252157   2.666   5.845  10.007
50109SOL     OW52158   4.893   4.970   3.299
50109SOL    HW152159   4.895   4.881   3.265
50109SOL    HW252160   4.951   4.969   3.375
50110SOL     OW52161   0.220   9.994   6.488
50110SOL    HW152162   0.313   9.971   6.493
50110SOL    HW252163   0.219  10.085   6.457
50111SOL     OW52164   8.783   2.052   7.029
50111SOL    HW152165   8.820   2.130   7.071
50111SOL    HW252166   8.712   2.025   7.086
50112SOL     OW52167  12.756  14.441  13.200
50112SOL    HW152168  12.745  14.362  13.253
50112SOL    HW252169  12.675  14.448  13.150
50113SOL     OW52170  13.867  10.715   7.221
50113SOL    HW152171  13.909  10.702   7.306
50113SOL    HW252172  13.783  10.670   7.229
50114SOL     OW52173  13.205   3.164   0.306
50114SOL    HW152174  13.143   3.154   0.234
50114SOL    HW252175  13.204   3.080   0.351
50115SOL     OW52176   0.786  11.000   2.831
50115SOL    HW152177   0.775  11.067   2.900
50115SOL    HW252178   0.740  10.924   2.864
50116SOL     OW52179  12.682   4.050  10.213
50116SOL    HW152180  12.616   4.080  10.276
50116SOL    HW252181  12.631   4.024  10.136
50117SOL     OW52182  13.954   0.138   5.194
50117SOL    HW152183  13.862   0.156   5.173
50117SOL    HW252184  13.956   0.046   5.219
50118SOL     OW52185   4.566  13.474   2.250
50118SOL    HW152186   4.625  13.408   2.286
50118SOL    HW252187   4.615  13.514   2.178
50119SOL     OW52188   5.482   4.057  12.073
50119SOL    HW152189   5.544   4.124  12.046
50119SOL    HW252190   5.397   4.103  12.076
50120SOL     OW52191   8.007  10.584   2.368
50120SOL    HW152192   7.946  10.565   2.297
50120SOL    HW252193   7.956  10.638   2.429
50121SOL     OW52194   2.302   0.743   2.022
50121SOL    HW152195   2.343   0.773   1.941
50121SOL    HW252196   2.208   0.741   2.001
50122SOL     OW52197   5.266  14.799   0.464
50122SOL    HW152198   5.294  14.732   0.401
50122SOL    HW252199   5.267   0.009   0.413
50123SOL     OW52200   5.761   3.397   4.355
50123SOL    HW152201   5.774   3.485   4.390
50123SOL    HW252202   5.669   3.378   4.372
50124SOL     OW52203   0.620   8.348  14.537
50124SOL    HW152204   0.637   8.427  14.485
50124SOL    HW252205   0.592   8.381  14.623
50125SOL     OW52206   5.234   2.474  11.480
50125SOL    HW152207   5.201   2.489  11.392
50125SOL    HW252208   5.175   2.523  11.537
50126SOL     OW52209   6.541   8.138  12.536
50126SOL    HW152210   6.591   8.193  12.476
50126SOL    HW252211   6.576   8.050  12.523
50127SOL     OW52212   8.713  14.658   1.270
50127SOL    HW152213   8.792  14.711   1.281
50127SOL    HW252214   8.645  14.720   1.246
50128SOL     OW52215   6.378  14.710   3.464
50128SOL    HW152216   6.335  14.779   3.515
50128SOL    HW252217   6.470  14.714   3.490
50129SOL     OW52218  13.057   0.143   1.116
50129SOL    HW152219  13.104   0.170   1.195
50129SOL    HW252220  13.108   0.069   1.081
50130SOL     OW52221  14.059   9.184   1.648
50130SOL    HW152222  14.015   9.245   1.589
50130SOL    HW252223  14.059   9.101   1.601
50131SOL     OW52224   7.828   3.015   2.457
50131SOL    HW152225   7.862   3.092   2.413
50131SOL    HW252226   7.886   3.002   2.532
50132SOL     OW52227   5.793   5.090  11.412
50132SOL    HW152228   5.703   5.100  11.443
50132SOL    HW252229   5.811   5.168  11.360
50133SOL     OW52230   1.524   8.693   3.303
50133SOL    HW152231   1.452   8.740   3.346
50133SOL    HW252232   1.603   8.726   3.345
50134SOL     OW52233  14.310  11.308  14.133
50134SOL    HW152234  14.249  11.238  14.159
50134SOL    HW252235  14.302  11.374  14.202
50135SOL     OW52236   4.374  12.533   9.036
50135SOL    HW152237   4.349  12.555   8.947
50135SOL    HW252238   4.429  12.455   9.027
50136SOL     OW52239   1.974  10.019   0.824
50136SOL    HW152240   1.901  10.000   0.765
50136SOL    HW252241   1.997   9.933   0.862
50137SOL     OW52242   4.856   3.011  14.491
50137SOL    HW152243   4.941   2.997  14.449
50137SOL    HW252244   4.800   2.941  14.457
50138SOL     OW52245  10.645  14.556   9.283
50138SOL    HW152246  10.595  14.496   9.338
50138SOL    HW252247  10.707  14.597   9.343
50139SOL     OW52248   9.103  13.813   2.346
50139SOL    HW152249   9.081  13.878   2.412
50139SOL    HW252250   9.023  13.762   2.335
50140SOL     OW52251   0.509  10.937   7.049
50140SOL    HW152252   0.578  10.980   7.100
50140SOL    HW252253   0.444  11.006   7.034
50141SOL     OW52254  14.096  11.105  11.850
50141SOL    HW152255  14.038  11.147  11.913
50141SOL    HW252256  14.150  11.045  11.902
50142SOL     OW52257   9.023  14.048   8.153
50142SOL    HW152258   9.040  13.956   8.169
50142SOL    HW252259   9.009  14.054   8.059
50143SOL     OW52260  12.561   2.652   6.030
50143SOL    HW152261  12.478   2.671   5.986
50143SOL    HW252262  12.538   2.648   6.123
50144SOL     OW52263   7.543  14.712  14.850
50144SOL    HW152264   7.581  14.685  14.767
50144SOL    HW252265   7.487  14.787  14.828
50145SOL     OW52266  12.648  10.135   0.372
50145SOL    HW152267  12.674  10.196   0.442
50145SOL    HW252268  12.597  10.188   0.312
50146SOL     OW52269   4.061   5.301   9.850
50146SOL    HW152270   4.080   5.219   9.804
50146SOL    HW252271   4.072   5.280   9.943
50147SOL     OW52272   3.370   9.224  10.328
50147SOL    HW152273   3.366   9.245  10.421
50147SOL    HW252274   3.281   9.201  10.303
50148SOL     OW52275   9.724   8.915   6.381
50148SOL    HW152276   9.643   8.911   6.330
50148SOL    HW252277   9.778   8.844   6.346
50149SOL     OW52278  12.179   3.982   3.557
50149SOL    HW152279  12.159   4.062   3.508
50149SOL    HW252280  12.150   4.001   3.646
50150SOL     OW52281   1.695   3.783   1.972
50150SOL    HW152282   1.708   3.859   1.915
50150SOL    HW252283   1.680   3.710   1.912
50151SOL     OW52284   5.217   2.263   0.780
50151SOL    HW152285   5.262   2.181   0.797
50151SOL    HW252286   5.265   2.302   0.707
50152SOL     OW52287   9.350   2.581  11.211
50152SOL    HW152288   9.311   2.513  11.157
50152SOL    HW252289   9.285   2.651  11.212
50153SOL     OW52290  14.012   0.773   3.595
50153SOL    HW152291  14.068   0.774   3.672
50153SOL    HW252292  13.923   0.781   3.630
50154SOL     OW52293   7.205   6.346   2.577
50154SOL    HW152294   7.274   6.302   2.527
50154SOL    HW252295   7.187   6.425   2.526
50155SOL     OW52296   9.544  11.508   5.663
50155SOL    HW152297   9.507  11.485   5.748
50155SOL    HW252298   9.494  11.457   5.600
50156SOL     OW52299   7.177   2.414   8.508
50156SOL    HW152300   7.100   2.410   8.450
50156SOL    HW252301   7.252   2.402   8.450
50157SOL     OW52302   7.339   4.694   7.888
50157SOL    HW152303   7.281   4.769   7.874
50157SOL    HW252304   7.389   4.686   7.807
50158SOL     OW52305   5.932   9.832   1.931
50158SOL    HW152306   6.011   9.859   1.977
50158SOL    HW252307   5.883   9.779   1.994
50159SOL     OW52308   8.848   5.123   6.830
50159SOL    HW152309   8.915   5.187   6.808
50159SOL    HW252310   8.894   5.055   6.878
50160SOL     OW52311   1.302   8.011  12.277
50160SOL    HW152312   1.306   8.033  12.184
50160SOL    HW252313   1.391   8.023  12.310
50161SOL     OW52314   0.126   6.083  14.571
50161SOL    HW152315   0.167   6.143  14.633
50161SOL    HW252316   0.197   6.027  14.540
50162SOL     OW52317  12.169   9.458   4.469
50162SOL    HW152318  12.112   9.531   4.447
50162SOL    HW252319  12.110   9.388   4.498
50163SOL     OW52320   0.507   9.294   3.301
50163SOL    HW152321   0.551   9.378   3.283
50163SOL    HW252322   0.541   9.266   3.385
50164SOL     OW52323   3.142   5.333   4.704
50164SOL    HW152324   3.047   5.339   4.710
50164SOL    HW252325   3.174   5.408   4.755
50165SOL     OW52326   6.494  12.504   6.706
50165SOL    HW152327   6.533  12.487   6.621
50165SOL    HW252328   6.558  12.472   6.770
50166SOL     OW52329  12.373   0.833   6.682
50166SOL    HW152330  12.345   0.744   6.661
50166SOL    HW252331  12.405   0.828   6.772
50167SOL     OW52332   4.823  12.727   2.617
50167SOL    HW152333   4.859  12.741   2.529
50167SOL    HW252334   4.901  12.716   2.672
50168SOL     OW52335  14.106   3.899   7.325
50168SOL    HW152336  14.065   3.977   7.287
50168SOL    HW252337  14.033   3.849   7.361
50169SOL     OW52338   1.578   3.824   4.780
50169SOL    HW152339   1.608   3.861   4.697
50169SOL    HW252340   1.485   3.808   4.767
50170SOL     OW52341  10.446  14.277  10.723
50170SOL    HW152342  10.536  14.305  10.744
50170SOL    HW252343  10.426  14.321  10.641
50171SOL     OW52344   2.478  12.925   8.768
50171SOL    HW152345   2.489  12.830   8.764
50171SOL    HW252346   2.406  12.944   8.707
50172SOL     OW52347   6.881   8.105   7.474
50172SOL    HW152348   6.827   8.183   7.461
50172SOL    HW252349   6.921   8.118   7.559
50173SOL     OW52350   4.556  12.358  13.144
50173SOL    HW152351   4.515  12.412  13.076
50173SOL    HW252352   4.484  12.305  13.179
50174SOL     OW52353   3.452   8.102   5.914
50174SOL    HW152354   3.426   8.043   5.843
50174SOL    HW252355   3.540   8.073   5.938
50175SOL     OW52356   0.664   2.437  12.466
50175SOL    HW152357   0.617   2.474  12.540
50175SOL    HW252358   0.636   2.346  12.463
50176SOL     OW52359   8.698   3.981  11.234
50176SOL    HW152360   8.772   3.976  11.173
50176SOL    HW252361   8.659   3.893  11.230
50177SOL     OW52362  13.885   6.281   3.539
50177SOL    HW152363  13.800   6.321   3.517
50177SOL    HW252364  13.935   6.353   3.579
50178SOL     OW52365   8.321   1.484   7.607
50178SOL    HW152366   8.308   1.523   7.520
50178SOL    HW252367   8.248   1.516   7.659
50179SOL     OW52368  12.687   8.253  12.691
50179SOL    HW152369  12.743   8.180  12.718
50179SOL    HW252370  12.624   8.213  12.631
50180SOL     OW52371  14.109   3.868   6.469
50180SOL    HW152372  14.019   3.898   6.457
50180SOL    HW252373  14.113   3.843   6.561
50181SOL     OW52374   1.986  10.410  11.821
50181SOL    HW152375   2.005  10.459  11.901
50181SOL    HW252376   2.053  10.341  11.819
50182SOL     OW52377   3.346   8.122   3.960
50182SOL    HW152378   3.437   8.151   3.949
50182SOL    HW252379   3.294   8.202   3.955
50183SOL     OW52380  12.933   9.577  12.946
50183SOL    HW152381  12.848   9.578  12.903
50183SOL    HW252382  12.996   9.585  12.874
50184SOL     OW52383   2.156   2.658   0.034
50184SOL    HW152384   2.190   2.710   0.107
50184SOL    HW252385   2.097   2.594   0.076
50185SOL     OW52386  10.321   7.619   6.272
50185SOL    HW152387  10.319   7.653   6.362
50185SOL    HW252388  10.242   7.655   6.231
50186SOL     OW52389  12.617   0.919  13.495
50186SOL    HW152390  12.589   1.011  13.490
50186SOL    HW252391  12.675   0.908  13.420
50187SOL     OW52392   9.383  13.056   8.055
50187SOL    HW152393   9.289  13.038   8.056
50187SOL    HW252394   9.395  13.124   7.989
50188SOL     OW52395  13.202   9.282   8.609
50188SOL    HW152396  13.215   9.279   8.514
50188SOL    HW252397  13.143   9.355   8.623
50189SOL     OW52398  12.009  14.383  10.980
50189SOL    HW152399  12.046  14.469  10.997
50189SOL    HW252400  11.924  14.384  11.022
50190SOL     OW52401   2.114   7.694   9.642
50190SOL    HW152402   2.045   7.643   9.685
50190SOL    HW252403   2.196   7.658   9.675
50191SOL     OW52404   1.911  14.154   1.818
50191SOL    HW152405   1.952  14.158   1.904
50191SOL    HW252406   1.962  14.090   1.769
50192SOL     OW52407   3.831   9.232   3.739
50192SOL    HW152408   3.771   9.169   3.700
50192SOL    HW252409   3.918   9.203   3.710
50193SOL     OW52410   1.497  11.155   9.960
50193SOL    HW152411   1.500  11.221   9.891
50193SOL    HW252412   1.550  11.083   9.927
50194SOL     OW52413   3.593  11.611   7.704
50194SOL    HW152414   3.575  11.531   7.654
50194SOL    HW252415   3.552  11.680   7.652
50195SOL     OW52416   0.044   2.199   2.750
50195SOL    HW152417   0.051   2.156   2.835
50195SOL    HW252418   0.132   2.234   2.734
50196SOL     OW52419   0.467   4.346   6.560
50196SOL    HW152420   0.490   4.369   6.650
50196SOL    HW252421   0.371   4.352   6.557
50197SOL     OW52422  13.517   8.388   9.509
50197SOL    HW152423  13.576   8.350   9.444
50197SOL    HW252424  13.559   8.368   9.593
50198SOL     OW52425   3.198  12.977   3.076
50198SOL    HW152426   3.282  13.016   3.102
50198SOL    HW252427   3.148  12.972   3.158
50199SOL     OW52428   4.960  11.460   9.199
50199SOL    HW152429   5.021  11.416   9.140
50199SOL    HW252430   4.877  11.414   9.189
50200SOL     OW52431  13.539  11.155   7.997
50200SOL    HW152432  13.469  11.210   7.963
50200SOL    HW252433  13.608  11.160   7.931
50201SOL     OW52434   2.800   6.510  11.161
50201SOL    HW152435   2.789   6.449  11.235
50201SOL    HW252436   2.728   6.488  11.102
50202SOL     OW52437  12.845   0.279  10.914
50202SOL    HW152438  12.813   0.273  10.824
50202SOL    HW252439  12.772   0.247  10.967
50203SOL     OW52440  10.981  10.825   5.829
50203SOL    HW152441  10.987  10.826   5.925
50203SOL    HW252442  11.051  10.766   5.802
50204SOL     OW52443   2.468   6.801   3.201
50204SOL    HW152444   2.483   6.706   3.198
50204SOL    HW252445   2.512   6.829   3.281
50205SOL     OW52446   2.162  12.591   3.409
50205SOL    HW152447   2.242  12.645   3.405
50205SOL    HW252448   2.153  12.556   3.320
50206SOL     OW52449  10.629   2.272   6.096
50206SOL    HW152450  10.539   2.240   6.084
50206SOL    HW252451  10.672   2.252   6.013
50207SOL     OW52452   3.072  12.966  13.726
50207SOL    HW152453   3.094  13.058  13.711
50207SOL    HW252454   3.030  12.938  13.645
50208SOL     OW52455   2.055   2.998  10.071
50208SOL    HW152456   2.122   3.054  10.032
50208SOL    HW252457   2.008   3.055  10.132
50209SOL     OW52458   7.028   4.303  11.058
50209SOL    HW152459   7.001   4.353  11.134
50209SOL    HW252460   6.950   4.253  11.033
50210SOL     OW52461   9.325   6.965   0.938
50210SOL    HW152462   9.362   7.040   0.891
50210SOL    HW252463   9.385   6.949   1.010
50211SOL     OW52464   3.006   0.533   9.329
50211SOL    HW152465   3.014   0.625   9.306
50211SOL    HW252466   3.013   0.486   9.246
50212SOL     OW52467   7.615   5.526   9.166
50212SOL    HW152468   7.560   5.559   9.236
50212SOL    HW252469   7.701   5.513   9.207
50213SOL     OW52470   0.535   5.805   2.864
50213SOL    HW152471   0.542   5.898   2.846
50213SOL    HW252472   0.576   5.794   2.950
50214SOL     OW52473   2.363   4.591   5.488
50214SOL    HW152474   2.408   4.673   5.472
50214SOL    HW252475   2.342   4.592   5.582
50215SOL     OW52476   2.663  14.253   3.784
50215SOL    HW152477   2.746  14.256   3.832
50215SOL    HW252478   2.598  14.283   3.847
50216SOL     OW52479   0.552  14.200   7.496
50216SOL    HW152480   0.613  14.238   7.433
50216SOL    HW252481   0.600  14.127   7.535
50217SOL     OW52482   0.313   6.600   3.199
50217SOL    HW152483   0.236   6.645   3.163
50217SOL    HW252484   0.297   6.508   3.182
50218SOL     OW52485  13.212  13.541   7.117
50218SOL    HW152486  13.165  13.484   7.056
50218SOL    HW252487  13.181  13.514   7.204
50219SOL     OW52488   4.711   9.775   2.171
50219SOL    HW152489   4.639   9.813   2.221
50219SOL    HW252490   4.790   9.799   2.220
50220SOL     OW52491   1.085   8.828  14.564
50220SOL    HW152492   1.120   8.916  14.554
50220SOL    HW252493   1.141   8.786  14.629
50221SOL     OW52494  10.590  12.432   8.215
50221SOL    HW152495  10.540  12.386   8.147
50221SOL    HW252496  10.539  12.512   8.230
50222SOL     OW52497  14.602  13.155  12.195
50222SOL    HW152498  14.654  13.174  12.273
50222SOL    HW252499  14.647  13.202  12.125
50223SOL     OW52500   8.646   4.331  10.446
50223SOL    HW152501   8.566   4.290  10.481
50223SOL    HW252502   8.626   4.347  10.354
50224SOL     OW52503   4.600  10.373  11.720
50224SOL    HW152504   4.657  10.327  11.782
50224SOL    HW252505   4.529  10.408  11.775
50225SOL     OW52506   3.629   8.264  12.450
50225SOL    HW152507   3.608   8.357  12.442
50225SOL    HW252508   3.546   8.223  12.475
50226SOL     OW52509   1.370   3.120  13.544
50226SOL    HW152510   1.347   3.184  13.612
50226SOL    HW252511   1.287   3.079  13.521
50227SOL     OW52512  12.667   7.339   1.292
50227SOL    HW152513  12.681   7.433   1.302
50227SOL    HW252514  12.681   7.322   1.199
50228SOL     OW52515   1.581   9.784   7.419
50228SOL    HW152516   1.569   9.874   7.389
50228SOL    HW252517   1.520   9.774   7.492
50229SOL     OW52518   2.523   8.289  12.559
50229SOL    HW152519   2.484   8.274  12.473
50229SOL    HW252520   2.573   8.370  12.549
50230SOL     OW52521  11.326  12.452   3.550
50230SOL    HW152522  11.379  12.470   3.473
50230SOL    HW252523  11.288  12.537   3.573
50231SOL     OW52524  14.274  11.482  11.527
50231SOL    HW152525  14.245  11.435  11.605
50231SOL    HW252526  14.244  11.572  11.541
50232SOL     OW52527  14.788   7.717   6.510
50232SOL    HW152528  14.787   7.636   6.562
50232SOL    HW252529  14.714   7.768   6.545
50233SOL     OW52530   6.894  12.987   9.061
50233SOL    HW152531   6.928  13.060   9.113
50233SOL    HW252532   6.925  13.006   8.972
50234SOL     OW52533   9.899   5.346   8.791
50234SOL    HW152534   9.931   5.322   8.704
50234SOL    HW252535   9.817   5.299   8.801
50235SOL     OW52536   2.114   0.301   9.828
50235SOL    HW152537   2.047   0.275   9.892
50235SOL    HW252538   2.135   0.391   9.851
50236SOL     OW52539  12.396   5.645  12.049
50236SOL    HW152540  12.363   5.674  11.964
50236SOL    HW252541  12.323   5.600  12.089
50237SOL     OW52542   9.497  12.865  10.173
50237SOL    HW152543   9.502  12.886  10.267
50237SOL    HW252544   9.588  12.863  10.144
50238SOL     OW52545  13.610   0.511  13.250
50238SOL    HW152546  13.664   0.589  13.239
50238SOL    HW252547  13.521   0.540  13.227
50239SOL     OW52548   3.766  11.774   6.300
50239SOL    HW152549   3.775  11.704   6.365
50239SOL    HW252550   3.727  11.731   6.224
50240SOL     OW52551  10.270   7.592  14.309
50240SOL    HW152552  10.334   7.604  14.239
50240SOL    HW252553  10.186   7.588  14.264
50241SOL     OW52554   1.418   3.853   4.514
50241SOL    HW152555   1.430   3.947   4.529
50241SOL    HW252556   1.349   3.828   4.575
50242SOL     OW52557   3.595   9.562   2.399
50242SOL    HW152558   3.500   9.575   2.399
50242SOL    HW252559   3.630   9.635   2.348
50243SOL     OW52560   7.064   1.765  14.347
50243SOL    HW152561   7.152   1.778  14.384
50243SOL    HW252562   7.009   1.748  14.424
50244SOL     OW52563  11.179   6.958  11.285
50244SOL    HW152564  11.185   7.051  11.305
50244SOL    HW252565  11.266   6.923  11.304
50245SOL     OW52566   9.703   4.667  13.202
50245SOL    HW152567   9.664   4.718  13.274
50245SOL    HW252568   9.629   4.647  13.145
50246SOL     OW52569   9.040  10.910   1.953
50246SOL    HW152570   8.955  10.888   1.914
50246SOL    HW252571   9.058  10.998   1.922
50247SOL     OW52572   4.391   9.460   5.553
50247SOL    HW152573   4.317   9.404   5.529
50247SOL    HW252574   4.355   9.520   5.619
50248SOL     OW52575  10.182   7.848   2.400
50248SOL    HW152576  10.171   7.828   2.493
50248SOL    HW252577  10.228   7.931   2.398
50249SOL     OW52578   6.230   3.076   0.094
50249SOL    HW152579   6.173   3.034   0.030
50249SOL    HW252580   6.275   3.145   0.044
50250SOL     OW52581  12.551   3.127   3.494
50250SOL    HW152582  12.576   3.051   3.442
50250SOL    HW252583  12.516   3.091   3.575
50251SOL     OW52584   8.713   4.338   5.629
50251SOL    HW152585   8.752   4.413   5.585
50251SOL    HW252586   8.699   4.273   5.560
50252SOL     OW52587   6.841  11.393   5.253
50252SOL    HW152588   6.827  11.470   5.198
50252SOL    HW252589   6.795  11.413   5.334
50253SOL     OW52590   1.311   9.736   4.917
50253SOL    HW152591   1.279   9.668   4.976
50253SOL    HW252592   1.271   9.817   4.950
50254SOL     OW52593   8.939   7.261   9.052
50254SOL    HW152594   8.857   7.302   9.079
50254SOL    HW252595   8.977   7.227   9.133
50255SOL     OW52596   9.412   1.519   7.567
50255SOL    HW152597   9.435   1.443   7.514
50255SOL    HW252598   9.423   1.593   7.508
50256SOL     OW52599  14.647   3.612   0.071
50256SOL    HW152600  14.582   3.567   0.017
50256SOL    HW252601  14.731   3.593   0.030
50257SOL     OW52602   4.067   2.820   2.000
50257SOL    HW152603   4.113   2.786   2.076
50257SOL    HW252604   4.102   2.770   1.926
50258SOL     OW52605   9.873  13.669   5.210
50258SOL    HW152606   9.857  13.756   5.174
50258SOL    HW252607   9.889  13.614   5.134
50259SOL     OW52608   7.518   6.233  11.829
50259SOL    HW152609   7.479   6.316  11.859
50259SOL    HW252610   7.612   6.250  11.832
50260SOL     OW52611  13.185  10.118   9.448
50260SOL    HW152612  13.112  10.178   9.435
50260SOL    HW252613  13.170  10.080   9.535
50261SOL     OW52614   5.113   3.725   7.714
50261SOL    HW152615   5.118   3.804   7.767
50261SOL    HW252616   5.188   3.731   7.654
50262SOL     OW52617   4.415   2.776  11.568
50262SOL    HW152618   4.484   2.774  11.502
50262SOL    HW252619   4.423   2.862  11.609
50263SOL     OW52620   7.180   5.734   0.808
50263SOL    HW152621   7.228   5.749   0.726
50263SOL    HW252622   7.236   5.676   0.859
50264SOL     OW52623   6.578  10.727   7.497
50264SOL    HW152624   6.555  10.802   7.442
50264SOL    HW252625   6.662  10.751   7.536
50265SOL     OW52626  12.153   2.457   3.465
50265SOL    HW152627  12.204   2.381   3.492
50265SOL    HW252628  12.102   2.426   3.390
50266SOL     OW52629   1.694   2.947   2.023
50266SOL    HW152630   1.695   3.025   1.968
50266SOL    HW252631   1.733   2.878   1.968
50267SOL     OW52632   5.264  10.517   3.260
50267SOL    HW152633   5.247  10.551   3.348
50267SOL    HW252634   5.185  10.468   3.238
50268SOL     OW52635   3.777  14.302  10.816
50268SOL    HW152636   3.720  14.236  10.856
50268SOL    HW252637   3.749  14.385  10.855
50269SOL     OW52638  11.899   1.810  11.573
50269SOL    HW152639  11.831   1.876  11.587
50269SOL    HW252640  11.961   1.852  11.513
50270SOL     OW52641   0.360   6.652   9.501
50270SOL    HW152642   0.411   6.691   9.572
50270SOL    HW252643   0.382   6.705   9.424
50271SOL     OW52644  10.002   4.421   5.246
50271SOL    HW152645  10.014   4.348   5.186
50271SOL    HW252646   9.908   4.425   5.260
50272SOL     OW52647  11.504  10.633  13.014
50272SOL    HW152648  11.547  10.569  13.070
50272SOL    HW252649  11.411  10.611  13.019
50273SOL     OW52650   3.644  14.542   4.082
50273SOL    HW152651   3.627  14.453   4.053
50273SOL    HW252652   3.731  14.538   4.122
50274SOL     OW52653  13.021   0.902  14.478
50274SOL    HW152654  13.108   0.937  14.457
50274SOL    HW252655  12.970   0.916  14.399
50275SOL     OW52656   2.892   2.047   4.141
50275SOL    HW152657   2.898   2.085   4.229
50275SOL    HW252658   2.803   2.011   4.137
50276SOL     OW52659   1.966   7.866   1.843
50276SOL    HW152660   1.879   7.834   1.866
50276SOL    HW252661   2.024   7.832   1.911
50277SOL     OW52662   2.943  12.897   4.377
50277SOL    HW152663   2.981  12.939   4.299
50277SOL    HW252664   3.005  12.828   4.400
50278SOL     OW52665   3.818  10.991   2.089
50278SOL    HW152666   3.760  10.914   2.084
50278SOL    HW252667   3.905  10.954   2.103
50279SOL     OW52668  14.859   4.833   0.853
50279SOL    HW152669  14.869   4.804   0.943
50279SOL    HW252670  14.766   4.820   0.834
50280SOL     OW52671  11.522   9.771   9.729
50280SOL    HW152672  11.439   9.725   9.736
50280SOL    HW252673  11.579   9.730   9.794
50281SOL     OW52674   9.471   9.513   3.518
50281SOL    HW152675   9.516   9.440   3.560
50281SOL    HW252676   9.540   9.559   3.470
50282SOL     OW52677   0.874  14.712   7.677
50282SOL    HW152678   0.941  14.780   7.688
50282SOL    HW252679   0.923  14.635   7.648
50283SOL     OW52680   3.725   7.946   4.266
50283SOL    HW152681   3.771   8.009   4.321
50283SOL    HW252682   3.684   7.999   4.198
50284SOL     OW52683   1.556  11.624  10.391
50284SOL    HW152684   1.646  11.604  10.366
50284SOL    HW252685   1.510  11.540  10.385
50285SOL     OW52686  14.749   4.664   7.447
50285SOL    HW152687  14.829   4.626   7.484
50285SOL    HW252688  14.767   4.670   7.353
50286SOL     OW52689   2.855  10.136   5.153
50286SOL    HW152690   2.944  10.101   5.157
50286SOL    HW252691   2.866  10.231   5.154
50287SOL     OW52692   7.308   8.289   4.396
50287SOL    HW152693   7.403   8.290   4.382
50287SOL    HW252694   7.285   8.380   4.412
50288SOL     OW52695   6.407   8.479   0.421
50288SOL    HW152696   6.406   8.514   0.332
50288SOL    HW252697   6.402   8.556   0.477
50289SOL     OW52698   6.155   7.513   7.337
50289SOL    HW152699   6.097   7.448   7.377
50289SOL    HW252700   6.238   7.467   7.325
50290SOL     OW52701   5.116   5.769   7.721
50290SOL    HW152702   5.160   5.733   7.797
50290SOL    HW252703   5.061   5.839   7.756
50291SOL     OW52704   2.038   3.121   6.787
50291SOL    HW152705   2.080   3.188   6.733
50291SOL    HW252706   1.995   3.170   6.858
50292SOL     OW52707   8.082   5.123  13.575
50292SOL    HW152708   8.058   5.051  13.517
50292SOL    HW252709   8.012   5.187  13.564
50293SOL     OW52710   7.745   9.836   2.623
50293SOL    HW152711   7.687   9.781   2.675
50293SOL    HW252712   7.796   9.885   2.687
50294SOL     OW52713   2.663   2.764  12.127
50294SOL    HW152714   2.568   2.774  12.114
50294SOL    HW252715   2.700   2.845  12.092
50295SOL     OW52716  13.002   7.574   4.233
50295SOL    HW152717  13.046   7.600   4.314
50295SOL    HW252718  12.945   7.502   4.259
50296SOL     OW52719   1.655   1.723   8.941
50296SOL    HW152720   1.678   1.682   9.024
50296SOL    HW252721   1.640   1.815   8.963
50297SOL     OW52722  13.817  12.884   8.986
50297SOL    HW152723  13.768  12.907   8.907
50297SOL    HW252724  13.909  12.883   8.959
50298SOL     OW52725  11.879   4.542   9.793
50298SOL    HW152726  11.970   4.569   9.795
50298SOL    HW252727  11.882   4.450   9.765
50299SOL     OW52728   9.612   0.514   9.723
50299SOL    HW152729   9.648   0.431   9.754
50299SOL    HW252730   9.653   0.528   9.638
50300SOL     OW52731  10.651   9.508  10.779
50300SOL    HW152732  10.637   9.482  10.870
50300SOL    HW252733  10.581   9.463  10.731
50301SOL     OW52734   7.100   4.076   0.618
50301SOL    HW152735   7.167   4.012   0.593
50301SOL    HW252736   7.043   4.083   0.541
50302SOL     OW52737   4.811  13.854   0.213
50302SOL    HW152738   4.901  13.859   0.245
50302SOL    HW252739   4.770  13.785   0.265
50303SOL     OW52740  10.667   2.230  11.193
50303SOL    HW152741  10.634   2.319  11.206
50303SOL    HW252742  10.706   2.206  11.277
50304SOL     OW52743  13.725  12.396   4.091
50304SOL    HW152744  13.653  12.440   4.047
50304SOL    HW252745  13.718  12.305   4.063
50305SOL     OW52746   4.026   3.448  12.483
50305SOL    HW152747   3.982   3.401  12.412
50305SOL    HW252748   4.112   3.407  12.489
50306SOL     OW52749  12.657  11.572   2.471
50306SOL    HW152750  12.736  11.552   2.421
50306SOL    HW252751  12.688  11.617   2.549
50307SOL     OW52752   7.623   9.512   5.604
50307SOL    HW152753   7.618   9.461   5.522
50307SOL    HW252754   7.619   9.603   5.576
50308SOL     OW52755   0.292   9.739  13.235
50308SOL    HW152756   0.330   9.688  13.307
50308SOL    HW252757   0.223   9.682  13.200
50309SOL     OW52758   8.120   8.647  10.610
50309SOL    HW152759   8.170   8.601  10.677
50309SOL    HW252760   8.175   8.643  10.532
50310SOL     OW52761   6.708   4.230   1.450
50310SOL    HW152762   6.767   4.251   1.522
50310SOL    HW252763   6.621   4.251   1.483
50311SOL     OW52764   3.567   2.584  11.118
50311SOL    HW152765   3.650   2.610  11.158
50311SOL    HW252766   3.583   2.589  11.024
50312SOL     OW52767  11.340   7.697   4.625
50312SOL    HW152768  11.329   7.769   4.687
50312SOL    HW252769  11.435   7.687   4.616
50313SOL     OW52770  13.991  13.551   5.089
50313SOL    HW152771  14.071  13.544   5.140
50313SOL    HW252772  13.993  13.476   5.030
50314SOL     OW52773  14.832  10.138   4.535
50314SOL    HW152774  14.843  10.150   4.440
50314SOL    HW252775  14.739  10.152   4.550
50315SOL     OW52776   6.606  14.485   6.699
50315SOL    HW152777   6.531  14.427   6.685
50315SOL    HW252778   6.662  14.470   6.624
50316SOL     OW52779   7.759   6.935  12.583
50316SOL    HW152780   7.786   6.849  12.551
50316SOL    HW252781   7.711   6.918  12.664
50317SOL     OW52782  12.466  14.437  14.433
50317SOL    HW152783  12.445  14.348  14.460
50317SOL    HW252784  12.530  14.427  14.363
50318SOL     OW52785   7.209   6.780   7.192
50318SOL    HW152786   7.201   6.731   7.109
50318SOL    HW252787   7.139   6.845   7.188
50319SOL     OW52788   8.130   0.610   8.704
50319SOL    HW152789   8.097   0.698   8.722
50319SOL    HW252790   8.167   0.580   8.787
50320SOL     OW52791  12.162  14.351   6.544
50320SOL    HW152792  12.084  14.371   6.493
50320SOL    HW252793  12.214  14.294   6.487
50321SOL     OW52794   3.941  10.537  13.165
50321SOL    HW152795   3.931  10.482  13.243
50321SOL    HW252796   4.031  10.569  13.169
50322SOL     OW52797   4.812   0.863  11.980
50322SOL    HW152798   4.829   0.938  11.922
50322SOL    HW252799   4.897   0.845  12.021
50323SOL     OW52800   7.870  13.035  10.529
50323SOL    HW152801   7.854  12.944  10.504
50323SOL    HW252802   7.876  13.082  10.446
50324SOL     OW52803  10.984  14.300  12.608
50324SOL    HW152804  11.001  14.329  12.518
50324SOL    HW252805  10.890  14.283  12.610
50325SOL     OW52806   5.740   3.338   4.081
50325SOL    HW152807   5.760   3.370   4.168
50325SOL    HW252808   5.645   3.327   4.081
50326SOL     OW52809   4.861   7.172   7.025
50326SOL    HW152810   4.944   7.171   7.072
50326SOL    HW252811   4.795   7.167   7.094
50327SOL     OW52812   5.717   3.939   1.856
50327SOL    HW152813   5.732   3.849   1.885
50327SOL    HW252814   5.762   3.945   1.772
50328SOL     OW52815   5.223   1.632   5.194
50328SOL    HW152816   5.301   1.674   5.158
50328SOL    HW252817   5.247   1.609   5.283
50329SOL     OW52818  10.173   2.933  11.301
50329SOL    HW152819  10.179   3.012  11.356
50329SOL    HW252820  10.079   2.923  11.285
50330SOL     OW52821  11.580   1.988   5.110
50330SOL    HW152822  11.645   2.002   5.179
50330SOL    HW252823  11.623   2.019   5.030
50331SOL     OW52824   7.116   4.966  10.046
50331SOL    HW152825   7.211   4.972  10.033
50331SOL    HW252826   7.096   5.033  10.111
50332SOL     OW52827   3.002   7.403   8.403
50332SOL    HW152828   2.908   7.400   8.386
50332SOL    HW252829   3.010   7.452   8.485
50333SOL     OW52830   0.415   2.444  11.841
50333SOL    HW152831   0.410   2.408  11.752
50333SOL    HW252832   0.503   2.422  11.871
50334SOL     OW52833   5.177   3.934   5.758
50334SOL    HW152834   5.203   4.025   5.748
50334SOL    HW252835   5.171   3.900   5.668
50335SOL     OW52836  13.054   5.665   5.939
50335SOL    HW152837  13.011   5.606   5.878
50335SOL    HW252838  13.002   5.746   5.936
50336SOL     OW52839   0.814   5.636   2.251
50336SOL    HW152840   0.778   5.568   2.194
50336SOL    HW252841   0.903   5.650   2.218
50337SOL     OW52842   7.134  13.412  10.667
50337SOL    HW152843   7.220  13.379  10.642
50337SOL    HW252844   7.138  13.419  10.763
50338SOL     OW52845  12.602   6.789   5.140
50338SOL    HW152846  12.683   6.794   5.190
50338SOL    HW252847  12.589   6.878   5.107
50339SOL     OW52848   5.555   5.639   1.733
50339SOL    HW152849   5.554   5.735   1.732
50339SOL    HW252850   5.581   5.614   1.645
50340SOL     OW52851  14.368  14.773   0.664
50340SOL    HW152852  14.441  14.812   0.712
50340SOL    HW252853  14.379  14.805   0.575
50341SOL     OW52854   3.164   4.626   8.104
50341SOL    HW152855   3.234   4.682   8.072
50341SOL    HW252856   3.146   4.567   8.030
50342SOL     OW52857   1.075   1.561  10.789
50342SOL    HW152858   1.086   1.553  10.884
50342SOL    HW252859   0.998   1.507  10.770
50343SOL     OW52860   4.068  10.752   0.794
50343SOL    HW152861   4.042  10.742   0.703
50343SOL    HW252862   3.992  10.793   0.837
50344SOL     OW52863   5.512   0.128   1.603
50344SOL    HW152864   5.582   0.068   1.630
50344SOL    HW252865   5.440   0.070   1.578
50345SOL     OW52866   5.189  13.227  10.003
50345SOL    HW152867   5.144  13.173  10.068
50345SOL    HW252868   5.239  13.165   9.951
50346SOL     OW52869   9.744   0.521  10.746
50346SOL    HW152870   9.673   0.457  10.741
50346SOL    HW252871   9.772   0.518  10.838
50347SOL     OW52872   0.444   8.316   1.520
50347SOL    HW152873   0.436   8.296   1.427
50347SOL    HW252874   0.469   8.233   1.561
50348SOL     OW52875   2.410  10.480   1.019
50348SOL    HW152876   2.354  10.420   1.068
50348SOL    HW252877   2.499  10.448   1.034
50349SOL     OW52878   5.406  13.537   0.172
50349SOL    HW152879   5.403  13.460   0.229
50349SOL    HW252880   5.341  13.596   0.209
50350SOL     OW52881   7.231   1.493  11.106
50350SOL    HW152882   7.168   1.460  11.041
50350SOL    HW252883   7.212   1.442  11.185
50351SOL     OW52884   4.322   6.539   7.541
50351SOL    HW152885   4.240   6.538   7.589
50351SOL    HW252886   4.309   6.478   7.468
50352SOL     OW52887  12.311   1.585   7.916
50352SOL    HW152888  12.215   1.583   7.911
50352SOL    HW252889  12.330   1.593   8.010
50353SOL     OW52890  10.421   7.378   3.191
50353SOL    HW152891  10.465   7.322   3.127
50353SOL    HW252892  10.335   7.339   3.202
50354SOL     OW52893   6.032   3.846  11.094
50354SOL    HW152894   6.114   3.834  11.047
50354SOL    HW252895   6.059   3.873  11.182
50355SOL     OW52896   4.166  12.096  13.556
50355SOL    HW152897   4.236  12.106  13.491
50355SOL    HW252898   4.141  12.004  13.549
50356SOL     OW52899   7.296   3.411   3.672
50356SOL    HW152900   7.221   3.357   3.696
50356SOL    HW252901   7.371   3.370   3.715
50357SOL     OW52902   2.877  13.179  13.099
50357SOL    HW152903   2.860  13.238  13.025
50357SOL    HW252904   2.796  13.180  13.149
50358SOL     OW52905  12.562   7.066   3.651
50358SOL    HW152906  12.609   7.128   3.595
50358SOL    HW252907  12.629   7.005   3.681
50359SOL     OW52908   0.756   9.302  10.936
50359SOL    HW152909   0.739   9.221  10.983
50359SOL    HW252910   0.703   9.296  10.857
50360SOL     OW52911   6.397   1.300   1.530
50360SOL    HW152912   6.351   1.314   1.613
50360SOL    HW252913   6.384   1.382   1.482
50361SOL     OW52914  12.872  10.584  11.763
50361SOL    HW152915  12.794  10.533  11.786
50361SOL    HW252916  12.902  10.546  11.681
50362SOL     OW52917   3.003   6.434  13.625
50362SOL    HW152918   2.998   6.508  13.686
50362SOL    HW252919   2.916   6.394  13.628
50363SOL     OW52920   7.960   8.344   4.484
50363SOL    HW152921   8.043   8.300   4.504
50363SOL    HW252922   7.915   8.350   4.569
50364SOL     OW52923   4.689  11.446  10.790
50364SOL    HW152924   4.635  11.379  10.833
50364SOL    HW252925   4.647  11.459  10.705
50365SOL     OW52926   5.809  11.365   0.177
50365SOL    HW152927   5.758  11.286   0.192
50365SOL    HW252928   5.778  11.426   0.244
50366SOL     OW52929   0.756   9.137  12.941
50366SOL    HW152930   0.765   9.092  13.025
50366SOL    HW252931   0.661   9.138  12.925
50367SOL     OW52932   4.711   5.330   3.769
50367SOL    HW152933   4.727   5.244   3.730
50367SOL    HW252934   4.617   5.342   3.762
50368SOL     OW52935   5.742  10.662   9.024
50368SOL    HW152936   5.746  10.700   9.112
50368SOL    HW252937   5.786  10.578   9.032
50369SOL     OW52938   8.886  14.733   9.846
50369SOL    HW152939   8.865  14.804   9.784
50369SOL    HW252940   8.800  14.702   9.877
50370SOL     OW52941   3.654   7.394  13.916
50370SOL    HW152942   3.669   7.396  14.011
50370SOL    HW252943   3.594   7.320  13.903
50371SOL     OW52944   4.664  12.801  11.227
50371SOL    HW152945   4.754  12.813  11.259
50371SOL    HW252946   4.675  12.779  11.134
50372SOL     OW52947   2.822   9.817   5.176
50372SOL    HW152948   2.790   9.874   5.246
50372SOL    HW252949   2.781   9.732   5.195
50373SOL     OW52950  10.909  12.745  13.661
50373SOL    HW152951  10.921  12.734  13.755
50373SOL    HW252952  10.833  12.690  13.640
50374SOL     OW52953  14.431   7.665   9.763
50374SOL    HW152954  14.353   7.696   9.717
50374SOL    HW252955  14.402   7.653   9.853
50375SOL     OW52956   1.243   2.574   3.756
50375SOL    HW152957   1.255   2.500   3.697
50375SOL    HW252958   1.200   2.536   3.833
50376SOL     OW52959   6.934  12.947   6.081
50376SOL    HW152960   6.967  13.031   6.049
50376SOL    HW252961   6.988  12.928   6.158
50377SOL     OW52962  11.493   8.856  12.394
50377SOL    HW152963  11.587   8.877  12.393
50377SOL    HW252964  11.460   8.898  12.473
50378SOL     OW52965  14.671   5.110  14.510
50378SOL    HW152966  14.617   5.067  14.444
50378SOL    HW252967  14.617   5.108  14.589
50379SOL     OW52968  11.729   9.424   0.031
50379SOL    HW152969  11.644   9.406   0.069
50379SOL    HW252970  11.746   9.516   0.050
50380SOL     OW52971  14.626  11.224   6.260
50380SOL    HW152972  14.708  11.200   6.303
50380SOL    HW252973  14.651  11.248   6.171
50381SOL     OW52974   0.999   1.593   8.758
50381SOL    HW152975   1.093   1.582   8.776
50381SOL    HW252976   0.958   1.584   8.844
50382SOL     OW52977   1.255   5.723   4.439
50382SOL    HW152978   1.197   5.761   4.506
50382SOL    HW252979   1.196   5.688   4.373
50383SOL     OW52980   0.424   4.257   8.785
50383SOL    HW152981   0.335   4.229   8.809
50383SOL    HW252982   0.461   4.181   8.740
50384SOL     OW52983   1.267   8.631   9.425
50384SOL    HW152984   1.319   8.574   9.482
50384SOL    HW252985   1.331   8.691   9.386
50385SOL     OW52986   1.926   9.598   7.725
50385SOL    HW152987   1.980   9.647   7.664
50385SOL    HW252988   1.902   9.661   7.793
50386SOL     OW52989  13.478   2.545   5.295
50386SOL    HW152990  13.452   2.618   5.239
50386SOL    HW252991  13.560   2.514   5.256
50387SOL     OW52992  12.149   6.536   4.360
50387SOL    HW152993  12.186   6.545   4.448
50387SOL    HW252994  12.184   6.610   4.311
50388SOL     OW52995   5.462   2.645   7.735
50388SOL    HW152996   5.387   2.643   7.794
50388SOL    HW252997   5.428   2.614   7.651
50389SOL     OW52998   3.528   4.368   6.629
50389SOL    HW152999   3.569   4.330   6.706
50389SOL    HW253000   3.601   4.390   6.571
50390SOL     OW53001   2.262   4.478   6.555
50390SOL    HW153002   2.337   4.483   6.496
50390SOL    HW253003   2.233   4.568   6.566
50391SOL     OW53004   3.114   0.653   3.368
50391SOL    HW153005   3.132   0.592   3.439
50391SOL    HW253006   3.071   0.600   3.301
50392SOL     OW53007  14.744   1.456  11.391
50392SOL    HW153008  14.722   1.519  11.459
50392SOL    HW253009  14.804   1.394  11.433
50393SOL     OW53010   6.321   4.660   9.384
50393SOL    HW153011   6.333   4.612   9.466
50393SOL    HW253012   6.279   4.597   9.325
50394SOL     OW53013  10.344  10.378   8.064
50394SOL    HW153014  10.307  10.466   8.057
50394SOL    HW253015  10.433  10.392   8.095
50395SOL     OW53016   6.827  14.642   8.511
50395SOL    HW153017   6.840  14.657   8.418
50395SOL    HW253018   6.912  14.608   8.542
50396SOL     OW53019   4.275   6.924  13.120
50396SOL    HW153020   4.289   7.017  13.099
50396SOL    HW253021   4.200   6.899  13.067
50397SOL     OW53022   0.313   2.914   8.339
50397SOL    HW153023   0.239   2.885   8.392
50397SOL    HW253024   0.378   2.844   8.348
50398SOL     OW53025   6.942   1.944   0.039
50398SOL    HW153026   6.849   1.947   0.017
50398SOL    HW253027   6.946   1.978   0.128
50399SOL     OW53028   9.572  12.066   5.325
50399SOL    HW153029   9.547  12.095   5.238
50399SOL    HW253030   9.518  11.989   5.342
50400SOL     OW53031   0.202   0.873   1.773
50400SOL    HW153032   0.252   0.878   1.691
50400SOL    HW253033   0.268   0.875   1.842
50401SOL     OW53034  11.403   5.315  14.183
50401SOL    HW153035  11.316   5.277  14.197
50401SOL    HW253036  11.406   5.390  14.242
50402SOL     OW53037   6.964   9.398  12.949
50402SOL    HW153038   6.949   9.308  12.919
50402SOL    HW253039   6.880   9.442  12.936
50403SOL     OW53040   0.861   0.132  11.502
50403SOL    HW153041   0.820   0.197  11.446
50403SOL    HW253042   0.860   0.171  11.589
50404SOL     OW53043   9.103  14.741  10.008
50404SOL    HW153044   9.043  14.750   9.933
50404SOL    HW253045   9.179  14.695   9.973
50405SOL     OW53046   7.105  10.246  10.628
50405SOL    HW153047   7.013  10.251  10.600
50405SOL    HW253048   7.121  10.328  10.675
50406SOL     OW53049   4.840   7.716   8.701
50406SOL    HW153050   4.825   7.629   8.664
50406SOL    HW253051   4.836   7.775   8.625
50407SOL     OW53052  10.834   3.239   5.093
50407SOL    HW153053  10.854   3.161   5.145
50407SOL    HW253054  10.742   3.228   5.068
50408SOL     OW53055   1.769   7.814   0.171
50408SOL    HW153056   1.798   7.762   0.096
50408SOL    HW253057   1.849   7.852   0.206
50409SOL     OW53058   2.011   3.340   5.736
50409SOL    HW153059   2.088   3.396   5.754
50409SOL    HW253060   1.958   3.392   5.676
50410SOL     OW53061   5.497   2.508  11.370
50410SOL    HW153062   5.481   2.452  11.294
50410SOL    HW253063   5.419   2.499  11.424
50411SOL     OW53064   6.973   5.978   8.564
50411SOL    HW153065   6.878   5.974   8.559
50411SOL    HW253066   7.000   5.891   8.592
50412SOL     OW53067   4.720   7.593   6.739
50412SOL    HW153068   4.691   7.645   6.814
50412SOL    HW253069   4.726   7.656   6.667
50413SOL     OW53070   1.371   6.879   5.733
50413SOL    HW153071   1.340   6.788   5.731
50413SOL    HW253072   1.291   6.931   5.734
50414SOL     OW53073   7.034   7.015  14.201
50414SOL    HW153074   7.027   6.925  14.234
50414SOL    HW253075   6.956   7.026  14.147
50415SOL     OW53076  11.346   6.942  12.514
50415SOL    HW153077  11.278   6.938  12.581
50415SOL    HW253078  11.310   7.000  12.448
50416SOL     OW53079   6.455  11.968   8.034
50416SOL    HW153080   6.500  11.986   8.117
50416SOL    HW253081   6.410  12.050   8.014
50417SOL     OW53082  13.836   4.785   5.114
50417SOL    HW153083  13.787   4.744   5.043
50417SOL    HW253084  13.815   4.732   5.191
50418SOL     OW53085   8.251  10.819   8.029
50418SOL    HW153086   8.342  10.848   8.036
50418SOL    HW253087   8.230  10.785   8.117
50419SOL     OW53088   9.187   8.922  10.057
50419SOL    HW153089   9.193   8.907   9.962
50419SOL    HW253090   9.200   8.836  10.096
50420SOL     OW53091  11.178   8.233   5.422
50420SOL    HW153092  11.174   8.175   5.346
50420SOL    HW253093  11.103   8.292   5.412
50421SOL     OW53094  12.039   9.785   3.663
50421SOL    HW153095  12.006   9.743   3.584
50421SOL    HW253096  12.085   9.863   3.632
50422SOL     OW53097   1.486   0.841   7.593
50422SOL    HW153098   1.432   0.768   7.624
50422SOL    HW253099   1.430   0.918   7.602
50423SOL     OW53100  11.624   9.314   5.893
50423SOL    HW153101  11.540   9.319   5.847
50423SOL    HW253102  11.679   9.380   5.850
50424SOL     OW53103   3.521  12.528   5.541
50424SOL    HW153104   3.429  12.500   5.535
50424SOL    HW253105   3.549  12.538   5.450
50425SOL     OW53106   2.340   3.493   9.379
50425SOL    HW153107   2.382   3.572   9.345
50425SOL    HW253108   2.354   3.428   9.311
50426SOL     OW53109   0.532  11.024   7.985
50426SOL    HW153110   0.552  11.021   8.079
50426SOL    HW253111   0.616  11.043   7.944
50427SOL     OW53112   1.976   5.137   0.936
50427SOL    HW153113   2.052   5.122   0.992
50427SOL    HW253114   2.012   5.161   0.851
50428SOL     OW53115   9.156   7.675   8.322
50428SOL    HW153116   9.086   7.665   8.387
50428SOL    HW253117   9.234   7.692   8.375
50429SOL     OW53118   0.625   8.101   1.630
50429SOL    HW153119   0.634   8.014   1.669
50429SOL    HW253120   0.686   8.156   1.679
50430SOL     OW53121  11.847   7.277   0.153
50430SOL    HW153122  11.793   7.226   0.093
50430SOL    HW253123  11.928   7.294   0.104
50431SOL     OW53124   3.791   9.668   6.828
50431SOL    HW153125   3.797   9.700   6.918
50431SOL    HW253126   3.878   9.687   6.791
50432SOL     OW53127   2.130   5.909   3.101
50432SOL    HW153128   2.079   5.844   3.149
50432SOL    HW253129   2.200   5.934   3.161
50433SOL     OW53130  11.326   5.802   4.005
50433SOL    HW153131  11.395   5.841   3.951
50433SOL    HW253132  11.318   5.861   4.080
50434SOL     OW53133   4.987   6.284   6.572
50434SOL    HW153134   4.990   6.294   6.477
50434SOL    HW253135   5.043   6.354   6.605
50435SOL     OW53136   2.891  10.942  11.706
50435SOL    HW153137   2.826  10.942  11.635
50435SOL    HW253138   2.933  10.856  11.700
50436SOL     OW53139   8.197   7.907   8.391
50436SOL    HW153140   8.207   7.980   8.330
50436SOL    HW253141   8.130   7.936   8.452
50437SOL     OW53142   1.818  13.821   2.001
50437SOL    HW153143   1.830  13.872   1.921
50437SOL    HW253144   1.732  13.781   1.992
50438SOL     OW53145   5.416  11.189  14.363
50438SOL    HW153146   5.373  11.267  14.398
50438SOL    HW253147   5.498  11.183  14.412
50439SOL     OW53148   2.872   7.265  14.605
50439SOL    HW153149   2.847   7.182  14.565
50439SOL    HW253150   2.965   7.256  14.624
50440SOL     OW53151   5.028   0.574  10.876
50440SOL    HW153152   5.066   0.662  10.873
50440SOL    HW253153   4.948   0.584  10.927
50441SOL     OW53154   5.269   1.184   4.654
50441SOL    HW153155   5.309   1.258   4.699
50441SOL    HW253156   5.188   1.167   4.703
50442SOL     OW53157   3.120   2.096  10.036
50442SOL    HW153158   3.066   2.110  10.114
50442SOL    HW253159   3.070   2.136   9.965
50443SOL     OW53160  12.901  11.198  12.396
50443SOL    HW153161  12.830  11.188  12.333
50443SOL    HW253162  12.937  11.285  12.378
50444SOL     OW53163  12.011   5.043   4.892
50444SOL    HW153164  11.920   5.028   4.865
50444SOL    HW253165  12.032   5.130   4.856
50445SOL     OW53166  10.391   1.355  11.323
50445SOL    HW153167  10.419   1.385  11.409
50445SOL    HW253168  10.295   1.351  11.329
50446SOL     OW53169   4.539   2.889   2.866
50446SOL    HW153170   4.509   2.815   2.918
50446SOL    HW253171   4.634   2.891   2.880
50447SOL     OW53172   4.502   2.586   7.053
50447SOL    HW153173   4.468   2.612   6.967
50447SOL    HW253174   4.441   2.625   7.115
50448SOL     OW53175   9.824   4.688   4.035
50448SOL    HW153176   9.908   4.666   4.075
50448SOL    HW253177   9.766   4.704   4.110
50449SOL     OW53178   1.641  10.141   0.807
50449SOL    HW153179   1.547  10.133   0.828
50449SOL    HW253180   1.681  10.170   0.889
50450SOL     OW53181  11.111  11.546  12.909
50450SOL    HW153182  11.067  11.569  12.826
50450SOL    HW253183  11.202  11.573  12.896
50451SOL     OW53184   1.013  14.608   8.256
50451SOL    HW153185   0.978  14.665   8.187
50451SOL    HW253186   1.106  14.597   8.233
50452SOL     OW53187   8.316   3.591   7.622
50452SOL    HW153188   8.378   3.553   7.560
50452SOL    HW253189   8.358   3.581   7.707
50453SOL     OW53190  11.873   2.070   9.110
50453SOL    HW153191  11.967   2.055   9.109
50453SOL    HW253192  11.863   2.162   9.086
50454SOL     OW53193  14.052   5.352   2.117
50454SOL    HW153194  13.980   5.411   2.139
50454SOL    HW253195  14.076   5.376   2.027
50455SOL     OW53196   8.002   1.557  10.322
50455SOL    HW153197   8.051   1.623  10.371
50455SOL    HW253198   7.978   1.600  10.240
50456SOL     OW53199   2.771   5.343  13.546
50456SOL    HW153200   2.778   5.248  13.552
50456SOL    HW253201   2.862   5.373  13.546
50457SOL     OW53202   2.326  10.259   0.860
50457SOL    HW153203   2.332  10.168   0.831
50457SOL    HW253204   2.349  10.311   0.783
50458SOL     OW53205  14.219   4.655   5.354
50458SOL    HW153206  14.222   4.740   5.310
50458SOL    HW253207  14.182   4.595   5.289
50459SOL     OW53208  14.399  13.239   4.291
50459SOL    HW153209  14.377  13.329   4.265
50459SOL    HW253210  14.334  13.184   4.248
50460SOL     OW53211   2.326   0.365   0.376
50460SOL    HW153212   2.310   0.273   0.354
50460SOL    HW253213   2.295   0.373   0.466
50461SOL     OW53214   1.910   2.785  12.231
50461SOL    HW153215   1.873   2.698  12.220
50461SOL    HW253216   1.871   2.837  12.161
50462SOL     OW53217  11.385  12.514  14.230
50462SOL    HW153218  11.446  12.586  14.249
50462SOL    HW253219  11.439  12.447  14.189
50463SOL     OW53220  14.538   2.903   6.911
50463SOL    HW153221  14.555   2.810   6.926
50463SOL    HW253222  14.449   2.916   6.944
50464SOL     OW53223   7.077  10.042   5.619
50464SOL    HW153224   7.168  10.052   5.648
50464SOL    HW253225   7.032  10.118   5.657
50465SOL     OW53226   4.843   6.035   5.330
50465SOL    HW153227   4.868   5.979   5.256
50465SOL    HW253228   4.747   6.031   5.332
50466SOL     OW53229   3.365   4.463   7.556
50466SOL    HW153230   3.300   4.529   7.532
50466SOL    HW253231   3.437   4.513   7.594
50467SOL     OW53232   3.466   3.412   3.951
50467SOL    HW153233   3.524   3.471   3.999
50467SOL    HW253234   3.455   3.337   4.010
50468SOL     OW53235   6.565   6.255   8.878
50468SOL    HW153236   6.517   6.180   8.842
50468SOL    HW253237   6.509   6.287   8.949
50469SOL     OW53238   6.772   1.680  13.987
50469SOL    HW153239   6.729   1.736  13.922
50469SOL    HW253240   6.708   1.671  14.057
50470SOL     OW53241  10.305  12.120   3.365
50470SOL    HW153242  10.262  12.058   3.424
50470SOL    HW253243  10.390  12.079   3.348
50471SOL     OW53244   1.156   7.465  14.787
50471SOL    HW153245   1.105   7.389  14.761
50471SOL    HW253246   1.100   7.540  14.766
50472SOL     OW53247  10.844   9.812   4.681
50472SOL    HW153248  10.850   9.764   4.763
50472SOL    HW253249  10.897   9.890   4.694
50473SOL     OW53250  11.939   0.272   2.978
50473SOL    HW153251  11.967   0.238   2.893
50473SOL    HW253252  11.899   0.197   3.023
50474SOL     OW53253   6.935  12.952   4.674
50474SOL    HW153254   7.006  12.888   4.682
50474SOL    HW253255   6.855  12.900   4.682
50475SOL     OW53256   5.370   6.023  11.326
50475SOL    HW153257   5.413   6.100  11.289
50475SOL    HW253258   5.336   6.052  11.411
50476SOL     OW53259   8.457   1.076   1.207
50476SOL    HW153260   8.446   1.150   1.146
50476SOL    HW253261   8.478   1.117   1.291
50477SOL     OW53262   5.641   4.350   6.098
50477SOL    HW153263   5.656   4.354   6.004
50477SOL    HW253264   5.729   4.349   6.136
50478SOL     OW53265   1.460   6.153  14.758
50478SOL    HW153266   1.537   6.196  14.796
50478SOL    HW253267   1.475   6.156  14.664
50479SOL     OW53268   3.781   5.247   9.956
50479SOL    HW153269   3.705   5.304   9.970
50479SOL    HW253270   3.854   5.307   9.941
50480SOL     OW53271  10.375   1.374   4.425
50480SOL    HW153272  10.346   1.292   4.384
50480SOL    HW253273  10.387   1.352   4.517
50481SOL     OW53274   8.109   8.167   2.403
50481SOL    HW153275   8.147   8.083   2.379
50481SOL    HW253276   8.166   8.232   2.361
50482SOL     OW53277   5.538  10.649  10.368
50482SOL    HW153278   5.465  10.712  10.368
50482SOL    HW253279   5.535  10.610  10.456
50483SOL     OW53280   0.730   1.160   3.352
50483SOL    HW153281   0.720   1.091   3.417
50483SOL    HW253282   0.737   1.240   3.405
50484SOL     OW53283  13.533  11.743  14.715
50484SOL    HW153284  13.603  11.731  14.779
50484SOL    HW253285  13.550  11.829  14.676
50485SOL     OW53286   6.335  12.226   4.998
50485SOL    HW153287   6.347  12.204   4.905
50485SOL    HW253288   6.362  12.318   5.004
50486SOL     OW53289   0.769  13.384   4.481
50486SOL    HW153290   0.677  13.361   4.494
50486SOL    HW253291   0.776  13.404   4.387
50487SOL     OW53292  14.338   8.321  13.670
50487SOL    HW153293  14.330   8.244  13.614
50487SOL    HW253294  14.258   8.321  13.723
50488SOL     OW53295   7.124   2.729   9.978
50488SOL    HW153296   7.045   2.682  10.007
50488SOL    HW253297   7.100   2.822   9.986
50489SOL     OW53298  13.941  13.573   9.027
50489SOL    HW153299  14.024  13.560   8.980
50489SOL    HW253300  13.892  13.492   9.012
50490SOL     OW53301  12.424   7.315  14.170
50490SOL    HW153302  12.402   7.310  14.263
50490SOL    HW253303  12.441   7.407  14.154
50491SOL     OW53304   6.526   2.717   2.153
50491SOL    HW153305   6.446   2.770   2.150
50491SOL    HW253306   6.597   2.781   2.148
50492SOL     OW53307  11.403   0.130   9.666
50492SOL    HW153308  11.391   0.042   9.632
50492SOL    HW253309  11.319   0.154   9.703
50493SOL     OW53310  14.156  14.196   3.432
50493SOL    HW153311  14.242  14.215   3.469
50493SOL    HW253312  14.160  14.103   3.409
50494SOL     OW53313  11.757   7.522   0.998
50494SOL    HW153314  11.709   7.579   0.938
50494SOL    HW253315  11.734   7.553   1.085
50495SOL     OW53316   2.307  11.832   7.947
50495SOL    HW153317   2.286  11.794   7.862
50495SOL    HW253318   2.281  11.924   7.941
50496SOL     OW53319   8.549   9.211   0.902
50496SOL    HW153320   8.572   9.175   0.817
50496SOL    HW253321   8.630   9.250   0.935
50497SOL     OW53322   5.056   4.034   1.935
50497SOL    HW153323   5.130   4.088   1.909
50497SOL    HW253324   5.020   4.078   2.013
50498SOL     OW53325   6.836   8.181   3.261
50498SOL    HW153326   6.918   8.231   3.266
50498SOL    HW253327   6.771   8.238   3.301
50499SOL     OW53328  10.132   8.666   2.290
50499SOL    HW153329  10.210   8.626   2.250
50499SOL    HW253330  10.135   8.636   2.381
50500SOL     OW53331   2.721   7.308   3.117
50500SOL    HW153332   2.768   7.225   3.102
50500SOL    HW253333   2.734   7.357   3.035
50501SOL     OW53334   6.583   3.049   8.263
50501SOL    HW153335   6.527   3.116   8.302
50501SOL    HW253336   6.628   3.094   8.192
50502SOL     OW53337   9.134  13.405  10.624
50502SOL    HW153338   9.133  13.465  10.550
50502SOL    HW253339   9.200  13.442  10.684
50503SOL     OW53340   1.446  12.010   1.169
50503SOL    HW153341   1.436  11.919   1.195
50503SOL    HW253342   1.397  12.060   1.234
50504SOL     OW53343   5.603   0.021   7.716
50504SOL    HW153344   5.639   0.110   7.722
50504SOL    HW253345   5.608  14.858   7.805
50505SOL     OW53346   0.033   4.918   8.838
50505SOL    HW153347   0.076   4.841   8.876
50505SOL    HW253348   0.008   4.971   8.913
50506SOL     OW53349  10.306  10.095   6.234
50506SOL    HW153350  10.371  10.156   6.199
50506SOL    HW253351  10.308  10.109   6.328
50507SOL     OW53352   1.580  12.717   4.833
50507SOL    HW153353   1.641  12.772   4.785
50507SOL    HW253354   1.494  12.754   4.814
50508SOL     OW53355   4.975   1.284   5.739
50508SOL    HW153356   5.034   1.329   5.678
50508SOL    HW253357   4.953   1.351   5.804
50509SOL     OW53358  12.660  12.732  11.087
50509SOL    HW153359  12.588  12.791  11.063
50509SOL    HW253360  12.713  12.783  11.148
50510SOL     OW53361  13.978  13.330  12.261
50510SOL    HW153362  14.005  13.248  12.303
50510SOL    HW253363  13.897  13.307  12.215
50511SOL     OW53364   4.819   9.307   1.277
50511SOL    HW153365   4.909   9.322   1.305
50511SOL    HW253366   4.766   9.344   1.348
50512SOL     OW53367   2.266   0.907   7.827
50512SOL    HW153368   2.278   0.814   7.849
50512SOL    HW253369   2.180   0.929   7.864
50513SOL     OW53370   1.629   7.522  11.517
50513SOL    HW153371   1.626   7.583  11.443
50513SOL    HW253372   1.538   7.505  11.538
50514SOL     OW53373   5.578  12.641   1.427
50514SOL    HW153374   5.492  12.602   1.439
50514SOL    HW253375   5.585  12.657   1.333
50515SOL     OW53376   0.733   6.726  12.809
50515SOL    HW153377   0.780   6.651  12.846
50515SOL    HW253378   0.734   6.710  12.714
50516SOL     OW53379   7.085  10.465   2.495
50516SOL    HW153380   7.127  10.397   2.443
50516SOL    HW253381   7.142  10.542   2.485
50517SOL     OW53382  13.040  11.221  10.689
50517SOL    HW153383  12.984  11.148  10.716
50517SOL    HW253384  13.124  11.181  10.668
50518SOL     OW53385   6.091   4.607  12.345
50518SOL    HW153386   6.131   4.647  12.268
50518SOL    HW253387   6.010   4.567  12.312
50519SOL     OW53388  13.300  12.732   6.025
50519SOL    HW153389  13.223  12.690   6.063
50519SOL    HW253390  13.286  12.727   5.931
50520SOL     OW53391  11.942  13.315   1.783
50520SOL    HW153392  11.983  13.328   1.868
50520SOL    HW253393  12.008  13.344   1.720
50521SOL     OW53394  13.322   8.742  14.592
50521SOL    HW153395  13.356   8.783  14.671
50521SOL    HW253396  13.233   8.777  14.582
50522SOL     OW53397   5.778  14.535   8.323
50522SOL    HW153398   5.753  14.521   8.414
50522SOL    HW253399   5.764  14.451   8.280
50523SOL     OW53400  11.068   7.978  10.067
50523SOL    HW153401  11.131   7.983  10.139
50523SOL    HW253402  11.121   7.970   9.988
50524SOL     OW53403   2.102   8.855   7.234
50524SOL    HW153404   2.030   8.795   7.253
50524SOL    HW253405   2.068   8.942   7.253
50525SOL     OW53406  10.006   6.209   9.984
50525SOL    HW153407  10.059   6.285   9.961
50525SOL    HW253408  10.038   6.139   9.928
50526SOL     OW53409   4.171  10.144   0.431
50526SOL    HW153410   4.262  10.126   0.452
50526SOL    HW253411   4.153  10.092   0.353
50527SOL     OW53412  11.070   3.632   9.304
50527SOL    HW153413  11.035   3.701   9.361
50527SOL    HW253414  10.995   3.574   9.290
50528SOL     OW53415   4.270  13.413  11.953
50528SOL    HW153416   4.232  13.335  11.993
50528SOL    HW253417   4.196  13.459  11.914
50529SOL     OW53418   8.897  11.516  11.252
50529SOL    HW153419   8.987  11.516  11.285
50529SOL    HW253420   8.843  11.502  11.330
50530SOL     OW53421  14.683   5.575  10.662
50530SOL    HW153422  14.702   5.549  10.572
50530SOL    HW253423  14.589   5.593  10.663
50531SOL     OW53424   2.912   2.826   6.771
50531SOL    HW153425   2.999   2.793   6.795
50531SOL    HW253426   2.880   2.869   6.850
50532SOL     OW53427   7.768   5.277   5.402
50532SOL    HW153428   7.762   5.184   5.421
50532SOL    HW253429   7.680   5.301   5.372
50533SOL     OW53430   0.612   2.006  14.005
50533SOL    HW153431   0.658   2.019  13.922
50533SOL    HW253432   0.538   1.949  13.984
50534SOL     OW53433   0.284  11.544  14.473
50534SOL    HW153434   0.247  11.548  14.385
50534SOL    HW253435   0.305  11.451  14.486
50535SOL     OW53436   3.770   2.460   3.864
50535SOL    HW153437   3.714   2.465   3.786
50535SOL    HW253438   3.716   2.496   3.935
50536SOL     OW53439   5.501  12.781   6.949
50536SOL    HW153440   5.405  12.781   6.951
50536SOL    HW253441   5.524  12.867   6.914
50537SOL     OW53442  11.841  11.912  12.471
50537SOL    HW153443  11.901  11.929  12.398
50537SOL    HW253444  11.853  11.819  12.490
50538SOL     OW53445   9.063  12.003   0.590
50538SOL    HW153446   9.041  12.096   0.595
50538SOL    HW253447   9.088  11.980   0.680
50539SOL     OW53448  12.907   0.507  10.259
50539SOL    HW153449  12.841   0.460  10.207
50539SOL    HW253450  12.990   0.485  10.216
50540SOL     OW53451   3.038   5.658   9.406
50540SOL    HW153452   3.091   5.613   9.473
50540SOL    HW253453   3.075   5.628   9.323
50541SOL     OW53454  11.859   4.611   5.681
50541SOL    HW153455  11.863   4.555   5.759
50541SOL    HW253456  11.767   4.605   5.653
50542SOL     OW53457  11.254   6.000   2.349
50542SOL    HW153458  11.264   6.089   2.382
50542SOL    HW253459  11.179   6.004   2.290
50543SOL     OW53460  10.745   0.798  10.012
50543SOL    HW153461  10.765   0.874   9.957
50543SOL    HW253462  10.807   0.731   9.983
50544SOL     OW53463   2.683  12.933   7.384
50544SOL    HW153464   2.715  13.003   7.442
50544SOL    HW253465   2.761  12.901   7.340
50545SOL     OW53466   3.099  10.938   9.211
50545SOL    HW153467   3.172  10.977   9.163
50545SOL    HW253468   3.126  10.847   9.226
50546SOL     OW53469   4.230   4.916  12.877
50546SOL    HW153470   4.287   4.925  12.800
50546SOL    HW253471   4.288   4.927  12.952
50547SOL     OW53472   3.187   8.479   6.425
50547SOL    HW153473   3.124   8.527   6.371
50547SOL    HW253474   3.145   8.395   6.441
50548SOL     OW53475   1.684   2.692   9.723
50548SOL    HW153476   1.592   2.675   9.744
50548SOL    HW253477   1.706   2.771   9.771
50549SOL     OW53478   1.921   9.195   9.506
50549SOL    HW153479   1.837   9.235   9.483
50549SOL    HW253480   1.987   9.258   9.477
50550SOL     OW53481   5.703   5.087   6.972
50550SOL    HW153482   5.649   5.061   6.897
50550SOL    HW253483   5.641   5.120   7.036
50551SOL     OW53484  13.747   3.396   5.367
50551SOL    HW153485  13.820   3.457   5.357
50551SOL    HW253486  13.697   3.431   5.441
50552SOL     OW53487  11.369   9.658   6.256
50552SOL    HW153488  11.327   9.576   6.232
50552SOL    HW253489  11.321   9.688   6.333
50553SOL     OW53490  12.180  11.918  10.256
50553SOL    HW153491  12.108  11.896  10.196
50553SOL    HW253492  12.224  11.835  10.271
50554SOL     OW53493   2.484   4.264  11.743
50554SOL    HW153494   2.437   4.238  11.663
50554SOL    HW253495   2.428   4.331  11.782
50555SOL     OW53496  13.653  11.744  10.162
50555SOL    HW153497  13.610  11.697  10.090
50555SOL    HW253498  13.745  11.748  10.135
50556SOL     OW53499  12.692   8.041   3.699
50556SOL    HW153500  12.597   8.042   3.701
50556SOL    HW253501  12.717   7.970   3.759
50557SOL     OW53502   7.798  10.214   9.746
50557SOL    HW153503   7.724  10.275   9.749
50557SOL    HW253504   7.835  10.217   9.834
50558SOL     OW53505   0.597   1.824  12.847
50558SOL    HW153506   0.514   1.799  12.888
50558SOL    HW253507   0.575   1.898  12.791
50559SOL     OW53508   1.704   1.246  11.211
50559SOL    HW153509   1.757   1.273  11.285
50559SOL    HW253510   1.767   1.228  11.141
50560SOL     OW53511  10.607   3.941   9.003
50560SOL    HW153512  10.527   3.896   8.977
50560SOL    HW253513  10.647   3.884   9.069
50561SOL     OW53514   4.000  10.232   0.776
50561SOL    HW153515   3.979  10.245   0.684
50561SOL    HW253516   4.047  10.311   0.801
50562SOL     OW53517   4.479   9.659   4.429
50562SOL    HW153518   4.448   9.569   4.439
50562SOL    HW253519   4.489   9.670   4.334
50563SOL     OW53520   1.208  10.791  12.619
50563SOL    HW153521   1.199  10.697  12.606
50563SOL    HW253522   1.121  10.821  12.645
50564SOL     OW53523   6.869   9.203  10.964
50564SOL    HW153524   6.917   9.183  11.044
50564SOL    HW253525   6.804   9.268  10.990
50565SOL     OW53526  13.097   9.920   9.894
50565SOL    HW153527  13.151   9.938   9.817
50565SOL    HW253528  13.135   9.974   9.963
50566SOL     OW53529  12.349   2.238   1.287
50566SOL    HW153530  12.291   2.231   1.212
50566SOL    HW253531  12.424   2.288   1.255
50567SOL     OW53532  11.183  13.571  14.050
50567SOL    HW153533  11.093  13.601  14.057
50567SOL    HW253534  11.187  13.491  14.103
50568SOL     OW53535  12.931   1.134   5.614
50568SOL    HW153536  12.946   1.062   5.675
50568SOL    HW253537  13.018   1.164   5.590
50569SOL     OW53538  10.613   4.826   6.795
50569SOL    HW153539  10.707   4.814   6.811
50569SOL    HW253540  10.600   4.921   6.796
50570SOL     OW53541   5.952  10.149  12.415
50570SOL    HW153542   6.035  10.132  12.459
50570SOL    HW253543   5.908  10.064  12.413
50571SOL     OW53544  11.254   6.447   7.278
50571SOL    HW153545  11.286   6.472   7.365
50571SOL    HW253546  11.191   6.377   7.295
50572SOL     OW53547  11.974   1.279   7.734
50572SOL    HW153548  11.918   1.254   7.661
50572SOL    HW253549  11.927   1.250   7.812
50573SOL     OW53550   9.703   8.579   1.738
50573SOL    HW153551   9.694   8.640   1.812
50573SOL    HW253552   9.797   8.565   1.730
50574SOL     OW53553  11.967   9.679  13.313
50574SOL    HW153554  12.008   9.620  13.249
50574SOL    HW253555  11.882   9.701  13.275
50575SOL     OW53556   0.376   1.431  11.947
50575SOL    HW153557   0.436   1.417  11.874
50575SOL    HW253558   0.376   1.526  11.960
50576SOL     OW53559   2.285   2.353   8.195
50576SOL    HW153560   2.321   2.376   8.280
50576SOL    HW253561   2.228   2.426   8.171
50577SOL     OW53562  13.757   3.140  12.551
50577SOL    HW153563  13.769   3.181  12.466
50577SOL    HW253564  13.732   3.050  12.531
50578SOL     OW53565   9.441   5.174   2.544
50578SOL    HW153566   9.476   5.242   2.488
50578SOL    HW253567   9.516   5.143   2.594
50579SOL     OW53568  12.332  13.214  10.574
50579SOL    HW153569  12.324  13.131  10.621
50579SOL    HW253570  12.397  13.263  10.624
50580SOL     OW53571   0.349   7.270   0.362
50580SOL    HW153572   0.371   7.323   0.285
50580SOL    HW253573   0.432   7.230   0.387
50581SOL     OW53574  12.930   8.783   5.498
50581SOL    HW153575  12.916   8.877   5.489
50581SOL    HW253576  12.938   8.768   5.592
50582SOL     OW53577  14.196   5.696   2.677
50582SOL    HW153578  14.240   5.755   2.617
50582SOL    HW253579  14.142   5.640   2.620
50583SOL     OW53580   7.911   6.938  10.162
50583SOL    HW153581   7.876   6.862  10.117
50583SOL    HW253582   7.833   6.986  10.192
50584SOL     OW53583  11.794   4.806   4.565
50584SOL    HW153584  11.869   4.800   4.506
50584SOL    HW253585  11.779   4.717   4.595
50585SOL     OW53586   6.312   8.887  13.291
50585SOL    HW153587   6.345   8.829  13.222
50585SOL    HW253588   6.218   8.890  13.276
50586SOL     OW53589   6.172   8.926  10.418
50586SOL    HW153590   6.163   8.837  10.452
50586SOL    HW253591   6.111   8.930  10.345
50587SOL     OW53592  14.865   0.019   3.376
50587SOL    HW153593  14.772   0.045   3.375
50587SOL    HW253594   0.006  14.850   3.290
50588SOL     OW53595  11.333   4.080  11.136
50588SOL    HW153596  11.283   4.142  11.189
50588SOL    HW253597  11.397   4.135  11.089
50589SOL     OW53598  11.295   2.381   8.383
50589SOL    HW153599  11.349   2.402   8.307
50589SOL    HW253600  11.218   2.338   8.345
50590SOL     OW53601   5.416   9.435  13.685
50590SOL    HW153602   5.375   9.365  13.635
50590SOL    HW253603   5.363   9.445  13.763
50591SOL     OW53604   3.427   0.368  12.266
50591SOL    HW153605   3.519   0.367  12.239
50591SOL    HW253606   3.406   0.461  12.278
50592SOL     OW53607   0.117  11.594   3.786
50592SOL    HW153608   0.110  11.520   3.725
50592SOL    HW253609   0.209  11.619   3.782
50593SOL     OW53610   5.637   6.433   0.865
50593SOL    HW153611   5.631   6.514   0.813
50593SOL    HW253612   5.546   6.402   0.872
50594SOL     OW53613   2.726   3.033   7.679
50594SOL    HW153614   2.681   3.108   7.640
50594SOL    HW253615   2.664   2.997   7.742
50595SOL     OW53616   4.190   3.828   7.267
50595SOL    HW153617   4.133   3.828   7.190
50595SOL    HW253618   4.251   3.900   7.251
50596SOL     OW53619  13.564  12.841   8.075
50596SOL    HW153620  13.614  12.910   8.118
50596SOL    HW253621  13.630  12.779   8.044
50597SOL     OW53622  11.823  13.983  13.173
50597SOL    HW153623  11.837  14.077  13.181
50597SOL    HW253624  11.885  13.955  13.105
50598SOL     OW53625   4.202   5.346  14.279
50598SOL    HW153626   4.268   5.350  14.348
50598SOL    HW253627   4.209   5.430  14.233
50599SOL     OW53628  11.146   4.525   3.029
50599SOL    HW153629  11.183   4.510   2.943
50599SOL    HW253630  11.219   4.557   3.082
50600SOL     OW53631   6.335   9.834   4.669
50600SOL    HW153632   6.368   9.754   4.630
50600SOL    HW253633   6.243   9.837   4.645
50601SOL     OW53634  14.114   9.930   5.323
50601SOL    HW153635  14.057   9.878   5.267
50601SOL    HW253636  14.098   9.898   5.412
50602SOL     OW53637   3.497   1.506   3.190
50602SOL    HW153638   3.566   1.571   3.201
50602SOL    HW253639   3.538   1.437   3.138
50603SOL     OW53640   1.866  10.323   5.998
50603SOL    HW153641   1.898  10.394   5.943
50603SOL    HW253642   1.795  10.362   6.049
50604SOL     OW53643   9.237   7.816   2.984
50604SOL    HW153644   9.279   7.775   2.909
50604SOL    HW253645   9.146   7.786   2.979
50605SOL     OW53646   3.302  14.189  10.167
50605SOL    HW153647   3.255  14.272  10.178
50605SOL    HW253648   3.258  14.146  10.093
50606SOL     OW53649  10.423   4.749   7.364
50606SOL    HW153650  10.421   4.829   7.311
50606SOL    HW253651  10.507   4.752   7.410
50607SOL     OW53652   1.214   4.512  13.283
50607SOL    HW153653   1.300   4.532  13.320
50607SOL    HW253654   1.229   4.435  13.229
50608SOL     OW53655  12.646   9.401   1.168
50608SOL    HW153656  12.607   9.479   1.208
50608SOL    HW253657  12.740   9.414   1.177
50609SOL     OW53658   6.519  11.172   8.896
50609SOL    HW153659   6.588  11.129   8.846
50609SOL    HW253660   6.467  11.217   8.830
50610SOL     OW53661   3.292   3.578   7.959
50610SOL    HW153662   3.313   3.597   8.051
50610SOL    HW253663   3.289   3.483   7.955
50611SOL     OW53664  13.942  10.704   2.959
50611SOL    HW153665  13.882  10.679   3.030
50611SOL    HW253666  13.965  10.620   2.917
50612SOL     OW53667  12.708  11.052   2.123
50612SOL    HW153668  12.722  11.146   2.134
50612SOL    HW253669  12.738  11.013   2.205
50613SOL     OW53670   5.256  12.413   4.130
50613SOL    HW153671   5.323  12.481   4.118
50613SOL    HW253672   5.228  12.423   4.221
50614SOL     OW53673   1.454   3.540   2.127
50614SOL    HW153674   1.503   3.615   2.161
50614SOL    HW253675   1.378   3.533   2.184
50615SOL     OW53676   2.564  14.313   4.047
50615SOL    HW153677   2.623  14.256   4.095
50615SOL    HW253678   2.557  14.392   4.102
50616SOL     OW53679   3.463  13.878  14.044
50616SOL    HW153680   3.392  13.934  14.077
50616SOL    HW253681   3.510  13.934  13.982
50617SOL     OW53682   0.871   9.928   2.379
50617SOL    HW153683   0.827   9.959   2.459
50617SOL    HW253684   0.799   9.906   2.320
50618SOL     OW53685   2.238   3.592  12.066
50618SOL    HW153686   2.213   3.538  12.141
50618SOL    HW253687   2.193   3.675  12.080
50619SOL     OW53688   5.165   7.821   6.114
50619SOL    HW153689   5.137   7.775   6.193
50619SOL    HW253690   5.088   7.821   6.057
50620SOL     OW53691  12.271   0.535   0.586
50620SOL    HW153692  12.318   0.463   0.626
50620SOL    HW253693  12.179   0.521   0.610
50621SOL     OW53694   5.687   2.413  12.132
50621SOL    HW153695   5.627   2.366  12.189
50621SOL    HW253696   5.730   2.477  12.189
50622SOL     OW53697  10.311  12.677   7.815
50622SOL    HW153698  10.393  12.723   7.831
50622SOL    HW253699  10.273  12.664   7.902
50623SOL     OW53700   5.067   3.466   2.612
50623SOL    HW153701   5.079   3.490   2.521
50623SOL    HW253702   5.152   3.482   2.654
50624SOL     OW53703   5.790   0.209  10.695
50624SOL    HW153704   5.730   0.232  10.623
50624SOL    HW253705   5.733   0.172  10.762
50625SOL     OW53706   3.128   8.076  13.707
50625SOL    HW153707   3.087   8.036  13.631
50625SOL    HW253708   3.067   8.058  13.779
50626SOL     OW53709   3.803  10.356   9.831
50626SOL    HW153710   3.768  10.276   9.793
50626SOL    HW253711   3.727  10.399   9.872
50627SOL     OW53712   8.442   4.707   0.796
50627SOL    HW153713   8.499   4.717   0.720
50627SOL    HW253714   8.368   4.764   0.778
50628SOL     OW53715   9.557  14.576   3.169
50628SOL    HW153716   9.536  14.530   3.250
50628SOL    HW253717   9.565  14.507   3.103
50629SOL     OW53718   7.780   7.855   0.893
50629SOL    HW153719   7.725   7.788   0.852
50629SOL    HW253720   7.721   7.905   0.948
50630SOL     OW53721  13.840   5.467  11.206
50630SOL    HW153722  13.868   5.439  11.293
50630SOL    HW253723  13.746   5.484  11.215
50631SOL     OW53724   9.181  10.027   5.048
50631SOL    HW153725   9.159  10.112   5.009
50631SOL    HW253726   9.101   9.999   5.092
50632SOL     OW53727   9.301   8.002   0.562
50632SOL    HW153728   9.216   7.964   0.543
50632SOL    HW253729   9.289   8.049   0.644
50633SOL     OW53730   4.795   5.718  12.941
50633SOL    HW153731   4.859   5.696  12.873
50633SOL    HW253732   4.774   5.634  12.982
50634SOL     OW53733   0.315   4.777  12.608
50634SOL    HW153734   0.233   4.820  12.633
50634SOL    HW253735   0.293   4.733  12.525
50635SOL     OW53736  13.533  14.578   0.975
50635SOL    HW153737  13.601  14.535   1.027
50635SOL    HW253738  13.452  14.532   0.998
50636SOL     OW53739   4.779   1.366  12.916
50636SOL    HW153740   4.785   1.404  13.004
50636SOL    HW253741   4.803   1.274  12.928
50637SOL     OW53742   2.306   7.041   0.943
50637SOL    HW153743   2.255   7.068   1.019
50637SOL    HW253744   2.394   7.027   0.977
50638SOL     OW53745   2.310   6.641  14.509
50638SOL    HW153746   2.345   6.728  14.492
50638SOL    HW253747   2.384   6.591  14.543
50639SOL     OW53748  11.255   1.059  13.328
50639SOL    HW153749  11.283   1.007  13.253
50639SOL    HW253750  11.187   1.117  13.293
50640SOL     OW53751   5.540   7.931   4.917
50640SOL    HW153752   5.558   7.856   4.860
50640SOL    HW253753   5.613   7.931   4.979
50641SOL     OW53754   2.298  10.429   6.505
50641SOL    HW153755   2.377  10.482   6.500
50641SOL    HW253756   2.330  10.340   6.521
50642SOL     OW53757  12.184  14.754   6.067
50642SOL    HW153758  12.090  14.760   6.079
50642SOL    HW253759  12.219  14.829   6.115
50643SOL     OW53760   9.956   6.934   5.739
50643SOL    HW153761  10.026   6.980   5.692
50643SOL    HW253762   9.893   6.911   5.670
50644SOL     OW53763   8.395  14.634   2.858
50644SOL    HW153764   8.307  14.636   2.896
50644SOL    HW253765   8.395  14.707   2.795
50645SOL     OW53766   0.477   2.830   5.404
50645SOL    HW153767   0.494   2.905   5.461
50645SOL    HW253768   0.543   2.765   5.430
50646SOL     OW53769   2.053   1.047  10.863
50646SOL    HW153770   1.981   1.050  10.800
50646SOL    HW253771   2.084   1.138  10.869
50647SOL     OW53772  14.854   6.333  11.231
50647SOL    HW153773  14.847   6.427  11.215
50647SOL    HW253774  14.769   6.298  11.207
50648SOL     OW53775   3.751   5.663  14.114
50648SOL    HW153776   3.703   5.614  14.047
50648SOL    HW253777   3.700   5.650  14.194
50649SOL     OW53778   6.533   6.694   6.471
50649SOL    HW153779   6.485   6.701   6.388
50649SOL    HW253780   6.495   6.618   6.514
50650SOL     OW53781   1.336  10.063   2.449
50650SOL    HW153782   1.424  10.092   2.470
50650SOL    HW253783   1.280  10.105   2.514
50651SOL     OW53784  11.828  14.247  13.171
50651SOL    HW153785  11.862  14.316  13.229
50651SOL    HW253786  11.764  14.292  13.116
50652SOL     OW53787   9.280   8.937   3.739
50652SOL    HW153788   9.193   8.897   3.743
50652SOL    HW253789   9.326   8.887   3.672
50653SOL     OW53790   1.653  10.595  14.713
50653SOL    HW153791   1.689  10.652  14.782
50653SOL    HW253792   1.694  10.627  14.633
50654SOL     OW53793   4.217  10.554  10.020
50654SOL    HW153794   4.242  10.514  10.104
50654SOL    HW253795   4.160  10.490   9.979
50655SOL     OW53796   9.932   0.179   3.237
50655SOL    HW153797   9.857   0.120   3.247
50655SOL    HW253798   9.938   0.194   3.143
50656SOL     OW53799   4.141   7.654   1.406
50656SOL    HW153800   4.208   7.661   1.475
50656SOL    HW253801   4.061   7.687   1.447
50657SOL     OW53802   3.675   0.217   0.145
50657SOL    HW153803   3.764   0.250   0.160
50657SOL    HW253804   3.623   0.255   0.215
50658SOL     OW53805   9.575   9.126  12.631
50658SOL    HW153806   9.585   9.219  12.610
50658SOL    HW253807   9.597   9.080  12.550
50659SOL     OW53808  13.076  14.067   1.355
50659SOL    HW153809  13.034  13.984   1.377
50659SOL    HW253810  13.166  14.043   1.331
50660SOL     OW53811  10.452  11.874  10.032
50660SOL    HW153812  10.465  11.783  10.007
50660SOL    HW253813  10.455  11.874  10.128
50661SOL     OW53814  14.714   7.323   0.319
50661SOL    HW153815  14.633   7.350   0.361
50661SOL    HW253816  14.688   7.253   0.260
50662SOL     OW53817  13.655   7.090   8.993
50662SOL    HW153818  13.706   7.136   9.060
50662SOL    HW253819  13.683   7.130   8.911
50663SOL     OW53820   6.853   7.778  11.491
50663SOL    HW153821   6.835   7.774  11.398
50663SOL    HW253822   6.916   7.708  11.507
50664SOL     OW53823   1.839  12.094  12.191
50664SOL    HW153824   1.816  12.001  12.184
50664SOL    HW253825   1.925  12.101  12.149
50665SOL     OW53826   2.817   8.734   6.593
50665SOL    HW153827   2.722   8.744   6.590
50665SOL    HW253828   2.834   8.699   6.681
50666SOL     OW53829   8.708   6.281   6.655
50666SOL    HW153830   8.771   6.222   6.614
50666SOL    HW253831   8.627   6.268   6.607
50667SOL     OW53832  10.628  12.569   4.921
50667SOL    HW153833  10.626  12.663   4.908
50667SOL    HW253834  10.648  12.532   4.835
50668SOL     OW53835   0.795   4.657   9.662
50668SOL    HW153836   0.842   4.726   9.708
50668SOL    HW253837   0.729   4.627   9.725
50669SOL     OW53838   7.504   6.532   3.072
50669SOL    HW153839   7.566   6.549   3.001
50669SOL    HW253840   7.551   6.555   3.152
50670SOL     OW53841   0.753  14.739  11.534
50670SOL    HW153842   0.791  14.827  11.535
50670SOL    HW253843   0.827  14.681  11.554
50671SOL     OW53844   9.332  10.005   8.442
50671SOL    HW153845   9.303   9.962   8.362
50671SOL    HW253846   9.414  10.049   8.419
50672SOL     OW53847   3.320   8.407   8.138
50672SOL    HW153848   3.348   8.359   8.216
50672SOL    HW253849   3.224   8.405   8.141
50673SOL     OW53850  11.923   7.105   4.218
50673SOL    HW153851  11.917   7.030   4.160
50673SOL    HW253852  11.948   7.178   4.161
50674SOL     OW53853   3.668  12.860   3.743
50674SOL    HW153854   3.684  12.860   3.649
50674SOL    HW253855   3.722  12.931   3.777
50675SOL     OW53856   1.061  14.033  11.075
50675SOL    HW153857   1.037  13.974  11.147
50675SOL    HW253858   1.149  14.063  11.097
50676SOL     OW53859   8.094   4.498  10.497
50676SOL    HW153860   8.120   4.489  10.589
50676SOL    HW253861   8.043   4.580  10.495
50677SOL     OW53862   3.229   0.594  13.080
50677SOL    HW153863   3.178   0.620  13.157
50677SOL    HW253864   3.183   0.634  13.006
50678SOL     OW53865   5.349   9.817   0.927
50678SOL    HW153866   5.412   9.797   0.997
50678SOL    HW253867   5.327   9.909   0.941
50679SOL     OW53868  13.898   4.167  11.943
50679SOL    HW153869  13.963   4.165  12.013
50679SOL    HW253870  13.825   4.116  11.978
50680SOL     OW53871   3.818   2.595   0.886
50680SOL    HW153872   3.821   2.672   0.828
50680SOL    HW253873   3.878   2.532   0.844
50681SOL     OW53874  12.830   5.094   5.446
50681SOL    HW153875  12.746   5.079   5.490
50681SOL    HW253876  12.808   5.150   5.372
50682SOL     OW53877  11.942   3.875   1.282
50682SOL    HW153878  11.937   3.832   1.368
50682SOL    HW253879  12.012   3.830   1.236
50683SOL     OW53880  12.102   6.648   9.103
50683SOL    HW153881  12.056   6.589   9.162
50683SOL    HW253882  12.060   6.635   9.018
50684SOL     OW53883  12.320   5.310  12.867
50684SOL    HW153884  12.282   5.316  12.955
50684SOL    HW253885  12.411   5.339  12.879
50685SOL     OW53886   9.171   1.319   4.626
50685SOL    HW153887   9.114   1.395   4.620
50685SOL    HW253888   9.112   1.244   4.632
50686SOL     OW53889  13.620   5.124  14.830
50686SOL    HW153890  13.584   5.112   0.046
50686SOL    HW253891  13.613   5.037  14.790
50687SOL     OW53892   8.257   9.107  12.261
50687SOL    HW153893   8.275   9.063  12.178
50687SOL    HW253894   8.184   9.059  12.298
50688SOL     OW53895  10.181  10.358   7.466
50688SOL    HW153896  10.256  10.309   7.501
50688SOL    HW253897  10.132  10.293   7.415
50689SOL     OW53898   0.629  11.875   6.163
50689SOL    HW153899   0.571  11.843   6.231
50689SOL    HW253900   0.593  11.840   6.082
50690SOL     OW53901   5.324   5.292   8.075
50690SOL    HW153902   5.264   5.233   8.121
50690SOL    HW253903   5.405   5.287   8.126
50691SOL     OW53904  13.990  12.165   1.721
50691SOL    HW153905  14.044  12.090   1.695
50691SOL    HW253906  13.933  12.130   1.789
50692SOL     OW53907  12.478   6.669  13.530
50692SOL    HW153908  12.432   6.622  13.460
50692SOL    HW253909  12.469   6.761  13.507
50693SOL     OW53910   1.267   3.952   3.694
50693SOL    HW153911   1.253   3.875   3.748
50693SOL    HW253912   1.262   3.921   3.604
50694SOL     OW53913  10.892   4.364   8.914
50694SOL    HW153914  10.812   4.411   8.890
50694SOL    HW253915  10.962   4.411   8.869
50695SOL     OW53916   2.623  10.021   1.744
50695SOL    HW153917   2.615  10.112   1.775
50695SOL    HW253918   2.572  10.019   1.664
50696SOL     OW53919   5.728   2.199   2.718
50696SOL    HW153920   5.647   2.210   2.668
50696SOL    HW253921   5.707   2.233   2.805
50697SOL     OW53922  13.687   2.367   5.176
50697SOL    HW153923  13.761   2.412   5.136
50697SOL    HW253924  13.630   2.343   5.103
50698SOL     OW53925   6.979   7.062  12.384
50698SOL    HW153926   6.994   7.067  12.290
50698SOL    HW253927   7.054   7.013  12.418
50699SOL     OW53928   9.482   1.576   4.687
50699SOL    HW153929   9.560   1.611   4.729
50699SOL    HW253930   9.513   1.542   4.603
50700SOL     OW53931  11.077   0.016   4.872
50700SOL    HW153932  11.051  14.811   4.922
50700SOL    HW253933  11.138   0.063   4.930
50701SOL     OW53934   9.645   7.125   8.397
50701SOL    HW153935   9.585   7.057   8.428
50701SOL    HW253936   9.642   7.193   8.464
50702SOL     OW53937   7.482   8.997  14.302
50702SOL    HW153938   7.557   9.018  14.245
50702SOL    HW253939   7.417   9.065  14.282
50703SOL     OW53940  11.379   0.378   9.071
50703SOL    HW153941  11.391   0.372   9.165
50703SOL    HW253942  11.337   0.463   9.057
50704SOL     OW53943   8.181   4.068   9.963
50704SOL    HW153944   8.215   4.131   9.899
50704SOL    HW253945   8.242   4.073  10.037
50705SOL     OW53946   2.090  14.142   7.772
50705SOL    HW153947   2.118  14.080   7.705
50705SOL    HW253948   2.084  14.226   7.726
50706SOL     OW53949   0.275   9.926   9.435
50706SOL    HW153950   0.356   9.911   9.485
50706SOL    HW253951   0.226   9.844   9.444
50707SOL     OW53952   8.208   3.936   0.479
50707SOL    HW153953   8.175   3.864   0.534
50707SOL    HW253954   8.234   3.894   0.397
50708SOL     OW53955   4.676   8.326   4.404
50708SOL    HW153956   4.626   8.397   4.443
50708SOL    HW253957   4.648   8.324   4.312
50709SOL     OW53958  14.752   0.264   2.357
50709SOL    HW153959  14.732   0.202   2.287
50709SOL    HW253960  14.710   0.226   2.435
50710SOL     OW53961  13.767  10.740  10.589
50710SOL    HW153962  13.693  10.681  10.607
50710SOL    HW253963  13.833  10.716  10.654
50711SOL     OW53964   7.141  13.600  10.463
50711SOL    HW153965   7.121  13.560  10.547
50711SOL    HW253966   7.078  13.561  10.402
50712SOL     OW53967  12.906   5.708   1.596
50712SOL    HW153968  12.829   5.760   1.575
50712SOL    HW253969  12.949   5.756   1.667
50713SOL     OW53970   2.671   8.052   6.939
50713SOL    HW153971   2.677   7.975   6.996
50713SOL    HW253972   2.705   8.022   6.854
50714SOL     OW53973   0.620  14.758   0.169
50714SOL    HW153974   0.674  14.761   0.248
50714SOL    HW253975   0.632  14.844   0.129
50715SOL     OW53976  14.451   4.560   8.105
50715SOL    HW153977  14.442   4.577   8.012
50715SOL    HW253978  14.365   4.582   8.142
50716SOL     OW53979  13.451   1.923   7.817
50716SOL    HW153980  13.364   1.957   7.842
50716SOL    HW253981  13.442   1.902   7.724
50717SOL     OW53982  11.478  14.310  12.889
50717SOL    HW153983  11.536  14.340  12.959
50717SOL    HW253984  11.393  14.298  12.932
50718SOL     OW53985   5.309   5.304  12.240
50718SOL    HW153986   5.346   5.360  12.309
50718SOL    HW253987   5.383   5.289  12.180
50719SOL     OW53988   4.019   7.395   4.878
50719SOL    HW153989   3.943   7.375   4.934
50719SOL    HW253990   4.081   7.325   4.897
50720SOL     OW53991   7.975   5.485   7.999
50720SOL    HW153992   8.046   5.422   7.993
50720SOL    HW253993   7.940   5.491   7.910
50721SOL     OW53994   6.504   0.075   6.946
50721SOL    HW153995   6.452   0.076   6.866
50721SOL    HW253996   6.541  14.859   6.949
50722SOL     OW53997   9.966   6.911   0.839
50722SOL    HW153998  10.009   6.826   0.831
50722SOL    HW253999   9.879   6.896   0.803
50723SOL     OW54000   5.024   6.767  14.558
50723SOL    HW154001   5.100   6.824  14.547
50723SOL    HW254002   5.060   6.678  14.552
50724SOL     OW54003   2.155   7.151   0.044
50724SOL    HW154004   2.095   7.099   0.097
50724SOL    HW254005   2.211   7.087   0.000
50725SOL     OW54006   7.524   2.153  10.584
50725SOL    HW154007   7.449   2.212  10.580
50725SOL    HW254008   7.570   2.167  10.501
50726SOL     OW54009   6.803   0.896   9.143
50726SOL    HW154010   6.760   0.849   9.214
50726SOL    HW254011   6.732   0.945   9.100
50727SOL     OW54012  10.866   3.013  14.640
50727SOL    HW154013  10.779   2.985  14.610
50727SOL    HW254014  10.910   2.932  14.665
50728SOL     OW54015   4.977   6.439  11.499
50728SOL    HW154016   4.963   6.499  11.426
50728SOL    HW254017   4.973   6.495  11.577
50729SOL     OW54018   2.872  11.785  11.352
50729SOL    HW154019   2.920  11.802  11.271
50729SOL    HW254020   2.780  11.794  11.328
50730SOL     OW54021  11.688   3.231   5.454
50730SOL    HW154022  11.621   3.232   5.522
50730SOL    HW254023  11.698   3.323   5.429
50731SOL     OW54024  13.359   5.713   9.640
50731SOL    HW154025  13.399   5.693   9.556
50731SOL    HW254026  13.429   5.702   9.704
50732SOL     OW54027   7.218   0.972  10.225
50732SOL    HW154028   7.280   1.042  10.205
50732SOL    HW254029   7.146   1.016  10.270
50733SOL     OW54030   7.976  10.517   6.734
50733SOL    HW154031   7.891  10.548   6.765
50733SOL    HW254032   7.976  10.536   6.640
50734SOL     OW54033   0.382  11.211   4.984
50734SOL    HW154034   0.334  11.198   5.066
50734SOL    HW254035   0.316  11.200   4.916
50735SOL     OW54036   2.790   3.221   4.699
50735SOL    HW154037   2.706   3.264   4.684
50735SOL    HW254038   2.767   3.130   4.716
50736SOL     OW54039   5.837  11.400  14.551
50736SOL    HW154040   5.885  11.446  14.482
50736SOL    HW254041   5.901  11.388  14.621
50737SOL     OW54042   0.217  10.288  10.317
50737SOL    HW154043   0.224  10.357  10.252
50737SOL    HW254044   0.269  10.216  10.281
50738SOL     OW54045   2.875   9.376  14.072
50738SOL    HW154046   2.841   9.447  14.018
50738SOL    HW254047   2.819   9.375  14.150
50739SOL     OW54048   5.158   6.263  12.147
50739SOL    HW154049   5.125   6.181  12.185
50739SOL    HW254050   5.196   6.310  12.220
50740SOL     OW54051  12.821  14.042   9.826
50740SOL    HW154052  12.860  13.959   9.853
50740SOL    HW254053  12.808  14.033   9.731
50741SOL     OW54054   0.004   9.599  11.884
50741SOL    HW154055   0.031   9.508  11.889
50741SOL    HW254056   0.072   9.648  11.930
50742SOL     OW54057   0.151  12.583   1.777
50742SOL    HW154058   0.089  12.650   1.751
50742SOL    HW254059   0.101  12.501   1.774
50743SOL     OW54060   2.141   1.590   4.203
50743SOL    HW154061   2.110   1.674   4.169
50743SOL    HW254062   2.153   1.535   4.126
50744SOL     OW54063   6.559   3.831   7.788
50744SOL    HW154064   6.563   3.914   7.741
50744SOL    HW254065   6.651   3.812   7.811
50745SOL     OW54066   2.978   3.870   6.281
50745SOL    HW154067   2.920   3.934   6.321
50745SOL    HW254068   2.942   3.785   6.308
50746SOL     OW54069   8.168   6.808   3.006
50746SOL    HW154070   8.090   6.814   2.950
50746SOL    HW254071   8.240   6.836   2.949
50747SOL     OW54072   5.367  12.724  12.908
50747SOL    HW154073   5.354  12.744  12.815
50747SOL    HW254074   5.423  12.646  12.907
50748SOL     OW54075  11.382   8.347   0.888
50748SOL    HW154076  11.321   8.418   0.907
50748SOL    HW254077  11.433   8.378   0.814
50749SOL     OW54078   5.018   0.854  10.901
50749SOL    HW154079   4.996   0.868  10.993
50749SOL    HW254080   5.105   0.893  10.891
50750SOL     OW54081  12.216   0.143   9.999
50750SOL    HW154082  12.200   0.237   9.992
50750SOL    HW254083  12.133   0.103   9.975
50751SOL     OW54084  12.075   9.258  14.335
50751SOL    HW154085  12.154   9.218  14.371
50751SOL    HW254086  12.055   9.206  14.257
50752SOL     OW54087   0.948   1.753   1.934
50752SOL    HW154088   0.881   1.722   1.873
50752SOL    HW254089   1.023   1.697   1.919
50753SOL     OW54090   5.607  12.138  13.254
50753SOL    HW154091   5.522  12.106  13.224
50753SOL    HW254092   5.667  12.116  13.183
50754SOL     OW54093   1.123   9.003   2.685
50754SOL    HW154094   1.146   8.946   2.611
50754SOL    HW254095   1.203   9.052   2.703
50755SOL     OW54096   7.705   6.211   4.097
50755SOL    HW154097   7.781   6.170   4.056
50755SOL    HW254098   7.633   6.193   4.037
50756SOL     OW54099   9.509   2.190  13.399
50756SOL    HW154100   9.497   2.198  13.493
50756SOL    HW254101   9.461   2.264  13.362
50757SOL     OW54102   5.193   5.823   5.554
50757SOL    HW154103   5.273   5.871   5.576
50757SOL    HW254104   5.214   5.778   5.472
50758SOL     OW54105   4.013   9.793   7.468
50758SOL    HW154106   3.982   9.862   7.527
50758SOL    HW254107   4.033   9.719   7.525
50759SOL     OW54108   8.576   3.290   5.285
50759SOL    HW154109   8.578   3.205   5.242
50759SOL    HW254110   8.658   3.332   5.260
50760SOL     OW54111   0.586   3.811   7.356
50760SOL    HW154112   0.494   3.798   7.378
50760SOL    HW254113   0.600   3.760   7.276
50761SOL     OW54114   7.828   6.343  10.661
50761SOL    HW154115   7.868   6.428  10.639
50761SOL    HW254116   7.896   6.298  10.711
50762SOL     OW54117   3.189   7.520   2.962
50762SOL    HW154118   3.190   7.601   3.013
50762SOL    HW254119   3.275   7.481   2.976
50763SOL     OW54120  12.271   4.035   9.551
50763SOL    HW154121  12.318   4.103   9.502
50763SOL    HW254122  12.181   4.069   9.558
50764SOL     OW54123   3.519   6.940   6.209
50764SOL    HW154124   3.561   7.018   6.173
50764SOL    HW254125   3.494   6.889   6.132
50765SOL     OW54126   6.272  11.659   8.610
50765SOL    HW154127   6.232  11.610   8.538
50765SOL    HW254128   6.365  11.665   8.585
50766SOL     OW54129   3.687  13.305   0.975
50766SOL    HW154130   3.748  13.241   1.010
50766SOL    HW254131   3.681  13.372   1.042
50767SOL     OW54132  13.189   5.585   0.750
50767SOL    HW154133  13.231   5.649   0.691
50767SOL    HW254134  13.261   5.551   0.803
50768SOL     OW54135   0.851   0.630   8.532
50768SOL    HW154136   0.775   0.688   8.527
50768SOL    HW254137   0.917   0.671   8.476
50769SOL     OW54138   5.930  11.281  10.882
50769SOL    HW154139   5.956  11.364  10.921
50769SOL    HW254140   5.871  11.241  10.946
50770SOL     OW54141  14.699  12.998  11.380
50770SOL    HW154142  14.794  13.010  11.379
50770SOL    HW254143  14.664  13.086  11.367
50771SOL     OW54144   7.450  12.737   4.297
50771SOL    HW154145   7.459  12.660   4.352
50771SOL    HW254146   7.389  12.710   4.228
50772SOL     OW54147   2.900   2.165   2.794
50772SOL    HW154148   2.805   2.159   2.805
50772SOL    HW254149   2.915   2.252   2.758
50773SOL     OW54150   0.685  12.331   5.884
50773SOL    HW154151   0.686  12.418   5.922
50773SOL    HW254152   0.694  12.345   5.790
50774SOL     OW54153  10.385  11.842   1.523
50774SOL    HW154154  10.441  11.842   1.601
50774SOL    HW254155  10.380  11.750   1.497
50775SOL     OW54156  13.819  13.166   9.461
50775SOL    HW154157  13.811  13.254   9.424
50775SOL    HW254158  13.860  13.115   9.391
50776SOL     OW54159   7.871   7.789   9.244
50776SOL    HW154160   7.940   7.726   9.223
50776SOL    HW254161   7.914   7.874   9.236
50777SOL     OW54162  10.151  13.503   0.923
50777SOL    HW154163  10.239  13.474   0.897
50777SOL    HW254164  10.168  13.571   0.989
50778SOL     OW54165   5.679   1.279  11.436
50778SOL    HW154166   5.680   1.321  11.522
50778SOL    HW254167   5.752   1.217  11.440
50779SOL     OW54168  11.470   0.177   7.817
50779SOL    HW154169  11.393   0.168   7.761
50779SOL    HW254170  11.445   0.241   7.884
50780SOL     OW54171   7.421   0.952  13.414
50780SOL    HW154172   7.491   1.015  13.399
50780SOL    HW254173   7.342   0.997  13.382
50781SOL     OW54174  14.665  12.859   0.857
50781SOL    HW154175  14.590  12.840   0.914
50781SOL    HW254176  14.642  12.820   0.773
50782SOL     OW54177   3.255  12.761   1.354
50782SOL    HW154178   3.258  12.851   1.386
50782SOL    HW254179   3.163  12.737   1.359
50783SOL     OW54180  12.686   9.325  14.511
50783SOL    HW154181  12.781   9.318  14.517
50783SOL    HW254182  12.669   9.419  14.513
50784SOL     OW54183  11.659   9.597  13.414
50784SOL    HW154184  11.614   9.669  13.370
50784SOL    HW254185  11.668   9.626  13.505
50785SOL     OW54186  13.704   0.297   2.374
50785SOL    HW154187  13.619   0.337   2.360
50785SOL    HW254188  13.710   0.286   2.469
50786SOL     OW54189  14.196   4.788  13.673
50786SOL    HW154190  14.107   4.757  13.655
50786SOL    HW254191  14.189   4.883  13.676
50787SOL     OW54192   1.798   4.952   8.394
50787SOL    HW154193   1.794   4.954   8.489
50787SOL    HW254194   1.886   4.920   8.374
50788SOL     OW54195   3.306   3.341  13.229
50788SOL    HW154196   3.211   3.354  13.225
50788SOL    HW254197   3.343   3.427  13.209
50789SOL     OW54198   0.993  10.618  14.766
50789SOL    HW154199   1.088  10.616  14.754
50789SOL    HW254200   0.957  10.605  14.679
50790SOL     OW54201   8.414   9.795  12.027
50790SOL    HW154202   8.405   9.780  11.933
50790SOL    HW254203   8.471   9.724  12.057
50791SOL     OW54204  11.997   1.685   0.019
50791SOL    HW154205  12.082   1.644   0.006
50791SOL    HW254206  11.936   1.632  14.838
50792SOL     OW54207  13.976  14.527   2.472
50792SOL    HW154208  13.906  14.578   2.429
50792SOL    HW254209  14.019  14.591   2.529
50793SOL     OW54210  12.198  11.591   3.835
50793SOL    HW154211  12.276  11.647   3.829
50793SOL    HW254212  12.228  11.506   3.804
50794SOL     OW54213  11.553  12.909  12.378
50794SOL    HW154214  11.463  12.907  12.411
50794SOL    HW254215  11.594  12.831  12.416
50795SOL     OW54216   6.513   2.773   3.115
50795SOL    HW154217   6.469   2.780   3.200
50795SOL    HW254218   6.603   2.799   3.133
50796SOL     OW54219   9.045   3.671  11.669
50796SOL    HW154220   8.985   3.738  11.636
50796SOL    HW254221   8.988   3.603  11.705
50797SOL     OW54222  11.854   6.006  13.661
50797SOL    HW154223  11.913   5.971  13.728
50797SOL    HW254224  11.815   6.083  13.702
50798SOL     OW54225  12.574   0.949   9.426
50798SOL    HW154226  12.666   0.938   9.450
50798SOL    HW254227  12.525   0.909   9.498
50799SOL     OW54228  14.505  13.773  10.053
50799SOL    HW154229  14.589  13.794  10.094
50799SOL    HW254230  14.474  13.695  10.099
50800SOL     OW54231   7.765  12.813   0.277
50800SOL    HW154232   7.707  12.789   0.350
50800SOL    HW254233   7.846  12.765   0.295
50801SOL     OW54234  13.160   6.760  11.350
50801SOL    HW154235  13.173   6.847  11.387
50801SOL    HW254236  13.213   6.759  11.271
50802SOL     OW54237   1.416   6.336   7.519
50802SOL    HW154238   1.433   6.329   7.612
50802SOL    HW254239   1.340   6.394   7.512
50803SOL     OW54240   0.764   7.937   9.911
50803SOL    HW154241   0.708   7.959   9.836
50803SOL    HW254242   0.702   7.908   9.978
50804SOL     OW54243   2.228   9.034  13.773
50804SOL    HW154244   2.199   9.063  13.860
50804SOL    HW254245   2.318   9.005  13.786
50805SOL     OW54246  12.469   9.672   7.416
50805SOL    HW154247  12.547   9.680   7.470
50805SOL    HW254248  12.404   9.631   7.473
50806SOL     OW54249  12.591  13.561  10.545
50806SOL    HW154250  12.575  13.635  10.487
50806SOL    HW254251  12.506  13.541  10.583
50807SOL     OW54252  11.874  10.732   4.548
50807SOL    HW154253  11.923  10.735   4.630
50807SOL    HW254254  11.868  10.824   4.520
50808SOL     OW54255  11.930   3.364   1.435
50808SOL    HW154256  12.023   3.386   1.431
50808SOL    HW254257  11.886   3.432   1.384
50809SOL     OW54258   1.236   4.955   1.307
50809SOL    HW154259   1.230   4.866   1.342
50809SOL    HW254260   1.146   4.985   1.304
50810SOL     OW54261   2.041  11.926   9.175
50810SOL    HW154262   2.028  12.020   9.175
50810SOL    HW254263   1.975  11.893   9.237
50811SOL     OW54264   5.482  12.948  13.660
50811SOL    HW154265   5.475  13.030  13.710
50811SOL    HW254266   5.555  12.901  13.702
50812SOL     OW54267  10.310  13.298   9.676
50812SOL    HW154268  10.257  13.373   9.702
50812SOL    HW254269  10.253  13.222   9.691
50813SOL     OW54270   3.574   7.051   7.837
50813SOL    HW154271   3.629   7.117   7.795
50813SOL    HW254272   3.635   6.998   7.888
50814SOL     OW54273  10.326  12.556   1.658
50814SOL    HW154274  10.396  12.611   1.622
50814SOL    HW254275  10.252  12.568   1.599
50815SOL     OW54276   1.502  12.229  14.734
50815SOL    HW154277   1.474  12.209  14.823
50815SOL    HW254278   1.592  12.258  14.743
50816SOL     OW54279   5.877  12.687   7.728
50816SOL    HW154280   5.836  12.751   7.786
50816SOL    HW254281   5.851  12.713   7.640
50817SOL     OW54282   4.776  13.833   8.582
50817SOL    HW154283   4.686  13.838   8.549
50817SOL    HW254284   4.824  13.895   8.528
50818SOL     OW54285  12.342  11.699   4.314
50818SOL    HW154286  12.317  11.699   4.406
50818SOL    HW254287  12.284  11.763   4.273
50819SOL     OW54288   3.520   7.284   9.606
50819SOL    HW154289   3.526   7.197   9.565
50819SOL    HW254290   3.569   7.341   9.547
50820SOL     OW54291   4.236  13.485   5.498
50820SOL    HW154292   4.277  13.516   5.417
50820SOL    HW254293   4.156  13.441   5.469
50821SOL     OW54294  12.576  12.802   4.215
50821SOL    HW154295  12.597  12.825   4.306
50821SOL    HW254296  12.541  12.883   4.178
50822SOL     OW54297   9.741   8.532   0.659
50822SOL    HW154298   9.684   8.565   0.589
50822SOL    HW254299   9.821   8.584   0.651
50823SOL     OW54300   1.595   3.452   7.947
50823SOL    HW154301   1.514   3.500   7.963
50823SOL    HW254302   1.642   3.454   8.030
50824SOL     OW54303  11.535   8.301   4.911
50824SOL    HW154304  11.599   8.363   4.945
50824SOL    HW254305  11.586   8.245   4.851
50825SOL     OW54306   4.455  10.824   5.132
50825SOL    HW154307   4.522  10.815   5.064
50825SOL    HW254308   4.499  10.795   5.212
50826SOL     OW54309   4.448   1.865   1.834
50826SOL    HW154310   4.378   1.927   1.812
50826SOL    HW254311   4.528   1.917   1.827
50827SOL     OW54312   1.615   1.010   3.052
50827SOL    HW154313   1.622   1.100   3.084
50827SOL    HW254314   1.657   0.957   3.121
50828SOL     OW54315   7.817   8.200   2.399
50828SOL    HW154316   7.764   8.136   2.350
50828SOL    HW254317   7.902   8.157   2.409
50829SOL     OW54318  13.684  11.866  14.368
50829SOL    HW154319  13.711  11.944  14.318
50829SOL    HW254320  13.629  11.901  14.438
50830SOL     OW54321   0.916   2.159   2.542
50830SOL    HW154322   0.961   2.079   2.570
50830SOL    HW254323   0.846   2.171   2.607
50831SOL     OW54324  12.574  11.965   6.574
50831SOL    HW154325  12.516  12.019   6.628
50831SOL    HW254326  12.547  11.984   6.484
50832SOL     OW54327  11.199   6.534  11.624
50832SOL    HW154328  11.262   6.507  11.558
50832SOL    HW254329  11.126   6.472  11.615
50833SOL     OW54330   7.574   8.999  12.956
50833SOL    HW154331   7.576   9.045  12.872
50833SOL    HW254332   7.630   9.050  13.013
50834SOL     OW54333   9.050  14.398  12.949
50834SOL    HW154334   9.098  14.481  12.959
50834SOL    HW254335   9.096  14.352  12.879
50835SOL     OW54336   2.099   4.910   3.725
50835SOL    HW154337   2.175   4.902   3.668
50835SOL    HW254338   2.025   4.889   3.668
50836SOL     OW54339   6.167   4.663  12.956
50836SOL    HW154340   6.105   4.712  12.901
50836SOL    HW254341   6.234   4.633  12.895
50837SOL     OW54342   8.017   6.650   5.046
50837SOL    HW154343   8.013   6.563   5.085
50837SOL    HW254344   7.970   6.706   5.106
50838SOL     OW54345  12.063   6.510  13.193
50838SOL    HW154346  12.046   6.537  13.103
50838SOL    HW254347  12.006   6.433  13.206
50839SOL     OW54348   1.741   3.792   6.265
50839SOL    HW154349   1.805   3.780   6.336
50839SOL    HW254350   1.794   3.813   6.188
50840SOL     OW54351  14.073   6.770   1.567
50840SOL    HW154352  14.137   6.819   1.516
50840SOL    HW254353  13.991   6.818   1.556
50841SOL     OW54354   5.479   6.493   0.493
50841SOL    HW154355   5.501   6.432   0.423
50841SOL    HW254356   5.474   6.579   0.450
50842SOL     OW54357   3.241   3.317   1.600
50842SOL    HW154358   3.285   3.390   1.643
50842SOL    HW254359   3.207   3.264   1.672
50843SOL     OW54360   7.030   8.390   3.534
50843SOL    HW154361   6.993   8.309   3.569
50843SOL    HW254362   6.986   8.459   3.582
50844SOL     OW54363  10.076  13.653   8.432
50844SOL    HW154364  10.041  13.742   8.422
50844SOL    HW254365   9.999  13.597   8.431
50845SOL     OW54366  12.156   9.403   6.840
50845SOL    HW154367  12.169   9.429   6.931
50845SOL    HW254368  12.245   9.395   6.804
50846SOL     OW54369  14.271   6.673   6.971
50846SOL    HW154370  14.241   6.715   6.890
50846SOL    HW254371  14.324   6.599   6.942
50847SOL     OW54372   5.803   2.529   5.063
50847SOL    HW154373   5.830   2.597   5.125
50847SOL    HW254374   5.883   2.510   5.013
50848SOL     OW54375   3.981   4.363   7.465
50848SOL    HW154376   3.971   4.274   7.432
50848SOL    HW254377   3.924   4.367   7.542
50849SOL     OW54378   6.137  13.546  12.275
50849SOL    HW154379   6.148  13.482  12.345
50849SOL    HW254380   6.192  13.514  12.203
50850SOL     OW54381  13.308   5.502   4.316
50850SOL    HW154382  13.306   5.425   4.259
50850SOL    HW254383  13.401   5.518   4.332
50851SOL     OW54384   5.337   2.441   1.260
50851SOL    HW154385   5.362   2.531   1.238
50851SOL    HW254386   5.293   2.449   1.345
50852SOL     OW54387  11.307   8.144   7.325
50852SOL    HW154388  11.387   8.102   7.292
50852SOL    HW254389  11.302   8.117   7.417
50853SOL     OW54390   8.444   8.898   8.275
50853SOL    HW154391   8.496   8.978   8.278
50853SOL    HW254392   8.356   8.925   8.299
50854SOL     OW54393   5.919  14.635  10.641
50854SOL    HW154394   5.992  14.693  10.620
50854SOL    HW254395   5.947  14.589  10.720
50855SOL     OW54396  14.603   4.813  11.402
50855SOL    HW154397  14.697   4.823  11.420
50855SOL    HW254398  14.566   4.782  11.484
50856SOL     OW54399   0.349   8.867   4.637
50856SOL    HW154400   0.297   8.895   4.561
50856SOL    HW254401   0.435   8.844   4.600
50857SOL     OW54402   9.746  14.334   9.989
50857SOL    HW154403   9.739  14.426  10.014
50857SOL    HW254404   9.659  14.298  10.005
50858SOL     OW54405   2.092  11.472   4.721
50858SOL    HW154406   2.183  11.450   4.703
50858SOL    HW254407   2.058  11.506   4.638
50859SOL     OW54408   9.781  13.950   2.267
50859SOL    HW154409   9.805  13.997   2.347
50859SOL    HW254410   9.801  13.858   2.287
50860SOL     OW54411   5.807  14.559  12.118
50860SOL    HW154412   5.812  14.654  12.127
50860SOL    HW254413   5.859  14.525  12.191
50861SOL     OW54414   2.160  12.747   5.674
50861SOL    HW154415   2.099  12.673   5.676
50861SOL    HW254416   2.175  12.763   5.581
50862SOL     OW54417   8.684   2.935   0.023
50862SOL    HW154418   8.612   2.989  14.864
50862SOL    HW254419   8.661   2.846  14.869
50863SOL     OW54420   2.989  13.588  10.970
50863SOL    HW154421   2.894  13.579  10.977
50863SOL    HW254422   3.015  13.525  10.902
50864SOL     OW54423   7.370   1.019   7.778
50864SOL    HW154424   7.421   1.064   7.710
50864SOL    HW254425   7.356   1.087   7.845
50865SOL     OW54426   2.622  13.230   1.675
50865SOL    HW154427   2.614  13.310   1.727
50865SOL    HW254428   2.707  13.193   1.700
50866SOL     OW54429   3.416  13.119   3.122
50866SOL    HW154430   3.410  13.142   3.030
50866SOL    HW254431   3.474  13.185   3.160
50867SOL     OW54432   6.778   1.813  12.464
50867SOL    HW154433   6.794   1.907  12.466
50867SOL    HW254434   6.739   1.797  12.377
50868SOL     OW54435  11.027   4.624   7.902
50868SOL    HW154436  10.959   4.688   7.884
50868SOL    HW254437  11.071   4.657   7.981
50869SOL     OW54438   7.268   0.526   2.173
50869SOL    HW154439   7.273   0.579   2.252
50869SOL    HW254440   7.342   0.555   2.119
50870SOL     OW54441   9.592   2.151   9.519
50870SOL    HW154442   9.547   2.089   9.576
50870SOL    HW254443   9.559   2.130   9.431
50871SOL     OW54444  12.327   6.905   2.664
50871SOL    HW154445  12.265   6.938   2.599
50871SOL    HW254446  12.411   6.941   2.638
50872SOL     OW54447  12.669   2.050   6.179
50872SOL    HW154448  12.714   2.133   6.197
50872SOL    HW254449  12.633   2.024   6.263
50873SOL     OW54450   8.375   3.228   6.880
50873SOL    HW154451   8.359   3.263   6.792
50873SOL    HW254452   8.294   3.183   6.904
50874SOL     OW54453  12.691   5.220   8.113
50874SOL    HW154454  12.702   5.314   8.098
50874SOL    HW254455  12.756   5.178   8.056
50875SOL     OW54456   2.543  14.283   6.157
50875SOL    HW154457   2.481  14.243   6.218
50875SOL    HW254458   2.597  14.210   6.125
50876SOL     OW54459  13.356  11.629   6.485
50876SOL    HW154460  13.380  11.538   6.467
50876SOL    HW254461  13.261  11.629   6.490
50877SOL     OW54462   7.958  12.678   6.596
50877SOL    HW154463   7.896  12.750   6.580
50877SOL    HW254464   7.936  12.612   6.531
50878SOL     OW54465   5.416  11.523   6.708
50878SOL    HW154466   5.495  11.564   6.743
50878SOL    HW254467   5.436  11.508   6.615
50879SOL     OW54468   2.442  10.837  11.648
50879SOL    HW154469   2.440  10.741  11.648
50879SOL    HW254470   2.380  10.863  11.716
50880SOL     OW54471   1.533  11.844  11.577
50880SOL    HW154472   1.586  11.921  11.594
50880SOL    HW254473   1.477  11.868  11.503
50881SOL     OW54474   7.607   3.416   4.507
50881SOL    HW154475   7.539   3.447   4.447
50881SOL    HW254476   7.686   3.410   4.453
50882SOL     OW54477   4.711  12.254  14.629
50882SOL    HW154478   4.700  12.225  14.719
50882SOL    HW254479   4.626  12.236  14.587
50883SOL     OW54480   5.085  10.949   2.336
50883SOL    HW154481   5.057  10.866   2.299
50883SOL    HW254482   5.050  11.015   2.277
50884SOL     OW54483   0.414   5.826   4.509
50884SOL    HW154484   0.378   5.901   4.462
50884SOL    HW254485   0.499   5.856   4.540
50885SOL     OW54486  12.679  12.700   0.459
50885SOL    HW154487  12.740  12.634   0.491
50885SOL    HW254488  12.596  12.677   0.501
50886SOL     OW54489   4.885  11.677   9.650
50886SOL    HW154490   4.807  11.694   9.598
50886SOL    HW254491   4.938  11.756   9.641
50887SOL     OW54492  14.685  14.424   0.042
50887SOL    HW154493  14.755  14.375   0.086
50887SOL    HW254494  14.731  14.495  14.869
50888SOL     OW54495  13.790  14.174   2.117
50888SOL    HW154496  13.765  14.091   2.157
50888SOL    HW254497  13.879  14.191   2.148
50889SOL     OW54498   5.513   1.844   3.294
50889SOL    HW154499   5.557   1.819   3.375
50889SOL    HW254500   5.426   1.872   3.321
50890SOL     OW54501   2.977  14.428  14.671
50890SOL    HW154502   2.946  14.441  14.582
50890SOL    HW254503   2.898  14.437  14.725
50891SOL     OW54504   6.034  11.901   0.183
50891SOL    HW154505   5.962  11.892   0.120
50891SOL    HW254506   6.017  11.834   0.249
50892SOL     OW54507   9.362   9.549   1.376
50892SOL    HW154508   9.415   9.525   1.452
50892SOL    HW254509   9.386   9.640   1.358
50893SOL     OW54510  14.654  10.150   5.157
50893SOL    HW154511  14.736  10.197   5.173
50893SOL    HW254512  14.677  10.058   5.169
50894SOL     OW54513   3.895   8.699  10.722
50894SOL    HW154514   3.836   8.733  10.790
50894SOL    HW254515   3.900   8.605  10.740
50895SOL     OW54516   8.591   0.499  14.749
50895SOL    HW154517   8.497   0.480  14.744
50895SOL    HW254518   8.598   0.590  14.721
50896SOL     OW54519   9.791  12.758  14.668
50896SOL    HW154520   9.757  12.670  14.656
50896SOL    HW254521   9.727  12.802  14.723
50897SOL     OW54522   5.101   5.793  11.368
50897SOL    HW154523   5.008   5.783  11.392
50897SOL    HW254524   5.101   5.864  11.304
50898SOL     OW54525   8.989   4.482   0.854
50898SOL    HW154526   8.896   4.499   0.842
50898SOL    HW254527   9.032   4.564   0.831
50899SOL     OW54528   9.880  14.022   7.470
50899SOL    HW154529   9.919  13.936   7.483
50899SOL    HW254530   9.865  14.055   7.559
50900SOL     OW54531   6.077  13.329   3.827
50900SOL    HW154532   5.997  13.282   3.850
50900SOL    HW254533   6.082  13.401   3.890
50901SOL     OW54534   8.773   8.946  12.831
50901SOL    HW154535   8.723   8.874  12.792
50901SOL    HW254536   8.769   8.929  12.925
50902SOL     OW54537  13.172  14.509   8.762
50902SOL    HW154538  13.244  14.528   8.702
50902SOL    HW254539  13.121  14.441   8.717
50903SOL     OW54540   6.424   5.958  12.180
50903SOL    HW154541   6.509   6.001  12.180
50903SOL    HW254542   6.382   5.988  12.099
50904SOL     OW54543  12.607  12.129   2.583
50904SOL    HW154544  12.666  12.190   2.627
50904SOL    HW254545  12.613  12.153   2.491
50905SOL     OW54546   7.879   4.103   6.074
50905SOL    HW154547   7.856   4.012   6.055
50905SOL    HW254548   7.889   4.106   6.169
50906SOL     OW54549   4.777   5.385  14.805
50906SOL    HW154550   4.711   5.392  14.736
50906SOL    HW254551   4.851   5.341  14.764
50907SOL     OW54552   9.131   2.448   6.347
50907SOL    HW154553   9.054   2.414   6.303
50907SOL    HW254554   9.102   2.530   6.387
50908SOL     OW54555   8.317   8.626   3.305
50908SOL    HW154556   8.317   8.716   3.337
50908SOL    HW254557   8.225   8.607   3.286
50909SOL     OW54558   5.973  14.726   7.851
50909SOL    HW154559   6.035  14.699   7.919
50909SOL    HW254560   6.001  14.814   7.826
50910SOL     OW54561  13.091  13.335   0.859
50910SOL    HW154562  13.007  13.372   0.885
50910SOL    HW254563  13.125  13.295   0.940
50911SOL     OW54564  10.057  13.986  11.805
50911SOL    HW154565  10.070  13.920  11.736
50911SOL    HW254566  10.003  14.053  11.763
50912SOL     OW54567  13.362   9.827   0.462
50912SOL    HW154568  13.395   9.916   0.475
50912SOL    HW254569  13.350   9.820   0.367
50913SOL     OW54570   0.126   9.750   2.653
50913SOL    HW154571   0.089   9.732   2.740
50913SOL    HW254572   0.056   9.725   2.592
50914SOL     OW54573   8.764  10.557   8.052
50914SOL    HW154574   8.762  10.564   8.147
50914SOL    HW254575   8.839  10.611   8.026
50915SOL     OW54576   8.213   8.782  13.839
50915SOL    HW154577   8.286   8.809  13.896
50915SOL    HW254578   8.146   8.751  13.899
50916SOL     OW54579   5.312   0.117  14.226
50916SOL    HW154580   5.363   0.038  14.207
50916SOL    HW254581   5.343   0.181  14.163
50917SOL     OW54582   7.831   9.016  10.873
50917SOL    HW154583   7.813   8.923  10.859
50917SOL    HW254584   7.906   9.035  10.817
50918SOL     OW54585   8.816  11.974   0.130
50918SOL    HW154586   8.847  11.945   0.216
50918SOL    HW254587   8.881  11.940   0.069
50919SOL     OW54588   5.228   3.434  12.053
50919SOL    HW154589   5.225   3.523  12.019
50919SOL    HW254590   5.308   3.397  12.016
50920SOL     OW54591   5.365  14.538   1.660
50920SOL    HW154592   5.430  14.468   1.652
50920SOL    HW254593   5.380  14.593   1.583
50921SOL     OW54594   9.019  10.776   0.647
50921SOL    HW154595   8.968  10.826   0.583
50921SOL    HW254596   9.098  10.751   0.600
50922SOL     OW54597   5.164  12.740  10.677
50922SOL    HW154598   5.087  12.726  10.622
50922SOL    HW254599   5.199  12.825  10.648
50923SOL     OW54600   2.299  14.439   4.523
50923SOL    HW154601   2.293  14.504   4.453
50923SOL    HW254602   2.323  14.358   4.479
50924SOL     OW54603   7.374  13.306  10.690
50924SOL    HW154604   7.450  13.335  10.739
50924SOL    HW254605   7.390  13.212  10.676
50925SOL     OW54606  12.914   3.137   2.118
50925SOL    HW154607  12.881   3.050   2.140
50925SOL    HW254608  12.890   3.191   2.193
50926SOL     OW54609   1.686   9.212  12.794
50926SOL    HW154610   1.754   9.198  12.728
50926SOL    HW254611   1.707   9.297  12.832
50927SOL     OW54612   6.665  13.395   4.208
50927SOL    HW154613   6.575  13.414   4.233
50927SOL    HW254614   6.679  13.444   4.128
50928SOL     OW54615   3.061  10.248   5.566
50928SOL    HW154616   3.060  10.251   5.662
50928SOL    HW254617   2.984  10.298   5.540
50929SOL     OW54618   8.543   6.749   3.380
50929SOL    HW154619   8.516   6.685   3.446
50929SOL    HW254620   8.595   6.699   3.317
50930SOL     OW54621   4.813  11.051   5.808
50930SOL    HW154622   4.878  11.107   5.852
50930SOL    HW254623   4.853  10.964   5.807
50931SOL     OW54624   7.278   5.124  11.959
50931SOL    HW154625   7.338   5.128  12.034
50931SOL    HW254626   7.286   5.035  11.926
50932SOL     OW54627   8.639  11.654   1.622
50932SOL    HW154628   8.694  11.729   1.647
50932SOL    HW254629   8.675  11.625   1.539
50933SOL     OW54630   7.199   1.121  13.390
50933SOL    HW154631   7.141   1.150  13.461
50933SOL    HW254632   7.140   1.111  13.315
50934SOL     OW54633   4.978   6.282   0.318
50934SOL    HW154634   4.966   6.340   0.244
50934SOL    HW254635   5.039   6.328   0.376
50935SOL     OW54636  11.716  12.655   6.726
50935SOL    HW154637  11.670  12.734   6.699
50935SOL    HW254638  11.669  12.627   6.805
50936SOL     OW54639   0.631  13.757   5.110
50936SOL    HW154640   0.700  13.821   5.095
50936SOL    HW254641   0.610  13.765   5.203
50937SOL     OW54642   1.372   0.702  13.127
50937SOL    HW154643   1.429   0.626  13.117
50937SOL    HW254644   1.383   0.729  13.217
50938SOL     OW54645  12.396   7.487  10.593
50938SOL    HW154646  12.405   7.487  10.688
50938SOL    HW254647  12.471   7.538  10.562
50939SOL     OW54648  12.698   3.366  10.458
50939SOL    HW154649  12.670   3.281  10.494
50939SOL    HW254650  12.654   3.371  10.373
50940SOL     OW54651  14.528  10.836   5.089
50940SOL    HW154652  14.459  10.769   5.087
50940SOL    HW254653  14.516  10.879   5.174
50941SOL     OW54654   0.564   4.274   1.010
50941SOL    HW154655   0.490   4.215   1.027
50941SOL    HW254656   0.615   4.230   0.943
50942SOL     OW54657   4.355   0.914   7.606
50942SOL    HW154658   4.366   0.829   7.647
50942SOL    HW254659   4.343   0.895   7.513
50943SOL     OW54660   3.834   6.537   1.238
50943SOL    HW154661   3.926   6.532   1.260
50943SOL    HW254662   3.789   6.547   1.321
50944SOL     OW54663   5.928   7.788  13.130
50944SOL    HW154664   5.929   7.869  13.079
50944SOL    HW254665   5.835   7.765  13.135
50945SOL     OW54666   8.856  14.337   1.419
50945SOL    HW154667   8.771  14.304   1.390
50945SOL    HW254668   8.835  14.406   1.482
50946SOL     OW54669   8.382   9.361   4.883
50946SOL    HW154670   8.328   9.284   4.904
50946SOL    HW254671   8.371   9.373   4.789
50947SOL     OW54672  13.870   1.882   8.040
50947SOL    HW154673  13.874   1.908   8.132
50947SOL    HW254674  13.869   1.786   8.042
50948SOL     OW54675   9.131  11.448   3.253
50948SOL    HW154676   9.086  11.445   3.168
50948SOL    HW254677   9.136  11.541   3.274
50949SOL     OW54678  11.392   9.883   7.539
50949SOL    HW154679  11.456   9.944   7.577
50949SOL    HW254680  11.417   9.798   7.573
50950SOL     OW54681   6.103   1.466   9.191
50950SOL    HW154682   6.106   1.492   9.283
50950SOL    HW254683   6.188   1.425   9.175
50951SOL     OW54684  12.050   9.371   8.937
50951SOL    HW154685  12.063   9.409   8.850
50951SOL    HW254686  12.047   9.445   8.996
50952SOL     OW54687   2.458   6.603   1.240
50952SOL    HW154688   2.471   6.647   1.156
50952SOL    HW254689   2.364   6.589   1.246
50953SOL     OW54690   5.690   9.487   8.142
50953SOL    HW154691   5.772   9.528   8.167
50953SOL    HW254692   5.643   9.555   8.093
50954SOL     OW54693   8.444   4.097   1.062
50954SOL    HW154694   8.414   4.044   1.136
50954SOL    HW254695   8.430   4.041   0.986
50955SOL     OW54696  12.942   4.840   7.839
50955SOL    HW154697  12.905   4.832   7.751
50955SOL    HW254698  13.006   4.769   7.845
50956SOL     OW54699  13.857   6.651   9.604
50956SOL    HW154700  13.880   6.719   9.668
50956SOL    HW254701  13.776   6.612   9.639
50957SOL     OW54702   7.960   7.721   6.932
50957SOL    HW154703   7.953   7.803   6.980
50957SOL    HW254704   8.028   7.736   6.867
50958SOL     OW54705   4.493  10.366   1.167
50958SOL    HW154706   4.580  10.329   1.161
50958SOL    HW254707   4.436  10.293   1.191
50959SOL     OW54708  11.961   8.876  10.418
50959SOL    HW154709  11.989   8.832  10.498
50959SOL    HW254710  12.006   8.830  10.348
50960SOL     OW54711  14.284  12.077   4.033
50960SOL    HW154712  14.332  12.022   4.096
50960SOL    HW254713  14.285  12.026   3.952
50961SOL     OW54714   3.788  12.209  13.541
50961SOL    HW154715   3.867  12.262  13.551
50961SOL    HW254716   3.759  12.192  13.631
50962SOL     OW54717   3.507   1.185   3.492
50962SOL    HW154718   3.590   1.229   3.478
50962SOL    HW254719   3.441   1.253   3.475
50963SOL     OW54720  11.956   9.280   8.164
50963SOL    HW154721  11.974   9.198   8.211
50963SOL    HW254722  11.888   9.256   8.100
50964SOL     OW54723  12.080   7.260   1.082
50964SOL    HW154724  12.032   7.278   1.001
50964SOL    HW254725  12.017   7.279   1.152
50965SOL     OW54726   9.490  14.803  14.624
50965SOL    HW154727   9.524  14.862  14.691
50965SOL    HW254728   9.517  14.843  14.541
50966SOL     OW54729   6.003   8.643   3.400
50966SOL    HW154730   5.959   8.650   3.315
50966SOL    HW254731   6.025   8.551   3.409
50967SOL     OW54732   4.918   3.907   8.436
50967SOL    HW154733   4.898   3.841   8.503
50967SOL    HW254734   4.832   3.944   8.414
50968SOL     OW54735  11.458   9.575   5.284
50968SOL    HW154736  11.433   9.592   5.193
50968SOL    HW254737  11.462   9.662   5.324
50969SOL     OW54738   1.340  10.973   3.022
50969SOL    HW154739   1.270  10.913   3.048
50969SOL    HW254740   1.417  10.944   3.071
50970SOL     OW54741  12.957   2.279   3.116
50970SOL    HW154742  13.009   2.347   3.158
50970SOL    HW254743  12.995   2.270   3.029
50971SOL     OW54744   6.681  10.900   1.882
50971SOL    HW154745   6.729  10.973   1.843
50971SOL    HW254746   6.742  10.827   1.879
50972SOL     OW54747  14.493  12.115   3.388
50972SOL    HW154748  14.564  12.056   3.411
50972SOL    HW254749  14.531  12.175   3.324
50973SOL     OW54750   7.863  13.058  11.748
50973SOL    HW154751   7.849  13.141  11.793
50973SOL    HW254752   7.775  13.026  11.728
50974SOL     OW54753  10.743   4.676  13.477
50974SOL    HW154754  10.690   4.734  13.532
50974SOL    HW254755  10.715   4.588  13.501
50975SOL     OW54756   6.847   5.367  12.265
50975SOL    HW154757   6.830   5.440  12.206
50975SOL    HW254758   6.926   5.326  12.230
50976SOL     OW54759  13.846  10.605  12.204
50976SOL    HW154760  13.832  10.699  12.218
50976SOL    HW254761  13.932  10.588  12.243
50977SOL     OW54762   1.648   9.866   7.882
50977SOL    HW154763   1.610   9.831   7.802
50977SOL    HW254764   1.670   9.790   7.934
50978SOL     OW54765  12.445   2.835   2.758
50978SOL    HW154766  12.534   2.851   2.725
50978SOL    HW254767  12.420   2.751   2.721
50979SOL     OW54768   4.231   7.992  11.712
50979SOL    HW154769   4.187   7.929  11.654
50979SOL    HW254770   4.204   8.077  11.679
50980SOL     OW54771   3.606   2.565  11.859
50980SOL    HW154772   3.516   2.564  11.893
50980SOL    HW254773   3.661   2.575  11.937
50981SOL     OW54774  11.575  14.698  14.665
50981SOL    HW154775  11.591  14.760  14.594
50981SOL    HW254776  11.662  14.680  14.701
50982SOL     OW54777   5.786   9.805   9.883
50982SOL    HW154778   5.809   9.897   9.896
50982SOL    HW254779   5.732   9.805   9.804
50983SOL     OW54780   4.338  13.986   9.064
50983SOL    HW154781   4.266  13.962   9.122
50983SOL    HW254782   4.395  13.910   9.064
50984SOL     OW54783  11.294   1.318  10.087
50984SOL    HW154784  11.377   1.365  10.078
50984SOL    HW254785  11.289   1.263  10.009
50985SOL     OW54786   6.733  14.481   6.450
50985SOL    HW154787   6.776  14.546   6.395
50985SOL    HW254788   6.803  14.420   6.473
50986SOL     OW54789   4.495   2.249   2.336
50986SOL    HW154790   4.470   2.183   2.272
50986SOL    HW254791   4.416   2.264   2.389
50987SOL     OW54792   5.186   5.007  11.221
50987SOL    HW154793   5.115   5.049  11.172
50987SOL    HW254794   5.203   4.926  11.174
50988SOL     OW54795   6.943   0.420   5.533
50988SOL    HW154796   6.901   0.355   5.477
50988SOL    HW254797   7.000   0.470   5.474
50989SOL     OW54798   7.442   4.072  14.778
50989SOL    HW154799   7.353   4.075  14.743
50989SOL    HW254800   7.495   4.044  14.703
50990SOL     OW54801   4.961  13.200   4.317
50990SOL    HW154802   5.025  13.266   4.342
50990SOL    HW254803   4.970  13.192   4.222
50991SOL     OW54804   3.740  13.353   9.528
50991SOL    HW154805   3.711  13.296   9.456
50991SOL    HW254806   3.700  13.315   9.606
50992SOL     OW54807  14.016  13.714   6.223
50992SOL    HW154808  13.975  13.694   6.138
50992SOL    HW254809  14.055  13.801   6.211
50993SOL     OW54810  13.293   4.745  13.920
50993SOL    HW154811  13.304   4.685  13.994
50993SOL    HW254812  13.210   4.789  13.938
50994SOL     OW54813   5.511   8.547   1.069
50994SOL    HW154814   5.604   8.537   1.086
50994SOL    HW254815   5.503   8.635   1.032
50995SOL     OW54816  11.514   3.227  11.621
50995SOL    HW154817  11.530   3.218  11.715
50995SOL    HW254818  11.420   3.210  11.611
50996SOL     OW54819  12.088   2.517  11.221
50996SOL    HW154820  12.154   2.448  11.208
50996SOL    HW254821  12.135   2.587  11.265
50997SOL     OW54822  12.482   4.997   2.482
50997SOL    HW154823  12.396   5.037   2.473
50997SOL    HW254824  12.468   4.904   2.462
50998SOL     OW54825  11.203   8.707  12.034
50998SOL    HW154826  11.238   8.664  11.956
50998SOL    HW254827  11.270   8.771  12.058
50999SOL     OW54828  13.763   9.361   5.244
50999SOL    HW154829  13.693   9.400   5.192
50999SOL    HW254830  13.753   9.267   5.231
51000SOL     OW54831   8.506   7.424   9.998
51000SOL    HW154832   8.553   7.347  10.031
51000SOL    HW254833   8.419   7.390   9.977
51001SOL     OW54834   3.325   2.086   6.191
51001SOL    HW154835   3.372   2.162   6.156
51001SOL    HW254836   3.233   2.103   6.172
51002SOL     OW54837  13.788   4.360   0.126
51002SOL    HW154838  13.804   4.300   0.199
51002SOL    HW254839  13.723   4.315   0.072
51003SOL     OW54840   9.091   5.832  12.911
51003SOL    HW154841   9.089   5.850  12.817
51003SOL    HW254842   9.049   5.746  12.920
51004SOL     OW54843   1.467  13.683  10.792
51004SOL    HW154844   1.481  13.632  10.871
51004SOL    HW254845   1.548  13.732  10.780
51005SOL     OW54846   9.078   2.415  11.551
51005SOL    HW154847   9.046   2.499  11.519
51005SOL    HW254848   9.000   2.361  11.557
51006SOL     OW54849  11.113   1.814   0.242
51006SOL    HW154850  11.193   1.773   0.211
51006SOL    HW254851  11.091   1.766   0.322
51007SOL     OW54852   8.073   9.513   1.746
51007SOL    HW154853   8.023   9.448   1.696
51007SOL    HW254854   8.027   9.520   1.830
51008SOL     OW54855   5.041  14.582   6.089
51008SOL    HW154856   4.993  14.502   6.068
51008SOL    HW254857   5.050  14.581   6.184
51009SOL     OW54858  14.580   0.576   8.451
51009SOL    HW154859  14.500   0.543   8.410
51009SOL    HW254860  14.613   0.641   8.388
51010SOL     OW54861  11.438   7.927  12.701
51010SOL    HW154862  11.475   7.895  12.619
51010SOL    HW254863  11.456   7.858  12.765
51011SOL     OW54864   7.988   2.956   2.645
51011SOL    HW154865   7.969   2.911   2.727
51011SOL    HW254866   8.069   3.004   2.662
51012SOL     OW54867   6.813  10.217   5.262
51012SOL    HW154868   6.760  10.219   5.342
51012SOL    HW254869   6.851  10.129   5.261
51013SOL     OW54870   4.766  11.789   4.729
51013SOL    HW154871   4.753  11.877   4.695
51013SOL    HW254872   4.678  11.752   4.734
51014SOL     OW54873   5.172  14.805  13.446
51014SOL    HW154874   5.225  14.852  13.509
51014SOL    HW254875   5.093  14.859  13.435
51015SOL     OW54876   3.731   8.359   8.715
51015SOL    HW154877   3.662   8.345   8.781
51015SOL    HW254878   3.785   8.280   8.720
51016SOL     OW54879   5.003  14.195  13.604
51016SOL    HW154880   5.006  14.280  13.648
51016SOL    HW254881   4.987  14.132  13.675
51017SOL     OW54882  13.492   6.787  14.235
51017SOL    HW154883  13.576   6.780  14.280
51017SOL    HW254884  13.483   6.880  14.216
51018SOL     OW54885   1.112   2.776  12.063
51018SOL    HW154886   1.171   2.851  12.052
51018SOL    HW254887   1.040   2.793  12.002
51019SOL     OW54888   4.313   1.935   0.756
51019SOL    HW154889   4.337   1.843   0.746
51019SOL    HW254890   4.258   1.954   0.680
51020SOL     OW54891  13.231  10.531   5.536
51020SOL    HW154892  13.195  10.455   5.490
51020SOL    HW254893  13.162  10.597   5.532
51021SOL     OW54894   7.471   9.673  11.268
51021SOL    HW154895   7.434   9.721  11.342
51021SOL    HW254896   7.563   9.700  11.266
51022SOL     OW54897  13.953   7.812   5.753
51022SOL    HW154898  13.873   7.760   5.743
51022SOL    HW254899  13.924   7.903   5.744
51023SOL     OW54900   0.484   8.612  11.694
51023SOL    HW154901   0.545   8.551  11.652
51023SOL    HW254902   0.447   8.562  11.768
51024SOL     OW54903   5.891  12.441   7.863
51024SOL    HW154904   5.984  12.424   7.882
51024SOL    HW254905   5.890  12.528   7.824
51025SOL     OW54906   1.982  13.946   6.596
51025SOL    HW154907   1.948  13.859   6.619
51025SOL    HW254908   1.958  14.001   6.671
51026SOL     OW54909   1.202   6.315   3.857
51026SOL    HW154910   1.274   6.377   3.867
51026SOL    HW254911   1.184   6.313   3.763
51027SOL     OW54912  14.222   8.487  13.235
51027SOL    HW154913  14.135   8.466  13.202
51027SOL    HW254914  14.207   8.514  13.325
51028SOL     OW54915  11.132   0.331   0.125
51028SOL    HW154916  11.113   0.396   0.057
51028SOL    HW254917  11.200   0.276   0.087
51029SOL     OW54918   3.470  12.286   5.025
51029SOL    HW154919   3.561  12.300   5.000
51029SOL    HW254920   3.471  12.286   5.121
51030SOL     OW54921   3.829   3.569   3.765
51030SOL    HW154922   3.921   3.543   3.762
51030SOL    HW254923   3.804   3.560   3.857
51031SOL     OW54924  13.093  11.714   6.827
51031SOL    HW154925  13.079  11.806   6.801
51031SOL    HW254926  13.047  11.706   6.910
51032SOL     OW54927   5.184   8.134   7.425
51032SOL    HW154928   5.227   8.054   7.455
51032SOL    HW254929   5.212   8.145   7.334
51033SOL     OW54930   3.233   4.922  12.922
51033SOL    HW154931   3.276   4.837  12.937
51033SOL    HW254932   3.172   4.905  12.851
51034SOL     OW54933   1.616  10.373   6.158
51034SOL    HW154934   1.597  10.461   6.191
51034SOL    HW254935   1.531  10.331   6.149
51035SOL     OW54936   2.841   1.582   7.022
51035SOL    HW154937   2.791   1.554   7.099
51035SOL    HW254938   2.933   1.572   7.047
51036SOL     OW54939  14.091   8.111   0.240
51036SOL    HW154940  14.082   8.033   0.295
51036SOL    HW254941  14.011   8.112   0.187
51037SOL     OW54942   4.839  10.557   4.383
51037SOL    HW154943   4.896  10.505   4.439
51037SOL    HW254944   4.897  10.591   4.315
51038SOL     OW54945   6.252   7.840   6.922
51038SOL    HW154946   6.258   7.804   6.834
51038SOL    HW254947   6.230   7.765   6.977
51039SOL     OW54948  11.313  11.330  10.778
51039SOL    HW154949  11.378  11.263  10.757
51039SOL    HW254950  11.232  11.282  10.793
51040SOL     OW54951  14.586  13.749  14.470
51040SOL    HW154952  14.550  13.769  14.556
51040SOL    HW254953  14.560  13.823  14.415
51041SOL     OW54954   9.562   4.756   5.816
51041SOL    HW154955   9.561   4.707   5.734
51041SOL    HW254956   9.625   4.709   5.871
51042SOL     OW54957   7.191   1.776   0.407
51042SOL    HW154958   7.140   1.854   0.428
51042SOL    HW254959   7.130   1.704   0.420
51043SOL     OW54960   5.282   8.208   5.854
51043SOL    HW154961   5.374   8.233   5.848
51043SOL    HW254962   5.253   8.242   5.939
51044SOL     OW54963   4.136   6.513   8.244
51044SOL    HW154964   4.056   6.506   8.191
51044SOL    HW254965   4.194   6.569   8.192
51045SOL     OW54966   4.397  12.593   6.101
51045SOL    HW154967   4.359  12.599   6.188
51045SOL    HW254968   4.393  12.682   6.066
51046SOL     OW54969  13.190   8.259   5.773
51046SOL    HW154970  13.146   8.300   5.698
51046SOL    HW254971  13.259   8.320   5.798
51047SOL     OW54972  11.480   2.699   5.901
51047SOL    HW154973  11.468   2.793   5.891
51047SOL    HW254974  11.472   2.684   5.996
51048SOL     OW54975   5.765   9.858  13.194
51048SOL    HW154976   5.723   9.784  13.238
51048SOL    HW254977   5.711   9.874  13.117
51049SOL     OW54978   4.150   8.897   7.430
51049SOL    HW154979   4.091   8.840   7.478
51049SOL    HW254980   4.218   8.839   7.396
51050SOL     OW54981   1.743  10.801   0.698
51050SOL    HW154982   1.656  10.766   0.680
51050SOL    HW254983   1.727  10.884   0.742
51051SOL     OW54984   1.173   8.817   0.521
51051SOL    HW154985   1.258   8.790   0.486
51051SOL    HW254986   1.194   8.870   0.598
51052SOL     OW54987  10.873   8.629   5.166
51052SOL    HW154988  10.903   8.716   5.193
51052SOL    HW254989  10.944   8.570   5.192
51053SOL     OW54990   6.248  14.725   4.002
51053SOL    HW154991   6.314  14.767   4.056
51053SOL    HW254992   6.282  14.636   3.987
51054SOL     OW54993   7.887   2.362  13.828
51054SOL    HW154994   7.981   2.352  13.816
51054SOL    HW254995   7.860   2.423  13.759
51055SOL     OW54996  12.627   8.632   4.989
51055SOL    HW154997  12.652   8.639   5.081
51055SOL    HW254998  12.535   8.605   4.991
51056SOL     OW54999   5.014  10.847  11.466
51056SOL    HW155000   4.941  10.849  11.405
51056SOL    HW255001   4.974  10.824  11.550
51057SOL     OW55002  12.736  10.666  10.585
51057SOL    HW155003  12.713  10.683  10.493
51057SOL    HW255004  12.708  10.576  10.601
51058SOL     OW55005  10.389  10.903   2.111
51058SOL    HW155006  10.446  10.876   2.184
51058SOL    HW255007  10.434  10.978   2.073
51059SOL     OW55008   7.343   3.997   9.350
51059SOL    HW155009   7.335   4.091   9.361
51059SOL    HW255010   7.360   3.985   9.256
51060SOL     OW55011   7.772   4.725   7.898
51060SOL    HW155012   7.716   4.771   7.960
51060SOL    HW255013   7.719   4.720   7.818
51061SOL     OW55014  12.323   6.471   3.640
51061SOL    HW155015  12.384   6.544   3.654
51061SOL    HW255016  12.339   6.412   3.713
51062SOL     OW55017   3.676   3.177   4.299
51062SOL    HW155018   3.649   3.264   4.330
51062SOL    HW255019   3.736   3.145   4.365
51063SOL     OW55020   8.772   4.029   0.521
51063SOL    HW155021   8.811   4.005   0.606
51063SOL    HW255022   8.696   3.972   0.513
51064SOL     OW55023   8.137  13.256   9.421
51064SOL    HW155024   8.101  13.218   9.501
51064SOL    HW255025   8.100  13.344   9.417
51065SOL     OW55026   4.757  13.732  11.418
51065SOL    HW155027   4.741  13.707  11.509
51065SOL    HW255028   4.846  13.704  11.401
51066SOL     OW55029  11.089  11.288   8.491
51066SOL    HW155030  11.134  11.242   8.562
51066SOL    HW255031  11.007  11.241   8.480
51067SOL     OW55032   6.555  14.770  13.853
51067SOL    HW155033   6.595  14.744  13.771
51067SOL    HW255034   6.624  14.818  13.899
51068SOL     OW55035  13.558   4.631   7.901
51068SOL    HW155036  13.603   4.615   7.984
51068SOL    HW255037  13.541   4.544   7.865
51069SOL     OW55038  12.395   8.821  11.924
51069SOL    HW155039  12.433   8.781  12.003
51069SOL    HW255040  12.464   8.877  11.890
51070SOL     OW55041   4.425   5.866  12.738
51070SOL    HW155042   4.430   5.851  12.832
51070SOL    HW255043   4.509   5.837  12.704
51071SOL     OW55044  10.749   5.422   9.824
51071SOL    HW155045  10.665   5.379   9.808
51071SOL    HW255046  10.761   5.480   9.748
51072SOL     OW55047   1.639   9.724  11.692
51072SOL    HW155048   1.556   9.772  11.698
51072SOL    HW255049   1.614   9.637  11.661
51073SOL     OW55050   2.191  11.338  12.660
51073SOL    HW155051   2.169  11.355  12.569
51073SOL    HW255052   2.286  11.328  12.661
51074SOL     OW55053   9.482  12.001  10.866
51074SOL    HW155054   9.567  12.044  10.869
51074SOL    HW255055   9.501  11.909  10.884
51075SOL     OW55056   6.990   1.999   4.736
51075SOL    HW155057   6.959   2.088   4.721
51075SOL    HW255058   7.056   1.984   4.668
51076SOL     OW55059   3.372   6.277  13.850
51076SOL    HW155060   3.341   6.363  13.881
51076SOL    HW255061   3.430   6.297  13.777
51077SOL     OW55062   7.109   5.534   5.655
51077SOL    HW155063   7.185   5.559   5.708
51077SOL    HW255064   7.036   5.535   5.717
51078SOL     OW55065   6.206   4.765   7.063
51078SOL    HW155066   6.284   4.716   7.036
51078SOL    HW255067   6.137   4.736   7.004
51079SOL     OW55068   8.934   9.306  13.563
51079SOL    HW155069   8.925   9.342  13.476
51079SOL    HW255070   8.954   9.213  13.549
51080SOL     OW55071   5.030  14.257   5.772
51080SOL    HW155072   5.117  14.278   5.738
51080SOL    HW255073   4.977  14.240   5.694
51081SOL     OW55074  14.713   3.145  12.290
51081SOL    HW155075  14.746   3.228  12.323
51081SOL    HW255076  14.691   3.095  12.369
51082SOL     OW55077   4.924  11.536  13.033
51082SOL    HW155078   4.943  11.609  12.973
51082SOL    HW255079   4.852  11.489  12.991
51083SOL     OW55080   7.494  12.709   1.539
51083SOL    HW155081   7.508  12.713   1.444
51083SOL    HW255082   7.460  12.795   1.562
51084SOL     OW55083   3.809   5.689   9.140
51084SOL    HW155084   3.866   5.613   9.150
51084SOL    HW255085   3.752   5.687   9.217
51085SOL     OW55086  10.340  13.716  12.733
51085SOL    HW155087  10.433  13.740  12.724
51085SOL    HW255088  10.295  13.771  12.669
51086SOL     OW55089   4.980  11.984  12.872
51086SOL    HW155090   4.923  12.012  12.800
51086SOL    HW255091   5.026  12.064  12.899
51087SOL     OW55092  11.890  10.105   8.128
51087SOL    HW155093  11.968  10.158   8.112
51087SOL    HW255094  11.833  10.161   8.181
51088SOL     OW55095  13.735   1.665   4.961
51088SOL    HW155096  13.688   1.745   4.937
51088SOL    HW255097  13.820   1.696   4.992
51089SOL     OW55098   7.869  10.824   2.094
51089SOL    HW155099   7.921  10.753   2.056
51089SOL    HW255100   7.819  10.783   2.164
51090SOL     OW55101   7.063   0.264   8.188
51090SOL    HW155102   7.155   0.239   8.198
51090SOL    HW255103   7.055   0.294   8.097
51091SOL     OW55104  10.926   8.792  12.001
51091SOL    HW155105  10.862   8.743  12.052
51091SOL    HW255106  11.010   8.773  12.043
51092SOL     OW55107  13.158   6.552   4.290
51092SOL    HW155108  13.183   6.546   4.383
51092SOL    HW255109  13.105   6.631   4.284
51093SOL     OW55110  11.158   4.333   0.495
51093SOL    HW155111  11.068   4.364   0.491
51093SOL    HW255112  11.159   4.269   0.566
51094SOL     OW55113  11.682  14.570  14.337
51094SOL    HW155114  11.755  14.547  14.280
51094SOL    HW255115  11.660  14.487  14.380
51095SOL     OW55116   0.659  11.021   3.707
51095SOL    HW155117   0.571  11.041   3.740
51095SOL    HW255118   0.714  11.015   3.785
51096SOL     OW55119  10.248   1.626   6.938
51096SOL    HW155120  10.267   1.700   6.996
51096SOL    HW255121  10.248   1.550   6.996
51097SOL     OW55122   7.589   1.671  13.972
51097SOL    HW155123   7.574   1.578  13.990
51097SOL    HW255124   7.519   1.695  13.911
51098SOL     OW55125  14.143  11.050   2.290
51098SOL    HW155126  14.055  11.086   2.287
51098SOL    HW255127  14.163  11.043   2.383
51099SOL     OW55128  11.398   4.454  10.127
51099SOL    HW155129  11.428   4.545  10.137
51099SOL    HW255130  11.344   4.456  10.048
51100SOL     OW55131   0.060   1.909   6.267
51100SOL    HW155132   0.083   2.000   6.247
51100SOL    HW255133   0.135   1.858   6.236
51101SOL     OW55134  13.020   6.707   4.063
51101SOL    HW155135  12.990   6.695   4.153
51101SOL    HW255136  12.974   6.640   4.013
51102SOL     OW55137   2.629   2.757  14.779
51102SOL    HW155138   2.645   2.750   0.001
51102SOL    HW255139   2.701   2.810  14.746
51103SOL     OW55140   7.740  13.725  12.383
51103SOL    HW155141   7.704  13.813  12.372
51103SOL    HW255142   7.724  13.681  12.300
51104SOL     OW55143   2.598   1.403   3.014
51104SOL    HW155144   2.525   1.442   3.063
51104SOL    HW255145   2.666   1.470   3.016
51105SOL     OW55146  11.225   0.101   7.039
51105SOL    HW155147  11.295   0.047   7.003
51105SOL    HW255148  11.249   0.112   7.131
51106SOL     OW55149   8.970   1.165   0.863
51106SOL    HW155150   9.032   1.203   0.925
51106SOL    HW255151   8.907   1.119   0.917
51107SOL     OW55152   7.284   7.836   2.789
51107SOL    HW155153   7.285   7.815   2.882
51107SOL    HW255154   7.240   7.921   2.784
51108SOL     OW55155   7.494   1.277  11.857
51108SOL    HW155156   7.414   1.225  11.844
51108SOL    HW255157   7.547   1.225  11.917
51109SOL     OW55158   7.394   9.922  13.264
51109SOL    HW155159   7.416   9.952  13.177
51109SOL    HW255160   7.430   9.833  13.269
51110SOL     OW55161  13.832  13.903   3.606
51110SOL    HW155162  13.887  13.981   3.615
51110SOL    HW255163  13.805  13.883   3.696
51111SOL     OW55164   7.299  13.115   6.887
51111SOL    HW155165   7.235  13.051   6.920
51111SOL    HW255166   7.336  13.154   6.966
51112SOL     OW55167  14.044   2.440  11.526
51112SOL    HW155168  14.127   2.485  11.542
51112SOL    HW255169  14.010   2.481  11.447
51113SOL     OW55170   7.702  11.155  11.298
51113SOL    HW155171   7.733  11.209  11.371
51113SOL    HW255172   7.658  11.081  11.340
51114SOL     OW55173  12.573   5.280   4.957
51114SOL    HW155174  12.517   5.224   5.009
51114SOL    HW255175  12.540   5.369   4.973
51115SOL     OW55176   0.587   0.186   1.326
51115SOL    HW155177   0.578   0.278   1.305
51115SOL    HW255178   0.603   0.143   1.242
51116SOL     OW55179  13.294  10.902   0.477
51116SOL    HW155180  13.270  10.835   0.412
51116SOL    HW255181  13.221  10.964   0.475
51117SOL     OW55182   6.586   1.198  14.805
51117SOL    HW155183   6.659   1.182  14.864
51117SOL    HW255184   6.590   1.292  14.786
51118SOL     OW55185   8.825   5.262   5.887
51118SOL    HW155186   8.841   5.183   5.939
51118SOL    HW255187   8.874   5.249   5.806
51119SOL     OW55188   6.373  10.990   8.026
51119SOL    HW155189   6.438  10.923   8.045
51119SOL    HW255190   6.288  10.945   8.037
51120SOL     OW55191   4.431   3.206  12.067
51120SOL    HW155192   4.409   3.131  12.012
51120SOL    HW255193   4.487   3.260  12.012
51121SOL     OW55194   4.446   9.542   1.366
51121SOL    HW155195   4.369   9.506   1.409
51121SOL    HW255196   4.439   9.636   1.376
51122SOL     OW55197   9.681   5.076   5.696
51122SOL    HW155198   9.715   5.165   5.684
51122SOL    HW255199   9.706   5.053   5.785
51123SOL     OW55200   4.147  11.616  10.386
51123SOL    HW155201   4.114  11.663  10.309
51123SOL    HW255202   4.097  11.534  10.387
51124SOL     OW55203   1.320  13.186   6.577
51124SOL    HW155204   1.261  13.249   6.537
51124SOL    HW255205   1.289  13.177   6.667
51125SOL     OW55206   3.704   7.387   6.672
51125SOL    HW155207   3.711   7.293   6.661
51125SOL    HW255208   3.758   7.424   6.601
51126SOL     OW55209   2.039  10.782  10.286
51126SOL    HW155210   2.116  10.769  10.342
51126SOL    HW255211   2.027  10.877  10.284
51127SOL     OW55212   1.178   9.964   1.014
51127SOL    HW155213   1.206  10.021   1.086
51127SOL    HW255214   1.084   9.978   1.007
51128SOL     OW55215   7.665  13.679   0.862
51128SOL    HW155216   7.646  13.606   0.922
51128SOL    HW255217   7.752  13.709   0.888
51129SOL     OW55218   2.264   7.967  12.855
51129SOL    HW155219   2.253   8.062  12.865
51129SOL    HW255220   2.204   7.930  12.920
51130SOL     OW55221   3.042   9.300   6.144
51130SOL    HW155222   3.038   9.395   6.151
51130SOL    HW255223   3.135   9.280   6.157
51131SOL     OW55224  13.854   4.542   7.367
51131SOL    HW155225  13.779   4.558   7.310
51131SOL    HW255226  13.887   4.630   7.387
51132SOL     OW55227   2.431   6.547   9.382
51132SOL    HW155228   2.382   6.567   9.462
51132SOL    HW255229   2.372   6.573   9.311
51133SOL     OW55230   3.865   7.909   3.665
51133SOL    HW155231   3.883   7.895   3.758
51133SOL    HW255232   3.823   7.996   3.662
51134SOL     OW55233  14.033   0.481   0.113
51134SOL    HW155234  14.002   0.559   0.068
51134SOL    HW255235  13.973   0.412   0.087
51135SOL     OW55236   4.735  13.821   5.211
51135SOL    HW155237   4.662  13.784   5.262
51135SOL    HW255238   4.715  13.915   5.206
51136SOL     OW55239   2.154  10.212   5.674
51136SOL    HW155240   2.072  10.261   5.668
51136SOL    HW255241   2.136  10.141   5.735
51137SOL     OW55242  13.669  13.498   3.538
51137SOL    HW155243  13.705  13.418   3.499
51137SOL    HW255244  13.735  13.565   3.519
51138SOL     OW55245   4.997   1.559  12.763
51138SOL    HW155246   4.973   1.567  12.670
51138SOL    HW255247   4.913   1.545  12.808
51139SOL     OW55248  11.866   4.570   3.863
51139SOL    HW155249  11.938   4.518   3.899
51139SOL    HW255250  11.836   4.521   3.786
51140SOL     OW55251   9.791   1.891  10.750
51140SOL    HW155252   9.713   1.920  10.703
51140SOL    HW255253   9.835   1.830  10.690
51141SOL     OW55254  10.953   6.676   0.173
51141SOL    HW155255  10.901   6.636   0.243
51141SOL    HW255256  10.897   6.671   0.096
51142SOL     OW55257   1.904  14.069   2.877
51142SOL    HW155258   1.912  13.974   2.868
51142SOL    HW255259   1.972  14.094   2.939
51143SOL     OW55260   7.709   4.401   6.918
51143SOL    HW155261   7.614   4.405   6.920
51143SOL    HW255262   7.733   4.358   7.001
51144SOL     OW55263   9.401   5.704  10.884
51144SOL    HW155264   9.332   5.650  10.922
51144SOL    HW255265   9.480   5.677  10.931
51145SOL     OW55266   6.026   1.809   8.152
51145SOL    HW155267   5.956   1.775   8.096
51145SOL    HW255268   6.020   1.904   8.141
51146SOL     OW55269   3.993   9.932   9.933
51146SOL    HW155270   3.899   9.920   9.924
51146SOL    HW255271   4.025   9.849   9.969
51147SOL     OW55272   7.662   1.285   6.315
51147SOL    HW155273   7.583   1.236   6.295
51147SOL    HW255274   7.637   1.345   6.386
51148SOL     OW55275   1.438   8.340  12.706
51148SOL    HW155276   1.521   8.376  12.675
51148SOL    HW255277   1.463   8.275  12.771
51149SOL     OW55278  12.750   7.828   6.022
51149SOL    HW155279  12.771   7.746   6.067
51149SOL    HW255280  12.678   7.805   5.963
51150SOL     OW55281  11.616   7.131   4.770
51150SOL    HW155282  11.690   7.169   4.817
51150SOL    HW255283  11.596   7.051   4.818
51151SOL     OW55284  11.136   4.275   1.576
51151SOL    HW155285  11.216   4.328   1.584
51151SOL    HW255286  11.166   4.192   1.539
51152SOL     OW55287   4.745   3.110   8.190
51152SOL    HW155288   4.811   3.057   8.146
51152SOL    HW255289   4.736   3.188   8.136
51153SOL     OW55290  13.627  13.177   0.741
51153SOL    HW155291  13.665  13.264   0.752
51153SOL    HW255292  13.679  13.137   0.671
51154SOL     OW55293   8.944   9.358   3.660
51154SOL    HW155294   9.033   9.342   3.691
51154SOL    HW255295   8.951   9.436   3.604
51155SOL     OW55296   3.135   5.451   6.294
51155SOL    HW155297   3.119   5.546   6.300
51155SOL    HW255298   3.229   5.442   6.309
51156SOL     OW55299  10.122   5.073  11.053
51156SOL    HW155300  10.176   5.043  11.126
51156SOL    HW255301  10.177   5.136  11.006
51157SOL     OW55302   5.516   5.292   6.167
51157SOL    HW155303   5.577   5.221   6.186
51157SOL    HW255304   5.492   5.327   6.253
51158SOL     OW55305   0.904  14.084   9.400
51158SOL    HW155306   0.960  14.021   9.445
51158SOL    HW255307   0.871  14.141   9.469
51159SOL     OW55308   2.923   8.228  11.970
51159SOL    HW155309   2.972   8.196  12.046
51159SOL    HW255310   2.909   8.150  11.917
51160SOL     OW55311   1.389  14.798   9.509
51160SOL    HW155312   1.401  14.772   9.600
51160SOL    HW255313   1.407   0.020   9.509
51161SOL     OW55314  12.480  14.343   0.570
51161SOL    HW155315  12.527  14.414   0.615
51161SOL    HW255316  12.533  14.265   0.586
51162SOL     OW55317   3.440  12.836  11.646
51162SOL    HW155318   3.507  12.877  11.591
51162SOL    HW255319   3.402  12.908  11.696
51163SOL     OW55320   7.872   0.662   4.257
51163SOL    HW155321   7.777   0.661   4.272
51163SOL    HW255322   7.883   0.614   4.175
51164SOL     OW55323   0.673   4.459   6.889
51164SOL    HW155324   0.644   4.381   6.842
51164SOL    HW255325   0.593   4.510   6.903
51165SOL     OW55326   0.865   1.723  13.983
51165SOL    HW155327   0.945   1.680  14.014
51165SOL    HW255328   0.864   1.806  14.030
51166SOL     OW55329   1.049   4.469   7.712
51166SOL    HW155330   1.096   4.528   7.772
51166SOL    HW255331   0.957   4.485   7.731
51167SOL     OW55332  12.876   2.959  10.221
51167SOL    HW155333  12.911   3.029  10.167
51167SOL    HW255334  12.938   2.887  10.209
51168SOL     OW55335   5.277   9.476   3.697
51168SOL    HW155336   5.195   9.526   3.700
51168SOL    HW255337   5.257   9.400   3.643
51169SOL     OW55338   5.033   1.101  12.669
51169SOL    HW155339   4.952   1.051  12.660
51169SOL    HW255340   5.022   1.176  12.610
51170SOL     OW55341   2.475   4.593   6.408
51170SOL    HW155342   2.502   4.682   6.386
51170SOL    HW255343   2.557   4.547   6.427
51171SOL     OW55344   8.198   1.988  14.336
51171SOL    HW155345   8.254   1.918  14.301
51171SOL    HW255346   8.223   1.993  14.429
51172SOL     OW55347  12.761   5.689   4.881
51172SOL    HW155348  12.830   5.725   4.826
51172SOL    HW255349  12.680   5.719   4.842
51173SOL     OW55350   2.212   5.642   2.101
51173SOL    HW155351   2.175   5.727   2.079
51173SOL    HW255352   2.163   5.614   2.179
51174SOL     OW55353   5.657  12.768   3.978
51174SOL    HW155354   5.680  12.790   4.069
51174SOL    HW255355   5.568  12.801   3.968
51175SOL     OW55356   7.809  12.755  10.494
51175SOL    HW155357   7.726  12.707  10.491
51175SOL    HW255358   7.875  12.689  10.513
51176SOL     OW55359   1.537   9.885   6.255
51176SOL    HW155360   1.579   9.943   6.191
51176SOL    HW255361   1.607   9.859   6.314
51177SOL     OW55362   2.719   2.678   7.609
51177SOL    HW155363   2.803   2.707   7.573
51177SOL    HW255364   2.658   2.748   7.587
51178SOL     OW55365  13.430  12.658   1.933
51178SOL    HW155366  13.383  12.698   1.860
51178SOL    HW255367  13.362  12.622   1.989
51179SOL     OW55368   8.902   9.431  14.575
51179SOL    HW155369   8.945   9.375  14.639
51179SOL    HW255370   8.811   9.434  14.603
51180SOL     OW55371   3.295   1.357  12.951
51180SOL    HW155372   3.387   1.374  12.931
51180SOL    HW255373   3.270   1.285  12.892
51181SOL     OW55374   0.667   0.056   6.246
51181SOL    HW155375   0.574   0.034   6.237
51181SOL    HW255376   0.680   0.072   6.339
51182SOL     OW55377   1.898   3.848   8.185
51182SOL    HW155378   1.835   3.799   8.239
51182SOL    HW255379   1.846   3.883   8.113
51183SOL     OW55380   6.519   1.817   5.889
51183SOL    HW155381   6.537   1.907   5.863
51183SOL    HW255382   6.605   1.780   5.909
51184SOL     OW55383   3.042   7.267   9.925
51184SOL    HW155384   3.029   7.175   9.949
51184SOL    HW255385   3.002   7.274   9.838
51185SOL     OW55386  10.646   1.718   5.663
51185SOL    HW155387  10.704   1.708   5.739
51185SOL    HW255388  10.666   1.805   5.629
51186SOL     OW55389   9.712   4.942   7.726
51186SOL    HW155390   9.758   5.023   7.752
51186SOL    HW255391   9.684   4.903   7.809
51187SOL     OW55392  14.413   5.028  10.808
51187SOL    HW155393  14.481   5.020  10.741
51187SOL    HW255394  14.450   5.090  10.872
51188SOL     OW55395  13.012  13.317  14.159
51188SOL    HW155396  13.066  13.363  14.095
51188SOL    HW255397  13.074  13.272  14.216
51189SOL     OW55398  14.088   5.152  11.172
51189SOL    HW155399  14.028   5.078  11.175
51189SOL    HW255400  14.056   5.206  11.099
51190SOL     OW55401   9.792  12.018   4.039
51190SOL    HW155402   9.752  11.984   4.119
51190SOL    HW255403   9.718  12.038   3.981
51191SOL     OW55404   8.464  10.303  14.642
51191SOL    HW155405   8.551  10.276  14.616
51191SOL    HW255406   8.439  10.371  14.579
51192SOL     OW55407   7.429   8.887  12.532
51192SOL    HW155408   7.415   8.794  12.551
51192SOL    HW255409   7.451   8.890  12.439
51193SOL     OW55410   3.420   0.312   7.549
51193SOL    HW155411   3.330   0.340   7.532
51193SOL    HW255412   3.471   0.393   7.554
51194SOL     OW55413   8.457  12.690   3.056
51194SOL    HW155414   8.396  12.759   3.081
51194SOL    HW255415   8.424  12.659   2.972
51195SOL     OW55416  12.569   4.576  10.592
51195SOL    HW155417  12.529   4.553  10.676
51195SOL    HW255418  12.533   4.514  10.530
51196SOL     OW55419  13.830   2.456   8.134
51196SOL    HW155420  13.860   2.374   8.175
51196SOL    HW255421  13.897   2.475   8.068
51197SOL     OW55422  11.282   3.099   7.481
51197SOL    HW155423  11.367   3.075   7.517
51197SOL    HW255424  11.219   3.050   7.534
51198SOL     OW55425   4.857   5.336   0.536
51198SOL    HW155426   4.890   5.303   0.619
51198SOL    HW255427   4.935   5.338   0.479
51199SOL     OW55428  12.790   9.835   1.981
51199SOL    HW155429  12.714   9.838   2.038
51199SOL    HW255430  12.837   9.755   2.007
51200SOL     OW55431   3.824   8.456  13.366
51200SOL    HW155432   3.886   8.441  13.437
51200SOL    HW255433   3.742   8.478  13.409
51201SOL     OW55434   7.131   5.844   2.216
51201SOL    HW155435   7.108   5.757   2.249
51201SOL    HW255436   7.091   5.849   2.129
51202SOL     OW55437  14.144   7.549  13.135
51202SOL    HW155438  14.121   7.493  13.210
51202SOL    HW255439  14.234   7.577  13.154
51203SOL     OW55440  13.985  10.085  13.677
51203SOL    HW155441  14.033  10.042  13.748
51203SOL    HW255442  13.901  10.110  13.717
51204SOL     OW55443   4.078  13.798   7.739
51204SOL    HW155444   4.089  13.892   7.756
51204SOL    HW255445   4.163  13.759   7.759
51205SOL     OW55446   0.054   2.010   6.839
51205SOL    HW155447   0.053   2.106   6.833
51205SOL    HW255448   0.090   1.982   6.755
51206SOL     OW55449  12.880  12.165   8.004
51206SOL    HW155450  12.963  12.150   8.051
51206SOL    HW255451  12.864  12.082   7.958
51207SOL     OW55452   9.402  11.884   1.975
51207SOL    HW155453   9.413  11.945   2.047
51207SOL    HW255454   9.408  11.797   2.016
51208SOL     OW55455   3.687  11.155   3.730
51208SOL    HW155456   3.768  11.133   3.776
51208SOL    HW255457   3.677  11.250   3.744
51209SOL     OW55458   9.772  10.748  12.689
51209SOL    HW155459   9.762  10.730  12.782
51209SOL    HW255460   9.751  10.665  12.646
51210SOL     OW55461   5.641   5.924  10.506
51210SOL    HW155462   5.667   5.846  10.554
51210SOL    HW255463   5.588   5.974  10.568
51211SOL     OW55464   4.952  13.105  10.127
51211SOL    HW155465   4.878  13.052  10.097
51211SOL    HW255466   4.982  13.062  10.207
51212SOL     OW55467   5.658   2.957   0.671
51212SOL    HW155468   5.635   2.873   0.708
51212SOL    HW255469   5.574   3.001   0.657
51213SOL     OW55470   7.800   2.408  14.384
51213SOL    HW155471   7.814   2.433  14.293
51213SOL    HW255472   7.878   2.357  14.408
51214SOL     OW55473   2.212   3.942  13.038
51214SOL    HW155474   2.152   3.884  13.084
51214SOL    HW255475   2.200   4.027  13.079
51215SOL     OW55476  11.455   3.642   0.402
51215SOL    HW155477  11.500   3.685   0.474
51215SOL    HW255478  11.441   3.552   0.432
51216SOL     OW55479   0.423   7.366   7.729
51216SOL    HW155480   0.418   7.277   7.696
51216SOL    HW255481   0.333   7.399   7.725
51217SOL     OW55482  13.881  12.494   8.878
51217SOL    HW155483  13.954  12.493   8.939
51217SOL    HW255484  13.813  12.546   8.922
51218SOL     OW55485   0.764  11.672   0.196
51218SOL    HW155486   0.821  11.627   0.259
51218SOL    HW255487   0.825  11.720   0.139
51219SOL     OW55488   1.320  13.851   3.477
51219SOL    HW155489   1.291  13.765   3.446
51219SOL    HW255490   1.390  13.875   3.417
51220SOL     OW55491  14.137   5.671   8.914
51220SOL    HW155492  14.124   5.761   8.884
51220SOL    HW255493  14.088   5.666   8.996
51221SOL     OW55494  11.764   7.437   0.457
51221SOL    HW155495  11.717   7.518   0.437
51221SOL    HW255496  11.833   7.464   0.518
51222SOL     OW55497  12.528  14.023   5.656
51222SOL    HW155498  12.622  14.019   5.635
51222SOL    HW255499  12.514  13.950   5.717
51223SOL     OW55500  12.974   2.054   1.317
51223SOL    HW155501  13.033   1.989   1.355
51223SOL    HW255502  13.017   2.082   1.236
51224SOL     OW55503   2.948  10.407   5.142
51224SOL    HW155504   2.989  10.491   5.119
51224SOL    HW255505   3.012  10.341   5.114
51225SOL     OW55506   5.556  14.265   1.137
51225SOL    HW155507   5.641  14.310   1.143
51225SOL    HW255508   5.557  14.225   1.050
51226SOL     OW55509   9.556  13.476  10.035
51226SOL    HW155510   9.570  13.484  10.129
51226SOL    HW255511   9.567  13.383  10.016
51227SOL     OW55512  12.755   9.147   8.630
51227SOL    HW155513  12.693   9.194   8.685
51227SOL    HW255514  12.794   9.214   8.574
51228SOL     OW55515   0.712   1.513   7.500
51228SOL    HW155516   0.798   1.551   7.519
51228SOL    HW255517   0.731   1.440   7.440
51229SOL     OW55518   2.518  13.613   2.654
51229SOL    HW155519   2.485  13.613   2.564
51229SOL    HW255520   2.455  13.667   2.703
51230SOL     OW55521   8.788  12.489   1.782
51230SOL    HW155522   8.777  12.455   1.870
51230SOL    HW255523   8.757  12.579   1.786
51231SOL     OW55524  14.357   8.453   8.478
51231SOL    HW155525  14.362   8.362   8.508
51231SOL    HW255526  14.263   8.473   8.479
51232SOL     OW55527   9.453  10.168   2.100
51232SOL    HW155528   9.504  10.249   2.104
51232SOL    HW255529   9.406  10.166   2.183
51233SOL     OW55530   0.233   6.594   5.826
51233SOL    HW155531   0.163   6.654   5.799
51233SOL    HW255532   0.232   6.525   5.759
51234SOL     OW55533  13.922   4.654   2.642
51234SOL    HW155534  13.856   4.682   2.579
51234SOL    HW255535  13.896   4.565   2.667
51235SOL     OW55536   9.472   7.652   4.014
51235SOL    HW155537   9.385   7.679   3.986
51235SOL    HW255538   9.491   7.575   3.960
51236SOL     OW55539   6.070   6.539  14.525
51236SOL    HW155540   6.025   6.503  14.448
51236SOL    HW255541   6.162   6.545  14.499
51237SOL     OW55542  12.374   3.616  10.153
51237SOL    HW155543  12.351   3.629  10.061
51237SOL    HW255544  12.290   3.617  10.199
51238SOL     OW55545  13.682   6.116   0.282
51238SOL    HW155546  13.600   6.166   0.277
51238SOL    HW255547  13.654   6.024   0.277
51239SOL     OW55548  10.651  12.511   7.846
51239SOL    HW155549  10.607  12.591   7.874
51239SOL    HW255550  10.674  12.467   7.928
51240SOL     OW55551  11.066   9.848  11.229
51240SOL    HW155552  11.078   9.806  11.144
51240SOL    HW255553  11.118   9.796  11.290
51241SOL     OW55554   9.232  13.675   5.708
51241SOL    HW155555   9.213  13.583   5.727
51241SOL    HW255556   9.295  13.701   5.774
51242SOL     OW55557  10.811   7.961   8.614
51242SOL    HW155558  10.886   7.934   8.667
51242SOL    HW255559  10.817   7.907   8.535
51243SOL     OW55560  11.303   5.802  11.718
51243SOL    HW155561  11.322   5.887  11.677
51243SOL    HW255562  11.212   5.784  11.695
51244SOL     OW55563   5.688   3.406   9.759
51244SOL    HW155564   5.669   3.333   9.700
51244SOL    HW255565   5.604   3.451   9.770
51245SOL     OW55566  12.575   1.562   8.786
51245SOL    HW155567  12.605   1.482   8.830
51245SOL    HW255568  12.642   1.627   8.805
51246SOL     OW55569  14.413  11.332   0.186
51246SOL    HW155570  14.354  11.272   0.140
51246SOL    HW255571  14.393  11.320   0.278
51247SOL     OW55572   6.569   3.364   7.228
51247SOL    HW155573   6.648   3.398   7.187
51247SOL    HW255574   6.598   3.288   7.278
51248SOL     OW55575  11.142  10.629   5.422
51248SOL    HW155576  11.072  10.576   5.460
51248SOL    HW255577  11.223  10.588   5.454
51249SOL     OW55578   0.254   3.717  13.350
51249SOL    HW155579   0.329   3.751  13.400
51249SOL    HW255580   0.234   3.633  13.391
51250SOL     OW55581   2.443  14.082   6.896
51250SOL    HW155582   2.441  14.002   6.948
51250SOL    HW255583   2.529  14.121   6.915
51251SOL     OW55584   9.066   1.316  12.074
51251SOL    HW155585   9.086   1.340  11.984
51251SOL    HW255586   9.070   1.221  12.076
51252SOL     OW55587  11.309   8.505  10.623
51252SOL    HW155588  11.319   8.578  10.561
51252SOL    HW255589  11.291   8.429  10.568
51253SOL     OW55590  13.739  12.705   2.738
51253SOL    HW155591  13.646  12.684   2.735
51253SOL    HW255592  13.752  12.769   2.668
51254SOL     OW55593   6.094  11.043   6.709
51254SOL    HW155594   6.081  11.010   6.620
51254SOL    HW255595   6.128  10.968   6.757
51255SOL     OW55596   4.365  14.281   6.668
51255SOL    HW155597   4.444  14.299   6.617
51255SOL    HW255598   4.382  14.196   6.710
51256SOL     OW55599   0.248   0.360   0.605
51256SOL    HW155600   0.171   0.413   0.583
51256SOL    HW255601   0.212   0.273   0.625
51257SOL     OW55602  10.792  12.801   2.807
51257SOL    HW155603  10.874  12.755   2.823
51257SOL    HW255604  10.786  12.809   2.712
51258SOL     OW55605   0.791   1.498   8.146
51258SOL    HW155606   0.782   1.519   8.053
51258SOL    HW255607   0.705   1.515   8.183
51259SOL     OW55608  13.180  10.940   1.727
51259SOL    HW155609  13.130  10.864   1.699
51259SOL    HW255610  13.134  11.016   1.691
51260SOL     OW55611   1.012  13.068   6.312
51260SOL    HW155612   1.006  13.164   6.306
51260SOL    HW255613   1.105  13.051   6.325
51261SOL     OW55614  13.988   4.189   2.597
51261SOL    HW155615  13.957   4.116   2.650
51261SOL    HW255616  14.028   4.249   2.660
51262SOL     OW55617  14.172   2.348   7.462
51262SOL    HW155618  14.251   2.302   7.433
51262SOL    HW255619  14.102   2.284   7.454
51263SOL     OW55620   3.916   4.280  12.186
51263SOL    HW155621   3.935   4.208  12.125
51263SOL    HW255622   3.915   4.238  12.272
51264SOL     OW55623   1.043   7.407   4.329
51264SOL    HW155624   1.009   7.349   4.261
51264SOL    HW255625   1.086   7.477   4.281
51265SOL     OW55626  10.451  12.835   3.430
51265SOL    HW155627  10.473  12.805   3.342
51265SOL    HW255628  10.359  12.810   3.441
51266SOL     OW55629   2.064  10.450  13.867
51266SOL    HW155630   2.090  10.506  13.940
51266SOL    HW255631   2.145  10.428  13.822
51267SOL     OW55632   0.304  13.492   6.973
51267SOL    HW155633   0.307  13.583   7.005
51267SOL    HW255634   0.229  13.491   6.914
51268SOL     OW55635   3.457  12.979  11.864
51268SOL    HW155636   3.415  13.064  11.862
51268SOL    HW255637   3.544  12.996  11.902
51269SOL     OW55638   4.489   4.370  13.662
51269SOL    HW155639   4.464   4.293  13.612
51269SOL    HW255640   4.558   4.340  13.721
51270SOL     OW55641  14.603  13.576  12.996
51270SOL    HW155642  14.601  13.670  13.012
51270SOL    HW255643  14.667  13.566  12.925
51271SOL     OW55644   2.185   4.634  11.361
51271SOL    HW155645   2.212   4.583  11.438
51271SOL    HW255646   2.212   4.724  11.381
51272SOL     OW55647  10.944   0.843   5.065
51272SOL    HW155648  10.920   0.798   5.146
51272SOL    HW255649  10.865   0.892   5.041
51273SOL     OW55650   4.936   0.414  13.031
51273SOL    HW155651   4.994   0.404  13.107
51273SOL    HW255652   4.962   0.497  12.992
51274SOL     OW55653  10.427  12.925  10.473
51274SOL    HW155654  10.358  12.980  10.436
51274SOL    HW255655  10.506  12.979  10.466
51275SOL     OW55656   3.188   0.918   2.657
51275SOL    HW155657   3.120   0.986   2.662
51275SOL    HW255658   3.260   0.952   2.710
51276SOL     OW55659   8.706  13.590   5.391
51276SOL    HW155660   8.734  13.505   5.426
51276SOL    HW255661   8.641  13.568   5.324
51277SOL     OW55662   1.534   0.360   5.807
51277SOL    HW155663   1.488   0.429   5.760
51277SOL    HW255664   1.619   0.353   5.762
51278SOL     OW55665   2.706  13.865   2.846
51278SOL    HW155666   2.724  13.944   2.795
51278SOL    HW255667   2.774  13.865   2.914
51279SOL     OW55668   0.554   0.223   7.178
51279SOL    HW155669   0.536   0.249   7.087
51279SOL    HW255670   0.618   0.152   7.171
51280SOL     OW55671  12.209  14.127   8.242
51280SOL    HW155672  12.194  14.078   8.323
51280SOL    HW255673  12.260  14.203   8.270
51281SOL     OW55674  10.961   9.822  14.460
51281SOL    HW155675  10.944   9.730  14.479
51281SOL    HW255676  11.010   9.821  14.378
51282SOL     OW55677   3.179   4.303   0.716
51282SOL    HW155678   3.101   4.252   0.738
51282SOL    HW255679   3.168   4.386   0.762
51283SOL     OW55680   2.291   9.858   1.790
51283SOL    HW155681   2.328   9.774   1.817
51283SOL    HW255682   2.342   9.882   1.712
51284SOL     OW55683   2.964   3.090   0.822
51284SOL    HW155684   2.997   3.179   0.834
51284SOL    HW255685   2.882   3.101   0.774
51285SOL     OW55686   1.713  11.353   3.808
51285SOL    HW155687   1.772  11.354   3.733
51285SOL    HW255688   1.687  11.261   3.818
51286SOL     OW55689  10.309   6.333   5.860
51286SOL    HW155690  10.299   6.402   5.926
51286SOL    HW255691  10.336   6.256   5.910
51287SOL     OW55692   6.269  14.460  11.380
51287SOL    HW155693   6.202  14.422  11.437
51287SOL    HW255694   6.253  14.554  11.383
51288SOL     OW55695   7.757   9.074  13.450
51288SOL    HW155696   7.795   8.994  13.486
51288SOL    HW255697   7.664   9.055  13.442
51289SOL     OW55698  11.311   1.431   4.171
51289SOL    HW155699  11.405   1.450   4.162
51289SOL    HW255700  11.285   1.399   4.085
51290SOL     OW55701   5.953   0.971   1.456
51290SOL    HW155702   5.960   1.047   1.398
51290SOL    HW255703   5.925   0.899   1.400
51291SOL     OW55704   8.302   2.737   4.313
51291SOL    HW155705   8.340   2.652   4.336
51291SOL    HW255706   8.289   2.733   4.218
51292SOL     OW55707   2.481   3.635   3.581
51292SOL    HW155708   2.450   3.717   3.543
51292SOL    HW255709   2.462   3.644   3.675
51293SOL     OW55710   9.958   3.263   2.814
51293SOL    HW155711  10.004   3.197   2.866
51293SOL    HW255712  10.025   3.299   2.756
51294SOL     OW55713   2.348  10.670  13.054
51294SOL    HW155714   2.404  10.601  13.088
51294SOL    HW255715   2.352  10.659  12.959
51295SOL     OW55716   5.137   1.923   6.364
51295SOL    HW155717   5.102   1.910   6.276
51295SOL    HW255718   5.101   2.008   6.392
51296SOL     OW55719   7.351   0.878   0.596
51296SOL    HW155720   7.447   0.871   0.595
51296SOL    HW255721   7.325   0.831   0.675
51297SOL     OW55722  13.821  13.126   0.056
51297SOL    HW155723  13.734  13.167   0.054
51297SOL    HW255724  13.853  13.143   0.145
51298SOL     OW55725  14.751  11.496  12.110
51298SOL    HW155726  14.757  11.485  12.205
51298SOL    HW255727  14.801  11.422  12.074
51299SOL     OW55728  13.837   7.744   2.323
51299SOL    HW155729  13.830   7.753   2.418
51299SOL    HW255730  13.932   7.742   2.306
51300SOL     OW55731   2.888   5.706   2.893
51300SOL    HW155732   2.891   5.728   2.986
51300SOL    HW255733   2.883   5.790   2.848
51301SOL     OW55734  12.286   7.922   1.653
51301SOL    HW155735  12.371   7.885   1.627
51301SOL    HW255736  12.226   7.848   1.651
51302SOL     OW55737   8.901   2.818  10.641
51302SOL    HW155738   8.913   2.725  10.622
51302SOL    HW255739   8.924   2.863  10.559
51303SOL     OW55740  11.905   4.325  10.989
51303SOL    HW155741  11.833   4.365  10.939
51303SOL    HW255742  11.943   4.398  11.038
51304SOL     OW55743  13.066   5.840   6.859
51304SOL    HW155744  13.134   5.907   6.855
51304SOL    HW255745  13.004   5.865   6.791
51305SOL     OW55746   3.481  13.234  12.915
51305SOL    HW155747   3.436  13.149  12.913
51305SOL    HW255748   3.448  13.280  12.838
51306SOL     OW55749   8.999   7.742   1.681
51306SOL    HW155750   9.088   7.778   1.675
51306SOL    HW255751   9.000   7.688   1.759
51307SOL     OW55752  10.776  14.216   0.538
51307SOL    HW155753  10.786  14.262   0.621
51307SOL    HW255754  10.683  14.196   0.532
51308SOL     OW55755  14.121   9.769   4.515
51308SOL    HW155756  14.138   9.788   4.423
51308SOL    HW255757  14.104   9.854   4.555
51309SOL     OW55758   1.318  12.799   5.984
51309SOL    HW155759   1.261  12.723   6.000
51309SOL    HW255760   1.261  12.864   5.944
51310SOL     OW55761  10.944  12.458   6.159
51310SOL    HW155762  10.909  12.461   6.070
51310SOL    HW255763  10.898  12.527   6.206
51311SOL     OW55764   0.817   9.114   6.182
51311SOL    HW155765   0.848   9.094   6.094
51311SOL    HW255766   0.734   9.159   6.168
51312SOL     OW55767   1.537   2.134   8.773
51312SOL    HW155768   1.569   2.223   8.760
51312SOL    HW255769   1.505   2.133   8.863
51313SOL     OW55770   4.111   9.237   2.200
51313SOL    HW155771   4.116   9.221   2.106
51313SOL    HW255772   4.124   9.331   2.210
51314SOL     OW55773  13.346   3.090  13.179
51314SOL    HW155774  13.418   3.151  13.195
51314SOL    HW255775  13.347   3.077  13.084
51315SOL     OW55776  14.173   5.525   0.766
51315SOL    HW155777  14.213   5.558   0.686
51315SOL    HW255778  14.086   5.565   0.768
51316SOL     OW55779   9.856   7.450  12.759
51316SOL    HW155780   9.929   7.512  12.757
51316SOL    HW255781   9.788   7.492  12.706
51317SOL     OW55782   4.228   4.696  14.785
51317SOL    HW155783   4.171   4.759  14.829
51317SOL    HW255784   4.188   4.681  14.700
51318SOL     OW55785   8.493  11.393  10.512
51318SOL    HW155786   8.449  11.377  10.595
51318SOL    HW255787   8.427  11.436  10.458
51319SOL     OW55788  12.094   1.986   6.982
51319SOL    HW155789  12.084   1.918   6.916
51319SOL    HW255790  12.017   2.041   6.972
51320SOL     OW55791   8.231   9.096   2.335
51320SOL    HW155792   8.316   9.067   2.369
51320SOL    HW255793   8.189   9.141   2.408
51321SOL     OW55794   6.292   7.785   6.343
51321SOL    HW155795   6.199   7.804   6.331
51321SOL    HW255796   6.328   7.783   6.254
51322SOL     OW55797   1.534   8.951  10.081
51322SOL    HW155798   1.602   8.925  10.143
51322SOL    HW255799   1.565   8.917   9.997
51323SOL     OW55800  14.136  12.993  11.484
51323SOL    HW155801  14.218  13.041  11.471
51323SOL    HW255802  14.067  13.058  11.470
51324SOL     OW55803   0.407  12.358   4.201
51324SOL    HW155804   0.364  12.391   4.122
51324SOL    HW255805   0.420  12.265   4.184
51325SOL     OW55806   3.849   5.981   3.463
51325SOL    HW155807   3.850   6.072   3.493
51325SOL    HW255808   3.783   5.979   3.394
51326SOL     OW55809   5.242  12.776   7.480
51326SOL    HW155810   5.168  12.803   7.427
51326SOL    HW255811   5.203  12.746   7.563
51327SOL     OW55812   7.270  13.594   1.922
51327SOL    HW155813   7.225  13.518   1.959
51327SOL    HW255814   7.362  13.583   1.948
51328SOL     OW55815   3.075   1.331   0.905
51328SOL    HW155816   3.011   1.289   0.963
51328SOL    HW255817   3.160   1.302   0.938
51329SOL     OW55818   8.359   3.388   9.038
51329SOL    HW155819   8.450   3.360   9.039
51329SOL    HW255820   8.353   3.453   9.108
51330SOL     OW55821   6.688  11.547   8.720
51330SOL    HW155822   6.698  11.467   8.669
51330SOL    HW255823   6.615  11.529   8.779
51331SOL     OW55824   4.407   6.159   2.049
51331SOL    HW155825   4.488   6.209   2.059
51331SOL    HW255826   4.338   6.225   2.051
51332SOL     OW55827   7.606   1.689   7.384
51332SOL    HW155828   7.526   1.657   7.343
51332SOL    HW255829   7.627   1.623   7.450
51333SOL     OW55830  14.121  14.867   0.797
51333SOL    HW155831  14.208   0.022   0.769
51333SOL    HW255832  14.107   0.040   0.880
51334SOL     OW55833   1.236   3.680   9.695
51334SOL    HW155834   1.274   3.639   9.618
51334SOL    HW255835   1.283   3.764   9.704
51335SOL     OW55836   0.498   7.598   1.003
51335SOL    HW155837   0.578   7.633   1.042
51335SOL    HW255838   0.523   7.576   0.913
51336SOL     OW55839   5.071   6.192   1.966
51336SOL    HW155840   4.981   6.197   1.935
51336SOL    HW255841   5.105   6.111   1.930
51337SOL     OW55842   1.725   1.163   7.323
51337SOL    HW155843   1.734   1.150   7.228
51337SOL    HW255844   1.658   1.231   7.331
51338SOL     OW55845  13.608   2.525  14.803
51338SOL    HW155846  13.574   2.480   0.007
51338SOL    HW255847  13.532   2.571  14.767
51339SOL     OW55848   0.744   7.182  11.438
51339SOL    HW155849   0.786   7.200  11.354
51339SOL    HW255850   0.682   7.111  11.420
51340SOL     OW55851  13.297   1.439   3.233
51340SOL    HW155852  13.293   1.354   3.275
51340SOL    HW255853  13.241   1.495   3.286
51341SOL     OW55854  14.361  12.950   0.810
51341SOL    HW155855  14.407  12.930   0.892
51341SOL    HW255856  14.340  12.864   0.773
51342SOL     OW55857   0.152  13.734  14.549
51342SOL    HW155858   0.227  13.732  14.490
51342SOL    HW255859   0.087  13.676  14.508
51343SOL     OW55860  11.148   4.292   3.785
51343SOL    HW155861  11.234   4.252   3.771
51343SOL    HW255862  11.164   4.361   3.849
51344SOL     OW55863  12.249   5.195  13.138
51344SOL    HW155864  12.240   5.107  13.100
51344SOL    HW255865  12.170   5.206  13.190
51345SOL     OW55866  10.444   8.300  12.841
51345SOL    HW155867  10.424   8.252  12.760
51345SOL    HW255868  10.477   8.233  12.901
51346SOL     OW55869   6.865   4.834   8.974
51346SOL    HW155870   6.912   4.824   8.891
51346SOL    HW255871   6.861   4.928   8.989
51347SOL     OW55872  12.288   7.143   6.557
51347SOL    HW155873  12.335   7.195   6.492
51347SOL    HW255874  12.354   7.123   6.624
51348SOL     OW55875   9.701   5.071  11.797
51348SOL    HW155876   9.711   4.996  11.855
51348SOL    HW255877   9.788   5.112  11.796
51349SOL     OW55878   8.808   1.377   1.818
51349SOL    HW155879   8.759   1.295   1.827
51349SOL    HW255880   8.900   1.351   1.824
51350SOL     OW55881   6.042   5.422   3.357
51350SOL    HW155882   6.021   5.515   3.369
51350SOL    HW255883   6.095   5.420   3.277
51351SOL     OW55884  11.577   9.972   2.242
51351SOL    HW155885  11.530   9.925   2.173
51351SOL    HW255886  11.576  10.063   2.214
51352SOL     OW55887   2.789   1.192   8.818
51352SOL    HW155888   2.860   1.197   8.881
51352SOL    HW255889   2.781   1.099   8.797
51353SOL     OW55890   8.349   5.094   5.319
51353SOL    HW155891   8.324   5.001   5.321
51353SOL    HW255892   8.274   5.140   5.357
51354SOL     OW55893  13.376   6.216   6.967
51354SOL    HW155894  13.470   6.226   6.953
51354SOL    HW255895  13.350   6.296   7.014
51355SOL     OW55896   2.899   1.253   9.781
51355SOL    HW155897   2.976   1.212   9.742
51355SOL    HW255898   2.882   1.329   9.725
51356SOL     OW55899   8.149  10.699   4.416
51356SOL    HW155900   8.149  10.664   4.327
51356SOL    HW255901   8.218  10.766   4.416
51357SOL     OW55902   2.186   6.592  13.797
51357SOL    HW155903   2.211   6.567  13.708
51357SOL    HW255904   2.262   6.638  13.831
51358SOL     OW55905   0.953   8.268   3.523
51358SOL    HW155906   1.023   8.215   3.485
51358SOL    HW255907   0.959   8.250   3.617
51359SOL     OW55908   3.665   0.452   7.150
51359SOL    HW155909   3.580   0.417   7.178
51359SOL    HW255910   3.699   0.386   7.090
51360SOL     OW55911  10.584   7.972  10.910
51360SOL    HW155912  10.588   8.067  10.918
51360SOL    HW255913  10.508   7.946  10.961
51361SOL     OW55914   7.262  14.202   5.426
51361SOL    HW155915   7.192  14.232   5.485
51361SOL    HW255916   7.225  14.127   5.380
51362SOL     OW55917  12.404   7.348   0.885
51362SOL    HW155918  12.433   7.352   0.794
51362SOL    HW255919  12.356   7.430   0.899
51363SOL     OW55920  13.612  10.479   9.253
51363SOL    HW155921  13.534  10.472   9.308
51363SOL    HW255922  13.580  10.519   9.172
51364SOL     OW55923   6.532   2.062   6.313
51364SOL    HW155924   6.491   2.018   6.239
51364SOL    HW255925   6.525   2.155   6.292
51365SOL     OW55926   3.867  12.620   2.144
51365SOL    HW155927   3.857  12.594   2.236
51365SOL    HW255928   3.779  12.609   2.107
51366SOL     OW55929   0.903   7.416  14.652
51366SOL    HW155930   0.818   7.449  14.681
51366SOL    HW255931   0.926   7.471  14.577
51367SOL     OW55932  12.501  11.774   8.300
51367SOL    HW155933  12.414  11.740   8.276
51367SOL    HW255934  12.562  11.712   8.261
51368SOL     OW55935  12.076   7.450  14.870
51368SOL    HW155936  12.071   7.466  14.776
51368SOL    HW255937  12.068   7.536   0.038
51369SOL     OW55938  11.292   0.089   5.001
51369SOL    HW155939  11.348   0.017   4.972
51369SOL    HW255940  11.321   0.107   5.091
51370SOL     OW55941   5.349   4.243   7.470
51370SOL    HW155942   5.295   4.254   7.548
51370SOL    HW255943   5.436   4.273   7.495
51371SOL     OW55944  14.105   6.851  12.300
51371SOL    HW155945  14.094   6.789  12.372
51371SOL    HW255946  14.160   6.920  12.336
51372SOL     OW55947   1.482   8.206   1.427
51372SOL    HW155948   1.410   8.159   1.468
51372SOL    HW255949   1.439   8.260   1.360
51373SOL     OW55950   3.509   6.243   5.197
51373SOL    HW155951   3.491   6.307   5.129
51373SOL    HW255952   3.604   6.247   5.209
51374SOL     OW55953   8.601   6.936  14.756
51374SOL    HW155954   8.546   6.961  14.830
51374SOL    HW255955   8.555   6.969  14.679
51375SOL     OW55956   9.115   6.463   6.424
51375SOL    HW155957   9.102   6.515   6.503
51375SOL    HW255958   9.031   6.419   6.410
51376SOL     OW55959   7.446  12.501   4.411
51376SOL    HW155960   7.486  12.443   4.345
51376SOL    HW255961   7.352  12.483   4.404
51377SOL     OW55962  11.826   2.875   1.477
51377SOL    HW155963  11.747   2.831   1.443
51377SOL    HW255964  11.848   2.939   1.410
51378SOL     OW55965  10.794  12.334   3.802
51378SOL    HW155966  10.704  12.329   3.834
51378SOL    HW255967  10.837  12.257   3.841
51379SOL     OW55968   1.709  11.177  14.747
51379SOL    HW155969   1.758  11.232  14.809
51379SOL    HW255970   1.705  11.092  14.790
51380SOL     OW55971   4.702  13.607   3.968
51380SOL    HW155972   4.676  13.684   3.918
51380SOL    HW255973   4.792  13.625   3.996
51381SOL     OW55974   3.172   9.720  12.548
51381SOL    HW155975   3.218   9.778  12.488
51381SOL    HW255976   3.125   9.779  12.607
51382SOL     OW55977   6.664   4.202   3.721
51382SOL    HW155978   6.672   4.266   3.791
51382SOL    HW255979   6.612   4.246   3.654
51383SOL     OW55980  10.508   9.941   4.877
51383SOL    HW155981  10.566   9.963   4.804
51383SOL    HW255982  10.443  10.011   4.878
51384SOL     OW55983  11.232   4.802   4.736
51384SOL    HW155984  11.290   4.728   4.720
51384SOL    HW255985  11.284   4.862   4.789
51385SOL     OW55986   9.995  14.750  13.874
51385SOL    HW155987   9.905  14.742  13.907
51385SOL    HW255988  10.001  14.686  13.804
51386SOL     OW55989   6.613   1.334  13.024
51386SOL    HW155990   6.583   1.326  13.115
51386SOL    HW255991   6.706   1.354  13.032
51387SOL     OW55992   8.990   9.324   7.095
51387SOL    HW155993   8.989   9.228   7.097
51387SOL    HW255994   9.068   9.346   7.044
51388SOL     OW55995   1.485   3.640   3.096
51388SOL    HW155996   1.460   3.554   3.128
51388SOL    HW255997   1.502   3.691   3.176
51389SOL     OW55998   1.361   0.069  10.482
51389SOL    HW155999   1.416   0.026  10.549
51389SOL    HW256000   1.410   0.147  10.458
51390SOL     OW56001   3.565   0.396   0.341
51390SOL    HW156002   3.630   0.364   0.404
51390SOL    HW256003   3.548   0.486   0.368
51391SOL     OW56004   3.096   5.952   6.181
51391SOL    HW156005   3.053   6.021   6.230
51391SOL    HW256006   3.179   5.938   6.226
51392SOL     OW56007   1.818  12.213   8.672
51392SOL    HW156008   1.767  12.171   8.603
51392SOL    HW256009   1.811  12.307   8.654
51393SOL     OW56010   6.907  12.091  10.786
51393SOL    HW156011   6.952  12.122  10.864
51393SOL    HW256012   6.815  12.115  10.801
51394SOL     OW56013   9.347   9.203   8.344
51394SOL    HW156014   9.439   9.186   8.364
51394SOL    HW256015   9.326   9.142   8.273
51395SOL     OW56016   9.957  10.611   6.515
51395SOL    HW156017   9.914  10.530   6.542
51395SOL    HW256018  10.042  10.582   6.480
51396SOL     OW56019   4.132   3.783  11.930
51396SOL    HW156020   4.118   3.876  11.947
51396SOL    HW256021   4.051   3.740  11.957
51397SOL     OW56022   9.620  11.968   5.977
51397SOL    HW156023   9.690  11.964   6.042
51397SOL    HW256024   9.565  12.041   6.005
51398SOL     OW56025   1.019   4.614   8.861
51398SOL    HW156026   0.925   4.610   8.843
51398SOL    HW256027   1.031   4.698   8.907
51399SOL     OW56028  14.030   5.547   2.480
51399SOL    HW156029  14.068   5.468   2.442
51399SOL    HW256030  14.022   5.608   2.406
51400SOL     OW56031   3.578  14.360  14.137
51400SOL    HW156032   3.504  14.356  14.198
51400SOL    HW256033   3.641  14.419  14.179
51401SOL     OW56034   9.389   7.527   7.191
51401SOL    HW156035   9.476   7.550   7.158
51401SOL    HW256036   9.396   7.536   7.286
51402SOL     OW56037   8.023   1.651   0.006
51402SOL    HW156038   8.006   1.614  14.791
51402SOL    HW256039   8.096   1.599   0.040
51403SOL     OW56040   8.260   5.113   1.830
51403SOL    HW156041   8.198   5.051   1.870
51403SOL    HW256042   8.346   5.077   1.850
51404SOL     OW56043   8.644   7.812   0.948
51404SOL    HW156044   8.574   7.876   0.955
51404SOL    HW256045   8.711   7.855   0.893
51405SOL     OW56046  11.111   1.479   0.199
51405SOL    HW156047  11.175   1.537   0.241
51405SOL    HW256048  11.039   1.474   0.262
51406SOL     OW56049   8.539   6.912  14.009
51406SOL    HW156050   8.628   6.899  14.040
51406SOL    HW256051   8.530   7.006  14.000
51407SOL     OW56052   9.469   0.825   1.655
51407SOL    HW156053   9.548   0.815   1.602
51407SOL    HW256054   9.423   0.741   1.647
51408SOL     OW56055   0.637  12.848   2.445
51408SOL    HW156056   0.681  12.796   2.377
51408SOL    HW256057   0.619  12.932   2.403
51409SOL     OW56058  10.757   7.722   0.852
51409SOL    HW156059  10.759   7.817   0.850
51409SOL    HW256060  10.843   7.696   0.886
51410SOL     OW56061   7.138  12.663  12.612
51410SOL    HW156062   7.194  12.601  12.659
51410SOL    HW256063   7.199  12.712  12.556
51411SOL     OW56064   5.395   9.580  10.338
51411SOL    HW156065   5.404   9.673  10.319
51411SOL    HW256066   5.310   9.572  10.381
51412SOL     OW56067  12.605   1.075  14.586
51412SOL    HW156068  12.659   1.129  14.644
51412SOL    HW256069  12.595   0.992  14.632
51413SOL     OW56070   5.723  10.459   9.296
51413SOL    HW156071   5.650  10.449   9.356
51413SOL    HW256072   5.723  10.551   9.272
51414SOL     OW56073   2.921  14.243  12.177
51414SOL    HW156074   2.831  14.229  12.147
51414SOL    HW256075   2.912  14.302  12.252
51415SOL     OW56076   0.905   7.869   9.258
51415SOL    HW156077   0.996   7.878   9.286
51415SOL    HW256078   0.886   7.951   9.212
51416SOL     OW56079  12.615  10.781   7.987
51416SOL    HW156080  12.701  10.823   7.987
51416SOL    HW256081  12.569  10.820   8.061
51417SOL     OW56082  13.948   7.364   9.752
51417SOL    HW156083  13.952   7.268   9.747
51417SOL    HW256084  13.896   7.389   9.676
51418SOL     OW56085   0.669   0.570   8.099
51418SOL    HW156086   0.706   0.587   8.013
51418SOL    HW256087   0.740   0.530   8.148
51419SOL     OW56088  10.751   4.295   4.095
51419SOL    HW156089  10.715   4.218   4.051
51419SOL    HW256090  10.678   4.356   4.101
51420SOL     OW56091   6.602   3.325   8.791
51420SOL    HW156092   6.588   3.398   8.851
51420SOL    HW256093   6.570   3.356   8.707
51421SOL     OW56094  12.439   7.423   5.256
51421SOL    HW156095  12.495   7.346   5.247
51421SOL    HW256096  12.476   7.487   5.195
51422SOL     OW56097   7.520  12.549   2.610
51422SOL    HW156098   7.494  12.457   2.620
51422SOL    HW256099   7.616  12.546   2.604
51423SOL     OW56100  13.905   0.951   6.159
51423SOL    HW156101  13.831   0.934   6.101
51423SOL    HW256102  13.927   1.043   6.144
51424SOL     OW56103   8.358  14.076   2.954
51424SOL    HW156104   8.396  14.084   2.866
51424SOL    HW256105   8.354  14.166   2.985
51425SOL     OW56106   1.319   9.034   7.304
51425SOL    HW156107   1.295   9.043   7.211
51425SOL    HW256108   1.398   9.088   7.313
51426SOL     OW56109   7.740   5.482   6.529
51426SOL    HW156110   7.749   5.400   6.479
51426SOL    HW256111   7.646   5.488   6.547
51427SOL     OW56112   8.734   1.698   1.626
51427SOL    HW156113   8.808   1.758   1.621
51427SOL    HW256114   8.737   1.662   1.714
51428SOL     OW56115  13.961  12.926   8.532
51428SOL    HW156116  14.033  12.864   8.518
51428SOL    HW256117  13.892  12.896   8.472
51429SOL     OW56118  14.089   4.069   8.116
51429SOL    HW156119  13.994   4.068   8.117
51429SOL    HW256120  14.114   3.978   8.134
51430SOL     OW56121   1.967   6.314   4.692
51430SOL    HW156122   1.914   6.234   4.695
51430SOL    HW256123   1.986   6.327   4.599
51431SOL     OW56124   6.305   9.048  14.383
51431SOL    HW156125   6.381   9.105  14.390
51431SOL    HW256126   6.286   9.021  14.473
51432SOL     OW56127   8.223  11.319   9.942
51432SOL    HW156128   8.189  11.332   9.854
51432SOL    HW256129   8.151  11.278   9.990
51433SOL     OW56130   2.073  12.497   5.176
51433SOL    HW156131   2.022  12.505   5.095
51433SOL    HW256132   2.017  12.446   5.234
51434SOL     OW56133   0.706   4.127   6.158
51434SOL    HW156134   0.798   4.128   6.184
51434SOL    HW256135   0.662   4.180   6.225
51435SOL     OW56136   4.812   2.771  12.294
51435SOL    HW156137   4.789   2.703  12.357
51435SOL    HW256138   4.820   2.851  12.347
51436SOL     OW56139   2.670   2.299   4.816
51436SOL    HW156140   2.588   2.249   4.812
51436SOL    HW256141   2.643   2.385   4.849
51437SOL     OW56142   9.623   4.553   1.048
51437SOL    HW156143   9.682   4.593   0.984
51437SOL    HW256144   9.549   4.522   0.997
51438SOL     OW56145   3.216  12.920   0.462
51438SOL    HW156146   3.217  13.010   0.429
51438SOL    HW256147   3.298  12.882   0.433
51439SOL     OW56148  11.350   8.368  14.671
51439SOL    HW156149  11.399   8.449  14.682
51439SOL    HW256150  11.264   8.386  14.708
51440SOL     OW56151   5.543   8.775   7.507
51440SOL    HW156152   5.467   8.833   7.518
51440SOL    HW256153   5.512   8.689   7.537
51441SOL     OW56154   5.519   3.378  14.714
51441SOL    HW156155   5.576   3.306  14.742
51441SOL    HW256156   5.569   3.457  14.731
51442SOL     OW56157  10.314  11.668   4.621
51442SOL    HW156158  10.347  11.631   4.702
51442SOL    HW256159  10.234  11.714   4.647
51443SOL     OW56160  14.375   6.813  10.307
51443SOL    HW156161  14.387   6.783  10.397
51443SOL    HW256162  14.411   6.742  10.253
51444SOL     OW56163  12.042   4.078   3.072
51444SOL    HW156164  11.991   4.111   3.146
51444SOL    HW256165  12.133   4.098   3.094
51445SOL     OW56166  12.968   3.085  11.939
51445SOL    HW156167  12.989   3.173  11.968
51445SOL    HW256168  12.980   3.030  12.016
51446SOL     OW56169   9.253   9.570   9.581
51446SOL    HW156170   9.192   9.512   9.626
51446SOL    HW256171   9.297   9.618   9.651
51447SOL     OW56172   7.778   0.693   4.686
51447SOL    HW156173   7.850   0.694   4.749
51447SOL    HW256174   7.773   0.784   4.654
51448SOL     OW56175   1.429  14.023   7.890
51448SOL    HW156176   1.467  13.970   7.960
51448SOL    HW256177   1.500  14.035   7.828
51449SOL     OW56178   4.755  11.415   4.520
51449SOL    HW156179   4.818  11.400   4.450
51449SOL    HW256180   4.736  11.509   4.515
51450SOL     OW56181   9.088  10.465  10.038
51450SOL    HW156182   9.029  10.400   9.999
51450SOL    HW256183   9.144  10.494   9.965
51451SOL     OW56184   8.922  11.698  12.493
51451SOL    HW156185   9.001  11.729  12.448
51451SOL    HW256186   8.864  11.774  12.496
51452SOL     OW56187   0.537   3.377   2.409
51452SOL    HW156188   0.507   3.463   2.439
51452SOL    HW256189   0.603   3.397   2.342
51453SOL     OW56190   3.009  12.041   7.888
51453SOL    HW156191   2.989  11.987   7.812
51453SOL    HW256192   2.933  12.098   7.897
51454SOL     OW56193   1.980  10.256   1.905
51454SOL    HW156194   1.949  10.201   1.977
51454SOL    HW256195   2.031  10.197   1.850
51455SOL     OW56196  13.852   5.011  12.171
51455SOL    HW156197  13.858   5.105  12.159
51455SOL    HW256198  13.832   4.977  12.084
51456SOL     OW56199   3.769   7.943   3.001
51456SOL    HW156200   3.709   7.967   3.071
51456SOL    HW256201   3.791   8.027   2.959
51457SOL     OW56202   1.322   9.656   8.135
51457SOL    HW156203   1.297   9.738   8.179
51457SOL    HW256204   1.291   9.587   8.194
51458SOL     OW56205  10.215  12.915   1.649
51458SOL    HW156206  10.188  12.876   1.566
51458SOL    HW256207  10.174  12.858   1.716
51459SOL     OW56208  12.943   6.480  11.797
51459SOL    HW156209  12.983   6.469  11.883
51459SOL    HW256210  13.016   6.507  11.740
51460SOL     OW56211  14.075  12.866   4.468
51460SOL    HW156212  14.151  12.905   4.423
51460SOL    HW256213  14.061  12.783   4.423
51461SOL     OW56214  11.409   8.378  10.230
51461SOL    HW156215  11.359   8.322  10.170
51461SOL    HW256216  11.493   8.390  10.187
51462SOL     OW56217  10.739  11.666   2.603
51462SOL    HW156218  10.750  11.761   2.615
51462SOL    HW256219  10.698  11.636   2.684
51463SOL     OW56220  14.633  10.617   2.305
51463SOL    HW156221  14.560  10.575   2.259
51463SOL    HW256222  14.673  10.674   2.240
51464SOL     OW56223  14.285  11.147  13.546
51464SOL    HW156224  14.325  11.226  13.581
51464SOL    HW256225  14.192  11.155  13.568
51465SOL     OW56226   0.488  11.874   2.304
51465SOL    HW156227   0.512  11.961   2.336
51465SOL    HW256228   0.496  11.882   2.209
51466SOL     OW56229   6.153   3.249   1.625
51466SOL    HW156230   6.221   3.205   1.574
51466SOL    HW256231   6.168   3.220   1.715
51467SOL     OW56232   4.019   4.515   8.963
51467SOL    HW156233   3.976   4.514   9.048
51467SOL    HW256234   4.103   4.559   8.979
51468SOL     OW56235   3.166  14.789   1.693
51468SOL    HW156236   3.101  14.847   1.733
51468SOL    HW256237   3.116  14.713   1.664
51469SOL     OW56238   8.336   3.270  13.734
51469SOL    HW156239   8.275   3.219  13.681
51469SOL    HW256240   8.414   3.277  13.680
51470SOL     OW56241  13.567  12.523   3.242
51470SOL    HW156242  13.653  12.522   3.284
51470SOL    HW256243  13.586  12.543   3.151
51471SOL     OW56244   9.886   8.766   3.988
51471SOL    HW156245   9.862   8.844   4.038
51471SOL    HW256246   9.855   8.693   4.042
51472SOL     OW56247   1.852   3.883  11.176
51472SOL    HW156248   1.759   3.892  11.194
51472SOL    HW256249   1.870   3.945  11.105
51473SOL     OW56250   7.393  12.960  12.725
51473SOL    HW156251   7.340  12.949  12.804
51473SOL    HW256252   7.357  12.896  12.664
51474SOL     OW56253   2.993   3.107   5.966
51474SOL    HW156254   2.962   3.094   5.876
51474SOL    HW256255   3.048   3.031   5.983
51475SOL     OW56256   2.715   0.182   7.828
51475SOL    HW156257   2.777   0.110   7.844
51475SOL    HW256258   2.660   0.184   7.906
51476SOL     OW56259  11.128   2.559   2.731
51476SOL    HW156260  11.180   2.487   2.695
51476SOL    HW256261  11.168   2.638   2.694
51477SOL     OW56262   7.381   9.169   0.124
51477SOL    HW156263   7.298   9.187   0.081
51477SOL    HW256264   7.447   9.209   0.068
51478SOL     OW56265  13.976   6.961   7.846
51478SOL    HW156266  13.885   6.972   7.818
51478SOL    HW256267  14.024   6.948   7.764
51479SOL     OW56268   4.486  12.187  12.834
51479SOL    HW156269   4.452  12.098  12.845
51479SOL    HW256270   4.576  12.183  12.868
51480SOL     OW56271  11.314   3.916   2.225
51480SOL    HW156272  11.275   3.941   2.141
51480SOL    HW256273  11.240   3.909   2.285
51481SOL     OW56274   9.537   5.478   7.965
51481SOL    HW156275   9.603   5.544   7.986
51481SOL    HW256276   9.569   5.436   7.885
51482SOL     OW56277  12.710   4.979   0.892
51482SOL    HW156278  12.771   4.976   0.818
51482SOL    HW256279  12.627   4.950   0.856
51483SOL     OW56280   7.757   8.014   3.381
51483SOL    HW156281   7.688   7.957   3.415
51483SOL    HW256282   7.777   8.073   3.454
51484SOL     OW56283   2.681  11.058   6.543
51484SOL    HW156284   2.648  11.079   6.630
51484SOL    HW256285   2.603  11.059   6.487
51485SOL     OW56286   6.077  10.719   2.662
51485SOL    HW156287   6.104  10.791   2.719
51485SOL    HW256288   6.056  10.762   2.578
51486SOL     OW56289   7.767   0.646   7.555
51486SOL    HW156290   7.726   0.730   7.574
51486SOL    HW256291   7.860   0.666   7.544
51487SOL     OW56292   5.564  11.971   7.701
51487SOL    HW156293   5.507  11.916   7.648
51487SOL    HW256294   5.504  12.025   7.753
51488SOL     OW56295  13.500  12.727  12.788
51488SOL    HW156296  13.458  12.800  12.834
51488SOL    HW256297  13.431  12.692  12.732
51489SOL     OW56298   5.992   0.349   0.142
51489SOL    HW156299   5.897   0.343   0.146
51489SOL    HW256300   6.022   0.304   0.221
51490SOL     OW56301   0.385   5.534   8.895
51490SOL    HW156302   0.415   5.446   8.917
51490SOL    HW256303   0.376   5.534   8.800
51491SOL     OW56304   8.210  12.889  12.801
51491SOL    HW156305   8.220  12.875  12.707
51491SOL    HW256306   8.140  12.954  12.808
51492SOL     OW56307   5.722   7.986  12.655
51492SOL    HW156308   5.777   7.957  12.583
51492SOL    HW256309   5.722   8.082  12.648
51493SOL     OW56310   7.273   5.067   9.129
51493SOL    HW156311   7.333   5.004   9.090
51493SOL    HW256312   7.299   5.070   9.221
51494SOL     OW56313   9.281  11.643  10.677
51494SOL    HW156314   9.229  11.699  10.619
51494SOL    HW256315   9.310  11.702  10.747
51495SOL     OW56316   6.547   0.143   4.997
51495SOL    HW156317   6.640   0.121   4.992
51495SOL    HW256318   6.515   0.129   4.908
51496SOL     OW56319   6.190   3.989   4.885
51496SOL    HW156320   6.192   4.075   4.927
51496SOL    HW256321   6.262   3.941   4.926
51497SOL     OW56322   0.674   9.559   1.341
51497SOL    HW156323   0.754   9.567   1.289
51497SOL    HW256324   0.696   9.497   1.410
51498SOL     OW56325   3.706   5.166   7.788
51498SOL    HW156326   3.720   5.122   7.872
51498SOL    HW256327   3.786   5.217   7.775
51499SOL     OW56328  11.789   8.037   8.091
51499SOL    HW156329  11.847   8.030   8.015
51499SOL    HW256330  11.729   8.108   8.069
51500SOL     OW56331  14.110   6.711   4.424
51500SOL    HW156332  14.111   6.800   4.387
51500SOL    HW256333  14.194   6.704   4.470
51501SOL     OW56334   1.396   6.429  13.541
51501SOL    HW156335   1.441   6.495  13.489
51501SOL    HW256336   1.348   6.479  13.607
51502SOL     OW56337   2.225   9.807  10.086
51502SOL    HW156338   2.221   9.870  10.014
51502SOL    HW256339   2.135   9.799  10.116
51503SOL     OW56340   2.621   0.719   7.874
51503SOL    HW156341   2.535   0.702   7.913
51503SOL    HW256342   2.601   0.738   7.782
51504SOL     OW56343   9.096  11.856   1.588
51504SOL    HW156344   9.110  11.903   1.505
51504SOL    HW256345   9.181  11.814   1.606
51505SOL     OW56346  10.505   0.426  13.751
51505SOL    HW156347  10.461   0.493  13.804
51505SOL    HW256348  10.514   0.351  13.809
51506SOL     OW56349   0.149   5.752  13.424
51506SOL    HW156350   0.155   5.657  13.423
51506SOL    HW256351   0.078   5.771  13.486
51507SOL     OW56352  14.156   9.271   4.333
51507SOL    HW156353  14.228   9.296   4.274
51507SOL    HW256354  14.136   9.181   4.309
51508SOL     OW56355   7.797   0.738  12.812
51508SOL    HW156356   7.861   0.809  12.803
51508SOL    HW256357   7.714   0.778  12.784
51509SOL     OW56358   5.804  12.715  11.346
51509SOL    HW156359   5.769  12.721  11.257
51509SOL    HW256360   5.781  12.799  11.386
51510SOL     OW56361   1.034   3.562  13.080
51510SOL    HW156362   1.109   3.614  13.052
51510SOL    HW256363   1.012   3.510  13.003
51511SOL     OW56364  14.019  11.657   0.861
51511SOL    HW156365  13.938  11.703   0.881
51511SOL    HW256366  13.999  11.603   0.784
51512SOL     OW56367   1.432  11.750   0.719
51512SOL    HW156368   1.372  11.744   0.793
51512SOL    HW256369   1.516  11.718   0.752
51513SOL     OW56370   1.211  10.015   6.924
51513SOL    HW156371   1.252   9.981   7.003
51513SOL    HW256372   1.156  10.087   6.954
51514SOL     OW56373   1.812  13.126   0.382
51514SOL    HW156374   1.873  13.058   0.411
51514SOL    HW256375   1.726  13.091   0.403
51515SOL     OW56376   8.681   7.296   7.348
51515SOL    HW156377   8.724   7.245   7.417
51515SOL    HW256378   8.704   7.387   7.368
51516SOL     OW56379  13.766  12.703  13.783
51516SOL    HW156380  13.852  12.660  13.788
51516SOL    HW256381  13.703  12.631  13.779
51517SOL     OW56382  13.673   0.602  10.434
51517SOL    HW156383  13.689   0.693  10.460
51517SOL    HW256384  13.698   0.598  10.342
51518SOL     OW56385  11.728   8.590  10.268
51518SOL    HW156386  11.693   8.578  10.180
51518SOL    HW256387  11.736   8.501  10.303
51519SOL     OW56388  12.687   9.812   6.505
51519SOL    HW156389  12.597   9.782   6.500
51519SOL    HW256390  12.725   9.788   6.420
51520SOL     OW56391   3.285   6.026   7.288
51520SOL    HW156392   3.325   6.092   7.346
51520SOL    HW256393   3.192   6.049   7.286
51521SOL     OW56394  12.608   4.269  13.270
51521SOL    HW156395  12.539   4.266  13.335
51521SOL    HW256396  12.583   4.202  13.205
51522SOL     OW56397   5.010   8.988  14.274
51522SOL    HW156398   5.063   9.027  14.205
51522SOL    HW256399   4.986   9.062  14.330
51523SOL     OW56400   4.488   3.829   6.443
51523SOL    HW156401   4.508   3.810   6.535
51523SOL    HW256402   4.395   3.807   6.434
51524SOL     OW56403   4.135  12.120   6.196
51524SOL    HW156404   4.145  12.184   6.125
51524SOL    HW256405   4.040  12.110   6.206
51525SOL     OW56406  14.036   8.999   3.212
51525SOL    HW156407  13.972   9.066   3.187
51525SOL    HW256408  14.117   9.047   3.226
51526SOL     OW56409   9.667  10.707   4.393
51526SOL    HW156410   9.660  10.753   4.477
51526SOL    HW256411   9.701  10.773   4.333
51527SOL     OW56412  11.911  14.686   8.639
51527SOL    HW156413  11.897  14.624   8.567
51527SOL    HW256414  11.879  14.769   8.604
51528SOL     OW56415   5.386   0.740   2.131
51528SOL    HW156416   5.297   0.776   2.131
51528SOL    HW256417   5.427   0.776   2.210
51529SOL     OW56418   8.417   9.581   6.390
51529SOL    HW156419   8.347   9.551   6.447
51529SOL    HW256420   8.465   9.646   6.443
51530SOL     OW56421   1.575  13.184  11.299
51530SOL    HW156422   1.511  13.250  11.327
51530SOL    HW256423   1.645  13.191  11.365
51531SOL     OW56424   6.143   2.322   3.473
51531SOL    HW156425   6.078   2.337   3.541
51531SOL    HW256426   6.117   2.238   3.434
51532SOL     OW56427  12.772   9.846  10.549
51532SOL    HW156428  12.748   9.770  10.603
51532SOL    HW256429  12.842   9.813  10.493
51533SOL     OW56430  10.478   3.662   3.887
51533SOL    HW156431  10.425   3.741   3.882
51533SOL    HW256432  10.415   3.591   3.903
51534SOL     OW56433   4.376   0.150  12.009
51534SOL    HW156434   4.365   0.093  12.084
51534SOL    HW256435   4.401   0.091  11.937
51535SOL     OW56436   4.858   5.928  11.910
51535SOL    HW156437   4.849   5.887  11.823
51535SOL    HW256438   4.916   6.003  11.895
51536SOL     OW56439   4.300   0.688   7.830
51536SOL    HW156440   4.268   0.774   7.858
51536SOL    HW256441   4.354   0.658   7.902
51537SOL     OW56442   7.127  12.089  12.602
51537SOL    HW156443   7.125  12.121  12.512
51537SOL    HW256444   7.211  12.119  12.636
51538SOL     OW56445   9.603   5.152   8.378
51538SOL    HW156446   9.628   5.222   8.318
51538SOL    HW256447   9.507   5.152   8.376
51539SOL     OW56448  14.278   0.254  10.636
51539SOL    HW156449  14.226   0.181  10.603
51539SOL    HW256450  14.267   0.323  10.571
51540SOL     OW56451   7.551   3.948  13.898
51540SOL    HW156452   7.594   3.897  13.966
51540SOL    HW256453   7.465   3.970  13.934
51541SOL     OW56454  11.745   8.887   4.925
51541SOL    HW156455  11.777   8.800   4.901
51541SOL    HW256456  11.673   8.904   4.865
51542SOL     OW56457   6.540   8.384   6.814
51542SOL    HW156458   6.607   8.329   6.773
51542SOL    HW256459   6.576   8.473   6.808
51543SOL     OW56460  10.884  12.646   7.763
51543SOL    HW156461  10.791  12.668   7.773
51543SOL    HW256462  10.926  12.730   7.744
51544SOL     OW56463  12.297   2.942  12.262
51544SOL    HW156464  12.283   2.851  12.236
51544SOL    HW256465  12.354   2.978  12.194
51545SOL     OW56466   9.470   9.569  13.347
51545SOL    HW156467   9.471   9.624  13.269
51545SOL    HW256468   9.508   9.624  13.416
51546SOL     OW56469   5.429   6.723   6.814
51546SOL    HW156470   5.436   6.772   6.732
51546SOL    HW256471   5.502   6.661   6.811
51547SOL     OW56472   4.980  14.063   5.191
51547SOL    HW156473   5.021  13.987   5.149
51547SOL    HW256474   4.892  14.066   5.154
51548SOL     OW56475   8.311   9.838  13.276
51548SOL    HW156476   8.287   9.785  13.353
51548SOL    HW256477   8.269   9.922  13.291
51549SOL     OW56478   7.503   8.686   7.948
51549SOL    HW156479   7.543   8.742   8.014
51549SOL    HW256480   7.564   8.612   7.939
51550SOL     OW56481   8.729  11.052  14.201
51550SOL    HW156482   8.782  11.132  14.197
51550SOL    HW256483   8.791  10.984  14.229
51551SOL     OW56484   1.848  14.575  12.310
51551SOL    HW156485   1.896  14.585  12.392
51551SOL    HW256486   1.906  14.522  12.255
51552SOL     OW56487   7.860   3.786  13.872
51552SOL    HW156488   7.865   3.714  13.809
51552SOL    HW256489   7.883   3.864  13.823
51553SOL     OW56490  10.584   5.296   2.080
51553SOL    HW156491  10.557   5.337   2.162
51553SOL    HW256492  10.574   5.364   2.014
51554SOL     OW56493   9.914   5.471  14.140
51554SOL    HW156494   9.837   5.442  14.091
51554SOL    HW256495   9.966   5.518  14.075
51555SOL     OW56496   2.761   4.150   1.751
51555SOL    HW156497   2.726   4.218   1.694
51555SOL    HW256498   2.746   4.069   1.703
51556SOL     OW56499   9.450   3.565  13.551
51556SOL    HW156500   9.513   3.636  13.537
51556SOL    HW256501   9.401   3.592  13.628
51557SOL     OW56502   1.683  12.318   3.751
51557SOL    HW156503   1.735  12.391   3.718
51557SOL    HW256504   1.593  12.350   3.752
51558SOL     OW56505   1.831   3.811  11.928
51558SOL    HW156506   1.861   3.849  11.846
51558SOL    HW256507   1.862   3.721  11.927
51559SOL     OW56508   9.919  13.431   2.860
51559SOL    HW156509   9.927  13.351   2.911
51559SOL    HW256510   9.899  13.499   2.924
51560SOL     OW56511   9.213   9.758  12.866
51560SOL    HW156512   9.133   9.759  12.813
51560SOL    HW256513   9.267   9.829  12.830
51561SOL     OW56514  10.781  13.643  10.089
51561SOL    HW156515  10.782  13.711  10.021
51561SOL    HW256516  10.873  13.627  10.108
51562SOL     OW56517   9.638  12.628   0.202
51562SOL    HW156518   9.689  12.705   0.178
51562SOL    HW256519   9.549  12.662   0.214
51563SOL     OW56520   6.051   2.262   2.161
51563SOL    HW156521   6.128   2.253   2.218
51563SOL    HW256522   6.031   2.356   2.163
51564SOL     OW56523  11.494   3.377   9.172
51564SOL    HW156524  11.460   3.287   9.174
51564SOL    HW256525  11.519   3.395   9.262
51565SOL     OW56526   1.812   0.082  13.760
51565SOL    HW156527   1.762   0.152  13.801
51565SOL    HW256528   1.900   0.118  13.747
51566SOL     OW56529   4.033   6.374  14.745
51566SOL    HW156530   4.016   6.376  14.839
51566SOL    HW256531   3.963   6.319  14.709
51567SOL     OW56532   3.493   4.850  14.129
51567SOL    HW156533   3.533   4.832  14.043
51567SOL    HW256534   3.510   4.771  14.180
51568SOL     OW56535   4.686   1.315  13.678
51568SOL    HW156536   4.695   1.234  13.628
51568SOL    HW256537   4.635   1.289  13.755
51569SOL     OW56538   1.590  12.905   5.518
51569SOL    HW156539   1.659  12.910   5.451
51569SOL    HW256540   1.615  12.830   5.572
51570SOL     OW56541  11.982   0.769  13.352
51570SOL    HW156542  12.040   0.841  13.377
51570SOL    HW256543  11.941   0.742  13.435
51571SOL     OW56544  13.636   9.532   0.434
51571SOL    HW156545  13.714   9.559   0.482
51571SOL    HW256546  13.636   9.586   0.355
51572SOL     OW56547  13.684   9.683   5.044
51572SOL    HW156548  13.714   9.743   5.112
51572SOL    HW256549  13.642   9.611   5.092
51573SOL     OW56550  14.624  14.542   2.651
51573SOL    HW156551  14.639  14.457   2.693
51573SOL    HW256552  14.596  14.599   2.723
51574SOL     OW56553   0.391   1.003   0.445
51574SOL    HW156554   0.464   1.051   0.484
51574SOL    HW256555   0.408   0.912   0.470
51575SOL     OW56556  12.718   1.590   4.429
51575SOL    HW156557  12.758   1.566   4.513
51575SOL    HW256558  12.757   1.529   4.366
51576SOL     OW56559  12.975   3.537  12.602
51576SOL    HW156560  12.958   3.592  12.525
51576SOL    HW256561  13.013   3.457  12.566
51577SOL     OW56562   3.821   2.168  12.391
51577SOL    HW156563   3.809   2.241  12.451
51577SOL    HW256564   3.853   2.208  12.310
51578SOL     OW56565   8.695   3.118   6.298
51578SOL    HW156566   8.693   3.074   6.213
51578SOL    HW256567   8.618   3.084   6.344
51579SOL     OW56568   6.520  11.357   6.146
51579SOL    HW156569   6.436  11.383   6.107
51579SOL    HW256570   6.546  11.433   6.198
51580SOL     OW56571  14.120   2.517   5.980
51580SOL    HW156572  14.156   2.538   6.067
51580SOL    HW256573  14.038   2.471   5.999
51581SOL     OW56574  13.641   9.664   2.667
51581SOL    HW156575  13.556   9.627   2.642
51581SOL    HW256576  13.700   9.589   2.669
51582SOL     OW56577   8.795  13.179   9.962
51582SOL    HW156578   8.752  13.238  10.024
51582SOL    HW256579   8.884  13.171   9.995
51583SOL     OW56580  10.545   7.356   1.843
51583SOL    HW156581  10.584   7.423   1.899
51583SOL    HW256582  10.452   7.376   1.843
51584SOL     OW56583   1.262   6.272   3.551
51584SOL    HW156584   1.349   6.253   3.515
51584SOL    HW256585   1.225   6.336   3.490
51585SOL     OW56586   5.616   2.474   4.087
51585SOL    HW156587   5.698   2.441   4.051
51585SOL    HW256588   5.626   2.569   4.087
51586SOL     OW56589   9.819   1.861   1.298
51586SOL    HW156590   9.880   1.863   1.224
51586SOL    HW256591   9.755   1.929   1.276
51587SOL     OW56592   3.332   0.691  10.561
51587SOL    HW156593   3.403   0.741  10.522
51587SOL    HW256594   3.265   0.686  10.493
51588SOL     OW56595  10.280   9.526   3.291
51588SOL    HW156596  10.335   9.453   3.318
51588SOL    HW256597  10.264   9.575   3.372
51589SOL     OW56598   4.800   4.784   8.173
51589SOL    HW156599   4.860   4.859   8.181
51589SOL    HW256600   4.857   4.708   8.162
51590SOL     OW56601  13.318  12.387  11.222
51590SOL    HW156602  13.406  12.349  11.226
51590SOL    HW256603  13.286  12.364  11.135
51591SOL     OW56604   2.691   6.290   9.855
51591SOL    HW156605   2.678   6.342   9.776
51591SOL    HW256606   2.757   6.226   9.831
51592SOL     OW56607   8.726   3.651   8.263
51592SOL    HW156608   8.644   3.687   8.298
51592SOL    HW256609   8.714   3.556   8.269
51593SOL     OW56610   8.061   0.675   5.600
51593SOL    HW156611   8.114   0.750   5.571
51593SOL    HW256612   8.009   0.709   5.672
51594SOL     OW56613   0.254   4.368   0.205
51594SOL    HW156614   0.315   4.395   0.136
51594SOL    HW256615   0.179   4.332   0.158
51595SOL     OW56616   1.456  13.432  13.159
51595SOL    HW156617   1.472  13.406  13.069
51595SOL    HW256618   1.392  13.369  13.192
51596SOL     OW56619   1.072  12.203   5.691
51596SOL    HW156620   1.075  12.187   5.786
51596SOL    HW256621   1.086  12.297   5.682
51597SOL     OW56622   9.812   7.322   2.849
51597SOL    HW156623   9.752   7.308   2.922
51597SOL    HW256624   9.813   7.238   2.803
51598SOL     OW56625   0.076  13.585   7.185
51598SOL    HW156626   0.134  13.590   7.261
51598SOL    HW256627   0.040  13.496   7.188
51599SOL     OW56628   6.732   4.869   3.569
51599SOL    HW156629   6.665   4.934   3.588
51599SOL    HW256630   6.801   4.918   3.523
51600SOL     OW56631   5.722  12.315  11.512
51600SOL    HW156632   5.628  12.307  11.526
51600SOL    HW256633   5.742  12.249  11.446
51601SOL     OW56634   0.862   0.599  14.263
51601SOL    HW156635   0.813   0.581  14.183
51601SOL    HW256636   0.795   0.600  14.332
51602SOL     OW56637  11.246  13.006   1.446
51602SOL    HW156638  11.172  12.958   1.483
51602SOL    HW256639  11.323  12.955   1.472
51603SOL     OW56640  11.049   1.939   5.069
51603SOL    HW156641  11.037   1.970   4.980
51603SOL    HW256642  11.132   1.977   5.097
51604SOL     OW56643   7.842   3.548   0.595
51604SOL    HW156644   7.771   3.525   0.655
51604SOL    HW256645   7.806   3.532   0.508
51605SOL     OW56646   2.246  14.409   1.610
51605SOL    HW156647   2.253  14.340   1.544
51605SOL    HW256648   2.306  14.383   1.679
51606SOL     OW56649   4.127  12.267   0.199
51606SOL    HW156650   4.074  12.325   0.145
51606SOL    HW256651   4.173  12.211   0.136
51607SOL     OW56652  11.145  12.050   8.957
51607SOL    HW156653  11.194  12.006   9.027
51607SOL    HW256654  11.090  12.114   9.003
51608SOL     OW56655   7.811   7.984  11.461
51608SOL    HW156656   7.720   7.966  11.485
51608SOL    HW256657   7.840   7.904  11.417
51609SOL     OW56658   8.958  10.299  11.376
51609SOL    HW156659   9.000  10.260  11.299
51609SOL    HW256660   9.002  10.384  11.387
51610SOL     OW56661   2.420   9.494   1.379
51610SOL    HW156662   2.416   9.411   1.427
51610SOL    HW256663   2.492   9.483   1.318
51611SOL     OW56664  12.950   3.153  10.040
51611SOL    HW156665  13.042   3.149  10.013
51611SOL    HW256666  12.902   3.156   9.957
51612SOL     OW56667   0.257   4.621   0.466
51612SOL    HW156668   0.293   4.556   0.527
51612SOL    HW256669   0.223   4.691   0.522
51613SOL     OW56670   1.873  11.427   3.596
51613SOL    HW156671   1.897  11.496   3.658
51613SOL    HW256672   1.888  11.466   3.510
51614SOL     OW56673   8.095   5.375  12.951
51614SOL    HW156674   8.057   5.424  12.878
51614SOL    HW256675   8.072   5.427  13.029
51615SOL     OW56676  10.594   3.365   2.492
51615SOL    HW156677  10.595   3.272   2.469
51615SOL    HW256678  10.685   3.394   2.481
51616SOL     OW56679   2.836   3.816   7.649
51616SOL    HW156680   2.860   3.888   7.708
51616SOL    HW256681   2.740   3.819   7.645
51617SOL     OW56682   2.159   2.506  13.600
51617SOL    HW156683   2.214   2.458  13.538
51617SOL    HW256684   2.102   2.559  13.545
51618SOL     OW56685  10.214   5.984   4.199
51618SOL    HW156686  10.271   5.911   4.177
51618SOL    HW256687  10.136   5.943   4.237
51619SOL     OW56688   9.730   9.436   3.338
51619SOL    HW156689   9.824   9.444   3.353
51619SOL    HW256690   9.698   9.526   3.337
51620SOL     OW56691  11.576   3.517   9.459
51620SOL    HW156692  11.492   3.529   9.504
51620SOL    HW256693  11.597   3.604   9.425
51621SOL     OW56694  13.769   8.126  12.224
51621SOL    HW156695  13.819   8.051  12.259
51621SOL    HW256696  13.785   8.123  12.130
51622SOL     OW56697   8.539   5.905   4.617
51622SOL    HW156698   8.569   5.814   4.621
51622SOL    HW256699   8.551   5.937   4.707
51623SOL     OW56700   3.996   4.705   0.424
51623SOL    HW156701   4.067   4.692   0.361
51623SOL    HW256702   4.039   4.738   0.502
51624SOL     OW56703   1.237  12.333   0.844
51624SOL    HW156704   1.159  12.310   0.794
51624SOL    HW256705   1.283  12.250   0.857
51625SOL     OW56706  12.884   5.529   1.215
51625SOL    HW156707  12.803   5.572   1.186
51625SOL    HW256708  12.894   5.455   1.155
51626SOL     OW56709   9.863   2.558   1.940
51626SOL    HW156710   9.855   2.469   1.973
51626SOL    HW256711   9.853   2.614   2.017
51627SOL     OW56712   7.522  14.063   0.892
51627SOL    HW156713   7.444  14.008   0.895
51627SOL    HW256714   7.522  14.101   0.804
51628SOL     OW56715   3.996   3.743   6.766
51628SOL    HW156716   3.947   3.706   6.692
51628SOL    HW256717   3.947   3.821   6.791
51629SOL     OW56718   9.254  12.947   9.888
51629SOL    HW156719   9.169  12.958   9.844
51629SOL    HW256720   9.246  12.865   9.936
51630SOL     OW56721   6.874  10.437   4.332
51630SOL    HW156722   6.922  10.512   4.367
51630SOL    HW256723   6.914  10.361   4.374
51631SOL     OW56724   1.396   9.480   2.271
51631SOL    HW156725   1.319   9.428   2.248
51631SOL    HW256726   1.463   9.452   2.209
51632SOL     OW56727   1.143   3.265  11.854
51632SOL    HW156728   1.064   3.270  11.906
51632SOL    HW256729   1.115   3.283  11.764
51633SOL     OW56730   3.432  11.520   4.381
51633SOL    HW156731   3.373  11.593   4.362
51633SOL    HW256732   3.433  11.513   4.476
51634SOL     OW56733  13.939  10.935   9.336
51634SOL    HW156734  13.855  10.957   9.376
51634SOL    HW256735  13.921  10.927   9.243
51635SOL     OW56736  11.048  11.985   5.621
51635SOL    HW156737  11.011  11.926   5.687
51635SOL    HW256738  10.971  12.023   5.577
51636SOL     OW56739  10.442   2.097   9.264
51636SOL    HW156740  10.474   2.185   9.243
51636SOL    HW256741  10.350   2.098   9.238
51637SOL     OW56742   9.414  11.261   2.273
51637SOL    HW156743   9.343  11.214   2.230
51637SOL    HW256744   9.494  11.223   2.235
51638SOL     OW56745   8.094   5.324  11.627
51638SOL    HW156746   8.041   5.403  11.636
51638SOL    HW256747   8.170   5.352  11.576
51639SOL     OW56748   0.357  12.019   1.290
51639SOL    HW156749   0.347  12.019   1.386
51639SOL    HW256750   0.437  12.068   1.274
51640SOL     OW56751   3.613   3.297   3.703
51640SOL    HW156752   3.571   3.224   3.748
51640SOL    HW256753   3.650   3.350   3.774
51641SOL     OW56754   5.668   1.015   3.862
51641SOL    HW156755   5.647   0.929   3.899
51641SOL    HW256756   5.758   1.032   3.891
51642SOL     OW56757   6.526   0.785   4.651
51642SOL    HW156758   6.504   0.763   4.742
51642SOL    HW256759   6.616   0.756   4.641
51643SOL     OW56760  10.398   5.769   0.746
51643SOL    HW156761  10.362   5.691   0.788
51643SOL    HW256762  10.383   5.755   0.652
51644SOL     OW56763   2.546   6.095   6.113
51644SOL    HW156764   2.592   6.161   6.062
51644SOL    HW256765   2.615   6.043   6.154
51645SOL     OW56766  12.427   0.205   3.211
51645SOL    HW156767  12.446   0.247   3.295
51645SOL    HW256768  12.390   0.274   3.156
51646SOL     OW56769   8.968   2.288   9.095
51646SOL    HW156770   8.887   2.240   9.079
51646SOL    HW256771   9.036   2.235   9.053
51647SOL     OW56772   9.987   3.892  11.716
51647SOL    HW156773   9.908   3.929  11.757
51647SOL    HW256774  10.048   3.966  11.713
51648SOL     OW56775   4.100   4.908   0.045
51648SOL    HW156776   4.071   4.973  14.854
51648SOL    HW256777   4.042   4.921   0.120
51649SOL     OW56778  13.452   6.302   1.253
51649SOL    HW156779  13.464   6.209   1.235
51649SOL    HW256780  13.537   6.331   1.287
51650SOL     OW56781   9.504  11.553   7.794
51650SOL    HW156782   9.512  11.482   7.731
51650SOL    HW256783   9.432  11.607   7.762
51651SOL     OW56784  14.859  11.078   7.482
51651SOL    HW156785   0.014  11.078   7.574
51651SOL    HW256786   0.006  11.166   7.451
51652SOL     OW56787   2.106   8.980   0.925
51652SOL    HW156788   2.172   9.019   0.867
51652SOL    HW256789   2.023   9.001   0.883
51653SOL     OW56790  10.250   3.773  13.514
51653SOL    HW156791  10.234   3.868  13.515
51653SOL    HW256792  10.194   3.741  13.443
51654SOL     OW56793  11.887  13.543   3.617
51654SOL    HW156794  11.928  13.531   3.531
51654SOL    HW256795  11.824  13.613   3.603
51655SOL     OW56796   9.495   2.594  10.460
51655SOL    HW156797   9.463   2.504  10.459
51655SOL    HW256798   9.477   2.625  10.549
51656SOL     OW56799  13.336  13.579  13.527
51656SOL    HW156800  13.328  13.669  13.559
51656SOL    HW256801  13.246  13.555  13.503
51657SOL     OW56802   8.673  14.453   4.889
51657SOL    HW156803   8.675  14.409   4.974
51657SOL    HW256804   8.587  14.496   4.887
51658SOL     OW56805   9.490   5.249  13.415
51658SOL    HW156806   9.463   5.329  13.459
51658SOL    HW256807   9.581   5.236  13.442
51659SOL     OW56808   6.624   7.971  11.276
51659SOL    HW156809   6.562   7.913  11.231
51659SOL    HW256810   6.701   7.916  11.291
51660SOL     OW56811   6.003  11.558  14.181
51660SOL    HW156812   6.009  11.569  14.276
51660SOL    HW256813   5.996  11.464  14.168
51661SOL     OW56814   6.681  12.274   5.026
51661SOL    HW156815   6.766  12.305   5.055
51661SOL    HW256816   6.623  12.350   5.034
51662SOL     OW56817   7.025  13.246   8.806
51662SOL    HW156818   7.095  13.292   8.852
51662SOL    HW256819   6.981  13.314   8.755
51663SOL     OW56820  12.211  13.154   2.995
51663SOL    HW156821  12.202  13.208   2.916
51663SOL    HW256822  12.275  13.202   3.049
51664SOL     OW56823   3.883   4.355   2.144
51664SOL    HW156824   3.976   4.346   2.165
51664SOL    HW256825   3.847   4.407   2.217
51665SOL     OW56826  12.017   2.905  14.810
51665SOL    HW156827  11.975   2.908   0.024
51665SOL    HW256828  12.021   2.812  14.789
51666SOL     OW56829  10.229   7.961   1.397
51666SOL    HW156830  10.299   7.977   1.460
51666SOL    HW256831  10.240   8.029   1.331
51667SOL     OW56832   9.992   4.584  11.862
51667SOL    HW156833   9.989   4.643  11.786
51667SOL    HW256834   9.907   4.540  11.860
51668SOL     OW56835   2.312   3.898   7.704
51668SOL    HW156836   2.229   3.929   7.667
51668SOL    HW256837   2.286   3.832   7.768
51669SOL     OW56838  11.198   4.253   6.232
51669SOL    HW156839  11.203   4.309   6.310
51669SOL    HW256840  11.128   4.291   6.179
51670SOL     OW56841   3.640  11.782   3.085
51670SOL    HW156842   3.691  11.776   3.166
51670SOL    HW256843   3.565  11.724   3.099
51671SOL     OW56844   3.295   6.243   8.877
51671SOL    HW156845   3.244   6.228   8.798
51671SOL    HW256846   3.345   6.322   8.858
51672SOL     OW56847  10.286   4.143   9.218
51672SOL    HW156848  10.352   4.212   9.231
51672SOL    HW256849  10.335   4.062   9.231
51673SOL     OW56850   8.710  10.013   1.837
51673SOL    HW156851   8.695   9.962   1.758
51673SOL    HW256852   8.792  10.060   1.819
51674SOL     OW56853   0.998   5.957   7.055
51674SOL    HW156854   1.032   6.041   7.085
51674SOL    HW256855   0.987   5.905   7.135
51675SOL     OW56856  11.581   1.479  14.150
51675SOL    HW156857  11.565   1.573  14.141
51675SOL    HW256858  11.660   1.463  14.097
51676SOL     OW56859   9.007   4.094   0.394
51676SOL    HW156860   9.035   4.158   0.459
51676SOL    HW256861   8.916   4.074   0.417
51677SOL     OW56862   4.435  11.801  10.705
51677SOL    HW156863   4.408  11.815  10.796
51677SOL    HW256864   4.395  11.873  10.657
51678SOL     OW56865   8.217   4.423   8.443
51678SOL    HW156866   8.187   4.480   8.372
51678SOL    HW256867   8.161   4.346   8.437
51679SOL     OW56868   7.650  14.004   0.221
51679SOL    HW156869   7.576  13.959   0.264
51679SOL    HW256870   7.623  14.095   0.216
51680SOL     OW56871   7.754   9.275   7.569
51680SOL    HW156872   7.818   9.327   7.618
51680SOL    HW256873   7.670   9.319   7.585
51681SOL     OW56874  14.023   2.463   9.806
51681SOL    HW156875  14.017   2.559   9.813
51681SOL    HW256876  14.100   2.448   9.751
51682SOL     OW56877   8.128  13.694   4.109
51682SOL    HW156878   8.040  13.727   4.092
51682SOL    HW256879   8.185  13.769   4.093
51683SOL     OW56880  14.219  13.829   1.868
51683SOL    HW156881  14.123  13.823   1.863
51683SOL    HW256882  14.248  13.826   1.777
51684SOL     OW56883   5.205  11.878  12.723
51684SOL    HW156884   5.165  11.947  12.776
51684SOL    HW256885   5.287  11.916  12.692
51685SOL     OW56886  10.769  10.975   5.794
51685SOL    HW156887  10.845  10.922   5.820
51685SOL    HW256888  10.805  11.058   5.765
51686SOL     OW56889  11.248   9.632   0.216
51686SOL    HW156890  11.193   9.626   0.294
51686SOL    HW256891  11.200   9.689   0.156
51687SOL     OW56892   5.348   3.547   7.086
51687SOL    HW156893   5.330   3.461   7.047
51687SOL    HW256894   5.422   3.581   7.036
51688SOL     OW56895   2.019   0.316  11.700
51688SOL    HW156896   2.107   0.337  11.668
51688SOL    HW256897   1.961   0.374  11.652
51689SOL     OW56898   0.328  10.536   6.727
51689SOL    HW156899   0.355  10.616   6.772
51689SOL    HW256900   0.277  10.488   6.792
51690SOL     OW56901   3.360   7.068   7.274
51690SOL    HW156902   3.392   7.092   7.361
51690SOL    HW256903   3.385   6.977   7.263
51691SOL     OW56904   5.815   5.670  14.128
51691SOL    HW156905   5.752   5.660  14.198
51691SOL    HW256906   5.771   5.635  14.050
51692SOL     OW56907   1.926  13.093   9.127
51692SOL    HW156908   1.976  13.089   9.209
51692SOL    HW256909   1.861  13.162   9.142
51693SOL     OW56910  12.123  10.480   2.307
51693SOL    HW156911  12.100  10.417   2.376
51693SOL    HW256912  12.122  10.428   2.226
51694SOL     OW56913   6.845   3.648  14.770
51694SOL    HW156914   6.896   3.642  14.851
51694SOL    HW256915   6.784   3.573  14.774
51695SOL     OW56916   8.390   0.315   5.421
51695SOL    HW156917   8.421   0.386   5.365
51695SOL    HW256918   8.325   0.269   5.368
51696SOL     OW56919   4.326  11.767   2.539
51696SOL    HW156920   4.406  11.731   2.576
51696SOL    HW256921   4.257  11.705   2.564
51697SOL     OW56922  12.938   4.154   1.515
51697SOL    HW156923  12.843   4.147   1.516
51697SOL    HW256924  12.964   4.129   1.604
51698SOL     OW56925   6.365   6.531  14.859
51698SOL    HW156926   6.442   6.475  14.850
51698SOL    HW256927   6.398   6.610   0.030
51699SOL     OW56928  12.902   5.101  11.678
51699SOL    HW156929  12.983   5.052  11.693
51699SOL    HW256930  12.856   5.052  11.610
51700SOL     OW56931   5.611  12.744   9.607
51700SOL    HW156932   5.650  12.796   9.536
51700SOL    HW256933   5.601  12.805   9.679
51701SOL     OW56934  13.780  10.384  13.668
51701SOL    HW156935  13.790  10.294  13.699
51701SOL    HW256936  13.803  10.380  13.575
51702SOL     OW56937  10.331   7.666   4.955
51702SOL    HW156938  10.413   7.646   4.910
51702SOL    HW256939  10.299   7.581   4.986
51703SOL     OW56940   1.764   4.412   2.324
51703SOL    HW156941   1.720   4.492   2.354
51703SOL    HW256942   1.811   4.380   2.401
51704SOL     OW56943   5.271   6.695  10.136
51704SOL    HW156944   5.217   6.626  10.174
51704SOL    HW256945   5.321   6.730  10.209
51705SOL     OW56946   6.960   7.762   4.214
51705SOL    HW156947   6.912   7.843   4.232
51705SOL    HW256948   6.958   7.714   4.297
51706SOL     OW56949  11.807   8.433   2.082
51706SOL    HW156950  11.715   8.438   2.108
51706SOL    HW256951  11.840   8.522   2.092
51707SOL     OW56952   8.052   6.535  14.374
51707SOL    HW156953   8.004   6.618  14.376
51707SOL    HW256954   7.985   6.470  14.351
51708SOL     OW56955   7.936   3.253   8.551
51708SOL    HW156956   7.885   3.243   8.471
51708SOL    HW256957   7.950   3.163   8.582
51709SOL     OW56958   9.467   1.415  10.269
51709SOL    HW156959   9.472   1.337  10.214
51709SOL    HW256960   9.461   1.488  10.208
51710SOL     OW56961   3.637   6.137   4.055
51710SOL    HW156962   3.709   6.180   4.100
51710SOL    HW256963   3.678   6.095   3.979
51711SOL     OW56964  14.115  13.417   8.899
51711SOL    HW156965  14.053  13.404   8.827
51711SOL    HW256966  14.144  13.328   8.921
51712SOL     OW56967   1.442   1.664  14.006
51712SOL    HW156968   1.365   1.700  14.051
51712SOL    HW256969   1.405   1.615  13.932
51713SOL     OW56970   8.877   7.413   6.679
51713SOL    HW156971   8.880   7.454   6.766
51713SOL    HW256972   8.865   7.485   6.618
51714SOL     OW56973   0.323  10.607  10.763
51714SOL    HW156974   0.376  10.531  10.740
51714SOL    HW256975   0.296  10.643  10.679
51715SOL     OW56976   9.607   7.149   2.539
51715SOL    HW156977   9.542   7.213   2.568
51715SOL    HW256978   9.668   7.142   2.612
51716SOL     OW56979   1.389   0.013   5.764
51716SOL    HW156980   1.356   0.053   5.684
51716SOL    HW256981   1.397  14.792   5.743
51717SOL     OW56982  11.234   9.521   5.459
51717SOL    HW156983  11.314   9.490   5.417
51717SOL    HW256984  11.204   9.593   5.402
51718SOL     OW56985   1.904   6.968   1.002
51718SOL    HW156986   1.839   6.899   0.996
51718SOL    HW256987   1.987   6.922   1.016
51719SOL     OW56988   4.390  14.077   7.091
51719SOL    HW156989   4.399  14.012   7.160
51719SOL    HW256990   4.465  14.136   7.103
51720SOL     OW56991   8.552  13.636   4.385
51720SOL    HW156992   8.483  13.610   4.324
51720SOL    HW256993   8.626  13.581   4.362
51721SOL     OW56994   6.728   8.983   2.539
51721SOL    HW156995   6.820   8.980   2.565
51721SOL    HW256996   6.707   8.892   2.517
51722SOL     OW56997  11.683   7.652  12.723
51722SOL    HW156998  11.759   7.694  12.764
51722SOL    HW256999  11.716   7.620  12.640
51723SOL     OW57000   2.622  12.296   6.944
51723SOL    HW157001   2.568  12.364   6.984
51723SOL    HW257002   2.562  12.224   6.927
51724SOL     OW57003  11.948  13.363   6.670
51724SOL    HW157004  11.968  13.454   6.692
51724SOL    HW257005  11.859  13.366   6.636
51725SOL     OW57006   0.258  14.386   0.888
51725SOL    HW157007   0.212  14.396   0.805
51725SOL    HW257008   0.343  14.349   0.864
51726SOL     OW57009   9.319  10.164   4.085
51726SOL    HW157010   9.394  10.149   4.143
51726SOL    HW257011   9.260  10.221   4.134
51727SOL     OW57012   2.277   3.651  13.268
51727SOL    HW157013   2.188   3.686  13.255
51727SOL    HW257014   2.263   3.559  13.290
51728SOL     OW57015   8.558  14.515  13.628
51728SOL    HW157016   8.577  14.548  13.541
51728SOL    HW257017   8.463  14.500  13.628
51729SOL     OW57018   4.743  12.222   6.600
51729SOL    HW157019   4.713  12.297   6.652
51729SOL    HW257020   4.776  12.261   6.519
51730SOL     OW57021   7.598   1.973   7.966
51730SOL    HW157022   7.542   1.912   8.014
51730SOL    HW257023   7.556   1.983   7.881
51731SOL     OW57024  12.704   3.049   1.418
51731SOL    HW157025  12.626   3.098   1.444
51731SOL    HW257026  12.733   3.005   1.498
51732SOL     OW57027  12.923   8.250  11.888
51732SOL    HW157028  12.908   8.228  11.796
51732SOL    HW257029  13.004   8.301  11.888
51733SOL     OW57030   1.933   2.923  12.759
51733SOL    HW157031   1.959   2.910  12.668
51733SOL    HW257032   2.014   2.915  12.809
51734SOL     OW57033  12.290  11.358   3.108
51734SOL    HW157034  12.195  11.366   3.119
51734SOL    HW257035  12.306  11.388   3.018
51735SOL     OW57036   3.817  10.883   1.283
51735SOL    HW157037   3.795  10.930   1.202
51735SOL    HW257038   3.879  10.940   1.328
51736SOL     OW57039  14.822  14.846   0.759
51736SOL    HW157040  14.732  14.865   0.787
51736SOL    HW257041  14.862  14.807   0.836
51737SOL     OW57042   5.977   2.131  14.032
51737SOL    HW157043   5.892   2.170  14.053
51737SOL    HW257044   6.026   2.135  14.114
51738SOL     OW57045   4.582   9.275   9.996
51738SOL    HW157046   4.554   9.218   9.925
51738SOL    HW257047   4.667   9.309   9.968
51739SOL     OW57048   0.690   4.656  10.451
51739SOL    HW157049   0.768   4.601  10.454
51739SOL    HW257050   0.626   4.610  10.506
51740SOL     OW57051   1.783   0.393  13.025
51740SOL    HW157052   1.835   0.383  13.105
51740SOL    HW257053   1.819   0.328  12.964
51741SOL     OW57054   0.409   6.010  14.529
51741SOL    HW157055   0.442   6.094  14.562
51741SOL    HW257056   0.487   5.963  14.502
51742SOL     OW57057   4.133   0.674   3.384
51742SOL    HW157058   4.073   0.634   3.321
51742SOL    HW257059   4.077   0.725   3.442
51743SOL     OW57060   6.438  13.538   2.503
51743SOL    HW157061   6.497  13.612   2.493
51743SOL    HW257062   6.470  13.493   2.582
51744SOL     OW57063   8.601   0.077   2.144
51744SOL    HW157064   8.598   0.096   2.238
51744SOL    HW257065   8.510   0.082   2.116
51745SOL     OW57066   4.786  11.116  10.843
51745SOL    HW157067   4.699  11.157  10.842
51745SOL    HW257068   4.787  11.065  10.925
51746SOL     OW57069   6.955   8.137   1.198
51746SOL    HW157070   6.877   8.117   1.251
51746SOL    HW257071   6.933   8.219   1.154
51747SOL     OW57072   7.774   5.537   6.169
51747SOL    HW157073   7.831   5.553   6.094
51747SOL    HW257074   7.782   5.616   6.223
51748SOL     OW57075   5.276   8.844   1.423
51748SOL    HW157076   5.330   8.784   1.474
51748SOL    HW257077   5.331   8.868   1.348
51749SOL     OW57078  14.653   1.202  13.250
51749SOL    HW157079  14.728   1.144  13.263
51749SOL    HW257080  14.595   1.184  13.324
51750SOL     OW57081   5.845   5.567  11.352
51750SOL    HW157082   5.833   5.662  11.350
51750SOL    HW257083   5.756   5.531  11.352
51751SOL     OW57084  13.006  10.168  13.155
51751SOL    HW157085  13.070  10.131  13.094
51751SOL    HW257086  13.024  10.124  13.238
51752SOL     OW57087  14.013   3.211  11.444
51752SOL    HW157088  14.018   3.210  11.540
51752SOL    HW257089  14.101   3.184  11.415
51753SOL     OW57090   0.337  14.287   2.637
51753SOL    HW157091   0.398  14.301   2.564
51753SOL    HW257092   0.355  14.197   2.666
51754SOL     OW57093  13.824  10.270   6.271
51754SOL    HW157094  13.836  10.175   6.276
51754SOL    HW257095  13.779  10.292   6.353
51755SOL     OW57096   3.750   4.671   9.832
51755SOL    HW157097   3.754   4.764   9.855
51755SOL    HW257098   3.719   4.670   9.742
51756SOL     OW57099   0.174   0.252   2.034
51756SOL    HW157100   0.188   0.157   2.032
51756SOL    HW257101   0.170   0.274   2.128
51757SOL     OW57102  11.762   1.779   1.958
51757SOL    HW157103  11.850   1.744   1.945
51757SOL    HW257104  11.711   1.705   1.991
51758SOL     OW57105   8.719   1.527   8.110
51758SOL    HW157106   8.639   1.573   8.085
51758SOL    HW257107   8.691   1.436   8.126
51759SOL     OW57108   5.752   6.293   7.437
51759SOL    HW157109   5.713   6.209   7.414
51759SOL    HW257110   5.710   6.319   7.519
51760SOL     OW57111   3.438   0.105  10.248
51760SOL    HW157112   3.368   0.074  10.306
51760SOL    HW257113   3.395   0.173  10.195
51761SOL     OW57114   0.761   1.079   7.770
51761SOL    HW157115   0.829   1.133   7.809
51761SOL    HW257116   0.808   1.010   7.723
51762SOL     OW57117  13.149   2.722   4.027
51762SOL    HW157118  13.122   2.681   3.945
51762SOL    HW257119  13.104   2.672   4.095
51763SOL     OW57120  13.927   8.803  11.476
51763SOL    HW157121  13.941   8.709  11.478
51763SOL    HW257122  13.893   8.824  11.563
51764SOL     OW57123   5.855   8.735   5.866
51764SOL    HW157124   5.821   8.727   5.777
51764SOL    HW257125   5.923   8.668   5.871
51765SOL     OW57126  14.160  14.333   9.318
51765SOL    HW157127  14.235  14.361   9.370
51765SOL    HW257128  14.086  14.381   9.355
51766SOL     OW57129   4.689  13.986   1.562
51766SOL    HW157130   4.748  14.050   1.522
51766SOL    HW257131   4.618  13.976   1.499
51767SOL     OW57132  10.852  12.110   1.022
51767SOL    HW157133  10.782  12.170   0.997
51767SOL    HW257134  10.851  12.111   1.118
51768SOL     OW57135   9.287  12.441   4.815
51768SOL    HW157136   9.344  12.507   4.854
51768SOL    HW257137   9.338  12.405   4.742
51769SOL     OW57138   7.505   9.687   8.992
51769SOL    HW157139   7.413   9.711   8.982
51769SOL    HW257140   7.547   9.768   9.021
51770SOL     OW57141  14.732   1.932  14.531
51770SOL    HW157142  14.753   1.910  14.441
51770SOL    HW257143  14.704   1.849  14.570
51771SOL     OW57144   6.424  13.960   8.058
51771SOL    HW157145   6.503  13.909   8.039
51771SOL    HW257146   6.377  13.908   8.123
51772SOL     OW57147   0.377  14.004  14.337
51772SOL    HW157148   0.438  14.013  14.264
51772SOL    HW257149   0.371  14.092  14.374
51773SOL     OW57150   0.811  13.305   9.158
51773SOL    HW157151   0.794  13.335   9.247
51773SOL    HW257152   0.848  13.381   9.113
51774SOL     OW57153  11.868   1.826   9.636
51774SOL    HW157154  11.929   1.806   9.707
51774SOL    HW257155  11.923   1.835   9.558
51775SOL     OW57156  14.442   1.347   5.402
51775SOL    HW157157  14.350   1.334   5.425
51775SOL    HW257158  14.463   1.273   5.345
51776SOL     OW57159   8.566   4.238  10.127
51776SOL    HW157160   8.496   4.291  10.091
51776SOL    HW257161   8.535   4.148  10.119
51777SOL     OW57162   9.758   9.940   0.365
51777SOL    HW157163   9.749   9.906   0.276
51777SOL    HW257164   9.847   9.975   0.368
51778SOL     OW57165   3.022  11.807   5.113
51778SOL    HW157166   3.057  11.824   5.201
51778SOL    HW257167   3.044  11.715   5.097
51779SOL     OW57168  11.481   6.445   3.053
51779SOL    HW157169  11.479   6.537   3.025
51779SOL    HW257170  11.426   6.399   2.989
51780SOL     OW57171  12.953  14.117  12.717
51780SOL    HW157172  12.982  14.034  12.754
51780SOL    HW257173  12.994  14.120  12.631
51781SOL     OW57174   2.270   5.269  14.700
51781SOL    HW157175   2.263   5.174  14.699
51781SOL    HW257176   2.221   5.296  14.777
51782SOL     OW57177  12.835  12.496   8.395
51782SOL    HW157178  12.775  12.500   8.321
51782SOL    HW257179  12.868  12.406   8.394
51783SOL     OW57180   5.823  10.038   2.467
51783SOL    HW157181   5.885   9.970   2.495
51783SOL    HW257182   5.743  10.019   2.517
51784SOL     OW57183  12.630  12.829  13.611
51784SOL    HW157184  12.578  12.857  13.536
51784SOL    HW257185  12.569  12.779  13.665
51785SOL     OW57186  14.536   7.776   7.521
51785SOL    HW157187  14.492   7.860   7.506
51785SOL    HW257188  14.621   7.786   7.477
51786SOL     OW57189   8.651  14.832   0.723
51786SOL    HW157190   8.630   0.049   0.751
51786SOL    HW257191   8.720  14.803   0.783
51787SOL     OW57192   6.628   2.927   1.605
51787SOL    HW157193   6.718   2.921   1.572
51787SOL    HW257194   6.589   2.843   1.583
51788SOL     OW57195   0.571   0.912   6.875
51788SOL    HW157196   0.541   0.932   6.964
51788SOL    HW257197   0.607   0.824   6.880
51789SOL     OW57198   6.055   4.821   9.603
51789SOL    HW157199   6.049   4.725   9.597
51789SOL    HW257200   6.017   4.853   9.521
51790SOL     OW57201   8.082  13.464   2.060
51790SOL    HW157202   8.068  13.471   2.155
51790SOL    HW257203   8.013  13.404   2.031
51791SOL     OW57204   4.789   5.943   9.612
51791SOL    HW157205   4.793   5.904   9.699
51791SOL    HW257206   4.743   6.026   9.624
51792SOL     OW57207   2.375  13.452   9.155
51792SOL    HW157208   2.355  13.545   9.163
51792SOL    HW257209   2.326  13.423   9.078
51793SOL     OW57210   7.518   5.555   0.280
51793SOL    HW157211   7.596   5.601   0.312
51793SOL    HW257212   7.451   5.622   0.276
51794SOL     OW57213  12.568   2.477  11.172
51794SOL    HW157214  12.627   2.506  11.102
51794SOL    HW257215  12.610   2.506  11.253
51795SOL     OW57216   4.706   4.019   0.767
51795SOL    HW157217   4.782   4.069   0.796
51795SOL    HW257218   4.690   4.050   0.677
51796SOL     OW57219   7.923   0.783   0.997
51796SOL    HW157220   7.893   0.837   1.070
51796SOL    HW257221   7.867   0.705   1.001
51797SOL     OW57222   7.156  12.153  10.166
51797SOL    HW157223   7.121  12.066  10.184
51797SOL    HW257224   7.125  12.207  10.240
51798SOL     OW57225   9.121   7.155  10.628
51798SOL    HW157226   9.185   7.223  10.604
51798SOL    HW257227   9.074   7.191  10.702
51799SOL     OW57228   0.556   7.923   0.193
51799SOL    HW157229   0.627   7.941   0.132
51799SOL    HW257230   0.592   7.859   0.254
51800SOL     OW57231   1.706   5.010   3.175
51800SOL    HW157232   1.652   5.068   3.121
51800SOL    HW257233   1.741   4.946   3.113
51801SOL     OW57234   7.502  11.310   0.013
51801SOL    HW157235   7.519  11.221   0.046
51801SOL    HW257236   7.442  11.348   0.078
51802SOL     OW57237  12.414  13.005   9.908
51802SOL    HW157238  12.333  13.055   9.896
51802SOL    HW257239  12.386  12.913   9.903
51803SOL     OW57240   0.345   3.143   7.645
51803SOL    HW157241   0.395   3.137   7.563
51803SOL    HW257242   0.291   3.064   7.646
51804SOL     OW57243   0.185   7.839   1.286
51804SOL    HW157244   0.115   7.784   1.252
51804SOL    HW257245   0.181   7.828   1.381
51805SOL     OW57246   6.594  10.736  12.029
51805SOL    HW157247   6.592  10.813  12.086
51805SOL    HW257248   6.534  10.674  12.070
51806SOL     OW57249   2.869  13.718   4.371
51806SOL    HW157250   2.852  13.625   4.355
51806SOL    HW257251   2.836  13.735   4.458
51807SOL     OW57252   9.695   1.967   3.911
51807SOL    HW157253   9.781   1.965   3.953
51807SOL    HW257254   9.645   2.030   3.963
51808SOL     OW57255  14.158  12.744   9.403
51808SOL    HW157256  14.252  12.765   9.400
51808SOL    HW257257  14.124  12.773   9.318
51809SOL     OW57258  12.081   8.167   3.358
51809SOL    HW157259  12.157   8.138   3.308
51809SOL    HW257260  12.059   8.253   3.321
51810SOL     OW57261  12.259  12.203  13.786
51810SOL    HW157262  12.339  12.169  13.826
51810SOL    HW257263  12.206  12.234  13.859
51811SOL     OW57264  12.669   5.488  13.903
51811SOL    HW157265  12.648   5.531  13.819
51811SOL    HW257266  12.606   5.525  13.965
51812SOL     OW57267  12.265  12.711  11.251
51812SOL    HW157268  12.280  12.803  11.274
51812SOL    HW257269  12.199  12.681  11.314
51813SOL     OW57270  11.871   6.994   9.925
51813SOL    HW157271  11.853   6.912   9.969
51813SOL    HW257272  11.789   7.018   9.882
51814SOL     OW57273   2.845  13.327  10.679
51814SOL    HW157274   2.934  13.333  10.711
51814SOL    HW257275   2.799  13.276  10.745
51815SOL     OW57276  13.820   3.320   0.616
51815SOL    HW157277  13.853   3.352   0.532
51815SOL    HW257278  13.858   3.379   0.681
51816SOL     OW57279   5.672  11.007  13.242
51816SOL    HW157280   5.753  10.992  13.291
51816SOL    HW257281   5.689  10.968  13.156
51817SOL     OW57282   5.253   9.022   8.218
51817SOL    HW157283   5.189   8.952   8.224
51817SOL    HW257284   5.337   8.981   8.241
51818SOL     OW57285   7.784   6.013   7.282
51818SOL    HW157286   7.785   6.061   7.199
51818SOL    HW257287   7.745   6.074   7.345
51819SOL     OW57288   5.384  13.474   6.133
51819SOL    HW157289   5.353  13.483   6.043
51819SOL    HW257290   5.308  13.444   6.182
51820SOL     OW57291   6.166   9.298   7.425
51820SOL    HW157292   6.235   9.256   7.373
51820SOL    HW257293   6.132   9.367   7.368
51821SOL     OW57294   3.391   1.643   4.314
51821SOL    HW157295   3.478   1.614   4.285
51821SOL    HW257296   3.341   1.562   4.324
51822SOL     OW57297   3.439   5.908  11.836
51822SOL    HW157298   3.360   5.856  11.823
51822SOL    HW257299   3.445   5.920  11.930
51823SOL     OW57300   8.018  11.087   5.365
51823SOL    HW157301   7.954  11.095   5.295
51823SOL    HW257302   7.996  11.005   5.409
51824SOL     OW57303   0.609  12.151   2.948
51824SOL    HW157304   0.556  12.071   2.941
51824SOL    HW257305   0.631  12.173   2.857
51825SOL     OW57306  12.186   0.698   1.954
51825SOL    HW157307  12.229   0.702   2.039
51825SOL    HW257308  12.248   0.652   1.897
51826SOL     OW57309  11.314  14.325   0.650
51826SOL    HW157310  11.296  14.267   0.576
51826SOL    HW257311  11.237  14.316   0.706
51827SOL     OW57312   1.364  13.808   8.747
51827SOL    HW157313   1.455  13.789   8.769
51827SOL    HW257314   1.355  13.781   8.656
51828SOL     OW57315   0.889   2.971   0.758
51828SOL    HW157316   0.935   3.052   0.735
51828SOL    HW257317   0.814   2.968   0.698
51829SOL     OW57318   3.586  10.891   0.492
51829SOL    HW157319   3.506  10.942   0.479
51829SOL    HW257320   3.633  10.937   0.561
51830SOL     OW57321   5.820   5.405   8.406
51830SOL    HW157322   5.862   5.335   8.356
51830SOL    HW257323   5.789   5.466   8.339
51831SOL     OW57324   5.349  11.252  10.061
51831SOL    HW157325   5.311  11.317  10.120
51831SOL    HW257326   5.351  11.171  10.112
51832SOL     OW57327   6.897   8.421   4.109
51832SOL    HW157328   6.943   8.472   4.176
51832SOL    HW257329   6.929   8.455   4.026
51833SOL     OW57330   0.229   1.165   1.488
51833SOL    HW157331   0.171   1.168   1.412
51833SOL    HW257332   0.268   1.077   1.484
51834SOL     OW57333  11.434   3.519  10.883
51834SOL    HW157334  11.385   3.493  10.961
51834SOL    HW257335  11.391   3.473  10.811
51835SOL     OW57336   3.312  14.757   2.140
51835SOL    HW157337   3.286  14.843   2.108
51835SOL    HW257338   3.251  14.696   2.099
51836SOL     OW57339   1.005   1.388  12.062
51836SOL    HW157340   0.917   1.378  12.098
51836SOL    HW257341   1.027   1.300  12.029
51837SOL     OW57342  11.879   8.184   5.486
51837SOL    HW157343  11.802   8.238   5.507
51837SOL    HW257344  11.843   8.107   5.442
51838SOL     OW57345  12.903  13.514   4.232
51838SOL    HW157346  12.824  13.465   4.210
51838SOL    HW257347  12.958  13.507   4.154
51839SOL     OW57348  11.053   2.762  10.105
51839SOL    HW157349  11.078   2.854  10.106
51839SOL    HW257350  10.964   2.761  10.070
51840SOL     OW57351  13.359   0.281   3.819
51840SOL    HW157352  13.287   0.342   3.807
51840SOL    HW257353  13.319   0.195   3.812
51841SOL     OW57354   2.417  11.721   6.582
51841SOL    HW157355   2.350  11.705   6.648
51841SOL    HW257356   2.477  11.784   6.622
51842SOL     OW57357  11.171   9.220  11.091
51842SOL    HW157358  11.189   9.136  11.050
51842SOL    HW257359  11.136   9.274  11.020
51843SOL     OW57360   6.493   6.897   0.674
51843SOL    HW157361   6.538   6.940   0.747
51843SOL    HW257362   6.516   6.805   0.683
51844SOL     OW57363  14.496  14.004  13.377
51844SOL    HW157364  14.471  13.937  13.312
51844SOL    HW257365  14.522  13.953  13.454
51845SOL     OW57366   1.830   0.547  10.248
51845SOL    HW157367   1.744   0.504  10.243
51845SOL    HW257368   1.827   0.598  10.329
51846SOL     OW57369  10.939  14.672   7.232
51846SOL    HW157370  10.965  14.657   7.141
51846SOL    HW257371  10.920  14.584   7.266
51847SOL     OW57372   5.355  10.158   9.517
51847SOL    HW157373   5.319  10.246   9.518
51847SOL    HW257374   5.333  10.123   9.430
51848SOL     OW57375   7.296   6.378  10.971
51848SOL    HW157376   7.294   6.414  11.060
51848SOL    HW257377   7.215   6.409  10.931
51849SOL     OW57378   1.519   8.407   3.398
51849SOL    HW157379   1.529   8.484   3.342
51849SOL    HW257380   1.596   8.353   3.379
51850SOL     OW57381   9.649   9.066  13.794
51850SOL    HW157382   9.643   8.976  13.761
51850SOL    HW257383   9.598   9.118  13.732
51851SOL     OW57384  10.721   3.887   2.904
51851SOL    HW157385  10.680   3.952   2.847
51851SOL    HW257386  10.748   3.817   2.844
51852SOL     OW57387   9.645   8.989  11.371
51852SOL    HW157388   9.607   8.904  11.393
51852SOL    HW257389   9.708   8.971  11.301
51853SOL     OW57390   8.955   3.498   3.132
51853SOL    HW157391   8.888   3.500   3.201
51853SOL    HW257392   8.997   3.584   3.136
51854SOL     OW57393   4.217   4.993  14.324
51854SOL    HW157394   4.191   5.056  14.257
51854SOL    HW257395   4.250   5.047  14.396
51855SOL     OW57396  12.220   1.489  10.601
51855SOL    HW157397  12.166   1.485  10.522
51855SOL    HW257398  12.283   1.417  10.591
51856SOL     OW57399  10.864   9.469   4.565
51856SOL    HW157400  10.902   9.414   4.497
51856SOL    HW257401  10.935   9.530   4.588
51857SOL     OW57402   0.393   1.964   7.442
51857SOL    HW157403   0.397   1.920   7.526
51857SOL    HW257404   0.311   1.934   7.402
51858SOL     OW57405   4.570   5.253   2.621
51858SOL    HW157406   4.556   5.242   2.527
51858SOL    HW257407   4.653   5.209   2.639
51859SOL     OW57408   8.415   1.334  11.447
51859SOL    HW157409   8.417   1.294  11.360
51859SOL    HW257410   8.322   1.343  11.467
51860SOL     OW57411  11.930   5.989   0.672
51860SOL    HW157412  12.008   6.027   0.712
51860SOL    HW257413  11.915   6.043   0.594
51861SOL     OW57414   5.980   0.091   5.799
51861SOL    HW157415   6.060   0.046   5.825
51861SOL    HW257416   6.010   0.170   5.755
51862SOL     OW57417   0.474   1.231   9.460
51862SOL    HW157418   0.513   1.253   9.544
51862SOL    HW257419   0.534   1.168   9.420
51863SOL     OW57420  11.977   0.218   3.344
51863SOL    HW157421  11.949   0.307   3.322
51863SOL    HW257422  12.030   0.228   3.422
51864SOL     OW57423  13.901  10.000   0.612
51864SOL    HW157424  13.885  10.089   0.643
51864SOL    HW257425  13.830   9.948   0.648
51865SOL     OW57426  12.137   8.704  14.367
51865SOL    HW157427  12.193   8.742  14.434
51865SOL    HW257428  12.066   8.661  14.415
51866SOL     OW57429   3.378   7.368  12.103
51866SOL    HW157430   3.377   7.463  12.095
51866SOL    HW257431   3.364   7.336  12.014
51867SOL     OW57432   5.055  13.463   2.515
51867SOL    HW157433   5.038  13.448   2.422
51867SOL    HW257434   5.150  13.472   2.521
51868SOL     OW57435   1.809   0.910  14.055
51868SOL    HW157436   1.728   0.878  14.014
51868SOL    HW257437   1.878   0.858  14.014
51869SOL     OW57438   8.809   8.714   6.814
51869SOL    HW157439   8.846   8.749   6.895
51869SOL    HW257440   8.737   8.659   6.842
51870SOL     OW57441   2.532   7.051   0.555
51870SOL    HW157442   2.489   7.080   0.474
51870SOL    HW257443   2.460   7.040   0.617
51871SOL     OW57444   6.879   7.363  12.213
51871SOL    HW157445   6.819   7.424  12.257
51871SOL    HW257446   6.932   7.326  12.284
51872SOL     OW57447  10.879   1.386  14.478
51872SOL    HW157448  10.804   1.440  14.499
51872SOL    HW257449  10.879   1.380  14.382
51873SOL     OW57450  13.316   0.856   1.158
51873SOL    HW157451  13.371   0.836   1.233
51873SOL    HW257452  13.340   0.945   1.133
51874SOL     OW57453  14.148   4.699  10.752
51874SOL    HW157454  14.146   4.667  10.662
51874SOL    HW257455  14.105   4.630  10.802
51875SOL     OW57456   9.552   8.702   1.134
51875SOL    HW157457   9.607   8.649   1.075
51875SOL    HW257458   9.612   8.729   1.203
51876SOL     OW57459  11.558   8.346  14.370
51876SOL    HW157460  11.620   8.307  14.432
51876SOL    HW257461  11.592   8.434  14.354
51877SOL     OW57462   0.402   0.476  12.252
51877SOL    HW157463   0.357   0.557  12.274
51877SOL    HW257464   0.403   0.475  12.156
51878SOL     OW57465   4.009   9.604   6.461
51878SOL    HW157466   3.959   9.668   6.409
51878SOL    HW257467   4.031   9.650   6.541
51879SOL     OW57468   9.574   7.258   4.036
51879SOL    HW157469   9.496   7.203   4.038
51879SOL    HW257470   9.553   7.327   3.972
51880SOL     OW57471  14.155   7.370   1.122
51880SOL    HW157472  14.065   7.348   1.097
51880SOL    HW257473  14.166   7.462   1.099
51881SOL     OW57474   8.041   6.761   7.262
51881SOL    HW157475   8.024   6.669   7.281
51881SOL    HW257476   8.084   6.760   7.176
51882SOL     OW57477  13.250  11.159  10.302
51882SOL    HW157478  13.218  11.248  10.288
51882SOL    HW257479  13.345  11.166  10.302
51883SOL     OW57480   1.620   8.941   5.009
51883SOL    HW157481   1.676   9.011   4.975
51883SOL    HW257482   1.657   8.921   5.095
51884SOL     OW57483   8.969   8.790   9.274
51884SOL    HW157484   8.951   8.822   9.363
51884SOL    HW257485   9.025   8.856   9.235
51885SOL     OW57486   1.940   6.159   3.129
51885SOL    HW157487   1.981   6.073   3.142
51885SOL    HW257488   2.012   6.221   3.133
51886SOL     OW57489  12.600   5.196   4.010
51886SOL    HW157490  12.681   5.183   4.058
51886SOL    HW257491  12.561   5.275   4.048
51887SOL     OW57492  12.711   4.709   4.433
51887SOL    HW157493  12.775   4.672   4.372
51887SOL    HW257494  12.694   4.640   4.496
51888SOL     OW57495   8.893   1.284   4.327
51888SOL    HW157496   8.928   1.373   4.321
51888SOL    HW257497   8.952   1.230   4.275
51889SOL     OW57498   0.467  11.610   6.875
51889SOL    HW157499   0.423  11.543   6.927
51889SOL    HW257500   0.396  11.655   6.829
51890SOL     OW57501   1.110   8.152   7.768
51890SOL    HW157502   1.189   8.098   7.767
51890SOL    HW257503   1.142   8.242   7.757
51891SOL     OW57504  11.068   3.836   0.587
51891SOL    HW157505  10.980   3.868   0.566
51891SOL    HW257506  11.086   3.872   0.674
51892SOL     OW57507  13.397   7.209   6.026
51892SOL    HW157508  13.436   7.273   6.087
51892SOL    HW257509  13.357   7.263   5.958
51893SOL     OW57510   9.375  13.528  14.749
51893SOL    HW157511   9.415  13.576  14.821
51893SOL    HW257512   9.441  13.528  14.680
51894SOL     OW57513  13.871   9.313   6.751
51894SOL    HW157514  13.842   9.302   6.841
51894SOL    HW257515  13.848   9.403   6.729
51895SOL     OW57516   6.834  14.381   1.034
51895SOL    HW157517   6.793  14.297   1.055
51895SOL    HW257518   6.794  14.443   1.095
51896SOL     OW57519  14.868  14.598  14.751
51896SOL    HW157520   0.086  14.606  14.720
51896SOL    HW257521  14.849  14.683  14.792
51897SOL     OW57522   0.580   3.459   8.197
51897SOL    HW157523   0.499   3.487   8.156
51897SOL    HW257524   0.555   3.387   8.255
51898SOL     OW57525   1.717   1.021  14.284
51898SOL    HW157526   1.783   1.089  14.295
51898SOL    HW257527   1.750   0.967  14.211
51899SOL     OW57528   9.317  12.771   8.240
51899SOL    HW157529   9.238  12.784   8.293
51899SOL    HW257530   9.346  12.860   8.219
51900SOL     OW57531   6.681   9.705  13.830
51900SOL    HW157532   6.720   9.652  13.900
51900SOL    HW257533   6.598   9.661  13.812
51901SOL     OW57534   7.028   5.094  12.738
51901SOL    HW157535   7.085   5.075  12.664
51901SOL    HW257536   7.059   5.037  12.808
51902SOL     OW57537   9.861   3.721  12.005
51902SOL    HW157538   9.883   3.813  12.021
51902SOL    HW257539   9.945   3.677  11.999
51903SOL     OW57540   8.708   4.101   2.985
51903SOL    HW157541   8.684   4.183   3.028
51903SOL    HW257542   8.731   4.126   2.896
51904SOL     OW57543  14.021   4.602  11.091
51904SOL    HW157544  14.099   4.611  11.147
51904SOL    HW257545  13.953   4.569  11.150
51905SOL     OW57546   0.104   0.995  14.094
51905SOL    HW157547   0.069   0.979  14.182
51905SOL    HW257548   0.046   1.062  14.057
51906SOL     OW57549   7.686  10.619   0.201
51906SOL    HW157550   7.774  10.594   0.174
51906SOL    HW257551   7.630  10.590   0.130
51907SOL     OW57552   6.205   8.450  10.897
51907SOL    HW157553   6.293   8.415  10.881
51907SOL    HW257554   6.173   8.398  10.972
51908SOL     OW57555   6.199   5.985   3.792
51908SOL    HW157556   6.163   5.899   3.773
51908SOL    HW257557   6.192   6.033   3.710
51909SOL     OW57558  13.508   4.957   9.388
51909SOL    HW157559  13.475   4.959   9.298
51909SOL    HW257560  13.592   4.913   9.382
51910SOL     OW57561   2.894  14.746   2.980
51910SOL    HW157562   2.953  14.729   2.906
51910SOL    HW257563   2.943  14.806   3.036
51911SOL     OW57564   6.691  14.238  12.688
51911SOL    HW157565   6.606  14.266  12.722
51911SOL    HW257566   6.674  14.210  12.598
51912SOL     OW57567   5.912   4.028  14.667
51912SOL    HW157568   5.879   3.945  14.701
51912SOL    HW257569   5.938   4.078  14.744
51913SOL     OW57570   1.963  13.050   3.282
51913SOL    HW157571   1.952  12.957   3.301
51913SOL    HW257572   2.057  13.061   3.266
51914SOL     OW57573  13.801  12.856  11.557
51914SOL    HW157574  13.862  12.917  11.515
51914SOL    HW257575  13.822  12.863  11.651
51915SOL     OW57576   8.666   0.467   2.326
51915SOL    HW157577   8.759   0.489   2.332
51915SOL    HW257578   8.621   0.551   2.324
51916SOL     OW57579   1.213   3.376   8.685
51916SOL    HW157580   1.136   3.433   8.687
51916SOL    HW257581   1.285   3.434   8.662
51917SOL     OW57582   5.495   0.720  10.497
51917SOL    HW157583   5.580   0.748  10.465
51917SOL    HW257584   5.434   0.744  10.427
51918SOL     OW57585   9.821  13.329  13.923
51918SOL    HW157586   9.739  13.311  13.876
51918SOL    HW257587   9.882  13.263  13.890
51919SOL     OW57588  13.116   0.890  10.540
51919SOL    HW157589  13.079   0.863  10.624
51919SOL    HW257590  13.070   0.971  10.519
51920SOL     OW57591   0.137   5.307   5.401
51920SOL    HW157592   0.065   5.284   5.343
51920SOL    HW257593   0.104   5.289   5.489
51921SOL     OW57594   7.487   3.711  11.260
51921SOL    HW157595   7.415   3.674  11.311
51921SOL    HW257596   7.566   3.672  11.298
51922SOL     OW57597   3.062   4.399  14.295
51922SOL    HW157598   3.019   4.320  14.328
51922SOL    HW257599   3.011   4.471  14.331
51923SOL     OW57600   3.721   1.699   4.294
51923SOL    HW157601   3.680   1.748   4.223
51923SOL    HW257602   3.728   1.762   4.366
51924SOL     OW57603   8.448  11.806   8.337
51924SOL    HW157604   8.528  11.844   8.301
51924SOL    HW257605   8.437  11.850   8.421
51925SOL     OW57606  13.622  14.402   3.638
51925SOL    HW157607  13.626  14.324   3.692
51925SOL    HW257608  13.553  14.383   3.574
51926SOL     OW57609   8.632  13.177   7.141
51926SOL    HW157610   8.715  13.142   7.110
51926SOL    HW257611   8.567  13.149   7.076
51927SOL     OW57612   1.877  10.412   2.627
51927SOL    HW157613   1.798  10.463   2.644
51927SOL    HW257614   1.949  10.474   2.641
51928SOL     OW57615  11.393  11.197   7.440
51928SOL    HW157616  11.487  11.208   7.426
51928SOL    HW257617  11.354  11.277   7.404
51929SOL     OW57618  12.086  13.187   2.477
51929SOL    HW157619  12.040  13.106   2.456
51929SOL    HW257620  12.083  13.192   2.573
51930SOL     OW57621  12.421  12.501  10.581
51930SOL    HW157622  12.418  12.596  10.575
51930SOL    HW257623  12.450  12.472  10.494
51931SOL     OW57624   0.315   3.523   8.157
51931SOL    HW157625   0.234   3.494   8.199
51931SOL    HW257626   0.313   3.618   8.165
51932SOL     OW57627   1.291   4.205   6.161
51932SOL    HW157628   1.366   4.190   6.104
51932SOL    HW257629   1.283   4.300   6.165
51933SOL     OW57630   3.893  11.090  11.583
51933SOL    HW157631   3.869  11.018  11.642
51933SOL    HW257632   3.819  11.096  11.522
51934SOL     OW57633   0.599  12.613   0.193
51934SOL    HW157634   0.557  12.687   0.148
51934SOL    HW257635   0.643  12.564   0.123
51935SOL     OW57636   9.863   0.843   1.330
51935SOL    HW157637   9.958   0.842   1.336
51935SOL    HW257638   9.835   0.913   1.388
51936SOL     OW57639   0.261   7.654  12.687
51936SOL    HW157640   0.309   7.626  12.764
51936SOL    HW257641   0.176   7.682  12.720
51937SOL     OW57642  10.060   8.458  11.087
51937SOL    HW157643  10.119   8.497  11.024
51937SOL    HW257644  10.015   8.388  11.039
51938SOL     OW57645   4.872   6.646   4.809
51938SOL    HW157646   4.964   6.623   4.822
51938SOL    HW257647   4.846   6.597   4.731
51939SOL     OW57648  11.733  13.279   9.495
51939SOL    HW157649  11.776  13.310   9.416
51939SOL    HW257650  11.646  13.319   9.493
51940SOL     OW57651  10.608   9.414   4.565
51940SOL    HW157652  10.610   9.414   4.469
51940SOL    HW257653  10.699   9.425   4.591
51941SOL     OW57654   4.857   4.427   5.323
51941SOL    HW157655   4.834   4.516   5.350
51941SOL    HW257656   4.804   4.370   5.378
51942SOL     OW57657   1.694  10.355   3.751
51942SOL    HW157658   1.642  10.412   3.809
51942SOL    HW257659   1.633  10.329   3.683
51943SOL     OW57660  14.143  11.145   7.686
51943SOL    HW157661  14.176  11.122   7.773
51943SOL    HW257662  14.066  11.089   7.675
51944SOL     OW57663  11.512   8.967   4.763
51944SOL    HW157664  11.468   8.911   4.828
51944SOL    HW257665  11.487   8.929   4.679
51945SOL     OW57666   4.228   4.856   5.636
51945SOL    HW157667   4.204   4.948   5.653
51945SOL    HW257668   4.258   4.823   5.721
51946SOL     OW57669   8.710   8.848   4.920
51946SOL    HW157670   8.652   8.780   4.886
51946SOL    HW257671   8.654   8.926   4.924
51947SOL     OW57672   9.496   6.411   6.488
51947SOL    HW157673   9.431   6.347   6.518
51947SOL    HW257674   9.505   6.472   6.562
51948SOL     OW57675   9.405  13.549  11.667
51948SOL    HW157676   9.322  13.574  11.624
51948SOL    HW257677   9.387  13.464  11.707
51949SOL     OW57678   5.427  14.493   6.656
51949SOL    HW157679   5.369  14.501   6.732
51949SOL    HW257680   5.422  14.400   6.633
51950SOL     OW57681   9.833   7.558  14.565
51950SOL    HW157682   9.894   7.559  14.639
51950SOL    HW257683   9.831   7.467  14.537
51951SOL     OW57684   5.808   4.759   6.414
51951SOL    HW157685   5.808   4.801   6.327
51951SOL    HW257686   5.881   4.697   6.410
51952SOL     OW57687  13.629   0.623   2.480
51952SOL    HW157688  13.543   0.592   2.454
51952SOL    HW257689  13.635   0.711   2.443
51953SOL     OW57690   7.357   8.429  10.215
51953SOL    HW157691   7.337   8.522  10.206
51953SOL    HW257692   7.339   8.392  10.129
51954SOL     OW57693  12.139   6.722  10.448
51954SOL    HW157694  12.215   6.663  10.444
51954SOL    HW257695  12.064   6.666  10.433
51955SOL     OW57696   1.374   0.430   2.457
51955SOL    HW157697   1.380   0.499   2.391
51955SOL    HW257698   1.298   0.454   2.510
51956SOL     OW57699  14.129   6.149   5.935
51956SOL    HW157700  14.059   6.099   5.976
51956SOL    HW257701  14.178   6.186   6.009
51957SOL     OW57702   2.551  14.141  10.813
51957SOL    HW157703   2.561  14.230  10.780
51957SOL    HW257704   2.541  14.152  10.908
51958SOL     OW57705  10.830  13.782   3.498
51958SOL    HW157706  10.818  13.689   3.481
51958SOL    HW257707  10.919  13.789   3.532
51959SOL     OW57708   4.289  12.788   8.492
51959SOL    HW157709   4.335  12.850   8.548
51959SOL    HW257710   4.357  12.751   8.436
51960SOL     OW57711   7.628   3.483   0.778
51960SOL    HW157712   7.618   3.494   0.872
51960SOL    HW257713   7.538   3.479   0.745
51961SOL     OW57714   1.937  13.371   6.208
51961SOL    HW157715   1.980  13.293   6.174
51961SOL    HW257716   1.898  13.342   6.291
51962SOL     OW57717   5.413  10.776  14.235
51962SOL    HW157718   5.405  10.715  14.162
51962SOL    HW257719   5.421  10.862  14.195
51963SOL     OW57720   9.347   6.510   6.289
51963SOL    HW157721   9.260   6.479   6.314
51963SOL    HW257722   9.403   6.485   6.363
51964SOL     OW57723   9.363   6.890   1.877
51964SOL    HW157724   9.290   6.941   1.841
51964SOL    HW257725   9.388   6.830   1.807
51965SOL     OW57726  13.906   5.725   8.109
51965SOL    HW157727  13.863   5.811   8.109
51965SOL    HW257728  13.893   5.692   8.020
51966SOL     OW57729   0.077   9.263   2.960
51966SOL    HW157730   0.159   9.306   2.937
51966SOL    HW257731   0.013   9.334   2.961
51967SOL     OW57732   3.853   3.075  13.990
51967SOL    HW157733   3.825   3.061  14.081
51967SOL    HW257734   3.943   3.105  13.997
51968SOL     OW57735   0.871   3.691   8.473
51968SOL    HW157736   0.830   3.698   8.559
51968SOL    HW257737   0.798   3.704   8.411
51969SOL     OW57738   3.335  12.626   2.457
51969SOL    HW157739   3.375  12.605   2.541
51969SOL    HW257740   3.367  12.714   2.436
51970SOL     OW57741   1.719   1.891   9.684
51970SOL    HW157742   1.739   1.932   9.768
51970SOL    HW257743   1.644   1.941   9.650
51971SOL     OW57744  13.616   2.112   8.049
51971SOL    HW157745  13.524   2.135   8.064
51971SOL    HW257746  13.619   2.017   8.060
51972SOL     OW57747   7.798  11.485   2.614
51972SOL    HW157748   7.836  11.508   2.529
51972SOL    HW257749   7.787  11.569   2.658
51973SOL     OW57750   2.196  14.216   3.837
51973SOL    HW157751   2.131  14.172   3.892
51973SOL    HW257752   2.191  14.171   3.753
51974SOL     OW57753   7.585   4.890   7.208
51974SOL    HW157754   7.606   4.804   7.244
51974SOL    HW257755   7.495   4.882   7.177
51975SOL     OW57756  10.096   8.463   4.823
51975SOL    HW157757  10.109   8.557   4.829
51975SOL    HW257758  10.180   8.425   4.849
51976SOL     OW57759   6.857  13.005   9.610
51976SOL    HW157760   6.773  13.039   9.581
51976SOL    HW257761   6.904  13.082   9.643
51977SOL     OW57762   7.421   5.084   7.979
51977SOL    HW157763   7.429   5.129   7.895
51977SOL    HW257764   7.328   5.060   7.985
51978SOL     OW57765   9.781  10.015   5.983
51978SOL    HW157766   9.793   9.951   5.913
51978SOL    HW257767   9.791   9.965   6.064
51979SOL     OW57768  12.369   5.707   9.367
51979SOL    HW157769  12.388   5.724   9.274
51979SOL    HW257770  12.287   5.754   9.384
51980SOL     OW57771   8.015   1.307  11.012
51980SOL    HW157772   8.008   1.256  10.931
51980SOL    HW257773   8.108   1.325  11.021
51981SOL     OW57774  11.199   8.568   0.845
51981SOL    HW157775  11.193   8.661   0.821
51981SOL    HW257776  11.174   8.565   0.937
51982SOL     OW57777   8.577  14.057   0.130
51982SOL    HW157778   8.577  13.992   0.201
51982SOL    HW257779   8.488  14.092   0.130
51983SOL     OW57780   3.787   1.873   4.470
51983SOL    HW157781   3.753   1.959   4.495
51983SOL    HW257782   3.868   1.863   4.520
51984SOL     OW57783   2.071   3.630   6.619
51984SOL    HW157784   2.156   3.647   6.577
51984SOL    HW257785   2.040   3.549   6.577
51985SOL     OW57786   6.283  10.418   4.609
51985SOL    HW157787   6.303  10.327   4.630
51985SOL    HW257788   6.369  10.459   4.598
51986SOL     OW57789   8.608   2.474   5.027
51986SOL    HW157790   8.543   2.405   5.041
51986SOL    HW257791   8.657   2.446   4.950
51987SOL     OW57792  12.821  12.005   2.762
51987SOL    HW157793  12.780  11.970   2.842
51987SOL    HW257794  12.876  12.077   2.793
51988SOL     OW57795   8.639  13.909   6.856
51988SOL    HW157796   8.723  13.954   6.843
51988SOL    HW257797   8.662  13.816   6.858
51989SOL     OW57798   5.078  11.525   1.110
51989SOL    HW157799   4.986  11.553   1.113
51989SOL    HW257800   5.105  11.521   1.201
51990SOL     OW57801   4.493  10.507   2.549
51990SOL    HW157802   4.453  10.450   2.614
51990SOL    HW257803   4.448  10.591   2.560
51991SOL     OW57804   5.344  11.871   1.273
51991SOL    HW157805   5.390  11.790   1.296
51991SOL    HW257806   5.381  11.897   1.188
51992SOL     OW57807  11.445   2.300  10.378
51992SOL    HW157808  11.382   2.367  10.352
51992SOL    HW257809  11.527   2.348  10.389
51993SOL     OW57810   5.266   6.069   2.499
51993SOL    HW157811   5.239   6.142   2.444
51993SOL    HW257812   5.206   5.998   2.475
51994SOL     OW57813   1.827   5.205   4.359
51994SOL    HW157814   1.864   5.118   4.376
51994SOL    HW257815   1.735   5.187   4.339
51995SOL     OW57816   4.714  14.372   5.089
51995SOL    HW157817   4.803  14.384   5.122
51995SOL    HW257818   4.669  14.453   5.110
51996SOL     OW57819   3.787   1.932   2.409
51996SOL    HW157820   3.736   1.894   2.481
51996SOL    HW257821   3.821   1.857   2.361
51997SOL     OW57822  12.304  13.679   4.353
51997SOL    HW157823  12.211  13.670   4.374
51997SOL    HW257824  12.311  13.657   4.260
51998SOL     OW57825   8.285  12.570   8.531
51998SOL    HW157826   8.209  12.578   8.589
51998SOL    HW257827   8.360  12.586   8.587
51999SOL     OW57828  14.056   4.575  13.276
51999SOL    HW157829  14.031   4.666  13.293
51999SOL    HW257830  13.987   4.541  13.219
52000SOL     OW57831   9.784   6.668   7.299
52000SOL    HW157832   9.761   6.578   7.322
52000SOL    HW257833   9.829   6.660   7.215
52001SOL     OW57834  13.539  11.273   4.510
52001SOL    HW157835  13.490  11.355   4.508
52001SOL    HW257836  13.625  11.298   4.545
52002SOL     OW57837   7.711  12.631   1.900
52002SOL    HW157838   7.651  12.576   1.850
52002SOL    HW257839   7.657  12.704   1.930
52003SOL     OW57840   2.698  12.855   1.713
52003SOL    HW157841   2.784  12.840   1.676
52003SOL    HW257842   2.639  12.859   1.638
52004SOL     OW57843   4.427   1.303  13.049
52004SOL    HW157844   4.463   1.356  12.977
52004SOL    HW257845   4.335   1.290  13.026
52005SOL     OW57846   0.702  13.525   6.626
52005SOL    HW157847   0.719  13.457   6.562
52005SOL    HW257848   0.688  13.478   6.708
52006SOL     OW57849   8.097   9.470   5.983
52006SOL    HW157850   8.179   9.427   5.961
52006SOL    HW257851   8.101   9.484   6.077
52007SOL     OW57852  11.213   0.924  10.501
52007SOL    HW157853  11.218   0.829  10.495
52007SOL    HW257854  11.214   0.943  10.595
52008SOL     OW57855   4.714   4.396   6.996
52008SOL    HW157856   4.800   4.423   6.963
52008SOL    HW257857   4.666   4.478   7.009
52009SOL     OW57858   5.891   9.095   4.300
52009SOL    HW157859   5.963   9.126   4.354
52009SOL    HW257860   5.876   9.005   4.330
52010SOL     OW57861  13.297   9.953   3.653
52010SOL    HW157862  13.253  10.029   3.691
52010SOL    HW257863  13.252   9.878   3.692
52011SOL     OW57864   9.212  11.112   2.162
52011SOL    HW157865   9.233  11.080   2.074
52011SOL    HW257866   9.120  11.141   2.156
52012SOL     OW57867   7.919   9.016   9.448
52012SOL    HW157868   7.969   9.070   9.509
52012SOL    HW257869   7.985   8.977   9.391
52013SOL     OW57870   6.118   3.345   4.654
52013SOL    HW157871   6.061   3.269   4.639
52013SOL    HW257872   6.064   3.405   4.706
52014SOL     OW57873   6.498  13.837   5.818
52014SOL    HW157874   6.429  13.823   5.883
52014SOL    HW257875   6.451  13.861   5.738
52015SOL     OW57876   6.535  14.707   4.425
52015SOL    HW157877   6.535  14.625   4.375
52015SOL    HW257878   6.614  14.753   4.395
52016SOL     OW57879   2.074  14.839   7.739
52016SOL    HW157880   2.075   0.035   7.672
52016SOL    HW257881   2.108   0.011   7.818
52017SOL     OW57882   3.287   3.695   1.562
52017SOL    HW157883   3.367   3.655   1.597
52017SOL    HW257884   3.298   3.691   1.467
52018SOL     OW57885   5.469   6.854   7.937
52018SOL    HW157886   5.468   6.764   7.902
52018SOL    HW257887   5.382   6.888   7.917
52019SOL     OW57888   8.845   8.711   2.255
52019SOL    HW157889   8.845   8.776   2.185
52019SOL    HW257890   8.934   8.716   2.291
52020SOL     OW57891   5.793   3.634   8.085
52020SOL    HW157892   5.887   3.637   8.103
52020SOL    HW257893   5.786   3.572   8.012
52021SOL     OW57894   5.903  13.444  14.070
52021SOL    HW157895   5.937  13.438  13.981
52021SOL    HW257896   5.867  13.533  14.075
52022SOL     OW57897   9.288  12.732   6.468
52022SOL    HW157898   9.192  12.733   6.461
52022SOL    HW257899   9.307  12.789   6.542
52023SOL     OW57900  14.648   5.831   5.009
52023SOL    HW157901  14.568   5.823   5.060
52023SOL    HW257902  14.640   5.917   4.966
52024SOL     OW57903  13.404   3.601   7.290
52024SOL    HW157904  13.341   3.541   7.249
52024SOL    HW257905  13.384   3.686   7.252
52025SOL     OW57906   2.629  13.233  12.804
52025SOL    HW157907   2.612  13.303  12.740
52025SOL    HW257908   2.718  13.250  12.835
52026SOL     OW57909   9.611  12.744   4.294
52026SOL    HW157910   9.562  12.747   4.212
52026SOL    HW257911   9.671  12.670   4.283
52027SOL     OW57912  11.897   5.491  13.851
52027SOL    HW157913  11.932   5.431  13.785
52027SOL    HW257914  11.803   5.476  13.850
52028SOL     OW57915   6.999  14.502  12.890
52028SOL    HW157916   6.972  14.434  12.828
52028SOL    HW257917   6.943  14.489  12.966
52029SOL     OW57918   1.076  13.481  10.842
52029SOL    HW157919   1.133  13.557  10.833
52029SOL    HW257920   1.012  13.507  10.907
52030SOL     OW57921   3.156   0.316   3.516
52030SOL    HW157922   3.158   0.397   3.567
52030SOL    HW257923   3.079   0.325   3.460
52031SOL     OW57924  10.848  11.620   9.894
52031SOL    HW157925  10.879  11.644   9.807
52031SOL    HW257926  10.753  11.631   9.890
52032SOL     OW57927   0.712   3.293   1.642
52032SOL    HW157928   0.789   3.238   1.657
52032SOL    HW257929   0.667   3.253   1.567
52033SOL     OW57930   6.536  11.483  13.657
52033SOL    HW157931   6.446  11.472  13.687
52033SOL    HW257932   6.564  11.565  13.699
52034SOL     OW57933   7.186   2.571   4.841
52034SOL    HW157934   7.272   2.559   4.803
52034SOL    HW257935   7.188   2.521   4.923
52035SOL     OW57936   2.967   3.116   6.813
52035SOL    HW157937   3.048   3.159   6.841
52035SOL    HW257938   2.910   3.122   6.890
52036SOL     OW57939   4.633  10.361   3.081
52036SOL    HW157940   4.558  10.303   3.068
52036SOL    HW257941   4.660  10.385   2.992
52037SOL     OW57942  10.566   3.122  11.953
52037SOL    HW157943  10.572   3.079  11.868
52037SOL    HW257944  10.655   3.119  11.988
52038SOL     OW57945   8.019  11.796   3.867
52038SOL    HW157946   7.925  11.813   3.867
52038SOL    HW257947   8.031  11.726   3.803
52039SOL     OW57948   4.043   6.860   3.421
52039SOL    HW157949   4.103   6.788   3.439
52039SOL    HW257950   4.088   6.938   3.454
52040SOL     OW57951   7.625  10.793   6.832
52040SOL    HW157952   7.665  10.880   6.830
52040SOL    HW257953   7.684  10.741   6.887
52041SOL     OW57954   6.395  11.497   0.091
52041SOL    HW157955   6.472  11.512   0.145
52041SOL    HW257956   6.425  11.512   0.001
52042SOL     OW57957   5.197  14.677  13.863
52042SOL    HW157958   5.177  14.673  13.769
52042SOL    HW257959   5.276  14.730  13.869
52043SOL     OW57960  10.410   1.772   1.866
52043SOL    HW157961  10.452   1.849   1.904
52043SOL    HW257962  10.342   1.808   1.809
52044SOL     OW57963   9.098  10.800   9.145
52044SOL    HW157964   9.121  10.885   9.108
52044SOL    HW257965   9.149  10.737   9.094
52045SOL     OW57966   4.677   4.099  10.728
52045SOL    HW157967   4.611   4.107  10.659
52045SOL    HW257968   4.642   4.152  10.800
52046SOL     OW57969   2.799  12.620  13.235
52046SOL    HW157970   2.764  12.681  13.300
52046SOL    HW257971   2.884  12.594  13.269
52047SOL     OW57972   5.754   6.716   5.036
52047SOL    HW157973   5.815   6.658   5.082
52047SOL    HW257974   5.773   6.803   5.070
52048SOL     OW57975   9.757   5.688   9.405
52048SOL    HW157976   9.799   5.710   9.322
52048SOL    HW257977   9.745   5.772   9.449
52049SOL     OW57978   0.391  13.148   0.249
52049SOL    HW157979   0.325  13.193   0.302
52049SOL    HW257980   0.340  13.093   0.189
52050SOL     OW57981  12.233   0.457  11.856
52050SOL    HW157982  12.203   0.413  11.777
52050SOL    HW257983  12.317   0.417  11.876
52051SOL     OW57984  10.248   9.590  12.007
52051SOL    HW157985  10.275   9.515  11.954
52051SOL    HW257986  10.304   9.586  12.084
52052SOL     OW57987  13.779   8.364   0.911
52052SOL    HW157988  13.748   8.453   0.894
52052SOL    HW257989  13.872   8.375   0.934
52053SOL     OW57990  13.220   0.398   8.827
52053SOL    HW157991  13.210   0.305   8.845
52053SOL    HW257992  13.211   0.440   8.913
52054SOL     OW57993  14.252   6.762   3.895
52054SOL    HW157994  14.255   6.766   3.990
52054SOL    HW257995  14.168   6.721   3.875
52055SOL     OW57996  14.150   6.700  11.530
52055SOL    HW157997  14.192   6.783  11.555
52055SOL    HW257998  14.096   6.723  11.454
52056SOL     OW57999  10.049  12.602   6.464
52056SOL    HW158000  10.088  12.661   6.528
52056SOL    HW258001  10.121  12.579   6.405
52057SOL     OW58002   5.115   2.858   5.691
52057SOL    HW158003   5.024   2.841   5.666
52057SOL    HW258004   5.112   2.941   5.739
52058SOL     OW58005  14.216  10.603  13.611
52058SOL    HW158006  14.141  10.660  13.593
52058SOL    HW258007  14.182  10.514  13.603
52059SOL     OW58008  14.816   7.504  11.969
52059SOL    HW158009  14.825   7.476  12.060
52059SOL    HW258010  14.775   7.430  11.925
52060SOL     OW58011  14.639   2.729   2.878
52060SOL    HW158012  14.568   2.665   2.882
52060SOL    HW258013  14.597   2.812   2.898
52061SOL     OW58014   9.570  13.433  10.822
52061SOL    HW158015   9.513  13.364  10.856
52061SOL    HW258016   9.659  13.400  10.833
52062SOL     OW58017   4.436  12.835   2.503
52062SOL    HW158018   4.506  12.874   2.557
52062SOL    HW258019   4.420  12.749   2.542
52063SOL     OW58020   2.849  12.558   8.324
52063SOL    HW158021   2.780  12.573   8.388
52063SOL    HW258022   2.880  12.646   8.301
52064SOL     OW58023  13.413  10.344   1.362
52064SOL    HW158024  13.461  10.359   1.281
52064SOL    HW258025  13.383  10.253   1.357
52065SOL     OW58026   3.210  11.990   9.216
52065SOL    HW158027   3.165  11.941   9.147
52065SOL    HW258028   3.182  11.950   9.298
52066SOL     OW58029   6.207   2.677  11.180
52066SOL    HW158030   6.173   2.765  11.199
52066SOL    HW258031   6.187   2.627  11.259
52067SOL     OW58032   4.844   5.546   7.369
52067SOL    HW158033   4.797   5.590   7.298
52067SOL    HW258034   4.834   5.452   7.350
52068SOL     OW58035   2.054   7.173   9.336
52068SOL    HW158036   2.016   7.170   9.248
52068SOL    HW258037   1.979   7.194   9.393
52069SOL     OW58038   8.322   1.216  11.989
52069SOL    HW158039   8.284   1.296  11.953
52069SOL    HW258040   8.292   1.214  12.080
52070SOL     OW58041   8.010  13.484   7.956
52070SOL    HW158042   7.988  13.512   7.867
52070SOL    HW258043   8.029  13.565   8.003
52071SOL     OW58044   3.241   5.689   1.859
52071SOL    HW158045   3.294   5.738   1.796
52071SOL    HW258046   3.304   5.656   1.923
52072SOL     OW58047   8.856  12.014   2.697
52072SOL    HW158048   8.915  11.966   2.638
52072SOL    HW258049   8.800  11.947   2.735
52073SOL     OW58050  13.575   9.336   8.599
52073SOL    HW158051  13.644   9.402   8.603
52073SOL    HW258052  13.619   9.256   8.570
52074SOL     OW58053   0.609  10.749   9.727
52074SOL    HW158054   0.669  10.816   9.760
52074SOL    HW258055   0.656  10.707   9.656
52075SOL     OW58056   4.906  13.487   9.354
52075SOL    HW158057   4.928  13.580   9.360
52075SOL    HW258058   4.837  13.474   9.420
52076SOL     OW58059  14.326   0.808  12.079
52076SOL    HW158060  14.401   0.835  12.131
52076SOL    HW258061  14.323   0.712  12.089
52077SOL     OW58062   9.078   3.216   0.362
52077SOL    HW158063   9.129   3.141   0.392
52077SOL    HW258064   8.990   3.201   0.396
52078SOL     OW58065   1.856   8.911   3.264
52078SOL    HW158066   1.824   8.955   3.343
52078SOL    HW258067   1.796   8.940   3.195
52079SOL     OW58068   7.700   6.042   6.298
52079SOL    HW158069   7.644   6.021   6.373
52079SOL    HW258070   7.690   5.968   6.239
52080SOL     OW58071   7.536   6.043   0.363
52080SOL    HW158072   7.504   5.960   0.327
52080SOL    HW258073   7.608   6.069   0.305
52081SOL     OW58074   3.034   9.678  11.818
52081SOL    HW158075   2.992   9.739  11.878
52081SOL    HW258076   3.128   9.685  11.839
52082SOL     OW58077  13.854   3.778   6.867
52082SOL    HW158078  13.852   3.841   6.795
52082SOL    HW258079  13.762   3.769   6.893
52083SOL     OW58080   0.225   4.592   7.914
52083SOL    HW158081   0.139   4.628   7.936
52083SOL    HW258082   0.288   4.658   7.943
52084SOL     OW58083   8.764  12.859   0.394
52084SOL    HW158084   8.669  12.856   0.408
52084SOL    HW258085   8.800  12.808   0.467
52085SOL     OW58086   0.075   3.095   3.405
52085SOL    HW158087   0.045   3.135   3.324
52085SOL    HW258088   0.006   3.116   3.469
52086SOL     OW58089   9.408   9.009   4.474
52086SOL    HW158090   9.358   8.966   4.544
52086SOL    HW258091   9.464   9.071   4.520
52087SOL     OW58092   4.494   2.373   6.569
52087SOL    HW158093   4.458   2.287   6.591
52087SOL    HW258094   4.554   2.393   6.640
52088SOL     OW58095   2.750  13.995   1.108
52088SOL    HW158096   2.836  14.034   1.098
52088SOL    HW258097   2.721  13.976   1.019
52089SOL     OW58098  10.709   8.763   2.733
52089SOL    HW158099  10.618   8.735   2.736
52089SOL    HW258100  10.715   8.818   2.655
52090SOL     OW58101   3.412   5.040  11.873
52090SOL    HW158102   3.482   4.975  11.864
52090SOL    HW258103   3.364   5.035  11.790
52091SOL     OW58104   0.721   8.688   3.509
52091SOL    HW158105   0.702   8.594   3.505
52091SOL    HW258106   0.690   8.715   3.595
52092SOL     OW58107   1.830   2.640   2.108
52092SOL    HW158108   1.785   2.693   2.042
52092SOL    HW258109   1.800   2.551   2.091
52093SOL     OW58110   2.967   0.543   4.499
52093SOL    HW158111   3.050   0.533   4.546
52093SOL    HW258112   2.956   0.460   4.452
52094SOL     OW58113   9.098   5.689   0.144
52094SOL    HW158114   9.115   5.784   0.141
52094SOL    HW258115   9.012   5.679   0.102
52095SOL     OW58116   8.116  13.472   5.852
52095SOL    HW158117   8.024  13.499   5.859
52095SOL    HW258118   8.113  13.377   5.842
52096SOL     OW58119  13.448   2.397   9.229
52096SOL    HW158120  13.412   2.424   9.145
52096SOL    HW258121  13.383   2.337   9.265
52097SOL     OW58122  10.874  12.020  12.259
52097SOL    HW158123  10.951  11.977  12.222
52097SOL    HW258124  10.807  12.010  12.191
52098SOL     OW58125   2.233   1.818   9.980
52098SOL    HW158126   2.162   1.754   9.972
52098SOL    HW258127   2.248   1.826  10.074
52099SOL     OW58128   6.353   3.523   1.841
52099SOL    HW158129   6.427   3.475   1.879
52099SOL    HW258130   6.384   3.613   1.833
52100SOL     OW58131  13.301   6.615   0.701
52100SOL    HW158132  13.328   6.581   0.787
52100SOL    HW258133  13.206   6.609   0.702
52101SOL     OW58134  14.182   4.162   7.603
52101SOL    HW158135  14.192   4.091   7.667
52101SOL    HW258136  14.256   4.150   7.543
52102SOL     OW58137   5.114   1.957   8.632
52102SOL    HW158138   5.089   1.994   8.548
52102SOL    HW258139   5.031   1.938   8.676
52103SOL     OW58140   1.856   6.992   0.648
52103SOL    HW158141   1.884   6.900   0.646
52103SOL    HW258142   1.846   7.015   0.556
52104SOL     OW58143   3.018  12.480  10.044
52104SOL    HW158144   3.099  12.481   9.994
52104SOL    HW258145   2.949  12.471   9.978
52105SOL     OW58146  12.270  12.711  12.200
52105SOL    HW158147  12.207  12.752  12.258
52105SOL    HW258148  12.217  12.666  12.134
52106SOL     OW58149  11.991   5.345   9.754
52106SOL    HW158150  12.005   5.378   9.842
52106SOL    HW258151  11.915   5.395   9.722
52107SOL     OW58152   4.646   7.615  11.810
52107SOL    HW158153   4.577   7.671  11.774
52107SOL    HW258154   4.608   7.527  11.809
52108SOL     OW58155  10.751   0.306   4.035
52108SOL    HW158156  10.669   0.276   3.995
52108SOL    HW258157  10.732   0.312   4.128
52109SOL     OW58158  12.647   5.086   8.599
52109SOL    HW158159  12.644   5.054   8.509
52109SOL    HW258160  12.570   5.049   8.641
52110SOL     OW58161   0.867   6.847  13.864
52110SOL    HW158162   0.798   6.909  13.841
52110SOL    HW258163   0.829   6.761  13.847
52111SOL     OW58164   3.803   9.627   8.711
52111SOL    HW158165   3.830   9.594   8.797
52111SOL    HW258166   3.728   9.573   8.687
52112SOL     OW58167  12.783  14.251  12.906
52112SOL    HW158168  12.818  14.198  12.834
52112SOL    HW258169  12.856  14.307  12.933
52113SOL     OW58170  11.681   8.162  14.559
52113SOL    HW158171  11.751   8.100  14.578
52113SOL    HW258172  11.656   8.198  14.644
52114SOL     OW58173   7.601  13.690   6.091
52114SOL    HW158174   7.667  13.732   6.146
52114SOL    HW258175   7.625  13.714   6.002
52115SOL     OW58176  12.695   2.301  10.751
52115SOL    HW158177  12.672   2.218  10.709
52115SOL    HW258178  12.625   2.361  10.728
52116SOL     OW58179  12.840   7.428   2.899
52116SOL    HW158180  12.758   7.422   2.850
52116SOL    HW258181  12.866   7.520   2.889
52117SOL     OW58182   4.950  12.278   0.938
52117SOL    HW158183   4.957  12.373   0.944
52117SOL    HW258184   4.900  12.262   0.858
52118SOL     OW58185  14.621  14.399   9.930
52118SOL    HW158186  14.675  14.320   9.931
52118SOL    HW258187  14.670  14.463   9.981
52119SOL     OW58188   3.747  12.010  10.009
52119SOL    HW158189   3.799  12.079   9.968
52119SOL    HW258190   3.810  11.960  10.060
52120SOL     OW58191  14.293   3.599   8.306
52120SOL    HW158192  14.244   3.662   8.253
52120SOL    HW258193  14.226   3.541   8.342
52121SOL     OW58194  14.090   1.113   6.392
52121SOL    HW158195  14.162   1.168   6.360
52121SOL    HW258196  14.033   1.173   6.440
52122SOL     OW58197  12.903  13.286   7.420
52122SOL    HW158198  12.991  13.274   7.385
52122SOL    HW258199  12.848  13.300   7.343
52123SOL     OW58200   5.473   3.020   2.163
52123SOL    HW158201   5.475   3.090   2.228
52123SOL    HW258202   5.549   2.966   2.183
52124SOL     OW58203  13.809   6.261  14.755
52124SOL    HW158204  13.815   6.346  14.799
52124SOL    HW258205  13.842   6.199  14.819
52125SOL     OW58206   8.042   7.628  11.855
52125SOL    HW158207   8.011   7.691  11.921
52125SOL    HW258208   8.071   7.683  11.782
52126SOL     OW58209   3.934  14.718  11.677
52126SOL    HW158210   3.999  14.652  11.704
52126SOL    HW258211   3.922  14.701  11.584
52127SOL     OW58212   1.199  14.826   2.436
52127SOL    HW158213   1.167  14.810   2.524
52127SOL    HW258214   1.290  14.799   2.438
52128SOL     OW58215   6.206  12.871   5.428
52128SOL    HW158216   6.302  12.880   5.430
52128SOL    HW258217   6.190  12.783   5.461
52129SOL     OW58218   7.416   6.669  13.937
52129SOL    HW158219   7.491   6.714  13.901
52129SOL    HW258220   7.430   6.669  14.031
52130SOL     OW58221   2.934   2.120  10.235
52130SOL    HW158222   2.907   2.030  10.256
52130SOL    HW258223   2.989   2.145  10.309
52131SOL     OW58224  14.646  13.469   6.786
52131SOL    HW158225  14.554  13.480   6.765
52131SOL    HW258226  14.693  13.519   6.719
52132SOL     OW58227  14.041  12.346   9.955
52132SOL    HW158228  13.963  12.400   9.943
52132SOL    HW258229  14.090  12.356   9.874
52133SOL     OW58230   1.072  10.289   6.362
52133SOL    HW158231   1.043  10.221   6.423
52133SOL    HW258232   1.109  10.357   6.417
52134SOL     OW58233   4.319   0.036  13.160
52134SOL    HW158234   4.392   0.056  13.101
52134SOL    HW258235   4.328   0.097  13.233
52135SOL     OW58236   1.935   5.091   2.629
52135SOL    HW158237   2.008   5.144   2.596
52135SOL    HW258238   1.963   5.001   2.616
52136SOL     OW58239  10.788   7.647   6.840
52136SOL    HW158240  10.769   7.607   6.755
52136SOL    HW258241  10.706   7.689   6.866
52137SOL     OW58242   9.431   1.924   0.743
52137SOL    HW158243   9.358   1.951   0.799
52137SOL    HW258244   9.389   1.897   0.661
52138SOL     OW58245   9.537  13.994   9.279
52138SOL    HW158246   9.476  14.047   9.227
52138SOL    HW258247   9.481  13.939   9.334
52139SOL     OW58248   0.322   8.832  11.713
52139SOL    HW158249   0.370   8.757  11.679
52139SOL    HW258250   0.390   8.898  11.731
52140SOL     OW58251   4.092   6.893   7.346
52140SOL    HW158252   3.998   6.905   7.338
52140SOL    HW258253   4.121   6.870   7.257
52141SOL     OW58254  12.154  13.382  13.111
52141SOL    HW158255  12.099  13.433  13.170
52141SOL    HW258256  12.094  13.319  13.071
52142SOL     OW58257   7.133   7.911   6.593
52142SOL    HW158258   7.086   7.965   6.529
52142SOL    HW258259   7.200   7.969   6.629
52143SOL     OW58260   0.379   2.535  10.151
52143SOL    HW158261   0.473   2.523  10.140
52143SOL    HW258262   0.351   2.460  10.203
52144SOL     OW58263   8.735   4.931   0.212
52144SOL    HW158264   8.741   4.884   0.130
52144SOL    HW258265   8.680   4.876   0.268
52145SOL     OW58266   2.384  11.342  10.711
52145SOL    HW158267   2.440  11.323  10.787
52145SOL    HW258268   2.362  11.255  10.676
52146SOL     OW58269  13.560   4.911   0.874
52146SOL    HW158270  13.596   4.824   0.893
52146SOL    HW258271  13.515   4.900   0.790
52147SOL     OW58272   6.662  12.151  10.856
52147SOL    HW158273   6.694  12.236  10.887
52147SOL    HW258274   6.568  12.165  10.841
52148SOL     OW58275   3.211   0.334   0.546
52148SOL    HW158276   3.243   0.285   0.471
52148SOL    HW258277   3.142   0.279   0.583
52149SOL     OW58278  12.286  13.087   4.281
52149SOL    HW158279  12.207  13.133   4.309
52149SOL    HW258280  12.294  13.013   4.341
52150SOL     OW58281  10.522  14.571  14.264
52150SOL    HW158282  10.540  14.624  14.341
52150SOL    HW258283  10.501  14.635  14.196
52151SOL     OW58284  14.317   2.637  11.806
52151SOL    HW158285  14.351   2.587  11.880
52151SOL    HW258286  14.394   2.657  11.753
52152SOL     OW58287   8.831  13.360   0.072
52152SOL    HW158288   8.872  13.407  14.872
52152SOL    HW258289   8.768  13.301   0.029
52153SOL     OW58290   4.074   7.285  12.468
52153SOL    HW158291   4.015   7.345  12.422
52153SOL    HW258292   4.031   7.269  12.552
52154SOL     OW58293  14.603   1.053   7.925
52154SOL    HW158294  14.604   1.140   7.964
52154SOL    HW258295  14.515   1.020   7.943
52155SOL     OW58296   4.794   5.927  10.880
52155SOL    HW158297   4.846   5.968  10.949
52155SOL    HW258298   4.733   5.996  10.853
52156SOL     OW58299   1.879   4.551   2.963
52156SOL    HW158300   1.814   4.551   2.892
52156SOL    HW258301   1.877   4.461   2.996
52157SOL     OW58302   8.589   7.068   0.258
52157SOL    HW158303   8.657   7.097   0.196
52157SOL    HW258304   8.512   7.053   0.203
52158SOL     OW58305  11.136   7.846   0.528
52158SOL    HW158306  11.223   7.837   0.568
52158SOL    HW258307  11.111   7.756   0.506
52159SOL     OW58308  13.532  11.038   4.862
52159SOL    HW158309  13.520  11.076   4.949
52159SOL    HW258310  13.604  10.976   4.872
52160SOL     OW58311   7.212   9.428  13.033
52160SOL    HW158312   7.213   9.440  13.128
52160SOL    HW258313   7.120   9.409  13.012
52161SOL     OW58314   6.279   2.274   4.549
52161SOL    HW158315   6.340   2.212   4.509
52161SOL    HW258316   6.333   2.326   4.609
52162SOL     OW58317   7.135   8.054   2.771
52162SOL    HW158318   7.062   8.053   2.708
52162SOL    HW258319   7.186   8.131   2.748
52163SOL     OW58320   9.176   2.025   3.235
52163SOL    HW158321   9.229   1.974   3.296
52163SOL    HW258322   9.235   2.048   3.164
52164SOL     OW58323   5.991   9.832  12.472
52164SOL    HW158324   5.903   9.850  12.439
52164SOL    HW258325   5.978   9.802  12.562
52165SOL     OW58326  10.444   0.318   9.162
52165SOL    HW158327  10.414   0.309   9.072
52165SOL    HW258328  10.499   0.242   9.178
52166SOL     OW58329   4.137  14.704   9.253
52166SOL    HW158330   4.201  14.703   9.182
52166SOL    HW258331   4.186  14.676   9.330
52167SOL     OW58332  12.728   3.443  12.973
52167SOL    HW158333  12.675   3.391  12.912
52167SOL    HW258334  12.805   3.468  12.921
52168SOL     OW58335   4.950  13.451  14.131
52168SOL    HW158336   4.884  13.509  14.169
52168SOL    HW258337   4.995  13.412  14.206
52169SOL     OW58338  13.160   0.957   3.196
52169SOL    HW158339  13.160   0.938   3.102
52169SOL    HW258340  13.250   0.978   3.217
52170SOL     OW58341   1.833   8.292   0.944
52170SOL    HW158342   1.790   8.255   1.021
52170SOL    HW258343   1.763   8.296   0.878
52171SOL     OW58344   9.261  10.067   2.727
52171SOL    HW158345   9.293  10.058   2.637
52171SOL    HW258346   9.204   9.991   2.739
52172SOL     OW58347   8.920  11.802   1.257
52172SOL    HW158348   8.872  11.845   1.329
52172SOL    HW258349   8.908  11.861   1.183
52173SOL     OW58350  13.379   9.472   3.550
52173SOL    HW158351  13.401   9.414   3.477
52173SOL    HW258352  13.356   9.412   3.621
52174SOL     OW58353  10.099  10.614   5.851
52174SOL    HW158354  10.194  10.621   5.839
52174SOL    HW258355  10.062  10.665   5.779
52175SOL     OW58356   1.160  12.570   7.347
52175SOL    HW158357   1.191  12.637   7.286
52175SOL    HW258358   1.131  12.619   7.424
52176SOL     OW58359   4.926  13.424  10.136
52176SOL    HW158360   4.881  13.417  10.052
52176SOL    HW258361   4.964  13.338  10.151
52177SOL     OW58362   8.251   1.365   8.973
52177SOL    HW158363   8.158   1.351   8.991
52177SOL    HW258364   8.296   1.329   9.051
52178SOL     OW58365   2.738   4.192   3.763
52178SOL    HW158366   2.736   4.281   3.728
52178SOL    HW258367   2.708   4.202   3.854
52179SOL     OW58368  12.353  11.645  10.597
52179SOL    HW158369  12.263  11.677  10.587
52179SOL    HW258370  12.346  11.550  10.583
52180SOL     OW58371   3.051   5.883  10.200
52180SOL    HW158372   3.076   5.860  10.290
52180SOL    HW258373   3.029   5.976  10.204
52181SOL     OW58374   6.985   6.550   7.305
52181SOL    HW158375   6.992   6.546   7.401
52181SOL    HW258376   6.901   6.509   7.285
52182SOL     OW58377   6.269   4.938   7.258
52182SOL    HW158378   6.246   4.865   7.202
52182SOL    HW258379   6.346   4.908   7.307
52183SOL     OW58380   6.091  13.052  14.334
52183SOL    HW158381   6.172  13.040  14.383
52183SOL    HW258382   6.036  12.979  14.362
52184SOL     OW58383   0.317   5.832  11.938
52184SOL    HW158384   0.408   5.851  11.962
52184SOL    HW258385   0.320   5.820  11.843
52185SOL     OW58386   4.839  10.764   8.090
52185SOL    HW158387   4.809  10.709   8.018
52185SOL    HW258388   4.801  10.850   8.073
52186SOL     OW58389   7.531  11.715   8.930
52186SOL    HW158390   7.480  11.796   8.934
52186SOL    HW258391   7.544  11.700   8.837
52187SOL     OW58392   3.367   2.122   4.769
52187SOL    HW158393   3.347   2.134   4.676
52187SOL    HW258394   3.446   2.068   4.770
52188SOL     OW58395   4.521   2.226   3.551
52188SOL    HW158396   4.519   2.134   3.579
52188SOL    HW258397   4.434   2.243   3.516
52189SOL     OW58398  14.336  10.863  12.588
52189SOL    HW158399  14.322  10.774  12.622
52189SOL    HW258400  14.279  10.918  12.640
52190SOL     OW58401  12.402   8.269   7.281
52190SOL    HW158402  12.476   8.261   7.220
52190SOL    HW258403  12.329   8.297   7.226
52191SOL     OW58404   4.084   9.858   4.059
52191SOL    HW158405   4.062   9.779   4.008
52191SOL    HW258406   4.172   9.880   4.031
52192SOL     OW58407   5.751   8.418   7.150
52192SOL    HW158408   5.779   8.341   7.101
52192SOL    HW258409   5.815   8.486   7.128
52193SOL     OW58410   8.968   1.012  11.258
52193SOL    HW158411   9.008   0.926  11.246
52193SOL    HW258412   8.892   1.012  11.200
52194SOL     OW58413  10.192  10.551  13.805
52194SOL    HW158414  10.219  10.463  13.778
52194SOL    HW258415  10.168  10.595  13.723
52195SOL     OW58416   5.758   9.705   7.790
52195SOL    HW158417   5.827   9.642   7.814
52195SOL    HW258418   5.762   9.710   7.695
52196SOL     OW58419   0.855   4.602   9.984
52196SOL    HW158420   0.834   4.519   9.942
52196SOL    HW258421   0.818   4.596  10.072
52197SOL     OW58422   5.985   0.309   4.450
52197SOL    HW158423   5.994   0.369   4.376
52197SOL    HW258424   5.967   0.366   4.525
52198SOL     OW58425   1.514  10.709  13.426
52198SOL    HW158426   1.524  10.616  13.446
52198SOL    HW258427   1.561  10.753  13.498
52199SOL     OW58428  14.490  12.207  14.040
52199SOL    HW158429  14.525  12.276  13.983
52199SOL    HW258430  14.403  12.239  14.066
52200SOL     OW58431   0.559  10.991  10.795
52200SOL    HW158432   0.594  10.956  10.714
52200SOL    HW258433   0.484  10.936  10.815
52201SOL     OW58434  12.514   1.991   7.614
52201SOL    HW158435  12.588   2.008   7.555
52201SOL    HW258436  12.444   1.962   7.557
52202SOL     OW58437   8.838   2.208   5.443
52202SOL    HW158438   8.761   2.180   5.493
52202SOL    HW258439   8.809   2.286   5.395
52203SOL     OW58440   7.745   3.702   4.302
52203SOL    HW158441   7.664   3.651   4.293
52203SOL    HW258442   7.741   3.739   4.390
52204SOL     OW58443   8.612   4.429  14.250
52204SOL    HW158444   8.596   4.336  14.237
52204SOL    HW258445   8.686   4.449  14.192
52205SOL     OW58446  14.289   0.067   2.454
52205SOL    HW158447  14.218   0.116   2.414
52205SOL    HW258448  14.270   0.069   2.548
52206SOL     OW58449  13.292  13.974  13.065
52206SOL    HW158450  13.265  14.027  12.990
52206SOL    HW258451  13.307  13.887  13.028
52207SOL     OW58452   1.779  11.055  12.411
52207SOL    HW158453   1.844  11.103  12.462
52207SOL    HW258454   1.768  10.972  12.458
52208SOL     OW58455  12.368  14.143   2.731
52208SOL    HW158456  12.305  14.208   2.698
52208SOL    HW258457  12.453  14.176   2.703
52209SOL     OW58458   9.193  12.028  14.658
52209SOL    HW158459   9.192  12.085  14.581
52209SOL    HW258460   9.244  12.077  14.723
52210SOL     OW58461   4.013   2.798   9.890
52210SOL    HW158462   4.063   2.823   9.813
52210SOL    HW258463   4.040   2.860   9.958
52211SOL     OW58464  12.659   8.880  13.455
52211SOL    HW158465  12.618   8.811  13.404
52211SOL    HW258466  12.613   8.879  13.539
52212SOL     OW58467  12.699   5.600   4.549
52212SOL    HW158468  12.648   5.682   4.544
52212SOL    HW258469  12.761   5.607   4.476
52213SOL     OW58470   6.716  11.943   9.357
52213SOL    HW158471   6.778  11.877   9.388
52213SOL    HW258472   6.646  11.942   9.423
52214SOL     OW58473  12.877   9.824  12.314
52214SOL    HW158474  12.795   9.842  12.269
52214SOL    HW258475  12.917   9.753  12.264
52215SOL     OW58476  13.962  11.813   6.147
52215SOL    HW158477  13.919  11.867   6.214
52215SOL    HW258478  13.959  11.724   6.183
52216SOL     OW58479   2.231   3.791   5.613
52216SOL    HW158480   2.290   3.748   5.551
52216SOL    HW258481   2.146   3.749   5.598
52217SOL     OW58482  13.771  13.889   4.551
52217SOL    HW158483  13.805  13.858   4.635
52217SOL    HW258484  13.813  13.831   4.486
52218SOL     OW58485   2.677   2.097   3.461
52218SOL    HW158486   2.667   2.004   3.441
52218SOL    HW258487   2.772   2.111   3.464
52219SOL     OW58488   3.851  10.449   1.006
52219SOL    HW158489   3.780  10.505   1.039
52219SOL    HW258490   3.862  10.476   0.915
52220SOL     OW58491   6.256   1.520   3.446
52220SOL    HW158492   6.191   1.464   3.404
52220SOL    HW258493   6.207   1.567   3.514
52221SOL     OW58494  10.290  13.004   6.512
52221SOL    HW158495  10.307  13.078   6.453
52221SOL    HW258496  10.365  12.946   6.499
52222SOL     OW58497   6.098  12.986   1.354
52222SOL    HW158498   6.041  12.952   1.424
52222SOL    HW258499   6.043  13.049   1.308
52223SOL     OW58500   5.854  14.859  13.498
52223SOL    HW158501   5.761   0.010  13.507
52223SOL    HW258502   5.854  14.788  13.433
52224SOL     OW58503   0.768   5.947   5.248
52224SOL    HW158504   0.675   5.923   5.250
52224SOL    HW258505   0.770   6.032   5.206
52225SOL     OW58506   3.003   8.450   3.254
52225SOL    HW158507   2.995   8.418   3.344
52225SOL    HW258508   3.053   8.383   3.208
52226SOL     OW58509  14.356   5.701  11.417
52226SOL    HW158510  14.431   5.680  11.473
52226SOL    HW258511  14.323   5.616  11.388
52227SOL     OW58512   2.095   5.596   3.170
52227SOL    HW158513   2.072   5.547   3.091
52227SOL    HW258514   2.019   5.652   3.187
52228SOL     OW58515  14.282   7.178  10.197
52228SOL    HW158516  14.236   7.094  10.189
52228SOL    HW258517  14.214   7.244  10.178
52229SOL     OW58518  12.029   1.341   0.437
52229SOL    HW158519  11.982   1.397   0.376
52229SOL    HW258520  11.967   1.326   0.508
52230SOL     OW58521   8.990   2.602   0.327
52230SOL    HW158522   8.930   2.576   0.258
52230SOL    HW258523   8.988   2.530   0.390
52231SOL     OW58524  13.985  14.132  11.353
52231SOL    HW158525  14.028  14.047  11.349
52231SOL    HW258526  14.055  14.193  11.377
52232SOL     OW58527   5.744   8.145   1.726
52232SOL    HW158528   5.814   8.182   1.673
52232SOL    HW258529   5.733   8.056   1.692
52233SOL     OW58530   1.501   7.609   9.429
52233SOL    HW158531   1.575   7.656   9.467
52233SOL    HW258532   1.540   7.546   9.369
52234SOL     OW58533  14.867   8.222   0.943
52234SOL    HW158534   0.026   8.161   0.876
52234SOL    HW258535   0.058   8.293   0.942
52235SOL     OW58536  13.748  12.631   8.604
52235SOL    HW158537  13.809  12.641   8.531
52235SOL    HW258538  13.773  12.549   8.646
52236SOL     OW58539   9.002   1.766   6.822
52236SOL    HW158540   8.941   1.697   6.847
52236SOL    HW258541   8.993   1.774   6.728
52237SOL     OW58542   6.218   9.526   6.333
52237SOL    HW158543   6.273   9.549   6.408
52237SOL    HW258544   6.270   9.552   6.257
52238SOL     OW58545   9.593   2.934   6.609
52238SOL    HW158546   9.570   2.851   6.651
52238SOL    HW258547   9.516   2.989   6.622
52239SOL     OW58548   7.534   7.234   3.103
52239SOL    HW158549   7.586   7.226   3.023
52239SOL    HW258550   7.443   7.234   3.073
52240SOL     OW58551   4.097   5.478   4.917
52240SOL    HW158552   4.067   5.490   5.007
52240SOL    HW258553   4.141   5.393   4.918
52241SOL     OW58554  12.688   6.270  14.679
52241SOL    HW158555  12.642   6.305  14.754
52241SOL    HW258556  12.781   6.270  14.704
52242SOL     OW58557  10.283   9.315  12.270
52242SOL    HW158558  10.312   9.247  12.331
52242SOL    HW258559  10.350   9.317  12.202
52243SOL     OW58560   4.501   4.735   9.805
52243SOL    HW158561   4.456   4.682   9.740
52243SOL    HW258562   4.560   4.791   9.754
52244SOL     OW58563   6.795  14.505   6.162
52244SOL    HW158564   6.832  14.456   6.088
52244SOL    HW258565   6.733  14.444   6.203
52245SOL     OW58566   2.709   9.919   1.140
52245SOL    HW158567   2.694  10.010   1.115
52245SOL    HW258568   2.757   9.925   1.223
52246SOL     OW58569   7.598   4.914  14.855
52246SOL    HW158570   7.645   4.998  14.860
52246SOL    HW258571   7.622   4.868   0.063
52247SOL     OW58572   7.579   9.572   3.957
52247SOL    HW158573   7.538   9.569   4.044
52247SOL    HW258574   7.555   9.490   3.916
52248SOL     OW58575   5.252   5.279  10.947
52248SOL    HW158576   5.226   5.204  10.893
52248SOL    HW258577   5.248   5.354  10.888
52249SOL     OW58578   5.976   8.489   9.154
52249SOL    HW158579   5.914   8.423   9.185
52249SOL    HW258580   5.938   8.572   9.183
52250SOL     OW58581  11.714  10.709   0.777
52250SOL    HW158582  11.673  10.788   0.741
52250SOL    HW258583  11.665  10.691   0.858
52251SOL     OW58584   4.013  11.337  14.297
52251SOL    HW158585   3.951  11.355  14.227
52251SOL    HW258586   4.079  11.407  14.289
52252SOL     OW58587   1.781   9.960  11.638
52252SOL    HW158588   1.815   9.944  11.549
52252SOL    HW258589   1.736   9.878  11.660
52253SOL     OW58590  11.021   7.322   3.219
52253SOL    HW158591  11.084   7.258   3.185
52253SOL    HW258592  10.966   7.273   3.280
52254SOL     OW58593   7.953   5.376   6.305
52254SOL    HW158594   7.904   5.311   6.355
52254SOL    HW258595   7.886   5.433   6.268
52255SOL     OW58596   0.857  13.819   5.825
52255SOL    HW158597   0.933  13.773   5.862
52255SOL    HW258598   0.804  13.749   5.786
52256SOL     OW58599   9.393  12.170   1.549
52256SOL    HW158600   9.441  12.226   1.488
52256SOL    HW258601   9.458  12.144   1.614
52257SOL     OW58602   1.651   7.202   7.825
52257SOL    HW158603   1.611   7.146   7.759
52257SOL    HW258604   1.651   7.290   7.786
52258SOL     OW58605   0.946  12.929   4.376
52258SOL    HW158606   0.905  12.986   4.441
52258SOL    HW258607   0.887  12.853   4.370
52259SOL     OW58608   5.897   2.747   8.675
52259SOL    HW158609   5.859   2.698   8.602
52259SOL    HW258610   5.838   2.730   8.748
52260SOL     OW58611  11.677   0.103   9.001
52260SOL    HW158612  11.614   0.114   9.071
52260SOL    HW258613  11.733   0.031   9.030
52261SOL     OW58614  10.468  11.925  14.403
52261SOL    HW158615  10.434  11.944  14.491
52261SOL    HW258616  10.430  11.993  14.348
52262SOL     OW58617   9.337   1.919  14.624
52262SOL    HW158618   9.428   1.950  14.628
52262SOL    HW258619   9.332   1.851  14.692
52263SOL     OW58620  14.793   2.161  12.192
52263SOL    HW158621  14.771   2.230  12.130
52263SOL    HW258622   0.001   2.191  12.234
52264SOL     OW58623   3.543   6.123  11.291
52264SOL    HW158624   3.610   6.146  11.355
52264SOL    HW258625   3.463   6.111  11.343
52265SOL     OW58626   9.588  14.798  10.845
52265SOL    HW158627   9.530  14.723  10.858
52265SOL    HW258628   9.528  14.871  10.828
52266SOL     OW58629   1.937   8.156  12.859
52266SOL    HW158630   2.031   8.173  12.853
52266SOL    HW258631   1.912   8.128  12.771
52267SOL     OW58632   0.065  14.300   9.362
52267SOL    HW158633   0.092  14.380   9.316
52267SOL    HW258634   0.125  14.233   9.330
52268SOL     OW58635   6.261  11.993   6.735
52268SOL    HW158636   6.245  11.949   6.652
52268SOL    HW258637   6.176  12.027   6.762
52269SOL     OW58638   7.683   3.234  13.736
52269SOL    HW158639   7.717   3.318  13.768
52269SOL    HW258640   7.762   3.183  13.715
52270SOL     OW58641  11.859   6.829   8.809
52270SOL    HW158642  11.912   6.883   8.751
52270SOL    HW258643  11.772   6.831   8.772
52271SOL     OW58644   8.238   5.600  10.776
52271SOL    HW158645   8.254   5.507  10.795
52271SOL    HW258646   8.167   5.600  10.712
52272SOL     OW58647   4.156   7.087   9.835
52272SOL    HW158648   4.243   7.120   9.857
52272SOL    HW258649   4.166   6.992   9.833
52273SOL     OW58650   3.779   8.290   7.795
52273SOL    HW158651   3.722   8.232   7.846
52273SOL    HW258652   3.836   8.231   7.746
52274SOL     OW58653   5.151   4.845  14.395
52274SOL    HW158654   5.065   4.826  14.432
52274SOL    HW258655   5.148   4.939  14.374
52275SOL     OW58656   1.434   0.690  10.272
52275SOL    HW158657   1.504   0.754  10.264
52275SOL    HW258658   1.418   0.683  10.366
52276SOL     OW58659   1.333   1.456  12.558
52276SOL    HW158660   1.251   1.455  12.508
52276SOL    HW258661   1.308   1.487  12.645
52277SOL     OW58662   4.569   0.738   3.242
52277SOL    HW158663   4.640   0.674   3.236
52277SOL    HW258664   4.586   0.801   3.172
52278SOL     OW58665  10.914   4.015   4.960
52278SOL    HW158666  10.935   4.108   4.957
52278SOL    HW258667  10.836   4.006   4.905
52279SOL     OW58668  14.439  12.498   0.957
52279SOL    HW158669  14.447  12.487   1.052
52279SOL    HW258670  14.528  12.514   0.927
52280SOL     OW58671   0.960  12.599   9.701
52280SOL    HW158672   0.940  12.541   9.775
52280SOL    HW258673   0.891  12.666   9.703
52281SOL     OW58674   0.046  12.778   4.656
52281SOL    HW158675  14.830  12.761   4.623
52281SOL    HW258676   0.063  12.869   4.632
52282SOL     OW58677  13.871   9.680   4.298
52282SOL    HW158678  13.958   9.654   4.328
52282SOL    HW258679  13.827   9.710   4.378
52283SOL     OW58680  12.093   5.156   6.118
52283SOL    HW158681  12.069   5.152   6.025
52283SOL    HW258682  12.055   5.078   6.156
52284SOL     OW58683  11.076   7.821   8.028
52284SOL    HW158684  11.149   7.883   8.038
52284SOL    HW258685  11.014   7.846   8.096
52285SOL     OW58686   0.653   4.919   3.564
52285SOL    HW158687   0.691   4.882   3.485
52285SOL    HW258688   0.630   4.843   3.618
52286SOL     OW58689   2.886  13.372  14.797
52286SOL    HW158690   2.901  13.413  14.711
52286SOL    HW258691   2.966  13.391  14.846
52287SOL     OW58692   2.738   5.826   6.823
52287SOL    HW158693   2.686   5.755   6.862
52287SOL    HW258694   2.685   5.904   6.836
52288SOL     OW58695   6.168   2.928   9.847
52288SOL    HW158696   6.237   2.992   9.827
52288SOL    HW258697   6.188   2.898   9.935
52289SOL     OW58698  10.444  11.290  14.695
52289SOL    HW158699  10.490  11.206  14.691
52289SOL    HW258700  10.465  11.333  14.612
52290SOL     OW58701   7.298   4.109   5.948
52290SOL    HW158702   7.279   4.108   6.041
52290SOL    HW258703   7.243   4.178   5.912
52291SOL     OW58704   9.462  11.727   7.406
52291SOL    HW158705   9.529  11.719   7.473
52291SOL    HW258706   9.491  11.668   7.336
52292SOL     OW58707  14.220   3.047   1.227
52292SOL    HW158708  14.160   3.031   1.299
52292SOL    HW258709  14.175   3.014   1.149
52293SOL     OW58710   1.075  11.296   1.795
52293SOL    HW158711   1.040  11.345   1.721
52293SOL    HW258712   1.165  11.274   1.769
52294SOL     OW58713   9.652  13.065  12.962
52294SOL    HW158714   9.616  13.000  13.022
52294SOL    HW258715   9.743  13.076  12.989
52295SOL     OW58716   8.417  10.750   9.301
52295SOL    HW158717   8.420  10.813   9.229
52295SOL    HW258718   8.501  10.759   9.346
52296SOL     OW58719   9.869  11.506   5.331
52296SOL    HW158720   9.804  11.477   5.267
52296SOL    HW258721   9.952  11.502   5.284
52297SOL     OW58722   4.761   3.345   4.737
52297SOL    HW158723   4.673   3.334   4.772
52297SOL    HW258724   4.806   3.264   4.757
52298SOL     OW58725  11.616   6.092   3.903
52298SOL    HW158726  11.541   6.145   3.931
52298SOL    HW258727  11.577   6.019   3.855
52299SOL     OW58728   8.636   3.660   0.412
52299SOL    HW158729   8.544   3.637   0.400
52299SOL    HW258730   8.666   3.686   0.325
52300SOL     OW58731  12.660  13.927   3.981
52300SOL    HW158732  12.679  13.971   3.898
52300SOL    HW258733  12.669  13.834   3.960
52301SOL     OW58734   2.430   9.395   5.085
52301SOL    HW158735   2.491   9.322   5.099
52301SOL    HW258736   2.486   9.471   5.069
52302SOL     OW58737  10.817   2.143   7.626
52302SOL    HW158738  10.763   2.103   7.559
52302SOL    HW258739  10.775   2.118   7.709
52303SOL     OW58740  13.407   5.935  12.916
52303SOL    HW158741  13.469   5.984  12.970
52303SOL    HW258742  13.462   5.878  12.861
52304SOL     OW58743  10.135  14.688   8.946
52304SOL    HW158744  10.189  14.766   8.960
52304SOL    HW258745  10.182  14.639   8.878
52305SOL     OW58746   9.624   6.950   7.054
52305SOL    HW158747   9.606   6.894   6.979
52305SOL    HW258748   9.607   6.894   7.130
52306SOL     OW58749  13.392  11.094   2.297
52306SOL    HW158750  13.298  11.081   2.312
52306SOL    HW258751  13.415  11.028   2.231
52307SOL     OW58752   6.774  10.065  12.249
52307SOL    HW158753   6.863  10.072  12.215
52307SOL    HW258754   6.752  10.153  12.279
52308SOL     OW58755   7.728   8.724   5.686
52308SOL    HW158756   7.685   8.641   5.666
52308SOL    HW258757   7.712   8.738   5.779
52309SOL     OW58758  13.884   5.956   2.313
52309SOL    HW158759  13.892   5.921   2.402
52309SOL    HW258760  13.791   5.977   2.304
52310SOL     OW58761   2.228  13.308   5.338
52310SOL    HW158762   2.309  13.322   5.387
52310SOL    HW258763   2.179  13.390   5.349
52311SOL     OW58764   3.863   5.571   3.172
52311SOL    HW158765   3.874   5.657   3.132
52311SOL    HW258766   3.861   5.589   3.266
52312SOL     OW58767   3.117  11.092  13.588
52312SOL    HW158768   3.201  11.100  13.542
52312SOL    HW258769   3.051  11.087  13.519
52313SOL     OW58770   8.483  11.055   9.847
52313SOL    HW158771   8.465  11.141   9.810
52313SOL    HW258772   8.544  11.072   9.919
52314SOL     OW58773  13.736  13.337   7.656
52314SOL    HW158774  13.757  13.244   7.654
52314SOL    HW258775  13.706  13.357   7.567
52315SOL     OW58776   2.042   6.960  11.307
52315SOL    HW158777   2.007   7.041  11.345
52315SOL    HW258778   2.089   6.989  11.228
52316SOL     OW58779   6.495   1.741   6.891
52316SOL    HW158780   6.464   1.651   6.875
52316SOL    HW258781   6.588   1.730   6.911
52317SOL     OW58782   5.136  11.595  12.401
52317SOL    HW158783   5.177  11.509  12.386
52317SOL    HW258784   5.042  11.577  12.399
52318SOL     OW58785   2.072   2.625   9.821
52318SOL    HW158786   2.040   2.683   9.889
52318SOL    HW258787   2.129   2.563   9.866
52319SOL     OW58788  12.675   2.837   0.948
52319SOL    HW158789  12.741   2.892   0.990
52319SOL    HW258790  12.618   2.809   1.020
52320SOL     OW58791   7.318  12.279  10.820
52320SOL    HW158792   7.390  12.317  10.871
52320SOL    HW258793   7.280  12.213  10.878
52321SOL     OW58794  10.453   4.460   4.011
52321SOL    HW158795  10.411   4.420   4.087
52321SOL    HW258796  10.383   4.470   3.947
52322SOL     OW58797   5.181   5.758   1.566
52322SOL    HW158798   5.162   5.851   1.578
52322SOL    HW258799   5.253   5.756   1.503
52323SOL     OW58800   2.210   7.513   9.110
52323SOL    HW158801   2.244   7.557   9.188
52323SOL    HW258802   2.115   7.516   9.120
52324SOL     OW58803  14.282  13.622   0.110
52324SOL    HW158804  14.344  13.566   0.157
52324SOL    HW258805  14.281  13.588   0.021
52325SOL     OW58806  12.178   7.688   8.838
52325SOL    HW158807  12.170   7.675   8.932
52325SOL    HW258808  12.109   7.751   8.816
52326SOL     OW58809  10.019   8.569  12.506
52326SOL    HW158810  10.114   8.568  12.515
52326SOL    HW258811   9.990   8.633  12.570
52327SOL     OW58812  10.706   0.089   7.969
52327SOL    HW158813  10.632   0.035   7.997
52327SOL    HW258814  10.668   0.153   7.909
52328SOL     OW58815  12.137   2.932   6.025
52328SOL    HW158816  12.106   2.896   5.942
52328SOL    HW258817  12.085   2.887   6.092
52329SOL     OW58818   7.698   3.700  14.494
52329SOL    HW158819   7.748   3.744  14.562
52329SOL    HW258820   7.710   3.606  14.512
52330SOL     OW58821   7.815   1.354   0.924
52330SOL    HW158822   7.836   1.323   0.836
52330SOL    HW258823   7.796   1.448   0.912
52331SOL     OW58824   9.885   5.790   2.323
52331SOL    HW158825   9.812   5.759   2.269
52331SOL    HW258826   9.850   5.793   2.412
52332SOL     OW58827  11.073   0.070   6.596
52332SOL    HW158828  11.048   0.109   6.679
52332SOL    HW258829  11.001   0.010   6.574
52333SOL     OW58830   4.158   2.685   1.735
52333SOL    HW158831   4.217   2.747   1.692
52333SOL    HW258832   4.214   2.610   1.756
52334SOL     OW58833   1.896   0.620   2.596
52334SOL    HW158834   1.876   0.705   2.559
52334SOL    HW258835   1.810   0.582   2.617
52335SOL     OW58836   8.603  10.647  14.472
52335SOL    HW158837   8.637  10.623  14.386
52335SOL    HW258838   8.549  10.573  14.498
52336SOL     OW58839   2.294   2.964   9.571
52336SOL    HW158840   2.246   2.883   9.558
52336SOL    HW258841   2.243   3.030   9.525
52337SOL     OW58842   1.811  13.186  12.473
52337SOL    HW158843   1.724  13.159  12.445
52337SOL    HW258844   1.814  13.280  12.458
52338SOL     OW58845   9.745  12.069   8.959
52338SOL    HW158846   9.800  12.144   8.983
52338SOL    HW258847   9.658  12.107   8.946
52339SOL     OW58848  12.003   8.125   4.414
52339SOL    HW158849  12.022   8.195   4.351
52339SOL    HW258850  12.042   8.156   4.496
52340SOL     OW58851   7.007  12.477   7.434
52340SOL    HW158852   6.970  12.552   7.481
52340SOL    HW258853   6.952  12.469   7.356
52341SOL     OW58854   5.567  12.501   8.829
52341SOL    HW158855   5.562  12.406   8.842
52341SOL    HW258856   5.574  12.512   8.734
52342SOL     OW58857   3.243   8.455  10.338
52342SOL    HW158858   3.176   8.475  10.273
52342SOL    HW258859   3.302   8.394  10.293
52343SOL     OW58860   2.790   0.143   6.950
52343SOL    HW158861   2.725   0.073   6.941
52343SOL    HW258862   2.810   0.168   6.860
52344SOL     OW58863  11.335   9.550   5.944
52344SOL    HW158864  11.380   9.467   5.931
52344SOL    HW258865  11.401   9.617   5.926
52345SOL     OW58866  11.161  13.515   2.325
52345SOL    HW158867  11.121  13.593   2.286
52345SOL    HW258868  11.157  13.531   2.420
52346SOL     OW58869  14.227   3.839   8.163
52346SOL    HW158870  14.317   3.819   8.137
52346SOL    HW258871  14.174   3.797   8.095
52347SOL     OW58872   4.223   2.220   9.198
52347SOL    HW158873   4.191   2.310   9.189
52347SOL    HW258874   4.273   2.204   9.119
52348SOL     OW58875  12.165  10.633   1.610
52348SOL    HW158876  12.132  10.544   1.592
52348SOL    HW258877  12.251  10.619   1.649
52349SOL     OW58878   2.035   4.966   6.643
52349SOL    HW158879   2.039   5.058   6.668
52349SOL    HW258880   1.944   4.940   6.659
52350SOL     OW58881   5.367   6.909   2.917
52350SOL    HW158882   5.422   6.933   2.991
52350SOL    HW258883   5.306   6.843   2.952
52351SOL     OW58884   5.259   5.646  12.940
52351SOL    HW158885   5.296   5.592  13.010
52351SOL    HW258886   5.331   5.655  12.877
52352SOL     OW58887  11.612   6.610   6.346
52352SOL    HW158888  11.617   6.685   6.406
52352SOL    HW258889  11.587   6.536   6.401
52353SOL     OW58890  11.336   6.435  13.183
52353SOL    HW158891  11.309   6.496  13.115
52353SOL    HW258892  11.419   6.470  13.216
52354SOL     OW58893  12.390   3.857   1.921
52354SOL    HW158894  12.466   3.813   1.883
52354SOL    HW258895  12.418   3.881   2.009
52355SOL     OW58896   3.545   6.353   0.033
52355SOL    HW158897   3.488   6.381  14.834
52355SOL    HW258898   3.580   6.435   0.069
52356SOL     OW58899   0.027  12.516  11.818
52356SOL    HW158900   0.000  12.577  11.887
52356SOL    HW258901  14.824  12.511  11.760
52357SOL     OW58902   7.891   2.657   3.913
52357SOL    HW158903   7.845   2.737   3.935
52357SOL    HW258904   7.932   2.675   3.829
52358SOL     OW58905  13.078   1.331  11.585
52358SOL    HW158906  13.121   1.382  11.654
52358SOL    HW258907  12.986   1.357  11.589
52359SOL     OW58908   6.155   7.181   0.072
52359SOL    HW158909   6.221   7.161   0.006
52359SOL    HW258910   6.205   7.208   0.149
52360SOL     OW58911   9.282   9.957   2.261
52360SOL    HW158912   9.314   9.867   2.257
52360SOL    HW258913   9.202   9.953   2.313
52361SOL     OW58914   9.994   4.554   5.913
52361SOL    HW158915   9.907   4.592   5.899
52361SOL    HW258916   9.992   4.471   5.865
52362SOL     OW58917   4.766   1.004  11.405
52362SOL    HW158918   4.684   1.018  11.357
52362SOL    HW258919   4.763   1.069  11.475
52363SOL     OW58920   9.000   3.657   8.912
52363SOL    HW158921   8.926   3.716   8.925
52363SOL    HW258922   9.021   3.666   8.818
52364SOL     OW58923   4.109   5.511   0.836
52364SOL    HW158924   4.023   5.491   0.800
52364SOL    HW258925   4.167   5.442   0.802
52365SOL     OW58926  14.195  14.868  14.410
52365SOL    HW158927  14.152   0.062  14.355
52365SOL    HW258928  14.261  14.829  14.352
52366SOL     OW58929   5.366   0.975   4.796
52366SOL    HW158930   5.350   1.054   4.743
52366SOL    HW258931   5.328   0.996   4.882
52367SOL     OW58932  12.490  14.396   7.088
52367SOL    HW158933  12.423  14.405   7.155
52367SOL    HW258934  12.568  14.434   7.127
52368SOL     OW58935  12.619  10.963  13.065
52368SOL    HW158936  12.530  10.971  13.099
52368SOL    HW258937  12.675  10.968  13.143
52369SOL     OW58938  14.348   7.639   8.014
52369SOL    HW158939  14.300   7.567   7.974
52369SOL    HW258940  14.409   7.667   7.946
52370SOL     OW58941   1.578   6.258  10.914
52370SOL    HW158942   1.486   6.269  10.890
52370SOL    HW258943   1.598   6.333  10.970
52371SOL     OW58944  14.810   9.510  14.359
52371SOL    HW158945  14.775   9.442  14.417
52371SOL    HW258946  14.733   9.542  14.311
52372SOL     OW58947  14.249   2.791  10.110
52372SOL    HW158948  14.280   2.854  10.175
52372SOL    HW258949  14.256   2.837  10.027
52373SOL     OW58950  10.636   5.800   8.510
52373SOL    HW158951  10.691   5.877   8.523
52373SOL    HW258952  10.568   5.808   8.577
52374SOL     OW58953   8.769   7.594   7.435
52374SOL    HW158954   8.834   7.595   7.365
52374SOL    HW258955   8.819   7.578   7.515
52375SOL     OW58956   4.214   5.720   4.876
52375SOL    HW158957   4.202   5.628   4.902
52375SOL    HW258958   4.297   5.745   4.916
52376SOL     OW58959  12.415   5.783   2.951
52376SOL    HW158960  12.488   5.846   2.952
52376SOL    HW258961  12.340   5.834   2.920
52377SOL     OW58962  13.151  10.793   3.577
52377SOL    HW158963  13.181  10.882   3.600
52377SOL    HW258964  13.077  10.807   3.518
52378SOL     OW58965  11.759   1.107   5.697
52378SOL    HW158966  11.747   1.181   5.756
52378SOL    HW258967  11.738   1.142   5.610
52379SOL     OW58968   3.632  11.209   7.256
52379SOL    HW158969   3.581  11.275   7.208
52379SOL    HW258970   3.568  11.162   7.308
52380SOL     OW58971   8.815   0.754   5.802
52380SOL    HW158972   8.835   0.661   5.803
52380SOL    HW258973   8.792   0.775   5.892
52381SOL     OW58974   9.299   5.635   2.751
52381SOL    HW158975   9.269   5.624   2.660
52381SOL    HW258976   9.311   5.545   2.782
52382SOL     OW58977  12.140   5.618   6.688
52382SOL    HW158978  12.083   5.631   6.764
52382SOL    HW258979  12.085   5.571   6.625
52383SOL     OW58980  14.389   4.941   6.389
52383SOL    HW158981  14.377   4.952   6.295
52383SOL    HW258982  14.437   5.020   6.416
52384SOL     OW58983  11.679  14.047   4.897
52384SOL    HW158984  11.606  14.108   4.887
52384SOL    HW258985  11.693  14.042   4.991
52385SOL     OW58986  11.275  12.442   2.004
52385SOL    HW158987  11.280  12.532   1.971
52385SOL    HW258988  11.229  12.450   2.087
52386SOL     OW58989  11.375   1.163  12.941
52386SOL    HW158990  11.438   1.223  12.980
52386SOL    HW258991  11.305   1.220  12.908
52387SOL     OW58992   4.241   2.403   8.502
52387SOL    HW158993   4.257   2.350   8.424
52387SOL    HW258994   4.183   2.348   8.556
52388SOL     OW58995   9.921  11.860   6.660
52388SOL    HW158996   9.934  11.923   6.731
52388SOL    HW258997  10.010  11.833   6.636
52389SOL     OW58998  12.456   7.625   9.479
52389SOL    HW158999  12.367   7.609   9.446
52389SOL    HW259000  12.487   7.701   9.430
52390SOL     OW59001  13.114   9.267  10.092
52390SOL    HW159002  13.206   9.286  10.074
52390SOL    HW259003  13.067   9.297  10.015
52391SOL     OW59004   2.666   1.658   6.361
52391SOL    HW159005   2.664   1.594   6.289
52391SOL    HW259006   2.656   1.742   6.317
52392SOL     OW59007  10.436   4.261   3.334
52392SOL    HW159008  10.414   4.229   3.422
52392SOL    HW259009  10.464   4.182   3.287
52393SOL     OW59010   7.671   0.207   6.420
52393SOL    HW159011   7.645   0.148   6.350
52393SOL    HW259012   7.736   0.265   6.381
52394SOL     OW59013   1.741   5.461  11.700
52394SOL    HW159014   1.791   5.540  11.681
52394SOL    HW259015   1.799   5.407  11.752
52395SOL     OW59016  14.434   3.246  13.474
52395SOL    HW159017  14.386   3.200  13.405
52395SOL    HW259018  14.512   3.193  13.489
52396SOL     OW59019  12.153   5.850   3.615
52396SOL    HW159020  12.142   5.945   3.625
52396SOL    HW259021  12.065   5.818   3.594
52397SOL     OW59022   9.580   2.378   6.049
52397SOL    HW159023   9.495   2.342   6.076
52397SOL    HW259024   9.566   2.472   6.045
52398SOL     OW59025  13.890   7.335   1.065
52398SOL    HW159026  13.872   7.278   0.991
52398SOL    HW259027  13.804   7.361   1.098
52399SOL     OW59028  12.040   7.778   0.687
52399SOL    HW159029  12.094   7.803   0.762
52399SOL    HW259030  12.004   7.861   0.655
52400SOL     OW59031  10.415  11.541  10.100
52400SOL    HW159032  10.405  11.600  10.175
52400SOL    HW259033  10.396  11.454  10.135
52401SOL     OW59034  11.658   5.813  11.744
52401SOL    HW159035  11.693   5.884  11.691
52401SOL    HW259036  11.735   5.765  11.774
52402SOL     OW59037   2.224   8.138   4.044
52402SOL    HW159038   2.248   8.125   3.952
52402SOL    HW259039   2.141   8.093   4.053
52403SOL     OW59040   2.066   4.461  11.183
52403SOL    HW159041   2.142   4.452  11.125
52403SOL    HW259042   2.093   4.526  11.247
52404SOL     OW59043  10.056   0.981  13.039
52404SOL    HW159044  10.070   1.060  13.091
52404SOL    HW259045  10.034   0.914  13.104
52405SOL     OW59046  11.207   9.306   1.495
52405SOL    HW159047  11.164   9.240   1.440
52405SOL    HW259048  11.201   9.271   1.583
52406SOL     OW59049   4.750   8.573   5.564
52406SOL    HW159050   4.680   8.509   5.571
52406SOL    HW259051   4.767   8.601   5.654
52407SOL     OW59052   8.895  12.661  13.723
52407SOL    HW159053   8.824  12.706  13.768
52407SOL    HW259054   8.866  12.654  13.632
52408SOL     OW59055   8.471  11.596  10.068
52408SOL    HW159056   8.434  11.582  10.156
52408SOL    HW259057   8.523  11.675  10.077
52409SOL     OW59058  10.459   9.579   6.578
52409SOL    HW159059  10.496   9.638   6.644
52409SOL    HW259060  10.396   9.632   6.531
52410SOL     OW59061   6.332  11.724   0.981
52410SOL    HW159062   6.238  11.704   0.979
52410SOL    HW259063   6.340  11.789   1.051
52411SOL     OW59064   4.040  12.827  10.474
52411SOL    HW159065   3.987  12.799  10.400
52411SOL    HW259066   3.986  12.892  10.519
52412SOL     OW59067   0.874   2.783   6.865
52412SOL    HW159068   0.885   2.798   6.771
52412SOL    HW259069   0.963   2.786   6.900
52413SOL     OW59070   9.134   3.237   8.739
52413SOL    HW159071   9.159   3.319   8.698
52413SOL    HW259072   9.101   3.262   8.825
52414SOL     OW59073  11.468  12.909  13.657
52414SOL    HW159074  11.560  12.896  13.682
52414SOL    HW259075  11.449  12.999  13.683
52415SOL     OW59076  11.374  14.400   8.550
52415SOL    HW159077  11.342  14.488   8.530
52415SOL    HW259078  11.449  14.388   8.492
52416SOL     OW59079  11.250  13.568   5.417
52416SOL    HW159080  11.252  13.473   5.414
52416SOL    HW259081  11.162  13.589   5.450
52417SOL     OW59082  14.262   8.138  14.366
52417SOL    HW159083  14.202   8.207  14.394
52417SOL    HW259084  14.205   8.064  14.346
52418SOL     OW59085   7.536  14.169   6.774
52418SOL    HW159086   7.602  14.237   6.760
52418SOL    HW259087   7.454  14.217   6.786
52419SOL     OW59088   9.887   4.004   6.012
52419SOL    HW159089   9.882   3.998   6.108
52419SOL    HW259090   9.918   4.093   5.996
52420SOL     OW59091   4.120   9.939  12.112
52420SOL    HW159092   4.099   9.951  12.020
52420SOL    HW259093   4.115   9.844  12.125
52421SOL     OW59094   5.841   6.719   6.865
52421SOL    HW159095   5.817   6.765   6.784
52421SOL    HW259096   5.929   6.752   6.886
52422SOL     OW59097  10.374   9.506   2.649
52422SOL    HW159098  10.314   9.465   2.587
52422SOL    HW259099  10.337   9.593   2.664
52423SOL     OW59100   6.216   4.280  11.472
52423SOL    HW159101   6.136   4.247  11.432
52423SOL    HW259102   6.283   4.268  11.405
52424SOL     OW59103  11.524   5.914  14.586
52424SOL    HW159104  11.604   5.898  14.635
52424SOL    HW259105  11.479   5.830  14.585
52425SOL     OW59106   9.320  12.290  11.541
52425SOL    HW159107   9.407  12.278  11.504
52425SOL    HW259108   9.265  12.228  11.494
52426SOL     OW59109   0.709  10.405  13.727
52426SOL    HW159110   0.766  10.373  13.797
52426SOL    HW259111   0.706  10.500  13.741
52427SOL     OW59112  13.692   3.421  13.345
52427SOL    HW159113  13.627   3.370  13.392
52427SOL    HW259114  13.735   3.359  13.286
52428SOL     OW59115  13.302  12.013   1.784
52428SOL    HW159116  13.333  11.995   1.873
52428SOL    HW259117  13.276  11.928   1.750
52429SOL     OW59118   9.795   4.100   0.636
52429SOL    HW159119   9.849   4.042   0.688
52429SOL    HW259120   9.712   4.053   0.625
52430SOL     OW59121   6.101   8.414  10.598
52430SOL    HW159122   6.010   8.430  10.623
52430SOL    HW259123   6.146   8.397  10.681
52431SOL     OW59124  13.192   1.336   1.058
52431SOL    HW159125  13.130   1.270   1.025
52431SOL    HW259126  13.187   1.329   1.153
52432SOL     OW59127   7.527   0.304   9.148
52432SOL    HW159128   7.562   0.338   9.066
52432SOL    HW259129   7.440   0.272   9.126
52433SOL     OW59130  13.393   6.535  14.583
52433SOL    HW159131  13.384   6.442  14.604
52433SOL    HW259132  13.343   6.579  14.652
52434SOL     OW59133  14.247  11.780  11.458
52434SOL    HW159134  14.301  11.754  11.384
52434SOL    HW259135  14.179  11.713  11.463
52435SOL     OW59136   2.505   1.857   0.395
52435SOL    HW159137   2.580   1.917   0.395
52435SOL    HW259138   2.439   1.902   0.342
52436SOL     OW59139   9.711  14.399   2.212
52436SOL    HW159140   9.794  14.404   2.259
52436SOL    HW259141   9.714  14.316   2.164
52437SOL     OW59142  12.995   2.716   4.252
52437SOL    HW159143  12.939   2.704   4.328
52437SOL    HW259144  13.007   2.811   4.246
52438SOL     OW59145  10.247  12.115  13.753
52438SOL    HW159146  10.332  12.155  13.769
52438SOL    HW259147  10.231  12.129  13.659
52439SOL     OW59148  10.575  11.926  10.319
52439SOL    HW159149  10.554  11.922  10.413
52439SOL    HW259150  10.525  12.001  10.287
52440SOL     OW59151   4.915   7.099   1.437
52440SOL    HW159152   4.851   7.113   1.507
52440SOL    HW259153   4.885   7.156   1.365
52441SOL     OW59154   2.577  14.806  13.547
52441SOL    HW159155   2.554  14.713  13.553
52441SOL    HW259156   2.554  14.830  13.457
52442SOL     OW59157   0.598   9.339   5.879
52442SOL    HW159158   0.651   9.408   5.918
52442SOL    HW259159   0.576   9.281   5.952
52443SOL     OW59160   7.060   2.022  12.931
52443SOL    HW159161   7.049   2.109  12.970
52443SOL    HW259162   6.970   1.992  12.914
52444SOL     OW59163  10.031   6.256  10.586
52444SOL    HW159164   9.972   6.195  10.542
52444SOL    HW259165  10.015   6.242  10.679
52445SOL     OW59166   7.709   3.158  10.711
52445SOL    HW159167   7.728   3.065  10.695
52445SOL    HW259168   7.635   3.176  10.654
52446SOL     OW59169  10.401  13.833   6.184
52446SOL    HW159170  10.340  13.881   6.240
52446SOL    HW259171  10.465  13.796   6.245
52447SOL     OW59172   8.585  10.392   8.848
52447SOL    HW159173   8.672  10.431   8.846
52447SOL    HW259174   8.550  10.414   8.934
52448SOL     OW59175   5.493   8.542   9.219
52448SOL    HW159176   5.404   8.564   9.191
52448SOL    HW259177   5.506   8.593   9.299
52449SOL     OW59178   6.699  11.227  13.933
52449SOL    HW159179   6.633  11.168  13.972
52449SOL    HW259180   6.773  11.170  13.915
52450SOL     OW59181  14.352  12.742   0.192
52450SOL    HW159182  14.295  12.702   0.258
52450SOL    HW259183  14.338  12.689   0.114
52451SOL     OW59184   0.383   3.409   4.966
52451SOL    HW159185   0.333   3.482   5.002
52451SOL    HW259186   0.434   3.448   4.895
52452SOL     OW59187  11.363  11.600   7.209
52452SOL    HW159188  11.315  11.523   7.241
52452SOL    HW259189  11.411  11.632   7.285
52453SOL     OW59190   2.385   5.815   0.688
52453SOL    HW159191   2.380   5.735   0.740
52453SOL    HW259192   2.479   5.830   0.676
52454SOL     OW59193   5.323   7.045  10.770
52454SOL    HW159194   5.381   6.999  10.710
52454SOL    HW259195   5.235   7.028  10.736
52455SOL     OW59196  11.148   8.855   0.216
52455SOL    HW159197  11.072   8.912   0.218
52455SOL    HW259198  11.118   8.774   0.174
52456SOL     OW59199   7.741  10.262   0.181
52456SOL    HW159200   7.775  10.274   0.092
52456SOL    HW259201   7.665  10.320   0.186
52457SOL     OW59202  14.821   3.877   0.909
52457SOL    HW159203  14.842   3.938   0.838
52457SOL    HW259204  14.726   3.885   0.919
52458SOL     OW59205   6.347   6.621  10.539
52458SOL    HW159206   6.402   6.582  10.607
52458SOL    HW259207   6.262   6.634  10.581
52459SOL     OW59208   5.248   8.396   1.423
52459SOL    HW159209   5.283   8.453   1.355
52459SOL    HW259210   5.158   8.377   1.395
52460SOL     OW59211  11.313   1.171  14.740
52460SOL    HW159212  11.300   1.240  14.805
52460SOL    HW259213  11.405   1.148  14.747
52461SOL     OW59214  10.010   0.891   2.005
52461SOL    HW159215   9.939   0.940   2.046
52461SOL    HW259216   9.969   0.848   1.930
52462SOL     OW59217  12.651   3.201   1.084
52462SOL    HW159218  12.560   3.178   1.063
52462SOL    HW259219  12.685   3.125   1.131
52463SOL     OW59220   9.882   1.323   8.166
52463SOL    HW159221   9.839   1.267   8.101
52463SOL    HW259222   9.834   1.405   8.163
52464SOL     OW59223   9.187   1.897   8.729
52464SOL    HW159224   9.260   1.837   8.716
52464SOL    HW259225   9.109   1.842   8.725
52465SOL     OW59226  11.302   6.236   8.315
52465SOL    HW159227  11.269   6.146   8.324
52465SOL    HW259228  11.305   6.270   8.405
52466SOL     OW59229   3.182  12.745  12.837
52466SOL    HW159230   3.122  12.676  12.810
52466SOL    HW259231   3.131  12.800  12.896
52467SOL     OW59232   0.771  12.358  12.874
52467SOL    HW159233   0.834  12.326  12.938
52467SOL    HW259234   0.826  12.395  12.804
52468SOL     OW59235  13.037  12.206   9.458
52468SOL    HW159236  13.080  12.242   9.380
52468SOL    HW259237  13.055  12.271   9.526
52469SOL     OW59238   6.289   9.673   9.483
52469SOL    HW159239   6.263   9.723   9.561
52469SOL    HW259240   6.261   9.728   9.410
52470SOL     OW59241  14.493  14.259   1.699
52470SOL    HW159242  14.508  14.354   1.696
52470SOL    HW259243  14.580  14.222   1.708
52471SOL     OW59244  13.777   0.559   8.919
52471SOL    HW159245  13.799   0.637   8.869
52471SOL    HW259246  13.856   0.504   8.914
52472SOL     OW59247   3.131   7.224   3.240
52472SOL    HW159248   3.049   7.173   3.238
52472SOL    HW259249   3.165   7.219   3.151
52473SOL     OW59250  10.817   9.390   3.732
52473SOL    HW159251  10.790   9.426   3.647
52473SOL    HW259252  10.738   9.347   3.766
52474SOL     OW59253   7.640   5.192  13.809
52474SOL    HW159254   7.728   5.216  13.837
52474SOL    HW259255   7.594   5.276  13.801
52475SOL     OW59256   4.726   2.558   6.307
52475SOL    HW159257   4.642   2.581   6.267
52475SOL    HW259258   4.791   2.591   6.245
52476SOL     OW59259  10.256   2.306  12.222
52476SOL    HW159260  10.258   2.213  12.245
52476SOL    HW259261  10.163   2.327  12.216
52477SOL     OW59262   4.812   8.689   4.636
52477SOL    HW159263   4.863   8.733   4.704
52477SOL    HW259264   4.783   8.760   4.578
52478SOL     OW59265  13.851  14.375   0.266
52478SOL    HW159266  13.800  14.407   0.341
52478SOL    HW259267  13.935  14.348   0.304
52479SOL     OW59268  14.750  10.870   1.456
52479SOL    HW159269  14.806  10.799   1.488
52479SOL    HW259270  14.776  10.882   1.365
52480SOL     OW59271   1.228   3.291  12.429
52480SOL    HW159272   1.307   3.275  12.481
52480SOL    HW259273   1.158   3.296  12.493
52481SOL     OW59274   7.205   4.471  14.223
52481SOL    HW159275   7.275   4.490  14.286
52481SOL    HW259276   7.227   4.385  14.189
52482SOL     OW59277   4.168  11.182   8.093
52482SOL    HW159278   4.081  11.161   8.127
52482SOL    HW259279   4.175  11.132   8.012
52483SOL     OW59280   2.596   5.472  11.015
52483SOL    HW159281   2.559   5.521  11.088
52483SOL    HW259282   2.657   5.411  11.056
52484SOL     OW59283   4.081  14.669  12.534
52484SOL    HW159284   4.166  14.678  12.578
52484SOL    HW259285   4.035  14.602  12.584
52485SOL     OW59286   3.925   3.348  11.313
52485SOL    HW159287   3.928   3.385  11.401
52485SOL    HW259288   3.832   3.353  11.288
52486SOL     OW59289   4.712   5.903  12.728
52486SOL    HW159290   4.766   5.929  12.654
52486SOL    HW259291   4.741   5.815  12.749
52487SOL     OW59292  12.192   1.645  11.327
52487SOL    HW159293  12.176   1.735  11.300
52487SOL    HW259294  12.125   1.626  11.392
52488SOL     OW59295  12.218  14.487   8.828
52488SOL    HW159296  12.165  14.470   8.906
52488SOL    HW259297  12.182  14.429   8.761
52489SOL     OW59298   8.487   8.885   6.312
52489SOL    HW159299   8.524   8.947   6.249
52489SOL    HW259300   8.398   8.917   6.327
52490SOL     OW59301   8.870   9.520   6.816
52490SOL    HW159302   8.957   9.482   6.811
52490SOL    HW259303   8.816   9.454   6.860
52491SOL     OW59304  11.850  13.481   4.607
52491SOL    HW159305  11.868  13.392   4.578
52491SOL    HW259306  11.760  13.478   4.639
52492SOL     OW59307   2.471  14.392   0.738
52492SOL    HW159308   2.447  14.307   0.773
52492SOL    HW259309   2.390  14.444   0.744
52493SOL     OW59310   4.728   1.941  14.612
52493SOL    HW159311   4.805   1.884  14.605
52493SOL    HW259312   4.735   1.980  14.699
52494SOL     OW59313   1.958   8.040  10.702
52494SOL    HW159314   1.961   8.130  10.734
52494SOL    HW259315   1.907   8.045  10.621
52495SOL     OW59316   6.658  11.872   2.388
52495SOL    HW159317   6.656  11.935   2.461
52495SOL    HW259318   6.720  11.910   2.326
52496SOL     OW59319   0.727   1.894   8.536
52496SOL    HW159320   0.692   1.973   8.579
52496SOL    HW259321   0.786   1.928   8.469
52497SOL     OW59322  12.034  10.955  13.859
52497SOL    HW159323  12.126  10.938  13.840
52497SOL    HW259324  11.991  10.949  13.774
52498SOL     OW59325   4.973   5.513  14.465
52498SOL    HW159326   5.060   5.551  14.460
52498SOL    HW259327   4.917   5.586  14.492
52499SOL     OW59328  13.818   4.874  11.945
52499SOL    HW159329  13.756   4.877  11.873
52499SOL    HW259330  13.785   4.805  12.003
52500SOL     OW59331  13.132   8.017  10.076
52500SOL    HW159332  13.170   8.039   9.991
52500SOL    HW259333  13.205   8.022  10.138
52501SOL     OW59334  13.510   3.694  10.540
52501SOL    HW159335  13.573   3.704  10.611
52501SOL    HW259336  13.429   3.667  10.584
52502SOL     OW59337   2.190   4.024  14.613
52502SOL    HW159338   2.152   4.053  14.530
52502SOL    HW259339   2.260   4.087  14.630
52503SOL     OW59340   2.942   1.895   8.075
52503SOL    HW159341   2.867   1.911   8.018
52503SOL    HW259342   3.006   1.851   8.019
52504SOL     OW59343   2.483   1.590   7.316
52504SOL    HW159344   2.504   1.590   7.409
52504SOL    HW259345   2.421   1.662   7.305
52505SOL     OW59346   3.415   1.215   7.767
52505SOL    HW159347   3.392   1.307   7.764
52505SOL    HW259348   3.351   1.172   7.711
52506SOL     OW59349  12.249  12.275   6.480
52506SOL    HW159350  12.188  12.347   6.493
52506SOL    HW259351  12.262  12.238   6.567
52507SOL     OW59352   9.758   1.600  10.832
52507SOL    HW159353   9.763   1.521  10.779
52507SOL    HW259354   9.796   1.669  10.778
52508SOL     OW59355   0.341   8.982   2.159
52508SOL    HW159356   0.308   8.944   2.240
52508SOL    HW259357   0.304   8.928   2.089
52509SOL     OW59358  13.303   4.819   2.886
52509SOL    HW159359  13.217   4.841   2.924
52509SOL    HW259360  13.347   4.904   2.878
52510SOL     OW59361   1.034  13.630   6.774
52510SOL    HW159362   1.019  13.536   6.781
52510SOL    HW259363   0.998  13.667   6.855
52511SOL     OW59364   6.859   7.550   0.696
52511SOL    HW159365   6.949   7.517   0.690
52511SOL    HW259366   6.826   7.544   0.606
52512SOL     OW59367  13.705   3.841  14.442
52512SOL    HW159368  13.633   3.784  14.415
52512SOL    HW259369  13.748   3.794  14.513
52513SOL     OW59370   1.161  10.884   6.666
52513SOL    HW159371   1.170  10.944   6.593
52513SOL    HW259372   1.244  10.837   6.669
52514SOL     OW59373   9.828  13.411   9.750
52514SOL    HW159374   9.835  13.376   9.838
52514SOL    HW259375   9.889  13.485   9.748
52515SOL     OW59376   1.215   1.460   2.234
52515SOL    HW159377   1.232   1.550   2.205
52515SOL    HW259378   1.254   1.456   2.321
52516SOL     OW59379   2.291  12.790   2.590
52516SOL    HW159380   2.264  12.707   2.630
52516SOL    HW259381   2.217  12.850   2.608
52517SOL     OW59382  14.716   6.868   5.912
52517SOL    HW159383  14.761   6.877   5.996
52517SOL    HW259384  14.664   6.948   5.903
52518SOL     OW59385   5.037  14.477  11.656
52518SOL    HW159386   4.943  14.480  11.641
52518SOL    HW259387   5.075  14.530  11.585
52519SOL     OW59388   2.244  10.654   1.461
52519SOL    HW159389   2.187  10.581   1.438
52519SOL    HW259390   2.303  10.663   1.387
52520SOL     OW59391   7.893   6.032   6.975
52520SOL    HW159392   7.823   6.091   6.945
52520SOL    HW259393   7.955   6.089   7.020
52521SOL     OW59394   6.442   9.507   0.069
52521SOL    HW159395   6.473   9.421   0.098
52521SOL    HW259396   6.500   9.570   0.111
52522SOL     OW59397  14.703   2.989  12.524
52522SOL    HW159398  14.670   2.922  12.584
52522SOL    HW259399  14.692   3.072  12.571
52523SOL     OW59400  10.756  12.133   3.519
52523SOL    HW159401  10.803  12.201   3.471
52523SOL    HW259402  10.666  12.166   3.526
52524SOL     OW59403  13.131   9.529   8.005
52524SOL    HW159404  13.173   9.458   7.957
52524SOL    HW259405  13.126   9.498   8.096
52525SOL     OW59406   5.814   9.422   0.708
52525SOL    HW159407   5.843   9.392   0.622
52525SOL    HW259408   5.842   9.353   0.768
52526SOL     OW59409  11.517   5.451  10.903
52526SOL    HW159410  11.527   5.377  10.963
52526SOL    HW259411  11.604   5.463  10.864
52527SOL     OW59412   6.781   9.451  12.385
52527SOL    HW159413   6.771   9.427  12.293
52527SOL    HW259414   6.704   9.504  12.405
52528SOL     OW59415  13.283   4.465   9.056
52528SOL    HW159416  13.245   4.518   9.127
52528SOL    HW259417  13.333   4.397   9.102
52529SOL     OW59418   7.291   2.492  13.631
52529SOL    HW159419   7.259   2.529  13.714
52529SOL    HW259420   7.219   2.505  13.570
52530SOL     OW59421  14.069  14.782   4.201
52530SOL    HW159422  13.990  14.830   4.225
52530SOL    HW259423  14.040  14.693   4.184
52531SOL     OW59424   0.277   2.174  13.400
52531SOL    HW159425   0.343   2.138  13.460
52531SOL    HW259426   0.206   2.204  13.457
52532SOL     OW59427   2.756   6.742   6.143
52532SOL    HW159428   2.679   6.770   6.094
52532SOL    HW259429   2.830   6.774   6.091
52533SOL     OW59430  13.512  14.093   0.560
52533SOL    HW159431  13.439  14.153   0.540
52533SOL    HW259432  13.519  14.095   0.655
52534SOL     OW59433   5.859   5.564   8.789
52534SOL    HW159434   5.872   5.574   8.695
52534SOL    HW259435   5.783   5.619   8.808
52535SOL     OW59436   8.956  10.826   6.653
52535SOL    HW159437   8.872  10.809   6.609
52535SOL    HW259438   8.975  10.918   6.633
52536SOL     OW59439   2.429  11.357   3.976
52536SOL    HW159440   2.336  11.382   3.979
52536SOL    HW259441   2.471  11.427   3.927
52537SOL     OW59442   5.646  12.730   9.918
52537SOL    HW159443   5.576  12.795   9.909
52537SOL    HW259444   5.725  12.776   9.890
52538SOL     OW59445   0.446   6.199  11.556
52538SOL    HW159446   0.473   6.152  11.634
52538SOL    HW259447   0.524   6.199  11.500
52539SOL     OW59448   1.435  14.661   2.198
52539SOL    HW159449   1.514  14.610   2.181
52539SOL    HW259450   1.465  14.732   2.255
52540SOL     OW59451   6.523   3.801   3.892
52540SOL    HW159452   6.538   3.748   3.814
52540SOL    HW259453   6.509   3.737   3.962
52541SOL     OW59454  14.272   1.187  11.028
52541SOL    HW159455  14.186   1.227  11.036
52541SOL    HW259456  14.278   1.163  10.936
52542SOL     OW59457  10.982   2.011   8.704
52542SOL    HW159458  11.059   2.040   8.753
52542SOL    HW259459  10.994   2.049   8.617
52543SOL     OW59460   0.084  14.259  12.269
52543SOL    HW159461   0.145  14.332  12.265
52543SOL    HW259462  14.872  14.298  12.291
52544SOL     OW59463   6.303   2.019  13.539
52544SOL    HW159464   6.215   1.985  13.554
52544SOL    HW259465   6.356   1.980  13.609
52545SOL     OW59466   4.447   1.581   1.172
52545SOL    HW159467   4.535   1.593   1.135
52545SOL    HW259468   4.389   1.627   1.111
52546SOL     OW59469   3.292   6.242  11.628
52546SOL    HW159470   3.296   6.318  11.570
52546SOL    HW259471   3.374   6.245  11.676
52547SOL     OW59472  10.273   0.069   6.970
52547SOL    HW159473  10.336   0.044   7.038
52547SOL    HW259474  10.327   0.111   6.902
52548SOL     OW59475   9.071   6.698   5.839
52548SOL    HW159476   9.156   6.682   5.797
52548SOL    HW259477   9.006   6.674   5.773
52549SOL     OW59478   1.938  11.884   3.724
52549SOL    HW159479   1.902  11.797   3.742
52549SOL    HW259480   2.009  11.869   3.662
52550SOL     OW59481   1.757   6.818  14.600
52550SOL    HW159482   1.727   6.786  14.515
52550SOL    HW259483   1.689   6.791  14.662
52551SOL     OW59484  11.415   2.704   6.179
52551SOL    HW159485  11.354   2.773   6.154
52551SOL    HW259486  11.363   2.645   6.233
52552SOL     OW59487   0.748   3.799   2.909
52552SOL    HW159488   0.720   3.800   3.001
52552SOL    HW259489   0.826   3.743   2.909
52553SOL     OW59490  10.444   3.158   5.842
52553SOL    HW159491  10.407   3.112   5.917
52553SOL    HW259492  10.374   3.216   5.811
52554SOL     OW59493   8.331   2.140   3.806
52554SOL    HW159494   8.392   2.183   3.747
52554SOL    HW259495   8.250   2.189   3.797
52555SOL     OW59496  11.998   8.793  14.158
52555SOL    HW159497  12.034   8.876  14.128
52555SOL    HW259498  12.062   8.761  14.222
52556SOL     OW59499   4.568   1.193   3.286
52556SOL    HW159500   4.613   1.147   3.357
52556SOL    HW259501   4.478   1.161   3.289
52557SOL     OW59502   7.396   2.766  11.946
52557SOL    HW159503   7.321   2.815  11.979
52557SOL    HW259504   7.376   2.674  11.966
52558SOL     OW59505  12.771   0.420  10.505
52558SOL    HW159506  12.756   0.494  10.446
52558SOL    HW259507  12.866   0.407  10.503
52559SOL     OW59508   7.273   2.665   4.534
52559SOL    HW159509   7.347   2.725   4.550
52559SOL    HW259510   7.254   2.629   4.621
52560SOL     OW59511  14.637   8.251   0.188
52560SOL    HW159512  14.712   8.195   0.172
52560SOL    HW259513  14.665   8.311   0.258
52561SOL     OW59514  11.289   7.202   5.536
52561SOL    HW159515  11.273   7.296   5.529
52561SOL    HW259516  11.243   7.164   5.461
52562SOL     OW59517   7.868  14.157   6.602
52562SOL    HW159518   7.798  14.219   6.583
52562SOL    HW259519   7.913  14.145   6.518
52563SOL     OW59520   3.495   5.246   6.391
52563SOL    HW159521   3.461   5.327   6.353
52563SOL    HW259522   3.445   5.176   6.348
52564SOL     OW59523  14.255   5.525  14.396
52564SOL    HW159524  14.299   5.585  14.335
52564SOL    HW259525  14.163   5.553  14.394
52565SOL     OW59526   7.028  13.462  11.359
52565SOL    HW159527   7.113  13.479  11.399
52565SOL    HW259528   7.033  13.503  11.273
52566SOL     OW59529  10.830   7.971   5.180
52566SOL    HW159530  10.853   7.967   5.273
52566SOL    HW259531  10.746   7.925   5.174
52567SOL     OW59532   5.096   1.241   5.199
52567SOL    HW159533   5.058   1.324   5.173
52567SOL    HW259534   5.021   1.181   5.205
52568SOL     OW59535  12.335   7.473   8.189
52568SOL    HW159536  12.381   7.543   8.235
52568SOL    HW259537  12.359   7.393   8.237
52569SOL     OW59538   7.402   9.019  10.691
52569SOL    HW159539   7.490   8.981  10.686
52569SOL    HW259540   7.412   9.094  10.749
52570SOL     OW59541  14.329   0.126   7.047
52570SOL    HW159542  14.243   0.168   7.038
52570SOL    HW259543  14.324   0.050   6.989
52571SOL     OW59544  13.411   8.422   4.996
52571SOL    HW159545  13.485   8.362   4.990
52571SOL    HW259546  13.415   8.456   5.085
52572SOL     OW59547  10.862   4.018   2.229
52572SOL    HW159548  10.948   3.980   2.210
52572SOL    HW259549  10.821   3.955   2.289
52573SOL     OW59550  11.952  10.687   4.809
52573SOL    HW159551  11.877  10.716   4.860
52573SOL    HW259552  11.949  10.591   4.814
52574SOL     OW59553   8.884   3.602  13.909
52574SOL    HW159554   8.935   3.635  13.835
52574SOL    HW259555   8.895   3.507  13.906
52575SOL     OW59556   0.616  13.889   3.877
52575SOL    HW159557   0.653  13.875   3.965
52575SOL    HW259558   0.680  13.849   3.818
52576SOL     OW59559   2.337   2.004   8.954
52576SOL    HW159560   2.302   1.918   8.978
52576SOL    HW259561   2.274   2.067   8.989
52577SOL     OW59562   6.283   6.462  11.747
52577SOL    HW159563   6.309   6.421  11.664
52577SOL    HW259564   6.233   6.394  11.792
52578SOL     OW59565   8.493   2.869   1.934
52578SOL    HW159566   8.522   2.778   1.923
52578SOL    HW259567   8.442   2.868   2.014
52579SOL     OW59568   4.961   7.312   5.971
52579SOL    HW159569   4.911   7.269   5.902
52579SOL    HW259570   4.902   7.315   6.046
52580SOL     OW59571   9.606   2.560   1.833
52580SOL    HW159572   9.581   2.645   1.869
52580SOL    HW259573   9.697   2.549   1.860
52581SOL     OW59574  10.186   2.554   3.284
52581SOL    HW159575  10.254   2.592   3.339
52581SOL    HW259576  10.211   2.462   3.274
52582SOL     OW59577  10.341   1.324   3.656
52582SOL    HW159578  10.320   1.417   3.648
52582SOL    HW259579  10.272   1.288   3.712
52583SOL     OW59580   7.178  12.795   5.403
52583SOL    HW159581   7.246  12.735   5.434
52583SOL    HW259582   7.146  12.839   5.482
52584SOL     OW59583  11.879   1.961  10.212
52584SOL    HW159584  11.838   1.875  10.204
52584SOL    HW259585  11.820   2.020  10.165
52585SOL     OW59586   4.173   7.961   5.279
52585SOL    HW159587   4.078   7.950   5.273
52585SOL    HW259588   4.206   7.877   5.312
52586SOL     OW59589   3.130   9.055   6.899
52586SOL    HW159590   3.162   9.142   6.922
52586SOL    HW259591   3.073   9.030   6.972
52587SOL     OW59592   2.331  10.647  10.912
52587SOL    HW159593   2.421  10.664  10.885
52587SOL    HW259594   2.317  10.554  10.894
52588SOL     OW59595   2.235   1.913   1.452
52588SOL    HW159596   2.303   1.860   1.410
52588SOL    HW259597   2.178   1.940   1.380
52589SOL     OW59598  11.045   0.264   9.473
52589SOL    HW159599  10.959   0.306   9.468
52589SOL    HW259600  11.098   0.324   9.525
52590SOL     OW59601   3.216   8.256   9.319
52590SOL    HW159602   3.290   8.313   9.340
52590SOL    HW259603   3.234   8.226   9.230
52591SOL     OW59604   2.666   7.967   8.051
52591SOL    HW159605   2.643   8.040   8.108
52591SOL    HW259606   2.698   7.899   8.110
52592SOL     OW59607   4.349   5.834   6.709
52592SOL    HW159608   4.362   5.739   6.717
52592SOL    HW259609   4.273   5.853   6.764
52593SOL     OW59610  12.842   4.054   4.400
52593SOL    HW159611  12.870   3.965   4.420
52593SOL    HW259612  12.905   4.110   4.445
52594SOL     OW59613  14.591   3.565   8.316
52594SOL    HW159614  14.626   3.477   8.331
52594SOL    HW259615  14.496   3.553   8.320
52595SOL     OW59616   5.868  10.552   4.463
52595SOL    HW159617   5.933  10.568   4.532
52595SOL    HW259618   5.789  10.595   4.494
52596SOL     OW59619  10.986  10.955   7.641
52596SOL    HW159620  10.918  10.897   7.607
52596SOL    HW259621  11.066  10.904   7.637
52597SOL     OW59622   4.683  12.724  12.993
52597SOL    HW159623   4.692  12.714  13.088
52597SOL    HW259624   4.767  12.760  12.965
52598SOL     OW59625   4.884  11.411   9.716
52598SOL    HW159626   4.847  11.371   9.637
52598SOL    HW259627   4.860  11.503   9.709
52599SOL     OW59628  12.073   1.506   5.431
52599SOL    HW159629  12.087   1.594   5.465
52599SOL    HW259630  12.121   1.449   5.491
52600SOL     OW59631  14.751  13.841  13.140
52600SOL    HW159632  14.820  13.775  13.141
52600SOL    HW259633  14.694  13.817  13.212
52601SOL     OW59634   4.587   8.334  14.188
52601SOL    HW159635   4.567   8.276  14.262
52601SOL    HW259636   4.540   8.415  14.207
52602SOL     OW59637   8.475  13.464  13.769
52602SOL    HW159638   8.442  13.374  13.773
52602SOL    HW259639   8.470  13.495  13.859
52603SOL     OW59640   2.095   9.623   6.053
52603SOL    HW159641   2.003   9.623   6.079
52603SOL    HW259642   2.137   9.684   6.113
52604SOL     OW59643  14.498   4.812   5.736
52604SOL    HW159644  14.410   4.807   5.774
52604SOL    HW259645  14.556   4.820   5.811
52605SOL     OW59646  10.635   2.334  12.281
52605SOL    HW159647  10.574   2.359  12.350
52605SOL    HW259648  10.676   2.416  12.254
52606SOL     OW59649  11.118   6.045   3.243
52606SOL    HW159650  11.101   6.139   3.231
52606SOL    HW259651  11.213   6.038   3.240
52607SOL     OW59652  11.361   5.241   1.323
52607SOL    HW159653  11.337   5.152   1.350
52607SOL    HW259654  11.357   5.293   1.403
52608SOL     OW59655   9.346   5.992  10.282
52608SOL    HW159656   9.397   6.068  10.311
52608SOL    HW259657   9.401   5.917  10.304
52609SOL     OW59658  12.147   5.138   0.887
52609SOL    HW159659  12.229   5.104   0.923
52609SOL    HW259660  12.078   5.096   0.938
52610SOL     OW59661   3.684   8.053   5.661
52610SOL    HW159662   3.625   8.117   5.701
52610SOL    HW259663   3.711   7.997   5.734
52611SOL     OW59664   8.779   8.409  10.732
52611SOL    HW159665   8.686   8.386  10.728
52611SOL    HW259666   8.824   8.325  10.740
52612SOL     OW59667   4.285  13.029   2.855
52612SOL    HW159668   4.313  13.069   2.773
52612SOL    HW259669   4.366  13.018   2.905
52613SOL     OW59670   7.084   2.042   8.837
52613SOL    HW159671   7.042   2.124   8.861
52613SOL    HW259672   7.020   1.974   8.858
52614SOL     OW59673  14.745  10.126   8.225
52614SOL    HW159674  14.738  10.178   8.305
52614SOL    HW259675  14.724  10.187   8.154
52615SOL     OW59676   0.616   3.961   0.532
52615SOL    HW159677   0.642   4.021   0.463
52615SOL    HW259678   0.642   3.874   0.500
52616SOL     OW59679   1.199   4.814   5.882
52616SOL    HW159680   1.227   4.763   5.959
52616SOL    HW259681   1.212   4.905   5.908
52617SOL     OW59682   5.879  14.360   3.327
52617SOL    HW159683   5.831  14.414   3.265
52617SOL    HW259684   5.969  14.394   3.323
52618SOL     OW59685  11.118   4.208   3.494
52618SOL    HW159686  11.124   4.170   3.581
52618SOL    HW259687  11.092   4.135   3.438
52619SOL     OW59688   4.922   7.177   9.878
52619SOL    HW159689   4.935   7.209   9.967
52619SOL    HW259690   4.908   7.082   9.889
52620SOL     OW59691   5.067  11.791   1.363
52620SOL    HW159692   5.148  11.826   1.326
52620SOL    HW259693   4.999  11.819   1.302
52621SOL     OW59694  11.229   5.169  10.895
52621SOL    HW159695  11.266   5.116  10.965
52621SOL    HW259696  11.246   5.260  10.921
52622SOL     OW59697  13.423  12.708   0.538
52622SOL    HW159698  13.440  12.756   0.619
52622SOL    HW259699  13.398  12.775   0.475
52623SOL     OW59700  12.395   8.193  14.101
52623SOL    HW159701  12.382   8.232  14.014
52623SOL    HW259702  12.475   8.141  14.094
52624SOL     OW59703   5.660   7.102  14.010
52624SOL    HW159704   5.720   7.030  13.991
52624SOL    HW259705   5.695   7.177  13.962
52625SOL     OW59706   3.684   8.490  12.056
52625SOL    HW159707   3.624   8.446  11.996
52625SOL    HW259708   3.632   8.502  12.136
52626SOL     OW59709   0.938  14.501  11.512
52626SOL    HW159710   0.973  14.452  11.438
52626SOL    HW259711   0.856  14.456  11.534
52627SOL     OW59712   8.648   0.401   0.143
52627SOL    HW159713   8.658   0.452   0.063
52627SOL    HW259714   8.727   0.419   0.193
52628SOL     OW59715  11.880  13.584  12.330
52628SOL    HW159716  11.855  13.671  12.300
52628SOL    HW259717  11.820  13.565  12.402
52629SOL     OW59718   4.191  12.720   1.744
52629SOL    HW159719   4.163  12.654   1.807
52629SOL    HW259720   4.117  12.731   1.685
52630SOL     OW59721  12.740  14.399   2.107
52630SOL    HW159722  12.818  14.396   2.051
52630SOL    HW259723  12.769  14.361   2.190
52631SOL     OW59724   1.532   5.641   9.798
52631SOL    HW159725   1.448   5.648   9.843
52631SOL    HW259726   1.525   5.702   9.725
52632SOL     OW59727  13.388   7.926  11.403
52632SOL    HW159728  13.436   7.970  11.474
52632SOL    HW259729  13.441   7.943  11.325
52633SOL     OW59730  12.959   7.999   2.997
52633SOL    HW159731  12.939   7.906   2.988
52633SOL    HW259732  12.995   8.024   2.912
52634SOL     OW59733   2.753   8.261   2.554
52634SOL    HW159734   2.691   8.277   2.483
52634SOL    HW259735   2.811   8.337   2.553
52635SOL     OW59736  14.317   3.927  14.558
52635SOL    HW159737  14.246   3.900  14.501
52635SOL    HW259738  14.280   3.996  14.612
52636SOL     OW59739  14.659   6.532   6.614
52636SOL    HW159740  14.669   6.605   6.675
52636SOL    HW259741  14.744   6.488   6.616
52637SOL     OW59742   3.648  12.798   2.691
52637SOL    HW159743   3.579  12.773   2.752
52637SOL    HW259744   3.726  12.751   2.722
52638SOL     OW59745   0.537   3.160   7.451
52638SOL    HW159746   0.561   3.251   7.469
52638SOL    HW259747   0.615   3.110   7.475
52639SOL     OW59748   1.786   6.478   7.841
52639SOL    HW159749   1.816   6.485   7.751
52639SOL    HW259750   1.865   6.491   7.894
52640SOL     OW59751   7.558   2.322   9.292
52640SOL    HW159752   7.518   2.351   9.374
52640SOL    HW259753   7.573   2.228   9.305
52641SOL     OW59754   7.227   0.240   3.316
52641SOL    HW159755   7.172   0.230   3.394
52641SOL    HW259756   7.306   0.284   3.349
52642SOL     OW59757  14.014   5.193   4.305
52642SOL    HW159758  13.969   5.215   4.387
52642SOL    HW259759  14.072   5.268   4.289
52643SOL     OW59760   8.172  10.962   6.125
52643SOL    HW159761   8.264  10.945   6.104
52643SOL    HW259762   8.175  11.024   6.197
52644SOL     OW59763   4.007   1.598  11.384
52644SOL    HW159764   4.067   1.560  11.448
52644SOL    HW259765   4.020   1.693  11.392
52645SOL     OW59766   8.427   4.297   6.823
52645SOL    HW159767   8.436   4.287   6.729
52645SOL    HW259768   8.348   4.249   6.845
52646SOL     OW59769   1.898   6.862   3.019
52646SOL    HW159770   1.894   6.798   3.090
52646SOL    HW259771   1.991   6.887   3.015
52647SOL     OW59772   6.513   3.350   6.568
52647SOL    HW159773   6.585   3.397   6.612
52647SOL    HW259774   6.443   3.348   6.633
52648SOL     OW59775   8.045  10.606   2.063
52648SOL    HW159776   8.047  10.566   1.976
52648SOL    HW259777   8.130  10.584   2.102
52649SOL     OW59778   3.503   3.592   7.634
52649SOL    HW159779   3.558   3.514   7.628
52649SOL    HW259780   3.559   3.658   7.675
52650SOL     OW59781  14.808  10.891   1.881
52650SOL    HW159782   0.009  10.830   1.884
52650SOL    HW259783  14.848  10.977   1.868
52651SOL     OW59784   0.260   1.621  10.336
52651SOL    HW159785   0.272   1.636  10.430
52651SOL    HW259786   0.174   1.657  10.316
52652SOL     OW59787   5.548   5.713   4.152
52652SOL    HW159788   5.623   5.752   4.107
52652SOL    HW259789   5.487   5.691   4.082
52653SOL     OW59790   0.575   1.511   2.305
52653SOL    HW159791   0.633   1.463   2.245
52653SOL    HW259792   0.488   1.504   2.266
52654SOL     OW59793   8.534  13.852  11.751
52654SOL    HW159794   8.590  13.774  11.753
52654SOL    HW259795   8.526  13.877  11.843
52655SOL     OW59796  14.609  10.890   4.188
52655SOL    HW159797  14.694  10.924   4.162
52655SOL    HW259798  14.571  10.959   4.242
52656SOL     OW59799  14.200   0.879  11.849
52656SOL    HW159800  14.271   0.878  11.785
52656SOL    HW259801  14.237   0.837  11.926
52657SOL     OW59802  13.153  12.364   5.175
52657SOL    HW159803  13.139  12.450   5.215
52657SOL    HW259804  13.200  12.383   5.094
52658SOL     OW59805  10.878   2.624   7.793
52658SOL    HW159806  10.863   2.631   7.698
52658SOL    HW259807  10.833   2.543   7.817
52659SOL     OW59808   3.707   8.590  10.006
52659SOL    HW159809   3.727   8.538  10.083
52659SOL    HW259810   3.736   8.678  10.029
52660SOL     OW59811  12.883  13.116   6.891
52660SOL    HW159812  12.977  13.134   6.894
52660SOL    HW259813  12.872  13.054   6.819
52661SOL     OW59814  10.628  11.976   0.405
52661SOL    HW159815  10.640  11.889   0.367
52661SOL    HW259816  10.590  12.028   0.335
52662SOL     OW59817   1.815  13.671  13.672
52662SOL    HW159818   1.821  13.744  13.734
52662SOL    HW259819   1.727  13.677  13.636
52663SOL     OW59820   1.580   6.508   1.397
52663SOL    HW159821   1.668   6.477   1.376
52663SOL    HW259822   1.564   6.578   1.333
52664SOL     OW59823  14.471  14.780   3.508
52664SOL    HW159824  14.438  14.822   3.587
52664SOL    HW259825  14.399  14.787   3.445
52665SOL     OW59826   7.026   9.177  11.205
52665SOL    HW159827   6.998   9.199  11.294
52665SOL    HW259828   7.112   9.135  11.217
52666SOL     OW59829  11.483   8.414  12.735
52666SOL    HW159830  11.488   8.505  12.764
52666SOL    HW259831  11.394   8.404  12.701
52667SOL     OW59832  14.757   9.722  13.516
52667SOL    HW159833  14.795   9.647  13.562
52667SOL    HW259834  14.714   9.684  13.439
52668SOL     OW59835  11.637   5.785  13.443
52668SOL    HW159836  11.542   5.798  13.449
52668SOL    HW259837  11.647   5.716  13.378
52669SOL     OW59838   8.884   1.621  14.199
52669SOL    HW159839   8.841   1.538  14.221
52669SOL    HW259840   8.914   1.609  14.109
52670SOL     OW59841   1.823   5.345  12.245
52670SOL    HW159842   1.914   5.358  12.220
52670SOL    HW259843   1.773   5.397  12.182
52671SOL     OW59844   1.325   2.226   0.520
52671SOL    HW159845   1.237   2.257   0.540
52671SOL    HW259846   1.314   2.168   0.444
52672SOL     OW59847   0.901   5.004   1.871
52672SOL    HW159848   0.946   5.084   1.847
52672SOL    HW259849   0.814   5.033   1.900
52673SOL     OW59850  11.118  14.134   3.411
52673SOL    HW159851  11.151  14.194   3.345
52673SOL    HW259852  11.167  14.155   3.490
52674SOL     OW59853   7.452   9.602   0.704
52674SOL    HW159854   7.465   9.675   0.643
52674SOL    HW259855   7.540   9.581   0.736
52675SOL     OW59856  13.665  14.707   8.294
52675SOL    HW159857  13.690  14.770   8.227
52675SOL    HW259858  13.649  14.626   8.245
52676SOL     OW59859  11.524  12.305  14.105
52676SOL    HW159860  11.448  12.247  14.093
52676SOL    HW259861  11.590  12.250  14.147
52677SOL     OW59862  10.817   0.292  13.739
52677SOL    HW159863  10.792   0.204  13.709
52677SOL    HW259864  10.781   0.297  13.827
52678SOL     OW59865   2.595   8.404   8.714
52678SOL    HW159866   2.526   8.441   8.769
52678SOL    HW259867   2.676   8.424   8.759
52679SOL     OW59868  14.284   4.131  11.277
52679SOL    HW159869  14.363   4.137  11.223
52679SOL    HW259870  14.276   4.038  11.297
52680SOL     OW59871   3.711   8.594   1.671
52680SOL    HW159872   3.674   8.669   1.717
52680SOL    HW259873   3.803   8.592   1.699
52681SOL     OW59874  14.342   5.067   5.264
52681SOL    HW159875  14.301   5.151   5.244
52681SOL    HW259876  14.433   5.078   5.238
52682SOL     OW59877   7.399   8.392   6.098
52682SOL    HW159878   7.422   8.405   6.190
52682SOL    HW259879   7.396   8.481   6.062
52683SOL     OW59880  11.958  10.866  13.079
52683SOL    HW159881  12.008  10.896  13.154
52683SOL    HW259882  11.946  10.944  13.025
52684SOL     OW59883   2.717   5.270   0.997
52684SOL    HW159884   2.686   5.344   1.049
52684SOL    HW259885   2.637   5.229   0.964
52685SOL     OW59886   0.611   6.823   3.670
52685SOL    HW159887   0.615   6.748   3.730
52685SOL    HW259888   0.541   6.800   3.609
52686SOL     OW59889  13.946   7.982  12.909
52686SOL    HW159890  13.949   7.893  12.945
52686SOL    HW259891  13.996   8.034  12.972
52687SOL     OW59892  11.627   7.350   5.017
52687SOL    HW159893  11.720   7.331   5.001
52687SOL    HW259894  11.627   7.422   5.080
52688SOL     OW59895   2.110  11.986  14.275
52688SOL    HW159896   2.124  12.080  14.261
52688SOL    HW259897   2.155  11.967  14.357
52689SOL     OW59898   0.036   0.064   1.675
52689SOL    HW159899   0.075   0.151   1.666
52689SOL    HW259900   0.086   0.009   1.614
52690SOL     OW59901  11.653  14.210   0.549
52690SOL    HW159902  11.719  14.155   0.591
52690SOL    HW259903  11.629  14.274   0.616
52691SOL     OW59904  14.336   0.169   8.892
52691SOL    HW159905  14.267   0.155   8.957
52691SOL    HW259906  14.291   0.206   8.816
52692SOL     OW59907   3.083   7.116   5.986
52692SOL    HW159908   3.171   7.145   5.963
52692SOL    HW259909   3.066   7.156   6.072
52693SOL     OW59910  14.611  11.746   3.030
52693SOL    HW159911  14.664  11.669   3.050
52693SOL    HW259912  14.558  11.720   2.955
52694SOL     OW59913  12.536   5.662   1.915
52694SOL    HW159914  12.582   5.600   1.971
52694SOL    HW259915  12.457   5.686   1.966
52695SOL     OW59916  11.797   7.676  13.778
52695SOL    HW159917  11.734   7.712  13.715
52695SOL    HW259918  11.762   7.589  13.799
52696SOL     OW59919   6.661   2.821  12.783
52696SOL    HW159920   6.600   2.777  12.842
52696SOL    HW259921   6.741   2.829  12.834
52697SOL     OW59922  14.456  13.640   0.977
52697SOL    HW159923  14.505  13.721   0.967
52697SOL    HW259924  14.515  13.581   1.024
52698SOL     OW59925   1.842   9.507   6.566
52698SOL    HW159926   1.875   9.596   6.550
52698SOL    HW259927   1.850   9.495   6.660
52699SOL     OW59928   1.260   5.971   0.804
52699SOL    HW159929   1.170   5.966   0.771
52699SOL    HW259930   1.301   5.891   0.772
52700SOL     OW59931   0.810   4.456  10.231
52700SOL    HW159932   0.780   4.372  10.196
52700SOL    HW259933   0.745   4.477  10.298
52701SOL     OW59934   3.247   2.552   0.032
52701SOL    HW159935   3.341   2.568   0.027
52701SOL    HW259936   3.211   2.630   0.074
52702SOL     OW59937  12.181   5.826   2.551
52702SOL    HW159938  12.105   5.861   2.504
52702SOL    HW259939  12.144   5.768   2.617
52703SOL     OW59940   3.781   6.840   4.152
52703SOL    HW159941   3.773   6.935   4.166
52703SOL    HW259942   3.732   6.801   4.224
52704SOL     OW59943  13.101   0.506   1.030
52704SOL    HW159944  13.015   0.513   1.071
52704SOL    HW259945  13.120   0.595   1.001
52705SOL     OW59946   4.503   8.843   1.375
52705SOL    HW159947   4.417   8.848   1.332
52705SOL    HW259948   4.566   8.857   1.304
52706SOL     OW59949   8.776   3.946  11.934
52706SOL    HW159950   8.689   3.907  11.938
52706SOL    HW259951   8.761   4.038  11.914
52707SOL     OW59952   1.382  12.443   9.303
52707SOL    HW159953   1.372  12.353   9.273
52707SOL    HW259954   1.464  12.443   9.353
52708SOL     OW59955   8.619   1.354  12.776
52708SOL    HW159956   8.535   1.327  12.738
52708SOL    HW259957   8.677   1.367  12.701
52709SOL     OW59958   8.635  11.940   6.228
52709SOL    HW159959   8.714  11.993   6.237
52709SOL    HW259960   8.638  11.908   6.138
52710SOL     OW59961   5.129  10.614  14.731
52710SOL    HW159962   5.122  10.696  14.780
52710SOL    HW259963   5.049  10.611  14.678
52711SOL     OW59964  10.355   8.109  10.686
52711SOL    HW159965  10.334   8.052  10.760
52711SOL    HW259966  10.312   8.067  10.611
52712SOL     OW59967  11.204  11.204   4.527
52712SOL    HW159968  11.260  11.227   4.602
52712SOL    HW259969  11.184  11.288   4.486
52713SOL     OW59970   3.910  11.488   9.429
52713SOL    HW159971   3.904  11.526   9.517
52713SOL    HW259972   3.826  11.443   9.416
52714SOL     OW59973   4.508   4.598   2.072
52714SOL    HW159974   4.517   4.622   1.980
52714SOL    HW259975   4.472   4.676   2.114
52715SOL     OW59976  12.831   5.467   3.708
52715SOL    HW159977  12.776   5.488   3.632
52715SOL    HW259978  12.919   5.460   3.673
52716SOL     OW59979   6.426   8.750  12.639
52716SOL    HW159980   6.409   8.710  12.553
52716SOL    HW259981   6.417   8.844  12.623
52717SOL     OW59982  11.207   8.945   4.688
52717SOL    HW159983  11.224   8.920   4.779
52717SOL    HW259984  11.203   9.041   4.691
52718SOL     OW59985   2.028  10.551  11.146
52718SOL    HW159986   2.080  10.487  11.096
52718SOL    HW259987   2.014  10.623  11.085
52719SOL     OW59988   4.580  13.136  12.797
52719SOL    HW159989   4.618  13.065  12.746
52719SOL    HW259990   4.616  13.126  12.884
52720SOL     OW59991   0.739  12.453   3.485
52720SOL    HW159992   0.711  12.544   3.480
52720SOL    HW259993   0.708  12.422   3.570
52721SOL     OW59994   4.913   2.100  13.348
52721SOL    HW159995   4.851   2.029  13.331
52721SOL    HW259996   4.970   2.067  13.417
52722SOL     OW59997   3.037   2.192   3.964
52722SOL    HW159998   3.120   2.147   3.981
52722SOL    HW259999   2.973   2.143   4.015
52723SOL     OW60000  10.566  11.507  11.399
52723SOL    HW160001  10.576  11.595  11.362
52723SOL    HW260002  10.478  11.506  11.436
52724SOL     OW60003   1.666  11.456  10.946
52724SOL    HW160004   1.592  11.488  10.998
52724SOL    HW260005   1.651  11.362  10.939
52725SOL     OW60006   9.537   8.976   3.357
52725SOL    HW160007   9.590   8.897   3.361
52725SOL    HW260008   9.599   9.046   3.335
52726SOL     OW60009   1.289   2.442   6.581
52726SOL    HW160010   1.241   2.449   6.664
52726SOL    HW260011   1.377   2.476   6.601
52727SOL     OW60012   6.190   3.908  12.902
52727SOL    HW160013   6.236   3.857  12.968
52727SOL    HW260014   6.107   3.933  12.944
52728SOL     OW60015   2.430   4.349   4.824
52728SOL    HW160016   2.383   4.367   4.905
52728SOL    HW260017   2.417   4.427   4.771
52729SOL     OW60018   7.773   1.048   3.075
52729SOL    HW160019   7.840   1.026   3.010
52729SOL    HW260020   7.736   1.131   3.044
52730SOL     OW60021  10.663  11.071   4.204
52730SOL    HW160022  10.628  11.099   4.289
52730SOL    HW260023  10.756  11.054   4.221
52731SOL     OW60024   6.271   1.639  13.437
52731SOL    HW160025   6.362   1.668  13.425
52731SOL    HW260026   6.277   1.573  13.506
52732SOL     OW60027   7.038  11.141   8.820
52732SOL    HW160028   7.043  11.068   8.757
52732SOL    HW260029   6.973  11.112   8.884
52733SOL     OW60030  13.771   9.344   7.031
52733SOL    HW160031  13.830   9.415   7.058
52733SOL    HW260032  13.817   9.264   7.054
52734SOL     OW60033   5.493   4.274   0.826
52734SOL    HW160034   5.472   4.250   0.736
52734SOL    HW260035   5.587   4.263   0.833
52735SOL     OW60036   4.239   3.439   6.367
52735SOL    HW160037   4.207   3.420   6.279
52735SOL    HW260038   4.294   3.364   6.389
52736SOL     OW60039   4.000   4.797  12.438
52736SOL    HW160040   3.953   4.716  12.417
52736SOL    HW260041   3.948   4.838  12.507
52737SOL     OW60042   1.304   4.507   0.789
52737SOL    HW160043   1.299   4.465   0.875
52737SOL    HW260044   1.335   4.595   0.806
52738SOL     OW60045  13.695  11.588   5.994
52738SOL    HW160046  13.707  11.551   6.081
52738SOL    HW260047  13.600  11.587   5.980
52739SOL     OW60048   4.206   7.724   9.005
52739SOL    HW160049   4.220   7.775   8.926
52739SOL    HW260050   4.279   7.747   9.063
52740SOL     OW60051  13.729  10.499  11.623
52740SOL    HW160052  13.670  10.524  11.694
52740SOL    HW260053  13.790  10.437  11.664
52741SOL     OW60054  14.095   2.841   7.653
52741SOL    HW160055  14.154   2.770   7.628
52741SOL    HW260056  14.146   2.893   7.715
52742SOL     OW60057   0.236   8.044   3.233
52742SOL    HW160058   0.158   8.019   3.282
52742SOL    HW260059   0.209   8.121   3.183
52743SOL     OW60060  11.933   7.936   3.486
52743SOL    HW160061  11.927   7.959   3.579
52743SOL    HW260062  11.962   8.016   3.443
52744SOL     OW60063  12.886   9.920   9.353
52744SOL    HW160064  12.810   9.951   9.403
52744SOL    HW260065  12.928   9.856   9.411
52745SOL     OW60066   2.611  13.509   1.751
52745SOL    HW160067   2.651  13.554   1.825
52745SOL    HW260068   2.519  13.500   1.776
52746SOL     OW60069   0.768   0.862   0.285
52746SOL    HW160070   0.745   0.778   0.244
52746SOL    HW260071   0.864   0.863   0.283
52747SOL     OW60072  10.257   6.226   7.032
52747SOL    HW160073  10.179   6.171   7.026
52747SOL    HW260074  10.260   6.273   6.948
52748SOL     OW60075   1.543  13.047   9.062
52748SOL    HW160076   1.451  13.051   9.091
52748SOL    HW260077   1.575  13.137   9.073
52749SOL     OW60078   5.907   6.719   0.866
52749SOL    HW160079   5.900   6.809   0.896
52749SOL    HW260080   5.925   6.726   0.772
52750SOL     OW60081   7.992   7.055   0.638
52750SOL    HW160082   7.990   7.143   0.599
52750SOL    HW260083   8.086   7.036   0.646
52751SOL     OW60084   4.995   4.221  14.643
52751SOL    HW160085   5.083   4.258  14.631
52751SOL    HW260086   5.004   4.130  14.614
52752SOL     OW60087   8.698   6.808   6.167
52752SOL    HW160088   8.629   6.743   6.157
52752SOL    HW260089   8.749   6.778   6.243
52753SOL     OW60090   2.360   2.511   0.246
52753SOL    HW160091   2.386   2.435   0.298
52753SOL    HW260092   2.290   2.479   0.189
52754SOL     OW60093   1.783  14.679   5.376
52754SOL    HW160094   1.695  14.665   5.410
52754SOL    HW260095   1.797  14.774   5.383
52755SOL     OW60096   2.978  11.969   1.398
52755SOL    HW160097   3.013  11.881   1.412
52755SOL    HW260098   3.033  12.026   1.452
52756SOL     OW60099  13.935   2.404   7.303
52756SOL    HW160100  13.964   2.473   7.363
52756SOL    HW260101  13.978   2.424   7.220
52757SOL     OW60102  12.314   0.242  14.642
52757SOL    HW160103  12.322   0.154  14.606
52757SOL    HW260104  12.333   0.300  14.569
52758SOL     OW60105   0.910  14.083   1.351
52758SOL    HW160106   0.873  14.158   1.304
52758SOL    HW260107   0.887  14.099   1.443
52759SOL     OW60108   6.306   1.806   6.074
52759SOL    HW160109   6.364   1.784   6.001
52759SOL    HW260110   6.356   1.782   6.152
52760SOL     OW60111  10.306   8.352  14.779
52760SOL    HW160112  10.215   8.325  14.767
52760SOL    HW260113  10.357   8.286  14.733
52761SOL     OW60114   2.282  14.043   6.328
52761SOL    HW160115   2.368  14.001   6.322
52761SOL    HW260116   2.222  13.980   6.291
52762SOL     OW60117  14.801  10.822   4.703
52762SOL    HW160118  14.840  10.817   4.616
52762SOL    HW260119  14.753  10.905   4.703
52763SOL     OW60120   9.980   0.577  14.183
52763SOL    HW160121   9.921   0.604  14.113
52763SOL    HW260122  10.003   0.658  14.228
52764SOL     OW60123   7.819   5.035   9.763
52764SOL    HW160124   7.801   4.975   9.690
52764SOL    HW260125   7.909   5.065   9.748
52765SOL     OW60126   8.379   9.131   2.847
52765SOL    HW160127   8.423   9.101   2.768
52765SOL    HW260128   8.373   9.052   2.902
52766SOL     OW60129   1.394  10.765   5.072
52766SOL    HW160130   1.479  10.801   5.045
52766SOL    HW260131   1.416  10.694   5.132
52767SOL     OW60132   7.434  11.643   2.794
52767SOL    HW160133   7.347  11.629   2.831
52767SOL    HW260134   7.465  11.556   2.772
52768SOL     OW60135  11.872   3.172  10.746
52768SOL    HW160136  11.782   3.204  10.746
52768SOL    HW260137  11.922   3.238  10.793
52769SOL     OW60138   1.640   7.856   7.018
52769SOL    HW160139   1.623   7.947   6.992
52769SOL    HW260140   1.596   7.804   6.951
52770SOL     OW60141  11.719  11.823   8.757
52770SOL    HW160142  11.811  11.812   8.733
52770SOL    HW260143  11.671  11.774   8.690
52771SOL     OW60144  13.290   9.505  11.578
52771SOL    HW160145  13.205   9.495  11.621
52771SOL    HW260146  13.324   9.588  11.612
52772SOL     OW60147  10.960   6.150   4.560
52772SOL    HW160148  10.965   6.076   4.621
52772SOL    HW260149  11.051   6.178   4.549
52773SOL     OW60150   4.192   0.441   8.347
52773SOL    HW160151   4.110   0.406   8.313
52773SOL    HW260152   4.227   0.371   8.402
52774SOL     OW60153   1.878   6.048   4.651
52774SOL    HW160154   1.916   6.029   4.566
52774SOL    HW260155   1.903   5.972   4.705
52775SOL     OW60156  12.988   3.930  11.119
52775SOL    HW160157  12.906   3.975  11.136
52775SOL    HW260158  12.969   3.837  11.136
52776SOL     OW60159  12.990   7.287  13.642
52776SOL    HW160160  12.992   7.276  13.737
52776SOL    HW260161  12.897   7.295  13.621
52777SOL     OW60162  12.940  13.940  10.326
52777SOL    HW160163  12.924  13.850  10.355
52777SOL    HW260164  12.958  13.932  10.232
52778SOL     OW60165   3.867  14.025   4.225
52778SOL    HW160166   3.776  14.046   4.243
52778SOL    HW260167   3.909  14.023   4.311
52779SOL     OW60168  12.976  11.858   5.011
52779SOL    HW160169  13.051  11.804   4.985
52779SOL    HW260170  13.013  11.946   5.022
52780SOL     OW60171   1.759   1.056  13.217
52780SOL    HW160172   1.770   1.071  13.311
52780SOL    HW260173   1.849   1.046  13.184
52781SOL     OW60174  14.422   7.472   8.221
52781SOL    HW160175  14.366   7.402   8.187
52781SOL    HW260176  14.409   7.545   8.161
52782SOL     OW60177   0.138  11.663  14.689
52782SOL    HW160178   0.064  11.722  14.675
52782SOL    HW260179   0.163  11.636  14.600
52783SOL     OW60180   6.644   6.631   8.909
52783SOL    HW160181   6.565   6.665   8.949
52783SOL    HW260182   6.710   6.699   8.924
52784SOL     OW60183  10.503   5.339  14.845
52784SOL    HW160184  10.501   5.261  14.789
52784SOL    HW260185  10.520   5.411  14.784
52785SOL     OW60186   1.046   8.001  14.033
52785SOL    HW160187   0.998   7.966  13.958
52785SOL    HW260188   1.078   8.086  14.003
52786SOL     OW60189   8.434   8.383   1.732
52786SOL    HW160190   8.504   8.339   1.780
52786SOL    HW260191   8.465   8.473   1.722
52787SOL     OW60192   9.322   0.334   1.647
52787SOL    HW160193   9.319   0.430   1.647
52787SOL    HW260194   9.283   0.309   1.731
52788SOL     OW60195   7.802   4.019   3.506
52788SOL    HW160196   7.808   3.985   3.417
52788SOL    HW260197   7.893   4.039   3.529
52789SOL     OW60198   0.184  14.381  14.858
52789SOL    HW160199   0.218  14.454   0.037
52789SOL    HW260200   0.106  14.352   0.033
52790SOL     OW60201   0.826   2.668   7.478
52790SOL    HW160202   0.809   2.630   7.391
52790SOL    HW260203   0.775   2.614   7.538
52791SOL     OW60204   7.078   3.743  11.354
52791SOL    HW160205   7.047   3.748  11.263
52791SOL    HW260206   7.000   3.763  11.406
52792SOL     OW60207   7.312   8.713   6.492
52792SOL    HW160208   7.275   8.654   6.425
52792SOL    HW260209   7.400   8.679   6.507
52793SOL     OW60210   8.303   5.560   8.590
52793SOL    HW160211   8.364   5.595   8.656
52793SOL    HW260212   8.334   5.596   8.507
52794SOL     OW60213  10.421   9.692   0.446
52794SOL    HW160214  10.482   9.690   0.372
52794SOL    HW260215  10.404   9.785   0.461
52795SOL     OW60216   6.269  10.271   9.817
52795SOL    HW160217   6.338  10.298   9.878
52795SOL    HW260218   6.189  10.311   9.851
52796SOL     OW60219   7.754  13.641   3.479
52796SOL    HW160220   7.668  13.626   3.440
52796SOL    HW260221   7.765  13.571   3.542
52797SOL     OW60222   7.959   4.920   9.160
52797SOL    HW160223   8.047   4.943   9.189
52797SOL    HW260224   7.931   4.995   9.107
52798SOL     OW60225  11.753   3.397  11.629
52798SOL    HW160226  11.680   3.336  11.635
52798SOL    HW260227  11.768   3.425  11.720
52799SOL     OW60228  13.750   9.766   3.468
52799SOL    HW160229  13.825   9.820   3.443
52799SOL    HW260230  13.685   9.829   3.499
52800SOL     OW60231   8.410   8.271   6.527
52800SOL    HW160232   8.463   8.226   6.461
52800SOL    HW260233   8.425   8.364   6.511
52801SOL     OW60234   2.852  14.295  11.542
52801SOL    HW160235   2.856  14.310  11.637
52801SOL    HW260236   2.847  14.382  11.504
52802SOL     OW60237   7.733   2.658   3.017
52802SOL    HW160238   7.704   2.676   3.107
52802SOL    HW260239   7.722   2.563   3.007
52803SOL     OW60240  13.300  12.305  11.554
52803SOL    HW160241  13.276  12.340  11.468
52803SOL    HW260242  13.394  12.324  11.561
52804SOL     OW60243   4.457   8.829   7.446
52804SOL    HW160244   4.413   8.818   7.362
52804SOL    HW260245   4.548   8.848   7.423
52805SOL     OW60246   0.033   9.374   7.259
52805SOL    HW160247   0.035   9.446   7.197
52805SOL    HW260248   0.103   9.393   7.322
52806SOL     OW60249  10.335   1.338   6.678
52806SOL    HW160250  10.287   1.418   6.657
52806SOL    HW260251  10.423   1.368   6.700
52807SOL     OW60252   9.407  10.890   5.317
52807SOL    HW160253   9.317  10.915   5.298
52807SOL    HW260254   9.434  10.840   5.240
52808SOL     OW60255   7.742  12.653   3.076
52808SOL    HW160256   7.703  12.620   3.158
52808SOL    HW260257   7.668  12.692   3.029
52809SOL     OW60258   9.746  12.872   9.996
52809SOL    HW160259   9.811  12.829   9.940
52809SOL    HW260260   9.669  12.881   9.940
52810SOL     OW60261   8.579   7.104   5.002
52810SOL    HW160262   8.531   7.021   5.012
52810SOL    HW260263   8.535   7.149   4.930
52811SOL     OW60264   0.736  11.011   8.373
52811SOL    HW160265   0.709  10.940   8.315
52811SOL    HW260266   0.831  11.001   8.382
52812SOL     OW60267  12.762   9.472   2.572
52812SOL    HW160268  12.851   9.509   2.575
52812SOL    HW260269  12.705   9.547   2.587
52813SOL     OW60270  13.900   9.278   9.577
52813SOL    HW160271  13.867   9.196   9.613
52813SOL    HW260272  13.884   9.342   9.645
52814SOL     OW60273   5.066   0.034  11.837
52814SOL    HW160274   5.015   0.017  11.916
52814SOL    HW260275   5.156   0.042  11.868
52815SOL     OW60276   4.237  14.357   9.208
52815SOL    HW160277   4.183  14.312   9.144
52815SOL    HW260278   4.187  14.435   9.232
52816SOL     OW60279  12.168  13.732   7.262
52816SOL    HW160280  12.206  13.710   7.346
52816SOL    HW260281  12.138  13.649   7.226
52817SOL     OW60282   5.566   9.999  11.206
52817SOL    HW160283   5.645   9.945  11.206
52817SOL    HW260284   5.541  10.007  11.298
52818SOL     OW60285  13.263  14.686  11.585
52818SOL    HW160286  13.264  14.775  11.548
52818SOL    HW260287  13.290  14.698  11.676
52819SOL     OW60288   8.295  10.836  13.362
52819SOL    HW160289   8.271  10.890  13.286
52819SOL    HW260290   8.227  10.769  13.366
52820SOL     OW60291   5.968  11.671   6.556
52820SOL    HW160292   5.904  11.740   6.571
52820SOL    HW260293   6.046  11.718   6.524
52821SOL     OW60294   0.748  14.799  11.139
52821SOL    HW160295   0.813  14.836  11.198
52821SOL    HW260296   0.753  14.705  11.152
52822SOL     OW60297  10.861   2.596   8.695
52822SOL    HW160298  10.884   2.688   8.678
52822SOL    HW260299  10.783   2.581   8.642
52823SOL     OW60300   5.634  14.039  11.323
52823SOL    HW160301   5.679  13.960  11.355
52823SOL    HW260302   5.578  14.008  11.252
52824SOL     OW60303  11.341   9.497   7.472
52824SOL    HW160304  11.299   9.432   7.416
52824SOL    HW260305  11.271   9.559   7.493
52825SOL     OW60306   4.986  13.839  10.100
52825SOL    HW160307   4.964  13.893  10.024
52825SOL    HW260308   4.953  13.888  10.175
52826SOL     OW60309   7.120   3.265   3.351
52826SOL    HW160310   7.155   3.231   3.269
52826SOL    HW260311   7.091   3.188   3.399
52827SOL     OW60312   6.558   2.548  12.537
52827SOL    HW160313   6.632   2.606  12.520
52827SOL    HW260314   6.522   2.578  12.620
52828SOL     OW60315   8.757   1.394  14.325
52828SOL    HW160316   8.794   1.306  14.324
52828SOL    HW260317   8.713   1.403  14.241
52829SOL     OW60318   7.062   0.864  12.478
52829SOL    HW160319   7.037   0.924  12.548
52829SOL    HW260320   7.015   0.783  12.497
52830SOL     OW60321  13.436   9.586   1.615
52830SOL    HW160322  13.401   9.648   1.679
52830SOL    HW260323  13.522   9.563   1.649
52831SOL     OW60324  14.428  10.083   3.106
52831SOL    HW160325  14.418  10.140   3.029
52831SOL    HW260326  14.341  10.080   3.145
52832SOL     OW60327   7.269  11.639   4.013
52832SOL    HW160328   7.339  11.579   3.987
52832SOL    HW260329   7.197  11.582   4.039
52833SOL     OW60330  12.223   8.050   0.443
52833SOL    HW160331  12.278   7.973   0.457
52833SOL    HW260332  12.159   8.021   0.377
52834SOL     OW60333   7.325   6.671  13.669
52834SOL    HW160334   7.263   6.738  13.642
52834SOL    HW260335   7.329   6.677  13.765
52835SOL     OW60336  11.651   1.655   7.887
52835SOL    HW160337  11.680   1.621   7.972
52835SOL    HW260338  11.730   1.654   7.833
52836SOL     OW60339   6.702   7.526  10.641
52836SOL    HW160340   6.657   7.596  10.592
52836SOL    HW260341   6.645   7.509  10.716
52837SOL     OW60342   0.344   4.188   2.088
52837SOL    HW160343   0.273   4.235   2.131
52837SOL    HW260344   0.408   4.256   2.066
52838SOL     OW60345  13.081   4.078   7.766
52838SOL    HW160346  13.107   4.146   7.704
52838SOL    HW260347  13.047   4.127   7.841
52839SOL     OW60348  12.689  12.250   5.726
52839SOL    HW160349  12.745  12.264   5.803
52839SOL    HW260350  12.621  12.190   5.757
52840SOL     OW60351   9.626   5.246  10.724
52840SOL    HW160352   9.681   5.324  10.726
52840SOL    HW260353   9.595   5.235  10.814
52841SOL     OW60354   1.752   3.510  13.754
52841SOL    HW160355   1.703   3.456  13.691
52841SOL    HW260356   1.688   3.533  13.821
52842SOL     OW60357   6.297   9.891  12.789
52842SOL    HW160358   6.239   9.966  12.801
52842SOL    HW260359   6.385   9.928  12.791
52843SOL     OW60360  11.436  14.400   7.744
52843SOL    HW160361  11.484  14.403   7.827
52843SOL    HW260362  11.350  14.438   7.766
52844SOL     OW60363   5.688   3.540  10.779
52844SOL    HW160364   5.713   3.610  10.840
52844SOL    HW260365   5.599   3.563  10.751
52845SOL     OW60366   1.841   4.823   2.191
52845SOL    HW160367   1.803   4.907   2.213
52845SOL    HW260368   1.766   4.764   2.184
52846SOL     OW60369   3.233  11.903   2.042
52846SOL    HW160370   3.253  11.959   2.117
52846SOL    HW260371   3.195  11.962   1.977
52847SOL     OW60372  13.577   2.995  11.063
52847SOL    HW160373  13.611   2.927  11.121
52847SOL    HW260374  13.590   2.961  10.975
52848SOL     OW60375   6.089   3.912   2.003
52848SOL    HW160376   6.088   4.007   1.989
52848SOL    HW260377   6.168   3.897   2.055
52849SOL     OW60378  12.304  10.142   7.091
52849SOL    HW160379  12.331  10.230   7.061
52849SOL    HW260380  12.256  10.106   7.017
52850SOL     OW60381   8.966  12.411  11.616
52850SOL    HW160382   8.966  12.495  11.570
52850SOL    HW260383   9.054  12.376  11.602
52851SOL     OW60384  11.928   0.990   5.392
52851SOL    HW160385  11.946   0.973   5.485
52851SOL    HW260386  11.964   0.914   5.346
52852SOL     OW60387  13.696  13.543   5.167
52852SOL    HW160388  13.653  13.504   5.091
52852SOL    HW260389  13.789  13.541   5.147
52853SOL     OW60390   3.816   5.492  11.989
52853SOL    HW160391   3.882   5.548  12.030
52853SOL    HW260392   3.740   5.500  12.046
52854SOL     OW60393   1.285   3.949   2.352
52854SOL    HW160394   1.356   3.985   2.300
52854SOL    HW260395   1.237   3.892   2.292
52855SOL     OW60396   0.024   4.537  10.573
52855SOL    HW160397   0.074   4.614  10.601
52855SOL    HW260398  14.809   4.550  10.610
52856SOL     OW60399  13.383  12.304   6.403
52856SOL    HW160400  13.440  12.378   6.424
52856SOL    HW260401  13.396  12.289   6.309
52857SOL     OW60402  11.115   5.020   2.643
52857SOL    HW160403  11.167   4.955   2.691
52857SOL    HW260404  11.179   5.080   2.605
52858SOL     OW60405   2.544  11.004  13.927
52858SOL    HW160406   2.604  10.948  13.976
52858SOL    HW260407   2.509  10.948  13.858
52859SOL     OW60408   4.684   9.977   9.101
52859SOL    HW160409   4.630  10.056   9.091
52859SOL    HW260410   4.667   9.926   9.022
52860SOL     OW60411   3.816  14.519   3.132
52860SOL    HW160412   3.882  14.471   3.183
52860SOL    HW260413   3.817  14.476   3.046
52861SOL     OW60414   1.371   9.857  11.150
52861SOL    HW160415   1.288   9.831  11.111
52861SOL    HW260416   1.422   9.893  11.077
52862SOL     OW60417   1.274   2.085  11.773
52862SOL    HW160418   1.234   2.122  11.851
52862SOL    HW260419   1.362   2.123  11.771
52863SOL     OW60420   4.709  13.346   5.586
52863SOL    HW160421   4.687  13.438   5.578
52863SOL    HW260422   4.650  13.301   5.525
52864SOL     OW60423   7.951   1.544   4.420
52864SOL    HW160424   7.886   1.473   4.421
52864SOL    HW260425   8.016   1.516   4.356
52865SOL     OW60426  13.296   8.150   9.247
52865SOL    HW160427  13.278   8.240   9.220
52865SOL    HW260428  13.234   8.097   9.197
52866SOL     OW60429  14.047  12.568   7.882
52866SOL    HW160430  14.012  12.479   7.891
52866SOL    HW260431  14.060  12.580   7.788
52867SOL     OW60432  10.161   9.866   6.848
52867SOL    HW160433  10.219   9.793   6.869
52867SOL    HW260434  10.082   9.850   6.900
52868SOL     OW60435   0.546   8.593   8.121
52868SOL    HW160436   0.474   8.576   8.061
52868SOL    HW260437   0.573   8.506   8.152
52869SOL     OW60438   7.372  10.380  10.546
52869SOL    HW160439   7.434  10.352  10.479
52869SOL    HW260440   7.356  10.301  10.598
52870SOL     OW60441   0.310  11.744   6.707
52870SOL    HW160442   0.277  11.828   6.739
52870SOL    HW260443   0.236  11.704   6.662
52871SOL     OW60444  10.450   2.999  10.118
52871SOL    HW160445  10.455   3.095  10.111
52871SOL    HW260446  10.446   2.982  10.212
52872SOL     OW60447   3.170   7.457   4.590
52872SOL    HW160448   3.112   7.391   4.629
52872SOL    HW260449   3.215   7.411   4.520
52873SOL     OW60450   8.388   1.768  14.792
52873SOL    HW160451   8.406   1.675  14.811
52873SOL    HW260452   8.312   1.766  14.734
52874SOL     OW60453   1.209   4.987   0.809
52874SOL    HW160454   1.190   4.991   0.716
52874SOL    HW260455   1.244   4.899   0.823
52875SOL     OW60456   5.568   0.744   2.814
52875SOL    HW160457   5.484   0.705   2.793
52875SOL    HW260458   5.600   0.694   2.889
52876SOL     OW60459   3.620   8.128   7.915
52876SOL    HW160460   3.635   8.046   7.868
52876SOL    HW260461   3.527   8.148   7.900
52877SOL     OW60462   8.006   4.348   2.931
52877SOL    HW160463   7.988   4.401   2.853
52877SOL    HW260464   8.076   4.289   2.904
52878SOL     OW60465  14.176   9.472   1.979
52878SOL    HW160466  14.118   9.447   2.051
52878SOL    HW260467  14.242   9.528   2.021
52879SOL     OW60468   8.485   0.377  11.067
52879SOL    HW160469   8.403   0.417  11.039
52879SOL    HW260470   8.500   0.306  11.004
52880SOL     OW60471  12.482  10.917   0.999
52880SOL    HW160472  12.433  10.888   1.076
52880SOL    HW260473  12.495  10.837   0.948
52881SOL     OW60474   1.077  11.954   1.667
52881SOL    HW160475   1.011  11.976   1.601
52881SOL    HW260476   1.119  12.037   1.688
52882SOL     OW60477  13.253  12.593  12.965
52882SOL    HW160478  13.255  12.576  12.871
52882SOL    HW260479  13.314  12.529  13.002
52883SOL     OW60480   9.684   6.535   8.716
52883SOL    HW160481   9.751   6.582   8.667
52883SOL    HW260482   9.729   6.457   8.749
52884SOL     OW60483   3.607  11.898   7.239
52884SOL    HW160484   3.695  11.872   7.210
52884SOL    HW260485   3.595  11.851   7.322
52885SOL     OW60486  14.170   3.536   8.634
52885SOL    HW160487  14.244   3.567   8.685
52885SOL    HW260488  14.121   3.480   8.694
52886SOL     OW60489   3.176   3.278   7.806
52886SOL    HW160490   3.189   3.197   7.755
52886SOL    HW260491   3.156   3.344   7.740
52887SOL     OW60492   3.567   9.129  10.151
52887SOL    HW160493   3.561   9.039  10.119
52887SOL    HW260494   3.486   9.142  10.199
52888SOL     OW60495   3.004   3.665   7.506
52888SOL    HW160496   3.000   3.690   7.413
52888SOL    HW260497   2.935   3.716   7.548
52889SOL     OW60498   0.221   8.802   6.263
52889SOL    HW160499   0.142   8.759   6.296
52889SOL    HW260500   0.276   8.813   6.341
52890SOL     OW60501   4.624   8.384  14.557
52890SOL    HW160502   4.538   8.423  14.569
52890SOL    HW260503   4.607   8.299  14.516
52891SOL     OW60504   5.622   9.186   8.203
52891SOL    HW160505   5.585   9.218   8.286
52891SOL    HW260506   5.663   9.263   8.164
52892SOL     OW60507   9.716   0.771   7.052
52892SOL    HW160508   9.740   0.745   7.141
52892SOL    HW260509   9.649   0.838   7.065
52893SOL     OW60510  12.912   1.439   5.552
52893SOL    HW160511  12.924   1.345   5.540
52893SOL    HW260512  12.909   1.451   5.647
52894SOL     OW60513   3.183   0.140  11.504
52894SOL    HW160514   3.098   0.151  11.548
52894SOL    HW260515   3.179   0.052  11.468
52895SOL     OW60516   9.205  10.402  13.150
52895SOL    HW160517   9.152  10.481  13.143
52895SOL    HW260518   9.181  10.364  13.235
52896SOL     OW60519   2.490   7.110   5.302
52896SOL    HW160520   2.479   7.197   5.262
52896SOL    HW260521   2.472   7.124   5.395
52897SOL     OW60522   7.926  13.729  10.833
52897SOL    HW160523   8.006  13.777  10.857
52897SOL    HW260524   7.889  13.702  10.917
52898SOL     OW60525  13.868   6.623  11.901
52898SOL    HW160526  13.782   6.585  11.921
52898SOL    HW260527  13.870   6.628  11.805
52899SOL     OW60528   5.747  10.735  10.029
52899SOL    HW160529   5.790  10.734   9.943
52899SOL    HW260530   5.808  10.781  10.086
52900SOL     OW60531   0.889  13.708   7.005
52900SOL    HW160532   0.823  13.701   6.935
52900SOL    HW260533   0.842  13.682   7.084
52901SOL     OW60534   5.708   4.192  11.045
52901SOL    HW160535   5.746   4.203  10.958
52901SOL    HW260536   5.777   4.219  11.105
52902SOL     OW60537   3.016   4.368   5.765
52902SOL    HW160538   3.051   4.447   5.807
52902SOL    HW260539   3.077   4.299   5.789
52903SOL     OW60540  10.754  14.137  14.763
52903SOL    HW160541  10.797  14.174  14.840
52903SOL    HW260542  10.661  14.143  14.783
52904SOL     OW60543   1.352   1.132   9.580
52904SOL    HW160544   1.436   1.134   9.626
52904SOL    HW260545   1.367   1.075   9.505
52905SOL     OW60546  14.579   6.631   1.375
52905SOL    HW160547  14.630   6.554   1.400
52905SOL    HW260548  14.525   6.650   1.451
52906SOL     OW60549   3.100   1.249  12.745
52906SOL    HW160550   3.168   1.265  12.679
52906SOL    HW260551   3.110   1.157  12.768
52907SOL     OW60552   1.961  11.137  12.605
52907SOL    HW160553   1.991  11.223  12.635
52907SOL    HW260554   1.896  11.110  12.671
52908SOL     OW60555  11.111   2.265   1.801
52908SOL    HW160556  11.158   2.297   1.724
52908SOL    HW260557  11.173   2.207   1.846
52909SOL     OW60558   4.887  11.516  12.350
52909SOL    HW160559   4.841  11.533  12.268
52909SOL    HW260560   4.819  11.486  12.410
52910SOL     OW60561   3.000  11.450   1.951
52910SOL    HW160562   3.086  11.429   1.916
52910SOL    HW260563   2.940  11.431   1.878
52911SOL     OW60564  12.638   2.445   0.823
52911SOL    HW160565  12.703   2.506   0.788
52911SOL    HW260566  12.680   2.407   0.900
52912SOL     OW60567   4.854  12.158  12.062
52912SOL    HW160568   4.792  12.195  11.999
52912SOL    HW260569   4.814  12.077  12.091
52913SOL     OW60570   4.551  10.931   5.833
52913SOL    HW160571   4.641  10.962   5.829
52913SOL    HW260572   4.557  10.845   5.876
52914SOL     OW60573  11.049   8.973   6.573
52914SOL    HW160574  11.020   8.990   6.662
52914SOL    HW260575  11.048   9.059   6.530
52915SOL     OW60576   9.556   2.091  14.344
52915SOL    HW160577   9.594   2.020  14.292
52915SOL    HW260578   9.588   2.075  14.433
52916SOL     OW60579   0.533  12.191   7.110
52916SOL    HW160580   0.625  12.166   7.107
52916SOL    HW260581   0.534  12.281   7.142
52917SOL     OW60582   9.175   1.428   5.755
52917SOL    HW160583   9.257   1.429   5.706
52917SOL    HW260584   9.117   1.487   5.707
52918SOL     OW60585   3.418   2.121   2.280
52918SOL    HW160586   3.412   2.029   2.306
52918SOL    HW260587   3.488   2.157   2.335
52919SOL     OW60588  11.344  11.447   3.901
52919SOL    HW160589  11.329  11.381   3.834
52919SOL    HW260590  11.406  11.407   3.961
52920SOL     OW60591  14.624   5.410  11.294
52920SOL    HW160592  14.644   5.434  11.385
52920SOL    HW260593  14.553   5.346  11.302
52921SOL     OW60594  13.646  12.220   5.046
52921SOL    HW160595  13.606  12.300   5.081
52921SOL    HW260596  13.659  12.239   4.953
52922SOL     OW60597   0.540  13.010  13.287
52922SOL    HW160598   0.493  12.934  13.323
52922SOL    HW260599   0.485  13.085  13.312
52923SOL     OW60600  10.410   6.566   5.049
52923SOL    HW160601  10.314   6.570   5.046
52923SOL    HW260602  10.430   6.558   5.142
52924SOL     OW60603   2.907  10.000   1.360
52924SOL    HW160604   2.941   9.999   1.449
52924SOL    HW260605   2.960   9.936   1.312
52925SOL     OW60606   5.239   8.820  13.916
52925SOL    HW160607   5.256   8.802  14.009
52925SOL    HW260608   5.145   8.807  13.906
52926SOL     OW60609  13.610  10.606   7.254
52926SOL    HW160610  13.571  10.691   7.236
52926SOL    HW260611  13.557  10.569   7.325
52927SOL     OW60612   9.119   5.126  13.186
52927SOL    HW160613   9.040   5.128  13.131
52927SOL    HW260614   9.124   5.215  13.222
52928SOL     OW60615   6.045  10.916   0.229
52928SOL    HW160616   6.099  10.986   0.265
52928SOL    HW260617   6.064  10.915   0.135
52929SOL     OW60618  11.249   7.282   9.086
52929SOL    HW160619  11.218   7.372   9.077
52929SOL    HW260620  11.344   7.288   9.080
52930SOL     OW60621   7.835   7.470   6.122
52930SOL    HW160622   7.765   7.513   6.072
52930SOL    HW260623   7.884   7.541   6.162
52931SOL     OW60624   3.617   7.853   5.902
52931SOL    HW160625   3.616   7.792   5.976
52931SOL    HW260626   3.527   7.849   5.868
52932SOL     OW60627  12.491   3.209   5.094
52932SOL    HW160628  12.534   3.142   5.145
52932SOL    HW260629  12.403   3.174   5.077
52933SOL     OW60630   8.541   9.982   1.459
52933SOL    HW160631   8.597   9.925   1.407
52933SOL    HW260632   8.589  10.065   1.463
52934SOL     OW60633   8.771  12.067   8.933
52934SOL    HW160634   8.763  12.023   8.848
52934SOL    HW260635   8.708  12.023   8.989
52935SOL     OW60636  11.415   0.341   0.048
52935SOL    HW160637  11.427   0.427   0.087
52935SOL    HW260638  11.358   0.357  14.844
52936SOL     OW60639   5.301   6.343  10.623
52936SOL    HW160640   5.283   6.266  10.569
52936SOL    HW260641   5.214   6.376  10.647
52937SOL     OW60642  10.627   2.480   8.137
52937SOL    HW160643  10.619   2.420   8.062
52937SOL    HW260644  10.540   2.480   8.177
52938SOL     OW60645  11.612   4.488   9.062
52938SOL    HW160646  11.557   4.481   8.984
52938SOL    HW260647  11.568   4.552   9.117
52939SOL     OW60648  14.573   1.701  12.975
52939SOL    HW160649  14.651   1.756  12.965
52939SOL    HW260650  14.609   1.613  12.991
52940SOL     OW60651   1.928   6.781   7.625
52940SOL    HW160652   1.906   6.853   7.566
52940SOL    HW260653   1.997   6.815   7.682
52941SOL     OW60654   2.372   4.202   3.249
52941SOL    HW160655   2.437   4.258   3.207
52941SOL    HW260656   2.363   4.128   3.188
52942SOL     OW60657  13.484   2.147   2.800
52942SOL    HW160658  13.491   2.185   2.712
52942SOL    HW260659  13.572   2.156   2.836
52943SOL     OW60660   6.507   3.849   7.450
52943SOL    HW160661   6.476   3.873   7.363
52943SOL    HW260662   6.539   3.759   7.440
52944SOL     OW60663   3.689  12.882   5.829
52944SOL    HW160664   3.745  12.910   5.756
52944SOL    HW260665   3.699  12.787   5.833
52945SOL     OW60666  14.454  11.743   1.031
52945SOL    HW160667  14.436  11.676   1.097
52945SOL    HW260668  14.369  11.783   1.013
52946SOL     OW60669  11.982   7.333  12.391
52946SOL    HW160670  12.013   7.361  12.478
52946SOL    HW260671  12.028   7.252  12.374
52947SOL     OW60672   6.975  11.103   9.938
52947SOL    HW160673   6.888  11.063   9.937
52947SOL    HW260674   6.996  11.113  10.031
52948SOL     OW60675   7.839   3.308   5.786
52948SOL    HW160676   7.817   3.263   5.705
52948SOL    HW260677   7.813   3.247   5.856
52949SOL     OW60678  14.493   7.513   7.520
52949SOL    HW160679  14.443   7.482   7.445
52949SOL    HW260680  14.480   7.608   7.519
52950SOL     OW60681   4.815  12.876   5.789
52950SOL    HW160682   4.777  12.944   5.844
52950SOL    HW260683   4.881  12.834   5.845
52951SOL     OW60684   0.266   7.651   2.758
52951SOL    HW160685   0.180   7.619   2.784
52951SOL    HW260686   0.328   7.587   2.793
52952SOL     OW60687  14.327  12.805   7.601
52952SOL    HW160688  14.254  12.808   7.663
52952SOL    HW260689  14.340  12.897   7.575
52953SOL     OW60690   7.582   5.955  11.793
52953SOL    HW160691   7.499   6.004  11.789
52953SOL    HW260692   7.619   5.979  11.878
52954SOL     OW60693   7.811   4.753  10.302
52954SOL    HW160694   7.724   4.751  10.343
52954SOL    HW260695   7.860   4.684  10.346
52955SOL     OW60696   9.346   8.596  11.678
52955SOL    HW160697   9.432   8.561  11.699
52955SOL    HW260698   9.298   8.592  11.761
52956SOL     OW60699   4.513   4.035   0.457
52956SOL    HW160700   4.585   3.972   0.446
52956SOL    HW260701   4.449   3.988   0.510
52957SOL     OW60702  14.123  10.107   9.013
52957SOL    HW160703  14.174  10.060   9.079
52957SOL    HW260704  14.110  10.043   8.943
52958SOL     OW60705  12.422   0.334   6.282
52958SOL    HW160706  12.359   0.406   6.269
52958SOL    HW260707  12.390   0.289   6.361
52959SOL     OW60708   7.293  11.938   0.049
52959SOL    HW160709   7.366  11.998   0.032
52959SOL    HW260710   7.281  11.942   0.144
52960SOL     OW60711  12.253  13.646  13.476
52960SOL    HW160712  12.302  13.566  13.462
52960SOL    HW260713  12.206  13.632  13.559
52961SOL     OW60714  14.339  12.488   2.809
52961SOL    HW160715  14.250  12.522   2.817
52961SOL    HW260716  14.333  12.398   2.841
52962SOL     OW60717   8.986   6.461   9.232
52962SOL    HW160718   8.970   6.494   9.321
52962SOL    HW260719   9.030   6.532   9.187
52963SOL     OW60720  11.539   4.694  12.939
52963SOL    HW160721  11.492   4.617  12.906
52963SOL    HW260722  11.581   4.731  12.862
52964SOL     OW60723   7.754   5.843   7.884
52964SOL    HW160724   7.804   5.836   7.965
52964SOL    HW260725   7.818   5.828   7.815
52965SOL     OW60726   0.567   5.421   9.109
52965SOL    HW160727   0.494   5.462   9.156
52965SOL    HW260728   0.613   5.493   9.067
52966SOL     OW60729   3.939  10.457   4.385
52966SOL    HW160730   3.877  10.500   4.444
52966SOL    HW260731   3.904  10.369   4.373
52967SOL     OW60732   5.987  11.995   3.999
52967SOL    HW160733   5.984  11.964   3.908
52967SOL    HW260734   5.907  11.961   4.039
52968SOL     OW60735   9.942  13.274   0.600
52968SOL    HW160736  10.032  13.258   0.572
52968SOL    HW260737   9.889  13.244   0.526
52969SOL     OW60738   9.612   6.581   4.677
52969SOL    HW160739   9.708   6.577   4.681
52969SOL    HW260740   9.592   6.666   4.639
52970SOL     OW60741  14.098   5.668   3.886
52970SOL    HW160742  14.170   5.709   3.934
52970SOL    HW260743  14.140   5.600   3.833
52971SOL     OW60744  12.998   6.241  11.266
52971SOL    HW160745  12.973   6.189  11.342
52971SOL    HW260746  13.088   6.267  11.283
52972SOL     OW60747  14.760  11.669   8.551
52972SOL    HW160748  14.739  11.673   8.645
52972SOL    HW260749  14.729  11.582   8.524
52973SOL     OW60750   6.249  14.416  12.109
52973SOL    HW160751   6.272  14.361  12.034
52973SOL    HW260752   6.249  14.505  12.074
52974SOL     OW60753   4.520  12.958  13.206
52974SOL    HW160754   4.533  12.993  13.294
52974SOL    HW260755   4.426  12.936  13.203
52975SOL     OW60756  11.143   7.950  14.150
52975SOL    HW160757  11.190   7.941  14.234
52975SOL    HW260758  11.074   7.884  14.155
52976SOL     OW60759   6.716  10.499   3.183
52976SOL    HW160760   6.785  10.563   3.200
52976SOL    HW260761   6.686  10.471   3.270
52977SOL     OW60762   7.909   7.323   9.195
52977SOL    HW160763   7.976   7.390   9.209
52977SOL    HW260764   7.956   7.240   9.200
52978SOL     OW60765   9.750   9.496   1.957
52978SOL    HW160766   9.801   9.565   2.000
52978SOL    HW260767   9.814   9.451   1.901
52979SOL     OW60768   0.275  12.050   9.147
52979SOL    HW160769   0.203  12.022   9.204
52979SOL    HW260770   0.271  11.989   9.073
52980SOL     OW60771   1.782   7.417  12.868
52980SOL    HW160772   1.872   7.385  12.864
52980SOL    HW260773   1.783   7.498  12.816
52981SOL     OW60774   1.007  10.107  14.460
52981SOL    HW160775   0.915  10.133  14.455
52981SOL    HW260776   1.055  10.189  14.470
52982SOL     OW60777  14.233   4.964  12.539
52982SOL    HW160778  14.179   4.904  12.591
52982SOL    HW260779  14.284   5.013  12.603
52983SOL     OW60780  11.178   0.696  12.735
52983SOL    HW160781  11.240   0.720  12.804
52983SOL    HW260782  11.092   0.708  12.774
52984SOL     OW60783  12.805  12.724   9.044
52984SOL    HW160784  12.740  12.683   8.987
52984SOL    HW260785  12.755  12.790   9.093
52985SOL     OW60786  13.877   4.080  11.484
52985SOL    HW160787  13.789   4.108  11.509
52985SOL    HW260788  13.903   4.140  11.415
52986SOL     OW60789   3.885  13.602   3.824
52986SOL    HW160790   3.941  13.543   3.775
52986SOL    HW260791   3.871  13.676   3.766
52987SOL     OW60792   3.393   3.752   8.789
52987SOL    HW160793   3.382   3.844   8.767
52987SOL    HW260794   3.323   3.734   8.853
52988SOL     OW60795   6.465   8.814  12.153
52988SOL    HW160796   6.437   8.731  12.115
52988SOL    HW260797   6.423   8.816  12.239
52989SOL     OW60798   2.102   3.304   8.130
52989SOL    HW160799   2.112   3.398   8.138
52989SOL    HW260800   2.044   3.292   8.055
52990SOL     OW60801   7.249   1.139  12.063
52990SOL    HW160802   7.262   1.231  12.086
52990SOL    HW260803   7.215   1.098  12.143
52991SOL     OW60804  13.379   9.589   2.504
52991SOL    HW160805  13.322   9.544   2.566
52991SOL    HW260806  13.361   9.682   2.516
52992SOL     OW60807   2.732   2.396   0.508
52992SOL    HW160808   2.639   2.375   0.516
52992SOL    HW260809   2.745   2.413   0.415
52993SOL     OW60810  14.034  11.506   3.848
52993SOL    HW160811  13.967  11.496   3.916
52993SOL    HW260812  14.000  11.457   3.774
52994SOL     OW60813   2.881  12.325   9.202
52994SOL    HW160814   2.831  12.291   9.128
52994SOL    HW260815   2.930  12.399   9.166
52995SOL     OW60816   4.743  12.327   5.862
52995SOL    HW160817   4.701  12.383   5.927
52995SOL    HW260818   4.777  12.253   5.912
52996SOL     OW60819   0.872   2.929   1.835
52996SOL    HW160820   0.785   2.968   1.843
52996SOL    HW260821   0.899   2.912   1.925
52997SOL     OW60822   9.912   3.823   3.540
52997SOL    HW160823   9.994   3.807   3.587
52997SOL    HW260824   9.919   3.913   3.509
52998SOL     OW60825   7.247   8.669   3.748
52998SOL    HW160826   7.161   8.705   3.726
52998SOL    HW260827   7.246   8.661   3.843
52999SOL     OW60828  10.628   4.712  14.329
52999SOL    HW160829  10.618   4.694  14.235
52999SOL    HW260830  10.571   4.787  14.345
53000SOL     OW60831  10.247   3.395  12.218
53000SOL    HW160832  10.258   3.308  12.180
53000SOL    HW260833  10.160   3.392  12.258
53001SOL     OW60834   1.896   2.493   3.269
53001SOL    HW160835   1.851   2.539   3.198
53001SOL    HW260836   1.912   2.405   3.235
53002SOL     OW60837   3.606   7.279   0.101
53002SOL    HW160838   3.663   7.205   0.079
53002SOL    HW260839   3.650   7.354   0.063
53003SOL     OW60840   5.990   9.527   6.675
53003SOL    HW160841   6.067   9.485   6.637
53003SOL    HW260842   6.025   9.600   6.725
53004SOL     OW60843   6.034   1.943  11.314
53004SOL    HW160844   5.992   2.024  11.342
53004SOL    HW260845   6.122   1.949  11.351
53005SOL     OW60846   0.757  14.706   0.420
53005SOL    HW160847   0.848  14.714   0.448
53005SOL    HW260848   0.716  14.787   0.450
53006SOL     OW60849  11.538  14.296   3.859
53006SOL    HW160850  11.477  14.352   3.907
53006SOL    HW260851  11.605  14.272   3.923
53007SOL     OW60852  10.312   8.010   0.782
53007SOL    HW160853  10.355   8.013   0.867
53007SOL    HW260854  10.236   8.066   0.792
53008SOL     OW60855  13.385  10.706   4.767
53008SOL    HW160856  13.475  10.737   4.757
53008SOL    HW260857  13.345  10.767   4.829
53009SOL     OW60858   7.752  10.203   6.791
53009SOL    HW160859   7.803  10.187   6.711
53009SOL    HW260860   7.661  10.194   6.763
53010SOL     OW60861  10.422   8.555  10.457
53010SOL    HW160862  10.345   8.575  10.511
53010SOL    HW260863  10.386   8.541  10.369
53011SOL     OW60864   3.657   1.606   9.476
53011SOL    HW160865   3.680   1.688   9.520
53011SOL    HW260866   3.571   1.584   9.510
53012SOL     OW60867  11.573   7.090  14.775
53012SOL    HW160868  11.597   7.089  14.867
53012SOL    HW260869  11.636   7.032  14.733
53013SOL     OW60870   6.265  11.339   0.534
53013SOL    HW160871   6.271  11.277   0.461
53013SOL    HW260872   6.328  11.305   0.598
53014SOL     OW60873   5.564   9.937   5.158
53014SOL    HW160874   5.474   9.958   5.186
53014SOL    HW260875   5.575   9.845   5.180
53015SOL     OW60876   7.131   4.979   5.616
53015SOL    HW160877   7.109   5.070   5.598
53015SOL    HW260878   7.203   4.959   5.556
53016SOL     OW60879  14.403   5.673   8.051
53016SOL    HW160880  14.372   5.751   8.005
53016SOL    HW260881  14.486   5.700   8.090
53017SOL     OW60882   5.284   7.516   6.669
53017SOL    HW160883   5.195   7.547   6.656
53017SOL    HW260884   5.284   7.481   6.759
53018SOL     OW60885   3.223  11.155  11.414
53018SOL    HW160886   3.252  11.146  11.505
53018SOL    HW260887   3.131  11.177  11.421
53019SOL     OW60888   0.557   9.586   6.763
53019SOL    HW160889   0.535   9.649   6.832
53019SOL    HW260890   0.652   9.576   6.770
53020SOL     OW60891   9.190   4.388  11.674
53020SOL    HW160892   9.131   4.315  11.657
53020SOL    HW260893   9.220   4.415  11.587
53021SOL     OW60894  11.584  10.018  13.630
53021SOL    HW160895  11.661  10.023  13.686
53021SOL    HW260896  11.617   9.989  13.545
53022SOL     OW60897   4.679   2.307   4.459
53022SOL    HW160898   4.591   2.281   4.431
53022SOL    HW260899   4.720   2.343   4.380
53023SOL     OW60900  12.707   2.420   6.717
53023SOL    HW160901  12.742   2.508   6.729
53023SOL    HW260902  12.638   2.430   6.652
53024SOL     OW60903  11.218   9.606  11.082
53024SOL    HW160904  11.262   9.598  11.167
53024SOL    HW260905  11.271   9.553  11.023
53025SOL     OW60906   7.022   5.318  11.433
53025SOL    HW160907   7.035   5.413  11.432
53025SOL    HW260908   7.088   5.285  11.372
53026SOL     OW60909   8.945   1.197  14.278
53026SOL    HW160910   9.026   1.245  14.296
53026SOL    HW260911   8.945   1.185  14.183
53027SOL     OW60912  10.854   1.860   2.923
53027SOL    HW160913  10.813   1.775   2.941
53027SOL    HW260914  10.876   1.894   3.010
53028SOL     OW60915   0.836   0.387   6.469
53028SOL    HW160916   0.909   0.373   6.529
53028SOL    HW260917   0.877   0.427   6.392
53029SOL     OW60918   7.030  10.481  11.074
53029SOL    HW160919   7.028  10.389  11.100
53029SOL    HW260920   7.005  10.482  10.982
53030SOL     OW60921  12.491  11.475   3.886
53030SOL    HW160922  12.471  11.464   3.978
53030SOL    HW260923  12.538  11.559   3.881
53031SOL     OW60924   0.088  11.073   5.710
53031SOL    HW160925   0.107  10.990   5.667
53031SOL    HW260926   0.126  11.066   5.797
53032SOL     OW60927   6.680   1.190   6.495
53032SOL    HW160928   6.734   1.111   6.497
53032SOL    HW260929   6.736   1.258   6.533
53033SOL     OW60930   5.573   7.083   2.552
53033SOL    HW160931   5.640   7.015   2.543
53033SOL    HW260932   5.620   7.165   2.536
53034SOL     OW60933  12.254  11.781   9.544
53034SOL    HW160934  12.216  11.696   9.566
53034SOL    HW260935  12.288  11.769   9.455
53035SOL     OW60936   8.586   9.858   8.413
53035SOL    HW160937   8.588   9.929   8.349
53035SOL    HW260938   8.658   9.800   8.387
53036SOL     OW60939  12.075   9.126   8.807
53036SOL    HW160940  12.052   9.213   8.840
53036SOL    HW260941  12.168   9.118   8.825
53037SOL     OW60942   4.279   5.016   8.690
53037SOL    HW160943   4.239   5.024   8.777
53037SOL    HW260944   4.231   4.943   8.649
53038SOL     OW60945   6.860   5.568  13.690
53038SOL    HW160946   6.935   5.585  13.632
53038SOL    HW260947   6.798   5.638  13.670
53039SOL     OW60948   1.974   4.270   4.039
53039SOL    HW160949   1.930   4.187   4.022
53039SOL    HW260950   2.023   4.288   3.958
53040SOL     OW60951  11.615  13.202   8.438
53040SOL    HW160952  11.622  13.233   8.347
53040SOL    HW260953  11.646  13.276   8.490
53041SOL     OW60954  10.135   0.742   4.490
53041SOL    HW160955  10.108   0.774   4.404
53041SOL    HW260956  10.231   0.736   4.484
53042SOL     OW60957   7.515  11.868   4.227
53042SOL    HW160958   7.500  11.829   4.313
53042SOL    HW260959   7.581  11.812   4.187
53043SOL     OW60960   2.437  11.516  11.806
53043SOL    HW160961   2.462  11.591  11.751
53043SOL    HW260962   2.515  11.499  11.859
53044SOL     OW60963  14.744  10.401   4.838
53044SOL    HW160964  14.837  10.411   4.818
53044SOL    HW260965  14.737  10.421   4.931
53045SOL     OW60966  12.755   0.041   6.784
53045SOL    HW160967  12.774   0.133   6.804
53045SOL    HW260968  12.665   0.041   6.752
53046SOL     OW60969  11.209   6.452  13.906
53046SOL    HW160970  11.188   6.364  13.939
53046SOL    HW260971  11.124   6.490  13.882
53047SOL     OW60972  13.961   5.876   4.491
53047SOL    HW160973  13.977   5.793   4.535
53047SOL    HW260974  13.986   5.862   4.400
53048SOL     OW60975   7.587   2.721   1.113
53048SOL    HW160976   7.681   2.702   1.115
53048SOL    HW260977   7.577   2.786   1.044
53049SOL     OW60978   5.203   1.033  11.982
53049SOL    HW160979   5.151   1.052  12.060
53049SOL    HW260980   5.275   0.979  12.013
53050SOL     OW60981   0.470   3.783  14.609
53050SOL    HW160982   0.391   3.820  14.569
53050SOL    HW260983   0.485   3.835  14.688
53051SOL     OW60984   4.690   9.756   5.012
53051SOL    HW160985   4.717   9.841   4.980
53051SOL    HW260986   4.767   9.700   5.001
53052SOL     OW60987   7.635   0.734   5.515
53052SOL    HW160988   7.660   0.690   5.596
53052SOL    HW260989   7.717   0.749   5.468
53053SOL     OW60990   1.158   6.346   1.327
53053SOL    HW160991   1.118   6.433   1.328
53053SOL    HW260992   1.117   6.300   1.401
53054SOL     OW60993   0.213   5.435   0.410
53054SOL    HW160994   0.241   5.517   0.368
53054SOL    HW260995   0.281   5.416   0.474
53055SOL     OW60996  10.405   3.038  12.500
53055SOL    HW160997  10.456   3.019  12.421
53055SOL    HW260998  10.448   2.989  12.569
53056SOL     OW60999   2.369  13.813   1.915
53056SOL    HW161000   2.348  13.721   1.898
53056SOL    HW261001   2.365  13.855   1.829
53057SOL     OW61002   2.891  12.184  11.414
53057SOL    HW161003   2.843  12.104  11.433
53057SOL    HW261004   2.827  12.254  11.425
53058SOL     OW61005   8.838   2.069  13.380
53058SOL    HW161006   8.887   2.120  13.444
53058SOL    HW261007   8.905   2.029  13.324
53059SOL     OW61008   5.356  12.174   5.827
53059SOL    HW161009   5.272  12.207   5.796
53059SOL    HW261010   5.348  12.175   5.923
53060SOL     OW61011   2.333  13.516  13.374
53060SOL    HW161012   2.274  13.584  13.344
53060SOL    HW261013   2.289  13.434  13.351
53061SOL     OW61014  12.744   0.731  10.053
53061SOL    HW161015  12.747   0.785  10.132
53061SOL    HW261016  12.799   0.655  10.074
53062SOL     OW61017  14.232   2.342  10.882
53062SOL    HW161018  14.167   2.309  10.944
53062SOL    HW261019  14.207   2.303  10.798
53063SOL     OW61020  12.392   7.629   2.663
53063SOL    HW161021  12.304   7.652   2.695
53063SOL    HW261022  12.384   7.631   2.568
53064SOL     OW61023   0.536  13.738   6.339
53064SOL    HW161024   0.507  13.748   6.248
53064SOL    HW261025   0.460  13.763   6.391
53065SOL     OW61026   3.162   8.720  11.799
53065SOL    HW161027   3.159   8.813  11.777
53065SOL    HW261028   3.073   8.699  11.827
53066SOL     OW61029   0.043   5.559   6.573
53066SOL    HW161030   0.090   5.630   6.528
53066SOL    HW261031   0.103   5.484   6.569
53067SOL     OW61032   8.679   2.984   4.590
53067SOL    HW161033   8.589   2.951   4.585
53067SOL    HW261034   8.729   2.930   4.529
53068SOL     OW61035  12.609   6.099   4.654
53068SOL    HW161036  12.559   6.150   4.718
53068SOL    HW261037  12.546   6.080   4.585
53069SOL     OW61038   3.299   6.994  14.645
53069SOL    HW161039   3.319   6.944  14.565
53069SOL    HW261040   3.371   7.056  14.653
53070SOL     OW61041   6.209  10.649   4.854
53070SOL    HW161042   6.178  10.712   4.919
53070SOL    HW261043   6.269  10.593   4.903
53071SOL     OW61044   1.240  10.370  12.841
53071SOL    HW161045   1.306  10.417  12.791
53071SOL    HW261046   1.186  10.438  12.881
53072SOL     OW61047   7.998   6.160  10.769
53072SOL    HW161048   8.067   6.145  10.704
53072SOL    HW261049   8.044   6.163  10.853
53073SOL     OW61050   0.705   7.332   8.843
53073SOL    HW161051   0.660   7.248   8.847
53073SOL    HW261052   0.711   7.360   8.934
53074SOL     OW61053   8.239  10.587   9.991
53074SOL    HW161054   8.198  10.516  10.040
53074SOL    HW261055   8.320  10.549   9.958
53075SOL     OW61056  12.621   1.621   9.628
53075SOL    HW161057  12.541   1.572   9.608
53075SOL    HW261058  12.685   1.591   9.564
53076SOL     OW61059   4.171   8.989  12.097
53076SOL    HW161060   4.258   8.962  12.070
53076SOL    HW261061   4.186   9.038  12.178
53077SOL     OW61062   0.680   4.276   4.091
53077SOL    HW161063   0.774   4.284   4.074
53077SOL    HW261064   0.655   4.361   4.127
53078SOL     OW61065   4.722   0.458   5.378
53078SOL    HW161066   4.810   0.484   5.352
53078SOL    HW261067   4.720   0.473   5.473
53079SOL     OW61068   4.470  12.439  11.114
53079SOL    HW161069   4.379  12.427  11.142
53079SOL    HW261070   4.522  12.403  11.186
53080SOL     OW61071   2.635   5.184   2.329
53080SOL    HW161072   2.649   5.200   2.423
53080SOL    HW261073   2.668   5.095   2.315
53081SOL     OW61074   6.167   5.765  13.602
53081SOL    HW161075   6.095   5.815  13.563
53081SOL    HW261076   6.131   5.677  13.613
53082SOL     OW61077   7.820   0.488   9.810
53082SOL    HW161078   7.777   0.444   9.737
53082SOL    HW261079   7.912   0.494   9.783
53083SOL     OW61080   0.267   5.810   5.691
53083SOL    HW161081   0.208   5.864   5.638
53083SOL    HW261082   0.212   5.777   5.762
53084SOL     OW61083   1.346  14.798  13.071
53084SOL    HW161084   1.318   0.002  13.122
53084SOL    HW261085   1.264  14.759  13.039
53085SOL     OW61086   5.638  11.538   2.686
53085SOL    HW161087   5.574  11.604   2.661
53085SOL    HW261088   5.589  11.456   2.686
53086SOL     OW61089   4.310   6.528   0.098
53086SOL    HW161090   4.319   6.611   0.053
53086SOL    HW261091   4.325   6.462   0.031
53087SOL     OW61092   3.461  11.794   7.570
53087SOL    HW161093   3.462  11.889   7.574
53087SOL    HW261094   3.406  11.773   7.495
53088SOL     OW61095  13.857  12.164  14.848
53088SOL    HW161096  13.942  12.120  14.854
53088SOL    HW261097  13.838  12.191   0.065
53089SOL     OW61098   0.784   6.339  11.274
53089SOL    HW161099   0.794   6.366  11.183
53089SOL    HW261100   0.716   6.396  11.309
53090SOL     OW61101  10.077  14.334   9.614
53090SOL    HW161102  10.047  14.254   9.659
53090SOL    HW261103  10.172  14.324   9.609
53091SOL     OW61104   9.168  11.196   4.594
53091SOL    HW161105   9.128  11.124   4.641
53091SOL    HW261106   9.243  11.158   4.549
53092SOL     OW61107   6.286   3.971   9.433
53092SOL    HW161108   6.365   3.977   9.380
53092SOL    HW261109   6.273   4.059   9.468
53093SOL     OW61110  12.056  10.309   0.824
53093SOL    HW161111  12.096  10.364   0.892
53093SOL    HW261112  12.129  10.285   0.767
53094SOL     OW61113   0.734   8.962  10.391
53094SOL    HW161114   0.688   8.976  10.474
53094SOL    HW261115   0.743   8.867  10.384
53095SOL     OW61116   5.186   9.847  13.899
53095SOL    HW161117   5.100   9.884  13.880
53095SOL    HW261118   5.167   9.767  13.948
53096SOL     OW61119   8.658   0.554   7.526
53096SOL    HW161120   8.674   0.470   7.570
53096SOL    HW261121   8.648   0.532   7.434
53097SOL     OW61122  14.653   3.503   5.631
53097SOL    HW161123  14.584   3.568   5.613
53097SOL    HW261124  14.608   3.433   5.679
53098SOL     OW61125  12.923   0.796  13.791
53098SOL    HW161126  12.862   0.857  13.834
53098SOL    HW261127  12.867   0.728  13.754
53099SOL     OW61128  11.233  12.160  13.927
53099SOL    HW161129  11.309  12.184  13.874
53099SOL    HW261130  11.206  12.241  13.969
53100SOL     OW61131   3.660   3.318  11.135
53100SOL    HW161132   3.592   3.359  11.081
53100SOL    HW261133   3.621   3.235  11.162
53101SOL     OW61134   5.886  11.341   1.180
53101SOL    HW161135   5.831  11.267   1.155
53101SOL    HW261136   5.962  11.301   1.223
53102SOL     OW61137   1.652   4.058  14.865
53102SOL    HW161138   1.565   4.021  14.855
53102SOL    HW261139   1.686   4.021   0.074
53103SOL     OW61140   7.430  11.099   8.253
53103SOL    HW161141   7.431  11.012   8.213
53103SOL    HW261142   7.346  11.105   8.298
53104SOL     OW61143   5.729   2.378   5.677
53104SOL    HW161144   5.774   2.462   5.668
53104SOL    HW261145   5.736   2.337   5.590
53105SOL     OW61146   5.441  12.833  13.229
53105SOL    HW161147   5.534  12.844  13.212
53105SOL    HW261148   5.418  12.906  13.286
53106SOL     OW61149  11.908  12.331   6.273
53106SOL    HW161150  11.947  12.418   6.274
53106SOL    HW261151  11.953  12.285   6.203
53107SOL     OW61152  10.913   7.170   3.477
53107SOL    HW161153  10.949   7.251   3.512
53107SOL    HW261154  10.863   7.133   3.550
53108SOL     OW61155   5.891   3.198   1.579
53108SOL    HW161156   5.846   3.237   1.504
53108SOL    HW261157   5.973   3.247   1.586
53109SOL     OW61158  10.414  14.240   2.411
53109SOL    HW161159  10.339  14.284   2.453
53109SOL    HW261160  10.389  14.234   2.319
53110SOL     OW61161   9.170   2.888  10.249
53110SOL    HW161162   9.252   2.887  10.298
53110SOL    HW261163   9.196   2.890  10.157
53111SOL     OW61164   1.138   2.322   2.169
53111SOL    HW161165   1.147   2.389   2.237
53111SOL    HW261166   1.054   2.280   2.187
53112SOL     OW61167  11.832   6.381   1.393
53112SOL    HW161168  11.765   6.449   1.396
53112SOL    HW261169  11.878   6.389   1.476
53113SOL     OW61170   1.639   4.546   0.912
53113SOL    HW161171   1.624   4.604   0.838
53113SOL    HW261172   1.729   4.514   0.899
53114SOL     OW61173   8.543   6.893  10.034
53114SOL    HW161174   8.538   6.854  10.121
53114SOL    HW261175   8.613   6.958  10.041
53115SOL     OW61176   8.410   5.750   7.473
53115SOL    HW161177   8.452   5.784   7.393
53115SOL    HW261178   8.477   5.693   7.512
53116SOL     OW61179   4.992   2.728  12.104
53116SOL    HW161180   4.920   2.741  12.166
53116SOL    HW261181   4.954   2.677  12.033
53117SOL     OW61182  14.169   4.873  14.829
53117SOL    HW161183  14.086   4.849  14.870
53117SOL    HW261184  14.189   4.798  14.772
53118SOL     OW61185   9.636  13.154  13.810
53118SOL    HW161186   9.596  13.101  13.879
53118SOL    HW261187   9.564  13.172  13.749
53119SOL     OW61188  10.692  12.928   1.943
53119SOL    HW161189  10.782  12.900   1.956
53119SOL    HW261190  10.697  13.023   1.935
53120SOL     OW61191   1.257   9.434  10.377
53120SOL    HW161192   1.219   9.361  10.328
53120SOL    HW261193   1.226   9.421  10.466
53121SOL     OW61194   7.899   7.724   1.940
53121SOL    HW161195   7.823   7.781   1.929
53121SOL    HW261196   7.974   7.784   1.942
53122SOL     OW61197  13.808   4.094   8.084
53122SOL    HW161198  13.721   4.056   8.099
53122SOL    HW261199  13.816   4.101   7.989
53123SOL     OW61200  13.312  14.319  14.451
53123SOL    HW161201  13.346  14.329  14.363
53123SOL    HW261202  13.272  14.403  14.472
53124SOL     OW61203  10.934  14.833  11.162
53124SOL    HW161204  10.878  14.771  11.209
53124SOL    HW261205  11.023  14.808  11.185
53125SOL     OW61206  13.045   5.628  10.744
53125SOL    HW161207  13.064   5.663  10.657
53125SOL    HW261208  13.098   5.549  10.751
53126SOL     OW61209  14.225   7.306  12.974
53126SOL    HW161210  14.189   7.381  13.023
53126SOL    HW261211  14.294   7.344  12.920
53127SOL     OW61212   1.958   9.943   4.551
53127SOL    HW161213   1.982   9.873   4.613
53127SOL    HW261214   2.042   9.971   4.515
53128SOL     OW61215   9.026  12.554  14.673
53128SOL    HW161216   8.964  12.579  14.741
53128SOL    HW261217   8.989  12.474  14.635
53129SOL     OW61218  14.534   8.928   0.744
53129SOL    HW161219  14.444   8.955   0.724
53129SOL    HW261220  14.549   8.852   0.687
53130SOL     OW61221   2.472   3.337  10.191
53130SOL    HW161222   2.472   3.383  10.106
53130SOL    HW261223   2.529   3.390  10.247
53131SOL     OW61224   9.791  13.290   3.458
53131SOL    HW161225   9.879  13.295   3.495
53131SOL    HW261226   9.737  13.256   3.529
53132SOL     OW61227   1.644   4.873   9.285
53132SOL    HW161228   1.682   4.957   9.311
53132SOL    HW261229   1.682   4.857   9.198
53133SOL     OW61230   2.311   4.859   0.251
53133SOL    HW161231   2.371   4.821   0.315
53133SOL    HW261232   2.225   4.823   0.273
53134SOL     OW61233  13.337   8.744   3.662
53134SOL    HW161234  13.364   8.758   3.753
53134SOL    HW261235  13.368   8.821   3.616
53135SOL     OW61236  10.457   5.602   3.832
53135SOL    HW161237  10.511   5.583   3.755
53135SOL    HW261238  10.508   5.568   3.906
53136SOL     OW61239   5.711   6.006  12.602
53136SOL    HW161240   5.707   6.010  12.506
53136SOL    HW261241   5.782   6.066  12.624
53137SOL     OW61242  10.857   6.573  11.786
53137SOL    HW161243  10.783   6.580  11.725
53137SOL    HW261244  10.925   6.527  11.737
53138SOL     OW61245   9.079  12.342   0.158
53138SOL    HW161246   9.146  12.409   0.173
53138SOL    HW261247   9.038  12.367   0.075
53139SOL     OW61248   6.394   2.618   6.360
53139SOL    HW161249   6.424   2.589   6.446
53139SOL    HW261250   6.462   2.679   6.330
53140SOL     OW61251   5.170   8.372   9.018
53140SOL    HW161252   5.161   8.310   9.091
53140SOL    HW261253   5.173   8.317   8.940
53141SOL     OW61254   8.607   4.043   4.340
53141SOL    HW161255   8.578   4.082   4.423
53141SOL    HW261256   8.702   4.051   4.341
53142SOL     OW61257  12.447  13.822   8.305
53142SOL    HW161258  12.497  13.798   8.383
53142SOL    HW261259  12.469  13.755   8.240
53143SOL     OW61260  14.754   0.813   4.687
53143SOL    HW161261  14.819   0.803   4.757
53143SOL    HW261262  14.670   0.797   4.730
53144SOL     OW61263   3.618   9.005   0.862
53144SOL    HW161264   3.633   9.082   0.808
53144SOL    HW261265   3.555   9.034   0.928
53145SOL     OW61266  10.681   6.651   6.154
53145SOL    HW161267  10.769   6.682   6.132
53145SOL    HW261268  10.666   6.578   6.093
53146SOL     OW61269   3.947   4.308   4.108
53146SOL    HW161270   3.952   4.225   4.154
53146SOL    HW261271   4.038   4.334   4.095
53147SOL     OW61272   4.935  11.716   0.017
53147SOL    HW161273   4.842  11.704   0.036
53147SOL    HW261274   4.937  11.748  14.799
53148SOL     OW61275  14.833   8.515   5.242
53148SOL    HW161276  14.869   8.592   5.197
53148SOL    HW261277  14.741   8.513   5.215
53149SOL     OW61278   7.683   4.344   5.776
53149SOL    HW161279   7.656   4.252   5.786
53149SOL    HW261280   7.611   4.394   5.814
53150SOL     OW61281  12.077   0.217   0.846
53150SOL    HW161282  12.139   0.212   0.774
53150SOL    HW261283  12.006   0.273   0.813
53151SOL     OW61284   9.386   0.923   3.971
53151SOL    HW161285   9.363   0.835   3.942
53151SOL    HW261286   9.328   0.980   3.921
53152SOL     OW61287   3.321  13.705   8.464
53152SOL    HW161288   3.284  13.743   8.544
53152SOL    HW261289   3.411  13.738   8.460
53153SOL     OW61290   8.562   0.065  11.253
53153SOL    HW161291   8.551  14.866  11.190
53153SOL    HW261292   8.479   0.113  11.250
53154SOL     OW61293   8.187   7.810   7.829
53154SOL    HW161294   8.149   7.726   7.854
53154SOL    HW261295   8.188   7.808   7.733
53155SOL     OW61296   5.161   2.446   1.731
53155SOL    HW161297   5.164   2.541   1.742
53155SOL    HW261298   5.206   2.412   1.808
53156SOL     OW61299  14.179  13.354   6.519
53156SOL    HW161300  14.182  13.413   6.444
53156SOL    HW261301  14.258  13.301   6.511
53157SOL     OW61302   8.704   1.451  13.605
53157SOL    HW161303   8.765   1.512  13.647
53157SOL    HW261304   8.726   1.455  13.512
53158SOL     OW61305  10.295   5.398   4.195
53158SOL    HW161306  10.213   5.383   4.243
53158SOL    HW261307  10.298   5.492   4.180
53159SOL     OW61308   8.894  12.381  13.049
53159SOL    HW161309   8.862  12.324  13.119
53159SOL    HW261310   8.989  12.381  13.061
53160SOL     OW61311  10.999   8.421  10.143
53160SOL    HW161312  10.959   8.461  10.065
53160SOL    HW261313  10.929   8.371  10.183
53161SOL     OW61314   6.573  14.050  14.136
53161SOL    HW161315   6.540  14.131  14.097
53161SOL    HW261316   6.633  14.015  14.070
53162SOL     OW61317  12.099   5.302  11.101
53162SOL    HW161318  12.146   5.386  11.106
53162SOL    HW261319  12.016   5.324  11.059
53163SOL     OW61320   3.057   5.489   1.199
53163SOL    HW161321   3.055   5.520   1.109
53163SOL    HW261322   3.047   5.568   1.252
53164SOL     OW61323   5.175   4.624   3.788
53164SOL    HW161324   5.141   4.595   3.703
53164SOL    HW261325   5.100   4.664   3.832
53165SOL     OW61326  13.561  10.813   1.214
53165SOL    HW161327  13.492  10.748   1.216
53165SOL    HW261328  13.548  10.865   1.293
53166SOL     OW61329   7.020   6.958  11.642
53166SOL    HW161330   7.098   7.013  11.649
53166SOL    HW261331   7.038   6.898  11.570
53167SOL     OW61332   7.296   7.081   0.648
53167SOL    HW161333   7.250   7.094   0.731
53167SOL    HW261334   7.227   7.073   0.582
53168SOL     OW61335   9.721   4.237   9.662
53168SOL    HW161336   9.727   4.276   9.749
53168SOL    HW261337   9.797   4.180   9.656
53169SOL     OW61338  11.942  10.084   5.016
53169SOL    HW161339  12.013  10.022   4.998
53169SOL    HW261340  11.883  10.038   5.075
53170SOL     OW61341   1.359   0.468  11.920
53170SOL    HW161342   1.436   0.522  11.901
53170SOL    HW261343   1.287   0.511  11.875
53171SOL     OW61344   9.294  10.254   7.230
53171SOL    HW161345   9.345  10.309   7.289
53171SOL    HW261346   9.355  10.185   7.202
53172SOL     OW61347   7.109   2.646  11.701
53172SOL    HW161348   7.089   2.737  11.724
53172SOL    HW261349   7.031   2.616  11.653
53173SOL     OW61350   9.181   0.540   1.336
53173SOL    HW161351   9.157   0.499   1.419
53173SOL    HW261352   9.250   0.484   1.300
53174SOL     OW61353   3.181   5.590   3.753
53174SOL    HW161354   3.218   5.619   3.670
53174SOL    HW261355   3.118   5.522   3.730
53175SOL     OW61356  11.589   6.457   0.496
53175SOL    HW161357  11.524   6.523   0.522
53175SOL    HW261358  11.673   6.499   0.510
53176SOL     OW61359   2.763  10.332  12.896
53176SOL    HW161360   2.703  10.395  12.936
53176SOL    HW261361   2.740  10.332  12.803
53177SOL     OW61362   2.726  13.351  11.218
53177SOL    HW161363   2.820  13.348  11.237
53177SOL    HW261364   2.719  13.407  11.141
53178SOL     OW61365  12.489   1.348   4.851
53178SOL    HW161366  12.582   1.334   4.837
53178SOL    HW261367  12.484   1.406   4.928
53179SOL     OW61368   9.391  13.235   4.416
53179SOL    HW161369   9.373  13.144   4.392
53179SOL    HW261370   9.412  13.278   4.334
53180SOL     OW61371   2.390   1.898  10.641
53180SOL    HW161372   2.425   1.921  10.555
53180SOL    HW261373   2.416   1.806  10.654
53181SOL     OW61374   0.789   2.027  12.606
53181SOL    HW161375   0.764   1.946  12.563
53181SOL    HW261376   0.709   2.056  12.650
53182SOL     OW61377  11.425   8.010   2.296
53182SOL    HW161378  11.420   7.915   2.303
53182SOL    HW261379  11.495   8.035   2.356
53183SOL     OW61380   3.790   6.834   6.037
53183SOL    HW161381   3.795   6.927   6.058
53183SOL    HW261382   3.863   6.818   5.977
53184SOL     OW61383  13.480   6.712  12.665
53184SOL    HW161384  13.524   6.696  12.582
53184SOL    HW261385  13.508   6.800  12.691
53185SOL     OW61386   1.485   1.950  11.414
53185SOL    HW161387   1.540   1.872  11.411
53185SOL    HW261388   1.543   2.022  11.390
53186SOL     OW61389   9.179  10.028   6.237
53186SOL    HW161390   9.124  10.084   6.183
53186SOL    HW261391   9.123  10.004   6.311
53187SOL     OW61392   1.839   9.379   8.476
53187SOL    HW161393   1.744   9.368   8.476
53187SOL    HW261394   1.871   9.312   8.416
53188SOL     OW61395   5.469   6.392   1.202
53188SOL    HW161396   5.454   6.432   1.116
53188SOL    HW261397   5.416   6.444   1.262
53189SOL     OW61398   6.286   3.941   0.548
53189SOL    HW161399   6.246   3.855   0.547
53189SOL    HW261400   6.249   3.985   0.624
53190SOL     OW61401  10.444   9.802   0.830
53190SOL    HW161402  10.411   9.875   0.883
53190SOL    HW261403  10.480   9.844   0.752
53191SOL     OW61404   3.275   5.568   9.514
53191SOL    HW161405   3.357   5.529   9.542
53191SOL    HW261406   3.216   5.556   9.588
53192SOL     OW61407   7.688  10.951   2.868
53192SOL    HW161408   7.662  11.043   2.864
53192SOL    HW261409   7.638  10.910   2.797
53193SOL     OW61410   1.861   4.682  11.513
53193SOL    HW161411   1.943   4.632  11.514
53193SOL    HW261412   1.819   4.661  11.597
53194SOL     OW61413  11.954   0.260   9.762
53194SOL    HW161414  11.980   0.239   9.673
53194SOL    HW261415  11.967   0.178   9.811
53195SOL     OW61416  14.140   0.627   6.637
53195SOL    HW161417  14.050   0.596   6.631
53195SOL    HW261418  14.142   0.705   6.581
53196SOL     OW61419   0.560   7.151   0.483
53196SOL    HW161420   0.609   7.215   0.535
53196SOL    HW261421   0.621   7.077   0.473
53197SOL     OW61422  14.778  14.745   3.160
53197SOL    HW161423  14.754  14.653   3.154
53197SOL    HW261424  14.705  14.786   3.205
53198SOL     OW61425   9.792   4.247   8.659
53198SOL    HW161426   9.751   4.196   8.589
53198SOL    HW261427   9.752   4.334   8.651
53199SOL     OW61428   0.491   4.783   6.365
53199SOL    HW161429   0.464   4.820   6.449
53199SOL    HW261430   0.440   4.702   6.357
53200SOL     OW61431  13.337  10.447   4.850
53200SOL    HW161432  13.244  10.463   4.838
53200SOL    HW261433  13.380  10.525   4.815
53201SOL     OW61434  14.775   1.201  12.595
53201SOL    HW161435  14.782   1.124  12.539
53201SOL    HW261436  14.865   1.219  12.622
53202SOL     OW61437   4.551   0.297   7.745
53202SOL    HW161438   4.549   0.390   7.722
53202SOL    HW261439   4.553   0.252   7.660
53203SOL     OW61440   9.033  14.186   0.586
53203SOL    HW161441   9.030  14.111   0.526
53203SOL    HW261442   8.947  14.225   0.579
53204SOL     OW61443  11.324  11.808  10.911
53204SOL    HW161444  11.254  11.851  10.960
53204SOL    HW261445  11.395  11.871  10.909
53205SOL     OW61446   6.358  14.027   2.365
53205SOL    HW161447   6.394  14.001   2.450
53205SOL    HW261448   6.283  13.968   2.353
53206SOL     OW61449  11.741   1.734  10.139
53206SOL    HW161450  11.767   1.708  10.050
53206SOL    HW261451  11.648   1.757  10.131
53207SOL     OW61452   2.297   4.369  13.708
53207SOL    HW161453   2.277   4.276  13.714
53207SOL    HW261454   2.213   4.413  13.719
53208SOL     OW61455  12.942   1.503  13.468
53208SOL    HW161456  12.958   1.563  13.541
53208SOL    HW261457  12.995   1.538  13.396
53209SOL     OW61458  12.491   7.022   6.297
53209SOL    HW161459  12.396   7.037   6.294
53209SOL    HW261460  12.510   7.013   6.390
53210SOL     OW61461   5.947  13.736   5.471
53210SOL    HW161462   5.949  13.786   5.390
53210SOL    HW261463   5.855  13.712   5.482
53211SOL     OW61464   8.473  12.127   2.039
53211SOL    HW161465   8.488  12.090   1.952
53211SOL    HW261466   8.467  12.050   2.096
53212SOL     OW61467   6.656   2.790   3.668
53212SOL    HW161468   6.588   2.767   3.605
53212SOL    HW261469   6.645   2.727   3.739
53213SOL     OW61470   9.032   7.258   6.506
53213SOL    HW161471   8.969   7.305   6.559
53213SOL    HW261472   9.087   7.211   6.569
53214SOL     OW61473   3.890   2.581   1.684
53214SOL    HW161474   3.981   2.611   1.691
53214SOL    HW261475   3.887   2.532   1.602
53215SOL     OW61476   4.468  12.062   2.148
53215SOL    HW161477   4.556  12.066   2.186
53215SOL    HW261478   4.433  11.978   2.178
53216SOL     OW61479  10.584   9.467   5.533
53216SOL    HW161480  10.608   9.548   5.579
53216SOL    HW261481  10.664   9.440   5.488
53217SOL     OW61482  12.230   9.177  13.885
53217SOL    HW161483  12.315   9.204  13.919
53217SOL    HW261484  12.236   9.191  13.790
53218SOL     OW61485  10.023  11.094  10.337
53218SOL    HW161486   9.954  11.145  10.294
53218SOL    HW261487  10.046  11.026  10.274
53219SOL     OW61488   7.183  12.487   4.324
53219SOL    HW161489   7.145  12.452   4.244
53219SOL    HW261490   7.119  12.552   4.354
53220SOL     OW61491  13.075   8.515   9.649
53220SOL    HW161492  13.062   8.431   9.694
53220SOL    HW261493  12.991   8.534   9.609
53221SOL     OW61494   0.493   3.299   3.638
53221SOL    HW161495   0.531   3.347   3.711
53221SOL    HW261496   0.548   3.221   3.629
53222SOL     OW61497   0.314  13.171  10.380
53222SOL    HW161498   0.311  13.267  10.376
53222SOL    HW261499   0.228  13.143  10.349
53223SOL     OW61500  14.741   5.844   1.676
53223SOL    HW161501  14.834   5.820   1.676
53223SOL    HW261502  14.695   5.760   1.674
53224SOL     OW61503  13.237   3.675  14.015
53224SOL    HW161504  13.187   3.711  13.942
53224SOL    HW261505  13.309   3.737  14.028
53225SOL     OW61506   6.956   5.381   3.135
53225SOL    HW161507   6.982   5.289   3.136
53225SOL    HW261508   6.909   5.393   3.218
53226SOL     OW61509   1.065   5.708  12.459
53226SOL    HW161510   1.089   5.772  12.392
53226SOL    HW261511   1.146   5.663  12.479
53227SOL     OW61512   9.645   1.669  13.713
53227SOL    HW161513   9.644   1.599  13.777
53227SOL    HW261514   9.738   1.681  13.692
53228SOL     OW61515   5.180  11.769   9.216
53228SOL    HW161516   5.234  11.724   9.152
53228SOL    HW261517   5.194  11.722   9.298
53229SOL     OW61518   8.492  13.629   1.416
53229SOL    HW161519   8.422  13.633   1.351
53229SOL    HW261520   8.505  13.720   1.443
53230SOL     OW61521   8.149   3.038   8.417
53230SOL    HW161522   8.070   3.000   8.455
53230SOL    HW261523   8.120   3.072   8.332
53231SOL     OW61524   6.632   2.167   6.741
53231SOL    HW161525   6.697   2.116   6.790
53231SOL    HW261526   6.677   2.190   6.659
53232SOL     OW61527  12.837  14.279   9.370
53232SOL    HW161528  12.883  14.309   9.449
53232SOL    HW261529  12.897  14.217   9.329
53233SOL     OW61530   7.651   4.061  14.541
53233SOL    HW161531   7.707   3.987  14.566
53233SOL    HW261532   7.703   4.139  14.561
53234SOL     OW61533  12.713   2.982   8.466
53234SOL    HW161534  12.808   2.988   8.477
53234SOL    HW261535  12.693   2.889   8.481
53235SOL     OW61536  13.098   6.388  10.160
53235SOL    HW161537  13.036   6.428  10.099
53235SOL    HW261538  13.096   6.295  10.139
53236SOL     OW61539   7.357  13.352  12.538
53236SOL    HW161540   7.429  13.353  12.601
53236SOL    HW261541   7.368  13.432  12.487
53237SOL     OW61542  12.157  13.615  12.287
53237SOL    HW161543  12.200  13.591  12.370
53237SOL    HW261544  12.064  13.597  12.302
53238SOL     OW61545   8.708   8.162  10.147
53238SOL    HW161546   8.723   8.146  10.241
53238SOL    HW261547   8.620   8.130  10.131
53239SOL     OW61548   7.468   0.136   9.799
53239SOL    HW161549   7.495   0.096   9.716
53239SOL    HW261550   7.479   0.231   9.784
53240SOL     OW61551   5.387  11.366   5.457
53240SOL    HW161552   5.375  11.447   5.407
53240SOL    HW261553   5.427  11.305   5.395
53241SOL     OW61554   8.379   1.892   2.188
53241SOL    HW161555   8.458   1.871   2.238
53241SOL    HW261556   8.404   1.878   2.096
53242SOL     OW61557   3.864  12.586   4.022
53242SOL    HW161558   3.824  12.505   4.052
53242SOL    HW261559   3.921  12.613   4.095
53243SOL     OW61560  13.048  12.744   8.212
53243SOL    HW161561  13.076  12.806   8.280
53243SOL    HW261562  12.954  12.734   8.226
53244SOL     OW61563   7.065  13.833  10.802
53244SOL    HW161564   6.976  13.796  10.799
53244SOL    HW261565   7.115  13.772  10.855
53245SOL     OW61566  13.417  13.972   5.181
53245SOL    HW161567  13.403  14.041   5.245
53245SOL    HW261568  13.484  13.916   5.220
53246SOL     OW61569  10.011   3.167  12.207
53246SOL    HW161570   9.968   3.098  12.156
53246SOL    HW261571  10.089   3.124  12.243
53247SOL     OW61572   5.660  14.115   9.895
53247SOL    HW161573   5.585  14.150   9.846
53247SOL    HW261574   5.732  14.114   9.832
53248SOL     OW61575   3.837   9.233   7.428
53248SOL    HW161576   3.811   9.263   7.341
53248SOL    HW261577   3.927   9.203   7.417
53249SOL     OW61578   4.259   6.074   4.109
53249SOL    HW161579   4.225   6.012   4.043
53249SOL    HW261580   4.214   6.156   4.089
53250SOL     OW61581  10.882  10.466   6.480
53250SOL    HW161582  10.952  10.458   6.415
53250SOL    HW261583  10.882  10.381   6.525
53251SOL     OW61584  12.200  12.779   0.106
53251SOL    HW161585  12.249  12.714   0.054
53251SOL    HW261586  12.214  12.752   0.197
53252SOL     OW61587   6.822  10.502   3.925
53252SOL    HW161588   6.856  10.591   3.941
53252SOL    HW261589   6.785  10.506   3.837
53253SOL     OW61590  12.648   3.417   0.226
53253SOL    HW161591  12.553   3.400   0.229
53253SOL    HW261592  12.680   3.389   0.311
53254SOL     OW61593   0.727   1.300   0.030
53254SOL    HW161594   0.666   1.362   0.070
53254SOL    HW261595   0.728   1.225   0.090
53255SOL     OW61596   7.513   7.560   6.579
53255SOL    HW161597   7.504   7.554   6.484
53255SOL    HW261598   7.509   7.470   6.610
53256SOL     OW61599   7.285   7.243  14.078
53256SOL    HW161600   7.203   7.237  14.028
53256SOL    HW261601   7.275   7.322  14.132
53257SOL     OW61602   7.557  11.486   1.195
53257SOL    HW161603   7.600  11.402   1.207
53257SOL    HW261604   7.615  11.549   1.238
53258SOL     OW61605  11.692   3.974   8.284
53258SOL    HW161606  11.658   3.916   8.215
53258SOL    HW261607  11.722   4.051   8.237
53259SOL     OW61608   8.767   8.449   9.888
53259SOL    HW161609   8.779   8.362   9.850
53259SOL    HW261610   8.823   8.450   9.966
53260SOL     OW61611   8.381   7.344  11.258
53260SOL    HW161612   8.472   7.364  11.235
53260SOL    HW261613   8.381   7.250  11.277
53261SOL     OW61614  11.699   5.984  12.439
53261SOL    HW161615  11.676   5.915  12.376
53261SOL    HW261616  11.616   6.006  12.481
53262SOL     OW61617  12.369   2.037  11.227
53262SOL    HW161618  12.417   2.101  11.280
53262SOL    HW261619  12.419   1.956  11.235
53263SOL     OW61620   7.213   4.797   8.651
53263SOL    HW161621   7.263   4.869   8.688
53263SOL    HW261622   7.250   4.784   8.564
53264SOL     OW61623   1.138   3.274   6.343
53264SOL    HW161624   1.201   3.252   6.411
53264SOL    HW261625   1.170   3.229   6.265
53265SOL     OW61626  13.202   5.107   0.866
53265SOL    HW161627  13.232   5.065   0.785
53265SOL    HW261628  13.166   5.191   0.837
53266SOL     OW61629  10.578   0.832   8.645
53266SOL    HW161630  10.505   0.879   8.687
53266SOL    HW261631  10.544   0.807   8.559
53267SOL     OW61632  10.285  11.364   2.020
53267SOL    HW161633  10.361  11.308   2.037
53267SOL    HW261634  10.253  11.337   1.934
53268SOL     OW61635   9.464   8.625   3.929
53268SOL    HW161636   9.544   8.636   3.877
53268SOL    HW261637   9.457   8.705   3.980
53269SOL     OW61638   2.347  12.973   5.039
53269SOL    HW161639   2.327  13.057   5.080
53269SOL    HW261640   2.292  12.910   5.085
53270SOL     OW61641   5.946   8.419  11.721
53270SOL    HW161642   6.041   8.419  11.729
53270SOL    HW261643   5.929   8.408  11.628
53271SOL     OW61644   0.506   4.985   1.456
53271SOL    HW161645   0.584   5.039   1.446
53271SOL    HW261646   0.531   4.901   1.418
53272SOL     OW61647  11.105  10.265   6.132
53272SOL    HW161648  11.142  10.314   6.059
53272SOL    HW261649  11.114  10.323   6.208
53273SOL     OW61650   3.474   4.292  11.021
53273SOL    HW161651   3.432   4.348  11.086
53273SOL    HW261652   3.431   4.314  10.938
53274SOL     OW61653  10.871  12.820   6.130
53274SOL    HW161654  10.945  12.880   6.140
53274SOL    HW261655  10.825  12.826   6.214
53275SOL     OW61656   5.754   9.959   5.730
53275SOL    HW161657   5.780  10.017   5.802
53275SOL    HW261658   5.760   9.871   5.766
53276SOL     OW61659  12.210   0.723   3.813
53276SOL    HW161660  12.163   0.641   3.802
53276SOL    HW261661  12.298   0.697   3.840
53277SOL     OW61662   8.655   2.441   5.452
53277SOL    HW161663   8.730   2.475   5.404
53277SOL    HW261664   8.597   2.407   5.384
53278SOL     OW61665  12.733   8.061   8.723
53278SOL    HW161666  12.811   8.094   8.678
53278SOL    HW261667  12.752   8.076   8.816
53279SOL     OW61668  12.053  10.590  11.755
53279SOL    HW161669  12.112  10.638  11.697
53279SOL    HW261670  11.970  10.636  11.749
53280SOL     OW61671   1.391   5.487   2.693
53280SOL    HW161672   1.441   5.513   2.771
53280SOL    HW261673   1.301   5.484   2.724
53281SOL     OW61674  13.487   9.149   1.362
53281SOL    HW161675  13.497   9.057   1.386
53281SOL    HW261676  13.537   9.196   1.428
53282SOL     OW61677  10.100   2.361   5.643
53282SOL    HW161678  10.010   2.348   5.675
53282SOL    HW261679  10.102   2.453   5.617
53283SOL     OW61680  13.337  12.399   1.780
53283SOL    HW161681  13.303  12.464   1.841
53283SOL    HW261682  13.277  12.325   1.788
53284SOL     OW61683   4.515  10.609  10.199
53284SOL    HW161684   4.577  10.540  10.177
53284SOL    HW261685   4.429  10.566  10.200
53285SOL     OW61686  10.277   0.603  12.089
53285SOL    HW161687  10.326   0.621  12.170
53285SOL    HW261688  10.277   0.507  12.082
53286SOL     OW61689   2.408   5.259   9.109
53286SOL    HW161690   2.440   5.208   9.035
53286SOL    HW261691   2.440   5.213   9.186
53287SOL     OW61692  12.996  13.120  13.717
53287SOL    HW161693  13.011  13.205  13.758
53287SOL    HW261694  13.079  13.099  13.674
53288SOL     OW61695  11.910   7.290  14.521
53288SOL    HW161696  11.924   7.241  14.602
53288SOL    HW261697  11.816   7.307  14.519
53289SOL     OW61698   5.085   8.048   2.763
53289SOL    HW161699   5.045   7.975   2.810
53289SOL    HW261700   5.176   8.023   2.751
53290SOL     OW61701   0.113   3.001   0.206
53290SOL    HW161702   0.062   2.926   0.175
53290SOL    HW261703   0.109   2.995   0.302
53291SOL     OW61704  12.356   9.892  11.912
53291SOL    HW161705  12.287   9.935  11.859
53291SOL    HW261706  12.343   9.927  12.000
53292SOL     OW61707   7.740   1.652   7.092
53292SOL    HW161708   7.731   1.642   7.187
53292SOL    HW261709   7.732   1.746   7.077
53293SOL     OW61710   0.271  10.829  10.193
53293SOL    HW161711   0.322  10.780  10.129
53293SOL    HW261712   0.180  10.805  10.175
53294SOL     OW61713   8.918   8.461   7.074
53294SOL    HW161714   8.841   8.404   7.064
53294SOL    HW261715   8.992   8.405   7.051
53295SOL     OW61716   3.722  12.179  14.760
53295SOL    HW161717   3.771  12.097  14.766
53295SOL    HW261718   3.678  12.175  14.674
53296SOL     OW61719  11.413   7.233   3.747
53296SOL    HW161720  11.398   7.237   3.653
53296SOL    HW261721  11.508   7.220   3.756
53297SOL     OW61722   6.164   3.405   3.535
53297SOL    HW161723   6.121   3.401   3.620
53297SOL    HW261724   6.255   3.427   3.555
53298SOL     OW61725  14.212   7.949  10.748
53298SOL    HW161726  14.142   8.011  10.732
53298SOL    HW261727  14.287   7.983  10.698
53299SOL     OW61728  12.921   5.721  10.312
53299SOL    HW161729  12.978   5.648  10.337
53299SOL    HW261730  12.930   5.783  10.385
53300SOL     OW61731   4.412  12.625   1.598
53300SOL    HW161732   4.359  12.698   1.627
53300SOL    HW261733   4.437  12.648   1.508
53301SOL     OW61734  14.355   7.505   6.354
53301SOL    HW161735  14.432   7.562   6.352
53301SOL    HW261736  14.336   7.494   6.447
53302SOL     OW61737   4.461   4.958  12.312
53302SOL    HW161738   4.391   4.905  12.350
53302SOL    HW261739   4.516   4.896  12.265
53303SOL     OW61740   2.345   6.016   3.248
53303SOL    HW161741   2.413   6.015   3.315
53303SOL    HW261742   2.393   6.027   3.166
53304SOL     OW61743   3.101  13.031   5.864
53304SOL    HW161744   3.179  13.005   5.913
53304SOL    HW261745   3.133  13.091   5.797
53305SOL     OW61746  11.885   8.404   3.962
53305SOL    HW161747  11.924   8.343   3.899
53305SOL    HW261748  11.889   8.489   3.919
53306SOL     OW61749   3.229  14.051   2.465
53306SOL    HW161750   3.238  13.958   2.489
53306SOL    HW261751   3.198  14.050   2.375
53307SOL     OW61752   8.452  10.549   7.502
53307SOL    HW161753   8.491  10.614   7.560
53307SOL    HW261754   8.481  10.576   7.414
53308SOL     OW61755   1.776   4.601   1.843
53308SOL    HW161756   1.727   4.596   1.761
53308SOL    HW261757   1.845   4.535   1.833
53309SOL     OW61758  10.564  11.370  12.718
53309SOL    HW161759  10.572  11.438  12.651
53309SOL    HW261760  10.623  11.398  12.788
53310SOL     OW61761   4.372   8.397   3.873
53310SOL    HW161762   4.319   8.430   3.945
53310SOL    HW261763   4.426   8.471   3.846
53311SOL     OW61764   0.342  12.459   0.375
53311SOL    HW161765   0.290  12.380   0.366
53311SOL    HW261766   0.348  12.473   0.470
53312SOL     OW61767   6.155  12.507   7.078
53312SOL    HW161768   6.179  12.510   7.171
53312SOL    HW261769   6.127  12.416   7.064
53313SOL     OW61770  12.606  10.126   6.897
53313SOL    HW161771  12.675  10.103   6.835
53313SOL    HW261772  12.538  10.060   6.883
53314SOL     OW61773   3.211   4.488  11.603
53314SOL    HW161774   3.166   4.425  11.547
53314SOL    HW261775   3.253   4.549  11.543
53315SOL     OW61776   5.076   9.303   8.541
53315SOL    HW161777   5.100   9.318   8.450
53315SOL    HW261778   5.024   9.223   8.539
53316SOL     OW61779   3.702  14.103   9.696
53316SOL    HW161780   3.628  14.154   9.662
53316SOL    HW261781   3.778  14.138   9.651
53317SOL     OW61782   9.053   8.450   2.017
53317SOL    HW161783   9.032   8.388   1.947
53317SOL    HW261784   9.130   8.498   1.986
53318SOL     OW61785   2.108   0.951  14.723
53318SOL    HW161786   2.093   0.882  14.658
53318SOL    HW261787   2.036   1.013  14.707
53319SOL     OW61788  11.531   1.415   3.812
53319SOL    HW161789  11.452   1.470   3.804
53319SOL    HW261790  11.546   1.410   3.906
53320SOL     OW61791   7.632  13.901   2.623
53320SOL    HW161792   7.621  13.992   2.594
53320SOL    HW261793   7.546  13.876   2.657
53321SOL     OW61794  12.493   6.934  11.544
53321SOL    HW161795  12.463   6.919  11.454
53321SOL    HW261796  12.481   7.028  11.558
53322SOL     OW61797  12.782  12.831   5.574
53322SOL    HW161798  12.763  12.898   5.507
53322SOL    HW261799  12.737  12.863   5.653
53323SOL     OW61800   8.951   3.386   2.448
53323SOL    HW161801   8.887   3.455   2.432
53323SOL    HW261802   8.901   3.305   2.435
53324SOL     OW61803   3.099  14.388   3.408
53324SOL    HW161804   3.081  14.312   3.463
53324SOL    HW261805   3.194  14.397   3.408
53325SOL     OW61806   4.296   6.399   3.468
53325SOL    HW161807   4.287   6.304   3.461
53325SOL    HW261808   4.369   6.411   3.529
53326SOL     OW61809  12.557   9.081  11.015
53326SOL    HW161810  12.520   8.993  11.019
53326SOL    HW261811  12.609   9.089  11.095
53327SOL     OW61812   4.394   0.542  12.039
53327SOL    HW161813   4.397   0.618  11.980
53327SOL    HW261814   4.452   0.478  11.999
53328SOL     OW61815  11.841  12.612   6.282
53328SOL    HW161816  11.790  12.548   6.332
53328SOL    HW261817  11.776  12.671   6.245
53329SOL     OW61818   5.477   3.931   8.086
53329SOL    HW161819   5.481   4.025   8.106
53329SOL    HW261820   5.414   3.897   8.150
53330SOL     OW61821   4.087   8.050   3.881
53330SOL    HW161822   4.022   7.998   3.929
53330SOL    HW261823   4.053   8.140   3.885
53331SOL     OW61824   3.732   4.623   6.015
53331SOL    HW161825   3.782   4.704   6.029
53331SOL    HW261826   3.724   4.616   5.920
53332SOL     OW61827  12.872  13.975  13.318
53332SOL    HW161828  12.847  13.883  13.329
53332SOL    HW261829  12.858  13.992  13.225
53333SOL     OW61830   1.494  10.825  13.711
53333SOL    HW161831   1.543  10.766  13.770
53333SOL    HW261832   1.405  10.792  13.714
53334SOL     OW61833  13.986  13.331   7.858
53334SOL    HW161834  13.898  13.365   7.842
53334SOL    HW261835  13.985  13.304   7.950
53335SOL     OW61836   0.172   2.560  12.767
53335SOL    HW161837   0.135   2.582  12.853
53335SOL    HW261838   0.143   2.632  12.710
53336SOL     OW61839   8.113   8.916   4.189
53336SOL    HW161840   8.073   8.974   4.124
53336SOL    HW261841   8.171   8.974   4.239
53337SOL     OW61842   3.002  12.742  11.899
53337SOL    HW161843   3.031  12.828  11.867
53337SOL    HW261844   3.034  12.680  11.833
53338SOL     OW61845   8.110   2.555   9.080
53338SOL    HW161846   8.038   2.556   9.143
53338SOL    HW261847   8.175   2.496   9.117
53339SOL     OW61848   1.297  13.774   2.251
53339SOL    HW161849   1.368  13.818   2.205
53339SOL    HW261850   1.218  13.801   2.204
53340SOL     OW61851   1.223   0.851   3.875
53340SOL    HW161852   1.304   0.866   3.924
53340SOL    HW261853   1.231   0.906   3.797
53341SOL     OW61854   1.070   2.132   4.556
53341SOL    HW161855   1.043   2.223   4.563
53341SOL    HW261856   0.988   2.083   4.556
53342SOL     OW61857  10.494   6.257   5.126
53342SOL    HW161858  10.447   6.254   5.043
53342SOL    HW261859  10.426   6.243   5.193
53343SOL     OW61860   1.168   5.466   6.354
53343SOL    HW161861   1.187   5.512   6.272
53343SOL    HW261862   1.242   5.488   6.411
53344SOL     OW61863  10.762  11.305   0.721
53344SOL    HW161864  10.837  11.323   0.664
53344SOL    HW261865  10.694  11.364   0.689
53345SOL     OW61866  12.520   1.646   8.389
53345SOL    HW161867  12.448   1.691   8.434
53345SOL    HW261868  12.596   1.660   8.446
53346SOL     OW61869  10.559   3.408   0.258
53346SOL    HW161870  10.521   3.472   0.197
53346SOL    HW261871  10.614   3.460   0.317
53347SOL     OW61872   3.421   6.397   5.001
53347SOL    HW161873   3.490   6.403   4.934
53347SOL    HW261874   3.341   6.422   4.956
53348SOL     OW61875   2.566   2.405   2.996
53348SOL    HW161876   2.605   2.425   3.081
53348SOL    HW261877   2.640   2.372   2.944
53349SOL     OW61878   6.916   7.682   9.247
53349SOL    HW161879   6.998   7.730   9.250
53349SOL    HW261880   6.927   7.611   9.310
53350SOL     OW61881  11.672   5.301   9.844
53350SOL    HW161882  11.713   5.215   9.843
53350SOL    HW261883  11.614   5.300   9.920
53351SOL     OW61884  10.546  12.921  11.018
53351SOL    HW161885  10.568  13.014  11.022
53351SOL    HW261886  10.497  12.912  10.936
53352SOL     OW61887   7.329   6.218   3.066
53352SOL    HW161888   7.264   6.256   3.007
53352SOL    HW261889   7.412   6.229   3.021
53353SOL     OW61890   1.726   2.553   3.512
53353SOL    HW161891   1.675   2.473   3.504
53353SOL    HW261892   1.813   2.530   3.480
53354SOL     OW61893   3.649   6.387   9.001
53354SOL    HW161894   3.599   6.465   8.979
53354SOL    HW261895   3.740   6.416   9.005
53355SOL     OW61896   4.715   4.439   1.504
53355SOL    HW161897   4.701   4.386   1.583
53355SOL    HW261898   4.749   4.377   1.439
53356SOL     OW61899   6.099   7.591  12.507
53356SOL    HW161900   6.133   7.566  12.593
53356SOL    HW261901   6.016   7.545  12.500
53357SOL     OW61902  14.035   3.020  14.264
53357SOL    HW161903  14.041   3.105  14.219
53357SOL    HW261904  14.125   3.000  14.289
53358SOL     OW61905   6.798   5.630  13.406
53358SOL    HW161906   6.792   5.707  13.463
53358SOL    HW261907   6.878   5.586  13.434
53359SOL     OW61908   3.406   3.210   2.516
53359SOL    HW161909   3.362   3.133   2.553
53359SOL    HW261910   3.354   3.232   2.439
53360SOL     OW61911   7.053   9.782  11.461
53360SOL    HW161912   6.986   9.850  11.467
53360SOL    HW261913   7.078   9.780  11.369
53361SOL     OW61914  13.862   8.124   8.010
53361SOL    HW161915  13.805   8.051   8.037
53361SOL    HW261916  13.925   8.133   8.081
53362SOL     OW61917   9.577   5.479   2.582
53362SOL    HW161918   9.511   5.515   2.523
53362SOL    HW261919   9.619   5.409   2.532
53363SOL     OW61920  11.156   1.548   4.364
53363SOL    HW161921  11.202   1.631   4.366
53363SOL    HW261922  11.200   1.497   4.296
53364SOL     OW61923   1.899   1.230  10.653
53364SOL    HW161924   1.830   1.294  10.636
53364SOL    HW261925   1.964   1.277  10.704
53365SOL     OW61926  11.035   1.271   9.125
53365SOL    HW161927  10.941   1.260   9.141
53365SOL    HW261928  11.055   1.208   9.056
53366SOL     OW61929   3.044  13.428  13.294
53366SOL    HW161930   3.104  13.501  13.284
53366SOL    HW261931   3.070  13.367  13.225
53367SOL     OW61932  14.774  13.141   5.762
53367SOL    HW161933  14.694  13.147   5.814
53367SOL    HW261934  14.769  13.054   5.721
53368SOL     OW61935   9.778  14.649  13.065
53368SOL    HW161936   9.816  14.608  13.143
53368SOL    HW261937   9.713  14.586  13.035
53369SOL     OW61938   3.127   7.221   6.470
53369SOL    HW161939   3.201   7.278   6.488
53369SOL    HW261940   3.050   7.270   6.501
53370SOL     OW61941   5.888   3.943  11.605
53370SOL    HW161942   5.817   3.981  11.656
53370SOL    HW261943   5.924   3.874  11.660
53371SOL     OW61944   4.851   7.692  11.668
53371SOL    HW161945   4.827   7.649  11.585
53371SOL    HW261946   4.791   7.654  11.732
53372SOL     OW61947  12.890  11.172   4.077
53372SOL    HW161948  12.872  11.245   4.018
53372SOL    HW261949  12.939  11.110   4.023
53373SOL     OW61950   9.483   9.938   0.425
53373SOL    HW161951   9.447  10.026   0.417
53373SOL    HW261952   9.574   9.947   0.397
53374SOL     OW61953  12.763   5.397  12.305
53374SOL    HW161954  12.747   5.334  12.235
53374SOL    HW261955  12.755   5.346  12.386
53375SOL     OW61956   0.098  12.349   5.932
53375SOL    HW161957   0.178  12.339   5.985
53375SOL    HW261958   0.127  12.395   5.853
53376SOL     OW61959   0.759   8.074   6.756
53376SOL    HW161960   0.845   8.117   6.758
53376SOL    HW261961   0.719   8.096   6.840
53377SOL     OW61962   2.224   9.582   0.041
53377SOL    HW161963   2.244   9.495   0.076
53377SOL    HW261964   2.129   9.584   0.034
53378SOL     OW61965   4.465   0.616   8.080
53378SOL    HW161966   4.553   0.651   8.089
53378SOL    HW261967   4.458   0.548   8.147
53379SOL     OW61968   2.694   7.661  13.094
53379SOL    HW161969   2.739   7.723  13.150
53379SOL    HW261970   2.758   7.638  13.026
53380SOL     OW61971  12.960   9.128   0.158
53380SOL    HW161972  12.890   9.135   0.092
53380SOL    HW261973  12.915   9.139   0.241
53381SOL     OW61974   7.503   7.475   8.092
53381SOL    HW161975   7.553   7.534   8.036
53381SOL    HW261976   7.536   7.388   8.070
53382SOL     OW61977   8.461  11.992  10.646
53382SOL    HW161978   8.440  12.075  10.603
53382SOL    HW261979   8.401  11.988  10.720
53383SOL     OW61980   6.698  13.960   7.016
53383SOL    HW161981   6.667  13.970   7.106
53383SOL    HW261982   6.792  13.946   7.025
53384SOL     OW61983   2.037   1.332   2.604
53384SOL    HW161984   2.131   1.320   2.593
53384SOL    HW261985   2.009   1.256   2.656
53385SOL     OW61986  12.596   2.295  14.304
53385SOL    HW161987  12.590   2.296  14.209
53385SOL    HW261988  12.506   2.279  14.334
53386SOL     OW61989   2.236   8.978  10.847
53386SOL    HW161990   2.279   9.058  10.875
53386SOL    HW261991   2.166   9.007  10.788
53387SOL     OW61992   4.604   0.655  10.969
53387SOL    HW161993   4.617   0.717  10.896
53387SOL    HW261994   4.530   0.602  10.942
53388SOL     OW61995  11.100   2.776  11.809
53388SOL    HW161996  11.182   2.729  11.823
53388SOL    HW261997  11.038   2.710  11.778
53389SOL     OW61998  12.263  11.616  12.551
53389SOL    HW161999  12.336  11.657  12.505
53389SOL    HW262000  12.222  11.559  12.486
53390SOL     OW62001  10.148   1.255   9.683
53390SOL    HW162002  10.207   1.330   9.687
53390SOL    HW262003  10.085   1.271   9.753
53391SOL     OW62004   6.016   0.805  11.334
53391SOL    HW162005   6.036   0.864  11.262
53391SOL    HW262006   6.097   0.757  11.350
53392SOL     OW62007  10.966   3.871   5.592
53392SOL    HW162008  10.888   3.844   5.544
53392SOL    HW262009  11.034   3.881   5.525
53393SOL     OW62010   0.156   2.832  12.031
53393SOL    HW162011   0.147   2.843  11.936
53393SOL    HW262012   0.083   2.882  12.067
53394SOL     OW62013  14.485   9.683   2.597
53394SOL    HW162014  14.510   9.694   2.505
53394SOL    HW262015  14.477   9.772   2.631
53395SOL     OW62016   0.350   4.307  12.887
53395SOL    HW162017   0.392   4.367  12.949
53395SOL    HW262018   0.266   4.286  12.927
53396SOL     OW62019   5.335  10.581   0.686
53396SOL    HW162020   5.345  10.674   0.706
53396SOL    HW262021   5.254  10.556   0.731
53397SOL     OW62022  13.618  10.596   3.759
53397SOL    HW162023  13.541  10.550   3.725
53397SOL    HW262024  13.599  10.688   3.744
53398SOL     OW62025  11.033   1.573  10.478
53398SOL    HW162026  11.043   1.664  10.506
53398SOL    HW262027  11.034   1.577  10.382
53399SOL     OW62028   0.306  12.319  13.456
53399SOL    HW162029   0.294  12.394  13.514
53399SOL    HW262030   0.254  12.249  13.495
53400SOL     OW62031  13.223   8.125   4.366
53400SOL    HW162032  13.316   8.116   4.347
53400SOL    HW262033  13.214   8.095   4.456
53401SOL     OW62034   2.098   2.439   6.839
53401SOL    HW162035   2.110   2.345   6.830
53401SOL    HW262036   2.178   2.470   6.882
53402SOL     OW62037   2.560   3.462  10.760
53402SOL    HW162038   2.649   3.429  10.772
53402SOL    HW262039   2.572   3.555  10.739
53403SOL     OW62040   8.051   6.948  14.420
53403SOL    HW162041   8.002   6.868  14.399
53403SOL    HW262042   8.098   6.969  14.340
53404SOL     OW62043   7.851   9.400  14.161
53404SOL    HW162044   7.828   9.389  14.069
53404SOL    HW262045   7.881   9.491  14.168
53405SOL     OW62046   6.496   1.564  14.824
53405SOL    HW162047   6.572   1.541   0.006
53405SOL    HW262048   6.452   1.633   0.002
53406SOL     OW62049   0.066  12.725  13.379
53406SOL    HW162050   0.075  12.814  13.412
53406SOL    HW262051  14.859  12.728  13.326
53407SOL     OW62052   1.116   8.660   6.548
53407SOL    HW162053   1.142   8.616   6.629
53407SOL    HW262054   1.029   8.624   6.529
53408SOL     OW62055   5.636  14.729   1.910
53408SOL    HW162056   5.672  14.810   1.947
53408SOL    HW262057   5.618  14.750   1.818
53409SOL     OW62058   0.485   2.310   7.712
53409SOL    HW162059   0.407   2.332   7.763
53409SOL    HW262060   0.494   2.383   7.650
53410SOL     OW62061  14.306  14.568   0.339
53410SOL    HW162062  14.366  14.516   0.285
53410SOL    HW262063  14.360  14.637   0.376
53411SOL     OW62064   5.223   4.891   9.762
53411SOL    HW162065   5.315   4.869   9.781
53411SOL    HW262066   5.227   4.954   9.691
53412SOL     OW62067   6.331   0.925   6.351
53412SOL    HW162068   6.402   0.894   6.295
53412SOL    HW262069   6.316   1.015   6.324
53413SOL     OW62070   5.207   8.716   8.404
53413SOL    HW162071   5.204   8.648   8.336
53413SOL    HW262072   5.203   8.667   8.486
53414SOL     OW62073   1.141  10.799   0.860
53414SOL    HW162074   1.130  10.839   0.774
53414SOL    HW262075   1.108  10.864   0.921
53415SOL     OW62076  13.935   3.749   2.498
53415SOL    HW162077  13.850   3.709   2.517
53415SOL    HW262078  13.941   3.824   2.556
53416SOL     OW62079   3.197   6.788   0.479
53416SOL    HW162080   3.258   6.729   0.435
53416SOL    HW262081   3.119   6.788   0.424
53417SOL     OW62082   9.609   3.791  14.636
53417SOL    HW162083   9.631   3.866  14.690
53417SOL    HW262084   9.660   3.719  14.672
53418SOL     OW62085   1.472  11.922   7.113
53418SOL    HW162086   1.452  12.015   7.121
53418SOL    HW262087   1.400  11.878   7.159
53419SOL     OW62088   4.451  11.689   6.936
53419SOL    HW162089   4.538  11.723   6.956
53419SOL    HW262090   4.438  11.617   6.997
53420SOL     OW62091   1.432  13.084  10.071
53420SOL    HW162092   1.388  13.018  10.124
53420SOL    HW262093   1.525  13.073  10.091
53421SOL     OW62094   9.988  10.119   1.346
53421SOL    HW162095   9.946  10.077   1.421
53421SOL    HW262096  10.024  10.201   1.382
53422SOL     OW62097   4.626   1.973   3.968
53422SOL    HW162098   4.628   2.005   4.059
53422SOL    HW262099   4.544   1.925   3.961
53423SOL     OW62100  13.107  13.520  13.067
53423SOL    HW162101  13.121  13.426  13.078
53423SOL    HW262102  13.015  13.533  13.091
53424SOL     OW62103  12.939   8.095   2.553
53424SOL    HW162104  12.950   8.074   2.460
53424SOL    HW262105  12.844   8.108   2.563
53425SOL     OW62106   5.275   6.500   2.055
53425SOL    HW162107   5.349   6.544   2.096
53425SOL    HW262108   5.314   6.448   1.985
53426SOL     OW62109  10.123  10.198   4.569
53426SOL    HW162110  10.043  10.176   4.521
53426SOL    HW262111  10.181  10.235   4.502
53427SOL     OW62112   5.604   5.520   3.286
53427SOL    HW162113   5.612   5.547   3.377
53427SOL    HW262114   5.545   5.585   3.247
53428SOL     OW62115  10.664   5.306   7.683
53428SOL    HW162116  10.587   5.251   7.695
53428SOL    HW262117  10.630   5.394   7.668
53429SOL     OW62118   6.582  12.397   1.267
53429SOL    HW162119   6.540  12.482   1.278
53429SOL    HW262120   6.605  12.393   1.175
53430SOL     OW62121   0.416   7.742   7.247
53430SOL    HW162122   0.402   7.832   7.274
53430SOL    HW262123   0.511   7.730   7.254
53431SOL     OW62124  12.724  12.621  13.280
53431SOL    HW162125  12.675  12.653  13.204
53431SOL    HW262126  12.786  12.691  13.300
53432SOL     OW62127   8.305  12.670   6.894
53432SOL    HW162128   8.344  12.703   6.974
53432SOL    HW262129   8.237  12.734   6.871
53433SOL     OW62130   8.443   2.873  11.242
53433SOL    HW162131   8.448   2.788  11.286
53433SOL    HW262132   8.483   2.858  11.156
53434SOL     OW62133  14.621   2.013  10.091
53434SOL    HW162134  14.525   2.007  10.088
53434SOL    HW262135  14.638   2.083  10.154
53435SOL     OW62136  14.847  14.479   5.986
53435SOL    HW162137   0.034  14.404   5.996
53435SOL    HW262138  14.830  14.507   6.076
53436SOL     OW62139   4.919   7.019   8.976
53436SOL    HW162140   4.898   7.103   9.016
53436SOL    HW262141   4.879   6.955   9.035
53437SOL     OW62142   3.003   5.464  12.430
53437SOL    HW162143   3.041   5.390  12.383
53437SOL    HW262144   3.052   5.467  12.512
53438SOL     OW62145  11.265   8.770   8.282
53438SOL    HW162146  11.234   8.679   8.284
53438SOL    HW262147  11.352   8.766   8.323
53439SOL     OW62148  14.426   3.411   8.530
53439SOL    HW162149  14.486   3.465   8.582
53439SOL    HW262150  14.355   3.471   8.508
53440SOL     OW62151   8.963   4.574   5.896
53440SOL    HW162152   8.869   4.573   5.877
53440SOL    HW262153   8.969   4.614   5.983
53441SOL     OW62154   5.705   9.026  11.157
53441SOL    HW162155   5.787   9.048  11.113
53441SOL    HW262156   5.657   9.109  11.160
53442SOL     OW62157   5.920  13.839   0.826
53442SOL    HW162158   5.911  13.813   0.918
53442SOL    HW262159   6.014  13.847   0.812
53443SOL     OW62160   6.801   2.434   3.527
53443SOL    HW162161   6.801   2.340   3.544
53443SOL    HW262162   6.728   2.448   3.467
53444SOL     OW62163  10.430  12.685   6.072
53444SOL    HW162164  10.493  12.748   6.108
53444SOL    HW262165  10.483  12.609   6.049
53445SOL     OW62166   5.544   0.594   0.546
53445SOL    HW162167   5.509   0.519   0.595
53445SOL    HW262168   5.603   0.556   0.481
53446SOL     OW62169   8.336   6.598   2.212
53446SOL    HW162170   8.425   6.563   2.202
53446SOL    HW262171   8.307   6.614   2.123
53447SOL     OW62172   5.343   6.363  14.245
53447SOL    HW162173   5.331   6.458  14.238
53447SOL    HW262174   5.387   6.338  14.163
53448SOL     OW62175   7.594   7.529  12.618
53448SOL    HW162176   7.596   7.542  12.524
53448SOL    HW262177   7.552   7.444  12.630
53449SOL     OW62178  13.122   0.124   8.561
53449SOL    HW162179  13.098   0.080   8.479
53449SOL    HW262180  13.121   0.218   8.539
53450SOL     OW62181   3.963  13.559   2.160
53450SOL    HW162182   3.971  13.645   2.202
53450SOL    HW262183   4.039  13.554   2.101
53451SOL     OW62184   4.166   2.982  13.829
53451SOL    HW162185   4.137   3.051  13.888
53451SOL    HW262186   4.231   3.023  13.773
53452SOL     OW62187   6.348   5.658   0.113
53452SOL    HW162188   6.345   5.605   0.033
53452SOL    HW262189   6.320   5.598   0.183
53453SOL     OW62190   1.094  14.361   5.561
53453SOL    HW162191   1.041  14.340   5.485
53453SOL    HW262192   1.032  14.396   5.626
53454SOL     OW62193   3.078   4.640   0.076
53454SOL    HW162194   3.156   4.630   0.022
53454SOL    HW262195   3.102   4.707   0.141
53455SOL     OW62196   9.049   1.942  14.636
53455SOL    HW162197   9.141   1.924  14.654
53455SOL    HW262198   9.047   2.034  14.612
53456SOL     OW62199  12.984   1.179   9.428
53456SOL    HW162200  12.933   1.230   9.367
53456SOL    HW262201  12.924   1.161   9.501
53457SOL     OW62202   1.129   6.602  12.913
53457SOL    HW162203   1.212   6.584  12.955
53457SOL    HW262204   1.092   6.675  12.963
53458SOL     OW62205   7.787  12.506   2.619
53458SOL    HW162206   7.823  12.436   2.564
53458SOL    HW262207   7.849  12.578   2.608
53459SOL     OW62208   6.170  12.375   5.852
53459SOL    HW162209   6.202  12.344   5.936
53459SOL    HW262210   6.245  12.421   5.813
53460SOL     OW62211   0.919   0.714   1.768
53460SOL    HW162212   0.830   0.697   1.737
53460SOL    HW262213   0.959   0.766   1.699
53461SOL     OW62214  10.685   7.764  10.747
53461SOL    HW162215  10.734   7.714  10.812
53461SOL    HW262216  10.655   7.842  10.795
53462SOL     OW62217  14.071   5.514   5.436
53462SOL    HW162218  14.160   5.540   5.462
53462SOL    HW262219  14.084   5.438   5.379
53463SOL     OW62220   9.826  13.179  10.635
53463SOL    HW162221   9.742  13.149  10.669
53463SOL    HW262222   9.809  13.267  10.602
53464SOL     OW62223   8.610   2.461  12.241
53464SOL    HW162224   8.631   2.512  12.163
53464SOL    HW262225   8.693   2.424  12.269
53465SOL     OW62226   3.530   4.983   6.857
53465SOL    HW162227   3.550   4.897   6.820
53465SOL    HW262228   3.602   5.001   6.917
53466SOL     OW62229  11.566  10.553   1.864
53466SOL    HW162230  11.599  10.464   1.877
53466SOL    HW262231  11.613  10.606   1.928
53467SOL     OW62232   9.851   6.373   2.562
53467SOL    HW162233   9.890   6.295   2.522
53467SOL    HW262234   9.865   6.442   2.497
53468SOL     OW62235  11.030  10.715  10.117
53468SOL    HW162236  11.026  10.805  10.149
53468SOL    HW262237  11.113  10.682  10.152
53469SOL     OW62238  11.792   2.731   8.090
53469SOL    HW162239  11.794   2.788   8.167
53469SOL    HW262240  11.699   2.708   8.080
53470SOL     OW62241   3.746   1.547   6.940
53470SOL    HW162242   3.714   1.473   6.888
53470SOL    HW262243   3.789   1.604   6.876
53471SOL     OW62244  11.773   8.155   9.158
53471SOL    HW162245  11.700   8.114   9.113
53471SOL    HW262246  11.847   8.146   9.097
53472SOL     OW62247  11.769  11.900   2.092
53472SOL    HW162248  11.740  11.931   2.178
53472SOL    HW262249  11.692  11.857   2.055
53473SOL     OW62250  10.867   3.567   3.018
53473SOL    HW162251  10.950   3.521   3.006
53473SOL    HW262252  10.802   3.509   2.978
53474SOL     OW62253   4.612   7.196   2.376
53474SOL    HW162254   4.651   7.282   2.359
53474SOL    HW262255   4.687   7.136   2.378
53475SOL     OW62256  12.718  10.607   8.475
53475SOL    HW162257  12.772  10.611   8.554
53475SOL    HW262258  12.750  10.679   8.420
53476SOL     OW62259   2.627   7.568   1.646
53476SOL    HW162260   2.662   7.642   1.596
53476SOL    HW262261   2.598   7.607   1.729
53477SOL     OW62262   7.526   2.092  12.226
53477SOL    HW162263   7.577   2.044  12.291
53477SOL    HW262264   7.545   2.184  12.244
53478SOL     OW62265  13.732  13.711   3.930
53478SOL    HW162266  13.731  13.716   4.025
53478SOL    HW262267  13.786  13.785   3.902
53479SOL     OW62268  12.106   4.914   2.309
53479SOL    HW162269  12.103   4.830   2.354
53479SOL    HW262270  12.017   4.949   2.318
53480SOL     OW62271   0.964  10.700  12.775
53480SOL    HW162272   0.927  10.657  12.698
53480SOL    HW262273   0.895  10.759  12.804
53481SOL     OW62274   0.321  12.059  11.823
53481SOL    HW162275   0.237  12.090  11.857
53481SOL    HW262276   0.313  12.066  11.728
53482SOL     OW62277  10.522  11.024  12.930
53482SOL    HW162278  10.559  10.937  12.945
53482SOL    HW262279  10.525  11.035  12.835
53483SOL     OW62280   6.879   3.096   1.254
53483SOL    HW162281   6.832   3.158   1.310
53483SOL    HW262282   6.968   3.095   1.289
53484SOL     OW62283  10.912  11.913   4.450
53484SOL    HW162284  10.833  11.934   4.501
53484SOL    HW262285  10.908  11.818   4.438
53485SOL     OW62286  10.464   8.264   2.520
53485SOL    HW162287  10.520   8.319   2.575
53485SOL    HW262288  10.524   8.201   2.480
53486SOL     OW62289   3.597   8.250   3.820
53486SOL    HW162290   3.550   8.322   3.779
53486SOL    HW262291   3.588   8.266   3.914
53487SOL     OW62292   2.636   6.831  11.137
53487SOL    HW162293   2.699   6.774  11.094
53487SOL    HW262294   2.681   6.861  11.216
53488SOL     OW62295   9.706   9.697   6.792
53488SOL    HW162296   9.667   9.782   6.809
53488SOL    HW262297   9.637   9.634   6.813
53489SOL     OW62298  12.673  10.046   2.319
53489SOL    HW162299  12.615  10.055   2.395
53489SOL    HW262300  12.615  10.019   2.248
53490SOL     OW62301   2.508   1.150   8.480
53490SOL    HW162302   2.550   1.089   8.420
53490SOL    HW262303   2.502   1.232   8.431
53491SOL     OW62304  13.503   3.116   8.884
53491SOL    HW162305  13.558   3.185   8.848
53491SOL    HW262306  13.559   3.071   8.948
53492SOL     OW62307   4.018   2.036   6.520
53492SOL    HW162308   4.065   2.088   6.455
53492SOL    HW262309   4.001   2.097   6.592
53493SOL     OW62310  10.372   8.495   7.201
53493SOL    HW162311  10.345   8.531   7.117
53493SOL    HW262312  10.295   8.504   7.257
53494SOL     OW62313   8.032   6.989   6.397
53494SOL    HW162314   8.089   6.927   6.443
53494SOL    HW262315   8.058   7.075   6.430
53495SOL     OW62316   4.690   5.451  14.138
53495SOL    HW162317   4.664   5.444  14.046
53495SOL    HW262318   4.658   5.370  14.178
53496SOL     OW62319   8.324   3.937   9.638
53496SOL    HW162320   8.297   4.022   9.674
53496SOL    HW262321   8.413   3.925   9.671
53497SOL     OW62322   3.934  14.467   6.527
53497SOL    HW162323   4.002  14.401   6.519
53497SOL    HW262324   3.886  14.463   6.444
53498SOL     OW62325   5.498   7.338   5.810
53498SOL    HW162326   5.451   7.415   5.776
53498SOL    HW262327   5.589   7.366   5.819
53499SOL     OW62328   4.390   4.003  12.723
53499SOL    HW162329   4.327   4.015  12.652
53499SOL    HW262330   4.397   3.908  12.734
53500SOL     OW62331  13.751   1.276  11.541
53500SOL    HW162332  13.708   1.197  11.573
53500SOL    HW262333  13.838   1.273  11.581
53501SOL     OW62334   7.361   5.823   1.458
53501SOL    HW162335   7.271   5.794   1.452
53501SOL    HW262336   7.399   5.802   1.373
53502SOL     OW62337  13.685   9.272   7.527
53502SOL    HW162338  13.722   9.339   7.470
53502SOL    HW262339  13.739   9.275   7.606
53503SOL     OW62340   8.882  12.277   0.343
53503SOL    HW162341   8.794  12.289   0.307
53503SOL    HW262342   8.938  12.334   0.291
53504SOL     OW62343   2.370  13.159   2.769
53504SOL    HW162344   2.433  13.231   2.769
53504SOL    HW262345   2.421  13.083   2.797
53505SOL     OW62346   7.041   2.135   1.846
53505SOL    HW162347   6.948   2.138   1.827
53505SOL    HW262348   7.049   2.168   1.935
53506SOL     OW62349   3.371  12.377   1.988
53506SOL    HW162350   3.361  12.285   2.013
53506SOL    HW262351   3.288  12.399   1.945
53507SOL     OW62352  13.544   3.972  11.964
53507SOL    HW162353  13.635   3.949  11.981
53507SOL    HW262354  13.496   3.890  11.978
53508SOL     OW62355   4.056   5.559   2.202
53508SOL    HW162356   4.120   5.588   2.137
53508SOL    HW262357   4.018   5.480   2.163
53509SOL     OW62358   6.808   4.056   2.227
53509SOL    HW162359   6.863   3.998   2.175
53509SOL    HW262360   6.865   4.129   2.251
53510SOL     OW62361  13.188   6.834   9.447
53510SOL    HW162362  13.199   6.740   9.463
53510SOL    HW262363  13.141   6.839   9.364
53511SOL     OW62364  11.102   1.696   8.743
53511SOL    HW162365  11.048   1.765   8.706
53511SOL    HW262366  11.042   1.622   8.756
53512SOL     OW62367   4.252   3.481  12.773
53512SOL    HW162368   4.267   3.460  12.680
53512SOL    HW262369   4.267   3.575  12.779
53513SOL     OW62370   9.735   5.547   3.164
53513SOL    HW162371   9.736   5.477   3.229
53513SOL    HW262372   9.694   5.509   3.087
53514SOL     OW62373   2.410   3.134   9.742
53514SOL    HW162374   2.386   3.056   9.692
53514SOL    HW262375   2.443   3.195   9.676
53515SOL     OW62376   0.994   4.505  13.729
53515SOL    HW162377   0.991   4.448  13.806
53515SOL    HW262378   1.074   4.479  13.683
53516SOL     OW62379  12.261  10.823   4.134
53516SOL    HW162380  12.200  10.764   4.179
53516SOL    HW262381  12.304  10.768   4.069
53517SOL     OW62382   9.126   4.377   8.210
53517SOL    HW162383   9.095   4.303   8.157
53517SOL    HW262384   9.075   4.370   8.291
53518SOL     OW62385   4.549  11.623   6.513
53518SOL    HW162386   4.614  11.639   6.445
53518SOL    HW262387   4.579  11.544   6.557
53519SOL     OW62388   3.233  14.124   5.863
53519SOL    HW162389   3.239  14.029   5.857
53519SOL    HW262390   3.233  14.141   5.958
53520SOL     OW62391   9.916   9.650  11.070
53520SOL    HW162392   9.978   9.608  11.010
53520SOL    HW262393   9.860   9.703  11.014
53521SOL     OW62394   6.485   8.045   8.860
53521SOL    HW162395   6.557   8.106   8.875
53521SOL    HW262396   6.484   8.032   8.765
53522SOL     OW62397   8.650   5.892   4.330
53522SOL    HW162398   8.670   5.922   4.418
53522SOL    HW262399   8.728   5.844   4.302
53523SOL     OW62400   6.876   3.036   2.324
53523SOL    HW162401   6.950   2.996   2.370
53523SOL    HW262402   6.864   3.121   2.367
53524SOL     OW62403   8.155   8.811   2.300
53524SOL    HW162404   8.063   8.808   2.274
53524SOL    HW262405   8.178   8.903   2.293
53525SOL     OW62406   5.273   3.525  12.415
53525SOL    HW162407   5.343   3.588  12.398
53525SOL    HW262408   5.230   3.514  12.330
53526SOL     OW62409  11.329   9.922  13.586
53526SOL    HW162410  11.272   9.994  13.613
53526SOL    HW262411  11.413   9.964  13.566
53527SOL     OW62412   7.076  13.119   5.748
53527SOL    HW162413   7.152  13.116   5.806
53527SOL    HW262414   7.072  13.031   5.710
53528SOL     OW62415   5.130  13.868   1.610
53528SOL    HW162416   5.141  13.865   1.515
53528SOL    HW262417   5.044  13.828   1.625
53529SOL     OW62418   9.457   9.562   0.962
53529SOL    HW162419   9.425   9.624   0.897
53529SOL    HW262420   9.444   9.476   0.922
53530SOL     OW62421   4.454   8.628   6.494
53530SOL    HW162422   4.505   8.563   6.544
53530SOL    HW262423   4.458   8.597   6.404
53531SOL     OW62424   7.478   1.746   0.761
53531SOL    HW162425   7.483   1.838   0.734
53531SOL    HW262426   7.389   1.736   0.794
53532SOL     OW62427  11.989  11.588   9.867
53532SOL    HW162428  11.931  11.641   9.812
53532SOL    HW262429  11.938  11.509   9.887
53533SOL     OW62430   0.740   3.606   9.592
53533SOL    HW162431   0.809   3.625   9.529
53533SOL    HW262432   0.698   3.691   9.608
53534SOL     OW62433   5.944  14.683   6.830
53534SOL    HW162434   5.951  14.642   6.917
53534SOL    HW262435   5.879  14.630   6.784
53535SOL     OW62436   3.423   8.962   5.205
53535SOL    HW162437   3.405   8.883   5.154
53535SOL    HW262438   3.341   8.979   5.251
53536SOL     OW62439   2.582  13.049   0.512
53536SOL    HW162440   2.517  13.039   0.581
53536SOL    HW262441   2.535  13.094   0.441
53537SOL     OW62442   1.879   2.270   4.638
53537SOL    HW162443   1.964   2.315   4.641
53537SOL    HW262444   1.885   2.202   4.705
53538SOL     OW62445   5.710  13.148  13.790
53538SOL    HW162446   5.803  13.132  13.805
53538SOL    HW262447   5.667  13.123  13.872
53539SOL     OW62448   0.537  11.968   7.817
53539SOL    HW162449   0.566  12.016   7.739
53539SOL    HW262450   0.442  11.976   7.816
53540SOL     OW62451  14.704  11.503  13.615
53540SOL    HW162452  14.685  11.428  13.558
53540SOL    HW262453  14.680  11.580  13.562
53541SOL     OW62454  14.459  12.786  12.494
53541SOL    HW162455  14.457  12.875  12.527
53541SOL    HW262456  14.367  12.762  12.484
53542SOL     OW62457  11.751  14.559  12.030
53542SOL    HW162458  11.827  14.543  11.975
53542SOL    HW262459  11.696  14.619  11.980
53543SOL     OW62460  12.574  13.190  13.278
53543SOL    HW162461  12.546  13.253  13.211
53543SOL    HW262462  12.578  13.106  13.232
53544SOL     OW62463  13.843   5.333   4.555
53544SOL    HW162464  13.815   5.422   4.532
53544SOL    HW262465  13.834   5.329   4.650
53545SOL     OW62466   3.928  14.816   1.152
53545SOL    HW162467   3.988   0.007   1.111
53545SOL    HW262468   3.892  14.766   1.079
53546SOL     OW62469   7.048   7.241  13.986
53546SOL    HW162470   7.048   7.230  13.891
53546SOL    HW262471   6.989   7.172  14.018
53547SOL     OW62472   5.552   0.764   4.850
53547SOL    HW162473   5.479   0.823   4.831
53547SOL    HW262474   5.555   0.705   4.774
53548SOL     OW62475  10.640   2.823   4.314
53548SOL    HW162476  10.572   2.816   4.382
53548SOL    HW262477  10.661   2.916   4.311
53549SOL     OW62478   6.455   5.601   4.925
53549SOL    HW162479   6.380   5.640   4.880
53549SOL    HW262480   6.502   5.554   4.857
53550SOL     OW62481  13.564  14.104  11.694
53550SOL    HW162482  13.594  14.178  11.746
53550SOL    HW262483  13.628  14.095  11.624
53551SOL     OW62484  10.864   0.687   8.522
53551SOL    HW162485  10.898   0.771   8.554
53551SOL    HW262486  10.901   0.622   8.582
53552SOL     OW62487  12.203  12.959  10.157
53552SOL    HW162488  12.206  12.952  10.252
53552SOL    HW262489  12.142  12.889  10.130
53553SOL     OW62490   8.587   1.016   8.723
53553SOL    HW162491   8.624   1.014   8.635
53553SOL    HW262492   8.566   1.108   8.738
53554SOL     OW62493   7.160   8.866   7.745
53554SOL    HW162494   7.185   8.937   7.686
53554SOL    HW262495   7.067   8.852   7.729
53555SOL     OW62496   0.827  12.051  10.615
53555SOL    HW162497   0.787  11.987  10.675
53555SOL    HW262498   0.825  12.008  10.530
53556SOL     OW62499   0.105   9.218  12.393
53556SOL    HW162500   0.146   9.156  12.332
53556SOL    HW262501   0.096   9.299  12.342
53557SOL     OW62502   9.409   6.704   3.145
53557SOL    HW162503   9.340   6.771   3.146
53557SOL    HW262504   9.476   6.737   3.204
53558SOL     OW62505   4.414   1.221   2.066
53558SOL    HW162506   4.335   1.196   2.019
53558SOL    HW262507   4.397   1.310   2.097
53559SOL     OW62508  10.789   6.609   0.390
53559SOL    HW162509  10.758   6.638   0.476
53559SOL    HW262510  10.710   6.581   0.345
53560SOL     OW62511   3.717   2.955   6.392
53560SOL    HW162512   3.639   3.010   6.398
53560SOL    HW262513   3.751   2.951   6.481
53561SOL     OW62514  14.177  14.532   7.891
53561SOL    HW162515  14.268  14.562   7.881
53561SOL    HW262516  14.171  14.505   7.982
53562SOL     OW62517   7.140  11.574   8.138
53562SOL    HW162518   7.227  11.600   8.107
53562SOL    HW262519   7.156  11.530   8.221
53563SOL     OW62520   5.824   8.270   3.368
53563SOL    HW162521   5.756   8.334   3.349
53563SOL    HW262522   5.820   8.208   3.295
53564SOL     OW62523  12.878   4.668   7.107
53564SOL    HW162524  12.906   4.579   7.086
53564SOL    HW262525  12.927   4.691   7.185
53565SOL     OW62526  13.413   3.105  13.593
53565SOL    HW162527  13.338   3.099  13.534
53565SOL    HW262528  13.376   3.110  13.681
53566SOL     OW62529   6.302  11.209   2.010
53566SOL    HW162530   6.356  11.130   2.011
53566SOL    HW262531   6.250  11.204   2.090
53567SOL     OW62532  13.821  12.577   3.361
53567SOL    HW162533  13.773  12.643   3.411
53567SOL    HW262534  13.879  12.627   3.304
53568SOL     OW62535   4.833   9.365   9.862
53568SOL    HW162536   4.875   9.280   9.844
53568SOL    HW262537   4.833   9.410   9.778
53569SOL     OW62538   3.910  14.696   7.111
53569SOL    HW162539   3.997  14.666   7.086
53569SOL    HW262540   3.910  14.695   7.207
53570SOL     OW62541  13.033  12.870  11.471
53570SOL    HW162542  12.951  12.845  11.430
53570SOL    HW262543  13.062  12.791  11.517
53571SOL     OW62544   8.371   0.150   7.401
53571SOL    HW162545   8.302   0.214   7.420
53571SOL    HW262546   8.427   0.193   7.336
53572SOL     OW62547  10.448  13.189   4.279
53572SOL    HW162548  10.353  13.186   4.288
53572SOL    HW262549  10.474  13.097   4.276
53573SOL     OW62550  12.756   5.146   9.625
53573SOL    HW162551  12.802   5.062   9.615
53573SOL    HW262552  12.676   5.123   9.672
53574SOL     OW62553   8.664  12.552  11.284
53574SOL    HW162554   8.675  12.460  11.259
53574SOL    HW262555   8.569  12.566  11.280
53575SOL     OW62556  11.588  13.414  14.398
53575SOL    HW162557  11.598  13.504  14.431
53575SOL    HW262558  11.676  13.377  14.401
53576SOL     OW62559   4.124   6.317   4.805
53576SOL    HW162560   4.219   6.330   4.800
53576SOL    HW262561   4.088   6.404   4.823
53577SOL     OW62562   6.189   2.872  12.331
53577SOL    HW162563   6.273   2.850  12.370
53577SOL    HW262564   6.211   2.924  12.254
53578SOL     OW62565   7.399   3.729   6.244
53578SOL    HW162566   7.442   3.679   6.314
53578SOL    HW262567   7.455   3.718   6.168
53579SOL     OW62568   9.250   4.150  14.022
53579SOL    HW162569   9.312   4.216  14.054
53579SOL    HW262570   9.301   4.070  14.016
53580SOL     OW62571   0.997  14.800  11.720
53580SOL    HW162572   1.068  14.753  11.676
53580SOL    HW262573   1.020   0.020  11.712
53581SOL     OW62574   9.091   3.148  11.861
53581SOL    HW162575   9.090   3.231  11.908
53581SOL    HW262576   9.022   3.156  11.795
53582SOL     OW62577   7.799   6.028   5.651
53582SOL    HW162578   7.725   6.089   5.640
53582SOL    HW262579   7.830   6.044   5.740
53583SOL     OW62580   2.470  11.043   7.224
53583SOL    HW162581   2.527  11.022   7.299
53583SOL    HW262582   2.515  11.115   7.181
53584SOL     OW62583   8.650   5.161  12.085
53584SOL    HW162584   8.582   5.131  12.025
53584SOL    HW262585   8.665   5.087  12.144
53585SOL     OW62586   7.915   9.292   7.357
53585SOL    HW162587   7.862   9.242   7.295
53585SOL    HW262588   7.869   9.282   7.440
53586SOL     OW62589   8.280   1.362  10.962
53586SOL    HW162590   8.245   1.420  10.895
53586SOL    HW262591   8.371   1.390  10.973
53587SOL     OW62592   3.814  12.069   3.418
53587SOL    HW162593   3.877  12.137   3.443
53587SOL    HW262594   3.733  12.094   3.462
53588SOL     OW62595   4.021  12.841   2.561
53588SOL    HW162596   4.103  12.796   2.579
53588SOL    HW262597   3.978  12.848   2.646
53589SOL     OW62598  13.609   1.075   2.004
53589SOL    HW162599  13.548   1.003   1.994
53589SOL    HW262600  13.589   1.112   2.090
53590SOL     OW62601  10.970   6.508   1.338
53590SOL    HW162602  10.912   6.480   1.268
53590SOL    HW262603  11.038   6.441   1.341
53591SOL     OW62604  11.651   8.320  14.086
53591SOL    HW162605  11.637   8.274  14.169
53591SOL    HW262606  11.708   8.262  14.036
53592SOL     OW62607  14.003   9.514  10.447
53592SOL    HW162608  14.097   9.496  10.453
53592SOL    HW262609  13.998   9.608  10.431
53593SOL     OW62610  13.522  12.174   1.922
53593SOL    HW162611  13.472  12.093   1.907
53593SOL    HW262612  13.468  12.225   1.983
53594SOL     OW62613   4.956   2.553  11.653
53594SOL    HW162614   4.869   2.524  11.627
53594SOL    HW262615   4.948   2.573  11.746
53595SOL     OW62616   2.043  13.539   9.999
53595SOL    HW162617   1.996  13.560  10.079
53595SOL    HW262618   2.062  13.623   9.959
53596SOL     OW62619   9.325  10.424   4.724
53596SOL    HW162620   9.400  10.404   4.780
53596SOL    HW262621   9.363  10.442   4.638
53597SOL     OW62622   6.829  12.368   8.138
53597SOL    HW162623   6.854  12.284   8.100
53597SOL    HW262624   6.751  12.350   8.190
53598SOL     OW62625  14.546   9.080   0.075
53598SOL    HW162626  14.552   9.052   0.167
53598SOL    HW262627  14.562   9.000   0.025
53599SOL     OW62628  14.319   1.228  13.744
53599SOL    HW162629  14.232   1.215  13.706
53599SOL    HW262630  14.365   1.283  13.681
53600SOL     OW62631  12.221   3.529   9.065
53600SOL    HW162632  12.174   3.612   9.064
53600SOL    HW262633  12.179   3.476   8.998
53601SOL     OW62634   6.237   6.680   5.934
53601SOL    HW162635   6.283   6.628   5.868
53601SOL    HW262636   6.167   6.622   5.965
53602SOL     OW62637   4.810  14.354  11.418
53602SOL    HW162638   4.881  14.316  11.367
53602SOL    HW262639   4.800  14.293  11.492
53603SOL     OW62640   5.762  13.417   6.556
53603SOL    HW162641   5.707  13.446   6.628
53603SOL    HW262642   5.720  13.338   6.524
53604SOL     OW62643  12.029   6.309  13.569
53604SOL    HW162644  12.078   6.390  13.580
53604SOL    HW262645  12.073   6.246  13.625
53605SOL     OW62646   5.395   2.395   6.919
53605SOL    HW162647   5.346   2.424   6.843
53605SOL    HW262648   5.484   2.379   6.886
53606SOL     OW62649   9.725  14.253  11.027
53606SOL    HW162650   9.639  14.295  11.028
53606SOL    HW262651   9.781  14.313  10.977
53607SOL     OW62652   0.399   5.185   6.873
53607SOL    HW162653   0.478   5.131   6.871
53607SOL    HW262654   0.330   5.124   6.900
53608SOL     OW62655   0.578   7.409  14.563
53608SOL    HW162656   0.584   7.499  14.530
53608SOL    HW262657   0.614   7.355  14.492
53609SOL     OW62658  14.134   3.357   1.336
53609SOL    HW162659  14.220   3.317   1.326
53609SOL    HW262660  14.089   3.339   1.254
53610SOL     OW62661   7.957  12.890   8.704
53610SOL    HW162662   8.018  12.906   8.631
53610SOL    HW262663   7.921  12.977   8.724
53611SOL     OW62664   3.183  13.810   4.630
53611SOL    HW162665   3.226  13.870   4.692
53611SOL    HW262666   3.134  13.749   4.686
53612SOL     OW62667  11.122   1.559  10.191
53612SOL    HW162668  11.050   1.541  10.130
53612SOL    HW262669  11.187   1.492  10.170
53613SOL     OW62670  11.438   6.550   5.360
53613SOL    HW162671  11.394   6.605   5.424
53613SOL    HW262672  11.376   6.542   5.288
53614SOL     OW62673   4.691  10.315   8.828
53614SOL    HW162674   4.767  10.290   8.775
53614SOL    HW262675   4.626  10.345   8.764
53615SOL     OW62676   8.946  14.043   4.599
53615SOL    HW162677   9.042  14.037   4.597
53615SOL    HW262678   8.925  14.063   4.690
53616SOL     OW62679   4.710  10.735   5.953
53616SOL    HW162680   4.781  10.709   6.012
53616SOL    HW262681   4.707  10.665   5.887
53617SOL     OW62682  12.457  12.136  10.791
53617SOL    HW162683  12.462  12.224  10.829
53617SOL    HW262684  12.494  12.079  10.859
53618SOL     OW62685   1.592  12.381  12.492
53618SOL    HW162686   1.632  12.454  12.445
53618SOL    HW262687   1.500  12.405  12.499
53619SOL     OW62688  12.338   7.452   7.447
53619SOL    HW162689  12.268   7.512   7.474
53619SOL    HW262690  12.409   7.508   7.417
53620SOL     OW62691   4.323   3.261  13.184
53620SOL    HW162692   4.394   3.312  13.145
53620SOL    HW262693   4.243   3.296  13.143
53621SOL     OW62694   2.798   9.718   6.671
53621SOL    HW162695   2.784   9.759   6.585
53621SOL    HW262696   2.778   9.787   6.734
53622SOL     OW62697   6.327   4.691  14.536
53622SOL    HW162698   6.349   4.690  14.443
53622SOL    HW262699   6.382   4.759  14.574
53623SOL     OW62700   7.250  13.370   5.340
53623SOL    HW162701   7.209  13.326   5.415
53623SOL    HW262702   7.334  13.325   5.330
53624SOL     OW62703  11.221  13.324   8.255
53624SOL    HW162704  11.243  13.230   8.252
53624SOL    HW262705  11.241  13.351   8.344
53625SOL     OW62706   1.656   8.033   0.295
53625SOL    HW162707   1.606   8.045   0.376
53625SOL    HW262708   1.666   7.939   0.286
53626SOL     OW62709   2.461   8.525  10.258
53626SOL    HW162710   2.426   8.497  10.342
53626SOL    HW262711   2.397   8.495  10.194
53627SOL     OW62712   1.145   2.556   6.142
53627SOL    HW162713   1.182   2.546   6.230
53627SOL    HW262714   1.074   2.620   6.154
53628SOL     OW62715  13.275   8.205   5.314
53628SOL    HW162716  13.284   8.125   5.364
53628SOL    HW262717  13.359   8.250   5.324
53629SOL     OW62718  12.077   7.122  10.064
53629SOL    HW162719  12.012   7.071  10.017
53629SOL    HW262720  12.087   7.078  10.148
53630SOL     OW62721  14.507   9.693   8.942
53630SOL    HW162722  14.540   9.668   8.856
53630SOL    HW262723  14.551   9.776   8.961
53631SOL     OW62724   6.502  14.149   7.221
53631SOL    HW162725   6.512  14.068   7.272
53631SOL    HW262726   6.425  14.133   7.166
53632SOL     OW62727   8.709   3.731   3.732
53632SOL    HW162728   8.687   3.644   3.765
53632SOL    HW262729   8.688   3.727   3.638
53633SOL     OW62730   8.231   1.610   3.268
53633SOL    HW162731   8.282   1.599   3.348
53633SOL    HW262732   8.169   1.680   3.288
53634SOL     OW62733   9.421  11.617   5.421
53634SOL    HW162734   9.369  11.640   5.498
53634SOL    HW262735   9.466  11.699   5.398
53635SOL     OW62736  11.687   0.619   1.900
53635SOL    HW162737  11.699   0.712   1.883
53635SOL    HW262738  11.610   0.594   1.849
53636SOL     OW62739  10.641   1.772   3.977
53636SOL    HW162740  10.622   1.750   4.068
53636SOL    HW262741  10.736   1.781   3.975
53637SOL     OW62742   4.200   6.606   4.159
53637SOL    HW162743   4.262   6.557   4.213
53637SOL    HW262744   4.170   6.677   4.215
53638SOL     OW62745   8.373  13.541  10.108
53638SOL    HW162746   8.413  13.520  10.192
53638SOL    HW262747   8.441  13.587  10.059
53639SOL     OW62748   2.319   7.788  11.401
53639SOL    HW162749   2.378   7.811  11.473
53639SOL    HW262750   2.353   7.836  11.326
53640SOL     OW62751  13.956  11.439   4.292
53640SOL    HW162752  13.886  11.472   4.348
53640SOL    HW262753  14.025  11.506   4.297
53641SOL     OW62754  12.162  10.008   2.489
53641SOL    HW162755  12.159  10.103   2.500
53641SOL    HW262756  12.070   9.982   2.478
53642SOL     OW62757  13.161   6.032  14.538
53642SOL    HW162758  13.170   6.057  14.630
53642SOL    HW262759  13.071   5.999  14.531
53643SOL     OW62760   5.448   8.884   6.105
53643SOL    HW162761   5.506   8.810   6.086
53643SOL    HW262762   5.399   8.898   6.024
53644SOL     OW62763   1.550   4.678   0.340
53644SOL    HW162764   1.479   4.727   0.380
53644SOL    HW262765   1.531   4.587   0.360
53645SOL     OW62766  14.655   4.443  10.689
53645SOL    HW162767  14.603   4.470  10.765
53645SOL    HW262768  14.713   4.375  10.723
53646SOL     OW62769   2.023   0.853   3.569
53646SOL    HW162770   2.060   0.815   3.489
53646SOL    HW262771   2.081   0.823   3.639
53647SOL     OW62772   4.357   6.133   8.466
53647SOL    HW162773   4.301   6.207   8.442
53647SOL    HW262774   4.319   6.099   8.547
53648SOL     OW62775   3.120  11.881   6.245
53648SOL    HW162776   3.196  11.837   6.283
53648SOL    HW262777   3.101  11.831   6.166
53649SOL     OW62778   3.006  10.071   7.658
53649SOL    HW162779   3.082  10.101   7.608
53649SOL    HW262780   3.043  10.017   7.728
53650SOL     OW62781   6.053   5.929   1.386
53650SOL    HW162782   6.100   5.852   1.353
53650SOL    HW262783   5.971   5.895   1.420
53651SOL     OW62784  14.716   8.789   8.828
53651SOL    HW162785  14.732   8.724   8.759
53651SOL    HW262786  14.684   8.738   8.902
53652SOL     OW62787   3.217  12.695   2.179
53652SOL    HW162788   3.224  12.774   2.125
53652SOL    HW262789   3.308  12.674   2.201
53653SOL     OW62790   9.251  14.148   6.913
53653SOL    HW162791   9.302  14.138   6.833
53653SOL    HW262792   9.179  14.206   6.889
53654SOL     OW62793   7.827   8.747   8.923
53654SOL    HW162794   7.824   8.839   8.949
53654SOL    HW262795   7.916   8.719   8.946
53655SOL     OW62796   7.793   0.173   9.033
53655SOL    HW162797   7.753   0.231   8.969
53655SOL    HW262798   7.887   0.188   9.024
53656SOL     OW62799   8.882  12.164   4.121
53656SOL    HW162800   8.965  12.136   4.159
53656SOL    HW262801   8.858  12.094   4.061
53657SOL     OW62802   4.159   9.140   0.372
53657SOL    HW162803   4.100   9.164   0.444
53657SOL    HW262804   4.178   9.223   0.329
53658SOL     OW62805   8.173   1.786   7.272
53658SOL    HW162806   8.170   1.867   7.324
53658SOL    HW262807   8.255   1.792   7.222
53659SOL     OW62808   7.642  13.943   9.206
53659SOL    HW162809   7.550  13.926   9.229
53659SOL    HW262810   7.638  14.003   9.132
53660SOL     OW62811   8.633   1.554   5.742
53660SOL    HW162812   8.593   1.635   5.772
53660SOL    HW262813   8.720   1.581   5.710
53661SOL     OW62814   8.114  14.591  11.192
53661SOL    HW162815   8.140  14.606  11.283
53661SOL    HW262816   8.020  14.572  11.197
53662SOL     OW62817   9.903   2.374   5.416
53662SOL    HW162818   9.858   2.453   5.386
53662SOL    HW262819   9.975   2.363   5.354
53663SOL     OW62820   8.004   5.949   3.228
53663SOL    HW162821   7.953   5.896   3.289
53663SOL    HW262822   8.006   5.898   3.147
53664SOL     OW62823  10.645  10.015  12.725
53664SOL    HW162824  10.709  10.001  12.794
53664SOL    HW262825  10.615  10.105  12.737
53665SOL     OW62826   6.009   4.184   3.578
53665SOL    HW162827   5.946   4.251   3.551
53665SOL    HW262828   6.095   4.225   3.566
53666SOL     OW62829   5.715   1.485   3.892
53666SOL    HW162830   5.726   1.532   3.975
53666SOL    HW262831   5.660   1.410   3.914
53667SOL     OW62832   6.296   1.404  12.682
53667SOL    HW162833   6.207   1.407  12.718
53667SOL    HW262834   6.319   1.311  12.680
53668SOL     OW62835   1.969   6.003   0.344
53668SOL    HW162836   2.063   6.003   0.327
53668SOL    HW262837   1.929   6.017   0.258
53669SOL     OW62838   1.291  13.531  14.205
53669SOL    HW162839   1.299  13.579  14.123
53669SOL    HW262840   1.346  13.579  14.267
53670SOL     OW62841   5.971   1.674  13.637
53670SOL    HW162842   6.043   1.618  13.666
53670SOL    HW262843   5.903   1.614  13.608
53671SOL     OW62844   4.863   3.554   1.473
53671SOL    HW162845   4.791   3.510   1.518
53671SOL    HW262846   4.890   3.491   1.405
53672SOL     OW62847   3.859   6.010   7.978
53672SOL    HW162848   3.947   6.018   7.940
53672SOL    HW262849   3.826   5.927   7.944
53673SOL     OW62850  11.371   5.524   8.690
53673SOL    HW162851  11.432   5.467   8.644
53673SOL    HW262852  11.346   5.474   8.768
53674SOL     OW62853   9.220   3.685  14.454
53674SOL    HW162854   9.244   3.761  14.507
53674SOL    HW262855   9.260   3.611  14.499
53675SOL     OW62856   8.961  12.612   9.151
53675SOL    HW162857   8.939  12.585   9.240
53675SOL    HW262858   9.045  12.657   9.160
53676SOL     OW62859   8.997  12.565   8.321
53676SOL    HW162860   9.015  12.659   8.311
53676SOL    HW262861   8.946  12.543   8.243
53677SOL     OW62862  12.495   6.325   4.464
53677SOL    HW162863  12.488   6.245   4.516
53677SOL    HW262864  12.490   6.396   4.527
53678SOL     OW62865  13.979   7.322   7.190
53678SOL    HW162866  13.929   7.283   7.261
53678SOL    HW262867  13.986   7.414   7.214
53679SOL     OW62868   7.699   6.322   0.765
53679SOL    HW162869   7.701   6.241   0.714
53679SOL    HW262870   7.625   6.311   0.824
53680SOL     OW62871   4.398   0.512   5.733
53680SOL    HW162872   4.428   0.588   5.783
53680SOL    HW262873   4.465   0.446   5.748
53681SOL     OW62874   7.551   3.566  10.760
53681SOL    HW162875   7.494   3.611  10.697
53681SOL    HW262876   7.548   3.474  10.734
53682SOL     OW62877  12.610  10.542   5.630
53682SOL    HW162878  12.629  10.604   5.700
53682SOL    HW262879  12.516  10.525   5.639
53683SOL     OW62880   3.105   8.802   3.443
53683SOL    HW162881   3.084   8.724   3.495
53683SOL    HW262882   3.149   8.860   3.504
53684SOL     OW62883   2.704   8.430  13.213
53684SOL    HW162884   2.734   8.475  13.134
53684SOL    HW262885   2.758   8.351  13.217
53685SOL     OW62886   1.194   2.915   8.740
53685SOL    HW162887   1.280   2.952   8.758
53685SOL    HW262888   1.133   2.980   8.774
53686SOL     OW62889  10.001   9.294   2.008
53686SOL    HW162890  10.093   9.271   1.993
53686SOL    HW262891   9.979   9.351   1.935
53687SOL     OW62892   1.292  11.684   8.571
53687SOL    HW162893   1.238  11.756   8.539
53687SOL    HW262894   1.334  11.718   8.650
53688SOL     OW62895   3.807  11.831   6.693
53688SOL    HW162896   3.764  11.746   6.693
53688SOL    HW262897   3.896  11.813   6.722
53689SOL     OW62898   7.691   1.802  11.122
53689SOL    HW162899   7.721   1.736  11.060
53689SOL    HW262900   7.637   1.754  11.184
53690SOL     OW62901   8.948  11.420   1.844
53690SOL    HW162902   8.939  11.510   1.812
53690SOL    HW262903   8.904  11.367   1.777
53691SOL     OW62904  12.642   6.234   2.925
53691SOL    HW162905  12.678   6.286   2.853
53691SOL    HW262906  12.548   6.254   2.925
53692SOL     OW62907  14.153   1.365   1.596
53692SOL    HW162908  14.194   1.334   1.515
53692SOL    HW262909  14.146   1.287   1.650
53693SOL     OW62910  11.959   3.894   0.136
53693SOL    HW162911  11.945   3.980   0.174
53693SOL    HW262912  12.050   3.896   0.105
53694SOL     OW62913   8.363   9.122  11.977
53694SOL    HW162914   8.358   9.137  11.883
53694SOL    HW262915   8.360   9.210  12.015
53695SOL     OW62916   3.570  11.055   4.243
53695SOL    HW162917   3.655  11.013   4.225
53695SOL    HW262918   3.517  11.033   4.167
53696SOL     OW62919   0.678  14.669   9.515
53696SOL    HW162920   0.731  14.699   9.442
53696SOL    HW262921   0.673  14.744   9.574
53697SOL     OW62922   9.765   7.814  14.522
53697SOL    HW162923   9.820   7.830  14.446
53697SOL    HW262924   9.779   7.722  14.544
53698SOL     OW62925   1.907  14.001  11.443
53698SOL    HW162926   1.897  13.964  11.531
53698SOL    HW262927   1.942  14.089  11.458
53699SOL     OW62928   4.945   1.236   9.419
53699SOL    HW162929   5.015   1.200   9.365
53699SOL    HW262930   4.957   1.331   9.414
53700SOL     OW62931  13.313   9.858   2.485
53700SOL    HW162932  13.235   9.854   2.541
53700SOL    HW262933  13.284   9.906   2.407
53701SOL     OW62934   3.719   9.957   1.116
53701SOL    HW162935   3.668  10.011   1.175
53701SOL    HW262936   3.800  10.007   1.101
53702SOL     OW62937   6.557   3.682  13.819
53702SOL    HW162938   6.473   3.694  13.864
53702SOL    HW262939   6.609   3.629  13.879
53703SOL     OW62940   6.366   3.300   2.531
53703SOL    HW162941   6.385   3.280   2.623
53703SOL    HW262942   6.317   3.382   2.535
53704SOL     OW62943   0.420   7.102   9.119
53704SOL    HW162944   0.341   7.055   9.145
53704SOL    HW262945   0.461   7.127   9.201
53705SOL     OW62946   7.501   0.016   8.950
53705SOL    HW162947   7.469   0.103   8.927
53705SOL    HW262948   7.590   0.030   8.982
53706SOL     OW62949   1.955  12.827   8.422
53706SOL    HW162950   2.023  12.788   8.367
53706SOL    HW262951   1.873  12.808   8.376
53707SOL     OW62952   0.137  11.327  11.948
53707SOL    HW162953   0.137  11.246  11.898
53707SOL    HW262954   0.156  11.395  11.883
53708SOL     OW62955   7.651  12.228  14.397
53708SOL    HW162956   7.647  12.167  14.324
53708SOL    HW262957   7.744  12.248  14.406
53709SOL     OW62958   4.502   9.310   9.132
53709SOL    HW162959   4.538   9.386   9.177
53709SOL    HW262960   4.438   9.273   9.193
53710SOL     OW62961  13.730   0.343   0.950
53710SOL    HW162962  13.735   0.248   0.962
53710SOL    HW262963  13.795   0.378   1.012
53711SOL     OW62964   1.334   5.276   5.722
53711SOL    HW162965   1.315   5.357   5.769
53711SOL    HW262966   1.284   5.282   5.641
53712SOL     OW62967  12.581  11.794   9.718
53712SOL    HW162968  12.609  11.863   9.777
53712SOL    HW262969  12.585  11.833   9.631
53713SOL     OW62970   0.857  12.276  10.760
53713SOL    HW162971   0.778  12.256  10.809
53713SOL    HW262972   0.857  12.214  10.687
53714SOL     OW62973  14.862   2.836   4.999
53714SOL    HW162974  14.834   2.918   4.958
53714SOL    HW262975   0.073   2.858   5.042
53715SOL     OW62976  12.476   8.588   7.782
53715SOL    HW162977  12.535   8.544   7.721
53715SOL    HW262978  12.418   8.517   7.812
53716SOL     OW62979   0.471   5.866  10.573
53716SOL    HW162980   0.447   5.774  10.559
53716SOL    HW262981   0.426   5.913  10.502
53717SOL     OW62982  12.603  13.806   7.719
53717SOL    HW162983  12.533  13.870   7.732
53717SOL    HW262984  12.558  13.730   7.683
53718SOL     OW62985   5.335   8.674   7.977
53718SOL    HW162986   5.330   8.752   8.031
53718SOL    HW262987   5.411   8.689   7.920
53719SOL     OW62988  12.180  10.204   3.894
53719SOL    HW162989  12.125  10.128   3.913
53719SOL    HW262990  12.229  10.218   3.975
53720SOL     OW62991   0.746   6.817  11.097
53720SOL    HW162992   0.791   6.762  11.033
53720SOL    HW262993   0.680   6.865  11.047
53721SOL     OW62994  13.636  14.586  11.000
53721SOL    HW162995  13.670  14.648  11.065
53721SOL    HW262996  13.641  14.501  11.044
53722SOL     OW62997   7.270   5.457  14.482
53722SOL    HW162998   7.294   5.474  14.390
53722SOL    HW262999   7.351   5.426  14.522
53723SOL     OW63000   5.095  13.454   8.456
53723SOL    HW163001   5.083  13.538   8.500
53723SOL    HW263002   5.123  13.395   8.526
53724SOL     OW63003  13.593   4.075   6.791
53724SOL    HW163004  13.588   4.029   6.874
53724SOL    HW263005  13.502   4.083   6.762
53725SOL     OW63006  13.189   3.922   2.689
53725SOL    HW163007  13.231   3.841   2.719
53725SOL    HW263008  13.236   3.945   2.609
53726SOL     OW63009  14.277  14.418   6.705
53726SOL    HW163010  14.318  14.501   6.727
53726SOL    HW263011  14.350  14.359   6.686
53727SOL     OW63012   5.261   9.384   7.533
53727SOL    HW163013   5.333   9.333   7.496
53727SOL    HW263014   5.190   9.375   7.470
53728SOL     OW63015   7.475   9.348   1.616
53728SOL    HW163016   7.484   9.252   1.613
53728SOL    HW263017   7.385   9.364   1.589
53729SOL     OW63018   9.719   1.987   5.696
53729SOL    HW163019   9.782   1.932   5.743
53729SOL    HW263020   9.766   2.014   5.617
53730SOL     OW63021  11.468   9.805   6.985
53730SOL    HW163022  11.517   9.819   7.067
53730SOL    HW263023  11.435   9.716   6.992
53731SOL     OW63024   4.419   3.304   8.751
53731SOL    HW163025   4.441   3.217   8.718
53731SOL    HW263026   4.327   3.297   8.777
53732SOL     OW63027   8.211   0.373  11.126
53732SOL    HW163028   8.204   0.446  11.188
53732SOL    HW263029   8.238   0.299  11.180
53733SOL     OW63030  11.022   2.417   2.456
53733SOL    HW163031  10.969   2.474   2.513
53733SOL    HW263032  11.076   2.478   2.405
53734SOL     OW63033  11.126   0.584  11.410
53734SOL    HW163034  11.214   0.591  11.372
53734SOL    HW263035  11.067   0.603  11.336
53735SOL     OW63036   8.529  10.900  13.512
53735SOL    HW163037   8.447  10.871  13.472
53735SOL    HW263038   8.563  10.966  13.452
53736SOL     OW63039  10.033  14.235   8.246
53736SOL    HW163040   9.992  14.176   8.183
53736SOL    HW263041   9.960  14.271   8.296
53737SOL     OW63042  10.523   5.289  12.102
53737SOL    HW163043  10.595   5.244  12.147
53737SOL    HW263044  10.504   5.365  12.158
53738SOL     OW63045   7.455  12.924  11.232
53738SOL    HW163046   7.419  12.857  11.174
53738SOL    HW263047   7.377  12.969  11.266
53739SOL     OW63048   6.890   8.691   8.907
53739SOL    HW163049   6.808   8.691   8.856
53739SOL    HW263050   6.938   8.767   8.875
53740SOL     OW63051  13.593   8.632   2.045
53740SOL    HW163052  13.591   8.623   1.950
53740SOL    HW263053  13.524   8.574   2.077
53741SOL     OW63054   3.749  11.535   1.319
53741SOL    HW163055   3.796  11.451   1.315
53741SOL    HW263056   3.661  11.515   1.286
53742SOL     OW63057   8.094   7.341   3.417
53742SOL    HW163058   8.044   7.417   3.388
53742SOL    HW263059   8.131   7.366   3.502
53743SOL     OW63060   9.066   6.961   0.932
53743SOL    HW163061   9.055   6.898   1.003
53743SOL    HW263062   9.159   6.984   0.934
53744SOL     OW63063   0.824  13.476   4.222
53744SOL    HW163064   0.759  13.429   4.170
53744SOL    HW263065   0.908  13.453   4.181
53745SOL     OW63066   6.252   5.568  12.154
53745SOL    HW163067   6.232   5.475  12.156
53745SOL    HW263068   6.167   5.612  12.159
53746SOL     OW63069  14.582   5.573  11.575
53746SOL    HW163070  14.677   5.560  11.574
53746SOL    HW263071  14.552   5.519  11.649
53747SOL     OW63072  14.470  13.179   5.799
53747SOL    HW163073  14.375  13.181   5.813
53747SOL    HW263074  14.481  13.204   5.707
53748SOL     OW63075  14.132   7.252   2.619
53748SOL    HW163076  14.065   7.185   2.602
53748SOL    HW263077  14.206   7.204   2.655
53749SOL     OW63078   4.550   2.845  13.330
53749SOL    HW163079   4.496   2.841  13.251
53749SOL    HW263080   4.566   2.753  13.352
53750SOL     OW63081   8.983   5.645  11.867
53750SOL    HW163082   8.974   5.672  11.775
53750SOL    HW263083   8.959   5.552  11.866
53751SOL     OW63084  12.068   0.157  10.711
53751SOL    HW163085  12.025   0.233  10.672
53751SOL    HW263086  12.099   0.106  10.636
53752SOL     OW63087  13.283   3.408   0.342
53752SOL    HW163088  13.378   3.421   0.342
53752SOL    HW263089  13.270   3.319   0.308
53753SOL     OW63090   8.340  11.447  12.420
53753SOL    HW163091   8.410  11.511  12.409
53753SOL    HW263092   8.375  11.365  12.384
53754SOL     OW63093   3.291  10.455  13.314
53754SOL    HW163094   3.273  10.408  13.395
53754SOL    HW263095   3.259  10.544  13.330
53755SOL     OW63096  14.230  14.427   3.114
53755SOL    HW163097  14.190  14.458   3.033
53755SOL    HW263098  14.324  14.429   3.096
53756SOL     OW63099  11.411   6.991   6.132
53756SOL    HW163100  11.431   7.034   6.048
53756SOL    HW263101  11.435   6.900   6.118
53757SOL     OW63102   1.433  13.058   9.771
53757SOL    HW163103   1.346  13.028   9.745
53757SOL    HW263104   1.446  13.019   9.858
53758SOL     OW63105  12.428  10.602  13.552
53758SOL    HW163106  12.401  10.626  13.463
53758SOL    HW263107  12.346  10.587  13.598
53759SOL     OW63108  10.063  11.212  11.510
53759SOL    HW163109  10.148  11.203  11.468
53759SOL    HW263110  10.000  11.207  11.438
53760SOL     OW63111  13.873  14.193   1.520
53760SOL    HW163112  13.877  14.261   1.587
53760SOL    HW263113  13.962  14.160   1.513
53761SOL     OW63114   6.834   7.300   6.617
53761SOL    HW163115   6.844   7.232   6.550
53761SOL    HW263116   6.904   7.362   6.600
53762SOL     OW63117   4.680   4.807  13.746
53762SOL    HW163118   4.676   4.732  13.687
53762SOL    HW263119   4.667   4.883  13.688
53763SOL     OW63120   7.486  11.232   4.820
53763SOL    HW163121   7.400  11.259   4.788
53763SOL    HW263122   7.490  11.267   4.909
53764SOL     OW63123  12.383   0.117  13.724
53764SOL    HW163124  12.401   0.210  13.712
53764SOL    HW263125  12.359   0.085  13.637
53765SOL     OW63126   2.615   4.877  13.934
53765SOL    HW163127   2.692   4.848  13.982
53765SOL    HW263128   2.626   4.972  13.926
53766SOL     OW63129   8.805  14.655  12.061
53766SOL    HW163130   8.880  14.677  12.005
53766SOL    HW263131   8.732  14.706  12.025
53767SOL     OW63132  13.230   1.060   9.399
53767SOL    HW163133  13.143   1.101   9.400
53767SOL    HW263134  13.264   1.075   9.487
53768SOL     OW63135   5.764  10.279  12.786
53768SOL    HW163136   5.754  10.320  12.871
53768SOL    HW263137   5.786  10.351  12.726
53769SOL     OW63138  13.339  10.038  11.853
53769SOL    HW163139  13.395   9.969  11.890
53769SOL    HW263140  13.339  10.107  11.919
53770SOL     OW63141  13.921   1.553  12.590
53770SOL    HW163142  13.963   1.604  12.522
53770SOL    HW263143  13.976   1.566  12.667
53771SOL     OW63144   3.673   3.376   7.582
53771SOL    HW163145   3.636   3.308   7.640
53771SOL    HW263146   3.763   3.388   7.613
53772SOL     OW63147   7.547   8.295  13.598
53772SOL    HW163148   7.456   8.300  13.627
53772SOL    HW263149   7.573   8.205  13.618
53773SOL     OW63150  10.162   5.897  11.159
53773SOL    HW163151  10.152   5.991  11.140
53773SOL    HW263152  10.254   5.879  11.139
53774SOL     OW63153  13.207  13.861   7.059
53774SOL    HW163154  13.272  13.880   7.127
53774SOL    HW263155  13.190  13.767   7.068
53775SOL     OW63156  12.636   7.065   0.518
53775SOL    HW163157  12.615   7.024   0.602
53775SOL    HW263158  12.729   7.085   0.524
53776SOL     OW63159   1.451   1.890   6.058
53776SOL    HW163160   1.437   1.968   6.004
53776SOL    HW263161   1.543   1.897   6.085
53777SOL     OW63162   1.006   6.539   5.431
53777SOL    HW163163   0.916   6.556   5.406
53777SOL    HW263164   1.050   6.623   5.423
53778SOL     OW63165   3.354   4.470   5.486
53778SOL    HW163166   3.438   4.476   5.442
53778SOL    HW263167   3.289   4.481   5.416
53779SOL     OW63168  13.571   0.924   1.266
53779SOL    HW163169  13.599   1.016   1.265
53779SOL    HW263170  13.646   0.877   1.302
53780SOL     OW63171  14.831   7.011  11.736
53780SOL    HW163172   0.012   6.932  11.746
53780SOL    HW263173  14.834   7.030  11.642
53781SOL     OW63174  13.853   8.207   6.858
53781SOL    HW163175  13.771   8.257   6.857
53781SOL    HW263176  13.910   8.254   6.797
53782SOL     OW63177   3.017   3.448   5.414
53782SOL    HW163178   3.047   3.365   5.379
53782SOL    HW263179   3.095   3.502   5.420
53783SOL     OW63180   4.116   8.082   2.326
53783SOL    HW163181   4.180   8.084   2.255
53783SOL    HW263182   4.085   8.172   2.334
53784SOL     OW63183   3.953   4.740   8.842
53784SOL    HW163184   3.966   4.793   8.920
53784SOL    HW263185   3.954   4.650   8.873
53785SOL     OW63186   8.766   3.785   6.275
53785SOL    HW163187   8.755   3.800   6.181
53785SOL    HW263188   8.809   3.865   6.307
53786SOL     OW63189   9.489   5.074   5.497
53786SOL    HW163190   9.569   5.048   5.543
53786SOL    HW263191   9.432   5.109   5.565
53787SOL     OW63192   6.278  12.917   4.584
53787SOL    HW163193   6.247  12.880   4.501
53787SOL    HW263194   6.251  12.854   4.650
53788SOL     OW63195  10.035  14.751  12.289
53788SOL    HW163196   9.942  14.758  12.270
53788SOL    HW263197  10.058  14.661  12.265
53789SOL     OW63198   2.436  10.886  13.275
53789SOL    HW163199   2.531  10.875  13.286
53789SOL    HW263200   2.424  10.892  13.180
53790SOL     OW63201  12.114   8.456  14.673
53790SOL    HW163202  12.192   8.403  14.688
53790SOL    HW263203  12.086   8.434  14.585
53791SOL     OW63204  10.975   7.661   3.214
53791SOL    HW163205  10.897   7.612   3.188
53791SOL    HW263206  11.047   7.621   3.165
53792SOL     OW63207   2.127   6.871   6.242
53792SOL    HW163208   2.112   6.867   6.337
53792SOL    HW263209   2.222   6.881   6.234
53793SOL     OW63210  13.039   3.139   0.094
53793SOL    HW163211  13.014   3.047   0.080
53793SOL    HW263212  12.956   3.187   0.091
53794SOL     OW63213   4.048   9.607   8.125
53794SOL    HW163214   4.108   9.535   8.107
53794SOL    HW263215   4.084   9.650   8.203
53795SOL     OW63216  12.430  13.339  12.728
53795SOL    HW163217  12.379  13.390  12.791
53795SOL    HW263218  12.520  13.350  12.757
53796SOL     OW63219   5.464   7.690   7.364
53796SOL    HW163220   5.459   7.707   7.270
53796SOL    HW263221   5.556   7.673   7.381
53797SOL     OW63222   4.590   1.077   5.463
53797SOL    HW163223   4.584   0.987   5.496
53797SOL    HW263224   4.500   1.099   5.438
53798SOL     OW63225  12.725   6.136   5.517
53798SOL    HW163226  12.712   6.167   5.427
53798SOL    HW263227  12.797   6.189   5.550
53799SOL     OW63228  14.796   4.007   7.496
53799SOL    HW163229   0.007   3.982   7.536
53799SOL    HW263230  14.742   3.929   7.501
53800SOL     OW63231   2.319  13.172  11.340
53800SOL    HW163232   2.365  13.248  11.304
53800SOL    HW263233   2.318  13.108  11.268
53801SOL     OW63234   7.316   8.901   5.563
53801SOL    HW163235   7.223   8.877   5.573
53801SOL    HW263236   7.363   8.822   5.591
53802SOL     OW63237   9.594  13.743   8.842
53802SOL    HW163238   9.536  13.778   8.775
53802SOL    HW263239   9.553  13.661   8.870
53803SOL     OW63240   6.426  14.320  11.055
53803SOL    HW163241   6.439  14.294  10.964
53803SOL    HW263242   6.514  14.345  11.085
53804SOL     OW63243  11.207  12.811   6.367
53804SOL    HW163244  11.184  12.721   6.390
53804SOL    HW263245  11.247  12.804   6.281
53805SOL     OW63246   4.224   0.867  12.050
53805SOL    HW163247   4.205   0.848  11.958
53805SOL    HW263248   4.255   0.958  12.049
53806SOL     OW63249   0.981   2.244  12.160
53806SOL    HW163250   1.033   2.312  12.117
53806SOL    HW263251   0.976   2.174  12.095
53807SOL     OW63252   2.990  11.023   0.368
53807SOL    HW163253   2.914  11.023   0.308
53807SOL    HW263254   2.953  11.048   0.452
53808SOL     OW63255  13.397  10.350  10.605
53808SOL    HW163256  13.331  10.409  10.641
53808SOL    HW263257  13.401  10.278  10.668
53809SOL     OW63258   7.034  14.548   0.086
53809SOL    HW163259   6.995  14.511   0.007
53809SOL    HW263260   6.962  14.594   0.128
53810SOL     OW63261  14.134   2.372  12.942
53810SOL    HW163262  14.216   2.358  12.895
53810SOL    HW263263  14.113   2.464  12.926
53811SOL     OW63264   7.640  14.602  13.331
53811SOL    HW163265   7.707  14.653  13.284
53811SOL    HW263266   7.681  14.581  13.415
53812SOL     OW63267  11.212   8.865   5.782
53812SOL    HW163268  11.177   8.881   5.694
53812SOL    HW263269  11.164   8.788   5.813
53813SOL     OW63270   9.091   2.907   9.940
53813SOL    HW163271   9.173   2.884   9.896
53813SOL    HW263272   9.071   2.995   9.909
53814SOL     OW63273   7.524   4.746   3.356
53814SOL    HW163274   7.590   4.700   3.408
53814SOL    HW263275   7.532   4.838   3.383
53815SOL     OW63276   3.646  13.655   6.106
53815SOL    HW163277   3.710  13.644   6.036
53815SOL    HW263278   3.674  13.593   6.174
53816SOL     OW63279  13.009   5.049   1.043
53816SOL    HW163280  13.066   5.072   0.970
53816SOL    HW263281  12.922   5.039   1.003
53817SOL     OW63282  12.913   0.520   8.305
53817SOL    HW163283  12.887   0.456   8.239
53817SOL    HW263284  12.919   0.469   8.386
53818SOL     OW63285  10.214  12.337   0.518
53818SOL    HW163286  10.186  12.368   0.432
53818SOL    HW263287  10.146  12.368   0.579
53819SOL     OW63288   4.585   5.252   0.767
53819SOL    HW163289   4.492   5.237   0.777
53819SOL    HW263290   4.592   5.347   0.753
53820SOL     OW63291   9.362  13.669   2.882
53820SOL    HW163292   9.388  13.741   2.940
53820SOL    HW263293   9.361  13.592   2.938
53821SOL     OW63294   3.498   5.154  14.066
53821SOL    HW163295   3.585   5.172  14.031
53821SOL    HW263296   3.474   5.070  14.027
53822SOL     OW63297  11.674   1.208   0.245
53822SOL    HW163298  11.732   1.144   0.285
53822SOL    HW263299  11.645   1.263   0.317
53823SOL     OW63300   2.176  13.930   7.592
53823SOL    HW163301   2.185  13.847   7.639
53823SOL    HW263302   2.212  13.912   7.505
53824SOL     OW63303   5.025   9.917   2.238
53824SOL    HW163304   4.963   9.962   2.296
53824SOL    HW263305   5.018   9.825   2.262
53825SOL     OW63306   2.995   0.427   7.555
53825SOL    HW163307   2.968   0.431   7.647
53825SOL    HW263308   3.069   0.488   7.549
53826SOL     OW63309   1.313   2.358  11.623
53826SOL    HW163310   1.343   2.448  11.611
53826SOL    HW263311   1.267   2.360  11.707
53827SOL     OW63312   5.569  12.535  12.853
53827SOL    HW163313   5.620  12.465  12.812
53827SOL    HW263314   5.630  12.608  12.859
53828SOL     OW63315  14.403   5.650  10.675
53828SOL    HW163316  14.350   5.610  10.744
53828SOL    HW263317  14.381   5.743  10.679
53829SOL     OW63318   4.566   4.175   4.720
53829SOL    HW163319   4.560   4.081   4.735
53829SOL    HW263320   4.599   4.183   4.630
53830SOL     OW63321   3.381   4.424   9.826
53830SOL    HW163322   3.348   4.437   9.915
53830SOL    HW263323   3.376   4.511   9.786
53831SOL     OW63324  13.555  11.527  12.534
53831SOL    HW163325  13.482  11.585  12.557
53831SOL    HW263326  13.515  11.440  12.525
53832SOL     OW63327   3.995   5.247  14.428
53832SOL    HW163328   4.046   5.287  14.357
53832SOL    HW263329   3.946   5.320  14.466
53833SOL     OW63330  12.960   1.363   4.908
53833SOL    HW163331  13.053   1.363   4.932
53833SOL    HW263332  12.914   1.370   4.992
53834SOL     OW63333  13.477   9.329   7.990
53834SOL    HW163334  13.519   9.371   8.065
53834SOL    HW263335  13.509   9.239   7.992
53835SOL     OW63336   6.461  13.175  11.440
53835SOL    HW163337   6.482  13.268  11.441
53835SOL    HW263338   6.381  13.169  11.493
53836SOL     OW63339   5.925  12.270   0.528
53836SOL    HW163340   5.925  12.316   0.444
53836SOL    HW263341   5.880  12.187   0.509
53837SOL     OW63342   2.803   7.184  12.803
53837SOL    HW163343   2.760   7.169  12.887
53837SOL    HW263344   2.765   7.265  12.770
53838SOL     OW63345   7.413   8.672   3.525
53838SOL    HW163346   7.490   8.627   3.560
53838SOL    HW263347   7.357   8.685   3.601
53839SOL     OW63348   7.361  13.907  13.951
53839SOL    HW163349   7.413  13.984  13.974
53839SOL    HW263350   7.406  13.870  13.874
53840SOL     OW63351   0.448  11.071   4.113
53840SOL    HW163352   0.461  11.165   4.105
53840SOL    HW263353   0.508  11.045   4.184
53841SOL     OW63354   8.315   4.135  10.851
53841SOL    HW163355   8.240   4.162  10.798
53841SOL    HW263356   8.280   4.129  10.940
53842SOL     OW63357  13.312   5.601  10.095
53842SOL    HW163358  13.219   5.625  10.091
53842SOL    HW263359  13.312   5.507  10.113
53843SOL     OW63360   5.979   2.295   2.844
53843SOL    HW163361   5.938   2.254   2.768
53843SOL    HW263362   5.942   2.250   2.919
53844SOL     OW63363  10.496   2.680   4.589
53844SOL    HW163364  10.554   2.732   4.644
53844SOL    HW263365  10.433   2.744   4.555
53845SOL     OW63366   9.792  14.708   0.393
53845SOL    HW163367   9.765  14.692   0.303
53845SOL    HW263368   9.723  14.668   0.446
53846SOL     OW63369   6.230  13.147   6.915
53846SOL    HW163370   6.294  13.090   6.958
53846SOL    HW263371   6.264  13.156   6.826
53847SOL     OW63372   4.657   9.896   8.830
53847SOL    HW163373   4.618   9.884   8.743
53847SOL    HW263374   4.727   9.960   8.816
53848SOL     OW63375   8.184   3.329   2.100
53848SOL    HW163376   8.270   3.350   2.136
53848SOL    HW263377   8.131   3.406   2.119
53849SOL     OW63378   6.064  10.463   2.120
53849SOL    HW163379   6.027  10.516   2.190
53849SOL    HW263380   6.155  10.491   2.113
53850SOL     OW63381   6.641  13.460  14.780
53850SOL    HW163382   6.606  13.506  14.856
53850SOL    HW263383   6.709  13.402  14.814
53851SOL     OW63384   4.701  10.890   5.407
53851SOL    HW163385   4.796  10.893   5.399
53851SOL    HW263386   4.677  10.976   5.443
53852SOL     OW63387  10.144   0.777   7.004
53852SOL    HW163388  10.061   0.750   6.966
53852SOL    HW263389  10.151   0.870   6.984
53853SOL     OW63390  11.302   8.541  11.156
53853SOL    HW163391  11.338   8.564  11.070
53853SOL    HW263392  11.373   8.496  11.201
53854SOL     OW63393  12.030   8.524  13.098
53854SOL    HW163394  12.031   8.617  13.071
53854SOL    HW263395  11.940   8.509  13.126
53855SOL     OW63396   2.980  10.388   8.843
53855SOL    HW163397   3.012  10.362   8.929
53855SOL    HW263398   2.999  10.313   8.786
53856SOL     OW63399   7.357   7.787   0.934
53856SOL    HW163400   7.262   7.785   0.948
53856SOL    HW263401   7.393   7.745   1.012
53857SOL     OW63402  12.835   2.177   0.241
53857SOL    HW163403  12.794   2.260   0.264
53857SOL    HW263404  12.929   2.193   0.249
53858SOL     OW63405   7.419   0.529   0.554
53858SOL    HW163406   7.510   0.518   0.528
53858SOL    HW263407   7.418   0.505   0.647
53859SOL     OW63408   5.382   7.122   1.648
53859SOL    HW163409   5.377   7.105   1.742
53859SOL    HW263410   5.316   7.065   1.609
53860SOL     OW63411  14.411   6.556  12.605
53860SOL    HW163412  14.344   6.489  12.594
53860SOL    HW263413  14.363   6.633  12.635
53861SOL     OW63414   6.196   9.028  10.676
53861SOL    HW163415   6.130   8.963  10.701
53861SOL    HW263416   6.203   9.019  10.581
53862SOL     OW63417   8.122  10.103   5.949
53862SOL    HW163418   8.196  10.131   6.003
53862SOL    HW263419   8.121  10.008   5.959
53863SOL     OW63420   4.182   6.446   6.013
53863SOL    HW163421   4.178   6.456   6.108
53863SOL    HW263422   4.172   6.535   5.979
53864SOL     OW63423   0.626  10.058   9.652
53864SOL    HW163424   0.648  10.104   9.571
53864SOL    HW263425   0.707  10.058   9.703
53865SOL     OW63426   1.742  11.888   7.172
53865SOL    HW163427   1.655  11.928   7.163
53865SOL    HW263428   1.724  11.798   7.199
53866SOL     OW63429   1.494   6.323   0.514
53866SOL    HW163430   1.413   6.308   0.467
53866SOL    HW263431   1.545   6.243   0.501
53867SOL     OW63432  10.034   0.346   1.785
53867SOL    HW163433   9.976   0.297   1.843
53867SOL    HW263434  10.062   0.422   1.837
53868SOL     OW63435   6.620   8.619   5.766
53868SOL    HW163436   6.639   8.526   5.753
53868SOL    HW263437   6.529   8.629   5.739
53869SOL     OW63438   6.615   5.100   6.301
53869SOL    HW163439   6.702   5.061   6.304
53869SOL    HW263440   6.601   5.134   6.389
53870SOL     OW63441   4.189   2.208   7.946
53870SOL    HW163442   4.265   2.151   7.933
53870SOL    HW263443   4.115   2.148   7.950
53871SOL     OW63444  14.555   8.558  13.447
53871SOL    HW163445  14.492   8.569  13.519
53871SOL    HW263446  14.508   8.591  13.370
53872SOL     OW63447  12.714   1.730   7.184
53872SOL    HW163448  12.785   1.785   7.149
53872SOL    HW263449  12.759   1.661   7.234
53873SOL     OW63450   3.496   9.183   2.152
53873SOL    HW163451   3.591   9.186   2.143
53873SOL    HW263452   3.464   9.249   2.090
53874SOL     OW63453  11.369   8.731   6.913
53874SOL    HW163454  11.325   8.736   6.998
53874SOL    HW263455  11.303   8.758   6.850
53875SOL     OW63456  13.708   2.027   9.660
53875SOL    HW163457  13.664   2.111   9.650
53875SOL    HW263458  13.775   2.026   9.591
53876SOL     OW63459  13.629  10.749  14.269
53876SOL    HW163460  13.611  10.777  14.179
53876SOL    HW263461  13.725  10.749  14.275
53877SOL     OW63462   7.056  11.680   3.630
53877SOL    HW163463   7.134  11.729   3.656
53877SOL    HW263464   7.019  11.731   3.558
53878SOL     OW63465  10.823  10.040  10.182
53878SOL    HW163466  10.882   9.976  10.221
53878SOL    HW263467  10.832  10.118  10.236
53879SOL     OW63468   2.615  14.752   9.137
53879SOL    HW163469   2.533  14.789   9.169
53879SOL    HW263470   2.681  14.782   9.199
53880SOL     OW63471   7.322  13.512   6.990
53880SOL    HW163472   7.281  13.428   7.008
53880SOL    HW263473   7.266  13.553   6.925
53881SOL     OW63474  10.129   0.744  11.628
53881SOL    HW163475  10.125   0.660  11.582
53881SOL    HW263476  10.187   0.798  11.575
53882SOL     OW63477   2.390   8.327  13.596
53882SOL    HW163478   2.470   8.306  13.643
53882SOL    HW263479   2.320   8.285  13.646
53883SOL     OW63480   3.765  13.278  11.895
53883SOL    HW163481   3.801  13.199  11.936
53883SOL    HW263482   3.792  13.349  11.952
53884SOL     OW63483   7.400  10.037   4.288
53884SOL    HW163484   7.337  10.060   4.355
53884SOL    HW263485   7.414   9.943   4.299
53885SOL     OW63486  10.889  10.550  10.355
53885SOL    HW163487  10.800  10.585  10.358
53885SOL    HW263488  10.926  10.586  10.274
53886SOL     OW63489  13.141   5.649   7.510
53886SOL    HW163490  13.195   5.713   7.463
53886SOL    HW263491  13.051   5.679   7.496
53887SOL     OW63492   0.469  14.242   0.818
53887SOL    HW163493   0.454  14.148   0.804
53887SOL    HW263494   0.509  14.272   0.736
53888SOL     OW63495   7.973  11.636   7.460
53888SOL    HW163496   7.929  11.720   7.453
53888SOL    HW263497   7.992  11.610   7.370
53889SOL     OW63498   9.188   9.293   4.174
53889SOL    HW163499   9.220   9.383   4.179
53889SOL    HW263500   9.100   9.301   4.138
53890SOL     OW63501   8.439   8.868   4.014
53890SOL    HW163502   8.450   8.943   4.072
53890SOL    HW263503   8.390   8.804   4.066
53891SOL     OW63504  13.566  10.882   1.468
53891SOL    HW163505  13.503  10.814   1.493
53891SOL    HW263506  13.540  10.958   1.520
53892SOL     OW63507  12.784  12.762  11.817
53892SOL    HW163508  12.810  12.852  11.797
53892SOL    HW263509  12.836  12.739  11.895
53893SOL     OW63510   2.067   7.379  12.476
53893SOL    HW163511   2.002   7.320  12.514
53893SOL    HW263512   2.060   7.364  12.381
53894SOL     OW63513  10.405   7.229  12.351
53894SOL    HW163514  10.340   7.171  12.391
53894SOL    HW263515  10.386   7.225  12.257
53895SOL     OW63516   9.379   6.501   4.764
53895SOL    HW163517   9.457   6.531   4.717
53895SOL    HW263518   9.414   6.458   4.842
53896SOL     OW63519   7.098  14.456   2.979
53896SOL    HW163520   7.125  14.402   3.053
53896SOL    HW263521   7.092  14.395   2.906
53897SOL     OW63522   4.145   2.192   4.607
53897SOL    HW163523   4.101   2.162   4.686
53897SOL    HW263524   4.209   2.123   4.587
53898SOL     OW63525   9.771  12.677  10.556
53898SOL    HW163526   9.767  12.758  10.607
53898SOL    HW263527   9.762  12.705  10.466
53899SOL     OW63528   8.627   3.127   6.692
53899SOL    HW163529   8.557   3.164   6.747
53899SOL    HW263530   8.626   3.034   6.712
53900SOL     OW63531   2.030   0.686  13.579
53900SOL    HW163532   2.025   0.632  13.658
53900SOL    HW263533   2.007   0.774  13.609
53901SOL     OW63534  10.119   3.813   8.965
53901SOL    HW163535  10.111   3.846   9.054
53901SOL    HW263536  10.030   3.815   8.930
53902SOL     OW63537   3.434  14.277   0.588
53902SOL    HW163538   3.509  14.321   0.549
53902SOL    HW263539   3.369  14.347   0.601
53903SOL     OW63540   3.792   2.639  10.028
53903SOL    HW163541   3.762   2.677  10.111
53903SOL    HW263542   3.854   2.703   9.993
53904SOL     OW63543   0.985   2.268   5.694
53904SOL    HW163544   0.952   2.357   5.680
53904SOL    HW263545   1.037   2.274   5.774
53905SOL     OW63546   5.297   4.840   6.523
53905SOL    HW163547   5.323   4.924   6.485
53905SOL    HW263548   5.362   4.824   6.591
53906SOL     OW63549   6.349   4.728  13.428
53906SOL    HW163550   6.394   4.809  13.405
53906SOL    HW263551   6.367   4.669  13.354
53907SOL     OW63552  13.533  10.647   5.344
53907SOL    HW163553  13.500  10.561   5.316
53907SOL    HW263554  13.556  10.691   5.262
53908SOL     OW63555   7.902   2.984  13.384
53908SOL    HW163556   7.807   2.997  13.383
53908SOL    HW263557   7.914   2.897  13.423
53909SOL     OW63558   5.134   8.795   6.555
53909SOL    HW163559   5.042   8.786   6.582
53909SOL    HW263560   5.184   8.778   6.635
53910SOL     OW63561   0.138   4.603   5.197
53910SOL    HW163562   0.233   4.613   5.201
53910SOL    HW263563   0.117   4.544   5.269
53911SOL     OW63564   1.992   3.797   2.593
53911SOL    HW163565   1.907   3.759   2.571
53911SOL    HW263566   1.999   3.875   2.538
53912SOL     OW63567   7.309  14.628  11.571
53912SOL    HW163568   7.373  14.558  11.580
53912SOL    HW263569   7.252  14.601  11.499
53913SOL     OW63570   7.831   8.897  12.156
53913SOL    HW163571   7.900   8.905  12.090
53913SOL    HW263572   7.782   8.979  12.150
53914SOL     OW63573  10.565   8.214   3.599
53914SOL    HW163574  10.527   8.284   3.546
53914SOL    HW263575  10.660   8.221   3.583
53915SOL     OW63576   9.088   5.319   2.101
53915SOL    HW163577   9.184   5.326   2.099
53915SOL    HW263578   9.063   5.368   2.179
53916SOL     OW63579   7.755   8.343   5.015
53916SOL    HW163580   7.765   8.252   5.044
53916SOL    HW263581   7.837   8.385   5.039
53917SOL     OW63582   1.968   0.823   2.838
53917SOL    HW163583   1.921   0.741   2.857
53917SOL    HW263584   2.013   0.844   2.920
53918SOL     OW63585  10.212  11.785  13.566
53918SOL    HW163586  10.202  11.867  13.615
53918SOL    HW263587  10.306  11.766  13.571
53919SOL     OW63588   5.769   3.828  13.330
53919SOL    HW163589   5.683   3.849  13.294
53919SOL    HW263590   5.766   3.863  13.419
53920SOL     OW63591  14.742  12.982  10.756
53920SOL    HW163592  14.714  12.918  10.691
53920SOL    HW263593  14.810  12.937  10.806
53921SOL     OW63594  12.321   9.568   0.246
53921SOL    HW163595  12.280   9.654   0.241
53921SOL    HW263596  12.389   9.577   0.313
53922SOL     OW63597   5.662  12.260   0.792
53922SOL    HW163598   5.724  12.203   0.839
53922SOL    HW263599   5.701  12.347   0.797
53923SOL     OW63600   0.221  12.475  11.387
53923SOL    HW163601   0.127  12.471  11.403
53923SOL    HW263602   0.231  12.447  11.296
53924SOL     OW63603  13.509   6.685   1.342
53924SOL    HW163604  13.574   6.675   1.411
53924SOL    HW263605  13.544   6.635   1.268
53925SOL     OW63606   4.489   3.475   0.036
53925SOL    HW163607   4.457   3.565   0.039
53925SOL    HW263608   4.568   3.480  14.855
53926SOL     OW63609   9.267  14.216  13.874
53926SOL    HW163610   9.172  14.225  13.867
53926SOL    HW263611   9.293  14.177  13.790
53927SOL     OW63612  14.271   9.169   3.285
53927SOL    HW163613  14.358   9.131   3.295
53927SOL    HW263614  14.237   9.175   3.374
53928SOL     OW63615   7.231   6.665   1.046
53928SOL    HW163616   7.194   6.741   1.001
53928SOL    HW263617   7.306   6.700   1.095
53929SOL     OW63618   9.532  10.373   9.997
53929SOL    HW163619   9.584  10.296   9.973
53929SOL    HW263620   9.462  10.376   9.933
53930SOL     OW63621   5.751   1.621   6.568
53930SOL    HW163622   5.814   1.688   6.596
53930SOL    HW263623   5.687   1.669   6.515
53931SOL     OW63624   3.480  13.682   0.740
53931SOL    HW163625   3.440  13.645   0.819
53931SOL    HW263626   3.535  13.753   0.772
53932SOL     OW63627   6.971   8.269   6.767
53932SOL    HW163628   6.913   8.203   6.804
53932SOL    HW263629   6.970   8.251   6.673
53933SOL     OW63630   0.050  11.143   3.407
53933SOL    HW163631   0.060  11.073   3.343
53933SOL    HW263632   0.079  11.104   3.489
53934SOL     OW63633   1.953   4.262   0.102
53934SOL    HW163634   1.950   4.260   0.006
53934SOL    HW263635   1.989   4.348   0.123
53935SOL     OW63636  13.359   5.615  13.486
53935SOL    HW163637  13.355   5.624  13.581
53935SOL    HW263638  13.272   5.586  13.460
53936SOL     OW63639   6.621   7.588   3.583
53936SOL    HW163640   6.584   7.504   3.555
53936SOL    HW263641   6.599   7.648   3.512
53937SOL     OW63642   3.098   9.999   4.375
53937SOL    HW163643   3.193   9.988   4.368
53937SOL    HW263644   3.068  10.001   4.285
53938SOL     OW63645   4.555   2.666   9.608
53938SOL    HW163646   4.520   2.735   9.551
53938SOL    HW263647   4.596   2.714   9.680
53939SOL     OW63648  11.744   8.426  12.621
53939SOL    HW163649  11.752   8.334  12.597
53939SOL    HW263650  11.653   8.435  12.652
53940SOL     OW63651   3.286   8.661  12.437
53940SOL    HW163652   3.233   8.690  12.362
53940SOL    HW263653   3.344   8.734  12.455
53941SOL     OW63654   6.863   9.222   5.546
53941SOL    HW163655   6.839   9.315   5.538
53941SOL    HW263656   6.934   9.221   5.609
53942SOL     OW63657   6.427   4.359   3.982
53942SOL    HW163658   6.520   4.339   3.975
53942SOL    HW263659   6.398   4.308   4.058
53943SOL     OW63660  11.905   7.386  13.293
53943SOL    HW163661  11.893   7.421  13.205
53943SOL    HW263662  11.898   7.291  13.282
53944SOL     OW63663  11.901   5.930  10.783
53944SOL    HW163664  11.878   5.881  10.703
53944SOL    HW263665  11.862   5.879  10.854
53945SOL     OW63666   3.478  10.460  14.180
53945SOL    HW163667   3.545  10.392  14.187
53945SOL    HW263668   3.421  10.430  14.109
53946SOL     OW63669   9.755   0.059   7.735
53946SOL    HW163670   9.798   0.144   7.729
53946SOL    HW263671   9.801   0.005   7.670
53947SOL     OW63672   8.055   8.021   9.199
53947SOL    HW163673   8.070   8.054   9.288
53947SOL    HW263674   8.010   8.093   9.155
53948SOL     OW63675   5.179   2.516   7.083
53948SOL    HW163676   5.103   2.463   7.104
53948SOL    HW263677   5.247   2.452   7.062
53949SOL     OW63678   1.884   5.947  10.201
53949SOL    HW163679   1.909   6.039  10.210
53949SOL    HW263680   1.866   5.936  10.107
53950SOL     OW63681   1.497   7.218  12.164
53950SOL    HW163682   1.485   7.309  12.136
53950SOL    HW263683   1.452   7.213  12.248
53951SOL     OW63684  13.758   3.752   0.021
53951SOL    HW163685  13.841   3.734   0.067
53951SOL    HW263686  13.691   3.716   0.079
53952SOL     OW63687   9.625   5.997   2.943
53952SOL    HW163688   9.684   6.036   2.878
53952SOL    HW263689   9.607   6.068   3.004
53953SOL     OW63690   8.851   7.216   0.177
53953SOL    HW163691   8.906   7.154   0.129
53953SOL    HW263692   8.830   7.284   0.113
53954SOL     OW63693   8.956   5.689  12.118
53954SOL    HW163694   8.936   5.677  12.025
53954SOL    HW263695   9.029   5.750  12.118
53955SOL     OW63696  12.857  10.373  14.330
53955SOL    HW163697  12.915  10.324  14.389
53955SOL    HW263698  12.802  10.306  14.289
53956SOL     OW63699   0.536   6.166  10.353
53956SOL    HW163700   0.561   6.129  10.438
53956SOL    HW263701   0.582   6.250  10.348
53957SOL     OW63702  14.176  12.228   6.139
53957SOL    HW163703  14.096  12.281   6.131
53957SOL    HW263704  14.153  12.145   6.098
53958SOL     OW63705   6.626   8.088  13.772
53958SOL    HW163706   6.614   8.151  13.701
53958SOL    HW263707   6.691   8.026  13.739
53959SOL     OW63708   3.409   1.390  11.818
53959SOL    HW163709   3.391   1.297  11.827
53959SOL    HW263710   3.331   1.426  11.776
53960SOL     OW63711   6.091   0.258  12.289
53960SOL    HW163712   6.158   0.294  12.346
53960SOL    HW263713   6.012   0.255  12.343
53961SOL     OW63714  13.843   5.298   7.958
53961SOL    HW163715  13.923   5.350   7.970
53961SOL    HW263716  13.865   5.212   7.994
53962SOL     OW63717  10.672   5.407   1.249
53962SOL    HW163718  10.655   5.500   1.264
53962SOL    HW263719  10.692   5.401   1.156
53963SOL     OW63720   3.161   7.490  10.064
53963SOL    HW163721   3.129   7.410  10.021
53963SOL    HW263722   3.082   7.530  10.102
53964SOL     OW63723  11.811  14.847   3.313
53964SOL    HW163724  11.865   0.051   3.334
53964SOL    HW263725  11.791  14.857   3.220
53965SOL     OW63726   5.887   4.746   1.712
53965SOL    HW163727   5.816   4.685   1.693
53965SOL    HW263728   5.852   4.831   1.685
53966SOL     OW63729  14.474   0.874   8.599
53966SOL    HW163730  14.479   0.880   8.503
53966SOL    HW263731  14.538   0.938   8.630
53967SOL     OW63732   5.166   3.616   4.693
53967SOL    HW163733   5.197   3.702   4.719
53967SOL    HW263734   5.242   3.575   4.651
53968SOL     OW63735  12.420   5.467   2.447
53968SOL    HW163736  12.454   5.468   2.537
53968SOL    HW263737  12.468   5.396   2.404
53969SOL     OW63738   4.319   1.945  10.148
53969SOL    HW163739   4.322   1.929  10.053
53969SOL    HW263740   4.342   1.861  10.187
53970SOL     OW63741   8.716   2.182   1.543
53970SOL    HW163742   8.790   2.131   1.510
53970SOL    HW263743   8.651   2.117   1.570
53971SOL     OW63744   8.936  12.301  14.577
53971SOL    HW163745   8.883  12.238  14.529
53971SOL    HW263746   9.023  12.296  14.537
53972SOL     OW63747  14.381  10.243   7.800
53972SOL    HW163748  14.404  10.157   7.834
53972SOL    HW263749  14.287  10.237   7.782
53973SOL     OW63750  13.172   9.004  11.060
53973SOL    HW163751  13.202   8.937  11.122
53973SOL    HW263752  13.140   8.955  10.985
53974SOL     OW63753  13.174   3.523   3.939
53974SOL    HW163754  13.230   3.527   4.017
53974SOL    HW263755  13.158   3.430   3.926
53975SOL     OW63756   5.241   2.330   4.796
53975SOL    HW163757   5.275   2.279   4.723
53975SOL    HW263758   5.149   2.304   4.802
53976SOL     OW63759  13.521   2.309   1.378
53976SOL    HW163760  13.569   2.238   1.419
53976SOL    HW263761  13.429   2.282   1.382
53977SOL     OW63762   7.082  12.919  14.345
53977SOL    HW163763   7.060  12.977  14.418
53977SOL    HW263764   6.998  12.888  14.313
53978SOL     OW63765  13.592   3.082   6.613
53978SOL    HW163766  13.502   3.054   6.601
53978SOL    HW263767  13.618   3.117   6.528
53979SOL     OW63768   0.144  14.843   2.507
53979SOL    HW163769   0.157  14.868   2.416
53979SOL    HW263770   0.213  14.779   2.524
53980SOL     OW63771   0.774  11.285   4.711
53980SOL    HW163772   0.764  11.215   4.776
53980SOL    HW263773   0.692  11.283   4.662
53981SOL     OW63774   6.097   5.121   0.130
53981SOL    HW163775   6.111   5.131   0.224
53981SOL    HW263776   6.162   5.058   0.102
53982SOL     OW63777   7.390   8.667   6.091
53982SOL    HW163778   7.323   8.639   6.154
53982SOL    HW263779   7.374   8.760   6.079
53983SOL     OW63780  11.847   0.879   5.819
53983SOL    HW163781  11.795   0.959   5.810
53983SOL    HW263782  11.920   0.903   5.876
53984SOL     OW63783   4.214   4.923  10.583
53984SOL    HW163784   4.280   4.863  10.617
53984SOL    HW263785   4.255   4.964  10.507
53985SOL     OW63786   0.764   5.911  11.820
53985SOL    HW163787   0.815   5.987  11.792
53985SOL    HW263788   0.736   5.932  11.909
53986SOL     OW63789   0.077  11.343  11.544
53986SOL    HW163790  14.857  11.320  11.535
53986SOL    HW263791   0.095  11.338  11.638
53987SOL     OW63792   1.030  14.756   3.921
53987SOL    HW163793   1.012  14.795   4.007
53987SOL    HW263794   0.959  14.694   3.907
53988SOL     OW63795  10.861   7.336   9.117
53988SOL    HW163796  10.811   7.382   9.049
53988SOL    HW263797  10.952   7.362   9.102
53989SOL     OW63798   0.466   5.985  11.144
53989SOL    HW163799   0.459   6.064  11.197
53989SOL    HW263800   0.560   5.964  11.144
53990SOL     OW63801   4.793  14.480   1.100
53990SOL    HW163802   4.728  14.457   1.166
53990SOL    HW263803   4.855  14.537   1.147
53991SOL     OW63804   9.247   8.826  12.432
53991SOL    HW163805   9.288   8.825  12.518
53991SOL    HW263806   9.155   8.844  12.449
53992SOL     OW63807  12.372   1.993  12.819
53992SOL    HW163808  12.442   1.968  12.759
53992SOL    HW263809  12.417   2.035  12.892
53993SOL     OW63810   2.357  14.410   7.327
53993SOL    HW163811   2.329  14.333   7.276
53993SOL    HW263812   2.418  14.375   7.392
53994SOL     OW63813   6.295   9.400   4.738
53994SOL    HW163814   6.312   9.423   4.830
53994SOL    HW263815   6.350   9.459   4.688
53995SOL     OW63816  13.987   1.447   3.979
53995SOL    HW163817  13.970   1.498   4.058
53995SOL    HW263818  13.904   1.450   3.930
53996SOL     OW63819   8.344   6.047   1.398
53996SOL    HW163820   8.254   6.066   1.427
53996SOL    HW263821   8.333   5.976   1.334
53997SOL     OW63822   0.846   4.459   3.057
53997SOL    HW163823   0.890   4.443   2.974
53997SOL    HW263824   0.755   4.476   3.033
53998SOL     OW63825   7.189  13.054   2.369
53998SOL    HW163826   7.161  13.012   2.288
53998SOL    HW263827   7.191  12.983   2.433
53999SOL     OW63828   5.153  10.474   8.980
53999SOL    HW163829   5.155  10.523   8.897
53999SOL    HW263830   5.245  10.453   8.997
54000SOL     OW63831   3.539  14.613  11.775
54000SOL    HW163832   3.451  14.609  11.813
54000SOL    HW263833   3.597  14.587  11.846
54001SOL     OW63834   0.486   1.513   1.008
54001SOL    HW163835   0.452   1.503   1.097
54001SOL    HW263836   0.575   1.546   1.020
54002SOL     OW63837   9.271   9.378  10.690
54002SOL    HW163838   9.252   9.350  10.779
54002SOL    HW263839   9.366   9.380  10.684
54003SOL     OW63840   6.474  10.235   8.679
54003SOL    HW163841   6.481  10.241   8.583
54003SOL    HW263842   6.396  10.286   8.699
54004SOL     OW63843   4.323   2.168   9.920
54004SOL    HW163844   4.347   2.182   9.828
54004SOL    HW263845   4.364   2.084   9.942
54005SOL     OW63846   0.503   4.399  12.233
54005SOL    HW163847   0.546   4.439  12.158
54005SOL    HW263848   0.415   4.437  12.233
54006SOL     OW63849   9.870   4.469   6.961
54006SOL    HW163850   9.882   4.488   7.054
54006SOL    HW263851   9.924   4.392   6.945
54007SOL     OW63852   9.259  13.105   1.457
54007SOL    HW163853   9.285  13.129   1.368
54007SOL    HW263854   9.253  13.188   1.504
54008SOL     OW63855  13.035   9.016   1.706
54008SOL    HW163856  13.096   8.993   1.635
54008SOL    HW263857  12.968   8.949   1.702
54009SOL     OW63858   9.550   9.304   4.190
54009SOL    HW163859   9.522   9.373   4.129
54009SOL    HW263860   9.476   9.244   4.194
54010SOL     OW63861   5.393   5.439   7.105
54010SOL    HW163862   5.377   5.472   7.017
54010SOL    HW263863   5.306   5.431   7.144
54011SOL     OW63864   0.334  10.553   1.702
54011SOL    HW163865   0.316  10.467   1.739
54011SOL    HW263866   0.369  10.535   1.614
54012SOL     OW63867  13.911   5.437  14.158
54012SOL    HW163868  13.891   5.405  14.246
54012SOL    HW263869  13.826   5.447  14.115
54013SOL     OW63870  10.592   3.376   0.579
54013SOL    HW163871  10.550   3.443   0.525
54013SOL    HW263872  10.608   3.304   0.519
54014SOL     OW63873   7.977   4.731   3.582
54014SOL    HW163874   8.017   4.801   3.531
54014SOL    HW263875   8.024   4.652   3.556
54015SOL     OW63876   2.540  12.923   4.026
54015SOL    HW163877   2.538  12.936   3.931
54015SOL    HW263878   2.537  12.828   4.037
54016SOL     OW63879   8.803   6.267  12.218
54016SOL    HW163880   8.885   6.296  12.176
54016SOL    HW263881   8.745   6.246  12.146
54017SOL     OW63882   0.741   2.687   9.152
54017SOL    HW163883   0.682   2.722   9.085
54017SOL    HW263884   0.684   2.666   9.226
54018SOL     OW63885   1.602   4.294   1.447
54018SOL    HW163886   1.602   4.275   1.541
54018SOL    HW263887   1.531   4.239   1.412
54019SOL     OW63888   9.131   8.451   9.726
54019SOL    HW163889   9.217   8.449   9.768
54019SOL    HW263890   9.146   8.419   9.638
54020SOL     OW63891   4.718   1.335   9.944
54020SOL    HW163892   4.696   1.355   9.853
54020SOL    HW263893   4.634   1.322   9.987
54021SOL     OW63894   0.821  12.948   3.600
54021SOL    HW163895   0.766  12.959   3.523
54021SOL    HW263896   0.791  13.016   3.660
54022SOL     OW63897   8.233   9.765   5.009
54022SOL    HW163898   8.242   9.798   4.919
54022SOL    HW263899   8.155   9.710   5.006
54023SOL     OW63900   0.742   6.161   5.927
54023SOL    HW163901   0.657   6.183   5.888
54023SOL    HW263902   0.769   6.240   5.972
54024SOL     OW63903   6.684  13.196   0.193
54024SOL    HW163904   6.676  13.180   0.099
54024SOL    HW263905   6.752  13.134   0.222
54025SOL     OW63906   1.926  11.962   7.830
54025SOL    HW163907   1.887  11.912   7.758
54025SOL    HW263908   2.020  11.954   7.817
54026SOL     OW63909   7.356   1.065   1.021
54026SOL    HW163910   7.264   1.065   1.050
54026SOL    HW263911   7.399   1.127   1.080
54027SOL     OW63912  10.345   1.982   9.714
54027SOL    HW163913  10.362   2.034   9.635
54027SOL    HW263914  10.283   2.035   9.764
54028SOL     OW63915   5.530   3.900  13.209
54028SOL    HW163916   5.515   3.983  13.164
54028SOL    HW263917   5.461   3.842  13.176
54029SOL     OW63918   4.160  13.191  12.087
54029SOL    HW163919   4.111  13.116  12.052
54029SOL    HW263920   4.127  13.201  12.176
54030SOL     OW63921   5.270  12.970   8.366
54030SOL    HW163922   5.238  13.040   8.309
54030SOL    HW263923   5.339  12.927   8.315
54031SOL     OW63924   9.890  10.019  12.022
54031SOL    HW163925   9.860  10.106  12.046
54031SOL    HW263926   9.931  10.030  11.937
54032SOL     OW63927   1.861   1.769   9.498
54032SOL    HW163928   1.948   1.783   9.536
54032SOL    HW263929   1.800   1.810   9.560
54033SOL     OW63930   3.761  11.032  14.303
54033SOL    HW163931   3.844  10.988  14.322
54033SOL    HW263932   3.699  10.960  14.288
54034SOL     OW63933   9.115   6.140  12.845
54034SOL    HW163934   9.161   6.067  12.804
54034SOL    HW263935   9.031   6.143  12.799
54035SOL     OW63936   3.688  13.698  11.040
54035SOL    HW163937   3.768  13.649  11.059
54035SOL    HW263938   3.662  13.736  11.124
54036SOL     OW63939   2.301  14.832   9.596
54036SOL    HW163940   2.208  14.807   9.602
54036SOL    HW263941   2.300   0.055   9.589
54037SOL     OW63942   7.472  14.703  10.676
54037SOL    HW163943   7.554  14.683  10.631
54037SOL    HW263944   7.443  14.618  10.710
54038SOL     OW63945   6.703   7.798  14.868
54038SOL    HW163946   6.726   7.743  14.793
54038SOL    HW263947   6.753   7.878  14.855
54039SOL     OW63948   4.956  10.076  13.586
54039SOL    HW163949   4.944  10.012  13.656
54039SOL    HW263950   5.030  10.042  13.535
54040SOL     OW63951   9.314   5.086   6.981
54040SOL    HW163952   9.330   5.119   6.893
54040SOL    HW263953   9.314   4.991   6.972
54041SOL     OW63954   3.133   1.756   0.724
54041SOL    HW163955   3.081   1.715   0.793
54041SOL    HW263956   3.114   1.850   0.732
54042SOL     OW63957   9.505   4.697   3.404
54042SOL    HW163958   9.534   4.750   3.478
54042SOL    HW263959   9.429   4.649   3.438
54043SOL     OW63960  13.429   3.841  12.366
54043SOL    HW163961  13.396   3.929  12.346
54043SOL    HW263962  13.435   3.798  12.281
54044SOL     OW63963   1.332   9.796   0.214
54044SOL    HW163964   1.295   9.871   0.260
54044SOL    HW263965   1.419   9.784   0.253
54045SOL     OW63966  11.122   1.480   8.979
54045SOL    HW163967  11.051   1.536   8.947
54045SOL    HW263968  11.081   1.423   9.044
54046SOL     OW63969  11.283   2.079   0.621
54046SOL    HW163970  11.204   2.044   0.661
54046SOL    HW263971  11.280   2.050   0.530
54047SOL     OW63972  14.122   2.974   8.278
54047SOL    HW163973  14.067   2.901   8.306
54047SOL    HW263974  14.105   3.043   8.342
54048SOL     OW63975  12.870   1.958  12.953
54048SOL    HW163976  12.865   1.908  12.872
54048SOL    HW263977  12.782   1.951  12.991
54049SOL     OW63978  14.050  10.685  13.222
54049SOL    HW163979  13.985  10.737  13.175
54049SOL    HW263980  14.119  10.748  13.244
54050SOL     OW63981  10.122   8.457  11.353
54050SOL    HW163982  10.214   8.429  11.352
54050SOL    HW263983  10.097   8.459  11.260
54051SOL     OW63984   3.421   0.104   3.165
54051SOL    HW163985   3.404   0.011   3.151
54051SOL    HW263986   3.404   0.145   3.080
54052SOL     OW63987   7.989   5.627   6.727
54052SOL    HW163988   7.946   5.662   6.805
54052SOL    HW263989   7.917   5.596   6.672
54053SOL     OW63990   2.695   5.459  10.371
54053SOL    HW163991   2.726   5.368  10.369
54053SOL    HW263992   2.774   5.510  10.392
54054SOL     OW63993  12.758   7.798  13.877
54054SOL    HW163994  12.699   7.742  13.826
54054SOL    HW263995  12.815   7.737  13.923
54055SOL     OW63996   6.410  14.430   0.583
54055SOL    HW163997   6.324  14.425   0.625
54055SOL    HW263998   6.446  14.342   0.593
54056SOL     OW63999   0.801  12.776  12.852
54056SOL    HW164000   0.763  12.822  12.777
54056SOL    HW264001   0.730  12.721  12.885
54057SOL     OW64002  11.261   3.587   2.291
54057SOL    HW164003  11.352   3.615   2.281
54057SOL    HW264004  11.209   3.662   2.263
54058SOL     OW64005   5.534   6.954  10.562
54058SOL    HW164006   5.623   6.953  10.526
54058SOL    HW264007   5.534   6.883  10.626
54059SOL     OW64008   9.860   9.797   1.520
54059SOL    HW164009   9.923   9.767   1.455
54059SOL    HW264010   9.774   9.780   1.480
54060SOL     OW64011   4.483  11.618   7.262
54060SOL    HW164012   4.476  11.659   7.348
54060SOL    HW264013   4.474  11.524   7.280
54061SOL     OW64014   5.781   5.830   3.300
54061SOL    HW164015   5.857   5.781   3.270
54061SOL    HW264016   5.748   5.779   3.374
54062SOL     OW64017   6.154   1.048   5.891
54062SOL    HW164018   6.248   1.066   5.892
54062SOL    HW264019   6.143   0.974   5.951
54063SOL     OW64020   0.514   2.653   9.296
54063SOL    HW164021   0.506   2.700   9.379
54063SOL    HW264022   0.443   2.589   9.298
54064SOL     OW64023   0.643  10.548   0.911
54064SOL    HW164024   0.635  10.598   0.829
54064SOL    HW264025   0.580  10.589   0.970
54065SOL     OW64026   2.200   5.192  13.924
54065SOL    HW164027   2.239   5.243  13.995
54065SOL    HW264028   2.143   5.129  13.968
54066SOL     OW64029   6.540  10.741   6.556
54066SOL    HW164030   6.562  10.694   6.636
54066SOL    HW264031   6.507  10.826   6.586
54067SOL     OW64032  11.179  11.825  12.895
54067SOL    HW164033  11.158  11.770  12.970
54067SOL    HW264034  11.095  11.865  12.870
54068SOL     OW64035  14.073  14.469  10.721
54068SOL    HW164036  14.030  14.384  10.716
54068SOL    HW264037  14.149  14.455  10.777
54069SOL     OW64038   7.627   3.010  14.602
54069SOL    HW164039   7.580   2.983  14.682
54069SOL    HW264040   7.571   2.980  14.531
54070SOL     OW64041   3.536  11.895  10.638
54070SOL    HW164042   3.574  11.963  10.582
54070SOL    HW264043   3.493  11.943  10.709
54071SOL     OW64044  13.033   4.860   9.275
54071SOL    HW164045  13.114   4.910   9.277
54071SOL    HW264046  12.974   4.911   9.219
54072SOL     OW64047   4.651   6.775   4.735
54072SOL    HW164048   4.740   6.747   4.759
54072SOL    HW264049   4.646   6.759   4.641
54073SOL     OW64050   0.261   1.407  10.707
54073SOL    HW164051   0.351   1.430  10.684
54073SOL    HW264052   0.262   1.312  10.718
54074SOL     OW64053   0.122   4.243   7.705
54074SOL    HW164054   0.048   4.206   7.658
54074SOL    HW264055   0.089   4.327   7.739
54075SOL     OW64056  14.866  12.791   6.870
54075SOL    HW164057  14.864  12.696   6.876
54075SOL    HW264058   0.081  12.814   6.902
54076SOL     OW64059  12.574  11.567   7.819
54076SOL    HW164060  12.645  11.509   7.847
54076SOL    HW264061  12.565  11.549   7.725
54077SOL     OW64062  10.336   0.274   6.723
54077SOL    HW164063  10.246   0.263   6.693
54077SOL    HW264064  10.327   0.319   6.807
54078SOL     OW64065   9.284   5.874   8.147
54078SOL    HW164066   9.331   5.791   8.145
54078SOL    HW264067   9.331   5.930   8.086
54079SOL     OW64068   8.451   0.890   3.871
54079SOL    HW164069   8.467   0.954   3.940
54079SOL    HW264070   8.436   0.807   3.918
54080SOL     OW64071   1.873   0.084  11.720
54080SOL    HW164072   1.936   0.156  11.713
54080SOL    HW264073   1.791   0.126  11.744
54081SOL     OW64074   8.579   3.799   5.253
54081SOL    HW164075   8.518   3.787   5.181
54081SOL    HW264076   8.526   3.788   5.332
54082SOL     OW64077   4.349  10.859   9.889
54082SOL    HW164078   4.286  10.914   9.843
54082SOL    HW264079   4.296  10.787   9.924
54083SOL     OW64080   0.681  11.917   5.724
54083SOL    HW164081   0.777  11.914   5.732
54083SOL    HW264082   0.660  12.010   5.715
54084SOL     OW64083   9.825   6.348   8.890
54084SOL    HW164084   9.901   6.320   8.838
54084SOL    HW264085   9.856   6.425   8.938
54085SOL     OW64086   3.715   7.094   7.174
54085SOL    HW164087   3.796   7.134   7.206
54085SOL    HW264088   3.656   7.168   7.159
54086SOL     OW64089   2.184   1.763   0.200
54086SOL    HW164090   2.088   1.758   0.204
54086SOL    HW264091   2.205   1.851   0.233
54087SOL     OW64092   0.900  11.792   4.851
54087SOL    HW164093   0.920  11.805   4.758
54087SOL    HW264094   0.981  11.757   4.888
54088SOL     OW64095   3.567   3.419   6.956
54088SOL    HW164096   3.506   3.399   6.884
54088SOL    HW264097   3.527   3.378   7.033
54089SOL     OW64098  13.215  11.178  12.487
54089SOL    HW164099  13.232  11.086  12.508
54089SOL    HW264100  13.125  11.193  12.517
54090SOL     OW64101   1.762   6.469   8.193
54090SOL    HW164102   1.766   6.540   8.130
54090SOL    HW264103   1.712   6.504   8.266
54091SOL     OW64104   6.163  10.491  12.595
54091SOL    HW164105   6.104  10.564  12.575
54091SOL    HW264106   6.186  10.504  12.687
54092SOL     OW64107   5.344   6.850  14.056
54092SOL    HW164108   5.428   6.812  14.029
54092SOL    HW264109   5.366   6.940  14.083
54093SOL     OW64110  13.880   6.090   9.960
54093SOL    HW164111  13.843   6.088  10.049
54093SOL    HW264112  13.837   6.018   9.915
54094SOL     OW64113   7.077   1.660   8.680
54094SOL    HW164114   6.983   1.670   8.688
54094SOL    HW264115   7.107   1.638   8.769
54095SOL     OW64116   3.587  13.231   9.735
54095SOL    HW164117   3.528  13.160   9.711
54095SOL    HW264118   3.533  13.293   9.783
54096SOL     OW64119   9.097  14.693   9.513
54096SOL    HW164120   9.030  14.639   9.554
54096SOL    HW264121   9.157  14.630   9.473
54097SOL     OW64122  10.387   0.760  12.809
54097SOL    HW164123  10.450   0.695  12.840
54097SOL    HW264124  10.377   0.820  12.883
54098SOL     OW64125   3.456   8.959   8.555
54098SOL    HW164126   3.376   8.914   8.530
54098SOL    HW264127   3.518   8.940   8.485
54099SOL     OW64128  13.278   3.529  13.032
54099SOL    HW164129  13.293   3.622  13.011
54099SOL    HW264130  13.201   3.505  12.981
54100SOL     OW64131   2.571   2.548   5.370
54100SOL    HW164132   2.656   2.541   5.413
54100SOL    HW264133   2.587   2.606   5.295
54101SOL     OW64134   3.771   3.582   2.656
54101SOL    HW164135   3.842   3.646   2.643
54101SOL    HW264136   3.744   3.558   2.567
54102SOL     OW64137  13.179   9.149   7.648
54102SOL    HW164138  13.168   9.173   7.556
54102SOL    HW264139  13.210   9.058   7.646
54103SOL     OW64140   0.828   4.768   4.386
54103SOL    HW164141   0.763   4.755   4.455
54103SOL    HW264142   0.872   4.850   4.409
54104SOL     OW64143  11.602   8.580   5.775
54104SOL    HW164144  11.507   8.578   5.786
54104SOL    HW264145  11.626   8.672   5.786
54105SOL     OW64146  10.349  10.719  12.468
54105SOL    HW164147  10.276  10.765  12.428
54105SOL    HW264148  10.341  10.629  12.436
54106SOL     OW64149   0.645   7.767  11.020
54106SOL    HW164150   0.592   7.830  11.069
54106SOL    HW264151   0.629   7.683  11.062
54107SOL     OW64152   4.881   8.386   5.184
54107SOL    HW164153   4.829   8.466   5.174
54107SOL    HW264154   4.900   8.359   5.094
54108SOL     OW64155  13.474  14.683  14.820
54108SOL    HW164156  13.536  14.619  14.788
54108SOL    HW264157  13.526  14.743   0.002
54109SOL     OW64158   4.567   6.104   5.100
54109SOL    HW164159   4.549   6.197   5.107
54109SOL    HW264160   4.635   6.097   5.033
54110SOL     OW64161  13.097   4.858   8.959
54110SOL    HW164162  13.155   4.898   8.895
54110SOL    HW264163  13.153   4.801   9.011
54111SOL     OW64164   4.796   6.734  14.421
54111SOL    HW164165   4.867   6.755  14.482
54111SOL    HW264166   4.837   6.678  14.355
54112SOL     OW64167   6.892   2.018   4.296
54112SOL    HW164168   6.808   1.975   4.313
54112SOL    HW264169   6.942   2.003   4.376
54113SOL     OW64170   1.908   3.471  13.420
54113SOL    HW164171   1.828   3.471  13.472
54113SOL    HW264172   1.975   3.507  13.478
54114SOL     OW64173   7.367   1.084   7.255
54114SOL    HW164174   7.446   1.135   7.270
54114SOL    HW264175   7.326   1.126   7.179
54115SOL     OW64176   2.567  11.856  13.727
54115SOL    HW164177   2.651  11.886  13.761
54115SOL    HW264178   2.522  11.936  13.699
54116SOL     OW64179   1.772   0.660  12.786
54116SOL    HW164180   1.846   0.695  12.737
54116SOL    HW264181   1.786   0.565  12.786
54117SOL     OW64182   7.897  11.628   5.290
54117SOL    HW164183   7.981  11.672   5.289
54117SOL    HW264184   7.908  11.552   5.233
54118SOL     OW64185   0.317   5.530   5.872
54118SOL    HW164186   0.321   5.615   5.916
54118SOL    HW264187   0.331   5.466   5.941
54119SOL     OW64188  12.784  14.550   0.919
54119SOL    HW164189  12.718  14.547   0.850
54119SOL    HW264190  12.826  14.636   0.909
54120SOL     OW64191   1.695   2.135   1.954
54120SOL    HW164192   1.688   2.053   2.002
54120SOL    HW264193   1.788   2.143   1.934
54121SOL     OW64194   6.634  11.445   9.528
54121SOL    HW164195   6.563  11.495   9.569
54121SOL    HW264196   6.596  11.359   9.510
54122SOL     OW64197   7.401   1.744  13.787
54122SOL    HW164198   7.322   1.798  13.801
54122SOL    HW264199   7.367   1.660  13.757
54123SOL     OW64200   9.435   4.611  13.387
54123SOL    HW164201   9.427   4.694  13.435
54123SOL    HW264202   9.350   4.568  13.400
54124SOL     OW64203   8.075  12.390   3.668
54124SOL    HW164204   8.148  12.430   3.622
54124SOL    HW264205   8.049  12.316   3.612
54125SOL     OW64206  10.203   7.706   6.989
54125SOL    HW164207  10.158   7.784   6.957
54125SOL    HW264208  10.135   7.640   6.999
54126SOL     OW64209   9.586   9.303   9.525
54126SOL    HW164210   9.601   9.396   9.507
54126SOL    HW264211   9.669   9.261   9.506
54127SOL     OW64212  10.230   6.712  10.445
54127SOL    HW164213  10.194   6.798  10.426
54127SOL    HW264214  10.188   6.653  10.382
54128SOL     OW64215   6.395   2.908   5.687
54128SOL    HW164216   6.337   2.909   5.763
54128SOL    HW264217   6.472   2.957   5.715
54129SOL     OW64218   7.586   3.452   8.199
54129SOL    HW164219   7.584   3.385   8.267
54129SOL    HW264220   7.634   3.411   8.127
54130SOL     OW64221   8.862   4.162   0.070
54130SOL    HW164222   8.902   4.077   0.087
54130SOL    HW264223   8.868   4.174  14.848
54131SOL     OW64224   7.858   3.957   8.353
54131SOL    HW164225   7.833   3.939   8.443
54131SOL    HW264226   7.797   3.906   8.300
54132SOL     OW64227   7.917   7.471   7.011
54132SOL    HW164228   8.006   7.452   7.042
54132SOL    HW264229   7.925   7.556   6.966
54133SOL     OW64230   9.069   1.283   1.832
54133SOL    HW164231   9.042   1.196   1.805
54133SOL    HW264232   9.152   1.270   1.877
54134SOL     OW64233  13.619  11.411  11.878
54134SOL    HW164234  13.641  11.367  11.960
54134SOL    HW264235  13.550  11.357  11.839
54135SOL     OW64236   9.855  11.835   1.614
54135SOL    HW164237   9.797  11.872   1.546
54135SOL    HW264238   9.931  11.892   1.614
54136SOL     OW64239  11.940   7.352   5.082
54136SOL    HW164240  11.993   7.368   5.004
54136SOL    HW264241  12.005   7.338   5.152
54137SOL     OW64242   7.394   8.689   7.127
54137SOL    HW164243   7.442   8.725   7.053
54137SOL    HW264244   7.381   8.597   7.106
54138SOL     OW64245   8.378  11.755   6.163
54138SOL    HW164246   8.349  11.667   6.184
54138SOL    HW264247   8.469  11.759   6.193
54139SOL     OW64248   2.153   1.299   1.093
54139SOL    HW164249   2.203   1.221   1.120
54139SOL    HW264250   2.108   1.273   1.013
54140SOL     OW64251   5.075   2.463  14.851
54140SOL    HW164252   5.025   2.545  14.841
54140SOL    HW264253   5.142   2.483   0.044
54141SOL     OW64254   5.794   6.390  12.499
54141SOL    HW164255   5.728   6.425  12.439
54141SOL    HW264256   5.756   6.402  12.586
54142SOL     OW64257   8.032   3.650   4.995
54142SOL    HW164258   8.019   3.735   5.037
54142SOL    HW264259   8.079   3.598   5.061
54143SOL     OW64260  10.156  13.485  12.144
54143SOL    HW164261  10.090  13.505  12.210
54143SOL    HW264262  10.236  13.467  12.194
54144SOL     OW64263   7.166  10.121   0.782
54144SOL    HW164264   7.251  10.124   0.826
54144SOL    HW264265   7.145  10.213   0.765
54145SOL     OW64266   2.107   4.628   9.494
54145SOL    HW164267   2.098   4.693   9.425
54145SOL    HW264268   2.191   4.648   9.536
54146SOL     OW64269  13.237  10.154   1.161
54146SOL    HW164270  13.179  10.126   1.091
54146SOL    HW264271  13.271  10.073   1.199
54147SOL     OW64272  13.875  10.648  13.756
54147SOL    HW164273  13.855  10.563  13.716
54147SOL    HW264274  13.846  10.639  13.847
54148SOL     OW64275   7.387   9.313   3.532
54148SOL    HW164276   7.450   9.310   3.459
54148SOL    HW264277   7.363   9.405   3.538
54149SOL     OW64278   2.864   8.214   4.567
54149SOL    HW164279   2.943   8.171   4.601
54149SOL    HW264280   2.870   8.202   4.472
54150SOL     OW64281  13.604   5.064  12.651
54150SOL    HW164282  13.658   4.993  12.686
54150SOL    HW264283  13.638   5.078  12.562
54151SOL     OW64284  14.202  13.728   2.148
54151SOL    HW164285  14.230  13.777   2.071
54151SOL    HW264286  14.280  13.722   2.203
54152SOL     OW64287   7.182   0.610   6.628
54152SOL    HW164288   7.228   0.561   6.696
54152SOL    HW264289   7.241   0.682   6.605
54153SOL     OW64290   0.487  13.820  13.237
54153SOL    HW164291   0.576  13.853  13.248
54153SOL    HW264292   0.456  13.863  13.157
54154SOL     OW64293   8.136  13.786   2.476
54154SOL    HW164294   8.161  13.806   2.386
54154SOL    HW264295   8.079  13.859   2.502
54155SOL     OW64296   9.887   3.737  12.888
54155SOL    HW164297   9.961   3.692  12.931
54155SOL    HW264298   9.885   3.823  12.929
54156SOL     OW64299  10.225   5.134   5.777
54156SOL    HW164300  10.198   5.043   5.782
54156SOL    HW264301  10.320   5.132   5.780
54157SOL     OW64302  12.909   3.289   2.346
54157SOL    HW164303  12.999   3.313   2.324
54157SOL    HW264304  12.918   3.206   2.394
54158SOL     OW64305   5.219   6.929   3.742
54158SOL    HW164306   5.309   6.898   3.733
54158SOL    HW264307   5.193   6.955   3.653
54159SOL     OW64308  14.849   9.148  10.574
54159SOL    HW164309   0.019   9.165  10.658
54159SOL    HW264310  14.765   9.109  10.597
54160SOL     OW64311   6.112   8.993  11.782
54160SOL    HW164312   6.100   8.909  11.737
54160SOL    HW264313   6.099   8.973  11.874
54161SOL     OW64314   8.581   6.103   7.594
54161SOL    HW164315   8.571   6.197   7.608
54161SOL    HW264316   8.588   6.093   7.499
54162SOL     OW64317   0.330   7.774   4.637
54162SOL    HW164318   0.316   7.742   4.548
54162SOL    HW264319   0.262   7.730   4.689
54163SOL     OW64320   0.763  11.296   4.168
54163SOL    HW164321   0.823  11.289   4.093
54163SOL    HW264322   0.690  11.347   4.135
54164SOL     OW64323   7.860   9.336   4.661
54164SOL    HW164324   7.934   9.290   4.621
54164SOL    HW264325   7.840   9.408   4.601
54165SOL     OW64326   0.173  10.128   6.977
54165SOL    HW164327   0.255  10.082   6.997
54165SOL    HW264328   0.138  10.082   6.901
54166SOL     OW64329   0.044  12.423  13.421
54166SOL    HW164330   0.067  12.513  13.396
54166SOL    HW264331   0.073  12.370  13.346
54167SOL     OW64332   4.919   9.983   6.237
54167SOL    HW164333   4.889   9.923   6.170
54167SOL    HW264334   5.006  10.010   6.208
54168SOL     OW64335  10.132  11.678   6.674
54168SOL    HW164336  10.157  11.590   6.646
54168SOL    HW264337  10.204  11.734   6.645
54169SOL     OW64338   5.339  12.348   1.051
54169SOL    HW164339   5.268  12.284   1.047
54169SOL    HW264340   5.355  12.372   0.959
54170SOL     OW64341   2.810   5.293   6.840
54170SOL    HW164342   2.768   5.281   6.755
54170SOL    HW264343   2.757   5.240   6.900
54171SOL     OW64344   0.193   7.365   7.099
54171SOL    HW164345   0.254   7.412   7.043
54171SOL    HW264346   0.242   7.346   7.179
54172SOL     OW64347   2.402   5.434   6.112
54172SOL    HW164348   2.349   5.448   6.033
54172SOL    HW264349   2.338   5.410   6.180
54173SOL     OW64350   2.050   7.401   6.237
54173SOL    HW164351   1.954   7.405   6.237
54173SOL    HW264352   2.070   7.308   6.249
54174SOL     OW64353   7.879   8.598  12.943
54174SOL    HW164354   7.866   8.523  13.001
54174SOL    HW264355   7.858   8.674  12.998
54175SOL     OW64356   1.474  11.785   8.282
54175SOL    HW164357   1.533  11.710   8.291
54175SOL    HW264358   1.398  11.763   8.336
54176SOL     OW64359   6.000   8.684  14.255
54176SOL    HW164360   6.057   8.636  14.194
54176SOL    HW264361   5.960   8.616  14.309
54177SOL     OW64362   8.203   4.085  12.206
54177SOL    HW164363   8.112   4.077  12.232
54177SOL    HW264364   8.252   4.081  12.288
54178SOL     OW64365   2.766   4.033  13.554
54178SOL    HW164366   2.773   4.115  13.603
54178SOL    HW264367   2.707   3.979  13.607
54179SOL     OW64368  12.831  12.177   9.828
54179SOL    HW164369  12.916  12.162   9.870
54179SOL    HW264370  12.801  12.261   9.863
54180SOL     OW64371   2.588   9.406  12.885
54180SOL    HW164372   2.639   9.343  12.935
54180SOL    HW264373   2.498   9.375  12.892
54181SOL     OW64374   4.237  10.079   9.902
54181SOL    HW164375   4.176  10.006   9.898
54181SOL    HW264376   4.317  10.044   9.862
54182SOL     OW64377   2.839   1.440  11.867
54182SOL    HW164378   2.924   1.462  11.907
54182SOL    HW264379   2.792   1.524  11.865
54183SOL     OW64380   8.162  10.222   3.429
54183SOL    HW164381   8.112  10.150   3.466
54183SOL    HW264382   8.096  10.286   3.402
54184SOL     OW64383  13.179   6.054   4.106
54184SOL    HW164384  13.204   6.046   4.198
54184SOL    HW264385  13.259   6.081   4.061
54185SOL     OW64386   4.710   9.584   3.279
54185SOL    HW164387   4.680   9.587   3.188
54185SOL    HW264388   4.802   9.609   3.275
54186SOL     OW64389   8.534   7.417   0.303
54186SOL    HW164390   8.607   7.364   0.336
54186SOL    HW264391   8.555   7.506   0.329
54187SOL     OW64392  13.789   6.412   4.906
54187SOL    HW164393  13.814   6.319   4.912
54187SOL    HW264394  13.731   6.416   4.830
54188SOL     OW64395  14.546   2.191  11.335
54188SOL    HW164396  14.547   2.112  11.389
54188SOL    HW264397  14.603   2.170  11.261
54189SOL     OW64398  10.792   0.538   7.683
54189SOL    HW164399  10.836   0.605   7.629
54189SOL    HW264400  10.727   0.588   7.734
54190SOL     OW64401   6.789   6.940   5.279
54190SOL    HW164402   6.767   6.963   5.189
54190SOL    HW264403   6.735   6.999   5.332
54191SOL     OW64404   0.310  14.595  13.241
54191SOL    HW164405   0.217  14.602  13.260
54191SOL    HW264406   0.319  14.514  13.191
54192SOL     OW64407   3.510   5.810  13.074
54192SOL    HW164408   3.419   5.820  13.047
54192SOL    HW264409   3.513   5.844  13.164
54193SOL     OW64410   5.640   6.240  14.218
54193SOL    HW164411   5.669   6.233  14.127
54193SOL    HW264412   5.555   6.196  14.218
54194SOL     OW64413   7.466   3.103   2.133
54194SOL    HW164414   7.412   3.106   2.054
54194SOL    HW264415   7.555   3.086   2.100
54195SOL     OW64416   7.818  10.593  10.394
54195SOL    HW164417   7.773  10.643  10.462
54195SOL    HW264418   7.911  10.610  10.409
54196SOL     OW64419   2.596  10.094  11.854
54196SOL    HW164420   2.686  10.064  11.839
54196SOL    HW264421   2.605  10.187  11.875
54197SOL     OW64422   0.105   8.113   0.710
54197SOL    HW164423   0.048   8.039   0.728
54197SOL    HW264424   0.159   8.085   0.636
54198SOL     OW64425   4.327   7.208  11.517
54198SOL    HW164426   4.340   7.286  11.572
54198SOL    HW264427   4.410   7.196  11.471
54199SOL     OW64428   2.903   2.616  10.041
54199SOL    HW164429   2.902   2.545  10.106
54199SOL    HW264430   2.990   2.656  10.052
54200SOL     OW64431   4.840  12.809   9.893
54200SOL    HW164432   4.871  12.891   9.853
54200SOL    HW264433   4.798  12.837   9.974
54201SOL     OW64434   9.410  11.187  10.519
54201SOL    HW164435   9.352  11.219  10.450
54201SOL    HW264436   9.493  11.170  10.475
54202SOL     OW64437   4.315   4.118   7.266
54202SOL    HW164438   4.245   4.177   7.237
54202SOL    HW264439   4.396   4.166   7.247
54203SOL     OW64440   5.860  13.090   8.376
54203SOL    HW164441   5.890  13.000   8.361
54203SOL    HW264442   5.770  13.079   8.408
54204SOL     OW64443   1.766   7.543  13.638
54204SOL    HW164444   1.685   7.493  13.633
54204SOL    HW264445   1.808   7.531  13.553
54205SOL     OW64446   1.930   1.673   2.043
54205SOL    HW164447   1.841   1.676   2.077
54205SOL    HW264448   1.955   1.765   2.034
54206SOL     OW64449   3.139   3.952   9.417
54206SOL    HW164450   3.216   3.997   9.383
54206SOL    HW264451   3.106   3.901   9.343
54207SOL     OW64452   4.369   8.211   9.569
54207SOL    HW164453   4.330   8.212   9.656
54207SOL    HW264454   4.339   8.292   9.527
54208SOL     OW64455  14.137  14.333  11.725
54208SOL    HW164456  14.081  14.404  11.756
54208SOL    HW264457  14.110  14.257  11.777
54209SOL     OW64458   6.138   8.100   1.889
54209SOL    HW164459   6.055   8.054   1.896
54209SOL    HW264460   6.129   8.155   1.812
54210SOL     OW64461  14.744   1.209   5.705
54210SOL    HW164462  14.781   1.185   5.790
54210SOL    HW264463  14.810   1.267   5.666
54211SOL     OW64464   3.557   3.065  10.025
54211SOL    HW164465   3.557   3.063  10.121
54211SOL    HW264466   3.506   3.142  10.003
54212SOL     OW64467   6.576  12.771   2.457
54212SOL    HW164468   6.551  12.814   2.538
54212SOL    HW264469   6.642  12.829   2.418
54213SOL     OW64470   7.366   4.701  12.334
54213SOL    HW164471   7.368   4.631  12.270
54213SOL    HW264472   7.320   4.663  12.410
54214SOL     OW64473   4.379  11.602  11.893
54214SOL    HW164474   4.294  11.614  11.851
54214SOL    HW264475   4.365  11.630  11.983
54215SOL     OW64476  11.605  12.724   1.686
54215SOL    HW164477  11.685  12.766   1.654
54215SOL    HW264478  11.603  12.746   1.780
54216SOL     OW64479   0.159   2.011   2.951
54216SOL    HW164480   0.091   1.948   2.974
54216SOL    HW264481   0.222   1.961   2.899
54217SOL     OW64482   7.180   1.133   0.612
54217SOL    HW164483   7.269   1.149   0.581
54217SOL    HW264484   7.169   1.038   0.606
54218SOL     OW64485   7.818   2.205  10.704
54218SOL    HW164486   7.799   2.116  10.675
54218SOL    HW264487   7.746   2.228  10.762
54219SOL     OW64488  12.904   8.184   1.224
54219SOL    HW164489  12.988   8.227   1.235
54219SOL    HW264490  12.839   8.250   1.250
54220SOL     OW64491  11.888   8.384   8.282
54220SOL    HW164492  11.914   8.424   8.365
54220SOL    HW264493  11.932   8.299   8.282
54221SOL     OW64494  11.909   6.578   4.234
54221SOL    HW164495  11.995   6.564   4.274
54221SOL    HW264496  11.847   6.536   4.293
54222SOL     OW64497   9.317  11.415   8.866
54222SOL    HW164498   9.286  11.502   8.843
54222SOL    HW264499   9.309  11.412   8.962
54223SOL     OW64500   6.811   6.110   3.122
54223SOL    HW164501   6.805   6.193   3.077
54223SOL    HW264502   6.744   6.115   3.190
54224SOL     OW64503  10.885   2.637   6.988
54224SOL    HW164504  10.863   2.730   6.989
54224SOL    HW264505  10.896   2.614   7.080
54225SOL     OW64506   2.744   9.780  13.537
54225SOL    HW164507   2.834   9.750  13.549
54225SOL    HW264508   2.694   9.701  13.517
54226SOL     OW64509   4.363   7.500   8.206
54226SOL    HW164510   4.317   7.416   8.215
54226SOL    HW264511   4.449   7.477   8.171
54227SOL     OW64512  14.577   8.750   6.650
54227SOL    HW164513  14.606   8.784   6.565
54227SOL    HW264514  14.649   8.770   6.710
54228SOL     OW64515  13.786   8.721  14.096
54228SOL    HW164516  13.803   8.627  14.103
54228SOL    HW264517  13.832   8.748  14.017
54229SOL     OW64518  13.495   4.119  14.403
54229SOL    HW164519  13.557   4.094  14.471
54229SOL    HW264520  13.420   4.155  14.452
54230SOL     OW64521   5.508   0.755   3.485
54230SOL    HW164522   5.544   0.698   3.417
54230SOL    HW264523   5.494   0.697   3.560
54231SOL     OW64524   7.607   2.588   8.669
54231SOL    HW164525   7.536   2.550   8.721
54231SOL    HW264526   7.659   2.513   8.641
54232SOL     OW64527  11.814   7.647   1.957
54232SOL    HW164528  11.860   7.730   1.945
54232SOL    HW264529  11.817   7.631   2.051
54233SOL     OW64530   6.537   1.278   6.068
54233SOL    HW164531   6.552   1.355   6.122
54233SOL    HW264532   6.560   1.305   5.979
54234SOL     OW64533   0.878  13.588  13.749
54234SOL    HW164534   0.845  13.506  13.784
54234SOL    HW264535   0.800  13.640  13.729
54235SOL     OW64536  11.530   4.704   2.639
54235SOL    HW164537  11.555   4.740   2.724
54235SOL    HW264538  11.484   4.623   2.659
54236SOL     OW64539   2.031   4.619   4.097
54236SOL    HW164540   2.087   4.543   4.108
54236SOL    HW264541   2.067   4.665   4.021
54237SOL     OW64542  14.391   8.749   5.550
54237SOL    HW164543  14.478   8.726   5.519
54237SOL    HW264544  14.362   8.820   5.493
54238SOL     OW64545  10.771   5.289  13.738
54238SOL    HW164546  10.779   5.329  13.651
54238SOL    HW264547  10.861   5.279  13.768
54239SOL     OW64548   6.563  13.937   0.698
54239SOL    HW164549   6.505  13.917   0.625
54239SOL    HW264550   6.642  13.886   0.682
54240SOL     OW64551   5.764   6.954  13.135
54240SOL    HW164552   5.701   7.009  13.091
54240SOL    HW264553   5.770   6.989  13.224
54241SOL     OW64554  11.846  13.048  13.630
54241SOL    HW164555  11.922  13.002  13.595
54241SOL    HW264556  11.842  13.130  13.579
54242SOL     OW64557  12.828  10.337   5.262
54242SOL    HW164558  12.876  10.357   5.342
54242SOL    HW264559  12.743  10.305   5.292
54243SOL     OW64560   3.648  13.196  13.526
54243SOL    HW164561   3.634  13.289  13.512
54243SOL    HW264562   3.685  13.189  13.614
54244SOL     OW64563   8.289   0.290   7.728
54244SOL    HW164564   8.272   0.384   7.723
54244SOL    HW264565   8.208   0.249   7.698
54245SOL     OW64566  11.297  14.465   2.214
54245SOL    HW164567  11.264  14.554   2.227
54245SOL    HW264568  11.355  14.471   2.138
54246SOL     OW64569   6.813  10.625  10.709
54246SOL    HW164570   6.769  10.708  10.693
54246SOL    HW264571   6.781  10.597  10.795
54247SOL     OW64572   3.922   3.061   0.713
54247SOL    HW164573   3.885   3.068   0.624
54247SOL    HW264574   3.912   3.149   0.750
54248SOL     OW64575   0.769   7.750   5.616
54248SOL    HW164576   0.842   7.748   5.554
54248SOL    HW264577   0.708   7.813   5.579
54249SOL     OW64578   3.783   3.425   1.000
54249SOL    HW164579   3.810   3.396   0.914
54249SOL    HW264580   3.687   3.430   0.995
54250SOL     OW64581  14.056  12.008   4.347
54250SOL    HW164582  13.979  12.061   4.366
54250SOL    HW264583  14.073  12.021   4.254
54251SOL     OW64584  14.088   7.953   3.467
54251SOL    HW164585  14.106   8.033   3.417
54251SOL    HW264586  13.999   7.964   3.499
54252SOL     OW64587   3.650  11.502  14.304
54252SOL    HW164588   3.649  11.455  14.221
54252SOL    HW264589   3.639  11.434  14.370
54253SOL     OW64590   7.877   5.396  12.271
54253SOL    HW164591   7.954   5.413  12.325
54253SOL    HW264592   7.912   5.360  12.190
54254SOL     OW64593   1.929   4.660   7.890
54254SOL    HW164594   1.837   4.638   7.883
54254SOL    HW264595   1.940   4.691   7.980
54255SOL     OW64596   4.395   4.289   3.086
54255SOL    HW164597   4.455   4.312   3.157
54255SOL    HW264598   4.320   4.346   3.099
54256SOL     OW64599   0.273   9.353   0.149
54256SOL    HW164600   0.179   9.369   0.149
54256SOL    HW264601   0.300   9.367   0.240
54257SOL     OW64602   4.285  13.518   5.220
54257SOL    HW164603   4.255  13.429   5.202
54257SOL    HW264604   4.212  13.574   5.192
54258SOL     OW64605  12.673  13.991   9.288
54258SOL    HW164606  12.632  13.905   9.277
54258SOL    HW264607  12.602  14.054   9.273
54259SOL     OW64608   0.765  14.254   8.870
54259SOL    HW164609   0.726  14.260   8.957
54259SOL    HW264610   0.859  14.249   8.887
54260SOL     OW64611  10.592   1.686  13.813
54260SOL    HW164612  10.602   1.781  13.802
54260SOL    HW264613  10.512   1.676  13.865
54261SOL     OW64614  14.255   7.583  13.786
54261SOL    HW164615  14.296   7.584  13.872
54261SOL    HW264616  14.326   7.608  13.726
54262SOL     OW64617   0.037   7.233   5.787
54262SOL    HW164618   0.005   7.189   5.708
54262SOL    HW264619   0.130   7.247   5.771
54263SOL     OW64620   9.632   2.837  11.196
54263SOL    HW164621   9.654   2.864  11.285
54263SOL    HW264622   9.605   2.918  11.153
54264SOL     OW64623  13.130  12.952   3.847
54264SOL    HW164624  13.185  12.962   3.769
54264SOL    HW264625  13.103  13.041   3.869
54265SOL     OW64626  11.728   2.905   3.136
54265SOL    HW164627  11.797   2.845   3.104
54265SOL    HW264628  11.659   2.847   3.167
54266SOL     OW64629  12.725   8.364  12.970
54266SOL    HW164630  12.817   8.382  12.949
54266SOL    HW264631  12.689   8.324  12.891
54267SOL     OW64632   4.531  12.062  13.208
54267SOL    HW164633   4.594  12.037  13.275
54267SOL    HW264634   4.584  12.079  13.130
54268SOL     OW64635  11.099  11.495   6.294
54268SOL    HW164636  11.137  11.577   6.264
54268SOL    HW264637  11.006  11.502   6.272
54269SOL     OW64638   4.307   1.946   6.877
54269SOL    HW164639   4.270   1.937   6.965
54269SOL    HW264640   4.295   1.860   6.836
54270SOL     OW64641   0.953   2.464   9.217
54270SOL    HW164642   0.947   2.532   9.150
54270SOL    HW264643   1.044   2.468   9.247
54271SOL     OW64644   1.969   0.178   4.143
54271SOL    HW164645   2.041   0.210   4.198
54271SOL    HW264646   1.901   0.152   4.205
54272SOL     OW64647   9.207   6.730   5.340
54272SOL    HW164648   9.120   6.693   5.323
54272SOL    HW264649   9.267   6.656   5.333
54273SOL     OW64650   9.339   0.114  13.510
54273SOL    HW164651   9.418   0.168  13.517
54273SOL    HW264652   9.271   0.175  13.481
54274SOL     OW64653   8.318   2.301   0.295
54274SOL    HW164654   8.326   2.248   0.374
54274SOL    HW264655   8.365   2.251   0.228
54275SOL     OW64656   8.337  10.103   5.669
54275SOL    HW164657   8.262  10.044   5.670
54275SOL    HW264658   8.351  10.125   5.761
54276SOL     OW64659   1.111   0.546   6.887
54276SOL    HW164660   1.076   0.603   6.954
54276SOL    HW264661   1.204   0.537   6.909
54277SOL     OW64662   1.010   2.623   9.658
54277SOL    HW164663   1.041   2.596   9.744
54277SOL    HW264664   0.950   2.553   9.632
54278SOL     OW64665   8.784   1.324   6.155
54278SOL    HW164666   8.869   1.280   6.160
54278SOL    HW264667   8.790   1.379   6.077
54279SOL     OW64668   1.720   7.950  11.202
54279SOL    HW164669   1.791   7.965  11.139
54279SOL    HW264670   1.754   7.986  11.284
54280SOL     OW64671  13.686   2.437   4.197
54280SOL    HW164672  13.747   2.392   4.256
54280SOL    HW264673  13.702   2.397   4.111
54281SOL     OW64674   3.763   5.816   3.691
54281SOL    HW164675   3.792   5.873   3.762
54281SOL    HW264676   3.772   5.870   3.612
54282SOL     OW64677  10.667   0.476   0.634
54282SOL    HW164678  10.719   0.405   0.598
54282SOL    HW264679  10.673   0.465   0.729
54283SOL     OW64680   7.324   3.073   9.471
54283SOL    HW164681   7.276   2.997   9.437
54283SOL    HW264682   7.366   3.042   9.551
54284SOL     OW64683   6.606   4.968   5.953
54284SOL    HW164684   6.643   5.055   5.970
54284SOL    HW264685   6.670   4.907   5.991
54285SOL     OW64686  10.154   2.941   8.119
54285SOL    HW164687  10.095   2.871   8.092
54285SOL    HW264688  10.107   3.022   8.098
54286SOL     OW64689   4.387  14.776   7.013
54286SOL    HW164690   4.363  14.848   7.071
54286SOL    HW264691   4.424  14.818   6.935
54287SOL     OW64692   9.780   7.545   4.804
54287SOL    HW164693   9.847   7.483   4.774
54287SOL    HW264694   9.780   7.614   4.738
54288SOL     OW64695   7.800   7.126   1.544
54288SOL    HW164696   7.842   7.121   1.458
54288SOL    HW264697   7.759   7.212   1.547
54289SOL     OW64698  11.513   0.618   5.193
54289SOL    HW164699  11.571   0.594   5.265
54289SOL    HW264700  11.549   0.700   5.159
54290SOL     OW64701  14.760   1.118   3.410
54290SOL    HW164702  14.768   1.027   3.438
54290SOL    HW264703  14.673   1.146   3.440
54291SOL     OW64704   2.212  14.508   0.770
54291SOL    HW164705   2.200  14.475   0.859
54291SOL    HW264706   2.125  14.503   0.730
54292SOL     OW64707   4.301   3.134  13.633
54292SOL    HW164708   4.356   3.078  13.578
54292SOL    HW264709   4.287   3.212  13.580
54293SOL     OW64710  11.877   3.719   4.691
54293SOL    HW164711  11.859   3.778   4.764
54293SOL    HW264712  11.790   3.695   4.658
54294SOL     OW64713  12.657   5.143   1.138
54294SOL    HW164714  12.685   5.081   1.206
54294SOL    HW264715  12.638   5.087   1.062
54295SOL     OW64716   0.667   0.613   0.188
54295SOL    HW164717   0.696   0.571   0.107
54295SOL    HW264718   0.641   0.541   0.245
54296SOL     OW64719   0.763  13.619  13.429
54296SOL    HW164720   0.722  13.697  13.392
54296SOL    HW264721   0.691  13.561  13.451
54297SOL     OW64722  14.722  10.231  11.132
54297SOL    HW164723  14.779  10.247  11.207
54297SOL    HW264724  14.729  10.310  11.079
54298SOL     OW64725   5.831  14.299   8.519
54298SOL    HW164726   5.775  14.235   8.563
54298SOL    HW264727   5.906  14.248   8.488
54299SOL     OW64728   4.751  11.258   7.024
54299SOL    HW164729   4.797  11.180   6.993
54299SOL    HW264730   4.779  11.267   7.116
54300SOL     OW64731  13.190  14.358   6.452
54300SOL    HW164732  13.101  14.325   6.465
54300SOL    HW264733  13.194  14.437   6.507
54301SOL     OW64734  12.263  14.050   5.609
54301SOL    HW164735  12.359  14.049   5.607
54301SOL    HW264736  12.241  14.058   5.702
54302SOL     OW64737   8.540   6.501   6.904
54302SOL    HW164738   8.622   6.542   6.932
54302SOL    HW264739   8.505   6.561   6.838
54303SOL     OW64740   6.542  11.867  12.056
54303SOL    HW164741   6.633  11.890  12.075
54303SOL    HW264742   6.527  11.900  11.967
54304SOL     OW64743   7.928   9.447   1.975
54304SOL    HW164744   7.962   9.400   2.051
54304SOL    HW264745   7.858   9.391   1.941
54305SOL     OW64746   4.844   0.501   4.753
54305SOL    HW164747   4.855   0.594   4.735
54305SOL    HW264748   4.816   0.496   4.844
54306SOL     OW64749   5.791   0.854   9.099
54306SOL    HW164750   5.815   0.899   9.019
54306SOL    HW264751   5.748   0.774   9.070
54307SOL     OW64752   9.667   9.540  11.139
54307SOL    HW164753   9.604   9.604  11.105
54307SOL    HW264754   9.753   9.580  11.125
54308SOL     OW64755  14.240  12.463   6.811
54308SOL    HW164756  14.316  12.481   6.866
54308SOL    HW264757  14.199  12.549   6.799
54309SOL     OW64758  12.727   3.471   4.801
54309SOL    HW164759  12.683   3.455   4.884
54309SOL    HW264760  12.803   3.414   4.803
54310SOL     OW64761   9.462  13.209  12.236
54310SOL    HW164762   9.420  13.275  12.292
54310SOL    HW264763   9.546  13.192  12.277
54311SOL     OW64764  12.307  13.637   6.393
54311SOL    HW164765  12.323  13.728   6.369
54311SOL    HW264766  12.314  13.589   6.310
54312SOL     OW64767   0.767  11.632  13.814
54312SOL    HW164768   0.854  11.595  13.800
54312SOL    HW264769   0.783  11.719  13.851
54313SOL     OW64770   1.509   3.336  14.191
54313SOL    HW164771   1.572   3.361  14.124
54313SOL    HW264772   1.477   3.419  14.227
54314SOL     OW64773  11.963   6.102   0.143
54314SOL    HW164774  11.884   6.133   0.097
54314SOL    HW264775  12.034   6.153   0.105
54315SOL     OW64776  12.273   8.662  10.182
54315SOL    HW164777  12.279   8.753  10.210
54315SOL    HW264778  12.180   8.642  10.181
54316SOL     OW64779   1.009   6.049  12.549
54316SOL    HW164780   0.916   6.039  12.528
54316SOL    HW264781   1.051   6.062  12.464
54317SOL     OW64782   2.676   9.791   9.817
54317SOL    HW164783   2.746   9.821   9.875
54317SOL    HW264784   2.604   9.768   9.876
54318SOL     OW64785   7.275   3.439   9.101
54318SOL    HW164786   7.209   3.412   9.164
54318SOL    HW264787   7.225   3.470   9.026
54319SOL     OW64788   8.471   3.914   6.479
54319SOL    HW164789   8.544   3.971   6.505
54319SOL    HW264790   8.406   3.973   6.443
54320SOL     OW64791  13.402   6.782   6.385
54320SOL    HW164792  13.466   6.714   6.406
54320SOL    HW264793  13.337   6.738   6.330
54321SOL     OW64794   8.398   7.556   1.114
54321SOL    HW164795   8.418   7.469   1.148
54321SOL    HW264796   8.442   7.560   1.030
54322SOL     OW64797   8.337   6.096  13.140
54322SOL    HW164798   8.312   6.103  13.232
54322SOL    HW264799   8.422   6.053  13.141
54323SOL     OW64800   8.335  12.875   2.670
54323SOL    HW164801   8.392  12.934   2.621
54323SOL    HW264802   8.296  12.930   2.738
54324SOL     OW64803   9.709  11.349  10.781
54324SOL    HW164804   9.742  11.272  10.735
54324SOL    HW264805   9.619  11.358  10.751
54325SOL     OW64806  14.562   1.339   8.997
54325SOL    HW164807  14.613   1.414   9.028
54325SOL    HW264808  14.606   1.263   9.037
54326SOL     OW64809  11.729   4.487   3.648
54326SOL    HW164810  11.670   4.561   3.660
54326SOL    HW264811  11.726   4.469   3.554
54327SOL     OW64812   7.633   7.326   2.617
54327SOL    HW164813   7.540   7.310   2.600
54327SOL    HW264814   7.644   7.420   2.602
54328SOL     OW64815  10.522  12.745   4.144
54328SOL    HW164816  10.611  12.710   4.151
54328SOL    HW264817  10.522  12.824   4.199
54329SOL     OW64818   5.851  12.421  11.152
54329SOL    HW164819   5.816  12.482  11.217
54329SOL    HW264820   5.844  12.467  11.069
54330SOL     OW64821  14.241  12.665   0.929
54330SOL    HW164822  14.314  12.610   0.958
54330SOL    HW264823  14.199  12.693   1.010
54331SOL     OW64824   1.742   4.968   3.956
54331SOL    HW164825   1.817   5.020   3.927
54331SOL    HW264826   1.759   4.953   4.049
54332SOL     OW64827   1.716  11.363   8.410
54332SOL    HW164828   1.751  11.369   8.321
54332SOL    HW264829   1.637  11.418   8.409
54333SOL     OW64830   2.880   9.634   9.921
54333SOL    HW164831   2.813   9.637   9.853
54333SOL    HW264832   2.951   9.582   9.883
54334SOL     OW64833   4.684   4.532   9.883
54334SOL    HW164834   4.642   4.617   9.893
54334SOL    HW264835   4.756   4.534   9.946
54335SOL     OW64836  12.353   5.800  13.751
54335SOL    HW164837  12.259   5.810  13.767
54335SOL    HW264838  12.394   5.876  13.792
54336SOL     OW64839  13.259   3.588   1.943
54336SOL    HW164840  13.321   3.652   1.977
54336SOL    HW264841  13.292   3.504   1.974
54337SOL     OW64842   2.037  14.165  14.663
54337SOL    HW164843   2.046  14.245  14.611
54337SOL    HW264844   2.126  14.142  14.687
54338SOL     OW64845   1.316   5.071   9.249
54338SOL    HW164846   1.328   5.095   9.341
54338SOL    HW264847   1.371   5.133   9.201
54339SOL     OW64848  10.540   1.502   8.858
54339SOL    HW164849  10.489   1.566   8.809
54339SOL    HW264850  10.527   1.419   8.811
54340SOL     OW64851  11.748   9.594   1.873
54340SOL    HW164852  11.788   9.507   1.875
54340SOL    HW264853  11.752   9.619   1.781
54341SOL     OW64854   1.166   4.451   5.101
54341SOL    HW164855   1.085   4.410   5.072
54341SOL    HW264856   1.210   4.384   5.153
54342SOL     OW64857   7.109   5.691   9.746
54342SOL    HW164858   7.140   5.609   9.709
54342SOL    HW264859   7.155   5.759   9.696
54343SOL     OW64860  10.289  12.545   8.530
54343SOL    HW164861  10.341  12.466   8.516
54343SOL    HW264862  10.347  12.605   8.577
54344SOL     OW64863   7.193   9.098  13.815
54344SOL    HW164864   7.182   9.110  13.721
54344SOL    HW264865   7.261   9.160  13.840
54345SOL     OW64866  10.897   0.385   2.772
54345SOL    HW164867  10.950   0.314   2.807
54345SOL    HW264868  10.881   0.443   2.846
54346SOL     OW64869  13.024   0.142   0.798
54346SOL    HW164870  13.013   0.122   0.704
54346SOL    HW264871  13.099   0.200   0.801
54347SOL     OW64872  14.852  11.385   7.755
54347SOL    HW164873   0.011  11.463   7.801
54347SOL    HW264874  14.760  11.403   7.737
54348SOL     OW64875   3.065  11.457  12.216
54348SOL    HW164876   3.147  11.484  12.175
54348SOL    HW264877   3.090  11.385  12.274
54349SOL     OW64878   7.091   9.464   1.782
54349SOL    HW164879   6.999   9.440   1.770
54349SOL    HW264880   7.128   9.463   1.694
54350SOL     OW64881  11.652   4.320   2.199
54350SOL    HW164882  11.588   4.277   2.141
54350SOL    HW264883  11.734   4.318   2.150
54351SOL     OW64884   0.341  13.643   9.217
54351SOL    HW164885   0.282  13.590   9.164
54351SOL    HW264886   0.379  13.706   9.156
54352SOL     OW64887   0.443   7.572   8.442
54352SOL    HW164888   0.460   7.479   8.427
54352SOL    HW264889   0.504   7.597   8.511
54353SOL     OW64890  13.647   1.474  11.892
54353SOL    HW164891  13.683   1.396  11.851
54353SOL    HW264892  13.552   1.461  11.889
54354SOL     OW64893   7.817  12.475   0.385
54354SOL    HW164894   7.846  12.440   0.469
54354SOL    HW264895   7.883  12.445   0.322
54355SOL     OW64896  10.257   1.303  12.534
54355SOL    HW164897  10.274   1.209  12.527
54355SOL    HW264898  10.166   1.309  12.563
54356SOL     OW64899  10.915  12.920  11.309
54356SOL    HW164900  10.880  12.998  11.353
54356SOL    HW264901  10.861  12.912  11.230
54357SOL     OW64902   5.094   1.485   9.388
54357SOL    HW164903   5.164   1.478   9.323
54357SOL    HW264904   5.135   1.527   9.463
54358SOL     OW64905   2.389   5.161  13.717
54358SOL    HW164906   2.410   5.247  13.681
54358SOL    HW264907   2.330   5.180  13.790
54359SOL     OW64908   9.894   1.079   7.044
54359SOL    HW164909   9.895   1.090   7.139
54359SOL    HW264910   9.879   1.168   7.010
54360SOL     OW64911   6.459  10.949   1.395
54360SOL    HW164912   6.451  10.893   1.472
54360SOL    HW264913   6.442  10.889   1.321
54361SOL     OW64914   3.326   4.964   4.246
54361SOL    HW164915   3.258   4.944   4.181
54361SOL    HW264916   3.277   4.979   4.327
54362SOL     OW64917  12.504   2.729  10.013
54362SOL    HW164918  12.460   2.644  10.017
54362SOL    HW264919  12.434   2.791   9.989
54363SOL     OW64920  11.696  10.530  13.910
54363SOL    HW164921  11.711  10.459  13.848
54363SOL    HW264922  11.601  10.546  13.905
54364SOL     OW64923   2.527   8.170   0.652
54364SOL    HW164924   2.557   8.261   0.650
54364SOL    HW264925   2.542   8.142   0.742
54365SOL     OW64926   4.695   9.485   1.711
54365SOL    HW164927   4.789   9.466   1.706
54365SOL    HW264928   4.687   9.547   1.782
54366SOL     OW64929  14.386  14.465  14.076
54366SOL    HW164930  14.360  14.454  14.168
54366SOL    HW264931  14.467  14.514  14.079
54367SOL     OW64932   7.883   9.566  11.490
54367SOL    HW164933   7.875   9.526  11.577
54367SOL    HW264934   7.861   9.495  11.429
54368SOL     OW64935  10.623   8.977   7.572
54368SOL    HW164936  10.602   9.069   7.588
54368SOL    HW264937  10.666   8.976   7.487
54369SOL     OW64938   2.850   8.995   4.699
54369SOL    HW164939   2.886   9.050   4.769
54369SOL    HW264940   2.761   9.027   4.688
54370SOL     OW64941   0.046  13.853   0.207
54370SOL    HW164942   0.033  13.891   0.293
54370SOL    HW264943   0.124  13.897   0.173
54371SOL     OW64944  11.065  10.289   2.100
54371SOL    HW164945  11.107  10.351   2.040
54371SOL    HW264946  11.011  10.344   2.158
54372SOL     OW64947   3.863   7.445   1.692
54372SOL    HW164948   3.805   7.373   1.716
54372SOL    HW264949   3.805   7.522   1.692
54373SOL     OW64950  13.056   6.701   7.521
54373SOL    HW164951  13.132   6.643   7.516
54373SOL    HW264952  12.987   6.655   7.474
54374SOL     OW64953   6.935   1.683   5.365
54374SOL    HW164954   6.946   1.705   5.458
54374SOL    HW264955   6.879   1.753   5.331
54375SOL     OW64956   6.106  12.018   0.915
54375SOL    HW164957   6.183  12.004   0.860
54375SOL    HW264958   6.140  12.064   0.992
54376SOL     OW64959   1.557  12.916   8.110
54376SOL    HW164960   1.543  12.822   8.109
54376SOL    HW264961   1.483  12.950   8.161
54377SOL     OW64962   0.946  12.705  11.539
54377SOL    HW164963   0.939  12.646  11.464
54377SOL    HW264964   0.896  12.783  11.513
54378SOL     OW64965  11.564   8.528   6.901
54378SOL    HW164966  11.498   8.597   6.913
54378SOL    HW264967  11.641   8.573   6.868
54379SOL     OW64968   1.226   2.999   5.866
54379SOL    HW164969   1.287   2.928   5.846
54379SOL    HW264970   1.161   2.996   5.796
54380SOL     OW64971   8.993   7.269  14.818
54380SOL    HW164972   8.988   7.365  14.820
54380SOL    HW264973   8.904   7.241  14.797
54381SOL     OW64974  11.710  14.182   4.049
54381SOL    HW164975  11.645  14.217   4.109
54381SOL    HW264976  11.683  14.091   4.035
54382SOL     OW64977  14.741   5.479  10.410
54382SOL    HW164978  14.670   5.535  10.378
54382SOL    HW264979  14.729   5.396  10.363
54383SOL     OW64980   8.797   2.273   6.547
54383SOL    HW164981   8.707   2.272   6.579
54383SOL    HW264982   8.850   2.292   6.624
54384SOL     OW64983   5.538  11.115  12.905
54384SOL    HW164984   5.468  11.062  12.944
54384SOL    HW264985   5.617  11.062  12.915
54385SOL     OW64986   1.526   3.120  12.016
54385SOL    HW164987   1.490   3.164  12.093
54385SOL    HW264988   1.546   3.031  12.046
54386SOL     OW64989  13.092   3.207   1.839
54386SOL    HW164990  13.053   3.123   1.863
54386SOL    HW264991  13.140   3.234   1.918
54387SOL     OW64992  11.425  12.798   1.205
54387SOL    HW164993  11.517  12.826   1.209
54387SOL    HW264994  11.393  12.809   1.294
54388SOL     OW64995  13.988   3.822   9.801
54388SOL    HW164996  13.925   3.765   9.845
54388SOL    HW264997  14.050   3.847   9.869
54389SOL     OW64998   9.984   1.373   3.657
54389SOL    HW164999  10.040   1.411   3.590
54389SOL    HW265000   9.934   1.448   3.692
54390SOL     OW65001   0.083   9.532  13.649
54390SOL    HW165002   0.139   9.502  13.721
54390SOL    HW265003   0.035   9.453  13.622
54391SOL     OW65004   0.282  14.550   8.772
54391SOL    HW165005   0.218  14.541   8.843
54391SOL    HW265006   0.362  14.580   8.815
54392SOL     OW65007  14.180   6.328   8.609
54392SOL    HW165008  14.247   6.274   8.567
54392SOL    HW265009  14.220   6.414   8.619
54393SOL     OW65010   9.174   4.802   7.734
54393SOL    HW165011   9.098   4.842   7.777
54393SOL    HW265012   9.250   4.837   7.782
54394SOL     OW65013   8.174  11.544   4.730
54394SOL    HW165014   8.155  11.490   4.653
54394SOL    HW265015   8.227  11.488   4.786
54395SOL     OW65016   1.630  12.196   6.446
54395SOL    HW165017   1.649  12.270   6.389
54395SOL    HW265018   1.599  12.127   6.387
54396SOL     OW65019  11.600   9.595   6.405
54396SOL    HW165020  11.510   9.619   6.381
54396SOL    HW265021  11.605   9.501   6.387
54397SOL     OW65022   3.996   0.334  11.659
54397SOL    HW165023   3.945   0.285  11.594
54397SOL    HW265024   4.040   0.402  11.609
54398SOL     OW65025   4.147   5.072   1.098
54398SOL    HW165026   4.180   5.159   1.115
54398SOL    HW265027   4.225   5.017   1.091
54399SOL     OW65028   2.912   6.658   4.702
54399SOL    HW165029   2.957   6.580   4.735
54399SOL    HW265030   2.880   6.702   4.781
54400SOL     OW65031  13.975  14.665   9.957
54400SOL    HW165032  13.958  14.599   9.890
54400SOL    HW265033  13.976  14.616  10.039
54401SOL     OW65034  10.582  13.653   1.920
54401SOL    HW165035  10.486  13.653   1.926
54401SOL    HW265036  10.611  13.623   2.007
54402SOL     OW65037   1.616   0.601   1.366
54402SOL    HW165038   1.704   0.593   1.329
54402SOL    HW265039   1.598   0.695   1.365
54403SOL     OW65040  12.329   6.580   4.603
54403SOL    HW165041  12.276   6.575   4.683
54403SOL    HW265042  12.419   6.587   4.634
54404SOL     OW65043   8.870   0.424   9.850
54404SOL    HW165044   8.925   0.376   9.788
54404SOL    HW265045   8.918   0.505   9.868
54405SOL     OW65046   4.319  11.689   0.181
54405SOL    HW165047   4.363  11.769   0.212
54405SOL    HW265048   4.337  11.686   0.087
54406SOL     OW65049   5.507  11.233   0.862
54406SOL    HW165050   5.431  11.279   0.826
54406SOL    HW265051   5.575  11.300   0.868
54407SOL     OW65052  14.554  13.406  10.763
54407SOL    HW165053  14.557  13.336  10.829
54407SOL    HW265054  14.621  13.468  10.792
54408SOL     OW65055   5.117   2.752   5.967
54408SOL    HW165056   5.150   2.833   6.007
54408SOL    HW265057   5.102   2.775   5.875
54409SOL     OW65058   2.166   9.323   0.818
54409SOL    HW165059   2.073   9.332   0.796
54409SOL    HW265060   2.202   9.268   0.748
54410SOL     OW65061  11.261  10.710   9.129
54410SOL    HW165062  11.200  10.684   9.197
54410SOL    HW265063  11.310  10.631   9.108
54411SOL     OW65064   0.542  13.213  10.869
54411SOL    HW165065   0.635  13.192  10.860
54411SOL    HW265066   0.537  13.307  10.852
54412SOL     OW65067   1.790   8.265   0.222
54412SOL    HW165068   1.756   8.187   0.265
54412SOL    HW265069   1.851   8.303   0.286
54413SOL     OW65070   0.643   6.709   8.181
54413SOL    HW165071   0.600   6.776   8.234
54413SOL    HW265072   0.722   6.752   8.148
54414SOL     OW65073   2.930   9.322   8.056
54414SOL    HW165074   2.836   9.332   8.044
54414SOL    HW265075   2.939   9.239   8.103
54415SOL     OW65076  14.003  14.684  14.483
54415SOL    HW165077  14.072  14.750  14.475
54415SOL    HW265078  14.000  14.666  14.577
54416SOL     OW65079   7.648   6.632   7.014
54416SOL    HW165080   7.733   6.589   7.018
54416SOL    HW265081   7.658   6.711   7.066
54417SOL     OW65082   3.304  11.270  10.212
54417SOL    HW165083   3.356  11.205  10.166
54417SOL    HW265084   3.366  11.314  10.270
54418SOL     OW65085   2.685  11.589   6.059
54418SOL    HW165086   2.706  11.682   6.071
54418SOL    HW265087   2.614  11.589   5.995
54419SOL     OW65088  10.249   3.676  12.828
54419SOL    HW165089  10.210   3.757  12.796
54419SOL    HW265090  10.226   3.674  12.921
54420SOL     OW65091  10.307   3.361  13.634
54420SOL    HW165092  10.402   3.370  13.649
54420SOL    HW265093  10.272   3.447  13.658
54421SOL     OW65094   4.212  14.302  13.383
54421SOL    HW165095   4.238  14.278  13.472
54421SOL    HW265096   4.177  14.390  13.391
54422SOL     OW65097   3.243  13.019   1.482
54422SOL    HW165098   3.319  13.070   1.452
54422SOL    HW265099   3.230  13.046   1.573
54423SOL     OW65100   7.124   7.511   8.559
54423SOL    HW165101   7.206   7.560   8.559
54423SOL    HW265102   7.061   7.570   8.519
54424SOL     OW65103  13.982   9.736   7.218
54424SOL    HW165104  14.075   9.716   7.218
54424SOL    HW265105  13.940   9.654   7.190
54425SOL     OW65106   9.473   9.662  14.852
54425SOL    HW165107   9.508   9.591  14.798
54425SOL    HW265108   9.427   9.719  14.789
54426SOL     OW65109   0.536   6.937  10.959
54426SOL    HW165110   0.502   6.889  10.883
54426SOL    HW265111   0.466   6.933  11.024
54427SOL     OW65112   8.645  14.540   4.408
54427SOL    HW165113   8.711  14.606   4.390
54427SOL    HW265114   8.683  14.486   4.477
54428SOL     OW65115  12.943  10.333   3.587
54428SOL    HW165116  12.888  10.386   3.529
54428SOL    HW265117  13.032  10.360   3.567
54429SOL     OW65118   4.939   7.211  10.150
54429SOL    HW165119   4.953   7.260  10.231
54429SOL    HW265120   4.979   7.126  10.166
54430SOL     OW65121  13.785  12.016   9.152
54430SOL    HW165122  13.857  12.043   9.209
54430SOL    HW265123  13.735  11.953   9.204
54431SOL     OW65124  12.059  12.945   1.440
54431SOL    HW165125  12.098  13.005   1.503
54431SOL    HW265126  12.128  12.928   1.376
54432SOL     OW65127  12.059   7.053   9.735
54432SOL    HW165128  11.988   7.034   9.796
54432SOL    HW265129  12.084   6.968   9.699
54433SOL     OW65130  12.940   1.365   0.294
54433SOL    HW165131  12.861   1.408   0.261
54433SOL    HW265132  12.928   1.272   0.273
54434SOL     OW65133  12.916   3.328  10.696
54434SOL    HW165134  12.824   3.346  10.674
54434SOL    HW265135  12.955   3.297  10.614
54435SOL     OW65136   6.349   5.843   9.720
54435SOL    HW165137   6.356   5.762   9.669
54435SOL    HW265138   6.280   5.893   9.676
54436SOL     OW65139  13.164  13.762   8.274
54436SOL    HW165140  13.221  13.831   8.240
54436SOL    HW265141  13.078  13.780   8.235
54437SOL     OW65142   7.005   4.629   5.204
54437SOL    HW165143   7.084   4.659   5.159
54437SOL    HW265144   7.001   4.681   5.284
54438SOL     OW65145  11.353   2.914   7.946
54438SOL    HW165146  11.421   2.910   7.879
54438SOL    HW265147  11.339   2.823   7.972
54439SOL     OW65148   3.131   5.371   5.028
54439SOL    HW165149   3.159   5.423   5.104
54439SOL    HW265150   3.200   5.382   4.963
54440SOL     OW65151   0.034  12.827   1.764
54440SOL    HW165152  14.845  12.893   1.730
54440SOL    HW265153   0.016  12.823   1.857
54441SOL     OW65154   7.252   0.641   8.322
54441SOL    HW165155   7.339   0.610   8.348
54441SOL    HW265156   7.254   0.638   8.226
54442SOL     OW65157   7.624   5.823   0.019
54442SOL    HW165158   7.688   5.860  14.831
54442SOL    HW265159   7.539   5.833  14.847
54443SOL     OW65160   6.753   1.084   0.126
54443SOL    HW165161   6.750   1.118   0.215
54443SOL    HW265162   6.678   1.024   0.121
54444SOL     OW65163  11.415   7.942   4.749
54444SOL    HW165164  11.364   8.016   4.782
54444SOL    HW265165  11.504   7.976   4.743
54445SOL     OW65166  10.180   1.634   8.687
54445SOL    HW165167  10.131   1.672   8.613
54445SOL    HW265168  10.127   1.656   8.764
54446SOL     OW65169  11.642  11.277   2.495
54446SOL    HW165170  11.686  11.298   2.412
54446SOL    HW265171  11.603  11.190   2.480
54447SOL     OW65172   8.554   1.424   5.524
54447SOL    HW165173   8.633   1.372   5.513
54447SOL    HW265174   8.566   1.469   5.607
54448SOL     OW65175   5.972  14.088  11.610
54448SOL    HW165176   6.052  14.064  11.563
54448SOL    HW265177   5.902  14.041  11.565
54449SOL     OW65178   0.476  13.146  12.016
54449SOL    HW165179   0.536  13.217  12.038
54449SOL    HW265180   0.433  13.177  11.936
54450SOL     OW65181   1.934   9.012  10.336
54450SOL    HW165182   1.904   9.097  10.367
54450SOL    HW265183   2.023   9.028  10.304
54451SOL     OW65184   8.350   1.191   9.715
54451SOL    HW165185   8.269   1.181   9.764
54451SOL    HW265186   8.386   1.102   9.710
54452SOL     OW65187  12.802   0.950   1.146
54452SOL    HW165188  12.789   0.889   1.073
54452SOL    HW265189  12.807   0.895   1.224
54453SOL     OW65190  10.901   2.568   8.276
54453SOL    HW165191  10.829   2.528   8.326
54453SOL    HW265192  10.971   2.579   8.341
54454SOL     OW65193  12.426  11.470   7.999
54454SOL    HW165194  12.478  11.511   7.930
54454SOL    HW265195  12.345  11.521   8.002
54455SOL     OW65196   2.066   0.228  13.349
54455SOL    HW165197   1.971   0.224  13.343
54455SOL    HW265198   2.087   0.321  13.340
54456SOL     OW65199  14.697   8.084  14.375
54456SOL    HW165200  14.630   8.026  14.338
54456SOL    HW265201  14.665   8.106  14.462
54457SOL     OW65202   3.030   3.751   9.264
54457SOL    HW165203   2.935   3.740   9.255
54457SOL    HW265204   3.057   3.676   9.317
54458SOL     OW65205  12.313   0.516   1.778
54458SOL    HW165206  12.349   0.430   1.755
54458SOL    HW265207  12.219   0.507   1.764
54459SOL     OW65208   9.146  11.546   5.912
54459SOL    HW165209   9.149  11.630   5.958
54459SOL    HW265210   9.104  11.566   5.828
54460SOL     OW65211   9.417  13.415   7.453
54460SOL    HW165212   9.378  13.468   7.522
54460SOL    HW265213   9.488  13.367   7.496
54461SOL     OW65214  11.801   0.354  14.660
54461SOL    HW165215  11.821   0.390  14.747
54461SOL    HW265216  11.712   0.383  14.643
54462SOL     OW65217   6.839   4.715   8.407
54462SOL    HW165218   6.909   4.696   8.345
54462SOL    HW265219   6.763   4.667   8.372
54463SOL     OW65220   0.244  10.055   6.087
54463SOL    HW165221   0.200  10.074   6.169
54463SOL    HW265222   0.329  10.099   6.093
54464SOL     OW65223   2.504   1.140  11.859
54464SOL    HW165224   2.481   1.229  11.883
54464SOL    HW265225   2.438   1.114  11.794
54465SOL     OW65226   0.428  10.275   5.172
54465SOL    HW165227   0.499  10.339   5.164
54465SOL    HW265228   0.466  10.203   5.223
54466SOL     OW65229   7.928   3.251   3.732
54466SOL    HW165230   7.915   3.247   3.827
54466SOL    HW265231   7.843   3.226   3.696
54467SOL     OW65232  13.811  10.785  13.416
54467SOL    HW165233  13.876  10.823  13.475
54467SOL    HW265234  13.863  10.750  13.343
54468SOL     OW65235   2.363  10.896   3.563
54468SOL    HW165236   2.388  10.983   3.594
54468SOL    HW265237   2.274  10.907   3.530
54469SOL     OW65238   8.592   8.840  11.671
54469SOL    HW165239   8.557   8.824  11.583
54469SOL    HW265240   8.676   8.883  11.656
54470SOL     OW65241   1.739  10.771  11.240
54470SOL    HW165242   1.834  10.755  11.236
54470SOL    HW265243   1.712  10.732  11.322
54471SOL     OW65244   7.934   9.686   5.614
54471SOL    HW165245   7.997   9.755   5.591
54471SOL    HW265246   7.891   9.718   5.694
54472SOL     OW65247  11.618   9.214  11.602
54472SOL    HW165248  11.591   9.181  11.688
54472SOL    HW265249  11.538   9.212  11.550
54473SOL     OW65250   5.044   9.913   9.097
54473SOL    HW165251   4.974   9.960   9.052
54473SOL    HW265252   5.049   9.955   9.183
54474SOL     OW65253  14.489   6.578   9.602
54474SOL    HW165254  14.420   6.522   9.638
54474SOL    HW265255  14.457   6.667   9.617
54475SOL     OW65256  14.251  12.631   1.426
54475SOL    HW165257  14.160  12.601   1.426
54475SOL    HW265258  14.255  12.694   1.498
54476SOL     OW65259  10.672  14.814  13.061
54476SOL    HW165260  10.758  14.816  13.019
54476SOL    HW265261  10.616  14.869  13.006
54477SOL     OW65262  10.928   7.585  10.534
54477SOL    HW165263  10.902   7.677  10.533
54477SOL    HW265264  10.999   7.579  10.471
54478SOL     OW65265   5.072   4.358   0.091
54478SOL    HW165266   5.103   4.434   0.041
54478SOL    HW265267   4.982   4.345   0.061
54479SOL     OW65268   5.554   7.293  10.066
54479SOL    HW165269   5.473   7.242  10.063
54479SOL    HW265270   5.607   7.249  10.132
54480SOL     OW65271  14.805  10.416   5.482
54480SOL    HW165272  14.744  10.358   5.529
54480SOL    HW265273   0.016  10.369   5.484
54481SOL     OW65274  13.502   1.702   5.170
54481SOL    HW165275  13.418   1.699   5.125
54481SOL    HW265276  13.554   1.765   5.121
54482SOL     OW65277  11.882   6.909  13.185
54482SOL    HW165278  11.867   6.848  13.257
54482SOL    HW265279  11.811   6.890  13.123
54483SOL     OW65280   3.738   4.628   1.773
54483SOL    HW165281   3.693   4.643   1.857
54483SOL    HW265282   3.812   4.689   1.775
54484SOL     OW65283   6.248  12.686   2.555
54484SOL    HW165284   6.189  12.621   2.517
54484SOL    HW265285   6.191  12.741   2.609
54485SOL     OW65286  10.829  13.843   7.300
54485SOL    HW165287  10.883  13.911   7.260
54485SOL    HW265288  10.890  13.791   7.352
54486SOL     OW65289  10.978   7.651   7.287
54486SOL    HW165290  10.911   7.602   7.239
54486SOL    HW265291  10.941   7.738   7.300
54487SOL     OW65292   5.134  10.437   5.194
54487SOL    HW165293   5.197  10.509   5.191
54487SOL    HW265294   5.099  10.433   5.105
54488SOL     OW65295   1.955  11.038  10.439
54488SOL    HW165296   1.879  11.081  10.400
54488SOL    HW265297   1.934  11.030  10.532
54489SOL     OW65298  13.049  14.116   4.018
54489SOL    HW165299  12.990  14.062   4.071
54489SOL    HW265300  13.083  14.056   3.951
54490SOL     OW65301   9.888   3.165  13.097
54490SOL    HW165302   9.917   3.233  13.037
54490SOL    HW265303   9.946   3.091  13.080
54491SOL     OW65304   6.387  13.310   9.702
54491SOL    HW165305   6.425  13.302   9.790
54491SOL    HW265306   6.332  13.387   9.707
54492SOL     OW65307   3.404  13.015  13.683
54492SOL    HW165308   3.395  13.040  13.591
54492SOL    HW265309   3.477  12.953  13.684
54493SOL     OW65310   3.386   7.985  13.754
54493SOL    HW165311   3.367   7.954  13.843
54493SOL    HW265312   3.302   8.012  13.719
54494SOL     OW65313   5.844   5.995  14.476
54494SOL    HW165314   5.777   5.981  14.410
54494SOL    HW265315   5.847   6.090  14.487
54495SOL     OW65316  14.254   2.500   1.106
54495SOL    HW165317  14.215   2.448   1.176
54495SOL    HW265318  14.256   2.441   1.030
54496SOL     OW65319   9.014   3.363   5.601
54496SOL    HW165320   9.072   3.294   5.569
54496SOL    HW265321   9.008   3.426   5.529
54497SOL     OW65322  13.390   2.655  14.640
54497SOL    HW165323  13.340   2.710  14.580
54497SOL    HW265324  13.363   2.566  14.620
54498SOL     OW65325  11.352  12.185  10.657
54498SOL    HW165326  11.304  12.104  10.641
54498SOL    HW265327  11.442  12.157  10.670
54499SOL     OW65328   5.591  10.136   2.696
54499SOL    HW165329   5.535  10.071   2.655
54499SOL    HW265330   5.562  10.220   2.659
54500SOL     OW65331   9.467  13.225  12.809
54500SOL    HW165332   9.491  13.146  12.857
54500SOL    HW265333   9.425  13.193  12.729
54501SOL     OW65334  12.742  14.498   1.644
54501SOL    HW165335  12.695  14.422   1.610
54501SOL    HW265336  12.675  14.550   1.688
54502SOL     OW65337   5.467   7.324  14.769
54502SOL    HW165338   5.454   7.235  14.802
54502SOL    HW265339   5.379   7.358  14.755
54503SOL     OW65340   3.109   7.957   4.216
54503SOL    HW165341   3.099   7.985   4.125
54503SOL    HW265342   3.199   7.981   4.239
54504SOL     OW65343   8.127   9.333  14.539
54504SOL    HW165344   8.075   9.279  14.480
54504SOL    HW265345   8.154   9.408  14.486
54505SOL     OW65346  10.113   6.290  13.652
54505SOL    HW165347  10.114   6.200  13.619
54505SOL    HW265348  10.057   6.338  13.590
54506SOL     OW65349   4.490   2.545   2.646
54506SOL    HW165350   4.495   2.533   2.741
54506SOL    HW265351   4.503   2.457   2.610
54507SOL     OW65352  10.346  13.449   6.175
54507SOL    HW165353  10.294  13.478   6.100
54507SOL    HW265354  10.287  13.458   6.250
54508SOL     OW65355  12.730  14.386  11.999
54508SOL    HW165356  12.816  14.372  11.960
54508SOL    HW265357  12.741  14.464  12.053
54509SOL     OW65358   5.804   7.441   8.655
54509SOL    HW165359   5.808   7.360   8.605
54509SOL    HW265360   5.885   7.487   8.634
54510SOL     OW65361   2.999   9.348  10.324
54510SOL    HW165362   2.923   9.370  10.270
54510SOL    HW265363   3.010   9.254  10.313
54511SOL     OW65364   7.763   3.527  11.723
54511SOL    HW165365   7.854   3.532  11.693
54511SOL    HW265366   7.767   3.480  11.806
54512SOL     OW65367   9.451   9.672  10.992
54512SOL    HW165368   9.504   9.721  10.929
54512SOL    HW265369   9.366   9.660  10.949
54513SOL     OW65370   1.395   2.855  14.740
54513SOL    HW165371   1.416   2.948  14.733
54513SOL    HW265372   1.299   2.851  14.740
54514SOL     OW65373  14.808   3.411   5.880
54514SOL    HW165374  14.826   3.497   5.841
54514SOL    HW265375  14.716   3.393   5.858
54515SOL     OW65376   3.991   7.489  11.648
54515SOL    HW165377   3.937   7.561  11.677
54515SOL    HW265378   3.930   7.426  11.610
54516SOL     OW65379   1.897   3.637  11.006
54516SOL    HW165380   1.865   3.609  11.092
54516SOL    HW265381   1.992   3.645  11.017
54517SOL     OW65382   5.518   7.167  13.048
54517SOL    HW165383   5.437   7.176  13.098
54517SOL    HW265384   5.494   7.190  12.958
54518SOL     OW65385   4.949   5.237   9.667
54518SOL    HW165386   4.889   5.309   9.649
54518SOL    HW265387   4.968   5.199   9.581
54519SOL     OW65388  12.041  14.798   0.526
54519SOL    HW165389  12.062  14.706   0.513
54519SOL    HW265390  12.110  14.845   0.479
54520SOL     OW65391   2.495   3.246  14.366
54520SOL    HW165392   2.510   3.200  14.283
54520SOL    HW265393   2.442   3.186  14.418
54521SOL     OW65394   8.762  10.837   1.848
54521SOL    HW165395   8.805  10.779   1.785
54521SOL    HW265396   8.707  10.779   1.900
54522SOL     OW65397  11.468   9.167  10.486
54522SOL    HW165398  11.554   9.146  10.521
54522SOL    HW265399  11.466   9.262  10.482
54523SOL     OW65400   6.503   7.153   3.384
54523SOL    HW165401   6.598   7.149   3.370
54523SOL    HW265402   6.482   7.072   3.431
54524SOL     OW65403   9.531  11.801   4.138
54524SOL    HW165404   9.571  11.793   4.052
54524SOL    HW265405   9.513  11.711   4.165
54525SOL     OW65406  14.814   7.299   2.262
54525SOL    HW165407  14.777   7.269   2.346
54525SOL    HW265408  14.748   7.358   2.226
54526SOL     OW65409  14.567   4.381   7.395
54526SOL    HW165410  14.594   4.472   7.388
54526SOL    HW265411  14.642   4.337   7.437
54527SOL     OW65412  11.726  10.495   8.065
54527SOL    HW165413  11.689  10.437   8.131
54527SOL    HW265414  11.787  10.440   8.016
54528SOL     OW65415   6.700  12.528  12.534
54528SOL    HW165416   6.650  12.598  12.576
54528SOL    HW265417   6.661  12.519  12.447
54529SOL     OW65418   8.481   0.782  11.108
54529SOL    HW165419   8.434   0.866  11.110
54529SOL    HW265420   8.466   0.748  11.020
54530SOL     OW65421   8.644  13.028  14.586
54530SOL    HW165422   8.638  12.949  14.639
54530SOL    HW265423   8.709  13.007  14.519
54531SOL     OW65424   9.412  13.770  12.758
54531SOL    HW165425   9.379  13.852  12.723
54531SOL    HW265426   9.458  13.729  12.685
54532SOL     OW65427  10.187   1.424  13.286
54532SOL    HW165428  10.225   1.494  13.339
54532SOL    HW265429  10.172   1.464  13.201
54533SOL     OW65430   2.330   9.258   0.390
54533SOL    HW165431   2.283   9.235   0.471
54533SOL    HW265432   2.398   9.319   0.417
54534SOL     OW65433   1.548   3.843  10.249
54534SOL    HW165434   1.550   3.904  10.176
54534SOL    HW265435   1.530   3.758  10.209
54535SOL     OW65436  14.723   9.373   4.669
54535SOL    HW165437  14.765   9.309   4.727
54535SOL    HW265438  14.630   9.350   4.672
54536SOL     OW65439   3.754  14.218   1.893
54536SOL    HW165440   3.687  14.150   1.900
54536SOL    HW265441   3.707  14.296   1.864
54537SOL     OW65442  10.842   1.786   0.088
54537SOL    HW165443  10.796   1.865   0.115
54537SOL    HW265444  10.925   1.788   0.135
54538SOL     OW65445   8.987   6.595  14.212
54538SOL    HW165446   8.961   6.570  14.301
54538SOL    HW265447   9.076   6.630  14.222
54539SOL     OW65448   0.010   3.745  12.685
54539SOL    HW165449   0.101   3.752  12.657
54539SOL    HW265450  14.831   3.767  12.606
54540SOL     OW65451   1.219   1.981   3.210
54540SOL    HW165452   1.202   2.015   3.123
54540SOL    HW265453   1.139   2.000   3.260
54541SOL     OW65454   5.759   8.162   7.456
54541SOL    HW165455   5.769   8.077   7.413
54541SOL    HW265456   5.844   8.205   7.446
54542SOL     OW65457  11.886   7.673   8.857
54542SOL    HW165458  11.911   7.606   8.920
54542SOL    HW265459  11.847   7.742   8.910
54543SOL     OW65460   4.629   2.211   3.316
54543SOL    HW165461   4.590   2.134   3.274
54543SOL    HW265462   4.586   2.218   3.400
54544SOL     OW65463  12.645   4.006   1.281
54544SOL    HW165464  12.655   4.038   1.370
54544SOL    HW265465  12.560   3.961   1.281
54545SOL     OW65466  11.493   4.156   6.494
54545SOL    HW165467  11.552   4.080   6.495
54545SOL    HW265468  11.408   4.121   6.522
54546SOL     OW65469   0.899  14.459  12.057
54546SOL    HW165470   0.917  14.541  12.012
54546SOL    HW265471   0.977  14.443  12.110
54547SOL     OW65472   1.101  12.549   6.552
54547SOL    HW165473   1.076  12.615   6.617
54547SOL    HW265474   1.142  12.480   6.604
54548SOL     OW65475   5.764   4.719   2.561
54548SOL    HW165476   5.805   4.795   2.602
54548SOL    HW265477   5.686   4.755   2.517
54549SOL     OW65478  12.815   7.953   1.194
54549SOL    HW165479  12.839   8.041   1.220
54549SOL    HW265480  12.877   7.929   1.126
54550SOL     OW65481   4.142  10.300   3.864
54550SOL    HW165482   4.217  10.243   3.884
54550SOL    HW265483   4.069  10.240   3.853
54551SOL     OW65484   4.855   4.577   6.201
54551SOL    HW165485   4.761   4.579   6.222
54551SOL    HW265486   4.859   4.606   6.110
54552SOL     OW65487   7.117   4.617  10.955
54552SOL    HW165488   7.095   4.595  11.045
54552SOL    HW265489   7.200   4.572  10.938
54553SOL     OW65490  12.483  10.149  10.063
54553SOL    HW165491  12.413  10.139  10.127
54553SOL    HW265492  12.452  10.102   9.986
54554SOL     OW65493  11.667   8.434   0.059
54554SOL    HW165494  11.725   8.500   0.097
54554SOL    HW265495  11.599   8.422   0.125
54555SOL     OW65496   9.287   2.114   1.920
54555SOL    HW165497   9.342   2.091   1.845
54555SOL    HW265498   9.313   2.204   1.942
54556SOL     OW65499   0.891   7.194   3.837
54556SOL    HW165500   0.960   7.135   3.867
54556SOL    HW265501   0.840   7.142   3.775
54557SOL     OW65502   2.032  14.375   7.637
54557SOL    HW165503   2.015  14.409   7.550
54557SOL    HW265504   2.060  14.451   7.688
54558SOL     OW65505   0.978   1.555   7.512
54558SOL    HW165506   1.021   1.540   7.428
54558SOL    HW265507   1.048   1.586   7.569
54559SOL     OW65508   8.650   1.780  14.170
54559SOL    HW165509   8.728   1.726  14.181
54559SOL    HW265510   8.680   1.869  14.186
54560SOL     OW65511  14.403   3.114  12.524
54560SOL    HW165512  14.350   3.118  12.603
54560SOL    HW265513  14.412   3.020  12.505
54561SOL     OW65514   3.897   6.140   1.623
54561SOL    HW165515   3.927   6.140   1.532
54561SOL    HW265516   3.920   6.227   1.656
54562SOL     OW65517   5.429  12.714   4.565
54562SOL    HW165518   5.351  12.701   4.511
54562SOL    HW265519   5.443  12.809   4.563
54563SOL     OW65520   9.298   9.067   0.008
54563SOL    HW165521   9.290   9.076   0.103
54563SOL    HW265522   9.360   8.995  14.867
54564SOL     OW65523   2.448  11.223  10.951
54564SOL    HW165524   2.482  11.154  10.894
54564SOL    HW265525   2.513  11.230  11.021
54565SOL     OW65526   0.561   1.033   2.352
54565SOL    HW165527   0.597   0.953   2.391
54565SOL    HW265528   0.470   1.034   2.379
54566SOL     OW65529  10.510  13.555  14.350
54566SOL    HW165530  10.509  13.488  14.418
54566SOL    HW265531  10.533  13.635  14.395
54567SOL     OW65532  13.122  12.997   8.148
54567SOL    HW165533  13.049  12.944   8.178
54567SOL    HW265534  13.091  13.088   8.154
54568SOL     OW65535   9.246   7.719  14.189
54568SOL    HW165536   9.328   7.724  14.140
54568SOL    HW265537   9.189   7.664  14.135
54569SOL     OW65538   9.589   9.687  10.498
54569SOL    HW165539   9.671   9.686  10.448
54569SOL    HW265540   9.605   9.750  10.568
54570SOL     OW65541   2.869   6.724   1.690
54570SOL    HW165542   2.795   6.679   1.732
54570SOL    HW265543   2.926   6.654   1.659
54571SOL     OW65544   0.353   7.077  14.592
54571SOL    HW165545   0.263   7.082  14.559
54571SOL    HW265546   0.403   7.132  14.532
54572SOL     OW65547  13.518   8.095   3.101
54572SOL    HW165548  13.431   8.101   3.139
54572SOL    HW265549  13.509   8.132   3.013
54573SOL     OW65550  13.713   3.670   0.431
54573SOL    HW165551  13.777   3.688   0.499
54573SOL    HW265552  13.745   3.591   0.387
54574SOL     OW65553  12.060   7.632   7.385
54574SOL    HW165554  12.111   7.684   7.324
54574SOL    HW265555  12.014   7.696   7.439
54575SOL     OW65556   3.594   1.342   0.671
54575SOL    HW165557   3.680   1.307   0.693
54575SOL    HW265558   3.611   1.410   0.606
54576SOL     OW65559   9.493   7.467  13.641
54576SOL    HW165560   9.445   7.549  13.628
54576SOL    HW265561   9.471   7.414  13.565
54577SOL     OW65562   5.090  12.473  11.548
54577SOL    HW165563   5.136  12.393  11.522
54577SOL    HW265564   5.037  12.497  11.472
54578SOL     OW65565  12.039   2.084   0.498
54578SOL    HW165566  12.048   2.166   0.547
54578SOL    HW265567  12.030   2.017   0.566
54579SOL     OW65568  12.632   8.268  13.487
54579SOL    HW165569  12.691   8.237  13.418
54579SOL    HW265570  12.560   8.204  13.486
54580SOL     OW65571   6.196   1.305   5.534
54580SOL    HW165572   6.201   1.325   5.628
54580SOL    HW265573   6.146   1.224   5.529
54581SOL     OW65574   1.072  12.823   1.810
54581SOL    HW165575   1.010  12.872   1.755
54581SOL    HW265576   1.041  12.732   1.806
54582SOL     OW65577   1.866  12.483  11.021
54582SOL    HW165578   1.869  12.451  11.111
54582SOL    HW265579   1.887  12.407  10.968
54583SOL     OW65580   4.850   0.853   1.007
54583SOL    HW165581   4.814   0.926   1.056
54583SOL    HW265582   4.936   0.838   1.046
54584SOL     OW65583   9.164   1.443   4.123
54584SOL    HW165584   9.103   1.406   4.059
54584SOL    HW265585   9.193   1.368   4.175
54585SOL     OW65586  13.544   6.447  11.741
54585SOL    HW165587  13.548   6.505  11.817
54585SOL    HW265588  13.502   6.500  11.673
54586SOL     OW65589   4.122   6.144  12.186
54586SOL    HW165590   4.181   6.073  12.210
54586SOL    HW265591   4.101   6.128  12.094
54587SOL     OW65592  13.536   5.343   6.502
54587SOL    HW165593  13.461   5.364   6.558
54587SOL    HW265594  13.610   5.341   6.562
54588SOL     OW65595  12.704   7.740  12.022
54588SOL    HW165596  12.769   7.811  12.024
54588SOL    HW265597  12.681   7.726  12.114
54589SOL     OW65598  10.754   2.824   1.237
54589SOL    HW165599  10.758   2.775   1.156
54589SOL    HW265600  10.759   2.916   1.210
54590SOL     OW65601  12.878   1.836   0.683
54590SOL    HW165602  12.793   1.835   0.638
54590SOL    HW265603  12.914   1.748   0.670
54591SOL     OW65604  10.101   0.724  10.015
54591SOL    HW165605  10.069   0.640   9.982
54591SOL    HW265606  10.126   0.706  10.105
54592SOL     OW65607   2.483  11.131   7.496
54592SOL    HW165608   2.434  11.209   7.470
54592SOL    HW265609   2.572  11.163   7.511
54593SOL     OW65610   6.477   4.799   7.973
54593SOL    HW165611   6.501   4.721   7.922
54593SOL    HW265612   6.444   4.860   7.908
54594SOL     OW65613   6.442  12.530   4.719
54594SOL    HW165614   6.528  12.533   4.762
54594SOL    HW265615   6.379  12.544   4.790
54595SOL     OW65616   6.799   2.815   2.004
54595SOL    HW165617   6.871   2.767   2.045
54595SOL    HW265618   6.790   2.894   2.058
54596SOL     OW65619  13.760   5.555   9.368
54596SOL    HW165620  13.729   5.574   9.456
54596SOL    HW265621  13.710   5.613   9.311
54597SOL     OW65622  13.114  10.683   8.319
54597SOL    HW165623  13.127  10.739   8.395
54597SOL    HW265624  13.171  10.607   8.335
54598SOL     OW65625   2.502   2.378   4.382
54598SOL    HW165626   2.530   2.390   4.291
54598SOL    HW265627   2.576   2.337   4.425
54599SOL     OW65628   7.377   1.241  13.853
54599SOL    HW165629   7.325   1.161  13.859
54599SOL    HW265630   7.451   1.217  13.796
54600SOL     OW65631   6.921  11.031  13.925
54600SOL    HW165632   6.901  10.978  14.002
54600SOL    HW265633   6.905  10.973  13.851
54601SOL     OW65634   4.034  13.150   4.423
54601SOL    HW165635   3.968  13.135   4.355
54601SOL    HW265636   4.116  13.121   4.383
54602SOL     OW65637   3.632   0.524  10.396
54602SOL    HW165638   3.561   0.481  10.443
54602SOL    HW265639   3.687   0.451  10.366
54603SOL     OW65640   3.214   2.190   4.994
54603SOL    HW165641   3.279   2.158   4.931
54603SOL    HW265642   3.133   2.197   4.944
54604SOL     OW65643   2.479  11.187   4.889
54604SOL    HW165644   2.464  11.274   4.854
54604SOL    HW265645   2.426  11.184   4.969
54605SOL     OW65646   0.711  11.391  14.203
54605SOL    HW165647   0.672  11.478  14.197
54605SOL    HW265648   0.712  11.371  14.296
54606SOL     OW65649   8.539   9.401   8.904
54606SOL    HW165650   8.565   9.356   8.985
54606SOL    HW265651   8.596   9.478   8.901
54607SOL     OW65652   7.688  10.700   1.350
54607SOL    HW165653   7.746  10.647   1.295
54607SOL    HW265654   7.696  10.661   1.438
54608SOL     OW65655   8.260  12.054   1.397
54608SOL    HW165656   8.177  12.093   1.425
54608SOL    HW265657   8.244  12.023   1.308
54609SOL     OW65658   6.988   4.682  11.594
54609SOL    HW165659   6.896   4.663  11.574
54609SOL    HW265660   7.029   4.596  11.601
54610SOL     OW65661  14.294   8.268  11.011
54610SOL    HW165662  14.261   8.292  10.924
54610SOL    HW265663  14.240   8.195  11.038
54611SOL     OW65664   0.205   0.638   1.428
54611SOL    HW165665   0.132   0.633   1.367
54611SOL    HW265666   0.266   0.699   1.388
54612SOL     OW65667  13.728   1.511  14.796
54612SOL    HW165668  13.824   1.510  14.792
54612SOL    HW265669  13.701   1.458  14.721
54613SOL     OW65670  12.113   7.040   3.183
54613SOL    HW165671  12.196   7.071   3.147
54613SOL    HW265672  12.046   7.086   3.133
54614SOL     OW65673  12.374   9.199   0.712
54614SOL    HW165674  12.432   9.181   0.638
54614SOL    HW265675  12.384   9.123   0.769
54615SOL     OW65676   9.973   5.451   6.006
54615SOL    HW165677   9.989   5.368   5.961
54615SOL    HW265678   9.882   5.446   6.035
54616SOL     OW65679  14.443   8.733   2.284
54616SOL    HW165680  14.523   8.684   2.300
54616SOL    HW265681  14.458   8.819   2.323
54617SOL     OW65682   1.825   9.940   0.609
54617SOL    HW165683   1.755   9.874   0.611
54617SOL    HW265684   1.810   9.987   0.527
54618SOL     OW65685  14.483   7.049   7.134
54618SOL    HW165686  14.396   7.054   7.173
54618SOL    HW265687  14.535   7.112   7.183
54619SOL     OW65688   2.550   4.768   1.013
54619SOL    HW165689   2.522   4.708   0.943
54619SOL    HW265690   2.629   4.810   0.978
54620SOL     OW65691   3.745   2.040   8.958
54620SOL    HW165692   3.815   2.035   9.023
54620SOL    HW265693   3.790   2.059   8.875
54621SOL     OW65694   5.814  10.393   0.607
54621SOL    HW165695   5.874  10.337   0.559
54621SOL    HW265696   5.745  10.334   0.637
54622SOL     OW65697   1.877   7.244   7.218
54622SOL    HW165698   1.899   7.331   7.251
54622SOL    HW265699   1.886   7.251   7.123
54623SOL     OW65700   8.149   5.510   6.918
54623SOL    HW165701   8.156   5.581   6.981
54623SOL    HW265702   8.088   5.543   6.852
54624SOL     OW65703   5.404  10.329   5.033
54624SOL    HW165704   5.446  10.251   4.997
54624SOL    HW265705   5.374  10.301   5.120
54625SOL     OW65706   3.620   6.842  14.110
54625SOL    HW165707   3.526   6.825  14.113
54625SOL    HW265708   3.653   6.782  14.043
54626SOL     OW65709  10.381  11.215   4.611
54626SOL    HW165710  10.437  11.292   4.602
54626SOL    HW265711  10.408  11.156   4.540
54627SOL     OW65712   9.690   3.959  11.830
54627SOL    HW165713   9.628   3.959  11.756
54627SOL    HW265714   9.679   3.872  11.869
54628SOL     OW65715  11.051   7.496   7.779
54628SOL    HW165716  10.982   7.436   7.751
54628SOL    HW265717  11.032   7.513   7.871
54629SOL     OW65718   0.727   1.606   1.910
54629SOL    HW165719   0.637   1.601   1.878
54629SOL    HW265720   0.731   1.542   1.981
54630SOL     OW65721   1.160   5.674   8.368
54630SOL    HW165722   1.187   5.582   8.359
54630SOL    HW265723   1.214   5.707   8.439
54631SOL     OW65724   5.577  13.250  14.327
54631SOL    HW165725   5.484  13.259  14.305
54631SOL    HW265726   5.577  13.208  14.413
54632SOL     OW65727   0.919   9.361  11.212
54632SOL    HW165728   0.926   9.448  11.173
54632SOL    HW265729   0.839   9.324  11.174
54633SOL     OW65730   1.854   5.935  12.465
54633SOL    HW165731   1.899   5.853  12.449
54633SOL    HW265732   1.799   5.948  12.388
54634SOL     OW65733  12.474   0.157   1.007
54634SOL    HW165734  12.526   0.086   1.043
54634SOL    HW265735  12.482   0.147   0.912
54635SOL     OW65736   6.835  13.080  14.187
54635SOL    HW165737   6.792  13.150  14.139
54635SOL    HW265738   6.860  13.016  14.120
54636SOL     OW65739   4.451  12.996   9.121
54636SOL    HW165740   4.514  13.025   9.187
54636SOL    HW265741   4.467  12.902   9.112
54637SOL     OW65742   7.555   9.325   2.131
54637SOL    HW165743   7.528   9.367   2.213
54637SOL    HW265744   7.521   9.383   2.062
54638SOL     OW65745   7.033   9.027   6.146
54638SOL    HW165746   7.002   9.117   6.136
54638SOL    HW265747   7.127   9.036   6.162
54639SOL     OW65748   1.481  11.048   9.129
54639SOL    HW165749   1.547  11.054   9.198
54639SOL    HW265750   1.512  10.979   9.072
54640SOL     OW65751   3.634   9.242   0.518
54640SOL    HW165752   3.568   9.233   0.449
54640SOL    HW265753   3.583   9.259   0.598
54641SOL     OW65754   1.659  10.409   5.685
54641SOL    HW165755   1.582  10.412   5.629
54641SOL    HW265756   1.627  10.376   5.769
54642SOL     OW65757  10.159   1.400   7.128
54642SOL    HW165758  10.242   1.380   7.085
54642SOL    HW265759  10.170   1.368   7.217
54643SOL     OW65760   8.143   2.510   2.569
54643SOL    HW165761   8.119   2.583   2.513
54643SOL    HW265762   8.097   2.526   2.651
54644SOL     OW65763  11.073   2.276   3.761
54644SOL    HW165764  11.072   2.352   3.819
54644SOL    HW265765  11.067   2.313   3.673
54645SOL     OW65766   9.350  10.292   1.338
54645SOL    HW165767   9.398  10.268   1.258
54645SOL    HW265768   9.415  10.338   1.391
54646SOL     OW65769  13.412   2.750   4.542
54646SOL    HW165770  13.444   2.676   4.595
54646SOL    HW265771  13.361   2.709   4.473
54647SOL     OW65772   2.733  12.230   1.048
54647SOL    HW165773   2.755  12.311   1.002
54647SOL    HW265774   2.817  12.189   1.067
54648SOL     OW65775   5.841   8.651   7.873
54648SOL    HW165776   5.915   8.620   7.820
54648SOL    HW265777   5.771   8.587   7.856
54649SOL     OW65778   6.866   1.536   8.976
54649SOL    HW165779   6.794   1.591   8.944
54649SOL    HW265780   6.872   1.556   9.069
54650SOL     OW65781   4.446  14.767  14.597
54650SOL    HW165782   4.418  14.824  14.668
54650SOL    HW265783   4.389  14.789  14.523
54651SOL     OW65784   4.525   0.942  14.509
54651SOL    HW165785   4.473   0.868  14.480
54651SOL    HW265786   4.466   0.994  14.563
54652SOL     OW65787   2.875   3.974  11.719
54652SOL    HW165788   2.893   3.950  11.810
54652SOL    HW265789   2.877   4.070  11.718
54653SOL     OW65790  12.994   5.918   4.264
54653SOL    HW165791  12.920   5.977   4.277
54653SOL    HW265792  13.050   5.965   4.202
54654SOL     OW65793   0.977  14.789  13.457
54654SOL    HW165794   0.950  14.716  13.512
54654SOL    HW265795   1.071  14.797  13.472
54655SOL     OW65796  12.964  13.839   9.931
54655SOL    HW165797  13.021  13.899   9.980
54655SOL    HW265798  13.024  13.777   9.890
54656SOL     OW65799   5.331  13.884   7.435
54656SOL    HW165800   5.342  13.827   7.358
54656SOL    HW265801   5.237  13.897   7.442
54657SOL     OW65802   2.847   8.384   3.946
54657SOL    HW165803   2.939   8.370   3.925
54657SOL    HW265804   2.822   8.462   3.896
54658SOL     OW65805  14.492   0.842   6.074
54658SOL    HW165806  14.562   0.873   6.131
54658SOL    HW265807  14.426   0.806   6.134
54659SOL     OW65808   2.857   8.113   3.975
54659SOL    HW165809   2.800   8.089   4.048
54659SOL    HW265810   2.825   8.198   3.946
54660SOL     OW65811  14.580   2.088   7.986
54660SOL    HW165812  14.542   2.019   7.931
54660SOL    HW265813  14.673   2.088   7.964
54661SOL     OW65814   0.449   8.164   0.230
54661SOL    HW165815   0.370   8.164   0.178
54661SOL    HW265816   0.476   8.072   0.234
54662SOL     OW65817   5.801   2.719   2.488
54662SOL    HW165818   5.884   2.756   2.517
54662SOL    HW265819   5.734   2.778   2.523
54663SOL     OW65820   3.679   8.577   7.081
54663SOL    HW165821   3.693   8.485   7.061
54663SOL    HW265822   3.762   8.619   7.059
54664SOL     OW65823  14.701   8.386  13.150
54664SOL    HW165824  14.646   8.357  13.223
54664SOL    HW265825  14.640   8.398  13.077
54665SOL     OW65826   6.628   8.308   0.365
54665SOL    HW165827   6.600   8.218   0.350
54665SOL    HW265828   6.557   8.348   0.414
54666SOL     OW65829   9.135   6.426   1.438
54666SOL    HW165830   9.096   6.342   1.412
54666SOL    HW265831   9.222   6.403   1.471
54667SOL     OW65832  12.845  11.180   1.816
54667SOL    HW165833  12.917  11.188   1.752
54667SOL    HW265834  12.882  11.214   1.898
54668SOL     OW65835   8.122  11.286  13.534
54668SOL    HW165836   8.090  11.199  13.557
54668SOL    HW265837   8.085  11.303  13.448
54669SOL     OW65838   6.378   8.775  11.392
54669SOL    HW165839   6.358   8.868  11.383
54669SOL    HW265840   6.389   8.743  11.303
54670SOL     OW65841   1.381   6.938   9.217
54670SOL    HW165842   1.458   6.917   9.164
54670SOL    HW265843   1.371   7.033   9.209
54671SOL     OW65844  12.859   0.052  14.382
54671SOL    HW165845  12.766   0.064  14.366
54671SOL    HW265846  12.864   0.002  14.464
54672SOL     OW65847   2.963   1.683   2.756
54672SOL    HW165848   2.897   1.627   2.798
54672SOL    HW265849   2.913   1.759   2.725
54673SOL     OW65850  12.999  13.547   7.769
54673SOL    HW165851  12.938  13.588   7.709
54673SOL    HW265852  12.954  13.468   7.800
54674SOL     OW65853  13.962   7.808  11.200
54674SOL    HW165854  13.930   7.830  11.112
54674SOL    HW265855  14.018   7.732  11.186
54675SOL     OW65856   2.015   7.133  10.000
54675SOL    HW165857   2.066   7.209   9.972
54675SOL    HW265858   2.004   7.080   9.921
54676SOL     OW65859   1.569   5.900   9.120
54676SOL    HW165860   1.567   5.828   9.057
54676SOL    HW265861   1.535   5.862   9.201
54677SOL     OW65862   3.679   4.504   4.381
54677SOL    HW165863   3.605   4.476   4.434
54677SOL    HW265864   3.720   4.574   4.433
54678SOL     OW65865   7.553   3.985  12.190
54678SOL    HW165866   7.622   4.039  12.228
54678SOL    HW265867   7.491   3.971  12.261
54679SOL     OW65868  12.272  12.433  14.314
54679SOL    HW165869  12.235  12.496  14.375
54679SOL    HW265870  12.366  12.433  14.333
54680SOL     OW65871   3.737   6.435   5.803
54680SOL    HW165872   3.767   6.437   5.895
54680SOL    HW265873   3.765   6.349   5.771
54681SOL     OW65874   7.340  12.182  13.014
54681SOL    HW165875   7.288  12.105  13.036
54681SOL    HW265876   7.426  12.147  12.991
54682SOL     OW65877  14.296   0.247   2.075
54682SOL    HW165878  14.340   0.164   2.093
54682SOL    HW265879  14.203   0.225   2.075
54683SOL     OW65880   8.575  11.341   6.127
54683SOL    HW165881   8.617  11.408   6.075
54683SOL    HW265882   8.519  11.293   6.065
54684SOL     OW65883   1.720   4.184  11.459
54684SOL    HW165884   1.727   4.279  11.475
54684SOL    HW265885   1.629   4.171  11.433
54685SOL     OW65886   1.298   3.907  12.880
54685SOL    HW165887   1.322   3.976  12.819
54685SOL    HW265888   1.278   3.832  12.825
54686SOL     OW65889  10.864   8.788   6.918
54686SOL    HW165890  10.883   8.732   6.993
54686SOL    HW265891  10.821   8.730   6.855
54687SOL     OW65892  12.147   7.301   0.492
54687SOL    HW165893  12.136   7.387   0.451
54687SOL    HW265894  12.084   7.244   0.447
54688SOL     OW65895  12.981   0.467   4.804
54688SOL    HW165896  13.070   0.437   4.823
54688SOL    HW265897  12.936   0.390   4.769
54689SOL     OW65898   2.180  14.164   2.999
54689SOL    HW165899   2.204  14.196   2.912
54689SOL    HW265900   2.245  14.096   3.019
54690SOL     OW65901  14.060   4.288  11.359
54690SOL    HW165902  14.075   4.303  11.453
54690SOL    HW265903  14.143   4.251  11.328
54691SOL     OW65904   7.328  14.100  12.401
54691SOL    HW165905   7.297  14.159  12.470
54691SOL    HW265906   7.258  14.101  12.336
54692SOL     OW65907  14.690  12.236   0.485
54692SOL    HW165908  14.758  12.169   0.477
54692SOL    HW265909  14.710  12.298   0.414
54693SOL     OW65910  13.592   3.740   6.904
54693SOL    HW165911  13.524   3.718   6.840
54693SOL    HW265912  13.548   3.797   6.967
54694SOL     OW65913   9.352   0.117   4.869
54694SOL    HW165914   9.419   0.102   4.935
54694SOL    HW265915   9.400   0.125   4.787
54695SOL     OW65916   3.721   5.292   1.358
54695SOL    HW165917   3.749   5.382   1.375
54695SOL    HW265918   3.646   5.279   1.416
54696SOL     OW65919  14.569   4.086   7.649
54696SOL    HW165920  14.491   4.076   7.595
54696SOL    HW265921  14.641   4.093   7.586
54697SOL     OW65922  10.676   7.606   4.028
54697SOL    HW165923  10.671   7.652   4.112
54697SOL    HW265924  10.770   7.592   4.014
54698SOL     OW65925   3.807  10.006   0.083
54698SOL    HW165926   3.875  10.069   0.058
54698SOL    HW265927   3.754  10.053   0.147
54699SOL     OW65928   3.786   7.688   5.068
54699SOL    HW165929   3.709   7.708   5.120
54699SOL    HW265930   3.798   7.594   5.076
54700SOL     OW65931  12.541   1.210   3.006
54700SOL    HW165932  12.621   1.200   2.955
54700SOL    HW265933  12.512   1.300   2.991
54701SOL     OW65934   2.763   1.852   2.641
54701SOL    HW165935   2.752   1.945   2.664
54701SOL    HW265936   2.824   1.852   2.568
54702SOL     OW65937   3.591  12.633   6.703
54702SOL    HW165938   3.642  12.685   6.765
54702SOL    HW265939   3.607  12.543   6.728
54703SOL     OW65940   9.358  11.176  11.876
54703SOL    HW165941   9.330  11.089  11.906
54703SOL    HW265942   9.430  11.200  11.935
54704SOL     OW65943  12.001   5.275   4.766
54704SOL    HW165944  12.020   5.364   4.738
54704SOL    HW265945  11.906   5.266   4.756
54705SOL     OW65946   9.983   4.973   0.016
54705SOL    HW165947   9.961   5.063  14.867
54705SOL    HW265948   9.901   4.925   0.003
54706SOL     OW65949   4.292   6.169   9.799
54706SOL    HW165950   4.305   6.187   9.892
54706SOL    HW265951   4.211   6.216   9.777
54707SOL     OW65952   9.828   6.211  10.228
54707SOL    HW165953   9.885   6.245  10.160
54707SOL    HW265954   9.761   6.162  10.181
54708SOL     OW65955   4.050  10.639   2.803
54708SOL    HW165956   4.085  10.636   2.714
54708SOL    HW265957   4.116  10.685   2.854
54709SOL     OW65958   1.574   9.353   9.127
54709SOL    HW165959   1.661   9.362   9.089
54709SOL    HW265960   1.521   9.314   9.057
54710SOL     OW65961  13.361  13.931   8.183
54710SOL    HW165962  13.352  13.940   8.088
54710SOL    HW265963  13.395  14.016   8.212
54711SOL     OW65964   1.258   5.968  13.457
54711SOL    HW165965   1.168   6.001  13.450
54711SOL    HW265966   1.290   5.967  13.367
54712SOL     OW65967   7.258   4.560  11.393
54712SOL    HW165968   7.301   4.641  11.420
54712SOL    HW265969   7.281   4.497  11.462
54713SOL     OW65970   4.354   0.907   5.637
54713SOL    HW165971   4.360   1.003   5.636
54713SOL    HW265972   4.439   0.878   5.669
54714SOL     OW65973   1.490   0.221   9.007
54714SOL    HW165974   1.467   0.159   9.076
54714SOL    HW265975   1.495   0.306   9.051
54715SOL     OW65976   5.118   3.758   7.085
54715SOL    HW165977   5.135   3.674   7.128
54715SOL    HW265978   5.076   3.734   7.002
54716SOL     OW65979   3.993   7.385   3.230
54716SOL    HW165980   3.952   7.376   3.316
54716SOL    HW265981   3.986   7.478   3.209
54717SOL     OW65982   7.089   7.026  10.185
54717SOL    HW165983   7.053   7.115  10.193
54717SOL    HW265984   7.090   7.009  10.091
54718SOL     OW65985   8.407   4.228  10.538
54718SOL    HW165986   8.338   4.272  10.489
54718SOL    HW265987   8.361   4.168  10.596
54719SOL     OW65988   9.341   1.321  12.633
54719SOL    HW165989   9.309   1.278  12.554
54719SOL    HW265990   9.324   1.414  12.619
54720SOL     OW65991  12.236  10.303  11.741
54720SOL    HW165992  12.230  10.242  11.814
54720SOL    HW265993  12.191  10.382  11.772
54721SOL     OW65994   6.774   9.686  10.045
54721SOL    HW165995   6.756   9.606   9.996
54721SOL    HW265996   6.736   9.671  10.131
54722SOL     OW65997  13.921  14.650   0.808
54722SOL    HW165998  13.963  14.566   0.793
54722SOL    HW265999  13.991  14.714   0.797
54723SOL     OW66000   5.989   0.551   8.141
54723SOL    HW166001   5.906   0.590   8.114
54723SOL    HW266002   5.997   0.574   8.233
54724SOL     OW66003   9.509   5.077  14.425
54724SOL    HW166004   9.441   5.132  14.386
54724SOL    HW266005   9.509   4.998  14.371
54725SOL     OW66006   2.912  11.399   3.725
54725SOL    HW166007   2.979  11.410   3.793
54725SOL    HW266008   2.900  11.304   3.718
54726SOL     OW66009   2.033   0.322   1.947
54726SOL    HW166010   2.029   0.356   2.036
54726SOL    HW266011   2.118   0.276   1.943
54727SOL     OW66012   4.997  12.141   8.327
54727SOL    HW166013   5.024  12.230   8.304
54727SOL    HW266014   4.959  12.150   8.415
54728SOL     OW66015  14.737   3.713   4.629
54728SOL    HW166016  14.766   3.751   4.546
54728SOL    HW266017  14.644   3.697   4.617
54729SOL     OW66018   4.039  11.945   0.181
54729SOL    HW166019   4.125  11.949   0.222
54729SOL    HW266020   4.056  11.914   0.092
54730SOL     OW66021   4.368  14.611  10.399
54730SOL    HW166022   4.396  14.696  10.432
54730SOL    HW266023   4.274  14.621  10.381
54731SOL     OW66024   2.491  13.381  11.019
54731SOL    HW166025   2.408  13.420  10.992
54731SOL    HW266026   2.483  13.370  11.114
54732SOL     OW66027   8.224   7.846   9.078
54732SOL    HW166028   8.157   7.903   9.116
54732SOL    HW266029   8.282   7.906   9.030
54733SOL     OW66030   3.265   2.250   6.850
54733SOL    HW166031   3.291   2.203   6.930
54733SOL    HW266032   3.337   2.236   6.789
54734SOL     OW66033   5.660   2.155  11.114
54734SOL    HW166034   5.683   2.185  11.026
54734SOL    HW266035   5.625   2.067  11.101
54735SOL     OW66036   4.312   6.714   3.903
54735SOL    HW166037   4.255   6.701   3.979
54735SOL    HW266038   4.327   6.626   3.869
54736SOL     OW66039   9.828   7.046  14.437
54736SOL    HW166040   9.918   7.053  14.407
54736SOL    HW266041   9.833   7.055  14.533
54737SOL     OW66042   6.486   6.344  10.733
54737SOL    HW166043   6.416   6.327  10.670
54737SOL    HW266044   6.558   6.288  10.704
54738SOL     OW66045   2.976   3.509  13.516
54738SOL    HW166046   2.902   3.534  13.572
54738SOL    HW266047   3.037   3.465  13.574
54739SOL     OW66048   5.568   4.558  11.247
54739SOL    HW166049   5.520   4.637  11.272
54739SOL    HW266050   5.539   4.491  11.309
54740SOL     OW66051   1.799  10.825   9.068
54740SOL    HW166052   1.712  10.802   9.035
54740SOL    HW266053   1.856  10.754   9.037
54741SOL     OW66054   8.171   6.759   2.712
54741SOL    HW166055   8.111   6.815   2.761
54741SOL    HW266056   8.131   6.752   2.625
54742SOL     OW66057   1.912  12.777   1.138
54742SOL    HW166058   1.817  12.766   1.140
54742SOL    HW266059   1.940  12.758   1.228
54743SOL     OW66060  11.070  11.291   9.784
54743SOL    HW166061  10.995  11.239   9.757
54743SOL    HW266062  11.143  11.258   9.731
54744SOL     OW66063   7.755  14.390   7.992
54744SOL    HW166064   7.761  14.418   7.901
54744SOL    HW266065   7.834  14.425   8.033
54745SOL     OW66066   2.536   4.514  14.172
54745SOL    HW166067   2.493   4.600  14.178
54745SOL    HW266068   2.628   4.532  14.193
54746SOL     OW66069   0.107  13.260   7.366
54746SOL    HW166070   0.069  13.309   7.439
54746SOL    HW266071   0.053  13.284   7.291
54747SOL     OW66072   1.512   0.082  12.143
54747SOL    HW166073   1.566   0.028  12.201
54747SOL    HW266074   1.466   0.019  12.088
54748SOL     OW66075   7.831  10.706   7.491
54748SOL    HW166076   7.783  10.743   7.417
54748SOL    HW266077   7.923  10.718   7.469
54749SOL     OW66078   7.174   4.924   1.396
54749SOL    HW166079   7.129   4.849   1.357
54749SOL    HW266080   7.225   4.885   1.468
54750SOL     OW66081  10.259   5.472   9.760
54750SOL    HW166082  10.210   5.546   9.796
54750SOL    HW266083  10.208   5.443   9.685
54751SOL     OW66084   8.440  12.564   1.942
54751SOL    HW166085   8.496  12.641   1.939
54751SOL    HW266086   8.475  12.512   2.015
54752SOL     OW66087   5.127   5.023   4.145
54752SOL    HW166088   5.050   5.077   4.165
54752SOL    HW266089   5.126   4.954   4.211
54753SOL     OW66090   6.826   5.873   0.673
54753SOL    HW166091   6.823   5.779   0.694
54753SOL    HW266092   6.775   5.881   0.593
54754SOL     OW66093   8.429   1.619   0.240
54754SOL    HW166094   8.507   1.652   0.196
54754SOL    HW266095   8.418   1.677   0.316
54755SOL     OW66096   5.323   9.536   3.134
54755SOL    HW166097   5.321   9.522   3.039
54755SOL    HW266098   5.380   9.612   3.146
54756SOL     OW66099   4.919  10.497   5.677
54756SOL    HW166100   4.826  10.503   5.701
54756SOL    HW266101   4.918  10.483   5.582
54757SOL     OW66102   5.515   8.911  12.958
54757SOL    HW166103   5.556   8.981  12.908
54757SOL    HW266104   5.485   8.953  13.038
54758SOL     OW66105   0.198   9.022  13.581
54758SOL    HW166106   0.115   9.032  13.535
54758SOL    HW266107   0.208   8.928  13.591
54759SOL     OW66108   6.476   9.916  10.639
54759SOL    HW166109   6.461   9.945  10.549
54759SOL    HW266110   6.535   9.842  10.631
54760SOL     OW66111   9.411   2.439  14.785
54760SOL    HW166112   9.393   2.402  14.699
54760SOL    HW266113   9.357   2.387  14.845
54761SOL     OW66114   0.325  12.890   9.818
54761SOL    HW166115   0.270  12.881   9.895
54761SOL    HW266116   0.268  12.930   9.752
54762SOL     OW66117   1.318   2.530   4.867
54762SOL    HW166118   1.346   2.564   4.952
54762SOL    HW266119   1.325   2.435   4.877
54763SOL     OW66120   8.931  14.427   4.125
54763SOL    HW166121   8.936  14.450   4.217
54763SOL    HW266122   8.867  14.488   4.088
54764SOL     OW66123  14.234  10.089   6.971
54764SOL    HW166124  14.219  10.110   6.879
54764SOL    HW266125  14.281  10.006   6.970
54765SOL     OW66126  14.052   4.054  10.511
54765SOL    HW166127  14.027   4.143  10.536
54765SOL    HW266128  14.147   4.051  10.524
54766SOL     OW66129  12.345   5.970   6.940
54766SOL    HW166130  12.302   5.949   6.857
54766SOL    HW266131  12.438   5.974   6.919
54767SOL     OW66132  11.895   0.126   1.505
54767SOL    HW166133  11.938   0.049   1.542
54767SOL    HW266134  11.863   0.174   1.582
54768SOL     OW66135   5.818   1.461   7.114
54768SOL    HW166136   5.767   1.522   7.060
54768SOL    HW266137   5.769   1.455   7.196
54769SOL     OW66138  12.240   7.109  11.052
54769SOL    HW166139  12.211   7.054  11.125
54769SOL    HW266140  12.294   7.176  11.093
54770SOL     OW66141   5.953   6.961   8.952
54770SOL    HW166142   5.862   6.978   8.927
54770SOL    HW266143   5.949   6.939   9.045
54771SOL     OW66144  14.392   6.082   9.298
54771SOL    HW166145  14.334   6.146   9.258
54771SOL    HW266146  14.444   6.048   9.225
54772SOL     OW66147   1.317   0.726   3.330
54772SOL    HW166148   1.372   0.648   3.341
54772SOL    HW266149   1.304   0.733   3.236
54773SOL     OW66150   3.206  12.899  10.151
54773SOL    HW166151   3.122  12.907  10.196
54773SOL    HW266152   3.193  12.828  10.088
54774SOL     OW66153  11.458   1.889  10.091
54774SOL    HW166154  11.451   1.983  10.104
54774SOL    HW266155  11.386   1.852  10.143
54775SOL     OW66156  13.791  12.931  14.098
54775SOL    HW166157  13.756  12.941  14.009
54775SOL    HW266158  13.819  12.839  14.102
54776SOL     OW66159  14.850   8.344  12.933
54776SOL    HW166160  14.795   8.368  13.008
54776SOL    HW266161   0.043   8.414  12.928
54777SOL     OW66162  12.168   4.713   5.382
54777SOL    HW166163  12.112   4.639   5.357
54777SOL    HW266164  12.185   4.759   5.299
54778SOL     OW66165  10.062   8.465  11.659
54778SOL    HW166166  10.075   8.421  11.743
54778SOL    HW266167  10.137   8.438  11.606
54779SOL     OW66168  10.578  11.417  13.509
54779SOL    HW166169  10.549  11.396  13.597
54779SOL    HW266170  10.573  11.333  13.461
54780SOL     OW66171   6.751  13.911  10.926
54780SOL    HW166172   6.797  13.919  11.010
54780SOL    HW266173   6.763  13.819  10.901
54781SOL     OW66174   9.437  13.362   6.672
54781SOL    HW166175   9.423  13.410   6.591
54781SOL    HW266176   9.424  13.270   6.649
54782SOL     OW66177   4.537  13.855  12.214
54782SOL    HW166178   4.614  13.803  12.192
54782SOL    HW266179   4.493  13.806  12.283
54783SOL     OW66180  13.756  10.414   9.490
54783SOL    HW166181  13.716  10.429   9.404
54783SOL    HW266182  13.810  10.336   9.478
54784SOL     OW66183   3.997   5.522   5.473
54784SOL    HW166184   3.986   5.607   5.515
54784SOL    HW266185   4.092   5.513   5.462
54785SOL     OW66186   7.329   5.084   1.210
54785SOL    HW166187   7.359   5.009   1.158
54785SOL    HW266188   7.264   5.047   1.269
54786SOL     OW66189  12.911   6.979   0.575
54786SOL    HW166190  12.915   6.994   0.669
54786SOL    HW266191  12.939   7.061   0.536
54787SOL     OW66192   9.970   0.439   8.570
54787SOL    HW166193   9.957   0.361   8.517
54787SOL    HW266194   9.983   0.509   8.506
54788SOL     OW66195   4.641  13.416  12.776
54788SOL    HW166196   4.663  13.440  12.866
54788SOL    HW266197   4.631  13.321  12.777
54789SOL     OW66198  11.717   7.300  10.185
54789SOL    HW166199  11.809   7.297  10.212
54789SOL    HW266200  11.719   7.292  10.090
54790SOL     OW66201  14.681  14.287  10.226
54790SOL    HW166202  14.609  14.320  10.171
54790SOL    HW266203  14.674  14.192  10.220
54791SOL     OW66204  14.224   0.579   5.595
54791SOL    HW166205  14.181   0.519   5.533
54791SOL    HW266206  14.252   0.522   5.667
54792SOL     OW66207  14.502  12.260   6.945
54792SOL    HW166208  14.415  12.269   6.985
54792SOL    HW266209  14.507  12.334   6.884
54793SOL     OW66210  12.781   7.494   6.044
54793SOL    HW166211  12.752   7.497   6.135
54793SOL    HW266212  12.780   7.401   6.022
54794SOL     OW66213   1.923  10.722  13.192
54794SOL    HW166214   1.846  10.669  13.173
54794SOL    HW266215   1.888  10.804  13.225
54795SOL     OW66216   3.047   9.334   0.390
54795SOL    HW166217   3.048   9.427   0.414
54795SOL    HW266218   3.036   9.334   0.295
54796SOL     OW66219  13.303  10.044  14.012
54796SOL    HW166220  13.291   9.952  14.036
54796SOL    HW266221  13.240  10.091  14.065
54797SOL     OW66222   1.055   2.454  13.475
54797SOL    HW166223   1.080   2.487  13.389
54797SOL    HW266224   0.968   2.492  13.490
54798SOL     OW66225   4.508   2.251   1.869
54798SOL    HW166226   4.546   2.338   1.860
54798SOL    HW266227   4.582   2.191   1.860
54799SOL     OW66228   4.409  11.736   1.298
54799SOL    HW166229   4.333  11.792   1.280
54799SOL    HW266230   4.379  11.647   1.278
54800SOL     OW66231   9.374   0.695  11.560
54800SOL    HW166232   9.452   0.736  11.598
54800SOL    HW266233   9.316   0.681  11.635
54801SOL     OW66234   7.950   4.309   4.578
54801SOL    HW166235   7.876   4.325   4.636
54801SOL    HW266236   7.981   4.221   4.602
54802SOL     OW66237   4.286  14.571   3.818
54802SOL    HW166238   4.298  14.655   3.775
54802SOL    HW266239   4.204  14.581   3.867
54803SOL     OW66240   1.543   5.318  10.325
54803SOL    HW166241   1.459   5.360  10.306
54803SOL    HW266242   1.519   5.230  10.357
54804SOL     OW66243   7.316   0.124  14.088
54804SOL    HW166244   7.409   0.139  14.071
54804SOL    HW266245   7.313   0.067  14.164
54805SOL     OW66246   2.711   2.634  14.324
54805SOL    HW166247   2.753   2.554  14.293
54805SOL    HW266248   2.713   2.627  14.420
54806SOL     OW66249   5.913   9.269   5.372
54806SOL    HW166250   5.919   9.205   5.443
54806SOL    HW266251   5.823   9.303   5.378
54807SOL     OW66252   4.853   8.262  13.623
54807SOL    HW166253   4.937   8.255  13.576
54807SOL    HW266254   4.835   8.356  13.626
54808SOL     OW66255   0.919   5.487  12.479
54808SOL    HW166256   0.961   5.573  12.477
54808SOL    HW266257   0.980   5.430  12.432
54809SOL     OW66258  14.265   7.690  11.961
54809SOL    HW166259  14.328   7.620  11.942
54809SOL    HW266260  14.182   7.645  11.975
54810SOL     OW66261   9.152  10.769   6.163
54810SOL    HW166262   9.205  10.706   6.211
54810SOL    HW266263   9.162  10.744   6.071
54811SOL     OW66264   4.397   9.645   3.093
54811SOL    HW166265   4.400   9.723   3.149
54811SOL    HW266266   4.310   9.647   3.053
54812SOL     OW66267   8.225   3.939   5.829
54812SOL    HW166268   8.151   3.993   5.803
54812SOL    HW266269   8.301   3.998   5.824
54813SOL     OW66270  10.901   8.432   7.653
54813SOL    HW166271  10.974   8.419   7.713
54813SOL    HW266272  10.834   8.474   7.706
54814SOL     OW66273   8.155   3.272  14.269
54814SOL    HW166274   8.199   3.356  14.284
54814SOL    HW266275   8.179   3.219  14.345
54815SOL     OW66276   6.135  11.366  12.189
54815SOL    HW166277   6.043  11.356  12.211
54815SOL    HW266278   6.162  11.280  12.158
54816SOL     OW66279   7.194   0.075   4.283
54816SOL    HW166280   7.221   0.167   4.275
54816SOL    HW266281   7.190   0.043   4.193
54817SOL     OW66282  14.619   8.881  10.850
54817SOL    HW166283  14.703   8.882  10.804
54817SOL    HW266284  14.556   8.914  10.786
54818SOL     OW66285   6.110   8.041   7.682
54818SOL    HW166286   6.097   7.951   7.652
54818SOL    HW266287   6.162   8.033   7.762
54819SOL     OW66288   9.399   8.079   3.316
54819SOL    HW166289   9.324   8.039   3.361
54819SOL    HW266290   9.475   8.050   3.367
54820SOL     OW66291   0.052   1.603  14.483
54820SOL    HW166292   0.023   1.524  14.438
54820SOL    HW266293   0.009   1.598  14.569
54821SOL     OW66294  10.504   9.030   2.862
54821SOL    HW166295  10.513   9.003   2.771
54821SOL    HW266296  10.497   8.948   2.911
54822SOL     OW66297   9.081   3.983  11.766
54822SOL    HW166298   9.165   3.942  11.789
54822SOL    HW266299   9.027   3.910  11.735
54823SOL     OW66300  11.333   3.466  12.587
54823SOL    HW166301  11.306   3.528  12.655
54823SOL    HW266302  11.424   3.489  12.569
54824SOL     OW66303  12.660   2.614  13.201
54824SOL    HW166304  12.677   2.611  13.295
54824SOL    HW266305  12.613   2.696  13.186
54825SOL     OW66306  11.856   3.140  13.034
54825SOL    HW166307  11.917   3.200  13.077
54825SOL    HW266308  11.772   3.158  13.077
54826SOL     OW66309   0.599  11.644  13.566
54826SOL    HW166310   0.536  11.574  13.548
54826SOL    HW266311   0.635  11.622  13.652
54827SOL     OW66312   7.608   6.562  14.681
54827SOL    HW166313   7.632   6.615  14.756
54827SOL    HW266314   7.662   6.483  14.688
54828SOL     OW66315   9.772   5.353   5.741
54828SOL    HW166316   9.721   5.414   5.794
54828SOL    HW266317   9.828   5.308   5.805
54829SOL     OW66318  12.589   2.185  11.007
54829SOL    HW166319  12.507   2.234  10.998
54829SOL    HW266320  12.649   2.227  10.946
54830SOL     OW66321   0.209   5.147  12.692
54830SOL    HW166322   0.138   5.088  12.668
54830SOL    HW266323   0.232   5.123  12.781
54831SOL     OW66324   1.005   2.716   4.088
54831SOL    HW166325   0.939   2.733   4.156
54831SOL    HW266326   1.069   2.786   4.099
54832SOL     OW66327   6.613   4.039   7.616
54832SOL    HW166328   6.572   4.119   7.586
54832SOL    HW266329   6.594   3.975   7.548
54833SOL     OW66330  13.470  14.611   6.117
54833SOL    HW166331  13.539  14.598   6.052
54833SOL    HW266332  13.389  14.605   6.066
54834SOL     OW66333   2.685   3.043   1.822
54834SOL    HW166334   2.674   3.134   1.797
54834SOL    HW266335   2.625   3.030   1.895
54835SOL     OW66336   0.358   7.988  12.365
54835SOL    HW166337   0.358   7.967  12.458
54835SOL    HW266338   0.268   7.974  12.336
54836SOL     OW66339  12.253   7.677  11.077
54836SOL    HW166340  12.265   7.685  10.982
54836SOL    HW266341  12.197   7.601  11.088
54837SOL     OW66342  13.785   8.048  13.961
54837SOL    HW166343  13.717   7.988  13.992
54837SOL    HW266344  13.840   8.063  14.037
54838SOL     OW66345   1.291   9.014   9.976
54838SOL    HW166346   1.309   9.012   9.883
54838SOL    HW266347   1.377   9.013  10.018
54839SOL     OW66348  14.126   3.058   2.247
54839SOL    HW166349  14.067   3.055   2.322
54839SOL    HW266350  14.144   3.151   2.234
54840SOL     OW66351   5.424   3.259   3.738
54840SOL    HW166352   5.471   3.202   3.677
54840SOL    HW266353   5.483   3.334   3.751
54841SOL     OW66354  10.025  10.778  13.903
54841SOL    HW166355   9.947  10.741  13.944
54841SOL    HW266356  10.072  10.702  13.868
54842SOL     OW66357  14.413   4.287   8.155
54842SOL    HW166358  14.438   4.376   8.129
54842SOL    HW266359  14.371   4.251   8.077
54843SOL     OW66360   4.876   1.905   7.162
54843SOL    HW166361   4.803   1.956   7.127
54843SOL    HW266362   4.954   1.948   7.129
54844SOL     OW66363   8.706   4.895   5.853
54844SOL    HW166364   8.653   4.970   5.828
54844SOL    HW266365   8.760   4.927   5.926
54845SOL     OW66366   7.550   7.042  10.542
54845SOL    HW166367   7.525   7.129  10.572
54845SOL    HW266368   7.493   7.026  10.466
54846SOL     OW66369   1.192  11.539   7.255
54846SOL    HW166370   1.201  11.458   7.206
54846SOL    HW266371   1.098  11.557   7.257
54847SOL     OW66372  13.977   0.839   9.092
54847SOL    HW166373  13.936   0.756   9.116
54847SOL    HW266374  14.031   0.861   9.168
54848SOL     OW66375   0.187   8.192   8.857
54848SOL    HW166376   0.207   8.134   8.783
54848SOL    HW266377   0.143   8.136   8.921
54849SOL     OW66378  14.653   0.339   7.268
54849SOL    HW166379  14.627   0.247   7.271
54849SOL    HW266380  14.659   0.360   7.175
54850SOL     OW66381  12.997   5.342   4.355
54850SOL    HW166382  13.067   5.303   4.408
54850SOL    HW266383  12.919   5.337   4.410
54851SOL     OW66384   7.360  11.246   4.231
54851SOL    HW166385   7.436  11.206   4.273
54851SOL    HW266386   7.375  11.233   4.138
54852SOL     OW66387   5.682  14.382  12.429
54852SOL    HW166388   5.597  14.355  12.462
54852SOL    HW266389   5.740  14.378  12.505
54853SOL     OW66390   2.202   7.924   2.382
54853SOL    HW166391   2.285   7.880   2.364
54853SOL    HW266392   2.135   7.863   2.350
54854SOL     OW66393   1.660   2.369  13.948
54854SOL    HW166394   1.601   2.339  13.879
54854SOL    HW266395   1.739   2.315  13.938
54855SOL     OW66396  14.766   6.469   8.182
54855SOL    HW166397  14.845   6.415   8.175
54855SOL    HW266398  14.734   6.453   8.271
54856SOL     OW66399   1.573   5.356   3.836
54856SOL    HW166400   1.657   5.327   3.800
54856SOL    HW266401   1.520   5.277   3.841
54857SOL     OW66402   8.201  13.984   1.691
54857SOL    HW166403   8.294  13.964   1.688
54857SOL    HW266404   8.177  13.970   1.783
54858SOL     OW66405  11.111   3.651   4.691
54858SOL    HW166406  11.107   3.704   4.611
54858SOL    HW266407  11.139   3.714   4.758
54859SOL     OW66408  14.532   7.231   5.415
54859SOL    HW166409  14.504   7.307   5.364
54859SOL    HW266410  14.508   7.156   5.361
54860SOL     OW66411  12.697   9.123   2.431
54860SOL    HW166412  12.767   9.181   2.400
54860SOL    HW266413  12.693   9.054   2.366
54861SOL     OW66414   9.053   6.835   6.995
54861SOL    HW166415   9.047   6.924   7.030
54861SOL    HW266416   8.965   6.800   7.004
54862SOL     OW66417  14.156  14.831   8.729
54862SOL    HW166418  14.119   0.006   8.655
54862SOL    HW266419  14.082  14.783   8.766
54863SOL     OW66420   1.940   6.121  13.320
54863SOL    HW166421   1.897   6.056  13.264
54863SOL    HW266422   1.873   6.146  13.383
54864SOL     OW66423   9.995  13.563   7.343
54864SOL    HW166424   9.911  13.593   7.378
54864SOL    HW266425  10.005  13.475   7.379
54865SOL     OW66426  12.144  14.357   4.711
54865SOL    HW166427  12.115  14.268   4.692
54865SOL    HW266428  12.065  14.405   4.733
54866SOL     OW66429   0.649  11.153   9.827
54866SOL    HW166430   0.632  11.133   9.735
54866SOL    HW266431   0.614  11.241   9.839
54867SOL     OW66432   6.558   3.392  10.263
54867SOL    HW166433   6.636   3.446  10.272
54867SOL    HW266434   6.485   3.454  10.263
54868SOL     OW66435   9.021   1.075   2.140
54868SOL    HW166436   9.027   1.169   2.129
54868SOL    HW266437   9.073   1.056   2.218
54869SOL     OW66438  13.086  11.124   6.269
54869SOL    HW166439  13.149  11.054   6.286
54869SOL    HW266440  13.063  11.115   6.177
54870SOL     OW66441  10.975   8.073   7.559
54870SOL    HW166442  11.051   8.016   7.573
54870SOL    HW266443  10.950   8.102   7.647
54871SOL     OW66444   2.564   2.361  14.383
54871SOL    HW166445   2.621   2.343  14.308
54871SOL    HW266446   2.589   2.297  14.449
54872SOL     OW66447   3.628  10.189  13.414
54872SOL    HW166448   3.625  10.209  13.321
54872SOL    HW266449   3.721  10.180  13.434
54873SOL     OW66450   4.481  13.639   8.348
54873SOL    HW166451   4.550  13.577   8.370
54873SOL    HW266452   4.478  13.700   8.422
54874SOL     OW66453   5.549  11.803   2.335
54874SOL    HW166454   5.554  11.711   2.307
54874SOL    HW266455   5.552  11.798   2.431
54875SOL     OW66456  14.262  12.089   5.790
54875SOL    HW166457  14.179  12.128   5.762
54875SOL    HW266458  14.238  12.028   5.859
54876SOL     OW66459   2.130   5.845   5.791
54876SOL    HW166460   2.049   5.805   5.758
54876SOL    HW266461   2.108   5.873   5.880
54877SOL     OW66462   2.602  14.226   9.397
54877SOL    HW166463   2.616  14.131   9.393
54877SOL    HW266464   2.678  14.259   9.446
54878SOL     OW66465   4.946   6.580   7.886
54878SOL    HW166466   5.016   6.515   7.879
54878SOL    HW266467   4.865   6.527   7.886
54879SOL     OW66468   1.973   7.809   7.579
54879SOL    HW166469   2.040   7.799   7.646
54879SOL    HW266470   1.914   7.734   7.592
54880SOL     OW66471   2.387   9.531  14.704
54880SOL    HW166472   2.439   9.611  14.708
54880SOL    HW266473   2.336   9.531  14.785
54881SOL     OW66474   8.947   4.640   9.129
54881SOL    HW166475   8.948   4.661   9.222
54881SOL    HW266476   8.967   4.546   9.125
54882SOL     OW66477  10.757  14.356   2.686
54882SOL    HW166478  10.703  14.434   2.696
54882SOL    HW266479  10.747  14.309   2.769
54883SOL     OW66480  12.621  11.006   6.406
54883SOL    HW166481  12.690  10.941   6.417
54883SOL    HW266482  12.543  10.956   6.387
54884SOL     OW66483  10.114  10.609  13.141
54884SOL    HW166484  10.067  10.693  13.137
54884SOL    HW266485  10.067  10.559  13.207
54885SOL     OW66486   9.237  13.285  11.214
54885SOL    HW166487   9.275  13.252  11.296
54885SOL    HW266488   9.250  13.380  11.218
54886SOL     OW66489   3.317   3.252  13.987
54886SOL    HW166490   3.342   3.292  13.903
54886SOL    HW266491   3.223   3.240  13.981
54887SOL     OW66492   6.021  14.497   1.815
54887SOL    HW166493   6.040  14.588   1.839
54887SOL    HW266494   5.927  14.487   1.829
54888SOL     OW66495   8.355  14.489   5.059
54888SOL    HW166496   8.313  14.507   4.975
54888SOL    HW266497   8.309  14.545   5.122
54889SOL     OW66498   8.041   6.494   3.129
54889SOL    HW166499   8.059   6.406   3.162
54889SOL    HW266500   8.040   6.485   3.034
54890SOL     OW66501   2.545   3.424  14.766
54890SOL    HW166502   2.529   3.518  14.781
54890SOL    HW266503   2.631   3.421  14.722
54891SOL     OW66504   4.264   3.777  14.675
54891SOL    HW166505   4.280   3.750  14.766
54891SOL    HW266506   4.351   3.799  14.641
54892SOL     OW66507   0.508   2.431   4.896
54892SOL    HW166508   0.544   2.347   4.869
54892SOL    HW266509   0.458   2.462   4.821
54893SOL     OW66510  13.789   6.813   4.335
54893SOL    HW166511  13.855   6.828   4.267
54893SOL    HW266512  13.725   6.882   4.321
54894SOL     OW66513   0.563  10.517   1.936
54894SOL    HW166514   0.519  10.555   2.012
54894SOL    HW266515   0.608  10.440   1.971
54895SOL     OW66516   4.853  12.447   2.307
54895SOL    HW166517   4.766  12.423   2.275
54895SOL    HW266518   4.897  12.486   2.232
54896SOL     OW66519  11.704  12.435  13.421
54896SOL    HW166520  11.643  12.453  13.493
54896SOL    HW266521  11.789  12.429  13.464
54897SOL     OW66522   0.864   1.188  12.560
54897SOL    HW166523   0.947   1.232  12.578
54897SOL    HW266524   0.823   1.242  12.492
54898SOL     OW66525   0.863  11.621   0.780
54898SOL    HW166526   0.855  11.715   0.768
54898SOL    HW266527   0.818  11.583   0.705
54899SOL     OW66528   5.979   8.985  12.878
54899SOL    HW166529   5.991   8.909  12.935
54899SOL    HW266530   6.020   9.058  12.925
54900SOL     OW66531   4.057   3.043   8.318
54900SOL    HW166532   4.037   2.977   8.251
54900SOL    HW266533   4.097   2.993   8.389
54901SOL     OW66534   4.434  13.387  13.146
54901SOL    HW166535   4.498  13.427  13.204
54901SOL    HW266536   4.439  13.438  13.065
54902SOL     OW66537   2.333  11.876   9.932
54902SOL    HW166538   2.389  11.804   9.961
54902SOL    HW266539   2.262  11.879   9.995
54903SOL     OW66540   8.047   0.809   1.432
54903SOL    HW166541   8.012   0.829   1.345
54903SOL    HW266542   8.142   0.817   1.422
54904SOL     OW66543  10.506   2.474  11.141
54904SOL    HW166544  10.582   2.531  11.127
54904SOL    HW266545  10.454   2.485  11.062
54905SOL     OW66546   9.422   6.052   7.970
54905SOL    HW166547   9.511   6.046   8.004
54905SOL    HW266548   9.433   6.071   7.876
54906SOL     OW66549   6.442  12.395  12.188
54906SOL    HW166550   6.440  12.449  12.109
54906SOL    HW266551   6.377  12.327  12.172
54907SOL     OW66552  11.013   9.338   9.263
54907SOL    HW166553  10.939   9.309   9.316
54907SOL    HW266554  11.016   9.276   9.190
54908SOL     OW66555   9.571  14.585   1.698
54908SOL    HW166556   9.644  14.622   1.747
54908SOL    HW266557   9.575  14.491   1.715
54909SOL     OW66558   2.766  12.854   0.515
54909SOL    HW166559   2.817  12.879   0.592
54909SOL    HW266560   2.699  12.922   0.508
54910SOL     OW66561   7.046   6.609   5.574
54910SOL    HW166562   7.125   6.642   5.532
54910SOL    HW266563   6.974   6.647   5.523
54911SOL     OW66564  11.281   5.780   9.448
54911SOL    HW166565  11.371   5.785   9.480
54911SOL    HW266566  11.229   5.825   9.514
54912SOL     OW66567  10.401   7.305   4.128
54912SOL    HW166568  10.399   7.262   4.213
54912SOL    HW266569  10.493   7.325   4.112
54913SOL     OW66570   6.120   3.755  12.695
54913SOL    HW166571   6.156   3.808  12.766
54913SOL    HW266572   6.038   3.799  12.672
54914SOL     OW66573   7.520   4.928  13.774
54914SOL    HW166574   7.462   4.901  13.845
54914SOL    HW266575   7.548   5.016  13.798
54915SOL     OW66576   8.108   8.251  10.023
54915SOL    HW166577   8.202   8.269  10.031
54915SOL    HW266578   8.070   8.334   9.995
54916SOL     OW66579  13.035   6.094   3.871
54916SOL    HW166580  13.084   6.107   3.953
54916SOL    HW266581  13.027   5.999   3.863
54917SOL     OW66582   6.051   9.323  11.563
54917SOL    HW166583   6.057   9.246  11.505
54917SOL    HW266584   5.974   9.370  11.532
54918SOL     OW66585   2.591   6.465   4.860
54918SOL    HW166586   2.577   6.371   4.852
54918SOL    HW266587   2.559   6.487   4.947
54919SOL     OW66588   6.420   8.920   7.404
54919SOL    HW166589   6.328   8.930   7.429
54919SOL    HW266590   6.447   9.007   7.375
54920SOL     OW66591   4.663   6.130   9.321
54920SOL    HW166592   4.579   6.174   9.308
54920SOL    HW266593   4.647   6.040   9.292
54921SOL     OW66594   2.969  10.227   2.307
54921SOL    HW166595   2.873  10.231   2.308
54921SOL    HW266596   2.995  10.293   2.243
54922SOL     OW66597   5.072   7.993  10.138
54922SOL    HW166598   5.036   8.006  10.050
54922SOL    HW266599   5.034   7.911  10.168
54923SOL     OW66600   3.234   0.822   7.691
54923SOL    HW166601   3.164   0.867   7.738
54923SOL    HW266602   3.232   0.860   7.603
54924SOL     OW66603   1.880   0.682   2.106
54924SOL    HW166604   1.801   0.733   2.117
54924SOL    HW266605   1.928   0.693   2.188
54925SOL     OW66606   4.046   6.711   6.952
54925SOL    HW166607   3.953   6.722   6.971
54925SOL    HW266608   4.090   6.769   7.014
54926SOL     OW66609   3.787   8.059   4.601
54926SOL    HW166610   3.755   8.036   4.688
54926SOL    HW266611   3.867   8.109   4.617
54927SOL     OW66612   7.833  12.126  12.340
54927SOL    HW166613   7.843  12.041  12.298
54927SOL    HW266614   7.820  12.106  12.433
54928SOL     OW66615   9.133   5.186   0.943
54928SOL    HW166616   9.136   5.174   0.849
54928SOL    HW266617   9.145   5.280   0.956
54929SOL     OW66618  11.037   3.350  14.863
54929SOL    HW166619  11.114   3.405  14.851
54929SOL    HW266620  11.028   3.300  14.782
54930SOL     OW66621   7.058   2.170  13.759
54930SOL    HW166622   7.137   2.117  13.756
54930SOL    HW266623   7.071   2.228  13.834
54931SOL     OW66624   1.168   2.884   4.912
54931SOL    HW166625   1.245   2.905   4.966
54931SOL    HW266626   1.104   2.951   4.935
54932SOL     OW66627   0.201   0.684   8.101
54932SOL    HW166628   0.229   0.745   8.033
54932SOL    HW266629   0.136   0.628   8.058
54933SOL     OW66630   1.106   7.410   6.699
54933SOL    HW166631   1.060   7.350   6.641
54933SOL    HW266632   1.145   7.475   6.641
54934SOL     OW66633  14.854  14.547   0.515
54934SOL    HW166634  14.792  14.479   0.490
54934SOL    HW266635   0.059  14.499   0.545
54935SOL     OW66636   1.237   2.853   4.020
54935SOL    HW166637   1.326   2.874   4.049
54935SOL    HW266638   1.210   2.930   3.969
54936SOL     OW66639   3.815   6.527   3.156
54936SOL    HW166640   3.734   6.560   3.196
54936SOL    HW266641   3.881   6.592   3.181
54937SOL     OW66642   7.374   1.214  10.102
54937SOL    HW166643   7.335   1.246  10.183
54937SOL    HW266644   7.365   1.287  10.040
54938SOL     OW66645   7.893   1.204   9.266
54938SOL    HW166646   7.865   1.172   9.180
54938SOL    HW266647   7.829   1.270   9.290
54939SOL     OW66648   6.977   8.936   4.839
54939SOL    HW166649   7.003   8.978   4.921
54939SOL    HW266650   7.039   8.864   4.828
54940SOL     OW66651   8.314   1.787   5.660
54940SOL    HW166652   8.406   1.802   5.637
54940SOL    HW266653   8.303   1.828   5.746
54941SOL     OW66654   8.763   9.842   3.645
54941SOL    HW166655   8.851   9.823   3.612
54941SOL    HW266656   8.732   9.759   3.679
54942SOL     OW66657   0.488   8.891   6.824
54942SOL    HW166658   0.464   8.980   6.797
54942SOL    HW266659   0.570   8.873   6.779
54943SOL     OW66660   3.269   9.272   1.627
54943SOL    HW166661   3.254   9.365   1.610
54943SOL    HW266662   3.347   9.270   1.681
54944SOL     OW66663   1.418   9.841  10.165
54944SOL    HW166664   1.386   9.880  10.083
54944SOL    HW266665   1.380   9.753  10.166
54945SOL     OW66666  13.405   6.840   4.187
54945SOL    HW166667  13.467   6.872   4.253
54945SOL    HW266668  13.395   6.913   4.127
54946SOL     OW66669   2.616   5.771   2.237
54946SOL    HW166670   2.626   5.750   2.330
54946SOL    HW266671   2.702   5.807   2.212
54947SOL     OW66672   4.741  12.921  12.698
54947SOL    HW166673   4.653  12.882  12.695
54947SOL    HW266674   4.792  12.861  12.751
54948SOL     OW66675  12.511   7.486   4.841
54948SOL    HW166676  12.598   7.450   4.857
54948SOL    HW266677  12.487   7.527   4.924
54949SOL     OW66678   4.133   2.423  14.772
54949SOL    HW166679   4.147   2.511  14.807
54949SOL    HW266680   4.083   2.437  14.692
54950SOL     OW66681   3.635  11.159  10.659
54950SOL    HW166682   3.609  11.251  10.656
54950SOL    HW266683   3.626  11.128  10.569
54951SOL     OW66684   8.086   0.786   7.328
54951SOL    HW166685   7.992   0.779   7.308
54951SOL    HW266686   8.130   0.753   7.250
54952SOL     OW66687   1.488   8.622  10.118
54952SOL    HW166688   1.463   8.530  10.111
54952SOL    HW266689   1.582   8.619  10.137
54953SOL     OW66690   1.604   5.888  11.630
54953SOL    HW166691   1.552   5.952  11.678
54953SOL    HW266692   1.604   5.810  11.684
54954SOL     OW66693   7.818   7.447   0.427
54954SOL    HW166694   7.813   7.525   0.483
54954SOL    HW266695   7.732   7.406   0.436
54955SOL     OW66696   9.271   9.387   0.297
54955SOL    HW166697   9.350   9.402   0.349
54955SOL    HW266698   9.286   9.436   0.216
54956SOL     OW66699  13.519   5.541  14.339
54956SOL    HW166700  13.600   5.569  14.382
54956SOL    HW266701  13.534   5.556  14.246
54957SOL     OW66702   2.342   8.415  12.842
54957SOL    HW166703   2.418   8.410  12.785
54957SOL    HW266704   2.277   8.463  12.791
54958SOL     OW66705   6.180  14.192   3.872
54958SOL    HW166706   6.168  14.284   3.896
54958SOL    HW266707   6.187  14.193   3.776
54959SOL     OW66708   1.575   5.333   6.166
54959SOL    HW166709   1.533   5.292   6.242
54959SOL    HW266710   1.580   5.426   6.187
54960SOL     OW66711   5.659   7.928  14.737
54960SOL    HW166712   5.679   7.930  14.643
54960SOL    HW266713   5.639   8.019  14.759
54961SOL     OW66714  10.835   0.018   8.199
54961SOL    HW166715  10.777   0.073   8.252
54961SOL    HW266716  10.790   0.008   8.116
54962SOL     OW66717   1.545  11.093   4.281
54962SOL    HW166718   1.577  11.181   4.260
54962SOL    HW266719   1.472  11.108   4.341
54963SOL     OW66720  10.138   1.556   0.379
54963SOL    HW166721  10.044   1.548   0.396
54963SOL    HW266722  10.165   1.632   0.430
54964SOL     OW66723   4.787   3.269   8.782
54964SOL    HW166724   4.804   3.269   8.876
54964SOL    HW266725   4.825   3.350   8.751
54965SOL     OW66726   1.035   9.863  12.186
54965SOL    HW166727   0.957   9.810  12.169
54965SOL    HW266728   1.052   9.907  12.103
54966SOL     OW66729  12.380   8.992   2.135
54966SOL    HW166730  12.331   8.984   2.217
54966SOL    HW266731  12.468   8.964   2.157
54967SOL     OW66732   4.371  14.712   6.667
54967SOL    HW166733   4.412  14.776   6.608
54967SOL    HW266734   4.277  14.726   6.656
54968SOL     OW66735   5.435  10.897  14.609
54968SOL    HW166736   5.491  10.909  14.533
54968SOL    HW266737   5.470  10.819  14.652
54969SOL     OW66738   6.787   7.157  11.675
54969SOL    HW166739   6.721   7.093  11.647
54969SOL    HW266740   6.866   7.105  11.687
54970SOL     OW66741   1.696   9.015   3.068
54970SOL    HW166742   1.646   9.072   3.010
54970SOL    HW266743   1.740   8.954   3.009
54971SOL     OW66744   7.407  12.464  11.642
54971SOL    HW166745   7.491  12.485  11.682
54971SOL    HW266746   7.429  12.429  11.556
54972SOL     OW66747   3.948   5.067   2.973
54972SOL    HW166748   3.933   5.160   2.991
54972SOL    HW266749   3.925   5.022   3.054
54973SOL     OW66750   4.007  11.382   2.307
54973SOL    HW166751   4.047  11.469   2.311
54973SOL    HW266752   4.032  11.340   2.389
54974SOL     OW66753   8.162   8.015   0.990
54974SOL    HW166754   8.159   7.959   1.068
54974SOL    HW266755   8.092   7.982   0.934
54975SOL     OW66756   6.933   2.635   5.275
54975SOL    HW166757   6.916   2.715   5.225
54975SOL    HW266758   7.029   2.629   5.278
54976SOL     OW66759  10.920  13.257  13.074
54976SOL    HW166760  10.939  13.313  12.999
54976SOL    HW266761  10.953  13.306  13.149
54977SOL     OW66762   3.082   9.350   9.011
54977SOL    HW166763   3.101   9.407   8.936
54977SOL    HW266764   3.047   9.409   9.078
54978SOL     OW66765   7.913   1.704   2.510
54978SOL    HW166766   7.836   1.648   2.510
54978SOL    HW266767   7.969   1.668   2.579
54979SOL     OW66768   2.841  14.004   3.066
54979SOL    HW166769   2.868  14.055   3.142
54979SOL    HW266770   2.864  13.913   3.088
54980SOL     OW66771   2.071  10.377   5.180
54980SOL    HW166772   2.034  10.423   5.105
54980SOL    HW266773   2.037  10.288   5.172
54981SOL     OW66774  13.971   9.282   9.298
54981SOL    HW166775  14.037   9.319   9.357
54981SOL    HW266776  13.887   9.301   9.341
54982SOL     OW66777   1.946  13.480  13.374
54982SOL    HW166778   2.005  13.544  13.334
54982SOL    HW266779   1.862  13.492  13.329
54983SOL     OW66780   3.906   6.190   7.190
54983SOL    HW166781   3.970   6.153   7.252
54983SOL    HW266782   3.822   6.157   7.220
54984SOL     OW66783   4.050   8.311  12.751
54984SOL    HW166784   4.121   8.338  12.693
54984SOL    HW266785   4.060   8.217  12.761
54985SOL     OW66786   5.808   1.401   5.546
54985SOL    HW166787   5.835   1.381   5.635
54985SOL    HW266788   5.881   1.452   5.510
54986SOL     OW66789   1.069  12.727   1.398
54986SOL    HW166790   1.010  12.659   1.431
54986SOL    HW266791   1.010  12.793   1.361
54987SOL     OW66792   1.400  10.519   9.428
54987SOL    HW166793   1.389  10.473   9.511
54987SOL    HW266794   1.339  10.592   9.432
54988SOL     OW66795  14.165   0.700   1.867
54988SOL    HW166796  14.249   0.736   1.841
54988SOL    HW266797  14.150   0.627   1.807
54989SOL     OW66798   1.980   1.587   1.257
54989SOL    HW166799   1.979   1.656   1.190
54989SOL    HW266800   2.043   1.523   1.224
54990SOL     OW66801   7.307   1.650  12.808
54990SOL    HW166802   7.303   1.733  12.855
54990SOL    HW266803   7.241   1.595  12.850
54991SOL     OW66804   6.024  14.760   8.861
54991SOL    HW166805   6.111  14.722   8.843
54991SOL    HW266806   6.038  14.855   8.858
54992SOL     OW66807   5.453  12.378  10.811
54992SOL    HW166808   5.515  12.424  10.868
54992SOL    HW266809   5.368  12.416  10.833
54993SOL     OW66810   3.962  12.591  12.217
54993SOL    HW166811   3.954  12.570  12.310
54993SOL    HW266812   3.929  12.513  12.171
54994SOL     OW66813   8.843  13.455  11.903
54994SOL    HW166814   8.821  13.407  11.823
54994SOL    HW266815   8.805  13.542  11.889
54995SOL     OW66816  14.783   4.023   9.264
54995SOL    HW166817  14.709   3.998   9.319
54995SOL    HW266818  14.860   4.004   9.317
54996SOL     OW66819  14.481   3.885  12.076
54996SOL    HW166820  14.491   3.873  11.982
54996SOL    HW266821  14.570   3.886  12.111
54997SOL     OW66822   3.846   3.675   1.060
54997SOL    HW166823   3.839   3.585   1.028
54997SOL    HW266824   3.771   3.720   1.023
54998SOL     OW66825   9.530   6.499   1.408
54998SOL    HW166826   9.544   6.435   1.338
54998SOL    HW266827   9.457   6.464   1.458
54999SOL     OW66828  12.908   7.376   8.262
54999SOL    HW166829  12.878   7.315   8.330
54999SOL    HW266830  12.885   7.334   8.179
55000SOL     OW66831  10.425   3.645  10.199
55000SOL    HW166832  10.485   3.672  10.268
55000SOL    HW266833  10.445   3.553  10.184
55001SOL     OW66834   4.665  10.083  13.337
55001SOL    HW166835   4.747  10.039  13.314
55001SOL    HW266836   4.654  10.151  13.270
55002SOL     OW66837  13.722   5.272   8.328
55002SOL    HW166838  13.628   5.268   8.312
55002SOL    HW266839  13.746   5.362   8.306
55003SOL     OW66840   8.281  12.528   5.577
55003SOL    HW166841   8.271  12.496   5.487
55003SOL    HW266842   8.365  12.573   5.577
55004SOL     OW66843  10.915   9.907   1.667
55004SOL    HW166844  10.863   9.966   1.722
55004SOL    HW266845  11.003   9.913   1.704
55005SOL     OW66846  14.726  12.513   0.986
55005SOL    HW166847  14.762  12.592   1.027
55005SOL    HW266848  14.734  12.445   1.054
55006SOL     OW66849   7.771   1.414  10.421
55006SOL    HW166850   7.820   1.340  10.456
55006SOL    HW266851   7.829   1.489  10.432
55007SOL     OW66852   9.945  12.877  14.480
55007SOL    HW166853  10.024  12.893  14.531
55007SOL    HW266854   9.888  12.827  14.539
55008SOL     OW66855   5.949   1.404   8.233
55008SOL    HW166856   5.906   1.462   8.170
55008SOL    HW266857   5.885   1.392   8.302
55009SOL     OW66858  14.157   3.959  14.805
55009SOL    HW166859  14.088   3.939  14.743
55009SOL    HW266860  14.116   4.019  14.867
55010SOL     OW66861   6.440  10.806  14.006
55010SOL    HW166862   6.500  10.733  14.022
55010SOL    HW266863   6.354  10.772  14.027
55011SOL     OW66864  14.242   8.969   5.403
55011SOL    HW166865  14.227   9.023   5.481
55011SOL    HW266866  14.269   9.030   5.335
55012SOL     OW66867   7.049  12.136   5.385
55012SOL    HW166868   7.044  12.160   5.293
55012SOL    HW266869   7.033  12.041   5.385
55013SOL     OW66870   2.783   9.923   0.446
55013SOL    HW166871   2.841   9.965   0.382
55013SOL    HW266872   2.695   9.952   0.420
55014SOL     OW66873   5.782   2.523   0.098
55014SOL    HW166874   5.738   2.572   0.167
55014SOL    HW266875   5.850   2.582   0.066
55015SOL     OW66876   4.126   6.877   9.230
55015SOL    HW166877   4.094   6.788   9.216
55015SOL    HW266878   4.150   6.908   9.143
55016SOL     OW66879   3.240   6.522  10.895
55016SOL    HW166880   3.178   6.478  10.954
55016SOL    HW266881   3.262   6.456  10.830
55017SOL     OW66882  11.161   3.260   7.791
55017SOL    HW166883  11.127   3.170   7.799
55017SOL    HW266884  11.211   3.274   7.872
55018SOL     OW66885   8.351   9.577   1.776
55018SOL    HW166886   8.270   9.529   1.793
55018SOL    HW266887   8.327   9.669   1.783
55019SOL     OW66888   8.251   0.142  14.201
55019SOL    HW166889   8.293   0.123  14.117
55019SOL    HW266890   8.222   0.057  14.233
55020SOL     OW66891  12.848   6.428  13.018
55020SOL    HW166892  12.840   6.513  13.060
55020SOL    HW266893  12.764   6.414  12.975
55021SOL     OW66894  13.358   7.427   0.466
55021SOL    HW166895  13.413   7.506   0.462
55021SOL    HW266896  13.403   7.370   0.528
55022SOL     OW66897   0.334   3.792  10.986
55022SOL    HW166898   0.282   3.855  10.936
55022SOL    HW266899   0.414   3.839  11.009
55023SOL     OW66900   1.290  13.293   2.162
55023SOL    HW166901   1.381  13.267   2.175
55023SOL    HW266902   1.239  13.224   2.206
55024SOL     OW66903   5.167  10.638   8.454
55024SOL    HW166904   5.086  10.627   8.404
55024SOL    HW266905   5.194  10.728   8.435
55025SOL     OW66906   0.073   6.056   0.639
55025SOL    HW166907   0.125   6.130   0.610
55025SOL    HW266908  14.858   6.092   0.655
55026SOL     OW66909  12.411   2.918   8.894
55026SOL    HW166910  12.449   2.832   8.913
55026SOL    HW266911  12.342   2.929   8.959
55027SOL     OW66912  12.843  12.520   9.259
55027SOL    HW166913  12.839  12.596   9.201
55027SOL    HW266914  12.757  12.519   9.302
55028SOL     OW66915  11.917  10.142   0.992
55028SOL    HW166916  11.955  10.216   0.944
55028SOL    HW266917  11.865  10.096   0.927
55029SOL     OW66918  13.173   9.370  12.802
55029SOL    HW166919  13.159   9.307  12.731
55029SOL    HW266920  13.267   9.387  12.800
55030SOL     OW66921   1.820  10.509  14.101
55030SOL    HW166922   1.841  10.598  14.073
55030SOL    HW266923   1.848  10.454  14.028
55031SOL     OW66924  13.160  11.313   4.042
55031SOL    HW166925  13.158  11.224   4.079
55031SOL    HW266926  13.117  11.367   4.108
55032SOL     OW66927  12.682  10.711  12.951
55032SOL    HW166928  12.774  10.724  12.930
55032SOL    HW266929  12.662  10.780  13.015
55033SOL     OW66930   8.009  13.244  13.189
55033SOL    HW166931   8.013  13.169  13.129
55033SOL    HW266932   8.057  13.215  13.266
55034SOL     OW66933  12.413   9.263   7.297
55034SOL    HW166934  12.363   9.233   7.373
55034SOL    HW266935  12.432   9.183   7.248
55035SOL     OW66936   6.040   8.294   1.379
55035SOL    HW166937   6.093   8.363   1.339
55035SOL    HW266938   6.079   8.212   1.349
55036SOL     OW66939  10.367   0.650   4.993
55036SOL    HW166940  10.368   0.730   4.940
55036SOL    HW266941  10.307   0.669   5.065
55037SOL     OW66942  14.110   4.421   1.786
55037SOL    HW166943  14.083   4.503   1.744
55037SOL    HW266944  14.204   4.432   1.800
55038SOL     OW66945   3.475  12.530  12.669
55038SOL    HW166946   3.427  12.474  12.730
55038SOL    HW266947   3.457  12.491  12.583
55039SOL     OW66948  10.561  12.823   3.177
55039SOL    HW166949  10.612  12.887   3.128
55039SOL    HW266950  10.587  12.739   3.141
55040SOL     OW66951   0.769   4.505   7.806
55040SOL    HW166952   0.693   4.448   7.794
55040SOL    HW266953   0.745   4.586   7.761
55041SOL     OW66954   9.991   6.928   2.639
55041SOL    HW166955  10.001   6.966   2.552
55041SOL    HW266956  10.030   6.841   2.632
55042SOL     OW66957   2.339   8.526   0.876
55042SOL    HW166958   2.397   8.576   0.934
55042SOL    HW266959   2.259   8.578   0.871
55043SOL     OW66960   4.888   6.348   3.816
55043SOL    HW166961   4.906   6.271   3.869
55043SOL    HW266962   4.828   6.400   3.869
55044SOL     OW66963   5.646   7.903   9.028
55044SOL    HW166964   5.646   7.807   9.029
55044SOL    HW266965   5.699   7.928   9.104
55045SOL     OW66966   0.414   4.340   5.330
55045SOL    HW166967   0.343   4.330   5.394
55045SOL    HW266968   0.458   4.255   5.330
55046SOL     OW66969  14.414   9.580   3.578
55046SOL    HW166970  14.487   9.615   3.526
55046SOL    HW266971  14.348   9.649   3.578
55047SOL     OW66972   5.408  12.147  10.277
55047SOL    HW166973   5.423  12.212  10.345
55047SOL    HW266974   5.316  12.159  10.253
55048SOL     OW66975  14.579   0.773   3.969
55048SOL    HW166976  14.622   0.688   3.979
55048SOL    HW266977  14.584   0.792   3.875
55049SOL     OW66978   6.173   1.642   0.755
55049SOL    HW166979   6.204   1.731   0.773
55049SOL    HW266980   6.093   1.634   0.808
55050SOL     OW66981   5.058   8.754   5.964
55050SOL    HW166982   5.130   8.692   5.958
55050SOL    HW266983   5.030   8.750   6.056
55051SOL     OW66984  11.008   8.085   4.017
55051SOL    HW166985  11.094   8.127   4.021
55051SOL    HW266986  10.948   8.156   3.992
55052SOL     OW66987  13.000  12.827   3.006
55052SOL    HW166988  13.002  12.885   3.082
55052SOL    HW266989  12.983  12.740   3.043
55053SOL     OW66990   7.018  10.127  11.896
55053SOL    HW166991   7.101  10.137  11.850
55053SOL    HW266992   6.952  10.143  11.829
55054SOL     OW66993  12.405   9.798   1.868
55054SOL    HW166994  12.482   9.743   1.878
55054SOL    HW266995  12.399   9.815   1.774
55055SOL     OW66996   3.813   0.428  12.667
55055SOL    HW166997   3.846   0.408  12.579
55055SOL    HW266998   3.884   0.400  12.725
55056SOL     OW66999   0.762   6.334   9.034
55056SOL    HW167000   0.789   6.339   9.125
55056SOL    HW267001   0.844   6.332   8.985
55057SOL     OW67002   8.777  11.514   3.162
55057SOL    HW167003   8.852  11.486   3.110
55057SOL    HW267004   8.712  11.445   3.152
55058SOL     OW67005   3.385   7.480   3.584
55058SOL    HW167006   3.427   7.551   3.535
55058SOL    HW267007   3.314   7.450   3.526
55059SOL     OW67008  12.830   1.977   4.792
55059SOL    HW167009  12.800   2.036   4.861
55059SOL    HW267010  12.798   2.016   4.711
55060SOL     OW67011   8.657  13.405   0.504
55060SOL    HW167012   8.690  13.374   0.420
55060SOL    HW267013   8.663  13.328   0.561
55061SOL     OW67014   1.020   9.329   9.412
55061SOL    HW167015   1.081   9.403   9.410
55061SOL    HW267016   0.949   9.354   9.352
55062SOL     OW67017   6.198   6.375  13.647
55062SOL    HW167018   6.248   6.305  13.688
55062SOL    HW267019   6.167   6.337  13.565
55063SOL     OW67020   4.815   7.165   9.604
55063SOL    HW167021   4.808   7.163   9.699
55063SOL    HW267022   4.789   7.077   9.576
55064SOL     OW67023   2.482   7.839  10.169
55064SOL    HW167024   2.462   7.801  10.255
55064SOL    HW267025   2.545   7.778  10.130
55065SOL     OW67026   5.943  14.606   5.170
55065SOL    HW167027   5.921  14.639   5.257
55065SOL    HW267028   5.973  14.517   5.185
55066SOL     OW67029   4.507   1.998   4.339
55066SOL    HW167030   4.595   1.994   4.304
55066SOL    HW267031   4.519   2.013   4.433
55067SOL     OW67032  12.254  12.667  11.604
55067SOL    HW167033  12.263  12.740  11.665
55067SOL    HW267034  12.344  12.647  11.576
55068SOL     OW67035  10.861  10.231   3.849
55068SOL    HW167036  10.816  10.229   3.933
55068SOL    HW267037  10.882  10.139   3.831
55069SOL     OW67038   4.065  14.285   4.916
55069SOL    HW167039   4.086  14.324   4.831
55069SOL    HW267040   4.121  14.207   4.921
55070SOL     OW67041  10.243  14.840   0.501
55070SOL    HW167042  10.244  14.756   0.546
55070SOL    HW267043  10.151  14.854   0.478
55071SOL     OW67044  12.832   6.536   6.333
55071SOL    HW167045  12.749   6.583   6.322
55071SOL    HW267046  12.873   6.577   6.409
55072SOL     OW67047   6.841   8.053  13.108
55072SOL    HW167048   6.804   8.067  13.021
55072SOL    HW267049   6.859   8.141  13.141
55073SOL     OW67050   0.429   2.762   0.548
55073SOL    HW167051   0.516   2.750   0.509
55073SOL    HW267052   0.427   2.854   0.574
55074SOL     OW67053   3.563   2.744   0.335
55074SOL    HW167054   3.592   2.827   0.373
55074SOL    HW267055   3.637   2.685   0.345
55075SOL     OW67056   9.635  10.366   2.163
55075SOL    HW167057   9.648  10.443   2.219
55075SOL    HW267058   9.709  10.309   2.183
55076SOL     OW67059   4.951   5.901   0.994
55076SOL    HW167060   4.958   5.991   0.961
55076SOL    HW267061   5.007   5.850   0.935
55077SOL     OW67062   9.777   6.863   1.483
55077SOL    HW167063   9.701   6.903   1.527
55077SOL    HW267064   9.785   6.911   1.401
55078SOL     OW67065   4.544   6.016   6.790
55078SOL    HW167066   4.521   6.107   6.804
55078SOL    HW267067   4.463   5.974   6.763
55079SOL     OW67068   5.020   5.380   8.515
55079SOL    HW167069   5.012   5.333   8.432
55079SOL    HW267070   5.107   5.356   8.548
55080SOL     OW67071   7.540  12.366   7.896
55080SOL    HW167072   7.475  12.298   7.879
55080SOL    HW267073   7.617  12.318   7.925
55081SOL     OW67074   7.923  13.947   4.690
55081SOL    HW167075   7.997  13.931   4.749
55081SOL    HW267076   7.913  14.042   4.689
55082SOL     OW67077   1.284   7.242   1.686
55082SOL    HW167078   1.273   7.175   1.619
55082SOL    HW267079   1.276   7.195   1.769
55083SOL     OW67080  14.527  11.069  13.422
55083SOL    HW167081  14.508  11.145  13.367
55083SOL    HW267082  14.448  11.056  13.474
55084SOL     OW67083  12.057   2.700   6.255
55084SOL    HW167084  11.982   2.739   6.301
55084SOL    HW267085  12.132   2.720   6.311
55085SOL     OW67086   2.889  10.654  13.433
55085SOL    HW167087   2.863  10.608  13.353
55085SOL    HW267088   2.806  10.676  13.475
55086SOL     OW67089  14.033   0.498  10.694
55086SOL    HW167090  14.090   0.471  10.622
55086SOL    HW267091  14.058   0.589  10.712
55087SOL     OW67092   3.456   6.701   1.255
55087SOL    HW167093   3.450   6.688   1.160
55087SOL    HW267094   3.520   6.771   1.266
55088SOL     OW67095  14.107  13.937   3.859
55088SOL    HW167096  14.123  14.001   3.790
55088SOL    HW267097  14.192  13.928   3.902
55089SOL     OW67098   2.583  12.225  12.681
55089SOL    HW167099   2.527  12.152  12.708
55089SOL    HW267100   2.587  12.282  12.758
55090SOL     OW67101   1.706   6.652   4.875
55090SOL    HW167102   1.658   6.734   4.885
55090SOL    HW267103   1.679   6.599   4.950
55091SOL     OW67104   3.275  14.246  11.233
55091SOL    HW167105   3.273  14.164  11.185
55091SOL    HW267106   3.255  14.222  11.323
55092SOL     OW67107   7.213  11.050   0.215
55092SOL    HW167108   7.303  11.033   0.243
55092SOL    HW267109   7.192  11.136   0.250
55093SOL     OW67110   8.428   3.788  10.932
55093SOL    HW167111   8.441   3.776  10.838
55093SOL    HW267112   8.503   3.841  10.959
55094SOL     OW67113   4.031  11.327   8.747
55094SOL    HW167114   4.010  11.363   8.661
55094SOL    HW267115   3.951  11.339   8.798
55095SOL     OW67116  14.206   4.147  10.958
55095SOL    HW167117  14.185   4.155  11.051
55095SOL    HW267118  14.121   4.151  10.914
55096SOL     OW67119  12.195   1.885   6.544
55096SOL    HW167120  12.127   1.823   6.518
55096SOL    HW267121  12.184   1.958   6.483
55097SOL     OW67122  11.308  12.214   8.497
55097SOL    HW167123  11.394  12.188   8.531
55097SOL    HW267124  11.268  12.132   8.469
55098SOL     OW67125   5.599   2.333   3.831
55098SOL    HW167126   5.622   2.335   3.738
55098SOL    HW267127   5.681   2.354   3.876
55099SOL     OW67128   2.933   6.673   7.813
55099SOL    HW167129   2.908   6.691   7.723
55099SOL    HW267130   3.017   6.719   7.825
55100SOL     OW67131  10.420  12.501   9.861
55100SOL    HW167132  10.430  12.586   9.818
55100SOL    HW267133  10.328  12.479   9.850
55101SOL     OW67134   6.503   9.738   3.277
55101SOL    HW167135   6.410   9.723   3.297
55101SOL    HW267136   6.504   9.822   3.231
55102SOL     OW67137  11.209  13.075   5.618
55102SOL    HW167138  11.164  12.993   5.640
55102SOL    HW267139  11.263  13.094   5.694
55103SOL     OW67140  14.862  14.280   0.146
55103SOL    HW167141   0.043  14.201   0.154
55103SOL    HW267142  14.798  14.273   0.217
55104SOL     OW67143  12.074   4.508   7.777
55104SOL    HW167144  12.164   4.479   7.788
55104SOL    HW267145  12.028   4.474   7.853
55105SOL     OW67146   4.411   2.183   7.644
55105SOL    HW167147   4.434   2.182   7.551
55105SOL    HW267148   4.494   2.164   7.689
55106SOL     OW67149   1.664   4.594   8.115
55106SOL    HW167150   1.585   4.604   8.063
55106SOL    HW267151   1.649   4.516   8.168
55107SOL     OW67152  12.598   1.839  13.156
55107SOL    HW167153  12.667   1.816  13.219
55107SOL    HW267154  12.524   1.865  13.209
55108SOL     OW67155  13.668  13.457   5.445
55108SOL    HW167156  13.701  13.457   5.355
55108SOL    HW267157  13.579  13.494   5.438
55109SOL     OW67158  10.813   5.042   5.440
55109SOL    HW167159  10.802   4.947   5.435
55109SOL    HW267160  10.890   5.054   5.496
55110SOL     OW67161  14.405   4.150   7.432
55110SOL    HW167162  14.468   4.205   7.385
55110SOL    HW267163  14.393   4.074   7.376
55111SOL     OW67164  10.179  10.762   7.317
55111SOL    HW167165  10.085  10.783   7.324
55111SOL    HW267166  10.197  10.707   7.393
55112SOL     OW67167  10.334   1.714   9.878
55112SOL    HW167168  10.356   1.642   9.818
55112SOL    HW267169  10.340   1.793   9.824
55113SOL     OW67170  13.221   2.573   3.567
55113SOL    HW167171  13.231   2.612   3.480
55113SOL    HW267172  13.308   2.538   3.588
55114SOL     OW67173   1.202   9.911  14.386
55114SOL    HW167174   1.270   9.899  14.453
55114SOL    HW267175   1.143   9.976  14.423
55115SOL     OW67176   8.266   1.365   6.934
55115SOL    HW167177   8.268   1.273   6.906
55115SOL    HW267178   8.335   1.407   6.882
55116SOL     OW67179   8.869   0.800   2.949
55116SOL    HW167180   8.785   0.832   2.983
55116SOL    HW267181   8.927   0.876   2.954
55117SOL     OW67182  12.394   1.458  13.917
55117SOL    HW167183  12.310   1.416  13.899
55117SOL    HW267184  12.455   1.385  13.928
55118SOL     OW67185   7.798  12.455   9.338
55118SOL    HW167186   7.886  12.479   9.311
55118SOL    HW267187   7.810  12.411   9.422
55119SOL     OW67188  10.366   3.223   0.291
55119SOL    HW167189  10.442   3.282   0.291
55119SOL    HW267190  10.352   3.201   0.199
55120SOL     OW67191  13.762   0.582   5.403
55120SOL    HW167192  13.796   0.598   5.315
55120SOL    HW267193  13.774   0.488   5.417
55121SOL     OW67194  13.758   3.354  11.413
55121SOL    HW167195  13.724   3.289  11.351
55121SOL    HW267196  13.852   3.335  11.419
55122SOL     OW67197   2.474  12.092   1.901
55122SOL    HW167198   2.395  12.072   1.952
55122SOL    HW267199   2.542  12.039   1.941
55123SOL     OW67200   6.737  11.109   5.255
55123SOL    HW167201   6.696  11.064   5.328
55123SOL    HW267202   6.772  11.190   5.293
55124SOL     OW67203   5.318  12.912  10.558
55124SOL    HW167204   5.330  12.980  10.492
55124SOL    HW267205   5.394  12.854  10.547
55125SOL     OW67206   6.907   1.210  11.027
55125SOL    HW167207   6.972   1.141  11.010
55125SOL    HW267208   6.855   1.214  10.947
55126SOL     OW67209  11.728   8.471   1.725
55126SOL    HW167210  11.677   8.520   1.789
55126SOL    HW267211  11.784   8.414   1.778
55127SOL     OW67212   2.074   8.118   6.219
55127SOL    HW167213   2.035   8.093   6.135
55127SOL    HW267214   2.067   8.214   6.220
55128SOL     OW67215   2.863   6.016   8.191
55128SOL    HW167216   2.791   5.962   8.223
55128SOL    HW267217   2.826   6.104   8.183
55129SOL     OW67218  11.038  12.582   0.916
55129SOL    HW167219  10.976  12.620   0.854
55129SOL    HW267220  11.105  12.541   0.861
55130SOL     OW67221  12.613  11.702  12.016
55130SOL    HW167222  12.540  11.651  12.050
55130SOL    HW267223  12.685  11.640  12.010
55131SOL     OW67224  10.899   8.816   1.961
55131SOL    HW167225  10.828   8.823   2.025
55131SOL    HW267226  10.973   8.784   2.011
55132SOL     OW67227   9.541   8.235   7.681
55132SOL    HW167228   9.512   8.327   7.677
55132SOL    HW267229   9.631   8.240   7.711
55133SOL     OW67230   9.797  12.495   3.033
55133SOL    HW167231   9.776  12.564   2.970
55133SOL    HW267232   9.716  12.444   3.041
55134SOL     OW67233   6.609   9.444  10.476
55134SOL    HW167234   6.632   9.376  10.412
55134SOL    HW267235   6.655   9.419  10.556
55135SOL     OW67236  12.594   2.843   7.619
55135SOL    HW167237  12.521   2.856   7.680
55135SOL    HW267238  12.667   2.891   7.658
55136SOL     OW67239  12.245   3.973   1.047
55136SOL    HW167240  12.192   3.953   0.970
55136SOL    HW267241  12.331   3.994   1.012
55137SOL     OW67242   9.431   1.307   0.301
55137SOL    HW167243   9.448   1.218   0.271
55137SOL    HW267244   9.357   1.337   0.248
55138SOL     OW67245   8.756   9.414   8.549
55138SOL    HW167246   8.773   9.467   8.471
55138SOL    HW267247   8.808   9.334   8.535
55139SOL     OW67248   0.805   4.163   1.143
55139SOL    HW167249   0.759   4.085   1.113
55139SOL    HW267250   0.746   4.235   1.122
55140SOL     OW67251   2.274  12.400  13.478
55140SOL    HW167252   2.190  12.359  13.456
55140SOL    HW267253   2.326  12.329  13.515
55141SOL     OW67254  10.833  11.173   7.487
55141SOL    HW167255  10.911  11.156   7.433
55141SOL    HW267256  10.842  11.115   7.562
55142SOL     OW67257   8.737   2.666   4.812
55142SOL    HW167258   8.664   2.605   4.798
55142SOL    HW267259   8.761   2.694   4.724
55143SOL     OW67260   8.897  10.259   3.566
55143SOL    HW167261   8.971  10.202   3.586
55143SOL    HW267262   8.921  10.343   3.604
55144SOL     OW67263   4.177  12.186   0.631
55144SOL    HW167264   4.111  12.148   0.573
55144SOL    HW267265   4.182  12.126   0.705
55145SOL     OW67266   3.297   8.916  14.629
55145SOL    HW167267   3.316   9.010  14.630
55145SOL    HW267268   3.355   8.880  14.696
55146SOL     OW67269   8.445   2.921   5.782
55146SOL    HW167270   8.407   2.882   5.861
55146SOL    HW267271   8.464   3.011   5.806
55147SOL     OW67272   6.461   1.944  12.884
55147SOL    HW167273   6.389   1.926  12.944
55147SOL    HW267274   6.421   1.943  12.797
55148SOL     OW67275   9.173   5.040   5.661
55148SOL    HW167276   9.153   4.959   5.615
55148SOL    HW267277   9.266   5.032   5.685
55149SOL     OW67278   7.625   4.461   0.943
55149SOL    HW167279   7.573   4.407   1.003
55149SOL    HW267280   7.694   4.403   0.913
55150SOL     OW67281   4.108  11.979   8.386
55150SOL    HW167282   4.097  11.900   8.332
55150SOL    HW267283   4.176  11.956   8.448
55151SOL     OW67284  10.381  12.085   7.470
55151SOL    HW167285  10.472  12.086   7.443
55151SOL    HW267286  10.356  11.993   7.468
55152SOL     OW67287   6.068   1.692   2.707
55152SOL    HW167288   5.978   1.725   2.717
55152SOL    HW267289   6.083   1.691   2.613
55153SOL     OW67290  13.195   2.062  10.003
55153SOL    HW167291  13.109   2.024  10.025
55153SOL    HW267292  13.258   2.001  10.042
55154SOL     OW67293  14.634   7.137   5.918
55154SOL    HW167294  14.606   7.159   6.007
55154SOL    HW267295  14.728   7.160   5.917
55155SOL     OW67296   6.670  11.650   8.994
55155SOL    HW167297   6.717  11.636   8.912
55155SOL    HW267298   6.594  11.702   8.970
55156SOL     OW67299  13.961   8.249   8.321
55156SOL    HW167300  14.015   8.176   8.292
55156SOL    HW267301  13.966   8.245   8.417
55157SOL     OW67302   6.745   0.111   6.494
55157SOL    HW167303   6.819   0.140   6.547
55157SOL    HW267304   6.778   0.112   6.404
55158SOL     OW67305   9.625   2.197  11.657
55158SOL    HW167306   9.705   2.150  11.679
55158SOL    HW267307   9.604   2.248  11.735
55159SOL     OW67308   0.540  10.245  10.357
55159SOL    HW167309   0.480  10.186  10.311
55159SOL    HW267310   0.548  10.209  10.445
55160SOL     OW67311   0.126   2.549   2.391
55160SOL    HW167312   0.172   2.567   2.309
55160SOL    HW267313   0.194   2.557   2.458
55161SOL     OW67314  13.187   4.380  13.929
55161SOL    HW167315  13.269   4.374  13.977
55161SOL    HW267316  13.202   4.449  13.864
55162SOL     OW67317  13.012  12.105   5.107
55162SOL    HW167318  13.052  12.189   5.127
55162SOL    HW267319  12.968  12.078   5.187
55163SOL     OW67320   6.410   9.842   1.356
55163SOL    HW167321   6.365   9.763   1.325
55163SOL    HW267322   6.480   9.856   1.293
55164SOL     OW67323  10.184   2.331   7.727
55164SOL    HW167324  10.218   2.399   7.784
55164SOL    HW267325  10.250   2.320   7.659
55165SOL     OW67326  10.209   4.353   3.869
55165SOL    HW167327  10.228   4.313   3.784
55165SOL    HW267328  10.264   4.306   3.931
55166SOL     OW67329  13.882  10.004  14.160
55166SOL    HW167330  13.797   9.975  14.127
55166SOL    HW267331  13.906  10.077  14.103
55167SOL     OW67332   0.025   8.429   8.844
55167SOL    HW167333   0.087   8.358   8.852
55167SOL    HW267334   0.019   8.466   8.932
55168SOL     OW67335   9.888   3.570   5.499
55168SOL    HW167336   9.920   3.544   5.585
55168SOL    HW267337   9.863   3.662   5.509
55169SOL     OW67338   7.693   8.260   7.996
55169SOL    HW167339   7.725   8.279   8.085
55169SOL    HW267340   7.690   8.345   7.953
55170SOL     OW67341  14.253   6.449   3.255
55170SOL    HW167342  14.185   6.501   3.210
55170SOL    HW267343  14.332   6.465   3.204
55171SOL     OW67344   4.671   9.291  10.978
55171SOL    HW167345   4.609   9.218  10.976
55171SOL    HW267346   4.635   9.350  11.044
55172SOL     OW67347   1.564   0.001   3.968
55172SOL    HW167348   1.489  14.837   3.921
55172SOL    HW267349   1.554   0.096   3.959
55173SOL     OW67350   0.362   9.156   2.787
55173SOL    HW167351   0.344   9.238   2.832
55173SOL    HW267352   0.448   9.129   2.820
55174SOL     OW67353   1.916   2.395  10.224
55174SOL    HW167354   1.891   2.308  10.191
55174SOL    HW267355   1.901   2.389  10.318
55175SOL     OW67356  12.153  13.385   1.209
55175SOL    HW167357  12.115  13.298   1.195
55175SOL    HW267358  12.242  13.378   1.175
55176SOL     OW67359  10.323   4.248   5.273
55176SOL    HW167360  10.316   4.322   5.334
55176SOL    HW267361  10.388   4.190   5.313
55177SOL     OW67362  11.523  12.821   4.425
55177SOL    HW167363  11.433  12.851   4.432
55177SOL    HW267364  11.554  12.814   4.515
55178SOL     OW67365   8.602  12.982   3.157
55178SOL    HW167366   8.630  13.049   3.219
55178SOL    HW267367   8.596  12.902   3.210
55179SOL     OW67368   2.568  11.508   1.396
55179SOL    HW167369   2.661  11.504   1.372
55179SOL    HW267370   2.556  11.596   1.431
55180SOL     OW67371   3.073   1.931   1.054
55180SOL    HW167372   3.057   2.017   1.014
55180SOL    HW267373   3.021   1.932   1.134
55181SOL     OW67374  10.804   2.166   3.689
55181SOL    HW167375  10.888   2.188   3.729
55181SOL    HW267376  10.827   2.139   3.600
55182SOL     OW67377   2.806  11.041  13.675
55182SOL    HW167378   2.805  11.022  13.582
55182SOL    HW267379   2.897  11.061  13.695
55183SOL     OW67380  14.147   3.392   5.010
55183SOL    HW167381  14.083   3.420   4.944
55183SOL    HW267382  14.193   3.473   5.034
55184SOL     OW67383  12.921   5.871   2.953
55184SOL    HW167384  12.965   5.806   3.008
55184SOL    HW267385  12.986   5.939   2.939
55185SOL     OW67386   3.643   7.103   2.140
55185SOL    HW167387   3.730   7.086   2.105
55185SOL    HW267388   3.584   7.082   2.067
55186SOL     OW67389   6.619  12.413   7.393
55186SOL    HW167390   6.605  12.505   7.372
55186SOL    HW267391   6.621  12.369   7.308
55187SOL     OW67392   8.690   7.236   4.565
55187SOL    HW167393   8.751   7.269   4.631
55187SOL    HW267394   8.741   7.170   4.517
55188SOL     OW67395  14.016  12.589  13.807
55188SOL    HW167396  14.055  12.653  13.866
55188SOL    HW267397  14.053  12.611  13.721
55189SOL     OW67398   4.363   4.429   1.692
55189SOL    HW167399   4.297   4.469   1.634
55189SOL    HW267400   4.323   4.348   1.722
55190SOL     OW67401   0.457   3.805  11.677
55190SOL    HW167402   0.503   3.722  11.692
55190SOL    HW267403   0.510   3.850  11.612
55191SOL     OW67404   3.406   1.197   0.816
55191SOL    HW167405   3.477   1.197   0.880
55191SOL    HW267406   3.437   1.256   0.747
55192SOL     OW67407   0.204   6.262   7.428
55192SOL    HW167408   0.293   6.266   7.463
55192SOL    HW267409   0.181   6.353   7.410
55193SOL     OW67410   8.895   7.438  12.971
55193SOL    HW167411   8.967   7.429  12.908
55193SOL    HW267412   8.906   7.365  13.031
55194SOL     OW67413  10.268   0.168  12.312
55194SOL    HW167414  10.348   0.212  12.341
55194SOL    HW267415  10.200   0.201  12.370
55195SOL     OW67416  14.262   5.916   9.465
55195SOL    HW167417  14.317   5.979   9.420
55195SOL    HW267418  14.323   5.861   9.514
55196SOL     OW67419  13.274  13.924   1.239
55196SOL    HW167420  13.356  13.876   1.255
55196SOL    HW267421  13.217  13.860   1.198
55197SOL     OW67422  13.738  14.286  14.113
55197SOL    HW167423  13.703  14.298  14.201
55197SOL    HW267424  13.700  14.204  14.083
55198SOL     OW67425   7.184  11.764   1.003
55198SOL    HW167426   7.220  11.816   1.075
55198SOL    HW267427   7.256  11.709   0.974
55199SOL     OW67428  13.928   0.099   5.943
55199SOL    HW167429  13.927   0.073   6.035
55199SOL    HW267430  13.865   0.171   5.937
55200SOL     OW67431   0.689  10.701  13.766
55200SOL    HW167432   0.604  10.709  13.724
55200SOL    HW267433   0.743  10.767  13.724
55201SOL     OW67434  13.765   9.494   7.857
55201SOL    HW167435  13.826   9.560   7.825
55201SOL    HW267436  13.680   9.521   7.822
55202SOL     OW67437   7.804  14.649   6.739
55202SOL    HW167438   7.790  14.718   6.674
55202SOL    HW267439   7.875  14.681   6.794
55203SOL     OW67440   7.121  10.290   5.301
55203SOL    HW167441   7.178  10.332   5.237
55203SOL    HW267442   7.041  10.270   5.252
55204SOL     OW67443  12.969   3.126   8.489
55204SOL    HW167444  12.989   3.112   8.582
55204SOL    HW267445  12.890   3.180   8.490
55205SOL     OW67446   6.167   2.969   1.465
55205SOL    HW167447   6.218   3.007   1.536
55205SOL    HW267448   6.118   2.897   1.505
55206SOL     OW67449   5.647  14.727   3.336
55206SOL    HW167450   5.669  14.806   3.286
55206SOL    HW267451   5.731  14.695   3.368
55207SOL     OW67452   7.614   5.464   9.534
55207SOL    HW167453   7.578   5.475   9.622
55207SOL    HW267454   7.555   5.513   9.477
55208SOL     OW67455   6.456  13.386   1.445
55208SOL    HW167456   6.407  13.343   1.374
55208SOL    HW267457   6.396  13.382   1.520
55209SOL     OW67458   1.235  13.240   9.919
55209SOL    HW167459   1.228  13.263  10.012
55209SOL    HW267460   1.317  13.191   9.913
55210SOL     OW67461  12.535  14.089   8.980
55210SOL    HW167462  12.533  14.178   8.944
55210SOL    HW267463  12.591  14.040   8.919
55211SOL     OW67464   5.952   0.117  11.930
55211SOL    HW167465   5.936   0.025  11.908
55211SOL    HW267466   6.028   0.142  11.878
55212SOL     OW67467   6.934   9.979   5.185
55212SOL    HW167468   6.958   9.924   5.110
55212SOL    HW267469   6.978   9.938   5.259
55213SOL     OW67470   6.080   0.064  13.635
55213SOL    HW167471   6.010   0.028  13.580
55213SOL    HW267472   6.161   0.029  13.597
55214SOL     OW67473   5.628   9.783   3.011
55214SOL    HW167474   5.659   9.694   3.030
55214SOL    HW267475   5.567   9.803   3.081
55215SOL     OW67476  11.690   4.070   1.526
55215SOL    HW167477  11.692   3.975   1.518
55215SOL    HW267478  11.609   4.088   1.574
55216SOL     OW67479   8.822   8.038   5.834
55216SOL    HW167480   8.745   8.009   5.787
55216SOL    HW267481   8.793   8.048   5.925
55217SOL     OW67482   0.074   1.698   9.613
55217SOL    HW167483   0.056   1.781   9.570
55217SOL    HW267484   0.123   1.647   9.548
55218SOL     OW67485   4.871  13.393   8.741
55218SOL    HW167486   4.795  13.417   8.689
55218SOL    HW267487   4.841  13.399   8.832
55219SOL     OW67488   1.449  11.867  12.752
55219SOL    HW167489   1.447  11.953  12.710
55219SOL    HW267490   1.362  11.857  12.791
55220SOL     OW67491  10.306  11.283   1.549
55220SOL    HW167492  10.344  11.281   1.461
55220SOL    HW267493  10.369  11.237   1.604
55221SOL     OW67494  13.055  11.193   1.628
55221SOL    HW167495  13.000  11.179   1.552
55221SOL    HW267496  13.141  11.215   1.592
55222SOL     OW67497  14.718  12.807  14.508
55222SOL    HW167498  14.624  12.796  14.519
55222SOL    HW267499  14.728  12.894  14.471
55223SOL     OW67500   1.465   9.515   2.543
55223SOL    HW167501   1.525   9.590   2.548
55223SOL    HW267502   1.434   9.515   2.453
55224SOL     OW67503  10.620   1.625   7.241
55224SOL    HW167504  10.638   1.613   7.148
55224SOL    HW267505  10.677   1.698   7.267
55225SOL     OW67506   1.228   3.884  13.474
55225SOL    HW167507   1.283   3.869  13.551
55225SOL    HW267508   1.287   3.921  13.409
55226SOL     OW67509  14.656   1.705   6.660
55226SOL    HW167510  14.732   1.655   6.632
55226SOL    HW267511  14.627   1.751   6.582
55227SOL     OW67512   9.887   8.947  13.911
55227SOL    HW167513   9.961   9.005  13.934
55227SOL    HW267514   9.809   8.999  13.932
55228SOL     OW67515   7.401   0.094  13.162
55228SOL    HW167516   7.487   0.135  13.156
55228SOL    HW267517   7.405   0.040  13.240
55229SOL     OW67518  11.694   8.707  10.919
55229SOL    HW167519  11.688   8.745  10.831
55229SOL    HW267520  11.748   8.770  10.968
55230SOL     OW67521   3.949   5.190   8.528
55230SOL    HW167522   3.918   5.251   8.595
55230SOL    HW267523   3.916   5.226   8.446
55231SOL     OW67524   3.281   6.558   0.007
55231SOL    HW167525   3.333   6.507  14.818
55231SOL    HW267526   3.249   6.632  14.828
55232SOL     OW67527  10.641   0.186   5.819
55232SOL    HW167528  10.607   0.154   5.735
55232SOL    HW267529  10.736   0.174   5.812
55233SOL     OW67530   1.653   5.282   0.133
55233SOL    HW167531   1.661   5.331   0.215
55233SOL    HW267532   1.561   5.291   0.108
55234SOL     OW67533   0.134   1.691  14.856
55234SOL    HW167534   0.114   1.601  14.828
55234SOL    HW267535   0.104   1.746  14.784
55235SOL     OW67536  13.999   0.520  10.977
55235SOL    HW167537  14.022   0.592  11.035
55235SOL    HW267538  14.041   0.541  10.893
55236SOL     OW67539   4.141  11.038  11.392
55236SOL    HW167540   4.084  11.056  11.466
55236SOL    HW267541   4.121  11.108  11.329
55237SOL     OW67542   4.599   6.574   4.982
55237SOL    HW167543   4.620   6.505   4.919
55237SOL    HW267544   4.681   6.587   5.030
55238SOL     OW67545   0.306   3.105  12.379
55238SOL    HW167546   0.345   3.019  12.397
55238SOL    HW267547   0.276   3.099  12.288
55239SOL     OW67548  11.939   9.567   5.300
55239SOL    HW167549  11.922   9.609   5.216
55239SOL    HW267550  12.021   9.606   5.330
55240SOL     OW67551   1.300   5.147   1.033
55240SOL    HW167552   1.282   5.075   0.972
55240SOL    HW267553   1.360   5.204   0.984
55241SOL     OW67554   9.624   0.513   9.047
55241SOL    HW167555   9.717   0.494   9.051
55241SOL    HW267556   9.617   0.587   8.987
55242SOL     OW67557  14.105   1.725   4.575
55242SOL    HW167558  14.137   1.729   4.665
55242SOL    HW267559  14.182   1.744   4.522
55243SOL     OW67560  10.587   0.363   6.898
55243SOL    HW167561  10.514   0.333   6.951
55243SOL    HW267562  10.549   0.385   6.814
55244SOL     OW67563  11.736  12.933   5.877
55244SOL    HW167564  11.766  12.984   5.802
55244SOL    HW267565  11.816  12.908   5.923
55245SOL     OW67566   5.738   1.012  11.776
55245SOL    HW167567   5.670   1.013  11.709
55245SOL    HW267568   5.720   0.933  11.827
55246SOL     OW67569   8.262   3.199   1.459
55246SOL    HW167570   8.311   3.270   1.500
55246SOL    HW267571   8.182   3.191   1.511
55247SOL     OW67572   8.918   8.689   4.609
55247SOL    HW167573   8.938   8.766   4.662
55247SOL    HW267574   9.002   8.644   4.599
55248SOL     OW67575  10.984  14.765   3.595
55248SOL    HW167576  10.985  14.680   3.550
55248SOL    HW267577  10.966  14.743   3.686
55249SOL     OW67578  13.819   9.045  13.139
55249SOL    HW167579  13.914   9.033  13.139
55249SOL    HW267580  13.794   9.033  13.230
55250SOL     OW67581  11.138  13.501  11.110
55250SOL    HW167582  11.222  13.460  11.089
55250SOL    HW267583  11.161  13.591  11.133
55251SOL     OW67584   3.767   3.207  10.111
55251SOL    HW167585   3.709   3.283  10.123
55251SOL    HW267586   3.715   3.146  10.058
55252SOL     OW67587   8.558  10.284   8.377
55252SOL    HW167588   8.483  10.262   8.321
55252SOL    HW267589   8.616  10.208   8.371
55253SOL     OW67590   9.988   1.003  11.615
55253SOL    HW167591   9.962   1.008  11.523
55253SOL    HW267592  10.041   0.923  11.621
55254SOL     OW67593   7.143   3.519   8.851
55254SOL    HW167594   7.120   3.540   8.760
55254SOL    HW267595   7.131   3.601   8.898
55255SOL     OW67596   1.890   0.227   9.946
55255SOL    HW167597   1.853   0.311   9.974
55255SOL    HW267598   1.821   0.163   9.961
55256SOL     OW67599   7.002   0.418   3.201
55256SOL    HW167600   7.003   0.476   3.277
55256SOL    HW267601   7.081   0.365   3.210
55257SOL     OW67602   5.761  12.910   7.866
55257SOL    HW167603   5.685  12.960   7.838
55257SOL    HW267604   5.758  12.914   7.962
55258SOL     OW67605   2.759   9.446   7.224
55258SOL    HW167606   2.672   9.406   7.221
55258SOL    HW267607   2.750   9.527   7.174
55259SOL     OW67608  13.566   9.696  11.742
55259SOL    HW167609  13.570   9.747  11.823
55259SOL    HW267610  13.605   9.612  11.764
55260SOL     OW67611   4.343   1.162   5.708
55260SOL    HW167612   4.368   1.245   5.667
55260SOL    HW267613   4.284   1.186   5.778
55261SOL     OW67614   2.566  12.739   5.810
55261SOL    HW167615   2.585  12.794   5.734
55261SOL    HW267616   2.589  12.650   5.782
55262SOL     OW67617   5.800   3.295   5.029
55262SOL    HW167618   5.874   3.289   5.089
55262SOL    HW267619   5.776   3.204   5.012
55263SOL     OW67620   0.551   7.840  14.277
55263SOL    HW167621   0.598   7.878  14.203
55263SOL    HW267622   0.460   7.869  14.265
55264SOL     OW67623   8.372   4.215   5.227
55264SOL    HW167624   8.383   4.219   5.132
55264SOL    HW267625   8.365   4.306   5.254
55265SOL     OW67626   8.650   0.580  11.169
55265SOL    HW167627   8.586   0.514  11.142
55265SOL    HW267628   8.605   0.663  11.159
55266SOL     OW67629  12.685   7.368  13.763
55266SOL    HW167630  12.706   7.345  13.853
55266SOL    HW267631  12.611   7.311  13.740
55267SOL     OW67632   3.484   5.872  14.486
55267SOL    HW167633   3.463   5.851  14.578
55267SOL    HW267634   3.427   5.815  14.435
55268SOL     OW67635  11.678  11.421  14.822
55268SOL    HW167636  11.735  11.495  14.801
55268SOL    HW267637  11.591  11.460  14.832
55269SOL     OW67638  14.557   0.908   8.339
55269SOL    HW167639  14.634   0.964   8.339
55269SOL    HW267640  14.583   0.831   8.288
55270SOL     OW67641   4.817   6.077   8.381
55270SOL    HW167642   4.912   6.086   8.376
55270SOL    HW267643   4.802   5.984   8.395
55271SOL     OW67644  12.388   5.947   1.843
55271SOL    HW167645  12.377   6.008   1.917
55271SOL    HW267646  12.482   5.945   1.828
55272SOL     OW67647   1.234   9.809   9.362
55272SOL    HW167648   1.319   9.810   9.319
55272SOL    HW267649   1.171   9.828   9.293
55273SOL     OW67650   6.414  12.976   9.375
55273SOL    HW167651   6.361  12.974   9.295
55273SOL    HW267652   6.493  12.926   9.352
55274SOL     OW67653   4.257  14.744   5.813
55274SOL    HW167654   4.210  14.749   5.730
55274SOL    HW267655   4.190  14.722   5.878
55275SOL     OW67656   1.516   1.819   0.742
55275SOL    HW167657   1.599   1.795   0.782
55275SOL    HW267658   1.524   1.791   0.651
55276SOL     OW67659  14.123   4.025   5.656
55276SOL    HW167660  14.145   4.108   5.614
55276SOL    HW267661  14.189   4.014   5.724
55277SOL     OW67662   4.911   2.104   2.211
55277SOL    HW167663   4.872   2.164   2.275
55277SOL    HW267664   4.910   2.019   2.255
55278SOL     OW67665   3.685   0.900   4.695
55278SOL    HW167666   3.624   0.837   4.732
55278SOL    HW267667   3.629   0.964   4.650
55279SOL     OW67668  11.741   7.841  10.459
55279SOL    HW167669  11.658   7.880  10.488
55279SOL    HW267670  11.715   7.761  10.414
55280SOL     OW67671  12.318   6.295   5.569
55280SOL    HW167672  12.407   6.318   5.596
55280SOL    HW267673  12.321   6.293   5.473
55281SOL     OW67674   1.352  13.584   3.403
55281SOL    HW167675   1.299  13.517   3.361
55281SOL    HW267676   1.347  13.564   3.496
55282SOL     OW67677  10.783   5.180   5.786
55282SOL    HW167678  10.790   5.232   5.707
55282SOL    HW267679  10.795   5.243   5.858
55283SOL     OW67680   2.147   2.916   4.505
55283SOL    HW167681   2.150   2.930   4.600
55283SOL    HW267682   2.165   2.823   4.495
55284SOL     OW67683   7.202  10.217   3.051
55284SOL    HW167684   7.255  10.289   3.017
55284SOL    HW267685   7.112  10.249   3.045
55285SOL     OW67686   7.427  12.025   4.647
55285SOL    HW167687   7.444  12.104   4.596
55285SOL    HW267688   7.455  12.047   4.736
55286SOL     OW67689  14.803   8.626  10.610
55286SOL    HW167690  14.852   8.589  10.536
55286SOL    HW267691  14.715   8.641  10.574
55287SOL     OW67692   1.312   7.627   2.788
55287SOL    HW167693   1.325   7.573   2.866
55287SOL    HW267694   1.386   7.688   2.788
55288SOL     OW67695   3.410   3.187   8.413
55288SOL    HW167696   3.479   3.121   8.416
55288SOL    HW267697   3.346   3.151   8.351
55289SOL     OW67698   3.355  14.056   4.738
55289SOL    HW167699   3.339  14.106   4.658
55289SOL    HW267700   3.450  14.055   4.747
55290SOL     OW67701   4.168   5.511   8.546
55290SOL    HW167702   4.253   5.549   8.525
55290SOL    HW267703   4.134   5.564   8.617
55291SOL     OW67704   6.012   1.508   1.964
55291SOL    HW167705   5.972   1.428   1.930
55291SOL    HW267706   5.971   1.520   2.050
55292SOL     OW67707   0.615  14.404   4.713
55292SOL    HW167708   0.708  14.383   4.725
55292SOL    HW267709   0.570  14.350   4.779
55293SOL     OW67710   1.400   1.088   7.961
55293SOL    HW167711   1.374   1.077   7.870
55293SOL    HW267712   1.410   1.182   7.973
55294SOL     OW67713  12.961   5.922   3.505
55294SOL    HW167714  13.004   5.870   3.574
55294SOL    HW267715  12.938   5.858   3.438
55295SOL     OW67716  14.650   9.639  13.273
55295SOL    HW167717  14.572   9.588  13.249
55295SOL    HW267718  14.709   9.628  13.198
55296SOL     OW67719   9.177   4.772  11.490
55296SOL    HW167720   9.174   4.677  11.493
55296SOL    HW267721   9.239   4.797  11.558
55297SOL     OW67722   7.194  14.349  10.342
55297SOL    HW167723   7.236  14.296  10.274
55297SOL    HW267724   7.240  14.325  10.422
55298SOL     OW67725   0.268  12.407  13.199
55298SOL    HW167726   0.348  12.383  13.152
55298SOL    HW267727   0.285  12.382  13.290
55299SOL     OW67728   6.907   0.128  13.034
55299SOL    HW167729   6.965   0.124  12.958
55299SOL    HW267730   6.961   0.169  13.103
55300SOL     OW67731   3.872   3.479   0.526
55300SOL    HW167732   3.790   3.468   0.477
55300SOL    HW267733   3.941   3.464   0.461
55301SOL     OW67734  11.620   7.665   4.589
55301SOL    HW167735  11.631   7.579   4.630
55301SOL    HW267736  11.597   7.645   4.498
55302SOL     OW67737  14.393   9.754   7.009
55302SOL    HW167738  14.475   9.800   6.995
55302SOL    HW267739  14.383   9.751   7.104
55303SOL     OW67740   2.504  14.410   8.865
55303SOL    HW167741   2.494  14.463   8.786
55303SOL    HW267742   2.577  14.451   8.912
55304SOL     OW67743  14.268  12.217   9.053
55304SOL    HW167744  14.196  12.206   8.990
55304SOL    HW267745  14.337  12.261   9.003
55305SOL     OW67746  13.707   2.994   3.052
55305SOL    HW167747  13.773   3.012   3.119
55305SOL    HW267748  13.624   2.993   3.100
55306SOL     OW67749   8.573   1.170   7.312
55306SOL    HW167750   8.513   1.200   7.381
55306SOL    HW267751   8.566   1.238   7.245
55307SOL     OW67752   9.379  11.383   2.904
55307SOL    HW167753   9.321  11.327   2.853
55307SOL    HW267754   9.397  11.334   2.984
55308SOL     OW67755   9.286  10.734   6.934
55308SOL    HW167756   9.328  10.652   6.957
55308SOL    HW267757   9.334  10.765   6.857
55309SOL     OW67758   5.039   9.192   3.227
55309SOL    HW167759   5.123   9.158   3.195
55309SOL    HW267760   4.974   9.150   3.171
55310SOL     OW67761  12.347   4.117  13.937
55310SOL    HW167762  12.305   4.191  13.894
55310SOL    HW267763  12.385   4.154  14.017
55311SOL     OW67764  13.553  14.381   7.957
55311SOL    HW167765  13.552  14.467   7.915
55311SOL    HW267766  13.599  14.395   8.040
55312SOL     OW67767  13.340   6.158  12.667
55312SOL    HW167768  13.250   6.139  12.642
55312SOL    HW267769  13.336   6.175  12.762
55313SOL     OW67770   0.623  12.885  13.645
55313SOL    HW167771   0.673  12.916  13.569
55313SOL    HW267772   0.645  12.792  13.652
55314SOL     OW67773   1.722  12.683   5.588
55314SOL    HW167774   1.767  12.703   5.670
55314SOL    HW267775   1.722  12.588   5.582
55315SOL     OW67776   5.339   6.959   2.464
55315SOL    HW167777   5.278   7.005   2.521
55315SOL    HW267778   5.426   6.985   2.496
55316SOL     OW67779  14.245  12.531   8.317
55316SOL    HW167780  14.199  12.567   8.241
55316SOL    HW267781  14.329  12.500   8.283
55317SOL     OW67782   0.916   8.813  13.074
55317SOL    HW167783   0.977   8.740  13.073
55317SOL    HW267784   0.968   8.888  13.103
55318SOL     OW67785  12.171   3.048   7.970
55318SOL    HW167786  12.200   2.960   7.947
55318SOL    HW267787  12.077   3.048   7.954
55319SOL     OW67788  14.716  12.291   8.173
55319SOL    HW167789  14.722  12.322   8.083
55319SOL    HW267790  14.702  12.197   8.165
55320SOL     OW67791   8.519   3.847  11.978
55320SOL    HW167792   8.506   3.785  12.050
55320SOL    HW267793   8.458   3.818  11.910
55321SOL     OW67794   1.486   2.512   2.690
55321SOL    HW167795   1.469   2.602   2.661
55321SOL    HW267796   1.432   2.457   2.633
55322SOL     OW67797   9.031  14.144  12.242
55322SOL    HW167798   8.997  14.224  12.203
55322SOL    HW267799   9.102  14.117  12.184
55323SOL     OW67800   2.844  10.299   0.552
55323SOL    HW167801   2.907  10.364   0.521
55323SOL    HW267802   2.867  10.219   0.503
55324SOL     OW67803   5.987   1.697   1.135
55324SOL    HW167804   5.928   1.738   1.198
55324SOL    HW267805   6.062   1.757   1.130
55325SOL     OW67806  10.635   7.150   9.050
55325SOL    HW167807  10.685   7.128   8.971
55325SOL    HW267808  10.553   7.188   9.017
55326SOL     OW67809   0.273   5.014  13.437
55326SOL    HW167810   0.317   5.069  13.501
55326SOL    HW267811   0.189   4.992  13.479
55327SOL     OW67812   1.058   6.815   5.060
55327SOL    HW167813   1.146   6.820   5.097
55327SOL    HW267814   1.024   6.904   5.066
55328SOL     OW67815   0.781   4.602   2.016
55328SOL    HW167816   0.794   4.571   1.926
55328SOL    HW267817   0.855   4.566   2.065
55329SOL     OW67818  13.227   6.052   5.859
55329SOL    HW167819  13.305   5.997   5.848
55329SOL    HW267820  13.183   6.015   5.935
55330SOL     OW67821  12.388   9.784   5.976
55330SOL    HW167822  12.366   9.875   5.997
55330SOL    HW267823  12.482   9.777   5.995
55331SOL     OW67824   9.753  13.395  13.522
55331SOL    HW167825   9.773  13.468  13.462
55331SOL    HW267826   9.826  13.334  13.510
55332SOL     OW67827  12.563   2.720   5.172
55332SOL    HW167828  12.573   2.751   5.261
55332SOL    HW267829  12.504   2.645   5.179
55333SOL     OW67830  14.167  13.920   6.324
55333SOL    HW167831  14.230  13.985   6.293
55333SOL    HW267832  14.220  13.844   6.348
55334SOL     OW67833   6.372  11.515   0.773
55334SOL    HW167834   6.426  11.539   0.698
55334SOL    HW267835   6.423  11.542   0.849
55335SOL     OW67836  11.871   7.551   9.484
55335SOL    HW167837  11.870   7.642   9.455
55335SOL    HW267838  11.831   7.502   9.412
55336SOL     OW67839  13.901   5.970   7.551
55336SOL    HW167840  13.862   5.996   7.468
55336SOL    HW267841  13.906   5.874   7.547
55337SOL     OW67842   9.144   3.465  10.224
55337SOL    HW167843   9.118   3.501  10.140
55337SOL    HW267844   9.177   3.377  10.203
55338SOL     OW67845   9.857   9.879   4.001
55338SOL    HW167846   9.770   9.857   4.035
55338SOL    HW267847   9.916   9.869   4.076
55339SOL     OW67848  14.291   8.848  14.665
55339SOL    HW167849  14.242   8.784  14.717
55339SOL    HW267850  14.301   8.807  14.579
55340SOL     OW67851   8.069  10.616   4.149
55340SOL    HW167852   8.100  10.543   4.095
55340SOL    HW267853   8.019  10.671   4.088
55341SOL     OW67854   1.753   3.896   9.211
55341SOL    HW167855   1.686   3.959   9.238
55341SOL    HW267856   1.769   3.843   9.289
55342SOL     OW67857   3.509   6.767   5.928
55342SOL    HW167858   3.521   6.853   5.888
55342SOL    HW267859   3.596   6.744   5.962
55343SOL     OW67860  10.702  10.599  11.108
55343SOL    HW167861  10.695  10.677  11.163
55343SOL    HW267862  10.653  10.532  11.155
55344SOL     OW67863   7.123   7.192  10.675
55344SOL    HW167864   7.179   7.239  10.614
55344SOL    HW267865   7.076   7.129  10.620
55345SOL     OW67866   0.355   9.670   2.946
55345SOL    HW167867   0.431   9.725   2.930
55345SOL    HW267868   0.280   9.727   2.931
55346SOL     OW67869   4.627   6.474   7.594
55346SOL    HW167870   4.553   6.474   7.654
55346SOL    HW267871   4.601   6.416   7.523
55347SOL     OW67872   2.856   4.222   5.226
55347SOL    HW167873   2.827   4.285   5.160
55347SOL    HW267874   2.860   4.272   5.308
55348SOL     OW67875   7.653   4.280  13.480
55348SOL    HW167876   7.638   4.282  13.574
55348SOL    HW267877   7.637   4.189  13.455
55349SOL     OW67878   5.864  14.432  13.221
55349SOL    HW167879   5.865  14.428  13.316
55349SOL    HW267880   5.776  14.464  13.199
55350SOL     OW67881   6.281  11.044   2.844
55350SOL    HW167882   6.239  10.981   2.904
55350SOL    HW267883   6.312  11.114   2.901
55351SOL     OW67884   8.915  13.016   9.307
55351SOL    HW167885   8.861  13.057   9.239
55351SOL    HW267886   8.895  12.922   9.300
55352SOL     OW67887   2.060   5.815   2.822
55352SOL    HW167888   1.980   5.790   2.868
55352SOL    HW267889   2.130   5.770   2.870
55353SOL     OW67890  14.870   5.989   7.121
55353SOL    HW167891   0.046   6.026   7.047
55353SOL    HW267892  14.790   5.954   7.081
55354SOL     OW67893  11.042  13.433  10.767
55354SOL    HW167894  11.076  13.420  10.855
55354SOL    HW267895  11.120  13.427  10.710
55355SOL     OW67896   3.479   3.431  10.974
55355SOL    HW167897   3.477   3.526  10.963
55355SOL    HW267898   3.395   3.401  10.939
55356SOL     OW67899   6.819   7.207   6.344
55356SOL    HW167900   6.844   7.270   6.276
55356SOL    HW267901   6.724   7.203   6.339
55357SOL     OW67902  12.164  14.830  12.546
55357SOL    HW167903  12.172  14.758  12.484
55357SOL    HW267904  12.141  14.788  12.629
55358SOL     OW67905   3.485   5.694  10.809
55358SOL    HW167906   3.491   5.768  10.869
55358SOL    HW267907   3.426   5.632  10.853
55359SOL     OW67908   1.487   0.203   9.514
55359SOL    HW167909   1.493   0.221   9.608
55359SOL    HW267910   1.576   0.216   9.481
55360SOL     OW67911   2.370   7.430   0.696
55360SOL    HW167912   2.319   7.351   0.714
55360SOL    HW267913   2.461   7.403   0.709
55361SOL     OW67914   2.618   5.817   3.249
55361SOL    HW167915   2.692   5.877   3.256
55361SOL    HW267916   2.631   5.772   3.166
55362SOL     OW67917   2.785   9.065  14.003
55362SOL    HW167918   2.777   9.115  13.921
55362SOL    HW267919   2.867   9.097  14.041
55363SOL     OW67920   2.674   6.196   8.498
55363SOL    HW167921   2.641   6.108   8.516
55363SOL    HW267922   2.699   6.194   8.406
55364SOL     OW67923   4.215   6.093   2.332
55364SOL    HW167924   4.135   6.041   2.343
55364SOL    HW267925   4.285   6.028   2.324
55365SOL     OW67926  11.723  13.972   2.782
55365SOL    HW167927  11.769  13.891   2.760
55365SOL    HW267928  11.739  14.030   2.707
55366SOL     OW67929   9.028  13.108   3.616
55366SOL    HW167930   9.068  13.026   3.585
55366SOL    HW267931   8.941  13.109   3.576
55367SOL     OW67932   7.620  11.038   3.998
55367SOL    HW167933   7.708  11.055   4.033
55367SOL    HW267934   7.598  10.951   4.029
55368SOL     OW67935   8.060   2.544  12.631
55368SOL    HW167936   8.036   2.503  12.548
55368SOL    HW267937   8.003   2.620  12.638
55369SOL     OW67938   3.103   4.384  14.600
55369SOL    HW167939   3.163   4.404  14.672
55369SOL    HW267940   3.074   4.470  14.568
55370SOL     OW67941   7.714  14.155  13.944
55370SOL    HW167942   7.717  14.064  13.974
55370SOL    HW267943   7.622  14.178  13.945
55371SOL     OW67944  14.518  10.640   1.555
55371SOL    HW167945  14.525  10.698   1.479
55371SOL    HW267946  14.595  10.582   1.547
55372SOL     OW67947   0.307   5.656   0.295
55372SOL    HW167948   0.259   5.731   0.262
55372SOL    HW267949   0.368   5.692   0.360
55373SOL     OW67950  13.679   2.490  10.705
55373SOL    HW167951  13.643   2.428  10.769
55373SOL    HW267952  13.611   2.499  10.639
55374SOL     OW67953  10.525  12.923  11.763
55374SOL    HW167954  10.618  12.909  11.781
55374SOL    HW267955  10.495  12.841  11.724
55375SOL     OW67956   1.570   6.729  13.253
55375SOL    HW167957   1.533   6.815  13.272
55375SOL    HW267958   1.565   6.682  13.336
55376SOL     OW67959   9.287   9.663   0.169
55376SOL    HW167960   9.372   9.657   0.126
55376SOL    HW267961   9.224   9.662   0.097
55377SOL     OW67962   2.064   4.537  11.892
55377SOL    HW167963   2.092   4.458  11.938
55377SOL    HW267964   2.020   4.589  11.960
55378SOL     OW67965   7.917   2.697  13.134
55378SOL    HW167966   7.924   2.655  13.049
55378SOL    HW267967   7.960   2.782  13.123
55379SOL     OW67968   9.124   0.842   2.502
55379SOL    HW167969   9.084   0.884   2.578
55379SOL    HW267970   9.057   0.845   2.435
55380SOL     OW67971   6.972   0.389  10.059
55380SOL    HW167972   7.022   0.309  10.072
55380SOL    HW267973   6.986   0.439  10.140
55381SOL     OW67974   3.554   8.274   4.785
55381SOL    HW167975   3.470   8.295   4.745
55381SOL    HW267976   3.596   8.359   4.798
55382SOL     OW67977   1.877   8.166   4.589
55382SOL    HW167978   1.936   8.204   4.524
55382SOL    HW267979   1.796   8.215   4.579
55383SOL     OW67980   7.893  10.404   1.497
55383SOL    HW167981   7.987  10.403   1.515
55383SOL    HW267982   7.886  10.435   1.406
55384SOL     OW67983   5.081   8.626   8.023
55384SOL    HW167984   5.037   8.564   7.965
55384SOL    HW267985   5.169   8.635   7.987
55385SOL     OW67986  12.045  10.956   3.078
55385SOL    HW167987  12.138  10.981   3.078
55385SOL    HW267988  11.999  11.039   3.071
55386SOL     OW67989   1.545  12.113  10.638
55386SOL    HW167990   1.579  12.119  10.727
55386SOL    HW267991   1.610  12.062  10.590
55387SOL     OW67992  11.372  13.110   4.499
55387SOL    HW167993  11.353  13.153   4.583
55387SOL    HW267994  11.287  13.092   4.461
55388SOL     OW67995   6.701   3.784  11.152
55388SOL    HW167996   6.725   3.759  11.241
55388SOL    HW267997   6.660   3.705  11.116
55389SOL     OW67998   5.800   0.895  10.029
55389SOL    HW167999   5.713   0.854  10.031
55389SOL    HW268000   5.846   0.857  10.104
55390SOL     OW68001   3.478   7.166   4.084
55390SOL    HW168002   3.443   7.122   4.162
55390SOL    HW268003   3.570   7.184   4.105
55391SOL     OW68004   3.482   5.591   0.942
55391SOL    HW168005   3.419   5.629   1.004
55391SOL    HW268006   3.477   5.497   0.957
55392SOL     OW68007   0.748   0.316  11.068
55392SOL    HW168008   0.671   0.271  11.033
55392SOL    HW268009   0.743   0.404  11.029
55393SOL     OW68010  13.841   0.633   0.452
55393SOL    HW168011  13.808   0.549   0.486
55393SOL    HW268012  13.920   0.609   0.403
55394SOL     OW68013  10.893   0.614  11.255
55394SOL    HW168014  10.845   0.687  11.215
55394SOL    HW268015  10.892   0.633  11.349
55395SOL     OW68016   9.202   3.157  13.545
55395SOL    HW168017   9.147   3.232  13.522
55395SOL    HW268018   9.292   3.192  13.540
55396SOL     OW68019  11.089   2.332   7.288
55396SOL    HW168020  11.137   2.307   7.209
55396SOL    HW268021  11.019   2.267   7.294
55397SOL     OW68022   7.484   3.507   0.421
55397SOL    HW168023   7.515   3.592   0.392
55397SOL    HW268024   7.560   3.450   0.418
55398SOL     OW68025   6.289  13.340  10.993
55398SOL    HW168026   6.286  13.388  10.910
55398SOL    HW268027   6.371  13.290  10.988
55399SOL     OW68028  10.355   0.778   1.578
55399SOL    HW168029  10.449   0.794   1.568
55399SOL    HW268030  10.334   0.715   1.509
55400SOL     OW68031  10.975  12.445   0.209
55400SOL    HW168032  10.960  12.351   0.215
55400SOL    HW268033  10.945  12.469   0.122
55401SOL     OW68034   7.072   2.308   2.464
55401SOL    HW168035   7.073   2.393   2.419
55401SOL    HW268036   7.007   2.319   2.534
55402SOL     OW68037   4.463   6.651  14.657
55402SOL    HW168038   4.503   6.565  14.648
55402SOL    HW268039   4.488   6.697  14.576
55403SOL     OW68040   9.046  10.477   1.390
55403SOL    HW168041   9.127  10.493   1.440
55403SOL    HW268042   9.030  10.384   1.401
55404SOL     OW68043   9.028   1.324   0.323
55404SOL    HW168044   9.024   1.361   0.411
55404SOL    HW268045   9.027   1.230   0.336
55405SOL     OW68046   2.217  12.287  12.613
55405SOL    HW168047   2.138  12.294  12.560
55405SOL    HW268048   2.286  12.268  12.549
55406SOL     OW68049  13.082  14.833  12.557
55406SOL    HW168050  12.997   0.004  12.553
55406SOL    HW268051  13.077  14.776  12.634
55407SOL     OW68052   8.643   5.107  11.413
55407SOL    HW168053   8.715   5.072  11.362
55407SOL    HW268054   8.564   5.070  11.373
55408SOL     OW68055   7.927   8.715   6.897
55408SOL    HW168056   7.846   8.765   6.882
55408SOL    HW268057   7.909   8.662   6.974
55409SOL     OW68058   0.290  14.155  10.308
55409SOL    HW168059   0.325  14.174  10.221
55409SOL    HW268060   0.332  14.219  10.365
55410SOL     OW68061   4.282  12.132   0.023
55410SOL    HW168062   4.323  12.207  14.852
55410SOL    HW268063   4.349  12.064   0.021
55411SOL     OW68064   9.148  13.751   9.069
55411SOL    HW168065   9.212  13.709   9.127
55411SOL    HW268066   9.067  13.703   9.085
55412SOL     OW68067   2.666   9.965   7.921
55412SOL    HW168068   2.750   9.935   7.888
55412SOL    HW268069   2.672   9.957   8.016
55413SOL     OW68070  12.807   3.806   2.041
55413SOL    HW168071  12.894   3.839   2.063
55413SOL    HW268072  12.754   3.822   2.119
55414SOL     OW68073   2.545  10.140   5.259
55414SOL    HW168074   2.626  10.107   5.299
55414SOL    HW268075   2.510  10.065   5.212
55415SOL     OW68076   8.329   2.884   7.070
55415SOL    HW168077   8.334   2.973   7.104
55415SOL    HW268078   8.290   2.833   7.141
55416SOL     OW68079   0.297  10.277   1.768
55416SOL    HW168080   0.297  10.224   1.848
55416SOL    HW268081   0.384  10.263   1.730
55417SOL     OW68082   4.448   6.777   8.450
55417SOL    HW168083   4.460   6.717   8.376
55417SOL    HW268084   4.529   6.826   8.455
55418SOL     OW68085   0.775   0.756   7.206
55418SOL    HW168086   0.828   0.796   7.275
55418SOL    HW268087   0.706   0.821   7.189
55419SOL     OW68088  11.315   3.270  14.514
55419SOL    HW168089  11.219   3.273  14.507
55419SOL    HW268090  11.345   3.351  14.474
55420SOL     OW68091  12.420   8.215   9.660
55420SOL    HW168092  12.364   8.140   9.642
55420SOL    HW268093  12.417   8.268   9.581
55421SOL     OW68094   0.111  10.872  12.568
55421SOL    HW168095   0.091  10.820  12.491
55421SOL    HW268096   0.062  10.953  12.555
55422SOL     OW68097   6.904  10.721   3.091
55422SOL    HW168098   6.888  10.653   3.025
55422SOL    HW268099   7.000  10.726   3.097
55423SOL     OW68100  10.917   9.241   7.245
55423SOL    HW168101  10.911   9.188   7.324
55423SOL    HW268102  10.908   9.179   7.173
55424SOL     OW68103   6.864   0.611   7.084
55424SOL    HW168104   6.889   0.547   7.016
55424SOL    HW268105   6.786   0.653   7.050
55425SOL     OW68106   2.471   0.556   8.828
55425SOL    HW168107   2.395   0.591   8.781
55425SOL    HW268108   2.440   0.547   8.919
55426SOL     OW68109   5.444   0.063   9.615
55426SOL    HW168110   5.467   0.053   9.707
55426SOL    HW268111   5.438  14.846   9.581
55427SOL     OW68112   7.298   5.417  10.859
55427SOL    HW168113   7.214   5.453  10.888
55427SOL    HW268114   7.358   5.435  10.932
55428SOL     OW68115  11.152   0.678   6.924
55428SOL    HW168116  11.188   0.719   7.002
55428SOL    HW268117  11.099   0.605   6.958
55429SOL     OW68118   1.372   2.972  14.433
55429SOL    HW168119   1.343   2.946  14.345
55429SOL    HW268120   1.307   2.935  14.492
55430SOL     OW68121   1.268   6.399   6.334
55430SOL    HW168122   1.194   6.446   6.374
55430SOL    HW268123   1.341   6.414   6.395
55431SOL     OW68124   7.437   8.585  14.566
55431SOL    HW168125   7.389   8.635  14.500
55431SOL    HW268126   7.450   8.499  14.527
55432SOL     OW68127  14.479  11.822   0.119
55432SOL    HW168128  14.567  11.786   0.134
55432SOL    HW268129  14.489  11.916   0.136
55433SOL     OW68130   6.432   5.769   5.894
55433SOL    HW168131   6.394   5.709   5.829
55433SOL    HW268132   6.361   5.785   5.956
55434SOL     OW68133   8.392   4.356   9.035
55434SOL    HW168134   8.449   4.433   9.044
55434SOL    HW268135   8.314   4.389   8.991
55435SOL     OW68136   9.761   1.649   2.177
55435SOL    HW168137   9.707   1.664   2.100
55435SOL    HW268138   9.776   1.737   2.213
55436SOL     OW68139   7.618   7.784   3.470
55436SOL    HW168140   7.524   7.764   3.470
55436SOL    HW268141   7.660   7.701   3.449
55437SOL     OW68142  10.336   5.639   1.165
55437SOL    HW168143  10.338   5.717   1.220
55437SOL    HW268144  10.318   5.567   1.226
55438SOL     OW68145   7.421   6.159  13.716
55438SOL    HW168146   7.396   6.223  13.783
55438SOL    HW268147   7.461   6.088  13.765
55439SOL     OW68148   7.838  12.861   4.839
55439SOL    HW168149   7.895  12.903   4.775
55439SOL    HW268150   7.780  12.931   4.868
55440SOL     OW68151  12.319   5.696   2.083
55440SOL    HW168152  12.242   5.749   2.064
55440SOL    HW268153  12.324   5.695   2.179
55441SOL     OW68154   7.127   7.669   0.202
55441SOL    HW168155   7.203   7.656   0.145
55441SOL    HW268156   7.160   7.657   0.290
55442SOL     OW68157   9.502  12.970   1.439
55442SOL    HW168158   9.424  13.022   1.457
55442SOL    HW268159   9.484  12.885   1.480
55443SOL     OW68160  12.699  12.474  11.025
55443SOL    HW168161  12.684  12.565  11.050
55443SOL    HW268162  12.630  12.454  10.962
55444SOL     OW68163  10.494   4.712  13.852
55444SOL    HW168164  10.402   4.707  13.826
55444SOL    HW268165  10.533   4.775  13.792
55445SOL     OW68166  14.643   3.210   7.418
55445SOL    HW168167  14.573   3.154   7.452
55445SOL    HW268168  14.723   3.159   7.429
55446SOL     OW68169   8.416   4.793   9.100
55446SOL    HW168170   8.344   4.853   9.118
55446SOL    HW268171   8.491   4.830   9.146
55447SOL     OW68172  12.454  13.482  12.205
55447SOL    HW168173  12.434  13.399  12.249
55447SOL    HW268174  12.510  13.528  12.267
55448SOL     OW68175   5.373   4.684  11.028
55448SOL    HW168176   5.335   4.620  11.088
55448SOL    HW268177   5.433   4.634  10.973
55449SOL     OW68178   6.212  12.503   7.335
55449SOL    HW168179   6.249  12.433   7.388
55449SOL    HW268180   6.171  12.562   7.399
55450SOL     OW68181   5.549  10.848   5.752
55450SOL    HW168182   5.510  10.873   5.669
55450SOL    HW268183   5.585  10.761   5.737
55451SOL     OW68184  13.425   5.771   0.605
55451SOL    HW168185  13.520   5.784   0.609
55451SOL    HW268186  13.401   5.795   0.515
55452SOL     OW68187   1.627  13.379   9.409
55452SOL    HW168188   1.682  13.449   9.442
55452SOL    HW268189   1.610  13.323   9.485
55453SOL     OW68190  13.454  11.047   7.587
55453SOL    HW168191  13.380  11.021   7.642
55453SOL    HW268192  13.413  11.085   7.509
55454SOL     OW68193   6.305   2.080   4.217
55454SOL    HW168194   6.348   2.154   4.174
55454SOL    HW268195   6.335   2.084   4.307
55455SOL     OW68196   8.190   1.971   5.892
55455SOL    HW168197   8.103   1.933   5.904
55455SOL    HW268198   8.176   2.066   5.897
55456SOL     OW68199  12.396  12.163   3.164
55456SOL    HW168200  12.434  12.250   3.150
55456SOL    HW268201  12.326  12.177   3.227
55457SOL     OW68202   2.693   2.831  12.969
55457SOL    HW168203   2.627   2.776  13.012
55457SOL    HW268204   2.647   2.913  12.949
55458SOL     OW68205   4.159  12.575  14.201
55458SOL    HW168206   4.147  12.609  14.112
55458SOL    HW268207   4.079  12.525  14.218
55459SOL     OW68208   3.964   9.499  13.859
55459SOL    HW168209   4.040   9.539  13.901
55459SOL    HW268210   3.934   9.433  13.922
55460SOL     OW68211  10.459  13.100   5.304
55460SOL    HW168212  10.416  13.178   5.271
55460SOL    HW268213  10.411  13.079   5.385
55461SOL     OW68214   4.275   4.972   7.072
55461SOL    HW168215   4.269   4.877   7.063
55461SOL    HW268216   4.285   4.985   7.167
55462SOL     OW68217   8.554   9.646   7.186
55462SOL    HW168218   8.571   9.719   7.126
55462SOL    HW268219   8.633   9.592   7.180
55463SOL     OW68220   7.465  13.547   8.896
55463SOL    HW168221   7.440  13.626   8.847
55463SOL    HW268222   7.554  13.527   8.865
55464SOL     OW68223   0.022   5.359  11.629
55464SOL    HW168224   0.029   5.428  11.563
55464SOL    HW268225  14.865   5.404  11.709
55465SOL     OW68226   4.051   9.021  14.008
55465SOL    HW168227   4.054   8.943  14.064
55465SOL    HW268228   3.988   9.079  14.050
55466SOL     OW68229   2.164   0.215  14.474
55466SOL    HW168230   2.149   0.134  14.523
55466SOL    HW268231   2.222   0.189  14.403
55467SOL     OW68232   2.045   9.696   5.813
55467SOL    HW168233   2.071   9.658   5.897
55467SOL    HW268234   2.073   9.788   5.818
55468SOL     OW68235   3.283  11.080  11.953
55468SOL    HW168236   3.206  11.133  11.933
55468SOL    HW268237   3.266  11.046  12.041
55469SOL     OW68238   6.139  11.294   1.254
55469SOL    HW168239   6.210  11.280   1.317
55469SOL    HW268240   6.146  11.386   1.228
55470SOL     OW68241   1.235  13.493   9.521
55470SOL    HW168242   1.194  13.430   9.580
55470SOL    HW268243   1.163  13.525   9.466
55471SOL     OW68244  12.370  14.663   3.549
55471SOL    HW168245  12.433  14.712   3.601
55471SOL    HW268246  12.381  14.695   3.460
55472SOL     OW68247  13.065  13.596   4.045
55472SOL    HW168248  13.109  13.681   4.051
55472SOL    HW268249  13.047  13.585   3.952
55473SOL     OW68250  10.117   0.619   0.190
55473SOL    HW168251  10.094   0.662   0.272
55473SOL    HW268252  10.061   0.541   0.187
55474SOL     OW68253   7.142   5.603   6.588
55474SOL    HW168254   7.122   5.510   6.598
55474SOL    HW268255   7.058   5.643   6.567
55475SOL     OW68256  12.952  10.609   7.857
55475SOL    HW168257  12.954  10.615   7.952
55475SOL    HW268258  12.947  10.515   7.838
55476SOL     OW68259  12.617   3.752  14.808
55476SOL    HW168260  12.608   3.756  14.713
55476SOL    HW268261  12.583   3.836  14.839
55477SOL     OW68262  10.341   8.078  13.981
55477SOL    HW168263  10.406   8.048  14.044
55477SOL    HW268264  10.313   8.164  14.014
55478SOL     OW68265   8.491   9.909   3.086
55478SOL    HW168266   8.442   9.894   3.006
55478SOL    HW268267   8.542   9.989   3.069
55479SOL     OW68268  10.401   7.255   2.807
55479SOL    HW168269  10.444   7.250   2.893
55479SOL    HW268270  10.452   7.319   2.758
55480SOL     OW68271   3.157   8.353  10.631
55480SOL    HW168272   3.208   8.272  10.638
55480SOL    HW268273   3.200   8.403  10.562
55481SOL     OW68274   2.638   1.375   5.976
55481SOL    HW168275   2.666   1.327   5.898
55481SOL    HW268276   2.548   1.400   5.957
55482SOL     OW68277   2.869   3.667  13.074
55482SOL    HW168278   2.876   3.757  13.044
55482SOL    HW268279   2.839   3.675  13.165
55483SOL     OW68280   3.821  13.000   5.629
55483SOL    HW168281   3.908  12.963   5.613
55483SOL    HW268282   3.786  13.019   5.541
55484SOL     OW68283  11.303  11.334  11.887
55484SOL    HW168284  11.211  11.335  11.862
55484SOL    HW268285  11.316  11.248  11.927
55485SOL     OW68286  14.292   2.971   3.129
55485SOL    HW168287  14.291   2.900   3.194
55485SOL    HW268288  14.359   2.945   3.066
55486SOL     OW68289   2.049   1.507  14.372
55486SOL    HW168290   2.068   1.600  14.366
55486SOL    HW268291   2.095   1.478  14.450
55487SOL     OW68292   8.492   4.500   5.745
55487SOL    HW168293   8.399   4.481   5.757
55487SOL    HW268294   8.525   4.426   5.694
55488SOL     OW68295   7.095  12.280   9.300
55488SOL    HW168296   7.009  12.239   9.290
55488SOL    HW268297   7.098  12.346   9.230
55489SOL     OW68298   3.122  10.354  12.171
55489SOL    HW168299   3.157  10.395  12.250
55489SOL    HW268300   3.193  10.362  12.107
55490SOL     OW68301  14.778  10.590  13.296
55490SOL    HW168302  14.694  10.559  13.260
55490SOL    HW268303  14.831  10.611  13.218
55491SOL     OW68304  13.438   9.191   5.083
55491SOL    HW168305  13.451   9.105   5.124
55491SOL    HW268306  13.346   9.192   5.058
55492SOL     OW68307   5.141   4.176   4.978
55492SOL    HW168308   5.164   4.087   5.002
55492SOL    HW268309   5.116   4.218   5.061
55493SOL     OW68310   2.123   0.837   3.121
55493SOL    HW168311   2.139   0.821   3.214
55493SOL    HW268312   2.201   0.804   3.077
55494SOL     OW68313   1.025  11.614   5.462
55494SOL    HW168314   1.059  11.586   5.547
55494SOL    HW268315   1.041  11.708   5.459
55495SOL     OW68316   1.246   7.426   1.967
55495SOL    HW168317   1.260   7.332   1.981
55495SOL    HW268318   1.306   7.449   1.897
55496SOL     OW68319   2.462  10.479   9.503
55496SOL    HW168320   2.415  10.476   9.420
55496SOL    HW268321   2.530  10.545   9.490
55497SOL     OW68322   2.612   9.502  13.748
55497SOL    HW168323   2.517   9.516  13.750
55497SOL    HW268324   2.635   9.508  13.655
55498SOL     OW68325   0.097   7.951   7.892
55498SOL    HW168326   0.170   7.942   7.953
55498SOL    HW268327   0.065   8.040   7.905
55499SOL     OW68328  11.904  13.539   4.048
55499SOL    HW168329  11.820  13.533   4.093
55499SOL    HW268330  11.948  13.614   4.088
55500SOL     OW68331   9.422  12.727  14.548
55500SOL    HW168332   9.426  12.764  14.459
55500SOL    HW268333   9.464  12.793  14.603
55501SOL     OW68334   5.728   2.302  13.509
55501SOL    HW168335   5.742   2.211  13.536
55501SOL    HW268336   5.704   2.296  13.416
55502SOL     OW68337  10.332  12.549   5.404
55502SOL    HW168338  10.246  12.552   5.363
55502SOL    HW268339  10.367  12.464   5.380
55503SOL     OW68340  13.424  13.242   0.577
55503SOL    HW168341  13.487  13.179   0.613
55503SOL    HW268342  13.469  13.327   0.584
55504SOL     OW68343   9.618  11.585   1.765
55504SOL    HW168344   9.644  11.670   1.801
55504SOL    HW268345   9.685  11.565   1.701
55505SOL     OW68346   3.794   7.847   1.267
55505SOL    HW168347   3.785   7.934   1.306
55505SOL    HW268348   3.835   7.863   1.182
55506SOL     OW68349  10.058  13.340   3.552
55506SOL    HW168350  10.049  13.433   3.574
55506SOL    HW268351  10.145  13.316   3.585
55507SOL     OW68352  12.491   2.343   9.427
55507SOL    HW168353  12.497   2.439   9.431
55507SOL    HW268354  12.443   2.325   9.346
55508SOL     OW68355   9.561  13.053   5.519
55508SOL    HW168356   9.519  13.056   5.605
55508SOL    HW268357   9.655  13.063   5.538
55509SOL     OW68358   8.804   1.178   9.763
55509SOL    HW168359   8.858   1.224   9.827
55509SOL    HW268360   8.721   1.226   9.763
55510SOL     OW68361   1.148   3.522  14.017
55510SOL    HW168362   1.179   3.463  14.086
55510SOL    HW268363   1.067   3.482  13.986
55511SOL     OW68364  13.210   6.035  11.240
55511SOL    HW168365  13.160   5.996  11.312
55511SOL    HW268366  13.223   6.126  11.265
55512SOL     OW68367   4.042   3.387   2.127
55512SOL    HW168368   4.092   3.369   2.206
55512SOL    HW268369   4.091   3.457   2.083
55513SOL     OW68370   1.566  14.379   1.787
55513SOL    HW168371   1.631  14.450   1.787
55513SOL    HW268372   1.490  14.416   1.830
55514SOL     OW68373  10.228   4.150   2.758
55514SOL    HW168374  10.271   4.222   2.713
55514SOL    HW268375  10.150   4.132   2.707
55515SOL     OW68376  13.631   8.868   6.410
55515SOL    HW168377  13.677   8.840   6.330
55515SOL    HW268378  13.670   8.953   6.432
55516SOL     OW68379   3.399   8.858  14.206
55516SOL    HW168380   3.352   8.808  14.273
55516SOL    HW268381   3.458   8.795  14.166
55517SOL     OW68382  14.721   8.498   1.841
55517SOL    HW168383  14.678   8.425   1.884
55517SOL    HW268384  14.805   8.462   1.810
55518SOL     OW68385   8.710  10.214   1.473
55518SOL    HW168386   8.700  10.237   1.565
55518SOL    HW268387   8.700  10.297   1.426
55519SOL     OW68388   7.900   8.343   0.975
55519SOL    HW168389   7.993   8.363   0.963
55519SOL    HW268390   7.877   8.389   1.056
55520SOL     OW68391  12.080  12.422  10.351
55520SOL    HW168392  12.140  12.352  10.378
55520SOL    HW268393  12.129  12.472  10.286
55521SOL     OW68394  14.492   0.281  13.475
55521SOL    HW168395  14.527   0.276  13.386
55521SOL    HW268396  14.397   0.288  13.463
55522SOL     OW68397   0.282  13.477   9.611
55522SOL    HW168398   0.252  13.431   9.533
55522SOL    HW268399   0.238  13.562   9.606
55523SOL     OW68400   0.313  10.270   9.582
55523SOL    HW168401   0.271  10.197   9.628
55523SOL    HW268402   0.257  10.286   9.506
55524SOL     OW68403   8.386   0.106   1.942
55524SOL    HW168404   8.331   0.097   1.864
55524SOL    HW268405   8.326   0.136   2.010
55525SOL     OW68406  11.449   7.687   2.091
55525SOL    HW168407  11.432   7.769   2.046
55525SOL    HW268408  11.443   7.620   2.022
55526SOL     OW68409  12.619  12.123  11.700
55526SOL    HW168410  12.652  12.113  11.611
55526SOL    HW268411  12.532  12.160  11.689
55527SOL     OW68412  10.423   3.901   4.623
55527SOL    HW168413  10.513   3.919   4.650
55527SOL    HW268414  10.381   3.865   4.701
55528SOL     OW68415   4.164   4.019   2.630
55528SOL    HW168416   4.160   4.035   2.536
55528SOL    HW268417   4.258   4.019   2.651
55529SOL     OW68418   9.433   7.571   8.710
55529SOL    HW168419   9.397   7.650   8.750
55529SOL    HW268420   9.356   7.517   8.691
55530SOL     OW68421   9.181  10.547  12.155
55530SOL    HW168422   9.169  10.640  12.177
55530SOL    HW268423   9.210  10.507  12.237
55531SOL     OW68424  10.260   0.323  12.077
55531SOL    HW168425  10.294   0.263  12.011
55531SOL    HW268426  10.244   0.269  12.154
55532SOL     OW68427   9.483  10.577  12.467
55532SOL    HW168428   9.499  10.638  12.539
55532SOL    HW268429   9.554  10.513  12.473
55533SOL     OW68430   8.346  10.131   2.304
55533SOL    HW168431   8.378  10.064   2.365
55533SOL    HW268432   8.258  10.152   2.335
55534SOL     OW68433   5.818  11.637   0.056
55534SOL    HW168434   5.776  11.562   0.098
55534SOL    HW268435   5.911  11.622   0.068
55535SOL     OW68436   6.429   5.895   1.516
55535SOL    HW168437   6.389   5.862   1.436
55535SOL    HW268438   6.503   5.949   1.486
55536SOL     OW68439  10.006   0.076   3.735
55536SOL    HW168440   9.997   0.061   3.641
55536SOL    HW268441  10.042   0.164   3.742
55537SOL     OW68442  14.060   7.071   6.568
55537SOL    HW168443  14.046   7.148   6.514
55537SOL    HW268444  14.111   7.102   6.643
55538SOL     OW68445   0.481  10.512   4.266
55538SOL    HW168446   0.466  10.422   4.297
55538SOL    HW268447   0.411  10.563   4.306
55539SOL     OW68448   1.937  13.784   7.754
55539SOL    HW168449   1.925  13.879   7.750
55539SOL    HW268450   2.031  13.772   7.767
55540SOL     OW68451   6.920   3.187  11.621
55540SOL    HW168452   6.988   3.216  11.560
55540SOL    HW268453   6.921   3.252  11.691
55541SOL     OW68454   3.446  12.775  10.322
55541SOL    HW168455   3.387  12.846  10.295
55541SOL    HW268456   3.502  12.761  10.246
55542SOL     OW68457   2.639  13.187   8.068
55542SOL    HW168458   2.710  13.192   8.133
55542SOL    HW268459   2.678  13.224   7.988
55543SOL     OW68460   2.680  12.946   9.263
55543SOL    HW168461   2.767  12.960   9.302
55543SOL    HW268462   2.660  13.029   9.220
55544SOL     OW68463   1.536  11.643   0.476
55544SOL    HW168464   1.498  11.683   0.554
55544SOL    HW268465   1.629  11.667   0.479
55545SOL     OW68466  12.061   2.654  13.077
55545SOL    HW168467  12.036   2.564  13.098
55545SOL    HW268468  12.007   2.708  13.136
55546SOL     OW68469  13.247   7.593   1.203
55546SOL    HW168470  13.164   7.557   1.234
55546SOL    HW268471  13.265   7.545   1.122
55547SOL     OW68472   4.572   3.635  12.561
55547SOL    HW168473   4.569   3.598  12.473
55547SOL    HW268474   4.570   3.559  12.619
55548SOL     OW68475   8.406   8.463   2.001
55548SOL    HW168476   8.409   8.504   1.915
55548SOL    HW268477   8.476   8.506   2.051
55549SOL     OW68478  12.745  12.325  13.915
55549SOL    HW168479  12.786  12.310  14.000
55549SOL    HW268480  12.687  12.249  13.903
55550SOL     OW68481  10.699   5.673   2.179
55550SOL    HW168482  10.774   5.716   2.219
55550SOL    HW268483  10.665   5.616   2.248
55551SOL     OW68484   7.195   3.693  13.767
55551SOL    HW168485   7.229   3.716  13.680
55551SOL    HW268486   7.101   3.708  13.760
55552SOL     OW68487  11.915   7.087  10.922
55552SOL    HW168488  11.914   6.998  10.889
55552SOL    HW268489  11.829   7.100  10.961
55553SOL     OW68490  10.703   9.502  14.641
55553SOL    HW168491  10.680   9.446  14.715
55553SOL    HW268492  10.664   9.458  14.565
55554SOL     OW68493  13.038  12.460   0.905
55554SOL    HW168494  12.944  12.471   0.889
55554SOL    HW268495  13.079  12.513   0.837
55555SOL     OW68496   8.518   3.566   7.429
55555SOL    HW168497   8.581   3.605   7.489
55555SOL    HW268498   8.569   3.503   7.377
55556SOL     OW68499  11.883  12.154   5.153
55556SOL    HW168500  11.872  12.214   5.079
55556SOL    HW268501  11.950  12.195   5.208
55557SOL     OW68502   7.571   2.107   9.071
55557SOL    HW168503   7.663   2.112   9.044
55557SOL    HW268504   7.523   2.090   8.990
55558SOL     OW68505   3.871   9.455   9.835
55558SOL    HW168506   3.828   9.400   9.900
55558SOL    HW268507   3.863   9.544   9.870
55559SOL     OW68508  10.143   6.539   5.050
55559SOL    HW168509  10.106   6.491   5.124
55559SOL    HW268510  10.097   6.503   4.974
55560SOL     OW68511  10.140   0.564  12.849
55560SOL    HW168512  10.053   0.575  12.887
55560SOL    HW268513  10.164   0.651  12.816
55561SOL     OW68514  14.796  13.100   0.827
55561SOL    HW168515  14.750  13.018   0.811
55561SOL    HW268516  14.867  13.078   0.887
55562SOL     OW68517   3.974   9.768   9.646
55562SOL    HW168518   3.942   9.747   9.733
55562SOL    HW268519   3.902   9.816   9.604
55563SOL     OW68520   2.538   3.756   9.428
55563SOL    HW168521   2.511   3.756   9.520
55563SOL    HW268522   2.528   3.847   9.400
55564SOL     OW68523   8.286   7.843   7.324
55564SOL    HW168524   8.276   7.822   7.416
55564SOL    HW268525   8.364   7.899   7.320
55565SOL     OW68526   3.852  11.718   2.917
55565SOL    HW168527   3.858  11.622   2.918
55565SOL    HW268528   3.761  11.735   2.894
55566SOL     OW68529  10.440   5.233   4.862
55566SOL    HW168530  10.400   5.205   4.944
55566SOL    HW268531  10.417   5.326   4.856
55567SOL     OW68532  13.956   2.187  13.313
55567SOL    HW168533  13.917   2.099  13.313
55567SOL    HW268534  13.890   2.243  13.273
55568SOL     OW68535   3.716  11.130  13.454
55568SOL    HW168536   3.685  11.131  13.364
55568SOL    HW268537   3.781  11.059  13.457
55569SOL     OW68538  14.110  14.405   5.497
55569SOL    HW168539  14.047  14.366   5.557
55569SOL    HW268540  14.059  14.466   5.444
55570SOL     OW68541  12.067   9.469   2.994
55570SOL    HW168542  12.068   9.555   3.034
55570SOL    HW268543  12.040   9.484   2.903
55571SOL     OW68544   7.020  11.827   6.132
55571SOL    HW168545   7.014  11.920   6.155
55571SOL    HW268546   6.952  11.814   6.066
55572SOL     OW68547   8.768   0.580  13.525
55572SOL    HW168548   8.764   0.536  13.441
55572SOL    HW268549   8.721   0.522  13.585
55573SOL     OW68550   2.841   1.186   1.317
55573SOL    HW168551   2.798   1.117   1.268
55573SOL    HW268552   2.769   1.236   1.357
55574SOL     OW68553   2.913  12.801  14.645
55574SOL    HW168554   2.926  12.799  14.550
55574SOL    HW268555   2.984  12.858  14.677
55575SOL     OW68556  12.298  12.616   6.618
55575SOL    HW168557  12.331  12.600   6.707
55575SOL    HW268558  12.217  12.665   6.630
55576SOL     OW68559  12.475  12.074  13.894
55576SOL    HW168560  12.509  12.071  13.805
55576SOL    HW268561  12.484  11.985  13.926
55577SOL     OW68562   8.427  11.512   9.574
55577SOL    HW168563   8.341  11.492   9.536
55577SOL    HW268564   8.407  11.566   9.651
55578SOL     OW68565   0.533   8.764  14.518
55578SOL    HW168566   0.616   8.735  14.558
55578SOL    HW268567   0.530   8.858  14.535
55579SOL     OW68568   1.421  10.290   2.720
55579SOL    HW168569   1.490  10.356   2.715
55579SOL    HW268570   1.465  10.212   2.753
55580SOL     OW68571  12.210   3.732   6.275
55580SOL    HW168572  12.220   3.827   6.267
55580SOL    HW268573  12.116   3.718   6.268
55581SOL     OW68574  12.295  13.529  12.523
55581SOL    HW168575  12.302  13.435  12.507
55581SOL    HW268576  12.253  13.536  12.609
55582SOL     OW68577   9.206  14.390   3.440
55582SOL    HW168578   9.200  14.397   3.535
55582SOL    HW268579   9.189  14.298   3.421
55583SOL     OW68580   1.899   3.985   2.318
55583SOL    HW168581   1.921   3.917   2.255
55583SOL    HW268582   1.935   4.065   2.280
55584SOL     OW68583  12.083  12.081  12.423
55584SOL    HW168584  12.121  12.072  12.335
55584SOL    HW268585  12.148  12.042  12.481
55585SOL     OW68586  10.814   2.921   6.984
55585SOL    HW168587  10.846   2.939   7.072
55585SOL    HW268588  10.854   2.989   6.930
55586SOL     OW68589   2.691  13.892  10.788
55586SOL    HW168590   2.717  13.880  10.879
55586SOL    HW268591   2.633  13.969  10.790
55587SOL     OW68592  13.071   0.295   2.592
55587SOL    HW168593  13.120   0.373   2.619
55587SOL    HW268594  13.098   0.280   2.501
55588SOL     OW68595  13.713   6.611   2.422
55588SOL    HW168596  13.648   6.580   2.485
55588SOL    HW268597  13.796   6.608   2.469
55589SOL     OW68598  12.324   0.187   7.992
55589SOL    HW168599  12.328   0.276   7.957
55589SOL    HW268600  12.231   0.172   8.008
55590SOL     OW68601   1.230  11.700   2.861
55590SOL    HW168602   1.280  11.781   2.875
55590SOL    HW268603   1.242  11.650   2.941
55591SOL     OW68604   7.604   2.229   8.177
55591SOL    HW168605   7.670   2.237   8.108
55591SOL    HW268606   7.644   2.171   8.242
55592SOL     OW68607   2.963  11.251  11.468
55592SOL    HW168608   2.950  11.328  11.412
55592SOL    HW268609   2.919  11.274  11.550
55593SOL     OW68610   2.225  14.439   4.135
55593SOL    HW168611   2.272  14.458   4.054
55593SOL    HW268612   2.138  14.477   4.122
55594SOL     OW68613   2.529  13.127   0.835
55594SOL    HW168614   2.503  13.066   0.904
55594SOL    HW268615   2.467  13.112   0.764
55595SOL     OW68616   3.640   7.061  13.365
55595SOL    HW168617   3.698   7.135  13.385
55595SOL    HW268618   3.555   7.102  13.347
55596SOL     OW68619   4.685   4.419  14.160
55596SOL    HW168620   4.641   4.443  14.078
55596SOL    HW268621   4.748   4.490  14.175
55597SOL     OW68622  11.534   6.583   8.886
55597SOL    HW168623  11.447   6.571   8.925
55597SOL    HW268624  11.530   6.535   8.804
55598SOL     OW68625  12.016   3.118  11.270
55598SOL    HW168626  12.058   3.204  11.264
55598SOL    HW268627  11.946   3.121  11.205
55599SOL     OW68628   7.072  11.340  10.929
55599SOL    HW168629   7.059  11.336  11.024
55599SOL    HW268630   7.009  11.405  10.899
55600SOL     OW68631  10.777   4.310   9.421
55600SOL    HW168632  10.774   4.398   9.458
55600SOL    HW268633  10.706   4.263   9.465
55601SOL     OW68634   7.330  10.673   9.672
55601SOL    HW168635   7.309  10.621   9.594
55601SOL    HW268636   7.278  10.632   9.742
55602SOL     OW68637  13.212  14.445  13.315
55602SOL    HW168638  13.207  14.352  13.292
55602SOL    HW268639  13.142  14.458  13.379
55603SOL     OW68640   1.802   5.940   3.696
55603SOL    HW168641   1.825   5.848   3.681
55603SOL    HW268642   1.869   5.972   3.756
55604SOL     OW68643   6.849   3.836  10.365
55604SOL    HW168644   6.810   3.895  10.430
55604SOL    HW268645   6.868   3.892  10.291
55605SOL     OW68646  10.808  11.152   1.720
55605SOL    HW168647  10.875  11.221   1.710
55605SOL    HW268648  10.858  11.071   1.730
55606SOL     OW68649  14.871   4.119   3.160
55606SOL    HW168650  14.871   4.204   3.115
55606SOL    HW268651   0.091   4.098   3.171
55607SOL     OW68652   7.403  11.395  11.847
55607SOL    HW168653   7.395  11.485  11.880
55607SOL    HW268654   7.358  11.397  11.762
55608SOL     OW68655   1.623   5.404   9.319
55608SOL    HW168656   1.660   5.478   9.269
55608SOL    HW268657   1.563   5.362   9.259
55609SOL     OW68658   6.261  10.073  13.084
55609SOL    HW168659   6.227  10.133  13.150
55609SOL    HW268660   6.344  10.042  13.120
55610SOL     OW68661   7.134   5.450   7.565
55610SOL    HW168662   7.119   5.443   7.659
55610SOL    HW268663   7.188   5.528   7.555
55611SOL     OW68664  11.703   2.346   0.805
55611SOL    HW168665  11.620   2.304   0.781
55611SOL    HW268666  11.714   2.415   0.739
55612SOL     OW68667  10.826   6.136   9.008
55612SOL    HW168668  10.829   6.231   9.011
55612SOL    HW268669  10.910   6.108   9.044
55613SOL     OW68670  12.306   2.865   2.049
55613SOL    HW168671  12.270   2.911   1.973
55613SOL    HW268672  12.231   2.847   2.105
55614SOL     OW68673  11.009   5.122  12.104
55614SOL    HW168674  10.935   5.064  12.120
55614SOL    HW268675  11.066   5.109  12.180
55615SOL     OW68676   5.082   2.184  11.251
55615SOL    HW168677   5.128   2.110  11.290
55615SOL    HW268678   5.008   2.199  11.309
55616SOL     OW68679  10.982   9.429  12.593
55616SOL    HW168680  10.914   9.379  12.638
55616SOL    HW268681  10.955   9.429  12.501
55617SOL     OW68682   3.758  10.088  14.071
55617SOL    HW168683   3.809  10.094  13.991
55617SOL    HW268684   3.667  10.092  14.042
55618SOL     OW68685   0.948  14.697  14.712
55618SOL    HW168686   0.902  14.732  14.788
55618SOL    HW268687   0.934  14.762  14.644
55619SOL     OW68688   0.412   7.090   9.785
55619SOL    HW168689   0.411   7.145   9.707
55619SOL    HW268690   0.500   7.052   9.786
55620SOL     OW68691   7.927   2.809   7.290
55620SOL    HW168692   7.871   2.819   7.367
55620SOL    HW268693   7.866   2.791   7.219
55621SOL     OW68694   0.463   7.339  13.000
55621SOL    HW168695   0.450   7.245  12.990
55621SOL    HW268696   0.538   7.360  12.944
55622SOL     OW68697   9.244   2.544   0.319
55622SOL    HW168698   9.153   2.573   0.322
55622SOL    HW268699   9.271   2.557   0.228
55623SOL     OW68700   0.800   4.145   8.765
55623SOL    HW168701   0.779   4.165   8.857
55623SOL    HW268702   0.895   4.134   8.764
55624SOL     OW68703   1.779  12.809   7.706
55624SOL    HW168704   1.833  12.888   7.703
55624SOL    HW268705   1.782  12.781   7.798
55625SOL     OW68706  13.873   3.229   3.432
55625SOL    HW168707  13.787   3.267   3.416
55625SOL    HW268708  13.899   3.190   3.348
55626SOL     OW68709   6.810   2.420  11.247
55626SOL    HW168710   6.778   2.509  11.232
55626SOL    HW268711   6.882   2.410  11.184
55627SOL     OW68712   7.179   8.596   3.154
55627SOL    HW168713   7.253   8.590   3.094
55627SOL    HW268714   7.169   8.690   3.171
55628SOL     OW68715   3.352  13.789   3.928
55628SOL    HW168716   3.447  13.791   3.920
55628SOL    HW268717   3.329  13.697   3.912
55629SOL     OW68718  13.458  12.830   7.349
55629SOL    HW168719  13.526  12.898   7.344
55629SOL    HW268720  13.449  12.813   7.443
55630SOL     OW68721   7.027   6.533   0.505
55630SOL    HW168722   7.058   6.444   0.518
55630SOL    HW268723   7.076   6.585   0.569
55631SOL     OW68724   3.933   5.715   8.319
55631SOL    HW168725   4.005   5.680   8.372
55631SOL    HW268726   3.924   5.654   8.247
55632SOL     OW68727  12.092   6.865   2.226
55632SOL    HW168728  12.098   6.783   2.275
55632SOL    HW268729  12.156   6.855   2.156
55633SOL     OW68730   9.723  11.282   4.092
55633SOL    HW168731   9.755  11.286   4.002
55633SOL    HW268732   9.784  11.223   4.136
55634SOL     OW68733  13.700   1.740  11.251
55634SOL    HW168734  13.730   1.803  11.316
55634SOL    HW268735  13.643   1.680  11.299
55635SOL     OW68736   3.353  11.921   2.942
55635SOL    HW168737   3.430  11.886   2.899
55635SOL    HW268738   3.294  11.846   2.951
55636SOL     OW68739  14.274  14.353  14.346
55636SOL    HW168740  14.245  14.302  14.422
55636SOL    HW268741  14.193  14.387  14.307
55637SOL     OW68742   0.842   9.123  13.257
55637SOL    HW168743   0.847   9.099  13.350
55637SOL    HW268744   0.748   9.120  13.237
55638SOL     OW68745   2.174  10.177  11.861
55638SOL    HW168746   2.086  10.139  11.867
55638SOL    HW268747   2.179  10.237  11.935
55639SOL     OW68748  13.534  11.715  14.025
55639SOL    HW168749  13.535  11.690  14.118
55639SOL    HW268750  13.445  11.694  13.996
55640SOL     OW68751   9.609   1.794   0.374
55640SOL    HW168752   9.660   1.842   0.310
55640SOL    HW268753   9.669   1.727   0.407
55641SOL     OW68754  14.457  11.624   7.793
55641SOL    HW168755  14.479  11.669   7.711
55641SOL    HW268756  14.410  11.546   7.766
55642SOL     OW68757  10.131   3.246  11.061
55642SOL    HW168758  10.217   3.251  11.103
55642SOL    HW268759  10.091   3.167  11.097
55643SOL     OW68760   4.947   5.251  14.393
55643SOL    HW168761   4.937   5.204  14.475
55643SOL    HW268762   4.968   5.341  14.419
55644SOL     OW68763   5.513   6.159  12.300
55644SOL    HW168764   5.474   6.170  12.387
55644SOL    HW268765   5.510   6.064  12.285
55645SOL     OW68766  13.615   7.077   4.642
55645SOL    HW168767  13.571   7.001   4.680
55645SOL    HW268768  13.553   7.111   4.578
55646SOL     OW68769  10.910   9.499   1.280
55646SOL    HW168770  10.894   9.576   1.333
55646SOL    HW268771  11.004   9.482   1.289
55647SOL     OW68772   5.962   6.065   6.465
55647SOL    HW168773   6.052   6.039   6.487
55647SOL    HW268774   5.907   6.012   6.523
55648SOL     OW68775   2.620   4.283  14.800
55648SOL    HW168776   2.594   4.323   0.011
55648SOL    HW268777   2.604   4.190  14.811
55649SOL     OW68778   2.361   0.968   6.252
55649SOL    HW168779   2.393   0.956   6.163
55649SOL    HW268780   2.423   1.029   6.292
55650SOL     OW68781   7.787   4.335   2.648
55650SOL    HW168782   7.700   4.336   2.608
55650SOL    HW268783   7.842   4.287   2.586
55651SOL     OW68784   1.718   3.727   7.966
55651SOL    HW168785   1.633   3.694   7.938
55651SOL    HW268786   1.709   3.822   7.962
55652SOL     OW68787   9.963   8.700   7.933
55652SOL    HW168788  10.021   8.757   7.884
55652SOL    HW268789   9.985   8.716   8.025
55653SOL     OW68790   6.273  14.173  11.915
55653SOL    HW168791   6.329  14.185  11.838
55653SOL    HW268792   6.185  14.191  11.883
55654SOL     OW68793   1.487   8.775   5.999
55654SOL    HW168794   1.444   8.836   5.938
55654SOL    HW268795   1.577   8.770   5.967
55655SOL     OW68796   1.437   9.177   3.929
55655SOL    HW168797   1.395   9.151   3.847
55655SOL    HW268798   1.490   9.253   3.906
55656SOL     OW68799   3.702   0.191   4.815
55656SOL    HW168800   3.761   0.161   4.747
55656SOL    HW268801   3.614   0.175   4.780
55657SOL     OW68802   4.490  13.465   0.347
55657SOL    HW168803   4.441  13.440   0.269
55657SOL    HW268804   4.472  13.395   0.410
55658SOL     OW68805  14.538   6.656   5.802
55658SOL    HW168806  14.603   6.725   5.818
55658SOL    HW268807  14.532   6.609   5.885
55659SOL     OW68808   0.818   1.735   4.742
55659SOL    HW168809   0.725   1.711   4.752
55659SOL    HW268810   0.823   1.825   4.773
55660SOL     OW68811   7.223  13.760   1.159
55660SOL    HW168812   7.244  13.678   1.114
55660SOL    HW268813   7.152  13.798   1.107
55661SOL     OW68814  11.783   5.738   4.287
55661SOL    HW168815  11.776   5.643   4.282
55661SOL    HW268816  11.732   5.770   4.213
55662SOL     OW68817   8.687   3.099   3.028
55662SOL    HW168818   8.707   3.144   2.947
55662SOL    HW268819   8.763   3.043   3.044
55663SOL     OW68820  14.813   9.229   6.363
55663SOL    HW168821  14.852   9.242   6.277
55663SOL    HW268822  14.719   9.220   6.346
55664SOL     OW68823   0.998   7.086   2.446
55664SOL    HW168824   1.063   7.153   2.466
55664SOL    HW268825   1.042   7.026   2.386
55665SOL     OW68826   3.476  11.918  11.687
55665SOL    HW168827   3.491  11.960  11.602
55665SOL    HW268828   3.563  11.889  11.715
55666SOL     OW68829  12.686   3.951   1.799
55666SOL    HW168830  12.692   3.864   1.840
55666SOL    HW268831  12.650   4.007   1.867
55667SOL     OW68832   3.821   1.851   3.618
55667SOL    HW168833   3.842   1.776   3.674
55667SOL    HW268834   3.906   1.880   3.585
55668SOL     OW68835  14.589   0.072  12.841
55668SOL    HW168836  14.641   0.016  12.900
55668SOL    HW268837  14.624   0.053  12.754
55669SOL     OW68838  12.493   6.995   9.044
55669SOL    HW168839  12.421   6.934   9.058
55669SOL    HW268840  12.492   7.051   9.122
55670SOL     OW68841   1.855  11.233   2.159
55670SOL    HW168842   1.802  11.279   2.223
55670SOL    HW268843   1.836  11.140   2.174
55671SOL     OW68844  13.673  12.656  11.128
55671SOL    HW168845  13.690  12.591  11.061
55671SOL    HW268846  13.614  12.719  11.087
55672SOL     OW68847   1.111   7.359  10.234
55672SOL    HW168848   1.149   7.362  10.146
55672SOL    HW268849   1.103   7.450  10.260
55673SOL     OW68850  12.282   1.695   3.624
55673SOL    HW168851  12.209   1.694   3.562
55673SOL    HW268852  12.248   1.740   3.701
55674SOL     OW68853   6.586   2.599   1.866
55674SOL    HW168854   6.622   2.639   1.945
55674SOL    HW268855   6.543   2.671   1.821
55675SOL     OW68856   4.250  11.109   3.631
55675SOL    HW168857   4.251  11.171   3.558
55675SOL    HW268858   4.175  11.136   3.685
55676SOL     OW68859  11.534  14.763   3.206
55676SOL    HW168860  11.567  14.715   3.130
55676SOL    HW268861  11.613  14.792   3.252
55677SOL     OW68862  14.621  13.475   9.416
55677SOL    HW168863  14.704  13.445   9.379
55677SOL    HW268864  14.632  13.466   9.511
55678SOL     OW68865  13.606   6.601   8.402
55678SOL    HW168866  13.625   6.672   8.341
55678SOL    HW268867  13.598   6.523   8.347
55679SOL     OW68868   6.622   6.405   2.483
55679SOL    HW168869   6.595   6.324   2.440
55679SOL    HW268870   6.620   6.384   2.577
55680SOL     OW68871  11.642   3.332   0.118
55680SOL    HW168872  11.663   3.256   0.064
55680SOL    HW268873  11.727   3.370   0.141
55681SOL     OW68874  11.129   9.089   0.545
55681SOL    HW168875  11.127   9.138   0.463
55681SOL    HW268876  11.221   9.070   0.559
55682SOL     OW68877   5.930   9.397   2.203
55682SOL    HW168878   5.945   9.436   2.289
55682SOL    HW268879   5.848   9.347   2.213
55683SOL     OW68880   5.613   3.146  14.474
55683SOL    HW168881   5.554   3.139  14.400
55683SOL    HW268882   5.601   3.235  14.507
55684SOL     OW68883   2.351   6.109  13.884
55684SOL    HW168884   2.425   6.049  13.880
55684SOL    HW268885   2.379   6.184  13.832
55685SOL     OW68886  11.410  10.306   2.696
55685SOL    HW168887  11.315  10.319   2.690
55685SOL    HW268888  11.441  10.318   2.606
55686SOL     OW68889  13.000   7.702  13.143
55686SOL    HW168890  13.006   7.783  13.194
55686SOL    HW268891  12.963   7.729  13.060
55687SOL     OW68892  12.284   6.631  13.321
55687SOL    HW168893  12.217   6.569  13.294
55687SOL    HW268894  12.334   6.649  13.242
55688SOL     OW68895   7.521   1.097  14.095
55688SOL    HW168896   7.471   1.118  14.174
55688SOL    HW268897   7.466   1.036  14.046
55689SOL     OW68898   4.007   5.265   3.913
55689SOL    HW168899   3.918   5.298   3.900
55689SOL    HW268900   4.062   5.343   3.914
55690SOL     OW68901  10.202  10.352   3.626
55690SOL    HW168902  10.279  10.373   3.572
55690SOL    HW268903  10.212  10.258   3.644
55691SOL     OW68904   5.697   5.894  14.259
55691SOL    HW168905   5.604   5.899  14.280
55691SOL    HW268906   5.707   5.947  14.180
55692SOL     OW68907   6.157   9.614   0.289
55692SOL    HW168908   6.233   9.595   0.344
55692SOL    HW268909   6.151   9.709   0.286
55693SOL     OW68910  12.675   3.500   0.933
55693SOL    HW168911  12.583   3.473   0.937
55693SOL    HW268912  12.721   3.422   0.902
55694SOL     OW68913  13.903   1.231   6.545
55694SOL    HW168914  13.817   1.257   6.513
55694SOL    HW268915  13.892   1.223   6.640
55695SOL     OW68916   3.359   3.669   0.411
55695SOL    HW168917   3.325   3.683   0.322
55695SOL    HW268918   3.283   3.682   0.468
55696SOL     OW68919   8.294  14.224   7.372
55696SOL    HW168920   8.243  14.144   7.379
55696SOL    HW268921   8.385  14.196   7.384
55697SOL     OW68922  14.218   3.985  13.652
55697SOL    HW168923  14.166   3.923  13.600
55697SOL    HW268924  14.167   3.997  13.732
55698SOL     OW68925  13.353  13.155   8.335
55698SOL    HW168926  13.429  13.193   8.290
55698SOL    HW268927  13.357  13.062   8.315
55699SOL     OW68928  10.666   5.277   9.462
55699SOL    HW168929  10.618   5.320   9.391
55699SOL    HW268930  10.697   5.348   9.518
55700SOL     OW68931   8.864   3.046   8.580
55700SOL    HW168932   8.902   2.959   8.593
55700SOL    HW268933   8.926   3.106   8.621
55701SOL     OW68934   8.996   2.570   7.396
55701SOL    HW168935   9.034   2.517   7.326
55701SOL    HW268936   8.915   2.604   7.360
55702SOL     OW68937  13.015   9.790   0.490
55702SOL    HW168938  13.066   9.741   0.425
55702SOL    HW268939  12.975   9.861   0.440
55703SOL     OW68940  12.997   1.012  11.229
55703SOL    HW168941  13.083   1.054  11.235
55703SOL    HW268942  13.015   0.928  11.187
55704SOL     OW68943  10.638   7.829   4.194
55704SOL    HW168944  10.710   7.892   4.187
55704SOL    HW268945  10.562   7.883   4.218
55705SOL     OW68946   1.614   6.817   8.215
55705SOL    HW168947   1.622   6.758   8.289
55705SOL    HW268948   1.536   6.870   8.234
55706SOL     OW68949  12.093   5.257   7.012
55706SOL    HW168950  12.097   5.197   6.938
55706SOL    HW268951  12.000   5.279   7.021
55707SOL     OW68952   9.237   6.958  10.808
55707SOL    HW168953   9.177   6.991  10.742
55707SOL    HW268954   9.323   6.958  10.765
55708SOL     OW68955  11.335  10.210  10.369
55708SOL    HW168956  11.318  10.145  10.437
55708SOL    HW268957  11.255  10.261  10.363
55709SOL     OW68958   0.239   5.164  10.858
55709SOL    HW168959   0.328   5.148  10.827
55709SOL    HW268960   0.226   5.258  10.846
55710SOL     OW68961   5.210   2.131  12.276
55710SOL    HW168962   5.118   2.105  12.284
55710SOL    HW268963   5.248   2.067  12.215
55711SOL     OW68964   2.991   0.044  14.092
55711SOL    HW168965   2.943   0.126  14.090
55711SOL    HW268966   2.954  14.869  14.167
55712SOL     OW68967   9.913   4.727   4.754
55712SOL    HW168968   9.954   4.814   4.747
55712SOL    HW268969   9.826   4.744   4.788
55713SOL     OW68970  10.781   3.065  11.206
55713SOL    HW168971  10.747   2.985  11.166
55713SOL    HW268972  10.710   3.096  11.261
55714SOL     OW68973   1.299   2.402  11.887
55714SOL    HW168974   1.233   2.420  11.954
55714SOL    HW268975   1.334   2.488  11.864
55715SOL     OW68976   1.810   0.400  12.404
55715SOL    HW168977   1.890   0.418  12.354
55715SOL    HW268978   1.779   0.317  12.370
55716SOL     OW68979  10.502  14.690   4.977
55716SOL    HW168980  10.408  14.672   4.985
55716SOL    HW268981  10.533  14.696   5.067
55717SOL     OW68982   9.639   1.582   6.585
55717SOL    HW168983   9.711   1.625   6.630
55717SOL    HW268984   9.560   1.621   6.623
55718SOL     OW68985   2.263   2.233   4.280
55718SOL    HW168986   2.331   2.295   4.307
55718SOL    HW268987   2.183   2.286   4.278
55719SOL     OW68988  14.545  12.001  12.237
55719SOL    HW168989  14.509  12.001  12.325
55719SOL    HW268990  14.613  11.934  12.239
55720SOL     OW68991   2.205  13.416   8.351
55720SOL    HW168992   2.190  13.382   8.263
55720SOL    HW268993   2.156  13.358   8.409
55721SOL     OW68994   4.242   6.131   5.285
55721SOL    HW168995   4.202   6.135   5.198
55721SOL    HW268996   4.307   6.061   5.278
55722SOL     OW68997  11.428  10.836   3.446
55722SOL    HW168998  11.496  10.898   3.473
55722SOL    HW268999  11.394  10.799   3.527
55723SOL     OW69000   5.771  12.971   9.004
55723SOL    HW169001   5.800  12.932   8.921
55723SOL    HW269002   5.797  13.063   8.997
55724SOL     OW69003   8.606   7.012   3.714
55724SOL    HW169004   8.679   6.962   3.679
55724SOL    HW269005   8.562   6.952   3.774
55725SOL     OW69006   5.698  14.749   7.485
55725SOL    HW169007   5.694  14.824   7.545
55725SOL    HW269008   5.662  14.677   7.536
55726SOL     OW69009   2.891   2.090  12.862
55726SOL    HW169010   2.858   2.147  12.932
55726SOL    HW269011   2.966   2.046  12.901
55727SOL     OW69012   3.956   0.681  14.237
55727SOL    HW169013   3.898   0.751  14.207
55727SOL    HW269014   4.032   0.684  14.178
55728SOL     OW69015   1.241   1.210   7.420
55728SOL    HW169016   1.234   1.174   7.331
55728SOL    HW269017   1.194   1.294   7.415
55729SOL     OW69018   8.922  12.429   5.420
55729SOL    HW169019   8.988  12.381   5.369
55729SOL    HW269020   8.890  12.365   5.484
55730SOL     OW69021  10.215   7.496   2.371
55730SOL    HW169022  10.237   7.405   2.393
55730SOL    HW269023  10.167   7.490   2.289
55731SOL     OW69024   6.482   7.760   9.433
55731SOL    HW169025   6.433   7.802   9.503
55731SOL    HW269026   6.423   7.694   9.397
55732SOL     OW69027   3.121   1.933   5.674
55732SOL    HW169028   3.047   1.935   5.613
55732SOL    HW269029   3.189   1.985   5.632
55733SOL     OW69030   9.148   6.400   7.742
55733SOL    HW169031   9.079   6.380   7.806
55733SOL    HW269032   9.128   6.490   7.714
55734SOL     OW69033  13.457   7.646  14.130
55734SOL    HW169034  13.506   7.578  14.176
55734SOL    HW269035  13.383   7.665  14.188
55735SOL     OW69036   5.013   4.152   8.403
55735SOL    HW169037   4.983   4.062   8.390
55735SOL    HW269038   4.935   4.206   8.391
55736SOL     OW69039   4.283  13.862   4.912
55736SOL    HW169040   4.255  13.810   4.836
55736SOL    HW269041   4.377  13.845   4.920
55737SOL     OW69042   5.974   3.085   5.124
55737SOL    HW169043   5.932   3.062   5.206
55737SOL    HW269044   6.064   3.054   5.133
55738SOL     OW69045  13.393   9.433   7.091
55738SOL    HW169046  13.342   9.438   7.172
55738SOL    HW269047  13.440   9.350   7.097
55739SOL     OW69048   9.064   1.256  11.221
55739SOL    HW169049   9.110   1.263  11.137
55739SOL    HW269050   9.035   1.165  11.225
55740SOL     OW69051   2.740   4.162   1.018
55740SOL    HW169052   2.808   4.194   1.077
55740SOL    HW269053   2.717   4.238   0.964
55741SOL     OW69054  12.370   9.695   7.146
55741SOL    HW169055  12.404   9.679   7.234
55741SOL    HW269056  12.275   9.697   7.157
55742SOL     OW69057   6.758   8.588   9.890
55742SOL    HW169058   6.767   8.627   9.803
55742SOL    HW269059   6.837   8.533   9.900
55743SOL     OW69060   1.894  14.785  11.998
55743SOL    HW169061   1.848  14.828  11.926
55743SOL    HW269062   1.856  14.697  12.001
55744SOL     OW69063   3.135  11.395   9.584
55744SOL    HW169064   3.101  11.407   9.673
55744SOL    HW269065   3.060  11.365   9.533
55745SOL     OW69066   5.110   0.761   2.183
55745SOL    HW169067   5.035   0.743   2.126
55745SOL    HW269068   5.071   0.799   2.262
55746SOL     OW69069   4.219   0.702   3.056
55746SOL    HW169070   4.293   0.643   3.045
55746SOL    HW269071   4.149   0.647   3.091
55747SOL     OW69072   2.041   7.748   0.485
55747SOL    HW169073   2.129   7.787   0.479
55747SOL    HW269074   2.043   7.676   0.422
55748SOL     OW69075  12.683  14.190  10.944
55748SOL    HW169076  12.661  14.174  10.852
55748SOL    HW269077  12.712  14.105  10.977
55749SOL     OW69078  12.158   1.982  13.672
55749SOL    HW169079  12.218   1.913  13.642
55749SOL    HW269080  12.101   1.998  13.596
55750SOL     OW69081  11.417   9.953  12.761
55750SOL    HW169082  11.396   9.922  12.673
55750SOL    HW269083  11.456   9.877  12.804
55751SOL     OW69084   3.945  14.189   8.488
55751SOL    HW169085   3.998  14.136   8.547
55751SOL    HW269086   3.858  14.191   8.529
55752SOL     OW69087   3.528   1.161  13.507
55752SOL    HW169088   3.459   1.140  13.444
55752SOL    HW269089   3.568   1.076  13.527
55753SOL     OW69090   3.382   1.118  11.896
55753SOL    HW169091   3.472   1.086  11.896
55753SOL    HW269092   3.351   1.105  11.985
55754SOL     OW69093  12.601  11.424   9.476
55754SOL    HW169094  12.557  11.351   9.431
55754SOL    HW269095  12.541  11.448   9.547
55755SOL     OW69096   6.257   8.743  11.773
55755SOL    HW169097   6.208   8.770  11.695
55755SOL    HW269098   6.349   8.750  11.747
55756SOL     OW69099   4.915  14.016   3.706
55756SOL    HW169100   4.870  14.093   3.671
55756SOL    HW269101   4.861  13.942   3.677
55757SOL     OW69102   5.657  11.926   6.848
55757SOL    HW169103   5.728  11.928   6.913
55757SOL    HW269104   5.589  11.982   6.886
55758SOL     OW69105   1.937   3.936   4.336
55758SOL    HW169106   1.880   3.968   4.266
55758SOL    HW269107   1.900   3.972   4.416
55759SOL     OW69108   6.363  14.762   1.245
55759SOL    HW169109   6.350  14.841   1.192
55759SOL    HW269110   6.372  14.691   1.181
55760SOL     OW69111   5.559   7.864   0.887
55760SOL    HW169112   5.575   7.941   0.833
55760SOL    HW269113   5.527   7.798   0.825
55761SOL     OW69114   5.308  12.597   9.790
55761SOL    HW169115   5.315  12.686   9.757
55761SOL    HW269116   5.371  12.547   9.739
55762SOL     OW69117  12.802  13.113   4.709
55762SOL    HW169118  12.761  13.167   4.777
55762SOL    HW269119  12.894  13.137   4.711
55763SOL     OW69120   7.304  14.568   9.662
55763SOL    HW169121   7.293  14.473   9.661
55763SOL    HW269122   7.216  14.602   9.679
55764SOL     OW69123   7.047   4.908   1.051
55764SOL    HW169124   7.055   4.913   1.147
55764SOL    HW269125   7.016   4.819   1.035
55765SOL     OW69126   1.283   1.722   7.943
55765SOL    HW169127   1.277   1.685   8.030
55765SOL    HW269128   1.374   1.706   7.916
55766SOL     OW69129   6.522  14.761  10.426
55766SOL    HW169130   6.486  14.686  10.472
55766SOL    HW269131   6.536  14.826  10.495
55767SOL     OW69132   0.141   8.581  13.004
55767SOL    HW169133   0.222   8.620  12.970
55767SOL    HW269134   0.075   8.651  12.996
55768SOL     OW69135  10.519   3.023  11.371
55768SOL    HW169136  10.521   3.071  11.454
55768SOL    HW269137  10.462   3.075  11.315
55769SOL     OW69138   9.408   3.134   1.336
55769SOL    HW169139   9.340   3.184   1.382
55769SOL    HW269140   9.369   3.048   1.320
55770SOL     OW69141   4.122   4.183   3.435
55770SOL    HW169142   4.171   4.155   3.513
55770SOL    HW269143   4.186   4.177   3.364
55771SOL     OW69144   7.847  10.743   7.943
55771SOL    HW169145   7.820  10.801   7.872
55771SOL    HW269146   7.924  10.697   7.909
55772SOL     OW69147  13.823   0.830   6.927
55772SOL    HW169148  13.856   0.821   7.017
55772SOL    HW269149  13.891   0.879   6.881
55773SOL     OW69150  12.995   2.670   1.067
55773SOL    HW169151  13.086   2.678   1.095
55773SOL    HW269152  12.952   2.749   1.099
55774SOL     OW69153  10.526   9.587   3.908
55774SOL    HW169154  10.589   9.550   3.970
55774SOL    HW269155  10.516   9.519   3.841
55775SOL     OW69156   2.231   9.328   1.642
55775SOL    HW169157   2.291   9.286   1.581
55775SOL    HW269158   2.164   9.368   1.587
55776SOL     OW69159  13.506  14.043  10.991
55776SOL    HW169160  13.476  14.091  10.913
55776SOL    HW269161  13.553  14.108  11.042
55777SOL     OW69162   4.547  11.363  14.709
55777SOL    HW169163   4.510  11.394  14.792
55777SOL    HW269164   4.527  11.270  14.707
55778SOL     OW69165   7.258   3.716   5.192
55778SOL    HW169166   7.217   3.677   5.115
55778SOL    HW269167   7.327   3.654   5.217
55779SOL     OW69168   1.712   3.105   9.885
55779SOL    HW169169   1.638   3.080   9.829
55779SOL    HW269170   1.674   3.114   9.972
55780SOL     OW69171   8.759  13.742   3.542
55780SOL    HW169172   8.717  13.692   3.612
55780SOL    HW269173   8.728  13.701   3.461
55781SOL     OW69174  10.983  11.008   6.675
55781SOL    HW169175  11.001  11.102   6.666
55781SOL    HW269176  11.068  10.966   6.658
55782SOL     OW69177   0.190  13.754   1.139
55782SOL    HW169178   0.096  13.740   1.147
55782SOL    HW269179   0.230  13.680   1.185
55783SOL     OW69180   4.838   6.167   1.139
55783SOL    HW169181   4.906   6.232   1.159
55783SOL    HW269182   4.836   6.111   1.217
55784SOL     OW69183   8.674   5.720  14.436
55784SOL    HW169184   8.752   5.695  14.386
55784SOL    HW269185   8.621   5.640  14.439
55785SOL     OW69186  14.034   0.209  14.296
55785SOL    HW169187  14.034   0.286  14.353
55785SOL    HW269188  13.942   0.195  14.274
55786SOL     OW69189   8.995   1.765  10.208
55786SOL    HW169190   8.934   1.699  10.241
55786SOL    HW269191   8.995   1.834  10.275
55787SOL     OW69192   8.849   3.625   9.663
55787SOL    HW169193   8.838   3.539   9.704
55787SOL    HW269194   8.775   3.633   9.603
55788SOL     OW69195   1.614   5.023  11.064
55788SOL    HW169196   1.661   5.090  11.115
55788SOL    HW269197   1.588   5.069  10.983
55789SOL     OW69198   9.947  10.528   6.077
55789SOL    HW169199  10.011  10.530   6.006
55789SOL    HW269200   9.975  10.456   6.133
55790SOL     OW69201   8.911  10.132   9.477
55790SOL    HW169202   8.939  10.160   9.390
55790SOL    HW269203   8.969  10.179   9.537
55791SOL     OW69204   4.950  14.653   3.997
55791SOL    HW169205   4.983  14.574   4.039
55791SOL    HW269206   4.934  14.713   4.070
55792SOL     OW69207   8.797  14.789  14.785
55792SOL    HW169208   8.743  14.759  14.859
55792SOL    HW269209   8.817  14.709  14.737
55793SOL     OW69210   1.825   9.434  11.351
55793SOL    HW169211   1.735   9.426  11.380
55793SOL    HW269212   1.869   9.484  11.420
55794SOL     OW69213   9.422  11.221   7.813
55794SOL    HW169214   9.486  11.151   7.799
55794SOL    HW269215   9.467  11.285   7.869
55795SOL     OW69216   5.681  13.067   3.811
55795SOL    HW169217   5.635  13.087   3.893
55795SOL    HW269218   5.765  13.030   3.839
55796SOL     OW69219   4.702   2.082  13.989
55796SOL    HW169220   4.655   2.085  13.906
55796SOL    HW269221   4.790   2.052  13.966
55797SOL     OW69222   0.742  10.853   0.540
55797SOL    HW169223   0.764  10.929   0.486
55797SOL    HW269224   0.700  10.791   0.480
55798SOL     OW69225  12.239  12.185  11.664
55798SOL    HW169226  12.211  12.093  11.667
55798SOL    HW269227  12.257  12.202  11.572
55799SOL     OW69228   4.410   2.191   5.884
55799SOL    HW169229   4.401   2.112   5.829
55799SOL    HW269230   4.478   2.168   5.947
55800SOL     OW69231   3.451   9.412  11.981
55800SOL    HW169232   3.486   9.434  12.067
55800SOL    HW269233   3.454   9.317  11.977
55801SOL     OW69234  11.584   9.905  14.684
55801SOL    HW169235  11.622   9.918  14.597
55801SOL    HW269236  11.550   9.816  14.683
55802SOL     OW69237   1.868  10.605   5.890
55802SOL    HW169238   1.796  10.661   5.919
55802SOL    HW269239   1.916  10.585   5.971
55803SOL     OW69240  11.497  13.725   7.293
55803SOL    HW169241  11.493  13.802   7.350
55803SOL    HW269242  11.587  13.694   7.302
55804SOL     OW69243   8.464   9.891  14.647
55804SOL    HW169244   8.554   9.913  14.670
55804SOL    HW269245   8.434   9.834  14.717
55805SOL     OW69246   7.515  12.129  11.835
55805SOL    HW169247   7.569  12.202  11.807
55805SOL    HW269248   7.575  12.069  11.878
55806SOL     OW69249  13.658   2.278  13.535
55806SOL    HW169250  13.589   2.324  13.488
55806SOL    HW269251  13.675   2.200  13.481
55807SOL     OW69252   0.666   7.190  12.603
55807SOL    HW169253   0.695   7.173  12.514
55807SOL    HW269254   0.592   7.130  12.617
55808SOL     OW69255   4.042   0.637   3.705
55808SOL    HW169256   4.026   0.626   3.798
55808SOL    HW269257   3.987   0.710   3.678
55809SOL     OW69258   1.121   0.906  10.545
55809SOL    HW169259   1.079   0.829  10.506
55809SOL    HW269260   1.049   0.968  10.558
55810SOL     OW69261  11.100   5.786   0.317
55810SOL    HW169262  11.100   5.826   0.230
55810SOL    HW269263  11.111   5.859   0.378
55811SOL     OW69264   6.631  11.123   6.482
55811SOL    HW169265   6.563  11.067   6.520
55811SOL    HW269266   6.713  11.086   6.513
55812SOL     OW69267   3.032   0.568   1.254
55812SOL    HW169268   3.062   0.479   1.272
55812SOL    HW269269   3.110   0.623   1.267
55813SOL     OW69270  12.745   9.803  14.239
55813SOL    HW169271  12.677   9.745  14.205
55813SOL    HW269272  12.813   9.801  14.172
55814SOL     OW69273   9.886   6.561   0.752
55814SOL    HW169274   9.943   6.589   0.823
55814SOL    HW269275   9.799   6.589   0.779
55815SOL     OW69276   5.689   0.391   6.929
55815SOL    HW169277   5.761   0.422   6.874
55815SOL    HW269278   5.720   0.308   6.964
55816SOL     OW69279   5.663   8.251   0.446
55816SOL    HW169280   5.591   8.312   0.464
55816SOL    HW269281   5.740   8.307   0.443
55817SOL     OW69282  10.132  11.390   7.455
55817SOL    HW169283  10.131  11.405   7.360
55817SOL    HW269284  10.167  11.302   7.465
55818SOL     OW69285  13.102   2.007  13.103
55818SOL    HW169286  13.175   2.003  13.042
55818SOL    HW269287  13.038   1.944  13.068
55819SOL     OW69288   4.221   4.518   5.805
55819SOL    HW169289   4.264   4.591   5.849
55819SOL    HW269290   4.289   4.450   5.799
55820SOL     OW69291   3.684   9.775   1.741
55820SOL    HW169292   3.633   9.856   1.748
55820SOL    HW269293   3.775   9.804   1.748
55821SOL     OW69294  12.896  13.571  14.556
55821SOL    HW169295  12.896  13.479  14.585
55821SOL    HW269296  12.932  13.568  14.468
55822SOL     OW69297  14.712   1.519   9.355
55822SOL    HW169298  14.697   1.532   9.261
55822SOL    HW269299  14.626   1.493   9.389
55823SOL     OW69300   8.592  11.874  10.437
55823SOL    HW169301   8.541  11.892  10.516
55823SOL    HW269302   8.683  11.871  10.467
55824SOL     OW69303  14.784   9.561   2.459
55824SOL    HW169304  14.755   9.597   2.375
55824SOL    HW269305  14.839   9.487   2.436
55825SOL     OW69306   0.796  10.062  12.496
55825SOL    HW169307   0.886  10.038  12.472
55825SOL    HW269308   0.800  10.078  12.590
55826SOL     OW69309   3.201   5.409   0.376
55826SOL    HW169310   3.284   5.447   0.347
55826SOL    HW269311   3.214   5.393   0.470
55827SOL     OW69312   7.190   6.848  13.514
55827SOL    HW169313   7.186   6.923  13.455
55827SOL    HW269314   7.108   6.801  13.500
55828SOL     OW69315  13.906   4.114   6.458
55828SOL    HW169316  13.949   4.178   6.515
55828SOL    HW269317  13.972   4.094   6.392
55829SOL     OW69318  11.326   9.978  10.003
55829SOL    HW169319  11.232   9.984   9.985
55829SOL    HW269320  11.332   9.913  10.073
55830SOL     OW69321   5.434   5.277   4.138
55830SOL    HW169322   5.416   5.352   4.194
55830SOL    HW269323   5.441   5.203   4.198
55831SOL     OW69324  14.733  10.308   5.820
55831SOL    HW169325  14.703  10.251   5.749
55831SOL    HW269326  14.740  10.250   5.896
55832SOL     OW69327  14.690  13.565   4.525
55832SOL    HW169328  14.739  13.599   4.600
55832SOL    HW269329  14.637  13.638   4.495
55833SOL     OW69330   2.182   9.767  13.274
55833SOL    HW169331   2.248   9.749  13.341
55833SOL    HW269332   2.133   9.841  13.308
55834SOL     OW69333   2.347  11.046  13.003
55834SOL    HW169334   2.326  11.138  13.019
55834SOL    HW269335   2.271  11.013  12.955
55835SOL     OW69336   5.197   9.134   5.570
55835SOL    HW169337   5.211   9.040   5.577
55835SOL    HW269338   5.204   9.166   5.660
55836SOL     OW69339   8.992  10.967  11.385
55836SOL    HW169340   8.983  10.969  11.290
55836SOL    HW269341   9.085  10.981  11.401
55837SOL     OW69342  12.312   4.127   3.959
55837SOL    HW169343  12.230   4.091   3.993
55837SOL    HW269344  12.288   4.166   3.875
55838SOL     OW69345  10.153   3.920   1.609
55838SOL    HW169346  10.218   3.989   1.598
55838SOL    HW269347  10.078   3.948   1.557
55839SOL     OW69348  11.552  11.365   4.678
55839SOL    HW169349  11.630  11.323   4.714
55839SOL    HW269350  11.567  11.366   4.583
55840SOL     OW69351  13.842   1.196   3.437
55840SOL    HW169352  13.844   1.228   3.346
55840SOL    HW269353  13.932   1.169   3.455
55841SOL     OW69354   0.145  13.612  13.291
55841SOL    HW169355   0.064  13.612  13.240
55841SOL    HW269356   0.120  13.576  13.376
55842SOL     OW69357   3.675  10.644   2.536
55842SOL    HW169358   3.619  10.591   2.592
55842SOL    HW269359   3.726  10.697   2.596
55843SOL     OW69360  14.234  10.906   9.328
55843SOL    HW169361  14.165  10.897   9.394
55843SOL    HW269362  14.292  10.973   9.363
55844SOL     OW69363   1.833   2.986   5.673
55844SOL    HW169364   1.795   2.967   5.587
55844SOL    HW269365   1.772   2.948   5.736
55845SOL     OW69366   4.314   5.248   8.508
55845SOL    HW169367   4.253   5.301   8.559
55845SOL    HW269368   4.317   5.164   8.555
55846SOL     OW69369  10.448   1.257   8.297
55846SOL    HW169370  10.405   1.255   8.212
55846SOL    HW269371  10.476   1.348   8.308
55847SOL     OW69372   9.251   4.308   6.738
55847SOL    HW169373   9.212   4.390   6.768
55847SOL    HW269374   9.207   4.289   6.655
55848SOL     OW69375  11.842  14.744  10.290
55848SOL    HW169376  11.858  14.834  10.320
55848SOL    HW269377  11.748  14.732  10.298
55849SOL     OW69378  12.293  14.757  11.001
55849SOL    HW169379  12.382  14.721  11.004
55849SOL    HW269380  12.294  14.827  11.067
55850SOL     OW69381   6.111  12.724   8.136
55850SOL    HW169382   6.094  12.630   8.143
55850SOL    HW269383   6.103  12.742   8.042
55851SOL     OW69384   0.169   0.393  11.943
55851SOL    HW169385   0.258   0.424  11.962
55851SOL    HW269386   0.176   0.350  11.858
55852SOL     OW69387   1.791   2.658   9.250
55852SOL    HW169388   1.709   2.616   9.226
55852SOL    HW269389   1.765   2.736   9.298
55853SOL     OW69390   6.890   6.639  12.922
55853SOL    HW169391   6.958   6.681  12.870
55853SOL    HW269392   6.922   6.644  13.012
55854SOL     OW69393   1.228   9.980   5.857
55854SOL    HW169394   1.224  10.060   5.805
55854SOL    HW269395   1.225   9.909   5.793
55855SOL     OW69396   3.330  10.072   6.821
55855SOL    HW169397   3.392  10.118   6.877
55855SOL    HW269398   3.375   9.991   6.797
55856SOL     OW69399  14.826  12.440  10.205
55856SOL    HW169400  14.753  12.379  10.197
55856SOL    HW269401  14.786  12.525  10.223
55857SOL     OW69402  11.319  11.610   5.946
55857SOL    HW169403  11.305  11.515   5.955
55857SOL    HW269404  11.261  11.649   6.011
55858SOL     OW69405   7.473  10.328   0.169
55858SOL    HW169406   7.435  10.246   0.202
55858SOL    HW269407   7.398  10.386   0.156
55859SOL     OW69408   8.296  12.869   8.324
55859SOL    HW169409   8.262  12.912   8.246
55859SOL    HW269410   8.298  12.776   8.301
55860SOL     OW69411   7.210  10.691  12.413
55860SOL    HW169412   7.141  10.754  12.392
55860SOL    HW269413   7.289  10.730  12.375
55861SOL     OW69414   1.598  10.417   2.406
55861SOL    HW169415   1.630  10.327   2.417
55861SOL    HW269416   1.506  10.406   2.383
55862SOL     OW69417  13.103   3.041   5.855
55862SOL    HW169418  13.163   3.034   5.781
55862SOL    HW269419  13.063   2.954   5.862
55863SOL     OW69420   4.985  11.444   3.915
55863SOL    HW169421   5.023  11.491   3.990
55863SOL    HW269422   4.891  11.449   3.929
55864SOL     OW69423   2.836  10.621  11.044
55864SOL    HW169424   2.918  10.573  11.055
55864SOL    HW269425   2.783  10.564  10.988
55865SOL     OW69426   3.435   8.622   5.769
55865SOL    HW169427   3.355   8.581   5.737
55865SOL    HW269428   3.451   8.581   5.854
55866SOL     OW69429   9.939   9.452   2.222
55866SOL    HW169430   9.971   9.393   2.154
55866SOL    HW269431   9.844   9.449   2.214
55867SOL     OW69432  11.411   4.253  13.089
55867SOL    HW169433  11.411   4.188  13.018
55867SOL    HW269434  11.454   4.209  13.162
55868SOL     OW69435   4.344  12.444  12.903
55868SOL    HW169436   4.256  12.411  12.916
55868SOL    HW269437   4.379  12.392  12.831
55869SOL     OW69438   9.730  12.728   2.895
55869SOL    HW169439   9.801  12.791   2.883
55869SOL    HW269440   9.654  12.781   2.916
55870SOL     OW69441  10.845  12.195   0.513
55870SOL    HW169442  10.812  12.261   0.574
55870SOL    HW269443  10.930  12.169   0.549
55871SOL     OW69444   7.280   0.379   6.743
55871SOL    HW169445   7.305   0.355   6.654
55871SOL    HW269446   7.361   0.372   6.794
55872SOL     OW69447   8.662   5.922   2.492
55872SOL    HW169448   8.576   5.905   2.531
55872SOL    HW269449   8.683   6.012   2.518
55873SOL     OW69450  14.705   2.304   1.356
55873SOL    HW169451  14.658   2.379   1.319
55873SOL    HW269452  14.642   2.233   1.356
55874SOL     OW69453   7.330   3.530  11.818
55874SOL    HW169454   7.251   3.577  11.846
55874SOL    HW269455   7.354   3.478  11.895
55875SOL     OW69456  12.944  11.341  13.018
55875SOL    HW169457  12.852  11.313  13.017
55875SOL    HW269458  12.987  11.286  12.952
55876SOL     OW69459   9.794  13.708   7.431
55876SOL    HW169460   9.740  13.724   7.508
55876SOL    HW269461   9.732  13.708   7.358
55877SOL     OW69462  12.470   5.509   5.027
55877SOL    HW169463  12.500   5.555   5.106
55877SOL    HW269464  12.385   5.548   5.008
55878SOL     OW69465   4.046   8.809   2.044
55878SOL    HW169466   3.968   8.807   2.100
55878SOL    HW269467   4.119   8.792   2.104
55879SOL     OW69468  11.529   1.974  13.521
55879SOL    HW169469  11.521   2.050  13.579
55879SOL    HW269470  11.450   1.923  13.538
55880SOL     OW69471   6.692   8.916   5.205
55880SOL    HW169472   6.746   8.983   5.248
55880SOL    HW269473   6.621   8.899   5.266
55881SOL     OW69474   6.070   8.237   1.659
55881SOL    HW169475   6.049   8.272   1.572
55881SOL    HW269476   6.042   8.306   1.719
55882SOL     OW69477   2.609   9.113   3.049
55882SOL    HW169478   2.541   9.150   3.104
55882SOL    HW269479   2.639   9.035   3.096
55883SOL     OW69480   9.507   7.091  10.476
55883SOL    HW169481   9.438   7.069  10.413
55883SOL    HW269482   9.582   7.114  10.421
55884SOL     OW69483   4.724   0.385  10.899
55884SOL    HW169484   4.766   0.352  10.978
55884SOL    HW269485   4.670   0.458  10.929
55885SOL     OW69486   1.539   6.114  10.395
55885SOL    HW169487   1.519   6.034  10.445
55885SOL    HW269488   1.622   6.145  10.432
55886SOL     OW69489  10.721  13.858  12.857
55886SOL    HW169490  10.802  13.812  12.835
55886SOL    HW269491  10.718  13.855  12.953
55887SOL     OW69492   0.893  10.422   5.136
55887SOL    HW169493   0.878  10.355   5.204
55887SOL    HW269494   0.887  10.373   5.054
55888SOL     OW69495   7.265   5.214   3.071
55888SOL    HW169496   7.227   5.282   3.126
55888SOL    HW269497   7.299   5.149   3.133
55889SOL     OW69498   6.766  11.469  14.056
55889SOL    HW169499   6.741  11.382  14.025
55889SOL    HW269500   6.800  11.513  13.978
55890SOL     OW69501   2.528   1.323   2.673
55890SOL    HW169502   2.548   1.417   2.675
55890SOL    HW269503   2.557   1.291   2.758
55891SOL     OW69504   1.052  10.028  12.424
55891SOL    HW169505   1.061   9.987  12.338
55891SOL    HW269506   1.072  10.120  12.408
55892SOL     OW69507  13.906   1.472   2.697
55892SOL    HW169508  13.926   1.542   2.635
55892SOL    HW269509  13.836   1.422   2.655
55893SOL     OW69510   3.660   5.872   9.413
55893SOL    HW169511   3.566   5.864   9.395
55893SOL    HW269512   3.684   5.787   9.451
55894SOL     OW69513   0.642   6.099   7.596
55894SOL    HW169514   0.663   6.013   7.558
55894SOL    HW269515   0.600   6.147   7.525
55895SOL     OW69516  10.002   5.983   1.584
55895SOL    HW169517   9.967   6.060   1.538
55895SOL    HW269518  10.069   6.018   1.642
55896SOL     OW69519  14.841  11.368   3.225
55896SOL    HW169520  14.848  11.285   3.272
55896SOL    HW269521   0.053  11.411   3.239
55897SOL     OW69522  11.239  12.377   5.290
55897SOL    HW169523  11.149  12.408   5.286
55897SOL    HW269524  11.235  12.285   5.264
55898SOL     OW69525   7.593  14.374   5.203
55898SOL    HW169526   7.601  14.355   5.297
55898SOL    HW269527   7.671  14.336   5.164
55899SOL     OW69528   4.022   6.337   9.265
55899SOL    HW169529   4.101   6.320   9.317
55899SOL    HW269530   3.995   6.250   9.235
55900SOL     OW69531   4.977  10.279   6.637
55900SOL    HW169532   4.947  10.196   6.600
55900SOL    HW269533   4.902  10.338   6.627
55901SOL     OW69534   3.345   7.337  11.631
55901SOL    HW169535   3.288   7.389  11.573
55901SOL    HW269536   3.371   7.399  11.699
55902SOL     OW69537   9.944   4.082   1.763
55902SOL    HW169538   9.892   4.062   1.684
55902SOL    HW269539   9.882   4.127   1.821
55903SOL     OW69540   0.684   5.980  14.800
55903SOL    HW169541   0.776   5.972  14.825
55903SOL    HW269542   0.686   5.997  14.706
55904SOL     OW69543  11.942   3.400   0.177
55904SOL    HW169544  11.958   3.480   0.127
55904SOL    HW269545  12.024   3.385   0.225
55905SOL     OW69546   0.509   7.525  13.942
55905SOL    HW169547   0.505   7.430  13.957
55905SOL    HW269548   0.559   7.534  13.861
55906SOL     OW69549  14.002  14.809   1.302
55906SOL    HW169550  14.000  14.748   1.228
55906SOL    HW269551  14.069  14.774   1.360
55907SOL     OW69552  10.180   4.394   1.442
55907SOL    HW169553  10.236   4.367   1.515
55907SOL    HW269554  10.140   4.476   1.472
55908SOL     OW69555  12.615   1.362  12.832
55908SOL    HW169556  12.649   1.283  12.791
55908SOL    HW269557  12.655   1.434  12.783
55909SOL     OW69558  10.836   6.933   7.953
55909SOL    HW169559  10.916   6.969   7.992
55909SOL    HW269560  10.818   6.992   7.879
55910SOL     OW69561  13.417  11.372  13.449
55910SOL    HW169562  13.376  11.330  13.525
55910SOL    HW269563  13.490  11.314  13.426
55911SOL     OW69564  13.281  11.568  11.747
55911SOL    HW169565  13.309  11.507  11.679
55911SOL    HW269566  13.296  11.522  11.829
55912SOL     OW69567   9.900  12.885  13.578
55912SOL    HW169568   9.903  12.971  13.621
55912SOL    HW269569   9.981  12.842  13.606
55913SOL     OW69570  12.517  12.378   9.254
55913SOL    HW169571  12.562  12.305   9.297
55913SOL    HW269572  12.447  12.403   9.314
55914SOL     OW69573  14.425   5.336  10.352
55914SOL    HW169574  14.367   5.262  10.371
55914SOL    HW269575  14.372   5.413  10.372
55915SOL     OW69576   5.406  13.398   0.582
55915SOL    HW169577   5.372  13.313   0.608
55915SOL    HW269578   5.331  13.457   0.591
55916SOL     OW69579  12.137  12.270   9.055
55916SOL    HW169580  12.065  12.294   8.997
55916SOL    HW269581  12.214  12.266   8.997
55917SOL     OW69582   8.644  10.210   9.572
55917SOL    HW169583   8.725  10.216   9.521
55917SOL    HW269584   8.585  10.160   9.516
55918SOL     OW69585  13.687   5.755  14.739
55918SOL    HW169586  13.697   5.663  14.761
55918SOL    HW269587  13.608   5.759  14.685
55919SOL     OW69588   0.575   0.945   7.178
55919SOL    HW169589   0.496   0.990   7.147
55919SOL    HW269590   0.625   1.013   7.224
55920SOL     OW69591   8.489  13.770   2.839
55920SOL    HW169592   8.490  13.701   2.905
55920SOL    HW269593   8.548  13.837   2.873
55921SOL     OW69594  12.878  13.620  13.973
55921SOL    HW169595  12.872  13.697  13.916
55921SOL    HW269596  12.918  13.653  14.053
55922SOL     OW69597   0.367   4.383  13.718
55922SOL    HW169598   0.302   4.416  13.780
55922SOL    HW269599   0.327   4.395  13.632
55923SOL     OW69600   3.556   2.280   8.722
55923SOL    HW169601   3.562   2.371   8.692
55923SOL    HW269602   3.612   2.231   8.663
55924SOL     OW69603  12.348   2.677   1.700
55924SOL    HW169604  12.376   2.768   1.711
55924SOL    HW269605  12.256   2.683   1.673
55925SOL     OW69606   5.997   1.628   3.605
55925SOL    HW169607   5.961   1.647   3.518
55925SOL    HW269608   5.968   1.702   3.659
55926SOL     OW69609   8.830   1.711  11.466
55926SOL    HW169610   8.892   1.657  11.515
55926SOL    HW269611   8.748   1.703  11.514
55927SOL     OW69612  13.859   4.010   4.299
55927SOL    HW169613  13.778   3.972   4.264
55927SOL    HW269614  13.834   4.050   4.382
55928SOL     OW69615   3.744   1.175   7.959
55928SOL    HW169616   3.747   1.247   7.896
55928SOL    HW269617   3.652   1.167   7.981
55929SOL     OW69618   3.764   4.432  10.502
55929SOL    HW169619   3.677   4.416  10.538
55929SOL    HW269620   3.747   4.477  10.419
55930SOL     OW69621   3.078   4.935   4.370
55930SOL    HW169622   3.072   4.917   4.276
55930SOL    HW269623   2.988   4.925   4.402
55931SOL     OW69624   1.348  13.458   7.730
55931SOL    HW169625   1.369  13.401   7.656
55931SOL    HW269626   1.278  13.412   7.777
55932SOL     OW69627   6.611   1.520   5.462
55932SOL    HW169628   6.641   1.554   5.377
55932SOL    HW269629   6.538   1.578   5.486
55933SOL     OW69630  10.212  11.780   9.708
55933SOL    HW169631  10.189  11.700   9.756
55933SOL    HW269632  10.202  11.850   9.773
55934SOL     OW69633   1.628  10.330   5.085
55934SOL    HW169634   1.701  10.359   5.030
55934SOL    HW269635   1.570  10.282   5.026
55935SOL     OW69636   8.479  10.930   9.060
55935SOL    HW169637   8.405  10.961   9.008
55935SOL    HW269638   8.524  10.868   9.003
55936SOL     OW69639  13.560   9.243   0.727
55936SOL    HW169640  13.545   9.237   0.633
55936SOL    HW269641  13.621   9.171   0.746
55937SOL     OW69642   3.401   5.419  10.984
55937SOL    HW169643   3.405   5.358  10.910
55937SOL    HW269644   3.447   5.374  11.055
55938SOL     OW69645   2.314   1.282  14.391
55938SOL    HW169646   2.232   1.299  14.437
55938SOL    HW269647   2.340   1.368  14.357
55939SOL     OW69648   4.686   4.001   3.812
55939SOL    HW169649   4.769   3.960   3.840
55939SOL    HW269650   4.707   4.043   3.729
55940SOL     OW69651   5.067  13.235   4.676
55940SOL    HW169652   5.110  13.299   4.619
55940SOL    HW269653   4.991  13.206   4.625
55941SOL     OW69654   7.424   6.466  11.860
55941SOL    HW169655   7.424   6.440  11.768
55941SOL    HW269656   7.349   6.525  11.868
55942SOL     OW69657   5.944  10.838   4.969
55942SOL    HW169658   6.003  10.784   5.022
55942SOL    HW269659   5.874  10.779   4.942
55943SOL     OW69660   0.888  10.173  12.749
55943SOL    HW169661   0.870  10.264  12.770
55943SOL    HW269662   0.909  10.133  12.833
55944SOL     OW69663   4.433  11.895   0.310
55944SOL    HW169664   4.506  11.890   0.372
55944SOL    HW269665   4.398  11.983   0.322
55945SOL     OW69666  10.047  12.299   5.677
55945SOL    HW169667  10.137  12.290   5.710
55945SOL    HW269668  10.029  12.393   5.683
55946SOL     OW69669   1.561   5.433   8.492
55946SOL    HW169670   1.552   5.528   8.499
55946SOL    HW269671   1.490   5.398   8.546
55947SOL     OW69672   2.328   6.444  13.059
55947SOL    HW169673   2.376   6.476  12.982
55947SOL    HW269674   2.236   6.455  13.035
55948SOL     OW69675  13.259  14.047   2.794
55948SOL    HW169676  13.212  13.986   2.737
55948SOL    HW269677  13.213  14.042   2.877
55949SOL     OW69678   5.082   8.679  12.832
55949SOL    HW169679   5.077   8.658  12.739
55949SOL    HW269680   5.159   8.631  12.863
55950SOL     OW69681   4.135   6.652   8.796
55950SOL    HW169682   4.214   6.669   8.848
55950SOL    HW269683   4.162   6.669   8.705
55951SOL     OW69684   9.969   2.547   6.679
55951SOL    HW169685   9.921   2.629   6.664
55951SOL    HW269686  10.047   2.554   6.625
55952SOL     OW69687   7.090   5.585   2.297
55952SOL    HW169688   7.133   5.516   2.348
55952SOL    HW269689   7.000   5.555   2.289
55953SOL     OW69690   1.237  13.242   8.584
55953SOL    HW169691   1.162  13.183   8.574
55953SOL    HW269692   1.198  13.329   8.592
55954SOL     OW69693   9.891  14.287   5.904
55954SOL    HW169694   9.859  14.370   5.939
55954SOL    HW269695   9.822  14.257   5.846
55955SOL     OW69696   4.502   3.945   1.477
55955SOL    HW169697   4.592   3.942   1.509
55955SOL    HW269698   4.508   3.994   1.395
55956SOL     OW69699   8.317   1.275   5.457
55956SOL    HW169700   8.396   1.316   5.493
55956SOL    HW269701   8.345   1.186   5.435
55957SOL     OW69702   7.903   8.550   7.551
55957SOL    HW169703   7.836   8.604   7.594
55957SOL    HW269704   7.902   8.468   7.600
55958SOL     OW69705   0.206   4.115   8.863
55958SOL    HW169706   0.134   4.089   8.920
55958SOL    HW269707   0.164   4.137   8.780
55959SOL     OW69708   3.620   2.052  13.949
55959SOL    HW169709   3.650   2.142  13.959
55959SOL    HW269710   3.634   2.012  14.035
55960SOL     OW69711  10.983  10.032   4.734
55960SOL    HW169712  11.040  10.058   4.806
55960SOL    HW269713  10.934  10.111   4.711
55961SOL     OW69714  12.278  10.442   3.657
55961SOL    HW169715  12.310  10.484   3.577
55961SOL    HW269716  12.193  10.406   3.632
55962SOL     OW69717   9.371   4.596   7.103
55962SOL    HW169718   9.451   4.558   7.068
55962SOL    HW269719   9.368   4.566   7.194
55963SOL     OW69720  13.663  11.762  10.624
55963SOL    HW169721  13.608  11.683  10.627
55963SOL    HW269722  13.732  11.741  10.560
55964SOL     OW69723  14.427  10.944   9.121
55964SOL    HW169724  14.346  10.894   9.127
55964SOL    HW269725  14.496  10.877   9.122
55965SOL     OW69726  12.688   5.512   6.989
55965SOL    HW169727  12.756   5.513   7.056
55965SOL    HW269728  12.678   5.420   6.965
55966SOL     OW69729   3.432   3.796   6.122
55966SOL    HW169730   3.482   3.874   6.097
55966SOL    HW269731   3.359   3.794   6.060
55967SOL     OW69732   7.843  12.544  12.658
55967SOL    HW169733   7.936  12.523  12.657
55967SOL    HW269734   7.802  12.474  12.709
55968SOL     OW69735   9.650   9.925   5.671
55968SOL    HW169736   9.621   9.889   5.755
55968SOL    HW269737   9.692   9.852   5.626
55969SOL     OW69738   6.020   7.505   6.523
55969SOL    HW169739   5.956   7.434   6.520
55969SOL    HW269740   5.967   7.585   6.522
55970SOL     OW69741  10.085  14.540  12.526
55970SOL    HW169742  10.176  14.568  12.527
55970SOL    HW269743  10.090  14.444  12.533
55971SOL     OW69744   5.019   2.034   4.718
55971SOL    HW169745   5.002   2.002   4.629
55971SOL    HW269746   5.107   2.002   4.738
55972SOL     OW69747  13.516   2.538   1.211
55972SOL    HW169748  13.461   2.468   1.175
55972SOL    HW269749  13.506   2.530   1.306
55973SOL     OW69750   3.699  13.120   1.865
55973SOL    HW169751   3.686  13.175   1.788
55973SOL    HW269752   3.782  13.148   1.902
55974SOL     OW69753   0.846   6.513   7.178
55974SOL    HW169754   0.840   6.552   7.090
55974SOL    HW269755   0.783   6.563   7.230
55975SOL     OW69756  11.880  13.887   7.812
55975SOL    HW169757  11.897  13.918   7.902
55975SOL    HW269758  11.911  13.959   7.757
55976SOL     OW69759  11.606   8.502  10.011
55976SOL    HW169760  11.640   8.414   9.993
55976SOL    HW269761  11.552   8.522   9.934
55977SOL     OW69762  14.842  12.519   2.026
55977SOL    HW169763  14.829  12.464   1.949
55977SOL    HW269764  14.790  12.476   2.095
55978SOL     OW69765   2.225   8.229   9.541
55978SOL    HW169766   2.302   8.236   9.597
55978SOL    HW269767   2.203   8.136   9.540
55979SOL     OW69768   1.719  13.052   2.714
55979SOL    HW169769   1.706  13.018   2.802
55979SOL    HW269770   1.646  13.113   2.701
55980SOL     OW69771   7.333   9.009  11.831
55980SOL    HW169772   7.334   8.916  11.806
55980SOL    HW269773   7.240   9.033  11.828
55981SOL     OW69774   2.832   2.574   7.864
55981SOL    HW169775   2.877   2.632   7.926
55981SOL    HW269776   2.825   2.626   7.784
55982SOL     OW69777   3.438   7.239  12.355
55982SOL    HW169778   3.396   7.296  12.290
55982SOL    HW269779   3.531   7.259  12.346
55983SOL     OW69780   7.412   3.811   4.173
55983SOL    HW169781   7.436   3.886   4.229
55983SOL    HW269782   7.449   3.832   4.088
55984SOL     OW69783  11.521   0.282   4.038
55984SOL    HW169784  11.608   0.251   4.013
55984SOL    HW269785  11.538   0.358   4.094
55985SOL     OW69786   3.526  10.783   5.911
55985SOL    HW169787   3.501  10.713   5.971
55985SOL    HW269788   3.540  10.859   5.969
55986SOL     OW69789  14.023   4.888   8.293
55986SOL    HW169790  13.983   4.833   8.225
55986SOL    HW269791  14.109   4.910   8.258
55987SOL     OW69792   2.921   9.992  13.430
55987SOL    HW169793   2.899   9.961  13.343
55987SOL    HW269794   2.860  10.063  13.447
55988SOL     OW69795   6.930  11.486   7.777
55988SOL    HW169796   7.001  11.525   7.828
55988SOL    HW269797   6.887  11.426   7.839
55989SOL     OW69798   7.620   6.994   8.927
55989SOL    HW169799   7.537   6.970   8.887
55989SOL    HW269800   7.600   7.005   9.020
55990SOL     OW69801   6.633   6.217   6.916
55990SOL    HW169802   6.726   6.229   6.939
55990SOL    HW269803   6.586   6.272   6.979
55991SOL     OW69804   7.450  12.536  14.106
55991SOL    HW169805   7.365  12.521  14.064
55991SOL    HW269806   7.500  12.456  14.089
55992SOL     OW69807   1.654  14.670   1.800
55992SOL    HW169808   1.583  14.727   1.772
55992SOL    HW269809   1.627  14.637   1.886
55993SOL     OW69810   3.797   5.102   2.640
55993SOL    HW169811   3.744   5.120   2.563
55993SOL    HW269812   3.863   5.040   2.611
55994SOL     OW69813  10.166   0.015  12.594
55994SOL    HW169814  10.110   0.086  12.563
55994SOL    HW269815  10.156  14.818  12.528
55995SOL     OW69816   9.508  11.871  10.401
55995SOL    HW169817   9.427  11.821  10.407
55995SOL    HW269818   9.508  11.905  10.312
55996SOL     OW69819   8.852   2.373  10.884
55996SOL    HW169820   8.924   2.400  10.827
55996SOL    HW269821   8.794   2.449  10.887
55997SOL     OW69822  12.001   5.994   4.412
55997SOL    HW169823  11.910   6.018   4.431
55997SOL    HW269824  12.050   6.076   4.421
55998SOL     OW69825   1.844   0.411   0.788
55998SOL    HW169826   1.759   0.386   0.752
55998SOL    HW269827   1.864   0.341   0.850
55999SOL     OW69828   7.651   8.424  10.054
55999SOL    HW169829   7.594   8.452   9.983
55999SOL    HW269830   7.591   8.393  10.122
56000SOL     OW69831   4.273   4.767   4.932
56000SOL    HW169832   4.237   4.684   4.961
56000SOL    HW269833   4.201   4.809   4.884
56001SOL     OW69834   5.032   2.669   1.068
56001SOL    HW169835   4.987   2.615   1.003
56001SOL    HW269836   4.963   2.698   1.128
56002SOL     OW69837   0.929   5.941   8.151
56002SOL    HW169838   0.881   5.859   8.143
56002SOL    HW269839   1.021   5.916   8.142
56003SOL     OW69840   6.280   5.601  10.003
56003SOL    HW169841   6.270   5.591   9.908
56003SOL    HW269842   6.255   5.517  10.039
56004SOL     OW69843  12.479   2.002   6.010
56004SOL    HW169844  12.467   1.908   6.014
56004SOL    HW269845  12.552   2.020   6.070
56005SOL     OW69846   4.271  11.423   5.151
56005SOL    HW169847   4.312  11.490   5.205
56005SOL    HW269848   4.240  11.357   5.213
56006SOL     OW69849  12.211   2.833   6.812
56006SOL    HW169850  12.124   2.824   6.850
56006SOL    HW269851  12.270   2.798   6.879
56007SOL     OW69852   2.396   2.962   4.335
56007SOL    HW169853   2.380   3.036   4.276
56007SOL    HW269854   2.327   2.969   4.401
56008SOL     OW69855  12.454   9.230   2.517
56008SOL    HW169856  12.513   9.167   2.476
56008SOL    HW269857  12.423   9.284   2.445
56009SOL     OW69858   4.674   9.224   7.914
56009SOL    HW169859   4.619   9.275   7.974
56009SOL    HW269860   4.712   9.155   7.969
56010SOL     OW69861  11.549  14.457  13.386
56010SOL    HW169862  11.486  14.526  13.406
56010SOL    HW269863  11.548  14.401  13.464
56011SOL     OW69864   2.529   2.623   9.229
56011SOL    HW169865   2.475   2.692   9.191
56011SOL    HW269866   2.617   2.661   9.233
56012SOL     OW69867   0.100   2.282   2.316
56012SOL    HW169868   0.036   2.245   2.377
56012SOL    HW269869   0.088   2.376   2.322
56013SOL     OW69870   0.780   7.289   7.418
56013SOL    HW169871   0.838   7.355   7.456
56013SOL    HW269872   0.694   7.308   7.458
56014SOL     OW69873  12.322   7.161   9.237
56014SOL    HW169874  12.233   7.157   9.274
56014SOL    HW269875  12.340   7.254   9.229
56015SOL     OW69876   6.447  13.464   5.358
56015SOL    HW169877   6.463  13.548   5.401
56015SOL    HW269878   6.398  13.487   5.279
56016SOL     OW69879   5.977  14.333   0.339
56016SOL    HW169880   5.966  14.366   0.250
56016SOL    HW269881   6.018  14.405   0.386
56017SOL     OW69882   9.394   0.698   9.212
56017SOL    HW169883   9.465   0.733   9.158
56017SOL    HW269884   9.345   0.641   9.152
56018SOL     OW69885  12.593   7.595   7.437
56018SOL    HW169886  12.565   7.636   7.355
56018SOL    HW269887  12.677   7.555   7.416
56019SOL     OW69888   6.146  12.965   0.884
56019SOL    HW169889   6.076  13.027   0.907
56019SOL    HW269890   6.207  13.017   0.831
56020SOL     OW69891   8.625  12.092   4.358
56020SOL    HW169892   8.593  12.123   4.273
56020SOL    HW269893   8.634  11.997   4.347
56021SOL     OW69894  14.840  12.006   5.058
56021SOL    HW169895  14.783  11.984   5.131
56021SOL    HW269896  14.782  12.042   4.991
56022SOL     OW69897   9.171  11.505  14.738
56022SOL    HW169898   9.213  11.462  14.663
56022SOL    HW269899   9.093  11.547  14.701
56023SOL     OW69900   5.567   3.219  11.624
56023SOL    HW169901   5.623   3.219  11.701
56023SOL    HW269902   5.533   3.129  11.618
56024SOL     OW69903   1.854  12.855  12.400
56024SOL    HW169904   1.768  12.884  12.431
56024SOL    HW269905   1.841  12.763  12.377
56025SOL     OW69906   3.242   6.421   1.192
56025SOL    HW169907   3.254   6.469   1.110
56025SOL    HW269908   3.331   6.403   1.223
56026SOL     OW69909  11.111   1.992   2.672
56026SOL    HW169910  11.136   1.928   2.739
56026SOL    HW269911  11.193   2.013   2.627
56027SOL     OW69912   4.134   9.589   2.986
56027SOL    HW169913   4.157   9.534   2.911
56027SOL    HW269914   4.039   9.598   2.980
56028SOL     OW69915   4.177   4.023   7.680
56028SOL    HW169916   4.137   3.970   7.612
56028SOL    HW269917   4.269   3.997   7.680
56029SOL     OW69918  11.067   2.713   4.025
56029SOL    HW169919  11.134   2.649   4.052
56029SOL    HW269920  10.997   2.703   4.091
56030SOL     OW69921   5.212  14.547   2.693
56030SOL    HW169922   5.221  14.613   2.762
56030SOL    HW269923   5.273  14.575   2.625
56031SOL     OW69924  10.295   6.852  11.150
56031SOL    HW169925  10.379   6.820  11.115
56031SOL    HW269926  10.315   6.938  11.185
56032SOL     OW69927  13.509   0.073   1.799
56032SOL    HW169928  13.557   0.023   1.733
56032SOL    HW269929  13.483   0.007   1.863
56033SOL     OW69930  13.624   5.969   3.755
56033SOL    HW169931  13.641   5.888   3.803
56033SOL    HW269932  13.707   5.990   3.713
56034SOL     OW69933   2.620  10.937   0.702
56034SOL    HW169934   2.541  10.936   0.648
56034SOL    HW269935   2.672  10.864   0.669
56035SOL     OW69936   8.931  13.680   1.560
56035SOL    HW169937   8.965  13.596   1.590
56035SOL    HW269938   8.929  13.735   1.638
56036SOL     OW69939   1.357  14.444  13.741
56036SOL    HW169940   1.313  14.495  13.809
56036SOL    HW269941   1.449  14.468  13.750
56037SOL     OW69942   1.973  10.217   8.149
56037SOL    HW169943   2.000  10.308   8.167
56037SOL    HW269944   2.037  10.185   8.085
56038SOL     OW69945   0.686  13.896   7.987
56038SOL    HW169946   0.749  13.932   8.049
56038SOL    HW269947   0.645  13.973   7.947
56039SOL     OW69948   8.646   7.982   0.259
56039SOL    HW169949   8.559   7.942   0.247
56039SOL    HW269950   8.654   8.045   0.187
56040SOL     OW69951   7.193   3.957   7.683
56040SOL    HW169952   7.280   3.924   7.706
56040SOL    HW269953   7.187   4.041   7.727
56041SOL     OW69954  12.258   3.994   6.373
56041SOL    HW169955  12.234   3.926   6.435
56041SOL    HW269956  12.291   4.066   6.427
56042SOL     OW69957  11.837   2.479   1.848
56042SOL    HW169958  11.745   2.480   1.821
56042SOL    HW269959  11.868   2.391   1.827
56043SOL     OW69960   2.860  14.118   2.557
56043SOL    HW169961   2.773  14.155   2.543
56043SOL    HW269962   2.877  14.131   2.650
56044SOL     OW69963   5.612   5.718   9.677
56044SOL    HW169964   5.585   5.708   9.586
56044SOL    HW269965   5.700   5.681   9.680
56045SOL     OW69966   9.522  10.053   7.210
56045SOL    HW169967   9.466  10.060   7.132
56045SOL    HW269968   9.578  10.131   7.207
56046SOL     OW69969  12.375   9.489  12.887
56046SOL    HW169970  12.436   9.512  12.957
56046SOL    HW269971  12.387   9.395  12.875
56047SOL     OW69972   6.780  12.160   2.863
56047SOL    HW169973   6.875  12.164   2.849
56047SOL    HW269974   6.746  12.236   2.816
56048SOL     OW69975  14.039   1.347  13.337
56048SOL    HW169976  14.034   1.442  13.349
56048SOL    HW269977  13.960   1.314  13.379
56049SOL     OW69978  11.972   1.243  14.323
56049SOL    HW169979  11.897   1.284  14.280
56049SOL    HW269980  11.967   1.151  14.296
56050SOL     OW69981   2.824   6.699  14.137
56050SOL    HW169982   2.807   6.656  14.054
56050SOL    HW269983   2.759   6.663  14.197
56051SOL     OW69984   2.536   4.240   5.549
56051SOL    HW169985   2.590   4.164   5.527
56051SOL    HW269986   2.462   4.203   5.597
56052SOL     OW69987   3.241   1.003   0.894
56052SOL    HW169988   3.226   1.051   0.976
56052SOL    HW269989   3.297   1.061   0.843
56053SOL     OW69990   6.281   2.125  12.315
56053SOL    HW169991   6.348   2.128  12.383
56053SOL    HW269992   6.200   2.148  12.360
56054SOL     OW69993   5.966   5.987   5.008
56054SOL    HW169994   5.925   5.903   5.028
56054SOL    HW269995   6.054   5.964   4.979
56055SOL     OW69996   7.356   2.849   2.691
56055SOL    HW169997   7.428   2.786   2.698
56055SOL    HW269998   7.277   2.796   2.694
56056SOL     OW69999   2.573  11.904   8.692
56056SOL    HW170000   2.652  11.852   8.710
56056SOL    HW270001   2.512  11.842   8.652
56057SOL     OW70002   8.668   4.073   3.602
56057SOL    HW170003   8.693   4.040   3.688
56057SOL    HW270004   8.712   4.013   3.541
56058SOL     OW70005  11.213   0.807   7.773
56058SOL    HW170006  11.161   0.784   7.850
56058SOL    HW270007  11.179   0.750   7.704
56059SOL     OW70008   8.579  12.700  14.487
56059SOL    HW170009   8.487  12.726  14.485
56059SOL    HW270010   8.615  12.744  14.564
56060SOL     OW70011  12.211  14.119   8.961
56060SOL    HW170012  12.280  14.082   8.907
56060SOL    HW270013  12.252  14.132   9.047
56061SOL     OW70014   5.839   0.641  14.525
56061SOL    HW170015   5.860   0.734  14.514
56061SOL    HW270016   5.882   0.617  14.607
56062SOL     OW70017   4.155  14.424   1.442
56062SOL    HW170018   4.065  14.413   1.474
56062SOL    HW270019   4.146  14.461   1.355
56063SOL     OW70020   2.315  11.754   2.536
56063SOL    HW170021   2.338  11.783   2.624
56063SOL    HW270022   2.295  11.661   2.546
56064SOL     OW70023   8.256   1.750   9.121
56064SOL    HW170024   8.201   1.707   9.186
56064SOL    HW270025   8.344   1.750   9.160
56065SOL     OW70026   4.465  13.889   0.469
56065SOL    HW170027   4.544  13.848   0.435
56065SOL    HW270028   4.459  13.858   0.559
56066SOL     OW70029   4.072  10.539   1.667
56066SOL    HW170030   4.084  10.592   1.589
56066SOL    HW270031   4.160  10.517   1.695
56067SOL     OW70032   5.898   2.776  10.129
56067SOL    HW170033   5.869   2.774  10.037
56067SOL    HW270034   5.965   2.844  10.131
56068SOL     OW70035   3.666   1.638   0.045
56068SOL    HW170036   3.724   1.605   0.114
56068SOL    HW270037   3.719   1.702  14.870
56069SOL     OW70038   0.986   7.642   5.487
56069SOL    HW170039   0.942   7.706   5.432
56069SOL    HW270040   1.071   7.628   5.445
56070SOL     OW70041   4.871  14.006   2.272
56070SOL    HW170042   4.967  14.006   2.274
56070SOL    HW270043   4.847  14.099   2.273
56071SOL     OW70044   1.630   4.833   7.206
56071SOL    HW170045   1.671   4.830   7.292
56071SOL    HW270046   1.610   4.925   7.191
56072SOL     OW70047  14.160  12.419  14.653
56072SOL    HW170048  14.128  12.376  14.574
56072SOL    HW270049  14.256  12.416  14.645
56073SOL     OW70050   7.762   5.877   6.718
56073SOL    HW170051   7.851   5.894   6.688
56073SOL    HW270052   7.773   5.813   6.789
56074SOL     OW70053   2.097   3.440  12.973
56074SOL    HW170054   2.063   3.353  12.955
56074SOL    HW270055   2.042   3.472  13.045
56075SOL     OW70056   2.658  14.350   3.266
56075SOL    HW170057   2.591  14.378   3.203
56075SOL    HW270058   2.730  14.412   3.254
56076SOL     OW70059   3.459   6.866   0.023
56076SOL    HW170060   3.511   6.922  14.837
56076SOL    HW270061   3.374   6.858  14.852
56077SOL     OW70062   0.407  14.351   9.524
56077SOL    HW170063   0.426  14.380   9.613
56077SOL    HW270064   0.429  14.258   9.524
56078SOL     OW70065   3.589   1.804   3.447
56078SOL    HW170066   3.664   1.842   3.492
56078SOL    HW270067   3.625   1.731   3.397
56079SOL     OW70068  12.518  13.999   0.250
56079SOL    HW170069  12.484  13.911   0.264
56079SOL    HW270070  12.441  14.055   0.244
56080SOL     OW70071   9.893  11.719   9.555
56080SOL    HW170072   9.989  11.720   9.556
56080SOL    HW270073   9.871  11.702   9.463
56081SOL     OW70074   1.473   3.099  14.786
56081SOL    HW170075   1.544   3.159  14.761
56081SOL    HW270076   1.431   3.142  14.860
56082SOL     OW70077   7.727  11.520  10.392
56082SOL    HW170078   7.775  11.458  10.446
56082SOL    HW270079   7.651  11.471  10.361
56083SOL     OW70080   0.587   0.569   3.268
56083SOL    HW170081   0.653   0.516   3.225
56083SOL    HW270082   0.548   0.511   3.334
56084SOL     OW70083  10.199   5.870  10.109
56084SOL    HW170084  10.293   5.891  10.115
56084SOL    HW270085  10.158   5.925  10.175
56085SOL     OW70086   7.956   5.076   1.657
56085SOL    HW170087   8.026   5.034   1.606
56085SOL    HW270088   7.998   5.152   1.696
56086SOL     OW70089   8.384  12.834  11.948
56086SOL    HW170090   8.434  12.893  11.892
56086SOL    HW270091   8.385  12.876  12.034
56087SOL     OW70092   2.392   0.605   1.665
56087SOL    HW170093   2.385   0.685   1.718
56087SOL    HW270094   2.391   0.534   1.728
56088SOL     OW70095   2.025   6.556   6.452
56088SOL    HW170096   2.050   6.515   6.369
56088SOL    HW270097   1.962   6.623   6.427
56089SOL     OW70098   1.338   1.494  11.301
56089SOL    HW170099   1.294   1.579  11.310
56089SOL    HW270100   1.360   1.468  11.390
56090SOL     OW70101   2.927   6.876   9.069
56090SOL    HW170102   2.961   6.830   9.146
56090SOL    HW270103   2.835   6.850   9.065
56091SOL     OW70104   6.709   5.332   8.862
56091SOL    HW170105   6.778   5.272   8.891
56091SOL    HW270106   6.702   5.397   8.932
56092SOL     OW70107  11.132  12.008   6.269
56092SOL    HW170108  11.117  11.951   6.194
56092SOL    HW270109  11.227  12.019   6.271
56093SOL     OW70110  14.031   0.447   6.312
56093SOL    HW170111  13.954   0.441   6.369
56093SOL    HW270112  14.017   0.526   6.260
56094SOL     OW70113  11.635   9.078   0.373
56094SOL    HW170114  11.697   9.011   0.346
56094SOL    HW270115  11.680   9.127   0.441
56095SOL     OW70116  11.201  12.844   4.936
56095SOL    HW170117  11.295  12.862   4.931
56095SOL    HW270118  11.162  12.925   4.970
56096SOL     OW70119   6.249   1.503  11.220
56096SOL    HW170120   6.203   1.420  11.237
56096SOL    HW270121   6.341   1.480  11.224
56097SOL     OW70122   3.951   9.296  11.418
56097SOL    HW170123   3.927   9.358  11.486
56097SOL    HW270124   4.011   9.344  11.362
56098SOL     OW70125   1.824   7.152  11.916
56098SOL    HW170126   1.781   7.138  12.000
56098SOL    HW270127   1.904   7.099  11.921
56099SOL     OW70128   9.818  14.849  12.626
56099SOL    HW170129   9.819  14.767  12.577
56099SOL    HW270130   9.845  14.824  12.714
56100SOL     OW70131   2.030   2.501   1.279
56100SOL    HW170132   1.978   2.558   1.222
56100SOL    HW270133   2.068   2.561   1.344
56101SOL     OW70134   1.971  13.953   0.377
56101SOL    HW170135   2.066  13.957   0.367
56101SOL    HW270136   1.941  13.903   0.302
56102SOL     OW70137  11.418   2.734   7.628
56102SOL    HW170138  11.416   2.740   7.533
56102SOL    HW270139  11.350   2.671   7.650
56103SOL     OW70140   7.664   6.773  12.275
56103SOL    HW170141   7.647   6.816  12.191
56103SOL    HW270142   7.592   6.802  12.331
56104SOL     OW70143   5.570   2.935   9.674
56104SOL    HW170144   5.527   2.915   9.757
56104SOL    HW270145   5.661   2.908   9.686
56105SOL     OW70146  12.971  12.218  14.188
56105SOL    HW170147  12.968  12.128  14.222
56105SOL    HW270148  13.030  12.213  14.113
56106SOL     OW70149   1.856   3.306  14.470
56106SOL    HW170150   1.843   3.400  14.452
56106SOL    HW270151   1.818   3.263  14.394
56107SOL     OW70152   5.418   8.991   2.655
56107SOL    HW170153   5.378   8.920   2.706
56107SOL    HW270154   5.457   9.049   2.721
56108SOL     OW70155   0.124   9.418  14.652
56108SOL    HW170156   0.181   9.484  14.692
56108SOL    HW270157   0.158   9.334  14.685
56109SOL     OW70158   3.083  10.751   0.468
56109SOL    HW170159   3.169  10.792   0.479
56109SOL    HW270160   3.032  10.816   0.419
56110SOL     OW70161  12.424   2.923   1.652
56110SOL    HW170162  12.509   2.903   1.690
56110SOL    HW270163  12.386   2.987   1.712
56111SOL     OW70164  11.261   0.502   1.328
56111SOL    HW170165  11.254   0.577   1.388
56111SOL    HW270166  11.353   0.501   1.301
56112SOL     OW70167   5.563   6.057   3.011
56112SOL    HW170168   5.602   6.142   2.992
56112SOL    HW270169   5.556   6.013   2.926
56113SOL     OW70170  13.774   3.108   5.531
56113SOL    HW170171  13.803   3.189   5.575
56113SOL    HW270172  13.855   3.070   5.496
56114SOL     OW70173   7.017  13.190  11.435
56114SOL    HW170174   6.999  13.283  11.424
56114SOL    HW270175   6.931  13.148  11.432
56115SOL     OW70176   0.407  13.165   2.884
56115SOL    HW170177   0.446  13.231   2.942
56115SOL    HW270178   0.481  13.128   2.837
56116SOL     OW70179   0.218  10.911  13.651
56116SOL    HW170180   0.289  10.847  13.658
56116SOL    HW270181   0.259  10.994  13.673
56117SOL     OW70182  14.073   9.271   1.292
56117SOL    HW170183  14.059   9.357   1.251
56117SOL    HW270184  13.986   9.245   1.323
56118SOL     OW70185  12.524  12.151  14.646
56118SOL    HW170186  12.458  12.218  14.660
56118SOL    HW270187  12.482  12.087  14.588
56119SOL     OW70188  12.762  10.085  13.218
56119SOL    HW170189  12.677  10.082  13.174
56119SOL    HW270190  12.817  10.139  13.161
56120SOL     OW70191   4.806   7.130  10.986
56120SOL    HW170192   4.884   7.081  11.010
56120SOL    HW270193   4.821   7.156  10.895
56121SOL     OW70194  10.538   6.047  13.694
56121SOL    HW170195  10.629   6.055  13.721
56121SOL    HW270196  10.504   6.136  13.700
56122SOL     OW70197   5.741   7.615   7.106
56122SOL    HW170198   5.779   7.703   7.096
56122SOL    HW270199   5.773   7.585   7.191
56123SOL     OW70200  13.322  12.887   7.020
56123SOL    HW170201  13.370  12.892   7.102
56123SOL    HW270202  13.326  12.975   6.983
56124SOL     OW70203   2.973  11.617   0.561
56124SOL    HW170204   3.036  11.679   0.524
56124SOL    HW270205   2.891  11.636   0.515
56125SOL     OW70206   3.327  11.013  13.888
56125SOL    HW170207   3.302  10.964  13.966
56125SOL    HW270208   3.255  11.075  13.875
56126SOL     OW70209  12.296  10.963  11.505
56126SOL    HW170210  12.269  10.875  11.532
56126SOL    HW270211  12.254  11.021  11.569
56127SOL     OW70212   2.354  11.023  14.493
56127SOL    HW170213   2.436  10.996  14.534
56127SOL    HW270214   2.332  11.106  14.536
56128SOL     OW70215   9.768  14.424   5.572
56128SOL    HW170216   9.847  14.449   5.620
56128SOL    HW270217   9.714  14.503   5.571
56129SOL     OW70218   2.999  14.426   5.885
56129SOL    HW170219   2.949  14.345   5.881
56129SOL    HW270220   2.937  14.490   5.921
56130SOL     OW70221   3.530   6.706  10.928
56130SOL    HW170222   3.510   6.763  11.003
56130SOL    HW270223   3.612   6.740  10.894
56131SOL     OW70224   9.626  12.438  10.962
56131SOL    HW170225   9.605  12.378  10.891
56131SOL    HW270226   9.691  12.498  10.925
56132SOL     OW70227  13.580  12.332   2.690
56132SOL    HW170228  13.504  12.390   2.684
56132SOL    HW270229  13.618  12.331   2.602
56133SOL     OW70230   6.939   0.068   2.467
56133SOL    HW170231   6.936   0.035   2.377
56133SOL    HW270232   6.976  14.868   2.518
56134SOL     OW70233  13.324   7.190  11.768
56134SOL    HW170234  13.350   7.244  11.693
56134SOL    HW270235  13.406   7.151  11.799
56135SOL     OW70236   5.182   0.728  11.515
56135SOL    HW170237   5.251   0.783  11.479
56135SOL    HW270238   5.108   0.787  11.529
56136SOL     OW70239  12.481  12.966  14.750
56136SOL    HW170240  12.482  12.920  14.834
56136SOL    HW270241  12.432  13.046  14.768
56137SOL     OW70242   6.291  10.068   2.329
56137SOL    HW170243   6.375  10.069   2.374
56137SOL    HW270244   6.311  10.042   2.239
56138SOL     OW70245   4.798   4.329   1.971
56138SOL    HW170246   4.739   4.402   1.990
56138SOL    HW270247   4.843   4.312   2.053
56139SOL     OW70248   8.666  11.606   6.000
56139SOL    HW170249   8.711  11.554   5.934
56139SOL    HW270250   8.717  11.593   6.080
56140SOL     OW70251   0.542  11.708   5.150
56140SOL    HW170252   0.520  11.738   5.239
56140SOL    HW270253   0.488  11.630   5.138
56141SOL     OW70254  10.811  14.641   4.660
56141SOL    HW170255  10.899  14.623   4.694
56141SOL    HW270256  10.826  14.679   4.574
56142SOL     OW70257   8.062   7.773   1.438
56142SOL    HW170258   7.996   7.831   1.477
56142SOL    HW270259   8.105   7.732   1.514
56143SOL     OW70260   6.959   3.065   7.642
56143SOL    HW170261   6.886   3.005   7.627
56143SOL    HW270262   6.935   3.145   7.595
56144SOL     OW70263   2.305   7.009   7.902
56144SOL    HW170264   2.343   7.054   7.978
56144SOL    HW270265   2.351   6.925   7.898
56145SOL     OW70266   2.472   8.734   9.642
56145SOL    HW170267   2.519   8.700   9.565
56145SOL    HW270268   2.409   8.796   9.606
56146SOL     OW70269   3.994   4.123   1.910
56146SOL    HW170270   3.931   4.146   1.842
56146SOL    HW270271   3.944   4.073   1.974
56147SOL     OW70272  13.954   5.244   7.135
56147SOL    HW170273  13.899   5.167   7.121
56147SOL    HW270274  14.037   5.209   7.167
56148SOL     OW70275   0.365   4.878   4.313
56148SOL    HW170276   0.349   4.810   4.380
56148SOL    HW270277   0.353   4.960   4.360
56149SOL     OW70278   9.079   6.618   8.285
56149SOL    HW170279   9.160   6.596   8.240
56149SOL    HW270280   9.049   6.699   8.243
56150SOL     OW70281  13.606   3.413  10.770
56150SOL    HW170282  13.570   3.474  10.706
56150SOL    HW270283  13.534   3.398  10.832
56151SOL     OW70284   7.060   0.168   3.548
56151SOL    HW170285   7.046   0.074   3.540
56151SOL    HW270286   6.973   0.204   3.566
56152SOL     OW70287   4.127   0.897  13.497
56152SOL    HW170288   4.075   0.868  13.422
56152SOL    HW270289   4.160   0.816  13.536
56153SOL     OW70290   0.748   8.671  14.626
56153SOL    HW170291   0.769   8.654  14.534
56153SOL    HW270292   0.781   8.595  14.673
56154SOL     OW70293  11.899   0.366   1.041
56154SOL    HW170294  11.870   0.347   1.131
56154SOL    HW270295  11.962   0.437   1.051
56155SOL     OW70296   2.550   2.950   7.004
56155SOL    HW170297   2.474   2.969   6.949
56155SOL    HW270298   2.520   2.967   7.094
56156SOL     OW70299  14.815  12.988   7.297
56156SOL    HW170300  14.862  12.905   7.311
56156SOL    HW270301  14.870  13.053   7.341
56157SOL     OW70302   4.887   2.748   2.515
56157SOL    HW170303   4.841   2.814   2.567
56157SOL    HW270304   4.980   2.768   2.527
56158SOL     OW70305   8.871   9.945   0.200
56158SOL    HW170306   8.897  10.010   0.135
56158SOL    HW270307   8.784   9.918   0.173
56159SOL     OW70308   3.201   8.259   0.713
56159SOL    HW170309   3.274   8.320   0.712
56159SOL    HW270310   3.134   8.301   0.659
56160SOL     OW70311  13.262  13.731  10.175
56160SOL    HW170312  13.242  13.659  10.235
56160SOL    HW270313  13.334  13.698  10.121
56161SOL     OW70314   7.227   2.573   9.729
56161SOL    HW170315   7.182   2.491   9.709
56161SOL    HW270316   7.169   2.617   9.791
56162SOL     OW70317  14.870   9.344  12.125
56162SOL    HW170318  14.813   9.268  12.134
56162SOL    HW270319   0.022   9.345  12.032
56163SOL     OW70320  10.687   2.016   1.053
56163SOL    HW170321  10.674   2.020   0.958
56163SOL    HW270322  10.760   2.075   1.070
56164SOL     OW70323   4.193   7.062   2.723
56164SOL    HW170324   4.111   7.108   2.702
56164SOL    HW270325   4.200   6.994   2.656
56165SOL     OW70326  11.003  14.553   1.515
56165SOL    HW170327  11.093  14.577   1.495
56165SOL    HW270328  10.956  14.636   1.524
56166SOL     OW70329  14.104  10.355   7.989
56166SOL    HW170330  14.144  10.442   7.990
56166SOL    HW270331  14.021  10.367   7.944
56167SOL     OW70332   1.974   5.797  13.916
56167SOL    HW170333   2.022   5.878  13.898
56167SOL    HW270334   1.925   5.816  13.996
56168SOL     OW70335   4.083   6.493  11.031
56168SOL    HW170336   4.165   6.540  11.017
56168SOL    HW270337   4.035   6.503  10.949
56169SOL     OW70338   5.253   5.103  11.493
56169SOL    HW170339   5.247   5.057  11.409
56169SOL    HW270340   5.231   5.036  11.558
56170SOL     OW70341   5.290  10.680  12.474
56170SOL    HW170342   5.386  10.679  12.470
56170SOL    HW270343   5.263  10.616  12.409
56171SOL     OW70344   5.900   1.986   5.834
56171SOL    HW170345   5.960   1.913   5.816
56171SOL    HW270346   5.902   1.996   5.929
56172SOL     OW70347   4.026   1.615  10.891
56172SOL    HW170348   4.119   1.613  10.916
56172SOL    HW270349   3.980   1.594  10.972
56173SOL     OW70350  13.295   2.104   7.454
56173SOL    HW170351  13.365   2.137   7.510
56173SOL    HW270352  13.286   2.012   7.477
56174SOL     OW70353  11.458  12.263  11.428
56174SOL    HW170354  11.436  12.174  11.455
56174SOL    HW270355  11.430  12.318  11.501
56175SOL     OW70356   6.322   4.536   2.468
56175SOL    HW170357   6.264   4.590   2.522
56175SOL    HW270358   6.409   4.550   2.505
56176SOL     OW70359  14.195  11.291  12.209
56176SOL    HW170360  14.238  11.345  12.143
56176SOL    HW270361  14.232  11.203  12.197
56177SOL     OW70362  11.727   5.222   9.366
56177SOL    HW170363  11.701   5.161   9.435
56177SOL    HW270364  11.798   5.177   9.320
56178SOL     OW70365   5.989  11.704   8.121
56178SOL    HW170366   5.905  11.727   8.160
56178SOL    HW270367   5.984  11.609   8.106
56179SOL     OW70368   0.247   3.077   4.482
56179SOL    HW170369   0.262   3.136   4.555
56179SOL    HW270370   0.213   3.134   4.412
56180SOL     OW70371   0.588   1.933   1.214
56180SOL    HW170372   0.517   1.890   1.166
56180SOL    HW270373   0.643   1.860   1.244
56181SOL     OW70374   9.412   1.317   1.784
56181SOL    HW170375   9.418   1.359   1.870
56181SOL    HW270376   9.354   1.374   1.734
56182SOL     OW70377  14.357  13.291   7.495
56182SOL    HW170378  14.303  13.348   7.550
56182SOL    HW270379  14.420  13.350   7.454
56183SOL     OW70380  12.145   1.172  13.356
56183SOL    HW170381  12.158   1.247  13.415
56183SOL    HW270382  12.078   1.202  13.294
56184SOL     OW70383   4.588   6.141  10.121
56184SOL    HW170384   4.683   6.150  10.118
56184SOL    HW270385   4.573   6.072  10.186
56185SOL     OW70386   6.920   9.774  13.711
56185SOL    HW170387   6.841   9.725  13.731
56185SOL    HW270388   6.981   9.750  13.781
56186SOL     OW70389  12.025   6.669   9.923
56186SOL    HW170390  12.106   6.715   9.942
56186SOL    HW270391  11.991   6.642  10.008
56187SOL     OW70392   2.629  11.784  10.208
56187SOL    HW170393   2.669  11.862  10.168
56187SOL    HW270394   2.697  11.718  10.204
56188SOL     OW70395   6.323   8.644   5.685
56188SOL    HW170396   6.316   8.548   5.684
56188SOL    HW270397   6.235   8.674   5.663
56189SOL     OW70398  11.063   9.813  13.236
56189SOL    HW170399  11.031   9.850  13.153
56189SOL    HW270400  11.123   9.878  13.270
56190SOL     OW70401   5.491   5.805   5.143
56190SOL    HW170402   5.540   5.872   5.190
56190SOL    HW270403   5.445   5.852   5.074
56191SOL     OW70404   3.234   5.288   9.989
56191SOL    HW170405   3.314   5.238  10.004
56191SOL    HW270406   3.183   5.276  10.070
56192SOL     OW70407  11.535  11.802   1.956
56192SOL    HW170408  11.513  11.788   1.864
56192SOL    HW270409  11.553  11.714   1.990
56193SOL     OW70410  11.504  14.819  11.065
56193SOL    HW170411  11.449  14.865  11.128
56193SOL    HW270412  11.500   0.001  10.986
56194SOL     OW70413   9.873   9.593   2.586
56194SOL    HW170414   9.932   9.599   2.511
56194SOL    HW270415   9.786   9.610   2.549
56195SOL     OW70416   6.921  14.384  12.323
56195SOL    HW170417   6.836  14.427  12.333
56195SOL    HW270418   6.971  14.442  12.264
56196SOL     OW70419   6.665   2.547   6.802
56196SOL    HW170420   6.758   2.551   6.781
56196SOL    HW270421   6.661   2.497   6.883
56197SOL     OW70422   7.989   7.539   4.458
56197SOL    HW170423   7.930   7.596   4.409
56197SOL    HW270424   8.026   7.480   4.392
56198SOL     OW70425   5.668   4.448   1.285
56198SOL    HW170426   5.611   4.409   1.218
56198SOL    HW270427   5.754   4.408   1.269
56199SOL     OW70428   8.034   5.043  10.471
56199SOL    HW170429   8.081   5.074  10.549
56199SOL    HW270430   7.945   5.076  10.481
56200SOL     OW70431   1.167   1.641  12.706
56200SOL    HW170432   1.179   1.671  12.796
56200SOL    HW270433   1.245   1.670  12.660
56201SOL     OW70434  14.519   4.482  11.264
56201SOL    HW170435  14.533   4.574  11.240
56201SOL    HW270436  14.561   4.432  11.194
56202SOL     OW70437  11.963   2.758   3.202
56202SOL    HW170438  11.960   2.662   3.203
56202SOL    HW270439  11.951   2.783   3.294
56203SOL     OW70440   2.304  14.184   7.195
56203SOL    HW170441   2.315  14.145   7.108
56203SOL    HW270442   2.351  14.125   7.254
56204SOL     OW70443  11.439   2.125   2.810
56204SOL    HW170444  11.344   2.122   2.822
56204SOL    HW270445  11.460   2.218   2.803
56205SOL     OW70446   8.205   1.811   7.626
56205SOL    HW170447   8.146   1.831   7.553
56205SOL    HW270448   8.164   1.738   7.671
56206SOL     OW70449  14.308   4.390  14.764
56206SOL    HW170450  14.349   4.314  14.723
56206SOL    HW270451  14.295   4.364  14.855
56207SOL     OW70452   7.172   9.801   4.362
56207SOL    HW170453   7.254   9.765   4.329
56207SOL    HW270454   7.197   9.849   4.441
56208SOL     OW70455  14.764  11.024   9.360
56208SOL    HW170456  14.692  11.070   9.316
56208SOL    HW270457  14.758  11.054   9.451
56209SOL     OW70458  10.562  12.338   7.532
56209SOL    HW170459  10.529  12.248   7.525
56209SOL    HW270460  10.488  12.389   7.564
56210SOL     OW70461   9.820  10.567   0.615
56210SOL    HW170462   9.868  10.505   0.670
56210SOL    HW270463   9.842  10.542   0.526
56211SOL     OW70464  13.884   8.516   5.778
56211SOL    HW170465  13.957   8.532   5.718
56211SOL    HW270466  13.914   8.444   5.834
56212SOL     OW70467   8.882   0.764   7.508
56212SOL    HW170468   8.847   0.810   7.432
56212SOL    HW270469   8.809   0.713   7.542
56213SOL     OW70470   0.945   5.386  10.416
56213SOL    HW170471   0.925   5.341  10.498
56213SOL    HW270472   0.877   5.355  10.356
56214SOL     OW70473   3.432   1.629   0.729
56214SOL    HW170474   3.356   1.614   0.673
56214SOL    HW270475   3.494   1.560   0.704
56215SOL     OW70476   3.356  13.306   4.236
56215SOL    HW170477   3.282  13.257   4.271
56215SOL    HW270478   3.321  13.350   4.158
56216SOL     OW70479   6.050  13.751  13.845
56216SOL    HW170480   5.957  13.733  13.835
56216SOL    HW270481   6.069  13.730  13.936
56217SOL     OW70482   6.591  12.637   3.614
56217SOL    HW170483   6.604  12.560   3.560
56217SOL    HW270484   6.539  12.606   3.689
56218SOL     OW70485   1.570   7.097   2.053
56218SOL    HW170486   1.594   7.055   1.970
56218SOL    HW270487   1.543   7.025   2.110
56219SOL     OW70488  14.384  13.825   0.274
56219SOL    HW170489  14.353  13.736   0.261
56219SOL    HW270490  14.305  13.875   0.293
56220SOL     OW70491   9.215  11.039   8.389
56220SOL    HW170492   9.282  11.093   8.348
56220SOL    HW270493   9.168  11.100   8.447
56221SOL     OW70494   4.292  11.170   0.213
56221SOL    HW170495   4.375  11.128   0.191
56221SOL    HW270496   4.307  11.212   0.298
56222SOL     OW70497   3.567  11.415   1.881
56222SOL    HW170498   3.570  11.320   1.869
56222SOL    HW270499   3.601  11.430   1.969
56223SOL     OW70500   3.307   5.695   9.235
56223SOL    HW170501   3.377   5.753   9.203
56223SOL    HW270502   3.350   5.641   9.302
56224SOL     OW70503   4.568   7.153  13.146
56224SOL    HW170504   4.653   7.195  13.158
56224SOL    HW270505   4.562   7.089  13.217
56225SOL     OW70506  13.488   2.512  14.041
56225SOL    HW170507  13.573   2.532  14.000
56225SOL    HW270508  13.511   2.475  14.126
56226SOL     OW70509  14.380  11.172   0.822
56226SOL    HW170510  14.429  11.254   0.825
56226SOL    HW270511  14.289  11.198   0.833
56227SOL     OW70512   4.776  11.236   1.867
56227SOL    HW170513   4.719  11.308   1.893
56227SOL    HW270514   4.845  11.234   1.934
56228SOL     OW70515  14.597   0.879  13.339
56228SOL    HW170516  14.662   0.840  13.280
56228SOL    HW270517  14.586   0.969  13.306
56229SOL     OW70518   4.934   9.534  14.747
56229SOL    HW170519   5.023   9.497  14.749
56229SOL    HW270520   4.927   9.583  14.829
56230SOL     OW70521  10.840   1.301   6.216
56230SOL    HW170522  10.852   1.284   6.122
56230SOL    HW270523  10.913   1.256   6.257
56231SOL     OW70524   4.587   6.448   1.770
56231SOL    HW170525   4.677   6.447   1.803
56231SOL    HW270526   4.574   6.538   1.740
56232SOL     OW70527   1.685  12.784   2.436
56232SOL    HW170528   1.611  12.726   2.420
56232SOL    HW270529   1.654  12.846   2.502
56233SOL     OW70530   8.700   7.375  11.719
56233SOL    HW170531   8.757   7.329  11.658
56233SOL    HW270532   8.644   7.307  11.756
56234SOL     OW70533   2.539  11.548   2.530
56234SOL    HW170534   2.515  11.513   2.444
56234SOL    HW270535   2.527  11.475   2.590
56235SOL     OW70536   9.041  10.975   1.250
56235SOL    HW170537   9.011  10.887   1.272
56235SOL    HW270538   9.125  10.984   1.296
56236SOL     OW70539   5.055   8.513  14.183
56236SOL    HW170540   4.966   8.549  14.193
56236SOL    HW270541   5.042   8.419  14.177
56237SOL     OW70542   7.065   7.635   1.562
56237SOL    HW170543   7.043   7.570   1.628
56237SOL    HW270544   7.141   7.599   1.516
56238SOL     OW70545   5.488  11.136  13.685
56238SOL    HW170546   5.537  11.188  13.622
56238SOL    HW270547   5.465  11.056  13.638
56239SOL     OW70548  12.651   2.224   9.816
56239SOL    HW170549  12.565   2.182   9.815
56239SOL    HW270550  12.713   2.152   9.813
56240SOL     OW70551   6.586   4.218   0.622
56240SOL    HW170552   6.585   4.123   0.637
56240SOL    HW270553   6.653   4.251   0.681
56241SOL     OW70554   7.784   9.414   3.570
56241SOL    HW170555   7.874   9.439   3.551
56241SOL    HW270556   7.738   9.497   3.584
56242SOL     OW70557  13.042   9.955   4.852
56242SOL    HW170558  13.104  10.027   4.862
56242SOL    HW270559  12.991   9.977   4.774
56243SOL     OW70560   2.834   0.954   8.430
56243SOL    HW170561   2.833   0.934   8.337
56243SOL    HW270562   2.871   1.043   8.435
56244SOL     OW70563   0.640  12.303   6.775
56244SOL    HW170564   0.605  12.384   6.738
56244SOL    HW270565   0.722  12.329   6.817
56245SOL     OW70566   7.275   1.384  10.281
56245SOL    HW170567   7.307   1.468  10.313
56245SOL    HW270568   7.192   1.371  10.328
56246SOL     OW70569   7.621   8.018   1.051
56246SOL    HW170570   7.704   8.032   1.098
56246SOL    HW270571   7.561   8.081   1.091
56247SOL     OW70572   0.456   4.330   0.008
56247SOL    HW170573   0.443   4.290  14.795
56247SOL    HW270574   0.546   4.309   0.031
56248SOL     OW70575   5.238   1.100   4.395
56248SOL    HW170576   5.327   1.090   4.362
56248SOL    HW270577   5.249   1.131   4.485
56249SOL     OW70578  13.558   1.088  14.506
56249SOL    HW170579  13.464   1.078  14.489
56249SOL    HW270580  13.601   1.051  14.429
56250SOL     OW70581  12.581  10.521   7.888
56250SOL    HW170582  12.607  10.538   7.797
56250SOL    HW270583  12.585  10.607   7.930
56251SOL     OW70584   8.759   3.869   1.127
56251SOL    HW170585   8.832   3.827   1.174
56251SOL    HW270586   8.779   3.963   1.130
56252SOL     OW70587   8.873   1.703  13.606
56252SOL    HW170588   8.947   1.763  13.612
56252SOL    HW270589   8.812   1.747  13.547
56253SOL     OW70590  12.651  12.708   9.671
56253SOL    HW170591  12.734  12.754   9.675
56253SOL    HW270592  12.666  12.626   9.717
56254SOL     OW70593   0.598   3.304  10.491
56254SOL    HW170594   0.530   3.362  10.457
56254SOL    HW270595   0.657   3.362  10.539
56255SOL     OW70596   8.496   2.185   4.939
56255SOL    HW170597   8.571   2.164   4.883
56255SOL    HW270598   8.514   2.138   5.021
56256SOL     OW70599   5.250  12.579   5.892
56256SOL    HW170600   5.303  12.570   5.971
56256SOL    HW270601   5.293  12.650   5.843
56257SOL     OW70602   3.814   2.993  10.306
56257SOL    HW170603   3.830   3.062  10.241
56257SOL    HW270604   3.869   3.018  10.381
56258SOL     OW70605   5.723   9.327   1.426
56258SOL    HW170606   5.680   9.276   1.357
56258SOL    HW270607   5.782   9.386   1.379
56259SOL     OW70608   6.592   8.898   5.593
56259SOL    HW170609   6.668   8.940   5.634
56259SOL    HW270610   6.600   8.805   5.617
56260SOL     OW70611  12.518   9.485   8.150
56260SOL    HW170612  12.443   9.426   8.141
56260SOL    HW270613  12.535   9.487   8.244
56261SOL     OW70614   9.343   5.611  11.432
56261SOL    HW170615   9.302   5.540  11.481
56261SOL    HW270616   9.271   5.670  11.408
56262SOL     OW70617  13.622   5.138   1.998
56262SOL    HW170618  13.580   5.113   1.915
56262SOL    HW270619  13.700   5.187   1.971
56263SOL     OW70620  11.904   9.639   0.320
56263SOL    HW170621  11.825   9.586   0.331
56263SOL    HW270622  11.879   9.706   0.257
56264SOL     OW70623   0.580   1.299  10.572
56264SOL    HW170624   0.590   1.314  10.478
56264SOL    HW270625   0.562   1.385  10.608
56265SOL     OW70626   9.391   1.280  11.061
56265SOL    HW170627   9.401   1.222  11.137
56265SOL    HW270628   9.318   1.241  11.012
56266SOL     OW70629   7.144  12.424  12.965
56266SOL    HW170630   7.203  12.401  12.893
56266SOL    HW270631   7.063  12.375  12.947
56267SOL     OW70632   9.228   0.313  12.216
56267SOL    HW170633   9.278   0.355  12.146
56267SOL    HW270634   9.218   0.382  12.282
56268SOL     OW70635   7.206   0.092  14.560
56268SOL    HW170636   7.179   0.180  14.586
56268SOL    HW270637   7.255   0.059  14.634
56269SOL     OW70638   4.556   3.759   5.133
56269SOL    HW170639   4.511   3.758   5.048
56269SOL    HW270640   4.643   3.721   5.114
56270SOL     OW70641  14.229   5.060  14.550
56270SOL    HW170642  14.226   4.967  14.572
56270SOL    HW270643  14.152   5.074  14.495
56271SOL     OW70644   7.333  13.655   6.087
56271SOL    HW170645   7.314  13.632   5.996
56271SOL    HW270646   7.428  13.670   6.088
56272SOL     OW70647   3.792   6.557   7.265
56272SOL    HW170648   3.863   6.563   7.330
56272SOL    HW270649   3.827   6.500   7.197
56273SOL     OW70650   3.054  13.491   6.744
56273SOL    HW170651   2.984  13.446   6.697
56273SOL    HW270652   3.089  13.554   6.682
56274SOL     OW70653  10.325  13.052  11.377
56274SOL    HW170654  10.357  12.968  11.343
56274SOL    HW270655  10.348  13.050  11.470
56275SOL     OW70656   0.721   5.608  11.617
56275SOL    HW170657   0.743   5.523  11.657
56275SOL    HW270658   0.625   5.614  11.626
56276SOL     OW70659   9.923  11.549  14.771
56276SOL    HW170660   9.855  11.616  14.775
56276SOL    HW270661   9.880  11.473  14.731
56277SOL     OW70662  14.740   0.442   6.637
56277SOL    HW170663  14.739   0.376   6.568
56277SOL    HW270664  14.693   0.400   6.710
56278SOL     OW70665   2.032   5.399   2.989
56278SOL    HW170666   2.102   5.336   2.971
56278SOL    HW270667   2.017   5.444   2.906
56279SOL     OW70668  12.598  14.456   7.483
56279SOL    HW170669  12.503  14.460   7.476
56279SOL    HW270670  12.616  14.462   7.577
56280SOL     OW70671  10.276   2.381   4.447
56280SOL    HW170672  10.253   2.472   4.426
56280SOL    HW270673  10.363   2.387   4.485
56281SOL     OW70674   5.017  10.687   5.860
56281SOL    HW170675   5.070  10.731   5.794
56281SOL    HW270676   4.959  10.629   5.811
56282SOL     OW70677   6.913  14.516   7.348
56282SOL    HW170678   6.952  14.480   7.428
56282SOL    HW270679   6.822  14.536   7.374
56283SOL     OW70680   4.080  13.066   1.979
56283SOL    HW170681   4.020  13.139   1.991
56283SOL    HW270682   4.039  12.993   2.023
56284SOL     OW70683  13.818   8.822   2.292
56284SOL    HW170684  13.910   8.797   2.292
56284SOL    HW270685  13.787   8.800   2.204
56285SOL     OW70686  11.668   0.382   8.082
56285SOL    HW170687  11.647   0.452   8.144
56285SOL    HW270688  11.584   0.340   8.063
56286SOL     OW70689   8.901  11.059   5.363
56286SOL    HW170690   8.869  10.977   5.327
56286SOL    HW270691   8.950  11.100   5.292
56287SOL     OW70692   8.192   7.097   0.183
56287SOL    HW170693   8.214   7.182   0.220
56287SOL    HW270694   8.121   7.115   0.121
56288SOL     OW70695   7.659  11.258   8.294
56288SOL    HW170696   7.583  11.220   8.251
56288SOL    HW270697   7.653  11.229   8.385
56289SOL     OW70698   9.671   6.684   8.967
56289SOL    HW170699   9.741   6.749   8.981
56289SOL    HW270700   9.670   6.670   8.872
56290SOL     OW70701  12.508   0.947   2.708
56290SOL    HW170702  12.421   0.977   2.684
56290SOL    HW270703  12.549   0.920   2.626
56291SOL     OW70704  13.548   0.171   5.942
56291SOL    HW170705  13.568   0.251   5.991
56291SOL    HW270706  13.454   0.160   5.952
56292SOL     OW70707  10.821   4.927  12.437
56292SOL    HW170708  10.829   4.850  12.381
56292SOL    HW270709  10.798   4.892  12.523
56293SOL     OW70710   2.060  14.022  12.831
56293SOL    HW170711   2.066  13.969  12.751
56293SOL    HW270712   1.976  14.068  12.823
56294SOL     OW70713   9.021  10.671   7.939
56294SOL    HW170714   8.994  10.614   7.867
56294SOL    HW270715   8.982  10.756   7.918
56295SOL     OW70716   0.276   4.099   6.393
56295SOL    HW170717   0.370   4.080   6.403
56295SOL    HW270718   0.264   4.109   6.298
56296SOL     OW70719   4.233   2.713  11.310
56296SOL    HW170720   4.199   2.799  11.332
56296SOL    HW270721   4.320   2.710  11.351
56297SOL     OW70722   3.009  12.695  10.205
56297SOL    HW170723   3.068  12.665  10.273
56297SOL    HW270724   3.025  12.635  10.131
56298SOL     OW70725   9.684  11.180   6.774
56298SOL    HW170726   9.742  11.162   6.700
56298SOL    HW270727   9.602  11.135   6.753
56299SOL     OW70728   3.822  13.046   2.157
56299SOL    HW170729   3.871  13.126   2.139
56299SOL    HW270730   3.744  13.076   2.204
56300SOL     OW70731  12.747  13.724   1.556
56300SOL    HW170732  12.652  13.728   1.565
56300SOL    HW270733  12.780  13.740   1.644
56301SOL     OW70734   0.072   5.996   9.928
56301SOL    HW170735   0.067   5.901   9.933
56301SOL    HW270736   0.055   6.017   9.836
56302SOL     OW70737   8.262   2.936   0.724
56302SOL    HW170738   8.219   3.008   0.770
56302SOL    HW270739   8.234   2.858   0.771
56303SOL     OW70740   1.263   5.690   1.460
56303SOL    HW170741   1.338   5.744   1.485
56303SOL    HW270742   1.276   5.673   1.367
56304SOL     OW70743  10.566   4.681   1.023
56304SOL    HW170744  10.660   4.674   1.041
56304SOL    HW270745  10.557   4.766   0.980
56305SOL     OW70746   4.768  14.724  12.691
56305SOL    HW170747   4.725  14.711  12.606
56305SOL    HW270748   4.833  14.792  12.676
56306SOL     OW70749  12.784  10.835   8.282
56306SOL    HW170750  12.697  10.876   8.289
56306SOL    HW270751  12.845  10.908   8.293
56307SOL     OW70752   4.471   2.342  13.606
56307SOL    HW170753   4.391   2.392  13.625
56307SOL    HW270754   4.441   2.267  13.555
56308SOL     OW70755   6.806   9.222   8.401
56308SOL    HW170756   6.744   9.158   8.435
56308SOL    HW270757   6.891   9.195   8.437
56309SOL     OW70758  12.879   8.857   3.801
56309SOL    HW170759  12.799   8.813   3.771
56309SOL    HW270760  12.865   8.872   3.894
56310SOL     OW70761   2.181  11.081   7.169
56310SOL    HW170762   2.265  11.066   7.212
56310SOL    HW270763   2.120  11.023   7.215
56311SOL     OW70764   4.618  13.862  11.073
56311SOL    HW170765   4.645  13.953  11.079
56311SOL    HW270766   4.698  13.814  11.051
56312SOL     OW70767   4.761   6.168   2.717
56312SOL    HW170768   4.799   6.256   2.721
56312SOL    HW270769   4.836   6.110   2.706
56313SOL     OW70770  12.879  13.161   8.707
56313SOL    HW170771  12.912  13.073   8.727
56313SOL    HW270772  12.820  13.180   8.780
56314SOL     OW70773  12.233   4.849   0.898
56314SOL    HW170774  12.207   4.785   0.964
56314SOL    HW270775  12.279   4.798   0.832
56315SOL     OW70776   6.510   7.084   4.001
56315SOL    HW170777   6.561   7.004   3.986
56315SOL    HW270778   6.570   7.155   3.980
56316SOL     OW70779  10.108   8.120   1.166
56316SOL    HW170780  10.026   8.103   1.212
56316SOL    HW270781  10.120   8.214   1.174
56317SOL     OW70782  14.472  11.566  10.994
56317SOL    HW170783  14.401  11.555  10.930
56317SOL    HW270784  14.503  11.476  11.010
56318SOL     OW70785  10.408   8.487   6.718
56318SOL    HW170786  10.326   8.442   6.697
56318SOL    HW270787  10.420   8.550   6.648
56319SOL     OW70788   6.207  14.796   0.465
56319SOL    HW170789   6.129  14.848   0.486
56319SOL    HW270790   6.280  14.857   0.478
56320SOL     OW70791   3.392   5.729  14.743
56320SOL    HW170792   3.356   5.654  14.790
56320SOL    HW270793   3.317   5.768  14.699
56321SOL     OW70794  11.996  10.381   0.218
56321SOL    HW170795  11.953  10.429   0.147
56321SOL    HW270796  12.075  10.431   0.236
56322SOL     OW70797   7.931  12.991   7.279
56322SOL    HW170798   7.967  12.914   7.235
56322SOL    HW270799   7.841  12.996   7.247
56323SOL     OW70800  12.592   7.595   6.958
56323SOL    HW170801  12.529   7.589   7.030
56323SOL    HW270802  12.621   7.504   6.943
56324SOL     OW70803   1.262  11.076   6.937
56324SOL    HW170804   1.284  10.999   6.989
56324SOL    HW270805   1.225  11.042   6.856
56325SOL     OW70806   5.404   5.027   8.903
56325SOL    HW170807   5.448   4.954   8.947
56325SOL    HW270808   5.472   5.067   8.850
56326SOL     OW70809   7.468  10.421   7.311
56326SOL    HW170810   7.426  10.407   7.396
56326SOL    HW270811   7.451  10.340   7.263
56327SOL     OW70812   7.600  14.059   7.458
56327SOL    HW170813   7.682  14.014   7.482
56327SOL    HW270814   7.614  14.086   7.368
56328SOL     OW70815  13.200  13.184   9.102
56328SOL    HW170816  13.211  13.137   9.019
56328SOL    HW270817  13.175  13.273   9.076
56329SOL     OW70818   5.560  11.168   4.461
56329SOL    HW170819   5.626  11.152   4.393
56329SOL    HW270820   5.611  11.185   4.540
56330SOL     OW70821  14.322  12.230   8.355
56330SOL    HW170822  14.379  12.169   8.403
56330SOL    HW270823  14.381  12.296   8.320
56331SOL     OW70824   2.992  14.558  10.686
56331SOL    HW170825   2.989  14.551  10.590
56331SOL    HW270826   2.907  14.595  10.710
56332SOL     OW70827  14.827  11.665   0.936
56332SOL    HW170828  14.795  11.656   1.026
56332SOL    HW270829   0.048  11.682   0.945
56333SOL     OW70830   1.277   3.258   5.789
56333SOL    HW170831   1.301   3.195   5.722
56333SOL    HW270832   1.226   3.208   5.853
56334SOL     OW70833   3.442  14.270  13.921
56334SOL    HW170834   3.469  14.179  13.909
56334SOL    HW270835   3.495  14.300  13.995
56335SOL     OW70836   1.115  10.581   8.359
56335SOL    HW170837   1.117  10.637   8.437
56335SOL    HW270838   1.023  10.570   8.339
56336SOL     OW70839   3.359   4.560  11.106
56336SOL    HW170840   3.331   4.643  11.069
56336SOL    HW270841   3.278   4.522  11.142
56337SOL     OW70842   1.829   9.773  11.443
56337SOL    HW170843   1.843   9.694  11.497
56337SOL    HW270844   1.735   9.772  11.424
56338SOL     OW70845   1.038   5.758   6.312
56338SOL    HW170846   1.038   5.833   6.253
56338SOL    HW270847   1.117   5.710   6.290
56339SOL     OW70848   8.255   0.373   3.064
56339SOL    HW170849   8.230   0.429   3.138
56339SOL    HW270850   8.338   0.333   3.091
56340SOL     OW70851  14.374   8.851  10.592
56340SOL    HW170852  14.293   8.860  10.643
56340SOL    HW270853  14.426   8.928  10.616
56341SOL     OW70854   6.298   0.156   7.084
56341SOL    HW170855   6.388   0.153   7.053
56341SOL    HW270856   6.265   0.068   7.069
56342SOL     OW70857   3.807   1.530   4.482
56342SOL    HW170858   3.761   1.587   4.421
56342SOL    HW270859   3.739   1.497   4.541
56343SOL     OW70860  13.115   9.645  11.837
56343SOL    HW170861  13.061   9.568  11.856
56343SOL    HW270862  13.057   9.719  11.847
56344SOL     OW70863  10.290  11.506   6.878
56344SOL    HW170864  10.281  11.473   6.789
56344SOL    HW270865  10.212  11.475   6.923
56345SOL     OW70866   5.460  10.896   7.931
56345SOL    HW170867   5.375  10.876   7.892
56345SOL    HW270868   5.461  10.846   8.013
56346SOL     OW70869   4.594   2.128   6.770
56346SOL    HW170870   4.623   2.109   6.681
56346SOL    HW270871   4.499   2.134   6.764
56347SOL     OW70872   8.003  13.153   3.134
56347SOL    HW170873   7.944  13.083   3.161
56347SOL    HW270874   8.003  13.215   3.207
56348SOL     OW70875   1.422  10.469  13.933
56348SOL    HW170876   1.494  10.427  13.887
56348SOL    HW270877   1.449  10.469  14.025
56349SOL     OW70878  11.556  11.510   6.813
56349SOL    HW170879  11.621  11.474   6.874
56349SOL    HW270880  11.479  11.526   6.867
56350SOL     OW70881  11.873  14.295  14.434
56350SOL    HW170882  11.825  14.217  14.407
56350SOL    HW270883  11.910  14.330  14.353
56351SOL     OW70884   7.063   9.409   4.648
56351SOL    HW170885   7.080   9.503   4.648
56351SOL    HW270886   7.130   9.373   4.590
56352SOL     OW70887   1.071   9.089   3.521
56352SOL    HW170888   0.986   9.116   3.487
56352SOL    HW270889   1.134   9.114   3.453
56353SOL     OW70890   6.973   7.167   2.506
56353SOL    HW170891   6.982   7.260   2.528
56353SOL    HW270892   6.933   7.167   2.419
56354SOL     OW70893   7.712   5.948  14.072
56354SOL    HW170894   7.729   5.855  14.061
56354SOL    HW270895   7.697   5.980  13.983
56355SOL     OW70896  12.236   0.667   0.372
56355SOL    HW170897  12.142   0.684   0.379
56355SOL    HW270898  12.256   0.611   0.447
56356SOL     OW70899  12.130   2.010   8.153
56356SOL    HW170900  12.096   1.933   8.197
56356SOL    HW270901  12.218   1.985   8.125
56357SOL     OW70902  10.755   1.748   7.535
56357SOL    HW170903  10.776   1.662   7.570
56357SOL    HW270904  10.754   1.806   7.611
56358SOL     OW70905  10.601  11.269  11.833
56358SOL    HW170906  10.640  11.181  11.827
56358SOL    HW270907  10.643  11.318  11.763
56359SOL     OW70908  12.356   7.185   3.196
56359SOL    HW170909  12.415   7.113   3.218
56359SOL    HW270910  12.389   7.219   3.113
56360SOL     OW70911   1.199   6.750   6.935
56360SOL    HW170912   1.108   6.722   6.925
56360SOL    HW270913   1.196   6.823   6.996
56361SOL     OW70914  14.805  12.027   0.224
56361SOL    HW170915  14.779  12.049   0.134
56361SOL    HW270916  14.775  11.937   0.237
56362SOL     OW70917  13.153   2.819   9.126
56362SOL    HW170918  13.196   2.823   9.211
56362SOL    HW270919  13.219   2.785   9.067
56363SOL     OW70920  12.519  14.598  11.502
56363SOL    HW170921  12.605  14.571  11.532
56363SOL    HW270922  12.470  14.516  11.494
56364SOL     OW70923   3.887   8.040  10.597
56364SOL    HW170924   3.800   8.044  10.638
56364SOL    HW270925   3.886   7.957  10.549
56365SOL     OW70926   7.325   7.612   3.477
56365SOL    HW170927   7.237   7.582   3.502
56365SOL    HW270928   7.380   7.594   3.553
56366SOL     OW70929  11.324   1.957  14.082
56366SOL    HW170930  11.282   1.947  13.997
56366SOL    HW270931  11.348   2.050  14.086
56367SOL     OW70932   5.896   3.620   5.122
56367SOL    HW170933   5.962   3.558   5.152
56367SOL    HW270934   5.816   3.595   5.170
56368SOL     OW70935   6.660   2.966  13.141
56368SOL    HW170936   6.716   2.966  13.218
56368SOL    HW270937   6.598   3.037  13.157
56369SOL     OW70938  12.168   0.871  14.032
56369SOL    HW170939  12.251   0.831  14.056
56369SOL    HW270940  12.182   0.906  13.944
56370SOL     OW70941   4.779   8.472  10.676
56370SOL    HW170942   4.840   8.538  10.644
56370SOL    HW270943   4.792   8.397  10.617
56371SOL     OW70944   6.358   0.829   4.866
56371SOL    HW170945   6.334   0.816   4.957
56371SOL    HW270946   6.278   0.858   4.823
56372SOL     OW70947   5.411   6.686  13.107
56372SOL    HW170948   5.385   6.757  13.165
56372SOL    HW270949   5.329   6.639  13.089
56373SOL     OW70950   0.209  10.175   8.284
56373SOL    HW170951   0.154  10.122   8.227
56373SOL    HW270952   0.286  10.121   8.300
56374SOL     OW70953   0.800   7.635   9.776
56374SOL    HW170954   0.889   7.610   9.799
56374SOL    HW270955   0.800   7.731   9.781
56375SOL     OW70956   6.678   6.574   3.185
56375SOL    HW170957   6.712   6.544   3.269
56375SOL    HW270958   6.703   6.506   3.123
56376SOL     OW70959  13.504  11.857   6.314
56376SOL    HW170960  13.475  11.767   6.328
56376SOL    HW270961  13.460  11.908   6.382
56377SOL     OW70962   7.378  11.977   0.649
56377SOL    HW170963   7.428  11.937   0.577
56377SOL    HW270964   7.287  11.956   0.629
56378SOL     OW70965  12.498   8.742   8.359
56378SOL    HW170966  12.587   8.755   8.325
56378SOL    HW270967  12.442   8.756   8.282
56379SOL     OW70968  13.971   1.119   5.474
56379SOL    HW170969  13.990   1.078   5.559
56379SOL    HW270970  13.893   1.173   5.491
56380SOL     OW70971  13.439   6.446  10.516
56380SOL    HW170972  13.392   6.425  10.435
56380SOL    HW270973  13.374   6.437  10.585
56381SOL     OW70974   9.508   6.569  10.324
56381SOL    HW170975   9.537   6.610  10.242
56381SOL    HW270976   9.543   6.625  10.393
56382SOL     OW70977  12.564   9.047  11.821
56382SOL    HW170978  12.573   9.089  11.907
56382SOL    HW270979  12.532   9.117  11.764
56383SOL     OW70980   3.062  12.425   4.664
56383SOL    HW170981   3.002  12.409   4.736
56383SOL    HW270982   3.064  12.520   4.655
56384SOL     OW70983  11.266   5.259   6.785
56384SOL    HW170984  11.247   5.177   6.739
56384SOL    HW270985  11.180   5.298   6.800
56385SOL     OW70986  12.053   3.104   0.436
56385SOL    HW170987  12.144   3.094   0.464
56385SOL    HW270988  12.056   3.173   0.370
56386SOL     OW70989  10.756   5.824   1.940
56386SOL    HW170990  10.845   5.807   1.910
56386SOL    HW270991  10.746   5.769   2.018
56387SOL     OW70992  13.653   4.919   3.877
56387SOL    HW170993  13.606   4.886   3.953
56387SOL    HW270994  13.739   4.944   3.912
56388SOL     OW70995  11.674   7.199  11.031
56388SOL    HW170996  11.602   7.138  11.045
56388SOL    HW270997  11.634   7.286  11.040
56389SOL     OW70998   7.014   5.887   9.898
56389SOL    HW170999   7.034   5.977   9.873
56389SOL    HW271000   7.064   5.833   9.837
56390SOL     OW71001  13.885   6.627   4.500
56390SOL    HW171002  13.975   6.654   4.484
56390SOL    HW271003  13.833   6.684   4.443
56391SOL     OW71004  14.789   6.808   5.205
56391SOL    HW171005  14.760   6.900   5.203
56391SOL    HW271006  14.724   6.763   5.150
56392SOL     OW71007  11.485   6.114   6.387
56392SOL    HW171008  11.489   6.061   6.467
56392SOL    HW271009  11.492   6.204   6.418
56393SOL     OW71010   2.899  14.069   7.997
56393SOL    HW171011   2.911  13.995   8.057
56393SOL    HW271012   2.885  14.144   8.054
56394SOL     OW71013  12.886  11.576   5.640
56394SOL    HW171014  12.941  11.654   5.631
56394SOL    HW271015  12.818  11.602   5.703
56395SOL     OW71016  13.807   6.807  12.908
56395SOL    HW171017  13.724   6.782  12.948
56395SOL    HW271018  13.792   6.799  12.814
56396SOL     OW71019   1.996  13.900   4.399
56396SOL    HW171020   1.951  13.826   4.438
56396SOL    HW271021   1.985  13.889   4.305
56397SOL     OW71022   8.272  10.545   3.238
56397SOL    HW171023   8.289  10.631   3.277
56397SOL    HW271024   8.349  10.493   3.258
56398SOL     OW71025   5.375  12.072  14.476
56398SOL    HW171026   5.434  12.081  14.401
56398SOL    HW271027   5.303  12.132  14.457
56399SOL     OW71028  14.079  14.042  11.906
56399SOL    HW171029  14.025  13.986  11.962
56399SOL    HW271030  14.113  14.109  11.964
56400SOL     OW71031   4.106   8.930   5.435
56400SOL    HW171032   4.079   8.849   5.392
56400SOL    HW271033   4.144   8.983   5.365
56401SOL     OW71034  14.389  12.325   5.881
56401SOL    HW171035  14.426  12.255   5.827
56401SOL    HW271036  14.295  12.320   5.866
56402SOL     OW71037   4.855   0.217  10.450
56402SOL    HW171038   4.853   0.202  10.355
56402SOL    HW271039   4.810   0.300  10.462
56403SOL     OW71040   2.117  12.521   6.863
56403SOL    HW171041   2.074  12.522   6.778
56403SOL    HW271042   2.111  12.429   6.892
56404SOL     OW71043   0.714   1.153   6.811
56404SOL    HW171044   0.636   1.205   6.791
56404SOL    HW271045   0.680   1.065   6.826
56405SOL     OW71046   6.841   9.369   2.109
56405SOL    HW171047   6.791   9.289   2.092
56405SOL    HW271048   6.932   9.342   2.099
56406SOL     OW71049  10.732   9.888   6.094
56406SOL    HW171050  10.743   9.980   6.119
56406SOL    HW271051  10.639   9.879   6.073
56407SOL     OW71052   6.249  12.372   6.649
56407SOL    HW171053   6.214  12.438   6.588
56407SOL    HW271054   6.336  12.406   6.673
56408SOL     OW71055   9.190   2.882   6.901
56408SOL    HW171056   9.173   2.844   6.988
56408SOL    HW271057   9.149   2.968   6.905
56409SOL     OW71058   0.569  13.112   8.486
56409SOL    HW171059   0.491  13.066   8.458
56409SOL    HW271060   0.615  13.050   8.543
56410SOL     OW71061   0.703   8.682  12.916
56410SOL    HW171062   0.642   8.713  12.849
56410SOL    HW271063   0.773   8.747  12.917
56411SOL     OW71064   2.256   1.775  13.757
56411SOL    HW171065   2.334   1.814  13.717
56411SOL    HW271066   2.276   1.773  13.850
56412SOL     OW71067   3.450  14.329  12.028
56412SOL    HW171068   3.477  14.341  12.119
56412SOL    HW271069   3.503  14.256  11.996
56413SOL     OW71070  10.893   4.415   5.910
56413SOL    HW171071  10.843   4.362   5.972
56413SOL    HW271072  10.853   4.396   5.825
56414SOL     OW71073   0.843   0.341  11.324
56414SOL    HW171074   0.788   0.338  11.246
56414SOL    HW271075   0.869   0.433  11.331
56415SOL     OW71076   2.450  11.446   5.942
56415SOL    HW171077   2.365  11.436   5.985
56415SOL    HW271078   2.454  11.372   5.881
56416SOL     OW71079  14.219   4.156   4.980
56416SOL    HW171080  14.278   4.207   5.036
56416SOL    HW271081  14.155   4.219   4.949
56417SOL     OW71082   4.861  14.505  11.033
56417SOL    HW171083   4.862  14.565  10.958
56417SOL    HW271084   4.934  14.533  11.088
56418SOL     OW71085   1.553  11.534   2.467
56418SOL    HW171086   1.536  11.441   2.456
56418SOL    HW271087   1.487  11.563   2.531
56419SOL     OW71088   0.177   7.796  10.898
56419SOL    HW171089   0.226   7.791  10.980
56419SOL    HW271090   0.169   7.705  10.869
56420SOL     OW71091  10.789   9.385   6.372
56420SOL    HW171092  10.698   9.396   6.400
56420SOL    HW271093  10.807   9.292   6.384
56421SOL     OW71094   6.651  10.720  12.919
56421SOL    HW171095   6.742  10.707  12.892
56421SOL    HW271096   6.607  10.639  12.892
56422SOL     OW71097   1.272   5.677   3.003
56422SOL    HW171098   1.225   5.756   2.977
56422SOL    HW271099   1.364   5.703   3.004
56423SOL     OW71100   1.689   8.679   4.199
56423SOL    HW171101   1.719   8.710   4.113
56423SOL    HW271102   1.596   8.660   4.187
56424SOL     OW71103  12.796  13.047   0.094
56424SOL    HW171104  12.773  12.962   0.130
56424SOL    HW271105  12.890  13.056   0.112
56425SOL     OW71106  14.146  13.669  12.306
56425SOL    HW171107  14.222  13.720  12.277
56425SOL    HW271108  14.147  13.591  12.250
56426SOL     OW71109   9.895  11.509   5.735
56426SOL    HW171110   9.841  11.573   5.687
56426SOL    HW271111   9.880  11.426   5.690
56427SOL     OW71112  13.184  13.243   7.905
56427SOL    HW171113  13.132  13.252   7.985
56427SOL    HW271114  13.166  13.153   7.876
56428SOL     OW71115  12.463   0.049  11.834
56428SOL    HW171116  12.475   0.025  11.926
56428SOL    HW271117  12.454  14.838  11.788
56429SOL     OW71118   3.536   9.824   3.569
56429SOL    HW171119   3.517   9.851   3.479
56429SOL    HW271120   3.603   9.756   3.560
56430SOL     OW71121   5.382   4.994   6.098
56430SOL    HW171122   5.337   5.048   6.034
56430SOL    HW271123   5.470   4.984   6.063
56431SOL     OW71124   1.298  11.330   7.500
56431SOL    HW171125   1.271  11.239   7.511
56431SOL    HW271126   1.223  11.373   7.459
56432SOL     OW71127  10.585   2.689   7.869
56432SOL    HW171128  10.679   2.707   7.875
56432SOL    HW271129  10.543   2.773   7.888
56433SOL     OW71130   3.130   0.279  13.904
56433SOL    HW171131   3.063   0.281  13.836
56433SOL    HW271132   3.082   0.293  13.986
56434SOL     OW71133  10.311   4.117   8.925
56434SOL    HW171134  10.356   4.201   8.936
56434SOL    HW271135  10.266   4.103   9.008
56435SOL     OW71136  10.274  12.391   1.342
56435SOL    HW171137  10.222  12.319   1.307
56435SOL    HW271138  10.360  12.380   1.302
56436SOL     OW71139   8.383  10.128   9.448
56436SOL    HW171140   8.314  10.171   9.498
56436SOL    HW271141   8.393  10.182   9.370
56437SOL     OW71142   2.906  14.236   5.001
56437SOL    HW171143   2.833  14.269   4.948
56437SOL    HW271144   2.957  14.182   4.941
56438SOL     OW71145   7.266  10.531   7.566
56438SOL    HW171146   7.274  10.597   7.634
56438SOL    HW271147   7.284  10.448   7.611
56439SOL     OW71148   1.728   9.881  10.229
56439SOL    HW171149   1.645   9.865  10.184
56439SOL    HW271150   1.708   9.949  10.294
56440SOL     OW71151   7.240   6.886  13.954
56440SOL    HW171152   7.148   6.860  13.950
56440SOL    HW271153   7.288   6.803  13.959
56441SOL     OW71154  11.172   6.327   8.557
56441SOL    HW171155  11.125   6.248   8.587
56441SOL    HW271156  11.205   6.367   8.638
56442SOL     OW71157  14.067  11.166   8.988
56442SOL    HW171158  14.044  11.183   9.079
56442SOL    HW271159  14.094  11.074   8.986
56443SOL     OW71160   1.818   0.877  12.306
56443SOL    HW171161   1.901   0.910  12.271
56443SOL    HW271162   1.835   0.863  12.399
56444SOL     OW71163   5.792   7.061  14.699
56444SOL    HW171164   5.859   7.004  14.661
56444SOL    HW271165   5.779   7.130  14.635
56445SOL     OW71166   9.260   4.483   3.197
56445SOL    HW171167   9.191   4.427   3.233
56445SOL    HW271168   9.306   4.427   3.135
56446SOL     OW71169   0.235  10.167  11.886
56446SOL    HW171170   0.200  10.212  11.809
56446SOL    HW271171   0.164  10.170  11.950
56447SOL     OW71172   0.041   5.373  12.654
56447SOL    HW171173   0.106   5.306  12.633
56447SOL    HW271174   0.091   5.447  12.688
56448SOL     OW71175   1.588   3.167   0.883
56448SOL    HW171176   1.493   3.173   0.872
56448SOL    HW271177   1.614   3.094   0.827
56449SOL     OW71178  13.995   1.164  10.892
56449SOL    HW171179  14.048   1.169  10.813
56449SOL    HW271180  13.912   1.125  10.863
56450SOL     OW71181   1.173  10.173   9.434
56450SOL    HW171182   1.146  10.145   9.347
56450SOL    HW271183   1.092  10.208   9.473
56451SOL     OW71184  10.565   5.436   2.343
56451SOL    HW171185  10.638   5.481   2.385
56451SOL    HW271186  10.504   5.417   2.414
56452SOL     OW71187  13.381  13.537  10.519
56452SOL    HW171188  13.377  13.542  10.615
56452SOL    HW271189  13.295  13.567  10.490
56453SOL     OW71190   6.365  10.919   1.688
56453SOL    HW171191   6.374  10.929   1.782
56453SOL    HW271192   6.337  10.828   1.676
56454SOL     OW71193   5.465   2.578   3.789
56454SOL    HW171194   5.386   2.534   3.757
56454SOL    HW271195   5.524   2.507   3.815
56455SOL     OW71196   6.778   8.495  12.101
56455SOL    HW171197   6.804   8.505  12.193
56455SOL    HW271198   6.835   8.427  12.067
56456SOL     OW71199  13.274  11.853   9.574
56456SOL    HW171200  13.223  11.873   9.653
56456SOL    HW271201  13.233  11.773   9.540
56457SOL     OW71202   1.459   9.603   7.216
56457SOL    HW171203   1.406   9.680   7.192
56457SOL    HW271204   1.528   9.638   7.273
56458SOL     OW71205   8.207  14.378   3.251
56458SOL    HW171206   8.240  14.310   3.310
56458SOL    HW271207   8.161  14.439   3.308
56459SOL     OW71208   9.624   8.580  10.688
56459SOL    HW171209   9.655   8.601  10.776
56459SOL    HW271210   9.596   8.664  10.652
56460SOL     OW71211  10.093  13.869   8.956
56460SOL    HW171212  10.108  13.849   9.048
56460SOL    HW271213  10.010  13.825   8.935
56461SOL     OW71214   8.094  14.037   3.018
56461SOL    HW171215   8.184  14.021   2.989
56461SOL    HW271216   8.066  13.954   3.058
56462SOL     OW71217  13.857  13.596  13.105
56462SOL    HW171218  13.812  13.621  13.024
56462SOL    HW271219  13.925  13.663  13.116
56463SOL     OW71220  13.151   7.168   5.524
56463SOL    HW171221  13.091   7.210   5.462
56463SOL    HW271222  13.205   7.240   5.556
56464SOL     OW71223   6.990   3.156   2.054
56464SOL    HW171224   7.003   3.160   2.149
56464SOL    HW271225   7.079   3.155   2.018
56465SOL     OW71226  11.575   5.040   0.368
56465SOL    HW171227  11.556   4.967   0.309
56465SOL    HW271228  11.586   5.000   0.454
56466SOL     OW71229  10.539  13.731   4.827
56466SOL    HW171230  10.628  13.697   4.819
56466SOL    HW271231  10.550  13.823   4.851
56467SOL     OW71232   2.665   1.915  11.967
56467SOL    HW171233   2.753   1.923  12.004
56467SOL    HW271234   2.657   1.990  11.908
56468SOL     OW71235   2.606  12.585   0.661
56468SOL    HW171236   2.575  12.639   0.733
56468SOL    HW271237   2.548  12.608   0.588
56469SOL     OW71238   0.174  11.298   7.219
56469SOL    HW171239   0.236  11.227   7.206
56469SOL    HW271240   0.167  11.306   7.315
56470SOL     OW71241   0.906   3.311  13.694
56470SOL    HW171242   0.938   3.368  13.624
56470SOL    HW271243   0.880   3.231  13.648
56471SOL     OW71244   1.607   3.459   9.040
56471SOL    HW171245   1.572   3.524   9.102
56471SOL    HW271246   1.696   3.443   9.070
56472SOL     OW71247   7.580   1.710  10.609
56472SOL    HW171248   7.630   1.640  10.651
56472SOL    HW271249   7.519   1.739  10.677
56473SOL     OW71250  11.772   9.038  14.509
56473SOL    HW171251  11.702   9.012  14.569
56473SOL    HW271252  11.814   8.955  14.484
56474SOL     OW71253   5.925   7.987  10.082
56474SOL    HW171254   5.946   8.080  10.075
56474SOL    HW271255   5.864   7.970  10.010
56475SOL     OW71256   2.386   6.972   1.494
56475SOL    HW171257   2.477   6.980   1.465
56475SOL    HW271258   2.378   6.881   1.524
56476SOL     OW71259   4.582   0.965   1.635
56476SOL    HW171260   4.510   1.020   1.664
56476SOL    HW271261   4.614   0.921   1.714
56477SOL     OW71262  14.355  10.725   5.380
56477SOL    HW171263  14.323  10.675   5.455
56477SOL    HW271264  14.450  10.726   5.390
56478SOL     OW71265   0.050  12.599  10.014
56478SOL    HW171266   0.024  12.541  10.086
56478SOL    HW271267   0.066  12.540   9.940
56479SOL     OW71268   8.620  12.798   8.369
56479SOL    HW171269   8.673  12.757   8.437
56479SOL    HW271270   8.533  12.760   8.378
56480SOL     OW71271   4.991   0.846  14.000
56480SOL    HW171272   5.034   0.866  14.083
56480SOL    HW271273   5.064   0.828  13.940
56481SOL     OW71274   1.725  14.241   0.513
56481SOL    HW171275   1.638  14.212   0.540
56481SOL    HW271276   1.733  14.212   0.422
56482SOL     OW71277  11.949   1.886   0.659
56482SOL    HW171278  11.865   1.859   0.622
56482SOL    HW271279  12.006   1.810   0.647
56483SOL     OW71280   6.743   4.994  10.980
56483SOL    HW171281   6.738   4.924  11.045
56483SOL    HW271282   6.793   4.956  10.908
56484SOL     OW71283  10.048   2.233   4.542
56484SOL    HW171284  10.075   2.170   4.608
56484SOL    HW271285  10.125   2.287   4.527
56485SOL     OW71286   9.173  11.178   8.793
56485SOL    HW171287   9.233  11.252   8.806
56485SOL    HW271288   9.181  11.156   8.701
56486SOL     OW71289  12.222   4.015   5.306
56486SOL    HW171290  12.252   4.081   5.368
56486SOL    HW271291  12.296   3.954   5.297
56487SOL     OW71292   0.740  11.334   8.088
56487SOL    HW171293   0.810  11.333   8.153
56487SOL    HW271294   0.661  11.314   8.138
56488SOL     OW71295  11.126  10.391   0.814
56488SOL    HW171296  11.145  10.386   0.908
56488SOL    HW271297  11.207  10.425   0.776
56489SOL     OW71298   4.432   4.807  10.062
56489SOL    HW171299   4.409   4.789   9.971
56489SOL    HW271300   4.411   4.726  10.108
56490SOL     OW71301   3.228   6.121  13.144
56490SOL    HW171302   3.186   6.145  13.227
56490SOL    HW271303   3.225   6.200  13.091
56491SOL     OW71304   3.797  13.353   4.146
56491SOL    HW171305   3.722  13.397   4.106
56491SOL    HW271306   3.851  13.425   4.180
56492SOL     OW71307   6.115  10.044   7.266
56492SOL    HW171308   6.125   9.969   7.207
56492SOL    HW271309   6.202  10.058   7.302
56493SOL     OW71310   3.953   9.664  12.810
56493SOL    HW171311   4.033   9.619  12.783
56493SOL    HW271312   3.887   9.638  12.745
56494SOL     OW71313  14.303   5.163  13.282
56494SOL    HW171314  14.334   5.174  13.371
56494SOL    HW271315  14.229   5.102  13.289
56495SOL     OW71316   1.452   6.128   2.735
56495SOL    HW171317   1.511   6.138   2.810
56495SOL    HW271318   1.464   6.038   2.707
56496SOL     OW71319  12.092   4.424   6.305
56496SOL    HW171320  12.173   4.443   6.352
56496SOL    HW271321  12.112   4.345   6.254
56497SOL     OW71322   2.269   8.411   3.141
56497SOL    HW171323   2.320   8.412   3.222
56497SOL    HW271324   2.335   8.419   3.072
56498SOL     OW71325   3.930   8.632   5.656
56498SOL    HW171326   3.856   8.578   5.683
56498SOL    HW271327   3.914   8.718   5.695
56499SOL     OW71328  12.117  13.620   5.859
56499SOL    HW171329  12.201  13.587   5.890
56499SOL    HW271330  12.059  13.544   5.862
56500SOL     OW71331  10.278  13.895   5.895
56500SOL    HW171332  10.251  13.981   5.863
56500SOL    HW271333  10.278  13.903   5.990
56501SOL     OW71334   9.053   4.083   2.534
56501SOL    HW171335   9.140   4.073   2.574
56501SOL    HW271336   9.043   4.007   2.477
56502SOL     OW71337   0.613   7.276   4.947
56502SOL    HW171338   0.555   7.264   4.872
56502SOL    HW271339   0.694   7.310   4.908
56503SOL     OW71340  10.954   5.573   0.604
56503SOL    HW171341  10.874   5.622   0.624
56503SOL    HW271342  11.003   5.571   0.686
56504SOL     OW71343   3.528  13.684   9.258
56504SOL    HW171344   3.566  13.650   9.176
56504SOL    HW271345   3.594  13.665   9.324
56505SOL     OW71346   1.520  10.899  14.592
56505SOL    HW171347   1.464  10.911  14.668
56505SOL    HW271348   1.581  10.973  14.595
56506SOL     OW71349  10.540   6.285   8.148
56506SOL    HW171350  10.524   6.232   8.070
56506SOL    HW271351  10.542   6.221   8.220
56507SOL     OW71352   5.872   2.712   9.852
56507SOL    HW171353   5.795   2.656   9.864
56507SOL    HW271354   5.847   2.773   9.783
56508SOL     OW71355   9.796   1.582   8.139
56508SOL    HW171356   9.786   1.640   8.064
56508SOL    HW271357   9.817   1.641   8.212
56509SOL     OW71358   5.456   4.481   5.058
56509SOL    HW171359   5.447   4.450   5.148
56509SOL    HW271360   5.389   4.548   5.049
56510SOL     OW71361   3.116   2.241  14.471
56510SOL    HW171362   3.193   2.296  14.486
56510SOL    HW271363   3.042   2.298  14.490
56511SOL     OW71364   2.355   6.142   5.161
56511SOL    HW171365   2.325   6.232   5.169
56511SOL    HW271366   2.450   6.149   5.152
56512SOL     OW71367  11.232   3.521   5.018
56512SOL    HW171368  11.298   3.477   4.964
56512SOL    HW271369  11.167   3.553   4.956
56513SOL     OW71370   5.583   3.834   4.137
56513SOL    HW171371   5.500   3.860   4.178
56513SOL    HW271372   5.559   3.808   4.048
56514SOL     OW71373   1.724   5.032   1.766
56514SOL    HW171374   1.650   5.048   1.824
56514SOL    HW271375   1.801   5.057   1.816
56515SOL     OW71376  11.238   0.553  13.229
56515SOL    HW171377  11.187   0.562  13.309
56515SOL    HW271378  11.210   0.627  13.174
56516SOL     OW71379   1.917  14.687  14.697
56516SOL    HW171380   1.857  14.741  14.749
56516SOL    HW271381   1.870  14.669  14.616
56517SOL     OW71382  11.745   5.263   6.741
56517SOL    HW171383  11.730   5.275   6.835
56517SOL    HW271384  11.667   5.218   6.709
56518SOL     OW71385   2.789  12.552  11.640
56518SOL    HW171386   2.702  12.564  11.600
56518SOL    HW271387   2.839  12.628  11.610
56519SOL     OW71388   1.049   7.730   8.268
56519SOL    HW171389   1.055   7.798   8.335
56519SOL    HW271390   1.041   7.778   8.186
56520SOL     OW71391   3.683   2.031   1.888
56520SOL    HW171392   3.611   2.079   1.931
56520SOL    HW271393   3.703   1.959   1.947
56521SOL     OW71394   3.888  10.535   9.583
56521SOL    HW171395   3.835  10.477   9.638
56521SOL    HW271396   3.960  10.481   9.552
56522SOL     OW71397  13.126  11.981   0.330
56522SOL    HW171398  13.140  12.018   0.243
56522SOL    HW271399  13.191  12.024   0.385
56523SOL     OW71400   5.499   5.394   6.407
56523SOL    HW171401   5.520   5.346   6.487
56523SOL    HW271402   5.444   5.466   6.435
56524SOL     OW71403   1.572   8.533  11.193
56524SOL    HW171404   1.545   8.615  11.152
56524SOL    HW271405   1.528   8.533  11.278
56525SOL     OW71406  11.779   0.666  11.022
56525SOL    HW171407  11.799   0.618  10.942
56525SOL    HW271408  11.858   0.718  11.039
56526SOL     OW71409   0.757   0.863   0.561
56526SOL    HW171410   0.754   0.842   0.468
56526SOL    HW271411   0.847   0.842   0.588
56527SOL     OW71412   9.281   3.234  13.908
56527SOL    HW171413   9.302   3.265  13.996
56527SOL    HW271414   9.240   3.309  13.865
56528SOL     OW71415  12.263   3.312   0.699
56528SOL    HW171416  12.204   3.374   0.656
56528SOL    HW271417  12.208   3.268   0.764
56529SOL     OW71418   5.630  11.573   8.686
56529SOL    HW171419   5.582  11.490   8.690
56529SOL    HW271420   5.569  11.638   8.719
56530SOL     OW71421   9.811  10.959   3.791
56530SOL    HW171422   9.785  10.925   3.876
56530SOL    HW271423   9.894  10.916   3.772
56531SOL     OW71424  10.524   2.805   6.273
56531SOL    HW171425  10.449   2.864   6.279
56531SOL    HW271426  10.490   2.719   6.296
56532SOL     OW71427  10.079   9.668  13.378
56532SOL    HW171428  10.083   9.583  13.332
56532SOL    HW271429  10.049   9.646  13.466
56533SOL     OW71430   7.320  13.240  10.140
56533SOL    HW171431   7.357  13.152  10.130
56533SOL    HW271432   7.323  13.257  10.234
56534SOL     OW71433  12.434  12.383   5.460
56534SOL    HW171434  12.377  12.454   5.432
56534SOL    HW271435  12.522  12.410   5.433
56535SOL     OW71436  13.594   8.110   9.168
56535SOL    HW171437  13.628   8.195   9.140
56535SOL    HW271438  13.499   8.122   9.166
56536SOL     OW71439   1.541   4.383   2.949
56536SOL    HW171440   1.560   4.472   2.978
56536SOL    HW271441   1.590   4.327   3.010
56537SOL     OW71442  12.097  13.145   7.553
56537SOL    HW171443  12.110  13.149   7.458
56537SOL    HW271444  12.004  13.122   7.563
56538SOL     OW71445   7.564   2.352   7.021
56538SOL    HW171446   7.560   2.441   7.056
56538SOL    HW271447   7.629   2.307   7.075
56539SOL     OW71448   9.693  14.641   0.152
56539SOL    HW171449   9.703  14.602   0.065
56539SOL    HW271450   9.620  14.701   0.144
56540SOL     OW71451   2.187  12.984   8.251
56540SOL    HW171452   2.277  12.974   8.220
56540SOL    HW271453   2.149  12.897   8.244
56541SOL     OW71454  10.546   9.004   1.472
56541SOL    HW171455  10.489   9.081   1.472
56541SOL    HW271456  10.613   9.023   1.406
56542SOL     OW71457  11.687   6.635   9.110
56542SOL    HW171458  11.678   6.559   9.167
56542SOL    HW271459  11.668   6.602   9.022
56543SOL     OW71460  13.486   1.820   4.414
56543SOL    HW171461  13.473   1.912   4.393
56543SOL    HW271462  13.398   1.788   4.435
56544SOL     OW71463   7.356   8.079  13.098
56544SOL    HW171464   7.409   8.124  13.163
56544SOL    HW271465   7.291   8.144  13.071
56545SOL     OW71466   0.281  10.648   0.249
56545SOL    HW171467   0.275  10.733   0.205
56545SOL    HW271468   0.367  10.615   0.225
56546SOL     OW71469   0.870   7.360  11.886
56546SOL    HW171470   0.866   7.279  11.935
56546SOL    HW271471   0.805   7.349  11.816
56547SOL     OW71472   7.165   6.032   1.006
56547SOL    HW171473   7.132   6.080   1.082
56547SOL    HW271474   7.092   5.978   0.978
56548SOL     OW71475   5.870   7.598   1.487
56548SOL    HW171476   5.786   7.633   1.456
56548SOL    HW271477   5.902   7.664   1.548
56549SOL     OW71478   8.648   4.822   7.888
56549SOL    HW171479   8.611   4.905   7.860
56549SOL    HW271480   8.742   4.840   7.898
56550SOL     OW71481  11.105   3.383   4.637
56550SOL    HW171482  11.122   3.477   4.629
56550SOL    HW271483  11.150   3.344   4.562
56551SOL     OW71484   1.475   9.841   0.970
56551SOL    HW171485   1.396   9.813   0.923
56551SOL    HW271486   1.513   9.908   0.914
56552SOL     OW71487   2.240   3.033   5.066
56552SOL    HW171488   2.317   3.052   5.119
56552SOL    HW271489   2.205   2.952   5.103
56553SOL     OW71490  11.539   1.972   3.038
56553SOL    HW171491  11.507   2.004   2.954
56553SOL    HW271492  11.503   1.884   3.045
56554SOL     OW71493   8.866   8.931   0.463
56554SOL    HW171494   8.937   8.921   0.399
56554SOL    HW271495   8.860   9.026   0.475
56555SOL     OW71496   4.254  11.833  10.930
56555SOL    HW171497   4.282  11.761  10.987
56555SOL    HW271498   4.171  11.862  10.968
56556SOL     OW71499   8.500   8.531  14.700
56556SOL    HW171500   8.566   8.504  14.636
56556SOL    HW271501   8.551   8.564  14.775
56557SOL     OW71502   9.859   7.666   1.688
56557SOL    HW171503   9.902   7.587   1.655
56557SOL    HW271504   9.886   7.671   1.780
56558SOL     OW71505   8.832   8.431   8.929
56558SOL    HW171506   8.915   8.397   8.962
56558SOL    HW271507   8.801   8.363   8.868
56559SOL     OW71508   1.333  11.540   6.541
56559SOL    HW171509   1.405  11.597   6.515
56559SOL    HW271510   1.258  11.574   6.492
56560SOL     OW71511   9.251   5.831  12.404
56560SOL    HW171512   9.319   5.891  12.374
56560SOL    HW271513   9.271   5.749  12.359
56561SOL     OW71514   8.634   2.596   4.212
56561SOL    HW171515   8.562   2.535   4.198
56561SOL    HW271516   8.711   2.540   4.222
56562SOL     OW71517   3.352   1.281   3.961
56562SOL    HW171518   3.382   1.190   3.959
56562SOL    HW271519   3.327   1.300   3.871
56563SOL     OW71520   4.686   4.709   3.213
56563SOL    HW171521   4.770   4.749   3.192
56563SOL    HW271522   4.632   4.781   3.243
56564SOL     OW71523   9.345   9.275  10.249
56564SOL    HW171524   9.280   9.283  10.319
56564SOL    HW271525   9.319   9.340  10.184
56565SOL     OW71526   7.147   0.141  13.853
56565SOL    HW171527   7.183   0.125  13.940
56565SOL    HW271528   7.222   0.171  13.801
56566SOL     OW71529   5.309  12.632   8.878
56566SOL    HW171530   5.390  12.656   8.923
56566SOL    HW271531   5.337  12.608   8.790
56567SOL     OW71532   4.325  13.683   3.643
56567SOL    HW171533   4.244  13.733   3.656
56567SOL    HW271534   4.323  13.659   3.550
56568SOL     OW71535   3.687   4.619  10.979
56568SOL    HW171536   3.692   4.708  10.944
56568SOL    HW271537   3.779   4.591  10.986
56569SOL     OW71538   5.354   1.752   1.782
56569SOL    HW171539   5.322   1.664   1.801
56569SOL    HW271540   5.294   1.787   1.717
56570SOL     OW71541   5.850   0.204   4.836
56570SOL    HW171542   5.877   0.171   4.750
56570SOL    HW271543   5.819   0.126   4.882
56571SOL     OW71544  11.430   4.938   1.792
56571SOL    HW171545  11.511   4.962   1.838
56571SOL    HW271546  11.400   5.019   1.750
56572SOL     OW71547   2.699   5.037  12.026
56572SOL    HW171548   2.646   5.076  12.095
56572SOL    HW271549   2.739   4.960  12.066
56573SOL     OW71550   4.570   9.948  14.038
56573SOL    HW171551   4.665   9.955  14.035
56573SOL    HW271552   4.541   9.983  13.954
56574SOL     OW71553   7.195   7.506  11.693
56574SOL    HW171554   7.161   7.518  11.604
56574SOL    HW271555   7.255   7.432  11.685
56575SOL     OW71556   3.353   3.247   9.900
56575SOL    HW171557   3.295   3.312   9.860
56575SOL    HW271558   3.319   3.237   9.989
56576SOL     OW71559   9.164   2.123   8.985
56576SOL    HW171560   9.158   2.069   9.064
56576SOL    HW271561   9.141   2.064   8.914
56577SOL     OW71562   1.223  14.354  12.485
56577SOL    HW171563   1.224  14.420  12.554
56577SOL    HW271564   1.163  14.286  12.516
56578SOL     OW71565  12.623   6.198   3.361
56578SOL    HW171566  12.678   6.199   3.283
56578SOL    HW271567  12.649   6.276   3.410
56579SOL     OW71568  13.831   0.897   4.434
56579SOL    HW171569  13.879   0.826   4.478
56579SOL    HW271570  13.876   0.906   4.349
56580SOL     OW71571   2.882   3.762   1.255
56580SOL    HW171572   2.788   3.762   1.239
56580SOL    HW271573   2.902   3.673   1.284
56581SOL     OW71574  10.860  12.557   8.391
56581SOL    HW171575  10.820  12.478   8.355
56581SOL    HW271576  10.941  12.525   8.432
56582SOL     OW71577   5.651  11.569  13.056
56582SOL    HW171578   5.689  11.539  12.974
56582SOL    HW271579   5.726  11.584  13.114
56583SOL     OW71580   5.380   0.235   0.845
56583SOL    HW171581   5.392   0.160   0.903
56583SOL    HW271582   5.297   0.218   0.800
56584SOL     OW71583   6.720  12.878  11.704
56584SOL    HW171584   6.731  12.967  11.672
56584SOL    HW271585   6.782  12.825  11.653
56585SOL     OW71586   4.407   1.204   8.536
56585SOL    HW171587   4.471   1.133   8.535
56585SOL    HW271588   4.377   1.209   8.627
56586SOL     OW71589   8.286   7.104  13.282
56586SOL    HW171590   8.295   7.012  13.307
56586SOL    HW271591   8.204   7.107  13.233
56587SOL     OW71592  12.835  14.781  13.641
56587SOL    HW171593  12.786  14.701  13.620
56587SOL    HW271594  12.878  14.760  13.724
56588SOL     OW71595   0.348   0.430   1.066
56588SOL    HW171596   0.388   0.498   1.012
56588SOL    HW271597   0.398   0.431   1.148
56589SOL     OW71598   2.686   6.101  13.717
56589SOL    HW171599   2.652   6.039  13.781
56589SOL    HW271600   2.706   6.048  13.641
56590SOL     OW71601   9.665  14.039  12.137
56590SOL    HW171602   9.714  14.004  12.062
56590SOL    HW271603   9.579  13.996  12.131
56591SOL     OW71604   3.072  12.404   3.480
56591SOL    HW171605   3.051  12.476   3.420
56591SOL    HW271606   3.006  12.337   3.461
56592SOL     OW71607   6.315   4.336   1.889
56592SOL    HW171608   6.394   4.282   1.892
56592SOL    HW271609   6.269   4.315   1.971
56593SOL     OW71610   0.048   9.569   4.629
56593SOL    HW171611  14.857   9.499   4.641
56593SOL    HW271612   0.018   9.616   4.551
56594SOL     OW71613  12.607  13.397  10.309
56594SOL    HW171614  12.564  13.450  10.242
56594SOL    HW271615  12.615  13.455  10.384
56595SOL     OW71616  13.059   3.990  14.473
56595SOL    HW171617  13.103   4.069  14.441
56595SOL    HW271618  13.129   3.925  14.481
56596SOL     OW71619  11.864   3.563  13.359
56596SOL    HW171620  11.810   3.524  13.427
56596SOL    HW271621  11.841   3.656  13.360
56597SOL     OW71622   8.964  14.446  10.603
56597SOL    HW171623   9.023  14.383  10.562
56597SOL    HW271624   8.896  14.393  10.643
56598SOL     OW71625   6.915  12.589   6.084
56598SOL    HW171626   7.002  12.599   6.044
56598SOL    HW271627   6.932  12.540   6.165
56599SOL     OW71628   1.772  11.998   1.425
56599SOL    HW171629   1.824  12.026   1.500
56599SOL    HW271630   1.774  12.073   1.365
56600SOL     OW71631   5.066   3.300   8.141
56600SOL    HW171632   5.033   3.212   8.121
56600SOL    HW271633   5.160   3.288   8.153
56601SOL     OW71634   0.305   8.394   4.319
56601SOL    HW171635   0.293   8.420   4.411
56601SOL    HW271636   0.395   8.417   4.299
56602SOL     OW71637   5.953   2.976   3.709
56602SOL    HW171638   5.951   2.880   3.712
56602SOL    HW271639   6.035   2.999   3.752
56603SOL     OW71640   7.338  14.748   4.067
56603SOL    HW171641   7.405  14.816   4.064
56603SOL    HW271642   7.284  14.763   3.989
56604SOL     OW71643   6.550  13.366   4.802
56604SOL    HW171644   6.494  13.319   4.740
56604SOL    HW271645   6.518  13.456   4.800
56605SOL     OW71646   6.530   4.838   5.631
56605SOL    HW171647   6.534   4.812   5.539
56605SOL    HW271648   6.595   4.784   5.675
56606SOL     OW71649  12.101   1.526   3.940
56606SOL    HW171650  12.100   1.614   3.902
56606SOL    HW271651  12.189   1.516   3.976
56607SOL     OW71652   6.525   7.080   6.970
56607SOL    HW171653   6.580   7.011   7.008
56607SOL    HW271654   6.477   7.036   6.899
56608SOL     OW71655   3.986   0.107   0.632
56608SOL    HW171656   4.059   0.067   0.586
56608SOL    HW271657   3.911   0.050   0.614
56609SOL     OW71658   5.489   9.806  11.010
56609SOL    HW171659   5.517   9.884  11.058
56609SOL    HW271660   5.531   9.814  10.924
56610SOL     OW71661   9.671  12.550   2.077
56610SOL    HW171662   9.618  12.539   2.156
56610SOL    HW271663   9.615  12.600   2.017
56611SOL     OW71664   7.849   9.675   8.911
56611SOL    HW171665   7.930   9.634   8.940
56611SOL    HW271666   7.827   9.738   8.980
56612SOL     OW71667   6.821  14.570  12.623
56612SOL    HW171668   6.745  14.581  12.680
56612SOL    HW271669   6.787  14.529  12.544
56613SOL     OW71670   4.769   5.913   7.460
56613SOL    HW171671   4.793   5.857   7.533
56613SOL    HW271672   4.683   5.881   7.431
56614SOL     OW71673  14.730   3.132  13.468
56614SOL    HW171674  14.749   3.050  13.421
56614SOL    HW271675  14.751   3.113  13.559
56615SOL     OW71676   0.424   3.140   9.811
56615SOL    HW171677   0.476   3.218   9.833
56615SOL    HW271678   0.409   3.097   9.895
56616SOL     OW71679   9.639   2.023  10.121
56616SOL    HW171680   9.720   2.065  10.149
56616SOL    HW271681   9.585   2.095  10.089
56617SOL     OW71682   4.409   9.616   2.683
56617SOL    HW171683   4.485   9.659   2.722
56617SOL    HW271684   4.420   9.523   2.705
56618SOL     OW71685   9.520   4.757   1.683
56618SOL    HW171686   9.523   4.839   1.732
56618SOL    HW271687   9.586   4.702   1.725
56619SOL     OW71688   0.416  14.034   8.081
56619SOL    HW171689   0.507  14.002   8.084
56619SOL    HW271690   0.423  14.127   8.100
56620SOL     OW71691   3.144   3.776  10.939
56620SOL    HW171692   3.167   3.843  11.003
56620SOL    HW271693   3.202   3.792  10.864
56621SOL     OW71694   4.133   0.275   7.257
56621SOL    HW171695   4.063   0.332   7.225
56621SOL    HW271696   4.154   0.308   7.344
56622SOL     OW71697   5.785   1.470   4.650
56622SOL    HW171698   5.822   1.392   4.692
56622SOL    HW271699   5.713   1.497   4.707
56623SOL     OW71700   1.533  13.179   2.331
56623SOL    HW171701   1.547  13.088   2.306
56623SOL    HW271702   1.481  13.175   2.411
56624SOL     OW71703   7.505   1.467   9.235
56624SOL    HW171704   7.426   1.502   9.195
56624SOL    HW271705   7.534   1.398   9.175
56625SOL     OW71706   3.041   5.154  13.193
56625SOL    HW171707   3.136   5.167  13.189
56625SOL    HW271708   3.007   5.198  13.116
56626SOL     OW71709   4.370   4.300   8.301
56626SOL    HW171710   4.361   4.274   8.393
56626SOL    HW271711   4.287   4.273   8.261
56627SOL     OW71712   7.612   0.877  10.154
56627SOL    HW171713   7.637   0.880  10.062
56627SOL    HW271714   7.550   0.949  10.166
56628SOL     OW71715   0.910   1.789  13.481
56628SOL    HW171716   0.897   1.719  13.417
56628SOL    HW271717   0.831   1.787  13.535
56629SOL     OW71718   4.131   8.154  11.330
56629SOL    HW171719   4.043   8.166  11.366
56629SOL    HW271720   4.140   8.060  11.318
56630SOL     OW71721   3.176   1.858   8.615
56630SOL    HW171722   3.164   1.947   8.582
56630SOL    HW271723   3.108   1.847   8.680
56631SOL     OW71724   5.128   0.508  11.322
56631SOL    HW171725   5.155   0.418  11.342
56631SOL    HW271726   5.131   0.553  11.407
56632SOL     OW71727   5.767   9.867   2.770
56632SOL    HW171728   5.720   9.843   2.850
56632SOL    HW271729   5.762   9.963   2.767
56633SOL     OW71730   2.772   4.948   2.064
56633SOL    HW171731   2.864   4.921   2.067
56633SOL    HW271732   2.734   4.914   2.145
56634SOL     OW71733   5.278   5.646  12.326
56634SOL    HW171734   5.234   5.658  12.243
56634SOL    HW271735   5.353   5.705  12.322
56635SOL     OW71736   3.197  13.035  12.130
56635SOL    HW171737   3.248  13.090  12.190
56635SOL    HW271738   3.252  12.957  12.117
56636SOL     OW71739   8.150  13.130  11.204
56636SOL    HW171740   8.142  13.038  11.229
56636SOL    HW271741   8.061  13.155  11.179
56637SOL     OW71742   4.546   9.365   8.123
56637SOL    HW171743   4.593   9.311   8.186
56637SOL    HW271744   4.515   9.440   8.174
56638SOL     OW71745  13.767  13.240  12.995
56638SOL    HW171746  13.754  13.317  12.939
56638SOL    HW271747  13.795  13.172  12.934
56639SOL     OW71748   2.931   2.611   5.255
56639SOL    HW171749   2.879   2.574   5.183
56639SOL    HW271750   2.933   2.542   5.321
56640SOL     OW71751   0.927   3.732   0.968
56640SOL    HW171752   1.014   3.757   1.001
56640SOL    HW271753   0.943   3.654   0.915
56641SOL     OW71754   4.210   7.085  13.558
56641SOL    HW171755   4.232   7.107  13.649
56641SOL    HW271756   4.280   7.028  13.529
56642SOL     OW71757   9.011  14.067   4.913
56642SOL    HW171758   8.971  14.137   4.964
56642SOL    HW271759   8.997  13.988   4.966
56643SOL     OW71760  13.551   1.079  13.930
56643SOL    HW171761  13.524   0.987  13.924
56643SOL    HW271762  13.526   1.117  13.846
56644SOL     OW71763   3.132   6.602  11.535
56644SOL    HW171764   3.082   6.548  11.474
56644SOL    HW271765   3.224   6.581  11.516
56645SOL     OW71766  12.126   3.430   3.131
56645SOL    HW171767  12.165   3.428   3.044
56645SOL    HW271768  12.159   3.351   3.174
56646SOL     OW71769  14.303  12.376  12.826
56646SOL    HW171770  14.346  12.290  12.826
56646SOL    HW271771  14.221  12.362  12.874
56647SOL     OW71772   6.640  10.952   9.234
56647SOL    HW171773   6.558  10.928   9.191
56647SOL    HW271774   6.654  11.043   9.208
56648SOL     OW71775   5.909  13.451   0.676
56648SOL    HW171776   5.876  13.492   0.756
56648SOL    HW271777   5.836  13.455   0.615
56649SOL     OW71778  11.741   7.432   2.470
56649SOL    HW171779  11.835   7.432   2.488
56649SOL    HW271780  11.727   7.354   2.417
56650SOL     OW71781  10.071   2.588   7.252
56650SOL    HW171782  10.122   2.523   7.301
56650SOL    HW271783  10.133   2.623   7.187
56651SOL     OW71784  10.969   2.477   1.678
56651SOL    HW171785  11.028   2.424   1.731
56651SOL    HW271786  10.892   2.491   1.735
56652SOL     OW71787  10.759   1.011   2.261
56652SOL    HW171788  10.674   1.019   2.305
56652SOL    HW271789  10.822   1.003   2.332
56653SOL     OW71790   8.347   2.831  10.463
56653SOL    HW171791   8.346   2.887  10.541
56653SOL    HW271792   8.438   2.834  10.432
56654SOL     OW71793   5.957   8.474   5.856
56654SOL    HW171794   5.865   8.459   5.834
56654SOL    HW271795   6.006   8.427   5.789
56655SOL     OW71796   3.277  10.437   2.787
56655SOL    HW171797   3.210  10.369   2.791
56655SOL    HW271798   3.270  10.483   2.871
56656SOL     OW71799   7.238  14.667  14.242
56656SOL    HW171800   7.167  14.692  14.184
56656SOL    HW271801   7.275  14.750  14.272
56657SOL     OW71802  11.770   9.551   8.600
56657SOL    HW171803  11.710   9.553   8.526
56657SOL    HW271804  11.857   9.558   8.561
56658SOL     OW71805   2.175   3.613   4.000
56658SOL    HW171806   2.116   3.629   4.074
56658SOL    HW271807   2.205   3.523   4.013
56659SOL     OW71808   8.006  10.842   5.843
56659SOL    HW171809   8.001  10.910   5.776
56659SOL    HW271810   7.967  10.882   5.921
56660SOL     OW71811  14.396   5.285   5.520
56660SOL    HW171812  14.382   5.329   5.436
56660SOL    HW271813  14.467   5.223   5.503
56661SOL     OW71814   8.600   7.606   8.656
56661SOL    HW171815   8.651   7.604   8.737
56661SOL    HW271816   8.522   7.655   8.679
56662SOL     OW71817   6.100   7.712   8.150
56662SOL    HW171818   6.059   7.626   8.142
56662SOL    HW271819   6.122   7.737   8.061
56663SOL     OW71820   4.761  13.240   8.417
56663SOL    HW171821   4.730  13.158   8.378
56663SOL    HW271822   4.856  13.238   8.404
56664SOL     OW71823   6.050  13.908   4.389
56664SOL    HW171824   6.030  13.887   4.298
56664SOL    HW271825   6.057  14.004   4.390
56665SOL     OW71826  14.260  11.887   8.520
56665SOL    HW171827  14.299  11.800   8.531
56665SOL    HW271828  14.325  11.947   8.557
56666SOL     OW71829   7.949  11.906  12.863
56666SOL    HW171830   7.989  11.861  12.937
56666SOL    HW271831   7.995  11.871  12.786
56667SOL     OW71832   5.977  14.344   7.156
56667SOL    HW171833   6.046  14.360   7.092
56667SOL    HW271834   6.024  14.320   7.236
56668SOL     OW71835  12.980  14.413  13.012
56668SOL    HW171836  12.924  14.430  13.088
56668SOL    HW271837  13.066  14.393  13.050
56669SOL     OW71838  14.703   0.828   0.240
56669SOL    HW171839  14.615   0.803   0.213
56669SOL    HW271840  14.726   0.900   0.182
56670SOL     OW71841   2.736   2.716   1.202
56670SOL    HW171842   2.775   2.761   1.127
56670SOL    HW271843   2.659   2.768   1.224
56671SOL     OW71844   3.343   3.914   1.138
56671SOL    HW171845   3.259   3.904   1.094
56671SOL    HW271846   3.320   3.950   1.224
56672SOL     OW71847   6.422   6.879   6.800
56672SOL    HW171848   6.408   6.810   6.865
56672SOL    HW271849   6.344   6.878   6.746
56673SOL     OW71850   2.029   6.545  10.780
56673SOL    HW171851   1.945   6.546  10.733
56673SOL    HW271852   2.027   6.623  10.835
56674SOL     OW71853   0.990  13.164   0.999
56674SOL    HW171854   0.955  13.233   1.054
56674SOL    HW271855   1.039  13.108   1.060
56675SOL     OW71856   0.423   9.720   7.168
56675SOL    HW171857   0.393   9.799   7.212
56675SOL    HW271858   0.420   9.652   7.236
56676SOL     OW71859   4.261   2.088   1.931
56676SOL    HW171860   4.214   2.164   1.964
56676SOL    HW271861   4.347   2.092   1.973
56677SOL     OW71862   5.841   9.443   1.170
56677SOL    HW171863   5.909   9.492   1.123
56677SOL    HW271864   5.843   9.356   1.129
56678SOL     OW71865   3.235   8.808   6.854
56678SOL    HW171866   3.206   8.777   6.940
56678SOL    HW271867   3.193   8.894   6.844
56679SOL     OW71868  10.158   0.293   3.647
56679SOL    HW171869  10.174   0.366   3.588
56679SOL    HW271870  10.225   0.300   3.714
56680SOL     OW71871   0.801   1.658   0.013
56680SOL    HW171872   0.839   1.592   0.070
56680SOL    HW271873   0.707   1.640   0.014
56681SOL     OW71874   2.853  14.087  13.454
56681SOL    HW171875   2.818  14.152  13.393
56681SOL    HW271876   2.948  14.095  13.446
56682SOL     OW71877  13.959   4.657   1.010
56682SOL    HW171878  13.875   4.692   0.982
56682SOL    HW271879  13.944   4.627   1.100
56683SOL     OW71880   0.411   1.184   8.135
56683SOL    HW171881   0.393   1.275   8.111
56683SOL    HW271882   0.449   1.145   8.057
56684SOL     OW71883  11.640   0.802   6.857
56684SOL    HW171884  11.591   0.873   6.815
56684SOL    HW271885  11.580   0.728   6.854
56685SOL     OW71886   0.049   4.509  11.704
56685SOL    HW171887   0.015   4.561  11.632
56685SOL    HW271888  14.851   4.510  11.770
56686SOL     OW71889   8.869  12.760   3.804
56686SOL    HW171890   8.963  12.758   3.822
56686SOL    HW271891   8.831  12.797   3.884
56687SOL     OW71892   0.526  14.467   4.467
56687SOL    HW171893   0.445  14.423   4.439
56687SOL    HW271894   0.547  14.425   4.551
56688SOL     OW71895   4.758   4.139   2.438
56688SOL    HW171896   4.735   4.195   2.511
56688SOL    HW271897   4.673   4.107   2.405
56689SOL     OW71898   3.065   4.042   5.156
56689SOL    HW171899   2.985   4.088   5.182
56689SOL    HW271900   3.124   4.052   5.231
56690SOL     OW71901   7.394   0.570   1.769
56690SOL    HW171902   7.396   0.642   1.706
56690SOL    HW271903   7.313   0.584   1.819
56691SOL     OW71904   4.663   1.836  12.287
56691SOL    HW171905   4.693   1.761  12.236
56691SOL    HW271906   4.583   1.805  12.330
56692SOL     OW71907  12.247   6.277   3.028
56692SOL    HW171908  12.268   6.295   2.937
56692SOL    HW271909  12.313   6.213   3.056
56693SOL     OW71910   2.615   9.576   8.020
56693SOL    HW171911   2.630   9.485   8.046
56693SOL    HW271912   2.657   9.629   8.088
56694SOL     OW71913   4.606   7.658   7.359
56694SOL    HW171914   4.558   7.717   7.416
56694SOL    HW271915   4.697   7.668   7.386
56695SOL     OW71916   2.530   9.234   6.111
56695SOL    HW171917   2.450   9.285   6.112
56695SOL    HW271918   2.596   9.293   6.074
56696SOL     OW71919   3.587  10.522   3.148
56696SOL    HW171920   3.648  10.514   3.221
56696SOL    HW271921   3.571  10.431   3.120
56697SOL     OW71922   8.787   3.041   0.716
56697SOL    HW171923   8.870   2.997   0.699
56697SOL    HW271924   8.755   3.065   0.629
56698SOL     OW71925  13.165   2.498  12.114
56698SOL    HW171926  13.239   2.538  12.069
56698SOL    HW271927  13.174   2.524  12.205
56699SOL     OW71928   3.904  10.138   1.038
56699SOL    HW171929   3.916  10.208   1.102
56699SOL    HW271930   3.944  10.172   0.958
56700SOL     OW71931   7.104   1.842   6.657
56700SOL    HW171932   7.171   1.833   6.725
56700SOL    HW271933   7.067   1.754   6.647
56701SOL     OW71934  12.216   8.513  10.677
56701SOL    HW171935  12.172   8.542  10.597
56701SOL    HW271936  12.241   8.422  10.658
56702SOL     OW71937   2.515  12.987   6.202
56702SOL    HW171938   2.477  12.971   6.116
56702SOL    HW271939   2.456  12.942   6.263
56703SOL     OW71940  14.208   1.543   0.577
56703SOL    HW171941  14.129   1.533   0.631
56703SOL    HW271942  14.276   1.495   0.624
56704SOL     OW71943   5.438  10.306   7.175
56704SOL    HW171944   5.430  10.386   7.227
56704SOL    HW271945   5.462  10.336   7.087
56705SOL     OW71946  12.746   5.873   8.036
56705SOL    HW171947  12.685   5.897   8.106
56705SOL    HW271948  12.710   5.792   8.000
56706SOL     OW71949  13.460   3.727  10.044
56706SOL    HW171950  13.469   3.761  10.133
56706SOL    HW271951  13.382   3.672  10.047
56707SOL     OW71952   7.105   9.882   9.389
56707SOL    HW171953   7.127   9.795   9.423
56707SOL    HW271954   7.189   9.923   9.371
56708SOL     OW71955  12.800   6.157   1.454
56708SOL    HW171956  12.707   6.181   1.458
56708SOL    HW271957  12.809   6.113   1.369
56709SOL     OW71958   0.903   6.453   3.623
56709SOL    HW171959   0.818   6.467   3.581
56709SOL    HW271960   0.941   6.540   3.630
56710SOL     OW71961  12.353   0.075   2.337
56710SOL    HW171962  12.257   0.075   2.332
56710SOL    HW271963  12.374   0.001   2.394
56711SOL     OW71964  11.617   1.484   5.198
56711SOL    HW171965  11.636   1.424   5.125
56711SOL    HW271966  11.522   1.482   5.207
56712SOL     OW71967   9.677   0.792   2.453
56712SOL    HW171968   9.600   0.821   2.503
56712SOL    HW271969   9.707   0.714   2.499
56713SOL     OW71970   8.797   4.109  14.371
56713SOL    HW171971   8.724   4.139  14.317
56713SOL    HW271972   8.843   4.045  14.316
56714SOL     OW71973  10.330  12.236   5.924
56714SOL    HW171974  10.344  12.292   5.847
56714SOL    HW271975  10.384  12.275   5.992
56715SOL     OW71976   6.405   5.411   6.045
56715SOL    HW171977   6.471   5.342   6.058
56715SOL    HW271978   6.449   5.491   6.072
56716SOL     OW71979  11.743   1.054   7.227
56716SOL    HW171980  11.798   1.022   7.156
56716SOL    HW271981  11.701   0.976   7.263
56717SOL     OW71982   1.801   7.664   4.751
56717SOL    HW171983   1.802   7.686   4.845
56717SOL    HW271984   1.824   7.746   4.707
56718SOL     OW71985   8.630  13.957  11.016
56718SOL    HW171986   8.701  13.947  10.953
56718SOL    HW271987   8.550  13.944  10.964
56719SOL     OW71988   0.012  10.592  10.582
56719SOL    HW171989   0.102  10.598  10.550
56719SOL    HW271990  14.832  10.586  10.502
56720SOL     OW71991  12.582  12.624   1.959
56720SOL    HW171992  12.665  12.671   1.968
56720SOL    HW271993  12.530  12.679   1.901
56721SOL     OW71994   4.070   5.427  14.020
56721SOL    HW171995   3.977   5.417  13.997
56721SOL    HW271996   4.095   5.342  14.055
56722SOL     OW71997  12.795   6.080   6.115
56722SOL    HW171998  12.794   6.123   6.200
56722SOL    HW271999  12.761   6.145   6.054
56723SOL     OW72000   7.921  11.262   3.809
56723SOL    HW172001   7.939  11.171   3.835
56723SOL    HW272002   7.948  11.266   3.717
56724SOL     OW72003   0.764   1.744  13.724
56724SOL    HW172004   0.701   1.812  13.702
56724SOL    HW272005   0.810   1.778  13.801
56725SOL     OW72006   7.867   2.251   5.168
56725SOL    HW172007   7.931   2.263   5.238
56725SOL    HW272008   7.789   2.296   5.199
56726SOL     OW72009  10.938  12.797  13.933
56726SOL    HW172010  10.935  12.891  13.952
56726SOL    HW272011  11.028  12.771  13.954
56727SOL     OW72012  14.547   2.177   8.798
56727SOL    HW172013  14.606   2.103   8.808
56727SOL    HW272014  14.495   2.157   8.721
56728SOL     OW72015   4.107   2.454   8.836
56728SOL    HW172016   4.195   2.492   8.837
56728SOL    HW272017   4.080   2.453   8.928
56729SOL     OW72018  11.690   7.072  13.461
56729SOL    HW172019  11.645   7.025  13.391
56729SOL    HW272020  11.630   7.143  13.484
56730SOL     OW72021   0.684  10.660  12.836
56730SOL    HW172022   0.633  10.741  12.840
56730SOL    HW272023   0.660  10.613  12.916
56731SOL     OW72024  11.427   5.183   0.820
56731SOL    HW172025  11.522   5.188   0.810
56731SOL    HW272026  11.396   5.271   0.800
56732SOL     OW72027   3.625   3.544   0.121
56732SOL    HW172028   3.567   3.620   0.123
56732SOL    HW272029   3.712   3.581   0.107
56733SOL     OW72030  12.794   2.539  12.215
56733SOL    HW172031  12.719   2.597  12.210
56733SOL    HW272032  12.853   2.581  12.277
56734SOL     OW72033   7.618  13.269   4.708
56734SOL    HW172034   7.653  13.355   4.687
56734SOL    HW272035   7.566  13.244   4.632
56735SOL     OW72036  13.753  12.004   0.399
56735SOL    HW172037  13.693  11.931   0.385
56735SOL    HW272038  13.697  12.075   0.429
56736SOL     OW72039  10.007  12.579  11.879
56736SOL    HW172040   9.951  12.574  11.802
56736SOL    HW272041   9.996  12.669  11.910
56737SOL     OW72042   2.438  14.362   1.368
56737SOL    HW172043   2.406  14.276   1.397
56737SOL    HW272044   2.488  14.344   1.289
56738SOL     OW72045   4.877  10.231   2.702
56738SOL    HW172046   4.953  10.223   2.760
56738SOL    HW272047   4.818  10.290   2.749
56739SOL     OW72048   7.511   1.417   1.032
56739SOL    HW172049   7.597   1.448   1.006
56739SOL    HW272050   7.481   1.365   0.958
56740SOL     OW72051  11.436   1.441   4.910
56740SOL    HW172052  11.426   1.535   4.896
56740SOL    HW272053  11.347   1.406   4.904
56741SOL     OW72054  11.287   9.324  13.173
56741SOL    HW172055  11.234   9.245  13.183
56741SOL    HW272056  11.361   9.311  13.233
56742SOL     OW72057  14.816   0.326   4.884
56742SOL    HW172058  14.853   0.413   4.873
56742SOL    HW272059  14.866   0.271   4.824
56743SOL     OW72060  11.509   6.351   9.132
56743SOL    HW172061  11.498   6.278   9.071
56743SOL    HW272062  11.434   6.408   9.115
56744SOL     OW72063  12.975   4.747   3.521
56744SOL    HW172064  13.008   4.745   3.432
56744SOL    HW272065  12.963   4.840   3.541
56745SOL     OW72066   1.636   5.080   9.600
56745SOL    HW172067   1.660   5.068   9.508
56745SOL    HW272068   1.642   5.175   9.613
56746SOL     OW72069   6.509  10.795  10.950
56746SOL    HW172070   6.566  10.844  11.009
56746SOL    HW272071   6.424  10.839  10.957
56747SOL     OW72072   4.776   3.703   4.952
56747SOL    HW172073   4.838   3.746   4.893
56747SOL    HW272074   4.817   3.618   4.971
56748SOL     OW72075   2.244  11.445  14.132
56748SOL    HW172076   2.265  11.386  14.059
56748SOL    HW272077   2.149  11.455  14.128
56749SOL     OW72078   7.850   7.109   0.204
56749SOL    HW172079   7.919   7.131   0.141
56749SOL    HW272080   7.889   7.123   0.290
56750SOL     OW72081   3.164   6.883   3.566
56750SOL    HW172082   3.152   6.792   3.591
56750SOL    HW272083   3.236   6.881   3.503
56751SOL     OW72084   9.391  12.686   9.505
56751SOL    HW172085   9.422  12.777   9.511
56751SOL    HW272086   9.338  12.674   9.584
56752SOL     OW72087  10.114   5.926  13.337
56752SOL    HW172088  10.198   5.965  13.313
56752SOL    HW272089  10.076   5.987  13.399
56753SOL     OW72090  11.202  11.052  14.372
56753SOL    HW172091  11.133  11.076  14.310
56753SOL    HW272092  11.237  10.970  14.338
56754SOL     OW72093   9.069   2.813   2.222
56754SOL    HW172094   9.165   2.808   2.217
56754SOL    HW272095   9.052   2.885   2.282
56755SOL     OW72096   9.812   0.869   0.833
56755SOL    HW172097   9.871   0.936   0.868
56755SOL    HW272098   9.751   0.851   0.904
56756SOL     OW72099  13.176   4.127  11.688
56756SOL    HW172100  13.132   4.066  11.747
56756SOL    HW272101  13.154   4.214  11.722
56757SOL     OW72102   8.946   8.360   0.890
56757SOL    HW172103   8.932   8.428   0.956
56757SOL    HW272104   9.008   8.399   0.828
56758SOL     OW72105   0.221  10.974  10.555
56758SOL    HW172106   0.206  11.008  10.467
56758SOL    HW272107   0.284  11.035  10.594
56759SOL     OW72108   9.837   7.383   0.384
56759SOL    HW172109   9.795   7.466   0.364
56759SOL    HW272110   9.902   7.371   0.315
56760SOL     OW72111  13.184   4.789  10.729
56760SOL    HW172112  13.132   4.822  10.802
56760SOL    HW272113  13.275   4.800  10.758
56761SOL     OW72114  10.277   0.118   8.020
56761SOL    HW172115  10.297   0.181   8.089
56761SOL    HW272116  10.214   0.163   7.964
56762SOL     OW72117  12.126   1.810   1.026
56762SOL    HW172118  12.157   1.756   1.099
56762SOL    HW272119  12.047   1.766   0.995
56763SOL     OW72120  12.346   8.856   5.571
56763SOL    HW172121  12.275   8.808   5.527
56763SOL    HW272122  12.416   8.791   5.582
56764SOL     OW72123   6.556  12.697  13.731
56764SOL    HW172124   6.496  12.706  13.657
56764SOL    HW272125   6.500  12.679  13.806
56765SOL     OW72126  11.831  14.266   8.111
56765SOL    HW172127  11.852  14.322   8.186
56765SOL    HW272128  11.740  14.286   8.090
56766SOL     OW72129   5.744   4.266   5.848
56766SOL    HW172130   5.789   4.336   5.800
56766SOL    HW272131   5.815   4.218   5.892
56767SOL     OW72132   6.524  10.590   9.836
56767SOL    HW172133   6.481  10.532   9.899
56767SOL    HW272134   6.614  10.558   9.832
56768SOL     OW72135   4.968  10.242   7.061
56768SOL    HW172136   4.926  10.157   7.057
56768SOL    HW272137   4.927  10.286   7.136
56769SOL     OW72138   9.344  11.273   2.550
56769SOL    HW172139   9.356  11.259   2.457
56769SOL    HW272140   9.360  11.188   2.590
56770SOL     OW72141   9.144   1.344  10.187
56770SOL    HW172142   9.153   1.301  10.272
56770SOL    HW272143   9.150   1.438  10.208
56771SOL     OW72144   7.617  12.843   6.976
56771SOL    HW172145   7.534  12.844   7.024
56771SOL    HW272146   7.610  12.766   6.919
56772SOL     OW72147   7.879  12.821   4.520
56772SOL    HW172148   7.880  12.752   4.453
56772SOL    HW272149   7.941  12.791   4.586
56773SOL     OW72150   5.772   7.756   3.848
56773SOL    HW172151   5.856   7.799   3.832
56773SOL    HW272152   5.794   7.665   3.866
56774SOL     OW72153   9.003  11.871  14.777
56774SOL    HW172154   8.937  11.887  14.709
56774SOL    HW272155   9.086  11.895  14.736
56775SOL     OW72156  13.530  12.175  11.729
56775SOL    HW172157  13.548  12.200  11.638
56775SOL    HW272158  13.615  12.148  11.763
56776SOL     OW72159   3.680   6.659  12.112
56776SOL    HW172160   3.701   6.667  12.019
56776SOL    HW272161   3.667   6.749  12.141
56777SOL     OW72162   0.924   2.970   2.127
56777SOL    HW172163   0.917   2.937   2.217
56777SOL    HW272164   0.847   3.026   2.116
56778SOL     OW72165   1.355  13.274   0.063
56778SOL    HW172166   1.409  13.315   0.131
56778SOL    HW272167   1.280  13.238   0.110
56779SOL     OW72168   4.183  12.267   3.133
56779SOL    HW172169   4.233  12.303   3.061
56779SOL    HW272170   4.099  12.243   3.094
56780SOL     OW72171   1.793   3.633   7.620
56780SOL    HW172172   1.812   3.641   7.527
56780SOL    HW272173   1.743   3.712   7.641
56781SOL     OW72174  11.216  10.128  10.863
56781SOL    HW172175  11.310  10.138  10.876
56781SOL    HW272176  11.206  10.037  10.833
56782SOL     OW72177   5.508  13.395  12.402
56782SOL    HW172178   5.562  13.449  12.345
56782SOL    HW272179   5.570  13.340  12.450
56783SOL     OW72180  14.047   7.932  11.799
56783SOL    HW172181  14.025   8.025  11.794
56783SOL    HW272182  14.108   7.925  11.873
56784SOL     OW72183   6.288  11.610  12.949
56784SOL    HW172184   6.364  11.668  12.943
56784SOL    HW272185   6.216  11.666  12.978
56785SOL     OW72186   1.754   2.108  14.825
56785SOL    HW172187   1.728   2.197  14.799
56785SOL    HW272188   1.672   2.060  14.833
56786SOL     OW72189   9.668   4.123  12.292
56786SOL    HW172190   9.676   4.115  12.197
56786SOL    HW272191   9.731   4.061  12.327
56787SOL     OW72192   6.809  11.425   2.763
56787SOL    HW172193   6.783  11.346   2.717
56787SOL    HW272194   6.734  11.484   2.753
56788SOL     OW72195  14.014   3.787   1.019
56788SOL    HW172196  14.062   3.825   0.945
56788SOL    HW272197  14.069   3.807   1.095
56789SOL     OW72198   0.735  11.198   1.172
56789SOL    HW172199   0.732  11.293   1.180
56789SOL    HW272200   0.780  11.168   1.251
56790SOL     OW72201  11.863   8.165   2.114
56790SOL    HW172202  11.838   8.257   2.120
56790SOL    HW272203  11.881   8.138   2.204
56791SOL     OW72204  10.502  13.982  13.892
56791SOL    HW172205  10.559  13.925  13.840
56791SOL    HW272206  10.466  14.043  13.828
56792SOL     OW72207  11.928   5.303   8.672
56792SOL    HW172208  11.985   5.268   8.739
56792SOL    HW272209  11.987   5.348   8.611
56793SOL     OW72210   8.675   5.924   3.911
56793SOL    HW172211   8.627   5.970   3.979
56793SOL    HW272212   8.618   5.927   3.834
56794SOL     OW72213   2.410  10.840   9.362
56794SOL    HW172214   2.399  10.926   9.403
56794SOL    HW272215   2.498  10.844   9.324
56795SOL     OW72216   7.108  10.605   8.211
56795SOL    HW172217   7.109  10.688   8.164
56795SOL    HW272218   7.200  10.582   8.222
56796SOL     OW72219   1.599  10.594   9.208
56796SOL    HW172220   1.642  10.680   9.207
56796SOL    HW272221   1.514  10.611   9.249
56797SOL     OW72222   2.173   8.317   5.214
56797SOL    HW172223   2.222   8.381   5.266
56797SOL    HW272224   2.184   8.347   5.124
56798SOL     OW72225   4.238  14.336   9.700
56798SOL    HW172226   4.237  14.429   9.723
56798SOL    HW272227   4.183  14.295   9.767
56799SOL     OW72228   3.712   2.954  14.671
56799SOL    HW172229   3.622   2.987  14.678
56799SOL    HW272230   3.757   2.992  14.747
56800SOL     OW72231   3.962   9.068  13.094
56800SOL    HW172232   3.962   9.005  13.166
56800SOL    HW272233   4.032   9.038  13.036
56801SOL     OW72234   6.383  13.304   7.733
56801SOL    HW172235   6.353  13.217   7.759
56801SOL    HW272236   6.340  13.364   7.794
56802SOL     OW72237  10.781   1.046   0.640
56802SOL    HW172238  10.817   0.969   0.595
56802SOL    HW272239  10.689   1.048   0.614
56803SOL     OW72240  10.397  14.551   8.022
56803SOL    HW172241  10.331  14.556   8.091
56803SOL    HW272242  10.451  14.476   8.045
56804SOL     OW72243   0.589   7.371  13.468
56804SOL    HW172244   0.607   7.392  13.559
56804SOL    HW272245   0.571   7.277  13.467
56805SOL     OW72246   8.681   3.926  10.508
56805SOL    HW172247   8.775   3.926  10.526
56805SOL    HW272248   8.668   4.001  10.450
56806SOL     OW72249  13.239  14.190  13.211
56806SOL    HW172250  13.233  14.219  13.120
56806SOL    HW272251  13.288  14.108  13.207
56807SOL     OW72252   2.442   8.526   0.053
56807SOL    HW172253   2.416   8.604   0.102
56807SOL    HW272254   2.509   8.485   0.107
56808SOL     OW72255   8.466   8.076  13.375
56808SOL    HW172256   8.525   8.027  13.318
56808SOL    HW272257   8.384   8.083  13.326
56809SOL     OW72258   4.467   0.757   0.788
56809SOL    HW172259   4.515   0.708   0.722
56809SOL    HW272260   4.496   0.721   0.872
56810SOL     OW72261  10.024   2.564  12.219
56810SOL    HW172262  10.002   2.471  12.219
56810SOL    HW272263  10.085   2.575  12.291
56811SOL     OW72264  14.427   6.144  14.292
56811SOL    HW172265  14.385   6.183  14.215
56811SOL    HW272266  14.370   6.169  14.365
56812SOL     OW72267   3.296  10.906  12.211
56812SOL    HW172268   3.266  10.837  12.151
56812SOL    HW272269   3.362  10.863  12.265
56813SOL     OW72270   6.071   4.946   6.113
56813SOL    HW172271   6.115   4.891   6.178
56813SOL    HW272272   6.140   5.000   6.076
56814SOL     OW72273  13.424   1.551   5.419
56814SOL    HW172274  13.459   1.603   5.347
56814SOL    HW272275  13.329   1.554   5.408
56815SOL     OW72276   4.829   4.914  14.758
56815SOL    HW172277   4.864   4.859  14.827
56815SOL    HW272278   4.739   4.883  14.746
56816SOL     OW72279   2.482  10.117   1.426
56816SOL    HW172280   2.559  10.165   1.457
56816SOL    HW272281   2.427  10.183   1.384
56817SOL     OW72282  13.815  11.141   7.159
56817SOL    HW172283  13.738  11.114   7.110
56817SOL    HW272284  13.870  11.187   7.096
56818SOL     OW72285   4.155   9.553   4.557
56818SOL    HW172286   4.082   9.556   4.495
56818SOL    HW272287   4.179   9.645   4.571
56819SOL     OW72288   4.695   1.229  14.147
56819SOL    HW172289   4.650   1.240  14.231
56819SOL    HW272290   4.626   1.238  14.081
56820SOL     OW72291   4.624   5.138  11.229
56820SOL    HW172292   4.686   5.091  11.284
56820SOL    HW272293   4.658   5.228  11.225
56821SOL     OW72294   6.519  13.619  13.787
56821SOL    HW172295   6.429  13.589  13.777
56821SOL    HW272296   6.572  13.547  13.755
56822SOL     OW72297   4.768  13.236  13.476
56822SOL    HW172298   4.762  13.266  13.567
56822SOL    HW272299   4.859  13.206  13.467
56823SOL     OW72300   2.811   1.274   3.328
56823SOL    HW172301   2.783   1.365   3.334
56823SOL    HW272302   2.791   1.248   3.238
56824SOL     OW72303   8.714   9.644   3.411
56824SOL    HW172304   8.758   9.728   3.401
56824SOL    HW272305   8.685   9.621   3.323
56825SOL     OW72306   2.704   5.375  14.478
56825SOL    HW172307   2.779   5.333  14.437
56825SOL    HW272308   2.665   5.428  14.409
56826SOL     OW72309   2.688   5.468  12.152
56826SOL    HW172310   2.768   5.440  12.107
56826SOL    HW272311   2.621   5.467  12.084
56827SOL     OW72312   3.072  11.253   2.509
56827SOL    HW172313   3.050  11.259   2.416
56827SOL    HW272314   3.025  11.176   2.540
56828SOL     OW72315  12.569  10.777   7.687
56828SOL    HW172316  12.599  10.822   7.766
56828SOL    HW272317  12.645  10.729   7.657
56829SOL     OW72318  13.920   5.909   6.618
56829SOL    HW172319  13.869   5.864   6.550
56829SOL    HW272320  13.860   5.913   6.693
56830SOL     OW72321   0.838  11.123   6.182
56830SOL    HW172322   0.915  11.181   6.177
56830SOL    HW272323   0.764  11.183   6.186
56831SOL     OW72324   5.839   0.373   2.924
56831SOL    HW172325   5.811   0.356   2.834
56831SOL    HW272326   5.848   0.286   2.963
56832SOL     OW72327  14.083  14.350   2.314
56832SOL    HW172328  14.046  14.422   2.364
56832SOL    HW272329  14.158  14.389   2.268
56833SOL     OW72330   5.318  10.388  13.233
56833SOL    HW172331   5.348  10.457  13.292
56833SOL    HW272332   5.367  10.310  13.260
56834SOL     OW72333  13.703  13.820  11.242
56834SOL    HW172334  13.692  13.785  11.330
56834SOL    HW272335  13.613  13.829  11.209
56835SOL     OW72336   0.332   6.464   4.711
56835SOL    HW172337   0.409   6.413   4.735
56835SOL    HW272338   0.289   6.411   4.644
56836SOL     OW72339   0.607   6.442   7.350
56836SOL    HW172340   0.606   6.524   7.300
56836SOL    HW272341   0.592   6.374   7.285
56837SOL     OW72342   3.543   3.700   6.811
56837SOL    HW172343   3.461   3.699   6.761
56837SOL    HW272344   3.533   3.631   6.876
56838SOL     OW72345  12.543   1.173  13.445
56838SOL    HW172346  12.593   1.240  13.398
56838SOL    HW272347  12.504   1.220  13.519
56839SOL     OW72348   1.125  13.750   5.911
56839SOL    HW172349   1.165  13.827   5.952
56839SOL    HW272350   1.150  13.756   5.819
56840SOL     OW72351   4.437  12.111   6.755
56840SOL    HW172352   4.512  12.051   6.755
56840SOL    HW272353   4.458  12.176   6.822
56841SOL     OW72354  10.264   3.519   6.690
56841SOL    HW172355  10.296   3.608   6.681
56841SOL    HW272356  10.243   3.510   6.784
56842SOL     OW72357   5.523   9.580   6.635
56842SOL    HW172358   5.458   9.544   6.574
56842SOL    HW272359   5.592   9.513   6.639
56843SOL     OW72360   4.758   5.318   4.275
56843SOL    HW172361   4.770   5.247   4.338
56843SOL    HW272362   4.838   5.319   4.223
56844SOL     OW72363   5.945  13.877   3.513
56844SOL    HW172364   5.891  13.799   3.523
56844SOL    HW272365   5.902  13.943   3.567
56845SOL     OW72366   5.274   3.698   8.553
56845SOL    HW172367   5.291   3.778   8.504
56845SOL    HW272368   5.201   3.657   8.507
56846SOL     OW72369   5.482  13.504  11.912
56846SOL    HW172370   5.484  13.590  11.953
56846SOL    HW272371   5.390  13.492  11.887
56847SOL     OW72372   5.743   7.261   8.146
56847SOL    HW172373   5.659   7.278   8.104
56847SOL    HW272374   5.734   7.173   8.183
56848SOL     OW72375   5.868   4.456   4.000
56848SOL    HW172376   5.906   4.471   3.913
56848SOL    HW272377   5.805   4.527   4.011
56849SOL     OW72378   8.696   9.740   5.122
56849SOL    HW172379   8.627   9.734   5.056
56849SOL    HW272380   8.715   9.650   5.147
56850SOL     OW72381  13.526   7.787  10.492
56850SOL    HW172382  13.519   7.711  10.434
56850SOL    HW272383  13.436   7.818  10.501
56851SOL     OW72384  14.330   5.271  14.282
56851SOL    HW172385  14.315   5.245  14.191
56851SOL    HW272386  14.262   5.335  14.300
56852SOL     OW72387   7.992  11.188  12.362
56852SOL    HW172388   8.057  11.197  12.292
56852SOL    HW272389   7.915  11.153  12.318
56853SOL     OW72390   0.010   6.969  10.137
56853SOL    HW172391   0.068   6.968  10.061
56853SOL    HW272392   0.067   6.993  10.210
56854SOL     OW72393   7.144   6.761   8.857
56854SOL    HW172394   7.067   6.749   8.802
56854SOL    HW272395   7.115   6.737   8.945
56855SOL     OW72396   4.868   7.979   3.927
56855SOL    HW172397   4.785   8.005   3.886
56855SOL    HW272398   4.886   8.049   3.990
56856SOL     OW72399   9.592   8.217  11.407
56856SOL    HW172400   9.676   8.234  11.364
56856SOL    HW272401   9.574   8.125  11.391
56857SOL     OW72402  14.576   2.160   8.341
56857SOL    HW172403  14.524   2.143   8.262
56857SOL    HW272404  14.537   2.104   8.408
56858SOL     OW72405  13.087   5.900   4.925
56858SOL    HW172406  13.050   5.988   4.921
56858SOL    HW272407  13.085   5.877   5.018
56859SOL     OW72408   8.875   2.187   4.698
56859SOL    HW172409   8.923   2.168   4.618
56859SOL    HW272410   8.785   2.160   4.679
56860SOL     OW72411   4.598  11.657  11.719
56860SOL    HW172412   4.671  11.702  11.761
56860SOL    HW272413   4.528  11.659  11.785
56861SOL     OW72414   1.085   9.603   1.014
56861SOL    HW172415   1.069   9.526   0.960
56861SOL    HW272416   1.158   9.578   1.070
56862SOL     OW72417  10.217  10.488   3.865
56862SOL    HW172418  10.222  10.454   3.775
56862SOL    HW272419  10.250  10.416   3.919
56863SOL     OW72420   1.889  10.293   3.937
56863SOL    HW172421   1.926  10.375   3.970
56863SOL    HW272422   1.831  10.320   3.865
56864SOL     OW72423   0.140   5.813   1.676
56864SOL    HW172424   0.184   5.791   1.594
56864SOL    HW272425   0.148   5.734   1.730
56865SOL     OW72426   0.428   3.297   8.801
56865SOL    HW172427   0.379   3.335   8.874
56865SOL    HW272428   0.364   3.293   8.730
56866SOL     OW72429   2.273   4.636   7.054
56866SOL    HW172430   2.192   4.655   7.006
56866SOL    HW272431   2.334   4.606   6.988
56867SOL     OW72432  13.228   3.369   5.535
56867SOL    HW172433  13.227   3.408   5.447
56867SOL    HW272434  13.274   3.433   5.589
56868SOL     OW72435   3.476   6.705   8.274
56868SOL    HW172436   3.427   6.724   8.353
56868SOL    HW272437   3.491   6.610   8.277
56869SOL     OW72438   3.480   8.999   6.179
56869SOL    HW172439   3.443   8.912   6.164
56869SOL    HW272440   3.509   8.997   6.270
56870SOL     OW72441  12.094   7.626   6.384
56870SOL    HW172442  12.128   7.588   6.465
56870SOL    HW272443  12.005   7.653   6.406
56871SOL     OW72444   7.634   4.875  10.745
56871SOL    HW172445   7.691   4.903  10.817
56871SOL    HW272446   7.636   4.779  10.750
56872SOL     OW72447   3.816   1.111   1.155
56872SOL    HW172448   3.869   1.042   1.194
56872SOL    HW272449   3.863   1.192   1.174
56873SOL     OW72450   7.344   5.849  11.029
56873SOL    HW172451   7.350   5.934  10.986
56873SOL    HW272452   7.303   5.867  11.113
56874SOL     OW72453  13.210   8.719   3.325
56874SOL    HW172454  13.235   8.748   3.413
56874SOL    HW272455  13.159   8.791   3.289
56875SOL     OW72456  10.376   0.582   9.273
56875SOL    HW172457  10.412   0.514   9.216
56875SOL    HW272458  10.384   0.546   9.361
56876SOL     OW72459  12.194  10.788   4.717
56876SOL    HW172460  12.221  10.859   4.777
56876SOL    HW272461  12.118  10.749   4.759
56877SOL     OW72462   1.262   1.064  13.306
56877SOL    HW172463   1.208   1.130  13.263
56877SOL    HW272464   1.346   1.068  13.259
56878SOL     OW72465   5.522   0.393   4.276
56878SOL    HW172466   5.522   0.361   4.366
56878SOL    HW272467   5.450   0.344   4.234
56879SOL     OW72468   1.556   5.410   5.001
56879SOL    HW172469   1.522   5.485   4.954
56879SOL    HW272470   1.646   5.434   5.024
56880SOL     OW72471   7.135  12.538  13.961
56880SOL    HW172472   7.043  12.513  13.961
56880SOL    HW272473   7.137  12.622  13.915
56881SOL     OW72474  11.248   2.529   7.081
56881SOL    HW172475  11.181   2.558   7.143
56881SOL    HW272476  11.215   2.447   7.046
56882SOL     OW72477  10.130   1.593  10.445
56882SOL    HW172478  10.116   1.538  10.368
56882SOL    HW272479  10.224   1.609  10.446
56883SOL     OW72480   8.947   4.869   4.995
56883SOL    HW172481   8.977   4.885   5.084
56883SOL    HW272482   8.854   4.852   5.003
56884SOL     OW72483   7.347  11.447  13.639
56884SOL    HW172484   7.379  11.374  13.692
56884SOL    HW272485   7.424  11.501  13.625
56885SOL     OW72486  13.042   3.230  10.936
56885SOL    HW172487  12.996   3.256  10.856
56885SOL    HW272488  13.114   3.175  10.905
56886SOL     OW72489   0.543  13.212   9.066
56886SOL    HW172490   0.624  13.248   9.031
56886SOL    HW272491   0.564  13.121   9.085
56887SOL     OW72492   0.001   8.154  10.941
56887SOL    HW172493   0.022   8.160  11.035
56887SOL    HW272494  14.865   8.245  10.913
56888SOL     OW72495  12.483  10.455   8.262
56888SOL    HW172496  12.554  10.443   8.199
56888SOL    HW272497  12.511  10.407   8.339
56889SOL     OW72498   0.332   7.933   8.035
56889SOL    HW172499   0.412   7.985   8.041
56889SOL    HW272500   0.359   7.844   8.059
56890SOL     OW72501   8.878   5.049   6.017
56890SOL    HW172502   8.853   5.057   6.109
56890SOL    HW272503   8.960   5.000   6.018
56891SOL     OW72504   9.949  14.541   5.061
56891SOL    HW172505   9.868  14.582   5.090
56891SOL    HW272506   9.922  14.481   4.991
56892SOL     OW72507   7.558   6.476  10.860
56892SOL    HW172508   7.588   6.396  10.816
56892SOL    HW272509   7.482   6.448  10.912
56893SOL     OW72510   0.190   7.509  11.244
56893SOL    HW172511   0.136   7.470  11.314
56893SOL    HW272512   0.216   7.594  11.279
56894SOL     OW72513  10.295   8.731   6.656
56894SOL    HW172514  10.220   8.788   6.637
56894SOL    HW272515  10.364   8.790   6.686
56895SOL     OW72516  10.982  12.025   9.633
56895SOL    HW172517  11.034  12.079   9.573
56895SOL    HW272518  10.893  12.061   9.627
56896SOL     OW72519  11.433  10.597  13.926
56896SOL    HW172520  11.394  10.684  13.920
56896SOL    HW272521  11.446  10.583  14.019
56897SOL     OW72522   9.822   7.396   6.330
56897SOL    HW172523   9.795   7.338   6.259
56897SOL    HW272524   9.847   7.478   6.287
56898SOL     OW72525   5.330  14.451   1.126
56898SOL    HW172526   5.282  14.484   1.050
56898SOL    HW272527   5.385  14.380   1.092
56899SOL     OW72528   8.447   3.929  14.740
56899SOL    HW172529   8.510   3.968  14.801
56899SOL    HW272530   8.407   4.003  14.696
56900SOL     OW72531   6.742  11.764  10.682
56900SOL    HW172532   6.786  11.685  10.713
56900SOL    HW272533   6.700  11.800  10.760
56901SOL     OW72534   2.886  13.493   6.476
56901SOL    HW172535   2.975  13.529   6.480
56901SOL    HW272536   2.896  13.412   6.427
56902SOL     OW72537   6.007   4.363   0.080
56902SOL    HW172538   6.081   4.347   0.137
56902SOL    HW272539   6.015   4.297   0.011
56903SOL     OW72540  13.529   3.888   9.836
56903SOL    HW172541  13.559   3.821   9.774
56903SOL    HW272542  13.530   3.844   9.921
56904SOL     OW72543  11.918   7.834  13.178
56904SOL    HW172544  11.871   7.760  13.138
56904SOL    HW272545  11.874   7.847  13.262
56905SOL     OW72546  13.988   1.996  10.136
56905SOL    HW172547  13.934   1.956  10.204
56905SOL    HW272548  14.003   2.085  10.167
56906SOL     OW72549   6.784   2.661  10.875
56906SOL    HW172550   6.698   2.619  10.884
56906SOL    HW272551   6.780   2.706  10.790
56907SOL     OW72552  14.326   9.072   6.038
56907SOL    HW172553  14.346   9.007   5.971
56907SOL    HW272554  14.238   9.103   6.016
56908SOL     OW72555  14.027   8.274   7.249
56908SOL    HW172556  14.059   8.264   7.159
56908SOL    HW272557  14.012   8.184   7.280
56909SOL     OW72558   1.982   1.112   9.703
56909SOL    HW172559   2.026   1.166   9.768
56909SOL    HW272560   2.006   1.152   9.619
56910SOL     OW72561  14.333   0.794   9.232
56910SOL    HW172562  14.290   0.745   9.302
56910SOL    HW272563  14.313   0.744   9.153
56911SOL     OW72564   7.447  13.545   8.398
56911SOL    HW172565   7.526  13.520   8.351
56911SOL    HW272566   7.478  13.570   8.485
56912SOL     OW72567   1.953   9.652   1.799
56912SOL    HW172568   2.040   9.616   1.818
56912SOL    HW272569   1.970   9.740   1.766
56913SOL     OW72570  10.326  13.720   2.450
56913SOL    HW172571  10.339  13.815   2.457
56913SOL    HW272572  10.414  13.683   2.454
56914SOL     OW72573   5.712   1.246  13.603
56914SOL    HW172574   5.737   1.163  13.644
56914SOL    HW272575   5.737   1.236  13.511
56915SOL     OW72576   3.767   7.548  14.165
56915SOL    HW172577   3.767   7.518  14.256
56915SOL    HW272578   3.797   7.639  14.170
56916SOL     OW72579  14.089   1.564  10.980
56916SOL    HW172580  14.038   1.609  11.046
56916SOL    HW272581  14.180   1.589  10.997
56917SOL     OW72582   5.956  11.698   0.342
56917SOL    HW172583   6.037  11.700   0.393
56917SOL    HW272584   5.906  11.624   0.378
56918SOL     OW72585  11.735   1.983  14.823
56918SOL    HW172586  11.670   1.917  14.801
56918SOL    HW272587  11.689   2.066  14.812
56919SOL     OW72588   0.128  11.943   4.169
56919SOL    HW172589   0.066  11.978   4.233
56919SOL    HW272590   0.122  12.002   4.094
56920SOL     OW72591   7.233  11.036   0.752
56920SOL    HW172592   7.241  11.131   0.747
56920SOL    HW272593   7.308  11.008   0.805
56921SOL     OW72594   2.749   8.119   7.297
56921SOL    HW172595   2.835   8.100   7.258
56921SOL    HW272596   2.706   8.177   7.234
56922SOL     OW72597   4.831   4.646  14.143
56922SOL    HW172598   4.858   4.710  14.078
56922SOL    HW272599   4.885   4.665  14.220
56923SOL     OW72600   2.471  11.427   9.848
56923SOL    HW172601   2.499  11.505   9.895
56923SOL    HW272602   2.398  11.457   9.793
56924SOL     OW72603   1.420   6.497   8.861
56924SOL    HW172604   1.372   6.423   8.823
56924SOL    HW272605   1.360   6.571   8.853
56925SOL     OW72606   0.646   3.987   1.485
56925SOL    HW172607   0.591   4.033   1.422
56925SOL    HW272608   0.714   3.947   1.431
56926SOL     OW72609   5.741   9.553   3.161
56926SOL    HW172610   5.681   9.479   3.172
56926SOL    HW272611   5.790   9.533   3.081
56927SOL     OW72612   4.845   7.800   4.754
56927SOL    HW172613   4.830   7.731   4.818
56927SOL    HW272614   4.774   7.790   4.691
56928SOL     OW72615   1.679   8.324   6.460
56928SOL    HW172616   1.762   8.287   6.429
56928SOL    HW272617   1.637   8.251   6.505
56929SOL     OW72618  11.884  11.510  13.260
56929SOL    HW172619  11.859  11.601  13.277
56929SOL    HW272620  11.801  11.464  13.254
56930SOL     OW72621   0.639   8.820   8.268
56930SOL    HW172622   0.601   8.739   8.233
56930SOL    HW272623   0.651   8.876   8.191
56931SOL     OW72624   0.240  12.759   4.862
56931SOL    HW172625   0.313  12.703   4.836
56931SOL    HW272626   0.180  12.757   4.788
56932SOL     OW72627   4.500   1.729   9.537
56932SOL    HW172628   4.534   1.798   9.595
56932SOL    HW272629   4.507   1.649   9.590
56933SOL     OW72630  11.160   3.003  14.825
56933SOL    HW172631  11.127   2.983   0.041
56933SOL    HW272632  11.114   2.942  14.768
56934SOL     OW72633   5.853   2.835   1.388
56934SOL    HW172634   5.843   2.918   1.341
56934SOL    HW272635   5.895   2.859   1.471
56935SOL     OW72636  13.827   2.075  13.699
56935SOL    HW172637  13.760   2.118  13.646
56935SOL    HW272638  13.902   2.135  13.697
56936SOL     OW72639   3.277  13.612   3.147
56936SOL    HW172640   3.298  13.548   3.215
56936SOL    HW272641   3.248  13.560   3.072
56937SOL     OW72642  11.259  13.254  13.078
56937SOL    HW172643  11.251  13.258  13.174
56937SOL    HW272644  11.242  13.162  13.056
56938SOL     OW72645  13.326   7.967   4.813
56938SOL    HW172646  13.291   7.893   4.862
56938SOL    HW272647  13.260   7.986   4.746
56939SOL     OW72648  10.386   2.244  11.828
56939SOL    HW172649  10.356   2.335  11.825
56939SOL    HW272650  10.408   2.228  11.920
56940SOL     OW72651  11.779   2.896   1.060
56940SOL    HW172652  11.800   2.905   0.967
56940SOL    HW272653  11.724   2.817   1.064
56941SOL     OW72654  14.247   6.313  10.020
56941SOL    HW172655  14.168   6.269  10.048
56941SOL    HW272656  14.319   6.260  10.055
56942SOL     OW72657   0.322   2.313   2.716
56942SOL    HW172658   0.353   2.389   2.667
56942SOL    HW272659   0.395   2.252   2.715
56943SOL     OW72660   9.393   8.587   3.022
56943SOL    HW172661   9.315   8.554   2.977
56943SOL    HW272662   9.418   8.516   3.081
56944SOL     OW72663  10.625  10.699  10.434
56944SOL    HW172664  10.559  10.710  10.502
56944SOL    HW272665  10.576  10.702  10.352
56945SOL     OW72666   3.983   4.798   5.954
56945SOL    HW172667   3.973   4.766   5.865
56945SOL    HW272668   4.078   4.796   5.971
56946SOL     OW72669   6.273  13.027  11.257
56946SOL    HW172670   6.307  13.087  11.324
56946SOL    HW272671   6.331  13.040  11.182
56947SOL     OW72672   1.033   9.798   6.787
56947SOL    HW172673   1.070   9.775   6.701
56947SOL    HW272674   1.093   9.863   6.822
56948SOL     OW72675   1.932  10.872   7.697
56948SOL    HW172676   1.840  10.895   7.710
56948SOL    HW272677   1.964  10.847   7.784
56949SOL     OW72678  11.174  13.490   9.522
56949SOL    HW172679  11.191  13.584   9.514
56949SOL    HW272680  11.080  13.482   9.506
56950SOL     OW72681   4.801   5.651   6.816
56950SOL    HW172682   4.724   5.621   6.767
56950SOL    HW272683   4.806   5.744   6.797
56951SOL     OW72684   2.636  13.778   6.029
56951SOL    HW172685   2.618  13.687   6.006
56951SOL    HW272686   2.732  13.783   6.033
56952SOL     OW72687  10.403   0.933   3.183
56952SOL    HW172688  10.496   0.948   3.202
56952SOL    HW272689  10.403   0.867   3.114
56953SOL     OW72690  14.310  13.020   9.192
56953SOL    HW172691  14.361  12.951   9.234
56953SOL    HW272692  14.296  13.084   9.261
56954SOL     OW72693  11.816  10.038   0.765
56954SOL    HW172694  11.829   9.966   0.704
56954SOL    HW272695  11.842  10.116   0.716
56955SOL     OW72696  13.054  11.187   2.039
56955SOL    HW172697  13.081  11.142   2.119
56955SOL    HW272698  13.124  11.250   2.022
56956SOL     OW72699  14.057   9.147   3.842
56956SOL    HW172700  14.152   9.133   3.843
56956SOL    HW272701  14.038   9.186   3.928
56957SOL     OW72702  13.714  12.767   5.579
56957SOL    HW172703  13.777  12.814   5.634
56957SOL    HW272704  13.629  12.786   5.619
56958SOL     OW72705  12.198  11.969   5.434
56958SOL    HW172706  12.161  11.881   5.423
56958SOL    HW272707  12.129  12.019   5.477
56959SOL     OW72708   5.889  13.212  13.414
56959SOL    HW172709   5.972  13.180  13.450
56959SOL    HW272710   5.911  13.297  13.376
56960SOL     OW72711  13.072   2.439   5.360
56960SOL    HW172712  13.134   2.370   5.339
56960SOL    HW272713  13.100   2.514   5.308
56961SOL     OW72714   6.446  12.475   5.300
56961SOL    HW172715   6.354  12.500   5.313
56961SOL    HW272716   6.495  12.536   5.354
56962SOL     OW72717   9.555  11.598   7.198
56962SOL    HW172718   9.604  11.552   7.129
56962SOL    HW272719   9.466  11.563   7.191
56963SOL     OW72720   8.304   5.282   1.218
56963SOL    HW172721   8.272   5.353   1.163
56963SOL    HW272722   8.399   5.286   1.208
56964SOL     OW72723   0.761   1.115   6.343
56964SOL    HW172724   0.796   1.095   6.430
56964SOL    HW272725   0.676   1.155   6.361
56965SOL     OW72726   6.566   3.077   4.160
56965SOL    HW172727   6.559   3.014   4.089
56965SOL    HW272728   6.649   3.122   4.145
56966SOL     OW72729  14.536  10.598   1.045
56966SOL    HW172730  14.590  10.591   1.123
56966SOL    HW272731  14.446  10.606   1.078
56967SOL     OW72732   7.514   2.968   9.298
56967SOL    HW172733   7.461   3.014   9.362
56967SOL    HW272734   7.489   3.007   9.214
56968SOL     OW72735   4.673  14.041  13.055
56968SOL    HW172736   4.658  14.121  13.004
56968SOL    HW272737   4.733  14.068  13.125
56969SOL     OW72738  14.042   5.121   6.356
56969SOL    HW172739  14.118   5.084   6.312
56969SOL    HW272740  13.969   5.068   6.327
56970SOL     OW72741   6.558   7.043   6.645
56970SOL    HW172742   6.499   7.111   6.613
56970SOL    HW272743   6.503   6.986   6.699
56971SOL     OW72744   1.342  12.537   5.071
56971SOL    HW172745   1.270  12.542   5.008
56971SOL    HW272746   1.385  12.454   5.050
56972SOL     OW72747   0.164   9.637   1.503
56972SOL    HW172748   0.173   9.665   1.412
56972SOL    HW272749   0.070   9.619   1.513
56973SOL     OW72750   7.953  10.182  12.108
56973SOL    HW172751   8.013  10.161  12.036
56973SOL    HW272752   7.933  10.097  12.148
56974SOL     OW72753  14.224  10.826  14.125
56974SOL    HW172754  14.236  10.760  14.194
56974SOL    HW272755  14.134  10.814  14.096
56975SOL     OW72756   7.626  10.129   9.247
56975SOL    HW172757   7.659  10.108   9.334
56975SOL    HW272758   7.618  10.225   9.247
56976SOL     OW72759  12.551  11.553   0.115
56976SOL    HW172760  12.483  11.617   0.099
56976SOL    HW272761  12.510  11.468   0.096
56977SOL     OW72762   2.215   6.645  11.476
56977SOL    HW172763   2.164   6.722  11.448
56977SOL    HW272764   2.162   6.606  11.546
56978SOL     OW72765   3.461   6.067   4.318
56978SOL    HW172766   3.548   6.104   4.306
56978SOL    HW272767   3.450   6.006   4.245
56979SOL     OW72768   1.462  13.399   0.267
56979SOL    HW172769   1.529  13.461   0.238
56979SOL    HW272770   1.465  13.405   0.363
56980SOL     OW72771  13.782  10.145   4.036
56980SOL    HW172772  13.873  10.157   4.064
56980SOL    HW272773  13.758  10.228   3.996
56981SOL     OW72774  11.086  12.786  10.762
56981SOL    HW172775  11.083  12.788  10.666
56981SOL    HW272776  11.156  12.723  10.782
56982SOL     OW72777  12.303   6.661   7.188
56982SOL    HW172778  12.249   6.602   7.135
56982SOL    HW272779  12.389   6.619   7.192
56983SOL     OW72780  10.055   3.392   4.438
56983SOL    HW172781  10.131   3.387   4.380
56983SOL    HW272782   9.999   3.320   4.410
56984SOL     OW72783  14.245  11.685   0.598
56984SOL    HW172784  14.254  11.719   0.510
56984SOL    HW272785  14.315  11.728   0.648
56985SOL     OW72786  12.910   1.072   1.819
56985SOL    HW172787  12.918   1.100   1.728
56985SOL    HW272788  12.945   0.983   1.820
56986SOL     OW72789   2.526   9.576   9.480
56986SOL    HW172790   2.488   9.607   9.562
56986SOL    HW272791   2.606   9.628   9.470
56987SOL     OW72792   3.769   1.390   7.795
56987SOL    HW172793   3.773   1.441   7.876
56987SOL    HW272794   3.855   1.405   7.753
56988SOL     OW72795   2.636  12.038  10.547
56988SOL    HW172796   2.568  11.992  10.497
56988SOL    HW272797   2.702  11.972  10.566
56989SOL     OW72798   5.268   8.249   3.939
56989SOL    HW172799   5.238   8.171   3.986
56989SOL    HW272800   5.220   8.321   3.978
56990SOL     OW72801  10.736   2.235  11.468
56990SOL    HW172802  10.782   2.182  11.533
56990SOL    HW272803  10.643   2.227  11.492
56991SOL     OW72804   8.820  12.000  13.856
56991SOL    HW172805   8.827  12.089  13.889
56991SOL    HW272806   8.789  11.949  13.931
56992SOL     OW72807   4.285  11.933  11.259
56992SOL    HW172808   4.329  11.990  11.196
56992SOL    HW272809   4.323  11.846  11.242
56993SOL     OW72810  11.877   7.636   8.176
56993SOL    HW172811  11.936   7.586   8.231
56993SOL    HW272812  11.925   7.652   8.096
56994SOL     OW72813   3.106   5.001   6.493
56994SOL    HW172814   3.117   5.096   6.496
56994SOL    HW272815   3.166   4.971   6.425
56995SOL     OW72816  11.807   1.655  10.396
56995SOL    HW172817  11.776   1.702  10.318
56995SOL    HW272818  11.745   1.583  10.407
56996SOL     OW72819   3.434  14.752   1.684
56996SOL    HW172820   3.341  14.769   1.670
56996SOL    HW272821   3.437  14.670   1.733
56997SOL     OW72822  13.864   2.826   8.499
56997SOL    HW172823  13.839   2.738   8.528
56997SOL    HW272824  13.846   2.826   8.405
56998SOL     OW72825  12.498   9.787  10.098
56998SOL    HW172826  12.465   9.835  10.175
56998SOL    HW272827  12.568   9.732  10.132
56999SOL     OW72828   6.617   6.164   0.611
56999SOL    HW172829   6.532   6.200   0.585
56999SOL    HW272830   6.679   6.201   0.547
57000SOL     OW72831   3.870   9.105  12.546
57000SOL    HW172832   3.787   9.137  12.512
57000SOL    HW272833   3.858   9.010  12.555
57001SOL     OW72834   3.067  10.674   8.143
57001SOL    HW172835   3.025  10.601   8.098
57001SOL    HW272836   3.025  10.676   8.230
57002SOL     OW72837   5.510   8.056   2.508
57002SOL    HW172838   5.492   8.143   2.472
57002SOL    HW272839   5.581   8.022   2.453
57003SOL     OW72840  13.087   8.397   3.323
57003SOL    HW172841  13.165   8.450   3.307
57003SOL    HW272842  13.082   8.337   3.249
57004SOL     OW72843  11.944   3.966   4.457
57004SOL    HW172844  11.968   3.999   4.544
57004SOL    HW272845  11.892   4.037   4.419
57005SOL     OW72846   5.766   5.023   4.907
57005SOL    HW172847   5.741   4.952   4.966
57005SOL    HW272848   5.860   5.034   4.919
57006SOL     OW72849   3.063  11.004  12.584
57006SOL    HW172850   2.968  11.008  12.599
57006SOL    HW272851   3.083  11.082  12.533
57007SOL     OW72852   2.968   7.886  12.507
57007SOL    HW172853   2.993   7.797  12.481
57007SOL    HW272854   2.917   7.874  12.587
57008SOL     OW72855   8.548   9.478  12.403
57008SOL    HW172856   8.584   9.551  12.453
57008SOL    HW272857   8.491   9.433  12.464
57009SOL     OW72858   7.198   3.662  13.148
57009SOL    HW172859   7.249   3.713  13.211
57009SOL    HW272860   7.207   3.571  13.177
57010SOL     OW72861   4.294   0.397   0.196
57010SOL    HW172862   4.268   0.397   0.288
57010SOL    HW272863   4.227   0.450   0.153
57011SOL     OW72864   1.504   6.019   6.632
57011SOL    HW172865   1.556   6.086   6.588
57011SOL    HW272866   1.553   5.938   6.617
57012SOL     OW72867  10.477   6.547   8.057
57012SOL    HW172868  10.507   6.582   8.141
57012SOL    HW272869  10.508   6.457   8.056
57013SOL     OW72870   4.336  11.652   0.499
57013SOL    HW172871   4.312  11.634   0.408
57013SOL    HW272872   4.297  11.737   0.519
57014SOL     OW72873   0.310   2.689   1.353
57014SOL    HW172874   0.296   2.660   1.262
57014SOL    HW272875   0.290   2.611   1.406
57015SOL     OW72876  12.124   5.848   3.240
57015SOL    HW172877  12.031   5.827   3.235
57015SOL    HW272878  12.167   5.764   3.253
57016SOL     OW72879  13.744   7.362   2.090
57016SOL    HW172880  13.794   7.375   2.170
57016SOL    HW272881  13.652   7.361   2.118
57017SOL     OW72882   9.965  13.769  12.999
57017SOL    HW172883  10.006  13.767  13.086
57017SOL    HW272884  10.034  13.800  12.941
57018SOL     OW72885   1.008   1.385  11.681
57018SOL    HW172886   1.007   1.424  11.593
57018SOL    HW272887   0.962   1.450  11.736
57019SOL     OW72888  13.023  12.563   3.537
57019SOL    HW172889  13.069  12.625   3.480
57019SOL    HW272890  13.012  12.611   3.619
57020SOL     OW72891   4.448   1.628  12.463
57020SOL    HW172892   4.449   1.679  12.544
57020SOL    HW272893   4.503   1.552  12.482
57021SOL     OW72894  12.498   4.669  12.971
57021SOL    HW172895  12.443   4.739  13.007
57021SOL    HW272896  12.438   4.616  12.919
57022SOL     OW72897   7.875   9.778   9.578
57022SOL    HW172898   7.939   9.729   9.631
57022SOL    HW272899   7.798   9.721   9.574
57023SOL     OW72900   0.245  12.125  11.568
57023SOL    HW172901   0.157  12.112  11.603
57023SOL    HW272902   0.237  12.106  11.475
57024SOL     OW72903  12.009   9.541   1.441
57024SOL    HW172904  12.100   9.542   1.469
57024SOL    HW272905  11.987   9.448   1.432
57025SOL     OW72906   3.513  12.259  12.412
57025SOL    HW172907   3.571  12.215  12.473
57025SOL    HW272908   3.565  12.332  12.377
57026SOL     OW72909  14.660  14.161  12.648
57026SOL    HW172910  14.706  14.080  12.670
57026SOL    HW272911  14.684  14.222  12.718
57027SOL     OW72912  11.153  12.846  10.083
57027SOL    HW172913  11.204  12.917  10.043
57027SOL    HW272914  11.165  12.772  10.024
57028SOL     OW72915   8.714   1.620   3.082
57028SOL    HW172916   8.640   1.586   3.033
57028SOL    HW272917   8.693   1.712   3.097
57029SOL     OW72918   3.151   4.217  13.964
57029SOL    HW172919   3.114   4.130  13.947
57029SOL    HW272920   3.076   4.269  13.995
57030SOL     OW72921   6.097   6.224   1.611
57030SOL    HW172922   6.083   6.307   1.656
57030SOL    HW272923   6.164   6.243   1.546
57031SOL     OW72924   0.765  13.505   8.423
57031SOL    HW172925   0.830  13.521   8.492
57031SOL    HW272926   0.812  13.456   8.356
57032SOL     OW72927   1.258   2.071  13.622
57032SOL    HW172928   1.291   2.066  13.712
57032SOL    HW272929   1.266   2.164  13.599
57033SOL     OW72930  13.369   9.626   6.451
57033SOL    HW172931  13.329   9.562   6.393
57033SOL    HW272932  13.415   9.573   6.516
57034SOL     OW72933   6.413   6.136   2.959
57034SOL    HW172934   6.386   6.210   2.904
57034SOL    HW272935   6.404   6.059   2.902
57035SOL     OW72936   5.732   1.822  14.369
57035SOL    HW172937   5.691   1.738  14.393
57035SOL    HW272938   5.755   1.862  14.453
57036SOL     OW72939   1.582  13.160  12.278
57036SOL    HW172940   1.578  13.125  12.189
57036SOL    HW272941   1.626  13.244  12.268
57037SOL     OW72942   6.241   8.535   8.155
57037SOL    HW172943   6.161   8.575   8.121
57037SOL    HW272944   6.233   8.544   8.250
57038SOL     OW72945   6.451   6.634  13.562
57038SOL    HW172946   6.498   6.694  13.503
57038SOL    HW272947   6.518   6.574  13.594
57039SOL     OW72948   8.810   9.620   1.081
57039SOL    HW172949   8.882   9.580   1.131
57039SOL    HW272950   8.734   9.565   1.101
57040SOL     OW72951   5.866   8.790  13.541
57040SOL    HW172952   5.871   8.704  13.582
57040SOL    HW272953   5.773   8.813  13.544
57041SOL     OW72954   3.127   5.334   1.560
57041SOL    HW172955   3.184   5.257   1.562
57041SOL    HW272956   3.039   5.299   1.547
57042SOL     OW72957   8.680  11.283   2.452
57042SOL    HW172958   8.605  11.263   2.508
57042SOL    HW272959   8.706  11.371   2.477
57043SOL     OW72960   4.133  10.590   5.256
57043SOL    HW172961   4.148  10.685   5.260
57043SOL    HW272962   4.203  10.552   5.308
57044SOL     OW72963   2.929  13.897  14.631
57044SOL    HW172964   3.008  13.938  14.666
57044SOL    HW272965   2.917  13.938  14.545
57045SOL     OW72966  13.726   9.973   0.213
57045SOL    HW172967  13.726   9.990   0.119
57045SOL    HW272968  13.810   9.930   0.229
57046SOL     OW72969   1.268  12.725   2.774
57046SOL    HW172970   1.201  12.772   2.724
57046SOL    HW272971   1.263  12.764   2.862
57047SOL     OW72972   6.677  12.617  11.271
57047SOL    HW172973   6.584  12.597  11.263
57047SOL    HW272974   6.707  12.628  11.180
57048SOL     OW72975  12.700  12.798  12.737
57048SOL    HW172976  12.675  12.887  12.763
57048SOL    HW272977  12.746  12.810  12.653
57049SOL     OW72978  11.193   0.822  11.520
57049SOL    HW172979  11.275   0.781  11.549
57049SOL    HW272980  11.140   0.750  11.487
57050SOL     OW72981   0.918  11.500   4.636
57050SOL    HW172982   0.973  11.519   4.712
57050SOL    HW272983   0.878  11.415   4.657
57051SOL     OW72984   5.010   9.511  12.664
57051SOL    HW172985   5.078   9.579  12.660
57051SOL    HW272986   4.978   9.516  12.754
57052SOL     OW72987  13.453   7.008   6.694
57052SOL    HW172988  13.367   6.966   6.692
57052SOL    HW272989  13.448   7.076   6.626
57053SOL     OW72990  14.129   2.741  11.650
57053SOL    HW172991  14.159   2.717  11.563
57053SOL    HW272992  14.188   2.693  11.709
57054SOL     OW72993   3.694   7.054  10.881
57054SOL    HW172994   3.604   7.025  10.865
57054SOL    HW272995   3.710   7.120  10.814
57055SOL     OW72996   4.331   0.238   3.754
57055SOL    HW172997   4.253   0.191   3.722
57055SOL    HW272998   4.385   0.248   3.676
57056SOL     OW72999  13.557   0.820   0.727
57056SOL    HW173000  13.572   0.869   0.807
57056SOL    HW273001  13.630   0.759   0.722
57057SOL     OW73002  13.678   6.709   1.572
57057SOL    HW173003  13.733   6.640   1.610
57057SOL    HW273004  13.734   6.786   1.569
57058SOL     OW73005   4.657   1.662  11.013
57058SOL    HW173006   4.732   1.688  10.961
57058SOL    HW273007   4.595   1.734  11.003
57059SOL     OW73008   6.790  14.122  13.425
57059SOL    HW173009   6.829  14.067  13.494
57059SOL    HW273010   6.749  14.060  13.365
57060SOL     OW73011   5.570  13.039   2.238
57060SOL    HW173012   5.556  13.125   2.199
57060SOL    HW273013   5.636  13.054   2.305
57061SOL     OW73014   9.729   0.879   5.897
57061SOL    HW173015   9.773   0.959   5.866
57061SOL    HW273016   9.708   0.898   5.989
57062SOL     OW73017   5.124   0.169   4.499
57062SOL    HW173018   5.118   0.262   4.517
57062SOL    HW273019   5.127   0.163   4.403
57063SOL     OW73020   6.996   1.781  11.625
57063SOL    HW173021   6.927   1.847  11.619
57063SOL    HW273022   7.046   1.805  11.703
57064SOL     OW73023  12.245   2.890   9.968
57064SOL    HW173024  12.226   2.901  10.061
57064SOL    HW273025  12.167   2.847   9.932
57065SOL     OW73026   2.797  14.253   9.122
57065SOL    HW173027   2.714  14.233   9.080
57065SOL    HW273028   2.776  14.316   9.191
57066SOL     OW73029   5.811  13.639   3.534
57066SOL    HW173030   5.864  13.560   3.545
57066SOL    HW273031   5.721  13.610   3.544
57067SOL     OW73032  10.502   6.018  12.402
57067SOL    HW173033  10.459   5.946  12.450
57067SOL    HW273034  10.450   6.029  12.323
57068SOL     OW73035  11.346  10.494   5.507
57068SOL    HW173036  11.397  10.414   5.522
57068SOL    HW273037  11.370  10.552   5.579
57069SOL     OW73038   6.822   0.466  14.566
57069SOL    HW173039   6.727   0.472  14.556
57069SOL    HW273040   6.846   0.545  14.615
57070SOL     OW73041   6.285   4.755  14.016
57070SOL    HW173042   6.304   4.662  14.005
57070SOL    HW273043   6.194   4.757  14.048
57071SOL     OW73044   9.494  12.101   2.155
57071SOL    HW173045   9.514  12.089   2.248
57071SOL    HW273046   9.559  12.165   2.125
57072SOL     OW73047   2.119  12.941   7.860
57072SOL    HW173048   2.121  13.022   7.808
57072SOL    HW273049   2.138  12.970   7.949
57073SOL     OW73050  13.715  14.501  12.192
57073SOL    HW173051  13.673  14.502  12.278
57073SOL    HW273052  13.806  14.477  12.211
57074SOL     OW73053   4.847  14.762   0.904
57074SOL    HW173054   4.826  14.669   0.910
57074SOL    HW273055   4.934  14.770   0.942
57075SOL     OW73056  13.135   5.020   3.015
57075SOL    HW173057  13.144   5.081   2.942
57075SOL    HW273058  13.180   5.062   3.088
57076SOL     OW73059   1.334   8.836   3.471
57076SOL    HW173060   1.314   8.924   3.441
57076SOL    HW273061   1.371   8.848   3.558
57077SOL     OW73062   1.199   6.971  10.223
57077SOL    HW173063   1.113   6.932  10.243
57077SOL    HW273064   1.212   7.034  10.293
57078SOL     OW73065   2.844   1.845   0.706
57078SOL    HW173066   2.855   1.767   0.652
57078SOL    HW273067   2.930   1.888   0.703
57079SOL     OW73068  13.563  10.499   1.673
57079SOL    HW173069  13.641  10.543   1.706
57079SOL    HW273070  13.586  10.406   1.670
57080SOL     OW73071   7.578   1.352  14.367
57080SOL    HW173072   7.507   1.292  14.392
57080SOL    HW273073   7.537   1.438  14.369
57081SOL     OW73074   7.406   4.639  12.772
57081SOL    HW173075   7.413   4.556  12.819
57081SOL    HW273076   7.400   4.705  12.841
57082SOL     OW73077   6.599  12.900   7.727
57082SOL    HW173078   6.568  12.871   7.641
57082SOL    HW273079   6.628  12.990   7.713
57083SOL     OW73080   5.619  11.084  10.182
57083SOL    HW173081   5.652  11.173  10.194
57083SOL    HW273082   5.617  11.047  10.271
57084SOL     OW73083   4.865   1.326  11.934
57084SOL    HW173084   4.830   1.344  11.847
57084SOL    HW273085   4.950   1.371  11.935
57085SOL     OW73086  11.839   4.006  14.461
57085SOL    HW173087  11.785   3.968  14.392
57085SOL    HW273088  11.782   4.070  14.504
57086SOL     OW73089  10.269  12.008   6.252
57086SOL    HW173090  10.252  12.030   6.343
57086SOL    HW273091  10.184  12.015   6.209
57087SOL     OW73092   7.928  10.047   0.573
57087SOL    HW173093   7.992  10.115   0.595
57087SOL    HW273094   7.981   9.969   0.557
57088SOL     OW73095   0.546   8.478  13.319
57088SOL    HW173096   0.522   8.391  13.286
57088SOL    HW273097   0.531   8.537  13.245
57089SOL     OW73098   0.722   5.106   9.918
57089SOL    HW173099   0.722   5.012   9.940
57089SOL    HW273100   0.634   5.135   9.943
57090SOL     OW73101  10.696   1.972   2.305
57090SOL    HW173102  10.666   1.983   2.395
57090SOL    HW273103  10.790   1.993   2.308
57091SOL     OW73104   2.892   8.706   2.714
57091SOL    HW173105   2.863   8.652   2.788
57091SOL    HW273106   2.893   8.795   2.748
57092SOL     OW73107   5.127   8.521   0.103
57092SOL    HW173108   5.181   8.442   0.103
57092SOL    HW273109   5.094   8.528   0.014
57093SOL     OW73110   0.711  14.570   4.321
57093SOL    HW173111   0.637  14.550   4.378
57093SOL    HW273112   0.672  14.621   4.249
57094SOL     OW73113   4.653   7.301   5.580
57094SOL    HW173114   4.696   7.227   5.624
57094SOL    HW273115   4.623   7.266   5.497
57095SOL     OW73116   8.870   9.269   8.921
57095SOL    HW173117   8.937   9.202   8.936
57095SOL    HW273118   8.808   9.257   8.992
57096SOL     OW73119   5.852  10.831   0.422
57096SOL    HW173120   5.839  10.738   0.405
57096SOL    HW273121   5.909  10.860   0.351
57097SOL     OW73122  13.001   8.485  13.175
57097SOL    HW173123  13.017   8.445  13.090
57097SOL    HW273124  13.085   8.520  13.202
57098SOL     OW73125   0.326   0.890   5.541
57098SOL    HW173126   0.295   0.901   5.451
57098SOL    HW273127   0.417   0.921   5.539
57099SOL     OW73128  14.673   1.564   9.098
57099SOL    HW173129  14.632   1.650   9.101
57099SOL    HW273130  14.738   1.571   9.028
57100SOL     OW73131  14.581   4.462  10.405
57100SOL    HW173132  14.604   4.459  10.498
57100SOL    HW273133  14.570   4.556  10.386
57101SOL     OW73134  14.721  13.893   6.480
57101SOL    HW173135  14.750  13.947   6.407
57101SOL    HW273136  14.630  13.916   6.493
57102SOL     OW73137   5.194  14.229  10.058
57102SOL    HW173138   5.100  14.248  10.059
57102SOL    HW273139   5.205  14.160  10.123
57103SOL     OW73140   1.501   7.845   0.946
57103SOL    HW173141   1.486   7.939   0.956
57103SOL    HW273142   1.569   7.839   0.879
57104SOL     OW73143   9.993   0.860   5.698
57104SOL    HW173144   9.933   0.906   5.639
57104SOL    HW273145  10.011   0.777   5.653
57105SOL     OW73146   3.716  10.630   8.891
57105SOL    HW173147   3.788  10.684   8.924
57105SOL    HW273148   3.743  10.605   8.803
57106SOL     OW73149  14.768   5.864   2.695
57106SOL    HW173150  14.767   5.795   2.630
57106SOL    HW273151  14.854   5.905   2.686
57107SOL     OW73152   2.904   5.563   1.736
57107SOL    HW173153   2.969   5.549   1.804
57107SOL    HW273154   2.923   5.495   1.671
57108SOL     OW73155   1.943   2.844   0.410
57108SOL    HW173156   1.941   2.888   0.325
57108SOL    HW273157   1.880   2.773   0.402
57109SOL     OW73158  10.256   1.420   1.166
57109SOL    HW173159  10.268   1.328   1.192
57109SOL    HW273160  10.205   1.458   1.237
57110SOL     OW73161  13.274   1.114  12.807
57110SOL    HW173162  13.327   1.038  12.828
57110SOL    HW273163  13.301   1.138  12.719
57111SOL     OW73164  12.307   7.950   9.725
57111SOL    HW173165  12.380   7.895   9.696
57111SOL    HW273166  12.232   7.890   9.725
57112SOL     OW73167   5.305   0.094  14.735
57112SOL    HW173168   5.386   0.045  14.750
57112SOL    HW273169   5.297   0.098  14.639
57113SOL     OW73170   8.645   1.702  10.544
57113SOL    HW173171   8.609   1.749  10.468
57113SOL    HW273172   8.662   1.770  10.609
57114SOL     OW73173  13.090   1.813   2.097
57114SOL    HW173174  13.173   1.784   2.060
57114SOL    HW273175  13.027   1.746   2.070
57115SOL     OW73176  11.940  14.075   3.871
57115SOL    HW173177  11.874  14.113   3.929
57115SOL    HW273178  11.981  14.006   3.922
57116SOL     OW73179   4.863   3.073  12.102
57116SOL    HW173180   4.925   3.001  12.086
57116SOL    HW273181   4.918   3.151  12.109
57117SOL     OW73182   7.441  13.000   7.315
57117SOL    HW173183   7.431  13.051   7.395
57117SOL    HW273184   7.428  12.909   7.342
57118SOL     OW73185  12.950   1.101  10.971
57118SOL    HW173186  13.009   1.172  10.946
57118SOL    HW273187  12.962   1.091  11.065
57119SOL     OW73188  13.344  11.041   4.648
57119SOL    HW173189  13.402  11.051   4.723
57119SOL    HW273190  13.396  10.991   4.584
57120SOL     OW73191   0.436   4.036  10.702
57120SOL    HW173192   0.432   4.011  10.609
57120SOL    HW273193   0.488   4.116  10.703
57121SOL     OW73194  10.678   4.730   4.820
57121SOL    HW173195  10.765   4.770   4.825
57121SOL    HW273196  10.632   4.761   4.897
57122SOL     OW73197   4.206   1.326   8.908
57122SOL    HW173198   4.263   1.390   8.951
57122SOL    HW273199   4.200   1.253   8.970
57123SOL     OW73200  13.330   7.928   4.039
57123SOL    HW173201  13.399   7.872   4.076
57123SOL    HW273202  13.356   7.942   3.948
57124SOL     OW73203   5.059   0.890   6.400
57124SOL    HW173204   5.013   0.847   6.328
57124SOL    HW273205   5.151   0.870   6.385
57125SOL     OW73206  12.642  10.104  13.597
57125SOL    HW173207  12.587  10.111  13.675
57125SOL    HW273208  12.585  10.131  13.525
57126SOL     OW73209  10.107   7.045  12.683
57126SOL    HW173210  10.048   7.021  12.754
57126SOL    HW273211  10.083   7.135  12.661
57127SOL     OW73212   6.098  10.941   8.044
57127SOL    HW173213   6.026  10.935   7.981
57127SOL    HW273214   6.099  10.856   8.087
57128SOL     OW73215  14.235   1.279   9.027
57128SOL    HW173216  14.311   1.284   8.969
57128SOL    HW273217  14.248   1.198   9.077
57129SOL     OW73218   2.116   6.870   9.083
57129SOL    HW173219   2.040   6.885   9.139
57129SOL    HW273220   2.080   6.864   8.994
57130SOL     OW73221   7.704   0.466  12.078
57130SOL    HW173222   7.798   0.462  12.062
57130SOL    HW273223   7.696   0.472  12.173
57131SOL     OW73224   9.065   4.739   1.526
57131SOL    HW173225   9.075   4.760   1.433
57131SOL    HW273226   9.086   4.820   1.571
57132SOL     OW73227   8.200   3.777  10.681
57132SOL    HW173228   8.142   3.852  10.691
57132SOL    HW273229   8.279   3.813  10.640
57133SOL     OW73230  11.268   2.056   8.237
57133SOL    HW173231  11.347   2.090   8.193
57133SOL    HW273232  11.200   2.120   8.215
57134SOL     OW73233  10.134   8.900   6.444
57134SOL    HW173234  10.060   8.937   6.395
57134SOL    HW273235  10.210   8.916   6.389
57135SOL     OW73236  12.251   9.141  11.525
57135SOL    HW173237  12.247   9.236  11.522
57135SOL    HW273238  12.173   9.112  11.477
57136SOL     OW73239   7.657   4.101  10.846
57136SOL    HW173240   7.724   4.163  10.874
57136SOL    HW273241   7.704   4.036  10.794
57137SOL     OW73242   5.301   4.472   0.886
57137SOL    HW173243   5.357   4.400   0.857
57137SOL    HW273244   5.213   4.446   0.860
57138SOL     OW73245  14.823  11.652  10.594
57138SOL    HW173246  14.804  11.620  10.682
57138SOL    HW273247  14.870  11.734  10.609
57139SOL     OW73248  13.421   2.088   0.229
57139SOL    HW173249  13.376   2.161   0.186
57139SOL    HW273250  13.354   2.047   0.283
57140SOL     OW73251   0.064  12.702   3.638
57140SOL    HW173252   0.154  12.673   3.627
57140SOL    HW273253   0.064  12.746   3.723
57141SOL     OW73254   4.318   8.972   9.665
57141SOL    HW173255   4.331   8.929   9.581
57141SOL    HW273256   4.306   8.901   9.728
57142SOL     OW73257   6.769   6.311   4.445
57142SOL    HW173258   6.856   6.284   4.474
57142SOL    HW273259   6.709   6.269   4.506
57143SOL     OW73260   5.446  12.606   6.312
57143SOL    HW173261   5.494  12.683   6.343
57143SOL    HW273262   5.503  12.532   6.334
57144SOL     OW73263  10.172  13.801  12.045
57144SOL    HW173264  10.086  13.773  12.075
57144SOL    HW273265  10.155  13.856  11.968
57145SOL     OW73266  14.603   3.337  14.232
57145SOL    HW173267  14.603   3.264  14.171
57145SOL    HW273268  14.648   3.408  14.186
57146SOL     OW73269   9.154   1.851   5.024
57146SOL    HW173270   9.105   1.900   5.091
57146SOL    HW273271   9.133   1.759   5.041
57147SOL     OW73272   2.496   4.912  14.493
57147SOL    HW173273   2.532   4.956  14.570
57147SOL    HW273274   2.427   4.971  14.462
57148SOL     OW73275   0.377   0.796   4.354
57148SOL    HW173276   0.284   0.799   4.330
57148SOL    HW273277   0.400   0.886   4.373
57149SOL     OW73278   0.188   5.397  10.761
57149SOL    HW173279   0.173   5.491  10.750
57149SOL    HW273280   0.133   5.357  10.694
57150SOL     OW73281  13.794  13.054   0.519
57150SOL    HW173282  13.827  12.984   0.464
57150SOL    HW273283  13.872  13.092   0.560
57151SOL     OW73284   6.968   6.736   8.025
57151SOL    HW173285   6.949   6.648   7.992
57151SOL    HW273286   6.910   6.746   8.101
57152SOL     OW73287   1.455   4.614   3.068
57152SOL    HW173288   1.402   4.559   3.126
57152SOL    HW273289   1.403   4.694   3.058
57153SOL     OW73290  10.131   7.722  14.656
57153SOL    HW173291  10.105   7.772  14.579
57153SOL    HW273292  10.207   7.671  14.627
57154SOL     OW73293   9.062   1.436   9.103
57154SOL    HW173294   9.025   1.364   9.155
57154SOL    HW273295   9.082   1.504   9.168
57155SOL     OW73296  14.402   4.568   2.086
57155SOL    HW173297  14.472   4.505   2.102
57155SOL    HW273298  14.355   4.532   2.010
57156SOL     OW73299   1.055   0.371  13.836
57156SOL    HW173300   1.126   0.406  13.783
57156SOL    HW273301   1.070   0.406  13.923
57157SOL     OW73302   6.811   5.813   5.681
57157SOL    HW173303   6.813   5.892   5.734
57157SOL    HW273304   6.793   5.743   5.744
57158SOL     OW73305   8.319   7.577  13.207
57158SOL    HW173306   8.369   7.518  13.151
57158SOL    HW273307   8.298   7.525  13.285
57159SOL     OW73308  10.463  12.654  10.684
57159SOL    HW173309  10.449  12.606  10.766
57159SOL    HW273310  10.382  12.703  10.671
57160SOL     OW73311  14.235   4.670  13.078
57160SOL    HW173312  14.199   4.618  13.149
57160SOL    HW273313  14.329   4.654  13.082
57161SOL     OW73314   2.752   7.844   3.136
57161SOL    HW173315   2.810   7.804   3.200
57161SOL    HW273316   2.698   7.772   3.103
57162SOL     OW73317   9.324  13.762   7.983
57162SOL    HW173318   9.321  13.857   7.977
57162SOL    HW273319   9.239  13.737   8.019
57163SOL     OW73320   0.614  13.712   4.577
57163SOL    HW173321   0.568  13.795   4.564
57163SOL    HW273322   0.551  13.658   4.625
57164SOL     OW73323   0.599   8.755   3.750
57164SOL    HW173324   0.618   8.754   3.844
57164SOL    HW273325   0.516   8.709   3.741
57165SOL     OW73326   0.723   5.186   9.673
57165SOL    HW173327   0.746   5.141   9.754
57165SOL    HW273328   0.784   5.259   9.669
57166SOL     OW73329   8.477  11.465  11.527
57166SOL    HW173330   8.430  11.511  11.596
57166SOL    HW273331   8.494  11.378  11.562
57167SOL     OW73332   1.141   9.134   6.119
57167SOL    HW173333   1.094   9.168   6.195
57167SOL    HW273334   1.074   9.092   6.066
57168SOL     OW73335  14.100   9.163   8.673
57168SOL    HW173336  14.166   9.174   8.741
57168SOL    HW273337  14.148   9.173   8.591
57169SOL     OW73338   4.144   7.428  10.005
57169SOL    HW173339   4.065   7.383   9.974
57169SOL    HW273340   4.207   7.416   9.934
57170SOL     OW73341   4.215   2.830   6.791
57170SOL    HW173342   4.294   2.781   6.770
57170SOL    HW273343   4.234   2.873   6.874
57171SOL     OW73344   4.845  11.175   9.225
57171SOL    HW173345   4.887  11.091   9.203
57171SOL    HW273346   4.760  11.171   9.180
57172SOL     OW73347   9.261   9.332  13.491
57172SOL    HW173348   9.283   9.321  13.399
57172SOL    HW273349   9.220   9.419  13.496
57173SOL     OW73350   7.658  13.637  11.002
57173SOL    HW173351   7.704  13.581  11.065
57173SOL    HW273352   7.625  13.710  11.054
57174SOL     OW73353  12.407  14.452   2.986
57174SOL    HW173354  12.370  14.444   3.074
57174SOL    HW273355  12.501  14.437   2.998
57175SOL     OW73356   9.963   3.903  13.490
57175SOL    HW173357  10.046   3.951  13.495
57175SOL    HW273358   9.972   3.849  13.411
57176SOL     OW73359   7.620  11.036  12.548
57176SOL    HW173360   7.669  11.056  12.469
57176SOL    HW273361   7.649  11.101  12.612
57177SOL     OW73362   3.801   6.809  13.865
57177SOL    HW173363   3.830   6.876  13.927
57177SOL    HW273364   3.837   6.836  13.781
57178SOL     OW73365   4.463   7.282   5.309
57178SOL    HW173366   4.412   7.207   5.280
57178SOL    HW273367   4.524   7.300   5.237
57179SOL     OW73368  11.622   9.984  11.782
57179SOL    HW173369  11.646  10.041  11.856
57179SOL    HW273370  11.670   9.903  11.799
57180SOL     OW73371  14.164   5.965  12.835
57180SOL    HW173372  14.208   6.032  12.888
57180SOL    HW273373  14.223   5.949  12.762
57181SOL     OW73374  12.184   0.937  13.465
57181SOL    HW173375  12.244   0.896  13.403
57181SOL    HW273376  12.178   1.029  13.436
57182SOL     OW73377  14.753  11.554  11.641
57182SOL    HW173378  14.703  11.482  11.680
57182SOL    HW273379  14.695  11.589  11.572
57183SOL     OW73380   4.288  14.136   5.160
57183SOL    HW173381   4.336  14.075   5.216
57183SOL    HW273382   4.196  14.118   5.179
57184SOL     OW73383   1.506  11.590  14.663
57184SOL    HW173384   1.484  11.585  14.756
57184SOL    HW273385   1.518  11.499  14.636
57185SOL     OW73386   1.559   7.454   2.557
57185SOL    HW173387   1.503   7.405   2.618
57185SOL    HW273388   1.532   7.545   2.568
57186SOL     OW73389   9.038   7.807  12.330
57186SOL    HW173390   9.015   7.723  12.370
57186SOL    HW273391   9.046   7.868  12.403
57187SOL     OW73392   3.429   9.752   0.226
57187SOL    HW173393   3.457   9.832   0.270
57187SOL    HW273394   3.334   9.750   0.239
57188SOL     OW73395   3.802   2.240   9.365
57188SOL    HW173396   3.734   2.197   9.313
57188SOL    HW273397   3.754   2.283   9.436
57189SOL     OW73398   1.682   7.884   5.202
57189SOL    HW173399   1.586   7.882   5.196
57189SOL    HW273400   1.711   7.803   5.160
57190SOL     OW73401   3.558  12.461   3.240
57190SOL    HW173402   3.626  12.484   3.176
57190SOL    HW273403   3.504  12.396   3.195
57191SOL     OW73404   7.949  12.905   8.041
57191SOL    HW173405   7.923  12.813   8.039
57191SOL    HW273406   7.868  12.952   8.061
57192SOL     OW73407  11.710   0.376   5.616
57192SOL    HW173408  11.785   0.426   5.649
57192SOL    HW273409  11.680   0.426   5.541
57193SOL     OW73410   5.765  11.704   5.704
57193SOL    HW173411   5.858  11.703   5.727
57193SOL    HW273412   5.743  11.798   5.700
57194SOL     OW73413  14.029   3.780  13.283
57194SOL    HW173414  13.943   3.747  13.257
57194SOL    HW273415  14.091   3.720  13.241
57195SOL     OW73416   7.123   2.710   2.190
57195SOL    HW173417   7.160   2.668   2.113
57195SOL    HW273418   7.156   2.800   2.186
57196SOL     OW73419   9.745   6.689   5.127
57196SOL    HW173420   9.806   6.730   5.066
57196SOL    HW273421   9.662   6.689   5.080
57197SOL     OW73422  14.700   3.813  11.517
57197SOL    HW173423  14.636   3.882  11.537
57197SOL    HW273424  14.723   3.777  11.603
57198SOL     OW73425  12.085   8.019   5.073
57198SOL    HW173426  12.121   7.977   5.152
57198SOL    HW273427  12.134   7.979   5.001
57199SOL     OW73428   1.077   2.786   5.429
57199SOL    HW173429   1.022   2.859   5.400
57199SOL    HW273430   1.143   2.777   5.361
57200SOL     OW73431  13.545  13.184  14.869
57200SOL    HW173432  13.509  13.169  14.782
57200SOL    HW273433  13.487  13.248   0.037
57201SOL     OW73434  12.458  13.923   0.595
57201SOL    HW173435  12.422  13.895   0.511
57201SOL    HW273436  12.384  13.962   0.641
57202SOL     OW73437   7.073   2.655   9.225
57202SOL    HW173438   7.153   2.605   9.240
57202SOL    HW273439   7.002   2.596   9.250
57203SOL     OW73440  11.683  11.679   5.653
57203SOL    HW173441  11.661  11.773   5.654
57203SOL    HW273442  11.599  11.635   5.641
57204SOL     OW73443  10.376   3.219  11.193
57204SOL    HW173444  10.356   3.251  11.281
57204SOL    HW273445  10.443   3.278  11.160
57205SOL     OW73446  13.012  12.557  10.171
57205SOL    HW173447  12.981  12.599  10.251
57205SOL    HW273448  13.090  12.509  10.199
57206SOL     OW73449   5.545  13.046  12.681
57206SOL    HW173450   5.471  13.103  12.704
57206SOL    HW273451   5.547  12.981  12.752
57207SOL     OW73452   9.837   9.844   4.310
57207SOL    HW173453   9.925   9.862   4.279
57207SOL    HW273454   9.824   9.750   4.296
57208SOL     OW73455   9.136  13.379   5.287
57208SOL    HW173456   9.096  13.447   5.341
57208SOL    HW273457   9.230  13.389   5.302
57209SOL     OW73458  10.030  13.693   2.107
57209SOL    HW173459  10.078  13.764   2.064
57209SOL    HW273460   9.999  13.638   2.035
57210SOL     OW73461   2.622   7.698   6.082
57210SOL    HW173462   2.684   7.673   6.014
57210SOL    HW273463   2.597   7.615   6.123
57211SOL     OW73464  14.739  11.574  10.837
57211SOL    HW173465  14.702  11.625  10.909
57211SOL    HW273466  14.712  11.484  10.855
57212SOL     OW73467   9.689   0.924  11.399
57212SOL    HW173468   9.680   1.015  11.426
57212SOL    HW273469   9.644   0.919  11.315
57213SOL     OW73470   8.324   2.712   2.792
57213SOL    HW173471   8.263   2.641   2.772
57213SOL    HW273472   8.268   2.789   2.806
57214SOL     OW73473   3.852   5.317   6.012
57214SOL    HW173474   3.943   5.307   6.038
57214SOL    HW273475   3.809   5.236   6.040
57215SOL     OW73476   7.607   3.988   2.351
57215SOL    HW173477   7.596   3.990   2.256
57215SOL    HW273478   7.544   3.923   2.381
57216SOL     OW73479   9.602   6.708  10.714
57216SOL    HW173480   9.561   6.631  10.675
57216SOL    HW273481   9.693   6.705  10.685
57217SOL     OW73482   8.374   4.212  11.763
57217SOL    HW173483   8.433   4.172  11.827
57217SOL    HW273484   8.397   4.170  11.680
57218SOL     OW73485   4.487   8.125   9.844
57218SOL    HW173486   4.412   8.099   9.790
57218SOL    HW273487   4.450   8.140   9.931
57219SOL     OW73488   9.390  11.833  12.037
57219SOL    HW173489   9.443  11.907  12.068
57219SOL    HW273490   9.366  11.857  11.948
57220SOL     OW73491   3.676   4.971   7.599
57220SOL    HW173492   3.681   5.041   7.665
57220SOL    HW273493   3.608   4.912   7.632
57221SOL     OW73494  11.962  10.362  14.332
57221SOL    HW173495  12.053  10.386  14.350
57221SOL    HW273496  11.944  10.399  14.246
57222SOL     OW73497   7.415   9.201  12.493
57222SOL    HW173498   7.430   9.295  12.480
57222SOL    HW273499   7.329   9.185  12.453
57223SOL     OW73500   0.089   0.399   0.350
57223SOL    HW173501   0.053   0.478   0.392
57223SOL    HW273502   0.022   0.332   0.364
57224SOL     OW73503  10.563   3.384   4.001
57224SOL    HW173504  10.524   3.412   4.084
57224SOL    HW273505  10.639   3.441   3.990
57225SOL     OW73506   7.214  12.549   8.680
57225SOL    HW173507   7.305  12.523   8.663
57225SOL    HW273508   7.183  12.485   8.744
57226SOL     OW73509  11.921   4.192   9.247
57226SOL    HW173510  11.851   4.227   9.191
57226SOL    HW273511  11.971   4.269   9.274
57227SOL     OW73512  11.625  10.757   7.410
57227SOL    HW173513  11.543  10.788   7.449
57227SOL    HW273514  11.598  10.687   7.350
57228SOL     OW73515  14.026  10.652   2.169
57228SOL    HW173516  14.103  10.600   2.148
57228SOL    HW273517  14.018  10.645   2.264
57229SOL     OW73518  12.188  10.729   2.352
57229SOL    HW173519  12.252  10.744   2.282
57229SOL    HW273520  12.159  10.639   2.339
57230SOL     OW73521   7.443  13.091   8.591
57230SOL    HW173522   7.508  13.028   8.622
57230SOL    HW273523   7.488  13.175   8.594
57231SOL     OW73524  12.999  13.909   7.424
57231SOL    HW173525  12.977  13.934   7.334
57231SOL    HW273526  13.070  13.844   7.414
57232SOL     OW73527   5.896  12.985   1.544
57232SOL    HW173528   5.827  12.953   1.603
57232SOL    HW273529   5.889  13.080   1.548
57233SOL     OW73530   0.317   3.336   9.152
57233SOL    HW173531   0.322   3.389   9.232
57233SOL    HW273532   0.377   3.263   9.169
57234SOL     OW73533   4.318   8.460  14.490
57234SOL    HW173534   4.278   8.375  14.508
57234SOL    HW273535   4.255   8.524  14.523
57235SOL     OW73536   0.180  11.804   9.299
57235SOL    HW173537   0.181  11.851   9.383
57235SOL    HW273538   0.243  11.733   9.310
57236SOL     OW73539   3.631  13.686  11.630
57236SOL    HW173540   3.605  13.740  11.704
57236SOL    HW273541   3.555  13.688  11.571
57237SOL     OW73542   3.416  14.433  12.645
57237SOL    HW173543   3.408  14.339  12.627
57237SOL    HW273544   3.331  14.458  12.682
57238SOL     OW73545   9.627   1.630  10.014
57238SOL    HW173546   9.684   1.687  10.066
57238SOL    HW273547   9.687   1.583   9.956
57239SOL     OW73548   2.028  14.123   3.559
57239SOL    HW173549   2.037  14.060   3.488
57239SOL    HW273550   2.098  14.187   3.544
57240SOL     OW73551   0.285  14.262   5.165
57240SOL    HW173552   0.309  14.269   5.257
57240SOL    HW273553   0.208  14.318   5.156
57241SOL     OW73554  12.523  10.072   8.846
57241SOL    HW173555  12.584  10.124   8.794
57241SOL    HW273556  12.437  10.087   8.806
57242SOL     OW73557   8.624  12.278   3.867
57242SOL    HW173558   8.704  12.331   3.860
57242SOL    HW273559   8.554  12.337   3.837
57243SOL     OW73560   6.240   9.608  12.862
57243SOL    HW173561   6.270   9.698  12.856
57243SOL    HW273562   6.172   9.610  12.929
57244SOL     OW73563   1.092  13.190  10.423
57244SOL    HW173564   1.137  13.121  10.472
57244SOL    HW273565   1.062  13.251  10.491
57245SOL     OW73566   2.096   9.982   5.836
57245SOL    HW173567   2.167  10.023   5.885
57245SOL    HW273568   2.028   9.965   5.901
57246SOL     OW73569  13.064   9.873  10.510
57246SOL    HW173570  13.017   9.950  10.480
57246SOL    HW273571  13.144   9.871  10.457
57247SOL     OW73572   8.047   0.786   2.088
57247SOL    HW173573   8.037   0.736   2.007
57247SOL    HW273574   8.069   0.721   2.154
57248SOL     OW73575   7.795   2.336   0.725
57248SOL    HW173576   7.826   2.425   0.709
57248SOL    HW273577   7.816   2.289   0.644
57249SOL     OW73578  11.307  11.129   8.214
57249SOL    HW173579  11.279  11.085   8.133
57249SOL    HW273580  11.314  11.221   8.189
57250SOL     OW73581   9.206   9.533   2.374
57250SOL    HW173582   9.245   9.523   2.287
57250SOL    HW273583   9.238   9.457   2.423
57251SOL     OW73584   2.194   4.618   3.682
57251SOL    HW173585   2.211   4.652   3.769
57251SOL    HW273586   2.099   4.606   3.678
57252SOL     OW73587   0.412   1.442  14.501
57252SOL    HW173588   0.333   1.409  14.456
57252SOL    HW273589   0.401   1.415  14.592
57253SOL     OW73590   9.969  12.817   9.825
57253SOL    HW173591   9.906  12.855   9.764
57253SOL    HW273592  10.038  12.883   9.832
57254SOL     OW73593   6.615   4.272   1.046
57254SOL    HW173594   6.565   4.210   1.099
57254SOL    HW273595   6.550   4.334   1.013
57255SOL     OW73596  11.562  14.054  12.034
57255SOL    HW173597  11.481  14.097  12.061
57255SOL    HW273598  11.608  14.035  12.115
57256SOL     OW73599   0.568   9.895  14.639
57256SOL    HW173600   0.491   9.949  14.657
57256SOL    HW273601   0.544   9.846  14.560
57257SOL     OW73602  13.883   9.443   0.143
57257SOL    HW173603  13.813   9.501   0.112
57257SOL    HW273604  13.927   9.414   0.063
57258SOL     OW73605   5.243  13.899   6.080
57258SOL    HW173606   5.303  13.961   6.121
57258SOL    HW273607   5.171  13.891   6.143
57259SOL     OW73608   5.054  10.110  10.058
57259SOL    HW173609   5.080  10.151   9.975
57259SOL    HW273610   4.974  10.156  10.082
57260SOL     OW73611  14.005  14.445  14.319
57260SOL    HW173612  13.912  14.446  14.298
57260SOL    HW273613  14.015  14.510  14.389
57261SOL     OW73614  14.126   9.051  12.401
57261SOL    HW173615  14.086   8.967  12.425
57261SOL    HW273616  14.166   9.082  12.482
57262SOL     OW73617  10.482   8.631   0.146
57262SOL    HW173618  10.476   8.561   0.211
57262SOL    HW273619  10.573   8.660   0.150
57263SOL     OW73620   2.679   8.381   3.170
57263SOL    HW173621   2.604   8.439   3.184
57263SOL    HW273622   2.753   8.427   3.211
57264SOL     OW73623  12.650   3.889  14.534
57264SOL    HW173624  12.617   3.979  14.541
57264SOL    HW273625  12.715   3.892  14.464
57265SOL     OW73626   7.078   7.502  13.277
57265SOL    HW173627   7.051   7.526  13.188
57265SOL    HW273628   7.059   7.408  13.283
57266SOL     OW73629  11.913  11.157  11.787
57266SOL    HW173630  11.943  11.227  11.844
57266SOL    HW273631  11.892  11.200  11.704
57267SOL     OW73632  12.442  12.559   2.823
57267SOL    HW173633  12.510  12.593   2.881
57267SOL    HW273634  12.373  12.625   2.826
57268SOL     OW73635   8.129   1.546   5.379
57268SOL    HW173636   8.172   1.627   5.351
57268SOL    HW273637   8.201   1.484   5.391
57269SOL     OW73638  10.552   0.614   6.333
57269SOL    HW173639  10.511   0.695   6.364
57269SOL    HW273640  10.636   0.611   6.380
57270SOL     OW73641   3.092   3.522   0.824
57270SOL    HW173642   3.109   3.616   0.831
57270SOL    HW273643   2.996   3.515   0.825
57271SOL     OW73644   7.601   1.269   2.697
57271SOL    HW173645   7.696   1.286   2.694
57271SOL    HW273646   7.563   1.354   2.720
57272SOL     OW73647   7.846  13.306   9.476
57272SOL    HW173648   7.811  13.242   9.414
57272SOL    HW273649   7.768  13.340   9.521
57273SOL     OW73650   7.056   5.957   7.782
57273SOL    HW173651   7.107   5.977   7.861
57273SOL    HW273652   7.122   5.937   7.715
57274SOL     OW73653   1.780   1.969   7.523
57274SOL    HW173654   1.836   1.901   7.487
57274SOL    HW273655   1.806   1.974   7.615
57275SOL     OW73656   4.983   6.030   9.979
57275SOL    HW173657   5.009   6.066   9.894
57275SOL    HW273658   4.927   5.955   9.957
57276SOL     OW73659   5.785   2.636   8.407
57276SOL    HW173660   5.840   2.704   8.368
57276SOL    HW273661   5.804   2.558   8.355
57277SOL     OW73662   5.827   5.304  11.266
57277SOL    HW173663   5.844   5.388  11.309
57277SOL    HW273664   5.757   5.323  11.204
57278SOL     OW73665   5.378  11.919   6.035
57278SOL    HW173666   5.358  12.011   6.054
57278SOL    HW273667   5.311  11.870   6.084
57279SOL     OW73668   5.553  14.659  14.526
57279SOL    HW173669   5.582  14.568  14.535
57279SOL    HW273670   5.486  14.669  14.594
57280SOL     OW73671   6.307   6.063  12.702
57280SOL    HW173672   6.333   6.063  12.610
57280SOL    HW273673   6.325   5.974  12.732
57281SOL     OW73674   8.360   2.116   1.912
57281SOL    HW173675   8.441   2.156   1.881
57281SOL    HW273676   8.291   2.179   1.889
57282SOL     OW73677  13.401  11.551  13.729
57282SOL    HW173678  13.339  11.504  13.672
57282SOL    HW273679  13.351  11.568  13.809
57283SOL     OW73680   6.685  13.682   9.478
57283SOL    HW173681   6.767  13.729   9.482
57283SOL    HW273682   6.623  13.743   9.438
57284SOL     OW73683  12.531  10.691  11.539
57284SOL    HW173684  12.523  10.670  11.632
57284SOL    HW273685  12.614  10.650  11.512
57285SOL     OW73686   1.724   3.664   4.058
57285SOL    HW173687   1.634   3.641   4.083
57285SOL    HW273688   1.713   3.742   4.003
57286SOL     OW73689   0.569  12.445   7.207
57286SOL    HW173690   0.593  12.530   7.170
57286SOL    HW273691   0.604  12.447   7.296
57287SOL     OW73692  11.379  14.181   2.257
57287SOL    HW173693  11.342  14.269   2.255
57287SOL    HW273694  11.306  14.124   2.283
57288SOL     OW73695   7.338   6.567  10.000
57288SOL    HW173696   7.432   6.581  10.011
57288SOL    HW273697   7.330   6.516   9.919
57289SOL     OW73698   7.946  12.048   2.775
57289SOL    HW173699   7.883  12.077   2.841
57289SOL    HW273700   7.907  11.969   2.738
57290SOL     OW73701   9.886  13.711  12.065
57290SOL    HW173702   9.865  13.804  12.056
57290SOL    HW273703   9.885  13.695  12.160
57291SOL     OW73704  13.959  14.118   7.249
57291SOL    HW173705  14.009  14.190   7.288
57291SOL    HW273706  14.023  14.049   7.235
57292SOL     OW73707   3.752   9.810   6.497
57292SOL    HW173708   3.702   9.732   6.521
57292SOL    HW273709   3.715   9.880   6.550
57293SOL     OW73710   2.270   0.305   3.260
57293SOL    HW173711   2.267   0.302   3.356
57293SOL    HW273712   2.281   0.214   3.233
57294SOL     OW73713   8.185   6.920   7.407
57294SOL    HW173714   8.150   6.884   7.489
57294SOL    HW273715   8.137   6.874   7.338
57295SOL     OW73716   4.250   5.675   9.542
57295SOL    HW173717   4.212   5.654   9.628
57295SOL    HW273718   4.300   5.597   9.518
57296SOL     OW73719   8.952   5.874   7.575
57296SOL    HW173720   9.032   5.880   7.523
57296SOL    HW273721   8.965   5.798   7.631
57297SOL     OW73722  10.800  10.803   1.320
57297SOL    HW173723  10.791  10.798   1.225
57297SOL    HW273724  10.890  10.832   1.335
57298SOL     OW73725   3.836  12.787   3.230
57298SOL    HW173726   3.896  12.843   3.180
57298SOL    HW273727   3.751  12.800   3.189
57299SOL     OW73728  11.274   2.476  10.299
57299SOL    HW173729  11.233   2.522  10.373
57299SOL    HW273730  11.201   2.445  10.246
57300SOL     OW73731   2.887   7.453   6.992
57300SOL    HW173732   2.947   7.520   7.021
57300SOL    HW273733   2.941   7.375   6.980
57301SOL     OW73734  10.124   5.357   1.285
57301SOL    HW173735  10.214   5.389   1.293
57301SOL    HW273736  10.125   5.304   1.205
57302SOL     OW73737   8.272   7.524  14.809
57302SOL    HW173738   8.265   7.597  14.747
57302SOL    HW273739   8.187   7.523  14.854
57303SOL     OW73740   3.196   8.854   7.796
57303SOL    HW173741   3.175   8.850   7.702
57303SOL    HW273742   3.246   8.935   7.806
57304SOL     OW73743   6.008   0.570   5.748
57304SOL    HW173744   5.970   0.610   5.826
57304SOL    HW273745   5.965   0.615   5.675
57305SOL     OW73746   4.552  12.280  11.330
57305SOL    HW173747   4.588  12.352  11.383
57305SOL    HW273748   4.517  12.219  11.394
57306SOL     OW73749   5.265  11.315   0.740
57306SOL    HW173750   5.183  11.347   0.777
57306SOL    HW273751   5.269  11.354   0.652
57307SOL     OW73752   6.065   6.475   9.069
57307SOL    HW173753   6.059   6.396   9.015
57307SOL    HW273754   5.985   6.474   9.121
57308SOL     OW73755   0.662   3.672   4.072
57308SOL    HW173756   0.617   3.662   3.988
57308SOL    HW273757   0.602   3.725   4.125
57309SOL     OW73758   2.621  11.425   6.265
57309SOL    HW173759   2.636  11.482   6.190
57309SOL    HW273760   2.640  11.337   6.233
57310SOL     OW73761   5.954  11.836  10.007
57310SOL    HW173762   5.878  11.887  10.035
57310SOL    HW273763   6.024  11.900   9.997
57311SOL     OW73764   8.217   7.305   1.146
57311SOL    HW173765   8.154   7.286   1.077
57311SOL    HW273766   8.164   7.316   1.225
57312SOL     OW73767  10.311  10.457  12.384
57312SOL    HW173768  10.231  10.417  12.418
57312SOL    HW273769  10.324  10.415  12.299
57313SOL     OW73770   9.363  11.897   5.331
57313SOL    HW173771   9.302  11.917   5.259
57313SOL    HW273772   9.309  11.853   5.396
57314SOL     OW73773   7.160   1.023   6.714
57314SOL    HW173774   7.173   0.952   6.777
57314SOL    HW273775   7.113   0.981   6.641
57315SOL     OW73776   4.841   6.383   5.424
57315SOL    HW173777   4.917   6.325   5.416
57315SOL    HW273778   4.843   6.413   5.515
57316SOL     OW73779  11.882   1.837  10.601
57316SOL    HW173780  11.874   1.925  10.565
57316SOL    HW273781  11.876   1.780  10.524
57317SOL     OW73782   4.348  12.119   4.422
57317SOL    HW173783   4.259  12.111   4.390
57317SOL    HW273784   4.401  12.068   4.359
57318SOL     OW73785   1.008   6.604   4.920
57318SOL    HW173786   1.091   6.559   4.934
57318SOL    HW273787   1.016   6.686   4.970
57319SOL     OW73788   9.566   7.466   3.009
57319SOL    HW173789   9.546   7.475   2.915
57319SOL    HW273790   9.597   7.552   3.036
57320SOL     OW73791  11.982   6.864  13.792
57320SOL    HW173792  11.924   6.799  13.753
57320SOL    HW273793  12.048   6.881  13.724
57321SOL     OW73794  12.123   8.836   0.594
57321SOL    HW173795  12.092   8.924   0.612
57321SOL    HW273796  12.208   8.831   0.639
57322SOL     OW73797   1.738  12.498  13.152
57322SOL    HW173798   1.713  12.522  13.063
57322SOL    HW273799   1.834  12.501  13.152
57323SOL     OW73800   4.498   1.521   4.730
57323SOL    HW173801   4.572   1.461   4.740
57323SOL    HW273802   4.421   1.466   4.745
57324SOL     OW73803   2.895   6.529   3.599
57324SOL    HW173804   2.956   6.602   3.613
57324SOL    HW273805   2.850   6.551   3.518
57325SOL     OW73806  10.151   8.561  13.241
57325SOL    HW173807  10.069   8.512  13.231
57325SOL    HW273808  10.182   8.576  13.152
57326SOL     OW73809   3.635   3.890   3.033
57326SOL    HW173810   3.632   3.849   3.120
57326SOL    HW273811   3.590   3.828   2.976
57327SOL     OW73812  13.564   3.487   5.944
57327SOL    HW173813  13.616   3.550   5.894
57327SOL    HW273814  13.565   3.407   5.891
57328SOL     OW73815   7.928   0.187   0.466
57328SOL    HW173816   7.873   0.136   0.525
57328SOL    HW273817   7.905   0.157   0.378
57329SOL     OW73818  13.763   6.694   3.197
57329SOL    HW173819  13.755   6.771   3.141
57329SOL    HW273820  13.737   6.621   3.141
57330SOL     OW73821  12.775   3.162   0.124
57330SOL    HW173822  12.761   3.250   0.158
57330SOL    HW273823  12.709   3.109   0.168
57331SOL     OW73824   7.382   2.629  11.712
57331SOL    HW173825   7.384   2.686  11.788
57331SOL    HW273826   7.289   2.616  11.694
57332SOL     OW73827   5.589  11.664   6.851
57332SOL    HW173828   5.609  11.756   6.832
57332SOL    HW273829   5.653  11.639   6.918
57333SOL     OW73830   9.255   1.176   8.804
57333SOL    HW173831   9.217   1.125   8.733
57333SOL    HW273832   9.209   1.145   8.882
57334SOL     OW73833   9.527   8.755  11.335
57334SOL    HW173834   9.511   8.683  11.397
57334SOL    HW273835   9.462   8.742  11.266
57335SOL     OW73836   7.568   1.902  12.535
57335SOL    HW173837   7.489   1.879  12.487
57335SOL    HW273838   7.595   1.821  12.578
57336SOL     OW73839   9.964   7.930   3.863
57336SOL    HW173840  10.016   7.903   3.788
57336SOL    HW273841   9.879   7.956   3.826
57337SOL     OW73842   8.174   2.993   3.067
57337SOL    HW173843   8.183   3.067   3.007
57337SOL    HW273844   8.242   3.007   3.133
57338SOL     OW73845   7.397   9.686   7.511
57338SOL    HW173846   7.457   9.658   7.580
57338SOL    HW273847   7.424   9.776   7.491
57339SOL     OW73848   4.093   6.202   5.514
57339SOL    HW173849   4.131   6.148   5.444
57339SOL    HW273850   4.161   6.267   5.534
57340SOL     OW73851  12.904  10.720   9.396
57340SOL    HW173852  12.863  10.660   9.458
57340SOL    HW273853  12.840  10.790   9.385
57341SOL     OW73854   5.322   3.874  14.322
57341SOL    HW173855   5.301   3.801  14.380
57341SOL    HW273856   5.381   3.838  14.256
57342SOL     OW73857   8.832   8.777   5.133
57342SOL    HW173858   8.788   8.819   5.059
57342SOL    HW273859   8.838   8.846   5.199
57343SOL     OW73860   6.334   8.678   8.570
57343SOL    HW173861   6.260   8.703   8.514
57343SOL    HW273862   6.313   8.588   8.598
57344SOL     OW73863   8.043   1.888   9.963
57344SOL    HW173864   7.970   1.931  10.008
57344SOL    HW273865   8.015   1.883   9.871
57345SOL     OW73866   6.696   9.774   6.880
57345SOL    HW173867   6.608   9.809   6.892
57345SOL    HW273868   6.739   9.837   6.822
57346SOL     OW73869   4.599   8.568  12.298
57346SOL    HW173870   4.541   8.644  12.288
57346SOL    HW273871   4.587   8.541  12.389
57347SOL     OW73872   7.177  13.438   7.931
57347SOL    HW173873   7.158  13.440   8.024
57347SOL    HW273874   7.137  13.519   7.897
57348SOL     OW73875   4.594   0.631  10.561
57348SOL    HW173876   4.510   0.653  10.521
57348SOL    HW273877   4.659   0.652  10.494
57349SOL     OW73878   7.586   9.217  11.497
57349SOL    HW173879   7.585   9.167  11.579
57349SOL    HW273880   7.507   9.271  11.501
57350SOL     OW73881  12.320  13.896   4.630
57350SOL    HW173882  12.367  13.928   4.553
57350SOL    HW273883  12.229  13.922   4.615
57351SOL     OW73884   1.647  11.752   2.310
57351SOL    HW173885   1.617  11.680   2.366
57351SOL    HW273886   1.629  11.722   2.221
57352SOL     OW73887   7.082   1.491  12.888
57352SOL    HW173888   7.012   1.525  12.832
57352SOL    HW273889   7.040   1.479  12.974
57353SOL     OW73890  13.750  12.422   9.206
57353SOL    HW173891  13.716  12.460   9.125
57353SOL    HW273892  13.671  12.393   9.253
57354SOL     OW73893  14.045   0.592  11.758
57354SOL    HW173894  14.113   0.622  11.819
57354SOL    HW273895  14.031   0.667  11.700
57355SOL     OW73896   0.198   6.950   9.907
57355SOL    HW173897   0.279   6.987   9.873
57355SOL    HW273898   0.130   6.983   9.849
57356SOL     OW73899  10.041   0.095   8.305
57356SOL    HW173900  10.056   0.046   8.225
57356SOL    HW273901  10.063   0.034   8.375
57357SOL     OW73902  10.489  11.600  13.283
57357SOL    HW173903  10.411  11.571  13.237
57357SOL    HW273904  10.553  11.530  13.269
57358SOL     OW73905  12.418  12.962   0.166
57358SOL    HW173906  12.419  13.048   0.207
57358SOL    HW273907  12.329  12.930   0.178
57359SOL     OW73908  13.021   5.387   2.559
57359SOL    HW173909  13.064   5.377   2.474
57359SOL    HW273910  13.083   5.348   2.621
57360SOL     OW73911   7.618  11.438  10.664
57360SOL    HW173912   7.691  11.389  10.704
57360SOL    HW273913   7.639  11.530  10.680
57361SOL     OW73914   1.344   2.836  10.121
57361SOL    HW173915   1.347   2.912  10.181
57361SOL    HW273916   1.430   2.796  10.131
57362SOL     OW73917   1.017   7.231   8.524
57362SOL    HW173918   0.944   7.192   8.573
57362SOL    HW273919   0.982   7.315   8.493
57363SOL     OW73920   6.587   4.600  14.342
57363SOL    HW173921   6.670   4.563  14.372
57363SOL    HW273922   6.611   4.685  14.304
57364SOL     OW73923  13.845   1.620   5.495
57364SOL    HW173924  13.807   1.576   5.420
57364SOL    HW273925  13.939   1.626   5.475
57365SOL     OW73926   8.441   2.068   9.283
57365SOL    HW173927   8.511   2.003   9.286
57365SOL    HW273928   8.484   2.147   9.249
57366SOL     OW73929   5.600   3.590   5.694
57366SOL    HW173930   5.588   3.517   5.754
57366SOL    HW273931   5.662   3.558   5.629
57367SOL     OW73932  13.082   6.806   1.417
57367SOL    HW173933  13.011   6.772   1.471
57367SOL    HW273934  13.061   6.778   1.328
57368SOL     OW73935  13.101   6.606   5.510
57368SOL    HW173936  13.053   6.530   5.478
57368SOL    HW273937  13.099   6.669   5.438
57369SOL     OW73938   5.212   6.140   8.522
57369SOL    HW173939   5.231   6.105   8.609
57369SOL    HW273940   5.190   6.062   8.470
57370SOL     OW73941   8.045   2.063   3.504
57370SOL    HW173942   7.982   2.066   3.576
57370SOL    HW273943   8.037   2.149   3.462
57371SOL     OW73944   8.367  12.367   6.117
57371SOL    HW173945   8.326  12.282   6.107
57371SOL    HW273946   8.364  12.406   6.030
57372SOL     OW73947   4.236  10.462  14.174
57372SOL    HW173948   4.153  10.422  14.198
57372SOL    HW273949   4.253  10.431  14.085
57373SOL     OW73950   2.703   1.634  12.738
57373SOL    HW173951   2.785   1.585  12.735
57373SOL    HW273952   2.715   1.704  12.674
57374SOL     OW73953   1.860   3.495  10.359
57374SOL    HW173954   1.867   3.459  10.447
57374SOL    HW273955   1.944   3.536  10.343
57375SOL     OW73956   0.994   3.043  13.235
57375SOL    HW173957   1.012   2.954  13.266
57375SOL    HW273958   0.942   3.031  13.156
57376SOL     OW73959   5.546   1.138   8.318
57376SOL    HW173960   5.638   1.166   8.319
57376SOL    HW273961   5.505   1.192   8.251
57377SOL     OW73962   4.912   2.356   7.130
57377SOL    HW173963   4.903   2.264   7.152
57377SOL    HW273964   4.848   2.401   7.185
57378SOL     OW73965  14.324  12.192   3.569
57378SOL    HW173966  14.289  12.273   3.533
57378SOL    HW273967  14.382  12.159   3.500
57379SOL     OW73968  10.350   0.906   4.927
57379SOL    HW173969  10.396   0.982   4.962
57379SOL    HW273970  10.301   0.940   4.852
57380SOL     OW73971   1.083   1.344   5.525
57380SOL    HW173972   1.002   1.341   5.575
57380SOL    HW273973   1.080   1.428   5.478
57381SOL     OW73974   5.775  10.948   6.240
57381SOL    HW173975   5.846  10.885   6.248
57381SOL    HW273976   5.718  10.911   6.172
57382SOL     OW73977   5.623   1.365   8.637
57382SOL    HW173978   5.662   1.356   8.724
57382SOL    HW273979   5.541   1.315   8.643
57383SOL     OW73980   5.455   9.525  11.775
57383SOL    HW173981   5.415   9.461  11.834
57383SOL    HW273982   5.520   9.570  11.829
57384SOL     OW73983   4.978   5.013   4.470
57384SOL    HW173984   4.938   5.091   4.431
57384SOL    HW273985   5.003   5.040   4.558
57385SOL     OW73986   5.957   8.416  12.932
57385SOL    HW173987   6.028   8.353  12.946
57385SOL    HW273988   5.962   8.437  12.839
57386SOL     OW73989  13.168   3.959   4.036
57386SOL    HW173990  13.076   3.944   4.015
57386SOL    HW273991  13.175   4.053   4.053
57387SOL     OW73992  12.512  13.795   4.828
57387SOL    HW173993  12.588  13.783   4.771
57387SOL    HW273994  12.443  13.827   4.770
57388SOL     OW73995   5.830   7.967  12.926
57388SOL    HW173996   5.816   7.950  12.833
57388SOL    HW273997   5.750   7.936  12.969
57389SOL     OW73998   4.720   5.026   5.995
57389SOL    HW173999   4.673   5.106   6.018
57389SOL    HW274000   4.674   4.956   6.042
57390SOL     OW74001   7.811   2.782   0.272
57390SOL    HW174002   7.894   2.795   0.319
57390SOL    HW274003   7.836   2.743   0.189
57391SOL     OW74004   6.995  12.821   8.096
57391SOL    HW174005   6.931  12.824   8.025
57391SOL    HW274006   7.009  12.727   8.111
57392SOL     OW74007   6.466  13.095   8.626
57392SOL    HW174008   6.523  13.027   8.661
57392SOL    HW274009   6.509  13.177   8.651
57393SOL     OW74010   9.878   5.502   0.452
57393SOL    HW174011   9.841   5.591   0.454
57393SOL    HW274012   9.972   5.515   0.461
57394SOL     OW74013   8.092   5.356   4.007
57394SOL    HW174014   8.023   5.419   4.029
57394SOL    HW274015   8.058   5.309   3.931
57395SOL     OW74016  12.802   4.491   5.639
57395SOL    HW174017  12.734   4.426   5.657
57395SOL    HW274018  12.768   4.543   5.566
57396SOL     OW74019   7.038   5.709  14.199
57396SOL    HW174020   7.085   5.653  14.138
57396SOL    HW274021   7.104   5.771  14.231
57397SOL     OW74022   4.616   1.505  13.471
57397SOL    HW174023   4.622   1.580  13.530
57397SOL    HW274024   4.634   1.429  13.526
57398SOL     OW74025   2.291   8.567   1.173
57398SOL    HW174026   2.214   8.622   1.160
57398SOL    HW274027   2.259   8.478   1.159
57399SOL     OW74028  10.218   1.236   6.107
57399SOL    HW174029  10.275   1.306   6.139
57399SOL    HW274030  10.238   1.161   6.163
57400SOL     OW74031   4.310   1.226   2.383
57400SOL    HW174032   4.283   1.161   2.318
57400SOL    HW274033   4.308   1.309   2.336
57401SOL     OW74034   7.155   8.539  12.051
57401SOL    HW174035   7.095   8.608  12.079
57401SOL    HW274036   7.102   8.485  11.992
57402SOL     OW74037  13.267   8.423  12.984
57402SOL    HW174038  13.322   8.392  13.056
57402SOL    HW274039  13.324   8.479  12.932
57403SOL     OW74040   8.006  11.034   5.671
57403SOL    HW174041   7.944  11.106   5.669
57403SOL    HW274042   8.092  11.076   5.672
57404SOL     OW74043  12.032   3.696   4.121
57404SOL    HW174044  11.988   3.674   4.038
57404SOL    HW274045  11.963   3.689   4.187
57405SOL     OW74046  13.793   3.717  12.296
57405SOL    HW174047  13.733   3.734  12.369
57405SOL    HW274048  13.811   3.624  12.302
57406SOL     OW74049  10.270   5.197   9.049
57406SOL    HW174050  10.179   5.169   9.046
57406SOL    HW274051  10.315   5.127   9.097
57407SOL     OW74052   3.030   0.997   5.680
57407SOL    HW174053   2.938   0.987   5.704
57407SOL    HW274054   3.029   1.054   5.603
57408SOL     OW74055   9.081   9.269  14.119
57408SOL    HW174056   9.154   9.218  14.085
57408SOL    HW274057   9.117   9.356  14.133
57409SOL     OW74058   7.413   4.381  10.580
57409SOL    HW174059   7.439   4.295  10.549
57409SOL    HW274060   7.386   4.428  10.500
57410SOL     OW74061  11.061  10.706   9.327
57410SOL    HW174062  11.078  10.792   9.364
57410SOL    HW274063  11.014  10.724   9.246
57411SOL     OW74064   0.323   7.226   8.692
57411SOL    HW174065   0.238   7.232   8.649
57411SOL    HW274066   0.385   7.255   8.626
57412SOL     OW74067   3.253   6.939  12.309
57412SOL    HW174068   3.271   7.006  12.375
57412SOL    HW274069   3.288   6.858  12.347
57413SOL     OW74070   4.013   9.418   3.892
57413SOL    HW174071   3.926   9.387   3.868
57413SOL    HW274072   4.074   9.362   3.844
57414SOL     OW74073   2.381  10.167  12.269
57414SOL    HW174074   2.381  10.140  12.361
57414SOL    HW274075   2.428  10.250  12.268
57415SOL     OW74076   0.413  13.264   1.236
57415SOL    HW174077   0.376  13.353   1.237
57415SOL    HW274078   0.483  13.268   1.171
57416SOL     OW74079   2.133   6.318   8.069
57416SOL    HW174080   2.198   6.280   8.129
57416SOL    HW274081   2.183   6.380   8.016
57417SOL     OW74082  11.593   4.042   2.904
57417SOL    HW174083  11.679   4.017   2.869
57417SOL    HW274084  11.594   4.009   2.994
57418SOL     OW74085  12.370  12.795   0.713
57418SOL    HW174086  12.400  12.776   0.801
57418SOL    HW274087  12.287  12.841   0.725
57419SOL     OW74088   6.316   3.569   8.886
57419SOL    HW174089   6.238   3.606   8.926
57419SOL    HW274090   6.388   3.623   8.919
57420SOL     OW74091   3.262  13.665   2.006
57420SOL    HW174092   3.290  13.753   1.980
57420SOL    HW274093   3.173  13.656   1.970
57421SOL     OW74094   3.762   1.671  11.933
57421SOL    HW174095   3.779   1.653  11.841
57421SOL    HW274096   3.702   1.601  11.960
57422SOL     OW74097   3.471   6.044  13.598
57422SOL    HW174098   3.394   6.009  13.644
57422SOL    HW274099   3.533   5.971  13.597
57423SOL     OW74100   2.857   9.743   3.671
57423SOL    HW174101   2.792   9.674   3.655
57423SOL    HW274102   2.941   9.698   3.661
57424SOL     OW74103   8.294   9.779  12.363
57424SOL    HW174104   8.233   9.757  12.292
57424SOL    HW274105   8.279   9.711  12.428
57425SOL     OW74106  12.950   3.611   1.287
57425SOL    HW174107  12.982   3.536   1.236
57425SOL    HW274108  12.855   3.609   1.275
57426SOL     OW74109   2.774   9.343   7.753
57426SOL    HW174110   2.771   9.438   7.745
57426SOL    HW274111   2.860   9.319   7.719
57427SOL     OW74112   0.592  13.448   3.322
57427SOL    HW174113   0.653  13.474   3.254
57427SOL    HW274114   0.645  13.445   3.402
57428SOL     OW74115   7.466   6.309   0.011
57428SOL    HW174116   7.550   6.263   0.012
57428SOL    HW274117   7.405   6.248  14.841
57429SOL     OW74118  11.109   4.162   8.953
57429SOL    HW174119  11.068   4.078   8.973
57429SOL    HW274120  11.041   4.213   8.910
57430SOL     OW74121   9.225   5.364   7.903
57430SOL    HW174122   9.304   5.363   7.958
57430SOL    HW274123   9.247   5.422   7.830
57431SOL     OW74124   3.449   3.778   9.668
57431SOL    HW174125   3.361   3.789   9.632
57431SOL    HW274126   3.465   3.683   9.664
57432SOL     OW74127   5.244   5.325  12.869
57432SOL    HW174128   5.300   5.331  12.792
57432SOL    HW274129   5.224   5.416  12.891
57433SOL     OW74130   0.744  12.054   1.045
57433SOL    HW174131   0.773  11.971   1.007
57433SOL    HW274132   0.814  12.115   1.024
57434SOL     OW74133   2.555   9.131   8.973
57434SOL    HW174134   2.637   9.179   8.980
57434SOL    HW274135   2.509   9.174   8.901
57435SOL     OW74136   7.941  10.552  13.741
57435SOL    HW174137   7.980  10.593  13.818
57435SOL    HW274138   7.858  10.516  13.772
57436SOL     OW74139   9.171   1.554   0.317
57436SOL    HW174140   9.217   1.546   0.401
57436SOL    HW274141   9.130   1.469   0.304
57437SOL     OW74142  12.885   0.924  14.229
57437SOL    HW174143  12.819   0.982  14.268
57437SOL    HW274144  12.898   0.958  14.140
57438SOL     OW74145   0.022   8.466   2.460
57438SOL    HW174146   0.106   8.421   2.472
57438SOL    HW274147  14.858   8.428   2.380
57439SOL     OW74148   8.068  13.674   2.938
57439SOL    HW174149   8.043  13.741   2.875
57439SOL    HW274150   7.991  13.662   2.993
57440SOL     OW74151   5.802   3.040  13.469
57440SOL    HW174152   5.853   3.028  13.389
57440SOL    HW274153   5.712   3.050  13.439
57441SOL     OW74154   5.954   4.252   9.500
57441SOL    HW174155   5.940   4.283   9.590
57441SOL    HW274156   6.040   4.211   9.502
57442SOL     OW74157   1.843   7.497   3.053
57442SOL    HW174158   1.894   7.487   2.973
57442SOL    HW274159   1.900   7.548   3.111
57443SOL     OW74160  14.816   4.255  11.027
57443SOL    HW174161  14.782   4.345  11.031
57443SOL    HW274162  14.849   4.247  10.937
57444SOL     OW74163  12.960  10.737  13.252
57444SOL    HW174164  12.961  10.683  13.173
57444SOL    HW274165  12.877  10.715  13.295
57445SOL     OW74166   0.842   0.084   5.602
57445SOL    HW174167   0.926   0.060   5.564
57445SOL    HW274168   0.789   0.005   5.596
57446SOL     OW74169   6.188   9.892   9.633
57446SOL    HW174170   6.104   9.853   9.610
57446SOL    HW274171   6.175   9.986   9.622
57447SOL     OW74172   8.703   2.895   0.299
57447SOL    HW174173   8.621   2.854   0.329
57447SOL    HW274174   8.681   2.930   0.213
57448SOL     OW74175   5.276   3.696   9.134
57448SOL    HW174176   5.368   3.719   9.149
57448SOL    HW274177   5.277   3.647   9.052
57449SOL     OW74178  14.456   0.924  11.675
57449SOL    HW174179  14.498   0.962  11.597
57449SOL    HW274180  14.520   0.936  11.745
57450SOL     OW74181   2.620   3.827   0.644
57450SOL    HW174182   2.572   3.745   0.630
57450SOL    HW274183   2.704   3.799   0.680
57451SOL     OW74184  14.079  10.151   6.690
57451SOL    HW174185  14.023  10.078   6.716
57451SOL    HW274186  14.031  10.229   6.717
57452SOL     OW74187  11.437   9.969   6.294
57452SOL    HW174188  11.407  10.003   6.378
57452SOL    HW274189  11.356   9.948   6.247
57453SOL     OW74190   6.565   0.122   9.386
57453SOL    HW174191   6.602   0.206   9.412
57453SOL    HW274192   6.612   0.058   9.438
57454SOL     OW74193  10.215  11.208   5.113
57454SOL    HW174194  10.148  11.217   5.045
57454SOL    HW274195  10.238  11.115   5.113
57455SOL     OW74196   4.908  13.436  10.647
57455SOL    HW174197   4.834  13.496  10.635
57455SOL    HW274198   4.884  13.359  10.594
57456SOL     OW74199  11.332  11.645   7.724
57456SOL    HW174200  11.371  11.635   7.637
57456SOL    HW274201  11.241  11.619   7.713
57457SOL     OW74202   8.734   6.186   2.536
57457SOL    HW174203   8.818   6.230   2.532
57457SOL    HW274204   8.693   6.220   2.616
57458SOL     OW74205   4.679  11.409   8.528
57458SOL    HW174206   4.698  11.490   8.577
57458SOL    HW274207   4.585  11.398   8.537
57459SOL     OW74208  11.652  13.373  10.859
57459SOL    HW174209  11.594  13.307  10.896
57459SOL    HW274210  11.683  13.423  10.935
57460SOL     OW74211   9.424   9.206  11.834
57460SOL    HW174212   9.372   9.266  11.779
57460SOL    HW274213   9.416   9.121  11.790
57461SOL     OW74214   0.384   9.243   7.478
57461SOL    HW174215   0.458   9.235   7.417
57461SOL    HW274216   0.346   9.155   7.481
57462SOL     OW74217   8.459   4.766   9.758
57462SOL    HW174218   8.432   4.736   9.671
57462SOL    HW274219   8.381   4.811   9.792
57463SOL     OW74220  13.667   9.153   9.469
57463SOL    HW174221  13.650   9.081   9.530
57463SOL    HW274222  13.735   9.205   9.513
57464SOL     OW74223   7.331  11.955   8.375
57464SOL    HW174224   7.245  11.996   8.386
57464SOL    HW274225   7.378  12.013   8.315
57465SOL     OW74226   6.126   7.792  10.475
57465SOL    HW174227   6.160   7.794  10.386
57465SOL    HW274228   6.141   7.703  10.505
57466SOL     OW74229   7.147   8.498  12.486
57466SOL    HW174230   7.234   8.538  12.495
57466SOL    HW274231   7.161   8.422  12.430
57467SOL     OW74232   4.224   7.465   7.731
57467SOL    HW174233   4.279   7.392   7.760
57467SOL    HW274234   4.147   7.459   7.787
57468SOL     OW74235   0.729  13.171   3.745
57468SOL    HW174236   0.659  13.151   3.806
57468SOL    HW274237   0.694  13.242   3.691
57469SOL     OW74238  12.578   2.200   7.384
57469SOL    HW174239  12.609   2.282   7.344
57469SOL    HW274240  12.650   2.173   7.441
57470SOL     OW74241   3.406   6.673   5.169
57470SOL    HW174242   3.435   6.631   5.250
57470SOL    HW274243   3.324   6.630   5.147
57471SOL     OW74244   0.544  11.273  14.015
57471SOL    HW174245   0.600  11.296  14.090
57471SOL    HW274246   0.556  11.179  14.005
57472SOL     OW74247   1.131   5.439  12.833
57472SOL    HW174248   1.198   5.372  12.818
57472SOL    HW274249   1.167   5.494  12.903
57473SOL     OW74250   6.950  12.853  10.732
57473SOL    HW174251   6.973  12.864  10.639
57473SOL    HW274252   7.033  12.836  10.776
57474SOL     OW74253  13.621   6.068  11.435
57474SOL    HW174254  13.645   6.150  11.478
57474SOL    HW274255  13.531   6.053  11.461
57475SOL     OW74256  10.801   0.227   0.118
57475SOL    HW174257  10.752   0.169   0.061
57475SOL    HW274258  10.850   0.283   0.058
57476SOL     OW74259   5.982   9.419   0.411
57476SOL    HW174260   6.022   9.352   0.356
57476SOL    HW274261   6.006   9.502   0.369
57477SOL     OW74262   5.647  13.982   7.978
57477SOL    HW174263   5.582  13.958   7.912
57477SOL    HW274264   5.731  13.962   7.937
57478SOL     OW74265   2.002   4.110   5.565
57478SOL    HW174266   1.930   4.120   5.628
57478SOL    HW274267   2.012   4.197   5.527
57479SOL     OW74268  11.115  14.824   3.257
57479SOL    HW174269  11.029  14.848   3.291
57479SOL    HW274270  11.145   0.029   3.209
57480SOL     OW74271   0.326   7.222   6.836
57480SOL    HW174272   0.405   7.189   6.878
57480SOL    HW274273   0.321   7.314   6.862
57481SOL     OW74274   1.220   4.949  12.920
57481SOL    HW174275   1.206   4.855  12.902
57481SOL    HW274276   1.299   4.951  12.974
57482SOL     OW74277  12.821   7.788   9.865
57482SOL    HW174278  12.745   7.731   9.860
57482SOL    HW274279  12.786   7.877   9.853
57483SOL     OW74280  13.389   2.505   2.615
57483SOL    HW174281  13.344   2.470   2.691
57483SOL    HW274282  13.451   2.437   2.590
57484SOL     OW74283   5.575  11.574  11.755
57484SOL    HW174284   5.610  11.534  11.676
57484SOL    HW274285   5.518  11.507  11.793
57485SOL     OW74286  12.260   2.164   4.294
57485SOL    HW174287  12.253   2.099   4.364
57485SOL    HW274288  12.226   2.245   4.332
57486SOL     OW74289  12.521  12.279  10.008
57486SOL    HW174290  12.474  12.354  10.042
57486SOL    HW274291  12.587  12.259  10.074
57487SOL     OW74292   9.518   2.064   9.278
57487SOL    HW174293   9.589   2.002   9.264
57487SOL    HW274294   9.525   2.124   9.203
57488SOL     OW74295   5.374   2.215   4.578
57488SOL    HW174296   5.345   2.181   4.494
57488SOL    HW274297   5.469   2.212   4.574
57489SOL     OW74298   2.693  13.079   9.595
57489SOL    HW174299   2.628  13.139   9.560
57489SOL    HW274300   2.747  13.133   9.653
57490SOL     OW74301  14.149   2.363   4.447
57490SOL    HW174302  14.196   2.350   4.365
57490SOL    HW274303  14.144   2.458   4.457
57491SOL     OW74304   5.655   7.308   3.980
57491SOL    HW174305   5.706   7.294   4.060
57491SOL    HW274306   5.652   7.221   3.938
57492SOL     OW74307   7.828   1.702  12.832
57492SOL    HW174308   7.740   1.672  12.813
57492SOL    HW274309   7.832   1.791  12.797
57493SOL     OW74310   1.589   6.297  13.326
57493SOL    HW174311   1.530   6.300  13.402
57493SOL    HW274312   1.561   6.220  13.277
57494SOL     OW74313   9.528   6.702   1.691
57494SOL    HW174314   9.607   6.658   1.661
57494SOL    HW274315   9.473   6.632   1.727
57495SOL     OW74316   6.239  11.932  10.922
57495SOL    HW174317   6.276  11.934  11.011
57495SOL    HW274318   6.222  11.840  10.906
57496SOL     OW74319  14.365   8.231  12.794
57496SOL    HW174320  14.277   8.258  12.818
57496SOL    HW274321  14.352   8.164  12.727
57497SOL     OW74322  11.968  12.769  10.048
57497SOL    HW174323  11.890  12.782  10.102
57497SOL    HW274324  11.964  12.838   9.982
57498SOL     OW74325   6.513  12.113  13.322
57498SOL    HW174326   6.464  12.193  13.340
57498SOL    HW274327   6.530  12.076  13.409
57499SOL     OW74328   4.719   9.497  13.628
57499SOL    HW174329   4.716   9.437  13.553
57499SOL    HW274330   4.750   9.443  13.701
57500SOL     OW74331  13.684   0.163  10.507
57500SOL    HW174332  13.645   0.116  10.581
57500SOL    HW274333  13.735   0.233  10.548
57501SOL     OW74334  12.934   0.047   6.350
57501SOL    HW174335  12.872   0.019   6.283
57501SOL    HW274336  12.895   0.126   6.387
57502SOL     OW74337   5.848   4.118  10.043
57502SOL    HW174338   5.932   4.072  10.049
57502SOL    HW274339   5.871   4.211  10.053
57503SOL     OW74340  10.397   7.467   3.470
57503SOL    HW174341  10.418   7.520   3.394
57503SOL    HW274342  10.301   7.472   3.477
57504SOL     OW74343  10.206   4.026   9.852
57504SOL    HW174344  10.235   4.116   9.838
57504SOL    HW274345  10.205   4.016   9.947
57505SOL     OW74346   7.182   0.476  14.785
57505SOL    HW174347   7.135   0.394  14.800
57505SOL    HW274348   7.237   0.486  14.863
57506SOL     OW74349   0.048   8.180  12.610
57506SOL    HW174350   0.091   8.150  12.690
57506SOL    HW274351  14.866   8.106  12.583
57507SOL     OW74352  14.616   1.458  13.926
57507SOL    HW174353  14.601   1.415  14.010
57507SOL    HW274354  14.585   1.395  13.861
57508SOL     OW74355   8.798   7.936   8.578
57508SOL    HW174356   8.791   7.864   8.515
57508SOL    HW274357   8.796   8.015   8.524
57509SOL     OW74358  10.361   6.228   0.595
57509SOL    HW174359  10.446   6.270   0.607
57509SOL    HW274360  10.299   6.301   0.584
57510SOL     OW74361   1.329   8.162   7.285
57510SOL    HW174362   1.342   8.067   7.293
57510SOL    HW274363   1.333   8.179   7.191
57511SOL     OW74364  12.595   0.693   4.952
57511SOL    HW174365  12.530   0.760   4.970
57511SOL    HW274366  12.549   0.628   4.899
57512SOL     OW74367  12.025  13.274   5.225
57512SOL    HW174368  11.978  13.334   5.282
57512SOL    HW274369  11.956  13.224   5.181
57513SOL     OW74370   0.228   5.874   5.214
57513SOL    HW174371   0.168   5.912   5.151
57513SOL    HW274372   0.188   5.892   5.299
57514SOL     OW74373   0.247  12.063   7.878
57514SOL    HW174374   0.187  11.992   7.902
57514SOL    HW274375   0.239  12.126   7.950
57515SOL     OW74376   8.255   8.571  10.847
57515SOL    HW174377   8.216   8.635  10.906
57515SOL    HW274378   8.254   8.489  10.897
57516SOL     OW74379   4.165  11.419   3.661
57516SOL    HW174380   4.215  11.450   3.736
57516SOL    HW274381   4.225  11.429   3.587
57517SOL     OW74382   5.024   7.954  14.572
57517SOL    HW174383   5.096   8.001  14.614
57517SOL    HW274384   5.060   7.926  14.488
57518SOL     OW74385   5.814   4.082   1.160
57518SOL    HW174386   5.802   4.177   1.165
57518SOL    HW274387   5.772   4.058   1.077
57519SOL     OW74388  11.951   9.312   0.931
57519SOL    HW174389  12.047   9.315   0.931
57519SOL    HW274390  11.930   9.219   0.937
57520SOL     OW74391  11.110   0.911   9.786
57520SOL    HW174392  11.069   0.871   9.709
57520SOL    HW274393  11.061   0.992   9.799
57521SOL     OW74394   6.181   3.357  12.342
57521SOL    HW174395   6.153   3.335  12.253
57521SOL    HW274396   6.103   3.396  12.383
57522SOL     OW74397   1.734   4.742  13.037
57522SOL    HW174398   1.639   4.747  13.046
57522SOL    HW274399   1.767   4.737  13.126
57523SOL     OW74400   7.551   2.675  13.978
57523SOL    HW174401   7.509   2.711  14.056
57523SOL    HW274402   7.615   2.612  14.012
57524SOL     OW74403   6.754   6.514   1.951
57524SOL    HW174404   6.685   6.535   1.888
57524SOL    HW274405   6.721   6.437   1.997
57525SOL     OW74406  11.436   9.493   0.075
57525SOL    HW174407  11.432   9.535  14.861
57525SOL    HW274408  11.388   9.552   0.133
57526SOL     OW74409   2.675   0.960   4.488
57526SOL    HW174410   2.764   0.952   4.522
57526SOL    HW274411   2.656   1.053   4.493
57527SOL     OW74412   4.710   1.253   5.639
57527SOL    HW174413   4.704   1.189   5.568
57527SOL    HW274414   4.803   1.262   5.656
57528SOL     OW74415   4.151  12.172  12.378
57528SOL    HW174416   4.172  12.138  12.465
57528SOL    HW274417   4.117  12.259  12.393
57529SOL     OW74418  13.185   8.994   0.779
57529SOL    HW174419  13.183   9.090   0.783
57529SOL    HW274420  13.230   8.967   0.859
57530SOL     OW74421   8.898   3.899  11.533
57530SOL    HW174422   8.899   3.880  11.439
57530SOL    HW274423   8.811   3.935  11.550
57531SOL     OW74424   4.647  14.337  14.792
57531SOL    HW174425   4.722  14.293  14.751
57531SOL    HW274426   4.648  14.425  14.755
57532SOL     OW74427   6.473  14.021   9.177
57532SOL    HW174428   6.516  14.094   9.131
57532SOL    HW274429   6.497  13.943   9.127
57533SOL     OW74430   6.035   1.836   1.945
57533SOL    HW174431   5.975   1.778   1.899
57533SOL    HW274432   6.021   1.922   1.906
57534SOL     OW74433   7.745   7.539  11.566
57534SOL    HW174434   7.739   7.585  11.649
57534SOL    HW274435   7.669   7.481  11.564
57535SOL     OW74436   9.188   3.659   6.362
57535SOL    HW174437   9.203   3.703   6.279
57535SOL    HW274438   9.189   3.728   6.427
57536SOL     OW74439   3.842  13.845  10.862
57536SOL    HW174440   3.916  13.844  10.922
57536SOL    HW274441   3.773  13.798  10.909
57537SOL     OW74442  13.602  13.802   6.195
57537SOL    HW174443  13.521  13.853   6.188
57537SOL    HW274444  13.666  13.852   6.145
57538SOL     OW74445  10.561  13.967  12.337
57538SOL    HW174446  10.506  13.996  12.264
57538SOL    HW274447  10.521  13.886  12.368
57539SOL     OW74448  14.383  11.096  12.851
57539SOL    HW174449  14.410  11.011  12.886
57539SOL    HW274450  14.454  11.120  12.791
57540SOL     OW74451   5.668  14.006   0.051
57540SOL    HW174452   5.718  14.006  14.841
57540SOL    HW274453   5.729  14.041   0.116
57541SOL     OW74454   3.319   4.661  12.872
57541SOL    HW174455   3.249   4.639  12.810
57541SOL    HW274456   3.397   4.669  12.817
57542SOL     OW74457  13.317   5.514   1.671
57542SOL    HW174458  13.340   5.449   1.604
57542SOL    HW274459  13.399   5.562   1.685
57543SOL     OW74460  13.029  11.461  10.800
57543SOL    HW174461  12.939  11.484  10.821
57543SOL    HW274462  13.026  11.368  10.776
57544SOL     OW74463  11.861  13.312   9.258
57544SOL    HW174464  11.946  13.305   9.215
57544SOL    HW274465  11.804  13.352   9.193
57545SOL     OW74466  11.261   0.666  10.457
57545SOL    HW174467  11.340   0.685  10.408
57545SOL    HW274468  11.291   0.612  10.530
57546SOL     OW74469   7.721  11.319   1.563
57546SOL    HW174470   7.768  11.366   1.494
57546SOL    HW274471   7.703  11.233   1.525
57547SOL     OW74472   8.779   0.536  13.261
57547SOL    HW174473   8.723   0.606  13.228
57547SOL    HW274474   8.859   0.542  13.208
57548SOL     OW74475  10.853  14.464   2.950
57548SOL    HW174476  10.914  14.475   3.023
57548SOL    HW274477  10.813  14.378   2.965
57549SOL     OW74478   3.695   2.464  10.695
57549SOL    HW174479   3.721   2.389  10.640
57549SOL    HW274480   3.713   2.540  10.640
57550SOL     OW74481   9.127  13.611   9.663
57550SOL    HW174482   9.040  13.576   9.684
57550SOL    HW274483   9.186  13.537   9.674
57551SOL     OW74484   6.377   2.694   3.795
57551SOL    HW174485   6.448   2.641   3.831
57551SOL    HW274486   6.343   2.642   3.722
57552SOL     OW74487   7.158   7.252  14.826
57552SOL    HW174488   7.224   7.200  14.782
57552SOL    HW274489   7.175   7.342  14.797
57553SOL     OW74490   8.502  10.541  11.671
57553SOL    HW174491   8.480  10.527  11.763
57553SOL    HW274492   8.427  10.507  11.623
57554SOL     OW74493  11.794   8.752   8.868
57554SOL    HW174494  11.886   8.765   8.847
57554SOL    HW274495  11.774   8.820   8.932
57555SOL     OW74496   8.193   3.476   1.633
57555SOL    HW174497   8.231   3.512   1.713
57555SOL    HW274498   8.264   3.426   1.593
57556SOL     OW74499  11.867   7.730   8.583
57556SOL    HW174500  11.847   7.689   8.668
57556SOL    HW274501  11.936   7.793   8.603
57557SOL     OW74502   7.493   3.090  12.079
57557SOL    HW174503   7.437   3.102  12.002
57557SOL    HW274504   7.582   3.104  12.046
57558SOL     OW74505  13.523  10.072   4.700
57558SOL    HW174506  13.538  10.087   4.606
57558SOL    HW274507  13.519   9.977   4.708
57559SOL     OW74508   4.632  13.958   1.817
57559SOL    HW174509   4.555  13.907   1.840
57559SOL    HW274510   4.629  13.964   1.722
57560SOL     OW74511   4.805   2.980   9.384
57560SOL    HW174512   4.745   2.912   9.352
57560SOL    HW274513   4.794   2.979   9.479
57561SOL     OW74514  11.039   2.775  14.706
57561SOL    HW174515  11.112   2.726  14.667
57561SOL    HW274516  10.984   2.708  14.746
57562SOL     OW74517   0.019   8.025   5.299
57562SOL    HW174518   0.058   7.984   5.376
57562SOL    HW274519   0.092   8.073   5.258
57563SOL     OW74520   8.362   3.733   1.473
57563SOL    HW174521   8.307   3.721   1.550
57563SOL    HW274522   8.301   3.746   1.400
57564SOL     OW74523   9.521   4.250  12.543
57564SOL    HW174524   9.551   4.181  12.603
57564SOL    HW274525   9.570   4.233  12.462
57565SOL     OW74526  12.600   8.592  14.583
57565SOL    HW174527  12.628   8.668  14.533
57565SOL    HW274528  12.579   8.526  14.517
57566SOL     OW74529  14.292   0.502  10.502
57566SOL    HW174530  14.290   0.597  10.514
57566SOL    HW274531  14.348   0.488  10.426
57567SOL     OW74532   5.748   5.798   2.887
57567SOL    HW174533   5.677   5.856   2.860
57567SOL    HW274534   5.737   5.787   2.981
57568SOL     OW74535  13.295   6.329   3.396
57568SOL    HW174536  13.251   6.414   3.395
57568SOL    HW274537  13.281   6.296   3.485
57569SOL     OW74538   2.256   6.722   7.353
57569SOL    HW174539   2.281   6.750   7.265
57569SOL    HW274540   2.173   6.677   7.341
57570SOL     OW74541   5.901  13.593  13.597
57570SOL    HW174542   5.848  13.566  13.522
57570SOL    HW274543   5.953  13.666  13.565
57571SOL     OW74544   7.467   6.513   7.625
57571SOL    HW174545   7.389   6.567   7.610
57571SOL    HW274546   7.538   6.562   7.584
57572SOL     OW74547  10.107  12.901  11.853
57572SOL    HW174548  10.107  12.897  11.758
57572SOL    HW274549  10.198  12.919  11.876
57573SOL     OW74550  13.224   3.062  13.425
57573SOL    HW174551  13.272   3.050  13.343
57573SOL    HW274552  13.148   3.114  13.400
57574SOL     OW74553   4.593   4.467   7.380
57574SOL    HW174554   4.557   4.556   7.380
57574SOL    HW274555   4.555   4.425   7.457
57575SOL     OW74556  11.053  11.122  10.688
57575SOL    HW174557  10.962  11.140  10.665
57575SOL    HW274558  11.097  11.109  10.604
57576SOL     OW74559  12.847  13.319  10.807
57576SOL    HW174560  12.831  13.253  10.874
57576SOL    HW274561  12.943  13.321  10.797
57577SOL     OW74562   6.734   2.937   7.620
57577SOL    HW174563   6.649   2.970   7.590
57577SOL    HW274564   6.712   2.878   7.693
57578SOL     OW74565   0.740  12.760   9.724
57578SOL    HW174566   0.722  12.853   9.735
57578SOL    HW274567   0.697  12.718   9.798
57579SOL     OW74568  12.861  10.695  13.837
57579SOL    HW174569  12.799  10.763  13.862
57579SOL    HW274570  12.836  10.672  13.747
57580SOL     OW74571   0.132  12.438  14.755
57580SOL    HW174572   0.059  12.499  14.739
57580SOL    HW274573   0.164  12.416  14.667
57581SOL     OW74574   9.780   8.486   7.257
57581SOL    HW174575   9.843   8.553   7.229
57581SOL    HW274576   9.716   8.534   7.309
57582SOL     OW74577   6.824  10.196   6.945
57582SOL    HW174578   6.834  10.161   6.857
57582SOL    HW274579   6.876  10.276   6.945
57583SOL     OW74580   2.806  13.149   9.905
57583SOL    HW174581   2.830  13.171   9.816
57583SOL    HW274582   2.710  13.151   9.906
57584SOL     OW74583  12.833   8.055  11.297
57584SOL    HW174584  12.919   8.022  11.323
57584SOL    HW274585  12.784   7.977  11.271
57585SOL     OW74586   8.578   8.340   7.226
57585SOL    HW174587   8.615   8.416   7.270
57585SOL    HW274588   8.643   8.317   7.160
57586SOL     OW74589   7.387  10.559   8.762
57586SOL    HW174590   7.429  10.499   8.700
57586SOL    HW274591   7.296  10.562   8.734
57587SOL     OW74592   8.834   4.465   5.381
57587SOL    HW174593   8.750   4.447   5.340
57587SOL    HW274594   8.820   4.544   5.432
57588SOL     OW74595   4.205   2.867   3.740
57588SOL    HW174596   4.183   2.792   3.796
57588SOL    HW274597   4.121   2.902   3.713
57589SOL     OW74598   2.980  12.698   1.987
57589SOL    HW174599   2.948  12.773   2.037
57589SOL    HW274600   2.988  12.628   2.053
57590SOL     OW74601   3.064   6.529   6.907
57590SOL    HW174602   3.131   6.468   6.877
57590SOL    HW274603   3.100   6.615   6.888
57591SOL     OW74604  11.358  10.850   1.218
57591SOL    HW174605  11.361  10.898   1.301
57591SOL    HW274606  11.432  10.884   1.168
57592SOL     OW74607   8.503  14.570   6.091
57592SOL    HW174608   8.434  14.590   6.027
57592SOL    HW274609   8.535  14.656   6.118
57593SOL     OW74610  11.498   1.799   6.395
57593SOL    HW174611  11.494   1.793   6.491
57593SOL    HW274612  11.513   1.891   6.377
57594SOL     OW74613   5.081  13.290  14.670
57594SOL    HW174614   5.009  13.322  14.725
57594SOL    HW274615   5.058  13.200  14.650
57595SOL     OW74616   0.009   6.488   4.035
57595SOL    HW174617  14.850   6.433   3.963
57595SOL    HW274618   0.073   6.433   4.081
57596SOL     OW74619   7.668  12.451   2.867
57596SOL    HW174620   7.724  12.447   2.790
57596SOL    HW274621   7.703  12.525   2.918
57597SOL     OW74622   6.663  13.920   4.544
57597SOL    HW174623   6.669  13.971   4.625
57597SOL    HW274624   6.704  13.837   4.565
57598SOL     OW74625   5.188   2.118   1.659
57598SOL    HW174626   5.269   2.085   1.619
57598SOL    HW274627   5.209   2.127   1.751
57599SOL     OW74628  11.259   6.073   2.946
57599SOL    HW174629  11.203   6.148   2.927
57599SOL    HW274630  11.211   5.998   2.911
57600SOL     OW74631  12.428   8.776  12.669
57600SOL    HW174632  12.508   8.734  12.700
57600SOL    HW274633  12.397   8.826  12.745
57601SOL     OW74634   0.976   1.301   4.573
57601SOL    HW174635   0.948   1.355   4.499
57601SOL    HW274636   0.969   1.360   4.649
57602SOL     OW74637   7.305   0.920   9.106
57602SOL    HW174638   7.299   0.929   9.011
57602SOL    HW274639   7.225   0.961   9.140
57603SOL     OW74640   9.747  11.696   8.239
57603SOL    HW174641   9.665  11.680   8.284
57603SOL    HW274642   9.741  11.644   8.158
57604SOL     OW74643   8.299   5.761   4.622
57604SOL    HW174644   8.393   5.759   4.637
57604SOL    HW274645   8.262   5.789   4.706
57605SOL     OW74646   6.942  12.478   0.005
57605SOL    HW174647   6.985  12.522   0.078
57605SOL    HW274648   6.887  12.411   0.046
57606SOL     OW74649   2.647  14.444   5.265
57606SOL    HW174650   2.587  14.465   5.193
57606SOL    HW274651   2.621  14.356   5.292
57607SOL     OW74652   9.074   7.309   8.165
57607SOL    HW174653   8.998   7.315   8.223
57607SOL    HW274654   9.071   7.219   8.131
57608SOL     OW74655   6.741   7.328  13.157
57608SOL    HW174656   6.760   7.353  13.066
57608SOL    HW274657   6.732   7.233  13.154
57609SOL     OW74658   8.255   2.724   3.506
57609SOL    HW174659   8.318   2.657   3.481
57609SOL    HW274660   8.304   2.806   3.502
57610SOL     OW74661   9.911  10.824   7.342
57610SOL    HW174662   9.915  10.827   7.247
57610SOL    HW274663   9.887  10.913   7.368
57611SOL     OW74664   8.615   3.131  12.322
57611SOL    HW174665   8.678   3.071  12.361
57611SOL    HW274666   8.574   3.174  12.397
57612SOL     OW74667   4.701  11.615   8.691
57612SOL    HW174668   4.741  11.694   8.728
57612SOL    HW274669   4.655  11.575   8.765
57613SOL     OW74670  10.427   1.642   7.427
57613SOL    HW174671  10.499   1.651   7.364
57613SOL    HW274672  10.453   1.567   7.481
57614SOL     OW74673   2.353   4.721  10.495
57614SOL    HW174674   2.269   4.677  10.481
57614SOL    HW274675   2.418   4.652  10.480
57615SOL     OW74676   7.378  11.379   1.917
57615SOL    HW174677   7.432  11.346   1.845
57615SOL    HW274678   7.292  11.395   1.877
57616SOL     OW74679   7.198   5.591   4.385
57616SOL    HW174680   7.242   5.596   4.469
57616SOL    HW274681   7.228   5.508   4.347
57617SOL     OW74682   3.493   9.156   9.501
57617SOL    HW174683   3.561   9.169   9.435
57617SOL    HW274684   3.539   9.167   9.585
57618SOL     OW74685   5.538  11.138   7.814
57618SOL    HW174686   5.519  11.060   7.866
57618SOL    HW274687   5.470  11.201   7.839
57619SOL     OW74688   0.385   3.700   5.427
57619SOL    HW174689   0.377   3.721   5.334
57619SOL    HW274690   0.418   3.610   5.428
57620SOL     OW74691   3.133  14.784   5.060
57620SOL    HW174692   3.210  14.737   5.094
57620SOL    HW274693   3.106  14.841   5.132
57621SOL     OW74694  14.677   5.826   5.913
57621SOL    HW174695  14.639   5.906   5.951
57621SOL    HW274696  14.616   5.756   5.938
57622SOL     OW74697   7.575  12.647   0.149
57622SOL    HW174698   7.643  12.597   0.104
57622SOL    HW274699   7.622  12.722   0.186
57623SOL     OW74700   1.483  11.885   1.552
57623SOL    HW174701   1.391  11.897   1.530
57623SOL    HW274702   1.522  11.847   1.473
57624SOL     OW74703   1.168   7.106  11.945
57624SOL    HW174704   1.155   7.190  11.989
57624SOL    HW274705   1.080   7.082  11.915
57625SOL     OW74706   3.955   1.812   1.736
57625SOL    HW174707   3.883   1.762   1.773
57625SOL    HW274708   4.013   1.746   1.697
57626SOL     OW74709  10.870   1.152   8.753
57626SOL    HW174710  10.819   1.137   8.833
57626SOL    HW274711  10.821   1.106   8.684
57627SOL     OW74712   8.220  10.528   4.639
57627SOL    HW174713   8.308  10.494   4.624
57627SOL    HW274714   8.190  10.557   4.553
57628SOL     OW74715   3.484  12.022   5.480
57628SOL    HW174716   3.399  12.064   5.490
57628SOL    HW274717   3.469  11.952   5.415
57629SOL     OW74718   4.467  14.225   9.773
57629SOL    HW174719   4.460  14.131   9.787
57629SOL    HW274720   4.378  14.253   9.750
57630SOL     OW74721   8.635   9.204  13.404
57630SOL    HW174722   8.681   9.147  13.342
57630SOL    HW274723   8.595   9.272  13.350
57631SOL     OW74724  12.533   6.946  12.599
57631SOL    HW174725  12.533   6.895  12.680
57631SOL    HW274726  12.608   7.005  12.608
57632SOL     OW74727   0.653  10.173   0.067
57632SOL    HW174728   0.628  10.247   0.123
57632SOL    HW274729   0.737  10.201   0.029
57633SOL     OW74730   9.753   1.387  11.151
57633SOL    HW174731   9.658   1.403  11.157
57633SOL    HW274732   9.789   1.471  11.122
57634SOL     OW74733   6.849  11.396   6.054
57634SOL    HW174734   6.876  11.369   5.967
57634SOL    HW274735   6.753  11.392   6.052
57635SOL     OW74736   4.400  11.144  10.072
57635SOL    HW174737   4.373  11.141  10.164
57635SOL    HW274738   4.393  11.053  10.042
57636SOL     OW74739   0.276   5.682  14.349
57636SOL    HW174740   0.190   5.713  14.378
57636SOL    HW274741   0.335   5.702  14.422
57637SOL     OW74742  11.674  13.218   6.892
57637SOL    HW174743  11.687  13.182   6.980
57637SOL    HW274744  11.669  13.313   6.905
57638SOL     OW74745  12.285   2.945   7.270
57638SOL    HW174746  12.362   2.960   7.215
57638SOL    HW274747  12.212   2.938   7.209
57639SOL     OW74748  11.602   4.610   1.507
57639SOL    HW174749  11.515   4.574   1.525
57639SOL    HW274750  11.641   4.548   1.445
57640SOL     OW74751   1.535   5.293   0.900
57640SOL    HW174752   1.586   5.216   0.873
57640SOL    HW274753   1.559   5.361   0.837
57641SOL     OW74754  13.216  13.044   6.021
57641SOL    HW174755  13.143  12.984   6.001
57641SOL    HW274756  13.220  13.046   6.116
57642SOL     OW74757   5.879   6.829  14.075
57642SOL    HW174758   5.953   6.772  14.056
57642SOL    HW274759   5.874   6.888  14.000
57643SOL     OW74760  13.372  13.552   9.144
57643SOL    HW174761  13.453  13.598   9.167
57643SOL    HW274762  13.335  13.525   9.229
57644SOL     OW74763   1.496   2.441   0.429
57644SOL    HW174764   1.438   2.500   0.478
57644SOL    HW274765   1.468   2.353   0.455
57645SOL     OW74766  13.924  12.092   2.647
57645SOL    HW174767  13.850  12.118   2.703
57645SOL    HW274768  13.967  12.175   2.626
57646SOL     OW74769   6.160   6.275   4.335
57646SOL    HW174770   6.140   6.355   4.285
57646SOL    HW274771   6.084   6.264   4.393
57647SOL     OW74772   4.854  14.035   4.570
57647SOL    HW174773   4.884  14.101   4.633
57647SOL    HW274774   4.853  13.953   4.620
57648SOL     OW74775  11.677   6.364  12.735
57648SOL    HW174776  11.711   6.302  12.799
57648SOL    HW274777  11.713   6.449  12.763
57649SOL     OW74778  10.734   2.458  11.860
57649SOL    HW174779  10.704   2.531  11.805
57649SOL    HW274780  10.788   2.500  11.928
57650SOL     OW74781   0.494   5.880  11.707
57650SOL    HW174782   0.488   5.973  11.730
57650SOL    HW274783   0.580   5.853  11.739
57651SOL     OW74784   0.581   0.151   1.914
57651SOL    HW174785   0.652   0.211   1.937
57651SOL    HW274786   0.501   0.200   1.933
57652SOL     OW74787   3.266  12.942   3.351
57652SOL    HW174788   3.281  13.013   3.413
57652SOL    HW274789   3.338  12.948   3.288
57653SOL     OW74790  11.019   5.267  13.839
57653SOL    HW174791  11.115   5.263  13.838
57653SOL    HW274792  10.998   5.360  13.845
57654SOL     OW74793   7.802   2.394   2.784
57654SOL    HW174794   7.748   2.402   2.862
57654SOL    HW274795   7.839   2.306   2.789
57655SOL     OW74796  14.267  11.716  12.035
57655SOL    HW174797  14.346  11.680  11.995
57655SOL    HW274798  14.279  11.811  12.030
57656SOL     OW74799  11.744  13.594   0.194
57656SOL    HW174800  11.796  13.605   0.115
57656SOL    HW274801  11.679  13.664   0.190
57657SOL     OW74802   6.694  11.001   6.884
57657SOL    HW174803   6.706  10.908   6.904
57657SOL    HW274804   6.783  11.037   6.884
57658SOL     OW74805   5.129  12.148   1.104
57658SOL    HW174806   5.068  12.183   1.039
57658SOL    HW274807   5.161  12.066   1.064
57659SOL     OW74808   5.844   9.057   4.695
57659SOL    HW174809   5.883   9.018   4.616
57659SOL    HW274810   5.893   9.138   4.708
57660SOL     OW74811   3.269   1.037   3.836
57660SOL    HW174812   3.244   0.946   3.819
57660SOL    HW274813   3.210   1.065   3.905
57661SOL     OW74814   8.239   4.053   6.808
57661SOL    HW174815   8.217   4.090   6.894
57661SOL    HW274816   8.286   3.972   6.828
57662SOL     OW74817   0.914   1.357   8.974
57662SOL    HW174818   0.837   1.407   8.948
57662SOL    HW274819   0.918   1.284   8.913
57663SOL     OW74820   6.563  14.608   8.547
57663SOL    HW174821   6.563  14.528   8.601
57663SOL    HW274822   6.650  14.645   8.559
57664SOL     OW74823   7.167   7.061   1.316
57664SOL    HW174824   7.078   7.025   1.315
57664SOL    HW274825   7.209   7.020   1.392
57665SOL     OW74826  10.377   4.468   9.873
57665SOL    HW174827  10.465   4.449   9.904
57665SOL    HW274828  10.334   4.383   9.866
57666SOL     OW74829  11.785   4.072  14.840
57666SOL    HW174830  11.809   3.980  14.849
57666SOL    HW274831  11.715   4.085   0.032
57667SOL     OW74832  13.610   8.136   7.322
57667SOL    HW174833  13.630   8.072   7.253
57667SOL    HW274834  13.583   8.215   7.274
57668SOL     OW74835   9.021   2.931  11.445
57668SOL    HW174836   9.035   3.025  11.452
57668SOL    HW274837   8.927   2.921  11.431
57669SOL     OW74838   6.058   2.908   2.105
57669SOL    HW174839   6.152   2.894   2.092
57669SOL    HW274840   6.017   2.826   2.079
57670SOL     OW74841  10.104   2.732   4.661
57670SOL    HW174842  10.094   2.713   4.755
57670SOL    HW274843  10.077   2.823   4.653
57671SOL     OW74844  10.483  14.683   5.670
57671SOL    HW174845  10.452  14.598   5.639
57671SOL    HW274846  10.477  14.678   5.765
57672SOL     OW74847   1.200   0.726   6.669
57672SOL    HW174848   1.179   0.638   6.702
57672SOL    HW274849   1.116   0.772   6.670
57673SOL     OW74850   8.426   1.946   4.298
57673SOL    HW174851   8.393   1.997   4.373
57673SOL    HW274852   8.348   1.909   4.258
57674SOL     OW74853  12.339  14.552   6.201
57674SOL    HW174854  12.271  14.609   6.166
57674SOL    HW274855  12.356  14.585   6.289
57675SOL     OW74856   0.055   6.815   0.815
57675SOL    HW174857  14.844   6.773   0.793
57675SOL    HW274858   0.092   6.841   0.730
57676SOL     OW74859  10.558   5.445   9.285
57676SOL    HW174860  10.502   5.457   9.208
57676SOL    HW274861  10.551   5.526   9.334
57677SOL     OW74862  13.919  10.470  11.884
57677SOL    HW174863  13.905  10.553  11.839
57677SOL    HW274864  13.843  10.460  11.942
57678SOL     OW74865  11.479   1.859   7.193
57678SOL    HW174866  11.513   1.918   7.260
57678SOL    HW274867  11.553   1.802   7.172
57679SOL     OW74868  10.104  12.652   8.338
57679SOL    HW174869  10.047  12.706   8.393
57679SOL    HW274870  10.177  12.628   8.396
57680SOL     OW74871   5.022   0.996  10.668
57680SOL    HW174872   5.061   1.071  10.712
57680SOL    HW274873   5.032   0.924  10.729
57681SOL     OW74874   8.055   7.947  12.815
57681SOL    HW174875   7.972   7.931  12.769
57681SOL    HW274876   8.117   7.886  12.774
57682SOL     OW74877   2.846   0.624   1.637
57682SOL    HW174878   2.837   0.712   1.674
57682SOL    HW274879   2.843   0.638   1.542
57683SOL     OW74880  12.320  10.737   5.158
57683SOL    HW174881  12.267  10.817   5.162
57683SOL    HW274882  12.410  10.769   5.156
57684SOL     OW74883  11.141   5.035   7.862
57684SOL    HW174884  11.114   5.081   7.942
57684SOL    HW274885  11.075   4.965   7.852
57685SOL     OW74886   5.862  10.457   8.233
57685SOL    HW174887   5.799  10.431   8.300
57685SOL    HW274888   5.891  10.375   8.194
57686SOL     OW74889   1.332  14.724   0.000
57686SOL    HW174890   1.293  14.723  14.785
57686SOL    HW274891   1.314  14.636   0.035
57687SOL     OW74892   7.106   4.169   9.471
57687SOL    HW174893   7.023   4.214   9.455
57687SOL    HW274894   7.164   4.237   9.506
57688SOL     OW74895   6.298  10.952  11.569
57688SOL    HW174896   6.376  10.979  11.521
57688SOL    HW274897   6.331  10.888  11.633
57689SOL     OW74898   5.901   4.377  14.674
57689SOL    HW174899   5.879   4.353  14.584
57689SOL    HW274900   5.991   4.409  14.669
57690SOL     OW74901  12.870   8.766   6.353
57690SOL    HW174902  12.819   8.808   6.422
57690SOL    HW274903  12.952   8.816   6.349
57691SOL     OW74904  13.209   5.370   7.570
57691SOL    HW174905  13.303   5.362   7.586
57691SOL    HW274906  13.196   5.464   7.553
57692SOL     OW74907   9.302   6.177   5.340
57692SOL    HW174908   9.297   6.089   5.377
57692SOL    HW274909   9.364   6.223   5.396
57693SOL     OW74910   6.930   4.828   5.707
57693SOL    HW174911   7.002   4.882   5.674
57693SOL    HW274912   6.938   4.832   5.802
57694SOL     OW74913  14.220   7.279   4.572
57694SOL    HW174914  14.287   7.318   4.516
57694SOL    HW274915  14.263   7.268   4.657
57695SOL     OW74916  12.580   5.707   9.762
57695SOL    HW174917  12.623   5.729   9.680
57695SOL    HW274918  12.613   5.620   9.784
57696SOL     OW74919   4.833   6.262   9.055
57696SOL    HW174920   4.829   6.260   8.960
57696SOL    HW274921   4.751   6.221   9.084
57697SOL     OW74922  10.578   6.781   3.108
57697SOL    HW174923  10.497   6.828   3.128
57697SOL    HW274924  10.567   6.696   3.150
57698SOL     OW74925   3.766  10.103   3.459
57698SOL    HW174926   3.764  10.079   3.367
57698SOL    HW274927   3.825  10.039   3.500
57699SOL     OW74928   8.953  11.386   8.942
57699SOL    HW174929   9.031  11.365   8.890
57699SOL    HW274930   8.889  11.417   8.878
57700SOL     OW74931  11.997  10.810  14.756
57700SOL    HW174932  12.026  10.877  14.819
57700SOL    HW274933  11.926  10.852  14.708
57701SOL     OW74934   8.394   7.269   0.789
57701SOL    HW174935   8.414   7.190   0.738
57701SOL    HW274936   8.298   7.276   0.785
57702SOL     OW74937  11.290  14.602   9.860
57702SOL    HW174938  11.355  14.562   9.918
57702SOL    HW274939  11.333  14.605   9.775
57703SOL     OW74940  13.137   4.748   0.099
57703SOL    HW174941  13.064   4.739   0.039
57703SOL    HW274942  13.214   4.759   0.042
57704SOL     OW74943   8.251   9.400   7.103
57704SOL    HW174944   8.336   9.360   7.120
57704SOL    HW274945   8.215   9.417   7.190
57705SOL     OW74946   6.414   1.368   9.589
57705SOL    HW174947   6.498   1.341   9.626
57705SOL    HW274948   6.349   1.323   9.643
57706SOL     OW74949   8.648  13.231  14.797
57706SOL    HW174950   8.654  13.170  14.724
57706SOL    HW274951   8.577  13.290  14.773
57707SOL     OW74952  12.585   6.589   6.221
57707SOL    HW174953  12.513   6.629   6.270
57707SOL    HW274954  12.570   6.615   6.130
57708SOL     OW74955   8.060   5.589   2.244
57708SOL    HW174956   8.154   5.599   2.229
57708SOL    HW274957   8.053   5.552   2.332
57709SOL     OW74958  11.368   9.216   6.670
57709SOL    HW174959  11.314   9.249   6.598
57709SOL    HW274960  11.423   9.290   6.695
57710SOL     OW74961   6.158  10.552  11.517
57710SOL    HW174962   6.109  10.527  11.596
57710SOL    HW274963   6.147  10.477  11.458
57711SOL     OW74964   3.017   2.074  13.592
57711SOL    HW174965   3.057   2.048  13.509
57711SOL    HW274966   3.069   2.148  13.622
57712SOL     OW74967   3.034  10.132   9.579
57712SOL    HW174968   2.994  10.049   9.604
57712SOL    HW274969   3.002  10.194   9.645
57713SOL     OW74970   3.883  13.200   7.338
57713SOL    HW174971   3.801  13.151   7.339
57713SOL    HW274972   3.908  13.205   7.430
57714SOL     OW74973   8.577   6.575   3.793
57714SOL    HW174974   8.606   6.493   3.834
57714SOL    HW274975   8.598   6.563   3.700
57715SOL     OW74976  10.700   8.777   4.025
57715SOL    HW174977  10.712   8.866   3.993
57715SOL    HW274978  10.644   8.735   3.958
57716SOL     OW74979   7.830   6.565  11.986
57716SOL    HW174980   7.857   6.617  11.910
57716SOL    HW274981   7.871   6.609  12.060
57717SOL     OW74982   7.007   8.209   8.104
57717SOL    HW174983   7.069   8.281   8.103
57717SOL    HW274984   6.987   8.196   8.197
57718SOL     OW74985  11.470   5.248  14.541
57718SOL    HW174986  11.454   5.287  14.627
57718SOL    HW274987  11.445   5.156  14.551
57719SOL     OW74988   6.068  14.204   2.718
57719SOL    HW174989   6.103  14.115   2.721
57719SOL    HW274990   6.070  14.234   2.809
57720SOL     OW74991  13.373  10.629   7.408
57720SOL    HW174992  13.397  10.722   7.405
57720SOL    HW274993  13.321  10.621   7.488
57721SOL     OW74994  10.479  13.586   0.197
57721SOL    HW174995  10.509  13.634   0.120
57721SOL    HW274996  10.492  13.647   0.270
57722SOL     OW74997  10.822   4.076   7.508
57722SOL    HW174998  10.729   4.085   7.490
57722SOL    HW274999  10.842   3.985   7.484
57723SOL     OW75000  10.153   1.370   9.024
57723SOL    HW175001  10.204   1.370   8.943
57723SOL    HW275002  10.150   1.461   9.051
57724SOL     OW75003   9.017   0.328   4.306
57724SOL    HW175004   8.941   0.325   4.364
57724SOL    HW275005   9.009   0.413   4.261
57725SOL     OW75006   4.937   6.189   3.203
57725SOL    HW175007   4.881   6.115   3.228
57725SOL    HW275008   4.903   6.216   3.118
57726SOL     OW75009  13.414  10.203  13.832
57726SOL    HW175010  13.403  10.164  13.745
57726SOL    HW275011  13.373  10.141  13.891
57727SOL     OW75012   5.858   6.825  12.479
57727SOL    HW175013   5.906   6.908  12.483
57727SOL    HW275014   5.878   6.782  12.563
57728SOL     OW75015   4.530  13.219  11.025
57728SOL    HW175016   4.503  13.272  10.950
57728SOL    HW275017   4.624  13.205  11.011
57729SOL     OW75018   2.489   3.028  12.659
57729SOL    HW175019   2.570   3.017  12.609
57729SOL    HW275020   2.421   2.989  12.604
57730SOL     OW75021   5.244   2.658   7.908
57730SOL    HW175022   5.240   2.657   8.004
57730SOL    HW275023   5.211   2.744   7.884
57731SOL     OW75024   3.429  14.265   5.600
57731SOL    HW175025   3.398  14.294   5.685
57731SOL    HW275026   3.357  14.214   5.564
57732SOL     OW75027   7.696   3.753   4.596
57732SOL    HW175028   7.755   3.679   4.604
57732SOL    HW275029   7.717   3.809   4.672
57733SOL     OW75030  11.374   3.842   0.879
57733SOL    HW175031  11.287   3.852   0.842
57733SOL    HW275032  11.429   3.817   0.805
57734SOL     OW75033  10.704   6.220   3.944
57734SOL    HW175034  10.749   6.250   4.023
57734SOL    HW275035  10.655   6.142   3.972
57735SOL     OW75036   8.132   4.669   7.152
57735SOL    HW175037   8.192   4.607   7.112
57735SOL    HW275038   8.146   4.750   7.103
57736SOL     OW75039   5.370  12.880  11.879
57736SOL    HW175040   5.465  12.882  11.873
57736SOL    HW275041   5.348  12.787  11.877
57737SOL     OW75042   7.167   7.051   8.688
57737SOL    HW175043   7.201   7.128   8.642
57737SOL    HW275044   7.112   7.007   8.623
57738SOL     OW75045  13.478   2.090   5.330
57738SOL    HW175046  13.558   2.068   5.282
57738SOL    HW275047  13.477   2.030   5.404
57739SOL     OW75048   6.731   6.218   5.607
57739SOL    HW175049   6.670   6.152   5.572
57739SOL    HW275050   6.796   6.166   5.655
57740SOL     OW75051   2.222   4.785   7.872
57740SOL    HW175052   2.148   4.728   7.892
57740SOL    HW275053   2.204   4.819   7.784
57741SOL     OW75054  12.900   8.984   6.757
57741SOL    HW175055  12.868   9.060   6.707
57741SOL    HW275056  12.821   8.934   6.778
57742SOL     OW75057  13.436   6.673   8.733
57742SOL    HW175058  13.413   6.742   8.794
57742SOL    HW275059  13.523   6.698   8.701
57743SOL     OW75060   6.789  14.132   7.709
57743SOL    HW175061   6.739  14.191   7.766
57743SOL    HW275062   6.769  14.162   7.620
57744SOL     OW75063   0.706  11.027   5.145
57744SOL    HW175064   0.729  10.945   5.189
57744SOL    HW275065   0.789  11.074   5.136
57745SOL     OW75066  14.026   2.338   6.954
57745SOL    HW175067  14.025   2.251   6.914
57745SOL    HW275068  14.103   2.336   7.011
57746SOL     OW75069   8.770   4.823  14.554
57746SOL    HW175070   8.810   4.884  14.616
57746SOL    HW275071   8.778   4.866  14.469
57747SOL     OW75072   2.925   6.187   6.700
57747SOL    HW175073   2.875   6.220   6.625
57747SOL    HW275074   2.861   6.135   6.749
57748SOL     OW75075   0.825   8.477  10.631
57748SOL    HW175076   0.749   8.476  10.689
57748SOL    HW275077   0.893   8.523  10.682
57749SOL     OW75078   8.043   6.904  12.871
57749SOL    HW175079   7.997   6.981  12.836
57749SOL    HW275080   7.987   6.873  12.943
57750SOL     OW75081  13.392  11.503   4.512
57750SOL    HW175082  13.331  11.437   4.546
57750SOL    HW275083  13.352  11.587   4.535
57751SOL     OW75084   8.598  11.834   7.906
57751SOL    HW175085   8.549  11.834   7.988
57751SOL    HW275086   8.656  11.758   7.912
57752SOL     OW75087  10.012   1.609   5.460
57752SOL    HW175088   9.952   1.609   5.385
57752SOL    HW275089  10.095   1.641   5.425
57753SOL     OW75090   3.254   1.555  13.389
57753SOL    HW175091   3.314   1.520  13.455
57753SOL    HW275092   3.192   1.484  13.372
57754SOL     OW75093   4.232   5.115   1.909
57754SOL    HW175094   4.153   5.168   1.896
57754SOL    HW275095   4.205   5.026   1.886
57755SOL     OW75096   6.653   5.921  14.768
57755SOL    HW175097   6.635   5.833  14.736
57755SOL    HW275098   6.672   5.909  14.861
57756SOL     OW75099   3.828   0.482   2.222
57756SOL    HW175100   3.754   0.533   2.257
57756SOL    HW275101   3.792   0.438   2.145
57757SOL     OW75102   8.156   7.910   2.279
57757SOL    HW175103   8.242   7.906   2.237
57757SOL    HW275104   8.110   7.832   2.248
57758SOL     OW75105  14.694  13.320  13.736
57758SOL    HW175106  14.692  13.284  13.824
57758SOL    HW275107  14.694  13.415  13.748
57759SOL     OW75108   8.170   5.699   1.421
57759SOL    HW175109   8.077   5.681   1.430
57759SOL    HW275110   8.176   5.768   1.355
57760SOL     OW75111  11.547   7.811   2.803
57760SOL    HW175112  11.567   7.747   2.734
57760SOL    HW275113  11.631   7.852   2.823
57761SOL     OW75114  11.014  11.766   9.362
57761SOL    HW175115  11.074  11.839   9.378
57761SOL    HW275116  11.068  11.688   9.368
57762SOL     OW75117   0.159   6.046  13.677
57762SOL    HW175118   0.144   6.110  13.606
57762SOL    HW275119   0.191   6.099  13.750
57763SOL     OW75120   8.753   2.340   3.656
57763SOL    HW175121   8.660   2.317   3.661
57763SOL    HW275122   8.791   2.274   3.599
57764SOL     OW75123  14.866   6.278  10.903
57764SOL    HW175124   0.074   6.244  10.944
57764SOL    HW275125  14.822   6.325  10.974
57765SOL     OW75126  10.418   7.595   0.846
57765SOL    HW175127  10.486   7.588   0.779
57765SOL    HW275128  10.376   7.679   0.830
57766SOL     OW75129   1.112  13.091   2.213
57766SOL    HW175130   1.097  13.067   2.304
57766SOL    HW275131   1.052  13.036   2.163
57767SOL     OW75132   2.440   7.516  10.596
57767SOL    HW175133   2.420   7.519  10.690
57767SOL    HW275134   2.363   7.476  10.556
57768SOL     OW75135   8.589   1.336   6.913
57768SOL    HW175136   8.579   1.354   6.820
57768SOL    HW275137   8.659   1.270   6.918
57769SOL     OW75138   5.733   3.467   6.604
57769SOL    HW175139   5.642   3.489   6.585
57769SOL    HW275140   5.783   3.543   6.575
57770SOL     OW75141   6.792  14.444  14.288
57770SOL    HW175142   6.844  14.437  14.208
57770SOL    HW275143   6.750  14.358  14.298
57771SOL     OW75144  12.151  12.486   4.601
57771SOL    HW175145  12.148  12.576   4.635
57771SOL    HW275146  12.236  12.453   4.631
57772SOL     OW75147   6.440   7.025   4.949
57772SOL    HW175148   6.376   7.068   4.892
57772SOL    HW275149   6.390   7.004   5.028
57773SOL     OW75150   3.545  10.483   9.709
57773SOL    HW175151   3.501  10.438   9.781
57773SOL    HW275152   3.567  10.413   9.647
57774SOL     OW75153  14.793   2.093   3.291
57774SOL    HW175154  14.806   2.158   3.360
57774SOL    HW275155  14.858   2.115   3.225
57775SOL     OW75156   0.616   8.303   8.253
57775SOL    HW175157   0.540   8.324   8.307
57775SOL    HW275158   0.686   8.358   8.288
57776SOL     OW75159  14.544  12.100  13.453
57776SOL    HW175160  14.461  12.086  13.500
57776SOL    HW275161  14.610  12.099  13.522
57777SOL     OW75162  14.559   3.150  14.044
57777SOL    HW175163  14.522   3.211  13.980
57777SOL    HW275164  14.632   3.108  13.999
57778SOL     OW75165  12.586   2.423   2.038
57778SOL    HW175166  12.518   2.490   2.028
57778SOL    HW275167  12.608   2.425   2.131
57779SOL     OW75168   1.587   4.167  10.580
57779SOL    HW175169   1.546   4.254  10.581
57779SOL    HW275170   1.531   4.116  10.522
57780SOL     OW75171   3.879  13.774   9.892
57780SOL    HW175172   3.973  13.759   9.879
57780SOL    HW275173   3.857  13.725   9.971
57781SOL     OW75174   4.980   1.197  13.775
57781SOL    HW175175   5.026   1.115  13.758
57781SOL    HW275176   4.894   1.171  13.808
57782SOL     OW75177   1.807   0.539   7.187
57782SOL    HW175178   1.745   0.524   7.116
57782SOL    HW275179   1.883   0.578   7.144
57783SOL     OW75180   2.901   7.969   2.965
57783SOL    HW175181   2.864   8.057   2.978
57783SOL    HW275182   2.853   7.914   3.026
57784SOL     OW75183  14.446   5.552   2.760
57784SOL    HW175184  14.391   5.587   2.830
57784SOL    HW275185  14.386   5.535   2.688
57785SOL     OW75186   7.217   1.929   2.791
57785SOL    HW175187   7.134   1.920   2.744
57785SOL    HW275188   7.203   1.883   2.874
57786SOL     OW75189   4.212  13.178   6.511
57786SOL    HW175190   4.266  13.236   6.564
57786SOL    HW275191   4.122  13.203   6.533
57787SOL     OW75192   4.791  12.181   1.383
57787SOL    HW175193   4.808  12.218   1.469
57787SOL    HW275194   4.719  12.119   1.396
57788SOL     OW75195   3.020  10.070   1.029
57788SOL    HW175196   2.972  10.065   0.947
57788SOL    HW275197   3.055   9.981   1.042
57789SOL     OW75198   9.729   3.194   5.044
57789SOL    HW175199   9.763   3.232   5.125
57789SOL    HW275200   9.658   3.253   5.017
57790SOL     OW75201   1.761   0.884   9.188
57790SOL    HW175202   1.719   0.970   9.183
57790SOL    HW275203   1.853   0.904   9.205
57791SOL     OW75204   4.118   7.241   6.113
57791SOL    HW175205   4.213   7.233   6.111
57791SOL    HW275206   4.088   7.167   6.165
57792SOL     OW75207  11.857   9.545   4.731
57792SOL    HW175208  11.835   9.520   4.820
57792SOL    HW275209  11.945   9.509   4.717
57793SOL     OW75210  11.601  10.962   2.072
57793SOL    HW175211  11.544  10.917   2.134
57793SOL    HW275212  11.628  10.895   2.010
57794SOL     OW75213  12.866   2.245  12.982
57794SOL    HW175214  12.860   2.266  13.075
57794SOL    HW275215  12.874   2.150  12.979
57795SOL     OW75216  11.454   6.934   6.599
57795SOL    HW175217  11.461   6.867   6.667
57795SOL    HW275218  11.438   7.015   6.647
57796SOL     OW75219   0.772   3.439  11.517
57796SOL    HW175220   0.804   3.513  11.569
57796SOL    HW275221   0.843   3.374  11.522
57797SOL     OW75222   7.834  12.510   3.625
57797SOL    HW175223   7.925  12.496   3.649
57797SOL    HW275224   7.811  12.595   3.664
57798SOL     OW75225   6.982   8.415   9.935
57798SOL    HW175226   7.042   8.486   9.958
57798SOL    HW275227   7.032   8.362   9.872
57799SOL     OW75228   4.663  11.417   1.337
57799SOL    HW175229   4.639  11.503   1.371
57799SOL    HW275230   4.697  11.369   1.413
57800SOL     OW75231   0.088  12.958  12.879
57800SOL    HW175232   0.151  12.895  12.845
57800SOL    HW275233   0.006  12.909  12.885
57801SOL     OW75234   2.052   9.642   9.494
57801SOL    HW175235   2.048   9.632   9.399
57801SOL    HW275236   1.980   9.589   9.527
57802SOL     OW75237   4.610   9.199   7.340
57802SOL    HW175238   4.574   9.201   7.251
57802SOL    HW275239   4.642   9.109   7.351
57803SOL     OW75240   7.967   4.801   9.951
57803SOL    HW175241   7.966   4.708   9.926
57803SOL    HW275242   7.896   4.840   9.899
57804SOL     OW75243   9.010   2.783  13.307
57804SOL    HW175244   9.027   2.833  13.387
57804SOL    HW275245   8.970   2.846  13.247
57805SOL     OW75246   9.923  10.501  10.073
57805SOL    HW175247   9.927  10.595  10.056
57805SOL    HW275248  10.005  10.482  10.119
57806SOL     OW75249   8.728   5.376   2.044
57806SOL    HW175250   8.711   5.449   1.985
57806SOL    HW275251   8.748   5.302   1.986
57807SOL     OW75252   8.448   1.551   5.270
57807SOL    HW175253   8.457   1.510   5.355
57807SOL    HW275254   8.507   1.626   5.273
57808SOL     OW75255   6.603   9.512  11.867
57808SOL    HW175256   6.661   9.559  11.928
57808SOL    HW275257   6.549   9.580  11.828
57809SOL     OW75258  11.512   6.482   5.917
57809SOL    HW175259  11.560   6.430   5.853
57809SOL    HW275260  11.420   6.467   5.895
57810SOL     OW75261  13.242   4.114  13.778
57810SOL    HW175262  13.227   4.206  13.800
57810SOL    HW275263  13.295   4.117  13.698
57811SOL     OW75264   7.553  11.415  12.657
57811SOL    HW175265   7.619  11.378  12.598
57811SOL    HW275266   7.578  11.507  12.666
57812SOL     OW75267   1.343  13.424  12.383
57812SOL    HW175268   1.402  13.425  12.458
57812SOL    HW275269   1.320  13.516  12.369
57813SOL     OW75270  14.382   1.791   2.597
57813SOL    HW175271  14.332   1.786   2.678
57813SOL    HW275272  14.462   1.838   2.620
57814SOL     OW75273  11.712   0.619   0.492
57814SOL    HW175274  11.713   0.674   0.414
57814SOL    HW275275  11.723   0.530   0.458
57815SOL     OW75276  11.195   6.517  14.830
57815SOL    HW175277  11.235   6.510  14.743
57815SOL    HW275278  11.127   6.583  14.821
57816SOL     OW75279  10.096  13.858   7.075
57816SOL    HW175280  10.116  13.940   7.121
57816SOL    HW275281  10.102  13.880   6.982
57817SOL     OW75282  10.147  12.773   3.990
57817SOL    HW175283  10.064  12.731   3.969
57817SOL    HW275284  10.199  12.702   4.029
57818SOL     OW75285   1.776   8.552  14.752
57818SOL    HW175286   1.683   8.531  14.747
57818SOL    HW275287   1.789   8.582  14.842
57819SOL     OW75288   4.863   0.718   1.292
57819SOL    HW175289   4.902   0.634   1.272
57819SOL    HW275290   4.775   0.696   1.324
57820SOL     OW75291   2.184  10.085   2.068
57820SOL    HW175292   2.186  10.105   1.974
57820SOL    HW275293   2.114  10.021   2.078
57821SOL     OW75294   1.557   6.353   3.661
57821SOL    HW175295   1.530   6.317   3.577
57821SOL    HW275296   1.588   6.277   3.711
57822SOL     OW75297   6.719   4.612   5.206
57822SOL    HW175298   6.704   4.534   5.152
57822SOL    HW275299   6.812   4.630   5.198
57823SOL     OW75300  10.469   5.729   9.708
57823SOL    HW175301  10.451   5.653   9.763
57823SOL    HW275302  10.549   5.767   9.744
57824SOL     OW75303   7.236   3.039  10.580
57824SOL    HW175304   7.249   2.954  10.539
57824SOL    HW275305   7.315   3.053  10.633
57825SOL     OW75306   5.772  14.619   5.964
57825SOL    HW175307   5.742  14.547   5.908
57825SOL    HW275308   5.736  14.698   5.924
57826SOL     OW75309   6.477   6.355   3.678
57826SOL    HW175310   6.540   6.420   3.647
57826SOL    HW275311   6.527   6.274   3.683
57827SOL     OW75312  12.986   4.829  11.410
57827SOL    HW175313  12.975   4.791  11.322
57827SOL    HW275314  12.900   4.864  11.432
57828SOL     OW75315   2.800   2.068   6.094
57828SOL    HW175316   2.751   2.126   6.153
57828SOL    HW275317   2.763   2.085   6.008
57829SOL     OW75318  13.053   2.070   1.036
57829SOL    HW175319  12.980   2.018   1.004
57829SOL    HW275320  13.050   2.151   0.985
57830SOL     OW75321   6.149   4.939  13.145
57830SOL    HW175322   6.157   4.851  13.107
57830SOL    HW275323   6.200   4.995  13.088
57831SOL     OW75324   4.453   9.679   6.697
57831SOL    HW175325   4.532   9.731   6.686
57831SOL    HW275326   4.385   9.743   6.717
57832SOL     OW75327   3.125   2.869  10.033
57832SOL    HW175328   3.141   2.777  10.011
57832SOL    HW275329   3.163   2.880  10.120
57833SOL     OW75330   5.146  13.915   3.547
57833SOL    HW175331   5.078  13.942   3.609
57833SOL    HW275332   5.167  13.995   3.499
57834SOL     OW75333   6.058  11.463  11.082
57834SOL    HW175334   6.133  11.404  11.089
57834SOL    HW275335   6.024  11.470  11.171
57835SOL     OW75336  10.196   0.794   2.284
57835SOL    HW175337  10.207   0.753   2.198
57835SOL    HW275338  10.115   0.845   2.276
57836SOL     OW75339  14.097   1.053   9.273
57836SOL    HW175340  14.066   0.984   9.331
57836SOL    HW275341  14.103   1.131   9.328
57837SOL     OW75342   3.291   5.052   7.260
57837SOL    HW175343   3.214   5.007   7.227
57837SOL    HW275344   3.281   5.050   7.355
57838SOL     OW75345  11.675  10.228   4.072
57838SOL    HW175346  11.679  10.194   4.161
57838SOL    HW275347  11.721  10.163   4.019
57839SOL     OW75348   8.635   9.537  11.432
57839SOL    HW175349   8.685   9.505  11.357
57839SOL    HW275350   8.620   9.460  11.486
57840SOL     OW75351   5.971   9.797  12.751
57840SOL    HW175352   6.049   9.809  12.804
57840SOL    HW275353   5.935   9.885  12.740
57841SOL     OW75354  12.662   9.082  14.329
57841SOL    HW175355  12.755   9.090  14.306
57841SOL    HW275356  12.632   9.172  14.338
57842SOL     OW75357   4.985   4.029  14.266
57842SOL    HW175358   5.005   4.094  14.199
57842SOL    HW275359   5.065   3.977  14.274
57843SOL     OW75360  14.105   9.452  11.470
57843SOL    HW175361  14.016   9.486  11.463
57843SOL    HW275362  14.118   9.400  11.391
57844SOL     OW75363  12.402   7.347   6.130
57844SOL    HW175364  12.308   7.359   6.115
57844SOL    HW275365  12.427   7.280   6.066
57845SOL     OW75366  14.583   5.633   3.592
57845SOL    HW175367  14.580   5.543   3.561
57845SOL    HW275368  14.645   5.677   3.534
57846SOL     OW75369  10.383   2.382   2.457
57846SOL    HW175370  10.322   2.456   2.447
57846SOL    HW275371  10.378   2.336   2.374
57847SOL     OW75372  13.304  11.290  13.675
57847SOL    HW175373  13.320  11.251  13.761
57847SOL    HW275374  13.254  11.223  13.628
57848SOL     OW75375  12.666   5.662   1.111
57848SOL    HW175376  12.586   5.619   1.080
57848SOL    HW275377  12.641   5.753   1.126
57849SOL     OW75378   6.134   4.921  11.322
57849SOL    HW175379   6.080   4.932  11.244
57849SOL    HW275380   6.170   5.009  11.338
57850SOL     OW75381   2.223   4.238   2.430
57850SOL    HW175382   2.308   4.199   2.446
57850SOL    HW275383   2.160   4.174   2.463
57851SOL     OW75384  12.069   1.948   2.261
57851SOL    HW175385  12.113   2.033   2.251
57851SOL    HW275386  12.073   1.930   2.355
57852SOL     OW75387   4.395   9.384  10.729
57852SOL    HW175388   4.408   9.349  10.641
57852SOL    HW275389   4.430   9.473  10.725
57853SOL     OW75390  14.632   0.692  14.372
57853SOL    HW175391  14.591   0.606  14.359
57853SOL    HW275392  14.638   0.730  14.285
57854SOL     OW75393  11.009   2.415   0.917
57854SOL    HW175394  11.085   2.358   0.905
57854SOL    HW275395  11.047   2.500   0.939
57855SOL     OW75396   7.492  13.015  10.911
57855SOL    HW175397   7.530  12.948  10.853
57855SOL    HW275398   7.557  13.026  10.980
57856SOL     OW75399   0.178   2.365  12.592
57856SOL    HW175400   0.258   2.313  12.599
57856SOL    HW275401   0.187   2.432  12.660
57857SOL     OW75402   9.173   9.816   9.021
57857SOL    HW175403   9.247   9.758   9.043
57857SOL    HW275404   9.107   9.797   9.087
57858SOL     OW75405   6.447   3.045  13.348
57858SOL    HW175406   6.408   3.132  13.342
57858SOL    HW275407   6.425   3.014  13.436
57859SOL     OW75408   2.920   9.859  10.313
57859SOL    HW175409   3.015   9.849  10.303
57859SOL    HW275410   2.901   9.821  10.399
57860SOL     OW75411   4.447   8.335   2.397
57860SOL    HW175412   4.422   8.287   2.475
57860SOL    HW275413   4.396   8.296   2.326
57861SOL     OW75414   6.263   8.278  13.725
57861SOL    HW175415   6.280   8.196  13.770
57861SOL    HW275416   6.320   8.342  13.769
57862SOL     OW75417   7.718   8.332   2.134
57862SOL    HW175418   7.772   8.254   2.141
57862SOL    HW275419   7.634   8.300   2.102
57863SOL     OW75420  13.737  14.449  10.787
57863SOL    HW175421  13.731  14.523  10.848
57863SOL    HW275422  13.821  14.408  10.807
57864SOL     OW75423  12.979   9.479   8.626
57864SOL    HW175424  13.026   9.561   8.609
57864SOL    HW275425  12.915   9.502   8.693
57865SOL     OW75426   7.325   4.719   3.131
57865SOL    HW175427   7.417   4.696   3.116
57865SOL    HW275428   7.300   4.669   3.208
57866SOL     OW75429  13.454   6.335   2.139
57866SOL    HW175430  13.529   6.289   2.101
57866SOL    HW275431  13.412   6.377   2.065
57867SOL     OW75432   1.113   8.371  13.105
57867SOL    HW175433   1.050   8.373  13.033
57867SOL    HW275434   1.060   8.378  13.184
57868SOL     OW75435  11.835  13.275  13.464
57868SOL    HW175436  11.885  13.314  13.393
57868SOL    HW275437  11.835  13.341  13.533
57869SOL     OW75438  13.417  10.985  11.311
57869SOL    HW175439  13.327  10.965  11.286
57869SOL    HW275440  13.436  10.924  11.382
57870SOL     OW75441   2.044   6.767  10.133
57870SOL    HW175442   2.094   6.730  10.205
57870SOL    HW275443   2.016   6.853  10.164
57871SOL     OW75444  11.504   2.243   1.354
57871SOL    HW175445  11.437   2.187   1.394
57871SOL    HW275446  11.454   2.303   1.298
57872SOL     OW75447  10.991   8.209   6.249
57872SOL    HW175448  10.954   8.239   6.166
57872SOL    HW275449  11.079   8.245   6.251
57873SOL     OW75450   6.464   8.870   3.901
57873SOL    HW175451   6.462   8.781   3.865
57873SOL    HW275452   6.373   8.898   3.901
57874SOL     OW75453  10.486   5.196   8.225
57874SOL    HW175454  10.488   5.147   8.307
57874SOL    HW275455  10.448   5.281   8.249
57875SOL     OW75456   1.553   4.161  12.729
57875SOL    HW175457   1.646   4.145  12.743
57875SOL    HW275458   1.550   4.217  12.651
57876SOL     OW75459   3.094  14.682   8.430
57876SOL    HW175460   3.025  14.747   8.418
57876SOL    HW275461   3.075  14.642   8.515
57877SOL     OW75462   7.153  11.981  11.893
57877SOL    HW175463   7.146  12.071  11.924
57877SOL    HW275464   7.070  11.964  11.848
57878SOL     OW75465  12.113   7.252  10.823
57878SOL    HW175466  12.067   7.182  10.868
57878SOL    HW275467  12.195   7.211  10.793
57879SOL     OW75468   4.479  13.495  13.626
57879SOL    HW175469   4.511  13.565  13.568
57879SOL    HW275470   4.529  13.507  13.707
57880SOL     OW75471   9.291   9.671   3.659
57880SOL    HW175472   9.284   9.598   3.721
57880SOL    HW275473   9.328   9.631   3.580
57881SOL     OW75474   3.352   3.720  12.618
57881SOL    HW175475   3.285   3.745  12.682
57881SOL    HW275476   3.435   3.747  12.658
57882SOL     OW75477  12.071   4.107  11.085
57882SOL    HW175478  12.026   4.174  11.033
57882SOL    HW275479  12.068   4.140  11.175
57883SOL     OW75480   7.290   4.509   4.662
57883SOL    HW175481   7.220   4.566   4.632
57883SOL    HW275482   7.367   4.565   4.665
57884SOL     OW75483   2.381   3.818   0.904
57884SOL    HW175484   2.380   3.754   0.833
57884SOL    HW275485   2.474   3.828   0.926
57885SOL     OW75486  13.166   3.761  10.439
57885SOL    HW175487  13.134   3.672  10.453
57885SOL    HW275488  13.096   3.818  10.471
57886SOL     OW75489   0.624   5.615  12.374
57886SOL    HW175490   0.650   5.595  12.464
57886SOL    HW275491   0.555   5.681  12.384
57887SOL     OW75492  14.588  13.187   5.552
57887SOL    HW175493  14.608  13.167   5.460
57887SOL    HW275494  14.536  13.267   5.548
57888SOL     OW75495   6.111   0.667   3.472
57888SOL    HW175496   6.053   0.684   3.398
57888SOL    HW275497   6.109   0.749   3.522
57889SOL     OW75498   2.746   4.554   5.221
57889SOL    HW175499   2.787   4.578   5.304
57889SOL    HW275500   2.703   4.634   5.192
57890SOL     OW75501  10.849  13.777  12.320
57890SOL    HW175502  10.780  13.745  12.378
57890SOL    HW275503  10.883  13.698  12.277
57891SOL     OW75504   4.382   5.322  14.491
57891SOL    HW175505   4.326   5.257  14.532
57891SOL    HW275506   4.389   5.392  14.556
57892SOL     OW75507   0.716  11.311  14.468
57892SOL    HW175508   0.771  11.233  14.456
57892SOL    HW275509   0.776  11.378  14.501
57893SOL     OW75510   6.389   3.100  13.014
57893SOL    HW175511   6.381   3.133  12.924
57893SOL    HW275512   6.358   3.010  13.009
57894SOL     OW75513   2.072   3.128  11.450
57894SOL    HW175514   2.030   3.187  11.387
57894SOL    HW275515   2.060   3.041  11.413
57895SOL     OW75516   4.365   5.737  13.945
57895SOL    HW175517   4.332   5.707  13.861
57895SOL    HW275518   4.362   5.832  13.940
57896SOL     OW75519   2.186   2.480  10.645
57896SOL    HW175520   2.121   2.547  10.666
57896SOL    HW275521   2.218   2.503  10.558
57897SOL     OW75522  10.120   8.476   7.784
57897SOL    HW175523  10.143   8.542   7.717
57897SOL    HW275524  10.025   8.475   7.785
57898SOL     OW75525   0.901   9.990   8.642
57898SOL    HW175526   0.918   9.953   8.728
57898SOL    HW275527   0.985   9.983   8.596
57899SOL     OW75528   1.400   4.475  10.315
57899SOL    HW175529   1.416   4.384  10.289
57899SOL    HW275530   1.318   4.498  10.272
57900SOL     OW75531   1.816   2.843   4.213
57900SOL    HW175532   1.743   2.791   4.247
57900SOL    HW275533   1.875   2.779   4.173
57901SOL     OW75534  11.841   4.036   2.528
57901SOL    HW175535  11.769   4.064   2.471
57901SOL    HW275536  11.802   4.035   2.615
57902SOL     OW75537   5.977   6.081  13.631
57902SOL    HW175538   5.897   6.103  13.583
57902SOL    HW275539   5.946   6.047  13.715
57903SOL     OW75540   5.395  12.703   4.186
57903SOL    HW175541   5.312  12.750   4.189
57903SOL    HW275542   5.408  12.683   4.094
57904SOL     OW75543  14.280  10.804  13.296
57904SOL    HW175544  14.333  10.775  13.370
57904SOL    HW275545  14.333  10.783  13.219
57905SOL     OW75546  14.837  11.151   0.699
57905SOL    HW175547  14.805  11.160   0.609
57905SOL    HW275548  14.767  11.188   0.752
57906SOL     OW75549  13.380  14.565   2.178
57906SOL    HW175550  13.309  14.509   2.147
57906SOL    HW275551  13.426  14.512   2.243
57907SOL     OW75552  11.417  13.157  13.742
57907SOL    HW175553  11.427  13.182  13.651
57907SOL    HW275554  11.475  13.216  13.790
57908SOL     OW75555   3.566   4.923   5.558
57908SOL    HW175556   3.515   4.983   5.503
57908SOL    HW275557   3.626   4.980   5.606
57909SOL     OW75558   2.793   4.174  12.171
57909SOL    HW175559   2.777   4.202  12.081
57909SOL    HW275560   2.819   4.082  12.163
57910SOL     OW75561   5.876   0.535   1.518
57910SOL    HW175562   5.832   0.558   1.600
57910SOL    HW275563   5.824   0.577   1.450
57911SOL     OW75564   8.466   0.797  10.574
57911SOL    HW175565   8.385   0.745  10.576
57911SOL    HW275566   8.530   0.743  10.620
57912SOL     OW75567  12.384   2.460   3.784
57912SOL    HW175568  12.324   2.408   3.731
57912SOL    HW275569  12.469   2.448   3.742
57913SOL     OW75570  13.475   1.151   7.127
57913SOL    HW175571  13.491   1.116   7.039
57913SOL    HW275572  13.437   1.238   7.111
57914SOL     OW75573  11.946   1.714  12.303
57914SOL    HW175574  11.960   1.626  12.270
57914SOL    HW275575  11.953   1.706  12.398
57915SOL     OW75576   3.049   2.029   0.731
57915SOL    HW175577   3.056   2.094   0.801
57915SOL    HW275578   3.031   2.081   0.652
57916SOL     OW75579  10.423  12.416  13.914
57916SOL    HW175580  10.399  12.390  14.002
57916SOL    HW275581  10.341  12.416  13.865
57917SOL     OW75582   2.391   7.118   7.556
57917SOL    HW175583   2.443   7.128   7.636
57917SOL    HW275584   2.374   7.024   7.550
57918SOL     OW75585  10.748   2.463   4.608
57918SOL    HW175586  10.786   2.464   4.696
57918SOL    HW275587  10.806   2.519   4.556
57919SOL     OW75588   0.431  11.327  11.872
57919SOL    HW175589   0.415  11.356  11.782
57919SOL    HW275590   0.423  11.406  11.925
57920SOL     OW75591   9.552  14.382   8.491
57920SOL    HW175592   9.510  14.420   8.414
57920SOL    HW275593   9.530  14.289   8.487
57921SOL     OW75594   9.799   1.229   8.423
57921SOL    HW175595   9.712   1.256   8.397
57921SOL    HW275596   9.848   1.223   8.341
57922SOL     OW75597   3.503   4.837   1.439
57922SOL    HW175598   3.444   4.878   1.375
57922SOL    HW275599   3.447   4.821   1.515
57923SOL     OW75600   9.729  13.019  12.262
57923SOL    HW175601   9.824  13.018  12.262
57923SOL    HW275602   9.705  13.076  12.334
57924SOL     OW75603   3.107   9.464  13.098
57924SOL    HW175604   3.196   9.496  13.088
57924SOL    HW275605   3.117   9.377  13.135
57925SOL     OW75606   2.128   4.158  12.482
57925SOL    HW175607   2.202   4.127  12.534
57925SOL    HW275608   2.063   4.088  12.488
57926SOL     OW75609   2.219  11.726   9.097
57926SOL    HW175610   2.277  11.778   9.041
57926SOL    HW275611   2.149  11.786   9.121
57927SOL     OW75612  13.259   2.735   6.392
57927SOL    HW175613  13.236   2.710   6.302
57927SOL    HW275614  13.197   2.804   6.414
57928SOL     OW75615   0.781   4.185   2.389
57928SOL    HW175616   0.747   4.218   2.306
57928SOL    HW275617   0.838   4.255   2.421
57929SOL     OW75618  12.334  11.752   0.092
57929SOL    HW175619  12.342  11.842   0.123
57929SOL    HW275620  12.322  11.701   0.172
57930SOL     OW75621  13.926  12.062  12.783
57930SOL    HW175622  14.021  12.051  12.787
57930SOL    HW275623  13.893  11.979  12.749
57931SOL     OW75624   5.367   1.600  11.341
57931SOL    HW175625   5.302   1.609  11.272
57931SOL    HW275626   5.320   1.620  11.422
57932SOL     OW75627   1.400  11.420   4.616
57932SOL    HW175628   1.371  11.510   4.632
57932SOL    HW275629   1.337  11.366   4.664
57933SOL     OW75630   1.308   0.091  14.115
57933SOL    HW175631   1.213   0.087  14.116
57933SOL    HW275632   1.334   0.038  14.040
57934SOL     OW75633   9.663  11.773   3.892
57934SOL    HW175634   9.752  11.807   3.884
57934SOL    HW275635   9.665  11.690   3.844
57935SOL     OW75636   4.086  12.837   3.365
57935SOL    HW175637   4.011  12.798   3.319
57935SOL    HW275638   4.160  12.826   3.305
57936SOL     OW75639   1.457  13.317   8.907
57936SOL    HW175640   1.515  13.385   8.939
57936SOL    HW275641   1.509  13.236   8.914
57937SOL     OW75642   8.329   2.389  12.216
57937SOL    HW175643   8.415   2.417  12.247
57937SOL    HW275644   8.284   2.357  12.294
57938SOL     OW75645   7.717   6.229   7.727
57938SOL    HW175646   7.643   6.255   7.782
57938SOL    HW275647   7.789   6.215   7.789
57939SOL     OW75648   4.504   4.242   7.870
57939SOL    HW175649   4.580   4.223   7.925
57939SOL    HW275650   4.433   4.192   7.910
57940SOL     OW75651   4.521  11.746  11.231
57940SOL    HW175652   4.581  11.779  11.163
57940SOL    HW275653   4.579  11.722  11.304
57941SOL     OW75654  14.810   2.069   6.484
57941SOL    HW175655  14.811   2.051   6.390
57941SOL    HW275656  14.723   2.043   6.512
57942SOL     OW75657  14.405  11.859   3.231
57942SOL    HW175658  14.315  11.879   3.205
57942SOL    HW275659  14.458  11.884   3.155
57943SOL     OW75660   4.220  13.516   0.985
57943SOL    HW175661   4.308  13.545   1.010
57943SOL    HW275662   4.215  13.532   0.891
57944SOL     OW75663  11.936   4.018  14.000
57944SOL    HW175664  11.952   4.019  13.906
57944SOL    HW275665  11.848   4.055  14.010
57945SOL     OW75666   8.015   3.275  11.339
57945SOL    HW175667   8.102   3.273  11.380
57945SOL    HW275668   8.032   3.277  11.245
57946SOL     OW75669  11.549  12.487   7.846
57946SOL    HW175670  11.472  12.541   7.867
57946SOL    HW275671  11.591  12.533   7.773
57947SOL     OW75672   6.683  13.555   5.161
57947SOL    HW175673   6.743  13.571   5.088
57947SOL    HW275674   6.667  13.642   5.199
57948SOL     OW75675   5.612  10.502  13.801
57948SOL    HW175676   5.573  10.428  13.847
57948SOL    HW275677   5.695  10.517  13.847
57949SOL     OW75678   1.808  11.087  10.815
57949SOL    HW175679   1.877  11.033  10.776
57949SOL    HW275680   1.854  11.146  10.875
57950SOL     OW75681   8.552   1.774   2.377
57950SOL    HW175682   8.535   1.682   2.355
57950SOL    HW275683   8.496   1.790   2.453
57951SOL     OW75684  12.074   1.232   2.703
57951SOL    HW175685  12.016   1.160   2.677
57951SOL    HW275686  12.154   1.217   2.653
57952SOL     OW75687  11.410  10.035   2.749
57952SOL    HW175688  11.498  10.047   2.783
57952SOL    HW275689  11.399  10.105   2.685
57953SOL     OW75690  12.446  13.338   9.171
57953SOL    HW175691  12.507  13.273   9.138
57953SOL    HW275692  12.442  13.321   9.266
57954SOL     OW75693  11.530  11.438   5.919
57954SOL    HW175694  11.500  11.529   5.911
57954SOL    HW275695  11.525  11.404   5.830
57955SOL     OW75696   0.025   1.775  12.796
57955SOL    HW175697  14.854   1.808  12.875
57955SOL    HW275698   0.009   1.681  12.797
57956SOL     OW75699   8.040  14.589   8.599
57956SOL    HW175700   8.119  14.550   8.637
57956SOL    HW275701   8.070  14.674   8.565
57957SOL     OW75702   9.745   0.173   8.908
57957SOL    HW175703   9.674   0.182   8.844
57957SOL    HW275704   9.807   0.243   8.886
57958SOL     OW75705   1.809   2.485  13.384
57958SOL    HW175706   1.742   2.490  13.317
57958SOL    HW275707   1.784   2.410  13.438
57959SOL     OW75708  10.980   1.829   7.998
57959SOL    HW175709  10.984   1.762   8.066
57959SOL    HW275710  11.002   1.910   8.044
57960SOL     OW75711   1.261   4.560   2.637
57960SOL    HW175712   1.329   4.625   2.656
57960SOL    HW275713   1.231   4.530   2.723
57961SOL     OW75714   7.683   8.596   9.103
57961SOL    HW175715   7.719   8.627   9.020
57961SOL    HW275716   7.639   8.673   9.140
57962SOL     OW75717   9.708  11.756   5.377
57962SOL    HW175718   9.670  11.763   5.465
57962SOL    HW275719   9.749  11.669   5.375
57963SOL     OW75720  14.463  14.200   8.053
57963SOL    HW175721  14.400  14.196   8.126
57963SOL    HW275722  14.408  14.203   7.975
57964SOL     OW75723   1.778  11.555   3.076
57964SOL    HW175724   1.869  11.525   3.082
57964SOL    HW275725   1.729  11.476   3.050
57965SOL     OW75726   8.619   5.109   6.661
57965SOL    HW175727   8.529   5.119   6.692
57965SOL    HW275728   8.674   5.121   6.739
57966SOL     OW75729   1.896   9.088  13.001
57966SOL    HW175730   1.902   9.096  13.096
57966SOL    HW275731   1.873   9.175  12.970
57967SOL     OW75732   5.011   6.123  14.585
57967SOL    HW175733   4.973   6.115  14.673
57967SOL    HW275734   5.095   6.167  14.599
57968SOL     OW75735   7.712  14.749   5.758
57968SOL    HW175736   7.755  14.673   5.720
57968SOL    HW275737   7.784  14.808   5.780
57969SOL     OW75738   7.820  13.860   9.415
57969SOL    HW175739   7.760  13.896   9.350
57969SOL    HW275740   7.832  13.930   9.479
57970SOL     OW75741   5.195   0.474  10.183
57970SOL    HW175742   5.197   0.546  10.120
57970SOL    HW275743   5.193   0.517  10.269
57971SOL     OW75744  13.479   8.267  10.842
57971SOL    HW175745  13.423   8.312  10.904
57971SOL    HW275746  13.466   8.174  10.860
57972SOL     OW75747   5.524   8.380   8.329
57972SOL    HW175748   5.538   8.369   8.235
57972SOL    HW275749   5.602   8.425   8.360
57973SOL     OW75750   6.650   6.126  12.224
57973SOL    HW175751   6.623   6.192  12.287
57973SOL    HW275752   6.721   6.168  12.175
57974SOL     OW75753   8.813   6.424   8.863
57974SOL    HW175754   8.852   6.365   8.799
57974SOL    HW275755   8.887   6.475   8.896
57975SOL     OW75756   6.109   6.667  13.707
57975SOL    HW175757   6.150   6.588  13.672
57975SOL    HW275758   6.029   6.677  13.654
57976SOL     OW75759  13.416   3.498  12.186
57976SOL    HW175760  13.468   3.517  12.264
57976SOL    HW275761  13.450   3.414  12.154
57977SOL     OW75762   4.291   2.360  12.130
57977SOL    HW175763   4.303   2.394  12.041
57977SOL    HW275764   4.343   2.280  12.132
57978SOL     OW75765   2.184   3.266  10.845
57978SOL    HW175766   2.187   3.185  10.795
57978SOL    HW275767   2.210   3.240  10.934
57979SOL     OW75768   1.539   2.974   2.768
57979SOL    HW175769   1.470   2.910   2.751
57979SOL    HW275770   1.578   2.991   2.682
57980SOL     OW75771  10.289   9.565   8.963
57980SOL    HW175772  10.304   9.552   8.869
57980SOL    HW275773  10.343   9.499   9.005
57981SOL     OW75774  12.947   0.999   2.704
57981SOL    HW175775  12.926   0.908   2.724
57981SOL    HW275776  13.032   1.014   2.745
57982SOL     OW75777   7.262  10.121   1.962
57982SOL    HW175778   7.184  10.096   1.911
57982SOL    HW275779   7.325  10.051   1.945
57983SOL     OW75780  12.073   0.163   8.083
57983SOL    HW175781  12.049   0.072   8.099
57983SOL    HW275782  11.997   0.201   8.039
57984SOL     OW75783  12.862  13.923   2.012
57984SOL    HW175784  12.896  14.012   2.018
57984SOL    HW275785  12.923  13.877   1.955
57985SOL     OW75786   3.361   8.021  14.289
57985SOL    HW175787   3.330   7.974  14.367
57985SOL    HW275788   3.364   8.113  14.316
57986SOL     OW75789   0.126  14.558   6.229
57986SOL    HW175790   0.198  14.539   6.168
57986SOL    HW275791   0.126  14.485   6.290
57987SOL     OW75792  14.752   7.812   2.735
57987SOL    HW175793  14.807   7.872   2.685
57987SOL    HW275794  14.809   7.781   2.806
57988SOL     OW75795   8.392   9.116  10.215
57988SOL    HW175796   8.481   9.104  10.248
57988SOL    HW275797   8.358   9.190  10.265
57989SOL     OW75798  10.567   8.832   7.008
57989SOL    HW175799  10.534   8.864   7.092
57989SOL    HW275800  10.586   8.739   7.023
57990SOL     OW75801   6.411  12.072   0.861
57990SOL    HW175802   6.445  12.021   0.788
57990SOL    HW275803   6.488  12.099   0.910
57991SOL     OW75804  10.108   9.707  14.164
57991SOL    HW175805  10.198   9.739  14.156
57991SOL    HW275806  10.062   9.778  14.209
57992SOL     OW75807  11.788   5.776   7.125
57992SOL    HW175808  11.857   5.825   7.169
57992SOL    HW275809  11.729   5.749   7.196
57993SOL     OW75810   2.884  10.241   4.200
57993SOL    HW175811   2.965  10.288   4.183
57993SOL    HW275812   2.879  10.233   4.295
57994SOL     OW75813   1.415  14.579   5.088
57994SOL    HW175814   1.397  14.573   4.994
57994SOL    HW275815   1.444  14.669   5.101
57995SOL     OW75816   9.119  10.959   4.756
57995SOL    HW175817   9.155  10.936   4.841
57995SOL    HW275818   9.158  10.895   4.696
57996SOL     OW75819   1.573  12.675   8.886
57996SOL    HW175820   1.663  12.644   8.896
57996SOL    HW275821   1.532  12.659   8.971
57997SOL     OW75822   9.665   8.179  12.154
57997SOL    HW175823   9.576   8.146  12.139
57997SOL    HW275824   9.696   8.127  12.228
57998SOL     OW75825   3.399  10.906  10.304
57998SOL    HW175826   3.401  10.962  10.227
57998SOL    HW275827   3.333  10.945  10.361
57999SOL     OW75828   9.067   0.708   5.303
57999SOL    HW175829   9.113   0.632   5.339
57999SOL    HW275830   9.090   0.780   5.361
58000SOL     OW75831   5.787   1.675   4.351
58000SOL    HW175832   5.716   1.639   4.297
58000SOL    HW275833   5.746   1.689   4.437
58001SOL     OW75834  14.293   6.485   2.580
58001SOL    HW175835  14.246   6.428   2.641
58001SOL    HW275836  14.324   6.427   2.511
58002SOL     OW75837  11.568  13.589  11.769
58002SOL    HW175838  11.580  13.500  11.802
58002SOL    HW275839  11.553  13.642  11.847
58003SOL     OW75840   3.496  12.519   7.275
58003SOL    HW175841   3.484  12.491   7.185
58003SOL    HW275842   3.427  12.473   7.324
58004SOL     OW75843   1.858  11.549  13.500
58004SOL    HW175844   1.850  11.642  13.476
58004SOL    HW275845   1.838  11.502  13.420
58005SOL     OW75846   6.803  12.978   0.328
58005SOL    HW175847   6.811  13.011   0.418
58005SOL    HW275848   6.808  12.883   0.337
58006SOL     OW75849   8.821   4.238  13.813
58006SOL    HW175850   8.830   4.217  13.720
58006SOL    HW275851   8.904   4.212  13.851
58007SOL     OW75852   7.981   6.884   3.858
58007SOL    HW175853   8.074   6.881   3.832
58007SOL    HW275854   7.975   6.823   3.931
58008SOL     OW75855  13.919   0.422   1.122
58008SOL    HW175856  13.947   0.339   1.161
58008SOL    HW275857  13.867   0.464   1.191
58009SOL     OW75858  11.138   6.474   7.697
58009SOL    HW175859  11.050   6.448   7.670
58009SOL    HW275860  11.123   6.538   7.768
58010SOL     OW75861   9.635   4.663  14.692
58010SOL    HW175862   9.591   4.590  14.737
58010SOL    HW275863   9.565   4.720  14.662
58011SOL     OW75864   5.675   9.135   0.899
58011SOL    HW175865   5.764   9.164   0.919
58011SOL    HW275866   5.675   9.121   0.805
58012SOL     OW75867   9.426   1.304   3.646
58012SOL    HW175868   9.509   1.261   3.623
58012SOL    HW275869   9.421   1.379   3.586
58013SOL     OW75870   5.824   7.617   4.872
58013SOL    HW175871   5.829   7.532   4.915
58013SOL    HW275872   5.790   7.676   4.940
58014SOL     OW75873  12.027   9.129   7.792
58014SOL    HW175874  11.976   9.068   7.846
58014SOL    HW275875  11.962   9.192   7.760
58015SOL     OW75876   7.494   1.497  11.381
58015SOL    HW175877   7.505   1.488  11.476
58015SOL    HW275878   7.413   1.450  11.362
58016SOL     OW75879  11.376   9.200   5.047
58016SOL    HW175880  11.449   9.199   5.109
58016SOL    HW275881  11.301   9.170   5.099
58017SOL     OW75882  13.867  11.968   7.417
58017SOL    HW175883  13.845  12.023   7.492
58017SOL    HW275884  13.945  11.919   7.446
58018SOL     OW75885   4.906  11.065   4.663
58018SOL    HW175886   4.891  10.996   4.598
58018SOL    HW275887   4.827  11.118   4.661
58019SOL     OW75888  14.867   9.664   6.193
58019SOL    HW175889   0.041   9.672   6.276
58019SOL    HW275890   0.060   9.627   6.133
58020SOL     OW75891  10.496   1.896  14.719
58020SOL    HW175892  10.521   1.926  14.632
58020SOL    HW275893  10.574   1.854  14.754
58021SOL     OW75894   3.708   1.827   2.058
58021SOL    HW175895   3.787   1.824   2.113
58021SOL    HW275896   3.659   1.749   2.083
58022SOL     OW75897  11.919  14.516  10.621
58022SOL    HW175898  11.975  14.561  10.684
58022SOL    HW275899  11.830  14.540  10.648
58023SOL     OW75900  10.418   4.485  10.640
58023SOL    HW175901  10.436   4.414  10.702
58023SOL    HW275902  10.427   4.565  10.692
58024SOL     OW75903  10.790   6.704   7.102
58024SOL    HW175904  10.804   6.785   7.053
58024SOL    HW275905  10.759   6.733   7.188
58025SOL     OW75906   0.228   2.615   0.853
58025SOL    HW175907   0.266   2.666   0.782
58025SOL    HW275908   0.133   2.619   0.838
58026SOL     OW75909   6.687   5.029  11.952
58026SOL    HW175910   6.708   5.109  11.904
58026SOL    HW275911   6.702   5.050  12.044
58027SOL     OW75912   3.112   5.047   9.510
58027SOL    HW175913   3.195   5.008   9.535
58027SOL    HW275914   3.082   5.094   9.588
58028SOL     OW75915   4.216   4.924  14.015
58028SOL    HW175916   4.240   4.894  13.928
58028SOL    HW275917   4.296   4.966  14.048
58029SOL     OW75918   1.017  14.626  12.422
58029SOL    HW175919   1.094  14.650  12.371
58029SOL    HW275920   0.974  14.710  12.442
58030SOL     OW75921   6.153   2.015   3.847
58030SOL    HW175922   6.088   1.997   3.914
58030SOL    HW275923   6.235   1.981   3.883
58031SOL     OW75924  10.120   7.710   5.890
58031SOL    HW175925  10.150   7.625   5.859
58031SOL    HW275926  10.037   7.692   5.933
58032SOL     OW75927   1.023   5.154   7.424
58032SOL    HW175928   1.054   5.244   7.432
58032SOL    HW275929   0.928   5.161   7.432
58033SOL     OW75930   9.815   7.340   1.870
58033SOL    HW175931   9.751   7.336   1.799
58033SOL    HW275932   9.785   7.275   1.933
58034SOL     OW75933   7.130  10.425   3.699
58034SOL    HW175934   7.134  10.469   3.784
58034SOL    HW275935   7.109  10.494   3.637
58035SOL     OW75936   0.217   3.035   3.041
58035SOL    HW175937   0.293   3.025   2.984
58035SOL    HW275938   0.254   3.038   3.130
58036SOL     OW75939   2.321  13.813  13.135
58036SOL    HW175940   2.414  13.795  13.144
58036SOL    HW275941   2.288  13.815  13.225
58037SOL     OW75942  10.052  13.346   3.886
58037SOL    HW175943  10.115  13.417   3.872
58037SOL    HW275944  10.091  13.292   3.954
58038SOL     OW75945   4.049   8.316  14.229
58038SOL    HW175946   4.143   8.328  14.243
58038SOL    HW275947   4.024   8.248  14.292
58039SOL     OW75948  10.999   4.604  14.742
58039SOL    HW175949  10.928   4.653  14.700
58039SOL    HW275950  10.964   4.515  14.752
58040SOL     OW75951   4.816   1.270  10.573
58040SOL    HW175952   4.901   1.267  10.530
58040SOL    HW275953   4.753   1.250  10.504
58041SOL     OW75954   1.210  14.669  14.618
58041SOL    HW175955   1.202  14.734  14.548
58041SOL    HW275956   1.121  14.658  14.651
58042SOL     OW75957   9.164  13.861   8.570
58042SOL    HW175958   9.124  13.883   8.654
58042SOL    HW275959   9.149  13.767   8.560
58043SOL     OW75960  14.704  13.206  13.999
58043SOL    HW175961  14.645  13.147  14.045
58043SOL    HW275962  14.776  13.151  13.970
58044SOL     OW75963   6.162  10.500   9.536
58044SOL    HW175964   6.255  10.488   9.556
58044SOL    HW275965   6.140  10.585   9.576
58045SOL     OW75966  14.057   2.083   7.619
58045SOL    HW175967  14.031   2.007   7.671
58045SOL    HW275968  14.009   2.156   7.659
58046SOL     OW75969   8.414   5.878   2.578
58046SOL    HW175970   8.384   5.789   2.559
58046SOL    HW275971   8.334   5.928   2.592
58047SOL     OW75972   0.900   9.396  12.157
58047SOL    HW175973   0.815   9.432  12.182
58047SOL    HW275974   0.954   9.405  12.235
58048SOL     OW75975   8.975   9.933   3.922
58048SOL    HW175976   8.966   9.838   3.923
58048SOL    HW275977   8.887   9.965   3.942
58049SOL     OW75978   2.477   7.055  11.119
58049SOL    HW175979   2.402   7.023  11.168
58049SOL    HW275980   2.539   6.982  11.119
58050SOL     OW75981   6.557   9.853   7.285
58050SOL    HW175982   6.636   9.808   7.254
58050SOL    HW275983   6.536   9.916   7.215
58051SOL     OW75984  13.574   6.287   8.605
58051SOL    HW175985  13.500   6.334   8.642
58051SOL    HW275986  13.566   6.302   8.511
58052SOL     OW75987   4.446   9.587  14.604
58052SOL    HW175988   4.496   9.508  14.621
58052SOL    HW275989   4.496   9.634  14.537
58053SOL     OW75990   3.847   5.602   6.066
58053SOL    HW175991   3.774   5.627   6.008
58053SOL    HW275992   3.840   5.507   6.072
58054SOL     OW75993  11.613  13.856  14.648
58054SOL    HW175994  11.602  13.912  14.571
58054SOL    HW275995  11.673  13.904  14.705
58055SOL     OW75996   2.534   0.230   9.515
58055SOL    HW175997   2.582   0.304   9.554
58055SOL    HW275998   2.442   0.247   9.536
58056SOL     OW75999  10.256  10.438  11.557
58056SOL    HW176000  10.229  10.372  11.621
58056SOL    HW276001  10.351  10.426  11.548
58057SOL     OW76002   3.381   9.406  12.798
58057SOL    HW176003   3.288   9.413  12.777
58057SOL    HW276004   3.419   9.489  12.768
58058SOL     OW76005   5.996  11.545   9.358
58058SOL    HW176006   6.015  11.600   9.282
58058SOL    HW276007   6.028  11.595   9.433
58059SOL     OW76008   3.098   0.678   9.890
58059SOL    HW176009   3.114   0.773   9.891
58059SOL    HW276010   3.102   0.655   9.797
58060SOL     OW76011  11.356   9.406  14.355
58060SOL    HW176012  11.437   9.359  14.373
58060SOL    HW276013  11.385   9.494  14.330
58061SOL     OW76014   7.148   7.164  11.180
58061SOL    HW176015   7.233   7.164  11.224
58061SOL    HW276016   7.164   7.119  11.097
58062SOL     OW76017   9.538  10.845  10.415
58062SOL    HW176018   9.491  10.813  10.492
58062SOL    HW276019   9.470  10.886  10.361
58063SOL     OW76020   8.435   5.167   0.124
58063SOL    HW176021   8.365   5.174   0.058
58063SOL    HW276022   8.516   5.179   0.074
58064SOL     OW76023   8.553   7.991   2.805
58064SOL    HW176024   8.515   7.913   2.848
58064SOL    HW276025   8.597   7.956   2.728
58065SOL     OW76026  10.040   1.294   2.213
58065SOL    HW176027  10.046   1.313   2.119
58065SOL    HW276028  10.123   1.326   2.249
58066SOL     OW76029   9.473  10.378   8.964
58066SOL    HW176030   9.547  10.318   8.954
58066SOL    HW276031   9.507  10.463   8.938
58067SOL     OW76032   1.260  10.214  13.835
58067SOL    HW176033   1.198  10.141  13.840
58067SOL    HW276034   1.331  10.189  13.894
58068SOL     OW76035   4.990  10.928  12.080
58068SOL    HW176036   4.922  10.917  12.013
58068SOL    HW276037   5.038  10.845  12.079
58069SOL     OW76038   2.955   2.198   4.912
58069SOL    HW176039   2.880   2.200   4.972
58069SOL    HW276040   2.941   2.273   4.854
58070SOL     OW76041   9.779   7.455  12.294
58070SOL    HW176042   9.748   7.420  12.211
58070SOL    HW276043   9.866   7.417  12.305
58071SOL     OW76044   3.977   3.347   4.352
58071SOL    HW176045   4.028   3.281   4.400
58071SOL    HW276046   3.891   3.345   4.394
58072SOL     OW76047   0.694   7.997  14.668
58072SOL    HW176048   0.724   8.016  14.579
58072SOL    HW276049   0.647   7.914  14.661
58073SOL     OW76050   4.648   2.095   0.555
58073SOL    HW176051   4.632   2.176   0.507
58073SOL    HW276052   4.615   2.026   0.498
58074SOL     OW76053   8.724   5.298   8.296
58074SOL    HW176054   8.670   5.260   8.366
58074SOL    HW276055   8.693   5.388   8.287
58075SOL     OW76056   6.984  12.770   0.524
58075SOL    HW176057   7.006  12.720   0.602
58075SOL    HW276058   6.952  12.854   0.558
58076SOL     OW76059   5.726   9.625   3.685
58076SOL    HW176060   5.645   9.592   3.723
58076SOL    HW276061   5.778   9.654   3.760
58077SOL     OW76062   9.487   0.596  13.577
58077SOL    HW176063   9.523   0.590  13.665
58077SOL    HW276064   9.399   0.558  13.583
58078SOL     OW76065   5.677   3.933   5.546
58078SOL    HW176066   5.686   3.959   5.638
58078SOL    HW276067   5.764   3.903   5.520
58079SOL     OW76068   2.439   9.023  12.761
58079SOL    HW176069   2.430   9.071  12.843
58079SOL    HW276070   2.428   8.931  12.785
58080SOL     OW76071  13.426   7.467  10.899
58080SOL    HW176072  13.413   7.539  10.960
58080SOL    HW276073  13.497   7.497  10.842
58081SOL     OW76074   0.733   9.016  10.102
58081SOL    HW176075   0.827   9.019  10.084
58081SOL    HW276076   0.727   9.018  10.198
58082SOL     OW76077  11.446   1.012   4.660
58082SOL    HW176078  11.377   0.984   4.720
58082SOL    HW276079  11.435   0.957   4.582
58083SOL     OW76080   7.053   3.494   2.227
58083SOL    HW176081   7.117   3.501   2.155
58083SOL    HW276082   7.067   3.575   2.277
58084SOL     OW76083  11.086  12.545  11.311
58084SOL    HW176084  11.146  12.484  11.355
58084SOL    HW276085  11.014  12.490  11.281
58085SOL     OW76086   8.369   5.855  14.222
58085SOL    HW176087   8.432   5.784  14.210
58085SOL    HW276088   8.310   5.825  14.290
58086SOL     OW76089   6.656   5.384  13.580
58086SOL    HW176090   6.706   5.463  13.601
58086SOL    HW276091   6.708   5.339  13.513
58087SOL     OW76092   9.925  12.749  14.237
58087SOL    HW176093   9.897  12.825  14.186
58087SOL    HW276094   9.941  12.783  14.325
58088SOL     OW76095   2.635  14.537   3.478
58088SOL    HW176096   2.590  14.578   3.552
58088SOL    HW276097   2.728  14.555   3.493
58089SOL     OW76098   5.835   2.199  10.279
58089SOL    HW176099   5.802   2.234  10.362
58089SOL    HW276100   5.908   2.142  10.305
58090SOL     OW76101   2.622  14.773   8.031
58090SOL    HW176102   2.540  14.793   7.986
58090SOL    HW276103   2.603  14.694   8.082
58091SOL     OW76104  13.349   7.779  13.075
58091SOL    HW176105  13.361   7.684  13.079
58091SOL    HW276106  13.436   7.815  13.089
58092SOL     OW76107  11.099  13.083   5.001
58092SOL    HW176108  11.172  13.114   5.054
58092SOL    HW276109  11.021  13.116   5.046
58093SOL     OW76110  14.041   6.292  13.482
58093SOL    HW176111  14.042   6.210  13.533
58093SOL    HW276112  14.028   6.263  13.392
58094SOL     OW76113   6.373   0.332   3.487
58094SOL    HW176114   6.438   0.383   3.536
58094SOL    HW276115   6.289   0.373   3.509
58095SOL     OW76116   9.516   9.132   6.017
58095SOL    HW176117   9.585   9.101   5.959
58095SOL    HW276118   9.445   9.158   5.959
58096SOL     OW76119   4.567   7.370  11.843
58096SOL    HW176120   4.602   7.314  11.774
58096SOL    HW276121   4.505   7.314  11.890
58097SOL     OW76122   9.885  14.416   4.623
58097SOL    HW176123   9.973  14.433   4.589
58097SOL    HW276124   9.842  14.367   4.552
58098SOL     OW76125   7.353  11.520   8.902
58098SOL    HW176126   7.410  11.588   8.938
58098SOL    HW276127   7.392  11.438   8.933
58099SOL     OW76128  12.440  14.322   4.258
58099SOL    HW176129  12.453  14.229   4.277
58099SOL    HW276130  12.454  14.330   4.163
58100SOL     OW76131   0.874   5.638  10.289
58100SOL    HW176132   0.853   5.702  10.357
58100SOL    HW276133   0.900   5.560  10.338
58101SOL     OW76134   9.858   5.789  13.650
58101SOL    HW176135   9.946   5.818  13.674
58101SOL    HW276136   9.805   5.868  13.655
58102SOL     OW76137   8.777   2.796   8.811
58102SOL    HW176138   8.731   2.756   8.737
58102SOL    HW276139   8.749   2.887   8.810
58103SOL     OW76140  11.822  11.769  11.971
58103SOL    HW176141  11.845  11.825  11.897
58103SOL    HW276142  11.733  11.795  11.995
58104SOL     OW76143  12.078   7.329   1.983
58104SOL    HW176144  12.001   7.366   2.026
58104SOL    HW276145  12.056   7.237   1.968
58105SOL     OW76146  10.745   2.185   5.346
58105SOL    HW176147  10.673   2.239   5.314
58105SOL    HW276148  10.742   2.106   5.293
58106SOL     OW76149  12.594   1.139  10.257
58106SOL    HW176150  12.595   1.218  10.204
58106SOL    HW276151  12.575   1.170  10.346
58107SOL     OW76152   8.463   3.780   8.044
58107SOL    HW176153   8.478   3.686   8.052
58107SOL    HW276154   8.543   3.814   8.003
58108SOL     OW76155   5.524   2.121   8.238
58108SOL    HW176156   5.573   2.136   8.319
58108SOL    HW276157   5.437   2.157   8.256
58109SOL     OW76158   7.869   2.295   9.160
58109SOL    HW176159   7.808   2.304   9.087
58109SOL    HW276160   7.875   2.383   9.197
58110SOL     OW76161   1.189  10.766   9.857
58110SOL    HW176162   1.106  10.763   9.810
58110SOL    HW276163   1.192  10.855   9.893
58111SOL     OW76164   9.798   4.340  12.799
58111SOL    HW176165   9.877   4.380  12.762
58111SOL    HW276166   9.792   4.378  12.887
58112SOL     OW76167  13.482  14.634   7.877
58112SOL    HW176168  13.561  14.686   7.862
58112SOL    HW276169  13.422  14.694   7.922
58113SOL     OW76170   4.437   7.748  14.713
58113SOL    HW176171   4.522   7.709  14.697
58113SOL    HW276172   4.381   7.712  14.644
58114SOL     OW76173   0.465   2.709   6.381
58114SOL    HW176174   0.507   2.630   6.348
58114SOL    HW276175   0.530   2.749   6.439
58115SOL     OW76176  11.973  11.256   8.330
58115SOL    HW176177  11.906  11.207   8.283
58115SOL    HW276178  11.924  11.316   8.386
58116SOL     OW76179  13.640   4.328  10.430
58116SOL    HW176180  13.629   4.424  10.431
58116SOL    HW276181  13.616   4.301  10.519
58117SOL     OW76182   6.554   7.356   2.287
58117SOL    HW176183   6.585   7.447   2.289
58117SOL    HW276184   6.562   7.326   2.377
58118SOL     OW76185   3.892   4.835   1.645
58118SOL    HW176186   3.877   4.785   1.564
58118SOL    HW276187   3.832   4.909   1.639
58119SOL     OW76188  12.728   1.271   3.811
58119SOL    HW176189  12.763   1.186   3.834
58119SOL    HW276190  12.765   1.291   3.725
58120SOL     OW76191  13.263   6.416  14.368
58120SOL    HW176192  13.306   6.361  14.434
58120SOL    HW276193  13.270   6.365  14.287
58121SOL     OW76194   9.359   2.060   3.497
58121SOL    HW176195   9.417   2.055   3.421
58121SOL    HW276196   9.385   2.141   3.541
58122SOL     OW76197  11.442   2.171  10.150
58122SOL    HW176198  11.352   2.169  10.116
58122SOL    HW276199  11.433   2.203  10.240
58123SOL     OW76200   1.233   3.677   5.568
58123SOL    HW176201   1.210   3.752   5.622
58123SOL    HW276202   1.244   3.713   5.480
58124SOL     OW76203   8.472  11.073   2.641
58124SOL    HW176204   8.470  11.007   2.571
58124SOL    HW276205   8.383  11.110   2.641
58125SOL     OW76206  10.659  13.057   5.983
58125SOL    HW176207  10.651  13.041   5.889
58125SOL    HW276208  10.717  12.988   6.015
58126SOL     OW76209   4.018   3.454   9.191
58126SOL    HW176210   3.947   3.407   9.149
58126SOL    HW276211   4.085   3.388   9.207
58127SOL     OW76212   7.721  10.542   7.206
58127SOL    HW176213   7.749  10.466   7.154
58127SOL    HW276214   7.645  10.511   7.255
58128SOL     OW76215   2.411   4.601  12.626
58128SOL    HW176216   2.474   4.566  12.564
58128SOL    HW276217   2.338   4.539  12.624
58129SOL     OW76218   9.393   2.995  11.945
58129SOL    HW176219   9.301   2.994  11.972
58129SOL    HW276220   9.442   2.996  12.027
58130SOL     OW76221   0.944   6.142  11.728
58130SOL    HW176222   1.035   6.115  11.741
58130SOL    HW276223   0.947   6.238  11.726
58131SOL     OW76224  11.821  11.671   8.496
58131SOL    HW176225  11.741  11.652   8.448
58131SOL    HW276226  11.862  11.586   8.510
58132SOL     OW76227   7.574   9.957   6.629
58132SOL    HW176228   7.639   9.984   6.564
58132SOL    HW276229   7.568   9.862   6.619
58133SOL     OW76230  13.971  14.681   3.613
58133SOL    HW176231  13.888  14.679   3.660
58133SOL    HW276232  13.946  14.694   3.522
58134SOL     OW76233   1.353   7.458  11.475
58134SOL    HW176234   1.343   7.363  11.476
58134SOL    HW276235   1.263   7.491  11.480
58135SOL     OW76236  10.053  14.684   0.946
58135SOL    HW176237  10.100  14.766   0.931
58135SOL    HW276238  10.003  14.670   0.865
58136SOL     OW76239  10.332   5.964   1.340
58136SOL    HW176240  10.250   5.914   1.345
58136SOL    HW276241  10.395   5.911   1.388
58137SOL     OW76242  10.661  13.440   5.511
58137SOL    HW176243  10.623  13.456   5.425
58137SOL    HW276244  10.593  13.392   5.559
58138SOL     OW76245   7.235   2.912   5.536
58138SOL    HW176246   7.220   2.992   5.588
58138SOL    HW276247   7.324   2.922   5.502
58139SOL     OW76248  10.989   4.697   2.480
58139SOL    HW176249  11.062   4.726   2.426
58139SOL    HW276250  10.973   4.770   2.540
58140SOL     OW76251  12.143  11.016  10.551
58140SOL    HW176252  12.165  11.031  10.643
58140SOL    HW276253  12.050  11.037  10.545
58141SOL     OW76254  13.055  10.316   4.590
58141SOL    HW176255  13.134  10.337   4.541
58141SOL    HW276256  12.988  10.303   4.522
58142SOL     OW76257  13.963   2.681   1.124
58142SOL    HW176258  14.036   2.723   1.079
58142SOL    HW276259  13.887   2.697   1.068
58143SOL     OW76260   5.633   7.870   7.841
58143SOL    HW176261   5.708   7.868   7.900
58143SOL    HW276262   5.557   7.873   7.899
58144SOL     OW76263  11.786   3.238   0.819
58144SOL    HW176264  11.775   3.275   0.906
58144SOL    HW276265  11.857   3.289   0.779
58145SOL     OW76266   0.866   0.940   4.135
58145SOL    HW176267   0.940   0.884   4.157
58145SOL    HW276268   0.789   0.886   4.153
58146SOL     OW76269  12.754   5.393   9.150
58146SOL    HW176270  12.842   5.421   9.125
58146SOL    HW276271  12.768   5.322   9.212
58147SOL     OW76272   8.922  11.230   1.649
58147SOL    HW176273   8.991  11.291   1.621
58147SOL    HW276274   8.891  11.191   1.567
58148SOL     OW76275  12.269   8.086   8.279
58148SOL    HW176276  12.196   8.028   8.255
58148SOL    HW276277  12.233   8.142   8.348
58149SOL     OW76278   0.187   5.830   2.225
58149SOL    HW176279   0.190   5.813   2.319
58149SOL    HW276280   0.150   5.918   2.218
58150SOL     OW76281   3.184   9.320   7.001
58150SOL    HW176282   3.245   9.327   7.074
58150SOL    HW276283   3.171   9.410   6.971
58151SOL     OW76284   2.668  13.834  14.736
58151SOL    HW176285   2.696  13.873  14.819
58151SOL    HW276286   2.748  13.829  14.684
58152SOL     OW76287  14.461  14.659  12.770
58152SOL    HW176288  14.413  14.741  12.758
58152SOL    HW276289  14.452  14.639  12.863
58153SOL     OW76290   5.805   9.218  10.929
58153SOL    HW176291   5.720   9.226  10.971
58153SOL    HW276292   5.787   9.232  10.836
58154SOL     OW76293  13.567   7.151   4.059
58154SOL    HW176294  13.545   7.244   4.061
58154SOL    HW276295  13.483   7.107   4.043
58155SOL     OW76296  13.565   7.569   7.026
58155SOL    HW176297  13.482   7.546   7.068
58155SOL    HW276298  13.623   7.592   7.099
58156SOL     OW76299   9.954   9.335  14.270
58156SOL    HW176300   9.993   9.346  14.183
58156SOL    HW276301  10.016   9.376  14.330
58157SOL     OW76302   7.961   1.477  12.537
58157SOL    HW176303   8.001   1.532  12.469
58157SOL    HW276304   7.933   1.539  12.604
58158SOL     OW76305   8.731   2.039  11.894
58158SOL    HW176306   8.725   2.134  11.881
58158SOL    HW276307   8.718   2.002  11.807
58159SOL     OW76308  12.167   8.876   3.499
58159SOL    HW176309  12.183   8.859   3.592
58159SOL    HW276310  12.251   8.856   3.457
58160SOL     OW76311  11.135   3.683   7.294
58160SOL    HW176312  11.135   3.592   7.267
58160SOL    HW276313  11.203   3.724   7.241
58161SOL     OW76314  14.413   3.933   4.056
58161SOL    HW176315  14.508   3.929   4.062
58161SOL    HW276316  14.381   3.898   4.139
58162SOL     OW76317   8.280   6.682   5.828
58162SOL    HW176318   8.250   6.607   5.776
58162SOL    HW276319   8.202   6.712   5.875
58163SOL     OW76320   6.078  10.098   3.802
58163SOL    HW176321   6.052  10.025   3.858
58163SOL    HW276322   6.099  10.057   3.718
58164SOL     OW76323  11.772   4.424  14.106
58164SOL    HW176324  11.752   4.404  14.197
58164SOL    HW276325  11.758   4.518  14.098
58165SOL     OW76326   8.212   1.533   0.968
58165SOL    HW176327   8.154   1.541   0.892
58165SOL    HW276328   8.281   1.473   0.938
58166SOL     OW76329  13.871   6.853   3.623
58166SOL    HW176330  13.809   6.851   3.696
58166SOL    HW276331  13.953   6.882   3.663
58167SOL     OW76332  14.109  13.352  10.494
58167SOL    HW176333  14.148  13.435  10.465
58167SOL    HW276334  14.112  13.296  10.417
58168SOL     OW76335   0.340   7.839   5.825
58168SOL    HW176336   0.323   7.756   5.781
58168SOL    HW276337   0.253   7.876   5.841
58169SOL     OW76338   6.412   9.463   9.218
58169SOL    HW176339   6.354   9.458   9.294
58169SOL    HW276340   6.387   9.543   9.173
58170SOL     OW76341  11.820  10.717   9.877
58170SOL    HW176342  11.725  10.720   9.884
58170SOL    HW276343  11.843  10.627   9.902
58171SOL     OW76344   6.140   1.085   8.542
58171SOL    HW176345   6.056   1.062   8.581
58171SOL    HW276346   6.121   1.094   8.448
58172SOL     OW76347  13.718  11.536   9.911
58172SOL    HW176348  13.779  11.508   9.843
58172SOL    HW276349  13.652  11.587   9.865
58173SOL     OW76350   8.536  11.739  12.705
58173SOL    HW176351   8.619  11.694  12.686
58173SOL    HW276352   8.492  11.683  12.769
58174SOL     OW76353  11.806  13.324   0.595
58174SOL    HW176354  11.710  13.323   0.595
58174SOL    HW276355  11.830  13.347   0.505
58175SOL     OW76356  11.402  14.142  11.702
58175SOL    HW176357  11.463  14.175  11.636
58175SOL    HW276358  11.440  14.060  11.732
58176SOL     OW76359   6.710  14.391  13.314
58176SOL    HW176360   6.764  14.324  13.273
58176SOL    HW276361   6.632  14.344  13.344
58177SOL     OW76362  14.288   1.358  12.003
58177SOL    HW176363  14.298   1.266  12.027
58177SOL    HW276364  14.340   1.406  12.068
58178SOL     OW76365   0.994   5.806   3.456
58178SOL    HW176366   0.959   5.861   3.526
58178SOL    HW276367   1.087   5.827   3.452
58179SOL     OW76368  10.159  13.042   8.543
58179SOL    HW176369  10.202  13.090   8.614
58179SOL    HW276370  10.144  13.108   8.476
58180SOL     OW76371   8.721   8.235  11.114
58180SOL    HW176372   8.734   8.326  11.090
58180SOL    HW276373   8.626   8.223  11.116
58181SOL     OW76374   2.479   1.462  11.970
58181SOL    HW176375   2.503   1.554  11.959
58181SOL    HW276376   2.516   1.438  12.055
58182SOL     OW76377   0.663  11.437  12.905
58182SOL    HW176378   0.684  11.524  12.873
58182SOL    HW276379   0.614  11.396  12.834
58183SOL     OW76380   2.223   6.571   4.024
58183SOL    HW176381   2.133   6.549   4.001
58183SOL    HW276382   2.216   6.652   4.073
58184SOL     OW76383  10.663   4.119   5.681
58184SOL    HW176384  10.754   4.117   5.711
58184SOL    HW276385  10.632   4.030   5.695
58185SOL     OW76386   2.532  10.152  10.829
58185SOL    HW176387   2.627  10.147  10.826
58185SOL    HW276388   2.505  10.143  10.738
58186SOL     OW76389   8.954  10.361   2.496
58186SOL    HW176390   9.023  10.398   2.552
58186SOL    HW276391   8.919  10.437   2.450
58187SOL     OW76392  14.190   4.123  14.294
58187SOL    HW176393  14.147   4.077  14.366
58187SOL    HW276394  14.118   4.150  14.237
58188SOL     OW76395  14.387   7.572   4.121
58188SOL    HW176396  14.346   7.511   4.182
58188SOL    HW276397  14.334   7.652   4.126
58189SOL     OW76398  11.644   2.828  10.505
58189SOL    HW176399  11.722   2.797  10.459
58189SOL    HW276400  11.573   2.817  10.442
58190SOL     OW76401  11.767   0.474   5.363
58190SOL    HW176402  11.754   0.396   5.310
58190SOL    HW276403  11.831   0.526   5.314
58191SOL     OW76404  14.797  12.061  11.645
58191SOL    HW176405  14.740  11.993  11.609
58191SOL    HW276406  14.805  12.040  11.738
58192SOL     OW76407  12.573   4.426   3.061
58192SOL    HW176408  12.635   4.447   2.991
58192SOL    HW276409  12.564   4.331   3.058
58193SOL     OW76410   4.122   1.827  14.109
58193SOL    HW176411   4.167   1.744  14.120
58193SOL    HW276412   4.107   1.835  14.015
58194SOL     OW76413   4.483  14.814  10.860
58194SOL    HW176414   4.532  14.785  10.783
58194SOL    HW276415   4.487  14.740  10.920
58195SOL     OW76416  11.609   7.499   7.448
58195SOL    HW176417  11.552   7.538   7.515
58195SOL    HW276418  11.548   7.459   7.386
58196SOL     OW76419   0.243  10.544   3.020
58196SOL    HW176420   0.258  10.526   3.113
58196SOL    HW276421   0.285  10.470   2.975
58197SOL     OW76422   2.685   7.999  14.607
58197SOL    HW176423   2.600   7.966  14.637
58197SOL    HW276424   2.669   8.027  14.517
58198SOL     OW76425   5.578   4.065   4.702
58198SOL    HW176426   5.591   4.124   4.776
58198SOL    HW276427   5.552   4.123   4.630
58199SOL     OW76428   4.827   4.374  13.735
58199SOL    HW176429   4.884   4.364  13.659
58199SOL    HW276430   4.791   4.287  13.749
58200SOL     OW76431   3.723   0.704  13.342
58200SOL    HW176432   3.815   0.729  13.348
58200SOL    HW276433   3.707   0.650  13.419
58201SOL     OW76434  11.658  10.266   1.893
58201SOL    HW176435  11.609  10.226   1.822
58201SOL    HW276436  11.749  10.240   1.878
58202SOL     OW76437   9.169   3.666  10.964
58202SOL    HW176438   9.134   3.742  10.917
58202SOL    HW276439   9.233   3.702  11.024
58203SOL     OW76440  12.425  12.518   8.731
58203SOL    HW176441  12.403  12.430   8.700
58203SOL    HW276442  12.451  12.506   8.822
58204SOL     OW76443   6.680  11.794   9.699
58204SOL    HW176444   6.682  11.714   9.752
58204SOL    HW276445   6.756  11.844   9.729
58205SOL     OW76446   4.541  11.633  10.224
58205SOL    HW176447   4.474  11.695  10.253
58205SOL    HW276448   4.593  11.617  10.302
58206SOL     OW76449   6.157   9.875   9.069
58206SOL    HW176450   6.089   9.816   9.036
58206SOL    HW276451   6.125   9.903   9.154
58207SOL     OW76452   9.799  10.299  13.687
58207SOL    HW176453   9.787  10.228  13.624
58207SOL    HW276454   9.730  10.286  13.752
58208SOL     OW76455   1.470   9.159   1.598
58208SOL    HW176456   1.375   9.157   1.587
58208SOL    HW276457   1.501   9.080   1.553
58209SOL     OW76458   6.703   9.155   2.071
58209SOL    HW176459   6.754   9.075   2.063
58209SOL    HW276460   6.697   9.171   2.165
58210SOL     OW76461  14.549   2.885   6.613
58210SOL    HW176462  14.541   2.974   6.578
58210SOL    HW276463  14.512   2.892   6.702
58211SOL     OW76464   1.031   9.243   4.024
58211SOL    HW176465   1.110   9.201   3.989
58211SOL    HW276466   0.992   9.178   4.082
58212SOL     OW76467   7.562  14.009   4.153
58212SOL    HW176468   7.612  13.963   4.220
58212SOL    HW276469   7.508  14.071   4.202
58213SOL     OW76470   5.732  11.344  12.109
58213SOL    HW176471   5.745  11.439  12.116
58213SOL    HW276472   5.672  11.323  12.181
58214SOL     OW76473   0.174   5.253   8.413
58214SOL    HW176474   0.112   5.325   8.401
58214SOL    HW276475   0.221   5.275   8.493
58215SOL     OW76476   8.531   1.150  13.685
58215SOL    HW176477   8.620   1.148  13.651
58215SOL    HW276478   8.519   1.240  13.716
58216SOL     OW76479  12.994   7.602   9.569
58216SOL    HW176480  13.010   7.686   9.611
58216SOL    HW276481  13.023   7.614   9.479
58217SOL     OW76482   9.088   5.657   5.520
58217SOL    HW176483   9.006   5.658   5.569
58217SOL    HW276484   9.067   5.613   5.438
58218SOL     OW76485   1.671   9.004  13.754
58218SOL    HW176486   1.681   8.965  13.667
58218SOL    HW276487   1.630   9.088  13.738
58219SOL     OW76488   3.994   0.406  12.347
58219SOL    HW176489   4.019   0.331  12.293
58219SOL    HW276490   4.023   0.482  12.298
58220SOL     OW76491  11.957   4.336  10.264
58220SOL    HW176492  12.022   4.345  10.195
58220SOL    HW276493  11.905   4.259  10.239
58221SOL     OW76494  10.064   5.983   8.903
58221SOL    HW176495  10.091   6.050   8.967
58221SOL    HW276496  10.014   6.031   8.838
58222SOL     OW76497   9.413   0.477  12.584
58222SOL    HW176498   9.389   0.566  12.608
58222SOL    HW276499   9.332   0.426  12.598
58223SOL     OW76500   9.403   1.561   9.202
58223SOL    HW176501   9.435   1.485   9.251
58223SOL    HW276502   9.423   1.540   9.110
58224SOL     OW76503   6.257   1.242  12.377
58224SOL    HW176504   6.283   1.207  12.462
58224SOL    HW276505   6.185   1.185  12.350
58225SOL     OW76506   6.150   3.392   0.147
58225SOL    HW176507   6.136   3.380   0.053
58225SOL    HW276508   6.241   3.419   0.154
58226SOL     OW76509   3.913   0.245   0.303
58226SOL    HW176510   3.857   0.249   0.381
58226SOL    HW276511   3.945   0.335   0.292
58227SOL     OW76512  12.071   6.285  11.526
58227SOL    HW176513  11.987   6.331  11.522
58227SOL    HW276514  12.118   6.324  11.599
58228SOL     OW76515   0.043   8.657   9.977
58228SOL    HW176516   0.019   8.595   9.908
58228SOL    HW276517  14.856   8.731   9.964
58229SOL     OW76518   7.270  10.128  12.503
58229SOL    HW176519   7.350  10.106  12.455
58229SOL    HW276520   7.256  10.221  12.485
58230SOL     OW76521   7.035   0.507   2.954
58230SOL    HW176522   7.097   0.446   2.916
58230SOL    HW276523   7.029   0.481   3.047
58231SOL     OW76524   0.711   4.132   7.225
58231SOL    HW176525   0.616   4.133   7.222
58231SOL    HW276526   0.738   4.191   7.155
58232SOL     OW76527   1.286   2.970  11.996
58232SOL    HW176528   1.365   3.024  12.002
58232SOL    HW276529   1.214   3.028  12.019
58233SOL     OW76530   9.310   5.083   1.409
58233SOL    HW176531   9.311   4.989   1.427
58233SOL    HW276532   9.371   5.094   1.337
58234SOL     OW76533   6.096  11.132   6.057
58234SOL    HW176534   6.067  11.047   6.022
58234SOL    HW276535   6.191  11.123   6.065
58235SOL     OW76536   6.107  13.069   6.487
58235SOL    HW176537   6.049  13.041   6.416
58235SOL    HW276538   6.083  13.014   6.561
58236SOL     OW76539   3.772  12.013   4.741
58236SOL    HW176540   3.689  11.975   4.714
58236SOL    HW276541   3.824  11.938   4.771
58237SOL     OW76542   1.460  10.768  11.168
58237SOL    HW176543   1.520  10.720  11.110
58237SOL    HW276544   1.518  10.808  11.234
58238SOL     OW76545  13.969   1.650  13.426
58238SOL    HW176546  13.966   1.709  13.502
58238SOL    HW276547  13.879   1.619  13.416
58239SOL     OW76548   9.250   9.356   8.688
58239SOL    HW176549   9.331   9.406   8.692
58239SOL    HW276550   9.208   9.372   8.773
58240SOL     OW76551  12.979   1.580  10.932
58240SOL    HW176552  12.947   1.600  11.020
58240SOL    HW276553  13.019   1.493  10.939
58241SOL     OW76554   9.210   5.440   6.400
58241SOL    HW176555   9.293   5.487   6.405
58241SOL    HW276556   9.235   5.348   6.392
58242SOL     OW76557   5.803  10.898  12.061
58242SOL    HW176558   5.734  10.951  12.021
58242SOL    HW276559   5.862  10.962  12.099
58243SOL     OW76560  10.160   2.580  13.017
58243SOL    HW176561  10.241   2.623  13.045
58243SOL    HW276562  10.146   2.610  12.927
58244SOL     OW76563  14.372   7.377   8.580
58244SOL    HW176564  14.280   7.366   8.606
58244SOL    HW276565  14.378   7.332   8.496
58245SOL     OW76566   7.742   6.887   5.742
58245SOL    HW176567   7.656   6.879   5.783
58245SOL    HW276568   7.741   6.973   5.700
58246SOL     OW76569  13.975   8.653   1.107
58246SOL    HW176570  14.002   8.562   1.111
58246SOL    HW276571  14.057   8.703   1.110
58247SOL     OW76572   6.410  14.416   3.015
58247SOL    HW176573   6.442  14.480   3.077
58247SOL    HW276574   6.315  14.420   3.023
58248SOL     OW76575   3.709   0.786  11.565
58248SOL    HW176576   3.666   0.735  11.496
58248SOL    HW276577   3.749   0.720  11.622
58249SOL     OW76578  10.933  14.135  11.958
58249SOL    HW176579  10.898  14.057  12.001
58249SOL    HW276580  11.023  14.111  11.935
58250SOL     OW76581   2.962   5.025   6.934
58250SOL    HW176582   2.917   5.099   6.976
58250SOL    HW276583   3.031   5.066   6.882
58251SOL     OW76584  12.666   4.813  13.179
58251SOL    HW176585  12.575   4.823  13.153
58251SOL    HW276586  12.702   4.902  13.175
58252SOL     OW76587   2.678  14.163   7.705
58252SOL    HW176588   2.743  14.186   7.772
58252SOL    HW276589   2.686  14.068   7.695
58253SOL     OW76590  14.523   8.316   3.450
58253SOL    HW176591  14.598   8.358   3.492
58253SOL    HW276592  14.455   8.382   3.451
58254SOL     OW76593   4.398  12.862  12.552
58254SOL    HW176594   4.435  12.867  12.640
58254SOL    HW276595   4.432  12.780  12.516
58255SOL     OW76596   6.447   6.459   7.797
58255SOL    HW176597   6.487   6.373   7.809
58255SOL    HW276598   6.358   6.441   7.767
58256SOL     OW76599   4.358  11.226   6.532
58256SOL    HW176600   4.359  11.133   6.553
58256SOL    HW276601   4.346  11.229   6.437
58257SOL     OW76602   5.269   3.918   3.758
58257SOL    HW176603   5.304   4.005   3.736
58257SOL    HW276604   5.339   3.876   3.808
58258SOL     OW76605   0.140  14.521   9.036
58258SOL    HW176606   0.212  14.532   9.098
58258SOL    HW276607   0.110  14.431   9.049
58259SOL     OW76608  11.670  13.849   5.410
58259SOL    HW176609  11.755  13.874   5.374
58259SOL    HW276610  11.687  13.837   5.504
58260SOL     OW76611   2.644   9.775  12.057
58260SOL    HW176612   2.595   9.856  12.063
58260SOL    HW276613   2.579   9.706  12.066
58261SOL     OW76614   3.718   6.759   8.125
58261SOL    HW176615   3.683   6.698   8.060
58261SOL    HW276616   3.650   6.765   8.192
58262SOL     OW76617  11.893   0.995   9.731
58262SOL    HW176618  11.942   0.932   9.677
58262SOL    HW276619  11.923   1.081   9.702
58263SOL     OW76620  10.046  10.766  10.918
58263SOL    HW176621  10.064  10.718  10.999
58263SOL    HW276622  10.009  10.700  10.859
58264SOL     OW76623  12.815   4.476  12.023
58264SOL    HW176624  12.852   4.407  11.968
58264SOL    HW276625  12.735   4.439  12.059
58265SOL     OW76626   2.322  12.417   1.994
58265SOL    HW176627   2.279  12.503   1.994
58265SOL    HW276628   2.257  12.357   2.029
58266SOL     OW76629   7.454   2.147   3.555
58266SOL    HW176630   7.403   2.200   3.494
58266SOL    HW276631   7.408   2.063   3.558
58267SOL     OW76632  11.447   7.518   6.322
58267SOL    HW176633  11.445   7.606   6.284
58267SOL    HW276634  11.540   7.497   6.328
58268SOL     OW76635   4.465   9.263  13.907
58268SOL    HW176636   4.453   9.212  13.827
58268SOL    HW276637   4.538   9.220  13.952
58269SOL     OW76638   5.827  14.105   0.945
58269SOL    HW176639   5.878  14.044   0.997
58269SOL    HW276640   5.809  14.178   1.004
58270SOL     OW76641   0.659   1.401   2.074
58270SOL    HW176642   0.606   1.365   2.003
58270SOL    HW276643   0.681   1.326   2.129
58271SOL     OW76644   6.865   2.421  13.781
58271SOL    HW176645   6.932   2.354  13.792
58271SOL    HW276646   6.895   2.495  13.834
58272SOL     OW76647  10.287   6.250   5.290
58272SOL    HW176648  10.240   6.309   5.349
58272SOL    HW276649  10.218   6.203   5.243
58273SOL     OW76650   1.525   8.423   1.901
58273SOL    HW176651   1.500   8.358   1.966
58273SOL    HW276652   1.565   8.494   1.952
58274SOL     OW76653   0.842   0.997  10.485
58274SOL    HW176654   0.803   0.920  10.444
58274SOL    HW276655   0.835   1.066  10.419
58275SOL     OW76656   4.741   5.811  12.276
58275SOL    HW176657   4.706   5.721  12.280
58275SOL    HW276658   4.679   5.858  12.221
58276SOL     OW76659   9.358   1.445   1.029
58276SOL    HW176660   9.364   1.452   0.933
58276SOL    HW276661   9.272   1.483   1.050
58277SOL     OW76662   3.561  10.308   9.252
58277SOL    HW176663   3.586  10.219   9.227
58277SOL    HW276664   3.577  10.360   9.174
58278SOL     OW76665   0.619   3.247  11.412
58278SOL    HW176666   0.681   3.318  11.428
58278SOL    HW276667   0.651   3.205  11.332
58279SOL     OW76668   1.785   6.211   1.950
58279SOL    HW176669   1.739   6.129   1.967
58279SOL    HW276670   1.818   6.202   1.860
58280SOL     OW76671   2.575   8.119   4.334
58280SOL    HW176672   2.640   8.078   4.391
58280SOL    HW276673   2.596   8.213   4.339
58281SOL     OW76674   0.033  11.061  14.803
58281SOL    HW176675  14.833  11.030  14.748
58281SOL    HW276676   0.016  11.155  14.814
58282SOL     OW76677  10.878   1.259   5.956
58282SOL    HW176678  10.884   1.179   5.904
58282SOL    HW276679  10.803   1.306   5.919
58283SOL     OW76680   3.975   1.920   5.053
58283SOL    HW176681   3.907   1.969   5.005
58283SOL    HW276682   3.931   1.840   5.081
58284SOL     OW76683   8.169   6.082   1.899
58284SOL    HW176684   8.156   6.037   1.816
58284SOL    HW276685   8.263   6.095   1.906
58285SOL     OW76686  13.939   5.011   2.487
58285SOL    HW176687  13.888   5.020   2.406
58285SOL    HW276688  14.011   4.953   2.463
58286SOL     OW76689  13.952   9.832   0.237
58286SOL    HW176690  13.998   9.834   0.321
58286SOL    HW276691  14.021   9.838   0.171
58287SOL     OW76692  10.956  10.844   9.720
58287SOL    HW176693  10.960  10.772   9.657
58287SOL    HW276694  10.917  10.916   9.671
58288SOL     OW76695   4.815  12.045   3.420
58288SOL    HW176696   4.784  12.047   3.510
58288SOL    HW276697   4.883  11.978   3.419
58289SOL     OW76698   1.982   1.648   6.176
58289SOL    HW176699   1.966   1.723   6.234
58289SOL    HW276700   2.042   1.682   6.110
58290SOL     OW76701   9.207  12.289  14.516
58290SOL    HW176702   9.274  12.302  14.449
58290SOL    HW276703   9.238  12.340  14.591
58291SOL     OW76704  13.133   2.639   6.161
58291SOL    HW176705  13.090   2.713   6.119
58291SOL    HW276706  13.160   2.583   6.088
58292SOL     OW76707   9.906  12.084  13.364
58292SOL    HW176708   9.898  12.100  13.270
58292SOL    HW276709   9.885  11.991  13.374
58293SOL     OW76710  14.373   5.823   8.658
58293SOL    HW176711  14.278   5.836   8.659
58293SOL    HW276712  14.389   5.762   8.587
58294SOL     OW76713  12.427   1.763   1.854
58294SOL    HW176714  12.390   1.686   1.895
58294SOL    HW276715  12.389   1.837   1.901
58295SOL     OW76716   3.625   4.449   8.520
58295SOL    HW176717   3.574   4.404   8.588
58295SOL    HW276718   3.650   4.532   8.560
58296SOL     OW76719   1.042  10.389   7.243
58296SOL    HW176720   1.008  10.459   7.187
58296SOL    HW276721   1.074  10.434   7.321
58297SOL     OW76722   3.943  12.134   3.057
58297SOL    HW176723   3.940  12.076   3.132
58297SOL    HW276724   3.853  12.165   3.047
58298SOL     OW76725   5.278   9.784   4.509
58298SOL    HW176726   5.360   9.809   4.466
58298SOL    HW276727   5.305   9.730   4.582
58299SOL     OW76728   6.194   7.438  14.276
58299SOL    HW176729   6.254   7.499  14.317
58299SOL    HW276730   6.133   7.493  14.227
58300SOL     OW76731   3.679   0.313   3.390
58300SOL    HW176732   3.634   0.295   3.472
58300SOL    HW276733   3.759   0.359   3.416
58301SOL     OW76734   9.204   2.691   0.032
58301SOL    HW176735   9.210   2.682  14.809
58301SOL    HW276736   9.293   2.672   0.063
58302SOL     OW76737  10.509   9.172   3.623
58302SOL    HW176738  10.423   9.206   3.645
58302SOL    HW276739  10.492   9.091   3.575
58303SOL     OW76740   4.834   3.195   3.687
58303SOL    HW176741   4.771   3.124   3.676
58303SOL    HW276742   4.792   3.271   3.646
58304SOL     OW76743   6.153  12.397  11.760
58304SOL    HW176744   6.211  12.332  11.719
58304SOL    HW276745   6.205  12.477  11.760
58305SOL     OW76746   0.719   0.459  14.836
58305SOL    HW176747   0.757   0.436  14.751
58305SOL    HW276748   0.762   0.400   0.026
58306SOL     OW76749   3.397   0.461   4.729
58306SOL    HW176750   3.390   0.555   4.711
58306SOL    HW276751   3.309   0.436   4.760
58307SOL     OW76752   0.995  12.742   4.641
58307SOL    HW176753   0.956  12.659   4.667
58307SOL    HW276754   0.932  12.809   4.668
58308SOL     OW76755  13.691   4.011  12.604
58308SOL    HW176756  13.616   4.069  12.613
58308SOL    HW276757  13.761   4.066  12.571
58309SOL     OW76758  12.837   2.177   5.686
58309SOL    HW176759  12.839   2.151   5.594
58309SOL    HW276760  12.751   2.148   5.717
58310SOL     OW76761  11.520   3.726   7.003
58310SOL    HW176762  11.534   3.687   7.089
58310SOL    HW276763  11.426   3.746   7.000
58311SOL     OW76764   4.620  14.305   2.050
58311SOL    HW176765   4.651  14.396   2.042
58311SOL    HW276766   4.681  14.255   1.996
58312SOL     OW76767   0.246   4.991   6.413
58312SOL    HW176768   0.322   4.984   6.355
58312SOL    HW276769   0.263   5.070   6.464
58313SOL     OW76770   3.537  12.997   3.450
58313SOL    HW176771   3.622  12.961   3.473
58313SOL    HW276772   3.527  13.074   3.505
58314SOL     OW76773   5.473   2.959  10.986
58314SOL    HW176774   5.389   2.943  11.029
58314SOL    HW276775   5.524   2.880  11.001
58315SOL     OW76776   2.580   1.478  10.321
58315SOL    HW176777   2.505   1.424  10.297
58315SOL    HW276778   2.654   1.418  10.321
58316SOL     OW76779   9.336   8.351   9.911
58316SOL    HW176780   9.347   8.301   9.992
58316SOL    HW276781   9.350   8.286   9.842
58317SOL     OW76782  10.057   5.768   9.571
58317SOL    HW176783   9.988   5.760   9.638
58317SOL    HW276784  10.130   5.810   9.616
58318SOL     OW76785   1.606  12.387   9.440
58318SOL    HW176786   1.695  12.357   9.460
58318SOL    HW276787   1.553  12.351   9.511
58319SOL     OW76788  11.631   1.039   3.322
58319SOL    HW176789  11.665   1.119   3.283
58319SOL    HW276790  11.682   1.028   3.403
58320SOL     OW76791   7.043   2.028   1.334
58320SOL    HW176792   7.073   1.961   1.271
58320SOL    HW276793   7.115   2.034   1.397
58321SOL     OW76794  12.794   4.452   4.913
58321SOL    HW176795  12.844   4.533   4.906
58321SOL    HW276796  12.838   4.391   4.854
58322SOL     OW76797  10.179   9.192   0.293
58322SOL    HW176798  10.196   9.226   0.381
58322SOL    HW276799  10.208   9.262   0.235
58323SOL     OW76800   2.872   3.956   3.126
58323SOL    HW176801   2.889   3.908   3.045
58323SOL    HW276802   2.808   3.902   3.172
58324SOL     OW76803  13.125  14.224   8.221
58324SOL    HW176804  13.088  14.152   8.170
58324SOL    HW276805  13.189  14.265   8.163
58325SOL     OW76806  10.333   7.051  12.837
58325SOL    HW176807  10.324   6.970  12.886
58325SOL    HW276808  10.276   7.040  12.761
58326SOL     OW76809   0.659  11.636   4.744
58326SOL    HW176810   0.754  11.625   4.750
58326SOL    HW276811   0.625  11.579   4.814
58327SOL     OW76812  10.818   7.413   7.660
58327SOL    HW176813  10.780   7.478   7.600
58327SOL    HW276814  10.751   7.400   7.727
58328SOL     OW76815   2.062  11.213   2.607
58328SOL    HW176816   2.156  11.193   2.608
58328SOL    HW276817   2.024  11.144   2.552
58329SOL     OW76818  11.279  10.638   8.564
58329SOL    HW176819  11.303  10.730   8.550
58329SOL    HW276820  11.254  10.606   8.477
58330SOL     OW76821   4.950  11.778   2.234
58330SOL    HW176822   4.900  11.745   2.308
58330SOL    HW276823   4.884  11.813   2.174
58331SOL     OW76824   1.757   1.225   8.255
58331SOL    HW176825   1.688   1.167   8.288
58331SOL    HW276826   1.814   1.167   8.204
58332SOL     OW76827  14.342  13.508   8.754
58332SOL    HW176828  14.323  13.600   8.772
58332SOL    HW276829  14.268  13.460   8.792
58333SOL     OW76830   1.267   1.933   3.793
58333SOL    HW176831   1.204   2.002   3.812
58333SOL    HW276832   1.231   1.855   3.836
58334SOL     OW76833  13.161   0.945   2.930
58334SOL    HW176834  13.188   1.035   2.911
58334SOL    HW276835  13.170   0.899   2.847
58335SOL     OW76836   6.449   9.341   0.897
58335SOL    HW176837   6.494   9.262   0.927
58335SOL    HW276838   6.494   9.413   0.941
58336SOL     OW76839   6.258   5.777  11.358
58336SOL    HW176840   6.336   5.790  11.304
58336SOL    HW276841   6.229   5.688  11.337
58337SOL     OW76842   3.981   7.328   9.387
58337SOL    HW176843   3.952   7.244   9.354
58337SOL    HW276844   4.069   7.339   9.351
58338SOL     OW76845  13.493  11.948   7.179
58338SOL    HW176846  13.588  11.960   7.176
58338SOL    HW276847  13.478  11.860   7.145
58339SOL     OW76848   0.698  12.126   3.707
58339SOL    HW176849   0.715  12.120   3.613
58339SOL    HW276850   0.650  12.209   3.718
58340SOL     OW76851   5.464   6.856   9.559
58340SOL    HW176852   5.373   6.877   9.581
58340SOL    HW276853   5.516   6.904   9.622
58341SOL     OW76854  12.111  14.836   9.571
58341SOL    HW176855  12.022  14.816   9.542
58341SOL    HW276856  12.132  14.767   9.634
58342SOL     OW76857   3.103   2.622  14.427
58342SOL    HW176858   3.140   2.649  14.343
58342SOL    HW276859   3.115   2.527  14.429
58343SOL     OW76860  12.405   4.030  11.466
58343SOL    HW176861  12.357   3.959  11.423
58343SOL    HW276862  12.491   3.992  11.484
58344SOL     OW76863  12.170   1.202   5.094
58344SOL    HW176864  12.219   1.192   5.013
58344SOL    HW276865  12.217   1.270   5.143
58345SOL     OW76866   9.314   7.874  11.934
58345SOL    HW176867   9.341   7.953  11.982
58345SOL    HW276868   9.269   7.907  11.857
58346SOL     OW76869  13.876   5.771  14.001
58346SOL    HW176870  13.846   5.862  14.007
58346SOL    HW276871  13.825   5.725  14.068
58347SOL     OW76872  11.703  12.041   8.370
58347SOL    HW176873  11.774  12.102   8.386
58347SOL    HW276874  11.741  11.973   8.315
58348SOL     OW76875  14.595  11.281   6.571
58348SOL    HW176876  14.617  11.277   6.478
58348SOL    HW276877  14.503  11.307   6.572
58349SOL     OW76878   3.170   2.737   6.761
58349SOL    HW176879   3.133   2.664   6.809
58349SOL    HW276880   3.259   2.748   6.796
58350SOL     OW76881  14.816   1.018  10.501
58350SOL    HW176882  14.761   0.975  10.436
58350SOL    HW276883  14.776   0.997  10.585
58351SOL     OW76884   7.400  12.244   6.437
58351SOL    HW176885   7.418  12.236   6.531
58351SOL    HW276886   7.478  12.208   6.395
58352SOL     OW76887   3.778   7.661  12.138
58352SOL    HW176888   3.784   7.726  12.067
58352SOL    HW276889   3.689   7.670  12.171
58353SOL     OW76890   8.022   3.595   7.357
58353SOL    HW176891   8.071   3.652   7.296
58353SOL    HW276892   8.023   3.509   7.315
58354SOL     OW76893   8.188   4.628   9.675
58354SOL    HW176894   8.186   4.546   9.625
58354SOL    HW276895   8.188   4.599   9.767
58355SOL     OW76896   1.178   1.749  10.126
58355SOL    HW176897   1.133   1.665  10.122
58355SOL    HW276898   1.241   1.747  10.054
58356SOL     OW76899  13.651   0.311   7.991
58356SOL    HW176900  13.608   0.361   8.061
58356SOL    HW276901  13.580   0.282   7.934
58357SOL     OW76902   3.695   0.903   4.066
58357SOL    HW176903   3.628   0.933   4.127
58357SOL    HW276904   3.651   0.836   4.013
58358SOL     OW76905   9.998   2.668   9.673
58358SOL    HW176906   9.955   2.588   9.704
58358SOL    HW276907   9.928   2.732   9.665
58359SOL     OW76908  10.140   7.688   7.514
58359SOL    HW176909  10.126   7.782   7.528
58359SOL    HW276910  10.231   7.682   7.485
58360SOL     OW76911   0.666   5.866   1.475
58360SOL    HW176912   0.669   5.816   1.557
58360SOL    HW276913   0.728   5.937   1.488
58361SOL     OW76914   1.870   8.588   0.974
58361SOL    HW176915   1.852   8.498   0.946
58361SOL    HW276916   1.789   8.618   1.015
58362SOL     OW76917   2.718   8.645   9.460
58362SOL    HW176918   2.752   8.719   9.409
58362SOL    HW276919   2.787   8.579   9.456
58363SOL     OW76920   3.757   7.448   8.526
58363SOL    HW176921   3.813   7.411   8.594
58363SOL    HW276922   3.720   7.527   8.566
58364SOL     OW76923   5.224   0.407   9.809
58364SOL    HW176924   5.225   0.362   9.724
58364SOL    HW276925   5.177   0.489   9.791
58365SOL     OW76926  14.818   3.178  11.032
58365SOL    HW176927  14.753   3.122  10.989
58365SOL    HW276928  14.800   3.266  10.997
58366SOL     OW76929  14.485  13.605   2.877
58366SOL    HW176930  14.520  13.525   2.918
58366SOL    HW276931  14.485  13.670   2.948
58367SOL     OW76932  11.431  12.744  11.483
58367SOL    HW176933  11.386  12.807  11.427
58367SOL    HW276934  11.360  12.696  11.527
58368SOL     OW76935  11.486  13.624  10.660
58368SOL    HW176936  11.517  13.601  10.572
58368SOL    HW276937  11.564  13.621  10.715
58369SOL     OW76938   0.071   8.324   3.600
58369SOL    HW176939   0.028   8.242   3.578
58369SOL    HW276940   0.096   8.362   3.516
58370SOL     OW76941   1.299  12.518   5.345
58370SOL    HW176942   1.329  12.551   5.261
58370SOL    HW276943   1.322  12.586   5.408
58371SOL     OW76944   5.786   2.997   0.052
58371SOL    HW176945   5.702   2.992   0.097
58371SOL    HW276946   5.850   2.971   0.117
58372SOL     OW76947   7.298   7.440  12.855
58372SOL    HW176948   7.292   7.392  12.937
58372SOL    HW276949   7.291   7.532  12.880
58373SOL     OW76950   5.878   9.156   9.603
58373SOL    HW176951   5.891   9.209   9.681
58373SOL    HW276952   5.966   9.141   9.569
58374SOL     OW76953  12.130  11.429   6.118
58374SOL    HW176954  12.082  11.381   6.050
58374SOL    HW276955  12.176  11.498   6.070
58375SOL     OW76956   9.403  12.806   5.154
58375SOL    HW176957   9.415  12.749   5.230
58375SOL    HW276958   9.424  12.894   5.186
58376SOL     OW76959   0.983   4.976  12.760
58376SOL    HW176960   0.904   4.966  12.814
58376SOL    HW276961   1.055   4.956  12.819
58377SOL     OW76962   5.902   9.178   7.463
58377SOL    HW176963   5.983   9.223   7.438
58377SOL    HW276964   5.843   9.191   7.390
58378SOL     OW76965   0.539   2.951   1.652
58378SOL    HW176966   0.501   3.018   1.596
58378SOL    HW276967   0.586   3.001   1.720
58379SOL     OW76968   8.116   3.730   4.033
58379SOL    HW176969   8.172   3.744   4.109
58379SOL    HW276970   8.028   3.750   4.064
58380SOL     OW76971   6.271   5.276   3.479
58380SOL    HW176972   6.331   5.309   3.413
58380SOL    HW276973   6.186   5.274   3.435
58381SOL     OW76974   6.262  14.101   1.846
58381SOL    HW176975   6.224  14.035   1.789
58381SOL    HW276976   6.208  14.098   1.925
58382SOL     OW76977   1.306   3.902   1.948
58382SOL    HW176978   1.370   3.953   1.997
58382SOL    HW276979   1.254   3.857   2.016
58383SOL     OW76980  10.637  12.987  12.751
58383SOL    HW176981  10.597  12.947  12.673
58383SOL    HW276982  10.568  12.982  12.818
58384SOL     OW76983  10.987   9.305   4.396
58384SOL    HW176984  10.936   9.247   4.339
58384SOL    HW276985  11.070   9.316   4.350
58385SOL     OW76986   0.238  12.776  14.596
58385SOL    HW176987   0.273  12.817  14.516
58385SOL    HW276988   0.183  12.843  14.635
58386SOL     OW76989   9.238   1.394   2.927
58386SOL    HW176990   9.210   1.451   2.855
58386SOL    HW276991   9.185   1.422   3.002
58387SOL     OW76992  13.220   2.946  10.312
58387SOL    HW176993  13.229   2.898  10.229
58387SOL    HW276994  13.219   3.038  10.286
58388SOL     OW76995   3.428   3.659   6.343
58388SOL    HW176996   3.442   3.718   6.269
58388SOL    HW276997   3.384   3.712   6.409
58389SOL     OW76998  12.234   8.083   4.795
58389SOL    HW176999  12.257   8.154   4.853
58389SOL    HW277000  12.270   8.108   4.710
58390SOL     OW77001   0.700   5.469   0.750
58390SOL    HW177002   0.650   5.436   0.825
58390SOL    HW277003   0.729   5.556   0.777
58391SOL     OW77004  14.140  10.061  12.405
58391SOL    HW177005  14.126  10.153  12.425
58391SOL    HW277006  14.116  10.015  12.486
58392SOL     OW77007   6.648  10.098  14.087
58392SOL    HW177008   6.699  10.068  14.162
58392SOL    HW277009   6.700  10.170  14.050
58393SOL     OW77010   7.103   8.722  12.316
58393SOL    HW177011   7.143   8.664  12.380
58393SOL    HW277012   7.175   8.776  12.284
58394SOL     OW77013   3.637   4.982  12.928
58394SOL    HW177014   3.662   4.893  12.951
58394SOL    HW277015   3.700   5.038  12.974
58395SOL     OW77016   2.235   8.524  12.583
58395SOL    HW177017   2.226   8.602  12.637
58395SOL    HW277018   2.247   8.556  12.494
58396SOL     OW77019   2.447   3.659  10.422
58396SOL    HW177020   2.398   3.732  10.385
58396SOL    HW277021   2.448   3.676  10.516
58397SOL     OW77022   1.795  11.749   8.211
58397SOL    HW177023   1.726  11.812   8.190
58397SOL    HW277024   1.790  11.684   8.140
58398SOL     OW77025   2.299   9.692   4.147
58398SOL    HW177026   2.392   9.713   4.142
58398SOL    HW277027   2.293   9.601   4.116
58399SOL     OW77028   1.293   9.587  11.225
58399SOL    HW177029   1.292   9.663  11.167
58399SOL    HW277030   1.214   9.596  11.278
58400SOL     OW77031   3.843   3.856   2.052
58400SOL    HW177032   3.828   3.800   1.976
58400SOL    HW277033   3.757   3.892   2.073
58401SOL     OW77034  11.153   2.069  12.362
58401SOL    HW177035  11.094   2.138  12.394
58401SOL    HW277036  11.111   2.037  12.283
58402SOL     OW77037   6.310  11.248  11.554
58402SOL    HW177038   6.258  11.297  11.618
58402SOL    HW277039   6.281  11.157  11.564
58403SOL     OW77040  10.234  12.676  14.617
58403SOL    HW177041  10.256  12.768  14.607
58403SOL    HW277042  10.188  12.653  14.536
58404SOL     OW77043   8.683  10.097   1.124
58404SOL    HW177044   8.743  10.170   1.139
58404SOL    HW277045   8.697  10.038   1.197
58405SOL     OW77046   3.531   8.925   9.954
58405SOL    HW177047   3.621   8.938   9.922
58405SOL    HW277048   3.538   8.857  10.021
58406SOL     OW77049   3.557   2.147  10.293
58406SOL    HW177050   3.607   2.070  10.321
58406SOL    HW277051   3.582   2.161  10.202
58407SOL     OW77052   6.646  11.970  10.226
58407SOL    HW177053   6.660  11.973  10.321
58407SOL    HW277054   6.552  11.952  10.216
58408SOL     OW77055  10.248   2.961   5.983
58408SOL    HW177056  10.259   2.878   6.028
58408SOL    HW277057  10.180   3.007   6.033
58409SOL     OW77058   9.511   5.453  11.114
58409SOL    HW177059   9.524   5.497  11.198
58409SOL    HW277060   9.554   5.510  11.050
58410SOL     OW77061  14.451   3.340  13.867
58410SOL    HW177062  14.414   3.262  13.827
58410SOL    HW277063  14.433   3.410  13.805
58411SOL     OW77064   1.893   9.946  14.173
58411SOL    HW177065   1.848   9.864  14.153
58411SOL    HW277066   1.930   9.932  14.260
58412SOL     OW77067  11.873   7.109   3.461
58412SOL    HW177068  11.961   7.137   3.434
58412SOL    HW277069  11.886   7.021   3.497
58413SOL     OW77070  11.268  13.743   5.862
58413SOL    HW177071  11.223  13.676   5.914
58413SOL    HW277072  11.210  13.760   5.789
58414SOL     OW77073   9.401   0.063   7.223
58414SOL    HW177074   9.408  14.854   7.273
58414SOL    HW277075   9.327   0.109   7.263
58415SOL     OW77076   4.256   3.863   3.986
58415SOL    HW177077   4.209   3.860   3.902
58415SOL    HW277078   4.309   3.942   3.981
58416SOL     OW77079   7.142  14.358   1.650
58416SOL    HW177080   7.174  14.320   1.568
58416SOL    HW277081   7.151  14.287   1.714
58417SOL     OW77082  14.544   4.711  12.988
58417SOL    HW177083  14.476   4.775  12.972
58417SOL    HW277084  14.555   4.711  13.083
58418SOL     OW77085  11.319  11.200   3.798
58418SOL    HW177086  11.270  11.129   3.758
58418SOL    HW277087  11.328  11.174   3.890
58419SOL     OW77088   3.828   8.872   5.814
58419SOL    HW177089   3.750   8.889   5.866
58419SOL    HW277090   3.820   8.930   5.739
58420SOL     OW77091   2.921   7.861  11.457
58420SOL    HW177092   2.951   7.938  11.504
58420SOL    HW277093   2.961   7.787  11.502
58421SOL     OW77094   1.456   0.158  14.474
58421SOL    HW177095   1.469   0.244  14.434
58421SOL    HW277096   1.497   0.166  14.560
58422SOL     OW77097  14.229   1.155   0.210
58422SOL    HW177098  14.289   1.165   0.284
58422SOL    HW277099  14.142   1.154   0.250
58423SOL     OW77100  10.662   4.028   4.494
58423SOL    HW177101  10.594   4.095   4.480
58423SOL    HW277102  10.622   3.946   4.467
58424SOL     OW77103   1.236  14.387  14.484
58424SOL    HW177104   1.217  14.468  14.531
58424SOL    HW277105   1.251  14.321  14.552
58425SOL     OW77106   3.484   2.926   1.975
58425SOL    HW177107   3.458   2.993   1.912
58425SOL    HW277108   3.559   2.964   2.021
58426SOL     OW77109   1.880   2.357  10.825
58426SOL    HW177110   1.837   2.304  10.758
58426SOL    HW277111   1.900   2.295  10.895
58427SOL     OW77112  10.827  11.609   3.393
58427SOL    HW177113  10.800  11.697   3.368
58427SOL    HW277114  10.758  11.552   3.358
58428SOL     OW77115   6.243  14.679  12.035
58428SOL    HW177116   6.234  14.745  12.104
58428SOL    HW277117   6.315  14.710  11.980
58429SOL     OW77118   6.802   5.642  10.824
58429SOL    HW177119   6.810   5.703  10.751
58429SOL    HW277120   6.724   5.590  10.804
58430SOL     OW77121   3.980  11.764   1.049
58430SOL    HW177122   3.942  11.852   1.047
58430SOL    HW277123   3.943  11.724   1.128
58431SOL     OW77124  11.488  12.067   6.229
58431SOL    HW177125  11.533  12.051   6.312
58431SOL    HW277126  11.500  12.160   6.212
58432SOL     OW77127   5.141   6.446   4.532
58432SOL    HW177128   5.153   6.468   4.440
58432SOL    HW277129   5.189   6.364   4.544
58433SOL     OW77130   1.553   8.358  14.701
58433SOL    HW177131   1.503   8.303  14.762
58433SOL    HW277132   1.553   8.308  14.619
58434SOL     OW77133  11.658   7.998   2.493
58434SOL    HW177134  11.615   8.056   2.556
58434SOL    HW277135  11.736   8.045   2.465
58435SOL     OW77136   4.929   0.346   7.554
58435SOL    HW177137   4.945   0.261   7.513
58435SOL    HW277138   4.976   0.342   7.637
58436SOL     OW77139   9.378  10.198   9.443
58436SOL    HW177140   9.369  10.171   9.352
58436SOL    HW277141   9.380  10.294   9.441
58437SOL     OW77142  11.015   5.608  10.093
58437SOL    HW177143  11.036   5.701  10.104
58437SOL    HW277144  11.041   5.587  10.003
58438SOL     OW77145   7.792  11.838   2.260
58438SOL    HW177146   7.728  11.770   2.241
58438SOL    HW277147   7.822  11.868   2.174
58439SOL     OW77148  13.987  10.286  13.277
58439SOL    HW177149  14.070  10.323  13.246
58439SOL    HW277150  14.013  10.211  13.330
58440SOL     OW77151   4.067  12.390   8.799
58440SOL    HW177152   4.015  12.346   8.732
58440SOL    HW277153   4.084  12.477   8.762
58441SOL     OW77154   7.120  14.764   0.314
58441SOL    HW177155   7.091  14.824   0.383
58441SOL    HW277156   7.072  14.683   0.330
58442SOL     OW77157   3.862   9.349   2.828
58442SOL    HW177158   3.829   9.388   2.747
58442SOL    HW277159   3.785   9.312   2.871
58443SOL     OW77160   0.674  14.569  12.735
58443SOL    HW177161   0.581  14.549  12.722
58443SOL    HW277162   0.716  14.545  12.653
58444SOL     OW77163   2.929   7.010   1.600
58444SOL    HW177164   2.900   6.919   1.607
58444SOL    HW277165   2.848   7.061   1.609
58445SOL     OW77166   1.357   4.235   5.266
58445SOL    HW177167   1.409   4.166   5.306
58445SOL    HW277168   1.390   4.316   5.304
58446SOL     OW77169   8.571   4.531   6.849
58446SOL    HW177170   8.535   4.445   6.872
58446SOL    HW277171   8.537   4.550   6.762
58447SOL     OW77172   7.904   1.163   8.993
58447SOL    HW177173   7.849   1.144   8.917
58447SOL    HW277174   7.982   1.109   8.980
58448SOL     OW77175   7.360  10.664  13.093
58448SOL    HW177176   7.366  10.642  13.000
58448SOL    HW277177   7.333  10.756  13.095
58449SOL     OW77178   6.552  13.993  12.928
58449SOL    HW177179   6.536  14.087  12.934
58449SOL    HW277180   6.642  13.985  12.898
58450SOL     OW77181   7.688   5.526  10.489
58450SOL    HW177182   7.598   5.535  10.460
58450SOL    HW277183   7.722   5.615  10.490
58451SOL     OW77184   4.604   0.564   2.899
58451SOL    HW177185   4.559   0.631   2.847
58451SOL    HW277186   4.535   0.525   2.953
58452SOL     OW77187   2.435   1.062  12.235
58452SOL    HW177188   2.517   1.058  12.186
58452SOL    HW277189   2.417   0.970  12.257
58453SOL     OW77190   4.940   1.238   7.359
58453SOL    HW177191   4.948   1.163   7.301
58453SOL    HW277192   4.846   1.245   7.377
58454SOL     OW77193   5.533   0.302   3.444
58454SOL    HW177194   5.540   0.214   3.480
58454SOL    HW277195   5.451   0.302   3.395
58455SOL     OW77196   6.519   2.872   0.491
58455SOL    HW177197   6.587   2.912   0.546
58455SOL    HW277198   6.556   2.787   0.467
58456SOL     OW77199  10.857   0.012   5.092
58456SOL    HW177200  10.885  14.794   5.079
58456SOL    HW277201  10.809   0.034   5.012
58457SOL     OW77202   4.648   9.110  14.063
58457SOL    HW177203   4.737   9.106  14.028
58457SOL    HW277204   4.650   9.182  14.126
58458SOL     OW77205  14.026  12.268   5.074
58458SOL    HW177206  13.960  12.308   5.131
58458SOL    HW277207  14.049  12.186   5.119
58459SOL     OW77208  14.468  12.760   2.889
58459SOL    HW177209  14.470  12.727   2.979
58459SOL    HW277210  14.418  12.694   2.840
58460SOL     OW77211  10.609   7.880   6.929
58460SOL    HW177212  10.690   7.911   6.968
58460SOL    HW277213  10.593   7.941   6.857
58461SOL     OW77214  10.677   4.536   5.175
58461SOL    HW177215  10.745   4.476   5.147
58461SOL    HW277216  10.629   4.559   5.095
58462SOL     OW77217   8.121   2.903   8.968
58462SOL    HW177218   8.166   2.982   8.940
58462SOL    HW277219   8.157   2.883   9.054
58463SOL     OW77220  10.281   9.730   4.849
58463SOL    HW177221  10.331   9.714   4.769
58463SOL    HW277222  10.306   9.819   4.875
58464SOL     OW77223   1.719   0.910   6.515
58464SOL    HW177224   1.740   0.836   6.459
58464SOL    HW277225   1.764   0.985   6.476
58465SOL     OW77226   3.407   6.181   3.881
58465SOL    HW177227   3.409   6.276   3.887
58465SOL    HW277228   3.466   6.152   3.951
58466SOL     OW77229   5.800  10.946   0.009
58466SOL    HW177230   5.824  10.854  14.872
58466SOL    HW277231   5.732  10.947   0.076
58467SOL     OW77232   0.603  11.203   0.929
58467SOL    HW177233   0.553  11.266   0.981
58467SOL    HW277234   0.680  11.184   0.982
58468SOL     OW77235  14.165   9.830   6.120
58468SOL    HW177236  14.129   9.743   6.099
58468SOL    HW277237  14.222   9.814   6.195
58469SOL     OW77238   1.452   3.590  14.284
58469SOL    HW177239   1.421   3.622  14.369
58469SOL    HW277240   1.539   3.628  14.275
58470SOL     OW77241  13.318   4.768   3.725
58470SOL    HW177242  13.406   4.741   3.747
58470SOL    HW277243  13.297   4.719   3.645
58471SOL     OW77244   2.694   9.349   8.446
58471SOL    HW177245   2.643   9.383   8.519
58471SOL    HW277246   2.777   9.397   8.449
58472SOL     OW77247  12.415  13.058   3.901
58472SOL    HW177248  12.492  13.000   3.895
58472SOL    HW277249  12.340  12.999   3.899
58473SOL     OW77250   1.079   2.646   2.570
58473SOL    HW177251   0.992   2.607   2.568
58473SOL    HW277252   1.089   2.677   2.661
58474SOL     OW77253   4.351   2.557  12.942
58474SOL    HW177254   4.389   2.578  12.856
58474SOL    HW277255   4.376   2.630  12.998
58475SOL     OW77256   5.751   6.461   0.222
58475SOL    HW177257   5.751   6.534   0.160
58475SOL    HW277258   5.810   6.397   0.183
58476SOL     OW77259  12.529   0.209  12.180
58476SOL    HW177260  12.525   0.167  12.265
58476SOL    HW277261  12.618   0.244  12.174
58477SOL     OW77262  10.354   7.684   2.810
58477SOL    HW177263  10.286   7.647   2.755
58477SOL    HW277264  10.351   7.632   2.891
58478SOL     OW77265  13.358   2.334   6.899
58478SOL    HW177266  13.431   2.288   6.858
58478SOL    HW277267  13.297   2.264   6.924
58479SOL     OW77268   0.052   1.271   7.021
58479SOL    HW177269  14.837   1.239   7.043
58479SOL    HW277270   0.050   1.364   7.046
58480SOL     OW77271  13.278   4.052  12.357
58480SOL    HW177272  13.277   4.132  12.304
58480SOL    HW277273  13.209   4.066  12.422
58481SOL     OW77274   4.598   5.403   5.855
58481SOL    HW177275   4.669   5.425   5.795
58481SOL    HW277276   4.640   5.355   5.926
58482SOL     OW77277  13.820  11.484   4.038
58482SOL    HW177278  13.761  11.546   4.081
58482SOL    HW277279  13.892  11.472   4.100
58483SOL     OW77280  14.309   8.562  12.812
58483SOL    HW177281  14.314   8.583  12.719
58483SOL    HW277282  14.252   8.485  12.817
58484SOL     OW77283  11.357   9.626   5.026
58484SOL    HW177284  11.345   9.607   4.933
58484SOL    HW277285  11.284   9.685   5.048
58485SOL     OW77286   6.428   2.484   7.694
58485SOL    HW177287   6.406   2.567   7.652
58485SOL    HW277288   6.490   2.442   7.634
58486SOL     OW77289   9.160   6.703  12.966
58486SOL    HW177290   9.140   6.609  12.973
58486SOL    HW277291   9.075   6.745  12.960
58487SOL     OW77292  13.871  13.113  11.458
58487SOL    HW177293  13.802  13.057  11.420
58487SOL    HW277294  13.825  13.169  11.520
58488SOL     OW77295  11.318   6.618  12.284
58488SOL    HW177296  11.371   6.576  12.216
58488SOL    HW277297  11.248   6.556  12.302
58489SOL     OW77298  10.976  10.674   2.024
58489SOL    HW177299  10.917  10.646   1.954
58489SOL    HW277300  10.970  10.604   2.089
58490SOL     OW77301  11.405  11.447  13.145
58490SOL    HW177302  11.432  11.537  13.126
58490SOL    HW277303  11.487  11.401  13.163
58491SOL     OW77304  12.778  11.452  11.733
58491SOL    HW177305  12.788  11.409  11.818
58491SOL    HW277306  12.826  11.534  11.742
58492SOL     OW77307   8.028   8.205  12.784
58492SOL    HW177308   8.037   8.111  12.798
58492SOL    HW277309   7.978   8.237  12.859
58493SOL     OW77310  11.521   4.884  10.761
58493SOL    HW177311  11.555   4.937  10.833
58493SOL    HW277312  11.556   4.797  10.776
58494SOL     OW77313  11.630   7.779   7.799
58494SOL    HW177314  11.719   7.753   7.822
58494SOL    HW277315  11.574   7.724   7.854
58495SOL     OW77316   8.436  11.825   8.924
58495SOL    HW177317   8.403  11.792   8.841
58495SOL    HW277318   8.416  11.919   8.922
58496SOL     OW77319   1.564   4.620   9.377
58496SOL    HW177320   1.647   4.574   9.391
58496SOL    HW277321   1.590   4.711   9.363
58497SOL     OW77322   7.481   1.934   6.231
58497SOL    HW177323   7.541   1.998   6.271
58497SOL    HW277324   7.395   1.956   6.269
58498SOL     OW77325  10.396  13.557   4.012
58498SOL    HW177326  10.370  13.473   3.974
58498SOL    HW277327  10.464  13.535   4.075
58499SOL     OW77328  13.524   0.354   2.004
58499SOL    HW177329  13.464   0.367   1.930
58499SOL    HW277330  13.568   0.271   1.986
58500SOL     OW77331   4.213   1.863   0.012
58500SOL    HW177332   4.180   1.826  14.802
58500SOL    HW277333   4.240   1.952  14.861
58501SOL     OW77334   8.437   3.742   3.488
58501SOL    HW177335   8.532   3.740   3.481
58501SOL    HW277336   8.407   3.765   3.400
58502SOL     OW77337   8.372   9.212   9.212
58502SOL    HW177338   8.435   9.165   9.158
58502SOL    HW277339   8.311   9.144   9.242
58503SOL     OW77340   4.593  11.155   9.081
58503SOL    HW177341   4.531  11.170   9.153
58503SOL    HW277342   4.541  11.114   9.012
58504SOL     OW77343   0.501  13.217  10.563
58504SOL    HW177344   0.424  13.203  10.508
58504SOL    HW277345   0.477  13.178  10.647
58505SOL     OW77346   7.320   6.817   9.842
58505SOL    HW177347   7.415   6.828   9.849
58505SOL    HW277348   7.307   6.723   9.848
58506SOL     OW77349  12.264   9.165   6.726
58506SOL    HW177350  12.214   9.204   6.655
58506SOL    HW277351  12.355   9.170   6.698
58507SOL     OW77352   5.007   7.495   6.374
58507SOL    HW177353   5.011   7.491   6.469
58507SOL    HW277354   4.979   7.585   6.355
58508SOL     OW77355   1.331   6.712   6.384
58508SOL    HW177356   1.278   6.679   6.457
58508SOL    HW277357   1.420   6.717   6.419
58509SOL     OW77358  10.909   6.564   6.878
58509SOL    HW177359  10.852   6.593   6.949
58509SOL    HW277360  10.849   6.534   6.810
58510SOL     OW77361   1.649  14.743   6.580
58510SOL    HW177362   1.597  14.794   6.642
58510SOL    HW277363   1.683  14.670   6.632
58511SOL     OW77364   1.341   3.675  11.336
58511SOL    HW177365   1.303   3.657  11.250
58511SOL    HW277366   1.409   3.740  11.319
58512SOL     OW77367   1.279   9.559   5.172
58512SOL    HW177368   1.280   9.492   5.240
58512SOL    HW277369   1.187   9.583   5.162
58513SOL     OW77370   2.980   1.941  13.182
58513SOL    HW177371   3.063   1.961  13.138
58513SOL    HW277372   3.003   1.939  13.275
58514SOL     OW77373   6.562   2.719   9.455
58514SOL    HW177374   6.471   2.692   9.437
58514SOL    HW277375   6.556   2.813   9.469
58515SOL     OW77376   1.528   3.265   7.083
58515SOL    HW177377   1.468   3.292   7.153
58515SOL    HW277378   1.471   3.249   7.007
58516SOL     OW77379   1.942   5.660   7.145
58516SOL    HW177380   1.870   5.606   7.113
58516SOL    HW277381   1.949   5.731   7.081
58517SOL     OW77382   2.905   2.405  10.207
58517SOL    HW177383   2.832   2.418  10.267
58517SOL    HW277384   2.896   2.314  10.177
58518SOL     OW77385  14.628  14.126   4.550
58518SOL    HW177386  14.680  14.049   4.572
58518SOL    HW277387  14.626  14.178   4.630
58519SOL     OW77388   5.028  11.532   2.161
58519SOL    HW177389   5.025  11.628   2.162
58519SOL    HW277390   4.940  11.505   2.186
58520SOL     OW77391   1.782   5.449   7.061
58520SOL    HW177392   1.730   5.423   7.137
58520SOL    HW277393   1.741   5.404   6.987
58521SOL     OW77394   8.159   0.779   3.958
58521SOL    HW177395   8.185   0.871   3.958
58521SOL    HW277396   8.226   0.735   3.905
58522SOL     OW77397   5.681   5.559  13.900
58522SOL    HW177398   5.752   5.566  13.836
58522SOL    HW277399   5.664   5.465  13.906
58523SOL     OW77400   4.486   4.015  10.236
58523SOL    HW177401   4.570   4.035  10.195
58523SOL    HW277402   4.459   3.933  10.195
58524SOL     OW77403  11.901  10.466  14.811
58524SOL    HW177404  11.925  10.558  14.800
58524SOL    HW277405  11.928  10.424  14.729
58525SOL     OW77406  10.295   7.157  10.020
58525SOL    HW177407  10.338   7.122   9.942
58525SOL    HW277408  10.202   7.159   9.997
58526SOL     OW77409   6.517   1.556   3.205
58526SOL    HW177410   6.439   1.509   3.234
58526SOL    HW277411   6.523   1.537   3.111
58527SOL     OW77412   3.954   4.774  14.052
58527SOL    HW177413   3.891   4.815  13.993
58527SOL    HW277414   4.036   4.821  14.038
58528SOL     OW77415   4.518   9.783  13.360
58528SOL    HW177416   4.519   9.740  13.274
58528SOL    HW277417   4.425   9.785  13.384
58529SOL     OW77418   5.049  12.569  14.687
58529SOL    HW177419   5.123  12.578  14.627
58529SOL    HW277420   5.074  12.498  14.746
58530SOL     OW77421  11.815   5.687  10.967
58530SOL    HW177422  11.825   5.616  10.904
58530SOL    HW277423  11.720   5.701  10.973
58531SOL     OW77424  14.327   4.319  10.754
58531SOL    HW177425  14.411   4.279  10.775
58531SOL    HW277426  14.264   4.271  10.807
58532SOL     OW77427   1.106  14.348  11.703
58532SOL    HW177428   1.059  14.409  11.646
58532SOL    HW277429   1.165  14.403  11.754
58533SOL     OW77430   2.780   9.727  14.160
58533SOL    HW177431   2.687   9.735  14.180
58533SOL    HW277432   2.784   9.723  14.064
58534SOL     OW77433  12.874  11.514  12.239
58534SOL    HW177434  12.938  11.447  12.217
58534SOL    HW277435  12.802  11.499  12.177
58535SOL     OW77436  10.233  13.808   1.624
58535SOL    HW177437  10.247  13.888   1.674
58535SOL    HW277438  10.319  13.784   1.592
58536SOL     OW77439   9.237   1.904   6.818
58536SOL    HW177440   9.223   1.995   6.791
58536SOL    HW277441   9.153   1.861   6.801
58537SOL     OW77442  10.097   7.367   7.963
58537SOL    HW177443  10.115   7.421   7.887
58537SOL    HW277444  10.154   7.402   8.032
58538SOL     OW77445  13.703   7.053  14.565
58538SOL    HW177446  13.760   7.009  14.627
58538SOL    HW277447  13.710   7.000  14.485
58539SOL     OW77448   7.692   7.173   2.876
58539SOL    HW177449   7.613   7.119   2.868
58539SOL    HW277450   7.701   7.215   2.791
58540SOL     OW77451   9.128   6.248   8.550
58540SOL    HW177452   9.083   6.329   8.525
58540SOL    HW277453   9.171   6.218   8.470
58541SOL     OW77454  14.852   7.326  12.181
58541SOL    HW177455  14.828   7.236  12.162
58541SOL    HW277456  14.834   7.336  12.275
58542SOL     OW77457   7.463   5.244   6.442
58542SOL    HW177458   7.510   5.291   6.374
58542SOL    HW277459   7.438   5.311   6.505
58543SOL     OW77460   8.098   0.659   2.304
58543SOL    HW177461   8.115   0.731   2.364
58543SOL    HW277462   8.158   0.589   2.332
58544SOL     OW77463   7.885  10.019   0.273
58544SOL    HW177464   7.896  10.006   0.367
58544SOL    HW277465   7.815  10.083   0.265
58545SOL     OW77466  12.046   7.854   4.724
58545SOL    HW177467  11.963   7.835   4.680
58545SOL    HW277468  12.042   7.948   4.742
58546SOL     OW77469   8.569  11.438   8.050
58546SOL    HW177470   8.630  11.495   8.003
58546SOL    HW277471   8.567  11.473   8.139
58547SOL     OW77472   0.931   5.923   3.716
58547SOL    HW177473   1.006   5.904   3.773
58547SOL    HW277474   0.926   6.019   3.715
58548SOL     OW77475   5.166   9.036   2.548
58548SOL    HW177476   5.257   9.043   2.578
58548SOL    HW277477   5.130   8.963   2.598
58549SOL     OW77478  14.629   8.293   1.059
58549SOL    HW177479  14.554   8.234   1.051
58549SOL    HW277480  14.700   8.248   1.013
58550SOL     OW77481   8.156   3.235   4.843
58550SOL    HW177482   8.239   3.227   4.797
58550SOL    HW277483   8.097   3.176   4.797
58551SOL     OW77484   6.007  12.159   3.208
58551SOL    HW177485   6.047  12.247   3.204
58551SOL    HW277486   6.036  12.117   3.127
58552SOL     OW77487  13.190   3.900   7.936
58552SOL    HW177488  13.148   3.942   7.861
58552SOL    HW277489  13.188   3.806   7.916
58553SOL     OW77490   9.823   0.832   6.487
58553SOL    HW177491   9.830   0.923   6.516
58553SOL    HW277492   9.851   0.835   6.395
58554SOL     OW77493  14.259  13.951  11.727
58554SOL    HW177494  14.185  13.979  11.782
58554SOL    HW277495  14.242  13.992  11.642
58555SOL     OW77496   6.854  12.887  13.149
58555SOL    HW177497   6.940  12.928  13.156
58555SOL    HW277498   6.853  12.848  13.061
58556SOL     OW77499  12.077  11.281   0.072
58556SOL    HW177500  12.079  11.316  14.855
58556SOL    HW277501  12.138  11.337   0.121
58557SOL     OW77502   5.226   3.818   6.370
58557SOL    HW177503   5.213   3.912   6.360
58557SOL    HW277504   5.167   3.779   6.306
58558SOL     OW77505   9.771   6.518   1.760
58558SOL    HW177506   9.850   6.573   1.755
58558SOL    HW277507   9.800   6.432   1.730
58559SOL     OW77508  12.479  11.239   8.387
58559SOL    HW177509  12.394  11.279   8.406
58559SOL    HW277510  12.485  11.167   8.449
58560SOL     OW77511  13.750  14.755   3.798
58560SOL    HW177512  13.691  14.808   3.744
58560SOL    HW277513  13.819  14.815   3.825
58561SOL     OW77514  13.763   8.025   1.336
58561SOL    HW177515  13.728   7.980   1.413
58561SOL    HW277516  13.828   7.964   1.300
58562SOL     OW77517  12.971  12.459   1.787
58562SOL    HW177518  13.034  12.393   1.758
58562SOL    HW277519  12.893  12.409   1.809
58563SOL     OW77520   5.786  10.634   3.840
58563SOL    HW177521   5.879  10.616   3.846
58563SOL    HW277522   5.769  10.646   3.747
58564SOL     OW77523   9.449   1.244   5.109
58564SOL    HW177524   9.370   1.217   5.062
58564SOL    HW277525   9.471   1.169   5.164
58565SOL     OW77526   0.557   0.550  12.570
58565SOL    HW177527   0.609   0.552  12.490
58565SOL    HW277528   0.466   0.546  12.540
58566SOL     OW77529   5.007  13.703  11.326
58566SOL    HW177530   5.031  13.773  11.265
58566SOL    HW277531   5.072  13.709  11.396
58567SOL     OW77532  12.273   2.241   3.596
58567SOL    HW177533  12.362   2.229   3.561
58567SOL    HW277534  12.231   2.156   3.585
58568SOL     OW77535   3.803   4.379   5.692
58568SOL    HW177536   3.874   4.407   5.634
58568SOL    HW277537   3.765   4.460   5.725
58569SOL     OW77538  14.450   8.690   8.920
58569SOL    HW177539  14.364   8.721   8.951
58569SOL    HW277540  14.442   8.691   8.825
58570SOL     OW77541   9.691  12.599   0.692
58570SOL    HW177542   9.606  12.563   0.665
58570SOL    HW277543   9.694  12.585   0.787
58571SOL     OW77544   1.990   3.155  13.679
58571SOL    HW177545   1.998   3.072  13.727
58571SOL    HW277546   2.000   3.222  13.746
58572SOL     OW77547  11.492  14.382  10.641
58572SOL    HW177548  11.409  14.347  10.673
58572SOL    HW277549  11.526  14.313  10.583
58573SOL     OW77550  12.298  13.732   8.966
58573SOL    HW177551  12.317  13.638   8.959
58573SOL    HW277552  12.352  13.763   9.038
58574SOL     OW77553   1.712   8.228  11.066
58574SOL    HW177554   1.675   8.159  11.010
58574SOL    HW277555   1.644   8.243  11.132
58575SOL     OW77556   4.014   9.090  11.881
58575SOL    HW177557   4.064   9.053  11.953
58575SOL    HW277558   4.076   9.094  11.808
58576SOL     OW77559   5.898   9.464   2.941
58576SOL    HW177560   5.931   9.479   2.852
58576SOL    HW277561   5.913   9.370   2.956
58577SOL     OW77562   7.454   3.251   5.080
58577SOL    HW177563   7.384   3.225   5.020
58577SOL    HW277564   7.528   3.271   5.023
58578SOL     OW77565  12.576   1.589   6.549
58578SOL    HW177566  12.526   1.665   6.580
58578SOL    HW277567  12.518   1.514   6.564
58579SOL     OW77568   9.341   6.287   2.005
58579SOL    HW177569   9.434   6.306   2.015
58579SOL    HW277570   9.298   6.340   2.072
58580SOL     OW77571   6.272   3.649   9.960
58580SOL    HW177572   6.193   3.655   9.907
58580SOL    HW277573   6.270   3.726  10.016
58581SOL     OW77574  10.305   6.570   1.066
58581SOL    HW177575  10.297   6.481   1.101
58581SOL    HW277576  10.259   6.625   1.129
58582SOL     OW77577   6.463  10.542   0.921
58582SOL    HW177578   6.473  10.575   1.010
58582SOL    HW277579   6.543  10.569   0.876
58583SOL     OW77580   9.208   8.871   1.339
58583SOL    HW177581   9.149   8.802   1.369
58583SOL    HW277582   9.235   8.843   1.251
58584SOL     OW77583  10.996   0.910   3.928
58584SOL    HW177584  11.077   0.862   3.919
58584SOL    HW277585  11.010   0.991   3.878
58585SOL     OW77586  10.077   0.281   4.056
58585SOL    HW177587  10.159   0.271   4.007
58585SOL    HW277588  10.105   0.310   4.143
58586SOL     OW77589   8.827   2.743   1.555
58586SOL    HW177590   8.890   2.672   1.566
58586SOL    HW277591   8.852   2.785   1.473
58587SOL     OW77592  14.323   9.938   7.593
58587SOL    HW177593  14.356   9.851   7.570
58587SOL    HW277594  14.261   9.923   7.664
58588SOL     OW77595   3.744   3.842   7.208
58588SOL    HW177596   3.694   3.907   7.159
58588SOL    HW277597   3.718   3.758   7.169
58589SOL     OW77598   0.733   8.430  12.672
58589SOL    HW177599   0.700   8.347  12.637
58589SOL    HW277600   0.802   8.404  12.733
58590SOL     OW77601   8.267  13.333   4.372
58590SOL    HW177602   8.283  13.423   4.345
58590SOL    HW277603   8.355  13.295   4.381
58591SOL     OW77604   3.420   0.917   9.333
58591SOL    HW177605   3.432   0.994   9.277
58591SOL    HW277606   3.505   0.874   9.333
58592SOL     OW77607   9.089  12.160  12.541
58592SOL    HW177608   9.018  12.199  12.489
58592SOL    HW277609   9.159  12.225  12.537
58593SOL     OW77610  12.758   7.839   2.662
58593SOL    HW177611  12.713   7.921   2.642
58593SOL    HW277612  12.692   7.786   2.708
58594SOL     OW77613   7.759   3.416  13.920
58594SOL    HW177614   7.759   3.418  14.015
58594SOL    HW277615   7.690   3.478  13.895
58595SOL     OW77616   2.324   1.508   8.219
58595SOL    HW177617   2.402   1.489   8.272
58595SOL    HW277618   2.317   1.604   8.221
58596SOL     OW77619   5.622   1.824  11.592
58596SOL    HW177620   5.667   1.905  11.615
58596SOL    HW277621   5.655   1.801  11.506
58597SOL     OW77622  13.780  10.369  14.600
58597SOL    HW177623  13.796  10.460  14.574
58597SOL    HW277624  13.816  10.317  14.527
58598SOL     OW77625  13.348   1.530  13.376
58598SOL    HW177626  13.328   1.623  13.367
58598SOL    HW277627  13.288   1.487  13.315
58599SOL     OW77628   4.354  12.298   2.503
58599SOL    HW177629   4.339  12.374   2.560
58599SOL    HW277630   4.295  12.231   2.537
58600SOL     OW77631  11.092   9.634   1.042
58600SOL    HW177632  11.146   9.556   1.044
58600SOL    HW277633  11.019   9.611   0.984
58601SOL     OW77634   1.657  11.601  12.372
58601SOL    HW177635   1.671  11.522  12.320
58601SOL    HW277636   1.707  11.587  12.452
58602SOL     OW77637   3.082   3.128  12.440
58602SOL    HW177638   3.037   3.212  12.428
58602SOL    HW277639   3.061   3.079  12.360
58603SOL     OW77640   4.935   7.066   6.401
58603SOL    HW177641   4.916   6.976   6.426
58603SOL    HW277642   5.025   7.080   6.428
58604SOL     OW77643   7.997   7.649   2.178
58604SOL    HW177644   7.984   7.680   2.088
58604SOL    HW277645   7.943   7.707   2.231
58605SOL     OW77646   8.168  11.436   9.193
58605SOL    HW177647   8.142  11.498   9.125
58605SOL    HW277648   8.123  11.354   9.170
58606SOL     OW77649  13.184   4.990   7.921
58606SOL    HW177650  13.190   5.025   7.832
58606SOL    HW277651  13.099   4.946   7.924
58607SOL     OW77652  11.382   9.309   5.742
58607SOL    HW177653  11.356   9.228   5.787
58607SOL    HW277654  11.299   9.347   5.713
58608SOL     OW77655   5.209   5.125  14.277
58608SOL    HW177656   5.252   5.202  14.315
58608SOL    HW277657   5.126   5.158  14.244
58609SOL     OW77658   3.893   7.860   9.999
58609SOL    HW177659   3.959   7.791  10.014
58609SOL    HW277660   3.818   7.813   9.963
58610SOL     OW77661  13.353   8.011   2.612
58610SOL    HW177662  13.335   8.103   2.630
58610SOL    HW277663  13.368   8.007   2.518
58611SOL     OW77664   9.125   6.713   1.738
58611SOL    HW177665   9.145   6.774   1.809
58611SOL    HW277666   9.064   6.760   1.681
58612SOL     OW77667   0.084   0.808  13.053
58612SOL    HW177668  14.866   0.787  13.026
58612SOL    HW277669   0.074   0.843  13.142
58613SOL     OW77670   0.102   1.107  10.119
58613SOL    HW177671   0.019   1.154  10.125
58613SOL    HW277672   0.132   1.099  10.209
58614SOL     OW77673  12.110   7.727   8.028
58614SOL    HW177674  12.205   7.732   8.034
58614SOL    HW277675  12.079   7.764   8.111
58615SOL     OW77676   4.615   2.724   4.838
58615SOL    HW177677   4.637   2.788   4.770
58615SOL    HW277678   4.562   2.658   4.793
58616SOL     OW77679   4.594   6.353   7.062
58616SOL    HW177680   4.539   6.428   7.038
58616SOL    HW277681   4.674   6.365   7.010
58617SOL     OW77682  12.150   4.984  12.004
58617SOL    HW177683  12.114   4.897  11.990
58617SOL    HW277684  12.233   4.984  11.957
58618SOL     OW77685   4.891   7.588   0.946
58618SOL    HW177686   4.841   7.508   0.961
58618SOL    HW277687   4.915   7.585   0.853
58619SOL     OW77688   6.418   7.291   0.986
58619SOL    HW177689   6.426   7.314   1.078
58619SOL    HW277690   6.328   7.262   0.975
58620SOL     OW77691  11.445  11.879  10.592
58620SOL    HW177692  11.353  11.874  10.617
58620SOL    HW277693  11.443  11.902  10.499
58621SOL     OW77694   1.428   0.675   9.901
58621SOL    HW177695   1.425   0.754   9.847
58621SOL    HW277696   1.357   0.686   9.964
58622SOL     OW77697   8.206   3.923   5.183
58622SOL    HW177698   8.285   3.947   5.232
58622SOL    HW277699   8.140   3.985   5.212
58623SOL     OW77700   8.568   2.819   2.864
58623SOL    HW177701   8.554   2.847   2.955
58623SOL    HW277702   8.481   2.792   2.834
58624SOL     OW77703   7.801   0.779  14.602
58624SOL    HW177704   7.824   0.734  14.683
58624SOL    HW277705   7.875   0.838  14.585
58625SOL     OW77706   5.171  14.722   7.728
58625SOL    HW177707   5.238  14.790   7.715
58625SOL    HW277708   5.196  14.679   7.810
58626SOL     OW77709   1.290   6.574   2.825
58626SOL    HW177710   1.329   6.654   2.792
58626SOL    HW277711   1.279   6.590   2.919
58627SOL     OW77712   2.332   6.911  11.926
58627SOL    HW177713   2.388   6.835  11.912
58627SOL    HW277714   2.378   6.963  11.992
58628SOL     OW77715  12.526   1.761   4.364
58628SOL    HW177716  12.442   1.736   4.403
58628SOL    HW277717  12.584   1.687   4.381
58629SOL     OW77718  12.837  13.283   2.280
58629SOL    HW177719  12.906  13.303   2.344
58629SOL    HW277720  12.782  13.219   2.324
58630SOL     OW77721  12.047   6.585  11.064
58630SOL    HW177722  12.112   6.516  11.053
58630SOL    HW277723  12.092   6.665  11.036
58631SOL     OW77724   4.372  10.299   6.672
58631SOL    HW177725   4.387  10.283   6.766
58631SOL    HW277726   4.277  10.296   6.662
58632SOL     OW77727  10.396  12.514  13.405
58632SOL    HW177728  10.367  12.434  13.448
58632SOL    HW277729  10.427  12.485  13.319
58633SOL     OW77730   8.570  12.393   8.482
58633SOL    HW177731   8.664  12.402   8.495
58633SOL    HW277732   8.556  12.405   8.388
58634SOL     OW77733  11.077  10.238   4.438
58634SOL    HW177734  11.015  10.306   4.461
58634SOL    HW277735  11.130  10.226   4.517
58635SOL     OW77736   0.801   2.952   5.643
58635SOL    HW177737   0.891   2.983   5.649
58635SOL    HW277738   0.760   3.008   5.577
58636SOL     OW77739   1.999   6.478   4.946
58636SOL    HW177740   2.032   6.567   4.959
58636SOL    HW277741   2.033   6.452   4.861
58637SOL     OW77742  13.890   0.822  10.521
58637SOL    HW177743  13.972   0.810  10.569
58637SOL    HW277744  13.899   0.767  10.443
58638SOL     OW77745   6.221   4.399   1.627
58638SOL    HW177746   6.186   4.455   1.696
58638SOL    HW277747   6.301   4.363   1.663
58639SOL     OW77748   9.031   7.396   0.728
58639SOL    HW177749   8.989   7.441   0.801
58639SOL    HW277750   8.994   7.308   0.729
58640SOL     OW77751   8.341  10.827  10.269
58640SOL    HW177752   8.333  10.815  10.174
58640SOL    HW277753   8.293  10.908  10.287
58641SOL     OW77754  12.287  10.736   0.948
58641SOL    HW177755  12.349  10.684   0.999
58641SOL    HW277756  12.232  10.779   1.013
58642SOL     OW77757   8.659   9.215  11.635
58642SOL    HW177758   8.660   9.206  11.540
58642SOL    HW277759   8.583   9.163  11.663
58643SOL     OW77760   2.658   6.013  12.566
58643SOL    HW177761   2.633   5.928  12.603
58643SOL    HW277762   2.752   6.005  12.550
58644SOL     OW77763  14.222   9.478  10.018
58644SOL    HW177764  14.240   9.512  10.106
58644SOL    HW277765  14.131   9.448  10.022
58645SOL     OW77766  14.284  10.209   3.695
58645SOL    HW177767  14.217  10.258   3.648
58645SOL    HW277768  14.238  10.132   3.729
58646SOL     OW77769   8.207   7.731   7.554
58646SOL    HW177770   8.283   7.687   7.592
58646SOL    HW277771   8.151   7.659   7.523
58647SOL     OW77772   1.291  12.650  13.775
58647SOL    HW177773   1.313  12.591  13.848
58647SOL    HW277774   1.228  12.711  13.812
58648SOL     OW77775   4.543   0.439   1.661
58648SOL    HW177776   4.479   0.449   1.732
58648SOL    HW277777   4.550   0.527   1.623
58649SOL     OW77778   6.660  12.596   4.473
58649SOL    HW177779   6.685  12.522   4.529
58649SOL    HW277780   6.677  12.674   4.526
58650SOL     OW77781   3.379   9.224   4.558
58650SOL    HW177782   3.455   9.180   4.521
58650SOL    HW277783   3.376   9.309   4.513
58651SOL     OW77784   2.234   7.131   2.934
58651SOL    HW177785   2.168   7.131   3.002
58651SOL    HW277786   2.315   7.153   2.979
58652SOL     OW77787   3.352   9.403  13.938
58652SOL    HW177788   3.288   9.339  13.970
58652SOL    HW277789   3.303   9.484  13.928
58653SOL     OW77790   4.625   6.669   0.252
58653SOL    HW177791   4.704   6.674   0.200
58653SOL    HW277792   4.639   6.730   0.324
58654SOL     OW77793  10.984  11.675  12.688
58654SOL    HW177794  11.024  11.691  12.603
58654SOL    HW277795  10.913  11.740  12.694
58655SOL     OW77796   0.841   1.025   6.605
58655SOL    HW177797   0.791   1.075   6.669
58655SOL    HW277798   0.929   1.018   6.643
58656SOL     OW77799   8.839   0.082   8.080
58656SOL    HW177800   8.750   0.059   8.056
58656SOL    HW277801   8.847   0.056   8.172
58657SOL     OW77802  11.202   3.237   9.496
58657SOL    HW177803  11.110   3.262   9.505
58657SOL    HW277804  11.215   3.168   9.561
58658SOL     OW77805   0.703  14.464  13.639
58658SOL    HW177806   0.650  14.527  13.591
58658SOL    HW277807   0.658  14.381  13.627
58659SOL     OW77808  10.696  12.486   7.138
58659SOL    HW177809  10.742  12.563   7.171
58659SOL    HW277810  10.713  12.418   7.203
58660SOL     OW77811   0.560   7.852   8.411
58660SOL    HW177812   0.618   7.786   8.372
58660SOL    HW277813   0.593   7.863   8.500
58661SOL     OW77814   5.153   6.823  12.075
58661SOL    HW177815   5.245   6.795  12.077
58661SOL    HW277816   5.103   6.742  12.086
58662SOL     OW77817   2.893  12.998   4.970
58662SOL    HW177818   2.888  12.939   4.895
58662SOL    HW277819   2.813  12.980   5.020
58663SOL     OW77820   5.627   5.079  10.951
58663SOL    HW177821   5.597   5.032  10.874
58663SOL    HW277822   5.597   5.026  11.025
58664SOL     OW77823   7.763   1.862   5.700
58664SOL    HW177824   7.746   1.832   5.611
58664SOL    HW277825   7.681   1.905   5.726
58665SOL     OW77826   4.041   2.182  13.871
58665SOL    HW177827   4.135   2.197  13.863
58665SOL    HW277828   4.010   2.254  13.926
58666SOL     OW77829   6.880   5.870   7.178
58666SOL    HW177830   6.946   5.832   7.236
58666SOL    HW277831   6.869   5.959   7.210
58667SOL     OW77832   1.938   8.704   6.589
58667SOL    HW177833   1.994   8.652   6.646
58667SOL    HW277834   1.849   8.687   6.621
58668SOL     OW77835  13.166   3.417   2.228
58668SOL    HW177836  13.217   3.369   2.164
58668SOL    HW277837  13.230   3.468   2.278
58669SOL     OW77838   0.843   4.945  11.392
58669SOL    HW177839   0.754   4.964  11.364
58669SOL    HW277840   0.895   5.018  11.359
58670SOL     OW77841   4.972   2.703   0.224
58670SOL    HW177842   5.065   2.713   0.240
58670SOL    HW277843   4.949   2.619   0.264
58671SOL     OW77844   1.605   1.639   6.382
58671SOL    HW177845   1.640   1.627   6.294
58671SOL    HW277846   1.523   1.686   6.369
58672SOL     OW77847   4.493   8.734   5.457
58672SOL    HW177848   4.424   8.723   5.522
58672SOL    HW277849   4.503   8.829   5.448
58673SOL     OW77850   5.096  10.338   9.461
58673SOL    HW177851   5.074  10.381   9.379
58673SOL    HW277852   5.077  10.404   9.528
58674SOL     OW77853  13.115   9.072   8.765
58674SOL    HW177854  13.139   9.147   8.710
58674SOL    HW277855  13.057   9.109   8.831
58675SOL     OW77856   2.799   8.146  10.952
58675SOL    HW177857   2.785   8.160  10.858
58675SOL    HW277858   2.751   8.065  10.972
58676SOL     OW77859   9.028   7.184   7.745
58676SOL    HW177860   9.055   7.276   7.745
58676SOL    HW277861   9.006   7.166   7.836
58677SOL     OW77862  13.834  11.090  12.481
58677SOL    HW177863  13.862  11.127  12.397
58677SOL    HW277864  13.871  11.150  12.546
58678SOL     OW77865   2.470   8.795   0.921
58678SOL    HW177866   2.544   8.739   0.943
58678SOL    HW277867   2.472   8.802   0.826
58679SOL     OW77868   3.547   3.719   2.824
58679SOL    HW177869   3.584   3.646   2.775
58679SOL    HW277870   3.587   3.797   2.784
58680SOL     OW77871  14.031   0.263  14.625
58680SOL    HW177872  14.100   0.197  14.626
58680SOL    HW277873  14.077   0.346  14.637
58681SOL     OW77874   5.538   9.599   3.415
58681SOL    HW177875   5.619   9.587   3.465
58681SOL    HW277876   5.486   9.659   3.468
58682SOL     OW77877   6.205  12.587   3.438
58682SOL    HW177878   6.141  12.549   3.378
58682SOL    HW277879   6.283  12.532   3.429
58683SOL     OW77880   4.915  12.426  13.878
58683SOL    HW177881   4.824  12.444  13.900
58683SOL    HW277882   4.915  12.335  13.848
58684SOL     OW77883  14.069  13.788   9.846
58684SOL    HW177884  14.135  13.720   9.862
58684SOL    HW277885  14.038  13.812   9.933
58685SOL     OW77886   5.983  13.305  10.187
58685SOL    HW177887   5.891  13.324  10.203
58685SOL    HW277888   6.009  13.246  10.258
58686SOL     OW77889  11.575  13.681   2.892
58686SOL    HW177890  11.573  13.682   2.796
58686SOL    HW277891  11.664  13.654   2.914
58687SOL     OW77892  14.852   8.341   7.472
58687SOL    HW177893  14.855   8.417   7.530
58687SOL    HW277894   0.072   8.318   7.457
58688SOL     OW77895   3.010   9.159   1.437
58688SOL    HW177896   2.932   9.206   1.466
58688SOL    HW277897   3.082   9.220   1.454
58689SOL     OW77898   2.981  11.066   1.878
58689SOL    HW177899   3.057  11.121   1.896
58689SOL    HW277900   2.936  11.059   1.962
58690SOL     OW77901   0.541   0.167  10.637
58690SOL    HW177902   0.634   0.150  10.623
58690SOL    HW277903   0.500   0.081  10.634
58691SOL     OW77904  10.929   1.453   2.522
58691SOL    HW177905  10.890   1.403   2.594
58691SOL    HW277906  10.934   1.391   2.450
58692SOL     OW77907  10.653  10.006  13.033
58692SOL    HW177908  10.676  10.077  13.093
58692SOL    HW277909  10.604  10.048  12.963
58693SOL     OW77910   1.462   5.371  11.197
58693SOL    HW177911   1.508   5.448  11.164
58693SOL    HW277912   1.522   5.332  11.261
58694SOL     OW77913   8.454   7.238   1.995
58694SOL    HW177914   8.469   7.260   1.903
58694SOL    HW277915   8.383   7.295   2.023
58695SOL     OW77916   4.034   4.521  11.259
58695SOL    HW177917   4.038   4.616  11.272
58695SOL    HW277918   4.053   4.485  11.345
58696SOL     OW77919   2.097   8.669   7.581
58696SOL    HW177920   2.186   8.639   7.599
58696SOL    HW277921   2.107   8.763   7.562
58697SOL     OW77922   4.825   2.509   9.678
58697SOL    HW177923   4.805   2.445   9.609
58697SOL    HW277924   4.749   2.568   9.677
58698SOL     OW77925   0.937   4.850   0.817
58698SOL    HW177926   0.864   4.849   0.880
58698SOL    HW277927   0.982   4.767   0.831
58699SOL     OW77928   2.505   5.682  14.042
58699SOL    HW177929   2.412   5.703  14.035
58699SOL    HW277930   2.511   5.588  14.023
58700SOL     OW77931   2.445   0.605   3.582
58700SOL    HW177932   2.520   0.649   3.623
58700SOL    HW277933   2.467   0.600   3.489
58701SOL     OW77934  10.900  11.094   8.540
58701SOL    HW177935  10.903  11.021   8.601
58701SOL    HW277936  10.913  11.054   8.454
58702SOL     OW77937   8.171  10.722   9.157
58702SOL    HW177938   8.157  10.640   9.206
58702SOL    HW277939   8.247  10.704   9.102
58703SOL     OW77940   2.155   5.584   4.269
58703SOL    HW177941   2.196   5.577   4.183
58703SOL    HW277942   2.141   5.494   4.297
58704SOL     OW77943   5.017   5.277   4.865
58704SOL    HW177944   5.035   5.352   4.922
58704SOL    HW277945   5.043   5.306   4.778
58705SOL     OW77946   4.001  10.105  11.640
58705SOL    HW177947   3.980  10.198  11.629
58705SOL    HW277948   3.984  10.067  11.554
58706SOL     OW77949   3.886  11.577  12.463
58706SOL    HW177950   3.797  11.596  12.434
58706SOL    HW277951   3.942  11.629  12.405
58707SOL     OW77952   5.497   7.022  14.743
58707SOL    HW177953   5.475   6.978  14.661
58707SOL    HW277954   5.586   7.053  14.731
58708SOL     OW77955  10.532  13.154   3.959
58708SOL    HW177956  10.510  13.064   3.936
58708SOL    HW277957  10.559  13.150   4.050
58709SOL     OW77958   6.006   3.264  12.708
58709SOL    HW177959   6.081   3.319  12.685
58709SOL    HW277960   6.019   3.183  12.658
58710SOL     OW77961  10.580   1.975   6.489
58710SOL    HW177962  10.545   2.038   6.551
58710SOL    HW277963  10.647   2.023   6.440
58711SOL     OW77964  11.790   0.660   0.767
58711SOL    HW177965  11.795   0.565   0.763
58711SOL    HW277966  11.878   0.688   0.792
58712SOL     OW77967   6.338   7.913   0.547
58712SOL    HW177968   6.376   7.945   0.629
58712SOL    HW277969   6.376   7.969   0.479
58713SOL     OW77970  12.726  10.973   8.683
58713SOL    HW177971  12.750  11.040   8.747
58713SOL    HW277972  12.774  10.895   8.712
58714SOL     OW77973   4.376   6.250  13.127
58714SOL    HW177974   4.465   6.251  13.162
58714SOL    HW277975   4.325   6.301  13.189
58715SOL     OW77976   6.611  14.475   0.080
58715SOL    HW177977   6.548  14.441   0.143
58715SOL    HW277978   6.636  14.399   0.028
58716SOL     OW77979   2.688  14.851   9.627
58716SOL    HW177980   2.657   0.067   9.608
58716SOL    HW277981   2.720  14.855   9.717
58717SOL     OW77982   1.478   6.021  12.835
58717SOL    HW177983   1.492   6.026  12.740
58717SOL    HW277984   1.494   6.110  12.867
58718SOL     OW77985   7.004  14.132   3.676
58718SOL    HW177986   6.981  14.225   3.674
58718SOL    HW277987   7.091  14.127   3.636
58719SOL     OW77988  11.930   8.540   5.357
58719SOL    HW177989  11.875   8.587   5.296
58719SOL    HW277990  11.873   8.472   5.394
58720SOL     OW77991   5.193   7.627   4.431
58720SOL    HW177992   5.115   7.644   4.377
58720SOL    HW277993   5.173   7.668   4.515
58721SOL     OW77994  11.981   5.632   3.081
58721SOL    HW177995  12.040   5.692   3.035
58721SOL    HW277996  11.908   5.619   3.021
58722SOL     OW77997   2.428   9.178   2.156
58722SOL    HW177998   2.384   9.096   2.177
58722SOL    HW277999   2.361   9.230   2.111
58723SOL     OW78000   1.067   1.403  13.307
58723SOL    HW178001   1.039   1.412  13.399
58723SOL    HW278002   1.162   1.396  13.311
58724SOL     OW78003  13.020   9.567   2.502
58724SOL    HW178004  13.024   9.550   2.408
58724SOL    HW278005  13.053   9.656   2.512
58725SOL     OW78006  10.311  13.613   1.964
58725SOL    HW178007  10.232  13.606   1.911
58725SOL    HW278008  10.304  13.543   2.028
58726SOL     OW78009   1.122  13.896   9.216
58726SOL    HW178010   1.213  13.925   9.223
58726SOL    HW278011   1.102  13.860   9.303
58727SOL     OW78012  12.149   6.576   3.192
58727SOL    HW178013  12.155   6.611   3.281
58727SOL    HW278014  12.118   6.650   3.140
58728SOL     OW78015   1.697   6.491  12.017
58728SOL    HW178016   1.745   6.490  12.100
58728SOL    HW278017   1.705   6.581  11.986
58729SOL     OW78018   7.127  14.135   2.118
58729SOL    HW178019   7.094  14.092   2.039
58729SOL    HW278020   7.185  14.204   2.086
58730SOL     OW78021   4.463  12.410   4.985
58730SOL    HW178022   4.455  12.469   5.060
58730SOL    HW278023   4.480  12.324   5.023
58731SOL     OW78024  10.169  11.883  12.950
58731SOL    HW178025  10.175  11.788  12.948
58731SOL    HW278026  10.206  11.908  13.035
58732SOL     OW78027   4.360  10.966   6.507
58732SOL    HW178028   4.439  10.911   6.506
58732SOL    HW278029   4.305  10.927   6.575
58733SOL     OW78030   9.923   4.924   0.312
58733SOL    HW178031   9.989   4.958   0.251
58733SOL    HW278032   9.841   4.931   0.263
58734SOL     OW78033  11.168  13.324  12.150
58734SOL    HW178034  11.095  13.262  12.152
58734SOL    HW278035  11.242  13.277  12.188
58735SOL     OW78036   6.588   5.115   9.189
58735SOL    HW178037   6.526   5.047   9.215
58735SOL    HW278038   6.563   5.192   9.240
58736SOL     OW78039   5.935   1.147  10.054
58736SOL    HW178040   5.883   1.075  10.019
58736SOL    HW278041   6.026   1.119  10.040
58737SOL     OW78042   6.485   2.207  12.686
58737SOL    HW178043   6.529   2.170  12.763
58737SOL    HW278044   6.506   2.147  12.615
58738SOL     OW78045   2.117  14.403   5.472
58738SOL    HW178046   2.164  14.351   5.408
58738SOL    HW278047   2.026  14.405   5.441
58739SOL     OW78048   8.818   1.863  12.651
58739SOL    HW178049   8.803   1.795  12.585
58739SOL    HW278050   8.911   1.856  12.672
58740SOL     OW78051   2.376   2.942   0.204
58740SOL    HW178052   2.459   2.923   0.247
58740SOL    HW278053   2.397   2.940   0.110
58741SOL     OW78054  10.528  11.089  12.660
58741SOL    HW178055  10.589  11.086  12.587
58741SOL    HW278056  10.544  11.173  12.702
58742SOL     OW78057   9.214   4.060   0.195
58742SOL    HW178058   9.201   3.993   0.128
58742SOL    HW278059   9.132   4.063   0.243
58743SOL     OW78060  11.786   5.183   1.038
58743SOL    HW178061  11.829   5.265   1.060
58743SOL    HW278062  11.709   5.181   1.095
58744SOL     OW78063   8.831   6.656   2.141
58744SOL    HW178064   8.896   6.608   2.193
58744SOL    HW278065   8.833   6.614   2.055
58745SOL     OW78066  10.922   5.782   1.027
58745SOL    HW178067  10.872   5.838   0.968
58745SOL    HW278068  10.858   5.749   1.090
58746SOL     OW78069   2.713   0.033  10.845
58746SOL    HW178070   2.706   0.127  10.864
58746SOL    HW278071   2.758  14.868  10.921
58747SOL     OW78072   3.114   3.443   6.348
58747SOL    HW178073   3.126   3.363   6.399
58747SOL    HW278074   3.173   3.433   6.273
58748SOL     OW78075   8.107  10.839   8.407
58748SOL    HW178076   8.190  10.797   8.387
58748SOL    HW278077   8.052  10.822   8.331
58749SOL     OW78078   7.564  13.375   6.875
58749SOL    HW178079   7.484  13.402   6.920
58749SOL    HW278080   7.631  13.373   6.944
58750SOL     OW78081  11.470   6.133   6.094
58750SOL    HW178082  11.435   6.068   6.032
58750SOL    HW278083  11.435   6.106   6.179
58751SOL     OW78084   7.735   7.218   8.803
58751SOL    HW178085   7.716   7.138   8.853
58751SOL    HW278086   7.823   7.242   8.832
58752SOL     OW78087   9.096   1.253   9.503
58752SOL    HW178088   9.047   1.301   9.436
58752SOL    HW278089   9.138   1.321   9.556
58753SOL     OW78090   1.997  14.582  10.938
58753SOL    HW178091   2.088  14.600  10.915
58753SOL    HW278092   1.946  14.646  10.888
58754SOL     OW78093   5.397   2.832   1.698
58754SOL    HW178094   5.324   2.893   1.705
58754SOL    HW278095   5.399   2.786   1.782
58755SOL     OW78096  13.113  12.440  12.343
58755SOL    HW178097  13.038  12.446  12.284
58755SOL    HW278098  13.091  12.497  12.416
58756SOL     OW78099   7.778   1.556   0.091
58756SOL    HW178100   7.857   1.600   0.059
58756SOL    HW278101   7.775   1.474   0.042
58757SOL     OW78102   0.698   5.381   9.363
58757SOL    HW178103   0.643   5.369   9.440
58757SOL    HW278104   0.643   5.429   9.301
58758SOL     OW78105   8.377  12.663  13.947
58758SOL    HW178106   8.337  12.641  14.031
58758SOL    HW278107   8.387  12.579  13.902
58759SOL     OW78108   6.154  12.954   4.302
58759SOL    HW178109   6.078  12.970   4.246
58759SOL    HW278110   6.226  12.940   4.241
58760SOL     OW78111   1.187  10.452   9.948
58760SOL    HW178112   1.127  10.437  10.020
58760SOL    HW278113   1.190  10.547   9.939
58761SOL     OW78114   3.374  12.762   5.090
58761SOL    HW178115   3.374  12.669   5.066
58761SOL    HW278116   3.282  12.789   5.082
58762SOL     OW78117   1.935   2.234  13.568
58762SOL    HW178118   1.915   2.163  13.508
58762SOL    HW278119   1.860   2.293  13.561
58763SOL     OW78120   8.677   9.631   4.124
58763SOL    HW178121   8.616   9.684   4.175
58763SOL    HW278122   8.667   9.543   4.159
58764SOL     OW78123   3.183  13.109   9.855
58764SOL    HW178124   3.147  13.022   9.838
58764SOL    HW278125   3.159  13.127   9.946
58765SOL     OW78126   3.685   9.425   8.347
58765SOL    HW178127   3.590   9.429   8.359
58765SOL    HW278128   3.702   9.478   8.269
58766SOL     OW78129   6.414  10.553  11.025
58766SOL    HW178130   6.471  10.624  10.995
58766SOL    HW278131   6.347  10.597  11.077
58767SOL     OW78132   4.370   7.890   1.843
58767SOL    HW178133   4.452   7.931   1.869
58767SOL    HW278134   4.324   7.957   1.792
58768SOL     OW78135   7.601   4.189  13.747
58768SOL    HW178136   7.695   4.205  13.745
58768SOL    HW278137   7.588   4.125  13.816
58769SOL     OW78138  11.108   5.286  11.876
58769SOL    HW178139  11.069   5.236  11.805
58769SOL    HW278140  11.069   5.251  11.956
58770SOL     OW78141  11.396   5.448   0.774
58770SOL    HW178142  11.487   5.463   0.799
58770SOL    HW278143  11.372   5.525   0.723
58771SOL     OW78144  13.507   4.645   9.935
58771SOL    HW178145  13.580   4.586   9.955
58771SOL    HW278146  13.446   4.633  10.007
58772SOL     OW78147   6.049  10.926   9.018
58772SOL    HW178148   6.047  10.923   9.113
58772SOL    HW278149   6.098  11.005   8.997
58773SOL     OW78150   6.848   6.749   8.288
58773SOL    HW178151   6.768   6.741   8.339
58773SOL    HW278152   6.918   6.747   8.353
58774SOL     OW78153  12.920   5.137   8.950
58774SOL    HW178154  12.984   5.160   8.884
58774SOL    HW278155  12.894   5.048   8.930
58775SOL     OW78156  12.486  13.396   6.513
58775SOL    HW178157  12.471  13.400   6.608
58775SOL    HW278158  12.439  13.471   6.478
58776SOL     OW78159   9.355   8.140   2.547
58776SOL    HW178160   9.435   8.120   2.498
58776SOL    HW278161   9.370   8.103   2.634
58777SOL     OW78162  13.252   1.067   9.673
58777SOL    HW178163  13.295   1.049   9.756
58777SOL    HW278164  13.161   1.041   9.687
58778SOL     OW78165   6.307   5.232   8.416
58778SOL    HW178166   6.390   5.202   8.452
58778SOL    HW278167   6.240   5.192   8.472
58779SOL     OW78168  11.504   9.819   9.078
58779SOL    HW178169  11.598   9.834   9.071
58779SOL    HW278170  11.472   9.824   8.987
58780SOL     OW78171  14.853   8.180   6.576
58780SOL    HW178172   0.012   8.143   6.493
58780SOL    HW278173  14.758   8.177   6.568
58781SOL     OW78174   5.194   3.511   5.574
58781SOL    HW178175   5.249   3.539   5.647
58781SOL    HW278176   5.256   3.481   5.507
58782SOL     OW78177   3.901   1.931   6.143
58782SOL    HW178178   3.831   1.894   6.090
58782SOL    HW278179   3.896   2.025   6.128
58783SOL     OW78180   7.028   8.835   2.278
58783SOL    HW178181   7.041   8.921   2.317
58783SOL    HW278182   7.019   8.776   2.354
58784SOL     OW78183  11.969  13.436  13.900
58784SOL    HW178184  11.970  13.525  13.934
58784SOL    HW278185  11.950  13.382  13.977
58785SOL     OW78186   5.016  13.365   7.405
58785SOL    HW178187   4.934  13.389   7.450
58785SOL    HW278188   5.040  13.444   7.356
58786SOL     OW78189  11.938   6.913   1.153
58786SOL    HW178190  12.024   6.917   1.111
58786SOL    HW278191  11.889   6.985   1.113
58787SOL     OW78192   6.976  14.827   4.727
58787SOL    HW178193   7.045  14.761   4.721
58787SOL    HW278194   6.909  14.798   4.664
58788SOL     OW78195   6.014   5.747  12.155
58788SOL    HW178196   5.942   5.795  12.114
58788SOL    HW278197   6.054   5.810  12.215
58789SOL     OW78198   7.061   2.699   8.121
58789SOL    HW178199   7.068   2.614   8.077
58789SOL    HW278200   6.991   2.687   8.185
58790SOL     OW78201   5.869   8.965  14.848
58790SOL    HW178202   5.868   8.898  14.780
58790SOL    HW278203   5.954   9.007  14.839
58791SOL     OW78204   7.005   0.903  13.230
58791SOL    HW178205   6.994   0.919  13.136
58791SOL    HW278206   7.100   0.899  13.242
58792SOL     OW78207   1.895  12.367  14.666
58792SOL    HW178208   1.835  12.371  14.740
58792SOL    HW278209   1.943  12.449  14.669
58793SOL     OW78210  13.675   3.372   6.167
58793SOL    HW178211  13.634   3.411   6.090
58793SOL    HW278212  13.637   3.419   6.241
58794SOL     OW78213   6.542  10.243   8.392
58794SOL    HW178214   6.531  10.176   8.325
58794SOL    HW278215   6.626  10.222   8.433
58795SOL     OW78216   0.078   8.576  10.365
58795SOL    HW178217   0.113   8.490  10.388
58795SOL    HW278218   0.150   8.637  10.384
58796SOL     OW78219  11.044   0.199   3.467
58796SOL    HW178220  11.049   0.208   3.372
58796SOL    HW278221  11.066   0.107   3.483
58797SOL     OW78222   2.676  13.593  13.415
58797SOL    HW178223   2.689  13.531  13.343
58797SOL    HW278224   2.583  13.587  13.437
58798SOL     OW78225   4.662   8.842   6.127
58798SOL    HW178226   4.674   8.922   6.180
58798SOL    HW278227   4.672   8.872   6.037
58799SOL     OW78228   7.593   1.668   7.751
58799SOL    HW178229   7.527   1.628   7.808
58799SOL    HW278230   7.604   1.606   7.679
58800SOL     OW78231  13.933  12.569   1.895
58800SOL    HW178232  13.939  12.508   1.822
58800SOL    HW278233  13.839  12.589   1.902
58801SOL     OW78234  13.082   6.347   0.594
58801SOL    HW178235  13.160   6.291   0.599
58801SOL    HW278236  13.023   6.313   0.661
58802SOL     OW78237   1.147   1.431  10.139
58802SOL    HW178238   1.184   1.433  10.051
58802SOL    HW278239   1.052   1.431  10.125
58803SOL     OW78240   9.035   1.853   0.505
58803SOL    HW178241   9.099   1.921   0.483
58803SOL    HW278242   8.972   1.855   0.433
58804SOL     OW78243   8.952   4.583   6.559
58804SOL    HW178244   8.989   4.533   6.631
58804SOL    HW278245   8.922   4.516   6.497
58805SOL     OW78246  12.088   9.576  13.074
58805SOL    HW178247  12.176   9.558  13.105
58805SOL    HW278248  12.088   9.544  12.983
58806SOL     OW78249   7.141  10.653   6.210
58806SOL    HW178250   7.154  10.696   6.295
58806SOL    HW278251   7.122  10.725   6.150
58807SOL     OW78252   9.638   8.892   5.840
58807SOL    HW178253   9.606   8.855   5.758
58807SOL    HW278254   9.560   8.897   5.896
58808SOL     OW78255   5.771   1.294   8.425
58808SOL    HW178256   5.845   1.327   8.476
58808SOL    HW278257   5.695   1.310   8.481
58809SOL     OW78258  11.387   5.532   6.767
58809SOL    HW178259  11.312   5.590   6.763
58809SOL    HW278260  11.349   5.444   6.761
58810SOL     OW78261   8.106  12.495   7.759
58810SOL    HW178262   8.054  12.447   7.823
58810SOL    HW278263   8.196  12.482   7.786
58811SOL     OW78264   3.077   9.109   4.501
58811SOL    HW178265   3.157   9.161   4.513
58811SOL    HW278266   3.099   9.023   4.535
58812SOL     OW78267   8.575   5.607   5.456
58812SOL    HW178268   8.518   5.673   5.494
58812SOL    HW278269   8.579   5.538   5.523
58813SOL     OW78270  10.833  12.687   8.131
58813SOL    HW178271  10.816  12.677   8.225
58813SOL    HW278272  10.880  12.607   8.107
58814SOL     OW78273   6.419  12.989   7.020
58814SOL    HW178274   6.467  12.952   6.947
58814SOL    HW278275   6.392  12.914   7.073
58815SOL     OW78276   1.606  13.638  12.562
58815SOL    HW178277   1.524  13.605  12.599
58815SOL    HW278278   1.632  13.710  12.619
58816SOL     OW78279  10.800   2.467  13.358
58816SOL    HW178280  10.726   2.526  13.377
58816SOL    HW278281  10.842   2.506  13.281
58817SOL     OW78282   2.247   4.199   9.607
58817SOL    HW178283   2.239   4.117   9.657
58817SOL    HW278284   2.339   4.223   9.616
58818SOL     OW78285   4.844   8.057   8.946
58818SOL    HW178286   4.922   8.053   8.890
58818SOL    HW278287   4.838   7.969   8.985
58819SOL     OW78288   0.247   6.790   9.038
58819SOL    HW178289   0.332   6.815   9.003
58819SOL    HW278290   0.185   6.852   9.000
58820SOL     OW78291   8.183   6.483   4.858
58820SOL    HW178292   8.109   6.544   4.853
58820SOL    HW278293   8.143   6.396   4.858
58821SOL     OW78294   2.518  13.546   8.644
58821SOL    HW178295   2.612  13.553   8.628
58821SOL    HW278296   2.504  13.598   8.724
58822SOL     OW78297   2.338   2.499   1.079
58822SOL    HW178298   2.254   2.540   1.100
58822SOL    HW278299   2.333   2.412   1.119
58823SOL     OW78300  14.756   4.793  11.102
58823SOL    HW178301  14.713   4.852  11.164
58823SOL    HW278302  14.849   4.812  11.111
58824SOL     OW78303  13.126   3.752   3.345
58824SOL    HW178304  13.063   3.687   3.374
58824SOL    HW278305  13.177   3.708   3.277
58825SOL     OW78306   8.127   2.973   2.270
58825SOL    HW178307   8.205   2.933   2.230
58825SOL    HW278308   8.053   2.928   2.229
58826SOL     OW78309   0.091   1.778   5.917
58826SOL    HW178310   0.114   1.688   5.893
58826SOL    HW278311  14.870   1.774   5.935
58827SOL     OW78312  12.321   7.473   8.991
58827SOL    HW178313  12.347   7.420   8.916
58827SOL    HW278314  12.401   7.517   9.020
58828SOL     OW78315   2.065   1.844   0.842
58828SOL    HW178316   2.158   1.825   0.858
58828SOL    HW278317   2.046   1.805   0.757
58829SOL     OW78318  11.048  11.780  10.309
58829SOL    HW178319  11.074  11.688  10.300
58829SOL    HW278320  11.011  11.804  10.224
58830SOL     OW78321   7.567  10.960   9.457
58830SOL    HW178322   7.589  11.053   9.459
58830SOL    HW278323   7.652  10.916   9.464
58831SOL     OW78324   6.361  10.269   2.580
58831SOL    HW178325   6.369  10.190   2.633
58831SOL    HW278326   6.415  10.334   2.624
58832SOL     OW78327   4.267   8.538   7.546
58832SOL    HW178328   4.218   8.519   7.466
58832SOL    HW278329   4.218   8.610   7.588
58833SOL     OW78330   0.676   5.139   5.155
58833SOL    HW178331   0.716   5.165   5.238
58833SOL    HW278332   0.657   5.046   5.165
58834SOL     OW78333   2.165   9.298  13.646
58834SOL    HW178334   2.083   9.276  13.690
58834SOL    HW278335   2.231   9.241  13.686
58835SOL     OW78336   6.482   0.618   0.070
58835SOL    HW178337   6.456   0.674  14.869
58835SOL    HW278338   6.426   0.541   0.061
58836SOL     OW78339   6.343  10.327   1.306
58836SOL    HW178340   6.365  10.270   1.232
58836SOL    HW278341   6.382  10.411   1.285
58837SOL     OW78342  11.539   8.702   2.455
58837SOL    HW178343  11.510   8.783   2.497
58837SOL    HW278344  11.531   8.635   2.523
58838SOL     OW78345   9.189  11.259   0.023
58838SOL    HW178346   9.271  11.272   0.070
58838SOL    HW278347   9.180  11.337  14.841
58839SOL     OW78348  14.177   6.140   4.413
58839SOL    HW178349  14.151   6.088   4.489
58839SOL    HW278350  14.272   6.146   4.420
58840SOL     OW78351   7.707  11.076   1.471
58840SOL    HW178352   7.791  11.038   1.496
58840SOL    HW278353   7.642  11.027   1.522
58841SOL     OW78354  13.767   7.609  14.839
58841SOL    HW178355  13.814   7.630   0.048
58841SOL    HW278356  13.780   7.686  14.784
58842SOL     OW78357   7.816  10.607   6.964
58842SOL    HW178358   7.764  10.599   7.045
58842SOL    HW278359   7.874  10.532   6.966
58843SOL     OW78360   2.082   4.057   0.635
58843SOL    HW178361   1.995   4.031   0.663
58843SOL    HW278362   2.070   4.145   0.598
58844SOL     OW78363  14.679   2.779  12.701
58844SOL    HW178364  14.600   2.789  12.754
58844SOL    HW278365  14.710   2.691  12.721
58845SOL     OW78366   9.555  13.281  13.165
58845SOL    HW178367   9.478  13.230  13.141
58845SOL    HW278368   9.616  13.268  13.093
58846SOL     OW78369  12.995   0.433   0.350
58846SOL    HW178370  13.088   0.446   0.333
58846SOL    HW278371  12.968   0.511   0.399
58847SOL     OW78372  14.389   1.689   4.127
58847SOL    HW178373  14.421   1.682   4.037
58847SOL    HW278374  14.314   1.748   4.121
58848SOL     OW78375   3.394   1.196   6.984
58848SOL    HW178376   3.332   1.267   6.994
58848SOL    HW278377   3.380   1.140   7.060
58849SOL     OW78378   7.319  14.679  13.816
58849SOL    HW178379   7.384  14.621  13.777
58849SOL    HW278380   7.371  14.746  13.861
58850SOL     OW78381   1.053   6.895   1.004
58850SOL    HW178382   1.077   6.850   0.923
58850SOL    HW278383   1.019   6.980   0.975
58851SOL     OW78384   9.835  12.611   8.520
58851SOL    HW178385   9.882  12.535   8.554
58851SOL    HW278386   9.899  12.682   8.524
58852SOL     OW78387   3.415   1.878   2.463
58852SOL    HW178388   3.335   1.847   2.505
58852SOL    HW278389   3.475   1.898   2.535
58853SOL     OW78390   4.932   9.981  14.709
58853SOL    HW178391   4.840  10.006  14.699
58853SOL    HW278392   4.940   9.949  14.799
58854SOL     OW78393   1.171  10.279   4.107
58854SOL    HW178394   1.121  10.242   4.034
58854SOL    HW278395   1.216  10.355   4.068
58855SOL     OW78396   5.076   4.093   6.324
58855SOL    HW178397   5.095   4.066   6.234
58855SOL    HW278398   5.084   4.188   6.322
58856SOL     OW78399   5.356  13.750   6.771
58856SOL    HW178400   5.269  13.789   6.783
58856SOL    HW278401   5.339  13.657   6.757
58857SOL     OW78402   8.585   5.490  12.783
58857SOL    HW178403   8.599   5.397  12.766
58857SOL    HW278404   8.565   5.495  12.876
58858SOL     OW78405  13.523   8.512   0.890
58858SOL    HW178406  13.578   8.436   0.871
58858SOL    HW278407  13.499   8.546   0.804
58859SOL     OW78408   1.978   2.051   0.614
58859SOL    HW178409   1.910   2.058   0.681
58859SOL    HW278410   2.060   2.052   0.664
58860SOL     OW78411  12.859   2.063   8.695
58860SOL    HW178412  12.808   2.067   8.614
58860SOL    HW278413  12.816   1.995   8.747
58861SOL     OW78414  14.588  14.819   1.543
58861SOL    HW178415  14.623   0.015   1.486
58861SOL    HW278416  14.665  14.772   1.574
58862SOL     OW78417  11.872   3.935   3.431
58862SOL    HW178418  11.950   3.884   3.407
58862SOL    HW278419  11.881   3.947   3.526
58863SOL     OW78420  13.435   7.156   2.070
58863SOL    HW178421  13.520   7.153   2.027
58863SOL    HW278422  13.441   7.230   2.131
58864SOL     OW78423  12.228   1.773   5.197
58864SOL    HW178424  12.191   1.837   5.258
58864SOL    HW278425  12.310   1.745   5.238
58865SOL     OW78426   8.848   6.299  12.501
58865SOL    HW178427   8.822   6.321  12.411
58865SOL    HW278428   8.944   6.301  12.499
58866SOL     OW78429  10.798  13.847   0.002
58866SOL    HW178430  10.783  13.942   0.007
58866SOL    HW278431  10.879  13.833   0.051
58867SOL     OW78432   5.089   4.998  12.731
58867SOL    HW178433   5.120   4.951  12.809
58867SOL    HW278434   5.002   4.962  12.714
58868SOL     OW78435   7.560  11.090  13.580
58868SOL    HW178436   7.514  11.137  13.510
58868SOL    HW278437   7.625  11.036  13.535
58869SOL     OW78438   5.150   0.593   0.585
58869SOL    HW178439   5.166   0.686   0.568
58869SOL    HW278440   5.212   0.570   0.655
58870SOL     OW78441   9.145   0.862  12.863
58870SOL    HW178442   9.186   0.903  12.939
58870SOL    HW278443   9.051   0.867  12.880
58871SOL     OW78444   3.113  12.464  14.652
58871SOL    HW178445   3.026  12.453  14.616
58871SOL    HW278446   3.104  12.443  14.745
58872SOL     OW78447   0.926   9.813  11.330
58872SOL    HW178448   0.927   9.883  11.265
58872SOL    HW278449   0.961   9.852  11.409
58873SOL     OW78450  13.781  13.204  10.683
58873SOL    HW178451  13.762  13.267  10.613
58873SOL    HW278452  13.737  13.240  10.760
58874SOL     OW78453   5.906  10.566  14.394
58874SOL    HW178454   5.942  10.635  14.339
58874SOL    HW278455   5.849  10.611  14.456
58875SOL     OW78456  13.995  14.674   6.615
58875SOL    HW178457  13.990  14.606   6.682
58875SOL    HW278458  14.040  14.747   6.657
58876SOL     OW78459  13.838   6.319   5.502
58876SOL    HW178460  13.744   6.320   5.519
58876SOL    HW278461  13.846   6.339   5.409
58877SOL     OW78462   6.109  13.556   0.291
58877SOL    HW178463   6.202  13.573   0.304
58877SOL    HW278464   6.066  13.636   0.322
58878SOL     OW78465   6.041   8.545   0.579
58878SOL    HW178466   6.109   8.487   0.543
58878SOL    HW278467   6.050   8.626   0.528
58879SOL     OW78468  12.320   4.480   0.064
58879SOL    HW178469  12.257   4.528   0.011
58879SOL    HW278470  12.267   4.417   0.114
58880SOL     OW78471   4.481   5.537   0.326
58880SOL    HW178472   4.503   5.627   0.349
58880SOL    HW278473   4.402   5.544   0.272
58881SOL     OW78474   3.608   4.448   8.247
58881SOL    HW178475   3.556   4.368   8.243
58881SOL    HW278476   3.620   4.464   8.341
58882SOL     OW78477   0.141   6.342   0.705
58882SOL    HW178478   0.077   6.378   0.768
58882SOL    HW278479   0.226   6.367   0.741
58883SOL     OW78480   9.697   3.806   7.705
58883SOL    HW178481   9.780   3.801   7.657
58883SOL    HW278482   9.710   3.876   7.768
58884SOL     OW78483  11.753   2.253  12.980
58884SOL    HW178484  11.699   2.324  13.014
58884SOL    HW278485  11.756   2.188  13.050
58885SOL     OW78486   6.995   0.873  14.401
58885SOL    HW178487   6.923   0.870  14.338
58885SOL    HW278488   7.051   0.799  14.378
58886SOL     OW78489   5.373   6.757   5.993
58886SOL    HW178490   5.357   6.844   6.027
58886SOL    HW278491   5.457   6.764   5.948
58887SOL     OW78492   7.728  13.646   5.852
58887SOL    HW178493   7.765  13.558   5.856
58887SOL    HW278494   7.680  13.648   5.769
58888SOL     OW78495  13.638  12.188   6.730
58888SOL    HW178496  13.710  12.220   6.784
58888SOL    HW278497  13.655  12.223   6.643
58889SOL     OW78498   6.892   3.676  12.396
58889SOL    HW178499   6.934   3.744  12.342
58889SOL    HW278500   6.818   3.721  12.437
58890SOL     OW78501   8.981   9.201   0.744
58890SOL    HW178502   8.921   9.205   0.670
58890SOL    HW278503   9.047   9.268   0.725
58891SOL     OW78504   3.467   8.454   1.740
58891SOL    HW178505   3.549   8.485   1.701
58891SOL    HW278506   3.401   8.468   1.672
58892SOL     OW78507   6.781  11.560   4.025
58892SOL    HW178508   6.769  11.647   4.064
58892SOL    HW278509   6.734  11.501   4.085
58893SOL     OW78510  14.699  14.102  12.989
58893SOL    HW178511  14.708  14.011  13.017
58893SOL    HW278512  14.789  14.135  12.985
58894SOL     OW78513   9.226  13.933   4.130
58894SOL    HW178514   9.299  13.994   4.116
58894SOL    HW278515   9.149  13.989   4.133
58895SOL     OW78516   6.499   5.691  12.153
58895SOL    HW178517   6.420   5.639  12.164
58895SOL    HW278518   6.469   5.782  12.160
58896SOL     OW78519   3.369  12.024  11.432
58896SOL    HW178520   3.330  12.111  11.442
58896SOL    HW278521   3.298  11.963  11.452
58897SOL     OW78522  11.748   7.021  12.249
58897SOL    HW178523  11.726   6.958  12.180
58897SOL    HW278524  11.842   7.038  12.236
58898SOL     OW78525  13.115   4.675   5.739
58898SOL    HW178526  13.126   4.761   5.699
58898SOL    HW278527  13.057   4.628   5.679
58899SOL     OW78528  14.533  12.984   0.533
58899SOL    HW178529  14.479  12.991   0.454
58899SOL    HW278530  14.585  13.064   0.533
58900SOL     OW78531   4.326  12.869   6.066
58900SOL    HW178532   4.296  12.910   5.986
58900SOL    HW278533   4.345  12.942   6.125
58901SOL     OW78534   6.370   9.303  13.717
58901SOL    HW178535   6.346   9.247  13.791
58901SOL    HW278536   6.444   9.258  13.676
58902SOL     OW78537  12.290  11.263   6.861
58902SOL    HW178538  12.293  11.178   6.817
58902SOL    HW278539  12.288  11.327   6.790
58903SOL     OW78540   9.381   2.634   6.526
58903SOL    HW178541   9.427   2.553   6.546
58903SOL    HW278542   9.390   2.687   6.605
58904SOL     OW78543   8.128  14.004   0.934
58904SOL    HW178544   8.104  13.974   0.846
58904SOL    HW278545   8.216  13.969   0.948
58905SOL     OW78546   6.702   3.021   3.007
58905SOL    HW178547   6.753   2.973   3.072
58905SOL    HW278548   6.746   3.106   3.000
58906SOL     OW78549  13.798  10.718   8.244
58906SOL    HW178550  13.755  10.704   8.160
58906SOL    HW278551  13.727  10.724   8.307
58907SOL     OW78552   4.351  11.818   9.082
58907SOL    HW178553   4.409  11.742   9.082
58907SOL    HW278554   4.380  11.870   9.157
58908SOL     OW78555  10.325   6.761   4.771
58908SOL    HW178556  10.348   6.711   4.849
58908SOL    HW278557  10.338   6.852   4.795
58909SOL     OW78558   5.870   2.066   6.183
58909SOL    HW178559   5.957   2.028   6.168
58909SOL    HW278560   5.883   2.129   6.254
58910SOL     OW78561   6.459   4.766   0.804
58910SOL    HW178562   6.470   4.798   0.715
58910SOL    HW278563   6.365   4.755   0.815
58911SOL     OW78564   4.557   0.007   2.167
58911SOL    HW178565   4.514   0.023   2.083
58911SOL    HW278566   4.643   0.047   2.158
58912SOL     OW78567   2.764  14.141   2.820
58912SOL    HW178568   2.813  14.092   2.886
58912SOL    HW278569   2.785  14.232   2.837
58913SOL     OW78570  10.109   6.716  11.323
58913SOL    HW178571  10.053   6.690  11.250
58913SOL    HW278572  10.173   6.775  11.284
58914SOL     OW78573   2.198  10.920   8.088
58914SOL    HW178574   2.194  10.980   8.162
58914SOL    HW278575   2.249  10.846   8.120
58915SOL     OW78576   7.804  12.579   4.810
58915SOL    HW178577   7.885  12.557   4.856
58915SOL    HW278578   7.804  12.675   4.807
58916SOL     OW78579   4.259  10.542   9.689
58916SOL    HW178580   4.230  10.595   9.764
58916SOL    HW278581   4.178  10.515   9.646
58917SOL     OW78582   0.069   8.935  12.761
58917SOL    HW178583   0.123   8.873  12.809
58917SOL    HW278584  14.852   8.905  12.775
58918SOL     OW78585  13.702   6.284   3.982
58918SOL    HW178586  13.706   6.316   4.072
58918SOL    HW278587  13.613   6.304   3.954
58919SOL     OW78588  10.210   9.719   6.408
58919SOL    HW178589  10.141   9.717   6.343
58919SOL    HW278590  10.286   9.757   6.363
58920SOL     OW78591  12.376  14.600   6.760
58920SOL    HW178592  12.357  14.651   6.839
58920SOL    HW278593  12.291  14.581   6.722
58921SOL     OW78594   4.594   1.275  10.399
58921SOL    HW178595   4.607   1.370  10.391
58921SOL    HW278596   4.544   1.264  10.480
58922SOL     OW78597  10.240   4.151  10.264
58922SOL    HW178598  10.322   4.195  10.240
58922SOL    HW278599  10.260   4.058  10.258
58923SOL     OW78600   4.179   9.062   2.650
58923SOL    HW178601   4.116   9.081   2.581
58923SOL    HW278602   4.150   8.979   2.687
58924SOL     OW78603  11.279  12.187   4.207
58924SOL    HW178604  11.346  12.171   4.274
58924SOL    HW278605  11.328  12.219   4.131
58925SOL     OW78606  12.859   2.654   7.052
58925SOL    HW178607  12.870   2.692   7.140
58925SOL    HW278608  12.946   2.620   7.030
58926SOL     OW78609   1.225   4.416  13.604
58926SOL    HW178610   1.224   4.325  13.574
58926SOL    HW278611   1.317   4.438  13.612
58927SOL     OW78612   7.793  14.251  10.567
58927SOL    HW178613   7.764  14.211  10.485
58927SOL    HW278614   7.884  14.222  10.578
58928SOL     OW78615   5.811   6.789   2.067
58928SOL    HW178616   5.857   6.747   2.140
58928SOL    HW278617   5.851   6.752   1.988
58929SOL     OW78618   0.973   2.033   4.251
58929SOL    HW178619   1.016   2.118   4.243
58929SOL    HW278620   1.020   1.988   4.321
58930SOL     OW78621   1.215   3.682   4.112
58930SOL    HW178622   1.310   3.678   4.114
58930SOL    HW278623   1.188   3.652   4.199
58931SOL     OW78624   0.588   6.224   5.478
58931SOL    HW178625   0.547   6.181   5.402
58931SOL    HW278626   0.624   6.153   5.530
58932SOL     OW78627   9.223   7.925   6.418
58932SOL    HW178628   9.262   7.926   6.506
58932SOL    HW278629   9.134   7.958   6.432
58933SOL     OW78630  13.877   8.667   5.082
58933SOL    HW178631  13.965   8.642   5.054
58933SOL    HW278632  13.890   8.746   5.134
58934SOL     OW78633  12.823  10.923   1.456
58934SOL    HW178634  12.864  11.008   1.447
58934SOL    HW278635  12.870  10.867   1.395
58935SOL     OW78636   0.927   0.181   9.615
58935SOL    HW178637   0.837   0.153   9.601
58935SOL    HW278638   0.923   0.277   9.620
58936SOL     OW78639   9.749   5.890  14.837
58936SOL    HW178640   9.713   5.883  14.749
58936SOL    HW278641   9.842   5.871  14.828
58937SOL     OW78642   9.664   5.546   5.922
58937SOL    HW178643   9.652   5.544   6.016
58937SOL    HW278644   9.591   5.599   5.889
58938SOL     OW78645  13.643   0.123   3.668
58938SOL    HW178646  13.711   0.185   3.641
58938SOL    HW278647  13.563   0.155   3.625
58939SOL     OW78648  10.719  13.832   7.626
58939SOL    HW178649  10.682  13.912   7.589
58939SOL    HW278650  10.789  13.862   7.684
58940SOL     OW78651   8.127  12.688   4.604
58940SOL    HW178652   8.082  12.605   4.621
58940SOL    HW278653   8.207  12.663   4.557
58941SOL     OW78654  12.922   8.022   7.791
58941SOL    HW178655  12.968   8.039   7.709
58941SOL    HW278656  12.829   8.038   7.770
58942SOL     OW78657  12.040   4.518  11.144
58942SOL    HW178658  12.120   4.487  11.186
58942SOL    HW278659  11.979   4.533  11.216
58943SOL     OW78660   0.987   4.125  13.653
58943SOL    HW178661   0.984   4.051  13.593
58943SOL    HW278662   0.900   4.165  13.645
58944SOL     OW78663   7.399   7.627   7.832
58944SOL    HW178664   7.419   7.721   7.835
58944SOL    HW278665   7.318   7.618   7.882
58945SOL     OW78666  10.665   5.012   8.742
58945SOL    HW178667  10.668   5.049   8.830
58945SOL    HW278668  10.589   4.955   8.742
58946SOL     OW78669   7.432  12.587   6.275
58946SOL    HW178670   7.376  12.626   6.207
58946SOL    HW278671   7.371  12.565   6.346
58947SOL     OW78672  12.818  12.883   2.810
58947SOL    HW178673  12.763  12.815   2.848
58947SOL    HW278674  12.896  12.886   2.866
58948SOL     OW78675   1.508   8.114   0.529
58948SOL    HW178676   1.446   8.098   0.600
58948SOL    HW278677   1.477   8.195   0.487
58949SOL     OW78678   5.532   9.482   3.824
58949SOL    HW178679   5.445   9.466   3.787
58949SOL    HW278680   5.545   9.412   3.887
58950SOL     OW78681  12.703   4.487  12.306
58950SOL    HW178682  12.766   4.550  12.271
58950SOL    HW278683  12.681   4.431  12.231
58951SOL     OW78684   6.916  10.718  11.776
58951SOL    HW178685   6.991  10.696  11.722
58951SOL    HW278686   6.951  10.774  11.845
58952SOL     OW78687   5.857  13.392   7.769
58952SOL    HW178688   5.796  13.427   7.704
58952SOL    HW278689   5.801  13.366   7.842
58953SOL     OW78690   0.116   8.695   4.667
58953SOL    HW178691   0.042   8.755   4.678
58953SOL    HW278692   0.191   8.752   4.649
58954SOL     OW78693   7.915   0.752   2.802
58954SOL    HW178694   7.966   0.833   2.792
58954SOL    HW278695   7.890   0.752   2.895
58955SOL     OW78696  10.585   1.263   3.843
58955SOL    HW178697  10.604   1.175   3.811
58955SOL    HW278698  10.519   1.297   3.782
58956SOL     OW78699   6.016  10.082   7.638
58956SOL    HW178700   6.101  10.107   7.674
58956SOL    HW278701   5.969  10.045   7.713
58957SOL     OW78702  12.173  12.421  10.686
58957SOL    HW178703  12.144  12.493  10.742
58957SOL    HW278704  12.246  12.457  10.636
58958SOL     OW78705  14.218   9.715   2.630
58958SOL    HW178706  14.206   9.717   2.725
58958SOL    HW278707  14.312   9.697   2.619
58959SOL     OW78708   0.450   7.468   4.518
58959SOL    HW178709   0.364   7.502   4.495
58959SOL    HW278710   0.499   7.546   4.546
58960SOL     OW78711   5.858  12.896   9.863
58960SOL    HW178712   5.869  12.963   9.931
58960SOL    HW278713   5.943  12.894   9.819
58961SOL     OW78714  10.110  12.123  11.925
58961SOL    HW178715  10.131  12.077  11.843
58961SOL    HW278716  10.196  12.138  11.966
58962SOL     OW78717   9.818  11.125   3.051
58962SOL    HW178718   9.767  11.168   3.120
58962SOL    HW278719   9.908  11.153   3.067
58963SOL     OW78720   2.335  10.479  14.409
58963SOL    HW178721   2.290  10.537  14.470
58963SOL    HW278722   2.363  10.537  14.338
58964SOL     OW78723   2.300   7.851   0.542
58964SOL    HW178724   2.298   7.806   0.627
58964SOL    HW278725   2.365   7.801   0.491
58965SOL     OW78726  11.498   0.529   6.842
58965SOL    HW178727  11.539   0.520   6.756
58965SOL    HW278728  11.434   0.458   6.846
58966SOL     OW78729   8.225  12.859   3.128
58966SOL    HW178730   8.160  12.816   3.072
58966SOL    HW278731   8.182  12.938   3.160
58967SOL     OW78732  11.518   6.154  12.586
58967SOL    HW178733  11.488   6.106  12.662
58967SOL    HW278734  11.579   6.219  12.621
58968SOL     OW78735   7.563   1.641   2.110
58968SOL    HW178736   7.505   1.703   2.066
58968SOL    HW278737   7.610   1.694   2.174
58969SOL     OW78738   2.172  11.012  13.948
58969SOL    HW178739   2.194  11.010  14.041
58969SOL    HW278740   2.087  11.055  13.944
58970SOL     OW78741   7.235   5.750   7.225
58970SOL    HW178742   7.278   5.783   7.146
58970SOL    HW278743   7.230   5.826   7.283
58971SOL     OW78744   2.935   4.050   2.420
58971SOL    HW178745   2.994   3.985   2.458
58971SOL    HW278746   2.852   4.002   2.408
58972SOL     OW78747  13.447  13.291   6.188
58972SOL    HW178748  13.389  13.256   6.256
58972SOL    HW278749  13.448  13.386   6.203
58973SOL     OW78750   6.759   0.959   1.401
58973SOL    HW178751   6.711   1.027   1.448
58973SOL    HW278752   6.822   1.008   1.347
58974SOL     OW78753   2.953   7.471   6.502
58974SOL    HW178754   2.997   7.553   6.481
58974SOL    HW278755   2.903   7.491   6.582
58975SOL     OW78756   0.924  12.984   4.780
58975SOL    HW178757   0.869  13.034   4.841
58975SOL    HW278758   0.886  13.002   4.694
58976SOL     OW78759   9.279   3.527   3.797
58976SOL    HW178760   9.339   3.475   3.850
58976SOL    HW278761   9.325   3.610   3.784
58977SOL     OW78762   5.462   0.575   4.644
58977SOL    HW178763   5.403   0.521   4.696
58977SOL    HW278764   5.549   0.538   4.659
58978SOL     OW78765  12.433   3.244   7.813
58978SOL    HW178766  12.415   3.164   7.863
58978SOL    HW278767  12.347   3.272   7.781
58979SOL     OW78768  11.319   6.944   7.460
58979SOL    HW178769  11.257   6.873   7.476
58979SOL    HW278770  11.383   6.907   7.400
58980SOL     OW78771   3.813  11.370   5.448
58980SOL    HW178772   3.777  11.307   5.511
58980SOL    HW278773   3.760  11.448   5.460
58981SOL     OW78774   0.047   4.692  10.313
58981SOL    HW178775   0.133   4.675  10.351
58981SOL    HW278776   0.029   4.616  10.259
58982SOL     OW78777  13.868   5.529  10.265
58982SOL    HW178778  13.898   5.620  10.263
58982SOL    HW278779  13.946   5.478  10.244
58983SOL     OW78780  12.034   2.973  12.040
58983SOL    HW178781  12.049   3.058  12.082
58983SOL    HW278782  12.059   2.909  12.107
58984SOL     OW78783   9.731   0.355   8.670
58984SOL    HW178784   9.712   0.323   8.582
58984SOL    HW278785   9.821   0.386   8.666
58985SOL     OW78786   6.354  11.803  11.620
58985SOL    HW178787   6.287  11.869  11.635
58985SOL    HW278788   6.328  11.761  11.538
58986SOL     OW78789   9.656   5.574   6.191
58986SOL    HW178790   9.570   5.596   6.226
58986SOL    HW278791   9.687   5.502   6.247
58987SOL     OW78792   8.222  11.031  12.002
58987SOL    HW178793   8.171  11.023  11.922
58987SOL    HW278794   8.217  11.124  12.025
58988SOL     OW78795  11.378   9.996   5.952
58988SOL    HW178796  11.316   9.933   5.989
58988SOL    HW278797  11.461   9.977   5.996
58989SOL     OW78798   1.042   3.200  14.452
58989SOL    HW178799   1.111   3.226  14.391
58989SOL    HW278800   1.086   3.184  14.535
58990SOL     OW78801   3.309   8.937   5.850
58990SOL    HW178802   3.400   8.912   5.865
58990SOL    HW278803   3.275   8.871   5.791
58991SOL     OW78804   6.583   5.838   7.022
58991SOL    HW178805   6.665   5.801   7.053
58991SOL    HW278806   6.606   5.877   6.937
58992SOL     OW78807  14.193   8.603  13.947
58992SOL    HW178808  14.209   8.514  13.978
58992SOL    HW278809  14.137   8.642  14.014
58993SOL     OW78810   0.877   2.887  13.874
58993SOL    HW178811   0.867   2.808  13.821
58993SOL    HW278812   0.805   2.944  13.848
58994SOL     OW78813   4.470   6.315   6.225
58994SOL    HW178814   4.536   6.383   6.212
58994SOL    HW278815   4.513   6.252   6.284
58995SOL     OW78816   8.553   0.314   3.409
58995SOL    HW178817   8.531   0.407   3.397
58995SOL    HW278818   8.648   0.313   3.420
58996SOL     OW78819   0.700   8.692   1.726
58996SOL    HW178820   0.795   8.693   1.736
58996SOL    HW278821   0.674   8.784   1.726
58997SOL     OW78822  13.013  10.635  11.010
58997SOL    HW178823  12.968  10.651  11.093
58997SOL    HW278824  12.965  10.688  10.946
58998SOL     OW78825   2.579   5.747   7.576
58998SOL    HW178826   2.626   5.805   7.637
58998SOL    HW278827   2.622   5.760   7.492
58999SOL     OW78828  14.597   0.633   0.552
58999SOL    HW178829  14.613   0.727   0.546
58999SOL    HW278830  14.540   0.622   0.628
59000SOL     OW78831  13.583  12.164   9.002
59000SOL    HW178832  13.574  12.089   8.944
59000SOL    HW278833  13.614  12.127   9.085
59001SOL     OW78834   4.240   6.394   2.369
59001SOL    HW178835   4.327   6.416   2.335
59001SOL    HW278836   4.227   6.303   2.344
59002SOL     OW78837   0.159  10.320   4.567
59002SOL    HW178838   0.088  10.259   4.548
59002SOL    HW278839   0.171  10.316   4.662
59003SOL     OW78840   9.846   6.414   9.356
59003SOL    HW178841   9.865   6.443   9.267
59003SOL    HW278842   9.859   6.491   9.411
59004SOL     OW78843   9.964  14.665   6.006
59004SOL    HW178844  10.027  14.636   6.072
59004SOL    HW278845   9.901  14.717   6.055
59005SOL     OW78846  14.856   5.481   8.420
59005SOL    HW178847  14.807   5.472   8.502
59005SOL    HW278848   0.063   5.529   8.444
59006SOL     OW78849   8.408   3.508   5.280
59006SOL    HW178850   8.468   3.433   5.282
59006SOL    HW278851   8.436   3.563   5.353
59007SOL     OW78852  11.976   5.378   1.065
59007SOL    HW178853  11.936   5.465   1.071
59007SOL    HW278854  12.065   5.395   1.033
59008SOL     OW78855   9.172   8.972   7.432
59008SOL    HW178856   9.239   9.039   7.419
59008SOL    HW278857   9.114   9.009   7.499
59009SOL     OW78858   1.744  14.409   7.832
59009SOL    HW178859   1.747  14.504   7.829
59009SOL    HW278860   1.834  14.383   7.854
59010SOL     OW78861   7.295  12.698   9.690
59010SOL    HW178862   7.216  12.737   9.651
59010SOL    HW278863   7.354  12.686   9.616
59011SOL     OW78864   8.403  14.067   6.809
59011SOL    HW178865   8.484  14.015   6.813
59011SOL    HW278866   8.375  14.075   6.901
59012SOL     OW78867   1.048   0.549   7.214
59012SOL    HW178868   0.970   0.578   7.167
59012SOL    HW278869   1.019   0.475   7.267
59013SOL     OW78870   2.547   8.893  13.288
59013SOL    HW178871   2.557   8.851  13.373
59013SOL    HW278872   2.598   8.839  13.228
59014SOL     OW78873   0.777   7.722   3.205
59014SOL    HW178874   0.862   7.766   3.203
59014SOL    HW278875   0.748   7.730   3.296
59015SOL     OW78876  10.506   6.439   6.843
59015SOL    HW178877  10.595   6.443   6.809
59015SOL    HW278878  10.470   6.357   6.807
59016SOL     OW78879   8.620   4.774   0.600
59016SOL    HW178880   8.655   4.689   0.572
59016SOL    HW278881   8.696   4.833   0.599
59017SOL     OW78882   3.243   4.534  12.601
59017SOL    HW178883   3.194   4.462  12.642
59017SOL    HW278884   3.333   4.503  12.599
59018SOL     OW78885  11.985  13.766  13.749
59018SOL    HW178886  12.052  13.702  13.727
59018SOL    HW278887  11.904  13.716  13.753
59019SOL     OW78888   0.191  12.822  12.134
59019SOL    HW178889   0.129  12.761  12.092
59019SOL    HW278890   0.182  12.804  12.228
59020SOL     OW78891   7.155  14.450   6.594
59020SOL    HW178892   7.085  14.417   6.538
59020SOL    HW278893   7.149  14.546   6.585
59021SOL     OW78894  13.432   1.886   3.264
59021SOL    HW178895  13.447   1.797   3.234
59021SOL    HW278896  13.491   1.940   3.211
59022SOL     OW78897   9.612  11.692   1.392
59022SOL    HW178898   9.552  11.619   1.409
59022SOL    HW278899   9.634  11.683   1.299
59023SOL     OW78900   5.890   7.162   3.669
59023SOL    HW178901   5.964   7.121   3.623
59023SOL    HW278902   5.918   7.252   3.683
59024SOL     OW78903   3.162   4.819   6.692
59024SOL    HW178904   3.118   4.738   6.667
59024SOL    HW278905   3.136   4.882   6.625
59025SOL     OW78906   1.402  11.512   6.044
59025SOL    HW178907   1.331  11.461   6.083
59025SOL    HW278908   1.435  11.567   6.116
59026SOL     OW78909  13.196   8.157   1.631
59026SOL    HW178910  13.220   8.078   1.583
59026SOL    HW278911  13.171   8.126   1.718
59027SOL     OW78912  13.280  10.339  13.540
59027SOL    HW178913  13.190  10.347  13.509
59027SOL    HW278914  13.290  10.408  13.605
59028SOL     OW78915   6.351  13.584   7.452
59028SOL    HW178916   6.436  13.540   7.451
59028SOL    HW278917   6.358  13.649   7.381
59029SOL     OW78918   2.636   4.507   8.094
59029SOL    HW178919   2.653   4.575   8.159
59029SOL    HW278920   2.573   4.449   8.136
59030SOL     OW78921   8.059  14.474   5.042
59030SOL    HW178922   8.080  14.505   4.954
59030SOL    HW278923   8.008  14.545   5.081
59031SOL     OW78924  10.491  11.079   3.021
59031SOL    HW178925  10.516  11.042   3.106
59031SOL    HW278926  10.402  11.112   3.035
59032SOL     OW78927   3.147   1.810   4.204
59032SOL    HW178928   3.206   1.778   4.271
59032SOL    HW278929   3.082   1.862   4.252
59033SOL     OW78930   5.266   5.374   3.841
59033SOL    HW178931   5.272   5.281   3.861
59033SOL    HW278932   5.330   5.389   3.772
59034SOL     OW78933   3.090   7.976   9.358
59034SOL    HW178934   3.092   8.063   9.397
59034SOL    HW278935   3.170   7.971   9.306
59035SOL     OW78936   9.640   7.636   2.083
59035SOL    HW178937   9.648   7.716   2.136
59035SOL    HW278938   9.730   7.615   2.057
59036SOL     OW78939   4.830   7.379   9.410
59036SOL    HW178940   4.840   7.317   9.483
59036SOL    HW278941   4.736   7.385   9.396
59037SOL     OW78942  12.802  14.402   3.881
59037SOL    HW178943  12.855  14.324   3.864
59037SOL    HW278944  12.821  14.460   3.807
59038SOL     OW78945   2.145   2.297  14.815
59038SOL    HW178946   2.135   2.251   0.026
59038SOL    HW278947   2.096   2.379  14.828
59039SOL     OW78948   0.604  13.170   1.963
59039SOL    HW178949   0.537  13.102   1.967
59039SOL    HW278950   0.679  13.127   1.922
59040SOL     OW78951   8.429  14.106  14.333
59040SOL    HW178952   8.510  14.065  14.302
59040SOL    HW278953   8.432  14.195  14.296
59041SOL     OW78954   5.689   6.917   8.215
59041SOL    HW178955   5.768   6.940   8.165
59041SOL    HW278956   5.622   6.976   8.182
59042SOL     OW78957   6.686  12.370   2.752
59042SOL    HW178958   6.602  12.325   2.754
59042SOL    HW278959   6.683  12.424   2.673
59043SOL     OW78960  12.661   8.426  12.336
59043SOL    HW178961  12.731   8.424  12.271
59043SOL    HW278962  12.651   8.334  12.363
59044SOL     OW78963  13.666   5.130  12.394
59044SOL    HW178964  13.698   5.088  12.314
59044SOL    HW278965  13.675   5.224  12.377
59045SOL     OW78966   7.890   3.080  13.706
59045SOL    HW178967   7.937   3.081  13.790
59045SOL    HW278968   7.882   2.987  13.685
59046SOL     OW78969   3.419   2.176  14.731
59046SOL    HW178970   3.410   2.162  14.636
59046SOL    HW278971   3.369   2.257  14.747
59047SOL     OW78972   5.784  10.399  14.214
59047SOL    HW178973   5.821  10.424  14.129
59047SOL    HW278974   5.833  10.451  14.278
59048SOL     OW78975   9.685   4.706  12.602
59048SOL    HW178976   9.719   4.642  12.664
59048SOL    HW278977   9.662   4.654  12.524
59049SOL     OW78978   3.529   2.482   7.875
59049SOL    HW178979   3.589   2.422   7.920
59049SOL    HW278980   3.452   2.485   7.932
59050SOL     OW78981   5.023   4.240   2.543
59050SOL    HW178982   4.946   4.218   2.491
59050SOL    HW278983   5.024   4.175   2.613
59051SOL     OW78984  11.380   8.835   8.860
59051SOL    HW178985  11.343   8.832   8.948
59051SOL    HW278986  11.433   8.916   8.859
59052SOL     OW78987   4.937   3.547   5.729
59052SOL    HW178988   5.022   3.503   5.730
59052SOL    HW278989   4.884   3.497   5.667
59053SOL     OW78990  10.479  12.035   5.113
59053SOL    HW178991  10.388  12.012   5.131
59053SOL    HW278992  10.501  12.101   5.179
59054SOL     OW78993   9.533  12.259   5.483
59054SOL    HW178994   9.529  12.198   5.557
59054SOL    HW278995   9.575  12.209   5.413
59055SOL     OW78996   2.348   0.328   5.612
59055SOL    HW178997   2.310   0.411   5.640
59055SOL    HW278998   2.407   0.304   5.683
59056SOL     OW78999   4.514   4.371   8.771
59056SOL    HW179000   4.548   4.450   8.814
59056SOL    HW279001   4.427   4.396   8.742
59057SOL     OW79002   0.961   5.935   4.992
59057SOL    HW179003   0.879   5.901   4.955
59057SOL    HW279004   1.012   5.858   5.013
59058SOL     OW79005  12.758   6.806  14.829
59058SOL    HW179006  12.666   6.811  14.804
59058SOL    HW279007  12.797   6.745  14.766
59059SOL     OW79008  14.524   0.084   7.262
59059SOL    HW179009  14.475   0.120   7.188
59059SOL    HW279010  14.457   0.040   7.315
59060SOL     OW79011  10.326   1.062   4.479
59060SOL    HW179012  10.268   1.057   4.402
59060SOL    HW279013  10.411   1.086   4.443
59061SOL     OW79014   2.597   7.909   6.286
59061SOL    HW179015   2.595   7.835   6.347
59061SOL    HW279016   2.618   7.869   6.201
59062SOL     OW79017   3.956   6.074  14.798
59062SOL    HW179018   3.936   6.143  14.861
59062SOL    HW279019   3.874   6.025  14.789
59063SOL     OW79020  14.315   4.300   2.768
59063SOL    HW179021  14.380   4.231   2.756
59063SOL    HW279022  14.282   4.288   2.857
59064SOL     OW79023   6.238   6.104  13.688
59064SOL    HW179024   6.251   6.079  13.780
59064SOL    HW279025   6.145   6.089  13.672
59065SOL     OW79026   1.174  12.542  13.015
59065SOL    HW179027   1.199  12.475  13.078
59065SOL    HW279028   1.140  12.494  12.939
59066SOL     OW79029  14.667   4.131   7.248
59066SOL    HW179030  14.605   4.082   7.194
59066SOL    HW279031  14.716   4.064   7.296
59067SOL     OW79032   1.152  12.636   0.602
59067SOL    HW179033   1.228  12.668   0.650
59067SOL    HW279034   1.078  12.682   0.640
59068SOL     OW79035  12.243   7.012   7.876
59068SOL    HW179036  12.238   7.046   7.965
59068SOL    HW279037  12.181   6.939   7.875
59069SOL     OW79038  14.634   0.978   3.663
59069SOL    HW179039  14.627   1.052   3.724
59069SOL    HW279040  14.728   0.974   3.643
59070SOL     OW79041   5.673   8.488  12.552
59070SOL    HW179042   5.721   8.539  12.618
59070SOL    HW279043   5.606   8.548  12.520
59071SOL     OW79044  12.255   3.192   1.275
59071SOL    HW179045  12.305   3.114   1.301
59071SOL    HW279046  12.190   3.159   1.213
59072SOL     OW79047  11.547   9.750  10.594
59072SOL    HW179048  11.640   9.773  10.587
59072SOL    HW279049  11.514   9.760  10.504
59073SOL     OW79050  10.414   7.069   7.777
59073SOL    HW179051  10.486   7.072   7.840
59073SOL    HW279052  10.443   7.122   7.704
59074SOL     OW79053   5.540   2.393   4.350
59074SOL    HW179054   5.591   2.450   4.292
59074SOL    HW279055   5.558   2.305   4.318
59075SOL     OW79056   3.029   6.774   6.351
59075SOL    HW179057   3.080   6.830   6.409
59075SOL    HW279058   2.940   6.778   6.385
59076SOL     OW79059  14.059   8.987  14.754
59076SOL    HW179060  14.148   8.985  14.719
59076SOL    HW279061  14.014   9.054  14.703
59077SOL     OW79062   5.674   3.431   8.564
59077SOL    HW179063   5.674   3.525   8.582
59077SOL    HW279064   5.694   3.391   8.649
59078SOL     OW79065   4.023  11.233  13.874
59078SOL    HW179066   4.038  11.323  13.904
59078SOL    HW279067   3.956  11.199  13.933
59079SOL     OW79068   1.666  11.451   3.367
59079SOL    HW179069   1.719  11.395   3.423
59079SOL    HW279070   1.700  11.436   3.279
59080SOL     OW79071   9.618  13.660  11.781
59080SOL    HW179072   9.550  13.617  11.730
59080SOL    HW279073   9.684  13.686  11.717
59081SOL     OW79074  10.338   3.371  14.815
59081SOL    HW179075  10.390   3.433  14.866
59081SOL    HW279076  10.257   3.418  14.796
59082SOL     OW79077  11.252   7.722   0.879
59082SOL    HW179078  11.314   7.749   0.811
59082SOL    HW279079  11.286   7.638   0.909
59083SOL     OW79080  11.697   2.913  11.532
59083SOL    HW179081  11.743   2.911  11.616
59083SOL    HW279082  11.609   2.881  11.553
59084SOL     OW79083   3.325   2.230   4.224
59084SOL    HW179084   3.306   2.195   4.311
59084SOL    HW279085   3.332   2.153   4.168
59085SOL     OW79086  11.494  13.179  11.153
59085SOL    HW179087  11.406  13.210  11.176
59085SOL    HW279088  11.553  13.233  11.206
59086SOL     OW79089   8.731   0.471   7.875
59086SOL    HW179090   8.775   0.445   7.794
59086SOL    HW279091   8.651   0.515   7.846
59087SOL     OW79092  14.674   6.368  13.557
59087SOL    HW179093  14.639   6.454  13.579
59087SOL    HW279094  14.626   6.308  13.615
59088SOL     OW79095   8.904   7.731  14.297
59088SOL    HW179096   8.990   7.769  14.316
59088SOL    HW279097   8.889   7.752  14.205
59089SOL     OW79098   2.904   3.200   1.549
59089SOL    HW179099   2.926   3.249   1.469
59089SOL    HW279100   2.865   3.266   1.607
59090SOL     OW79101  14.187   8.758   6.744
59090SOL    HW179102  14.255   8.692   6.732
59090SOL    HW279103  14.137   8.728   6.820
59091SOL     OW79104   0.831   8.854   6.301
59091SOL    HW179105   0.892   8.818   6.237
59091SOL    HW279106   0.816   8.944   6.272
59092SOL     OW79107  11.851   0.143  13.045
59092SOL    HW179108  11.916   0.142  12.975
59092SOL    HW279109  11.770   0.169  13.002
59093SOL     OW79110  10.196  10.248  11.731
59093SOL    HW179111  10.226  10.198  11.806
59093SOL    HW279112  10.113  10.287  11.759
59094SOL     OW79113   0.043  10.612  11.915
59094SOL    HW179114   0.138  10.602  11.919
59094SOL    HW279115   0.008  10.523  11.926
59095SOL     OW79116  14.192   6.847  12.963
59095SOL    HW179117  14.271   6.897  12.985
59095SOL    HW279118  14.191   6.776  13.028
59096SOL     OW79119   9.649   7.765  10.283
59096SOL    HW179120   9.744   7.758  10.288
59096SOL    HW279121   9.622   7.695  10.224
59097SOL     OW79122  12.570  12.999  11.117
59097SOL    HW179123  12.573  13.043  11.201
59097SOL    HW279124  12.506  13.049  11.066
59098SOL     OW79125   4.620   5.524   4.186
59098SOL    HW179126   4.655   5.607   4.217
59098SOL    HW279127   4.679   5.458   4.223
59099SOL     OW79128   5.685  12.924   4.861
59099SOL    HW179129   5.716  13.013   4.845
59099SOL    HW279130   5.591  12.932   4.876
59100SOL     OW79131  13.800  14.222   6.835
59100SOL    HW179132  13.734  14.242   6.902
59100SOL    HW279133  13.863  14.166   6.880
59101SOL     OW79134  13.794   9.717  12.856
59101SOL    HW179135  13.803   9.677  12.942
59101SOL    HW279136  13.766   9.646  12.799
59102SOL     OW79137   8.709   4.882  12.803
59102SOL    HW179138   8.647   4.951  12.826
59102SOL    HW279139   8.660   4.824  12.745
59103SOL     OW79140   2.358   4.396   5.080
59103SOL    HW179141   2.289   4.339   5.115
59103SOL    HW279142   2.416   4.411   5.155
59104SOL     OW79143   9.841   1.582  14.847
59104SOL    HW179144   9.807   1.555   0.059
59104SOL    HW279145   9.873   1.502  14.806
59105SOL     OW79146   4.933  14.677   0.059
59105SOL    HW179147   4.987  14.620   0.006
59105SOL    HW279148   4.990  14.750   0.083
59106SOL     OW79149   7.998  14.627  14.088
59106SOL    HW179150   8.090  14.620  14.111
59106SOL    HW279151   7.972  14.539  14.063
59107SOL     OW79152  12.265   4.230   0.717
59107SOL    HW179153  12.244   4.142   0.750
59107SOL    HW279154  12.202   4.287   0.761
59108SOL     OW79155   9.120   4.641   9.489
59108SOL    HW179156   9.129   4.655   9.584
59108SOL    HW279157   9.026   4.642   9.473
59109SOL     OW79158   5.700   9.154   9.421
59109SOL    HW179159   5.635   9.103   9.470
59109SOL    HW279160   5.759   9.188   9.488
59110SOL     OW79161   8.281   3.913   7.841
59110SOL    HW179162   8.226   3.880   7.913
59110SOL    HW279163   8.370   3.891   7.867
59111SOL     OW79164  12.694  12.497   8.170
59111SOL    HW179165  12.662  12.408   8.155
59111SOL    HW279166  12.750  12.516   8.095
59112SOL     OW79167  13.634  10.237  11.343
59112SOL    HW179168  13.721  10.225  11.381
59112SOL    HW279169  13.609  10.150  11.313
59113SOL     OW79170   2.390   8.070  14.161
59113SOL    HW179171   2.378   8.122  14.081
59113SOL    HW279172   2.335   7.992  14.146
59114SOL     OW79173  11.417   0.731  14.684
59114SOL    HW179174  11.461   0.646  14.697
59114SOL    HW279175  11.487   0.795  14.694
59115SOL     OW79176   2.989  10.855   5.141
59115SOL    HW179177   3.022  10.769   5.115
59115SOL    HW279178   2.900  10.858   5.107
59116SOL     OW79179  12.304   7.974   8.535
59116SOL    HW179180  12.363   8.035   8.579
59116SOL    HW279181  12.318   7.991   8.442
59117SOL     OW79182   8.374  11.596  10.331
59117SOL    HW179183   8.359  11.690  10.318
59117SOL    HW279184   8.296  11.564  10.376
59118SOL     OW79185  13.862   7.263  11.025
59118SOL    HW179186  13.870   7.357  11.035
59118SOL    HW279187  13.941   7.237  10.977
59119SOL     OW79188   6.563   0.324  12.430
59119SOL    HW179189   6.579   0.353  12.520
59119SOL    HW279190   6.628   0.372  12.378
59120SOL     OW79191   8.487   4.150  11.208
59120SOL    HW179192   8.529   4.218  11.155
59120SOL    HW279193   8.557   4.087  11.226
59121SOL     OW79194   8.674  14.275   0.001
59121SOL    HW179195   8.648  14.211   0.068
59121SOL    HW279196   8.754  14.238  14.835
59122SOL     OW79197   0.839   9.615  13.098
59122SOL    HW179198   0.807   9.625  13.008
59122SOL    HW279199   0.933   9.599  13.088
59123SOL     OW79200  11.761   3.947   0.581
59123SOL    HW179201  11.767   3.999   0.501
59123SOL    HW279202  11.789   4.006   0.651
59124SOL     OW79203   9.129   7.831   9.616
59124SOL    HW179204   9.135   7.739   9.591
59124SOL    HW279205   9.198   7.844   9.681
59125SOL     OW79206  13.713   7.197   6.525
59125SOL    HW179207  13.699   7.126   6.462
59125SOL    HW279208  13.652   7.266   6.498
59126SOL     OW79209  14.482   6.312   8.776
59126SOL    HW179210  14.429   6.302   8.855
59126SOL    HW279211  14.442   6.252   8.713
59127SOL     OW79212   1.071  12.171  14.013
59127SOL    HW179213   1.148  12.157  13.958
59127SOL    HW279214   1.046  12.084  14.042
59128SOL     OW79215   0.807   0.602   7.824
59128SOL    HW179216   0.723   0.567   7.794
59128SOL    HW279217   0.850   0.632   7.744
59129SOL     OW79218   6.014  13.790  10.978
59129SOL    HW179219   5.926  13.767  10.949
59129SOL    HW279220   6.011  13.885  10.990
59130SOL     OW79221   4.563   7.370   9.385
59130SOL    HW179222   4.548   7.458   9.350
59130SOL    HW279223   4.521   7.371   9.471
59131SOL     OW79224   3.757  13.389   7.874
59131SOL    HW179225   3.710  13.468   7.849
59131SOL    HW279226   3.726  13.370   7.963
59132SOL     OW79227   5.783   6.179  11.404
59132SOL    HW179228   5.769   6.263  11.449
59132SOL    HW279229   5.728   6.117  11.451
59133SOL     OW79230   4.498   3.080  11.674
59133SOL    HW179231   4.578   3.039  11.641
59133SOL    HW279232   4.503   3.067  11.769
59134SOL     OW79233   5.402   6.532   5.451
59134SOL    HW179234   5.425   6.568   5.365
59134SOL    HW279235   5.380   6.441   5.433
59135SOL     OW79236  10.927   3.283  11.080
59135SOL    HW179237  10.905   3.215  11.144
59135SOL    HW279238  11.003   3.327  11.118
59136SOL     OW79239   6.972   3.370   0.847
59136SOL    HW179240   6.950   3.456   0.884
59136SOL    HW279241   6.909   3.311   0.888
59137SOL     OW79242   4.344   7.738  12.508
59137SOL    HW179243   4.326   7.647  12.532
59137SOL    HW279244   4.312   7.746  12.418
59138SOL     OW79245   0.440   0.964   7.442
59138SOL    HW179246   0.371   1.024   7.414
59138SOL    HW279247   0.457   0.908   7.366
59139SOL     OW79248   7.359   6.995  10.320
59139SOL    HW179249   7.356   7.047  10.239
59139SOL    HW279250   7.276   7.014  10.364
59140SOL     OW79251  11.999   8.190  10.498
59140SOL    HW179252  11.981   8.270  10.450
59140SOL    HW279253  12.093   8.196  10.519
59141SOL     OW79254   4.897   6.142  11.083
59141SOL    HW179255   4.878   6.126  11.175
59141SOL    HW279256   4.812   6.148  11.041
59142SOL     OW79257  11.165  13.260   6.984
59142SOL    HW179258  11.147  13.236   7.074
59142SOL    HW279259  11.099  13.326   6.962
59143SOL     OW79260   6.575  11.096   3.116
59143SOL    HW179261   6.635  11.154   3.068
59143SOL    HW279262   6.632  11.035   3.162
59144SOL     OW79263   7.961   6.796   4.302
59144SOL    HW179264   7.989   6.864   4.362
59144SOL    HW279265   7.880   6.762   4.341
59145SOL     OW79266   3.950  10.432  13.989
59145SOL    HW179267   3.859  10.410  13.969
59145SOL    HW279268   3.956  10.526  13.971
59146SOL     OW79269   2.602  11.281   9.634
59146SOL    HW179270   2.579  11.334   9.710
59146SOL    HW279271   2.658  11.212   9.669
59147SOL     OW79272   9.888  12.767   1.590
59147SOL    HW179273   9.965  12.801   1.544
59147SOL    HW279274   9.920  12.689   1.636
59148SOL     OW79275   3.436  11.743   6.083
59148SOL    HW179276   3.462  11.811   6.145
59148SOL    HW279277   3.515  11.689   6.073
59149SOL     OW79278   0.606  10.516  14.708
59149SOL    HW179279   0.668  10.490  14.776
59149SOL    HW279280   0.632  10.604  14.684
59150SOL     OW79281   8.655   8.484   9.354
59150SOL    HW179282   8.700   8.475   9.438
59150SOL    HW279283   8.634   8.577   9.348
59151SOL     OW79284  12.965   6.766  12.085
59151SOL    HW179285  13.016   6.699  12.040
59151SOL    HW279286  13.003   6.849  12.056
59152SOL     OW79287   0.638  14.190  14.763
59152SOL    HW179288   0.648  14.109  14.712
59152SOL    HW279289   0.684  14.256  14.711
59153SOL     OW79290   5.612   2.055  10.058
59153SOL    HW179291   5.668   2.100  10.121
59153SOL    HW279292   5.671   1.998  10.009
59154SOL     OW79293   1.644   8.226   8.020
59154SOL    HW179294   1.693   8.163   8.074
59154SOL    HW279295   1.697   8.306   8.023
59155SOL     OW79296  11.757   9.301   3.361
59155SOL    HW179297  11.847   9.326   3.342
59155SOL    HW279298  11.713   9.303   3.276
59156SOL     OW79299   1.412   0.741  14.636
59156SOL    HW179300   1.402   0.653  14.600
59156SOL    HW279301   1.477   0.783  14.579
59157SOL     OW79302   7.588   2.443   0.437
59157SOL    HW179303   7.610   2.528   0.476
59157SOL    HW279304   7.513   2.412   0.488
59158SOL     OW79305   3.086  13.496   0.671
59158SOL    HW179306   3.128  13.577   0.643
59158SOL    HW279307   3.047  13.460   0.591
59159SOL     OW79308   9.811  11.326   3.849
59159SOL    HW179309   9.895  11.290   3.821
59159SOL    HW279310   9.807  11.413   3.810
59160SOL     OW79311   7.522   4.629   8.266
59160SOL    HW179312   7.566   4.553   8.304
59160SOL    HW279313   7.565   4.642   8.182
59161SOL     OW79314   5.805  14.750   5.420
59161SOL    HW179315   5.855  14.822   5.381
59161SOL    HW279316   5.805  14.768   5.514
59162SOL     OW79317   5.280   0.724   6.377
59162SOL    HW179318   5.227   0.670   6.319
59162SOL    HW279319   5.363   0.735   6.329
59163SOL     OW79320   8.973   1.778   4.366
59163SOL    HW179321   8.921   1.858   4.357
59163SOL    HW279322   9.012   1.766   4.279
59164SOL     OW79323   1.550   7.520  14.353
59164SOL    HW179324   1.501   7.598  14.328
59164SOL    HW279325   1.592   7.490  14.272
59165SOL     OW79326   5.266  10.207  11.067
59165SOL    HW179327   5.226  10.191  10.981
59165SOL    HW279328   5.359  10.190  11.053
59166SOL     OW79329   5.012   5.168   0.748
59166SOL    HW179330   5.084   5.174   0.811
59166SOL    HW279331   4.960   5.093   0.777
59167SOL     OW79332  11.646  12.908   8.455
59167SOL    HW179333  11.733  12.919   8.492
59167SOL    HW279334  11.620  12.996   8.427
59168SOL     OW79335   5.171   4.011   2.394
59168SOL    HW179336   5.245   3.953   2.412
59168SOL    HW279337   5.179   4.081   2.459
59169SOL     OW79338   2.216   3.151   2.352
59169SOL    HW179339   2.203   3.106   2.436
59169SOL    HW279340   2.183   3.089   2.287
59170SOL     OW79341   5.699   2.030  12.087
59170SOL    HW179342   5.724   1.975  12.013
59170SOL    HW279343   5.628   2.085  12.052
59171SOL     OW79344   2.308   5.177   8.204
59171SOL    HW179345   2.249   5.169   8.279
59171SOL    HW279346   2.395   5.188   8.242
59172SOL     OW79347   9.503   0.955   7.047
59172SOL    HW179348   9.421   0.953   7.095
59172SOL    HW279349   9.514   1.046   7.020
59173SOL     OW79350   7.274   0.909   3.353
59173SOL    HW179351   7.342   0.953   3.303
59173SOL    HW279352   7.280   0.817   3.325
59174SOL     OW79353  13.166   2.497  13.503
59174SOL    HW179354  13.171   2.411  13.544
59174SOL    HW279355  13.145   2.557  13.574
59175SOL     OW79356   3.801   1.600   1.806
59175SOL    HW179357   3.881   1.564   1.843
59175SOL    HW279358   3.796   1.563   1.717
59176SOL     OW79359   3.957  10.925   2.931
59176SOL    HW179360   3.998  10.971   3.004
59176SOL    HW279361   3.907  10.854   2.972
59177SOL     OW79362   9.799   1.804  12.000
59177SOL    HW179363   9.790   1.734  12.065
59177SOL    HW279364   9.709   1.825  11.975
59178SOL     OW79365   3.638   6.484   0.711
59178SOL    HW179366   3.573   6.554   0.714
59178SOL    HW279367   3.713   6.518   0.760
59179SOL     OW79368   9.134   9.870  10.418
59179SOL    HW179369   9.073   9.804  10.453
59179SOL    HW279370   9.086   9.953  10.425
59180SOL     OW79371   1.109   1.110  12.288
59180SOL    HW179372   1.153   1.045  12.233
59180SOL    HW279373   1.016   1.089  12.281
59181SOL     OW79374  11.986  10.562  12.597
59181SOL    HW179375  12.010  10.612  12.519
59181SOL    HW279376  12.068  10.522  12.625
59182SOL     OW79377   9.638   8.781  13.275
59182SOL    HW179378   9.650   8.779  13.180
59182SOL    HW279379   9.630   8.874  13.296
59183SOL     OW79380   0.863  14.116   3.883
59183SOL    HW179381   0.957  14.137   3.878
59183SOL    HW279382   0.822  14.199   3.910
59184SOL     OW79383  13.581   0.011   6.848
59184SOL    HW179384  13.663  14.850   6.884
59184SOL    HW279385  13.516  14.815   6.868
59185SOL     OW79386   3.053   7.853   4.550
59185SOL    HW179387   3.097   7.816   4.473
59185SOL    HW279388   2.963   7.821   4.545
59186SOL     OW79389   4.885   2.364   8.818
59186SOL    HW179390   4.795   2.396   8.824
59186SOL    HW279391   4.878   2.270   8.839
59187SOL     OW79392   0.320  10.115   2.025
59187SOL    HW179393   0.400  10.065   2.041
59187SOL    HW279394   0.265  10.058   1.971
59188SOL     OW79395   3.435   7.852  13.362
59188SOL    HW179396   3.367   7.916  13.340
59188SOL    HW279397   3.514   7.885  13.318
59189SOL     OW79398  11.293  12.338   3.152
59189SOL    HW179399  11.335  12.270   3.100
59189SOL    HW279400  11.333  12.419   3.123
59190SOL     OW79401  10.630   0.736  14.229
59190SOL    HW179402  10.651   0.796  14.158
59190SOL    HW279403  10.538   0.754  14.250
59191SOL     OW79404   2.741  13.294   5.409
59191SOL    HW179405   2.757  13.273   5.501
59191SOL    HW279406   2.760  13.388   5.402
59192SOL     OW79407  11.789   9.364  13.398
59192SOL    HW179408  11.754   9.453  13.405
59192SOL    HW279409  11.857   9.371  13.331
59193SOL     OW79410   5.401   5.973  11.011
59193SOL    HW179411   5.375   6.060  10.983
59193SOL    HW279412   5.486   5.985  11.053
59194SOL     OW79413   1.312   8.068   6.277
59194SOL    HW179414   1.230   8.019   6.271
59194SOL    HW279415   1.358   8.047   6.195
59195SOL     OW79416   8.929  14.482   6.397
59195SOL    HW179417   8.879  14.406   6.366
59195SOL    HW279418   9.016  14.471   6.359
59196SOL     OW79419   7.311  13.640   3.733
59196SOL    HW179420   7.253  13.713   3.713
59196SOL    HW279421   7.334  13.653   3.826
59197SOL     OW79422   8.744  12.999   8.552
59197SOL    HW179423   8.685  12.925   8.560
59197SOL    HW279424   8.713  13.046   8.474
59198SOL     OW79425   8.822  11.574   2.786
59198SOL    HW179426   8.787  11.491   2.754
59198SOL    HW279427   8.866  11.552   2.868
59199SOL     OW79428   1.386   8.824  11.376
59199SOL    HW179429   1.399   8.738  11.415
59199SOL    HW279430   1.444   8.825  11.300
59200SOL     OW79431   1.414   5.612   3.349
59200SOL    HW179432   1.351   5.668   3.302
59200SOL    HW279433   1.364   5.578   3.423
59201SOL     OW79434   8.807  10.919   3.007
59201SOL    HW179435   8.883  10.940   3.062
59201SOL    HW279436   8.732  10.956   3.054
59202SOL     OW79437  10.908   5.035   4.495
59202SOL    HW179438  10.953   4.978   4.432
59202SOL    HW279439  10.965   5.111   4.504
59203SOL     OW79440  12.376  11.380   4.771
59203SOL    HW179441  12.330  11.395   4.854
59203SOL    HW279442  12.308  11.346   4.712
59204SOL     OW79443  11.581   9.362   1.044
59204SOL    HW179444  11.648   9.324   0.987
59204SOL    HW279445  11.503   9.370   0.988
59205SOL     OW79446   9.911   3.742   7.551
59205SOL    HW179447   9.997   3.782   7.537
59205SOL    HW279448   9.898   3.687   7.474
59206SOL     OW79449   2.300   6.909  13.591
59206SOL    HW179450   2.315   6.847  13.662
59206SOL    HW279451   2.317   6.859  13.511
59207SOL     OW79452   2.445   7.851  11.157
59207SOL    HW179453   2.394   7.792  11.101
59207SOL    HW279454   2.493   7.906  11.095
59208SOL     OW79455   9.539  10.406  12.805
59208SOL    HW179456   9.455  10.372  12.836
59208SOL    HW279457   9.604  10.344  12.839
59209SOL     OW79458   7.322   2.258   9.053
59209SOL    HW179459   7.405   2.299   9.029
59209SOL    HW279460   7.326   2.171   9.014
59210SOL     OW79461  10.841   6.549  11.345
59210SOL    HW179462  10.782   6.515  11.277
59210SOL    HW279463  10.929   6.540  11.307
59211SOL     OW79464   8.994   8.907  12.480
59211SOL    HW179465   8.972   8.982  12.424
59211SOL    HW279466   8.919   8.849  12.473
59212SOL     OW79467   3.944  11.828  13.327
59212SOL    HW179468   4.004  11.859  13.395
59212SOL    HW279469   3.872  11.891  13.328
59213SOL     OW79470   6.242   9.786   3.662
59213SOL    HW179471   6.328   9.805   3.625
59213SOL    HW279472   6.180   9.828   3.603
59214SOL     OW79473   3.170  10.648   0.095
59214SOL    HW179474   3.213  10.729   0.122
59214SOL    HW279475   3.087  10.676   0.057
59215SOL     OW79476   6.537   1.562   2.897
59215SOL    HW179477   6.480   1.544   2.823
59215SOL    HW279478   6.513   1.649   2.926
59216SOL     OW79479   4.049   7.669  10.373
59216SOL    HW179480   3.959   7.639  10.381
59216SOL    HW279481   4.074   7.649  10.283
59217SOL     OW79482   6.452   2.029   4.454
59217SOL    HW179483   6.527   1.986   4.414
59217SOL    HW279484   6.400   1.958   4.491
59218SOL     OW79485  13.930  12.369   3.484
59218SOL    HW179486  13.897  12.451   3.448
59218SOL    HW279487  13.879  12.301   3.440
59219SOL     OW79488   2.032  10.200   4.800
59219SOL    HW179489   1.950  10.181   4.754
59219SOL    HW279490   2.007  10.266   4.865
59220SOL     OW79491  10.781  13.358   6.387
59220SOL    HW179492  10.864  13.330   6.424
59220SOL    HW279493  10.715  13.322   6.446
59221SOL     OW79494   0.848  13.203  10.895
59221SOL    HW179495   0.870  13.254  10.817
59221SOL    HW279496   0.895  13.120  10.883
59222SOL     OW79497  10.049  10.157  12.761
59222SOL    HW179498  10.061  10.118  12.848
59222SOL    HW279499  10.120  10.220  12.752
59223SOL     OW79500   5.187  11.640   0.897
59223SOL    HW179501   5.251  11.711   0.903
59223SOL    HW279502   5.174  11.611   0.988
59224SOL     OW79503   3.776  12.914  14.867
59224SOL    HW179504   3.790  13.009  14.863
59224SOL    HW279505   3.836  12.878  14.802
59225SOL     OW79506   6.164   3.638  12.075
59225SOL    HW179507   6.083   3.597  12.104
59225SOL    HW279508   6.186   3.592  11.993
59226SOL     OW79509  11.987   9.336  10.768
59226SOL    HW179510  12.021   9.400  10.831
59226SOL    HW279511  12.048   9.262  10.775
59227SOL     OW79512  10.557   6.652   2.709
59227SOL    HW179513  10.541   6.672   2.617
59227SOL    HW279514  10.481   6.686   2.755
59228SOL     OW79515   1.094   4.135   1.966
59228SOL    HW179516   1.018   4.076   1.968
59228SOL    HW279517   1.110   4.155   2.058
59229SOL     OW79518   0.808   7.103  12.838
59229SOL    HW179519   0.775   7.129  12.753
59229SOL    HW279520   0.862   7.176  12.866
59230SOL     OW79521   0.914  10.410   4.188
59230SOL    HW179522   0.831  10.374   4.155
59230SOL    HW279523   0.978  10.340   4.174
59231SOL     OW79524   9.470   5.302   5.885
59231SOL    HW179525   9.388   5.280   5.928
59231SOL    HW279526   9.445   5.326   5.795
59232SOL     OW79527   5.172   1.480   3.964
59232SOL    HW179528   5.184   1.530   4.046
59232SOL    HW279529   5.234   1.520   3.903
59233SOL     OW79530   3.211  11.692   2.934
59233SOL    HW179531   3.122  11.707   2.967
59233SOL    HW279532   3.226  11.599   2.948
59234SOL     OW79533  11.909   0.200   9.484
59234SOL    HW179534  11.893   0.109   9.459
59234SOL    HW279535  11.867   0.251   9.415
59235SOL     OW79536   1.403   9.918   7.136
59235SOL    HW179537   1.440   9.963   7.213
59235SOL    HW279538   1.466   9.936   7.066
59236SOL     OW79539   3.729   8.704   0.631
59236SOL    HW179540   3.787   8.737   0.700
59236SOL    HW279541   3.687   8.782   0.595
59237SOL     OW79542   3.307   5.607   4.559
59237SOL    HW179543   3.351   5.633   4.479
59237SOL    HW279544   3.221   5.575   4.530
59238SOL     OW79545   8.245   2.654   8.877
59238SOL    HW179546   8.210   2.742   8.889
59238SOL    HW279547   8.211   2.604   8.952
59239SOL     OW79548   6.905   0.156   0.211
59239SOL    HW179549   6.871   0.232   0.256
59239SOL    HW279550   6.901   0.179   0.118
59240SOL     OW79551   6.302  11.282  13.229
59240SOL    HW179552   6.361  11.329  13.169
59240SOL    HW279553   6.216  11.289  13.188
59241SOL     OW79554  10.569  11.418  14.098
59241SOL    HW179555  10.485  11.461  14.114
59241SOL    HW279556  10.547  11.343  14.042
59242SOL     OW79557   1.212   0.553   1.511
59242SOL    HW179558   1.159   0.513   1.580
59242SOL    HW279559   1.300   0.558   1.547
59243SOL     OW79560  14.814   3.415   9.611
59243SOL    HW179561   0.002   3.396   9.538
59243SOL    HW279562  14.746   3.471   9.572
59244SOL     OW79563  13.605  11.462   7.221
59244SOL    HW179564  13.691  11.478   7.260
59244SOL    HW279565  13.611  11.499   7.133
59245SOL     OW79566   9.461   0.346   2.373
59245SOL    HW179567   9.493   0.329   2.284
59245SOL    HW279568   9.366   0.331   2.368
59246SOL     OW79569   1.959  10.119   5.206
59246SOL    HW179570   1.883  10.114   5.265
59246SOL    HW279571   1.933  10.069   5.128
59247SOL     OW79572  11.450   0.266   3.244
59247SOL    HW179573  11.517   0.272   3.312
59247SOL    HW279574  11.438   0.355   3.213
59248SOL     OW79575   0.508   8.139   3.323
59248SOL    HW179576   0.436   8.085   3.290
59248SOL    HW279577   0.560   8.080   3.377
59249SOL     OW79578   8.267   6.908  13.980
59249SOL    HW179579   8.355   6.882  13.951
59249SOL    HW279580   8.209   6.843  13.941
59250SOL     OW79581  12.213   4.757   7.497
59250SOL    HW179582  12.164   4.785   7.574
59250SOL    HW279583  12.276   4.828   7.482
59251SOL     OW79584   1.107   3.889   9.067
59251SOL    HW179585   1.097   3.815   9.007
59251SOL    HW279586   1.199   3.913   9.060
59252SOL     OW79587   8.515  11.384   2.695
59252SOL    HW179588   8.580  11.329   2.738
59252SOL    HW279589   8.444  11.392   2.759
59253SOL     OW79590  11.130  11.981   5.068
59253SOL    HW179591  11.079  11.901   5.055
59253SOL    HW279592  11.135  12.021   4.981
59254SOL     OW79593  14.193   6.517   9.209
59254SOL    HW179594  14.170   6.561   9.291
59254SOL    HW279595  14.216   6.428   9.236
59255SOL     OW79596   1.908   3.629   1.375
59255SOL    HW179597   1.919   3.561   1.308
59255SOL    HW279598   1.992   3.630   1.421
59256SOL     OW79599  11.343   4.324  14.636
59256SOL    HW179600  11.270   4.308  14.576
59256SOL    HW279601  11.312   4.396  14.692
59257SOL     OW79602  12.565   4.348  14.389
59257SOL    HW179603  12.634   4.401  14.429
59257SOL    HW279604  12.485   4.378  14.432
59258SOL     OW79605  11.501   6.741  14.810
59258SOL    HW179606  11.596   6.747  14.820
59258SOL    HW279607  11.489   6.710  14.720
59259SOL     OW79608   3.344   3.332   1.925
59259SOL    HW179609   3.278   3.390   1.886
59259SOL    HW279610   3.301   3.295   2.002
59260SOL     OW79611  11.851   1.023   8.151
59260SOL    HW179612  11.908   0.962   8.197
59260SOL    HW279613  11.831   1.091   8.215
59261SOL     OW79614  11.252  11.891   1.263
59261SOL    HW179615  11.345  11.894   1.285
59261SOL    HW279616  11.248  11.921   1.172
59262SOL     OW79617  14.451  13.999   4.125
59262SOL    HW179618  14.439  14.076   4.070
59262SOL    HW279619  14.415  13.926   4.074
59263SOL     OW79620   1.157  11.209   9.331
59263SOL    HW179621   1.148  11.268   9.256
59263SOL    HW279622   1.195  11.129   9.295
59264SOL     OW79623  14.390   4.518   4.346
59264SOL    HW179624  14.315   4.563   4.385
59264SOL    HW279625  14.363   4.426   4.341
59265SOL     OW79626   0.071   5.457  14.524
59265SOL    HW179627   0.030   5.538  14.496
59265SOL    HW279628   0.087   5.468  14.618
59266SOL     OW79629   4.509   2.136  11.693
59266SOL    HW179630   4.419   2.151  11.721
59266SOL    HW279631   4.518   2.189  11.614
59267SOL     OW79632   6.516   6.490  11.885
59267SOL    HW179633   6.433   6.487  11.837
59267SOL    HW279634   6.553   6.403  11.875
59268SOL     OW79635  12.889  14.554   6.415
59268SOL    HW179636  12.878  14.471   6.462
59268SOL    HW279637  12.895  14.620   6.483
59269SOL     OW79638  12.445   4.308  10.114
59269SOL    HW179639  12.458   4.288  10.207
59269SOL    HW279640  12.361   4.267  10.093
59270SOL     OW79641   3.207  11.067   5.148
59270SOL    HW179642   3.136  11.003   5.152
59270SOL    HW279643   3.170  11.147   5.185
59271SOL     OW79644  13.806  10.018   6.401
59271SOL    HW179645  13.806   9.945   6.339
59271SOL    HW279646  13.878   9.998   6.461
59272SOL     OW79647  10.176   0.864  10.572
59272SOL    HW179648  10.170   0.771  10.593
59272SOL    HW279649  10.242   0.869  10.502
59273SOL     OW79650  12.520   4.475   3.761
59273SOL    HW179651  12.574   4.519   3.694
59273SOL    HW279652  12.566   4.392   3.777
59274SOL     OW79653   7.885   2.940  12.886
59274SOL    HW179654   7.820   2.993  12.931
59274SOL    HW279655   7.951   2.920  12.953
59275SOL     OW79656  13.670   2.733   5.585
59275SOL    HW179657  13.729   2.670   5.628
59275SOL    HW279658  13.721   2.766   5.511
59276SOL     OW79659   4.080   0.213  12.179
59276SOL    HW179660   4.098   0.235  12.088
59276SOL    HW279661   4.043   0.124  12.175
59277SOL     OW79662   6.759  11.256   1.576
59277SOL    HW179663   6.794  11.335   1.617
59277SOL    HW279664   6.814  11.185   1.610
59278SOL     OW79665  11.771  14.806  13.665
59278SOL    HW179666  11.856  14.813  13.622
59278SOL    HW279667  11.723   0.012  13.635
59279SOL     OW79668  11.401  13.166  14.375
59279SOL    HW179669  11.429  13.251  14.340
59279SOL    HW279670  11.325  13.142  14.323
59280SOL     OW79671   9.397  11.679   3.137
59280SOL    HW179672   9.329  11.613   3.117
59280SOL    HW279673   9.347  11.759   3.155
59281SOL     OW79674   0.001   4.729  10.000
59281SOL    HW179675   0.058   4.685   9.938
59281SOL    HW279676  14.857   4.664  10.068
59282SOL     OW79677   9.012   1.399   7.701
59282SOL    HW179678   8.969   1.435   7.778
59282SOL    HW279679   8.980   1.309   7.696
59283SOL     OW79680   6.845   5.672   2.912
59283SOL    HW179681   6.836   5.656   2.818
59283SOL    HW279682   6.901   5.749   2.919
59284SOL     OW79683  11.819  11.637   2.589
59284SOL    HW179684  11.749  11.634   2.654
59284SOL    HW279685  11.775  11.630   2.505
59285SOL     OW79686  12.700   7.228   6.308
59285SOL    HW179687  12.626   7.166   6.303
59285SOL    HW279688  12.662   7.307   6.346
59286SOL     OW79689   9.964   7.521  10.667
59286SOL    HW179690  10.014   7.449  10.706
59286SOL    HW279691   9.873   7.500  10.686
59287SOL     OW79692   6.864   5.984   5.192
59287SOL    HW179693   6.861   5.953   5.282
59287SOL    HW279694   6.773   6.000   5.169
59288SOL     OW79695  12.512   5.379   1.104
59288SOL    HW179696  12.510   5.414   1.194
59288SOL    HW279697  12.542   5.289   1.114
59289SOL     OW79698   6.836   9.379   9.439
59289SOL    HW179699   6.760   9.365   9.495
59289SOL    HW279700   6.911   9.367   9.496
59290SOL     OW79701   1.157  12.763   7.962
59290SOL    HW179702   1.190  12.779   8.050
59290SOL    HW279703   1.235  12.743   7.910
59291SOL     OW79704  13.875   7.772   7.812
59291SOL    HW179705  13.788   7.791   7.847
59291SOL    HW279706  13.922   7.855   7.818
59292SOL     OW79707   5.695   2.270   0.048
59292SOL    HW179708   5.730   2.210   0.114
59292SOL    HW279709   5.707   2.357   0.086
59293SOL     OW79710   9.052   8.694  13.873
59293SOL    HW179711   8.973   8.649  13.847
59293SOL    HW279712   9.048   8.697  13.969
59294SOL     OW79713   2.908  10.203   1.772
59294SOL    HW179714   2.820  10.201   1.807
59294SOL    HW279715   2.964  10.229   1.846
59295SOL     OW79716   9.708   9.398   6.020
59295SOL    HW179717   9.633   9.456   6.034
59295SOL    HW279718   9.669   9.315   5.993
59296SOL     OW79719   5.258   8.611   0.678
59296SOL    HW179720   5.225   8.586   0.764
59296SOL    HW279721   5.216   8.694   0.658
59297SOL     OW79722  10.052   7.876   6.479
59297SOL    HW179723   9.989   7.871   6.551
59297SOL    HW279724  10.126   7.823   6.508
59298SOL     OW79725  14.410   8.671   7.945
59298SOL    HW179726  14.382   8.623   7.867
59298SOL    HW279727  14.396   8.763   7.922
59299SOL     OW79728   5.780   5.058   3.870
59299SOL    HW179729   5.784   5.062   3.966
59299SOL    HW279730   5.687   5.050   3.851
59300SOL     OW79731   8.925  12.547   2.592
59300SOL    HW179732   8.916  12.452   2.579
59300SOL    HW279733   8.970  12.578   2.513
59301SOL     OW79734  14.305   6.224   9.026
59301SOL    HW179735  14.233   6.282   9.002
59301SOL    HW279736  14.266   6.136   9.024
59302SOL     OW79737   7.317  13.670   9.361
59302SOL    HW179738   7.283  13.582   9.343
59302SOL    HW279739   7.376  13.688   9.288
59303SOL     OW79740  12.684  14.485   8.732
59303SOL    HW179741  12.707  14.465   8.642
59303SOL    HW279742  12.668  14.580   8.733
59304SOL     OW79743   4.317   5.221  13.220
59304SOL    HW179744   4.264   5.141  13.220
59304SOL    HW279745   4.268   5.282  13.275
59305SOL     OW79746  10.978   0.687  12.247
59305SOL    HW179747  10.987   0.783  12.250
59305SOL    HW279748  11.067   0.655  12.242
59306SOL     OW79749   0.216  11.585   7.512
59306SOL    HW179750   0.145  11.649   7.522
59306SOL    HW279751   0.289  11.635   7.476
59307SOL     OW79752   1.268  13.666   7.913
59307SOL    HW179753   1.275  13.576   7.881
59307SOL    HW279754   1.335  13.714   7.865
59308SOL     OW79755  13.407  14.260   8.878
59308SOL    HW179756  13.328  14.214   8.905
59308SOL    HW279757  13.411  14.248   8.783
59309SOL     OW79758   3.886   6.935   3.189
59309SOL    HW179759   3.915   6.910   3.277
59309SOL    HW279760   3.945   7.006   3.164
59310SOL     OW79761   3.448  12.875   4.174
59310SOL    HW179762   3.403  12.801   4.132
59310SOL    HW279763   3.539  12.867   4.146
59311SOL     OW79764   2.602   5.462  14.735
59311SOL    HW179765   2.636   5.447  14.647
59311SOL    HW279766   2.667   5.422  14.793
59312SOL     OW79767   5.440   6.210  14.013
59312SOL    HW179768   5.440   6.115  14.022
59312SOL    HW279769   5.381   6.227  13.939
59313SOL     OW79770   6.676   0.837   5.436
59313SOL    HW179771   6.712   0.860   5.350
59313SOL    HW279772   6.583   0.818   5.418
59314SOL     OW79773   2.002   4.715   1.559
59314SOL    HW179774   1.978   4.622   1.560
59314SOL    HW279775   1.926   4.758   1.520
59315SOL     OW79776   6.255   2.533   9.470
59315SOL    HW179777   6.288   2.458   9.518
59315SOL    HW279778   6.234   2.598   9.537
59316SOL     OW79779  10.907   8.826   4.304
59316SOL    HW179780  10.930   8.766   4.233
59316SOL    HW279781  10.984   8.826   4.361
59317SOL     OW79782   9.327   7.304  11.293
59317SOL    HW179783   9.334   7.396  11.316
59317SOL    HW279784   9.413   7.280  11.260
59318SOL     OW79785  10.263  13.180   1.268
59318SOL    HW179786  10.241  13.271   1.249
59318SOL    HW279787  10.324  13.186   1.342
59319SOL     OW79788  11.961  10.337   9.082
59319SOL    HW179789  11.968  10.429   9.058
59319SOL    HW279790  12.007  10.330   9.166
59320SOL     OW79791  12.409   5.186  11.519
59320SOL    HW179792  12.373   5.274  11.505
59320SOL    HW279793  12.407   5.145  11.432
59321SOL     OW79794   1.206  13.192  12.343
59321SOL    HW179795   1.116  13.210  12.318
59321SOL    HW279796   1.242  13.278  12.366
59322SOL     OW79797   0.721   7.367   9.536
59322SOL    HW179798   0.804   7.415   9.542
59322SOL    HW279799   0.668   7.419   9.476
59323SOL     OW79800  10.343   7.596   3.058
59323SOL    HW179801  10.391   7.522   3.094
59323SOL    HW279802  10.330   7.655   3.132
59324SOL     OW79803  13.355  10.691   3.379
59324SOL    HW179804  13.310  10.635   3.315
59324SOL    HW279805  13.312  10.673   3.462
59325SOL     OW79806   8.082  12.831  11.295
59325SOL    HW179807   8.073  12.858  11.386
59325SOL    HW279808   8.163  12.780  11.293
59326SOL     OW79809   2.057   8.482  13.896
59326SOL    HW179810   2.004   8.445  13.966
59326SOL    HW279811   2.042   8.425  13.821
59327SOL     OW79812   6.921  10.016   0.839
59327SOL    HW179813   7.000  10.068   0.829
59327SOL    HW279814   6.944   9.949   0.905
59328SOL     OW79815  14.548   4.646  12.634
59328SOL    HW179816  14.608   4.575  12.611
59328SOL    HW279817  14.546   4.702  12.557
59329SOL     OW79818   9.257  13.949  13.363
59329SOL    HW179819   9.313  13.882  13.403
59329SOL    HW279820   9.272  13.940  13.269
59330SOL     OW79821   7.356   4.274   1.866
59330SOL    HW179822   7.354   4.369   1.882
59330SOL    HW279823   7.296   4.238   1.931
59331SOL     OW79824   3.307   6.216  12.034
59331SOL    HW179825   3.299   6.278  12.106
59331SOL    HW279826   3.261   6.137  12.064
59332SOL     OW79827  12.793  13.733  13.475
59332SOL    HW179828  12.754  13.801  13.530
59332SOL    HW279829  12.718  13.694  13.429
59333SOL     OW79830   9.312   5.452   3.592
59333SOL    HW179831   9.392   5.405   3.568
59333SOL    HW279832   9.328   5.542   3.563
59334SOL     OW79833   6.598   2.292  13.264
59334SOL    HW179834   6.621   2.245  13.345
59334SOL    HW279835   6.535   2.235  13.220
59335SOL     OW79836   3.565   1.765   7.015
59335SOL    HW179837   3.600   1.782   7.102
59335SOL    HW279838   3.612   1.687   6.985
59336SOL     OW79839   2.506   3.984   9.802
59336SOL    HW179840   2.487   3.953   9.891
59336SOL    HW279841   2.424   3.970   9.754
59337SOL     OW79842   8.010   0.479   1.408
59337SOL    HW179843   7.981   0.392   1.380
59337SOL    HW279844   7.930   0.528   1.424
59338SOL     OW79845   9.545   0.053   5.052
59338SOL    HW179846   9.469   0.067   5.108
59338SOL    HW279847   9.583  14.843   5.083
59339SOL     OW79848   9.974  12.138   9.718
59339SOL    HW179849  10.036  12.126   9.791
59339SOL    HW279850   9.930  12.053   9.710
59340SOL     OW79851   4.512  13.362  10.798
59340SOL    HW179852   4.485  13.442  10.752
59340SOL    HW279853   4.524  13.297  10.728
59341SOL     OW79854   1.545   0.067  13.359
59341SOL    HW179855   1.607   0.100  13.424
59341SOL    HW279856   1.465   0.115  13.376
59342SOL     OW79857  14.314  12.511   5.667
59342SOL    HW179858  14.309  12.453   5.591
59342SOL    HW279859  14.341  12.454   5.739
59343SOL     OW79860   6.161   9.287   6.570
59343SOL    HW179861   6.160   9.203   6.524
59343SOL    HW279862   6.249   9.321   6.557
59344SOL     OW79863  12.267   6.055  13.461
59344SOL    HW179864  12.187   6.085  13.417
59344SOL    HW279865  12.307   5.994  13.399
59345SOL     OW79866   5.740  13.000   0.560
59345SOL    HW179867   5.708  12.914   0.586
59345SOL    HW279868   5.833  12.986   0.541
59346SOL     OW79869   0.555  13.002   4.471
59346SOL    HW179870   0.502  12.931   4.433
59346SOL    HW279871   0.607  13.035   4.398
59347SOL     OW79872   1.643   3.323   0.157
59347SOL    HW179873   1.712   3.300   0.096
59347SOL    HW279874   1.677   3.398   0.205
59348SOL     OW79875   7.517   9.821   9.335
59348SOL    HW179876   7.605   9.859   9.335
59348SOL    HW279877   7.461   9.892   9.303
59349SOL     OW79878  13.252   1.099   4.266
59349SOL    HW179879  13.290   1.106   4.353
59349SOL    HW279880  13.254   1.188   4.231
59350SOL     OW79881   7.743   6.413   1.222
59350SOL    HW179882   7.735   6.472   1.147
59350SOL    HW279883   7.770   6.469   1.294
59351SOL     OW79884   8.048   7.793   9.903
59351SOL    HW179885   8.030   7.707   9.866
59351SOL    HW279886   7.967   7.843   9.888
59352SOL     OW79887   9.826   6.473  14.380
59352SOL    HW179888   9.744   6.516  14.354
59352SOL    HW279889   9.895   6.529  14.344
59353SOL     OW79890   4.894   3.538   9.344
59353SOL    HW179891   4.824   3.473   9.348
59353SOL    HW279892   4.894   3.568   9.253
59354SOL     OW79893   3.637   5.742  10.036
59354SOL    HW179894   3.682   5.658  10.024
59354SOL    HW279895   3.631   5.779   9.947
59355SOL     OW79896   9.930   7.414  13.219
59355SOL    HW179897   9.841   7.446  13.234
59355SOL    HW279898   9.932   7.392  13.126
59356SOL     OW79899  11.996   6.049  11.376
59356SOL    HW179900  12.042   6.127  11.407
59356SOL    HW279901  12.059   6.005  11.318
59357SOL     OW79902   0.341   5.241  13.711
59357SOL    HW179903   0.407   5.200  13.767
59357SOL    HW279904   0.272   5.176  13.703
59358SOL     OW79905   3.965   4.826   4.975
59358SOL    HW179906   3.913   4.786   5.045
59358SOL    HW279907   3.984   4.914   5.008
59359SOL     OW79908   8.268  11.019   1.606
59359SOL    HW179909   8.334  10.992   1.670
59359SOL    HW279910   8.194  11.049   1.659
59360SOL     OW79911   9.452   7.535  11.390
59360SOL    HW179912   9.503   7.566  11.465
59360SOL    HW279913   9.489   7.583  11.316
59361SOL     OW79914   9.210  14.566   4.883
59361SOL    HW179915   9.152  14.636   4.915
59361SOL    HW279916   9.284  14.569   4.943
59362SOL     OW79917   1.098  10.589   9.244
59362SOL    HW179918   1.097  10.622   9.154
59362SOL    HW279919   1.092  10.667   9.298
59363SOL     OW79920   7.896   7.957   1.574
59363SOL    HW179921   7.847   7.945   1.655
59363SOL    HW279922   7.829   7.975   1.508
59364SOL     OW79923   1.857   8.455   9.993
59364SOL    HW179924   1.820   8.394   9.930
59364SOL    HW279925   1.907   8.399  10.053
59365SOL     OW79926  14.251   2.177  12.524
59365SOL    HW179927  14.346   2.171  12.537
59365SOL    HW279928  14.236   2.134  12.440
59366SOL     OW79929  11.535   3.521   7.544
59366SOL    HW179930  11.499   3.440   7.579
59366SOL    HW279931  11.629   3.515   7.560
59367SOL     OW79932   3.463   4.799  10.507
59367SOL    HW179933   3.442   4.727  10.566
59367SOL    HW279934   3.416   4.780  10.426
59368SOL     OW79935   1.992   8.470   7.042
59368SOL    HW179936   1.926   8.509   7.099
59368SOL    HW279937   1.986   8.376   7.060
59369SOL     OW79938   8.454  10.312   4.238
59369SOL    HW179939   8.480  10.392   4.194
59369SOL    HW279940   8.535  10.275   4.272
59370SOL     OW79941  14.135   4.609  14.774
59370SOL    HW179942  14.191   4.531  14.779
59370SOL    HW279943  14.048   4.575  14.751
59371SOL     OW79944   2.336   3.240   0.342
59371SOL    HW179945   2.418   3.238   0.292
59371SOL    HW279946   2.282   3.173   0.301
59372SOL     OW79947  11.559   5.087  12.828
59372SOL    HW179948  11.486   5.056  12.881
59372SOL    HW279949  11.563   5.027  12.754
59373SOL     OW79950   2.836  11.569   1.361
59373SOL    HW179951   2.886  11.604   1.434
59373SOL    HW279952   2.900  11.559   1.291
59374SOL     OW79953   4.046   6.688   3.222
59374SOL    HW179954   4.045   6.749   3.296
59374SOL    HW279955   4.077   6.739   3.148
59375SOL     OW79956  13.453  10.276  14.763
59375SOL    HW179957  13.428  10.223  14.687
59375SOL    HW279958  13.377  10.274  14.820
59376SOL     OW79959   8.634   3.730   9.454
59376SOL    HW179960   8.690   3.750   9.379
59376SOL    HW279961   8.634   3.811   9.506
59377SOL     OW79962   1.763  14.852   9.955
59377SOL    HW179963   1.760  14.817   9.866
59377SOL    HW279964   1.672  14.866   9.979
59378SOL     OW79965   3.078   2.776   9.158
59378SOL    HW179966   3.141   2.723   9.110
59378SOL    HW279967   3.117   2.788   9.245
59379SOL     OW79968   7.795  11.992  10.209
59379SOL    HW179969   7.764  11.902  10.201
59379SOL    HW279970   7.716  12.045  10.207
59380SOL     OW79971  10.817   6.072   1.226
59380SOL    HW179972  10.818   6.035   1.138
59380SOL    HW279973  10.910   6.090   1.245
59381SOL     OW79974   0.251   6.138  10.722
59381SOL    HW179975   0.310   6.122  10.648
59381SOL    HW279976   0.246   6.054  10.767
59382SOL     OW79977   7.702   1.874   1.877
59382SOL    HW179978   7.654   1.906   1.954
59382SOL    HW279979   7.792   1.901   1.893
59383SOL     OW79980   7.479  11.518   4.290
59383SOL    HW179981   7.421  11.443   4.273
59383SOL    HW279982   7.494  11.515   4.385
59384SOL     OW79983  11.938   9.750  12.421
59384SOL    HW179984  11.991   9.671  12.432
59384SOL    HW279985  11.874   9.726  12.354
59385SOL     OW79986   3.488  14.023  11.570
59385SOL    HW179987   3.489  13.985  11.658
59385SOL    HW279988   3.507  13.949  11.513
59386SOL     OW79989   9.421   5.039  12.260
59386SOL    HW179990   9.453   4.962  12.213
59386SOL    HW279991   9.501   5.084  12.288
59387SOL     OW79992   7.108   5.210   3.382
59387SOL    HW179993   7.192   5.166   3.372
59387SOL    HW279994   7.131   5.298   3.413
59388SOL     OW79995   9.583  10.947  11.528
59388SOL    HW179996   9.595  10.962  11.621
59388SOL    HW279997   9.530  10.867  11.523
59389SOL     OW79998   8.784   0.750   4.325
59389SOL    HW179999   8.828   0.834   4.312
59389SOL    HW280000   8.774   0.742   4.420
59390SOL     OW80001   8.157   8.553  10.246
59390SOL    HW180002   8.164   8.649  10.243
59390SOL    HW280003   8.130   8.529  10.157
59391SOL     OW80004   2.404   9.921  11.466
59391SOL    HW180005   2.336   9.909  11.532
59391SOL    HW280006   2.427   9.832  11.439
59392SOL     OW80007   2.519   6.408   7.954
59392SOL    HW180008   2.428   6.412   7.923
59392SOL    HW280009   2.515   6.356   8.034
59393SOL     OW80010  10.754   3.395   6.623
59393SOL    HW180011  10.714   3.447   6.554
59393SOL    HW280012  10.790   3.460   6.684
59394SOL     OW80013   7.189   9.318  11.822
59394SOL    HW180014   7.147   9.253  11.879
59394SOL    HW280015   7.243   9.370  11.882
59395SOL     OW80016  13.188   6.293   1.351
59395SOL    HW180017  13.198   6.380   1.389
59395SOL    HW280018  13.268   6.280   1.300
59396SOL     OW80019   2.249  14.547   1.256
59396SOL    HW180020   2.203  14.590   1.328
59396SOL    HW280021   2.305  14.482   1.298
59397SOL     OW80022   6.312   7.512   0.624
59397SOL    HW180023   6.278   7.446   0.685
59397SOL    HW280024   6.273   7.594   0.654
59398SOL     OW80025  13.042  14.857   4.551
59398SOL    HW180026  13.016  14.819   4.467
59398SOL    HW280027  13.061   0.077   4.531
59399SOL     OW80028   1.526   8.244  12.951
59399SOL    HW180029   1.530   8.148  12.951
59399SOL    HW280030   1.459   8.265  13.015
59400SOL     OW80031   8.846   0.097   4.125
59400SOL    HW180032   8.779   0.066   4.186
59400SOL    HW280033   8.798   0.147   4.060
59401SOL     OW80034   1.650   3.727   4.393
59401SOL    HW180035   1.572   3.750   4.444
59401SOL    HW280036   1.722   3.730   4.457
59402SOL     OW80037   5.104   8.649  11.824
59402SOL    HW180038   5.037   8.689  11.769
59402SOL    HW280039   5.079   8.557  11.831
59403SOL     OW80040   3.128  13.233  12.806
59403SOL    HW180041   3.115  13.148  12.764
59403SOL    HW280042   3.162  13.289  12.737
59404SOL     OW80043   8.538   1.044  12.174
59404SOL    HW180044   8.552   0.950  12.163
59404SOL    HW280045   8.584   1.084  12.101
59405SOL     OW80046   3.016  10.360   5.845
59405SOL    HW180047   2.971  10.431   5.891
59405SOL    HW280048   3.102  10.397   5.822
59406SOL     OW80049   6.015   7.042   4.564
59406SOL    HW180050   5.993   7.114   4.624
59406SOL    HW280051   6.050   6.974   4.621
59407SOL     OW80052  13.465  12.953   5.337
59407SOL    HW180053  13.488  12.867   5.371
59407SOL    HW280054  13.508  13.015   5.397
59408SOL     OW80055   8.472   6.763  12.479
59408SOL    HW180056   8.521   6.681  12.470
59408SOL    HW280057   8.394   6.738  12.528
59409SOL     OW80058   0.887   7.193   0.728
59409SOL    HW180059   0.965   7.147   0.760
59409SOL    HW280060   0.853   7.238   0.806
59410SOL     OW80061   1.269   9.714   0.823
59410SOL    HW180062   1.208   9.750   0.888
59410SOL    HW280063   1.275   9.621   0.844
59411SOL     OW80064  11.217   5.988   6.725
59411SOL    HW180065  11.156   6.056   6.697
59411SOL    HW280066  11.212   5.989   6.820
59412SOL     OW80067  13.775   0.407  10.611
59412SOL    HW180068  13.856   0.439  10.649
59412SOL    HW280069  13.754   0.469  10.541
59413SOL     OW80070   9.192   9.677   9.350
59413SOL    HW180071   9.276   9.715   9.326
59413SOL    HW280072   9.210   9.624   9.427
59414SOL     OW80073  13.533   9.716   5.693
59414SOL    HW180074  13.576   9.800   5.682
59414SOL    HW280075  13.499   9.718   5.782
59415SOL     OW80076  13.496   9.618   7.772
59415SOL    HW180077  13.475   9.655   7.686
59415SOL    HW280078  13.442   9.539   7.777
59416SOL     OW80079   8.233  11.218   2.569
59416SOL    HW180080   8.229  11.244   2.477
59416SOL    HW280081   8.190  11.290   2.616
59417SOL     OW80082  14.773  12.848   5.708
59417SOL    HW180083  14.786  12.765   5.753
59417SOL    HW280084  14.680  12.869   5.723
59418SOL     OW80085  10.656   1.579   2.914
59418SOL    HW180086  10.655   1.483   2.918
59418SOL    HW280087  10.577   1.602   2.866
59419SOL     OW80088  11.624  14.378   2.252
59419SOL    HW180089  11.574  14.375   2.170
59419SOL    HW280090  11.568  14.333   2.315
59420SOL     OW80091   9.973   5.167   1.708
59420SOL    HW180092   9.944   5.101   1.645
59420SOL    HW280093   9.951   5.251   1.667
59421SOL     OW80094   1.785   4.608   7.159
59421SOL    HW180095   1.826   4.604   7.072
59421SOL    HW280096   1.727   4.684   7.154
59422SOL     OW80097   6.891   0.011   8.305
59422SOL    HW180098   6.904   0.024   8.399
59422SOL    HW280099   6.945   0.078   8.264
59423SOL     OW80100   0.557   8.528   7.109
59423SOL    HW180101   0.492   8.598   7.108
59423SOL    HW280102   0.516   8.457   7.060
59424SOL     OW80103   2.372   8.754   3.151
59424SOL    HW180104   2.390   8.679   3.209
59424SOL    HW280105   2.427   8.824   3.185
59425SOL     OW80106   4.355   8.236  11.861
59425SOL    HW180107   4.402   8.157  11.887
59425SOL    HW280108   4.282   8.242  11.923
59426SOL     OW80109  12.419  10.467   0.448
59426SOL    HW180110  12.330  10.438   0.468
59426SOL    HW280111  12.442  10.525   0.521
59427SOL     OW80112   5.064   3.188   2.260
59427SOL    HW180113   5.147   3.228   2.236
59427SOL    HW280114   5.004   3.262   2.271
59428SOL     OW80115   0.544   0.104  11.033
59428SOL    HW180116   0.501   0.086  11.117
59428SOL    HW280117   0.628   0.059  11.039
59429SOL     OW80118  13.853   0.275   8.313
59429SOL    HW180119  13.808   0.329   8.377
59429SOL    HW280120  13.932   0.245   8.358
59430SOL     OW80121   0.903  10.478   5.941
59430SOL    HW180122   0.985  10.522   5.965
59430SOL    HW280123   0.867  10.447   6.024
59431SOL     OW80124   9.758  10.113  11.767
59431SOL    HW180125   9.851  10.100  11.786
59431SOL    HW280126   9.751  10.206  11.745
59432SOL     OW80127   2.646   4.728   9.103
59432SOL    HW180128   2.659   4.723   9.198
59432SOL    HW280129   2.734   4.736   9.067
59433SOL     OW80130   7.513   2.648   1.404
59433SOL    HW180131   7.521   2.702   1.326
59433SOL    HW280132   7.462   2.572   1.376
59434SOL     OW80133  11.041   9.887   7.899
59434SOL    HW180134  11.066   9.972   7.863
59434SOL    HW280135  11.008   9.838   7.824
59435SOL     OW80136   3.216  14.186   5.429
59435SOL    HW180137   3.170  14.106   5.452
59435SOL    HW280138   3.214  14.188   5.333
59436SOL     OW80139   7.239  11.770   5.965
59436SOL    HW180140   7.167  11.783   6.026
59436SOL    HW280141   7.302  11.839   5.986
59437SOL     OW80142   0.072  12.667   3.151
59437SOL    HW180143   0.049  12.643   3.240
59437SOL    HW280144  14.869  12.719   3.120
59438SOL     OW80145   0.663   0.969   9.674
59438SOL    HW180146   0.659   1.061   9.701
59438SOL    HW280147   0.731   0.967   9.606
59439SOL     OW80148   6.519   0.792   6.817
59439SOL    HW180149   6.555   0.718   6.767
59439SOL    HW280150   6.487   0.853   6.750
59440SOL     OW80151   8.274  13.237   1.994
59440SOL    HW180152   8.339  13.288   2.042
59440SOL    HW280153   8.203  13.299   1.975
59441SOL     OW80154   2.405   5.221   6.686
59441SOL    HW180155   2.491   5.211   6.644
59441SOL    HW280156   2.389   5.316   6.684
59442SOL     OW80157   2.229   7.396   9.510
59442SOL    HW180158   2.267   7.345   9.439
59442SOL    HW280159   2.187   7.332   9.567
59443SOL     OW80160   1.219  14.063  10.781
59443SOL    HW180161   1.171  14.048  10.700
59443SOL    HW280162   1.157  14.041  10.850
59444SOL     OW80163   7.423   6.913  11.228
59444SOL    HW180164   7.491   6.937  11.291
59444SOL    HW280165   7.470   6.877  11.153
59445SOL     OW80166   6.914   1.446  13.644
59445SOL    HW180167   6.871   1.399  13.572
59445SOL    HW280168   6.858   1.429  13.720
59446SOL     OW80169   1.220  11.890  10.529
59446SOL    HW180170   1.166  11.820  10.566
59446SOL    HW280171   1.239  11.947  10.603
59447SOL     OW80172   6.668   8.222  14.708
59447SOL    HW180173   6.709   8.308  14.711
59447SOL    HW280174   6.730   8.164  14.752
59448SOL     OW80175   5.421   8.784   0.434
59448SOL    HW180176   5.375   8.828   0.505
59448SOL    HW280177   5.368   8.707   0.415
59449SOL     OW80178  11.035  14.774   8.478
59449SOL    HW180179  11.056  14.867   8.480
59449SOL    HW280180  11.011  14.757   8.386
59450SOL     OW80181   6.340   6.561   5.177
59450SOL    HW180182   6.350   6.577   5.083
59450SOL    HW280183   6.278   6.488   5.182
59451SOL     OW80184   6.472   6.264   1.454
59451SOL    HW180185   6.416   6.200   1.411
59451SOL    HW280186   6.540   6.285   1.390
59452SOL     OW80187   7.437   7.286  13.260
59452SOL    HW180188   7.448   7.206  13.311
59452SOL    HW280189   7.422   7.354  13.326
59453SOL     OW80190  13.666   6.233  11.870
59453SOL    HW180191  13.629   6.300  11.812
59453SOL    HW280192  13.753   6.217  11.834
59454SOL     OW80193   2.610  12.217   1.605
59454SOL    HW180194   2.658  12.135   1.597
59454SOL    HW280195   2.599  12.248   1.515
59455SOL     OW80196  10.950   2.045  12.674
59455SOL    HW180197  10.864   2.052  12.717
59455SOL    HW280198  10.982   2.134  12.670
59456SOL     OW80199  14.463   1.880   6.227
59456SOL    HW180200  14.417   1.943   6.281
59456SOL    HW280201  14.408   1.802   6.228
59457SOL     OW80202   0.664   3.714   0.375
59457SOL    HW180203   0.615   3.650   0.323
59457SOL    HW280204   0.721   3.757   0.312
59458SOL     OW80205   6.273  13.422   5.579
59458SOL    HW180206   6.261  13.328   5.575
59458SOL    HW280207   6.352  13.439   5.528
59459SOL     OW80208   8.843   7.614   6.446
59459SOL    HW180209   8.876   7.536   6.402
59459SOL    HW280210   8.860   7.686   6.385
59460SOL     OW80211   2.742   7.250   8.113
59460SOL    HW180212   2.792   7.287   8.041
59460SOL    HW280213   2.791   7.274   8.192
59461SOL     OW80214   7.258   6.773   5.184
59461SOL    HW180215   7.222   6.848   5.136
59461SOL    HW280216   7.352   6.793   5.191
59462SOL     OW80217   0.158   3.720   7.784
59462SOL    HW180218   0.129   3.648   7.727
59462SOL    HW280219   0.250   3.699   7.802
59463SOL     OW80220  10.032   7.758   1.424
59463SOL    HW180221  10.074   7.842   1.404
59463SOL    HW280222  10.028   7.756   1.519
59464SOL     OW80223   0.587  12.931  13.929
59464SOL    HW180224   0.585  12.933  13.833
59464SOL    HW280225   0.573  12.839  13.951
59465SOL     OW80226  11.664  11.563  10.009
59465SOL    HW180227  11.625  11.595   9.928
59465SOL    HW280228  11.671  11.641  10.064
59466SOL     OW80229  14.632   7.368  10.256
59466SOL    HW180230  14.656   7.307  10.186
59466SOL    HW280231  14.678   7.449  10.234
59467SOL     OW80232   3.059  14.402   5.451
59467SOL    HW180233   3.111  14.325   5.473
59467SOL    HW280234   3.062  14.407   5.356
59468SOL     OW80235  11.191  10.989   2.587
59468SOL    HW180236  11.286  10.997   2.590
59468SOL    HW280237  11.170  10.986   2.494
59469SOL     OW80238   9.412  11.949   6.509
59469SOL    HW180239   9.459  12.024   6.474
59469SOL    HW280240   9.481  11.888   6.536
59470SOL     OW80241  10.698   6.244   0.943
59470SOL    HW180242  10.624   6.224   1.000
59470SOL    HW280243  10.759   6.292   0.999
59471SOL     OW80244  12.806   7.368   4.259
59471SOL    HW180245  12.761   7.289   4.229
59471SOL    HW280246  12.745   7.408   4.320
59472SOL     OW80247  14.070   3.278   6.501
59472SOL    HW180248  14.161   3.269   6.472
59472SOL    HW280249  14.032   3.191   6.485
59473SOL     OW80250  13.410   2.066   8.985
59473SOL    HW180251  13.404   2.024   9.071
59473SOL    HW280252  13.501   2.053   8.959
59474SOL     OW80253   4.130  13.871   3.623
59474SOL    HW180254   4.090  13.925   3.691
59474SOL    HW280255   4.077  13.888   3.545
59475SOL     OW80256   7.709   6.814   4.601
59475SOL    HW180257   7.768   6.782   4.669
59475SOL    HW280258   7.632   6.845   4.649
59476SOL     OW80259   7.998   7.225  13.397
59476SOL    HW180260   8.077   7.214  13.449
59476SOL    HW280261   8.007   7.161  13.326
59477SOL     OW80262   1.117   5.503   3.133
59477SOL    HW180263   1.176   5.568   3.094
59477SOL    HW280264   1.062   5.474   3.060
59478SOL     OW80265  12.856   6.510  12.711
59478SOL    HW180266  12.762   6.523  12.697
59478SOL    HW280267  12.862   6.429  12.761
59479SOL     OW80268   5.840   0.131   1.911
59479SOL    HW180269   5.878   0.192   1.974
59479SOL    HW280270   5.912   0.073   1.887
59480SOL     OW80271  11.048   8.752  11.139
59480SOL    HW180272  11.057   8.843  11.112
59480SOL    HW280273  11.072   8.702  11.061
59481SOL     OW80274   2.256   5.976   0.320
59481SOL    HW180275   2.278   6.031   0.245
59481SOL    HW280276   2.282   5.887   0.294
59482SOL     OW80277  12.629   7.186   1.520
59482SOL    HW180278  12.665   7.238   1.447
59482SOL    HW280279  12.602   7.104   1.479
59483SOL     OW80280  12.776   8.163   8.989
59483SOL    HW180281  12.860   8.203   8.965
59483SOL    HW280282  12.728   8.233   9.035
59484SOL     OW80283  11.706   5.751   9.781
59484SOL    HW180284  11.716   5.832   9.732
59484SOL    HW280285  11.732   5.774   9.870
59485SOL     OW80286   3.767  13.454   4.461
59485SOL    HW180287   3.708  13.529   4.459
59485SOL    HW280288   3.709  13.378   4.468
59486SOL     OW80289  11.931   3.596   7.869
59486SOL    HW180290  11.926   3.684   7.830
59486SOL    HW280291  12.001   3.553   7.821
59487SOL     OW80292   1.547   2.160   7.556
59487SOL    HW180293   1.638   2.132   7.562
59487SOL    HW280294   1.538   2.190   7.465
59488SOL     OW80295  10.811   4.786   4.304
59488SOL    HW180296  10.766   4.831   4.376
59488SOL    HW280297  10.765   4.816   4.225
59489SOL     OW80298  12.471   6.902   8.257
59489SOL    HW180299  12.399   6.925   8.316
59489SOL    HW280300  12.428   6.876   8.176
59490SOL     OW80301   4.975   7.758   0.075
59490SOL    HW180302   5.065   7.789   0.069
59490SOL    HW280303   4.929   7.828   0.124
59491SOL     OW80304  11.601   1.491  10.462
59491SOL    HW180305  11.506   1.501  10.454
59491SOL    HW280306  11.625   1.439  10.385
59492SOL     OW80307   4.771   3.190   7.648
59492SOL    HW180308   4.700   3.254   7.641
59492SOL    HW280309   4.833   3.214   7.579
59493SOL     OW80310   4.577  11.640   6.085
59493SOL    HW180311   4.531  11.701   6.143
59493SOL    HW280312   4.508  11.581   6.054
59494SOL     OW80313   6.736  12.134  12.566
59494SOL    HW180314   6.649  12.125  12.527
59494SOL    HW280315   6.771  12.045  12.566
59495SOL     OW80316   3.552   3.004  11.336
59495SOL    HW180317   3.494   3.077  11.314
59495SOL    HW280318   3.496   2.927  11.330
59496SOL     OW80319  12.303  10.245   0.697
59496SOL    HW180320  12.338  10.233   0.609
59496SOL    HW280321  12.282  10.157   0.727
59497SOL     OW80322   9.556   4.545   5.629
59497SOL    HW180323   9.643   4.508   5.614
59497SOL    HW280324   9.542   4.603   5.554
59498SOL     OW80325  14.618   2.792   9.880
59498SOL    HW180326  14.574   2.853   9.940
59498SOL    HW280327  14.653   2.848   9.811
59499SOL     OW80328   1.500  10.362  12.398
59499SOL    HW180329   1.581  10.316  12.420
59499SOL    HW280330   1.432  10.294  12.398
59500SOL     OW80331   6.395   7.905   9.633
59500SOL    HW180332   6.365   7.902   9.724
59500SOL    HW280333   6.379   7.996   9.606
59501SOL     OW80334  11.473   2.159   0.973
59501SOL    HW180335  11.457   2.106   1.051
59501SOL    HW280336  11.556   2.125   0.938
59502SOL     OW80337   0.780   5.679   3.722
59502SOL    HW180338   0.701   5.663   3.774
59502SOL    HW280339   0.794   5.774   3.728
59503SOL     OW80340   7.760   1.020   7.281
59503SOL    HW180341   7.764   1.060   7.194
59503SOL    HW280342   7.686   0.960   7.276
59504SOL     OW80343   0.647   9.038   3.865
59504SOL    HW180344   0.634   8.966   3.804
59504SOL    HW280345   0.685   8.997   3.943
59505SOL     OW80346   1.420   8.746   0.428
59505SOL    HW180347   1.510   8.731   0.455
59505SOL    HW280348   1.425   8.759   0.333
59506SOL     OW80349   2.698   8.358   1.092
59506SOL    HW180350   2.779   8.407   1.080
59506SOL    HW280351   2.718   8.269   1.062
59507SOL     OW80352   2.952   4.917  13.438
59507SOL    HW180353   2.980   4.860  13.510
59507SOL    HW280354   3.033   4.945  13.396
59508SOL     OW80355  14.001   4.814   7.205
59508SOL    HW180356  14.071   4.798   7.269
59508SOL    HW280357  13.959   4.894   7.236
59509SOL     OW80358  11.520  14.550   9.985
59509SOL    HW180359  11.517  14.488  10.058
59509SOL    HW280360  11.612  14.578   9.982
59510SOL     OW80361  13.643   5.884   1.850
59510SOL    HW180362  13.596   5.857   1.929
59510SOL    HW280363  13.736   5.877   1.874
59511SOL     OW80364  13.056  11.309   0.846
59511SOL    HW180365  13.084  11.396   0.816
59511SOL    HW280366  13.080  11.308   0.939
59512SOL     OW80367  10.497   1.507   0.388
59512SOL    HW180368  10.485   1.446   0.316
59512SOL    HW280369  10.439   1.581   0.367
59513SOL     OW80370  10.354   8.411   4.880
59513SOL    HW180371  10.430   8.455   4.844
59513SOL    HW280372  10.386   8.367   4.959
59514SOL     OW80373   0.464  13.177   5.122
59514SOL    HW180374   0.460  13.247   5.057
59514SOL    HW280375   0.472  13.097   5.070
59515SOL     OW80376   6.358   0.569   9.756
59515SOL    HW180377   6.387   0.593   9.667
59515SOL    HW280378   6.269   0.604   9.762
59516SOL     OW80379   9.781   5.174  13.439
59516SOL    HW180380   9.812   5.181  13.529
59516SOL    HW280381   9.860   5.162  13.386
59517SOL     OW80382   8.533   0.656   8.631
59517SOL    HW180383   8.628   0.662   8.618
59517SOL    HW280384   8.515   0.562   8.632
59518SOL     OW80385   0.805   7.852  10.555
59518SOL    HW180386   0.759   7.934  10.574
59518SOL    HW280387   0.748   7.784  10.591
59519SOL     OW80388   5.750   3.132   8.243
59519SOL    HW180389   5.727   3.221   8.269
59519SOL    HW280390   5.719   3.124   8.153
59520SOL     OW80391  11.383   2.459   5.792
59520SOL    HW180392  11.321   2.480   5.722
59520SOL    HW280393  11.417   2.544   5.819
59521SOL     OW80394   6.503   4.754   2.248
59521SOL    HW180395   6.428   4.701   2.219
59521SOL    HW280396   6.538   4.706   2.323
59522SOL     OW80397   4.235  13.411  11.655
59522SOL    HW180398   4.150  13.398  11.697
59522SOL    HW280399   4.275  13.482  11.704
59523SOL     OW80400   7.020   3.477  14.026
59523SOL    HW180401   7.106   3.498  14.062
59523SOL    HW280402   6.980   3.422  14.093
59524SOL     OW80403   7.070   7.989   7.010
59524SOL    HW180404   7.046   7.966   7.100
59524SOL    HW280405   7.076   8.084   7.011
59525SOL     OW80406   2.698  13.843   3.400
59525SOL    HW180407   2.680  13.933   3.376
59525SOL    HW280408   2.731  13.848   3.490
59526SOL     OW80409  13.627   3.997  14.217
59526SOL    HW180410  13.582   4.059  14.275
59526SOL    HW280411  13.675   3.939  14.276
59527SOL     OW80412   4.474   3.256   4.047
59527SOL    HW180413   4.496   3.340   4.006
59527SOL    HW280414   4.401   3.277   4.106
59528SOL     OW80415   0.876   7.927  11.020
59528SOL    HW180416   0.838   8.006  10.981
59528SOL    HW280417   0.805   7.862  11.016
59529SOL     OW80418   4.423   8.249  14.852
59529SOL    HW180419   4.381   8.166  14.826
59529SOL    HW280420   4.517   8.229  14.852
59530SOL     OW80421   3.042  10.849  12.988
59530SOL    HW180422   3.063  10.940  12.970
59530SOL    HW280423   3.019  10.847  13.081
59531SOL     OW80424  14.591  10.222  13.037
59531SOL    HW180425  14.633  10.213  12.951
59531SOL    HW280426  14.546  10.306  13.033
59532SOL     OW80427  10.611   6.440   2.405
59532SOL    HW180428  10.699   6.472   2.428
59532SOL    HW280429  10.552   6.510   2.436
59533SOL     OW80430   8.575  10.913  11.283
59533SOL    HW180431   8.554  10.861  11.360
59533SOL    HW280432   8.552  11.002  11.306
59534SOL     OW80433  13.868  14.337   9.358
59534SOL    HW180434  13.811  14.379   9.422
59534SOL    HW280435  13.879  14.247   9.391
59535SOL     OW80436   6.293   0.687  12.192
59535SOL    HW180437   6.311   0.609  12.140
59535SOL    HW280438   6.262   0.752  12.129
59536SOL     OW80439   8.380  13.435  13.483
59536SOL    HW180440   8.437  13.457  13.557
59536SOL    HW280441   8.441  13.424  13.409
59537SOL     OW80442   0.829   9.105  12.364
59537SOL    HW180443   0.850   9.089  12.272
59537SOL    HW280444   0.738   9.135  12.362
59538SOL     OW80445   8.860   2.863   1.800
59538SOL    HW180446   8.846   2.842   1.708
59538SOL    HW280447   8.896   2.783   1.838
59539SOL     OW80448   0.936  14.582  13.600
59539SOL    HW180449   0.845  14.556  13.616
59539SOL    HW280450   0.985  14.541  13.671
59540SOL     OW80451   7.233   9.557  12.787
59540SOL    HW180452   7.210   9.488  12.725
59540SOL    HW280453   7.209   9.522  12.873
59541SOL     OW80454   8.556   1.380  11.032
59541SOL    HW180455   8.610   1.336  11.098
59541SOL    HW280456   8.608   1.456  11.006
59542SOL     OW80457   4.122   7.804   8.627
59542SOL    HW180458   4.118   7.873   8.561
59542SOL    HW280459   4.166   7.846   8.702
59543SOL     OW80460  12.834  11.791   0.163
59543SOL    HW180461  12.773  11.729   0.122
59543SOL    HW280462  12.908  11.795   0.102
59544SOL     OW80463  10.636   6.659  13.382
59544SOL    HW180464  10.730   6.645  13.372
59544SOL    HW280465  10.620   6.741  13.336
59545SOL     OW80466  12.990   3.298  13.927
59545SOL    HW180467  12.952   3.340  14.004
59545SOL    HW280468  12.923   3.237  13.896
59546SOL     OW80469  10.637   6.645   5.770
59546SOL    HW180470  10.731   6.646   5.788
59546SOL    HW280471  10.603   6.570   5.820
59547SOL     OW80472  14.679   7.620  12.468
59547SOL    HW180473  14.703   7.593  12.557
59547SOL    HW280474  14.701   7.713  12.466
59548SOL     OW80475   0.927  13.839   9.831
59548SOL    HW180476   0.873  13.760   9.840
59548SOL    HW280477   1.003  13.823   9.886
59549SOL     OW80478   6.553   9.450   7.459
59549SOL    HW180479   6.633   9.500   7.474
59549SOL    HW280480   6.582   9.360   7.450
59550SOL     OW80481   7.895   3.990   2.883
59550SOL    HW180482   7.854   4.068   2.920
59550SOL    HW280483   7.966   4.024   2.828
59551SOL     OW80484  12.436   6.735  10.947
59551SOL    HW180485  12.512   6.786  10.916
59551SOL    HW280486  12.433   6.659  10.889
59552SOL     OW80487   4.994   2.651   5.400
59552SOL    HW180488   4.898   2.652   5.401
59552SOL    HW280489   5.016   2.607   5.319
59553SOL     OW80490  12.793   9.119   4.682
59553SOL    HW180491  12.704   9.153   4.677
59553SOL    HW280492  12.798   9.054   4.612
59554SOL     OW80493   7.157  13.463   9.204
59554SOL    HW180494   7.161  13.478   9.109
59554SOL    HW280495   7.179  13.370   9.214
59555SOL     OW80496   9.255   7.478   2.515
59555SOL    HW180497   9.302   7.536   2.455
59555SOL    HW280498   9.210   7.416   2.458
59556SOL     OW80499   6.960  11.198  12.067
59556SOL    HW180500   6.967  11.237  11.980
59556SOL    HW280501   7.041  11.223  12.111
59557SOL     OW80502  13.120   4.095   2.411
59557SOL    HW180503  13.031   4.071   2.386
59557SOL    HW280504  13.119   4.191   2.414
59558SOL     OW80505  11.600   3.489  12.562
59558SOL    HW180506  11.665   3.510  12.495
59558SOL    HW280507  11.628   3.540  12.638
59559SOL     OW80508   4.304   9.862   3.252
59559SOL    HW180509   4.328   9.854   3.344
59559SOL    HW280510   4.285   9.955   3.240
59560SOL     OW80511  14.021   6.076   4.117
59560SOL    HW180512  14.051   5.988   4.142
59560SOL    HW280513  14.087   6.135   4.154
59561SOL     OW80514  11.848   3.078  11.058
59561SOL    HW180515  11.874   3.084  10.966
59561SOL    HW280516  11.840   2.985  11.075
59562SOL     OW80517   3.031   0.306   5.069
59562SOL    HW180518   3.039   0.302   5.164
59562SOL    HW280519   2.964   0.241   5.048
59563SOL     OW80520   3.390   8.345   8.400
59563SOL    HW180521   3.482   8.320   8.405
59563SOL    HW280522   3.350   8.306   8.478
59564SOL     OW80523   5.517  11.917  10.939
59564SOL    HW180524   5.601  11.872  10.934
59564SOL    HW280525   5.536  12.006  10.912
59565SOL     OW80526  14.833   5.854   9.549
59565SOL    HW180527  14.786   5.770   9.548
59565SOL    HW280528  14.764   5.920   9.535
59566SOL     OW80529  12.270   1.009   2.598
59566SOL    HW180530  12.193   0.954   2.584
59566SOL    HW280531  12.307   1.020   2.511
59567SOL     OW80532   1.719  13.365   7.691
59567SOL    HW180533   1.723  13.434   7.757
59567SOL    HW280534   1.787  13.302   7.718
59568SOL     OW80535   6.274   4.913  13.765
59568SOL    HW180536   6.215   4.868  13.705
59568SOL    HW280537   6.273   4.860  13.844
59569SOL     OW80538  13.334   2.472  12.974
59569SOL    HW180539  13.244   2.439  12.977
59569SOL    HW280540  13.342   2.527  13.052
59570SOL     OW80541   2.859  11.696   1.997
59570SOL    HW180542   2.839  11.710   2.090
59570SOL    HW280543   2.891  11.606   1.993
59571SOL     OW80544  13.138   6.529   8.097
59571SOL    HW180545  13.076   6.467   8.136
59571SOL    HW280546  13.097   6.554   8.014
59572SOL     OW80547  14.345   2.055   3.066
59572SOL    HW180548  14.268   2.098   3.030
59572SOL    HW280549  14.407   2.049   2.993
59573SOL     OW80550   5.501  14.628   1.407
59573SOL    HW180551   5.477  14.655   1.319
59573SOL    HW280552   5.549  14.546   1.395
59574SOL     OW80553   7.895   7.399  11.897
59574SOL    HW180554   7.953   7.467  11.863
59574SOL    HW280555   7.934   7.374  11.981
59575SOL     OW80556   4.294   4.767   4.258
59575SOL    HW180557   4.320   4.696   4.316
59575SOL    HW280558   4.202   4.749   4.238
59576SOL     OW80559   6.175   9.418   5.928
59576SOL    HW180560   6.234   9.404   5.854
59576SOL    HW280561   6.233   9.419   6.005
59577SOL     OW80562   5.485   8.248   2.990
59577SOL    HW180563   5.518   8.163   2.961
59577SOL    HW280564   5.559   8.308   2.980
59578SOL     OW80565   6.868   0.919  13.713
59578SOL    HW180566   6.872   0.926  13.617
59578SOL    HW280567   6.932   0.851  13.734
59579SOL     OW80568   4.180  13.200   7.310
59579SOL    HW180569   4.134  13.122   7.342
59579SOL    HW280570   4.115  13.247   7.258
59580SOL     OW80571  13.711   7.425  12.919
59580SOL    HW180572  13.737   7.363  12.987
59580SOL    HW280573  13.714   7.510  12.961
59581SOL     OW80574   9.853   1.976   0.888
59581SOL    HW180575   9.920   1.930   0.839
59581SOL    HW280576   9.771   1.935   0.863
59582SOL     OW80577  13.981   4.044   6.820
59582SOL    HW180578  14.062   4.035   6.770
59582SOL    HW280579  13.993   4.125   6.870
59583SOL     OW80580  14.098   9.983  14.550
59583SOL    HW180581  14.026  10.046  14.548
59583SOL    HW280582  14.117   9.967  14.457
59584SOL     OW80583  12.586   4.186   5.305
59584SOL    HW180584  12.529   4.151   5.237
59584SOL    HW280585  12.641   4.251   5.260
59585SOL     OW80586   6.048   4.266   0.580
59585SOL    HW180587   6.138   4.300   0.586
59585SOL    HW280588   6.002   4.329   0.525
59586SOL     OW80589   3.963  14.522   3.621
59586SOL    HW180590   3.949  14.581   3.547
59586SOL    HW280591   3.976  14.580   3.696
59587SOL     OW80592   7.838  10.716   5.633
59587SOL    HW180593   7.889  10.776   5.687
59587SOL    HW280594   7.805  10.650   5.694
59588SOL     OW80595  10.085   7.073  14.386
59588SOL    HW180596  10.109   7.079  14.293
59588SOL    HW280597  10.156   7.022  14.425
59589SOL     OW80598  14.376   5.686  13.177
59589SOL    HW180599  14.332   5.676  13.262
59589SOL    HW280600  14.451   5.742  13.196
59590SOL     OW80601   9.631   4.656  11.145
59590SOL    HW180602   9.540   4.664  11.174
59590SOL    HW280603   9.662   4.575  11.184
59591SOL     OW80604   6.845  13.651   4.951
59591SOL    HW180605   6.777  13.710   4.919
59591SOL    HW280606   6.872  13.602   4.873
59592SOL     OW80607   0.299  11.193  11.364
59592SOL    HW180608   0.246  11.128  11.317
59592SOL    HW280609   0.235  11.256  11.397
59593SOL     OW80610   8.649   1.253   2.458
59593SOL    HW180611   8.663   1.159   2.451
59593SOL    HW280612   8.579   1.263   2.522
59594SOL     OW80613   2.524   3.536  12.125
59594SOL    HW180614   2.438   3.575  12.106
59594SOL    HW280615   2.515   3.444  12.099
59595SOL     OW80616   7.412  10.709   3.965
59595SOL    HW180617   7.398  10.801   3.986
59595SOL    HW280618   7.501  10.705   3.930
59596SOL     OW80619   9.800  12.501  11.280
59596SOL    HW180620   9.712  12.531  11.256
59596SOL    HW280621   9.798  12.407  11.266
59597SOL     OW80622   8.897  13.985   6.788
59597SOL    HW180623   8.907  14.080   6.794
59597SOL    HW280624   8.910  13.954   6.877
59598SOL     OW80625   9.700   9.889   3.607
59598SOL    HW180626   9.678   9.979   3.628
59598SOL    HW280627   9.669   9.838   3.683
59599SOL     OW80628  12.496  14.590   9.935
59599SOL    HW180629  12.457  14.577   9.849
59599SOL    HW280630  12.427  14.632   9.986
59600SOL     OW80631   9.655   2.999  14.097
59600SOL    HW180632   9.672   2.948  14.176
59600SOL    HW280633   9.739   3.042  14.077
59601SOL     OW80634   1.001   9.213  12.550
59601SOL    HW180635   0.994   9.159  12.629
59601SOL    HW280636   0.956   9.161  12.482
59602SOL     OW80637   8.600  10.709   5.069
59602SOL    HW180638   8.616  10.616   5.087
59602SOL    HW280639   8.506  10.719   5.081
59603SOL     OW80640  11.751   1.699   4.153
59603SOL    HW180641  11.726   1.791   4.149
59603SOL    HW280642  11.830   1.693   4.099
59604SOL     OW80643  12.217   8.352  14.242
59604SOL    HW180644  12.256   8.265  14.232
59604SOL    HW280645  12.201   8.382  14.152
59605SOL     OW80646   7.397   6.549   4.450
59605SOL    HW180647   7.400   6.645   4.456
59605SOL    HW280648   7.427   6.530   4.362
59606SOL     OW80649   2.541   8.478   8.451
59606SOL    HW180650   2.542   8.455   8.544
59606SOL    HW280651   2.449   8.486   8.429
59607SOL     OW80652   1.682   9.203   5.754
59607SOL    HW180653   1.727   9.287   5.768
59607SOL    HW280654   1.747   9.149   5.710
59608SOL     OW80655   0.171   8.475   9.512
59608SOL    HW180656   0.098   8.455   9.453
59608SOL    HW280657   0.242   8.502   9.454
59609SOL     OW80658   1.670  10.758   3.516
59609SOL    HW180659   1.678  10.762   3.611
59609SOL    HW280660   1.617  10.681   3.499
59610SOL     OW80661   3.711   6.024   6.170
59610SOL    HW180662   3.648   6.096   6.162
59610SOL    HW280663   3.672   5.964   6.233
59611SOL     OW80664   0.448  14.648  11.102
59611SOL    HW180665   0.396  14.698  11.039
59611SOL    HW280666   0.464  14.709  11.174
59612SOL     OW80667  14.631  14.113   0.728
59612SOL    HW180668  14.684  14.193   0.722
59612SOL    HW280669  14.598  14.099   0.640
59613SOL     OW80670   7.269   6.819  10.841
59613SOL    HW180671   7.206   6.760  10.799
59613SOL    HW280672   7.250   6.812  10.934
59614SOL     OW80673   0.563   4.056   7.514
59614SOL    HW180674   0.583   3.992   7.447
59614SOL    HW280675   0.557   4.005   7.595
59615SOL     OW80676  11.559   6.684  13.562
59615SOL    HW180677  11.566   6.645  13.475
59615SOL    HW280678  11.467   6.706  13.571
59616SOL     OW80679   4.816   5.402   6.157
59616SOL    HW180680   4.893   5.456   6.137
59616SOL    HW280681   4.846   5.312   6.145
59617SOL     OW80682  12.224   2.866   9.103
59617SOL    HW180683  12.148   2.810   9.085
59617SOL    HW280684  12.197   2.920   9.177
59618SOL     OW80685   7.990  11.895   7.432
59618SOL    HW180686   7.931  11.934   7.496
59618SOL    HW280687   8.065  11.865   7.484
59619SOL     OW80688  10.151   7.799  10.666
59619SOL    HW180689  10.222   7.735  10.674
59619SOL    HW280690  10.155   7.828  10.575
59620SOL     OW80691  14.402   4.529   0.435
59620SOL    HW180692  14.432   4.609   0.479
59620SOL    HW280693  14.483   4.485   0.408
59621SOL     OW80694   7.401  13.557   4.570
59621SOL    HW180695   7.339  13.507   4.622
59621SOL    HW280696   7.379  13.649   4.588
59622SOL     OW80697  10.518   9.807   5.201
59622SOL    HW180698  10.542   9.777   5.113
59622SOL    HW280699  10.595   9.792   5.254
59623SOL     OW80700   1.841  12.824   6.970
59623SOL    HW180701   1.837  12.920   6.965
59623SOL    HW280702   1.765  12.795   6.920
59624SOL     OW80703  12.183   1.438   1.501
59624SOL    HW180704  12.145   1.353   1.476
59624SOL    HW280705  12.271   1.435   1.465
59625SOL     OW80706  12.152   6.724   3.446
59625SOL    HW180707  12.107   6.705   3.528
59625SOL    HW280708  12.231   6.771   3.472
59626SOL     OW80709   3.809   5.923   2.646
59626SOL    HW180710   3.766   5.899   2.564
59626SOL    HW280711   3.742   5.911   2.713
59627SOL     OW80712   7.547   9.922   8.476
59627SOL    HW180713   7.602   9.857   8.431
59627SOL    HW280714   7.542   9.890   8.567
59628SOL     OW80715  13.936  11.604   7.489
59628SOL    HW180716  13.883  11.627   7.413
59628SOL    HW280717  13.940  11.508   7.487
59629SOL     OW80718  10.442  13.363  11.532
59629SOL    HW180719  10.385  13.308  11.478
59629SOL    HW280720  10.415  13.453  11.511
59630SOL     OW80721   3.705  11.840  14.510
59630SOL    HW180722   3.755  11.887  14.576
59630SOL    HW280723   3.614  11.844  14.540
59631SOL     OW80724   4.568  12.819  10.513
59631SOL    HW180725   4.593  12.890  10.571
59631SOL    HW280726   4.518  12.759  10.568
59632SOL     OW80727   6.751   6.278   5.042
59632SOL    HW180728   6.711   6.271   5.129
59632SOL    HW280729   6.845   6.275   5.059
59633SOL     OW80730   6.494  12.722   6.296
59633SOL    HW180731   6.569  12.776   6.319
59633SOL    HW280732   6.465  12.756   6.211
59634SOL     OW80733   6.815   8.831   9.128
59634SOL    HW180734   6.796   8.770   9.199
59634SOL    HW280735   6.857   8.778   9.060
59635SOL     OW80736  10.676  14.264   2.995
59635SOL    HW180737  10.697  14.191   3.052
59635SOL    HW280738  10.586  14.248   2.967
59636SOL     OW80739  11.725   0.841   3.148
59636SOL    HW180740  11.683   0.892   3.217
59636SOL    HW280741  11.819   0.860   3.158
59637SOL     OW80742  13.964   8.952   8.306
59637SOL    HW180743  14.025   9.024   8.286
59637SOL    HW280744  13.930   8.973   8.393
59638SOL     OW80745  14.729   0.283   4.354
59638SOL    HW180746  14.732   0.354   4.418
59638SOL    HW280747  14.760   0.323   4.273
59639SOL     OW80748   7.818   7.178  10.794
59639SOL    HW180749   7.790   7.220  10.713
59639SOL    HW280750   7.905   7.143  10.774
59640SOL     OW80751   7.683   2.823   9.978
59640SOL    HW180752   7.708   2.807   9.887
59640SOL    HW280753   7.747   2.886  10.010
59641SOL     OW80754   6.298   2.528   3.572
59641SOL    HW180755   6.384   2.555   3.540
59641SOL    HW280756   6.295   2.433   3.555
59642SOL     OW80757   5.444   4.199   8.673
59642SOL    HW180758   5.468   4.112   8.640
59642SOL    HW280759   5.365   4.184   8.724
59643SOL     OW80760   0.314  14.607   1.101
59643SOL    HW180761   0.241  14.557   1.137
59643SOL    HW280762   0.374  14.541   1.068
59644SOL     OW80763  10.761  12.227  10.314
59644SOL    HW180764  10.689  12.214  10.376
59644SOL    HW280765  10.742  12.311  10.273
59645SOL     OW80766   3.132   1.514   2.088
59645SOL    HW180767   3.137   1.475   2.175
59645SOL    HW280768   3.222   1.537   2.066
59646SOL     OW80769   4.576  14.848   9.925
59646SOL    HW180770   4.509   0.030   9.966
59646SOL    HW280771   4.598   0.021   9.844
59647SOL     OW80772   9.678   3.549  12.880
59647SOL    HW180773   9.601   3.599  12.854
59647SOL    HW280774   9.748   3.613  12.884
59648SOL     OW80775   4.023   2.897   5.077
59648SOL    HW180776   4.008   2.832   5.145
59648SOL    HW280777   3.969   2.972   5.103
59649SOL     OW80778   8.281   8.781  12.423
59649SOL    HW180779   8.222   8.795  12.497
59649SOL    HW280780   8.305   8.689  12.428
59650SOL     OW80781   5.732   3.182   0.476
59650SOL    HW180782   5.807   3.124   0.489
59650SOL    HW280783   5.679   3.170   0.554
59651SOL     OW80784   3.981   5.640  13.752
59651SOL    HW180785   4.074   5.631  13.774
59651SOL    HW280786   3.941   5.559  13.783
59652SOL     OW80787  11.977  13.682   6.343
59652SOL    HW180788  12.006  13.769   6.315
59652SOL    HW280789  12.016  13.671   6.430
59653SOL     OW80790   7.181   4.870   8.220
59653SOL    HW180791   7.194   4.908   8.132
59653SOL    HW280792   7.205   4.941   8.280
59654SOL     OW80793   3.059   4.155   1.777
59654SOL    HW180794   3.077   4.065   1.751
59654SOL    HW280795   2.966   4.167   1.760
59655SOL     OW80796   2.199   2.803   1.075
59655SOL    HW180797   2.274   2.763   1.119
59655SOL    HW280798   2.169   2.871   1.135
59656SOL     OW80799  10.220   4.920   5.509
59656SOL    HW180800  10.233   5.014   5.506
59656SOL    HW280801  10.151   4.907   5.575
59657SOL     OW80802   4.964   6.246   7.681
59657SOL    HW180803   4.911   6.241   7.602
59657SOL    HW280804   4.939   6.329   7.722
59658SOL     OW80805   9.356   2.032   5.115
59658SOL    HW180806   9.324   1.963   5.057
59658SOL    HW280807   9.427   1.991   5.164
59659SOL     OW80808  10.082   7.107  14.086
59659SOL    HW180809  10.115   7.169  14.022
59659SOL    HW280810  10.078   7.023  14.040
59660SOL     OW80811  13.703  11.574   6.981
59660SOL    HW180812  13.777  11.515   6.995
59660SOL    HW280813  13.743  11.659   6.965
59661SOL     OW80814   5.938  12.690  12.570
59661SOL    HW180815   5.921  12.620  12.507
59661SOL    HW280816   5.893  12.767  12.533
59662SOL     OW80817   6.611   0.159   9.096
59662SOL    HW180818   6.591   0.141   9.188
59662SOL    HW280819   6.704   0.178   9.094
59663SOL     OW80820   4.371  12.835  14.581
59663SOL    HW180821   4.360  12.766  14.516
59663SOL    HW280822   4.282  12.856  14.608
59664SOL     OW80823   1.337  11.869  10.876
59664SOL    HW180824   1.418  11.919  10.884
59664SOL    HW280825   1.360  11.795  10.820
59665SOL     OW80826  13.084   4.005   0.274
59665SOL    HW180827  13.058   3.914   0.281
59665SOL    HW280828  13.164   4.003   0.220
59666SOL     OW80829   9.164  13.467  11.848
59666SOL    HW180830   9.224  13.447  11.920
59666SOL    HW280831   9.155  13.384  11.801
59667SOL     OW80832  10.121   7.641  12.360
59667SOL    HW180833  10.164   7.726  12.364
59667SOL    HW280834  10.087   7.635  12.271
59668SOL     OW80835   8.396  10.294   5.274
59668SOL    HW180836   8.301  10.306   5.275
59668SOL    HW280837   8.413  10.231   5.345
59669SOL     OW80838   8.156   3.089  10.825
59669SOL    HW180839   8.072   3.106  10.783
59669SOL    HW280840   8.219   3.092  10.753
59670SOL     OW80841   8.299   7.578   7.221
59670SOL    HW180842   8.374   7.614   7.174
59670SOL    HW280843   8.259   7.653   7.264
59671SOL     OW80844  12.218   2.802   7.891
59671SOL    HW180845  12.232   2.710   7.916
59671SOL    HW280846  12.272   2.813   7.812
59672SOL     OW80847   9.006  13.990   2.532
59672SOL    HW180848   8.952  14.018   2.458
59672SOL    HW280849   9.064  14.065   2.548
59673SOL     OW80850   0.321   2.465   9.299
59673SOL    HW180851   0.267   2.496   9.227
59673SOL    HW280852   0.290   2.376   9.316
59674SOL     OW80853   9.773   7.852   0.034
59674SOL    HW180854   9.734   7.871  14.821
59674SOL    HW280855   9.831   7.777   0.018
59675SOL     OW80856   0.845  14.447   1.414
59675SOL    HW180857   0.909  14.467   1.482
59675SOL    HW280858   0.772  14.506   1.431
59676SOL     OW80859  10.018   0.417   5.173
59676SOL    HW180860  10.038   0.372   5.092
59676SOL    HW280861  10.029   0.510   5.153
59677SOL     OW80862   3.087   3.564   8.354
59677SOL    HW180863   3.159   3.562   8.291
59677SOL    HW280864   3.122   3.613   8.429
59678SOL     OW80865  13.301  11.689  11.223
59678SOL    HW180866  13.323  11.638  11.301
59678SOL    HW280867  13.239  11.633  11.175
59679SOL     OW80868   3.109  13.766   7.542
59679SOL    HW180869   3.130  13.853   7.507
59679SOL    HW280870   3.063  13.722   7.471
59680SOL     OW80871   1.041   7.187  14.708
59680SOL    HW180872   0.977   7.251  14.677
59680SOL    HW280873   1.064   7.137  14.629
59681SOL     OW80874  13.457  13.252   2.878
59681SOL    HW180875  13.494  13.303   2.950
59681SOL    HW280876  13.476  13.305   2.800
59682SOL     OW80877   9.882   6.572   8.525
59682SOL    HW180878   9.937   6.508   8.480
59682SOL    HW280879   9.932   6.654   8.521
59683SOL     OW80880   0.018   8.127   1.804
59683SOL    HW180881   0.061   8.043   1.789
59683SOL    HW280882   0.005   8.164   1.716
59684SOL     OW80883   9.708   0.480   1.938
59684SOL    HW180884   9.775   0.413   1.924
59684SOL    HW280885   9.633   0.431   1.974
59685SOL     OW80886   8.616   2.975  13.748
59685SOL    HW180887   8.548   2.916  13.782
59685SOL    HW280888   8.574   3.021  13.675
59686SOL     OW80889   0.354   0.386   1.835
59686SOL    HW180890   0.332   0.478   1.846
59686SOL    HW280891   0.294   0.340   1.894
59687SOL     OW80892   1.981   4.749   7.623
59687SOL    HW180893   2.062   4.800   7.614
59687SOL    HW280894   1.976   4.729   7.717
59688SOL     OW80895  10.508  13.796   0.367
59688SOL    HW180896  10.555  13.759   0.441
59688SOL    HW280897  10.444  13.856   0.406
59689SOL     OW80898   8.363   5.824  10.888
59689SOL    HW180899   8.336   5.915  10.880
59689SOL    HW280900   8.307   5.776  10.827
59690SOL     OW80901  10.996  13.642   5.408
59690SOL    HW180902  10.977  13.631   5.315
59690SOL    HW280903  10.918  13.683   5.444
59691SOL     OW80904   5.699   6.044   1.058
59691SOL    HW180905   5.720   5.955   1.086
59691SOL    HW280906   5.604   6.052   1.072
59692SOL     OW80907  13.179   5.032   1.442
59692SOL    HW180908  13.162   5.094   1.513
59692SOL    HW280909  13.094   5.022   1.398
59693SOL     OW80910   0.849  10.245   5.783
59693SOL    HW180911   0.877  10.325   5.828
59693SOL    HW280912   0.755  10.256   5.770
59694SOL     OW80913   2.559   3.675   0.013
59694SOL    HW180914   2.515   3.758   0.030
59694SOL    HW280915   2.581   3.641   0.099
59695SOL     OW80916   3.689   8.018   1.746
59695SOL    HW180917   3.608   7.972   1.770
59695SOL    HW280918   3.758   7.972   1.792
59696SOL     OW80919   4.729  12.079  11.223
59696SOL    HW180920   4.661  12.145  11.236
59696SOL    HW280921   4.738  12.072  11.128
59697SOL     OW80922  12.416   0.702   1.144
59697SOL    HW180923  12.375   0.648   1.076
59697SOL    HW280924  12.413   0.791   1.110
59698SOL     OW80925  12.579   1.084   9.033
59698SOL    HW180926  12.614   1.021   8.971
59698SOL    HW280927  12.492   1.052   9.055
59699SOL     OW80928   6.588   2.818   6.273
59699SOL    HW180929   6.596   2.885   6.341
59699SOL    HW280930   6.639   2.852   6.200
59700SOL     OW80931  11.746   6.839   5.107
59700SOL    HW180932  11.781   6.926   5.089
59700SOL    HW280933  11.777   6.785   5.034
59701SOL     OW80934  12.862   4.935   3.064
59701SOL    HW180935  12.947   4.925   3.021
59701SOL    HW280936  12.871   5.013   3.118
59702SOL     OW80937   7.734   9.191   3.922
59702SOL    HW180938   7.662   9.134   3.948
59702SOL    HW280939   7.703   9.233   3.842
59703SOL     OW80940  14.567   8.961   0.306
59703SOL    HW180941  14.495   8.976   0.367
59703SOL    HW280942  14.645   8.991   0.354
59704SOL     OW80943   1.806   7.184   1.170
59704SOL    HW180944   1.844   7.140   1.247
59704SOL    HW280945   1.804   7.116   1.103
59705SOL     OW80946   5.546   5.694   6.782
59705SOL    HW180947   5.546   5.788   6.760
59705SOL    HW280948   5.611   5.656   6.723
59706SOL     OW80949  13.492  10.947   5.247
59706SOL    HW180950  13.562  10.886   5.223
59706SOL    HW280951  13.501  11.018   5.183
59707SOL     OW80952   5.956  12.202   9.367
59707SOL    HW180953   5.923  12.121   9.327
59707SOL    HW280954   5.888  12.267   9.350
59708SOL     OW80955   6.827  12.344   0.716
59708SOL    HW180956   6.796  12.272   0.660
59708SOL    HW280957   6.875  12.300   0.786
59709SOL     OW80958  12.172  13.448  10.232
59709SOL    HW180959  12.241  13.381  10.230
59709SOL    HW280960  12.208  13.516  10.290
59710SOL     OW80961   2.342   1.475   5.781
59710SOL    HW180962   2.267   1.427   5.817
59710SOL    HW280963   2.408   1.408   5.766
59711SOL     OW80964   5.368   2.781  13.121
59711SOL    HW180965   5.401   2.696  13.151
59711SOL    HW280966   5.308   2.760  13.049
59712SOL     OW80967  10.836  10.622   9.905
59712SOL    HW180968  10.892  10.644   9.980
59712SOL    HW280969  10.869  10.676   9.833
59713SOL     OW80970  14.852   4.036   8.981
59713SOL    HW180971  14.822   4.021   9.070
59713SOL    HW280972  14.771   4.051   8.931
59714SOL     OW80973   1.835   7.681  14.817
59714SOL    HW180974   1.906   7.616  14.817
59714SOL    HW280975   1.839   7.720  14.730
59715SOL     OW80976   9.063  11.504  10.483
59715SOL    HW180977   9.089  11.413  10.496
59715SOL    HW280978   9.022  11.530  10.566
59716SOL     OW80979   9.492  10.537   0.255
59716SOL    HW180980   9.526  10.506   0.339
59716SOL    HW280981   9.425  10.473   0.232
59717SOL     OW80982   1.799   0.137   4.360
59717SOL    HW180983   1.723   0.193   4.381
59717SOL    HW280984   1.762   0.050   4.349
59718SOL     OW80985  12.069   9.740   4.470
59718SOL    HW180986  12.062   9.786   4.554
59718SOL    HW280987  12.158   9.759   4.439
59719SOL     OW80988  11.582   5.159   1.220
59719SOL    HW180989  11.496   5.187   1.252
59719SOL    HW280990  11.644   5.193   1.284
59720SOL     OW80991   8.939   8.972   3.223
59720SOL    HW180992   8.928   8.928   3.307
59720SOL    HW280993   9.008   8.922   3.178
59721SOL     OW80994   3.668  11.070   2.990
59721SOL    HW180995   3.670  11.002   3.058
59721SOL    HW280996   3.744  11.051   2.935
59722SOL     OW80997  12.333   3.898   7.797
59722SOL    HW180998  12.302   3.816   7.834
59722SOL    HW280999  12.373   3.944   7.871
59723SOL     OW81000   1.874   1.838   6.413
59723SOL    HW181001   1.954   1.853   6.462
59723SOL    HW281002   1.816   1.792   6.474
59724SOL     OW81003  10.661   6.394   2.711
59724SOL    HW181004  10.715   6.393   2.632
59724SOL    HW281005  10.615   6.478   2.707
59725SOL     OW81006   7.961   6.719   8.263
59725SOL    HW181007   7.973   6.791   8.324
59725SOL    HW281008   8.033   6.659   8.282
59726SOL     OW81009   9.287  14.282  11.780
59726SOL    HW181010   9.327  14.354  11.731
59726SOL    HW281011   9.200  14.314  11.804
59727SOL     OW81012  11.521  14.831   4.125
59727SOL    HW181013  11.466   0.030   4.091
59727SOL    HW281014  11.588  14.818   4.058
59728SOL     OW81015  12.960  13.371   3.702
59728SOL    HW181016  12.867  13.356   3.682
59728SOL    HW281017  12.998  13.397   3.618
59729SOL     OW81018   1.586   7.953   1.785
59729SOL    HW181019   1.507   7.900   1.790
59729SOL    HW281020   1.612   7.966   1.876
59730SOL     OW81021  13.034  11.472   2.496
59730SOL    HW181022  12.948  11.477   2.453
59730SOL    HW281023  13.070  11.388   2.467
59731SOL     OW81024   3.904  10.004   5.408
59731SOL    HW181025   3.839  10.071   5.385
59731SOL    HW281026   3.988  10.049   5.401
59732SOL     OW81027  11.755   6.724   7.428
59732SOL    HW181028  11.663   6.702   7.443
59732SOL    HW281029  11.754   6.784   7.353
59733SOL     OW81030   5.433   4.596  10.243
59733SOL    HW181031   5.364   4.586  10.178
59733SOL    HW281032   5.473   4.680  10.222
59734SOL     OW81033   3.076   2.079   3.004
59734SOL    HW181034   3.002   2.110   2.952
59734SOL    HW281035   3.062   2.116   3.091
59735SOL     OW81036   9.835   5.013   8.872
59735SOL    HW181037   9.836   5.006   8.777
59735SOL    HW281038   9.816   4.924   8.903
59736SOL     OW81039   0.904  10.399  10.369
59736SOL    HW181040   0.979  10.434  10.416
59736SOL    HW281041   0.907  10.305  10.386
59737SOL     OW81042   5.792   5.915   4.582
59737SOL    HW181043   5.843   5.947   4.507
59737SOL    HW281044   5.838   5.949   4.659
59738SOL     OW81045   1.966  11.427  14.047
59738SOL    HW181046   1.938  11.362  14.111
59738SOL    HW281047   1.909  11.414  13.972
59739SOL     OW81048  12.683  11.582   8.498
59739SOL    HW181049  12.740  11.657   8.483
59739SOL    HW281050  12.650  11.559   8.411
59740SOL     OW81051   1.777   0.031   7.390
59740SOL    HW181052   1.756   0.100   7.327
59740SOL    HW281053   1.738   0.062   7.472
59741SOL     OW81054   4.941   8.268   2.697
59741SOL    HW181055   4.999   8.339   2.724
59741SOL    HW281056   4.996   8.190   2.702
59742SOL     OW81057  14.321   1.479  11.564
59742SOL    HW181058  14.253   1.473  11.497
59742SOL    HW281059  14.344   1.389  11.584
59743SOL     OW81060  12.144   3.634  12.324
59743SOL    HW181061  12.106   3.702  12.381
59743SOL    HW281062  12.093   3.639  12.243
59744SOL     OW81063  14.719   8.272   3.236
59744SOL    HW181064  14.694   8.307   3.151
59744SOL    HW281065  14.643   8.290   3.292
59745SOL     OW81066  14.447   9.303   4.625
59745SOL    HW181067  14.385   9.347   4.683
59745SOL    HW281068  14.434   9.209   4.642
59746SOL     OW81069   7.079  11.196   6.043
59746SOL    HW181070   7.005  11.216   6.101
59746SOL    HW281071   7.138  11.270   6.052
59747SOL     OW81072   5.973  14.184   4.346
59747SOL    HW181073   5.944  14.243   4.277
59747SOL    HW281074   5.893  14.159   4.392
59748SOL     OW81075  10.096   0.353   4.559
59748SOL    HW181076  10.014   0.307   4.541
59748SOL    HW281077  10.078   0.405   4.638
59749SOL     OW81078   8.126   6.296   6.765
59749SOL    HW181079   8.035   6.317   6.746
59749SOL    HW281080   8.122   6.237   6.840
59750SOL     OW81081   9.882   9.752   7.403
59750SOL    HW181082   9.887   9.721   7.493
59750SOL    HW281083   9.896   9.673   7.350
59751SOL     OW81084   2.947   6.733  11.204
59751SOL    HW181085   2.900   6.651  11.195
59751SOL    HW281086   2.903   6.778  11.276
59752SOL     OW81087   8.290   7.635   9.718
59752SOL    HW181088   8.304   7.554   9.669
59752SOL    HW281089   8.247   7.607   9.799
59753SOL     OW81090  10.041  12.725   8.875
59753SOL    HW181091   9.994  12.642   8.885
59753SOL    HW281092  10.109  12.721   8.942
59754SOL     OW81093   5.640   4.678   1.445
59754SOL    HW181094   5.635   4.589   1.409
59754SOL    HW281095   5.715   4.718   1.401
59755SOL     OW81096   5.064   9.768   5.152
59755SOL    HW181097   5.019   9.706   5.094
59755SOL    HW281098   5.026   9.752   5.238
59756SOL     OW81099   3.907   6.156   6.342
59756SOL    HW181100   3.966   6.085   6.315
59756SOL    HW281101   3.835   6.152   6.279
59757SOL     OW81102   8.364  10.527  13.227
59757SOL    HW181103   8.336  10.521  13.318
59757SOL    HW281104   8.291  10.567  13.181
59758SOL     OW81105   4.645   5.408  11.246
59758SOL    HW181106   4.652   5.382  11.338
59758SOL    HW281107   4.657   5.503  11.247
59759SOL     OW81108  10.054   9.508  12.972
59759SOL    HW181109  10.040   9.597  13.004
59759SOL    HW281110  10.065   9.518  12.877
59760SOL     OW81111  11.496   0.550   8.689
59760SOL    HW181112  11.487   0.455   8.700
59760SOL    HW281113  11.508   0.583   8.779
59761SOL     OW81114   3.735   1.694   9.229
59761SOL    HW181115   3.701   1.783   9.231
59761SOL    HW281116   3.693   1.650   9.303
59762SOL     OW81117   6.369   0.049  12.663
59762SOL    HW181118   6.306   0.074  12.731
59762SOL    HW281119   6.364  14.826  12.660
59763SOL     OW81120  11.552  12.389   4.861
59763SOL    HW181121  11.544  12.303   4.818
59763SOL    HW281122  11.476  12.393   4.920
59764SOL     OW81123   7.364   8.679  10.121
59764SOL    HW181124   7.452   8.711  10.140
59764SOL    HW281125   7.349   8.701  10.029
59765SOL     OW81126   2.461   9.213  13.623
59765SOL    HW181127   2.463   9.191  13.717
59765SOL    HW281128   2.425   9.302  13.621
59766SOL     OW81129  14.286   2.157  13.611
59766SOL    HW181130  14.316   2.109  13.533
59766SOL    HW281131  14.300   2.096  13.683
59767SOL     OW81132   4.278  11.433  10.211
59767SOL    HW181133   4.263  11.372  10.284
59767SOL    HW281134   4.278  11.520  10.252
59768SOL     OW81135   3.987   3.964   8.236
59768SOL    HW181136   3.933   3.908   8.292
59768SOL    HW281137   4.004   4.042   8.289
59769SOL     OW81138   6.810   7.213   7.136
59769SOL    HW181139   6.890   7.175   7.101
59769SOL    HW281140   6.768   7.255   7.061
59770SOL     OW81141  13.436  13.007   4.358
59770SOL    HW181142  13.483  13.056   4.290
59770SOL    HW281143  13.355  13.057   4.371
59771SOL     OW81144   0.555  13.992  12.098
59771SOL    HW181145   0.555  13.896  12.105
59771SOL    HW281146   0.604  14.021  12.176
59772SOL     OW81147   4.359   6.557  10.255
59772SOL    HW181148   4.444   6.533  10.217
59772SOL    HW281149   4.329   6.476  10.296
59773SOL     OW81150   5.065  11.622  10.412
59773SOL    HW181151   5.148  11.639  10.368
59773SOL    HW281152   5.013  11.574  10.348
59774SOL     OW81153   8.518   3.118  14.749
59774SOL    HW181154   8.560   3.196  14.714
59774SOL    HW281155   8.465   3.150  14.822
59775SOL     OW81156  11.395  13.243  10.915
59775SOL    HW181157  11.302  13.224  10.928
59775SOL    HW281158  11.440  13.189  10.981
59776SOL     OW81159  12.436   6.841  10.608
59776SOL    HW181160  12.455   6.787  10.685
59776SOL    HW281161  12.435   6.930  10.641
59777SOL     OW81162  14.856   6.281   3.852
59777SOL    HW181163   0.001   6.187   3.852
59777SOL    HW281164  14.762   6.288   3.869
59778SOL     OW81165  12.798   1.813   8.067
59778SOL    HW181166  12.772   1.860   7.988
59778SOL    HW281167  12.856   1.743   8.034
59779SOL     OW81168   8.140   7.592   5.937
59779SOL    HW181169   8.164   7.504   5.966
59779SOL    HW281170   8.167   7.649   6.009
59780SOL     OW81171   7.409  12.599  14.389
59780SOL    HW181172   7.410  12.588  14.294
59780SOL    HW281173   7.501  12.604  14.414
59781SOL     OW81174   6.010  10.553  10.552
59781SOL    HW181175   5.948  10.530  10.483
59781SOL    HW281176   6.087  10.584  10.505
59782SOL     OW81177   5.242   0.241   9.592
59782SOL    HW181178   5.193   0.234   9.509
59782SOL    HW281179   5.294   0.161   9.596
59783SOL     OW81180   4.442  13.502  14.785
59783SOL    HW181181   4.370  13.474  14.842
59783SOL    HW281182   4.479  13.579  14.828
59784SOL     OW81183   4.573  11.626   3.757
59784SOL    HW181184   4.644  11.643   3.694
59784SOL    HW281185   4.595  11.679   3.833
59785SOL     OW81186   9.374   9.447   5.146
59785SOL    HW181187   9.404   9.524   5.195
59785SOL    HW281188   9.449   9.423   5.092
59786SOL     OW81189  11.961   9.994  11.674
59786SOL    HW181190  12.039  10.004  11.619
59786SOL    HW281191  11.891   9.972  11.612
59787SOL     OW81192  10.768   0.912  11.995
59787SOL    HW181193  10.688   0.860  12.005
59787SOL    HW281194  10.740   1.001  12.016
59788SOL     OW81195   4.632   7.573  14.228
59788SOL    HW181196   4.566   7.534  14.285
59788SOL    HW281197   4.653   7.657  14.268
59789SOL     OW81198   6.959   6.839   5.483
59789SOL    HW181199   6.919   6.877   5.405
59789SOL    HW281200   7.027   6.902   5.508
59790SOL     OW81201   2.742   2.945   4.817
59790SOL    HW181202   2.803   2.931   4.889
59790SOL    HW281203   2.681   3.011   4.850
59791SOL     OW81204  12.376  13.334  11.888
59791SOL    HW181205  12.298  13.292  11.924
59791SOL    HW281206  12.449  13.281  11.919
59792SOL     OW81207  11.721   1.505   8.839
59792SOL    HW181208  11.726   1.453   8.919
59792SOL    HW281209  11.703   1.442   8.770
59793SOL     OW81210   2.213   6.504   5.846
59793SOL    HW181211   2.231   6.537   5.934
59793SOL    HW281212   2.119   6.515   5.834
59794SOL     OW81213   5.026   5.984   5.711
59794SOL    HW181214   5.067   5.952   5.631
59794SOL    HW281215   5.027   5.910   5.770
59795SOL     OW81216   6.873   0.879  14.840
59795SOL    HW181217   6.929   0.826   0.024
59795SOL    HW281218   6.840   0.948   0.026
59796SOL     OW81219   0.857   6.393   5.996
59796SOL    HW181220   0.937   6.400   5.944
59796SOL    HW281221   0.791   6.440   5.945
59797SOL     OW81222   7.119   9.471   5.645
59797SOL    HW181223   7.166   9.432   5.571
59797SOL    HW281224   7.078   9.549   5.609
59798SOL     OW81225   9.083   8.845   4.011
59798SOL    HW181226   9.079   8.886   3.925
59798SOL    HW281227   9.080   8.751   3.993
59799SOL     OW81228  13.940   7.222  10.254
59799SOL    HW181229  13.956   7.131  10.227
59799SOL    HW281230  13.982   7.274  10.186
59800SOL     OW81231   2.488   3.643  12.460
59800SOL    HW181232   2.490   3.714  12.524
59800SOL    HW281233   2.477   3.686  12.376
59801SOL     OW81234   3.679   9.232   9.311
59801SOL    HW181235   3.715   9.164   9.255
59801SOL    HW281236   3.754   9.263   9.362
59802SOL     OW81237   5.053   0.981   0.555
59802SOL    HW181238   4.971   0.934   0.566
59802SOL    HW281239   5.113   0.916   0.516
59803SOL     OW81240   6.429  14.860   4.163
59803SOL    HW181241   6.434  14.846   4.258
59803SOL    HW281242   6.457   0.078   4.150
59804SOL     OW81243   7.427   1.214   8.489
59804SOL    HW181244   7.453   1.278   8.423
59804SOL    HW281245   7.456   1.252   8.572
59805SOL     OW81246   1.150   5.409   4.413
59805SOL    HW181247   1.170   5.316   4.410
59805SOL    HW281248   1.210   5.445   4.479
59806SOL     OW81249   1.033   2.415   9.859
59806SOL    HW181250   1.019   2.321   9.868
59806SOL    HW281251   1.055   2.445   9.947
59807SOL     OW81252  13.032   6.266   5.960
59807SOL    HW181253  13.000   6.189   6.006
59807SOL    HW281254  13.004   6.340   6.014
59808SOL     OW81255   0.170  13.126   4.959
59808SOL    HW181256   0.200  13.165   5.042
59808SOL    HW281257   0.084  13.089   4.980
59809SOL     OW81258  10.191   7.960  13.797
59809SOL    HW181259  10.258   7.950  13.729
59809SOL    HW281260  10.232   8.019  13.861
59810SOL     OW81261   0.671   5.420  11.329
59810SOL    HW181262   0.612   5.387  11.262
59810SOL    HW281263   0.639   5.382  11.411
59811SOL     OW81264   3.318  13.020   1.098
59811SOL    HW181265   3.346  13.064   1.018
59811SOL    HW281266   3.265  13.085   1.144
59812SOL     OW81267  10.076   0.599   4.780
59812SOL    HW181268  10.002   0.658   4.764
59812SOL    HW281269  10.146   0.633   4.725
59813SOL     OW81270  10.328   4.340   4.228
59813SOL    HW181271  10.307   4.253   4.263
59813SOL    HW281272  10.353   4.391   4.305
59814SOL     OW81273  13.756   7.122   2.293
59814SOL    HW181274  13.668   7.093   2.317
59814SOL    HW281275  13.802   7.041   2.270
59815SOL     OW81276   0.303   7.456   5.943
59815SOL    HW181277   0.283   7.507   5.865
59815SOL    HW281278   0.219   7.417   5.968
59816SOL     OW81279   6.695  11.083   2.327
59816SOL    HW181280   6.764  11.071   2.261
59816SOL    HW281281   6.678  10.995   2.359
59817SOL     OW81282   1.228   2.506  14.727
59817SOL    HW181283   1.147   2.456  14.718
59817SOL    HW281284   1.255   2.524  14.637
59818SOL     OW81285   4.364   7.998   9.371
59818SOL    HW181286   4.368   8.063   9.441
59818SOL    HW281287   4.382   7.915   9.416
59819SOL     OW81288   8.637   4.677   7.548
59819SOL    HW181289   8.679   4.763   7.551
59819SOL    HW281290   8.614   4.666   7.455
59820SOL     OW81291   8.610   4.166   7.730
59820SOL    HW181292   8.627   4.202   7.817
59820SOL    HW281293   8.530   4.210   7.701
59821SOL     OW81294   0.766   8.602   4.166
59821SOL    HW181295   0.830   8.570   4.103
59821SOL    HW281296   0.807   8.590   4.251
59822SOL     OW81297   7.444   4.945   1.741
59822SOL    HW181298   7.497   5.014   1.700
59822SOL    HW281299   7.377   4.993   1.790
59823SOL     OW81300   0.583   3.323  12.073
59823SOL    HW181301   0.590   3.378  12.151
59823SOL    HW281302   0.494   3.339  12.041
59824SOL     OW81303   9.680   2.209   7.982
59824SOL    HW181304   9.728   2.218   8.064
59824SOL    HW281305   9.731   2.262   7.919
59825SOL     OW81306   5.034   1.414  13.578
59825SOL    HW181307   5.014   1.345  13.641
59825SOL    HW281308   5.004   1.380  13.494
59826SOL     OW81309   2.597   5.948   8.583
59826SOL    HW181310   2.582   5.855   8.599
59826SOL    HW281311   2.611   5.986   8.670
59827SOL     OW81312  11.566   4.724   7.417
59827SOL    HW181313  11.571   4.633   7.388
59827SOL    HW281314  11.481   4.731   7.461
59828SOL     OW81315   4.471   7.264   0.548
59828SOL    HW181316   4.445   7.269   0.456
59828SOL    HW281317   4.460   7.353   0.581
59829SOL     OW81318   9.545  10.529   1.970
59829SOL    HW181319   9.628  10.528   1.922
59829SOL    HW281320   9.564  10.484   2.052
59830SOL     OW81321   3.995  13.233  13.487
59830SOL    HW181322   4.086  13.263  13.480
59830SOL    HW281323   3.949  13.305  13.531
59831SOL     OW81324   6.711  11.768  13.626
59831SOL    HW181325   6.758  11.702  13.576
59831SOL    HW281326   6.725  11.745  13.718
59832SOL     OW81327  11.615   6.697  10.359
59832SOL    HW181328  11.572   6.773  10.398
59832SOL    HW281329  11.548   6.656  10.305
59833SOL     OW81330   1.842   9.286   2.772
59833SOL    HW181331   1.908   9.259   2.708
59833SOL    HW281332   1.872   9.247   2.855
59834SOL     OW81333  13.761   2.211   0.277
59834SOL    HW181334  13.831   2.164   0.323
59834SOL    HW281335  13.727   2.273   0.341
59835SOL     OW81336   0.783   7.470   2.737
59835SOL    HW181337   0.821   7.382   2.737
59835SOL    HW281338   0.813   7.509   2.819
59836SOL     OW81339   5.609  10.185   6.837
59836SOL    HW181340   5.663  10.235   6.775
59836SOL    HW281341   5.536  10.243   6.857
59837SOL     OW81342   3.950  12.691  11.363
59837SOL    HW181343   3.881  12.627  11.385
59837SOL    HW281344   3.965  12.738  11.444
59838SOL     OW81345   2.220  14.817   2.649
59838SOL    HW181346   2.228  14.788   2.558
59838SOL    HW281347   2.305  14.858   2.668
59839SOL     OW81348   0.673   2.519  10.130
59839SOL    HW181349   0.709   2.454  10.190
59839SOL    HW281350   0.729   2.514  10.053
59840SOL     OW81351   3.730  10.365  14.302
59840SOL    HW181352   3.695  10.384  14.389
59840SOL    HW281353   3.799  10.430  14.289
59841SOL     OW81354   1.865  13.019  13.981
59841SOL    HW181355   1.861  13.096  13.925
59841SOL    HW281356   1.918  13.046  14.056
59842SOL     OW81357   9.931   0.100   5.297
59842SOL    HW181358   9.944   0.189   5.330
59842SOL    HW281359   9.871   0.060   5.360
59843SOL     OW81360   5.596  11.526   1.981
59843SOL    HW181361   5.687  11.556   1.989
59843SOL    HW281362   5.550  11.601   1.943
59844SOL     OW81363   3.131  12.221   2.511
59844SOL    HW181364   3.037  12.236   2.511
59844SOL    HW281365   3.142  12.132   2.479
59845SOL     OW81366  11.620  14.207   9.970
59845SOL    HW181367  11.548  14.268   9.988
59845SOL    HW281368  11.667  14.201  10.053
59846SOL     OW81369  13.381   1.297   7.668
59846SOL    HW181370  13.367   1.287   7.762
59846SOL    HW281371  13.453   1.237   7.649
59847SOL     OW81372   7.513   6.280   3.786
59847SOL    HW181373   7.535   6.301   3.695
59847SOL    HW281374   7.526   6.186   3.793
59848SOL     OW81375  14.300   4.092   4.726
59848SOL    HW181376  14.390   4.059   4.719
59848SOL    HW281377  14.279   4.087   4.819
59849SOL     OW81378   4.379   1.659   1.425
59849SOL    HW181379   4.395   1.631   1.334
59849SOL    HW281380   4.369   1.754   1.419
59850SOL     OW81381  11.007  14.507  14.319
59850SOL    HW181382  10.988  14.413  14.323
59850SOL    HW281383  10.972  14.534  14.234
59851SOL     OW81384   1.207   5.718   0.310
59851SOL    HW181385   1.147   5.644   0.314
59851SOL    HW281386   1.282   5.686   0.260
59852SOL     OW81387  10.151  10.363   0.496
59852SOL    HW181388  10.182  10.373   0.406
59852SOL    HW281389  10.056  10.374   0.490
59853SOL     OW81390   5.175  10.251   6.862
59853SOL    HW181391   5.118  10.270   6.937
59853SOL    HW281392   5.118  10.260   6.786
59854SOL     OW81393  13.657  12.374  14.814
59854SOL    HW181394  13.565  12.366  14.839
59854SOL    HW281395  13.662  12.457  14.765
59855SOL     OW81396   6.477   1.972   9.898
59855SOL    HW181397   6.509   1.938   9.813
59855SOL    HW281398   6.550   2.024   9.931
59856SOL     OW81399   6.631   5.214   8.043
59856SOL    HW181400   6.537   5.225   8.055
59856SOL    HW281401   6.666   5.303   8.038
59857SOL     OW81402  14.616   8.069   2.661
59857SOL    HW181403  14.622   8.032   2.573
59857SOL    HW281404  14.650   8.158   2.652
59858SOL     OW81405   6.536   8.121   3.770
59858SOL    HW181406   6.587   8.147   3.847
59858SOL    HW281407   6.571   8.035   3.746
59859SOL     OW81408   9.797   3.013   1.355
59859SOL    HW181409   9.860   3.069   1.310
59859SOL    HW281410   9.721   3.010   1.297
59860SOL     OW81411   8.264  14.018   6.117
59860SOL    HW181412   8.194  14.042   6.057
59860SOL    HW281413   8.308  13.945   6.074
59861SOL     OW81414   1.336   8.102  10.473
59861SOL    HW181415   1.251   8.085  10.513
59861SOL    HW281416   1.321   8.176  10.414
59862SOL     OW81417  12.003  11.518   2.753
59862SOL    HW181418  11.953  11.568   2.688
59862SOL    HW281419  12.010  11.576   2.828
59863SOL     OW81420   0.458   1.447   6.427
59863SOL    HW181421   0.472   1.361   6.467
59863SOL    HW281422   0.505   1.508   6.485
59864SOL     OW81423   1.372   5.435   8.088
59864SOL    HW181424   1.354   5.391   8.006
59864SOL    HW281425   1.292   5.425   8.139
59865SOL     OW81426   7.523  10.245  11.531
59865SOL    HW181427   7.534  10.225  11.438
59865SOL    HW281428   7.456  10.183  11.561
59866SOL     OW81429   7.604   4.188  14.105
59866SOL    HW181430   7.556   4.138  14.171
59866SOL    HW281431   7.693   4.193  14.139
59867SOL     OW81432   6.354   5.716   9.227
59867SOL    HW181433   6.392   5.630   9.208
59867SOL    HW281434   6.385   5.772   9.155
59868SOL     OW81435   8.021   2.179   4.430
59868SOL    HW181436   8.062   2.259   4.399
59868SOL    HW281437   7.932   2.181   4.394
59869SOL     OW81438  10.286   6.861   7.697
59869SOL    HW181439  10.206   6.859   7.750
59869SOL    HW281440  10.330   6.942   7.722
59870SOL     OW81441   7.563   8.819   9.151
59870SOL    HW181442   7.587   8.869   9.229
59870SOL    HW281443   7.595   8.872   9.078
59871SOL     OW81444   3.537   8.936  11.223
59871SOL    HW181445   3.608   8.995  11.250
59871SOL    HW281446   3.463   8.994  11.204
59872SOL     OW81447   6.635  11.570   5.732
59872SOL    HW181448   6.729  11.550   5.738
59872SOL    HW281449   6.628  11.658   5.770
59873SOL     OW81450   7.210   9.281   8.299
59873SOL    HW181451   7.264   9.357   8.278
59873SOL    HW281452   7.141   9.281   8.232
59874SOL     OW81453   2.151   2.176   5.912
59874SOL    HW181454   2.116   2.265   5.919
59874SOL    HW281455   2.206   2.178   5.834
59875SOL     OW81456  11.933  14.364   6.394
59875SOL    HW181457  11.889  14.280   6.396
59875SOL    HW281458  11.863  14.428   6.378
59876SOL     OW81459   2.044   2.238  11.905
59876SOL    HW181460   2.083   2.186  11.976
59876SOL    HW281461   1.958   2.199  11.891
59877SOL     OW81462   5.881  12.034   5.607
59877SOL    HW181463   5.889  12.082   5.524
59877SOL    HW281464   5.805  11.977   5.593
59878SOL     OW81465  11.645  13.560  14.031
59878SOL    HW181466  11.660  13.467  14.044
59878SOL    HW281467  11.730  13.601  14.051
59879SOL     OW81468  10.075  10.356   3.183
59879SOL    HW181469  10.102  10.383   3.095
59879SOL    HW281470  10.119  10.416   3.242
59880SOL     OW81471   1.390   7.258   9.117
59880SOL    HW181472   1.417   7.230   9.204
59880SOL    HW281473   1.383   7.353   9.124
59881SOL     OW81474   8.012   3.138  13.192
59881SOL    HW181475   7.986   3.229  13.208
59881SOL    HW281476   7.958   3.088  13.254
59882SOL     OW81477  13.101  11.432   5.862
59882SOL    HW181478  13.021  11.438   5.915
59882SOL    HW281479  13.077  11.468   5.777
59883SOL     OW81480   8.608   6.151   0.216
59883SOL    HW181481   8.549   6.225   0.206
59883SOL    HW281482   8.680   6.170   0.155
59884SOL     OW81483   3.057  13.917   3.346
59884SOL    HW181484   3.094  13.980   3.285
59884SOL    HW281485   2.988  13.966   3.391
59885SOL     OW81486   8.660  14.659  10.850
59885SOL    HW181487   8.567  14.653  10.828
59885SOL    HW281488   8.702  14.690  10.770
59886SOL     OW81489   9.204   7.750  10.575
59886SOL    HW181490   9.267   7.762  10.504
59886SOL    HW281491   9.126   7.716  10.533
59887SOL     OW81492   2.796   0.757   2.051
59887SOL    HW181493   2.859   0.698   2.092
59887SOL    HW281494   2.740   0.700   1.998
59888SOL     OW81495  12.257  14.784  13.881
59888SOL    HW181496  12.285  14.866  13.840
59888SOL    HW281497  12.240  14.726  13.807
59889SOL     OW81498  12.630   1.310   8.882
59889SOL    HW181499  12.697   1.287   8.818
59889SOL    HW281500  12.602   1.225   8.918
59890SOL     OW81501   1.887   6.750  11.368
59890SOL    HW181502   1.805   6.790  11.338
59890SOL    HW281503   1.955   6.809  11.336
59891SOL     OW81504   4.387   9.035  14.319
59891SOL    HW181505   4.341   9.063  14.240
59891SOL    HW281506   4.458   8.979  14.287
59892SOL     OW81507  14.217   2.405   9.204
59892SOL    HW181508  14.197   2.498   9.196
59892SOL    HW281509  14.168   2.363   9.133
59893SOL     OW81510  13.783   7.857   8.095
59893SOL    HW181511  13.852   7.790   8.095
59893SOL    HW281512  13.716   7.822   8.036
59894SOL     OW81513  11.452   3.403  11.364
59894SOL    HW181514  11.489   3.316  11.377
59894SOL    HW281515  11.371   3.402  11.416
59895SOL     OW81516  12.062   7.789  10.710
59895SOL    HW181517  12.025   7.876  10.696
59895SOL    HW281518  11.988   7.735  10.739
59896SOL     OW81519   5.861   2.028   7.066
59896SOL    HW181520   5.883   1.989   7.151
59896SOL    HW281521   5.946   2.056   7.030
59897SOL     OW81522   5.142  10.506  13.869
59897SOL    HW181523   5.083  10.436  13.842
59897SOL    HW281524   5.085  10.567  13.917
59898SOL     OW81525  12.739  10.408   6.816
59898SOL    HW181526  12.714  10.316   6.831
59898SOL    HW281527  12.810  10.423   6.878
59899SOL     OW81528   8.465  11.324   3.575
59899SOL    HW181529   8.508  11.406   3.598
59899SOL    HW281530   8.411  11.345   3.499
59900SOL     OW81531  12.173  14.274   8.641
59900SOL    HW181532  12.086  14.269   8.600
59900SOL    HW281533  12.232  14.298   8.569
59901SOL     OW81534  11.213   9.177  14.584
59901SOL    HW181535  11.203   9.082  14.595
59901SOL    HW281536  11.189   9.194  14.493
59902SOL     OW81537  13.569   6.801  12.096
59902SOL    HW181538  13.663   6.791  12.114
59902SOL    HW281539  13.527   6.742  12.159
59903SOL     OW81540   2.335   7.657   5.688
59903SOL    HW181541   2.429   7.640   5.693
59903SOL    HW281542   2.328   7.753   5.688
59904SOL     OW81543   4.051  11.756   6.811
59904SOL    HW181544   4.068  11.668   6.844
59904SOL    HW281545   4.125  11.808   6.843
59905SOL     OW81546   8.597   0.427  13.671
59905SOL    HW181547   8.515   0.432  13.621
59905SOL    HW281548   8.597   0.507  13.724
59906SOL     OW81549   4.733   6.516   0.481
59906SOL    HW181550   4.714   6.574   0.407
59906SOL    HW281551   4.646   6.488   0.511
59907SOL     OW81552  12.953  10.430   5.505
59907SOL    HW181553  12.927  10.522   5.514
59907SOL    HW281554  12.977  10.403   5.593
59908SOL     OW81555   5.802  14.255  12.855
59908SOL    HW181556   5.744  14.330  12.868
59908SOL    HW281557   5.869  14.265  12.923
59909SOL     OW81558   9.314  13.104   4.629
59909SOL    HW181559   9.342  13.139   4.544
59909SOL    HW281560   9.229  13.146   4.645
59910SOL     OW81561   7.660   0.128   8.601
59910SOL    HW181562   7.690   0.044   8.637
59910SOL    HW281563   7.614   0.171   8.673
59911SOL     OW81564   7.934   6.400   5.192
59911SOL    HW181565   8.024   6.368   5.183
59911SOL    HW281566   7.931   6.441   5.279
59912SOL     OW81567   2.451   3.979   5.851
59912SOL    HW181568   2.503   3.929   5.788
59912SOL    HW281569   2.451   3.926   5.930
59913SOL     OW81570  12.563   9.847   9.529
59913SOL    HW181571  12.631   9.822   9.592
59913SOL    HW281572  12.507   9.771   9.522
59914SOL     OW81573  11.145   9.911  12.052
59914SOL    HW181574  11.061   9.950  12.030
59914SOL    HW281575  11.131   9.868  12.136
59915SOL     OW81576   0.646   9.453  12.234
59915SOL    HW181577   0.626   9.512  12.306
59915SOL    HW281578   0.566   9.401  12.223
59916SOL     OW81579   8.312   6.340   2.024
59916SOL    HW181580   8.402   6.369   2.010
59916SOL    HW281581   8.272   6.341   1.937
59917SOL     OW81582   1.645   6.767  10.876
59917SOL    HW181583   1.594   6.772  10.957
59917SOL    HW281584   1.736   6.763  10.904
59918SOL     OW81585   7.688  13.376  11.143
59918SOL    HW181586   7.757  13.311  11.128
59918SOL    HW281587   7.622  13.329  11.194
59919SOL     OW81588  11.610   4.954   5.692
59919SOL    HW181589  11.585   5.035   5.737
59919SOL    HW281590  11.554   4.952   5.614
59920SOL     OW81591   4.055  12.931   6.990
59920SOL    HW181592   4.056  12.855   6.931
59920SOL    HW281593   3.965  12.938   7.020
59921SOL     OW81594  13.718  13.232   5.073
59921SOL    HW181595  13.740  13.232   4.980
59921SOL    HW281596  13.751  13.148   5.106
59922SOL     OW81597   0.964  13.222   3.594
59922SOL    HW181598   1.046  13.173   3.601
59922SOL    HW281599   0.911  13.191   3.667
59923SOL     OW81600   9.228  10.553   4.344
59923SOL    HW181601   9.318  10.528   4.324
59923SOL    HW281602   9.234  10.601   4.427
59924SOL     OW81603  14.859   0.537   8.053
59924SOL    HW181604  14.865   0.502   7.964
59924SOL    HW281605   0.026   0.468   8.108
59925SOL     OW81606   2.603  10.459  10.578
59925SOL    HW181607   2.696  10.439  10.567
59925SOL    HW281608   2.559  10.376  10.561
59926SOL     OW81609   0.775   6.539   7.586
59926SOL    HW181610   0.734   6.519   7.502
59926SOL    HW281611   0.824   6.461   7.608
59927SOL     OW81612   6.117   7.933   4.911
59927SOL    HW181613   6.164   7.999   4.860
59927SOL    HW281614   6.030   7.930   4.871
59928SOL     OW81615   1.797  10.133   2.140
59928SOL    HW181616   1.706  10.106   2.158
59928SOL    HW281617   1.824  10.178   2.220
59929SOL     OW81618   4.601   1.845   3.426
59929SOL    HW181619   4.695   1.841   3.411
59929SOL    HW281620   4.585   1.781   3.496
59930SOL     OW81621   3.098  11.084  14.321
59930SOL    HW181622   3.031  11.021  14.348
59930SOL    HW281623   3.070  11.167  14.359
59931SOL     OW81624  11.326   0.747  13.675
59931SOL    HW181625  11.363   0.833  13.654
59931SOL    HW281626  11.267   0.728  13.603
59932SOL     OW81627   2.282   1.857   0.567
59932SOL    HW181628   2.356   1.859   0.507
59932SOL    HW281629   2.322   1.849   0.654
59933SOL     OW81630  14.668  11.707   4.874
59933SOL    HW181631  14.741  11.694   4.934
59933SOL    HW281632  14.600  11.749   4.927
59934SOL     OW81633   7.223  12.110   7.256
59934SOL    HW181634   7.306  12.077   7.221
59934SOL    HW281635   7.188  12.038   7.307
59935SOL     OW81636   0.413   4.627  11.620
59935SOL    HW181637   0.381   4.539  11.600
59935SOL    HW281638   0.504   4.627  11.590
59936SOL     OW81639   7.055   7.450   6.554
59936SOL    HW181640   7.117   7.521   6.569
59936SOL    HW281641   7.087   7.378   6.609
59937SOL     OW81642   7.502   8.883  14.565
59937SOL    HW181643   7.491   8.789  14.580
59937SOL    HW281644   7.498   8.893  14.470
59938SOL     OW81645  14.613  10.717   6.921
59938SOL    HW181646  14.589  10.637   6.968
59938SOL    HW281647  14.591  10.788   6.982
59939SOL     OW81648   2.461   7.282   9.374
59939SOL    HW181649   2.548   7.322   9.376
59939SOL    HW281650   2.478   7.188   9.377
59940SOL     OW81651   0.613  12.520   1.571
59940SOL    HW181652   0.564  12.598   1.546
59940SOL    HW281653   0.546  12.456   1.596
59941SOL     OW81654  13.860   2.625   0.555
59941SOL    HW181655  13.883   2.716   0.538
59941SOL    HW281656  13.925   2.595   0.619
59942SOL     OW81657   6.399   6.372   0.353
59942SOL    HW181658   6.487   6.380   0.389
59942SOL    HW281659   6.412   6.334   0.266
59943SOL     OW81660  10.733   1.077   5.105
59943SOL    HW181661  10.661   1.017   5.125
59943SOL    HW281662  10.772   1.097   5.190
59944SOL     OW81663   0.134  12.086   3.958
59944SOL    HW181664   0.091  12.158   3.912
59944SOL    HW281665   0.136  12.015   3.894
59945SOL     OW81666   1.921   5.272  12.630
59945SOL    HW181667   1.951   5.260  12.720
59945SOL    HW281668   1.949   5.360  12.607
59946SOL     OW81669   2.042   8.512   1.705
59946SOL    HW181670   1.956   8.470   1.695
59946SOL    HW281671   2.067   8.537   1.616
59947SOL     OW81672   3.258  13.659  12.866
59947SOL    HW181673   3.225  13.732  12.919
59947SOL    HW281674   3.333  13.625  12.914
59948SOL     OW81675  12.468  14.713   9.492
59948SOL    HW181676  12.473  14.766   9.571
59948SOL    HW281677  12.558  14.706   9.462
59949SOL     OW81678  13.374   3.120  14.626
59949SOL    HW181679  13.339   3.117  14.537
59949SOL    HW281680  13.340   3.201  14.664
59950SOL     OW81681   0.559   1.393  12.597
59950SOL    HW181682   0.597   1.468  12.643
59950SOL    HW281683   0.632   1.358  12.546
59951SOL     OW81684  11.288   0.389   0.821
59951SOL    HW181685  11.376   0.409   0.788
59951SOL    HW281686  11.243   0.348   0.747
59952SOL     OW81687  13.379  11.677  12.857
59952SOL    HW181688  13.312  11.664  12.790
59952SOL    HW281689  13.449  11.724  12.813
59953SOL     OW81690  13.919   8.528  10.944
59953SOL    HW181691  13.904   8.545  10.851
59953SOL    HW281692  14.011   8.550  10.958
59954SOL     OW81693   9.089   9.091   6.619
59954SOL    HW181694   9.179   9.063   6.601
59954SOL    HW281695   9.076   9.168   6.563
59955SOL     OW81696   3.538  11.799   1.021
59955SOL    HW181697   3.470  11.825   1.082
59955SOL    HW281698   3.493  11.750   0.953
59956SOL     OW81699  12.955  10.116  12.337
59956SOL    HW181700  13.009  10.137  12.413
59956SOL    HW281701  12.872  10.087  12.373
59957SOL     OW81702   5.813   2.561  13.129
59957SOL    HW181703   5.843   2.471  13.142
59957SOL    HW281704   5.728   2.552  13.085
59958SOL     OW81705  11.460   2.315   3.887
59958SOL    HW181706  11.393   2.254   3.857
59958SOL    HW281707  11.438   2.333   3.978
59959SOL     OW81708   9.290  10.299  12.916
59959SOL    HW181709   9.264  10.215  12.956
59959SOL    HW281710   9.272  10.364  12.983
59960SOL     OW81711  10.938   9.475   6.016
59960SOL    HW181712  10.843   9.476   6.010
59960SOL    HW281713  10.957   9.407   6.081
59961SOL     OW81714   8.393   0.808  13.323
59961SOL    HW181715   8.446   0.778  13.249
59961SOL    HW281716   8.399   0.903  13.319
59962SOL     OW81717   2.983   3.995   7.393
59962SOL    HW181718   2.889   3.990   7.378
59962SOL    HW281719   2.992   4.023   7.484
59963SOL     OW81720   0.732   9.061  12.088
59963SOL    HW181721   0.728   8.980  12.038
59963SOL    HW281722   0.653   9.109  12.063
59964SOL     OW81723   7.501   4.024   1.721
59964SOL    HW181724   7.510   4.113   1.756
59964SOL    HW281725   7.407   4.008   1.721
59965SOL     OW81726   4.220   7.412  13.959
59965SOL    HW181727   4.191   7.452  13.877
59965SOL    HW281728   4.138   7.393  14.006
59966SOL     OW81729   2.934   4.185  10.758
59966SOL    HW181730   3.009   4.245  10.767
59966SOL    HW281731   2.862   4.230  10.802
59967SOL     OW81732  10.668   2.149   8.981
59967SOL    HW181733  10.724   2.109   9.048
59967SOL    HW281734  10.641   2.077   8.926
59968SOL     OW81735   4.347  14.487   6.846
59968SOL    HW181736   4.384  14.570   6.817
59968SOL    HW281737   4.346  14.432   6.767
59969SOL     OW81738   9.117   0.409   5.589
59969SOL    HW181739   9.178   0.405   5.662
59969SOL    HW281740   9.161   0.464   5.524
59970SOL     OW81741  13.090   6.608   1.871
59970SOL    HW181742  13.001   6.581   1.850
59970SOL    HW281743  13.083   6.653   1.955
59971SOL     OW81744   9.462   0.272   6.849
59971SOL    HW181745   9.555   0.295   6.843
59971SOL    HW281746   9.423   0.311   6.771
59972SOL     OW81747  13.840  12.944   4.144
59972SOL    HW181748  13.812  12.953   4.236
59972SOL    HW281749  13.846  12.850   4.130
59973SOL     OW81750   4.384  10.704   6.152
59973SOL    HW181751   4.307  10.762   6.149
59973SOL    HW281752   4.458  10.763   6.162
59974SOL     OW81753   0.335  14.752   7.238
59974SOL    HW181754   0.243  14.765   7.215
59974SOL    HW281755   0.340  14.661   7.266
59975SOL     OW81756   7.132   6.353  14.561
59975SOL    HW181757   7.151   6.402  14.641
59975SOL    HW281758   7.212   6.357  14.511
59976SOL     OW81759   5.785  11.230   2.224
59976SOL    HW181760   5.704  11.233   2.172
59976SOL    HW281761   5.793  11.317   2.261
59977SOL     OW81762   4.063  14.814   1.463
59977SOL    HW181763   4.042   0.020   1.412
59977SOL    HW281764   3.981  14.794   1.510
59978SOL     OW81765   7.429   1.871   0.313
59978SOL    HW181766   7.346   1.838   0.347
59978SOL    HW281767   7.477   1.792   0.286
59979SOL     OW81768   1.981   2.986   1.696
59979SOL    HW181769   2.051   2.984   1.631
59979SOL    HW281770   1.900   2.993   1.645
59980SOL     OW81771   6.247   9.352  14.759
59980SOL    HW181772   6.333   9.370  14.797
59980SOL    HW281773   6.187   9.410  14.806
59981SOL     OW81774  10.842  10.949   9.962
59981SOL    HW181775  10.881  10.890   9.898
59981SOL    HW281776  10.766  10.986   9.918
59982SOL     OW81777   9.250   7.232  11.008
59982SOL    HW181778   9.184   7.172  11.042
59982SOL    HW281779   9.287   7.273  11.087
59983SOL     OW81780   2.831   8.943  14.420
59983SOL    HW181781   2.847   9.021  14.473
59983SOL    HW281782   2.777   8.886  14.476
59984SOL     OW81783   3.953  12.273   6.951
59984SOL    HW181784   3.909  12.339   7.004
59984SOL    HW281785   4.044  12.276   6.978
59985SOL     OW81786  12.538  13.438   8.669
59985SOL    HW181787  12.498  13.486   8.596
59985SOL    HW281788  12.599  13.500   8.708
59986SOL     OW81789   6.986   1.254   5.119
59986SOL    HW181790   6.995   1.339   5.077
59986SOL    HW281791   6.989   1.191   5.047
59987SOL     OW81792   7.246   7.594  12.606
59987SOL    HW181793   7.312   7.553  12.660
59987SOL    HW281794   7.163   7.574  12.650
59988SOL     OW81795   9.546   4.702  11.604
59988SOL    HW181796   9.630   4.696  11.559
59988SOL    HW281797   9.513   4.789  11.584
59989SOL     OW81798   9.243  14.545   7.184
59989SOL    HW181799   9.316  14.504   7.138
59989SOL    HW281800   9.277  14.562   7.272
59990SOL     OW81801   0.971   6.322   7.663
59990SOL    HW181802   0.973   6.306   7.757
59990SOL    HW281803   0.943   6.239   7.624
59991SOL     OW81804   2.230   4.698   5.248
59991SOL    HW181805   2.286   4.658   5.314
59991SOL    HW281806   2.142   4.696   5.285
59992SOL     OW81807   1.373  11.984  14.690
59992SOL    HW181808   1.384  12.075  14.664
59992SOL    HW281809   1.393  11.983  14.783
59993SOL     OW81810  11.925   3.993  10.699
59993SOL    HW181811  11.974   3.930  10.752
59993SOL    HW281812  11.897   3.943  10.623
59994SOL     OW81813   5.507   8.216   3.276
59994SOL    HW181814   5.511   8.298   3.326
59994SOL    HW281815   5.501   8.243   3.185
59995SOL     OW81816   8.155  13.793   8.487
59995SOL    HW181817   8.201  13.756   8.411
59995SOL    HW281818   8.146  13.886   8.466
59996SOL     OW81819   3.748   4.301   6.799
59996SOL    HW181820   3.839   4.313   6.772
59996SOL    HW281821   3.748   4.220   6.850
59997SOL     OW81822   2.629  13.584  13.821
59997SOL    HW181823   2.588  13.615  13.740
59997SOL    HW281824   2.556  13.576  13.883
59998SOL     OW81825  14.622   2.639  13.146
59998SOL    HW181826  14.633   2.733  13.153
59998SOL    HW281827  14.635   2.619  13.053
59999SOL     OW81828  10.156  13.988   7.823
59999SOL    HW181829  10.067  13.957   7.805
59999SOL    HW281830  10.148  14.083   7.823
60000SOL     OW81831   2.553   5.133  12.760
60000SOL    HW181832   2.595   5.165  12.681
60000SOL    HW281833   2.595   5.182  12.831
60001SOL     OW81834   4.566   4.823   1.360
60001SOL    HW181835   4.647   4.802   1.313
60001SOL    HW281836   4.539   4.907   1.325
60002SOL     OW81837  10.972   1.181   9.600
60002SOL    HW181838  11.014   1.260   9.563
60002SOL    HW281839  10.990   1.186   9.694
60003SOL     OW81840   7.259   4.186   0.232
60003SOL    HW181841   7.171   4.212   0.204
60003SOL    HW281842   7.317   4.241   0.180
60004SOL     OW81843  13.527   7.437   4.062
60004SOL    HW181844  13.554   7.441   3.970
60004SOL    HW281845  13.606   7.456   4.112
60005SOL     OW81846   4.651  13.055   5.393
60005SOL    HW181847   4.559  13.064   5.417
60005SOL    HW281848   4.671  13.134   5.343
60006SOL     OW81849  11.928   2.763   2.719
60006SOL    HW181850  11.950   2.758   2.626
60006SOL    HW281851  11.884   2.680   2.738
60007SOL     OW81852  13.579   4.361   8.267
60007SOL    HW181853  13.586   4.372   8.362
60007SOL    HW281854  13.502   4.306   8.255
60008SOL     OW81855   0.339   4.938  14.070
60008SOL    HW181856   0.346   4.844  14.051
60008SOL    HW281857   0.378   4.947  14.157
60009SOL     OW81858   1.445   5.424  12.440
60009SOL    HW181859   1.371   5.456  12.491
60009SOL    HW281860   1.504   5.386  12.505
60010SOL     OW81861  11.409  13.062   2.234
60010SOL    HW181862  11.397  13.142   2.183
60010SOL    HW281863  11.472  13.011   2.185
60011SOL     OW81864   9.658   8.720   7.025
60011SOL    HW181865   9.645   8.634   7.064
60011SOL    HW281866   9.713   8.768   7.088
60012SOL     OW81867   6.460  12.925   3.330
60012SOL    HW181868   6.535  12.866   3.336
60012SOL    HW281869   6.471  12.970   3.246
60013SOL     OW81870  11.509   2.887   2.490
60013SOL    HW181871  11.587   2.919   2.534
60013SOL    HW281872  11.540   2.857   2.405
60014SOL     OW81873  11.738  14.707   8.019
60014SOL    HW181874  11.724  14.746   7.933
60014SOL    HW281875  11.758  14.615   8.001
60015SOL     OW81876   7.135   4.176   1.996
60015SOL    HW181877   7.194   4.106   2.025
60015SOL    HW281878   7.086   4.137   1.924
60016SOL     OW81879   1.998   9.092   7.313
60016SOL    HW181880   1.904   9.089   7.330
60016SOL    HW281881   2.016   9.185   7.298
60017SOL     OW81882   8.121   7.553   7.864
60017SOL    HW181883   8.083   7.551   7.952
60017SOL    HW281884   8.055   7.515   7.807
60018SOL     OW81885  12.830   2.525   5.734
60018SOL    HW181886  12.846   2.461   5.803
60018SOL    HW281887  12.838   2.476   5.652
60019SOL     OW81888   8.236  12.410   2.974
60019SOL    HW181889   8.211  12.359   2.897
60019SOL    HW281890   8.275  12.489   2.938
60020SOL     OW81891   2.574   4.877   5.191
60020SOL    HW181892   2.546   4.957   5.147
60020SOL    HW281893   2.650   4.903   5.243
60021SOL     OW81894  11.902  13.217   0.831
60021SOL    HW181895  11.873  13.221   0.739
60021SOL    HW281896  11.941  13.302   0.847
60022SOL     OW81897   3.883  14.677   0.159
60022SOL    HW181898   3.970  14.653   0.130
60022SOL    HW281899   3.848  14.733   0.090
60023SOL     OW81900   6.640   7.894   1.575
60023SOL    HW181901   6.598   7.808   1.581
60023SOL    HW281902   6.575   7.950   1.532
60024SOL     OW81903   9.671   7.627  13.308
60024SOL    HW181904   9.724   7.605  13.232
60024SOL    HW281905   9.591   7.574  13.298
60025SOL     OW81906   3.293   2.704  11.548
60025SOL    HW181907   3.324   2.727  11.460
60025SOL    HW281908   3.297   2.609  11.551
60026SOL     OW81909  12.970   6.312   2.458
60026SOL    HW181910  12.928   6.344   2.378
60026SOL    HW281911  13.016   6.233   2.432
60027SOL     OW81912   8.817   6.077   4.526
60027SOL    HW181913   8.811   6.073   4.622
60027SOL    HW281914   8.776   6.160   4.503
60028SOL     OW81915   3.128   3.404   1.282
60028SOL    HW181916   3.149   3.317   1.315
60028SOL    HW281917   3.193   3.421   1.213
60029SOL     OW81918   8.395   6.843   1.602
60029SOL    HW181919   8.372   6.786   1.675
60029SOL    HW281920   8.439   6.786   1.539
60030SOL     OW81921   5.816  10.308  14.870
60030SOL    HW181922   5.757  10.254  14.818
60030SOL    HW281923   5.776  10.308   0.085
60031SOL     OW81924   0.253   7.476   8.052
60031SOL    HW181925   0.168   7.517   8.070
60031SOL    HW281926   0.240   7.428   7.970
60032SOL     OW81927  12.875   5.680  14.548
60032SOL    HW181928  12.941   5.612  14.531
60032SOL    HW281929  12.889   5.705  14.639
60033SOL     OW81930   3.563   9.798  13.075
60033SOL    HW181931   3.652   9.774  13.048
60033SOL    HW281932   3.563   9.894  13.075
60034SOL     OW81933  12.696  12.667   6.908
60034SOL    HW181934  12.776  12.617   6.928
60034SOL    HW281935  12.709  12.698   6.819
60035SOL     OW81936  13.091  12.393   4.569
60035SOL    HW181937  13.073  12.454   4.640
60035SOL    HW281938  13.017  12.332   4.570
60036SOL     OW81939   0.093   5.815  12.079
60036SOL    HW181940   0.014   5.829  12.027
60036SOL    HW281941   0.164   5.814  12.015
60037SOL     OW81942   2.675  11.713   8.219
60037SOL    HW181943   2.580  11.705   8.233
60037SOL    HW281944   2.690  11.807   8.214
60038SOL     OW81945   6.724   0.689   8.516
60038SOL    HW181946   6.816   0.695   8.488
60038SOL    HW281947   6.674   0.689   8.434
60039SOL     OW81948   0.695   5.999   2.410
60039SOL    HW181949   0.753   6.014   2.485
60039SOL    HW281950   0.608   6.022   2.442
60040SOL     OW81951   0.492   5.571  13.025
60040SOL    HW181952   0.488   5.479  12.998
60040SOL    HW281953   0.405   5.589  13.061
60041SOL     OW81954   7.474   7.055   4.159
60041SOL    HW181955   7.413   7.099   4.218
60041SOL    HW281956   7.420   7.025   4.086
60042SOL     OW81957  12.471   0.316  11.923
60042SOL    HW181958  12.503   0.296  12.011
60042SOL    HW281959  12.458   0.231  11.882
60043SOL     OW81960   1.764  11.047  11.215
60043SOL    HW181961   1.752  10.952  11.222
60043SOL    HW281962   1.858  11.057  11.198
60044SOL     OW81963  14.781   1.502   8.169
60044SOL    HW181964  14.863   1.457   8.150
60044SOL    HW281965  14.799   1.594   8.152
60045SOL     OW81966  13.903  11.025   1.781
60045SOL    HW181967  13.880  10.934   1.800
60045SOL    HW281968  13.920  11.026   1.687
60046SOL     OW81969   5.404  13.768   7.195
60046SOL    HW181970   5.383  13.689   7.145
60046SOL    HW281971   5.499  13.765   7.206
60047SOL     OW81972   2.227   3.373  14.116
60047SOL    HW181973   2.288   3.446  14.111
60047SOL    HW281974   2.274   3.300  14.075
60048SOL     OW81975   7.455  14.823   7.071
60048SOL    HW181976   7.474  14.736   7.038
60048SOL    HW281977   7.359  14.825   7.080
60049SOL     OW81978   9.428   0.103  11.068
60049SOL    HW181979   9.490   0.106  11.141
60049SOL    HW281980   9.479   0.130  10.991
60050SOL     OW81981   3.124   6.705   7.238
60050SOL    HW181982   3.133   6.726   7.331
60050SOL    HW281983   3.046   6.754   7.210
60051SOL     OW81984  12.493  12.352   6.315
60051SOL    HW181985  12.509  12.398   6.397
60051SOL    HW281986  12.420  12.292   6.335
60052SOL     OW81987   3.723   5.003   7.061
60052SOL    HW181988   3.715   5.014   7.156
60052SOL    HW281989   3.817   5.006   7.044
60053SOL     OW81990   9.807  11.811   0.189
60053SOL    HW181991   9.846  11.734   0.231
60053SOL    HW281992   9.875  11.878   0.195
60054SOL     OW81993   7.623   9.175  14.628
60054SOL    HW181994   7.536   9.150  14.595
60054SOL    HW281995   7.609   9.263  14.664
60055SOL     OW81996   2.677   0.414  12.170
60055SOL    HW181997   2.749   0.372  12.218
60055SOL    HW281998   2.599   0.368  12.199
60056SOL     OW81999   7.614  11.873  10.545
60056SOL    HW182000   7.524  11.907  10.546
60056SOL    HW282001   7.625  11.837  10.457
60057SOL     OW82002  10.420   7.783   0.506
60057SOL    HW182003  10.475   7.842   0.558
60057SOL    HW282004  10.350   7.758   0.566
60058SOL     OW82005   6.127  14.306   9.002
60058SOL    HW182006   6.151  14.222   9.041
60058SOL    HW282007   6.145  14.370   9.070
60059SOL     OW82008   3.786   1.419   1.371
60059SOL    HW182009   3.725   1.444   1.440
60059SOL    HW282010   3.729   1.390   1.299
60060SOL     OW82011   1.848   3.557   8.570
60060SOL    HW182012   1.782   3.488   8.569
60060SOL    HW282013   1.932   3.510   8.570
60061SOL     OW82014  11.908   2.101  12.297
60061SOL    HW182015  11.847   2.033  12.271
60061SOL    HW282016  11.951   2.066  12.375
60062SOL     OW82017   6.501   1.277  13.809
60062SOL    HW182018   6.411   1.310  13.816
60062SOL    HW282019   6.515   1.228  13.891
60063SOL     OW82020   7.677   9.600  14.766
60063SOL    HW182021   7.748   9.541  14.738
60063SOL    HW282022   7.706   9.634  14.850
60064SOL     OW82023   2.835   6.788   7.554
60064SOL    HW182024   2.759   6.740   7.521
60064SOL    HW282025   2.911   6.741   7.517
60065SOL     OW82026   4.511  10.739  13.389
60065SOL    HW182027   4.583  10.801  13.383
60065SOL    HW282028   4.491  10.716  13.298
60066SOL     OW82029   7.356   7.946  14.017
60066SOL    HW182030   7.275   7.903  14.045
60066SOL    HW282031   7.392   7.984  14.097
60067SOL     OW82032   0.931  14.051   4.228
60067SOL    HW182033   0.994  14.097   4.283
60067SOL    HW282034   0.847  14.064   4.273
60068SOL     OW82035  10.685  11.480   1.524
60068SOL    HW182036  10.765  11.489   1.575
60068SOL    HW282037  10.614  11.486   1.588
60069SOL     OW82038   5.523   8.152  13.871
60069SOL    HW182039   5.453   8.139  13.807
60069SOL    HW282040   5.601   8.168  13.818
60070SOL     OW82041  12.981  12.910   2.464
60070SOL    HW182042  12.967  12.963   2.542
60070SOL    HW282043  13.036  12.965   2.408
60071SOL     OW82044  12.967   5.601  11.795
60071SOL    HW182045  12.912   5.556  11.731
60071SOL    HW282046  12.915   5.602  11.875
60072SOL     OW82047   5.571   1.647  10.378
60072SOL    HW182048   5.636   1.593  10.334
60072SOL    HW282049   5.574   1.731  10.332
60073SOL     OW82050   5.282  11.804   4.861
60073SOL    HW182051   5.189  11.819   4.850
60073SOL    HW282052   5.317  11.800   4.772
60074SOL     OW82053  12.087   0.473   3.841
60074SOL    HW182054  12.130   0.395   3.879
60074SOL    HW282055  12.041   0.440   3.764
60075SOL     OW82056  13.688  13.050   3.697
60075SOL    HW182057  13.716  12.981   3.757
60075SOL    HW282058  13.598  13.069   3.724
60076SOL     OW82059  13.882  12.689   4.026
60076SOL    HW182060  13.958  12.648   3.986
60076SOL    HW282061  13.839  12.736   3.955
60077SOL     OW82062   7.443  10.788  11.284
60077SOL    HW182063   7.465  10.872  11.326
60077SOL    HW282064   7.349  10.794  11.266
60078SOL     OW82065   1.238   6.756  14.068
60078SOL    HW182066   1.270   6.740  14.157
60078SOL    HW282067   1.228   6.668  14.031
60079SOL     OW82068  12.729   3.770  13.767
60079SOL    HW182069  12.759   3.743  13.680
60079SOL    HW282070  12.730   3.689  13.819
60080SOL     OW82071   2.803   8.220   2.995
60080SOL    HW182072   2.839   8.276   2.926
60080SOL    HW282073   2.756   8.282   3.052
60081SOL     OW82074  13.217  10.197   0.482
60081SOL    HW182075  13.153  10.267   0.497
60081SOL    HW282076  13.294  10.242   0.447
60082SOL     OW82077  14.466   2.301   1.714
60082SOL    HW182078  14.486   2.388   1.682
60082SOL    HW282079  14.525   2.288   1.789
60083SOL     OW82080   1.836   2.279   7.571
60083SOL    HW182081   1.756   2.323   7.600
60083SOL    HW282082   1.890   2.349   7.536
60084SOL     OW82083  10.142   4.881   5.781
60084SOL    HW182084  10.085   4.872   5.857
60084SOL    HW282085  10.229   4.856   5.813
60085SOL     OW82086   4.399   4.623   1.057
60085SOL    HW182087   4.376   4.547   1.110
60085SOL    HW282088   4.407   4.589   0.968
60086SOL     OW82089  13.221   8.215   7.496
60086SOL    HW182090  13.160   8.141   7.492
60086SOL    HW282091  13.305   8.176   7.521
60087SOL     OW82092   2.804  11.550  10.206
60087SOL    HW182093   2.857  11.595  10.140
60087SOL    HW282094   2.771  11.472  10.162
60088SOL     OW82095  13.162   3.502   2.850
60088SOL    HW182096  13.200   3.415   2.844
60088SOL    HW282097  13.078   3.494   2.806
60089SOL     OW82098  14.141  11.568   3.256
60089SOL    HW182099  14.080  11.532   3.320
60089SOL    HW282100  14.087  11.581   3.177
60090SOL     OW82101  13.303   4.202   2.744
60090SOL    HW182102  13.223   4.160   2.713
60090SOL    HW282103  13.277   4.249   2.823
60091SOL     OW82104   1.204   5.390   4.888
60091SOL    HW182105   1.229   5.376   4.980
60091SOL    HW282106   1.168   5.305   4.860
60092SOL     OW82107  11.563   1.232  14.022
60092SOL    HW182108  11.512   1.183  14.087
60092SOL    HW282109  11.544   1.324  14.042
60093SOL     OW82110   2.954  11.583   4.048
60093SOL    HW182111   2.872  11.535   4.053
60093SOL    HW282112   2.986  11.568   3.959
60094SOL     OW82113  10.503  12.319  12.175
60094SOL    HW182114  10.577  12.260  12.188
60094SOL    HW282115  10.496  12.367  12.258
60095SOL     OW82116  14.594  12.269   1.132
60095SOL    HW182117  14.658  12.200   1.112
60095SOL    HW282118  14.626  12.310   1.212
60096SOL     OW82119   3.060   9.737  13.857
60096SOL    HW182120   2.970   9.748  13.888
60096SOL    HW282121   3.052   9.723  13.763
60097SOL     OW82122   4.627   7.118  14.264
60097SOL    HW182123   4.619   7.174  14.186
60097SOL    HW282124   4.678   7.170  14.326
60098SOL     OW82125   4.316   9.989  10.278
60098SOL    HW182126   4.268   9.942  10.346
60098SOL    HW282127   4.330   9.924  10.209
60099SOL     OW82128   4.737   0.785  14.395
60099SOL    HW182129   4.750   0.835  14.315
60099SOL    HW282130   4.669   0.833  14.443
60100SOL     OW82131   1.049  12.803   3.615
60100SOL    HW182132   0.963  12.842   3.602
60100SOL    HW282133   1.046  12.769   3.705
60101SOL     OW82134   5.549   0.231   8.550
60101SOL    HW182135   5.597   0.279   8.616
60101SOL    HW282136   5.474   0.194   8.596
60102SOL     OW82137   1.777  11.304   5.953
60102SOL    HW182138   1.695  11.307   5.904
60102SOL    HW282139   1.751  11.286   6.043
60103SOL     OW82140  11.830  10.022  12.740
60103SOL    HW182141  11.846  10.115  12.753
60103SOL    HW282142  11.914   9.981  12.762
60104SOL     OW82143   8.152  12.000   1.810
60104SOL    HW182144   8.182  12.078   1.856
60104SOL    HW282145   8.206  11.929   1.845
60105SOL     OW82146   3.067  10.170   6.812
60105SOL    HW182147   3.057  10.148   6.905
60105SOL    HW282148   3.161  10.166   6.797
60106SOL     OW82149   4.387   1.652  13.432
60106SOL    HW182150   4.384   1.723  13.368
60106SOL    HW282151   4.475   1.616  13.425
60107SOL     OW82152   0.630   5.413   4.427
60107SOL    HW182153   0.658   5.414   4.335
60107SOL    HW282154   0.710   5.426   4.477
60108SOL     OW82155   4.684   2.868   2.102
60108SOL    HW182156   4.590   2.885   2.096
60108SOL    HW282157   4.695   2.827   2.189
60109SOL     OW82158   3.597   5.429  10.028
60109SOL    HW182159   3.557   5.474  10.102
60109SOL    HW282160   3.537   5.445   9.955
60110SOL     OW82161  13.347   1.335  14.510
60110SOL    HW182162  13.319   1.317  14.600
60110SOL    HW282163  13.392   1.420  14.516
60111SOL     OW82164   9.550   3.152   7.110
60111SOL    HW182165   9.568   3.086   7.176
60111SOL    HW282166   9.487   3.111   7.051
60112SOL     OW82167   7.811   8.799  13.512
60112SOL    HW182168   7.746   8.771  13.576
60112SOL    HW282169   7.825   8.722  13.456
60113SOL     OW82170  12.020   6.326   4.132
60113SOL    HW182171  11.998   6.341   4.224
60113SOL    HW282172  11.936   6.302   4.091
60114SOL     OW82173  14.595  13.900  11.470
60114SOL    HW182174  14.524  13.897  11.407
60114SOL    HW282175  14.598  13.991  11.499
60115SOL     OW82176   3.713   3.722   6.456
60115SOL    HW182177   3.694   3.712   6.549
60115SOL    HW282178   3.629   3.706   6.413
60116SOL     OW82179   6.748   5.464   8.232
60116SOL    HW182180   6.800   5.532   8.275
60116SOL    HW282181   6.665   5.507   8.210
60117SOL     OW82182  11.939   0.217   3.757
60117SOL    HW182183  11.897   0.286   3.707
60117SOL    HW282184  11.899   0.136   3.724
60118SOL     OW82185   7.517  11.343   3.033
60118SOL    HW182186   7.532  11.271   3.094
60118SOL    HW282187   7.587  11.406   3.052
60119SOL     OW82188  14.517   4.082  10.676
60119SOL    HW182189  14.540   4.112  10.763
60119SOL    HW282190  14.580   4.124  10.618
60120SOL     OW82191   1.294  14.631   5.717
60120SOL    HW182192   1.298  14.624   5.622
60120SOL    HW282193   1.251  14.550   5.745
60121SOL     OW82194  12.581   7.648  12.284
60121SOL    HW182195  12.492   7.632  12.251
60121SOL    HW282196  12.569   7.673  12.375
60122SOL     OW82197   6.990   0.425   6.543
60122SOL    HW182198   7.001   0.440   6.449
60122SOL    HW282199   7.054   0.482   6.584
60123SOL     OW82200   7.901  12.393  12.382
60123SOL    HW182201   7.887  12.300  12.366
60123SOL    HW282202   7.819  12.425  12.418
60124SOL     OW82203  12.524  13.114  11.355
60124SOL    HW182204  12.562  13.202  11.353
60124SOL    HW282205  12.430  13.128  11.363
60125SOL     OW82206   1.500   0.959   6.655
60125SOL    HW182207   1.476   0.906   6.730
60125SOL    HW282208   1.585   0.926   6.627
60126SOL     OW82209   3.436   1.506   6.971
60126SOL    HW182210   3.366   1.456   6.930
60126SOL    HW282211   3.496   1.528   6.899
60127SOL     OW82212   0.113  11.618   4.360
60127SOL    HW182213   0.155  11.669   4.429
60127SOL    HW282214   0.108  11.677   4.286
60128SOL     OW82215  10.505   6.091  14.745
60128SOL    HW182216  10.480   5.999  14.755
60128SOL    HW282217  10.600   6.089  14.735
60129SOL     OW82218   7.298  14.632   6.180
60129SOL    HW182219   7.228  14.574   6.210
60129SOL    HW282220   7.268  14.720   6.204
60130SOL     OW82221   3.279   1.175  13.399
60130SOL    HW182222   3.194   1.219  13.402
60130SOL    HW282223   3.265   1.099  13.343
60131SOL     OW82224   8.790  14.150   0.941
60131SOL    HW182225   8.776  14.244   0.952
60131SOL    HW282226   8.782  14.114   1.029
60132SOL     OW82227   8.800   9.862  13.152
60132SOL    HW182228   8.740   9.788  13.146
60132SOL    HW282229   8.887   9.825  13.135
60133SOL     OW82230   6.907  13.912   5.815
60133SOL    HW182231   6.907  13.900   5.720
60133SOL    HW282232   6.925  13.825   5.850
60134SOL     OW82233  10.200   8.631   1.502
60134SOL    HW182234  10.232   8.573   1.572
60134SOL    HW282235  10.247   8.713   1.515
60135SOL     OW82236   9.633   2.621   7.034
60135SOL    HW182237   9.699   2.590   7.097
60135SOL    HW282238   9.586   2.542   7.007
60136SOL     OW82239   3.882  10.797   1.755
60136SOL    HW182240   3.951  10.751   1.707
60136SOL    HW282241   3.920  10.882   1.777
60137SOL     OW82242  14.548   0.108  13.662
60137SOL    HW182243  14.527   0.173  13.595
60137SOL    HW282244  14.634   0.135  13.695
60138SOL     OW82245  14.686   0.445   2.820
60138SOL    HW182246  14.711   0.528   2.863
60138SOL    HW282247  14.739   0.379   2.864
60139SOL     OW82248  10.395   2.490   2.031
60139SOL    HW182249  10.396   2.499   1.936
60139SOL    HW282250  10.380   2.578   2.064
60140SOL     OW82251   0.974  14.198  10.295
60140SOL    HW182252   1.066  14.226  10.302
60140SOL    HW282253   0.924  14.274  10.326
60141SOL     OW82254  10.149   6.172   4.763
60141SOL    HW182255  10.121   6.100   4.820
60141SOL    HW282256  10.237   6.194   4.794
60142SOL     OW82257  14.864  14.295  13.943
60142SOL    HW182258   0.010  14.202  13.960
60142SOL    HW282259   0.033  14.341  14.016
60143SOL     OW82260   5.330  13.754   0.471
60143SOL    HW182261   5.370  13.809   0.538
60143SOL    HW282262   5.372  13.781   0.389
60144SOL     OW82263   9.151   8.495   2.873
60144SOL    HW182264   9.135   8.586   2.846
60144SOL    HW282265   9.124   8.492   2.965
60145SOL     OW82266   8.892   5.796   4.593
60145SOL    HW182267   8.847   5.725   4.548
60145SOL    HW282268   8.862   5.876   4.549
60146SOL     OW82269  10.388   6.983   3.450
60146SOL    HW182270  10.360   6.925   3.520
60146SOL    HW282271  10.367   7.071   3.482
60147SOL     OW82272   1.533  10.611  12.453
60147SOL    HW182273   1.507  10.524  12.423
60147SOL    HW282274   1.461  10.668  12.425
60148SOL     OW82275  13.436   6.089   5.344
60148SOL    HW182276  13.426   6.156   5.411
60148SOL    HW282277  13.444   6.007   5.392
60149SOL     OW82278   3.056   7.140  13.603
60149SOL    HW182279   3.038   7.164  13.694
60149SOL    HW282280   3.142   7.098  13.606
60150SOL     OW82281   3.657   3.785   3.260
60150SOL    HW182282   3.633   3.747   3.344
60150SOL    HW282283   3.729   3.845   3.280
60151SOL     OW82284  13.561  11.913   1.208
60151SOL    HW182285  13.640  11.963   1.189
60151SOL    HW282286  13.492  11.959   1.160
60152SOL     OW82287   1.675  12.936   0.944
60152SOL    HW182288   1.733  12.865   0.918
60152SOL    HW282289   1.606  12.893   0.995
60153SOL     OW82290  11.236  14.524   6.544
60153SOL    HW182291  11.322  14.522   6.501
60153SOL    HW282292  11.174  14.540   6.474
60154SOL     OW82293   4.776   8.556   2.322
60154SOL    HW182294   4.829   8.576   2.400
60154SOL    HW282295   4.687   8.578   2.348
60155SOL     OW82296  11.427  12.850  10.819
60155SOL    HW182297  11.378  12.836  10.900
60155SOL    HW282298  11.360  12.865  10.752
60156SOL     OW82299   1.499   3.989   2.162
60156SOL    HW182300   1.579   3.939   2.168
60156SOL    HW282301   1.528   4.080   2.151
60157SOL     OW82302   3.472   4.771   2.276
60157SOL    HW182303   3.391   4.818   2.297
60157SOL    HW282304   3.451   4.679   2.289
60158SOL     OW82305  14.050   7.492  12.427
60158SOL    HW182306  14.034   7.424  12.493
60158SOL    HW282307  13.964   7.511  12.390
60159SOL     OW82308   5.338  11.780   7.667
60159SOL    HW182309   5.264  11.733   7.629
60159SOL    HW282310   5.394  11.711   7.703
60160SOL     OW82311  11.716   6.100   1.748
60160SOL    HW182312  11.656   6.074   1.678
60160SOL    HW282313  11.671   6.172   1.793
60161SOL     OW82314   4.180   4.994   8.932
60161SOL    HW182315   4.130   5.069   8.966
60161SOL    HW282316   4.140   4.918   8.974
60162SOL     OW82317   0.907  10.270   3.683
60162SOL    HW182318   0.947  10.211   3.747
60162SOL    HW282319   0.853  10.329   3.735
60163SOL     OW82320   5.903  13.659   7.959
60163SOL    HW182321   5.878  13.721   7.890
60163SOL    HW282322   5.998  13.654   7.953
60164SOL     OW82323  10.451   8.053   6.760
60164SOL    HW182324  10.417   8.007   6.836
60164SOL    HW282325  10.374   8.091   6.719
60165SOL     OW82326   7.467   1.509   7.985
60165SOL    HW182327   7.402   1.522   8.055
60165SOL    HW282328   7.551   1.517   8.029
60166SOL     OW82329  12.394   9.381  11.210
60166SOL    HW182330  12.382   9.476  11.203
60166SOL    HW282331  12.391   9.349  11.120
60167SOL     OW82332   3.517   8.572  11.666
60167SOL    HW182333   3.513   8.628  11.589
60167SOL    HW282334   3.481   8.625  11.737
60168SOL     OW82335  14.431   6.881   0.823
60168SOL    HW182336  14.401   6.846   0.907
60168SOL    HW282337  14.526   6.885   0.831
60169SOL     OW82338   1.808  11.290   4.507
60169SOL    HW182339   1.874  11.274   4.574
60169SOL    HW282340   1.811  11.211   4.452
60170SOL     OW82341   4.892   5.517   8.906
60170SOL    HW182342   4.897   5.598   8.856
60170SOL    HW282343   4.888   5.448   8.840
60171SOL     OW82344   5.718   1.584   3.045
60171SOL    HW182345   5.656   1.548   3.108
60171SOL    HW282346   5.803   1.546   3.071
60172SOL     OW82347   1.594  11.186  11.002
60172SOL    HW182348   1.617  11.141  11.083
60172SOL    HW282349   1.635  11.135  10.933
60173SOL     OW82350   4.243   4.361   6.691
60173SOL    HW182351   4.295   4.392   6.765
60173SOL    HW282352   4.263   4.268   6.686
60174SOL     OW82353   2.945   5.290  11.606
60174SOL    HW182354   2.935   5.332  11.520
60174SOL    HW282355   2.870   5.230  11.612
60175SOL     OW82356   4.621   2.557   8.496
60175SOL    HW182357   4.555   2.535   8.430
60175SOL    HW282358   4.702   2.519   8.463
60176SOL     OW82359  12.513   4.992   5.193
60176SOL    HW182360  12.456   4.991   5.116
60176SOL    HW282361  12.601   4.976   5.157
60177SOL     OW82362  12.646   7.457   5.516
60177SOL    HW182363  12.616   7.399   5.587
60177SOL    HW282364  12.614   7.414   5.436
60178SOL     OW82365   6.939   6.932   1.081
60178SOL    HW182366   6.857   6.970   1.052
60178SOL    HW282367   6.925   6.910   1.173
60179SOL     OW82368  12.216   0.232   3.523
60179SOL    HW182369  12.311   0.227   3.517
60179SOL    HW282370  12.194   0.322   3.497
60180SOL     OW82371   9.278  14.673   7.871
60180SOL    HW182372   9.353  14.713   7.828
60180SOL    HW282373   9.238  14.619   7.803
60181SOL     OW82374   6.583   3.902  10.708
60181SOL    HW182375   6.650   3.835  10.695
60181SOL    HW282376   6.616   3.978  10.660
60182SOL     OW82377   6.040   6.071  10.335
60182SOL    HW182378   5.968   6.009  10.333
60182SOL    HW282379   6.102   6.039  10.269
60183SOL     OW82380  13.370  11.756   5.778
60183SOL    HW182381  13.382  11.664   5.755
60183SOL    HW282382  13.433  11.803   5.723
60184SOL     OW82383   0.987   8.366  11.268
60184SOL    HW182384   0.990   8.385  11.175
60184SOL    HW282385   1.052   8.298  11.281
60185SOL     OW82386  12.515   4.857   0.748
60185SOL    HW182387  12.552   4.801   0.680
60185SOL    HW282388  12.495   4.939   0.702
60186SOL     OW82389   1.149   9.145   7.550
60186SOL    HW182390   1.196   9.141   7.467
60186SOL    HW282391   1.057   9.132   7.526
60187SOL     OW82392   3.893   0.749  13.657
60187SOL    HW182393   3.985   0.768  13.676
60187SOL    HW282394   3.895   0.665  13.612
60188SOL     OW82395   7.047  10.977  11.693
60188SOL    HW182396   7.099  10.902  11.664
60188SOL    HW282397   6.978  10.986  11.627
60189SOL     OW82398   8.313   1.782  13.974
60189SOL    HW182399   8.223   1.789  14.006
60189SOL    HW282400   8.323   1.857  13.915
60190SOL     OW82401   9.277   0.534   9.012
60190SOL    HW182402   9.193   0.497   8.985
60190SOL    HW282403   9.342   0.492   8.956
60191SOL     OW82404   6.428   9.223   2.988
60191SOL    HW182405   6.388   9.282   3.053
60191SOL    HW282406   6.522   9.235   3.000
60192SOL     OW82407  12.463   3.336  14.287
60192SOL    HW182408  12.453   3.369  14.376
60192SOL    HW282409  12.467   3.414  14.233
60193SOL     OW82410   9.609   4.527  12.420
60193SOL    HW182411   9.551   4.458  12.454
60193SOL    HW282412   9.642   4.491  12.338
60194SOL     OW82413   3.148   2.402   8.935
60194SOL    HW182414   3.106   2.362   9.011
60194SOL    HW282415   3.185   2.328   8.886
60195SOL     OW82416   0.536  13.258   6.761
60195SOL    HW182417   0.483  13.271   6.682
60195SOL    HW282418   0.473  13.230   6.828
60196SOL     OW82419   8.056   1.586  14.353
60196SOL    HW182420   7.985   1.649  14.343
60196SOL    HW282421   8.107   1.594  14.273
60197SOL     OW82422   0.209  11.231   4.774
60197SOL    HW182423   0.169  11.148   4.801
60197SOL    HW282424   0.157  11.299   4.817
60198SOL     OW82425   9.524   3.645   1.613
60198SOL    HW182426   9.539   3.670   1.704
60198SOL    HW282427   9.505   3.727   1.568
60199SOL     OW82428   3.841   9.042   5.593
60199SOL    HW182429   3.896   9.013   5.521
60199SOL    HW282430   3.833   9.136   5.581
60200SOL     OW82431   7.135  14.671   6.901
60200SOL    HW182432   7.229  14.661   6.915
60200SOL    HW282433   7.097  14.586   6.926
60201SOL     OW82434   0.075   4.802   4.169
60201SOL    HW182435   0.142   4.867   4.150
60201SOL    HW282436   0.025   4.839   4.242
60202SOL     OW82437  10.853  10.393   4.470
60202SOL    HW182438  10.825  10.467   4.524
60202SOL    HW282439  10.886  10.433   4.390
60203SOL     OW82440   0.007  11.952   9.171
60203SOL    HW182441   0.055  11.876   9.204
60203SOL    HW282442  14.858  11.929   9.080
60204SOL     OW82443   9.363  14.487   5.970
60204SOL    HW182444   9.415  14.448   5.900
60204SOL    HW282445   9.364  14.422   6.041
60205SOL     OW82446   1.039  14.632  11.193
60205SOL    HW182447   1.023  14.714  11.240
60205SOL    HW282448   1.121  14.599  11.230
60206SOL     OW82449  13.570   0.833   7.039
60206SOL    HW182450  13.564   0.738   7.026
60206SOL    HW282451  13.649   0.859   6.993
60207SOL     OW82452  12.688   7.516   1.646
60207SOL    HW182453  12.772   7.471   1.639
60207SOL    HW282454  12.635   7.479   1.576
60208SOL     OW82455   1.205   1.604   2.850
60208SOL    HW182456   1.224   1.520   2.808
60208SOL    HW282457   1.129   1.586   2.905
60209SOL     OW82458   8.816  10.673  14.085
60209SOL    HW182459   8.860  10.605  14.034
60209SOL    HW282460   8.815  10.749  14.026
60210SOL     OW82461  14.475   9.183  12.651
60210SOL    HW182462  14.441   9.270  12.632
60210SOL    HW282463  14.496   9.185  12.744
60211SOL     OW82464  12.295   8.824  14.819
60211SOL    HW182465  12.356   8.896  14.830
60211SOL    HW282466  12.241   8.849  14.744
60212SOL     OW82467   9.797   4.358   7.680
60212SOL    HW182468   9.766   4.276   7.719
60212SOL    HW282469   9.721   4.391   7.631
60213SOL     OW82470  14.541   2.561   2.467
60213SOL    HW182471  14.511   2.652   2.472
60213SOL    HW282472  14.627   2.561   2.508
60214SOL     OW82473  12.469   1.940   6.858
60214SOL    HW182474  12.440   1.893   6.937
60214SOL    HW282475  12.427   2.026   6.865
60215SOL     OW82476  10.872   3.807  14.474
60215SOL    HW182477  10.815   3.867  14.426
60215SOL    HW282478  10.832   3.721  14.461
60216SOL     OW82479   6.119   4.056   0.719
60216SOL    HW182480   6.083   4.119   0.656
60216SOL    HW282481   6.045   4.036   0.777
60217SOL     OW82482   9.758   6.070   0.425
60217SOL    HW182483   9.791   6.055   0.336
60217SOL    HW282484   9.690   6.004   0.436
60218SOL     OW82485  13.987   0.155  11.679
60218SOL    HW182486  13.909   0.199  11.647
60218SOL    HW282487  14.016   0.102  11.604
60219SOL     OW82488   4.353  11.607  11.057
60219SOL    HW182489   4.441  11.634  11.082
60219SOL    HW282490   4.345  11.517  11.088
60220SOL     OW82491  11.741  11.509   9.044
60220SOL    HW182492  11.782  11.574   9.102
60220SOL    HW282493  11.759  11.425   9.087
60221SOL     OW82494  13.778   3.138   1.911
60221SOL    HW182495  13.869   3.165   1.897
60221SOL    HW282496  13.765   3.063   1.853
60222SOL     OW82497  11.815   4.797   7.546
60222SOL    HW182498  11.731   4.794   7.501
60222SOL    HW282499  11.839   4.706   7.560
60223SOL     OW82500   2.337   4.276   6.895
60223SOL    HW182501   2.408   4.340   6.894
60223SOL    HW282502   2.356   4.220   6.970
60224SOL     OW82503   8.199   2.438   3.073
60224SOL    HW182504   8.233   2.430   2.984
60224SOL    HW282505   8.243   2.515   3.108
60225SOL     OW82506  13.063  11.161   8.807
60225SOL    HW182507  13.105  11.090   8.854
60225SOL    HW282508  13.022  11.215   8.874
60226SOL     OW82509   3.261   3.527   6.590
60226SOL    HW182510   3.338   3.492   6.545
60226SOL    HW282511   3.200   3.547   6.519
60227SOL     OW82512  10.870  12.327   9.788
60227SOL    HW182513  10.907  12.278   9.861
60227SOL    HW282514  10.790  12.367   9.823
60228SOL     OW82515   4.161   1.970   5.846
60228SOL    HW182516   4.217   1.897   5.872
60228SOL    HW282517   4.156   1.964   5.751
60229SOL     OW82518   4.558   9.230   0.336
60229SOL    HW182519   4.500   9.170   0.382
60229SOL    HW282520   4.507   9.258   0.259
60230SOL     OW82521   2.492   6.090   9.897
60230SOL    HW182522   2.544   6.156   9.851
60230SOL    HW282523   2.455   6.036   9.826
60231SOL     OW82524   5.604   6.658  12.920
60231SOL    HW182525   5.542   6.644  12.992
60231SOL    HW282526   5.569   6.732  12.872
60232SOL     OW82527  10.615   1.315   9.993
60232SOL    HW182528  10.551   1.246   9.978
60232SOL    HW282529  10.580   1.366  10.066
60233SOL     OW82530   9.528   3.378   8.998
60233SOL    HW182531   9.572   3.439   8.938
60233SOL    HW282532   9.492   3.311   8.941
60234SOL     OW82533   9.677   7.652   5.575
60234SOL    HW182534   9.600   7.620   5.622
60234SOL    HW282535   9.719   7.573   5.541
60235SOL     OW82536  14.032   0.934   1.549
60235SOL    HW182537  14.106   0.874   1.539
60235SOL    HW282538  14.044   0.972   1.636
60236SOL     OW82539  10.923  10.988   7.219
60236SOL    HW182540  10.840  11.033   7.235
60236SOL    HW282541  10.898  10.898   7.199
60237SOL     OW82542   2.248  10.132   8.970
60237SOL    HW182543   2.276  10.054   8.922
60237SOL    HW282544   2.303  10.134   9.048
60238SOL     OW82545  13.296   1.609   1.813
60238SOL    HW182546  13.203   1.589   1.801
60238SOL    HW282547  13.324   1.642   1.728
60239SOL     OW82548   2.274   8.929   9.678
60239SOL    HW182549   2.284   8.875   9.755
60239SOL    HW282550   2.204   8.887   9.628
60240SOL     OW82551   9.843   9.244   4.618
60240SOL    HW182552   9.881   9.330   4.640
60240SOL    HW282553   9.774   9.264   4.555
60241SOL     OW82554   3.878  14.502   4.225
60241SOL    HW182555   3.877  14.581   4.279
60241SOL    HW282556   3.904  14.432   4.285
60242SOL     OW82557   9.257   9.219   3.356
60242SOL    HW182558   9.248   9.138   3.305
60242SOL    HW282559   9.323   9.270   3.309
60243SOL     OW82560   2.359   5.734   2.969
60243SOL    HW182561   2.345   5.720   3.062
60243SOL    HW282562   2.349   5.647   2.930
60244SOL     OW82563  10.315   6.639   9.876
60244SOL    HW182564  10.342   6.582   9.948
60244SOL    HW282565  10.396   6.665   9.833
60245SOL     OW82566  11.756  11.820   8.208
60245SOL    HW182567  11.787  11.750   8.150
60245SOL    HW282568  11.703  11.876   8.151
60246SOL     OW82569  10.493   6.236   8.523
60246SOL    HW182570  10.579   6.264   8.491
60246SOL    HW282571  10.430   6.288   8.472
60247SOL     OW82572   7.842  12.604   7.344
60247SOL    HW182573   7.875  12.569   7.261
60247SOL    HW282574   7.864  12.538   7.409
60248SOL     OW82575   6.630  12.975  10.000
60248SOL    HW182576   6.683  13.034   9.946
60248SOL    HW282577   6.561  12.944   9.940
60249SOL     OW82578   4.847   3.366  13.182
60249SOL    HW182579   4.903   3.350  13.106
60249SOL    HW282580   4.768   3.314  13.165
60250SOL     OW82581  11.526   1.556  10.122
60250SOL    HW182582  11.486   1.582  10.039
60250SOL    HW282583  11.468   1.593  10.189
60251SOL     OW82584  11.717   1.196   8.902
60251SOL    HW182585  11.763   1.183   8.985
60251SOL    HW282586  11.730   1.114   8.854
60252SOL     OW82587   1.985  11.441   1.764
60252SOL    HW182588   2.072  11.441   1.804
60252SOL    HW282589   1.980  11.523   1.717
60253SOL     OW82590  11.264   7.602   1.652
60253SOL    HW182591  11.193   7.557   1.607
60253SOL    HW282592  11.314   7.533   1.695
60254SOL     OW82593   9.854   6.195   9.518
60254SOL    HW182594   9.849   6.266   9.454
60254SOL    HW282595   9.889   6.120   9.470
60255SOL     OW82596   3.189   1.194   2.034
60255SOL    HW182597   3.137   1.135   1.979
60255SOL    HW282598   3.280   1.178   2.006
60256SOL     OW82599   1.294  10.616  13.746
60256SOL    HW182600   1.347  10.562  13.804
60256SOL    HW282601   1.270  10.557  13.674
60257SOL     OW82602   2.477   5.963  13.053
60257SOL    HW182603   2.554   5.922  13.092
60257SOL    HW282604   2.455   5.907  12.979
60258SOL     OW82605  12.114   7.371   6.162
60258SOL    HW182606  12.025   7.383   6.129
60258SOL    HW282607  12.102   7.328   6.247
60259SOL     OW82608  13.457   1.276   1.654
60259SOL    HW182609  13.439   1.201   1.598
60259SOL    HW282610  13.539   1.254   1.698
60260SOL     OW82611  12.862   1.517   6.555
60260SOL    HW182612  12.804   1.451   6.593
60260SOL    HW282613  12.804   1.589   6.529
60261SOL     OW82614  14.207   3.597   6.139
60261SOL    HW182615  14.215   3.556   6.053
60261SOL    HW282616  14.125   3.563   6.174
60262SOL     OW82617  13.519  12.007  10.199
60262SOL    HW182618  13.579  11.937  10.173
60262SOL    HW282619  13.443  11.995  10.141
60263SOL     OW82620  10.793   7.270   2.858
60263SOL    HW182621  10.760   7.348   2.815
60263SOL    HW282622  10.764   7.197   2.803
60264SOL     OW82623   0.864  10.423   3.231
60264SOL    HW182624   0.849  10.329   3.226
60264SOL    HW282625   0.914  10.436   3.311
60265SOL     OW82626   7.928   1.088   1.512
60265SOL    HW182627   7.937   0.993   1.509
60265SOL    HW282628   8.019   1.120   1.519
60266SOL     OW82629   9.687  11.667   2.705
60266SOL    HW182630   9.716  11.604   2.771
60266SOL    HW282631   9.761  11.727   2.695
60267SOL     OW82632   6.316   2.425  12.467
60267SOL    HW182633   6.393   2.395  12.514
60267SOL    HW282634   6.269   2.480  12.529
60268SOL     OW82635  14.047  13.286   1.723
60268SOL    HW182636  14.002  13.207   1.751
60268SOL    HW282637  14.123  13.292   1.780
60269SOL     OW82638   6.099   0.985   3.030
60269SOL    HW182639   6.152   0.959   2.954
60269SOL    HW282640   6.021   1.025   2.992
60270SOL     OW82641  10.878   2.974   9.641
60270SOL    HW182642  10.863   2.895   9.692
60270SOL    HW282643  10.899   3.041   9.707
60271SOL     OW82644   1.458   1.605   1.494
60271SOL    HW182645   1.543   1.579   1.460
60271SOL    HW282646   1.441   1.545   1.567
60272SOL     OW82647   9.938  11.267   9.540
60272SOL    HW182648   9.875  11.324   9.584
60272SOL    HW282649  10.001  11.327   9.500
60273SOL     OW82650   1.434   8.322   2.260
60273SOL    HW182651   1.472   8.253   2.206
60273SOL    HW282652   1.505   8.386   2.272
60274SOL     OW82653  10.249   9.846  11.340
60274SOL    HW182654  10.240   9.901  11.418
60274SOL    HW282655  10.159   9.835  11.308
60275SOL     OW82656   3.657   4.787   8.446
60275SOL    HW182657   3.651   4.882   8.431
60275SOL    HW282658   3.588   4.750   8.390
60276SOL     OW82659   2.621  12.936   5.063
60276SOL    HW182660   2.649  12.876   4.994
60276SOL    HW282661   2.530  12.956   5.041
60277SOL     OW82662  14.671   0.074   2.159
60277SOL    HW182663  14.748   0.024   2.187
60277SOL    HW282664  14.679   0.080   2.064
60278SOL     OW82665  14.220   0.783  14.361
60278SOL    HW182666  14.135   0.740  14.351
60278SOL    HW282667  14.278   0.735  14.302
60279SOL     OW82668   7.596  13.161   0.808
60279SOL    HW182669   7.558  13.075   0.827
60279SOL    HW282670   7.529  13.206   0.756
60280SOL     OW82671   7.108   0.738   5.650
60280SOL    HW182672   7.053   0.811   5.622
60280SOL    HW282673   7.172   0.728   5.579
60281SOL     OW82674  13.000   1.945   5.787
60281SOL    HW182675  12.944   2.011   5.828
60281SOL    HW282676  13.078   1.992   5.761
60282SOL     OW82677   3.308  10.434   0.224
60282SOL    HW182678   3.361  10.493   0.277
60282SOL    HW282679   3.267  10.491   0.159
60283SOL     OW82680   7.941  10.046   7.580
60283SOL    HW182681   7.894  10.119   7.540
60283SOL    HW282682   8.033  10.062   7.562
60284SOL     OW82683   8.982   1.677   8.431
60284SOL    HW182684   8.951   1.713   8.514
60284SOL    HW282685   9.005   1.586   8.450
60285SOL     OW82686  11.650  10.447   3.384
60285SOL    HW182687  11.612  10.427   3.470
60285SOL    HW282688  11.590  10.407   3.322
60286SOL     OW82689   6.622  11.581   8.323
60286SOL    HW182690   6.621  11.495   8.280
60286SOL    HW282691   6.657  11.640   8.256
60287SOL     OW82692   3.312   5.514   1.425
60287SOL    HW182693   3.279   5.440   1.374
60287SOL    HW282694   3.234   5.548   1.470
60288SOL     OW82695   9.458   8.156   6.815
60288SOL    HW182696   9.526   8.089   6.806
60288SOL    HW282697   9.503   8.229   6.859
60289SOL     OW82698  13.824   2.909   5.866
60289SOL    HW182699  13.897   2.910   5.928
60289SOL    HW282700  13.764   2.976   5.899
60290SOL     OW82701  10.062   9.510  12.678
60290SOL    HW182702  10.107   9.513  12.593
60290SOL    HW282703  10.028   9.420  12.683
60291SOL     OW82704  14.830   2.241   4.033
60291SOL    HW182705  14.762   2.200   4.088
60291SOL    HW282706  14.833   2.331   4.064
60292SOL     OW82707   0.997   9.187   2.947
60292SOL    HW182708   1.056   9.120   2.983
60292SOL    HW282709   0.969   9.152   2.863
60293SOL     OW82710   1.337   0.456   4.790
60293SOL    HW182711   1.426   0.492   4.795
60293SOL    HW282712   1.342   0.387   4.724
60294SOL     OW82713   8.665   6.378   9.236
60294SOL    HW182714   8.758   6.400   9.228
60294SOL    HW282715   8.638   6.359   9.146
60295SOL     OW82716  13.356   3.323   3.433
60295SOL    HW182717  13.276   3.283   3.400
60295SOL    HW282718  13.326   3.393   3.491
60296SOL     OW82719   8.041   0.845  13.532
60296SOL    HW182720   8.027   0.878  13.621
60296SOL    HW282721   8.121   0.793  13.539
60297SOL     OW82722   2.672  10.372  11.880
60297SOL    HW182723   2.747  10.386  11.938
60297SOL    HW282724   2.691  10.426  11.803
60298SOL     OW82725  13.325  12.560   8.595
60298SOL    HW182726  13.235  12.534   8.576
60298SOL    HW282727  13.377  12.483   8.571
60299SOL     OW82728   4.377   5.669   9.209
60299SOL    HW182729   4.369   5.584   9.254
60299SOL    HW282730   4.295   5.714   9.228
60300SOL     OW82731   8.172   7.378   7.053
60300SOL    HW182732   8.242   7.343   6.997
60300SOL    HW282733   8.215   7.440   7.110
60301SOL     OW82734  13.707   1.363   0.631
60301SOL    HW182735  13.700   1.341   0.724
60301SOL    HW282736  13.659   1.445   0.622
60302SOL     OW82737  12.528  13.095   1.915
60302SOL    HW182738  12.445  13.048   1.926
60302SOL    HW282739  12.534  13.110   1.820
60303SOL     OW82740   6.111  14.066   2.089
60303SOL    HW182741   6.046  14.009   2.129
60303SOL    HW282742   6.190  14.053   2.141
60304SOL     OW82743   2.159  13.267   5.663
60304SOL    HW182744   2.156  13.183   5.617
60304SOL    HW282745   2.087  13.318   5.626
60305SOL     OW82746   2.535  10.218   7.303
60305SOL    HW182747   2.514  10.298   7.255
60305SOL    HW282748   2.470  10.214   7.373
60306SOL     OW82749   2.509   6.453  14.568
60306SOL    HW182750   2.479   6.377  14.518
60306SOL    HW282751   2.453   6.455  14.646
60307SOL     OW82752  10.073  10.455   2.261
60307SOL    HW182753  10.003  10.393   2.243
60307SOL    HW282754  10.151  10.401   2.271
60308SOL     OW82755   6.879   4.028   3.403
60308SOL    HW182756   6.941   4.051   3.472
60308SOL    HW282757   6.931   4.031   3.322
60309SOL     OW82758  13.915  13.032   9.243
60309SOL    HW182759  13.960  12.956   9.206
60309SOL    HW282760  13.939  13.105   9.185
60310SOL     OW82761   6.075   1.645   7.760
60310SOL    HW182762   6.077   1.703   7.684
60310SOL    HW282763   6.012   1.686   7.820
60311SOL     OW82764   0.645   6.733   1.180
60311SOL    HW182765   0.635   6.715   1.273
60311SOL    HW282766   0.731   6.697   1.158
60312SOL     OW82767   6.538   4.736   5.364
60312SOL    HW182768   6.612   4.699   5.316
60312SOL    HW282769   6.506   4.807   5.309
60313SOL     OW82770   9.216   0.312  12.706
60313SOL    HW182771   9.154   0.370  12.661
60313SOL    HW282772   9.256   0.261  12.636
60314SOL     OW82773   2.298  12.667  11.619
60314SOL    HW182774   2.242  12.683  11.543
60314SOL    HW282775   2.315  12.754  11.656
60315SOL     OW82776   5.325  11.038   0.975
60315SOL    HW182777   5.241  11.081   0.991
60315SOL    HW282778   5.376  11.103   0.926
60316SOL     OW82779   8.043  10.822   7.045
60316SOL    HW182780   8.058  10.798   6.953
60316SOL    HW282781   8.084  10.908   7.054
60317SOL     OW82782  13.335   8.856  12.334
60317SOL    HW182783  13.340   8.930  12.274
60317SOL    HW282784  13.252   8.813  12.311
60318SOL     OW82785  12.808   8.055   6.146
60318SOL    HW182786  12.777   7.979   6.097
60318SOL    HW282787  12.840   8.116   6.079
60319SOL     OW82788   1.770   9.955  11.127
60319SOL    HW182789   1.753  10.033  11.181
60319SOL    HW282790   1.819   9.897  11.185
60320SOL     OW82791   0.557   8.821   3.325
60320SOL    HW182792   0.603   8.781   3.400
60320SOL    HW282793   0.579   8.764   3.251
60321SOL     OW82794  14.578   9.668   3.242
60321SOL    HW182795  14.505   9.614   3.273
60321SOL    HW282796  14.655   9.629   3.284
60322SOL     OW82797  14.672  14.534   6.195
60322SOL    HW182798  14.646  14.495   6.278
60322SOL    HW282799  14.680  14.628   6.213
60323SOL     OW82800  13.632   5.884  12.762
60323SOL    HW182801  13.624   5.957  12.701
60323SOL    HW282802  13.725   5.863  12.762
60324SOL     OW82803   5.130  11.648  11.219
60324SOL    HW182804   5.221  11.678  11.222
60324SOL    HW282805   5.094  11.691  11.141
60325SOL     OW82806  12.285  13.170  14.748
60325SOL    HW182807  12.218  13.120  14.793
60325SOL    HW282808  12.292  13.252  14.798
60326SOL     OW82809   7.376   7.281   7.188
60326SOL    HW182810   7.409   7.338   7.256
60326SOL    HW282811   7.281   7.286   7.197
60327SOL     OW82812   9.382   8.107   8.370
60327SOL    HW182813   9.390   8.036   8.434
60327SOL    HW282814   9.426   8.074   8.292
60328SOL     OW82815  13.620   7.972   7.103
60328SOL    HW182816  13.532   7.967   7.067
60328SOL    HW282817  13.645   7.881   7.120
60329SOL     OW82818  10.590   0.946   7.315
60329SOL    HW182819  10.655   1.015   7.326
60329SOL    HW282820  10.506   0.992   7.314
60330SOL     OW82821   1.840   4.648   0.294
60330SOL    HW182822   1.754   4.686   0.310
60330SOL    HW282823   1.823   4.556   0.273
60331SOL     OW82824   0.149  14.139   9.582
60331SOL    HW182825   0.150  14.233   9.562
60331SOL    HW282826   0.150  14.096   9.497
60332SOL     OW82827   8.205  12.495  12.227
60332SOL    HW182828   8.134  12.460  12.174
60332SOL    HW282829   8.187  12.463  12.316
60333SOL     OW82830   7.660   5.760   2.249
60333SOL    HW182831   7.715   5.829   2.213
60333SOL    HW282832   7.571   5.783   2.222
60334SOL     OW82833  11.256  11.158   7.068
60334SOL    HW182834  11.167  11.135   7.096
60334SOL    HW282835  11.252  11.252   7.050
60335SOL     OW82836   5.058   3.466  11.709
60335SOL    HW182837   5.047   3.560  11.722
60335SOL    HW282838   4.978   3.438  11.664
60336SOL     OW82839   0.705   9.535  10.471
60336SOL    HW182840   0.735   9.480  10.543
60336SOL    HW282841   0.785   9.562  10.427
60337SOL     OW82842   1.652  11.514   4.956
60337SOL    HW182843   1.724  11.574   4.976
60337SOL    HW282844   1.680  11.470   4.876
60338SOL     OW82845   2.853  12.154  12.334
60338SOL    HW182846   2.843  12.197  12.419
60338SOL    HW282847   2.947  12.138  12.326
60339SOL     OW82848   8.217   4.562   0.164
60339SOL    HW182849   8.141   4.572   0.107
60339SOL    HW282850   8.292   4.578   0.107
60340SOL     OW82851   1.719  10.603  14.450
60340SOL    HW182852   1.712  10.507  14.443
60340SOL    HW282853   1.793  10.626  14.394
60341SOL     OW82854  11.888   2.134   6.925
60341SOL    HW182855  11.799   2.124   6.891
60341SOL    HW282856  11.935   2.180   6.855
60342SOL     OW82857   2.492  14.157  12.628
60342SOL    HW182858   2.450  14.091  12.574
60342SOL    HW282859   2.431  14.173  12.700
60343SOL     OW82860  12.176   9.935   2.781
60343SOL    HW182861  12.199   9.958   2.691
60343SOL    HW282862  12.244   9.976   2.834
60344SOL     OW82863   4.829   4.833   5.333
60344SOL    HW182864   4.902   4.880   5.373
60344SOL    HW282865   4.851   4.829   5.240
60345SOL     OW82866   7.961   4.236   4.944
60345SOL    HW182867   7.935   4.260   5.033
60345SOL    HW282868   7.880   4.242   4.893
60346SOL     OW82869   0.031   7.851  13.949
60346SOL    HW182870   0.002   7.936  13.981
60346SOL    HW282871   0.034   7.796  14.027
60347SOL     OW82872   6.549   5.090  12.917
60347SOL    HW182873   6.525   5.179  12.945
60347SOL    HW282874   6.633   5.101  12.872
60348SOL     OW82875  13.567   6.624   7.214
60348SOL    HW182876  13.632   6.645   7.147
60348SOL    HW282877  13.616   6.627   7.296
60349SOL     OW82878  10.664   8.276   7.559
60349SOL    HW182879  10.614   8.346   7.516
60349SOL    HW282880  10.708   8.319   7.632
60350SOL     OW82881   7.505  12.454  12.412
60350SOL    HW182882   7.548  12.428  12.494
60350SOL    HW282883   7.502  12.373  12.361
60351SOL     OW82884   2.988   0.134  10.146
60351SOL    HW182885   2.898   0.130  10.178
60351SOL    HW282886   3.021   0.219  10.175
60352SOL     OW82887   0.057   8.831   4.256
60352SOL    HW182888  14.860   8.785   4.208
60352SOL    HW282889   0.059   8.918   4.216
60353SOL     OW82890  10.957  12.981   9.853
60353SOL    HW182891  11.016  12.938   9.915
60353SOL    HW282892  10.888  13.018   9.907
60354SOL     OW82893   9.664   4.368  14.249
60354SOL    HW182894   9.735   4.311  14.280
60354SOL    HW282895   9.707   4.434  14.196
60355SOL     OW82896   3.863  14.469   5.005
60355SOL    HW182897   3.847  14.439   5.095
60355SOL    HW282898   3.921  14.403   4.968
60356SOL     OW82899   7.934   0.866   0.367
60356SOL    HW182900   7.923   0.925   0.442
60356SOL    HW282901   7.921   0.779   0.404
60357SOL     OW82902   8.104   2.568   8.489
60357SOL    HW182903   8.028   2.592   8.437
60357SOL    HW282904   8.068   2.522   8.564
60358SOL     OW82905   6.654  14.842   0.821
60358SOL    HW182906   6.719  14.838   0.751
60358SOL    HW282907   6.614   0.056   0.812
60359SOL     OW82908   5.216   4.859   2.624
60359SOL    HW182909   5.252   4.785   2.673
60359SOL    HW282910   5.239   4.936   2.676
60360SOL     OW82911   1.820  14.566   2.831
60360SOL    HW182912   1.764  14.643   2.820
60360SOL    HW282913   1.902  14.601   2.867
60361SOL     OW82914  14.452  11.557   8.348
60361SOL    HW182915  14.422  11.483   8.295
60361SOL    HW282916  14.530  11.525   8.392
60362SOL     OW82917   6.583  11.317  12.732
60362SOL    HW182918   6.535  11.375  12.673
60362SOL    HW282919   6.631  11.376  12.790
60363SOL     OW82920   0.212   5.013   1.359
60363SOL    HW182921   0.182   4.934   1.402
60363SOL    HW282922   0.301   5.025   1.391
60364SOL     OW82923  13.560   2.397   0.149
60364SOL    HW182924  13.571   2.312   0.191
60364SOL    HW282925  13.481   2.434   0.188
60365SOL     OW82926   6.298   8.076  13.285
60365SOL    HW182927   6.242   8.151  13.306
60365SOL    HW282928   6.327   8.044  13.370
60366SOL     OW82929   2.893   0.711   7.906
60366SOL    HW182930   2.919   0.623   7.877
60366SOL    HW282931   2.798   0.708   7.909
60367SOL     OW82932   1.043   3.398   1.007
60367SOL    HW182933   1.036   3.402   1.102
60367SOL    HW282934   0.952   3.400   0.977
60368SOL     OW82935   8.719   9.926  11.538
60368SOL    HW182936   8.742   9.932  11.631
60368SOL    HW282937   8.728  10.016  11.505
60369SOL     OW82938   2.216  13.012   0.906
60369SOL    HW182939   2.228  13.057   0.990
60369SOL    HW282940   2.200  12.921   0.930
60370SOL     OW82941  13.991   0.819   9.371
60370SOL    HW182942  13.955   0.819   9.460
60370SOL    HW282943  13.953   0.742   9.329
60371SOL     OW82944   8.282  12.291   1.074
60371SOL    HW182945   8.335  12.350   1.128
60371SOL    HW282946   8.215  12.257   1.133
60372SOL     OW82947  13.198   3.711   0.946
60372SOL    HW182948  13.250   3.781   0.986
60372SOL    HW282949  13.107   3.741   0.953
60373SOL     OW82950   9.844  12.129   1.884
60373SOL    HW182951   9.914  12.082   1.930
60373SOL    HW282952   9.793  12.170   1.954
60374SOL     OW82953   5.609   8.146   4.733
60374SOL    HW182954   5.577   8.078   4.793
60374SOL    HW282955   5.536   8.207   4.726
60375SOL     OW82956   4.237   3.988  10.913
60375SOL    HW182957   4.246   3.930  10.989
60375SOL    HW282958   4.143   3.998  10.901
60376SOL     OW82959   3.725   7.379  10.210
60376SOL    HW182960   3.631   7.381  10.228
60376SOL    HW282961   3.735   7.314  10.140
60377SOL     OW82962   1.758   6.342   0.402
60377SOL    HW182963   1.733   6.412   0.463
60377SOL    HW282964   1.694   6.348   0.331
60378SOL     OW82965   7.322  12.077   2.790
60378SOL    HW182966   7.370  12.000   2.758
60378SOL    HW282967   7.360  12.095   2.876
60379SOL     OW82968  10.576  14.537   9.698
60379SOL    HW182969  10.490  14.541   9.657
60379SOL    HW282970  10.611  14.626   9.689
60380SOL     OW82971   1.487   2.129   6.852
60380SOL    HW182972   1.572   2.148   6.813
60380SOL    HW282973   1.467   2.040   6.824
60381SOL     OW82974   3.432   1.107  10.268
60381SOL    HW182975   3.429   1.119  10.173
60381SOL    HW282976   3.520   1.073  10.285
60382SOL     OW82977   3.885  12.292   8.618
60382SOL    HW182978   3.885  12.204   8.583
60382SOL    HW282979   3.797  12.326   8.598
60383SOL     OW82980  11.534   7.624   4.344
60383SOL    HW182981  11.468   7.693   4.349
60383SOL    HW282982  11.547   7.611   4.250
60384SOL     OW82983   4.581   9.651   6.165
60384SOL    HW182984   4.668   9.668   6.130
60384SOL    HW282985   4.521   9.673   6.094
60385SOL     OW82986   7.797   4.119   2.029
60385SOL    HW182987   7.781   4.165   1.946
60385SOL    HW282988   7.838   4.037   2.002
60386SOL     OW82989   0.932   3.340   8.920
60386SOL    HW182990   0.957   3.281   8.849
60386SOL    HW282991   0.844   3.311   8.945
60387SOL     OW82992  12.925   9.354   7.180
60387SOL    HW182993  12.914   9.350   7.085
60387SOL    HW282994  12.871   9.428   7.207
60388SOL     OW82995   6.265  13.578   6.435
60388SOL    HW182996   6.280  13.496   6.388
60388SOL    HW282997   6.169  13.589   6.434
60389SOL     OW82998  10.959   7.408   5.803
60389SOL    HW182999  10.935   7.410   5.711
60389SOL    HW283000  11.022   7.336   5.810
60390SOL     OW83001  13.215   9.360   0.049
60390SOL    HW183002  13.189   9.320   0.132
60390SOL    HW283003  13.136   9.404   0.017
60391SOL     OW83004   9.612  10.958   9.091
60391SOL    HW183005   9.663  11.010   9.153
60391SOL    HW283006   9.530  11.006   9.080
60392SOL     OW83007  12.614   7.534  13.475
60392SOL    HW183008  12.708   7.539  13.455
60392SOL    HW283009  12.573   7.502  13.395
60393SOL     OW83010  14.101   1.516   8.286
60393SOL    HW183011  14.025   1.458   8.292
60393SOL    HW283012  14.176   1.458   8.300
60394SOL     OW83013  12.312   5.562   6.243
60394SOL    HW183014  12.371   5.525   6.177
60394SOL    HW283015  12.246   5.609   6.193
60395SOL     OW83016   4.795   4.702   2.829
60395SOL    HW183017   4.728   4.762   2.797
60395SOL    HW283018   4.748   4.645   2.890
60396SOL     OW83019  11.733   3.256   7.782
60396SOL    HW183020  11.686   3.296   7.855
60396SOL    HW283021  11.737   3.325   7.716
60397SOL     OW83022  12.050   1.996   1.262
60397SOL    HW183023  12.067   2.073   1.207
60397SOL    HW283024  11.958   2.004   1.285
60398SOL     OW83025   6.963   6.786  13.934
60398SOL    HW183026   6.926   6.717  13.990
60398SOL    HW283027   6.914   6.865  13.956
60399SOL     OW83028   8.384   8.696  11.171
60399SOL    HW183029   8.455   8.731  11.118
60399SOL    HW283030   8.314   8.761  11.165
60400SOL     OW83031   5.500   4.981  11.820
60400SOL    HW183032   5.527   4.986  11.728
60400SOL    HW283033   5.582   4.983  11.869
60401SOL     OW83034  11.746  10.327   1.399
60401SOL    HW183035  11.833  10.328   1.359
60401SOL    HW283036  11.735  10.237   1.429
60402SOL     OW83037  14.078   3.462   7.020
60402SOL    HW183038  14.078   3.555   7.039
60402SOL    HW283039  14.139   3.452   6.947
60403SOL     OW83040   3.633  14.381   8.346
60403SOL    HW183041   3.605  14.327   8.272
60403SOL    HW283042   3.728  14.371   8.348
60404SOL     OW83043   4.553   6.571  12.172
60404SOL    HW183044   4.627   6.512  12.180
60404SOL    HW283045   4.477   6.514  12.161
60405SOL     OW83046   2.982   9.485  10.571
60405SOL    HW183047   3.048   9.448  10.629
60405SOL    HW283048   2.995   9.440  10.487
60406SOL     OW83049   8.212  11.104   9.527
60406SOL    HW183050   8.153  11.039   9.490
60406SOL    HW283051   8.293  11.055   9.544
60407SOL     OW83052   0.837   3.750  12.446
60407SOL    HW183053   0.747   3.782  12.458
60407SOL    HW283054   0.889   3.799  12.510
60408SOL     OW83055  12.507  14.303   9.582
60408SOL    HW183056  12.587  14.312   9.634
60408SOL    HW283057  12.522  14.355   9.503
60409SOL     OW83058   1.082  12.283   6.717
60409SOL    HW183059   1.176  12.295   6.705
60409SOL    HW283060   1.073  12.204   6.770
60410SOL     OW83061   8.950  11.351  13.702
60410SOL    HW183062   8.971  11.368  13.794
60410SOL    HW283063   9.019  11.397  13.653
60411SOL     OW83064  12.930   1.894   7.095
60411SOL    HW183065  12.871   1.969   7.089
60411SOL    HW283066  13.013   1.930   7.126
60412SOL     OW83067   0.613   3.752   1.628
60412SOL    HW183068   0.624   3.846   1.643
60412SOL    HW283069   0.518   3.740   1.623
60413SOL     OW83070   4.335   4.553   2.704
60413SOL    HW183071   4.269   4.582   2.641
60413SOL    HW283072   4.415   4.543   2.652
60414SOL     OW83073   2.523   8.049  10.013
60414SOL    HW183074   2.518   7.974  10.073
60414SOL    HW283075   2.568   8.015   9.935
60415SOL     OW83076  12.602   5.116  12.921
60415SOL    HW183077  12.542   5.152  12.986
60415SOL    HW283078  12.664   5.063  12.971
60416SOL     OW83079   3.023  10.967  10.592
60416SOL    HW183080   2.988  10.948  10.679
60416SOL    HW283081   3.013  11.061  10.582
60417SOL     OW83082   1.698  13.404  14.622
60417SOL    HW183083   1.713  13.470  14.554
60417SOL    HW283084   1.783  13.361  14.632
60418SOL     OW83085   9.225   1.941   5.348
60418SOL    HW183086   9.279   1.991   5.287
60418SOL    HW283087   9.274   1.860   5.364
60419SOL     OW83088   1.696  14.083   2.305
60419SOL    HW183089   1.704  14.146   2.377
60419SOL    HW283090   1.784  14.077   2.269
60420SOL     OW83091  10.011   8.347   0.257
60420SOL    HW183092  10.039   8.291   0.184
60420SOL    HW283093   9.929   8.307   0.287
60421SOL     OW83094   6.054   9.540   9.611
60421SOL    HW183095   6.145   9.549   9.582
60421SOL    HW283096   6.058   9.551   9.706
60422SOL     OW83097  10.993   1.619   4.797
60422SOL    HW183098  11.047   1.547   4.766
60422SOL    HW283099  10.984   1.603   4.891
60423SOL     OW83100   9.965   8.141   8.136
60423SOL    HW183101   9.888   8.181   8.096
60423SOL    HW283102  10.038   8.168   8.079
60424SOL     OW83103  10.920  11.786   3.781
60424SOL    HW183104  10.920  11.727   3.856
60424SOL    HW283105  10.901  11.729   3.706
60425SOL     OW83106   7.172   8.410  14.120
60425SOL    HW183107   7.106   8.357  14.074
60425SOL    HW283108   7.211   8.465  14.052
60426SOL     OW83109   6.771   8.978  13.897
60426SOL    HW183110   6.755   9.071  13.878
60426SOL    HW283111   6.863   8.975  13.923
60427SOL     OW83112   3.967   5.387  12.671
60427SOL    HW183113   4.015   5.462  12.635
60427SOL    HW283114   3.904   5.426  12.732
60428SOL     OW83115  14.059   8.521   8.264
60428SOL    HW183116  13.984   8.580   8.269
60428SOL    HW283117  14.024   8.435   8.288
60429SOL     OW83118   4.150   9.262   7.839
60429SOL    HW183119   4.187   9.202   7.775
60429SOL    HW283120   4.078   9.305   7.793
60430SOL     OW83121   9.498   8.403   1.452
60430SOL    HW183122   9.449   8.450   1.385
60430SOL    HW283123   9.479   8.311   1.435
60431SOL     OW83124  13.140  12.055  13.088
60431SOL    HW183125  13.136  12.107  13.008
60431SOL    HW283126  13.142  11.964  13.058
60432SOL     OW83127  10.227   5.361  12.428
60432SOL    HW183128  10.164   5.292  12.406
60432SOL    HW283129  10.307   5.314  12.453
60433SOL     OW83130   1.537  13.245   2.701
60433SOL    HW183131   1.560  13.305   2.630
60433SOL    HW283132   1.576  13.284   2.779
60434SOL     OW83133   6.713   0.621   0.530
60434SOL    HW183134   6.734   0.714   0.523
60434SOL    HW283135   6.691   0.608   0.623
60435SOL     OW83136   8.801   2.340  14.103
60435SOL    HW183137   8.776   2.431  14.122
60435SOL    HW283138   8.892   2.334  14.130
60436SOL     OW83139  10.687   8.392   7.280
60436SOL    HW183140  10.755   8.450   7.315
60436SOL    HW283141  10.734   8.331   7.224
60437SOL     OW83142   8.751   1.438   4.509
60437SOL    HW183143   8.787   1.451   4.597
60437SOL    HW283144   8.797   1.360   4.476
60438SOL     OW83145  13.080  12.288   1.124
60438SOL    HW183146  12.996  12.248   1.147
60438SOL    HW283147  13.064  12.329   1.039
60439SOL     OW83148   0.143   9.168  13.334
60439SOL    HW183149   0.104   9.083  13.315
60439SOL    HW283150   0.221   9.148  13.384
60440SOL     OW83151   9.311  12.256  11.846
60440SOL    HW183152   9.255  12.219  11.914
60440SOL    HW283153   9.299  12.199  11.770
60441SOL     OW83154  10.536   0.285   6.473
60441SOL    HW183155  10.519   0.347   6.402
60441SOL    HW283156  10.494   0.324   6.549
60442SOL     OW83157   2.307  11.603  12.473
60442SOL    HW183158   2.385  11.581  12.423
60442SOL    HW283159   2.235  11.594  12.410
60443SOL     OW83160  12.259   9.414  11.496
60443SOL    HW183161  12.176   9.459  11.484
60443SOL    HW283162  12.322   9.463  11.443
60444SOL     OW83163  14.075  11.026  10.080
60444SOL    HW183164  14.146  10.970  10.110
60444SOL    HW283165  14.047  11.073  10.158
60445SOL     OW83166   4.344   3.665   0.355
60445SOL    HW183167   4.404   3.645   0.427
60445SOL    HW283168   4.279   3.724   0.394
60446SOL     OW83169   5.952  12.550   3.653
60446SOL    HW183170   6.026  12.508   3.696
60446SOL    HW283171   5.929  12.491   3.581
60447SOL     OW83172   8.087   2.298  14.728
60447SOL    HW183173   8.173   2.279  14.690
60447SOL    HW283174   8.105   2.313  14.821
60448SOL     OW83175  13.296   6.827   5.113
60448SOL    HW183176  13.282   6.890   5.184
60448SOL    HW283177  13.258   6.746   5.145
60449SOL     OW83178  11.837  12.140   3.124
60449SOL    HW183179  11.752  12.159   3.085
60449SOL    HW283180  11.819  12.133   3.218
60450SOL     OW83181  10.666  10.808  13.056
60450SOL    HW183182  10.581  10.770  13.079
60450SOL    HW283183  10.695  10.851  13.137
60451SOL     OW83184   8.969   1.142   3.771
60451SOL    HW183185   8.901   1.200   3.736
60451SOL    HW283186   8.927   1.096   3.844
60452SOL     OW83187  10.181   7.192   0.558
60452SOL    HW183188  10.095   7.151   0.550
60452SOL    HW283189  10.224   7.173   0.475
60453SOL     OW83190   8.246   1.907   3.120
60453SOL    HW183191   8.225   2.000   3.111
60453SOL    HW283192   8.213   1.883   3.207
60454SOL     OW83193  14.250   4.446   5.686
60454SOL    HW183194  14.290   4.509   5.746
60454SOL    HW283195  14.180   4.496   5.643
60455SOL     OW83196   7.399   8.309   3.874
60455SOL    HW183197   7.402   8.403   3.854
60455SOL    HW283198   7.359   8.269   3.797
60456SOL     OW83199  11.441  11.898  11.846
60456SOL    HW183200  11.496  11.890  11.923
60456SOL    HW283201  11.421  11.808  11.821
60457SOL     OW83202   5.706   7.707   9.363
60457SOL    HW183203   5.768   7.768   9.325
60457SOL    HW283204   5.620   7.743   9.340
60458SOL     OW83205   9.030   3.993   3.480
60458SOL    HW183206   9.039   4.008   3.386
60458SOL    HW283207   9.045   3.899   3.491
60459SOL     OW83208  14.142   2.695   9.066
60459SOL    HW183209  14.062   2.683   9.015
60459SOL    HW283210  14.119   2.760   9.132
60460SOL     OW83211   5.201  12.838   6.423
60460SOL    HW183212   5.230  12.762   6.474
60460SOL    HW283213   5.161  12.800   6.345
60461SOL     OW83214  12.360   2.817   3.295
60461SOL    HW183215  12.319   2.854   3.373
60461SOL    HW283216  12.323   2.866   3.222
60462SOL     OW83217   9.262   4.756   3.210
60462SOL    HW183218   9.270   4.661   3.200
60462SOL    HW283219   9.264   4.771   3.305
60463SOL     OW83220   3.892   9.313   0.875
60463SOL    HW183221   3.945   9.388   0.899
60463SOL    HW283222   3.804   9.336   0.905
60464SOL     OW83223   5.273   8.310   0.220
60464SOL    HW183224   5.356   8.355   0.231
60464SOL    HW283225   5.230   8.319   0.305
60465SOL     OW83226   3.231   4.442   2.085
60465SOL    HW183227   3.136   4.433   2.091
60465SOL    HW283228   3.247   4.452   1.991
60466SOL     OW83229   8.054   6.965  11.713
60466SOL    HW183230   8.132   6.992  11.761
60466SOL    HW283231   8.023   7.045  11.670
60467SOL     OW83232   8.862  14.691   4.006
60467SOL    HW183233   8.871  14.704   3.912
60467SOL    HW283234   8.842  14.777   4.041
60468SOL     OW83235  14.659  10.554   2.612
60468SOL    HW183236  14.680  10.558   2.519
60468SOL    HW283237  14.739  10.583   2.655
60469SOL     OW83238   2.304  12.177   6.247
60469SOL    HW183239   2.245  12.123   6.299
60469SOL    HW283240   2.381  12.121   6.233
60470SOL     OW83241  11.678  14.090   5.207
60470SOL    HW183242  11.653  14.002   5.232
60470SOL    HW283243  11.746  14.115   5.270
60471SOL     OW83244  12.003   7.703   3.748
60471SOL    HW183245  11.949   7.723   3.672
60471SOL    HW283246  12.047   7.621   3.726
60472SOL     OW83247  11.638   4.622  14.813
60472SOL    HW183248  11.550   4.630  14.850
60472SOL    HW283249  11.627   4.567  14.735
60473SOL     OW83250   5.728   4.869  11.978
60473SOL    HW183251   5.727   4.849  11.885
60473SOL    HW283252   5.819   4.895  11.996
60474SOL     OW83253   7.888   3.875   0.914
60474SOL    HW183254   7.944   3.804   0.882
60474SOL    HW283255   7.882   3.860   1.009
60475SOL     OW83256   6.118  10.687  14.187
60475SOL    HW183257   6.125  10.612  14.128
60475SOL    HW283258   6.069  10.753  14.137
60476SOL     OW83259  12.040   5.825  13.079
60476SOL    HW183260  12.029   5.838  12.985
60476SOL    HW283261  12.098   5.749  13.086
60477SOL     OW83262   5.961   5.204   3.236
60477SOL    HW183263   5.902   5.256   3.182
60477SOL    HW283264   5.989   5.264   3.305
60478SOL     OW83265   0.443  11.638   3.247
60478SOL    HW183266   0.423  11.676   3.162
60478SOL    HW283267   0.464  11.546   3.228
60479SOL     OW83268   2.343  13.057   0.658
60479SOL    HW183269   2.276  13.075   0.724
60479SOL    HW283270   2.294  13.031   0.580
60480SOL     OW83271  14.651   2.320  14.039
60480SOL    HW183272  14.650   2.271  13.957
60480SOL    HW283273  14.559   2.334  14.060
60481SOL     OW83274  10.857   3.164   6.858
60481SOL    HW183275  10.765   3.179   6.835
60481SOL    HW283276  10.905   3.177   6.777
60482SOL     OW83277  10.783   6.061   2.567
60482SOL    HW183278  10.804   6.047   2.659
60482SOL    HW283279  10.853   6.116   2.534
60483SOL     OW83280   0.456   3.885   8.918
60483SOL    HW183281   0.468   3.952   8.851
60483SOL    HW283282   0.364   3.891   8.942
60484SOL     OW83283  11.648  14.871  12.814
60484SOL    HW183284  11.668   0.091  12.829
60484SOL    HW283285  11.701  14.847  12.738
60485SOL     OW83286  11.303   5.619   0.585
60485SOL    HW183287  11.357   5.665   0.521
60485SOL    HW283288  11.213   5.640   0.561
60486SOL     OW83289  11.524   1.310  10.645
60486SOL    HW183290  11.559   1.370  10.579
60486SOL    HW283291  11.431   1.332  10.651
60487SOL     OW83292   5.246  11.397  12.005
60487SOL    HW183293   5.302  11.454  12.059
60487SOL    HW283294   5.160  11.402  12.046
60488SOL     OW83295   1.869  12.586   6.185
60488SOL    HW183296   1.918  12.633   6.252
60488SOL    HW283297   1.926  12.588   6.108
60489SOL     OW83298   0.582   1.582  11.266
60489SOL    HW183299   0.551   1.566  11.177
60489SOL    HW283300   0.533   1.659  11.295
60490SOL     OW83301  10.334   6.307  12.394
60490SOL    HW183302  10.357   6.324  12.486
60490SOL    HW283303  10.382   6.227  12.372
60491SOL     OW83304  10.927   9.532   3.485
60491SOL    HW183305  10.992   9.464   3.499
60491SOL    HW283306  10.978   9.612   3.471
60492SOL     OW83307  12.073   3.242   6.758
60492SOL    HW183308  12.143   3.264   6.695
60492SOL    HW283309  12.011   3.314   6.751
60493SOL     OW83310  14.352   7.414  12.565
60493SOL    HW183311  14.264   7.377  12.556
60493SOL    HW283312  14.385   7.419  12.475
60494SOL     OW83313  10.238   4.232  10.916
60494SOL    HW183314  10.175   4.189  10.858
60494SOL    HW283315  10.312   4.253  10.859
60495SOL     OW83316   5.450   9.325  12.957
60495SOL    HW183317   5.425   9.288  12.872
60495SOL    HW283318   5.545   9.314  12.960
60496SOL     OW83319  13.341  12.017  11.529
60496SOL    HW183320  13.341  12.111  11.547
60496SOL    HW283321  13.317  11.976  11.613
60497SOL     OW83322   8.262  12.791  10.108
60497SOL    HW183323   8.316  12.769  10.031
60497SOL    HW283324   8.191  12.845  10.073
60498SOL     OW83325   3.439   8.944   6.653
60498SOL    HW183326   3.369   8.931   6.590
60498SOL    HW283327   3.410   8.898   6.732
60499SOL     OW83328   3.681   9.913  13.663
60499SOL    HW183329   3.722   9.829  13.684
60499SOL    HW283330   3.753   9.967  13.628
60500SOL     OW83331   1.713   4.235  12.318
60500SOL    HW183332   1.805   4.212  12.316
60500SOL    HW283333   1.667   4.152  12.308
60501SOL     OW83334   0.828   7.732  14.563
60501SOL    HW183335   0.734   7.723  14.547
60501SOL    HW283336   0.865   7.747  14.476
60502SOL     OW83337   2.199   3.203  11.942
60502SOL    HW183338   2.211   3.114  11.975
60502SOL    HW283339   2.113   3.230  11.974
60503SOL     OW83340   3.737   4.228   6.168
60503SOL    HW183341   3.792   4.271   6.103
60503SOL    HW283342   3.666   4.289   6.185
60504SOL     OW83343  12.370  10.923  13.121
60504SOL    HW183344  12.292  10.978  13.115
60504SOL    HW283345  12.342  10.838  13.086
60505SOL     OW83346  12.078   5.273  14.044
60505SOL    HW183347  12.172   5.258  14.047
60505SOL    HW283348  12.060   5.333  14.115
60506SOL     OW83349  14.696   3.858   7.106
60506SOL    HW183350  14.722   3.788   7.046
60506SOL    HW283351  14.616   3.894   7.067
60507SOL     OW83352  13.941   0.047   6.200
60507SOL    HW183353  13.901   0.098   6.271
60507SOL    HW283354  13.959  14.834   6.239
60508SOL     OW83355   1.133   5.870  13.725
60508SOL    HW183356   1.202   5.827  13.775
60508SOL    HW283357   1.180   5.915  13.655
60509SOL     OW83358   9.951   6.063  14.044
60509SOL    HW183359  10.033   6.088  14.003
60509SOL    HW283360   9.956   5.968  14.054
60510SOL     OW83361   2.363  13.732  12.196
60510SOL    HW183362   2.458  13.724  12.189
60510SOL    HW283363   2.345  13.715  12.289
60511SOL     OW83364   8.513   1.322  12.246
60511SOL    HW183365   8.444   1.319  12.312
60511SOL    HW283366   8.507   1.238  12.201
60512SOL     OW83367   3.922   9.932   1.709
60512SOL    HW183368   3.992   9.997   1.713
60512SOL    HW283369   3.943   9.878   1.633
60513SOL     OW83370   8.883  11.367  12.136
60513SOL    HW183371   8.857  11.396  12.223
60513SOL    HW283372   8.948  11.298  12.151
60514SOL     OW83373   2.137   9.497   6.818
60514SOL    HW183374   2.229   9.515   6.800
60514SOL    HW283375   2.112   9.559   6.887
60515SOL     OW83376  13.504  10.790   7.628
60515SOL    HW183377  13.509  10.882   7.600
60515SOL    HW283378  13.437  10.789   7.696
60516SOL     OW83379   1.120  11.997  13.233
60516SOL    HW183380   1.112  12.039  13.147
60516SOL    HW283381   1.214  11.997  13.250
60517SOL     OW83382   9.146   2.164  13.533
60517SOL    HW183383   9.220   2.112  13.567
60517SOL    HW283384   9.167   2.254  13.558
60518SOL     OW83385  12.168   6.505   5.109
60518SOL    HW183386  12.208   6.592   5.118
60518SOL    HW283387  12.151   6.477   5.199
60519SOL     OW83388   8.809   6.564   9.994
60519SOL    HW183389   8.840   6.635  10.050
60519SOL    HW283390   8.853   6.579   9.910
60520SOL     OW83391  10.959   2.086   3.972
60520SOL    HW183392  10.986   2.138   3.896
60520SOL    HW283393  10.937   2.001   3.936
60521SOL     OW83394  12.657  11.514   7.566
60521SOL    HW183395  12.661  11.597   7.519
60521SOL    HW283396  12.740  11.471   7.546
60522SOL     OW83397   3.269   1.860   3.024
60522SOL    HW183398   3.233   1.925   2.963
60522SOL    HW283399   3.214   1.868   3.102
60523SOL     OW83400   8.442   9.923   1.102
60523SOL    HW183401   8.535   9.943   1.088
60523SOL    HW283402   8.400   9.949   1.020
60524SOL     OW83403   4.539   8.237  13.527
60524SOL    HW183404   4.494   8.322  13.531
60524SOL    HW283405   4.626   8.255  13.564
60525SOL     OW83406   2.942   9.025   6.139
60525SOL    HW183407   2.941   9.121   6.139
60525SOL    HW283408   3.010   9.003   6.075
60526SOL     OW83409   9.334  12.502   3.167
60526SOL    HW183410   9.331  12.423   3.114
60526SOL    HW283411   9.332  12.471   3.257
60527SOL     OW83412   7.188  11.540  14.604
60527SOL    HW183413   7.134  11.541  14.683
60527SOL    HW283414   7.130  11.572  14.534
60528SOL     OW83415  12.234   1.505   5.976
60528SOL    HW183416  12.296   1.497   6.048
60528SOL    HW283417  12.210   1.415   5.954
60529SOL     OW83418   4.712   3.283   7.977
60529SOL    HW183419   4.770   3.227   7.925
60529SOL    HW283420   4.710   3.366   7.931
60530SOL     OW83421   8.055   0.223   8.936
60530SOL    HW183422   8.007   0.276   8.872
60530SOL    HW283423   8.132   0.192   8.887
60531SOL     OW83424   2.225   3.185   9.947
60531SOL    HW183425   2.290   3.179   9.877
60531SOL    HW283426   2.190   3.273   9.940
60532SOL     OW83427  10.769  10.765   1.036
60532SOL    HW183428  10.690  10.773   0.984
60532SOL    HW283429  10.819  10.845   1.017
60533SOL     OW83430  12.073   4.339   0.850
60533SOL    HW183431  12.044   4.321   0.939
60533SOL    HW283432  12.059   4.433   0.838
60534SOL     OW83433   7.687   6.498  10.028
60534SOL    HW183434   7.781   6.495  10.008
60534SOL    HW283435   7.683   6.528  10.119
60535SOL     OW83436   4.682  12.954   3.448
60535SOL    HW183437   4.589  12.934   3.437
60535SOL    HW283438   4.684  13.029   3.507
60536SOL     OW83439   8.457   6.132   4.358
60536SOL    HW183440   8.448   6.037   4.354
60536SOL    HW283441   8.380   6.166   4.313
60537SOL     OW83442   3.913   0.468   3.504
60537SOL    HW183443   3.992   0.522   3.516
60537SOL    HW283444   3.916   0.405   3.575
60538SOL     OW83445   3.333  11.229   2.587
60538SOL    HW183446   3.238  11.232   2.580
60538SOL    HW283447   3.350  11.228   2.681
60539SOL     OW83448   0.602   5.759  13.195
60539SOL    HW183449   0.585   5.848  13.165
60539SOL    HW283450   0.573   5.704  13.123
60540SOL     OW83451   7.117   8.092   9.907
60540SOL    HW183452   7.187   8.050   9.857
60540SOL    HW283453   7.037   8.056   9.869
60541SOL     OW83454  11.966   1.921  11.070
60541SOL    HW183455  11.902   1.985  11.038
60541SOL    HW283456  12.040   1.929  11.008
60542SOL     OW83457   2.323   2.430  14.259
60542SOL    HW183458   2.262   2.471  14.321
60542SOL    HW283459   2.398   2.404  14.314
60543SOL     OW83460  14.099   3.073   4.200
60543SOL    HW183461  14.076   3.073   4.293
60543SOL    HW283462  14.194   3.086   4.198
60544SOL     OW83463   6.824   9.951   2.396
60544SOL    HW183464   6.876  10.025   2.368
60544SOL    HW283465   6.803   9.903   2.315
60545SOL     OW83466   3.985   5.785   6.474
60545SOL    HW183467   3.951   5.860   6.523
60545SOL    HW283468   4.022   5.823   6.394
60546SOL     OW83469   7.093   1.349  10.523
60546SOL    HW183470   7.001   1.348  10.550
60546SOL    HW283471   7.122   1.438  10.539
60547SOL     OW83472   2.604   5.639   9.003
60547SOL    HW183473   2.669   5.618   9.070
60547SOL    HW283474   2.520   5.622   9.046
60548SOL     OW83475   8.541   2.557   1.845
60548SOL    HW183476   8.522   2.468   1.815
60548SOL    HW283477   8.610   2.547   1.910
60549SOL     OW83478   0.321   7.970   8.412
60549SOL    HW183479   0.401   7.917   8.413
60549SOL    HW283480   0.269   7.936   8.340
60550SOL     OW83481  13.484   9.897   8.522
60550SOL    HW183482  13.511   9.946   8.600
60550SOL    HW283483  13.424   9.957   8.476
60551SOL     OW83484   4.019  12.199   2.651
60551SOL    HW183485   3.975  12.125   2.691
60551SOL    HW283486   4.084  12.160   2.593
60552SOL     OW83487   6.446   1.642   3.642
60552SOL    HW183488   6.439   1.564   3.588
60552SOL    HW283489   6.419   1.613   3.730
60553SOL     OW83490   5.476   2.423   2.311
60553SOL    HW183491   5.547   2.359   2.299
60553SOL    HW283492   5.476   2.441   2.405
60554SOL     OW83493   1.455  12.926  13.134
60554SOL    HW183494   1.425  12.932  13.225
60554SOL    HW283495   1.424  12.841  13.104
60555SOL     OW83496   1.441  13.011  13.903
60555SOL    HW183497   1.421  13.045  13.990
60555SOL    HW283498   1.356  12.984  13.868
60556SOL     OW83499  14.810  14.233   4.341
60556SOL    HW183500  14.738  14.251   4.281
60556SOL    HW283501  14.771  14.179   4.411
60557SOL     OW83502   8.639   6.836   0.377
60557SOL    HW183503   8.614   6.925   0.353
60557SOL    HW283504   8.676   6.843   0.465
60558SOL     OW83505   3.803   3.638   1.344
60558SOL    HW183506   3.837   3.707   1.288
60558SOL    HW283507   3.863   3.636   1.419
60559SOL     OW83508   5.465   2.708   2.214
60559SOL    HW183509   5.455   2.616   2.239
60559SOL    HW283510   5.376   2.742   2.211
60560SOL     OW83511   5.213   6.102   6.220
60560SOL    HW183512   5.254   6.168   6.275
60560SOL    HW283513   5.223   6.020   6.269
60561SOL     OW83514   0.845   9.495   5.192
60561SOL    HW183515   0.758   9.476   5.157
60561SOL    HW283516   0.904   9.440   5.141
60562SOL     OW83517   1.740   5.217  11.193
60562SOL    HW183518   1.792   5.230  11.114
60562SOL    HW283519   1.797   5.246  11.264
60563SOL     OW83520   3.520   6.579   7.253
60563SOL    HW183521   3.505   6.496   7.210
60563SOL    HW283522   3.615   6.590   7.251
60564SOL     OW83523   5.264   6.298  13.168
60564SOL    HW183524   5.289   6.209  13.141
60564SOL    HW283525   5.224   6.287  13.254
60565SOL     OW83526   6.012  13.387   4.266
60565SOL    HW183527   6.050  13.312   4.314
60565SOL    HW283528   5.966  13.437   4.333
60566SOL     OW83529   5.181   1.574  11.135
60566SOL    HW183530   5.110   1.515  11.161
60566SOL    HW283531   5.234   1.523  11.074
60567SOL     OW83532  12.401  12.764   1.800
60567SOL    HW183533  12.376  12.832   1.862
60567SOL    HW283534  12.322  12.711   1.788
60568SOL     OW83535   5.155   1.159  10.825
60568SOL    HW183536   5.182   1.147  10.916
60568SOL    HW283537   5.216   1.223  10.790
60569SOL     OW83538   2.144  13.973   8.786
60569SOL    HW183539   2.162  14.055   8.831
60569SOL    HW283540   2.051  13.978   8.763
60570SOL     OW83541  13.279   3.547  11.508
60570SOL    HW183542  13.346   3.591  11.560
60570SOL    HW283543  13.282   3.456  11.536
60571SOL     OW83544   6.769   5.427   3.349
60571SOL    HW183545   6.718   5.404   3.272
60571SOL    HW283546   6.734   5.371   3.419
60572SOL     OW83547   7.032   7.410  10.316
60572SOL    HW183548   7.043   7.504  10.304
60572SOL    HW283549   6.939   7.398  10.333
60573SOL     OW83550  11.927  11.482   6.299
60573SOL    HW183551  11.977  11.430   6.236
60573SOL    HW283552  11.968  11.569   6.296
60574SOL     OW83553  12.835   7.502   7.356
60574SOL    HW183554  12.853   7.542   7.272
60574SOL    HW283555  12.821   7.409   7.336
60575SOL     OW83556   1.346   7.463  12.135
60575SOL    HW183557   1.253   7.463  12.114
60575SOL    HW283558   1.366   7.554  12.156
60576SOL     OW83559   4.654  14.425  11.187
60576SOL    HW183560   4.683  14.415  11.277
60576SOL    HW283561   4.733  14.450  11.139
60577SOL     OW83562   5.582   8.421   3.420
60577SOL    HW183563   5.594   8.503   3.372
60577SOL    HW283564   5.577   8.447   3.512
60578SOL     OW83565   0.111  11.514  11.308
60578SOL    HW183566   0.070  11.468  11.382
60578SOL    HW283567   0.107  11.606  11.333
60579SOL     OW83568  12.893   6.167   4.602
60579SOL    HW183569  12.802   6.138   4.608
60579SOL    HW283570  12.942   6.090   4.573
60580SOL     OW83571   6.712  11.031   8.725
60580SOL    HW183572   6.707  10.951   8.674
60580SOL    HW283573   6.745  11.003   8.810
60581SOL     OW83574   3.871  13.107  10.490
60581SOL    HW183575   3.957  13.146  10.473
60581SOL    HW283576   3.814  13.144  10.422
60582SOL     OW83577  14.228   4.657  10.145
60582SOL    HW183578  14.274   4.573  10.140
60582SOL    HW283579  14.163   4.644  10.214
60583SOL     OW83580   0.015  11.940   1.607
60583SOL    HW183581   0.110  11.953   1.613
60583SOL    HW283582  14.867  11.881   1.679
60584SOL     OW83583   0.774   6.780   5.031
60584SOL    HW183584   0.764   6.870   5.001
60584SOL    HW283585   0.868   6.768   5.042
60585SOL     OW83586   2.246   7.723   3.644
60585SOL    HW183587   2.310   7.652   3.638
60585SOL    HW283588   2.187   7.696   3.714
60586SOL     OW83589   5.790   8.809   7.221
60586SOL    HW183590   5.800   8.787   7.314
60586SOL    HW283591   5.837   8.892   7.211
60587SOL     OW83592  10.631   8.103  11.501
60587SOL    HW183593  10.648   8.147  11.584
60587SOL    HW283594  10.654   8.168  11.434
60588SOL     OW83595   7.048  12.358   1.754
60588SOL    HW183596   7.123  12.400   1.712
60588SOL    HW283597   7.068  12.264   1.753
60589SOL     OW83598   7.522   9.440   6.966
60589SOL    HW183599   7.578   9.496   7.018
60589SOL    HW283600   7.533   9.471   6.876
60590SOL     OW83601   5.524  12.008   6.484
60590SOL    HW183602   5.540  12.072   6.415
60590SOL    HW283603   5.528  12.057   6.565
60591SOL     OW83604   7.947  11.083   4.591
60591SOL    HW183605   8.028  11.118   4.629
60591SOL    HW283606   7.877  11.132   4.634
60592SOL     OW83607   7.595   8.602  13.202
60592SOL    HW183608   7.570   8.685  13.243
60592SOL    HW283609   7.515   8.549  13.205
60593SOL     OW83610   5.133  14.820   9.094
60593SOL    HW183611   5.045  14.842   9.124
60593SOL    HW283612   5.132  14.841   9.000
60594SOL     OW83613   3.758   2.788  11.564
60594SOL    HW183614   3.714   2.703  11.555
60594SOL    HW283615   3.847   2.766  11.589
60595SOL     OW83616   6.369   3.377   6.809
60595SOL    HW183617   6.326   3.315   6.868
60595SOL    HW283618   6.403   3.445   6.866
60596SOL     OW83619   2.039  10.345   9.692
60596SOL    HW183620   2.011  10.366   9.603
60596SOL    HW283621   2.042  10.430   9.737
60597SOL     OW83622   9.024   3.363  12.420
60597SOL    HW183623   9.057   3.416  12.347
60597SOL    HW283624   9.102   3.343  12.472
60598SOL     OW83625  13.262   5.543   6.052
60598SOL    HW183626  13.185   5.594   6.026
60598SOL    HW283627  13.255   5.537   6.147
60599SOL     OW83628  12.078   4.488   9.597
60599SOL    HW183629  12.008   4.519   9.540
60599SOL    HW283630  12.137   4.563   9.605
60600SOL     OW83631  13.661   4.650   7.213
60600SOL    HW183632  13.572   4.669   7.244
60600SOL    HW283633  13.666   4.691   7.127
60601SOL     OW83634  11.815  14.460   8.796
60601SOL    HW183635  11.853  14.547   8.808
60601SOL    HW283636  11.803  14.427   8.885
60602SOL     OW83637   7.800  10.340   0.817
60602SOL    HW183638   7.765  10.332   0.728
60602SOL    HW283639   7.724  10.333   0.874
60603SOL     OW83640  12.432   4.672  14.533
60603SOL    HW183641  12.395   4.584  14.527
60603SOL    HW283642  12.383   4.714  14.604
60604SOL     OW83643  10.063  14.081   5.456
60604SOL    HW183644  10.077  14.022   5.382
60604SOL    HW283645   9.995  14.142   5.426
60605SOL     OW83646   6.228   8.692  14.709
60605SOL    HW183647   6.203   8.600  14.698
60605SOL    HW283648   6.171   8.724  14.779
60606SOL     OW83649   4.393  10.357   5.756
60606SOL    HW183650   4.320  10.348   5.694
60606SOL    HW283651   4.426  10.268   5.768
60607SOL     OW83652   3.062   8.914   9.515
60607SOL    HW183653   3.151   8.944   9.494
60607SOL    HW283654   3.050   8.937   9.607
60608SOL     OW83655  13.330   3.132   6.487
60608SOL    HW183656  13.239   3.140   6.460
60608SOL    HW283657  13.327   3.137   6.583
60609SOL     OW83658   0.825  14.232   9.631
60609SOL    HW183659   0.855  14.322   9.639
60609SOL    HW283660   0.805  14.205   9.721
60610SOL     OW83661   0.743  12.545  12.572
60610SOL    HW183662   0.787  12.462  12.556
60610SOL    HW283663   0.665  12.522  12.622
60611SOL     OW83664   8.996  12.737   0.885
60611SOL    HW183665   9.070  12.698   0.840
60611SOL    HW283666   8.989  12.688   0.967
60612SOL     OW83667  13.475  13.655  10.027
60612SOL    HW183668  13.455  13.570  10.065
60612SOL    HW283669  13.566  13.648   9.998
60613SOL     OW83670  11.204   0.021  10.845
60613SOL    HW183671  11.206  14.800  10.866
60613SOL    HW283672  11.264   0.030  10.770
60614SOL     OW83673   2.133   0.051  10.750
60614SOL    HW183674   2.111  14.832  10.730
60614SOL    HW283675   2.221   0.046  10.788
60615SOL     OW83676   4.527  11.981   2.477
60615SOL    HW183677   4.486  11.897   2.498
60615SOL    HW283678   4.458  12.031   2.434
60616SOL     OW83679   1.699   6.370   0.832
60616SOL    HW183680   1.635   6.309   0.795
60616SOL    HW283681   1.717   6.432   0.761
60617SOL     OW83682   8.478   0.733  12.353
60617SOL    HW183683   8.525   0.812  12.326
60617SOL    HW283684   8.408   0.765  12.410
60618SOL     OW83685  13.422  14.685  10.872
60618SOL    HW183686  13.357  14.698  10.941
60618SOL    HW283687  13.494  14.639  10.916
60619SOL     OW83688   7.796   3.973   3.246
60619SOL    HW183689   7.730   3.916   3.207
60619SOL    HW283690   7.753   4.058   3.254
60620SOL     OW83691   3.863   7.168  14.861
60620SOL    HW183692   3.898   7.256  14.849
60620SOL    HW283693   3.914   7.131   0.061
60621SOL     OW83694   2.141  11.270   8.665
60621SOL    HW183695   2.177  11.198   8.717
60621SOL    HW283696   2.108  11.228   8.586
60622SOL     OW83697  10.505  10.904  12.343
60622SOL    HW183698  10.441  10.930  12.277
60622SOL    HW283699  10.454  10.858  12.410
60623SOL     OW83700  10.207   7.176   4.758
60623SOL    HW183701  10.277   7.111   4.750
60623SOL    HW283702  10.252   7.260   4.758
60624SOL     OW83703  10.573   5.162   8.504
60624SOL    HW183704  10.523   5.231   8.548
60624SOL    HW283705  10.616   5.115   8.575
60625SOL     OW83706  12.771   5.907   3.202
60625SOL    HW183707  12.772   5.853   3.123
60625SOL    HW283708  12.831   5.979   3.183
60626SOL     OW83709   2.158   5.258   2.589
60626SOL    HW183710   2.122   5.344   2.571
60626SOL    HW283711   2.230   5.248   2.526
60627SOL     OW83712   9.256   1.275   9.240
60627SOL    HW183713   9.257   1.301   9.148
60627SOL    HW283714   9.263   1.179   9.238
60628SOL     OW83715  12.969   9.994  12.838
60628SOL    HW183716  12.906   9.950  12.896
60628SOL    HW283717  12.951   9.958  12.751
60629SOL     OW83718   0.801   4.440   1.320
60629SOL    HW183719   0.869   4.436   1.388
60629SOL    HW283720   0.723   4.404   1.362
60630SOL     OW83721  10.962   2.086   5.722
60630SOL    HW183722  10.942   2.044   5.638
60630SOL    HW283723  11.057   2.098   5.721
60631SOL     OW83724   6.781   4.213  11.927
60631SOL    HW183725   6.765   4.189  12.018
60631SOL    HW283726   6.702   4.261  11.901
60632SOL     OW83727   9.197  12.706  12.112
60632SOL    HW183728   9.238  12.791  12.102
60632SOL    HW283729   9.108  12.717  12.076
60633SOL     OW83730  14.096   5.634   8.584
60633SOL    HW183731  14.015   5.655   8.537
60633SOL    HW283732  14.068   5.573   8.652
60634SOL     OW83733  11.659   6.183   0.544
60634SOL    HW183734  11.744   6.156   0.509
60634SOL    HW283735  11.634   6.260   0.493
60635SOL     OW83736   3.595   5.895   8.709
60635SOL    HW183737   3.626   5.960   8.646
60635SOL    HW283738   3.652   5.819   8.694
60636SOL     OW83739   7.814   6.684  11.244
60636SOL    HW183740   7.887   6.627  11.264
60636SOL    HW283741   7.827   6.761  11.299
60637SOL     OW83742  10.800   0.274   0.507
60637SOL    HW183743  10.852   0.198   0.533
60637SOL    HW283744  10.853   0.318   0.441
60638SOL     OW83745  13.492   3.069   1.517
60638SOL    HW183746  13.460   3.113   1.438
60638SOL    HW283747  13.502   2.977   1.491
60639SOL     OW83748   1.003   3.849  14.596
60639SOL    HW183749   0.927   3.873  14.649
60639SOL    HW283750   0.966   3.806  14.519
60640SOL     OW83751   0.246   5.923  10.906
60640SOL    HW183752   0.312   5.972  10.954
60640SOL    HW283753   0.163   5.947  10.948
60641SOL     OW83754  13.420   8.766  13.132
60641SOL    HW183755  13.516   8.767  13.132
60641SOL    HW283756  13.397   8.766  13.039
60642SOL     OW83757   3.930   5.478  12.283
60642SOL    HW183758   3.911   5.548  12.346
60642SOL    HW283759   3.851   5.423  12.283
60643SOL     OW83760   0.815   0.442  13.700
60643SOL    HW183761   0.824   0.447  13.605
60643SOL    HW283762   0.904   0.456  13.733
60644SOL     OW83763   1.886  12.272   3.289
60644SOL    HW183764   1.798  12.250   3.259
60644SOL    HW283765   1.939  12.195   3.268
60645SOL     OW83766  14.503   3.764   2.392
60645SOL    HW183767  14.538   3.744   2.305
60645SOL    HW283768  14.409   3.745   2.385
60646SOL     OW83769   9.033   4.952   1.694
60646SOL    HW183770   8.937   4.951   1.687
60646SOL    HW283771   9.055   5.044   1.711
60647SOL     OW83772   5.705  13.087  11.719
60647SOL    HW183773   5.765  13.142  11.769
60647SOL    HW283774   5.651  13.148  11.670
60648SOL     OW83775   9.549   6.271  14.194
60648SOL    HW183776   9.618   6.249  14.131
60648SOL    HW283777   9.567   6.215  14.270
60649SOL     OW83778   9.554   1.702  14.490
60649SOL    HW183779   9.593   1.719  14.405
60649SOL    HW283780   9.471   1.749  14.489
60650SOL     OW83781   4.350  14.275   8.575
60650SOL    HW183782   4.289  14.284   8.501
60650SOL    HW283783   4.294  14.280   8.652
60651SOL     OW83784   7.260   3.116   4.215
60651SOL    HW183785   7.226   3.050   4.156
60651SOL    HW283786   7.192   3.126   4.282
60652SOL     OW83787  10.291   9.925   7.883
60652SOL    HW183788  10.257   9.888   7.802
60652SOL    HW283789  10.287   9.853   7.946
60653SOL     OW83790  14.308   4.977   0.785
60653SOL    HW183791  14.362   5.032   0.728
60653SOL    HW283792  14.245   5.038   0.824
60654SOL     OW83793  12.679   6.224   9.290
60654SOL    HW183794  12.692   6.306   9.337
60654SOL    HW283795  12.685   6.249   9.197
60655SOL     OW83796   8.975   3.391   8.326
60655SOL    HW183797   9.020   3.306   8.328
60655SOL    HW283798   8.884   3.371   8.350
60656SOL     OW83799   7.048   3.684  11.084
60656SOL    HW183800   7.115   3.705  11.019
60656SOL    HW283801   6.971   3.732  11.056
60657SOL     OW83802  11.243   6.664   5.927
60657SOL    HW183803  11.285   6.687   6.010
60657SOL    HW283804  11.239   6.568   5.929
60658SOL     OW83805   0.839   8.150  10.867
60658SOL    HW183806   0.891   8.186  10.938
60658SOL    HW283807   0.765   8.210  10.859
60659SOL     OW83808   4.649   4.498   5.124
60659SOL    HW183809   4.728   4.478   5.175
60659SOL    HW283810   4.643   4.428   5.060
60660SOL     OW83811   0.521   5.003  11.079
60660SOL    HW183812   0.436   4.975  11.045
60660SOL    HW283813   0.583   4.938  11.046
60661SOL     OW83814   6.386   0.146   7.578
60661SOL    HW183815   6.299   0.144   7.539
60661SOL    HW283816   6.391   0.065   7.630
60662SOL     OW83817   3.999   6.937  14.571
60662SOL    HW183818   4.079   6.884  14.573
60662SOL    HW283819   3.997   6.974  14.483
60663SOL     OW83820  12.856  10.988   0.737
60663SOL    HW183821  12.918  10.931   0.781
60663SOL    HW283822  12.808  11.032   0.808
60664SOL     OW83823  11.751  13.322   3.348
60664SOL    HW183824  11.823  13.274   3.389
60664SOL    HW283825  11.674  13.300   3.401
60665SOL     OW83826   7.857   5.515  11.615
60665SOL    HW183827   7.806   5.468  11.549
60665SOL    HW283828   7.814   5.494  11.698
60666SOL     OW83829  14.387   0.081   5.044
60666SOL    HW183830  14.421   0.041   4.964
60666SOL    HW283831  14.316   0.023   5.072
60667SOL     OW83832  12.462   0.096   4.478
60667SOL    HW183833  12.375   0.090   4.517
60667SOL    HW283834  12.488   0.005   4.463
60668SOL     OW83835  13.708  14.544  10.100
60668SOL    HW183836  13.800  14.544  10.127
60668SOL    HW283837  13.662  14.501  10.172
60669SOL     OW83838  11.648  10.285   8.209
60669SOL    HW183839  11.613  10.198   8.188
60669SOL    HW283840  11.610  10.304   8.295
60670SOL     OW83841   3.151  14.540   4.894
60670SOL    HW183842   3.057  14.555   4.896
60670SOL    HW283843   3.186  14.597   4.963
60671SOL     OW83844   6.890   4.810   6.825
60671SOL    HW183845   6.907   4.823   6.731
60671SOL    HW283846   6.795   4.810   6.832
60672SOL     OW83847   7.844   9.699   3.940
60672SOL    HW183848   7.762   9.655   3.963
60672SOL    HW283849   7.824   9.747   3.860
60673SOL     OW83850   0.719   4.769   4.130
60673SOL    HW183851   0.773   4.838   4.092
60673SOL    HW283852   0.735   4.775   4.225
60674SOL     OW83853   8.525  12.157   3.155
60674SOL    HW183854   8.614  12.131   3.131
60674SOL    HW283855   8.505  12.105   3.233
60675SOL     OW83856  13.341  14.517   5.305
60675SOL    HW183857  13.274  14.579   5.278
60675SOL    HW283858  13.366  14.472   5.224
60676SOL     OW83859  14.163  13.005   6.227
60676SOL    HW183860  14.235  12.944   6.243
60676SOL    HW283861  14.164  13.019   6.133
60677SOL     OW83862   2.917   1.837  10.234
60677SOL    HW183863   2.887   1.869  10.149
60677SOL    HW283864   2.849   1.776  10.263
60678SOL     OW83865   8.281   7.079   2.551
60678SOL    HW183866   8.249   7.036   2.472
60678SOL    HW283867   8.376   7.069   2.547
60679SOL     OW83868   9.843  10.282   2.636
60679SOL    HW183869   9.936  10.270   2.613
60679SOL    HW283870   9.845  10.309   2.727
60680SOL     OW83871  12.322   8.866   5.016
60680SOL    HW183872  12.298   8.938   4.957
60680SOL    HW283873  12.264   8.878   5.092
60681SOL     OW83874   4.005   1.729   7.602
60681SOL    HW183875   4.016   1.813   7.646
60681SOL    HW283876   3.957   1.751   7.522
60682SOL     OW83877   6.942  14.138   3.976
60682SOL    HW183878   7.030  14.136   4.014
60682SOL    HW283879   6.953  14.103   3.888
60683SOL     OW83880  12.447   0.742   2.970
60683SOL    HW183881  12.390   0.814   2.944
60683SOL    HW283882  12.459   0.753   3.064
60684SOL     OW83883   3.862   2.341   3.406
60684SOL    HW183884   3.816   2.271   3.452
60684SOL    HW283885   3.849   2.322   3.313
60685SOL     OW83886  11.912  11.582   5.571
60685SOL    HW183887  11.834  11.620   5.610
60685SOL    HW283888  11.883  11.499   5.534
60686SOL     OW83889   4.692   1.999   0.008
60686SOL    HW183890   4.667   1.940   0.079
60686SOL    HW283891   4.684   2.086   0.045
60687SOL     OW83892   2.192   3.691   6.898
60687SOL    HW183893   2.237   3.775   6.891
60687SOL    HW283894   2.164   3.672   6.808
60688SOL     OW83895  11.107   3.225   0.225
60688SOL    HW183896  11.089   3.259   0.138
60688SOL    HW283897  11.174   3.158   0.211
60689SOL     OW83898   7.611   0.299   8.875
60689SOL    HW183899   7.675   0.343   8.819
60689SOL    HW283900   7.526   0.332   8.845
60690SOL     OW83901   5.164   9.482  11.520
60690SOL    HW183902   5.242   9.428  11.506
60690SOL    HW283903   5.102   9.450  11.455
60691SOL     OW83904  10.652   8.751  14.168
60691SOL    HW183905  10.656   8.658  14.146
60691SOL    HW283906  10.688   8.756  14.256
60692SOL     OW83907   6.642  14.627   7.432
60692SOL    HW183908   6.694  14.705   7.410
60692SOL    HW283909   6.562  14.662   7.472
60693SOL     OW83910   0.855   0.626   5.141
60693SOL    HW183911   0.849   0.688   5.214
60693SOL    HW283912   0.811   0.547   5.173
60694SOL     OW83913   2.043   9.677   6.981
60694SOL    HW183914   2.077   9.766   6.969
60694SOL    HW283915   1.975   9.686   7.048
60695SOL     OW83916   4.986   6.805   4.214
60695SOL    HW183917   5.067   6.766   4.179
60695SOL    HW283918   4.949   6.737   4.270
60696SOL     OW83919   1.791   3.617   2.851
60696SOL    HW183920   1.845   3.630   2.930
60696SOL    HW283921   1.726   3.687   2.855
60697SOL     OW83922   2.146   3.015   0.010
60697SOL    HW183923   2.232   3.056   0.011
60697SOL    HW283924   2.161   2.930  14.842
60698SOL     OW83925  12.399   9.728   8.019
60698SOL    HW183926  12.441   9.653   8.061
60698SOL    HW283927  12.421   9.721   7.927
60699SOL     OW83928  13.318   8.094   6.462
60699SOL    HW183929  13.300   8.014   6.413
60699SOL    HW283930  13.236   8.112   6.509
60700SOL     OW83931   5.711   0.430   3.728
60700SOL    HW183932   5.770   0.400   3.659
60700SOL    HW283933   5.666   0.350   3.757
60701SOL     OW83934   1.835  14.661  10.340
60701SOL    HW183935   1.912  14.662  10.284
60701SOL    HW283936   1.856  14.722  10.411
60702SOL     OW83937   0.639  10.051  12.071
60702SOL    HW183938   0.734  10.048  12.063
60702SOL    HW283939   0.611  10.111  12.001
60703SOL     OW83940   3.051   8.833   3.812
60703SOL    HW183941   3.103   8.899   3.766
60703SOL    HW283942   2.963   8.870   3.817
60704SOL     OW83943  12.892   3.918  10.406
60704SOL    HW183944  12.878   3.823  10.411
60704SOL    HW283945  12.829   3.948  10.341
60705SOL     OW83946   8.026   3.033   4.703
60705SOL    HW183947   7.931   3.027   4.697
60705SOL    HW283948   8.057   3.027   4.613
60706SOL     OW83949   8.005  14.505  11.632
60706SOL    HW183950   8.093  14.523  11.599
60706SOL    HW283951   8.016  14.426  11.685
60707SOL     OW83952  11.953   4.434   6.535
60707SOL    HW183953  11.899   4.364   6.499
60707SOL    HW283954  12.016   4.453   6.467
60708SOL     OW83955  12.216   6.965   6.371
60708SOL    HW183956  12.236   7.017   6.449
60708SOL    HW283957  12.125   6.937   6.385
60709SOL     OW83958   0.182   7.606   8.787
60709SOL    HW183959   0.214   7.595   8.697
60709SOL    HW283960   0.091   7.632   8.777
60710SOL     OW83961  11.568  12.550  13.630
60710SOL    HW183962  11.569  12.549  13.725
60710SOL    HW283963  11.489  12.600  13.607
60711SOL     OW83964   6.398   9.341  11.979
60711SOL    HW183965   6.388   9.274  11.912
60711SOL    HW283966   6.462   9.402  11.943
60712SOL     OW83967  13.100   7.808   2.267
60712SOL    HW183968  13.143   7.760   2.196
60712SOL    HW283969  13.042   7.744   2.307
60713SOL     OW83970   3.101   9.999   5.076
60713SOL    HW183971   3.177   9.962   5.122
60713SOL    HW283972   3.077   9.932   5.013
60714SOL     OW83973   3.301  13.656   8.162
60714SOL    HW183974   3.272  13.637   8.073
60714SOL    HW283975   3.269  13.582   8.214
60715SOL     OW83976  14.163  14.281  12.885
60715SOL    HW183977  14.182  14.249  12.973
60715SOL    HW283978  14.142  14.374  12.898
60716SOL     OW83979  13.301   3.940   1.025
60716SOL    HW183980  13.335   4.013   0.972
60716SOL    HW283981  13.328   3.961   1.114
60717SOL     OW83982   6.916  13.494   2.198
60717SOL    HW183983   6.895  13.481   2.106
60717SOL    HW283984   6.889  13.584   2.216
60718SOL     OW83985   8.214  13.825  12.969
60718SOL    HW183986   8.150  13.791  12.907
60718SOL    HW283987   8.273  13.878  12.917
60719SOL     OW83988   5.841  13.870  11.483
60719SOL    HW183989   5.790  13.789  11.495
60719SOL    HW283990   5.932  13.842  11.494
60720SOL     OW83991   6.205   8.135   8.498
60720SOL    HW183992   6.184   8.066   8.435
60720SOL    HW283993   6.121   8.175   8.518
60721SOL     OW83994   8.691   1.122   4.355
60721SOL    HW183995   8.630   1.192   4.333
60721SOL    HW283996   8.776   1.153   4.323
60722SOL     OW83997   6.820  13.101   2.875
60722SOL    HW183998   6.832  13.006   2.880
60722SOL    HW283999   6.884  13.130   2.810
60723SOL     OW84000  10.969   5.294   2.772
60723SOL    HW184001  10.890   5.345   2.790
60723SOL    HW284002  10.953   5.253   2.687
60724SOL     OW84003   8.407   0.648  12.899
60724SOL    HW184004   8.415   0.642  12.804
60724SOL    HW284005   8.419   0.741  12.918
60725SOL     OW84006   7.348   9.673   2.180
60725SOL    HW184007   7.290   9.675   2.103
60725SOL    HW284008   7.324   9.751   2.230
60726SOL     OW84009   2.501   8.479   9.395
60726SOL    HW184010   2.581   8.526   9.419
60726SOL    HW284011   2.467   8.446   9.478
60727SOL     OW84012  11.829   9.671   7.586
60727SOL    HW184013  11.897   9.726   7.625
60727SOL    HW284014  11.766   9.659   7.657
60728SOL     OW84015   2.762   2.317  11.158
60728SOL    HW184016   2.684   2.366  11.182
60728SOL    HW284017   2.825   2.384  11.130
60729SOL     OW84018   6.374   5.805   5.402
60729SOL    HW184019   6.329   5.871   5.455
60729SOL    HW284020   6.390   5.733   5.463
60730SOL     OW84021  12.090   1.461   3.108
60730SOL    HW184022  12.108   1.391   3.171
60730SOL    HW284023  12.159   1.452   3.042
60731SOL     OW84024  14.549   7.763  13.219
60731SOL    HW184025  14.510   7.677  13.238
60731SOL    HW284026  14.626   7.767  13.275
60732SOL     OW84027  13.870  13.179  14.091
60732SOL    HW184028  13.827  13.093  14.094
60732SOL    HW284029  13.798  13.242  14.094
60733SOL     OW84030  12.279   0.666   2.620
60733SOL    HW184031  12.341   0.631   2.555
60733SOL    HW284032  12.313   0.637   2.704
60734SOL     OW84033  10.236  11.930  10.273
60734SOL    HW184034  10.288  12.000  10.313
60734SOL    HW284035  10.164  11.975  10.230
60735SOL     OW84036   1.346   8.979  13.712
60735SOL    HW184037   1.378   8.978  13.622
60735SOL    HW284038   1.377   9.062  13.748
60736SOL     OW84039   6.364   8.471  13.189
60736SOL    HW184040   6.277   8.480  13.228
60736SOL    HW284041   6.406   8.555  13.205
60737SOL     OW84042   0.347  14.856  12.343
60737SOL    HW184043   0.407  14.849  12.269
60737SOL    HW284044   0.363   0.072  12.378
60738SOL     OW84045  10.966   7.227   8.464
60738SOL    HW184046  11.027   7.191   8.400
60738SOL    HW284047  10.885   7.239   8.415
60739SOL     OW84048   6.765  13.870   2.699
60739SOL    HW184049   6.709  13.850   2.774
60739SOL    HW284050   6.854  13.863   2.734
60740SOL     OW84051   4.067   4.281   4.834
60740SOL    HW184052   4.110   4.352   4.789
60740SOL    HW284053   4.138   4.228   4.870
60741SOL     OW84054   3.672  11.061   5.079
60741SOL    HW184055   3.711  11.021   5.001
60741SOL    HW284056   3.626  11.138   5.045
60742SOL     OW84057   7.416  13.974   4.961
60742SOL    HW184058   7.502  13.956   4.999
60742SOL    HW284059   7.391  14.058   5.001
60743SOL     OW84060   5.288   3.363  14.205
60743SOL    HW184061   5.277   3.337  14.114
60743SOL    HW284062   5.209   3.413  14.225
60744SOL     OW84063   5.750  12.629   5.408
60744SOL    HW184064   5.773  12.704   5.354
60744SOL    HW284065   5.710  12.666   5.486
60745SOL     OW84066  11.488  12.700   8.590
60745SOL    HW184067  11.448  12.657   8.514
60745SOL    HW284068  11.541  12.770   8.552
60746SOL     OW84069   7.891  14.684   7.489
60746SOL    HW184070   7.922  14.600   7.457
60746SOL    HW284071   7.932  14.694   7.575
60747SOL     OW84072   6.532   4.294   3.043
60747SOL    HW184073   6.617   4.328   3.016
60747SOL    HW284074   6.550   4.239   3.119
60748SOL     OW84075   2.778  12.948   6.108
60748SOL    HW184076   2.831  12.921   6.184
60748SOL    HW284077   2.691  12.965   6.144
60749SOL     OW84078   9.123   3.844   7.292
60749SOL    HW184079   9.136   3.774   7.356
60749SOL    HW284080   9.210   3.879   7.276
60750SOL     OW84081   3.448   6.704   2.517
60750SOL    HW184082   3.373   6.736   2.566
60750SOL    HW284083   3.478   6.780   2.466
60751SOL     OW84084  11.958   7.813  12.239
60751SOL    HW184085  11.890   7.750  12.215
60751SOL    HW284086  11.968   7.868  12.161
60752SOL     OW84087  12.888  13.781   8.171
60752SOL    HW184088  12.823  13.760   8.104
60752SOL    HW284089  12.847  13.756   8.253
60753SOL     OW84090  10.617   1.394   5.912
60753SOL    HW184091  10.552   1.349   5.966
60753SOL    HW284092  10.566   1.457   5.861
60754SOL     OW84093   3.207  10.135   1.362
60754SOL    HW184094   3.211  10.133   1.267
60754SOL    HW284095   3.198  10.228   1.384
60755SOL     OW84096  10.138  10.564   2.775
60755SOL    HW184097  10.223  10.593   2.741
60755SOL    HW284098  10.142  10.583   2.869
60756SOL     OW84099  10.973   5.726   1.848
60756SOL    HW184100  10.938   5.640   1.871
60756SOL    HW284101  11.037   5.708   1.780
60757SOL     OW84102   9.003  14.247  13.866
60757SOL    HW184103   8.921  14.199  13.877
60757SOL    HW284104   8.984  14.313  13.799
60758SOL     OW84105   8.246   2.260   8.929
60758SOL    HW184106   8.322   2.284   8.984
60758SOL    HW284107   8.199   2.195   8.981
60759SOL     OW84108  10.495   1.396  11.831
60759SOL    HW184109  10.414   1.436  11.799
60759SOL    HW284110  10.469   1.351  11.912
60760SOL     OW84111  13.656  10.514   5.913
60760SOL    HW184112  13.669  10.518   6.008
60760SOL    HW284113  13.744  10.505   5.877
60761SOL     OW84114  10.242   3.436  13.935
60761SOL    HW184115  10.233   3.346  13.903
60761SOL    HW284116  10.214   3.490  13.862
60762SOL     OW84117  14.337   5.389   7.245
60762SOL    HW184118  14.418   5.377   7.294
60762SOL    HW284119  14.365   5.423   7.160
60763SOL     OW84120   8.190   3.471  10.648
60763SOL    HW184121   8.209   3.532  10.719
60763SOL    HW284122   8.264   3.411  10.648
60764SOL     OW84123  12.280  13.894   7.899
60764SOL    HW184124  12.237  13.828   7.846
60764SOL    HW284125  12.356  13.849   7.936
60765SOL     OW84126   3.741   7.904   6.318
60765SOL    HW184127   3.822   7.918   6.269
60765SOL    HW284128   3.767   7.850   6.392
60766SOL     OW84129  12.498  11.083   4.887
60766SOL    HW184130  12.575  11.122   4.846
60766SOL    HW284131  12.531  11.005   4.931
60767SOL     OW84132   6.548   3.252  14.483
60767SOL    HW184133   6.634   3.211  14.481
60767SOL    HW284134   6.529   3.273  14.392
60768SOL     OW84135   1.234  12.779   7.212
60768SOL    HW184136   1.155  12.820   7.246
60768SOL    HW284137   1.305  12.837   7.239
60769SOL     OW84138   0.075   4.311   2.907
60769SOL    HW184139   0.140   4.254   2.866
60769SOL    HW284140   0.117   4.342   2.987
60770SOL     OW84141  10.740   1.046   0.962
60770SOL    HW184142  10.721   1.126   0.914
60770SOL    HW284143  10.699   0.976   0.911
60771SOL     OW84144   4.048   1.705   4.485
60771SOL    HW184145   3.979   1.646   4.456
60771SOL    HW284146   4.127   1.650   4.488
60772SOL     OW84147  12.649   5.935   2.867
60772SOL    HW184148  12.644   6.018   2.819
60772SOL    HW284149  12.742   5.922   2.882
60773SOL     OW84150  13.467   2.574   3.791
60773SOL    HW184151  13.454   2.484   3.822
60773SOL    HW284152  13.441   2.629   3.866
60774SOL     OW84153   6.281  11.460   2.584
60774SOL    HW184154   6.312  11.370   2.572
60774SOL    HW284155   6.253  11.464   2.675
60775SOL     OW84156   6.207   0.615   8.390
60775SOL    HW184157   6.264   0.692   8.380
60775SOL    HW284158   6.230   0.579   8.476
60776SOL     OW84159   1.836   1.595   9.892
60776SOL    HW184160   1.766   1.617   9.830
60776SOL    HW284161   1.791   1.552   9.964
60777SOL     OW84162  11.780   6.090   6.464
60777SOL    HW184163  11.693   6.119   6.438
60777SOL    HW284164  11.775   5.994   6.460
60778SOL     OW84165  13.609   7.937   8.324
60778SOL    HW184166  13.665   7.860   8.329
60778SOL    HW284167  13.630   7.978   8.240
60779SOL     OW84168  14.469  10.432   5.760
60779SOL    HW184169  14.526  10.365   5.723
60779SOL    HW284170  14.487  10.430   5.854
60780SOL     OW84171   7.808   2.423   8.583
60780SOL    HW184172   7.796   2.355   8.516
60780SOL    HW284173   7.902   2.423   8.601
60781SOL     OW84174   7.703  13.585  13.606
60781SOL    HW184175   7.644  13.552  13.674
60781SOL    HW284176   7.732  13.507  13.560
60782SOL     OW84177  12.463  13.670   2.111
60782SOL    HW184178  12.512  13.600   2.068
60782SOL    HW284179  12.460  13.644   2.203
60783SOL     OW84180   2.581   9.200   3.874
60783SOL    HW184181   2.546   9.175   3.788
60783SOL    HW284182   2.506   9.238   3.920
60784SOL     OW84183   8.994   4.267  11.066
60784SOL    HW184184   9.049   4.189  11.059
60784SOL    HW284185   8.907   4.233  11.088
60785SOL     OW84186   1.488   4.022   0.316
60785SOL    HW184187   1.579   4.015   0.286
60785SOL    HW284188   1.436   3.994   0.241
60786SOL     OW84189   3.314  10.276   9.618
60786SOL    HW184190   3.252  10.341   9.649
60786SOL    HW284191   3.338  10.305   9.530
60787SOL     OW84192   8.466   7.774  12.516
60787SOL    HW184193   8.429   7.783  12.429
60787SOL    HW284194   8.540   7.835  12.517
60788SOL     OW84195  12.320   7.242   2.745
60788SOL    HW184196  12.351   7.261   2.833
60788SOL    HW284197  12.396   7.204   2.700
60789SOL     OW84198  13.551  10.637  12.574
60789SOL    HW184199  13.530  10.604  12.487
60789SOL    HW284200  13.466  10.649  12.616
60790SOL     OW84201  11.763  13.470  14.658
60790SOL    HW184202  11.780  13.437  14.570
60790SOL    HW284203  11.824  13.543  14.668
60791SOL     OW84204   7.160   5.106  12.361
60791SOL    HW184205   7.122   5.191  12.341
60791SOL    HW284206   7.233   5.096  12.300
60792SOL     OW84207   1.227  14.339  10.329
60792SOL    HW184208   1.214  14.365  10.421
60792SOL    HW284209   1.240  14.422  10.283
60793SOL     OW84210   1.992  13.938   0.668
60793SOL    HW184211   1.961  13.960   0.580
60793SOL    HW284212   2.051  13.864   0.655
60794SOL     OW84213  12.225   4.485  10.482
60794SOL    HW184214  12.261   4.491  10.570
60794SOL    HW284215  12.130   4.493  10.494
60795SOL     OW84216  13.400   2.660  13.157
60795SOL    HW184217  13.351   2.741  13.144
60795SOL    HW284218  13.445   2.673  13.241
60796SOL     OW84219  11.671   6.909  13.711
60796SOL    HW184220  11.645   6.829  13.664
60796SOL    HW284221  11.691   6.972  13.642
60797SOL     OW84222   8.071  11.619   0.569
60797SOL    HW184223   8.106  11.594   0.654
60797SOL    HW284224   8.063  11.536   0.521
60798SOL     OW84225  12.299   4.624  13.261
60798SOL    HW184226  12.220   4.670  13.289
60798SOL    HW284227  12.369   4.658  13.317
60799SOL     OW84228   1.625  10.259   8.263
60799SOL    HW184229   1.685  10.225   8.329
60799SOL    HW284230   1.681  10.307   8.202
60800SOL     OW84231   0.481  12.338  13.778
60800SOL    HW184232   0.514  12.425  13.755
60800SOL    HW284233   0.466  12.342  13.872
60801SOL     OW84234   3.195   1.014   0.440
60801SOL    HW184235   3.225   0.966   0.363
60801SOL    HW284236   3.275   1.040   0.485
60802SOL     OW84237   7.551   5.083   0.226
60802SOL    HW184238   7.456   5.080   0.217
60802SOL    HW284239   7.567   5.082   0.321
60803SOL     OW84240  13.995  10.660  10.043
60803SOL    HW184241  13.998  10.755  10.038
60803SOL    HW284242  14.009  10.631   9.953
60804SOL     OW84243  10.793  13.163   1.224
60804SOL    HW184244  10.733  13.093   1.198
60804SOL    HW284245  10.873  13.117   1.251
60805SOL     OW84246   6.162  11.119   4.965
60805SOL    HW184247   6.099  11.127   5.036
60805SOL    HW284248   6.220  11.048   4.991
60806SOL     OW84249   9.851  13.916   4.502
60806SOL    HW184250   9.944  13.918   4.478
60806SOL    HW284251   9.850  13.871   4.587
60807SOL     OW84252  11.198  10.839   2.090
60807SOL    HW184253  11.120  10.805   2.045
60807SOL    HW284254  11.215  10.923   2.049
60808SOL     OW84255  14.825   7.506   6.665
60808SOL    HW184256   0.038   7.475   6.634
60808SOL    HW284257  14.843   7.545   6.750
60809SOL     OW84258   4.930   7.781  11.149
60809SOL    HW184259   4.931   7.803  11.056
60809SOL    HW284260   5.016   7.744  11.166
60810SOL     OW84261   3.138   9.126  10.190
60810SOL    HW184262   3.101   9.037  10.195
60810SOL    HW284263   3.122   9.153  10.100
60811SOL     OW84264  13.037   9.068   3.509
60811SOL    HW184265  13.088   9.057   3.589
60811SOL    HW284266  12.971   9.134   3.531
60812SOL     OW84267  10.606  10.836   7.345
60812SOL    HW184268  10.651  10.828   7.429
60812SOL    HW284269  10.591  10.930   7.334
60813SOL     OW84270  13.556   0.438  12.209
60813SOL    HW184271  13.633   0.384  12.191
60813SOL    HW284272  13.496   0.419  12.136
60814SOL     OW84273   1.560   9.775  13.365
60814SOL    HW184274   1.539   9.682  13.356
60814SOL    HW284275   1.638   9.776  13.421
60815SOL     OW84276   8.142   4.156   8.457
60815SOL    HW184277   8.123   4.063   8.444
60815SOL    HW284278   8.210   4.158   8.524
60816SOL     OW84279   6.464   8.828   4.193
60816SOL    HW184280   6.492   8.742   4.225
60816SOL    HW284281   6.489   8.827   4.100
60817SOL     OW84282   4.771   4.651   5.530
60817SOL    HW184283   4.778   4.726   5.470
60817SOL    HW284284   4.761   4.690   5.616
60818SOL     OW84285   0.201   2.799   9.394
60818SOL    HW184286   0.290   2.791   9.427
60818SOL    HW284287   0.146   2.770   9.467
60819SOL     OW84288   3.700   3.661   7.889
60819SOL    HW184289   3.789   3.668   7.855
60819SOL    HW284290   3.698   3.577   7.935
60820SOL     OW84291   2.431   1.191   9.402
60820SOL    HW184292   2.414   1.125   9.468
60820SOL    HW284293   2.512   1.162   9.359
60821SOL     OW84294   5.730   0.595   9.042
60821SOL    HW184295   5.709   0.567   8.953
60821SOL    HW284296   5.712   0.518   9.096
60822SOL     OW84297  13.389   2.573   5.879
60822SOL    HW184298  13.419   2.536   5.963
60822SOL    HW284299  13.413   2.665   5.884
60823SOL     OW84300  13.018  13.171   9.392
60823SOL    HW184301  13.066  13.098   9.351
60823SOL    HW284302  13.019  13.240   9.326
60824SOL     OW84303   4.676  11.631   4.146
60824SOL    HW184304   4.705  11.660   4.233
60824SOL    HW284305   4.705  11.540   4.141
60825SOL     OW84306   6.293   1.477   5.342
60825SOL    HW184307   6.289   1.421   5.264
60825SOL    HW284308   6.279   1.416   5.415
60826SOL     OW84309   2.835   9.575   1.423
60826SOL    HW184310   2.884   9.549   1.345
60826SOL    HW284311   2.817   9.492   1.468
60827SOL     OW84312   3.070   4.664  14.183
60827SOL    HW184313   3.129   4.721  14.134
60827SOL    HW284314   3.126   4.592  14.213
60828SOL     OW84315   2.743   9.097   8.734
60828SOL    HW184316   2.721   9.164   8.799
60828SOL    HW284317   2.838   9.100   8.727
60829SOL     OW84318   0.751   5.893   0.214
60829SOL    HW184319   0.829   5.948   0.225
60829SOL    HW284320   0.765   5.818   0.271
60830SOL     OW84321  14.550  10.457   6.042
60830SOL    HW184322  14.467  10.465   6.090
60830SOL    HW284323  14.606  10.404   6.099
60831SOL     OW84324  14.069   7.510   0.272
60831SOL    HW184325  14.073   7.577   0.340
60831SOL    HW284326  14.146   7.526   0.217
60832SOL     OW84327   5.708  14.461   7.417
60832SOL    HW184328   5.747  14.523   7.355
60832SOL    HW284329   5.782  14.421   7.461
60833SOL     OW84330   6.763   8.280   9.606
60833SOL    HW184331   6.829   8.341   9.573
60833SOL    HW284332   6.680   8.324   9.590
60834SOL     OW84333   4.753   0.113   5.853
60834SOL    HW184334   4.813   0.140   5.783
60834SOL    HW284335   4.797   0.040   5.895
60835SOL     OW84336   8.730   6.588  12.514
60835SOL    HW184337   8.792   6.661  12.508
60835SOL    HW284338   8.783   6.512  12.535
60836SOL     OW84339  12.742  13.350  13.889
60836SOL    HW184340  12.764  13.421  13.950
60836SOL    HW284341  12.654  13.371  13.858
60837SOL     OW84342  10.907   9.211   6.834
60837SOL    HW184343  10.827   9.161   6.853
60837SOL    HW284344  10.977   9.147   6.842
60838SOL     OW84345   9.973   5.910   8.138
60838SOL    HW184346   9.891   5.901   8.186
60838SOL    HW284347  10.015   5.987   8.177
60839SOL     OW84348   8.329   1.104   6.833
60839SOL    HW184349   8.374   1.020   6.838
60839SOL    HW284350   8.237   1.082   6.842
60840SOL     OW84351   1.209  13.464  11.637
60840SOL    HW184352   1.165  13.499  11.714
60840SOL    HW284353   1.227  13.372  11.660
60841SOL     OW84354   1.527   3.480   9.892
60841SOL    HW184355   1.502   3.502   9.803
60841SOL    HW284356   1.598   3.416   9.883
60842SOL     OW84357  14.087   3.230  12.220
60842SOL    HW184358  14.030   3.210  12.145
60842SOL    HW284359  14.142   3.302  12.190
60843SOL     OW84360   8.584  13.522   0.155
60843SOL    HW184361   8.562  13.586   0.223
60843SOL    HW284362   8.665  13.555   0.116
60844SOL     OW84363   4.104   0.269  10.679
60844SOL    HW184364   4.075   0.240  10.592
60844SOL    HW284365   4.164   0.200  10.708
60845SOL     OW84366  10.144   8.686   0.986
60845SOL    HW184367  10.103   8.666   1.070
60845SOL    HW284368  10.122   8.612   0.930
60846SOL     OW84369  14.673  13.797   8.749
60846SOL    HW184370  14.681  13.702   8.749
60846SOL    HW284371  14.592  13.815   8.701
60847SOL     OW84372  12.722   1.341  13.290
60847SOL    HW184373  12.698   1.432  13.271
60847SOL    HW284374  12.815   1.335  13.266
60848SOL     OW84375   3.916  12.570   0.409
60848SOL    HW184376   3.903  12.475   0.413
60848SOL    HW284377   4.003  12.581   0.371
60849SOL     OW84378   2.113   4.793  10.819
60849SOL    HW184379   2.163   4.714  10.800
60849SOL    HW284380   2.022   4.765  10.819
60850SOL     OW84381   8.041  13.383   6.651
60850SOL    HW184382   8.069  13.349   6.567
60850SOL    HW284383   7.947  13.370   6.653
60851SOL     OW84384   8.772   7.645  11.080
60851SOL    HW184385   8.831   7.570  11.094
60851SOL    HW284386   8.830   7.716  11.052
60852SOL     OW84387  11.871   8.213   0.035
60852SOL    HW184388  11.932   8.275   0.075
60852SOL    HW284389  11.814   8.267  14.853
60853SOL     OW84390   7.102   3.886  10.672
60853SOL    HW184391   7.126   3.884  10.580
60853SOL    HW284392   7.166   3.828  10.715
60854SOL     OW84393   5.064  10.851   0.714
60854SOL    HW184394   5.156  10.841   0.737
60854SOL    HW284395   5.066  10.899   0.631
60855SOL     OW84396   2.495   8.511   8.942
60855SOL    HW184397   2.491   8.444   9.010
60855SOL    HW284398   2.410   8.554   8.946
60856SOL     OW84399   9.398   1.974   7.608
60856SOL    HW184400   9.473   1.920   7.585
60856SOL    HW284401   9.330   1.911   7.635
60857SOL     OW84402   0.215   6.153   9.495
60857SOL    HW184403   0.150   6.222   9.478
60857SOL    HW284404   0.298   6.200   9.504
60858SOL     OW84405   9.633   7.951   6.694
60858SOL    HW184406   9.678   7.872   6.725
60858SOL    HW284407   9.568   7.918   6.631
60859SOL     OW84408   8.926   0.552   3.082
60859SOL    HW184409   8.922   0.629   3.025
60859SOL    HW284410   8.963   0.586   3.164
60860SOL     OW84411   3.983   1.646   8.838
60860SOL    HW184412   3.905   1.591   8.832
60860SOL    HW284413   3.962   1.710   8.906
60861SOL     OW84414  12.435   1.879   1.230
60861SOL    HW184415  12.394   1.952   1.183
60861SOL    HW284416  12.476   1.920   1.306
60862SOL     OW84417  12.157   4.740  11.311
60862SOL    HW184418  12.073   4.787  11.308
60862SOL    HW284419  12.140   4.664  11.367
60863SOL     OW84420  13.321   2.829  10.076
60863SOL    HW184421  13.270   2.804   9.999
60863SOL    HW284422  13.396   2.877  10.041
60864SOL     OW84423  12.013  12.533   7.257
60864SOL    HW184424  11.928  12.517   7.300
60864SOL    HW284425  12.002  12.495   7.170
60865SOL     OW84426   6.695   9.395   0.655
60865SOL    HW184427   6.786   9.416   0.634
60865SOL    HW284428   6.700   9.347   0.738
60866SOL     OW84429  13.526  14.114   2.786
60866SOL    HW184430  13.432  14.107   2.801
60866SOL    HW284431  13.544  14.208   2.788
60867SOL     OW84432   4.376   1.331   1.241
60867SOL    HW184433   4.448   1.295   1.188
60867SOL    HW284434   4.379   1.425   1.225
60868SOL     OW84435   6.284   3.930   7.637
60868SOL    HW184436   6.232   3.873   7.693
60868SOL    HW284437   6.342   3.870   7.589
60869SOL     OW84438   8.685   1.170  11.979
60869SOL    HW184439   8.643   1.255  11.969
60869SOL    HW284440   8.743   1.164  11.903
60870SOL     OW84441   9.496  10.530   4.272
60870SOL    HW184442   9.487  10.570   4.185
60870SOL    HW284443   9.571  10.574   4.311
60871SOL     OW84444   6.408   4.516  13.943
60871SOL    HW184445   6.488   4.464  13.939
60871SOL    HW284446   6.385   4.532  13.852
60872SOL     OW84447   8.949  12.068   5.189
60872SOL    HW184448   8.910  12.110   5.113
60872SOL    HW284449   8.876  12.027   5.235
60873SOL     OW84450  12.314  13.290   4.615
60873SOL    HW184451  12.267  13.232   4.675
60873SOL    HW284452  12.406  13.268   4.627
60874SOL     OW84453   8.383   8.835   7.120
60874SOL    HW184454   8.441   8.811   7.192
60874SOL    HW284455   8.311   8.772   7.125
60875SOL     OW84456   7.485   2.300   1.351
60875SOL    HW184457   7.511   2.209   1.361
60875SOL    HW284458   7.518   2.343   1.431
60876SOL     OW84459   8.719  11.497  11.028
60876SOL    HW184460   8.778  11.515  10.955
60876SOL    HW284461   8.776  11.498  11.105
60877SOL     OW84462  13.370   4.033   0.197
60877SOL    HW184463  13.324   4.102   0.149
60877SOL    HW284464  13.457   4.070   0.215
60878SOL     OW84465   0.480   1.328   7.325
60878SOL    HW184466   0.420   1.256   7.307
60878SOL    HW284467   0.438   1.379   7.394
60879SOL     OW84468   4.124  11.533  11.766
60879SOL    HW184469   4.165  11.473  11.704
60879SOL    HW284470   4.056  11.577  11.714
60880SOL     OW84471   3.593  14.766   6.971
60880SOL    HW184472   3.680  14.784   6.935
60880SOL    HW284473   3.607  14.692   7.030
60881SOL     OW84474   3.599   7.062  12.683
60881SOL    HW184475   3.603   7.040  12.589
60881SOL    HW284476   3.529   7.127  12.689
60882SOL     OW84477   0.771   5.153   6.410
60882SOL    HW184478   0.779   5.160   6.315
60882SOL    HW284479   0.840   5.092   6.436
60883SOL     OW84480   7.635   7.506   5.336
60883SOL    HW184481   7.652   7.417   5.370
60883SOL    HW284482   7.687   7.511   5.256
60884SOL     OW84483  10.206   0.689   5.211
60884SOL    HW184484  10.208   0.758   5.278
60884SOL    HW284485  10.262   0.620   5.247
60885SOL     OW84486  11.523  12.919   3.493
60885SOL    HW184487  11.589  12.849   3.486
60885SOL    HW284488  11.444  12.874   3.523
60886SOL     OW84489   1.001   6.621  11.403
60886SOL    HW184490   1.072   6.669  11.359
60886SOL    HW284491   1.000   6.536  11.360
60887SOL     OW84492   3.072   3.111   9.736
60887SOL    HW184493   3.087   3.194   9.781
60887SOL    HW284494   3.022   3.058   9.798
60888SOL     OW84495   3.482  10.218   5.577
60888SOL    HW184496   3.527  10.269   5.509
60888SOL    HW284497   3.553  10.174   5.624
60889SOL     OW84498   5.227   8.023  14.230
60889SOL    HW184499   5.176   8.073  14.293
60889SOL    HW284500   5.199   8.056  14.145
60890SOL     OW84501   3.204  11.541   7.855
60890SOL    HW184502   3.296  11.567   7.862
60890SOL    HW284503   3.203  11.474   7.786
60891SOL     OW84504   3.354   9.339   8.557
60891SOL    HW184505   3.372   9.374   8.470
60891SOL    HW284506   3.434   9.293   8.582
60892SOL     OW84507  14.155   3.058   8.762
60892SOL    HW184508  14.235   3.086   8.718
60892SOL    HW284509  14.171   3.077   8.855
60893SOL     OW84510  10.021   8.643  12.955
60893SOL    HW184511  10.052   8.556  12.930
60893SOL    HW284512  10.097   8.700  12.946
60894SOL     OW84513   2.366   0.122  10.941
60894SOL    HW184514   2.412   0.184  10.997
60894SOL    HW284515   2.435   0.068  10.902
60895SOL     OW84516   2.198   2.001  14.203
60895SOL    HW184517   2.146   2.020  14.280
60895SOL    HW284518   2.206   2.085  14.157
60896SOL     OW84519   2.102   6.476  12.247
60896SOL    HW184520   2.167   6.529  12.200
60896SOL    HW284521   2.115   6.387  12.215
60897SOL     OW84522   7.928   1.943   2.397
60897SOL    HW184523   7.923   1.872   2.461
60897SOL    HW284524   7.975   1.906   2.323
60898SOL     OW84525  12.597   2.725  12.230
60898SOL    HW184526  12.609   2.760  12.319
60898SOL    HW284527  12.555   2.797  12.182
60899SOL     OW84528   9.313  14.166   4.990
60899SOL    HW184529   9.275  14.223   5.056
60899SOL    HW284530   9.270  14.081   5.002
60900SOL     OW84531  13.268   0.245   3.036
60900SOL    HW184532  13.314   0.242   2.953
60900SOL    HW284533  13.329   0.206   3.099
60901SOL     OW84534   1.984   3.676   1.881
60901SOL    HW184535   1.947   3.588   1.883
60901SOL    HW284536   1.916   3.729   1.839
60902SOL     OW84537   8.756   0.219  14.758
60902SOL    HW184538   8.670   0.250  14.730
60902SOL    HW284539   8.747   0.123  14.760
60903SOL     OW84540   1.475   7.606   4.629
60903SOL    HW184541   1.521   7.672   4.681
60903SOL    HW284542   1.398   7.652   4.595
60904SOL     OW84543   3.550  12.535   1.121
60904SOL    HW184544   3.527  12.625   1.141
60904SOL    HW284545   3.645  12.533   1.126
60905SOL     OW84546   2.672  10.388   4.107
60905SOL    HW184547   2.686  10.481   4.092
60905SOL    HW284548   2.759  10.353   4.126
60906SOL     OW84549   0.003  14.209   6.180
60906SOL    HW184550   0.022  14.265   6.255
60906SOL    HW284551   0.084  14.209   6.129
60907SOL     OW84552  12.242  14.611  12.948
60907SOL    HW184553  12.239  14.691  12.896
60907SOL    HW284554  12.227  14.639  13.038
60908SOL     OW84555  11.288  12.627   9.137
60908SOL    HW184556  11.322  12.669   9.057
60908SOL    HW284557  11.343  12.550   9.148
60909SOL     OW84558   3.911  11.437   2.929
60909SOL    HW184559   3.823  11.415   2.958
60909SOL    HW284560   3.945  11.355   2.892
60910SOL     OW84561  14.858   6.786  13.186
60910SOL    HW184562   0.018   6.713  13.238
60910SOL    HW284563  14.789   6.826  13.240
60911SOL     OW84564   2.748   6.004   2.415
60911SOL    HW184565   2.722   5.925   2.367
60911SOL    HW284566   2.693   6.073   2.379
60912SOL     OW84567   1.609   1.816   0.415
60912SOL    HW184568   1.673   1.853   0.356
60912SOL    HW284569   1.646   1.733   0.443
60913SOL     OW84570  11.371   0.850   2.256
60913SOL    HW184571  11.466   0.851   2.242
60913SOL    HW284572  11.360   0.802   2.338
60914SOL     OW84573   2.243   2.825   6.640
60914SOL    HW184574   2.292   2.751   6.605
60914SOL    HW284575   2.152   2.805   6.621
60915SOL     OW84576   6.042   6.986  14.322
60915SOL    HW184577   6.125   6.991  14.275
60915SOL    HW284578   5.996   6.913  14.281
60916SOL     OW84579  13.176   6.924  12.688
60916SOL    HW184580  13.110   6.934  12.756
60916SOL    HW284581  13.255   6.965  12.724
60917SOL     OW84582  10.369   1.712   1.281
60917SOL    HW184583  10.447   1.657   1.284
60917SOL    HW284584  10.400   1.798   1.253
60918SOL     OW84585  11.918   3.371   8.148
60918SOL    HW184586  11.903   3.458   8.184
60918SOL    HW284587  11.949   3.386   8.059
60919SOL     OW84588   6.395   9.898   1.833
60919SOL    HW184589   6.448   9.926   1.759
60919SOL    HW284590   6.355   9.816   1.804
60920SOL     OW84591   6.283  13.935   9.508
60920SOL    HW184592   6.249  14.024   9.502
60920SOL    HW284593   6.292  13.918   9.602
60921SOL     OW84594  12.888  13.288  11.440
60921SOL    HW184595  12.949  13.345  11.394
60921SOL    HW284596  12.943  13.232  11.495
60922SOL     OW84597   1.030  13.567   3.398
60922SOL    HW184598   1.061  13.542   3.485
60922SOL    HW284599   1.014  13.661   3.403
60923SOL     OW84600   0.093   6.790  11.760
60923SOL    HW184601   0.052   6.703  11.766
60923SOL    HW284602   0.151   6.794  11.836
60924SOL     OW84603   0.633   4.081  12.991
60924SOL    HW184604   0.579   4.113  13.063
60924SOL    HW284605   0.576   4.087  12.914
60925SOL     OW84606   3.950   8.577   0.459
60925SOL    HW184607   3.923   8.501   0.407
60925SOL    HW284608   3.867   8.617   0.488
60926SOL     OW84609   9.510  10.916   5.798
60926SOL    HW184610   9.567  10.897   5.724
60926SOL    HW284611   9.491  11.010   5.790
60927SOL     OW84612   7.823  12.002  13.695
60927SOL    HW184613   7.844  12.093  13.717
60927SOL    HW284614   7.899  11.971  13.645
60928SOL     OW84615   8.978   5.153   7.159
60928SOL    HW184616   8.899   5.182   7.205
60928SOL    HW284617   8.954   5.066   7.125
60929SOL     OW84618  10.013   8.220   3.509
60929SOL    HW184619  10.087   8.167   3.481
60929SOL    HW284620  10.016   8.218   3.605
60930SOL     OW84621   7.634  13.967  11.184
60930SOL    HW184622   7.600  13.900  11.243
60930SOL    HW284623   7.580  14.044  11.201
60931SOL     OW84624   6.419  11.840   9.604
60931SOL    HW184625   6.500  11.803   9.638
60931SOL    HW284626   6.405  11.795   9.521
60932SOL     OW84627   6.854   1.470   8.319
60932SOL    HW184628   6.931   1.449   8.372
60932SOL    HW284629   6.889   1.512   8.241
60933SOL     OW84630   2.842   5.657   6.626
60933SOL    HW184631   2.891   5.607   6.692
60933SOL    HW284632   2.795   5.724   6.677
60934SOL     OW84633  12.540  10.777  12.701
60934SOL    HW184634  12.496  10.725  12.768
60934SOL    HW284635  12.489  10.760  12.621
60935SOL     OW84636   6.140   8.393   7.164
60935SOL    HW184637   6.218   8.384   7.110
60935SOL    HW284638   6.089   8.462   7.122
60936SOL     OW84639   2.744  12.012   0.803
60936SOL    HW184640   2.755  12.078   0.871
60936SOL    HW284641   2.650  12.014   0.783
60937SOL     OW84642   5.084   6.785   4.583
60937SOL    HW184643   5.099   6.778   4.677
60937SOL    HW284644   5.168   6.816   4.547
60938SOL     OW84645   5.037   4.156   9.309
60938SOL    HW184646   5.110   4.193   9.259
60938SOL    HW284647   5.045   4.061   9.296
60939SOL     OW84648   1.485   7.663   7.764
60939SOL    HW184649   1.541   7.725   7.715
60939SOL    HW284650   1.495   7.580   7.718
60940SOL     OW84651   1.857  10.014   7.765
60940SOL    HW184652   1.794  10.050   7.703
60940SOL    HW284653   1.803   9.976   7.834
60941SOL     OW84654   6.422   6.042   8.793
60941SOL    HW184655   6.463   5.996   8.720
60941SOL    HW284656   6.422   5.978   8.865
60942SOL     OW84657   0.267   6.596   5.450
60942SOL    HW184658   0.307   6.520   5.491
60942SOL    HW284659   0.294   6.670   5.505
60943SOL     OW84660  11.958   8.800   4.096
60943SOL    HW184661  11.907   8.839   4.024
60943SOL    HW284662  12.000   8.874   4.138
60944SOL     OW84663   4.091   7.321  14.293
60944SOL    HW184664   4.143   7.280  14.363
60944SOL    HW284665   4.091   7.414  14.315
60945SOL     OW84666   1.991   0.956   7.439
60945SOL    HW184667   2.003   0.939   7.346
60945SOL    HW284668   1.898   0.940   7.455
60946SOL     OW84669   8.167   9.177  10.915
60946SOL    HW184670   8.200   9.124  10.988
60946SOL    HW284671   8.155   9.264  10.952
60947SOL     OW84672  14.171   8.884  10.782
60947SOL    HW184673  14.081   8.916  10.770
60947SOL    HW284674  14.160   8.807  10.839
60948SOL     OW84675   2.731  14.417  13.636
60948SOL    HW184676   2.805  14.444  13.690
60948SOL    HW284677   2.710  14.329  13.668
60949SOL     OW84678   9.606   8.419  12.997
60949SOL    HW184679   9.637   8.383  12.913
60949SOL    HW284680   9.630   8.511  12.994
60950SOL     OW84681   4.327   3.435   4.537
60950SOL    HW184682   4.287   3.521   4.552
60950SOL    HW284683   4.259   3.373   4.565
60951SOL     OW84684  13.873   5.041  11.605
60951SOL    HW184685  13.812   4.999  11.544
60951SOL    HW284686  13.937   4.973  11.625
60952SOL     OW84687   5.481  10.527   7.344
60952SOL    HW184688   5.567  10.518   7.384
60952SOL    HW284689   5.486  10.606   7.290
60953SOL     OW84690   9.151  14.197  11.397
60953SOL    HW184691   9.242  14.202  11.371
60953SOL    HW284692   9.127  14.287  11.419
60954SOL     OW84693  10.559  13.698  14.804
60954SOL    HW184694  10.622  13.746  14.858
60954SOL    HW284695  10.514  13.765  14.753
60955SOL     OW84696   9.138   7.085   6.323
60955SOL    HW184697   9.080   7.119   6.392
60955SOL    HW284698   9.190   7.161   6.296
60956SOL     OW84699   2.808   1.590   3.991
60956SOL    HW184700   2.819   1.682   3.964
60956SOL    HW284701   2.889   1.568   4.037
60957SOL     OW84702  14.475  12.883   2.608
60957SOL    HW184703  14.519  12.957   2.567
60957SOL    HW284704  14.454  12.825   2.535
60958SOL     OW84705  12.319  13.476   0.198
60958SOL    HW184706  12.374  13.465   0.275
60958SOL    HW284707  12.254  13.542   0.223
60959SOL     OW84708  10.408   2.541   9.068
60959SOL    HW184709  10.351   2.589   9.128
60959SOL    HW284710  10.404   2.591   8.986
60960SOL     OW84711   0.331   2.675   2.788
60960SOL    HW184712   0.280   2.660   2.868
60960SOL    HW284713   0.419   2.695   2.820
60961SOL     OW84714   6.399  12.344  13.381
60961SOL    HW184715   6.481  12.384  13.353
60961SOL    HW284716   6.332  12.405  13.350
60962SOL     OW84717   3.001   3.769   5.176
60962SOL    HW184718   3.008   3.864   5.176
60962SOL    HW284719   3.079   3.739   5.222
60963SOL     OW84720  10.523  10.109   1.185
60963SOL    HW184721  10.574  10.185   1.158
60963SOL    HW284722  10.465  10.142   1.253
60964SOL     OW84723   3.988   7.077  14.264
60964SOL    HW184724   4.039   7.154  14.289
60964SOL    HW284725   4.052   7.020  14.221
60965SOL     OW84726   3.799   4.946   4.137
60965SOL    HW184727   3.877   4.978   4.183
60965SOL    HW284728   3.794   4.853   4.158
60966SOL     OW84729   7.862   3.845   5.680
60966SOL    HW184730   7.878   3.935   5.707
60966SOL    HW284731   7.868   3.848   5.584
60967SOL     OW84732   9.456  13.146  11.872
60967SOL    HW184733   9.513  13.114  11.941
60967SOL    HW284734   9.515  13.162  11.798
60968SOL     OW84735   2.241   5.528   6.378
60968SOL    HW184736   2.233   5.443   6.421
60968SOL    HW284737   2.335   5.548   6.382
60969SOL     OW84738  14.342   7.110   9.362
60969SOL    HW184739  14.390   7.030   9.345
60969SOL    HW284740  14.279   7.086   9.431
60970SOL     OW84741  13.559  12.832   3.032
60970SOL    HW184742  13.629  12.766   3.031
60970SOL    HW284743  13.543  12.852   2.939
60971SOL     OW84744   8.804  11.096   1.878
60971SOL    HW184745   8.856  11.118   1.800
60971SOL    HW284746   8.780  11.004   1.866
60972SOL     OW84747   7.280   3.933   5.518
60972SOL    HW184748   7.315   4.009   5.565
60972SOL    HW284749   7.353   3.901   5.465
60973SOL     OW84750   1.971   8.646  11.383
60973SOL    HW184751   1.917   8.568  11.379
60973SOL    HW284752   2.051   8.618  11.427
60974SOL     OW84753   9.490  12.250   8.058
60974SOL    HW184754   9.443  12.229   7.978
60974SOL    HW284755   9.428  12.301   8.111
60975SOL     OW84756   4.465   5.131   2.398
60975SOL    HW184757   4.388   5.088   2.435
60975SOL    HW284758   4.491   5.075   2.325
60976SOL     OW84759   6.198   2.752   4.518
60976SOL    HW184760   6.278   2.710   4.486
60976SOL    HW284761   6.183   2.824   4.458
60977SOL     OW84762   5.691   8.417   7.461
60977SOL    HW184763   5.683   8.441   7.369
60977SOL    HW284764   5.720   8.326   7.461
60978SOL     OW84765  12.618   0.614  10.345
60978SOL    HW184766  12.706   0.652  10.343
60978SOL    HW284767  12.561   0.687  10.367
60979SOL     OW84768   4.061   5.054   5.118
60979SOL    HW184769   4.113   5.039   5.196
60979SOL    HW284770   4.029   5.144   5.127
60980SOL     OW84771  11.659   5.942   3.024
60980SOL    HW184772  11.683   5.925   3.114
60980SOL    HW284773  11.653   6.037   3.018
60981SOL     OW84774   2.569  11.085   6.785
60981SOL    HW184775   2.608  11.085   6.873
60981SOL    HW284776   2.487  11.134   6.796
60982SOL     OW84777   1.788  12.733   8.214
60982SOL    HW184778   1.766  12.813   8.166
60982SOL    HW284779   1.829  12.677   8.148
60983SOL     OW84780   5.406   7.586   8.686
60983SOL    HW184781   5.325   7.636   8.683
60983SOL    HW284782   5.475   7.652   8.691
60984SOL     OW84783  11.087   7.961   2.347
60984SOL    HW184784  11.066   7.884   2.294
60984SOL    HW284785  11.057   8.035   2.295
60985SOL     OW84786   5.205   4.585  12.732
60985SOL    HW184787   5.168   4.608  12.647
60985SOL    HW284788   5.222   4.669  12.775
60986SOL     OW84789  10.931   1.144   9.870
60986SOL    HW184790  10.966   1.170   9.956
60986SOL    HW284791  10.836   1.146   9.881
60987SOL     OW84792   7.169  10.083   7.041
60987SOL    HW184793   7.126  10.004   7.009
60987SOL    HW284794   7.107  10.120   7.104
60988SOL     OW84795   1.029   5.126   7.717
60988SOL    HW184796   0.997   5.098   7.803
60988SOL    HW284797   0.971   5.199   7.694
60989SOL     OW84798   3.391   1.869  10.667
60989SOL    HW184799   3.476   1.895  10.702
60989SOL    HW284800   3.362   1.799  10.726
60990SOL     OW84801   4.316   3.380  12.494
60990SOL    HW184802   4.392   3.336  12.456
60990SOL    HW284803   4.299   3.454  12.434
60991SOL     OW84804  14.088   4.814   1.430
60991SOL    HW184805  14.146   4.819   1.506
60991SOL    HW284806  14.038   4.895   1.432
60992SOL     OW84807   3.298  10.157  14.812
60992SOL    HW184808   3.307  10.113  14.727
60992SOL    HW284809   3.221  10.213  14.802
60993SOL     OW84810   2.703  13.548   6.296
60993SOL    HW184811   2.768  13.605   6.255
60993SOL    HW284812   2.744  13.519   6.377
60994SOL     OW84813   7.602  12.781   6.275
60994SOL    HW184814   7.691  12.755   6.253
60994SOL    HW284815   7.552  12.699   6.278
60995SOL     OW84816   1.107  10.114   0.665
60995SOL    HW184817   1.068  10.027   0.664
60995SOL    HW284818   1.033  10.174   0.665
60996SOL     OW84819  10.163   3.987   4.149
60996SOL    HW184820  10.073   4.020   4.148
60996SOL    HW284821  10.192   4.000   4.239
60997SOL     OW84822   2.048   4.675   0.022
60997SOL    HW184823   2.134   4.706  14.864
60997SOL    HW284824   2.068   4.630   0.104
60998SOL     OW84825   3.498   6.817   5.612
60998SOL    HW184826   3.491   6.748   5.678
60998SOL    HW284827   3.424   6.802   5.554
60999SOL     OW84828   2.343   3.207   4.525
60999SOL    HW184829   2.255   3.172   4.537
60999SOL    HW284830   2.343   3.244   4.437
61000SOL     OW84831   3.785   1.132   6.171
61000SOL    HW184832   3.745   1.082   6.100
61000SOL    HW284833   3.723   1.123   6.244
61001SOL     OW84834  10.964   1.326  13.803
61001SOL    HW184835  10.986   1.298  13.891
61001SOL    HW284836  11.037   1.380  13.776
61002SOL     OW84837   4.972  10.212  12.963
61002SOL    HW184838   4.977  10.132  12.911
61002SOL    HW284839   4.946  10.280  12.901
61003SOL     OW84840  11.367   5.642  12.573
61003SOL    HW184841  11.380   5.572  12.509
61003SOL    HW284842  11.310   5.603  12.640
61004SOL     OW84843  14.284  14.716   7.594
61004SOL    HW184844  14.227  14.776   7.642
61004SOL    HW284845  14.362  14.707   7.650
61005SOL     OW84846  12.827  14.809   4.850
61005SOL    HW184847  12.920  14.791   4.860
61005SOL    HW284848  12.809   0.006   4.914
61006SOL     OW84849  11.962   3.382   1.929
61006SOL    HW184850  12.027   3.328   1.885
61006SOL    HW284851  12.002   3.407   2.012
61007SOL     OW84852   5.010   9.756   9.889
61007SOL    HW184853   4.982   9.830   9.835
61007SOL    HW284854   5.003   9.788   9.979
61008SOL     OW84855  14.361   9.875  11.556
61008SOL    HW184856  14.361   9.796  11.502
61008SOL    HW284857  14.451   9.908  11.550
61009SOL     OW84858  11.275   3.928  11.673
61009SOL    HW184859  11.190   3.950  11.712
61009SOL    HW284860  11.294   3.840  11.705
61010SOL     OW84861   4.469   9.933  10.868
61010SOL    HW184862   4.463   9.958  10.960
61010SOL    HW284863   4.528   9.997  10.829
61011SOL     OW84864   9.278  11.434   4.882
61011SOL    HW184865   9.205  11.494   4.863
61011SOL    HW284866   9.333  11.438   4.804
61012SOL     OW84867   1.609   3.926   3.162
61012SOL    HW184868   1.692   3.945   3.206
61012SOL    HW284869   1.558   4.006   3.170
61013SOL     OW84870  13.363   8.873   1.725
61013SOL    HW184871  13.290   8.898   1.668
61013SOL    HW284872  13.373   8.779   1.712
61014SOL     OW84873   1.214  13.241  10.876
61014SOL    HW184874   1.189  13.332  10.858
61014SOL    HW284875   1.233  13.204  10.790
61015SOL     OW84876   3.409   5.678   5.788
61015SOL    HW184877   3.314   5.686   5.792
61015SOL    HW284878   3.425   5.597   5.740
61016SOL     OW84879  12.857   1.520   4.633
61016SOL    HW184880  12.827   1.520   4.723
61016SOL    HW284881  12.936   1.467   4.634
61017SOL     OW84882   5.719   6.708  14.481
61017SOL    HW184883   5.753   6.792  14.450
61017SOL    HW284884   5.720   6.652  14.404
61018SOL     OW84885  11.415  11.622   4.518
61018SOL    HW184886  11.480  11.692   4.527
61018SOL    HW284887  11.455  11.546   4.560
61019SOL     OW84888   2.319  12.090   9.413
61019SOL    HW184889   2.345  12.065   9.324
61019SOL    HW284890   2.376  12.164   9.436
61020SOL     OW84891   1.330   3.351  10.819
61020SOL    HW184892   1.374   3.412  10.760
61020SOL    HW284893   1.237   3.359  10.798
61021SOL     OW84894   2.624   2.274   2.584
61021SOL    HW184895   2.669   2.239   2.507
61021SOL    HW284896   2.531   2.271   2.561
61022SOL     OW84897  10.845  13.515   3.450
61022SOL    HW184898  10.900  13.533   3.375
61022SOL    HW284899  10.778  13.455   3.417
61023SOL     OW84900   6.625   7.050  10.155
61023SOL    HW184901   6.591   7.135  10.129
61023SOL    HW284902   6.695   7.031  10.093
61024SOL     OW84903  13.641  10.876  11.992
61024SOL    HW184904  13.572  10.931  11.954
61024SOL    HW284905  13.607  10.849  12.077
61025SOL     OW84906   7.434   8.027   5.848
61025SOL    HW184907   7.447   8.045   5.941
61025SOL    HW284908   7.502   7.963   5.827
61026SOL     OW84909  12.047   9.006  11.364
61026SOL    HW184910  11.998   8.925  11.350
61026SOL    HW284911  12.016   9.066  11.297
61027SOL     OW84912   0.175   6.366   4.462
61027SOL    HW184913   0.223   6.449   4.464
61027SOL    HW284914   0.146   6.357   4.371
61028SOL     OW84915   6.092   1.585   1.544
61028SOL    HW184916   6.185   1.600   1.563
61028SOL    HW284917   6.058   1.672   1.522
61029SOL     OW84918  13.541  12.731   4.886
61029SOL    HW184919  13.515  12.813   4.845
61029SOL    HW284920  13.579  12.756   4.970
61030SOL     OW84921   4.846   7.856   6.971
61030SOL    HW184922   4.765   7.808   6.955
61030SOL    HW284923   4.838   7.888   7.061
61031SOL     OW84924  11.866  14.428   8.314
61031SOL    HW184925  11.798  14.493   8.333
61031SOL    HW284926  11.888  14.391   8.400
61032SOL     OW84927   0.879   4.332   1.823
61032SOL    HW184928   0.803   4.370   1.780
61032SOL    HW284929   0.874   4.239   1.801
61033SOL     OW84930   0.925   1.079  13.689
61033SOL    HW184931   0.861   1.109  13.623
61033SOL    HW284932   0.980   1.017  13.642
61034SOL     OW84933   7.160   6.378   9.480
61034SOL    HW184934   7.212   6.400   9.403
61034SOL    HW284935   7.097   6.449   9.487
61035SOL     OW84936  10.921  10.237   9.678
61035SOL    HW184937  10.828  10.240   9.699
61035SOL    HW284938  10.926  10.183   9.599
61036SOL     OW84939   2.291   0.654   4.752
61036SOL    HW184940   2.236   0.615   4.821
61036SOL    HW284941   2.360   0.589   4.737
61037SOL     OW84942   9.337  14.581   9.471
61037SOL    HW184943   9.393  14.567   9.395
61037SOL    HW284944   9.372  14.660   9.513
61038SOL     OW84945   5.056   9.708   8.545
61038SOL    HW184946   5.043   9.687   8.452
61038SOL    HW284947   4.995   9.651   8.591
61039SOL     OW84948   8.056  13.687   0.332
61039SOL    HW184949   8.096  13.610   0.373
61039SOL    HW284950   8.019  13.655   0.250
61040SOL     OW84951   5.780   4.917   9.026
61040SOL    HW184952   5.699   4.880   8.990
61040SOL    HW284953   5.846   4.849   9.010
61041SOL     OW84954   5.015   8.833   8.185
61041SOL    HW184955   5.021   8.753   8.132
61041SOL    HW284956   4.999   8.801   8.274
61042SOL     OW84957   6.776   6.258   0.871
61042SOL    HW184958   6.742   6.232   0.785
61042SOL    HW284959   6.735   6.343   0.888
61043SOL     OW84960   9.349   7.634  12.884
61043SOL    HW184961   9.319   7.645  12.794
61043SOL    HW284962   9.411   7.706  12.897
61044SOL     OW84963   7.490   0.351   1.949
61044SOL    HW184964   7.399   0.330   1.965
61044SOL    HW284965   7.516   0.295   1.876
61045SOL     OW84966   8.827   5.931   8.366
61045SOL    HW184967   8.798   5.980   8.443
61045SOL    HW284968   8.922   5.932   8.372
61046SOL     OW84969   8.853  10.898   2.446
61046SOL    HW184970   8.786  10.966   2.451
61046SOL    HW284971   8.922  10.928   2.505
61047SOL     OW84972   3.354   1.585   9.528
61047SOL    HW184973   3.340   1.666   9.478
61047SOL    HW284974   3.329   1.608   9.617
61048SOL     OW84975   5.289   4.348   6.821
61048SOL    HW184976   5.243   4.407   6.762
61048SOL    HW284977   5.341   4.292   6.763
61049SOL     OW84978   8.981  11.170  11.732
61049SOL    HW184979   8.969  11.265  11.735
61049SOL    HW284980   9.036  11.155  11.656
61050SOL     OW84981   5.993   9.788  13.855
61050SOL    HW184982   6.083   9.767  13.831
61050SOL    HW284983   5.940   9.724  13.807
61051SOL     OW84984  10.410   2.567   3.481
61051SOL    HW184985  10.343   2.531   3.539
61051SOL    HW284986  10.491   2.523   3.507
61052SOL     OW84987   7.172   7.222   8.003
61052SOL    HW184988   7.126   7.266   7.931
61052SOL    HW284989   7.130   7.136   8.009
61053SOL     OW84990   9.630   9.191  12.330
61053SOL    HW184991   9.721   9.207  12.357
61053SOL    HW284992   9.623   9.096  12.322
61054SOL     OW84993   0.222   8.809   3.442
61054SOL    HW184994   0.317   8.804   3.455
61054SOL    HW284995   0.192   8.871   3.508
61055SOL     OW84996   2.719   5.526   3.816
61055SOL    HW184997   2.715   5.582   3.738
61055SOL    HW284998   2.761   5.581   3.882
61056SOL     OW84999  13.954   1.410   9.854
61056SOL    HW185000  13.992   1.465   9.785
61056SOL    HW285001  13.863   1.398   9.827
61057SOL     OW85002  12.645   3.800   6.036
61057SOL    HW185003  12.697   3.762   5.966
61057SOL    HW285004  12.562   3.825   5.994
61058SOL     OW85005  13.564   7.251   7.850
61058SOL    HW185006  13.615   7.320   7.809
61058SOL    HW285007  13.517   7.295   7.921
61059SOL     OW85008  11.586   9.688   4.491
61059SOL    HW185009  11.647   9.739   4.545
61059SOL    HW285010  11.571   9.608   4.542
61060SOL     OW85011  10.790  12.654   4.154
61060SOL    HW185012  10.861  12.643   4.217
61060SOL    HW285013  10.821  12.611   4.074
61061SOL     OW85014   5.353   2.322   8.504
61061SOL    HW185015   5.355   2.346   8.412
61061SOL    HW285016   5.262   2.300   8.522
61062SOL     OW85017   5.933   1.336   4.382
61062SOL    HW185018   5.961   1.427   4.369
61062SOL    HW285019   5.986   1.305   4.455
61063SOL     OW85020   8.326  14.585  10.993
61063SOL    HW185021   8.263  14.607  11.062
61063SOL    HW285022   8.273  14.578  10.914
61064SOL     OW85023   1.451   6.355   5.425
61064SOL    HW185024   1.506   6.433   5.422
61064SOL    HW285025   1.495   6.293   5.367
61065SOL     OW85026   8.078   4.036   9.445
61065SOL    HW185027   8.048   4.095   9.515
61065SOL    HW285028   8.161   4.001   9.478
61066SOL     OW85029   4.041   0.329   1.600
61066SOL    HW185030   4.136   0.323   1.591
61066SOL    HW285031   4.012   0.240   1.619
61067SOL     OW85032   3.443   7.077   9.783
61067SOL    HW185033   3.405   7.162   9.761
61067SOL    HW285034   3.533   7.082   9.753
61068SOL     OW85035  14.511   2.419  13.453
61068SOL    HW185036  14.420   2.438  13.431
61068SOL    HW285037  14.507   2.380  13.540
61069SOL     OW85038  11.992   3.773   0.612
61069SOL    HW185039  11.908   3.819   0.619
61069SOL    HW285040  12.002   3.755   0.518
61070SOL     OW85041   2.544   3.045  13.244
61070SOL    HW185042   2.600   3.093  13.184
61070SOL    HW285043   2.493   3.113  13.290
61071SOL     OW85044  12.044   0.536   8.541
61071SOL    HW185045  11.978   0.471   8.515
61071SOL    HW285046  12.127   0.497   8.515
61072SOL     OW85047   0.441  12.553  12.685
61072SOL    HW185048   0.411  12.543  12.594
61072SOL    HW285049   0.394  12.485  12.733
61073SOL     OW85050  12.149   6.172  12.479
61073SOL    HW185051  12.091   6.244  12.455
61073SOL    HW285052  12.091   6.096  12.483
61074SOL     OW85053   2.044   8.275   4.415
61074SOL    HW185054   2.136   8.263   4.391
61074SOL    HW285055   2.030   8.369   4.406
61075SOL     OW85056   2.222  14.179   1.467
61075SOL    HW185057   2.208  14.104   1.409
61075SOL    HW285058   2.185  14.151   1.551
61076SOL     OW85059   5.926   8.624   0.830
61076SOL    HW185060   5.967   8.710   0.836
61076SOL    HW285061   5.975   8.578   0.762
61077SOL     OW85062   3.720   4.208  11.068
61077SOL    HW185063   3.626   4.221  11.056
61077SOL    HW285064   3.760   4.256  10.995
61078SOL     OW85065   3.616  12.186   6.649
61078SOL    HW185066   3.673  12.258   6.676
61078SOL    HW285067   3.665  12.142   6.579
61079SOL     OW85068  13.895  13.238   4.182
61079SOL    HW185069  13.870  13.146   4.195
61079SOL    HW285070  13.819  13.277   4.139
61080SOL     OW85071  12.629  12.984   2.140
61080SOL    HW185072  12.607  13.020   2.054
61080SOL    HW285073  12.698  12.920   2.122
61081SOL     OW85074  10.320   6.790   4.069
61081SOL    HW185075  10.243   6.846   4.058
61081SOL    HW285076  10.322   6.736   3.990
61082SOL     OW85077  10.113   5.853   1.913
61082SOL    HW185078  10.087   5.764   1.890
61082SOL    HW285079  10.177   5.877   1.847
61083SOL     OW85080  14.660   1.278   0.556
61083SOL    HW185081  14.636   1.206   0.614
61083SOL    HW285082  14.637   1.357   0.605
61084SOL     OW85083   4.386   4.888  11.858
61084SOL    HW185084   4.413   4.957  11.918
61084SOL    HW285085   4.366   4.934  11.776
61085SOL     OW85086  10.522   9.147  13.120
61085SOL    HW185087  10.576   9.183  13.191
61085SOL    HW285088  10.433   9.176  13.140
61086SOL     OW85089   8.070   6.347  11.014
61086SOL    HW185090   8.111   6.396  11.086
61086SOL    HW285091   8.067   6.410  10.942
61087SOL     OW85092  12.488   3.092  14.786
61087SOL    HW185093  12.479   3.008  14.741
61087SOL    HW285094  12.530   3.149  14.721
61088SOL     OW85095   1.197   8.259   9.937
61088SOL    HW185096   1.110   8.222   9.953
61088SOL    HW285097   1.239   8.196   9.878
61089SOL     OW85098   0.302   5.232   8.704
61089SOL    HW185099   0.337   5.148   8.675
61089SOL    HW285100   0.372   5.270   8.757
61090SOL     OW85101   8.997   9.678   8.012
61090SOL    HW185102   9.068   9.740   7.995
61090SOL    HW285103   9.041   9.594   8.026
61091SOL     OW85104  14.057  13.323   9.268
61091SOL    HW185105  14.152  13.336   9.268
61091SOL    HW285106  14.036  13.291   9.181
61092SOL     OW85107   2.366   5.718   0.358
61092SOL    HW185108   2.384   5.683   0.445
61092SOL    HW285109   2.445   5.699   0.307
61093SOL     OW85110   2.538   9.957   6.366
61093SOL    HW185111   2.544   9.861   6.368
61093SOL    HW285112   2.493   9.976   6.284
61094SOL     OW85113   8.240   0.310   8.629
61094SOL    HW185114   8.150   0.277   8.633
61094SOL    HW285115   8.283   0.275   8.707
61095SOL     OW85116   6.223   1.111  10.910
61095SOL    HW185117   6.225   1.204  10.929
61095SOL    HW285118   6.173   1.104  10.829
61096SOL     OW85119   5.311  12.031   7.803
61096SOL    HW185120   5.257  12.060   7.876
61096SOL    HW285121   5.280  11.943   7.784
61097SOL     OW85122   2.730   8.868  12.888
61097SOL    HW185123   2.767   8.951  12.919
61097SOL    HW285124   2.806   8.815  12.865
61098SOL     OW85125   7.334   2.306   3.338
61098SOL    HW185126   7.346   2.396   3.308
61098SOL    HW285127   7.305   2.259   3.260
61099SOL     OW85128  12.118   6.471   7.083
61099SOL    HW185129  12.031   6.431   7.074
61099SOL    HW285130  12.174   6.419   7.025
61100SOL     OW85131   3.903   0.699   8.677
61100SOL    HW185132   3.948   0.700   8.593
61100SOL    HW285133   3.894   0.606   8.698
61101SOL     OW85134   1.930   6.501  10.059
61101SOL    HW185135   1.938   6.594  10.080
61101SOL    HW285136   2.013   6.478  10.018
61102SOL     OW85137   8.238  14.091  11.474
61102SOL    HW185138   8.280  14.124  11.395
61102SOL    HW285139   8.160  14.145  11.484
61103SOL     OW85140   0.326   0.502   5.793
61103SOL    HW185141   0.271   0.580   5.793
61103SOL    HW285142   0.300   0.455   5.714
61104SOL     OW85143  12.503   9.969   2.110
61104SOL    HW185144  12.552   9.889   2.127
61104SOL    HW285145  12.446   9.947   2.037
61105SOL     OW85146   5.119   2.483   6.054
61105SOL    HW185147   5.113   2.577   6.036
61105SOL    HW285148   5.210   2.461   6.031
61106SOL     OW85149   2.324   8.043   2.079
61106SOL    HW185150   2.339   8.131   2.113
61106SOL    HW285151   2.315   8.055   1.985
61107SOL     OW85152   4.164   1.055   1.938
61107SOL    HW185153   4.117   1.008   1.870
61107SOL    HW285154   4.219   1.118   1.891
61108SOL     OW85155   1.822   5.726   0.105
61108SOL    HW185156   1.742   5.763   0.069
61108SOL    HW285157   1.801   5.634   0.121
61109SOL     OW85158  14.794  14.202   1.719
61109SOL    HW185159  14.844  14.155   1.786
61109SOL    HW285160  14.772  14.135   1.654
61110SOL     OW85161   0.025   5.956  14.171
61110SOL    HW185162   0.036   5.866  14.203
61110SOL    HW285163  14.812   5.984  14.205
61111SOL     OW85164   4.621   3.250  14.379
61111SOL    HW185165   4.689   3.274  14.442
61111SOL    HW285166   4.669   3.227  14.300
61112SOL     OW85167   2.953   0.803  10.099
61112SOL    HW185168   2.933   0.883  10.051
61112SOL    HW285169   3.022   0.761  10.048
61113SOL     OW85170   7.883  12.259   6.896
61113SOL    HW185171   7.870  12.349   6.924
61113SOL    HW285172   7.979  12.248   6.897
61114SOL     OW85173   5.748   3.316  11.391
61114SOL    HW185174   5.694   3.280  11.461
61114SOL    HW285175   5.730   3.260  11.316
61115SOL     OW85176   7.461   7.880   1.573
61115SOL    HW185177   7.425   7.901   1.487
61115SOL    HW285178   7.384   7.861   1.627
61116SOL     OW85179   1.354   5.015   3.458
61116SOL    HW185180   1.269   4.981   3.431
61116SOL    HW285181   1.351   5.108   3.437
61117SOL     OW85182   9.378   7.223   4.824
61117SOL    HW185183   9.343   7.212   4.736
61117SOL    HW285184   9.423   7.307   4.822
61118SOL     OW85185   3.609   3.863  13.509
61118SOL    HW185186   3.627   3.890  13.418
61118SOL    HW285187   3.530   3.810  13.503
61119SOL     OW85188   1.235  11.342   4.131
61119SOL    HW185189   1.272  11.262   4.095
61119SOL    HW285190   1.196  11.315   4.214
61120SOL     OW85191   5.062   8.103  12.570
61120SOL    HW185192   5.036   8.078  12.482
61120SOL    HW285193   5.063   8.199  12.569
61121SOL     OW85194   7.953   5.104  11.610
61121SOL    HW185195   7.972   5.057  11.529
61121SOL    HW285196   8.011   5.180  11.607
61122SOL     OW85197   9.057  14.156   9.290
61122SOL    HW185198   9.106  14.149   9.208
61122SOL    HW285199   9.005  14.076   9.293
61123SOL     OW85200  14.017   4.383   6.279
61123SOL    HW185201  14.041   4.468   6.316
61123SOL    HW285202  13.923   4.390   6.261
61124SOL     OW85203   3.587   2.204   2.456
61124SOL    HW185204   3.617   2.143   2.523
61124SOL    HW285205   3.578   2.288   2.503
61125SOL     OW85206   6.612   1.750   9.225
61125SOL    HW185207   6.684   1.793   9.270
61125SOL    HW285208   6.630   1.657   9.235
61126SOL     OW85209   7.910   6.894   0.431
61126SOL    HW185210   7.932   6.975   0.477
61126SOL    HW285211   7.815   6.890   0.433
61127SOL     OW85212  12.573   8.733  14.144
61127SOL    HW185213  12.622   8.701  14.220
61127SOL    HW285214  12.488   8.690  14.150
61128SOL     OW85215   4.939   6.166   4.030
61128SOL    HW185216   5.000   6.197   4.097
61128SOL    HW285217   4.992   6.111   3.972
61129SOL     OW85218  11.219   7.704   7.174
61129SOL    HW185219  11.166   7.691   7.096
61129SOL    HW285220  11.157   7.706   7.246
61130SOL     OW85221  14.413   0.468  13.850
61130SOL    HW185222  14.367   0.403  13.903
61130SOL    HW285223  14.498   0.429  13.833
61131SOL     OW85224  14.748   6.845   8.567
61131SOL    HW185225  14.714   6.935   8.566
61131SOL    HW285226  14.788   6.834   8.481
61132SOL     OW85227   3.893   1.947   8.263
61132SOL    HW185228   3.822   1.893   8.231
61132SOL    HW285229   3.852   2.009   8.323
61133SOL     OW85230   0.372  13.862   4.823
61133SOL    HW185231   0.466  13.875   4.837
61133SOL    HW285232   0.351  13.917   4.748
61134SOL     OW85233   8.214   2.286   5.400
61134SOL    HW185234   8.179   2.207   5.442
61134SOL    HW285235   8.140   2.345   5.394
61135SOL     OW85236  11.267   8.383   7.177
61135SOL    HW185237  11.258   8.295   7.213
61135SOL    HW285238  11.231   8.440   7.245
61136SOL     OW85239   9.342   7.552  14.849
61136SOL    HW185240   9.400   7.561  14.773
61136SOL    HW285241   9.393   7.585   0.050
61137SOL     OW85242  13.317   3.904   5.944
61137SOL    HW185243  13.384   3.837   5.929
61137SOL    HW285244  13.259   3.864   6.010
61138SOL     OW85245   1.163   3.916   5.682
61138SOL    HW185246   1.134   3.997   5.641
61138SOL    HW285247   1.107   3.907   5.759
61139SOL     OW85248   3.892   4.229  13.007
61139SOL    HW185249   3.818   4.282  13.035
61139SOL    HW285250   3.963   4.292  12.994
61140SOL     OW85251   8.646   9.458   1.672
61140SOL    HW185252   8.583   9.510   1.722
61140SOL    HW285253   8.633   9.368   1.703
61141SOL     OW85254  14.641  14.810  12.109
61141SOL    HW185255  14.692  14.731  12.126
61141SOL    HW285256  14.697  14.862  12.051
61142SOL     OW85257   6.823   8.983   6.929
61142SOL    HW185258   6.830   8.939   6.844
61142SOL    HW285259   6.815   9.076   6.907
61143SOL     OW85260  10.122   7.139  13.763
61143SOL    HW185261  10.116   7.221  13.715
61143SOL    HW285262  10.208   7.143  13.807
61144SOL     OW85263   2.417   5.775   4.861
61144SOL    HW185264   2.384   5.820   4.783
61144SOL    HW285265   2.507   5.751   4.839
61145SOL     OW85266   6.594   4.334   8.579
61145SOL    HW185267   6.520   4.360   8.633
61145SOL    HW285268   6.617   4.414   8.530
61146SOL     OW85269   1.782  10.500  10.623
61146SOL    HW185270   1.766  10.576  10.566
61146SOL    HW285271   1.870  10.515  10.658
61147SOL     OW85272   6.678   1.272   8.521
61147SOL    HW185273   6.704   1.210   8.453
61147SOL    HW285274   6.582   1.273   8.516
61148SOL     OW85275  13.884   7.975   6.732
61148SOL    HW185276  13.879   8.055   6.784
61148SOL    HW285277  13.806   7.926   6.758
61149SOL     OW85278   3.903  10.830   8.290
61149SOL    HW185279   3.875  10.816   8.200
61149SOL    HW285280   3.835  10.788   8.343
61150SOL     OW85281  13.379   5.221   0.542
61150SOL    HW185282  13.386   5.297   0.484
61150SOL    HW285283  13.323   5.160   0.494
61151SOL     OW85284   9.912  14.355   4.358
61151SOL    HW185285   9.867  14.271   4.353
61151SOL    HW285286   9.891  14.398   4.276
61152SOL     OW85287  11.850  14.803  11.128
61152SOL    HW185288  11.778  14.856  11.164
61152SOL    HW285289  11.912  14.867  11.093
61153SOL     OW85290   0.765   7.135   2.626
61153SOL    HW185291   0.797   7.155   2.714
61153SOL    HW285292   0.843   7.103   2.579
61154SOL     OW85293   9.635   0.093   8.020
61154SOL    HW185294   9.634   0.001   8.046
61154SOL    HW285295   9.668   0.093   7.930
61155SOL     OW85296   8.800   8.958  11.954
61155SOL    HW185297   8.890   8.987  11.940
61155SOL    HW285298   8.801   8.865  11.929
61156SOL     OW85299   2.188   2.044   3.332
61156SOL    HW185300   2.207   2.019   3.423
61156SOL    HW285301   2.268   2.086   3.301
61157SOL     OW85302  12.511   7.484  10.165
61157SOL    HW185303  12.484   7.425  10.095
61157SOL    HW285304  12.587   7.441  10.205
61158SOL     OW85305   5.549   2.624   9.335
61158SOL    HW185306   5.614   2.694   9.328
61158SOL    HW285307   5.502   2.627   9.252
61159SOL     OW85308  10.942   4.526   6.194
61159SOL    HW185309  10.956   4.621   6.196
61159SOL    HW285310  10.910   4.508   6.106
61160SOL     OW85311   4.682   5.299   6.461
61160SOL    HW185312   4.703   5.236   6.391
61160SOL    HW285313   4.768   5.325   6.495
61161SOL     OW85314   0.963   5.115   7.023
61161SOL    HW185315   0.885   5.169   7.037
61161SOL    HW285316   0.966   5.102   6.928
61162SOL     OW85317   5.487  10.728   9.863
61162SOL    HW185318   5.547  10.754   9.932
61162SOL    HW285319   5.427  10.802   9.854
61163SOL     OW85320   8.771  13.212   6.048
61163SOL    HW185321   8.738  13.200   5.959
61163SOL    HW285322   8.760  13.306   6.064
61164SOL     OW85323  10.170  11.284   1.791
61164SOL    HW185324  10.088  11.333   1.776
61164SOL    HW285325  10.214  11.285   1.706
61165SOL     OW85326   0.914  10.957   7.364
61165SOL    HW185327   0.972  10.969   7.289
61165SOL    HW285328   0.967  10.981   7.440
61166SOL     OW85329   5.168   5.081   0.422
61166SOL    HW185330   5.157   5.082   0.517
61166SOL    HW285331   5.261   5.063   0.408
61167SOL     OW85332   0.530   9.803   4.350
61167SOL    HW185333   0.532   9.899   4.344
61167SOL    HW285334   0.441   9.783   4.379
61168SOL     OW85335   7.419  12.637   5.318
61168SOL    HW185336   7.371  12.687   5.252
61168SOL    HW285337   7.423  12.548   5.282
61169SOL     OW85338  10.128   1.353  12.903
61169SOL    HW185339  10.183   1.300  12.960
61169SOL    HW285340  10.145   1.443  12.929
61170SOL     OW85341   8.542   5.552  10.433
61170SOL    HW185342   8.551   5.571  10.526
61170SOL    HW285343   8.448   5.549  10.418
61171SOL     OW85344   4.457   2.177   0.744
61171SOL    HW185345   4.531   2.156   0.686
61171SOL    HW285346   4.421   2.091   0.769
61172SOL     OW85347   8.372  12.943  10.570
61172SOL    HW185348   8.444  12.954  10.632
61172SOL    HW285349   8.406  12.883  10.504
61173SOL     OW85350  13.186   5.838  12.807
61173SOL    HW185351  13.271   5.870  12.839
61173SOL    HW285352  13.202   5.816  12.716
61174SOL     OW85353   8.606  12.947   2.596
61174SOL    HW185354   8.681  12.969   2.652
61174SOL    HW285355   8.617  12.854   2.577
61175SOL     OW85356   4.332  10.786   7.367
61175SOL    HW185357   4.380  10.800   7.448
61175SOL    HW285358   4.376  10.712   7.325
61176SOL     OW85359   5.535   4.028   8.989
61176SOL    HW185360   5.592   4.101   9.012
61176SOL    HW285361   5.587   3.974   8.929
61177SOL     OW85362   1.555  13.768  11.374
61177SOL    HW185363   1.610  13.806  11.442
61177SOL    HW285364   1.499  13.705  11.420
61178SOL     OW85365   7.234  10.166   3.641
61178SOL    HW185366   7.185  10.248   3.648
61178SOL    HW285367   7.238  10.149   3.547
61179SOL     OW85368   3.514  13.032   8.325
61179SOL    HW185369   3.456  13.084   8.380
61179SOL    HW285370   3.588  13.009   8.381
61180SOL     OW85371  11.486   3.446   4.425
61180SOL    HW185372  11.488   3.376   4.491
61180SOL    HW285373  11.483   3.400   4.342
61181SOL     OW85374   6.724  12.798   2.077
61181SOL    HW185375   6.724  12.856   2.001
61181SOL    HW285376   6.697  12.854   2.150
61182SOL     OW85377  11.278   5.208   4.772
61182SOL    HW185378  11.305   5.133   4.824
61182SOL    HW285379  11.292   5.180   4.681
61183SOL     OW85380  14.385   4.462   7.553
61183SOL    HW185381  14.438   4.426   7.482
61183SOL    HW285382  14.404   4.405   7.627
61184SOL     OW85383   4.886  11.801  10.193
61184SOL    HW185384   4.941  11.732  10.156
61184SOL    HW285385   4.931  11.883  10.170
61185SOL     OW85386   0.928  12.593  10.553
61185SOL    HW185387   0.860  12.592  10.486
61185SOL    HW285388   1.008  12.571  10.505
61186SOL     OW85389   0.007  10.347   1.026
61186SOL    HW185390  14.795  10.308   1.003
61186SOL    HW285391   0.071  10.282   0.999
61187SOL     OW85392   9.558   2.359   6.970
61187SOL    HW185393   9.619   2.310   6.915
61187SOL    HW285394   9.490   2.296   6.993
61188SOL     OW85395  14.477   8.731   7.075
61188SOL    HW185396  14.538   8.797   7.109
61188SOL    HW285397  14.412   8.720   7.144
61189SOL     OW85398   0.714   3.302   5.438
61189SOL    HW185399   0.743   3.261   5.357
61189SOL    HW285400   0.791   3.299   5.495
61190SOL     OW85401   6.695   7.525   9.710
61190SOL    HW185402   6.785   7.552   9.690
61190SOL    HW285403   6.646   7.541   9.629
61191SOL     OW85404  13.520  10.570   0.204
61191SOL    HW185405  13.578  10.592   0.131
61191SOL    HW285406  13.519  10.649   0.258
61192SOL     OW85407   5.521   4.778   6.663
61192SOL    HW185408   5.557   4.720   6.730
61192SOL    HW285409   5.520   4.725   6.583
61193SOL     OW85410   3.088   9.944   7.380
61193SOL    HW185411   2.997   9.939   7.408
61193SOL    HW285412   3.110  10.037   7.385
61194SOL     OW85413   9.037   6.613  12.639
61194SOL    HW185414   9.025   6.648  12.551
61194SOL    HW285415   9.087   6.532  12.626
61195SOL     OW85416  12.517   8.638   0.117
61195SOL    HW185417  12.549   8.608   0.202
61195SOL    HW285418  12.441   8.692   0.138
61196SOL     OW85419   2.117  14.461   8.576
61196SOL    HW185420   2.173  14.425   8.508
61196SOL    HW285421   2.178  14.490   8.644
61197SOL     OW85422  11.328   5.489  11.876
61197SOL    HW185423  11.327   5.396  11.852
61197SOL    HW285424  11.264   5.496  11.947
61198SOL     OW85425   9.944   1.928   6.506
61198SOL    HW185426  10.006   1.992   6.541
61198SOL    HW285427   9.881   1.914   6.576
61199SOL     OW85428  11.863   0.363  11.092
61199SOL    HW185429  11.798   0.310  11.047
61199SOL    HW285430  11.812   0.419  11.151
61200SOL     OW85431   6.570  12.040  14.226
61200SOL    HW185432   6.518  12.008  14.153
61200SOL    HW285433   6.510  12.095  14.277
61201SOL     OW85434   2.020   4.949   9.664
61201SOL    HW185435   1.974   4.900   9.596
61201SOL    HW285436   2.003   4.900   9.744
61202SOL     OW85437   2.523   4.522   7.841
61202SOL    HW185438   2.549   4.520   7.933
61202SOL    HW285439   2.427   4.532   7.844
61203SOL     OW85440  11.090  12.835  14.784
61203SOL    HW185441  11.092  12.906  14.720
61203SOL    HW285442  11.182  12.812  14.797
61204SOL     OW85443   6.071   8.621   4.008
61204SOL    HW185444   6.152   8.587   4.046
61204SOL    HW285445   6.100   8.684   3.942
61205SOL     OW85446   2.409   5.284   7.019
61205SOL    HW185447   2.445   5.222   6.956
61205SOL    HW285448   2.344   5.234   7.068
61206SOL     OW85449   4.758   3.008   6.092
61206SOL    HW185450   4.663   3.015   6.096
61206SOL    HW285451   4.775   2.914   6.100
61207SOL     OW85452   7.762   4.483   4.965
61207SOL    HW185453   7.678   4.530   4.968
61207SOL    HW285454   7.821   4.537   5.018
61208SOL     OW85455   1.104   9.055   1.896
61208SOL    HW185456   1.095   9.150   1.892
61208SOL    HW285457   1.173   9.040   1.961
61209SOL     OW85458   3.181  11.385   9.229
61209SOL    HW185459   3.106  11.358   9.281
61209SOL    HW285460   3.234  11.439   9.288
61210SOL     OW85461   4.617   8.859   2.164
61210SOL    HW185462   4.697   8.909   2.149
61210SOL    HW285463   4.594   8.876   2.256
61211SOL     OW85464  12.241  11.190   8.097
61211SOL    HW185465  12.309  11.237   8.145
61211SOL    HW285466  12.243  11.229   8.009
61212SOL     OW85467   0.521  12.063   8.382
61212SOL    HW185468   0.495  12.148   8.347
61212SOL    HW285469   0.564  12.019   8.308
61213SOL     OW85470   2.829   8.775   8.797
61213SOL    HW185471   2.747   8.805   8.836
61213SOL    HW285472   2.824   8.679   8.800
61214SOL     OW85473   0.160   1.295  12.599
61214SOL    HW185474   0.222   1.368  12.599
61214SOL    HW285475   0.164   1.260  12.688
61215SOL     OW85476   4.546  10.275   2.415
61215SOL    HW185477   4.526  10.359   2.456
61215SOL    HW285478   4.626  10.292   2.365
61216SOL     OW85479  14.197  11.068  13.275
61216SOL    HW185480  14.157  11.089  13.359
61216SOL    HW285481  14.230  10.978  13.286
61217SOL     OW85482  12.465   1.333   0.082
61217SOL    HW185483  12.462   1.242   0.112
61217SOL    HW285484  12.387   1.374   0.120
61218SOL     OW85485   3.718   5.869  13.333
61218SOL    HW185486   3.707   5.961  13.307
61218SOL    HW285487   3.810   5.862  13.358
61219SOL     OW85488   5.920   0.634   3.736
61219SOL    HW185489   5.854   0.592   3.682
61219SOL    HW285490   5.913   0.592   3.821
61220SOL     OW85491  14.614  14.530  11.939
61220SOL    HW185492  14.657  14.522  11.853
61220SOL    HW285493  14.537  14.584  11.922
61221SOL     OW85494   0.448  13.619   2.931
61221SOL    HW185495   0.386  13.640   3.001
61221SOL    HW285496   0.409  13.544   2.886
61222SOL     OW85497  13.797   8.373  14.430
61222SOL    HW185498  13.749   8.454  14.447
61222SOL    HW285499  13.754   8.308  14.486
61223SOL     OW85500   3.614   5.074   8.328
61223SOL    HW185501   3.616   5.057   8.422
61223SOL    HW285502   3.571   5.159   8.320
61224SOL     OW85503  11.362   4.256   8.612
61224SOL    HW185504  11.331   4.190   8.551
61224SOL    HW285505  11.455   4.267   8.591
61225SOL     OW85506   2.802   9.281   8.930
61225SOL    HW185507   2.884   9.267   8.979
61225SOL    HW285508   2.817   9.361   8.880
61226SOL     OW85509   8.977   4.439   2.474
61226SOL    HW185510   8.928   4.485   2.542
61226SOL    HW285511   9.068   4.466   2.488
61227SOL     OW85512   9.641  10.917  12.128
61227SOL    HW185513   9.595  10.849  12.177
61227SOL    HW285514   9.727  10.923  12.169
61228SOL     OW85515   0.748   6.692  11.828
61228SOL    HW185516   0.781   6.641  11.753
61228SOL    HW285517   0.756   6.632  11.903
61229SOL     OW85518   4.294   1.560  14.054
61229SOL    HW185519   4.337   1.550  13.969
61229SOL    HW285520   4.292   1.471  14.090
61230SOL     OW85521  10.117  14.833   2.514
61230SOL    HW185522  10.025  14.850   2.495
61230SOL    HW285523  10.162   0.043   2.494
61231SOL     OW85524   7.839  12.864  13.726
61231SOL    HW185525   7.869  12.955  13.736
61231SOL    HW285526   7.840  12.828  13.814
61232SOL     OW85527   7.312  11.900  13.634
61232SOL    HW185528   7.385  11.862  13.586
61232SOL    HW285529   7.237  11.846  13.611
61233SOL     OW85530   5.327   0.584   0.037
61233SOL    HW185531   5.322   0.613  14.819
61233SOL    HW285532   5.359   0.494   0.032
61234SOL     OW85533  11.159   9.566   9.171
61234SOL    HW185534  11.108   9.602   9.098
61234SOL    HW285535  11.126   9.477   9.181
61235SOL     OW85536   8.658   3.354   7.272
61235SOL    HW185537   8.708   3.363   7.190
61235SOL    HW285538   8.573   3.320   7.244
61236SOL     OW85539   6.257   6.047   6.007
61236SOL    HW185540   6.174   6.094   6.009
61236SOL    HW285541   6.232   5.954   6.016
61237SOL     OW85542  14.266  13.508   9.511
61237SOL    HW185543  14.218  13.501   9.593
61237SOL    HW285544  14.343  13.561   9.533
61238SOL     OW85545   1.889   6.050   8.415
61238SOL    HW185546   1.973   6.070   8.455
61238SOL    HW285547   1.890   6.099   8.332
61239SOL     OW85548   0.097  13.203   2.379
61239SOL    HW185549   0.062  13.211   2.290
61239SOL    HW285550   0.192  13.215   2.369
61240SOL     OW85551   3.272   4.087  10.723
61240SOL    HW185552   3.255   3.997  10.750
61240SOL    HW285553   3.236   4.141  10.793
61241SOL     OW85554  14.835   3.113  10.550
61241SOL    HW185555   0.025   3.101  10.478
61241SOL    HW285556   0.017   3.108  10.629
61242SOL     OW85557  12.562  10.068   5.643
61242SOL    HW185558  12.609  10.016   5.709
61242SOL    HW285559  12.476  10.026   5.636
61243SOL     OW85560  14.071  10.074  13.413
61243SOL    HW185561  14.081  10.031  13.498
61243SOL    HW285562  14.159  10.078  13.377
61244SOL     OW85563   1.032   5.903   1.260
61244SOL    HW185564   1.090   5.905   1.184
61244SOL    HW285565   0.978   5.825   1.247
61245SOL     OW85566  11.831   3.492   7.247
61245SOL    HW185567  11.845   3.403   7.279
61245SOL    HW285568  11.888   3.546   7.302
61246SOL     OW85569   4.774   2.558   9.297
61246SOL    HW185570   4.693   2.508   9.307
61246SOL    HW285571   4.809   2.529   9.213
61247SOL     OW85572  14.326   8.254  13.079
61247SOL    HW185573  14.417   8.268  13.053
61247SOL    HW285574  14.302   8.335  13.125
61248SOL     OW85575  14.464   7.475   3.665
61248SOL    HW185576  14.460   7.566   3.638
61248SOL    HW285577  14.412   7.428   3.600
61249SOL     OW85578   5.578  13.395   1.545
61249SOL    HW185579   5.493  13.406   1.501
61249SOL    HW285580   5.612  13.484   1.554
61250SOL     OW85581   8.047  13.155  12.045
61250SOL    HW185582   8.111  13.193  11.985
61250SOL    HW285583   8.017  13.228  12.098
61251SOL     OW85584   1.441  12.929   8.818
61251SOL    HW185585   1.480  12.979   8.889
61251SOL    HW285586   1.480  12.842   8.824
61252SOL     OW85587   8.424   1.898   6.831
61252SOL    HW185588   8.517   1.892   6.809
61252SOL    HW285589   8.382   1.832   6.776
61253SOL     OW85590  10.978  13.699   1.705
61253SOL    HW185591  10.894  13.720   1.745
61253SOL    HW285592  10.985  13.604   1.710
61254SOL     OW85593   0.027  13.505   9.808
61254SOL    HW185594   0.088  13.544   9.745
61254SOL    HW285595  14.865  13.579   9.857
61255SOL     OW85596  10.181   5.276  12.985
61255SOL    HW185597  10.100   5.306  13.025
61255SOL    HW285598  10.222   5.355  12.950
61256SOL     OW85599  14.821   8.216   7.902
61256SOL    HW185600  14.745   8.216   7.843
61256SOL    HW285601  14.786   8.184   7.985
61257SOL     OW85602   4.618  14.031   9.968
61257SOL    HW185603   4.711  14.051   9.957
61257SOL    HW285604   4.593  13.988   9.887
61258SOL     OW85605   1.903   6.502  14.075
61258SOL    HW185606   1.990   6.507  14.035
61258SOL    HW285607   1.918   6.453  14.156
61259SOL     OW85608   0.208  14.199   5.780
61259SOL    HW185609   0.124  14.167   5.815
61259SOL    HW285610   0.221  14.149   5.699
61260SOL     OW85611  11.628  10.998   0.256
61260SOL    HW185612  11.537  10.970   0.251
61260SOL    HW285613  11.653  11.016   0.165
61261SOL     OW85614   3.030   4.311  12.334
61261SOL    HW185615   3.048   4.272  12.420
61261SOL    HW285616   3.026   4.236  12.274
61262SOL     OW85617  11.997   0.527   1.433
61262SOL    HW185618  11.981   0.550   1.524
61262SOL    HW285619  12.092   0.519   1.426
61263SOL     OW85620   5.479   1.089  10.030
61263SOL    HW185621   5.400   1.142  10.029
61263SOL    HW285622   5.489   1.061  10.121
61264SOL     OW85623   4.988   1.814   3.126
61264SOL    HW185624   5.012   1.737   3.179
61264SOL    HW285625   5.048   1.883   3.156
61265SOL     OW85626   1.271   1.690   6.621
61265SOL    HW185627   1.257   1.598   6.599
61265SOL    HW285628   1.185   1.731   6.615
61266SOL     OW85629   6.920   7.950   3.147
61266SOL    HW185630   6.906   8.000   3.067
61266SOL    HW285631   6.896   8.009   3.218
61267SOL     OW85632   7.949  11.808  14.417
61267SOL    HW185633   7.985  11.745  14.355
61267SOL    HW285634   7.868  11.767  14.449
61268SOL     OW85635   1.022  11.102   5.791
61268SOL    HW185636   0.974  11.093   5.709
61268SOL    HW285637   0.995  11.027   5.843
61269SOL     OW85638   2.728   0.169   2.624
61269SOL    HW185639   2.822   0.182   2.607
61269SOL    HW285640   2.723   0.154   2.718
61270SOL     OW85641  12.542   5.047   2.158
61270SOL    HW185642  12.562   5.028   2.250
61270SOL    HW285643  12.569   4.969   2.111
61271SOL     OW85644   8.050   4.347   0.042
61271SOL    HW185645   8.097   4.344   0.126
61271SOL    HW285646   7.982   4.281   0.050
61272SOL     OW85647   1.466   6.836   1.764
61272SOL    HW185648   1.549   6.874   1.792
61272SOL    HW285649   1.459   6.857   1.671
61273SOL     OW85650   8.296   4.690   5.572
61273SOL    HW185651   8.391   4.692   5.584
61273SOL    HW285652   8.260   4.701   5.661
61274SOL     OW85653   5.242   3.125   8.746
61274SOL    HW185654   5.322   3.091   8.706
61274SOL    HW285655   5.235   3.079   8.829
61275SOL     OW85656   8.325   2.591  12.545
61275SOL    HW185657   8.377   2.518  12.581
61275SOL    HW285658   8.235   2.569  12.568
61276SOL     OW85659   0.173  14.690   9.435
61276SOL    HW185660   0.092  14.639   9.443
61276SOL    HW285661   0.144  14.775   9.402
61277SOL     OW85662   6.338   6.180   3.937
61277SOL    HW185663   6.284   6.126   3.879
61277SOL    HW285664   6.304   6.269   3.927
61278SOL     OW85665   1.563   4.177   7.696
61278SOL    HW185666   1.504   4.216   7.760
61278SOL    HW285667   1.564   4.238   7.623
61279SOL     OW85668   7.498   0.325   1.312
61279SOL    HW185669   7.475   0.275   1.390
61279SOL    HW285670   7.551   0.265   1.260
61280SOL     OW85671   5.655  12.832   0.304
61280SOL    HW185672   5.602  12.829   0.384
61280SOL    HW285673   5.745  12.834   0.334
61281SOL     OW85674   3.596   4.500   0.473
61281SOL    HW185675   3.586   4.434   0.542
61281SOL    HW285676   3.634   4.575   0.519
61282SOL     OW85677   9.488   5.597   5.455
61282SOL    HW185678   9.416   5.650   5.423
61282SOL    HW285679   9.564   5.655   5.451
61283SOL     OW85680   9.535  12.341   4.179
61283SOL    HW185681   9.612  12.397   4.173
61283SOL    HW285682   9.481  12.381   4.247
61284SOL     OW85683  11.483   4.620  10.401
61284SOL    HW185684  11.397   4.659  10.417
61284SOL    HW285685  11.545   4.687  10.430
61285SOL     OW85686   8.803   9.928   4.820
61285SOL    HW185687   8.742   9.860   4.791
61285SOL    HW285688   8.869   9.880   4.870
61286SOL     OW85689   2.656   8.398   0.691
61286SOL    HW185690   2.690   8.483   0.718
61286SOL    HW285691   2.725   8.336   0.715
61287SOL     OW85692   5.589   3.274  14.060
61287SOL    HW185693   5.559   3.212  14.125
61287SOL    HW285694   5.661   3.230  14.015
61288SOL     OW85695  10.690  10.717   1.648
61288SOL    HW185696  10.786  10.712   1.646
61288SOL    HW285697  10.662  10.646   1.590
61289SOL     OW85698   6.582   4.340   4.364
61289SOL    HW185699   6.486   4.344   4.360
61289SOL    HW285700   6.601   4.302   4.449
61290SOL     OW85701  11.576  11.001   6.077
61290SOL    HW185702  11.660  10.969   6.044
61290SOL    HW285703  11.561  11.084   6.031
61291SOL     OW85704   6.968   7.889   0.078
61291SOL    HW185705   7.021   7.856   0.151
61291SOL    HW285706   7.032   7.913   0.011
61292SOL     OW85707   9.221  13.338   4.125
61292SOL    HW185708   9.142  13.365   4.079
61292SOL    HW285709   9.210  13.369   4.214
61293SOL     OW85710   5.523   4.404  14.557
61293SOL    HW185711   5.606   4.374  14.593
61293SOL    HW285712   5.498   4.478  14.613
61294SOL     OW85713   6.702   1.749  12.164
61294SOL    HW185714   6.756   1.785  12.094
61294SOL    HW285715   6.613   1.754  12.130
61295SOL     OW85716   2.206  13.251  12.553
61295SOL    HW185717   2.209  13.308  12.630
61295SOL    HW285718   2.121  13.207  12.559
61296SOL     OW85719   0.574   5.253   5.731
61296SOL    HW185720   0.491   5.227   5.771
61296SOL    HW285721   0.638   5.244   5.801
61297SOL     OW85722  14.027   1.686  12.370
61297SOL    HW185723  13.955   1.717  12.314
61297SOL    HW285724  14.059   1.765  12.413
61298SOL     OW85725   5.244   9.152  14.191
61298SOL    HW185726   5.224   9.158  14.284
61298SOL    HW285727   5.319   9.094  14.186
61299SOL     OW85728  12.726  13.069  14.707
61299SOL    HW185729  12.662  12.998  14.708
61299SOL    HW285730  12.754  13.077  14.798
61300SOL     OW85731   7.607  11.110   1.957
61300SOL    HW185732   7.567  11.024   1.945
61300SOL    HW285733   7.534  11.171   1.955
61301SOL     OW85734  12.555   9.531   0.035
61301SOL    HW185735  12.621   9.476   0.077
61301SOL    HW285736  12.474   9.511   0.082
61302SOL     OW85737  13.190   9.661  10.637
61302SOL    HW185738  13.156   9.739  10.593
61302SOL    HW285739  13.113   9.622  10.679
61303SOL     OW85740   6.211   4.737  10.925
61303SOL    HW185741   6.294   4.754  10.971
61303SOL    HW285742   6.163   4.679  10.985
61304SOL     OW85743  11.066  11.262  11.613
61304SOL    HW185744  11.041  11.178  11.651
61304SOL    HW285745  11.084  11.242  11.521
61305SOL     OW85746  10.481  13.762   1.516
61305SOL    HW185747  10.545  13.736   1.450
61305SOL    HW285748  10.521  13.837   1.560
61306SOL     OW85749   9.499  10.368  13.227
61306SOL    HW185750   9.484  10.417  13.309
61306SOL    HW285751   9.411  10.348  13.195
61307SOL     OW85752   2.443   0.389  14.763
61307SOL    HW185753   2.474   0.309  14.722
61307SOL    HW285754   2.510   0.454  14.743
61308SOL     OW85755  10.957   0.064   0.525
61308SOL    HW185756  10.918   0.020   0.449
61308SOL    HW285757  11.048   0.032   0.527
61309SOL     OW85758   2.744   1.019  14.816
61309SOL    HW185759   2.722   1.105  14.852
61309SOL    HW285760   2.773   1.037  14.726
61310SOL     OW85761  12.671   2.323  12.265
61310SOL    HW185762  12.683   2.276  12.183
61310SOL    HW285763  12.713   2.408  12.251
61311SOL     OW85764  11.236  14.316   3.244
61311SOL    HW185765  11.300  14.336   3.176
61311SOL    HW285766  11.220  14.400   3.287
61312SOL     OW85767  13.030   0.130   8.244
61312SOL    HW185768  13.084   0.088   8.176
61312SOL    HW285769  12.956   0.071   8.256
61313SOL     OW85770  12.665   7.378   9.685
61313SOL    HW185771  12.570   7.387   9.686
61313SOL    HW285772  12.696   7.455   9.733
61314SOL     OW85773   6.454   7.138   3.098
61314SOL    HW185774   6.450   7.121   3.192
61314SOL    HW285775   6.502   7.220   3.090
61315SOL     OW85776   7.854   9.685   2.066
61315SOL    HW185777   7.875   9.599   2.029
61315SOL    HW285778   7.820   9.667   2.154
61316SOL     OW85779   9.728  10.479  12.566
61316SOL    HW185780   9.752  10.415  12.499
61316SOL    HW285781   9.691  10.426  12.637
61317SOL     OW85782   0.849  14.222  14.307
61317SOL    HW185783   0.809  14.301  14.270
61317SOL    HW285784   0.855  14.161  14.233
61318SOL     OW85785  10.969  13.779   4.546
61318SOL    HW185786  10.965  13.747   4.637
61318SOL    HW285787  10.992  13.871   4.554
61319SOL     OW85788   1.229   3.127  10.987
61319SOL    HW185789   1.261   3.211  10.954
61319SOL    HW285790   1.273   3.116  11.071
61320SOL     OW85791   8.911  12.650  14.317
61320SOL    HW185792   8.993  12.699  14.316
61320SOL    HW285793   8.928  12.572  14.264
61321SOL     OW85794   1.549   5.793   2.938
61321SOL    HW185795   1.581   5.863   2.994
61321SOL    HW285796   1.521   5.838   2.858
61322SOL     OW85797   9.315   7.089   9.006
61322SOL    HW185798   9.270   7.063   9.087
61322SOL    HW285799   9.369   7.013   8.984
61323SOL     OW85800   1.843   3.033   2.689
61323SOL    HW185801   1.890   3.116   2.702
61323SOL    HW285802   1.865   3.007   2.600
61324SOL     OW85803   6.823   2.800   9.681
61324SOL    HW185804   6.802   2.713   9.647
61324SOL    HW285805   6.747   2.824   9.733
61325SOL     OW85806  12.542  10.323  12.357
61325SOL    HW185807  12.586  10.339  12.273
61325SOL    HW285808  12.488  10.246  12.341
61326SOL     OW85809  11.792  10.724   7.939
61326SOL    HW185810  11.766  10.644   7.985
61326SOL    HW285811  11.795  10.791   8.008
61327SOL     OW85812   0.942   0.593   8.216
61327SOL    HW185813   0.982   0.651   8.281
61327SOL    HW285814   0.959   0.635   8.132
61328SOL     OW85815   5.331   8.538  12.023
61328SOL    HW185816   5.338   8.530  11.928
61328SOL    HW285817   5.296   8.626  12.036
61329SOL     OW85818   4.224   9.302  11.141
61329SOL    HW185819   4.163   9.343  11.079
61329SOL    HW285820   4.223   9.359  11.217
61330SOL     OW85821   8.210  13.849  12.103
61330SOL    HW185822   8.256  13.894  12.174
61330SOL    HW285823   8.258  13.767  12.091
61331SOL     OW85824  14.612  12.595   6.480
61331SOL    HW185825  14.522  12.609   6.453
61331SOL    HW285826  14.665  12.644   6.418
61332SOL     OW85827  14.598   9.888  14.607
61332SOL    HW185828  14.590   9.816  14.670
61332SOL    HW285829  14.635   9.960  14.658
61333SOL     OW85830   1.289  14.015  14.026
61333SOL    HW185831   1.223  14.020  14.095
61333SOL    HW285832   1.347  14.089  14.044
61334SOL     OW85833   7.742   7.473   7.207
61334SOL    HW185834   7.804   7.487   7.135
61334SOL    HW285835   7.680   7.544   7.200
61335SOL     OW85836  14.138   3.598   6.456
61335SOL    HW185837  14.150   3.685   6.418
61335SOL    HW285838  14.046   3.577   6.439
61336SOL     OW85839   3.916   5.945   9.399
61336SOL    HW185840   3.909   5.915   9.490
61336SOL    HW285841   3.827   5.939   9.365
61337SOL     OW85842  14.330   5.703   6.539
61337SOL    HW185843  14.251   5.654   6.517
61337SOL    HW285844  14.298   5.784   6.577
61338SOL     OW85845   4.855  13.389  14.729
61338SOL    HW185846   4.777  13.358  14.683
61338SOL    HW285847   4.828  13.472  14.769
61339SOL     OW85848  14.008  12.063   4.042
61339SOL    HW185849  14.104  12.067   4.045
61339SOL    HW285850  13.990  11.986   3.988
61340SOL     OW85851   4.963  14.489  13.865
61340SOL    HW185852   5.054  14.470  13.889
61340SOL    HW285853   4.967  14.514  13.772
61341SOL     OW85854   7.774   5.711   5.632
61341SOL    HW185855   7.775   5.803   5.659
61341SOL    HW285856   7.688   5.679   5.658
61342SOL     OW85857   9.046  12.507   4.120
61342SOL    HW185858   9.092  12.431   4.156
61342SOL    HW285859   9.019  12.479   4.032
61343SOL     OW85860  10.661  10.101  14.143
61343SOL    HW185861  10.594  10.155  14.185
61343SOL    HW285862  10.621  10.075  14.059
61344SOL     OW85863   9.743   5.174  10.151
61344SOL    HW185864   9.710   5.236  10.217
61344SOL    HW285865   9.832   5.154  10.180
61345SOL     OW85866  13.298   6.441  11.580
61345SOL    HW185867  13.213   6.483  11.570
61345SOL    HW285868  13.288   6.384  11.656
61346SOL     OW85869  14.454   5.502  14.098
61346SOL    HW185870  14.449   5.581  14.151
61346SOL    HW285871  14.364   5.487  14.069
61347SOL     OW85872  12.026  14.861   1.992
61347SOL    HW185873  12.105   0.037   2.015
61347SOL    HW285874  11.954   0.044   2.024
61348SOL     OW85875   5.905   4.798   5.597
61348SOL    HW185876   5.938   4.825   5.512
61348SOL    HW285877   5.889   4.704   5.587
61349SOL     OW85878   8.318   7.844  13.675
61349SOL    HW185879   8.390   7.789  13.706
61349SOL    HW285880   8.262   7.784  13.626
61350SOL     OW85881   2.881  10.980   1.545
61350SOL    HW185882   2.878  10.903   1.489
61350SOL    HW285883   2.795  10.984   1.586
61351SOL     OW85884  14.353   2.426   0.274
61351SOL    HW185885  14.258   2.421   0.274
61351SOL    HW285886  14.382   2.346   0.231
61352SOL     OW85887   7.430   0.810   0.924
61352SOL    HW185888   7.340   0.783   0.907
61352SOL    HW285889   7.423   0.900   0.955
61353SOL     OW85890  11.745  14.603   6.614
61353SOL    HW185891  11.763  14.676   6.672
61353SOL    HW285892  11.734  14.528   6.672
61354SOL     OW85893   1.517   0.238   9.792
61354SOL    HW185894   1.570   0.313   9.818
61354SOL    HW285895   1.449   0.231   9.860
61355SOL     OW85896  10.588  11.644   1.048
61355SOL    HW185897  10.577  11.646   1.143
61355SOL    HW285898  10.516  11.699   1.015
61356SOL     OW85899   4.220  13.665   0.314
61356SOL    HW185900   4.281  13.730   0.278
61356SOL    HW285901   4.209  13.691   0.405
61357SOL     OW85902  13.546   5.586   8.147
61357SOL    HW185903  13.607   5.570   8.219
61357SOL    HW285904  13.576   5.529   8.076
61358SOL     OW85905   3.138   9.582  10.207
61358SOL    HW185906   3.115   9.666  10.248
61358SOL    HW285907   3.092   9.517  10.260
61359SOL     OW85908   6.666   6.329   1.252
61359SOL    HW185909   6.735   6.395   1.238
61359SOL    HW285910   6.639   6.303   1.164
61360SOL     OW85911  10.289  11.602  13.064
61360SOL    HW185912  10.375  11.623  13.028
61360SOL    HW285913  10.271  11.514  13.032
61361SOL     OW85914  11.524   8.001   5.738
61361SOL    HW185915  11.483   7.967   5.817
61361SOL    HW285916  11.512   8.096   5.743
61362SOL     OW85917   2.111  12.223   0.909
61362SOL    HW185918   2.202  12.239   0.933
61362SOL    HW285919   2.103  12.256   0.820
61363SOL     OW85920   1.989  11.556  11.326
61363SOL    HW185921   1.904  11.587  11.357
61363SOL    HW285922   1.969  11.482  11.269
61364SOL     OW85923   9.809   7.703   4.581
61364SOL    HW185924   9.902   7.693   4.560
61364SOL    HW285925   9.782   7.783   4.537
61365SOL     OW85926   6.011   2.050   0.752
61365SOL    HW185927   6.053   2.059   0.838
61365SOL    HW285928   5.918   2.066   0.769
61366SOL     OW85929  13.122   4.495  11.389
61366SOL    HW185930  13.041   4.460  11.353
61366SOL    HW285931  13.164   4.541  11.316
61367SOL     OW85932   9.013   5.214   9.788
61367SOL    HW185933   8.950   5.185   9.722
61367SOL    HW285934   9.071   5.275   9.741
61368SOL     OW85935   8.047   0.253  12.812
61368SOL    HW185936   8.022   0.343  12.794
61368SOL    HW285937   7.968   0.202  12.794
61369SOL     OW85938  10.211  13.561  10.358
61369SOL    HW185939  10.233  13.644  10.400
61369SOL    HW285940  10.226  13.576  10.264
61370SOL     OW85941   9.743   1.486   4.888
61370SOL    HW185942   9.769   1.466   4.798
61370SOL    HW285943   9.773   1.576   4.903
61371SOL     OW85944   6.320  13.918   9.779
61371SOL    HW185945   6.389  13.981   9.801
61371SOL    HW285946   6.243  13.948   9.827
61372SOL     OW85947   6.183   6.455   3.983
61372SOL    HW185948   6.174   6.502   4.066
61372SOL    HW285949   6.164   6.521   3.916
61373SOL     OW85950   2.917   7.750   9.551
61373SOL    HW185951   2.937   7.728   9.460
61373SOL    HW285952   2.822   7.757   9.553
61374SOL     OW85953   5.533   3.563  10.074
61374SOL    HW185954   5.590   3.633  10.108
61374SOL    HW285955   5.572   3.483  10.108
61375SOL     OW85956  13.091  13.526   7.381
61375SOL    HW185957  13.110  13.618   7.396
61375SOL    HW285958  13.002  13.525   7.344
61376SOL     OW85959   4.829  14.456  12.736
61376SOL    HW185960   4.905  14.448  12.678
61376SOL    HW285961   4.793  14.543  12.716
61377SOL     OW85962   2.656   8.282   9.677
61377SOL    HW185963   2.689   8.256   9.762
61377SOL    HW285964   2.734   8.302   9.625
61378SOL     OW85965   4.411   6.765   3.145
61378SOL    HW185966   4.333   6.722   3.111
61378SOL    HW285967   4.390   6.785   3.236
61379SOL     OW85968   6.217  11.267   5.248
61379SOL    HW185969   6.220  11.342   5.189
61379SOL    HW285970   6.157  11.294   5.318
61380SOL     OW85971   2.034   7.034  13.557
61380SOL    HW185972   2.128   7.017  13.571
61380SOL    HW285973   1.990   6.962  13.603
61381SOL     OW85974  12.809   3.928  13.281
61381SOL    HW185975  12.724   3.938  13.239
61381SOL    HW285976  12.867   3.899  13.210
61382SOL     OW85977  11.348   8.242   2.951
61382SOL    HW185978  11.418   8.178   2.935
61382SOL    HW285979  11.295   8.239   2.872
61383SOL     OW85980  13.878   5.458   7.495
61383SOL    HW185981  13.886   5.391   7.563
61383SOL    HW285982  13.841   5.412   7.420
61384SOL     OW85983   1.975  13.379   2.119
61384SOL    HW185984   2.016  13.339   2.196
61384SOL    HW285985   1.882  13.358   2.128
61385SOL     OW85986  10.537   3.763   1.149
61385SOL    HW185987  10.629   3.788   1.147
61385SOL    HW285988  10.516   3.756   1.242
61386SOL     OW85989  14.233  12.067   0.866
61386SOL    HW185990  14.297  12.118   0.916
61386SOL    HW285991  14.243  11.978   0.899
61387SOL     OW85992   1.592  14.653   5.563
61387SOL    HW185993   1.592  14.593   5.637
61387SOL    HW285994   1.514  14.630   5.513
61388SOL     OW85995  12.466  10.562   7.260
61388SOL    HW185996  12.454  10.648   7.301
61388SOL    HW285997  12.472  10.501   7.333
61389SOL     OW85998   6.965   6.703   3.883
61389SOL    HW185999   7.053   6.703   3.920
61389SOL    HW286000   6.975   6.746   3.798
61390SOL     OW86001   1.129   9.159   6.829
61390SOL    HW186002   1.207   9.153   6.774
61390SOL    HW286003   1.128   9.250   6.859
61391SOL     OW86004   3.567  14.275   3.459
61391SOL    HW186005   3.559  14.275   3.555
61391SOL    HW286006   3.491  14.325   3.429
61392SOL     OW86007   1.930  10.155  13.017
61392SOL    HW186008   2.005  10.097  13.026
61392SOL    HW286009   1.889  10.154  13.104
61393SOL     OW86010   5.654   5.773  12.815
61393SOL    HW186011   5.673   5.705  12.749
61393SOL    HW286012   5.718   5.842  12.798
61394SOL     OW86013  13.657   6.915   3.875
61394SOL    HW186014  13.622   6.986   3.929
61394SOL    HW286015  13.589   6.899   3.810
61395SOL     OW86016   5.698  12.036   8.881
61395SOL    HW186017   5.693  11.971   8.951
61395SOL    HW286018   5.757  11.997   8.816
61396SOL     OW86019  10.867   9.229   1.562
61396SOL    HW186020  10.796   9.283   1.527
61396SOL    HW286021  10.899   9.278   1.637
61397SOL     OW86022   9.921  12.390   9.648
61397SOL    HW186023   9.961  12.303   9.651
61397SOL    HW286024   9.892  12.400   9.558
61398SOL     OW86025  12.009   3.240   7.055
61398SOL    HW186026  11.915   3.237   7.070
61398SOL    HW286027  12.018   3.256   6.961
61399SOL     OW86028   3.709   4.989   1.557
61399SOL    HW186029   3.633   5.036   1.592
61399SOL    HW286030   3.672   4.926   1.495
61400SOL     OW86031   1.919  10.882   4.958
61400SOL    HW186032   1.955  10.834   5.033
61400SOL    HW286033   1.967  10.848   4.883
61401SOL     OW86034   1.566  11.969   9.028
61401SOL    HW186035   1.620  12.048   9.025
61401SOL    HW286036   1.568  11.934   8.939
61402SOL     OW86037   0.133   4.610   0.243
61402SOL    HW186038   0.158   4.643   0.329
61402SOL    HW286039   0.183   4.529   0.233
61403SOL     OW86040   3.178  11.519   1.361
61403SOL    HW186041   3.178  11.452   1.430
61403SOL    HW286042   3.179  11.469   1.279
61404SOL     OW86043   3.529   4.367   7.138
61404SOL    HW186044   3.625   4.370   7.142
61404SOL    HW286045   3.503   4.340   7.226
61405SOL     OW86046  14.017  14.225   3.088
61405SOL    HW186047  14.104  14.264   3.090
61405SOL    HW286048  14.033  14.131   3.074
61406SOL     OW86049   6.793  10.443   6.046
61406SOL    HW186050   6.863  10.384   6.017
61406SOL    HW286051   6.828  10.531   6.030
61407SOL     OW86052   2.559   3.946   4.188
61407SOL    HW186053   2.619   3.877   4.218
61407SOL    HW286054   2.479   3.899   4.165
61408SOL     OW86055  10.000   8.760   8.267
61408SOL    HW186056  10.045   8.677   8.255
61408SOL    HW286057  10.067   8.826   8.253
61409SOL     OW86058   7.051   3.890  13.030
61409SOL    HW186059   7.090   3.827  13.091
61409SOL    HW286060   7.001   3.950  13.086
61410SOL     OW86061   9.563   1.457   7.792
61410SOL    HW186062   9.480   1.482   7.752
61410SOL    HW286063   9.595   1.537   7.833
61411SOL     OW86064   8.823   7.718   8.846
61411SOL    HW186065   8.787   7.770   8.774
61411SOL    HW286066   8.918   7.721   8.832
61412SOL     OW86067   1.006   3.863  12.631
61412SOL    HW186068   0.966   3.899  12.711
61412SOL    HW286069   1.081   3.813  12.663
61413SOL     OW86070   6.523  12.402   0.412
61413SOL    HW186071   6.476  12.472   0.457
61413SOL    HW286072   6.493  12.407   0.321
61414SOL     OW86073  10.942   0.152   9.101
61414SOL    HW186074  11.002   0.227   9.100
61414SOL    HW286075  10.865   0.183   9.054
61415SOL     OW86076   0.766  10.621   4.293
61415SOL    HW186077   0.677  10.586   4.288
61415SOL    HW286078   0.822  10.547   4.270
61416SOL     OW86079   7.393  12.170   3.083
61416SOL    HW186080   7.453  12.171   3.158
61416SOL    HW286081   7.366  12.262   3.073
61417SOL     OW86082   1.645  12.125  13.949
61417SOL    HW186083   1.613  12.044  13.987
61417SOL    HW286084   1.735  12.133  13.982
61418SOL     OW86085  10.942   6.491  14.123
61418SOL    HW186086  10.864   6.438  14.141
61418SOL    HW286087  10.971   6.520  14.209
61419SOL     OW86088   9.529  11.098   0.998
61419SOL    HW186089   9.593  11.052   1.052
61419SOL    HW286090   9.541  11.062   0.910
61420SOL     OW86091   2.485   6.688  11.905
61420SOL    HW186092   2.531   6.632  11.842
61420SOL    HW286093   2.540   6.684  11.984
61421SOL     OW86094   3.625   1.428  10.859
61421SOL    HW186095   3.568   1.416  10.783
61421SOL    HW286096   3.593   1.508  10.901
61422SOL     OW86097  14.380  11.370  13.696
61422SOL    HW186098  14.425  11.442  13.651
61422SOL    HW286099  14.424  11.363  13.780
61423SOL     OW86100  12.167  12.983   8.107
61423SOL    HW186101  12.086  12.976   8.058
61423SOL    HW286102  12.234  12.948   8.049
61424SOL     OW86103   4.840  14.683   5.357
61424SOL    HW186104   4.796  14.712   5.437
61424SOL    HW286105   4.836  14.758   5.298
61425SOL     OW86106   0.497  13.712   7.751
61425SOL    HW186107   0.473  13.640   7.810
61425SOL    HW286108   0.526  13.669   7.671
61426SOL     OW86109  11.084   0.541  14.023
61426SOL    HW186110  11.033   0.599  13.966
61426SOL    HW286111  11.167   0.528  13.977
61427SOL     OW86112  12.970  14.356   1.956
61427SOL    HW186113  12.967  14.443   1.915
61427SOL    HW286114  13.049  14.316   1.920
61428SOL     OW86115  10.061   5.759   7.249
61428SOL    HW186116  10.138   5.704   7.266
61428SOL    HW286117  10.049   5.809   7.330
61429SOL     OW86118   6.652   9.883   4.620
61429SOL    HW186119   6.681   9.911   4.534
61429SOL    HW286120   6.603   9.802   4.604
61430SOL     OW86121  11.525  10.741  10.435
61430SOL    HW186122  11.574  10.776  10.509
61430SOL    HW286123  11.437  10.724  10.470
61431SOL     OW86124  14.853   2.424   9.009
61431SOL    HW186125   0.029   2.371   8.946
61431SOL    HW286126  14.823   2.362   9.075
61432SOL     OW86127   0.059   0.404   7.272
61432SOL    HW186128  14.856   0.359   7.310
61432SOL    HW286129   0.083   0.352   7.195
61433SOL     OW86130  11.307   9.202   7.023
61433SOL    HW186131  11.365   9.277   7.035
61433SOL    HW286132  11.262   9.193   7.107
61434SOL     OW86133   9.999   0.827   8.915
61434SOL    HW186134   9.954   0.774   8.849
61434SOL    HW286135  10.091   0.799   8.910
61435SOL     OW86136   7.124   8.361   5.459
61435SOL    HW186137   7.089   8.280   5.423
61435SOL    HW286138   7.048   8.405   5.497
61436SOL     OW86139   4.043   3.746  10.767
61436SOL    HW186140   3.969   3.687  10.751
61436SOL    HW286141   4.026   3.822  10.711
61437SOL     OW86142  13.668   2.840  12.715
61437SOL    HW186143  13.687   2.905  12.783
61437SOL    HW286144  13.682   2.756  12.759
61438SOL     OW86145   8.301  14.442  13.125
61438SOL    HW186146   8.313  14.352  13.094
61438SOL    HW286147   8.382  14.462  13.172
61439SOL     OW86148  14.531  13.374   1.384
61439SOL    HW186149  14.611  13.384   1.332
61439SOL    HW286150  14.462  13.410   1.328
61440SOL     OW86151  12.346   8.289   6.759
61440SOL    HW186152  12.375   8.315   6.671
61440SOL    HW286153  12.260   8.249   6.745
61441SOL     OW86154  10.896   7.583   1.597
61441SOL    HW186155  10.984   7.546   1.592
61441SOL    HW286156  10.839   7.506   1.604
61442SOL     OW86157   4.975   1.845   2.711
61442SOL    HW186158   5.037   1.830   2.639
61442SOL    HW286159   4.963   1.940   2.713
61443SOL     OW86160   6.690   4.787  12.812
61443SOL    HW186161   6.785   4.783  12.796
61443SOL    HW286162   6.682   4.802  12.906
61444SOL     OW86163   5.563   6.229   8.091
61444SOL    HW186164   5.578   6.225   8.185
61444SOL    HW286165   5.583   6.320   8.068
61445SOL     OW86166   2.086  12.225  11.815
61445SOL    HW186167   2.123  12.273  11.741
61445SOL    HW286168   2.139  12.251  11.890
61446SOL     OW86169   0.124   2.286   4.936
61446SOL    HW186170   0.038   2.319   4.965
61446SOL    HW286171   0.107   2.247   4.851
61447SOL     OW86172   5.415   1.812   2.381
61447SOL    HW186173   5.486   1.863   2.344
61447SOL    HW286174   5.355   1.877   2.418
61448SOL     OW86175  13.690   2.723  10.994
61448SOL    HW186176  13.627   2.758  10.930
61448SOL    HW286177  13.646   2.646  11.031
61449SOL     OW86178   0.368  11.910  13.446
61449SOL    HW186179   0.445  11.874  13.402
61449SOL    HW286180   0.332  11.972  13.384
61450SOL     OW86181   8.220  10.529  11.670
61450SOL    HW186182   8.204  10.554  11.761
61450SOL    HW286183   8.191  10.438  11.665
61451SOL     OW86184   6.598  10.359  13.194
61451SOL    HW186185   6.537  10.373  13.121
61451SOL    HW286186   6.587  10.267  13.217
61452SOL     OW86187   7.455   4.494   5.832
61452SOL    HW186188   7.446   4.485   5.927
61452SOL    HW286189   7.367   4.479   5.798
61453SOL     OW86190  14.492   8.087  14.032
61453SOL    HW186191  14.560   8.153  14.050
61453SOL    HW286192  14.486   8.037  14.113
61454SOL     OW86193   8.025   8.232  11.491
61454SOL    HW186194   7.974   8.197  11.418
61454SOL    HW286195   7.962   8.242  11.562
61455SOL     OW86196   9.414   3.281   2.353
61455SOL    HW186197   9.365   3.205   2.385
61455SOL    HW286198   9.499   3.245   2.326
61456SOL     OW86199   5.899   0.005   3.280
61456SOL    HW186200   5.971   0.049   3.234
61456SOL    HW286201   5.942  14.822   3.345
61457SOL     OW86202  11.213  11.160   5.450
61457SOL    HW186203  11.186  11.074   5.482
61457SOL    HW286204  11.226  11.212   5.530
61458SOL     OW86205   0.753   8.252  12.425
61458SOL    HW186206   0.814   8.243  12.352
61458SOL    HW286207   0.677   8.295  12.388
61459SOL     OW86208   4.616   4.611   8.856
61459SOL    HW186209   4.645   4.622   8.766
61459SOL    HW286210   4.551   4.681   8.869
61460SOL     OW86211  14.433   7.779   3.038
61460SOL    HW186212  14.429   7.813   2.949
61460SOL    HW286213  14.341   7.775   3.066
61461SOL     OW86214   9.438   2.310  12.763
61461SOL    HW186215   9.456   2.224  12.799
61461SOL    HW286216   9.494   2.369  12.814
61462SOL     OW86217   4.029   3.687   6.080
61462SOL    HW186218   3.978   3.736   6.145
61462SOL    HW286219   4.040   3.600   6.119
61463SOL     OW86220   6.491   4.882   0.360
61463SOL    HW186221   6.463   4.974   0.361
61463SOL    HW286222   6.578   4.884   0.320
61464SOL     OW86223   1.479  12.365   0.693
61464SOL    HW186224   1.532  12.362   0.773
61464SOL    HW286225   1.389  12.376   0.724
61465SOL     OW86226   3.362   1.653  10.470
61465SOL    HW186227   3.360   1.721  10.537
61465SOL    HW286228   3.410   1.692  10.397
61466SOL     OW86229   9.228   9.150   1.366
61466SOL    HW186230   9.225   9.054   1.365
61466SOL    HW286231   9.251   9.174   1.276
61467SOL     OW86232   5.831  11.678  13.449
61467SOL    HW186233   5.788  11.757  13.414
61467SOL    HW286234   5.864  11.706  13.535
61468SOL     OW86235   8.097   8.429   9.376
61468SOL    HW186236   8.018   8.415   9.324
61468SOL    HW286237   8.077   8.504   9.432
61469SOL     OW86238  11.094   9.132  11.667
61469SOL    HW186239  11.134   9.143  11.753
61469SOL    HW286240  11.051   9.047  11.672
61470SOL     OW86241   5.274   7.198  13.167
61470SOL    HW186242   5.196   7.227  13.121
61470SOL    HW286243   5.255   7.213  13.260
61471SOL     OW86244  14.324  14.234   8.507
61471SOL    HW186245  14.234  14.210   8.482
61471SOL    HW286246  14.313  14.287   8.586
61472SOL     OW86247   3.171   8.153   5.108
61472SOL    HW186248   3.086   8.176   5.145
61472SOL    HW286249   3.179   8.059   5.122
61473SOL     OW86250   9.537  12.854  14.805
61473SOL    HW186251   9.583  12.851   0.017
61473SOL    HW286252   9.445  12.857  14.828
61474SOL     OW86253   0.337  10.003   7.906
61474SOL    HW186254   0.295   9.920   7.883
61474SOL    HW286255   0.266  10.068   7.901
61475SOL     OW86256   6.796   4.152   9.361
61475SOL    HW186257   6.838   4.071   9.389
61475SOL    HW286258   6.850   4.183   9.288
61476SOL     OW86259   7.638  13.027  13.039
61476SOL    HW186260   7.661  13.119  13.044
61476SOL    HW286261   7.643  13.006  12.946
61477SOL     OW86262   5.165   8.577   7.525
61477SOL    HW186263   5.200   8.662   7.499
61477SOL    HW286264   5.072   8.593   7.541
61478SOL     OW86265   9.637   0.911  14.129
61478SOL    HW186266   9.575   0.886  14.199
61478SOL    HW286267   9.668   0.998  14.155
61479SOL     OW86268   9.440   6.462   7.620
61479SOL    HW186269   9.360   6.429   7.660
61479SOL    HW286270   9.511   6.413   7.662
61480SOL     OW86271   3.493  10.622  11.383
61480SOL    HW186272   3.401  10.645  11.398
61480SOL    HW286273   3.511  10.553  11.447
61481SOL     OW86274  13.850   3.638   3.099
61481SOL    HW186275  13.758   3.629   3.076
61481SOL    HW286276  13.852   3.634   3.195
61482SOL     OW86277  10.638   8.258   9.477
61482SOL    HW186278  10.553   8.241   9.436
61482SOL    HW286279  10.679   8.323   9.420
61483SOL     OW86280   2.259   4.114   7.458
61483SOL    HW186281   2.212   4.197   7.462
61483SOL    HW286282   2.316   4.115   7.535
61484SOL     OW86283   6.346   6.087  12.413
61484SOL    HW186284   6.384   6.054  12.331
61484SOL    HW286285   6.288   6.158  12.385
61485SOL     OW86286   5.423   9.726  14.068
61485SOL    HW186287   5.362   9.656  14.089
61485SOL    HW286288   5.380   9.775  13.998
61486SOL     OW86289   8.205  14.270   0.880
61486SOL    HW186290   8.164  14.189   0.910
61486SOL    HW286291   8.249  14.246   0.799
61487SOL     OW86292   3.402   3.324   0.079
61487SOL    HW186293   3.316   3.308   0.041
61487SOL    HW286294   3.394   3.408   0.124
61488SOL     OW86295   2.615  13.543   5.029
61488SOL    HW186296   2.651  13.457   5.051
61488SOL    HW286297   2.537  13.525   4.978
61489SOL     OW86298   3.376  11.270   1.369
61489SOL    HW186299   3.471  11.273   1.379
61489SOL    HW286300   3.342  11.291   1.456
61490SOL     OW86301   2.674  11.909   2.003
61490SOL    HW186302   2.732  11.835   1.986
61490SOL    HW286303   2.733  11.982   2.022
61491SOL     OW86304   6.302   2.797  14.364
61491SOL    HW186305   6.303   2.860  14.292
61491SOL    HW286306   6.394   2.774  14.376
61492SOL     OW86307   7.344   2.911   6.828
61492SOL    HW186308   7.348   2.941   6.919
61492SOL    HW286309   7.424   2.859   6.817
61493SOL     OW86310   8.148   5.186  14.404
61493SOL    HW186311   8.162   5.270  14.360
61493SOL    HW286312   8.133   5.209  14.496
61494SOL     OW86313   2.226  10.362  10.029
61494SOL    HW186314   2.263  10.411   9.956
61494SOL    HW286315   2.131  10.371  10.018
61495SOL     OW86316  11.981   6.497  14.428
61495SOL    HW186317  11.998   6.413  14.385
61495SOL    HW286318  11.898   6.526  14.391
61496SOL     OW86319   7.381  10.599   2.482
61496SOL    HW186320   7.300  10.649   2.479
61496SOL    HW286321   7.386  10.556   2.396
61497SOL     OW86322   9.106   3.555   9.981
61497SOL    HW186323   9.183   3.511   9.944
61497SOL    HW286324   9.085   3.623   9.917
61498SOL     OW86325  13.114  14.774   8.074
61498SOL    HW186326  13.063  14.693   8.074
61498SOL    HW286327  13.164  14.770   7.992
61499SOL     OW86328   1.859   1.946   6.750
61499SOL    HW186329   1.932   1.965   6.691
61499SOL    HW286330   1.815   1.871   6.710
61500SOL     OW86331   4.278  11.428   2.668
61500SOL    HW186332   4.218  11.385   2.607
61500SOL    HW286333   4.353  11.369   2.674
61501SOL     OW86334  10.439   3.462   4.933
61501SOL    HW186335  10.483   3.542   4.964
61501SOL    HW286336  10.483   3.391   4.979
61502SOL     OW86337  14.715  13.819   0.021
61502SOL    HW186338  14.763  13.774  14.824
61502SOL    HW286339  14.779  13.829   0.092
61503SOL     OW86340   7.088  10.084   4.008
61503SOL    HW186341   7.066  10.079   3.915
61503SOL    HW286342   7.023  10.143   4.046
61504SOL     OW86343   4.962   5.924   4.893
61504SOL    HW186344   4.908   6.003   4.886
61504SOL    HW286345   4.933   5.868   4.822
61505SOL     OW86346   1.582   9.618  10.028
61505SOL    HW186347   1.554   9.709  10.015
61505SOL    HW286348   1.650   9.605   9.962
61506SOL     OW86349  10.255   2.230   8.400
61506SOL    HW186350  10.172   2.261   8.436
61506SOL    HW286351  10.290   2.172   8.467
61507SOL     OW86352   3.089   1.324   4.844
61507SOL    HW186353   3.072   1.418   4.838
61507SOL    HW286354   3.184   1.318   4.857
61508SOL     OW86355   3.355  10.092   7.623
61508SOL    HW186356   3.368  10.104   7.529
61508SOL    HW286357   3.438  10.117   7.663
61509SOL     OW86358  10.885   0.594  11.968
61509SOL    HW186359  10.904   0.575  12.060
61509SOL    HW286360  10.833   0.674  11.971
61510SOL     OW86361   7.618   5.595   7.887
61510SOL    HW186362   7.685   5.562   7.827
61510SOL    HW286363   7.642   5.687   7.900
61511SOL     OW86364  14.022   7.187   5.567
61511SOL    HW186365  14.063   7.114   5.522
61511SOL    HW286366  14.076   7.263   5.545
61512SOL     OW86367   6.574   8.851  10.960
61512SOL    HW186368   6.627   8.825  11.035
61512SOL    HW286369   6.491   8.805  10.971
61513SOL     OW86370  10.721  11.617   5.639
61513SOL    HW186371  10.654  11.638   5.703
61513SOL    HW286372  10.681  11.637   5.554
61514SOL     OW86373   3.829   7.826   6.582
61514SOL    HW186374   3.862   7.824   6.672
61514SOL    HW286375   3.892   7.773   6.532
61515SOL     OW86376  10.979  10.784   9.077
61515SOL    HW186377  11.069  10.780   9.044
61515SOL    HW286378  10.948  10.871   9.051
61516SOL     OW86379   7.235  11.832   5.505
61516SOL    HW186380   7.239  11.758   5.566
61516SOL    HW286381   7.148  11.827   5.466
61517SOL     OW86382  11.717   7.004   5.690
61517SOL    HW186383  11.771   7.075   5.657
61517SOL    HW286384  11.673   6.970   5.612
61518SOL     OW86385  12.487  11.247   7.846
61518SOL    HW186386  12.489  11.282   7.757
61518SOL    HW286387  12.480  11.324   7.902
61519SOL     OW86388   3.958  11.499  12.988
61519SOL    HW186389   3.988  11.566  12.927
61519SOL    HW286390   3.992  11.527  13.073
61520SOL     OW86391  10.623   9.865   3.936
61520SOL    HW186392  10.589   9.935   3.881
61520SOL    HW286393  10.569   9.789   3.916
61521SOL     OW86394   1.921  12.035   6.410
61521SOL    HW186395   1.893  12.126   6.405
61521SOL    HW286396   2.015  12.039   6.423
61522SOL     OW86397  13.660  10.704  11.474
61522SOL    HW186398  13.695  10.635  11.530
61522SOL    HW286399  13.736  10.758  11.453
61523SOL     OW86400  12.737   1.530   5.349
61523SOL    HW186401  12.665   1.472   5.325
61523SOL    HW286402  12.784   1.482   5.417
61524SOL     OW86403   3.646   4.069   3.574
61524SOL    HW186404   3.704   4.032   3.507
61524SOL    HW286405   3.694   4.058   3.656
61525SOL     OW86406   2.415   7.471  11.860
61525SOL    HW186407   2.385   7.424  11.782
61525SOL    HW286408   2.387   7.561  11.845
61526SOL     OW86409   7.660   4.022  13.389
61526SOL    HW186410   7.617   3.937  13.391
61526SOL    HW286411   7.751   4.002  13.369
61527SOL     OW86412   6.285   2.705   7.523
61527SOL    HW186413   6.192   2.726   7.516
61527SOL    HW286414   6.318   2.764   7.592
61528SOL     OW86415  10.973   4.900   6.233
61528SOL    HW186416  10.891   4.935   6.198
61528SOL    HW286417  11.017   4.862   6.157
61529SOL     OW86418  13.148  10.723   0.649
61529SOL    HW186419  13.053  10.728   0.644
61529SOL    HW286420  13.175  10.687   0.565
61530SOL     OW86421   1.383   6.458   2.504
61530SOL    HW186422   1.297   6.499   2.493
61530SOL    HW286423   1.400   6.465   2.598
61531SOL     OW86424   7.177   8.185   9.305
61531SOL    HW186425   7.211   8.271   9.331
61531SOL    HW286426   7.092   8.204   9.266
61532SOL     OW86427  10.988   1.742  13.939
61532SOL    HW186428  10.929   1.704  13.874
61532SOL    HW286429  10.985   1.681  14.013
61533SOL     OW86430  13.133   9.205   5.601
61533SOL    HW186431  13.199   9.265   5.565
61533SOL    HW286432  13.166   9.118   5.579
61534SOL     OW86433   7.297  12.133   8.151
61534SOL    HW186434   7.211  12.125   8.192
61534SOL    HW286435   7.313  12.227   8.147
61535SOL     OW86436   3.092   9.799   1.827
61535SOL    HW186437   3.005   9.791   1.787
61535SOL    HW286438   3.113   9.709   1.854
61536SOL     OW86439  14.745  14.403  12.828
61536SOL    HW186440  14.736  14.485  12.779
61536SOL    HW286441  14.754  14.431  12.920
61537SOL     OW86442   3.582   3.230   3.154
61537SOL    HW186443   3.569   3.269   3.241
61537SOL    HW286444   3.640   3.292   3.109
61538SOL     OW86445   4.540  11.385   5.804
61538SOL    HW186446   4.491  11.405   5.883
61538SOL    HW286447   4.481  11.328   5.753
61539SOL     OW86448   9.617   4.177   3.361
61539SOL    HW186449   9.523   4.179   3.378
61539SOL    HW286450   9.625   4.202   3.269
61540SOL     OW86451  13.741   8.815   8.215
61540SOL    HW186452  13.813   8.859   8.260
61540SOL    HW286453  13.689   8.777   8.286
61541SOL     OW86454  10.257  11.856   9.402
61541SOL    HW186455  10.344  11.894   9.387
61541SOL    HW286456  10.245  11.859   9.497
61542SOL     OW86457  11.909   8.611   7.497
61542SOL    HW186458  11.928   8.536   7.553
61542SOL    HW286459  11.843   8.579   7.435
61543SOL     OW86460  10.581  10.807   1.867
61543SOL    HW186461  10.654  10.833   1.923
61543SOL    HW286462  10.622  10.779   1.785
61544SOL     OW86463   5.620   4.841   4.373
61544SOL    HW186464   5.632   4.783   4.448
61544SOL    HW286465   5.708   4.848   4.334
61545SOL     OW86466  11.571   9.483   4.660
61545SOL    HW186467  11.522   9.419   4.711
61545SOL    HW286468  11.638   9.516   4.720
61546SOL     OW86469   5.080   0.363   4.859
61546SOL    HW186470   5.046   0.276   4.836
61546SOL    HW286471   5.004   0.420   4.856
61547SOL     OW86472  10.691   3.354   9.764
61547SOL    HW186473  10.697   3.417   9.836
61547SOL    HW286474  10.768   3.298   9.775
61548SOL     OW86475   5.654   6.829   0.342
61548SOL    HW186476   5.674   6.859   0.253
61548SOL    HW286477   5.731   6.855   0.393
61549SOL     OW86478  14.729  14.332  12.423
61549SOL    HW186479  14.689  14.276  12.490
61549SOL    HW286480  14.655  14.373  12.379
61550SOL     OW86481   9.177   0.151   5.580
61550SOL    HW186482   9.115   0.224   5.584
61550SOL    HW286483   9.254   0.181   5.627
61551SOL     OW86484   8.043   1.173   9.947
61551SOL    HW186485   8.085   1.217  10.021
61551SOL    HW286486   8.027   1.243   9.884
61552SOL     OW86487  10.863  14.087   2.185
61552SOL    HW186488  10.807  14.139   2.242
61552SOL    HW286489  10.931  14.149   2.156
61553SOL     OW86490   8.106  10.969   7.355
61553SOL    HW186491   8.159  11.026   7.410
61553SOL    HW286492   8.063  11.028   7.293
61554SOL     OW86493   9.290   8.702  10.277
61554SOL    HW186494   9.281   8.631  10.341
61554SOL    HW286495   9.362   8.674  10.220
61555SOL     OW86496   9.903   6.815   5.488
61555SOL    HW186497   9.954   6.735   5.475
61555SOL    HW286498   9.937   6.876   5.422
61556SOL     OW86499   2.834   4.958   4.453
61556SOL    HW186500   2.820   5.030   4.391
61556SOL    HW286501   2.763   4.896   4.434
61557SOL     OW86502   2.061  14.659   5.139
61557SOL    HW186503   2.105  14.689   5.219
61557SOL    HW286504   2.133  14.636   5.079
61558SOL     OW86505   4.830   2.941   2.838
61558SOL    HW186506   4.909   2.890   2.818
61558SOL    HW286507   4.852   2.987   2.919
61559SOL     OW86508   4.225   6.220   1.733
61559SOL    HW186509   4.165   6.157   1.771
61559SOL    HW286510   4.203   6.303   1.775
61560SOL     OW86511   7.576   4.513   5.497
61560SOL    HW186512   7.581   4.466   5.580
61560SOL    HW286513   7.495   4.564   5.504
61561SOL     OW86514   2.481   1.669  13.183
61561SOL    HW186515   2.410   1.699  13.126
61561SOL    HW286516   2.561   1.687  13.133
61562SOL     OW86517   2.005   9.457   9.221
61562SOL    HW186518   2.055   9.429   9.297
61562SOL    HW286519   2.053   9.421   9.146
61563SOL     OW86520   0.089   3.489   8.292
61563SOL    HW186521   0.048   3.515   8.374
61563SOL    HW286522   0.050   3.404   8.271
61564SOL     OW86523  13.067   1.720  12.551
61564SOL    HW186524  13.003   1.761  12.492
61564SOL    HW286525  13.147   1.713  12.498
61565SOL     OW86526   4.436   4.057   2.694
61565SOL    HW186527   4.462   4.112   2.768
61565SOL    HW286528   4.440   4.115   2.618
61566SOL     OW86529   1.217   9.919   9.999
61566SOL    HW186530   1.177   9.970   9.929
61566SOL    HW286531   1.230   9.982  10.070
61567SOL     OW86532   5.368   4.860  13.947
61567SOL    HW186533   5.370   4.881  14.040
61567SOL    HW286534   5.407   4.773  13.941
61568SOL     OW86535  14.340   9.033   9.899
61568SOL    HW186536  14.275   9.015   9.966
61568SOL    HW286537  14.352   8.950   9.854
61569SOL     OW86538   4.648   9.831   9.341
61569SOL    HW186539   4.686   9.884   9.270
61569SOL    HW286540   4.716   9.827   9.407
61570SOL     OW86541  10.204   8.307  10.428
61570SOL    HW186542  10.267   8.314  10.356
61570SOL    HW286543  10.141   8.378  10.411
61571SOL     OW86544   5.827  13.079   5.139
61571SOL    HW186545   5.853  13.007   5.197
61571SOL    HW286546   5.746  13.048   5.098
61572SOL     OW86547  10.507   8.818  10.458
61572SOL    HW186548  10.464   8.878  10.396
61572SOL    HW286549  10.469   8.732  10.438
61573SOL     OW86550   0.011  10.340   7.761
61573SOL    HW186551   0.026  10.430   7.790
61573SOL    HW286552   0.054  10.334   7.676
61574SOL     OW86553   3.871  14.322  11.508
61574SOL    HW186554   3.955  14.278  11.495
61574SOL    HW286555   3.807  14.265  11.464
61575SOL     OW86556   6.689  14.655  13.534
61575SOL    HW186557   6.740  14.732  13.506
61575SOL    HW286558   6.751  14.582  13.527
61576SOL     OW86559   1.244   9.651   1.626
61576SOL    HW186560   1.280   9.568   1.597
61576SOL    HW286561   1.205   9.632   1.712
61577SOL     OW86562  14.555   2.099   3.447
61577SOL    HW186563  14.582   2.035   3.513
61577SOL    HW286564  14.630   2.103   3.387
61578SOL     OW86565   3.288   8.746   1.898
61578SOL    HW186566   3.261   8.833   1.929
61578SOL    HW286567   3.383   8.750   1.894
61579SOL     OW86568   8.849  14.576   3.662
61579SOL    HW186569   8.882  14.552   3.575
61579SOL    HW286570   8.878  14.504   3.719
61580SOL     OW86571   8.573   7.043   6.537
61580SOL    HW186572   8.653   7.008   6.497
61580SOL    HW286573   8.513   7.058   6.463
61581SOL     OW86574   2.580   1.505   1.548
61581SOL    HW186575   2.628   1.549   1.478
61581SOL    HW286576   2.525   1.440   1.503
61582SOL     OW86577  11.197   9.488  14.565
61582SOL    HW186578  11.221   9.581  14.567
61582SOL    HW286579  11.240   9.454  14.486
61583SOL     OW86580   2.228   7.975   9.825
61583SOL    HW186581   2.304   8.033   9.811
61583SOL    HW286582   2.260   7.888   9.802
61584SOL     OW86583  12.944   5.831   2.367
61584SOL    HW186584  12.952   5.926   2.374
61584SOL    HW286585  12.983   5.810   2.282
61585SOL     OW86586   2.803  11.995  14.318
61585SOL    HW186587   2.883  11.980  14.267
61585SOL    HW286588   2.765  12.075  14.281
61586SOL     OW86589   3.250  13.146   6.450
61586SOL    HW186590   3.210  13.181   6.370
61586SOL    HW286591   3.343  13.171   6.443
61587SOL     OW86592   7.231   5.281   3.784
61587SOL    HW186593   7.141   5.278   3.816
61587SOL    HW286594   7.276   5.342   3.842
61588SOL     OW86595  10.737   0.621  13.701
61588SOL    HW186596  10.726   0.631  13.607
61588SOL    HW286597  10.703   0.533  13.720
61589SOL     OW86598   8.114   2.912  13.096
61589SOL    HW186599   8.104   3.002  13.129
61589SOL    HW286600   8.144   2.923  13.006
61590SOL     OW86601   4.539   5.998   8.318
61590SOL    HW186602   4.458   6.042   8.343
61590SOL    HW286603   4.606   6.036   8.374
61591SOL     OW86604  14.459   0.894   3.402
61591SOL    HW186605  14.549   0.867   3.384
61591SOL    HW286606  14.453   0.895   3.497
61592SOL     OW86607  10.946   9.847   7.632
61592SOL    HW186608  10.926   9.938   7.612
61592SOL    HW286609  10.869   9.799   7.602
61593SOL     OW86610   3.339   7.580   9.285
61593SOL    HW186611   3.314   7.603   9.196
61593SOL    HW286612   3.309   7.653   9.338
61594SOL     OW86613   8.163   8.821   8.138
61594SOL    HW186614   8.145   8.844   8.229
61594SOL    HW286615   8.195   8.731   8.142
61595SOL     OW86616   9.182   2.134   0.688
61595SOL    HW186617   9.239   2.134   0.611
61595SOL    HW286618   9.196   2.220   0.728
61596SOL     OW86619   5.508   4.211   0.241
61596SOL    HW186620   5.593   4.246   0.212
61596SOL    HW286621   5.456   4.206   0.161
61597SOL     OW86622   5.143   4.758   5.827
61597SOL    HW186623   5.199   4.836   5.832
61597SOL    HW286624   5.056   4.790   5.850
61598SOL     OW86625   5.578   4.192   9.847
61598SOL    HW186626   5.508   4.246   9.812
61598SOL    HW286627   5.534   4.125   9.898
61599SOL     OW86628  10.613   7.267   6.759
61599SOL    HW186629  10.683   7.215   6.720
61599SOL    HW286630  10.644   7.289   6.846
61600SOL     OW86631   3.308   4.526   6.275
61600SOL    HW186632   3.215   4.542   6.293
61600SOL    HW286633   3.332   4.454   6.332
61601SOL     OW86634  11.574   2.064   0.600
61601SOL    HW186635  11.484   2.054   0.629
61601SOL    HW286636  11.567   2.117   0.520
61602SOL     OW86637   3.006  11.214  14.737
61602SOL    HW186638   3.012  11.207  14.832
61602SOL    HW286639   3.065  11.287  14.714
61603SOL     OW86640  11.366   3.003   0.559
61603SOL    HW186641  11.390   3.082   0.510
61603SOL    HW286642  11.393   2.931   0.501
61604SOL     OW86643  10.014  14.369  13.484
61604SOL    HW186644   9.929  14.325  13.479
61604SOL    HW286645  10.035  14.390  13.393
61605SOL     OW86646  13.257  13.606   0.104
61605SOL    HW186647  13.185  13.594   0.043
61605SOL    HW286648  13.310  13.527   0.096
61606SOL     OW86649   7.233   2.621   6.803
61606SOL    HW186650   7.296   2.549   6.812
61606SOL    HW286651   7.287   2.700   6.800
61607SOL     OW86652   6.022   1.539   5.479
61607SOL    HW186653   6.088   1.593   5.437
61607SOL    HW286654   6.061   1.452   5.484
61608SOL     OW86655   9.694   1.337   0.917
61608SOL    HW186656   9.724   1.421   0.952
61608SOL    HW286657   9.728   1.272   0.979
61609SOL     OW86658  10.719   1.514   5.449
61609SOL    HW186659  10.776   1.442   5.475
61609SOL    HW286660  10.714   1.569   5.527
61610SOL     OW86661  14.534   4.412   8.840
61610SOL    HW186662  14.555   4.461   8.919
61610SOL    HW286663  14.545   4.474   8.769
61611SOL     OW86664  10.575   4.375  11.252
61611SOL    HW186665  10.576   4.291  11.299
61611SOL    HW286666  10.607   4.439  11.315
61612SOL     OW86667   1.195  11.752   0.100
61612SOL    HW186668   1.182  11.708   0.184
61612SOL    HW286669   1.174  11.843   0.117
61613SOL     OW86670   4.041   2.211   0.397
61613SOL    HW186671   4.090   2.282   0.355
61613SOL    HW286672   4.082   2.201   0.483
61614SOL     OW86673   3.174  14.762   7.409
61614SOL    HW186674   3.149  14.829   7.472
61614SOL    HW286675   3.106  14.767   7.341
61615SOL     OW86676   4.049   3.375  13.155
61615SOL    HW186677   3.958   3.348  13.148
61615SOL    HW286678   4.069   3.417  13.072
61616SOL     OW86679  10.996  14.610   8.725
61616SOL    HW186680  11.045  14.655   8.793
61616SOL    HW286681  11.011  14.662   8.646
61617SOL     OW86682   4.069  10.668   6.766
61617SOL    HW186683   4.012  10.591   6.759
61617SOL    HW286684   4.066  10.692   6.858
61618SOL     OW86685  12.967   3.813  13.066
61618SOL    HW186686  13.049   3.855  13.043
61618SOL    HW286687  12.905   3.845  13.000
61619SOL     OW86688   6.999   2.446  10.724
61619SOL    HW186689   6.908   2.474  10.718
61619SOL    HW286690   6.999   2.379  10.793
61620SOL     OW86691   5.641   6.109   5.919
61620SOL    HW186692   5.658   6.109   6.013
61620SOL    HW286693   5.567   6.049   5.907
61621SOL     OW86694   2.348   4.883  13.014
61621SOL    HW186695   2.374   4.900  12.923
61621SOL    HW286696   2.262   4.842  13.008
61622SOL     OW86697   9.384   6.338   1.566
61622SOL    HW186698   9.393   6.409   1.630
61622SOL    HW286699   9.408   6.259   1.615
61623SOL     OW86700   7.137   4.938   3.969
61623SOL    HW186701   7.223   4.914   3.934
61623SOL    HW286702   7.118   4.871   4.034
61624SOL     OW86703   5.281   2.639   3.166
61624SOL    HW186704   5.300   2.708   3.230
61624SOL    HW286705   5.203   2.595   3.200
61625SOL     OW86706   7.803   9.841   9.323
61625SOL    HW186707   7.853   9.785   9.263
61625SOL    HW286708   7.838   9.820   9.410
61626SOL     OW86709   2.452   5.894   9.244
61626SOL    HW186710   2.371   5.939   9.271
61626SOL    HW286711   2.427   5.802   9.237
61627SOL     OW86712  14.007   3.332  10.169
61627SOL    HW186713  14.091   3.346  10.213
61627SOL    HW286714  13.988   3.239  10.184
61628SOL     OW86715  12.628  14.729   7.203
61628SOL    HW186716  12.675  14.756   7.124
61628SOL    HW286717  12.697  14.703   7.264
61629SOL     OW86718   2.886   7.878  12.168
61629SOL    HW186719   2.953   7.947  12.174
61629SOL    HW286720   2.926   7.802  12.210
61630SOL     OW86721   0.325   5.956  12.767
61630SOL    HW186722   0.324   5.900  12.845
61630SOL    HW286723   0.386   5.912  12.708
61631SOL     OW86724   4.695   4.783  12.283
61631SOL    HW186725   4.769   4.844  12.289
61631SOL    HW286726   4.713   4.730  12.206
61632SOL     OW86727   2.980   9.781  12.762
61632SOL    HW186728   2.909   9.732  12.802
61632SOL    HW286729   3.018   9.832  12.833
61633SOL     OW86730  10.356   9.047   3.279
61633SOL    HW186731  10.424   8.987   3.309
61633SOL    HW286732  10.364   9.123   3.336
61634SOL     OW86733   4.321  13.602   8.906
61634SOL    HW186734   4.391  13.617   8.970
61634SOL    HW286735   4.251  13.562   8.957
61635SOL     OW86736   3.685   8.513   4.846
61635SOL    HW186737   3.637   8.541   4.924
61635SOL    HW286738   3.695   8.593   4.795
61636SOL     OW86739   5.635   6.432  12.714
61636SOL    HW186740   5.548   6.392  12.707
61636SOL    HW286741   5.624   6.500  12.781
61637SOL     OW86742   1.777   8.587   8.259
61637SOL    HW186743   1.787   8.537   8.179
61637SOL    HW286744   1.800   8.526   8.329
61638SOL     OW86745   2.706   2.876   1.606
61638SOL    HW186746   2.784   2.912   1.563
61638SOL    HW286747   2.710   2.912   1.695
61639SOL     OW86748   4.350   5.393  12.763
61639SOL    HW186749   4.343   5.380  12.858
61639SOL    HW286750   4.326   5.485  12.750
61640SOL     OW86751   8.724  13.005   7.695
61640SOL    HW186752   8.700  12.920   7.732
61640SOL    HW286753   8.776  13.047   7.763
61641SOL     OW86754   8.114   5.572   3.632
61641SOL    HW186755   8.163   5.508   3.580
61641SOL    HW286756   8.178   5.611   3.690
61642SOL     OW86757  11.397   8.091   0.520
61642SOL    HW186758  11.405   8.029   0.593
61642SOL    HW286759  11.405   8.037   0.442
61643SOL     OW86760   1.400   4.197  10.278
61643SOL    HW186761   1.309   4.193  10.248
61643SOL    HW286762   1.412   4.116  10.327
61644SOL     OW86763   9.694   9.433   3.881
61644SOL    HW186764   9.672   9.369   3.814
61644SOL    HW286765   9.735   9.382   3.950
61645SOL     OW86766   3.907  13.040  14.010
61645SOL    HW186767   3.941  12.975  14.072
61645SOL    HW286768   3.980  13.098  13.993
61646SOL     OW86769  12.757   2.784   6.419
61646SOL    HW186770  12.828   2.727   6.449
61646SOL    HW286771  12.696   2.724   6.376
61647SOL     OW86772  13.437  13.110   2.501
61647SOL    HW186773  13.449  13.088   2.409
61647SOL    HW286774  13.519  13.151   2.527
61648SOL     OW86775   2.071  13.424   3.609
61648SOL    HW186776   2.023  13.346   3.581
61648SOL    HW286777   2.126  13.393   3.680
61649SOL     OW86778   3.184   9.103   2.400
61649SOL    HW186779   3.229   9.033   2.353
61649SOL    HW286780   3.102   9.114   2.353
61650SOL     OW86781   7.359   0.246   5.004
61650SOL    HW186782   7.321   0.173   4.956
61650SOL    HW286783   7.314   0.246   5.089
61651SOL     OW86784   3.882   9.869  11.133
61651SOL    HW186785   3.905   9.777  11.149
61651SOL    HW286786   3.935   9.893  11.057
61652SOL     OW86787   1.543   4.531  13.634
61652SOL    HW186788   1.583   4.599  13.687
61652SOL    HW286789   1.513   4.576  13.555
61653SOL     OW86790  10.959   6.396   8.783
61653SOL    HW186791  10.998   6.403   8.870
61653SOL    HW286792  10.984   6.477   8.739
61654SOL     OW86793   5.802   4.937   1.989
61654SOL    HW186794   5.746   5.014   1.983
61654SOL    HW286795   5.871   4.953   1.924
61655SOL     OW86796   3.052   1.302  11.515
61655SOL    HW186797   3.112   1.327  11.585
61655SOL    HW286798   3.021   1.386  11.480
61656SOL     OW86799   7.236   7.466   0.982
61656SOL    HW186800   7.330   7.461   0.964
61656SOL    HW286801   7.215   7.385   1.027
61657SOL     OW86802   1.499   2.346   5.965
61657SOL    HW186803   1.500   2.285   6.039
61657SOL    HW286804   1.588   2.379   5.958
61658SOL     OW86805   7.181   6.124   8.130
61658SOL    HW186806   7.101   6.119   8.078
61658SOL    HW286807   7.252   6.120   8.066
61659SOL     OW86808   9.029   4.287   0.605
61659SOL    HW186809   9.118   4.322   0.597
61659SOL    HW286810   8.994   4.328   0.685
61660SOL     OW86811  14.399  12.836   9.753
61660SOL    HW186812  14.323  12.891   9.768
61660SOL    HW286813  14.443  12.832   9.839
61661SOL     OW86814  14.684   1.781   0.162
61661SOL    HW186815  14.743   1.754   0.092
61661SOL    HW286816  14.741   1.818   0.229
61662SOL     OW86817   1.275  11.595  13.609
61662SOL    HW186818   1.268  11.680  13.651
61662SOL    HW286819   1.281  11.614  13.515
61663SOL     OW86820  10.362   9.588   6.904
61663SOL    HW186821  10.286   9.572   6.847
61663SOL    HW286822  10.437   9.562   6.851
61664SOL     OW86823   1.501   8.647  12.913
61664SOL    HW186824   1.537   8.607  12.992
61664SOL    HW286825   1.567   8.711  12.886
61665SOL     OW86826  12.919   6.286   5.678
61665SOL    HW186827  12.930   6.381   5.674
61665SOL    HW286828  12.965   6.260   5.758
61666SOL     OW86829  14.192   1.429   3.812
61666SOL    HW186830  14.152   1.480   3.742
61666SOL    HW286831  14.131   1.437   3.885
61667SOL     OW86832   6.836   1.752   9.456
61667SOL    HW186833   6.837   1.828   9.515
61667SOL    HW286834   6.759   1.702   9.483
61668SOL     OW86835   3.773   3.905   5.647
61668SOL    HW186836   3.725   3.846   5.705
61668SOL    HW286837   3.864   3.897   5.674
61669SOL     OW86838  14.418  12.818   4.435
61669SOL    HW186839  14.440  12.891   4.493
61669SOL    HW286840  14.376  12.859   4.359
61670SOL     OW86841   2.943  14.812   8.791
61670SOL    HW186842   2.863  14.772   8.827
61670SOL    HW286843   3.013  14.751   8.814
61671SOL     OW86844   1.367  11.407   0.406
61671SOL    HW186845   1.433  11.455   0.455
61671SOL    HW286846   1.338  11.337   0.465
61672SOL     OW86847  14.619   6.142   6.577
61672SOL    HW186848  14.541   6.088   6.563
61672SOL    HW286849  14.586   6.228   6.601
61673SOL     OW86850  10.243  14.434   1.527
61673SOL    HW186851  10.296  14.430   1.607
61673SOL    HW286852  10.220  14.342   1.509
61674SOL     OW86853  12.648   4.749   9.299
61674SOL    HW186854  12.685   4.828   9.260
61674SOL    HW286855  12.701   4.678   9.263
61675SOL     OW86856  11.754  11.345  14.173
61675SOL    HW186857  11.751  11.278  14.104
61675SOL    HW286858  11.786  11.423  14.128
61676SOL     OW86859  12.331   7.136  13.984
61676SOL    HW186860  12.342   7.192  14.061
61676SOL    HW286861  12.248   7.091  13.999
61677SOL     OW86862   5.633   0.638   0.918
61677SOL    HW186863   5.606   0.592   0.997
61677SOL    HW286864   5.686   0.574   0.870
61678SOL     OW86865   2.579   0.245   6.574
61678SOL    HW186866   2.538   0.175   6.626
61678SOL    HW286867   2.506   0.301   6.548
61679SOL     OW86868   2.524   7.587  10.008
61679SOL    HW186869   2.618   7.570  10.013
61679SOL    HW286870   2.484   7.499  10.009
61680SOL     OW86871   9.473  13.887   7.754
61680SOL    HW186872   9.478  13.981   7.772
61680SOL    HW286873   9.428  13.850   7.830
61681SOL     OW86874   0.015   3.860  11.306
61681SOL    HW186875  14.816   3.842  11.368
61681SOL    HW286876  14.846   3.909  11.236
61682SOL     OW86877   7.175   0.396   3.730
61682SOL    HW186878   7.182   0.358   3.643
61682SOL    HW286879   7.264   0.398   3.763
61683SOL     OW86880  13.532   4.074   0.554
61683SOL    HW186881  13.503   4.157   0.516
61683SOL    HW286882  13.562   4.023   0.479
61684SOL     OW86883  14.824  11.797   4.637
61684SOL    HW186884  14.807  11.790   4.731
61684SOL    HW286885   0.037  11.755   4.625
61685SOL     OW86886  10.881   4.600   8.240
61685SOL    HW186887  10.951   4.596   8.305
61685SOL    HW286888  10.825   4.672   8.268
61686SOL     OW86889   3.777  14.093   8.943
61686SOL    HW186890   3.715  14.162   8.969
61686SOL    HW286891   3.792  14.108   8.850
61687SOL     OW86892   9.487  10.727  12.253
61687SOL    HW186893   9.486  10.655  12.316
61687SOL    HW286894   9.403  10.771  12.266
61688SOL     OW86895   9.089   4.168   1.579
61688SOL    HW186896   9.146   4.099   1.612
61688SOL    HW286897   9.089   4.234   1.649
61689SOL     OW86898   6.252   6.992  13.093
61689SOL    HW186899   6.190   6.951  13.032
61689SOL    HW286900   6.250   6.935  13.170
61690SOL     OW86901  10.725  14.225   2.424
61690SOL    HW186902  10.744  14.258   2.512
61690SOL    HW286903  10.629  14.221   2.421
61691SOL     OW86904   8.470   3.666   4.636
61691SOL    HW186905   8.377   3.645   4.625
61691SOL    HW286906   8.514   3.581   4.629
61692SOL     OW86907   8.570   5.637   8.646
61692SOL    HW186908   8.593   5.556   8.692
61692SOL    HW286909   8.629   5.639   8.570
61693SOL     OW86910   9.036   2.648  10.012
61693SOL    HW186911   9.075   2.622  10.096
61693SOL    HW286912   9.061   2.741  10.003
61694SOL     OW86913   3.861  11.661  14.358
61694SOL    HW186914   3.796  11.605  14.316
61694SOL    HW286915   3.810  11.718  14.416
61695SOL     OW86916   0.461  14.768  10.587
61695SOL    HW186917   0.519  14.699  10.618
61695SOL    HW286918   0.415  14.730  10.513
61696SOL     OW86919   4.507   3.520  10.152
61696SOL    HW186920   4.573   3.480  10.095
61696SOL    HW286921   4.536   3.500  10.241
61697SOL     OW86922  13.150   6.985   5.730
61697SOL    HW186923  13.130   7.022   5.816
61697SOL    HW286924  13.145   7.060   5.670
61698SOL     OW86925  13.215  13.755   3.637
61698SOL    HW186926  13.293  13.736   3.690
61698SOL    HW286927  13.228  13.844   3.606
61699SOL     OW86928  10.012   4.338   2.165
61699SOL    HW186929  10.076   4.331   2.235
61699SOL    HW286930  10.027   4.260   2.112
61700SOL     OW86931   0.283   7.166   1.793
61700SOL    HW186932   0.366   7.156   1.746
61700SOL    HW286933   0.306   7.154   1.885
61701SOL     OW86934   1.839   0.781  14.684
61701SOL    HW186935   1.918   0.793  14.631
61701SOL    HW286936   1.782   0.854  14.659
61702SOL     OW86937   5.290   0.540  13.848
61702SOL    HW186938   5.217   0.480  13.832
61702SOL    HW286939   5.271   0.616  13.793
61703SOL     OW86940   2.422   3.022  10.172
61703SOL    HW186941   2.393   3.113  10.174
61703SOL    HW286942   2.422   2.995  10.264
61704SOL     OW86943   8.390  14.526   1.506
61704SOL    HW186944   8.395  14.474   1.586
61704SOL    HW286945   8.344  14.469   1.443
61705SOL     OW86946   6.545   4.105   7.985
61705SOL    HW186947   6.483   4.127   7.915
61705SOL    HW286948   6.498   4.041   8.039
61706SOL     OW86949   8.275   1.261   2.919
61706SOL    HW186950   8.251   1.339   2.968
61706SOL    HW286951   8.360   1.283   2.881
61707SOL     OW86952   1.605   6.563   1.815
61707SOL    HW186953   1.684   6.518   1.843
61707SOL    HW286954   1.613   6.569   1.720
61708SOL     OW86955   6.011   2.821  13.057
61708SOL    HW186956   6.067   2.752  13.023
61708SOL    HW286957   5.929   2.776  13.080
61709SOL     OW86958   2.627  10.010  14.193
61709SOL    HW186959   2.709  10.042  14.231
61709SOL    HW286960   2.561  10.025  14.261
61710SOL     OW86961  11.842   1.138  14.535
61710SOL    HW186962  11.757   1.180  14.524
61710SOL    HW286963  11.889   1.159  14.454
61711SOL     OW86964  11.787   5.133  14.010
61711SOL    HW186965  11.852   5.170  14.069
61711SOL    HW286966  11.812   5.164  13.924
61712SOL     OW86967   9.091   7.210   3.836
61712SOL    HW186968   9.118   7.301   3.823
61712SOL    HW286969   8.996   7.211   3.822
61713SOL     OW86970   2.105  14.351  12.488
61713SOL    HW186971   2.146  14.289  12.429
61713SOL    HW286972   2.037  14.301  12.533
61714SOL     OW86973   8.973   2.381   0.491
61714SOL    HW186974   9.048   2.321   0.494
61714SOL    HW286975   8.923   2.360   0.570
61715SOL     OW86976   1.550   2.927   4.836
61715SOL    HW186977   1.546   2.989   4.908
61715SOL    HW286978   1.469   2.941   4.787
61716SOL     OW86979  10.905   1.246   1.141
61716SOL    HW186980  10.836   1.210   1.086
61716SOL    HW286981  10.885   1.214   1.229
61717SOL     OW86982  10.007   1.204   2.479
61717SOL    HW186983  10.004   1.244   2.392
61717SOL    HW286984   9.924   1.157   2.487
61718SOL     OW86985   6.953   9.358   1.384
61718SOL    HW186986   6.965   9.306   1.464
61718SOL    HW286987   6.862   9.339   1.358
61719SOL     OW86988  12.101  14.242   5.534
61719SOL    HW186989  12.170  14.176   5.540
61719SOL    HW286990  12.042  14.223   5.606
61720SOL     OW86991   3.101   1.056  14.560
61720SOL    HW186992   3.096   1.010  14.476
61720SOL    HW286993   3.012   1.049  14.596
61721SOL     OW86994  10.180   0.814  14.535
61721SOL    HW186995  10.130   0.848  14.610
61721SOL    HW286996  10.198   0.723  14.558
61722SOL     OW86997  11.019   0.381   0.359
61722SOL    HW186998  11.067   0.356   0.280
61722SOL    HW286999  11.085   0.426   0.412
61723SOL     OW87000  13.422   9.329   3.323
61723SOL    HW187001  13.432   9.236   3.300
61723SOL    HW287002  13.381   9.369   3.246
61724SOL     OW87003   5.989  12.027   6.828
61724SOL    HW187004   6.002  11.934   6.850
61724SOL    HW287005   5.949  12.065   6.906
61725SOL     OW87006   3.473   1.169   8.029
61725SOL    HW187007   3.398   1.125   8.069
61725SOL    HW287008   3.450   1.176   7.936
61726SOL     OW87009  14.518  13.183   1.893
61726SOL    HW187010  14.491  13.274   1.888
61726SOL    HW287011  14.613  13.185   1.877
61727SOL     OW87012  13.385   8.275   1.956
61727SOL    HW187013  13.394   8.369   1.941
61727SOL    HW287014  13.462   8.237   1.914
61728SOL     OW87015   8.712  10.076   6.995
61728SOL    HW187016   8.802  10.109   6.995
61728SOL    HW287017   8.659  10.153   7.015
61729SOL     OW87018   4.804  14.589  14.081
61729SOL    HW187019   4.782  14.678  14.054
61729SOL    HW287020   4.857  14.554  14.010
61730SOL     OW87021   6.729  12.859  11.971
61730SOL    HW187022   6.734  12.943  12.016
61730SOL    HW287023   6.696  12.880  11.884
61731SOL     OW87024   2.538   8.331   9.181
61731SOL    HW187025   2.500   8.368   9.260
61731SOL    HW287026   2.628   8.365   9.180
61732SOL     OW87027   1.638  14.648   3.704
61732SOL    HW187028   1.554  14.602   3.711
61732SOL    HW287029   1.631  14.700   3.624
61733SOL     OW87030   4.397  10.942  12.343
61733SOL    HW187031   4.422  10.938  12.435
61733SOL    HW287032   4.309  10.979  12.343
61734SOL     OW87033   0.985   7.923   8.700
61734SOL    HW187034   1.032   7.885   8.774
61734SOL    HW287035   1.000   8.018   8.708
61735SOL     OW87036   6.504  13.205   5.303
61735SOL    HW187037   6.458  13.275   5.348
61735SOL    HW287038   6.527  13.242   5.218
61736SOL     OW87039  10.889  11.191   2.911
61736SOL    HW187040  10.881  11.166   2.819
61736SOL    HW287041  10.972  11.237   2.917
61737SOL     OW87042   1.362  14.592  12.335
61737SOL    HW187043   1.332  14.606  12.424
61737SOL    HW287044   1.418  14.514  12.341
61738SOL     OW87045   8.046  14.132   3.483
61738SOL    HW187046   8.021  14.107   3.572
61738SOL    HW287047   8.139  14.155   3.489
61739SOL     OW87048   9.905  13.497   5.885
61739SOL    HW187049   9.929  13.452   5.804
61739SOL    HW287050   9.901  13.589   5.862
61740SOL     OW87051   6.986   5.638   6.883
61740SOL    HW187052   6.903   5.666   6.844
61740SOL    HW287053   6.972   5.546   6.905
61741SOL     OW87054   5.067  10.098   9.583
61741SOL    HW187055   5.130  10.030   9.560
61741SOL    HW287056   5.086  10.170   9.524
61742SOL     OW87057  10.548   9.551  13.661
61742SOL    HW187058  10.521   9.484  13.598
61742SOL    HW287059  10.505   9.526  13.743
61743SOL     OW87060   2.337   0.985  13.151
61743SOL    HW187061   2.393   0.952  13.082
61743SOL    HW287062   2.348   1.080  13.147
61744SOL     OW87063   1.732  12.539   5.005
61744SOL    HW187064   1.706  12.447   4.995
61744SOL    HW287065   1.650  12.585   5.022
61745SOL     OW87066  14.353   7.645   2.715
61745SOL    HW187067  14.383   7.731   2.743
61745SOL    HW287068  14.395   7.631   2.630
61746SOL     OW87069   2.172   5.473   8.329
61746SOL    HW187070   2.083   5.501   8.350
61746SOL    HW287071   2.178   5.384   8.364
61747SOL     OW87072  10.204   1.840  10.707
61747SOL    HW187073  10.183   1.929  10.679
61747SOL    HW287074  10.258   1.851  10.786
61748SOL     OW87075   9.165   0.597   4.329
61748SOL    HW187076   9.198   0.677   4.370
61748SOL    HW287077   9.156   0.535   4.401
61749SOL     OW87078   9.670  11.833   9.978
61749SOL    HW187079   9.686  11.863   9.888
61749SOL    HW287080   9.753  11.797  10.007
61750SOL     OW87081  10.325   0.021   8.918
61750SOL    HW187082  10.406  14.855   8.950
61750SOL    HW287083  10.340   0.115   8.917
61751SOL     OW87084   2.428   2.091   4.459
61751SOL    HW187085   2.429   2.121   4.549
61751SOL    HW287086   2.351   2.133   4.420
61752SOL     OW87087  11.614   0.275   9.556
61752SOL    HW187088  11.699   0.231   9.557
61752SOL    HW287089  11.556   0.216   9.604
61753SOL     OW87090   6.304   1.055   0.302
61753SOL    HW187091   6.332   1.060   0.211
61753SOL    HW287092   6.304   0.961   0.322
61754SOL     OW87093  10.160  11.813  11.486
61754SOL    HW187094  10.161  11.890  11.544
61754SOL    HW287095  10.151  11.850  11.398
61755SOL     OW87096   8.346   9.349  12.553
61755SOL    HW187097   8.362   9.337  12.647
61755SOL    HW287098   8.305   9.436  12.547
61756SOL     OW87099   3.903   7.597   1.243
61756SOL    HW187100   3.883   7.690   1.251
61756SOL    HW287101   3.857   7.556   1.317
61757SOL     OW87102   3.238   0.981   6.757
61757SOL    HW187103   3.244   0.891   6.789
61757SOL    HW287104   3.180   1.025   6.819
61758SOL     OW87105  13.889  12.030  13.336
61758SOL    HW187106  13.831  12.106  13.339
61758SOL    HW287107  13.972  12.061  13.370
61759SOL     OW87108  12.096   5.905   0.251
61759SOL    HW187109  12.041   5.979   0.226
61759SOL    HW287110  12.155   5.892   0.177
61760SOL     OW87111   8.823   6.577   1.881
61760SOL    HW187112   8.800   6.640   1.813
61760SOL    HW287113   8.900   6.532   1.847
61761SOL     OW87114   2.798  13.299   1.406
61761SOL    HW187115   2.861  13.287   1.335
61761SOL    HW287116   2.845  13.348   1.473
61762SOL     OW87117  11.298   4.527   2.508
61762SOL    HW187118  11.209   4.498   2.530
61762SOL    HW287119  11.353   4.486   2.575
61763SOL     OW87120  13.583   9.876   2.857
61763SOL    HW187121  13.668   9.914   2.882
61763SOL    HW287122  13.605   9.808   2.793
61764SOL     OW87123   9.141   8.673   4.865
61764SOL    HW187124   9.103   8.757   4.838
61764SOL    HW287125   9.068   8.626   4.906
61765SOL     OW87126  11.689  11.131  13.397
61765SOL    HW187127  11.777  11.155  13.367
61765SOL    HW287128  11.654  11.077  13.325
61766SOL     OW87129  11.130  11.528  11.623
61766SOL    HW187130  11.143  11.531  11.529
61766SOL    HW287131  11.103  11.437  11.641
61767SOL     OW87132   7.479   5.976   5.525
61767SOL    HW187133   7.518   6.052   5.568
61767SOL    HW287134   7.389   6.004   5.505
61768SOL     OW87135   9.221   5.172   7.237
61768SOL    HW187136   9.271   5.131   7.167
61768SOL    HW287137   9.131   5.173   7.205
61769SOL     OW87138   2.959   6.276  11.417
61769SOL    HW187139   2.869   6.281  11.383
61769SOL    HW287140   2.954   6.319  11.502
61770SOL     OW87141   5.774  11.148   7.657
61770SOL    HW187142   5.706  11.136   7.723
61770SOL    HW287143   5.743  11.098   7.581
61771SOL     OW87144   0.648   5.823   7.549
61771SOL    HW187145   0.657   5.771   7.628
61771SOL    HW287146   0.560   5.802   7.517
61772SOL     OW87147  12.239  11.503   6.362
61772SOL    HW187148  12.306  11.445   6.397
61772SOL    HW287149  12.207  11.458   6.284
61773SOL     OW87150   8.396   1.224  12.469
61773SOL    HW187151   8.390   1.267  12.555
61773SOL    HW287152   8.474   1.169  12.476
61774SOL     OW87153   9.981  11.462   1.785
61774SOL    HW187154   9.975  11.501   1.873
61774SOL    HW287155   9.913  11.506   1.735
61775SOL     OW87156   9.983   8.982  13.016
61775SOL    HW187157   9.922   8.988  12.943
61775SOL    HW287158   9.962   8.898  13.058
61776SOL     OW87159   1.891   1.055  14.566
61776SOL    HW187160   1.821   1.113  14.596
61776SOL    HW287161   1.923   1.097  14.486
61777SOL     OW87162  10.065   0.671   1.700
61777SOL    HW187163  10.103   0.610   1.637
61777SOL    HW287164   9.976   0.639   1.713
61778SOL     OW87165  10.091  12.007   4.979
61778SOL    HW187166  10.146  12.020   5.056
61778SOL    HW287167  10.001  12.010   5.012
61779SOL     OW87168  10.225  10.749   6.826
61779SOL    HW187169  10.152  10.809   6.807
61779SOL    HW287170  10.218  10.731   6.920
61780SOL     OW87171   7.056   6.621  12.636
61780SOL    HW187172   6.985   6.560  12.616
61780SOL    HW287173   7.133   6.565  12.646
61781SOL     OW87174  10.910   1.117  12.360
61781SOL    HW187175  10.929   1.136  12.452
61781SOL    HW287176  10.872   1.199  12.327
61782SOL     OW87177   6.752   9.104  11.887
61782SOL    HW187178   6.722   9.162  11.957
61782SOL    HW287179   6.695   9.027  11.893
61783SOL     OW87180   4.435  11.085   6.062
61783SOL    HW187181   4.460  11.068   5.972
61783SOL    HW287182   4.450  11.003   6.108
61784SOL     OW87183  10.022  11.711   5.141
61784SOL    HW187184  10.048  11.729   5.231
61784SOL    HW287185  10.104  11.715   5.091
61785SOL     OW87186  11.763   1.326  10.327
61785SOL    HW187187  11.858   1.329  10.310
61785SOL    HW287188  11.756   1.276  10.408
61786SOL     OW87189  10.214  13.665   8.680
61786SOL    HW187190  10.196  13.658   8.586
61786SOL    HW287191  10.128  13.655   8.722
61787SOL     OW87192   5.873  10.982   8.551
61787SOL    HW187193   5.793  11.029   8.529
61787SOL    HW287194   5.931  11.049   8.587
61788SOL     OW87195  10.817   8.151  13.682
61788SOL    HW187196  10.758   8.092  13.635
61788SOL    HW287197  10.762   8.193  13.748
61789SOL     OW87198   4.526   1.581   8.584
61789SOL    HW187199   4.446   1.560   8.536
61789SOL    HW287200   4.547   1.670   8.557
61790SOL     OW87201   4.123  10.213   6.719
61790SOL    HW187202   4.064  10.154   6.766
61790SOL    HW287203   4.085  10.300   6.733
61791SOL     OW87204  14.338   6.523   0.044
61791SOL    HW187205  14.391   6.602   0.031
61791SOL    HW287206  14.396   6.463   0.090
61792SOL     OW87207  10.038   1.731  13.253
61792SOL    HW187208  10.067   1.806  13.201
61792SOL    HW287209   9.953   1.759  13.289
61793SOL     OW87210  13.467   7.641   5.671
61793SOL    HW187211  13.553   7.615   5.638
61793SOL    HW287212  13.483   7.721   5.720
61794SOL     OW87213   9.606  10.791  13.862
61794SOL    HW187214   9.671  10.783  13.931
61794SOL    HW287215   9.562  10.874  13.881
61795SOL     OW87216   3.437   0.926   5.940
61795SOL    HW187217   3.402   0.950   6.025
61795SOL    HW287218   3.364   0.884   5.895
61796SOL     OW87219   8.489   9.096   9.484
61796SOL    HW187220   8.471   9.162   9.418
61796SOL    HW287221   8.498   9.015   9.435
61797SOL     OW87222  14.846   2.111   7.960
61797SOL    HW187223   0.039   2.064   7.908
61797SOL    HW287224   0.019   2.130   8.043
61798SOL     OW87225   8.299  13.642   8.699
61798SOL    HW187226   8.225  13.605   8.747
61798SOL    HW287227   8.264  13.665   8.613
61799SOL     OW87228   6.004  14.212  11.860
61799SOL    HW187229   5.934  14.274  11.881
61799SOL    HW287230   5.988  14.188  11.769
61800SOL     OW87231   7.365  14.841   9.251
61800SOL    HW187232   7.387   0.022   9.175
61800SOL    HW287233   7.298   0.019   9.297
61801SOL     OW87234  11.826   9.790   3.429
61801SOL    HW187235  11.771   9.743   3.366
61801SOL    HW287236  11.915   9.764   3.407
61802SOL     OW87237   4.618   4.112   5.681
61802SOL    HW187238   4.708   4.081   5.671
61802SOL    HW287239   4.571   4.039   5.722
61803SOL     OW87240   2.089  14.254   1.221
61803SOL    HW187241   2.149  14.261   1.295
61803SOL    HW287242   2.004  14.236   1.260
61804SOL     OW87243   5.970   2.934   5.843
61804SOL    HW187244   5.955   2.849   5.886
61804SOL    HW287245   6.022   2.913   5.766
61805SOL     OW87246   6.255   0.271  12.501
61805SOL    HW187247   6.282   0.361  12.518
61805SOL    HW287248   6.301   0.219  12.567
61806SOL     OW87249   1.111  13.864   0.571
61806SOL    HW187250   1.049  13.823   0.630
61806SOL    HW287251   1.135  13.947   0.614
61807SOL     OW87252   3.911   2.185   2.919
61807SOL    HW187253   3.923   2.232   2.836
61807SOL    HW287254   3.999   2.159   2.945
61808SOL     OW87255  13.495   2.327   8.845
61808SOL    HW187256  13.482   2.309   8.752
61808SOL    HW287257  13.456   2.251   8.890
61809SOL     OW87258  11.052   3.931  14.859
61809SOL    HW187259  11.104   3.957  14.783
61809SOL    HW287260  11.093   3.850   0.017
61810SOL     OW87261   5.293   3.882   0.260
61810SOL    HW187262   5.262   3.910   0.174
61810SOL    HW287263   5.386   3.906   0.261
61811SOL     OW87264   2.168  10.427  13.311
61811SOL    HW187265   2.180  10.436  13.217
61811SOL    HW287266   2.085  10.472  13.329
61812SOL     OW87267   4.004   9.089   0.725
61812SOL    HW187268   3.991   9.143   0.804
61812SOL    HW287269   3.974   9.144   0.653
61813SOL     OW87270   4.247   3.973  12.360
61813SOL    HW187271   4.203   3.980  12.445
61813SOL    HW287272   4.202   3.901  12.316
61814SOL     OW87273   7.602  12.232   8.569
61814SOL    HW187274   7.686  12.275   8.583
61814SOL    HW287275   7.584  12.243   8.475
61815SOL     OW87276   4.906   8.224   6.667
61815SOL    HW187277   4.942   8.283   6.733
61815SOL    HW287278   4.895   8.280   6.589
61816SOL     OW87279  14.679   3.773  13.917
61816SOL    HW187280  14.708   3.729  13.837
61816SOL    HW287281  14.587   3.749  13.926
61817SOL     OW87282  12.845   2.942  11.129
61817SOL    HW187283  12.823   2.954  11.222
61817SOL    HW287284  12.926   2.891  11.131
61818SOL     OW87285   4.389  10.377   3.428
61818SOL    HW187286   4.320  10.443   3.420
61818SOL    HW287287   4.374  10.336   3.513
61819SOL     OW87288   9.531   3.996   1.770
61819SOL    HW187289   9.465   3.989   1.839
61819SOL    HW287290   9.591   3.924   1.787
61820SOL     OW87291   8.272   4.763  10.731
61820SOL    HW187292   8.203   4.812  10.775
61820SOL    HW287293   8.249   4.671  10.744
61821SOL     OW87294  10.662   2.683  11.448
61821SOL    HW187295  10.573   2.665  11.420
61821SOL    HW287296  10.679   2.773  11.419
61822SOL     OW87297  14.223   1.029   2.012
61822SOL    HW187298  14.276   0.987   1.945
61822SOL    HW287299  14.207   0.960   2.077
61823SOL     OW87300   7.376   3.777  14.261
61823SOL    HW187301   7.367   3.780  14.166
61823SOL    HW287302   7.458   3.824  14.279
61824SOL     OW87303  13.894   8.832   0.022
61824SOL    HW187304  13.945   8.893  14.842
61824SOL    HW287305  13.945   8.820   0.102
61825SOL     OW87306   7.335   7.566  10.773
61825SOL    HW187307   7.352   7.507  10.847
61825SOL    HW287308   7.415   7.618  10.766
61826SOL     OW87309   1.581  14.461   0.999
61826SOL    HW187310   1.582  14.370   0.970
61826SOL    HW287311   1.665  14.497   0.968
61827SOL     OW87312   8.361   9.401  11.958
61827SOL    HW187313   8.439   9.439  11.997
61827SOL    HW287314   8.290   9.424  12.018
61828SOL     OW87315  10.219   7.415   4.435
61828SOL    HW187316  10.150   7.355   4.405
61828SOL    HW287317  10.267   7.438   4.356
61829SOL     OW87318   1.570  12.906   0.292
61829SOL    HW187319   1.624  12.831   0.316
61829SOL    HW287320   1.538  12.941   0.375
61830SOL     OW87321   2.071  10.427  13.050
61830SOL    HW187322   2.010  10.501  13.055
61830SOL    HW287323   2.017  10.353  13.021
61831SOL     OW87324  10.363   6.020  13.277
61831SOL    HW187325  10.354   6.068  13.194
61831SOL    HW287326  10.429   6.069  13.326
61832SOL     OW87327   8.876   7.081   4.409
61832SOL    HW187328   8.815   7.090   4.335
61832SOL    HW287329   8.946   7.025   4.375
61833SOL     OW87330  14.093   6.323   8.895
61833SOL    HW187331  14.126   6.311   8.806
61833SOL    HW287332  14.047   6.407   8.893
61834SOL     OW87333  13.971   4.601   3.646
61834SOL    HW187334  13.923   4.630   3.568
61834SOL    HW287335  14.063   4.608   3.622
61835SOL     OW87336   6.003  12.698  11.690
61835SOL    HW187337   5.969  12.636  11.625
61835SOL    HW287338   5.995  12.783  11.647
61836SOL     OW87339  10.843   2.521   4.863
61836SOL    HW187340  10.897   2.586   4.819
61836SOL    HW287341  10.784   2.572   4.919
61837SOL     OW87342   0.138   8.134  12.910
61837SOL    HW187343   0.116   8.081  12.987
61837SOL    HW287344   0.089   8.215  12.922
61838SOL     OW87345   7.765  12.471  11.532
61838SOL    HW187346   7.757  12.559  11.570
61838SOL    HW287347   7.842  12.476  11.475
61839SOL     OW87348   7.123   7.678   2.273
61839SOL    HW187349   7.157   7.589   2.286
61839SOL    HW287350   7.055   7.668   2.206
61840SOL     OW87351   6.191  11.948  12.370
61840SOL    HW187352   6.211  11.984  12.457
61840SOL    HW287353   6.098  11.927  12.374
61841SOL     OW87354   8.400   1.011   1.894
61841SOL    HW187355   8.347   1.057   1.960
61841SOL    HW287356   8.365   1.043   1.810
61842SOL     OW87357  14.813   6.674  14.824
61842SOL    HW187358  14.738   6.630  14.784
61842SOL    HW287359   0.010   6.608  14.823
61843SOL     OW87360   8.291  11.947   7.027
61843SOL    HW187361   8.243  11.888   7.085
61843SOL    HW287362   8.256  12.034   7.046
61844SOL     OW87363   1.028  14.719   3.132
61844SOL    HW187364   1.090  14.666   3.182
61844SOL    HW287365   1.012  14.796   3.187
61845SOL     OW87366  11.179   8.510  12.865
61845SOL    HW187367  11.209   8.497  12.775
61845SOL    HW287368  11.259   8.533  12.914
61846SOL     OW87369  14.007  11.219   3.970
61846SOL    HW187370  13.930  11.172   4.003
61846SOL    HW287371  13.976  11.265   3.892
61847SOL     OW87372  10.195  12.128   6.481
61847SOL    HW187373  10.228  12.211   6.447
61847SOL    HW287374  10.174  12.146   6.573
61848SOL     OW87375  13.097   7.408   4.475
61848SOL    HW187376  13.086   7.318   4.505
61848SOL    HW287377  13.176   7.407   4.422
61849SOL     OW87378  12.680   8.829  14.418
61849SOL    HW187379  12.765   8.844  14.460
61849SOL    HW287380  12.654   8.915  14.384
61850SOL     OW87381   0.780   9.895  10.516
61850SOL    HW187382   0.713   9.962  10.530
61850SOL    HW287383   0.787   9.850  10.600
61851SOL     OW87384   8.150   6.421   4.084
61851SOL    HW187385   8.059   6.424   4.116
61851SOL    HW287386   8.143   6.390   3.994
61852SOL     OW87387  13.355   1.752   0.433
61852SOL    HW187388  13.333   1.692   0.362
61852SOL    HW287389  13.422   1.810   0.396
61853SOL     OW87390   9.990   2.355   0.814
61853SOL    HW187391   9.987   2.441   0.772
61853SOL    HW287392  10.071   2.357   0.866
61854SOL     OW87393  13.129  12.213  13.930
61854SOL    HW187394  13.055  12.269  13.909
61854SOL    HW287395  13.141  12.158  13.852
61855SOL     OW87396  11.938  14.215   6.853
61855SOL    HW187397  11.945  14.154   6.780
61855SOL    HW287398  12.027  14.222   6.888
61856SOL     OW87399   3.918   1.661   4.114
61856SOL    HW187400   4.007   1.643   4.146
61856SOL    HW287401   3.864   1.659   4.193
61857SOL     OW87402   7.777   0.288   5.691
61857SOL    HW187403   7.811   0.365   5.737
61857SOL    HW287404   7.684   0.285   5.713
61858SOL     OW87405  11.183   4.012   7.012
61858SOL    HW187406  11.236   4.054   7.080
61858SOL    HW287407  11.098   3.998   7.054
61859SOL     OW87408   2.565   9.458  10.912
61859SOL    HW187409   2.541   9.540  10.955
61859SOL    HW287410   2.528   9.390  10.968
61860SOL     OW87411   3.284   7.606  13.119
61860SOL    HW187412   3.316   7.695  13.100
61860SOL    HW287413   3.257   7.609  13.210
61861SOL     OW87414  11.757  10.789   1.244
61861SOL    HW187415  11.800  10.867   1.208
61861SOL    HW287416  11.756  10.804   1.338
61862SOL     OW87417  13.649   3.686   8.720
61862SOL    HW187418  13.695   3.761   8.759
61862SOL    HW287419  13.561   3.718   8.703
61863SOL     OW87420   8.987   9.857   7.677
61863SOL    HW187421   9.016   9.898   7.758
61863SOL    HW287422   8.950   9.773   7.705
61864SOL     OW87423   8.698   0.391  10.085
61864SOL    HW187424   8.751   0.405  10.006
61864SOL    HW287425   8.758   0.412  10.157
61865SOL     OW87426  12.263  14.761  11.669
61865SOL    HW187427  12.281  14.827  11.603
61865SOL    HW287428  12.239  14.683  11.618
61866SOL     OW87429  14.739   5.953   2.290
61866SOL    HW187430  14.795   6.022   2.255
61866SOL    HW287431  14.793   5.910   2.356
61867SOL     OW87432   3.998  10.929  12.548
61867SOL    HW187433   4.080  10.890  12.517
61867SOL    HW287434   3.966  10.868  12.615
61868SOL     OW87435  11.453   0.355  13.561
61868SOL    HW187436  11.482   0.436  13.519
61868SOL    HW287437  11.390   0.318  13.499
61869SOL     OW87438  12.090   2.855  12.680
61869SOL    HW187439  12.043   2.922  12.730
61869SOL    HW287440  12.128   2.903  12.606
61870SOL     OW87441  13.360  14.061   1.740
61870SOL    HW187442  13.430  14.116   1.705
61870SOL    HW287443  13.404  13.983   1.773
61871SOL     OW87444   9.774   0.734  12.768
61871SOL    HW187445   9.849   0.793  12.763
61871SOL    HW287446   9.807   0.658  12.816
61872SOL     OW87447   1.556   9.360   3.549
61872SOL    HW187448   1.542   9.437   3.604
61872SOL    HW287449   1.504   9.377   3.471
61873SOL     OW87450   7.157   9.455  11.279
61873SOL    HW187451   7.073   9.415  11.254
61873SOL    HW287452   7.144   9.481  11.370
61874SOL     OW87453  14.298   1.607   1.620
61874SOL    HW187454  14.255   1.677   1.669
61874SOL    HW287455  14.235   1.535   1.620
61875SOL     OW87456   5.882  14.459  10.446
61875SOL    HW187457   5.886  14.524  10.516
61875SOL    HW287458   5.789  14.435  10.441
61876SOL     OW87459   8.455   6.083   3.417
61876SOL    HW187460   8.370   6.041   3.408
61876SOL    HW287461   8.436   6.177   3.409
61877SOL     OW87462   9.605   8.298  10.667
61877SOL    HW187463   9.586   8.392  10.673
61877SOL    HW287464   9.550   8.267  10.596
61878SOL     OW87465   5.783   1.890  14.627
61878SOL    HW187466   5.717   1.852  14.685
61878SOL    HW287467   5.761   1.983  14.623
61879SOL     OW87468  11.984  14.223  11.920
61879SOL    HW187469  11.987  14.274  12.001
61879SOL    HW287470  11.891  14.221  11.896
61880SOL     OW87471   9.132   9.406   8.937
61880SOL    HW187472   9.103   9.480   8.989
61880SOL    HW287473   9.156   9.339   9.001
61881SOL     OW87474   0.972   8.193   1.123
61881SOL    HW187475   1.020   8.213   1.043
61881SOL    HW287476   1.034   8.143   1.177
61882SOL     OW87477   7.900   9.465   6.892
61882SOL    HW187478   7.856   9.498   6.970
61882SOL    HW287479   7.942   9.384   6.920
61883SOL     OW87480   7.781   9.380   9.674
61883SOL    HW187481   7.809   9.400   9.585
61883SOL    HW287482   7.861   9.382   9.726
61884SOL     OW87483  14.792   2.790  11.483
61884SOL    HW187484  14.826   2.846  11.413
61884SOL    HW287485  14.774   2.850  11.556
61885SOL     OW87486   0.134   4.564   7.409
61885SOL    HW187487   0.153   4.480   7.368
61885SOL    HW287488   0.210   4.618   7.389
61886SOL     OW87489  11.956  12.969  11.951
61886SOL    HW187490  11.897  13.044  11.962
61886SOL    HW287491  11.979  12.970  11.858
61887SOL     OW87492   9.573   8.022  10.210
61887SOL    HW187493   9.611   7.935  10.204
61887SOL    HW287494   9.647   8.081  10.195
61888SOL     OW87495  13.258   6.296  11.342
61888SOL    HW187496  13.275   6.326  11.431
61888SOL    HW287497  13.339   6.317  11.294
61889SOL     OW87498  14.141   1.121  12.920
61889SOL    HW187499  14.112   1.210  12.899
61889SOL    HW287500  14.168   1.085  12.835
61890SOL     OW87501   4.393   3.157  12.759
61890SOL    HW187502   4.441   3.090  12.710
61890SOL    HW287503   4.370   3.223  12.693
61891SOL     OW87504   8.369  11.367   1.911
61891SOL    HW187505   8.330  11.280   1.916
61891SOL    HW287506   8.440  11.357   1.847
61892SOL     OW87507   2.836   9.303  11.180
61892SOL    HW187508   2.803   9.293  11.090
61892SOL    HW287509   2.817   9.220  11.222
61893SOL     OW87510   0.031  11.254   8.877
61893SOL    HW187511   0.106  11.314   8.869
61893SOL    HW287512   0.016  11.246   8.971
61894SOL     OW87513   0.612   7.230   7.972
61894SOL    HW187514   0.572   7.287   7.906
61894SOL    HW287515   0.656   7.290   8.032
61895SOL     OW87516  12.736  13.715   9.282
61895SOL    HW187517  12.780  13.641   9.239
61895SOL    HW287518  12.800  13.749   9.343
61896SOL     OW87519   6.629   8.901   2.241
61896SOL    HW187520   6.706   8.843   2.241
61896SOL    HW287521   6.566   8.856   2.298
61897SOL     OW87522  13.718  10.297  13.404
61897SOL    HW187523  13.654  10.361  13.375
61897SOL    HW287524  13.786  10.298  13.336
61898SOL     OW87525   4.047   6.189   4.320
61898SOL    HW187526   4.000   6.219   4.398
61898SOL    HW287527   4.135   6.168   4.351
61899SOL     OW87528   7.624   8.570   2.575
61899SOL    HW187529   7.677   8.569   2.496
61899SOL    HW287530   7.675   8.521   2.639
61900SOL     OW87531  10.084   7.628   4.533
61900SOL    HW187532  10.134   7.559   4.490
61900SOL    HW287533  10.093   7.609   4.627
61901SOL     OW87534   5.642  13.839   6.751
61901SOL    HW187535   5.558  13.793   6.743
61901SOL    HW287536   5.702  13.773   6.788
61902SOL     OW87537  14.678   6.686   1.777
61902SOL    HW187538  14.609   6.646   1.724
61902SOL    HW287539  14.759   6.653   1.739
61903SOL     OW87540   9.464   2.279   9.761
61903SOL    HW187541   9.376   2.305   9.734
61903SOL    HW287542   9.516   2.359   9.754
61904SOL     OW87543  13.455  14.548   8.638
61904SOL    HW187544  13.499  14.595   8.709
61904SOL    HW287545  13.464  14.606   8.562
61905SOL     OW87546   6.332   5.385  10.833
61905SOL    HW187547   6.343   5.360  10.924
61905SOL    HW287548   6.255   5.337  10.803
61906SOL     OW87549   5.415  11.269   7.146
61906SOL    HW187550   5.390  11.179   7.166
61906SOL    HW287551   5.389  11.281   7.055
61907SOL     OW87552  12.805   3.488   2.495
61907SOL    HW187553  12.713   3.487   2.472
61907SOL    HW287554  12.842   3.412   2.451
61908SOL     OW87555   0.693   5.219   2.447
61908SOL    HW187556   0.751   5.148   2.473
61908SOL    HW287557   0.684   5.272   2.526
61909SOL     OW87558   8.678  12.469  11.981
61909SOL    HW187559   8.591  12.492  12.014
61909SOL    HW287560   8.664  12.447  11.889
61910SOL     OW87561   9.848   2.742  12.366
61910SOL    HW187562   9.915   2.699  12.312
61910SOL    HW287563   9.800   2.671  12.407
61911SOL     OW87564  11.964   6.033   8.513
61911SOL    HW187565  12.025   6.038   8.438
61911SOL    HW287566  12.014   5.987   8.581
61912SOL     OW87567   6.715   4.638   5.652
61912SOL    HW187568   6.791   4.694   5.669
61912SOL    HW287569   6.752   4.561   5.609
61913SOL     OW87570   8.840   2.360  12.350
61913SOL    HW187571   8.924   2.316  12.335
61913SOL    HW287572   8.834   2.367  12.445
61914SOL     OW87573  11.113   0.239  10.199
61914SOL    HW187574  11.116   0.334  10.202
61914SOL    HW287575  11.033   0.219  10.150
61915SOL     OW87576  14.857   7.047  13.428
61915SOL    HW187577   0.015   7.084  13.345
61915SOL    HW287578   0.060   7.000  13.462
61916SOL     OW87579  11.441  12.526   1.090
61916SOL    HW187580  11.361  12.526   1.037
61916SOL    HW287581  11.444  12.613   1.129
61917SOL     OW87582   7.559   4.594   4.693
61917SOL    HW187583   7.582   4.664   4.631
61917SOL    HW287584   7.623   4.525   4.676
61918SOL     OW87585   8.831   3.127   6.520
61918SOL    HW187586   8.792   3.149   6.435
61918SOL    HW287587   8.760   3.138   6.583
61919SOL     OW87588   8.393   0.710   0.476
61919SOL    HW187589   8.473   0.762   0.471
61919SOL    HW287590   8.351   0.721   0.391
61920SOL     OW87591   7.819   5.565   2.091
61920SOL    HW187592   7.782   5.636   2.038
61920SOL    HW287593   7.900   5.601   2.127
61921SOL     OW87594   7.685   2.385   9.714
61921SOL    HW187595   7.632   2.373   9.635
61921SOL    HW287596   7.643   2.457   9.760
61922SOL     OW87597   5.914   8.169   9.401
61922SOL    HW187598   5.851   8.198   9.335
61922SOL    HW287599   5.863   8.165   9.482
61923SOL     OW87600  13.775  13.824   1.056
61923SOL    HW187601  13.727  13.745   1.029
61923SOL    HW287602  13.850  13.828   0.998
61924SOL     OW87603   3.927   1.885   3.924
61924SOL    HW187604   3.851   1.939   3.945
61924SOL    HW287605   3.910   1.801   3.966
61925SOL     OW87606   6.719   7.995   8.273
61925SOL    HW187607   6.767   8.052   8.333
61925SOL    HW287608   6.765   8.003   8.189
61926SOL     OW87609  13.642   3.504   7.161
61926SOL    HW187610  13.561   3.543   7.196
61926SOL    HW287611  13.704   3.509   7.234
61927SOL     OW87612   5.079   4.160   9.785
61927SOL    HW187613   5.062   4.159   9.880
61927SOL    HW287614   5.030   4.085   9.752
61928SOL     OW87615   6.367   7.850   6.086
61928SOL    HW187616   6.340   7.832   5.996
61928SOL    HW287617   6.419   7.930   6.081
61929SOL     OW87618   5.720   1.549  13.669
61929SOL    HW187619   5.678   1.466  13.647
61929SOL    HW287620   5.647   1.609  13.686
61930SOL     OW87621  14.753   3.097   4.908
61930SOL    HW187622  14.681   3.137   4.859
61930SOL    HW287623  14.827   3.098   4.847
61931SOL     OW87624  14.287  11.996  11.939
61931SOL    HW187625  14.378  12.025  11.943
61931SOL    HW287626  14.264  12.000  11.846
61932SOL     OW87627  10.641   7.547  12.942
61932SOL    HW187628  10.733   7.572  12.936
61932SOL    HW287629  10.640   7.455  12.917
61933SOL     OW87630   2.213   7.851   2.781
61933SOL    HW187631   2.168   7.792   2.842
61933SOL    HW287632   2.157   7.850   2.703
61934SOL     OW87633   6.411   6.546   4.884
61934SOL    HW187634   6.501   6.551   4.917
61934SOL    HW287635   6.421   6.523   4.792
61935SOL     OW87636  10.674   0.974   3.522
61935SOL    HW187637  10.679   1.037   3.449
61935SOL    HW287638  10.684   0.889   3.480
61936SOL     OW87639   2.247   3.678   9.699
61936SOL    HW187640   2.239   3.602   9.756
61936SOL    HW287641   2.158   3.693   9.666
61937SOL     OW87642   7.850   4.243  11.605
61937SOL    HW187643   7.831   4.223  11.514
61937SOL    HW287644   7.780   4.200  11.654
61938SOL     OW87645   1.944   0.926   7.135
61938SOL    HW187646   1.999   0.998   7.103
61938SOL    HW287647   1.864   0.934   7.084
61939SOL     OW87648   1.528  12.488   1.154
61939SOL    HW187649   1.585  12.411   1.155
61939SOL    HW287650   1.541  12.529   1.239
61940SOL     OW87651   7.290   2.130   8.077
61940SOL    HW187652   7.267   2.101   8.165
61940SOL    HW287653   7.315   2.050   8.030
61941SOL     OW87654  10.532   5.900   1.166
61941SOL    HW187655  10.460   5.941   1.213
61941SOL    HW287656  10.523   5.930   1.076
61942SOL     OW87657  11.355   5.507   8.191
61942SOL    HW187658  11.391   5.547   8.112
61942SOL    HW287659  11.387   5.562   8.262
61943SOL     OW87660   6.952  14.466  10.200
61943SOL    HW187661   7.032  14.446  10.248
61943SOL    HW287662   6.913  14.539  10.249
61944SOL     OW87663   1.436   0.883   5.429
61944SOL    HW187664   1.361   0.869   5.372
61944SOL    HW287665   1.512   0.862   5.375
61945SOL     OW87666  13.518   2.999   4.523
61945SOL    HW187667  13.456   3.049   4.470
61945SOL    HW287668  13.478   2.913   4.534
61946SOL     OW87669  11.947  13.855   1.449
61946SOL    HW187670  12.037  13.858   1.416
61946SOL    HW287671  11.894  13.841   1.371
61947SOL     OW87672   8.122   8.813   1.898
61947SOL    HW187673   8.196   8.833   1.956
61947SOL    HW287674   8.161   8.809   1.810
61948SOL     OW87675   9.499  13.981  12.949
61948SOL    HW187676   9.591  14.007  12.958
61948SOL    HW287677   9.501  13.902  12.895
61949SOL     OW87678   4.121  10.454   7.144
61949SOL    HW187679   4.109  10.359   7.136
61949SOL    HW287680   4.213  10.465   7.169
61950SOL     OW87681   7.576  11.877   7.655
61950SOL    HW187682   7.585  11.845   7.745
61950SOL    HW287683   7.659  11.921   7.637
61951SOL     OW87684  14.839  11.580   0.171
61951SOL    HW187685  14.803  11.495   0.146
61951SOL    HW287686   0.062  11.570   0.164
61952SOL     OW87687  13.381  10.458  10.330
61952SOL    HW187688  13.359  10.444  10.422
61952SOL    HW287689  13.316  10.520  10.298
61953SOL     OW87690   4.648   0.424   8.676
61953SOL    HW187691   4.724   0.437   8.620
61953SOL    HW287692   4.632   0.330   8.673
61954SOL     OW87693   0.951  10.532  14.257
61954SOL    HW187694   0.878  10.567  14.205
61954SOL    HW287695   1.012  10.497  14.192
61955SOL     OW87696  13.367   7.805   6.355
61955SOL    HW187697  13.291   7.835   6.305
61955SOL    HW287698  13.330   7.751   6.425
61956SOL     OW87699   4.344  14.073  11.684
61956SOL    HW187700   4.425  14.033  11.651
61956SOL    HW287701   4.345  14.054  11.777
61957SOL     OW87702   8.584   6.605   2.516
61957SOL    HW187703   8.517   6.660   2.557
61957SOL    HW287704   8.538   6.522   2.498
61958SOL     OW87705   5.474  13.813   1.099
61958SOL    HW187706   5.479  13.730   1.145
61958SOL    HW287707   5.381  13.826   1.082
61959SOL     OW87708  14.609   8.589   2.781
61959SOL    HW187709  14.610   8.669   2.834
61959SOL    HW287710  14.689   8.594   2.729
61960SOL     OW87711  11.533  10.773  11.968
61960SOL    HW187712  11.501  10.688  11.937
61960SOL    HW287713  11.508  10.835  11.899
61961SOL     OW87714  13.856   7.925  13.714
61961SOL    HW187715  13.937   7.953  13.671
61961SOL    HW287716  13.847   7.984  13.788
61962SOL     OW87717   8.204   7.588  13.693
61962SOL    HW187718   8.253   7.511  13.719
61962SOL    HW287719   8.183   7.574  13.601
61963SOL     OW87720   3.039  11.214  12.415
61963SOL    HW187721   3.040  11.289  12.474
61963SOL    HW287722   3.130  11.203  12.388
61964SOL     OW87723   4.810   5.795   2.793
61964SOL    HW187724   4.866   5.872   2.789
61964SOL    HW287725   4.732   5.825   2.841
61965SOL     OW87726   8.209  11.872  11.187
61965SOL    HW187727   8.289  11.921  11.206
61965SOL    HW287728   8.240  11.786  11.158
61966SOL     OW87729   7.044   4.077   6.393
61966SOL    HW187730   7.020   4.076   6.486
61966SOL    HW287731   7.125   4.026   6.388
61967SOL     OW87732   2.315   9.274   9.882
61967SOL    HW187733   2.263   9.194   9.893
61967SOL    HW287734   2.292   9.329   9.957
61968SOL     OW87735   6.871  10.985   8.999
61968SOL    HW187736   6.812  10.939   9.059
61968SOL    HW287737   6.957  10.978   9.040
61969SOL     OW87738   2.216   9.139  14.574
61969SOL    HW187739   2.146   9.121  14.512
61969SOL    HW287740   2.279   9.068  14.560
61970SOL     OW87741   0.866   5.624  13.647
61970SOL    HW187742   0.960   5.613  13.656
61970SOL    HW287743   0.845   5.590  13.560
61971SOL     OW87744   0.369   8.757   5.788
61971SOL    HW187745   0.311   8.712   5.850
61971SOL    HW287746   0.448   8.702   5.785
61972SOL     OW87747  10.216   1.940   4.381
61972SOL    HW187748  10.246   1.911   4.467
61972SOL    HW287749  10.269   2.017   4.362
61973SOL     OW87750   1.393   3.686   5.125
61973SOL    HW187751   1.485   3.661   5.128
61973SOL    HW287752   1.390   3.763   5.069
61974SOL     OW87753   1.163   9.793   3.743
61974SOL    HW187754   1.079   9.750   3.733
61974SOL    HW287755   1.170   9.810   3.837
61975SOL     OW87756   6.166  11.322   9.336
61975SOL    HW187757   6.248  11.371   9.330
61975SOL    HW287758   6.101  11.387   9.364
61976SOL     OW87759   2.070  10.146   0.619
61976SOL    HW187760   2.072  10.098   0.702
61976SOL    HW287761   1.993  10.113   0.573
61977SOL     OW87762   7.187   9.192   4.167
61977SOL    HW187763   7.213   9.255   4.235
61977SOL    HW287764   7.099   9.219   4.142
61978SOL     OW87765  10.580  10.504   8.148
61978SOL    HW187766  10.655  10.546   8.106
61978SOL    HW287767  10.549  10.568   8.212
61979SOL     OW87768   1.723   2.683  14.182
61979SOL    HW187769   1.762   2.597  14.196
61979SOL    HW287770   1.685   2.706  14.267
61980SOL     OW87771  10.430  11.645  14.555
61980SOL    HW187772  10.341  11.654  14.520
61980SOL    HW287773  10.472  11.729  14.534
61981SOL     OW87774  14.468  12.297   0.756
61981SOL    HW187775  14.418  12.337   0.827
61981SOL    HW287776  14.546  12.352   0.748
61982SOL     OW87777   0.990   6.865   0.211
61982SOL    HW187778   1.075   6.821   0.206
61982SOL    HW287779   0.981   6.908   0.126
61983SOL     OW87780   6.257   0.118   2.979
61983SOL    HW187781   6.264   0.032   3.021
61983SOL    HW287782   6.284   0.180   3.047
61984SOL     OW87783  12.620  13.780   6.923
61984SOL    HW187784  12.568  13.856   6.899
61984SOL    HW287785  12.559  13.723   6.970
61985SOL     OW87786   3.761  11.799   1.219
61985SOL    HW187787   3.756  11.711   1.256
61985SOL    HW287788   3.698  11.799   1.148
61986SOL     OW87789  11.609   3.262  10.689
61986SOL    HW187790  11.572   3.176  10.669
61986SOL    HW287791  11.540   3.307  10.736
61987SOL     OW87792   2.049   9.589  11.969
61987SOL    HW187793   1.999   9.629  11.897
61987SOL    HW287794   2.124   9.647  11.980
61988SOL     OW87795   6.465  13.775  10.640
61988SOL    HW187796   6.439  13.844  10.579
61988SOL    HW287797   6.399  13.779  10.709
61989SOL     OW87798   8.950   7.875   5.290
61989SOL    HW187799   8.898   7.903   5.365
61989SOL    HW287800   8.967   7.956   5.241
61990SOL     OW87801   1.718   4.486  10.605
61990SOL    HW187802   1.673   4.569  10.595
61990SOL    HW287803   1.693   4.435  10.528
61991SOL     OW87804  13.710   4.812   6.683
61991SOL    HW187805  13.714   4.908   6.681
61991SOL    HW287806  13.743   4.785   6.597
61992SOL     OW87807   2.235   4.115   2.087
61992SOL    HW187808   2.245   4.210   2.086
61992SOL    HW287809   2.149   4.100   2.049
61993SOL     OW87810   6.788  11.132  10.495
61993SOL    HW187811   6.775  11.050  10.543
61993SOL    HW287812   6.715  11.135  10.434
61994SOL     OW87813   2.737  12.923   8.324
61994SOL    HW187814   2.815  12.908   8.377
61994SOL    HW287815   2.747  13.012   8.290
61995SOL     OW87816   6.027   3.592  11.292
61995SOL    HW187817   6.056   3.674  11.332
61995SOL    HW287818   5.969   3.553  11.358
61996SOL     OW87819   1.946   1.669  13.361
61996SOL    HW187820   1.964   1.743  13.303
61996SOL    HW287821   1.863   1.633  13.330
61997SOL     OW87822   0.877  12.016  13.074
61997SOL    HW187823   0.931  12.043  13.000
61997SOL    HW287824   0.901  12.077  13.144
61998SOL     OW87825  10.700  14.518   2.364
61998SOL    HW187826  10.739  14.439   2.325
61998SOL    HW287827  10.744  14.527   2.448
61999SOL     OW87828   6.686   4.542   9.294
61999SOL    HW187829   6.597   4.575   9.297
61999SOL    HW287830   6.713   4.535   9.386
62000SOL     OW87831  12.884   9.689   6.266
62000SOL    HW187832  12.957   9.714   6.323
62000SOL    HW287833  12.894   9.594   6.255
62001SOL     OW87834   7.898   5.233   9.326
62001SOL    HW187835   7.964   5.262   9.264
62001SOL    HW287836   7.898   5.300   9.394
62002SOL     OW87837   0.984   0.234   1.713
62002SOL    HW187838   0.911   0.271   1.662
62002SOL    HW287839   0.981   0.140   1.693
62003SOL     OW87840   3.590   0.391   8.492
62003SOL    HW187841   3.562   0.300   8.486
62003SOL    HW287842   3.655   0.391   8.563
62004SOL     OW87843  14.110  12.747   6.450
62004SOL    HW187844  14.106  12.816   6.516
62004SOL    HW287845  14.065  12.784   6.374
62005SOL     OW87846  12.757   0.515   7.290
62005SOL    HW187847  12.773   0.424   7.315
62005SOL    HW287848  12.835   0.562   7.319
62006SOL     OW87849  12.298   4.555  10.202
62006SOL    HW187850  12.274   4.501  10.278
62006SOL    HW287851  12.363   4.503  10.155
62007SOL     OW87852   5.916   7.240   2.799
62007SOL    HW187853   5.988   7.194   2.842
62007SOL    HW287854   5.921   7.329   2.833
62008SOL     OW87855  10.624  11.862   2.907
62008SOL    HW187856  10.681  11.921   2.957
62008SOL    HW287857  10.667  11.777   2.914
62009SOL     OW87858   4.799   8.467  14.140
62009SOL    HW187859   4.722   8.411  14.146
62009SOL    HW287860   4.864   8.413  14.094
62010SOL     OW87861  13.228   2.864   8.516
62010SOL    HW187862  13.269   2.851   8.601
62010SOL    HW287863  13.239   2.957   8.497
62011SOL     OW87864   7.365   2.793  11.486
62011SOL    HW187865   7.368   2.740  11.566
62011SOL    HW287866   7.339   2.880  11.516
62012SOL     OW87867  12.022   9.525  11.388
62012SOL    HW187868  11.978   9.609  11.377
62012SOL    HW287869  11.956   9.460  11.363
62013SOL     OW87870   8.125   9.656   8.998
62013SOL    HW187871   8.189   9.725   9.016
62013SOL    HW287872   8.177   9.576   8.990
62014SOL     OW87873   1.355   2.874   7.722
62014SOL    HW187874   1.311   2.798   7.685
62014SOL    HW287875   1.379   2.848   7.811
62015SOL     OW87876   4.766  12.967  13.648
62015SOL    HW187877   4.859  12.969  13.625
62015SOL    HW287878   4.764  12.922  13.733
62016SOL     OW87879   3.058   8.139  14.323
62016SOL    HW187880   3.091   8.132  14.233
62016SOL    HW287881   2.975   8.188  14.314
62017SOL     OW87882   1.883  13.157   7.086
62017SOL    HW187883   1.882  13.248   7.118
62017SOL    HW287884   1.803  13.150   7.034
62018SOL     OW87885   0.353  11.556   6.445
62018SOL    HW187886   0.260  11.539   6.428
62018SOL    HW287887   0.378  11.489   6.509
62019SOL     OW87888  12.434   6.679   1.899
62019SOL    HW187889  12.429   6.583   1.890
62019SOL    HW287890  12.527   6.698   1.901
62020SOL     OW87891   0.603  11.694   9.072
62020SOL    HW187892   0.575  11.783   9.092
62020SOL    HW287893   0.644  11.700   8.985
62021SOL     OW87894  14.622   6.436   0.599
62021SOL    HW187895  14.584   6.453   0.513
62021SOL    HW287896  14.548   6.439   0.659
62022SOL     OW87897   1.820   0.577   2.940
62022SOL    HW187898   1.728   0.554   2.930
62022SOL    HW287899   1.865   0.493   2.946
62023SOL     OW87900  13.670   3.957   3.176
62023SOL    HW187901  13.592   3.957   3.121
62023SOL    HW287902  13.649   4.018   3.247
62024SOL     OW87903  10.640  13.270  11.678
62024SOL    HW187904  10.562  13.265  11.624
62024SOL    HW287905  10.667  13.362  11.674
62025SOL     OW87906   2.234   8.998   0.039
62025SOL    HW187907   2.225   8.958  14.825
62025SOL    HW287908   2.198   9.086   0.029
62026SOL     OW87909  13.728   9.239   0.287
62026SOL    HW187910  13.771   9.323   0.305
62026SOL    HW287911  13.801   9.177   0.279
62027SOL     OW87912   4.292   4.404   4.731
62027SOL    HW187913   4.378   4.364   4.716
62027SOL    HW287914   4.299   4.491   4.692
62028SOL     OW87915   7.165   6.264   4.901
62028SOL    HW187916   7.203   6.344   4.864
62028SOL    HW287917   7.203   6.193   4.850
62029SOL     OW87918   0.106  14.799  11.296
62029SOL    HW187919   0.182  14.752  11.330
62029SOL    HW287920   0.051  14.816  11.372
62030SOL     OW87921  14.308   1.897  13.799
62030SOL    HW187922  14.349   1.917  13.883
62030SOL    HW287923  14.223   1.859  13.823
62031SOL     OW87924  13.029   1.051  14.009
62031SOL    HW187925  13.043   1.093  14.093
62031SOL    HW287926  13.088   1.097  13.949
62032SOL     OW87927   2.171   8.041   3.248
62032SOL    HW187928   2.199   8.041   3.157
62032SOL    HW287929   2.245   8.078   3.296
62033SOL     OW87930   7.434   9.182   3.972
62033SOL    HW187931   7.413   9.205   3.882
62033SOL    HW287932   7.365   9.121   3.997
62034SOL     OW87933   8.137   4.419   1.243
62034SOL    HW187934   8.130   4.334   1.286
62034SOL    HW287935   8.224   4.450   1.267
62035SOL     OW87936   6.360   0.177   4.718
62035SOL    HW187937   6.342   0.215   4.632
62035SOL    HW287938   6.280   0.193   4.769
62036SOL     OW87939  10.403  13.130  14.250
62036SOL    HW187940  10.311  13.134  14.276
62036SOL    HW287941  10.427  13.221  14.231
62037SOL     OW87942   9.126   1.942  12.530
62037SOL    HW187943   9.217   1.963  12.551
62037SOL    HW287944   9.129   1.854  12.494
62038SOL     OW87945  10.532  12.721   7.989
62038SOL    HW187946  10.590  12.794   8.008
62038SOL    HW287947  10.506  12.688   8.075
62039SOL     OW87948   5.917   8.251   1.017
62039SOL    HW187949   5.980   8.181   1.029
62039SOL    HW287950   5.919   8.269   0.923
62040SOL     OW87951  10.812   2.161   4.192
62040SOL    HW187952  10.847   2.124   4.111
62040SOL    HW287953  10.810   2.087   4.253
62041SOL     OW87954  11.176   6.352   0.192
62041SOL    HW187955  11.271   6.349   0.206
62041SOL    HW287956  11.163   6.420   0.127
62042SOL     OW87957   0.932   4.773  14.678
62042SOL    HW187958   1.009   4.734  14.718
62042SOL    HW287959   0.858   4.734  14.724
62043SOL     OW87960   4.418   4.364   5.392
62043SOL    HW187961   4.441   4.455   5.373
62043SOL    HW287962   4.327   4.356   5.366
62044SOL     OW87963   0.128  10.260  12.130
62044SOL    HW187964   0.215  10.276  12.093
62044SOL    HW287965   0.141  10.272  12.225
62045SOL     OW87966   8.257   6.051   7.415
62045SOL    HW187967   8.284   6.090   7.333
62045SOL    HW287968   8.285   5.959   7.410
62046SOL     OW87969  10.487   3.940   3.878
62046SOL    HW187970  10.439   3.995   3.941
62046SOL    HW287971  10.444   3.956   3.794
62047SOL     OW87972   3.730   2.188   5.749
62047SOL    HW187973   3.783   2.125   5.700
62047SOL    HW287974   3.679   2.134   5.810
62048SOL     OW87975   4.066   7.933   0.074
62048SOL    HW187976   4.039   8.016   0.113
62048SOL    HW287977   4.076   7.874   0.149
62049SOL     OW87978   7.594  11.720   9.956
62049SOL    HW187979   7.561  11.648  10.011
62049SOL    HW287980   7.652  11.677   9.894
62050SOL     OW87981   7.447   7.771   8.289
62050SOL    HW187982   7.357   7.760   8.259
62050SOL    HW287983   7.479   7.682   8.303
62051SOL     OW87984   5.479  10.009   3.623
62051SOL    HW187985   5.484   9.919   3.654
62051SOL    HW287986   5.411  10.008   3.556
62052SOL     OW87987  10.603   8.918   7.835
62052SOL    HW187988  10.611   8.946   7.743
62052SOL    HW287989  10.679   8.862   7.850
62053SOL     OW87990   0.515  12.677   2.641
62053SOL    HW187991   0.567  12.717   2.571
62053SOL    HW287992   0.431  12.722   2.638
62054SOL     OW87993  12.792  14.872   4.121
62054SOL    HW187994  12.719   0.041   4.167
62054SOL    HW287995  12.760  14.785   4.099
62055SOL     OW87996  12.087  12.136   9.737
62055SOL    HW187997  12.001  12.176   9.751
62055SOL    HW287998  12.150  12.207   9.754
62056SOL     OW87999   9.932   1.914   4.347
62056SOL    HW188000  10.027   1.929   4.339
62056SOL    HW288001   9.917   1.907   4.441
62057SOL     OW88002   0.778  14.035   7.625
62057SOL    HW188003   0.791  13.977   7.550
62057SOL    HW288004   0.728  13.983   7.688
62058SOL     OW88005  11.646   0.857   2.258
62058SOL    HW188006  11.643   0.803   2.338
62058SOL    HW288007  11.739   0.877   2.247
62059SOL     OW88008   1.824   7.902   2.753
62059SOL    HW188009   1.797   7.993   2.737
62059SOL    HW288010   1.892   7.910   2.820
62060SOL     OW88011   6.330  10.585   2.074
62060SOL    HW188012   6.394  10.527   2.032
62060SOL    HW288013   6.268  10.606   2.004
62061SOL     OW88014   1.783   1.399   0.099
62061SOL    HW188015   1.818   1.392   0.011
62061SOL    HW288016   1.786   1.309   0.134
62062SOL     OW88017   8.689  14.309  12.295
62062SOL    HW188018   8.652  14.376  12.353
62062SOL    HW288019   8.693  14.351  12.209
62063SOL     OW88020   2.479  13.628   2.375
62063SOL    HW188021   2.404  13.571   2.357
62063SOL    HW288022   2.457  13.710   2.330
62064SOL     OW88023   9.502  12.245  10.367
62064SOL    HW188024   9.587  12.203  10.380
62064SOL    HW288025   9.514  12.299  10.289
62065SOL     OW88026  11.753   2.525   7.663
62065SOL    HW188027  11.725   2.456   7.724
62065SOL    HW288028  11.823   2.484   7.612
62066SOL     OW88029   4.633   0.745  11.225
62066SOL    HW188030   4.724   0.762  11.250
62066SOL    HW288031   4.638   0.720  11.133
62067SOL     OW88032   9.759  14.583  14.729
62067SOL    HW188033   9.735  14.594  14.637
62067SOL    HW288034   9.759  14.488  14.743
62068SOL     OW88035   9.892  12.931   2.839
62068SOL    HW188036   9.931  12.974   2.763
62068SOL    HW288037   9.964  12.921   2.901
62069SOL     OW88038   3.205   6.194   4.438
62069SOL    HW188039   3.284   6.149   4.410
62069SOL    HW288040   3.133   6.139   4.405
62070SOL     OW88041   8.204   4.242   0.280
62070SOL    HW188042   8.285   4.243   0.230
62070SOL    HW288043   8.232   4.255   0.371
62071SOL     OW88044   3.657  13.403   1.659
62071SOL    HW188045   3.603  13.474   1.626
62071SOL    HW288046   3.718  13.444   1.720
62072SOL     OW88047   6.638   0.942   1.068
62072SOL    HW188048   6.574   0.968   1.003
62072SOL    HW288049   6.635   1.012   1.134
62073SOL     OW88050  12.049  13.561   8.869
62073SOL    HW188051  12.131  13.573   8.917
62073SOL    HW288052  12.046  13.467   8.851
62074SOL     OW88053   0.753   7.340   6.181
62074SOL    HW188054   0.824   7.322   6.120
62074SOL    HW288055   0.723   7.428   6.159
62075SOL     OW88056   6.381  14.578  10.562
62075SOL    HW188057   6.306  14.597  10.505
62075SOL    HW288058   6.374  14.642  10.632
62076SOL     OW88059   8.914   5.991  13.091
62076SOL    HW188060   8.901   5.940  13.011
62076SOL    HW288061   8.998   5.960  13.126
62077SOL     OW88062  13.865  10.477   4.890
62077SOL    HW188063  13.771  10.460   4.893
62077SOL    HW288064  13.894  10.469   4.981
62078SOL     OW88065   3.444   5.678   4.880
62078SOL    HW188066   3.425   5.740   4.811
62078SOL    HW288067   3.447   5.730   4.960
62079SOL     OW88068  13.597  14.308   7.016
62079SOL    HW188069  13.586  14.215   7.033
62079SOL    HW288070  13.550  14.352   7.087
62080SOL     OW88071   3.404  11.459   5.449
62080SOL    HW188072   3.417  11.373   5.410
62080SOL    HW288073   3.348  11.506   5.387
62081SOL     OW88074   5.998   7.614   2.426
62081SOL    HW188075   6.034   7.546   2.483
62081SOL    HW288076   6.006   7.578   2.338
62082SOL     OW88077   2.644   7.969   5.647
62082SOL    HW188078   2.568   7.914   5.628
62082SOL    HW288079   2.662   7.954   5.740
62083SOL     OW88080  10.228  14.231   0.052
62083SOL    HW188081  10.173  14.198  14.853
62083SOL    HW288082  10.170  14.288   0.103
62084SOL     OW88083   2.305   8.062   6.769
62084SOL    HW188084   2.346   7.985   6.730
62084SOL    HW288085   2.316   8.050   6.863
62085SOL     OW88086   9.853   5.670   6.418
62085SOL    HW188087   9.888   5.616   6.348
62085SOL    HW288088   9.904   5.751   6.415
62086SOL     OW88089  10.755   0.939  14.069
62086SOL    HW188090  10.844   0.939  14.034
62086SOL    HW288091  10.716   1.019  14.033
62087SOL     OW88092   4.075   7.998   4.847
62087SOL    HW188093   4.144   8.017   4.911
62087SOL    HW288094   4.118   7.941   4.783
62088SOL     OW88095   9.935   4.467   0.385
62088SOL    HW188096   9.863   4.404   0.384
62088SOL    HW288097   9.894   4.551   0.364
62089SOL     OW88098   7.501   7.700   5.485
62089SOL    HW188099   7.525   7.617   5.443
62089SOL    HW288100   7.474   7.675   5.573
62090SOL     OW88101   0.247   4.867   2.524
62090SOL    HW188102   0.342   4.856   2.527
62090SOL    HW288103   0.228   4.934   2.590
62091SOL     OW88104   6.731   1.249  14.202
62091SOL    HW188105   6.735   1.184  14.272
62091SOL    HW288106   6.815   1.239  14.156
62092SOL     OW88107  12.763   4.377  14.580
62092SOL    HW188108  12.824   4.441  14.543
62092SOL    HW288109  12.813   4.332  14.648
62093SOL     OW88110   2.933   2.089   3.461
62093SOL    HW188111   2.956   2.095   3.554
62093SOL    HW288112   2.988   2.018   3.427
62094SOL     OW88113  10.472  14.277  11.542
62094SOL    HW188114  10.418  14.200  11.558
62094SOL    HW288115  10.432  14.318  11.465
62095SOL     OW88116   6.847   7.138   5.636
62095SOL    HW188117   6.876   7.217   5.591
62095SOL    HW288118   6.850   7.160   5.729
62096SOL     OW88119  11.582   6.200  13.135
62096SOL    HW188120  11.608   6.282  13.091
62096SOL    HW288121  11.585   6.221  13.228
62097SOL     OW88122   4.346   4.495  10.439
62097SOL    HW188123   4.258   4.478  10.472
62097SOL    HW288124   4.399   4.507  10.517
62098SOL     OW88125   6.805  10.688   9.611
62098SOL    HW188126   6.830  10.607   9.656
62098SOL    HW288127   6.870  10.698   9.542
62099SOL     OW88128   4.240  11.466   8.087
62099SOL    HW188129   4.203  11.377   8.087
62099SOL    HW288130   4.312  11.462   8.150
62100SOL     OW88131  14.556   2.065   2.569
62100SOL    HW188132  14.563   2.051   2.474
62100SOL    HW288133  14.624   2.130   2.589
62101SOL     OW88134  12.355   0.797  12.606
62101SOL    HW188135  12.423   0.756  12.660
62101SOL    HW288136  12.397   0.815  12.522
62102SOL     OW88137   8.480  10.902   5.298
62102SOL    HW188138   8.526  10.860   5.371
62102SOL    HW288139   8.429  10.831   5.258
62103SOL     OW88140   3.163   2.158   3.668
62103SOL    HW188141   3.127   2.176   3.755
62103SOL    HW288142   3.232   2.095   3.684
62104SOL     OW88143   8.473  10.863   4.086
62104SOL    HW188144   8.502  10.849   4.176
62104SOL    HW288145   8.549  10.843   4.032
62105SOL     OW88146  11.151   0.847   9.240
62105SOL    HW188147  11.188   0.931   9.210
62105SOL    HW288148  11.074   0.834   9.184
62106SOL     OW88149  12.143   9.320   9.544
62106SOL    HW188150  12.203   9.352   9.476
62106SOL    HW288151  12.056   9.341   9.510
62107SOL     OW88152   3.183   9.091  10.566
62107SOL    HW188153   3.185   9.187  10.576
62107SOL    HW288154   3.121   9.076  10.494
62108SOL     OW88155   0.204  12.143   5.062
62108SOL    HW188156   0.136  12.076   5.063
62108SOL    HW288157   0.180  12.202   4.990
62109SOL     OW88158   7.590   4.253  11.958
62109SOL    HW188159   7.497   4.277  11.960
62109SOL    HW288160   7.624   4.293  11.878
62110SOL     OW88161  10.148   3.530  11.393
62110SOL    HW188162  10.114   3.611  11.433
62110SOL    HW288163  10.196   3.560  11.316
62111SOL     OW88164   1.254   1.359  13.919
62111SOL    HW188165   1.263   1.441  13.871
62111SOL    HW288166   1.234   1.293  13.853
62112SOL     OW88167   2.974   5.943   7.743
62112SOL    HW188168   3.045   5.937   7.679
62112SOL    HW288169   3.005   6.006   7.808
62113SOL     OW88170   5.920  13.254  12.981
62113SOL    HW188171   5.893  13.341  13.012
62113SOL    HW288172   5.870  13.193  13.034
62114SOL     OW88173   6.674  14.505   7.803
62114SOL    HW188174   6.682  14.598   7.826
62114SOL    HW288175   6.690  14.503   7.708
62115SOL     OW88176   6.332   5.832   2.482
62115SOL    HW188177   6.296   5.903   2.429
62115SOL    HW288178   6.398   5.791   2.426
62116SOL     OW88179   1.739   3.262  11.419
62116SOL    HW188180   1.823   3.255  11.463
62116SOL    HW288181   1.685   3.316  11.477
62117SOL     OW88182   5.575   4.077   2.959
62117SOL    HW188183   5.600   4.076   2.867
62117SOL    HW288184   5.588   3.987   2.989
62118SOL     OW88185   8.654   8.212   0.090
62118SOL    HW188186   8.631   8.298   0.055
62118SOL    HW288187   8.659   8.156   0.013
62119SOL     OW88188   1.951   5.699   1.779
62119SOL    HW188189   1.988   5.727   1.695
62119SOL    HW288190   1.858   5.723   1.773
62120SOL     OW88191   4.422   4.504   8.030
62120SOL    HW188192   4.458   4.501   7.941
62120SOL    HW288193   4.455   4.425   8.072
62121SOL     OW88194   1.432   4.144   6.395
62121SOL    HW188195   1.402   4.146   6.304
62121SOL    HW288196   1.441   4.051   6.415
62122SOL     OW88197   2.827   4.206   1.348
62122SOL    HW188198   2.740   4.185   1.315
62122SOL    HW288199   2.853   4.129   1.399
62123SOL     OW88200   8.845  10.884   9.633
62123SOL    HW188201   8.912  10.942   9.670
62123SOL    HW288202   8.861  10.800   9.675
62124SOL     OW88203   1.397   7.139   0.655
62124SOL    HW188204   1.403   7.178   0.742
62124SOL    HW288205   1.338   7.197   0.607
62125SOL     OW88206  12.873  13.941   4.228
62125SOL    HW188207  12.836  13.928   4.316
62125SOL    HW288208  12.799  13.931   4.169
62126SOL     OW88209   7.459  14.478  13.653
62126SOL    HW188210   7.454  14.463  13.558
62126SOL    HW288211   7.551  14.498  13.670
62127SOL     OW88212   6.394   1.366   8.560
62127SOL    HW188213   6.321   1.338   8.616
62127SOL    HW288214   6.357   1.439   8.509
62128SOL     OW88215  10.332   7.429  10.946
62128SOL    HW188216  10.366   7.414  10.858
62128SOL    HW288217  10.295   7.345  10.971
62129SOL     OW88218  14.346  12.355   8.826
62129SOL    HW188219  14.314  12.423   8.767
62129SOL    HW288220  14.430  12.328   8.787
62130SOL     OW88221   2.072   3.487  14.577
62130SOL    HW188222   2.005   3.419  14.586
62130SOL    HW288223   2.155   3.440  14.588
62131SOL     OW88224   1.974  14.289   6.949
62131SOL    HW188225   2.000  14.198   6.940
62131SOL    HW288226   1.990  14.311   7.041
62132SOL     OW88227   1.252   7.551   6.450
62132SOL    HW188228   1.179   7.541   6.389
62132SOL    HW288229   1.269   7.645   6.452
62133SOL     OW88230   3.207  14.755   0.044
62133SOL    HW188231   3.180  14.718   0.128
62133SOL    HW288232   3.227  14.679  14.862
62134SOL     OW88233   4.691   7.403  11.286
62134SOL    HW188234   4.666   7.445  11.203
62134SOL    HW288235   4.623   7.336  11.299
62135SOL     OW88236   7.512  11.696   0.147
62135SOL    HW188237   7.579  11.763   0.131
62135SOL    HW288238   7.430  11.744   0.149
62136SOL     OW88239   7.115  11.433   5.251
62136SOL    HW188240   7.144  11.463   5.338
62136SOL    HW288241   7.020  11.424   5.260
62137SOL     OW88242   1.419   8.416   6.195
62137SOL    HW188243   1.478   8.480   6.235
62137SOL    HW288244   1.374   8.376   6.269
62138SOL     OW88245  11.732  13.643   9.218
62138SOL    HW188246  11.721  13.576   9.151
62138SOL    HW288247  11.826  13.648   9.233
62139SOL     OW88248   7.803   2.953   9.533
62139SOL    HW188249   7.814   3.030   9.588
62139SOL    HW288250   7.836   2.979   9.448
62140SOL     OW88251   8.943   4.658  13.379
62140SOL    HW188252   8.855   4.638  13.348
62140SOL    HW288253   8.935   4.746  13.417
62141SOL     OW88254  11.194   1.833  10.982
62141SOL    HW188255  11.186   1.903  10.917
62141SOL    HW288256  11.107   1.795  10.988
62142SOL     OW88257  10.539  10.927   9.902
62142SOL    HW188258  10.527  10.836   9.928
62142SOL    HW288259  10.487  10.937   9.822
62143SOL     OW88260   2.580  10.491   2.304
62143SOL    HW188261   2.658  10.524   2.349
62143SOL    HW288262   2.573  10.400   2.332
62144SOL     OW88263   3.814   0.307   6.245
62144SOL    HW188264   3.730   0.343   6.272
62144SOL    HW288265   3.804   0.212   6.257
62145SOL     OW88266  13.115  10.915   8.528
62145SOL    HW188267  13.059  10.984   8.492
62145SOL    HW288268  13.197  10.960   8.549
62146SOL     OW88269   8.836  11.842   1.628
62146SOL    HW188270   8.930  11.849   1.611
62146SOL    HW288271   8.795  11.895   1.559
62147SOL     OW88272   9.696   5.276  12.444
62147SOL    HW188273   9.600   5.274  12.444
62147SOL    HW288274   9.721   5.209  12.379
62148SOL     OW88275   3.471  12.110   9.132
62148SOL    HW188276   3.420  12.055   9.191
62148SOL    HW288277   3.452  12.075   9.045
62149SOL     OW88278   4.505   9.987   9.830
62149SOL    HW188279   4.584  10.031   9.862
62149SOL    HW288280   4.537   9.906   9.791
62150SOL     OW88281   3.218   8.547   2.085
62150SOL    HW188282   3.304   8.524   2.052
62150SOL    HW288283   3.201   8.635   2.052
62151SOL     OW88284   2.960  12.965  10.028
62151SOL    HW188285   2.978  12.884   9.980
62151SOL    HW288286   2.929  13.026   9.962
62152SOL     OW88287   4.751   7.527   3.854
62152SOL    HW188288   4.826   7.467   3.850
62152SOL    HW288289   4.679   7.478   3.816
62153SOL     OW88290   1.425  11.744   1.265
62153SOL    HW188291   1.450  11.652   1.251
62153SOL    HW288292   1.348  11.740   1.322
62154SOL     OW88293   8.900  10.552   7.722
62154SOL    HW188294   8.929  10.607   7.649
62154SOL    HW288295   8.854  10.479   7.680
62155SOL     OW88296   0.131  12.556   0.670
62155SOL    HW188297   0.104  12.517   0.587
62155SOL    HW288298   0.180  12.486   0.714
62156SOL     OW88299   9.082   2.839   7.558
62156SOL    HW188300   9.029   2.877   7.488
62156SOL    HW288301   9.121   2.915   7.602
62157SOL     OW88302   8.680   7.961  14.234
62157SOL    HW188303   8.683   8.054  14.257
62157SOL    HW288304   8.752   7.950  14.171
62158SOL     OW88305   1.939   8.240   7.136
62158SOL    HW188306   2.007   8.232   7.203
62158SOL    HW288307   1.958   8.170   7.073
62159SOL     OW88308  10.884   6.175   6.653
62159SOL    HW188309  10.878   6.096   6.707
62159SOL    HW288310  10.965   6.218   6.683
62160SOL     OW88311   2.779   4.864   7.171
62160SOL    HW188312   2.719   4.904   7.234
62160SOL    HW288313   2.723   4.834   7.100
62161SOL     OW88314   2.067   3.612   8.983
62161SOL    HW188315   2.014   3.691   8.980
62161SOL    HW288316   2.155   3.641   8.960
62162SOL     OW88317   0.956   3.256   5.271
62162SOL    HW188318   0.969   3.270   5.177
62162SOL    HW288319   1.028   3.306   5.312
62163SOL     OW88320   2.111   8.814  14.656
62163SOL    HW188321   2.159   8.881  14.608
62163SOL    HW288322   2.074   8.758  14.588
62164SOL     OW88323  10.567  11.418   6.220
62164SOL    HW188324  10.608  11.332   6.216
62164SOL    HW288325  10.475  11.399   6.238
62165SOL     OW88326  13.475   0.538   5.448
62165SOL    HW188327  13.536   0.514   5.378
62165SOL    HW288328  13.445   0.626   5.425
62166SOL     OW88329   1.711   0.908   7.436
62166SOL    HW188330   1.700   1.003   7.436
62166SOL    HW288331   1.640   0.876   7.491
62167SOL     OW88332  14.465   4.901   1.100
62167SOL    HW188333  14.496   4.987   1.070
62167SOL    HW288334  14.522   4.839   1.055
62168SOL     OW88335   6.283   9.749  13.930
62168SOL    HW188336   6.282   9.699  14.012
62168SOL    HW288337   6.326   9.690  13.867
62169SOL     OW88338   1.839   9.669   9.167
62169SOL    HW188339   1.859   9.675   9.073
62169SOL    HW288340   1.892   9.596   9.198
62170SOL     OW88341  11.526   2.593  11.246
62170SOL    HW188342  11.551   2.684  11.259
62170SOL    HW288343  11.597   2.543  11.286
62171SOL     OW88344   8.180   2.376   0.629
62171SOL    HW188345   8.276   2.382   0.634
62171SOL    HW288346   8.163   2.302   0.571
62172SOL     OW88347   4.420  13.557   1.804
62172SOL    HW188348   4.360  13.596   1.740
62172SOL    HW288349   4.441  13.629   1.864
62173SOL     OW88350   3.468  11.907   6.301
62173SOL    HW188351   3.439  11.864   6.381
62173SOL    HW288352   3.561  11.924   6.315
62174SOL     OW88353  14.005  14.212   4.322
62174SOL    HW188354  14.089  14.239   4.285
62174SOL    HW288355  14.028  14.173   4.406
62175SOL     OW88356   0.097  10.235   9.827
62175SOL    HW188357   0.146  10.155   9.811
62175SOL    HW288358   0.042  10.216   9.903
62176SOL     OW88359   0.180  11.106   5.135
62176SOL    HW188360   0.156  11.054   5.059
62176SOL    HW288361   0.242  11.052   5.184
62177SOL     OW88362  11.768   6.331   0.043
62177SOL    HW188363  11.841   6.379   0.081
62177SOL    HW288364  11.767   6.357  14.823
62178SOL     OW88365   6.647   6.661   8.455
62178SOL    HW188366   6.619   6.713   8.530
62178SOL    HW288367   6.691   6.585   8.493
62179SOL     OW88368   1.612   4.702   0.684
62179SOL    HW188369   1.677   4.772   0.677
62179SOL    HW288370   1.601   4.670   0.594
62180SOL     OW88371   1.270   5.738   5.215
62180SOL    HW188372   1.305   5.690   5.290
62180SOL    HW288373   1.248   5.825   5.249
62181SOL     OW88374   3.647  14.366   6.822
62181SOL    HW188375   3.576  14.385   6.883
62181SOL    HW288376   3.606  14.316   6.752
62182SOL     OW88377  14.528   4.560   4.105
62182SOL    HW188378  14.456   4.550   4.167
62182SOL    HW288379  14.546   4.471   4.075
62183SOL     OW88380   3.796  10.024  12.586
62183SOL    HW188381   3.742  10.056  12.513
62183SOL    HW288382   3.806   9.930  12.569
62184SOL     OW88383   6.797   7.739  10.389
62184SOL    HW188384   6.873   7.716  10.443
62184SOL    HW288385   6.835   7.782  10.312
62185SOL     OW88386   1.808  10.379   0.137
62185SOL    HW188387   1.790  10.414   0.224
62185SOL    HW288388   1.888  10.423   0.109
62186SOL     OW88389   3.723   6.263  13.354
62186SOL    HW188390   3.712   6.206  13.277
62186SOL    HW288391   3.634   6.292  13.375
62187SOL     OW88392   6.484   1.183   0.542
62187SOL    HW188393   6.412   1.219   0.593
62187SOL    HW288394   6.562   1.227   0.577
62188SOL     OW88395   2.619   5.567   5.823
62188SOL    HW188396   2.529   5.554   5.792
62188SOL    HW288397   2.634   5.495   5.885
62189SOL     OW88398  10.408  14.449   5.543
62189SOL    HW188399  10.494  14.433   5.503
62189SOL    HW288400  10.396  14.377   5.605
62190SOL     OW88401  10.261  13.625  11.203
62190SOL    HW188402  10.305  13.680  11.139
62190SOL    HW288403  10.303  13.647  11.287
62191SOL     OW88404   8.930   2.679  14.454
62191SOL    HW188405   9.012   2.629  14.459
62191SOL    HW288406   8.877   2.645  14.526
62192SOL     OW88407  13.750   7.979   3.226
62192SOL    HW188408  13.668   7.994   3.179
62192SOL    HW288409  13.819   7.997   3.161
62193SOL     OW88410  13.913  14.769   9.182
62193SOL    HW188411  13.883  14.756   9.272
62193SOL    HW288412  13.933  14.681   9.150
62194SOL     OW88413  14.649   7.604   0.392
62194SOL    HW188414  14.610   7.517   0.400
62194SOL    HW288415  14.669   7.614   0.299
62195SOL     OW88416   6.211   0.190  13.414
62195SOL    HW188417   6.281   0.245  13.450
62195SOL    HW288418   6.131   0.240  13.429
62196SOL     OW88419   0.770   9.106   8.728
62196SOL    HW188420   0.699   9.153   8.772
62196SOL    HW288421   0.728   9.064   8.653
62197SOL     OW88422   4.697   2.091  12.203
62197SOL    HW188423   4.782   2.097  12.159
62197SOL    HW288424   4.696   2.003  12.241
62198SOL     OW88425  12.288  14.113   1.455
62198SOL    HW188426  12.209  14.092   1.405
62198SOL    HW288427  12.260  14.108   1.546
62199SOL     OW88428   5.303   4.158  12.267
62199SOL    HW188429   5.217   4.200  12.269
62199SOL    HW288430   5.316   4.124  12.356
62200SOL     OW88431  12.703   9.525   0.360
62200SOL    HW188432  12.707   9.436   0.326
62200SOL    HW288433  12.771   9.529   0.427
62201SOL     OW88434   3.559   5.984   1.060
62201SOL    HW188435   3.559   5.979   1.156
62201SOL    HW288436   3.487   6.044   1.039
62202SOL     OW88437   3.768   8.715   4.666
62202SOL    HW188438   3.746   8.709   4.573
62202SOL    HW288439   3.734   8.800   4.693
62203SOL     OW88440   3.760  10.306   6.633
62203SOL    HW188441   3.793  10.334   6.548
62203SOL    HW288442   3.666  10.296   6.620
62204SOL     OW88443  10.256   2.096  12.392
62204SOL    HW188444  10.261   2.132  12.480
62204SOL    HW288445  10.178   2.042  12.392
62205SOL     OW88446   5.548   2.860  14.719
62205SOL    HW188447   5.623   2.873  14.661
62205SOL    HW288448   5.500   2.943  14.714
62206SOL     OW88449  13.376  11.657   0.838
62206SOL    HW188450  13.378  11.677   0.932
62206SOL    HW288451  13.468  11.658   0.811
62207SOL     OW88452  10.440   0.021   9.574
62207SOL    HW188453  10.400   0.077   9.507
62207SOL    HW288454  10.368  14.867   9.630
62208SOL     OW88455   1.292   9.602   4.115
62208SOL    HW188456   1.231   9.554   4.059
62208SOL    HW288457   1.379   9.569   4.090
62209SOL     OW88458  10.325  14.353   9.042
62209SOL    HW188459  10.263  14.298   9.091
62209SOL    HW288460  10.321  14.320   8.953
62210SOL     OW88461  12.606   0.120   0.716
62210SOL    HW188462  12.666   0.190   0.690
62210SOL    HW288463  12.662   0.048   0.742
62211SOL     OW88464   1.770   9.814   8.346
62211SOL    HW188465   1.742   9.760   8.421
62211SOL    HW288466   1.707   9.794   8.277
62212SOL     OW88467   4.386  12.896  11.155
62212SOL    HW188468   4.395  12.828  11.088
62212SOL    HW288469   4.472  12.900  11.197
62213SOL     OW88470  14.011  12.968   1.277
62213SOL    HW188471  14.012  12.972   1.372
62213SOL    HW288472  13.983  13.055   1.249
62214SOL     OW88473   7.312   4.924  11.578
62214SOL    HW188474   7.303   4.902  11.671
62214SOL    HW288475   7.337   5.016  11.577
62215SOL     OW88476  10.707  12.464  11.235
62215SOL    HW188477  10.754  12.494  11.157
62215SOL    HW288478  10.737  12.522  11.305
62216SOL     OW88479  10.278   9.871  12.869
62216SOL    HW188480  10.363   9.873  12.826
62216SOL    HW288481  10.280   9.791  12.922
62217SOL     OW88482   9.776   1.067  12.289
62217SOL    HW188483   9.787   1.059  12.194
62217SOL    HW288484   9.776   1.161  12.306
62218SOL     OW88485   0.253   5.594   0.670
62218SOL    HW188486   0.273   5.667   0.729
62218SOL    HW288487   0.159   5.600   0.655
62219SOL     OW88488   3.260  14.148   4.499
62219SOL    HW188489   3.239  14.226   4.448
62219SOL    HW288490   3.255  14.076   4.435
62220SOL     OW88491  12.067  12.903   4.435
62220SOL    HW188492  12.104  12.827   4.391
62220SOL    HW288493  12.016  12.947   4.367
62221SOL     OW88494   1.164  10.870   1.814
62221SOL    HW188495   1.181  10.962   1.793
62221SOL    HW288496   1.089  10.846   1.760
62222SOL     OW88497   5.592  10.530   0.298
62222SOL    HW188498   5.676  10.538   0.343
62222SOL    HW288499   5.604  10.580   0.217
62223SOL     OW88500  11.166   1.686  11.882
62223SOL    HW188501  11.187   1.675  11.975
62223SOL    HW288502  11.076   1.717  11.882
62224SOL     OW88503  13.382  10.604   5.087
62224SOL    HW188504  13.300  10.571   5.050
62224SOL    HW288505  13.414  10.533   5.142
62225SOL     OW88506  13.544   3.611   4.574
62225SOL    HW188507  13.567   3.519   4.585
62225SOL    HW288508  13.554   3.628   4.481
62226SOL     OW88509   2.435   4.735  10.757
62226SOL    HW188510   2.440   4.754  10.663
62226SOL    HW288511   2.378   4.658  10.763
62227SOL     OW88512   7.652   0.784   0.592
62227SOL    HW188513   7.705   0.715   0.552
62227SOL    HW288514   7.657   0.765   0.686
62228SOL     OW88515   1.848   6.163  12.671
62228SOL    HW188516   1.869   6.071  12.658
62228SOL    HW288517   1.796   6.164  12.751
62229SOL     OW88518   2.686   4.765   3.553
62229SOL    HW188519   2.633   4.709   3.610
62229SOL    HW288520   2.727   4.704   3.492
62230SOL     OW88521   5.018   5.192   6.179
62230SOL    HW188522   5.086   5.248   6.217
62230SOL    HW288523   5.067   5.129   6.126
62231SOL     OW88524  12.108   3.460  13.381
62231SOL    HW188525  12.030   3.503  13.347
62231SOL    HW288526  12.086   3.434  13.470
62232SOL     OW88527  11.523   8.918  13.118
62232SOL    HW188528  11.562   8.889  13.035
62232SOL    HW288529  11.595   8.911  13.181
62233SOL     OW88530   3.200   4.382  10.837
62233SOL    HW188531   3.274   4.416  10.787
62233SOL    HW288532   3.153   4.459  10.866
62234SOL     OW88533   6.952   3.532  12.643
62234SOL    HW188534   6.923   3.441  12.646
62234SOL    HW288535   6.914   3.567  12.562
62235SOL     OW88536   7.680   5.476  10.065
62235SOL    HW188537   7.646   5.387  10.076
62235SOL    HW288538   7.767   5.464  10.029
62236SOL     OW88539   0.439   8.237  12.458
62236SOL    HW188540   0.494   8.241  12.536
62236SOL    HW288541   0.405   8.147  12.457
62237SOL     OW88542   8.063   4.899   6.104
62237SOL    HW188543   8.097   4.817   6.141
62237SOL    HW288544   8.115   4.967   6.147
62238SOL     OW88545  12.822   6.026  10.866
62238SOL    HW188546  12.899   6.034  10.922
62238SOL    HW288547  12.815   5.932  10.848
62239SOL     OW88548   0.178   3.000   0.509
62239SOL    HW188549   0.243   3.070   0.513
62239SOL    HW288550   0.114   3.023   0.577
62240SOL     OW88551  12.606   2.877  14.005
62240SOL    HW188552  12.577   2.951  14.058
62240SOL    HW288553  12.527   2.827  13.987
62241SOL     OW88554   8.204  10.255   9.150
62241SOL    HW188555   8.297  10.240   9.134
62241SOL    HW288556   8.175  10.178   9.198
62242SOL     OW88557  12.016   0.841   4.403
62242SOL    HW188558  12.090   0.901   4.395
62242SOL    HW288559  11.943   0.896   4.433
62243SOL     OW88560  13.295   3.276   7.659
62243SOL    HW188561  13.319   3.297   7.750
62243SOL    HW288562  13.359   3.210   7.633
62244SOL     OW88563   0.205  13.555  10.034
62244SOL    HW188564   0.188  13.535   9.942
62244SOL    HW288565   0.136  13.510  10.083
62245SOL     OW88566   7.386   5.345  13.874
62245SOL    HW188567   7.410   5.358  13.782
62245SOL    HW288568   7.324   5.272  13.872
62246SOL     OW88569   7.550   5.288  13.136
62246SOL    HW188570   7.645   5.290  13.127
62246SOL    HW288571   7.525   5.198  13.114
62247SOL     OW88572   1.376  10.533   7.224
62247SOL    HW188573   1.363  10.488   7.140
62247SOL    HW288574   1.401  10.463   7.285
62248SOL     OW88575  14.158   9.897   7.804
62248SOL    HW188576  14.076   9.860   7.771
62248SOL    HW288577  14.134   9.940   7.886
62249SOL     OW88578   2.380   3.228   2.707
62249SOL    HW188579   2.338   3.164   2.650
62249SOL    HW288580   2.469   3.195   2.719
62250SOL     OW88581   3.434   9.768   7.208
62250SOL    HW188582   3.388   9.710   7.148
62250SOL    HW288583   3.524   9.736   7.209
62251SOL     OW88584   7.684   3.402  12.987
62251SOL    HW188585   7.692   3.311  12.960
62251SOL    HW288586   7.736   3.407  13.067
62252SOL     OW88587  11.126   5.141  12.624
62252SOL    HW188588  11.207   5.096  12.600
62252SOL    HW288589  11.155   5.219  12.671
62253SOL     OW88590  11.471   5.059   9.338
62253SOL    HW188591  11.505   5.105   9.261
62253SOL    HW288592  11.376   5.065   9.329
62254SOL     OW88593   4.917  11.812   6.615
62254SOL    HW188594   4.896  11.881   6.552
62254SOL    HW288595   4.835  11.763   6.625
62255SOL     OW88596   4.999  14.438   4.201
62255SOL    HW188597   4.942  14.363   4.217
62255SOL    HW288598   5.057  14.410   4.130
62256SOL     OW88599   8.832   5.836   0.512
62256SOL    HW188600   8.798   5.783   0.440
62256SOL    HW288601   8.826   5.926   0.481
62257SOL     OW88602  13.800  14.697   9.435
62257SOL    HW188603  13.733  14.664   9.374
62257SOL    HW288604  13.764  14.679   9.522
62258SOL     OW88605  12.344  14.689   5.862
62258SOL    HW188606  12.361  14.781   5.840
62258SOL    HW288607  12.306  14.692   5.950
62259SOL     OW88608   8.125  13.756   4.415
62259SOL    HW188609   8.157  13.744   4.325
62259SOL    HW288610   8.036  13.721   4.413
62260SOL     OW88611  13.516  12.912   9.834
62260SOL    HW188612  13.563  12.937   9.914
62260SOL    HW288613  13.480  12.826   9.853
62261SOL     OW88614   6.532  10.505   6.716
62261SOL    HW188615   6.460  10.545   6.765
62261SOL    HW288616   6.489  10.443   6.658
62262SOL     OW88617  11.104  11.823  12.471
62262SOL    HW188618  11.104  11.918  12.465
62262SOL    HW288619  11.091  11.793  12.381
62263SOL     OW88620   6.442   2.468   7.948
62263SOL    HW188621   6.444   2.465   7.852
62263SOL    HW288622   6.434   2.376   7.974
62264SOL     OW88623  10.152  13.570   1.497
62264SOL    HW188624  10.118  13.532   1.579
62264SOL    HW288625  10.183  13.657   1.521
62265SOL     OW88626  11.336  10.558   7.452
62265SOL    HW188627  11.402  10.498   7.489
62265SOL    HW288628  11.299  10.602   7.528
62266SOL     OW88629   7.671  11.522   5.019
62266SOL    HW188630   7.739  11.497   5.082
62266SOL    HW288631   7.602  11.457   5.031
62267SOL     OW88632   4.104  10.330   9.895
62267SOL    HW188633   4.011  10.327   9.874
62267SOL    HW288634   4.131  10.238   9.894
62268SOL     OW88635   6.251   3.560   7.381
62268SOL    HW188636   6.253   3.595   7.471
62268SOL    HW288637   6.158   3.562   7.357
62269SOL     OW88638   4.667   4.449  12.585
62269SOL    HW188639   4.600   4.461  12.653
62269SOL    HW288640   4.701   4.537  12.569
62270SOL     OW88641   3.394  13.089  10.137
62270SOL    HW188642   3.341  13.166  10.157
62270SOL    HW288643   3.333  13.016  10.136
62271SOL     OW88644   4.578   4.888   2.833
62271SOL    HW188645   4.485   4.866   2.826
62271SOL    HW288646   4.590   4.915   2.924
62272SOL     OW88647   2.915   0.022  14.537
62272SOL    HW188648   2.864  14.861  14.463
62272SOL    HW288649   3.006   0.001  14.516
62273SOL     OW88650  13.784  12.306  10.133
62273SOL    HW188651  13.710  12.295  10.192
62273SOL    HW288652  13.807  12.398  10.140
62274SOL     OW88653  10.836  14.050   6.880
62274SOL    HW188654  10.782  14.004   6.815
62274SOL    HW288655  10.924  14.014   6.868
62275SOL     OW88656   3.377  13.332   8.088
62275SOL    HW188657   3.457  13.384   8.080
62275SOL    HW288658   3.308  13.389   8.055
62276SOL     OW88659   9.159   4.555   4.130
62276SOL    HW188660   9.086   4.564   4.068
62276SOL    HW288661   9.193   4.643   4.141
62277SOL     OW88662   8.945  10.124   1.768
62277SOL    HW188663   8.979  10.068   1.697
62277SOL    HW288664   9.019  10.135   1.827
62278SOL     OW88665   7.285   2.924   2.272
62278SOL    HW188666   7.346   2.850   2.266
62278SOL    HW288667   7.337   3.000   2.249
62279SOL     OW88668   5.020   3.675  11.074
62279SOL    HW188669   5.055   3.762  11.056
62279SOL    HW288670   4.995   3.678  11.166
62280SOL     OW88671  14.205  10.084  12.689
62280SOL    HW188672  14.225  10.164  12.737
62280SOL    HW288673  14.265  10.018  12.725
62281SOL     OW88674   2.967   3.369  11.187
62281SOL    HW188675   2.957   3.442  11.126
62281SOL    HW288676   2.998   3.296  11.132
62282SOL     OW88677   8.691   3.451   9.027
62282SOL    HW188678   8.724   3.541   9.015
62282SOL    HW288679   8.642   3.455   9.109
62283SOL     OW88680  11.306   7.094  14.621
62283SOL    HW188681  11.369   7.047  14.675
62283SOL    HW288682  11.272   7.029  14.560
62284SOL     OW88683   7.927   6.078   3.947
62284SOL    HW188684   7.917   5.999   3.894
62284SOL    HW288685   7.995   6.056   4.011
62285SOL     OW88686  12.401   2.632  12.484
62285SOL    HW188687  12.392   2.686  12.405
62285SOL    HW288688  12.416   2.543  12.451
62286SOL     OW88689  14.345  10.977   2.928
62286SOL    HW188690  14.365  11.065   2.959
62286SOL    HW288691  14.386  10.971   2.842
62287SOL     OW88692  13.472   0.211  14.535
62287SOL    HW188693  13.406   0.155  14.575
62287SOL    HW288694  13.528   0.152  14.486
62288SOL     OW88695   7.692   7.698   0.528
62288SOL    HW188696   7.654   7.767   0.473
62288SOL    HW288697   7.639   7.699   0.607
62289SOL     OW88698   3.632  11.451  12.694
62289SOL    HW188699   3.630  11.401  12.612
62289SOL    HW288700   3.598  11.391  12.760
62290SOL     OW88701  13.999   0.998  13.468
62290SOL    HW188702  13.925   1.056  13.450
62290SOL    HW288703  13.959   0.921  13.509
62291SOL     OW88704   5.260   3.707   1.500
62291SOL    HW188705   5.280   3.732   1.590
62291SOL    HW288706   5.168   3.729   1.489
62292SOL     OW88707   2.674   9.122   2.761
62292SOL    HW188708   2.603   9.176   2.728
62292SOL    HW288709   2.632   9.057   2.818
62293SOL     OW88710  10.119   3.081   8.552
62293SOL    HW188711  10.210   3.107   8.539
62293SOL    HW288712  10.121   2.986   8.560
62294SOL     OW88713   4.056   5.579   4.057
62294SOL    HW188714   4.113   5.526   4.002
62294SOL    HW288715   4.115   5.640   4.102
62295SOL     OW88716   2.041  14.577  13.680
62295SOL    HW188717   2.015  14.621  13.599
62295SOL    HW288718   2.134  14.596  13.689
62296SOL     OW88719   7.354  12.428   5.143
62296SOL    HW188720   7.303  12.359   5.184
62296SOL    HW288721   7.332  12.423   5.051
62297SOL     OW88722   5.669  13.613   0.089
62297SOL    HW188723   5.744  13.582   0.141
62297SOL    HW288724   5.595  13.609   0.149
62298SOL     OW88725   2.057   6.494   8.894
62298SOL    HW188726   2.066   6.531   8.982
62298SOL    HW288727   2.003   6.417   8.906
62299SOL     OW88728   4.547   0.139  12.770
62299SOL    HW188729   4.528   0.153  12.677
62299SOL    HW288730   4.485   0.197  12.815
62300SOL     OW88731  10.207   2.608   2.406
62300SOL    HW188732  10.288   2.654   2.382
62300SOL    HW288733  10.137   2.662   2.370
62301SOL     OW88734  12.656   2.209  13.769
62301SOL    HW188735  12.578   2.159  13.745
62301SOL    HW288736  12.659   2.281  13.706
62302SOL     OW88737  13.510   9.178   7.120
62302SOL    HW188738  13.538   9.087   7.122
62302SOL    HW288739  13.588   9.227   7.093
62303SOL     OW88740   1.462   0.308   1.557
62303SOL    HW188741   1.400   0.332   1.626
62303SOL    HW288742   1.511   0.234   1.594
62304SOL     OW88743   0.766   1.065   9.023
62304SOL    HW188744   0.739   0.980   8.988
62304SOL    HW288745   0.833   1.096   8.962
62305SOL     OW88746  11.396   0.966  13.137
62305SOL    HW188747  11.465   0.907  13.107
62305SOL    HW288748  11.386   1.030  13.065
62306SOL     OW88749   9.936   5.192  12.116
62306SOL    HW188750  10.001   5.219  12.051
62306SOL    HW288751   9.860   5.248  12.098
62307SOL     OW88752  11.318   5.879   5.297
62307SOL    HW188753  11.296   5.919   5.213
62307SOL    HW288754  11.286   5.941   5.362
62308SOL     OW88755  14.285   3.868   6.103
62308SOL    HW188756  14.244   3.782   6.114
62308SOL    HW288757  14.294   3.903   6.191
62309SOL     OW88758   0.381   2.376   2.268
62309SOL    HW188759   0.368   2.412   2.356
62309SOL    HW288760   0.294   2.350   2.240
62310SOL     OW88761   1.247   2.135   7.006
62310SOL    HW188762   1.336   2.131   6.970
62310SOL    HW288763   1.193   2.092   6.939
62311SOL     OW88764   2.670   7.798   0.624
62311SOL    HW188765   2.610   7.817   0.696
62311SOL    HW288766   2.612   7.780   0.550
62312SOL     OW88767   4.751   0.337   3.722
62312SOL    HW188768   4.834   0.346   3.768
62312SOL    HW288769   4.707   0.422   3.733
62313SOL     OW88770  11.310   1.641   3.454
62313SOL    HW188771  11.385   1.680   3.499
62313SOL    HW288772  11.341   1.623   3.366
62314SOL     OW88773   9.117   3.470  14.132
62314SOL    HW188774   9.078   3.406  14.072
62314SOL    HW288775   9.104   3.432  14.219
62315SOL     OW88776   5.725  10.979   5.924
62315SOL    HW188777   5.689  11.067   5.931
62315SOL    HW288778   5.661  10.930   5.873
62316SOL     OW88779   0.386   8.516  11.351
62316SOL    HW188780   0.440   8.594  11.365
62316SOL    HW288781   0.343   8.502  11.435
62317SOL     OW88782   6.434   7.771  10.906
62317SOL    HW188783   6.485   7.828  10.848
62317SOL    HW288784   6.352   7.820  10.920
62318SOL     OW88785   4.793   3.954   0.485
62318SOL    HW188786   4.782   3.955   0.580
62318SOL    HW288787   4.884   3.927   0.471
62319SOL     OW88788  13.525  12.551   6.410
62319SOL    HW188789  13.469  12.621   6.377
62319SOL    HW288790  13.565  12.588   6.489
62320SOL     OW88791   3.927   2.035   7.716
62320SOL    HW188792   3.906   2.016   7.807
62320SOL    HW288793   3.890   2.122   7.700
62321SOL     OW88794   9.561  10.432   1.463
62321SOL    HW188795   9.585  10.509   1.514
62321SOL    HW288796   9.635  10.419   1.403
62322SOL     OW88797  12.976   3.563  12.160
62322SOL    HW188798  12.886   3.530  12.168
62322SOL    HW288799  12.986   3.622  12.234
62323SOL     OW88800  14.232   1.210   8.374
62323SOL    HW188801  14.264   1.139   8.317
62323SOL    HW288802  14.141   1.186   8.392
62324SOL     OW88803  12.160  10.516   7.684
62324SOL    HW188804  12.114  10.581   7.738
62324SOL    HW288805  12.180  10.563   7.603
62325SOL     OW88806   6.769  12.895   1.128
62325SOL    HW188807   6.755  12.810   1.086
62325SOL    HW288808   6.808  12.873   1.213
62326SOL     OW88809  14.393  12.128   8.659
62326SOL    HW188810  14.300  12.151   8.658
62326SOL    HW288811  14.434  12.187   8.597
62327SOL     OW88812   0.557  14.330   0.137
62327SOL    HW188813   0.580  14.251   0.087
62327SOL    HW288814   0.534  14.395   0.071
62328SOL     OW88815   4.272   7.372   7.142
62328SOL    HW188816   4.300   7.325   7.063
62328SOL    HW288817   4.286   7.310   7.213
62329SOL     OW88818   9.420   5.579  10.634
62329SOL    HW188819   9.494   5.622  10.591
62329SOL    HW288820   9.422   5.611  10.724
62330SOL     OW88821   7.856   1.524  10.696
62330SOL    HW188822   7.895   1.604  10.732
62330SOL    HW288823   7.847   1.466  10.772
62331SOL     OW88824   5.063  11.168   6.965
62331SOL    HW188825   5.126  11.105   7.001
62331SOL    HW288826   5.114  11.247   6.951
62332SOL     OW88827  11.458   6.653  14.512
62332SOL    HW188828  11.471   6.724  14.449
62332SOL    HW288829  11.369   6.621  14.493
62333SOL     OW88830   6.520   3.516   4.719
62333SOL    HW188831   6.451   3.556   4.771
62333SOL    HW288832   6.476   3.451   4.665
62334SOL     OW88833   8.765  14.485   1.627
62334SOL    HW188834   8.723  14.570   1.616
62334SOL    HW288835   8.693  14.424   1.644
62335SOL     OW88836  11.398   9.166   3.676
62335SOL    HW188837  11.337   9.178   3.603
62335SOL    HW288838  11.484   9.162   3.635
62336SOL     OW88839  10.264   0.268  10.706
62336SOL    HW188840  10.169   0.262  10.708
62336SOL    HW288841  10.293   0.187  10.665
62337SOL     OW88842   4.435   7.194   6.153
62337SOL    HW188843   4.467   7.114   6.196
62337SOL    HW288844   4.483   7.265   6.197
62338SOL     OW88845  11.365   0.438   2.141
62338SOL    HW188846  11.293   0.384   2.107
62338SOL    HW288847  11.324   0.492   2.209
62339SOL     OW88848   7.011   5.205   8.821
62339SOL    HW188849   7.029   5.266   8.892
62339SOL    HW288850   6.945   5.145   8.857
62340SOL     OW88851   6.393  14.066   4.529
62340SOL    HW188852   6.475  14.017   4.533
62340SOL    HW288853   6.336  14.014   4.472
62341SOL     OW88854   0.632  12.470  11.503
62341SOL    HW188855   0.616  12.552  11.456
62341SOL    HW288856   0.545  12.430  11.511
62342SOL     OW88857   8.922   5.105  14.571
62342SOL    HW188858   8.832   5.136  14.561
62342SOL    HW288859   8.964   5.125  14.488
62343SOL     OW88860  14.333  14.597  13.803
62343SOL    HW188861  14.320  14.538  13.877
62343SOL    HW288862  14.246  14.633  13.785
62344SOL     OW88863   6.722   0.666  13.158
62344SOL    HW188864   6.693   0.704  13.241
62344SOL    HW288865   6.800   0.615  13.182
62345SOL     OW88866   4.564   7.487   9.699
62345SOL    HW188867   4.607   7.548   9.640
62345SOL    HW288868   4.634   7.457   9.758
62346SOL     OW88869   5.776   3.325   1.116
62346SOL    HW188870   5.780   3.332   1.212
62346SOL    HW288871   5.782   3.415   1.085
62347SOL     OW88872   7.934   8.565   3.906
62347SOL    HW188873   8.024   8.586   3.879
62347SOL    HW288874   7.879   8.624   3.855
62348SOL     OW88875   9.599   8.680  14.866
62348SOL    HW188876   9.536   8.620  14.825
62348SOL    HW288877   9.683   8.656  14.828
62349SOL     OW88878   1.953   6.411  13.718
62349SOL    HW188879   2.023   6.472  13.739
62349SOL    HW288880   1.954   6.405  13.622
62350SOL     OW88881   2.801   5.920   6.511
62350SOL    HW188882   2.831   5.845   6.562
62350SOL    HW288883   2.710   5.899   6.489
62351SOL     OW88884  13.834   1.312   4.290
62351SOL    HW188885  13.831   1.278   4.379
62351SOL    HW288886  13.856   1.405   4.301
62352SOL     OW88887  11.924   5.862   1.536
62352SOL    HW188888  12.013   5.878   1.568
62352SOL    HW288889  11.904   5.939   1.482
62353SOL     OW88890  14.145   4.978   9.297
62353SOL    HW188891  14.112   4.925   9.225
62353SOL    HW288892  14.075   5.040   9.316
62354SOL     OW88893   5.559  11.928   8.569
62354SOL    HW188894   5.512  11.895   8.646
62354SOL    HW288895   5.503  11.903   8.495
62355SOL     OW88896   9.674   0.559  13.778
62355SOL    HW188897   9.747   0.509  13.739
62355SOL    HW288898   9.699   0.568  13.870
62356SOL     OW88899   7.879   1.806   4.332
62356SOL    HW188900   7.898   1.717   4.362
62356SOL    HW288901   7.848   1.794   4.242
62357SOL     OW88902  11.880  12.807  10.652
62357SOL    HW188903  11.902  12.746  10.582
62357SOL    HW288904  11.797  12.775  10.687
62358SOL     OW88905   8.111  14.246   2.111
62358SOL    HW188906   8.187  14.222   2.164
62358SOL    HW288907   8.038  14.251   2.174
62359SOL     OW88908   4.109   0.183   2.387
62359SOL    HW188909   4.137   0.107   2.438
62359SOL    HW288910   4.177   0.249   2.402
62360SOL     OW88911   4.800  11.193   3.886
62360SOL    HW188912   4.838  11.111   3.856
62360SOL    HW288913   4.718  11.201   3.837
62361SOL     OW88914   9.764  10.747   3.988
62361SOL    HW188915   9.732  10.797   4.063
62361SOL    HW288916   9.841  10.701   4.021
62362SOL     OW88917  10.711   4.313  10.984
62362SOL    HW188918  10.752   4.393  10.949
62362SOL    HW288919  10.680   4.339  11.071
62363SOL     OW88920  10.410   8.803   7.511
62363SOL    HW188921  10.484   8.853   7.544
62363SOL    HW288922  10.361   8.865   7.458
62364SOL     OW88923  12.709  12.372  10.647
62364SOL    HW188924  12.629  12.388  10.697
62364SOL    HW288925  12.763  12.319  10.706
62365SOL     OW88926   5.646   5.771   2.124
62365SOL    HW188927   5.630   5.695   2.068
62365SOL    HW288928   5.739   5.766   2.145
62366SOL     OW88929   6.104  12.081  11.364
62366SOL    HW188930   6.125  12.053  11.453
62366SOL    HW288931   6.107  12.176  11.368
62367SOL     OW88932   3.638  14.730   7.347
62367SOL    HW188933   3.731  14.709   7.354
62367SOL    HW288934   3.595  14.648   7.324
62368SOL     OW88935  13.748   2.916  11.321
62368SOL    HW188936  13.822   2.941  11.266
62368SOL    HW288937  13.787   2.867  11.394
62369SOL     OW88938   4.934   3.316  13.429
62369SOL    HW188939   4.876   3.355  13.495
62369SOL    HW288940   4.901   3.348  13.346
62370SOL     OW88941   3.459   9.646   0.497
62370SOL    HW188942   3.454   9.703   0.421
62370SOL    HW288943   3.509   9.570   0.467
62371SOL     OW88944   9.063   1.679   1.270
62371SOL    HW188945   9.157   1.662   1.276
62371SOL    HW288946   9.039   1.712   1.356
62372SOL     OW88947   2.098  10.767   3.268
62372SOL    HW188948   2.080  10.723   3.185
62372SOL    HW288949   2.106  10.695   3.331
62373SOL     OW88950  13.796   8.684  10.240
62373SOL    HW188951  13.834   8.596  10.238
62373SOL    HW288952  13.707   8.673  10.207
62374SOL     OW88953  12.745  11.175   7.753
62374SOL    HW188954  12.661  11.200   7.792
62374SOL    HW288955  12.787  11.121   7.820
62375SOL     OW88956   3.278  11.164  10.697
62375SOL    HW188957   3.280  11.078  10.738
62375SOL    HW288958   3.298  11.225  10.768
62376SOL     OW88959  12.414  11.888  11.882
62376SOL    HW188960  12.483  11.830  11.912
62376SOL    HW288961  12.458  11.972  11.868
62377SOL     OW88962  13.735   9.520  12.014
62377SOL    HW188963  13.826   9.525  12.045
62377SOL    HW288964  13.728   9.432  11.977
62378SOL     OW88965   3.393  14.114  12.958
62378SOL    HW188966   3.486  14.092  12.959
62378SOL    HW288967   3.387  14.186  12.894
62379SOL     OW88968  10.009  12.765   5.472
62379SOL    HW188969  10.089  12.817   5.468
62379SOL    HW288970   9.939  12.825   5.447
62380SOL     OW88971   3.521   2.725   4.763
62380SOL    HW188972   3.442   2.673   4.750
62380SOL    HW288973   3.562   2.687   4.841
62381SOL     OW88974   9.165   0.653   1.922
62381SOL    HW188975   9.162   0.721   1.854
62381SOL    HW288976   9.113   0.688   1.994
62382SOL     OW88977  11.278   9.770  11.866
62382SOL    HW188978  11.315   9.845  11.819
62382SOL    HW288979  11.226   9.809  11.936
62383SOL     OW88980   4.596  12.438   9.473
62383SOL    HW188981   4.673  12.492   9.455
62383SOL    HW288982   4.589  12.380   9.398
62384SOL     OW88983   7.053  13.816   6.558
62384SOL    HW188984   7.135  13.803   6.510
62384SOL    HW288985   7.011  13.730   6.558
62385SOL     OW88986   0.215   9.819   5.964
62385SOL    HW188987   0.125   9.826   5.934
62385SOL    HW288988   0.226   9.891   6.026
62386SOL     OW88989   3.742   1.207  13.679
62386SOL    HW188990   3.758   1.127  13.729
62386SOL    HW288991   3.656   1.192  13.639
62387SOL     OW88992   6.676   6.690  11.829
62387SOL    HW188993   6.669   6.785  11.843
62387SOL    HW288994   6.610   6.652  11.886
62388SOL     OW88995  10.194  10.888   7.579
62388SOL    HW188996  10.200  10.799   7.544
62388SOL    HW288997  10.168  10.877   7.670
62389SOL     OW88998  13.650   3.323  13.882
62389SOL    HW188999  13.684   3.366  13.961
62389SOL    HW289000  13.630   3.395  13.822
62390SOL     OW89001   3.367  11.285   7.975
62390SOL    HW189002   3.398  11.204   8.016
62390SOL    HW289003   3.331  11.257   7.891
62391SOL     OW89004  12.097   5.354   3.785
62391SOL    HW189005  12.033   5.307   3.838
62391SOL    HW289006  12.164   5.382   3.847
62392SOL     OW89007   6.065   5.586   4.671
62392SOL    HW189008   6.033   5.548   4.589
62392SOL    HW289009   6.091   5.512   4.724
62393SOL     OW89010   4.402   5.451   1.514
62393SOL    HW189011   4.478   5.509   1.509
62393SOL    HW289012   4.374   5.456   1.606
62394SOL     OW89013   8.244   5.061  13.794
62394SOL    HW189014   8.212   5.106  13.716
62394SOL    HW289015   8.318   5.008  13.763
62395SOL     OW89016   3.314  10.635  14.313
62395SOL    HW189017   3.362  10.587  14.245
62395SOL    HW289018   3.382  10.661  14.376
62396SOL     OW89019   4.257   8.387   1.525
62396SOL    HW189020   4.173   8.357   1.558
62396SOL    HW289021   4.302   8.424   1.601
62397SOL     OW89022  13.105   4.190  10.884
62397SOL    HW189023  13.194   4.192  10.921
62397SOL    HW289024  13.067   4.110  10.918
62398SOL     OW89025   4.184  12.604   0.361
62398SOL    HW189026   4.237  12.633   0.436
62398SOL    HW289027   4.235  12.629   0.284
62399SOL     OW89028   6.773   5.030   3.213
62399SOL    HW189029   6.861   5.040   3.175
62399SOL    HW289030   6.785   5.045   3.306
62400SOL     OW89031   5.029  13.864  13.248
62400SOL    HW189032   5.033  13.927  13.320
62400SOL    HW289033   5.065  13.911  13.173
62401SOL     OW89034   2.177  12.104   4.146
62401SOL    HW189035   2.166  12.030   4.206
62401SOL    HW289036   2.162  12.068   4.059
62402SOL     OW89037  13.815   8.629   0.716
62402SOL    HW189038  13.843   8.686   0.788
62402SOL    HW289039  13.893   8.619   0.662
62403SOL     OW89040   3.587   0.695   3.927
62403SOL    HW189041   3.644   0.618   3.920
62403SOL    HW289042   3.592   0.735   3.840
62404SOL     OW89043   9.401   1.432  11.799
62404SOL    HW189044   9.408   1.508  11.742
62404SOL    HW289045   9.466   1.370  11.765
62405SOL     OW89046  10.517  12.330   3.765
62405SOL    HW189047  10.483  12.417   3.785
62405SOL    HW289048  10.493  12.315   3.673
62406SOL     OW89049  13.824   1.773   7.181
62406SOL    HW189050  13.785   1.847   7.227
62406SOL    HW289051  13.871   1.724   7.248
62407SOL     OW89052  11.345   3.908   8.725
62407SOL    HW189053  11.368   3.945   8.810
62407SOL    HW289054  11.362   3.814   8.734
62408SOL     OW89055  14.348   4.690   6.782
62408SOL    HW189056  14.419   4.743   6.819
62408SOL    HW289057  14.390   4.642   6.710
62409SOL     OW89058   5.704   3.890  11.905
62409SOL    HW189059   5.798   3.895  11.926
62409SOL    HW289060   5.661   3.906  11.989
62410SOL     OW89061   9.414  11.958   8.571
62410SOL    HW189062   9.430  11.946   8.477
62410SOL    HW289063   9.485  11.910   8.614
62411SOL     OW89064   6.825  14.303   2.383
62411SOL    HW189065   6.886  14.263   2.320
62411SOL    HW289066   6.744  14.253   2.373
62412SOL     OW89067   2.736  11.203   6.161
62412SOL    HW189068   2.702  11.210   6.072
62412SOL    HW289069   2.749  11.109   6.175
62413SOL     OW89070   2.468   2.610   7.885
62413SOL    HW189071   2.514   2.527   7.867
62413SOL    HW289072   2.539   2.673   7.903
62414SOL     OW89073   6.267   8.642   3.652
62414SOL    HW189074   6.212   8.575   3.612
62414SOL    HW289075   6.332   8.593   3.703
62415SOL     OW89076   4.277  14.854  11.309
62415SOL    HW189077   4.190  14.815  11.297
62415SOL    HW289078   4.261   0.064  11.354
62416SOL     OW89079   0.027  11.685  11.931
62416SOL    HW189080  14.851  11.643  12.002
62416SOL    HW289081   0.039  11.776  11.960
62417SOL     OW89082  14.488   2.041   1.929
62417SOL    HW189083  14.566   2.038   1.983
62417SOL    HW289084  14.519   2.028   1.839
62418SOL     OW89085   4.553  13.781   5.734
62418SOL    HW189086   4.648  13.788   5.741
62418SOL    HW289087   4.519  13.828   5.811
62419SOL     OW89088   7.819   7.199  12.522
62419SOL    HW189089   7.798   7.142  12.597
62419SOL    HW289090   7.883   7.149  12.471
62420SOL     OW89091   6.645   6.310   2.773
62420SOL    HW189092   6.651   6.225   2.816
62420SOL    HW289093   6.556   6.340   2.792
62421SOL     OW89094   4.246   1.626   4.068
62421SOL    HW189095   4.248   1.700   4.007
62421SOL    HW289096   4.299   1.655   4.143
62422SOL     OW89097  11.675   8.156   4.727
62422SOL    HW189098  11.764   8.159   4.691
62422SOL    HW289099  11.620   8.193   4.658
62423SOL     OW89100  14.385   3.920  12.375
62423SOL    HW189101  14.443   3.895  12.304
62423SOL    HW289102  14.367   4.013  12.360
62424SOL     OW89103   1.791   8.937  11.849
62424SOL    HW189104   1.785   9.001  11.919
62424SOL    HW289105   1.701   8.909  11.833
62425SOL     OW89106   0.233  14.535   4.579
62425SOL    HW189107   0.190  14.528   4.494
62425SOL    HW289108   0.217  14.625   4.608
62426SOL     OW89109   0.320   0.615   5.194
62426SOL    HW189110   0.411   0.630   5.168
62426SOL    HW289111   0.277   0.582   5.115
62427SOL     OW89112   2.076  14.798   4.446
62427SOL    HW189113   2.016  14.864   4.412
62427SOL    HW289114   2.077  14.813   4.540
62428SOL     OW89115  12.335  14.408   2.480
62428SOL    HW189116  12.375  14.352   2.413
62428SOL    HW289117  12.282  14.471   2.431
62429SOL     OW89118   2.122  14.568  10.372
62429SOL    HW189119   2.100  14.531  10.457
62429SOL    HW289120   2.142  14.492  10.317
62430SOL     OW89121   6.850   5.693   3.334
62430SOL    HW189122   6.841   5.597   3.331
62430SOL    HW289123   6.819   5.718   3.421
62431SOL     OW89124   0.155  13.357   1.750
62431SOL    HW189125   0.153  13.409   1.830
62431SOL    HW289126   0.234  13.303   1.758
62432SOL     OW89127   9.754  13.556   8.111
62432SOL    HW189128   9.778  13.643   8.143
62432SOL    HW289129   9.695  13.522   8.179
62433SOL     OW89130   3.449  10.435   4.565
62433SOL    HW189131   3.386  10.399   4.628
62433SOL    HW289132   3.412  10.416   4.479
62434SOL     OW89133   0.266   6.666  12.586
62434SOL    HW189134   0.320   6.625  12.654
62434SOL    HW289135   0.200   6.716  12.633
62435SOL     OW89136   1.869   8.182   2.798
62435SOL    HW189137   1.949   8.224   2.766
62435SOL    HW289138   1.830   8.247   2.856
62436SOL     OW89139  12.274   7.331  12.343
62436SOL    HW189140  12.273   7.349  12.437
62436SOL    HW289141  12.297   7.414  12.303
62437SOL     OW89142  10.782   7.704  14.650
62437SOL    HW189143  10.834   7.624  14.652
62437SOL    HW289144  10.697   7.678  14.687
62438SOL     OW89145   7.855   6.443  10.245
62438SOL    HW189146   7.762   6.422  10.256
62438SOL    HW289147   7.899   6.358  10.242
62439SOL     OW89148   5.941   9.012   6.998
62439SOL    HW189149   6.026   9.024   7.041
62439SOL    HW289150   5.941   9.075   6.926
62440SOL     OW89151   1.381  11.232   7.798
62440SOL    HW189152   1.316  11.166   7.772
62440SOL    HW289153   1.449  11.226   7.731
62441SOL     OW89154   3.963   2.517  11.436
62441SOL    HW189155   3.881   2.515  11.387
62441SOL    HW289156   3.997   2.606  11.423
62442SOL     OW89157   5.434  13.632  10.800
62442SOL    HW189158   5.347  13.593  10.796
62442SOL    HW289159   5.472  13.597  10.880
62443SOL     OW89160   6.837   4.997   8.457
62443SOL    HW189161   6.874   4.909   8.446
62443SOL    HW289162   6.760   4.997   8.400
62444SOL     OW89163  11.357   9.480   4.439
62444SOL    HW189164  11.409   9.461   4.361
62444SOL    HW289165  11.399   9.555   4.480
62445SOL     OW89166  11.833   7.931   0.961
62445SOL    HW189167  11.777   7.854   0.962
62445SOL    HW289168  11.841   7.957   1.052
62446SOL     OW89169   2.880  13.305  14.448
62446SOL    HW189170   2.937  13.229  14.460
62446SOL    HW289171   2.915  13.350  14.370
62447SOL     OW89172   1.029   2.504  14.191
62447SOL    HW189173   0.972   2.526  14.265
62447SOL    HW289174   1.071   2.587  14.167
62448SOL     OW89175   3.177  13.175   0.389
62448SOL    HW189176   3.260  13.215   0.415
62448SOL    HW289177   3.111  13.242   0.409
62449SOL     OW89178  14.249  13.690  11.863
62449SOL    HW189179  14.311  13.649  11.923
62449SOL    HW289180  14.257  13.784  11.880
62450SOL     OW89181   2.492  14.143  11.364
62450SOL    HW189182   2.554  14.092  11.415
62450SOL    HW289183   2.508  14.234  11.389
62451SOL     OW89184   6.522   1.448  11.193
62451SOL    HW189185   6.540   1.463  11.100
62451SOL    HW289186   6.594   1.393  11.223
62452SOL     OW89187   5.490  11.512   0.655
62452SOL    HW189188   5.535  11.442   0.607
62452SOL    HW289189   5.452  11.567   0.586
62453SOL     OW89190   0.834   0.815   4.922
62453SOL    HW189191   0.789   0.838   5.003
62453SOL    HW289192   0.880   0.733   4.942
62454SOL     OW89193   4.164   8.768  11.517
62454SOL    HW189194   4.253   8.800  11.503
62454SOL    HW289195   4.169   8.718  11.598
62455SOL     OW89196  10.252   8.643  10.633
62455SOL    HW189197  10.263   8.622  10.725
62455SOL    HW289198  10.159   8.630  10.616
62456SOL     OW89199   4.606   0.085  13.866
62456SOL    HW189200   4.582   0.027  13.938
62456SOL    HW289201   4.663   0.033  13.810
62457SOL     OW89202   5.211  13.507   9.201
62457SOL    HW189203   5.295  13.551   9.211
62457SOL    HW289204   5.231  13.414   9.210
62458SOL     OW89205  14.261   6.641   8.969
62458SOL    HW189206  14.244   6.579   9.040
62458SOL    HW289207  14.190   6.705   8.976
62459SOL     OW89208   1.496   1.583   2.785
62459SOL    HW189209   1.512   1.493   2.811
62459SOL    HW289210   1.414   1.607   2.828
62460SOL     OW89211   8.721   7.402  12.704
62460SOL    HW189212   8.642   7.429  12.659
62460SOL    HW289213   8.701   7.413  12.797
62461SOL     OW89214  10.428   1.740   4.959
62461SOL    HW189215  10.498   1.728   4.894
62461SOL    HW289216  10.415   1.653   4.996
62462SOL     OW89217   5.453   5.743   1.473
62462SOL    HW189218   5.511   5.670   1.495
62462SOL    HW289219   5.508   5.806   1.428
62463SOL     OW89220   2.775   8.373   6.764
62463SOL    HW189221   2.777   8.381   6.859
62463SOL    HW289222   2.697   8.320   6.746
62464SOL     OW89223   7.733   8.190   9.970
62464SOL    HW189224   7.807   8.173  10.029
62464SOL    HW289225   7.695   8.271  10.003
62465SOL     OW89226   0.961  10.139   1.375
62465SOL    HW189227   0.910  10.207   1.332
62465SOL    HW289228   0.967  10.168   1.466
62466SOL     OW89229  14.676   0.848  12.793
62466SOL    HW189230  14.608   0.783  12.776
62466SOL    HW289231  14.633   0.912  12.851
62467SOL     OW89232   7.383   1.296   6.166
62467SOL    HW189233   7.289   1.299   6.181
62467SOL    HW289234   7.410   1.209   6.195
62468SOL     OW89235   2.548   8.536   3.708
62468SOL    HW189236   2.635   8.562   3.740
62468SOL    HW289237   2.537   8.446   3.738
62469SOL     OW89238  12.771  12.512  13.627
62469SOL    HW189239  12.859  12.478  13.641
62469SOL    HW289240  12.782  12.606  13.613
62470SOL     OW89241   9.523   9.331   0.635
62470SOL    HW189242   9.578   9.407   0.616
62470SOL    HW289243   9.514   9.286   0.551
62471SOL     OW89244  12.810   6.427   3.423
62471SOL    HW189245  12.870   6.363   3.384
62471SOL    HW289246  12.823   6.419   3.517
62472SOL     OW89247   5.250   4.748   7.863
62472SOL    HW189248   5.251   4.828   7.809
62472SOL    HW289249   5.297   4.683   7.811
62473SOL     OW89250   2.524  11.464  14.144
62473SOL    HW189251   2.552  11.381  14.108
62473SOL    HW289252   2.429  11.455  14.154
62474SOL     OW89253   5.527   3.238  12.463
62474SOL    HW189254   5.597   3.248  12.527
62474SOL    HW289255   5.570   3.254  12.379
62475SOL     OW89256   8.157   1.192   2.293
62475SOL    HW189257   8.156   1.285   2.271
62475SOL    HW289258   8.180   1.148   2.211
62476SOL     OW89259   5.278   7.146  11.742
62476SOL    HW189260   5.341   7.125  11.811
62476SOL    HW289261   5.233   7.063  11.725
62477SOL     OW89262   7.088   8.878   1.438
62477SOL    HW189263   7.121   8.880   1.528
62477SOL    HW289264   7.164   8.853   1.386
62478SOL     OW89265   2.767   3.682   6.567
62478SOL    HW189266   2.844   3.731   6.596
62478SOL    HW289267   2.796   3.636   6.488
62479SOL     OW89268   4.285  14.611   9.474
62479SOL    HW189269   4.247  14.592   9.559
62479SOL    HW289270   4.376  14.635   9.492
62480SOL     OW89271  10.089   0.681  13.895
62480SOL    HW189272  10.131   0.692  13.981
62480SOL    HW289273   9.995   0.687  13.914
62481SOL     OW89274   9.226   6.191  13.797
62481SOL    HW189275   9.251   6.189  13.890
62481SOL    HW289276   9.278   6.262  13.760
62482SOL     OW89277   1.002   2.882   2.386
62482SOL    HW189278   0.939   2.860   2.454
62482SOL    HW289279   1.065   2.939   2.429
62483SOL     OW89280  11.186  13.050  13.830
62483SOL    HW189281  11.155  13.028  13.742
62483SOL    HW289282  11.270  13.095  13.816
62484SOL     OW89283   0.096  11.373  11.067
62484SOL    HW189284   0.018  11.319  11.066
62484SOL    HW289285   0.089  11.425  11.148
62485SOL     OW89286   5.629  12.485   4.256
62485SOL    HW189287   5.549  12.538   4.261
62485SOL    HW289288   5.634  12.456   4.166
62486SOL     OW89289   0.935   7.644   3.550
62486SOL    HW189290   1.006   7.630   3.486
62486SOL    HW289291   0.911   7.556   3.578
62487SOL     OW89292  11.604   4.781   2.903
62487SOL    HW189293  11.524   4.760   2.952
62487SOL    HW289294  11.643   4.854   2.951
62488SOL     OW89295   0.652   0.637  12.007
62488SOL    HW189296   0.707   0.559  12.006
62488SOL    HW289297   0.709   0.707  11.976
62489SOL     OW89298   2.475   6.989   9.343
62489SOL    HW189299   2.531   6.912   9.350
62489SOL    HW289300   2.386   6.957   9.359
62490SOL     OW89301   8.255   1.426  10.549
62490SOL    HW189302   8.322   1.475  10.596
62490SOL    HW289303   8.265   1.452  10.458
62491SOL     OW89304  11.364   5.312   7.583
62491SOL    HW189305  11.348   5.223   7.549
62491SOL    HW289306  11.445   5.304   7.634
62492SOL     OW89307   0.520   3.660   9.948
62492SOL    HW189308   0.487   3.604   9.877
62492SOL    HW289309   0.525   3.603  10.024
62493SOL     OW89310   5.952   1.575   0.902
62493SOL    HW189311   5.905   1.492   0.896
62493SOL    HW289312   5.949   1.597   0.996
62494SOL     OW89313   5.741   9.076   8.903
62494SOL    HW189314   5.779   9.153   8.943
62494SOL    HW289315   5.783   9.002   8.947
62495SOL     OW89316  14.309   0.916  13.435
62495SOL    HW189317  14.264   0.909  13.351
62495SOL    HW289318  14.241   0.943  13.497
62496SOL     OW89319   8.398   2.481   8.207
62496SOL    HW189320   8.466   2.451   8.145
62496SOL    HW289321   8.432   2.564   8.241
62497SOL     OW89322   7.702   1.690   1.339
62497SOL    HW189323   7.784   1.715   1.382
62497SOL    HW289324   7.634   1.735   1.390
62498SOL     OW89325   1.915  13.110   3.569
62498SOL    HW189326   1.848  13.051   3.535
62498SOL    HW289327   1.984  13.111   3.502
62499SOL     OW89328   8.555   9.506   1.086
62499SOL    HW189329   8.498   9.536   1.157
62499SOL    HW289330   8.496   9.468   1.022
62500SOL     OW89331   8.571   8.337   8.504
62500SOL    HW189332   8.540   8.416   8.549
62500SOL    HW289333   8.521   8.266   8.544
62501SOL     OW89334  11.468  14.091   5.508
62501SOL    HW189335  11.554  14.073   5.469
62501SOL    HW289336  11.445  14.010   5.554
62502SOL     OW89337   4.866   0.059   9.109
62502SOL    HW189338   4.780   0.046   9.150
62502SOL    HW289339   4.862   0.146   9.070
62503SOL     OW89340   2.371   7.874  14.486
62503SOL    HW189341   2.282   7.838  14.492
62503SOL    HW289342   2.371   7.927  14.407
62504SOL     OW89343   0.205   3.709  10.410
62504SOL    HW189344   0.132   3.770  10.401
62504SOL    HW289345   0.191   3.645  10.340
62505SOL     OW89346   0.672  10.908   0.162
62505SOL    HW189347   0.747  10.929   0.218
62505SOL    HW289348   0.633  10.992   0.140
62506SOL     OW89349   2.663  10.903  12.104
62506SOL    HW189350   2.571  10.926  12.112
62506SOL    HW289351   2.668  10.848  12.026
62507SOL     OW89352   3.160  12.201   4.824
62507SOL    HW189353   3.065  12.189   4.816
62507SOL    HW289354   3.181  12.273   4.765
62508SOL     OW89355   8.259   9.328  11.553
62508SOL    HW189356   8.308   9.247  11.543
62508SOL    HW289357   8.168   9.304  11.534
62509SOL     OW89358   8.803   4.602   2.616
62509SOL    HW189359   8.743   4.577   2.686
62509SOL    HW289360   8.746   4.635   2.546
62510SOL     OW89361   9.765  14.646   1.357
62510SOL    HW189362   9.770  14.606   1.271
62510SOL    HW289363   9.841  14.611   1.404
62511SOL     OW89364   3.413   8.643   9.638
62511SOL    HW189365   3.502   8.633   9.669
62511SOL    HW289366   3.393   8.736   9.652
62512SOL     OW89367   1.875  10.255   3.031
62512SOL    HW189368   1.803  10.300   2.986
62512SOL    HW289369   1.917  10.323   3.083
62513SOL     OW89370   5.440   5.494  12.730
62513SOL    HW189371   5.476   5.462  12.812
62513SOL    HW289372   5.513   5.494  12.669
62514SOL     OW89373   0.954   0.636   2.304
62514SOL    HW189374   0.991   0.694   2.370
62514SOL    HW289375   0.938   0.553   2.350
62515SOL     OW89376  11.107   0.154   6.311
62515SOL    HW189377  11.108   0.159   6.407
62515SOL    HW289378  11.016   0.167   6.287
62516SOL     OW89379   9.549  10.525  14.557
62516SOL    HW189380   9.594  10.562  14.633
62516SOL    HW289381   9.572  10.584  14.485
62517SOL     OW89382   7.940  11.837   3.364
62517SOL    HW189383   7.885  11.854   3.288
62517SOL    HW289384   8.020  11.887   3.348
62518SOL     OW89385   8.241   3.079  14.468
62518SOL    HW189386   8.282   3.013  14.524
62518SOL    HW289387   8.294   3.081  14.389
62519SOL     OW89388  11.225   7.210  11.537
62519SOL    HW189389  11.238   7.154  11.613
62519SOL    HW289390  11.145   7.177  11.495
62520SOL     OW89391   6.820   8.435   2.987
62520SOL    HW189392   6.846   8.368   3.050
62520SOL    HW289393   6.893   8.441   2.926
62521SOL     OW89394   8.306   6.494  10.494
62521SOL    HW189395   8.223   6.455  10.467
62521SOL    HW289396   8.298   6.506  10.589
62522SOL     OW89397   0.060   0.652   1.214
62522SOL    HW189398   0.070   0.558   1.196
62522SOL    HW289399  14.845   0.673   1.181
62523SOL     OW89400  12.895  11.172  14.381
62523SOL    HW189401  12.945  11.182  14.300
62523SOL    HW289402  12.870  11.079  14.382
62524SOL     OW89403  10.459   1.075  12.509
62524SOL    HW189404  10.471   1.162  12.470
62524SOL    HW289405  10.523   1.019  12.465
62525SOL     OW89406   7.513   3.114  13.892
62525SOL    HW189407   7.575   3.160  13.835
62525SOL    HW289408   7.536   3.141  13.981
62526SOL     OW89409   9.054   9.588   8.477
62526SOL    HW189410   9.084   9.568   8.565
62526SOL    HW289411   9.115   9.541   8.420
62527SOL     OW89412   7.456  14.126  14.090
62527SOL    HW189413   7.479  14.118  14.183
62527SOL    HW289414   7.415  14.212  14.083
62528SOL     OW89415   4.916  13.910   5.464
62528SOL    HW189416   4.991  13.855   5.488
62528SOL    HW289417   4.925  13.923   5.370
62529SOL     OW89418   9.271   3.657   9.041
62529SOL    HW189419   9.290   3.600   9.115
62529SOL    HW289420   9.190   3.622   9.004
62530SOL     OW89421  10.617   0.343   3.499
62530SOL    HW189422  10.658   0.379   3.420
62530SOL    HW289423  10.564   0.414   3.533
62531SOL     OW89424   1.102   8.711   3.556
62531SOL    HW189425   1.087   8.654   3.482
62531SOL    HW289426   1.170   8.772   3.526
62532SOL     OW89427   3.266   3.875   7.898
62532SOL    HW189428   3.256   3.780   7.891
62532SOL    HW289429   3.177   3.908   7.905
62533SOL     OW89430   2.260   2.247  14.082
62533SOL    HW189431   2.286   2.320  14.137
62533SOL    HW289432   2.270   2.279  13.993
62534SOL     OW89433   7.397   2.498  12.008
62534SOL    HW189434   7.389   2.504  12.103
62534SOL    HW289435   7.353   2.416  11.986
62535SOL     OW89436   4.361   6.424   3.820
62535SOL    HW189437   4.446   6.431   3.776
62535SOL    HW289438   4.298   6.413   3.749
62536SOL     OW89439   4.972  12.783   5.348
62536SOL    HW189440   4.983  12.737   5.431
62536SOL    HW289441   4.952  12.873   5.373
62537SOL     OW89442   0.086  11.331   8.313
62537SOL    HW189443   0.117  11.385   8.386
62537SOL    HW289444   0.022  11.272   8.353
62538SOL     OW89445   1.792   0.001   2.281
62538SOL    HW189446   1.801   0.088   2.243
62538SOL    HW289447   1.842  14.816   2.223
62539SOL     OW89448  10.873  13.683  10.815
62539SOL    HW189449  10.923  13.602  10.800
62539SOL    HW289450  10.886  13.734  10.735
62540SOL     OW89451  13.825   1.266   4.572
62540SOL    HW189452  13.809   1.352   4.612
62540SOL    HW289453  13.824   1.205   4.645
62541SOL     OW89454   0.114  13.122   3.625
62541SOL    HW189455   0.088  13.204   3.583
62541SOL    HW289456   0.186  13.089   3.571
62542SOL     OW89457  12.068   7.443  10.599
62542SOL    HW189458  12.060   7.399  10.683
62542SOL    HW289459  12.158   7.476  10.598
62543SOL     OW89460  10.612   4.463  13.584
62543SOL    HW189461  10.539   4.412  13.548
62543SOL    HW289462  10.592   4.470  13.677
62544SOL     OW89463   8.543   5.680   2.976
62544SOL    HW189464   8.625   5.653   3.018
62544SOL    HW289465   8.521   5.764   3.018
62545SOL     OW89466  11.114  10.373   8.992
62545SOL    HW189467  11.155  10.329   8.917
62545SOL    HW289468  11.177  10.440   9.018
62546SOL     OW89469   1.957   1.944   4.290
62546SOL    HW189470   2.051   1.928   4.290
62546SOL    HW289471   1.929   1.922   4.201
62547SOL     OW89472   2.841   5.105   7.975
62547SOL    HW189473   2.829   5.014   7.950
62547SOL    HW289474   2.754   5.134   8.004
62548SOL     OW89475   0.548   0.889  10.792
62548SOL    HW189476   0.643   0.894  10.805
62548SOL    HW289477   0.532   0.939  10.712
62549SOL     OW89478   8.495  10.104   0.732
62549SOL    HW189479   8.474  10.175   0.792
62549SOL    HW289480   8.412  10.085   0.688
62550SOL     OW89481   5.787   2.722  12.729
62550SOL    HW189482   5.782   2.772  12.648
62550SOL    HW289483   5.773   2.631  12.702
62551SOL     OW89484  10.632   8.391   3.150
62551SOL    HW189485  10.586   8.406   3.068
62551SOL    HW289486  10.711   8.343   3.125
62552SOL     OW89487   4.363   4.039   0.241
62552SOL    HW189488   4.427   4.033   0.312
62552SOL    HW289489   4.413   4.023   0.161
62553SOL     OW89490   6.521  13.746  11.712
62553SOL    HW189491   6.451  13.744  11.646
62553SOL    HW289492   6.570  13.826  11.693
62554SOL     OW89493   1.785   6.242   2.765
62554SOL    HW189494   1.804   6.332   2.792
62554SOL    HW289495   1.870   6.207   2.737
62555SOL     OW89496   3.966  12.955   0.331
62555SOL    HW189497   3.908  12.896   0.379
62555SOL    HW289498   4.033  12.897   0.293
62556SOL     OW89499  12.776   0.889   4.396
62556SOL    HW189500  12.731   0.966   4.430
62556SOL    HW289501  12.785   0.831   4.471
62557SOL     OW89502  13.290   7.312   6.719
62557SOL    HW189503  13.250   7.260   6.790
62557SOL    HW289504  13.366   7.354   6.761
62558SOL     OW89505   7.405   2.838   7.575
62558SOL    HW189506   7.350   2.916   7.581
62558SOL    HW289507   7.344   2.765   7.579
62559SOL     OW89508   9.729  11.030   9.322
62559SOL    HW189509   9.767  11.088   9.388
62559SOL    HW289510   9.680  10.965   9.372
62560SOL     OW89511   1.968   1.535   4.493
62560SOL    HW189512   2.027   1.600   4.531
62560SOL    HW289513   1.969   1.553   4.399
62561SOL     OW89514   9.102  14.825  13.763
62561SOL    HW189515   9.178  14.767  13.756
62561SOL    HW289516   9.127   0.017  13.830
62562SOL     OW89517   9.704  14.589  10.059
62562SOL    HW189518   9.673  14.634  10.138
62562SOL    HW289519   9.633  14.600   9.996
62563SOL     OW89520  12.550  13.936  11.848
62563SOL    HW189521  12.632  13.887  11.847
62563SOL    HW289522  12.486  13.876  11.809
62564SOL     OW89523   8.591   3.164   5.840
62564SOL    HW189524   8.674   3.201   5.810
62564SOL    HW289525   8.528   3.235   5.829
62565SOL     OW89526  11.671   3.869   8.962
62565SOL    HW189527  11.644   3.924   8.888
62565SOL    HW289528  11.709   3.931   9.025
62566SOL     OW89529  11.064   9.762   2.115
62566SOL    HW189530  11.086   9.854   2.127
62566SOL    HW289531  10.974   9.763   2.081
62567SOL     OW89532   2.247   0.729   5.163
62567SOL    HW189533   2.197   0.743   5.083
62567SOL    HW289534   2.224   0.803   5.219
62568SOL     OW89535   5.738   5.242   8.658
62568SOL    HW189536   5.776   5.154   8.666
62568SOL    HW289537   5.803   5.292   8.609
62569SOL     OW89538   8.659  14.713   5.097
62569SOL    HW189539   8.667  14.723   5.002
62569SOL    HW289540   8.587  14.772   5.121
62570SOL     OW89541   1.466   1.041   7.018
62570SOL    HW189542   1.559   1.045   7.039
62570SOL    HW289543   1.457   0.960   6.966
62571SOL     OW89544   5.458   6.532   0.104
62571SOL    HW189545   5.512   6.457   0.130
62571SOL    HW289546   5.515   6.608   0.116
62572SOL     OW89547   0.869   7.267   1.720
62572SOL    HW189548   0.822   7.336   1.767
62572SOL    HW289549   0.923   7.225   1.787
62573SOL     OW89550   6.252   9.604  10.843
62573SOL    HW189551   6.158   9.587  10.851
62573SOL    HW289552   6.280   9.544  10.774
62574SOL     OW89553   3.655   6.925   6.464
62574SOL    HW189554   3.582   6.925   6.403
62574SOL    HW289555   3.628   6.867   6.535
62575SOL     OW89556   5.320   3.516  14.584
62575SOL    HW189557   5.362   3.433  14.560
62575SOL    HW289558   5.364   3.543  14.665
62576SOL     OW89559  11.480   7.761   6.150
62576SOL    HW189560  11.560   7.742   6.102
62576SOL    HW289561  11.499   7.840   6.201
62577SOL     OW89562   9.783   8.133  14.553
62577SOL    HW189563   9.803   8.180  14.634
62577SOL    HW289564   9.805   8.042  14.572
62578SOL     OW89565   8.527   4.292   2.812
62578SOL    HW189566   8.439   4.301   2.777
62578SOL    HW289567   8.561   4.381   2.816
62579SOL     OW89568   1.858   3.380  12.491
62579SOL    HW189569   1.818   3.465  12.512
62579SOL    HW289570   1.783   3.323  12.472
62580SOL     OW89571   8.502   1.290  10.095
62580SOL    HW189572   8.518   1.208  10.141
62580SOL    HW289573   8.574   1.347  10.122
62581SOL     OW89574  13.787  12.056   1.866
62581SOL    HW189575  13.713  12.116   1.877
62581SOL    HW289576  13.760  11.998   1.795
62582SOL     OW89577   1.553   3.102  12.983
62582SOL    HW189578   1.516   3.013  12.985
62582SOL    HW289579   1.623   3.097  12.918
62583SOL     OW89580   9.543   9.391  10.599
62583SOL    HW189581   9.561   9.400  10.505
62583SOL    HW289582   9.538   9.481  10.631
62584SOL     OW89583   7.102   3.848  13.470
62584SOL    HW189584   7.050   3.804  13.401
62584SOL    HW289585   7.182   3.874  13.425
62585SOL     OW89586  13.551   4.169  13.973
62585SOL    HW189587  13.490   4.196  14.042
62585SOL    HW289588  13.573   4.079  13.995
62586SOL     OW89589   0.614  13.071   0.414
62586SOL    HW189590   0.519  13.088   0.416
62586SOL    HW289591   0.648  13.132   0.349
62587SOL     OW89592  14.139   6.847   6.034
62587SOL    HW189593  14.083   6.904   6.087
62587SOL    HW289594  14.097   6.760   6.040
62588SOL     OW89595   8.968   2.435   8.738
62588SOL    HW189596   8.912   2.391   8.674
62588SOL    HW289597   8.915   2.437   8.818
62589SOL     OW89598   1.417   6.996   4.138
62589SOL    HW189599   1.424   6.911   4.181
62589SOL    HW289600   1.329   7.027   4.160
62590SOL     OW89601   6.931   4.587   2.098
62590SOL    HW189602   6.888   4.666   2.066
62590SOL    HW289603   6.950   4.605   2.190
62591SOL     OW89604  14.614  12.966  13.106
62591SOL    HW189605  14.644  12.935  13.020
62591SOL    HW289606  14.618  13.062  13.099
62592SOL     OW89607  12.888  14.196   0.275
62592SOL    HW189608  12.846  14.250   0.342
62592SOL    HW289609  12.951  14.254   0.234
62593SOL     OW89610   7.791   9.999  12.960
62593SOL    HW189611   7.750  10.074  13.002
62593SOL    HW289612   7.830  10.034  12.879
62594SOL     OW89613   1.999   4.369  13.112
62594SOL    HW189614   1.916   4.324  13.097
62594SOL    HW289615   2.019   4.412  13.029
62595SOL     OW89616  10.723  12.254   7.306
62595SOL    HW189617  10.710  12.160   7.292
62595SOL    HW289618  10.717  12.265   7.401
62596SOL     OW89619   3.715   0.196   1.000
62596SOL    HW189620   3.623   0.217   1.014
62596SOL    HW289621   3.756   0.208   1.086
62597SOL     OW89622   5.718  10.112   6.433
62597SOL    HW189623   5.804  10.141   6.462
62597SOL    HW289624   5.708  10.024   6.468
62598SOL     OW89625  13.782  10.042   9.031
62598SOL    HW189626  13.747  10.086   9.109
62598SOL    HW289627  13.851  10.101   9.000
62599SOL     OW89628   6.885  13.117  10.522
62599SOL    HW189629   6.810  13.151  10.473
62599SOL    HW289630   6.851  13.037  10.564
62600SOL     OW89631  10.461   5.827   0.181
62600SOL    HW189632  10.387   5.836   0.242
62600SOL    HW289633  10.421   5.806   0.097
62601SOL     OW89634  14.258  14.745   1.933
62601SOL    HW189635  14.325  14.677   1.939
62601SOL    HW289636  14.263  14.791   2.018
62602SOL     OW89637  13.512  10.195   6.076
62602SOL    HW189638  13.437  10.137   6.064
62602SOL    HW289639  13.485  10.256   6.145
62603SOL     OW89640  12.456  14.587   0.086
62603SOL    HW189641  12.397  14.636   0.028
62603SOL    HW289642  12.399  14.556   0.157
62604SOL     OW89643   7.515  11.190  12.168
62604SOL    HW189644   7.458  11.146  12.105
62604SOL    HW289645   7.518  11.281  12.139
62605SOL     OW89646  14.763  12.725   9.217
62605SOL    HW189647  14.725  12.640   9.239
62605SOL    HW289648  14.840  12.705   9.165
62606SOL     OW89649   8.093   3.452   2.766
62606SOL    HW189650   8.149   3.479   2.838
62606SOL    HW289651   8.122   3.506   2.692
62607SOL     OW89652  11.744   8.585  13.058
62607SOL    HW189653  11.731   8.625  13.144
62607SOL    HW289654  11.696   8.502  13.062
62608SOL     OW89655  10.705   0.338   0.888
62608SOL    HW189656  10.787   0.363   0.930
62608SOL    HW289657  10.706   0.242   0.888
62609SOL     OW89658  10.263   3.153   5.207
62609SOL    HW189659  10.184   3.205   5.193
62609SOL    HW289660  10.331   3.218   5.227
62610SOL     OW89661   1.415   8.611   4.204
62610SOL    HW189662   1.345   8.569   4.153
62610SOL    HW289663   1.379   8.697   4.226
62611SOL     OW89664  12.143   4.060  14.195
62611SOL    HW189665  12.070   4.105  14.236
62611SOL    HW289666  12.104   4.012  14.122
62612SOL     OW89667  11.035  10.719   4.429
62612SOL    HW189668  11.090  10.652   4.471
62612SOL    HW289669  10.995  10.766   4.503
62613SOL     OW89670  11.912   0.357   6.517
62613SOL    HW189671  11.955   0.429   6.470
62613SOL    HW289672  11.945   0.278   6.474
62614SOL     OW89673   7.587   9.516  13.414
62614SOL    HW189674   7.672   9.486  13.446
62614SOL    HW289675   7.577   9.474  13.328
62615SOL     OW89676  14.145   4.759   8.694
62615SOL    HW189677  14.185   4.827   8.748
62615SOL    HW289678  14.196   4.760   8.613
62616SOL     OW89679   2.831  12.390  11.948
62616SOL    HW189680   2.774  12.399  12.024
62616SOL    HW289681   2.828  12.475  11.905
62617SOL     OW89682   2.454  12.524  10.442
62617SOL    HW189683   2.398  12.450  10.462
62617SOL    HW289684   2.542  12.496  10.468
62618SOL     OW89685   1.974   6.071   2.679
62618SOL    HW189686   1.992   5.992   2.729
62618SOL    HW289687   1.958   6.040   2.590
62619SOL     OW89688   3.558   5.149   2.468
62619SOL    HW189689   3.582   5.059   2.447
62619SOL    HW289690   3.522   5.183   2.385
62620SOL     OW89691  13.553  12.266   9.340
62620SOL    HW189692  13.490  12.313   9.395
62620SOL    HW289693  13.582  12.192   9.394
62621SOL     OW89694  10.536  10.064   3.753
62621SOL    HW189695  10.445  10.080   3.727
62621SOL    HW289696  10.588  10.088   3.676
62622SOL     OW89697   5.092   5.848  12.070
62622SOL    HW189698   5.005   5.856  12.032
62622SOL    HW289699   5.103   5.754  12.087
62623SOL     OW89700   5.200   7.985   8.003
62623SOL    HW189701   5.265   7.928   8.044
62623SOL    HW289702   5.244   8.021   7.926
62624SOL     OW89703  12.021   7.463  12.117
62624SOL    HW189704  12.017   7.461  12.212
62624SOL    HW289705  12.079   7.391  12.094
62625SOL     OW89706  10.205   6.995  14.844
62625SOL    HW189707  10.149   6.989   0.048
62625SOL    HW289708  10.260   7.072  14.860
62626SOL     OW89709  12.912   4.090   9.031
62626SOL    HW189710  12.829   4.085   8.984
62626SOL    HW289711  12.896   4.154   9.100
62627SOL     OW89712  14.672   2.539   1.767
62627SOL    HW189713  14.642   2.608   1.826
62627SOL    HW289714  14.622   2.552   1.687
62628SOL     OW89715   4.069   1.273   5.138
62628SOL    HW189716   4.083   1.350   5.193
62628SOL    HW289717   4.063   1.200   5.200
62629SOL     OW89718  10.843  12.339  12.113
62629SOL    HW189719  10.831  12.245  12.130
62629SOL    HW289720  10.929  12.345  12.072
62630SOL     OW89721   3.800   4.900  10.342
62630SOL    HW189722   3.796   4.981  10.293
62630SOL    HW289723   3.771   4.833  10.280
62631SOL     OW89724  12.325   8.104  10.428
62631SOL    HW189725  12.381   8.166  10.380
62631SOL    HW289726  12.316   8.029  10.370
62632SOL     OW89727  10.830   8.597   0.912
62632SOL    HW189728  10.737   8.580   0.924
62632SOL    HW289729  10.870   8.510   0.903
62633SOL     OW89730  11.929  12.049   5.591
62633SOL    HW189731  11.873  12.043   5.513
62633SOL    HW289732  11.867  12.051   5.664
62634SOL     OW89733   2.048   1.145   7.029
62634SOL    HW189734   2.086   1.109   6.949
62634SOL    HW289735   2.072   1.238   7.026
62635SOL     OW89736  13.161   8.184  10.309
62635SOL    HW189737  13.128   8.095  10.319
62635SOL    HW289738  13.239   8.188  10.364
62636SOL     OW89739  10.878  13.118   6.956
62636SOL    HW189740  10.944  13.068   6.908
62636SOL    HW289741  10.831  13.052   7.008
62637SOL     OW89742   2.311   5.134   6.055
62637SOL    HW189743   2.218   5.147   6.075
62637SOL    HW289744   2.329   5.195   5.984
62638SOL     OW89745   3.603   5.640   2.580
62638SOL    HW189746   3.549   5.647   2.502
62638SOL    HW289747   3.685   5.601   2.549
62639SOL     OW89748   0.018   2.707   5.486
62639SOL    HW189749   0.097   2.757   5.466
62639SOL    HW289750  14.834   2.720   5.409
62640SOL     OW89751  11.295  12.980  11.389
62640SOL    HW189752  11.258  13.063  11.420
62640SOL    HW289753  11.241  12.956  11.313
62641SOL     OW89754  13.835   8.352   2.255
62641SOL    HW189755  13.842   8.348   2.160
62641SOL    HW289756  13.916   8.395   2.284
62642SOL     OW89757   4.229   2.055  13.428
62642SOL    HW189758   4.190   2.139  13.451
62642SOL    HW289759   4.156   2.002  13.396
62643SOL     OW89760   5.978   5.596   8.528
62643SOL    HW189761   6.035   5.577   8.454
62643SOL    HW289762   5.911   5.528   8.525
62644SOL     OW89763   4.987   3.777   7.404
62644SOL    HW189764   4.934   3.788   7.325
62644SOL    HW289765   4.925   3.750   7.471
62645SOL     OW89766   2.380   8.943   1.868
62645SOL    HW189767   2.355   8.862   1.825
62645SOL    HW289768   2.434   8.989   1.803
62646SOL     OW89769   1.751  11.403   9.237
62646SOL    HW189770   1.724  11.481   9.284
62646SOL    HW289771   1.847  11.402   9.246
62647SOL     OW89772   3.685  13.919   1.677
62647SOL    HW189773   3.632  13.994   1.650
62647SOL    HW289774   3.644  13.844   1.635
62648SOL     OW89775   0.314   8.725   2.526
62648SOL    HW189776   0.314   8.635   2.558
62648SOL    HW289777   0.366   8.773   2.591
62649SOL     OW89778  14.561   0.151   4.587
62649SOL    HW189779  14.487   0.204   4.618
62649SOL    HW289780  14.521   0.073   4.549
62650SOL     OW89781   4.143   7.924  12.563
62650SOL    HW189782   4.150   7.995  12.499
62650SOL    HW289783   4.220   7.870  12.549
62651SOL     OW89784   6.815  10.372   1.948
62651SOL    HW189785   6.791  10.297   1.893
62651SOL    HW289786   6.900  10.350   1.985
62652SOL     OW89787   8.457   7.989   1.133
62652SOL    HW189788   8.451   8.071   1.182
62652SOL    HW289789   8.414   8.007   1.050
62653SOL     OW89790   8.775  11.534  12.328
62653SOL    HW189791   8.828  11.577  12.396
62653SOL    HW289792   8.701  11.593  12.315
62654SOL     OW89793  13.627   5.096   0.619
62654SOL    HW189794  13.540   5.136   0.619
62654SOL    HW289795  13.660   5.113   0.707
62655SOL     OW89796  14.375   7.475  10.554
62655SOL    HW189797  14.303   7.537  10.561
62655SOL    HW289798  14.406   7.463  10.644
62656SOL     OW89799  11.787   9.774  11.817
62656SOL    HW189800  11.839   9.694  11.815
62656SOL    HW289801  11.852   9.845  11.810
62657SOL     OW89802   2.514   9.610   3.864
62657SOL    HW189803   2.476   9.526   3.888
62657SOL    HW289804   2.568   9.592   3.788
62658SOL     OW89805  11.027   4.621  13.254
62658SOL    HW189806  10.992   4.663  13.175
62658SOL    HW289807  11.083   4.688  13.294
62659SOL     OW89808   2.582   6.922   6.741
62659SOL    HW189809   2.510   6.901   6.800
62659SOL    HW289810   2.653   6.951   6.799
62660SOL     OW89811   9.717  14.628   7.796
62660SOL    HW189812   9.715  14.714   7.754
62660SOL    HW289813   9.688  14.567   7.728
62661SOL     OW89814   6.328   7.298  12.640
62661SOL    HW189815   6.285   7.379  12.612
62661SOL    HW289816   6.289   7.278  12.725
62662SOL     OW89817  14.011  13.718  14.097
62662SOL    HW189818  14.056  13.795  14.062
62662SOL    HW289819  14.027  13.649  14.033
62663SOL     OW89820   7.718   2.458   3.722
62663SOL    HW189821   7.773   2.487   3.795
62663SOL    HW289822   7.655   2.398   3.761
62664SOL     OW89823   6.692   7.019  10.411
62664SOL    HW189824   6.690   7.043  10.318
62664SOL    HW289825   6.717   7.100  10.456
62665SOL     OW89826  12.079  12.572   4.046
62665SOL    HW189827  12.170  12.565   4.020
62665SOL    HW289828  12.059  12.489   4.089
62666SOL     OW89829  12.709   4.507   4.649
62666SOL    HW189830  12.635   4.532   4.705
62666SOL    HW289831  12.758   4.443   4.700
62667SOL     OW89832   7.612   9.060   6.655
62667SOL    HW189833   7.550   9.042   6.584
62667SOL    HW289834   7.632   9.153   6.645
62668SOL     OW89835   4.323  10.767   2.252
62668SOL    HW189836   4.408  10.768   2.296
62668SOL    HW289837   4.343  10.786   2.160
62669SOL     OW89838   4.102   2.649   3.376
62669SOL    HW189839   4.086   2.617   3.465
62669SOL    HW289840   4.154   2.728   3.388
62670SOL     OW89841   3.235  10.307   6.627
62670SOL    HW189842   3.210  10.226   6.583
62670SOL    HW289843   3.241  10.372   6.557
62671SOL     OW89844   5.982   3.617   5.906
62671SOL    HW189845   5.960   3.524   5.911
62671SOL    HW289846   5.993   3.644   5.998
62672SOL     OW89847   1.062   0.446  11.846
62672SOL    HW189848   1.017   0.423  11.927
62672SOL    HW289849   1.043   0.539  11.833
62673SOL     OW89850   1.813   4.972  14.458
62673SOL    HW189851   1.774   4.900  14.507
62673SOL    HW289852   1.889   4.998  14.510
62674SOL     OW89853   7.582   4.368   2.416
62674SOL    HW189854   7.529   4.397   2.342
62674SOL    HW289855   7.657   4.324   2.376
62675SOL     OW89856   0.370  14.623   5.946
62675SOL    HW189857   0.333  14.587   5.865
62675SOL    HW289858   0.425  14.554   5.981
62676SOL     OW89859   9.421   1.064  11.214
62676SOL    HW189860   9.369   0.999  11.262
62676SOL    HW289861   9.452   1.017  11.137
62677SOL     OW89862   8.941   7.288  13.968
62677SOL    HW189863   8.969   7.202  13.936
62677SOL    HW289864   8.872   7.269  14.030
62678SOL     OW89865   0.513   0.194   5.775
62678SOL    HW189866   0.549   0.106   5.772
62678SOL    HW289867   0.421   0.184   5.751
62679SOL     OW89868  11.588   2.457   7.996
62679SOL    HW189869  11.664   2.416   7.955
62679SOL    HW289870  11.513   2.417   7.953
62680SOL     OW89871   9.049  12.991   4.225
62680SOL    HW189872   9.100  13.051   4.171
62680SOL    HW289873   9.099  12.909   4.224
62681SOL     OW89874   9.002   0.088   8.936
62681SOL    HW189875   9.092   0.121   8.942
62681SOL    HW289876   8.991   0.035   9.015
62682SOL     OW89877   7.194   4.249   2.679
62682SOL    HW189878   7.216   4.293   2.761
62682SOL    HW289879   7.277   4.213   2.647
62683SOL     OW89880   4.996  13.650   9.089
62683SOL    HW189881   5.024  13.619   9.003
62683SOL    HW289882   5.063  13.619   9.150
62684SOL     OW89883  11.944   4.945   8.585
62684SOL    HW189884  11.893   5.026   8.590
62684SOL    HW289885  11.987   4.948   8.499
62685SOL     OW89886   0.552  10.558   0.245
62685SOL    HW189887   0.564  10.576   0.152
62685SOL    HW289888   0.615  10.490   0.265
62686SOL     OW89889   6.926   5.292  13.461
62686SOL    HW189890   6.999   5.348  13.490
62686SOL    HW289891   6.968   5.210  13.435
62687SOL     OW89892   7.375   1.601   7.273
62687SOL    HW189893   7.321   1.653   7.214
62687SOL    HW289894   7.382   1.516   7.231
62688SOL     OW89895   7.240   1.627   2.480
62688SOL    HW189896   7.220   1.676   2.560
62688SOL    HW289897   7.168   1.565   2.472
62689SOL     OW89898   4.648   7.382   4.814
62689SOL    HW189899   4.557   7.409   4.802
62689SOL    HW289900   4.681   7.368   4.725
62690SOL     OW89901   3.335  10.432   8.984
62690SOL    HW189902   3.302  10.474   8.904
62690SOL    HW289903   3.426  10.411   8.965
62691SOL     OW89904   7.453   6.771   1.174
62691SOL    HW189905   7.490   6.811   1.253
62691SOL    HW289906   7.527   6.728   1.132
62692SOL     OW89907   5.768   2.376   1.385
62692SOL    HW189908   5.748   2.446   1.324
62692SOL    HW289909   5.862   2.363   1.378
62693SOL     OW89910   6.758   8.524  13.834
62693SOL    HW189911   6.822   8.551  13.769
62693SOL    HW289912   6.719   8.605  13.866
62694SOL     OW89913   0.554   1.437  11.706
62694SOL    HW189914   0.583   1.456  11.617
62694SOL    HW289915   0.629   1.393  11.746
62695SOL     OW89916   2.230   5.511  10.354
62695SOL    HW189917   2.295   5.558  10.302
62695SOL    HW289918   2.174   5.579  10.391
62696SOL     OW89919   2.756   2.256   8.708
62696SOL    HW189920   2.782   2.241   8.799
62696SOL    HW289921   2.663   2.277   8.713
62697SOL     OW89922   2.554   1.154   4.233
62697SOL    HW189923   2.643   1.181   4.258
62697SOL    HW289924   2.560   1.059   4.221
62698SOL     OW89925   0.758   3.508   0.525
62698SOL    HW189926   0.739   3.588   0.478
62698SOL    HW289927   0.854   3.504   0.528
62699SOL     OW89928  12.232   1.245  14.196
62699SOL    HW189929  12.158   1.268  14.251
62699SOL    HW289930  12.309   1.276  14.244
62700SOL     OW89931   5.183   6.386   3.612
62700SOL    HW189932   5.146   6.386   3.523
62700SOL    HW289933   5.175   6.296   3.641
62701SOL     OW89934  14.744  13.359  11.968
62701SOL    HW189935  14.742  13.447  12.006
62701SOL    HW289936  14.837  13.339  11.959
62702SOL     OW89937   3.999   5.728  10.028
62702SOL    HW189938   4.009   5.778  10.110
62702SOL    HW289939   4.029   5.640  10.049
62703SOL     OW89940  12.598   3.314   2.046
62703SOL    HW189941  12.574   3.223   2.063
62703SOL    HW289942  12.650   3.309   1.966
62704SOL     OW89943  13.439   7.475  13.163
62704SOL    HW189944  13.404   7.437  13.082
62704SOL    HW289945  13.456   7.400  13.219
62705SOL     OW89946   0.624  13.564   1.703
62705SOL    HW189947   0.589  13.474   1.707
62705SOL    HW289948   0.601  13.602   1.787
62706SOL     OW89949   7.918   1.802   6.265
62706SOL    HW189950   7.920   1.811   6.361
62706SOL    HW289951   7.846   1.742   6.248
62707SOL     OW89952   8.418   3.487  12.965
62707SOL    HW189953   8.481   3.517  12.900
62707SOL    HW289954   8.427   3.549  13.038
62708SOL     OW89955  14.804  14.188   1.355
62708SOL    HW189956  14.748  14.265   1.359
62708SOL    HW289957  14.759  14.123   1.408
62709SOL     OW89958  14.003  13.389   7.417
62709SOL    HW189959  14.041  13.329   7.353
62709SOL    HW289960  13.910  13.365   7.421
62710SOL     OW89961   6.889  11.639  11.009
62710SOL    HW189962   6.812  11.592  11.040
62710SOL    HW289963   6.892  11.623  10.915
62711SOL     OW89964   9.969   7.652  14.856
62711SOL    HW189965  10.018   7.643   0.065
62711SOL    HW289966  10.035   7.674  14.790
62712SOL     OW89967   6.233  11.291   0.135
62712SOL    HW189968   6.305  11.352   0.146
62712SOL    HW289969   6.156  11.337   0.168
62713SOL     OW89970   8.126  10.364  12.199
62713SOL    HW189971   8.214  10.344  12.166
62713SOL    HW289972   8.072  10.291  12.170
62714SOL     OW89973  12.018   4.111   1.094
62714SOL    HW189974  12.112   4.125   1.082
62714SOL    HW289975  12.014   4.034   1.151
62715SOL     OW89976   3.284   9.373  12.281
62715SOL    HW189977   3.330   9.455  12.261
62715SOL    HW289978   3.205   9.400  12.327
62716SOL     OW89979   4.408  12.899  14.129
62716SOL    HW189980   4.367  12.907  14.042
62716SOL    HW289981   4.461  12.820  14.122
62717SOL     OW89982   0.647   4.451   9.143
62717SOL    HW189983   0.627   4.447   9.236
62717SOL    HW289984   0.570   4.493   9.104
62718SOL     OW89985   2.397   2.217   7.522
62718SOL    HW189986   2.404   2.215   7.427
62718SOL    HW289987   2.488   2.221   7.553
62719SOL     OW89988   1.601   3.366   9.617
62719SOL    HW189989   1.607   3.448   9.567
62719SOL    HW289990   1.639   3.300   9.560
62720SOL     OW89991   3.976   9.091   6.983
62720SOL    HW189992   3.886   9.064   7.004
62720SOL    HW289993   3.976   9.103   6.888
62721SOL     OW89994   1.396   6.963   3.008
62721SOL    HW189995   1.481   6.988   3.044
62721SOL    HW289996   1.332   6.996   3.071
62722SOL     OW89997   3.152   8.932   7.521
62722SOL    HW189998   3.144   9.026   7.503
62722SOL    HW289999   3.061   8.901   7.528
62723SOL     OW90000   5.929   5.855   2.118
62723SOL    HW190001   5.995   5.788   2.136
62723SOL    HW290002   5.972   5.917   2.060
62724SOL     OW90003   2.397  12.477   4.019
62724SOL    HW190004   2.360  12.462   4.107
62724SOL    HW290005   2.433  12.392   3.994
62725SOL     OW90006  14.399   6.316   2.397
62725SOL    HW190007  14.391   6.309   2.302
62725SOL    HW290008  14.479   6.268   2.418
62726SOL     OW90009  10.157   5.509   1.600
62726SOL    HW190010  10.087   5.490   1.538
62726SOL    HW290011  10.232   5.532   1.546
62727SOL     OW90012   0.692  14.853   7.170
62727SOL    HW190013   0.686  14.825   7.261
62727SOL    HW290014   0.776  14.818   7.140
62728SOL     OW90015   0.274  14.689  10.403
62728SOL    HW190016   0.203  14.660  10.461
62728SOL    HW290017   0.231  14.714  10.322
62729SOL     OW90018   9.131  10.761  10.587
62729SOL    HW190019   9.043  10.790  10.610
62729SOL    HW290020   9.146  10.799  10.500
62730SOL     OW90021  11.565   2.019   8.299
62730SOL    HW190022  11.551   1.955   8.229
62730SOL    HW290023  11.601   2.096   8.254
62731SOL     OW90024  12.136   0.523   7.116
62731SOL    HW190025  12.131   0.618   7.132
62731SOL    HW290026  12.179   0.488   7.195
62732SOL     OW90027  12.822   9.734   3.656
62732SOL    HW190028  12.733   9.704   3.673
62732SOL    HW290029  12.868   9.721   3.739
62733SOL     OW90030   5.035   0.595  11.745
62733SOL    HW190031   5.073   0.514  11.709
62733SOL    HW290032   5.066   0.664  11.686
62734SOL     OW90033  10.554  10.299   0.821
62734SOL    HW190034  10.593  10.214   0.840
62734SOL    HW290035  10.604  10.333   0.747
62735SOL     OW90036   7.397  10.656   8.495
62735SOL    HW190037   7.382  10.654   8.401
62735SOL    HW290038   7.461  10.587   8.511
62736SOL     OW90039   6.356   9.061   8.787
62736SOL    HW190040   6.413   8.994   8.750
62736SOL    HW290041   6.276   9.058   8.735
62737SOL     OW90042   5.870   5.523  13.715
62737SOL    HW190043   5.958   5.493  13.693
62737SOL    HW290044   5.880   5.616  13.737
62738SOL     OW90045   4.346  13.167  12.656
62738SOL    HW190046   4.387  13.177  12.570
62738SOL    HW290047   4.420  13.158  12.717
62739SOL     OW90048  10.755   3.997  13.358
62739SOL    HW190049  10.789   4.066  13.302
62739SOL    HW290050  10.733   3.926  13.298
62740SOL     OW90051  14.549   6.562   2.776
62740SOL    HW190052  14.459   6.529   2.772
62740SOL    HW290053  14.576   6.549   2.867
62741SOL     OW90054   3.366   5.457   0.014
62741SOL    HW190055   3.317   5.482   0.093
62741SOL    HW290056   3.436   5.401   0.047
62742SOL     OW90057   4.569   0.851  12.083
62742SOL    HW190058   4.525   0.816  12.005
62742SOL    HW290059   4.661   0.859  12.057
62743SOL     OW90060  10.261  10.304  12.675
62743SOL    HW190061  10.208  10.354  12.613
62743SOL    HW290062  10.348  10.341  12.667
62744SOL     OW90063   4.462   3.640  11.478
62744SOL    HW190064   4.413   3.714  11.515
62744SOL    HW290065   4.395   3.574  11.460
62745SOL     OW90066   1.082  10.834   0.105
62745SOL    HW190067   1.169  10.796   0.119
62745SOL    HW290068   1.059  10.808   0.016
62746SOL     OW90069  11.157   0.375   6.647
62746SOL    HW190070  11.234   0.377   6.591
62746SOL    HW290071  11.190   0.391   6.736
62747SOL     OW90072   7.700   6.761  13.881
62747SOL    HW190073   7.753   6.824  13.929
62747SOL    HW290074   7.695   6.795  13.792
62748SOL     OW90075  11.404  13.916  10.670
62748SOL    HW190076  11.347  13.959  10.734
62748SOL    HW290077  11.414  13.827  10.701
62749SOL     OW90078  11.207   5.318  14.464
62749SOL    HW190079  11.298   5.289  14.468
62749SOL    HW290080  11.155   5.239  14.480
62750SOL     OW90081   1.248  11.112   9.798
62750SOL    HW190082   1.322  11.111   9.859
62750SOL    HW290083   1.286  11.140   9.714
62751SOL     OW90084  14.324   8.441  14.124
62751SOL    HW190085  14.302   8.349  14.134
62751SOL    HW290086  14.369   8.464  14.206
62752SOL     OW90087  13.889   4.897   6.191
62752SOL    HW190088  13.874   4.967   6.128
62752SOL    HW290089  13.875   4.817   6.141
62753SOL     OW90090  12.153   5.625   4.969
62753SOL    HW190091  12.070   5.614   4.921
62753SOL    HW290092  12.159   5.547   5.024
62754SOL     OW90093   5.678   1.369   4.992
62754SOL    HW190094   5.611   1.347   5.057
62754SOL    HW290095   5.682   1.292   4.935
62755SOL     OW90096  12.938   4.032   8.086
62755SOL    HW190097  13.002   3.969   8.052
62755SOL    HW290098  12.868   3.978   8.123
62756SOL     OW90099   8.598  14.139   7.308
62756SOL    HW190100   8.614  14.053   7.269
62756SOL    HW290101   8.602  14.200   7.233
62757SOL     OW90102  11.602   8.819  10.408
62757SOL    HW190103  11.634   8.737  10.370
62757SOL    HW290104  11.599   8.880  10.335
62758SOL     OW90105   7.376   8.022   9.200
62758SOL    HW190106   7.305   8.085   9.199
62758SOL    HW290107   7.423   8.040   9.282
62759SOL     OW90108  14.565   3.775   0.856
62759SOL    HW190109  14.641   3.726   0.823
62759SOL    HW290110  14.549   3.739   0.943
62760SOL     OW90111   8.074  12.533   9.543
62760SOL    HW190112   8.060  12.550   9.450
62760SOL    HW290113   8.120  12.450   9.546
62761SOL     OW90114   1.259  11.649   9.074
62761SOL    HW190115   1.317  11.660   8.999
62761SOL    HW290116   1.309  11.596   9.136
62762SOL     OW90117   1.585   6.364   0.186
62762SOL    HW190118   1.525   6.289   0.191
62762SOL    HW290119   1.639   6.346   0.109
62763SOL     OW90120  13.609   6.941   0.171
62763SOL    HW190121  13.681   6.885   0.142
62763SOL    HW290122  13.619   6.946   0.266
62764SOL     OW90123  12.027   4.550   1.380
62764SOL    HW190124  12.121   4.535   1.366
62764SOL    HW290125  12.016   4.543   1.475
62765SOL     OW90126  12.893  13.777   0.039
62765SOL    HW190127  12.879  13.701   0.096
62765SOL    HW290128  12.812  13.828   0.047
62766SOL     OW90129  11.757   4.769   2.216
62766SOL    HW190130  11.818   4.698   2.196
62766SOL    HW290131  11.759   4.777   2.311
62767SOL     OW90132   2.391   3.042   7.562
62767SOL    HW190133   2.314   3.099   7.555
62767SOL    HW290134   2.465   3.102   7.570
62768SOL     OW90135  12.141  10.464   8.128
62768SOL    HW190136  12.164  10.384   8.082
62768SOL    HW290137  12.049  10.454   8.152
62769SOL     OW90138   9.615   9.146   8.411
62769SOL    HW190139   9.677   9.181   8.347
62769SOL    HW290140   9.625   9.202   8.488
62770SOL     OW90141   9.354   8.025   0.282
62770SOL    HW190142   9.364   8.005   0.375
62770SOL    HW290143   9.273   8.075   0.277
62771SOL     OW90144   7.737  11.808   1.214
62771SOL    HW190145   7.692  11.885   1.179
62771SOL    HW290146   7.789  11.776   1.140
62772SOL     OW90147  11.752   8.775   1.893
62772SOL    HW190148  11.806   8.701   1.864
62772SOL    HW290149  11.662   8.743   1.888
62773SOL     OW90150   9.377  10.748  11.551
62773SOL    HW190151   9.293  10.787  11.577
62773SOL    HW290152   9.357  10.701  11.470
62774SOL     OW90153  12.539  11.099   5.289
62774SOL    HW190154  12.535  11.159   5.363
62774SOL    HW290155  12.447  11.082   5.268
62775SOL     OW90156   4.877   7.607   8.307
62775SOL    HW190157   4.796   7.615   8.357
62775SOL    HW290158   4.904   7.697   8.291
62776SOL     OW90159   0.300   1.883  10.027
62776SOL    HW190160   0.364   1.919   9.966
62776SOL    HW290161   0.228   1.947  10.026
62777SOL     OW90162  10.387   3.952  13.852
62777SOL    HW190163  10.398   3.857  13.857
62777SOL    HW290164  10.473   3.985  13.828
62778SOL     OW90165   8.361   8.531  12.460
62778SOL    HW190166   8.444   8.483  12.451
62778SOL    HW290167   8.303   8.471  12.507
62779SOL     OW90168  11.802   5.468   5.060
62779SOL    HW190169  11.804   5.372   5.062
62779SOL    HW290170  11.832   5.495   5.147
62780SOL     OW90171   6.290   2.792   0.210
62780SOL    HW190172   6.264   2.810   0.120
62780SOL    HW290173   6.383   2.812   0.213
62781SOL     OW90174   6.795   6.996   3.604
62781SOL    HW190175   6.826   6.906   3.598
62781SOL    HW290176   6.869   7.049   3.576
62782SOL     OW90177  12.657   4.254  13.828
62782SOL    HW190178  12.704   4.176  13.858
62782SOL    HW290179  12.687   4.266  13.737
62783SOL     OW90180   3.493  13.636   9.766
62783SOL    HW190181   3.548  13.713   9.750
62783SOL    HW290182   3.530  13.597   9.845
62784SOL     OW90183   2.069   1.389  10.392
62784SOL    HW190184   2.153   1.369  10.350
62784SOL    HW290185   2.038   1.304  10.423
62785SOL     OW90186   8.044   6.124  14.575
62785SOL    HW190187   8.118   6.177  14.546
62785SOL    HW290188   8.081   6.066  14.642
62786SOL     OW90189   3.393   0.804   2.476
62786SOL    HW190190   3.306   0.819   2.511
62786SOL    HW290191   3.451   0.856   2.531
62787SOL     OW90192  13.504  13.695   4.827
62787SOL    HW190193  13.582  13.724   4.779
62787SOL    HW290194  13.523  13.604   4.849
62788SOL     OW90195   7.933   2.059   6.198
62788SOL    HW190196   7.991   2.090   6.267
62788SOL    HW290197   7.909   1.970   6.224
62789SOL     OW90198   3.603  13.336   9.205
62789SOL    HW190199   3.514  13.371   9.203
62789SOL    HW290200   3.659  13.414   9.207
62790SOL     OW90201   9.863   7.699  12.432
62790SOL    HW190202   9.819   7.635  12.376
62790SOL    HW290203   9.948   7.660  12.450
62791SOL     OW90204   5.591   6.919  11.601
62791SOL    HW190205   5.554   6.978  11.667
62791SOL    HW290206   5.638   6.853  11.652
62792SOL     OW90207   8.521   0.837   8.109
62792SOL    HW190208   8.588   0.866   8.046
62792SOL    HW290209   8.508   0.913   8.166
62793SOL     OW90210   1.070  11.703  13.953
62793SOL    HW190211   0.983  11.735  13.978
62793SOL    HW290212   1.088  11.632  14.015
62794SOL     OW90213   8.731   0.703   2.635
62794SOL    HW190214   8.806   0.660   2.675
62794SOL    HW290215   8.676   0.632   2.603
62795SOL     OW90216  11.573   3.788   5.860
62795SOL    HW190217  11.560   3.754   5.949
62795SOL    HW290218  11.540   3.719   5.803
62796SOL     OW90219   1.020   6.820  12.420
62796SOL    HW190220   1.062   6.739  12.450
62796SOL    HW290221   1.061   6.889  12.473
62797SOL     OW90222   4.265  13.120   9.387
62797SOL    HW190223   4.262  13.035   9.342
62797SOL    HW290224   4.254  13.099   9.479
62798SOL     OW90225   5.887  11.821  12.685
62798SOL    HW190226   5.925  11.852  12.767
62798SOL    HW290227   5.796  11.801  12.706
62799SOL     OW90228  12.742   9.753   0.176
62799SOL    HW190229  12.738   9.683   0.241
62799SOL    HW290230  12.652   9.760   0.145
62800SOL     OW90231   3.790  13.048  14.302
62800SOL    HW190232   3.876  13.085  14.324
62800SOL    HW290233   3.732  13.124  14.297
62801SOL     OW90234   6.922   2.229  13.517
62801SOL    HW190235   6.976   2.198  13.589
62801SOL    HW290236   6.833   2.203  13.540
62802SOL     OW90237  14.407  10.515  13.920
62802SOL    HW190238  14.495  10.485  13.899
62802SOL    HW290239  14.361  10.436  13.949
62803SOL     OW90240   8.469   7.877   4.711
62803SOL    HW190241   8.478   7.894   4.617
62803SOL    HW290242   8.556   7.850   4.739
62804SOL     OW90243   7.690   0.604  13.020
62804SOL    HW190244   7.759   0.573  13.079
62804SOL    HW290245   7.735   0.665  12.962
62805SOL     OW90246  11.462  14.643   4.357
62805SOL    HW190247  11.495  14.701   4.289
62805SOL    HW290248  11.412  14.700   4.415
62806SOL     OW90249   8.695   1.663   7.403
62806SOL    HW190250   8.778   1.709   7.410
62806SOL    HW290251   8.662   1.685   7.316
62807SOL     OW90252   5.862   3.500   7.846
62807SOL    HW190253   5.862   3.468   7.756
62807SOL    HW290254   5.922   3.442   7.892
62808SOL     OW90255   0.215   0.867   5.285
62808SOL    HW190256   0.126   0.835   5.301
62808SOL    HW290257   0.253   0.802   5.225
62809SOL     OW90258  14.042   4.575   1.282
62809SOL    HW190259  14.058   4.650   1.339
62809SOL    HW290260  14.125   4.560   1.237
62810SOL     OW90261   5.880   3.803   7.456
62810SOL    HW190262   5.790   3.813   7.485
62810SOL    HW290263   5.888   3.864   7.383
62811SOL     OW90264  10.445  12.494   5.110
62811SOL    HW190265  10.504  12.481   5.184
62811SOL    HW290266  10.503  12.492   5.033
62812SOL     OW90267  10.556   2.346   4.969
62812SOL    HW190268  10.566   2.403   4.892
62812SOL    HW290269  10.580   2.259   4.938
62813SOL     OW90270   4.793   7.609  12.539
62813SOL    HW190271   4.728   7.572  12.599
62813SOL    HW290272   4.876   7.573  12.569
62814SOL     OW90273   6.314   5.694  11.873
62814SOL    HW190274   6.302   5.631  11.802
62814SOL    HW290275   6.331   5.640  11.950
62815SOL     OW90276  13.773   4.401   5.774
62815SOL    HW190277  13.695   4.423   5.722
62815SOL    HW290278  13.773   4.305   5.778
62816SOL     OW90279   9.201   5.764   3.779
62816SOL    HW190280   9.190   5.679   3.821
62816SOL    HW290281   9.243   5.819   3.844
62817SOL     OW90282   6.791   2.649  13.404
62817SOL    HW190283   6.778   2.736  13.367
62817SOL    HW290284   6.739   2.648  13.484
62818SOL     OW90285  10.012   1.341   9.925
62818SOL    HW190286  10.025   1.431   9.956
62818SOL    HW290287  10.081   1.291   9.969
62819SOL     OW90288   5.668   3.344   9.303
62819SOL    HW190289   5.652   3.292   9.382
62819SOL    HW290290   5.613   3.421   9.314
62820SOL     OW90291   2.686  10.118   3.502
62820SOL    HW190292   2.766  10.092   3.456
62820SOL    HW290293   2.698  10.086   3.591
62821SOL     OW90294  11.167  11.851   7.956
62821SOL    HW190295  11.178  11.850   8.051
62821SOL    HW290296  11.225  11.782   7.924
62822SOL     OW90297  13.965  11.101   4.914
62822SOL    HW190298  13.985  11.176   4.970
62822SOL    HW290299  14.048  11.080   4.871
62823SOL     OW90300  12.072   3.813  11.110
62823SOL    HW190301  12.076   3.907  11.123
62823SOL    HW290302  11.985   3.788  11.140
62824SOL     OW90303   1.885  14.608   8.305
62824SOL    HW190304   1.848  14.588   8.391
62824SOL    HW290305   1.898  14.703   8.307
62825SOL     OW90306   1.581  12.037   5.298
62825SOL    HW190307   1.599  12.103   5.365
62825SOL    HW290308   1.631  12.066   5.222
62826SOL     OW90309   7.268  12.796   0.564
62826SOL    HW190310   7.318  12.729   0.517
62826SOL    HW290311   7.278  12.875   0.511
62827SOL     OW90312   2.010   5.059   0.230
62827SOL    HW190313   2.023   5.137   0.284
62827SOL    HW290314   2.091   5.009   0.240
62828SOL     OW90315   8.778   6.713   9.076
62828SOL    HW190316   8.865   6.673   9.071
62828SOL    HW290317   8.764   6.729   9.169
62829SOL     OW90318   1.876  13.639   4.455
62829SOL    HW190319   1.800  13.582   4.458
62829SOL    HW290320   1.947  13.583   4.424
62830SOL     OW90321  10.073  10.197   5.990
62830SOL    HW190322  10.057  10.243   6.072
62830SOL    HW290323  10.114  10.115   6.015
62831SOL     OW90324  13.323   0.509  10.515
62831SOL    HW190325  13.360   0.480  10.432
62831SOL    HW290326  13.235   0.541  10.492
62832SOL     OW90327   1.214   5.786  10.471
62832SOL    HW190328   1.191   5.694  10.486
62832SOL    HW290329   1.201   5.799  10.377
62833SOL     OW90330   9.225   4.601   3.756
62833SOL    HW190331   9.145   4.652   3.740
62833SOL    HW290332   9.196   4.510   3.753
62834SOL     OW90333   7.497   1.138   0.241
62834SOL    HW190334   7.496   1.200   0.168
62834SOL    HW290335   7.589   1.111   0.248
62835SOL     OW90336   8.187  12.847   1.868
62835SOL    HW190337   8.100  12.834   1.905
62835SOL    HW290338   8.230  12.909   1.927
62836SOL     OW90339   0.404   1.916   6.499
62836SOL    HW190340   0.365   2.001   6.478
62836SOL    HW290341   0.405   1.869   6.416
62837SOL     OW90342   8.410   9.628   7.416
62837SOL    HW190343   8.361   9.546   7.405
62837SOL    HW290344   8.446   9.646   7.329
62838SOL     OW90345   6.759   5.745   6.740
62838SOL    HW190346   6.705   5.670   6.765
62838SOL    HW290347   6.699   5.820   6.742
62839SOL     OW90348  10.424   6.996   2.606
62839SOL    HW190349  10.390   7.069   2.657
62839SOL    HW290350  10.420   6.921   2.666
62840SOL     OW90351  14.272   3.229   3.302
62840SOL    HW190352  14.338   3.212   3.235
62840SOL    HW290353  14.205   3.162   3.289
62841SOL     OW90354   8.100  14.225   5.997
62841SOL    HW190355   8.059  14.312   6.000
62841SOL    HW290356   8.162  14.226   6.070
62842SOL     OW90357   1.628   4.255   7.381
62842SOL    HW190358   1.561   4.295   7.438
62842SOL    HW290359   1.689   4.326   7.363
62843SOL     OW90360  13.988   2.239   1.226
62843SOL    HW190361  14.012   2.191   1.146
62843SOL    HW290362  13.892   2.245   1.222
62844SOL     OW90363   7.762  10.705   9.304
62844SOL    HW190364   7.799  10.657   9.230
62844SOL    HW290365   7.811  10.788   9.305
62845SOL     OW90366   8.045   3.502   8.452
62845SOL    HW190367   8.004   3.420   8.424
62845SOL    HW290368   8.108   3.476   8.519
62846SOL     OW90369   0.933  13.968   8.979
62846SOL    HW190370   1.017  13.933   9.008
62846SOL    HW290371   0.921  14.047   9.032
62847SOL     OW90372   1.971  11.672   0.718
62847SOL    HW190373   2.038  11.630   0.664
62847SOL    HW290374   1.996  11.649   0.808
62848SOL     OW90375   6.393  12.129  10.784
62848SOL    HW190376   6.353  12.052  10.824
62848SOL    HW290377   6.368  12.124  10.692
62849SOL     OW90378  11.592   2.072   7.918
62849SOL    HW190379  11.659   2.025   7.869
62849SOL    HW290380  11.561   2.010   7.984
62850SOL     OW90381   0.084   2.209   7.140
62850SOL    HW190382   0.148   2.231   7.072
62850SOL    HW290383   0.021   2.152   7.095
62851SOL     OW90384   8.469   8.062  11.630
62851SOL    HW190385   8.486   8.122  11.702
62851SOL    HW290386   8.414   7.993  11.668
62852SOL     OW90387   2.235  13.558  13.644
62852SOL    HW190388   2.147  13.520  13.639
62852SOL    HW290389   2.267  13.557  13.554
62853SOL     OW90390   2.053  14.443   4.364
62853SOL    HW190391   2.131  14.392   4.384
62853SOL    HW290392   1.982  14.378   4.362
62854SOL     OW90393   4.327  13.493   3.854
62854SOL    HW190394   4.289  13.534   3.932
62854SOL    HW290395   4.350  13.567   3.798
62855SOL     OW90396   2.531   0.213   5.842
62855SOL    HW190397   2.520   0.118   5.837
62855SOL    HW290398   2.541   0.232   5.935
62856SOL     OW90399   7.398   6.051   1.610
62856SOL    HW190400   7.343   6.029   1.685
62856SOL    HW290401   7.417   5.967   1.568
62857SOL     OW90402  14.857   4.811   2.186
62857SOL    HW190403   0.055   4.856   2.139
62857SOL    HW290404   0.025   4.730   2.217
62858SOL     OW90405   0.644   6.193   4.516
62858SOL    HW190406   0.722   6.236   4.481
62858SOL    HW290407   0.664   6.180   4.609
62859SOL     OW90408   3.111   7.237   2.768
62859SOL    HW190409   3.015   7.231   2.763
62859SOL    HW290410   3.132   7.317   2.719
62860SOL     OW90411   4.494   7.126   8.548
62860SOL    HW190412   4.532   7.097   8.465
62860SOL    HW290413   4.569   7.162   8.596
62861SOL     OW90414   5.125   7.371   4.718
62861SOL    HW190415   5.120   7.360   4.623
62861SOL    HW290416   5.046   7.330   4.751
62862SOL     OW90417   5.512   1.405   2.141
62862SOL    HW190418   5.543   1.484   2.184
62862SOL    HW290419   5.533   1.419   2.048
62863SOL     OW90420   5.259   0.175   0.254
62863SOL    HW190421   5.346   0.204   0.226
62863SOL    HW290422   5.211   0.256   0.272
62864SOL     OW90423   4.693   8.786  11.331
62864SOL    HW190424   4.683   8.700  11.290
62864SOL    HW290425   4.714   8.845  11.259
62865SOL     OW90426  11.096  14.672   4.514
62865SOL    HW190427  11.045  14.753   4.515
62865SOL    HW290428  11.174  14.692   4.565
62866SOL     OW90429   3.568   4.449   7.972
62866SOL    HW190430   3.598   4.359   7.962
62866SOL    HW290431   3.590   4.471   8.063
62867SOL     OW90432   0.059   1.271  14.555
62867SOL    HW190433  14.853   1.266  14.500
62867SOL    HW290434   0.132   1.276  14.493
62868SOL     OW90435   4.847   8.354   7.386
62868SOL    HW190436   4.756   8.383   7.393
62868SOL    HW290437   4.870   8.327   7.475
62869SOL     OW90438   6.140   7.111  12.382
62869SOL    HW190439   6.204   7.159  12.330
62869SOL    HW290440   6.157   7.019  12.363
62870SOL     OW90441   2.690   5.231   2.615
62870SOL    HW190442   2.760   5.249   2.679
62870SOL    HW290443   2.613   5.214   2.669
62871SOL     OW90444  13.651   9.630  10.207
62871SOL    HW190445  13.662   9.702  10.269
62871SOL    HW290446  13.587   9.572  10.248
62872SOL     OW90447  11.856  13.346  14.421
62872SOL    HW190448  11.941  13.380  14.448
62872SOL    HW290449  11.857  13.254  14.447
62873SOL     OW90450   2.545  14.526  13.454
62873SOL    HW190451   2.511  14.449  13.407
62873SOL    HW290452   2.623  14.494  13.499
62874SOL     OW90453   6.772   5.757   0.428
62874SOL    HW190454   6.808   5.669   0.420
62874SOL    HW290455   6.824   5.810   0.367
62875SOL     OW90456   4.272   3.469  11.449
62875SOL    HW190457   4.211   3.438  11.382
62875SOL    HW290458   4.303   3.390  11.493
62876SOL     OW90459   2.111   3.116   6.298
62876SOL    HW190460   2.024   3.137   6.331
62876SOL    HW290461   2.167   3.117   6.375
62877SOL     OW90462   1.371  14.384   0.413
62877SOL    HW190463   1.412  14.404   0.329
62877SOL    HW290464   1.399  14.294   0.431
62878SOL     OW90465  11.418  10.233   4.015
62878SOL    HW190466  11.373  10.269   4.092
62878SOL    HW290467  11.511  10.232   4.041
62879SOL     OW90468   9.564  14.658  13.888
62879SOL    HW190469   9.624  14.724  13.923
62879SOL    HW290470   9.535  14.609  13.965
62880SOL     OW90471   5.848  13.976   5.129
62880SOL    HW190472   5.832  13.994   5.222
62880SOL    HW290473   5.874  14.060   5.092
62881SOL     OW90474   6.754   4.746   0.420
62881SOL    HW190475   6.765   4.841   0.421
62881SOL    HW290476   6.726   4.724   0.509
62882SOL     OW90477   6.847   0.219   9.209
62882SOL    HW190478   6.859   0.135   9.254
62882SOL    HW290479   6.896   0.209   9.127
62883SOL     OW90480  13.836   9.858   7.991
62883SOL    HW190481  13.913   9.814   8.029
62883SOL    HW290482  13.827   9.938   8.043
62884SOL     OW90483   4.393   7.117   7.248
62884SOL    HW190484   4.341   7.059   7.193
62884SOL    HW290485   4.398   7.073   7.332
62885SOL     OW90486   2.917   9.677   2.084
62885SOL    HW190487   2.926   9.740   2.155
62885SOL    HW290488   2.914   9.731   2.004
62886SOL     OW90489   8.969   6.909   4.047
62886SOL    HW190490   8.962   6.816   4.026
62886SOL    HW290491   9.054   6.935   4.012
62887SOL     OW90492   3.749  12.934  10.239
62887SOL    HW190493   3.692  12.961  10.310
62887SOL    HW290494   3.723  12.991  10.165
62888SOL     OW90495   4.005   8.179  12.387
62888SOL    HW190496   3.993   8.090  12.352
62888SOL    HW290497   4.093   8.203  12.358
62889SOL     OW90498   6.391  14.687   7.521
62889SOL    HW190499   6.338  14.723   7.451
62889SOL    HW290500   6.342  14.612   7.554
62890SOL     OW90501   4.110   2.699   9.326
62890SOL    HW190502   4.100   2.790   9.298
62890SOL    HW290503   4.194   2.697   9.371
62891SOL     OW90504   0.576   4.785  11.892
62891SOL    HW190505   0.567   4.874  11.926
62891SOL    HW290506   0.487   4.753  11.882
62892SOL     OW90507   0.359   3.214   0.545
62892SOL    HW190508   0.416   3.244   0.474
62892SOL    HW290509   0.392   3.259   0.622
62893SOL     OW90510   4.504   3.759  11.225
62893SOL    HW190511   4.481   3.712  11.305
62893SOL    HW290512   4.578   3.709  11.188
62894SOL     OW90513   0.476   4.671  12.930
62894SOL    HW190514   0.414   4.633  12.991
62894SOL    HW290515   0.531   4.598  12.901
62895SOL     OW90516   2.511   2.079  11.779
62895SOL    HW190517   2.526   2.021  11.704
62895SOL    HW290518   2.431   2.126  11.758
62896SOL     OW90519   8.718  10.234  14.556
62896SOL    HW190520   8.753  10.145  14.545
62896SOL    HW290521   8.745  10.259  14.645
62897SOL     OW90522  12.967   8.690   8.197
62897SOL    HW190523  12.918   8.754   8.145
62897SOL    HW290524  12.986   8.619   8.136
62898SOL     OW90525  12.594   3.117  10.519
62898SOL    HW190526  12.538   3.067  10.459
62898SOL    HW290527  12.651   3.051  10.559
62899SOL     OW90528   0.998   1.574   9.297
62899SOL    HW190529   0.971   1.586   9.206
62899SOL    HW290530   1.001   1.663   9.333
62900SOL     OW90531  14.552   3.105   0.235
62900SOL    HW190532  14.591   3.193   0.239
62900SOL    HW290533  14.591   3.058   0.309
62901SOL     OW90534   6.447  10.385  10.020
62901SOL    HW190535   6.386  10.418  10.086
62901SOL    HW290536   6.515  10.340  10.071
62902SOL     OW90537   1.259   4.513   2.311
62902SOL    HW190538   1.210   4.584   2.352
62902SOL    HW290539   1.332   4.496   2.371
62903SOL     OW90540   9.381   0.468   4.585
62903SOL    HW190541   9.412   0.436   4.670
62903SOL    HW290542   9.286   0.474   4.595
62904SOL     OW90543   8.052   5.467   2.477
62904SOL    HW190544   7.972   5.496   2.522
62904SOL    HW290545   8.070   5.381   2.514
62905SOL     OW90546   1.879   3.784   6.506
62905SOL    HW190547   1.954   3.733   6.538
62905SOL    HW290548   1.899   3.874   6.533
62906SOL     OW90549   8.803  13.946   9.046
62906SOL    HW190550   8.759  13.864   9.025
62906SOL    HW290551   8.753  13.983   9.118
62907SOL     OW90552   8.594  11.965  14.560
62907SOL    HW190553   8.565  11.874  14.567
62907SOL    HW290554   8.689  11.960  14.567
62908SOL     OW90555   1.572   1.601   0.961
62908SOL    HW190556   1.568   1.523   0.906
62908SOL    HW290557   1.505   1.659   0.927
62909SOL     OW90558   4.723   3.744   0.919
62909SOL    HW190559   4.742   3.833   0.890
62909SOL    HW290560   4.633   3.749   0.953
62910SOL     OW90561  12.030  10.863   5.349
62910SOL    HW190562  11.969  10.796   5.317
62910SOL    HW290563  12.009  10.871   5.442
62911SOL     OW90564  13.145   5.380   1.326
62911SOL    HW190565  13.209   5.446   1.297
62911SOL    HW290566  13.110   5.415   1.408
62912SOL     OW90567   4.118  13.233  14.007
62912SOL    HW190568   4.095  13.304  14.066
62912SOL    HW290569   4.203  13.259  13.970
62913SOL     OW90570   2.549  12.575  11.542
62913SOL    HW190571   2.462  12.540  11.523
62913SOL    HW290572   2.543  12.668  11.519
62914SOL     OW90573  12.417   7.362   0.604
62914SOL    HW190574  12.464   7.360   0.520
62914SOL    HW290575  12.325   7.358   0.580
62915SOL     OW90576  11.795  12.900  11.682
62915SOL    HW190577  11.879  12.933  11.650
62915SOL    HW290578  11.749  12.872  11.604
62916SOL     OW90579  12.022   0.301   4.993
62916SOL    HW190580  11.977   0.216   4.995
62916SOL    HW290581  12.115   0.278   4.984
62917SOL     OW90582   7.033   1.369   0.108
62917SOL    HW190583   7.107   1.370   0.168
62917SOL    HW290584   7.064   1.321   0.031
62918SOL     OW90585   7.654  12.658   9.217
62918SOL    HW190586   7.694  12.678   9.132
62918SOL    HW290587   7.705  12.584   9.250
62919SOL     OW90588   1.594  14.319   6.600
62919SOL    HW190589   1.507  14.359   6.590
62919SOL    HW290590   1.576  14.227   6.622
62920SOL     OW90591  10.779  10.686   7.773
62920SOL    HW190592  10.847  10.652   7.832
62920SOL    HW290593  10.724  10.610   7.754
62921SOL     OW90594   3.189  10.121   0.331
62921SOL    HW190595   3.274  10.114   0.288
62921SOL    HW290596   3.205  10.174   0.409
62922SOL     OW90597   6.110   8.891   9.619
62922SOL    HW190598   6.099   8.861   9.709
62922SOL    HW290599   6.041   8.846   9.570
62923SOL     OW90600   2.222   2.101  14.597
62923SOL    HW190601   2.129   2.094  14.620
62923SOL    HW290602   2.249   2.186  14.632
62924SOL     OW90603  12.142  12.900  10.447
62924SOL    HW190604  12.155  12.805  10.447
62924SOL    HW290605  12.181  12.929  10.530
62925SOL     OW90606   5.665  11.567   4.337
62925SOL    HW190607   5.636  11.654   4.364
62925SOL    HW290608   5.760  11.568   4.352
62926SOL     OW90609   8.333   0.408  14.779
62926SOL    HW190610   8.241   0.431  14.768
62926SOL    HW290611   8.343   0.389  14.872
62927SOL     OW90612  12.696  11.259   3.580
62927SOL    HW190613  12.723  11.194   3.515
62927SOL    HW290614  12.607  11.282   3.555
62928SOL     OW90615   4.552   0.614  13.952
62928SOL    HW190616   4.644   0.638  13.948
62928SOL    HW290617   4.550   0.522  13.926
62929SOL     OW90618   2.321   1.800   2.411
62929SOL    HW190619   2.371   1.855   2.350
62929SOL    HW290620   2.252   1.762   2.357
62930SOL     OW90621   7.370   0.021   1.910
62930SOL    HW190622   7.348  14.861   1.822
62930SOL    HW290623   7.322   0.104   1.917
62931SOL     OW90624   6.737   6.041  12.687
62931SOL    HW190625   6.830   6.059  12.704
62931SOL    HW290626   6.727   6.051  12.593
62932SOL     OW90627  14.630   3.019   5.918
62932SOL    HW190628  14.662   2.992   5.832
62932SOL    HW290629  14.547   3.064   5.900
62933SOL     OW90630   8.432   6.353   2.510
62933SOL    HW190631   8.455   6.274   2.558
62933SOL    HW290632   8.337   6.362   2.522
62934SOL     OW90633  11.009  14.156  10.839
62934SOL    HW190634  10.937  14.215  10.858
62934SOL    HW290635  10.972  14.091  10.779
62935SOL     OW90636   6.625  13.604   1.441
62935SOL    HW190637   6.558  13.537   1.422
62935SOL    HW290638   6.639  13.647   1.357
62936SOL     OW90639   8.747   7.260  14.170
62936SOL    HW190640   8.805   7.255  14.246
62936SOL    HW290641   8.715   7.349  14.170
62937SOL     OW90642  10.863   2.788   9.129
62937SOL    HW190643  10.806   2.833   9.067
62937SOL    HW290644  10.916   2.857   9.169
62938SOL     OW90645  14.481   5.651  14.727
62938SOL    HW190646  14.396   5.611  14.746
62938SOL    HW290647  14.540   5.577  14.713
62939SOL     OW90648  10.242   8.637   8.449
62939SOL    HW190649  10.292   8.570   8.496
62939SOL    HW290650  10.301   8.712   8.444
62940SOL     OW90651   0.339   0.103   7.426
62940SOL    HW190652   0.345   0.187   7.380
62940SOL    HW290653   0.369   0.038   7.363
62941SOL     OW90654   8.749   6.336   4.719
62941SOL    HW190655   8.738   6.430   4.701
62941SOL    HW290656   8.842   6.325   4.735
62942SOL     OW90657  13.432   2.355  12.427
62942SOL    HW190658  13.418   2.289  12.495
62942SOL    HW290659  13.384   2.432  12.459
62943SOL     OW90660   6.327   5.229   1.466
62943SOL    HW190661   6.358   5.160   1.525
62943SOL    HW290662   6.390   5.299   1.475
62944SOL     OW90663  10.326   4.362   1.923
62944SOL    HW190664  10.388   4.291   1.939
62944SOL    HW290665  10.379   4.442   1.928
62945SOL     OW90666   5.112  10.358   0.567
62945SOL    HW190667   5.203  10.353   0.594
62945SOL    HW290668   5.115  10.380   0.474
62946SOL     OW90669   3.335   4.961   3.813
62946SOL    HW190670   3.364   4.952   3.904
62946SOL    HW290671   3.379   4.889   3.768
62947SOL     OW90672   0.839   0.077   3.093
62947SOL    HW190673   0.915   0.119   3.135
62947SOL    HW290674   0.813   0.138   3.024
62948SOL     OW90675  13.564   7.420   6.807
62948SOL    HW190676  13.578   7.326   6.816
62948SOL    HW290677  13.582   7.456   6.895
62949SOL     OW90678  10.097  11.810   1.860
62949SOL    HW190679  10.109  11.844   1.771
62949SOL    HW290680  10.087  11.888   1.914
62950SOL     OW90681  14.405   2.247   0.032
62950SOL    HW190682  14.327   2.216  14.858
62950SOL    HW290683  14.456   2.167   0.048
62951SOL     OW90684   8.044  10.646  10.733
62951SOL    HW190685   8.079  10.641  10.644
62951SOL    HW290686   8.120  10.626  10.788
62952SOL     OW90687   0.647   6.542   7.942
62952SOL    HW190688   0.678   6.453   7.960
62952SOL    HW290689   0.625   6.577   8.029
62953SOL     OW90690   8.374   1.958   1.048
62953SOL    HW190691   8.424   1.945   1.129
62953SOL    HW290692   8.380   2.052   1.031
62954SOL     OW90693  12.173   7.786  12.389
62954SOL    HW190694  12.096   7.800  12.334
62954SOL    HW290695  12.141   7.733  12.462
62955SOL     OW90696   9.626   4.829   9.893
62955SOL    HW190697   9.597   4.919   9.878
62955SOL    HW290698   9.589   4.780   9.819
62956SOL     OW90699   9.654   9.665   1.357
62956SOL    HW190700   9.675   9.594   1.296
62956SOL    HW290701   9.607   9.729   1.305
62957SOL     OW90702  13.356   2.515   4.696
62957SOL    HW190703  13.278   2.500   4.644
62957SOL    HW290704  13.330   2.492   4.785
62958SOL     OW90705   8.067  13.726   9.489
62958SOL    HW190706   8.137  13.776   9.532
62958SOL    HW290707   8.010  13.792   9.450
62959SOL     OW90708   8.493   9.588  14.572
62959SOL    HW190709   8.502   9.675  14.611
62959SOL    HW290710   8.563   9.583  14.507
62960SOL     OW90711  13.634   7.023   4.291
62960SOL    HW190712  13.595   7.084   4.354
62960SOL    HW290713  13.624   7.066   4.206
62961SOL     OW90714   5.716   9.266  13.813
62961SOL    HW190715   5.789   9.274  13.874
62961SOL    HW290716   5.756   9.266  13.726
62962SOL     OW90717   5.180  11.610   7.462
62962SOL    HW190718   5.252  11.578   7.408
62962SOL    HW290719   5.106  11.619   7.401
62963SOL     OW90720   4.061   6.884   0.361
62963SOL    HW190721   4.057   6.833   0.442
62963SOL    HW290722   4.151   6.916   0.357
62964SOL     OW90723   7.387   5.590  11.104
62964SOL    HW190724   7.459   5.609  11.164
62964SOL    HW290725   7.351   5.677  11.081
62965SOL     OW90726   7.580  14.014   3.871
62965SOL    HW190727   7.559  14.022   3.964
62965SOL    HW290728   7.604  14.103   3.844
62966SOL     OW90729   6.885   5.511   4.890
62966SOL    HW190730   6.812   5.510   4.828
62966SOL    HW290731   6.864   5.581   4.952
62967SOL     OW90732  10.444  13.417  14.121
62967SOL    HW190733  10.493  13.459  14.050
62967SOL    HW290734  10.471  13.463  14.200
62968SOL     OW90735   5.327   9.722   1.736
62968SOL    HW190736   5.382   9.801   1.739
62968SOL    HW290737   5.389   9.650   1.737
62969SOL     OW90738  12.800   3.905   5.347
62969SOL    HW190739  12.760   3.940   5.426
62969SOL    HW290740  12.749   3.943   5.275
62970SOL     OW90741   4.793   2.628   5.810
62970SOL    HW190742   4.705   2.611   5.776
62970SOL    HW290743   4.824   2.703   5.760
62971SOL     OW90744  11.557   7.710  14.060
62971SOL    HW190745  11.508   7.700  14.142
62971SOL    HW290746  11.537   7.799  14.031
62972SOL     OW90747   0.387  12.118   4.072
62972SOL    HW190748   0.414  12.044   4.019
62972SOL    HW290749   0.307  12.150   4.030
62973SOL     OW90750   5.369  10.312  12.967
62973SOL    HW190751   5.340  10.343  13.053
62973SOL    HW290752   5.322  10.367  12.904
62974SOL     OW90753   7.166   7.991   3.254
62974SOL    HW190754   7.082   7.980   3.209
62974SOL    HW290755   7.226   8.020   3.185
62975SOL     OW90756   0.589   9.789   2.843
62975SOL    HW190757   0.678   9.822   2.830
62975SOL    HW290758   0.545   9.803   2.759
62976SOL     OW90759  12.439   6.466   1.324
62976SOL    HW190760  12.396   6.443   1.242
62976SOL    HW290761  12.407   6.555   1.343
62977SOL     OW90762   6.853   1.680   8.128
62977SOL    HW190763   6.788   1.723   8.184
62977SOL    HW290764   6.808   1.665   8.045
62978SOL     OW90765  11.278  13.768  11.904
62978SOL    HW190766  11.195  13.784  11.947
62978SOL    HW290767  11.318  13.696  11.954
62979SOL     OW90768  13.339  12.282   4.175
62979SOL    HW190769  13.246  12.277   4.154
62979SOL    HW290770  13.383  12.241   4.101
62980SOL     OW90771   8.654  14.401   8.052
62980SOL    HW190772   8.592  14.374   8.119
62980SOL    HW290773   8.684  14.319   8.012
62981SOL     OW90774   3.992   5.009   7.396
62981SOL    HW190775   3.928   5.006   7.325
62981SOL    HW290776   4.029   5.097   7.391
62982SOL     OW90777  11.549   7.991   3.402
62982SOL    HW190778  11.538   8.064   3.462
62982SOL    HW290779  11.464   7.947   3.402
62983SOL     OW90780  10.332  10.639   1.542
62983SOL    HW190781  10.383  10.560   1.560
62983SOL    HW290782  10.330  10.645   1.447
62984SOL     OW90783  11.449   6.769  12.772
62984SOL    HW190784  11.418   6.767  12.863
62984SOL    HW290785  11.451   6.862  12.750
62985SOL     OW90786   0.697   5.874  14.027
62985SOL    HW190787   0.635   5.914  13.966
62985SOL    HW290788   0.773   5.852  13.974
62986SOL     OW90789   2.550  13.521   4.517
62986SOL    HW190790   2.637  13.511   4.479
62986SOL    HW290791   2.561  13.584   4.587
62987SOL     OW90792  13.333   3.230   7.941
62987SOL    HW190793  13.397   3.301   7.949
62987SOL    HW290794  13.363   3.164   8.003
62988SOL     OW90795   1.245   3.563  11.798
62988SOL    HW190796   1.217   3.555  11.707
62988SOL    HW290797   1.311   3.633  11.797
62989SOL     OW90798   9.448  13.349   6.125
62989SOL    HW190799   9.450  13.253   6.126
62989SOL    HW290800   9.365  13.371   6.081
62990SOL     OW90801   4.654   0.657   0.994
62990SOL    HW190802   4.705   0.592   0.948
62990SOL    HW290803   4.709   0.736   0.994
62991SOL     OW90804  10.550   9.172  10.041
62991SOL    HW190805  10.492   9.100  10.017
62991SOL    HW290806  10.612   9.178   9.968
62992SOL     OW90807   0.307   2.340  14.560
62992SOL    HW190808   0.276   2.399  14.628
62992SOL    HW290809   0.397   2.370  14.542
62993SOL     OW90810   5.082   6.504  14.589
62993SOL    HW190811   5.167   6.537  14.618
62993SOL    HW290812   5.101   6.421  14.547
62994SOL     OW90813   1.660   1.820   9.990
62994SOL    HW190814   1.664   1.899  10.044
62994SOL    HW290815   1.712   1.756  10.038
62995SOL     OW90816   3.685   7.632  11.339
62995SOL    HW190817   3.775   7.664  11.333
62995SOL    HW290818   3.692   7.545  11.379
62996SOL     OW90819   7.522   2.282  11.098
62996SOL    HW190820   7.466   2.358  11.080
62996SOL    HW290821   7.549   2.292  11.189
62997SOL     OW90822   4.377  10.054   0.872
62997SOL    HW190823   4.295  10.039   0.921
62997SOL    HW290824   4.441  10.077   0.939
62998SOL     OW90825   5.290  12.483   3.163
62998SOL    HW190826   5.303  12.575   3.187
62998SOL    HW290827   5.372  12.440   3.189
62999SOL     OW90828   5.928  12.182  10.829
62999SOL    HW190829   5.971  12.199  10.913
62999SOL    HW290830   5.841  12.221  10.838
63000SOL     OW90831   8.583  13.904   4.389
63000SOL    HW190832   8.557  13.813   4.374
63000SOL    HW290833   8.504  13.954   4.370
63001SOL     OW90834   3.618  10.024  12.374
63001SOL    HW190835   3.578  10.109  12.390
63001SOL    HW290836   3.642  10.026  12.282
63002SOL     OW90837   2.273   7.162   0.693
63002SOL    HW190838   2.305   7.120   0.772
63002SOL    HW290839   2.177   7.163   0.704
63003SOL     OW90840  10.575   2.009   3.425
63003SOL    HW190841  10.543   2.096   3.448
63003SOL    HW290842  10.496   1.957   3.411
63004SOL     OW90843  13.626   8.972  13.392
63004SOL    HW190844  13.634   9.067  13.405
63004SOL    HW290845  13.634   8.935  13.480
63005SOL     OW90846   0.712   7.995   2.270
63005SOL    HW190847   0.698   7.901   2.255
63005SOL    HW290848   0.740   8.000   2.362
63006SOL     OW90849   0.124   4.459   8.622
63006SOL    HW190850   0.047   4.515   8.607
63006SOL    HW290851   0.091   4.370   8.612
63007SOL     OW90852   2.436   5.967   1.039
63007SOL    HW190853   2.410   6.053   1.072
63007SOL    HW290854   2.409   5.906   1.108
63008SOL     OW90855   3.446  14.366  13.323
63008SOL    HW190856   3.503  14.313  13.267
63008SOL    HW290857   3.500  14.387  13.399
63009SOL     OW90858   6.853   3.079   6.293
63009SOL    HW190859   6.813   3.158   6.255
63009SOL    HW290860   6.831   3.009   6.231
63010SOL     OW90861   0.063   8.641   8.646
63010SOL    HW190862   0.152   8.639   8.609
63010SOL    HW290863   0.062   8.568   8.708
63011SOL     OW90864   7.616   8.516  13.801
63011SOL    HW190865   7.611   8.612  13.795
63011SOL    HW290866   7.669   8.489  13.726
63012SOL     OW90867   9.124  13.382   5.644
63012SOL    HW190868   9.065  13.449   5.609
63012SOL    HW290869   9.066  13.311   5.669
63013SOL     OW90870   3.831   7.840   8.110
63013SOL    HW190871   3.906   7.842   8.050
63013SOL    HW290872   3.813   7.747   8.123
63014SOL     OW90873   7.776   4.303  14.618
63014SOL    HW190874   7.846   4.366  14.601
63014SOL    HW290875   7.708   4.354  14.663
63015SOL     OW90876  11.135   9.346   2.007
63015SOL    HW190877  11.202   9.413   2.022
63015SOL    HW290878  11.080   9.349   2.084
63016SOL     OW90879  14.681   7.995   7.103
63016SOL    HW190880  14.743   8.062   7.074
63016SOL    HW290881  14.610   7.998   7.038
63017SOL     OW90882   8.536  13.603   9.225
63017SOL    HW190883   8.524  13.643   9.312
63017SOL    HW290884   8.452  13.563   9.205
63018SOL     OW90885   7.140  14.408   4.649
63018SOL    HW190886   7.075  14.380   4.585
63018SOL    HW290887   7.151  14.502   4.633
63019SOL     OW90888  13.218  10.395  12.728
63019SOL    HW190889  13.296  10.362  12.682
63019SOL    HW290890  13.250  10.418  12.816
63020SOL     OW90891   3.370   2.516  12.588
63020SOL    HW190892   3.320   2.597  12.581
63020SOL    HW290893   3.319   2.461  12.646
63021SOL     OW90894   5.030   1.386   5.977
63021SOL    HW190895   4.940   1.365   6.002
63021SOL    HW290896   5.084   1.331   6.034
63022SOL     OW90897   9.401   8.688  12.939
63022SOL    HW190898   9.432   8.747  13.007
63022SOL    HW290899   9.387   8.605  12.984
63023SOL     OW90900   8.689  11.114  10.861
63023SOL    HW190901   8.710  11.050  10.930
63023SOL    HW290902   8.758  11.180  10.868
63024SOL     OW90903   5.758   4.350   0.196
63024SOL    HW190904   5.750   4.266   0.151
63024SOL    HW290905   5.844   4.383   0.170
63025SOL     OW90906   0.824   0.137  12.092
63025SOL    HW190907   0.866   0.072  12.036
63025SOL    HW290908   0.868   0.127  12.177
63026SOL     OW90909   1.471   6.073   0.250
63026SOL    HW190910   1.550   6.035   0.289
63026SOL    HW290911   1.401   6.015   0.278
63027SOL     OW90912   4.704   7.387   7.761
63027SOL    HW190913   4.723   7.309   7.814
63027SOL    HW290914   4.719   7.460   7.821
63028SOL     OW90915   9.237  13.410   0.397
63028SOL    HW190916   9.210  13.491   0.441
63028SOL    HW290917   9.182  13.406   0.319
63029SOL     OW90918   0.504  11.817  12.545
63029SOL    HW190919   0.439  11.774  12.601
63029SOL    HW290920   0.505  11.765  12.465
63030SOL     OW90921   6.585   2.593   8.995
63030SOL    HW190922   6.652   2.619   9.058
63030SOL    HW290923   6.553   2.676   8.958
63031SOL     OW90924  10.363  14.825   3.769
63031SOL    HW190925  10.367  14.739   3.728
63031SOL    HW290926  10.300   0.002   3.716
63032SOL     OW90927   3.658  13.464   9.962
63032SOL    HW190928   3.691  13.539  10.011
63032SOL    HW290929   3.734  13.407   9.951
63033SOL     OW90930  12.050   1.578  14.195
63033SOL    HW190931  11.959   1.605  14.200
63033SOL    HW290932  12.099   1.659  14.181
63034SOL     OW90933   5.224   3.242   4.205
63034SOL    HW190934   5.318   3.260   4.204
63034SOL    HW290935   5.214   3.165   4.149
63035SOL     OW90936  11.473  11.940   8.529
63035SOL    HW190937  11.468  11.961   8.623
63035SOL    HW290938  11.549  11.990   8.498
63036SOL     OW90939  14.691   7.480   9.917
63036SOL    HW190940  14.608   7.438   9.893
63036SOL    HW290941  14.753   7.408   9.926
63037SOL     OW90942   9.319   0.728  14.008
63037SOL    HW190943   9.371   0.792  13.960
63037SOL    HW290944   9.312   0.653  13.949
63038SOL     OW90945  14.105   3.492   0.370
63038SOL    HW190946  14.113   3.483   0.465
63038SOL    HW290947  14.187   3.533   0.342
63039SOL     OW90948   1.120   2.491  12.086
63039SOL    HW190949   1.105   2.585  12.078
63039SOL    HW290950   1.124   2.475  12.181
63040SOL     OW90951   9.404  11.457   5.918
63040SOL    HW190952   9.309  11.469   5.925
63040SOL    HW290953   9.440  11.513   5.987
63041SOL     OW90954   9.080  14.421   4.671
63041SOL    HW190955   8.987  14.436   4.686
63041SOL    HW290956   9.124  14.466   4.743
63042SOL     OW90957   2.665  14.533   6.196
63042SOL    HW190958   2.602  14.462   6.190
63042SOL    HW290959   2.620  14.602   6.245
63043SOL     OW90960  14.008   8.601   7.222
63043SOL    HW190961  14.006   8.508   7.244
63043SOL    HW290962  13.918   8.621   7.194
63044SOL     OW90963   0.686   0.235   6.786
63044SOL    HW190964   0.765   0.241   6.840
63044SOL    HW290965   0.615   0.260   6.845
63045SOL     OW90966   6.549   7.361   5.555
63045SOL    HW190967   6.518   7.353   5.644
63045SOL    HW290968   6.619   7.428   5.560
63046SOL     OW90969   5.424  14.628   2.312
63046SOL    HW190970   5.402  14.676   2.392
63046SOL    HW290971   5.415  14.693   2.242
63047SOL     OW90972  13.426  12.720  13.187
63047SOL    HW190973  13.516  12.724  13.152
63047SOL    HW290974  13.372  12.700  13.111
63048SOL     OW90975   3.231  13.724   0.632
63048SOL    HW190976   3.203  13.802   0.583
63048SOL    HW290977   3.319  13.747   0.664
63049SOL     OW90978   2.407  13.454  13.896
63049SOL    HW190979   2.341  13.447  13.827
63049SOL    HW290980   2.434  13.364  13.914
63050SOL     OW90981   3.525   7.734   8.763
63050SOL    HW190982   3.511   7.648   8.803
63050SOL    HW290983   3.619   7.750   8.774
63051SOL     OW90984  10.763  12.119   8.116
63051SOL    HW190985  10.718  12.085   8.039
63051SOL    HW290986  10.699  12.111   8.187
63052SOL     OW90987  12.352   6.060  13.046
63052SOL    HW190988  12.326   6.152  13.032
63052SOL    HW290989  12.377   6.056  13.138
63053SOL     OW90990   3.715  14.429  12.294
63053SOL    HW190991   3.643  14.375  12.326
63053SOL    HW290992   3.794  14.391  12.333
63054SOL     OW90993   4.064   7.195   1.417
63054SOL    HW190994   4.115   7.251   1.359
63054SOL    HW290995   4.093   7.218   1.505
63055SOL     OW90996   1.718  13.850  12.717
63055SOL    HW190997   1.684  13.929  12.677
63055SOL    HW290998   1.809  13.844  12.686
63056SOL     OW90999   8.650   5.925  13.890
63056SOL    HW191000   8.607   5.845  13.859
63056SOL    HW291001   8.668   5.975  13.810
63057SOL     OW91002   1.742  13.000  11.769
63057SOL    HW191003   1.768  13.058  11.840
63057SOL    HW291004   1.819  12.944  11.754
63058SOL     OW91005   6.563   8.304   2.602
63058SOL    HW191006   6.531   8.214   2.600
63058SOL    HW291007   6.636   8.302   2.665
63059SOL     OW91008   8.227  12.792  13.269
63059SOL    HW191009   8.234  12.877  13.225
63059SOL    HW291010   8.266  12.730  13.207
63060SOL     OW91011   2.808   7.570   9.959
63060SOL    HW191012   2.881   7.613   9.914
63060SOL    HW291013   2.849   7.500  10.011
63061SOL     OW91014   7.348  10.146   2.825
63061SOL    HW191015   7.442  10.130   2.824
63061SOL    HW291016   7.330  10.178   2.914
63062SOL     OW91017   2.793  11.313   4.038
63062SOL    HW191018   2.707  11.281   4.064
63062SOL    HW291019   2.797  11.296   3.943
63063SOL     OW91020   1.731   8.458   6.077
63063SOL    HW191021   1.706   8.480   6.167
63063SOL    HW291022   1.745   8.363   6.079
63064SOL     OW91023   4.323   6.823  11.851
63064SOL    HW191024   4.410   6.784  11.862
63064SOL    HW291025   4.340   6.915  11.832
63065SOL     OW91026  10.968   7.085   5.594
63065SOL    HW191027  10.932   6.996   5.593
63065SOL    HW291028  11.042   7.081   5.653
63066SOL     OW91029  10.510   5.361   4.428
63066SOL    HW191030  10.597   5.379   4.393
63066SOL    HW291031  10.450   5.382   4.356
63067SOL     OW91032   0.116   0.878   2.425
63067SOL    HW191033   0.177   0.945   2.455
63067SOL    HW291034   0.046   0.926   2.381
63068SOL     OW91035   4.673  10.344  12.837
63068SOL    HW191036   4.758  10.386  12.853
63068SOL    HW291037   4.658  10.357  12.743
63069SOL     OW91038   9.981  12.265   5.366
63069SOL    HW191039   9.974  12.292   5.457
63069SOL    HW291040   9.937  12.180   5.362
63070SOL     OW91041  11.795   5.970  13.126
63070SOL    HW191042  11.797   5.990  13.219
63070SOL    HW291043  11.881   5.932  13.108
63071SOL     OW91044   7.284   9.612  14.285
63071SOL    HW191045   7.334   9.574  14.358
63071SOL    HW291046   7.350   9.659  14.234
63072SOL     OW91047  13.559   8.331   3.691
63072SOL    HW191048  13.513   8.259   3.647
63072SOL    HW291049  13.646   8.295   3.710
63073SOL     OW91050   5.446   5.880   2.286
63073SOL    HW191051   5.516   5.871   2.221
63073SOL    HW291052   5.460   5.966   2.325
63074SOL     OW91053   0.810   1.973   6.528
63074SOL    HW191054   0.809   2.060   6.568
63074SOL    HW291055   0.719   1.956   6.505
63075SOL     OW91056   1.115   4.692   9.950
63075SOL    HW191057   1.116   4.785   9.928
63075SOL    HW291058   1.022   4.670   9.958
63076SOL     OW91059  13.108   2.332  13.015
63076SOL    HW191060  13.087   2.333  13.109
63076SOL    HW291061  13.045   2.271  12.977
63077SOL     OW91062   5.854  11.612   6.175
63077SOL    HW191063   5.795  11.542   6.149
63077SOL    HW291064   5.797  11.680   6.210
63078SOL     OW91065   5.773  11.234   6.183
63078SOL    HW191066   5.766  11.249   6.088
63078SOL    HW291067   5.793  11.141   6.191
63079SOL     OW91068   0.442  12.336   7.960
63079SOL    HW191069   0.405  12.420   7.932
63079SOL    HW291070   0.531  12.336   7.924
63080SOL     OW91071   1.707  14.360  11.483
63080SOL    HW191072   1.748  14.289  11.531
63080SOL    HW291073   1.753  14.439  11.513
63081SOL     OW91074   0.737   4.553  11.136
63081SOL    HW191075   0.693   4.624  11.089
63081SOL    HW291076   0.743   4.583  11.226
63082SOL     OW91077  12.942  10.109  10.451
63082SOL    HW191078  12.876  10.089  10.384
63082SOL    HW291079  12.975  10.195  10.426
63083SOL     OW91080   0.049   1.950   8.807
63083SOL    HW191081  14.871   2.021   8.766
63083SOL    HW291082   0.131   1.948   8.758
63084SOL     OW91083   5.252   4.224   1.857
63084SOL    HW191084   5.204   4.275   1.791
63084SOL    HW291085   5.325   4.281   1.882
63085SOL     OW91086  11.788  11.014   8.448
63085SOL    HW191087  11.723  11.083   8.440
63085SOL    HW291088  11.804  10.984   8.359
63086SOL     OW91089  10.719   3.578   8.787
63086SOL    HW191090  10.669   3.651   8.825
63086SOL    HW291091  10.791   3.565   8.848
63087SOL     OW91092  12.670   8.845   6.565
63087SOL    HW191093  12.711   8.758   6.562
63087SOL    HW291094  12.648   8.858   6.657
63088SOL     OW91095   3.307   0.286  11.788
63088SOL    HW191096   3.278   0.198  11.766
63088SOL    HW291097   3.402   0.278  11.802
63089SOL     OW91098  12.181   3.783  13.490
63089SOL    HW191099  12.169   3.742  13.405
63089SOL    HW291100  12.168   3.877  13.474
63090SOL     OW91101   9.795   3.309  10.692
63090SOL    HW191102   9.873   3.289  10.641
63090SOL    HW291103   9.824   3.306  10.783
63091SOL     OW91104   5.601   4.434   7.547
63091SOL    HW191105   5.644   4.356   7.511
63091SOL    HW291106   5.665   4.504   7.536
63092SOL     OW91107   5.470   7.359   8.072
63092SOL    HW191108   5.417   7.390   8.145
63092SOL    HW291109   5.431   7.398   7.994
63093SOL     OW91110  11.103   2.304  13.847
63093SOL    HW191111  11.138   2.307  13.937
63093SOL    HW291112  11.167   2.351  13.795
63094SOL     OW91113   8.783  11.581   1.003
63094SOL    HW191114   8.698  11.623   0.993
63094SOL    HW291115   8.847  11.651   0.990
63095SOL     OW91116   0.499   6.634   0.684
63095SOL    HW191117   0.440   6.569   0.644
63095SOL    HW291118   0.455   6.660   0.765
63096SOL     OW91119  13.118  13.623   5.809
63096SOL    HW191120  13.186  13.556   5.812
63096SOL    HW291121  13.053  13.593   5.872
63097SOL     OW91122   3.822  14.846   6.517
63097SOL    HW191123   3.901  14.792   6.522
63097SOL    HW291124   3.847   0.057   6.557
63098SOL     OW91125   7.732   2.312   3.247
63098SOL    HW191126   7.725   2.397   3.291
63098SOL    HW291127   7.733   2.334   3.153
63099SOL     OW91128  14.206   7.774  11.632
63099SOL    HW191129  14.168   7.813  11.553
63099SOL    HW291130  14.153   7.808  11.704
63100SOL     OW91131  14.196  12.072  11.371
63100SOL    HW191132  14.210  11.982  11.400
63100SOL    HW291133  14.133  12.064  11.299
63101SOL     OW91134   4.906   8.247   7.658
63101SOL    HW191135   4.997   8.249   7.688
63101SOL    HW291136   4.875   8.159   7.680
63102SOL     OW91137   6.304  10.218   9.009
63102SOL    HW191138   6.350  10.281   8.953
63102SOL    HW291139   6.356  10.138   9.002
63103SOL     OW91140   5.698   8.135  10.368
63103SOL    HW191141   5.639   8.111  10.440
63103SOL    HW291142   5.770   8.073  10.374
63104SOL     OW91143   4.684   8.278   8.957
63104SOL    HW191144   4.744   8.350   8.974
63104SOL    HW291145   4.739   8.200   8.962
63105SOL     OW91146   8.272   1.727   2.902
63105SOL    HW191147   8.271   1.797   2.837
63105SOL    HW291148   8.265   1.773   2.986
63106SOL     OW91149   8.974  13.886   8.808
63106SOL    HW191150   8.932  13.951   8.864
63106SOL    HW291151   9.027  13.834   8.868
63107SOL     OW91152   8.785   2.779  11.209
63107SOL    HW191153   8.707   2.734  11.241
63107SOL    HW291154   8.752   2.853  11.159
63108SOL     OW91155   2.104  10.060   8.666
63108SOL    HW191156   2.198  10.059   8.652
63108SOL    HW291157   2.076   9.971   8.648
63109SOL     OW91158  13.335   6.701  10.167
63109SOL    HW191159  13.353   6.769  10.102
63109SOL    HW291160  13.270   6.740  10.226
63110SOL     OW91161  10.609   0.949   2.787
63110SOL    HW191162  10.637   0.860   2.764
63110SOL    HW291163  10.531   0.937   2.841
63111SOL     OW91164  11.162   5.373  10.106
63111SOL    HW191165  11.082   5.410  10.144
63111SOL    HW291166  11.226   5.376  10.177
63112SOL     OW91167  14.115  12.322   5.835
63112SOL    HW191168  14.046  12.320   5.769
63112SOL    HW291169  14.074  12.365   5.910
63113SOL     OW91170  10.444   4.015   7.153
63113SOL    HW191171  10.382   3.942   7.156
63113SOL    HW291172  10.392   4.090   7.126
63114SOL     OW91173   2.852  10.963   7.030
63114SOL    HW191174   2.948  10.968   7.024
63114SOL    HW291175   2.831  10.873   7.006
63115SOL     OW91176  10.786   2.835   0.884
63115SOL    HW191177  10.819   2.785   0.809
63115SOL    HW291178  10.720   2.779   0.923
63116SOL     OW91179  13.073   3.834   6.727
63116SOL    HW191180  13.071   3.927   6.704
63116SOL    HW291181  12.984   3.803   6.710
63117SOL     OW91182   8.360   2.644  10.253
63117SOL    HW191183   8.362   2.702  10.329
63117SOL    HW291184   8.321   2.562  10.285
63118SOL     OW91185   7.257   3.728  10.796
63118SOL    HW191186   7.225   3.638  10.807
63118SOL    HW291187   7.322   3.739  10.866
63119SOL     OW91188   6.852  13.425   8.565
63119SOL    HW191189   6.881  13.487   8.631
63119SOL    HW291190   6.848  13.476   8.484
63120SOL     OW91191   5.025  11.208  12.083
63120SOL    HW191192   5.047  11.115  12.079
63120SOL    HW291193   4.942  11.215  12.036
63121SOL     OW91194   7.834   8.113   2.866
63121SOL    HW191195   7.801   8.146   2.949
63121SOL    HW291196   7.843   8.019   2.880
63122SOL     OW91197   7.997   7.099   9.933
63122SOL    HW191198   7.976   7.053  10.015
63122SOL    HW291199   8.071   7.050   9.897
63123SOL     OW91200  13.365   7.442   7.661
63123SOL    HW191201  13.366   7.465   7.754
63123SOL    HW291202  13.312   7.510   7.620
63124SOL     OW91203   6.934   0.725  14.138
63124SOL    HW191204   6.913   0.640  14.178
63124SOL    HW291205   6.872   0.733  14.066
63125SOL     OW91206  12.788  10.047   6.719
63125SOL    HW191207  12.865  10.099   6.694
63125SOL    HW291208  12.784   9.977   6.654
63126SOL     OW91209   1.398  11.236   8.303
63126SOL    HW191210   1.445  11.228   8.220
63126SOL    HW291211   1.319  11.285   8.282
63127SOL     OW91212   4.230  10.011   3.841
63127SOL    HW191213   4.244   9.948   3.771
63127SOL    HW291214   4.318  10.030   3.874
63128SOL     OW91215   5.798  11.802   8.715
63128SOL    HW191216   5.752  11.719   8.697
63128SOL    HW291217   5.784  11.854   8.636
63129SOL     OW91218   8.210   3.314   0.608
63129SOL    HW191219   8.269   3.331   0.682
63129SOL    HW291220   8.266   3.273   0.542
63130SOL     OW91221   9.618  11.542   3.728
63130SOL    HW191222   9.680  11.496   3.672
63130SOL    HW291223   9.577  11.606   3.671
63131SOL     OW91224   1.971  10.123  10.991
63131SOL    HW191225   1.944  10.094  10.904
63131SOL    HW291226   1.900  10.096  11.049
63132SOL     OW91227   5.994  12.983   9.373
63132SOL    HW191228   6.022  13.009   9.461
63132SOL    HW291229   6.071  12.939   9.336
63133SOL     OW91230  12.262  10.797   6.876
63133SOL    HW191231  12.189  10.735   6.883
63133SOL    HW291232  12.261  10.845   6.959
63134SOL     OW91233  10.406   5.742  13.372
63134SOL    HW191234  10.411   5.809  13.304
63134SOL    HW291235  10.361   5.785  13.445
63135SOL     OW91236   3.903  10.907  12.894
63135SOL    HW191237   3.993  10.936  12.881
63135SOL    HW291238   3.879  10.940  12.980
63136SOL     OW91239   0.466   4.780  14.615
63136SOL    HW191240   0.407   4.740  14.679
63136SOL    HW291241   0.540   4.719  14.609
63137SOL     OW91242  11.305   1.335   8.412
63137SOL    HW191243  11.299   1.394   8.337
63137SOL    HW291244  11.310   1.393   8.488
63138SOL     OW91245   6.375   3.318  14.253
63138SOL    HW191246   6.321   3.255  14.300
63138SOL    HW291247   6.324   3.399  14.254
63139SOL     OW91248   9.957   8.486   5.192
63139SOL    HW191249   9.950   8.582   5.191
63139SOL    HW291250   9.889   8.457   5.130
63140SOL     OW91251   8.246   0.004   4.456
63140SOL    HW191252   8.294  14.796   4.474
63140SOL    HW291253   8.255   0.057   4.536
63141SOL     OW91254   1.540   0.641   1.054
63141SOL    HW191255   1.517   0.720   1.105
63141SOL    HW291256   1.495   0.653   0.971
63142SOL     OW91257  14.457  10.722   8.129
63142SOL    HW191258  14.528  10.757   8.184
63142SOL    HW291259  14.420  10.799   8.086
63143SOL     OW91260  11.881  12.058  13.409
63143SOL    HW191261  11.906  12.146  13.382
63143SOL    HW291262  11.873  12.064  13.504
63144SOL     OW91263   2.849   1.038   0.866
63144SOL    HW191264   2.882   1.078   0.785
63144SOL    HW291265   2.823   1.113   0.921
63145SOL     OW91266   0.431   4.122  11.687
63145SOL    HW191267   0.376   4.044  11.689
63145SOL    HW291268   0.432   4.149  11.595
63146SOL     OW91269   5.487   7.914  10.074
63146SOL    HW191270   5.439   7.843  10.116
63146SOL    HW291271   5.430   7.991  10.084
63147SOL     OW91272   2.800   2.380  14.222
63147SOL    HW191273   2.751   2.363  14.142
63147SOL    HW291274   2.886   2.411  14.192
63148SOL     OW91275  12.082  14.591   2.092
63148SOL    HW191276  11.995  14.555   2.106
63148SOL    HW291277  12.071  14.686   2.095
63149SOL     OW91278  12.433  14.623   3.980
63149SOL    HW191279  12.412  14.626   4.074
63149SOL    HW291280  12.522  14.658   3.974
63150SOL     OW91281  13.563  12.481   5.980
63150SOL    HW191282  13.513  12.562   5.967
63150SOL    HW291283  13.646  12.511   6.018
63151SOL     OW91284   9.633  13.816  10.532
63151SOL    HW191285   9.649  13.760  10.608
63151SOL    HW291286   9.688  13.893  10.547
63152SOL     OW91287   0.441   6.072   8.992
63152SOL    HW191288   0.386   5.993   8.989
63152SOL    HW291289   0.381   6.143   8.972
63153SOL     OW91290  13.103   9.472  14.224
63153SOL    HW191291  13.037   9.533  14.256
63153SOL    HW291292  13.098   9.478  14.129
63154SOL     OW91293  12.062   7.225  11.825
63154SOL    HW191294  12.152   7.196  11.840
63154SOL    HW291295  12.055   7.235  11.730
63155SOL     OW91296   3.665  13.300  10.385
63155SOL    HW191297   3.595  13.364  10.369
63155SOL    HW291298   3.742  13.340  10.346
63156SOL     OW91299  10.264   6.781  12.855
63156SOL    HW191300  10.197   6.742  12.799
63156SOL    HW291301  10.268   6.724  12.932
63157SOL     OW91302  12.462   0.055   5.106
63157SOL    HW191303  12.509   0.130   5.070
63157SOL    HW291304  12.391   0.093   5.157
63158SOL     OW91305   7.438  11.597   0.973
63158SOL    HW191306   7.465  11.554   1.054
63158SOL    HW291307   7.514  11.649   0.948
63159SOL     OW91308  13.446  12.168   2.496
63159SOL    HW191309  13.514  12.200   2.555
63159SOL    HW291310  13.462  12.074   2.489
63160SOL     OW91311   8.011   2.716  11.408
63160SOL    HW191312   8.024   2.786  11.345
63160SOL    HW291313   8.094   2.711  11.456
63161SOL     OW91314  14.340   8.837   2.972
63161SOL    HW191315  14.368   8.900   2.907
63161SOL    HW291316  14.386   8.863   3.052
63162SOL     OW91317  13.745   5.400  12.998
63162SOL    HW191318  13.698   5.432  12.921
63162SOL    HW291319  13.790   5.477  13.033
63163SOL     OW91320  12.792  11.489  14.276
63163SOL    HW191321  12.870  11.501  14.329
63163SOL    HW291322  12.719  11.500  14.337
63164SOL     OW91323   6.448   5.420   4.343
63164SOL    HW191324   6.365   5.465   4.329
63164SOL    HW291325   6.484   5.459   4.422
63165SOL     OW91326   1.558   1.043   4.649
63165SOL    HW191327   1.549   1.102   4.574
63165SOL    HW291328   1.471   1.004   4.660
63166SOL     OW91329   4.413   2.448   9.670
63166SOL    HW191330   4.469   2.512   9.627
63166SOL    HW291331   4.450   2.439   9.758
63167SOL     OW91332  13.248  10.646  13.435
63167SOL    HW191333  13.229  10.557  13.407
63167SOL    HW291334  13.282  10.689  13.357
63168SOL     OW91335   5.853   4.995   8.422
63168SOL    HW191336   5.784   4.967   8.482
63168SOL    HW291337   5.836   4.946   8.341
63169SOL     OW91338   3.260   5.308   7.602
63169SOL    HW191339   3.171   5.287   7.573
63169SOL    HW291340   3.273   5.400   7.577
63170SOL     OW91341   6.712   0.646  10.481
63170SOL    HW191342   6.690   0.738  10.494
63170SOL    HW291343   6.792   0.632  10.532
63171SOL     OW91344  10.641   9.726   4.980
63171SOL    HW191345  10.594   9.789   4.925
63171SOL    HW291346  10.641   9.645   4.928
63172SOL     OW91347  10.398   9.258   7.413
63172SOL    HW191348  10.375   9.188   7.352
63172SOL    HW291349  10.313   9.292   7.443
63173SOL     OW91350   9.725  13.700  14.109
63173SOL    HW191351   9.780  13.778  14.115
63173SOL    HW291352   9.757  13.653  14.032
63174SOL     OW91353  13.802   5.432   3.840
63174SOL    HW191354  13.865   5.418   3.911
63174SOL    HW291355  13.717   5.411   3.879
63175SOL     OW91356  10.761   0.836  11.163
63175SOL    HW191357  10.726   0.865  11.079
63175SOL    HW291358  10.830   0.900  11.183
63176SOL     OW91359  11.742   6.477   2.920
63176SOL    HW191360  11.698   6.456   2.838
63176SOL    HW291361  11.673   6.479   2.985
63177SOL     OW91362  12.778   6.102   0.144
63177SOL    HW191363  12.823   6.170   0.195
63177SOL    HW291364  12.688   6.103   0.178
63178SOL     OW91365  10.089  10.943  11.260
63178SOL    HW191366  10.146  11.018  11.276
63178SOL    HW291367  10.057  10.955  11.170
63179SOL     OW91368   1.810   5.109   7.753
63179SOL    HW191369   1.757   5.151   7.685
63179SOL    HW291370   1.882   5.170   7.769
63180SOL     OW91371   8.638  13.120   0.604
63180SOL    HW191372   8.731  13.112   0.583
63180SOL    HW291373   8.593  13.073   0.534
63181SOL     OW91374   7.116  12.481   2.687
63181SOL    HW191375   7.180  12.536   2.732
63181SOL    HW291376   7.049  12.542   2.656
63182SOL     OW91377   9.547   6.480   1.905
63182SOL    HW191378   9.630   6.475   1.857
63182SOL    HW291379   9.566   6.538   1.979
63183SOL     OW91380  14.144   1.517   0.309
63183SOL    HW191381  14.181   1.518   0.397
63183SOL    HW291382  14.215   1.547   0.252
63184SOL     OW91383   8.346   5.308   3.737
63184SOL    HW191384   8.353   5.268   3.824
63184SOL    HW291385   8.413   5.377   3.738
63185SOL     OW91386  10.874   0.352  11.322
63185SOL    HW191387  10.903   0.430  11.274
63185SOL    HW291388  10.803   0.316  11.269
63186SOL     OW91389   7.810  12.069   4.535
63186SOL    HW191390   7.816  12.070   4.439
63186SOL    HW291391   7.857  11.991   4.562
63187SOL     OW91392   6.928   9.323   4.870
63187SOL    HW191393   6.852   9.291   4.821
63187SOL    HW291394   6.981   9.369   4.805
63188SOL     OW91395  12.333   8.927   1.497
63188SOL    HW191396  12.369   8.974   1.572
63188SOL    HW291397  12.410   8.906   1.443
63189SOL     OW91398   1.661  11.724   2.807
63189SOL    HW191399   1.735  11.708   2.749
63189SOL    HW291400   1.682  11.675   2.886
63190SOL     OW91401  14.158  10.442   4.571
63190SOL    HW191402  14.175  10.453   4.665
63190SOL    HW291403  14.113  10.523   4.545
63191SOL     OW91404   2.919   9.355   1.798
63191SOL    HW191405   3.007   9.392   1.797
63191SOL    HW291406   2.868   9.414   1.854
63192SOL     OW91407   6.779  11.770   5.226
63192SOL    HW191408   6.740  11.837   5.170
63192SOL    HW291409   6.746  11.687   5.192
63193SOL     OW91410   2.884  13.948   2.326
63193SOL    HW191411   2.977  13.950   2.303
63193SOL    HW291412   2.876  14.012   2.397
63194SOL     OW91413   1.744   6.551   9.027
63194SOL    HW191414   1.706   6.580   8.944
63194SOL    HW291415   1.802   6.479   9.002
63195SOL     OW91416   2.041  12.607   0.485
63195SOL    HW191417   1.973  12.674   0.493
63195SOL    HW291418   2.066  12.610   0.392
63196SOL     OW91419   8.799   8.369  12.878
63196SOL    HW191420   8.854   8.319  12.938
63196SOL    HW291421   8.787   8.454  12.921
63197SOL     OW91422   9.982   6.413   1.465
63197SOL    HW191423   9.959   6.369   1.547
63197SOL    HW291424   9.904   6.464   1.442
63198SOL     OW91425   8.382  10.870   5.687
63198SOL    HW191426   8.355  10.820   5.610
63198SOL    HW291427   8.333  10.831   5.760
63199SOL     OW91428   5.705   1.225   4.514
63199SOL    HW191429   5.761   1.300   4.492
63199SOL    HW291430   5.629   1.234   4.457
63200SOL     OW91431  12.915   9.366   5.761
63200SOL    HW191432  12.839   9.352   5.704
63200SOL    HW291433  12.985   9.316   5.719
63201SOL     OW91434   4.764   1.095  14.531
63201SOL    HW191435   4.733   1.170  14.582
63201SOL    HW291436   4.685   1.061  14.489
63202SOL     OW91437  10.555   7.292   8.688
63202SOL    HW191438  10.489   7.302   8.620
63202SOL    HW291439  10.612   7.368   8.678
63203SOL     OW91440   9.519   9.933  12.391
63203SOL    HW191441   9.495  10.010  12.340
63203SOL    HW291442   9.441   9.877  12.388
63204SOL     OW91443   6.163   3.280  13.131
63204SOL    HW191444   6.226   3.219  13.093
63204SOL    HW291445   6.079   3.252  13.094
63205SOL     OW91446   4.575   6.698   1.666
63205SOL    HW191447   4.536   6.771   1.715
63205SOL    HW291448   4.620   6.740   1.592
63206SOL     OW91449  10.803  10.074   7.872
63206SOL    HW191450  10.868  10.009   7.899
63206SOL    HW291451  10.818  10.086   7.779
63207SOL     OW91452  11.146   5.531   2.733
63207SOL    HW191453  11.076   5.514   2.795
63207SOL    HW291454  11.226   5.506   2.779
63208SOL     OW91455   5.775   2.993  14.043
63208SOL    HW191456   5.761   2.929  13.974
63208SOL    HW291457   5.865   3.022  14.031
63209SOL     OW91458  11.387   3.083   3.202
63209SOL    HW191459  11.438   3.162   3.219
63209SOL    HW291460  11.423   3.017   3.261
63210SOL     OW91461  14.126   4.572   2.345
63210SOL    HW191462  14.074   4.492   2.355
63210SOL    HW291463  14.063   4.638   2.315
63211SOL     OW91464   5.848   2.096   5.405
63211SOL    HW191465   5.805   2.014   5.431
63211SOL    HW291466   5.815   2.112   5.316
63212SOL     OW91467  10.579  10.991  13.797
63212SOL    HW191468  10.544  10.903  13.810
63212SOL    HW291469  10.504  11.042  13.766
63213SOL     OW91470   9.121  14.397  13.228
63213SOL    HW191471   9.082  14.335  13.167
63213SOL    HW291472   9.173  14.456  13.173
63214SOL     OW91473   8.531  11.015   7.488
63214SOL    HW191474   8.493  11.019   7.576
63214SOL    HW291475   8.623  10.993   7.502
63215SOL     OW91476   8.856  14.618  11.390
63215SOL    HW191477   8.909  14.618  11.311
63215SOL    HW291478   8.826  14.709  11.398
63216SOL     OW91479   7.461   1.686   9.880
63216SOL    HW191480   7.438   1.716   9.792
63216SOL    HW291481   7.557   1.683   9.880
63217SOL     OW91482   5.957   9.233   0.884
63217SOL    HW191483   6.050   9.212   0.870
63217SOL    HW291484   5.941   9.210   0.976
63218SOL     OW91485   4.423   7.754   9.557
63218SOL    HW191486   4.479   7.803   9.617
63218SOL    HW291487   4.409   7.670   9.600
63219SOL     OW91488   4.116  14.257   6.555
63219SOL    HW191489   4.203  14.250   6.593
63219SOL    HW291490   4.070  14.179   6.586
63220SOL     OW91491   8.021   7.273   0.928
63220SOL    HW191492   8.028   7.178   0.934
63220SOL    HW291493   7.932   7.289   0.896
63221SOL     OW91494  12.314  11.816   4.839
63221SOL    HW191495  12.267  11.899   4.845
63221SOL    HW291496  12.295  11.771   4.922
63222SOL     OW91497  10.826  13.807   9.032
63222SOL    HW191498  10.897  13.816   8.968
63222SOL    HW291499  10.869  13.822   9.116
63223SOL     OW91500   6.883   8.032  13.628
63223SOL    HW191501   6.962   8.049  13.576
63223SOL    HW291502   6.917   8.010  13.715
63224SOL     OW91503   1.841   3.584  14.130
63224SOL    HW191504   1.755   3.605  14.094
63224SOL    HW291505   1.877   3.519  14.069
63225SOL     OW91506  12.363   9.402   5.029
63225SOL    HW191507  12.334   9.381   5.118
63225SOL    HW291508  12.383   9.496   5.032
63226SOL     OW91509  12.915   4.635  14.832
63226SOL    HW191510  12.925   4.623  14.738
63226SOL    HW291511  12.831   4.680  14.842
63227SOL     OW91512   2.262   9.477   7.719
63227SOL    HW191513   2.290   9.497   7.629
63227SOL    HW291514   2.246   9.562   7.759
63228SOL     OW91515  13.634   2.663   7.501
63228SOL    HW191516  13.709   2.689   7.554
63228SOL    HW291517  13.627   2.730   7.434
63229SOL     OW91518   0.569   4.946   4.796
63229SOL    HW191519   0.589   4.994   4.715
63229SOL    HW291520   0.502   4.883   4.770
63230SOL     OW91521   1.024   6.769   0.741
63230SOL    HW191522   1.098   6.712   0.759
63230SOL    HW291523   1.048   6.816   0.661
63231SOL     OW91524   7.467  11.467   3.865
63231SOL    HW191525   7.451  11.435   3.776
63231SOL    HW291526   7.543  11.417   3.895
63232SOL     OW91527  10.795   5.067   9.206
63232SOL    HW191528  10.746   5.137   9.249
63232SOL    HW291529  10.805   4.999   9.273
63233SOL     OW91530   2.763   1.977   9.719
63233SOL    HW191531   2.710   2.049   9.753
63233SOL    HW291532   2.703   1.903   9.715
63234SOL     OW91533  13.065   4.559  10.646
63234SOL    HW191534  13.111   4.612  10.712
63234SOL    HW291535  12.977   4.598  10.642
63235SOL     OW91536  13.016   9.688   5.297
63235SOL    HW191537  12.970   9.744   5.235
63235SOL    HW291538  13.050   9.748   5.364
63236SOL     OW91539   7.927   5.392   9.970
63236SOL    HW191540   7.958   5.411   9.882
63236SOL    HW291541   7.976   5.315   9.997
63237SOL     OW91542  13.310   6.265   0.744
63237SOL    HW191543  13.339   6.352   0.772
63237SOL    HW291544  13.309   6.214   0.825
63238SOL     OW91545   0.325   4.877   0.942
63238SOL    HW191546   0.357   4.882   0.852
63238SOL    HW291547   0.318   4.783   0.960
63239SOL     OW91548   3.284   4.413  10.117
63239SOL    HW191549   3.282   4.486  10.179
63239SOL    HW291550   3.373   4.378  10.125
63240SOL     OW91551   9.517  13.180   4.882
63240SOL    HW191552   9.499  13.194   4.789
63240SOL    HW291553   9.534  13.268   4.917
63241SOL     OW91554  14.721   1.030  10.758
63241SOL    HW191555  14.669   0.968  10.808
63241SOL    HW291556  14.781   1.068  10.823
63242SOL     OW91557   6.419  14.034  13.328
63242SOL    HW191558   6.351  13.971  13.303
63242SOL    HW291559   6.372  14.102  13.376
63243SOL     OW91560   1.544   5.577  13.700
63243SOL    HW191561   1.519   5.527  13.778
63243SOL    HW291562   1.632   5.609  13.720
63244SOL     OW91563   4.672  11.725   4.437
63244SOL    HW191564   4.658  11.817   4.413
63244SOL    HW291565   4.599  11.704   4.495
63245SOL     OW91566  14.124  10.254   9.281
63245SOL    HW191567  14.168  10.337   9.261
63245SOL    HW291568  14.138  10.200   9.203
63246SOL     OW91569   1.098   6.596   4.502
63246SOL    HW191570   1.138   6.558   4.423
63246SOL    HW291571   1.055   6.521   4.544
63247SOL     OW91572   6.684   8.990  11.424
63247SOL    HW191573   6.647   8.907  11.396
63247SOL    HW291574   6.688   9.043  11.344
63248SOL     OW91575   7.762  12.425  11.093
63248SOL    HW191576   7.849  12.416  11.132
63248SOL    HW291577   7.721  12.340  11.105
63249SOL     OW91578  12.810   0.340  14.454
63249SOL    HW191579  12.854   0.374  14.532
63249SOL    HW291580  12.850   0.255  14.439
63250SOL     OW91581   8.972  11.919   5.973
63250SOL    HW191582   9.053  11.904   6.023
63250SOL    HW291583   8.951  12.011   5.989
63251SOL     OW91584  13.190   6.827   8.345
63251SOL    HW191585  13.173   6.838   8.439
63251SOL    HW291586  13.120   6.877   8.303
63252SOL     OW91587   1.384   4.801  14.045
63252SOL    HW191588   1.304   4.766  14.007
63252SOL    HW291589   1.389   4.891  14.012
63253SOL     OW91590   6.055   8.871   2.426
63253SOL    HW191591   6.092   8.905   2.345
63253SOL    HW291592   6.056   8.945   2.486
63254SOL     OW91593   3.014   8.870  10.242
63254SOL    HW191594   2.998   8.801  10.178
63254SOL    HW291595   2.938   8.867  10.300
63255SOL     OW91596   2.325   1.061   1.977
63255SOL    HW191597   2.316   1.148   2.015
63255SOL    HW291598   2.389   1.017   2.033
63256SOL     OW91599   4.137   4.582  14.540
63256SOL    HW191600   4.082   4.638  14.485
63256SOL    HW291601   4.105   4.493  14.524
63257SOL     OW91602   6.187  12.036  11.935
63257SOL    HW191603   6.149  12.122  11.916
63257SOL    HW291604   6.136  12.003  12.009
63258SOL     OW91605   5.853  12.210  12.093
63258SOL    HW191606   5.759  12.195  12.107
63258SOL    HW291607   5.858  12.246  12.004
63259SOL     OW91608   4.939   3.402  10.196
63259SOL    HW191609   4.966   3.493  10.180
63259SOL    HW291610   4.915   3.400  10.288
63260SOL     OW91611   4.800   8.759  10.037
63260SOL    HW191612   4.826   8.681   9.988
63260SOL    HW291613   4.714   8.782  10.001
63261SOL     OW91614   6.871   4.612   5.927
63261SOL    HW191615   6.824   4.610   6.011
63261SOL    HW291616   6.805   4.588   5.862
63262SOL     OW91617   5.451  10.437  12.683
63262SOL    HW191618   5.477  10.424  12.592
63262SOL    HW291619   5.522  10.490  12.721
63263SOL     OW91620  10.795   7.462   3.099
63263SOL    HW191621  10.871   7.417   3.134
63263SOL    HW291622  10.721   7.405   3.120
63264SOL     OW91623  14.637   1.077   4.250
63264SOL    HW191624  14.669   1.061   4.339
63264SOL    HW291625  14.709   1.052   4.193
63265SOL     OW91626   7.520   7.405  11.502
63265SOL    HW191627   7.473   7.472  11.453
63265SOL    HW291628   7.450   7.351  11.541
63266SOL     OW91629   2.685   1.663  11.838
63266SOL    HW191630   2.618   1.714  11.882
63266SOL    HW291631   2.692   1.702  11.751
63267SOL     OW91632   5.382  13.360   7.226
63267SOL    HW191633   5.342  13.275   7.208
63267SOL    HW291634   5.339  13.420   7.165
63268SOL     OW91635   6.471   5.893   3.898
63268SOL    HW191636   6.445   5.967   3.953
63268SOL    HW291637   6.408   5.893   3.826
63269SOL     OW91638   0.767   7.085   1.190
63269SOL    HW191639   0.787   7.162   1.243
63269SOL    HW291640   0.842   7.027   1.202
63270SOL     OW91641   6.397   0.814   4.406
63270SOL    HW191642   6.449   0.856   4.337
63270SOL    HW291643   6.461   0.794   4.474
63271SOL     OW91644   4.487   4.102   9.236
63271SOL    HW191645   4.560   4.051   9.201
63271SOL    HW291646   4.481   4.179   9.179
63272SOL     OW91647  11.825   1.175  12.065
63272SOL    HW191648  11.895   1.116  12.034
63272SOL    HW291649  11.857   1.263  12.044
63273SOL     OW91650  10.283  12.519  14.851
63273SOL    HW191651  10.269  12.432  14.813
63273SOL    HW291652  10.265  12.579  14.779
63274SOL     OW91653  14.105  13.329  11.693
63274SOL    HW191654  14.190  13.359  11.662
63274SOL    HW291655  14.046  13.343  11.619
63275SOL     OW91656  14.834  13.485   8.282
63275SOL    HW191657   0.053  13.507   8.297
63275SOL    HW291658  14.819  13.509   8.190
63276SOL     OW91659  13.416   9.018   7.838
63276SOL    HW191660  13.327   9.041   7.864
63276SOL    HW291661  13.469   9.038   7.916
63277SOL     OW91662   7.823   7.611   3.782
63277SOL    HW191663   7.813   7.705   3.799
63277SOL    HW291664   7.763   7.594   3.709
63278SOL     OW91665  14.177  11.473  10.398
63278SOL    HW191666  14.272  11.463  10.395
63278SOL    HW291667  14.161  11.562  10.367
63279SOL     OW91668   3.190  13.863  11.644
63279SOL    HW191669   3.203  13.844  11.737
63279SOL    HW291670   3.096  13.883  11.637
63280SOL     OW91671  12.134   0.995  11.319
63280SOL    HW191672  12.043   1.013  11.296
63280SOL    HW291673  12.130   0.915  11.372
63281SOL     OW91674   8.298   4.908  14.780
63281SOL    HW191675   8.229   4.960  14.822
63281SOL    HW291676   8.255   4.871  14.702
63282SOL     OW91677   5.392   7.331   3.299
63282SOL    HW191678   5.422   7.251   3.342
63282SOL    HW291679   5.308   7.306   3.259
63283SOL     OW91680   7.107   5.278   9.317
63283SOL    HW191681   7.043   5.296   9.386
63283SOL    HW291682   7.180   5.237   9.363
63284SOL     OW91683  14.115  14.038  13.202
63284SOL    HW191684  14.125  14.026  13.297
63284SOL    HW291685  14.184  14.099  13.178
63285SOL     OW91686   5.372  13.568   5.292
63285SOL    HW191687   5.410  13.489   5.332
63285SOL    HW291688   5.375  13.551   5.198
63286SOL     OW91689   6.993  12.843   0.950
63286SOL    HW191690   6.963  12.768   0.897
63286SOL    HW291691   6.921  12.858   1.011
63287SOL     OW91692   8.552  12.227  14.793
63287SOL    HW191693   8.570  12.164  14.862
63287SOL    HW291694   8.504  12.177  14.726
63288SOL     OW91695   0.648  13.046   4.866
63288SOL    HW191696   0.617  13.134   4.847
63288SOL    HW291697   0.572  12.990   4.855
63289SOL     OW91698   6.901  12.643   4.119
63289SOL    HW191699   6.972  12.706   4.112
63289SOL    HW291700   6.867  12.655   4.208
63290SOL     OW91701   6.038  10.547  12.904
63290SOL    HW191702   6.065  10.455  12.905
63290SOL    HW291703   5.946  10.546  12.931
63291SOL     OW91704   9.174   7.999  10.000
63291SOL    HW191705   9.140   8.061   9.936
63291SOL    HW291706   9.209   7.927   9.948
63292SOL     OW91707   9.619   5.074   6.216
63292SOL    HW191708   9.659   5.122   6.289
63292SOL    HW291709   9.614   5.138   6.145
63293SOL     OW91710   6.121   9.219  13.858
63293SOL    HW191711   6.063   9.183  13.924
63293SOL    HW291712   6.085   9.305  13.837
63294SOL     OW91713  10.679   3.926   9.825
63294SOL    HW191714  10.607   3.986   9.845
63294SOL    HW291715  10.755   3.983   9.810
63295SOL     OW91716  10.982   3.897   5.201
63295SOL    HW191717  10.972   3.975   5.256
63295SOL    HW291718  10.932   3.918   5.122
63296SOL     OW91719   1.493   9.260  10.125
63296SOL    HW191720   1.403   9.233  10.144
63296SOL    HW291721   1.545   9.220  10.195
63297SOL     OW91722   6.053  10.647   3.834
63297SOL    HW191723   6.117  10.707   3.796
63297SOL    HW291724   6.103  10.591   3.893
63298SOL     OW91725  12.628  12.920   7.631
63298SOL    HW191726  12.683  12.953   7.560
63298SOL    HW291727  12.540  12.952   7.610
63299SOL     OW91728   5.741   0.256   7.785
63299SOL    HW191729   5.792   0.228   7.861
63299SOL    HW291730   5.748   0.352   7.786
63300SOL     OW91731  14.055   1.478   3.123
63300SOL    HW191732  14.054   1.390   3.160
63300SOL    HW291733  13.993   1.528   3.176
63301SOL     OW91734   9.567   0.282   1.116
63301SOL    HW191735   9.561   0.204   1.060
63301SOL    HW291736   9.646   0.327   1.086
63302SOL     OW91737   6.196  13.005   3.828
63302SOL    HW191738   6.175  12.997   3.735
63302SOL    HW291739   6.272  12.947   3.841
63303SOL     OW91740   1.120   9.259  10.124
63303SOL    HW191741   1.065   9.275  10.047
63303SOL    HW291742   1.122   9.164  10.134
63304SOL     OW91743  14.683  13.592   2.688
63304SOL    HW191744  14.612  13.595   2.752
63304SOL    HW291745  14.699  13.499   2.673
63305SOL     OW91746   5.515   2.600   1.562
63305SOL    HW191747   5.484   2.687   1.588
63305SOL    HW291748   5.551   2.614   1.474
63306SOL     OW91749   5.581   8.789  11.509
63306SOL    HW191750   5.513   8.759  11.448
63306SOL    HW291751   5.570   8.733  11.586
63307SOL     OW91752   1.525  13.172  12.558
63307SOL    HW191753   1.456  13.107  12.565
63307SOL    HW291754   1.538  13.185  12.464
63308SOL     OW91755   1.070   2.905   7.918
63308SOL    HW191756   1.116   2.966   7.861
63308SOL    HW291757   0.981   2.902   7.884
63309SOL     OW91758   8.201  11.756   0.886
63309SOL    HW191759   8.281  11.732   0.932
63309SOL    HW291760   8.199  11.851   0.889
63310SOL     OW91761   6.891   3.320   4.275
63310SOL    HW191762   6.986   3.328   4.271
63310SOL    HW291763   6.861   3.407   4.301
63311SOL     OW91764  10.927   5.315  13.373
63311SOL    HW191765  10.991   5.289  13.440
63311SOL    HW291766  10.903   5.233  13.330
63312SOL     OW91767   2.182   1.198  11.635
63312SOL    HW191768   2.154   1.156  11.554
63312SOL    HW291769   2.182   1.128  11.700
63313SOL     OW91770   8.021   2.569  10.503
63313SOL    HW191771   7.937   2.532  10.475
63313SOL    HW291772   8.029   2.651  10.453
63314SOL     OW91773   1.826  13.247   6.460
63314SOL    HW191774   1.872  13.291   6.531
63314SOL    HW291775   1.736  13.279   6.466
63315SOL     OW91776   8.522   8.509   8.744
63315SOL    HW191777   8.582   8.579   8.718
63315SOL    HW291778   8.437   8.553   8.754
63316SOL     OW91779  14.315  14.752   2.802
63316SOL    HW191780  14.238  14.732   2.749
63316SOL    HW291781  14.349  14.834   2.767
63317SOL     OW91782  12.293   2.023   9.423
63317SOL    HW191783  12.259   1.937   9.445
63317SOL    HW291784  12.381   2.007   9.390
63318SOL     OW91785  10.859  14.031  13.941
63318SOL    HW191786  10.941  14.079  13.950
63318SOL    HW291787  10.793  14.089  13.977
63319SOL     OW91788   3.559   9.647   2.819
63319SOL    HW191789   3.477   9.608   2.789
63319SOL    HW291790   3.597   9.688   2.742
63320SOL     OW91791  12.534   6.344  10.571
63320SOL    HW191792  12.613   6.320  10.523
63320SOL    HW291793  12.501   6.261  10.606
63321SOL     OW91794   2.578  12.383   1.811
63321SOL    HW191795   2.593  12.309   1.753
63321SOL    HW291796   2.500  12.358   1.861
63322SOL     OW91797  11.992   7.385  10.337
63322SOL    HW191798  11.988   7.404  10.431
63322SOL    HW291799  12.079   7.415  10.310
63323SOL     OW91800   9.231   1.710  12.381
63323SOL    HW191801   9.208   1.778  12.319
63323SOL    HW291802   9.213   1.628  12.335
63324SOL     OW91803   9.796   9.081  14.172
63324SOL    HW191804   9.873   9.137  14.180
63324SOL    HW291805   9.774   9.057  14.261
63325SOL     OW91806   3.712   6.671  11.171
63325SOL    HW191807   3.764   6.677  11.091
63325SOL    HW291808   3.642   6.736  11.159
63326SOL     OW91809   4.749   4.986  14.361
63326SOL    HW191810   4.762   5.028  14.276
63326SOL    HW291811   4.721   5.057  14.419
63327SOL     OW91812   5.911   5.397   0.341
63327SOL    HW191813   5.913   5.474   0.284
63327SOL    HW291814   5.894   5.324   0.282
63328SOL     OW91815   3.387   3.412  11.687
63328SOL    HW191816   3.458   3.391  11.625
63328SOL    HW291817   3.309   3.373  11.647
63329SOL     OW91818   0.513   8.595   8.913
63329SOL    HW191819   0.423   8.607   8.941
63329SOL    HW291820   0.563   8.661   8.961
63330SOL     OW91821  12.404  11.654   1.979
63330SOL    HW191822  12.440  11.579   2.027
63330SOL    HW291823  12.374  11.617   1.896
63331SOL     OW91824  13.782   2.025   6.934
63331SOL    HW191825  13.751   1.946   6.890
63331SOL    HW291826  13.835   1.994   7.007
63332SOL     OW91827   9.286   3.850   4.254
63332SOL    HW191828   9.198   3.877   4.226
63332SOL    HW291829   9.324   3.928   4.292
63333SOL     OW91830  13.344   4.544   4.215
63333SOL    HW191831  13.391   4.500   4.144
63333SOL    HW291832  13.404   4.612   4.246
63334SOL     OW91833   0.436  12.500   6.596
63334SOL    HW191834   0.488  12.452   6.532
63334SOL    HW291835   0.348  12.464   6.589
63335SOL     OW91836   6.295   9.135   5.313
63335SOL    HW191837   6.328   9.224   5.325
63335SOL    HW291838   6.286   9.125   5.218
63336SOL     OW91839   0.751  11.854  10.827
63336SOL    HW191840   0.827  11.813  10.868
63336SOL    HW291841   0.731  11.929  10.883
63337SOL     OW91842   1.365   0.588   3.892
63337SOL    HW191843   1.448   0.606   3.937
63337SOL    HW291844   1.318   0.671   3.895
63338SOL     OW91845   6.068   1.211   6.856
63338SOL    HW191846   5.974   1.226   6.843
63338SOL    HW291847   6.103   1.197   6.768
63339SOL     OW91848  13.363  11.083  13.363
63339SOL    HW191849  13.363  11.081  13.267
63339SOL    HW291850  13.449  11.050  13.388
63340SOL     OW91851  14.207   4.444  12.257
63340SOL    HW191852  14.217   4.539  12.253
63340SOL    HW291853  14.124   4.432  12.303
63341SOL     OW91854   1.553   4.837   0.112
63341SOL    HW191855   1.490   4.903   0.139
63341SOL    HW291856   1.577   4.792   0.193
63342SOL     OW91857  12.890   0.956   4.796
63342SOL    HW191858  12.898   0.868   4.832
63342SOL    HW291859  12.942   1.011   4.854
63343SOL     OW91860   5.697   7.722  10.340
63343SOL    HW191861   5.758   7.648  10.338
63343SOL    HW291862   5.752   7.799  10.329
63344SOL     OW91863  10.754   2.461   0.800
63344SOL    HW191864  10.805   2.462   0.881
63344SOL    HW291865  10.786   2.535   0.750
63345SOL     OW91866   6.953   7.290   8.607
63345SOL    HW191867   6.987   7.346   8.538
63345SOL    HW291868   6.974   7.336   8.688
63346SOL     OW91869  11.776  10.157  14.329
63346SOL    HW191870  11.783  10.110  14.246
63346SOL    HW291871  11.846  10.222  14.326
63347SOL     OW91872  10.158   6.740   2.164
63347SOL    HW191873  10.199   6.656   2.184
63347SOL    HW291874  10.157   6.787   2.247
63348SOL     OW91875  10.322  11.149   8.181
63348SOL    HW191876  10.292  11.058   8.173
63348SOL    HW291877  10.255  11.191   8.235
63349SOL     OW91878  12.225   2.500   6.921
63349SOL    HW191879  12.242   2.448   6.999
63349SOL    HW291880  12.131   2.516   6.923
63350SOL     OW91881   4.419   4.789   8.834
63350SOL    HW191882   4.495   4.847   8.842
63350SOL    HW291883   4.374   4.818   8.755
63351SOL     OW91884  10.850   3.978   0.542
63351SOL    HW191885  10.804   4.059   0.565
63351SOL    HW291886  10.859   3.981   0.447
63352SOL     OW91887   4.157   1.843   1.989
63352SOL    HW191888   4.199   1.923   1.957
63352SOL    HW291889   4.086   1.827   1.928
63353SOL     OW91890  14.326  10.584   9.976
63353SOL    HW191891  14.299  10.609  10.065
63353SOL    HW291892  14.365  10.498   9.986
63354SOL     OW91893   7.112   5.554   1.086
63354SOL    HW191894   7.118   5.516   1.174
63354SOL    HW291895   7.085   5.645   1.102
63355SOL     OW91896   9.651  10.368   0.948
63355SOL    HW191897   9.609  10.433   0.891
63355SOL    HW291898   9.692  10.420   1.017
63356SOL     OW91899   1.368   8.084   2.388
63356SOL    HW191900   1.406   8.091   2.476
63356SOL    HW291901   1.380   8.171   2.350
63357SOL     OW91902   3.758  14.760   2.013
63357SOL    HW191903   3.813  14.835   2.033
63357SOL    HW291904   3.820  14.690   1.992
63358SOL     OW91905   5.585  10.822  13.837
63358SOL    HW191906   5.631  10.779  13.764
63358SOL    HW291907   5.541  10.750  13.883
63359SOL     OW91908   9.376   9.819   1.045
63359SOL    HW191909   9.392   9.725   1.038
63359SOL    HW291910   9.432   9.848   1.117
63360SOL     OW91911   6.320   1.748   1.928
63360SOL    HW191912   6.329   1.753   1.833
63360SOL    HW291913   6.243   1.802   1.947
63361SOL     OW91914  11.822   6.147  11.142
63361SOL    HW191915  11.827   6.240  11.167
63361SOL    HW291916  11.872   6.101  11.209
63362SOL     OW91917  13.616   5.422  10.199
63362SOL    HW191918  13.704   5.453  10.217
63362SOL    HW291919  13.627   5.329  10.178
63363SOL     OW91920   6.337  10.074  14.123
63363SOL    HW191921   6.323  10.069  14.028
63363SOL    HW291922   6.427  10.045  14.136
63364SOL     OW91923   3.704   6.805  12.755
63364SOL    HW191924   3.664   6.806  12.841
63364SOL    HW291925   3.671   6.883  12.711
63365SOL     OW91926   2.203   2.549  14.469
63365SOL    HW191927   2.128   2.528  14.524
63365SOL    HW291928   2.273   2.569  14.531
63366SOL     OW91929   4.127   0.693   4.660
63366SOL    HW191930   4.136   0.782   4.693
63366SOL    HW291931   4.072   0.702   4.583
63367SOL     OW91932  13.106   4.938  12.053
63367SOL    HW191933  13.034   4.900  12.003
63367SOL    HW291934  13.156   4.988  11.989
63368SOL     OW91935   4.219   3.803  10.225
63368SOL    HW191936   4.282   3.780  10.156
63368SOL    HW291937   4.194   3.893  10.204
63369SOL     OW91938   4.748  12.659   1.399
63369SOL    HW191939   4.834  12.638   1.434
63369SOL    HW291940   4.735  12.596   1.328
63370SOL     OW91941   5.051   6.570  12.134
63370SOL    HW191942   4.989   6.563  12.206
63370SOL    HW291943   5.037   6.491  12.082
63371SOL     OW91944  14.001  13.957   5.898
63371SOL    HW191945  14.046  13.989   5.820
63371SOL    HW291946  13.911  13.943   5.869
63372SOL     OW91947  10.011   1.780   3.190
63372SOL    HW191948   9.945   1.818   3.249
63372SOL    HW291949  10.024   1.847   3.124
63373SOL     OW91950   0.040   6.239  12.148
63373SOL    HW191951  14.858   6.317  12.145
63373SOL    HW291952   0.006   6.189  12.222
63374SOL     OW91953   0.224   2.160   6.514
63374SOL    HW191954   0.255   2.186   6.427
63374SOL    HW291955   0.129   2.175   6.510
63375SOL     OW91956   8.202   1.409   6.009
63375SOL    HW191957   8.185   1.484   5.953
63375SOL    HW291958   8.295   1.418   6.032
63376SOL     OW91959   3.338   1.374   0.399
63376SOL    HW191960   3.256   1.374   0.349
63376SOL    HW291961   3.335   1.453   0.451
63377SOL     OW91962  12.948   6.516   5.299
63377SOL    HW191963  12.877   6.571   5.332
63377SOL    HW291964  12.910   6.469   5.225
63378SOL     OW91965   2.099   8.815  12.187
63378SOL    HW191966   2.047   8.778  12.115
63378SOL    HW291967   2.106   8.908  12.166
63379SOL     OW91968  10.454   0.247  11.231
63379SOL    HW191969  10.462   0.248  11.135
63379SOL    HW291970  10.499   0.326  11.260
63380SOL     OW91971  12.856   5.697  13.201
63380SOL    HW191972  12.820   5.770  13.251
63380SOL    HW291973  12.886   5.737  13.119
63381SOL     OW91974   9.802   4.118   9.931
63381SOL    HW191975   9.886   4.086   9.965
63381SOL    HW291976   9.747   4.041   9.928
63382SOL     OW91977   4.459  11.981   1.875
63382SOL    HW191978   4.468  11.889   1.852
63382SOL    HW291979   4.484  11.986   1.967
63383SOL     OW91980   2.164  14.528  12.709
63383SOL    HW191981   2.229  14.471  12.750
63383SOL    HW291982   2.134  14.480  12.632
63384SOL     OW91983  14.734  10.611   7.224
63384SOL    HW191984  14.648  10.578   7.197
63384SOL    HW291985  14.723  10.706   7.226
63385SOL     OW91986   2.550   4.412  13.688
63385SOL    HW191987   2.461   4.381  13.705
63385SOL    HW291988   2.539   4.500  13.654
63386SOL     OW91989  11.233   9.402   1.013
63386SOL    HW191990  11.152   9.355   1.032
63386SOL    HW291991  11.270   9.356   0.938
63387SOL     OW91992   6.563   3.767   1.294
63387SOL    HW191993   6.468   3.762   1.284
63387SOL    HW291994   6.576   3.783   1.388
63388SOL     OW91995   2.103  13.141   1.605
63388SOL    HW191996   2.091  13.176   1.693
63388SOL    HW291997   2.115  13.047   1.618
63389SOL     OW91998   8.212  13.069   2.830
63389SOL    HW191999   8.256  13.097   2.910
63389SOL    HW292000   8.119  13.065   2.853
63390SOL     OW92001  10.254  11.410   6.634
63390SOL    HW192002  10.214  11.333   6.593
63390SOL    HW292003  10.328  11.432   6.577
63391SOL     OW92004  13.082   6.088   2.355
63391SOL    HW192005  13.098   6.145   2.279
63391SOL    HW292006  13.169   6.055   2.378
63392SOL     OW92007   2.223   7.721   1.909
63392SOL    HW192008   2.310   7.696   1.941
63392SOL    HW292009   2.208   7.665   1.833
63393SOL     OW92010   7.459   9.208   7.079
63393SOL    HW192011   7.474   9.286   7.027
63393SOL    HW292012   7.451   9.137   7.015
63394SOL     OW92013  14.193  14.190  13.687
63394SOL    HW192014  14.158  14.246  13.756
63394SOL    HW292015  14.266  14.240  13.650
63395SOL     OW92016   5.960   8.228   0.449
63395SOL    HW192017   6.002   8.142   0.461
63395SOL    HW292018   6.016   8.274   0.387
63396SOL     OW92019   4.346   5.865   6.086
63396SOL    HW192020   4.374   5.885   5.997
63396SOL    HW292021   4.378   5.938   6.139
63397SOL     OW92022   0.416   1.998  10.763
63397SOL    HW192023   0.402   2.053  10.686
63397SOL    HW292024   0.344   2.022  10.822
63398SOL     OW92025   4.655   2.567  12.576
63398SOL    HW192026   4.694   2.488  12.614
63398SOL    HW292027   4.669   2.634  12.642
63399SOL     OW92028   5.243  14.789  12.753
63399SOL    HW192029   5.212  14.705  12.787
63399SOL    HW292030   5.178  14.816  12.689
63400SOL     OW92031   7.257   5.729   3.874
63400SOL    HW192032   7.258   5.794   3.944
63400SOL    HW292033   7.177   5.679   3.888
63401SOL     OW92034  12.678   9.959   5.883
63401SOL    HW192035  12.734   9.953   5.960
63401SOL    HW292036  12.696   9.878   5.835
63402SOL     OW92037  12.622   8.770   2.906
63402SOL    HW192038  12.616   8.827   2.829
63402SOL    HW292039  12.715   8.765   2.925
63403SOL     OW92040   1.766  10.954  14.145
63403SOL    HW192041   1.852  10.931  14.180
63403SOL    HW292042   1.704  10.906  14.200
63404SOL     OW92043  14.578   3.157   9.863
63404SOL    HW192044  14.532   3.087   9.908
63404SOL    HW292045  14.641   3.190   9.928
63405SOL     OW92046   2.303  12.294  10.492
63405SOL    HW192047   2.312  12.204  10.462
63405SOL    HW292048   2.222  12.325  10.452
63406SOL     OW92049   4.179   6.518   7.091
63406SOL    HW192050   4.123   6.590   7.063
63406SOL    HW292051   4.178   6.456   7.018
63407SOL     OW92052   5.574   0.550  14.445
63407SOL    HW192053   5.574   0.606  14.367
63407SOL    HW292054   5.632   0.596  14.507
63408SOL     OW92055   7.476   6.927   0.463
63408SOL    HW192056   7.451   7.008   0.508
63408SOL    HW292057   7.535   6.956   0.394
63409SOL     OW92058   1.293   3.998   4.219
63409SOL    HW192059   1.368   3.939   4.213
63409SOL    HW292060   1.327   4.075   4.263
63410SOL     OW92061  10.356   7.437   7.385
63410SOL    HW192062  10.403   7.375   7.328
63410SOL    HW292063  10.316   7.381   7.452
63411SOL     OW92064   6.710   5.283   1.438
63411SOL    HW192065   6.725   5.198   1.398
63411SOL    HW292066   6.648   5.327   1.380
63412SOL     OW92067  14.657   8.869   8.264
63412SOL    HW192068  14.751   8.886   8.261
63412SOL    HW292069  14.644   8.800   8.199
63413SOL     OW92070  11.128   7.164   8.242
63413SOL    HW192071  11.091   7.252   8.230
63413SOL    HW292072  11.116   7.122   8.156
63414SOL     OW92073   5.694   1.692  10.623
63414SOL    HW192074   5.706   1.782  10.654
63414SOL    HW292075   5.628   1.700  10.554
63415SOL     OW92076   5.673   2.309   9.708
63415SOL    HW192077   5.722   2.227   9.719
63415SOL    HW292078   5.697   2.339   9.620
63416SOL     OW92079   0.293  10.811   8.387
63416SOL    HW192080   0.289  10.891   8.334
63416SOL    HW292081   0.313  10.741   8.324
63417SOL     OW92082   7.840   4.011  10.372
63417SOL    HW192083   7.779   3.941  10.393
63417SOL    HW292084   7.874   3.987  10.285
63418SOL     OW92085   9.285   0.806   4.448
63418SOL    HW192086   9.326   0.837   4.529
63418SOL    HW292087   9.215   0.868   4.432
63419SOL     OW92088   3.705  12.192   3.771
63419SOL    HW192089   3.688  12.213   3.862
63419SOL    HW292090   3.798  12.170   3.767
63420SOL     OW92091   1.529   1.760   4.021
63420SOL    HW192092   1.530   1.692   3.953
63420SOL    HW292093   1.550   1.841   3.975
63421SOL     OW92094  10.701   5.441   6.561
63421SOL    HW192095  10.781   5.389   6.561
63421SOL    HW292096  10.729   5.527   6.592
63422SOL     OW92097   4.337   8.591  10.654
63422SOL    HW192098   4.287   8.516  10.623
63422SOL    HW292099   4.345   8.578  10.748
63423SOL     OW92100  12.474   6.072  14.248
63423SOL    HW192101  12.564   6.099  14.228
63423SOL    HW292102  12.421   6.121  14.185
63424SOL     OW92103   5.363  10.924  10.080
63424SOL    HW192104   5.288  10.923  10.141
63424SOL    HW292105   5.433  10.880  10.128
63425SOL     OW92106  10.092  13.385   4.590
63425SOL    HW192107  10.107  13.374   4.684
63425SOL    HW292108  10.115  13.476   4.573
63426SOL     OW92109  10.371   9.345   4.043
63426SOL    HW192110  10.361   9.410   4.112
63426SOL    HW292111  10.318   9.379   3.971
63427SOL     OW92112  12.169   5.900  10.754
63427SOL    HW192113  12.196   5.958  10.825
63427SOL    HW292114  12.076   5.921  10.741
63428SOL     OW92115  13.429  11.231  11.423
63428SOL    HW192116  13.337  11.224  11.397
63428SOL    HW292117  13.464  11.143  11.411
63429SOL     OW92118   0.563  12.445   8.755
63429SOL    HW192119   0.572  12.371   8.695
63429SOL    HW292120   0.524  12.407   8.834
63430SOL     OW92121   2.229  10.533   3.038
63430SOL    HW192122   2.301  10.553   3.098
63430SOL    HW292123   2.162  10.492   3.093
63431SOL     OW92124  10.386   4.215   8.324
63431SOL    HW192125  10.387   4.310   8.320
63431SOL    HW292126  10.377   4.195   8.417
63432SOL     OW92127   0.674   9.904   6.005
63432SOL    HW192128   0.620   9.836   5.966
63432SOL    HW292129   0.659   9.896   6.099
63433SOL     OW92130   3.136   9.761   6.798
63433SOL    HW192131   3.091   9.681   6.824
63433SOL    HW292132   3.217   9.731   6.757
63434SOL     OW92133   5.624  11.959  10.568
63434SOL    HW192134   5.619  11.990  10.659
63434SOL    HW292135   5.708  11.990  10.537
63435SOL     OW92136  11.347  12.050   2.294
63435SOL    HW192137  11.383  12.033   2.207
63435SOL    HW292138  11.253  12.035   2.284
63436SOL     OW92139   4.975  11.746  13.800
63436SOL    HW192140   5.019  11.829  13.787
63436SOL    HW292141   4.901  11.748  13.739
63437SOL     OW92142   8.697   0.751   6.046
63437SOL    HW192143   8.607   0.724   6.029
63437SOL    HW292144   8.689   0.841   6.078
63438SOL     OW92145  11.554   2.477   4.360
63438SOL    HW192146  11.564   2.384   4.379
63438SOL    HW292147  11.486   2.507   4.420
63439SOL     OW92148   2.467   3.402   9.895
63439SOL    HW192149   2.470   3.408   9.799
63439SOL    HW292150   2.375   3.416   9.917
63440SOL     OW92151   3.356   5.495   2.455
63440SOL    HW192152   3.436   5.483   2.506
63440SOL    HW292153   3.289   5.518   2.519
63441SOL     OW92154  14.353   6.041  13.499
63441SOL    HW192155  14.365   6.066  13.407
63441SOL    HW292156  14.442   6.041  13.536
63442SOL     OW92157   4.268   8.053   5.047
63442SOL    HW192158   4.345   7.999   5.037
63442SOL    HW292159   4.225   8.021   5.126
63443SOL     OW92160   4.274   8.941  12.683
63443SOL    HW192161   4.352   8.933  12.628
63443SOL    HW292162   4.266   8.855  12.725
63444SOL     OW92163   3.536   6.028   6.683
63444SOL    HW192164   3.492   5.944   6.671
63444SOL    HW292165   3.518   6.076   6.602
63445SOL     OW92166   6.667   2.399   1.218
63445SOL    HW192167   6.750   2.419   1.175
63445SOL    HW292168   6.668   2.304   1.230
63446SOL     OW92169  11.155   2.693   1.691
63446SOL    HW192170  11.103   2.613   1.683
63446SOL    HW292171  11.117   2.753   1.627
63447SOL     OW92172   5.132  13.196   8.256
63447SOL    HW192173   5.045  13.159   8.240
63447SOL    HW292174   5.118  13.264   8.322
63448SOL     OW92175   5.903   3.746   2.935
63448SOL    HW192176   5.979   3.776   2.985
63448SOL    HW292177   5.899   3.652   2.950
63449SOL     OW92178   1.074  12.726   6.346
63449SOL    HW192179   1.090  12.801   6.402
63449SOL    HW292180   1.092  12.650   6.402
63450SOL     OW92181   2.018  10.009  13.694
63450SOL    HW192182   2.077  10.058  13.637
63450SOL    HW292183   2.056   9.922  13.700
63451SOL     OW92184  10.438   0.791   4.571
63451SOL    HW192185  10.475   0.790   4.483
63451SOL    HW292186  10.409   0.882   4.583
63452SOL     OW92187   1.008   6.200   5.007
63452SOL    HW192188   1.001   6.105   5.004
63452SOL    HW292189   1.032   6.219   5.098
63453SOL     OW92190  10.398  12.894   0.047
63453SOL    HW192191  10.432  12.810   0.017
63453SOL    HW292192  10.332  12.871   0.113
63454SOL     OW92193   9.752   0.291   8.165
63454SOL    HW192194   9.715   0.218   8.115
63454SOL    HW292195   9.679   0.324   8.218
63455SOL     OW92196   4.805   9.448   8.151
63455SOL    HW192197   4.861   9.383   8.107
63455SOL    HW292198   4.786   9.512   8.083
63456SOL     OW92199   9.347   1.785   9.363
63456SOL    HW192200   9.360   1.698   9.326
63456SOL    HW292201   9.430   1.830   9.350
63457SOL     OW92202   4.999  10.856   3.522
63457SOL    HW192203   4.969  10.943   3.497
63457SOL    HW292204   5.094  10.865   3.532
63458SOL     OW92205   9.041  11.538   0.774
63458SOL    HW192206   9.122  11.508   0.815
63458SOL    HW292207   9.045  11.504   0.684
63459SOL     OW92208   7.496  12.516  10.793
63459SOL    HW192209   7.558  12.444  10.774
63459SOL    HW292210   7.485  12.513  10.888
63460SOL     OW92211   6.485  12.323  14.399
63460SOL    HW192212   6.569  12.358  14.370
63460SOL    HW292213   6.421  12.364  14.341
63461SOL     OW92214  12.815   1.258   5.994
63461SOL    HW192215  12.813   1.286   6.086
63461SOL    HW292216  12.730   1.216   5.980
63462SOL     OW92217  10.625  13.466  13.093
63462SOL    HW192218  10.716  13.497  13.095
63462SOL    HW292219  10.580  13.520  13.157
63463SOL     OW92220   4.582   3.397   6.662
63463SOL    HW192221   4.592   3.486   6.629
63463SOL    HW292222   4.645   3.391   6.734
63464SOL     OW92223   0.046   0.976  11.304
63464SOL    HW192224   0.109   0.905  11.301
63464SOL    HW292225   0.029   0.989  11.398
63465SOL     OW92226   2.718   7.862  13.272
63465SOL    HW192227   2.672   7.941  13.244
63465SOL    HW292228   2.648   7.802  13.300
63466SOL     OW92229  13.902   3.301   6.820
63466SOL    HW192230  13.986   3.322   6.861
63466SOL    HW292231  13.893   3.207   6.832
63467SOL     OW92232  13.329  13.340   4.356
63467SOL    HW192233  13.304  13.322   4.265
63467SOL    HW292234  13.329  13.436   4.362
63468SOL     OW92235   0.369   1.727  12.615
63468SOL    HW192236   0.460   1.755  12.627
63468SOL    HW292237   0.360   1.650  12.671
63469SOL     OW92238  14.045   8.512   1.720
63469SOL    HW192239  14.113   8.445   1.708
63469SOL    HW292240  14.050   8.566   1.642
63470SOL     OW92241   9.429   8.475  14.740
63470SOL    HW192242   9.441   8.391  14.696
63470SOL    HW292243   9.371   8.525  14.682
63471SOL     OW92244  12.300  11.795   2.679
63471SOL    HW192245  12.364  11.851   2.636
63471SOL    HW292246  12.258  11.747   2.608
63472SOL     OW92247   0.516   0.461   1.302
63472SOL    HW192248   0.463   0.460   1.381
63472SOL    HW292249   0.552   0.550   1.298
63473SOL     OW92250   8.714  12.567   5.716
63473SOL    HW192251   8.788  12.608   5.761
63473SOL    HW292252   8.719  12.475   5.740
63474SOL     OW92253  12.149  10.204   8.029
63474SOL    HW192254  12.206  10.156   7.969
63474SOL    HW292255  12.191  10.195   8.115
63475SOL     OW92256   2.462   5.015   4.650
63475SOL    HW192257   2.501   5.095   4.687
63475SOL    HW292258   2.493   4.945   4.707
63476SOL     OW92259   5.893   4.743   5.234
63476SOL    HW192260   5.929   4.797   5.164
63476SOL    HW292261   5.963   4.680   5.254
63477SOL     OW92262  14.364  11.980  10.308
63477SOL    HW192263  14.358  12.038  10.384
63477SOL    HW292264  14.364  12.038  10.232
63478SOL     OW92265  10.717   7.044  11.500
63478SOL    HW192266  10.715   7.097  11.580
63478SOL    HW292267  10.624   7.027  11.481
63479SOL     OW92268   4.590   5.008  13.561
63479SOL    HW192269   4.577   5.103  13.558
63479SOL    HW292270   4.649   4.989  13.489
63480SOL     OW92271   5.997   8.357   5.544
63480SOL    HW192272   6.083   8.353   5.585
63480SOL    HW292273   6.015   8.371   5.451
63481SOL     OW92274   5.549   8.020   7.625
63481SOL    HW192275   5.628   8.054   7.584
63481SOL    HW292276   5.581   7.951   7.684
63482SOL     OW92277   4.290  14.454   6.026
63482SOL    HW192278   4.333  14.457   5.941
63482SOL    HW292279   4.209  14.504   6.015
63483SOL     OW92280  14.655  10.810  10.625
63483SOL    HW192281  14.633  10.725  10.587
63483SOL    HW292282  14.643  10.797  10.719
63484SOL     OW92283   5.232   6.049   8.786
63484SOL    HW192284   5.149   6.035   8.831
63484SOL    HW292285   5.280   6.110   8.841
63485SOL     OW92286   7.700   9.005  14.154
63485SOL    HW192287   7.737   9.000  14.242
63485SOL    HW292288   7.765   8.962  14.098
63486SOL     OW92289   3.444   5.215   9.393
63486SOL    HW192290   3.372   5.155   9.371
63486SOL    HW292291   3.438   5.224   9.488
63487SOL     OW92292   8.640   0.692  11.525
63487SOL    HW192293   8.608   0.622  11.582
63487SOL    HW292294   8.714   0.652  11.478
63488SOL     OW92295   4.846   5.993  14.192
63488SOL    HW192296   4.893   5.990  14.108
63488SOL    HW292297   4.846   5.902  14.222
63489SOL     OW92298   0.888   2.870   9.654
63489SOL    HW192299   0.918   2.781   9.672
63489SOL    HW292300   0.799   2.873   9.688
63490SOL     OW92301  12.301   8.390   6.227
63490SOL    HW192302  12.383   8.412   6.184
63490SOL    HW292303  12.256   8.332   6.166
63491SOL     OW92304  10.954  13.071  13.961
63491SOL    HW192305  11.027  13.094  13.904
63491SOL    HW292306  10.962  13.130  14.036
63492SOL     OW92307  13.309   5.420  14.486
63492SOL    HW192308  13.379   5.461  14.434
63492SOL    HW292309  13.347   5.409  14.573
63493SOL     OW92310  14.240  13.063   3.645
63493SOL    HW192311  14.320  13.093   3.687
63493SOL    HW292312  14.263  13.054   3.553
63494SOL     OW92313   4.079   0.879   5.442
63494SOL    HW192314   4.163   0.837   5.424
63494SOL    HW292315   4.065   0.866   5.535
63495SOL     OW92316   6.826  13.539  14.603
63495SOL    HW192317   6.762  13.500  14.663
63495SOL    HW292318   6.825  13.481  14.527
63496SOL     OW92319  13.945   9.466   3.654
63496SOL    HW192320  13.853   9.494   3.656
63496SOL    HW292321  13.944   9.383   3.606
63497SOL     OW92322   1.749  14.304   9.728
63497SOL    HW192323   1.696  14.251   9.787
63497SOL    HW292324   1.770  14.383   9.778
63498SOL     OW92325   3.898  11.487   0.670
63498SOL    HW192326   3.823  11.484   0.729
63498SOL    HW292327   3.888  11.569   0.622
63499SOL     OW92328   3.377   2.446  13.610
63499SOL    HW192329   3.389   2.540  13.601
63499SOL    HW292330   3.464   2.412  13.632
63500SOL     OW92331  13.234  14.549   9.999
63500SOL    HW192332  13.326  14.526   9.983
63500SOL    HW292333  13.226  14.551  10.094
63501SOL     OW92334   7.498   2.036   8.576
63501SOL    HW192335   7.402   2.038   8.577
63501SOL    HW292336   7.523   2.128   8.586
63502SOL     OW92337   1.194   4.637  13.016
63502SOL    HW192338   1.115   4.584  13.002
63502SOL    HW292339   1.176   4.688  13.095
63503SOL     OW92340  14.310  11.999   6.727
63503SOL    HW192341  14.268  11.943   6.792
63503SOL    HW292342  14.259  12.080   6.729
63504SOL     OW92343  11.897   7.723  12.880
63504SOL    HW192344  11.917   7.813  12.902
63504SOL    HW292345  11.861   7.685  12.960
63505SOL     OW92346  13.213   7.171   4.804
63505SOL    HW192347  13.230   7.206   4.717
63505SOL    HW292348  13.117   7.166   4.809
63506SOL     OW92349  12.821   5.928  10.510
63506SOL    HW192350  12.793   6.013  10.544
63506SOL    HW292351  12.751   5.868  10.535
63507SOL     OW92352  11.354  11.749   5.249
63507SOL    HW192353  11.387  11.826   5.203
63507SOL    HW292354  11.281  11.782   5.302
63508SOL     OW92355   0.329  10.400  13.326
63508SOL    HW192356   0.288  10.316  13.348
63508SOL    HW292357   0.386  10.418  13.400
63509SOL     OW92358   7.159   5.329   7.863
63509SOL    HW192359   7.069   5.318   7.894
63509SOL    HW292360   7.206   5.367   7.937
63510SOL     OW92361  12.113   0.594  14.820
63510SOL    HW192362  12.166   0.657  14.868
63510SOL    HW292363  12.119   0.622  14.729
63511SOL     OW92364   3.324  11.170   9.523
63511SOL    HW192365   3.290  11.259   9.526
63511SOL    HW292366   3.415  11.178   9.550
63512SOL     OW92367   8.288   4.134   7.045
63512SOL    HW192368   8.350   4.159   7.113
63512SOL    HW292369   8.205   4.174   7.073
63513SOL     OW92370   5.993   3.234   8.692
63513SOL    HW192371   5.951   3.205   8.611
63513SOL    HW292372   5.983   3.160   8.752
63514SOL     OW92373   4.537   7.385   6.948
63514SOL    HW192374   4.569   7.348   6.866
63514SOL    HW292375   4.585   7.467   6.958
63515SOL     OW92376   7.468   4.082  13.204
63515SOL    HW192377   7.535   4.100  13.139
63515SOL    HW292378   7.506   4.110  13.287
63516SOL     OW92379  14.110   7.586   9.731
63516SOL    HW192380  14.056   7.507   9.740
63516SOL    HW292381  14.196   7.559   9.766
63517SOL     OW92382   0.528  10.031  14.347
63517SOL    HW192383   0.445  10.053  14.389
63517SOL    HW292384   0.512  10.044  14.253
63518SOL     OW92385   6.901   4.262   7.444
63518SOL    HW192386   6.945   4.182   7.471
63518SOL    HW292387   6.953   4.333   7.482
63519SOL     OW92388   4.587  12.614   3.467
63519SOL    HW192389   4.506  12.584   3.510
63519SOL    HW292390   4.643  12.642   3.539
63520SOL     OW92391  13.659   3.407   8.255
63520SOL    HW192392  13.573   3.442   8.230
63520SOL    HW292393  13.687   3.463   8.327
63521SOL     OW92394   4.195   1.565  12.357
63521SOL    HW192395   4.263   1.616  12.401
63521SOL    HW292396   4.117   1.620  12.361
63522SOL     OW92397   9.754   4.232  11.643
63522SOL    HW192398   9.735   4.167  11.576
63522SOL    HW292399   9.676   4.287  11.646
63523SOL     OW92400   4.838   6.209   7.442
63523SOL    HW192401   4.752   6.250   7.441
63523SOL    HW292402   4.821   6.115   7.446
63524SOL     OW92403  12.042   9.197  12.962
63524SOL    HW192404  12.014   9.151  12.883
63524SOL    HW292405  11.978   9.268  12.972
63525SOL     OW92406   7.395  14.706  13.343
63525SOL    HW192407   7.404  14.764  13.419
63525SOL    HW292408   7.484  14.675  13.327
63526SOL     OW92409  14.227  14.637  10.282
63526SOL    HW192410  14.282  14.601  10.351
63526SOL    HW292411  14.279  14.628  10.202
63527SOL     OW92412   2.006  12.410   1.514
63527SOL    HW192413   2.098  12.426   1.491
63527SOL    HW292414   2.009  12.373   1.602
63528SOL     OW92415  11.154   1.197   1.066
63528SOL    HW192416  11.205   1.253   1.009
63528SOL    HW292417  11.066   1.235   1.065
63529SOL     OW92418   1.095   4.876   6.176
63529SOL    HW192419   1.104   4.904   6.267
63529SOL    HW292420   1.182   4.843   6.152
63530SOL     OW92421   3.826  13.718   4.692
63530SOL    HW192422   3.742  13.723   4.645
63530SOL    HW292423   3.809  13.765   4.774
63531SOL     OW92424   5.757   5.078   9.998
63531SOL    HW192425   5.775   5.010   9.933
63531SOL    HW292426   5.714   5.148   9.949
63532SOL     OW92427   2.038  10.218   7.769
63532SOL    HW192428   1.983  10.144   7.741
63532SOL    HW292429   2.002  10.293   7.721
63533SOL     OW92430   7.246   6.223   3.818
63533SOL    HW192431   7.341   6.233   3.822
63533SOL    HW292432   7.222   6.255   3.731
63534SOL     OW92433   8.174   9.320   8.243
63534SOL    HW192434   8.151   9.412   8.229
63534SOL    HW292435   8.186   9.284   8.155
63535SOL     OW92436   8.109   2.611   5.816
63535SOL    HW192437   8.117   2.664   5.737
63535SOL    HW292438   8.084   2.524   5.784
63536SOL     OW92439  14.125   8.288   6.957
63536SOL    HW192440  14.193   8.299   6.891
63536SOL    HW292441  14.055   8.240   6.911
63537SOL     OW92442   2.365   8.414   6.879
63537SOL    HW192443   2.425   8.450   6.945
63537SOL    HW292444   2.348   8.487   6.819
63538SOL     OW92445   5.337  14.657  14.692
63538SOL    HW192446   5.269  14.703  14.643
63538SOL    HW292447   5.290  14.590  14.742
63539SOL     OW92448   4.236   1.241   4.345
63539SOL    HW192449   4.189   1.263   4.264
63539SOL    HW292450   4.198   1.157   4.372
63540SOL     OW92451  14.692  12.103   0.751
63540SOL    HW192452  14.689  12.117   0.656
63540SOL    HW292453  14.620  12.157   0.785
63541SOL     OW92454   7.214   3.228  13.936
63541SOL    HW192455   7.290   3.187  13.894
63541SOL    HW292456   7.193   3.303  13.881
63542SOL     OW92457   7.976   4.999   7.818
63542SOL    HW192458   7.948   5.072   7.873
63542SOL    HW292459   8.065   5.021   7.791
63543SOL     OW92460   5.216   4.596   4.239
63543SOL    HW192461   5.234   4.548   4.320
63543SOL    HW292462   5.206   4.687   4.268
63544SOL     OW92463  11.206  14.664   3.013
63544SOL    HW192464  11.142  14.598   3.039
63544SOL    HW292465  11.181  14.742   3.063
63545SOL     OW92466  14.500  11.185  10.412
63545SOL    HW192467  14.518  11.123  10.341
63545SOL    HW292468  14.583  11.193  10.459
63546SOL     OW92469   7.605   0.038   5.986
63546SOL    HW192470   7.638  14.832   6.031
63546SOL    HW292471   7.557   0.003   5.911
63547SOL     OW92472  10.270   5.660  14.036
63547SOL    HW192473  10.213   5.606  13.981
63547SOL    HW292474  10.329   5.702  13.974
63548SOL     OW92475   6.946  14.695   6.501
63548SOL    HW192476   6.914  14.706   6.591
63548SOL    HW292477   7.015  14.762   6.492
63549SOL     OW92478  10.519   1.170   7.900
63549SOL    HW192479  10.520   1.074   7.899
63549SOL    HW292480  10.429   1.194   7.879
63550SOL     OW92481  13.471   3.383   5.163
63550SOL    HW192482  13.423   3.380   5.080
63550SOL    HW292483  13.403   3.374   5.230
63551SOL     OW92484   8.072  12.679   3.802
63551SOL    HW192485   8.110  12.725   3.728
63551SOL    HW292486   8.135  12.610   3.822
63552SOL     OW92487   1.029   3.137   6.674
63552SOL    HW192488   1.039   3.090   6.591
63552SOL    HW292489   1.017   3.228   6.649
63553SOL     OW92490  13.576  14.263   3.258
63553SOL    HW192491  13.496  14.221   3.226
63553SOL    HW292492  13.626  14.193   3.300
63554SOL     OW92493   7.353   7.711  10.148
63554SOL    HW192494   7.407   7.789  10.135
63554SOL    HW292495   7.323   7.686  10.061
63555SOL     OW92496  10.256   8.796   3.139
63555SOL    HW192497  10.190   8.814   3.072
63555SOL    HW292498  10.290   8.883   3.162
63556SOL     OW92499   9.518   4.261   8.111
63556SOL    HW192500   9.575   4.312   8.054
63556SOL    HW292501   9.458   4.326   8.149
63557SOL     OW92502   4.225   2.894   5.413
63557SOL    HW192503   4.237   2.973   5.466
63557SOL    HW292504   4.135   2.899   5.381
63558SOL     OW92505   5.309  11.531   3.808
63558SOL    HW192506   5.323  11.561   3.718
63558SOL    HW292507   5.230  11.477   3.804
63559SOL     OW92508   1.891   1.136  10.086
63559SOL    HW192509   1.913   1.213  10.035
63559SOL    HW292510   1.843   1.170  10.162
63560SOL     OW92511  11.837   7.694   6.514
63560SOL    HW192512  11.763   7.750   6.539
63560SOL    HW292513  11.872   7.663   6.597
63561SOL     OW92514  12.780   6.900  11.393
63561SOL    HW192515  12.800   6.872  11.482
63561SOL    HW292516  12.799   6.994  11.393
63562SOL     OW92517   9.604   9.133  10.794
63562SOL    HW192518   9.632   9.183  10.871
63562SOL    HW292519   9.609   9.195  10.722
63563SOL     OW92520   5.838   1.764  12.383
63563SOL    HW192521   5.828   1.726  12.470
63563SOL    HW292522   5.830   1.858  12.397
63564SOL     OW92523   6.925   6.940   2.065
63564SOL    HW192524   6.850   6.905   2.114
63564SOL    HW292525   6.955   6.867   2.011
63565SOL     OW92526   3.195  11.389  10.537
63565SOL    HW192527   3.202  11.331  10.613
63565SOL    HW292528   3.115  11.360  10.492
63566SOL     OW92529   3.660   0.839   3.694
63566SOL    HW192530   3.601   0.914   3.687
63566SOL    HW292531   3.665   0.805   3.604
63567SOL     OW92532  12.247   3.721  14.149
63567SOL    HW192533  12.229   3.781  14.077
63567SOL    HW292534  12.301   3.772  14.210
63568SOL     OW92535   1.069  10.046   2.205
63568SOL    HW192536   1.018  10.013   2.130
63568SOL    HW292537   1.018  10.020   2.281
63569SOL     OW92538  14.501  12.532   6.021
63569SOL    HW192539  14.501  12.504   6.112
63569SOL    HW292540  14.442  12.471   5.976
63570SOL     OW92541   4.698   6.249  11.275
63570SOL    HW192542   4.734   6.321  11.224
63570SOL    HW292543   4.618   6.224  11.229
63571SOL     OW92544  10.111  13.625   4.250
63571SOL    HW192545  10.031  13.607   4.201
63571SOL    HW292546  10.134  13.541   4.291
63572SOL     OW92547   9.593  14.442   4.311
63572SOL    HW192548   9.634  14.375   4.366
63572SOL    HW292549   9.665  14.499   4.284
63573SOL     OW92550   3.162   2.931   1.639
63573SOL    HW192551   3.176   3.006   1.697
63573SOL    HW292552   3.163   2.856   1.697
63574SOL     OW92553  14.637   1.762  13.979
63574SOL    HW192554  14.599   1.681  13.945
63574SOL    HW292555  14.652   1.816  13.901
63575SOL     OW92556   2.407   5.780  10.399
63575SOL    HW192557   2.457   5.857  10.425
63575SOL    HW292558   2.331   5.815  10.352
63576SOL     OW92559   8.392  14.043  12.920
63576SOL    HW192560   8.336  14.026  12.995
63576SOL    HW292561   8.455  14.108  12.952
63577SOL     OW92562   5.312   5.970   4.051
63577SOL    HW192563   5.375   5.898   4.042
63577SOL    HW292564   5.270   5.975   3.965
63578SOL     OW92565   5.448   1.153   6.597
63578SOL    HW192566   5.397   1.072   6.588
63578SOL    HW292567   5.439   1.177   6.689
63579SOL     OW92568   4.774   2.151   6.981
63579SOL    HW192569   4.722   2.165   6.901
63579SOL    HW292570   4.864   2.174   6.955
63580SOL     OW92571   6.162  14.296   1.664
63580SOL    HW192572   6.124  14.373   1.707
63580SOL    HW292573   6.211  14.252   1.733
63581SOL     OW92574   3.758   3.520   6.684
63581SOL    HW192575   3.711   3.564   6.755
63581SOL    HW292576   3.690   3.488   6.626
63582SOL     OW92577   0.270   5.118  11.496
63582SOL    HW192578   0.286   5.171  11.574
63582SOL    HW292579   0.180   5.086  11.508
63583SOL     OW92580   8.739   1.433   5.176
63583SOL    HW192581   8.670   1.367   5.167
63583SOL    HW292582   8.744   1.448   5.271
63584SOL     OW92583   9.395   9.958  12.059
63584SOL    HW192584   9.418   9.942  11.967
63584SOL    HW292585   9.426   9.881  12.106
63585SOL     OW92586   0.505  12.949   5.822
63585SOL    HW192587   0.585  12.967   5.773
63585SOL    HW292588   0.441  12.925   5.756
63586SOL     OW92589  12.313   5.358   3.367
63586SOL    HW192590  12.279   5.310   3.443
63586SOL    HW292591  12.380   5.300   3.331
63587SOL     OW92592  14.444  12.835   1.073
63587SOL    HW192593  14.350  12.855   1.078
63587SOL    HW292594  14.454  12.754   1.123
63588SOL     OW92595  13.816  10.963   7.362
63588SOL    HW192596  13.760  10.891   7.334
63588SOL    HW292597  13.810  11.027   7.291
63589SOL     OW92598  10.182   3.014  12.373
63589SOL    HW192599  10.253   3.037  12.432
63589SOL    HW292600  10.103   3.016  12.428
63590SOL     OW92601   9.787  13.816   8.213
63590SOL    HW192602   9.795  13.826   8.307
63590SOL    HW292603   9.833  13.892   8.177
63591SOL     OW92604  10.178   0.773   9.321
63591SOL    HW192605  10.253   0.715   9.307
63591SOL    HW292606  10.215   0.850   9.364
63592SOL     OW92607   0.466  12.115   3.229
63592SOL    HW192608   0.541  12.066   3.261
63592SOL    HW292609   0.465  12.195   3.281
63593SOL     OW92610   9.347   8.618   6.446
63593SOL    HW192611   9.410   8.558   6.405
63593SOL    HW292612   9.369   8.616   6.539
63594SOL     OW92613   1.033   5.899  12.214
63594SOL    HW192614   0.971   5.901  12.141
63594SOL    HW292615   1.091   5.973  12.198
63595SOL     OW92616   6.525  10.040   2.146
63595SOL    HW192617   6.480  10.089   2.076
63595SOL    HW292618   6.524  10.100   2.220
63596SOL     OW92619   1.517  13.382  11.590
63596SOL    HW192620   1.452  13.318  11.619
63596SOL    HW292621   1.504  13.389  11.496
63597SOL     OW92622   5.456   3.309   6.718
63597SOL    HW192623   5.419   3.292   6.631
63597SOL    HW292624   5.542   3.268   6.716
63598SOL     OW92625   2.828  14.300   7.067
63598SOL    HW192626   2.800  14.313   7.158
63598SOL    HW292627   2.788  14.217   7.041
63599SOL     OW92628  11.806  14.863  10.763
63599SOL    HW192629  11.833  14.792  10.822
63599SOL    HW292630  11.878   0.054  10.769
63600SOL     OW92631   0.255   4.312   5.569
63600SOL    HW192632   0.160   4.306   5.569
63600SOL    HW292633   0.284   4.226   5.599
63601SOL     OW92634   5.123   8.233   3.330
63601SOL    HW192635   5.177   8.305   3.362
63601SOL    HW292636   5.160   8.155   3.372
63602SOL     OW92637   7.544   8.413  14.208
63602SOL    HW192638   7.580   8.493  14.168
63602SOL    HW292639   7.536   8.352  14.135
63603SOL     OW92640   3.016  11.303   7.926
63603SOL    HW192641   3.041  11.301   8.019
63603SOL    HW292642   3.088  11.349   7.883
63604SOL     OW92643  13.885   9.294  10.014
63604SOL    HW192644  13.855   9.275  10.103
63604SOL    HW292645  13.908   9.208   9.978
63605SOL     OW92646  11.672   6.658   3.605
63605SOL    HW192647  11.728   6.716   3.554
63605SOL    HW292648  11.604   6.716   3.642
63606SOL     OW92649   0.843  12.522   4.644
63606SOL    HW192650   0.757  12.547   4.610
63606SOL    HW292651   0.854  12.431   4.616
63607SOL     OW92652  10.633   8.080  14.522
63607SOL    HW192653  10.552   8.120  14.492
63607SOL    HW292654  10.672   8.042  14.444
63608SOL     OW92655   0.528  14.315  13.789
63608SOL    HW192656   0.528  14.219  13.789
63608SOL    HW292657   0.603  14.340  13.843
63609SOL     OW92658   5.626  11.581   7.277
63609SOL    HW192659   5.641  11.663   7.324
63609SOL    HW292660   5.689  11.582   7.205
63610SOL     OW92661  10.101   2.388   5.235
63610SOL    HW192662  10.115   2.481   5.221
63610SOL    HW292663  10.174   2.345   5.191
63611SOL     OW92664  10.478   8.123   7.669
63611SOL    HW192665  10.553   8.148   7.615
63611SOL    HW292666  10.434   8.206   7.690
63612SOL     OW92667  14.691   4.878   3.291
63612SOL    HW192668  14.643   4.818   3.348
63612SOL    HW292669  14.729   4.942   3.352
63613SOL     OW92670   6.921  12.085  10.502
63613SOL    HW192671   6.849  12.023  10.509
63613SOL    HW292672   6.953  12.096  10.592
63614SOL     OW92673   2.403   2.014   1.065
63614SOL    HW192674   2.476   2.038   1.008
63614SOL    HW292675   2.357   2.096   1.081
63615SOL     OW92676   0.864   0.527  12.290
63615SOL    HW192677   0.918   0.454  12.322
63615SOL    HW292678   0.858   0.586  12.365
63616SOL     OW92679   8.843   9.019  12.246
63616SOL    HW192680   8.832   8.989  12.156
63616SOL    HW292681   8.765   8.988  12.292
63617SOL     OW92682   9.787   2.973   4.179
63617SOL    HW192683   9.783   2.950   4.271
63617SOL    HW292684   9.819   3.063   4.177
63618SOL     OW92685   9.920   9.160   5.522
63618SOL    HW192686   9.994   9.215   5.497
63618SOL    HW292687   9.952   9.110   5.597
63619SOL     OW92688   8.435  12.047   5.886
63619SOL    HW192689   8.428  12.016   5.795
63619SOL    HW292690   8.513  12.003   5.919
63620SOL     OW92691   1.413   5.071   0.219
63620SOL    HW192692   1.340   5.087   0.279
63620SOL    HW292693   1.429   5.157   0.178
63621SOL     OW92694   8.701   1.224   4.959
63621SOL    HW192695   8.640   1.184   4.897
63621SOL    HW292696   8.696   1.169   5.037
63622SOL     OW92697   5.289  10.470   5.555
63622SOL    HW192698   5.216  10.417   5.525
63622SOL    HW292699   5.329  10.418   5.625
63623SOL     OW92700  11.357  12.464  10.422
63623SOL    HW192701  11.375  12.371  10.413
63623SOL    HW292702  11.284  12.468  10.484
63624SOL     OW92703  13.337   5.045   4.324
63624SOL    HW192704  13.429   5.019   4.325
63624SOL    HW292705  13.334   5.122   4.268
63625SOL     OW92706   3.764  10.987  13.834
63625SOL    HW192707   3.693  10.923  13.840
63625SOL    HW292708   3.818  10.957  13.761
63626SOL     OW92709  12.469   8.598   5.523
63626SOL    HW192710  12.514   8.524   5.563
63626SOL    HW292711  12.409   8.558   5.460
63627SOL     OW92712   6.798   1.555   5.127
63627SOL    HW192713   6.847   1.636   5.117
63627SOL    HW292714   6.763   1.537   5.039
63628SOL     OW92715   9.260   7.563  11.657
63628SOL    HW192716   9.332   7.514  11.697
63628SOL    HW292717   9.301   7.643  11.624
63629SOL     OW92718  11.338  12.186   3.932
63629SOL    HW192719  11.410  12.122   3.935
63629SOL    HW292720  11.373  12.258   3.879
63630SOL     OW92721  13.037   8.237   3.959
63630SOL    HW192722  13.129   8.226   3.935
63630SOL    HW292723  13.040   8.279   4.045
63631SOL     OW92724  13.602   1.719  12.587
63631SOL    HW192725  13.671   1.663  12.623
63631SOL    HW292726  13.591   1.689  12.497
63632SOL     OW92727   4.019   8.513   3.812
63632SOL    HW192728   3.972   8.435   3.840
63632SOL    HW292729   4.088   8.525   3.877
63633SOL     OW92730   1.667   8.230   7.196
63633SOL    HW192731   1.635   8.181   7.120
63633SOL    HW292732   1.762   8.232   7.185
63634SOL     OW92733  11.090  10.795  14.075
63634SOL    HW192734  11.047  10.744  14.143
63634SOL    HW292735  11.025  10.802  14.005
63635SOL     OW92736  13.132  12.322  10.949
63635SOL    HW192737  13.207  12.331  10.891
63635SOL    HW292738  13.151  12.245  11.002
63636SOL     OW92739   0.833   4.640   7.021
63636SOL    HW192740   0.916   4.599   7.047
63636SOL    HW292741   0.787   4.572   6.971
63637SOL     OW92742   1.940   0.570   5.731
63637SOL    HW192743   1.926   0.502   5.797
63637SOL    HW292744   1.901   0.649   5.770
63638SOL     OW92745   1.598   1.503   2.329
63638SOL    HW192746   1.522   1.458   2.366
63638SOL    HW292747   1.620   1.570   2.394
63639SOL     OW92748  11.415  11.125   5.834
63639SOL    HW192749  11.392  11.040   5.871
63639SOL    HW292750  11.427  11.182   5.910
63640SOL     OW92751   2.090   1.716   6.944
63640SOL    HW192752   2.059   1.710   6.854
63640SOL    HW292753   2.054   1.799   6.976
63641SOL     OW92754   2.673   5.498   8.770
63641SOL    HW192755   2.653   5.557   8.844
63641SOL    HW292756   2.722   5.553   8.709
63642SOL     OW92757   0.612  11.678   7.479
63642SOL    HW192758   0.578  11.691   7.568
63642SOL    HW292759   0.534  11.660   7.426
63643SOL     OW92760  11.893   5.368   2.302
63643SOL    HW192761  11.970   5.360   2.358
63643SOL    HW292762  11.922   5.336   2.216
63644SOL     OW92763  12.711   6.814   9.984
63644SOL    HW192764  12.789   6.839   9.934
63644SOL    HW292765  12.683   6.731   9.945
63645SOL     OW92766   1.717  14.671   7.612
63645SOL    HW192767   1.651  14.689   7.546
63645SOL    HW292768   1.714  14.747   7.670
63646SOL     OW92769  13.377   2.136   7.192
63646SOL    HW192770  13.395   2.228   7.175
63646SOL    HW292771  13.358   2.132   7.286
63647SOL     OW92772   2.752   0.469  14.071
63647SOL    HW192773   2.775   0.528  13.999
63647SOL    HW292774   2.657   0.457  14.062
63648SOL     OW92775   4.664   1.079   1.412
63648SOL    HW192776   4.663   1.168   1.446
63648SOL    HW292777   4.641   1.024   1.487
63649SOL     OW92778   5.680   1.633   1.415
63649SOL    HW192779   5.590   1.666   1.419
63649SOL    HW292780   5.691   1.584   1.497
63650SOL     OW92781   6.127   6.619   0.134
63650SOL    HW192782   6.119   6.666   0.052
63650SOL    HW292783   6.172   6.538   0.111
63651SOL     OW92784  11.859   3.177   3.094
63651SOL    HW192785  11.894   3.189   3.006
63651SOL    HW292786  11.872   3.084   3.114
63652SOL     OW92787  12.771   7.225   7.375
63652SOL    HW192788  12.826   7.197   7.448
63652SOL    HW292789  12.682   7.215   7.406
63653SOL     OW92790  13.111  10.460   2.918
63653SOL    HW192791  13.066  10.396   2.864
63653SOL    HW292792  13.167  10.508   2.857
63654SOL     OW92793  12.590   4.759   7.051
63654SOL    HW192794  12.675   4.722   7.075
63654SOL    HW292795  12.536   4.683   7.029
63655SOL     OW92796   5.092   0.825  11.193
63655SOL    HW192797   5.056   0.753  11.245
63655SOL    HW292798   5.186   0.806  11.187
63656SOL     OW92799   6.090   1.402   7.174
63656SOL    HW192800   6.125   1.328   7.124
63656SOL    HW292801   6.000   1.412   7.142
63657SOL     OW92802  10.457  14.385   6.328
63657SOL    HW192803  10.495  14.472   6.314
63657SOL    HW292804  10.502  14.350   6.405
63658SOL     OW92805   7.273   0.004   1.421
63658SOL    HW192806   7.353   0.025   1.469
63658SOL    HW292807   7.242   0.089   1.389
63659SOL     OW92808  12.715   3.520  11.503
63659SOL    HW192809  12.796   3.571  11.503
63659SOL    HW292810  12.743   3.430  11.483
63660SOL     OW92811   8.765  14.582  12.449
63660SOL    HW192812   8.781  14.674  12.427
63660SOL    HW292813   8.707  14.585  12.525
63661SOL     OW92814  10.067  14.024  10.565
63661SOL    HW192815  10.095  14.115  10.563
63661SOL    HW292816   9.975  14.029  10.593
63662SOL     OW92817   8.816  12.879  12.936
63662SOL    HW192818   8.864  12.802  12.968
63662SOL    HW292819   8.727  12.866  12.971
63663SOL     OW92820  10.850  10.883   8.714
63663SOL    HW192821  10.760  10.873   8.745
63663SOL    HW292822  10.904  10.878   8.793
63664SOL     OW92823   9.783   0.674   1.127
63664SOL    HW192824   9.864   0.633   1.095
63664SOL    HW292825   9.811   0.729   1.200
63665SOL     OW92826   8.092   3.200  12.780
63665SOL    HW192827   8.017   3.188  12.722
63665SOL    HW292828   8.105   3.295  12.783
63666SOL     OW92829   3.560   5.165  14.594
63666SOL    HW192830   3.609   5.241  14.625
63666SOL    HW292831   3.562   5.172  14.498
63667SOL     OW92832   9.424   5.743  13.334
63667SOL    HW192833   9.506   5.740  13.285
63667SOL    HW292834   9.415   5.835  13.359
63668SOL     OW92835   4.817   1.053   2.595
63668SOL    HW192836   4.809   1.089   2.684
63668SOL    HW292837   4.737   1.082   2.551
63669SOL     OW92838  12.058   5.935   7.792
63669SOL    HW192839  12.039   5.934   7.886
63669SOL    HW292840  12.031   5.849   7.761
63670SOL     OW92841  12.412  10.786   3.773
63670SOL    HW192842  12.322  10.789   3.742
63670SOL    HW292843  12.436  10.878   3.787
63671SOL     OW92844   7.355   9.381   3.220
63671SOL    HW192845   7.376   9.374   3.126
63671SOL    HW292846   7.440   9.392   3.263
63672SOL     OW92847   4.500   4.796  13.984
63672SOL    HW192848   4.578   4.804  13.929
63672SOL    HW292849   4.496   4.879  14.033
63673SOL     OW92850   4.001   5.045   7.008
63673SOL    HW192851   4.017   4.976   6.944
63673SOL    HW292852   4.089   5.070   7.038
63674SOL     OW92853   2.339   3.169  11.129
63674SOL    HW192854   2.252   3.206  11.142
63674SOL    HW292855   2.400   3.241  11.146
63675SOL     OW92856   7.096   9.267   3.367
63675SOL    HW192857   7.176   9.281   3.316
63675SOL    HW292858   7.124   9.214   3.442
63676SOL     OW92859   4.038  10.267   9.061
63676SOL    HW192860   4.080  10.190   9.098
63676SOL    HW292861   3.985  10.303   9.132
63677SOL     OW92862   7.465   2.803   4.274
63677SOL    HW192863   7.487   2.890   4.308
63677SOL    HW292864   7.389   2.818   4.218
63678SOL     OW92865  13.411   1.883   9.431
63678SOL    HW192866  13.414   1.932   9.513
63678SOL    HW292867  13.488   1.826   9.435
63679SOL     OW92868   4.549   8.859  14.224
63679SOL    HW192869   4.637   8.896  14.212
63679SOL    HW292870   4.564   8.778  14.273
63680SOL     OW92871   6.810  12.221   5.501
63680SOL    HW192872   6.783  12.136   5.536
63680SOL    HW292873   6.890  12.202   5.452
63681SOL     OW92874   1.919  11.560   8.844
63681SOL    HW192875   1.886  11.617   8.913
63681SOL    HW292876   1.902  11.472   8.875
63682SOL     OW92877   1.727   4.319  13.016
63682SOL    HW192878   1.706   4.244  12.962
63682SOL    HW292879   1.697   4.395  12.966
63683SOL     OW92880  11.073   6.874   5.904
63683SOL    HW192881  11.138   6.804   5.906
63683SOL    HW292882  11.099   6.930   5.831
63684SOL     OW92883   6.973  11.639   7.532
63684SOL    HW192884   6.927  11.678   7.457
63684SOL    HW292885   6.905  11.628   7.598
63685SOL     OW92886   9.804   8.100   5.773
63685SOL    HW192887   9.847   8.143   5.699
63685SOL    HW292888   9.848   8.137   5.850
63686SOL     OW92889   5.152  10.820   8.142
63686SOL    HW192890   5.155  10.878   8.219
63686SOL    HW292891   5.058  10.805   8.128
63687SOL     OW92892  11.781  13.502   1.716
63687SOL    HW192893  11.826  13.420   1.736
63687SOL    HW292894  11.706  13.476   1.662
63688SOL     OW92895   0.142   8.214   5.744
63688SOL    HW192896   0.057   8.218   5.700
63688SOL    HW292897   0.131   8.268   5.822
63689SOL     OW92898   9.027   2.962   0.656
63689SOL    HW192899   9.074   2.962   0.572
63689SOL    HW292900   9.073   3.025   0.710
63690SOL     OW92901   8.448  11.822  13.309
63690SOL    HW192902   8.367  11.843  13.263
63690SOL    HW292903   8.509  11.798  13.240
63691SOL     OW92904   2.802  13.685  10.187
63691SOL    HW192905   2.849  13.641  10.117
63691SOL    HW292906   2.709  13.674  10.165
63692SOL     OW92907   5.881   9.431   4.363
63692SOL    HW192908   5.950   9.399   4.421
63692SOL    HW292909   5.811   9.366   4.372
63693SOL     OW92910   9.858  14.247   0.193
63693SOL    HW192911   9.931  14.308   0.179
63693SOL    HW292912   9.844  14.250   0.288
63694SOL     OW92913   4.928  12.557   0.867
63694SOL    HW192914   4.922  12.529   0.775
63694SOL    HW292915   4.913  12.652   0.864
63695SOL     OW92916   8.487  12.063   1.770
63695SOL    HW192917   8.472  12.142   1.717
63695SOL    HW292918   8.451  11.992   1.718
63696SOL     OW92919  12.324   9.403  12.470
63696SOL    HW192920  12.353   9.332  12.527
63696SOL    HW292921  12.404   9.446  12.442
63697SOL     OW92922   6.545  11.422   7.776
63697SOL    HW192923   6.452  11.437   7.792
63697SOL    HW292924   6.547  11.350   7.712
63698SOL     OW92925   2.628   7.301  10.215
63698SOL    HW192926   2.586   7.373  10.168
63698SOL    HW292927   2.614   7.322  10.307
63699SOL     OW92928   0.062   0.558   4.815
63699SOL    HW192929   0.080   0.647   4.847
63699SOL    HW292930   0.144   0.511   4.828
63700SOL     OW92931  13.352  13.018   1.709
63700SOL    HW192932  13.301  13.062   1.641
63700SOL    HW292933  13.443  13.041   1.689
63701SOL     OW92934  14.557   0.678   7.170
63701SOL    HW192935  14.528   0.656   7.258
63701SOL    HW292936  14.519   0.611   7.114
63702SOL     OW92937   2.809  13.481   4.018
63702SOL    HW192938   2.786  13.525   3.936
63702SOL    HW292939   2.901  13.457   4.007
63703SOL     OW92940   0.408  11.522   1.914
63703SOL    HW192941   0.501  11.524   1.935
63703SOL    HW292942   0.376  11.443   1.959
63704SOL     OW92943  13.047   6.143  10.082
63704SOL    HW192944  12.985   6.094  10.028
63704SOL    HW292945  13.017   6.128  10.172
63705SOL     OW92946  12.551  13.857  14.563
63705SOL    HW192947  12.638  13.835  14.595
63705SOL    HW292948  12.564  13.936  14.511
63706SOL     OW92949  10.251  14.350   6.959
63706SOL    HW192950  10.302  14.430   6.967
63706SOL    HW292951  10.260  14.307   7.044
63707SOL     OW92952   0.519   0.374   9.502
63707SOL    HW192953   0.497   0.327   9.421
63707SOL    HW292954   0.477   0.459   9.493
63708SOL     OW92955  11.941   8.376   7.639
63708SOL    HW192956  11.927   8.392   7.732
63708SOL    HW292957  11.965   8.283   7.634
63709SOL     OW92958   7.684   6.367   8.935
63709SOL    HW192959   7.683   6.374   8.840
63709SOL    HW292960   7.686   6.273   8.953
63710SOL     OW92961   7.127  11.202  14.727
63710SOL    HW192962   7.113  11.290  14.761
63710SOL    HW292963   7.131  11.214  14.632
63711SOL     OW92964   5.104   9.936   2.645
63711SOL    HW192965   5.156   9.988   2.584
63711SOL    HW292966   5.099   9.988   2.724
63712SOL     OW92967   3.588  11.376  10.024
63712SOL    HW192968   3.509  11.343   9.981
63712SOL    HW292969   3.596  11.324  10.104
63713SOL     OW92970   9.336  11.043   3.651
63713SOL    HW192971   9.393  11.116   3.675
63713SOL    HW292972   9.352  11.029   3.557
63714SOL     OW92973  13.734  11.150   1.259
63714SOL    HW192974  13.730  11.211   1.333
63714SOL    HW292975  13.757  11.066   1.299
63715SOL     OW92976   4.960   3.391  12.442
63715SOL    HW192977   4.873   3.359  12.420
63715SOL    HW292978   5.012   3.373  12.364
63716SOL     OW92979   3.235   1.744   1.210
63716SOL    HW192980   3.256   1.682   1.141
63716SOL    HW292981   3.181   1.811   1.168
63717SOL     OW92982  12.745   1.004  11.953
63717SOL    HW192983  12.670   0.948  11.970
63717SOL    HW292984  12.739   1.073  12.018
63718SOL     OW92985   8.305   9.976   1.902
63718SOL    HW192986   8.243   9.939   1.840
63718SOL    HW292987   8.319   9.906   1.967
63719SOL     OW92988   2.905   7.730   3.354
63719SOL    HW192989   2.913   7.647   3.402
63719SOL    HW292990   2.919   7.797   3.421
63720SOL     OW92991   4.355   7.088   6.801
63720SOL    HW192992   4.436   7.117   6.841
63720SOL    HW292993   4.379   7.009   6.752
63721SOL     OW92994   8.221   5.433  12.167
63721SOL    HW192995   8.237   5.356  12.113
63721SOL    HW292996   8.182   5.399  12.248
63722SOL     OW92997  14.120  10.264  14.244
63722SOL    HW192998  14.073  10.252  14.327
63722SOL    HW292999  14.207  10.293  14.270
63723SOL     OW93000   1.108   6.804   5.393
63723SOL    HW193001   1.076   6.807   5.483
63723SOL    HW293002   1.113   6.895   5.365
63724SOL     OW93003  14.308   5.436   8.128
63724SOL    HW193004  14.362   5.496   8.076
63724SOL    HW293005  14.369   5.391   8.186
63725SOL     OW93006  11.351  10.592   4.161
63725SOL    HW193007  11.373  10.521   4.220
63725SOL    HW293008  11.280  10.558   4.107
63726SOL     OW93009   7.343   2.920   0.996
63726SOL    HW193010   7.363   3.007   1.031
63726SOL    HW293011   7.343   2.863   1.073
63727SOL     OW93012   1.348   2.899   0.578
63727SOL    HW193013   1.331   2.927   0.668
63727SOL    HW293014   1.287   2.950   0.525
63728SOL     OW93015   4.995   0.914  11.563
63728SOL    HW193016   4.965   0.949  11.647
63728SOL    HW293017   4.923   0.931  11.503
63729SOL     OW93018   3.431   1.624   7.809
63729SOL    HW193019   3.460   1.562   7.742
63729SOL    HW293020   3.445   1.710   7.769
63730SOL     OW93021  10.119   8.395  12.095
63730SOL    HW193022  10.193   8.433  12.048
63730SOL    HW293023  10.154   8.370  12.180
63731SOL     OW93024  14.018   8.260   4.236
63731SOL    HW193025  14.059   8.346   4.223
63731SOL    HW293026  14.076   8.199   4.192
63732SOL     OW93027   3.074  13.431   7.306
63732SOL    HW193028   3.113  13.440   7.219
63732SOL    HW293029   3.048  13.339   7.311
63733SOL     OW93030   6.542   4.743   7.113
63733SOL    HW193031   6.584   4.792   7.043
63733SOL    HW293032   6.577   4.780   7.193
63734SOL     OW93033   2.164   5.051   9.920
63734SOL    HW193034   2.129   5.039  10.008
63734SOL    HW293035   2.089   5.036   9.862
63735SOL     OW93036   3.897  10.033   7.585
63735SOL    HW193037   3.959  10.106   7.588
63735SOL    HW293038   3.851  10.037   7.669
63736SOL     OW93039  12.116   5.395  10.662
63736SOL    HW193040  12.195   5.382  10.610
63736SOL    HW293041  12.052   5.429  10.599
63737SOL     OW93042   1.730   8.315   2.550
63737SOL    HW193043   1.818   8.345   2.572
63737SOL    HW293044   1.672   8.384   2.583
63738SOL     OW93045   2.437   4.922  11.181
63738SOL    HW193046   2.361   4.934  11.239
63738SOL    HW293047   2.419   4.981  11.107
63739SOL     OW93048  10.982  13.835   0.608
63739SOL    HW193049  10.997  13.918   0.654
63739SOL    HW293050  11.047  13.834   0.538
63740SOL     OW93051  11.094   5.002   3.921
63740SOL    HW193052  11.096   4.907   3.908
63740SOL    HW293053  11.078   5.037   3.833
63741SOL     OW93054   5.611   8.398   1.730
63741SOL    HW193055   5.677   8.429   1.669
63741SOL    HW293056   5.626   8.304   1.737
63742SOL     OW93057  13.113   1.184   6.051
63742SOL    HW193058  13.021   1.211   6.044
63742SOL    HW293059  13.156   1.259   6.091
63743SOL     OW93060  11.398   6.173   3.512
63743SOL    HW193061  11.490   6.167   3.539
63743SOL    HW293062  11.355   6.102   3.559
63744SOL     OW93063   2.492   1.670   4.933
63744SOL    HW193064   2.531   1.662   4.846
63744SOL    HW293065   2.457   1.582   4.952
63745SOL     OW93066  10.280   1.526  14.404
63745SOL    HW193067  10.330   1.593  14.357
63745SOL    HW293068  10.276   1.558  14.494
63746SOL     OW93069   2.245   0.993   8.995
63746SOL    HW193070   2.304   1.066   9.016
63746SOL    HW293071   2.193   1.024   8.921
63747SOL     OW93072   7.759   9.375  11.360
63747SOL    HW193073   7.687   9.327  11.400
63747SOL    HW293074   7.756   9.351  11.267
63748SOL     OW93075   4.676   9.878   6.392
63748SOL    HW193076   4.600   9.924   6.357
63748SOL    HW293077   4.697   9.812   6.325
63749SOL     OW93078  14.181  11.118   7.948
63749SOL    HW193079  14.097  11.160   7.966
63749SOL    HW293080  14.180  11.039   8.003
63750SOL     OW93081   8.577   0.505   4.739
63750SOL    HW193082   8.616   0.507   4.826
63750SOL    HW293083   8.552   0.413   4.726
63751SOL     OW93084   7.220   8.150   2.294
63751SOL    HW193085   7.291   8.178   2.352
63751SOL    HW293086   7.266   8.103   2.223
63752SOL     OW93087  13.396   7.706  13.854
63752SOL    HW193088  13.383   7.800  13.867
63752SOL    HW293089  13.405   7.671  13.943
63753SOL     OW93090   9.334   8.237   3.744
63753SOL    HW193091   9.304   8.267   3.830
63753SOL    HW293092   9.254   8.235   3.690
63754SOL     OW93093   8.973   3.713   1.245
63754SOL    HW193094   9.030   3.730   1.319
63754SOL    HW293095   9.005   3.629   1.210
63755SOL     OW93096  10.024   8.558   6.967
63755SOL    HW193097  10.019   8.473   6.923
63755SOL    HW293098   9.990   8.620   6.904
63756SOL     OW93099   8.829   7.355  10.336
63756SOL    HW193100   8.909   7.303  10.340
63756SOL    HW293101   8.840   7.410  10.259
63757SOL     OW93102  13.440  13.196   9.189
63757SOL    HW193103  13.474  13.110   9.167
63757SOL    HW293104  13.347  13.192   9.168
63758SOL     OW93105   8.013   6.166   9.592
63758SOL    HW193106   8.083   6.102   9.582
63758SOL    HW293107   7.984   6.185   9.502
63759SOL     OW93108  12.191   7.690   8.515
63759SOL    HW193109  12.273   7.691   8.465
63759SOL    HW293110  12.216   7.723   8.601
63760SOL     OW93111   4.839   6.680  13.609
63760SOL    HW193112   4.884   6.655  13.689
63760SOL    HW293113   4.899   6.655  13.538
63761SOL     OW93114   2.003   2.631   1.596
63761SOL    HW193115   1.962   2.681   1.526
63761SOL    HW293116   1.941   2.561   1.616
63762SOL     OW93117  12.752  13.019   0.521
63762SOL    HW193118  12.754  13.055   0.610
63762SOL    HW293119  12.724  12.929   0.532
63763SOL     OW93120  14.205   5.692   1.862
63763SOL    HW193121  14.226   5.784   1.873
63763SOL    HW293122  14.230   5.672   1.772
63764SOL     OW93123   5.365  14.863   4.930
63764SOL    HW193124   5.447  14.834   4.970
63764SOL    HW293125   5.386  14.872   4.837
63765SOL     OW93126   6.000   9.483   2.472
63765SOL    HW193127   6.095   9.490   2.463
63765SOL    HW293128   5.978   9.549   2.538
63766SOL     OW93129   1.123   7.530   1.572
63766SOL    HW193130   1.065   7.577   1.512
63766SOL    HW293131   1.064   7.477   1.625
63767SOL     OW93132  14.705   0.916   1.519
63767SOL    HW193133  14.760   0.994   1.507
63767SOL    HW293134  14.737   0.878   1.602
63768SOL     OW93135  13.460   3.005   2.686
63768SOL    HW193136  13.551   3.032   2.676
63768SOL    HW293137  13.464   2.914   2.714
63769SOL     OW93138  14.134   0.068   6.722
63769SOL    HW193139  14.146   0.133   6.653
63769SOL    HW293140  14.088   0.115   6.792
63770SOL     OW93141   7.105   3.717   2.366
63770SOL    HW193142   7.054   3.751   2.439
63770SOL    HW293143   7.193   3.702   2.402
63771SOL     OW93144   7.508  14.182   2.580
63771SOL    HW193145   7.564  14.239   2.632
63771SOL    HW293146   7.483  14.234   2.504
63772SOL     OW93147   4.057   8.308   1.706
63772SOL    HW193148   4.055   8.383   1.765
63772SOL    HW293149   4.011   8.239   1.753
63773SOL     OW93150   0.929  11.478   6.664
63773SOL    HW193151   0.880  11.554   6.633
63773SOL    HW293152   0.895  11.405   6.612
63774SOL     OW93153   4.128   4.139  13.346
63774SOL    HW193154   4.078   4.211  13.309
63774SOL    HW293155   4.078   4.113  13.424
63775SOL     OW93156   9.246   5.201  10.838
63775SOL    HW193157   9.177   5.267  10.842
63775SOL    HW293158   9.206   5.128  10.790
63776SOL     OW93159   6.361  11.245   3.023
63776SOL    HW193160   6.434  11.186   3.044
63776SOL    HW293161   6.353  11.301   3.100
63777SOL     OW93162   3.670  12.353  10.440
63777SOL    HW193163   3.746  12.385  10.393
63777SOL    HW293164   3.595  12.398  10.401
63778SOL     OW93165   7.137   6.666  13.062
63778SOL    HW193166   7.170   6.632  13.145
63778SOL    HW293167   7.192   6.623  12.996
63779SOL     OW93168  13.791   8.901  12.865
63779SOL    HW193169  13.877   8.901  12.823
63779SOL    HW293170  13.796   8.969  12.932
63780SOL     OW93171   9.789   9.529  13.354
63780SOL    HW193172   9.881   9.504  13.344
63780SOL    HW293173   9.784   9.617  13.316
63781SOL     OW93174   1.861   3.860  14.112
63781SOL    HW193175   1.793   3.853  14.045
63781SOL    HW293176   1.884   3.769  14.132
63782SOL     OW93177   0.895   8.313  11.536
63782SOL    HW193178   0.909   8.340  11.445
63782SOL    HW293179   0.981   8.281  11.564
63783SOL     OW93180   7.276   0.391  13.000
63783SOL    HW193181   7.224   0.311  12.996
63783SOL    HW293182   7.334   0.379  13.075
63784SOL     OW93183  10.796  14.753  11.736
63784SOL    HW193184  10.794  14.796  11.821
63784SOL    HW293185  10.710  14.769  11.699
63785SOL     OW93186   4.144   6.232   0.500
63785SOL    HW193187   4.145   6.247   0.406
63785SOL    HW293188   4.233   6.203   0.520
63786SOL     OW93189  14.164   0.158   1.050
63786SOL    HW193190  14.255   0.134   1.068
63786SOL    HW293191  14.125   0.172   1.136
63787SOL     OW93192   6.593   2.962   6.701
63787SOL    HW193193   6.676   3.010   6.702
63787SOL    HW293194   6.555   2.982   6.615
63788SOL     OW93195   0.233   9.999   2.573
63788SOL    HW193196   0.181   9.922   2.592
63788SOL    HW293197   0.176  10.055   2.520
63789SOL     OW93198  13.010  10.355   0.556
63789SOL    HW193199  13.034  10.402   0.636
63789SOL    HW293200  12.917  10.337   0.566
63790SOL     OW93201   6.747   9.951   8.875
63790SOL    HW193202   6.754   9.887   8.804
63790SOL    HW293203   6.829   9.943   8.923
63791SOL     OW93204  13.602   0.645   6.362
63791SOL    HW193205  13.639   0.692   6.288
63791SOL    HW293206  13.541   0.708   6.402
63792SOL     OW93207   9.303   5.813   6.363
63792SOL    HW193208   9.349   5.895   6.342
63792SOL    HW293209   9.339   5.787   6.448
63793SOL     OW93210  11.138  14.107  12.953
63793SOL    HW193211  11.184  14.095  12.870
63793SOL    HW293212  11.206  14.094  13.020
63794SOL     OW93213  10.686   0.948  12.927
63794SOL    HW193214  10.621   0.970  12.994
63794SOL    HW293215  10.674   1.016  12.860
63795SOL     OW93216   5.479   7.740   5.563
63795SOL    HW193217   5.488   7.649   5.536
63795SOL    HW293218   5.524   7.743   5.648
63796SOL     OW93219   0.922   3.143   1.679
63796SOL    HW193220   1.009   3.181   1.670
63796SOL    HW293221   0.931   3.078   1.748
63797SOL     OW93222   1.563   3.780   7.368
63797SOL    HW193223   1.489   3.722   7.348
63797SOL    HW293224   1.634   3.720   7.394
63798SOL     OW93225   3.446  13.056   6.717
63798SOL    HW193226   3.444  12.967   6.682
63798SOL    HW293227   3.481  13.109   6.645
63799SOL     OW93228   2.711   9.583   5.294
63799SOL    HW193229   2.774   9.515   5.316
63799SOL    HW293230   2.666   9.602   5.377
63800SOL     OW93231   9.889   2.290   2.004
63800SOL    HW193232   9.985   2.293   2.006
63800SOL    HW293233   9.868   2.199   1.985
63801SOL     OW93234   6.132   4.648   1.138
63801SOL    HW193235   6.088   4.616   1.059
63801SOL    HW293236   6.068   4.704   1.181
63802SOL     OW93237  10.494   3.907  14.163
63802SOL    HW193238  10.473   3.996  14.135
63802SOL    HW293239  10.514   3.860  14.083
63803SOL     OW93240   1.597   5.897   7.408
63803SOL    HW193241   1.593   5.957   7.482
63803SOL    HW293242   1.506   5.890   7.378
63804SOL     OW93243   0.049   2.927  14.376
63804SOL    HW193244   0.041   2.931  14.471
63804SOL    HW293245   0.067   2.835  14.357
63805SOL     OW93246   0.258   8.130   5.178
63805SOL    HW193247   0.282   8.218   5.207
63805SOL    HW293248   0.221   8.143   5.090
63806SOL     OW93249   1.038   6.961   2.162
63806SOL    HW193250   1.041   6.914   2.078
63806SOL    HW293251   1.017   7.051   2.138
63807SOL     OW93252  13.626  12.234   8.529
63807SOL    HW193253  13.685  12.187   8.470
63807SOL    HW293254  13.655  12.208   8.617
63808SOL     OW93255   1.911   9.429   3.559
63808SOL    HW193256   1.893   9.499   3.622
63808SOL    HW293257   1.904   9.472   3.473
63809SOL     OW93258   7.643   6.666   7.495
63809SOL    HW193259   7.578   6.736   7.491
63809SOL    HW293260   7.727   6.712   7.495
63810SOL     OW93261   5.896   7.984   8.022
63810SOL    HW193262   5.890   7.889   8.018
63810SOL    HW293263   5.982   8.001   8.061
63811SOL     OW93264  14.709   4.597  11.850
63811SOL    HW193265  14.745   4.682  11.874
63811SOL    HW293266  14.690   4.554  11.934
63812SOL     OW93267   0.060  11.974  11.016
63812SOL    HW193268   0.008  12.041  11.060
63812SOL    HW293269   0.062  11.901  11.077
63813SOL     OW93270   3.316  11.500  12.841
63813SOL    HW193271   3.234  11.486  12.889
63813SOL    HW293272   3.309  11.443  12.765
63814SOL     OW93273   5.821   6.542  12.990
63814SOL    HW193274   5.806   6.522  13.082
63814SOL    HW293275   5.759   6.613  12.970
63815SOL     OW93276   0.259  11.178  12.747
63815SOL    HW193277   0.224  11.156  12.833
63815SOL    HW293278   0.182  11.203  12.695
63816SOL     OW93279  12.888   1.222  12.125
63816SOL    HW193280  12.860   1.271  12.048
63816SOL    HW293281  12.930   1.287  12.182
63817SOL     OW93282  11.366  14.795   7.205
63817SOL    HW193283  11.381  14.719   7.149
63817SOL    HW293284  11.447  14.804   7.255
63818SOL     OW93285   7.361   9.512   7.981
63818SOL    HW193286   7.270   9.496   8.005
63818SOL    HW293287   7.401   9.548   8.061
63819SOL     OW93288   3.929  14.509   1.693
63819SOL    HW193289   3.972  14.506   1.778
63819SOL    HW293290   3.848  14.460   1.705
63820SOL     OW93291   7.593  12.151   6.263
63820SOL    HW193292   7.645  12.115   6.191
63820SOL    HW293293   7.619  12.098   6.339
63821SOL     OW93294   0.014   9.715   5.093
63821SOL    HW193295   0.011   9.721   4.997
63821SOL    HW293296  14.806   9.760   5.121
63822SOL     OW93297   8.416   4.954  10.921
63822SOL    HW193298   8.486   5.018  10.908
63822SOL    HW293299   8.436   4.883  10.861
63823SOL     OW93300   9.697  11.649  10.226
63823SOL    HW193301   9.659  11.575  10.273
63823SOL    HW293302   9.637  11.665  10.153
63824SOL     OW93303   3.792   2.908   6.653
63824SOL    HW193304   3.796   2.825   6.702
63824SOL    HW293305   3.848   2.968   6.703
63825SOL     OW93306  13.687   7.333   4.786
63825SOL    HW193307  13.672   7.239   4.776
63825SOL    HW293308  13.615   7.364   4.841
63826SOL     OW93309   8.170   2.820  13.574
63826SOL    HW193310   8.181   2.752  13.508
63826SOL    HW293311   8.227   2.891  13.546
63827SOL     OW93312   4.166  10.628   3.749
63827SOL    HW193313   4.111  10.554   3.773
63827SOL    HW293314   4.226  10.593   3.683
63828SOL     OW93315  12.498   9.874   0.665
63828SOL    HW193316  12.542   9.901   0.746
63828SOL    HW293317  12.417   9.926   0.665
63829SOL     OW93318   4.192  12.843   3.868
63829SOL    HW193319   4.170  12.802   3.785
63829SOL    HW293320   4.284  12.870   3.857
63830SOL     OW93321   4.906  14.067   9.552
63830SOL    HW193322   4.866  14.064   9.466
63830SOL    HW293323   4.855  14.132   9.601
63831SOL     OW93324   8.334   7.888  12.748
63831SOL    HW193325   8.405   7.832  12.715
63831SOL    HW293326   8.326   7.957  12.683
63832SOL     OW93327   0.151   5.128  11.105
63832SOL    HW193328   0.189   5.135  11.017
63832SOL    HW293329   0.203   5.188  11.158
63833SOL     OW93330  13.574   6.787   5.105
63833SOL    HW193331  13.585   6.748   5.018
63833SOL    HW293332  13.479   6.791   5.118
63834SOL     OW93333  13.851  12.961   9.947
63834SOL    HW193334  13.842  12.868   9.969
63834SOL    HW293335  13.824  12.966   9.855
63835SOL     OW93336  10.114   2.473   6.459
63835SOL    HW193337  10.198   2.427   6.462
63835SOL    HW293338  10.050   2.406   6.436
63836SOL     OW93339   5.119  11.931   8.992
63836SOL    HW193340   5.167  11.887   9.062
63836SOL    HW293341   5.066  11.997   9.037
63837SOL     OW93342  14.691  12.697   9.949
63837SOL    HW193343  14.714  12.703   9.856
63837SOL    HW293344  14.774  12.680   9.993
63838SOL     OW93345  13.044  10.946   5.634
63838SOL    HW193346  13.122  10.965   5.685
63838SOL    HW293347  12.995  11.028   5.632
63839SOL     OW93348   1.182   8.405   2.294
63839SOL    HW193349   1.164   8.481   2.238
63839SOL    HW293350   1.277   8.393   2.289
63840SOL     OW93351  12.035   1.869  11.332
63840SOL    HW193352  12.052   1.960  11.308
63840SOL    HW293353  11.981   1.834  11.262
63841SOL     OW93354   9.981   2.833   9.934
63841SOL    HW193355  10.035   2.771   9.982
63841SOL    HW293356   9.913   2.859   9.996
63842SOL     OW93357  13.770   9.031  13.697
63842SOL    HW193358  13.700   9.035  13.762
63842SOL    HW293359  13.767   9.115  13.652
63843SOL     OW93360   3.698   2.308   8.003
63843SOL    HW193361   3.658   2.291   8.088
63843SOL    HW293362   3.772   2.248   7.999
63844SOL     OW93363  13.262   6.221  12.928
63844SOL    HW193364  13.254   6.222  13.024
63844SOL    HW293365  13.225   6.304  12.900
63845SOL     OW93366   4.572   9.969   1.610
63845SOL    HW193367   4.551  10.035   1.544
63845SOL    HW293368   4.665   9.979   1.626
63846SOL     OW93369   0.948  13.792   0.804
63846SOL    HW193370   0.983  13.857   0.865
63846SOL    HW293371   1.009  13.719   0.808
63847SOL     OW93372   0.916   6.739   4.308
63847SOL    HW193373   0.986   6.720   4.370
63847SOL    HW293374   0.836   6.711   4.353
63848SOL     OW93375   1.518   5.027  12.803
63848SOL    HW193376   1.586   5.078  12.847
63848SOL    HW293377   1.559   4.999  12.721
63849SOL     OW93378   1.521   9.784   0.691
63849SOL    HW193379   1.488   9.719   0.628
63849SOL    HW293380   1.446   9.841   0.708
63850SOL     OW93381  13.281   7.406   4.249
63850SOL    HW193382  13.359   7.409   4.194
63850SOL    HW293383  13.211   7.441   4.193
63851SOL     OW93384  12.317   2.420   1.842
63851SOL    HW193385  12.307   2.375   1.758
63851SOL    HW293386  12.353   2.505   1.819
63852SOL     OW93387   7.158   7.632   9.094
63852SOL    HW193388   7.136   7.724   9.076
63852SOL    HW293389   7.185   7.597   9.009
63853SOL     OW93390   4.961   7.398  12.762
63853SOL    HW193391   5.047   7.437  12.744
63853SOL    HW293392   4.951   7.329  12.698
63854SOL     OW93393   1.034   4.645   4.247
63854SOL    HW193394   1.024   4.701   4.170
63854SOL    HW293395   0.964   4.673   4.306
63855SOL     OW93396   7.570   0.647  11.940
63855SOL    HW193397   7.483   0.608  11.939
63855SOL    HW293398   7.623   0.584  11.989
63856SOL     OW93399   5.474  11.448   1.186
63856SOL    HW193400   5.521  11.496   1.118
63856SOL    HW293401   5.497  11.356   1.171
63857SOL     OW93402   7.559  13.794  13.758
63857SOL    HW193403   7.615  13.728  13.717
63857SOL    HW293404   7.491  13.812  13.694
63858SOL     OW93405   3.406  10.412   3.491
63858SOL    HW193406   3.416  10.326   3.451
63858SOL    HW293407   3.374  10.468   3.420
63859SOL     OW93408   9.429  12.769  11.615
63859SOL    HW193409   9.385  12.695  11.656
63859SOL    HW293410   9.358  12.829  11.591
63860SOL     OW93411  11.161   4.475   3.462
63860SOL    HW193412  11.198   4.513   3.541
63860SOL    HW293413  11.155   4.381   3.480
63861SOL     OW93414   2.039   3.294   1.713
63861SOL    HW193415   2.050   3.201   1.734
63861SOL    HW293416   2.011   3.334   1.795
63862SOL     OW93417   8.547   5.332   0.799
63862SOL    HW193418   8.528   5.313   0.707
63862SOL    HW293419   8.463   5.358   0.836
63863SOL     OW93420  13.442   0.233   6.296
63863SOL    HW193421  13.438   0.142   6.322
63863SOL    HW293422  13.531   0.245   6.262
63864SOL     OW93423   5.542   1.298   2.458
63864SOL    HW193424   5.500   1.233   2.514
63864SOL    HW293425   5.475   1.365   2.444
63865SOL     OW93426   4.083   1.924   3.541
63865SOL    HW193427   4.118   1.915   3.452
63865SOL    HW293428   4.067   2.018   3.551
63866SOL     OW93429   5.874   2.761   3.184
63866SOL    HW193430   5.787   2.800   3.192
63866SOL    HW293431   5.932   2.823   3.227
63867SOL     OW93432   7.803  14.453   4.624
63867SOL    HW193433   7.744  14.504   4.570
63867SOL    HW293434   7.884  14.503   4.625
63868SOL     OW93435   0.295  12.489   6.961
63868SOL    HW193436   0.316  12.398   6.941
63868SOL    HW293437   0.229  12.484   7.030
63869SOL     OW93438   8.183  10.552   5.661
63869SOL    HW193439   8.130  10.485   5.618
63869SOL    HW293440   8.199  10.618   5.593
63870SOL     OW93441  11.540   5.726   9.542
63870SOL    HW193442  11.555   5.648   9.488
63870SOL    HW293443  11.506   5.692   9.624
63871SOL     OW93444  10.973   1.184   3.836
63871SOL    HW193445  11.061   1.211   3.862
63871SOL    HW293446  10.915   1.245   3.882
63872SOL     OW93447  13.617  11.154   9.914
63872SOL    HW193448  13.540  11.142   9.971
63872SOL    HW293449  13.613  11.080   9.853
63873SOL     OW93450   8.259   0.570   1.491
63873SOL    HW193451   8.335   0.526   1.452
63873SOL    HW293452   8.187   0.550   1.431
63874SOL     OW93453   6.030  10.108  14.653
63874SOL    HW193454   5.963  10.173  14.675
63874SOL    HW293455   6.110  10.159  14.644
63875SOL     OW93456  10.424   4.891  14.399
63875SOL    HW193457  10.404   4.812  14.449
63875SOL    HW293458  10.339   4.932  14.384
63876SOL     OW93459   5.908  10.096  14.347
63876SOL    HW193460   5.953  10.173  14.382
63876SOL    HW293461   5.976  10.050  14.297
63877SOL     OW93462   8.034   3.606   1.938
63877SOL    HW193463   8.126   3.632   1.940
63877SOL    HW293464   8.019   3.565   2.024
63878SOL     OW93465   1.152  12.054   8.948
63878SOL    HW193466   1.232  12.075   8.997
63878SOL    HW293467   1.136  12.131   8.894
63879SOL     OW93468  14.338  13.071   3.976
63879SOL    HW193469  14.416  13.090   3.925
63879SOL    HW293470  14.295  13.156   3.986
63880SOL     OW93471  14.058  12.854   2.007
63880SOL    HW193472  14.124  12.919   2.029
63880SOL    HW293473  14.107  12.781   1.969
63881SOL     OW93474  13.311   1.214   2.433
63881SOL    HW193475  13.394   1.181   2.468
63881SOL    HW293476  13.281   1.145   2.374
63882SOL     OW93477   4.087  13.515   0.638
63882SOL    HW193478   4.029  13.457   0.687
63882SOL    HW293479   4.047  13.521   0.551
63883SOL     OW93480  14.377   0.559  10.081
63883SOL    HW193481  14.386   0.652  10.103
63883SOL    HW293482  14.460   0.536  10.040
63884SOL     OW93483  14.451  13.870  12.636
63884SOL    HW193484  14.372  13.822  12.610
63884SOL    HW293485  14.418  13.952  12.673
63885SOL     OW93486   9.661   3.226   6.306
63885SOL    HW193487   9.600   3.153   6.295
63885SOL    HW293488   9.742   3.185   6.335
63886SOL     OW93489   3.942   8.447   6.767
63886SOL    HW193490   3.897   8.438   6.684
63886SOL    HW293491   3.874   8.471   6.829
63887SOL     OW93492   4.562   3.766  12.988
63887SOL    HW193493   4.651   3.744  12.960
63887SOL    HW293494   4.572   3.849  13.035
63888SOL     OW93495  13.100   4.873  14.053
63888SOL    HW193496  13.014   4.906  14.025
63888SOL    HW293497  13.087   4.846  14.144
63889SOL     OW93498   8.886   0.834   2.376
63889SOL    HW193499   8.819   0.902   2.371
63889SOL    HW293500   8.844   0.762   2.422
63890SOL     OW93501   6.105   2.416  12.281
63890SOL    HW193502   6.038   2.358  12.317
63890SOL    HW293503   6.175   2.416  12.346
63891SOL     OW93504   6.227   0.247   9.960
63891SOL    HW193505   6.237   0.261   9.866
63891SOL    HW293506   6.171   0.169   9.967
63892SOL     OW93507   2.424   1.355  11.212
63892SOL    HW193508   2.506   1.318  11.180
63892SOL    HW293509   2.371   1.280  11.236
63893SOL     OW93510   6.448   0.776   8.068
63893SOL    HW193511   6.383   0.707   8.056
63893SOL    HW293512   6.503   0.771   7.990
63894SOL     OW93513  12.185   0.655  13.801
63894SOL    HW193514  12.230   0.731  13.765
63894SOL    HW293515  12.093   0.682  13.807
63895SOL     OW93516   8.165   3.166   1.893
63895SOL    HW193517   8.179   3.225   1.967
63895SOL    HW293518   8.103   3.100   1.925
63896SOL     OW93519   1.921  10.377   3.480
63896SOL    HW193520   1.978  10.345   3.549
63896SOL    HW293521   1.898  10.466   3.506
63897SOL     OW93522   4.944   7.632   9.374
63897SOL    HW193523   5.011   7.581   9.421
63897SOL    HW293524   4.878   7.568   9.350
63898SOL     OW93525   6.722   9.111   6.333
63898SOL    HW193526   6.799   9.157   6.302
63898SOL    HW293527   6.648   9.158   6.294
63899SOL     OW93528  12.361  11.071   3.757
63899SOL    HW193529  12.277  11.093   3.798
63899SOL    HW293530  12.426  11.122   3.805
63900SOL     OW93531   6.320   6.945   5.827
63900SOL    HW193532   6.374   6.919   5.752
63900SOL    HW293533   6.311   6.865   5.879
63901SOL     OW93534   6.410  13.471   3.051
63901SOL    HW193535   6.337  13.454   3.111
63901SOL    HW293536   6.418  13.391   3.000
63902SOL     OW93537   1.584  13.620   2.260
63902SOL    HW193538   1.549  13.673   2.189
63902SOL    HW293539   1.623  13.683   2.320
63903SOL     OW93540   7.513   9.407   7.639
63903SOL    HW193541   7.464   9.366   7.709
63903SOL    HW293542   7.528   9.497   7.670
63904SOL     OW93543  14.446  11.338   8.179
63904SOL    HW193544  14.389  11.340   8.103
63904SOL    HW293545  14.422  11.258   8.226
63905SOL     OW93546  13.033  10.938  13.093
63905SOL    HW193547  13.031  10.864  13.153
63905SOL    HW293548  13.012  11.014  13.149
63906SOL     OW93549  10.616   1.000   3.801
63906SOL    HW193550  10.675   0.943   3.851
63906SOL    HW293551  10.636   0.979   3.709
63907SOL     OW93552   2.733   6.676   8.690
63907SOL    HW193553   2.649   6.717   8.672
63907SOL    HW293554   2.789   6.747   8.720
63908SOL     OW93555   8.348  11.159  14.014
63908SOL    HW193556   8.346  11.089  14.079
63908SOL    HW293557   8.262  11.155  13.972
63909SOL     OW93558   9.703   3.918   3.746
63909SOL    HW193559   9.761   3.878   3.681
63909SOL    HW293560   9.719   3.868   3.826
63910SOL     OW93561   6.978  12.539   9.587
63910SOL    HW193562   6.921  12.463   9.589
63910SOL    HW293563   6.924  12.611   9.619
63911SOL     OW93564   4.639   8.522  11.245
63911SOL    HW193565   4.662   8.455  11.308
63911SOL    HW293566   4.552   8.496  11.214
63912SOL     OW93567   7.194  14.176   0.436
63912SOL    HW193568   7.134  14.250   0.426
63912SOL    HW293569   7.247  14.177   0.356
63913SOL     OW93570   0.889   9.396   9.125
63913SOL    HW193571   0.893   9.411   9.030
63913SOL    HW293572   0.981   9.394   9.152
63914SOL     OW93573   4.051  13.825   1.821
63914SOL    HW193574   4.058  13.904   1.874
63914SOL    HW293575   4.037  13.858   1.732
63915SOL     OW93576   7.491   0.792   4.664
63915SOL    HW193577   7.465   0.830   4.580
63915SOL    HW293578   7.586   0.786   4.658
63916SOL     OW93579   8.233  12.012  13.803
63916SOL    HW193580   8.281  12.031  13.884
63916SOL    HW293581   8.216  11.918  13.806
63917SOL     OW93582   7.510   4.216   5.312
63917SOL    HW193583   7.459   4.188   5.387
63917SOL    HW293584   7.474   4.302   5.290
63918SOL     OW93585  13.806  13.476   6.839
63918SOL    HW193586  13.854  13.434   6.768
63918SOL    HW293587  13.826  13.569   6.830
63919SOL     OW93588  10.642   2.940   5.841
63919SOL    HW193589  10.679   2.918   5.926
63919SOL    HW293590  10.583   3.013   5.858
63920SOL     OW93591   2.088   3.678   3.572
63920SOL    HW193592   2.047   3.718   3.495
63920SOL    HW293593   2.108   3.588   3.545
63921SOL     OW93594   8.314   3.009  13.443
63921SOL    HW193595   8.283   3.056  13.365
63921SOL    HW293596   8.392   3.057  13.471
63922SOL     OW93597  11.024   3.802   1.863
63922SOL    HW193598  11.076   3.878   1.890
63922SOL    HW293599  10.936   3.837   1.847
63923SOL     OW93600   3.778   6.311  12.585
63923SOL    HW193601   3.719   6.236  12.577
63923SOL    HW293602   3.862   6.278  12.553
63924SOL     OW93603   4.290  12.343   8.307
63924SOL    HW193604   4.199  12.315   8.291
63924SOL    HW293605   4.282  12.434   8.334
63925SOL     OW93606   8.958   5.163  12.975
63925SOL    HW193607   9.047   5.194  12.959
63925SOL    HW293608   8.911   5.182  12.894
63926SOL     OW93609   5.110   4.439  10.531
63926SOL    HW193610   5.186   4.388  10.502
63926SOL    HW293611   5.144   4.528  10.540
63927SOL     OW93612  14.828  13.370  14.184
63927SOL    HW193613  14.793  13.307  14.122
63927SOL    HW293614   0.047  13.344  14.195
63928SOL     OW93615   5.691   5.816   7.915
63928SOL    HW193616   5.651   5.798   7.830
63928SOL    HW293617   5.627   5.871   7.960
63929SOL     OW93618  10.338   6.773   2.811
63929SOL    HW193619  10.281   6.698   2.829
63929SOL    HW293620  10.314   6.838   2.877
63930SOL     OW93621   2.047  13.256  11.447
63930SOL    HW193622   2.029  13.229  11.537
63930SOL    HW293623   2.111  13.192  11.416
63931SOL     OW93624  12.607  11.076   2.677
63931SOL    HW193625  12.552  11.010   2.635
63931SOL    HW293626  12.611  11.147   2.612
63932SOL     OW93627   5.623  13.420   6.222
63932SOL    HW193628   5.550  13.450   6.168
63932SOL    HW293629   5.581  13.373   6.294
63933SOL     OW93630   5.866   1.990  12.929
63933SOL    HW193631   5.929   2.023  12.865
63933SOL    HW293632   5.798   2.057  12.933
63934SOL     OW93633   0.909   5.296   8.083
63934SOL    HW193634   0.864   5.215   8.109
63934SOL    HW293635   0.837   5.358   8.068
63935SOL     OW93636  10.423   6.858  10.580
63935SOL    HW193637  10.383   6.808  10.509
63935SOL    HW293638  10.444   6.792  10.646
63936SOL     OW93639  14.305   0.612  14.133
63936SOL    HW193640  14.215   0.584  14.113
63936SOL    HW293641  14.336   0.652  14.051
63937SOL     OW93642  10.079   1.299  11.324
63937SOL    HW193643  10.046   1.215  11.356
63937SOL    HW293644  10.050   1.304  11.233
63938SOL     OW93645  12.405   3.492   8.215
63938SOL    HW193646  12.371   3.403   8.216
63938SOL    HW293647  12.462   3.495   8.138
63939SOL     OW93648  12.419   0.668   5.407
63939SOL    HW193649  12.512   0.689   5.400
63939SOL    HW293650  12.383   0.739   5.460
63940SOL     OW93651   6.552  14.325  10.584
63940SOL    HW193652   6.583  14.307  10.495
63940SOL    HW293653   6.515  14.414  10.579
63941SOL     OW93654   9.180   3.716   6.686
63941SOL    HW193655   9.116   3.661   6.731
63941SOL    HW293656   9.260   3.706   6.738
63942SOL     OW93657  10.108  13.328  10.279
63942SOL    HW193658  10.159  13.317  10.199
63942SOL    HW293659  10.155  13.394  10.330
63943SOL     OW93660   2.886  13.916   4.161
63943SOL    HW193661   2.881  13.897   4.255
63943SOL    HW293662   2.844  13.840   4.120
63944SOL     OW93663  11.121   6.034   5.431
63944SOL    HW193664  11.064   6.060   5.504
63944SOL    HW293665  11.160   6.116   5.401
63945SOL     OW93666  14.073   8.323  14.479
63945SOL    HW193667  13.983   8.349  14.457
63945SOL    HW293668  14.064   8.236  14.518
63946SOL     OW93669   7.647   4.108   5.084
63946SOL    HW193670   7.605   4.156   5.155
63946SOL    HW293671   7.575   4.062   5.040
63947SOL     OW93672   6.848   9.667   3.592
63947SOL    HW193673   6.855   9.584   3.545
63947SOL    HW293674   6.917   9.663   3.658
63948SOL     OW93675   9.965   8.137   6.438
63948SOL    HW193676  10.020   8.066   6.471
63948SOL    HW293677   9.891   8.093   6.396
63949SOL     OW93678  14.726   3.895  13.344
63949SOL    HW193679  14.739   3.816  13.398
63949SOL    HW293680  14.673   3.953  13.399
63950SOL     OW93681   7.225   8.457  10.777
63950SOL    HW193682   7.186   8.509  10.707
63950SOL    HW293683   7.314   8.492  10.786
63951SOL     OW93684   6.332   1.339  13.518
63951SOL    HW193685   6.282   1.392  13.580
63951SOL    HW293686   6.277   1.262  13.502
63952SOL     OW93687  10.278   2.827  12.166
63952SOL    HW193688  10.245   2.876  12.241
63952SOL    HW293689  10.302   2.742  12.201
63953SOL     OW93690   3.548  10.225  11.212
63953SOL    HW193691   3.621  10.259  11.263
63953SOL    HW293692   3.475  10.220  11.273
63954SOL     OW93693  13.466   0.364   1.027
63954SOL    HW193694  13.551   0.342   0.989
63954SOL    HW293695  13.468   0.324   1.114
63955SOL     OW93696   4.081  10.736   1.471
63955SOL    HW193697   4.089  10.829   1.451
63955SOL    HW293698   4.010  10.705   1.414
63956SOL     OW93699  10.941  13.380  12.556
63956SOL    HW193700  11.032  13.409  12.552
63956SOL    HW293701  10.889  13.460  12.552
63957SOL     OW93702   2.503   2.146  12.590
63957SOL    HW193703   2.559   2.137  12.513
63957SOL    HW293704   2.442   2.073  12.584
63958SOL     OW93705   4.738   6.240   8.188
63958SOL    HW193706   4.767   6.173   8.251
63958SOL    HW293707   4.804   6.309   8.195
63959SOL     OW93708   2.361   4.071   0.343
63959SOL    HW193709   2.347   4.068   0.249
63959SOL    HW293710   2.456   4.063   0.353
63960SOL     OW93711   3.511   4.111  14.152
63960SOL    HW193712   3.569   4.177  14.192
63960SOL    HW293713   3.449   4.089  14.222
63961SOL     OW93714   9.744   5.896   6.223
63961SOL    HW193715   9.839   5.894   6.238
63961SOL    HW293716   9.713   5.812   6.256
63962SOL     OW93717   9.736   6.226  14.001
63962SOL    HW193718   9.804   6.162  14.023
63962SOL    HW293719   9.780   6.289  13.944
63963SOL     OW93720   6.182   8.642   4.745
63963SOL    HW193721   6.245   8.579   4.711
63963SOL    HW293722   6.104   8.630   4.691
63964SOL     OW93723   2.827   3.431  12.996
63964SOL    HW193724   2.870   3.360  13.044
63964SOL    HW293725   2.858   3.511  13.038
63965SOL     OW93726  10.535   2.815   9.190
63965SOL    HW193727  10.525   2.822   9.285
63965SOL    HW293728  10.587   2.736   9.177
63966SOL     OW93729   1.533  14.746  11.915
63966SOL    HW193730   1.590  14.719  11.843
63966SOL    HW293731   1.447  14.755  11.874
63967SOL     OW93732   4.116  12.123  11.048
63967SOL    HW193733   4.049  12.054  11.053
63967SOL    HW293734   4.089  12.186  11.115
63968SOL     OW93735   9.407   5.719   1.524
63968SOL    HW193736   9.326   5.737   1.572
63968SOL    HW293737   9.476   5.757   1.580
63969SOL     OW93738   4.184   6.538   0.663
63969SOL    HW193739   4.110   6.597   0.650
63969SOL    HW293740   4.225   6.531   0.577
63970SOL     OW93741   0.842  11.781   8.185
63970SOL    HW193742   0.810  11.691   8.189
63970SOL    HW293743   0.932  11.776   8.217
63971SOL     OW93744   5.147  10.116  10.773
63971SOL    HW193745   5.085  10.184  10.800
63971SOL    HW293746   5.094  10.055  10.721
63972SOL     OW93747  14.728   7.759   6.068
63972SOL    HW193748  14.794   7.747   6.137
63972SOL    HW293749  14.737   7.850   6.042
63973SOL     OW93750  13.883   1.393  10.991
63973SOL    HW193751  13.952   1.457  10.972
63973SOL    HW293752  13.923   1.309  10.971
63974SOL     OW93753   6.543   7.519  11.366
63974SOL    HW193754   6.631   7.503  11.331
63974SOL    HW293755   6.512   7.596  11.317
63975SOL     OW93756   2.120   8.950   6.837
63975SOL    HW193757   2.193   8.897   6.803
63975SOL    HW293758   2.112   9.022   6.774
63976SOL     OW93759  13.498  10.745   8.792
63976SOL    HW193760  13.432  10.808   8.821
63976SOL    HW293761  13.449  10.663   8.781
63977SOL     OW93762  12.387   5.913   9.776
63977SOL    HW193763  12.383   5.940   9.684
63977SOL    HW293764  12.440   5.833   9.775
63978SOL     OW93765   7.866   1.466   6.161
63978SOL    HW193766   7.903   1.478   6.249
63978SOL    HW293767   7.783   1.421   6.176
63979SOL     OW93768   0.330  11.842  14.474
63979SOL    HW193769   0.367  11.893  14.546
63979SOL    HW293770   0.299  11.761  14.515
63980SOL     OW93771   4.950  13.826  11.840
63980SOL    HW193772   5.028  13.869  11.806
63980SOL    HW293773   4.982  13.741  11.872
63981SOL     OW93774   8.849  10.632   9.742
63981SOL    HW193775   8.834  10.589   9.827
63981SOL    HW293776   8.805  10.576   9.679
63982SOL     OW93777   7.940   8.027   0.666
63982SOL    HW193778   7.949   7.941   0.709
63982SOL    HW293779   7.851   8.027   0.631
63983SOL     OW93780   1.489   5.240   8.883
63983SOL    HW193781   1.509   5.147   8.874
63983SOL    HW293782   1.444   5.263   8.801
63984SOL     OW93783   3.833   0.280   3.168
63984SOL    HW193784   3.774   0.323   3.106
63984SOL    HW293785   3.778   0.263   3.245
63985SOL     OW93786   2.670   0.395  10.356
63985SOL    HW193787   2.670   0.479  10.400
63985SOL    HW293788   2.720   0.337  10.413
63986SOL     OW93789   0.742  11.473   5.056
63986SOL    HW193790   0.832  11.440   5.064
63986SOL    HW293791   0.734  11.537   5.127
63987SOL     OW93792   8.387   4.866   3.523
63987SOL    HW193793   8.404   4.811   3.599
63987SOL    HW293794   8.441   4.828   3.454
63988SOL     OW93795  11.692   7.788   3.745
63988SOL    HW193796  11.717   7.878   3.723
63988SOL    HW293797  11.598   7.784   3.726
63989SOL     OW93798   4.005   0.815   7.708
63989SOL    HW193799   4.004   0.788   7.616
63989SOL    HW293800   3.944   0.889   7.712
63990SOL     OW93801   7.225   8.992  12.676
63990SOL    HW193802   7.271   9.073  12.697
63990SOL    HW293803   7.287   8.942  12.621
63991SOL     OW93804   2.857  13.943   5.356
63991SOL    HW193805   2.832  14.023   5.402
63991SOL    HW293806   2.944  13.922   5.390
63992SOL     OW93807   7.319  12.813   6.973
63992SOL    HW193808   7.290  12.765   7.051
63992SOL    HW293809   7.240  12.856   6.941
63993SOL     OW93810   6.948  11.158  10.220
63993SOL    HW193811   6.974  11.081  10.270
63993SOL    HW293812   6.955  11.230  10.282
63994SOL     OW93813   9.202   7.371   1.057
63994SOL    HW193814   9.123   7.316   1.063
63994SOL    HW293815   9.171   7.460   1.073
63995SOL     OW93816   2.760   0.755   0.010
63995SOL    HW193817   2.674   0.742   0.049
63995SOL    HW293818   2.761   0.848  14.857
63996SOL     OW93819   4.832  13.597   2.543
63996SOL    HW193820   4.911  13.543   2.557
63996SOL    HW293821   4.840  13.667   2.607
63997SOL     OW93822  12.123  11.813  12.704
63997SOL    HW193823  12.209  11.843  12.732
63997SOL    HW293824  12.141  11.734  12.653
63998SOL     OW93825   6.373  11.233   4.078
63998SOL    HW193826   6.283  11.248   4.048
63998SOL    HW293827   6.398  11.316   4.120
63999SOL     OW93828   8.961   1.305   9.932
63999SOL    HW193829   8.924   1.352  10.006
63999SOL    HW293830   9.050   1.283   9.960
64000SOL     OW93831   4.834   9.863   4.386
64000SOL    HW193832   4.836   9.859   4.481
64000SOL    HW293833   4.781   9.788   4.359
64001SOL     OW93834   2.811   3.990   2.776
64001SOL    HW193835   2.759   3.931   2.720
64001SOL    HW293836   2.747   4.033   2.832
64002SOL     OW93837  13.059  10.074   7.495
64002SOL    HW193838  13.081  10.162   7.524
64002SOL    HW293839  13.011  10.087   7.413
64003SOL     OW93840   6.278   7.813   5.505
64003SOL    HW193841   6.329   7.805   5.585
64003SOL    HW293842   6.278   7.724   5.468
64004SOL     OW93843   8.755   0.845  13.457
64004SOL    HW193844   8.758   0.867  13.550
64004SOL    HW293845   8.750   0.749  13.456
64005SOL     OW93846   7.178  12.421  11.160
64005SOL    HW193847   7.106  12.431  11.221
64005SOL    HW293848   7.149  12.467  11.081
64006SOL     OW93849  11.168  12.564   7.641
64006SOL    HW193850  11.219  12.483   7.647
64006SOL    HW293851  11.097  12.543   7.581
64007SOL     OW93852   4.380  10.806   1.989
64007SOL    HW193853   4.416  10.865   1.922
64007SOL    HW293854   4.368  10.723   1.943
64008SOL     OW93855   6.964  11.521   8.509
64008SOL    HW193856   6.929  11.610   8.506
64008SOL    HW293857   6.893  11.469   8.547
64009SOL     OW93858   6.635  12.433   6.492
64009SOL    HW193859   6.648  12.484   6.413
64009SOL    HW293860   6.602  12.348   6.462
64010SOL     OW93861   2.559  12.176   8.107
64010SOL    HW193862   2.470  12.189   8.141
64010SOL    HW293863   2.563  12.232   8.030
64011SOL     OW93864  14.450  10.710  13.503
64011SOL    HW193865  14.390  10.670  13.565
64011SOL    HW293866  14.454  10.802  13.528
64012SOL     OW93867   7.429  11.949   8.959
64012SOL    HW193868   7.369  11.930   8.887
64012SOL    HW293869   7.375  11.990   9.026
64013SOL     OW93870   7.832   8.716   5.191
64013SOL    HW193871   7.849   8.638   5.245
64013SOL    HW293872   7.781   8.773   5.248
64014SOL     OW93873  12.678   4.793   1.596
64014SOL    HW193874  12.746   4.849   1.632
64014SOL    HW293875  12.676   4.717   1.653
64015SOL     OW93876  10.482   7.678   3.839
64015SOL    HW193877  10.555   7.646   3.890
64015SOL    HW293878  10.435   7.737   3.897
64016SOL     OW93879   4.557   6.206   4.285
64016SOL    HW193880   4.494   6.156   4.336
64016SOL    HW293881   4.630   6.146   4.270
64017SOL     OW93882   4.375   7.163  14.347
64017SOL    HW193883   4.329   7.107  14.284
64017SOL    HW293884   4.468   7.148  14.329
64018SOL     OW93885   1.701   8.676  13.313
64018SOL    HW193886   1.661   8.592  13.335
64018SOL    HW293887   1.759   8.657  13.240
64019SOL     OW93888   3.806   5.421   4.929
64019SOL    HW193889   3.795   5.515   4.945
64019SOL    HW293890   3.750   5.403   4.854
64020SOL     OW93891   5.928  14.465   0.861
64020SOL    HW193892   5.975  14.394   0.818
64020SOL    HW293893   5.988  14.539   0.857
64021SOL     OW93894   4.852   6.599   7.541
64021SOL    HW193895   4.933   6.548   7.542
64021SOL    HW293896   4.788   6.542   7.583
64022SOL     OW93897   5.514   6.192   8.418
64022SOL    HW193898   5.424   6.225   8.420
64022SOL    HW293899   5.544   6.200   8.508
64023SOL     OW93900  10.426   1.198   8.618
64023SOL    HW193901  10.503   1.255   8.617
64023SOL    HW293902  10.392   1.202   8.529
64024SOL     OW93903  14.141   9.257   5.848
64024SOL    HW193904  14.100   9.203   5.915
64024SOL    HW293905  14.079   9.328   5.832
64025SOL     OW93906   7.751  14.279  13.722
64025SOL    HW193907   7.728  14.233  13.803
64025SOL    HW293908   7.834  14.241  13.696
64026SOL     OW93909   1.694   4.210   6.996
64026SOL    HW193910   1.603   4.239   6.992
64026SOL    HW293911   1.691   4.127   7.044
64027SOL     OW93912   8.631   3.922   7.271
64027SOL    HW193913   8.692   3.850   7.253
64027SOL    HW293914   8.641   3.939   7.365
64028SOL     OW93915  11.415   8.968  12.617
64028SOL    HW193916  11.384   9.033  12.680
64028SOL    HW293917  11.440   8.893  12.670
64029SOL     OW93918  10.388   3.648   9.788
64029SOL    HW193919  10.361   3.729   9.746
64029SOL    HW293920  10.482   3.658   9.801
64030SOL     OW93921  13.023   3.926  10.643
64030SOL    HW193922  12.971   3.947  10.566
64030SOL    HW293923  13.095   3.989  10.641
64031SOL     OW93924   4.406   2.288  11.104
64031SOL    HW193925   4.376   2.328  11.022
64031SOL    HW293926   4.375   2.198  11.099
64032SOL     OW93927   1.099  12.938   3.190
64032SOL    HW193928   1.137  12.865   3.141
64032SOL    HW293929   1.034  12.897   3.247
64033SOL     OW93930  13.919   7.043   9.348
64033SOL    HW193931  13.889   7.056   9.437
64033SOL    HW293932  13.998   6.990   9.357
64034SOL     OW93933  11.996   3.735   9.628
64034SOL    HW193934  11.990   3.774   9.715
64034SOL    HW293935  12.064   3.668   9.637
64035SOL     OW93936   2.323   7.731  11.874
64035SOL    HW193937   2.385   7.802  11.855
64035SOL    HW293938   2.261   7.769  11.935
64036SOL     OW93939  13.038   0.821  13.309
64036SOL    HW193940  12.955   0.773  13.306
64036SOL    HW293941  13.014   0.908  13.340
64037SOL     OW93942   7.143   6.222   6.439
64037SOL    HW193943   7.227   6.268   6.438
64037SOL    HW293944   7.130   6.196   6.348
64038SOL     OW93945  10.770  13.817   9.893
64038SOL    HW193946  10.740  13.848   9.808
64038SOL    HW293947  10.794  13.897   9.941
64039SOL     OW93948  14.123  11.027  12.744
64039SOL    HW193949  14.191  11.073  12.794
64039SOL    HW293950  14.098  11.090  12.675
64040SOL     OW93951  10.207  12.772  10.727
64040SOL    HW193952  10.168  12.759  10.814
64040SOL    HW293953  10.148  12.833  10.683
64041SOL     OW93954   5.245   1.685  14.253
64041SOL    HW193955   5.228   1.613  14.314
64041SOL    HW293956   5.262   1.761  14.310
64042SOL     OW93957   8.919   6.996   7.289
64042SOL    HW193958   8.991   7.043   7.247
64042SOL    HW293959   8.908   7.038   7.374
64043SOL     OW93960  10.510  14.049  11.369
64043SOL    HW193961  10.594  14.080  11.335
64043SOL    HW293962  10.448  14.119  11.345
64044SOL     OW93963   8.771  11.316   4.062
64044SOL    HW193964   8.816  11.234   4.042
64044SOL    HW293965   8.824  11.384   4.020
64045SOL     OW93966   0.623   7.652   4.595
64045SOL    HW193967   0.667   7.736   4.603
64045SOL    HW293968   0.694   7.588   4.595
64046SOL     OW93969  13.744  12.155   3.964
64046SOL    HW193970  13.740  12.161   3.869
64046SOL    HW293971  13.834  12.131   3.984
64047SOL     OW93972   1.571   6.663   9.254
64047SOL    HW193973   1.512   6.653   9.179
64047SOL    HW293974   1.654   6.626   9.225
64048SOL     OW93975   3.695   0.921  11.003
64048SOL    HW193976   3.651   1.001  10.972
64048SOL    HW293977   3.628   0.853  10.994
64049SOL     OW93978   5.187  12.963  12.070
64049SOL    HW193979   5.207  12.974  12.163
64049SOL    HW293980   5.269  12.931  12.032
64050SOL     OW93981  14.208  10.153   8.277
64050SOL    HW193982  14.281  10.189   8.228
64050SOL    HW293983  14.175  10.226   8.329
64051SOL     OW93984   2.448  11.212   5.359
64051SOL    HW193985   2.394  11.170   5.291
64051SOL    HW293986   2.415  11.301   5.364
64052SOL     OW93987   5.997  14.126   2.436
64052SOL    HW193988   6.020  14.034   2.444
64052SOL    HW293989   6.048  14.170   2.504
64053SOL     OW93990   5.886   3.071   5.411
64053SOL    HW193991   5.930   3.144   5.453
64053SOL    HW293992   5.793   3.093   5.414
64054SOL     OW93993   3.519  11.933   4.395
64054SOL    HW193994   3.519  11.840   4.372
64054SOL    HW293995   3.568  11.938   4.477
64055SOL     OW93996   7.424   1.967  10.366
64055SOL    HW193997   7.423   1.872  10.363
64055SOL    HW293998   7.433   1.988  10.459
64056SOL     OW93999   8.260   7.449   4.295
64056SOL    HW194000   8.273   7.399   4.214
64056SOL    HW294001   8.329   7.419   4.354
64057SOL     OW94002   0.719   4.727  12.285
64057SOL    HW194003   0.753   4.775  12.361
64057SOL    HW294004   0.628   4.757  12.277
64058SOL     OW94005   9.434  12.275   6.411
64058SOL    HW194006   9.362  12.335   6.392
64058SOL    HW294007   9.502  12.298   6.349
64059SOL     OW94008  10.842  11.511  11.845
64059SOL    HW194009  10.915  11.455  11.872
64059SOL    HW294010  10.803  11.466  11.770
64060SOL     OW94011   0.570   5.563  14.523
64060SOL    HW194012   0.529   5.500  14.582
64060SOL    HW294013   0.614   5.509  14.457
64061SOL     OW94014  12.789  10.133   3.688
64061SOL    HW194015  12.722  10.107   3.625
64061SOL    HW294016  12.809  10.224   3.666
64062SOL     OW94017  14.677   9.945   5.660
64062SOL    HW194018  14.652   9.858   5.628
64062SOL    HW294019  14.622   9.959   5.737
64063SOL     OW94020   1.448   0.579   1.635
64063SOL    HW194021   1.506   0.650   1.661
64063SOL    HW294022   1.497   0.530   1.569
64064SOL     OW94023   9.217   9.429   8.296
64064SOL    HW194024   9.262   9.349   8.324
64064SOL    HW294025   9.185   9.408   8.208
64065SOL     OW94026   9.732   2.721   7.923
64065SOL    HW194027   9.638   2.706   7.911
64065SOL    HW294028   9.739   2.812   7.953
64066SOL     OW94029   4.607  13.058  10.683
64066SOL    HW194030   4.654  13.083  10.763
64066SOL    HW294031   4.581  13.141  10.643
64067SOL     OW94032  14.752   3.052   4.336
64067SOL    HW194033  14.687   2.986   4.312
64067SOL    HW294034  14.772   3.034   4.427
64068SOL     OW94035   6.797  13.517  13.662
64068SOL    HW194036   6.837  13.533  13.748
64068SOL    HW294037   6.851  13.567  13.601
64069SOL     OW94038  13.556  13.724   9.271
64069SOL    HW194039  13.536  13.788   9.202
64069SOL    HW294040  13.650  13.708   9.261
64070SOL     OW94041  11.783  11.724   6.827
64070SOL    HW194042  11.741  11.810   6.824
64070SOL    HW294043  11.738  11.678   6.898
64071SOL     OW94044   5.928   9.332  14.034
64071SOL    HW194045   5.924   9.272  14.109
64071SOL    HW294046   5.996   9.395  14.057
64072SOL     OW94047   7.867   7.500  12.305
64072SOL    HW194048   7.906   7.440  12.369
64072SOL    HW294049   7.919   7.486  12.226
64073SOL     OW94050   3.756  13.819  13.273
64073SOL    HW194051   3.719  13.731  13.277
64073SOL    HW294052   3.680  13.877  13.260
64074SOL     OW94053  13.204   7.844   1.265
64074SOL    HW194054  13.242   7.768   1.221
64074SOL    HW294055  13.164   7.895   1.195
64075SOL     OW94056   7.763   1.041   5.039
64075SOL    HW194057   7.819   1.055   4.963
64075SOL    HW294058   7.792   1.107   5.102
64076SOL     OW94059  12.440   3.725  13.779
64076SOL    HW194060  12.521   3.764  13.813
64076SOL    HW294061  12.462   3.633  13.765
64077SOL     OW94062   5.650   8.706  10.808
64077SOL    HW194063   5.694   8.675  10.887
64077SOL    HW294064   5.559   8.680  10.819
64078SOL     OW94065   1.706   0.305  13.861
64078SOL    HW194066   1.685   0.399  13.864
64078SOL    HW294067   1.688   0.274  13.950
64079SOL     OW94068   1.243   0.210   8.499
64079SOL    HW194069   1.321   0.264   8.511
64079SOL    HW294070   1.171   0.273   8.493
64080SOL     OW94071   1.907   7.816  12.123
64080SOL    HW194072   1.825   7.831  12.170
64080SOL    HW294073   1.884   7.757  12.052
64081SOL     OW94074  10.184  12.274  11.211
64081SOL    HW194075  10.221  12.334  11.146
64081SOL    HW294076  10.257  12.217  11.235
64082SOL     OW94077  11.015   8.034   6.480
64082SOL    HW194078  11.008   8.091   6.404
64082SOL    HW294079  11.103   8.050   6.514
64083SOL     OW94080  11.037   4.052   8.173
64083SOL    HW194081  10.977   4.117   8.135
64083SOL    HW294082  11.104   4.040   8.105
64084SOL     OW94083   4.009   0.388   0.724
64084SOL    HW194084   4.003   0.305   0.677
64084SOL    HW294085   4.018   0.454   0.656
64085SOL     OW94086   0.261   1.680   4.918
64085SOL    HW194087   0.269   1.621   4.993
64085SOL    HW294088   0.301   1.632   4.845
64086SOL     OW94089   9.363   0.060   0.492
64086SOL    HW194090   9.321  14.864   0.545
64086SOL    HW294091   9.321   0.141   0.519
64087SOL     OW94092   8.160   6.437   2.446
64087SOL    HW194093   8.189   6.389   2.369
64087SOL    HW294094   8.168   6.529   2.422
64088SOL     OW94095  13.647   3.927   0.785
64088SOL    HW194096  13.729   3.906   0.741
64088SOL    HW294097  13.606   3.994   0.729
64089SOL     OW94098   1.185   3.806   6.651
64089SOL    HW194099   1.116   3.797   6.716
64089SOL    HW294100   1.185   3.723   6.604
64090SOL     OW94101   0.251  13.832   8.872
64090SOL    HW194102   0.227  13.742   8.895
64090SOL    HW294103   0.233  13.838   8.778
64091SOL     OW94104   0.092   3.172  13.259
64091SOL    HW194105   0.091   3.198  13.167
64091SOL    HW294106   0.001   3.177  13.286
64092SOL     OW94107  14.424  13.633  12.058
64092SOL    HW194108  14.451  13.550  12.097
64092SOL    HW294109  14.427  13.696  12.130
64093SOL     OW94110   3.914   8.803  14.764
64093SOL    HW194111   3.848   8.872  14.766
64093SOL    HW294112   3.968   8.823  14.688
64094SOL     OW94113  12.896  14.634   0.489
64094SOL    HW194114  12.984  14.632   0.525
64094SOL    HW294115  12.881  14.726   0.466
64095SOL     OW94116  10.694  14.575  12.699
64095SOL    HW194117  10.743  14.517  12.639
64095SOL    HW294118  10.755  14.646  12.717
64096SOL     OW94119  14.353   4.619   0.088
64096SOL    HW194120  14.387   4.708   0.094
64096SOL    HW294121  14.276   4.626   0.031
64097SOL     OW94122   5.073  14.056   1.796
64097SOL    HW194123   5.097  14.009   1.717
64097SOL    HW294124   5.056  13.988   1.861
64098SOL     OW94125   6.089   2.770   2.864
64098SOL    HW194126   6.123   2.778   2.775
64098SOL    HW294127   6.021   2.704   2.859
64099SOL     OW94128   3.306  14.159   3.218
64099SOL    HW194129   3.317  14.135   3.310
64099SOL    HW294130   3.394  14.157   3.182
64100SOL     OW94131   4.480  12.037  11.827
64100SOL    HW194132   4.451  12.108  11.884
64100SOL    HW294133   4.407  11.974  11.829
64101SOL     OW94134  12.354   8.628   5.275
64101SOL    HW194135  12.392   8.547   5.242
64101SOL    HW294136  12.428   8.686   5.288
64102SOL     OW94137   0.803  11.000   0.798
64102SOL    HW194138   0.731  11.008   0.860
64102SOL    HW294139   0.771  10.940   0.731
64103SOL     OW94140  14.474  13.451   0.221
64103SOL    HW194141  14.558  13.493   0.205
64103SOL    HW294142  14.442  13.493   0.302
64104SOL     OW94143   4.893  12.770  14.439
64104SOL    HW194144   4.846  12.721  14.370
64104SOL    HW294145   4.985  12.750  14.423
64105SOL     OW94146  11.638   3.926   1.170
64105SOL    HW194147  11.700   3.974   1.115
64105SOL    HW294148  11.694   3.879   1.233
64106SOL     OW94149  10.879  12.988   2.273
64106SOL    HW194150  10.787  13.014   2.285
64106SOL    HW294151  10.926  13.071   2.261
64107SOL     OW94152   3.063   6.989   7.391
64107SOL    HW194153   3.155   6.968   7.377
64107SOL    HW294154   3.047   7.066   7.337
64108SOL     OW94155   3.333   1.838   6.078
64108SOL    HW194156   3.419   1.797   6.087
64108SOL    HW294157   3.339   1.918   6.130
64109SOL     OW94158   8.010   3.828   1.537
64109SOL    HW194159   7.940   3.890   1.559
64109SOL    HW294160   8.089   3.867   1.576
64110SOL     OW94161   3.460   6.183   9.097
64110SOL    HW194162   3.369   6.189   9.070
64110SOL    HW294163   3.510   6.221   9.025
64111SOL     OW94164   0.191   1.053   2.122
64111SOL    HW194165   0.252   0.983   2.097
64111SOL    HW294166   0.245   1.133   2.121
64112SOL     OW94167  13.329   5.012  13.664
64112SOL    HW194168  13.240   4.981  13.680
64112SOL    HW294169  13.382   4.965  13.728
64113SOL     OW94170   7.577   1.177  13.670
64113SOL    HW194171   7.654   1.203  13.721
64113SOL    HW294172   7.601   1.092  13.633
64114SOL     OW94173  10.040   6.881   6.890
64114SOL    HW194174  10.037   6.847   6.801
64114SOL    HW294175  10.073   6.808   6.943
64115SOL     OW94176  13.666   1.611  13.119
64115SOL    HW194177  13.716   1.602  13.038
64115SOL    HW294178  13.633   1.700  13.118
64116SOL     OW94179  14.426   6.727  12.211
64116SOL    HW194180  14.373   6.690  12.141
64116SOL    HW294181  14.499   6.667  12.220
64117SOL     OW94182   2.546   1.752   2.914
64117SOL    HW194183   2.510   1.723   2.830
64117SOL    HW294184   2.542   1.848   2.911
64118SOL     OW94185  11.780   0.660   1.161
64118SOL    HW194186  11.770   0.615   1.077
64118SOL    HW294187  11.848   0.726   1.145
64119SOL     OW94188  11.528   8.592   8.188
64119SOL    HW194189  11.502   8.542   8.111
64119SOL    HW294190  11.571   8.528   8.245
64120SOL     OW94191  10.779   3.519   6.052
64120SOL    HW194192  10.812   3.461   6.121
64120SOL    HW294193  10.770   3.463   5.975
64121SOL     OW94194   2.902   9.742  10.581
64121SOL    HW194195   2.819   9.738  10.628
64121SOL    HW294196   2.934   9.652  10.582
64122SOL     OW94197   7.544   3.176  12.669
64122SOL    HW194198   7.519   3.234  12.597
64122SOL    HW294199   7.637   3.157  12.653
64123SOL     OW94200   3.352   5.424   4.906
64123SOL    HW194201   3.412   5.375   4.963
64123SOL    HW294202   3.384   5.514   4.909
64124SOL     OW94203   6.781  10.358  14.785
64124SOL    HW194204   6.799  10.391  14.697
64124SOL    HW294205   6.732  10.277  14.771
64125SOL     OW94206  13.972   5.785  13.616
64125SOL    HW194207  13.979   5.694  13.588
64125SOL    HW294208  13.880   5.808  13.599
64126SOL     OW94209  11.552   3.683   5.235
64126SOL    HW194210  11.583   3.746   5.301
64126SOL    HW294211  11.631   3.636   5.208
64127SOL     OW94212   6.871   1.066  12.235
64127SOL    HW194213   6.796   1.080  12.293
64127SOL    HW294214   6.942   1.117  12.275
64128SOL     OW94215  10.551   8.558  14.461
64128SOL    HW194216  10.639   8.593  14.446
64128SOL    HW294217  10.559   8.510  14.544
64129SOL     OW94218   8.213   5.194   8.939
64129SOL    HW194219   8.142   5.161   8.884
64129SOL    HW294220   8.292   5.152   8.904
64130SOL     OW94221   4.215  10.014   2.977
64130SOL    HW194222   4.147   9.963   2.933
64130SOL    HW294223   4.298   9.974   2.948
64131SOL     OW94224  11.748  13.758   3.493
64131SOL    HW194225  11.763  13.805   3.411
64131SOL    HW294226  11.768  13.822   3.561
64132SOL     OW94227   8.326   8.809   1.309
64132SOL    HW194228   8.405   8.780   1.354
64132SOL    HW294229   8.344   8.795   1.216
64133SOL     OW94230   4.185   9.497   3.280
64133SOL    HW194231   4.189   9.404   3.301
64133SOL    HW294232   4.239   9.506   3.201
64134SOL     OW94233   0.579   9.274   7.298
64134SOL    HW194234   0.640   9.213   7.338
64134SOL    HW294235   0.613   9.287   7.209
64135SOL     OW94236   3.736   9.541   9.072
64135SOL    HW194237   3.786   9.612   9.112
64135SOL    HW294238   3.801   9.477   9.044
64136SOL     OW94239   4.231   4.479  10.796
64136SOL    HW194240   4.230   4.409  10.861
64136SOL    HW294241   4.140   4.507  10.789
64137SOL     OW94242  10.121  13.481   6.340
64137SOL    HW194243  10.044  13.516   6.297
64137SOL    HW294244  10.108  13.501   6.433
64138SOL     OW94245  14.476   7.003   2.092
64138SOL    HW194246  14.535   6.956   2.033
64138SOL    HW294247  14.511   6.985   2.179
64139SOL     OW94248   6.982  13.926   1.975
64139SOL    HW194249   6.957  13.874   1.898
64139SOL    HW294250   6.918  13.997   1.977
64140SOL     OW94251  11.661   1.661   0.179
64140SOL    HW194252  11.680   1.754   0.166
64140SOL    HW294253  11.645   1.628   0.090
64141SOL     OW94254   1.851   9.674   4.150
64141SOL    HW194255   1.831   9.759   4.110
64141SOL    HW294256   1.897   9.625   4.082
64142SOL     OW94257   9.068   6.909  12.705
64142SOL    HW194258   9.112   6.825  12.703
64142SOL    HW294259   9.003   6.905  12.635
64143SOL     OW94260  10.120  14.552   7.264
64143SOL    HW194261  10.085  14.544   7.175
64143SOL    HW294262  10.044  14.544   7.321
64144SOL     OW94263   7.294   0.199   5.697
64144SOL    HW194264   7.318   0.107   5.682
64144SOL    HW294265   7.377   0.242   5.718
64145SOL     OW94266   9.729  12.544   9.981
64145SOL    HW194267   9.721  12.540   9.885
64145SOL    HW294268   9.818  12.574   9.996
64146SOL     OW94269   1.194   8.229  12.712
64146SOL    HW194270   1.196   8.150  12.766
64146SOL    HW294271   1.287   8.251  12.698
64147SOL     OW94272  10.546   7.031   6.475
64147SOL    HW194273  10.496   7.003   6.398
64147SOL    HW294274  10.480   7.048   6.542
64148SOL     OW94275   9.025   0.129  12.442
64148SOL    HW194276   8.978   0.189  12.500
64148SOL    HW294277   9.027   0.047  12.490
64149SOL     OW94278   6.017   6.933  13.607
64149SOL    HW194279   6.053   7.015  13.574
64149SOL    HW294280   6.090   6.871  13.602
64150SOL     OW94281  12.951  13.289  11.154
64150SOL    HW194282  12.880  13.344  11.121
64150SOL    HW294283  12.932  13.202  11.120
64151SOL     OW94284   7.990   4.664  11.901
64151SOL    HW194285   8.000   4.582  11.852
64151SOL    HW294286   7.899   4.664  11.930
64152SOL     OW94287  10.347   1.923   0.699
64152SOL    HW194288  10.436   1.954   0.715
64152SOL    HW294289  10.292   2.001   0.709
64153SOL     OW94290  12.111  13.422  12.102
64153SOL    HW194291  12.090  13.351  12.164
64153SOL    HW294292  12.148  13.491  12.156
64154SOL     OW94293   3.667  11.817   3.855
64154SOL    HW194294   3.606  11.882   3.821
64154SOL    HW294295   3.736  11.811   3.789
64155SOL     OW94296   5.195   5.129  14.674
64155SOL    HW194297   5.185   5.061  14.741
64155SOL    HW294298   5.187   5.212  14.723
64156SOL     OW94299   2.565   5.538   4.518
64156SOL    HW194300   2.649   5.539   4.564
64156SOL    HW294301   2.529   5.626   4.532
64157SOL     OW94302   3.329  12.206   4.461
64157SOL    HW194303   3.360  12.127   4.417
64157SOL    HW294304   3.235  12.191   4.475
64158SOL     OW94305  10.625  13.999   1.551
64158SOL    HW194306  10.687  13.974   1.483
64158SOL    HW294307  10.612  14.093   1.538
64159SOL     OW94308   7.345   0.773  11.140
64159SOL    HW194309   7.435   0.806  11.150
64159SOL    HW294310   7.351   0.680  11.164
64160SOL     OW94311   4.572   8.266   6.056
64160SOL    HW194312   4.568   8.352   6.097
64160SOL    HW294313   4.543   8.205   6.124
64161SOL     OW94314   9.637   1.963  13.383
64161SOL    HW194315   9.580   2.035  13.357
64161SOL    HW294316   9.586   1.915  13.449
64162SOL     OW94317  13.725   6.992   8.297
64162SOL    HW194318  13.670   7.050   8.348
64162SOL    HW294319  13.664   6.937   8.248
64163SOL     OW94320   5.529   8.437   9.819
64163SOL    HW194321   5.510   8.351   9.780
64163SOL    HW294322   5.614   8.426   9.861
64164SOL     OW94323   7.428   5.725  14.230
64164SOL    HW194324   7.417   5.631  14.218
64164SOL    HW294325   7.520   5.742  14.208
64165SOL     OW94326  10.032  13.277   7.363
64165SOL    HW194327   9.962  13.235   7.313
64165SOL    HW294328  10.099  13.209   7.372
64166SOL     OW94329   4.974   8.324   8.641
64166SOL    HW194330   4.895   8.270   8.645
64166SOL    HW294331   4.941   8.414   8.635
64167SOL     OW94332  13.736   4.943   3.390
64167SOL    HW194333  13.791   5.015   3.359
64167SOL    HW294334  13.678   4.983   3.455
64168SOL     OW94335   0.999   9.825   0.603
64168SOL    HW194336   0.942   9.863   0.536
64168SOL    HW294337   1.073   9.789   0.554
64169SOL     OW94338   3.545   6.348   3.307
64169SOL    HW194339   3.456   6.317   3.325
64169SOL    HW294340   3.534   6.437   3.274
64170SOL     OW94341  14.232   0.203  13.444
64170SOL    HW194342  14.144   0.214  13.480
64170SOL    HW294343  14.219   0.204  13.349
64171SOL     OW94344   5.785   3.062  13.142
64171SOL    HW194345   5.831   3.137  13.103
64171SOL    HW294346   5.779   2.998  13.071
64172SOL     OW94347   8.962   4.045   7.377
64172SOL    HW194348   9.012   3.975   7.334
64172SOL    HW294349   8.999   4.051   7.464
64173SOL     OW94350   7.432  12.060   5.523
64173SOL    HW194351   7.368  11.990   5.510
64173SOL    HW294352   7.385  12.127   5.573
64174SOL     OW94353   6.054  14.547   9.345
64174SOL    HW194354   6.013  14.605   9.282
64174SOL    HW294355   6.112  14.603   9.396
64175SOL     OW94356  11.366   7.179   5.039
64175SOL    HW194357  11.316   7.196   4.959
64175SOL    HW294358  11.444   7.234   5.032
64176SOL     OW94359   3.822   3.319   3.542
64176SOL    HW194360   3.745   3.298   3.594
64176SOL    HW294361   3.843   3.237   3.497
64177SOL     OW94362   7.671   7.857   8.139
64177SOL    HW194363   7.592   7.828   8.185
64177SOL    HW294364   7.686   7.790   8.072
64178SOL     OW94365   8.925  14.273  14.313
64178SOL    HW194366   8.832  14.288  14.332
64178SOL    HW294367   8.967  14.358  14.325
64179SOL     OW94368   6.300   8.664   0.737
64179SOL    HW194369   6.369   8.711   0.692
64179SOL    HW294370   6.219   8.694   0.696
64180SOL     OW94371  11.660  13.108  14.455
64180SOL    HW194372  11.566  13.114  14.439
64180SOL    HW294373  11.698  13.090  14.369
64181SOL     OW94374   5.784  10.179   4.550
64181SOL    HW194375   5.716  10.120   4.582
64181SOL    HW294376   5.864  10.147   4.591
64182SOL     OW94377  11.369   7.830  10.195
64182SOL    HW194378  11.344   7.746  10.158
64182SOL    HW294379  11.331   7.830  10.283
64183SOL     OW94380  13.621  13.155   1.379
64183SOL    HW194381  13.685  13.095   1.340
64183SOL    HW294382  13.543  13.101   1.390
64184SOL     OW94383   0.476   9.863   2.601
64184SOL    HW194384   0.407   9.914   2.559
64184SOL    HW294385   0.450   9.772   2.586
64185SOL     OW94386   3.584   7.490   9.391
64185SOL    HW194387   3.514   7.502   9.327
64185SOL    HW294388   3.563   7.553   9.460
64186SOL     OW94389  10.439   1.560   2.073
64186SOL    HW194390  10.480   1.646   2.075
64186SOL    HW294391  10.512   1.499   2.063
64187SOL     OW94392  14.421   4.850   2.617
64187SOL    HW194393  14.509   4.885   2.605
64187SOL    HW294394  14.434   4.768   2.666
64188SOL     OW94395  11.934   5.046   2.816
64188SOL    HW194396  11.956   4.992   2.740
64188SOL    HW294397  12.019   5.064   2.857
64189SOL     OW94398  14.541   0.660   5.547
64189SOL    HW194399  14.556   0.672   5.641
64189SOL    HW294400  14.540   0.565   5.535
64190SOL     OW94401   1.393  13.614   0.567
64190SOL    HW194402   1.336  13.664   0.509
64190SOL    HW294403   1.397  13.526   0.529
64191SOL     OW94404   6.103   4.175   1.811
64191SOL    HW194405   6.161   4.125   1.752
64191SOL    HW294406   6.132   4.266   1.802
64192SOL     OW94407   1.384  12.063   6.650
64192SOL    HW194408   1.332  11.982   6.655
64192SOL    HW294409   1.474  12.035   6.667
64193SOL     OW94410   5.611   8.419   5.261
64193SOL    HW194411   5.580   8.341   5.214
64193SOL    HW294412   5.670   8.386   5.328
64194SOL     OW94413  10.566  14.257   1.547
64194SOL    HW194414  10.646  14.309   1.544
64194SOL    HW294415  10.511  14.294   1.478
64195SOL     OW94416  10.382   3.451   9.144
64195SOL    HW194417  10.385   3.429   9.051
64195SOL    HW294418  10.407   3.371   9.189
64196SOL     OW94419  10.870   5.881  11.741
64196SOL    HW194420  10.901   5.793  11.759
64196SOL    HW294421  10.777   5.879  11.764
64197SOL     OW94422  12.227  11.885   7.920
64197SOL    HW194423  12.244  11.827   7.994
64197SOL    HW294424  12.143  11.926   7.940
64198SOL     OW94425  10.984   1.001  11.186
64198SOL    HW194426  10.946   1.077  11.229
64198SOL    HW294427  11.067   0.987  11.231
64199SOL     OW94428   2.196   8.043   8.127
64199SOL    HW194429   2.147   7.966   8.100
64199SOL    HW294430   2.203   8.035   8.222
64200SOL     OW94431   7.650  11.098   6.305
64200SOL    HW194432   7.590  11.043   6.254
64200SOL    HW294433   7.599  11.126   6.381
64201SOL     OW94434  11.451   5.072   8.800
64201SOL    HW194435  11.534   5.075   8.847
64201SOL    HW294436  11.426   4.980   8.801
64202SOL     OW94437  13.853   2.026   4.711
64202SOL    HW194438  13.798   2.061   4.780
64202SOL    HW294439  13.884   2.103   4.663
64203SOL     OW94440  10.210   1.941   5.246
64203SOL    HW194441  10.281   1.947   5.181
64203SOL    HW294442  10.255   1.921   5.328
64204SOL     OW94443   5.896   9.887   7.107
64204SOL    HW194444   5.836   9.914   7.037
64204SOL    HW294445   5.841   9.837   7.168
64205SOL     OW94446  13.115   8.214   4.943
64205SOL    HW194447  13.095   8.146   5.007
64205SOL    HW294448  13.198   8.186   4.904
64206SOL     OW94449  10.837   3.909   4.226
64206SOL    HW194450  10.782   3.909   4.147
64206SOL    HW294451  10.778   3.881   4.296
64207SOL     OW94452  10.581   5.486  12.911
64207SOL    HW194453  10.500   5.464  12.865
64207SOL    HW294454  10.604   5.406  12.958
64208SOL     OW94455   3.635  14.665  12.224
64208SOL    HW194456   3.686  14.692  12.301
64208SOL    HW294457   3.656  14.572  12.213
64209SOL     OW94458   1.815  11.136   6.715
64209SOL    HW194459   1.776  11.194   6.781
64209SOL    HW294460   1.877  11.082   6.764
64210SOL     OW94461   9.789   4.630   1.491
64210SOL    HW194462   9.858   4.645   1.556
64210SOL    HW294463   9.707   4.647   1.538
64211SOL     OW94464   9.852   7.704   2.386
64211SOL    HW194465   9.925   7.677   2.330
64211SOL    HW294466   9.892   7.722   2.471
64212SOL     OW94467   7.199   6.893   8.147
64212SOL    HW194468   7.273   6.953   8.146
64212SOL    HW294469   7.230   6.817   8.196
64213SOL     OW94470   4.791  13.291   2.326
64213SOL    HW194471   4.849  13.320   2.256
64213SOL    HW294472   4.824  13.337   2.404
64214SOL     OW94473   7.243  12.115  11.442
64214SOL    HW194474   7.324  12.123  11.391
64214SOL    HW294475   7.266  12.059  11.515
64215SOL     OW94476   3.984   8.405   1.232
64215SOL    HW194477   4.071   8.425   1.196
64215SOL    HW294478   3.924   8.423   1.160
64216SOL     OW94479   0.413  11.484  11.242
64216SOL    HW194480   0.334  11.496  11.294
64216SOL    HW294481   0.485  11.503  11.303
64217SOL     OW94482  10.074  12.251   8.960
64217SOL    HW194483  10.071  12.172   8.906
64217SOL    HW294484  10.167  12.275   8.961
64218SOL     OW94485   0.003  14.053   1.929
64218SOL    HW194486   0.016  14.066   2.023
64218SOL    HW294487  14.795  14.000   1.923
64219SOL     OW94488   8.322   6.735  11.597
64219SOL    HW194489   8.332   6.807  11.660
64219SOL    HW294490   8.407   6.729  11.554
64220SOL     OW94491   2.652  10.442   2.689
64220SOL    HW194492   2.677  10.459   2.780
64220SOL    HW294493   2.735  10.445   2.641
64221SOL     OW94494   8.831   3.692  12.057
64221SOL    HW194495   8.800   3.774  12.019
64221SOL    HW294496   8.925   3.705  12.071
64222SOL     OW94497   7.908   2.024   6.827
64222SOL    HW194498   7.977   2.043   6.764
64222SOL    HW294499   7.924   2.085   6.899
64223SOL     OW94500   9.819  12.209   1.625
64223SOL    HW194501   9.842  12.193   1.717
64223SOL    HW294502   9.751  12.144   1.605
64224SOL     OW94503  13.259   0.448  14.846
64224SOL    HW194504  13.176   0.492  14.828
64224SOL    HW294505  13.241   0.355  14.828
64225SOL     OW94506   3.963   2.141   1.916
64225SOL    HW194507   3.904   2.106   1.849
64225SOL    HW294508   3.938   2.093   1.996
64226SOL     OW94509  11.704   9.035   5.658
64226SOL    HW194510  11.677   9.125   5.641
64226SOL    HW294511  11.763   9.014   5.585
64227SOL     OW94512   5.894   1.680   3.368
64227SOL    HW194513   5.957   1.702   3.299
64227SOL    HW294514   5.839   1.613   3.329
64228SOL     OW94515   8.903   6.007   9.773
64228SOL    HW194516   8.908   6.073   9.704
64228SOL    HW294517   8.912   6.057   9.854
64229SOL     OW94518  13.648  10.749   4.596
64229SOL    HW194519  13.616  10.835   4.571
64229SOL    HW294520  13.596  10.687   4.546
64230SOL     OW94521   3.550   3.350   1.576
64230SOL    HW194522   3.511   3.290   1.513
64230SOL    HW294523   3.541   3.437   1.536
64231SOL     OW94524   3.427  12.335   9.468
64231SOL    HW194525   3.464  12.353   9.382
64231SOL    HW294526   3.498  12.294   9.516
64232SOL     OW94527   5.768   0.045  12.650
64232SOL    HW194528   5.690  14.867  12.625
64232SOL    HW294529   5.832  14.851  12.676
64233SOL     OW94530  11.602   8.942   3.348
64233SOL    HW194531  11.551   8.916   3.272
64233SOL    HW294532  11.682   8.981   3.312
64234SOL     OW94533   6.579   5.213  11.551
64234SOL    HW194534   6.663   5.254  11.569
64234SOL    HW294535   6.526   5.232  11.629
64235SOL     OW94536  11.358   1.636  10.608
64235SOL    HW194537  11.308   1.698  10.555
64235SOL    HW294538  11.411   1.691  10.665
64236SOL     OW94539   1.940   2.683   9.005
64236SOL    HW194540   1.925   2.589   8.988
64236SOL    HW294541   1.875   2.705   9.072
64237SOL     OW94542   7.041   1.944  10.106
64237SOL    HW194543   7.116   1.905  10.062
64237SOL    HW294544   6.965   1.912  10.057
64238SOL     OW94545   8.447  12.957  11.228
64238SOL    HW194546   8.542  12.945  11.240
64238SOL    HW294547   8.439  13.036  11.174
64239SOL     OW94548  11.884   7.119   8.983
64239SOL    HW194549  11.943   7.093   9.053
64239SOL    HW294550  11.931   7.096   8.902
64240SOL     OW94551  12.025   2.749   4.693
64240SOL    HW194552  12.070   2.829   4.667
64240SOL    HW294553  12.043   2.687   4.622
64241SOL     OW94554   6.490   3.645   5.433
64241SOL    HW194555   6.526   3.557   5.433
64241SOL    HW294556   6.403   3.636   5.393
64242SOL     OW94557  12.023   2.314  14.366
64242SOL    HW194558  11.996   2.405  14.378
64242SOL    HW294559  12.057   2.288  14.452
64243SOL     OW94560  11.517  11.618  10.959
64243SOL    HW194561  11.516  11.628  11.055
64243SOL    HW294562  11.450  11.679  10.929
64244SOL     OW94563   0.730   1.530   1.499
64244SOL    HW194564   0.639   1.544   1.525
64244SOL    HW294565   0.771   1.491   1.577
64245SOL     OW94566   8.143   4.332  12.440
64245SOL    HW194567   8.084   4.360  12.370
64245SOL    HW294568   8.116   4.242  12.460
64246SOL     OW94569   4.853  12.309   7.039
64246SOL    HW194570   4.893  12.315   6.953
64246SOL    HW294571   4.825  12.217   7.046
64247SOL     OW94572   3.232   0.413   9.082
64247SOL    HW194573   3.152   0.451   9.048
64247SOL    HW294574   3.300   0.438   9.019
64248SOL     OW94575   2.691  10.606   0.753
64248SOL    HW194576   2.598  10.627   0.757
64248SOL    HW294577   2.699  10.520   0.795
64249SOL     OW94578   4.161  10.058   8.161
64249SOL    HW194579   4.196   9.995   8.097
64249SOL    HW294580   4.069  10.035   8.170
64250SOL     OW94581   8.874   8.347   1.619
64250SOL    HW194582   8.919   8.343   1.704
64250SOL    HW294583   8.938   8.313   1.557
64251SOL     OW94584  13.864   6.731   1.159
64251SOL    HW194585  13.789   6.671   1.162
64251SOL    HW294586  13.909   6.709   1.077
64252SOL     OW94587  14.009   5.130   0.758
64252SOL    HW194588  14.050   5.150   0.842
64252SOL    HW294589  13.932   5.187   0.755
64253SOL     OW94590  14.564   5.200   5.054
64253SOL    HW194591  14.489   5.236   5.006
64253SOL    HW294592  14.581   5.115   5.012
64254SOL     OW94593  13.608  14.067   8.651
64254SOL    HW194594  13.590  14.155   8.618
64254SOL    HW294595  13.522  14.027   8.662
64255SOL     OW94596   0.271   6.141   7.181
64255SOL    HW194597   0.198   6.147   7.119
64255SOL    HW294598   0.239   6.186   7.260
64256SOL     OW94599   2.932  12.193   5.910
64256SOL    HW194600   2.866  12.126   5.895
64256SOL    HW294601   3.014  12.145   5.919
64257SOL     OW94602  11.478   6.655   1.127
64257SOL    HW194603  11.480   6.720   1.197
64257SOL    HW294604  11.386   6.647   1.104
64258SOL     OW94605   3.331  13.162  14.524
64258SOL    HW194606   3.275  13.105  14.470
64258SOL    HW294607   3.409  13.109  14.542
64259SOL     OW94608   1.382   6.125   4.966
64259SOL    HW194609   1.388   6.075   5.047
64259SOL    HW294610   1.472   6.134   4.936
64260SOL     OW94611  14.263   0.086   4.168
64260SOL    HW194612  14.192   0.022   4.171
64260SOL    HW294613  14.226   0.161   4.121
64261SOL     OW94614   7.541  14.668  12.053
64261SOL    HW194615   7.547  14.656  11.958
64261SOL    HW294616   7.573  14.586  12.090
64262SOL     OW94617   5.088   5.886  13.087
64262SOL    HW194618   5.061   5.935  13.009
64262SOL    HW294619   5.112   5.799  13.054
64263SOL     OW94620   5.996   3.273   7.957
64263SOL    HW194621   5.995   3.290   8.051
64263SOL    HW294622   6.027   3.182   7.950
64264SOL     OW94623   0.190  14.820   6.742
64264SOL    HW194624   0.274  14.774   6.748
64264SOL    HW294625   0.143  14.795   6.821
64265SOL     OW94626  10.902   0.039  14.103
64265SOL    HW194627  10.945   0.124  14.110
64265SOL    HW294628  10.809   0.060  14.095
64266SOL     OW94629  10.924   9.398   1.794
64266SOL    HW194630  10.877   9.481   1.803
64266SOL    HW294631  11.004   9.410   1.846
64267SOL     OW94632  14.380   0.876  11.084
64267SOL    HW194633  14.437   0.818  11.133
64267SOL    HW294634  14.421   0.962  11.092
64268SOL     OW94635   7.427  13.635  13.068
64268SOL    HW194636   7.463  13.555  13.031
64268SOL    HW294637   7.405  13.689  12.992
64269SOL     OW94638   5.828   3.769  14.612
64269SOL    HW194639   5.791   3.786  14.525
64269SOL    HW294640   5.764   3.712  14.654
64270SOL     OW94641  11.193  11.326   2.060
64270SOL    HW194642  11.193  11.369   1.975
64270SOL    HW294643  11.286  11.310   2.079
64271SOL     OW94644   4.831  13.124   0.761
64271SOL    HW194645   4.895  13.184   0.800
64271SOL    HW294646   4.807  13.166   0.678
64272SOL     OW94647   3.448  14.698   6.273
64272SOL    HW194648   3.526  14.734   6.232
64272SOL    HW294649   3.378  14.714   6.211
64273SOL     OW94650   3.004   7.478  14.017
64273SOL    HW194651   3.011   7.414  14.088
64273SOL    HW294652   2.912   7.504  14.017
64274SOL     OW94653  10.709   5.702   1.221
64274SOL    HW194654  10.721   5.700   1.316
64274SOL    HW294655  10.660   5.782   1.205
64275SOL     OW94656   8.476   9.423   3.229
64275SOL    HW194657   8.506   9.512   3.212
64275SOL    HW294658   8.530   9.368   3.171
64276SOL     OW94659   4.764  14.152   2.787
64276SOL    HW194660   4.689  14.136   2.729
64276SOL    HW294661   4.749  14.092   2.860
64277SOL     OW94662   0.878   6.522   2.177
64277SOL    HW194663   0.832   6.560   2.103
64277SOL    HW294664   0.971   6.541   2.161
64278SOL     OW94665   8.178   4.247  11.932
64278SOL    HW194666   8.237   4.212  11.865
64278SOL    HW294667   8.181   4.184  12.003
64279SOL     OW94668  14.323   1.070   7.907
64279SOL    HW194669  14.261   0.998   7.915
64279SOL    HW294670  14.275   1.137   7.857
64280SOL     OW94671   8.932   6.114  10.961
64280SOL    HW194672   9.001   6.048  10.966
64280SOL    HW294673   8.978   6.194  10.933
64281SOL     OW94674   0.989   3.801   7.949
64281SOL    HW194675   1.072   3.841   7.923
64281SOL    HW294676   0.926   3.831   7.882
64282SOL     OW94677  11.867   5.766  10.514
64282SOL    HW194678  11.883   5.677  10.484
64282SOL    HW294679  11.933   5.819  10.469
64283SOL     OW94680   0.092   7.604   0.926
64283SOL    HW194681   0.163   7.540   0.923
64283SOL    HW294682   0.028   7.572   0.862
64284SOL     OW94683   2.710   7.089  11.741
64284SOL    HW194684   2.683   7.169  11.785
64284SOL    HW294685   2.788   7.114  11.692
64285SOL     OW94686   8.957   6.521   4.804
64285SOL    HW194687   8.971   6.614   4.787
64285SOL    HW294688   8.986   6.509   4.895
64286SOL     OW94689  11.303  11.364   3.352
64286SOL    HW194690  11.213  11.385   3.324
64286SOL    HW294691  11.312  11.407   3.437
64287SOL     OW94692   7.494  10.223  13.583
64287SOL    HW194693   7.495  10.310  13.623
64287SOL    HW294694   7.537  10.235  13.498
64288SOL     OW94695  10.437   4.587   5.351
64288SOL    HW194696  10.520   4.539   5.353
64288SOL    HW294697  10.405   4.574   5.261
64289SOL     OW94698   9.916  10.046  10.156
64289SOL    HW194699   9.897   9.986  10.084
64289SOL    HW294700   9.908  10.133  10.117
64290SOL     OW94701   5.534   3.835   3.844
64290SOL    HW194702   5.594   3.821   3.771
64290SOL    HW294703   5.573   3.906   3.894
64291SOL     OW94704   7.203   2.850   6.201
64291SOL    HW194705   7.149   2.817   6.272
64291SOL    HW294706   7.263   2.778   6.180
64292SOL     OW94707   8.068  14.153   8.644
64292SOL    HW194708   8.111  14.148   8.558
64292SOL    HW294709   7.974  14.152   8.624
64293SOL     OW94710  11.538   3.881   8.056
64293SOL    HW194711  11.454   3.924   8.041
64293SOL    HW294712  11.540   3.808   7.993
64294SOL     OW94713   1.744   1.865   6.139
64294SOL    HW194714   1.789   1.877   6.223
64294SOL    HW294715   1.797   1.914   6.076
64295SOL     OW94716   5.733  12.595  11.779
64295SOL    HW194717   5.821  12.609  11.743
64295SOL    HW294718   5.708  12.680  11.815
64296SOL     OW94719  11.846   0.135  10.424
64296SOL    HW194720  11.868   0.182  10.504
64296SOL    HW294721  11.768   0.085  10.446
64297SOL     OW94722   5.652   7.674   8.297
64297SOL    HW194723   5.685   7.742   8.356
64297SOL    HW294724   5.559   7.666   8.319
64298SOL     OW94725   9.241  11.801  12.762
64298SOL    HW194726   9.252  11.746  12.684
64298SOL    HW294727   9.292  11.756  12.830
64299SOL     OW94728   8.894   7.428  11.951
64299SOL    HW194729   8.936   7.511  11.932
64299SOL    HW294730   8.819   7.424  11.891
64300SOL     OW94731  11.211   6.163  13.670
64300SOL    HW194732  11.160   6.222  13.615
64300SOL    HW294733  11.160   6.082  13.673
64301SOL     OW94734  14.098   5.734  14.822
64301SOL    HW194735  14.005   5.749  14.838
64301SOL    HW294736  14.139   5.819  14.836
64302SOL     OW94737  13.064   0.270   7.840
64302SOL    HW194738  12.996   0.330   7.808
64302SOL    HW294739  13.110   0.320   7.906
64303SOL     OW94740   9.475   2.399  11.810
64303SOL    HW194741   9.431   2.439  11.735
64303SOL    HW294742   9.537   2.465  11.840
64304SOL     OW94743  12.890   8.707   3.061
64304SOL    HW194744  12.977   8.669   3.051
64304SOL    HW294745  12.845   8.647   3.121
64305SOL     OW94746   6.681   9.488   5.072
64305SOL    HW194747   6.612   9.522   5.128
64305SOL    HW294748   6.668   9.393   5.072
64306SOL     OW94749   2.336  11.222   6.190
64306SOL    HW194750   2.334  11.140   6.238
64306SOL    HW294751   2.384  11.282   6.247
64307SOL     OW94752   1.513  12.195   1.385
64307SOL    HW194753   1.558  12.250   1.321
64307SOL    HW294754   1.561  12.112   1.385
64308SOL     OW94755   7.560  10.893   1.616
64308SOL    HW194756   7.544  10.891   1.710
64308SOL    HW294757   7.595  10.805   1.597
64309SOL     OW94758  14.638  13.846   3.436
64309SOL    HW194759  14.718  13.896   3.421
64309SOL    HW294760  14.643  13.773   3.375
64310SOL     OW94761  14.602   4.504   8.327
64310SOL    HW194762  14.682   4.466   8.291
64310SOL    HW294763  14.550   4.529   8.251
64311SOL     OW94764   6.766   3.545   4.428
64311SOL    HW194765   6.745   3.630   4.388
64311SOL    HW294766   6.695   3.528   4.489
64312SOL     OW94767   8.282   3.083   7.899
64312SOL    HW194768   8.219   3.130   7.845
64312SOL    HW294769   8.229   3.025   7.954
64313SOL     OW94770   6.122   5.050   9.807
64313SOL    HW194771   6.089   4.976   9.756
64313SOL    HW294772   6.108   5.025   9.898
64314SOL     OW94773   7.856  14.040   9.631
64314SOL    HW194774   7.859  13.998   9.717
64314SOL    HW294775   7.920  14.110   9.636
64315SOL     OW94776   4.213   8.100  12.763
64315SOL    HW194777   4.221   8.045  12.840
64315SOL    HW294778   4.181   8.042  12.694
64316SOL     OW94779   0.359   7.055   8.174
64316SOL    HW194780   0.379   7.148   8.164
64316SOL    HW294781   0.394   7.014   8.095
64317SOL     OW94782   0.336  10.652   9.681
64317SOL    HW194783   0.427  10.679   9.665
64317SOL    HW294784   0.344  10.576   9.739
64318SOL     OW94785  14.224   4.365   4.630
64318SOL    HW194786  14.236   4.289   4.573
64318SOL    HW294787  14.311   4.385   4.663
64319SOL     OW94788  14.279   8.681   8.178
64319SOL    HW194789  14.325   8.645   8.102
64319SOL    HW294790  14.221   8.610   8.207
64320SOL     OW94791   6.131   1.941   2.758
64320SOL    HW194792   6.158   1.968   2.670
64320SOL    HW294793   6.118   1.847   2.752
64321SOL     OW94794   8.192   4.759   8.669
64321SOL    HW194795   8.249   4.753   8.592
64321SOL    HW294796   8.250   4.751   8.744
64322SOL     OW94797   4.049   1.072  12.760
64322SOL    HW194798   3.988   1.040  12.694
64322SOL    HW294799   4.010   1.155  12.789
64323SOL     OW94800   8.351   8.931   5.065
64323SOL    HW194801   8.365   8.917   5.159
64323SOL    HW294802   8.381   8.850   5.024
64324SOL     OW94803  10.936   9.499   7.476
64324SOL    HW194804  10.984   9.419   7.498
64324SOL    HW294805  10.851   9.488   7.519
64325SOL     OW94806   3.049   6.072   1.292
64325SOL    HW194807   3.023   6.021   1.368
64325SOL    HW294808   3.108   6.015   1.243
64326SOL     OW94809   6.727  14.617   2.438
64326SOL    HW194810   6.789  14.552   2.404
64326SOL    HW294811   6.746  14.622   2.532
64327SOL     OW94812  11.059  10.371  12.333
64327SOL    HW194813  10.981  10.340  12.378
64327SOL    HW294814  11.107  10.292  12.310
64328SOL     OW94815   4.760   9.761   3.908
64328SOL    HW194816   4.822   9.690   3.895
64328SOL    HW294817   4.720   9.743   3.993
64329SOL     OW94818   5.883   6.039   2.590
64329SOL    HW194819   5.888   5.960   2.536
64329SOL    HW294820   5.796   6.036   2.631
64330SOL     OW94821   4.832   1.902   7.865
64330SOL    HW194822   4.927   1.896   7.861
64330SOL    HW294823   4.814   1.996   7.865
64331SOL     OW94824  13.850   7.369   0.160
64331SOL    HW194825  13.780   7.416   0.206
64331SOL    HW294826  13.931   7.407   0.195
64332SOL     OW94827   9.736   3.541   2.345
64332SOL    HW194828   9.713   3.560   2.254
64332SOL    HW294829   9.808   3.600   2.364
64333SOL     OW94830  12.338   1.393  12.851
64333SOL    HW194831  12.428   1.372  12.875
64333SOL    HW294832  12.337   1.488  12.844
64334SOL     OW94833   9.050   2.073   7.824
64334SOL    HW194834   9.034   2.161   7.791
64334SOL    HW294835   9.000   2.069   7.906
64335SOL     OW94836   3.472   5.596   1.956
64335SOL    HW194837   3.522   5.667   1.916
64335SOL    HW294838   3.531   5.558   2.021
64336SOL     OW94839   0.420   1.455   8.084
64336SOL    HW194840   0.404   1.514   8.010
64336SOL    HW294841   0.467   1.508   8.147
64337SOL     OW94842  10.541  11.585  11.073
64337SOL    HW194843  10.534  11.570  10.978
64337SOL    HW294844  10.632  11.566  11.093
64338SOL     OW94845   9.554  10.498  13.928
64338SOL    HW194846   9.562  10.506  14.023
64338SOL    HW294847   9.562  10.588  13.896
64339SOL     OW94848   1.547   1.524   0.249
64339SOL    HW194849   1.483   1.592   0.273
64339SOL    HW294850   1.571   1.545   0.159
64340SOL     OW94851  11.427   7.845  11.136
64340SOL    HW194852  11.445   7.805  11.221
64340SOL    HW294853  11.514   7.861  11.099
64341SOL     OW94854   0.370   3.535   4.089
64341SOL    HW194855   0.353   3.545   3.995
64341SOL    HW294856   0.286   3.505   4.124
64342SOL     OW94857   3.465   2.977   7.762
64342SOL    HW194858   3.400   3.017   7.703
64342SOL    HW294859   3.435   2.887   7.773
64343SOL     OW94860   7.091   8.594  10.996
64343SOL    HW194861   7.108   8.559  10.909
64343SOL    HW294862   7.007   8.639  10.988
64344SOL     OW94863  11.093   1.926   1.644
64344SOL    HW194864  11.108   1.881   1.727
64344SOL    HW294865  11.054   1.859   1.588
64345SOL     OW94866  12.080   6.623   2.331
64345SOL    HW194867  12.142   6.553   2.310
64345SOL    HW294868  11.998   6.578   2.347
64346SOL     OW94869   6.332  14.331   9.555
64346SOL    HW194870   6.405  14.269   9.547
64346SOL    HW294871   6.370  14.416   9.531
64347SOL     OW94872   0.065  13.650   0.432
64347SOL    HW194873   0.034  13.708   0.362
64347SOL    HW294874   0.033  13.691   0.513
64348SOL     OW94875   8.523   6.056  10.206
64348SOL    HW194876   8.598   6.013  10.167
64348SOL    HW294877   8.560   6.110  10.277
64349SOL     OW94878   3.889   2.412   1.457
64349SOL    HW194879   3.935   2.336   1.493
64349SOL    HW294880   3.936   2.433   1.376
64350SOL     OW94881   6.507   7.186  13.917
64350SOL    HW194882   6.578   7.196  13.852
64350SOL    HW294883   6.529   7.249  13.986
64351SOL     OW94884  12.290  14.706  14.316
64351SOL    HW194885  12.228  14.761  14.269
64351SOL    HW294886  12.334  14.655  14.248
64352SOL     OW94887   3.842   3.488  11.023
64352SOL    HW194888   3.803   3.411  11.067
64352SOL    HW294889   3.771   3.552  11.020
64353SOL     OW94890   7.586   1.974   1.654
64353SOL    HW194891   7.603   2.058   1.696
64353SOL    HW294892   7.596   1.909   1.723
64354SOL     OW94893   3.432   2.365   3.985
64354SOL    HW194894   3.373   2.334   4.054
64354SOL    HW294895   3.509   2.398   4.033
64355SOL     OW94896  10.556   2.960   7.557
64355SOL    HW194897  10.575   3.054   7.560
64355SOL    HW294898  10.583   2.927   7.643
64356SOL     OW94899  13.123  11.958   6.256
64356SOL    HW194900  13.049  11.903   6.283
64356SOL    HW294901  13.186  11.897   6.218
64357SOL     OW94902  12.915  13.561  11.826
64357SOL    HW194903  12.872  13.497  11.883
64357SOL    HW294904  13.007  13.535  11.825
64358SOL     OW94905   7.960   3.283   6.990
64358SOL    HW194906   7.943   3.232   6.911
64358SOL    HW294907   8.020   3.352   6.962
64359SOL     OW94908   3.107   5.086  11.860
64359SOL    HW194909   3.099   5.071  11.954
64359SOL    HW294910   3.088   5.000  11.821
64360SOL     OW94911   7.086   8.324   7.386
64360SOL    HW194912   7.039   8.240   7.383
64360SOL    HW294913   7.178   8.299   7.398
64361SOL     OW94914   4.492   5.789  11.205
64361SOL    HW194915   4.510   5.847  11.279
64361SOL    HW294916   4.577   5.751  11.184
64362SOL     OW94917  13.001   6.224  13.084
64362SOL    HW194918  13.022   6.196  12.995
64362SOL    HW294919  12.931   6.289  13.073
64363SOL     OW94920   7.314   8.729   1.912
64363SOL    HW194921   7.394   8.677   1.901
64363SOL    HW294922   7.248   8.680   1.863
64364SOL     OW94923  12.802   2.756   2.899
64364SOL    HW194924  12.859   2.757   2.822
64364SOL    HW294925  12.747   2.680   2.887
64365SOL     OW94926  12.788   4.399  14.005
64365SOL    HW194927  12.734   4.360  13.937
64365SOL    HW294928  12.728   4.455  14.055
64366SOL     OW94929   3.853   6.184   5.030
64366SOL    HW194930   3.823   6.258   4.977
64366SOL    HW294931   3.849   6.109   4.971
64367SOL     OW94932   9.506   6.505   7.350
64367SOL    HW194933   9.440   6.572   7.335
64367SOL    HW294934   9.499   6.484   7.444
64368SOL     OW94935   2.816  12.596  14.013
64368SOL    HW194936   2.814  12.690  14.025
64368SOL    HW294937   2.726  12.571  13.996
64369SOL     OW94938   8.364  13.714  10.529
64369SOL    HW194939   8.348  13.804  10.558
64369SOL    HW294940   8.277  13.681  10.507
64370SOL     OW94941   1.043   4.138   5.598
64370SOL    HW194942   1.046   4.231   5.576
64370SOL    HW294943   0.962   4.128   5.648
64371SOL     OW94944  12.696  12.541   8.860
64371SOL    HW194945  12.716  12.594   8.782
64371SOL    HW294946  12.735  12.456   8.843
64372SOL     OW94947  12.631   6.759   1.274
64372SOL    HW194948  12.698   6.707   1.319
64372SOL    HW294949  12.548   6.726   1.309
64373SOL     OW94950   9.126  13.451  14.630
64373SOL    HW194951   9.130  13.531  14.578
64373SOL    HW294952   9.218  13.430  14.648
64374SOL     OW94953   6.981   3.549   8.034
64374SOL    HW194954   6.959   3.572   8.124
64374SOL    HW294955   7.077   3.552   8.031
64375SOL     OW94956   4.021   0.531   3.144
64375SOL    HW194957   3.988   0.539   3.054
64375SOL    HW294958   3.968   0.462   3.183
64376SOL     OW94959   6.532  14.548  11.385
64376SOL    HW194960   6.436  14.545  11.384
64376SOL    HW294961   6.559  14.474  11.331
64377SOL     OW94962   9.596   1.023   1.947
64377SOL    HW194963   9.598   1.081   1.871
64377SOL    HW294964   9.504   0.996   1.953
64378SOL     OW94965   8.390   1.435   6.413
64378SOL    HW194966   8.327   1.507   6.403
64378SOL    HW294967   8.420   1.417   6.324
64379SOL     OW94968   8.953   6.692  11.061
64379SOL    HW194969   8.934   6.743  10.982
64379SOL    HW294970   8.893   6.618  11.057
64380SOL     OW94971   6.771  10.171   8.550
64380SOL    HW194972   6.710  10.099   8.534
64380SOL    HW294973   6.823  10.142   8.625
64381SOL     OW94974   5.122  12.072   7.614
64381SOL    HW194975   5.217  12.081   7.618
64381SOL    HW294976   5.101  12.007   7.681
64382SOL     OW94977   3.391   7.587   1.167
64382SOL    HW194978   3.473   7.618   1.206
64382SOL    HW294979   3.326   7.653   1.190
64383SOL     OW94980  13.033   2.530   4.870
64383SOL    HW194981  12.967   2.460   4.870
64383SOL    HW294982  12.998   2.596   4.810
64384SOL     OW94983   5.615   3.829   0.080
64384SOL    HW194984   5.535   3.827   0.028
64384SOL    HW294985   5.585   3.823   0.170
64385SOL     OW94986   4.524  10.776   2.429
64385SOL    HW194987   4.593  10.714   2.453
64385SOL    HW294988   4.571  10.857   2.408
64386SOL     OW94989   9.259   0.879   6.067
64386SOL    HW194990   9.307   0.960   6.049
64386SOL    HW294991   9.304   0.842   6.144
64387SOL     OW94992   6.229   4.077  10.200
64387SOL    HW194993   6.205   4.137  10.271
64387SOL    HW294994   6.146   4.036  10.174
64388SOL     OW94995   0.110   6.036  12.612
64388SOL    HW194996   0.177   5.995  12.667
64388SOL    HW294997   0.103   6.126  12.645
64389SOL     OW94998  14.513   9.457   1.990
64389SOL    HW194999  14.436   9.454   1.933
64389SOL    HW295000  14.551   9.369   1.983
64390SOL     OW95001   0.326   7.616   1.503
64390SOL    HW195002   0.310   7.619   1.409
64390SOL    HW295003   0.280   7.537   1.532
64391SOL     OW95004   7.301   4.874   5.863
64391SOL    HW195005   7.250   4.916   5.794
64391SOL    HW295006   7.237   4.824   5.913
64392SOL     OW95007   6.556   5.846  14.218
64392SOL    HW195008   6.487   5.781  14.229
64392SOL    HW295009   6.509   5.926  14.190
64393SOL     OW95010  11.214   1.269  14.031
64393SOL    HW195011  11.279   1.249  14.098
64393SOL    HW295012  11.212   1.191  13.975
64394SOL     OW95013  12.274   9.778   2.144
64394SOL    HW195014  12.349   9.749   2.094
64394SOL    HW295015  12.293   9.753   2.235
64395SOL     OW95016  12.208   4.741   3.499
64395SOL    HW195017  12.158   4.823   3.503
64395SOL    HW295018  12.199   4.712   3.408
64396SOL     OW95019   3.023  12.880   5.579
64396SOL    HW195020   2.969  12.820   5.631
64396SOL    HW295021   2.966  12.956   5.563
64397SOL     OW95022  10.212   6.761   0.224
64397SOL    HW195023  10.299   6.731   0.195
64397SOL    HW295024  10.199   6.718   0.308
64398SOL     OW95025  10.050   7.639  13.236
64398SOL    HW195026   9.990   7.578  13.279
64398SOL    HW295027  10.083   7.592  13.160
64399SOL     OW95028   0.705  13.525  10.163
64399SOL    HW195029   0.663  13.539  10.247
64399SOL    HW295030   0.772  13.459  10.180
64400SOL     OW95031  14.768   5.690   4.766
64400SOL    HW195032  14.702   5.706   4.699
64400SOL    HW295033  14.740   5.743   4.841
64401SOL     OW95034   3.235  14.626   0.506
64401SOL    HW195035   3.142  14.647   0.512
64401SOL    HW295036   3.240  14.564   0.433
64402SOL     OW95037   8.474   6.797   9.788
64402SOL    HW195038   8.521   6.716   9.765
64402SOL    HW295039   8.499   6.814   9.879
64403SOL     OW95040   0.529   6.943   5.752
64403SOL    HW195041   0.625   6.947   5.753
64403SOL    HW295042   0.504   6.934   5.844
64404SOL     OW95043  10.604  11.027   5.994
64404SOL    HW195044  10.661  10.999   5.922
64404SOL    HW295045  10.654  11.096   6.037
64405SOL     OW95046  10.122  10.894   0.180
64405SOL    HW195047  10.098  10.846   0.259
64405SOL    HW295048  10.108  10.832   0.109
64406SOL     OW95049  11.299  11.541   2.944
64406SOL    HW195050  11.341  11.627   2.948
64406SOL    HW295051  11.370  11.478   2.959
64407SOL     OW95052   0.072  14.143   7.979
64407SOL    HW195053   0.051  14.233   8.005
64407SOL    HW295054   0.060  14.091   8.059
64408SOL     OW95055  14.165   7.778  14.081
64408SOL    HW195056  14.228   7.707  14.073
64408SOL    HW295057  14.085   7.744  14.042
64409SOL     OW95058   6.489   0.588   0.341
64409SOL    HW195059   6.488   0.586   0.245
64409SOL    HW295060   6.576   0.559   0.364
64410SOL     OW95061   9.859   0.529  14.566
64410SOL    HW195062   9.776   0.575  14.556
64410SOL    HW295063   9.886   0.548  14.656
64411SOL     OW95064  10.371   2.984  10.381
64411SOL    HW195065  10.423   2.966  10.460
64411SOL    HW295066  10.347   3.076  10.389
64412SOL     OW95067   4.889   6.715  13.269
64412SOL    HW195068   4.831   6.645  13.298
64412SOL    HW295069   4.849   6.795  13.303
64413SOL     OW95070   8.510  10.457  11.951
64413SOL    HW195071   8.468  10.407  12.022
64413SOL    HW295072   8.598  10.420  11.945
64414SOL     OW95073   9.295   2.534  14.261
64414SOL    HW195074   9.293   2.626  14.235
64414SOL    HW295075   9.374   2.499  14.220
64415SOL     OW95076   9.559   1.526   8.959
64415SOL    HW195077   9.632   1.582   8.982
64415SOL    HW295078   9.593   1.437   8.968
64416SOL     OW95079   7.909  13.597  11.822
64416SOL    HW195080   8.001  13.580  11.798
64416SOL    HW295081   7.876  13.512  11.849
64417SOL     OW95082   2.509  11.361   9.000
64417SOL    HW195083   2.590  11.346   9.047
64417SOL    HW295084   2.526  11.438   8.946
64418SOL     OW95085  11.044   2.968   8.145
64418SOL    HW195086  10.954   2.981   8.174
64418SOL    HW295087  11.048   2.876   8.119
64419SOL     OW95088   5.176  14.793   2.191
64419SOL    HW195089   5.125  14.716   2.163
64419SOL    HW295090   5.265  14.775   2.161
64420SOL     OW95091  10.805   3.375   1.306
64420SOL    HW195092  10.858   3.454   1.293
64420SOL    HW295093  10.848   3.308   1.253
64421SOL     OW95094   0.166   0.714  13.774
64421SOL    HW195095   0.076   0.741  13.787
64421SOL    HW295096   0.172   0.697  13.680
64422SOL     OW95097   7.670  11.615  11.619
64422SOL    HW195098   7.699  11.534  11.661
64422SOL    HW295099   7.590  11.639  11.667
64423SOL     OW95100   2.155  14.340  10.230
64423SOL    HW195101   2.136  14.254  10.269
64423SOL    HW295102   2.137  14.328  10.137
64424SOL     OW95103  10.167   2.136  14.044
64424SOL    HW195104  10.262   2.150  14.045
64424SOL    HW295105  10.154   2.060  14.100
64425SOL     OW95106   4.807   8.302   1.973
64425SOL    HW195107   4.896   8.336   1.962
64425SOL    HW295108   4.809   8.215   1.933
64426SOL     OW95109   7.029   4.770  14.325
64426SOL    HW195110   6.953   4.719  14.351
64426SOL    HW295111   6.993   4.854  14.297
64427SOL     OW95112   4.680  11.748   7.107
64427SOL    HW195113   4.769  11.712   7.112
64427SOL    HW295114   4.629  11.695   7.168
64428SOL     OW95115   2.245  14.346  10.733
64428SOL    HW195116   2.157  14.368  10.701
64428SOL    HW295117   2.284  14.296  10.661
64429SOL     OW95118   1.930   1.649  11.911
64429SOL    HW195119   1.950   1.671  12.002
64429SOL    HW295120   1.992   1.580  11.890
64430SOL     OW95121   6.562  12.663   9.648
64430SOL    HW195122   6.628  12.648   9.716
64430SOL    HW295123   6.606  12.717   9.583
64431SOL     OW95124  11.788  13.665   7.304
64431SOL    HW195125  11.852  13.736   7.301
64431SOL    HW295126  11.818  13.608   7.374
64432SOL     OW95127  13.954   6.821   9.782
64432SOL    HW195128  14.042   6.850   9.804
64432SOL    HW295129  13.920   6.782   9.863
64433SOL     OW95130  10.081   9.371  13.997
64433SOL    HW195131  10.055   9.434  13.929
64433SOL    HW295132  10.151   9.414  14.045
64434SOL     OW95133   9.539  11.218   9.333
64434SOL    HW195134   9.601  11.169   9.279
64434SOL    HW295135   9.486  11.267   9.271
64435SOL     OW95136   5.508   1.709  13.740
64435SOL    HW195137   5.490   1.761  13.661
64435SOL    HW295138   5.444   1.740  13.804
64436SOL     OW95139  12.829   1.659   4.018
64436SOL    HW195140  12.839   1.748   3.984
64436SOL    HW295141  12.914   1.639   4.058
64437SOL     OW95142   2.659   0.523   0.645
64437SOL    HW195143   2.729   0.457   0.648
64437SOL    HW295144   2.580   0.477   0.672
64438SOL     OW95145  12.972  10.097   9.154
64438SOL    HW195146  12.964  10.037   9.228
64438SOL    HW295147  12.908  10.166   9.172
64439SOL     OW95148  12.243  13.723   1.438
64439SOL    HW195149  12.310  13.770   1.388
64439SOL    HW295150  12.245  13.634   1.404
64440SOL     OW95151   2.037   9.057   6.143
64440SOL    HW195152   2.011   9.130   6.087
64440SOL    HW295153   1.959   9.035   6.194
64441SOL     OW95154   4.288   2.329  10.129
64441SOL    HW195155   4.199   2.359  10.110
64441SOL    HW295156   4.304   2.260  10.065
64442SOL     OW95157  13.922  10.242   4.736
64442SOL    HW195158  13.882  10.309   4.792
64442SOL    HW295159  13.997  10.287   4.696
64443SOL     OW95160   2.288  10.428   7.993
64443SOL    HW195161   2.355  10.484   8.031
64443SOL    HW295162   2.306  10.430   7.899
64444SOL     OW95163   3.319   7.992   3.596
64444SOL    HW195164   3.326   8.065   3.535
64444SOL    HW295165   3.232   8.001   3.636
64445SOL     OW95166  12.522  12.738   3.896
64445SOL    HW195167  12.475  12.700   3.971
64445SOL    HW295168  12.543  12.663   3.841
64446SOL     OW95169   1.541   3.671  12.169
64446SOL    HW195170   1.558   3.641  12.079
64446SOL    HW295171   1.452   3.706  12.166
64447SOL     OW95172  13.403   4.848   4.636
64447SOL    HW195173  13.365   4.924   4.682
64447SOL    HW295174  13.334   4.819   4.577
64448SOL     OW95175   3.411  11.459  11.906
64448SOL    HW195176   3.481  11.428  11.848
64448SOL    HW295177   3.387  11.382  11.958
64449SOL     OW95178  10.710  11.092  10.878
64449SOL    HW195179  10.701  11.163  10.814
64449SOL    HW295180  10.792  11.049  10.854
64450SOL     OW95181   6.374   5.575   4.604
64450SOL    HW195182   6.302   5.606   4.549
64450SOL    HW295183   6.435   5.649   4.608
64451SOL     OW95184  11.231  13.766   4.985
64451SOL    HW195185  11.274  13.850   4.999
64451SOL    HW295186  11.296  13.713   4.938
64452SOL     OW95187  12.099   1.458   8.358
64452SOL    HW195188  12.089   1.366   8.333
64452SOL    HW295189  12.026   1.474   8.418
64453SOL     OW95190  13.334   7.425   9.964
64453SOL    HW195191  13.308   7.450  10.052
64453SOL    HW295192  13.256   7.439   9.911
64454SOL     OW95193   5.004   7.572   6.643
64454SOL    HW195194   5.025   7.658   6.679
64454SOL    HW295195   4.965   7.524   6.717
64455SOL     OW95196   7.912  11.062  14.030
64455SOL    HW195197   7.867  10.993  14.078
64455SOL    HW295198   7.855  11.080  13.955
64456SOL     OW95199  14.227   5.236   9.628
64456SOL    HW195200  14.148   5.289   9.640
64456SOL    HW295201  14.290   5.296   9.589
64457SOL     OW95202   5.460   0.624   3.695
64457SOL    HW195203   5.414   0.581   3.767
64457SOL    HW295204   5.549   0.590   3.700
64458SOL     OW95205   1.915  11.099  13.931
64458SOL    HW195206   1.847  11.157  13.898
64458SOL    HW295207   1.873  11.047  14.000
64459SOL     OW95208  11.658  10.377  13.703
64459SOL    HW195209  11.592  10.310  13.722
64459SOL    HW295210  11.644  10.400  13.611
64460SOL     OW95211   4.491   6.616   2.932
64460SOL    HW195212   4.474   6.672   3.008
64460SOL    HW295213   4.585   6.621   2.920
64461SOL     OW95214   7.759   4.302   0.108
64461SOL    HW195215   7.715   4.388   0.111
64461SOL    HW295216   7.825   4.307   0.176
64462SOL     OW95217   6.737  13.104  11.569
64462SOL    HW195218   6.737  13.196  11.595
64462SOL    HW295219   6.683  13.101  11.490
64463SOL     OW95220  10.923  11.459   4.487
64463SOL    HW195221  10.905  11.380   4.537
64463SOL    HW295222  10.975  11.513   4.546
64464SOL     OW95223   6.260   0.474   0.435
64464SOL    HW195224   6.342   0.503   0.395
64464SOL    HW295225   6.247   0.534   0.508
64465SOL     OW95226   1.435   9.188   1.259
64465SOL    HW195227   1.367   9.167   1.322
64465SOL    HW295228   1.458   9.104   1.219
64466SOL     OW95229  11.427   8.678   4.457
64466SOL    HW195230  11.431   8.760   4.407
64466SOL    HW295231  11.504   8.629   4.428
64467SOL     OW95232  11.246  11.799  13.665
64467SOL    HW195233  11.205  11.724  13.621
64467SOL    HW295234  11.294  11.760  13.738
64468SOL     OW95235  13.147   6.375   4.056
64468SOL    HW195236  13.225   6.412   4.016
64468SOL    HW295237  13.121   6.438   4.123
64469SOL     OW95238  13.995  12.068  10.207
64469SOL    HW195239  13.925  12.129  10.184
64469SOL    HW295240  14.071  12.100  10.158
64470SOL     OW95241   4.333  11.746   9.479
64470SOL    HW195242   4.271  11.694   9.428
64470SOL    HW295243   4.392  11.681   9.517
64471SOL     OW95244   9.415   7.780   4.249
64471SOL    HW195245   9.430   7.722   4.174
64471SOL    HW295246   9.503   7.800   4.281
64472SOL     OW95247  14.345   2.186   0.430
64472SOL    HW195248  14.302   2.167   0.346
64472SOL    HW295249  14.430   2.222   0.406
64473SOL     OW95250   5.242  13.923   9.850
64473SOL    HW195251   5.330  13.954   9.825
64473SOL    HW295252   5.237  13.941   9.944
64474SOL     OW95253   5.402  11.250  13.973
64474SOL    HW195254   5.448  11.329  14.000
64474SOL    HW295255   5.423  11.240  13.880
64475SOL     OW95256   0.139  13.381   3.005
64475SOL    HW195257   0.220  13.342   3.037
64475SOL    HW295258   0.164  13.429   2.926
64476SOL     OW95259   4.218   8.384  10.548
64476SOL    HW195260   4.158   8.317  10.581
64476SOL    HW295261   4.213   8.376  10.453
64477SOL     OW95262  12.199   1.283   0.174
64477SOL    HW195263  12.171   1.281   0.265
64477SOL    HW295264  12.121   1.308   0.125
64478SOL     OW95265   9.967   5.953   7.746
64478SOL    HW195266  10.007   6.021   7.800
64478SOL    HW295267   9.909   6.001   7.687
64479SOL     OW95268  13.796   9.897   9.763
64479SOL    HW195269  13.822   9.883   9.672
64479SOL    HW295270  13.809   9.991   9.777
64480SOL     OW95271   6.801   3.997  14.316
64480SOL    HW195272   6.887   4.025  14.348
64480SOL    HW295273   6.812   3.904  14.296
64481SOL     OW95274  13.542   4.118   4.948
64481SOL    HW195275  13.499   4.188   4.996
64481SOL    HW295276  13.489   4.108   4.868
64482SOL     OW95277   5.711   8.284  11.838
64482SOL    HW195278   5.648   8.266  11.769
64482SOL    HW295279   5.778   8.338  11.795
64483SOL     OW95280   7.888   4.362  11.163
64483SOL    HW195281   7.818   4.405  11.212
64483SOL    HW295282   7.953   4.432  11.148
64484SOL     OW95283  13.060  10.481   9.929
64484SOL    HW195284  13.036  10.524   9.847
64484SOL    HW295285  13.146  10.517   9.951
64485SOL     OW95286   5.245   0.119   3.531
64485SOL    HW195287   5.205   0.065   3.599
64485SOL    HW295288   5.247   0.207   3.569
64486SOL     OW95289   9.592   2.267   4.278
64486SOL    HW195290   9.587   2.218   4.360
64486SOL    HW295291   9.685   2.289   4.269
64487SOL     OW95292  13.652   0.836   3.288
64487SOL    HW195293  13.709   0.830   3.211
64487SOL    HW295294  13.700   0.789   3.357
64488SOL     OW95295  11.549   1.744  12.961
64488SOL    HW195296  11.474   1.706  12.915
64488SOL    HW295297  11.592   1.800  12.895
64489SOL     OW95298   9.325   0.617   7.207
64489SOL    HW195299   9.375   0.536   7.193
64489SOL    HW295300   9.392   0.686   7.205
64490SOL     OW95301   3.378   0.517   7.824
64490SOL    HW195302   3.472   0.523   7.839
64490SOL    HW295303   3.354   0.604   7.792
64491SOL     OW95304  11.031   7.322   0.566
64491SOL    HW195305  11.078   7.390   0.615
64491SOL    HW295306  10.962   7.293   0.625
64492SOL     OW95307   6.722  10.037   7.921
64492SOL    HW195308   6.782  10.090   7.868
64492SOL    HW295309   6.692  10.097   7.990
64493SOL     OW95310  13.911   7.510  12.719
64493SOL    HW195311  13.963   7.429  12.727
64493SOL    HW295312  13.825   7.486  12.753
64494SOL     OW95313   8.754  11.076   5.831
64494SOL    HW195314   8.764  11.108   5.921
64494SOL    HW295315   8.681  11.126   5.795
64495SOL     OW95316   5.266  13.150  13.141
64495SOL    HW195317   5.258  13.240  13.171
64495SOL    HW295318   5.289  13.100  13.219
64496SOL     OW95319  13.000   8.127   8.088
64496SOL    HW195320  12.951   8.209   8.097
64496SOL    HW295321  12.934   8.063   8.062
64497SOL     OW95322  11.013   0.524   8.682
64497SOL    HW195323  11.084   0.568   8.634
64497SOL    HW295324  11.047   0.437   8.701
64498SOL     OW95325   3.203  11.096  11.121
64498SOL    HW195326   3.108  11.107  11.110
64498SOL    HW295327   3.218  11.111  11.214
64499SOL     OW95328   1.798   4.687  12.026
64499SOL    HW195329   1.739   4.762  12.024
64499SOL    HW295330   1.885   4.725  12.027
64500SOL     OW95331   1.848  12.578   8.865
64500SOL    HW195332   1.850  12.525   8.786
64500SOL    HW295333   1.907  12.651   8.847
64501SOL     OW95334  10.471   1.720  11.892
64501SOL    HW195335  10.411   1.654  11.856
64501SOL    HW295336  10.532   1.739  11.820
64502SOL     OW95337   4.856  11.287   9.483
64502SOL    HW195338   4.886  11.212   9.534
64502SOL    HW295339   4.851  11.254   9.393
64503SOL     OW95340  12.522   9.276   2.091
64503SOL    HW195341  12.456   9.219   2.129
64503SOL    HW295342  12.474   9.355   2.065
64504SOL     OW95343   3.614   5.967  12.775
64504SOL    HW195344   3.531   5.956  12.727
64504SOL    HW295345   3.587   5.992  12.863
64505SOL     OW95346   9.586  14.136   0.151
64505SOL    HW195347   9.586  14.185   0.069
64505SOL    HW295348   9.594  14.203   0.219
64506SOL     OW95349  14.368  14.294   3.543
64506SOL    HW195350  14.344  14.378   3.505
64506SOL    HW295351  14.455  14.275   3.508
64507SOL     OW95352   9.386  12.974  13.868
64507SOL    HW195353   9.412  12.915  13.798
64507SOL    HW295354   9.371  13.058  13.825
64508SOL     OW95355   4.247  10.536   9.024
64508SOL    HW195356   4.265  10.578   8.940
64508SOL    HW295357   4.155  10.508   9.018
64509SOL     OW95358   5.389   5.805  13.380
64509SOL    HW195359   5.393   5.740  13.450
64509SOL    HW295360   5.319   5.865  13.407
64510SOL     OW95361   6.559   3.393  12.856
64510SOL    HW195362   6.566   3.484  12.827
64510SOL    HW295363   6.486   3.357  12.805
64511SOL     OW95364   7.058   0.263   2.599
64511SOL    HW195365   7.148   0.262   2.566
64511SOL    HW295366   7.008   0.212   2.535
64512SOL     OW95367  13.895  12.110  12.103
64512SOL    HW195368  13.840  12.171  12.150
64512SOL    HW295369  13.946  12.165  12.043
64513SOL     OW95370  12.105   9.058  13.527
64513SOL    HW195371  12.180   9.011  13.491
64513SOL    HW295372  12.039   9.053  13.459
64514SOL     OW95373   3.857   0.062   4.347
64514SOL    HW195374   3.774   0.045   4.392
64514SOL    HW295375   3.888   0.144   4.386
64515SOL     OW95376   5.699   2.306  14.399
64515SOL    HW195377   5.691   2.271  14.487
64515SOL    HW295378   5.637   2.378  14.395
64516SOL     OW95379   9.918   1.822   9.813
64516SOL    HW195380   9.981   1.820   9.740
64516SOL    HW295381   9.834   1.801   9.772
64517SOL     OW95382   4.059   9.582   7.124
64517SOL    HW195383   4.147   9.595   7.158
64517SOL    HW295384   4.063   9.498   7.079
64518SOL     OW95385   6.972   0.609   9.442
64518SOL    HW195386   6.905   0.563   9.393
64518SOL    HW295387   7.037   0.541   9.463
64519SOL     OW95388   5.886   7.418  13.435
64519SOL    HW195389   5.892   7.508  13.469
64519SOL    HW295390   5.933   7.421  13.351
64520SOL     OW95391   0.530   2.082   0.507
64520SOL    HW195392   0.473   2.012   0.540
64520SOL    HW295393   0.578   2.041   0.435
64521SOL     OW95394   3.135  14.041   2.901
64521SOL    HW195395   3.094  14.098   2.967
64521SOL    HW295396   3.101  13.954   2.922
64522SOL     OW95397   8.674   4.808   3.258
64522SOL    HW195398   8.684   4.879   3.321
64522SOL    HW295399   8.651   4.852   3.176
64523SOL     OW95400   9.847  10.076   1.571
64523SOL    HW195401   9.753  10.088   1.589
64523SOL    HW295402   9.857   9.981   1.562
64524SOL     OW95403  14.314   0.365   1.235
64524SOL    HW195404  14.359   0.281   1.244
64524SOL    HW295405  14.315   0.384   1.141
64525SOL     OW95406   3.953   1.003   8.041
64525SOL    HW195407   3.889   1.047   7.985
64525SOL    HW295408   3.920   1.017   8.130
64526SOL     OW95409   3.342   3.455  12.549
64526SOL    HW195410   3.425   3.452  12.501
64526SOL    HW295411   3.324   3.548  12.559
64527SOL     OW95412   6.624   5.330  14.828
64527SOL    HW195413   6.538   5.370  14.838
64527SOL    HW295414   6.615   5.274  14.751
64528SOL     OW95415   6.633   4.719   9.057
64528SOL    HW195416   6.670   4.667   9.129
64528SOL    HW295417   6.709   4.746   9.006
64529SOL     OW95418  13.731  10.136  13.783
64529SOL    HW195419  13.771  10.092  13.859
64529SOL    HW295420  13.636  10.124  13.796
64530SOL     OW95421   8.263  13.379   1.756
64530SOL    HW195422   8.217  13.372   1.672
64530SOL    HW295423   8.324  13.305   1.756
64531SOL     OW95424  10.886  10.668   8.520
64531SOL    HW195425  10.949  10.611   8.565
64531SOL    HW295426  10.897  10.753   8.562
64532SOL     OW95427   9.555  10.894   3.453
64532SOL    HW195428   9.612  10.841   3.509
64532SOL    HW295429   9.509  10.830   3.397
64533SOL     OW95430  14.181   5.175   7.254
64533SOL    HW195431  14.255   5.119   7.277
64533SOL    HW295432  14.219   5.263   7.245
64534SOL     OW95433   8.336   6.124  13.421
64534SOL    HW195434   8.386   6.170  13.489
64534SOL    HW295435   8.354   6.031  13.436
64535SOL     OW95436   7.979   8.810  11.539
64535SOL    HW195437   7.929   8.775  11.613
64535SOL    HW295438   8.013   8.733  11.495
64536SOL     OW95439   5.413   9.160   4.875
64536SOL    HW195440   5.431   9.072   4.907
64536SOL    HW295441   5.376   9.206   4.951
64537SOL     OW95442  12.483   2.805   0.552
64537SOL    HW195443  12.414   2.868   0.529
64537SOL    HW295444  12.558   2.860   0.577
64538SOL     OW95445  13.911   9.861  12.145
64538SOL    HW195446  13.942   9.791  12.201
64538SOL    HW295447  13.937   9.835  12.057
64539SOL     OW95448   4.344  13.298   6.158
64539SOL    HW195449   4.337  13.240   6.234
64539SOL    HW295450   4.437  13.322   6.154
64540SOL     OW95451  11.697  11.527   1.408
64540SOL    HW195452  11.702  11.576   1.490
64540SOL    HW295453  11.603  11.513   1.395
64541SOL     OW95454  14.382   1.482   2.814
64541SOL    HW195455  14.302   1.520   2.850
64541SOL    HW295456  14.353   1.433   2.737
64542SOL     OW95457   3.965   4.568   1.062
64542SOL    HW195458   3.926   4.645   1.022
64542SOL    HW295459   4.036   4.602   1.116
64543SOL     OW95460   6.170  12.002   9.976
64543SOL    HW195461   6.260  11.971   9.978
64543SOL    HW295462   6.176  12.091   9.941
64544SOL     OW95463   6.076  10.858   6.451
64544SOL    HW195464   6.154  10.803   6.451
64544SOL    HW295465   6.021  10.822   6.381
64545SOL     OW95466   0.002  14.712  14.220
64545SOL    HW195467  14.822  14.706  14.300
64545SOL    HW295468   0.064  14.639  14.225
64546SOL     OW95469   0.025   0.483  13.091
64546SOL    HW195470  14.825   0.477  13.029
64546SOL    HW295471   0.003   0.557  13.147
64547SOL     OW95472   7.218  11.951   8.779
64547SOL    HW195473   7.264  12.007   8.716
64547SOL    HW295474   7.159  11.898   8.727
64548SOL     OW95475  11.185   0.235   7.975
64548SOL    HW195476  11.106   0.207   7.929
64548SOL    HW295477  11.168   0.213   8.067
64549SOL     OW95478   9.328   0.646   5.904
64549SOL    HW195479   9.359   0.702   5.833
64549SOL    HW295480   9.291   0.706   5.968
64550SOL     OW95481   2.835   1.828   1.171
64550SOL    HW195482   2.867   1.738   1.168
64550SOL    HW295483   2.786   1.839   1.089
64551SOL     OW95484  10.360  13.510   7.558
64551SOL    HW195485  10.266  13.503   7.579
64551SOL    HW295486  10.395  13.567   7.627
64552SOL     OW95487   3.123   6.190  11.194
64552SOL    HW195488   3.065   6.232  11.257
64552SOL    HW295489   3.137   6.102  11.229
64553SOL     OW95490   1.832   5.562   2.223
64553SOL    HW195491   1.741   5.538   2.238
64553SOL    HW295492   1.828   5.639   2.166
64554SOL     OW95493  13.422   9.763  12.417
64554SOL    HW195494  13.328   9.782  12.417
64554SOL    HW295495  13.428   9.669  12.432
64555SOL     OW95496  11.924  10.501  11.255
64555SOL    HW195497  11.892  10.552  11.180
64555SOL    HW295498  11.912  10.410  11.228
64556SOL     OW95499  12.870  13.417   0.959
64556SOL    HW195500  12.819  13.482   0.912
64556SOL    HW295501  12.809  13.345   0.976
64557SOL     OW95502   3.490  14.406   4.620
64557SOL    HW195503   3.523  14.486   4.662
64557SOL    HW295504   3.400  14.398   4.651
64558SOL     OW95505   2.811   2.154  13.915
64558SOL    HW195506   2.762   2.228  13.880
64558SOL    HW295507   2.894   2.192  13.944
64559SOL     OW95508   4.784   4.313   1.270
64559SOL    HW195509   4.741   4.386   1.226
64559SOL    HW295510   4.770   4.238   1.212
64560SOL     OW95511   1.296   0.365  12.899
64560SOL    HW195512   1.206   0.349  12.872
64560SOL    HW295513   1.323   0.443  12.850
64561SOL     OW95514   1.962   9.963  14.807
64561SOL    HW195515   1.957   9.867  14.800
64561SOL    HW295516   2.056   9.981  14.815
64562SOL     OW95517   1.871   1.458   8.454
64562SOL    HW195518   1.796   1.427   8.404
64562SOL    HW295519   1.865   1.412   8.538
64563SOL     OW95520   6.460   0.758  14.258
64563SOL    HW195521   6.392   0.691  14.249
64563SOL    HW295522   6.422   0.824  14.316
64564SOL     OW95523  11.876  11.402   6.561
64564SOL    HW195524  11.916  11.391   6.475
64564SOL    HW295525  11.928  11.346   6.619
64565SOL     OW95526   9.679   1.038   9.031
64565SOL    HW195527   9.642   1.063   9.115
64565SOL    HW295528   9.608   1.050   8.968
64566SOL     OW95529   2.232   6.857   2.443
64566SOL    HW195530   2.209   6.926   2.505
64566SOL    HW295531   2.252   6.904   2.362
64567SOL     OW95532  14.413   9.185   4.065
64567SOL    HW195533  14.391   9.146   3.980
64567SOL    HW295534  14.357   9.262   4.071
64568SOL     OW95535   6.998  14.505   7.078
64568SOL    HW195536   6.930  14.532   7.016
64568SOL    HW295537   6.953  14.497   7.162
64569SOL     OW95538  12.480  14.356  10.057
64569SOL    HW195539  12.567  14.320  10.039
64569SOL    HW295540  12.483  14.445  10.021
64570SOL     OW95541   0.123   1.817   1.975
64570SOL    HW195542   0.181   1.854   2.042
64570SOL    HW295543   0.090   1.893   1.927
64571SOL     OW95544   1.569   7.400   6.865
64571SOL    HW195545   1.505   7.345   6.820
64571SOL    HW295546   1.647   7.344   6.872
64572SOL     OW95547  11.526   0.944  12.177
64572SOL    HW195548  11.549   0.860  12.137
64572SOL    HW295549  11.436   0.933  12.208
64573SOL     OW95550  14.358  12.587   5.298
64573SOL    HW195551  14.447  12.556   5.282
64573SOL    HW295552  14.366  12.642   5.376
64574SOL     OW95553  14.195  10.047  11.424
64574SOL    HW195554  14.277  10.002  11.446
64574SOL    HW295555  14.212  10.139  11.448
64575SOL     OW95556   3.866  14.481   8.689
64575SOL    HW195557   3.915  14.496   8.609
64575SOL    HW295558   3.816  14.562   8.702
64576SOL     OW95559   9.420  12.782  12.751
64576SOL    HW195560   9.418  12.830  12.668
64576SOL    HW295561   9.513  12.773  12.771
64577SOL     OW95562   2.746   0.929  10.407
64577SOL    HW195563   2.700   1.006  10.441
64577SOL    HW295564   2.817   0.966  10.355
64578SOL     OW95565   8.545  13.215   9.829
64578SOL    HW195566   8.497  13.161   9.891
64578SOL    HW295567   8.630  13.230   9.871
64579SOL     OW95568   7.924   6.560  10.543
64579SOL    HW195569   7.833   6.589  10.549
64579SOL    HW295570   7.969   6.630  10.496
64580SOL     OW95571  11.437   8.894   8.561
64580SOL    HW195572  11.512   8.953   8.567
64580SOL    HW295573  11.363   8.948   8.589
64581SOL     OW95574   7.719   1.102   8.778
64581SOL    HW195575   7.669   1.025   8.804
64581SOL    HW295576   7.790   1.068   8.723
64582SOL     OW95577   5.088   6.767   6.523
64582SOL    HW195578   5.162   6.782   6.463
64582SOL    HW295579   5.093   6.840   6.585
64583SOL     OW95580  12.325   7.270   7.698
64583SOL    HW195581  12.339   7.347   7.642
64583SOL    HW295582  12.346   7.300   7.786
64584SOL     OW95583   5.970   0.820  12.887
64584SOL    HW195584   5.957   0.725  12.896
64584SOL    HW295585   5.968   0.835  12.792
64585SOL     OW95586   9.281  13.568  12.863
64585SOL    HW195587   9.356  13.550  12.920
64585SOL    HW295588   9.306  13.646  12.814
64586SOL     OW95589   7.767   8.258  12.634
64586SOL    HW195590   7.718   8.201  12.574
64586SOL    HW295591   7.839   8.203  12.666
64587SOL     OW95592   4.297   1.636   0.709
64587SOL    HW195593   4.384   1.633   0.671
64587SOL    HW295594   4.252   1.559   0.674
64588SOL     OW95595   7.877   8.665  11.748
64588SOL    HW195596   7.813   8.594  11.757
64588SOL    HW295597   7.960   8.626  11.777
64589SOL     OW95598   3.067   9.220  11.758
64589SOL    HW195599   2.989   9.241  11.809
64589SOL    HW295600   3.126   9.294  11.772
64590SOL     OW95601   5.711  14.510   5.492
64590SOL    HW195602   5.729  14.558   5.411
64590SOL    HW295603   5.618  14.526   5.509
64591SOL     OW95604  13.211   0.938   5.575
64591SOL    HW195605  13.215   0.932   5.670
64591SOL    HW295606  13.263   1.014   5.552
64592SOL     OW95607   7.522   8.502   9.817
64592SOL    HW195608   7.444   8.449   9.796
64592SOL    HW295609   7.579   8.491   9.740
64593SOL     OW95610   9.438  10.349   4.978
64593SOL    HW195611   9.478  10.378   5.060
64593SOL    HW295612   9.487  10.271   4.953
64594SOL     OW95613   4.082  13.813  11.094
64594SOL    HW195614   4.171  13.777  11.090
64594SOL    HW295615   4.025  13.736  11.094
64595SOL     OW95616   4.239   4.060   3.639
64595SOL    HW195617   4.181   4.008   3.694
64595SOL    HW295618   4.257   4.138   3.691
64596SOL     OW95619  11.629   1.661   9.187
64596SOL    HW195620  11.599   1.624   9.104
64596SOL    HW295621  11.631   1.756   9.171
64597SOL     OW95622  13.633   4.631   8.171
64597SOL    HW195623  13.632   4.538   8.194
64597SOL    HW295624  13.650   4.676   8.254
64598SOL     OW95625  13.607   1.029   4.366
64598SOL    HW195626  13.528   0.997   4.410
64598SOL    HW295627  13.679   1.003   4.423
64599SOL     OW95628   2.006  13.129   8.053
64599SOL    HW195629   2.040  13.049   8.092
64599SOL    HW295630   1.920  13.141   8.094
64600SOL     OW95631   1.831   4.135  13.385
64600SOL    HW195632   1.743   4.171  13.396
64600SOL    HW295633   1.880   4.205  13.341
64601SOL     OW95634   7.867   3.540   9.971
64601SOL    HW195635   7.895   3.539   9.879
64601SOL    HW295636   7.776   3.569   9.968
64602SOL     OW95637   1.689   4.614   2.767
64602SOL    HW195638   1.722   4.656   2.687
64602SOL    HW295639   1.597   4.640   2.772
64603SOL     OW95640   1.546   7.843   4.828
64603SOL    HW195641   1.499   7.786   4.889
64603SOL    HW295642   1.626   7.868   4.874
64604SOL     OW95643   5.262   1.524   0.728
64604SOL    HW195644   5.237   1.530   0.820
64604SOL    HW295645   5.335   1.462   0.727
64605SOL     OW95646  14.478   2.511   0.028
64605SOL    HW195647  14.468   2.423  14.864
64605SOL    HW295648  14.496   2.496   0.121
64606SOL     OW95649  13.181  11.960   3.927
64606SOL    HW195650  13.249  11.983   3.863
64606SOL    HW295651  13.126  11.897   3.880
64607SOL     OW95652   3.522   5.691   7.071
64607SOL    HW195653   3.584   5.704   7.000
64607SOL    HW295654   3.458   5.629   7.037
64608SOL     OW95655   2.334   9.609  10.733
64608SOL    HW195656   2.246   9.599  10.770
64608SOL    HW295657   2.354   9.523  10.696
64609SOL     OW95658   7.951   3.860   2.038
64609SOL    HW195659   7.965   3.785   1.981
64609SOL    HW295660   7.941   3.823   2.126
64610SOL     OW95661   8.388   4.396  12.603
64610SOL    HW195662   8.361   4.484  12.630
64610SOL    HW295663   8.306   4.352  12.580
64611SOL     OW95664   9.920  11.077   4.260
64611SOL    HW195665  10.000  11.116   4.225
64611SOL    HW295666   9.942  10.985   4.272
64612SOL     OW95667   5.615   0.863   1.601
64612SOL    HW195668   5.708   0.878   1.615
64612SOL    HW295669   5.574   0.883   1.685
64613SOL     OW95670   9.775  14.858   9.674
64613SOL    HW195671   9.760  14.856   9.580
64613SOL    HW295672   9.869  14.845   9.684
64614SOL     OW95673   1.984   3.586   0.292
64614SOL    HW195674   2.074   3.580   0.258
64614SOL    HW295675   1.934   3.623   0.220
64615SOL     OW95676  13.961   5.548   4.218
64615SOL    HW195677  13.925   5.538   4.306
64615SOL    HW295678  13.884   5.555   4.161
64616SOL     OW95679  13.602  10.144   4.428
64616SOL    HW195680  13.526  10.173   4.378
64616SOL    HW295681  13.663  10.112   4.362
64617SOL     OW95682   9.001  12.979   6.586
64617SOL    HW195683   9.017  12.964   6.680
64617SOL    HW295684   8.963  13.067   6.582
64618SOL     OW95685   6.845  13.166   5.349
64618SOL    HW195686   6.858  13.126   5.264
64618SOL    HW295687   6.750  13.169   5.361
64619SOL     OW95688   3.678   0.006   8.707
64619SOL    HW195689   3.718   0.034   8.625
64619SOL    HW295690   3.647  14.789   8.689
64620SOL     OW95691   7.230   3.535  14.206
64620SOL    HW195692   7.255   3.621  14.241
64620SOL    HW295693   7.313   3.492  14.187
64621SOL     OW95694  13.421   4.288   4.689
64621SOL    HW195695  13.325   4.293   4.687
64621SOL    HW295696  13.442   4.208   4.642
64622SOL     OW95697   2.407  11.069   9.562
64622SOL    HW195698   2.475  11.137   9.556
64622SOL    HW295699   2.346  11.102   9.628
64623SOL     OW95700   7.275   5.156   0.253
64623SOL    HW195701   7.321   5.227   0.299
64623SOL    HW295702   7.270   5.085   0.318
64624SOL     OW95703   9.370   8.082  13.222
64624SOL    HW195704   9.280   8.050  13.216
64624SOL    HW295705   9.410   8.028  13.290
64625SOL     OW95706  14.241   7.668   1.745
64625SOL    HW195707  14.160   7.709   1.715
64625SOL    HW295708  14.272   7.618   1.670
64626SOL     OW95709   9.621   7.162   5.585
64626SOL    HW195710   9.642   7.071   5.607
64626SOL    HW295711   9.528   7.161   5.563
64627SOL     OW95712   9.204   0.302   0.544
64627SOL    HW195713   9.112   0.307   0.568
64627SOL    HW295714   9.224   0.387   0.505
64628SOL     OW95715   8.128  14.452   1.936
64628SOL    HW195716   8.086  14.420   2.016
64628SOL    HW295717   8.140  14.373   1.883
64629SOL     OW95718  10.119   0.209   7.841
64629SOL    HW195719  10.132   0.284   7.783
64629SOL    HW295720  10.052   0.156   7.797
64630SOL     OW95721  14.531   4.070  13.476
64630SOL    HW195722  14.449   4.024  13.457
64630SOL    HW295723  14.544   4.129  13.402
64631SOL     OW95724   8.939   1.635   6.272
64631SOL    HW195725   9.024   1.594   6.290
64631SOL    HW295726   8.878   1.562   6.264
64632SOL     OW95727  14.755  13.780   2.496
64632SOL    HW195728  14.715  13.728   2.565
64632SOL    HW295729  14.817  13.838   2.541
64633SOL     OW95730   1.071   3.481  14.498
64633SOL    HW195731   1.163   3.461  14.513
64633SOL    HW295732   1.035   3.403  14.457
64634SOL     OW95733   0.348  13.297   7.481
64634SOL    HW195734   0.258  13.286   7.449
64634SOL    HW295735   0.338  13.314   7.575
64635SOL     OW95736  14.045   1.894   9.889
64635SOL    HW195737  14.007   1.815   9.929
64635SOL    HW295738  14.038   1.961   9.957
64636SOL     OW95739   8.248   8.634   7.515
64636SOL    HW195740   8.274   8.638   7.607
64636SOL    HW295741   8.157   8.664   7.514
64637SOL     OW95742   2.419   2.930  14.780
64637SOL    HW195743   2.477   2.863  14.744
64637SOL    HW295744   2.478   2.994  14.820
64638SOL     OW95745   0.199   9.922   1.734
64638SOL    HW195746   0.244   9.882   1.660
64638SOL    HW295747   0.122   9.963   1.695
64639SOL     OW95748   9.703   5.673   8.067
64639SOL    HW195749   9.702   5.724   8.147
64639SOL    HW295750   9.770   5.714   8.013
64640SOL     OW95751   9.187   8.918  11.320
64640SOL    HW195752   9.136   8.837  11.308
64640SOL    HW295753   9.247   8.920  11.246
64641SOL     OW95754   4.936   5.887  10.381
64641SOL    HW195755   4.991   5.857  10.453
64641SOL    HW295756   4.988   5.871  10.302
64642SOL     OW95757  14.312   6.738  11.931
64642SOL    HW195758  14.258   6.811  11.900
64642SOL    HW295759  14.278   6.661  11.886
64643SOL     OW95760  14.119  14.605  11.375
64643SOL    HW195761  14.180  14.673  11.345
64643SOL    HW295762  14.077  14.644  11.452
64644SOL     OW95763  13.717  14.294  11.972
64644SOL    HW195764  13.652  14.362  11.990
64644SOL    HW295765  13.756  14.274  12.057
64645SOL     OW95766   9.434   0.272   8.013
64645SOL    HW195767   9.493   0.197   8.008
64645SOL    HW295768   9.486   0.346   7.979
64646SOL     OW95769   2.960   1.759  12.932
64646SOL    HW195770   2.986   1.678  12.977
64646SOL    HW295771   2.953   1.824  13.002
64647SOL     OW95772   5.550   7.769   1.149
64647SOL    HW195773   5.474   7.824   1.171
64647SOL    HW295774   5.579   7.802   1.064
64648SOL     OW95775   2.555  14.363   8.478
64648SOL    HW195776   2.490  14.305   8.518
64648SOL    HW295777   2.567  14.432   8.543
64649SOL     OW95778  13.874   2.902  14.588
64649SOL    HW195779  13.795   2.847  14.587
64649SOL    HW295780  13.852   2.975  14.645
64650SOL     OW95781   5.472  13.279   8.449
64650SOL    HW195782   5.490  13.356   8.502
64650SOL    HW295783   5.545  13.220   8.465
64651SOL     OW95784   2.061  11.925   2.375
64651SOL    HW195785   2.005  11.849   2.391
64651SOL    HW295786   2.126  11.894   2.312
64652SOL     OW95787   7.681   7.147   9.760
64652SOL    HW195788   7.761   7.191   9.788
64652SOL    HW295789   7.611   7.209   9.781
64653SOL     OW95790   4.656   0.574   9.463
64653SOL    HW195791   4.628   0.648   9.409
64653SOL    HW295792   4.651   0.499   9.405
64654SOL     OW95793   2.824   0.484   3.786
64654SOL    HW195794   2.899   0.449   3.834
64654SOL    HW295795   2.787   0.408   3.740
64655SOL     OW95796   1.002  13.174  14.365
64655SOL    HW195797   1.007  13.092  14.415
64655SOL    HW295798   1.093  13.197  14.347
64656SOL     OW95799  10.272   0.013   8.620
64656SOL    HW195800  10.329  14.818   8.581
64656SOL    HW295801  10.255  14.854   8.708
64657SOL     OW95802   2.639  14.367   1.591
64657SOL    HW195803   2.679  14.402   1.671
64657SOL    HW295804   2.576  14.433   1.564
64658SOL     OW95805   1.484   7.426  11.232
64658SOL    HW195806   1.548   7.497  11.231
64658SOL    HW295807   1.427   7.446  11.306
64659SOL     OW95808  13.252   0.980   0.835
64659SOL    HW195809  13.281   0.985   0.744
64659SOL    HW295810  13.323   1.021   0.885
64660SOL     OW95811  11.846  10.464   5.516
64660SOL    HW195812  11.882  10.505   5.595
64660SOL    HW295813  11.780  10.404   5.548
64661SOL     OW95814   3.531   6.449  11.064
64661SOL    HW195815   3.533   6.543  11.045
64661SOL    HW295816   3.438   6.425  11.054
64662SOL     OW95817  13.975   5.296  13.128
64662SOL    HW195818  13.931   5.304  13.212
64662SOL    HW295819  13.905   5.279  13.065
64663SOL     OW95820  13.053   3.149   7.184
64663SOL    HW195821  12.973   3.098   7.199
64663SOL    HW295822  13.050   3.171   7.091
64664SOL     OW95823  14.343   3.125   9.219
64664SOL    HW195824  14.405   3.139   9.290
64664SOL    HW295825  14.372   3.045   9.177
64665SOL     OW95826  11.418   1.070   5.262
64665SOL    HW195827  11.369   1.085   5.181
64665SOL    HW295828  11.481   1.001   5.239
64666SOL     OW95829  11.352   0.363  12.744
64666SOL    HW195830  11.270   0.318  12.764
64666SOL    HW295831  11.404   0.353  12.824
64667SOL     OW95832  11.296   9.683   9.532
64667SOL    HW195833  11.238   9.751   9.496
64667SOL    HW295834  11.262   9.666   9.620
64668SOL     OW95835   5.016   8.483  13.812
64668SOL    HW195836   4.947   8.493  13.747
64668SOL    HW295837   5.028   8.570  13.849
64669SOL     OW95838   5.846   7.737   1.150
64669SOL    HW195839   5.836   7.797   1.076
64669SOL    HW295840   5.759   7.736   1.191
64670SOL     OW95841  11.710   0.867   1.853
64670SOL    HW195842  11.675   0.911   1.930
64670SOL    HW295843  11.716   0.937   1.787
64671SOL     OW95844  13.593   2.987  12.993
64671SOL    HW195845  13.499   2.969  12.982
64671SOL    HW295846  13.622   2.920  13.055
64672SOL     OW95847  14.375   5.485   6.141
64672SOL    HW195848  14.409   5.469   6.229
64672SOL    HW295849  14.424   5.424   6.085
64673SOL     OW95850   3.433   0.758  11.655
64673SOL    HW195851   3.375   0.834  11.655
64673SOL    HW295852   3.486   0.769  11.734
64674SOL     OW95853  14.628  12.037  14.504
64674SOL    HW195854  14.681  12.014  14.428
64674SOL    HW295855  14.539  12.012  14.479
64675SOL     OW95856   3.518   5.850   9.161
64675SOL    HW195857   3.474   5.899   9.091
64675SOL    HW295858   3.588   5.908   9.191
64676SOL     OW95859  11.205   2.046   3.274
64676SOL    HW195860  11.260   2.045   3.352
64676SOL    HW295861  11.158   2.129   3.279
64677SOL     OW95862   8.107   7.128   9.610
64677SOL    HW195863   8.074   7.113   9.522
64677SOL    HW295864   8.147   7.045   9.636
64678SOL     OW95865   3.776  13.534  12.041
64678SOL    HW195866   3.736  13.511  12.125
64678SOL    HW295867   3.859  13.576  12.063
64679SOL     OW95868   5.710   4.064   6.345
64679SOL    HW195869   5.796   4.046   6.384
64679SOL    HW295870   5.692   3.987   6.290
64680SOL     OW95871  13.337   5.129  13.070
64680SOL    HW195872  13.267   5.089  13.122
64680SOL    HW295873  13.349   5.216  13.108
64681SOL     OW95874   0.716   8.872  12.482
64681SOL    HW195875   0.649   8.834  12.425
64681SOL    HW295876   0.757   8.940  12.430
64682SOL     OW95877   0.067   6.894  14.055
64682SOL    HW195878  14.858   6.862  14.017
64682SOL    HW295879   0.040   6.946  14.131
64683SOL     OW95880   8.154   3.449   8.819
64683SOL    HW195881   8.180   3.417   8.906
64683SOL    HW295882   8.060   3.465   8.826
64684SOL     OW95883   4.595  14.415   2.450
64684SOL    HW195884   4.579  14.455   2.535
64684SOL    HW295885   4.521  14.443   2.396
64685SOL     OW95886  14.523  12.197  12.815
64685SOL    HW195887  14.573  12.199  12.734
64685SOL    HW295888  14.581  12.236  12.880
64686SOL     OW95889   1.671   8.002  14.311
64686SOL    HW195890   1.632   7.924  14.350
64686SOL    HW295891   1.599   8.066  14.310
64687SOL     OW95892   7.282  14.690   3.000
64687SOL    HW195893   7.226  14.612   3.001
64687SOL    HW295894   7.264  14.734   3.083
64688SOL     OW95895   1.639   8.633   2.835
64688SOL    HW195896   1.663   8.615   2.926
64688SOL    HW295897   1.590   8.715   2.839
64689SOL     OW95898   0.448   4.077   1.332
64689SOL    HW195899   0.428   4.091   1.240
64689SOL    HW295900   0.364   4.054   1.372
64690SOL     OW95901  10.259   2.518   4.858
64690SOL    HW195902  10.174   2.560   4.868
64690SOL    HW295903  10.257   2.481   4.770
64691SOL     OW95904  13.988  12.515   7.065
64691SOL    HW195905  13.976  12.549   6.976
64691SOL    HW295906  14.083  12.518   7.079
64692SOL     OW95907   1.294   5.158   9.948
64692SOL    HW195908   1.228   5.176   9.881
64692SOL    HW295909   1.256   5.192  10.029
64693SOL     OW95910   5.413   7.675   5.228
64693SOL    HW195911   5.376   7.760   5.249
64693SOL    HW295912   5.339   7.623   5.196
64694SOL     OW95913   8.192   6.492   8.278
64694SOL    HW195914   8.244   6.568   8.304
64694SOL    HW295915   8.184   6.440   8.359
64695SOL     OW95916   6.480  11.721  13.831
64695SOL    HW195917   6.522  11.754  13.911
64695SOL    HW295918   6.485  11.794  13.769
64696SOL     OW95919   5.825   5.165   6.586
64696SOL    HW195920   5.892   5.206   6.531
64696SOL    HW295921   5.875   5.123   6.656
64697SOL     OW95922  12.637   0.241  12.595
64697SOL    HW195923  12.553   0.273  12.628
64697SOL    HW295924  12.614   0.166  12.540
64698SOL     OW95925   6.118   5.867  10.153
64698SOL    HW195926   6.206   5.835  10.133
64698SOL    HW295927   6.075   5.793  10.196
64699SOL     OW95928  11.299  13.147   2.933
64699SOL    HW195929  11.361  13.188   2.872
64699SOL    HW295930  11.283  13.213   3.000
64700SOL     OW95931   7.438   0.682  10.465
64700SOL    HW195932   7.508   0.665  10.402
64700SOL    HW295933   7.477   0.662  10.550
64701SOL     OW95934   3.467   2.518  11.414
64701SOL    HW195935   3.486   2.580  11.344
64701SOL    HW295936   3.379   2.485  11.393
64702SOL     OW95937  10.837   9.102  14.799
64702SOL    HW195938  10.894   9.165  14.756
64702SOL    HW295939  10.801   9.149   0.002
64703SOL     OW95940   7.638   9.665  12.515
64703SOL    HW195941   7.730   9.692  12.515
64703SOL    HW295942   7.601   9.705  12.594
64704SOL     OW95943  11.985   7.921   3.164
64704SOL    HW195944  12.025   7.993   3.212
64704SOL    HW295945  11.892   7.945   3.159
64705SOL     OW95946   0.706   2.821   6.466
64705SOL    HW195947   0.746   2.795   6.383
64705SOL    HW295948   0.779   2.829   6.527
64706SOL     OW95949   4.061   2.814  10.846
64706SOL    HW195950   3.988   2.756  10.867
64706SOL    HW295951   4.139   2.766  10.872
64707SOL     OW95952   6.158   1.335  13.185
64707SOL    HW195953   6.209   1.343  13.104
64707SOL    HW295954   6.209   1.276  13.240
64708SOL     OW95955   8.239   0.844   2.970
64708SOL    HW195956   8.318   0.815   3.016
64708SOL    HW295957   8.256   0.824   2.878
64709SOL     OW95958  12.140   8.156   9.411
64709SOL    HW195959  12.064   8.207   9.381
64709SOL    HW295960  12.103   8.073   9.440
64710SOL     OW95961   9.444   9.707   5.296
64710SOL    HW195962   9.410   9.755   5.221
64710SOL    HW295963   9.402   9.747   5.372
64711SOL     OW95964  13.683  11.190   9.160
64711SOL    HW195965  13.687  11.282   9.134
64711SOL    HW295966  13.590  11.173   9.174
64712SOL     OW95967   7.648   3.352   0.019
64712SOL    HW195968   7.560   3.335   0.052
64712SOL    HW295969   7.702   3.360   0.098
64713SOL     OW95970   1.417   6.416   1.618
64713SOL    HW195971   1.469   6.458   1.550
64713SOL    HW295972   1.472   6.422   1.697
64714SOL     OW95973   3.695   0.344  10.096
64714SOL    HW195974   3.653   0.430  10.101
64714SOL    HW295975   3.623   0.283  10.078
64715SOL     OW95976  13.849   0.103   0.399
64715SOL    HW195977  13.924   0.069   0.447
64715SOL    HW295978  13.880   0.113   0.309
64716SOL     OW95979   1.169  14.220   5.255
64716SOL    HW195980   1.092  14.197   5.202
64716SOL    HW295981   1.148  14.306   5.292
64717SOL     OW95982  10.957   4.971   2.957
64717SOL    HW195983  10.950   4.878   2.975
64717SOL    HW295984  11.045   4.995   2.987
64718SOL     OW95985  11.662   5.089   4.392
64718SOL    HW195986  11.606   5.038   4.451
64718SOL    HW295987  11.751   5.076   4.426
64719SOL     OW95988   3.194  10.388  13.567
64719SOL    HW195989   3.161  10.462  13.617
64719SOL    HW295990   3.121  10.326  13.564
64720SOL     OW95991   8.672  10.440  14.839
64720SOL    HW195992   8.622  10.360  14.851
64720SOL    HW295993   8.756  10.411  14.804
64721SOL     OW95994   3.539   0.768   5.205
64721SOL    HW195995   3.477   0.752   5.134
64721SOL    HW295996   3.546   0.685   5.250
64722SOL     OW95997  12.517   7.653   9.084
64722SOL    HW195998  12.606   7.631   9.056
64722SOL    HW295999  12.493   7.729   9.031
64723SOL     OW96000   2.185  14.236   4.912
64723SOL    HW196001   2.176  14.171   4.982
64723SOL    HW296002   2.096  14.265   4.895
64724SOL     OW96003   9.236  11.158   6.350
64724SOL    HW196004   9.254  11.192   6.262
64724SOL    HW296005   9.285  11.076   6.355
64725SOL     OW96006   0.974   0.629   0.406
64725SOL    HW196007   0.998   0.701   0.348
64725SOL    HW296008   1.053   0.612   0.457
64726SOL     OW96009  14.664  11.812   5.235
64726SOL    HW196010  14.639  11.747   5.300
64726SOL    HW296011  14.592  11.876   5.236
64727SOL     OW96012   4.022  14.662  12.850
64727SOL    HW196013   4.091  14.681  12.915
64727SOL    HW296014   3.997  14.748  12.817
64728SOL     OW96015   2.840  12.857   6.816
64728SOL    HW196016   2.861  12.949   6.833
64728SOL    HW296017   2.766  12.860   6.756
64729SOL     OW96018  13.529   4.385   7.784
64729SOL    HW196019  13.524   4.353   7.694
64729SOL    HW296020  13.532   4.306   7.837
64730SOL     OW96021   9.772   9.023  14.798
64730SOL    HW196022   9.818   8.976  14.729
64730SOL    HW296023   9.842   9.055  14.855
64731SOL     OW96024   0.938   9.134  11.692
64731SOL    HW196025   0.877   9.188  11.641
64731SOL    HW296026   0.985   9.197  11.748
64732SOL     OW96027   8.305   9.149  13.928
64732SOL    HW196028   8.294   9.236  13.967
64732SOL    HW296029   8.246   9.093  13.979
64733SOL     OW96030  13.908   2.431   6.202
64733SOL    HW196031  13.831   2.408   6.253
64733SOL    HW296032  13.918   2.359   6.139
64734SOL     OW96033   2.791   1.225   4.337
64734SOL    HW196034   2.781   1.240   4.431
64734SOL    HW296035   2.886   1.224   4.323
64735SOL     OW96036   7.879  12.804   1.130
64735SOL    HW196037   7.891  12.821   1.224
64735SOL    HW296038   7.867  12.891   1.092
64736SOL     OW96039   6.004  12.119   2.621
64736SOL    HW196040   5.930  12.065   2.648
64736SOL    HW296041   6.008  12.108   2.526
64737SOL     OW96042  14.472   8.272   8.271
64737SOL    HW196043  14.459   8.366   8.277
64737SOL    HW296044  14.459   8.240   8.360
64738SOL     OW96045   7.409   1.990   7.710
64738SOL    HW196046   7.464   1.964   7.636
64738SOL    HW296047   7.358   1.912   7.731
64739SOL     OW96048   0.049   5.040  14.681
64739SOL    HW196049   0.042   5.038  14.586
64739SOL    HW296050  14.858   4.975  14.711
64740SOL     OW96051  12.106  12.778   7.695
64740SOL    HW196052  12.070  12.726   7.623
64740SOL    HW296053  12.189  12.735   7.715
64741SOL     OW96054   3.931   8.304  13.027
64741SOL    HW196055   3.982   8.223  13.036
64741SOL    HW296056   3.950   8.334  12.939
64742SOL     OW96057   9.972  13.551   1.897
64742SOL    HW196058   9.901  13.490   1.918
64742SOL    HW296059  10.000  13.526   1.809
64743SOL     OW96060   2.505   3.695   5.186
64743SOL    HW196061   2.592   3.662   5.166
64743SOL    HW296062   2.499   3.693   5.282
64744SOL     OW96063   1.355  13.588   6.800
64744SOL    HW196064   1.368  13.682   6.811
64744SOL    HW296065   1.295  13.581   6.726
64745SOL     OW96066   2.614   0.832   8.561
64745SOL    HW196067   2.699   0.794   8.587
64745SOL    HW296068   2.637   0.909   8.509
64746SOL     OW96069   6.812  13.308  10.853
64746SOL    HW196070   6.905  13.322  10.867
64746SOL    HW296071   6.800  13.214  10.867
64747SOL     OW96072   0.718   2.266  12.113
64747SOL    HW196073   0.813   2.268  12.118
64747SOL    HW296074   0.699   2.249  12.020
64748SOL     OW96075   4.794   6.384   6.870
64748SOL    HW196076   4.841   6.436   6.936
64748SOL    HW296077   4.837   6.299   6.871
64749SOL     OW96078   8.396   2.134  12.911
64749SOL    HW196079   8.336   2.203  12.937
64749SOL    HW296080   8.433   2.101  12.993
64750SOL     OW96081  11.046   0.344  13.108
64750SOL    HW196082  11.021   0.292  13.184
64750SOL    HW296083  11.125   0.390  13.136
64751SOL     OW96084   4.419  11.969   0.696
64751SOL    HW196085   4.360  11.972   0.621
64751SOL    HW296086   4.361  11.970   0.772
64752SOL     OW96087   0.355  11.055   1.873
64752SOL    HW196088   0.429  11.040   1.814
64752SOL    HW296089   0.343  10.971   1.918
64753SOL     OW96090  12.981  13.757  11.196
64753SOL    HW196091  12.971  13.733  11.104
64753SOL    HW296092  12.971  13.852  11.197
64754SOL     OW96093   3.801   7.252  12.011
64754SOL    HW196094   3.838   7.183  11.956
64754SOL    HW296095   3.854   7.329  11.991
64755SOL     OW96096   0.847  13.863   3.723
64755SOL    HW196097   0.884  13.924   3.787
64755SOL    HW296098   0.922  13.836   3.670
64756SOL     OW96099  13.670   6.996  11.313
64756SOL    HW196100  13.658   7.000  11.218
64756SOL    HW296101  13.762   6.973  11.325
64757SOL     OW96102   9.773   7.892  14.222
64757SOL    HW196103   9.796   7.939  14.142
64757SOL    HW296104   9.684   7.921  14.242
64758SOL     OW96105   5.220   6.531  10.849
64758SOL    HW196106   5.190   6.466  10.912
64758SOL    HW296107   5.312   6.544  10.868
64759SOL     OW96108   3.805   1.202   8.329
64759SOL    HW196109   3.811   1.297   8.316
64759SOL    HW296110   3.868   1.184   8.399
64760SOL     OW96111  13.746  11.161   7.843
64760SOL    HW196112  13.835  11.183   7.871
64760SOL    HW296113  13.759  11.112   7.761
64761SOL     OW96114   6.044   3.221  10.763
64761SOL    HW196115   6.068   3.314  10.761
64761SOL    HW296116   5.957   3.220  10.803
64762SOL     OW96117  11.814   8.383  13.261
64762SOL    HW196118  11.729   8.338  13.257
64762SOL    HW296119  11.793   8.469  13.298
64763SOL     OW96120  10.176   2.628   4.413
64763SOL    HW196121  10.164   2.666   4.500
64763SOL    HW296122  10.187   2.704   4.355
64764SOL     OW96123  13.670   6.023  13.032
64764SOL    HW196124  13.650   5.941  13.078
64764SOL    HW296125  13.749   6.003  12.981
64765SOL     OW96126   9.961   9.287   5.207
64765SOL    HW196127  10.011   9.326   5.279
64765SOL    HW296128  10.024   9.231   5.161
64766SOL     OW96129   7.181  12.783   2.438
64766SOL    HW196130   7.115  12.744   2.380
64766SOL    HW296131   7.263  12.740   2.414
64767SOL     OW96132   0.011   4.476  10.135
64767SOL    HW196133   0.059   4.396  10.157
64767SOL    HW296134  14.793   4.447  10.119
64768SOL     OW96135   1.891   7.304  14.545
64768SOL    HW196136   1.796   7.297  14.532
64768SOL    HW296137   1.923   7.214  14.535
64769SOL     OW96138   1.829   0.369   5.133
64769SOL    HW196139   1.834   0.459   5.163
64769SOL    HW296140   1.875   0.318   5.200
64770SOL     OW96141   5.922  14.192   6.907
64770SOL    HW196142   5.970  14.121   6.950
64770SOL    HW296143   5.834  14.157   6.894
64771SOL     OW96144   3.479   4.190  10.341
64771SOL    HW196145   3.467   4.100  10.311
64771SOL    HW296146   3.391   4.218  10.367
64772SOL     OW96147  14.719   9.574   7.879
64772SOL    HW196148  14.640   9.529   7.910
64772SOL    HW296149  14.771   9.504   7.840
64773SOL     OW96150   5.108   1.303  12.443
64773SOL    HW196151   5.189   1.329  12.486
64773SOL    HW296152   5.070   1.385  12.412
64774SOL     OW96153  10.216   6.843   1.736
64774SOL    HW196154  10.207   6.900   1.813
64774SOL    HW296155  10.228   6.903   1.663
64775SOL     OW96156   6.008  12.922   6.252
64775SOL    HW196157   5.923  12.948   6.287
64775SOL    HW296158   5.999  12.933   6.157
64776SOL     OW96159   5.072  10.623   4.241
64776SOL    HW196160   5.142  10.588   4.186
64776SOL    HW296161   5.117  10.680   4.304
64777SOL     OW96162   8.305   1.697   6.386
64777SOL    HW196163   8.389   1.743   6.381
64777SOL    HW296164   8.262   1.717   6.302
64778SOL     OW96165   2.906  11.576   8.293
64778SOL    HW196166   2.821  11.610   8.265
64778SOL    HW296167   2.899  11.570   8.389
64779SOL     OW96168   7.110  11.365   9.942
64779SOL    HW196169   7.054  11.443   9.947
64779SOL    HW296170   7.050  11.294   9.918
64780SOL     OW96171   6.600   5.783   3.224
64780SOL    HW196172   6.552   5.730   3.160
64780SOL    HW296173   6.683   5.735   3.236
64781SOL     OW96174   6.245  12.591   4.971
64781SOL    HW196175   6.238  12.684   4.992
64781SOL    HW296176   6.156  12.564   4.950
64782SOL     OW96177   2.927   1.072  11.408
64782SOL    HW196178   2.902   1.051  11.318
64782SOL    HW296179   2.934   1.168  11.409
64783SOL     OW96180   9.435  10.201   8.706
64783SOL    HW196181   9.379  10.125   8.723
64783SOL    HW296182   9.502  10.196   8.774
64784SOL     OW96183   0.159   1.806  13.419
64784SOL    HW196184   0.249   1.817  13.389
64784SOL    HW296185   0.111   1.778  13.341
64785SOL     OW96186   7.303   5.661   3.620
64785SOL    HW196187   7.241   5.694   3.554
64785SOL    HW296188   7.276   5.703   3.701
64786SOL     OW96189   7.087   3.906   6.863
64786SOL    HW196190   7.052   3.828   6.906
64786SOL    HW296191   7.174   3.879   6.833
64787SOL     OW96192  11.837  14.464   5.014
64787SOL    HW196193  11.920  14.419   5.009
64787SOL    HW296194  11.858  14.555   4.993
64788SOL     OW96195   3.956  12.669   9.989
64788SOL    HW196196   3.915  12.755   9.980
64788SOL    HW296197   3.892  12.607   9.954
64789SOL     OW96198   9.691   6.728  12.212
64789SOL    HW196199   9.784   6.727  12.191
64789SOL    HW296200   9.688   6.744  12.306
64790SOL     OW96201  11.301   8.568  11.826
64790SOL    HW196202  11.301   8.473  11.816
64790SOL    HW296203  11.345   8.601  11.748
64791SOL     OW96204  11.959   0.926   8.461
64791SOL    HW196205  11.916   0.858   8.409
64791SOL    HW296206  11.906   0.932   8.540
64792SOL     OW96207   2.031   1.031  12.244
64792SOL    HW196208   1.980   1.101  12.285
64792SOL    HW296209   2.096   1.077  12.191
64793SOL     OW96210   9.833  13.591  13.848
64793SOL    HW196211   9.828  13.502  13.881
64793SOL    HW296212   9.914  13.594  13.797
64794SOL     OW96213  14.659   9.168   3.572
64794SOL    HW196214  14.703   9.086   3.550
64794SOL    HW296215  14.730   9.227   3.595
64795SOL     OW96216  13.641  13.599  10.837
64795SOL    HW196217  13.660  13.626  10.747
64795SOL    HW296218  13.727  13.590  10.878
64796SOL     OW96219   0.481   0.076  11.303
64796SOL    HW196220   0.397   0.068  11.347
64796SOL    HW296221   0.537   0.122  11.366
64797SOL     OW96222  12.308  10.321  14.573
64797SOL    HW196223  12.368  10.263  14.619
64797SOL    HW296224  12.296  10.281  14.487
64798SOL     OW96225  10.917   0.634   0.332
64798SOL    HW196226  10.885   0.645   0.243
64798SOL    HW296227  10.949   0.543   0.335
64799SOL     OW96228   1.534   8.205  14.472
64799SOL    HW196229   1.456   8.230  14.422
64799SOL    HW296230   1.508   8.126  14.520
64800SOL     OW96231   4.369   3.017   8.376
64800SOL    HW196232   4.400   2.974   8.296
64800SOL    HW296233   4.310   3.087   8.344
64801SOL     OW96234  13.876   3.429   5.941
64801SOL    HW196235  13.906   3.518   5.960
64801SOL    HW296236  13.810   3.411   6.008
64802SOL     OW96237   3.444   6.271   7.947
64802SOL    HW196238   3.528   6.250   7.907
64802SOL    HW296239   3.389   6.301   7.875
64803SOL     OW96240   6.494  13.225  12.791
64803SOL    HW196241   6.472  13.248  12.881
64803SOL    HW296242   6.579  13.181  12.798
64804SOL     OW96243  12.216  12.929  13.846
64804SOL    HW196244  12.260  13.010  13.823
64804SOL    HW296245  12.285  12.874  13.884
64805SOL     OW96246  11.398  13.836   7.073
64805SOL    HW196247  11.441  13.779   7.137
64805SOL    HW296248  11.309  13.845   7.106
64806SOL     OW96249   8.403   3.583   0.058
64806SOL    HW196250   8.411   3.579  14.834
64806SOL    HW296251   8.459   3.656   0.083
64807SOL     OW96252   7.062   3.415   9.756
64807SOL    HW196253   7.043   3.501   9.793
64807SOL    HW296254   7.156   3.416   9.739
64808SOL     OW96255   4.659  14.340   1.704
64808SOL    HW196256   4.735  14.296   1.741
64808SOL    HW296257   4.683  14.356   1.612
64809SOL     OW96258  10.590   2.646   5.910
64809SOL    HW196259  10.563   2.556   5.891
64809SOL    HW296260  10.585   2.691   5.826
64810SOL     OW96261  10.037   7.879  13.362
64810SOL    HW196262  10.049   7.798  13.313
64810SOL    HW296263   9.966   7.859  13.423
64811SOL     OW96264   6.934   6.208   7.993
64811SOL    HW196265   6.897   6.204   7.905
64811SOL    HW296266   6.982   6.291   7.996
64812SOL     OW96267   2.065  11.740  10.736
64812SOL    HW196268   2.157  11.747  10.762
64812SOL    HW296269   2.018  11.724  10.818
64813SOL     OW96270   9.288  13.650   9.303
64813SOL    HW196271   9.378  13.622   9.283
64813SOL    HW296272   9.234  13.573   9.286
64814SOL     OW96273   9.655   7.019  11.574
64814SOL    HW196274   9.731   7.072  11.549
64814SOL    HW296275   9.654   6.947  11.511
64815SOL     OW96276  13.966   6.211   4.969
64815SOL    HW196277  13.965   6.159   4.889
64815SOL    HW296278  14.051   6.254   4.969
64816SOL     OW96279   7.832  12.445  10.239
64816SOL    HW196280   7.890  12.369  10.227
64816SOL    HW296281   7.791  12.430  10.324
64817SOL     OW96282   5.527   8.499   5.526
64817SOL    HW196283   5.490   8.519   5.440
64817SOL    HW296284   5.595   8.434   5.508
64818SOL     OW96285   4.895  13.789  12.617
64818SOL    HW196286   4.987  13.768  12.604
64818SOL    HW296287   4.848  13.713  12.583
64819SOL     OW96288   0.197  11.528   5.863
64819SOL    HW196289   0.103  11.510   5.861
64819SOL    HW296290   0.205  11.608   5.916
64820SOL     OW96291   0.073   1.317   0.988
64820SOL    HW196292   0.111   1.391   0.940
64820SOL    HW296293   0.119   1.241   0.953
64821SOL     OW96294   4.709   4.007  14.038
64821SOL    HW196295   4.757   3.979  14.116
64821SOL    HW296296   4.617   4.000  14.063
64822SOL     OW96297   4.331   3.712   0.090
64822SOL    HW196298   4.339   3.805   0.109
64822SOL    HW296299   4.332   3.669   0.176
64823SOL     OW96300   5.411   0.559   9.368
64823SOL    HW196301   5.426   0.645   9.408
64823SOL    HW296302   5.443   0.496   9.432
64824SOL     OW96303  14.029   6.869   5.230
64824SOL    HW196304  14.102   6.827   5.185
64824SOL    HW296305  13.956   6.863   5.167
64825SOL     OW96306  12.348   7.147   2.425
64825SOL    HW196307  12.422   7.206   2.436
64825SOL    HW296308  12.323   7.158   2.333
64826SOL     OW96309  13.074  10.344   7.635
64826SOL    HW196310  13.148  10.350   7.696
64826SOL    HW296311  12.998  10.331   7.691
64827SOL     OW96312   4.133   4.752   1.191
64827SOL    HW196313   4.210   4.807   1.176
64827SOL    HW296314   4.066   4.813   1.223
64828SOL     OW96315   1.544  12.829   4.311
64828SOL    HW196316   1.451  12.812   4.294
64828SOL    HW296317   1.590  12.778   4.244
64829SOL     OW96318   3.399   5.139  12.953
64829SOL    HW196319   3.338   5.068  12.972
64829SOL    HW296320   3.483   5.096  12.939
64830SOL     OW96321   3.869   5.456   0.751
64830SOL    HW196322   3.823   5.508   0.817
64830SOL    HW296323   3.853   5.365   0.775
64831SOL     OW96324  13.444   7.537   5.335
64831SOL    HW196325  13.508   7.608   5.331
64831SOL    HW296326  13.494   7.457   5.321
64832SOL     OW96327   0.643   4.503   6.426
64832SOL    HW196328   0.708   4.440   6.397
64832SOL    HW296329   0.574   4.450   6.466
64833SOL     OW96330   0.468   2.008   3.657
64833SOL    HW196331   0.457   1.993   3.563
64833SOL    HW296332   0.423   2.090   3.674
64834SOL     OW96333   1.938   5.110  10.777
64834SOL    HW196334   1.889   5.046  10.725
64834SOL    HW296335   1.871   5.169  10.812
64835SOL     OW96336   8.932  13.742  12.174
64835SOL    HW196337   8.868  13.672  12.161
64835SOL    HW296338   9.000  13.724  12.110
64836SOL     OW96339   3.415   6.088   5.619
64836SOL    HW196340   3.350   6.023   5.593
64836SOL    HW296341   3.369   6.172   5.615
64837SOL     OW96342  10.323   4.425   6.562
64837SOL    HW196343  10.375   4.351   6.594
64837SOL    HW296344  10.279   4.460   6.639
64838SOL     OW96345  10.234  12.250   7.667
64838SOL    HW196346  10.146  12.227   7.636
64838SOL    HW296347  10.289  12.177   7.639
64839SOL     OW96348   7.420  14.108   9.380
64839SOL    HW196349   7.492  14.108   9.444
64839SOL    HW296350   7.409  14.200   9.358
64840SOL     OW96351   6.337   7.363   9.619
64840SOL    HW196352   6.281   7.374   9.696
64840SOL    HW296353   6.324   7.443   9.569
64841SOL     OW96354  12.381   4.379   6.748
64841SOL    HW196355  12.423   4.403   6.665
64841SOL    HW296356  12.290   4.361   6.724
64842SOL     OW96357  14.830   0.292  12.096
64842SOL    HW196358   0.013   0.326  12.025
64842SOL    HW296359   0.012   0.298  12.174
64843SOL     OW96360  10.952   6.289  10.676
64843SOL    HW196361  10.877   6.304  10.619
64843SOL    HW296362  10.987   6.205  10.647
64844SOL     OW96363   9.423   3.507   9.888
64844SOL    HW196364   9.471   3.557   9.822
64844SOL    HW296365   9.450   3.544   9.972
64845SOL     OW96366   1.315  13.257   4.827
64845SOL    HW196367   1.375  13.315   4.875
64845SOL    HW296368   1.362  13.233   4.748
64846SOL     OW96369   1.137   9.271   8.190
64846SOL    HW196370   1.146   9.194   8.246
64846SOL    HW296371   1.149   9.238   8.101
64847SOL     OW96372   8.716   7.441   1.102
64847SOL    HW196373   8.735   7.521   1.152
64847SOL    HW296374   8.721   7.468   1.011
64848SOL     OW96375   8.975   5.997   5.529
64848SOL    HW196376   8.970   6.055   5.453
64848SOL    HW296377   9.002   5.912   5.493
64849SOL     OW96378   2.373  11.647   7.204
64849SOL    HW196379   2.319  11.643   7.283
64849SOL    HW296380   2.440  11.713   7.224
64850SOL     OW96381   7.588   0.178  14.129
64850SOL    HW196382   7.680   0.154  14.137
64850SOL    HW296383   7.587   0.273  14.143
64851SOL     OW96384  13.128   8.409   2.395
64851SOL    HW196385  13.100   8.428   2.484
64851SOL    HW296386  13.221   8.388   2.403
64852SOL     OW96387  12.440   5.455   9.493
64852SOL    HW196388  12.349   5.432   9.508
64852SOL    HW296389  12.439   5.548   9.470
64853SOL     OW96390  11.839   2.686  11.405
64853SOL    HW196391  11.811   2.750  11.472
64853SOL    HW296392  11.932   2.704  11.393
64854SOL     OW96393   6.406   1.169   2.979
64854SOL    HW196394   6.486   1.212   2.950
64854SOL    HW296395   6.394   1.097   2.916
64855SOL     OW96396   0.950   6.819  10.188
64855SOL    HW196397   0.919   6.753  10.125
64855SOL    HW296398   0.891   6.893  10.176
64856SOL     OW96399  11.068  13.238  10.267
64856SOL    HW196400  11.055  13.261  10.359
64856SOL    HW296401  11.161  13.218  10.261
64857SOL     OW96402   1.974   6.318   6.041
64857SOL    HW196403   2.003   6.270   5.963
64857SOL    HW296404   1.893   6.275   6.067
64858SOL     OW96405   0.636   9.035   9.658
64858SOL    HW196406   0.606   9.053   9.569
64858SOL    HW296407   0.563   9.063   9.713
64859SOL     OW96408   2.579  10.574   8.844
64859SOL    HW196409   2.588  10.523   8.925
64859SOL    HW296410   2.667  10.606   8.826
64860SOL     OW96411   9.721  14.731   1.853
64860SOL    HW196412   9.699  14.823   1.868
64860SOL    HW296413   9.813  14.734   1.824
64861SOL     OW96414  12.760   5.395   5.286
64861SOL    HW196415  12.817   5.379   5.210
64861SOL    HW296416  12.684   5.338   5.271
64862SOL     OW96417   9.987  13.020  12.376
64862SOL    HW196418   9.964  13.106  12.410
64862SOL    HW296419  10.008  13.035  12.284
64863SOL     OW96420  13.940   6.235  13.015
64863SOL    HW196421  13.937   6.322  12.975
64863SOL    HW296422  13.895   6.178  12.953
64864SOL     OW96423   6.536  11.993   2.102
64864SOL    HW196424   6.503  11.926   2.162
64864SOL    HW296425   6.494  12.074   2.131
64865SOL     OW96426   9.556   1.647   1.132
64865SOL    HW196427   9.606   1.624   1.053
64865SOL    HW296428   9.477   1.592   1.126
64866SOL     OW96429   6.819   8.289  10.894
64866SOL    HW196430   6.763   8.217  10.924
64866SOL    HW296431   6.908   8.258  10.910
64867SOL     OW96432   5.668  14.346  14.216
64867SOL    HW196433   5.621  14.312  14.139
64867SOL    HW296434   5.742  14.287  14.226
64868SOL     OW96435   8.132   3.239   5.119
64868SOL    HW196436   8.135   3.334   5.131
64868SOL    HW296437   8.150   3.227   5.026
64869SOL     OW96438   6.164   3.812  10.459
64869SOL    HW196439   6.239   3.851  10.505
64869SOL    HW296440   6.177   3.836  10.368
64870SOL     OW96441   4.224   9.826   9.004
64870SOL    HW196442   4.238   9.915   8.971
64870SOL    HW296443   4.313   9.793   9.021
64871SOL     OW96444  11.652   8.372   2.388
64871SOL    HW196445  11.682   8.440   2.449
64871SOL    HW296446  11.722   8.307   2.390
64872SOL     OW96447   2.003   1.722  14.734
64872SOL    HW196448   1.971   1.674  14.810
64872SOL    HW296449   2.098   1.726  14.746
64873SOL     OW96450  12.029   1.068   0.888
64873SOL    HW196451  12.107   1.065   0.833
64873SOL    HW296452  12.033   1.154   0.930
64874SOL     OW96453   5.436  14.352  12.079
64874SOL    HW196454   5.507  14.301  12.041
64874SOL    HW296455   5.475  14.438  12.095
64875SOL     OW96456   6.568   0.019   2.126
64875SOL    HW196457   6.479   0.054   2.133
64875SOL    HW296458   6.560  14.799   2.147
64876SOL     OW96459  10.514  12.437   9.610
64876SOL    HW196460  10.448  12.460   9.675
64876SOL    HW296461  10.474  12.367   9.559
64877SOL     OW96462   1.015  13.186   8.988
64877SOL    HW196463   0.923  13.202   9.011
64877SOL    HW296464   1.053  13.274   8.981
64878SOL     OW96465  14.093  12.823   8.845
64878SOL    HW196466  14.114  12.824   8.752
64878SOL    HW296467  14.132  12.741   8.877
64879SOL     OW96468   0.529  10.368  14.483
64879SOL    HW196469   0.560  10.417  14.560
64879SOL    HW296470   0.470  10.302  14.518
64880SOL     OW96471   4.430   8.892   0.138
64880SOL    HW196472   4.481   8.967   0.108
64880SOL    HW296473   4.495   8.825   0.159
64881SOL     OW96474   7.068  14.510   6.321
64881SOL    HW196475   7.010  14.439   6.296
64881SOL    HW296476   7.012  14.572   6.368
64882SOL     OW96477   5.815   2.695   4.729
64882SOL    HW196478   5.794   2.765   4.667
64882SOL    HW296479   5.748   2.628   4.714
64883SOL     OW96480  11.446   3.629   8.231
64883SOL    HW196481  11.440   3.662   8.141
64883SOL    HW296482  11.428   3.536   8.224
64884SOL     OW96483  11.793  10.425   9.984
64884SOL    HW196484  11.715  10.427   9.928
64884SOL    HW296485  11.758  10.438  10.073
64885SOL     OW96486   8.581   8.613   2.602
64885SOL    HW196487   8.610   8.694   2.561
64885SOL    HW296488   8.635   8.605   2.680
64886SOL     OW96489   0.100   1.209   3.990
64886SOL    HW196490   0.113   1.143   4.058
64886SOL    HW296491   0.176   1.266   3.997
64887SOL     OW96492  12.773   7.655   8.297
64887SOL    HW196493  12.835   7.593   8.335
64887SOL    HW296494  12.756   7.621   8.209
64888SOL     OW96495   4.297   3.479   3.383
64888SOL    HW196496   4.343   3.561   3.365
64888SOL    HW296497   4.224   3.478   3.320
64889SOL     OW96498  10.487  12.800   1.820
64889SOL    HW196499  10.473  12.847   1.738
64889SOL    HW296500  10.558  12.846   1.863
64890SOL     OW96501   1.480  14.276  12.098
64890SOL    HW196502   1.404  14.332  12.081
64890SOL    HW296503   1.512  14.253  12.011
64891SOL     OW96504   4.298  10.546  12.684
64891SOL    HW196505   4.357  10.491  12.632
64891SOL    HW296506   4.210  10.520  12.656
64892SOL     OW96507   2.997   2.886   3.330
64892SOL    HW196508   2.945   2.955   3.372
64892SOL    HW296509   2.937   2.846   3.267
64893SOL     OW96510  11.530   3.774   0.663
64893SOL    HW196511  11.591   3.843   0.636
64893SOL    HW296512  11.576   3.727   0.732
64894SOL     OW96513   8.275   2.303  13.107
64894SOL    HW196514   8.345   2.253  13.150
64894SOL    HW296515   8.195   2.274  13.151
64895SOL     OW96516   5.535   8.526  14.357
64895SOL    HW196517   5.491   8.516  14.272
64895SOL    HW296518   5.627   8.540  14.335
64896SOL     OW96519   6.077   8.090  11.382
64896SOL    HW196520   6.156   8.140  11.404
64896SOL    HW296521   6.038   8.139  11.310
64897SOL     OW96522  12.627   9.004   4.209
64897SOL    HW196523  12.611   9.045   4.124
64897SOL    HW296524  12.606   9.072   4.273
64898SOL     OW96525   8.026   8.976  11.964
64898SOL    HW196526   7.965   8.946  11.897
64898SOL    HW296527   8.032   9.071  11.949
64899SOL     OW96528   0.066   1.014   7.191
64899SOL    HW196529   0.003   1.083   7.214
64899SOL    HW296530   0.012   0.948   7.146
64900SOL     OW96531   0.380   9.011  13.929
64900SOL    HW196532   0.454   9.010  13.989
64900SOL    HW296533   0.413   9.057  13.851
64901SOL     OW96534  12.313   5.629   3.628
64901SOL    HW196535  12.254   5.564   3.588
64901SOL    HW296536  12.263   5.711   3.626
64902SOL     OW96537   5.454  14.205   0.093
64902SOL    HW196538   5.455  14.236   0.002
64902SOL    HW296539   5.491  14.117   0.089
64903SOL     OW96540  12.825   3.810   3.055
64903SOL    HW196541  12.805   3.802   2.961
64903SOL    HW296542  12.875   3.731   3.076
64904SOL     OW96543  13.525   8.621   0.036
64904SOL    HW196544  13.430   8.636   0.038
64904SOL    HW296545  13.556   8.674  14.836
64905SOL     OW96546   8.453   1.556  10.680
64905SOL    HW196547   8.528   1.598  10.637
64905SOL    HW296548   8.405   1.629  10.720
64906SOL     OW96549   6.557   9.969  12.805
64906SOL    HW196550   6.630   9.936  12.752
64906SOL    HW296551   6.568  10.064  12.804
64907SOL     OW96552   6.471   7.703   2.516
64907SOL    HW196553   6.504   7.633   2.571
64907SOL    HW296554   6.376   7.690   2.514
64908SOL     OW96555   2.703  13.547  11.027
64908SOL    HW196556   2.678  13.633  11.059
64908SOL    HW296557   2.621  13.506  11.000
64909SOL     OW96558   8.600  10.187   0.114
64909SOL    HW196559   8.665  10.222   0.174
64909SOL    HW296560   8.516  10.218   0.148
64910SOL     OW96561  14.554   0.631  12.258
64910SOL    HW196562  14.621   0.563  12.260
64910SOL    HW296563  14.521   0.635  12.348
64911SOL     OW96564   0.636   7.106   3.989
64911SOL    HW196565   0.694   7.038   4.025
64911SOL    HW296566   0.661   7.112   3.897
64912SOL     OW96567   9.350   2.781   2.221
64912SOL    HW196568   9.401   2.760   2.299
64912SOL    HW296569   9.404   2.752   2.148
64913SOL     OW96570   5.844   0.271  14.730
64913SOL    HW196571   5.917   0.210  14.728
64913SOL    HW296572   5.835   0.296  14.822
64914SOL     OW96573  14.470   3.108   7.839
64914SOL    HW196574  14.481   3.037   7.903
64914SOL    HW296575  14.385   3.090   7.799
64915SOL     OW96576   4.427   1.307   3.880
64915SOL    HW196577   4.437   1.216   3.854
64915SOL    HW296578   4.452   1.308   3.973
64916SOL     OW96579   6.654  11.255  12.451
64916SOL    HW196580   6.579  11.198  12.432
64916SOL    HW296581   6.633  11.293  12.536
64917SOL     OW96582   0.694   9.754   3.554
64917SOL    HW196583   0.683   9.793   3.468
64917SOL    HW296584   0.625   9.687   3.560
64918SOL     OW96585   4.012   3.545   7.324
64918SOL    HW196586   3.945   3.537   7.256
64918SOL    HW296587   4.092   3.565   7.276
64919SOL     OW96588   8.489  12.677   3.683
64919SOL    HW196589   8.497  12.610   3.615
64919SOL    HW296590   8.561  12.660   3.743
64920SOL     OW96591   9.148   3.497   0.501
64920SOL    HW196592   9.157   3.404   0.479
64920SOL    HW296593   9.121   3.539   0.418
64921SOL     OW96594   1.996  14.155   8.236
64921SOL    HW196595   2.006  14.200   8.152
64921SOL    HW296596   1.907  14.178   8.265
64922SOL     OW96597   3.602   0.889  12.428
64922SOL    HW196598   3.639   0.810  12.467
64922SOL    HW296599   3.620   0.880  12.334
64923SOL     OW96600   0.358   8.897   5.263
64923SOL    HW196601   0.401   8.979   5.285
64923SOL    HW296602   0.345   8.853   5.347
64924SOL     OW96603   1.245   9.489  13.873
64924SOL    HW196604   1.210   9.475  13.961
64924SOL    HW296605   1.229   9.582  13.855
64925SOL     OW96606  13.854  13.192  13.250
64925SOL    HW196607  13.841  13.220  13.160
64925SOL    HW296608  13.822  13.102  13.253
64926SOL     OW96609   8.475  14.683   5.515
64926SOL    HW196610   8.493  14.756   5.456
64926SOL    HW296611   8.559  14.638   5.523
64927SOL     OW96612  10.795  13.631   4.840
64927SOL    HW196613  10.851  13.698   4.881
64927SOL    HW296614  10.850  13.553   4.837
64928SOL     OW96615   1.941  13.228   2.661
64928SOL    HW196616   1.876  13.265   2.602
64928SOL    HW296617   1.890  13.176   2.724
64929SOL     OW96618   2.133   5.070   7.998
64929SOL    HW196619   2.190   5.088   8.073
64929SOL    HW296620   2.192   5.048   7.927
64930SOL     OW96621   6.955  10.077  12.805
64930SOL    HW196622   6.900  10.012  12.762
64930SOL    HW296623   7.044  10.047  12.790
64931SOL     OW96624   8.329  10.870   1.378
64931SOL    HW196625   8.313  10.950   1.426
64931SOL    HW296626   8.308  10.800   1.440
64932SOL     OW96627  10.387   7.106  11.229
64932SOL    HW196628  10.479   7.081  11.233
64932SOL    HW296629  10.380   7.181  11.288
64933SOL     OW96630   1.868  11.554   7.198
64933SOL    HW196631   1.956  11.576   7.167
64933SOL    HW296632   1.817  11.543   7.118
64934SOL     OW96633  10.585   0.393   4.950
64934SOL    HW196634  10.524   0.466   4.941
64934SOL    HW296635  10.532   0.315   4.932
64935SOL     OW96636  13.353   2.320   3.268
64935SOL    HW196637  13.426   2.339   3.326
64935SOL    HW296638  13.391   2.317   3.181
64936SOL     OW96639   6.629   6.313   3.348
64936SOL    HW196640   6.551   6.354   3.312
64936SOL    HW296641   6.641   6.234   3.294
64937SOL     OW96642   4.258   9.211   8.248
64937SOL    HW196643   4.187   9.147   8.242
64937SOL    HW296644   4.242   9.256   8.331
64938SOL     OW96645   6.338  13.094   1.750
64938SOL    HW196646   6.300  13.019   1.795
64938SOL    HW296647   6.386  13.056   1.676
64939SOL     OW96648  12.315   5.203   3.611
64939SOL    HW196649  12.268   5.199   3.694
64939SOL    HW296650  12.280   5.129   3.561
64940SOL     OW96651   7.320   1.783   4.325
64940SOL    HW196652   7.370   1.864   4.309
64940SOL    HW296653   7.378   1.730   4.380
64941SOL     OW96654   2.278   5.868   2.621
64941SOL    HW196655   2.193   5.877   2.664
64941SOL    HW296656   2.269   5.913   2.538
64942SOL     OW96657   2.687   0.689   3.697
64942SOL    HW196658   2.752   0.715   3.632
64942SOL    HW296659   2.717   0.603   3.728
64943SOL     OW96660  13.309   2.010  12.305
64943SOL    HW196661  13.225   2.010  12.350
64943SOL    HW296662  13.329   2.103  12.291
64944SOL     OW96663   1.370  14.637   1.146
64944SOL    HW196664   1.412  14.558   1.112
64944SOL    HW296665   1.324  14.608   1.225
64945SOL     OW96666   2.628  11.653  10.854
64945SOL    HW196667   2.541  11.619  10.873
64945SOL    HW296668   2.656  11.696  10.935
64946SOL     OW96669   4.024  11.130   7.484
64946SOL    HW196670   4.011  11.035   7.488
64946SOL    HW296671   4.040  11.155   7.575
64947SOL     OW96672   1.557   0.364   0.748
64947SOL    HW196673   1.574   0.296   0.683
64947SOL    HW296674   1.506   0.320   0.816
64948SOL     OW96675   3.643   3.687  11.004
64948SOL    HW196676   3.664   3.725  10.918
64948SOL    HW296677   3.585   3.752  11.044
64949SOL     OW96678   5.257   0.891   5.931
64949SOL    HW196679   5.163   0.885   5.950
64949SOL    HW296680   5.297   0.821   5.982
64950SOL     OW96681  13.375   6.942   4.848
64950SOL    HW196682  13.343   6.898   4.927
64950SOL    HW296683  13.306   7.003   4.824
64951SOL     OW96684   4.564  10.129  12.562
64951SOL    HW196685   4.529  10.060  12.618
64951SOL    HW296686   4.659  10.123  12.573
64952SOL     OW96687   9.443  11.077  14.761
64952SOL    HW196688   9.428  11.158  14.811
64952SOL    HW296689   9.357  11.035  14.758
64953SOL     OW96690   5.028  12.302   7.702
64953SOL    HW196691   5.101  12.338   7.752
64953SOL    HW296692   5.059  12.216   7.674
64954SOL     OW96693   8.139   4.396  13.080
64954SOL    HW196694   8.077   4.468  13.085
64954SOL    HW296695   8.225   4.437  13.091
64955SOL     OW96696   3.387   4.861   0.579
64955SOL    HW196697   3.354   4.946   0.549
64955SOL    HW296698   3.403   4.873   0.672
64956SOL     OW96699   2.843   5.479   0.052
64956SOL    HW196700   2.883   5.537   0.117
64956SOL    HW296701   2.829   5.397   0.099
64957SOL     OW96702  14.063   8.386   2.439
64957SOL    HW196703  14.134   8.332   2.475
64957SOL    HW296704  14.077   8.472   2.478
64958SOL     OW96705   5.417  11.349  11.403
64958SOL    HW196706   5.398  11.369  11.495
64958SOL    HW296707   5.365  11.271  11.384
64959SOL     OW96708  14.167   8.821   8.904
64959SOL    HW196709  14.090   8.778   8.866
64959SOL    HW296710  14.157   8.809   8.999
64960SOL     OW96711   6.261  10.703  13.715
64960SOL    HW196712   6.259  10.638  13.785
64960SOL    HW296713   6.334  10.675  13.659
64961SOL     OW96714  14.801  11.607   8.215
64961SOL    HW196715  14.787  11.530   8.159
64961SOL    HW296716  14.741  11.594   8.288
64962SOL     OW96717  13.069   6.535  11.513
64962SOL    HW196718  13.091   6.618  11.470
64962SOL    HW296719  12.976   6.521  11.492
64963SOL     OW96720   5.663   9.762   7.226
64963SOL    HW196721   5.586   9.774   7.170
64963SOL    HW296722   5.649   9.679   7.270
64964SOL     OW96723   4.143   6.636   5.084
64964SOL    HW196724   4.148   6.562   5.145
64964SOL    HW296725   4.114   6.597   5.002
64965SOL     OW96726   6.040   9.487   7.227
64965SOL    HW196727   5.950   9.474   7.195
64965SOL    HW296728   6.034   9.561   7.286
64966SOL     OW96729   7.678   9.973  13.506
64966SOL    HW196730   7.671  10.017  13.421
64966SOL    HW296731   7.630  10.030  13.566
64967SOL     OW96732   8.653  12.297   1.435
64967SOL    HW196733   8.714  12.260   1.372
64967SOL    HW296734   8.680  12.389   1.443
64968SOL     OW96735   9.186  12.211   4.090
64968SOL    HW196736   9.155  12.138   4.144
64968SOL    HW296737   9.242  12.170   4.024
64969SOL     OW96738  10.819   5.393   5.593
64969SOL    HW196739  10.871   5.457   5.544
64969SOL    HW296740  10.743   5.443   5.625
64970SOL     OW96741   9.919   0.667   5.031
64970SOL    HW196742  10.004   0.661   4.988
64970SOL    HW296743   9.860   0.700   4.963
64971SOL     OW96744  10.967   8.287  12.279
64971SOL    HW196745  11.006   8.347  12.216
64971SOL    HW296746  10.883   8.326  12.302
64972SOL     OW96747   1.584  14.499   5.792
64972SOL    HW196748   1.584  14.411   5.754
64972SOL    HW296749   1.565  14.485   5.885
64973SOL     OW96750   8.409  10.051   3.838
64973SOL    HW196751   8.358   9.984   3.883
64973SOL    HW296752   8.448  10.006   3.763
64974SOL     OW96753  14.189   4.847   6.555
64974SOL    HW196754  14.249   4.879   6.488
64974SOL    HW296755  14.245   4.814   6.624
64975SOL     OW96756   0.312   5.834   8.427
64975SOL    HW196757   0.372   5.909   8.426
64975SOL    HW296758   0.240   5.860   8.370
64976SOL     OW96759   9.250   1.505   6.014
64976SOL    HW196760   9.262   1.600   6.020
64976SOL    HW296761   9.234   1.489   5.921
64977SOL     OW96762   7.467   9.653  12.963
64977SOL    HW196763   7.372   9.654  12.950
64977SOL    HW296764   7.478   9.669  13.057
64978SOL     OW96765   1.230  10.132   8.080
64978SOL    HW196766   1.309  10.115   8.029
64978SOL    HW296767   1.232  10.226   8.096
64979SOL     OW96768   2.377  13.034   6.561
64979SOL    HW196769   2.367  13.130   6.556
64979SOL    HW296770   2.299  13.005   6.608
64980SOL     OW96771  11.434   7.176  14.124
64980SOL    HW196772  11.360   7.117  14.109
64980SOL    HW296773  11.416   7.217  14.208
64981SOL     OW96774   9.981   5.614   7.036
64981SOL    HW196775  10.026   5.679   7.090
64981SOL    HW296776  10.043   5.542   7.028
64982SOL     OW96777   7.831   1.237   5.663
64982SOL    HW196778   7.821   1.142   5.665
64982SOL    HW296779   7.778   1.269   5.736
64983SOL     OW96780   0.353  13.060   8.846
64983SOL    HW196781   0.386  13.111   8.919
64983SOL    HW296782   0.257  13.065   8.854
64984SOL     OW96783   1.836   6.293   8.969
64984SOL    HW196784   1.831   6.221   8.906
64984SOL    HW296785   1.796   6.259   9.048
64985SOL     OW96786   1.988  14.558   4.059
64985SOL    HW196787   1.957  14.616   3.989
64985SOL    HW296788   1.920  14.491   4.066
64986SOL     OW96789  14.528   3.379   5.899
64986SOL    HW196790  14.457   3.323   5.868
64986SOL    HW296791  14.536   3.358   5.992
64987SOL     OW96792   1.458   4.590  14.205
64987SOL    HW196793   1.542   4.620  14.240
64987SOL    HW296794   1.432   4.660  14.144
64988SOL     OW96795  11.615   0.941  11.566
64988SOL    HW196796  11.614   1.028  11.526
64988SOL    HW296797  11.681   0.946  11.635
64989SOL     OW96798  14.527   6.072   7.955
64989SOL    HW196799  14.484   6.155   7.974
64989SOL    HW296800  14.617   6.084   7.986
64990SOL     OW96801   2.253  10.803  11.832
64990SOL    HW196802   2.175  10.775  11.784
64990SOL    HW296803   2.227  10.885  11.875
64991SOL     OW96804   8.175   2.942  12.844
64991SOL    HW196805   8.236   2.945  12.771
64991SOL    HW296806   8.106   3.005  12.821
64992SOL     OW96807  10.463   2.428   9.657
64992SOL    HW196808  10.430   2.346   9.620
64992SOL    HW296809  10.392   2.461   9.711
64993SOL     OW96810   8.627   5.147   0.332
64993SOL    HW196811   8.660   5.064   0.299
64993SOL    HW296812   8.560   5.174   0.270
64994SOL     OW96813  13.739  12.578  10.593
64994SOL    HW196814  13.749  12.483  10.590
64994SOL    HW296815  13.724  12.603  10.502
64995SOL     OW96816   0.126  13.031  14.469
64995SOL    HW196817   0.207  13.081  14.482
64995SOL    HW296818   0.094  13.016  14.558
64996SOL     OW96819   7.226  13.143  11.617
64996SOL    HW196820   7.219  13.050  11.597
64996SOL    HW296821   7.161  13.185  11.560
64997SOL     OW96822   1.374  14.475   0.710
64997SOL    HW196823   1.288  14.502   0.676
64997SOL    HW296824   1.397  14.543   0.774
64998SOL     OW96825  11.670   7.243   3.623
64998SOL    HW196826  11.743   7.231   3.562
64998SOL    HW296827  11.670   7.337   3.641
64999SOL     OW96828   0.936  11.252   0.637
64999SOL    HW196829   0.976  11.173   0.599
64999SOL    HW296830   0.849  11.224   0.664
65000SOL     OW96831  14.768   2.777   3.942
65000SOL    HW196832  14.723   2.713   3.887
65000SOL    HW296833  14.816   2.724   4.006
65001SOL     OW96834   7.816  12.880  14.545
65001SOL    HW196835   7.772  12.957  14.510
65001SOL    HW296836   7.874  12.915  14.614
65002SOL     OW96837  13.607   4.816   2.138
65002SOL    HW196838  13.633   4.762   2.064
65002SOL    HW296839  13.515   4.797   2.151
65003SOL     OW96840   6.549  14.749   8.266
65003SOL    HW196841   6.495  14.677   8.232
65003SOL    HW296842   6.543  14.741   8.361
65004SOL     OW96843   3.649  12.877  13.021
65004SOL    HW196844   3.634  12.889  13.115
65004SOL    HW296845   3.600  12.797  12.999
65005SOL     OW96846  11.964  13.977   9.507
65005SOL    HW196847  11.977  14.070   9.524
65005SOL    HW296848  11.906  13.974   9.430
65006SOL     OW96849   5.501  12.402   7.882
65006SOL    HW196850   5.413  12.418   7.846
65006SOL    HW296851   5.490  12.407   7.977
65007SOL     OW96852   2.905   5.115   4.667
65007SOL    HW196853   2.829   5.145   4.716
65007SOL    HW296854   2.869   5.056   4.600
65008SOL     OW96855   4.585   8.337   0.819
65008SOL    HW196856   4.647   8.362   0.888
65008SOL    HW296857   4.539   8.418   0.798
65009SOL     OW96858   6.254   7.631  11.175
65009SOL    HW196859   6.240   7.574  11.100
65009SOL    HW296860   6.167   7.664  11.197
65010SOL     OW96861  11.308   4.090   1.138
65010SOL    HW196862  11.346   4.094   1.226
65010SOL    HW296863  11.310   4.180   1.106
65011SOL     OW96864  10.831   4.830   1.144
65011SOL    HW196865  10.890   4.882   1.198
65011SOL    HW296866  10.821   4.747   1.191
65012SOL     OW96867   1.418   9.761   7.614
65012SOL    HW196868   1.327   9.774   7.586
65012SOL    HW296869   1.411   9.720   7.700
65013SOL     OW96870   7.634   3.313   1.435
65013SOL    HW196871   7.553   3.336   1.390
65013SOL    HW296872   7.657   3.226   1.402
65014SOL     OW96873   0.270   3.344   7.819
65014SOL    HW196874   0.180   3.314   7.835
65014SOL    HW296875   0.302   3.286   7.750
65015SOL     OW96876  12.882   4.664   0.331
65015SOL    HW196877  12.968   4.671   0.289
65015SOL    HW296878  12.870   4.569   0.344
65016SOL     OW96879  11.421  10.846  12.597
65016SOL    HW196880  11.354  10.885  12.541
65016SOL    HW296881  11.466  10.783  12.541
65017SOL     OW96882   9.645   3.742   1.850
65017SOL    HW196883   9.739   3.728   1.845
65017SOL    HW296884   9.618   3.699   1.930
65018SOL     OW96885   7.961  10.774   8.819
65018SOL    HW196886   8.046  10.797   8.781
65018SOL    HW296887   7.951  10.681   8.799
65019SOL     OW96888  10.517  10.430  12.699
65019SOL    HW196889  10.451  10.480  12.747
65019SOL    HW296890  10.600  10.461  12.735
65020SOL     OW96891  11.250  12.382   8.283
65020SOL    HW196892  11.159  12.362   8.306
65020SOL    HW296893  11.302  12.322   8.335
65021SOL     OW96894   7.592  10.971   5.538
65021SOL    HW196895   7.619  10.894   5.489
65021SOL    HW296896   7.593  10.943   5.630
65022SOL     OW96897  10.545  14.488   0.164
65022SOL    HW196898  10.638  14.466   0.177
65022SOL    HW296899  10.505  14.475   0.249
65023SOL     OW96900   5.194   9.402   6.025
65023SOL    HW196901   5.114   9.447   6.054
65023SOL    HW296902   5.203   9.328   6.085
65024SOL     OW96903   8.087   6.504   3.672
65024SOL    HW196904   8.098   6.579   3.730
65024SOL    HW296905   8.084   6.428   3.731
65025SOL     OW96906   3.551   0.029  13.027
65025SOL    HW196907   3.590   0.109  12.991
65025SOL    HW296908   3.465   0.024  12.986
65026SOL     OW96909   5.019   0.899   1.839
65026SOL    HW196910   4.981   0.979   1.804
65026SOL    HW296911   4.956   0.869   1.905
65027SOL     OW96912   5.942  10.258  13.050
65027SOL    HW196913   5.883  10.328  13.023
65027SOL    HW296914   5.889  10.204  13.109
65028SOL     OW96915   6.259   3.123   2.246
65028SOL    HW196916   6.301   3.204   2.275
65028SOL    HW296917   6.233   3.079   2.326
65029SOL     OW96918   3.439  13.553   4.411
65029SOL    HW196919   3.441  13.458   4.400
65029SOL    HW296920   3.375  13.583   4.346
65030SOL     OW96921  14.312   7.560   3.434
65030SOL    HW196922  14.356   7.644   3.445
65030SOL    HW296923  14.343   7.528   3.349
65031SOL     OW96924  12.854   8.291   5.522
65031SOL    HW196925  12.939   8.337   5.518
65031SOL    HW296926  12.877   8.199   5.519
65032SOL     OW96927  13.446  12.412   5.528
65032SOL    HW196928  13.518  12.401   5.590
65032SOL    HW296929  13.367  12.406   5.581
65033SOL     OW96930   5.487   5.091   4.379
65033SOL    HW196931   5.504   5.004   4.342
65033SOL    HW296932   5.566   5.113   4.428
65034SOL     OW96933   4.144   5.746  12.318
65034SOL    HW196934   4.103   5.711  12.239
65034SOL    HW296935   4.207   5.810  12.286
65035SOL     OW96936   5.871  10.513  13.958
65035SOL    HW196937   5.853  10.606  13.970
65035SOL    HW296938   5.966  10.507  13.957
65036SOL     OW96939  12.694   6.182   0.970
65036SOL    HW196940  12.631   6.215   0.905
65036SOL    HW296941  12.640   6.133   1.032
65037SOL     OW96942   0.120   1.531   2.825
65037SOL    HW196943   0.170   1.488   2.894
65037SOL    HW296944   0.187   1.558   2.761
65038SOL     OW96945   2.305  12.633   5.207
65038SOL    HW196946   2.320  12.639   5.113
65038SOL    HW296947   2.231  12.574   5.217
65039SOL     OW96948  13.930  11.430   6.948
65039SOL    HW196949  14.021  11.457   6.963
65039SOL    HW296950  13.930  11.399   6.857
65040SOL     OW96951  12.938   0.453   9.502
65040SOL    HW196952  12.940   0.358   9.491
65040SOL    HW296953  12.974   0.469   9.589
65041SOL     OW96954   0.587   0.604   0.654
65041SOL    HW196955   0.503   0.646   0.640
65041SOL    HW296956   0.651   0.674   0.644
65042SOL     OW96957   7.135   4.691   4.526
65042SOL    HW196958   7.087   4.619   4.486
65042SOL    HW296959   7.105   4.770   4.480
65043SOL     OW96960   5.421   9.098  13.140
65043SOL    HW196961   5.430   9.185  13.101
65043SOL    HW296962   5.466   9.104  13.224
65044SOL     OW96963  11.496   0.093   9.198
65044SOL    HW196964  11.451   0.031   9.255
65044SOL    HW296965  11.437   0.168   9.194
65045SOL     OW96966   9.789   1.279  13.932
65045SOL    HW196967   9.854   1.313  13.871
65045SOL    HW296968   9.825   1.196  13.962
65046SOL     OW96969   5.124   7.800  10.650
65046SOL    HW196970   5.155   7.815  10.561
65046SOL    HW296971   5.199   7.761  10.695
65047SOL     OW96972   3.082  11.381   6.414
65047SOL    HW196973   3.000  11.431   6.411
65047SOL    HW296974   3.071  11.313   6.348
65048SOL     OW96975   6.579   3.276  12.521
65048SOL    HW196976   6.647   3.311  12.578
65048SOL    HW296977   6.561   3.189  12.556
65049SOL     OW96978   5.025   3.310   4.019
65049SOL    HW196979   4.945   3.305   4.071
65049SOL    HW296980   5.095   3.319   4.084
65050SOL     OW96981   1.085   3.754   8.313
65050SOL    HW196982   1.025   3.710   8.373
65050SOL    HW296983   1.055   3.844   8.309
65051SOL     OW96984  13.688   2.551  11.305
65051SOL    HW196985  13.680   2.580  11.396
65051SOL    HW296986  13.744   2.617  11.264
65052SOL     OW96987   6.515   7.525   6.243
65052SOL    HW196988   6.440   7.491   6.292
65052SOL    HW296989   6.581   7.544   6.309
65053SOL     OW96990   1.979  10.661   3.513
65053SOL    HW196991   1.909  10.726   3.499
65053SOL    HW296992   2.023  10.692   3.592
65054SOL     OW96993  12.984   5.062   6.439
65054SOL    HW196994  13.040   5.137   6.459
65054SOL    HW296995  12.904   5.102   6.404
65055SOL     OW96996   7.553  14.026   7.158
65055SOL    HW196997   7.554  13.989   7.070
65055SOL    HW296998   7.491  14.099   7.153
65056SOL     OW96999  14.842   3.509   8.552
65056SOL    HW197000  14.791   3.584   8.584
65056SOL    HW297001  14.805   3.434   8.599
65057SOL     OW97002   3.279   4.840  11.099
65057SOL    HW197003   3.310   4.909  11.040
65057SOL    HW297004   3.183   4.843  11.090
65058SOL     OW97005   9.090   6.672   1.385
65058SOL    HW197006   9.029   6.694   1.456
65058SOL    HW297007   9.093   6.577   1.384
65059SOL     OW97008   3.737   5.286  12.261
65059SOL    HW197009   3.674   5.320  12.198
65059SOL    HW297010   3.772   5.207  12.220
65060SOL     OW97011   4.304   1.274   7.557
65060SOL    HW197012   4.218   1.242   7.583
65060SOL    HW297013   4.363   1.200   7.575
65061SOL     OW97014  10.684   2.891   3.079
65061SOL    HW197015  10.673   2.827   3.008
65061SOL    HW297016  10.665   2.842   3.159
65062SOL     OW97017   9.076   0.801  14.859
65062SOL    HW197018   9.094   0.732  14.795
65062SOL    HW297019   9.153   0.800   0.044
65063SOL     OW97020   2.129   0.042  12.072
65063SOL    HW197021   2.051  14.862  12.057
65063SOL    HW297022   2.115   0.123  12.022
65064SOL     OW97023   3.068   7.644   7.034
65064SOL    HW197024   3.079   7.707   6.963
65064SOL    HW297025   3.122   7.678   7.105
65065SOL     OW97026   5.035   8.898  10.049
65065SOL    HW197027   4.947   8.863  10.038
65065SOL    HW297028   5.086   8.826  10.086
65066SOL     OW97029  11.215  10.571   9.610
65066SOL    HW197030  11.230  10.658   9.646
65066SOL    HW297031  11.152  10.530   9.670
65067SOL     OW97032   5.921  11.155   5.135
65067SOL    HW197033   5.883  11.142   5.048
65067SOL    HW297034   5.919  11.250   5.148
65068SOL     OW97035   0.798   3.383   0.846
65068SOL    HW197036   0.760   3.300   0.873
65068SOL    HW297037   0.838   3.365   0.761
65069SOL     OW97038   3.396  13.135  11.344
65069SOL    HW197039   3.420  13.124  11.252
65069SOL    HW297040   3.369  13.227  11.351
65070SOL     OW97041   9.304   8.716  12.696
65070SOL    HW197042   9.336   8.715  12.786
65070SOL    HW297043   9.220   8.671  12.699
65071SOL     OW97044   0.904   7.728   9.035
65071SOL    HW197045   0.890   7.757   9.125
65071SOL    HW297046   0.816   7.707   9.002
65072SOL     OW97047   3.757   9.525   5.045
65072SOL    HW197048   3.702   9.463   4.997
65072SOL    HW297049   3.837   9.477   5.063
65073SOL     OW97050   8.714   2.821   6.769
65073SOL    HW197051   8.625   2.804   6.801
65073SOL    HW297052   8.709   2.803   6.675
65074SOL     OW97053  14.188   3.320   4.001
65074SOL    HW197054  14.158   3.359   3.918
65074SOL    HW297055  14.116   3.337   4.062
65075SOL     OW97056   3.898   4.623  12.766
65075SOL    HW197057   3.876   4.707  12.726
65075SOL    HW297058   3.991   4.611  12.748
65076SOL     OW97059  14.190   0.671  11.164
65076SOL    HW197060  14.264   0.610  11.170
65076SOL    HW297061  14.229   0.758  11.175
65077SOL     OW97062   3.071  14.532   4.565
65077SOL    HW197063   3.077  14.476   4.488
65077SOL    HW297064   3.148  14.509   4.617
65078SOL     OW97065   7.924   3.900   4.139
65078SOL    HW197066   7.888   3.844   4.207
65078SOL    HW297067   7.942   3.983   4.183
65079SOL     OW97068   3.142   4.479   5.294
65079SOL    HW197069   3.113   4.426   5.220
65079SOL    HW297070   3.111   4.567   5.273
65080SOL     OW97071  13.348   7.711  11.755
65080SOL    HW197072  13.331   7.630  11.803
65080SOL    HW297073  13.416   7.756  11.805
65081SOL     OW97074   7.089   4.753   4.184
65081SOL    HW197075   7.165   4.715   4.226
65081SOL    HW297076   7.031   4.777   4.256
65082SOL     OW97077  11.639   1.504   9.426
65082SOL    HW197078  11.661   1.574   9.364
65082SOL    HW297079  11.619   1.551   9.508
65083SOL     OW97080   9.879   4.945  12.711
65083SOL    HW197081   9.884   4.902  12.626
65083SOL    HW297082   9.968   4.940  12.746
65084SOL     OW97083  14.018   9.614   4.912
65084SOL    HW197084  13.978   9.692   4.873
65084SOL    HW297085  13.989   9.541   4.857
65085SOL     OW97086   7.720   9.565   0.739
65085SOL    HW197087   7.672   9.488   0.770
65085SOL    HW297088   7.768   9.534   0.662
65086SOL     OW97089  12.380   3.683   4.830
65086SOL    HW197090  12.293   3.724   4.836
65086SOL    HW297091  12.407   3.698   4.739
65087SOL     OW97092  10.054  12.607  13.405
65087SOL    HW197093  10.091  12.523  13.377
65087SOL    HW297094  10.071  12.666  13.332
65088SOL     OW97095  12.326  10.775  11.039
65088SOL    HW197096  12.368  10.766  11.124
65088SOL    HW297097  12.235  10.798  11.059
65089SOL     OW97098   8.753   4.325  10.744
65089SOL    HW197099   8.828   4.297  10.691
65089SOL    HW297100   8.787   4.395  10.799
65090SOL     OW97101   7.431   3.390  12.025
65090SOL    HW197102   7.481   3.461  12.066
65090SOL    HW297103   7.394   3.341  12.099
65091SOL     OW97104  10.780   2.098  11.671
65091SOL    HW197105  10.774   2.146  11.754
65091SOL    HW297106  10.841   2.027  11.690
65092SOL     OW97107   0.782  14.127  11.085
65092SOL    HW197108   0.873  14.098  11.073
65092SOL    HW297109   0.777  14.211  11.040
65093SOL     OW97110  14.471  13.683   7.745
65093SOL    HW197111  14.426  13.706   7.826
65093SOL    HW297112  14.429  13.738   7.678
65094SOL     OW97113  14.462   3.046  13.738
65094SOL    HW197114  14.480   3.000  13.819
65094SOL    HW297115  14.373   3.018  13.714
65095SOL     OW97116   6.864  12.243  13.437
65095SOL    HW197117   6.856  12.175  13.370
65095SOL    HW297118   6.958  12.247  13.456
65096SOL     OW97119   8.740   2.574   3.822
65096SOL    HW197120   8.722   2.506   3.887
65096SOL    HW297121   8.766   2.526   3.743
65097SOL     OW97122  11.493   5.399   8.480
65097SOL    HW197123  11.581   5.393   8.443
65097SOL    HW297124  11.473   5.311   8.509
65098SOL     OW97125   4.976   9.687   9.379
65098SOL    HW197126   4.936   9.705   9.294
65098SOL    HW297127   5.038   9.616   9.362
65099SOL     OW97128   5.964   4.768  12.817
65099SOL    HW197129   5.891   4.819  12.781
65099SOL    HW297130   5.996   4.717  12.742
65100SOL     OW97131   9.213   1.454  12.892
65100SOL    HW197132   9.216   1.488  12.803
65100SOL    HW297133   9.304   1.459  12.923
65101SOL     OW97134  14.170  12.801  14.266
65101SOL    HW197135  14.264  12.782  14.267
65101SOL    HW297136  14.128  12.716  14.275
65102SOL     OW97137   5.507   3.847   2.165
65102SOL    HW197138   5.517   3.931   2.211
65102SOL    HW297139   5.424   3.854   2.119
65103SOL     OW97140   3.619   0.523   7.595
65103SOL    HW197141   3.654   0.520   7.684
65103SOL    HW297142   3.570   0.605   7.591
65104SOL     OW97143  11.189   2.991   8.404
65104SOL    HW197144  11.138   3.001   8.323
65104SOL    HW297145  11.163   3.065   8.458
65105SOL     OW97146  14.127  12.253   6.440
65105SOL    HW197147  14.179  12.173   6.442
65105SOL    HW297148  14.169  12.308   6.373
65106SOL     OW97149  11.849   5.067   7.900
65106SOL    HW197150  11.767   5.018   7.906
65106SOL    HW297151  11.824   5.152   7.865
65107SOL     OW97152   7.436   6.025   8.562
65107SOL    HW197153   7.350   6.006   8.525
65107SOL    HW297154   7.425   6.009   8.656
65108SOL     OW97155   9.196  12.602  10.978
65108SOL    HW197156   9.244  12.685  10.981
65108SOL    HW297157   9.234  12.556  10.903
65109SOL     OW97158   2.715  10.510   2.959
65109SOL    HW197159   2.636  10.552   2.995
65109SOL    HW297160   2.784  10.574   2.972
65110SOL     OW97161   8.726  12.700   9.035
65110SOL    HW197162   8.795  12.677   9.096
65110SOL    HW297163   8.659  12.633   9.047
65111SOL     OW97164   6.449   1.817  14.353
65111SOL    HW197165   6.528   1.764  14.349
65111SOL    HW297166   6.460   1.882  14.284
65112SOL     OW97167   6.126  12.999  12.447
65112SOL    HW197168   6.203  13.035  12.490
65112SOL    HW297169   6.157  12.917  12.407
65113SOL     OW97170   2.123  14.639   2.317
65113SOL    HW197171   2.162  14.727   2.315
65113SOL    HW297172   2.093  14.629   2.407
65114SOL     OW97173   2.809  11.607  12.186
65114SOL    HW197174   2.902  11.605  12.209
65114SOL    HW297175   2.803  11.671  12.115
65115SOL     OW97176   0.437   4.923  14.366
65115SOL    HW197177   0.493   4.850  14.341
65115SOL    HW297178   0.405   4.900  14.453
65116SOL     OW97179   7.508   4.286   7.925
65116SOL    HW197180   7.427   4.335   7.939
65116SOL    HW297181   7.577   4.344   7.957
65117SOL     OW97182   2.885   0.963   3.916
65117SOL    HW197183   2.806   1.017   3.925
65117SOL    HW297184   2.910   0.974   3.824
65118SOL     OW97185   7.762   2.152  13.965
65118SOL    HW197186   7.814   2.221  13.923
65118SOL    HW297187   7.822   2.111  14.027
65119SOL     OW97188   9.719   6.783   9.565
65119SOL    HW197189   9.753   6.801   9.653
65119SOL    HW297190   9.795   6.749   9.516
65120SOL     OW97191   2.895   4.288  11.098
65120SOL    HW197192   2.875   4.209  11.149
65120SOL    HW297193   2.977   4.321  11.137
65121SOL     OW97194   2.643   3.747   3.970
65121SOL    HW197195   2.583   3.802   3.919
65121SOL    HW297196   2.728   3.762   3.929
65122SOL     OW97197   5.354   5.020   7.025
65122SOL    HW197198   5.295   4.963   7.074
65122SOL    HW297199   5.397   5.073   7.092
65123SOL     OW97200  10.907   1.463   0.455
65123SOL    HW197201  10.909   1.378   0.411
65123SOL    HW297202  10.827   1.460   0.508
65124SOL     OW97203   7.303  13.105   5.870
65124SOL    HW197204   7.360  13.178   5.893
65124SOL    HW297205   7.362  13.037   5.837
65125SOL     OW97206  10.008   6.112  13.492
65125SOL    HW197207   9.953   6.076  13.562
65125SOL    HW297208   9.947   6.159  13.435
65126SOL     OW97209   0.570  13.580   7.518
65126SOL    HW197210   0.587  13.487   7.508
65126SOL    HW297211   0.593  13.618   7.433
65127SOL     OW97212  11.706   8.507   6.577
65127SOL    HW197213  11.760   8.536   6.650
65127SOL    HW297214  11.681   8.417   6.600
65128SOL     OW97215   6.076   5.524   9.450
65128SOL    HW197216   6.119   5.440   9.465
65128SOL    HW297217   6.025   5.511   9.369
65129SOL     OW97218  10.188   4.446   3.227
65129SOL    HW197219  10.131   4.392   3.173
65129SOL    HW297220  10.268   4.393   3.237
65130SOL     OW97221   8.761   7.067  10.104
65130SOL    HW197222   8.699   7.124  10.149
65130SOL    HW297223   8.847   7.102  10.126
65131SOL     OW97224  12.336   1.076   0.791
65131SOL    HW197225  12.404   1.142   0.777
65131SOL    HW297226  12.345   1.016   0.718
65132SOL     OW97227   6.890   2.321   9.947
65132SOL    HW197228   6.973   2.290   9.983
65132SOL    HW297229   6.868   2.397  10.000
65133SOL     OW97230  13.020  10.636   9.721
65133SOL    HW197231  12.996  10.698   9.790
65133SOL    HW297232  12.942  10.630   9.666
65134SOL     OW97233  13.829  10.118  12.066
65134SOL    HW197234  13.841  10.027  12.093
65134SOL    HW297235  13.806  10.164  12.147
65135SOL     OW97236  13.679   6.555   1.174
65135SOL    HW197237  13.660   6.499   1.099
65135SOL    HW297238  13.699   6.494   1.245
65136SOL     OW97239   1.884   2.617  11.930
65136SOL    HW197240   1.855   2.708  11.925
65136SOL    HW297241   1.804   2.566  11.920
65137SOL     OW97242   0.701   5.740   3.071
65137SOL    HW197243   0.793   5.738   3.045
65137SOL    HW297244   0.701   5.780   3.158
65138SOL     OW97245  13.336   7.994  14.573
65138SOL    HW197246  13.405   7.977  14.637
65138SOL    HW297247  13.266   8.035  14.624
65139SOL     OW97248   3.557   1.199   9.422
65139SOL    HW197249   3.620   1.202   9.493
65139SOL    HW297250   3.596   1.254   9.353
65140SOL     OW97251  10.256  13.198   2.660
65140SOL    HW197252  10.341  13.154   2.661
65140SOL    HW297253  10.207  13.158   2.731
65141SOL     OW97254   2.121   8.861   3.311
65141SOL    HW197255   2.032   8.894   3.301
65141SOL    HW297256   2.165   8.885   3.230
65142SOL     OW97257   0.955   6.285   2.369
65142SOL    HW197258   0.966   6.269   2.275
65142SOL    HW297259   0.958   6.380   2.377
65143SOL     OW97260  14.301   2.612  12.700
65143SOL    HW197261  14.246   2.586  12.626
65143SOL    HW297262  14.343   2.531  12.728
65144SOL     OW97263   6.799   0.043   4.955
65144SOL    HW197264   6.852  14.866   4.892
65144SOL    HW297265   6.794  14.857   5.031
65145SOL     OW97266  13.435   5.245   6.274
65145SOL    HW197267  13.440   5.150   6.279
65145SOL    HW297268  13.492   5.276   6.345
65146SOL     OW97269   8.769   9.445   7.160
65146SOL    HW197270   8.760   9.384   7.234
65146SOL    HW297271   8.855   9.424   7.123
65147SOL     OW97272   1.455   2.251  12.960
65147SOL    HW197273   1.385   2.188  12.941
65147SOL    HW297274   1.516   2.203  13.015
65148SOL     OW97275   5.911  12.491   2.563
65148SOL    HW197276   5.955  12.503   2.647
65148SOL    HW297277   5.854  12.415   2.577
65149SOL     OW97278   6.278   9.168   6.880
65149SOL    HW197279   6.359   9.128   6.914
65149SOL    HW297280   6.289   9.167   6.785
65150SOL     OW97281   8.821   2.819   8.010
65150SOL    HW197282   8.828   2.771   8.093
65150SOL    HW297283   8.781   2.902   8.034
65151SOL     OW97284   6.458  10.990   6.612
65151SOL    HW197285   6.440  11.033   6.696
65151SOL    HW297286   6.384  11.015   6.557
65152SOL     OW97287   3.086  14.698  11.678
65152SOL    HW197288   3.033  14.620  11.691
65152SOL    HW297289   3.107  14.698  11.585
65153SOL     OW97290   5.220   8.882   2.230
65153SOL    HW197291   5.189   8.942   2.161
65153SOL    HW297292   5.187   8.921   2.311
65154SOL     OW97293  14.513  14.485   6.442
65154SOL    HW197294  14.560  14.562   6.474
65154SOL    HW297295  14.431  14.519   6.407
65155SOL     OW97296   8.902  13.943  14.829
65155SOL    HW197297   8.955  14.022  14.842
65155SOL    HW297298   8.961  13.882  14.784
65156SOL     OW97299  10.371   0.745   0.252
65156SOL    HW197300  10.304   0.682   0.225
65156SOL    HW297301  10.410   0.705   0.330
65157SOL     OW97302   2.567   9.654   6.297
65157SOL    HW197303   2.515   9.667   6.217
65157SOL    HW297304   2.527   9.578   6.339
65158SOL     OW97305   2.473   5.805   3.714
65158SOL    HW197306   2.392   5.805   3.664
65158SOL    HW297307   2.530   5.744   3.667
65159SOL     OW97308   6.916  10.934   3.491
65159SOL    HW197309   7.010  10.914   3.500
65159SOL    HW297310   6.914  11.014   3.438
65160SOL     OW97311   4.708   7.707  12.262
65160SOL    HW197312   4.713   7.798  12.231
65160SOL    HW297313   4.777   7.700  12.327
65161SOL     OW97314  11.247   5.383   3.682
65161SOL    HW197315  11.194   5.384   3.761
65161SOL    HW297316  11.187   5.409   3.612
65162SOL     OW97317  11.996  14.056  12.925
65162SOL    HW197318  12.046  14.093  12.852
65162SOL    HW297319  11.908  14.092  12.915
65163SOL     OW97320   4.205  10.908   6.102
65163SOL    HW197321   4.188  10.987   6.051
65163SOL    HW297322   4.141  10.910   6.172
65164SOL     OW97323   1.634  14.736   7.188
65164SOL    HW197324   1.700  14.688   7.138
65164SOL    HW297325   1.681  14.771   7.264
65165SOL     OW97326  11.894   2.573   6.025
65165SOL    HW197327  11.904   2.571   6.120
65165SOL    HW297328  11.834   2.646   6.010
65166SOL     OW97329   4.535   6.814  11.398
65166SOL    HW197330   4.444   6.802  11.426
65166SOL    HW297331   4.558   6.732  11.354
65167SOL     OW97332  11.660   3.932  11.224
65167SOL    HW197333  11.712   3.852  11.224
65167SOL    HW297334  11.641   3.949  11.132
65168SOL     OW97335   9.988  13.307  12.716
65168SOL    HW197336   9.985  13.303  12.621
65168SOL    HW297337  10.049  13.379  12.735
65169SOL     OW97338  10.877   2.324  14.694
65169SOL    HW197339  10.908   2.236  14.716
65169SOL    HW297340  10.851   2.319  14.603
65170SOL     OW97341   6.095   1.987   5.043
65170SOL    HW197342   6.074   2.079   5.060
65170SOL    HW297343   6.131   1.986   4.955
65171SOL     OW97344   8.044   7.868   5.126
65171SOL    HW197345   8.107   7.875   5.055
65171SOL    HW297346   7.958   7.868   5.083
65172SOL     OW97347   3.429  10.229  13.644
65172SOL    HW197348   3.379  10.304  13.611
65172SOL    HW297349   3.487  10.205  13.573
65173SOL     OW97350   4.835   4.127   0.260
65173SOL    HW197351   4.780   4.096   0.332
65173SOL    HW297352   4.898   4.187   0.301
65174SOL     OW97353   2.531   4.857   2.726
65174SOL    HW197354   2.509   4.836   2.635
65174SOL    HW297355   2.468   4.924   2.751
65175SOL     OW97356   6.406   9.700   3.939
65175SOL    HW197357   6.488   9.707   3.889
65175SOL    HW297358   6.362   9.623   3.904
65176SOL     OW97359  11.809   2.019   7.785
65176SOL    HW197360  11.795   1.932   7.748
65176SOL    HW297361  11.842   2.071   7.711
65177SOL     OW97362   3.548   5.321   1.068
65177SOL    HW197363   3.486   5.349   1.135
65177SOL    HW297364   3.633   5.352   1.099
65178SOL     OW97365  13.156   1.485   6.186
65178SOL    HW197366  13.228   1.519   6.133
65178SOL    HW297367  13.154   1.542   6.262
65179SOL     OW97368   4.791  14.805   3.291
65179SOL    HW197369   4.749   0.019   3.285
65179SOL    HW297370   4.810  14.794   3.385
65180SOL     OW97371   1.581  12.627   9.927
65180SOL    HW197372   1.491  12.610   9.955
65180SOL    HW297373   1.575  12.704   9.870
65181SOL     OW97374  11.614   8.385   8.453
65181SOL    HW197375  11.623   8.292   8.434
65181SOL    HW297376  11.695   8.409   8.497
65182SOL     OW97377   4.123  12.724   3.629
65182SOL    HW197378   4.053  12.680   3.678
65182SOL    HW297379   4.083  12.748   3.545
65183SOL     OW97380  12.537   3.757   7.635
65183SOL    HW197381  12.508   3.812   7.562
65183SOL    HW297382  12.481   3.781   7.708
65184SOL     OW97383  12.313   2.675   5.918
65184SOL    HW197384  12.296   2.623   5.840
65184SOL    HW297385  12.241   2.737   5.922
65185SOL     OW97386  14.514  14.794   8.222
65185SOL    HW197387  14.425  14.782   8.187
65185SOL    HW297388  14.501  14.801   8.316
65186SOL     OW97389   4.601  10.483   8.269
65186SOL    HW197390   4.619  10.523   8.354
65186SOL    HW297391   4.613  10.390   8.284
65187SOL     OW97392   1.382  12.223   5.067
65187SOL    HW197393   1.347  12.168   4.996
65187SOL    HW297394   1.329  12.200   5.143
65188SOL     OW97395   6.312   4.140   6.758
65188SOL    HW197396   6.273   4.221   6.724
65188SOL    HW297397   6.399   4.166   6.788
65189SOL     OW97398  14.766   5.808  11.895
65189SOL    HW197399  14.680   5.806  11.937
65189SOL    HW297400  14.776   5.899  11.865
65190SOL     OW97401   0.316   3.262   6.939
65190SOL    HW197402   0.305   3.183   6.991
65190SOL    HW297403   0.276   3.242   6.855
65191SOL     OW97404   7.429  10.719   9.310
65191SOL    HW197405   7.347  10.673   9.329
65191SOL    HW297406   7.449  10.765   9.392
65192SOL     OW97407  10.692   8.363  13.530
65192SOL    HW197408  10.605   8.333  13.506
65192SOL    HW297409  10.741   8.283  13.548
65193SOL     OW97410  10.097  12.904  11.585
65193SOL    HW197411  10.030  12.963  11.551
65193SOL    HW297412  10.179  12.952  11.574
65194SOL     OW97413   5.583   0.715  10.069
65194SOL    HW197414   5.542   0.739   9.986
65194SOL    HW297415   5.521   0.746  10.136
65195SOL     OW97416   4.421   9.014   0.459
65195SOL    HW197417   4.327   9.020   0.446
65195SOL    HW297418   4.435   8.929   0.502
65196SOL     OW97419  14.754   1.096   9.848
65196SOL    HW197420  14.722   1.027   9.906
65196SOL    HW297421  14.754   1.175   9.902
65197SOL     OW97422   7.476   6.520   9.064
65197SOL    HW197423   7.547   6.457   9.051
65197SOL    HW297424   7.425   6.514   8.983
65198SOL     OW97425   6.542   1.502  10.917
65198SOL    HW197426   6.474   1.569  10.914
65198SOL    HW297427   6.512   1.435  10.856
65199SOL     OW97428   8.948   0.316  12.972
65199SOL    HW197429   8.935   0.255  13.045
65199SOL    HW297430   8.952   0.402  13.014
65200SOL     OW97431   8.246  13.710   5.671
65200SOL    HW197432   8.220  13.663   5.750
65200SOL    HW297433   8.164  13.743   5.634
65201SOL     OW97434   4.631   9.631   5.520
65201SOL    HW197435   4.567   9.560   5.522
65201SOL    HW297436   4.704   9.599   5.573
65202SOL     OW97437  13.971   0.489   4.810
65202SOL    HW197438  14.054   0.516   4.850
65202SOL    HW297439  13.934   0.425   4.870
65203SOL     OW97440   0.619  11.496   1.481
65203SOL    HW197441   0.686  11.520   1.545
65203SOL    HW297442   0.540  11.483   1.533
65204SOL     OW97443   8.428   9.082   5.556
65204SOL    HW197444   8.383   9.010   5.599
65204SOL    HW297445   8.368   9.156   5.565
65205SOL     OW97446  12.173   9.888   3.921
65205SOL    HW197447  12.221   9.832   3.860
65205SOL    HW297448  12.084   9.852   3.921
65206SOL     OW97449  14.527   8.180  10.867
65206SOL    HW197450  14.520   8.210  10.958
65206SOL    HW297451  14.506   8.087  10.871
65207SOL     OW97452   4.068   7.212  10.699
65207SOL    HW197453   4.082   7.129  10.653
65207SOL    HW297454   4.082   7.279  10.632
65208SOL     OW97455   8.513   0.262   9.019
65208SOL    HW197456   8.601   0.283   9.049
65208SOL    HW297457   8.458   0.332   9.055
65209SOL     OW97458   4.773  13.784  13.238
65209SOL    HW197459   4.772  13.801  13.332
65209SOL    HW297460   4.866  13.788  13.214
65210SOL     OW97461  12.740  11.653   3.290
65210SOL    HW197462  12.652  11.630   3.260
65210SOL    HW297463  12.726  11.699   3.373
65211SOL     OW97464   8.133  14.402  14.496
65211SOL    HW197465   8.052  14.378  14.542
65211SOL    HW297466   8.121  14.368  14.407
65212SOL     OW97467   8.523  12.633  12.665
65212SOL    HW197468   8.597  12.574  12.650
65212SOL    HW297469   8.455  12.602  12.606
65213SOL     OW97470   4.216   6.403  14.044
65213SOL    HW197471   4.244   6.376  14.132
65213SOL    HW297472   4.143   6.345  14.024
65214SOL     OW97473  14.075   0.326   3.742
65214SOL    HW197474  14.063   0.388   3.670
65214SOL    HW297475  14.105   0.246   3.700
65215SOL     OW97476   0.234  12.005   2.339
65215SOL    HW197477   0.285  11.945   2.392
65215SOL    HW297478   0.280  12.008   2.255
65216SOL     OW97479   3.640  11.334   6.143
65216SOL    HW197480   3.643  11.259   6.203
65216SOL    HW297481   3.629  11.295   6.057
65217SOL     OW97482   5.132   2.006   8.889
65217SOL    HW197483   5.166   1.982   8.803
65217SOL    HW297484   5.200   2.062   8.927
65218SOL     OW97485  12.968  11.419   4.821
65218SOL    HW197486  12.940  11.476   4.893
65218SOL    HW297487  12.952  11.331   4.852
65219SOL     OW97488   0.270   5.287  11.713
65219SOL    HW197489   0.284   5.344  11.788
65219SOL    HW297490   0.176   5.294  11.695
65220SOL     OW97491   9.268  11.824   7.134
65220SOL    HW197492   9.356  11.856   7.154
65220SOL    HW297493   9.273  11.729   7.145
65221SOL     OW97494   4.674  14.327  13.678
65221SOL    HW197495   4.611  14.268  13.638
65221SOL    HW297496   4.622  14.381  13.738
65222SOL     OW97497   7.241   7.742  13.664
65222SOL    HW197498   7.238   7.713  13.573
65222SOL    HW297499   7.333   7.757  13.682
65223SOL     OW97500  11.865  10.388  11.833
65223SOL    HW197501  11.919  10.467  11.830
65223SOL    HW297502  11.779  10.419  11.861
65224SOL     OW97503   4.284   7.477  11.635
65224SOL    HW197504   4.193   7.499  11.655
65224SOL    HW297505   4.314   7.550  11.581
65225SOL     OW97506   2.222   2.417  11.580
65225SOL    HW197507   2.176   2.499  11.596
65225SOL    HW297508   2.314   2.442  11.576
65226SOL     OW97509   7.134   7.958  12.585
65226SOL    HW197510   7.213   7.911  12.559
65226SOL    HW297511   7.149   8.049  12.557
65227SOL     OW97512   5.864   5.430   4.243
65227SOL    HW197513   5.893   5.519   4.266
65227SOL    HW297514   5.773   5.426   4.273
65228SOL     OW97515   1.274   9.344  12.371
65228SOL    HW197516   1.338   9.299  12.428
65228SOL    HW297517   1.258   9.282  12.300
65229SOL     OW97518  13.473  12.232   6.150
65229SOL    HW197519  13.481  12.299   6.082
65229SOL    HW297520  13.496  12.151   6.106
65230SOL     OW97521  14.314   6.368  12.994
65230SOL    HW197522  14.237   6.390  12.941
65230SOL    HW297523  14.387   6.409  12.948
65231SOL     OW97524   0.292   7.664  13.509
65231SOL    HW197525   0.299   7.578  13.468
65231SOL    HW297526   0.245   7.648  13.591
65232SOL     OW97527   7.354   4.824  10.679
65232SOL    HW197528   7.441   4.864  10.684
65232SOL    HW297529   7.371   4.730  10.681
65233SOL     OW97530   7.349   5.090   9.389
65233SOL    HW197531   7.316   5.047   9.468
65233SOL    HW297532   7.434   5.126   9.414
65234SOL     OW97533   7.546  13.288   5.357
65234SOL    HW197534   7.535  13.375   5.319
65234SOL    HW297535   7.638  13.283   5.382
65235SOL     OW97536   1.885  11.300  10.580
65235SOL    HW197537   1.866  11.243  10.654
65235SOL    HW297538   1.966  11.344  10.603
65236SOL     OW97539   9.119   6.353  10.517
65236SOL    HW197540   9.140   6.262  10.495
65236SOL    HW297541   9.023   6.357  10.514
65237SOL     OW97542   0.316   0.919   4.939
65237SOL    HW197543   0.288   1.005   4.909
65237SOL    HW297544   0.405   0.909   4.904
65238SOL     OW97545   3.860   7.482   3.458
65238SOL    HW197546   3.792   7.472   3.525
65238SOL    HW297547   3.860   7.575   3.437
65239SOL     OW97548   8.488  12.594  12.387
65239SOL    HW197549   8.442  12.622  12.307
65239SOL    HW297550   8.559  12.657  12.397
65240SOL     OW97551  13.956   3.583   0.835
65240SOL    HW197552  13.885   3.526   0.866
65240SOL    HW297553  13.978   3.637   0.911
65241SOL     OW97554  10.152   3.824   8.213
65241SOL    HW197555  10.148   3.747   8.270
65241SOL    HW297556  10.242   3.823   8.179
65242SOL     OW97557   9.302   6.691  13.407
65242SOL    HW197558   9.391   6.686  13.442
65242SOL    HW297559   9.282   6.601  13.381
65243SOL     OW97560  11.601   2.727   2.770
65243SOL    HW197561  11.629   2.816   2.748
65243SOL    HW297562  11.589   2.684   2.685
65244SOL     OW97563   8.099   4.146   7.772
65244SOL    HW197564   8.151   4.072   7.805
65244SOL    HW297565   8.156   4.188   7.708
65245SOL     OW97566   5.384   9.139  11.809
65245SOL    HW197567   5.356   9.050  11.790
65245SOL    HW297568   5.353   9.155  11.898
65246SOL     OW97569  11.574  10.874   1.018
65246SOL    HW197570  11.595  10.967   1.010
65246SOL    HW297571  11.642  10.838   1.076
65247SOL     OW97572  11.692   0.836  14.062
65247SOL    HW197573  11.783   0.817  14.083
65247SOL    HW297574  11.691   0.854  13.968
65248SOL     OW97575   5.542   2.200  13.815
65248SOL    HW197576   5.514   2.270  13.756
65248SOL    HW297577   5.460   2.163  13.849
65249SOL     OW97578   3.082   0.828  13.872
65249SOL    HW197579   3.157   0.770  13.882
65249SOL    HW297580   3.007   0.768  13.862
65250SOL     OW97581  13.410   4.253   9.934
65250SOL    HW197582  13.463   4.303   9.873
65250SOL    HW297583  13.457   4.259  10.017
65251SOL     OW97584   4.735   6.163   5.739
65251SOL    HW197585   4.823   6.134   5.717
65251SOL    HW297586   4.709   6.219   5.666
65252SOL     OW97587   9.528   0.633   4.013
65252SOL    HW197588   9.546   0.539   4.011
65252SOL    HW297589   9.481   0.651   3.931
65253SOL     OW97590   5.232   9.891  12.097
65253SOL    HW197591   5.243   9.882  12.002
65253SOL    HW297592   5.241   9.985  12.112
65254SOL     OW97593   5.921  12.968   5.966
65254SOL    HW197594   5.835  12.931   5.943
65254SOL    HW297595   5.912  13.061   5.947
65255SOL     OW97596   9.573   1.930  11.944
65255SOL    HW197597   9.537   1.983  12.015
65255SOL    HW297598   9.525   1.958  11.866
65256SOL     OW97599  13.748   1.332   5.046
65256SOL    HW197600  13.704   1.361   4.966
65256SOL    HW297601  13.839   1.318   5.019
65257SOL     OW97602  11.529  10.021   8.198
65257SOL    HW197603  11.561  10.025   8.288
65257SOL    HW297604  11.511   9.929   8.183
65258SOL     OW97605   6.963   4.437   0.384
65258SOL    HW197606   7.026   4.402   0.447
65258SOL    HW297607   6.991   4.528   0.370
65259SOL     OW97608   3.442  14.327  12.363
65259SOL    HW197609   3.451  14.265  12.436
65259SOL    HW297610   3.356  14.308  12.326
65260SOL     OW97611   8.722  13.091   3.785
65260SOL    HW197612   8.635  13.054   3.793
65260SOL    HW297613   8.753  13.063   3.699
65261SOL     OW97614   1.489  10.141  10.208
65261SOL    HW197615   1.513  10.131  10.300
65261SOL    HW297616   1.572  10.163  10.165
65262SOL     OW97617   3.942   5.313   2.122
65262SOL    HW197618   3.886   5.283   2.051
65262SOL    HW297619   3.935   5.244   2.188
65263SOL     OW97620   6.091   1.090   7.305
65263SOL    HW197621   6.132   1.099   7.219
65263SOL    HW297622   6.074   0.996   7.314
65264SOL     OW97623   2.727   3.646   1.741
65264SOL    HW197624   2.775   3.594   1.677
65264SOL    HW297625   2.635   3.633   1.719
65265SOL     OW97626   2.727   5.820   5.954
65265SOL    HW197627   2.735   5.728   5.928
65265SOL    HW297628   2.707   5.866   5.873
65266SOL     OW97629  13.287   3.192   9.993
65266SOL    HW197630  13.315   3.276   9.957
65266SOL    HW297631  13.252   3.145   9.917
65267SOL     OW97632   9.888  12.563   0.529
65267SOL    HW197633   9.810  12.573   0.584
65267SOL    HW297634   9.952  12.622   0.568
65268SOL     OW97635   2.603  12.790   7.010
65268SOL    HW197636   2.695  12.766   7.019
65268SOL    HW297637   2.570  12.733   6.941
65269SOL     OW97638  14.839   0.974   5.044
65269SOL    HW197639  14.754   0.954   5.007
65269SOL    HW297640  14.820   1.034   5.117
65270SOL     OW97641   0.912   2.493  12.625
65270SOL    HW197642   0.885   2.437  12.698
65270SOL    HW297643   0.836   2.494  12.567
65271SOL     OW97644   2.288  11.789   5.706
65271SOL    HW197645   2.300  11.849   5.779
65271SOL    HW297646   2.346  11.716   5.725
65272SOL     OW97647  11.014   9.182   9.057
65272SOL    HW197648  11.025   9.101   9.007
65272SOL    HW297649  10.987   9.247   8.992
65273SOL     OW97650  13.128   4.835   4.240
65273SOL    HW197651  13.124   4.823   4.145
65273SOL    HW297652  13.168   4.922   4.251
65274SOL     OW97653   0.607  11.058   4.371
65274SOL    HW197654   0.689  11.101   4.393
65274SOL    HW297655   0.583  11.009   4.449
65275SOL     OW97656  13.888   8.906   0.932
65275SOL    HW197657  13.871   8.931   1.023
65275SOL    HW297658  13.977   8.871   0.933
65276SOL     OW97659   1.726   1.509   1.849
65276SOL    HW197660   1.808   1.532   1.805
65276SOL    HW297661   1.660   1.510   1.779
65277SOL     OW97662   9.735  13.119   1.538
65277SOL    HW197663   9.665  13.071   1.494
65277SOL    HW297664   9.777  13.169   1.468
65278SOL     OW97665   3.183   6.077   7.597
65278SOL    HW197666   3.218   5.990   7.578
65278SOL    HW297667   3.261   6.132   7.609
65279SOL     OW97668  12.062   4.418  12.644
65279SOL    HW197669  12.123   4.358  12.688
65279SOL    HW297670  12.119   4.482  12.601
65280SOL     OW97671  13.886   8.113   7.731
65280SOL    HW197672  13.874   8.122   7.826
65280SOL    HW297673  13.975   8.144   7.715
65281SOL     OW97674   0.689   1.410   9.652
65281SOL    HW197675   0.711   1.405   9.559
65281SOL    HW297676   0.771   1.433   9.695
65282SOL     OW97677   9.195  14.842  12.272
65282SOL    HW197678   9.225  14.802  12.353
65282SOL    HW297679   9.173   0.059  12.296
65283SOL     OW97680   4.726   5.268  10.071
65283SOL    HW197681   4.817   5.291  10.092
65283SOL    HW297682   4.724   5.172  10.076
65284SOL     OW97683  11.962  11.416   3.747
65284SOL    HW197684  12.057  11.407   3.735
65284SOL    HW297685  11.924  11.377   3.669
65285SOL     OW97686   4.952   4.865   5.991
65285SOL    HW197687   4.877   4.924   6.002
65285SOL    HW297688   4.987   4.855   6.079
65286SOL     OW97689  11.248   3.843   9.775
65286SOL    HW197690  11.233   3.938   9.778
65286SOL    HW297691  11.342   3.833   9.790
65287SOL     OW97692   0.292   2.650  11.732
65287SOL    HW197693   0.222   2.614  11.677
65287SOL    HW297694   0.323   2.575  11.784
65288SOL     OW97695   8.241   9.413   2.884
65288SOL    HW197696   8.292   9.333   2.877
65288SOL    HW297697   8.157   9.385   2.921
65289SOL     OW97698   2.661   9.733  10.716
65289SOL    HW197699   2.588   9.788  10.745
65289SOL    HW297700   2.619   9.664  10.664
65290SOL     OW97701   6.989   2.489  12.774
65290SOL    HW197702   6.993   2.546  12.851
65290SOL    HW297703   7.069   2.509  12.725
65291SOL     OW97704   0.545   6.497  12.313
65291SOL    HW197705   0.618   6.456  12.359
65291SOL    HW297706   0.523   6.435  12.243
65292SOL     OW97707   3.531  14.303   6.577
65292SOL    HW197708   3.607  14.292   6.520
65292SOL    HW297709   3.517  14.398   6.581
65293SOL     OW97710   7.045   3.569  12.134
65293SOL    HW197711   7.052   3.480  12.100
65293SOL    HW297712   6.989   3.614  12.071
65294SOL     OW97713   9.621   1.885  14.138
65294SOL    HW197714   9.704   1.913  14.101
65294SOL    HW297715   9.620   1.790  14.125
65295SOL     OW97716   9.747  11.868   9.724
65295SOL    HW197717   9.790  11.802   9.669
65295SOL    HW297718   9.671  11.896   9.673
65296SOL     OW97719   3.727  11.271   9.678
65296SOL    HW197720   3.797  11.313   9.727
65296SOL    HW297721   3.770  11.238   9.598
65297SOL     OW97722   5.981  13.204   6.943
65297SOL    HW197723   6.072  13.175   6.952
65297SOL    HW297724   5.969  13.220   6.850
65298SOL     OW97725   9.639   5.758   6.555
65298SOL    HW197726   9.683   5.808   6.624
65298SOL    HW297727   9.709   5.712   6.510
65299SOL     OW97728  13.153   8.511  12.646
65299SOL    HW197729  13.193   8.573  12.706
65299SOL    HW297730  13.068   8.548  12.626
65300SOL     OW97731   7.456   0.835   6.756
65300SOL    HW197732   7.418   0.869   6.837
65300SOL    HW297733   7.509   0.761   6.784
65301SOL     OW97734  11.045   8.607   3.550
65301SOL    HW197735  11.084   8.638   3.469
65301SOL    HW297736  10.982   8.540   3.522
65302SOL     OW97737  11.348  12.027   0.567
65302SOL    HW197738  11.382  12.106   0.609
65302SOL    HW297739  11.320  12.057   0.480
65303SOL     OW97740   7.840  10.711   0.621
65303SOL    HW197741   7.776  10.647   0.590
65303SOL    HW297742   7.832  10.709   0.716
65304SOL     OW97743   3.281   4.675   6.963
65304SOL    HW197744   3.205   4.651   7.016
65304SOL    HW297745   3.265   4.766   6.939
65305SOL     OW97746  10.175   4.534   0.845
65305SOL    HW197747  10.174   4.444   0.813
65305SOL    HW297748  10.159   4.588   0.767
65306SOL     OW97749  14.594   2.188   7.581
65306SOL    HW197750  14.652   2.187   7.505
65306SOL    HW297751  14.617   2.268   7.629
65307SOL     OW97752   5.081  12.488   2.449
65307SOL    HW197753   5.004  12.483   2.392
65307SOL    HW297754   5.098  12.582   2.458
65308SOL     OW97755   8.743   8.230   2.503
65308SOL    HW197756   8.649   8.239   2.520
65308SOL    HW297757   8.769   8.317   2.471
65309SOL     OW97758   2.847   0.779   0.824
65309SOL    HW197759   2.832   0.873   0.824
65309SOL    HW297760   2.937   0.769   0.856
65310SOL     OW97761   5.953   3.230  11.580
65310SOL    HW197762   5.928   3.287  11.508
65310SOL    HW297763   5.908   3.148  11.562
65311SOL     OW97764   8.017  10.559  14.350
65311SOL    HW197765   7.922  10.564  14.363
65311SOL    HW297766   8.045  10.650  14.343
65312SOL     OW97767  10.047   7.796   4.115
65312SOL    HW197768   9.987   7.725   4.135
65312SOL    HW297769  10.012   7.835   4.035
65313SOL     OW97770  13.442  12.666   3.795
65313SOL    HW197771  13.421  12.618   3.875
65313SOL    HW297772  13.497  12.606   3.746
65314SOL     OW97773  13.559  14.518  14.087
65314SOL    HW197774  13.488  14.476  14.136
65314SOL    HW297775  13.633  14.459  14.097
65315SOL     OW97776   9.032   0.156   5.943
65315SOL    HW197777   9.101   0.220   5.959
65315SOL    HW297778   9.079   0.077   5.915
65316SOL     OW97779   7.150   5.360   5.893
65316SOL    HW197780   7.071   5.327   5.849
65316SOL    HW297781   7.119   5.385   5.980
65317SOL     OW97782  14.297   9.714  13.106
65317SOL    HW197783  14.260   9.732  13.192
65317SOL    HW297784  14.230   9.745  13.044
65318SOL     OW97785   0.075   5.451   2.563
65318SOL    HW197786   0.136   5.409   2.623
65318SOL    HW297787   0.071   5.393   2.487
65319SOL     OW97788   4.251   0.740   6.919
65319SOL    HW197789   4.270   0.649   6.899
65319SOL    HW297790   4.335   0.779   6.941
65320SOL     OW97791  14.814   6.888   0.115
65320SOL    HW197792  14.830   6.831   0.040
65320SOL    HW297793   0.028   6.899   0.156
65321SOL     OW97794  12.379   3.209  11.444
65321SOL    HW197795  12.391   3.125  11.400
65321SOL    HW297796  12.327   3.188  11.522
65322SOL     OW97797   3.010  11.894  14.652
65322SOL    HW197798   2.935  11.837  14.632
65322SOL    HW297799   2.981  11.981  14.626
65323SOL     OW97800   2.642   5.881   8.300
65323SOL    HW197801   2.554   5.870   8.262
65323SOL    HW297802   2.626   5.896   8.393
65324SOL     OW97803   5.080   4.445   3.618
65324SOL    HW197804   5.064   4.412   3.530
65324SOL    HW297805   5.005   4.413   3.670
65325SOL     OW97806   2.179  14.248   2.753
65325SOL    HW197807   2.264  14.238   2.708
65325SOL    HW297808   2.172  14.342   2.770
65326SOL     OW97809   2.017   9.506  10.262
65326SOL    HW197810   1.998   9.458  10.181
65326SOL    HW297811   1.996   9.597  10.242
65327SOL     OW97812   5.134   8.956  13.456
65327SOL    HW197813   5.141   8.963  13.551
65327SOL    HW297814   5.046   8.921  13.440
65328SOL     OW97815  14.865   0.219   7.631
65328SOL    HW197816   0.037   0.152   7.578
65328SOL    HW297817  14.858   0.294   7.572
65329SOL     OW97818  13.675  10.062  13.208
65329SOL    HW197819  13.605   9.998  13.218
65329SOL    HW297820  13.689  10.097  13.296
65330SOL     OW97821  12.333   4.894  14.043
65330SOL    HW197822  12.421   4.898  14.004
65330SOL    HW297823  12.350   4.883  14.136
65331SOL     OW97824   5.885   3.073   1.995
65331SOL    HW197825   5.960   3.022   2.027
65331SOL    HW297826   5.831   3.087   2.073
65332SOL     OW97827  13.499   4.599   9.281
65332SOL    HW197828  13.594   4.588   9.283
65332SOL    HW297829  13.484   4.661   9.210
65333SOL     OW97830  14.542  11.506   0.415
65333SOL    HW197831  14.479  11.549   0.356
65333SOL    HW297832  14.603  11.576   0.438
65334SOL     OW97833   7.566  13.512   9.816
65334SOL    HW197834   7.498  13.564   9.859
65334SOL    HW297835   7.601  13.456   9.886
65335SOL     OW97836   4.269   7.391  10.928
65335SOL    HW197837   4.182   7.352  10.941
65335SOL    HW297838   4.254   7.486  10.939
65336SOL     OW97839  13.534  13.401  13.541
65336SOL    HW197840  13.583  13.460  13.484
65336SOL    HW297841  13.452  13.447  13.559
65337SOL     OW97842   6.121   5.288  11.189
65337SOL    HW197843   6.114   5.197  11.160
65337SOL    HW297844   6.060   5.335  11.132
65338SOL     OW97845  12.192   1.844   1.422
65338SOL    HW197846  12.124   1.881   1.367
65338SOL    HW297847  12.224   1.768   1.373
65339SOL     OW97848   0.331   8.599   9.287
65339SOL    HW197849   0.288   8.684   9.291
65339SOL    HW297850   0.409   8.609   9.341
65340SOL     OW97851   0.098  13.534   7.649
65340SOL    HW197852   0.083  13.548   7.555
65340SOL    HW297853   0.012  13.510   7.683
65341SOL     OW97854   3.920  11.896   3.910
65341SOL    HW197855   3.931  11.951   3.833
65341SOL    HW297856   3.826  11.875   3.912
65342SOL     OW97857   5.544   9.406  12.042
65342SOL    HW197858   5.615   9.471  12.047
65342SOL    HW297859   5.564   9.345  12.113
65343SOL     OW97860  13.906   7.675   4.646
65343SOL    HW197861  13.913   7.600   4.705
65343SOL    HW297862  13.986   7.673   4.595
65344SOL     OW97863  10.593   2.832  14.752
65344SOL    HW197864  10.560   2.747  14.724
65344SOL    HW297865  10.630   2.871  14.673
65345SOL     OW97866  12.563  11.525  13.460
65345SOL    HW197867  12.520  11.608  13.482
65345SOL    HW297868  12.654  11.550  13.446
65346SOL     OW97869   5.764  14.175   4.543
65346SOL    HW197870   5.669  14.184   4.547
65346SOL    HW297871   5.797  14.245   4.600
65347SOL     OW97872   5.511   3.613   6.151
65347SOL    HW197873   5.528   3.685   6.090
65347SOL    HW297874   5.534   3.534   6.102
65348SOL     OW97875   7.990   3.571   1.030
65348SOL    HW197876   8.028   3.616   0.955
65348SOL    HW297877   8.061   3.517   1.064
65349SOL     OW97878   4.936   2.287   0.742
65349SOL    HW197879   5.028   2.295   0.768
65349SOL    HW297880   4.911   2.375   0.713
65350SOL     OW97881  10.101   1.153   0.784
65350SOL    HW197882  10.189   1.163   0.821
65350SOL    HW297883  10.051   1.112   0.854
65351SOL     OW97884   2.816   5.035   7.517
65351SOL    HW197885   2.814   5.057   7.424
65351SOL    HW297886   2.727   5.007   7.537
65352SOL     OW97887  14.709   0.429  13.903
65352SOL    HW197888  14.741   0.344  13.871
65352SOL    HW297889  14.789   0.478  13.926
65353SOL     OW97890  13.465  10.311  12.701
65353SOL    HW197891  13.506  10.263  12.629
65353SOL    HW297892  13.536  10.321  12.765
65354SOL     OW97893   5.827   1.017  13.662
65354SOL    HW197894   5.842   0.931  13.701
65354SOL    HW297895   5.871   1.012  13.576
65355SOL     OW97896  13.725   7.709   3.556
65355SOL    HW197897  13.791   7.778   3.549
65355SOL    HW297898  13.774   7.634   3.590
65356SOL     OW97899  10.123  10.235   2.915
65356SOL    HW197900  10.112  10.166   2.849
65356SOL    HW297901  10.144  10.189   2.996
65357SOL     OW97902   7.274   9.409  11.014
65357SOL    HW197903   7.218   9.426  11.090
65357SOL    HW297904   7.362   9.403  11.049
65358SOL     OW97905   2.304   0.440  10.315
65358SOL    HW197906   2.271   0.410  10.230
65358SOL    HW297907   2.257   0.522  10.331
65359SOL     OW97908   5.397  14.854   1.022
65359SOL    HW197909   5.414  14.765   1.054
65359SOL    HW297910   5.301  14.860   1.021
65360SOL     OW97911   2.471   6.486   1.613
65360SOL    HW197912   2.480   6.566   1.562
65360SOL    HW297913   2.499   6.509   1.701
65361SOL     OW97914   0.339   3.628   2.196
65361SOL    HW197915   0.275   3.693   2.166
65361SOL    HW297916   0.420   3.652   2.150
65362SOL     OW97917   1.282   9.299   8.653
65362SOL    HW197918   1.209   9.245   8.623
65362SOL    HW297919   1.241   9.380   8.683
65363SOL     OW97920   8.069  13.882   1.232
65363SOL    HW197921   8.024  13.958   1.194
65363SOL    HW297922   8.040  13.881   1.324
65364SOL     OW97923  11.585   9.865  10.305
65364SOL    HW197924  11.562   9.954  10.281
65364SOL    HW297925  11.670   9.849  10.264
65365SOL     OW97926  12.761  10.241   2.647
65365SOL    HW197927  12.794  10.303   2.582
65365SOL    HW297928  12.726  10.296   2.717
65366SOL     OW97929   1.961   5.227   0.659
65366SOL    HW197930   1.957   5.243   0.565
65366SOL    HW297931   1.887   5.277   0.695
65367SOL     OW97932  11.911  12.524   9.304
65367SOL    HW197933  11.895  12.433   9.278
65367SOL    HW297934  11.827  12.568   9.292
65368SOL     OW97935   3.734   8.243   6.238
65368SOL    HW197936   3.658   8.222   6.292
65368SOL    HW297937   3.731   8.178   6.167
65369SOL     OW97938  13.168   4.188   9.352
65369SOL    HW197939  13.239   4.250   9.332
65369SOL    HW297940  13.213   4.105   9.370
65370SOL     OW97941  14.617  14.739   0.190
65370SOL    HW197942  14.697  14.734   0.138
65370SOL    HW297943  14.547  14.745   0.125
65371SOL     OW97944   0.671  12.638   5.005
65371SOL    HW197945   0.604  12.597   4.950
65371SOL    HW297946   0.632  12.721   5.032
65372SOL     OW97947   4.675  10.643   7.460
65372SOL    HW197948   4.756  10.626   7.508
65372SOL    HW297949   4.607  10.601   7.512
65373SOL     OW97950   1.658  13.230   3.198
65373SOL    HW197951   1.577  13.188   3.171
65373SOL    HW297952   1.631  13.315   3.234
65374SOL     OW97953   9.012  12.331  12.791
65374SOL    HW197954   8.982  12.243  12.769
65374SOL    HW297955   8.956  12.358  12.864
65375SOL     OW97956   7.754   2.045   3.354
65375SOL    HW197957   7.714   2.128   3.330
65375SOL    HW297958   7.835   2.069   3.399
65376SOL     OW97959   7.806   3.245  10.375
65376SOL    HW197960   7.851   3.227  10.457
65376SOL    HW297961   7.874   3.279  10.317
65377SOL     OW97962   7.213   4.251  12.321
65377SOL    HW197963   7.125   4.253  12.359
65377SOL    HW297964   7.199   4.262  12.227
65378SOL     OW97965  13.725   9.184  12.453
65378SOL    HW197966  13.682   9.099  12.460
65378SOL    HW297967  13.781   9.178  12.376
65379SOL     OW97968   6.145   0.645   6.314
65379SOL    HW197969   6.131   0.622   6.406
65379SOL    HW297970   6.119   0.737   6.308
65380SOL     OW97971  13.467  13.561   2.267
65380SOL    HW197972  13.478  13.509   2.187
65380SOL    HW297973  13.540  13.623   2.265
65381SOL     OW97974  11.684   6.497   6.123
65381SOL    HW197975  11.635   6.515   6.203
65381SOL    HW297976  11.618   6.470   6.059
65382SOL     OW97977  13.801   0.079   8.882
65382SOL    HW197978  13.868   0.135   8.843
65382SOL    HW297979  13.719   0.107   8.842
65383SOL     OW97980   6.933  14.361   2.038
65383SOL    HW197981   7.014  14.337   2.082
65383SOL    HW297982   6.943  14.330   1.948
65384SOL     OW97983  13.921  14.311   8.188
65384SOL    HW197984  13.972  14.276   8.115
65384SOL    HW297985  13.966  14.281   8.266
65385SOL     OW97986   9.085   0.183   6.709
65385SOL    HW197987   9.102   0.133   6.789
65385SOL    HW297988   9.100   0.274   6.734
65386SOL     OW97989  11.276   8.290  10.462
65386SOL    HW197990  11.205   8.234  10.430
65386SOL    HW297991  11.320   8.320  10.383
65387SOL     OW97992   2.522   3.881   3.090
65387SOL    HW197993   2.481   3.816   3.034
65387SOL    HW297994   2.580   3.830   3.147
65388SOL     OW97995   2.183  13.588  12.032
65388SOL    HW197996   2.245  13.647  12.073
65388SOL    HW297997   2.195  13.505  12.077
65389SOL     OW97998   8.487  13.365  14.055
65389SOL    HW197999   8.428  13.433  14.087
65389SOL    HW298000   8.568  13.378  14.104
65390SOL     OW98001   2.521   2.100   9.605
65390SOL    HW198002   2.456   2.033   9.625
65390SOL    HW298003   2.499   2.173   9.663
65391SOL     OW98004  14.023   8.524   0.556
65391SOL    HW198005  14.093   8.470   0.520
65391SOL    HW298006  14.067   8.588   0.611
65392SOL     OW98007  11.051   7.462  10.760
65392SOL    HW198008  10.994   7.507  10.698
65392SOL    HW298009  11.022   7.371  10.758
65393SOL     OW98010  14.552   0.326   6.797
65393SOL    HW198011  14.531   0.237   6.824
65393SOL    HW298012  14.474   0.377   6.816
65394SOL     OW98013  14.471   0.730  13.892
65394SOL    HW198014  14.477   0.772  13.806
65394SOL    HW298015  14.447   0.640  13.873
65395SOL     OW98016   9.173   7.716  13.087
65395SOL    HW198017   9.242   7.703  13.023
65395SOL    HW298018   9.189   7.649  13.153
65396SOL     OW98019   2.438   4.610   0.807
65396SOL    HW198020   2.348   4.605   0.839
65396SOL    HW298021   2.428   4.618   0.712
65397SOL     OW98022   2.979   8.481   5.375
65397SOL    HW198023   2.913   8.500   5.309
65397SOL    HW298024   3.052   8.541   5.355
65398SOL     OW98025   7.039  10.822   4.592
65398SOL    HW198026   7.034  10.917   4.580
65398SOL    HW298027   7.015  10.786   4.507
65399SOL     OW98028  12.731   6.060  12.368
65399SOL    HW198029  12.797   6.010  12.319
65399SOL    HW298030  12.686   5.995  12.421
65400SOL     OW98031   3.301   9.511   2.251
65400SOL    HW198032   3.329   9.471   2.333
65400SOL    HW298033   3.317   9.604   2.263
65401SOL     OW98034   6.509   2.783   5.982
65401SOL    HW198035   6.420   2.790   6.017
65401SOL    HW298036   6.542   2.873   5.981
65402SOL     OW98037   1.804  10.069   5.967
65402SOL    HW198038   1.842  10.157   5.963
65402SOL    HW298039   1.857  10.022   6.031
65403SOL     OW98040   0.120   1.220  13.199
65403SOL    HW198041   0.040   1.179  13.232
65403SOL    HW298042   0.190   1.160  13.226
65404SOL     OW98043   3.436   3.550   5.828
65404SOL    HW198044   3.470   3.492   5.896
65404SOL    HW298045   3.514   3.589   5.789
65405SOL     OW98046   0.016   5.374   9.514
65405SOL    HW198047  14.860   5.452   9.466
65405SOL    HW298048   0.022   5.306   9.447
65406SOL     OW98049  11.744   8.646   4.115
65406SOL    HW198050  11.824   8.698   4.122
65406SOL    HW298051  11.749   8.605   4.029
65407SOL     OW98052  11.644   5.222   4.168
65407SOL    HW198053  11.578   5.190   4.106
65407SOL    HW298054  11.624   5.176   4.250
65408SOL     OW98055   1.441   1.935  12.924
65408SOL    HW198056   1.393   1.854  12.910
65408SOL    HW298057   1.402   1.974  13.002
65409SOL     OW98058  10.074  10.903   5.992
65409SOL    HW198059  10.026  10.946   5.922
65409SOL    HW298060  10.056  10.809   5.978
65410SOL     OW98061   4.990  12.488   6.152
65410SOL    HW198062   4.970  12.582   6.158
65410SOL    HW298063   5.073  12.479   6.200
65411SOL     OW98064   2.425   6.088   5.470
65411SOL    HW198065   2.490   6.056   5.532
65411SOL    HW298066   2.347   6.035   5.488
65412SOL     OW98067  10.313  12.391   7.885
65412SOL    HW198068  10.274  12.351   7.807
65412SOL    HW298069  10.336  12.480   7.857
65413SOL     OW98070   7.971   4.295   9.542
65413SOL    HW198071   7.956   4.343   9.624
65413SOL    HW298072   7.885   4.293   9.500
65414SOL     OW98073   4.730   9.695   7.646
65414SOL    HW198074   4.778   9.711   7.727
65414SOL    HW298075   4.798   9.688   7.579
65415SOL     OW98076  14.604  11.741   0.502
65415SOL    HW198077  14.542  11.800   0.547
65415SOL    HW298078  14.685  11.749   0.553
65416SOL     OW98079   9.279  12.474  12.230
65416SOL    HW198080   9.242  12.546  12.180
65416SOL    HW298081   9.241  12.484  12.317
65417SOL     OW98082   5.342   3.363  10.212
65417SOL    HW198083   5.320   3.426  10.281
65417SOL    HW298084   5.437   3.367  10.206
65418SOL     OW98085   6.566   2.903  11.820
65418SOL    HW198086   6.604   2.858  11.896
65418SOL    HW298087   6.608   2.862  11.745
65419SOL     OW98088   8.448   8.765   9.995
65419SOL    HW198089   8.466   8.683  10.040
65419SOL    HW298090   8.515   8.825  10.027
65420SOL     OW98091  13.819  12.132   4.381
65420SOL    HW198092  13.785  12.221   4.373
65420SOL    HW298093  13.757  12.087   4.438
65421SOL     OW98094  14.812   2.883  10.276
65421SOL    HW198095  14.850   2.819  10.215
65421SOL    HW298096   0.016   2.929  10.311
65422SOL     OW98097   7.250  10.058   3.305
65422SOL    HW198098   7.192   9.983   3.292
65422SOL    HW298099   7.223  10.121   3.238
65423SOL     OW98100  10.904  13.708   9.510
65423SOL    HW198101  10.990  13.719   9.471
65423SOL    HW298102  10.850  13.775   9.469
65424SOL     OW98103   5.375   9.005   3.734
65424SOL    HW198104   5.465   9.001   3.703
65424SOL    HW298105   5.326   8.948   3.675
65425SOL     OW98106  10.473   8.072   4.608
65425SOL    HW198107  10.398   8.083   4.666
65425SOL    HW298108  10.506   8.161   4.594
65426SOL     OW98109  12.030   2.303   6.362
65426SOL    HW198110  12.085   2.360   6.308
65426SOL    HW298111  11.977   2.362   6.415
65427SOL     OW98112  14.832  10.800  13.074
65427SOL    HW198113  14.807  10.872  13.133
65427SOL    HW298114  14.765  10.799  13.007
65428SOL     OW98115   6.922   4.640   1.012
65428SOL    HW198116   6.944   4.566   0.955
65428SOL    HW298117   6.830   4.659   0.991
65429SOL     OW98118   7.112  14.595   8.526
65429SOL    HW198119   7.173  14.558   8.590
65429SOL    HW298120   7.108  14.530   8.456
65430SOL     OW98121   4.595  14.401   2.771
65430SOL    HW198122   4.561  14.489   2.754
65430SOL    HW298123   4.687  14.406   2.748
65431SOL     OW98124   8.054   8.798   7.641
65431SOL    HW198125   7.999   8.834   7.711
65431SOL    HW298126   8.124   8.752   7.688
65432SOL     OW98127   2.779  10.070  10.463
65432SOL    HW198128   2.808  10.100  10.550
65432SOL    HW298129   2.739   9.985  10.480
65433SOL     OW98130   7.152   5.664   0.176
65433SOL    HW198131   7.115   5.582   0.209
65433SOL    HW298132   7.111   5.677   0.091
65434SOL     OW98133   9.146  10.199   3.369
65434SOL    HW198134   9.130  10.105   3.368
65434SOL    HW298135   9.221  10.211   3.427
65435SOL     OW98136  14.110  14.791   5.489
65435SOL    HW198137  14.083  14.701   5.467
65435SOL    HW298138  14.177  14.780   5.556
65436SOL     OW98139   7.375   4.218   3.554
65436SOL    HW198140   7.404   4.128   3.543
65436SOL    HW298141   7.291   4.223   3.510
65437SOL     OW98142   7.552  12.167   2.456
65437SOL    HW198143   7.624  12.224   2.428
65437SOL    HW298144   7.520  12.206   2.538
65438SOL     OW98145  14.806  14.314   1.015
65438SOL    HW198146  14.862  14.237   1.004
65438SOL    HW298147  14.780  14.337   0.926
65439SOL     OW98148   2.675   2.657  10.351
65439SOL    HW198149   2.760   2.697  10.332
65439SOL    HW298150   2.624   2.671  10.271
65440SOL     OW98151  13.066   2.270   6.629
65440SOL    HW198152  13.080   2.232   6.716
65440SOL    HW298153  13.064   2.364   6.644
65441SOL     OW98154   3.772   3.725   4.340
65441SOL    HW198155   3.776   3.812   4.379
65441SOL    HW298156   3.815   3.667   4.403
65442SOL     OW98157   5.160  12.752  13.207
65442SOL    HW198158   5.241  12.801  13.191
65442SOL    HW298159   5.148  12.701  13.127
65443SOL     OW98160   5.279   8.872  13.236
65443SOL    HW198161   5.323   8.948  13.197
65443SOL    HW298162   5.241   8.905  13.317
65444SOL     OW98163   0.945  14.507   1.030
65444SOL    HW198164   0.978  14.596   1.018
65444SOL    HW298165   1.001  14.470   1.099
65445SOL     OW98166  10.425   9.480  13.917
65445SOL    HW198167  10.386   9.508  14.000
65445SOL    HW298168  10.450   9.388  13.931
65446SOL     OW98169   0.268   9.538  11.100
65446SOL    HW198170   0.302   9.449  11.085
65446SOL    HW298171   0.188   9.524  11.152
65447SOL     OW98172   3.429   5.573  10.198
65447SOL    HW198173   3.365   5.614  10.140
65447SOL    HW298174   3.468   5.645  10.247
65448SOL     OW98175   4.419  14.241   7.543
65448SOL    HW198176   4.421  14.325   7.497
65448SOL    HW298177   4.339  14.199   7.510
65449SOL     OW98178   5.714  12.932   9.443
65449SOL    HW198179   5.793  12.968   9.404
65449SOL    HW298180   5.645  12.950   9.379
65450SOL     OW98181  14.271   9.722  12.722
65450SOL    HW198182  14.220   9.785  12.774
65450SOL    HW298183  14.298   9.656  12.785
65451SOL     OW98184   4.603   7.918   2.625
65451SOL    HW198185   4.657   7.973   2.568
65451SOL    HW298186   4.637   7.935   2.713
65452SOL     OW98187  13.098   0.110   9.688
65452SOL    HW198188  13.147   0.064   9.757
65452SOL    HW298189  13.015   0.132   9.728
65453SOL     OW98190   4.337   8.628   4.283
65453SOL    HW198191   4.323   8.670   4.368
65453SOL    HW298192   4.432   8.617   4.277
65454SOL     OW98193  14.655   0.121  10.772
65454SOL    HW198194  14.662   0.033  10.736
65454SOL    HW298195  14.641   0.108  10.866
65455SOL     OW98196   9.576   5.348  12.907
65455SOL    HW198197   9.503   5.336  12.968
65455SOL    HW298198   9.619   5.263  12.904
65456SOL     OW98199   5.364   5.394  11.363
65456SOL    HW198200   5.274   5.405  11.395
65456SOL    HW298201   5.356   5.333  11.289
65457SOL     OW98202  11.190   8.556   1.191
65457SOL    HW198203  11.233   8.593   1.268
65457SOL    HW298204  11.134   8.626   1.159
65458SOL     OW98205   7.455  13.822   7.840
65458SOL    HW198206   7.379  13.873   7.812
65458SOL    HW298207   7.421  13.734   7.855
65459SOL     OW98208   4.993   6.218  12.670
65459SOL    HW198209   5.055   6.149  12.645
65459SOL    HW298210   4.987   6.211  12.765
65460SOL     OW98211  11.370  10.041   4.289
65460SOL    HW198212  11.388   9.960   4.242
65460SOL    HW298213  11.398  10.023   4.379
65461SOL     OW98214   8.187   2.627  13.891
65461SOL    HW198215   8.187   2.715  13.854
65461SOL    HW298216   8.148   2.572  13.823
65462SOL     OW98217  12.100   0.230  13.873
65462SOL    HW198218  12.139   0.233  13.961
65462SOL    HW298219  12.005   0.232  13.889
65463SOL     OW98220   8.563   5.629   4.654
65463SOL    HW198221   8.543   5.581   4.735
65463SOL    HW298222   8.623   5.573   4.606
65464SOL     OW98223   7.062   6.244   2.081
65464SOL    HW198224   7.041   6.333   2.110
65464SOL    HW298225   6.983   6.193   2.100
65465SOL     OW98226   0.571   7.880  11.630
65465SOL    HW198227   0.580   7.866  11.725
65465SOL    HW298228   0.626   7.956  11.612
65466SOL     OW98229  11.168   8.873  14.731
65466SOL    HW198230  11.135   8.822  14.657
65466SOL    HW298231  11.261   8.852  14.735
65467SOL     OW98232  14.552   7.787   4.167
65467SOL    HW198233  14.503   7.706   4.154
65467SOL    HW298234  14.623   7.762   4.227
65468SOL     OW98235  12.330   4.901   6.065
65468SOL    HW198236  12.317   4.830   6.003
65468SOL    HW298237  12.386   4.964   6.019
65469SOL     OW98238   9.593   0.584  14.053
65469SOL    HW198239   9.517   0.578  13.995
65469SOL    HW298240   9.557   0.587  14.141
65470SOL     OW98241   4.600   6.212  14.174
65470SOL    HW198242   4.637   6.281  14.229
65470SOL    HW298243   4.657   6.137  14.188
65471SOL     OW98244   4.517   2.614  11.190
65471SOL    HW198245   4.476   2.554  11.129
65471SOL    HW298246   4.561   2.679  11.134
65472SOL     OW98247   2.027   5.927  12.735
65472SOL    HW198248   2.004   5.836  12.753
65472SOL    HW298249   2.002   5.975  12.814
65473SOL     OW98250   4.576   6.449  10.149
65473SOL    HW198251   4.605   6.418  10.235
65473SOL    HW298252   4.602   6.379  10.089
65474SOL     OW98253  10.190  11.008  13.756
65474SOL    HW198254  10.180  10.959  13.838
65474SOL    HW298255  10.219  11.095  13.783
65475SOL     OW98256   8.839   2.459   9.996
65475SOL    HW198257   8.779   2.497   9.933
65475SOL    HW298258   8.911   2.522  10.002
65476SOL     OW98259  14.482   1.655   2.196
65476SOL    HW198260  14.465   1.582   2.136
65476SOL    HW298261  14.570   1.686   2.172
65477SOL     OW98262   3.534   3.933   7.742
65477SOL    HW198263   3.565   3.872   7.809
65477SOL    HW298264   3.460   3.978   7.784
65478SOL     OW98265  10.453   4.192   0.955
65478SOL    HW198266  10.501   4.189   1.038
65478SOL    HW298267  10.439   4.285   0.939
65479SOL     OW98268   9.172   2.331  12.760
65479SOL    HW198269   9.133   2.262  12.814
65479SOL    HW298270   9.266   2.318  12.768
65480SOL     OW98271   7.262   8.950   2.055
65480SOL    HW198272   7.258   8.862   2.018
65480SOL    HW298273   7.207   9.003   1.997
65481SOL     OW98274   8.823   7.853   7.888
65481SOL    HW198275   8.785   7.836   7.802
65481SOL    HW298276   8.858   7.768   7.915
65482SOL     OW98277  12.825   9.069  11.328
65482SOL    HW198278  12.762   9.139  11.310
65482SOL    HW298279  12.910   9.112  11.323
65483SOL     OW98280  11.707   3.169   4.655
65483SOL    HW198281  11.700   3.075   4.673
65483SOL    HW298282  11.616   3.199   4.651
65484SOL     OW98283  12.653   0.948  13.785
65484SOL    HW198284  12.631   0.918  13.696
65484SOL    HW298285  12.594   0.898  13.841
65485SOL     OW98286   7.338   6.166  12.390
65485SOL    HW198287   7.261   6.205  12.348
65485SOL    HW298288   7.412   6.207  12.346
65486SOL     OW98289  13.463   7.677  13.368
65486SOL    HW198290  13.426   7.608  13.313
65486SOL    HW298291  13.508   7.735  13.307
65487SOL     OW98292  14.309   5.177   7.972
65487SOL    HW198293  14.281   5.266   7.994
65487SOL    HW298294  14.247   5.149   7.904
65488SOL     OW98295  11.269   7.542   2.498
65488SOL    HW198296  11.272   7.589   2.581
65488SOL    HW298297  11.306   7.604   2.434
65489SOL     OW98298   9.895  12.725  10.937
65489SOL    HW198299   9.955  12.797  10.919
65489SOL    HW298300   9.937  12.675  11.007
65490SOL     OW98301  14.141   9.456  13.545
65490SOL    HW198302  14.205   9.521  13.518
65490SOL    HW298303  14.192   9.377  13.563
65491SOL     OW98304   2.614  10.864   8.086
65491SOL    HW198305   2.624  10.957   8.063
65491SOL    HW298306   2.683  10.849   8.150
65492SOL     OW98307   2.953  13.338   0.462
65492SOL    HW198308   2.882  13.398   0.439
65492SOL    HW298309   2.910  13.272   0.517
65493SOL     OW98310   1.337   5.224  13.097
65493SOL    HW198311   1.296   5.210  13.012
65493SOL    HW298312   1.279   5.285  13.142
65494SOL     OW98313   3.290   6.798  12.007
65494SOL    HW198314   3.221   6.759  12.060
65494SOL    HW298315   3.304   6.736  11.935
65495SOL     OW98316   4.989  13.700   9.724
65495SOL    HW198317   5.055  13.705   9.655
65495SOL    HW298318   5.025  13.752   9.796
65496SOL     OW98319   4.560   6.412   0.209
65496SOL    HW198320   4.470   6.416   0.177
65496SOL    HW298321   4.583   6.503   0.229
65497SOL     OW98322   9.448  10.704   4.056
65497SOL    HW198323   9.400  10.725   3.976
65497SOL    HW298324   9.419  10.770   4.120
65498SOL     OW98325   6.910   2.946  13.814
65498SOL    HW198326   6.820   2.979  13.818
65498SOL    HW298327   6.944   2.982  13.732
65499SOL     OW98328   8.504  12.661   6.018
65499SOL    HW198329   8.423  12.679   6.065
65499SOL    HW298330   8.477  12.616   5.939
65500SOL     OW98331   4.594   5.987   1.906
65500SOL    HW198332   4.510   6.023   1.935
65500SOL    HW298333   4.570   5.916   1.847
65501SOL     OW98334  14.684   2.434   5.404
65501SOL    HW198335  14.716   2.519   5.434
65501SOL    HW298336  14.693   2.377   5.481
65502SOL     OW98337  14.618   3.844   8.941
65502SOL    HW198338  14.576   3.930   8.936
65502SOL    HW298339  14.601   3.814   9.030
65503SOL     OW98340   6.723   1.407  11.794
65503SOL    HW198341   6.685   1.337  11.741
65503SOL    HW298342   6.796   1.440  11.742
65504SOL     OW98343  12.633   5.699   6.797
65504SOL    HW198344  12.648   5.640   6.870
65504SOL    HW298345  12.614   5.784   6.838
65505SOL     OW98346  12.610   2.647   9.440
65505SOL    HW198347  12.551   2.713   9.403
65505SOL    HW298348  12.666   2.696   9.500
65506SOL     OW98349  10.878  10.550   7.554
65506SOL    HW198350  10.864  10.487   7.483
65506SOL    HW298351  10.807  10.532   7.616
65507SOL     OW98352  12.618   2.562   0.501
65507SOL    HW198353  12.559   2.497   0.463
65507SOL    HW298354  12.561   2.634   0.529
65508SOL     OW98355   8.020   2.855   2.904
65508SOL    HW198356   7.942   2.908   2.923
65508SOL    HW298357   8.092   2.902   2.946
65509SOL     OW98358   3.688  10.690  12.105
65509SOL    HW198359   3.756  10.644  12.056
65509SOL    HW298360   3.670  10.768  12.053
65510SOL     OW98361  14.485   2.927   7.216
65510SOL    HW198362  14.516   2.974   7.294
65510SOL    HW298363  14.538   2.961   7.144
65511SOL     OW98364  10.074   8.990   2.540
65511SOL    HW198365  10.017   8.936   2.594
65511SOL    HW298366  10.014   9.041   2.485
65512SOL     OW98367   2.134   5.415  12.184
65512SOL    HW198368   2.181   5.499  12.182
65512SOL    HW298369   2.193   5.354  12.140
65513SOL     OW98370  11.289   6.863   8.168
65513SOL    HW198371  11.344   6.929   8.209
65513SOL    HW298372  11.349   6.790   8.150
65514SOL     OW98373  12.804   7.007  10.706
65514SOL    HW198374  12.840   7.001  10.795
65514SOL    HW298375  12.805   6.917  10.674
65515SOL     OW98376   7.466   0.534   5.944
65515SOL    HW198377   7.534   0.597   5.970
65515SOL    HW298378   7.478   0.461   6.005
65516SOL     OW98379   5.699   7.023   6.106
65516SOL    HW198380   5.627   7.084   6.119
65516SOL    HW298381   5.711   6.981   6.191
65517SOL     OW98382   8.015   2.452  14.141
65517SOL    HW198383   8.061   2.378  14.102
65517SOL    HW298384   8.070   2.479  14.214
65518SOL     OW98385  13.212   2.256   9.328
65518SOL    HW198386  13.149   2.196   9.288
65518SOL    HW298387  13.172   2.343   9.317
65519SOL     OW98388  11.429  12.130   2.597
65519SOL    HW198389  11.458  12.049   2.638
65519SOL    HW298390  11.504  12.160   2.546
65520SOL     OW98391  13.811   8.165  14.251
65520SOL    HW198392  13.818   8.231  14.320
65520SOL    HW298393  13.766   8.092  14.293
65521SOL     OW98394   3.697   9.078   8.071
65521SOL    HW198395   3.740   9.102   8.153
65521SOL    HW298396   3.670   8.987   8.085
65522SOL     OW98397   2.475   3.297   3.754
65522SOL    HW198398   2.548   3.266   3.807
65522SOL    HW298399   2.497   3.273   3.665
65523SOL     OW98400  13.922  12.800   2.488
65523SOL    HW198401  13.993  12.858   2.515
65523SOL    HW298402  13.926  12.799   2.392
65524SOL     OW98403  12.172   4.615   2.290
65524SOL    HW198404  12.182   4.569   2.374
65524SOL    HW298405  12.262   4.634   2.263
65525SOL     OW98406   1.593   8.434   4.851
65525SOL    HW198407   1.614   8.527   4.858
65525SOL    HW298408   1.537   8.416   4.926
65526SOL     OW98409  10.023   6.665  14.253
65526SOL    HW198410  10.105   6.689  14.210
65526SOL    HW298411   9.955   6.702  14.197
65527SOL     OW98412   4.892  10.223  14.115
65527SOL    HW198413   4.952  10.271  14.171
65527SOL    HW298414   4.813  10.277  14.112
65528SOL     OW98415   8.956   0.341   5.345
65528SOL    HW198416   9.032   0.362   5.400
65528SOL    HW298417   8.993   0.311   5.262
65529SOL     OW98418   2.725   5.131  13.246
65529SOL    HW198419   2.652   5.097  13.298
65529SOL    HW298420   2.787   5.165  13.310
65530SOL     OW98421  14.618   6.130   7.437
65530SOL    HW198422  14.687   6.154   7.499
65530SOL    HW298423  14.537   6.138   7.488
65531SOL     OW98424  11.736   9.454   2.722
65531SOL    HW198425  11.645   9.440   2.747
65531SOL    HW298426  11.733   9.528   2.661
65532SOL     OW98427   3.737  12.519   1.686
65532SOL    HW198428   3.812  12.568   1.652
65532SOL    HW298429   3.681  12.586   1.725
65533SOL     OW98430   0.244   7.321  14.724
65533SOL    HW198431   0.306   7.251  14.742
65533SOL    HW298432   0.163   7.295  14.769
65534SOL     OW98433   2.983  13.591   1.318
65534SOL    HW198434   2.990  13.601   1.223
65534SOL    HW298435   2.979  13.680   1.351
65535SOL     OW98436  11.088   2.658   9.002
65535SOL    HW198437  11.114   2.709   8.926
65535SOL    HW298438  11.025   2.714   9.048
65536SOL     OW98439   7.031  13.661   7.879
65536SOL    HW198440   7.115  13.706   7.867
65536SOL    HW298441   6.978  13.688   7.804
65537SOL     OW98442   9.891   1.401   9.447
65537SOL    HW198443   9.892   1.312   9.412
65537SOL    HW298444   9.867   1.390   9.539
65538SOL     OW98445  11.567   4.555   5.638
65538SOL    HW198446  11.575   4.585   5.547
65538SOL    HW298447  11.561   4.459   5.631
65539SOL     OW98448   4.530   4.773   8.196
65539SOL    HW198449   4.507   4.714   8.124
65539SOL    HW298450   4.625   4.782   8.191
65540SOL     OW98451   0.363   9.834  12.443
65540SOL    HW198452   0.299   9.905  12.437
65540SOL    HW298453   0.448   9.878  12.435
65541SOL     OW98454   7.104  13.543   4.438
65541SOL    HW198455   7.017  13.569   4.406
65541SOL    HW298456   7.097  13.549   4.533
65542SOL     OW98457   5.665   7.617   5.143
65542SOL    HW198458   5.660   7.522   5.141
65542SOL    HW298459   5.582   7.645   5.180
65543SOL     OW98460   2.973   2.006   4.689
65543SOL    HW198461   2.989   2.011   4.783
65543SOL    HW298462   2.885   1.969   4.681
65544SOL     OW98463  11.782   6.998   9.581
65544SOL    HW198464  11.811   7.089   9.578
65544SOL    HW298465  11.775   6.972   9.489
65545SOL     OW98466   9.698  11.836   1.835
65545SOL    HW198467   9.725  11.845   1.927
65545SOL    HW298468   9.777  11.852   1.784
65546SOL     OW98469   6.718   9.481   9.714
65546SOL    HW198470   6.646   9.531   9.674
65546SOL    HW298471   6.680   9.396   9.735
65547SOL     OW98472  14.156   7.300   8.109
65547SOL    HW198473  14.063   7.277   8.096
65547SOL    HW298474  14.203   7.218   8.096
65548SOL     OW98475  10.932  11.041   4.201
65548SOL    HW198476  10.978  11.071   4.123
65548SOL    HW298477  10.994  11.055   4.272
65549SOL     OW98478  11.417  14.751  13.205
65549SOL    HW198479  11.381  14.746  13.294
65549SOL    HW298480  11.367  14.820  13.163
65550SOL     OW98481  11.091   6.601   4.880
65550SOL    HW198482  11.112   6.644   4.797
65550SOL    HW298483  11.138   6.518   4.877
65551SOL     OW98484   6.249  11.464   9.030
65551SOL    HW198485   6.193  11.535   8.997
65551SOL    HW298486   6.268  11.489   9.121
65552SOL     OW98487  12.511  13.193   4.139
65552SOL    HW198488  12.450  13.159   4.205
65552SOL    HW298489  12.476  13.161   4.056
65553SOL     OW98490   0.680   1.200   0.836
65553SOL    HW198491   0.694   1.216   0.930
65553SOL    HW298492   0.587   1.220   0.822
65554SOL     OW98493   1.648   0.147   6.067
65554SOL    HW198494   1.612   0.232   6.093
65554SOL    HW298495   1.574   0.099   6.030
65555SOL     OW98496  11.317  13.443   0.489
65555SOL    HW198497  11.266  13.472   0.564
65555SOL    HW298498  11.251  13.414   0.425
65556SOL     OW98499  14.496  12.187   5.069
65556SOL    HW198500  14.424  12.190   5.006
65556SOL    HW298501  14.570  12.151   5.020
65557SOL     OW98502   7.846  12.108   4.271
65557SOL    HW198503   7.918  12.155   4.229
65557SOL    HW298504   7.801  12.064   4.199
65558SOL     OW98505   8.467  11.958   2.248
65558SOL    HW198506   8.541  11.949   2.309
65558SOL    HW298507   8.406  11.889   2.274
65559SOL     OW98508   4.558  10.043   1.087
65559SOL    HW198509   4.653  10.052   1.091
65559SOL    HW298510   4.543   9.951   1.069
65560SOL     OW98511  10.011   7.140   3.687
65560SOL    HW198512  10.050   7.219   3.725
65560SOL    HW298513  10.080   7.104   3.631
65561SOL     OW98514  13.352   3.747   6.745
65561SOL    HW198515  13.361   3.838   6.716
65561SOL    HW298516  13.260   3.740   6.771
65562SOL     OW98517   9.129  13.107   0.628
65562SOL    HW198518   9.104  13.100   0.535
65562SOL    HW298519   9.052  13.078   0.676
65563SOL     OW98520   2.856   3.709   8.085
65563SOL    HW198521   2.894   3.796   8.097
65563SOL    HW298522   2.911   3.668   8.018
65564SOL     OW98523  14.625  10.779   5.405
65564SOL    HW198524  14.667  10.714   5.461
65564SOL    HW298525  14.697  10.828   5.366
65565SOL     OW98526  11.965   8.096  11.781
65565SOL    HW198527  11.913   8.114  11.702
65565SOL    HW298528  11.957   8.002  11.794
65566SOL     OW98529   9.480   5.229  10.975
65566SOL    HW198530   9.460   5.304  11.031
65566SOL    HW298531   9.402   5.218  10.921
65567SOL     OW98532  10.894   9.491   0.871
65567SOL    HW198533  10.861   9.426   0.809
65567SOL    HW298534  10.892   9.573   0.822
65568SOL     OW98535  11.670   5.337  11.727
65568SOL    HW198536  11.595   5.279  11.739
65568SOL    HW298537  11.697   5.361  11.816
65569SOL     OW98538  13.893   9.667   1.978
65569SOL    HW198539  13.947   9.714   2.042
65569SOL    HW298540  13.916   9.575   1.989
65570SOL     OW98541   1.082   9.616   5.482
65570SOL    HW198542   1.158   9.617   5.539
65570SOL    HW298543   1.095   9.690   5.423
65571SOL     OW98544  14.399   2.731   3.538
65571SOL    HW198545  14.351   2.739   3.456
65571SOL    HW298546  14.480   2.685   3.514
65572SOL     OW98547   1.631   3.810  12.641
65572SOL    HW198548   1.553   3.866  12.647
65572SOL    HW298549   1.704   3.869  12.660
65573SOL     OW98550  13.451  14.446   9.913
65573SOL    HW198551  13.469  14.449   9.819
65573SOL    HW298552  13.522  14.394   9.950
65574SOL     OW98553  13.844  13.171  11.073
65574SOL    HW198554  13.877  13.082  11.060
65574SOL    HW298555  13.879  13.197  11.158
65575SOL     OW98556   6.167   5.001   2.038
65575SOL    HW198557   6.125   4.979   1.955
65575SOL    HW298558   6.260   4.988   2.022
65576SOL     OW98559   1.895   1.741   8.287
65576SOL    HW198560   1.828   1.675   8.269
65576SOL    HW298561   1.972   1.690   8.313
65577SOL     OW98562   4.393   5.619   8.489
65577SOL    HW198563   4.443   5.662   8.558
65577SOL    HW298564   4.426   5.529   8.488
65578SOL     OW98565   4.009  11.962   3.284
65578SOL    HW198566   4.066  11.992   3.355
65578SOL    HW298567   3.921  11.987   3.311
65579SOL     OW98568   4.726  10.560  13.302
65579SOL    HW198569   4.652  10.595  13.253
65579SOL    HW298570   4.790  10.632  13.302
65580SOL     OW98571  13.723   5.364   6.745
65580SOL    HW198572  13.701   5.283   6.791
65580SOL    HW298573  13.776   5.336   6.670
65581SOL     OW98574   0.374   6.389   5.588
65581SOL    HW198575   0.293   6.342   5.609
65581SOL    HW298576   0.442   6.322   5.591
65582SOL     OW98577   2.688   4.639   9.950
65582SOL    HW198578   2.681   4.545   9.968
65582SOL    HW298579   2.607   4.676   9.987
65583SOL     OW98580   5.481  10.414   2.949
65583SOL    HW198581   5.572  10.418   2.920
65583SOL    HW298582   5.460  10.503   2.976
65584SOL     OW98583   1.459   6.049   4.531
65584SOL    HW198584   1.388   6.080   4.586
65584SOL    HW298585   1.527   6.020   4.592
65585SOL     OW98586  14.078   7.475   6.755
65585SOL    HW198587  14.098   7.439   6.841
65585SOL    HW298588  13.992   7.515   6.765
65586SOL     OW98589   3.932   2.129   2.504
65586SOL    HW198590   4.012   2.100   2.548
65586SOL    HW298591   3.890   2.048   2.475
65587SOL     OW98592   9.506  12.071   3.188
65587SOL    HW198593   9.586  12.124   3.196
65587SOL    HW298594   9.499  12.052   3.095
65588SOL     OW98595  11.448  12.355   5.942
65588SOL    HW198596  11.389  12.411   5.993
65588SOL    HW298597  11.490  12.299   6.008
65589SOL     OW98598   2.151  13.086  13.528
65589SOL    HW198599   2.058  13.067  13.540
65589SOL    HW298600   2.164  13.084  13.433
65590SOL     OW98601   3.908  10.647  12.419
65590SOL    HW198602   3.929  10.680  12.506
65590SOL    HW298603   3.813  10.633  12.421
65591SOL     OW98604  13.135   9.829  12.420
65591SOL    HW198605  13.041   9.832  12.402
65591SOL    HW298606  13.144   9.864  12.509
65592SOL     OW98607  11.653  11.447   2.933
65592SOL    HW198608  11.730  11.483   2.976
65592SOL    HW298609  11.599  11.413   3.005
65593SOL     OW98610   9.597   0.787   9.778
65593SOL    HW198611   9.591   0.693   9.761
65593SOL    HW298612   9.678   0.797   9.828
65594SOL     OW98613  12.444   2.462   8.504
65594SOL    HW198614  12.403   2.539   8.463
65594SOL    HW298615  12.387   2.389   8.481
65595SOL     OW98616  10.463   0.159   4.914
65595SOL    HW198617  10.475   0.064   4.922
65595SOL    HW298618  10.373   0.169   4.882
65596SOL     OW98619  12.221  11.653  11.125
65596SOL    HW198620  12.278  11.577  11.131
65596SOL    HW298621  12.280  11.728  11.117
65597SOL     OW98622   6.077  13.169  11.610
65597SOL    HW198623   6.053  13.218  11.531
65597SOL    HW298624   6.010  13.192  11.674
65598SOL     OW98625   2.250   3.272   4.906
65598SOL    HW198626   2.286   3.185   4.925
65598SOL    HW298627   2.324   3.332   4.915
65599SOL     OW98628  11.941   2.659   7.878
65599SOL    HW198629  11.873   2.627   7.819
65599SOL    HW298630  11.896   2.671   7.962
65600SOL     OW98631   8.521  11.906   7.653
65600SOL    HW198632   8.600  11.899   7.599
65600SOL    HW298633   8.542  11.855   7.732
65601SOL     OW98634  10.290  13.062   1.862
65601SOL    HW198635  10.277  13.020   1.777
65601SOL    HW298636  10.230  13.017   1.921
65602SOL     OW98637   2.766   0.127   1.839
65602SOL    HW198638   2.685   0.178   1.831
65602SOL    HW298639   2.811   0.141   1.756
65603SOL     OW98640   3.126  13.142  12.438
65603SOL    HW198641   3.160  13.075  12.498
65603SOL    HW298642   3.200  13.161  12.380
65604SOL     OW98643   1.824  13.259   4.469
65604SOL    HW198644   1.780  13.193   4.415
65604SOL    HW298645   1.870  13.314   4.406
65605SOL     OW98646  14.159   7.106   9.580
65605SOL    HW198647  14.065   7.090   9.594
65605SOL    HW298648  14.200   7.081   9.662
65606SOL     OW98649   9.373   4.344  10.775
65606SOL    HW198650   9.411   4.428  10.749
65606SOL    HW298651   9.393   4.335  10.868
65607SOL     OW98652   8.039   0.213   7.678
65607SOL    HW198653   7.953   0.255   7.679
65607SOL    HW298654   8.067   0.218   7.586
65608SOL     OW98655  11.466  11.290   0.130
65608SOL    HW198656  11.393  11.232   0.151
65608SOL    HW298657  11.534  11.231   0.098
65609SOL     OW98658  12.919   0.896   5.798
65609SOL    HW198659  12.935   0.802   5.790
65609SOL    HW298660  12.929   0.914   5.891
65610SOL     OW98661   1.906  13.321  11.195
65610SOL    HW198662   1.941  13.274  11.271
65610SOL    HW298663   1.930  13.412  11.210
65611SOL     OW98664   7.001   3.934   5.408
65611SOL    HW198665   7.037   3.967   5.326
65611SOL    HW298666   7.077   3.922   5.465
65612SOL     OW98667  10.947   0.457  12.505
65612SOL    HW198668  11.008   0.530  12.514
65612SOL    HW298669  10.943   0.440  12.411
65613SOL     OW98670   5.844  11.473  10.652
65613SOL    HW198671   5.870  11.403  10.712
65613SOL    HW298672   5.892  11.550  10.684
65614SOL     OW98673   1.968  11.949   8.874
65614SOL    HW198674   1.959  11.943   8.778
65614SOL    HW298675   1.885  11.985   8.903
65615SOL     OW98676  14.326   4.553  12.772
65615SOL    HW198677  14.381   4.606  12.831
65615SOL    HW298678  14.377   4.547  12.691
65616SOL     OW98679   1.949  10.614   6.147
65616SOL    HW198680   1.902  10.665   6.213
65616SOL    HW298681   2.005  10.555   6.198
65617SOL     OW98682   4.485   8.288   7.989
65617SOL    HW198683   4.564   8.240   8.014
65617SOL    HW298684   4.509   8.335   7.909
65618SOL     OW98685   4.436  10.177  14.181
65618SOL    HW198686   4.472  10.099  14.138
65618SOL    HW298687   4.349  10.150  14.211
65619SOL     OW98688   2.424  14.016  10.595
65619SOL    HW198689   2.469  14.057  10.669
65619SOL    HW298690   2.413  14.086  10.531
65620SOL     OW98691  11.298  11.838   9.743
65620SOL    HW198692  11.217  11.882   9.767
65620SOL    HW298693  11.339  11.816   9.827
65621SOL     OW98694   6.184   3.428   2.278
65621SOL    HW198695   6.170   3.480   2.198
65621SOL    HW298696   6.097   3.398   2.303
65622SOL     OW98697   1.118   1.939   6.845
65622SOL    HW198698   1.026   1.918   6.831
65622SOL    HW298699   1.155   1.859   6.883
65623SOL     OW98700  10.179   8.717   4.887
65623SOL    HW198701  10.266   8.680   4.902
65623SOL    HW298702  10.172   8.790   4.948
65624SOL     OW98703   2.711   8.125   1.519
65624SOL    HW198704   2.662   8.142   1.600
65624SOL    HW298705   2.788   8.077   1.548
65625SOL     OW98706   2.518   8.405  14.540
65625SOL    HW198707   2.461   8.342  14.494
65625SOL    HW298708   2.541   8.361  14.622
65626SOL     OW98709   9.166   9.266  10.464
65626SOL    HW198710   9.200   9.295  10.548
65626SOL    HW298711   9.111   9.339  10.433
65627SOL     OW98712   3.939  10.713  13.980
65627SOL    HW198713   3.847  10.698  14.001
65627SOL    HW298714   3.940  10.730  13.886
65628SOL     OW98715  11.447  12.041   3.115
65628SOL    HW198716  11.504  12.074   3.046
65628SOL    HW298717  11.471  12.092   3.193
65629SOL     OW98718   3.070   4.542   3.715
65629SOL    HW198719   3.099   4.627   3.683
65629SOL    HW298720   3.081   4.483   3.640
65630SOL     OW98721   3.410   5.947   7.963
65630SOL    HW198722   3.385   5.876   8.023
65630SOL    HW298723   3.486   5.987   8.004
65631SOL     OW98724   3.536  11.487   2.789
65631SOL    HW198725   3.514  11.395   2.809
65631SOL    HW298726   3.525  11.532   2.873
65632SOL     OW98727   0.842   3.304  13.214
65632SOL    HW198728   0.810   3.272  13.130
65632SOL    HW298729   0.854   3.398  13.201
65633SOL     OW98730   5.870  11.405   9.663
65633SOL    HW198731   5.863  11.477   9.726
65633SOL    HW298732   5.876  11.449   9.578
65634SOL     OW98733   3.869   6.098  10.899
65634SOL    HW198734   3.823   6.098  10.815
65634SOL    HW298735   3.808   6.140  10.960
65635SOL     OW98736   8.006   3.956   1.280
65635SOL    HW198737   8.048   3.890   1.336
65635SOL    HW298738   7.939   3.908   1.232
65636SOL     OW98739   8.890   3.769  11.229
65636SOL    HW198740   8.816   3.723  11.189
65636SOL    HW298741   8.935   3.701  11.279
65637SOL     OW98742   4.854   1.582   9.681
65637SOL    HW198743   4.851   1.623   9.594
65637SOL    HW298744   4.946   1.561   9.694
65638SOL     OW98745  12.347   3.170   9.379
65638SOL    HW198746  12.339   3.173   9.474
65638SOL    HW298747  12.312   3.254   9.349
65639SOL     OW98748  12.571  11.939   0.322
65639SOL    HW198749  12.663  11.934   0.348
65639SOL    HW298750  12.527  11.871   0.373
65640SOL     OW98751   3.924  10.366   5.317
65640SOL    HW198752   4.019  10.370   5.327
65640SOL    HW298753   3.895  10.456   5.329
65641SOL     OW98754  11.604   1.182  14.862
65641SOL    HW198755  11.555   1.261  14.838
65641SOL    HW298756  11.628   1.196   0.082
65642SOL     OW98757   7.773  13.367  13.221
65642SOL    HW198758   7.779  13.357  13.316
65642SOL    HW298759   7.857  13.334  13.188
65643SOL     OW98760   3.354  10.485   0.606
65643SOL    HW198761   3.385  10.560   0.555
65643SOL    HW298762   3.373  10.509   0.697
65644SOL     OW98763   6.587   2.383   2.043
65644SOL    HW198764   6.519   2.386   2.111
65644SOL    HW298765   6.560   2.449   1.979
65645SOL     OW98766  13.198   6.940  14.662
65645SOL    HW198767  13.183   6.910  14.572
65645SOL    HW298768  13.142   6.883  14.715
65646SOL     OW98769   4.077   0.202   1.319
65646SOL    HW198770   4.162   0.164   1.299
65646SOL    HW298771   4.093   0.296   1.321
65647SOL     OW98772   1.167   9.056   3.793
65647SOL    HW198773   1.107   9.074   3.721
65647SOL    HW298774   1.253   9.054   3.753
65648SOL     OW98775  10.455  11.672   0.544
65648SOL    HW198776  10.473  11.706   0.456
65648SOL    HW298777  10.369  11.708   0.566
65649SOL     OW98778   5.543   7.256   6.748
65649SOL    HW198779   5.455   7.281   6.777
65649SOL    HW298780   5.600   7.279   6.822
65650SOL     OW98781   2.160   2.761   0.566
65650SOL    HW198782   2.126   2.787   0.481
65650SOL    HW298783   2.111   2.813   0.629
65651SOL     OW98784   0.547  13.466  13.523
65651SOL    HW198785   0.561  13.373  13.507
65651SOL    HW298786   0.457  13.472  13.555
65652SOL     OW98787  10.590   7.087   1.960
65652SOL    HW198788  10.549   7.048   1.882
65652SOL    HW298789  10.590   7.181   1.943
65653SOL     OW98790   1.467   0.598   7.246
65653SOL    HW198791   1.477   0.503   7.251
65653SOL    HW298792   1.525   0.632   7.314
65654SOL     OW98793   8.705   5.214  10.404
65654SOL    HW198794   8.786   5.174  10.371
65654SOL    HW298795   8.726   5.238  10.494
65655SOL     OW98796   7.853   6.992   3.562
65655SOL    HW198797   7.856   6.965   3.470
65655SOL    HW298798   7.945   7.007   3.585
65656SOL     OW98799   7.904  10.985   9.854
65656SOL    HW198800   7.836  10.966   9.919
65656SOL    HW298801   7.984  10.948   9.891
65657SOL     OW98802   7.729   9.717   1.043
65657SOL    HW198803   7.765   9.739   1.129
65657SOL    HW298804   7.637   9.697   1.061
65658SOL     OW98805  13.894   7.511   4.842
65658SOL    HW198806  13.831   7.441   4.824
65658SOL    HW298807  13.847   7.571   4.900
65659SOL     OW98808   8.727  11.677  14.369
65659SOL    HW198809   8.780  11.755  14.353
65659SOL    HW298810   8.751  11.617  14.298
65660SOL     OW98811   5.655   9.797  12.696
65660SOL    HW198812   5.645   9.720  12.641
65660SOL    HW298813   5.705   9.766  12.771
65661SOL     OW98814   2.539   3.455   1.155
65661SOL    HW198815   2.565   3.454   1.063
65661SOL    HW298816   2.593   3.388   1.196
65662SOL     OW98817  14.433   3.931   1.306
65662SOL    HW198818  14.411   3.857   1.249
65662SOL    HW298819  14.405   4.008   1.257
65663SOL     OW98820   8.655   1.506   6.674
65663SOL    HW198821   8.692   1.469   6.594
65663SOL    HW298822   8.563   1.480   6.672
65664SOL     OW98823   8.007   7.898  13.593
65664SOL    HW198824   8.065   7.972  13.574
65664SOL    HW298825   8.039   7.827  13.537
65665SOL     OW98826  14.537  12.046   8.187
65665SOL    HW198827  14.605  11.980   8.199
65665SOL    HW298828  14.455  12.000   8.205
65666SOL     OW98829  14.462  13.370  14.582
65666SOL    HW198830  14.447  13.275  14.582
65666SOL    HW298831  14.557  13.379  14.582
65667SOL     OW98832   3.813   8.752   3.862
65667SOL    HW198833   3.873   8.685   3.829
65667SOL    HW298834   3.788   8.721   3.949
65668SOL     OW98835  10.081   7.869  14.043
65668SOL    HW198836  10.009   7.931  14.029
65668SOL    HW298837  10.135   7.877  13.965
65669SOL     OW98838  13.126  13.820  14.392
65669SOL    HW198839  13.161  13.822  14.481
65669SOL    HW298840  13.032  13.803  14.404
65670SOL     OW98841   8.813   8.031   4.267
65670SOL    HW198842   8.817   8.007   4.359
65670SOL    HW298843   8.751   8.104   4.263
65671SOL     OW98844   3.352  13.428   9.120
65671SOL    HW198845   3.335  13.425   9.026
65671SOL    HW298846   3.349  13.521   9.142
65672SOL     OW98847   0.893   3.533  14.696
65672SOL    HW198848   0.847   3.559  14.616
65672SOL    HW298849   0.980   3.505  14.666
65673SOL     OW98850   3.529   5.617   4.333
65673SOL    HW198851   3.515   5.528   4.364
65673SOL    HW298852   3.524   5.611   4.238
65674SOL     OW98853   0.860   9.118  14.617
65674SOL    HW198854   0.924   9.166  14.564
65674SOL    HW298855   0.906   9.099  14.699
65675SOL     OW98856   7.908   5.623   5.938
65675SOL    HW198857   7.875   5.570   5.865
65675SOL    HW298858   7.943   5.702   5.897
65676SOL     OW98859   4.559   9.498   0.194
65676SOL    HW198860   4.479   9.515   0.244
65676SOL    HW298861   4.629   9.500   0.260
65677SOL     OW98862   6.722   7.925   1.838
65677SOL    HW198863   6.685   7.885   1.760
65677SOL    HW298864   6.788   7.986   1.805
65678SOL     OW98865   1.202   5.920   9.988
65678SOL    HW198866   1.271   5.961  10.040
65678SOL    HW298867   1.144   5.992   9.964
65679SOL     OW98868   3.556   9.671   9.729
65679SOL    HW198869   3.549   9.579   9.754
65679SOL    HW298870   3.515   9.675   9.642
65680SOL     OW98871   7.153   1.743   6.313
65680SOL    HW198872   7.160   1.713   6.222
65680SOL    HW298873   7.235   1.715   6.354
65681SOL     OW98874   5.324   2.424  14.514
65681SOL    HW198875   5.348   2.426  14.422
65681SOL    HW298876   5.229   2.437  14.515
65682SOL     OW98877   9.256  14.206   2.493
65682SOL    HW198878   9.323  14.142   2.520
65682SOL    HW298879   9.211  14.229   2.575
65683SOL     OW98880   9.902   2.301  13.978
65683SOL    HW198881   9.852   2.373  14.017
65683SOL    HW298882   9.985   2.300  14.026
65684SOL     OW98883   4.132   0.522   7.673
65684SOL    HW198884   4.103   0.601   7.629
65684SOL    HW298885   4.167   0.552   7.756
65685SOL     OW98886   9.894   0.963   4.059
65685SOL    HW198887   9.864   0.875   4.036
65685SOL    HW298888   9.903   1.009   3.976
65686SOL     OW98889   1.817  10.635   5.382
65686SOL    HW198890   1.773  10.673   5.458
65686SOL    HW298891   1.803  10.541   5.391
65687SOL     OW98892   3.526   5.433   6.850
65687SOL    HW198893   3.439   5.395   6.842
65687SOL    HW298894   3.570   5.379   6.916
65688SOL     OW98895   3.050   7.407   4.226
65688SOL    HW198896   3.064   7.355   4.147
65688SOL    HW298897   2.970   7.457   4.208
65689SOL     OW98898  10.365   1.169  14.792
65689SOL    HW198899  10.447   1.208  14.761
65689SOL    HW298900  10.298   1.208  14.736
65690SOL     OW98901  12.036  11.561  12.075
65690SOL    HW198902  11.993  11.646  12.064
65690SOL    HW298903  12.002  11.507  12.004
65691SOL     OW98904  13.124  10.281   2.549
65691SOL    HW198905  13.217  10.300   2.535
65691SOL    HW298906  13.114  10.279   2.644
65692SOL     OW98907  13.320   8.979   3.451
65692SOL    HW198908  13.345   8.988   3.359
65692SOL    HW298909  13.226   8.999   3.452
65693SOL     OW98910   9.782   1.038  10.156
65693SOL    HW198911   9.782   0.966  10.094
65693SOL    HW298912   9.869   1.035  10.196
65694SOL     OW98913   8.716  12.076   6.949
65694SOL    HW198914   8.652  12.123   6.896
65694SOL    HW298915   8.703  12.109   7.038
65695SOL     OW98916   5.438   2.951   8.043
65695SOL    HW198917   5.500   2.897   8.091
65695SOL    HW298918   5.399   2.893   7.978
65696SOL     OW98919  11.650   7.708   9.380
65696SOL    HW198920  11.587   7.684   9.312
65696SOL    HW298921  11.614   7.670   9.460
65697SOL     OW98922   9.152   0.376   1.880
65697SOL    HW198923   9.152   0.470   1.897
65697SOL    HW298924   9.062   0.357   1.852
65698SOL     OW98925   1.469   9.243  12.527
65698SOL    HW198926   1.475   9.276  12.617
65698SOL    HW298927   1.435   9.154  12.537
65699SOL     OW98928   0.524   0.053  12.993
65699SOL    HW198929   0.581  14.860  13.036
65699SOL    HW298930   0.437   0.015  12.999
65700SOL     OW98931   8.234   6.988   9.886
65700SOL    HW198932   8.248   6.925   9.956
65700SOL    HW298933   8.322   7.014   9.859
65701SOL     OW98934   8.358  11.603   3.975
65701SOL    HW198935   8.400  11.521   4.001
65701SOL    HW298936   8.345  11.594   3.880
65702SOL     OW98937  14.696   8.062   4.232
65702SOL    HW198938  14.624   8.045   4.172
65702SOL    HW298939  14.678   8.150   4.266
65703SOL     OW98940  13.543   0.569   0.302
65703SOL    HW198941  13.618   0.529   0.256
65703SOL    HW298942  13.576   0.585   0.391
65704SOL     OW98943   6.210  11.808   0.755
65704SOL    HW198944   6.269  11.777   0.824
65704SOL    HW298945   6.265  11.866   0.701
65705SOL     OW98946   4.241   1.108  10.892
65705SOL    HW198947   4.270   1.135  10.979
65705SOL    HW298948   4.185   1.179  10.861
65706SOL     OW98949   3.289   1.746  14.301
65706SOL    HW198950   3.234   1.673  14.330
65706SOL    HW298951   3.339   1.770  14.379
65707SOL     OW98952   7.732   7.847   8.676
65707SOL    HW198953   7.638   7.845   8.659
65707SOL    HW298954   7.739   7.848   8.772
65708SOL     OW98955   9.933  11.521   7.836
65708SOL    HW198956  10.022  11.556   7.833
65708SOL    HW298957   9.920  11.480   7.751
65709SOL     OW98958  11.008  10.391   3.245
65709SOL    HW198959  11.098  10.377   3.214
65709SOL    HW298960  10.982  10.305   3.280
65710SOL     OW98961  13.399   4.332   3.734
65710SOL    HW198962  13.369   4.248   3.697
65710SOL    HW298963  13.337   4.396   3.700
65711SOL     OW98964   6.002   8.634  12.534
65711SOL    HW198965   5.926   8.633  12.592
65711SOL    HW298966   5.970   8.672  12.452
65712SOL     OW98967   0.882  10.662  11.254
65712SOL    HW198968   0.821  10.711  11.199
65712SOL    HW298969   0.828  10.596  11.297
65713SOL     OW98970   2.150   5.336   0.083
65713SOL    HW198971   2.209   5.268   0.115
65713SOL    HW298972   2.180   5.416   0.127
65714SOL     OW98973   6.506   3.432   1.315
65714SOL    HW198974   6.501   3.423   1.410
65714SOL    HW298975   6.434   3.491   1.292
65715SOL     OW98976   6.102   5.286  14.294
65715SOL    HW198977   6.028   5.252  14.244
65715SOL    HW298978   6.155   5.209  14.314
65716SOL     OW98979  10.131  10.731   4.856
65716SOL    HW198980  10.198  10.675   4.818
65716SOL    HW298981  10.141  10.815   4.812
65717SOL     OW98982   9.414   4.552  10.978
65717SOL    HW198983   9.448   4.474  11.023
65717SOL    HW298984   9.488   4.613  10.976
65718SOL     OW98985  11.895   2.505   2.873
65718SOL    HW198986  11.852   2.565   2.935
65718SOL    HW298987  11.838   2.428   2.871
65719SOL     OW98988   0.032   6.089  13.086
65719SOL    HW198989   0.115   6.118  13.048
65719SOL    HW298990   0.039   5.994  13.088
65720SOL     OW98991  14.449   5.694   5.998
65720SOL    HW198992  14.415   5.612   6.033
65720SOL    HW298993  14.421   5.760   6.062
65721SOL     OW98994  12.321  10.969   0.768
65721SOL    HW198995  12.259  10.924   0.710
65721SOL    HW298996  12.323  10.915   0.847
65722SOL     OW98997   3.715   6.889   8.896
65722SOL    HW198998   3.656   6.965   8.892
65722SOL    HW298999   3.703   6.855   8.985
65723SOL     OW99000  12.129   8.700  11.016
65723SOL    HW199001  12.194   8.658  11.071
65723SOL    HW299002  12.179   8.732  10.940
65724SOL     OW99003   4.972  14.771  12.349
65724SOL    HW199004   4.926  14.698  12.306
65724SOL    HW299005   4.986  14.835  12.279
65725SOL     OW99006  13.690   2.470  13.741
65725SOL    HW199007  13.718   2.391  13.696
65725SOL    HW299008  13.607   2.493  13.700
65726SOL     OW99009  13.431  11.883  13.590
65726SOL    HW199010  13.462  11.857  13.677
65726SOL    HW299011  13.451  11.808  13.534
65727SOL     OW99012   2.144   1.252   6.634
65727SOL    HW199013   2.103   1.165   6.635
65727SOL    HW299014   2.075   1.311   6.664
65728SOL     OW99015   0.651   0.496  11.514
65728SOL    HW199016   0.709   0.424  11.487
65728SOL    HW299017   0.579   0.493  11.451
65729SOL     OW99018   6.322   8.981   0.373
65729SOL    HW199019   6.323   9.014   0.283
65729SOL    HW299020   6.367   9.049   0.424
65730SOL     OW99021   1.468   8.356   8.192
65730SOL    HW199022   1.413   8.414   8.140
65730SOL    HW299023   1.522   8.310   8.128
65731SOL     OW99024   5.757   4.648  13.992
65731SOL    HW199025   5.773   4.611  14.079
65731SOL    HW299026   5.662   4.643  13.981
65732SOL     OW99027   5.454   0.307  13.773
65732SOL    HW199028   5.543   0.341  13.781
65732SOL    HW299029   5.399   0.376  13.810
65733SOL     OW99030   8.818  13.317  13.807
65733SOL    HW199031   8.904  13.351  13.830
65733SOL    HW299032   8.771  13.393  13.771
65734SOL     OW99033   9.711   8.596   9.286
65734SOL    HW199034   9.665   8.649   9.221
65734SOL    HW299035   9.767   8.539   9.234
65735SOL     OW99036  12.227   7.102   1.444
65735SOL    HW199037  12.218   7.071   1.534
65735SOL    HW299038  12.137   7.105   1.411
65736SOL     OW99039  11.330   1.279   7.654
65736SOL    HW199040  11.286   1.364   7.659
65736SOL    HW299041  11.261   1.215   7.673
65737SOL     OW99042  12.615  10.154   7.491
65737SOL    HW199043  12.597  10.086   7.426
65737SOL    HW299044  12.561  10.228   7.463
65738SOL     OW99045   2.799   6.062  12.956
65738SOL    HW199046   2.740   6.103  12.894
65738SOL    HW299047   2.862   6.014  12.902
65739SOL     OW99048   3.246   7.771   9.484
65739SOL    HW199049   3.159   7.779   9.445
65739SOL    HW299050   3.273   7.861   9.503
65740SOL     OW99051   0.200  13.971   8.598
65740SOL    HW199052   0.105  13.973   8.612
65740SOL    HW299053   0.210  13.993   8.505
65741SOL     OW99054   6.556  11.917   9.125
65741SOL    HW199055   6.616  11.880   9.190
65741SOL    HW299056   6.587  11.881   9.042
65742SOL     OW99057   0.436   0.927   6.617
65742SOL    HW199058   0.493   0.932   6.694
65742SOL    HW299059   0.364   0.870   6.643
65743SOL     OW99060   2.587  14.180   8.166
65743SOL    HW199061   2.680  14.198   8.152
65743SOL    HW299062   2.586  14.117   8.238
65744SOL     OW99063   1.434   0.045  12.471
65744SOL    HW199064   1.501   0.003  12.416
65744SOL    HW299065   1.458   0.021  12.560
65745SOL     OW99066  13.060  11.944  11.796
65745SOL    HW199067  13.094  11.997  11.869
65745SOL    HW299068  12.965  11.947  11.806
65746SOL     OW99069   9.687   2.823   9.246
65746SOL    HW199070   9.746   2.855   9.314
65746SOL    HW299071   9.744   2.804   9.171
65747SOL     OW99072   8.261   0.986  12.790
65747SOL    HW199073   8.310   1.066  12.773
65747SOL    HW299074   8.170   1.015  12.802
65748SOL     OW99075  13.962  11.252   8.034
65748SOL    HW199076  13.903  11.227   8.105
65748SOL    HW299077  13.938  11.343   8.014
65749SOL     OW99078  10.472   7.970  13.706
65749SOL    HW199079  10.524   8.015  13.773
65749SOL    HW299080  10.472   8.029  13.631
65750SOL     OW99081   0.109   0.756   4.320
65750SOL    HW199082   0.037   0.696   4.340
65750SOL    HW299083   0.114   0.814   4.396
65751SOL     OW99084  11.106  10.573   5.973
65751SOL    HW199085  11.143  10.633   6.038
65751SOL    HW299086  11.012  10.574   5.990
65752SOL     OW99087  14.654   4.872   8.539
65752SOL    HW199088  14.691   4.947   8.585
65752SOL    HW299089  14.566   4.861   8.577
65753SOL     OW99090  14.581   1.930  12.759
65753SOL    HW199091  14.557   1.876  12.684
65753SOL    HW299092  14.670   1.959  12.740
65754SOL     OW99093   1.494  12.341  12.121
65754SOL    HW199094   1.586  12.363  12.133
65754SOL    HW299095   1.466  12.394  12.046
65755SOL     OW99096  11.751  14.310  11.341
65755SOL    HW199097  11.772  14.286  11.251
65755SOL    HW299098  11.754  14.406  11.341
65756SOL     OW99099   1.380   9.050   6.172
65756SOL    HW199100   1.290   9.082   6.176
65756SOL    HW299101   1.433   9.128   6.156
65757SOL     OW99102   8.128   0.352   8.057
65757SOL    HW199103   8.209   0.369   8.105
65757SOL    HW299104   8.059   0.358   8.123
65758SOL     OW99105  14.454   0.686   7.485
65758SOL    HW199106  14.544   0.682   7.517
65758SOL    HW299107  14.439   0.778   7.467
65759SOL     OW99108   9.508   6.893  11.130
65759SOL    HW199109   9.490   6.862  11.041
65759SOL    HW299110   9.424   6.887  11.175
65760SOL     OW99111  12.525  11.755  14.252
65760SOL    HW199112  12.520  11.669  14.294
65760SOL    HW299113  12.566  11.811  14.318
65761SOL     OW99114  14.708   5.843   4.107
65761SOL    HW199115  14.678   5.782   4.040
65761SOL    HW299116  14.788   5.805   4.141
65762SOL     OW99117   1.913   9.766  14.552
65762SOL    HW199118   1.924   9.688  14.606
65762SOL    HW299119   1.821   9.763  14.523
65763SOL     OW99120   4.608   7.727  12.746
65763SOL    HW199121   4.692   7.761  12.776
65763SOL    HW299122   4.599   7.762  12.657
65764SOL     OW99123   8.687  10.050   8.009
65764SOL    HW199124   8.615  10.089   7.961
65764SOL    HW299125   8.678   9.956   7.993
65765SOL     OW99126   1.187   4.164   7.790
65765SOL    HW199127   1.155   4.235   7.734
65765SOL    HW299128   1.136   4.171   7.870
65766SOL     OW99129   1.446   9.543  14.086
65766SOL    HW199130   1.456   9.488  14.164
65766SOL    HW299131   1.360   9.583  14.096
65767SOL     OW99132   6.788   1.182   5.641
65767SOL    HW199133   6.715   1.177   5.579
65767SOL    HW299134   6.822   1.271   5.631
65768SOL     OW99135   6.520  14.817  11.444
65768SOL    HW199136   6.584  14.842  11.510
65768SOL    HW299137   6.551  14.732  11.412
65769SOL     OW99138   2.448  10.723   3.764
65769SOL    HW199139   2.424  10.803   3.717
65769SOL    HW299140   2.382  10.659   3.738
65770SOL     OW99141   8.949   8.150   2.642
65770SOL    HW199142   9.004   8.130   2.566
65770SOL    HW299143   8.863   8.170   2.604
65771SOL     OW99144   0.716   7.069   3.665
65771SOL    HW199145   0.686   6.978   3.672
65771SOL    HW299146   0.650   7.111   3.610
65772SOL     OW99147  14.725   4.868   2.631
65772SOL    HW199148  14.784   4.834   2.698
65772SOL    HW299149  14.779   4.871   2.552
65773SOL     OW99150   4.796   4.752   5.777
65773SOL    HW199151   4.826   4.780   5.863
65773SOL    HW299152   4.702   4.737   5.788
65774SOL     OW99153  11.608   0.266   8.765
65774SOL    HW199154  11.638   0.211   8.837
65774SOL    HW299155  11.513   0.249   8.760
65775SOL     OW99156   6.597   8.225  13.550
65775SOL    HW199157   6.688   8.230  13.520
65775SOL    HW299158   6.560   8.310  13.529
65776SOL     OW99159  14.623   2.845  10.980
65776SOL    HW199160  14.556   2.819  10.917
65776SOL    HW299161  14.669   2.917  10.937
65777SOL     OW99162  11.534  11.815   7.519
65777SOL    HW199163  11.622  11.803   7.554
65777SOL    HW299164  11.499  11.726   7.510
65778SOL     OW99165   5.047   5.724   9.251
65778SOL    HW199166   4.984   5.725   9.323
65778SOL    HW299167   5.126   5.766   9.286
65779SOL     OW99168   6.328   3.550  10.275
65779SOL    HW199169   6.271   3.472  10.274
65779SOL    HW299170   6.278   3.616  10.227
65780SOL     OW99171  13.263   9.651   4.271
65780SOL    HW199172  13.292   9.687   4.187
65780SOL    HW299173  13.237   9.561   4.251
65781SOL     OW99174   5.248   1.382  10.294
65781SOL    HW199175   5.155   1.366  10.310
65781SOL    HW299176   5.260   1.364  10.201
65782SOL     OW99177   6.353   5.110  13.524
65782SOL    HW199178   6.375   5.134  13.613
65782SOL    HW299179   6.430   5.063  13.491
65783SOL     OW99180   2.354  12.950   4.776
65783SOL    HW199181   2.330  12.934   4.867
65783SOL    HW299182   2.363  12.862   4.738
65784SOL     OW99183  14.129  13.833  14.423
65784SOL    HW199184  14.174  13.808  14.503
65784SOL    HW299185  14.199  13.846  14.359
65785SOL     OW99186   6.214  14.302   9.992
65785SOL    HW199187   6.221  14.314   9.897
65785SOL    HW299188   6.186  14.211  10.002
65786SOL     OW99189   0.617   9.635   8.961
65786SOL    HW199190   0.614   9.587   9.043
65786SOL    HW299191   0.656   9.720   8.984
65787SOL     OW99192  12.525   6.859  13.044
65787SOL    HW199193  12.447   6.914  13.053
65787SOL    HW299194  12.594   6.921  13.018
65788SOL     OW99195  14.676   3.412   2.117
65788SOL    HW199196  14.732   3.345   2.079
65788SOL    HW299197  14.615   3.364   2.173
65789SOL     OW99198  13.431  13.494  14.195
65789SOL    HW199199  13.399  13.459  14.278
65789SOL    HW299200  13.376  13.570  14.177
65790SOL     OW99201   1.788   5.294  13.186
65790SOL    HW199202   1.798   5.209  13.229
65790SOL    HW299203   1.828   5.357  13.246
65791SOL     OW99204  14.712  11.589   3.736
65791SOL    HW199205  14.797  11.616   3.770
65791SOL    HW299206  14.675  11.533   3.805
65792SOL     OW99207   5.519   7.640   2.042
65792SOL    HW199208   5.549   7.685   2.120
65792SOL    HW299209   5.437   7.685   2.019
65793SOL     OW99210  14.376  14.203   1.445
65793SOL    HW199211  14.301  14.238   1.398
65793SOL    HW299212  14.356  14.217   1.538
65794SOL     OW99213  10.405   7.940  14.425
65794SOL    HW199214  10.345   7.970  14.357
65794SOL    HW299215  10.444   7.860  14.389
65795SOL     OW99216   4.736   3.441   2.546
65795SOL    HW199217   4.764   3.422   2.635
65795SOL    HW299218   4.754   3.534   2.535
65796SOL     OW99219   3.709   8.232  13.249
65796SOL    HW199220   3.653   8.228  13.327
65796SOL    HW299221   3.755   8.315  13.257
65797SOL     OW99222   8.999   3.628   6.103
65797SOL    HW199223   9.043   3.674   6.032
65797SOL    HW299224   8.923   3.587   6.061
65798SOL     OW99225   0.766   9.285  12.689
65798SOL    HW199226   0.849   9.243  12.667
65798SOL    HW299227   0.710   9.214  12.720
65799SOL     OW99228   8.130  11.386  14.525
65799SOL    HW199229   8.200  11.321  14.528
65799SOL    HW299230   8.065  11.354  14.589
65800SOL     OW99231  14.108   0.324   8.831
65800SOL    HW199232  14.089   0.414   8.807
65800SOL    HW299233  14.037   0.273   8.791
65801SOL     OW99234   4.895   6.898   5.308
65801SOL    HW199235   4.871   6.872   5.219
65801SOL    HW299236   4.853   6.984   5.319
65802SOL     OW99237   7.663  12.579  13.519
65802SOL    HW199238   7.588  12.624  13.480
65802SOL    HW299239   7.735  12.642  13.510
65803SOL     OW99240  12.338   4.839  14.337
65803SOL    HW199241  12.368   4.756  14.375
65803SOL    HW299242  12.259   4.861  14.385
65804SOL     OW99243   8.872   4.295   4.117
65804SOL    HW199244   8.929   4.271   4.189
65804SOL    HW299245   8.823   4.371   4.150
65805SOL     OW99246   0.132  14.060  12.102
65805SOL    HW199247   0.192  14.090  12.034
65805SOL    HW299248   0.127  14.133  12.164
65806SOL     OW99249  13.318   6.789   4.614
65806SOL    HW199250  13.327   6.847   4.689
65806SOL    HW299251  13.226   6.763   4.614
65807SOL     OW99252   2.570   1.419   8.347
65807SOL    HW199253   2.641   1.393   8.406
65807SOL    HW299254   2.540   1.503   8.381
65808SOL     OW99255   9.446  10.203   0.334
65808SOL    HW199256   9.420  10.174   0.247
65808SOL    HW299257   9.396  10.284   0.348
65809SOL     OW99258  11.040  13.289   8.042
65809SOL    HW199259  11.114  13.264   7.987
65809SOL    HW299260  11.080  13.311   8.126
65810SOL     OW99261  12.151  13.100  11.221
65810SOL    HW199262  12.141  13.174  11.280
65810SOL    HW299263  12.130  13.135  11.134
65811SOL     OW99264   9.421  14.241   2.087
65811SOL    HW199265   9.444  14.228   1.995
65811SOL    HW299266   9.498  14.211   2.135
65812SOL     OW99267  11.066   1.099  11.868
65812SOL    HW199268  11.018   1.017  11.875
65812SOL    HW299269  11.158   1.073  11.870
65813SOL     OW99270   9.877  10.419   0.373
65813SOL    HW199271   9.825  10.390   0.298
65813SOL    HW299272   9.946  10.472   0.334
65814SOL     OW99273   8.222  11.938   1.161
65814SOL    HW199274   8.196  11.846   1.165
65814SOL    HW299275   8.179  11.972   1.083
65815SOL     OW99276   6.215   2.908   3.785
65815SOL    HW199277   6.266   2.985   3.760
65815SOL    HW299278   6.274   2.834   3.770
65816SOL     OW99279   3.188   8.351  13.498
65816SOL    HW199280   3.164   8.341  13.405
65816SOL    HW299281   3.122   8.410  13.533
65817SOL     OW99282   0.185   2.979  11.444
65817SOL    HW199283   0.255   3.044  11.457
65817SOL    HW299284   0.227   2.907  11.397
65818SOL     OW99285   6.788   4.156   8.648
65818SOL    HW199286   6.714   4.216   8.647
65818SOL    HW299287   6.768   4.091   8.581
65819SOL     OW99288  12.521   5.446   0.597
65819SOL    HW199289  12.513   5.394   0.678
65819SOL    HW299290  12.615   5.452   0.582
65820SOL     OW99291   6.228   5.232   0.367
65820SOL    HW199292   6.252   5.238   0.459
65820SOL    HW299293   6.227   5.323   0.337
65821SOL     OW99294   9.372  12.108   0.730
65821SOL    HW199295   9.451  12.074   0.773
65821SOL    HW299296   9.392  12.103   0.637
65822SOL     OW99297   5.823   7.873  11.634
65822SOL    HW199298   5.732   7.904  11.633
65822SOL    HW299299   5.874   7.952  11.618
65823SOL     OW99300  13.373  12.341   8.972
65823SOL    HW199301  13.445  12.286   9.003
65823SOL    HW299302  13.345  12.300   8.890
65824SOL     OW99303  11.608  14.628   0.711
65824SOL    HW199304  11.639  14.680   0.785
65824SOL    HW299305  11.688  14.599   0.667
65825SOL     OW99306   5.793   6.908   2.473
65825SOL    HW199307   5.771   6.836   2.414
65825SOL    HW299308   5.769   6.875   2.560
65826SOL     OW99309   1.609  13.299   5.291
65826SOL    HW199310   1.631  13.246   5.367
65826SOL    HW299311   1.516  13.322   5.302
65827SOL     OW99312   1.565   8.042  10.085
65827SOL    HW199313   1.486   7.994  10.111
65827SOL    HW299314   1.629   8.022  10.155
65828SOL     OW99315  10.293   9.423   5.966
65828SOL    HW199316  10.266   9.509   5.999
65828SOL    HW299317  10.388   9.431   5.953
65829SOL     OW99318  13.924   7.356   8.876
65829SOL    HW199319  13.848   7.328   8.927
65829SOL    HW299320  13.995   7.363   8.940
65830SOL     OW99321   9.647   7.350  14.169
65830SOL    HW199322   9.597   7.395  14.238
65830SOL    HW299323   9.738   7.375  14.185
65831SOL     OW99324   0.988   4.905   7.211
65831SOL    HW199325   0.928   4.843   7.169
65831SOL    HW299326   0.957   4.991   7.183
65832SOL     OW99327   5.228  12.485   7.797
65832SOL    HW199328   5.209  12.567   7.752
65832SOL    HW299329   5.164  12.481   7.868
65833SOL     OW99330  10.151   8.119   7.607
65833SOL    HW199331  10.151   8.105   7.512
65833SOL    HW299332  10.237   8.156   7.626
65834SOL     OW99333   1.231   9.965   0.427
65834SOL    HW199334   1.256   9.889   0.479
65834SOL    HW299335   1.227  10.037   0.491
65835SOL     OW99336  11.143   8.135   5.697
65835SOL    HW199337  11.134   8.175   5.611
65835SOL    HW299338  11.214   8.184   5.739
65836SOL     OW99339  12.099   0.664  10.058
65836SOL    HW199340  12.017   0.678  10.106
65836SOL    HW299341  12.088   0.711   9.976
65837SOL     OW99342   1.399  12.066  13.320
65837SOL    HW199343   1.473  12.039  13.265
65837SOL    HW299344   1.427  12.149  13.359
65838SOL     OW99345  10.766   7.278   8.069
65838SOL    HW199346  10.827   7.253   7.999
65838SOL    HW299347  10.802   7.360   8.103
65839SOL     OW99348   3.841   5.382   1.095
65839SOL    HW199349   3.877   5.315   1.037
65839SOL    HW299350   3.807   5.332   1.170
65840SOL     OW99351  11.699   5.798   8.360
65840SOL    HW199352  11.764   5.786   8.429
65840SOL    HW299353  11.629   5.736   8.383
65841SOL     OW99354   1.195   4.547   6.621
65841SOL    HW199355   1.178   4.460   6.585
65841SOL    HW299356   1.109   4.589   6.624
65842SOL     OW99357   3.590   0.443  11.683
65842SOL    HW199358   3.573   0.361  11.728
65842SOL    HW299359   3.539   0.438  11.602
65843SOL     OW99360   7.441  11.805   6.517
65843SOL    HW199361   7.452  11.710   6.523
65843SOL    HW299362   7.346  11.818   6.510
65844SOL     OW99363   0.357   8.227   6.019
65844SOL    HW199364   0.389   8.314   5.996
65844SOL    HW299365   0.262   8.237   6.023
65845SOL     OW99366   4.288   3.078   9.878
65845SOL    HW199367   4.211   3.103   9.827
65845SOL    HW299368   4.362   3.088   9.819
65846SOL     OW99369   0.048   4.548  11.348
65846SOL    HW199370   0.068   4.461  11.312
65846SOL    HW299371  14.830   4.540  11.381
65847SOL     OW99372  13.217   3.090  10.742
65847SOL    HW199373  13.270   3.166  10.719
65847SOL    HW299374  13.246   3.021  10.683
65848SOL     OW99375   1.256   1.110   8.342
65848SOL    HW199376   1.239   1.203   8.325
65848SOL    HW299377   1.196   1.063   8.285
65849SOL     OW99378   0.595   2.362   2.112
65849SOL    HW199379   0.536   2.391   2.182
65849SOL    HW299380   0.679   2.402   2.135
65850SOL     OW99381   7.803   4.203   9.161
65850SOL    HW199382   7.789   4.156   9.079
65850SOL    HW299383   7.796   4.136   9.229
65851SOL     OW99384  10.030   6.433   5.286
65851SOL    HW199385  10.018   6.360   5.346
65851SOL    HW299386  10.061   6.505   5.342
65852SOL     OW99387  11.812  14.706   7.495
65852SOL    HW199388  11.764  14.623   7.487
65852SOL    HW299389  11.895  14.690   7.450
65853SOL     OW99390   6.210   2.762   6.821
65853SOL    HW199391   6.303   2.760   6.842
65853SOL    HW299392   6.192   2.676   6.784
65854SOL     OW99393   4.769   9.905  13.055
65854SOL    HW199394   4.829   9.915  13.129
65854SOL    HW299395   4.694   9.858  13.091
65855SOL     OW99396   9.815   2.948   3.030
65855SOL    HW199397   9.810   2.886   3.102
65855SOL    HW299398   9.880   3.013   3.058
65856SOL     OW99399  12.622  13.655   5.372
65856SOL    HW199400  12.621  13.728   5.310
65856SOL    HW299401  12.667  13.585   5.325
65857SOL     OW99402  12.424   8.011   2.417
65857SOL    HW199403  12.424   8.104   2.396
65857SOL    HW299404  12.412   7.967   2.333
65858SOL     OW99405   8.317   7.345  12.845
65858SOL    HW199406   8.241   7.399  12.823
65858SOL    HW299407   8.317   7.276  12.780
65859SOL     OW99408  13.689   2.766   8.001
65859SOL    HW199409  13.683   2.831   7.930
65859SOL    HW299410  13.688   2.681   7.957
65860SOL     OW99411   1.958  14.625   1.783
65860SOL    HW199412   1.934  14.552   1.726
65860SOL    HW299413   1.876  14.673   1.796
65861SOL     OW99414  11.943   6.558  14.007
65861SOL    HW199415  11.954   6.464  13.997
65861SOL    HW299416  12.025   6.596  13.976
65862SOL     OW99417   3.226   3.910   4.994
65862SOL    HW199418   3.189   3.950   4.915
65862SOL    HW299419   3.177   3.950   5.066
65863SOL     OW99420   8.323   9.042  11.110
65863SOL    HW199421   8.344   9.076  11.197
65863SOL    HW299422   8.404   9.000  11.080
65864SOL     OW99423   1.042  11.348   0.154
65864SOL    HW199424   0.986  11.399   0.094
65864SOL    HW299425   1.013  11.374   0.241
65865SOL     OW99426   1.646   2.787   6.051
65865SOL    HW199427   1.614   2.780   5.961
65865SOL    HW299428   1.663   2.880   6.063
65866SOL     OW99429   9.769  12.780   9.186
65866SOL    HW199430   9.680  12.747   9.203
65866SOL    HW299431   9.756  12.869   9.156
65867SOL     OW99432   0.598   9.683   1.961
65867SOL    HW199433   0.555   9.751   1.909
65867SOL    HW299434   0.670   9.653   1.906
65868SOL     OW99435   1.393  13.785   1.844
65868SOL    HW199436   1.463  13.779   1.909
65868SOL    HW299437   1.338  13.857   1.874
65869SOL     OW99438   2.982   8.378   1.369
65869SOL    HW199439   2.887   8.365   1.362
65869SOL    HW299440   3.004   8.347   1.457
65870SOL     OW99441   1.584  13.682  13.934
65870SOL    HW199442   1.491  13.705  13.936
65870SOL    HW299443   1.628  13.755  13.978
65871SOL     OW99444  11.813   1.164   9.143
65871SOL    HW199445  11.844   1.254   9.156
65871SOL    HW299446  11.828   1.121   9.227
65872SOL     OW99447   2.375   8.094   9.129
65872SOL    HW199448   2.296   8.148   9.138
65872SOL    HW299449   2.447   8.156   9.132
65873SOL     OW99450  11.456   2.713   9.260
65873SOL    HW199451  11.400   2.788   9.242
65873SOL    HW299452  11.404   2.656   9.316
65874SOL     OW99453   0.296   7.033   4.668
65874SOL    HW199454   0.275   6.942   4.690
65874SOL    HW299455   0.369   7.027   4.607
65875SOL     OW99456   5.390   0.807   8.529
65875SOL    HW199457   5.305   0.812   8.486
65875SOL    HW299458   5.454   0.815   8.458
65876SOL     OW99459  11.770  13.922   3.267
65876SOL    HW199460  11.854  13.876   3.260
65876SOL    HW299461  11.755  13.959   3.180
65877SOL     OW99462   2.242   3.015   2.591
65877SOL    HW199463   2.232   2.934   2.541
65877SOL    HW299464   2.198   2.997   2.675
65878SOL     OW99465  11.074   0.237  10.646
65878SOL    HW199466  10.991   0.276  10.616
65878SOL    HW299467  11.099   0.289  10.722
65879SOL     OW99468  13.805  10.292  12.287
65879SOL    HW199469  13.772  10.368  12.237
65879SOL    HW299470  13.865  10.330  12.351
65880SOL     OW99471   1.940   9.480   8.707
65880SOL    HW199472   1.914   9.459   8.618
65880SOL    HW299473   2.010   9.418   8.726
65881SOL     OW99474  13.454   6.324   4.247
65881SOL    HW199475  13.546   6.300   4.251
65881SOL    HW299476  13.449   6.410   4.289
65882SOL     OW99477  12.286   0.806  13.238
65882SOL    HW199478  12.318   0.892  13.211
65882SOL    HW299479  12.244   0.771  13.159
65883SOL     OW99480   0.170   3.001   7.403
65883SOL    HW199481   0.165   3.044   7.317
65883SOL    HW299482   0.082   2.969   7.418
65884SOL     OW99483  13.210  14.783   9.869
65884SOL    HW199484  13.190  14.701   9.915
65884SOL    HW299485  13.221  14.847   9.939
65885SOL     OW99486   0.898   7.097   7.765
65885SOL    HW199487   0.971   7.049   7.727
65885SOL    HW299488   0.865   7.040   7.835
65886SOL     OW99489   7.685   1.407   1.340
65886SOL    HW199490   7.673   1.499   1.317
65886SOL    HW299491   7.778   1.389   1.322
65887SOL     OW99492   7.482   0.253   6.884
65887SOL    HW199493   7.496   0.162   6.856
65887SOL    HW299494   7.410   0.247   6.947
65888SOL     OW99495   2.236   8.421  14.214
65888SOL    HW199496   2.259   8.459  14.129
65888SOL    HW299497   2.242   8.494  14.275
65889SOL     OW99498   4.330  12.366  14.778
65889SOL    HW199499   4.298  12.443  14.826
65889SOL    HW299500   4.400  12.400  14.722
65890SOL     OW99501   8.908  14.001  13.290
65890SOL    HW199502   8.839  13.934  13.287
65890SOL    HW299503   8.975  13.967  13.231
65891SOL     OW99504   0.273   2.136   5.529
65891SOL    HW199505   0.241   2.182   5.452
65891SOL    HW299506   0.356   2.178   5.550
65892SOL     OW99507   4.376   6.596   4.683
65892SOL    HW199508   4.386   6.572   4.775
65892SOL    HW299509   4.461   6.578   4.643
65893SOL     OW99510   1.346  12.668   8.709
65893SOL    HW199511   1.272  12.657   8.769
65893SOL    HW299512   1.423  12.667   8.766
65894SOL     OW99513   7.899   2.389   8.042
65894SOL    HW199514   7.814   2.393   7.999
65894SOL    HW299515   7.927   2.480   8.050
65895SOL     OW99516  11.114  10.805   0.217
65895SOL    HW199517  11.049  10.819   0.149
65895SOL    HW299518  11.075  10.739   0.274
65896SOL     OW99519  10.256   6.040   8.570
65896SOL    HW199520  10.299   6.123   8.591
65896SOL    HW299521  10.295   6.013   8.487
65897SOL     OW99522  14.463  12.173  11.433
65897SOL    HW199523  14.489  12.107  11.497
65897SOL    HW299524  14.372  12.151  11.412
65898SOL     OW99525  10.279   1.951   8.481
65898SOL    HW199526  10.188   1.968   8.502
65898SOL    HW299527  10.278   1.921   8.390
65899SOL     OW99528  13.108  11.621   1.067
65899SOL    HW199529  13.045  11.598   1.136
65899SOL    HW299530  13.193  11.624   1.111
65900SOL     OW99531   2.752  10.724   6.973
65900SOL    HW199532   2.672  10.753   7.017
65900SOL    HW299533   2.722  10.693   6.887
65901SOL     OW99534  11.198   2.361  14.103
65901SOL    HW199535  11.221   2.442  14.149
65901SOL    HW299536  11.177   2.299  14.173
65902SOL     OW99537  12.532   3.222   4.550
65902SOL    HW199538  12.561   3.313   4.542
65902SOL    HW299539  12.540   3.202   4.643
65903SOL     OW99540   6.409   9.612  10.167
65903SOL    HW199541   6.377   9.532  10.210
65903SOL    HW299542   6.364   9.682  10.214
65904SOL     OW99543  14.687  14.575   2.398
65904SOL    HW199544  14.664  14.540   2.484
65904SOL    HW299545  14.690  14.670   2.410
65905SOL     OW99546   5.639   5.727  11.943
65905SOL    HW199547   5.730   5.742  11.920
65905SOL    HW299548   5.593   5.806  11.914
65906SOL     OW99549   3.888   7.201   1.180
65906SOL    HW199550   3.864   7.180   1.270
65906SOL    HW299551   3.965   7.148   1.162
65907SOL     OW99552   8.670   6.999  11.357
65907SOL    HW199553   8.752   7.027  11.397
65907SOL    HW299554   8.642   6.924  11.409
65908SOL     OW99555   4.644   3.562   3.488
65908SOL    HW199556   4.731   3.596   3.508
65908SOL    HW299557   4.595   3.639   3.458
65909SOL     OW99558  14.717   8.069  12.875
65909SOL    HW199559  14.758   8.151  12.900
65909SOL    HW299560  14.674   8.038  12.955
65910SOL     OW99561   1.934   5.692  11.964
65910SOL    HW199562   1.968   5.694  12.054
65910SOL    HW299563   1.888   5.775  11.954
65911SOL     OW99564  12.595   4.995   3.353
65911SOL    HW199565  12.611   5.090   3.358
65911SOL    HW299566  12.627   4.961   3.436
65912SOL     OW99567  13.683   1.392  12.849
65912SOL    HW199568  13.775   1.390  12.878
65912SOL    HW299569  13.675   1.318  12.790
65913SOL     OW99570  14.187   5.897   6.682
65913SOL    HW199571  14.099   5.904   6.644
65913SOL    HW299572  14.173   5.899   6.776
65914SOL     OW99573   7.422   3.398   7.341
65914SOL    HW199574   7.484   3.467   7.365
65914SOL    HW299575   7.364   3.438   7.277
65915SOL     OW99576   9.892  13.421   8.478
65915SOL    HW199577   9.826  13.427   8.547
65915SOL    HW299578   9.850  13.370   8.409
65916SOL     OW99579   8.844  10.322  13.521
65916SOL    HW199580   8.825  10.274  13.440
65916SOL    HW299581   8.854  10.253  13.587
65917SOL     OW99582   3.645  12.616   0.282
65917SOL    HW199583   3.563  12.623   0.332
65917SOL    HW299584   3.710  12.590   0.347
65918SOL     OW99585   4.158  11.149   5.925
65918SOL    HW199586   4.124  11.224   5.876
65918SOL    HW299587   4.213  11.102   5.862
65919SOL     OW99588   9.253   5.749   6.636
65919SOL    HW199589   9.221   5.675   6.689
65919SOL    HW299590   9.173   5.795   6.609
65920SOL     OW99591  11.744  13.573  11.117
65920SOL    HW199592  11.829  13.536  11.139
65920SOL    HW299593  11.748  13.663  11.149
65921SOL     OW99594  14.397   1.080   4.516
65921SOL    HW199595  14.310   1.120   4.509
65921SOL    HW299596  14.381   0.986   4.513
65922SOL     OW99597  12.321   0.965   3.827
65922SOL    HW199598  12.302   0.998   3.740
65922SOL    HW299599  12.303   0.871   3.821
65923SOL     OW99600   3.705  11.018   4.608
65923SOL    HW199601   3.789  10.995   4.567
65923SOL    HW299602   3.696  11.112   4.593
65924SOL     OW99603   3.130   9.579   6.133
65924SOL    HW199604   3.215   9.603   6.096
65924SOL    HW299605   3.150   9.550   6.222
65925SOL     OW99606   6.060   7.862  14.681
65925SOL    HW199607   6.025   7.778  14.712
65925SOL    HW299608   6.043   7.862  14.587
65926SOL     OW99609   2.226  11.633  11.255
65926SOL    HW199610   2.284  11.578  11.308
65926SOL    HW299611   2.138  11.602  11.278
65927SOL     OW99612   0.569   3.946  10.935
65927SOL    HW199613   0.507   3.985  10.873
65927SOL    HW299614   0.612   3.877  10.885
65928SOL     OW99615   6.142  11.073   9.712
65928SOL    HW199616   6.161  10.988   9.753
65928SOL    HW299617   6.130  11.052   9.619
65929SOL     OW99618  13.847   6.445  11.382
65929SOL    HW199619  13.786   6.498  11.330
65929SOL    HW299620  13.928   6.446  11.332
65930SOL     OW99621  14.671   1.066   6.791
65930SOL    HW199622  14.657   1.116   6.871
65930SOL    HW299623  14.706   1.130   6.729
65931SOL     OW99624  14.607   5.951  10.216
65931SOL    HW199625  14.613   5.890  10.142
65931SOL    HW299626  14.649   6.031  10.186
65932SOL     OW99627  12.025   6.186  10.536
65932SOL    HW199628  11.990   6.233  10.460
65932SOL    HW299629  11.963   6.206  10.607
65933SOL     OW99630   4.177  12.593   9.276
65933SOL    HW199631   4.230  12.570   9.199
65933SOL    HW299632   4.216  12.542   9.347
65934SOL     OW99633   6.387   9.365  14.441
65934SOL    HW199634   6.366   9.411  14.522
65934SOL    HW299635   6.406   9.434  14.378
65935SOL     OW99636   6.554   7.423   3.023
65935SOL    HW199637   6.626   7.416   3.086
65935SOL    HW299638   6.533   7.516   3.022
65936SOL     OW99639  11.514   8.045   6.286
65936SOL    HW199640  11.594   8.044   6.339
65936SOL    HW299641  11.498   8.138   6.270
65937SOL     OW99642   6.986   1.285  11.424
65937SOL    HW199643   6.988   1.198  11.464
65937SOL    HW299644   6.918   1.279  11.357
65938SOL     OW99645  12.206  12.200  10.234
65938SOL    HW199646  12.300  12.181  10.234
65938SOL    HW299647  12.164  12.115  10.247
65939SOL     OW99648   7.408   4.099   8.741
65939SOL    HW199649   7.478   4.117   8.678
65939SOL    HW299650   7.400   4.180   8.791
65940SOL     OW99651   1.856   0.608   8.676
65940SOL    HW199652   1.878   0.700   8.691
65940SOL    HW299653   1.924   0.560   8.723
65941SOL     OW99654   2.459  12.895   9.788
65941SOL    HW199655   2.513  12.862   9.860
65941SOL    HW299656   2.423  12.977   9.821
65942SOL     OW99657   2.332   2.868  13.911
65942SOL    HW199658   2.339   2.866  14.006
65942SOL    HW299659   2.311   2.778  13.886
65943SOL     OW99660   4.066   9.488   2.483
65943SOL    HW199661   4.090   9.498   2.391
65943SOL    HW299662   4.109   9.407   2.511
65944SOL     OW99663   5.127   7.103  12.070
65944SOL    HW199664   5.063   7.152  12.020
65944SOL    HW299665   5.107   7.011  12.051
65945SOL     OW99666   5.967   2.041   2.319
65945SOL    HW199667   6.051   2.000   2.298
65945SOL    HW299668   5.931   2.067   2.234
65946SOL     OW99669   2.875  11.741   6.998
65946SOL    HW199670   2.830  11.808   7.049
65946SOL    HW299671   2.946  11.788   6.954
65947SOL     OW99672   1.416  13.446   3.080
65947SOL    HW199673   1.355  13.464   3.009
65947SOL    HW299674   1.371  13.382   3.135
65948SOL     OW99675   1.700  14.047   9.572
65948SOL    HW199676   1.761  13.986   9.614
65948SOL    HW299677   1.724  14.133   9.607
65949SOL     OW99678   3.885   7.902  14.429
65949SOL    HW199679   3.794   7.886  14.403
65949SOL    HW299680   3.881   7.919  14.523
65950SOL     OW99681   0.149   7.904  13.399
65950SOL    HW199682   0.221   7.846  13.426
65950SOL    HW299683   0.147   7.972  13.467
65951SOL     OW99684  14.590   5.939  14.297
65951SOL    HW199685  14.536   6.014  14.272
65951SOL    HW299686  14.562   5.918  14.386
65952SOL     OW99687  13.396  14.466   6.686
65952SOL    HW199688  13.376  14.552   6.649
65952SOL    HW299689  13.398  14.407   6.610
65953SOL     OW99690   9.405   2.227   7.967
65953SOL    HW199691   9.388   2.301   7.909
65953SOL    HW299692   9.500   2.215   7.964
65954SOL     OW99693   4.761   5.849   2.478
65954SOL    HW199694   4.716   5.764   2.475
65954SOL    HW299695   4.780   5.863   2.570
65955SOL     OW99696  13.680   0.304   0.301
65955SOL    HW199697  13.736   0.255   0.362
65955SOL    HW299698  13.706   0.271   0.214
65956SOL     OW99699   9.499   2.991  13.341
65956SOL    HW199700   9.405   3.008  13.339
65956SOL    HW299701   9.511   2.938  13.420
65957SOL     OW99702   9.494  11.598   6.138
65957SOL    HW199703   9.572  11.646   6.167
65957SOL    HW299704   9.425  11.626   6.198
65958SOL     OW99705   8.858  10.202   8.857
65958SOL    HW199706   8.789  10.213   8.791
65958SOL    HW299707   8.940  10.209   8.808
65959SOL     OW99708   8.062  14.786   7.709
65959SOL    HW199709   8.042  14.767   7.800
65959SOL    HW299710   8.155  14.767   7.699
65960SOL     OW99711   8.891   6.555  13.967
65960SOL    HW199712   8.954   6.585  14.032
65960SOL    HW299713   8.844   6.634  13.940
65961SOL     OW99714   1.937   3.199   9.743
65961SOL    HW199715   1.850   3.200   9.783
65961SOL    HW299716   1.949   3.108   9.715
65962SOL     OW99717   6.542  11.938   1.810
65962SOL    HW199718   6.546  11.968   1.901
65962SOL    HW299719   6.540  11.843   1.816
65963SOL     OW99720   2.281   4.058   1.331
65963SOL    HW199721   2.253   4.053   1.423
65963SOL    HW299722   2.220   4.120   1.291
65964SOL     OW99723   4.409  10.918   1.734
65964SOL    HW199724   4.463  10.990   1.701
65964SOL    HW299725   4.379  10.872   1.655
65965SOL     OW99726   8.513   1.571   2.906
65965SOL    HW199727   8.420   1.589   2.923
65965SOL    HW299728   8.520   1.575   2.811
65966SOL     OW99729   1.543  11.712   3.103
65966SOL    HW199730   1.620  11.654   3.107
65966SOL    HW299731   1.580  11.800   3.098
65967SOL     OW99732   3.162   2.169   2.222
65967SOL    HW199733   3.241   2.149   2.273
65967SOL    HW299734   3.108   2.091   2.230
65968SOL     OW99735  10.332   5.079   2.519
65968SOL    HW199736  10.413   5.064   2.471
65968SOL    HW299737  10.279   5.133   2.461
65969SOL     OW99738  11.946  11.155   6.711
65969SOL    HW199739  11.989  11.162   6.797
65969SOL    HW299740  12.017  11.165   6.648
65970SOL     OW99741  10.353   6.993  10.842
65970SOL    HW199742  10.266   6.981  10.805
65970SOL    HW299743  10.391   6.905  10.843
65971SOL     OW99744   8.697  11.860   5.945
65971SOL    HW199745   8.792  11.870   5.948
65971SOL    HW299746   8.682  11.767   5.961
65972SOL     OW99747   7.384   4.174   5.570
65972SOL    HW199748   7.357   4.263   5.590
65972SOL    HW299749   7.465   4.161   5.621
65973SOL     OW99750   1.642   8.939   1.134
65973SOL    HW199751   1.644   8.946   1.038
65973SOL    HW299752   1.550   8.922   1.154
65974SOL     OW99753   0.828  12.086   6.144
65974SOL    HW199754   0.756  12.023   6.146
65974SOL    HW299755   0.793  12.166   6.182
65975SOL     OW99756   3.639  13.497   8.112
65975SOL    HW199757   3.698  13.494   8.187
65975SOL    HW299758   3.653  13.583   8.074
65976SOL     OW99759   0.114   9.765   0.069
65976SOL    HW199760   0.203   9.747   0.102
65976SOL    HW299761   0.084   9.840   0.120
65977SOL     OW99762   0.380   0.445   3.994
65977SOL    HW199763   0.456   0.503   3.983
65977SOL    HW299764   0.305   0.504   3.988
65978SOL     OW99765   1.804   0.781  12.001
65978SOL    HW199766   1.815   0.697  11.955
65978SOL    HW299767   1.712   0.783  12.027
65979SOL     OW99768   7.988   3.783  12.374
65979SOL    HW199769   8.077   3.748  12.379
65979SOL    HW299770   7.934   3.708  12.348
65980SOL     OW99771   5.255   1.359   7.023
65980SOL    HW199772   5.236   1.392   6.935
65980SOL    HW299773   5.169   1.351   7.065
65981SOL     OW99774   9.390   4.487  11.886
65981SOL    HW199775   9.327   4.449  11.825
65981SOL    HW299776   9.474   4.482  11.840
65982SOL     OW99777   3.956   3.818   2.331
65982SOL    HW199778   3.928   3.835   2.241
65982SOL    HW299779   3.875   3.819   2.382
65983SOL     OW99780   5.263   0.209  12.916
65983SOL    HW199781   5.188   0.160  12.949
65983SOL    HW299782   5.245   0.223  12.823
65984SOL     OW99783   3.857   8.177   3.520
65984SOL    HW199784   3.816   8.235   3.456
65984SOL    HW299785   3.943   8.156   3.482
65985SOL     OW99786  11.647   6.440   2.220
65985SOL    HW199787  11.728   6.426   2.171
65985SOL    HW299788  11.625   6.353   2.255
65986SOL     OW99789   8.156   2.941   4.164
65986SOL    HW199790   8.243   2.900   4.162
65986SOL    HW299791   8.126   2.937   4.073
65987SOL     OW99792  11.787   2.724   0.359
65987SOL    HW199793  11.719   2.737   0.293
65987SOL    HW299794  11.814   2.633   0.349
65988SOL     OW99795  14.795  12.642  14.730
65988SOL    HW199796  14.708  12.620  14.698
65988SOL    HW299797  14.806  12.735  14.708
65989SOL     OW99798  11.484   2.628   5.195
65989SOL    HW199799  11.492   2.724   5.194
65989SOL    HW299800  11.532   2.599   5.117
65990SOL     OW99801  12.441  13.418   6.786
65990SOL    HW199802  12.391  13.377   6.858
65990SOL    HW299803  12.528  13.430   6.823
65991SOL     OW99804   7.624   5.421  12.195
65991SOL    HW199805   7.713   5.421  12.230
65991SOL    HW299806   7.620   5.345  12.137
65992SOL     OW99807  14.442   8.088   0.169
65992SOL    HW199808  14.513   8.152   0.175
65992SOL    HW299809  14.391   8.103   0.249
65993SOL     OW99810   8.737   7.150   0.631
65993SOL    HW199811   8.821   7.168   0.673
65993SOL    HW299812   8.719   7.058   0.650
65994SOL     OW99813   4.932   0.150   7.278
65994SOL    HW199814   4.981   0.140   7.359
65994SOL    HW299815   4.848   0.108   7.295
65995SOL     OW99816   4.583   7.322  12.275
65995SOL    HW199817   4.654   7.322  12.211
65995SOL    HW299818   4.607   7.390  12.338
65996SOL     OW99819   1.876   6.611   0.913
65996SOL    HW199820   1.784   6.596   0.932
65996SOL    HW299821   1.908   6.528   0.877
65997SOL     OW99822  13.125  13.020  10.944
65997SOL    HW199823  13.149  12.951  10.882
65997SOL    HW299824  13.081  12.974  11.016
65998SOL     OW99825   1.484   5.567   7.646
65998SOL    HW199826   1.530   5.639   7.603
65998SOL    HW299827   1.550   5.528   7.704
65999SOL     OW99828   0.279   2.135   1.635
65999SOL    HW199829   0.260   2.128   1.541
65999SOL    HW299830   0.321   2.220   1.645
66000SOL     OW99831   5.448  11.362   8.711
66000SOL    HW199832   5.386  11.366   8.784
66000SOL    HW299833   5.471  11.270   8.704
66001SOL     OW99834  12.099   7.002  13.975
66001SOL    HW199835  12.032   7.062  14.010
66001SOL    HW299836  12.049   6.940  13.922
66002SOL     OW99837  11.666  10.156   7.881
66002SOL    HW199838  11.637  10.145   7.971
66002SOL    HW299839  11.732  10.225   7.885
66003SOL     OW99840   1.342   9.903   1.968
66003SOL    HW199841   1.313   9.987   1.932
66003SOL    HW299842   1.437   9.911   1.974
66004SOL     OW99843   9.434   4.939   9.696
66004SOL    HW199844   9.455   5.001   9.766
66004SOL    HW299845   9.488   4.967   9.623
66005SOL     OW99846   8.853   3.504   0.437
66005SOL    HW199847   8.900   3.471   0.513
66005SOL    HW299848   8.775   3.546   0.473
66006SOL     OW99849  12.770   1.574   9.869
66006SOL    HW199850  12.707   1.569   9.797
66006SOL    HW299851  12.776   1.484   9.901
66007SOL     OW99852   0.181   4.070  12.058
66007SOL    HW199853   0.211   3.994  12.008
66007SOL    HW299854   0.226   4.145  12.018
66008SOL     OW99855   8.751   9.962  14.490
66008SOL    HW199856   8.817   9.901  14.458
66008SOL    HW299857   8.743   9.942  14.583
66009SOL     OW99858  12.257   3.931   9.145
66009SOL    HW199859  12.335   3.955   9.195
66009SOL    HW299860  12.210   4.014   9.131
66010SOL     OW99861  13.654   4.623  12.031
66010SOL    HW199862  13.643   4.621  11.936
66010SOL    HW299863  13.567   4.647  12.065
66011SOL     OW99864   0.333  12.997   5.600
66011SOL    HW199865   0.320  13.090   5.619
66011SOL    HW299866   0.362  12.995   5.509
66012SOL     OW99867  13.485   2.125  13.222
66012SOL    HW199868  13.402   2.133  13.270
66012SOL    HW299869  13.483   2.199  13.160
66013SOL     OW99870  13.428   1.494   8.319
66013SOL    HW199871  13.470   1.429   8.375
66013SOL    HW299872  13.486   1.500   8.242
66014SOL     OW99873  11.161   1.696   9.854
66014SOL    HW199874  11.078   1.702   9.901
66014SOL    HW299875  11.145   1.739   9.770
66015SOL     OW99876   9.866   9.737   2.034
66015SOL    HW199877   9.898   9.762   1.948
66015SOL    HW299878   9.944   9.731   2.088
66016SOL     OW99879   4.798   8.248  12.402
66016SOL    HW199880   4.834   8.332  12.373
66016SOL    HW299881   4.844   8.183  12.349
66017SOL     OW99882   0.660  10.463  10.914
66017SOL    HW199883   0.629  10.430  10.830
66017SOL    HW299884   0.755  10.469  10.904
66018SOL     OW99885  13.773   0.391   8.563
66018SOL    HW199886  13.690   0.389   8.610
66018SOL    HW299887  13.824   0.460   8.605
66019SOL     OW99888   2.825   2.327   7.326
66019SOL    HW199889   2.905   2.276   7.338
66019SOL    HW299890   2.762   2.288   7.386
66020SOL     OW99891   5.866  10.929   5.592
66020SOL    HW199892   5.902  11.006   5.549
66020SOL    HW299893   5.772  10.946   5.596
66021SOL     OW99894   7.435   3.699  10.542
66021SOL    HW199895   7.359   3.714  10.599
66021SOL    HW299896   7.410   3.735  10.457
66022SOL     OW99897  12.411  10.344   7.432
66022SOL    HW199898  12.338  10.295   7.394
66022SOL    HW299899  12.405  10.327   7.526
66023SOL     OW99900   5.786  12.646  13.356
66023SOL    HW199901   5.756  12.561  13.321
66023SOL    HW299902   5.742  12.711  13.301
66024SOL     OW99903   2.075  11.509   3.206
66024SOL    HW199904   2.028  11.426   3.201
66024SOL    HW299905   2.046  11.548   3.288
66025SOL     OW99906   5.571   4.381  14.103
66025SOL    HW199907   5.657   4.397  14.142
66025SOL    HW299908   5.586   4.309  14.041
66026SOL     OW99909   7.473   3.542   1.577
66026SOL    HW199910   7.563   3.537   1.609
66026SOL    HW299911   7.481   3.574   1.487
66027SOL     OW99912   3.248  10.746   8.936
66027SOL    HW199913   3.338  10.762   8.963
66027SOL    HW299914   3.198  10.743   9.017
66028SOL     OW99915   8.363  13.998   8.883
66028SOL    HW199916   8.408  14.003   8.968
66028SOL    HW299917   8.320  13.913   8.884
66029SOL     OW99918   7.856   6.303  12.430
66029SOL    HW199919   7.925   6.242  12.456
66029SOL    HW299920   7.895   6.358  12.363
66030SOL     OW99921   0.736  12.749   6.840
66030SOL    HW199922   0.691  12.828   6.869
66030SOL    HW299923   0.672  12.678   6.855
66031SOL     OW99924   9.438   1.984   5.759
66031SOL    HW199925   9.427   2.052   5.693
66031SOL    HW299926   9.533   1.968   5.762
66032SOL     OW99927  13.157   8.888   6.762
66032SOL    HW199928  13.178   8.947   6.690
66032SOL    HW299929  13.072   8.919   6.795
66033SOL     OW99930   7.624   9.071  10.301
66033SOL    HW199931   7.653   9.067  10.392
66033SOL    HW299932   7.529   9.082  10.306
66034SOL     OW99933   1.571   2.996   6.782
66034SOL    HW199934   1.567   2.922   6.843
66034SOL    HW299935   1.655   2.986   6.737
66035SOL     OW99936   6.967   1.021  14.614
66035SOL    HW199937   6.970   0.955  14.544
66035SOL    HW299938   6.927   0.976  14.688
66036SOL     OW99939  13.201  11.361   6.317
66036SOL    HW199940  13.233  11.390   6.231
66036SOL    HW299941  13.174  11.270   6.302
66037SOL     OW99942  12.078   6.196   2.625
66037SOL    HW199943  12.139   6.269   2.616
66037SOL    HW299944  12.031   6.193   2.541
66038SOL     OW99945  11.206   8.268  10.085
66038SOL    HW199946  11.153   8.241  10.010
66038SOL    HW299947  11.143   8.273  10.157
66039SOL     OW99948  12.626  14.125   0.625
66039SOL    HW199949  12.572  14.050   0.650
66039SOL    HW299950  12.683  14.091   0.556
66040SOL     OW99951   4.572   2.158   9.632
66040SOL    HW199952   4.577   2.115   9.547
66040SOL    HW299953   4.493   2.212   9.627
66041SOL     OW99954   6.763  13.322   3.278
66041SOL    HW199955   6.743  13.272   3.198
66041SOL    HW299956   6.681  13.367   3.299
66042SOL     OW99957  11.539   3.847   9.808
66042SOL    HW199958  11.537   3.919   9.745
66042SOL    HW299959  11.629   3.815   9.804
66043SOL     OW99960   2.614   4.292   1.568
66043SOL    HW199961   2.639   4.273   1.477
66043SOL    HW299962   2.518   4.290   1.567
66044SOL     OW99963  11.845   8.003  13.640
66044SOL    HW199964  11.900   8.046  13.575
66044SOL    HW299965  11.898   8.005  13.721
66045SOL     OW99966  14.177   1.953   6.061
66045SOL    HW199967  14.171   1.983   5.971
66045SOL    HW299968  14.167   2.033   6.114
66046SOL     OW99969   6.336  10.031   0.255
66046SOL    HW199970   6.285   9.963   0.211
66046SOL    HW299971   6.279  10.062   0.326
66047SOL     OW99972   6.347   0.240  12.066
66047SOL    HW199973   6.392   0.166  12.107
66047SOL    HW299974   6.262   0.245  12.111
66048SOL     OW99975  11.607  12.140   7.309
66048SOL    HW199976  11.627  12.071   7.374
66048SOL    HW299977  11.545  12.197   7.354
66049SOL     OW99978   6.275   3.028  12.728
66049SOL    HW199979   6.236   3.038  12.641
66049SOL    HW299980   6.244   2.942  12.758
66050SOL     OW99981   9.228   9.643  10.625
66050SOL    HW199982   9.247   9.659  10.533
66050SOL    HW299983   9.233   9.547  10.634
66051SOL     OW99984  10.052   8.486   0.809
66051SOL    HW199985  10.129   8.466   0.757
66051SOL    HW299986   9.999   8.543   0.752
66052SOL     OW99987  10.201   9.471   3.850
66052SOL    HW199988  10.247   9.443   3.770
66052SOL    HW299989  10.111   9.484   3.822
66053SOL     OW99990   2.152   1.983   7.225
66053SOL    HW199991   2.122   2.010   7.138
66053SOL    HW299992   2.093   2.028   7.285
66054SOL     OW99993  14.280   1.664   1.262
66054SOL    HW199994  14.326   1.717   1.327
66054SOL    HW299995  14.216   1.614   1.312
66055SOL     OW99996   2.240   1.825   2.995
66055SOL    HW199997   2.254   1.747   2.941
66055SOL    HW299998   2.152   1.812   3.032
66056SOL     OW99999   3.447   9.654  14.168
66056SOL    HW1    0   3.367   9.664  14.116
66056SOL    HW2    1   3.508   9.718  14.132
66057SOL     OW    2   4.108  14.372   7.685
66057SOL    HW1    3   4.122  14.285   7.647
66057SOL    HW2    4   4.016  14.371   7.713
66058SOL     OW    5   9.439   8.924  10.816
66058SOL    HW1    6   9.486   8.871  10.751
66058SOL    HW2    7   9.482   9.009  10.814
66059SOL     OW    8   2.735  11.971   3.860
66059SOL    HW1    9   2.761  11.879   3.854
66059SOL    HW2   10   2.673  11.973   3.933
66060SOL     OW   11   9.585  13.604   5.630
66060SOL    HW1   12   9.545  13.519   5.614
66060SOL    HW2   13   9.555  13.629   5.718
66061SOL     OW   14   8.306   7.003   0.676
66061SOL    HW1   15   8.377   7.002   0.612
66061SOL    HW2   16   8.269   6.915   0.673
66062SOL     OW   17   4.357  11.437  12.173
66062SOL    HW1   18   4.355  11.532  12.173
66062SOL    HW2   19   4.449  11.414  12.182
66063SOL     OW   20   6.097   9.001   1.045
66063SOL    HW1   21   6.174   9.026   1.096
66063SOL    HW2   22   6.026   9.055   1.081
66064SOL     OW   23   6.998   8.965   8.746
66064SOL    HW1   24   7.089   8.995   8.751
66064SOL    HW2   25   6.997   8.904   8.673
66065SOL     OW   26   1.273  12.746   4.272
66065SOL    HW1   27   1.223  12.665   4.261
66065SOL    HW2   28   1.215  12.815   4.239
66066SOL     OW   29  10.603  13.806  12.626
66066SOL    HW1   30  10.547  13.875  12.591
66066SOL    HW2   31  10.628  13.836  12.713
66067SOL     OW   32   1.022  10.803   2.372
66067SOL    HW1   33   0.948  10.815   2.432
66067SOL    HW2   34   0.992  10.736   2.310
66068SOL     OW   35   6.287   2.878  10.550
66068SOL    HW1   36   6.336   2.801  10.520
66068SOL    HW2   37   6.299   2.879  10.645
66069SOL     OW   38   7.077   1.453   5.987
66069SOL    HW1   39   7.072   1.383   6.052
66069SOL    HW2   40   7.112   1.410   5.909
66070SOL     OW   41  13.642   6.351  10.259
66070SOL    HW1   42  13.549   6.366  10.242
66070SOL    HW2   43  13.681   6.346  10.172
66071SOL     OW   44   0.053   5.986   6.231
66071SOL    HW1   45   0.139   5.967   6.193
66071SOL    HW2   46   0.010   6.043   6.167
66072SOL     OW   47  11.947   6.593   6.690
66072SOL    HW1   48  11.956   6.545   6.607
66072SOL    HW2   49  11.916   6.527   6.752
66073SOL     OW   50  13.289   7.222  10.870
66073SOL    HW1   51  13.321   7.310  10.887
66073SOL    HW2   52  13.245   7.228  10.785
66074SOL     OW   53  11.903   7.154  12.886
66074SOL    HW1   54  11.824   7.201  12.912
66074SOL    HW2   55  11.876   7.101  12.811
66075SOL     OW   56   6.971  10.139   4.393
66075SOL    HW1   57   7.011  10.052   4.405
66075SOL    HW2   58   6.887  10.133   4.438
66076SOL     OW   59   4.907   1.952   6.116
66076SOL    HW1   60   4.995   1.989   6.108
66076SOL    HW2   61   4.849   2.027   6.124
66077SOL     OW   62   0.049   8.056   2.792
66077SOL    HW1   63   0.012   8.138   2.825
66077SOL    HW2   64   0.041   8.063   2.696
66078SOL     OW   65   2.469  14.707  10.904
66078SOL    HW1   66   2.497  14.737  10.990
66078SOL    HW2   67   2.534  14.640  10.880
66079SOL     OW   68   5.809   1.734   2.443
66079SOL    HW1   69   5.792   1.722   2.536
66079SOL    HW2   70   5.902   1.756   2.438
66080SOL     OW   71   0.388   6.558   0.121
66080SOL    HW1   72   0.460   6.587   0.065
66080SOL    HW2   73   0.371   6.632   0.179
66081SOL     OW   74  12.374   1.418  13.236
66081SOL    HW1   75  12.370   1.388  13.327
66081SOL    HW2   76  12.460   1.458  13.228
66082SOL     OW   77   5.669  14.437  14.758
66082SOL    HW1   78   5.609  14.376  14.714
66082SOL    HW2   79   5.614  14.512  14.780
66083SOL     OW   80  11.848   3.914   0.900
66083SOL    HW1   81  11.803   3.832   0.877
66083SOL    HW2   82  11.941   3.891   0.899
66084SOL     OW   83   2.945   5.649  12.766
66084SOL    HW1   84   3.018   5.587  12.760
66084SOL    HW2   85   2.873   5.606  12.719
66085SOL     OW   86  13.179  13.495   8.195
66085SOL    HW1   87  13.179  13.591   8.192
66085SOL    HW2   88  13.098  13.473   8.241
66086SOL     OW   89   5.982   7.847   5.689
66086SOL    HW1   90   5.891   7.869   5.707
66086SOL    HW2   91   6.026   7.932   5.681
66087SOL     OW   92   3.605   7.645   1.323
66087SOL    HW1   93   3.680   7.704   1.315
66087SOL    HW2   94   3.642   7.564   1.357
66088SOL     OW   95  14.392  10.588   2.735
66088SOL    HW1   96  14.405  10.552   2.823
66088SOL    HW2   97  14.479  10.590   2.696
66089SOL     OW   98   5.458   1.181   6.882
66089SOL    HW1   99   5.377   1.233   6.886
66089SOL    HW2  100   5.528   1.245   6.891
66090SOL     OW  101   4.333  12.208   9.384
66090SOL    HW1  102   4.303  12.184   9.296
66090SOL    HW2  103   4.286  12.149   9.442
66091SOL     OW  104   4.912   7.678   3.329
66091SOL    HW1  105   4.839   7.736   3.352
66091SOL    HW2  106   4.893   7.649   3.240
66092SOL     OW  107   3.934   3.001   9.486
66092SOL    HW1  108   3.975   2.989   9.401
66092SOL    HW2  109   3.951   2.919   9.533
66093SOL     OW  110   2.512  14.857   8.740
66093SOL    HW1  111   2.500   0.056   8.803
66093SOL    HW2  112   2.527   0.030   8.657
66094SOL     OW  113  14.186   2.747   0.942
66094SOL    HW1  114  14.251   2.774   0.877
66094SOL    HW2  115  14.228   2.675   0.989
66095SOL     OW  116   4.331   9.346   8.699
66095SOL    HW1  117   4.377   9.263   8.685
66095SOL    HW2  118   4.351   9.369   8.790
66096SOL     OW  119  14.372  14.115  14.290
66096SOL    HW1  120  14.330  14.201  14.299
66096SOL    HW2  121  14.418  14.104  14.373
66097SOL     OW  122   3.348  12.993  12.915
66097SOL    HW1  123   3.392  12.907  12.914
66097SOL    HW2  124   3.255  12.972  12.916
66098SOL     OW  125   7.670  13.738   1.188
66098SOL    HW1  126   7.698  13.782   1.269
66098SOL    HW2  127   7.644  13.650   1.216
66099SOL     OW  128  10.004  14.221  12.989
66099SOL    HW1  129  10.098  14.233  13.004
66099SOL    HW2  130   9.988  14.259  12.903
66100SOL     OW  131   6.422   7.770   4.658
66100SOL    HW1  132   6.352   7.737   4.716
66100SOL    HW2  133   6.462   7.841   4.708
66101SOL     OW  134   8.236   9.035   7.265
66101SOL    HW1  135   8.153   9.001   7.297
66101SOL    HW2  136   8.275   8.962   7.217
66102SOL     OW  137   7.667  14.399   6.735
66102SOL    HW1  138   7.705  14.487   6.737
66102SOL    HW2  139   7.657  14.379   6.642
66103SOL     OW  140   2.353   2.838   9.102
66103SOL    HW1  141   2.289   2.844   9.030
66103SOL    HW2  142   2.299   2.817   9.179
66104SOL     OW  143   2.965   1.448  10.163
66104SOL    HW1  144   3.035   1.395  10.127
66104SOL    HW2  145   3.008   1.530  10.189
66105SOL     OW  146   4.078   8.319  13.767
66105SOL    HW1  147   4.004   8.265  13.794
66105SOL    HW2  148   4.148   8.257  13.748
66106SOL     OW  149   4.999   3.683   2.749
66106SOL    HW1  150   4.919   3.701   2.699
66106SOL    HW2  151   5.031   3.599   2.715
66107SOL     OW  152   6.765   9.129   1.226
66107SOL    HW1  153   6.779   9.039   1.255
66107SOL    HW2  154   6.847   9.154   1.184
66108SOL     OW  155   6.352   0.210   1.443
66108SOL    HW1  156   6.437   0.226   1.402
66108SOL    HW2  157   6.373   0.156   1.519
66109SOL     OW  158   2.111   1.763   1.810
66109SOL    HW1  159   2.200   1.780   1.842
66109SOL    HW2  160   2.068   1.717   1.883
66110SOL     OW  161   6.630   7.468   9.961
66110SOL    HW1  162   6.692   7.485  10.032
66110SOL    HW2  163   6.665   7.517   9.886
66111SOL     OW  164   1.652   2.272   3.474
66111SOL    HW1  165   1.604   2.233   3.401
66111SOL    HW2  166   1.741   2.240   3.464
66112SOL     OW  167   7.661   6.977  14.346
66112SOL    HW1  168   7.663   6.882  14.359
66112SOL    HW2  169   7.575   6.994  14.309
66113SOL     OW  170   4.027   2.953  13.563
66113SOL    HW1  171   3.992   3.041  13.547
66113SOL    HW2  172   4.067   2.958  13.650
66114SOL     OW  173   8.953   7.773   2.091
66114SOL    HW1  174   8.922   7.690   2.128
66114SOL    HW2  175   9.031   7.749   2.042
66115SOL     OW  176   5.354  14.164   2.784
66115SOL    HW1  177   5.390  14.204   2.705
66115SOL    HW2  178   5.425  14.109   2.818
66116SOL     OW  179   2.658   3.154   2.770
66116SOL    HW1  180   2.656   3.081   2.708
66116SOL    HW2  181   2.750   3.176   2.779
66117SOL     OW  182   8.003   9.328  12.441
66117SOL    HW1  183   7.936   9.308  12.376
66117SOL    HW2  184   8.082   9.345  12.389
66118SOL     OW  185   5.243   5.607   1.794
66118SOL    HW1  186   5.337   5.622   1.781
66118SOL    HW2  187   5.202   5.640   1.714
66119SOL     OW  188   4.130   7.820   8.267
66119SOL    HW1  189   4.155   7.898   8.216
66119SOL    HW2  190   4.071   7.853   8.334
66120SOL     OW  191  12.587  10.874   0.717
66120SOL    HW1  192  12.661  10.935   0.706
66120SOL    HW2  193  12.510  10.931   0.723
66121SOL     OW  194  12.469   1.619   7.287
66121SOL    HW1  195  12.523   1.692   7.256
66121SOL    HW2  196  12.453   1.565   7.210
66122SOL     OW  197  12.582  13.835   8.559
66122SOL    HW1  198  12.558  13.919   8.598
66122SOL    HW2  199  12.592  13.776   8.633
66123SOL     OW  200   9.693   4.124  12.879
66123SOL    HW1  201   9.656   4.211  12.895
66123SOL    HW2  202   9.764   4.139  12.817
66124SOL     OW  203  10.996   6.465  13.680
66124SOL    HW1  204  10.917   6.453  13.734
66124SOL    HW2  205  10.990   6.397  13.613
66125SOL     OW  206   1.595   9.376   2.085
66125SOL    HW1  207   1.654   9.434   2.038
66125SOL    HW2  208   1.559   9.319   2.017
66126SOL     OW  209  13.227   6.556   6.357
66126SOL    HW1  210  13.180   6.600   6.286
66126SOL    HW2  211  13.253   6.472   6.320
66127SOL     OW  212   9.008  14.309   6.828
66127SOL    HW1  213   8.964  14.324   6.912
66127SOL    HW2  214   8.973  14.377   6.770
66128SOL     OW  215   9.792  10.461   9.060
66128SOL    HW1  216   9.768  10.375   9.094
66128SOL    HW2  217   9.757  10.522   9.125
66129SOL     OW  218  12.329   8.181   8.911
66129SOL    HW1  219  12.379   8.217   8.837
66129SOL    HW2  220  12.251   8.144   8.871
66130SOL     OW  221   7.062   0.098  14.290
66130SOL    HW1  222   7.008   0.154  14.346
66130SOL    HW2  223   7.120   0.052  14.350
66131SOL     OW  224   2.862  14.417  12.370
66131SOL    HW1  225   2.853  14.512  12.359
66131SOL    HW2  226   2.778  14.390  12.408
66132SOL     OW  227   2.256   4.080   3.837
66132SOL    HW1  228   2.214   4.113   3.758
66132SOL    HW2  229   2.286   4.159   3.883
66133SOL     OW  230   4.479   0.099   9.200
66133SOL    HW1  231   4.434   0.087   9.116
66133SOL    HW2  232   4.452   0.023   9.252
66134SOL     OW  233   7.897  10.379   7.819
66134SOL    HW1  234   7.942  10.462   7.834
66134SOL    HW2  235   7.843  10.395   7.741
66135SOL     OW  236   2.493   4.140  13.532
66135SOL    HW1  237   2.517   4.216  13.584
66135SOL    HW2  238   2.519   4.065  13.585
66136SOL     OW  239   4.851   3.961   5.680
66136SOL    HW1  240   4.926   3.962   5.621
66136SOL    HW2  241   4.786   3.907   5.635
66137SOL     OW  242  11.909   2.890  10.767
66137SOL    HW1  243  11.858   2.850  10.696
66137SOL    HW2  244  11.912   2.983  10.744
66138SOL     OW  245  10.255   7.000  12.441
66138SOL    HW1  246  10.306   6.920  12.447
66138SOL    HW2  247  10.202   7.001  12.520
66139SOL     OW  248  11.149  13.159  14.246
66139SOL    HW1  249  11.114  13.228  14.189
66139SOL    HW2  250  11.096  13.163  14.325
66140SOL     OW  251  12.933   1.160   4.458
66140SOL    HW1  252  12.941   1.143   4.365
66140SOL    HW2  253  12.845   1.130   4.481
66141SOL     OW  254   9.479   7.455   3.830
66141SOL    HW1  255   9.465   7.371   3.785
66141SOL    HW2  256   9.551   7.496   3.782
66142SOL     OW  257   8.734   9.765   5.821
66142SOL    HW1  258   8.697   9.817   5.750
66142SOL    HW2  259   8.751   9.830   5.890
66143SOL     OW  260  10.507  11.976   6.367
66143SOL    HW1  261  10.423  11.987   6.323
66143SOL    HW2  262  10.567  11.948   6.297
66144SOL     OW  263   7.419  13.703   0.044
66144SOL    HW1  264   7.418  13.792   0.008
66144SOL    HW2  265   7.373  13.711   0.128
66145SOL     OW  266   8.131  13.849  10.183
66145SOL    HW1  267   8.199  13.887  10.239
66145SOL    HW2  268   8.175  13.835  10.099
66146SOL     OW  269   8.918   4.372   4.941
66146SOL    HW1  270   8.856   4.305   4.914
66146SOL    HW2  271   8.874   4.455   4.922
66147SOL     OW  272  13.181   8.563  10.478
66147SOL    HW1  273  13.173   8.606  10.393
66147SOL    HW2  274  13.109   8.600  10.530
66148SOL     OW  275   2.125   0.768   0.938
66148SOL    HW1  276   2.066   0.707   0.984
66148SOL    HW2  277   2.158   0.717   0.864
66149SOL     OW  278   8.428   4.608   8.208
66149SOL    HW1  279   8.437   4.663   8.130
66149SOL    HW2  280   8.368   4.538   8.180
66150SOL     OW  281   8.863  13.843   2.735
66150SOL    HW1  282   8.804  13.795   2.677
66150SOL    HW2  283   8.897  13.914   2.681
66151SOL     OW  284   4.141   3.267  11.819
66151SOL    HW1  285   4.116   3.358  11.805
66151SOL    HW2  286   4.219   3.271  11.874
66152SOL     OW  287  11.200  14.314  11.592
66152SOL    HW1  288  11.108  14.311  11.617
66152SOL    HW2  289  11.242  14.246  11.645
66153SOL     OW  290   6.578   0.863   0.704
66153SOL    HW1  291   6.580   0.889   0.612
66153SOL    HW2  292   6.666   0.883   0.737
66154SOL     OW  293   8.525   6.453   5.448
66154SOL    HW1  294   8.572   6.457   5.531
66154SOL    HW2  295   8.572   6.388   5.396
66155SOL     OW  296  10.430  14.560   2.001
66155SOL    HW1  297  10.385  14.600   2.074
66155SOL    HW2  298  10.481  14.489   2.040
66156SOL     OW  299  12.952   4.482   0.669
66156SOL    HW1  300  12.924   4.465   0.580
66156SOL    HW2  301  12.929   4.403   0.718
66157SOL     OW  302   2.281   0.753  12.013
66157SOL    HW1  303   2.200   0.734  12.060
66157SOL    HW2  304   2.254   0.765  11.922
66158SOL     OW  305   7.221   1.154   6.358
66158SOL    HW1  306   7.172   1.084   6.402
66158SOL    HW2  307   7.311   1.120   6.352
66159SOL     OW  308   8.763   4.451  10.125
66159SOL    HW1  309   8.740   4.523  10.066
66159SOL    HW2  310   8.700   4.382  10.103
66160SOL     OW  311   3.676   5.185   2.876
66160SOL    HW1  312   3.722   5.266   2.898
66160SOL    HW2  313   3.727   5.146   2.805
66161SOL     OW  314   0.953   1.458   4.799
66161SOL    HW1  315   0.909   1.540   4.780
66161SOL    HW2  316   1.028   1.482   4.854
66162SOL     OW  317   6.155  12.169   1.137
66162SOL    HW1  318   6.246  12.195   1.134
66162SOL    HW2  319   6.107  12.250   1.155
66163SOL     OW  320   7.399   5.833   0.233
66163SOL    HW1  321   7.428   5.795   0.150
66163SOL    HW2  322   7.304   5.825   0.231
66164SOL     OW  323  14.260   8.881   0.119
66164SOL    HW1  324  14.222   8.889   0.032
66164SOL    HW2  325  14.339   8.829   0.106
66165SOL     OW  326  10.182   5.016  14.421
66165SOL    HW1  327  10.128   4.948  14.462
66165SOL    HW2  328  10.144   5.028  14.334
66166SOL     OW  329   3.527   0.632  13.632
66166SOL    HW1  330   3.498   0.721  13.609
66166SOL    HW2  331   3.520   0.583  13.550
66167SOL     OW  332   1.167  11.048  14.452
66167SOL    HW1  333   1.221  11.062  14.374
66167SOL    HW2  334   1.228  11.053  14.525
66168SOL     OW  335   7.836  12.661   6.187
66168SOL    HW1  336   7.881  12.649   6.104
66168SOL    HW2  337   7.781  12.583   6.196
66169SOL     OW  338   0.157   3.219   8.980
66169SOL    HW1  339   0.198   3.272   9.048
66169SOL    HW2  340   0.169   3.129   9.009
66170SOL     OW  341  14.142   5.749   9.281
66170SOL    HW1  342  14.149   5.823   9.341
66170SOL    HW2  343  14.216   5.692   9.305
66171SOL     OW  344  10.306  14.277   8.222
66171SOL    HW1  345  10.220  14.236   8.224
66171SOL    HW2  346  10.288  14.371   8.219
66172SOL     OW  347  14.298   9.324  10.970
66172SOL    HW1  348  14.217   9.374  10.973
66172SOL    HW2  349  14.303   9.280  11.054
66173SOL     OW  350  12.493   0.132   6.966
66173SOL    HW1  351  12.471   0.175   6.884
66173SOL    HW2  352  12.417   0.078   6.986
66174SOL     OW  353   4.103  12.756   0.115
66174SOL    HW1  354   4.199  12.765   0.113
66174SOL    HW2  355   4.088  12.661   0.122
66175SOL     OW  356   4.851   3.366   2.303
66175SOL    HW1  357   4.806   3.368   2.388
66175SOL    HW2  358   4.864   3.458   2.281
66176SOL     OW  359  11.798   6.873   2.327
66176SOL    HW1  360  11.785   6.895   2.235
66176SOL    HW2  361  11.880   6.824   2.329
66177SOL     OW  362  12.892   0.127  12.678
66177SOL    HW1  363  12.809   0.172  12.663
66177SOL    HW2  364  12.925   0.164  12.760
66178SOL     OW  365  11.186   9.470   8.748
66178SOL    HW1  366  11.118   9.442   8.809
66178SOL    HW2  367  11.138   9.516   8.679
66179SOL     OW  368   5.575   0.381   1.567
66179SOL    HW1  369   5.569   0.290   1.597
66179SOL    HW2  370   5.623   0.426   1.636
66180SOL     OW  371   9.171  13.877   0.203
66180SOL    HW1  372   9.187  13.786   0.177
66180SOL    HW2  373   9.252  13.922   0.179
66181SOL     OW  374   4.758   3.690   7.569
66181SOL    HW1  375   4.818   3.623   7.604
66181SOL    HW2  376   4.730   3.739   7.646
66182SOL     OW  377   3.248  10.694   7.078
66182SOL    HW1  378   3.200  10.686   6.995
66182SOL    HW2  379   3.333  10.655   7.060
66183SOL     OW  380  14.796  12.142   2.646
66183SOL    HW1  381  14.852  12.154   2.569
66183SOL    HW2  382  14.708  12.131   2.611
66184SOL     OW  383   7.226   4.652  12.547
66184SOL    HW1  384   7.280   4.662  12.626
66184SOL    HW2  385   7.140   4.627  12.580
66185SOL     OW  386  12.925   1.388   6.235
66185SOL    HW1  387  13.005   1.432   6.208
66185SOL    HW2  388  12.913   1.412   6.327
66186SOL     OW  389   7.784   6.569   1.777
66186SOL    HW1  390   7.739   6.645   1.815
66186SOL    HW2  391   7.714   6.506   1.760
66187SOL     OW  392   0.714   4.300   0.103
66187SOL    HW1  393   0.801   4.301   0.063
66187SOL    HW2  394   0.726   4.338   0.190
66188SOL     OW  395   9.909   4.994   1.494
66188SOL    HW1  396   9.846   5.043   1.441
66188SOL    HW2  397   9.994   5.014   1.454
66189SOL     OW  398  14.597   2.570  10.155
66189SOL    HW1  399  14.522   2.573  10.095
66189SOL    HW2  400  14.665   2.621  10.110
66190SOL     OW  401  11.275  11.887   3.473
66190SOL    HW1  402  11.266  11.792   3.479
66190SOL    HW2  403  11.322  11.911   3.553
66191SOL     OW  404   1.701   1.569   8.150
66191SOL    HW1  405   1.707   1.494   8.090
66191SOL    HW2  406   1.619   1.556   8.197
66192SOL     OW  407   3.443   2.206  11.216
66192SOL    HW1  408   3.421   2.132  11.160
66192SOL    HW2  409   3.483   2.167  11.294
66193SOL     OW  410  13.905   9.395   4.749
66193SOL    HW1  411  13.970   9.339   4.705
66193SOL    HW2  412  13.852   9.430   4.677
66194SOL     OW  413   5.894  10.389   1.403
66194SOL    HW1  414   5.917  10.349   1.487
66194SOL    HW2  415   5.967  10.447   1.383
66195SOL     OW  416  12.366  12.240  12.966
66195SOL    HW1  417  12.331  12.328  12.984
66195SOL    HW2  418  12.407  12.248  12.880
66196SOL     OW  419   4.499   8.671   7.669
66196SOL    HW1  420   4.486   8.746   7.611
66196SOL    HW2  421   4.429   8.610   7.644
66197SOL     OW  422   2.029  11.410  12.072
66197SOL    HW1  423   2.066  11.425  11.985
66197SOL    HW2  424   1.994  11.321  12.069
66198SOL     OW  425   5.097   5.943   7.372
66198SOL    HW1  426   5.033   5.950   7.301
66198SOL    HW2  427   5.081   5.856   7.410
66199SOL     OW  428   9.696   9.862   0.131
66199SOL    HW1  429   9.737   9.811   0.062
66199SOL    HW2  430   9.602   9.851   0.116
66200SOL     OW  431   8.456   7.538   5.585
66200SOL    HW1  432   8.422   7.490   5.660
66200SOL    HW2  433   8.462   7.629   5.614
66201SOL     OW  434   3.735   2.660   2.227
66201SOL    HW1  435   3.796   2.631   2.295
66201SOL    HW2  436   3.736   2.590   2.162
66202SOL     OW  437  13.859   9.728   6.276
66202SOL    HW1  438  13.799   9.663   6.238
66202SOL    HW2  439  13.920   9.676   6.329
66203SOL     OW  440   2.019  10.897  11.678
66203SOL    HW1  441   1.927  10.913  11.697
66203SOL    HW2  442   2.041  10.962  11.612
66204SOL     OW  443   2.618   8.121   0.387
66204SOL    HW1  444   2.579   8.133   0.473
66204SOL    HW2  445   2.623   8.209   0.350
66205SOL     OW  446   6.469   5.233   1.009
66205SOL    HW1  447   6.392   5.218   0.955
66205SOL    HW2  448   6.459   5.323   1.041
66206SOL     OW  449   5.338   8.589   5.691
66206SOL    HW1  450   5.314   8.669   5.645
66206SOL    HW2  451   5.401   8.546   5.632
66207SOL     OW  452  12.022   2.392   5.148
66207SOL    HW1  453  11.941   2.343   5.144
66207SOL    HW2  454  12.052   2.382   5.239
66208SOL     OW  455   8.379   4.430   1.370
66208SOL    HW1  456   8.405   4.345   1.405
66208SOL    HW2  457   8.462   4.479   1.362
66209SOL     OW  458   4.276   7.656   3.143
66209SOL    HW1  459   4.353   7.709   3.164
66209SOL    HW2  460   4.220   7.663   3.220
66210SOL     OW  461   2.759  11.337   3.499
66210SOL    HW1  462   2.691  11.403   3.513
66210SOL    HW2  463   2.785  11.309   3.586
66211SOL     OW  464   7.167   8.362  11.762
66211SOL    HW1  465   7.189   8.270  11.775
66211SOL    HW2  466   7.071   8.362  11.758
66212SOL     OW  467   7.566   5.525  12.623
66212SOL    HW1  468   7.563   5.490  12.712
66212SOL    HW2  469   7.653   5.565  12.617
66213SOL     OW  470   2.070   7.521   7.218
66213SOL    HW1  471   2.099   7.552   7.132
66213SOL    HW2  472   2.123   7.569   7.281
66214SOL     OW  473   0.402   3.553  13.754
66214SOL    HW1  474   0.387   3.632  13.806
66214SOL    HW2  475   0.496   3.539  13.757
66215SOL     OW  476  12.521   3.597  14.189
66215SOL    HW1  477  12.569   3.653  14.250
66215SOL    HW2  478  12.520   3.647  14.107
66216SOL     OW  479  11.260   8.762   1.709
66216SOL    HW1  480  11.296   8.692   1.655
66216SOL    HW2  481  11.235   8.830   1.647
66217SOL     OW  482   9.191  14.720   4.255
66217SOL    HW1  483   9.142  14.797   4.283
66217SOL    HW2  484   9.155  14.698   4.169
66218SOL     OW  485   2.810   4.538  13.060
66218SOL    HW1  486   2.734   4.572  13.013
66218SOL    HW2  487   2.876   4.607  13.053
66219SOL     OW  488   1.694   1.432   7.632
66219SOL    HW1  489   1.615   1.380   7.615
66219SOL    HW2  490   1.765   1.380   7.594
66220SOL     OW  491  11.009  13.297   5.923
66220SOL    HW1  492  10.976  13.255   6.002
66220SOL    HW2  493  10.948  13.269   5.854
66221SOL     OW  494   9.131  13.329   9.483
66221SOL    HW1  495   9.043  13.298   9.507
66221SOL    HW2  496   9.190  13.277   9.538
66222SOL     OW  497  10.062  14.070  11.269
66222SOL    HW1  498   9.970  14.052  11.249
66222SOL    HW2  499  10.105  14.075  11.184
66223SOL     OW  500   0.813  13.716   9.440
66223SOL    HW1  501   0.840  13.726   9.349
66223SOL    HW2  502   0.719  13.697   9.435
66224SOL     OW  503   9.851   2.214   8.508
66224SOL    HW1  504   9.872   2.291   8.561
66224SOL    HW2  505   9.764   2.188   8.539
66225SOL     OW  506   8.259  14.661   0.965
66225SOL    HW1  507   8.185  14.716   0.940
66225SOL    HW2  508   8.312  14.656   0.885
66226SOL     OW  509   8.535   4.654  10.127
66226SOL    HW1  510   8.548   4.740  10.088
66226SOL    HW2  511   8.570   4.662  10.216
66227SOL     OW  512  11.006   8.575   2.303
66227SOL    HW1  513  11.030   8.491   2.344
66227SOL    HW2  514  11.053   8.640   2.355
66228SOL     OW  515   9.448  14.761  11.420
66228SOL    HW1  516   9.431  14.856  11.417
66228SOL    HW2  517   9.540  14.754  11.443
66229SOL     OW  518   5.148   6.491   1.195
66229SOL    HW1  519   5.096   6.419   1.229
66229SOL    HW2  520   5.194   6.526   1.271
66230SOL     OW  521  10.640   7.243   6.300
66230SOL    HW1  522  10.613   7.326   6.339
66230SOL    HW2  523  10.638   7.181   6.372
66231SOL     OW  524   4.558  11.850   7.402
66231SOL    HW1  525   4.628  11.902   7.363
66231SOL    HW2  526   4.512  11.911   7.459
66232SOL     OW  527  14.357   8.000   6.730
66232SOL    HW1  528  14.274   7.956   6.708
66232SOL    HW2  529  14.335   8.093   6.730
66233SOL     OW  530  12.051  12.876  12.831
66233SOL    HW1  531  12.058  12.797  12.777
66233SOL    HW2  532  11.987  12.853  12.898
66234SOL     OW  533   2.479  10.397   4.289
66234SOL    HW1  534   2.512  10.435   4.371
66234SOL    HW2  535   2.555  10.395   4.231
66235SOL     OW  536  14.591   9.739   4.118
66235SOL    HW1  537  14.514   9.683   4.119
66235SOL    HW2  538  14.589   9.786   4.201
66236SOL     OW  539   0.371  12.297   1.530
66236SOL    HW1  540   0.396  12.328   1.443
66236SOL    HW2  541   0.369  12.376   1.584
66237SOL     OW  542   2.893  11.285   1.743
66237SOL    HW1  543   2.909  11.192   1.762
66237SOL    HW2  544   2.863  11.286   1.652
66238SOL     OW  545   9.009   5.989   4.367
66238SOL    HW1  546   8.945   6.031   4.425
66238SOL    HW2  547   9.084   6.048   4.369
66239SOL     OW  548  10.545  12.426   5.558
66239SOL    HW1  549  10.620  12.368   5.553
66239SOL    HW2  550  10.552  12.468   5.644
66240SOL     OW  551   2.286   9.341   1.967
66240SOL    HW1  552   2.209   9.377   2.011
66240SOL    HW2  553   2.347   9.415   1.961
66241SOL     OW  554   7.838  12.665   7.960
66241SOL    HW1  555   7.855  12.680   7.867
66241SOL    HW2  556   7.882  12.582   7.980
66242SOL     OW  557  13.754   2.304   0.554
66242SOL    HW1  558  13.700   2.228   0.577
66242SOL    HW2  559  13.695   2.379   0.564
66243SOL     OW  560  14.756   7.981   3.156
66243SOL    HW1  561  14.764   7.926   3.233
66243SOL    HW2  562  14.721   8.064   3.188
66244SOL     OW  563   3.360  13.823   5.514
66244SOL    HW1  564   3.442  13.855   5.475
66244SOL    HW2  565   3.380  13.815   5.607
66245SOL     OW  566   5.250  14.781   8.132
66245SOL    HW1  567   5.342  14.806   8.122
66245SOL    HW2  568   5.239  14.706   8.073
66246SOL     OW  569   9.320  10.491   1.051
66246SOL    HW1  570   9.394  10.531   1.006
66246SOL    HW2  571   9.357  10.415   1.097
66247SOL     OW  572   8.743   6.406  14.177
66247SOL    HW1  573   8.807   6.477  14.186
66247SOL    HW2  574   8.662   6.442  14.212
66248SOL     OW  575  13.952  14.057   9.398
66248SOL    HW1  576  14.045  14.071   9.378
66248SOL    HW2  577  13.916  14.015   9.320
66249SOL     OW  578   1.686   6.205  11.234
66249SOL    HW1  579   1.594   6.227  11.216
66249SOL    HW2  580   1.736   6.269  11.183
66250SOL     OW  581   7.294  13.219  11.868
66250SOL    HW1  582   7.273  13.187  11.780
66250SOL    HW2  583   7.229  13.178  11.925
66251SOL     OW  584   5.542  13.998  14.599
66251SOL    HW1  585   5.612  13.933  14.607
66251SOL    HW2  586   5.463  13.947  14.583
66252SOL     OW  587   3.021  14.712  10.121
66252SOL    HW1  588   3.112  14.723  10.147
66252SOL    HW2  589   2.973  14.777  10.172
66253SOL     OW  590  11.309  14.626   5.175
66253SOL    HW1  591  11.223  14.639   5.215
66253SOL    HW2  592  11.290  14.595   5.087
66254SOL     OW  593  10.777   4.610   3.641
66254SOL    HW1  594  10.712   4.579   3.704
66254SOL    HW2  595  10.835   4.535   3.628
66255SOL     OW  596   1.741   4.108   5.724
66255SOL    HW1  597   1.733   4.022   5.767
66255SOL    HW2  598   1.653   4.126   5.690
66256SOL     OW  599   2.953   2.894   0.611
66256SOL    HW1  600   2.974   2.949   0.687
66256SOL    HW2  601   2.914   2.815   0.649
66257SOL     OW  602  13.753   2.000   6.487
66257SOL    HW1  603  13.693   2.071   6.507
66257SOL    HW2  604  13.774   2.013   6.394
66258SOL     OW  605   4.314   4.102  13.142
66258SOL    HW1  606   4.388   4.044  13.160
66258SOL    HW2  607   4.262   4.100  13.222
66259SOL     OW  608   2.158  12.510   7.849
66259SOL    HW1  609   2.184  12.424   7.817
66259SOL    HW2  610   2.198  12.572   7.787
66260SOL     OW  611   8.333   6.931  11.802
66260SOL    HW1  612   8.295   6.950  11.888
66260SOL    HW2  613   8.370   7.014  11.773
66261SOL     OW  614  14.115  11.260  14.735
66261SOL    HW1  615  14.141  11.236  14.824
66261SOL    HW2  616  14.189  11.237  14.681
66262SOL     OW  617  11.497   3.236  12.770
66262SOL    HW1  618  11.487   3.146  12.740
66262SOL    HW2  619  11.432   3.286  12.721
66263SOL     OW  620   6.949   3.441   5.549
66263SOL    HW1  621   6.855   3.446   5.533
66263SOL    HW2  622   6.989   3.482   5.472
66264SOL     OW  623   6.497   0.378   1.711
66264SOL    HW1  624   6.545   0.333   1.641
66264SOL    HW2  625   6.559   0.380   1.784
66265SOL     OW  626  11.757   6.987  10.484
66265SOL    HW1  627  11.706   7.016  10.408
66265SOL    HW2  628  11.791   7.068  10.522
66266SOL     OW  629   4.747  14.851   7.358
66266SOL    HW1  630   4.800  14.773   7.372
66266SOL    HW2  631   4.671  14.820   7.309
66267SOL     OW  632  14.312  11.755  14.735
66267SOL    HW1  633  14.383  11.780  14.795
66267SOL    HW2  634  14.320  11.659  14.728
66268SOL     OW  635  12.228   1.231   7.829
66268SOL    HW1  636  12.143   1.267   7.803
66268SOL    HW2  637  12.224   1.226   7.924
66269SOL     OW  638   2.194   5.945   6.360
66269SOL    HW1  639   2.165   6.035   6.346
66269SOL    HW2  640   2.254   5.950   6.434
66270SOL     OW  641   4.669   6.054   4.675
66270SOL    HW1  642   4.684   6.108   4.597
66270SOL    HW2  643   4.745   5.996   4.678
66271SOL     OW  644  12.005  14.026   8.075
66271SOL    HW1  645  12.086  14.037   8.126
66271SOL    HW2  646  11.948  14.095   8.106
66272SOL     OW  647   0.096   6.713   1.354
66272SOL    HW1  648   0.110   6.648   1.285
66272SOL    HW2  649   0.006   6.744   1.340
66273SOL     OW  650   9.741   2.975   8.763
66273SOL    HW1  651   9.708   2.979   8.673
66273SOL    HW2  652   9.716   2.888   8.794
66274SOL     OW  653   2.369   1.809   9.241
66274SOL    HW1  654   2.437   1.742   9.240
66274SOL    HW2  655   2.416   1.892   9.241
66275SOL     OW  656  12.852   8.630  14.165
66275SOL    HW1  657  12.840   8.612  14.071
66275SOL    HW2  658  12.867   8.724  14.170
66276SOL     OW  659   5.979  10.721   1.271
66276SOL    HW1  660   6.044  10.764   1.216
66276SOL    HW2  661   5.923  10.673   1.210
66277SOL     OW  662  14.099  12.365   4.088
66277SOL    HW1  663  14.097  12.453   4.049
66277SOL    HW2  664  14.014  12.327   4.067
66278SOL     OW  665  14.085   4.388   4.869
66278SOL    HW1  666  14.096   4.482   4.877
66278SOL    HW2  667  14.112   4.368   4.779
66279SOL     OW  668  11.612   5.494   8.975
66279SOL    HW1  669  11.615   5.402   9.004
66279SOL    HW2  670  11.526   5.525   9.001
66280SOL     OW  671   1.171  11.910   2.021
66280SOL    HW1  672   1.248  11.880   1.974
66280SOL    HW2  673   1.180  12.005   2.024
66281SOL     OW  674  12.320   2.421   4.075
66281SOL    HW1  675  12.237   2.387   4.042
66281SOL    HW2  676  12.379   2.415   4.000
66282SOL     OW  677  10.038   0.248   0.454
66282SOL    HW1  678  10.003   0.311   0.517
66282SOL    HW2  679  10.030   0.163   0.498
66283SOL     OW  680  14.332   9.102   2.057
66283SOL    HW1  681  14.293   9.175   2.106
66283SOL    HW2  682  14.269   9.086   1.986
66284SOL     OW  683  10.085   5.432  12.656
66284SOL    HW1  684  10.127   5.418  12.571
66284SOL    HW2  685  10.016   5.366  12.660
66285SOL     OW  686   1.247   0.030   0.297
66285SOL    HW1  687   1.325   0.039   0.243
66285SOL    HW2  688   1.257  14.817   0.340
66286SOL     OW  689  10.691   2.444   7.172
66286SOL    HW1  690  10.727   2.379   7.112
66286SOL    HW2  691  10.764   2.504   7.189
66287SOL     OW  692  14.845   8.006   4.860
66287SOL    HW1  693  14.771   8.039   4.911
66287SOL    HW2  694   0.038   8.077   4.866
66288SOL     OW  695  14.673   3.860   7.805
66288SOL    HW1  696  14.582   3.855   7.776
66288SOL    HW2  697  14.703   3.946   7.775
66289SOL     OW  698   4.514   1.323  13.932
66289SOL    HW1  699   4.497   1.405  13.884
66289SOL    HW2  700   4.430   1.278  13.932
66290SOL     OW  701  12.234   8.037  13.683
66290SOL    HW1  702  12.213   8.101  13.751
66290SOL    HW2  703  12.182   8.064  13.608
66291SOL     OW  704  14.534   9.850   0.484
66291SOL    HW1  705  14.619   9.894   0.477
66291SOL    HW2  706  14.490   9.871   0.401
66292SOL     OW  707  10.011   3.020  14.433
66292SOL    HW1  708  10.022   2.925  14.440
66292SOL    HW2  709  10.096   3.051  14.400
66293SOL     OW  710  13.103   6.047   6.354
66293SOL    HW1  711  13.159   6.116   6.391
66293SOL    HW2  712  13.122   6.051   6.260
66294SOL     OW  713  14.238  13.779   4.318
66294SOL    HW1  714  14.279  13.865   4.308
66294SOL    HW2  715  14.275  13.744   4.399
66295SOL     OW  716   8.691   5.299  11.756
66295SOL    HW1  717   8.658   5.357  11.825
66295SOL    HW2  718   8.626   5.229  11.751
66296SOL     OW  719  14.448   2.144   5.781
66296SOL    HW1  720  14.479   2.125   5.869
66296SOL    HW2  721  14.352   2.135   5.787
66297SOL     OW  722   2.237   5.584   0.160
66297SOL    HW1  723   2.289   5.630   0.226
66297SOL    HW2  724   2.280   5.603   0.077
66298SOL     OW  725  11.483   0.818   7.651
66298SOL    HW1  726  11.403   0.805   7.702
66298SOL    HW2  727  11.466   0.773   7.568
66299SOL     OW  728  14.363   4.981   9.629
66299SOL    HW1  729  14.317   5.065   9.633
66299SOL    HW2  730  14.452   5.001   9.661
66300SOL     OW  731  14.132  12.861   0.582
66300SOL    HW1  732  14.173  12.941   0.549
66300SOL    HW2  733  14.193  12.791   0.556
66301SOL     OW  734   8.190  11.266   0.182
66301SOL    HW1  735   8.198  11.171   0.193
66301SOL    HW2  736   8.281  11.296   0.171
66302SOL     OW  737   6.943   5.195   1.113
66302SOL    HW1  738   6.876   5.159   1.054
66302SOL    HW2  739   6.925   5.154   1.198
66303SOL     OW  740   5.714  13.224   3.420
66303SOL    HW1  741   5.807  13.205   3.424
66303SOL    HW2  742   5.695  13.269   3.502
66304SOL     OW  743  14.613   9.124   7.156
66304SOL    HW1  744  14.658   9.202   7.186
66304SOL    HW2  745  14.674   9.083   7.094
66305SOL     OW  746  10.149   0.774  14.843
66305SOL    HW1  747  10.173   0.718   0.045
66305SOL    HW2  748  10.232   0.789  14.797
66306SOL     OW  749   7.650  11.973   6.448
66306SOL    HW1  750   7.587  11.904   6.471
66306SOL    HW2  751   7.717  11.928   6.397
66307SOL     OW  752   4.008   5.244  13.046
66307SOL    HW1  753   4.019   5.197  12.963
66307SOL    HW2  754   4.053   5.327  13.033
66308SOL     OW  755   2.332  11.095   9.000
66308SOL    HW1  756   2.405  11.146   8.963
66308SOL    HW2  757   2.339  11.109   9.095
66309SOL     OW  758  11.412   7.483   2.779
66309SOL    HW1  759  11.358   7.558   2.755
66309SOL    HW2  760  11.493   7.495   2.730
66310SOL     OW  761   6.272  13.936  12.076
66310SOL    HW1  762   6.307  14.003  12.018
66310SOL    HW2  763   6.184  13.966  12.099
66311SOL     OW  764   4.786  13.376   9.913
66311SOL    HW1  765   4.702  13.358   9.956
66311SOL    HW2  766   4.778  13.467   9.883
66312SOL     OW  767   7.085  13.977  13.952
66312SOL    HW1  768   7.174  13.958  13.981
66312SOL    HW2  769   7.031  13.967  14.030
66313SOL     OW  770   7.558  10.842   9.109
66313SOL    HW1  771   7.539  10.794   9.190
66313SOL    HW2  772   7.651  10.829   9.095
66314SOL     OW  773  11.114   4.501  13.883
66314SOL    HW1  774  11.171   4.451  13.941
66314SOL    HW2  775  11.026   4.485  13.916
66315SOL     OW  776   3.137   3.798   0.553
66315SOL    HW1  777   3.178   3.818   0.638
66315SOL    HW2  778   3.129   3.883   0.510
66316SOL     OW  779   4.198   3.050  13.351
66316SOL    HW1  780   4.163   3.112  13.415
66316SOL    HW2  781   4.279   3.091  13.320
66317SOL     OW  782   8.937   6.544   9.758
66317SOL    HW1  783   8.999   6.494   9.810
66317SOL    HW2  784   8.971   6.634   9.759
66318SOL     OW  785   5.992   4.195   6.702
66318SOL    HW1  786   6.049   4.144   6.759
66318SOL    HW2  787   6.051   4.245   6.647
66319SOL     OW  788   5.672   3.860   3.607
66319SOL    HW1  789   5.758   3.896   3.630
66319SOL    HW2  790   5.652   3.900   3.522
66320SOL     OW  791   2.662  11.191   5.538
66320SOL    HW1  792   2.596  11.162   5.474
66320SOL    HW2  793   2.737  11.134   5.521
66321SOL     OW  794  13.751   8.990   5.969
66321SOL    HW1  795  13.702   8.914   5.937
66321SOL    HW2  796  13.830   8.993   5.914
66322SOL     OW  797   8.629   8.387   1.073
66322SOL    HW1  798   8.597   8.466   1.029
66322SOL    HW2  799   8.662   8.419   1.157
66323SOL     OW  800   4.973   9.317  11.403
66323SOL    HW1  801   4.902   9.374  11.372
66323SOL    HW2  802   4.960   9.235  11.357
66324SOL     OW  803   1.720   8.911  13.473
66324SOL    HW1  804   1.732   8.848  13.402
66324SOL    HW2  805   1.808   8.943  13.492
66325SOL     OW  806   4.832   1.733  11.927
66325SOL    HW1  807   4.792   1.725  11.841
66325SOL    HW2  808   4.890   1.809  11.919
66326SOL     OW  809   5.347   9.849   9.173
66326SOL    HW1  810   5.306   9.860   9.087
66326SOL    HW2  811   5.362   9.755   9.181
66327SOL     OW  812   5.881   9.600   9.042
66327SOL    HW1  813   5.797   9.612   8.998
66327SOL    HW2  814   5.937   9.557   8.977
66328SOL     OW  815   5.194   2.625  10.663
66328SOL    HW1  816   5.225   2.581  10.741
66328SOL    HW2  817   5.177   2.715  10.691
66329SOL     OW  818   2.349   1.952  12.707
66329SOL    HW1  819   2.309   2.011  12.772
66329SOL    HW2  820   2.275   1.911  12.663
66330SOL     OW  821   5.671   1.919   6.919
66330SOL    HW1  822   5.624   1.877   6.991
66330SOL    HW2  823   5.748   1.959   6.960
66331SOL     OW  824  13.078   2.010   6.501
66331SOL    HW1  825  13.098   2.047   6.415
66331SOL    HW2  826  13.065   2.087   6.557
66332SOL     OW  827   8.181   6.830   0.255
66332SOL    HW1  828   8.106   6.823   0.315
66332SOL    HW2  829   8.198   6.924   0.249
66333SOL     OW  830   6.140   6.682   7.255
66333SOL    HW1  831   6.184   6.664   7.338
66333SOL    HW2  832   6.103   6.770   7.266
66334SOL     OW  833   3.238   6.980   5.777
66334SOL    HW1  834   3.321   6.943   5.809
66334SOL    HW2  835   3.177   6.968   5.850
66335SOL     OW  836   6.004  11.790   1.445
66335SOL    HW1  837   5.995  11.827   1.357
66335SOL    HW2  838   6.077  11.728   1.436
66336SOL     OW  839   9.785  10.071  11.098
66336SOL    HW1  840   9.789  10.059  11.003
66336SOL    HW2  841   9.812  10.162  11.112
66337SOL     OW  842   9.412  13.104   8.321
66337SOL    HW1  843   9.394  13.098   8.227
66337SOL    HW2  844   9.342  13.160   8.355
66338SOL     OW  845   3.468   2.875  10.833
66338SOL    HW1  846   3.549   2.918  10.861
66338SOL    HW2  847   3.467   2.887  10.738
66339SOL     OW  848   1.805  11.678   0.479
66339SOL    HW1  849   1.858  11.666   0.400
66339SOL    HW2  850   1.869  11.697   0.548
66340SOL     OW  851  12.306  14.268  14.127
66340SOL    HW1  852  12.380  14.245  14.183
66340SOL    HW2  853  12.335  14.347  14.080
66341SOL     OW  854   5.017   0.306  12.500
66341SOL    HW1  855   4.964   0.298  12.421
66341SOL    HW2  856   4.955   0.333  12.569
66342SOL     OW  857  13.677   6.770   3.465
66342SOL    HW1  858  13.711   6.724   3.388
66342SOL    HW2  859  13.755   6.802   3.509
66343SOL     OW  860  14.425  12.726  14.227
66343SOL    HW1  861  14.514  12.709  14.260
66343SOL    HW2  862  14.438  12.756  14.137
66344SOL     OW  863   0.082  14.702   0.974
66344SOL    HW1  864   0.017  14.734   1.037
66344SOL    HW2  865   0.156  14.674   1.028
66345SOL     OW  866  10.795   7.503   4.296
66345SOL    HW1  867  10.870   7.444   4.290
66345SOL    HW2  868  10.733   7.458   4.354
66346SOL     OW  869   7.574   1.332   4.651
66346SOL    HW1  870   7.526   1.252   4.670
66346SOL    HW2  871   7.586   1.374   4.736
66347SOL     OW  872   8.556   6.171   2.969
66347SOL    HW1  873   8.517   6.088   2.998
66347SOL    HW2  874   8.532   6.233   3.038
66348SOL     OW  875   0.151   2.402   1.830
66348SOL    HW1  876   0.234   2.394   1.782
66348SOL    HW2  877   0.119   2.489   1.808
66349SOL     OW  878  10.048   9.610   9.773
66349SOL    HW1  879   9.998   9.529   9.777
66349SOL    HW2  880  10.011   9.657   9.698
66350SOL     OW  881   3.091   9.216   9.380
66350SOL    HW1  882   3.155   9.178   9.320
66350SOL    HW2  883   3.024   9.254   9.323
66351SOL     OW  884   7.718   5.176  10.148
66351SOL    HW1  885   7.735   5.212  10.235
66351SOL    HW2  886   7.777   5.101  10.141
66352SOL     OW  887   3.276  12.847   9.061
66352SOL    HW1  888   3.194  12.836   9.109
66352SOL    HW2  889   3.268  12.932   9.018
66353SOL     OW  890  13.973  14.567   8.104
66353SOL    HW1  891  14.040  14.601   8.163
66353SOL    HW2  892  13.951  14.481   8.141
66354SOL     OW  893  12.551   6.204   0.249
66354SOL    HW1  894  12.527   6.117   0.281
66354SOL    HW2  895  12.573   6.254   0.328
66355SOL     OW  896  12.365   9.029   4.575
66355SOL    HW1  897  12.379   8.973   4.652
66355SOL    HW2  898  12.374   8.969   4.500
66356SOL     OW  899  14.728   7.092   5.181
66356SOL    HW1  900  14.715   7.181   5.215
66356SOL    HW2  901  14.642   7.067   5.147
66357SOL     OW  902   7.883  11.797   5.952
66357SOL    HW1  903   7.920  11.716   5.988
66357SOL    HW2  904   7.861  11.775   5.862
66358SOL     OW  905   9.011   9.841  10.742
66358SOL    HW1  906   9.097   9.859  10.703
66358SOL    HW2  907   8.975   9.770  10.689
66359SOL     OW  908  10.330  13.173   7.650
66359SOL    HW1  909  10.309  13.262   7.622
66359SOL    HW2  910  10.292  13.166   7.738
66360SOL     OW  911   2.111   7.283   1.811
66360SOL    HW1  912   2.192   7.238   1.786
66360SOL    HW2  913   2.138   7.345   1.879
66361SOL     OW  914   0.259  11.756   1.935
66361SOL    HW1  915   0.299  11.678   1.897
66361SOL    HW2  916   0.204  11.722   2.006
66362SOL     OW  917  12.678   8.624   1.626
66362SOL    HW1  918  12.755   8.619   1.569
66362SOL    HW2  919  12.613   8.569   1.583
66363SOL     OW  920   6.937  13.532  13.001
66363SOL    HW1  921   7.031  13.545  13.010
66363SOL    HW2  922   6.926  13.436  13.000
66364SOL     OW  923   4.906  14.572  12.120
66364SOL    HW1  924   4.966  14.511  12.162
66364SOL    HW2  925   4.956  14.606  12.045
66365SOL     OW  926  13.679   5.715  13.546
66365SOL    HW1  927  13.671   5.644  13.482
66365SOL    HW2  928  13.629   5.787  13.508
66366SOL     OW  929   4.582  11.039   2.571
66366SOL    HW1  930   4.604  10.972   2.636
66366SOL    HW2  931   4.667  11.065   2.535
66367SOL     OW  932  10.191   0.520   3.494
66367SOL    HW1  933  10.177   0.522   3.399
66367SOL    HW2  934  10.171   0.609   3.523
66368SOL     OW  935   8.431   6.734   2.704
66368SOL    HW1  936   8.446   6.678   2.780
66368SOL    HW2  937   8.339   6.760   2.711
66369SOL     OW  938   5.005   6.155  11.838
66369SOL    HW1  939   4.954   6.176  11.760
66369SOL    HW2  940   5.047   6.238  11.861
66370SOL     OW  941   9.950   2.094   9.640
66370SOL    HW1  942   9.983   2.004   9.634
66370SOL    HW2  943   9.855   2.085   9.636
66371SOL     OW  944   1.447  10.260   3.654
66371SOL    HW1  945   1.397  10.178   3.655
66371SOL    HW2  946   1.461  10.278   3.561
66372SOL     OW  947   2.829  10.429   4.770
66372SOL    HW1  948   2.832  10.432   4.675
66372SOL    HW2  949   2.919  10.408   4.796
66373SOL     OW  950   7.015   3.359   2.472
66373SOL    HW1  951   7.056   3.419   2.534
66373SOL    HW2  952   7.011   3.408   2.390
66374SOL     OW  953   4.906   9.079   6.687
66374SOL    HW1  954   4.861   9.051   6.767
66374SOL    HW2  955   4.999   9.082   6.712
66375SOL     OW  956   8.686   6.217   5.868
66375SOL    HW1  957   8.778   6.224   5.890
66375SOL    HW2  958   8.683   6.163   5.789
66376SOL     OW  959   5.306   0.931   9.000
66376SOL    HW1  960   5.333   0.850   8.958
66376SOL    HW2  961   5.215   0.916   9.026
66377SOL     OW  962  13.802   8.822   1.532
66377SOL    HW1  963  13.718   8.867   1.534
66377SOL    HW2  964  13.799   8.770   1.452
66378SOL     OW  965  12.504   3.183  13.284
66378SOL    HW1  966  12.484   3.215  13.196
66378SOL    HW2  967  12.465   3.249  13.342
66379SOL     OW  968   9.707   6.471   2.229
66379SOL    HW1  969   9.770   6.508   2.290
66379SOL    HW2  970   9.703   6.534   2.157
66380SOL     OW  971  13.477  13.651   1.848
66380SOL    HW1  972  13.397  13.655   1.796
66380SOL    HW2  973  13.473  13.728   1.905
66381SOL     OW  974   8.692  14.446   9.083
66381SOL    HW1  975   8.768  14.482   9.130
66381SOL    HW2  976   8.633  14.416   9.152
66382SOL     OW  977   4.186   4.077   7.937
66382SOL    HW1  978   4.185   4.059   7.843
66382SOL    HW2  979   4.150   3.998   7.978
66383SOL     OW  980  11.393  10.212   4.886
66383SOL    HW1  981  11.324  10.156   4.923
66383SOL    HW2  982  11.392  10.290   4.941
66384SOL     OW  983   7.484  12.077  11.311
66384SOL    HW1  984   7.461  11.984  11.306
66384SOL    HW2  985   7.549  12.089  11.242
66385SOL     OW  986  12.592   3.009   2.967
66385SOL    HW1  987  12.565   3.048   2.884
66385SOL    HW2  988  12.558   2.919   2.963
66386SOL     OW  989  11.184  11.990   9.397
66386SOL    HW1  990  11.198  12.082   9.374
66386SOL    HW2  991  11.257  11.969   9.455
66387SOL     OW  992  13.514   2.538  12.780
66387SOL    HW1  993  13.446   2.570  12.721
66387SOL    HW2  994  13.467   2.505  12.856
66388SOL     OW  995   3.881  10.197   1.316
66388SOL    HW1  996   3.923  10.272   1.358
66388SOL    HW2  997   3.944  10.126   1.327
66389SOL     OW  998  13.638   3.511   2.042
66389SOL    HW1  999  13.702   3.529   1.973
66389SOL    HW2 1000  13.577   3.585   2.038
66390SOL     OW 1001   6.906   6.389   8.679
66390SOL    HW1 1002   6.923   6.334   8.755
66390SOL    HW2 1003   6.811   6.386   8.668
66391SOL     OW 1004   9.349   2.426   4.714
66391SOL    HW1 1005   9.388   2.374   4.784
66391SOL    HW2 1006   9.269   2.462   4.753
66392SOL     OW 1007   7.229   8.934   7.081
66392SOL    HW1 1008   7.255   8.883   7.158
66392SOL    HW2 1009   7.213   8.868   7.014
66393SOL     OW 1010  11.086   1.154   0.217
66393SOL    HW1 1011  11.077   1.085   0.152
66393SOL    HW2 1012  11.123   1.228   0.168
66394SOL     OW 1013   6.906   2.075   9.107
66394SOL    HW1 1014   6.953   2.153   9.077
66394SOL    HW2 1015   6.857   2.044   9.031
66395SOL     OW 1016   3.027  13.677  12.709
66395SOL    HW1 1017   3.044  13.720  12.625
66395SOL    HW2 1018   3.114  13.663  12.746
66396SOL     OW 1019   6.927   0.258   5.204
66396SOL    HW1 1020   6.851   0.254   5.262
66396SOL    HW2 1021   6.892   0.286   5.120
66397SOL     OW 1022   7.930  12.288   2.529
66397SOL    HW1 1023   7.969  12.226   2.590
66397SOL    HW2 1024   7.913  12.237   2.450
66398SOL     OW 1025   6.472   8.682  10.645
66398SOL    HW1 1026   6.475   8.617  10.575
66398SOL    HW2 1027   6.526   8.754  10.613
66399SOL     OW 1028   7.019   9.691   5.554
66399SOL    HW1 1029   7.019   9.750   5.629
66399SOL    HW2 1030   7.041   9.746   5.479
66400SOL     OW 1031   8.289  14.614   4.164
66400SOL    HW1 1032   8.306  14.601   4.258
66400SOL    HW2 1033   8.214  14.674   4.162
66401SOL     OW 1034  12.574   0.252   4.975
66401SOL    HW1 1035  12.505   0.271   4.911
66401SOL    HW2 1036  12.656   0.273   4.930
66402SOL     OW 1037  13.492   0.463   8.165
66402SOL    HW1 1038  13.419   0.522   8.147
66402SOL    HW2 1039  13.545   0.510   8.230
66403SOL     OW 1040   2.499  12.556  13.529
66403SOL    HW1 1041   2.419  12.511  13.557
66403SOL    HW2 1042   2.473  12.605  13.451
66404SOL     OW 1043   4.109  13.126   2.527
66404SOL    HW1 1044   4.089  13.035   2.505
66404SOL    HW2 1045   4.201  13.125   2.553
66405SOL     OW 1046   7.073   9.211   8.532
66405SOL    HW1 1047   7.125   9.203   8.612
66405SOL    HW2 1048   7.128   9.261   8.472
66406SOL     OW 1049   2.859  14.712  12.348
66406SOL    HW1 1050   2.811  14.793  12.330
66406SOL    HW2 1051   2.934  14.740  12.401
66407SOL     OW 1052   9.230  12.341  13.658
66407SOL    HW1 1053   9.139  12.312  13.665
66407SOL    HW2 1054   9.265  12.295  13.581
66408SOL     OW 1055  12.393   2.375  12.746
66408SOL    HW1 1056  12.337   2.313  12.700
66408SOL    HW2 1057  12.344   2.457  12.744
66409SOL     OW 1058   0.969   8.603   0.415
66409SOL    HW1 1059   0.984   8.628   0.506
66409SOL    HW2 1060   1.055   8.612   0.373
66410SOL     OW 1061  12.819   8.904   7.257
66410SOL    HW1 1062  12.745   8.843   7.270
66410SOL    HW2 1063  12.782   8.990   7.274
66411SOL     OW 1064  12.275   6.749   5.436
66411SOL    HW1 1065  12.184   6.721   5.445
66411SOL    HW2 1066  12.286   6.818   5.501
66412SOL     OW 1067   7.460   3.660   8.269
66412SOL    HW1 1068   7.506   3.739   8.240
66412SOL    HW2 1069   7.524   3.590   8.260
66413SOL     OW 1070  11.587  12.689  12.140
66413SOL    HW1 1071  11.578  12.594  12.151
66413SOL    HW2 1072  11.499  12.723  12.155
66414SOL     OW 1073   4.170   0.450   0.441
66414SOL    HW1 1074   4.179   0.515   0.511
66414SOL    HW2 1075   4.089   0.476   0.395
66415SOL     OW 1076   1.147   9.041   6.409
66415SOL    HW1 1077   1.202   8.985   6.355
66415SOL    HW2 1078   1.146   8.999   6.495
66416SOL     OW 1079   4.788  10.689  13.864
66416SOL    HW1 1080   4.728  10.631  13.818
66416SOL    HW2 1081   4.746  10.775  13.860
66417SOL     OW 1082  14.313   6.280   6.587
66417SOL    HW1 1083  14.223   6.307   6.606
66417SOL    HW2 1084  14.348   6.353   6.535
66418SOL     OW 1085   3.100   7.758   3.760
66418SOL    HW1 1086   3.088   7.777   3.853
66418SOL    HW2 1087   3.143   7.673   3.758
66419SOL     OW 1088   7.923   3.101   6.721
66419SOL    HW1 1089   7.828   3.097   6.729
66419SOL    HW2 1090   7.946   3.026   6.667
66420SOL     OW 1091   8.183  11.310   8.708
66420SOL    HW1 1092   8.141  11.225   8.694
66420SOL    HW2 1093   8.115  11.374   8.686
66421SOL     OW 1094  10.552   8.648   0.945
66421SOL    HW1 1095  10.561   8.663   1.039
66421SOL    HW2 1096  10.517   8.731   0.912
66422SOL     OW 1097   2.195   0.425   7.168
66422SOL    HW1 1098   2.161   0.376   7.093
66422SOL    HW2 1099   2.157   0.512   7.159
66423SOL     OW 1100   3.376   5.011  10.924
66423SOL    HW1 1101   3.329   5.085  10.887
66423SOL    HW2 1102   3.464   5.043  10.941
66424SOL     OW 1103  14.631   8.026   7.726
66424SOL    HW1 1104  14.638   8.042   7.632
66424SOL    HW2 1105  14.538   8.010   7.742
66425SOL     OW 1106   0.711  12.394   3.044
66425SOL    HW1 1107   0.665  12.451   2.982
66425SOL    HW2 1108   0.664  12.311   3.040
66426SOL     OW 1109  13.685   2.361  12.304
66426SOL    HW1 1110  13.672   2.420  12.230
66426SOL    HW2 1111  13.604   2.368  12.355
66427SOL     OW 1112   8.881  12.450   5.966
66427SOL    HW1 1113   8.805  12.459   6.023
66427SOL    HW2 1114   8.889  12.536   5.923
66428SOL     OW 1115   9.759  14.333  13.418
66428SOL    HW1 1116   9.751  14.419  13.378
66428SOL    HW2 1117   9.681  14.324  13.472
66429SOL     OW 1118   6.613  11.121  13.396
66429SOL    HW1 1119   6.539  11.148  13.450
66429SOL    HW2 1120   6.631  11.197  13.341
66430SOL     OW 1121  13.972   7.594   0.507
66430SOL    HW1 1122  13.950   7.593   0.600
66430SOL    HW2 1123  13.966   7.503   0.479
66431SOL     OW 1124   8.150  10.552  14.617
66431SOL    HW1 1125   8.084  10.610  14.655
66431SOL    HW2 1126   8.101  10.500  14.553
66432SOL     OW 1127   9.975  13.811   3.897
66432SOL    HW1 1128   9.925  13.824   3.816
66432SOL    HW2 1129  10.051  13.760   3.870
66433SOL     OW 1130  13.667   5.336   3.576
66433SOL    HW1 1131  13.670   5.338   3.672
66433SOL    HW2 1132  13.752   5.370   3.549
66434SOL     OW 1133   1.439   5.591   3.819
66434SOL    HW1 1134   1.488   5.509   3.823
66434SOL    HW2 1135   1.362   5.577   3.873
66435SOL     OW 1136   2.483  13.453  11.854
66435SOL    HW1 1137   2.569  13.416  11.835
66435SOL    HW2 1138   2.421  13.387  11.822
66436SOL     OW 1139  13.651   8.555   3.909
66436SOL    HW1 1140  13.647   8.522   3.999
66436SOL    HW2 1141  13.595   8.497   3.859
66437SOL     OW 1142  11.682  13.926   4.385
66437SOL    HW1 1143  11.706  14.018   4.377
66437SOL    HW2 1144  11.751  13.887   4.438
66438SOL     OW 1145  11.128  13.113   7.652
66438SOL    HW1 1146  11.206  13.060   7.634
66438SOL    HW2 1147  11.088  13.071   7.728
66439SOL     OW 1148  10.680   7.685   5.258
66439SOL    HW1 1149  10.600   7.738   5.265
66439SOL    HW2 1150  10.686   7.640   5.342
66440SOL     OW 1151   2.530   1.064   5.066
66440SOL    HW1 1152   2.589   1.123   5.019
66440SOL    HW2 1153   2.494   1.007   4.998
66441SOL     OW 1154   2.799  13.076   3.708
66441SOL    HW1 1155   2.869  13.124   3.663
66441SOL    HW2 1156   2.846  13.011   3.761
66442SOL     OW 1157   6.647   7.002   2.475
66442SOL    HW1 1158   6.674   6.972   2.388
66442SOL    HW2 1159   6.674   7.094   2.478
66443SOL     OW 1160   4.174  11.298   3.045
66443SOL    HW1 1161   4.153  11.367   2.982
66443SOL    HW2 1162   4.261  11.267   3.019
66444SOL     OW 1163  10.117   5.232  13.883
66444SOL    HW1 1164  10.037   5.186  13.908
66444SOL    HW2 1165  10.188   5.172  13.909
66445SOL     OW 1166   1.852  11.728  10.530
66445SOL    HW1 1167   1.937  11.743  10.572
66445SOL    HW2 1168   1.811  11.660  10.583
66446SOL     OW 1169   4.844   0.398   3.468
66446SOL    HW1 1170   4.852   0.365   3.558
66446SOL    HW2 1171   4.881   0.328   3.414
66447SOL     OW 1172  12.653  14.757  14.127
66447SOL    HW1 1173  12.668  14.667  14.098
66447SOL    HW2 1174  12.635  14.805  14.046
66448SOL     OW 1175   1.318   7.828   7.880
66448SOL    HW1 1176   1.363   7.761   7.828
66448SOL    HW2 1177   1.296   7.783   7.962
66449SOL     OW 1178  13.446   5.461   0.416
66449SOL    HW1 1179  13.447   5.534   0.478
66449SOL    HW2 1180  13.537   5.453   0.387
66450SOL     OW 1181   7.193   7.970  12.199
66450SOL    HW1 1182   7.215   7.912  12.126
66450SOL    HW2 1183   7.250   7.943  12.270
66451SOL     OW 1184  14.612   5.959   8.361
66451SOL    HW1 1185  14.610   5.978   8.455
66451SOL    HW2 1186  14.615   5.863   8.357
66452SOL     OW 1187   1.425   1.624  13.264
66452SOL    HW1 1188   1.394   1.556  13.324
66452SOL    HW2 1189   1.399   1.706  13.306
66453SOL     OW 1190  11.875   0.997  11.244
66453SOL    HW1 1191  11.797   1.036  11.283
66453SOL    HW2 1192  11.875   1.028  11.154
66454SOL     OW 1193  12.738  13.308  14.320
66454SOL    HW1 1194  12.781  13.270  14.396
66454SOL    HW2 1195  12.809  13.328  14.259
66455SOL     OW 1196  11.251   4.712   4.225
66455SOL    HW1 1197  11.209   4.740   4.307
66455SOL    HW2 1198  11.222   4.621   4.214
66456SOL     OW 1199  10.327   5.166   7.092
66456SOL    HW1 1200  10.232   5.157   7.099
66456SOL    HW2 1201  10.344   5.168   6.998
66457SOL     OW 1202   9.699   4.853  13.456
66457SOL    HW1 1203   9.751   4.914  13.509
66457SOL    HW2 1204   9.609   4.881  13.469
66458SOL     OW 1205   5.739   2.303  13.985
66458SOL    HW1 1206   5.722   2.397  13.980
66458SOL    HW2 1207   5.703   2.267  13.904
66459SOL     OW 1208   8.107   5.254   6.542
66459SOL    HW1 1209   8.018   5.242   6.576
66459SOL    HW2 1210   8.098   5.325   6.478
66460SOL     OW 1211  12.981   5.560   2.237
66460SOL    HW1 1212  13.003   5.472   2.267
66460SOL    HW2 1213  13.045   5.579   2.168
66461SOL     OW 1214   8.545   0.291   2.835
66461SOL    HW1 1215   8.621   0.269   2.887
66461SOL    HW2 1216   8.475   0.236   2.869
66462SOL     OW 1217  14.649  10.519  11.256
66462SOL    HW1 1218  14.736  10.545  11.286
66462SOL    HW2 1219  14.661  10.500  11.163
66463SOL     OW 1220  10.339   5.536  10.769
66463SOL    HW1 1221  10.370   5.617  10.730
66463SOL    HW2 1222  10.369   5.467  10.710
66464SOL     OW 1223   0.526   5.529  10.512
66464SOL    HW1 1224   0.523   5.481  10.430
66464SOL    HW2 1225   0.620   5.538  10.531
66465SOL     OW 1226   9.917  11.033   0.851
66465SOL    HW1 1227  10.005  11.057   0.823
66465SOL    HW2 1228   9.864  11.042   0.771
66466SOL     OW 1229  13.727   8.750   8.532
66466SOL    HW1 1230  13.719   8.825   8.590
66466SOL    HW2 1231  13.821   8.736   8.523
66467SOL     OW 1232  13.372   6.501   0.460
66467SOL    HW1 1233  13.328   6.542   0.535
66467SOL    HW2 1234  13.425   6.571   0.422
66468SOL     OW 1235   0.159  10.319   4.859
66468SOL    HW1 1236   0.145  10.225   4.875
66468SOL    HW2 1237   0.250  10.334   4.882
66469SOL     OW 1238   1.799  11.822  14.128
66469SOL    HW1 1239   1.870  11.793  14.185
66469SOL    HW2 1240   1.734  11.751  14.132
66470SOL     OW 1241   3.251  11.084   3.446
66470SOL    HW1 1242   3.224  11.001   3.487
66470SOL    HW2 1243   3.321  11.117   3.502
66471SOL     OW 1244   6.984   4.071   1.789
66471SOL    HW1 1245   6.957   3.980   1.777
66471SOL    HW2 1246   6.935   4.120   1.724
66472SOL     OW 1247   6.202   5.062   2.440
66472SOL    HW1 1248   6.280   5.013   2.464
66472SOL    HW2 1249   6.132   5.024   2.493
66473SOL     OW 1250   3.806  11.887   8.012
66473SOL    HW1 1251   3.733  11.922   7.961
66473SOL    HW2 1252   3.777  11.800   8.039
66474SOL     OW 1253   0.149  11.414   3.604
66474SOL    HW1 1254   0.101  11.482   3.557
66474SOL    HW2 1255   0.119  11.332   3.564
66475SOL     OW 1256  13.290   7.231   8.741
66475SOL    HW1 1257  13.264   7.314   8.700
66475SOL    HW2 1258  13.294   7.251   8.835
66476SOL     OW 1259   2.847   6.341   9.615
66476SOL    HW1 1260   2.755   6.344   9.591
66476SOL    HW2 1261   2.884   6.271   9.561
66477SOL     OW 1262   9.204   2.632  10.902
66477SOL    HW1 1263   9.133   2.685  10.938
66477SOL    HW2 1264   9.278   2.692  10.895
66478SOL     OW 1265  14.467   9.865  12.238
66478SOL    HW1 1266  14.489   9.796  12.175
66478SOL    HW2 1267  14.397   9.828  12.291
66479SOL     OW 1268   7.296   0.854  12.826
66479SOL    HW1 1269   7.328   0.769  12.855
66479SOL    HW2 1270   7.363   0.916  12.855
66480SOL     OW 1271  12.119  10.429  10.841
66480SOL    HW1 1272  12.147  10.472  10.760
66480SOL    HW2 1273  12.201  10.414  10.889
66481SOL     OW 1274   5.598  12.898   1.225
66481SOL    HW1 1275   5.673  12.934   1.271
66481SOL    HW2 1276   5.530  12.890   1.292
66482SOL     OW 1277   0.997   2.343  11.724
66482SOL    HW1 1278   0.957   2.430  11.721
66482SOL    HW2 1279   0.991   2.317  11.817
66483SOL     OW 1280   1.664   7.550   4.435
66483SOL    HW1 1281   1.580   7.576   4.472
66483SOL    HW2 1282   1.724   7.550   4.510
66484SOL     OW 1283   8.958   5.556   2.581
66484SOL    HW1 1284   8.996   5.478   2.621
66484SOL    HW2 1285   8.897   5.590   2.647
66485SOL     OW 1286   2.685   9.391   3.105
66485SOL    HW1 1287   2.779   9.408   3.109
66485SOL    HW2 1288   2.679   9.297   3.088
66486SOL     OW 1289   5.078  11.487   0.196
66486SOL    HW1 1290   5.037  11.446   0.272
66486SOL    HW2 1291   5.007  11.532   0.151
66487SOL     OW 1292   9.371  11.819   1.070
66487SOL    HW1 1293   9.335  11.747   1.019
66487SOL    HW2 1294   9.389  11.887   1.005
66488SOL     OW 1295   4.541  14.804   6.457
66488SOL    HW1 1296   4.555  14.777   6.366
66488SOL    HW2 1297   4.627  14.834   6.486
66489SOL     OW 1298   1.476   2.022   3.610
66489SOL    HW1 1299   1.392   1.994   3.646
66489SOL    HW2 1300   1.456   2.100   3.559
66490SOL     OW 1301  13.509   3.756  11.429
66490SOL    HW1 1302  13.441   3.751  11.362
66490SOL    HW2 1303  13.530   3.850  11.434
66491SOL     OW 1304   7.006  13.212  12.568
66491SOL    HW1 1305   7.022  13.290  12.513
66491SOL    HW2 1306   6.999  13.140  12.505
66492SOL     OW 1307   1.747   9.019   9.840
66492SOL    HW1 1308   1.674   9.001   9.781
66492SOL    HW2 1309   1.825   9.019   9.783
66493SOL     OW 1310  10.091   5.605   3.617
66493SOL    HW1 1311  10.054   5.536   3.562
66493SOL    HW2 1312  10.162   5.642   3.565
66494SOL     OW 1313  12.679  11.163   6.158
66494SOL    HW1 1314  12.684  11.140   6.251
66494SOL    HW2 1315  12.770  11.164   6.129
66495SOL     OW 1316  10.673  14.794   9.693
66495SOL    HW1 1317  10.590  14.838   9.678
66495SOL    HW2 1318  10.739  14.854   9.658
66496SOL     OW 1319  10.793  11.272   3.318
66496SOL    HW1 1320  10.735  11.284   3.243
66496SOL    HW2 1321  10.743  11.305   3.392
66497SOL     OW 1322   1.308   1.361   8.891
66497SOL    HW1 1323   1.369   1.410   8.835
66497SOL    HW2 1324   1.298   1.277   8.847
66498SOL     OW 1325  10.045   7.264   2.566
66498SOL    HW1 1326  10.087   7.230   2.488
66498SOL    HW2 1327   9.951   7.263   2.545
66499SOL     OW 1328  14.333  14.534   5.210
66499SOL    HW1 1329  14.240  14.513   5.209
66499SOL    HW2 1330  14.352  14.558   5.301
66500SOL     OW 1331   6.536   3.737   0.417
66500SOL    HW1 1332   6.526   3.642   0.415
66500SOL    HW2 1333   6.469   3.770   0.358
66501SOL     OW 1334  12.971  14.758   4.315
66501SOL    HW1 1335  12.932  14.673   4.294
66501SOL    HW2 1336  12.942  14.815   4.244
66502SOL     OW 1337   5.351   2.703   2.891
66502SOL    HW1 1338   5.299   2.649   2.832
66502SOL    HW2 1339   5.322   2.678   2.978
66503SOL     OW 1340   9.368  11.451   1.701
66503SOL    HW1 1341   9.453  11.488   1.728
66503SOL    HW2 1342   9.331  11.416   1.782
66504SOL     OW 1343   3.160   2.572   8.303
66504SOL    HW1 1344   3.160   2.627   8.382
66504SOL    HW2 1345   3.075   2.529   8.304
66505SOL     OW 1346   4.717   3.904  10.926
66505SOL    HW1 1347   4.661   3.946  10.992
66505SOL    HW2 1348   4.698   3.952  10.845
66506SOL     OW 1349  12.402  12.045  11.085
66506SOL    HW1 1350  12.458  12.066  11.160
66506SOL    HW2 1351  12.337  12.114  11.083
66507SOL     OW 1352   4.315   4.940   3.797
66507SOL    HW1 1353   4.320   5.025   3.752
66507SOL    HW2 1354   4.241   4.949   3.857
66508SOL     OW 1355   6.694   9.419  12.868
66508SOL    HW1 1356   6.634   9.387  12.801
66508SOL    HW2 1357   6.639   9.431  12.946
66509SOL     OW 1358   6.863   1.456   5.592
66509SOL    HW1 1359   6.784   1.485   5.545
66509SOL    HW2 1360   6.924   1.431   5.522
66510SOL     OW 1361   6.579   1.240   5.487
66510SOL    HW1 1362   6.554   1.182   5.415
66510SOL    HW2 1363   6.551   1.327   5.457
66511SOL     OW 1364   9.332  10.619   2.349
66511SOL    HW1 1365   9.275  10.696   2.339
66511SOL    HW2 1366   9.419  10.655   2.366
66512SOL     OW 1367   5.027  10.303  12.659
66512SOL    HW1 1368   5.096  10.255  12.613
66512SOL    HW2 1369   4.945  10.270  12.621
66513SOL     OW 1370   8.971   8.877   4.848
66513SOL    HW1 1371   8.880   8.859   4.874
66513SOL    HW2 1372   8.978   8.972   4.848
66514SOL     OW 1373   0.489  10.963   4.968
66514SOL    HW1 1374   0.451  11.049   4.979
66514SOL    HW2 1375   0.551  10.954   5.041
66515SOL     OW 1376   4.823   1.491   3.446
66515SOL    HW1 1377   4.736   1.484   3.487
66515SOL    HW2 1378   4.823   1.422   3.379
66516SOL     OW 1379   9.571  12.898   4.520
66516SOL    HW1 1380   9.478  12.919   4.505
66516SOL    HW2 1381   9.597  12.848   4.443
66517SOL     OW 1382   9.495   4.330  11.101
66517SOL    HW1 1383   9.474   4.327  11.194
66517SOL    HW2 1384   9.572   4.272  11.092
66518SOL     OW 1385   4.017  14.429  14.852
66518SOL    HW1 1386   4.053  14.517  14.842
66518SOL    HW2 1387   4.080  14.373  14.805
66519SOL     OW 1388  14.692   1.908   2.749
66519SOL    HW1 1389  14.626   1.858   2.797
66519SOL    HW2 1390  14.647   1.987   2.721
66520SOL     OW 1391   6.308  10.005   8.479
66520SOL    HW1 1392   6.367  10.011   8.554
66520SOL    HW2 1393   6.363   9.973   8.408
66521SOL     OW 1394  13.467  14.406   1.405
66521SOL    HW1 1395  13.478  14.315   1.434
66521SOL    HW2 1396  13.373  14.416   1.394
66522SOL     OW 1397   7.643  13.625   3.913
66522SOL    HW1 1398   7.647  13.615   4.009
66522SOL    HW2 1399   7.552  13.646   3.895
66523SOL     OW 1400   2.190   9.079   4.158
66523SOL    HW1 1401   2.110   9.099   4.207
66523SOL    HW2 1402   2.162   9.017   4.091
66524SOL     OW 1403   0.435  10.162   3.603
66524SOL    HW1 1404   0.490  10.096   3.647
66524SOL    HW2 1405   0.357  10.114   3.576
66525SOL     OW 1406   0.753   9.995   1.553
66525SOL    HW1 1407   0.788  10.084   1.560
66525SOL    HW2 1408   0.801   9.945   1.620
66526SOL     OW 1409   5.141   9.235   5.815
66526SOL    HW1 1410   5.172   9.300   5.877
66526SOL    HW2 1411   5.103   9.166   5.869
66527SOL     OW 1412   7.458   9.014   3.699
66527SOL    HW1 1413   7.508   9.093   3.681
66527SOL    HW2 1414   7.396   9.008   3.626
66528SOL     OW 1415   1.339   7.966  13.113
66528SOL    HW1 1416   1.267   8.016  13.150
66528SOL    HW2 1417   1.321   7.875  13.138
66529SOL     OW 1418   3.624   7.505   0.996
66529SOL    HW1 1419   3.556   7.537   1.055
66529SOL    HW2 1420   3.682   7.580   0.982
66530SOL     OW 1421   9.854   0.365   5.382
66530SOL    HW1 1422   9.910   0.386   5.307
66530SOL    HW2 1423   9.768   0.347   5.343
66531SOL     OW 1424   3.080   2.752   3.807
66531SOL    HW1 1425   3.096   2.659   3.824
66531SOL    HW2 1426   3.108   2.766   3.717
66532SOL     OW 1427   5.046  10.896  11.776
66532SOL    HW1 1428   4.962  10.905  11.821
66532SOL    HW2 1429   5.056  10.801  11.763
66533SOL     OW 1430  11.204   4.447   4.221
66533SOL    HW1 1431  11.113   4.458   4.197
66533SOL    HW2 1432  11.203   4.378   4.288
66534SOL     OW 1433   6.936  12.619   0.296
66534SOL    HW1 1434   6.977  12.667   0.368
66534SOL    HW2 1435   6.882  12.553   0.339
66535SOL     OW 1436  13.826  13.255   4.750
66535SOL    HW1 1437  13.746  13.206   4.768
66535SOL    HW2 1438  13.892  13.215   4.806
66536SOL     OW 1439   2.281   7.962   1.810
66536SOL    HW1 1440   2.230   7.949   1.731
66536SOL    HW2 1441   2.264   7.884   1.863
66537SOL     OW 1442   8.325   3.186  13.228
66537SOL    HW1 1443   8.392   3.193  13.160
66537SOL    HW2 1444   8.242   3.192  13.182
66538SOL     OW 1445   9.040   1.865  14.057
66538SOL    HW1 1446   9.016   1.862  14.150
66538SOL    HW2 1447   8.957   1.862  14.010
66539SOL     OW 1448   8.122   2.113   6.493
66539SOL    HW1 1449   8.062   2.039   6.484
66539SOL    HW2 1450   8.159   2.102   6.581
66540SOL     OW 1451   6.226  13.294   1.611
66540SOL    HW1 1452   6.252  13.242   1.687
66540SOL    HW2 1453   6.132  13.277   1.601
66541SOL     OW 1454   8.897   2.497   0.945
66541SOL    HW1 1455   8.888   2.544   0.863
66541SOL    HW2 1456   8.905   2.405   0.920
66542SOL     OW 1457  13.114   7.197  14.611
66542SOL    HW1 1458  13.178   7.254  14.654
66542SOL    HW2 1459  13.137   7.109  14.640
66543SOL     OW 1460  14.118   6.205   3.234
66543SOL    HW1 1461  14.161   6.174   3.314
66543SOL    HW2 1462  14.144   6.297   3.226
66544SOL     OW 1463  11.754   3.666  10.293
66544SOL    HW1 1464  11.660   3.665  10.310
66544SOL    HW2 1465  11.784   3.578  10.317
66545SOL     OW 1466   4.572  11.611   0.648
66545SOL    HW1 1467   4.490  11.610   0.599
66545SOL    HW2 1468   4.637  11.579   0.586
66546SOL     OW 1469   7.983   3.034   8.693
66546SOL    HW1 1470   8.002   2.949   8.653
66546SOL    HW2 1471   7.947   3.012   8.779
66547SOL     OW 1472   8.964  12.066   3.782
66547SOL    HW1 1473   8.877  12.088   3.816
66547SOL    HW2 1474   8.958  11.974   3.757
66548SOL     OW 1475   4.088   8.389  13.505
66548SOL    HW1 1476   4.113   8.384  13.597
66548SOL    HW2 1477   4.152   8.450  13.467
66549SOL     OW 1478   9.782   2.507   3.012
66549SOL    HW1 1479   9.843   2.535   3.080
66549SOL    HW2 1480   9.720   2.450   3.057
66550SOL     OW 1481  14.392   6.913   1.112
66550SOL    HW1 1482  14.332   6.988   1.110
66550SOL    HW2 1483  14.475   6.949   1.142
66551SOL     OW 1484  10.473   0.421   0.985
66551SOL    HW1 1485  10.558   0.386   0.959
66551SOL    HW2 1486  10.479   0.430   1.080
66552SOL     OW 1487   4.032   7.705   2.682
66552SOL    HW1 1488   4.095   7.744   2.743
66552SOL    HW2 1489   4.006   7.623   2.724
66553SOL     OW 1490   9.562   0.282  13.550
66553SOL    HW1 1491   9.550   0.377  13.551
66553SOL    HW2 1492   9.633   0.267  13.488
66554SOL     OW 1493  12.504   3.148   6.718
66554SOL    HW1 1494  12.533   3.102   6.639
66554SOL    HW2 1495  12.422   3.191   6.691
66555SOL     OW 1496   2.769   5.032  11.735
66555SOL    HW1 1497   2.694   5.091  11.736
66555SOL    HW2 1498   2.785   5.013  11.828
66556SOL     OW 1499   9.034  14.737   7.677
66556SOL    HW1 1500   8.969  14.669   7.666
66556SOL    HW2 1501   8.996  14.797   7.741
66557SOL     OW 1502   9.305  12.450   9.247
66557SOL    HW1 1503   9.380  12.407   9.205
66557SOL    HW2 1504   9.280  12.390   9.317
66558SOL     OW 1505   0.547   8.747  12.715
66558SOL    HW1 1506   0.612   8.761  12.646
66558SOL    HW2 1507   0.481   8.689  12.675
66559SOL     OW 1508  12.406   2.401  12.316
66559SOL    HW1 1509  12.485   2.372  12.270
66559SOL    HW2 1510  12.335   2.351  12.276
66560SOL     OW 1511   7.282   0.309   7.990
66560SOL    HW1 1512   7.255   0.255   7.915
66560SOL    HW2 1513   7.377   0.300   7.992
66561SOL     OW 1514  12.598   5.080   5.583
66561SOL    HW1 1515  12.547   5.154   5.617
66561SOL    HW2 1516  12.620   5.029   5.661
66562SOL     OW 1517   0.254  14.204   3.955
66562SOL    HW1 1518   0.317  14.134   3.936
66562SOL    HW2 1519   0.194  14.165   4.019
66563SOL     OW 1520   0.042  13.034   4.169
66563SOL    HW1 1521   0.023  13.039   4.075
66563SOL    HW2 1522   0.031  13.124   4.200
66564SOL     OW 1523  11.326   8.662   2.300
66564SOL    HW1 1524  11.271   8.722   2.349
66564SOL    HW2 1525  11.412   8.667   2.342
66565SOL     OW 1526   2.139   5.547   1.459
66565SOL    HW1 1527   2.150   5.480   1.527
66565SOL    HW2 1528   2.131   5.629   1.508
66566SOL     OW 1529   9.676   3.508   3.681
66566SOL    HW1 1530   9.654   3.555   3.762
66566SOL    HW2 1531   9.743   3.445   3.708
66567SOL     OW 1532   4.409   3.598   9.110
66567SOL    HW1 1533   4.386   3.505   9.109
66567SOL    HW2 1534   4.505   3.599   9.118
66568SOL     OW 1535  13.713   2.814  13.187
66568SOL    HW1 1536  13.653   2.786  13.256
66568SOL    HW2 1537  13.799   2.817  13.229
66569SOL     OW 1538   3.293  12.489  13.740
66569SOL    HW1 1539   3.370  12.432  13.732
66569SOL    HW2 1540   3.308  12.538  13.821
66570SOL     OW 1541  13.513  11.848  12.652
66570SOL    HW1 1542  13.441  11.826  12.593
66570SOL    HW2 1543  13.487  11.932  12.690
66571SOL     OW 1544   0.035  10.178   5.299
66571SOL    HW1 1545   0.014  10.103   5.355
66571SOL    HW2 1546   0.128  10.169   5.280
66572SOL     OW 1547   9.036   1.578   2.754
66572SOL    HW1 1548   9.041   1.638   2.679
66572SOL    HW2 1549   8.975   1.510   2.727
66573SOL     OW 1550   8.123   1.904   0.483
66573SOL    HW1 1551   8.088   1.875   0.399
66573SOL    HW2 1552   8.054   1.959   0.520
66574SOL     OW 1553   5.966   2.881   6.826
66574SOL    HW1 1554   5.955   2.905   6.918
66574SOL    HW2 1555   6.057   2.852   6.820
66575SOL     OW 1556  10.232   6.530  13.039
66575SOL    HW1 1557  10.157   6.531  12.979
66575SOL    HW2 1558  10.247   6.437  13.057
66576SOL     OW 1559   0.682   8.834   7.978
66576SOL    HW1 1560   0.761   8.888   7.987
66576SOL    HW2 1561   0.705   8.770   7.910
66577SOL     OW 1562  12.062  11.774  14.212
66577SOL    HW1 1563  12.002  11.847  14.223
66577SOL    HW2 1564  12.018  11.700  14.254
66578SOL     OW 1565   6.710  11.920   1.593
66578SOL    HW1 1566   6.639  11.907   1.657
66578SOL    HW2 1567   6.754  12.000   1.621
66579SOL     OW 1568   2.314  13.883   4.921
66579SOL    HW1 1569   2.312  13.912   5.012
66579SOL    HW2 1570   2.406  13.861   4.905
66580SOL     OW 1571   9.385  13.463  10.424
66580SOL    HW1 1572   9.472  13.498  10.403
66580SOL    HW2 1573   9.371  13.488  10.516
66581SOL     OW 1574   3.402  11.565   8.080
66581SOL    HW1 1575   3.318  11.597   8.112
66581SOL    HW2 1576   3.384  11.476   8.050
66582SOL     OW 1577   0.789  14.010   2.253
66582SOL    HW1 1578   0.828  14.097   2.259
66582SOL    HW2 1579   0.772  13.985   2.344
66583SOL     OW 1580  13.352  14.798  11.201
66583SOL    HW1 1581  13.302  14.848  11.136
66583SOL    HW2 1582  13.443  14.820  11.182
66584SOL     OW 1583   4.066   0.832  11.815
66584SOL    HW1 1584   4.119   0.871  11.746
66584SOL    HW2 1585   3.978   0.866  11.802
66585SOL     OW 1586   2.550   2.422  11.855
66585SOL    HW1 1587   2.623   2.476  11.887
66585SOL    HW2 1588   2.473   2.478  11.866
66586SOL     OW 1589   4.766   6.735  10.089
66586SOL    HW1 1590   4.673   6.713  10.098
66586SOL    HW2 1591   4.801   6.729  10.177
66587SOL     OW 1592   2.308  12.861  13.696
66587SOL    HW1 1593   2.388  12.905  13.666
66587SOL    HW2 1594   2.238  12.903  13.646
66588SOL     OW 1595   9.270   8.839   0.229
66588SOL    HW1 1596   9.354   8.803   0.257
66588SOL    HW2 1597   9.260   8.809   0.139
66589SOL     OW 1598   8.624  13.927  14.760
66589SOL    HW1 1599   8.714  13.954  14.776
66589SOL    HW2 1600   8.581  13.935  14.846
66590SOL     OW 1601   7.816   5.315   4.221
66590SOL    HW1 1602   7.861   5.243   4.177
66590SOL    HW2 1603   7.724   5.289   4.221
66591SOL     OW 1604  14.821   1.193   1.541
66591SOL    HW1 1605  14.791   1.277   1.507
66591SOL    HW2 1606   0.038   1.210   1.572
66592SOL     OW 1607   9.157   5.402  11.193
66592SOL    HW1 1608   9.233   5.348  11.171
66592SOL    HW2 1609   9.181   5.446  11.274
66593SOL     OW 1610   7.945   2.452  11.250
66593SOL    HW1 1611   7.917   2.520  11.312
66593SOL    HW2 1612   7.926   2.488  11.164
66594SOL     OW 1613   8.629   2.922  14.117
66594SOL    HW1 1614   8.635   2.896  14.209
66594SOL    HW2 1615   8.565   2.862  14.079
66595SOL     OW 1616   9.823  13.291   0.833
66595SOL    HW1 1617   9.775  13.209   0.849
66595SOL    HW2 1618   9.832  13.295   0.738
66596SOL     OW 1619   6.331   1.204   7.496
66596SOL    HW1 1620   6.287   1.170   7.418
66596SOL    HW2 1621   6.262   1.213   7.561
66597SOL     OW 1622   6.303  10.951   5.635
66597SOL    HW1 1623   6.337  10.862   5.623
66597SOL    HW2 1624   6.378  11.003   5.662
66598SOL     OW 1625   1.256   6.337   4.553
66598SOL    HW1 1626   1.319   6.405   4.576
66598SOL    HW2 1627   1.226   6.302   4.637
66599SOL     OW 1628   8.371   3.417   6.689
66599SOL    HW1 1629   8.329   3.503   6.697
66599SOL    HW2 1630   8.414   3.419   6.604
66600SOL     OW 1631   9.379  14.710  10.203
66600SOL    HW1 1632   9.458  14.684  10.250
66600SOL    HW2 1633   9.355  14.634  10.151
66601SOL     OW 1634   6.342   4.455   7.370
66601SOL    HW1 1635   6.269   4.396   7.354
66601SOL    HW2 1636   6.366   4.439   7.462
66602SOL     OW 1637  11.320   5.175   5.936
66602SOL    HW1 1638  11.342   5.082   5.931
66602SOL    HW2 1639  11.233   5.178   5.974
66603SOL     OW 1640  13.888   5.289  11.015
66603SOL    HW1 1641  13.804   5.247  11.031
66603SOL    HW2 1642  13.899   5.350  11.088
66604SOL     OW 1643  13.929   7.648   8.159
66604SOL    HW1 1644  13.925   7.564   8.114
66604SOL    HW2 1645  14.019   7.654   8.191
66605SOL     OW 1646   1.569   1.894   4.680
66605SOL    HW1 1647   1.631   1.893   4.607
66605SOL    HW2 1648   1.602   1.962   4.739
66606SOL     OW 1649   7.963   7.802   3.481
66606SOL    HW1 1650   7.918   7.851   3.412
66606SOL    HW2 1651   7.904   7.806   3.556
66607SOL     OW 1652   6.286   8.248   6.366
66607SOL    HW1 1653   6.331   8.183   6.312
66607SOL    HW2 1654   6.329   8.242   6.452
66608SOL     OW 1655   6.805   1.432   3.689
66608SOL    HW1 1656   6.809   1.408   3.596
66608SOL    HW2 1657   6.770   1.354   3.732
66609SOL     OW 1658   0.897  12.577   9.408
66609SOL    HW1 1659   0.802  12.567   9.416
66609SOL    HW2 1660   0.929  12.579   9.498
66610SOL     OW 1661  13.628  13.155  11.592
66610SOL    HW1 1662  13.622  13.060  11.607
66610SOL    HW2 1663  13.580  13.169  11.511
66611SOL     OW 1664  13.363   8.856   1.305
66611SOL    HW1 1665  13.326   8.770   1.324
66611SOL    HW2 1666  13.451   8.837   1.270
66612SOL     OW 1667   6.477   6.078   6.170
66612SOL    HW1 1668   6.402   6.102   6.115
66612SOL    HW2 1669   6.550   6.128   6.133
66613SOL     OW 1670  13.358   0.885   2.476
66613SOL    HW1 1671  13.316   0.878   2.390
66613SOL    HW2 1672  13.451   0.876   2.458
66614SOL     OW 1673   6.800  12.902   7.421
66614SOL    HW1 1674   6.878  12.897   7.476
66614SOL    HW2 1675   6.822  12.849   7.344
66615SOL     OW 1676  10.103   0.544  10.917
66615SOL    HW1 1677  10.195   0.556  10.938
66615SOL    HW2 1678  10.057   0.606  10.973
66616SOL     OW 1679   1.968   9.234   1.751
66616SOL    HW1 1680   2.050   9.278   1.771
66616SOL    HW2 1681   1.948   9.260   1.660
66617SOL     OW 1682  14.353   1.844  14.443
66617SOL    HW1 1683  14.428   1.815  14.390
66617SOL    HW2 1684  14.358   1.939  14.441
66618SOL     OW 1685  14.043  13.042   3.948
66618SOL    HW1 1686  14.095  13.109   3.991
66618SOL    HW2 1687  13.984  13.010   4.016
66619SOL     OW 1688   6.954   6.742  11.814
66619SOL    HW1 1689   6.971   6.822  11.763
66619SOL    HW2 1690   6.859   6.743  11.828
66620SOL     OW 1691  12.657  11.522  12.434
66620SOL    HW1 1692  12.608  11.453  12.390
66620SOL    HW2 1693  12.736  11.534  12.381
66621SOL     OW 1694   3.779  10.363   8.159
66621SOL    HW1 1695   3.805  10.432   8.097
66621SOL    HW2 1696   3.683  10.366   8.157
66622SOL     OW 1697  10.864   8.640   9.147
66622SOL    HW1 1698  10.953   8.610   9.125
66622SOL    HW2 1699  10.809   8.605   9.077
66623SOL     OW 1700   7.504  10.284   0.646
66623SOL    HW1 1701   7.541  10.197   0.626
66623SOL    HW2 1702   7.507  10.289   0.742
66624SOL     OW 1703   4.156  12.091  12.627
66624SOL    HW1 1704   4.189  12.018  12.680
66624SOL    HW2 1705   4.090  12.133  12.682
66625SOL     OW 1706   7.158   1.193   8.670
66625SOL    HW1 1707   7.141   1.276   8.626
66625SOL    HW2 1708   7.209   1.142   8.608
66626SOL     OW 1709  14.674   7.772   5.101
66626SOL    HW1 1710  14.693   7.709   5.032
66626SOL    HW2 1711  14.688   7.724   5.183
66627SOL     OW 1712  11.763  12.008   5.384
66627SOL    HW1 1713  11.776  12.080   5.323
66627SOL    HW2 1714  11.776  11.929   5.332
66628SOL     OW 1715  10.375   0.960   9.342
66628SOL    HW1 1716  10.380   1.013   9.421
66628SOL    HW2 1717  10.337   1.019   9.276
66629SOL     OW 1718   2.181   5.695   6.587
66629SOL    HW1 1719   2.220   5.679   6.500
66629SOL    HW2 1720   2.088   5.708   6.570
66630SOL     OW 1721   5.311   4.208   6.110
66630SOL    HW1 1722   5.367   4.194   6.186
66630SOL    HW2 1723   5.333   4.135   6.051
66631SOL     OW 1724  14.690   2.943  11.694
66631SOL    HW1 1725  14.720   3.031  11.671
66631SOL    HW2 1726  14.616   2.957  11.752
66632SOL     OW 1727  11.241   3.882   5.460
66632SOL    HW1 1728  11.207   3.820   5.396
66632SOL    HW2 1729  11.208   3.967   5.432
66633SOL     OW 1730  12.050   8.580   2.489
66633SOL    HW1 1731  11.992   8.601   2.416
66633SOL    HW2 1732  12.044   8.656   2.547
66634SOL     OW 1733  12.397   8.389   9.442
66634SOL    HW1 1734  12.325   8.357   9.388
66634SOL    HW2 1735  12.474   8.342   9.410
66635SOL     OW 1736   2.474   4.862   7.937
66635SOL    HW1 1737   2.482   4.840   7.844
66635SOL    HW2 1738   2.380   4.863   7.953
66636SOL     OW 1739   3.514   1.445   4.627
66636SOL    HW1 1740   3.499   1.528   4.672
66636SOL    HW2 1741   3.459   1.382   4.675
66637SOL     OW 1742   0.664  14.444   1.849
66637SOL    HW1 1743   0.574  14.475   1.838
66637SOL    HW2 1744   0.716  14.501   1.793
66638SOL     OW 1745  10.734   5.554   2.489
66638SOL    HW1 1746  10.821   5.594   2.490
66638SOL    HW2 1747  10.732   5.499   2.568
66639SOL     OW 1748   5.214   7.235   5.988
66639SOL    HW1 1749   5.120   7.231   5.969
66639SOL    HW2 1750   5.243   7.313   5.940
66640SOL     OW 1751   0.569   7.760  12.798
66640SOL    HW1 1752   0.632   7.783  12.866
66640SOL    HW2 1753   0.583   7.823  12.728
66641SOL     OW 1754  10.834  10.303   5.574
66641SOL    HW1 1755  10.739  10.288   5.572
66641SOL    HW2 1756  10.870  10.242   5.510
66642SOL     OW 1757   0.989   2.561   1.996
66642SOL    HW1 1758   0.991   2.472   1.963
66642SOL    HW2 1759   1.013   2.615   1.921
66643SOL     OW 1760  12.692  13.754  14.247
66643SOL    HW1 1761  12.626  13.823  14.236
66643SOL    HW2 1762  12.641  13.674  14.260
66644SOL     OW 1763  12.960  13.420   6.412
66644SOL    HW1 1764  12.940  13.465   6.494
66644SOL    HW2 1765  12.957  13.488   6.345
66645SOL     OW 1766   1.956  12.754  14.130
66645SOL    HW1 1767   1.970  12.845  14.157
66645SOL    HW2 1768   2.044  12.716  14.128
66646SOL     OW 1769  12.482   7.804   4.093
66646SOL    HW1 1770  12.434   7.726   4.120
66646SOL    HW2 1771  12.553   7.813   4.156
66647SOL     OW 1772   4.740  13.937   2.952
66647SOL    HW1 1773   4.823  13.890   2.961
66647SOL    HW2 1774   4.674  13.870   2.970
66648SOL     OW 1775  14.239  13.983   6.729
66648SOL    HW1 1776  14.151  13.960   6.699
66648SOL    HW2 1777  14.254  13.926   6.805
66649SOL     OW 1778   8.478  10.188  12.552
66649SOL    HW1 1779   8.525  10.178  12.469
66649SOL    HW2 1780   8.522  10.262  12.595
66650SOL     OW 1781  13.264   3.690   4.687
66650SOL    HW1 1782  13.304   3.638   4.617
66650SOL    HW2 1783  13.319   3.673   4.763
66651SOL     OW 1784  13.597   5.184  13.672
66651SOL    HW1 1785  13.532   5.168  13.741
66651SOL    HW2 1786  13.611   5.278  13.673
66652SOL     OW 1787   1.961  11.915   3.998
66652SOL    HW1 1788   1.902  11.988   4.018
66652SOL    HW2 1789   1.969  11.917   3.902
66653SOL     OW 1790   5.916   6.887   0.421
66653SOL    HW1 1791   5.959   6.973   0.427
66653SOL    HW2 1792   5.959   6.844   0.347
66654SOL     OW 1793   3.739   5.922   1.496
66654SOL    HW1 1794   3.690   5.968   1.565
66654SOL    HW2 1795   3.831   5.936   1.519
66655SOL     OW 1796  10.410  10.515   3.105
66655SOL    HW1 1797  10.478  10.569   3.065
66655SOL    HW2 1798  10.328  10.554   3.074
66656SOL     OW 1799   5.776   6.668   4.250
66656SOL    HW1 1800   5.800   6.629   4.333
66656SOL    HW2 1801   5.776   6.762   4.266
66657SOL     OW 1802   1.225   5.502  11.667
66657SOL    HW1 1803   1.182   5.581  11.634
66657SOL    HW2 1804   1.231   5.445  11.590
66658SOL     OW 1805  10.707   9.972   0.196
66658SOL    HW1 1806  10.670   9.974   0.107
66658SOL    HW2 1807  10.799   9.995   0.183
66659SOL     OW 1808   3.145  13.509  12.404
66659SOL    HW1 1809   3.089  13.544  12.334
66659SOL    HW2 1810   3.220  13.472  12.358
66660SOL     OW 1811   3.508  11.634  12.064
66660SOL    HW1 1812   3.581  11.670  12.015
66660SOL    HW2 1813   3.470  11.568  12.005
66661SOL     OW 1814  12.509   5.821   5.574
66661SOL    HW1 1815  12.467   5.779   5.499
66661SOL    HW2 1816  12.497   5.915   5.560
66662SOL     OW 1817  12.855   8.617   4.200
66662SOL    HW1 1818  12.948   8.610   4.224
66662SOL    HW2 1819  12.814   8.654   4.278
66663SOL     OW 1820   7.629   9.545   3.100
66663SOL    HW1 1821   7.679   9.597   3.037
66663SOL    HW2 1822   7.673   9.460   3.102
66664SOL     OW 1823   8.865   5.665   0.013
66664SOL    HW1 1824   8.778   5.674  14.846
66664SOL    HW2 1825   8.911   5.604  14.828
66665SOL     OW 1826   3.680   3.332  13.381
66665SOL    HW1 1827   3.696   3.344  13.287
66665SOL    HW2 1828   3.630   3.409  13.407
66666SOL     OW 1829   5.121   1.934   9.829
66666SOL    HW1 1830   5.160   1.999   9.888
66666SOL    HW2 1831   5.099   1.860   9.886
66667SOL     OW 1832   4.984   8.615  10.534
66667SOL    HW1 1833   5.018   8.552  10.471
66667SOL    HW2 1834   4.996   8.700  10.492
66668SOL     OW 1835   8.091  13.646   6.688
66668SOL    HW1 1836   8.072  13.554   6.670
66668SOL    HW2 1837   8.075  13.655   6.782
66669SOL     OW 1838  10.838  13.145   2.886
66669SOL    HW1 1839  10.790  13.207   2.831
66669SOL    HW2 1840  10.912  13.116   2.833
66670SOL     OW 1841   2.316   4.493  11.790
66670SOL    HW1 1842   2.233   4.528  11.823
66670SOL    HW2 1843   2.383   4.538  11.842
66671SOL     OW 1844   2.107   9.935   6.915
66671SOL    HW1 1845   2.041   9.968   6.854
66671SOL    HW2 1846   2.094   9.986   6.995
66672SOL     OW 1847  13.193   8.212   6.097
66672SOL    HW1 1848  13.193   8.180   6.006
66672SOL    HW2 1849  13.269   8.171   6.137
66673SOL     OW 1850   9.058   8.887   8.767
66673SOL    HW1 1851   9.115   8.938   8.710
66673SOL    HW2 1852   9.042   8.944   8.842
66674SOL     OW 1853   5.236   9.365   8.911
66674SOL    HW1 1854   5.231   9.431   8.842
66674SOL    HW2 1855   5.158   9.381   8.965
66675SOL     OW 1856   5.047   6.834  12.884
66675SOL    HW1 1857   4.952   6.845  12.884
66675SOL    HW2 1858   5.062   6.754  12.834
66676SOL     OW 1859   8.266   1.865   4.661
66676SOL    HW1 1860   8.259   1.850   4.755
66676SOL    HW2 1861   8.176   1.882   4.633
66677SOL     OW 1862  12.429  10.294  13.725
66677SOL    HW1 1863  12.355  10.288  13.664
66677SOL    HW2 1864  12.481  10.368  13.693
66678SOL     OW 1865  12.042  13.138   1.173
66678SOL    HW1 1866  11.950  13.161   1.179
66678SOL    HW2 1867  12.043  13.043   1.165
66679SOL     OW 1868   6.815   9.638   0.429
66679SOL    HW1 1869   6.849   9.551   0.448
66679SOL    HW2 1870   6.766   9.627   0.347
66680SOL     OW 1871   3.776   6.277  14.617
66680SOL    HW1 1872   3.710   6.220  14.577
66680SOL    HW2 1873   3.845   6.285  14.551
66681SOL     OW 1874   9.156   4.865   2.387
66681SOL    HW1 1875   9.178   4.883   2.479
66681SOL    HW2 1876   9.111   4.944   2.358
66682SOL     OW 1877   6.874  13.083   5.091
66682SOL    HW1 1878   6.865  13.162   5.038
66682SOL    HW2 1879   6.967  13.078   5.110
66683SOL     OW 1880   7.955   3.889   8.873
66683SOL    HW1 1881   7.990   3.978   8.866
66683SOL    HW2 1882   7.916   3.885   8.960
66684SOL     OW 1883   7.094  10.807   6.461
66684SOL    HW1 1884   7.017  10.771   6.503
66684SOL    HW2 1885   7.157  10.819   6.532
66685SOL     OW 1886  14.396  11.013  10.836
66685SOL    HW1 1887  14.455  10.944  10.806
66685SOL    HW2 1888  14.423  11.030  10.926
66686SOL     OW 1889  13.848   8.140  14.589
66686SOL    HW1 1890  13.926   8.086  14.594
66686SOL    HW2 1891  13.856   8.201  14.662
66687SOL     OW 1892   0.740  14.863  13.557
66687SOL    HW1 1893   0.816  14.869  13.500
66687SOL    HW2 1894   0.746   0.067  13.615
66688SOL     OW 1895   5.684   4.224   9.542
66688SOL    HW1 1896   5.773   4.217   9.508
66688SOL    HW2 1897   5.654   4.133   9.549
66689SOL     OW 1898  14.041  14.510   4.109
66689SOL    HW1 1899  13.953  14.494   4.077
66689SOL    HW2 1900  14.066  14.429   4.153
66690SOL     OW 1901   8.875   9.130   4.923
66690SOL    HW1 1902   8.863   9.158   4.832
66690SOL    HW2 1903   8.887   9.212   4.971
66691SOL     OW 1904   3.571   3.817   8.981
66691SOL    HW1 1905   3.504   3.776   8.926
66691SOL    HW2 1906   3.552   3.911   8.976
66692SOL     OW 1907   0.223   6.175   2.427
66692SOL    HW1 1908   0.246   6.266   2.407
66692SOL    HW2 1909   0.131   6.178   2.453
66693SOL     OW 1910   7.128   7.200   9.170
66693SOL    HW1 1911   7.104   7.174   9.081
66693SOL    HW2 1912   7.173   7.284   9.159
66694SOL     OW 1913   6.126   4.579  11.834
66694SOL    HW1 1914   6.056   4.642  11.847
66694SOL    HW2 1915   6.144   4.583  11.740
66695SOL     OW 1916   8.281   3.462  10.936
66695SOL    HW1 1917   8.188   3.461  10.959
66695SOL    HW2 1918   8.322   3.510  11.007
66696SOL     OW 1919   5.161   7.043   3.490
66696SOL    HW1 1920   5.176   7.087   3.406
66696SOL    HW2 1921   5.102   6.971   3.469
66697SOL     OW 1922   6.936   3.405   3.633
66697SOL    HW1 1923   6.934   3.348   3.556
66697SOL    HW2 1924   6.920   3.492   3.598
66698SOL     OW 1925   4.356   6.816  10.770
66698SOL    HW1 1926   4.328   6.743  10.826
66698SOL    HW2 1927   4.389   6.775  10.691
66699SOL     OW 1928   0.618  12.393  10.863
66699SOL    HW1 1929   0.681  12.460  10.839
66699SOL    HW2 1930   0.559  12.436  10.925
66700SOL     OW 1931   1.648   7.948   6.427
66700SOL    HW1 1932   1.600   7.963   6.509
66700SOL    HW2 1933   1.730   7.997   6.438
66701SOL     OW 1934  13.371  12.114  13.891
66701SOL    HW1 1935  13.284  12.144  13.918
66701SOL    HW2 1936  13.425  12.193  13.890
66702SOL     OW 1937   3.078  12.135  10.513
66702SOL    HW1 1938   3.083  12.231  10.513
66702SOL    HW2 1939   3.164  12.106  10.484
66703SOL     OW 1940   5.249   9.957   1.288
66703SOL    HW1 1941   5.186   9.891   1.317
66703SOL    HW2 1942   5.262   9.938   1.195
66704SOL     OW 1943  13.776   2.494  12.697
66704SOL    HW1 1944  13.821   2.513  12.779
66704SOL    HW2 1945  13.688   2.527  12.710
66705SOL     OW 1946   5.441   1.807   9.076
66705SOL    HW1 1947   5.530   1.804   9.041
66705SOL    HW2 1948   5.416   1.899   9.070
66706SOL     OW 1949   5.520   6.107  10.327
66706SOL    HW1 1950   5.588   6.041  10.334
66706SOL    HW2 1951   5.531   6.143  10.239
66707SOL     OW 1952   0.985  13.266   3.867
66707SOL    HW1 1953   1.058  13.281   3.806
66707SOL    HW2 1954   0.992  13.173   3.890
66708SOL     OW 1955   7.607   1.439   1.621
66708SOL    HW1 1956   7.636   1.410   1.535
66708SOL    HW2 1957   7.662   1.515   1.640
66709SOL     OW 1958   6.824  10.650   6.541
66709SOL    HW1 1959   6.818  10.568   6.491
66709SOL    HW2 1960   6.745  10.699   6.515
66710SOL     OW 1961  13.866  10.989   8.396
66710SOL    HW1 1962  13.921  10.912   8.380
66710SOL    HW2 1963  13.834  11.014   8.310
66711SOL     OW 1964  13.676  13.688  13.853
66711SOL    HW1 1965  13.656  13.607  13.808
66711SOL    HW2 1966  13.772  13.686  13.863
66712SOL     OW 1967   4.529   2.049   7.408
66712SOL    HW1 1968   4.501   2.120   7.350
66712SOL    HW2 1969   4.605   2.085   7.454
66713SOL     OW 1970  14.829   4.303   5.278
66713SOL    HW1 1971  14.824   4.390   5.317
66713SOL    HW2 1972  14.756   4.300   5.216
66714SOL     OW 1973   9.136  14.332  10.420
66714SOL    HW1 1974   9.187  14.297  10.493
66714SOL    HW2 1975   9.148  14.427  10.425
66715SOL     OW 1976   7.266   7.681   3.031
66715SOL    HW1 1977   7.328   7.665   3.103
66715SOL    HW2 1978   7.187   7.713   3.074
66716SOL     OW 1979   4.616  11.520  13.621
66716SOL    HW1 1980   4.704  11.488  13.601
66716SOL    HW2 1981   4.567  11.509  13.539
66717SOL     OW 1982   9.330  10.026   5.919
66717SOL    HW1 1983   9.371  10.112   5.912
66717SOL    HW2 1984   9.319   9.997   5.828
66718SOL     OW 1985   1.411   6.770   4.290
66718SOL    HW1 1986   1.374   6.829   4.356
66718SOL    HW2 1987   1.418   6.686   4.334
66719SOL     OW 1988  10.561   2.013   3.038
66719SOL    HW1 1989  10.508   1.941   3.074
66719SOL    HW2 1990  10.651   1.990   3.062
66720SOL     OW 1991  13.143   1.555   4.803
66720SOL    HW1 1992  13.106   1.470   4.780
66720SOL    HW2 1993  13.180   1.588   4.721
66721SOL     OW 1994   3.326  14.491   8.316
66721SOL    HW1 1995   3.421  14.479   8.319
66721SOL    HW2 1996   3.312  14.579   8.349
66722SOL     OW 1997  11.626   3.712   6.120
66722SOL    HW1 1998  11.569   3.770   6.172
66722SOL    HW2 1999  11.664   3.652   6.184
66723SOL     OW 2000   0.158   9.779   2.031
66723SOL    HW1 2001   0.166   9.800   1.938
66723SOL    HW2 2002   0.167   9.684   2.034
66724SOL     OW 2003  10.169  13.762   0.400
66724SOL    HW1 2004  10.109  13.820   0.353
66724SOL    HW2 2005  10.142  13.674   0.373
66725SOL     OW 2006  14.804   4.277   7.500
66725SOL    HW1 2007  14.812   4.182   7.493
66725SOL    HW2 2008  14.865   4.311   7.435
66726SOL     OW 2009  13.559  12.327  11.459
66726SOL    HW1 2010  13.550  12.271  11.382
66726SOL    HW2 2011  13.622  12.394  11.433
66727SOL     OW 2012  11.939   0.679   8.325
66727SOL    HW1 2013  12.005   0.651   8.388
66727SOL    HW2 2014  11.898   0.598   8.295
66728SOL     OW 2015   2.087  12.722   8.870
66728SOL    HW1 2016   2.054  12.748   8.956
66728SOL    HW2 2017   2.045  12.783   8.809
66729SOL     OW 2018   4.997  12.006  11.111
66729SOL    HW1 2019   4.913  11.976  11.147
66729SOL    HW2 2020   4.974  12.049  11.029
66730SOL     OW 2021  11.338   0.074   3.430
66730SOL    HW1 2022  11.393   0.011   3.384
66730SOL    HW2 2023  11.349   0.156   3.381
66731SOL     OW 2024  11.912   9.133  12.732
66731SOL    HW1 2025  11.819   9.137  12.757
66731SOL    HW2 2026  11.917   9.186  12.652
66732SOL     OW 2027   6.639   1.271   9.680
66732SOL    HW1 2028   6.718   1.217   9.674
66732SOL    HW2 2029   6.635   1.296   9.773
66733SOL     OW 2030   2.032   9.036  11.435
66733SOL    HW1 2031   2.109   9.086  11.461
66733SOL    HW2 2032   2.066   8.960  11.389
66734SOL     OW 2033   7.300  13.891   7.201
66734SOL    HW1 2034   7.277  13.887   7.294
66734SOL    HW2 2035   7.388  13.927   7.200
66735SOL     OW 2036   6.392   6.568   2.325
66735SOL    HW1 2037   6.395   6.646   2.269
66735SOL    HW2 2038   6.438   6.501   2.277
66736SOL     OW 2039  11.889   7.375   2.996
66736SOL    HW1 2040  11.938   7.439   3.048
66736SOL    HW2 2041  11.931   7.378   2.909
66737SOL     OW 2042  11.947  11.549  14.817
66737SOL    HW1 2043  11.887  11.599  14.760
66737SOL    HW2 2044  12.034  11.567  14.781
66738SOL     OW 2045  11.788  13.228   2.107
66738SOL    HW1 2046  11.748  13.155   2.155
66738SOL    HW2 2047  11.713  13.277   2.073
66739SOL     OW 2048  13.998   0.743  14.636
66739SOL    HW1 2049  13.999   0.838  14.632
66739SOL    HW2 2050  13.966   0.723  14.724
66740SOL     OW 2051   5.102   9.474   1.173
66740SOL    HW1 2052   5.116   9.394   1.123
66740SOL    HW2 2053   5.114   9.544   1.109
66741SOL     OW 2054  13.891   5.109  10.808
66741SOL    HW1 2055  13.909   5.175  10.875
66741SOL    HW2 2056  13.977   5.073  10.786
66742SOL     OW 2057  10.654   8.222   6.728
66742SOL    HW1 2058  10.581   8.159   6.729
66742SOL    HW2 2059  10.662   8.250   6.819
66743SOL     OW 2060  12.650   9.958   4.794
66743SOL    HW1 2061  12.654  10.002   4.879
66743SOL    HW2 2062  12.727   9.989   4.747
66744SOL     OW 2063  14.069   3.007   0.957
66744SOL    HW1 2064  14.114   2.924   0.975
66744SOL    HW2 2065  13.992   3.005   1.013
66745SOL     OW 2066  13.030   7.434  13.108
66745SOL    HW1 2067  13.017   7.529  13.109
66745SOL    HW2 2068  13.088   7.417  13.183
66746SOL     OW 2069  13.148   9.657  12.715
66746SOL    HW1 2070  13.188   9.612  12.641
66746SOL    HW2 2071  13.195   9.623  12.792
66747SOL     OW 2072   5.730   5.167  13.700
66747SOL    HW1 2073   5.707   5.075  13.711
66747SOL    HW2 2074   5.823   5.171  13.720
66748SOL     OW 2075  10.145   4.447   0.555
66748SOL    HW1 2076  10.082   4.418   0.489
66748SOL    HW2 2077  10.130   4.542   0.562
66749SOL     OW 2078  14.219   8.123   3.750
66749SOL    HW1 2079  14.125   8.107   3.755
66749SOL    HW2 2080  14.258   8.047   3.795
66750SOL     OW 2081   0.386   3.636  12.285
66750SOL    HW1 2082   0.404   3.730  12.293
66750SOL    HW2 2083   0.325   3.617  12.356
66751SOL     OW 2084   3.723   1.325   3.469
66751SOL    HW1 2085   3.740   1.359   3.381
66751SOL    HW2 2086   3.754   1.393   3.528
66752SOL     OW 2087  11.851   6.655  13.715
66752SOL    HW1 2088  11.873   6.562  13.715
66752SOL    HW2 2089  11.758   6.659  13.693
66753SOL     OW 2090   3.299   9.219   6.480
66753SOL    HW1 2091   3.284   9.125   6.475
66753SOL    HW2 2092   3.339   9.233   6.566
66754SOL     OW 2093   7.256   2.037   3.995
66754SOL    HW1 2094   7.193   2.051   3.923
66754SOL    HW2 2095   7.227   1.956   4.037
66755SOL     OW 2096   9.208   8.441  10.644
66755SOL    HW1 2097   9.274   8.475  10.583
66755SOL    HW2 2098   9.255   8.428  10.726
66756SOL     OW 2099   2.357   6.710   2.631
66756SOL    HW1 2100   2.322   6.754   2.708
66756SOL    HW2 2101   2.330   6.765   2.557
66757SOL     OW 2102  11.214  14.295  12.378
66757SOL    HW1 2103  11.191  14.204  12.400
66757SOL    HW2 2104  11.257  14.328  12.458
66758SOL     OW 2105  12.564   3.595   6.694
66758SOL    HW1 2106  12.589   3.533   6.625
66758SOL    HW2 2107  12.590   3.681   6.659
66759SOL     OW 2108   8.132   9.014   1.254
66759SOL    HW1 2109   8.186   8.936   1.266
66759SOL    HW2 2110   8.190   9.077   1.213
66760SOL     OW 2111  13.003   4.535   5.216
66760SOL    HW1 2112  13.040   4.578   5.293
66760SOL    HW2 2113  13.011   4.599   5.146
66761SOL     OW 2114  11.450   9.823   4.161
66761SOL    HW1 2115  11.395   9.750   4.133
66761SOL    HW2 2116  11.536   9.783   4.175
66762SOL     OW 2117   5.851   9.625   0.099
66762SOL    HW1 2118   5.849   9.719   0.118
66762SOL    HW2 2119   5.944   9.603   0.097
66763SOL     OW 2120   7.729   9.953  10.652
66763SOL    HW1 2121   7.738  10.045  10.676
66763SOL    HW2 2122   7.733   9.953  10.556
66764SOL     OW 2123  13.981  11.624  12.709
66764SOL    HW1 2124  14.069  11.596  12.681
66764SOL    HW2 2125  13.993  11.651  12.800
66765SOL     OW 2126   3.034   8.290   1.921
66765SOL    HW1 2127   2.974   8.216   1.926
66765SOL    HW2 2128   3.116   8.257   1.957
66766SOL     OW 2129   0.736   2.708   8.675
66766SOL    HW1 2130   0.743   2.734   8.584
66766SOL    HW2 2131   0.790   2.771   8.723
66767SOL     OW 2132   3.791   4.163   7.131
66767SOL    HW1 2133   3.709   4.117   7.149
66767SOL    HW2 2134   3.782   4.247   7.174
66768SOL     OW 2135   8.985   4.285   8.438
66768SOL    HW1 2136   9.004   4.196   8.406
66768SOL    HW2 2137   8.915   4.273   8.502
66769SOL     OW 2138   4.643  11.815   3.969
66769SOL    HW1 2139   4.736  11.823   3.947
66769SOL    HW2 2140   4.641  11.758   4.045
66770SOL     OW 2141  12.721  13.143  13.689
66770SOL    HW1 2142  12.722  13.224  13.740
66770SOL    HW2 2143  12.811  13.132  13.659
66771SOL     OW 2144   8.925  14.699   5.646
66771SOL    HW1 2145   8.838  14.661   5.632
66771SOL    HW2 2146   8.983  14.646   5.592
66772SOL     OW 2147  10.117  12.945  10.135
66772SOL    HW1 2148  10.066  13.007  10.082
66772SOL    HW2 2149  10.150  12.997  10.208
66773SOL     OW 2150  14.409   2.646   0.758
66773SOL    HW1 2151  14.433   2.722   0.706
66773SOL    HW2 2152  14.435   2.571   0.705
66774SOL     OW 2153  10.111   1.427   0.725
66774SOL    HW1 2154  10.095   1.475   0.806
66774SOL    HW2 2155  10.095   1.335   0.748
66775SOL     OW 2156  10.169   4.296  14.114
66775SOL    HW1 2157  10.185   4.381  14.073
66775SOL    HW2 2158  10.155   4.315  14.206
66776SOL     OW 2159   4.553  11.642   2.608
66776SOL    HW1 2160   4.554  11.552   2.641
66776SOL    HW2 2161   4.559  11.697   2.686
66777SOL     OW 2162   6.534   2.827  14.728
66777SOL    HW1 2163   6.447   2.858  14.753
66777SOL    HW2 2164   6.528   2.731  14.732
66778SOL     OW 2165   1.706   9.731  14.189
66778SOL    HW1 2166   1.636   9.731  14.254
66778SOL    HW2 2167   1.733   9.639  14.183
66779SOL     OW 2168  13.963   6.991   1.022
66779SOL    HW1 2169  13.875   7.020   1.000
66779SOL    HW2 2170  13.952   6.901   1.054
66780SOL     OW 2171   5.023   3.946   3.636
66780SOL    HW1 2172   5.113   3.939   3.667
66780SOL    HW2 2173   4.974   3.976   3.712
66781SOL     OW 2174   4.028   9.398  10.983
66781SOL    HW1 2175   4.059   9.419  10.895
66781SOL    HW2 2176   3.934   9.418  10.980
66782SOL     OW 2177  12.135   2.361  11.488
66782SOL    HW1 2178  12.046   2.397  11.495
66782SOL    HW2 2179  12.132   2.308  11.408
66783SOL     OW 2180   3.730  10.435   4.574
66783SOL    HW1 2181   3.742  10.343   4.598
66783SOL    HW2 2182   3.636  10.444   4.561
66784SOL     OW 2183   7.899   6.269  12.798
66784SOL    HW1 2184   7.952   6.274  12.878
66784SOL    HW2 2185   7.889   6.360  12.771
66785SOL     OW 2186   9.102  14.277  10.144
66785SOL    HW1 2187   9.119  14.291  10.237
66785SOL    HW2 2188   9.023  14.327  10.127
66786SOL     OW 2189  11.236   2.190   5.679
66786SOL    HW1 2190  11.232   2.264   5.739
66786SOL    HW2 2191  11.287   2.221   5.605
66787SOL     OW 2192  14.624   8.214  10.432
66787SOL    HW1 2193  14.601   8.291  10.380
66787SOL    HW2 2194  14.613   8.140  10.372
66788SOL     OW 2195  10.082  11.209  13.036
66788SOL    HW1 2196  10.071  11.226  12.942
66788SOL    HW2 2197  10.177  11.212  13.049
66789SOL     OW 2198   4.294  12.504   4.791
66789SOL    HW1 2199   4.342  12.445   4.850
66789SOL    HW2 2200   4.241  12.446   4.737
66790SOL     OW 2201  13.940   2.306   3.282
66790SOL    HW1 2202  13.943   2.266   3.195
66790SOL    HW2 2203  13.975   2.239   3.341
66791SOL     OW 2204  12.792   0.792  11.501
66791SOL    HW1 2205  12.866   0.756  11.551
66791SOL    HW2 2206  12.774   0.876  11.545
66792SOL     OW 2207  11.925  13.493  13.226
66792SOL    HW1 2208  11.942  13.580  13.261
66792SOL    HW2 2209  11.833  13.494  13.202
66793SOL     OW 2210  14.196  11.772   1.266
66793SOL    HW1 2211  14.271  11.715   1.250
66793SOL    HW2 2212  14.159  11.740   1.349
66794SOL     OW 2213   0.520  12.150   9.248
66794SOL    HW1 2214   0.438  12.138   9.200
66794SOL    HW2 2215   0.549  12.061   9.267
66795SOL     OW 2216   5.075   4.243   6.631
66795SOL    HW1 2217   5.021   4.191   6.571
66795SOL    HW2 2218   5.127   4.179   6.679
66796SOL     OW 2219  14.544  11.151  12.595
66796SOL    HW1 2220  14.633  11.185  12.597
66796SOL    HW2 2221  14.552  11.065  12.552
66797SOL     OW 2222   8.611   0.556   7.251
66797SOL    HW1 2223   8.593   0.622   7.185
66797SOL    HW2 2224   8.672   0.495   7.209
66798SOL     OW 2225   5.431   6.173   0.823
66798SOL    HW1 2226   5.379   6.143   0.897
66798SOL    HW2 2227   5.388   6.253   0.793
66799SOL     OW 2228  12.619   2.112   0.598
66799SOL    HW1 2229  12.605   2.095   0.692
66799SOL    HW2 2230  12.553   2.178   0.576
66800SOL     OW 2231  10.228   9.205  11.074
66800SOL    HW1 2232  10.271   9.181  11.157
66800SOL    HW2 2233  10.199   9.296  11.088
66801SOL     OW 2234  13.222   8.458  11.581
66801SOL    HW1 2235  13.169   8.381  11.559
66801SOL    HW2 2236  13.164   8.512  11.634
66802SOL     OW 2237   3.218   3.712   9.044
66802SOL    HW1 2238   3.172   3.723   9.128
66802SOL    HW2 2239   3.255   3.624   9.048
66803SOL     OW 2240  12.162   5.287  12.676
66803SOL    HW1 2241  12.098   5.354  12.701
66803SOL    HW2 2242  12.229   5.291  12.744
66804SOL     OW 2243   5.304   9.282   1.871
66804SOL    HW1 2244   5.276   9.211   1.815
66804SOL    HW2 2245   5.253   9.358   1.842
66805SOL     OW 2246   2.558   1.345   7.959
66805SOL    HW1 2247   2.637   1.300   7.991
66805SOL    HW2 2248   2.562   1.431   8.001
66806SOL     OW 2249  11.982  10.815   9.667
66806SOL    HW1 2250  11.901  10.786   9.626
66806SOL    HW2 2251  11.972  10.794   9.760
66807SOL     OW 2252   6.789  12.719   8.975
66807SOL    HW1 2253   6.762  12.792   8.920
66807SOL    HW2 2254   6.831  12.760   9.050
66808SOL     OW 2255  13.485  13.631  14.505
66808SOL    HW1 2256  13.579  13.646  14.509
66808SOL    HW2 2257  13.476  13.547  14.461
66809SOL     OW 2258   3.360   5.658   2.222
66809SOL    HW1 2259   3.374   5.587   2.160
66809SOL    HW2 2260   3.343   5.613   2.305
66810SOL     OW 2261   8.705   4.193   1.133
66810SOL    HW1 2262   8.746   4.170   1.050
66810SOL    HW2 2263   8.613   4.170   1.122
66811SOL     OW 2264   5.065   0.489   8.985
66811SOL    HW1 2265   5.068   0.529   9.072
66811SOL    HW2 2266   5.156   0.487   8.956
66812SOL     OW 2267   9.576  11.069   9.967
66812SOL    HW1 2268   9.486  11.100   9.972
66812SOL    HW2 2269   9.585  11.012  10.044
66813SOL     OW 2270   8.214  14.763  11.724
66813SOL    HW1 2271   8.153  14.784  11.794
66813SOL    HW2 2272   8.275  14.837  11.722
66814SOL     OW 2273  11.926   0.051   5.044
66814SOL    HW1 2274  11.884   0.071   4.960
66814SOL    HW2 2275  11.994  14.860   5.022
66815SOL     OW 2276  13.532  11.123   3.241
66815SOL    HW1 2277  13.614  11.073   3.247
66815SOL    HW2 2278  13.539  11.188   3.310
66816SOL     OW 2279   3.722  11.757  11.107
66816SOL    HW1 2280   3.629  11.736  11.102
66816SOL    HW2 2281   3.724  11.847  11.139
66817SOL     OW 2282   8.492   7.346   8.050
66817SOL    HW1 2283   8.445   7.386   7.977
66817SOL    HW2 2284   8.527   7.264   8.015
66818SOL     OW 2285  10.708   0.318   7.809
66818SOL    HW1 2286  10.743   0.373   7.739
66818SOL    HW2 2287  10.613   0.325   7.800
66819SOL     OW 2288   5.140   5.356  11.644
66819SOL    HW1 2289   5.210   5.295  11.619
66819SOL    HW2 2290   5.138   5.353  11.740
66820SOL     OW 2291  10.746   1.778  14.704
66820SOL    HW1 2292  10.772   1.754  14.792
66820SOL    HW2 2293  10.813   1.840  14.674
66821SOL     OW 2294   2.840   6.757   9.895
66821SOL    HW1 2295   2.898   6.688   9.865
66821SOL    HW2 2296   2.891   6.838   9.884
66822SOL     OW 2297  12.936  11.751   4.708
66822SOL    HW1 2298  12.909  11.732   4.798
66822SOL    HW2 2299  12.878  11.822   4.680
66823SOL     OW 2300   3.863   5.363   8.724
66823SOL    HW1 2301   3.792   5.379   8.787
66823SOL    HW2 2302   3.935   5.417   8.754
66824SOL     OW 2303  12.896  13.648   5.191
66824SOL    HW1 2304  12.865  13.679   5.106
66824SOL    HW2 2305  12.893  13.725   5.248
66825SOL     OW 2306  11.005  10.996  11.637
66825SOL    HW1 2307  11.081  10.962  11.685
66825SOL    HW2 2308  10.964  10.918  11.600
66826SOL     OW 2309  13.998  14.114  14.370
66826SOL    HW1 2310  13.920  14.097  14.422
66826SOL    HW2 2311  14.060  14.046  14.395
66827SOL     OW 2312   9.391   6.924  10.240
66827SOL    HW1 2313   9.451   6.861  10.199
66827SOL    HW2 2314   9.325   6.869  10.283
66828SOL     OW 2315   2.976   0.278   0.949
66828SOL    HW1 2316   2.972   0.366   0.911
66828SOL    HW2 2317   2.885   0.247   0.948
66829SOL     OW 2318   6.037   0.466  13.260
66829SOL    HW1 2319   6.030   0.558  13.285
66829SOL    HW2 2320   5.986   0.419  13.327
66830SOL     OW 2321   3.402   7.831   6.364
66830SOL    HW1 2322   3.316   7.818   6.324
66830SOL    HW2 2323   3.386   7.888   6.438
66831SOL     OW 2324  13.741   8.227  13.437
66831SOL    HW1 2325  13.714   8.318  13.438
66831SOL    HW2 2326  13.671   8.181  13.484
66832SOL     OW 2327  11.926   3.025   1.298
66832SOL    HW1 2328  11.978   3.086   1.246
66832SOL    HW2 2329  11.892   2.962   1.235
66833SOL     OW 2330   6.540   1.739   1.051
66833SOL    HW1 2331   6.518   1.795   1.125
66833SOL    HW2 2332   6.614   1.686   1.082
66834SOL     OW 2333  10.147   6.570   4.262
66834SOL    HW1 2334  10.116   6.596   4.175
66834SOL    HW2 2335  10.067   6.552   4.312
66835SOL     OW 2336   6.112   7.181   5.996
66835SOL    HW1 2337   6.177   7.198   6.065
66835SOL    HW2 2338   6.135   7.095   5.962
66836SOL     OW 2339   4.881   2.951   6.333
66836SOL    HW1 2340   4.822   2.967   6.259
66836SOL    HW2 2341   4.889   3.036   6.376
66837SOL     OW 2342  11.234   4.553  13.643
66837SOL    HW1 2343  11.177   4.621  13.606
66837SOL    HW2 2344  11.185   4.521  13.719
66838SOL     OW 2345  11.659  11.348   8.169
66838SOL    HW1 2346  11.606  11.283   8.124
66838SOL    HW2 2347  11.613  11.365   8.251
66839SOL     OW 2348   1.896   3.557   3.158
66839SOL    HW1 2349   1.974   3.506   3.135
66839SOL    HW2 2350   1.822   3.501   3.134
66840SOL     OW 2351   6.708  11.002   9.911
66840SOL    HW1 2352   6.710  11.003   9.815
66840SOL    HW2 2353   6.653  11.077   9.934
66841SOL     OW 2354   7.081   6.992  12.719
66841SOL    HW1 2355   7.009   7.011  12.779
66841SOL    HW2 2356   7.048   6.922  12.663
66842SOL     OW 2357   1.828   7.099   0.339
66842SOL    HW1 2358   1.777   7.029   0.298
66842SOL    HW2 2359   1.787   7.180   0.310
66843SOL     OW 2360   2.232   7.231   8.473
66843SOL    HW1 2361   2.175   7.171   8.425
66843SOL    HW2 2362   2.277   7.176   8.537
66844SOL     OW 2363   5.505   1.298   9.517
66844SOL    HW1 2364   5.475   1.388   9.520
66844SOL    HW2 2365   5.595   1.303   9.484
66845SOL     OW 2366   5.696   4.087   0.595
66845SOL    HW1 2367   5.764   4.063   0.533
66845SOL    HW2 2368   5.649   4.005   0.613
66846SOL     OW 2369   8.989  10.442   6.991
66846SOL    HW1 2370   9.012  10.532   6.968
66846SOL    HW2 2371   9.015  10.391   6.915
66847SOL     OW 2372   8.127   1.159   6.561
66847SOL    HW1 2373   8.171   1.150   6.645
66847SOL    HW2 2374   8.159   1.085   6.509
66848SOL     OW 2375   0.996   8.467   1.112
66848SOL    HW1 2376   0.955   8.382   1.128
66848SOL    HW2 2377   1.045   8.455   1.031
66849SOL     OW 2378  13.149   5.799  10.543
66849SOL    HW1 2379  13.108   5.880  10.575
66849SOL    HW2 2380  13.214   5.829  10.480
66850SOL     OW 2381   2.014   7.895   2.995
66850SOL    HW1 2382   1.962   7.945   3.059
66850SOL    HW2 2383   2.084   7.955   2.970
66851SOL     OW 2384   5.446   9.029   1.051
66851SOL    HW1 2385   5.512   9.022   0.981
66851SOL    HW2 2386   5.374   8.974   1.022
66852SOL     OW 2387   7.347   4.929  11.167
66852SOL    HW1 2388   7.386   5.005  11.210
66852SOL    HW2 2389   7.254   4.950  11.161
66853SOL     OW 2390   7.085   0.475  11.873
66853SOL    HW1 2391   7.098   0.389  11.913
66853SOL    HW2 2392   7.072   0.534  11.947
66854SOL     OW 2393   2.130   1.375  13.258
66854SOL    HW1 2394   2.071   1.430  13.207
66854SOL    HW2 2395   2.141   1.422  13.341
66855SOL     OW 2396   3.416  10.900   5.183
66855SOL    HW1 2397   3.328  10.934   5.172
66855SOL    HW2 2398   3.468  10.943   5.116
66856SOL     OW 2399   3.158   3.741   9.622
66856SOL    HW1 2400   3.102   3.668   9.595
66856SOL    HW2 2401   3.154   3.802   9.548
66857SOL     OW 2402   7.300  13.044   9.545
66857SOL    HW1 2403   7.268  13.100   9.475
66857SOL    HW2 2404   7.391  13.069   9.557
66858SOL     OW 2405   0.242   9.435   5.396
66858SOL    HW1 2406   0.261   9.421   5.488
66858SOL    HW2 2407   0.150   9.407   5.386
66859SOL     OW 2408  13.253   2.682   1.171
66859SOL    HW1 2409  13.337   2.647   1.141
66859SOL    HW2 2410  13.273   2.726   1.253
66860SOL     OW 2411   2.990   6.236   1.816
66860SOL    HW1 2412   2.953   6.175   1.753
66860SOL    HW2 2413   2.983   6.191   1.900
66861SOL     OW 2414   1.916   3.106  14.744
66861SOL    HW1 2415   1.889   3.182  14.796
66861SOL    HW2 2416   1.982   3.062  14.798
66862SOL     OW 2417   6.704   6.340  14.341
66862SOL    HW1 2418   6.792   6.377  14.337
66862SOL    HW2 2419   6.650   6.402  14.291
66863SOL     OW 2420   1.105   0.550  10.797
66863SOL    HW1 2421   1.174   0.484  10.789
66863SOL    HW2 2422   1.066   0.532  10.883
66864SOL     OW 2423   7.134   6.929   9.215
66864SOL    HW1 2424   7.228   6.913   9.212
66864SOL    HW2 2425   7.127   7.023   9.233
66865SOL     OW 2426  11.873   2.347   2.155
66865SOL    HW1 2427  11.942   2.294   2.114
66865SOL    HW2 2428  11.906   2.437   2.150
66866SOL     OW 2429   6.112   3.841   9.824
66866SOL    HW1 2430   6.197   3.871   9.793
66866SOL    HW2 2431   6.062   3.823   9.744
66867SOL     OW 2432   1.942  11.480  13.162
66867SOL    HW1 2433   1.993  11.501  13.083
66867SOL    HW2 2434   2.007  11.466  13.230
66868SOL     OW 2435   1.299   9.391   6.766
66868SOL    HW1 2436   1.246   9.373   6.689
66868SOL    HW2 2437   1.390   9.383   6.735
66869SOL     OW 2438  11.454  14.741   1.386
66869SOL    HW1 2439  11.493  14.751   1.473
66869SOL    HW2 2440  11.432  14.829   1.359
66870SOL     OW 2441  10.291   9.624  14.421
66870SOL    HW1 2442  10.386   9.636  14.420
66870SOL    HW2 2443  10.255   9.713  14.417
66871SOL     OW 2444  12.537  13.270   5.299
66871SOL    HW1 2445  12.584  13.321   5.234
66871SOL    HW2 2446  12.446  13.269   5.268
66872SOL     OW 2447   5.179   5.506   2.632
66872SOL    HW1 2448   5.092   5.475   2.608
66872SOL    HW2 2449   5.230   5.501   2.551
66873SOL     OW 2450  11.476   1.806  12.186
66873SOL    HW1 2451  11.494   1.765  12.101
66873SOL    HW2 2452  11.382   1.792  12.199
66874SOL     OW 2453  10.881   3.612   6.756
66874SOL    HW1 2454  10.831   3.622   6.838
66874SOL    HW2 2455  10.971   3.596   6.785
66875SOL     OW 2456  11.323   4.935   5.610
66875SOL    HW1 2457  11.271   5.015   5.596
66875SOL    HW2 2458  11.351   4.941   5.701
66876SOL     OW 2459   6.696  13.822   6.391
66876SOL    HW1 2460   6.693  13.908   6.434
66876SOL    HW2 2461   6.629  13.771   6.436
66877SOL     OW 2462   8.884  12.017   4.453
66877SOL    HW1 2463   8.811  12.075   4.473
66877SOL    HW2 2464   8.853  11.930   4.475
66878SOL     OW 2465  13.158   5.506   9.702
66878SOL    HW1 2466  13.199   5.592   9.714
66878SOL    HW2 2467  13.064   5.524   9.704
66879SOL     OW 2468  13.115  13.239  12.661
66879SOL    HW1 2469  13.046  13.227  12.596
66879SOL    HW2 2470  13.067  13.243  12.745
66880SOL     OW 2471  10.294   4.845  13.017
66880SOL    HW1 2472  10.348   4.794  12.958
66880SOL    HW2 2473  10.311   4.936  12.992
66881SOL     OW 2474  11.038   8.195   6.862
66881SOL    HW1 2475  11.071   8.116   6.905
66881SOL    HW2 2476  11.106   8.261   6.878
66882SOL     OW 2477  10.091   3.542   6.456
66882SOL    HW1 2478  10.070   3.535   6.549
66882SOL    HW2 2479  10.115   3.634   6.444
66883SOL     OW 2480   8.236   9.349  12.220
66883SOL    HW1 2481   8.253   9.255  12.229
66883SOL    HW2 2482   8.292   9.389  12.287
66884SOL     OW 2483   8.379   4.130  11.479
66884SOL    HW1 2484   8.283   4.136  11.476
66884SOL    HW2 2485   8.407   4.161  11.393
66885SOL     OW 2486   6.290   0.529   5.296
66885SOL    HW1 2487   6.243   0.591   5.352
66885SOL    HW2 2488   6.252   0.541   5.209
66886SOL     OW 2489   0.534   1.685  13.155
66886SOL    HW1 2490   0.619   1.656  13.189
66886SOL    HW2 2491   0.496   1.607  13.115
66887SOL     OW 2492  11.709  10.756   0.153
66887SOL    HW1 2493  11.805  10.747   0.157
66887SOL    HW2 2494  11.692  10.843   0.188
66888SOL     OW 2495   0.633   4.519   4.188
66888SOL    HW1 2496   0.540   4.527   4.208
66888SOL    HW2 2497   0.661   4.608   4.166
66889SOL     OW 2498  10.380  10.351   4.562
66889SOL    HW1 2499  10.427  10.315   4.487
66889SOL    HW2 2500  10.402  10.444   4.562
66890SOL     OW 2501   6.149   9.091   4.434
66890SOL    HW1 2502   6.178   9.027   4.369
66890SOL    HW2 2503   6.215   9.085   4.504
66891SOL     OW 2504  13.696   4.086   2.926
66891SOL    HW1 2505  13.682   4.160   2.867
66891SOL    HW2 2506  13.612   4.040   2.926
66892SOL     OW 2507   6.926  12.516   1.380
66892SOL    HW1 2508   6.843  12.540   1.421
66892SOL    HW2 2509   6.992  12.561   1.432
66893SOL     OW 2510   6.555   2.417  10.924
66893SOL    HW1 2511   6.644   2.398  10.953
66893SOL    HW2 2512   6.535   2.348  10.861
66894SOL     OW 2513   2.469   4.987  11.839
66894SOL    HW1 2514   2.476   4.999  11.934
66894SOL    HW2 2515   2.487   5.074  11.803
66895SOL     OW 2516  12.804  11.120  14.026
66895SOL    HW1 2517  12.742  11.056  13.989
66895SOL    HW2 2518  12.748  11.185  14.068
66896SOL     OW 2519  11.979  13.078  14.476
66896SOL    HW1 2520  11.941  13.005  14.427
66896SOL    HW2 2521  12.072  13.074  14.455
66897SOL     OW 2522  11.728  12.933   5.410
66897SOL    HW1 2523  11.636  12.955   5.426
66897SOL    HW2 2524  11.725  12.848   5.367
66898SOL     OW 2525   4.215  11.873   1.626
66898SOL    HW1 2526   4.190  11.952   1.674
66898SOL    HW2 2527   4.303  11.853   1.658
66899SOL     OW 2528   2.824  10.091  10.892
66899SOL    HW1 2529   2.919  10.091  10.889
66899SOL    HW2 2530   2.802  10.038  10.969
66900SOL     OW 2531   4.003   0.132   0.909
66900SOL    HW1 2532   3.911   0.158   0.918
66900SOL    HW2 2533   4.030   0.167   0.825
66901SOL     OW 2534   3.595   4.644  14.320
66901SOL    HW1 2535   3.519   4.648  14.378
66901SOL    HW2 2536   3.670   4.640  14.379
66902SOL     OW 2537   5.272   8.779  12.133
66902SOL    HW1 2538   5.351   8.790  12.185
66902SOL    HW2 2539   5.228   8.864  12.139
66903SOL     OW 2540   8.426   6.690  12.969
66903SOL    HW1 2541   8.448   6.778  12.939
66903SOL    HW2 2542   8.453   6.632  12.898
66904SOL     OW 2543  12.633   5.444   3.130
66904SOL    HW1 2544  12.542   5.467   3.109
66904SOL    HW2 2545  12.673   5.426   3.045
66905SOL     OW 2546  11.706   9.633  14.151
66905SOL    HW1 2547  11.742   9.570  14.088
66905SOL    HW2 2548  11.783   9.677  14.188
66906SOL     OW 2549   9.265   4.374  12.568
66906SOL    HW1 2550   9.340   4.314  12.572
66906SOL    HW2 2551   9.286   4.441  12.634
66907SOL     OW 2552   1.355   0.044   6.248
66907SOL    HW1 2553   1.422  14.868   6.296
66907SOL    HW2 2554   1.296  14.848   6.215
66908SOL     OW 2555   6.805   9.275  13.508
66908SOL    HW1 2556   6.843   9.333  13.574
66908SOL    HW2 2557   6.828   9.187  13.539
66909SOL     OW 2558   2.964   6.722   8.142
66909SOL    HW1 2559   2.973   6.815   8.124
66909SOL    HW2 2560   3.052   6.687   8.129
66910SOL     OW 2561   2.327  10.662   4.363
66910SOL    HW1 2562   2.292  10.598   4.301
66910SOL    HW2 2563   2.366  10.608   4.432
66911SOL     OW 2564   0.095   1.692   4.127
66911SOL    HW1 2565   0.183   1.666   4.156
66911SOL    HW2 2566   0.111   1.749   4.052
66912SOL     OW 2567   4.925  13.296   6.676
66912SOL    HW1 2568   4.913  13.388   6.653
66912SOL    HW2 2569   4.928  13.250   6.593
66913SOL     OW 2570  14.778   3.980   3.404
66913SOL    HW1 2571  14.801   4.046   3.338
66913SOL    HW2 2572  14.687   3.958   3.385
66914SOL     OW 2573   3.974  13.317   5.466
66914SOL    HW1 2574   3.888  13.281   5.488
66914SOL    HW2 2575   4.016  13.247   5.416
66915SOL     OW 2576   3.246   3.407  10.836
66915SOL    HW1 2577   3.153   3.427  10.846
66915SOL    HW2 2578   3.264   3.426  10.744
66916SOL     OW 2579   3.651  14.296   3.996
66916SOL    HW1 2580   3.746  14.283   4.005
66916SOL    HW2 2581   3.614  14.208   4.005
66917SOL     OW 2582   6.846  11.042   0.585
66917SOL    HW1 2583   6.838  10.991   0.505
66917SOL    HW2 2584   6.801  10.990   0.652
66918SOL     OW 2585   6.497   6.572  12.263
66918SOL    HW1 2586   6.413   6.616  12.252
66918SOL    HW2 2587   6.558   6.618  12.205
66919SOL     OW 2588  11.870  10.140   1.791
66919SOL    HW1 2589  11.858  10.149   1.697
66919SOL    HW2 2590  11.814  10.066   1.816
66920SOL     OW 2591  11.858   1.377   2.800
66920SOL    HW1 2592  11.943   1.353   2.763
66920SOL    HW2 2593  11.796   1.317   2.759
66921SOL     OW 2594   0.953   4.274   4.051
66921SOL    HW1 2595   1.020   4.342   4.040
66921SOL    HW2 2596   1.003   4.194   4.066
66922SOL     OW 2597   2.199  12.702   4.911
66922SOL    HW1 2598   2.110  12.737   4.912
66922SOL    HW2 2599   2.209  12.664   4.824
66923SOL     OW 2600   5.188   5.660  14.868
66923SOL    HW1 2601   5.240   5.740  14.862
66923SOL    HW2 2602   5.100   5.691   0.019
66924SOL     OW 2603   0.383   6.867   1.455
66924SOL    HW1 2604   0.373   6.934   1.388
66924SOL    HW2 2605   0.310   6.882   1.515
66925SOL     OW 2606   5.253  11.588  13.271
66925SOL    HW1 2607   5.293  11.581  13.358
66925SOL    HW2 2608   5.311  11.536  13.215
66926SOL     OW 2609   8.976   0.070   7.839
66926SOL    HW1 2610   8.920   0.073   7.917
66926SOL    HW2 2611   9.053   0.122   7.862
66927SOL     OW 2612  12.954   4.204  13.902
66927SOL    HW1 2613  13.039   4.247  13.908
66927SOL    HW2 2614  12.901   4.248  13.968
66928SOL     OW 2615   2.265   3.793   1.275
66928SOL    HW1 2616   2.199   3.791   1.205
66928SOL    HW2 2617   2.281   3.886   1.290
66929SOL     OW 2618   1.263  14.398   7.609
66929SOL    HW1 2619   1.317  14.363   7.538
66929SOL    HW2 2620   1.218  14.321   7.644
66930SOL     OW 2621  12.840  14.753   1.239
66930SOL    HW1 2622  12.789  14.733   1.318
66930SOL    HW2 2623  12.872  14.667   1.210
66931SOL     OW 2624   6.251   5.181  13.893
66931SOL    HW1 2625   6.326   5.239  13.878
66931SOL    HW2 2626   6.286   5.093  13.880
66932SOL     OW 2627  11.226   7.048  12.236
66932SOL    HW1 2628  11.263   7.003  12.160
66932SOL    HW2 2629  11.165   6.985  12.274
66933SOL     OW 2630   4.841   5.275   1.865
66933SOL    HW1 2631   4.910   5.297   1.803
66933SOL    HW2 2632   4.833   5.179   1.859
66934SOL     OW 2633   9.079   9.076   1.784
66934SOL    HW1 2634   9.124   9.071   1.868
66934SOL    HW2 2635   9.035   9.161   1.785
66935SOL     OW 2636   3.694   3.730   4.076
66935SOL    HW1 2637   3.688   3.772   4.162
66935SOL    HW2 2638   3.694   3.636   4.095
66936SOL     OW 2639   7.442   3.539   7.969
66936SOL    HW1 2640   7.471   3.504   8.053
66936SOL    HW2 2641   7.393   3.467   7.930
66937SOL     OW 2642  11.392   1.742   5.015
66937SOL    HW1 2643  11.483   1.748   5.046
66937SOL    HW2 2644  11.358   1.831   5.024
66938SOL     OW 2645   0.188   4.855   0.092
66938SOL    HW1 2646   0.249   4.800   0.141
66938SOL    HW2 2647   0.241   4.894   0.022
66939SOL     OW 2648   5.978  13.024  12.839
66939SOL    HW1 2649   6.074  13.020  12.842
66939SOL    HW2 2650   5.956  13.104  12.887
66940SOL     OW 2651   3.367  10.263  11.418
66940SOL    HW1 2652   3.336  10.185  11.463
66940SOL    HW2 2653   3.392  10.323  11.488
66941SOL     OW 2654  10.484   3.326   6.619
66941SOL    HW1 2655  10.569   3.361   6.643
66941SOL    HW2 2656  10.439   3.399   6.576
66942SOL     OW 2657   4.774  13.794   3.598
66942SOL    HW1 2658   4.686  13.784   3.635
66942SOL    HW2 2659   4.759  13.799   3.503
66943SOL     OW 2660  10.166   5.688   3.920
66943SOL    HW1 2661  10.247   5.647   3.891
66943SOL    HW2 2662  10.098   5.622   3.901
66944SOL     OW 2663   3.669  10.449  13.927
66944SOL    HW1 2664   3.657  10.539  13.959
66944SOL    HW2 2665   3.583  10.409  13.938
66945SOL     OW 2666   9.921   5.582  12.225
66945SOL    HW1 2667   9.982   5.534  12.170
66945SOL    HW2 2668   9.867   5.632  12.163
66946SOL     OW 2669  14.581  11.370  11.775
66946SOL    HW1 2670  14.531  11.297  11.738
66946SOL    HW2 2671  14.604  11.341  11.863
66947SOL     OW 2672  11.159   6.869   6.290
66947SOL    HW1 2673  11.237   6.921   6.270
66947SOL    HW2 2674  11.185   6.779   6.272
66948SOL     OW 2675  12.518  12.414   3.129
66948SOL    HW1 2676  12.496  12.505   3.151
66948SOL    HW2 2677  12.607  12.418   3.094
66949SOL     OW 2678   3.574  14.230   1.327
66949SOL    HW1 2679   3.617  14.266   1.249
66949SOL    HW2 2680   3.505  14.294   1.347
66950SOL     OW 2681   2.838   9.578  11.318
66950SOL    HW1 2682   2.820   9.516  11.248
66950SOL    HW2 2683   2.888   9.527  11.382
66951SOL     OW 2684   3.557   1.546   5.276
66951SOL    HW1 2685   3.634   1.512   5.230
66951SOL    HW2 2686   3.567   1.641   5.270
66952SOL     OW 2687  11.863   0.285   7.931
66952SOL    HW1 2688  11.822   0.277   7.845
66952SOL    HW2 2689  11.804   0.342   7.981
66953SOL     OW 2690   5.372  13.722   4.230
66953SOL    HW1 2691   5.282  13.724   4.197
66953SOL    HW2 2692   5.390  13.811   4.259
66954SOL     OW 2693  10.199   1.496   1.504
66954SOL    HW1 2694  10.203   1.520   1.597
66954SOL    HW2 2695  10.275   1.541   1.465
66955SOL     OW 2696   7.456   7.503   4.561
66955SOL    HW1 2697   7.497   7.504   4.474
66955SOL    HW2 2698   7.440   7.410   4.579
66956SOL     OW 2699  14.585  14.064  10.620
66956SOL    HW1 2700  14.519  14.083  10.554
66956SOL    HW2 2701  14.665  14.104  10.586
66957SOL     OW 2702   8.562  11.680  14.597
66957SOL    HW1 2703   8.483  11.628  14.584
66957SOL    HW2 2704   8.597  11.693  14.509
66958SOL     OW 2705   4.047   4.309   9.403
66958SOL    HW1 2706   4.116   4.358   9.358
66958SOL    HW2 2707   4.084   4.221   9.414
66959SOL     OW 2708   6.852   2.922   9.177
66959SOL    HW1 2709   6.941   2.930   9.144
66959SOL    HW2 2710   6.857   2.950   9.268
66960SOL     OW 2711   2.712  12.937  11.633
66960SOL    HW1 2712   2.669  12.981  11.706
66960SOL    HW2 2713   2.805  12.942  11.654
66961SOL     OW 2714   0.470  14.357   6.452
66961SOL    HW1 2715   0.513  14.281   6.492
66961SOL    HW2 2716   0.458  14.332   6.361
66962SOL     OW 2717  12.581   1.200  11.535
66962SOL    HW1 2718  12.527   1.193  11.613
66962SOL    HW2 2719  12.523   1.177  11.463
66963SOL     OW 2720  13.846   1.604  12.044
66963SOL    HW1 2721  13.881   1.627  11.958
66963SOL    HW2 2722  13.775   1.542  12.025
66964SOL     OW 2723   8.610   5.348   3.816
66964SOL    HW1 2724   8.681   5.326   3.877
66964SOL    HW2 2725   8.644   5.422   3.765
66965SOL     OW 2726   4.651  13.782   7.727
66965SOL    HW1 2727   4.564  13.797   7.764
66965SOL    HW2 2728   4.711  13.823   7.789
66966SOL     OW 2729   7.058  14.816  11.981
66966SOL    HW1 2730   7.138  14.824  12.033
66966SOL    HW2 2731   7.084  14.761  11.907
66967SOL     OW 2732  13.951  11.346  13.400
66967SOL    HW1 2733  13.992  11.260  13.387
66967SOL    HW2 2734  13.878  11.329  13.459
66968SOL     OW 2735  13.607   1.268   8.399
66968SOL    HW1 2736  13.638   1.209   8.468
66968SOL    HW2 2737  13.551   1.213   8.344
66969SOL     OW 2738  10.557   3.624  10.636
66969SOL    HW1 2739  10.564   3.694  10.701
66969SOL    HW2 2740  10.569   3.667  10.552
66970SOL     OW 2741  11.096  14.805   8.899
66970SOL    HW1 2742  11.155   0.007   8.896
66970SOL    HW2 2743  11.037  14.824   8.973
66971SOL     OW 2744   0.123   8.555   5.894
66971SOL    HW1 2745   0.037   8.552   5.852
66971SOL    HW2 2746   0.104   8.555   5.988
66972SOL     OW 2747  11.231   2.328   2.136
66972SOL    HW1 2748  11.253   2.255   2.077
66972SOL    HW2 2749  11.315   2.372   2.150
66973SOL     OW 2750   3.963   2.637   3.650
66973SOL    HW1 2751   4.055   2.617   3.667
66973SOL    HW2 2752   3.914   2.573   3.703
66974SOL     OW 2753   3.668   0.449   8.968
66974SOL    HW1 2754   3.681   0.454   8.873
66974SOL    HW2 2755   3.636   0.360   8.983
66975SOL     OW 2756   9.908   3.973   4.033
66975SOL    HW1 2757   9.854   4.051   4.025
66975SOL    HW2 2758   9.976   3.984   3.967
66976SOL     OW 2759   0.477   4.613  11.015
66976SOL    HW1 2760   0.403   4.673  11.024
66976SOL    HW2 2761   0.437   4.526  11.015
66977SOL     OW 2762   8.057  14.745  12.789
66977SOL    HW1 2763   7.989  14.726  12.854
66977SOL    HW2 2764   8.060  14.667  12.734
66978SOL     OW 2765  12.329   1.025   1.512
66978SOL    HW1 2766  12.330   0.995   1.603
66978SOL    HW2 2767  12.414   1.066   1.498
66979SOL     OW 2768   5.316  10.005   9.804
66979SOL    HW1 2769   5.255  10.076   9.823
66979SOL    HW2 2770   5.328  10.008   9.709
66980SOL     OW 2771   6.712   1.460   1.434
66980SOL    HW1 2772   6.807   1.469   1.426
66980SOL    HW2 2773   6.679   1.474   1.346
66981SOL     OW 2774   1.157   9.979   6.126
66981SOL    HW1 2775   1.222   9.988   6.056
66981SOL    HW2 2776   1.073   9.977   6.081
66982SOL     OW 2777   4.152   7.814  10.596
66982SOL    HW1 2778   4.131   7.750  10.528
66982SOL    HW2 2779   4.246   7.827  10.588
66983SOL     OW 2780   8.981   2.365   5.895
66983SOL    HW1 2781   9.073   2.370   5.868
66983SOL    HW2 2782   8.934   2.347   5.814
66984SOL     OW 2783   5.512   5.651   6.141
66984SOL    HW1 2784   5.569   5.573   6.137
66984SOL    HW2 2785   5.510   5.673   6.234
66985SOL     OW 2786  14.472   2.131   5.403
66985SOL    HW1 2787  14.418   2.197   5.447
66985SOL    HW2 2788  14.478   2.161   5.313
66986SOL     OW 2789   4.331   0.713  10.546
66986SOL    HW1 2790   4.240   0.709  10.517
66986SOL    HW2 2791   4.346   0.806  10.566
66987SOL     OW 2792   1.557   8.591   8.606
66987SOL    HW1 2793   1.576   8.650   8.532
66987SOL    HW2 2794   1.614   8.622   8.676
66988SOL     OW 2795  13.066   7.390   9.284
66988SOL    HW1 2796  13.131   7.452   9.252
66988SOL    HW2 2797  13.114   7.333   9.344
66989SOL     OW 2798   5.746   0.808  10.378
66989SOL    HW1 2799   5.830   0.787  10.419
66989SOL    HW2 2800   5.756   0.897  10.345
66990SOL     OW 2801  14.553  14.418  11.495
66990SOL    HW1 2802  14.507  14.445  11.574
66990SOL    HW2 2803  14.606  14.494  11.472
66991SOL     OW 2804  10.799   0.337   9.320
66991SOL    HW1 2805  10.842   0.404   9.268
66991SOL    HW2 2806  10.806   0.257   9.267
66992SOL     OW 2807  10.293   3.138   4.719
66992SOL    HW1 2808  10.319   3.143   4.627
66992SOL    HW2 2809  10.212   3.189   4.724
66993SOL     OW 2810   0.741   0.809   8.948
66993SOL    HW1 2811   0.735   0.774   9.037
66993SOL    HW2 2812   0.799   0.748   8.902
66994SOL     OW 2813   0.324   8.355  11.151
66994SOL    HW1 2814   0.300   8.268  11.184
66994SOL    HW2 2815   0.294   8.415  11.219
66995SOL     OW 2816  13.569  11.915  13.839
66995SOL    HW1 2817  13.500  11.979  13.855
66995SOL    HW2 2818  13.561  11.852  13.911
66996SOL     OW 2819  13.101  13.796  13.730
66996SOL    HW1 2820  13.152  13.770  13.806
66996SOL    HW2 2821  13.166  13.828  13.667
66997SOL     OW 2822   2.919  10.779   0.697
66997SOL    HW1 2823   2.952  10.772   0.607
66997SOL    HW2 2824   2.841  10.723   0.699
66998SOL     OW 2825   5.581   7.606   7.811
66998SOL    HW1 2826   5.611   7.696   7.803
66998SOL    HW2 2827   5.511   7.609   7.876
66999SOL     OW 2828   5.530  12.055   0.672
66999SOL    HW1 2829   5.589  12.122   0.709
66999SOL    HW2 2830   5.559  12.045   0.581
67000SOL     OW 2831   6.459   2.763   5.275
67000SOL    HW1 2832   6.455   2.730   5.365
67000SOL    HW2 2833   6.542   2.730   5.241
67001SOL     OW 2834  10.441  13.429   2.699
67001SOL    HW1 2835  10.416  13.357   2.642
67001SOL    HW2 2836  10.358  13.473   2.719
67002SOL     OW 2837   3.540  11.977   9.566
67002SOL    HW1 2838   3.573  11.922   9.495
67002SOL    HW2 2839   3.484  11.920   9.617
67003SOL     OW 2840  11.608  10.364  11.107
67003SOL    HW1 2841  11.696  10.367  11.070
67003SOL    HW2 2842  11.621  10.338  11.198
67004SOL     OW 2843  13.273   0.306  14.334
67004SOL    HW1 2844  13.349   0.326  14.389
67004SOL    HW2 2845  13.206   0.368  14.363
67005SOL     OW 2846  11.512  11.473   0.357
67005SOL    HW1 2847  11.525  11.417   0.434
67005SOL    HW2 2848  11.509  11.411   0.283
67006SOL     OW 2849   4.972   4.008   9.562
67006SOL    HW1 2850   4.978   4.048   9.476
67006SOL    HW2 2851   4.883   4.027   9.592
67007SOL     OW 2852   0.241  12.306   8.976
67007SOL    HW1 2853   0.336  12.290   8.983
67007SOL    HW2 2854   0.201  12.236   9.029
67008SOL     OW 2855   7.873  10.505   9.131
67008SOL    HW1 2856   7.904  10.501   9.040
67008SOL    HW2 2857   7.883  10.415   9.164
67009SOL     OW 2858  10.958   3.282  12.316
67009SOL    HW1 2859  11.007   3.254  12.393
67009SOL    HW2 2860  11.006   3.245  12.242
67010SOL     OW 2861  14.100  11.723   2.863
67010SOL    HW1 2862  14.090  11.672   2.943
67010SOL    HW2 2863  14.076  11.662   2.793
67011SOL     OW 2864   6.000  14.228  13.702
67011SOL    HW1 2865   5.944  14.201  13.775
67011SOL    HW2 2866   6.063  14.156  13.693
67012SOL     OW 2867   0.010  10.437  13.516
67012SOL    HW1 2868   0.002  10.351  13.475
67012SOL    HW2 2869   0.000  10.499  13.443
67013SOL     OW 2870   0.298   2.248   0.418
67013SOL    HW1 2871   0.371   2.201   0.459
67013SOL    HW2 2872   0.285   2.203   0.334
67014SOL     OW 2873  11.379   4.515   8.384
67014SOL    HW1 2874  11.296   4.482   8.350
67014SOL    HW2 2875  11.405   4.584   8.324
67015SOL     OW 2876   2.455  10.018   2.793
67015SOL    HW1 2877   2.394  10.005   2.720
67015SOL    HW2 2878   2.424  10.098   2.836
67016SOL     OW 2879  11.948   2.535   0.732
67016SOL    HW1 2880  12.010   2.602   0.701
67016SOL    HW2 2881  11.863   2.564   0.699
67017SOL     OW 2882   7.978   3.569   1.519
67017SOL    HW1 2883   8.045   3.539   1.581
67017SOL    HW2 2884   7.992   3.664   1.514
67018SOL     OW 2885  14.300   7.417   0.096
67018SOL    HW1 2886  14.277   7.346   0.156
67018SOL    HW2 2887  14.390   7.397   0.069
67019SOL     OW 2888   2.728  13.052  14.759
67019SOL    HW1 2889   2.797  13.075  14.821
67019SOL    HW2 2890   2.726  12.956  14.760
67020SOL     OW 2891   8.348   8.491  14.282
67020SOL    HW1 2892   8.339   8.542  14.202
67020SOL    HW2 2893   8.398   8.548  14.341
67021SOL     OW 2894   6.013  10.050   0.806
67021SOL    HW1 2895   6.084  10.114   0.818
67021SOL    HW2 2896   5.934  10.098   0.832
67022SOL     OW 2897  13.002  14.743  11.821
67022SOL    HW1 2898  13.017  14.818  11.763
67022SOL    HW2 2899  13.010  14.779  11.909
67023SOL     OW 2900  11.225   8.998   9.947
67023SOL    HW1 2901  11.279   8.927   9.983
67023SOL    HW2 2902  11.187   9.040  10.023
67024SOL     OW 2903   2.837   4.704   6.538
67024SOL    HW1 2904   2.850   4.699   6.632
67024SOL    HW2 2905   2.795   4.621   6.515
67025SOL     OW 2906  11.844   1.477   3.470
67025SOL    HW1 2907  11.836   1.486   3.565
67025SOL    HW2 2908  11.908   1.543   3.445
67026SOL     OW 2909   4.190   2.966   6.291
67026SOL    HW1 2910   4.165   2.934   6.377
67026SOL    HW2 2911   4.136   3.044   6.278
67027SOL     OW 2912   6.789   1.789   7.804
67027SOL    HW1 2913   6.737   1.761   7.728
67027SOL    HW2 2914   6.760   1.731   7.874
67028SOL     OW 2915   1.916   0.332  11.057
67028SOL    HW1 2916   1.918   0.241  11.029
67028SOL    HW2 2917   2.002   0.367  11.031
67029SOL     OW 2918   4.053   2.301   9.844
67029SOL    HW1 2919   4.145   2.283   9.860
67029SOL    HW2 2920   4.023   2.344   9.925
67030SOL     OW 2921  13.958   3.435   4.501
67030SOL    HW1 2922  13.945   3.518   4.456
67030SOL    HW2 2923  13.870   3.397   4.506
67031SOL     OW 2924   5.142   1.654   6.057
67031SOL    HW1 2925   5.082   1.600   6.005
67031SOL    HW2 2926   5.187   1.591   6.113
67032SOL     OW 2927   0.322   7.035  13.975
67032SOL    HW1 2928   0.255   6.968  13.962
67032SOL    HW2 2929   0.313   7.060  14.067
67033SOL     OW 2930   0.897   4.344   6.079
67033SOL    HW1 2931   0.968   4.281   6.092
67033SOL    HW2 2932   0.825   4.293   6.042
67034SOL     OW 2933   5.840   3.372   4.775
67034SOL    HW1 2934   5.849   3.334   4.863
67034SOL    HW2 2935   5.746   3.387   4.765
67035SOL     OW 2936  12.560  13.754   2.493
67035SOL    HW1 2937  12.493  13.734   2.428
67035SOL    HW2 2938  12.642  13.755   2.444
67036SOL     OW 2939   7.490   3.027   0.011
67036SOL    HW1 2940   7.458   2.944  14.847
67036SOL    HW2 2941   7.411   3.082   0.015
67037SOL     OW 2942   0.617  12.121   7.596
67037SOL    HW1 2943   0.551  12.137   7.528
67037SOL    HW2 2944   0.698  12.155   7.559
67038SOL     OW 2945   9.554   9.530   9.880
67038SOL    HW1 2946   9.616   9.589   9.922
67038SOL    HW2 2947   9.506   9.584   9.818
67039SOL     OW 2948   6.969   9.263   8.182
67039SOL    HW1 2949   6.941   9.210   8.108
67039SOL    HW2 2950   6.908   9.240   8.253
67040SOL     OW 2951   2.696   3.285   8.301
67040SOL    HW1 2952   2.678   3.241   8.384
67040SOL    HW2 2953   2.610   3.300   8.262
67041SOL     OW 2954   8.755   3.234   7.509
67041SOL    HW1 2955   8.690   3.182   7.556
67041SOL    HW2 2956   8.705   3.281   7.443
67042SOL     OW 2957  12.744  13.085   8.323
67042SOL    HW1 2958  12.663  13.067   8.371
67042SOL    HW2 2959  12.718  13.081   8.231
67043SOL     OW 2960   7.484  12.407  13.161
67043SOL    HW1 2961   7.571  12.368  13.154
67043SOL    HW2 2962   7.425  12.341  13.125
67044SOL     OW 2963  12.810  14.136   8.268
67044SOL    HW1 2964  12.903  14.160   8.259
67044SOL    HW2 2965  12.794  14.074   8.197
67045SOL     OW 2966  10.257   0.153  13.119
67045SOL    HW1 2967  10.310   0.164  13.198
67045SOL    HW2 2968  10.281   0.228  13.064
67046SOL     OW 2969   2.651   9.976   4.289
67046SOL    HW1 2970   2.667   9.897   4.238
67046SOL    HW2 2971   2.702   9.965   4.369
67047SOL     OW 2972  13.122   5.672   8.995
67047SOL    HW1 2973  13.142   5.663   9.089
67047SOL    HW2 2974  13.066   5.750   8.991
67048SOL     OW 2975   3.709   8.247  14.687
67048SOL    HW1 2976   3.621   8.284  14.689
67048SOL    HW2 2977   3.736   8.253  14.595
67049SOL     OW 2978  13.023  13.401  12.264
67049SOL    HW1 2979  13.114  13.373  12.275
67049SOL    HW2 2980  12.982  13.331  12.213
67050SOL     OW 2981  11.723   8.080   4.319
67050SOL    HW1 2982  11.678   8.158   4.350
67050SOL    HW2 2983  11.815   8.107   4.311
67051SOL     OW 2984   9.741  10.251   6.118
67051SOL    HW1 2985   9.653  10.233   6.152
67051SOL    HW2 2986   9.772  10.167   6.083
67052SOL     OW 2987   0.517   0.305   3.395
67052SOL    HW1 2988   0.569   0.238   3.351
67052SOL    HW2 2989   0.559   0.317   3.480
67053SOL     OW 2990   0.359   4.378   2.404
67053SOL    HW1 2991   0.441   4.424   2.422
67053SOL    HW2 2992   0.386   4.290   2.378
67054SOL     OW 2993   7.861   5.960   4.891
67054SOL    HW1 2994   7.811   5.883   4.919
67054SOL    HW2 2995   7.828   6.031   4.946
67055SOL     OW 2996  14.083   7.456   8.328
67055SOL    HW1 2997  14.093   7.423   8.239
67055SOL    HW2 2998  14.005   7.411   8.362
67056SOL     OW 2999  13.462   0.878   6.382
67056SOL    HW1 3000  13.519   0.920   6.446
67056SOL    HW2 3001  13.413   0.950   6.342
67057SOL     OW 3002   2.607   2.347  14.003
67057SOL    HW1 3003   2.582   2.438  13.987
67057SOL    HW2 3004   2.540   2.295  13.959
67058SOL     OW 3005  14.318   6.479   1.771
67058SOL    HW1 3006  14.322   6.527   1.854
67058SOL    HW2 3007  14.225   6.473   1.751
67059SOL     OW 3008  12.037  10.696  14.474
67059SOL    HW1 3009  12.051  10.749  14.553
67059SOL    HW2 3010  12.117  10.645  14.465
67060SOL     OW 3011   9.803   6.091   3.582
67060SOL    HW1 3012   9.886   6.077   3.536
67060SOL    HW2 3013   9.739   6.039   3.531
67061SOL     OW 3014   3.112   0.712   8.247
67061SOL    HW1 3015   3.154   0.712   8.333
67061SOL    HW2 3016   3.181   0.685   8.186
67062SOL     OW 3017  10.227  11.826  13.205
67062SOL    HW1 3018  10.253  11.737  13.180
67062SOL    HW2 3019  10.236  11.827  13.301
67063SOL     OW 3020   4.128   3.227  12.758
67063SOL    HW1 3021   4.148   3.320  12.774
67063SOL    HW2 3022   4.213   3.186  12.743
67064SOL     OW 3023   3.698   4.005  13.978
67064SOL    HW1 3024   3.640   4.051  14.039
67064SOL    HW2 3025   3.685   4.049  13.894
67065SOL     OW 3026  14.354   2.579   1.974
67065SOL    HW1 3027  14.341   2.555   2.066
67065SOL    HW2 3028  14.423   2.645   1.976
67066SOL     OW 3029   7.239   2.438  10.190
67066SOL    HW1 3030   7.305   2.372  10.211
67066SOL    HW2 3031   7.210   2.415  10.102
67067SOL     OW 3032   0.466   6.600   1.469
67067SOL    HW1 3033   0.439   6.691   1.456
67067SOL    HW2 3034   0.383   6.552   1.476
67068SOL     OW 3035  13.804   6.726   5.967
67068SOL    HW1 3036  13.741   6.784   6.009
67068SOL    HW2 3037  13.810   6.758   5.877
67069SOL     OW 3038  13.356   8.998   8.889
67069SOL    HW1 3039  13.270   9.026   8.859
67069SOL    HW2 3040  13.339   8.956   8.974
67070SOL     OW 3041   9.137   4.705   0.829
67070SOL    HW1 3042   9.089   4.779   0.865
67070SOL    HW2 3043   9.199   4.681   0.897
67071SOL     OW 3044   9.288   7.667   0.464
67071SOL    HW1 3045   9.226   7.738   0.449
67071SOL    HW2 3046   9.320   7.644   0.376
67072SOL     OW 3047  10.043   4.160  10.734
67072SOL    HW1 3048  10.067   4.186  10.645
67072SOL    HW2 3049   9.978   4.091  10.722
67073SOL     OW 3050   9.523   3.519  14.408
67073SOL    HW1 3051   9.465   3.482  14.474
67073SOL    HW2 3052   9.585   3.449  14.388
67074SOL     OW 3053  12.101   3.494   2.486
67074SOL    HW1 3054  12.014   3.497   2.525
67074SOL    HW2 3055  12.156   3.454   2.553
67075SOL     OW 3056   3.352   3.406   3.641
67075SOL    HW1 3057   3.346   3.482   3.699
67075SOL    HW2 3058   3.439   3.369   3.657
67076SOL     OW 3059   2.572   8.541  12.752
67076SOL    HW1 3060   2.490   8.586  12.729
67076SOL    HW2 3061   2.622   8.538  12.671
67077SOL     OW 3062   7.860   8.939   1.272
67077SOL    HW1 3063   7.955   8.942   1.260
67077SOL    HW2 3064   7.827   9.010   1.217
67078SOL     OW 3065   6.280   5.724   6.508
67078SOL    HW1 3066   6.242   5.812   6.505
67078SOL    HW2 3067   6.322   5.719   6.594
67079SOL     OW 3068  12.734   4.279   0.985
67079SOL    HW1 3069  12.652   4.306   0.943
67079SOL    HW2 3070  12.740   4.333   1.063
67080SOL     OW 3071   4.633  13.771  10.641
67080SOL    HW1 3072   4.581  13.850  10.659
67080SOL    HW2 3073   4.690  13.796  10.569
67081SOL     OW 3074  13.760  12.021   7.181
67081SOL    HW1 3075  13.803  11.983   7.258
67081SOL    HW2 3076  13.775  12.116   7.191
67082SOL     OW 3077   7.654   7.252   5.873
67082SOL    HW1 3078   7.571   7.225   5.912
67082SOL    HW2 3079   7.705   7.287   5.947
67083SOL     OW 3080   1.328   7.818   0.263
67083SOL    HW1 3081   1.369   7.776   0.187
67083SOL    HW2 3082   1.292   7.900   0.228
67084SOL     OW 3083  14.159   0.133   9.139
67084SOL    HW1 3084  14.069   0.109   9.118
67084SOL    HW2 3085  14.191   0.062   9.195
67085SOL     OW 3086   7.766  11.261   2.326
67085SOL    HW1 3087   7.843  11.214   2.295
67085SOL    HW2 3088   7.784  11.353   2.306
67086SOL     OW 3089   3.340   2.608   3.498
67086SOL    HW1 3090   3.407   2.635   3.435
67086SOL    HW2 3091   3.355   2.513   3.509
67087SOL     OW 3092   7.301   5.012   0.501
67087SOL    HW1 3093   7.370   4.946   0.510
67087SOL    HW2 3094   7.288   5.045   0.590
67088SOL     OW 3095   6.853  13.234   7.488
67088SOL    HW1 3096   6.883  13.323   7.471
67088SOL    HW2 3097   6.929  13.179   7.467
67089SOL     OW 3098   3.380   1.900   1.495
67089SOL    HW1 3099   3.393   1.957   1.571
67089SOL    HW2 3100   3.409   1.953   1.421
67090SOL     OW 3101   2.017   0.383   7.435
67090SOL    HW1 3102   1.942   0.442   7.436
67090SOL    HW2 3103   2.052   0.389   7.346
67091SOL     OW 3104   4.783   4.442   4.793
67091SOL    HW1 3105   4.835   4.363   4.776
67091SOL    HW2 3106   4.831   4.487   4.863
67092SOL     OW 3107   8.757  12.250   3.440
67092SOL    HW1 3108   8.837  12.204   3.467
67092SOL    HW2 3109   8.787  12.310   3.372
67093SOL     OW 3110   2.955   9.481   3.379
67093SOL    HW1 3111   2.869   9.509   3.349
67093SOL    HW2 3112   3.017   9.522   3.319
67094SOL     OW 3113   6.689  12.780   5.216
67094SOL    HW1 3114   6.646  12.842   5.158
67094SOL    HW2 3115   6.783  12.794   5.200
67095SOL     OW 3116   4.020   5.815   5.086
67095SOL    HW1 3117   4.069   5.893   5.111
67095SOL    HW2 3118   4.042   5.802   4.994
67096SOL     OW 3119   8.165   0.086  13.596
67096SOL    HW1 3120   8.231   0.084  13.666
67096SOL    HW2 3121   8.173   0.001  13.553
67097SOL     OW 3122  14.649   5.759   7.435
67097SOL    HW1 3123  14.637   5.830   7.371
67097SOL    HW2 3124  14.642   5.803   7.520
67098SOL     OW 3125   5.030   9.487   0.131
67098SOL    HW1 3126   4.946   9.447   0.108
67098SOL    HW2 3127   5.055   9.446   0.213
67099SOL     OW 3128  11.336   6.451   8.164
67099SOL    HW1 3129  11.340   6.367   8.210
67099SOL    HW2 3130  11.250   6.452   8.123
67100SOL     OW 3131   9.521   3.350   7.274
67100SOL    HW1 3132   9.601   3.402   7.284
67100SOL    HW2 3133   9.536   3.299   7.194
67101SOL     OW 3134  13.579  10.883  14.033
67101SOL    HW1 3135  13.582  10.978  14.050
67101SOL    HW2 3136  13.604  10.875  13.941
67102SOL     OW 3137   8.157   1.088   4.823
67102SOL    HW1 3138   8.252   1.085   4.819
67102SOL    HW2 3139   8.134   1.037   4.900
67103SOL     OW 3140  11.128   5.700   3.827
67103SOL    HW1 3141  11.186   5.758   3.877
67103SOL    HW2 3142  11.149   5.719   3.736
67104SOL     OW 3143   3.178   9.812   2.096
67104SOL    HW1 3144   3.123   9.880   2.134
67104SOL    HW2 3145   3.161   9.817   2.002
67105SOL     OW 3146  11.407   2.774  14.819
67105SOL    HW1 3147  11.414   2.784  14.724
67105SOL    HW2 3148  11.396   2.863  14.852
67106SOL     OW 3149   7.311   7.344   5.304
67106SOL    HW1 3150   7.358   7.315   5.382
67106SOL    HW2 3151   7.218   7.335   5.328
67107SOL     OW 3152   1.432   7.195   4.513
67107SOL    HW1 3153   1.512   7.154   4.481
67107SOL    HW2 3154   1.442   7.197   4.608
67108SOL     OW 3155   3.813   6.964   0.638
67108SOL    HW1 3156   3.785   6.949   0.548
67108SOL    HW2 3157   3.820   7.059   0.646
67109SOL     OW 3158   5.852  12.406   0.285
67109SOL    HW1 3159   5.788  12.405   0.356
67109SOL    HW2 3160   5.824  12.478   0.228
67110SOL     OW 3161  13.301   1.523   2.978
67110SOL    HW1 3162  13.217   1.478   2.969
67110SOL    HW2 3163  13.321   1.517   3.072
67111SOL     OW 3164  12.746   9.207  13.062
67111SOL    HW1 3165  12.831   9.209  13.019
67111SOL    HW2 3166  12.704   9.127  13.030
67112SOL     OW 3167   3.696   1.434  10.397
67112SOL    HW1 3168   3.650   1.419  10.314
67112SOL    HW2 3169   3.630   1.416  10.464
67113SOL     OW 3170  12.436   7.222   7.238
67113SOL    HW1 3171  12.481   7.195   7.318
67113SOL    HW2 3172  12.343   7.211   7.258
67114SOL     OW 3173  10.735   4.248   2.602
67114SOL    HW1 3174  10.745   4.320   2.540
67114SOL    HW2 3175  10.795   4.181   2.570
67115SOL     OW 3176  12.112  11.003  13.306
67115SOL    HW1 3177  12.067  11.086  13.324
67115SOL    HW2 3178  12.125  10.964  13.393
67116SOL     OW 3179   3.279   3.869   8.376
67116SOL    HW1 3180   3.308   3.901   8.291
67116SOL    HW2 3181   3.302   3.939   8.438
67117SOL     OW 3182   4.825  12.082  14.241
67117SOL    HW1 3183   4.732  12.072  14.260
67117SOL    HW2 3184   4.846  12.171  14.268
67118SOL     OW 3185  11.612   0.712  12.047
67118SOL    HW1 3186  11.528   0.715  12.002
67118SOL    HW2 3187  11.627   0.619  12.063
67119SOL     OW 3188   5.707  11.639  11.121
67119SOL    HW1 3189   5.779  11.584  11.152
67119SOL    HW2 3190   5.661  11.584  11.057
67120SOL     OW 3191  10.671  14.446   5.968
67120SOL    HW1 3192  10.593  14.501   5.969
67120SOL    HW2 3193  10.689  14.431   5.875
67121SOL     OW 3194   0.073   2.764  12.603
67121SOL    HW1 3195   0.113   2.838  12.557
67121SOL    HW2 3196  14.852   2.773  12.586
67122SOL     OW 3197   5.590  13.532  11.059
67122SOL    HW1 3198   5.500  13.546  11.088
67122SOL    HW2 3199   5.639  13.514  11.140
67123SOL     OW 3200  11.476  13.118   2.507
67123SOL    HW1 3201  11.402  13.175   2.531
67123SOL    HW2 3202  11.459  13.094   2.416
67124SOL     OW 3203  13.474   1.883   7.156
67124SOL    HW1 3204  13.521   1.884   7.239
67124SOL    HW2 3205  13.444   1.973   7.144
67125SOL     OW 3206  10.727   0.926  12.465
67125SOL    HW1 3207  10.704   0.964  12.381
67125SOL    HW2 3208  10.821   0.940  12.473
67126SOL     OW 3209   4.328   9.434   0.908
67126SOL    HW1 3210   4.367   9.421   0.995
67126SOL    HW2 3211   4.403   9.457   0.852
67127SOL     OW 3212   9.139   3.738   2.089
67127SOL    HW1 3213   9.096   3.655   2.109
67127SOL    HW2 3214   9.087   3.776   2.018
67128SOL     OW 3215   3.461  13.536   2.436
67128SOL    HW1 3216   3.539  13.542   2.381
67128SOL    HW2 3217   3.434  13.444   2.429
67129SOL     OW 3218   2.298   9.982   9.893
67129SOL    HW1 3219   2.334  10.031   9.967
67129SOL    HW2 3220   2.232  10.041   9.856
67130SOL     OW 3221   0.291  12.482  12.075
67130SOL    HW1 3222   0.198  12.466  12.095
67130SOL    HW2 3223   0.328  12.510  12.159
67131SOL     OW 3224   9.705   4.435   9.956
67131SOL    HW1 3225   9.782   4.486   9.983
67131SOL    HW2 3226   9.712   4.353  10.003
67132SOL     OW 3227   7.677  12.722   5.350
67132SOL    HW1 3228   7.584  12.700   5.338
67132SOL    HW2 3229   7.710  12.736   5.262
67133SOL     OW 3230   6.621   5.867   2.419
67133SOL    HW1 3231   6.676   5.800   2.460
67133SOL    HW2 3232   6.647   5.949   2.461
67134SOL     OW 3233   7.819   9.789  14.048
67134SOL    HW1 3234   7.816   9.744  13.963
67134SOL    HW2 3235   7.791   9.878  14.029
67135SOL     OW 3236   5.079  14.172   6.329
67135SOL    HW1 3237   5.062  14.228   6.406
67135SOL    HW2 3238   4.992  14.140   6.304
67136SOL     OW 3239   8.957   7.335   3.559
67136SOL    HW1 3240   8.926   7.368   3.475
67136SOL    HW2 3241   8.904   7.257   3.575
67137SOL     OW 3242  11.551   0.462  14.643
67137SOL    HW1 3243  11.583   0.511  14.567
67137SOL    HW2 3244  11.462   0.436  14.619
67138SOL     OW 3245   5.118  10.595   0.204
67138SOL    HW1 3246   5.166  10.583   0.286
67138SOL    HW2 3247   5.148  10.524   0.147
67139SOL     OW 3248   3.413  11.758  13.374
67139SOL    HW1 3249   3.372  11.672  13.381
67139SOL    HW2 3250   3.414  11.777  13.281
67140SOL     OW 3251   6.114   0.220   4.837
67140SOL    HW1 3252   6.020   0.219   4.821
67140SOL    HW2 3253   6.125   0.166   4.915
67141SOL     OW 3254   9.214   1.242   4.330
67141SOL    HW1 3255   9.309   1.237   4.323
67141SOL    HW2 3256   9.198   1.299   4.405
67142SOL     OW 3257   0.325   9.550   5.795
67142SOL    HW1 3258   0.331   9.596   5.712
67142SOL    HW2 3259   0.344   9.459   5.773
67143SOL     OW 3260  12.805   6.371  13.389
67143SOL    HW1 3261  12.718   6.394  13.357
67143SOL    HW2 3262  12.842   6.455  13.419
67144SOL     OW 3263  14.203   3.384  10.358
67144SOL    HW1 3264  14.246   3.456  10.405
67144SOL    HW2 3265  14.259   3.308  10.374
67145SOL     OW 3266   2.002   3.655   5.556
67145SOL    HW1 3267   1.926   3.711   5.568
67145SOL    HW2 3268   1.988   3.612   5.471
67146SOL     OW 3269   0.206   5.927   6.551
67146SOL    HW1 3270   0.250   5.971   6.624
67146SOL    HW2 3271   0.251   5.842   6.543
67147SOL     OW 3272   7.416   9.323  13.530
67147SOL    HW1 3273   7.456   9.396  13.484
67147SOL    HW2 3274   7.383   9.361  13.611
67148SOL     OW 3275   6.232   0.889   0.977
67148SOL    HW1 3276   6.164   0.824   0.992
67148SOL    HW2 3277   6.253   0.922   1.064
67149SOL     OW 3278   8.126   6.742   6.977
67149SOL    HW1 3279   8.192   6.706   6.918
67149SOL    HW2 3280   8.075   6.803   6.923
67150SOL     OW 3281   7.803   9.360  13.472
67150SOL    HW1 3282   7.780   9.268  13.465
67150SOL    HW2 3283   7.890   9.361  13.512
67151SOL     OW 3284  10.526   7.955   5.062
67151SOL    HW1 3285  10.559   8.042   5.042
67151SOL    HW2 3286  10.497   7.920   4.978
67152SOL     OW 3287  13.689   6.285  11.553
67152SOL    HW1 3288  13.659   6.361  11.604
67152SOL    HW2 3289  13.760   6.320  11.499
67153SOL     OW 3290   4.442   3.132   4.530
67153SOL    HW1 3291   4.465   3.059   4.588
67153SOL    HW2 3292   4.525   3.160   4.492
67154SOL     OW 3293  12.363  14.242   6.701
67154SOL    HW1 3294  12.296  14.292   6.654
67154SOL    HW2 3295  12.440  14.299   6.702
67155SOL     OW 3296   8.311   3.626   2.254
67155SOL    HW1 3297   8.231   3.671   2.283
67155SOL    HW2 3298   8.364   3.695   2.214
67156SOL     OW 3299   6.737   8.275   7.889
67156SOL    HW1 3300   6.793   8.339   7.845
67156SOL    HW2 3301   6.731   8.306   7.979
67157SOL     OW 3302  11.842   0.954   7.862
67157SOL    HW1 3303  11.826   0.986   7.951
67157SOL    HW2 3304  11.794   0.871   7.858
67158SOL     OW 3305   3.395   7.718   8.063
67158SOL    HW1 3306   3.414   7.644   8.121
67158SOL    HW2 3307   3.443   7.791   8.102
67159SOL     OW 3308   9.506  14.269  12.675
67159SOL    HW1 3309   9.475  14.186  12.710
67159SOL    HW2 3310   9.469  14.336  12.733
67160SOL     OW 3311  10.092   8.973  13.393
67160SOL    HW1 3312  10.062   8.911  13.460
67160SOL    HW2 3313  10.039   8.952  13.316
67161SOL     OW 3314   5.547   7.152   0.199
67161SOL    HW1 3315   5.598   7.222   0.158
67161SOL    HW2 3316   5.492   7.198   0.264
67162SOL     OW 3317  12.434   6.476  12.331
67162SOL    HW1 3318  12.473   6.503  12.248
67162SOL    HW2 3319  12.488   6.403  12.360
67163SOL     OW 3320   2.379  12.789   3.316
67163SOL    HW1 3321   2.404  12.779   3.408
67163SOL    HW2 3322   2.368  12.883   3.304
67164SOL     OW 3323   8.085  10.296   2.421
67164SOL    HW1 3324   8.116  10.382   2.392
67164SOL    HW2 3325   8.099  10.297   2.516
67165SOL     OW 3326  10.088   2.452   4.022
67165SOL    HW1 3327  10.181   2.454   4.047
67165SOL    HW2 3328  10.044   2.416   4.099
67166SOL     OW 3329   3.559   0.226   0.661
67166SOL    HW1 3330   3.492   0.193   0.601
67166SOL    HW2 3331   3.525   0.205   0.748
67167SOL     OW 3332   4.881  13.822   1.312
67167SOL    HW1 3333   4.877  13.738   1.268
67167SOL    HW2 3334   4.974  13.845   1.314
67168SOL     OW 3335   1.401  14.593   7.755
67168SOL    HW1 3336   1.340  14.534   7.710
67168SOL    HW2 3337   1.450  14.635   7.684
67169SOL     OW 3338   2.679   6.377   2.351
67169SOL    HW1 3339   2.664   6.466   2.382
67169SOL    HW2 3340   2.733   6.387   2.273
67170SOL     OW 3341   9.303  14.752   3.200
67170SOL    HW1 3342   9.299  14.690   3.272
67170SOL    HW2 3343   9.373  14.720   3.144
67171SOL     OW 3344   1.661  12.229  11.493
67171SOL    HW1 3345   1.741  12.183  11.518
67171SOL    HW2 3346   1.593  12.189  11.546
67172SOL     OW 3347  11.332   8.847   4.946
67172SOL    HW1 3348  11.362   8.860   5.035
67172SOL    HW2 3349  11.329   8.752   4.936
67173SOL     OW 3350   1.404  14.352   3.081
67173SOL    HW1 3351   1.350  14.297   3.024
67173SOL    HW2 3352   1.436  14.292   3.148
67174SOL     OW 3353   6.037  10.942  12.608
67174SOL    HW1 3354   6.078  11.017  12.566
67174SOL    HW2 3355   5.971  10.980  12.666
67175SOL     OW 3356  13.793  13.028   1.011
67175SOL    HW1 3357  13.870  13.063   0.967
67175SOL    HW2 3358  13.787  12.937   0.982
67176SOL     OW 3359   5.220   8.310   3.003
67176SOL    HW1 3360   5.176   8.262   3.072
67176SOL    HW2 3361   5.314   8.298   3.021
67177SOL     OW 3362   4.936  11.940   0.699
67177SOL    HW1 3363   4.856  11.934   0.752
67177SOL    HW2 3364   4.976  11.854   0.708
67178SOL     OW 3365   9.977   3.026  14.758
67178SOL    HW1 3366   9.903   3.087  14.760
67178SOL    HW2 3367   9.991   3.008  14.665
67179SOL     OW 3368   9.728   3.740   1.009
67179SOL    HW1 3369   9.794   3.810   1.007
67179SOL    HW2 3370   9.646   3.785   1.030
67180SOL     OW 3371  11.725   8.567   4.406
67180SOL    HW1 3372  11.786   8.640   4.395
67180SOL    HW2 3373  11.738   8.512   4.329
67181SOL     OW 3374   2.246  11.285  12.249
67181SOL    HW1 3375   2.267  11.373  12.218
67181SOL    HW2 3376   2.316  11.264  12.310
67182SOL     OW 3377   8.737   0.211   5.472
67182SOL    HW1 3378   8.793   0.272   5.424
67182SOL    HW2 3379   8.789   0.183   5.547
67183SOL     OW 3380   5.187   1.830  12.999
67183SOL    HW1 3381   5.175   1.907  13.054
67183SOL    HW2 3382   5.261   1.851  12.943
67184SOL     OW 3383   7.530  13.966   2.272
67184SOL    HW1 3384   7.448  13.982   2.319
67184SOL    HW2 3385   7.512  13.993   2.182
67185SOL     OW 3386  12.848   6.466   7.801
67185SOL    HW1 3387  12.823   6.469   7.893
67185SOL    HW2 3388  12.867   6.557   7.778
67186SOL     OW 3389   1.138   7.108   0.797
67186SOL    HW1 3390   1.215   7.056   0.774
67186SOL    HW2 3391   1.157   7.144   0.883
67187SOL     OW 3392  12.300  12.287   7.634
67187SOL    HW1 3393  12.208  12.311   7.645
67187SOL    HW2 3394  12.321  12.238   7.714
67188SOL     OW 3395   6.498   0.593  10.272
67188SOL    HW1 3396   6.540   0.638  10.199
67188SOL    HW2 3397   6.567   0.588  10.339
67189SOL     OW 3398   4.549   3.933  13.625
67189SOL    HW1 3399   4.555   4.027  13.608
67189SOL    HW2 3400   4.530   3.893  13.540
67190SOL     OW 3401   7.964  12.196   8.449
67190SOL    HW1 3402   7.995  12.206   8.539
67190SOL    HW2 3403   7.901  12.267   8.437
67191SOL     OW 3404   6.693   6.756  10.221
67191SOL    HW1 3405   6.616   6.701  10.234
67191SOL    HW2 3406   6.682   6.828  10.283
67192SOL     OW 3407  13.075   9.378   2.941
67192SOL    HW1 3408  13.034   9.339   2.863
67192SOL    HW2 3409  13.010   9.440   2.973
67193SOL     OW 3410   6.431   8.295   3.255
67193SOL    HW1 3411   6.485   8.373   3.242
67193SOL    HW2 3412   6.443   8.244   3.175
67194SOL     OW 3413   7.947   5.251  14.182
67194SOL    HW1 3414   7.938   5.156  14.191
67194SOL    HW2 3415   7.900   5.287  14.257
67195SOL     OW 3416  10.406   2.314   3.879
67195SOL    HW1 3417  10.433   2.280   3.794
67195SOL    HW2 3418  10.472   2.380   3.901
67196SOL     OW 3419   9.015  13.092  14.424
67196SOL    HW1 3420   8.942  13.039  14.454
67196SOL    HW2 3421   9.087  13.030  14.412
67197SOL     OW 3422   6.023   2.006   8.469
67197SOL    HW1 3423   5.937   1.965   8.470
67197SOL    HW2 3424   6.005   2.099   8.450
67198SOL     OW 3425   2.884   9.431  11.818
67198SOL    HW1 3426   2.926   9.514  11.841
67198SOL    HW2 3427   2.796   9.437  11.855
67199SOL     OW 3428   7.172  13.107  10.710
67199SOL    HW1 3429   7.097  13.112  10.651
67199SOL    HW2 3430   7.211  13.194  10.706
67200SOL     OW 3431   6.620   7.150  14.782
67200SOL    HW1 3432   6.625   7.054  14.777
67200SOL    HW2 3433   6.693   7.181  14.728
67201SOL     OW 3434  11.381   6.866   2.177
67201SOL    HW1 3435  11.445   6.811   2.131
67201SOL    HW2 3436  11.367   6.821   2.261
67202SOL     OW 3437   9.726   8.948   9.771
67202SOL    HW1 3438   9.725   8.853   9.760
67202SOL    HW2 3439   9.710   8.983   9.683
67203SOL     OW 3440  10.140   9.216   1.699
67203SOL    HW1 3441  10.206   9.186   1.761
67203SOL    HW2 3442  10.121   9.139   1.645
67204SOL     OW 3443   7.257   3.907   3.398
67204SOL    HW1 3444   7.344   3.915   3.437
67204SOL    HW2 3445   7.224   3.997   3.396
67205SOL     OW 3446   9.533  12.814   6.170
67205SOL    HW1 3447   9.620  12.814   6.210
67205SOL    HW2 3448   9.493  12.896   6.200
67206SOL     OW 3449  10.009   3.758  13.988
67206SOL    HW1 3450  10.105   3.760  13.985
67206SOL    HW2 3451   9.982   3.746  13.897
67207SOL     OW 3452  12.117   4.387   3.159
67207SOL    HW1 3453  12.186   4.322   3.145
67207SOL    HW2 3454  12.066   4.386   3.078
67208SOL     OW 3455   5.305   2.087  13.000
67208SOL    HW1 3456   5.373   2.021  13.015
67208SOL    HW2 3457   5.280   2.116  13.087
67209SOL     OW 3458  11.078   3.954   3.342
67209SOL    HW1 3459  11.030   3.962   3.260
67209SOL    HW2 3460  11.018   3.907   3.400
67210SOL     OW 3461   4.292   4.056   3.187
67210SOL    HW1 3462   4.339   4.139   3.173
67210SOL    HW2 3463   4.344   3.991   3.138
67211SOL     OW 3464  11.176   9.127   5.224
67211SOL    HW1 3465  11.228   9.135   5.304
67211SOL    HW2 3466  11.118   9.203   5.225
67212SOL     OW 3467   9.896  11.278  12.270
67212SOL    HW1 3468   9.873  11.368  12.291
67212SOL    HW2 3469   9.869  11.267  12.178
67213SOL     OW 3470   9.345  11.301  12.345
67213SOL    HW1 3471   9.313  11.266  12.429
67213SOL    HW2 3472   9.440  11.304  12.355
67214SOL     OW 3473   1.828  11.641  10.292
67214SOL    HW1 3474   1.843  11.676  10.379
67214SOL    HW2 3475   1.909  11.657  10.244
67215SOL     OW 3476   2.162  11.820   0.269
67215SOL    HW1 3477   2.118  11.859   0.345
67215SOL    HW2 3478   2.237  11.877   0.254
67216SOL     OW 3479   5.121   5.327  11.927
67216SOL    HW1 3480   5.065   5.261  11.969
67216SOL    HW2 3481   5.205   5.283  11.916
67217SOL     OW 3482   4.184   8.236   0.541
67217SOL    HW1 3483   4.097   8.201   0.560
67217SOL    HW2 3484   4.219   8.179   0.473
67218SOL     OW 3485   2.852  13.944  10.027
67218SOL    HW1 3486   2.840  13.927  10.121
67218SOL    HW2 3487   2.765  13.931   9.990
67219SOL     OW 3488   6.218   5.881   5.073
67219SOL    HW1 3489   6.186   5.828   5.146
67219SOL    HW2 3490   6.254   5.817   5.012
67220SOL     OW 3491   1.702   6.682   2.082
67220SOL    HW1 3492   1.668   6.709   1.997
67220SOL    HW2 3493   1.630   6.635   2.123
67221SOL     OW 3494   4.178   0.554  14.368
67221SOL    HW1 3495   4.150   0.465  14.344
67221SOL    HW2 3496   4.106   0.610  14.340
67222SOL     OW 3497   3.555   3.541   1.937
67222SOL    HW1 3498   3.627   3.491   1.898
67222SOL    HW2 3499   3.486   3.476   1.953
67223SOL     OW 3500   6.520  11.537  11.293
67223SOL    HW1 3501   6.607  11.576  11.304
67223SOL    HW2 3502   6.532  11.446  11.319
67224SOL     OW 3503  12.846  10.346   0.128
67224SOL    HW1 3504  12.904  10.287   0.178
67224SOL    HW2 3505  12.800  10.396   0.195
67225SOL     OW 3506   7.958  14.422   9.252
67225SOL    HW1 3507   7.935  14.410   9.160
67225SOL    HW2 3508   7.907  14.355   9.298
67226SOL     OW 3509   7.028   9.115   0.559
67226SOL    HW1 3510   7.118   9.134   0.534
67226SOL    HW2 3511   7.026   9.128   0.654
67227SOL     OW 3512   8.502   4.885   1.456
67227SOL    HW1 3513   8.459   4.959   1.414
67227SOL    HW2 3514   8.435   4.817   1.461
67228SOL     OW 3515   3.140  10.335   7.156
67228SOL    HW1 3516   3.160  10.328   7.062
67228SOL    HW2 3517   3.176  10.420   7.181
67229SOL     OW 3518  10.878   2.116   2.597
67229SOL    HW1 3519  10.966   2.119   2.635
67229SOL    HW2 3520  10.856   2.023   2.595
67230SOL     OW 3521   2.548   5.290   7.724
67230SOL    HW1 3522   2.564   5.248   7.808
67230SOL    HW2 3523   2.477   5.351   7.741
67231SOL     OW 3524  10.963   6.862   0.388
67231SOL    HW1 3525  10.890   6.925   0.387
67231SOL    HW2 3526  10.961   6.821   0.301
67232SOL     OW 3527  13.667   4.012   8.554
67232SOL    HW1 3528  13.612   4.089   8.569
67232SOL    HW2 3529  13.726   4.009   8.629
67233SOL     OW 3530  14.280  14.698  11.009
67233SOL    HW1 3531  14.187  14.692  10.987
67233SOL    HW2 3532  14.303  14.789  10.993
67234SOL     OW 3533  12.099  11.699   7.681
67234SOL    HW1 3534  12.153  11.675   7.757
67234SOL    HW2 3535  12.131  11.786   7.655
67235SOL     OW 3536   3.388   0.265  11.353
67235SOL    HW1 3537   3.418   0.347  11.392
67235SOL    HW2 3538   3.315   0.238  11.408
67236SOL     OW 3539   3.154  14.629  13.611
67236SOL    HW1 3540   3.156  14.708  13.557
67236SOL    HW2 3541   3.098  14.652  13.685
67237SOL     OW 3542   8.686   9.334  14.161
67237SOL    HW1 3543   8.615   9.398  14.162
67237SOL    HW2 3544   8.745   9.363  14.230
67238SOL     OW 3545   3.832   0.089   5.508
67238SOL    HW1 3546   3.813   0.044   5.590
67238SOL    HW2 3547   3.749   0.132   5.485
67239SOL     OW 3548  14.465   9.479   8.535
67239SOL    HW1 3549  14.528   9.508   8.469
67239SOL    HW2 3550  14.380   9.510   8.503
67240SOL     OW 3551   0.744   6.681   0.805
67240SOL    HW1 3552   0.815   6.721   0.755
67240SOL    HW2 3553   0.668   6.686   0.747
67241SOL     OW 3554   4.808   0.642   5.672
67241SOL    HW1 3555   4.803   0.548   5.691
67241SOL    HW2 3556   4.866   0.677   5.739
67242SOL     OW 3557   7.149   6.720  11.059
67242SOL    HW1 3558   7.078   6.660  11.036
67242SOL    HW2 3559   7.213   6.665  11.105
67243SOL     OW 3560   1.325  10.196   2.163
67243SOL    HW1 3561   1.252  10.137   2.183
67243SOL    HW2 3562   1.321  10.207   2.068
67244SOL     OW 3563   2.860  12.099   6.441
67244SOL    HW1 3564   2.917  12.142   6.378
67244SOL    HW2 3565   2.802  12.045   6.387
67245SOL     OW 3566  11.705   8.041   8.821
67245SOL    HW1 3567  11.615   8.010   8.811
67245SOL    HW2 3568  11.696   8.130   8.852
67246SOL     OW 3569   3.510   3.285   6.191
67246SOL    HW1 3570   3.549   3.228   6.125
67246SOL    HW2 3571   3.455   3.346   6.141
67247SOL     OW 3572   4.763  11.345   4.130
67247SOL    HW1 3573   4.819  11.310   4.199
67247SOL    HW2 3574   4.778  11.288   4.055
67248SOL     OW 3575   8.678   9.544   3.665
67248SOL    HW1 3576   8.584   9.561   3.676
67248SOL    HW2 3577   8.694   9.559   3.572
67249SOL     OW 3578   3.147   2.134  11.972
67249SOL    HW1 3579   3.160   2.131  12.066
67249SOL    HW2 3580   3.181   2.220  11.946
67250SOL     OW 3581   1.636  11.783  13.807
67250SOL    HW1 3582   1.726  11.751  13.799
67250SOL    HW2 3583   1.585  11.706  13.832
67251SOL     OW 3584  12.987   0.310   6.180
67251SOL    HW1 3585  13.075   0.336   6.154
67251SOL    HW2 3586  12.976   0.222   6.142
67252SOL     OW 3587  10.001   8.760  10.858
67252SOL    HW1 3588  10.005   8.669  10.831
67252SOL    HW2 3589   9.926   8.796  10.811
67253SOL     OW 3590   9.823   1.497   7.609
67253SOL    HW1 3591   9.881   1.562   7.648
67253SOL    HW2 3592   9.765   1.471   7.681
67254SOL     OW 3593   1.573  13.552  11.828
67254SOL    HW1 3594   1.550  13.522  11.740
67254SOL    HW2 3595   1.651  13.606  11.815
67255SOL     OW 3596   0.493   1.452  11.011
67255SOL    HW1 3597   0.428   1.519  10.989
67255SOL    HW2 3598   0.559   1.460  10.941
67256SOL     OW 3599   7.598   3.952   4.340
67256SOL    HW1 3600   7.647   3.926   4.263
67256SOL    HW2 3601   7.655   3.930   4.414
67257SOL     OW 3602  11.529  12.170  13.500
67257SOL    HW1 3603  11.534  12.081  13.467
67257SOL    HW2 3604  11.584  12.221  13.441
67258SOL     OW 3605   0.208  13.428   4.303
67258SOL    HW1 3606   0.204  13.418   4.398
67258SOL    HW2 3607   0.156  13.506   4.285
67259SOL     OW 3608  14.160   6.921  10.190
67259SOL    HW1 3609  14.079   6.907  10.238
67259SOL    HW2 3610  14.228   6.883  10.245
67260SOL     OW 3611   3.023  10.657   3.064
67260SOL    HW1 3612   3.016  10.626   3.155
67260SOL    HW2 3613   3.117  10.657   3.046
67261SOL     OW 3614   7.598  14.310   9.816
67261SOL    HW1 3615   7.679  14.361   9.825
67261SOL    HW2 3616   7.530  14.367   9.853
67262SOL     OW 3617  14.132   0.222   5.806
67262SOL    HW1 3618  14.070   0.158   5.842
67262SOL    HW2 3619  14.117   0.301   5.857
67263SOL     OW 3620  11.750   3.581   3.036
67263SOL    HW1 3621  11.677   3.620   3.083
67263SOL    HW2 3622  11.800   3.534   3.103
67264SOL     OW 3623  10.246  14.703   9.722
67264SOL    HW1 3624  10.159  14.702   9.762
67264SOL    HW2 3625  10.234  14.660   9.638
67265SOL     OW 3626  12.682   1.107   4.505
67265SOL    HW1 3627  12.638   1.080   4.586
67265SOL    HW2 3628  12.617   1.162   4.461
67266SOL     OW 3629   0.693  10.866   7.740
67266SOL    HW1 3630   0.773  10.877   7.790
67266SOL    HW2 3631   0.675  10.952   7.703
67267SOL     OW 3632   5.967  10.385   5.159
67267SOL    HW1 3633   5.959  10.322   5.230
67267SOL    HW2 3634   5.881  10.386   5.117
67268SOL     OW 3635   9.479   7.108   9.957
67268SOL    HW1 3636   9.493   7.171  10.028
67268SOL    HW2 3637   9.445   7.160   9.884
67269SOL     OW 3638  12.225   3.646  14.694
67269SOL    HW1 3639  12.166   3.598  14.636
67269SOL    HW2 3640  12.281   3.697  14.636
67270SOL     OW 3641   3.309   2.254   7.605
67270SOL    HW1 3642   3.365   2.277   7.531
67270SOL    HW2 3643   3.302   2.335   7.655
67271SOL     OW 3644   0.905   7.976  11.298
67271SOL    HW1 3645   0.896   7.964  11.203
67271SOL    HW2 3646   0.999   7.967  11.314
67272SOL     OW 3647   1.831  11.899   5.047
67272SOL    HW1 3648   1.736  11.908   5.054
67272SOL    HW2 3649   1.847  11.805   5.048
67273SOL     OW 3650  11.984   0.525   5.173
67273SOL    HW1 3651  12.068   0.497   5.209
67273SOL    HW2 3652  11.965   0.462   5.103
67274SOL     OW 3653   8.912   4.943   4.706
67274SOL    HW1 3654   8.924   4.925   4.800
67274SOL    HW2 3655   8.910   4.857   4.665
67275SOL     OW 3656   1.592  14.053   2.938
67275SOL    HW1 3657   1.590  14.147   2.960
67275SOL    HW2 3658   1.672  14.043   2.887
67276SOL     OW 3659   8.533   5.223   8.502
67276SOL    HW1 3660   8.445   5.248   8.472
67276SOL    HW2 3661   8.538   5.257   8.591
67277SOL     OW 3662  12.871   8.483   0.443
67277SOL    HW1 3663  12.874   8.508   0.535
67277SOL    HW2 3664  12.962   8.481   0.415
67278SOL     OW 3665   6.280   9.981   4.312
67278SOL    HW1 3666   6.348   9.932   4.266
67278SOL    HW2 3667   6.316  10.069   4.322
67279SOL     OW 3668   2.305   0.491   5.039
67279SOL    HW1 3669   2.287   0.580   5.070
67279SOL    HW2 3670   2.401   0.488   5.032
67280SOL     OW 3671   5.742   0.004  14.485
67280SOL    HW1 3672   5.682  14.807  14.511
67280SOL    HW2 3673   5.813  14.831  14.439
67281SOL     OW 3674  10.162   4.039   3.436
67281SOL    HW1 3675  10.069   4.042   3.415
67281SOL    HW2 3676  10.204   4.005   3.357
67282SOL     OW 3677  12.654   4.062   1.559
67282SOL    HW1 3678  12.613   4.136   1.602
67282SOL    HW2 3679  12.683   4.005   1.631
67283SOL     OW 3680   2.587   1.648   4.653
67283SOL    HW1 3681   2.533   1.656   4.574
67283SOL    HW2 3682   2.676   1.660   4.622
67284SOL     OW 3683   4.829   2.736   8.997
67284SOL    HW1 3684   4.901   2.673   8.998
67284SOL    HW2 3685   4.866   2.815   9.036
67285SOL     OW 3686   6.512  10.866   0.963
67285SOL    HW1 3687   6.474  10.845   0.877
67285SOL    HW2 3688   6.594  10.910   0.942
67286SOL     OW 3689   4.034   9.967  10.930
67286SOL    HW1 3690   4.127   9.981  10.952
67286SOL    HW2 3691   3.999  10.055  10.916
67287SOL     OW 3692  14.428  10.580   0.597
67287SOL    HW1 3693  14.499  10.608   0.654
67287SOL    HW2 3694  14.445  10.487   0.581
67288SOL     OW 3695   2.887  13.257   6.328
67288SOL    HW1 3696   2.953  13.241   6.261
67288SOL    HW2 3697   2.861  13.170   6.357
67289SOL     OW 3698  14.415  12.783   6.028
67289SOL    HW1 3699  14.448  12.695   6.010
67289SOL    HW2 3700  14.418  12.791   6.123
67290SOL     OW 3701   8.532   4.462  14.509
67290SOL    HW1 3702   8.554   4.446  14.418
67290SOL    HW2 3703   8.530   4.557  14.517
67291SOL     OW 3704  10.686  12.418   2.381
67291SOL    HW1 3705  10.691  12.430   2.287
67291SOL    HW2 3706  10.742  12.342   2.399
67292SOL     OW 3707   8.706   1.262   5.797
67292SOL    HW1 3708   8.648   1.337   5.782
67292SOL    HW2 3709   8.781   1.299   5.843
67293SOL     OW 3710   9.864   4.932   0.754
67293SOL    HW1 3711   9.918   4.950   0.677
67293SOL    HW2 3712   9.892   4.998   0.818
67294SOL     OW 3713   8.777   7.134  14.691
67294SOL    HW1 3714   8.720   7.135  14.615
67294SOL    HW2 3715   8.759   7.050  14.734
67295SOL     OW 3716  11.475   7.751  11.444
67295SOL    HW1 3717  11.492   7.714  11.530
67295SOL    HW2 3718  11.392   7.711  11.417
67296SOL     OW 3719  10.410  13.450  10.535
67296SOL    HW1 3720  10.348  13.511  10.494
67296SOL    HW2 3721  10.470  13.427  10.465
67297SOL     OW 3722   8.313  12.371   6.419
67297SOL    HW1 3723   8.393  12.399   6.464
67297SOL    HW2 3724   8.338  12.365   6.327
67298SOL     OW 3725   1.231  11.066  12.386
67298SOL    HW1 3726   1.276  11.069  12.302
67298SOL    HW2 3727   1.138  11.073  12.363
67299SOL     OW 3728  14.810   5.837  13.583
67299SOL    HW1 3729  14.796   5.901  13.513
67299SOL    HW2 3730  14.855   5.887  13.652
67300SOL     OW 3731  14.065  12.971   0.128
67300SOL    HW1 3732  13.999  12.916   0.169
67300SOL    HW2 3733  14.069  13.049   0.183
67301SOL     OW 3734   9.486  12.185   6.067
67301SOL    HW1 3735   9.416  12.195   6.131
67301SOL    HW2 3736   9.558  12.239   6.102
67302SOL     OW 3737   0.853  11.823   1.776
67302SOL    HW1 3738   0.920  11.880   1.739
67302SOL    HW2 3739   0.901  11.751   1.816
67303SOL     OW 3740   9.457   6.960   4.787
67303SOL    HW1 3741   9.458   6.936   4.694
67303SOL    HW2 3742   9.404   7.040   4.791
67304SOL     OW 3743  10.962   5.436   4.865
67304SOL    HW1 3744  10.991   5.512   4.915
67304SOL    HW2 3745  10.957   5.467   4.775
67305SOL     OW 3746   2.459  13.379  11.291
67305SOL    HW1 3747   2.554  13.376  11.282
67305SOL    HW2 3748   2.442  13.461  11.338
67306SOL     OW 3749   2.635   3.411  13.587
67306SOL    HW1 3750   2.581   3.419  13.665
67306SOL    HW2 3751   2.609   3.484  13.532
67307SOL     OW 3752  11.214   6.237   6.260
67307SOL    HW1 3753  11.209   6.159   6.204
67307SOL    HW2 3754  11.281   6.215   6.325
67308SOL     OW 3755   7.016  12.019   8.208
67308SOL    HW1 3756   6.937  12.035   8.156
67308SOL    HW2 3757   7.036  11.926   8.193
67309SOL     OW 3758  10.125  12.043   0.792
67309SOL    HW1 3759  10.179  12.109   0.747
67309SOL    HW2 3760  10.161  12.039   0.880
67310SOL     OW 3761   0.756   2.162   0.645
67310SOL    HW1 3762   0.679   2.143   0.591
67310SOL    HW2 3763   0.724   2.225   0.710
67311SOL     OW 3764  13.298   1.677  14.607
67311SOL    HW1 3765  13.280   1.741  14.538
67311SOL    HW2 3766  13.390   1.652  14.593
67312SOL     OW 3767   9.095  12.740   5.058
67312SOL    HW1 3768   9.187  12.763   5.070
67312SOL    HW2 3769   9.052  12.769   5.138
67313SOL     OW 3770   8.618  11.602   9.031
67313SOL    HW1 3771   8.581  11.568   9.113
67313SOL    HW2 3772   8.548  11.594   8.967
67314SOL     OW 3773  12.568  12.156   5.465
67314SOL    HW1 3774  12.515  12.225   5.505
67314SOL    HW2 3775  12.524  12.075   5.490
67315SOL     OW 3776   7.463  10.211   9.541
67315SOL    HW1 3777   7.415  10.274   9.488
67315SOL    HW2 3778   7.507  10.263   9.608
67316SOL     OW 3779   9.716   7.024  12.026
67316SOL    HW1 3780   9.750   7.066  12.105
67316SOL    HW2 3781   9.788   7.029  11.963
67317SOL     OW 3782  11.043   3.023   7.561
67317SOL    HW1 3783  10.962   2.972   7.559
67317SOL    HW2 3784  11.062   3.034   7.655
67318SOL     OW 3785  14.196   0.266   3.987
67318SOL    HW1 3786  14.149   0.303   3.912
67318SOL    HW2 3787  14.287   0.289   3.973
67319SOL     OW 3788   9.697   0.470   5.067
67319SOL    HW1 3789   9.782   0.512   5.053
67319SOL    HW2 3790   9.670   0.443   4.979
67320SOL     OW 3791  10.611   2.811   5.613
67320SOL    HW1 3792  10.668   2.862   5.555
67320SOL    HW2 3793  10.618   2.855   5.698
67321SOL     OW 3794   4.027  12.946  13.315
67321SOL    HW1 3795   3.965  12.976  13.382
67321SOL    HW2 3796   4.022  13.013  13.247
67322SOL     OW 3797   3.187  13.944   8.958
67322SOL    HW1 3798   3.282  13.947   8.959
67322SOL    HW2 3799   3.161  14.030   8.925
67323SOL     OW 3800   1.677   3.073   8.535
67323SOL    HW1 3801   1.589   3.035   8.544
67323SOL    HW2 3802   1.729   3.003   8.497
67324SOL     OW 3803   1.752  12.394  14.438
67324SOL    HW1 3804   1.673  12.340  14.432
67324SOL    HW2 3805   1.794  12.366  14.519
67325SOL     OW 3806  14.706   2.894   9.650
67325SOL    HW1 3807  14.653   2.873   9.574
67325SOL    HW2 3808  14.716   2.989   9.647
67326SOL     OW 3809   1.576  14.489  12.860
67326SOL    HW1 3810   1.510  14.478  12.929
67326SOL    HW2 3811   1.562  14.415  12.801
67327SOL     OW 3812  11.539   1.824   8.067
67327SOL    HW1 3813  11.583   1.790   7.989
67327SOL    HW2 3814  11.465   1.765   8.081
67328SOL     OW 3815   4.595   8.130  14.014
67328SOL    HW1 3816   4.573   8.209  14.064
67328SOL    HW2 3817   4.634   8.163  13.933
67329SOL     OW 3818   3.525   0.761  14.264
67329SOL    HW1 3819   3.532   0.666  14.250
67329SOL    HW2 3820   3.504   0.770  14.356
67330SOL     OW 3821  11.908   5.193   6.515
67330SOL    HW1 3822  11.863   5.218   6.596
67330SOL    HW2 3823  11.845   5.137   6.469
67331SOL     OW 3824  11.856  12.142  13.659
67331SOL    HW1 3825  11.920  12.085  13.701
67331SOL    HW2 3826  11.874  12.229  13.696
67332SOL     OW 3827   0.073   1.250   8.165
67332SOL    HW1 3828   0.123   1.234   8.085
67332SOL    HW2 3829  14.870   1.191   8.159
67333SOL     OW 3830   9.833  11.873  13.644
67333SOL    HW1 3831   9.837  11.849  13.551
67333SOL    HW2 3832   9.740  11.865  13.667
67334SOL     OW 3833   3.669   1.087  11.253
67334SOL    HW1 3834   3.742   1.065  11.310
67334SOL    HW2 3835   3.659   1.012  11.195
67335SOL     OW 3836   1.147   6.217  12.766
67335SOL    HW1 3837   1.197   6.282  12.717
67335SOL    HW2 3838   1.099   6.168  12.700
67336SOL     OW 3839   0.958  13.235  12.219
67336SOL    HW1 3840   0.976  13.248  12.125
67336SOL    HW2 3841   0.881  13.289  12.236
67337SOL     OW 3842  13.889   9.013   8.582
67337SOL    HW1 3843  13.900   9.066   8.661
67337SOL    HW2 3844  13.925   8.927   8.606
67338SOL     OW 3845   8.594   1.720   9.487
67338SOL    HW1 3846   8.675   1.668   9.487
67338SOL    HW2 3847   8.617   1.800   9.533
67339SOL     OW 3848   5.466   8.137   4.411
67339SOL    HW1 3849   5.467   8.073   4.481
67339SOL    HW2 3850   5.491   8.220   4.452
67340SOL     OW 3851  12.235   5.084  12.502
67340SOL    HW1 3852  12.216   5.166  12.546
67340SOL    HW2 3853  12.164   5.074  12.438
67341SOL     OW 3854  13.141   8.231  12.510
67341SOL    HW1 3855  13.106   8.242  12.422
67341SOL    HW2 3856  13.097   8.299  12.562
67342SOL     OW 3857   2.690   6.406   0.162
67342SOL    HW1 3858   2.771   6.455   0.167
67342SOL    HW2 3859   2.621   6.471   0.171
67343SOL     OW 3860   3.032   5.873   8.353
67343SOL    HW1 3861   2.957   5.908   8.303
67343SOL    HW2 3862   3.023   5.778   8.344
67344SOL     OW 3863  14.066   2.583  13.160
67344SOL    HW1 3864  14.160   2.581  13.177
67344SOL    HW2 3865  14.031   2.650  13.219
67345SOL     OW 3866   7.255   2.525  11.116
67345SOL    HW1 3867   7.303   2.608  11.116
67345SOL    HW2 3868   7.166   2.548  11.092
67346SOL     OW 3869   5.892  11.965   7.639
67346SOL    HW1 3870   5.956  12.035   7.647
67346SOL    HW2 3871   5.897  11.919   7.723
67347SOL     OW 3872   1.784  11.246   8.154
67347SOL    HW1 3873   1.860  11.276   8.105
67347SOL    HW2 3874   1.786  11.151   8.147
67348SOL     OW 3875   4.783   1.499  13.190
67348SOL    HW1 3876   4.845   1.572  13.187
67348SOL    HW2 3877   4.702   1.539  13.222
67349SOL     OW 3878   5.380  10.520   1.934
67349SOL    HW1 3879   5.310  10.454   1.931
67349SOL    HW2 3880   5.452  10.476   1.979
67350SOL     OW 3881   9.060  13.075   6.871
67350SOL    HW1 3882   9.035  13.162   6.840
67350SOL    HW2 3883   9.145  13.089   6.914
67351SOL     OW 3884  13.523   7.071   8.666
67351SOL    HW1 3885  13.458   7.135   8.696
67351SOL    HW2 3886  13.607   7.115   8.677
67352SOL     OW 3887  10.547  11.669   8.188
67352SOL    HW1 3888  10.504  11.583   8.186
67352SOL    HW2 3889  10.476  11.731   8.169
67353SOL     OW 3890   3.971   1.762   8.598
67353SOL    HW1 3891   3.962   1.735   8.690
67353SOL    HW2 3892   4.001   1.683   8.553
67354SOL     OW 3893   9.079   0.020   5.338
67354SOL    HW1 3894   9.067   0.071   5.418
67354SOL    HW2 3895   9.000  14.838   5.331
67355SOL     OW 3896   9.875   2.719   3.839
67355SOL    HW1 3897   9.822   2.672   3.903
67355SOL    HW2 3898   9.813   2.750   3.773
67356SOL     OW 3899   9.767  11.538   8.575
67356SOL    HW1 3900   9.715  11.513   8.651
67356SOL    HW2 3901   9.825  11.463   8.559
67357SOL     OW 3902   3.295  13.311   1.208
67357SOL    HW1 3903   3.262  13.361   1.133
67357SOL    HW2 3904   3.255  13.353   1.284
67358SOL     OW 3905   3.108   2.357   8.541
67358SOL    HW1 3906   3.068   2.413   8.608
67358SOL    HW2 3907   3.034   2.326   8.488
67359SOL     OW 3908  12.714   8.381   3.582
67359SOL    HW1 3909  12.779   8.446   3.553
67359SOL    HW2 3910  12.741   8.360   3.672
67360SOL     OW 3911   0.766   2.221  14.415
67360SOL    HW1 3912   0.771   2.195  14.323
67360SOL    HW2 3913   0.813   2.152  14.462
67361SOL     OW 3914   8.992   4.021   6.958
67361SOL    HW1 3915   8.985   4.116   6.960
67361SOL    HW2 3916   8.955   3.992   7.041
67362SOL     OW 3917   0.826  14.226  13.832
67362SOL    HW1 3918   0.840  14.316  13.803
67362SOL    HW2 3919   0.856  14.172  13.760
67363SOL     OW 3920  12.137   2.447   5.393
67363SOL    HW1 3921  12.079   2.476   5.463
67363SOL    HW2 3922  12.162   2.358   5.417
67364SOL     OW 3923  10.412   5.375  13.362
67364SOL    HW1 3924  10.326   5.357  13.324
67364SOL    HW2 3925  10.455   5.432  13.298
67365SOL     OW 3926   5.181   1.100   3.805
67365SOL    HW1 3927   5.186   1.099   3.900
67365SOL    HW2 3928   5.255   1.153   3.777
67366SOL     OW 3929  13.754  12.051  11.860
67366SOL    HW1 3930  13.810  12.031  11.935
67366SOL    HW2 3931  13.812  12.090  11.796
67367SOL     OW 3932   1.094  12.846   0.186
67367SOL    HW1 3933   1.034  12.903   0.233
67367SOL    HW2 3934   1.145  12.802   0.255
67368SOL     OW 3935   3.475   4.260   7.393
67368SOL    HW1 3936   3.530   4.233   7.466
67368SOL    HW2 3937   3.422   4.332   7.428
67369SOL     OW 3938   6.087  14.146   8.496
67369SOL    HW1 3939   6.087  14.096   8.414
67369SOL    HW2 3940   6.056  14.084   8.562
67370SOL     OW 3941   8.349   7.465   3.787
67370SOL    HW1 3942   8.326   7.533   3.850
67370SOL    HW2 3943   8.267   7.418   3.771
67371SOL     OW 3944  10.943   9.973   2.598
67371SOL    HW1 3945  10.995  10.053   2.588
67371SOL    HW2 3946  10.908   9.956   2.511
67372SOL     OW 3947  14.318   6.940  14.824
67372SOL    HW1 3948  14.390   6.947   0.014
67372SOL    HW2 3949  14.242   6.975  14.871
67373SOL     OW 3950   2.618  12.607   1.950
67373SOL    HW1 3951   2.615  12.538   1.883
67373SOL    HW2 3952   2.664  12.679   1.908
67374SOL     OW 3953  14.314  10.905   3.976
67374SOL    HW1 3954  14.331  10.945   4.062
67374SOL    HW2 3955  14.252  10.965   3.934
67375SOL     OW 3956   6.902  13.701   9.982
67375SOL    HW1 3957   6.919  13.639   9.911
67375SOL    HW2 3958   6.910  13.787   9.941
67376SOL     OW 3959   4.862   9.151  11.187
67376SOL    HW1 3960   4.862   9.055  11.182
67376SOL    HW2 3961   4.820   9.179  11.106
67377SOL     OW 3962  13.735  13.536  14.069
67377SOL    HW1 3963  13.657  13.507  14.117
67377SOL    HW2 3964  13.702  13.557  13.981
67378SOL     OW 3965   9.595   2.866   7.133
67378SOL    HW1 3966   9.552   2.885   7.050
67378SOL    HW2 3967   9.625   2.776   7.125
67379SOL     OW 3968   0.445   2.391   4.607
67379SOL    HW1 3969   0.357   2.380   4.571
67379SOL    HW2 3970   0.466   2.307   4.647
67380SOL     OW 3971   8.731   5.103   3.742
67380SOL    HW1 3972   8.724   5.191   3.705
67380SOL    HW2 3973   8.642   5.081   3.769
67381SOL     OW 3974   6.955   6.232   2.488
67381SOL    HW1 3975   7.001   6.286   2.552
67381SOL    HW2 3976   7.023   6.177   2.450
67382SOL     OW 3977  11.281   7.673  12.508
67382SOL    HW1 3978  11.200   7.723  12.492
67382SOL    HW2 3979  11.346   7.715  12.452
67383SOL     OW 3980   1.115   2.438   9.474
67383SOL    HW1 3981   1.066   2.362   9.506
67383SOL    HW2 3982   1.052   2.509   9.472
67384SOL     OW 3983   1.568   0.270   4.442
67384SOL    HW1 3984   1.540   0.335   4.507
67384SOL    HW2 3985   1.506   0.279   4.370
67385SOL     OW 3986   2.292   5.115   0.180
67385SOL    HW1 3987   2.300   5.022   0.204
67385SOL    HW2 3988   2.377   5.153   0.200
67386SOL     OW 3989   8.210   0.936   6.395
67386SOL    HW1 3990   8.304   0.917   6.390
67386SOL    HW2 3991   8.185   0.957   6.305
67387SOL     OW 3992   9.375  11.120   9.110
67387SOL    HW1 3993   9.365  11.094   9.202
67387SOL    HW2 3994   9.308  11.071   9.063
67388SOL     OW 3995   2.737   8.706   6.286
67388SOL    HW1 3996   2.657   8.661   6.315
67388SOL    HW2 3997   2.722   8.797   6.309
67389SOL     OW 3998  10.579   7.417  14.571
67389SOL    HW1 3999  10.598   7.354  14.502
67389SOL    HW2 4000  10.620   7.380  14.649
67390SOL     OW 4001   8.326   5.871  12.281
67390SOL    HW1 4002   8.375   5.915  12.211
67390SOL    HW2 4003   8.289   5.793  12.239
67391SOL     OW 4004   4.119  11.860  14.803
67391SOL    HW1 4005   4.173  11.903  14.737
67391SOL    HW2 4006   4.160  11.774  14.814
67392SOL     OW 4007   6.978   1.527   6.884
67392SOL    HW1 4008   6.956   1.439   6.854
67392SOL    HW2 4009   7.013   1.571   6.807
67393SOL     OW 4010   5.300  11.097   6.656
67393SOL    HW1 4011   5.225  11.137   6.612
67393SOL    HW2 4012   5.335  11.166   6.711
67394SOL     OW 4013  11.990   4.658   1.867
67394SOL    HW1 4014  11.970   4.657   1.960
67394SOL    HW2 4015  12.058   4.725   1.858
67395SOL     OW 4016  13.395  13.701   4.534
67395SOL    HW1 4017  13.479  13.656   4.545
67395SOL    HW2 4018  13.353  13.654   4.462
67396SOL     OW 4019   2.706  14.723   8.878
67396SOL    HW1 4020   2.639  14.773   8.832
67396SOL    HW2 4021   2.696  14.748   8.970
67397SOL     OW 4022   3.805   7.170   1.448
67397SOL    HW1 4023   3.773   7.101   1.507
67397SOL    HW2 4024   3.900   7.158   1.447
67398SOL     OW 4025   0.470   5.196  14.257
67398SOL    HW1 4026   0.384   5.200  14.299
67398SOL    HW2 4027   0.519   5.132  14.308
67399SOL     OW 4028   2.133   6.595   2.908
67399SOL    HW1 4029   2.133   6.678   2.861
67399SOL    HW2 4030   2.210   6.549   2.875
67400SOL     OW 4031  12.962  11.000   2.908
67400SOL    HW1 4032  13.037  10.943   2.924
67400SOL    HW2 4033  12.968  11.068   2.975
67401SOL     OW 4034  14.059   0.224   1.708
67401SOL    HW1 4035  14.062   0.159   1.779
67401SOL    HW2 4036  14.025   0.175   1.633
67402SOL     OW 4037  12.567   5.490   6.066
67402SOL    HW1 4038  12.638   5.526   6.119
67402SOL    HW2 4039  12.549   5.558   6.001
67403SOL     OW 4040   8.908  14.515   7.732
67403SOL    HW1 4041   8.936  14.462   7.807
67403SOL    HW2 4042   8.822  14.549   7.757
67404SOL     OW 4043  13.774   8.696   5.917
67404SOL    HW1 4044  13.799   8.676   6.007
67404SOL    HW2 4045  13.823   8.632   5.864
67405SOL     OW 4046   0.599  13.233  11.479
67405SOL    HW1 4047   0.537  13.159  11.480
67405SOL    HW2 4048   0.551  13.304  11.436
67406SOL     OW 4049  12.514   5.039  12.661
67406SOL    HW1 4050  12.490   5.086  12.741
67406SOL    HW2 4051  12.586   4.981  12.687
67407SOL     OW 4052   7.158   4.578   2.950
67407SOL    HW1 4053   7.231   4.619   2.997
67407SOL    HW2 4054   7.089   4.570   3.015
67408SOL     OW 4055   2.298   6.979   2.181
67408SOL    HW1 4056   2.231   7.034   2.221
67408SOL    HW2 4057   2.256   6.939   2.106
67409SOL     OW 4058  12.187   2.198   5.490
67409SOL    HW1 4059  12.137   2.190   5.571
67409SOL    HW2 4060  12.268   2.150   5.507
67410SOL     OW 4061   2.969  13.777   9.256
67410SOL    HW1 4062   2.975  13.841   9.328
67410SOL    HW2 4063   2.964  13.830   9.177
67411SOL     OW 4064  11.673  14.862   0.198
67411SOL    HW1 4065  11.592  14.817   0.175
67411SOL    HW2 4066  11.658   0.080   0.171
67412SOL     OW 4067  12.800   6.801  13.956
67412SOL    HW1 4068  12.870   6.786  14.020
67412SOL    HW2 4069  12.739   6.729  13.970
67413SOL     OW 4070  10.185  10.940   8.306
67413SOL    HW1 4071  10.140  10.891   8.237
67413SOL    HW2 4072  10.125  10.938   8.380
67414SOL     OW 4073   1.786   9.358   4.560
67414SOL    HW1 4074   1.733   9.334   4.635
67414SOL    HW2 4075   1.874   9.325   4.581
67415SOL     OW 4076   7.659  14.603   2.080
67415SOL    HW1 4077   7.725  14.647   2.133
67415SOL    HW2 4078   7.660  14.650   1.996
67416SOL     OW 4079  13.890   5.927   5.811
67416SOL    HW1 4080  13.929   5.843   5.788
67416SOL    HW2 4081  13.900   5.980   5.732
67417SOL     OW 4082   1.053  14.686  14.056
67417SOL    HW1 4083   0.998  14.691  13.978
67417SOL    HW2 4084   0.993  14.697  14.129
67418SOL     OW 4085   0.450   5.208   9.972
67418SOL    HW1 4086   0.427   5.192   9.880
67418SOL    HW2 4087   0.459   5.303   9.979
67419SOL     OW 4088  10.964  14.567   1.984
67419SOL    HW1 4089  10.982  14.491   1.930
67419SOL    HW2 4090  10.979  14.642   1.926
67420SOL     OW 4091   2.858   0.836   8.186
67420SOL    HW1 4092   2.888   0.865   8.100
67420SOL    HW2 4093   2.934   0.790   8.223
67421SOL     OW 4094   5.086   4.813  12.003
67421SOL    HW1 4095   5.125   4.795  11.917
67421SOL    HW2 4096   5.160   4.822  12.062
67422SOL     OW 4097   9.843   0.544   3.696
67422SOL    HW1 4098   9.887   0.497   3.624
67422SOL    HW2 4099   9.851   0.486   3.771
67423SOL     OW 4100   6.174  12.540  11.211
67423SOL    HW1 4101   6.175  12.562  11.118
67423SOL    HW2 4102   6.148  12.621  11.255
67424SOL     OW 4103   8.269   8.064  12.572
67424SOL    HW1 4104   8.225   8.148  12.560
67424SOL    HW2 4105   8.341   8.066  12.508
67425SOL     OW 4106  14.592   9.434   1.634
67425SOL    HW1 4107  14.503   9.430   1.668
67425SOL    HW2 4108  14.601   9.357   1.578
67426SOL     OW 4109   7.916   3.445   6.178
67426SOL    HW1 4110   7.907   3.473   6.269
67426SOL    HW2 4111   7.996   3.485   6.148
67427SOL     OW 4112   3.942   5.444   1.492
67427SOL    HW1 4113   3.944   5.365   1.546
67427SOL    HW2 4114   3.974   5.513   1.550
67428SOL     OW 4115  13.835   5.705   3.046
67428SOL    HW1 4116  13.894   5.631   3.061
67428SOL    HW2 4117  13.823   5.744   3.133
67429SOL     OW 4118  12.343  13.956   4.317
67429SOL    HW1 4119  12.250  13.975   4.305
67429SOL    HW2 4120  12.348  13.861   4.321
67430SOL     OW 4121   6.543  10.640   0.504
67430SOL    HW1 4122   6.593  10.559   0.498
67430SOL    HW2 4123   6.552  10.681   0.418
67431SOL     OW 4124  10.017   7.223  11.296
67431SOL    HW1 4125   9.957   7.235  11.222
67431SOL    HW2 4126  10.059   7.139  11.279
67432SOL     OW 4127   3.400   3.306   8.799
67432SOL    HW1 4128   3.332   3.275   8.739
67432SOL    HW2 4129   3.455   3.363   8.746
67433SOL     OW 4130  11.575   6.618   4.206
67433SOL    HW1 4131  11.556   6.709   4.227
67433SOL    HW2 4132  11.618   6.621   4.121
67434SOL     OW 4133  12.407   1.129  12.381
67434SOL    HW1 4134  12.455   1.114  12.462
67434SOL    HW2 4135  12.316   1.111  12.403
67435SOL     OW 4136   5.745  11.365   6.430
67435SOL    HW1 4137   5.674  11.427   6.416
67435SOL    HW2 4138   5.736  11.302   6.359
67436SOL     OW 4139   8.573   0.524   5.870
67436SOL    HW1 4140   8.656   0.494   5.832
67436SOL    HW2 4141   8.568   0.616   5.846
67437SOL     OW 4142   0.532   2.823   6.111
67437SOL    HW1 4143   0.569   2.893   6.057
67437SOL    HW2 4144   0.539   2.856   6.201
67438SOL     OW 4145   8.369  13.113   5.302
67438SOL    HW1 4146   8.362  13.152   5.215
67438SOL    HW2 4147   8.293  13.054   5.308
67439SOL     OW 4148   4.288   8.548   7.899
67439SOL    HW1 4149   4.358   8.493   7.935
67439SOL    HW2 4150   4.219   8.486   7.875
67440SOL     OW 4151   8.532   3.135   8.034
67440SOL    HW1 4152   8.508   3.108   8.123
67440SOL    HW2 4153   8.449   3.134   7.986
67441SOL     OW 4154   3.823  12.369   3.357
67441SOL    HW1 4155   3.809  12.443   3.416
67441SOL    HW2 4156   3.746  12.367   3.301
67442SOL     OW 4157   6.335  12.799   1.413
67442SOL    HW1 4158   6.387  12.721   1.391
67442SOL    HW2 4159   6.339  12.853   1.334
67443SOL     OW 4160   1.284   7.158   7.176
67443SOL    HW1 4161   1.288   7.252   7.161
67443SOL    HW2 4162   1.375   7.131   7.187
67444SOL     OW 4163   6.095   5.251  13.509
67444SOL    HW1 4164   6.173   5.195  13.504
67444SOL    HW2 4165   6.121   5.323  13.567
67445SOL     OW 4166   9.851   7.651   0.324
67445SOL    HW1 4167   9.834   7.704   0.402
67445SOL    HW2 4168   9.792   7.686   0.257
67446SOL     OW 4169   8.681   4.239   0.372
67446SOL    HW1 4170   8.701   4.167   0.431
67446SOL    HW2 4171   8.729   4.219   0.292
67447SOL     OW 4172  14.240  10.992  11.608
67447SOL    HW1 4173  14.264  10.923  11.671
67447SOL    HW2 4174  14.169  10.953  11.556
67448SOL     OW 4175   5.376   5.507   9.305
67448SOL    HW1 4176   5.282   5.498   9.321
67448SOL    HW2 4177   5.387   5.486   9.212
67449SOL     OW 4178   4.281   0.627  10.998
67449SOL    HW1 4179   4.246   0.595  10.915
67449SOL    HW2 4180   4.352   0.687  10.972
67450SOL     OW 4181  14.222   5.050  11.677
67450SOL    HW1 4182  14.195   5.072  11.588
67450SOL    HW2 4183  14.161   4.982  11.705
67451SOL     OW 4184   7.017   6.616   1.615
67451SOL    HW1 4185   6.973   6.700   1.605
67451SOL    HW2 4186   7.076   6.629   1.690
67452SOL     OW 4187   1.181  13.948   3.135
67452SOL    HW1 4188   1.229  13.953   3.052
67452SOL    HW2 4189   1.164  13.854   3.146
67453SOL     OW 4190  13.294   2.012   1.999
67453SOL    HW1 4191  13.335   1.926   2.004
67453SOL    HW2 4192  13.262   2.018   1.909
67454SOL     OW 4193  12.161   7.696   2.830
67454SOL    HW1 4194  12.092   7.672   2.892
67454SOL    HW2 4195  12.243   7.680   2.877
67455SOL     OW 4196   9.625   3.164   2.227
67455SOL    HW1 4197   9.665   3.218   2.159
67455SOL    HW2 4198   9.693   3.101   2.250
67456SOL     OW 4199   3.315  13.047   3.987
67456SOL    HW1 4200   3.371  12.998   4.047
67456SOL    HW2 4201   3.303  12.988   3.913
67457SOL     OW 4202  10.414   0.635  11.197
67457SOL    HW1 4203  10.497   0.589  11.187
67457SOL    HW2 4204  10.353   0.567  11.227
67458SOL     OW 4205   6.499  11.687   0.365
67458SOL    HW1 4206   6.513  11.715   0.275
67458SOL    HW2 4207   6.428  11.743   0.397
67459SOL     OW 4208   1.227  12.907  11.274
67459SOL    HW1 4209   1.192  12.994  11.256
67459SOL    HW2 4210   1.269  12.881  11.192
67460SOL     OW 4211  10.025   2.010   1.120
67460SOL    HW1 4212  10.090   2.064   1.074
67460SOL    HW2 4213   9.956   1.995   1.055
67461SOL     OW 4214   2.724   4.709   9.671
67461SOL    HW1 4215   2.811   4.748   9.673
67461SOL    HW2 4216   2.700   4.701   9.764
67462SOL     OW 4217  14.350   9.828   5.449
67462SOL    HW1 4218  14.433   9.780   5.453
67462SOL    HW2 4219  14.316   9.810   5.362
67463SOL     OW 4220  13.335   8.291  14.075
67463SOL    HW1 4221  13.298   8.219  14.126
67463SOL    HW2 4222  13.311   8.370  14.122
67464SOL     OW 4223  13.418   9.632   9.724
67464SOL    HW1 4224  13.455   9.706   9.676
67464SOL    HW2 4225  13.408   9.664   9.813
67465SOL     OW 4226   5.583   1.599   8.145
67465SOL    HW1 4227   5.625   1.556   8.070
67465SOL    HW2 4228   5.654   1.617   8.206
67466SOL     OW 4229   2.686   8.007   6.649
67466SOL    HW1 4230   2.616   8.058   6.608
67466SOL    HW2 4231   2.767   8.050   6.621
67467SOL     OW 4232   6.228   2.752  13.381
67467SOL    HW1 4233   6.204   2.661  13.365
67467SOL    HW2 4234   6.160   2.803  13.338
67468SOL     OW 4235   9.261  10.580  13.648
67468SOL    HW1 4236   9.312  10.508  13.612
67468SOL    HW2 4237   9.184  10.586  13.591
67469SOL     OW 4238  13.585   9.079  14.198
67469SOL    HW1 4239  13.496   9.110  14.180
67469SOL    HW2 4240  13.594   9.086  14.293
67470SOL     OW 4241   9.883  14.418   3.064
67470SOL    HW1 4242   9.923  14.356   3.125
67470SOL    HW2 4243   9.793  14.387   3.053
67471SOL     OW 4244   0.599  10.461   3.029
67471SOL    HW1 4245   0.659  10.412   3.084
67471SOL    HW2 4246   0.522  10.405   3.019
67472SOL     OW 4247  14.612  12.628   8.104
67472SOL    HW1 4248  14.556  12.566   8.151
67472SOL    HW2 4249  14.646  12.685   8.173
67473SOL     OW 4250  10.486   2.375   9.261
67473SOL    HW1 4251  10.422   2.439   9.292
67473SOL    HW2 4252  10.511   2.407   9.174
67474SOL     OW 4253   9.574   1.325   9.864
67474SOL    HW1 4254   9.509   1.258   9.843
67474SOL    HW2 4255   9.580   1.323   9.959
67475SOL     OW 4256   9.947   2.883   5.293
67475SOL    HW1 4257   9.948   2.978   5.280
67475SOL    HW2 4258   9.909   2.870   5.380
67476SOL     OW 4259   4.311  13.412   9.674
67476SOL    HW1 4260   4.229  13.434   9.719
67476SOL    HW2 4261   4.301  13.319   9.652
67477SOL     OW 4262   2.445  10.027   0.702
67477SOL    HW1 4263   2.486   9.947   0.671
67477SOL    HW2 4264   2.369  10.040   0.645
67478SOL     OW 4265   0.590   1.961   3.992
67478SOL    HW1 4266   0.618   2.016   3.918
67478SOL    HW2 4267   0.536   1.893   3.952
67479SOL     OW 4268   7.469  12.095  13.378
67479SOL    HW1 4269   7.488  12.175  13.329
67479SOL    HW2 4270   7.504  12.111  13.465
67480SOL     OW 4271   3.908   8.292  10.518
67480SOL    HW1 4272   3.897   8.204  10.555
67480SOL    HW2 4273   3.955   8.277  10.435
67481SOL     OW 4274   3.229   7.500   3.824
67481SOL    HW1 4275   3.143   7.463   3.843
67481SOL    HW2 4276   3.271   7.436   3.767
67482SOL     OW 4277   4.694   3.330   2.835
67482SOL    HW1 4278   4.599   3.327   2.828
67482SOL    HW2 4279   4.710   3.374   2.919
67483SOL     OW 4280  12.250   8.650   1.711
67483SOL    HW1 4281  12.289   8.687   1.791
67483SOL    HW2 4282  12.287   8.703   1.640
67484SOL     OW 4283   2.489   3.063   7.247
67484SOL    HW1 4284   2.491   3.027   7.336
67484SOL    HW2 4285   2.397   3.083   7.231
67485SOL     OW 4286   6.887   6.470   5.768
67485SOL    HW1 4287   6.938   6.516   5.702
67485SOL    HW2 4288   6.852   6.393   5.722
67486SOL     OW 4289   4.218   1.107   1.271
67486SOL    HW1 4290   4.269   1.179   1.235
67486SOL    HW2 4291   4.279   1.033   1.272
67487SOL     OW 4292   1.791   9.777   6.689
67487SOL    HW1 4293   1.819   9.848   6.746
67487SOL    HW2 4294   1.766   9.707   6.749
67488SOL     OW 4295   4.389   8.531  13.531
67488SOL    HW1 4296   4.394   8.541  13.626
67488SOL    HW2 4297   4.440   8.604  13.496
67489SOL     OW 4298  14.265   6.444   7.268
67489SOL    HW1 4299  14.221   6.382   7.210
67489SOL    HW2 4300  14.286   6.392   7.346
67490SOL     OW 4301  14.372   1.400   7.979
67490SOL    HW1 4302  14.303   1.347   7.940
67490SOL    HW2 4303  14.334   1.488   7.985
67491SOL     OW 4304  13.817  14.248   2.539
67491SOL    HW1 4305  13.879  14.242   2.612
67491SOL    HW2 4306  13.808  14.342   2.523
67492SOL     OW 4307  10.908   2.099   1.697
67492SOL    HW1 4308  10.992   2.061   1.673
67492SOL    HW2 4309  10.929   2.170   1.757
67493SOL     OW 4310  13.950   2.027   1.846
67493SOL    HW1 4311  13.932   2.093   1.780
67493SOL    HW2 4312  14.046   2.022   1.850
67494SOL     OW 4313   2.406   6.915  14.556
67494SOL    HW1 4314   2.345   6.980  14.521
67494SOL    HW2 4315   2.458   6.964  14.620
67495SOL     OW 4316   9.426   8.801   9.502
67495SOL    HW1 4317   9.451   8.710   9.487
67495SOL    HW2 4318   9.489   8.833   9.567
67496SOL     OW 4319   5.034   9.352   6.911
67496SOL    HW1 4320   5.089   9.297   6.856
67496SOL    HW2 4321   4.946   9.342   6.874
67497SOL     OW 4322   6.125   2.032  12.812
67497SOL    HW1 4323   6.171   1.996  12.888
67497SOL    HW2 4324   6.156   1.980  12.738
67498SOL     OW 4325  14.577  11.229   7.858
67498SOL    HW1 4326  14.567  11.259   7.767
67498SOL    HW2 4327  14.524  11.290   7.909
67499SOL     OW 4328  11.451   3.400   1.518
67499SOL    HW1 4329  11.409   3.434   1.597
67499SOL    HW2 4330  11.387   3.414   1.448
67500SOL     OW 4331  10.777  11.170  10.626
67500SOL    HW1 4332  10.803  11.261  10.610
67500SOL    HW2 4333  10.729  11.144  10.547
67501SOL     OW 4334   2.026   9.203   3.736
67501SOL    HW1 4335   2.118   9.224   3.755
67501SOL    HW2 4336   2.003   9.263   3.665
67502SOL     OW 4337   3.066  11.834   7.677
67502SOL    HW1 4338   3.148  11.824   7.725
67502SOL    HW2 4339   3.015  11.756   7.700
67503SOL     OW 4340   6.430   0.542  11.728
67503SOL    HW1 4341   6.487   0.520  11.655
67503SOL    HW2 4342   6.449   0.634  11.747
67504SOL     OW 4343   3.251   6.336  10.519
67504SOL    HW1 4344   3.171   6.364  10.563
67504SOL    HW2 4345   3.258   6.392  10.442
67505SOL     OW 4346   3.781  12.529   9.855
67505SOL    HW1 4347   3.708  12.571   9.812
67505SOL    HW2 4348   3.835  12.495   9.784
67506SOL     OW 4349  14.218   6.193  10.903
67506SOL    HW1 4350  14.219   6.099  10.922
67506SOL    HW2 4351  14.125   6.215  10.897
67507SOL     OW 4352   9.531  12.924   1.844
67507SOL    HW1 4353   9.520  12.947   1.937
67507SOL    HW2 4354   9.624  12.935   1.827
67508SOL     OW 4355   4.118   0.555   0.020
67508SOL    HW1 4356   4.168   0.578  14.814
67508SOL    HW2 4357   4.029   0.539  14.859
67509SOL     OW 4358   5.871  10.177   5.502
67509SOL    HW1 4359   5.793  10.204   5.452
67509SOL    HW2 4360   5.926  10.132   5.438
67510SOL     OW 4361  13.786   2.702  13.592
67510SOL    HW1 4362  13.743   2.782  13.623
67510SOL    HW2 4363  13.757   2.634  13.652
67511SOL     OW 4364   0.853  12.441   5.058
67511SOL    HW1 4365   0.932  12.494   5.063
67511SOL    HW2 4366   0.782  12.503   5.042
67512SOL     OW 4367  14.451   4.784   1.373
67512SOL    HW1 4368  14.536   4.817   1.401
67512SOL    HW2 4369  14.437   4.823   1.287
67513SOL     OW 4370  12.475   2.136   4.128
67513SOL    HW1 4371  12.457   2.046   4.103
67513SOL    HW2 4372  12.403   2.161   4.186
67514SOL     OW 4373  10.305   9.717   2.392
67514SOL    HW1 4374  10.210   9.713   2.393
67514SOL    HW2 4375  10.332   9.642   2.340
67515SOL     OW 4376   5.309   2.540  12.538
67515SOL    HW1 4377   5.349   2.463  12.497
67515SOL    HW2 4378   5.230   2.506  12.580
67516SOL     OW 4379   8.201  14.110  11.042
67516SOL    HW1 4380   8.237  14.157  11.117
67516SOL    HW2 4381   8.107  14.124  11.048
67517SOL     OW 4382   8.626   6.520   9.492
67517SOL    HW1 4383   8.540   6.546   9.526
67517SOL    HW2 4384   8.606   6.454   9.425
67518SOL     OW 4385   3.492   1.947  12.188
67518SOL    HW1 4386   3.544   1.983  12.117
67518SOL    HW2 4387   3.403   1.977  12.170
67519SOL     OW 4388   4.300   0.887   5.144
67519SOL    HW1 4389   4.234   0.943   5.185
67519SOL    HW2 4390   4.253   0.841   5.074
67520SOL     OW 4391  10.366  11.802   3.270
67520SOL    HW1 4392  10.277  11.795   3.304
67520SOL    HW2 4393  10.370  11.736   3.201
67521SOL     OW 4394  13.343  10.396   5.910
67521SOL    HW1 4395  13.426  10.353   5.932
67521SOL    HW2 4396  13.364  10.450   5.834
67522SOL     OW 4397   8.581   1.271   0.487
67522SOL    HW1 4398   8.648   1.211   0.456
67522SOL    HW2 4399   8.627   1.355   0.496
67523SOL     OW 4400   9.962   0.407   6.192
67523SOL    HW1 4401  10.030   0.374   6.251
67523SOL    HW2 4402   9.989   0.376   6.105
67524SOL     OW 4403   9.928   0.039   4.086
67524SOL    HW1 4404   9.959  14.829   4.046
67524SOL    HW2 4405   9.986   0.106   4.050
67525SOL     OW 4406   7.888  10.844   1.730
67525SOL    HW1 4407   7.844  10.899   1.794
67525SOL    HW2 4408   7.974  10.827   1.768
67526SOL     OW 4409   9.868   0.981  12.059
67526SOL    HW1 4410   9.893   0.890  12.079
67526SOL    HW2 4411   9.828   0.976  11.972
67527SOL     OW 4412  13.531   8.588   4.235
67527SOL    HW1 4413  13.479   8.548   4.305
67527SOL    HW2 4414  13.619   8.552   4.247
67528SOL     OW 4415   1.424   4.984   5.083
67528SOL    HW1 4416   1.349   5.038   5.105
67528SOL    HW2 4417   1.418   4.909   5.143
67529SOL     OW 4418  13.379  11.903   7.423
67529SOL    HW1 4419  13.426  11.929   7.344
67529SOL    HW2 4420  13.327  11.980   7.446
67530SOL     OW 4421   0.152  14.754  10.184
67530SOL    HW1 4422   0.093  14.826  10.162
67530SOL    HW2 4423   0.171  14.712  10.101
67531SOL     OW 4424  13.338   1.887  11.825
67531SOL    HW1 4425  13.422   1.933  11.823
67531SOL    HW2 4426  13.352   1.810  11.770
67532SOL     OW 4427   6.365   3.067   0.718
67532SOL    HW1 4428   6.423   3.096   0.789
67532SOL    HW2 4429   6.363   2.972   0.725
67533SOL     OW 4430   7.046  10.900   0.886
67533SOL    HW1 4431   7.104  10.860   0.951
67533SOL    HW2 4432   7.105  10.947   0.826
67534SOL     OW 4433  11.088   3.823   7.794
67534SOL    HW1 4434  11.114   3.805   7.704
67534SOL    HW2 4435  10.997   3.853   7.787
67535SOL     OW 4436  11.195  13.041   7.240
67535SOL    HW1 4437  11.171  13.133   7.229
67535SOL    HW2 4438  11.271  13.029   7.183
67536SOL     OW 4439   9.130  11.186   3.216
67536SOL    HW1 4440   9.067  11.145   3.276
67536SOL    HW2 4441   9.167  11.259   3.267
67537SOL     OW 4442  13.241   0.463  13.391
67537SOL    HW1 4443  13.170   0.456  13.454
67537SOL    HW2 4444  13.256   0.557  13.382
67538SOL     OW 4445   6.875  10.475   8.171
67538SOL    HW1 4446   6.958  10.517   8.193
67538SOL    HW2 4447   6.824  10.480   8.252
67539SOL     OW 4448   6.596   0.294   1.219
67539SOL    HW1 4449   6.659   0.227   1.190
67539SOL    HW2 4450   6.649   0.373   1.229
67540SOL     OW 4451   2.135   8.501   9.552
67540SOL    HW1 4452   2.141   8.405   9.556
67540SOL    HW2 4453   2.137   8.529   9.643
67541SOL     OW 4454   8.697  10.212   4.356
67541SOL    HW1 4455   8.783  10.243   4.326
67541SOL    HW2 4456   8.696  10.231   4.449
67542SOL     OW 4457   7.841   1.325   8.510
67542SOL    HW1 4458   7.786   1.278   8.447
67542SOL    HW2 4459   7.927   1.285   8.501
67543SOL     OW 4460   2.740  12.873  14.052
67543SOL    HW1 4461   2.815  12.929  14.034
67543SOL    HW2 4462   2.700  12.859  13.966
67544SOL     OW 4463  10.223   3.791  14.785
67544SOL    HW1 4464  10.193   3.729  14.851
67544SOL    HW2 4465  10.200   3.877  14.822
67545SOL     OW 4466   8.019   5.316   8.365
67545SOL    HW1 4467   7.997   5.397   8.320
67545SOL    HW2 4468   7.942   5.296   8.418
67546SOL     OW 4469   5.343   5.048   4.675
67546SOL    HW1 4470   5.248   5.037   4.684
67546SOL    HW2 4471   5.370   4.976   4.618
67547SOL     OW 4472   9.086   7.107   1.485
67547SOL    HW1 4473   9.162   7.088   1.429
67547SOL    HW2 4474   9.072   7.201   1.475
67548SOL     OW 4475  14.113   1.919  12.523
67548SOL    HW1 4476  14.207   1.902  12.530
67548SOL    HW2 4477  14.095   1.982  12.593
67549SOL     OW 4478   0.249   7.354   3.956
67549SOL    HW1 4479   0.226   7.270   3.996
67549SOL    HW2 4480   0.304   7.397   4.021
67550SOL     OW 4481   9.831   5.189   3.545
67550SOL    HW1 4482   9.812   5.102   3.579
67550SOL    HW2 4483   9.818   5.247   3.620
67551SOL     OW 4484  14.748   2.427   4.937
67551SOL    HW1 4485  14.674   2.433   4.997
67551SOL    HW2 4486  14.737   2.501   4.878
67552SOL     OW 4487  14.580   3.389   5.306
67552SOL    HW1 4488  14.566   3.335   5.228
67552SOL    HW2 4489  14.496   3.386   5.353
67553SOL     OW 4490   5.402   2.976  11.631
67553SOL    HW1 4491   5.441   2.892  11.656
67553SOL    HW2 4492   5.321   2.981  11.682
67554SOL     OW 4493  12.993   4.462   1.561
67554SOL    HW1 4494  13.009   4.368   1.572
67554SOL    HW2 4495  12.897   4.470   1.560
67555SOL     OW 4496   1.041  11.430   9.159
67555SOL    HW1 4497   1.019  11.455   9.069
67555SOL    HW2 4498   1.108  11.492   9.187
67556SOL     OW 4499  10.525   7.990  11.875
67556SOL    HW1 4500  10.479   7.949  11.801
67556SOL    HW2 4501  10.579   8.058  11.835
67557SOL     OW 4502   6.172   9.464  14.074
67557SOL    HW1 4503   6.187   9.372  14.097
67557SOL    HW2 4504   6.133   9.462  13.987
67558SOL     OW 4505   6.130   8.586  13.291
67558SOL    HW1 4506   6.102   8.677  13.301
67558SOL    HW2 4507   6.049   8.536  13.289
67559SOL     OW 4508  13.702  12.653  13.468
67559SOL    HW1 4509  13.770  12.632  13.532
67559SOL    HW2 4510  13.647  12.717  13.512
67560SOL     OW 4511  11.307   7.242   2.851
67560SOL    HW1 4512  11.310   7.198   2.766
67560SOL    HW2 4513  11.342   7.329   2.834
67561SOL     OW 4514   8.893   7.660  11.790
67561SOL    HW1 4515   8.968   7.720  11.793
67561SOL    HW2 4516   8.833   7.695  11.856
67562SOL     OW 4517  14.709  11.853   8.942
67562SOL    HW1 4518  14.774  11.854   8.872
67562SOL    HW2 4519  14.666  11.768   8.935
67563SOL     OW 4520   0.688  12.402  11.230
67563SOL    HW1 4521   0.709  12.384  11.322
67563SOL    HW2 4522   0.674  12.497  11.227
67564SOL     OW 4523  11.345  11.559  12.469
67564SOL    HW1 4524  11.325  11.481  12.520
67564SOL    HW2 4525  11.335  11.632  12.530
67565SOL     OW 4526  14.442  12.446  14.239
67565SOL    HW1 4527  14.393  12.525  14.261
67565SOL    HW2 4528  14.440  12.443  14.143
67566SOL     OW 4529   8.018   0.604   8.428
67566SOL    HW1 4530   7.980   0.518   8.409
67566SOL    HW2 4531   8.065   0.591   8.510
67567SOL     OW 4532   9.230   0.643   6.590
67567SOL    HW1 4533   9.255   0.583   6.660
67567SOL    HW2 4534   9.153   0.604   6.550
67568SOL     OW 4535  13.423   4.760   1.807
67568SOL    HW1 4536  13.360   4.695   1.775
67568SOL    HW2 4537  13.371   4.818   1.863
67569SOL     OW 4538   0.255   1.388   0.631
67569SOL    HW1 4539   0.336   1.390   0.579
67569SOL    HW2 4540   0.204   1.462   0.599
67570SOL     OW 4541  12.212   5.827   0.713
67570SOL    HW1 4542  12.146   5.796   0.651
67570SOL    HW2 4543  12.201   5.922   0.715
67571SOL     OW 4544  12.713  14.855   0.438
67571SOL    HW1 4545  12.719  14.806   0.356
67571SOL    HW2 4546  12.624   0.019   0.438
67572SOL     OW 4547   7.461   9.414  14.773
67572SOL    HW1 4548   7.402   9.468  14.826
67572SOL    HW2 4549   7.541   9.466  14.764
67573SOL     OW 4550   9.902   5.565  12.808
67573SOL    HW1 4551   9.889   5.635  12.744
67573SOL    HW2 4552   9.963   5.505  12.765
67574SOL     OW 4553  11.866  10.387   3.205
67574SOL    HW1 4554  11.866  10.340   3.288
67574SOL    HW2 4555  11.908  10.471   3.225
67575SOL     OW 4556  12.682   5.239   6.914
67575SOL    HW1 4557  12.591   5.254   6.890
67575SOL    HW2 4558  12.706   5.157   6.870
67576SOL     OW 4559   2.553  10.965  13.640
67576SOL    HW1 4560   2.610  11.040  13.659
67576SOL    HW2 4561   2.481  11.003  13.589
67577SOL     OW 4562   3.951   8.694   9.181
67577SOL    HW1 4563   3.976   8.738   9.099
67577SOL    HW2 4564   4.032   8.692   9.232
67578SOL     OW 4565  12.980  11.170   8.539
67578SOL    HW1 4566  12.962  11.260   8.512
67578SOL    HW2 4567  13.028  11.179   8.622
67579SOL     OW 4568   1.117  14.311  14.256
67579SOL    HW1 4569   1.048  14.256  14.294
67579SOL    HW2 4570   1.161  14.350  14.331
67580SOL     OW 4571   8.901   4.576   3.282
67580SOL    HW1 4572   8.909   4.671   3.274
67580SOL    HW2 4573   8.812   4.562   3.314
67581SOL     OW 4574  10.579  14.361   2.102
67581SOL    HW1 4575  10.673  14.371   2.085
67581SOL    HW2 4576  10.569  14.381   2.195
67582SOL     OW 4577   4.872   7.939   1.527
67582SOL    HW1 4578   4.927   7.880   1.475
67582SOL    HW2 4579   4.794   7.952   1.473
67583SOL     OW 4580   3.614  13.496   4.892
67583SOL    HW1 4581   3.707  13.495   4.914
67583SOL    HW2 4582   3.570  13.491   4.977
67584SOL     OW 4583   2.551   9.376   9.284
67584SOL    HW1 4584   2.459   9.350   9.290
67584SOL    HW2 4585   2.560   9.449   9.346
67585SOL     OW 4586   2.746  14.539  13.188
67585SOL    HW1 4587   2.721  14.609  13.128
67585SOL    HW2 4588   2.720  14.572  13.275
67586SOL     OW 4589  12.009   1.220   3.692
67586SOL    HW1 4590  11.947   1.287   3.665
67586SOL    HW2 4591  12.040   1.249   3.778
67587SOL     OW 4592   4.180  11.572   8.928
67587SOL    HW1 4593   4.202  11.662   8.953
67587SOL    HW2 4594   4.183  11.573   8.832
67588SOL     OW 4595   1.369   5.041   8.512
67588SOL    HW1 4596   1.324   4.985   8.575
67588SOL    HW2 4597   1.388   4.983   8.438
67589SOL     OW 4598   2.611   8.827  14.777
67589SOL    HW1 4599   2.599   8.822  14.872
67589SOL    HW2 4600   2.535   8.782  14.740
67590SOL     OW 4601  14.207  10.474  13.179
67590SOL    HW1 4602  14.139  10.540  13.192
67590SOL    HW2 4603  14.241  10.456  13.266
67591SOL     OW 4604   0.267   1.851   8.666
67591SOL    HW1 4605   0.328   1.800   8.718
67591SOL    HW2 4606   0.274   1.815   8.578
67592SOL     OW 4607  10.147  13.721   3.246
67592SOL    HW1 4608  10.085  13.648   3.248
67592SOL    HW2 4609  10.173  13.733   3.337
67593SOL     OW 4610   7.274   1.004   0.094
67593SOL    HW1 4611   7.350   1.058   0.116
67593SOL    HW2 4612   7.301   0.915   0.117
67594SOL     OW 4613  12.180   6.323   8.785
67594SOL    HW1 4614  12.179   6.273   8.867
67594SOL    HW2 4615  12.101   6.297   8.739
67595SOL     OW 4616   9.898  11.899  12.952
67595SOL    HW1 4617   9.876  11.993  12.956
67595SOL    HW2 4618   9.993  11.896  12.960
67596SOL     OW 4619  13.636   7.434   3.805
67596SOL    HW1 4620  13.564   7.374   3.786
67596SOL    HW2 4621  13.711   7.398   3.757
67597SOL     OW 4622  13.677   9.161   2.832
67597SOL    HW1 4623  13.585   9.165   2.856
67597SOL    HW2 4624  13.721   9.215   2.898
67598SOL     OW 4625   6.264   6.149  10.974
67598SOL    HW1 4626   6.276   6.079  10.910
67598SOL    HW2 4627   6.296   6.228  10.930
67599SOL     OW 4628  13.394  11.193  13.947
67599SOL    HW1 4629  13.475  11.161  13.989
67599SOL    HW2 4630  13.378  11.131  13.875
67600SOL     OW 4631  11.457  14.599   0.446
67600SOL    HW1 4632  11.508  14.562   0.518
67600SOL    HW2 4633  11.489  14.689   0.438
67601SOL     OW 4634  11.899   3.218   8.477
67601SOL    HW1 4635  11.876   3.308   8.502
67601SOL    HW2 4636  11.855   3.163   8.542
67602SOL     OW 4637   4.649   0.924   3.672
67602SOL    HW1 4638   4.699   0.851   3.709
67602SOL    HW2 4639   4.710   0.998   3.673
67603SOL     OW 4640   4.082   7.478   0.293
67603SOL    HW1 4641   4.020   7.494   0.365
67603SOL    HW2 4642   4.168   7.494   0.332
67604SOL     OW 4643   2.593   9.702   5.547
67604SOL    HW1 4644   2.677   9.714   5.592
67604SOL    HW2 4645   2.567   9.613   5.568
67605SOL     OW 4646   7.876   8.269  11.713
67605SOL    HW1 4647   7.831   8.335  11.766
67605SOL    HW2 4648   7.889   8.195  11.773
67606SOL     OW 4649  11.493  14.860   0.463
67606SOL    HW1 4650  11.552  14.868   0.538
67606SOL    HW2 4651  11.534   0.040   0.394
67607SOL     OW 4652   1.830  12.493   1.782
67607SOL    HW1 4653   1.905  12.455   1.736
67607SOL    HW2 4654   1.767  12.514   1.712
67608SOL     OW 4655   5.832   9.199  13.594
67608SOL    HW1 4656   5.842   9.178  13.501
67608SOL    HW2 4657   5.895   9.142  13.639
67609SOL     OW 4658  11.005   8.899   5.227
67609SOL    HW1 4659  11.039   8.988   5.236
67609SOL    HW2 4660  11.017   8.860   5.314
67610SOL     OW 4661   9.674   9.739  10.017
67610SOL    HW1 4662   9.741   9.778   9.961
67610SOL    HW2 4663   9.594   9.789   9.997
67611SOL     OW 4664   8.187  14.649  11.471
67611SOL    HW1 4665   8.190  14.691  11.557
67611SOL    HW2 4666   8.276  14.618  11.456
67612SOL     OW 4667  13.259   9.715  12.056
67612SOL    HW1 4668  13.217   9.791  12.098
67612SOL    HW2 4669  13.204   9.697  11.980
67613SOL     OW 4670   9.673   6.915   1.845
67613SOL    HW1 4671   9.600   6.954   1.796
67613SOL    HW2 4672   9.711   6.851   1.785
67614SOL     OW 4673   4.382   1.113  10.277
67614SOL    HW1 4674   4.471   1.105  10.310
67614SOL    HW2 4675   4.331   1.052  10.330
67615SOL     OW 4676   6.192   2.755   2.613
67615SOL    HW1 4677   6.139   2.799   2.546
67615SOL    HW2 4678   6.282   2.762   2.581
67616SOL     OW 4679   5.734  14.594   9.889
67616SOL    HW1 4680   5.779  14.658   9.944
67616SOL    HW2 4681   5.692  14.535   9.952
67617SOL     OW 4682  10.090   2.082  10.713
67617SOL    HW1 4683  10.001   2.114  10.729
67617SOL    HW2 4684  10.131   2.079  10.800
67618SOL     OW 4685  13.831   7.754   0.741
67618SOL    HW1 4686  13.823   7.823   0.675
67618SOL    HW2 4687  13.822   7.799   0.824
67619SOL     OW 4688   8.293  13.412   1.193
67619SOL    HW1 4689   8.237  13.399   1.116
67619SOL    HW2 4690   8.291  13.506   1.209
67620SOL     OW 4691   7.358   1.356   9.675
67620SOL    HW1 4692   7.270   1.388   9.655
67620SOL    HW2 4693   7.407   1.370   9.594
67621SOL     OW 4694   9.875   3.974   2.798
67621SOL    HW1 4695   9.838   4.052   2.756
67621SOL    HW2 4696   9.799   3.925   2.829
67622SOL     OW 4697  12.619   6.894   1.638
67622SOL    HW1 4698  12.689   6.866   1.697
67622SOL    HW2 4699  12.590   6.813   1.596
67623SOL     OW 4700  14.029  13.523   2.031
67623SOL    HW1 4701  13.962  13.508   2.098
67623SOL    HW2 4702  14.087  13.589   2.071
67624SOL     OW 4703   1.384   1.866  13.478
67624SOL    HW1 4704   1.307   1.854  13.423
67624SOL    HW2 4705   1.360   1.935  13.540
67625SOL     OW 4706   5.000   9.566   6.253
67625SOL    HW1 4707   5.049   9.625   6.310
67625SOL    HW2 4708   5.031   9.479   6.277
67626SOL     OW 4709  12.117   1.263  11.013
67626SOL    HW1 4710  12.190   1.218  10.970
67626SOL    HW2 4711  12.159   1.331  11.066
67627SOL     OW 4712  13.154   5.716   7.854
67627SOL    HW1 4713  13.243   5.712   7.821
67627SOL    HW2 4714  13.156   5.664   7.935
67628SOL     OW 4715   8.027   3.806   6.724
67628SOL    HW1 4716   8.105   3.820   6.778
67628SOL    HW2 4717   7.957   3.793   6.787
67629SOL     OW 4718  10.459   1.244   4.131
67629SOL    HW1 4719  10.485   1.256   4.040
67629SOL    HW2 4720  10.439   1.333   4.162
67630SOL     OW 4721   8.616   2.743   5.126
67630SOL    HW1 4722   8.618   2.661   5.076
67630SOL    HW2 4723   8.525   2.752   5.154
67631SOL     OW 4724   7.729  11.641   0.601
67631SOL    HW1 4725   7.670  11.645   0.676
67631SOL    HW2 4726   7.813  11.672   0.634
67632SOL     OW 4727  14.469   7.554   1.016
67632SOL    HW1 4728  14.501   7.547   0.926
67632SOL    HW2 4729  14.376   7.530   1.009
67633SOL     OW 4730  12.657   5.159   3.714
67633SOL    HW1 4731  12.653   5.177   3.808
67633SOL    HW2 4732  12.602   5.226   3.674
67634SOL     OW 4733  11.041   6.520   2.918
67634SOL    HW1 4734  11.104   6.499   2.986
67634SOL    HW2 4735  11.083   6.590   2.867
67635SOL     OW 4736   3.618  13.491   1.176
67635SOL    HW1 4737   3.531  13.479   1.213
67635SOL    HW2 4738   3.602  13.531   1.091
67636SOL     OW 4739   3.759  10.733   8.053
67636SOL    HW1 4740   3.686  10.777   8.010
67636SOL    HW2 4741   3.790  10.668   7.988
67637SOL     OW 4742   1.040   8.976   7.271
67637SOL    HW1 4743   0.996   9.061   7.277
67637SOL    HW2 4744   1.116   8.991   7.215
67638SOL     OW 4745   5.297   0.195   7.199
67638SOL    HW1 4746   5.349   0.149   7.134
67638SOL    HW2 4747   5.284   0.131   7.269
67639SOL     OW 4748  14.844   6.268  14.458
67639SOL    HW1 4749  14.844   6.322  14.537
67639SOL    HW2 4750   0.017   6.188  14.484
67640SOL     OW 4751   5.704   4.496   9.556
67640SOL    HW1 4752   5.620   4.527   9.590
67640SOL    HW2 4753   5.693   4.401   9.548
67641SOL     OW 4754   3.277   3.356  14.276
67641SOL    HW1 4755   3.326   3.329  14.198
67641SOL    HW2 4756   3.336   3.337  14.349
67642SOL     OW 4757   8.260  14.263  13.671
67642SOL    HW1 4758   8.318  14.224  13.605
67642SOL    HW2 4759   8.237  14.190  13.728
67643SOL     OW 4760  14.385   6.457   6.858
67643SOL    HW1 4761  14.400   6.393   6.788
67643SOL    HW2 4762  14.427   6.419   6.935
67644SOL     OW 4763  13.171  12.718   2.443
67644SOL    HW1 4764  13.177  12.696   2.536
67644SOL    HW2 4765  13.097  12.779   2.438
67645SOL     OW 4766  10.526  14.615  10.241
67645SOL    HW1 4767  10.589  14.547  10.265
67645SOL    HW2 4768  10.576  14.697  10.246
67646SOL     OW 4769   1.633   6.960   9.736
67646SOL    HW1 4770   1.556   6.974   9.681
67646SOL    HW2 4771   1.614   7.009   9.817
67647SOL     OW 4772   3.060   4.289  13.376
67647SOL    HW1 4773   2.976   4.333  13.382
67647SOL    HW2 4774   3.123   4.353  13.410
67648SOL     OW 4775  13.948   0.562   3.251
67648SOL    HW1 4776  13.887   0.592   3.318
67648SOL    HW2 4777  13.896   0.508   3.192
67649SOL     OW 4778   2.895   7.299   3.729
67649SOL    HW1 4779   2.911   7.385   3.768
67649SOL    HW2 4780   2.968   7.285   3.669
67650SOL     OW 4781   9.753   2.347  10.544
67650SOL    HW1 4782   9.800   2.338  10.461
67650SOL    HW2 4783   9.661   2.332  10.521
67651SOL     OW 4784   3.932   4.838   9.535
67651SOL    HW1 4785   3.840   4.847   9.562
67651SOL    HW2 4786   3.961   4.757   9.577
67652SOL     OW 4787   3.826  10.902   0.773
67652SOL    HW1 4788   3.751  10.843   0.770
67652SOL    HW2 4789   3.827  10.943   0.687
67653SOL     OW 4790  14.323  14.438   1.287
67653SOL    HW1 4791  14.231  14.446   1.310
67653SOL    HW2 4792  14.324  14.378   1.212
67654SOL     OW 4793   0.055  10.160  13.101
67654SOL    HW1 4794   0.131  10.213  13.075
67654SOL    HW2 4795  14.866  10.223  13.139
67655SOL     OW 4796  13.961   9.772  13.381
67655SOL    HW1 4797  13.900   9.837  13.415
67655SOL    HW2 4798  13.909   9.692  13.375
67656SOL     OW 4799  12.238   5.751  11.871
67656SOL    HW1 4800  12.157   5.709  11.900
67656SOL    HW2 4801  12.219   5.845  11.874
67657SOL     OW 4802  13.054  14.453   5.975
67657SOL    HW1 4803  13.006  14.423   6.052
67657SOL    HW2 4804  12.987  14.459   5.906
67658SOL     OW 4805   0.352  12.765   8.119
67658SOL    HW1 4806   0.443  12.769   8.090
67658SOL    HW2 4807   0.304  12.817   8.054
67659SOL     OW 4808   5.607   7.862   0.260
67659SOL    HW1 4809   5.582   7.807   0.185
67659SOL    HW2 4810   5.674   7.921   0.225
67660SOL     OW 4811   8.608   3.086   9.272
67660SOL    HW1 4812   8.642   3.098   9.183
67660SOL    HW2 4813   8.543   3.016   9.264
67661SOL     OW 4814   2.339  14.852   6.113
67661SOL    HW1 4815   2.380  14.787   6.170
67661SOL    HW2 4816   2.391  14.851   6.033
67662SOL     OW 4817  14.718   7.430  11.109
67662SOL    HW1 4818  14.780   7.358  11.102
67662SOL    HW2 4819  14.719   7.454  11.201
67663SOL     OW 4820   2.271   4.090   0.921
67663SOL    HW1 4821   2.264   4.118   0.830
67663SOL    HW2 4822   2.302   4.000   0.917
67664SOL     OW 4823   2.741   7.788   7.582
67664SOL    HW1 4824   2.733   7.861   7.644
67664SOL    HW2 4825   2.655   7.746   7.584
67665SOL     OW 4826   7.763   0.263  11.818
67665SOL    HW1 4827   7.726   0.292  11.901
67665SOL    HW2 4828   7.729   0.174  11.806
67666SOL     OW 4829  14.345  10.500  10.809
67666SOL    HW1 4830  14.272  10.465  10.758
67666SOL    HW2 4831  14.385  10.422  10.849
67667SOL     OW 4832   1.613   5.110  13.514
67667SOL    HW1 4833   1.617   5.027  13.560
67667SOL    HW2 4834   1.633   5.089  13.423
67668SOL     OW 4835   1.526   8.328  12.379
67668SOL    HW1 4836   1.440   8.370  12.382
67668SOL    HW2 4837   1.582   8.384  12.434
67669SOL     OW 4838   7.355   3.217   3.972
67669SOL    HW1 4839   7.299   3.293   3.956
67669SOL    HW2 4840   7.323   3.181   4.055
67670SOL     OW 4841   5.379  11.452   4.235
67670SOL    HW1 4842   5.341  11.408   4.311
67670SOL    HW2 4843   5.469  11.472   4.262
67671SOL     OW 4844   7.180  13.862  13.704
67671SOL    HW1 4845   7.218  13.939  13.748
67671SOL    HW2 4846   7.206  13.788  13.759
67672SOL     OW 4847  13.965  12.347  13.916
67672SOL    HW1 4848  13.991  12.432  13.883
67672SOL    HW2 4849  13.944  12.296  13.838
67673SOL     OW 4850   6.270   0.571  14.214
67673SOL    HW1 4851   6.283   0.476  14.219
67673SOL    HW2 4852   6.220   0.584  14.133
67674SOL     OW 4853  12.503  12.262  11.343
67674SOL    HW1 4854  12.418  12.227  11.368
67674SOL    HW2 4855  12.490  12.356  11.336
67675SOL     OW 4856   7.834  10.646   5.062
67675SOL    HW1 4857   7.740  10.630   5.063
67675SOL    HW2 4858   7.843  10.737   5.036
67676SOL     OW 4859   1.655  13.370   3.699
67676SOL    HW1 4860   1.695  13.289   3.729
67676SOL    HW2 4861   1.728  13.433   3.696
67677SOL     OW 4862   6.572  11.108   6.223
67677SOL    HW1 4863   6.616  11.114   6.307
67677SOL    HW2 4864   6.567  11.198   6.192
67678SOL     OW 4865  12.517   1.279  14.306
67678SOL    HW1 4866  12.463   1.220  14.358
67678SOL    HW2 4867  12.604   1.240  14.308
67679SOL     OW 4868   7.970  13.348   2.608
67679SOL    HW1 4869   7.902  13.411   2.634
67679SOL    HW2 4870   8.040  13.402   2.572
67680SOL     OW 4871   8.051  14.667   7.141
67680SOL    HW1 4872   8.012  14.586   7.174
67680SOL    HW2 4873   8.129  14.681   7.195
67681SOL     OW 4874   1.327  10.753   0.126
67681SOL    HW1 4875   1.419  10.767   0.148
67681SOL    HW2 4876   1.319  10.658   0.115
67682SOL     OW 4877   2.870   7.630  11.131
67682SOL    HW1 4878   2.887   7.720  11.159
67682SOL    HW2 4879   2.786   7.608  11.172
67683SOL     OW 4880   2.571  10.304   6.792
67683SOL    HW1 4881   2.654  10.306   6.744
67683SOL    HW2 4882   2.544  10.396   6.796
67684SOL     OW 4883   1.652  13.410  13.836
67684SOL    HW1 4884   1.609  13.405  13.751
67684SOL    HW2 4885   1.630  13.496  13.870
67685SOL     OW 4886  14.565   3.208   4.075
67685SOL    HW1 4887  14.648   3.187   4.117
67685SOL    HW2 4888  14.586   3.281   4.016
67686SOL     OW 4889   5.896   9.409   8.496
67686SOL    HW1 4890   5.877   9.343   8.563
67686SOL    HW2 4891   5.965   9.463   8.535
67687SOL     OW 4892  13.255   1.909  10.480
67687SOL    HW1 4893  13.228   1.829  10.435
67687SOL    HW2 4894  13.175   1.943  10.519
67688SOL     OW 4895   5.674  14.590   6.706
67688SOL    HW1 4896   5.593  14.551   6.673
67688SOL    HW2 4897   5.734  14.587   6.632
67689SOL     OW 4898   0.784   5.872   1.746
67689SOL    HW1 4899   0.869   5.862   1.702
67689SOL    HW2 4900   0.751   5.957   1.716
67690SOL     OW 4901   2.641   8.528   7.565
67690SOL    HW1 4902   2.708   8.590   7.539
67690SOL    HW2 4903   2.673   8.491   7.647
67691SOL     OW 4904   5.769  12.849   8.667
67691SOL    HW1 4905   5.836  12.916   8.681
67691SOL    HW2 4906   5.692  12.883   8.712
67692SOL     OW 4907   9.033  14.013   7.577
67692SOL    HW1 4908   8.950  13.994   7.621
67692SOL    HW2 4909   9.053  14.104   7.601
67693SOL     OW 4910   0.019   8.545   9.739
67693SOL    HW1 4911  14.825   8.578   9.679
67693SOL    HW2 4912   0.083   8.501   9.682
67694SOL     OW 4913  13.909   4.017   1.489
67694SOL    HW1 4914  13.892   4.103   1.526
67694SOL    HW2 4915  13.954   3.969   1.558
67695SOL     OW 4916   4.486  10.637  13.653
67695SOL    HW1 4917   4.567  10.589  13.673
67695SOL    HW2 4918   4.502  10.676  13.567
67696SOL     OW 4919  10.038   9.204  12.232
67696SOL    HW1 4920  10.049   9.175  12.141
67696SOL    HW2 4921  10.119   9.250  12.252
67697SOL     OW 4922   1.867   0.875   8.706
67697SOL    HW1 4923   1.838   0.835   8.788
67697SOL    HW2 4924   1.790   0.872   8.649
67698SOL     OW 4925  10.767  13.825   1.834
67698SOL    HW1 4926  10.720  13.908   1.833
67698SOL    HW2 4927  10.703  13.762   1.867
67699SOL     OW 4928  13.653  13.048   8.561
67699SOL    HW1 4929  13.660  13.139   8.532
67699SOL    HW2 4930  13.565  13.021   8.532
67700SOL     OW 4931   8.088   1.554   0.700
67700SOL    HW1 4932   8.128   1.482   0.651
67700SOL    HW2 4933   7.999   1.561   0.665
67701SOL     OW 4934   1.402  14.113  10.402
67701SOL    HW1 4935   1.369  14.023  10.397
67701SOL    HW2 4936   1.338  14.166  10.356
67702SOL     OW 4937   2.501  10.140   9.093
67702SOL    HW1 4938   2.539  10.053   9.080
67702SOL    HW2 4939   2.553  10.198   9.037
67703SOL     OW 4940   9.615  13.255  14.723
67703SOL    HW1 4941   9.706  13.250  14.695
67703SOL    HW2 4942   9.567  13.282  14.645
67704SOL     OW 4943  12.927   3.688  10.810
67704SOL    HW1 4944  12.873   3.645  10.743
67704SOL    HW2 4945  12.959   3.767  10.767
67705SOL     OW 4946   2.253  12.615  10.027
67705SOL    HW1 4947   2.233  12.603   9.934
67705SOL    HW2 4948   2.337  12.570  10.039
67706SOL     OW 4949  12.930   0.539   6.347
67706SOL    HW1 4950  12.939   0.585   6.263
67706SOL    HW2 4951  12.905   0.450   6.323
67707SOL     OW 4952   8.982   4.557  10.254
67707SOL    HW1 4953   8.966   4.506  10.174
67707SOL    HW2 4954   9.063   4.605  10.236
67708SOL     OW 4955   2.358   0.731   8.587
67708SOL    HW1 4956   2.439   0.781   8.577
67708SOL    HW2 4957   2.383   0.642   8.564
67709SOL     OW 4958  10.384   6.986   6.224
67709SOL    HW1 4959  10.361   6.917   6.163
67709SOL    HW2 4960  10.458   7.031   6.183
67710SOL     OW 4961  13.285   4.484   7.398
67710SOL    HW1 4962  13.344   4.416   7.429
67710SOL    HW2 4963  13.202   4.465   7.441
67711SOL     OW 4964  11.077  12.834   1.964
67711SOL    HW1 4965  11.040  12.758   1.919
67711SOL    HW2 4966  11.070  12.812   2.057
67712SOL     OW 4967   7.173   6.511  11.519
67712SOL    HW1 4968   7.152   6.601  11.494
67712SOL    HW2 4969   7.094   6.478  11.562
67713SOL     OW 4970   8.408  10.977   2.236
67713SOL    HW1 4971   8.475  11.004   2.173
67713SOL    HW2 4972   8.456  10.939   2.309
67714SOL     OW 4973  10.913   4.833   8.834
67714SOL    HW1 4974  10.821   4.831   8.808
67714SOL    HW2 4975  10.950   4.753   8.797
67715SOL     OW 4976   3.252   0.873   5.720
67715SOL    HW1 4977   3.208   0.816   5.782
67715SOL    HW2 4978   3.186   0.938   5.696
67716SOL     OW 4979  13.261   1.019   0.249
67716SOL    HW1 4980  13.301   1.096   0.288
67716SOL    HW2 4981  13.307   0.945   0.289
67717SOL     OW 4982   4.205   5.674   2.009
67717SOL    HW1 4983   4.237   5.751   2.056
67717SOL    HW2 4984   4.254   5.674   1.926
67718SOL     OW 4985  14.661   2.987   5.187
67718SOL    HW1 4986  14.683   3.066   5.236
67718SOL    HW2 4987  14.677   3.011   5.095
67719SOL     OW 4988   2.561  10.174  13.189
67719SOL    HW1 4989   2.595  10.107  13.248
67719SOL    HW2 4990   2.475  10.196  13.223
67720SOL     OW 4991   2.571  12.510   1.506
67720SOL    HW1 4992   2.547  12.496   1.597
67720SOL    HW2 4993   2.661  12.477   1.499
67721SOL     OW 4994   6.531   4.695   3.652
67721SOL    HW1 4995   6.466   4.711   3.584
67721SOL    HW2 4996   6.609   4.742   3.622
67722SOL     OW 4997  12.018   5.021  14.766
67722SOL    HW1 4998  11.931   5.058  14.749
67722SOL    HW2 4999  12.004   4.927  14.769
67723SOL     OW 5000  12.759  10.424  12.511
67723SOL    HW1 5001  12.739  10.514  12.538
67723SOL    HW2 5002  12.704  10.409  12.435
67724SOL     OW 5003  11.961   2.855   9.892
67724SOL    HW1 5004  11.892   2.848   9.957
67724SOL    HW2 5005  11.957   2.774   9.842
67725SOL     OW 5006   7.070   2.867   6.738
67725SOL    HW1 5007   7.155   2.890   6.776
67725SOL    HW2 5008   7.083   2.874   6.644
67726SOL     OW 5009   3.046  14.770   9.129
67726SOL    HW1 5010   2.963  14.765   9.177
67726SOL    HW2 5011   3.080  14.856   9.150
67727SOL     OW 5012   9.184  10.997  14.635
67727SOL    HW1 5013   9.138  10.913  14.643
67727SOL    HW2 5014   9.121  11.055  14.592
67728SOL     OW 5015  12.751   7.301   8.826
67728SOL    HW1 5016  12.794   7.307   8.741
67728SOL    HW2 5017  12.797   7.230   8.872
67729SOL     OW 5018   4.312   6.368   5.564
67729SOL    HW1 5019   4.292   6.451   5.522
67729SOL    HW2 5020   4.399   6.344   5.531
67730SOL     OW 5021  13.057   7.472   0.382
67730SOL    HW1 5022  13.135   7.438   0.425
67730SOL    HW2 5023  13.065   7.567   0.392
67731SOL     OW 5024   8.361  14.057   4.339
67731SOL    HW1 5025   8.357  14.143   4.297
67731SOL    HW2 5026   8.281  14.052   4.391
67732SOL     OW 5027   3.866   3.154   8.888
67732SOL    HW1 5028   3.861   3.243   8.922
67732SOL    HW2 5029   3.946   3.152   8.836
67733SOL     OW 5030  14.271   8.282   1.227
67733SOL    HW1 5031  14.277   8.223   1.302
67733SOL    HW2 5032  14.309   8.365   1.258
67734SOL     OW 5033  10.458   4.779   1.751
67734SOL    HW1 5034  10.410   4.827   1.819
67734SOL    HW2 5035  10.412   4.799   1.670
67735SOL     OW 5036   2.932   7.656  14.809
67735SOL    HW1 5037   2.909   7.638  14.718
67735SOL    HW2 5038   2.981   7.579  14.837
67736SOL     OW 5039  10.978  11.277   6.650
67736SOL    HW1 5040  10.918  11.269   6.723
67736SOL    HW2 5041  10.963  11.365   6.615
67737SOL     OW 5042   4.656  14.692   4.135
67737SOL    HW1 5043   4.723  14.735   4.187
67737SOL    HW2 5044   4.644  14.749   4.059
67738SOL     OW 5045   1.453  13.956   2.606
67738SOL    HW1 5046   1.485  13.899   2.676
67738SOL    HW2 5047   1.477  14.044   2.634
67739SOL     OW 5048   4.317  11.132   2.664
67739SOL    HW1 5049   4.301  11.083   2.745
67739SOL    HW2 5050   4.392  11.087   2.624
67740SOL     OW 5051   7.676  10.300   5.788
67740SOL    HW1 5052   7.641  10.213   5.766
67740SOL    HW2 5053   7.767  10.283   5.814
67741SOL     OW 5054   8.587   7.685   0.659
67741SOL    HW1 5055   8.604   7.776   0.633
67741SOL    HW2 5056   8.587   7.636   0.576
67742SOL     OW 5057   9.457   5.244   4.604
67742SOL    HW1 5058   9.428   5.172   4.548
67742SOL    HW2 5059   9.454   5.322   4.547
67743SOL     OW 5060  13.563  11.589   8.493
67743SOL    HW1 5061  13.658  11.579   8.478
67743SOL    HW2 5062  13.524  11.576   8.407
67744SOL     OW 5063   6.473   7.512  12.144
67744SOL    HW1 5064   6.533   7.479  12.077
67744SOL    HW2 5065   6.391   7.463  12.129
67745SOL     OW 5066   4.956   3.431  11.343
67745SOL    HW1 5067   4.925   3.406  11.430
67745SOL    HW2 5068   5.029   3.372  11.325
67746SOL     OW 5069  12.880  11.306   3.778
67746SOL    HW1 5070  12.825  11.304   3.700
67746SOL    HW2 5071  12.912  11.216   3.788
67747SOL     OW 5072   4.723   3.675   0.650
67747SOL    HW1 5073   4.740   3.685   0.743
67747SOL    HW2 5074   4.794   3.620   0.618
67748SOL     OW 5075   1.681   1.794   5.301
67748SOL    HW1 5076   1.615   1.740   5.257
67748SOL    HW2 5077   1.717   1.850   5.232
67749SOL     OW 5078   8.956  10.294   0.137
67749SOL    HW1 5079   8.880  10.303   0.194
67749SOL    HW2 5080   8.926  10.323   0.051
67750SOL     OW 5081  14.862  11.279   0.245
67750SOL    HW1 5082  14.797  11.267   0.315
67750SOL    HW2 5083  14.810  11.299   0.167
67751SOL     OW 5084   5.703   1.861  14.117
67751SOL    HW1 5085   5.721   1.831  14.206
67751SOL    HW2 5086   5.661   1.946  14.129
67752SOL     OW 5087   2.547  11.043   2.329
67752SOL    HW1 5088   2.508  10.971   2.280
67752SOL    HW2 5089   2.506  11.122   2.292
67753SOL     OW 5090   3.816   9.345   6.525
67753SOL    HW1 5091   3.786   9.359   6.435
67753SOL    HW2 5092   3.884   9.410   6.538
67754SOL     OW 5093  12.933   5.119  14.205
67754SOL    HW1 5094  12.840   5.109  14.184
67754SOL    HW2 5095  12.963   5.188  14.147
67755SOL     OW 5096   6.061   9.672   7.499
67755SOL    HW1 5097   6.138   9.665   7.442
67755SOL    HW2 5098   6.093   9.719   7.576
67756SOL     OW 5099   0.104   6.086   6.878
67756SOL    HW1 5100   0.089   6.153   6.812
67756SOL    HW2 5101   0.194   6.057   6.863
67757SOL     OW 5102  13.434   9.046   1.937
67757SOL    HW1 5103  13.519   9.015   1.970
67757SOL    HW2 5104  13.410   8.983   1.869
67758SOL     OW 5105   7.231  11.113   1.305
67758SOL    HW1 5106   7.306  11.058   1.282
67758SOL    HW2 5107   7.168  11.100   1.234
67759SOL     OW 5108  14.265   6.189  13.779
67759SOL    HW1 5109  14.304   6.160  13.696
67759SOL    HW2 5110  14.273   6.284  13.778
67760SOL     OW 5111  11.178   9.256   2.473
67760SOL    HW1 5112  11.205   9.269   2.564
67760SOL    HW2 5113  11.226   9.322   2.423
67761SOL     OW 5114   9.226   8.406   0.358
67761SOL    HW1 5115   9.190   8.319   0.372
67761SOL    HW2 5116   9.240   8.413   0.264
67762SOL     OW 5117  11.873  11.901  12.749
67762SOL    HW1 5118  11.861  11.930  12.658
67762SOL    HW2 5119  11.964  11.871  12.752
67763SOL     OW 5120   6.721   1.616   7.565
67763SOL    HW1 5121   6.630   1.586   7.553
67763SOL    HW2 5122   6.772   1.535   7.569
67764SOL     OW 5123  12.797  12.034   7.239
67764SOL    HW1 5124  12.862  12.017   7.307
67764SOL    HW2 5125  12.742  12.104   7.276
67765SOL     OW 5126   9.844   8.432   8.262
67765SOL    HW1 5127   9.810   8.505   8.313
67765SOL    HW2 5128   9.937   8.452   8.250
67766SOL     OW 5129   1.052   3.967  10.537
67766SOL    HW1 5130   1.001   3.991  10.615
67766SOL    HW2 5131   1.058   3.871  10.542
67767SOL     OW 5132   9.045  12.504  13.359
67767SOL    HW1 5133   9.076  12.453  13.285
67767SOL    HW2 5134   8.989  12.571  13.319
67768SOL     OW 5135   8.685   7.719  10.583
67768SOL    HW1 5136   8.635   7.643  10.610
67768SOL    HW2 5137   8.625   7.793  10.594
67769SOL     OW 5138   4.267   2.624   9.964
67769SOL    HW1 5139   4.179   2.620  10.000
67769SOL    HW2 5140   4.255   2.613   9.870
67770SOL     OW 5141   8.983  10.468   9.020
67770SOL    HW1 5142   8.974  10.390   9.075
67770SOL    HW2 5143   9.061  10.451   8.968
67771SOL     OW 5144   8.274  13.955   9.662
67771SOL    HW1 5145   8.335  14.019   9.624
67771SOL    HW2 5146   8.219  14.006   9.721
67772SOL     OW 5147   0.648   2.856  12.871
67772SOL    HW1 5148   0.681   2.884  12.786
67772SOL    HW2 5149   0.569   2.909  12.885
67773SOL     OW 5150   0.711   8.734   4.710
67773SOL    HW1 5151   0.807   8.737   4.712
67773SOL    HW2 5152   0.684   8.802   4.772
67774SOL     OW 5153  12.496   2.580   3.118
67774SOL    HW1 5154  12.481   2.651   3.181
67774SOL    HW2 5155  12.410   2.562   3.080
67775SOL     OW 5156  14.843   8.576   4.419
67775SOL    HW1 5157  14.847   8.575   4.515
67775SOL    HW2 5158   0.053   8.617   4.392
67776SOL     OW 5159   2.158  11.476   0.145
67776SOL    HW1 5160   2.155  11.481   0.049
67776SOL    HW2 5161   2.077  11.517   0.174
67777SOL     OW 5162   8.187   9.784   3.138
67777SOL    HW1 5163   8.256   9.762   3.076
67777SOL    HW2 5164   8.126   9.710   3.133
67778SOL     OW 5165   5.433  13.307   6.912
67778SOL    HW1 5166   5.339  13.288   6.907
67778SOL    HW2 5167   5.474  13.223   6.932
67779SOL     OW 5168   3.340  14.704   3.091
67779SOL    HW1 5169   3.316  14.677   3.002
67779SOL    HW2 5170   3.413  14.646   3.114
67780SOL     OW 5171  10.243   2.564   1.556
67780SOL    HW1 5172  10.173   2.537   1.497
67780SOL    HW2 5173  10.225   2.517   1.637
67781SOL     OW 5174   7.981   5.295  12.058
67781SOL    HW1 5175   7.942   5.209  12.045
67781SOL    HW2 5176   8.059   5.294  12.003
67782SOL     OW 5177   8.150   1.103   0.904
67782SOL    HW1 5178   8.193   1.018   0.912
67782SOL    HW2 5179   8.117   1.122   0.991
67783SOL     OW 5180   9.455   7.281  14.561
67783SOL    HW1 5181   9.394   7.305  14.631
67783SOL    HW2 5182   9.404   7.227  14.501
67784SOL     OW 5183  11.983   1.804   2.809
67784SOL    HW1 5184  11.935   1.744   2.753
67784SOL    HW2 5185  12.074   1.798   2.778
67785SOL     OW 5186  10.909  10.440   2.249
67785SOL    HW1 5187  10.858  10.433   2.330
67785SOL    HW2 5188  10.844  10.457   2.181
67786SOL     OW 5189  11.974   5.966   8.056
67786SOL    HW1 5190  12.010   6.053   8.075
67786SOL    HW2 5191  11.889   5.965   8.101
67787SOL     OW 5192   8.225  13.585   3.679
67787SOL    HW1 5193   8.195  13.503   3.718
67787SOL    HW2 5194   8.152  13.613   3.623
67788SOL     OW 5195   4.006  12.873  12.221
67788SOL    HW1 5196   3.997  12.787  12.179
67788SOL    HW2 5197   4.101  12.883  12.235
67789SOL     OW 5198   6.873   3.857   1.685
67789SOL    HW1 5199   6.913   3.879   1.601
67789SOL    HW2 5200   6.790   3.814   1.661
67790SOL     OW 5201  14.646   3.569   9.161
67790SOL    HW1 5202  14.656   3.492   9.217
67790SOL    HW2 5203  14.704   3.553   9.087
67791SOL     OW 5204  12.124  11.551   7.435
67791SOL    HW1 5205  12.112  11.635   7.391
67791SOL    HW2 5206  12.143  11.574   7.526
67792SOL     OW 5207   1.007  11.541   8.905
67792SOL    HW1 5208   1.074  11.484   8.867
67792SOL    HW2 5209   1.004  11.617   8.847
67793SOL     OW 5210  14.324  10.803   3.577
67793SOL    HW1 5211  14.397  10.842   3.625
67793SOL    HW2 5212  14.300  10.869   3.513
67794SOL     OW 5213   8.741  14.475   5.981
67794SOL    HW1 5214   8.724  14.502   5.891
67794SOL    HW2 5215   8.672  14.518   6.032
67795SOL     OW 5216   0.177   1.870   3.948
67795SOL    HW1 5217   0.160   1.962   3.971
67795SOL    HW2 5218   0.264   1.871   3.909
67796SOL     OW 5219   1.726   3.389   7.710
67796SOL    HW1 5220   1.680   3.410   7.791
67796SOL    HW2 5221   1.760   3.473   7.678
67797SOL     OW 5222  13.353  10.374   8.588
67797SOL    HW1 5223  13.309  10.299   8.627
67797SOL    HW2 5224  13.445  10.362   8.611
67798SOL     OW 5225   1.944   8.451  12.805
67798SOL    HW1 5226   1.948   8.380  12.869
67798SOL    HW2 5227   1.980   8.414  12.725
67799SOL     OW 5228   9.486  14.570   4.008
67799SOL    HW1 5229   9.541  14.580   4.086
67799SOL    HW2 5230   9.420  14.638   4.016
67800SOL     OW 5231  11.351   0.480   6.188
67800SOL    HW1 5232  11.335   0.525   6.271
67800SOL    HW2 5233  11.427   0.525   6.150
67801SOL     OW 5234  14.643   7.854  14.608
67801SOL    HW1 5235  14.571   7.873  14.547
67801SOL    HW2 5236  14.609   7.785  14.665
67802SOL     OW 5237   8.213   2.066   9.132
67802SOL    HW1 5238   8.285   2.065   9.195
67802SOL    HW2 5239   8.200   1.974   9.109
67803SOL     OW 5240   3.650   4.251  12.704
67803SOL    HW1 5241   3.601   4.169  12.713
67803SOL    HW2 5242   3.600   4.302  12.641
67804SOL     OW 5243   5.627   5.867   9.275
67804SOL    HW1 5244   5.657   5.945   9.227
67804SOL    HW2 5245   5.648   5.794   9.217
67805SOL     OW 5246   8.946  12.172  11.416
67805SOL    HW1 5247   8.887  12.243  11.392
67805SOL    HW2 5248   8.916  12.097  11.364
67806SOL     OW 5249   7.898   1.419  14.084
67806SOL    HW1 5250   7.853   1.349  14.038
67806SOL    HW2 5251   7.892   1.394  14.176
67807SOL     OW 5252   5.516   8.575   3.637
67807SOL    HW1 5253   5.601   8.610   3.663
67807SOL    HW2 5254   5.480   8.537   3.717
67808SOL     OW 5255  12.898  10.011   4.417
67808SOL    HW1 5256  12.935  10.023   4.330
67808SOL    HW2 5257  12.827   9.948   4.405
67809SOL     OW 5258  10.498  13.681   5.944
67809SOL    HW1 5259  10.575  13.692   6.000
67809SOL    HW2 5260  10.425  13.715   5.995
67810SOL     OW 5261  12.114   4.956  13.180
67810SOL    HW1 5262  12.085   4.900  13.253
67810SOL    HW2 5263  12.076   4.916  13.102
67811SOL     OW 5264  12.535   6.786  11.918
67811SOL    HW1 5265  12.549   6.880  11.906
67811SOL    HW2 5266  12.601   6.744  11.864
67812SOL     OW 5267   3.921  11.897   5.146
67812SOL    HW1 5268   3.911  11.815   5.193
67812SOL    HW2 5269   3.994  11.883   5.086
67813SOL     OW 5270   3.133   4.301  12.745
67813SOL    HW1 5271   3.070   4.253  12.691
67813SOL    HW2 5272   3.188   4.233  12.785
67814SOL     OW 5273  14.677  11.437   3.480
67814SOL    HW1 5274  14.686  11.500   3.552
67814SOL    HW2 5275  14.733  11.472   3.411
67815SOL     OW 5276   7.296   1.596   4.748
67815SOL    HW1 5277   7.339   1.579   4.832
67815SOL    HW2 5278   7.302   1.691   4.737
67816SOL     OW 5279  10.438   5.858  12.972
67816SOL    HW1 5280  10.500   5.822  13.035
67816SOL    HW2 5281  10.437   5.952  12.991
67817SOL     OW 5282   3.814   3.705   1.807
67817SOL    HW1 5283   3.757   3.779   1.784
67817SOL    HW2 5284   3.758   3.628   1.800
67818SOL     OW 5285   4.524   0.380   2.138
67818SOL    HW1 5286   4.467   0.398   2.063
67818SOL    HW2 5287   4.603   0.342   2.099
67819SOL     OW 5288   4.485   0.915   9.085
67819SOL    HW1 5289   4.401   0.887   9.049
67819SOL    HW2 5290   4.468   1.003   9.121
67820SOL     OW 5291   4.589   0.995  13.731
67820SOL    HW1 5292   4.648   1.007  13.805
67820SOL    HW2 5293   4.640   1.022  13.655
67821SOL     OW 5294  13.828   5.534   2.237
67821SOL    HW1 5295  13.919   5.564   2.237
67821SOL    HW2 5296  13.777   5.611   2.215
67822SOL     OW 5297   8.701   1.014   3.521
67822SOL    HW1 5298   8.682   1.073   3.447
67822SOL    HW2 5299   8.777   0.964   3.491
67823SOL     OW 5300   9.772   8.746  10.413
67823SOL    HW1 5301   9.740   8.811  10.475
67823SOL    HW2 5302   9.714   8.755  10.337
67824SOL     OW 5303   9.371   2.772   3.933
67824SOL    HW1 5304   9.413   2.855   3.956
67824SOL    HW2 5305   9.396   2.758   3.842
67825SOL     OW 5306   4.937   9.044  11.606
67825SOL    HW1 5307   4.868   9.048  11.540
67825SOL    HW2 5308   5.008   9.097  11.571
67826SOL     OW 5309   3.763   3.484  14.373
67826SOL    HW1 5310   3.677   3.523  14.391
67826SOL    HW2 5311   3.771   3.414  14.438
67827SOL     OW 5312   4.095   9.497   5.311
67827SOL    HW1 5313   4.057   9.578   5.276
67827SOL    HW2 5314   4.137   9.455   5.236
67828SOL     OW 5315  12.354   3.464   2.116
67828SOL    HW1 5316  12.444   3.439   2.097
67828SOL    HW2 5317  12.306   3.382   2.118
67829SOL     OW 5318  10.031   9.775   2.725
67829SOL    HW1 5319   9.982   9.699   2.694
67829SOL    HW2 5320  10.122   9.745   2.730
67830SOL     OW 5321   4.913   5.267   1.454
67830SOL    HW1 5322   4.968   5.203   1.409
67830SOL    HW2 5323   4.863   5.309   1.383
67831SOL     OW 5324   9.744   9.216   1.116
67831SOL    HW1 5325   9.840   9.216   1.120
67831SOL    HW2 5326   9.724   9.246   1.028
67832SOL     OW 5327   2.552   7.455   9.121
67832SOL    HW1 5328   2.510   7.401   9.188
67832SOL    HW2 5329   2.505   7.539   9.126
67833SOL     OW 5330   4.366   5.588  14.602
67833SOL    HW1 5331   4.398   5.664  14.651
67833SOL    HW2 5332   4.271   5.590  14.613
67834SOL     OW 5333   3.042  13.416   1.875
67834SOL    HW1 5334   3.088  13.347   1.922
67834SOL    HW2 5335   3.112  13.463   1.829
67835SOL     OW 5336   2.370  11.637  10.542
67835SOL    HW1 5337   2.364  11.546  10.571
67835SOL    HW2 5338   2.393  11.685  10.621
67836SOL     OW 5339  13.502   9.422   6.640
67836SOL    HW1 5340  13.485   9.458   6.727
67836SOL    HW2 5341  13.524   9.330   6.655
67837SOL     OW 5342   7.195   0.194  10.011
67837SOL    HW1 5343   7.285   0.225  10.003
67837SOL    HW2 5344   7.187   0.124   9.946
67838SOL     OW 5345  13.043   5.517  13.170
67838SOL    HW1 5346  13.084   5.493  13.253
67838SOL    HW2 5347  12.969   5.573  13.194
67839SOL     OW 5348  13.526   7.908  13.223
67839SOL    HW1 5349  13.615   7.916  13.257
67839SOL    HW2 5350  13.519   7.979  13.159
67840SOL     OW 5351   6.877   2.169   3.631
67840SOL    HW1 5352   6.913   2.212   3.708
67840SOL    HW2 5353   6.868   2.077   3.657
67841SOL     OW 5354   0.190   8.254  11.518
67841SOL    HW1 5355   0.096   8.248  11.537
67841SOL    HW2 5356   0.209   8.347  11.517
67842SOL     OW 5357   8.080  13.883  13.885
67842SOL    HW1 5358   8.152  13.843  13.934
67842SOL    HW2 5359   8.057  13.818  13.819
67843SOL     OW 5360  13.221   2.604   4.391
67843SOL    HW1 5361  13.268   2.542   4.334
67843SOL    HW2 5362  13.141   2.625   4.343
67844SOL     OW 5363  10.610   9.150   1.220
67844SOL    HW1 5364  10.635   9.234   1.179
67844SOL    HW2 5365  10.688   9.095   1.211
67845SOL     OW 5366  13.570  11.556   0.129
67845SOL    HW1 5367  13.608  11.547   0.216
67845SOL    HW2 5368  13.480  11.583   0.144
67846SOL     OW 5369   4.327  11.800   4.542
67846SOL    HW1 5370   4.281  11.786   4.459
67846SOL    HW2 5371   4.367  11.716   4.562
67847SOL     OW 5372   1.595   9.338   6.857
67847SOL    HW1 5373   1.535   9.401   6.896
67847SOL    HW2 5374   1.646   9.389   6.794
67848SOL     OW 5375  11.335   8.824   5.407
67848SOL    HW1 5376  11.362   8.906   5.365
67848SOL    HW2 5377  11.379   8.825   5.492
67849SOL     OW 5378   2.957   6.910   5.440
67849SOL    HW1 5379   3.029   6.888   5.381
67849SOL    HW2 5380   2.893   6.955   5.385
67850SOL     OW 5381   3.881   2.076   7.992
67850SOL    HW1 5382   3.799   2.028   8.004
67850SOL    HW2 5383   3.944   2.032   8.049
67851SOL     OW 5384   0.348   1.412   6.159
67851SOL    HW1 5385   0.404   1.471   6.108
67851SOL    HW2 5386   0.392   1.405   6.243
67852SOL     OW 5387   9.113   0.951   7.393
67852SOL    HW1 5388   9.023   0.981   7.379
67852SOL    HW2 5389   9.155   1.021   7.443
67853SOL     OW 5390   3.932  14.315  14.448
67853SOL    HW1 5391   3.949  14.225  14.474
67853SOL    HW2 5392   3.852  14.339  14.494
67854SOL     OW 5393  14.133   8.617   5.036
67854SOL    HW1 5394  14.127   8.535   5.084
67854SOL    HW2 5395  14.191   8.598   4.962
67855SOL     OW 5396   0.866   0.699   6.959
67855SOL    HW1 5397   0.861   0.713   7.054
67855SOL    HW2 5398   0.779   0.666   6.935
67856SOL     OW 5399  14.018   2.819  10.400
67856SOL    HW1 5400  13.972   2.878  10.340
67856SOL    HW2 5401  14.024   2.869  10.482
67857SOL     OW 5402   9.541   2.244   2.425
67857SOL    HW1 5403   9.607   2.179   2.446
67857SOL    HW2 5404   9.506   2.217   2.340
67858SOL     OW 5405  11.848   6.426  10.728
67858SOL    HW1 5406  11.849   6.349  10.784
67858SOL    HW2 5407  11.801   6.493  10.778
67859SOL     OW 5408   0.633   9.490   9.200
67859SOL    HW1 5409   0.625   9.478   9.294
67859SOL    HW2 5410   0.712   9.443   9.175
67860SOL     OW 5411   9.966   9.748   3.548
67860SOL    HW1 5412   9.970   9.714   3.459
67860SOL    HW2 5413   9.881   9.791   3.554
67861SOL     OW 5414   4.471   8.371   6.974
67861SOL    HW1 5415   4.432   8.404   7.055
67861SOL    HW2 5416   4.540   8.434   6.953
67862SOL     OW 5417   8.199   6.270   4.320
67862SOL    HW1 5418   8.191   6.337   4.252
67862SOL    HW2 5419   8.176   6.316   4.401
67863SOL     OW 5420   4.426   6.881   6.993
67863SOL    HW1 5421   4.479   6.926   6.927
67863SOL    HW2 5422   4.490   6.848   7.056
67864SOL     OW 5423   8.474  12.224   7.153
67864SOL    HW1 5424   8.458  12.219   7.058
67864SOL    HW2 5425   8.388  12.211   7.192
67865SOL     OW 5426   0.454   8.371   9.183
67865SOL    HW1 5427   0.403   8.451   9.191
67865SOL    HW2 5428   0.486   8.372   9.093
67866SOL     OW 5429  14.088   7.291  12.679
67866SOL    HW1 5430  14.100   7.235  12.602
67866SOL    HW2 5431  14.135   7.246  12.749
67867SOL     OW 5432   1.635   5.332  12.616
67867SOL    HW1 5433   1.628   5.331  12.711
67867SOL    HW2 5434   1.723   5.299  12.598
67868SOL     OW 5435   1.342   8.882   3.991
67868SOL    HW1 5436   1.355   8.977   4.002
67868SOL    HW2 5437   1.328   8.850   4.080
67869SOL     OW 5438  12.429   1.748   9.821
67869SOL    HW1 5439  12.506   1.716   9.776
67869SOL    HW2 5440  12.393   1.671   9.864
67870SOL     OW 5441   0.188  11.511   3.283
67870SOL    HW1 5442   0.242  11.564   3.225
67870SOL    HW2 5443   0.138  11.574   3.335
67871SOL     OW 5444  12.325   4.056   7.361
67871SOL    HW1 5445  12.295   4.077   7.273
67871SOL    HW2 5446  12.278   4.117   7.417
67872SOL     OW 5447  13.898  13.353   6.617
67872SOL    HW1 5448  13.849  13.347   6.534
67872SOL    HW2 5449  13.989  13.365   6.590
67873SOL     OW 5450   5.913   4.925  13.600
67873SOL    HW1 5451   5.958   4.880  13.528
67873SOL    HW2 5452   5.824   4.938  13.568
67874SOL     OW 5453   9.528   2.659   2.629
67874SOL    HW1 5454   9.526   2.742   2.581
67874SOL    HW2 5455   9.574   2.680   2.710
67875SOL     OW 5456   3.179   5.176  12.555
67875SOL    HW1 5457   3.154   5.148  12.467
67875SOL    HW2 5458   3.275   5.181  12.552
67876SOL     OW 5459  13.448   0.369   0.633
67876SOL    HW1 5460  13.385   0.439   0.647
67876SOL    HW2 5461  13.395   0.290   0.625
67877SOL     OW 5462  13.390  12.397  13.063
67877SOL    HW1 5463  13.382  12.408  13.158
67877SOL    HW2 5464  13.391  12.302  13.050
67878SOL     OW 5465   6.982  12.077   9.101
67878SOL    HW1 5466   7.030  12.036   9.173
67878SOL    HW2 5467   6.905  12.117   9.142
67879SOL     OW 5468   5.123  12.885   2.545
67879SOL    HW1 5469   5.217  12.865   2.551
67879SOL    HW2 5470   5.112  12.963   2.599
67880SOL     OW 5471   9.391   3.675  13.819
67880SOL    HW1 5472   9.402   3.756  13.768
67880SOL    HW2 5473   9.316   3.693  13.876
67881SOL     OW 5474   4.411   7.008  13.351
67881SOL    HW1 5475   4.365   7.088  13.328
67881SOL    HW2 5476   4.384   6.944  13.286
67882SOL     OW 5477   0.786   3.331   4.434
67882SOL    HW1 5478   0.708   3.385   4.432
67882SOL    HW2 5479   0.797   3.301   4.343
67883SOL     OW 5480  14.223  13.983   0.650
67883SOL    HW1 5481  14.129  13.973   0.661
67883SOL    HW2 5482  14.250  14.038   0.724
67884SOL     OW 5483  10.165  10.206   5.303
67884SOL    HW1 5484  10.097  10.183   5.366
67884SOL    HW2 5485  10.193  10.122   5.267
67885SOL     OW 5486  13.638   4.728   3.708
67885SOL    HW1 5487  13.684   4.660   3.756
67885SOL    HW2 5488  13.652   4.808   3.759
67886SOL     OW 5489  13.797  14.283  14.586
67886SOL    HW1 5490  13.863  14.315  14.647
67886SOL    HW2 5491  13.736  14.232  14.640
67887SOL     OW 5492  12.983   1.364   2.997
67887SOL    HW1 5493  12.934   1.429   2.946
67887SOL    HW2 5494  12.966   1.387   3.088
67888SOL     OW 5495   5.407  14.636   6.363
67888SOL    HW1 5496   5.405  14.731   6.380
67888SOL    HW2 5497   5.479  14.625   6.302
67889SOL     OW 5498   4.827   2.763   7.063
67889SOL    HW1 5499   4.787   2.687   7.022
67889SOL    HW2 5500   4.920   2.743   7.069
67890SOL     OW 5501   9.630   6.003  10.073
67890SOL    HW1 5502   9.664   5.930  10.021
67890SOL    HW2 5503   9.629   6.077  10.012
67891SOL     OW 5504  12.475   7.735   7.920
67891SOL    HW1 5505  12.487   7.707   7.829
67891SOL    HW2 5506  12.556   7.709   7.964
67892SOL     OW 5507   1.899   7.940  10.972
67892SOL    HW1 5508   1.861   7.958  10.886
67892SOL    HW2 5509   1.984   7.983  10.970
67893SOL     OW 5510   2.292   2.931   1.656
67893SOL    HW1 5511   2.319   3.016   1.691
67893SOL    HW2 5512   2.265   2.881   1.732
67894SOL     OW 5513  10.426   4.450  14.413
67894SOL    HW1 5514  10.494   4.447  14.345
67894SOL    HW2 5515  10.464   4.406  14.488
67895SOL     OW 5516  14.264   9.930  10.558
67895SOL    HW1 5517  14.330   9.931  10.488
67895SOL    HW2 5518  14.236   9.838  10.563
67896SOL     OW 5519  10.745  11.949   0.835
67896SOL    HW1 5520  10.676  11.909   0.889
67896SOL    HW2 5521  10.792  12.006   0.895
67897SOL     OW 5522   6.958   5.102   3.001
67897SOL    HW1 5523   6.905   5.106   2.921
67897SOL    HW2 5524   7.008   5.021   2.993
67898SOL     OW 5525   0.605  10.645  13.097
67898SOL    HW1 5526   0.684  10.626  13.148
67898SOL    HW2 5527   0.540  10.670  13.162
67899SOL     OW 5528   9.981   5.550   2.174
67899SOL    HW1 5529   9.963   5.550   2.268
67899SOL    HW2 5530   9.902   5.585   2.134
67900SOL     OW 5531  12.946  12.545   7.017
67900SOL    HW1 5532  13.022  12.598   6.997
67900SOL    HW2 5533  12.972  12.456   6.994
67901SOL     OW 5534   0.606  12.133  12.141
67901SOL    HW1 5535   0.673  12.110  12.205
67901SOL    HW2 5536   0.618  12.227  12.127
67902SOL     OW 5537   2.221  11.152   9.774
67902SOL    HW1 5538   2.148  11.207   9.746
67902SOL    HW2 5539   2.183  11.065   9.782
67903SOL     OW 5540   8.672  13.935   2.912
67903SOL    HW1 5541   8.689  14.029   2.910
67903SOL    HW2 5542   8.741  13.897   2.858
67904SOL     OW 5543   8.429   9.359   2.556
67904SOL    HW1 5544   8.442   9.322   2.468
67904SOL    HW2 5545   8.517   9.386   2.583
67905SOL     OW 5546  11.529   0.194   6.240
67905SOL    HW1 5547  11.492   0.278   6.213
67905SOL    HW2 5548  11.461   0.154   6.294
67906SOL     OW 5549   6.593   3.877   1.569
67906SOL    HW1 5550   6.508   3.892   1.611
67906SOL    HW2 5551   6.632   3.965   1.562
67907SOL     OW 5552   9.627   0.539  11.738
67907SOL    HW1 5553   9.715   0.561  11.707
67907SOL    HW2 5554   9.599   0.617  11.786
67908SOL     OW 5555   5.137   4.024   4.341
67908SOL    HW1 5556   5.121   4.093   4.406
67908SOL    HW2 5557   5.055   3.975   4.338
67909SOL     OW 5558   8.442   4.227  12.829
67909SOL    HW1 5559   8.353   4.253  12.854
67909SOL    HW2 5560   8.455   4.268  12.743
67910SOL     OW 5561   2.953   6.532   6.243
67910SOL    HW1 5562   2.989   6.556   6.157
67910SOL    HW2 5563   2.986   6.599   6.302
67911SOL     OW 5564  14.697   3.221   3.777
67911SOL    HW1 5565  14.601   3.228   3.777
67911SOL    HW2 5566  14.719   3.204   3.685
67912SOL     OW 5567  10.461   9.916   5.979
67912SOL    HW1 5568  10.458   9.837   5.925
67912SOL    HW2 5569  10.369   9.934   5.999
67913SOL     OW 5570  11.176  12.107   5.305
67913SOL    HW1 5571  11.158  12.073   5.217
67913SOL    HW2 5572  11.137  12.042   5.364
67914SOL     OW 5573   6.294   6.717   1.587
67914SOL    HW1 5574   6.358   6.655   1.552
67914SOL    HW2 5575   6.237   6.737   1.512
67915SOL     OW 5576   1.452   1.626  14.597
67915SOL    HW1 5577   1.383   1.649  14.659
67915SOL    HW2 5578   1.406   1.592  14.520
67916SOL     OW 5579   1.439  12.626   6.553
67916SOL    HW1 5580   1.509  12.648   6.491
67916SOL    HW2 5581   1.373  12.694   6.540
67917SOL     OW 5582   0.652  12.019   6.743
67917SOL    HW1 5583   0.631  12.112   6.749
67917SOL    HW2 5584   0.746  12.016   6.725
67918SOL     OW 5585   7.520  12.442   0.676
67918SOL    HW1 5586   7.438  12.464   0.632
67918SOL    HW2 5587   7.501  12.361   0.723
67919SOL     OW 5588   5.456   5.532   8.078
67919SOL    HW1 5589   5.404   5.462   8.039
67919SOL    HW2 5590   5.494   5.494   8.156
67920SOL     OW 5591   1.251   3.557  13.645
67920SOL    HW1 5592   1.171   3.506  13.639
67920SOL    HW2 5593   1.311   3.517  13.582
67921SOL     OW 5594   7.914  13.315  10.369
67921SOL    HW1 5595   7.970  13.263  10.311
67921SOL    HW2 5596   7.825  13.291  10.344
67922SOL     OW 5597  14.603   8.055   3.501
67922SOL    HW1 5598  14.548   8.028   3.427
67922SOL    HW2 5599  14.561   8.135   3.534
67923SOL     OW 5600   2.557   3.320   5.148
67923SOL    HW1 5601   2.647   3.333   5.117
67923SOL    HW2 5602   2.503   3.367   5.083
67924SOL     OW 5603   0.113   9.350   0.679
67924SOL    HW1 5604   0.044   9.296   0.643
67924SOL    HW2 5605   0.190   9.332   0.624
67925SOL     OW 5606  10.575   1.431  13.457
67925SOL    HW1 5607  10.639   1.410  13.525
67925SOL    HW2 5608  10.624   1.485  13.394
67926SOL     OW 5609  10.537   1.861   5.331
67926SOL    HW1 5610  10.468   1.863   5.398
67926SOL    HW2 5611  10.499   1.908   5.256
67927SOL     OW 5612   9.448   2.059  11.527
67927SOL    HW1 5613   9.497   2.126  11.576
67927SOL    HW2 5614   9.390   2.020  11.591
67928SOL     OW 5615   5.257  10.734  11.120
67928SOL    HW1 5616   5.223  10.669  11.059
67928SOL    HW2 5617   5.196  10.808  11.113
67929SOL     OW 5618   0.083   3.865   2.129
67929SOL    HW1 5619   0.087   3.839   2.221
67929SOL    HW2 5620   0.074   3.783   2.082
67930SOL     OW 5621   6.940  10.135   9.685
67930SOL    HW1 5622   6.889  10.110   9.608
67930SOL    HW2 5623   6.974  10.052   9.719
67931SOL     OW 5624   7.549  12.573   7.103
67931SOL    HW1 5625   7.544  12.499   7.163
67931SOL    HW2 5626   7.460  12.608   7.100
67932SOL     OW 5627   4.840   9.064   8.155
67932SOL    HW1 5628   4.766   9.016   8.192
67932SOL    HW2 5629   4.911   9.000   8.151
67933SOL     OW 5630   6.056   5.521   4.024
67933SOL    HW1 5631   5.999   5.458   4.070
67933SOL    HW2 5632   6.145   5.492   4.045
67934SOL     OW 5633  13.855  13.723  13.425
67934SOL    HW1 5634  13.890  13.737  13.513
67934SOL    HW2 5635  13.928  13.745  13.367
67935SOL     OW 5636   7.421   7.896   0.659
67935SOL    HW1 5637   7.349   7.894   0.597
67935SOL    HW2 5638   7.381   7.878   0.744
67936SOL     OW 5639   6.583  13.432  13.230
67936SOL    HW1 5640   6.552  13.421  13.319
67936SOL    HW2 5641   6.660  13.488  13.238
67937SOL     OW 5642   7.944   8.018   6.389
67937SOL    HW1 5643   7.855   7.998   6.357
67937SOL    HW2 5644   7.933   8.032   6.483
67938SOL     OW 5645   2.659   3.808   2.670
67938SOL    HW1 5646   2.576   3.831   2.712
67938SOL    HW2 5647   2.648   3.717   2.643
67939SOL     OW 5648  10.015   5.885   4.343
67939SOL    HW1 5649   9.928   5.852   4.321
67939SOL    HW2 5650  10.003   5.929   4.427
67940SOL     OW 5651   5.217   2.451  10.861
67940SOL    HW1 5652   5.185   2.444  10.951
67940SOL    HW2 5653   5.230   2.361  10.832
67941SOL     OW 5654   3.796   2.968  12.446
67941SOL    HW1 5655   3.824   3.005  12.530
67941SOL    HW2 5656   3.793   2.873  12.462
67942SOL     OW 5657   2.715  10.090  12.561
67942SOL    HW1 5658   2.658  10.020  12.593
67942SOL    HW2 5659   2.749  10.056  12.477
67943SOL     OW 5660   5.471  12.084  12.319
67943SOL    HW1 5661   5.495  12.105  12.228
67943SOL    HW2 5662   5.402  12.147  12.340
67944SOL     OW 5663   4.162  14.865   3.403
67944SOL    HW1 5664   4.158  14.777   3.365
67944SOL    HW2 5665   4.214   0.043   3.339
67945SOL     OW 5666  13.478   3.736   2.052
67945SOL    HW1 5667  13.490   3.785   1.971
67945SOL    HW2 5668  13.515   3.793   2.120
67946SOL     OW 5669   6.529  14.132   9.544
67946SOL    HW1 5670   6.539  14.038   9.529
67946SOL    HW2 5671   6.581  14.172   9.475
67947SOL     OW 5672   2.156   8.721  13.945
67947SOL    HW1 5673   2.088   8.653  13.947
67947SOL    HW2 5674   2.117   8.793  13.896
67948SOL     OW 5675  14.327  14.250   0.749
67948SOL    HW1 5676  14.245  14.298   0.738
67948SOL    HW2 5677  14.372  14.258   0.665
67949SOL     OW 5678   2.865   8.696   1.025
67949SOL    HW1 5679   2.770   8.700   1.023
67949SOL    HW2 5680   2.886   8.608   1.056
67950SOL     OW 5681   5.802   9.719   5.200
67950SOL    HW1 5682   5.861   9.717   5.276
67950SOL    HW2 5683   5.855   9.756   5.130
67951SOL     OW 5684  13.419   4.189  12.093
67951SOL    HW1 5685  13.415   4.236  12.010
67951SOL    HW2 5686  13.468   4.109  12.073
67952SOL     OW 5687   1.078  12.425  10.758
67952SOL    HW1 5688   1.042  12.496  10.704
67952SOL    HW2 5689   1.015  12.354  10.747
67953SOL     OW 5690   3.379   3.890   1.953
67953SOL    HW1 5691   3.311   3.823   1.945
67953SOL    HW2 5692   3.330   3.971   1.972
67954SOL     OW 5693   6.488  11.057   0.507
67954SOL    HW1 5694   6.507  11.122   0.574
67954SOL    HW2 5695   6.521  11.095   0.426
67955SOL     OW 5696  14.039  10.760   7.001
67955SOL    HW1 5697  14.115  10.703   7.000
67955SOL    HW2 5698  13.991  10.736   7.081
67956SOL     OW 5699   0.949  11.588   2.901
67956SOL    HW1 5700   0.883  11.627   2.958
67956SOL    HW2 5701   1.015  11.657   2.892
67957SOL     OW 5702  12.320   0.972   8.352
67957SOL    HW1 5703  12.358   0.894   8.391
67957SOL    HW2 5704  12.341   1.042   8.413
67958SOL     OW 5705   5.181   1.098   8.790
67958SOL    HW1 5706   5.115   1.034   8.763
67958SOL    HW2 5707   5.238   1.050   8.850
67959SOL     OW 5708   5.714   6.517  14.265
67959SOL    HW1 5709   5.666   6.434  14.257
67959SOL    HW2 5710   5.801   6.497  14.231
67960SOL     OW 5711   5.957   9.822  11.366
67960SOL    HW1 5712   5.880   9.786  11.321
67960SOL    HW2 5713   6.004   9.745  11.397
67961SOL     OW 5714  12.131   8.933   5.233
67961SOL    HW1 5715  12.161   8.874   5.303
67961SOL    HW2 5716  12.038   8.915   5.224
67962SOL     OW 5717   3.382   1.120   5.668
67962SOL    HW1 5718   3.386   1.025   5.671
67962SOL    HW2 5719   3.314   1.140   5.603
67963SOL     OW 5720   0.345   1.627   4.193
67963SOL    HW1 5721   0.430   1.671   4.191
67963SOL    HW2 5722   0.308   1.651   4.278
67964SOL     OW 5723   7.997   6.000  13.749
67964SOL    HW1 5724   7.958   6.074  13.795
67964SOL    HW2 5725   8.010   6.032  13.660
67965SOL     OW 5726   3.588   0.113   1.425
67965SOL    HW1 5727   3.621   0.023   1.419
67965SOL    HW2 5728   3.553   0.132   1.339
67966SOL     OW 5729   2.045   7.176   3.137
67966SOL    HW1 5730   2.085   7.090   3.149
67966SOL    HW2 5731   1.961   7.169   3.183
67967SOL     OW 5732   3.118  13.705   0.326
67967SOL    HW1 5733   3.107  13.732   0.235
67967SOL    HW2 5734   3.067  13.769   0.376
67968SOL     OW 5735   1.952   5.245  12.938
67968SOL    HW1 5736   1.857   5.255  12.936
67968SOL    HW2 5737   1.974   5.240  13.031
67969SOL     OW 5738  13.461   5.172   4.668
67969SOL    HW1 5739  13.525   5.166   4.597
67969SOL    HW2 5740  13.499   5.233   4.730
67970SOL     OW 5741   8.819   9.081  14.705
67970SOL    HW1 5742   8.879   9.046  14.639
67970SOL    HW2 5743   8.873   9.090  14.784
67971SOL     OW 5744   5.099  13.499   8.861
67971SOL    HW1 5745   5.029  13.476   8.800
67971SOL    HW2 5746   5.110  13.421   8.915
67972SOL     OW 5747  14.597  11.769  14.221
67972SOL    HW1 5748  14.624  11.700  14.282
67972SOL    HW2 5749  14.509  11.793  14.249
67973SOL     OW 5750  12.045   7.056   2.020
67973SOL    HW1 5751  12.130   7.018   1.994
67973SOL    HW2 5752  11.992   6.980   2.043
67974SOL     OW 5753   4.966   7.494   8.908
67974SOL    HW1 5754   4.990   7.504   8.816
67974SOL    HW2 5755   5.012   7.414   8.936
67975SOL     OW 5756  10.956   6.359  12.998
67975SOL    HW1 5757  10.990   6.449  13.007
67975SOL    HW2 5758  10.937   6.331  13.087
67976SOL     OW 5759  14.513   7.859   8.234
67976SOL    HW1 5760  14.501   7.875   8.328
67976SOL    HW2 5761  14.427   7.875   8.196
67977SOL     OW 5762   2.414   6.210  14.473
67977SOL    HW1 5763   2.338   6.155  14.492
67977SOL    HW2 5764   2.442   6.184  14.386
67978SOL     OW 5765   4.777   2.270   2.376
67978SOL    HW1 5766   4.795   2.310   2.461
67978SOL    HW2 5767   4.682   2.271   2.369
67979SOL     OW 5768  11.325   2.778   4.289
67979SOL    HW1 5769  11.394   2.844   4.286
67979SOL    HW2 5770  11.339   2.724   4.211
67980SOL     OW 5771  10.461   8.708  13.867
67980SOL    HW1 5772  10.537   8.672  13.822
67980SOL    HW2 5773  10.434   8.782  13.812
67981SOL     OW 5774   0.214   8.276   2.515
67981SOL    HW1 5775   0.156   8.202   2.498
67981SOL    HW2 5776   0.298   8.250   2.477
67982SOL     OW 5777  11.155   1.359   2.627
67982SOL    HW1 5778  11.219   1.429   2.639
67982SOL    HW2 5779  11.080   1.401   2.585
67983SOL     OW 5780   9.427   0.346  11.650
67983SOL    HW1 5781   9.502   0.365  11.706
67983SOL    HW2 5782   9.402   0.430  11.613
67984SOL     OW 5783   5.171   2.836   5.179
67984SOL    HW1 5784   5.236   2.810   5.113
67984SOL    HW2 5785   5.086   2.821   5.137
67985SOL     OW 5786   5.252   9.103   9.601
67985SOL    HW1 5787   5.227   9.121   9.692
67985SOL    HW2 5788   5.171   9.116   9.551
67986SOL     OW 5789   5.315  11.635  10.290
67986SOL    HW1 5790   5.330  11.725  10.319
67986SOL    HW2 5791   5.363  11.628  10.207
67987SOL     OW 5792   4.380   9.537  11.869
67987SOL    HW1 5793   4.444   9.475  11.905
67987SOL    HW2 5794   4.304   9.483  11.846
67988SOL     OW 5795  10.559   8.478   5.952
67988SOL    HW1 5796  10.613   8.433   5.888
67988SOL    HW2 5797  10.495   8.527   5.900
67989SOL     OW 5798   6.046  10.449  14.800
67989SOL    HW1 5799   5.959  10.410  14.807
67989SOL    HW2 5800   6.030  10.543  14.805
67990SOL     OW 5801   5.441   5.537   7.686
67990SOL    HW1 5802   5.505   5.608   7.688
67990SOL    HW2 5803   5.376   5.565   7.622
67991SOL     OW 5804   4.972   2.087   3.850
67991SOL    HW1 5805   4.930   2.173   3.860
67991SOL    HW2 5806   4.934   2.052   3.770
67992SOL     OW 5807  11.649  13.562   7.563
67992SOL    HW1 5808  11.681  13.611   7.638
67992SOL    HW2 5809  11.553  13.565   7.571
67993SOL     OW 5810   5.649   7.368   4.417
67993SOL    HW1 5811   5.581   7.406   4.472
67993SOL    HW2 5812   5.659   7.430   4.344
67994SOL     OW 5813  13.720   3.116   5.986
67994SOL    HW1 5814  13.786   3.169   6.031
67994SOL    HW2 5815  13.658   3.181   5.951
67995SOL     OW 5816  14.662   4.078   8.182
67995SOL    HW1 5817  14.729   4.081   8.115
67995SOL    HW2 5818  14.623   4.166   8.181
67996SOL     OW 5819  13.673  14.140  12.457
67996SOL    HW1 5820  13.582  14.122  12.432
67996SOL    HW2 5821  13.681  14.235  12.452
67997SOL     OW 5822  14.511   8.292  10.073
67997SOL    HW1 5823  14.516   8.345   9.993
67997SOL    HW2 5824  14.593   8.243  10.075
67998SOL     OW 5825  14.356   3.383   3.514
67998SOL    HW1 5826  14.337   3.335   3.434
67998SOL    HW2 5827  14.340   3.320   3.584
67999SOL     OW 5828   9.011   3.956  12.825
67999SOL    HW1 5829   8.966   3.932  12.745
67999SOL    HW2 5830   8.964   3.910  12.894
68000SOL     OW 5831  14.718   7.226   8.027
68000SOL    HW1 5832  14.664   7.289   7.981
68000SOL    HW2 5833  14.761   7.278   8.096
68001SOL     OW 5834   6.553   9.171  14.540
68001SOL    HW1 5835   6.599   9.134  14.465
68001SOL    HW2 5836   6.516   9.254  14.508
68002SOL     OW 5837   2.808   9.391   0.765
68002SOL    HW1 5838   2.791   9.394   0.860
68002SOL    HW2 5839   2.870   9.320   0.754
68003SOL     OW 5840   6.697   8.957   7.901
68003SOL    HW1 5841   6.649   8.955   7.983
68003SOL    HW2 5842   6.780   8.999   7.922
68004SOL     OW 5843   6.053   8.967   9.930
68004SOL    HW1 5844   6.064   9.062   9.929
68004SOL    HW2 5845   5.967   8.953   9.970
68005SOL     OW 5846   6.969   0.388   8.427
68005SOL    HW1 5847   7.029   0.341   8.486
68005SOL    HW2 5848   6.992   0.355   8.339
68006SOL     OW 5849   9.158   7.246   2.367
68006SOL    HW1 5850   9.174   7.167   2.315
68006SOL    HW2 5851   9.146   7.315   2.302
68007SOL     OW 5852  13.171  14.053   4.890
68007SOL    HW1 5853  13.236  13.995   4.850
68007SOL    HW2 5854  13.147  14.114   4.820
68008SOL     OW 5855   7.044   5.225  10.998
68008SOL    HW1 5856   6.995   5.285  10.941
68008SOL    HW2 5857   7.111   5.188  10.940
68009SOL     OW 5858   6.365  13.774   7.281
68009SOL    HW1 5859   6.348  13.868   7.274
68009SOL    HW2 5860   6.365  13.743   7.191
68010SOL     OW 5861   9.704   8.103  13.635
68010SOL    HW1 5862   9.698   8.121  13.541
68010SOL    HW2 5863   9.790   8.063  13.646
68011SOL     OW 5864   5.744   9.079  13.263
68011SOL    HW1 5865   5.689   9.124  13.327
68011SOL    HW2 5866   5.822   9.134  13.256
68012SOL     OW 5867   0.164  10.747   7.023
68012SOL    HW1 5868   0.108  10.691   6.969
68012SOL    HW2 5869   0.239  10.766   6.967
68013SOL     OW 5870  11.908  13.082   4.809
68013SOL    HW1 5871  11.893  12.996   4.847
68013SOL    HW2 5872  11.878  13.143   4.876
68014SOL     OW 5873  12.457   3.114   9.929
68014SOL    HW1 5874  12.513   3.097  10.005
68014SOL    HW2 5875  12.375   3.070   9.950
68015SOL     OW 5876   6.105   0.326   6.444
68015SOL    HW1 5877   6.136   0.291   6.360
68015SOL    HW2 5878   6.078   0.249   6.494
68016SOL     OW 5879   3.186   0.701  14.847
68016SOL    HW1 5880   3.246   0.628  14.855
68016SOL    HW2 5881   3.241   0.776  14.825
68017SOL     OW 5882  12.774  14.190  11.464
68017SOL    HW1 5883  12.852  14.162  11.416
68017SOL    HW2 5884  12.711  14.120  11.451
68018SOL     OW 5885   3.212   0.044  10.437
68018SOL    HW1 5886   3.221   0.124  10.489
68018SOL    HW2 5887   3.118   0.028  10.435
68019SOL     OW 5888  13.846   6.493   8.518
68019SOL    HW1 5889  13.758   6.524   8.496
68019SOL    HW2 5890  13.845   6.488   8.614
68020SOL     OW 5891   3.171   5.870   4.969
68020SOL    HW1 5892   3.163   5.776   4.983
68020SOL    HW2 5893   3.209   5.879   4.881
68021SOL     OW 5894  10.076   0.440   1.514
68021SOL    HW1 5895  10.065   0.357   1.468
68021SOL    HW2 5896  10.065   0.417   1.607
68022SOL     OW 5897  10.489  14.105   7.229
68022SOL    HW1 5898  10.446  14.022   7.210
68022SOL    HW2 5899  10.419  14.171   7.224
68023SOL     OW 5900   3.039   1.420   6.116
68023SOL    HW1 5901   3.033   1.339   6.066
68023SOL    HW2 5902   3.006   1.488   6.057
68024SOL     OW 5903   7.887   5.163   6.699
68024SOL    HW1 5904   7.920   5.205   6.778
68024SOL    HW2 5905   7.905   5.070   6.712
68025SOL     OW 5906   1.022   9.909   0.236
68025SOL    HW1 5907   1.089   9.961   0.280
68025SOL    HW2 5908   0.950   9.904   0.299
68026SOL     OW 5909   5.580   6.275   6.253
68026SOL    HW1 5910   5.512   6.215   6.283
68026SOL    HW2 5911   5.538   6.361   6.251
68027SOL     OW 5912   9.506   6.284   0.304
68027SOL    HW1 5913   9.547   6.359   0.261
68027SOL    HW2 5914   9.501   6.217   0.236
68028SOL     OW 5915   2.821   1.326  10.355
68028SOL    HW1 5916   2.870   1.245  10.345
68028SOL    HW2 5917   2.867   1.388  10.298
68029SOL     OW 5918   9.932   7.333  14.174
68029SOL    HW1 5919   9.976   7.407  14.133
68029SOL    HW2 5920   9.988   7.258  14.153
68030SOL     OW 5921  14.329   5.530  11.031
68030SOL    HW1 5922  14.349   5.456  10.973
68030SOL    HW2 5923  14.393   5.598  11.007
68031SOL     OW 5924   5.777  12.771   3.679
68031SOL    HW1 5925   5.848  12.708   3.686
68031SOL    HW2 5926   5.753  12.790   3.770
68032SOL     OW 5927  11.424   5.500   2.314
68032SOL    HW1 5928  11.415   5.468   2.403
68032SOL    HW2 5929  11.393   5.590   2.317
68033SOL     OW 5930  11.736   6.959  14.619
68033SOL    HW1 5931  11.753   6.995  14.532
68033SOL    HW2 5932  11.768   6.869  14.614
68034SOL     OW 5933   5.735   8.010  13.573
68034SOL    HW1 5934   5.798   8.040  13.508
68034SOL    HW2 5935   5.663   7.973  13.521
68035SOL     OW 5936   0.718   3.814   4.961
68035SOL    HW1 5937   0.753   3.897   4.993
68035SOL    HW2 5938   0.769   3.795   4.882
68036SOL     OW 5939  14.400   3.993   9.904
68036SOL    HW1 5940  14.306   3.988   9.921
68036SOL    HW2 5941  14.409   4.064   9.840
68037SOL     OW 5942   5.681   2.322   8.728
68037SOL    HW1 5943   5.731   2.271   8.792
68037SOL    HW2 5944   5.598   2.340   8.771
68038SOL     OW 5945  12.864   7.986   6.781
68038SOL    HW1 5946  12.930   8.039   6.737
68038SOL    HW2 5947  12.781   8.028   6.759
68039SOL     OW 5948   8.535  13.535   3.018
68039SOL    HW1 5949   8.604  13.519   3.083
68039SOL    HW2 5950   8.455  13.505   3.060
68040SOL     OW 5951  12.859   2.761   1.377
68040SOL    HW1 5952  12.863   2.703   1.453
68040SOL    HW2 5953  12.918   2.834   1.400
68041SOL     OW 5954  10.538   6.736  11.398
68041SOL    HW1 5955  10.584   6.696  11.471
68041SOL    HW2 5956  10.608   6.759  11.336
68042SOL     OW 5957   3.270   3.445  10.301
68042SOL    HW1 5958   3.187   3.492  10.295
68042SOL    HW2 5959   3.337   3.512  10.289
68043SOL     OW 5960  12.500   4.498   6.995
68043SOL    HW1 5961  12.453   4.447   6.929
68043SOL    HW2 5962  12.463   4.471   7.078
68044SOL     OW 5963   1.450   8.045  11.559
68044SOL    HW1 5964   1.385   7.976  11.572
68044SOL    HW2 5965   1.502   8.014  11.484
68045SOL     OW 5966  12.929   1.454   5.172
68045SOL    HW1 5967  12.853   1.482   5.222
68045SOL    HW2 5968  12.985   1.411   5.236
68046SOL     OW 5969  12.572   1.391  12.245
68046SOL    HW1 5970  12.550   1.474  12.287
68046SOL    HW2 5971  12.629   1.347  12.308
68047SOL     OW 5972  13.226   7.680   5.536
68047SOL    HW1 5973  13.313   7.646   5.553
68047SOL    HW2 5974  13.194   7.628   5.461
68048SOL     OW 5975   7.447  13.803  12.068
68048SOL    HW1 5976   7.435  13.886  12.023
68048SOL    HW2 5977   7.475  13.826  12.156
68049SOL     OW 5978   9.520   3.010   5.100
68049SOL    HW1 5979   9.598   3.060   5.074
68049SOL    HW2 5980   9.464   3.011   5.022
68050SOL     OW 5981   6.226  13.943  12.930
68050SOL    HW1 5982   6.316  13.958  12.902
68050SOL    HW2 5983   6.219  13.848  12.940
68051SOL     OW 5984   3.639  12.346   9.992
68051SOL    HW1 5985   3.677  12.260   9.971
68051SOL    HW2 5986   3.691  12.408   9.942
68052SOL     OW 5987  12.628  11.282  14.148
68052SOL    HW1 5988  12.670  11.356  14.192
68052SOL    HW2 5989  12.544  11.316  14.118
68053SOL     OW 5990   9.803   8.208   4.032
68053SOL    HW1 5991   9.883   8.235   4.076
68053SOL    HW2 5992   9.824   8.123   3.992
68054SOL     OW 5993   6.178   8.321  14.066
68054SOL    HW1 5994   6.113   8.256  14.039
68054SOL    HW2 5995   6.262   8.285  14.037
68055SOL     OW 5996   0.653   1.841   5.656
68055SOL    HW1 5997   0.749   1.835   5.660
68055SOL    HW2 5998   0.625   1.758   5.618
68056SOL     OW 5999   8.043   9.156   9.647
68056SOL    HW1 6000   8.123   9.123   9.688
68056SOL    HW2 6001   8.006   9.215   9.712
68057SOL     OW 6002   4.462   8.446   9.399
68057SOL    HW1 6003   4.551   8.431   9.368
68057SOL    HW2 6004   4.406   8.433   9.323
68058SOL     OW 6005   4.351   0.886   2.705
68058SOL    HW1 6006   4.413   0.817   2.682
68058SOL    HW2 6007   4.405   0.966   2.708
68059SOL     OW 6008   1.508   0.890  14.863
68059SOL    HW1 6009   1.469   0.829  14.801
68059SOL    HW2 6010   1.434   0.942   0.023
68060SOL     OW 6011   7.610   1.496  10.847
68060SOL    HW1 6012   7.620   1.423  10.786
68060SOL    HW2 6013   7.558   1.460  10.919
68061SOL     OW 6014   9.016   9.763   6.093
68061SOL    HW1 6015   9.085   9.806   6.144
68061SOL    HW2 6016   8.976   9.702   6.155
68062SOL     OW 6017   4.680  11.648  10.991
68062SOL    HW1 6018   4.667  11.589  10.917
68062SOL    HW2 6019   4.721  11.726  10.954
68063SOL     OW 6020   0.131   9.777   4.822
68063SOL    HW1 6021   0.081   9.705   4.782
68063SOL    HW2 6022   0.222   9.747   4.820
68064SOL     OW 6023  11.635   5.559   0.834
68064SOL    HW1 6024  11.721   5.579   0.798
68064SOL    HW2 6025  11.632   5.606   0.917
68065SOL     OW 6026  13.358  11.405   6.096
68065SOL    HW1 6027  13.432  11.353   6.065
68065SOL    HW2 6028  13.378  11.494   6.066
68066SOL     OW 6029  12.893  11.492   9.788
68066SOL    HW1 6030  12.799  11.498   9.806
68066SOL    HW2 6031  12.935  11.512   9.872
68067SOL     OW 6032   0.405  10.767   1.932
68067SOL    HW1 6033   0.432  10.723   1.851
68067SOL    HW2 6034   0.375  10.696   1.989
68068SOL     OW 6035   2.838   2.754   8.537
68068SOL    HW1 6036   2.810   2.736   8.447
68068SOL    HW2 6037   2.881   2.673   8.565
68069SOL     OW 6038  11.984   3.079  13.566
68069SOL    HW1 6039  12.042   3.118  13.632
68069SOL    HW2 6040  12.039   3.016  13.519
68070SOL     OW 6041   7.248  13.530  14.310
68070SOL    HW1 6042   7.170  13.476  14.296
68070SOL    HW2 6043   7.258  13.579  14.228
68071SOL     OW 6044   4.595   1.549   2.671
68071SOL    HW1 6045   4.519   1.494   2.654
68071SOL    HW2 6046   4.570   1.636   2.638
68072SOL     OW 6047   9.887   1.837   8.188
68072SOL    HW1 6048   9.821   1.890   8.233
68072SOL    HW2 6049   9.890   1.874   8.099
68073SOL     OW 6050  12.297  10.298   4.148
68073SOL    HW1 6051  12.252  10.376   4.115
68073SOL    HW2 6052  12.310  10.316   4.241
68074SOL     OW 6053   1.461   0.095   9.257
68074SOL    HW1 6054   1.477   0.142   9.339
68074SOL    HW2 6055   1.394   0.030   9.280
68075SOL     OW 6056  10.425   0.403   6.204
68075SOL    HW1 6057  10.478   0.479   6.227
68075SOL    HW2 6058  10.439   0.392   6.110
68076SOL     OW 6059   5.309   6.377   5.169
68076SOL    HW1 6060   5.366   6.449   5.141
68076SOL    HW2 6061   5.337   6.359   5.259
68077SOL     OW 6062   2.269  14.290   6.800
68077SOL    HW1 6063   2.318  14.223   6.846
68077SOL    HW2 6064   2.255  14.254   6.712
68078SOL     OW 6065   9.156   9.123   2.081
68078SOL    HW1 6066   9.171   9.029   2.071
68078SOL    HW2 6067   9.110   9.131   2.165
68079SOL     OW 6068  12.754   1.518   8.196
68079SOL    HW1 6069  12.758   1.455   8.268
68079SOL    HW2 6070  12.707   1.593   8.232
68080SOL     OW 6071   5.347   1.027   7.635
68080SOL    HW1 6072   5.430   0.979   7.636
68080SOL    HW2 6073   5.327   1.040   7.728
68081SOL     OW 6074   3.363  12.312   2.608
68081SOL    HW1 6075   3.279  12.267   2.607
68081SOL    HW2 6076   3.377  12.339   2.517
68082SOL     OW 6077   5.751   1.179   4.791
68082SOL    HW1 6078   5.711   1.190   4.705
68082SOL    HW2 6079   5.818   1.113   4.778
68083SOL     OW 6080  13.203  14.476   1.317
68083SOL    HW1 6081  13.169  14.530   1.246
68083SOL    HW2 6082  13.128  14.462   1.375
68084SOL     OW 6083   6.953  13.481   1.074
68084SOL    HW1 6084   6.954  13.520   1.161
68084SOL    HW2 6085   6.931  13.390   1.088
68085SOL     OW 6086   3.052   1.741   1.736
68085SOL    HW1 6087   3.115   1.741   1.808
68085SOL    HW2 6088   3.102   1.707   1.662
68086SOL     OW 6089   3.269   0.420   8.456
68086SOL    HW1 6090   3.227   0.380   8.380
68086SOL    HW2 6091   3.334   0.356   8.483
68087SOL     OW 6092   7.563   5.409  14.115
68087SOL    HW1 6093   7.551   5.380  14.025
68087SOL    HW2 6094   7.591   5.330  14.162
68088SOL     OW 6095   8.195   1.901   3.842
68088SOL    HW1 6096   8.266   1.965   3.843
68088SOL    HW2 6097   8.145   1.919   3.921
68089SOL     OW 6098   6.215   8.766   9.849
68089SOL    HW1 6099   6.158   8.841   9.868
68089SOL    HW2 6100   6.287   8.774   9.912
68090SOL     OW 6101   5.667   8.129   1.046
68090SOL    HW1 6102   5.631   8.178   0.972
68090SOL    HW2 6103   5.762   8.132   1.032
68091SOL     OW 6104   6.830  12.233   8.599
68091SOL    HW1 6105   6.868  12.295   8.661
68091SOL    HW2 6106   6.771  12.179   8.651
68092SOL     OW 6107   6.104   8.970   1.452
68092SOL    HW1 6108   6.147   8.942   1.533
68092SOL    HW2 6109   6.032   9.026   1.482
68093SOL     OW 6110   4.183   0.700  14.112
68093SOL    HW1 6111   4.221   0.612  14.117
68093SOL    HW2 6112   4.213   0.735  14.028
68094SOL     OW 6113   4.193   9.145  10.590
68094SOL    HW1 6114   4.141   9.181  10.519
68094SOL    HW2 6115   4.150   9.062  10.612
68095SOL     OW 6116   6.986  13.010   6.626
68095SOL    HW1 6117   6.947  12.928   6.596
68095SOL    HW2 6118   6.950  13.077   6.569
68096SOL     OW 6119  13.779   3.655  12.976
68096SOL    HW1 6120  13.754   3.675  13.067
68096SOL    HW2 6121  13.696   3.645  12.930
68097SOL     OW 6122   2.034  12.055  10.680
68097SOL    HW1 6123   2.010  12.100  10.599
68097SOL    HW2 6124   2.063  11.969  10.652
68098SOL     OW 6125   6.241   9.485  11.675
68098SOL    HW1 6126   6.180   9.430  11.626
68098SOL    HW2 6127   6.294   9.423  11.725
68099SOL     OW 6128   2.450   5.872   3.982
68099SOL    HW1 6129   2.405   5.822   3.913
68099SOL    HW2 6130   2.504   5.807   4.027
68100SOL     OW 6131   1.224   8.429   4.081
68100SOL    HW1 6132   1.210   8.472   3.997
68100SOL    HW2 6133   1.175   8.348   4.075
68101SOL     OW 6134   9.194   7.697   1.994
68101SOL    HW1 6135   9.263   7.637   1.969
68101SOL    HW2 6136   9.229   7.784   1.974
68102SOL     OW 6137   8.523  10.012  12.066
68102SOL    HW1 6138   8.560  10.042  11.983
68102SOL    HW2 6139   8.495   9.922  12.049
68103SOL     OW 6140   3.813   1.150  13.132
68103SOL    HW1 6141   3.863   1.232  13.134
68103SOL    HW2 6142   3.722   1.177  13.126
68104SOL     OW 6143   6.580   0.359   9.588
68104SOL    HW1 6144   6.591   0.370   9.683
68104SOL    HW2 6145   6.577   0.448   9.553
68105SOL     OW 6146   9.912   3.720  12.352
68105SOL    HW1 6147   9.912   3.716  12.447
68105SOL    HW2 6148   9.986   3.665  12.325
68106SOL     OW 6149  11.958   1.420  11.999
68106SOL    HW1 6150  11.950   1.508  11.962
68106SOL    HW2 6151  11.984   1.435  12.090
68107SOL     OW 6152   0.530   5.298   0.915
68107SOL    HW1 6153   0.448   5.258   0.888
68107SOL    HW2 6154   0.504   5.382   0.954
68108SOL     OW 6155  13.773  11.339   4.649
68108SOL    HW1 6156  13.807  11.412   4.597
68108SOL    HW2 6157  13.740  11.379   4.729
68109SOL     OW 6158   1.869   6.623  11.079
68109SOL    HW1 6159   1.916   6.693  11.032
68109SOL    HW2 6160   1.885   6.642  11.172
68110SOL     OW 6161   5.853   8.250   9.730
68110SOL    HW1 6162   5.925   8.190   9.746
68110SOL    HW2 6163   5.825   8.279   9.817
68111SOL     OW 6164  14.862  14.002   2.649
68111SOL    HW1 6165   0.078  13.969   2.666
68111SOL    HW2 6166   0.002  14.093   2.624
68112SOL     OW 6167   6.047   2.898  11.064
68112SOL    HW1 6168   6.055   2.992  11.051
68112SOL    HW2 6169   5.974   2.872  11.008
68113SOL     OW 6170   1.681  11.972  13.627
68113SOL    HW1 6171   1.639  12.047  13.669
68113SOL    HW2 6172   1.653  11.896  13.679
68114SOL     OW 6173   1.160   5.055   3.204
68114SOL    HW1 6174   1.177   5.121   3.271
68114SOL    HW2 6175   1.065   5.042   3.207
68115SOL     OW 6176   4.768   8.756  14.690
68115SOL    HW1 6177   4.773   8.851  14.697
68115SOL    HW2 6178   4.683   8.733  14.726
68116SOL     OW 6179   1.876   6.291   7.407
68116SOL    HW1 6180   1.866   6.282   7.502
68116SOL    HW2 6181   1.865   6.202   7.373
68117SOL     OW 6182   6.708   1.572  13.296
68117SOL    HW1 6183   6.642   1.537  13.355
68117SOL    HW2 6184   6.746   1.645  13.344
68118SOL     OW 6185  13.119  12.758  14.125
68118SOL    HW1 6186  13.061  12.832  14.112
68118SOL    HW2 6187  13.093  12.721  14.209
68119SOL     OW 6188   4.419   0.186  10.042
68119SOL    HW1 6189   4.463   0.253  10.095
68119SOL    HW2 6190   4.400   0.116  10.105
68120SOL     OW 6191   8.120   5.378   7.141
68120SOL    HW1 6192   8.095   5.451   7.199
68120SOL    HW2 6193   8.141   5.420   7.058
68121SOL     OW 6194   0.631   5.559  13.904
68121SOL    HW1 6195   0.608   5.604  13.822
68121SOL    HW2 6196   0.558   5.579  13.963
68122SOL     OW 6197   3.616   5.560  12.175
68122SOL    HW1 6198   3.572   5.579  12.258
68122SOL    HW2 6199   3.657   5.643  12.150
68123SOL     OW 6200   9.745   9.797  12.365
68123SOL    HW1 6201   9.663   9.846  12.375
68123SOL    HW2 6202   9.722   9.707  12.391
68124SOL     OW 6203  11.655  13.838  11.511
68124SOL    HW1 6204  11.705  13.913  11.478
68124SOL    HW2 6205  11.617  13.870  11.593
68125SOL     OW 6206   0.964   5.337   5.213
68125SOL    HW1 6207   1.023   5.401   5.252
68125SOL    HW2 6208   0.923   5.293   5.288
68126SOL     OW 6209   8.340   0.619  11.283
68126SOL    HW1 6210   8.410   0.663  11.235
68126SOL    HW2 6211   8.259   0.661  11.252
68127SOL     OW 6212   4.161   7.117  12.061
68127SOL    HW1 6213   4.072   7.115  12.024
68127SOL    HW2 6214   4.148   7.096  12.153
68128SOL     OW 6215   5.000   7.248   7.714
68128SOL    HW1 6216   4.944   7.293   7.651
68128SOL    HW2 6217   5.068   7.207   7.661
68129SOL     OW 6218   9.523   0.577   2.566
68129SOL    HW1 6219   9.537   0.502   2.509
68129SOL    HW2 6220   9.428   0.587   2.569
68130SOL     OW 6221  14.735   3.758   6.574
68130SOL    HW1 6222  14.693   3.732   6.492
68130SOL    HW2 6223  14.820   3.792   6.548
68131SOL     OW 6224   9.994  14.673   1.746
68131SOL    HW1 6225  10.076  14.699   1.788
68131SOL    HW2 6226   9.961  14.752   1.704
68132SOL     OW 6227  14.283   8.375   5.723
68132SOL    HW1 6228  14.292   8.434   5.798
68132SOL    HW2 6229  14.278   8.288   5.762
68133SOL     OW 6230   8.986  13.683   6.015
68133SOL    HW1 6231   8.899  13.688   5.975
68133SOL    HW2 6232   8.996  13.767   6.060
68134SOL     OW 6233  10.631   9.184   7.922
68134SOL    HW1 6234  10.692   9.238   7.872
68134SOL    HW2 6235  10.574   9.143   7.856
68135SOL     OW 6236   0.705   8.410   3.514
68135SOL    HW1 6237   0.674   8.370   3.596
68135SOL    HW2 6238   0.785   8.362   3.493
68136SOL     OW 6239   3.079   8.888   8.916
68136SOL    HW1 6240   3.127   8.805   8.907
68136SOL    HW2 6241   2.989   8.866   8.890
68137SOL     OW 6242   4.594   4.939  10.564
68137SOL    HW1 6243   4.626   4.910  10.479
68137SOL    HW2 6244   4.525   4.876  10.587
68138SOL     OW 6245  12.954   3.561   7.316
68138SOL    HW1 6246  12.894   3.495   7.351
68138SOL    HW2 6247  12.926   3.573   7.225
68139SOL     OW 6248   2.020  13.179   8.377
68139SOL    HW1 6249   2.070  13.109   8.335
68139SOL    HW2 6250   1.937  13.138   8.401
68140SOL     OW 6251   5.880   5.636   2.728
68140SOL    HW1 6252   5.830   5.693   2.787
68140SOL    HW2 6253   5.909   5.694   2.658
68141SOL     OW 6254   8.727  14.843  13.853
68141SOL    HW1 6255   8.741   0.064  13.866
68141SOL    HW2 6256   8.815  14.805  13.862
68142SOL     OW 6257   7.704   5.683  13.761
68142SOL    HW1 6258   7.793   5.706  13.786
68142SOL    HW2 6259   7.678   5.752  13.701
68143SOL     OW 6260   6.831  10.301  14.026
68143SOL    HW1 6261   6.918  10.315  14.063
68143SOL    HW2 6262   6.841  10.325  13.934
68144SOL     OW 6263   7.548  12.942  14.724
68144SOL    HW1 6264   7.613  12.928  14.792
68144SOL    HW2 6265   7.594  12.992  14.657
68145SOL     OW 6266   7.512   7.924  10.009
68145SOL    HW1 6267   7.503   7.993   9.944
68145SOL    HW2 6268   7.560   7.965  10.081
68146SOL     OW 6269   9.753  14.180   1.318
68146SOL    HW1 6270   9.803  14.212   1.243
68146SOL    HW2 6271   9.662  14.179   1.286
68147SOL     OW 6272   1.921   4.017   8.820
68147SOL    HW1 6273   1.936   3.934   8.863
68147SOL    HW2 6274   1.974   4.012   8.740
68148SOL     OW 6275   2.132   0.601  11.566
68148SOL    HW1 6276   2.186   0.657  11.510
68148SOL    HW2 6277   2.123   0.519  11.517
68149SOL     OW 6278   7.376   4.751  13.615
68149SOL    HW1 6279   7.414   4.670  13.648
68149SOL    HW2 6280   7.396   4.816  13.683
68150SOL     OW 6281   3.202  10.044  11.531
68150SOL    HW1 6282   3.120  10.023  11.575
68150SOL    HW2 6283   3.265   9.981  11.565
68151SOL     OW 6284   5.344   9.103  12.687
68151SOL    HW1 6285   5.370   9.022  12.641
68151SOL    HW2 6286   5.302   9.156  12.619
68152SOL     OW 6287  13.603   6.142   5.118
68152SOL    HW1 6288  13.649   6.058   5.117
68152SOL    HW2 6289  13.529   6.130   5.177
68153SOL     OW 6290  10.629   3.203   1.464
68153SOL    HW1 6291  10.652   3.112   1.445
68153SOL    HW2 6292  10.691   3.254   1.412
68154SOL     OW 6293  11.126   2.194   2.358
68154SOL    HW1 6294  11.081   2.270   2.394
68154SOL    HW2 6295  11.174   2.227   2.283
68155SOL     OW 6296   4.770  14.165   7.790
68155SOL    HW1 6297   4.844  14.224   7.777
68155SOL    HW2 6298   4.794  14.113   7.867
68156SOL     OW 6299  11.259   6.931   0.818
68156SOL    HW1 6300  11.309   6.855   0.847
68156SOL    HW2 6301  11.267   6.931   0.723
68157SOL     OW 6302   6.066  12.792   3.562
68157SOL    HW1 6303   6.087  12.717   3.507
68157SOL    HW2 6304   6.050  12.756   3.649
68158SOL     OW 6305   8.425   2.229   1.214
68158SOL    HW1 6306   8.408   2.268   1.128
68158SOL    HW2 6307   8.502   2.277   1.247
68159SOL     OW 6308  13.990   1.369   0.125
68159SOL    HW1 6309  14.040   1.441   0.163
68159SOL    HW2 6310  14.034   1.290   0.157
68160SOL     OW 6311   4.237   9.426   8.059
68160SOL    HW1 6312   4.188   9.387   7.986
68160SOL    HW2 6313   4.268   9.351   8.110
68161SOL     OW 6314   3.208   5.202   8.329
68161SOL    HW1 6315   3.228   5.259   8.403
68161SOL    HW2 6316   3.252   5.119   8.350
68162SOL     OW 6317   5.389   6.323   3.080
68162SOL    HW1 6318   5.427   6.360   3.160
68162SOL    HW2 6319   5.342   6.245   3.109
68163SOL     OW 6320   1.497   5.081   3.898
68163SOL    HW1 6321   1.523   5.064   3.807
68163SOL    HW2 6322   1.574   5.055   3.949
68164SOL     OW 6323   6.741   4.055  14.742
68164SOL    HW1 6324   6.795   4.039  14.666
68164SOL    HW2 6325   6.802   4.053  14.816
68165SOL     OW 6326   5.696   4.629   5.359
68165SOL    HW1 6327   5.763   4.674   5.308
68165SOL    HW2 6328   5.729   4.539   5.368
68166SOL     OW 6329   2.664   5.219   4.779
68166SOL    HW1 6330   2.585   5.250   4.822
68166SOL    HW2 6331   2.719   5.296   4.769
68167SOL     OW 6332   9.012   0.921   6.177
68167SOL    HW1 6333   8.978   0.835   6.202
68167SOL    HW2 6334   9.093   0.902   6.131
68168SOL     OW 6335  12.957   5.954   9.579
68168SOL    HW1 6336  12.914   6.035   9.607
68168SOL    HW2 6337  12.888   5.887   9.586
68169SOL     OW 6338   8.520   7.632   0.037
68169SOL    HW1 6339   8.558   7.655  14.824
68169SOL    HW2 6340   8.439   7.586   0.017
68170SOL     OW 6341   1.534   5.528   2.915
68170SOL    HW1 6342   1.622   5.498   2.937
68170SOL    HW2 6343   1.541   5.623   2.909
68171SOL     OW 6344   4.376   2.481   4.220
68171SOL    HW1 6345   4.407   2.424   4.290
68171SOL    HW2 6346   4.337   2.421   4.156
68172SOL     OW 6347   0.263   0.192   6.178
68172SOL    HW1 6348   0.270   0.219   6.086
68172SOL    HW2 6349   0.310   0.109   6.182
68173SOL     OW 6350   0.361   2.956   6.294
68173SOL    HW1 6351   0.269   2.977   6.313
68173SOL    HW2 6352   0.358   2.870   6.252
68174SOL     OW 6353   2.572   6.231   1.368
68174SOL    HW1 6354   2.602   6.320   1.348
68174SOL    HW2 6355   2.477   6.236   1.360
68175SOL     OW 6356  13.176  14.490   3.756
68175SOL    HW1 6357  13.172  14.455   3.845
68175SOL    HW2 6358  13.266  14.523   3.748
68176SOL     OW 6359   0.755   0.960   6.104
68176SOL    HW1 6360   0.714   1.018   6.040
68176SOL    HW2 6361   0.761   1.013   6.184
68177SOL     OW 6362  13.014  10.641  14.043
68177SOL    HW1 6363  12.942  10.635  13.980
68177SOL    HW2 6364  13.066  10.716  14.014
68178SOL     OW 6365   9.354  13.733  14.497
68178SOL    HW1 6366   9.399  13.810  14.533
68178SOL    HW2 6367   9.266  13.737  14.535
68179SOL     OW 6368   7.966   0.108   2.004
68179SOL    HW1 6369   8.049   0.131   2.046
68179SOL    HW2 6370   7.990   0.087   1.913
68180SOL     OW 6371   8.089  10.364   4.326
68180SOL    HW1 6372   8.041  10.305   4.267
68180SOL    HW2 6373   8.082  10.450   4.284
68181SOL     OW 6374  13.069  12.792   9.079
68181SOL    HW1 6375  13.128  12.725   9.042
68181SOL    HW2 6376  12.982  12.763   9.052
68182SOL     OW 6377   7.817   4.532   4.143
68182SOL    HW1 6378   7.754   4.468   4.176
68182SOL    HW2 6379   7.804   4.532   4.048
68183SOL     OW 6380  10.669   8.914   6.132
68183SOL    HW1 6381  10.758   8.885   6.153
68183SOL    HW2 6382  10.616   8.835   6.138
68184SOL     OW 6383  13.228   2.048   2.490
68184SOL    HW1 6384  13.280   1.998   2.553
68184SOL    HW2 6385  13.284   2.054   2.412
68185SOL     OW 6386   7.684   9.916   9.026
68185SOL    HW1 6387   7.774   9.897   9.052
68185SOL    HW2 6388   7.652   9.975   9.094
68186SOL     OW 6389   3.897   1.074   0.866
68186SOL    HW1 6390   3.873   1.043   0.953
68186SOL    HW2 6391   3.992   1.062   0.861
68187SOL     OW 6392  13.722   4.780   2.515
68187SOL    HW1 6393  13.708   4.849   2.450
68187SOL    HW2 6394  13.667   4.805   2.589
68188SOL     OW 6395  12.821   9.565  14.658
68188SOL    HW1 6396  12.731   9.597  14.653
68188SOL    HW2 6397  12.875   9.644  14.653
68189SOL     OW 6398   7.781   4.222   0.886
68189SOL    HW1 6399   7.863   4.255   0.922
68189SOL    HW2 6400   7.752   4.155   0.948
68190SOL     OW 6401  12.606  10.536  10.879
68190SOL    HW1 6402  12.599  10.511  10.971
68190SOL    HW2 6403  12.652  10.620  10.881
68191SOL     OW 6404   6.425   4.938   2.566
68191SOL    HW1 6405   6.454   4.870   2.505
68191SOL    HW2 6406   6.420   4.895   2.651
68192SOL     OW 6407   3.972   4.135  12.451
68192SOL    HW1 6408   4.032   4.071  12.489
68192SOL    HW2 6409   3.987   4.215  12.502
68193SOL     OW 6410  11.179  14.788  10.008
68193SOL    HW1 6411  11.203   0.008   9.995
68193SOL    HW2 6412  11.243  14.739   9.958
68194SOL     OW 6413  11.468   6.208   2.166
68194SOL    HW1 6414  11.444   6.227   2.257
68194SOL    HW2 6415  11.535   6.140   2.172
68195SOL     OW 6416  10.713   0.492   5.505
68195SOL    HW1 6417  10.780   0.559   5.519
68195SOL    HW2 6418  10.714   0.475   5.411
68196SOL     OW 6419   1.524   1.136   8.399
68196SOL    HW1 6420   1.434   1.108   8.386
68196SOL    HW2 6421   1.517   1.227   8.428
68197SOL     OW 6422   1.417   4.315  12.912
68197SOL    HW1 6423   1.390   4.402  12.882
68197SOL    HW2 6424   1.381   4.255  12.847
68198SOL     OW 6425   7.812   9.736  13.070
68198SOL    HW1 6426   7.895   9.705  13.108
68198SOL    HW2 6427   7.834   9.819  13.028
68199SOL     OW 6428   1.487  13.534   8.143
68199SOL    HW1 6429   1.570  13.541   8.190
68199SOL    HW2 6430   1.450  13.622   8.145
68200SOL     OW 6431   6.633  11.444  12.167
68200SOL    HW1 6432   6.688  11.376  12.128
68200SOL    HW2 6433   6.689  11.521  12.170
68201SOL     OW 6434   8.713   8.862   0.187
68201SOL    HW1 6435   8.687   8.853   0.279
68201SOL    HW2 6436   8.806   8.883   0.191
68202SOL     OW 6437   2.902   8.155   6.634
68202SOL    HW1 6438   2.975   8.139   6.693
68202SOL    HW2 6439   2.867   8.240   6.661
68203SOL     OW 6440   8.685  11.995  11.078
68203SOL    HW1 6441   8.748  12.016  11.010
68203SOL    HW2 6442   8.624  11.933  11.036
68204SOL     OW 6443  13.854  13.162  14.479
68204SOL    HW1 6444  13.900  13.103  14.420
68204SOL    HW2 6445  13.882  13.135  14.567
68205SOL     OW 6446   9.383  12.317   8.584
68205SOL    HW1 6447   9.353  12.240   8.631
68205SOL    HW2 6448   9.335  12.314   8.501
68206SOL     OW 6449   1.090   0.123   7.056
68206SOL    HW1 6450   1.046   0.196   7.013
68206SOL    HW2 6451   1.020   0.073   7.098
68207SOL     OW 6452   0.130  13.070   4.665
68207SOL    HW1 6453   0.120  13.100   4.755
68207SOL    HW2 6454   0.045  13.087   4.624
68208SOL     OW 6455  11.937  10.274  13.509
68208SOL    HW1 6456  11.860  10.268  13.452
68208SOL    HW2 6457  11.955  10.183  13.534
68209SOL     OW 6458  13.922  14.285   3.851
68209SOL    HW1 6459  13.928  14.259   3.943
68209SOL    HW2 6460  13.877  14.369   3.852
68210SOL     OW 6461  12.861   9.079   5.444
68210SOL    HW1 6462  12.939   9.133   5.459
68210SOL    HW2 6463  12.841   9.091   5.351
68211SOL     OW 6464   0.181  13.445   2.509
68211SOL    HW1 6465   0.196  13.456   2.415
68211SOL    HW2 6466   0.086  13.445   2.519
68212SOL     OW 6467   8.051  10.007  13.584
68212SOL    HW1 6468   8.134  10.053  13.596
68212SOL    HW2 6469   8.049   9.941  13.653
68213SOL     OW 6470  13.436   8.096   6.216
68213SOL    HW1 6471  13.425   8.001   6.225
68213SOL    HW2 6472  13.418   8.131   6.303
68214SOL     OW 6473   6.716  12.382  11.811
68214SOL    HW1 6474   6.702  12.395  11.905
68214SOL    HW2 6475   6.646  12.322  11.784
68215SOL     OW 6476  11.652  13.643  10.351
68215SOL    HW1 6477  11.605  13.595  10.283
68215SOL    HW2 6478  11.710  13.578  10.391
68216SOL     OW 6479   3.684   2.380   6.027
68216SOL    HW1 6480   3.663   2.429   5.948
68216SOL    HW2 6481   3.600   2.345   6.057
68217SOL     OW 6482  10.194   9.431   0.157
68217SOL    HW1 6483  10.218   9.515   0.118
68217SOL    HW2 6484  10.134   9.454   0.228
68218SOL     OW 6485   0.043  12.384   8.364
68218SOL    HW1 6486   0.098  12.455   8.331
68218SOL    HW2 6487   0.001  12.347   8.286
68219SOL     OW 6488   4.303   2.925   9.040
68219SOL    HW1 6489   4.389   2.890   9.062
68219SOL    HW2 6490   4.280   2.882   8.958
68220SOL     OW 6491  11.362  14.859   3.701
68220SOL    HW1 6492  11.304   0.042   3.755
68220SOL    HW2 6493  11.367   0.033   3.617
68221SOL     OW 6494   1.908  10.024   6.731
68221SOL    HW1 6495   1.839  10.077   6.769
68221SOL    HW2 6496   1.966  10.087   6.688
68222SOL     OW 6497   4.097   8.329   9.977
68222SOL    HW1 6498   4.011   8.290   9.992
68222SOL    HW2 6499   4.096   8.409  10.030
68223SOL     OW 6500   6.381  14.262   8.052
68223SOL    HW1 6501   6.364  14.170   8.067
68223SOL    HW2 6502   6.441  14.264   7.977
68224SOL     OW 6503  10.696  13.317   2.724
68224SOL    HW1 6504  10.744  13.359   2.653
68224SOL    HW2 6505  10.614  13.367   2.730
68225SOL     OW 6506  10.762   2.050   0.032
68225SOL    HW1 6507  10.716   2.112   0.089
68225SOL    HW2 6508  10.854   2.074   0.039
68226SOL     OW 6509   3.624   7.704   5.585
68226SOL    HW1 6510   3.712   7.742   5.580
68226SOL    HW2 6511   3.579   7.759   5.650
68227SOL     OW 6512  10.008   4.752  10.700
68227SOL    HW1 6513  10.068   4.793  10.762
68227SOL    HW2 6514   9.993   4.820  10.633
68228SOL     OW 6515   8.383   6.900   8.529
68228SOL    HW1 6516   8.437   6.975   8.508
68228SOL    HW2 6517   8.372   6.904   8.624
68229SOL     OW 6518   5.891   1.291  14.023
68229SOL    HW1 6519   5.912   1.296  14.117
68229SOL    HW2 6520   5.878   1.381  13.997
68230SOL     OW 6521   2.546   8.597   7.028
68230SOL    HW1 6522   2.569   8.660   6.960
68230SOL    HW2 6523   2.490   8.646   7.089
68231SOL     OW 6524   7.878   0.680  14.000
68231SOL    HW1 6525   7.890   0.646  13.912
68231SOL    HW2 6526   7.900   0.773  13.994
68232SOL     OW 6527   4.256  14.664   4.462
68232SOL    HW1 6528   4.181  14.682   4.405
68232SOL    HW2 6529   4.325  14.638   4.402
68233SOL     OW 6530   4.830   0.772   6.245
68233SOL    HW1 6531   4.776   0.713   6.192
68233SOL    HW2 6532   4.771   0.841   6.273
68234SOL     OW 6533  13.846  13.712   9.230
68234SOL    HW1 6534  13.914  13.695   9.295
68234SOL    HW2 6535  13.874  13.665   9.152
68235SOL     OW 6536  12.161   5.052  13.880
68235SOL    HW1 6537  12.228   5.024  13.942
68235SOL    HW2 6538  12.103   5.108  13.932
68236SOL     OW 6539   9.182   0.242   7.870
68236SOL    HW1 6540   9.254   0.250   7.933
68236SOL    HW2 6541   9.111   0.292   7.911
68237SOL     OW 6542   4.779  11.451   2.250
68237SOL    HW1 6543   4.698  11.500   2.235
68237SOL    HW2 6544   4.789  11.450   2.345
68238SOL     OW 6545   9.344   0.513   0.432
68238SOL    HW1 6546   9.438   0.517   0.414
68238SOL    HW2 6547   9.317   0.605   0.439
68239SOL     OW 6548   5.488   2.577   8.163
68239SOL    HW1 6549   5.555   2.645   8.169
68239SOL    HW2 6550   5.405   2.623   8.175
68240SOL     OW 6551  10.054  11.196   3.865
68240SOL    HW1 6552  10.062  11.103   3.846
68240SOL    HW2 6553  10.065  11.203   3.960
68241SOL     OW 6554   2.668  12.906   1.126
68241SOL    HW1 6555   2.619  12.860   1.194
68241SOL    HW2 6556   2.759  12.882   1.142
68242SOL     OW 6557  12.467   1.924   4.590
68242SOL    HW1 6558  12.472   1.855   4.523
68242SOL    HW2 6559  12.457   1.877   4.672
68243SOL     OW 6560  13.902  14.596   5.417
68243SOL    HW1 6561  13.879  14.563   5.504
68243SOL    HW2 6562  13.839  14.667   5.401
68244SOL     OW 6563  12.809  12.669  13.907
68244SOL    HW1 6564  12.795  12.762  13.888
68244SOL    HW2 6565  12.851  12.634  13.829
68245SOL     OW 6566   3.941   8.817   6.257
68245SOL    HW1 6567   3.991   8.897   6.240
68245SOL    HW2 6568   3.866   8.822   6.199
68246SOL     OW 6569   9.785  14.101   8.678
68246SOL    HW1 6570   9.776  14.078   8.770
68246SOL    HW2 6571   9.815  14.192   8.678
68247SOL     OW 6572   6.917  13.486   8.069
68247SOL    HW1 6573   6.907  13.527   8.155
68247SOL    HW2 6574   6.967  13.550   8.018
68248SOL     OW 6575   3.748   9.447   6.295
68248SOL    HW1 6576   3.684   9.409   6.235
68248SOL    HW2 6577   3.773   9.530   6.255
68249SOL     OW 6578   6.023   6.371   0.532
68249SOL    HW1 6579   6.000   6.455   0.492
68249SOL    HW2 6580   6.029   6.310   0.459
68250SOL     OW 6581  10.178   8.633   2.866
68250SOL    HW1 6582  10.181   8.547   2.909
68250SOL    HW2 6583  10.086   8.660   2.873
68251SOL     OW 6584  10.517   3.744  13.453
68251SOL    HW1 6585  10.429   3.709  13.459
68251SOL    HW2 6586  10.506   3.828  13.407
68252SOL     OW 6587  10.130   0.463   2.249
68252SOL    HW1 6588  10.127   0.513   2.331
68252SOL    HW2 6589  10.210   0.410   2.257
68253SOL     OW 6590   4.977  14.196   4.767
68253SOL    HW1 6591   5.031  14.270   4.742
68253SOL    HW2 6592   5.039  14.126   4.788
68254SOL     OW 6593  14.202   9.141  12.151
68254SOL    HW1 6594  14.264   9.206  12.117
68254SOL    HW2 6595  14.219   9.140  12.245
68255SOL     OW 6596   0.126   4.178  14.122
68255SOL    HW1 6597   0.031   4.171  14.115
68255SOL    HW2 6598   0.160   4.118  14.057
68256SOL     OW 6599   0.531   8.725   4.378
68256SOL    HW1 6600   0.445   8.717   4.338
68256SOL    HW2 6601   0.579   8.649   4.346
68257SOL     OW 6602   9.364   0.326  14.582
68257SOL    HW1 6603   9.332   0.329  14.491
68257SOL    HW2 6604   9.300   0.271  14.628
68258SOL     OW 6605   9.913   7.652   2.019
68258SOL    HW1 6606   9.993   7.605   2.043
68258SOL    HW2 6607   9.939   7.744   2.019
68259SOL     OW 6608   6.962  10.997  11.109
68259SOL    HW1 6609   7.035  10.940  11.135
68259SOL    HW2 6610   6.991  11.085  11.132
68260SOL     OW 6611   5.067   6.965   4.882
68260SOL    HW1 6612   5.014   6.920   4.948
68260SOL    HW2 6613   5.151   6.921   4.884
68261SOL     OW 6614   3.432   4.873   2.668
68261SOL    HW1 6615   3.397   4.917   2.590
68261SOL    HW2 6616   3.520   4.846   2.644
68262SOL     OW 6617   4.103  10.508   6.503
68262SOL    HW1 6618   4.187  10.521   6.458
68262SOL    HW2 6619   4.099  10.581   6.565
68263SOL     OW 6620   1.162   7.790   8.962
68263SOL    HW1 6621   1.079   7.756   8.995
68263SOL    HW2 6622   1.197   7.718   8.909
68264SOL     OW 6623   1.893  12.226  10.864
68264SOL    HW1 6624   1.806  12.185  10.866
68264SOL    HW2 6625   1.944  12.169  10.807
68265SOL     OW 6626  14.526   1.302   0.030
68265SOL    HW1 6627  14.552   1.260  14.820
68265SOL    HW2 6628  14.534   1.233   0.095
68266SOL     OW 6629   5.787  13.850  13.588
68266SOL    HW1 6630   5.874  13.887  13.570
68266SOL    HW2 6631   5.804  13.762  13.620
68267SOL     OW 6632   0.599   9.895   3.313
68267SOL    HW1 6633   0.514   9.920   3.279
68267SOL    HW2 6634   0.642   9.851   3.240
68268SOL     OW 6635   6.069  10.826   2.381
68268SOL    HW1 6636   6.035  10.916   2.378
68268SOL    HW2 6637   6.137  10.825   2.314
68269SOL     OW 6638  11.815   9.945   7.928
68269SOL    HW1 6639  11.852   9.987   8.006
68269SOL    HW2 6640  11.776  10.017   7.879
68270SOL     OW 6641   5.008   3.761   1.418
68270SOL    HW1 6642   4.989   3.739   1.327
68270SOL    HW2 6643   4.952   3.702   1.469
68271SOL     OW 6644   2.375   1.006   1.491
68271SOL    HW1 6645   2.330   1.005   1.576
68271SOL    HW2 6646   2.434   0.930   1.495
68272SOL     OW 6647  11.138  13.882   0.398
68272SOL    HW1 6648  11.158  13.975   0.398
68272SOL    HW2 6649  11.123  13.861   0.306
68273SOL     OW 6650   3.955  12.685   4.648
68273SOL    HW1 6651   4.000  12.616   4.696
68273SOL    HW2 6652   3.881  12.709   4.704
68274SOL     OW 6653  10.236   2.257   9.933
68274SOL    HW1 6654  10.245   2.325   9.867
68274SOL    HW2 6655  10.142   2.240   9.937
68275SOL     OW 6656   0.162   6.917   8.790
68275SOL    HW1 6657   0.122   6.998   8.821
68275SOL    HW2 6658   0.207   6.941   8.709
68276SOL     OW 6659  11.280   7.714   2.717
68276SOL    HW1 6660  11.197   7.749   2.686
68276SOL    HW2 6661  11.335   7.791   2.732
68277SOL     OW 6662   5.096   6.740   5.866
68277SOL    HW1 6663   5.190   6.755   5.881
68277SOL    HW2 6664   5.092   6.700   5.780
68278SOL     OW 6665   9.236   6.666  14.296
68278SOL    HW1 6666   9.273   6.602  14.356
68278SOL    HW2 6667   9.278   6.749  14.320
68279SOL     OW 6668  12.493   1.753   4.859
68279SOL    HW1 6669  12.466   1.705   4.937
68279SOL    HW2 6670  12.578   1.717   4.836
68280SOL     OW 6671  10.190  11.448   4.001
68280SOL    HW1 6672  10.180  11.515   4.069
68280SOL    HW2 6673  10.158  11.490   3.922
68281SOL     OW 6674   6.982  11.643   4.745
68281SOL    HW1 6675   7.035  11.647   4.666
68281SOL    HW2 6676   6.935  11.559   4.739
68282SOL     OW 6677  14.137   7.941   1.415
68282SOL    HW1 6678  14.048   7.928   1.382
68282SOL    HW2 6679  14.193   7.937   1.338
68283SOL     OW 6680   3.108   3.625   2.666
68283SOL    HW1 6681   3.177   3.590   2.609
68283SOL    HW2 6682   3.082   3.551   2.721
68284SOL     OW 6683   9.725   7.052  14.164
68284SOL    HW1 6684   9.742   7.145  14.147
68284SOL    HW2 6685   9.765   7.036  14.249
68285SOL     OW 6686   5.904  10.796   6.992
68285SOL    HW1 6687   5.884  10.887   7.018
68285SOL    HW2 6688   5.873  10.743   7.066
68286SOL     OW 6689   2.555   8.817   4.582
68286SOL    HW1 6690   2.465   8.794   4.608
68286SOL    HW2 6691   2.556   8.912   4.580
68287SOL     OW 6692   5.595   6.207   6.779
68287SOL    HW1 6693   5.505   6.235   6.798
68287SOL    HW2 6694   5.617   6.147   6.850
68288SOL     OW 6695  13.475  13.337  13.015
68288SOL    HW1 6696  13.453  13.319  12.923
68288SOL    HW2 6697  13.527  13.261  13.042
68289SOL     OW 6698   0.230   5.146   7.914
68289SOL    HW1 6699   0.203   5.184   7.998
68289SOL    HW2 6700   0.148   5.112   7.876
68290SOL     OW 6701  11.513   1.936   0.191
68290SOL    HW1 6702  11.493   1.842   0.190
68290SOL    HW2 6703  11.461   1.971   0.263
68291SOL     OW 6704   0.935   1.454   6.570
68291SOL    HW1 6705   0.920   1.431   6.662
68291SOL    HW2 6706   0.907   1.545   6.563
68292SOL     OW 6707   4.073   1.180   4.610
68292SOL    HW1 6708   4.015   1.170   4.686
68292SOL    HW2 6709   4.023   1.236   4.550
68293SOL     OW 6710   9.520   2.948   5.572
68293SOL    HW1 6711   9.501   2.986   5.487
68293SOL    HW2 6712   9.478   2.862   5.570
68294SOL     OW 6713  13.063   9.200  11.296
68294SOL    HW1 6714  13.123   9.274  11.303
68294SOL    HW2 6715  13.069   9.173  11.205
68295SOL     OW 6716   0.946   1.627   9.969
68295SOL    HW1 6717   1.022   1.615   9.913
68295SOL    HW2 6718   0.914   1.538   9.985
68296SOL     OW 6719   4.217  10.842   0.043
68296SOL    HW1 6720   4.198  10.803  14.830
68296SOL    HW2 6721   4.305  10.878   0.034
68297SOL     OW 6722   1.801   4.410  10.084
68297SOL    HW1 6723   1.787   4.383   9.993
68297SOL    HW2 6724   1.767   4.500  10.088
68298SOL     OW 6725   2.706   7.168  10.873
68298SOL    HW1 6726   2.680   7.188  10.962
68298SOL    HW2 6727   2.643   7.102  10.843
68299SOL     OW 6728  12.642   8.686   2.449
68299SOL    HW1 6729  12.715   8.696   2.511
68299SOL    HW2 6730  12.658   8.603   2.406
68300SOL     OW 6731   9.380   0.591   1.761
68300SOL    HW1 6732   9.312   0.617   1.824
68300SOL    HW2 6733   9.462   0.608   1.807
68301SOL     OW 6734   3.811   0.590  11.189
68301SOL    HW1 6735   3.740   0.633  11.235
68301SOL    HW2 6736   3.867   0.661  11.157
68302SOL     OW 6737  13.109   1.702   7.371
68302SOL    HW1 6738  13.143   1.670   7.288
68302SOL    HW2 6739  13.041   1.639   7.395
68303SOL     OW 6740   9.806  14.321  11.351
68303SOL    HW1 6741   9.756  14.300  11.272
68303SOL    HW2 6742   9.739  14.335  11.419
68304SOL     OW 6743   1.191   5.561  13.071
68304SOL    HW1 6744   1.155   5.618  13.140
68304SOL    HW2 6745   1.272   5.605  13.044
68305SOL     OW 6746   6.314  11.139  12.182
68305SOL    HW1 6747   6.318  11.171  12.272
68305SOL    HW2 6748   6.268  11.055  12.189
68306SOL     OW 6749   5.330   3.653   1.786
68306SOL    HW1 6750   5.319   3.747   1.795
68306SOL    HW2 6751   5.245   3.616   1.811
68307SOL     OW 6752   6.435  13.191   4.590
68307SOL    HW1 6753   6.384  13.114   4.561
68307SOL    HW2 6754   6.478  13.221   4.510
68308SOL     OW 6755  11.138  11.603   0.332
68308SOL    HW1 6756  11.227  11.605   0.366
68308SOL    HW2 6757  11.088  11.659   0.391
68309SOL     OW 6758  14.295  10.542   1.272
68309SOL    HW1 6759  14.294  10.619   1.330
68309SOL    HW2 6760  14.203  10.517   1.263
68310SOL     OW 6761   2.886  11.224   3.290
68310SOL    HW1 6762   2.798  11.206   3.257
68310SOL    HW2 6763   2.872  11.285   3.363
68311SOL     OW 6764  12.821   3.952  12.842
68311SOL    HW1 6765  12.818   4.048  12.846
68311SOL    HW2 6766  12.729   3.925  12.840
68312SOL     OW 6767   1.732  12.255   7.227
68312SOL    HW1 6768   1.703  12.274   7.137
68312SOL    HW2 6769   1.808  12.198   7.216
68313SOL     OW 6770   4.530  13.755  14.841
68313SOL    HW1 6771   4.480  13.762   0.051
68313SOL    HW2 6772   4.521  13.842  14.801
68314SOL     OW 6773   5.656   5.752  11.584
68314SOL    HW1 6774   5.734   5.766  11.638
68314SOL    HW2 6775   5.603   5.689  11.633
68315SOL     OW 6776   7.385   8.489  14.853
68315SOL    HW1 6777   7.452   8.522  14.792
68315SOL    HW2 6778   7.358   8.405  14.816
68316SOL     OW 6779  13.507  13.932   6.688
68316SOL    HW1 6780  13.469  14.015   6.717
68316SOL    HW2 6781  13.588  13.957   6.643
68317SOL     OW 6782   5.669  14.307  13.688
68317SOL    HW1 6783   5.635  14.318  13.777
68317SOL    HW2 6784   5.701  14.394  13.664
68318SOL     OW 6785  13.516  10.013   2.493
68318SOL    HW1 6786  13.443   9.951   2.498
68318SOL    HW2 6787  13.566   9.986   2.416
68319SOL     OW 6788   3.537   2.857   9.858
68319SOL    HW1 6789   3.467   2.888   9.801
68319SOL    HW2 6790   3.549   2.928   9.922
68320SOL     OW 6791   2.641   1.362   9.202
68320SOL    HW1 6792   2.618   1.271   9.184
68320SOL    HW2 6793   2.636   1.369   9.297
68321SOL     OW 6794   7.166   9.275  10.515
68321SOL    HW1 6795   7.126   9.261  10.601
68321SOL    HW2 6796   7.179   9.370  10.510
68322SOL     OW 6797   8.439   2.765   0.601
68322SOL    HW1 6798   8.469   2.828   0.536
68322SOL    HW2 6799   8.377   2.813   0.655
68323SOL     OW 6800   4.442  12.958   4.049
68323SOL    HW1 6801   4.497  12.952   4.127
68323SOL    HW2 6802   4.379  13.028   4.069
68324SOL     OW 6803   1.663   4.592  12.294
68324SOL    HW1 6804   1.622   4.673  12.326
68324SOL    HW2 6805   1.711   4.619  12.216
68325SOL     OW 6806  14.362   4.883  10.038
68325SOL    HW1 6807  14.313   4.810  10.075
68325SOL    HW2 6808  14.439   4.842   9.998
68326SOL     OW 6809   6.934   6.676   4.163
68326SOL    HW1 6810   7.029   6.673   4.179
68326SOL    HW2 6811   6.926   6.666   4.068
68327SOL     OW 6812  10.053  13.882   0.655
68327SOL    HW1 6813  10.090  13.859   0.570
68327SOL    HW2 6814   9.965  13.844   0.653
68328SOL     OW 6815   5.240   7.095  14.840
68328SOL    HW1 6816   5.326   7.055  14.827
68328SOL    HW2 6817   5.206   7.107  14.751
68329SOL     OW 6818   3.283   8.739  14.428
68329SOL    HW1 6819   3.285   8.808  14.495
68329SOL    HW2 6820   3.278   8.658  14.478
68330SOL     OW 6821   8.928   1.029   0.028
68330SOL    HW1 6822   8.862   0.999  14.837
68330SOL    HW2 6823   8.986   0.954   0.038
68331SOL     OW 6824  14.221  10.130  10.125
68331SOL    HW1 6825  14.168  10.209  10.131
68331SOL    HW2 6826  14.168  10.069  10.075
68332SOL     OW 6827   3.548  14.044   3.922
68332SOL    HW1 6828   3.551  14.072   3.831
68332SOL    HW2 6829   3.581  13.954   3.921
68333SOL     OW 6830   9.358   9.863   1.532
68333SOL    HW1 6831   9.446   9.884   1.500
68333SOL    HW2 6832   9.344   9.923   1.605
68334SOL     OW 6833   9.789  14.090   6.799
68334SOL    HW1 6834   9.842  14.160   6.760
68334SOL    HW2 6835   9.813  14.012   6.751
68335SOL     OW 6836  13.356   9.948  10.466
68335SOL    HW1 6837  13.412  10.025  10.458
68335SOL    HW2 6838  13.417   9.877  10.485
68336SOL     OW 6839   1.411   5.842   2.119
68336SOL    HW1 6840   1.407   5.891   2.037
68336SOL    HW2 6841   1.324   5.803   2.127
68337SOL     OW 6842   9.029   5.692   8.017
68337SOL    HW1 6843   9.113   5.727   7.985
68337SOL    HW2 6844   8.972   5.769   8.021
68338SOL     OW 6845  13.181   5.310   2.335
68338SOL    HW1 6846  13.235   5.308   2.256
68338SOL    HW2 6847  13.238   5.276   2.404
68339SOL     OW 6848  12.989  11.690  13.973
68339SOL    HW1 6849  12.902  11.670  14.008
68339SOL    HW2 6850  12.987  11.658  13.883
68340SOL     OW 6851   2.314  13.116  10.914
68340SOL    HW1 6852   2.316  13.069  10.997
68340SOL    HW2 6853   2.390  13.083  10.866
68341SOL     OW 6854   4.418   4.079   3.931
68341SOL    HW1 6855   4.425   4.132   3.851
68341SOL    HW2 6856   4.506   4.044   3.944
68342SOL     OW 6857   9.008   6.568  12.112
68342SOL    HW1 6858   9.100   6.552  12.090
68342SOL    HW2 6859   8.960   6.499  12.068
68343SOL     OW 6860  13.675   8.995  10.523
68343SOL    HW1 6861  13.692   8.988  10.429
68343SOL    HW2 6862  13.687   8.906  10.557
68344SOL     OW 6863   1.233   6.514   7.037
68344SOL    HW1 6864   1.186   6.461   6.973
68344SOL    HW2 6865   1.235   6.602   6.999
68345SOL     OW 6866   7.025  13.611  13.561
68345SOL    HW1 6867   7.120  13.622  13.564
68345SOL    HW2 6868   6.995  13.676  13.498
68346SOL     OW 6869   2.702   8.083  12.934
68346SOL    HW1 6870   2.659   8.090  12.849
68346SOL    HW2 6871   2.768   8.015  12.921
68347SOL     OW 6872   5.467   6.317   1.527
68347SOL    HW1 6873   5.550   6.364   1.521
68347SOL    HW2 6874   5.484   6.233   1.485
68348SOL     OW 6875   9.217   0.214   7.301
68348SOL    HW1 6876   9.233   0.197   7.394
68348SOL    HW2 6877   9.162   0.293   7.300
68349SOL     OW 6878  13.848  10.057   5.475
68349SOL    HW1 6879  13.882  10.133   5.522
68349SOL    HW2 6880  13.910   9.987   5.495
68350SOL     OW 6881   5.140   6.557   4.798
68350SOL    HW1 6882   5.234   6.576   4.791
68350SOL    HW2 6883   5.115   6.528   4.710
68351SOL     OW 6884   3.076  12.305  13.416
68351SOL    HW1 6885   3.055  12.271  13.503
68351SOL    HW2 6886   3.082  12.400  13.428
68352SOL     OW 6887  10.511   9.359   2.010
68352SOL    HW1 6888  10.587   9.373   2.065
68352SOL    HW2 6889  10.545   9.357   1.920
68353SOL     OW 6890   3.098   5.723  13.712
68353SOL    HW1 6891   3.150   5.716  13.792
68353SOL    HW2 6892   3.018   5.674  13.730
68354SOL     OW 6893   7.799  11.516   1.727
68354SOL    HW1 6894   7.752  11.448   1.678
68354SOL    HW2 6895   7.829  11.472   1.807
68355SOL     OW 6896  14.850  11.546   2.360
68355SOL    HW1 6897   0.050  11.509   2.411
68355SOL    HW2 6898  14.801  11.469   2.329
68356SOL     OW 6899   7.876   2.156   9.408
68356SOL    HW1 6900   7.964   2.184   9.433
68356SOL    HW2 6901   7.857   2.205   9.328
68357SOL     OW 6902  10.292   5.959   7.577
68357SOL    HW1 6903  10.218   5.956   7.516
68357SOL    HW2 6904  10.365   5.919   7.529
68358SOL     OW 6905  13.600  14.462  12.498
68358SOL    HW1 6906  13.613  14.408  12.575
68358SOL    HW2 6907  13.664  14.533  12.507
68359SOL     OW 6908   8.702  10.819   7.653
68359SOL    HW1 6909   8.719  10.908   7.685
68359SOL    HW2 6910   8.788  10.785   7.627
68360SOL     OW 6911   8.852   4.782  14.840
68360SOL    HW1 6912   8.836   4.704   0.020
68360SOL    HW2 6913   8.939   4.811  14.866
68361SOL     OW 6914   1.685   1.977  11.653
68361SOL    HW1 6915   1.649   2.029  11.581
68361SOL    HW2 6916   1.768   1.943  11.619
68362SOL     OW 6917  10.718  10.927  13.286
68362SOL    HW1 6918  10.780  10.999  13.289
68362SOL    HW2 6919  10.724  10.886  13.372
68363SOL     OW 6920  10.806   6.419   7.141
68363SOL    HW1 6921  10.792   6.512   7.160
68363SOL    HW2 6922  10.719   6.385   7.121
68364SOL     OW 6923   8.466   8.676  14.076
68364SOL    HW1 6924   8.556   8.643  14.084
68364SOL    HW2 6925   8.477   8.770  14.063
68365SOL     OW 6926   0.101   5.104  10.460
68365SOL    HW1 6927   0.049   5.160  10.517
68365SOL    HW2 6928   0.040   5.037  10.429
68366SOL     OW 6929   1.486   4.000   8.260
68366SOL    HW1 6930   1.396   3.993   8.292
68366SOL    HW2 6931   1.481   4.062   8.187
68367SOL     OW 6932   3.899  13.404   0.465
68367SOL    HW1 6933   3.885  13.482   0.412
68367SOL    HW2 6934   3.889  13.331   0.403
68368SOL     OW 6935   5.293   4.249  14.654
68368SOL    HW1 6936   5.361   4.186  14.677
68368SOL    HW2 6937   5.340   4.320  14.611
68369SOL     OW 6938   2.513  11.175   0.405
68369SOL    HW1 6939   2.575  11.229   0.454
68369SOL    HW2 6940   2.456  11.238   0.361
68370SOL     OW 6941   2.792  12.318  14.390
68370SOL    HW1 6942   2.841  12.373  14.328
68370SOL    HW2 6943   2.703  12.354  14.388
68371SOL     OW 6944  10.776  14.293   6.186
68371SOL    HW1 6945  10.698  14.335   6.223
68371SOL    HW2 6946  10.781  14.327   6.097
68372SOL     OW 6947   1.266   7.579   1.145
68372SOL    HW1 6948   1.316   7.659   1.158
68372SOL    HW2 6949   1.176   7.608   1.132
68373SOL     OW 6950   5.939   0.029   6.109
68373SOL    HW1 6951   5.966   0.067   6.025
68373SOL    HW2 6952   6.002  14.832   6.126
68374SOL     OW 6953   3.415   2.422   3.137
68374SOL    HW1 6954   3.469   2.361   3.186
68374SOL    HW2 6955   3.434   2.508   3.175
68375SOL     OW 6956  13.922   0.200   8.679
68375SOL    HW1 6957  13.906   0.115   8.639
68375SOL    HW2 6958  13.873   0.263   8.625
68376SOL     OW 6959   7.832   4.968   9.488
68376SOL    HW1 6960   7.883   5.033   9.440
68376SOL    HW2 6961   7.888   4.890   9.488
68377SOL     OW 6962   0.799  11.906   0.804
68377SOL    HW1 6963   0.857  11.938   0.735
68377SOL    HW2 6964   0.717  11.885   0.759
68378SOL     OW 6965   7.763   8.067   0.092
68378SOL    HW1 6966   7.843   8.088   0.044
68378SOL    HW2 6967   7.786   7.988   0.142
68379SOL     OW 6968   6.226   4.481   4.338
68379SOL    HW1 6969   6.199   4.564   4.300
68379SOL    HW2 6970   6.172   4.473   4.417
68380SOL     OW 6971  12.168   1.711   8.235
68380SOL    HW1 6972  12.256   1.674   8.228
68380SOL    HW2 6973  12.113   1.638   8.263
68381SOL     OW 6974   8.322   1.100  14.766
68381SOL    HW1 6975   8.354   1.066  14.682
68381SOL    HW2 6976   8.402   1.123  14.814
68382SOL     OW 6977   4.773   0.292   6.081
68382SOL    HW1 6978   4.753   0.216   6.027
68382SOL    HW2 6979   4.689   0.336   6.093
68383SOL     OW 6980   0.744   4.156   3.023
68383SOL    HW1 6981   0.673   4.178   2.963
68383SOL    HW2 6982   0.715   4.190   3.108
68384SOL     OW 6983   1.853   7.644   4.235
68384SOL    HW1 6984   1.816   7.609   4.316
68384SOL    HW2 6985   1.817   7.733   4.229
68385SOL     OW 6986   8.408  13.216   9.376
68385SOL    HW1 6987   8.315  13.230   9.395
68385SOL    HW2 6988   8.451  13.296   9.406
68386SOL     OW 6989   8.489  14.134   9.613
68386SOL    HW1 6990   8.577  14.130   9.575
68386SOL    HW2 6991   8.478  14.226   9.637
68387SOL     OW 6992   9.795  10.762  12.978
68387SOL    HW1 6993   9.709  10.796  13.005
68387SOL    HW2 6994   9.811  10.687  13.035
68388SOL     OW 6995  12.564   6.928   0.288
68388SOL    HW1 6996  12.564   6.969   0.374
68388SOL    HW2 6997  12.656   6.911   0.269
68389SOL     OW 6998   9.868  14.039   9.510
68389SOL    HW1 6999   9.800  14.106   9.512
68389SOL    HW2 7000   9.820  13.956   9.501
68390SOL     OW 7001   0.216  13.187   5.209
68390SOL    HW1 7002   0.307  13.176   5.182
68390SOL    HW2 7003   0.198  13.110   5.263
68391SOL     OW 7004  14.544  11.613  11.461
68391SOL    HW1 7005  14.477  11.547  11.480
68391SOL    HW2 7006  14.516  11.652  11.378
68392SOL     OW 7007   7.667   3.049   7.294
68392SOL    HW1 7008   7.571   3.041   7.295
68392SOL    HW2 7009   7.684   3.130   7.246
68393SOL     OW 7010   3.079   2.795  13.767
68393SOL    HW1 7011   3.007   2.853  13.740
68393SOL    HW2 7012   3.074   2.794  13.863
68394SOL     OW 7013  11.463   6.747   0.851
68394SOL    HW1 7014  11.481   6.687   0.924
68394SOL    HW2 7015  11.532   6.728   0.787
68395SOL     OW 7016  12.967  12.355   8.772
68395SOL    HW1 7017  12.954  12.338   8.865
68395SOL    HW2 7018  12.887  12.323   8.731
68396SOL     OW 7019   2.375   0.740  14.153
68396SOL    HW1 7020   2.438   0.697  14.096
68396SOL    HW2 7021   2.419   0.746  14.238
68397SOL     OW 7022   2.638  12.539   7.163
68397SOL    HW1 7023   2.713  12.559   7.106
68397SOL    HW2 7024   2.562  12.564   7.111
68398SOL     OW 7025   1.533  12.716   7.041
68398SOL    HW1 7026   1.540  12.643   6.980
68398SOL    HW2 7027   1.566  12.680   7.124
68399SOL     OW 7028   5.801   5.422   3.121
68399SOL    HW1 7029   5.747   5.465   3.188
68399SOL    HW2 7030   5.865   5.488   3.096
68400SOL     OW 7031   4.384   6.422   4.275
68400SOL    HW1 7032   4.343   6.417   4.362
68400SOL    HW2 7033   4.443   6.347   4.272
68401SOL     OW 7034   5.422   4.097  13.056
68401SOL    HW1 7035   5.365   4.140  13.120
68401SOL    HW2 7036   5.469   4.170  13.014
68402SOL     OW 7037   5.448  13.099   2.514
68402SOL    HW1 7038   5.450  13.166   2.447
68402SOL    HW2 7039   5.430  13.018   2.466
68403SOL     OW 7040   8.923   5.396   4.846
68403SOL    HW1 7041   8.902   5.312   4.804
68403SOL    HW2 7042   8.872   5.461   4.797
68404SOL     OW 7043   9.359  10.900   2.894
68404SOL    HW1 7044   9.446  10.934   2.873
68404SOL    HW2 7045   9.333  10.850   2.817
68405SOL     OW 7046   2.847   9.267  12.443
68405SOL    HW1 7047   2.914   9.331  12.469
68405SOL    HW2 7048   2.766   9.318  12.440
68406SOL     OW 7049  13.626   7.801   1.033
68406SOL    HW1 7050  13.603   7.786   1.125
68406SOL    HW2 7051  13.709   7.850   1.037
68407SOL     OW 7052   1.083   3.612   8.637
68407SOL    HW1 7053   1.045   3.577   8.556
68407SOL    HW2 7054   1.009   3.616   8.698
68408SOL     OW 7055   0.849   6.465  10.568
68408SOL    HW1 7056   0.917   6.460  10.500
68408SOL    HW2 7057   0.897   6.473  10.650
68409SOL     OW 7058  11.433  13.975   5.972
68409SOL    HW1 7059  11.379  13.903   5.941
68409SOL    HW2 7060  11.380  14.019   6.038
68410SOL     OW 7061   9.073   8.687  11.244
68410SOL    HW1 7062   9.112   8.639  11.171
68410SOL    HW2 7063   9.078   8.627  11.318
68411SOL     OW 7064   6.593  10.067   3.212
68411SOL    HW1 7065   6.655  10.058   3.139
68411SOL    HW2 7066   6.509  10.087   3.171
68412SOL     OW 7067   0.736   3.618   4.718
68412SOL    HW1 7068   0.787   3.698   4.706
68412SOL    HW2 7069   0.748   3.569   4.638
68413SOL     OW 7070   6.307   4.810   3.545
68413SOL    HW1 7071   6.225   4.761   3.533
68413SOL    HW2 7072   6.292   4.863   3.623
68414SOL     OW 7073   7.443   1.079   8.193
68414SOL    HW1 7074   7.388   1.111   8.121
68414SOL    HW2 7075   7.405   1.119   8.271
68415SOL     OW 7076  13.468   2.319   4.545
68415SOL    HW1 7077  13.390   2.289   4.499
68415SOL    HW2 7078  13.438   2.394   4.597
68416SOL     OW 7079   0.575   0.233  11.888
68416SOL    HW1 7080   0.576   0.139  11.870
68416SOL    HW2 7081   0.495   0.265  11.846
68417SOL     OW 7082   5.948   7.677   9.096
68417SOL    HW1 7083   5.913   7.621   9.026
68417SOL    HW2 7084   5.974   7.615   9.164
68418SOL     OW 7085   6.790   9.875   4.380
68418SOL    HW1 7086   6.754   9.789   4.360
68418SOL    HW2 7087   6.806   9.915   4.295
68419SOL     OW 7088  11.257   2.404   9.103
68419SOL    HW1 7089  11.211   2.478   9.064
68419SOL    HW2 7090  11.262   2.424   9.196
68420SOL     OW 7091  13.318  14.151   3.242
68420SOL    HW1 7092  13.338  14.134   3.334
68420SOL    HW2 7093  13.255  14.223   3.244
68421SOL     OW 7094  12.276  10.701  11.556
68421SOL    HW1 7095  12.253  10.653  11.477
68421SOL    HW2 7096  12.372  10.697  11.559
68422SOL     OW 7097   6.984  11.894   3.438
68422SOL    HW1 7098   6.940  11.937   3.512
68422SOL    HW2 7099   6.997  11.964   3.374
68423SOL     OW 7100   2.456   1.069   7.029
68423SOL    HW1 7101   2.425   1.109   6.948
68423SOL    HW2 7102   2.384   1.013   7.058
68424SOL     OW 7103   3.051   3.187   6.386
68424SOL    HW1 7104   2.966   3.177   6.429
68424SOL    HW2 7105   3.113   3.149   6.448
68425SOL     OW 7106  11.707   7.566  13.429
68425SOL    HW1 7107  11.612   7.554  13.439
68425SOL    HW2 7108  11.745   7.486  13.464
68426SOL     OW 7109   0.778   4.192  10.855
68426SOL    HW1 7110   0.839   4.124  10.825
68426SOL    HW2 7111   0.716   4.200  10.783
68427SOL     OW 7112   6.898   2.272  14.770
68427SOL    HW1 7113   6.968   2.334  14.751
68427SOL    HW2 7114   6.923   2.192  14.722
68428SOL     OW 7115   3.481  10.956   9.732
68428SOL    HW1 7116   3.514  10.981   9.646
68428SOL    HW2 7117   3.439  10.871   9.718
68429SOL     OW 7118   0.853  14.746   3.368
68429SOL    HW1 7119   0.792  14.820   3.362
68429SOL    HW2 7120   0.797  14.669   3.358
68430SOL     OW 7121   7.687  14.026  12.569
68430SOL    HW1 7122   7.653  14.103  12.616
68430SOL    HW2 7123   7.761  14.059  12.519
68431SOL     OW 7124   6.752   1.061  10.008
68431SOL    HW1 7125   6.840   1.098   9.995
68431SOL    HW2 7126   6.751   0.981   9.954
68432SOL     OW 7127  10.551   7.157  13.774
68432SOL    HW1 7128  10.626   7.164  13.832
68432SOL    HW2 7129  10.478   7.134  13.832
68433SOL     OW 7130   4.612  14.036  12.491
68433SOL    HW1 7131   4.628  14.026  12.585
68433SOL    HW2 7132   4.694  14.070  12.456
68434SOL     OW 7133  12.890   0.175  13.473
68434SOL    HW1 7134  12.911   0.120  13.549
68434SOL    HW2 7135  12.833   0.120  13.419
68435SOL     OW 7136  10.784   6.667   1.800
68435SOL    HW1 7137  10.709   6.657   1.859
68435SOL    HW2 7138  10.819   6.578   1.791
68436SOL     OW 7139  12.903  10.905  11.231
68436SOL    HW1 7140  12.950  10.932  11.152
68436SOL    HW2 7141  12.825  10.961  11.233
68437SOL     OW 7142   9.213  12.096  11.383
68437SOL    HW1 7143   9.232  12.126  11.294
68437SOL    HW2 7144   9.121  12.118  11.397
68438SOL     OW 7145   0.366  12.317   8.338
68438SOL    HW1 7146   0.336  12.402   8.306
68438SOL    HW2 7147   0.364  12.325   8.433
68439SOL     OW 7148   0.482  13.981   7.691
68439SOL    HW1 7149   0.403  13.995   7.638
68439SOL    HW2 7150   0.482  13.887   7.709
68440SOL     OW 7151   7.739  14.823   2.962
68440SOL    HW1 7152   7.665  14.824   2.901
68440SOL    HW2 7153   7.751  14.731   2.984
68441SOL     OW 7154   9.049   0.594  10.849
68441SOL    HW1 7155   9.109   0.570  10.920
68441SOL    HW2 7156   8.987   0.654  10.889
68442SOL     OW 7157  11.450   1.705   3.939
68442SOL    HW1 7158  11.436   1.705   4.033
68442SOL    HW2 7159  11.365   1.731   3.902
68443SOL     OW 7160   4.623  10.567   4.088
68443SOL    HW1 7161   4.566  10.616   4.029
68443SOL    HW2 7162   4.696  10.539   4.033
68444SOL     OW 7163   6.443   3.885   8.252
68444SOL    HW1 7164   6.473   3.795   8.237
68444SOL    HW2 7165   6.453   3.898   8.346
68445SOL     OW 7166   8.166   0.630  10.178
68445SOL    HW1 7167   8.071   0.634  10.165
68445SOL    HW2 7168   8.191   0.719  10.203
68446SOL     OW 7169   4.974  14.323   6.039
68446SOL    HW1 7170   5.001  14.244   6.086
68446SOL    HW2 7171   4.986  14.302   5.947
68447SOL     OW 7172   2.213   0.680   4.023
68447SOL    HW1 7173   2.246   0.590   4.024
68447SOL    HW2 7174   2.237   0.715   4.109
68448SOL     OW 7175   2.432  13.458  12.530
68448SOL    HW1 7176   2.511  13.406  12.523
68448SOL    HW2 7177   2.371  13.417  12.468
68449SOL     OW 7178  12.529   7.733  11.030
68449SOL    HW1 7179  12.451   7.705  11.076
68449SOL    HW2 7180  12.497   7.793  10.963
68450SOL     OW 7181  11.677   2.446   8.777
68450SOL    HW1 7182  11.658   2.507   8.706
68450SOL    HW2 7183  11.596   2.440   8.827
68451SOL     OW 7184  13.604   7.578  11.452
68451SOL    HW1 7185  13.557   7.519  11.392
68451SOL    HW2 7186  13.637   7.648  11.396
68452SOL     OW 7187   5.241   5.847   0.482
68452SOL    HW1 7188   5.311   5.891   0.434
68452SOL    HW2 7189   5.285   5.777   0.531
68453SOL     OW 7190   6.077  13.165  10.662
68453SOL    HW1 7191   6.002  13.213  10.696
68453SOL    HW2 7192   6.126  13.138  10.740
68454SOL     OW 7193   3.551  10.687   2.289
68454SOL    HW1 7194   3.458  10.685   2.267
68454SOL    HW2 7195   3.554  10.682   2.385
68455SOL     OW 7196  13.677  13.461   0.021
68455SOL    HW1 7197  13.594  13.421  14.865
68455SOL    HW2 7198  13.665  13.477   0.114
68456SOL     OW 7199  11.799   6.957  12.699
68456SOL    HW1 7200  11.744   6.978  12.624
68456SOL    HW2 7201  11.829   6.868  12.683
68457SOL     OW 7202   0.108   6.259   4.828
68457SOL    HW1 7203   0.085   6.247   4.735
68457SOL    HW2 7204   0.117   6.354   4.838
68458SOL     OW 7205  13.202   8.529   7.465
68458SOL    HW1 7206  13.196   8.446   7.513
68458SOL    HW2 7207  13.294   8.535   7.439
68459SOL     OW 7208  11.505   8.386  11.204
68459SOL    HW1 7209  11.582   8.395  11.148
68459SOL    HW2 7210  11.478   8.295  11.193
68460SOL     OW 7211   2.276   0.754   6.389
68460SOL    HW1 7212   2.314   0.835   6.354
68460SOL    HW2 7213   2.184   0.776   6.405
68461SOL     OW 7214  12.363   9.558  14.683
68461SOL    HW1 7215  12.366   9.474  14.636
68461SOL    HW2 7216  12.429   9.550  14.751
68462SOL     OW 7217   9.512  12.573   1.445
68462SOL    HW1 7218   9.554  12.575   1.532
68462SOL    HW2 7219   9.418  12.564   1.464
68463SOL     OW 7220   1.124   7.786  13.189
68463SOL    HW1 7221   1.104   7.846  13.261
68463SOL    HW2 7222   1.143   7.703  13.232
68464SOL     OW 7223   0.138   4.150  10.447
68464SOL    HW1 7224   0.214   4.102  10.415
68464SOL    HW2 7225   0.173   4.207  10.516
68465SOL     OW 7226   9.114  14.264   7.635
68465SOL    HW1 7227   9.052  14.268   7.707
68465SOL    HW2 7228   9.157  14.350   7.636
68466SOL     OW 7229   5.706   9.000   2.643
68466SOL    HW1 7230   5.713   9.092   2.616
68466SOL    HW2 7231   5.697   8.952   2.560
68467SOL     OW 7232  10.308   2.645  11.027
68467SOL    HW1 7233  10.366   2.690  11.088
68467SOL    HW2 7234  10.220   2.658  11.064
68468SOL     OW 7235   6.667  14.122   4.742
68468SOL    HW1 7236   6.719  14.178   4.799
68468SOL    HW2 7237   6.578  14.128   4.777
68469SOL     OW 7238   9.257  14.223   3.799
68469SOL    HW1 7239   9.268  14.313   3.768
68469SOL    HW2 7240   9.238  14.231   3.892
68470SOL     OW 7241   9.428   1.151   5.945
68470SOL    HW1 7242   9.439   1.141   5.850
68470SOL    HW2 7243   9.473   1.232   5.966
68471SOL     OW 7244   5.343   6.124   0.351
68471SOL    HW1 7245   5.279   6.193   0.337
68471SOL    HW2 7246   5.409   6.163   0.408
68472SOL     OW 7247   3.523   3.323   8.102
68472SOL    HW1 7248   3.589   3.257   8.120
68472SOL    HW2 7249   3.451   3.274   8.062
68473SOL     OW 7250   0.789  11.020  14.709
68473SOL    HW1 7251   0.730  11.094  14.728
68473SOL    HW2 7252   0.868  11.040  14.759
68474SOL     OW 7253  14.617  11.097   9.922
68474SOL    HW1 7254  14.621  11.007   9.890
68474SOL    HW2 7255  14.562  11.143   9.860
68475SOL     OW 7256  14.408   1.647  12.767
68475SOL    HW1 7257  14.470   1.664  12.838
68475SOL    HW2 7258  14.425   1.556  12.742
68476SOL     OW 7259  11.864  14.386   1.334
68476SOL    HW1 7260  11.783  14.417   1.374
68476SOL    HW2 7261  11.836  14.342   1.253
68477SOL     OW 7262   8.560  13.908   1.403
68477SOL    HW1 7263   8.613  13.958   1.465
68477SOL    HW2 7264   8.484  13.962   1.386
68478SOL     OW 7265   1.468  10.159  12.891
68478SOL    HW1 7266   1.473  10.070  12.924
68478SOL    HW2 7267   1.382  10.191  12.921
68479SOL     OW 7268  12.290  13.526  12.927
68479SOL    HW1 7269  12.365  13.563  12.973
68479SOL    HW2 7270  12.264  13.450  12.978
68480SOL     OW 7271   3.523  13.213   6.432
68480SOL    HW1 7272   3.527  13.297   6.385
68480SOL    HW2 7273   3.582  13.156   6.383
68481SOL     OW 7274   3.186  13.854   1.159
68481SOL    HW1 7275   3.148  13.839   1.072
68481SOL    HW2 7276   3.218  13.944   1.156
68482SOL     OW 7277   2.727  13.026   1.437
68482SOL    HW1 7278   2.800  13.017   1.376
68482SOL    HW2 7279   2.731  13.117   1.466
68483SOL     OW 7280   9.911  11.435  11.146
68483SOL    HW1 7281   9.990  11.460  11.193
68483SOL    HW2 7282   9.880  11.356  11.190
68484SOL     OW 7283   7.394   5.320   9.919
68484SOL    HW1 7284   7.482   5.283   9.909
68484SOL    HW2 7285   7.406   5.398   9.973
68485SOL     OW 7286   3.526   7.270  13.603
68485SOL    HW1 7287   3.496   7.349  13.558
68485SOL    HW2 7288   3.601   7.241  13.552
68486SOL     OW 7289   9.241   7.016   3.664
68486SOL    HW1 7290   9.179   7.088   3.654
68486SOL    HW2 7291   9.187   6.940   3.687
68487SOL     OW 7292   2.435   9.133   6.685
68487SOL    HW1 7293   2.366   9.092   6.633
68487SOL    HW2 7294   2.516   9.110   6.639
68488SOL     OW 7295   1.755  12.892  12.075
68488SOL    HW1 7296   1.686  12.957  12.066
68488SOL    HW2 7297   1.730  12.823  12.013
68489SOL     OW 7298   9.888   8.085  11.501
68489SOL    HW1 7299   9.888   8.141  11.423
68489SOL    HW2 7300   9.889   8.146  11.575
68490SOL     OW 7301   8.324  14.386   6.854
68490SOL    HW1 7302   8.323  14.481   6.852
68490SOL    HW2 7303   8.410  14.363   6.816
68491SOL     OW 7304   0.098  13.892   9.124
68491SOL    HW1 7305   0.018  13.886   9.072
68491SOL    HW2 7306   0.169  13.884   9.061
68492SOL     OW 7307   3.773   2.569   3.154
68492SOL    HW1 7308   3.709   2.582   3.224
68492SOL    HW2 7309   3.748   2.631   3.086
68493SOL     OW 7310   6.705  14.378   4.897
68493SOL    HW1 7311   6.672  14.433   4.825
68493SOL    HW2 7312   6.793  14.411   4.914
68494SOL     OW 7313  12.525   0.315   3.471
68494SOL    HW1 7314  12.513   0.386   3.535
68494SOL    HW2 7315  12.528   0.236   3.524
68495SOL     OW 7316   3.672  12.997   0.236
68495SOL    HW1 7317   3.702  12.946   0.161
68495SOL    HW2 7318   3.751  13.010   0.289
68496SOL     OW 7319   8.529   6.927   0.872
68496SOL    HW1 7320   8.447   6.969   0.845
68496SOL    HW2 7321   8.571   6.991   0.929
68497SOL     OW 7322  10.308   8.265   7.429
68497SOL    HW1 7323  10.388   8.314   7.408
68497SOL    HW2 7324  10.242   8.333   7.444
68498SOL     OW 7325  14.757  12.960   2.374
68498SOL    HW1 7326  14.823  13.017   2.333
68498SOL    HW2 7327  14.673  12.998   2.348
68499SOL     OW 7328  10.903  11.314   2.109
68499SOL    HW1 7329  10.838  11.367   2.156
68499SOL    HW2 7330  10.977  11.374   2.095
68500SOL     OW 7331   9.284   8.730   8.499
68500SOL    HW1 7332   9.358   8.780   8.464
68500SOL    HW2 7333   9.210   8.755   8.444
68501SOL     OW 7334   7.265   7.089   7.747
68501SOL    HW1 7335   7.172   7.065   7.744
68501SOL    HW2 7336   7.271   7.169   7.694
68502SOL     OW 7337   2.426   4.516   2.376
68502SOL    HW1 7338   2.404   4.445   2.437
68502SOL    HW2 7339   2.476   4.474   2.307
68503SOL     OW 7340   1.601  13.759   2.776
68503SOL    HW1 7341   1.558  13.688   2.823
68503SOL    HW2 7342   1.689  13.725   2.756
68504SOL     OW 7343  11.807  12.470   8.018
68504SOL    HW1 7344  11.722  12.490   8.055
68504SOL    HW2 7345  11.854  12.554   8.017
68505SOL     OW 7346   7.873   9.792  12.556
68505SOL    HW1 7347   7.914   9.872  12.589
68505SOL    HW2 7348   7.925   9.721  12.593
68506SOL     OW 7349   6.405  14.050   4.842
68506SOL    HW1 7350   6.349  14.067   4.918
68506SOL    HW2 7351   6.344  14.035   4.770
68507SOL     OW 7352   3.134   3.884   1.719
68507SOL    HW1 7353   3.159   3.815   1.657
68507SOL    HW2 7354   3.086   3.838   1.788
68508SOL     OW 7355  11.571   5.879  12.959
68508SOL    HW1 7356  11.653   5.889  13.008
68508SOL    HW2 7357  11.533   5.798  12.992
68509SOL     OW 7358  13.299   6.718   1.658
68509SOL    HW1 7359  13.227   6.739   1.718
68509SOL    HW2 7360  13.327   6.803   1.623
68510SOL     OW 7361   7.783   5.998   2.144
68510SOL    HW1 7362   7.875   5.973   2.136
68510SOL    HW2 7363   7.774   6.076   2.089
68511SOL     OW 7364  12.398   4.331  13.741
68511SOL    HW1 7365  12.476   4.298  13.786
68511SOL    HW2 7366  12.432   4.391  13.675
68512SOL     OW 7367   9.648   4.753   4.815
68512SOL    HW1 7368   9.634   4.787   4.903
68512SOL    HW2 7369   9.583   4.798   4.761
68513SOL     OW 7370   3.150  10.490   5.406
68513SOL    HW1 7371   3.170  10.439   5.328
68513SOL    HW2 7372   3.140  10.425   5.475
68514SOL     OW 7373  12.000  11.047   0.493
68514SOL    HW1 7374  11.915  11.064   0.452
68514SOL    HW2 7375  12.052  11.006   0.424
68515SOL     OW 7376   5.752  10.540  13.227
68515SOL    HW1 7377   5.795  10.555  13.311
68515SOL    HW2 7378   5.756  10.624  13.182
68516SOL     OW 7379  13.173   3.426   7.259
68516SOL    HW1 7380  13.112   3.463   7.322
68516SOL    HW2 7381  13.125   3.355   7.216
68517SOL     OW 7382  10.141   5.313  13.309
68517SOL    HW1 7383  10.103   5.369  13.241
68517SOL    HW2 7384  10.094   5.231  13.301
68518SOL     OW 7385   1.313   7.741  14.581
68518SOL    HW1 7386   1.280   7.805  14.644
68518SOL    HW2 7387   1.398   7.715  14.616
68519SOL     OW 7388   0.689  11.461   9.233
68519SOL    HW1 7389   0.669  11.555   9.227
68519SOL    HW2 7390   0.712  11.436   9.143
68520SOL     OW 7391   4.156   8.080   1.266
68520SOL    HW1 7392   4.150   8.158   1.210
68520SOL    HW2 7393   4.216   8.106   1.336
68521SOL     OW 7394  14.327   8.850   3.563
68521SOL    HW1 7395  14.234   8.873   3.567
68521SOL    HW2 7396  14.342   8.829   3.471
68522SOL     OW 7397   8.045   4.839  10.861
68522SOL    HW1 7398   7.966   4.793  10.889
68522SOL    HW2 7399   8.027   4.931  10.879
68523SOL     OW 7400   9.982   3.185   5.341
68523SOL    HW1 7401  10.064   3.224   5.370
68523SOL    HW2 7402   9.927   3.259   5.316
68524SOL     OW 7403   5.770  14.245   2.298
68524SOL    HW1 7404   5.838  14.296   2.253
68524SOL    HW2 7405   5.816  14.205   2.372
68525SOL     OW 7406   4.216   1.675   6.242
68525SOL    HW1 7407   4.142   1.720   6.283
68525SOL    HW2 7408   4.257   1.627   6.314
68526SOL     OW 7409   4.494   6.801  13.637
68526SOL    HW1 7410   4.505   6.871  13.702
68526SOL    HW2 7411   4.399   6.793  13.626
68527SOL     OW 7412  11.686  13.303   7.892
68527SOL    HW1 7413  11.700  13.288   7.798
68527SOL    HW2 7414  11.708  13.396   7.905
68528SOL     OW 7415  13.680   5.965   5.452
68528SOL    HW1 7416  13.674   5.979   5.358
68528SOL    HW2 7417  13.696   5.871   5.461
68529SOL     OW 7418  13.281   2.844   2.051
68529SOL    HW1 7419  13.337   2.856   1.975
68529SOL    HW2 7420  13.313   2.764   2.092
68530SOL     OW 7421  10.220   6.660   5.995
68530SOL    HW1 7422  10.222   6.755   5.983
68530SOL    HW2 7423  10.130   6.641   6.024
68531SOL     OW 7424  14.349   1.085  10.116
68531SOL    HW1 7425  14.366   1.166  10.067
68531SOL    HW2 7426  14.259   1.094  10.147
68532SOL     OW 7427  13.045  14.288   5.275
68532SOL    HW1 7428  12.987  14.316   5.346
68532SOL    HW2 7429  12.994  14.221   5.228
68533SOL     OW 7430   3.624   7.417   4.642
68533SOL    HW1 7431   3.590   7.453   4.724
68533SOL    HW2 7432   3.658   7.492   4.595
68534SOL     OW 7433  13.810   1.156   1.082
68534SOL    HW1 7434  13.891   1.200   1.107
68534SOL    HW2 7435  13.826   1.064   1.101
68535SOL     OW 7436  11.228   3.477  14.320
68535SOL    HW1 7437  11.287   3.545  14.287
68535SOL    HW2 7438  11.235   3.406  14.255
68536SOL     OW 7439  13.136  13.647   9.762
68536SOL    HW1 7440  13.136  13.670   9.669
68536SOL    HW2 7441  13.130  13.552   9.763
68537SOL     OW 7442  10.464  14.632  13.557
68537SOL    HW1 7443  10.403  14.620  13.630
68537SOL    HW2 7444  10.416  14.600  13.480
68538SOL     OW 7445  12.280   8.103   3.189
68538SOL    HW1 7446  12.364   8.077   3.225
68538SOL    HW2 7447  12.298   8.186   3.145
68539SOL     OW 7448  12.723  10.375   3.097
68539SOL    HW1 7449  12.810  10.381   3.137
68539SOL    HW2 7450  12.668  10.337   3.165
68540SOL     OW 7451   3.572   0.066   9.973
68540SOL    HW1 7452   3.658   0.046   9.937
68540SOL    HW2 7453   3.576   0.036  10.064
68541SOL     OW 7454   1.353   3.790   2.726
68541SOL    HW1 7455   1.411   3.810   2.799
68541SOL    HW2 7456   1.293   3.865   2.721
68542SOL     OW 7457   9.143  13.675   3.696
68542SOL    HW1 7458   9.152  13.746   3.632
68542SOL    HW2 7459   9.148  13.719   3.781
68543SOL     OW 7460   4.192   5.081   1.590
68543SOL    HW1 7461   4.167   5.026   1.664
68543SOL    HW2 7462   4.184   5.171   1.624
68544SOL     OW 7463   5.880   3.216   0.784
68544SOL    HW1 7464   5.969   3.222   0.816
68544SOL    HW2 7465   5.885   3.156   0.710
68545SOL     OW 7466   8.771   5.059   5.226
68545SOL    HW1 7467   8.865   5.053   5.215
68545SOL    HW2 7468   8.757   5.056   5.321
68546SOL     OW 7469   9.976   6.688   1.662
68546SOL    HW1 7470  10.035   6.753   1.701
68546SOL    HW2 7471   9.969   6.715   1.571
68547SOL     OW 7472   2.043   2.855  10.329
68547SOL    HW1 7473   1.996   2.874  10.410
68547SOL    HW2 7474   2.012   2.923  10.268
68548SOL     OW 7475   5.095   5.718  14.191
68548SOL    HW1 7476   5.047   5.636  14.179
68548SOL    HW2 7477   5.149   5.703  14.268
68549SOL     OW 7478   7.956   4.078   5.765
68549SOL    HW1 7479   7.936   4.122   5.848
68549SOL    HW2 7480   7.979   4.148   5.705
68550SOL     OW 7481  14.105  14.536   1.706
68550SOL    HW1 7482  14.128  14.444   1.716
68550SOL    HW2 7483  14.110  14.572   1.794
68551SOL     OW 7484  10.611  11.321   3.510
68551SOL    HW1 7485  10.587  11.237   3.550
68551SOL    HW2 7486  10.551  11.384   3.548
68552SOL     OW 7487   0.369   6.363   1.392
68552SOL    HW1 7488   0.301   6.366   1.325
68552SOL    HW2 7489   0.392   6.270   1.398
68553SOL     OW 7490  11.254  14.733   2.214
68553SOL    HW1 7491  11.313  14.805   2.235
68553SOL    HW2 7492  11.167  14.769   2.225
68554SOL     OW 7493   5.159   0.298  10.890
68554SOL    HW1 7494   5.124   0.224  10.841
68554SOL    HW2 7495   5.087   0.360  10.896
68555SOL     OW 7496   2.241  11.043   1.773
68555SOL    HW1 7497   2.308  11.072   1.711
68555SOL    HW2 7498   2.270  11.077   1.857
68556SOL     OW 7499   8.633  10.120  10.830
68556SOL    HW1 7500   8.658  10.106  10.921
68556SOL    HW2 7501   8.565  10.055  10.813
68557SOL     OW 7502   2.091   2.447   5.931
68557SOL    HW1 7503   2.053   2.526   5.895
68557SOL    HW2 7504   2.154   2.478   5.996
68558SOL     OW 7505   5.570   7.708  13.674
68558SOL    HW1 7506   5.520   7.645  13.725
68558SOL    HW2 7507   5.604   7.770  13.738
68559SOL     OW 7508  13.074   9.802   2.615
68559SOL    HW1 7509  13.016   9.875   2.638
68559SOL    HW2 7510  13.126   9.787   2.694
68560SOL     OW 7511   1.266   3.329   3.399
68560SOL    HW1 7512   1.258   3.292   3.487
68560SOL    HW2 7513   1.245   3.422   3.410
68561SOL     OW 7514  13.428   1.475   7.333
68561SOL    HW1 7515  13.377   1.529   7.274
68561SOL    HW2 7516  13.431   1.524   7.415
68562SOL     OW 7517   2.191   9.591   4.483
68562SOL    HW1 7518   2.229   9.679   4.489
68562SOL    HW2 7519   2.098   9.607   4.466
68563SOL     OW 7520   5.378  12.299  11.912
68563SOL    HW1 7521   5.415  12.211  11.913
68563SOL    HW2 7522   5.299  12.291  11.859
68564SOL     OW 7523   9.065  10.185   1.007
68564SOL    HW1 7524   9.053  10.279   1.019
68564SOL    HW2 7525   9.011  10.163   0.931
68565SOL     OW 7526   8.636  14.427   1.000
68565SOL    HW1 7527   8.562  14.487   0.998
68565SOL    HW2 7528   8.686  14.454   1.077
68566SOL     OW 7529   2.959   7.613   9.291
68566SOL    HW1 7530   2.999   7.536   9.250
68566SOL    HW2 7531   2.872   7.583   9.318
68567SOL     OW 7532   5.026   0.057   8.143
68567SOL    HW1 7533   5.102  14.871   8.133
68567SOL    HW2 7534   5.064   0.143   8.159
68568SOL     OW 7535   9.547  13.679   8.438
68568SOL    HW1 7536   9.614  13.617   8.411
68568SOL    HW2 7537   9.596  13.754   8.472
68569SOL     OW 7538   0.158   8.076  11.937
68569SOL    HW1 7539   0.227   8.035  11.989
68569SOL    HW2 7540   0.105   8.125  12.000
68570SOL     OW 7541  12.620   2.450   9.095
68570SOL    HW1 7542  12.655   2.408   9.016
68570SOL    HW2 7543  12.697   2.470   9.148
68571SOL     OW 7544  12.172  14.599   0.149
68571SOL    HW1 7545  12.093  14.644   0.118
68571SOL    HW2 7546  12.197  14.541   0.077
68572SOL     OW 7547  11.160   8.302   1.120
68572SOL    HW1 7548  11.190   8.393   1.129
68572SOL    HW2 7549  11.202   8.255   1.192
68573SOL     OW 7550  10.285  13.897   1.954
68573SOL    HW1 7551  10.301  13.804   1.937
68573SOL    HW2 7552  10.371  13.939   1.944
68574SOL     OW 7553   3.478  12.634   2.827
68574SOL    HW1 7554   3.473  12.549   2.871
68574SOL    HW2 7555   3.406  12.685   2.864
68575SOL     OW 7556   4.839  10.311  10.074
68575SOL    HW1 7557   4.889  10.378  10.028
68575SOL    HW2 7558   4.781  10.361  10.132
68576SOL     OW 7559  12.874   6.042   1.191
68576SOL    HW1 7560  12.815   6.095   1.138
68576SOL    HW2 7561  12.955   6.039   1.140
68577SOL     OW 7562   2.306   4.554   4.685
68577SOL    HW1 7563   2.293   4.645   4.711
68577SOL    HW2 7564   2.245   4.542   4.612
68578SOL     OW 7565  11.680   9.663   2.583
68578SOL    HW1 7566  11.648   9.608   2.512
68578SOL    HW2 7567  11.677   9.752   2.547
68579SOL     OW 7568  11.708  10.823   1.525
68579SOL    HW1 7569  11.749  10.900   1.564
68579SOL    HW2 7570  11.746  10.749   1.572
68580SOL     OW 7571  14.005  13.403  11.158
68580SOL    HW1 7572  14.073  13.465  11.184
68580SOL    HW2 7573  14.028  13.378  11.069
68581SOL     OW 7574   7.358  13.876   2.680
68581SOL    HW1 7575   7.350  13.860   2.586
68581SOL    HW2 7576   7.337  13.791   2.720
68582SOL     OW 7577   1.105  11.202   7.234
68582SOL    HW1 7578   1.090  11.235   7.145
68582SOL    HW2 7579   1.131  11.111   7.221
68583SOL     OW 7580   7.593   9.328   9.017
68583SOL    HW1 7581   7.503   9.311   8.989
68583SOL    HW2 7582   7.587   9.404   9.074
68584SOL     OW 7583   6.525   6.144  14.603
68584SOL    HW1 7584   6.586   6.075  14.631
68584SOL    HW2 7585   6.439   6.112  14.630
68585SOL     OW 7586   4.759   1.479   2.482
68585SOL    HW1 7587   4.738   1.392   2.447
68585SOL    HW2 7588   4.706   1.486   2.561
68586SOL     OW 7589  10.000   6.423   1.131
68586SOL    HW1 7590   9.944   6.377   1.068
68586SOL    HW2 7591   9.987   6.376   1.213
68587SOL     OW 7592   2.788   3.570  11.814
68587SOL    HW1 7593   2.759   3.623  11.888
68587SOL    HW2 7594   2.709   3.556  11.762
68588SOL     OW 7595   6.707   9.749   6.591
68588SOL    HW1 7596   6.712   9.714   6.502
68588SOL    HW2 7597   6.657   9.830   6.582
68589SOL     OW 7598   2.957   8.117   2.452
68589SOL    HW1 7599   3.024   8.183   2.470
68589SOL    HW2 7600   2.880   8.149   2.499
68590SOL     OW 7601  13.414   0.800   0.321
68590SOL    HW1 7602  13.437   0.707   0.316
68590SOL    HW2 7603  13.497   0.846   0.311
68591SOL     OW 7604   3.616  14.869  10.853
68591SOL    HW1 7605   3.531  14.869  10.808
68591SOL    HW2 7606   3.595   0.024  10.942
68592SOL     OW 7607   9.196   6.025   2.086
68592SOL    HW1 7608   9.213   6.117   2.066
68592SOL    HW2 7609   9.277   5.980   2.062
68593SOL     OW 7610   6.595   4.864   6.847
68593SOL    HW1 7611   6.529   4.932   6.860
68593SOL    HW2 7612   6.566   4.818   6.769
68594SOL     OW 7613   2.401   0.390   4.785
68594SOL    HW1 7614   2.438   0.404   4.872
68594SOL    HW2 7615   2.345   0.313   4.795
68595SOL     OW 7616   7.306  13.685   0.577
68595SOL    HW1 7617   7.346  13.682   0.664
68595SOL    HW2 7618   7.243  13.757   0.581
68596SOL     OW 7619  14.241  14.102   8.193
68596SOL    HW1 7620  14.234  14.007   8.209
68596SOL    HW2 7621  14.236  14.141   8.280
68597SOL     OW 7622   3.884   5.463   2.705
68597SOL    HW1 7623   3.895   5.390   2.643
68597SOL    HW2 7624   3.878   5.541   2.650
68598SOL     OW 7625   9.890  10.176   4.445
68598SOL    HW1 7626   9.876  10.136   4.359
68598SOL    HW2 7627   9.828  10.248   4.449
68599SOL     OW 7628   3.936   7.911   6.817
68599SOL    HW1 7629   3.959   7.996   6.778
68599SOL    HW2 7630   3.899   7.933   6.902
68600SOL     OW 7631   7.868  12.579   8.992
68600SOL    HW1 7632   7.920  12.659   8.982
68600SOL    HW2 7633   7.780  12.604   8.964
68601SOL     OW 7634  10.639   8.085   0.106
68601SOL    HW1 7635  10.609   8.039   0.185
68601SOL    HW2 7636  10.648   8.016   0.040
68602SOL     OW 7637   2.602  14.569   7.527
68602SOL    HW1 7638   2.629  14.644   7.474
68602SOL    HW2 7639   2.517  14.595   7.563
68603SOL     OW 7640   6.052  11.200  11.334
68603SOL    HW1 7641   6.007  11.157  11.262
68603SOL    HW2 7642   6.133  11.152  11.344
68604SOL     OW 7643  13.929   4.669   4.826
68604SOL    HW1 7644  13.871   4.600   4.858
68604SOL    HW2 7645  13.872   4.728   4.777
68605SOL     OW 7646  14.715   8.051   0.535
68605SOL    HW1 7647  14.640   8.110   0.533
68605SOL    HW2 7648  14.768   8.076   0.460
68606SOL     OW 7649  12.320  13.721   3.769
68606SOL    HW1 7650  12.312  13.644   3.712
68606SOL    HW2 7651  12.255  13.706   3.838
68607SOL     OW 7652   9.370  12.648   2.950
68607SOL    HW1 7653   9.358  12.569   3.004
68607SOL    HW2 7654   9.348  12.720   3.009
68608SOL     OW 7655  12.271  14.409   2.049
68608SOL    HW1 7656  12.205  14.473   2.077
68608SOL    HW2 7657  12.226  14.325   2.054
68609SOL     OW 7658   5.903   5.752  11.727
68609SOL    HW1 7659   5.989   5.758  11.686
68609SOL    HW2 7660   5.898   5.663  11.761
68610SOL     OW 7661   3.503   0.735   0.355
68610SOL    HW1 7662   3.459   0.806   0.309
68610SOL    HW2 7663   3.435   0.669   0.368
68611SOL     OW 7664   6.947   9.349   4.083
68611SOL    HW1 7665   6.932   9.384   4.171
68611SOL    HW2 7666   6.921   9.420   4.024
68612SOL     OW 7667   2.397   4.867   9.103
68612SOL    HW1 7668   2.477   4.817   9.092
68612SOL    HW2 7669   2.420   4.936   9.165
68613SOL     OW 7670   7.517   8.374   6.574
68613SOL    HW1 7671   7.451   8.407   6.634
68613SOL    HW2 7672   7.559   8.303   6.621
68614SOL     OW 7673   4.796  14.287   2.346
68614SOL    HW1 7674   4.857  14.278   2.419
68614SOL    HW2 7675   4.715  14.318   2.385
68615SOL     OW 7676   7.880   9.571   5.370
68615SOL    HW1 7677   7.907   9.638   5.308
68615SOL    HW2 7678   7.893   9.611   5.456
68616SOL     OW 7679   2.340  11.995  13.231
68616SOL    HW1 7680   2.417  12.052  13.241
68616SOL    HW2 7681   2.326  11.959  13.319
68617SOL     OW 7682   3.249  13.923   1.881
68617SOL    HW1 7683   3.278  14.007   1.917
68617SOL    HW2 7684   3.172  13.946   1.828
68618SOL     OW 7685  13.159   0.211  14.735
68618SOL    HW1 7686  13.101   0.174  14.802
68618SOL    HW2 7687  13.219   0.140  14.713
68619SOL     OW 7688   3.174   4.788   0.298
68619SOL    HW1 7689   3.264   4.767   0.321
68619SOL    HW2 7690   3.180   4.872   0.253
68620SOL     OW 7691   7.437   6.824  13.339
68620SOL    HW1 7692   7.386   6.781  13.407
68620SOL    HW2 7693   7.527   6.795  13.353
68621SOL     OW 7694   3.275   4.798  10.776
68621SOL    HW1 7695   3.324   4.867  10.822
68621SOL    HW2 7696   3.336   4.724  10.773
68622SOL     OW 7697   3.323   9.831  10.654
68622SOL    HW1 7698   3.346   9.888  10.727
68622SOL    HW2 7699   3.390   9.848  10.588
68623SOL     OW 7700   0.874   3.598  11.722
68623SOL    HW1 7701   0.956   3.610  11.674
68623SOL    HW2 7702   0.847   3.687  11.745
68624SOL     OW 7703   7.576   6.057  14.585
68624SOL    HW1 7704   7.488   6.041  14.552
68624SOL    HW2 7705   7.623   6.094  14.509
68625SOL     OW 7706   3.170  10.207   8.636
68625SOL    HW1 7707   3.259  10.174   8.649
68625SOL    HW2 7708   3.172  10.297   8.668
68626SOL     OW 7709   7.174   1.756   0.827
68626SOL    HW1 7710   7.139   1.666   0.825
68626SOL    HW2 7711   7.190   1.773   0.920
68627SOL     OW 7712  13.233   5.142   8.317
68627SOL    HW1 7713  13.175   5.200   8.267
68627SOL    HW2 7714  13.297   5.201   8.358
68628SOL     OW 7715  13.970  10.497  14.815
68628SOL    HW1 7716  13.931  10.454   0.019
68628SOL    HW2 7717  13.934  10.450  14.740
68629SOL     OW 7718  14.169   9.092   8.236
68629SOL    HW1 7719  14.132   9.134   8.158
68629SOL    HW2 7720  14.261   9.076   8.214
68630SOL     OW 7721  13.512   1.971  14.113
68630SOL    HW1 7722  13.526   1.892  14.166
68630SOL    HW2 7723  13.573   1.962  14.040
68631SOL     OW 7724   2.474   4.502  11.403
68631SOL    HW1 7725   2.549   4.456  11.440
68631SOL    HW2 7726   2.441   4.444  11.334
68632SOL     OW 7727  12.794  13.467  13.590
68632SOL    HW1 7728  12.705  13.498  13.603
68632SOL    HW2 7729  12.847  13.546  13.588
68633SOL     OW 7730  14.520  11.032  10.193
68633SOL    HW1 7731  14.542  11.069  10.108
68633SOL    HW2 7732  14.457  10.963  10.174
68634SOL     OW 7733   1.881   7.625  14.518
68634SOL    HW1 7734   1.868   7.535  14.548
68634SOL    HW2 7735   1.860   7.623  14.425
68635SOL     OW 7736   0.248   3.499   9.792
68635SOL    HW1 7737   0.157   3.509   9.819
68635SOL    HW2 7738   0.264   3.575   9.736
68636SOL     OW 7739  12.469   8.145   5.125
68636SOL    HW1 7740  12.468   8.238   5.148
68636SOL    HW2 7741  12.509   8.142   5.038
68637SOL     OW 7742  10.599   7.782  13.414
68637SOL    HW1 7743  10.657   7.727  13.361
68637SOL    HW2 7744  10.512   7.746  13.399
68638SOL     OW 7745   9.589   9.330  13.402
68638SOL    HW1 7746   9.545   9.413  13.384
68638SOL    HW2 7747   9.682   9.352  13.404
68639SOL     OW 7748  11.558   1.283   8.690
68639SOL    HW1 7749  11.470   1.320   8.705
68639SOL    HW2 7750  11.592   1.267   8.778
68640SOL     OW 7751  14.331  11.289   1.968
68640SOL    HW1 7752  14.313  11.257   1.880
68640SOL    HW2 7753  14.345  11.209   2.020
68641SOL     OW 7754   3.341   0.903   8.321
68641SOL    HW1 7755   3.331   0.826   8.377
68641SOL    HW2 7756   3.433   0.927   8.329
68642SOL     OW 7757   9.687   3.919   1.292
68642SOL    HW1 7758   9.750   3.852   1.320
68642SOL    HW2 7759   9.737   4.001   1.291
68643SOL     OW 7760   2.724   6.242  11.302
68643SOL    HW1 7761   2.714   6.148  11.290
68643SOL    HW2 7762   2.645   6.279  11.261
68644SOL     OW 7763  10.543  11.172   9.238
68644SOL    HW1 7764  10.526  11.172   9.332
68644SOL    HW2 7765  10.502  11.252   9.206
68645SOL     OW 7766   8.541   6.524   6.502
68645SOL    HW1 7767   8.562   6.432   6.489
68645SOL    HW2 7768   8.608   6.555   6.564
68646SOL     OW 7769   9.138  13.029  12.273
68646SOL    HW1 7770   9.191  13.013  12.195
68646SOL    HW2 7771   9.050  13.045  12.240
68647SOL     OW 7772   3.257   1.906   5.133
68647SOL    HW1 7773   3.227   1.935   5.048
68647SOL    HW2 7774   3.203   1.954   5.196
68648SOL     OW 7775  12.723   0.663  12.122
68648SOL    HW1 7776  12.738   0.755  12.147
68648SOL    HW2 7777  12.649   0.667  12.062
68649SOL     OW 7778  12.964   1.138   1.536
68649SOL    HW1 7779  13.032   1.084   1.494
68649SOL    HW2 7780  12.908   1.165   1.463
68650SOL     OW 7781  14.355   0.788   8.025
68650SOL    HW1 7782  14.428   0.738   7.988
68650SOL    HW2 7783  14.278   0.754   7.979
68651SOL     OW 7784  14.316  10.969   3.352
68651SOL    HW1 7785  14.362  11.045   3.388
68651SOL    HW2 7786  14.351  10.959   3.263
68652SOL     OW 7787   2.757   8.288  10.224
68652SOL    HW1 7788   2.756   8.193  10.240
68652SOL    HW2 7789   2.666   8.309  10.204
68653SOL     OW 7790   0.468  14.537   2.155
68653SOL    HW1 7791   0.505  14.624   2.172
68653SOL    HW2 7792   0.426  14.545   2.069
68654SOL     OW 7793  12.672   8.018   9.469
68654SOL    HW1 7794  12.633   7.944   9.423
68654SOL    HW2 7795  12.766   8.012   9.450
68655SOL     OW 7796  13.226  12.384   6.656
68655SOL    HW1 7797  13.257  12.319   6.593
68655SOL    HW2 7798  13.244  12.345   6.741
68656SOL     OW 7799   3.858   8.257   4.171
68656SOL    HW1 7800   3.891   8.204   4.244
68656SOL    HW2 7801   3.894   8.344   4.187
68657SOL     OW 7802   4.252   5.598  10.531
68657SOL    HW1 7803   4.189   5.666  10.555
68657SOL    HW2 7804   4.218   5.519  10.573
68658SOL     OW 7805   3.069   8.636   9.471
68658SOL    HW1 7806   3.060   8.721   9.513
68658SOL    HW2 7807   3.159   8.634   9.439
68659SOL     OW 7808   0.583  11.040  13.653
68659SOL    HW1 7809   0.513  11.105  13.646
68659SOL    HW2 7810   0.554  10.981  13.723
68660SOL     OW 7811   8.557   4.634   4.358
68660SOL    HW1 7812   8.517   4.671   4.436
68660SOL    HW2 7813   8.516   4.548   4.348
68661SOL     OW 7814  11.848   1.171   3.173
68661SOL    HW1 7815  11.887   1.098   3.125
68661SOL    HW2 7816  11.848   1.243   3.110
68662SOL     OW 7817   2.805   4.246   4.443
68662SOL    HW1 7818   2.717   4.212   4.460
68662SOL    HW2 7819   2.795   4.300   4.365
68663SOL     OW 7820  11.132   5.461   1.254
68663SOL    HW1 7821  11.153   5.437   1.163
68663SOL    HW2 7822  11.139   5.556   1.256
68664SOL     OW 7823   4.860   7.061   7.866
68664SOL    HW1 7824   4.900   6.975   7.852
68664SOL    HW2 7825   4.917   7.122   7.820
68665SOL     OW 7826   3.402   0.439   5.032
68665SOL    HW1 7827   3.492   0.420   5.006
68665SOL    HW2 7828   3.357   0.355   5.023
68666SOL     OW 7829  14.745   6.808  11.325
68666SOL    HW1 7830  14.670   6.844  11.371
68666SOL    HW2 7831  14.817   6.814  11.388
68667SOL     OW 7832   6.177   0.353   7.777
68667SOL    HW1 7833   6.199   0.358   7.870
68667SOL    HW2 7834   6.258   0.375   7.732
68668SOL     OW 7835   7.034   3.134   8.444
68668SOL    HW1 7836   7.122   3.108   8.415
68668SOL    HW2 7837   7.030   3.106   8.535
68669SOL     OW 7838   7.430   9.223  13.843
68669SOL    HW1 7839   7.453   9.315  13.834
68669SOL    HW2 7840   7.467   9.181  13.765
68670SOL     OW 7841  11.340   6.591  10.260
68670SOL    HW1 7842  11.378   6.585  10.172
68670SOL    HW2 7843  11.286   6.513  10.268
68671SOL     OW 7844   1.961  14.240   0.172
68671SOL    HW1 7845   2.029  14.174   0.165
68671SOL    HW2 7846   1.944  14.268   0.082
68672SOL     OW 7847   6.251   0.290   1.910
68672SOL    HW1 7848   6.267   0.219   1.972
68672SOL    HW2 7849   6.334   0.303   1.865
68673SOL     OW 7850   9.258   0.218  10.348
68673SOL    HW1 7851   9.169   0.200  10.317
68673SOL    HW2 7852   9.311   0.218  10.269
68674SOL     OW 7853   2.919   9.092  10.435
68674SOL    HW1 7854   2.846   9.127  10.385
68674SOL    HW2 7855   2.901   8.998  10.440
68675SOL     OW 7856  12.201   0.434   4.736
68675SOL    HW1 7857  12.122   0.400   4.695
68675SOL    HW2 7858  12.187   0.529   4.742
68676SOL     OW 7859   9.907  12.279  14.805
68676SOL    HW1 7860   9.841  12.348  14.803
68676SOL    HW2 7861   9.857  12.197  14.801
68677SOL     OW 7862   3.591  10.023   5.202
68677SOL    HW1 7863   3.653  10.090   5.173
68677SOL    HW2 7864   3.592   9.957   5.132
68678SOL     OW 7865   1.425   7.048   1.034
68678SOL    HW1 7866   1.449   7.124   0.982
68678SOL    HW2 7867   1.484   6.979   1.006
68679SOL     OW 7868   3.103   2.520   1.023
68679SOL    HW1 7869   3.164   2.566   1.080
68679SOL    HW2 7870   3.049   2.468   1.082
68680SOL     OW 7871   1.460   1.843   4.277
68680SOL    HW1 7872   1.508   1.925   4.264
68680SOL    HW2 7873   1.449   1.807   4.189
68681SOL     OW 7874   1.270  12.782   0.382
68681SOL    HW1 7875   1.352  12.753   0.342
68681SOL    HW2 7876   1.245  12.711   0.441
68682SOL     OW 7877   9.193   1.109  12.255
68682SOL    HW1 7878   9.257   1.153  12.199
68682SOL    HW2 7879   9.243   1.082  12.332
68683SOL     OW 7880   1.013   2.315  10.125
68683SOL    HW1 7881   0.932   2.278  10.159
68683SOL    HW2 7882   1.064   2.239  10.096
68684SOL     OW 7883  11.003  14.394   6.645
68684SOL    HW1 7884  10.996  14.363   6.555
68684SOL    HW2 7885  11.088  14.437   6.649
68685SOL     OW 7886   3.605   0.691   6.830
68685SOL    HW1 7887   3.615   0.596   6.821
68685SOL    HW2 7888   3.630   0.709   6.920
68686SOL     OW 7889   1.685  13.704  14.777
68686SOL    HW1 7890   1.591  13.710  14.760
68686SOL    HW2 7891   1.725  13.692  14.691
68687SOL     OW 7892   1.365  10.547   5.385
68687SOL    HW1 7893   1.394  10.611   5.450
68687SOL    HW2 7894   1.411  10.571   5.305
68688SOL     OW 7895   5.652   5.055   6.353
68688SOL    HW1 7896   5.714   5.086   6.418
68688SOL    HW2 7897   5.705   5.009   6.288
68689SOL     OW 7898  10.524   0.473  10.065
68689SOL    HW1 7899  10.538   0.403  10.001
68689SOL    HW2 7900  10.592   0.537  10.046
68690SOL     OW 7901  10.164   8.763  13.633
68690SOL    HW1 7902  10.153   8.746  13.727
68690SOL    HW2 7903  10.223   8.838  13.629
68691SOL     OW 7904   8.917   3.886   0.083
68691SOL    HW1 7905   8.918   3.794   0.110
68691SOL    HW2 7906   9.005   3.901   0.047
68692SOL     OW 7907   4.091   8.013   1.539
68692SOL    HW1 7908   4.094   7.978   1.449
68692SOL    HW2 7909   3.997   8.025   1.556
68693SOL     OW 7910   2.252   1.475  11.578
68693SOL    HW1 7911   2.276   1.383  11.568
68693SOL    HW2 7912   2.227   1.503  11.490
68694SOL     OW 7913   5.450   2.909   7.241
68694SOL    HW1 7914   5.530   2.884   7.195
68694SOL    HW2 7915   5.475   2.909   7.334
68695SOL     OW 7916  12.516  13.538   7.677
68695SOL    HW1 7917  12.443  13.487   7.711
68695SOL    HW2 7918  12.583  13.473   7.655
68696SOL     OW 7919  13.823  14.121   2.808
68696SOL    HW1 7920  13.831  14.087   2.897
68696SOL    HW2 7921  13.730  14.139   2.798
68697SOL     OW 7922  11.965   2.626   4.988
68697SOL    HW1 7923  12.054   2.646   4.960
68697SOL    HW2 7924  11.973   2.548   5.043
68698SOL     OW 7925   2.744   4.452  12.708
68698SOL    HW1 7926   2.663   4.499  12.726
68698SOL    HW2 7927   2.716   4.364  12.684
68699SOL     OW 7928   3.834   2.990   2.369
68699SOL    HW1 7929   3.896   3.037   2.313
68699SOL    HW2 7930   3.750   3.034   2.354
68700SOL     OW 7931   1.340   5.183   9.483
68700SOL    HW1 7932   1.367   5.132   9.559
68700SOL    HW2 7933   1.386   5.266   9.492
68701SOL     OW 7934   5.254   9.042   6.516
68701SOL    HW1 7935   5.213   8.957   6.532
68701SOL    HW2 7936   5.328   9.023   6.459
68702SOL     OW 7937   4.274   6.807   1.882
68702SOL    HW1 7938   4.190   6.762   1.886
68702SOL    HW2 7939   4.320   6.779   1.962
68703SOL     OW 7940  11.490  10.534  10.777
68703SOL    HW1 7941  11.557  10.582  10.729
68703SOL    HW2 7942  11.506  10.442  10.756
68704SOL     OW 7943   7.465   6.350   1.220
68704SOL    HW1 7944   7.425   6.333   1.305
68704SOL    HW2 7945   7.557   6.368   1.240
68705SOL     OW 7946   5.731   6.757   9.502
68705SOL    HW1 7947   5.648   6.804   9.496
68705SOL    HW2 7948   5.725   6.708   9.584
68706SOL     OW 7949   7.625   1.447   5.477
68706SOL    HW1 7950   7.638   1.509   5.406
68706SOL    HW2 7951   7.704   1.454   5.530
68707SOL     OW 7952   7.533   3.594   8.926
68707SOL    HW1 7953   7.585   3.518   8.951
68707SOL    HW2 7954   7.442   3.565   8.936
68708SOL     OW 7955  10.164  13.874   5.266
68708SOL    HW1 7956  10.115  13.871   5.183
68708SOL    HW2 7957  10.208  13.789   5.271
68709SOL     OW 7958   3.015   5.431  13.596
68709SOL    HW1 7959   3.076   5.393  13.533
68709SOL    HW2 7960   2.992   5.516  13.559
68710SOL     OW 7961   7.106   2.173  14.314
68710SOL    HW1 7962   7.092   2.266  14.327
68710SOL    HW2 7963   7.201   2.163  14.309
68711SOL     OW 7964   7.078   4.911  11.446
68711SOL    HW1 7965   7.166   4.914  11.482
68711SOL    HW2 7966   7.035   4.838  11.491
68712SOL     OW 7967   6.849  11.731   4.272
68712SOL    HW1 7968   6.850  11.712   4.366
68712SOL    HW2 7969   6.760  11.760   4.254
68713SOL     OW 7970   8.174   4.106  13.846
68713SOL    HW1 7971   8.224   4.030  13.815
68713SOL    HW2 7972   8.150   4.153  13.766
68714SOL     OW 7973   6.522   9.461  11.466
68714SOL    HW1 7974   6.551   9.551  11.485
68714SOL    HW2 7975   6.560   9.409  11.536
68715SOL     OW 7976   6.180   4.473   4.602
68715SOL    HW1 7977   6.230   4.401   4.639
68715SOL    HW2 7978   6.088   4.449   4.618
68716SOL     OW 7979   9.371   3.480   0.701
68716SOL    HW1 7980   9.288   3.467   0.654
68716SOL    HW2 7981   9.438   3.456   0.637
68717SOL     OW 7982   1.750   3.158  12.756
68717SOL    HW1 7983   1.749   3.149  12.661
68717SOL    HW2 7984   1.824   3.105  12.784
68718SOL     OW 7985   7.680   9.002   8.397
68718SOL    HW1 7986   7.615   9.071   8.385
68718SOL    HW2 7987   7.638   8.938   8.454
68719SOL     OW 7988   8.883  13.912  12.582
68719SOL    HW1 7989   8.839  13.907  12.497
68719SOL    HW2 7990   8.974  13.933  12.560
68720SOL     OW 7991   0.341   0.393   7.312
68720SOL    HW1 7992   0.370   0.421   7.225
68720SOL    HW2 7993   0.249   0.419   7.316
68721SOL     OW 7994   6.075   4.540  11.100
68721SOL    HW1 7995   6.097   4.453  11.132
68721SOL    HW2 7996   5.985   4.554  11.130
68722SOL     OW 7997  11.318   1.450   5.526
68722SOL    HW1 7998  11.378   1.392   5.480
68722SOL    HW2 7999  11.285   1.509   5.458
68723SOL     OW 8000   9.484   4.597   3.810
68723SOL    HW1 8001   9.478   4.502   3.806
68723SOL    HW2 8002   9.395   4.628   3.799
68724SOL     OW 8003  10.014   2.905  12.736
68724SOL    HW1 8004  10.046   2.821  12.768
68724SOL    HW2 8005  10.074   2.970  12.774
68725SOL     OW 8006  12.475   9.884   9.823
68725SOL    HW1 8007  12.470   9.800   9.777
68725SOL    HW2 8008  12.481   9.860   9.915
68726SOL     OW 8009   1.958  12.799   3.410
68726SOL    HW1 8010   1.980  12.811   3.503
68726SOL    HW2 8011   2.028  12.744   3.376
68727SOL     OW 8012   0.759   3.569  13.235
68727SOL    HW1 8013   0.685   3.514  13.209
68727SOL    HW2 8014   0.720   3.646  13.274
68728SOL     OW 8015   4.358   4.927  13.152
68728SOL    HW1 8016   4.403   5.010  13.169
68728SOL    HW2 8017   4.394   4.867  13.217
68729SOL     OW 8018   1.095   1.937   2.559
68729SOL    HW1 8019   1.137   1.931   2.645
68729SOL    HW2 8020   1.021   1.878   2.564
68730SOL     OW 8021   9.113   7.426  12.202
68730SOL    HW1 8022   9.068   7.442  12.119
68730SOL    HW2 8023   9.121   7.512  12.242
68731SOL     OW 8024   3.315   1.018  11.659
68731SOL    HW1 8025   3.364   1.061  11.729
68731SOL    HW2 8026   3.225   1.015  11.691
68732SOL     OW 8027   2.904   7.876  12.910
68732SOL    HW1 8028   2.927   7.811  12.977
68732SOL    HW2 8029   2.867   7.824  12.839
68733SOL     OW 8030   1.010   8.243   4.349
68733SOL    HW1 8031   0.932   8.247   4.404
68733SOL    HW2 8032   1.022   8.333   4.319
68734SOL     OW 8033   1.162   2.748   6.876
68734SOL    HW1 8034   1.211   2.728   6.956
68734SOL    HW2 8035   1.157   2.665   6.829
68735SOL     OW 8036   9.981   1.495   6.239
68735SOL    HW1 8037  10.028   1.429   6.290
68735SOL    HW2 8038   9.993   1.576   6.288
68736SOL     OW 8039   0.507   8.942   1.627
68736SOL    HW1 8040   0.493   8.924   1.534
68736SOL    HW2 8041   0.431   8.903   1.671
68737SOL     OW 8042  12.650   1.907  10.796
68737SOL    HW1 8043  12.621   1.968  10.729
68737SOL    HW2 8044  12.655   1.960  10.876
68738SOL     OW 8045   1.776   0.537   8.439
68738SOL    HW1 8046   1.785   0.614   8.383
68738SOL    HW2 8047   1.787   0.570   8.528
68739SOL     OW 8048   9.207   8.572   3.710
68739SOL    HW1 8049   9.153   8.566   3.789
68739SOL    HW2 8050   9.297   8.572   3.742
68740SOL     OW 8051  10.943   3.362   8.058
68740SOL    HW1 8052  10.926   3.399   8.145
68740SOL    HW2 8053  10.955   3.439   8.001
68741SOL     OW 8054  10.583   3.237   7.533
68741SOL    HW1 8055  10.671   3.270   7.553
68741SOL    HW2 8056  10.525   3.288   7.589
68742SOL     OW 8057   1.923   4.220   1.686
68742SOL    HW1 8058   1.883   4.139   1.655
68742SOL    HW2 8059   1.963   4.197   1.770
68743SOL     OW 8060   4.167   0.847   9.705
68743SOL    HW1 8061   4.082   0.826   9.664
68743SOL    HW2 8062   4.173   0.787   9.779
68744SOL     OW 8063   3.503   1.930   6.571
68744SOL    HW1 8064   3.559   1.928   6.493
68744SOL    HW2 8065   3.417   1.953   6.537
68745SOL     OW 8066  11.867  12.600  14.740
68745SOL    HW1 8067  11.925  12.524  14.749
68745SOL    HW2 8068  11.822  12.606  14.824
68746SOL     OW 8069   8.816   2.553   1.180
68746SOL    HW1 8070   8.832   2.551   1.086
68746SOL    HW2 8071   8.853   2.636   1.209
68747SOL     OW 8072  12.044   2.079   0.831
68747SOL    HW1 8073  12.003   2.026   0.763
68747SOL    HW2 8074  12.033   2.027   0.911
68748SOL     OW 8075   6.493   7.016  12.988
68748SOL    HW1 8076   6.502   6.962  12.909
68748SOL    HW2 8077   6.402   7.003  13.015
68749SOL     OW 8078  12.053   9.835  13.774
68749SOL    HW1 8079  12.070   9.798  13.861
68749SOL    HW2 8080  11.978   9.786  13.741
68750SOL     OW 8081   9.626   7.325   8.622
68750SOL    HW1 8082   9.569   7.401   8.635
68750SOL    HW2 8083   9.626   7.280   8.706
68751SOL     OW 8084   0.835   3.562  12.742
68751SOL    HW1 8085   0.850   3.527  12.654
68751SOL    HW2 8086   0.891   3.509  12.799
68752SOL     OW 8087  11.062   0.248  11.500
68752SOL    HW1 8088  11.027   0.161  11.519
68752SOL    HW2 8089  11.026   0.269  11.413
68753SOL     OW 8090   9.029  13.790   5.024
68753SOL    HW1 8091   9.112  13.764   4.984
68753SOL    HW2 8092   8.999  13.711   5.069
68754SOL     OW 8093   3.100  12.433   0.741
68754SOL    HW1 8094   3.021  12.478   0.710
68754SOL    HW2 8095   3.071  12.344   0.758
68755SOL     OW 8096   8.050   5.201   5.411
68755SOL    HW1 8097   7.974   5.256   5.431
68755SOL    HW2 8098   8.115   5.262   5.377
68756SOL     OW 8099  12.491   8.515   1.424
68756SOL    HW1 8100  12.406   8.471   1.421
68756SOL    HW2 8101  12.472   8.606   1.402
68757SOL     OW 8102  11.595   2.233   0.376
68757SOL    HW1 8103  11.548   2.214   0.295
68757SOL    HW2 8104  11.682   2.195   0.362
68758SOL     OW 8105   0.010   3.034   5.465
68758SOL    HW1 8106   0.036   3.089   5.391
68758SOL    HW2 8107   0.089   3.027   5.519
68759SOL     OW 8108  12.677  12.079  11.444
68759SOL    HW1 8109  12.628  12.122  11.374
68759SOL    HW2 8110  12.644  11.989  11.445
68760SOL     OW 8111  11.449   6.324   0.281
68760SOL    HW1 8112  11.402   6.301   0.361
68760SOL    HW2 8113  11.516   6.385   0.310
68761SOL     OW 8114   5.637  13.054  14.040
68761SOL    HW1 8115   5.576  13.010  14.100
68761SOL    HW2 8116   5.686  13.114  14.096
68762SOL     OW 8117   5.475   2.243   5.365
68762SOL    HW1 8118   5.510   2.221   5.451
68762SOL    HW2 8119   5.472   2.339   5.363
68763SOL     OW 8120   0.402   3.584   2.951
68763SOL    HW1 8121   0.379   3.676   2.947
68763SOL    HW2 8122   0.319   3.538   2.963
68764SOL     OW 8123   4.948  13.551   5.808
68764SOL    HW1 8124   4.934  13.473   5.861
68764SOL    HW2 8125   4.957  13.518   5.718
68765SOL     OW 8126   3.663  14.156   0.264
68765SOL    HW1 8127   3.739  14.149   0.321
68765SOL    HW2 8128   3.654  14.250   0.248
68766SOL     OW 8129   4.600   8.005   1.929
68766SOL    HW1 8130   4.688   8.000   1.891
68766SOL    HW2 8131   4.616   8.016   2.023
68767SOL     OW 8132   4.543  10.504  10.692
68767SOL    HW1 8133   4.465  10.559  10.689
68767SOL    HW2 8134   4.514  10.424  10.735
68768SOL     OW 8135   6.812   4.314   0.180
68768SOL    HW1 8136   6.729   4.313   0.228
68768SOL    HW2 8137   6.866   4.378   0.227
68769SOL     OW 8138   4.476   5.403   3.098
68769SOL    HW1 8139   4.514   5.404   3.010
68769SOL    HW2 8140   4.532   5.461   3.149
68770SOL     OW 8141   4.351   3.330  14.265
68770SOL    HW1 8142   4.437   3.291  14.282
68770SOL    HW2 8143   4.316   3.350  14.352
68771SOL     OW 8144   7.870   6.941   1.289
68771SOL    HW1 8145   7.962   6.917   1.293
68771SOL    HW2 8146   7.864   7.000   1.213
68772SOL     OW 8147   9.060   3.942   2.271
68772SOL    HW1 8148   9.085   3.869   2.215
68772SOL    HW2 8149   9.123   4.011   2.250
68773SOL     OW 8150   2.487   7.739   8.665
68773SOL    HW1 8151   2.458   7.830   8.668
68773SOL    HW2 8152   2.439   7.696   8.735
68774SOL     OW 8153   3.797   0.116  12.371
68774SOL    HW1 8154   3.873   0.074  12.331
68774SOL    HW2 8155   3.757   0.166  12.301
68775SOL     OW 8156   0.854   4.901  13.023
68775SOL    HW1 8157   0.775   4.915  12.970
68775SOL    HW2 8158   0.838   4.818  13.067
68776SOL     OW 8159  10.549  14.554   2.696
68776SOL    HW1 8160  10.579  14.623   2.754
68776SOL    HW2 8161  10.485  14.597   2.639
68777SOL     OW 8162   8.208  13.240  13.438
68777SOL    HW1 8163   8.149  13.224  13.511
68777SOL    HW2 8164   8.254  13.321  13.461
68778SOL     OW 8165   1.868   8.917  10.058
68778SOL    HW1 8166   1.941   8.979  10.059
68778SOL    HW2 8167   1.812   8.945   9.986
68779SOL     OW 8168   5.032  13.436   3.298
68779SOL    HW1 8169   5.012  13.501   3.365
68779SOL    HW2 8170   5.011  13.479   3.216
68780SOL     OW 8171   2.638   5.029   1.215
68780SOL    HW1 8172   2.652   5.124   1.214
68780SOL    HW2 8173   2.660   5.000   1.127
68781SOL     OW 8174   8.238   8.627   7.785
68781SOL    HW1 8175   8.206   8.550   7.832
68781SOL    HW2 8176   8.301   8.667   7.846
68782SOL     OW 8177  12.091   5.921   8.749
68782SOL    HW1 8178  12.170   5.940   8.799
68782SOL    HW2 8179  12.041   5.862   8.805
68783SOL     OW 8180   2.885   1.112   4.804
68783SOL    HW1 8181   2.950   1.042   4.798
68783SOL    HW2 8182   2.936   1.192   4.818
68784SOL     OW 8183  14.167  11.691   6.354
68784SOL    HW1 8184  14.132  11.779   6.372
68784SOL    HW2 8185  14.103  11.631   6.391
68785SOL     OW 8186   4.540   1.035   0.439
68785SOL    HW1 8187   4.512   1.058   0.350
68785SOL    HW2 8188   4.625   1.078   0.449
68786SOL     OW 8189   9.848  12.132   0.847
68786SOL    HW1 8190   9.841  12.181   0.929
68786SOL    HW2 8191   9.942  12.123   0.830
68787SOL     OW 8192   1.547   7.084   7.598
68787SOL    HW1 8193   1.471   7.126   7.559
68787SOL    HW2 8194   1.585   7.032   7.527
68788SOL     OW 8195  12.779   5.625  11.989
68788SOL    HW1 8196  12.727   5.665  12.058
68788SOL    HW2 8197  12.716   5.573  11.938
68789SOL     OW 8198   2.605  11.369   3.029
68789SOL    HW1 8199   2.664  11.444   3.028
68789SOL    HW2 8200   2.518  11.407   3.022
68790SOL     OW 8201  10.347   6.477   8.696
68790SOL    HW1 8202  10.430   6.514   8.727
68790SOL    HW2 8203  10.303   6.550   8.653
68791SOL     OW 8204   3.053  13.910   1.642
68791SOL    HW1 8205   3.028  13.958   1.563
68791SOL    HW2 8206   2.990  13.939   1.709
68792SOL     OW 8207   8.916  12.010  10.946
68792SOL    HW1 8208   8.966  12.091  10.939
68792SOL    HW2 8209   8.920  11.971  10.859
68793SOL     OW 8210   9.962  13.585   3.596
68793SOL    HW1 8211   9.961  13.680   3.608
68793SOL    HW2 8212   9.915  13.551   3.672
68794SOL     OW 8213   8.264   1.617   4.336
68794SOL    HW1 8214   8.287   1.626   4.428
68794SOL    HW2 8215   8.227   1.529   4.329
68795SOL     OW 8216   5.229  13.068  10.314
68795SOL    HW1 8217   5.289  13.002  10.280
68795SOL    HW2 8218   5.261  13.151  10.277
68796SOL     OW 8219   2.765   0.085  12.636
68796SOL    HW1 8220   2.798   0.162  12.590
68796SOL    HW2 8221   2.682   0.064  12.594
68797SOL     OW 8222   0.086   8.763  13.865
68797SOL    HW1 8223   0.055   8.759  13.775
68797SOL    HW2 8224   0.058   8.848  13.897
68798SOL     OW 8225   5.033   6.391   2.408
68798SOL    HW1 8226   5.052   6.315   2.353
68798SOL    HW2 8227   4.994   6.455   2.348
68799SOL     OW 8228  10.907   2.144   2.107
68799SOL    HW1 8229  10.925   2.213   2.171
68799SOL    HW2 8230  10.937   2.063   2.150
68800SOL     OW 8231   4.894   9.926   4.114
68800SOL    HW1 8232   4.915   9.887   4.199
68800SOL    HW2 8233   4.823   9.987   4.132
68801SOL     OW 8234   7.635   2.223   0.288
68801SOL    HW1 8235   7.633   2.232   0.193
68801SOL    HW2 8236   7.605   2.307   0.321
68802SOL     OW 8237   3.834   5.410  13.827
68802SOL    HW1 8238   3.818   5.328  13.780
68802SOL    HW2 8239   3.748   5.434  13.862
68803SOL     OW 8240  14.748  10.635  12.417
68803SOL    HW1 8241  14.725  10.587  12.337
68803SOL    HW2 8242  14.843  10.644  12.414
68804SOL     OW 8243  11.653  12.505   6.468
68804SOL    HW1 8244  11.686  12.568   6.532
68804SOL    HW2 8245  11.607  12.440   6.522
68805SOL     OW 8246   1.210  13.899   1.446
68805SOL    HW1 8247   1.303  13.900   1.422
68805SOL    HW2 8248   1.207  13.941   1.532
68806SOL     OW 8249   4.693   6.631   2.382
68806SOL    HW1 8250   4.777   6.619   2.339
68806SOL    HW2 8251   4.703   6.589   2.467
68807SOL     OW 8252  10.382   3.392   3.678
68807SOL    HW1 8253  10.422   3.308   3.656
68807SOL    HW2 8254  10.397   3.401   3.772
68808SOL     OW 8255   1.252  11.574   3.823
68808SOL    HW1 8256   1.336  11.535   3.798
68808SOL    HW2 8257   1.248  11.657   3.774
68809SOL     OW 8258   0.494   9.885   5.006
68809SOL    HW1 8259   0.442   9.834   4.944
68809SOL    HW2 8260   0.541   9.948   4.951
68810SOL     OW 8261   5.592   7.595   6.628
68810SOL    HW1 8262   5.496   7.596   6.619
68810SOL    HW2 8263   5.609   7.525   6.691
68811SOL     OW 8264   6.486   3.190   6.179
68811SOL    HW1 8265   6.391   3.192   6.166
68811SOL    HW2 8266   6.520   3.148   6.101
68812SOL     OW 8267  11.152   8.127   5.143
68812SOL    HW1 8268  11.110   8.053   5.100
68812SOL    HW2 8269  11.246   8.112   5.132
68813SOL     OW 8270   1.283   7.163  12.356
68813SOL    HW1 8271   1.261   7.246  12.398
68813SOL    HW2 8272   1.227   7.098  12.399
68814SOL     OW 8273   3.542   4.223   4.278
68814SOL    HW1 8274   3.631   4.201   4.304
68814SOL    HW2 8275   3.519   4.299   4.331
68815SOL     OW 8276   4.294   5.450   5.959
68815SOL    HW1 8277   4.249   5.503   5.893
68815SOL    HW2 8278   4.385   5.445   5.928
68816SOL     OW 8279  12.219  12.205   1.470
68816SOL    HW1 8280  12.278  12.159   1.410
68816SOL    HW2 8281  12.253  12.186   1.557
68817SOL     OW 8282   7.319   8.431   5.680
68817SOL    HW1 8283   7.294   8.366   5.746
68817SOL    HW2 8284   7.266   8.410   5.603
68818SOL     OW 8285   2.321   7.812   6.608
68818SOL    HW1 8286   2.361   7.726   6.598
68818SOL    HW2 8287   2.261   7.820   6.534
68819SOL     OW 8288   4.143   8.326   5.924
68819SOL    HW1 8289   4.076   8.304   5.860
68819SOL    HW2 8290   4.109   8.405   5.968
68820SOL     OW 8291   5.630   6.517   6.794
68820SOL    HW1 8292   5.710   6.569   6.805
68820SOL    HW2 8293   5.653   6.431   6.828
68821SOL     OW 8294   9.845   1.202   5.008
68821SOL    HW1 8295   9.814   1.190   5.098
68821SOL    HW2 8296   9.853   1.297   4.999
68822SOL     OW 8297  13.538  12.607   4.378
68822SOL    HW1 8298  13.456  12.563   4.403
68822SOL    HW2 8299  13.517  12.651   4.295
68823SOL     OW 8300  11.374   2.230  11.125
68823SOL    HW1 8301  11.469   2.241  11.127
68823SOL    HW2 8302  11.351   2.200  11.213
68824SOL     OW 8303  14.410  14.150  14.625
68824SOL    HW1 8304  14.489  14.119  14.581
68824SOL    HW2 8305  14.427  14.136  14.718
68825SOL     OW 8306   2.801   7.631   8.816
68825SOL    HW1 8307   2.798   7.623   8.911
68825SOL    HW2 8308   2.789   7.541   8.785
68826SOL     OW 8309  10.903  13.395   4.807
68826SOL    HW1 8310  10.828  13.369   4.754
68826SOL    HW2 8311  10.901  13.337   4.882
68827SOL     OW 8312   1.408  14.297   3.584
68827SOL    HW1 8313   1.315  14.277   3.593
68827SOL    HW2 8314   1.452  14.224   3.628
68828SOL     OW 8315   2.019  13.044  12.560
68828SOL    HW1 8316   1.932  13.085  12.555
68828SOL    HW2 8317   2.018  12.978  12.491
68829SOL     OW 8318  12.516  14.282   5.799
68829SOL    HW1 8319  12.533  14.218   5.730
68829SOL    HW2 8320  12.543  14.237   5.880
68830SOL     OW 8321  13.691   4.742   1.445
68830SOL    HW1 8322  13.612   4.794   1.459
68830SOL    HW2 8323  13.710   4.704   1.531
68831SOL     OW 8324  14.566   8.826   4.554
68831SOL    HW1 8325  14.501   8.804   4.487
68831SOL    HW2 8326  14.584   8.743   4.598
68832SOL     OW 8327   0.657   8.893   0.626
68832SOL    HW1 8328   0.603   8.893   0.547
68832SOL    HW2 8329   0.744   8.920   0.596
68833SOL     OW 8330  11.133  10.041   3.775
68833SOL    HW1 8331  11.066   9.997   3.826
68833SOL    HW2 8332  11.215   9.997   3.800
68834SOL     OW 8333   8.419  14.083   1.067
68834SOL    HW1 8334   8.488  14.146   1.088
68834SOL    HW2 8335   8.367  14.076   1.147
68835SOL     OW 8336   4.255   9.243   9.544
68835SOL    HW1 8337   4.192   9.289   9.599
68835SOL    HW2 8338   4.254   9.153   9.577
68836SOL     OW 8339  12.998  13.413   0.416
68836SOL    HW1 8340  12.905  13.392   0.413
68836SOL    HW2 8341  13.026  13.386   0.503
68837SOL     OW 8342   2.164   7.354  14.215
68837SOL    HW1 8343   2.158   7.361  14.119
68837SOL    HW2 8344   2.122   7.270  14.235
68838SOL     OW 8345  10.027  14.401   2.244
68838SOL    HW1 8346  10.046  14.474   2.185
68838SOL    HW2 8347  10.034  14.323   2.190
68839SOL     OW 8348   1.467  14.659   7.486
68839SOL    HW1 8349   1.398  14.718   7.455
68839SOL    HW2 8350   1.439  14.572   7.457
68840SOL     OW 8351   2.144   4.879   1.759
68840SOL    HW1 8352   2.089   4.871   1.836
68840SOL    HW2 8353   2.105   4.818   1.696
68841SOL     OW 8354  13.597   4.123   9.718
68841SOL    HW1 8355  13.557   4.048   9.761
68841SOL    HW2 8356  13.686   4.126   9.753
68842SOL     OW 8357   3.027   9.942  13.012
68842SOL    HW1 8358   3.030   9.948  13.107
68842SOL    HW2 8359   3.116   9.919  12.986
68843SOL     OW 8360   4.304  14.759  12.686
68843SOL    HW1 8361   4.249  14.813  12.743
68843SOL    HW2 8362   4.371  14.723  12.744
68844SOL     OW 8363   3.677  12.603   4.310
68844SOL    HW1 8364   3.711  12.686   4.275
68844SOL    HW2 8365   3.632  12.627   4.390
68845SOL     OW 8366   9.871   7.225   7.658
68845SOL    HW1 8367   9.948   7.178   7.688
68845SOL    HW2 8368   9.856   7.292   7.724
68846SOL     OW 8369  13.136   7.962  11.371
68846SOL    HW1 8370  13.109   7.956  11.462
68846SOL    HW2 8371  13.228   7.935  11.371
68847SOL     OW 8372  11.446  13.432  10.421
68847SOL    HW1 8373  11.511  13.376  10.465
68847SOL    HW2 8374  11.471  13.428  10.329
68848SOL     OW 8375   9.819  11.445   3.551
68848SOL    HW1 8376   9.866  11.497   3.486
68848SOL    HW2 8377   9.847  11.355   3.533
68849SOL     OW 8378   6.460   6.520   3.905
68849SOL    HW1 8379   6.543   6.565   3.891
68849SOL    HW2 8380   6.447   6.467   3.826
68850SOL     OW 8381  12.617   1.569  13.228
68850SOL    HW1 8382  12.623   1.653  13.274
68850SOL    HW2 8383  12.650   1.588  13.140
68851SOL     OW 8384   0.565   4.028   4.884
68851SOL    HW1 8385   0.561   3.933   4.899
68851SOL    HW2 8386   0.541   4.038   4.792
68852SOL     OW 8387   2.150   0.384  10.919
68852SOL    HW1 8388   2.145   0.448  10.848
68852SOL    HW2 8389   2.181   0.303  10.877
68853SOL     OW 8390   8.708   7.896   6.404
68853SOL    HW1 8391   8.707   7.853   6.489
68853SOL    HW2 8392   8.674   7.830   6.343
68854SOL     OW 8393   6.760  11.712  11.377
68854SOL    HW1 8394   6.710  11.756  11.308
68854SOL    HW2 8395   6.726  11.748  11.458
68855SOL     OW 8396   8.360  13.017  13.113
68855SOL    HW1 8397   8.321  13.076  13.049
68855SOL    HW2 8398   8.416  13.074  13.167
68856SOL     OW 8399  11.111  10.695   7.553
68856SOL    HW1 8400  11.120  10.731   7.465
68856SOL    HW2 8401  11.034  10.639   7.548
68857SOL     OW 8402   8.905   5.843  12.452
68857SOL    HW1 8403   8.871   5.780  12.516
68857SOL    HW2 8404   8.997   5.821  12.443
68858SOL     OW 8405   0.832   7.472   3.824
68858SOL    HW1 8406   0.890   7.494   3.896
68858SOL    HW2 8407   0.861   7.384   3.797
68859SOL     OW 8408  11.082   6.512  12.663
68859SOL    HW1 8409  11.081   6.421  12.695
68859SOL    HW2 8410  11.172   6.526  12.635
68860SOL     OW 8411  14.322   7.430   5.895
68860SOL    HW1 8412  14.254   7.363   5.896
68860SOL    HW2 8413  14.345   7.441   5.803
68861SOL     OW 8414   6.304   1.902   8.966
68861SOL    HW1 8415   6.282   1.814   8.997
68861SOL    HW2 8416   6.338   1.888   8.877
68862SOL     OW 8417   3.504  12.781   1.222
68862SOL    HW1 8418   3.441  12.800   1.292
68862SOL    HW2 8419   3.486  12.847   1.155
68863SOL     OW 8420   2.944  14.549  10.416
68863SOL    HW1 8421   2.849  14.541  10.411
68863SOL    HW2 8422   2.974  14.546  10.325
68864SOL     OW 8423   7.011   4.456  10.284
68864SOL    HW1 8424   7.049   4.410  10.209
68864SOL    HW2 8425   7.014   4.549  10.259
68865SOL     OW 8426   5.751   1.443   7.954
68865SOL    HW1 8427   5.782   1.353   7.966
68865SOL    HW2 8428   5.723   1.447   7.863
68866SOL     OW 8429   2.056   8.145   1.476
68866SOL    HW1 8430   1.995   8.084   1.436
68866SOL    HW2 8431   2.141   8.120   1.441
68867SOL     OW 8432   0.225   3.146  12.119
68867SOL    HW1 8433   0.147   3.150  12.064
68867SOL    HW2 8434   0.278   3.221  12.090
68868SOL     OW 8435   6.134   9.739   1.508
68868SOL    HW1 8436   6.126   9.828   1.540
68868SOL    HW2 8437   6.142   9.748   1.413
68869SOL     OW 8438   2.815  12.915   4.705
68869SOL    HW1 8439   2.726  12.889   4.728
68869SOL    HW2 8440   2.845  12.849   4.643
68870SOL     OW 8441   9.793   7.994   7.799
68870SOL    HW1 8442   9.712   7.999   7.850
68870SOL    HW2 8443   9.818   7.901   7.803
68871SOL     OW 8444   5.557   2.040   4.786
68871SOL    HW1 8445   5.623   2.091   4.738
68871SOL    HW2 8446   5.492   2.017   4.719
68872SOL     OW 8447   7.131   8.248   6.279
68872SOL    HW1 8448   7.162   8.275   6.193
68872SOL    HW2 8449   7.208   8.252   6.335
68873SOL     OW 8450  14.280   2.593  11.453
68873SOL    HW1 8451  14.353   2.654  11.441
68873SOL    HW2 8452  14.321   2.507  11.451
68874SOL     OW 8453  11.005   6.263  13.489
68874SOL    HW1 8454  10.995   6.169  13.478
68874SOL    HW2 8455  11.038   6.294  13.404
68875SOL     OW 8456   1.804   5.816   2.132
68875SOL    HW1 8457   1.894   5.849   2.136
68875SOL    HW2 8458   1.768   5.854   2.052
68876SOL     OW 8459   6.179   3.362   8.433
68876SOL    HW1 8460   6.189   3.362   8.528
68876SOL    HW2 8461   6.133   3.444   8.413
68877SOL     OW 8462   1.434   1.458   1.751
68877SOL    HW1 8463   1.394   1.371   1.747
68877SOL    HW2 8464   1.472   1.464   1.838
68878SOL     OW 8465   3.409   0.366  13.150
68878SOL    HW1 8466   3.338   0.302  13.147
68878SOL    HW2 8467   3.365   0.451  13.146
68879SOL     OW 8468  11.296  13.074   9.924
68879SOL    HW1 8469  11.303  12.987   9.886
68879SOL    HW2 8470  11.250  13.126   9.859
68880SOL     OW 8471   8.610   3.234   1.757
68880SOL    HW1 8472   8.546   3.165   1.741
68880SOL    HW2 8473   8.658   3.205   1.835
68881SOL     OW 8474   8.644  10.391   3.106
68881SOL    HW1 8475   8.595  10.356   3.032
68881SOL    HW2 8476   8.636  10.486   3.099
68882SOL     OW 8477   9.843  12.813   7.253
68882SOL    HW1 8478   9.784  12.846   7.185
68882SOL    HW2 8479   9.785  12.789   7.325
68883SOL     OW 8480   6.219   4.703  12.116
68883SOL    HW1 8481   6.189   4.658  12.038
68883SOL    HW2 8482   6.297   4.751  12.088
68884SOL     OW 8483  12.444  14.303   8.834
68884SOL    HW1 8484  12.372  14.367   8.829
68884SOL    HW2 8485  12.483  14.304   8.747
68885SOL     OW 8486   5.213   1.660   9.025
68885SOL    HW1 8487   5.255   1.594   9.080
68885SOL    HW2 8488   5.278   1.730   9.019
68886SOL     OW 8489   6.354  14.471   3.956
68886SOL    HW1 8490   6.332  14.416   4.031
68886SOL    HW2 8491   6.425  14.425   3.912
68887SOL     OW 8492   5.846   4.326   2.168
68887SOL    HW1 8493   5.817   4.271   2.095
68887SOL    HW2 8494   5.818   4.279   2.246
68888SOL     OW 8495   3.874   7.952   0.750
68888SOL    HW1 8496   3.960   7.930   0.784
68888SOL    HW2 8497   3.890   8.022   0.687
68889SOL     OW 8498   0.318   7.245  10.329
68889SOL    HW1 8499   0.380   7.203  10.268
68889SOL    HW2 8500   0.322   7.190  10.407
68890SOL     OW 8501  12.803   1.199   1.243
68890SOL    HW1 8502  12.863   1.238   1.179
68890SOL    HW2 8503  12.798   1.107   1.218
68891SOL     OW 8504  12.008   8.147  13.863
68891SOL    HW1 8505  12.041   8.075  13.916
68891SOL    HW2 8506  11.974   8.210  13.927
68892SOL     OW 8507  11.020   4.272   4.870
68892SOL    HW1 8508  10.991   4.257   4.780
68892SOL    HW2 8509  11.114   4.251   4.869
68893SOL     OW 8510   6.401   1.646   2.652
68893SOL    HW1 8511   6.309   1.653   2.625
68893SOL    HW2 8512   6.436   1.734   2.641
68894SOL     OW 8513   9.052  12.845   4.795
68894SOL    HW1 8514   9.077  12.937   4.793
68894SOL    HW2 8515   9.029  12.827   4.886
68895SOL     OW 8516   2.003   8.487   5.960
68895SOL    HW1 8517   1.986   8.473   5.867
68895SOL    HW2 8518   1.916   8.485   6.000
68896SOL     OW 8519  14.307   8.573  14.527
68896SOL    HW1 8520  14.335   8.509  14.461
68896SOL    HW2 8521  14.272   8.520  14.598
68897SOL     OW 8522   5.819  13.722  12.482
68897SOL    HW1 8523   5.892  13.690  12.535
68897SOL    HW2 8524   5.841  13.814  12.464
68898SOL     OW 8525  14.324   5.561   0.317
68898SOL    HW1 8526  14.243   5.512   0.305
68898SOL    HW2 8527  14.392   5.494   0.327
68899SOL     OW 8528   5.445   4.503   2.557
68899SOL    HW1 8529   5.493   4.579   2.590
68899SOL    HW2 8530   5.358   4.510   2.597
68900SOL     OW 8531   1.034  10.139   3.890
68900SOL    HW1 8532   0.989  10.057   3.908
68900SOL    HW2 8533   1.125  10.115   3.873
68901SOL     OW 8534   2.845   2.901  13.281
68901SOL    HW1 8535   2.751   2.917  13.276
68901SOL    HW2 8536   2.877   2.965  13.344
68902SOL     OW 8537  10.148   6.392   3.431
68902SOL    HW1 8538  10.117   6.439   3.508
68902SOL    HW2 8539  10.173   6.460   3.369
68903SOL     OW 8540  11.966   6.913   2.601
68903SOL    HW1 8541  11.894   6.945   2.546
68903SOL    HW2 8542  12.031   6.983   2.600
68904SOL     OW 8543  10.399  10.649   1.279
68904SOL    HW1 8544  10.433  10.724   1.231
68904SOL    HW2 8545  10.389  10.581   1.212
68905SOL     OW 8546   6.873   6.725   6.051
68905SOL    HW1 8547   6.884   6.785   6.125
68905SOL    HW2 8548   6.956   6.728   6.005
68906SOL     OW 8549   9.660   3.788   7.318
68906SOL    HW1 8550   9.679   3.852   7.387
68906SOL    HW2 8551   9.566   3.799   7.301
68907SOL     OW 8552   8.178   3.497  13.825
68907SOL    HW1 8553   8.203   3.501  13.917
68907SOL    HW2 8554   8.214   3.414  13.794
68908SOL     OW 8555   9.500   9.605   5.725
68908SOL    HW1 8556   9.438   9.629   5.656
68908SOL    HW2 8557   9.523   9.514   5.706
68909SOL     OW 8558   1.093  10.351   9.112
68909SOL    HW1 8559   1.075  10.263   9.144
68909SOL    HW2 8560   1.106  10.403   9.191
68910SOL     OW 8561   0.007  13.084   8.046
68910SOL    HW1 8562  14.818  13.119   7.981
68910SOL    HW2 8563   0.052  13.161   8.080
68911SOL     OW 8564   5.169   3.947  14.034
68911SOL    HW1 8565   5.230   3.876  14.053
68911SOL    HW2 8566   5.085   3.917  14.071
68912SOL     OW 8567   7.845   6.093  10.397
68912SOL    HW1 8568   7.787   6.169  10.396
68912SOL    HW2 8569   7.823   6.044  10.318
68913SOL     OW 8570   7.114   9.893   5.371
68913SOL    HW1 8571   7.197   9.864   5.334
68913SOL    HW2 8572   7.139   9.960   5.435
68914SOL     OW 8573  11.809   4.124  10.188
68914SOL    HW1 8574  11.873   4.105  10.120
68914SOL    HW2 8575  11.724   4.109  10.145
68915SOL     OW 8576   4.375   6.730   4.981
68915SOL    HW1 8577   4.463   6.692   4.984
68915SOL    HW2 8578   4.319   6.665   5.024
68916SOL     OW 8579   6.712   4.287   9.601
68916SOL    HW1 8580   6.742   4.257   9.516
68916SOL    HW2 8581   6.660   4.215   9.636
68917SOL     OW 8582  12.078   7.297   6.967
68917SOL    HW1 8583  12.127   7.217   6.987
68917SOL    HW2 8584  12.014   7.303   7.038
68918SOL     OW 8585  10.189   7.877   1.098
68918SOL    HW1 8586  10.156   7.957   1.138
68918SOL    HW2 8587  10.128   7.809   1.124
68919SOL     OW 8588   7.862  11.422   0.944
68919SOL    HW1 8589   7.815  11.354   0.896
68919SOL    HW2 8590   7.801  11.449   1.013
68920SOL     OW 8591   0.608   9.730  10.178
68920SOL    HW1 8592   0.693   9.771  10.196
68920SOL    HW2 8593   0.627   9.663  10.113
68921SOL     OW 8594   6.392   3.034  13.643
68921SOL    HW1 8595   6.367   2.941  13.649
68921SOL    HW2 8596   6.309   3.080  13.633
68922SOL     OW 8597   5.831  12.630   1.530
68922SOL    HW1 8598   5.759  12.657   1.474
68922SOL    HW2 8599   5.791  12.577   1.598
68923SOL     OW 8600   8.256   6.119   5.854
68923SOL    HW1 8601   8.284   6.089   5.768
68923SOL    HW2 8602   8.300   6.060   5.915
68924SOL     OW 8603   3.125   1.129   7.659
68924SOL    HW1 8604   3.038   1.122   7.620
68924SOL    HW2 8605   3.116   1.085   7.744
68925SOL     OW 8606   0.579   9.013  14.099
68925SOL    HW1 8607   0.598   9.106  14.098
68925SOL    HW2 8608   0.659   8.972  14.131
68926SOL     OW 8609   0.414   2.295  11.519
68926SOL    HW1 8610   0.448   2.378  11.486
68926SOL    HW2 8611   0.490   2.251  11.558
68927SOL     OW 8612   2.260   4.395   2.015
68927SOL    HW1 8613   2.250   4.444   1.933
68927SOL    HW2 8614   2.214   4.448   2.080
68928SOL     OW 8615   7.503   1.284   7.654
68928SOL    HW1 8616   7.471   1.272   7.743
68928SOL    HW2 8617   7.424   1.293   7.600
68929SOL     OW 8618   2.274   7.783   3.291
68929SOL    HW1 8619   2.363   7.814   3.305
68929SOL    HW2 8620   2.222   7.862   3.277
68930SOL     OW 8621   9.512   4.685  13.674
68930SOL    HW1 8622   9.509   4.727  13.760
68930SOL    HW2 8623   9.599   4.645  13.670
68931SOL     OW 8624   2.028   9.513  14.350
68931SOL    HW1 8625   2.065   9.550  14.270
68931SOL    HW2 8626   2.103   9.502  14.408
68932SOL     OW 8627   6.647   0.713   8.248
68932SOL    HW1 8628   6.586   0.719   8.174
68932SOL    HW2 8629   6.697   0.794   8.244
68933SOL     OW 8630   1.806  12.500  10.348
68933SOL    HW1 8631   1.751  12.553  10.290
68933SOL    HW2 8632   1.877  12.559  10.373
68934SOL     OW 8633   3.235   0.875   3.170
68934SOL    HW1 8634   3.286   0.921   3.237
68934SOL    HW2 8635   3.183   0.811   3.219
68935SOL     OW 8636   1.565   9.408   7.848
68935SOL    HW1 8637   1.549   9.327   7.896
68935SOL    HW2 8638   1.631   9.454   7.900
68936SOL     OW 8639  11.096  10.679   1.737
68936SOL    HW1 8640  11.136  10.638   1.660
68936SOL    HW2 8641  11.113  10.618   1.809
68937SOL     OW 8642   2.418   2.242  13.828
68937SOL    HW1 8643   2.324   2.249  13.813
68937SOL    HW2 8644   2.458   2.263  13.743
68938SOL     OW 8645   9.306   3.023   2.390
68938SOL    HW1 8646   9.218   2.999   2.416
68938SOL    HW2 8647   9.306   3.013   2.295
68939SOL     OW 8648   9.707  10.208   7.124
68939SOL    HW1 8649   9.757  10.199   7.043
68939SOL    HW2 8650   9.747  10.282   7.170
68940SOL     OW 8651  12.305  12.244  12.636
68940SOL    HW1 8652  12.377  12.253  12.700
68940SOL    HW2 8653  12.333  12.174  12.578
68941SOL     OW 8654  10.747  12.764   0.018
68941SOL    HW1 8655  10.665  12.733   0.057
68941SOL    HW2 8656  10.746  12.858   0.031
68942SOL     OW 8657   0.745  14.425   6.740
68942SOL    HW1 8658   0.755  14.520   6.746
68942SOL    HW2 8659   0.788  14.401   6.658
68943SOL     OW 8660  11.587  11.968   5.585
68943SOL    HW1 8661  11.513  12.027   5.569
68943SOL    HW2 8662  11.642  11.978   5.507
68944SOL     OW 8663  14.728   8.812   2.932
68944SOL    HW1 8664  14.728   8.906   2.914
68944SOL    HW2 8665  14.805   8.779   2.886
68945SOL     OW 8666   2.528   9.789   6.940
68945SOL    HW1 8667   2.608   9.828   6.905
68945SOL    HW2 8668   2.473   9.864   6.965
68946SOL     OW 8669   0.033   9.623   9.794
68946SOL    HW1 8670  14.839   9.568   9.837
68946SOL    HW2 8671  14.859   9.704   9.775
68947SOL     OW 8672   2.687  12.886   5.333
68947SOL    HW1 8673   2.642  12.905   5.251
68947SOL    HW2 8674   2.753  12.821   5.310
68948SOL     OW 8675   6.901  11.065   1.711
68948SOL    HW1 8676   6.977  11.048   1.766
68948SOL    HW2 8677   6.906  10.998   1.642
68949SOL     OW 8678   8.632  11.564   3.608
68949SOL    HW1 8679   8.696  11.570   3.537
68949SOL    HW2 8680   8.680  11.592   3.686
68950SOL     OW 8681  14.340  14.314   5.411
68950SOL    HW1 8682  14.250  14.346   5.416
68950SOL    HW2 8683  14.363  14.294   5.501
68951SOL     OW 8684  14.602   5.399   9.696
68951SOL    HW1 8685  14.680   5.348   9.719
68951SOL    HW2 8686  14.575   5.365   9.611
68952SOL     OW 8687   3.796   9.726   9.892
68952SOL    HW1 8688   3.724   9.698   9.836
68952SOL    HW2 8689   3.754   9.749   9.976
68953SOL     OW 8690   5.674  13.437   3.232
68953SOL    HW1 8691   5.766  13.414   3.242
68953SOL    HW2 8692   5.626  13.356   3.246
68954SOL     OW 8693   9.537   3.174   3.438
68954SOL    HW1 8694   9.482   3.197   3.364
68954SOL    HW2 8695   9.503   3.226   3.511
68955SOL     OW 8696  14.112   4.446   4.139
68955SOL    HW1 8697  14.088   4.403   4.058
68955SOL    HW2 8698  14.141   4.375   4.197
68956SOL     OW 8699   5.283   8.840   3.278
68956SOL    HW1 8700   5.318   8.848   3.189
68956SOL    HW2 8701   5.360   8.834   3.334
68957SOL     OW 8702  10.164   6.289   4.514
68957SOL    HW1 8703  10.219   6.362   4.542
68957SOL    HW2 8704  10.132   6.250   4.596
68958SOL     OW 8705   0.717   2.421   6.498
68958SOL    HW1 8706   0.765   2.435   6.580
68958SOL    HW2 8707   0.775   2.366   6.445
68959SOL     OW 8708   1.987   0.796  14.269
68959SOL    HW1 8709   2.038   0.726  14.229
68959SOL    HW2 8710   1.963   0.852  14.195
68960SOL     OW 8711  10.228  13.794  12.508
68960SOL    HW1 8712  10.198  13.866  12.453
68960SOL    HW2 8713  10.259  13.728  12.445
68961SOL     OW 8714  10.404  14.014   0.801
68961SOL    HW1 8715  10.396  13.982   0.711
68961SOL    HW2 8716  10.469  13.957   0.842
68962SOL     OW 8717  14.655  12.748   6.705
68962SOL    HW1 8718  14.658  12.699   6.622
68962SOL    HW2 8719  14.746  12.751   6.735
68963SOL     OW 8720   7.926   2.542   7.465
68963SOL    HW1 8721   7.939   2.595   7.386
68963SOL    HW2 8722   7.832   2.548   7.482
68964SOL     OW 8723  14.679   3.740  12.500
68964SOL    HW1 8724  14.664   3.654  12.540
68964SOL    HW2 8725  14.615   3.745  12.429
68965SOL     OW 8726  13.581  13.196  13.985
68965SOL    HW1 8727  13.500  13.193  14.036
68965SOL    HW2 8728  13.596  13.105  13.958
68966SOL     OW 8729   7.776   9.996   6.445
68966SOL    HW1 8730   7.800  10.085   6.420
68966SOL    HW2 8731   7.853   9.962   6.491
68967SOL     OW 8732   9.226   1.435   9.821
68967SOL    HW1 8733   9.258   1.345   9.811
68967SOL    HW2 8734   9.275   1.470   9.897
68968SOL     OW 8735   4.888   4.521  10.064
68968SOL    HW1 8736   4.892   4.605  10.110
68968SOL    HW2 8737   4.955   4.467  10.107
68969SOL     OW 8738  13.276   7.365   6.320
68969SOL    HW1 8739  13.236   7.437   6.271
68969SOL    HW2 8740  13.211   7.295   6.318
68970SOL     OW 8741   8.275   6.825   7.701
68970SOL    HW1 8742   8.280   6.739   7.659
68970SOL    HW2 8743   8.201   6.819   7.760
68971SOL     OW 8744  13.805  13.585  10.602
68971SOL    HW1 8745  13.816  13.616  10.512
68971SOL    HW2 8746  13.892  13.558  10.629
68972SOL     OW 8747  13.548  11.621  13.057
68972SOL    HW1 8748  13.586  11.697  13.102
68972SOL    HW2 8749  13.486  11.658  12.995
68973SOL     OW 8750   4.227   3.154   7.957
68973SOL    HW1 8751   4.275   3.100   8.021
68973SOL    HW2 8752   4.186   3.091   7.898
68974SOL     OW 8753   4.283   4.089  11.477
68974SOL    HW1 8754   4.198   4.101  11.435
68974SOL    HW2 8755   4.276   4.004  11.521
68975SOL     OW 8756   0.034  12.050   2.011
68975SOL    HW1 8757   0.125  12.026   2.025
68975SOL    HW2 8758  14.862  12.027   2.093
68976SOL     OW 8759  10.920   6.844  11.438
68976SOL    HW1 8760  10.843   6.898  11.420
68976SOL    HW2 8761  10.905   6.764  11.388
68977SOL     OW 8762   3.920  10.480   0.534
68977SOL    HW1 8763   3.914  10.389   0.507
68977SOL    HW2 8764   3.882  10.482   0.622
68978SOL     OW 8765  14.524   5.159   6.499
68978SOL    HW1 8766  14.613   5.191   6.484
68978SOL    HW2 8767  14.468   5.227   6.462
68979SOL     OW 8768   7.708  13.744   0.103
68979SOL    HW1 8769   7.698  13.822   0.158
68979SOL    HW2 8770   7.638  13.751   0.038
68980SOL     OW 8771  13.646   4.823  11.746
68980SOL    HW1 8772  13.635   4.730  11.727
68980SOL    HW2 8773  13.660   4.863  11.660
68981SOL     OW 8774   4.769   1.787   4.498
68981SOL    HW1 8775   4.718   1.821   4.425
68981SOL    HW2 8776   4.826   1.860   4.523
68982SOL     OW 8777  10.693   8.357   1.640
68982SOL    HW1 8778  10.675   8.412   1.563
68982SOL    HW2 8779  10.701   8.419   1.712
68983SOL     OW 8780  12.264  10.069  10.523
68983SOL    HW1 8781  12.307  10.142  10.569
68983SOL    HW2 8782  12.177  10.063  10.564
68984SOL     OW 8783   4.902   8.590   1.603
68984SOL    HW1 8784   4.953   8.664   1.572
68984SOL    HW2 8785   4.867   8.618   1.688
68985SOL     OW 8786   7.685   0.322  13.386
68985SOL    HW1 8787   7.769   0.354  13.419
68985SOL    HW2 8788   7.671   0.239  13.432
68986SOL     OW 8789   6.550   6.779   1.020
68986SOL    HW1 8790   6.525   6.845   1.085
68986SOL    HW2 8791   6.469   6.758   0.975
68987SOL     OW 8792   7.561   7.035  13.664
68987SOL    HW1 8793   7.615   7.112  13.646
68987SOL    HW2 8794   7.519   7.055  13.748
68988SOL     OW 8795   1.092   2.895   9.470
68988SOL    HW1 8796   1.050   2.895   9.383
68988SOL    HW2 8797   1.019   2.894   9.531
68989SOL     OW 8798   7.685   6.266  13.009
68989SOL    HW1 8799   7.744   6.327  12.965
68989SOL    HW2 8800   7.737   6.232  13.082
68990SOL     OW 8801   3.376  12.402   8.945
68990SOL    HW1 8802   3.424  12.484   8.938
68990SOL    HW2 8803   3.395  12.370   9.033
68991SOL     OW 8804   8.409  12.226   4.828
68991SOL    HW1 8805   8.441  12.245   4.740
68991SOL    HW2 8806   8.454  12.290   4.884
68992SOL     OW 8807  14.821   8.676  12.707
68992SOL    HW1 8808  14.789   8.592  12.677
68992SOL    HW2 8809   0.024   8.695  12.651
68993SOL     OW 8810   9.933   1.866  11.578
68993SOL    HW1 8811   9.963   1.942  11.528
68993SOL    HW2 8812   9.920   1.797  11.512
68994SOL     OW 8813  12.787   3.213   0.840
68994SOL    HW1 8814  12.782   3.212   0.935
68994SOL    HW2 8815  12.868   3.165   0.820
68995SOL     OW 8816   2.686   7.548   7.133
68995SOL    HW1 8817   2.730   7.599   7.201
68995SOL    HW2 8818   2.756   7.494   7.095
68996SOL     OW 8819   8.862   5.273   9.065
68996SOL    HW1 8820   8.818   5.354   9.092
68996SOL    HW2 8821   8.842   5.265   8.971
68997SOL     OW 8822  13.044   8.688   1.143
68997SOL    HW1 8823  12.967   8.634   1.127
68997SOL    HW2 8824  13.083   8.702   1.057
68998SOL     OW 8825   0.665  10.443   5.476
68998SOL    HW1 8826   0.597  10.475   5.535
68998SOL    HW2 8827   0.691  10.519   5.425
68999SOL     OW 8828   8.407   6.957   2.920
68999SOL    HW1 8829   8.349   7.024   2.957
68999SOL    HW2 8830   8.472   7.007   2.871
69000SOL     OW 8831   1.651   0.194  13.556
69000SOL    HW1 8832   1.688   0.138  13.624
69000SOL    HW2 8833   1.673   0.283  13.584
69001SOL     OW 8834   6.884   6.117   8.241
69001SOL    HW1 8835   6.877   6.145   8.150
69001SOL    HW2 8836   6.918   6.193   8.288
69002SOL     OW 8837   2.192  11.152   1.044
69002SOL    HW1 8838   2.147  11.068   1.051
69002SOL    HW2 8839   2.152  11.207   1.112
69003SOL     OW 8840   6.710  13.291  12.352
69003SOL    HW1 8841   6.752  13.320  12.433
69003SOL    HW2 8842   6.616  13.302  12.369
69004SOL     OW 8843  12.614   5.574  11.762
69004SOL    HW1 8844  12.546   5.641  11.750
69004SOL    HW2 8845  12.590   5.504  11.702
69005SOL     OW 8846  11.812  10.068   1.528
69005SOL    HW1 8847  11.762   9.988   1.511
69005SOL    HW2 8848  11.902  10.044   1.507
69006SOL     OW 8849   4.353  12.916  13.862
69006SOL    HW1 8850   4.272  12.951  13.825
69006SOL    HW2 8851   4.360  12.828  13.824
69007SOL     OW 8852  13.227   4.771   2.026
69007SOL    HW1 8853  13.223   4.818   2.110
69007SOL    HW2 8854  13.297   4.707   2.038
69008SOL     OW 8855   2.396  13.429   7.064
69008SOL    HW1 8856   2.366  13.352   7.113
69008SOL    HW2 8857   2.413  13.395   6.976
69009SOL     OW 8858   9.704   2.723   2.863
69009SOL    HW1 8859   9.709   2.799   2.921
69009SOL    HW2 8860   9.727   2.649   2.919
69010SOL     OW 8861  13.436   5.869  11.095
69010SOL    HW1 8862  13.512   5.859  11.152
69010SOL    HW2 8863  13.365   5.894  11.154
69011SOL     OW 8864  11.087   7.823   3.995
69011SOL    HW1 8865  11.153   7.806   4.062
69011SOL    HW2 8866  11.063   7.915   4.008
69012SOL     OW 8867  14.113   6.836   9.242
69012SOL    HW1 8868  14.180   6.790   9.291
69012SOL    HW2 8869  14.033   6.785   9.257
69013SOL     OW 8870  11.334  12.402   4.450
69013SOL    HW1 8871  11.280  12.330   4.483
69013SOL    HW2 8872  11.311  12.409   4.357
69014SOL     OW 8873  10.228   5.662   8.070
69014SOL    HW1 8874  10.168   5.587   8.068
69014SOL    HW2 8875  10.231   5.693   7.980
69015SOL     OW 8876  13.983  11.774   4.050
69015SOL    HW1 8877  14.064  11.772   4.100
69015SOL    HW2 8878  14.007  11.743   3.963
69016SOL     OW 8879   6.979   5.821   1.975
69016SOL    HW1 8880   6.978   5.757   1.904
69016SOL    HW2 8881   6.894   5.864   1.970
69017SOL     OW 8882   1.090   8.170  13.601
69017SOL    HW1 8883   0.997   8.154  13.591
69017SOL    HW2 8884   1.127   8.085  13.627
69018SOL     OW 8885  12.271   7.195   2.145
69018SOL    HW1 8886  12.267   7.105   2.115
69018SOL    HW2 8887  12.224   7.245   2.078
69019SOL     OW 8888   2.031  11.020  11.237
69019SOL    HW1 8889   2.097  10.957  11.209
69019SOL    HW2 8890   2.034  11.017  11.332
69020SOL     OW 8891  10.184  14.659   4.218
69020SOL    HW1 8892  10.219  14.709   4.292
69020SOL    HW2 8893  10.262  14.635   4.167
69021SOL     OW 8894  10.606   5.749  12.185
69021SOL    HW1 8895  10.658   5.701  12.121
69021SOL    HW2 8896  10.516   5.744  12.152
69022SOL     OW 8897  13.372   2.931  10.523
69022SOL    HW1 8898  13.460   2.967  10.509
69022SOL    HW2 8899  13.334   2.927  10.435
69023SOL     OW 8900   5.439   6.786   8.239
69023SOL    HW1 8901   5.396   6.872   8.236
69023SOL    HW2 8902   5.527   6.803   8.205
69024SOL     OW 8903   3.364   0.488   0.007
69024SOL    HW1 8904   3.454   0.522   0.012
69024SOL    HW2 8905   3.349   0.474  14.786
69025SOL     OW 8906   7.491  12.345  13.539
69025SOL    HW1 8907   7.557  12.414  13.535
69025SOL    HW2 8908   7.407  12.392  13.534
69026SOL     OW 8909   5.320   4.906  10.550
69026SOL    HW1 8910   5.333   4.994  10.515
69026SOL    HW2 8911   5.407   4.866  10.547
69027SOL     OW 8912   8.285   5.785   2.053
69027SOL    HW1 8913   8.312   5.744   1.971
69027SOL    HW2 8914   8.366   5.791   2.104
69028SOL     OW 8915   9.833  12.449   0.287
69028SOL    HW1 8916   9.885  12.483   0.360
69028SOL    HW2 8917   9.757  12.507   0.282
69029SOL     OW 8918  11.179   0.932   2.762
69029SOL    HW1 8919  11.264   0.957   2.726
69029SOL    HW2 8920  11.121   1.004   2.736
69030SOL     OW 8921   3.402  11.191   9.842
69030SOL    HW1 8922   3.439  11.112   9.803
69030SOL    HW2 8923   3.309  11.185   9.824
69031SOL     OW 8924  13.732   4.447   4.315
69031SOL    HW1 8925  13.668   4.433   4.246
69031SOL    HW2 8926  13.715   4.378   4.379
69032SOL     OW 8927   9.482  10.082  14.679
69032SOL    HW1 8928   9.426  10.150  14.640
69032SOL    HW2 8929   9.421  10.014  14.708
69033SOL     OW 8930  13.709   4.129   2.051
69033SOL    HW1 8931  13.638   4.193   2.061
69033SOL    HW2 8932  13.763   4.165   1.980
69034SOL     OW 8933   1.643   4.854   4.330
69034SOL    HW1 8934   1.725   4.860   4.282
69034SOL    HW2 8935   1.611   4.765   4.311
69035SOL     OW 8936  12.094   0.611   2.380
69035SOL    HW1 8937  12.025   0.637   2.319
69035SOL    HW2 8938  12.094   0.680   2.447
69036SOL     OW 8939   5.642  11.614  10.275
69036SOL    HW1 8940   5.563  11.582  10.232
69036SOL    HW2 8941   5.622  11.609  10.369
69037SOL     OW 8942  11.087   8.135  13.118
69037SOL    HW1 8943  11.086   8.078  13.195
69037SOL    HW2 8944  11.170   8.114  13.074
69038SOL     OW 8945   2.586  12.528  13.793
69038SOL    HW1 8946   2.502  12.484  13.804
69038SOL    HW2 8947   2.602  12.525  13.698
69039SOL     OW 8948  12.609   3.192   7.618
69039SOL    HW1 8949  12.655   3.275   7.601
69039SOL    HW2 8950  12.550   3.212   7.690
69040SOL     OW 8951  14.098   3.569  13.120
69040SOL    HW1 8952  14.171   3.512  13.144
69040SOL    HW2 8953  14.112   3.588  13.027
69041SOL     OW 8954   3.118  14.446  11.119
69041SOL    HW1 8955   3.167  14.375  11.161
69041SOL    HW2 8956   3.098  14.413  11.032
69042SOL     OW 8957   6.992   0.457   6.277
69042SOL    HW1 8958   6.903   0.460   6.241
69042SOL    HW2 8959   7.044   0.512   6.218
69043SOL     OW 8960   4.374  13.038   6.733
69043SOL    HW1 8961   4.466  13.027   6.759
69043SOL    HW2 8962   4.338  13.098   6.798
69044SOL     OW 8963   4.954   8.781   8.450
69044SOL    HW1 8964   4.922   8.740   8.530
69044SOL    HW2 8965   5.050   8.775   8.457
69045SOL     OW 8966   5.084   8.357   4.322
69045SOL    HW1 8967   5.124   8.391   4.242
69045SOL    HW2 8968   5.028   8.428   4.353
69046SOL     OW 8969   8.418   5.494   9.352
69046SOL    HW1 8970   8.483   5.540   9.406
69046SOL    HW2 8971   8.414   5.545   9.271
69047SOL     OW 8972   5.544   6.025   4.664
69047SOL    HW1 8973   5.475   6.058   4.607
69047SOL    HW2 8974   5.625   6.040   4.614
69048SOL     OW 8975   3.657  12.216  12.755
69048SOL    HW1 8976   3.678  12.232  12.847
69048SOL    HW2 8977   3.599  12.139  12.757
69049SOL     OW 8978   2.225   5.828  14.734
69049SOL    HW1 8979   2.242   5.734  14.738
69049SOL    HW2 8980   2.199   5.844  14.643
69050SOL     OW 8981   7.863  11.044   7.580
69050SOL    HW1 8982   7.953  11.068   7.604
69050SOL    HW2 8983   7.862  11.053   7.484
69051SOL     OW 8984  11.441   0.169   2.564
69051SOL    HW1 8985  11.355   0.138   2.535
69051SOL    HW2 8986  11.457   0.125   2.647
69052SOL     OW 8987   3.379   9.163  12.082
69052SOL    HW1 8988   3.354   9.095  12.019
69052SOL    HW2 8989   3.300   9.179  12.132
69053SOL     OW 8990  12.457  12.006   6.324
69053SOL    HW1 8991  12.389  11.954   6.367
69053SOL    HW2 8992  12.424  12.018   6.234
69054SOL     OW 8993   3.012   0.032   1.917
69054SOL    HW1 8994   2.972   0.010   2.002
69054SOL    HW2 8995   2.937   0.042   1.858
69055SOL     OW 8996   9.438   6.066   0.504
69055SOL    HW1 8997   9.345   6.044   0.507
69055SOL    HW2 8998   9.466   6.041   0.416
69056SOL     OW 8999   8.269   7.636   2.221
69056SOL    HW1 9000   8.174   7.627   2.226
69056SOL    HW2 9001   8.294   7.671   2.307
69057SOL     OW 9002   4.543   1.280   1.571
69057SOL    HW1 9003   4.593   1.351   1.611
69057SOL    HW2 9004   4.461   1.322   1.543
69058SOL     OW 9005   8.985   7.050   5.264
69058SOL    HW1 9006   8.985   7.057   5.359
69058SOL    HW2 9007   9.078   7.048   5.240
69059SOL     OW 9008   3.768  12.450   5.556
69059SOL    HW1 9009   3.680  12.483   5.576
69059SOL    HW2 9010   3.755  12.356   5.539
69060SOL     OW 9011   3.740  12.529  14.638
69060SOL    HW1 9012   3.654  12.490  14.620
69060SOL    HW2 9013   3.734  12.558  14.729
69061SOL     OW 9014   7.343   0.141  13.665
69061SOL    HW1 9015   7.382   0.054  13.658
69061SOL    HW2 9016   7.418   0.201  13.669
69062SOL     OW 9017   3.706   2.870   7.698
69062SOL    HW1 9018   3.625   2.920   7.691
69062SOL    HW2 9019   3.774   2.931   7.669
69063SOL     OW 9020  13.291  12.335   2.380
69063SOL    HW1 9021  13.358  12.267   2.390
69063SOL    HW2 9022  13.224  12.295   2.325
69064SOL     OW 9023   5.068   5.105   7.651
69064SOL    HW1 9024   5.027   5.046   7.588
69064SOL    HW2 9025   5.058   5.192   7.612
69065SOL     OW 9026   7.773  11.506   8.437
69065SOL    HW1 9027   7.827  11.451   8.381
69065SOL    HW2 9028   7.835  11.547   8.498
69066SOL     OW 9029  14.730   6.742   0.331
69066SOL    HW1 9030  14.779   6.662   0.312
69066SOL    HW2 9031  14.756   6.803   0.262
69067SOL     OW 9032  12.592   7.242  13.457
69067SOL    HW1 9033  12.586   7.176  13.527
69067SOL    HW2 9034  12.684   7.265  13.454
69068SOL     OW 9035   6.409   2.655  11.634
69068SOL    HW1 9036   6.497   2.689  11.616
69068SOL    HW2 9037   6.350   2.725  11.606
69069SOL     OW 9038   2.704   3.164   3.857
69069SOL    HW1 9039   2.716   3.189   3.949
69069SOL    HW2 9040   2.785   3.192   3.814
69070SOL     OW 9041   3.532   9.983   1.761
69070SOL    HW1 9042   3.573  10.048   1.703
69070SOL    HW2 9043   3.441  10.012   1.769
69071SOL     OW 9044   4.258  13.489  14.001
69071SOL    HW1 9045   4.335  13.509  13.948
69071SOL    HW2 9046   4.287  13.503  14.092
69072SOL     OW 9047   5.752   8.875   3.519
69072SOL    HW1 9048   5.842   8.883   3.488
69072SOL    HW2 9049   5.756   8.807   3.587
69073SOL     OW 9050   5.499  12.295   5.169
69073SOL    HW1 9051   5.528  12.270   5.081
69073SOL    HW2 9052   5.409  12.264   5.174
69074SOL     OW 9053  13.092   4.993  11.122
69074SOL    HW1 9054  13.057   4.906  11.139
69074SOL    HW2 9055  13.051   5.049  11.188
69075SOL     OW 9056   3.228   2.378  10.214
69075SOL    HW1 9057   3.239   2.288  10.245
69075SOL    HW2 9058   3.309   2.422  10.238
69076SOL     OW 9059   1.639   8.406  13.838
69076SOL    HW1 9060   1.680   8.449  13.763
69076SOL    HW2 9061   1.667   8.458  13.914
69077SOL     OW 9062   7.393   9.280   6.047
69077SOL    HW1 9063   7.407   9.355   5.988
69077SOL    HW2 9064   7.328   9.311   6.109
69078SOL     OW 9065  11.290   7.697  11.697
69078SOL    HW1 9066  11.290   7.602  11.684
69078SOL    HW2 9067  11.365   7.713  11.754
69079SOL     OW 9068   8.439  13.413  14.750
69079SOL    HW1 9069   8.349  13.397  14.777
69079SOL    HW2 9070   8.454  13.505  14.771
69080SOL     OW 9071  14.188   0.292   5.515
69080SOL    HW1 9072  14.244   0.229   5.562
69080SOL    HW2 9073  14.108   0.243   5.495
69081SOL     OW 9074   6.541   0.538   2.113
69081SOL    HW1 9075   6.506   0.570   2.029
69081SOL    HW2 9076   6.568   0.617   2.160
69082SOL     OW 9077  10.386   5.532   9.059
69082SOL    HW1 9078  10.332   5.605   9.092
69082SOL    HW2 9079  10.418   5.563   8.975
69083SOL     OW 9080   0.477  14.625   3.366
69083SOL    HW1 9081   0.393  14.595   3.401
69083SOL    HW2 9082   0.455  14.660   3.280
69084SOL     OW 9083   0.715   3.293   3.823
69084SOL    HW1 9084   0.684   3.210   3.859
69084SOL    HW2 9085   0.810   3.282   3.817
69085SOL     OW 9086  10.859  12.621  14.387
69085SOL    HW1 9087  10.810  12.673  14.451
69085SOL    HW2 9088  10.814  12.637  14.304
69086SOL     OW 9089   6.344  13.165  12.562
69086SOL    HW1 9090   6.394  13.198  12.636
69086SOL    HW2 9091   6.373  13.074  12.552
69087SOL     OW 9092   1.922   7.426   2.798
69087SOL    HW1 9093   1.960   7.457   2.716
69087SOL    HW2 9094   1.854   7.365   2.771
69088SOL     OW 9095   1.394   3.250  10.167
69088SOL    HW1 9096   1.392   3.273  10.074
69088SOL    HW2 9097   1.369   3.158  10.170
69089SOL     OW 9098   3.864  10.292   7.723
69089SOL    HW1 9099   3.920  10.304   7.647
69089SOL    HW2 9100   3.848  10.381   7.755
69090SOL     OW 9101   7.237   8.564   1.677
69090SOL    HW1 9102   7.257   8.473   1.655
69090SOL    HW2 9103   7.144   8.564   1.696
69091SOL     OW 9104   4.672   3.748   4.556
69091SOL    HW1 9105   4.665   3.696   4.477
69091SOL    HW2 9106   4.738   3.704   4.609
69092SOL     OW 9107  10.218  14.397  10.152
69092SOL    HW1 9108  10.238  14.384  10.245
69092SOL    HW2 9109  10.160  14.324  10.129
69093SOL     OW 9110  11.819   2.965   0.796
69093SOL    HW1 9111  11.789   3.050   0.762
69093SOL    HW2 9112  11.848   2.917   0.719
69094SOL     OW 9113  14.763   6.171  10.102
69094SOL    HW1 9114  14.828   6.122  10.051
69094SOL    HW2 9115  14.685   6.173  10.046
69095SOL     OW 9116   7.014   7.647   3.192
69095SOL    HW1 9117   7.001   7.651   3.286
69095SOL    HW2 9118   7.042   7.557   3.175
69096SOL     OW 9119  11.960   2.138   2.864
69096SOL    HW1 9120  11.966   2.044   2.879
69096SOL    HW2 9121  11.885   2.166   2.916
69097SOL     OW 9122  14.820   5.908  13.866
69097SOL    HW1 9123  14.757   5.886  13.934
69097SOL    HW2 9124  14.826   6.004  13.869
69098SOL     OW 9125   7.811   6.460   8.106
69098SOL    HW1 9126   7.809   6.458   8.202
69098SOL    HW2 9127   7.904   6.453   8.084
69099SOL     OW 9128  14.023   3.206   1.826
69099SOL    HW1 9129  14.111   3.218   1.862
69099SOL    HW2 9130  14.032   3.224   1.733
69100SOL     OW 9131  11.089   9.815  13.748
69100SOL    HW1 9132  11.072   9.902  13.711
69100SOL    HW2 9133  11.085   9.756  13.673
69101SOL     OW 9134   6.891   9.961   7.109
69101SOL    HW1 9135   6.890  10.006   7.194
69101SOL    HW2 9136   6.837  10.017   7.052
69102SOL     OW 9137  13.570  10.657  12.992
69102SOL    HW1 9138  13.582  10.717  12.918
69102SOL    HW2 9139  13.636  10.589  12.978
69103SOL     OW 9140   1.216  10.444   1.265
69103SOL    HW1 9141   1.151  10.410   1.204
69103SOL    HW2 9142   1.171  10.448   1.349
69104SOL     OW 9143   9.151   7.876  11.180
69104SOL    HW1 9144   9.076   7.847  11.127
69104SOL    HW2 9145   9.199   7.936  11.123
69105SOL     OW 9146  14.240   4.741  12.329
69105SOL    HW1 9147  14.286   4.793  12.395
69105SOL    HW2 9148  14.163   4.794  12.306
69106SOL     OW 9149   4.788   5.551   0.154
69106SOL    HW1 9150   4.748   5.516   0.234
69106SOL    HW2 9151   4.771   5.484   0.087
69107SOL     OW 9152  11.576  14.098   6.480
69107SOL    HW1 9153  11.662  14.102   6.438
69107SOL    HW2 9154  11.531  14.026   6.435
69108SOL     OW 9155   0.422   7.334   2.038
69108SOL    HW1 9156   0.469   7.386   1.972
69108SOL    HW2 9157   0.450   7.371   2.121
69109SOL     OW 9158   9.272   5.463   1.436
69109SOL    HW1 9159   9.295   5.552   1.461
69109SOL    HW2 9160   9.254   5.468   1.342
69110SOL     OW 9161  10.303   8.534   3.126
69110SOL    HW1 9162  10.299   8.629   3.137
69110SOL    HW2 9163  10.366   8.520   3.055
69111SOL     OW 9164  11.331   1.834  13.661
69111SOL    HW1 9165  11.267   1.786  13.607
69111SOL    HW2 9166  11.283   1.855  13.741
69112SOL     OW 9167  12.545   4.653  10.898
69112SOL    HW1 9168  12.557   4.719  10.829
69112SOL    HW2 9169  12.466   4.681  10.944
69113SOL     OW 9170   7.681   4.419  11.757
69113SOL    HW1 9171   7.611   4.434  11.693
69113SOL    HW2 9172   7.759   4.458  11.718
69114SOL     OW 9173  11.968  11.248  12.492
69114SOL    HW1 9174  12.013  11.295  12.562
69114SOL    HW2 9175  11.991  11.156  12.507
69115SOL     OW 9176  11.016   6.817   2.908
69115SOL    HW1 9177  11.059   6.902   2.895
69115SOL    HW2 9178  11.035   6.794   2.999
69116SOL     OW 9179   5.100  14.712   9.695
69116SOL    HW1 9180   5.021  14.693   9.745
69116SOL    HW2 9181   5.159  14.753   9.757
69117SOL     OW 9182   7.539   2.253   9.980
69117SOL    HW1 9183   7.629   2.221   9.967
69117SOL    HW2 9184   7.543   2.346   9.956
69118SOL     OW 9185  13.905  10.198   9.456
69118SOL    HW1 9186  13.926  10.117   9.503
69118SOL    HW2 9187  13.988  10.224   9.414
69119SOL     OW 9188   2.149   5.553   7.475
69119SOL    HW1 9189   2.179   5.526   7.388
69119SOL    HW2 9190   2.217   5.612   7.506
69120SOL     OW 9191  10.635   0.687   8.390
69120SOL    HW1 9192  10.649   0.758   8.328
69120SOL    HW2 9193  10.713   0.688   8.446
69121SOL     OW 9194   7.578   9.494   7.362
69121SOL    HW1 9195   7.628   9.469   7.440
69121SOL    HW2 9196   7.540   9.579   7.384
69122SOL     OW 9197  11.235   4.027   7.559
69122SOL    HW1 9198  11.147   4.064   7.559
69122SOL    HW2 9199  11.222   3.933   7.548
69123SOL     OW 9200   8.776   7.935  14.525
69123SOL    HW1 9201   8.707   7.873  14.503
69123SOL    HW2 9202   8.843   7.920  14.458
69124SOL     OW 9203   0.869   1.714   9.704
69124SOL    HW1 9204   0.948   1.764   9.683
69124SOL    HW2 9205   0.833   1.759   9.781
69125SOL     OW 9206  12.678   8.119  14.506
69125SOL    HW1 9207  12.762   8.096  14.547
69125SOL    HW2 9208  12.698   8.125  14.413
69126SOL     OW 9209   8.319   5.847   8.708
69126SOL    HW1 9210   8.401   5.851   8.658
69126SOL    HW2 9211   8.252   5.876   8.646
69127SOL     OW 9212   5.225  12.655   0.219
69127SOL    HW1 9213   5.170  12.732   0.233
69127SOL    HW2 9214   5.162  12.584   0.203
69128SOL     OW 9215   9.609   3.085   1.160
69128SOL    HW1 9216   9.548   3.042   1.100
69128SOL    HW2 9217   9.556   3.103   1.238
69129SOL     OW 9218   1.400  11.296   6.766
69129SOL    HW1 9219   1.315  11.339   6.754
69129SOL    HW2 9220   1.400  11.270   6.858
69130SOL     OW 9221  11.274   5.442   6.072
69130SOL    HW1 9222  11.348   5.381   6.068
69130SOL    HW2 9223  11.257   5.466   5.981
69131SOL     OW 9224  14.476   7.031  14.165
69131SOL    HW1 9225  14.424   6.975  14.223
69131SOL    HW2 9226  14.431   7.025  14.080
69132SOL     OW 9227   1.220  13.914  13.226
69132SOL    HW1 9228   1.129  13.883  13.231
69132SOL    HW2 9229   1.273  13.834  13.224
69133SOL     OW 9230  11.454  12.045   0.097
69133SOL    HW1 9231  11.486  12.128   0.061
69133SOL    HW2 9232  11.416  12.000   0.022
69134SOL     OW 9233   3.962  13.412  13.742
69134SOL    HW1 9234   4.006  13.486  13.701
69134SOL    HW2 9235   3.924  13.448  13.823
69135SOL     OW 9236   3.588   6.400   9.296
69135SOL    HW1 9237   3.524   6.471   9.288
69135SOL    HW2 9238   3.597   6.366   9.207
69136SOL     OW 9239  10.690  14.710   6.925
69136SOL    HW1 9240  10.672  14.633   6.979
69136SOL    HW2 9241  10.785  14.712   6.916
69137SOL     OW 9242   5.332   5.903  11.971
69137SOL    HW1 9243   5.355   5.820  11.928
69137SOL    HW2 9244   5.244   5.888  12.006
69138SOL     OW 9245  12.577   9.009  12.161
69138SOL    HW1 9246  12.661   8.965  12.148
69138SOL    HW2 9247  12.536   8.960  12.233
69139SOL     OW 9248   3.124   7.266   4.016
69139SOL    HW1 9249   3.189   7.254   3.946
69139SOL    HW2 9250   3.043   7.231   3.979
69140SOL     OW 9251   9.110   0.905  10.199
69140SOL    HW1 9252   9.139   0.907  10.290
69140SOL    HW2 9253   9.036   0.965  10.196
69141SOL     OW 9254   0.617  10.946   9.017
69141SOL    HW1 9255   0.535  10.990   8.994
69141SOL    HW2 9256   0.655  11.000   9.087
69142SOL     OW 9257   2.020   5.928   6.054
69142SOL    HW1 9258   2.032   5.902   6.145
69142SOL    HW2 9259   1.929   5.907   6.035
69143SOL     OW 9260   8.238   3.944   1.654
69143SOL    HW1 9261   8.298   4.018   1.645
69143SOL    HW2 9262   8.270   3.895   1.730
69144SOL     OW 9263  10.589   5.057   1.528
69144SOL    HW1 9264  10.535   5.032   1.453
69144SOL    HW2 9265  10.618   4.974   1.565
69145SOL     OW 9266   0.043   2.627  14.556
69145SOL    HW1 9267   0.014   2.536  14.564
69145SOL    HW2 9268  14.844   2.678  14.594
69146SOL     OW 9269   2.147   9.885   8.077
69146SOL    HW1 9270   2.117   9.975   8.067
69146SOL    HW2 9271   2.172   9.877   8.169
69147SOL     OW 9272  10.386   3.950   0.891
69147SOL    HW1 9273  10.403   4.034   0.934
69147SOL    HW2 9274  10.468   3.901   0.902
69148SOL     OW 9275   4.938   7.392   5.230
69148SOL    HW1 9276   4.859   7.437   5.201
69148SOL    HW2 9277   4.959   7.432   5.314
69149SOL     OW 9278   7.125   8.328  11.343
69149SOL    HW1 9279   7.171   8.379  11.277
69149SOL    HW2 9280   7.106   8.244  11.300
69150SOL     OW 9281   4.912   9.267   1.768
69150SOL    HW1 9282   4.904   9.208   1.693
69150SOL    HW2 9283   4.856   9.228   1.835
69151SOL     OW 9284   4.352   9.351   0.015
69151SOL    HW1 9285   4.298   9.319   0.088
69151SOL    HW2 9286   4.335   9.445   0.014
69152SOL     OW 9287   5.498   9.057   7.570
69152SOL    HW1 9288   5.528   9.147   7.567
69152SOL    HW2 9289   5.507   9.025   7.480
69153SOL     OW 9290  10.583   4.853   0.215
69153SOL    HW1 9291  10.554   4.784   0.274
69153SOL    HW2 9292  10.679   4.853   0.223
69154SOL     OW 9293   3.660  12.903   2.008
69154SOL    HW1 9294   3.651  12.985   1.959
69154SOL    HW2 9295   3.727  12.921   2.074
69155SOL     OW 9296   7.017   1.624   2.220
69155SOL    HW1 9297   7.027   1.559   2.290
69155SOL    HW2 9298   7.047   1.578   2.141
69156SOL     OW 9299   8.372  10.503  14.471
69156SOL    HW1 9300   8.281  10.506  14.502
69156SOL    HW2 9301   8.367  10.530  14.379
69157SOL     OW 9302  12.855   2.638   4.463
69157SOL    HW1 9303  12.857   2.690   4.543
69157SOL    HW2 9304  12.891   2.553   4.487
69158SOL     OW 9305  13.411   0.445  10.281
69158SOL    HW1 9306  13.465   0.484  10.213
69158SOL    HW2 9307  13.428   0.351  10.274
69159SOL     OW 9308   1.222   0.745   7.297
69159SOL    HW1 9309   1.311   0.739   7.260
69159SOL    HW2 9310   1.180   0.663   7.273
69160SOL     OW 9311   3.250   3.484  12.892
69160SOL    HW1 9312   3.222   3.521  12.976
69160SOL    HW2 9313   3.202   3.533  12.826
69161SOL     OW 9314   5.501   6.551  11.462
69161SOL    HW1 9315   5.516   6.598  11.544
69161SOL    HW2 9316   5.503   6.459  11.487
69162SOL     OW 9317   4.144   5.227   7.594
69162SOL    HW1 9318   4.139   5.245   7.500
69162SOL    HW2 9319   4.188   5.142   7.600
69163SOL     OW 9320  14.572   5.083  12.250
69163SOL    HW1 9321  14.643   5.146  12.259
69163SOL    HW2 9322  14.495   5.127  12.286
69164SOL     OW 9323  11.999   2.281   1.770
69164SOL    HW1 9324  12.080   2.331   1.771
69164SOL    HW2 9325  12.016   2.208   1.710
69165SOL     OW 9326   3.505  10.096  13.881
69165SOL    HW1 9327   3.479  10.011  13.847
69165SOL    HW2 9328   3.496  10.156  13.807
69166SOL     OW 9329   3.441   7.163   4.717
69166SOL    HW1 9330   3.445   7.248   4.673
69166SOL    HW2 9331   3.467   7.100   4.650
69167SOL     OW 9332  10.859  13.842  14.356
69167SOL    HW1 9333  10.873  13.843  14.450
69167SOL    HW2 9334  10.922  13.906  14.322
69168SOL     OW 9335  13.124   5.274  12.252
69168SOL    HW1 9336  13.120   5.204  12.318
69168SOL    HW2 9337  13.083   5.349  12.295
69169SOL     OW 9338   1.503   4.963   2.884
69169SOL    HW1 9339   1.458   4.929   2.961
69169SOL    HW2 9340   1.543   5.045   2.914
69170SOL     OW 9341   0.130  10.399   1.999
69170SOL    HW1 9342   0.115  10.319   1.948
69170SOL    HW2 9343   0.081  10.386   2.080
69171SOL     OW 9344   7.555   6.219   4.915
69171SOL    HW1 9345   7.641   6.217   4.957
69171SOL    HW2 9346   7.573   6.244   4.824
69172SOL     OW 9347   4.835   8.751  14.117
69172SOL    HW1 9348   4.851   8.783  14.206
69172SOL    HW2 9349   4.787   8.669  14.129
69173SOL     OW 9350   6.463   6.814   5.403
69173SOL    HW1 9351   6.538   6.835   5.458
69173SOL    HW2 9352   6.489   6.735   5.356
69174SOL     OW 9353   9.085   4.560  14.807
69174SOL    HW1 9354   9.008   4.562  14.865
69174SOL    HW2 9355   9.047   4.555  14.719
69175SOL     OW 9356   8.679   1.062   3.791
69175SOL    HW1 9357   8.697   1.050   3.698
69175SOL    HW2 9358   8.638   0.979   3.817
69176SOL     OW 9359   3.269  12.354   7.933
69176SOL    HW1 9360   3.175  12.372   7.929
69176SOL    HW2 9361   3.276  12.259   7.944
69177SOL     OW 9362   3.035   7.686  12.272
69177SOL    HW1 9363   2.971   7.641  12.327
69177SOL    HW2 9364   3.054   7.624  12.202
69178SOL     OW 9365  11.608  10.400  13.090
69178SOL    HW1 9366  11.567  10.321  13.055
69178SOL    HW2 9367  11.695  10.402  13.051
69179SOL     OW 9368   5.366   6.884  14.564
69179SOL    HW1 9369   5.376   6.802  14.516
69179SOL    HW2 9370   5.311   6.939  14.507
69180SOL     OW 9371   5.134   9.806   3.985
69180SOL    HW1 9372   5.061   9.851   4.026
69180SOL    HW2 9373   5.104   9.787   3.896
69181SOL     OW 9374   1.451  13.138   4.604
69181SOL    HW1 9375   1.470  13.134   4.510
69181SOL    HW2 9376   1.528  13.100   4.646
69182SOL     OW 9377  14.033  11.771  14.777
69182SOL    HW1 9378  14.009  11.736  14.691
69182SOL    HW2 9379  14.128  11.759  14.782
69183SOL     OW 9380   6.570   8.258   1.895
69183SOL    HW1 9381   6.538   8.298   1.975
69183SOL    HW2 9382   6.514   8.181   1.883
69184SOL     OW 9383  14.416  13.423  13.284
69184SOL    HW1 9384  14.345  13.477  13.319
69184SOL    HW2 9385  14.461  13.390  13.361
69185SOL     OW 9386   8.158  14.706   1.538
69185SOL    HW1 9387   8.087  14.654   1.574
69185SOL    HW2 9388   8.237  14.656   1.558
69186SOL     OW 9389   7.826  11.064   1.047
69186SOL    HW1 9390   7.770  11.010   0.992
69186SOL    HW2 9391   7.867  11.001   1.107
69187SOL     OW 9392   0.603  11.622  10.730
69187SOL    HW1 9393   0.628  11.710  10.760
69187SOL    HW2 9394   0.520  11.604  10.773
69188SOL     OW 9395   6.729  14.821  14.779
69188SOL    HW1 9396   6.678  14.851  14.705
69188SOL    HW2 9397   6.820  14.827  14.750
69189SOL     OW 9398   0.566  12.946   1.134
69189SOL    HW1 9399   0.478  12.952   1.171
69189SOL    HW2 9400   0.605  12.869   1.176
69190SOL     OW 9401   2.983  13.212   1.182
69190SOL    HW1 9402   3.028  13.297   1.181
69190SOL    HW2 9403   2.996  13.178   1.094
69191SOL     OW 9404   1.083   9.913   7.208
69191SOL    HW1 9405   1.005   9.879   7.163
69191SOL    HW2 9406   1.126   9.835   7.243
69192SOL     OW 9407  11.426   5.765  11.990
69192SOL    HW1 9408  11.414   5.859  12.006
69192SOL    HW2 9409  11.353   5.724  12.036
69193SOL     OW 9410   9.434   8.930   5.534
69193SOL    HW1 9411   9.404   8.988   5.464
69193SOL    HW2 9412   9.354   8.901   5.577
69194SOL     OW 9413  11.423   7.583  13.425
69194SOL    HW1 9414  11.397   7.673  13.443
69194SOL    HW2 9415  11.342   7.540  13.397
69195SOL     OW 9416   8.634   2.612   0.730
69195SOL    HW1 9417   8.597   2.684   0.678
69195SOL    HW2 9418   8.670   2.655   0.808
69196SOL     OW 9419   2.703  14.231   2.329
69196SOL    HW1 9420   2.692  14.310   2.276
69196SOL    HW2 9421   2.667  14.160   2.276
69197SOL     OW 9422  13.592   8.283   4.324
69197SOL    HW1 9423  13.532   8.211   4.306
69197SOL    HW2 9424  13.649   8.250   4.393
69198SOL     OW 9425   7.492   8.215  10.767
69198SOL    HW1 9426   7.486   8.309  10.751
69198SOL    HW2 9427   7.403   8.183  10.754
69199SOL     OW 9428   9.689  13.339   2.358
69199SOL    HW1 9429   9.706  13.394   2.282
69199SOL    HW2 9430   9.774  13.333   2.403
69200SOL     OW 9431  10.360   4.556   6.306
69200SOL    HW1 9432  10.303   4.508   6.367
69200SOL    HW2 9433  10.336   4.648   6.319
69201SOL     OW 9434  11.586   7.690  10.818
69201SOL    HW1 9435  11.528   7.646  10.755
69201SOL    HW2 9436  11.544   7.774  10.834
69202SOL     OW 9437  11.843   9.579   9.642
69202SOL    HW1 9438  11.875   9.490   9.626
69202SOL    HW2 9439  11.785   9.597   9.568
69203SOL     OW 9440   3.646  12.809   0.733
69203SOL    HW1 9441   3.717  12.757   0.770
69203SOL    HW2 9442   3.633  12.773   0.645
69204SOL     OW 9443   9.335   5.553   0.059
69204SOL    HW1 9444   9.290   5.517  14.855
69204SOL    HW2 9445   9.270   5.611   0.100
69205SOL     OW 9446  14.035   9.216   0.793
69205SOL    HW1 9447  13.957   9.163   0.810
69205SOL    HW2 9448  14.014   9.265   0.714
69206SOL     OW 9449  14.516   9.643   4.659
69206SOL    HW1 9450  14.559   9.727   4.647
69206SOL    HW2 9451  14.433   9.652   4.612
69207SOL     OW 9452   3.232   7.177   1.432
69207SOL    HW1 9453   3.186   7.223   1.502
69207SOL    HW2 9454   3.279   7.246   1.385
69208SOL     OW 9455   5.695  12.318   6.761
69208SOL    HW1 9456   5.678  12.279   6.847
69208SOL    HW2 9457   5.786  12.347   6.766
69209SOL     OW 9458  13.637  11.327   5.472
69209SOL    HW1 9459  13.563  11.384   5.490
69209SOL    HW2 9460  13.667  11.351   5.384
69210SOL     OW 9461   4.654   6.900   3.187
69210SOL    HW1 9462   4.705   6.936   3.115
69210SOL    HW2 9463   4.576   6.864   3.145
69211SOL     OW 9464   9.076   4.033   8.366
69211SOL    HW1 9465   9.145   3.999   8.309
69211SOL    HW2 9466   9.006   3.968   8.361
69212SOL     OW 9467  11.876   6.194  12.320
69212SOL    HW1 9468  11.874   6.283  12.357
69212SOL    HW2 9469  11.791   6.156  12.345
69213SOL     OW 9470   8.208   3.019   5.272
69213SOL    HW1 9471   8.220   3.072   5.192
69213SOL    HW2 9472   8.283   2.959   5.272
69214SOL     OW 9473  14.838   0.527   3.481
69214SOL    HW1 9474   0.009   0.557   3.561
69214SOL    HW2 9475  14.745   0.523   3.503
69215SOL     OW 9476  10.389   6.905   1.131
69215SOL    HW1 9477  10.334   6.834   1.165
69215SOL    HW2 9478  10.363   6.981   1.183
69216SOL     OW 9479  11.833   4.171   4.139
69216SOL    HW1 9480  11.773   4.162   4.213
69216SOL    HW2 9481  11.807   4.102   4.078
69217SOL     OW 9482   3.590   3.424  12.999
69217SOL    HW1 9483   3.631   3.499  12.955
69217SOL    HW2 9484   3.505   3.416  12.957
69218SOL     OW 9485   0.671  12.184   4.026
69218SOL    HW1 9486   0.600  12.173   3.964
69218SOL    HW2 9487   0.751  12.168   3.975
69219SOL     OW 9488   1.157   4.818   6.456
69219SOL    HW1 9489   1.194   4.773   6.533
69219SOL    HW2 9490   1.077   4.770   6.437
69220SOL     OW 9491   8.290   3.750   9.927
69220SOL    HW1 9492   8.280   3.700   9.846
69220SOL    HW2 9493   8.264   3.839   9.903
69221SOL     OW 9494   3.204  11.360   1.149
69221SOL    HW1 9495   3.179  11.294   1.084
69221SOL    HW2 9496   3.272  11.316   1.201
69222SOL     OW 9497  12.516  12.827   2.320
69222SOL    HW1 9498  12.558  12.892   2.264
69222SOL    HW2 9499  12.545  12.848   2.408
69223SOL     OW 9500   9.861   2.744   5.529
69223SOL    HW1 9501   9.806   2.814   5.565
69223SOL    HW2 9502   9.863   2.678   5.598
69224SOL     OW 9503   1.839  12.660  11.756
69224SOL    HW1 9504   1.775  12.677  11.825
69224SOL    HW2 9505   1.828  12.568  11.735
69225SOL     OW 9506   2.625  14.639   9.444
69225SOL    HW1 9507   2.636  14.712   9.506
69225SOL    HW2 9508   2.564  14.580   9.487
69226SOL     OW 9509  10.727  14.833  12.431
69226SOL    HW1 9510  10.820  14.811  12.441
69226SOL    HW2 9511  10.694  14.770  12.368
69227SOL     OW 9512   2.868   5.090  12.806
69227SOL    HW1 9513   2.809   5.074  12.880
69227SOL    HW2 9514   2.911   5.006  12.792
69228SOL     OW 9515   0.234   5.935  14.018
69228SOL    HW1 9516   0.148   5.960  14.054
69228SOL    HW2 9517   0.215   5.862  13.959
69229SOL     OW 9518   7.055  12.363   9.842
69229SOL    HW1 9519   6.994  12.436   9.827
69229SOL    HW2 9520   6.999  12.291   9.870
69230SOL     OW 9521   3.664   3.057   0.546
69230SOL    HW1 9522   3.656   3.076   0.452
69230SOL    HW2 9523   3.574   3.056   0.578
69231SOL     OW 9524  12.527   8.340   4.261
69231SOL    HW1 9525  12.515   8.273   4.194
69231SOL    HW2 9526  12.439   8.360   4.292
69232SOL     OW 9527  12.961   8.766   5.802
69232SOL    HW1 9528  12.979   8.860   5.813
69232SOL    HW2 9529  12.947   8.735   5.891
69233SOL     OW 9530   4.158   4.516   4.339
69233SOL    HW1 9531   4.096   4.468   4.395
69233SOL    HW2 9532   4.219   4.449   4.309
69234SOL     OW 9533  12.476   6.173   7.798
69234SOL    HW1 9534  12.572   6.180   7.795
69234SOL    HW2 9535  12.449   6.243   7.857
69235SOL     OW 9536   1.425   6.136  12.292
69235SOL    HW1 9537   1.518   6.124  12.271
69235SOL    HW2 9538   1.382   6.143  12.207
69236SOL     OW 9539   5.042  13.341   3.621
69236SOL    HW1 9540   4.953  13.318   3.595
69236SOL    HW2 9541   5.038  13.435   3.639
69237SOL     OW 9542   5.170  14.490  10.421
69237SOL    HW1 9543   5.075  14.501  10.414
69237SOL    HW2 9544   5.198  14.559  10.482
69238SOL     OW 9545   7.937  11.267  11.641
69238SOL    HW1 9546   7.982  11.277  11.556
69238SOL    HW2 9547   7.923  11.357  11.670
69239SOL     OW 9548  12.002  10.680  12.127
69239SOL    HW1 9549  12.067  10.744  12.098
69239SOL    HW2 9550  11.944  10.669  12.052
69240SOL     OW 9551   1.883   4.253  14.250
69240SOL    HW1 9552   1.894   4.261  14.155
69240SOL    HW2 9553   1.790   4.234  14.262
69241SOL     OW 9554   0.634   1.086  14.774
69241SOL    HW1 9555   0.654   1.174  14.807
69241SOL    HW2 9556   0.572   1.101  14.703
69242SOL     OW 9557   9.501  14.744   4.675
69242SOL    HW1 9558   9.410  14.721   4.657
69242SOL    HW2 9559   9.529  14.797   4.600
69243SOL     OW 9560   3.819  14.745  13.023
69243SOL    HW1 9561   3.727  14.754  12.997
69243SOL    HW2 9562   3.867  14.796  12.957
69244SOL     OW 9563   9.131   8.338   5.565
69244SOL    HW1 9564   9.210   8.314   5.517
69244SOL    HW2 9565   9.162   8.397   5.635
69245SOL     OW 9566   4.581   7.505   3.150
69245SOL    HW1 9567   4.523   7.579   3.134
69245SOL    HW2 9568   4.535   7.430   3.114
69246SOL     OW 9569   1.705   1.909   5.594
69246SOL    HW1 9570   1.799   1.926   5.583
69246SOL    HW2 9571   1.689   1.925   5.687
69247SOL     OW 9572   5.002   8.711   6.218
69247SOL    HW1 9573   5.065   8.651   6.258
69247SOL    HW2 9574   4.927   8.712   6.278
69248SOL     OW 9575   1.839  12.467   3.572
69248SOL    HW1 9576   1.876  12.519   3.500
69248SOL    HW2 9577   1.897  12.483   3.646
69249SOL     OW 9578   0.196   6.400   6.975
69249SOL    HW1 9579   0.112   6.359   6.994
69249SOL    HW2 9580   0.242   6.336   6.920
69250SOL     OW 9581   6.858  11.725   9.462
69250SOL    HW1 9582   6.945  11.693   9.484
69250SOL    HW2 9583   6.801  11.689   9.531
69251SOL     OW 9584  13.448  13.214   8.760
69251SOL    HW1 9585  13.534  13.224   8.718
69251SOL    HW2 9586  13.420  13.304   8.778
69252SOL     OW 9587  11.487  12.873  10.179
69252SOL    HW1 9588  11.401  12.862  10.137
69252SOL    HW2 9589  11.471  12.852  10.271
69253SOL     OW 9590   2.299   6.907  14.822
69253SOL    HW1 9591   2.309   6.883  14.730
69253SOL    HW2 9592   2.386   6.934  14.850
69254SOL     OW 9593   8.326   2.270   7.755
69254SOL    HW1 9594   8.369   2.230   7.680
69254SOL    HW2 9595   8.315   2.198   7.817
69255SOL     OW 9596   3.214   3.355   3.240
69255SOL    HW1 9597   3.262   3.374   3.160
69255SOL    HW2 9598   3.201   3.440   3.282
69256SOL     OW 9599  11.256   2.800  10.700
69256SOL    HW1 9600  11.209   2.718  10.719
69256SOL    HW2 9601  11.219   2.863  10.762
69257SOL     OW 9602  11.357  10.609   9.372
69257SOL    HW1 9603  11.389  10.522   9.351
69257SOL    HW2 9604  11.306  10.597   9.452
69258SOL     OW 9605   7.721   7.041   5.003
69258SOL    HW1 9606   7.684   7.130   5.007
69258SOL    HW2 9607   7.661   6.993   4.946
69259SOL     OW 9608   9.728   2.877   6.365
69259SOL    HW1 9609   9.674   2.859   6.442
69259SOL    HW2 9610   9.805   2.921   6.400
69260SOL     OW 9611   4.331   4.080  14.471
69260SOL    HW1 9612   4.378   4.052  14.550
69260SOL    HW2 9613   4.398   4.120  14.416
69261SOL     OW 9614   4.060   2.216   6.301
69261SOL    HW1 9615   4.144   2.260   6.314
69261SOL    HW2 9616   4.045   2.222   6.206
69262SOL     OW 9617   6.323   0.218  14.782
69262SOL    HW1 9618   6.339   0.137  14.830
69262SOL    HW2 9619   6.228   0.231  14.787
69263SOL     OW 9620   4.327  14.564  14.201
69263SOL    HW1 9621   4.401  14.504  14.201
69263SOL    HW2 9622   4.255  14.514  14.241
69264SOL     OW 9623   5.455   1.250   0.646
69264SOL    HW1 9624   5.374   1.210   0.679
69264SOL    HW2 9625   5.522   1.223   0.708
69265SOL     OW 9626   8.842   6.583   7.583
69265SOL    HW1 9627   8.781   6.613   7.650
69265SOL    HW2 9628   8.803   6.611   7.500
69266SOL     OW 9629   5.400   0.683   6.025
69266SOL    HW1 9630   5.464   0.715   6.089
69266SOL    HW2 9631   5.330   0.646   6.078
69267SOL     OW 9632   2.355   4.512   0.560
69267SOL    HW1 9633   2.369   4.418   0.557
69267SOL    HW2 9634   2.275   4.523   0.612
69268SOL     OW 9635   2.496   5.218   9.563
69268SOL    HW1 9636   2.449   5.200   9.645
69268SOL    HW2 9637   2.587   5.198   9.583
69269SOL     OW 9638  13.708   1.782   3.411
69269SOL    HW1 9639  13.661   1.813   3.489
69269SOL    HW2 9640  13.688   1.848   3.344
69270SOL     OW 9641   9.654   7.285   5.852
69270SOL    HW1 9642   9.608   7.368   5.863
69270SOL    HW2 9643   9.675   7.281   5.759
69271SOL     OW 9644   1.598   0.912  13.408
69271SOL    HW1 9645   1.669   0.956  13.454
69271SOL    HW2 9646   1.614   0.930  13.316
69272SOL     OW 9647  13.541  12.790  11.545
69272SOL    HW1 9648  13.514  12.832  11.464
69272SOL    HW2 9649  13.636  12.805  11.549
69273SOL     OW 9650   7.833   1.792   7.814
69273SOL    HW1 9651   7.820   1.880   7.849
69273SOL    HW2 9652   7.745   1.754   7.811
69274SOL     OW 9653   2.239   8.576   8.970
69274SOL    HW1 9654   2.157   8.610   8.935
69274SOL    HW2 9655   2.228   8.581   9.065
69275SOL     OW 9656  14.328   7.158   8.825
69275SOL    HW1 9657  14.289   7.223   8.766
69275SOL    HW2 9658  14.352   7.208   8.903
69276SOL     OW 9659   1.318  11.218   4.986
69276SOL    HW1 9660   1.408  11.228   5.018
69276SOL    HW2 9661   1.285  11.141   5.031
69277SOL     OW 9662   9.995   8.476  14.076
69277SOL    HW1 9663   9.973   8.471  13.983
69277SOL    HW2 9664   9.952   8.400  14.115
69278SOL     OW 9665   6.804   2.887  14.861
69278SOL    HW1 9666   6.712   2.882  14.833
69278SOL    HW2 9667   6.800   2.916   0.080
69279SOL     OW 9668   0.948   4.822   9.484
69279SOL    HW1 9669   0.892   4.745   9.479
69279SOL    HW2 9670   1.037   4.788   9.480
69280SOL     OW 9671  14.485  11.892   6.066
69280SOL    HW1 9672  14.394  11.918   6.049
69280SOL    HW2 9673  14.487  11.798   6.045
69281SOL     OW 9674  12.132   0.796   7.113
69281SOL    HW1 9675  12.097   0.841   7.036
69281SOL    HW2 9676  12.108   0.853   7.187
69282SOL     OW 9677   0.429   0.928   1.982
69282SOL    HW1 9678   0.503   0.983   1.957
69282SOL    HW2 9679   0.469   0.843   2.004
69283SOL     OW 9680   2.109   9.808   1.209
69283SOL    HW1 9681   2.173   9.827   1.141
69283SOL    HW2 9682   2.160   9.776   1.283
69284SOL     OW 9683   0.525  11.264   4.590
69284SOL    HW1 9684   0.490  11.218   4.514
69284SOL    HW2 9685   0.456  11.325   4.615
69285SOL     OW 9686   0.803  14.097   8.475
69285SOL    HW1 9687   0.837  14.065   8.559
69285SOL    HW2 9688   0.749  14.025   8.442
69286SOL     OW 9689   0.337  12.928   3.067
69286SOL    HW1 9690   0.297  12.878   2.996
69286SOL    HW2 9691   0.375  13.005   3.024
69287SOL     OW 9692   1.532  12.483  13.612
69287SOL    HW1 9693   1.482  12.563  13.592
69287SOL    HW2 9694   1.575  12.501  13.695
69288SOL     OW 9695   4.724   2.850  14.015
69288SOL    HW1 9696   4.679   2.766  14.000
69288SOL    HW2 9697   4.668   2.914  13.972
69289SOL     OW 9698   5.384   6.524   8.305
69289SOL    HW1 9699   5.446   6.479   8.248
69289SOL    HW2 9700   5.396   6.617   8.284
69290SOL     OW 9701   0.723   5.036  14.144
69290SOL    HW1 9702   0.761   4.989  14.069
69290SOL    HW2 9703   0.680   5.112  14.105
69291SOL     OW 9704   7.286   2.129  14.069
69291SOL    HW1 9705   7.358   2.092  14.018
69291SOL    HW2 9706   7.300   2.097  14.158
69292SOL     OW 9707  12.630   4.560   0.670
69292SOL    HW1 9708  12.553   4.552   0.614
69292SOL    HW2 9709  12.700   4.586   0.611
69293SOL     OW 9710   2.196   3.462   3.411
69293SOL    HW1 9711   2.229   3.404   3.481
69293SOL    HW2 9712   2.195   3.407   3.333
69294SOL     OW 9713  12.638   7.409   1.024
69294SOL    HW1 9714  12.723   7.408   0.979
69294SOL    HW2 9715  12.576   7.377   0.958
69295SOL     OW 9716   0.662  11.866   4.972
69295SOL    HW1 9717   0.739  11.830   4.927
69295SOL    HW2 9718   0.619  11.789   5.010
69296SOL     OW 9719   7.929  10.883   1.245
69296SOL    HW1 9720   7.871  10.815   1.282
69296SOL    HW2 9721   7.961  10.930   1.322
69297SOL     OW 9722  10.727   3.707   0.590
69297SOL    HW1 9723  10.636   3.691   0.617
69297SOL    HW2 9724  10.739   3.801   0.604
69298SOL     OW 9725   7.479  12.511   8.597
69298SOL    HW1 9726   7.464  12.537   8.506
69298SOL    HW2 9727   7.566  12.473   8.597
69299SOL     OW 9728   6.843  11.161   2.110
69299SOL    HW1 9729   6.830  11.197   2.198
69299SOL    HW2 9730   6.819  11.232   2.051
69300SOL     OW 9731   9.164   9.242   7.833
69300SOL    HW1 9732   9.124   9.232   7.746
69300SOL    HW2 9733   9.247   9.195   7.827
69301SOL     OW 9734   1.157  12.330   5.242
69301SOL    HW1 9735   1.111  12.389   5.183
69301SOL    HW2 9736   1.224  12.384   5.283
69302SOL     OW 9737   3.185  14.715   6.143
69302SOL    HW1 9738   3.177  14.748   6.054
69302SOL    HW2 9739   3.100  14.733   6.183
69303SOL     OW 9740   8.254  13.527   9.856
69303SOL    HW1 9741   8.299  13.524   9.941
69303SOL    HW2 9742   8.289  13.452   9.808
69304SOL     OW 9743  12.746   0.206  10.670
69304SOL    HW1 9744  12.665   0.175  10.712
69304SOL    HW2 9745  12.716   0.258  10.596
69305SOL     OW 9746   4.458   3.055   6.734
69305SOL    HW1 9747   4.434   3.009   6.815
69305SOL    HW2 9748   4.426   3.144   6.747
69306SOL     OW 9749  12.206   4.429  13.089
69306SOL    HW1 9750  12.228   4.487  13.162
69306SOL    HW2 9751  12.115   4.404  13.104
69307SOL     OW 9752   8.985  13.809  10.510
69307SOL    HW1 9753   9.049  13.746  10.478
69307SOL    HW2 9754   8.986  13.879  10.446
69308SOL     OW 9755   5.567   4.297   7.784
69308SOL    HW1 9756   5.646   4.254   7.816
69308SOL    HW2 9757   5.593   4.338   7.702
69309SOL     OW 9758   6.883  13.764  11.211
69309SOL    HW1 9759   6.936  13.841  11.230
69309SOL    HW2 9760   6.828  13.752  11.288
69310SOL     OW 9761  13.213   6.378   2.800
69310SOL    HW1 9762  13.197   6.434   2.725
69310SOL    HW2 9763  13.209   6.289   2.766
69311SOL     OW 9764   2.922   3.058  14.026
69311SOL    HW1 9765   2.866   3.054  14.104
69311SOL    HW2 9766   2.863   3.037  13.953
69312SOL     OW 9767   8.827   0.574   1.982
69312SOL    HW1 9768   8.812   0.483   2.009
69312SOL    HW2 9769   8.884   0.610   2.049
69313SOL     OW 9770   0.023   0.856   8.605
69313SOL    HW1 9771   0.012   0.787   8.671
69313SOL    HW2 9772   0.113   0.885   8.616
69314SOL     OW 9773   9.847   6.181   6.250
69314SOL    HW1 9774   9.826   6.210   6.339
69314SOL    HW2 9775   9.805   6.095   6.242
69315SOL     OW 9776   9.573   3.906   2.165
69315SOL    HW1 9777   9.619   3.947   2.238
69315SOL    HW2 9778   9.592   3.813   2.173
69316SOL     OW 9779   8.227   5.491  10.422
69316SOL    HW1 9780   8.194   5.412  10.381
69316SOL    HW2 9781   8.178   5.498  10.504
69317SOL     OW 9782   0.822   5.337   1.987
69317SOL    HW1 9783   0.748   5.386   2.024
69317SOL    HW2 9784   0.822   5.254   2.034
69318SOL     OW 9785  12.840   6.431  10.567
69318SOL    HW1 9786  12.925   6.414  10.527
69318SOL    HW2 9787  12.777   6.396  10.504
69319SOL     OW 9788   0.884   8.876   9.735
69319SOL    HW1 9789   0.843   8.960   9.715
69319SOL    HW2 9790   0.810   8.818   9.753
69320SOL     OW 9791  14.171   5.521   4.949
69320SOL    HW1 9792  14.139   5.468   4.876
69320SOL    HW2 9793  14.254   5.556   4.919
69321SOL     OW 9794  13.128  11.870   9.809
69321SOL    HW1 9795  13.049  11.889   9.860
69321SOL    HW2 9796  13.166  11.793   9.852
69322SOL     OW 9797   2.888  11.745  14.182
69322SOL    HW1 9798   2.794  11.734  14.195
69322SOL    HW2 9799   2.923  11.656  14.183
69323SOL     OW 9800  13.674   3.495   2.711
69323SOL    HW1 9801  13.621   3.542   2.647
69323SOL    HW2 9802  13.709   3.420   2.663
69324SOL     OW 9803   6.942   7.602   5.576
69324SOL    HW1 9804   7.037   7.603   5.565
69324SOL    HW2 9805   6.929   7.580   5.668
69325SOL     OW 9806  11.699   7.149   8.133
69325SOL    HW1 9807  11.746   7.206   8.194
69325SOL    HW2 9808  11.678   7.205   8.059
69326SOL     OW 9809  11.459   6.696   1.630
69326SOL    HW1 9810  11.383   6.702   1.572
69326SOL    HW2 9811  11.440   6.620   1.686
69327SOL     OW 9812   2.409  12.242  12.440
69327SOL    HW1 9813   2.448  12.187  12.372
69327SOL    HW2 9814   2.483  12.268  12.495
69328SOL     OW 9815   8.773   5.370   4.039
69328SOL    HW1 9816   8.706   5.305   4.060
69328SOL    HW2 9817   8.792   5.414   4.122
69329SOL     OW 9818   7.995   5.338   3.054
69329SOL    HW1 9819   7.913   5.385   3.041
69329SOL    HW2 9820   8.041   5.388   3.121
69330SOL     OW 9821   5.334   1.878   3.619
69330SOL    HW1 9822   5.322   1.972   3.607
69330SOL    HW2 9823   5.425   1.862   3.594
69331SOL     OW 9824   1.072  10.253   5.493
69331SOL    HW1 9825   1.156  10.260   5.448
69331SOL    HW2 9826   1.046  10.344   5.511
69332SOL     OW 9827   9.285   4.543   3.498
69332SOL    HW1 9828   9.245   4.494   3.426
69332SOL    HW2 9829   9.266   4.491   3.576
69333SOL     OW 9830  14.848  12.750   7.408
69333SOL    HW1 9831   0.033  12.779   7.479
69333SOL    HW2 9832  14.761  12.780   7.434
69334SOL     OW 9833   6.354   0.140   1.110
69334SOL    HW1 9834   6.393   0.221   1.077
69334SOL    HW2 9835   6.283   0.168   1.168
69335SOL     OW 9836  13.817   4.130   0.323
69335SOL    HW1 9837  13.758   4.055   0.327
69335SOL    HW2 9838  13.843   4.145   0.414
69336SOL     OW 9839  10.438   7.643   5.571
69336SOL    HW1 9840  10.421   7.735   5.550
69336SOL    HW2 9841  10.534   7.636   5.568
69337SOL     OW 9842  11.763   9.439   6.140
69337SOL    HW1 9843  11.738   9.402   6.056
69337SOL    HW2 9844  11.770   9.534   6.124
69338SOL     OW 9845  13.988  12.830   5.288
69338SOL    HW1 9846  13.924  12.901   5.298
69338SOL    HW2 9847  14.067  12.863   5.330
69339SOL     OW 9848   0.745   9.955   7.258
69339SOL    HW1 9849   0.672   9.945   7.196
69339SOL    HW2 9850   0.764  10.049   7.256
69340SOL     OW 9851  12.802   5.311   8.569
69340SOL    HW1 9852  12.759   5.236   8.527
69340SOL    HW2 9853  12.781   5.301   8.662
69341SOL     OW 9854   8.553  12.037   0.092
69341SOL    HW1 9855   8.508  11.953   0.083
69341SOL    HW2 9856   8.646  12.014   0.101
69342SOL     OW 9857   2.992  12.960   7.497
69342SOL    HW1 9858   2.943  12.928   7.422
69342SOL    HW2 9859   3.083  12.935   7.479
69343SOL     OW 9860  13.879   7.364   8.096
69343SOL    HW1 9861  13.878   7.270   8.081
69343SOL    HW2 9862  13.787   7.388   8.107
69344SOL     OW 9863   5.620   8.611  10.114
69344SOL    HW1 9864   5.699   8.557  10.108
69344SOL    HW2 9865   5.638   8.672  10.185
69345SOL     OW 9866   3.439   7.641   8.486
69345SOL    HW1 9867   3.349   7.628   8.457
69345SOL    HW2 9868   3.435   7.639   8.581
69346SOL     OW 9869   1.815   1.415   2.195
69346SOL    HW1 9870   1.828   1.454   2.108
69346SOL    HW2 9871   1.728   1.443   2.221
69347SOL     OW 9872   5.369   1.407   3.353
69347SOL    HW1 9873   5.283   1.375   3.325
69347SOL    HW2 9874   5.410   1.441   3.273
69348SOL     OW 9875   8.800   6.734  14.773
69348SOL    HW1 9876   8.786   6.659  14.831
69348SOL    HW2 9877   8.712   6.769  14.758
69349SOL     OW 9878  11.994   0.590  13.604
69349SOL    HW1 9879  11.933   0.516  13.609
69349SOL    HW2 9880  12.079   0.552  13.625
69350SOL     OW 9881   1.503   0.169   0.568
69350SOL    HW1 9882   1.527   0.104   0.502
69350SOL    HW2 9883   1.458   0.237   0.519
69351SOL     OW 9884   5.739   0.825   6.438
69351SOL    HW1 9885   5.827   0.856   6.416
69351SOL    HW2 9886   5.728   0.846   6.530
69352SOL     OW 9887   5.460   2.856   8.859
69352SOL    HW1 9888   5.441   2.833   8.769
69352SOL    HW2 9889   5.480   2.772   8.902
69353SOL     OW 9890   1.421   4.426   1.021
69353SOL    HW1 9891   1.501   4.443   0.972
69353SOL    HW2 9892   1.428   4.483   1.098
69354SOL     OW 9893   0.705   9.176   4.822
69354SOL    HW1 9894   0.769   9.232   4.780
69354SOL    HW2 9895   0.624   9.192   4.773
69355SOL     OW 9896   7.414   9.093  11.062
69355SOL    HW1 9897   7.349   9.022  11.062
69355SOL    HW2 9898   7.382   9.155  11.128
69356SOL     OW 9899   2.120   8.210   7.343
69356SOL    HW1 9900   2.202   8.161   7.347
69356SOL    HW2 9901   2.077   8.194   7.427
69357SOL     OW 9902   0.334   3.728   1.728
69357SOL    HW1 9903   0.330   3.678   1.809
69357SOL    HW2 9904   0.282   3.677   1.665
69358SOL     OW 9905   0.836   9.420   2.421
69358SOL    HW1 9906   0.869   9.510   2.428
69358SOL    HW2 9907   0.742   9.429   2.409
69359SOL     OW 9908  10.027   5.458  13.100
69359SOL    HW1 9909  10.058   5.545  13.127
69359SOL    HW2 9910   9.934   5.471  13.081
69360SOL     OW 9911  11.072   8.396  14.239
69360SOL    HW1 9912  11.028   8.312  14.255
69360SOL    HW2 9913  11.153   8.389  14.289
69361SOL     OW 9914   1.473   0.330   7.242
69361SOL    HW1 9915   1.412   0.267   7.205
69361SOL    HW2 9916   1.558   0.306   7.206
69362SOL     OW 9917   7.745  13.005   8.509
69362SOL    HW1 9918   7.718  12.925   8.465
69362SOL    HW2 9919   7.752  13.070   8.440
69363SOL     OW 9920   4.503  12.334   7.814
69363SOL    HW1 9921   4.558  12.257   7.815
69363SOL    HW2 9922   4.450  12.328   7.894
69364SOL     OW 9923  13.344  13.124   5.633
69364SOL    HW1 9924  13.420  13.176   5.658
69364SOL    HW2 9925  13.360  13.038   5.671
69365SOL     OW 9926   0.272   5.241  10.275
69365SOL    HW1 9927   0.302   5.169  10.220
69365SOL    HW2 9928   0.236   5.197  10.353
69366SOL     OW 9929  11.302  10.926   6.933
69366SOL    HW1 9930  11.295  11.015   6.966
69366SOL    HW2 9931  11.232  10.878   6.978
69367SOL     OW 9932   1.354   4.191   3.436
69367SOL    HW1 9933   1.347   4.098   3.414
69367SOL    HW2 9934   1.264   4.221   3.444
69368SOL     OW 9935   7.049   8.067   3.885
69368SOL    HW1 9936   7.081   8.132   3.948
69368SOL    HW2 9937   7.128   8.027   3.849
69369SOL     OW 9938  14.513   0.723  11.267
69369SOL    HW1 9939  14.606   0.740  11.257
69369SOL    HW2 9940  14.506   0.677  11.351
69370SOL     OW 9941   1.501  10.965   6.549
69370SOL    HW1 9942   1.469  10.921   6.470
69370SOL    HW2 9943   1.590  10.992   6.527
69371SOL     OW 9944  10.617  11.674   8.650
69371SOL    HW1 9945  10.635  11.687   8.743
69371SOL    HW2 9946  10.676  11.603   8.623
69372SOL     OW 9947  11.348   9.517   3.503
69372SOL    HW1 9948  11.373   9.534   3.412
69372SOL    HW2 9949  11.283   9.447   3.497
69373SOL     OW 9950  12.884  11.962  14.282
69373SOL    HW1 9951  12.935  11.881  14.284
69373SOL    HW2 9952  12.838  11.959  14.198
69374SOL     OW 9953  11.269   3.918   7.981
69374SOL    HW1 9954  11.268   3.999   7.931
69374SOL    HW2 9955  11.202   3.863   7.940
69375SOL     OW 9956  10.651  11.806  11.441
69375SOL    HW1 9957  10.716  11.871  11.468
69375SOL    HW2 9958  10.608  11.845  11.365
69376SOL     OW 9959   0.476   8.545   1.074
69376SOL    HW1 9960   0.509   8.566   1.162
69376SOL    HW2 9961   0.381   8.560   1.081
69377SOL     OW 9962   3.672  11.578   4.687
69377SOL    HW1 9963   3.766  11.584   4.705
69377SOL    HW2 9964   3.648  11.665   4.656
69378SOL     OW 9965   4.508  14.499   9.100
69378SOL    HW1 9966   4.579  14.556   9.071
69378SOL    HW2 9967   4.538  14.464   9.183
69379SOL     OW 9968   9.441   6.511  14.456
69379SOL    HW1 9969   9.352   6.479  14.473
69379SOL    HW2 9970   9.498   6.451  14.504
69380SOL     OW 9971  14.762   8.569   5.773
69380SOL    HW1 9972  14.680   8.619   5.775
69380SOL    HW2 9973  14.805   8.598   5.692
69381SOL     OW 9974   3.311  11.995  14.006
69381SOL    HW1 9975   3.333  11.977  14.097
69381SOL    HW2 9976   3.386  11.962  13.956
69382SOL     OW 9977   4.125  14.017  14.593
69382SOL    HW1 9978   4.189  13.950  14.568
69382SOL    HW2 9979   4.081  14.040  14.512
69383SOL     OW 9980   2.602  13.443   5.775
69383SOL    HW1 9981   2.605  13.432   5.870
69383SOL    HW2 9982   2.652  13.522   5.758
69384SOL     OW 9983  13.579  14.431   7.664
69384SOL    HW1 9984  13.545  14.347   7.632
69384SOL    HW2 9985  13.573  14.425   7.759
69385SOL     OW 9986   8.703   7.312   4.045
69385SOL    HW1 9987   8.733   7.377   4.108
69385SOL    HW2 9988   8.608   7.307   4.059
69386SOL     OW 9989   1.897  12.845   1.545
69386SOL    HW1 9990   1.869  12.935   1.530
69386SOL    HW2 9991   1.975  12.853   1.599
69387SOL     OW 9992  11.033   2.712   4.755
69387SOL    HW1 9993  11.065   2.720   4.665
69387SOL    HW2 9994  11.102   2.751   4.809
69388SOL     OW 9995   8.841   7.260   2.219
69388SOL    HW1 9996   8.873   7.202   2.150
69388SOL    HW2 9997   8.747   7.243   2.223
69389SOL     OW 9998   9.541   8.670  12.577
69389SOL    HW1 9999   9.514   8.596  12.522
69389SOL    HW210000   9.463   8.692  12.627
69390SOL     OW10001   5.132   8.007  13.108
69390SOL    HW110002   5.160   8.064  13.036
69390SOL    HW210003   5.081   8.065  13.165
69391SOL     OW10004  12.969   1.955   7.396
69391SOL    HW110005  12.979   1.974   7.303
69391SOL    HW210006  13.023   1.877   7.410
69392SOL     OW10007  13.888  11.710   1.237
69392SOL    HW110008  13.933  11.790   1.265
69392SOL    HW210009  13.948  11.669   1.175
69393SOL     OW10010   8.971   2.588   4.221
69393SOL    HW110011   8.952   2.499   4.192
69393SOL    HW210012   9.008   2.632   4.145
69394SOL     OW10013   8.650  10.432   6.269
69394SOL    HW110014   8.672  10.339   6.271
69394SOL    HW210015   8.616  10.447   6.181
69395SOL     OW10016   1.931  10.820   4.110
69395SOL    HW110017   1.997  10.809   4.178
69395SOL    HW210018   1.977  10.859   4.036
69396SOL     OW10019  14.199   9.353   0.250
69396SOL    HW110020  14.223   9.374   0.160
69396SOL    HW210021  14.132   9.417   0.273
69397SOL     OW10022   4.206  11.676   0.975
69397SOL    HW110023   4.196  11.638   0.888
69397SOL    HW210024   4.121  11.717   0.993
69398SOL     OW10025   7.037  11.856   1.338
69398SOL    HW110026   6.989  11.920   1.286
69398SOL    HW210027   7.025  11.885   1.429
69399SOL     OW10028   9.469   3.416   3.028
69399SOL    HW110029   9.469   3.450   2.939
69399SOL    HW210030   9.552   3.446   3.065
69400SOL     OW10031  12.230   6.119   1.648
69400SOL    HW110032  12.146   6.097   1.687
69400SOL    HW210033  12.295   6.076   1.703
69401SOL     OW10034   6.945   0.969   5.600
69401SOL    HW110035   6.858   0.937   5.577
69401SOL    HW210036   6.929   1.045   5.656
69402SOL     OW10037   6.718   2.186   3.884
69402SOL    HW110038   6.814   2.188   3.885
69402SOL    HW210039   6.697   2.093   3.894
69403SOL     OW10040   8.589   5.875   3.262
69403SOL    HW110041   8.679   5.901   3.243
69403SOL    HW210042   8.556   5.942   3.322
69404SOL     OW10043   7.554   0.515   6.837
69404SOL    HW110044   7.628   0.497   6.780
69404SOL    HW210045   7.527   0.429   6.869
69405SOL     OW10046   1.135   5.458   1.469
69405SOL    HW110047   1.174   5.546   1.474
69405SOL    HW210048   1.052   5.466   1.515
69406SOL     OW10049   7.883  13.858   2.021
69406SOL    HW110050   7.803  13.817   2.055
69406SOL    HW210051   7.853  13.934   1.972
69407SOL     OW10052   8.636   8.811   2.899
69407SOL    HW110053   8.601   8.802   2.988
69407SOL    HW210054   8.724   8.847   2.912
69408SOL     OW10055   9.029  13.841   5.638
69408SOL    HW110056   9.100  13.781   5.662
69408SOL    HW210057   9.073  13.923   5.617
69409SOL     OW10058   4.725   8.880   4.142
69409SOL    HW110059   4.749   8.890   4.234
69409SOL    HW210060   4.791   8.929   4.094
69410SOL     OW10061   5.134  10.084   3.846
69410SOL    HW110062   5.138  10.123   3.758
69410SOL    HW210063   5.120   9.991   3.829
69411SOL     OW10064   3.191   3.599   5.730
69411SOL    HW110065   3.277   3.562   5.750
69411SOL    HW210066   3.130   3.528   5.751
69412SOL     OW10067  12.147  12.074   9.472
69412SOL    HW110068  12.169  11.982   9.482
69412SOL    HW210069  12.134  12.105   9.562
69413SOL     OW10070   6.577   0.832   9.680
69413SOL    HW110071   6.490   0.857   9.712
69413SOL    HW210072   6.559   0.768   9.611
69414SOL     OW10073   7.574   3.909   1.985
69414SOL    HW110074   7.612   3.995   2.000
69414SOL    HW210075   7.636   3.864   1.928
69415SOL     OW10076  14.567   9.340  11.071
69415SOL    HW110077  14.581   9.247  11.055
69415SOL    HW210078  14.485   9.361  11.025
69416SOL     OW10079   9.391   9.143   9.948
69416SOL    HW110080   9.431   9.126   9.863
69416SOL    HW210081   9.314   9.196   9.929
69417SOL     OW10082   4.144   2.190   6.969
69417SOL    HW110083   4.176   2.101   6.956
69417SOL    HW210084   4.107   2.215   6.884
69418SOL     OW10085   8.302   5.397  10.006
69418SOL    HW110086   8.361   5.416  10.079
69418SOL    HW210087   8.246   5.474   9.999
69419SOL     OW10088   0.602  10.472   5.169
69419SOL    HW110089   0.614  10.541   5.104
69419SOL    HW210090   0.690  10.440   5.187
69420SOL     OW10091  13.173   4.389  11.825
69420SOL    HW110092  13.094   4.344  11.855
69420SOL    HW210093  13.142   4.473  11.792
69421SOL     OW10094   3.545   5.085   4.700
69421SOL    HW110095   3.624   5.135   4.679
69421SOL    HW210096   3.534   5.025   4.627
69422SOL     OW10097   8.227  13.776   2.206
69422SOL    HW110098   8.157  13.711   2.197
69422SOL    HW210099   8.188  13.858   2.177
69423SOL     OW10100   0.691  14.648   1.510
69423SOL    HW110101   0.700  14.744   1.506
69423SOL    HW210102   0.750  14.622   1.581
69424SOL     OW10103   5.895  11.621   3.935
69424SOL    HW110104   5.810  11.664   3.940
69424SOL    HW210105   5.949  11.679   3.880
69425SOL     OW10106  11.883   9.356   3.719
69425SOL    HW110107  11.796   9.373   3.681
69425SOL    HW210108  11.865   9.329   3.809
69426SOL     OW10109  12.717  13.313   8.076
69426SOL    HW110110  12.683  13.330   8.164
69426SOL    HW210111  12.649  13.260   8.033
69427SOL     OW10112   6.176   1.912  10.286
69427SOL    HW110113   6.210   1.909  10.196
69427SOL    HW210114   6.088   1.874  10.279
69428SOL     OW10115   8.206   8.578  12.760
69428SOL    HW110116   8.213   8.520  12.684
69428SOL    HW210117   8.123   8.553  12.801
69429SOL     OW10118   9.801   2.881  13.432
69429SOL    HW110119   9.752   2.946  13.482
69429SOL    HW210120   9.735   2.815  13.409
69430SOL     OW10121  12.501   2.396   6.500
69430SOL    HW110122  12.433   2.431   6.557
69430SOL    HW210123  12.462   2.318   6.461
69431SOL     OW10124   2.390   3.228  12.849
69431SOL    HW110125   2.452   3.179  12.796
69431SOL    HW210126   2.325   3.260  12.787
69432SOL     OW10127   3.983  10.733  11.414
69432SOL    HW110128   4.075  10.758  11.419
69432SOL    HW210129   3.942  10.802  11.363
69433SOL     OW10130   5.247   4.115   4.709
69433SOL    HW110131   5.280   4.188   4.761
69433SOL    HW210132   5.206   4.156   4.633
69434SOL     OW10133  14.411   2.777  13.939
69434SOL    HW110134  14.475   2.792  14.009
69434SOL    HW210135  14.335   2.830  13.963
69435SOL     OW10136   9.565   1.880   5.250
69435SOL    HW110137   9.620   1.833   5.313
69435SOL    HW210138   9.555   1.820   5.176
69436SOL     OW10139  10.071   2.186  12.754
69436SOL    HW110140  10.101   2.206  12.843
69436SOL    HW210141   9.979   2.162  12.766
69437SOL     OW10142   6.645  14.477   8.966
69437SOL    HW110143   6.554  14.491   8.938
69437SOL    HW210144   6.695  14.541   8.917
69438SOL     OW10145   3.801   4.737  10.109
69438SOL    HW110146   3.778   4.665  10.051
69438SOL    HW210147   3.887   4.713  10.145
69439SOL     OW10148   4.582   1.011   5.790
69439SOL    HW110149   4.670   1.026   5.824
69439SOL    HW210150   4.567   1.084   5.730
69440SOL     OW10151   5.675   9.079   0.125
69440SOL    HW110152   5.744   9.063   0.061
69440SOL    HW210153   5.714   9.141   0.187
69441SOL     OW10154   4.066   3.991   4.619
69441SOL    HW110155   3.972   4.000   4.604
69441SOL    HW210156   4.073   3.932   4.693
69442SOL     OW10157  11.950   7.677   0.201
69442SOL    HW110158  11.879   7.629   0.246
69442SOL    HW210159  12.019   7.684   0.267
69443SOL     OW10160   6.994   4.337  11.784
69443SOL    HW110161   7.081   4.316  11.819
69443SOL    HW210162   6.933   4.298  11.846
69444SOL     OW10163   2.367   3.259   5.336
69444SOL    HW110164   2.326   3.175   5.358
69444SOL    HW210165   2.422   3.239   5.260
69445SOL     OW10166   3.647  13.621   9.506
69445SOL    HW110167   3.703  13.544   9.509
69445SOL    HW210168   3.678  13.677   9.577
69446SOL     OW10169   1.586   7.447   9.212
69446SOL    HW110170   1.586   7.351   9.215
69446SOL    HW210171   1.527   7.469   9.140
69447SOL     OW10172   4.153   6.092  10.822
69447SOL    HW110173   4.067   6.078  10.861
69447SOL    HW210174   4.211   6.032  10.870
69448SOL     OW10175   7.838   1.323  14.832
69448SOL    HW110176   7.851   1.365  14.746
69448SOL    HW210177   7.907   1.257  14.837
69449SOL     OW10178   2.948   2.093   9.327
69449SOL    HW110179   3.006   2.124   9.397
69449SOL    HW210180   2.860   2.105   9.362
69450SOL     OW10181   7.144   3.323   1.144
69450SOL    HW110182   7.236   3.350   1.135
69450SOL    HW210183   7.148   3.237   1.185
69451SOL     OW10184   3.453   4.663   3.785
69451SOL    HW110185   3.517   4.641   3.718
69451SOL    HW210186   3.498   4.646   3.868
69452SOL     OW10187   4.432   0.695  14.419
69452SOL    HW110188   4.358   0.634  14.419
69452SOL    HW210189   4.467   0.690  14.330
69453SOL     OW10190   6.079   6.752   2.507
69453SOL    HW110191   6.033   6.835   2.496
69453SOL    HW210192   6.166   6.776   2.536
69454SOL     OW10193   4.049  14.388   4.672
69454SOL    HW110194   3.997  14.433   4.605
69454SOL    HW210195   4.135  14.377   4.631
69455SOL     OW10196   9.935   1.023  11.037
69455SOL    HW110197   9.929   0.987  10.948
69455SOL    HW210198   9.929   1.118  11.025
69456SOL     OW10199  12.221  11.908   4.162
69456SOL    HW110200  12.236  11.959   4.082
69456SOL    HW210201  12.203  11.974   4.229
69457SOL     OW10202   3.194   7.842  11.840
69457SOL    HW110203   3.186   7.753  11.806
69457SOL    HW210204   3.233   7.892  11.769
69458SOL     OW10205   4.478  13.089  14.303
69458SOL    HW110206   4.563  13.085  14.347
69458SOL    HW210207   4.469  13.002  14.263
69459SOL     OW10208   1.491   8.249   7.791
69459SOL    HW110209   1.560   8.255   7.856
69459SOL    HW210210   1.420   8.202   7.835
69460SOL     OW10211   6.888   4.713   6.526
69460SOL    HW110212   6.908   4.651   6.455
69460SOL    HW210213   6.881   4.659   6.604
69461SOL     OW10214   8.687   9.081   5.122
69461SOL    HW110215   8.748   9.081   5.049
69461SOL    HW210216   8.607   9.120   5.086
69462SOL     OW10217  10.145  10.615   3.051
69462SOL    HW110218  10.066  10.617   3.104
69462SOL    HW210219  10.183  10.703   3.062
69463SOL     OW10220   0.541   0.746   3.054
69463SOL    HW110221   0.518   0.829   3.096
69463SOL    HW210222   0.563   0.687   3.126
69464SOL     OW10223  13.798   9.528   7.476
69464SOL    HW110224  13.818   9.585   7.551
69464SOL    HW210225  13.876   9.474   7.466
69465SOL     OW10226  10.668   1.066   7.013
69465SOL    HW110227  10.672   1.022   6.927
69465SOL    HW210228  10.582   1.043   7.047
69466SOL     OW10229   0.729   8.505  14.355
69466SOL    HW110230   0.764   8.585  14.317
69466SOL    HW210231   0.737   8.439  14.286
69467SOL     OW10232  12.481  12.654   6.410
69467SOL    HW110233  12.554  12.613   6.456
69467SOL    HW210234  12.405  12.636   6.466
69468SOL     OW10235   3.080  10.218  10.518
69468SOL    HW110236   3.092  10.127  10.546
69468SOL    HW210237   3.004  10.248  10.567
69469SOL     OW10238  12.479   5.856   0.906
69469SOL    HW110239  12.530   5.808   0.840
69469SOL    HW210240  12.416   5.791   0.938
69470SOL     OW10241   2.016  14.310   0.460
69470SOL    HW110242   1.940  14.254   0.478
69470SOL    HW210243   2.004  14.336   0.368
69471SOL     OW10244   9.749  12.577   9.700
69471SOL    HW110245   9.781  12.639   9.635
69471SOL    HW210246   9.817  12.510   9.706
69472SOL     OW10247   5.586  14.045  13.676
69472SOL    HW110248   5.633  14.127  13.693
69472SOL    HW210249   5.652  13.986  13.640
69473SOL     OW10250  10.669   7.079   2.701
69473SOL    HW110251  10.682   7.012   2.769
69473SOL    HW210252  10.584   7.058   2.663
69474SOL     OW10253   4.860   8.391   0.040
69474SOL    HW110254   4.914   8.423  14.839
69474SOL    HW210255   4.845   8.469   0.094
69475SOL     OW10256  14.639  10.076  14.822
69475SOL    HW110257  14.594  10.118   0.023
69475SOL    HW210258  14.709  10.137  14.799
69476SOL     OW10259  12.324  10.450   4.595
69476SOL    HW110260  12.298  10.533   4.636
69476SOL    HW210261  12.359  10.398   4.666
69477SOL     OW10262  10.434   4.849   5.737
69477SOL    HW110263  10.400   4.761   5.753
69477SOL    HW210264  10.481   4.841   5.654
69478SOL     OW10265   4.248  12.401   4.352
69478SOL    HW110266   4.173  12.440   4.308
69478SOL    HW210267   4.268  12.322   4.302
69479SOL     OW10268   1.248   9.060   8.343
69479SOL    HW110269   1.260   8.965   8.353
69479SOL    HW210270   1.160   9.076   8.377
69480SOL     OW10271  12.465  12.930  11.959
69480SOL    HW110272  12.404  12.859  11.976
69480SOL    HW210273  12.409  13.008  11.954
69481SOL     OW10274   6.156   0.332   1.318
69481SOL    HW110275   6.136   0.381   1.398
69481SOL    HW210276   6.230   0.276   1.342
69482SOL     OW10277   9.141  14.534  14.536
69482SOL    HW110278   9.106  14.531  14.447
69482SOL    HW210279   9.064  14.523  14.592
69483SOL     OW10280   1.821   9.994   8.123
69483SOL    HW110281   1.770   9.973   8.201
69483SOL    HW210282   1.880  10.063   8.151
69484SOL     OW10283   7.057   7.577   7.255
69484SOL    HW110284   7.107   7.530   7.188
69484SOL    HW210285   6.969   7.541   7.250
69485SOL     OW10286   9.564  12.243  11.435
69485SOL    HW110287   9.610  12.249  11.352
69485SOL    HW210288   9.629  12.210  11.497
69486SOL     OW10289  11.245   6.978   9.934
69486SOL    HW110290  11.208   7.044   9.875
69486SOL    HW210291  11.177   6.964  10.000
69487SOL     OW10292   3.899   7.416   2.080
69487SOL    HW110293   3.962   7.487   2.092
69487SOL    HW210294   3.948   7.336   2.101
69488SOL     OW10295   1.574   7.697  14.652
69488SOL    HW110296   1.533   7.611  14.648
69488SOL    HW210297   1.652   7.685  14.706
69489SOL     OW10298   7.135  11.511   2.418
69489SOL    HW110299   7.179  11.519   2.334
69489SOL    HW210300   7.068  11.579   2.416
69490SOL     OW10301   1.276   0.680   2.354
69490SOL    HW110302   1.358   0.729   2.346
69490SOL    HW210303   1.237   0.710   2.436
69491SOL     OW10304  12.666   4.807  14.481
69491SOL    HW110305  12.576   4.775  14.485
69491SOL    HW210306  12.661   4.896  14.515
69492SOL     OW10307   0.342   9.125   6.740
69492SOL    HW110308   0.273   9.153   6.801
69492SOL    HW210309   0.406   9.196   6.742
69493SOL     OW10310  14.421   6.850   6.044
69493SOL    HW110311  14.502   6.850   5.992
69493SOL    HW210312  14.352   6.870   5.981
69494SOL     OW10313   3.941  10.914   9.240
69494SOL    HW110314   3.936  10.998   9.196
69494SOL    HW210315   3.853  10.876   9.230
69495SOL     OW10316  11.065  10.840  11.146
69495SOL    HW110317  11.100  10.760  11.184
69495SOL    HW210318  11.001  10.811  11.082
69496SOL     OW10319   2.789   2.046  12.632
69496SOL    HW110320   2.819   2.121  12.580
69496SOL    HW210321   2.831   2.058  12.717
69497SOL     OW10322   6.550  13.055   2.102
69497SOL    HW110323   6.535  13.101   2.185
69497SOL    HW210324   6.589  13.121   2.045
69498SOL     OW10325   0.646  12.099  13.671
69498SOL    HW110326   0.602  12.176  13.707
69498SOL    HW210327   0.708  12.072  13.739
69499SOL     OW10328  13.490   8.979   8.350
69499SOL    HW110329  13.483   8.884   8.350
69499SOL    HW210330  13.406   9.010   8.316
69500SOL     OW10331   9.760   1.604  12.461
69500SOL    HW110332   9.796   1.515  12.458
69500SOL    HW210333   9.710   1.607  12.543
69501SOL     OW10334   1.833   0.808   3.113
69501SOL    HW110335   1.928   0.806   3.119
69501SOL    HW210336   1.809   0.722   3.077
69502SOL     OW10337  13.601  12.581  14.631
69502SOL    HW110338  13.540  12.550  14.564
69502SOL    HW210339  13.675  12.617  14.581
69503SOL     OW10340   8.947  12.290   8.967
69503SOL    HW110341   8.883  12.218   8.957
69503SOL    HW210342   8.990  12.273   9.050
69504SOL     OW10343  13.546  12.005   5.148
69504SOL    HW110344  13.571  12.041   5.233
69504SOL    HW210345  13.561  12.076   5.086
69505SOL     OW10346  14.036  13.420  14.608
69505SOL    HW110347  14.069  13.342  14.562
69505SOL    HW210348  13.951  13.436  14.567
69506SOL     OW10349   5.214  11.778   8.791
69506SOL    HW110350   5.231  11.699   8.843
69506SOL    HW210351   5.155  11.830   8.846
69507SOL     OW10352   2.456   1.926  14.715
69507SOL    HW110353   2.406   2.000  14.680
69507SOL    HW210354   2.391   1.861  14.739
69508SOL     OW10355   2.855   1.723  13.251
69508SOL    HW110356   2.895   1.805  13.223
69508SOL    HW210357   2.808   1.691  13.174
69509SOL     OW10358   6.930   1.784  14.592
69509SOL    HW110359   6.926   1.696  14.629
69509SOL    HW210360   6.895   1.841  14.662
69510SOL     OW10361   9.740  10.867   1.653
69510SOL    HW110362   9.805  10.844   1.721
69510SOL    HW210363   9.783  10.936   1.602
69511SOL     OW10364  10.938   1.594  12.537
69511SOL    HW110365  10.955   1.596  12.631
69511SOL    HW210366  10.926   1.686  12.513
69512SOL     OW10367   4.236  13.325   1.842
69512SOL    HW110368   4.270  13.259   1.902
69512SOL    HW210369   4.270  13.408   1.876
69513SOL     OW10370  11.662   8.723  12.081
69513SOL    HW110371  11.656   8.632  12.110
69513SOL    HW210372  11.680   8.773  12.161
69514SOL     OW10373  12.362   5.922   4.984
69514SOL    HW110374  12.348   5.846   5.040
69514SOL    HW210375  12.423   5.892   4.917
69515SOL     OW10376  10.934  10.758  14.477
69515SOL    HW110377  10.943  10.699  14.402
69515SOL    HW210378  10.950  10.845  14.439
69516SOL     OW10379   1.633   8.085   9.403
69516SOL    HW110380   1.594   8.151   9.461
69516SOL    HW210381   1.663   8.016   9.462
69517SOL     OW10382   7.792   4.924   7.637
69517SOL    HW110383   7.722   4.984   7.660
69517SOL    HW210384   7.872   4.965   7.672
69518SOL     OW10385   1.980   7.238   2.074
69518SOL    HW110386   1.990   7.235   1.979
69518SOL    HW210387   1.948   7.326   2.092
69519SOL     OW10388   7.768  10.668  14.609
69519SOL    HW110389   7.729  10.756  14.611
69519SOL    HW210390   7.852  10.678  14.653
69520SOL     OW10391  12.937  11.862  13.438
69520SOL    HW110392  12.873  11.921  13.397
69520SOL    HW210393  12.912  11.775  13.408
69521SOL     OW10394   0.128   5.868   0.212
69521SOL    HW110395   0.137   5.963   0.219
69521SOL    HW210396   0.080   5.843   0.291
69522SOL     OW10397   5.679   0.278   6.004
69522SOL    HW110398   5.715   0.358   6.043
69522SOL    HW210399   5.633   0.234   6.075
69523SOL     OW10400  14.516   0.426   7.950
69523SOL    HW110401  14.604   0.388   7.954
69523SOL    HW210402  14.531   0.520   7.941
69524SOL     OW10403   0.706  11.180  13.158
69524SOL    HW110404   0.637  11.130  13.115
69524SOL    HW210405   0.759  11.115  13.204
69525SOL     OW10406   4.158   0.568  12.169
69525SOL    HW110407   4.177   0.661  12.183
69525SOL    HW210408   4.239   0.532  12.133
69526SOL     OW10409   3.495   8.054  12.864
69526SOL    HW110410   3.577   8.006  12.861
69526SOL    HW210411   3.517   8.138  12.905
69527SOL     OW10412  12.803  14.056   1.544
69527SOL    HW110413  12.733  13.999   1.574
69527SOL    HW210414  12.824  14.025   1.456
69528SOL     OW10415  11.853   1.051   4.443
69528SOL    HW110416  11.906   1.120   4.402
69528SOL    HW210417  11.803   1.096   4.510
69529SOL     OW10418   9.499   4.356  13.016
69529SOL    HW110419   9.555   4.327  13.088
69529SOL    HW210420   9.468   4.443  13.042
69530SOL     OW10421  10.711  10.594  12.496
69530SOL    HW110422  10.629  10.642  12.492
69530SOL    HW210423  10.774  10.650  12.452
69531SOL     OW10424   4.833   6.564  12.730
69531SOL    HW110425   4.788   6.483  12.709
69531SOL    HW210426   4.801   6.627  12.664
69532SOL     OW10427   9.671   5.199   1.454
69532SOL    HW110428   9.591   5.173   1.501
69532SOL    HW210429   9.641   5.213   1.364
69533SOL     OW10430   1.201  13.823   4.417
69533SOL    HW110431   1.293  13.808   4.439
69533SOL    HW210432   1.173  13.743   4.374
69534SOL     OW10433   3.571  10.475   7.726
69534SOL    HW110434   3.543  10.513   7.642
69534SOL    HW210435   3.502  10.413   7.749
69535SOL     OW10436   6.516   7.792  13.660
69535SOL    HW110437   6.519   7.711  13.609
69535SOL    HW210438   6.606   7.825  13.658
69536SOL     OW10439   5.605   4.140   5.389
69536SOL    HW110440   5.627   4.074   5.455
69536SOL    HW210441   5.525   4.181   5.421
69537SOL     OW10442  10.585   3.569   8.132
69537SOL    HW110443  10.625   3.491   8.171
69537SOL    HW210444  10.576   3.630   8.204
69538SOL     OW10445  14.696   2.355  10.000
69538SOL    HW110446  14.653   2.430  10.042
69538SOL    HW210447  14.645   2.279  10.030
69539SOL     OW10448   9.821   8.121   0.939
69539SOL    HW110449   9.769   8.160   1.009
69539SOL    HW210450   9.782   8.035   0.925
69540SOL     OW10451   7.761   0.450  14.711
69540SOL    HW110452   7.744   0.365  14.751
69540SOL    HW210453   7.857   0.459  14.712
69541SOL     OW10454   3.358  13.067   8.094
69541SOL    HW110455   3.420  13.035   8.160
69541SOL    HW210456   3.370  13.162   8.093
69542SOL     OW10457   6.729   8.810  12.192
69542SOL    HW110458   6.634   8.816  12.184
69542SOL    HW210459   6.744   8.737  12.252
69543SOL     OW10460  10.653   9.404   3.214
69543SOL    HW110461  10.730   9.452   3.182
69543SOL    HW210462  10.628   9.348   3.141
69544SOL     OW10463   9.293  13.698   0.921
69544SOL    HW110464   9.360  13.678   0.986
69544SOL    HW210465   9.288  13.794   0.920
69545SOL     OW10466   6.211   3.921   8.128
69545SOL    HW110467   6.221   4.013   8.105
69545SOL    HW210468   6.292   3.899   8.174
69546SOL     OW10469   1.038  12.542   3.540
69546SOL    HW110470   0.959  12.495   3.511
69546SOL    HW210471   1.010  12.633   3.547
69547SOL     OW10472   4.153   6.833   7.786
69547SOL    HW110473   4.243   6.827   7.754
69547SOL    HW210474   4.153   6.782   7.866
69548SOL     OW10475   1.478   6.173  13.600
69548SOL    HW110476   1.399   6.119  13.592
69548SOL    HW210477   1.448   6.263  13.584
69549SOL     OW10478  10.026   3.920   3.033
69549SOL    HW110479   9.969   3.952   2.964
69549SOL    HW210480  10.086   3.859   2.988
69550SOL     OW10481   0.103   7.364   5.099
69550SOL    HW110482   0.160   7.336   5.027
69550SOL    HW210483   0.139   7.449   5.126
69551SOL     OW10484   8.109  10.412  12.519
69551SOL    HW110485   8.090  10.348  12.451
69551SOL    HW210486   8.112  10.496  12.474
69552SOL     OW10487   8.442  11.914  11.573
69552SOL    HW110488   8.503  11.970  11.525
69552SOL    HW210489   8.358  11.929  11.531
69553SOL     OW10490  10.239   7.183  10.986
69553SOL    HW110491  10.324   7.143  10.969
69553SOL    HW210492  10.214   7.150  11.072
69554SOL     OW10493  13.362   6.186  12.262
69554SOL    HW110494  13.307   6.113  12.289
69554SOL    HW210495  13.345   6.195  12.168
69555SOL     OW10496   2.406  11.222  11.351
69555SOL    HW110497   2.311  11.212  11.362
69555SOL    HW210498   2.443  11.176  11.426
69556SOL     OW10499  10.313   1.067   9.581
69556SOL    HW110500  10.232   1.118   9.590
69556SOL    HW210501  10.300   0.991   9.638
69557SOL     OW10502  13.927   4.837  14.442
69557SOL    HW110503  14.014   4.872  14.424
69557SOL    HW210504  13.894   4.888  14.516
69558SOL     OW10505  13.994  10.990   3.372
69558SOL    HW110506  14.083  10.955   3.363
69558SOL    HW210507  13.975  10.982   3.466
69559SOL     OW10508   5.391  10.278   3.171
69559SOL    HW110509   5.381  10.356   3.226
69559SOL    HW210510   5.444  10.307   3.097
69560SOL     OW10511   2.982   8.121   3.682
69560SOL    HW110512   2.901   8.084   3.716
69560SOL    HW210513   2.992   8.080   3.595
69561SOL     OW10514   4.463  14.426   5.828
69561SOL    HW110515   4.503  14.507   5.798
69561SOL    HW210516   4.461  14.370   5.751
69562SOL     OW10517  11.829   3.658  10.755
69562SOL    HW110518  11.916   3.693  10.773
69562SOL    HW210519  11.807   3.607  10.833
69563SOL     OW10520  10.994   6.389   5.656
69563SOL    HW110521  10.937   6.466   5.662
69563SOL    HW210522  10.959   6.338   5.583
69564SOL     OW10523  10.882   0.080   7.130
69564SOL    HW110524  10.862   0.002   7.182
69564SOL    HW210525  10.954   0.122   7.176
69565SOL     OW10526  11.184  12.759  13.378
69565SOL    HW110527  11.268  12.738  13.339
69565SOL    HW210528  11.127  12.686  13.354
69566SOL     OW10529   9.554  13.892   6.954
69566SOL    HW110530   9.634  13.944   6.949
69566SOL    HW210531   9.522  13.887   6.863
69567SOL     OW10532   8.142   3.418   4.011
69567SOL    HW110533   8.115   3.351   4.073
69567SOL    HW210534   8.111   3.500   4.049
69568SOL     OW10535  14.242   4.597   8.244
69568SOL    HW110536  14.187   4.536   8.293
69568SOL    HW210537  14.183   4.670   8.222
69569SOL     OW10538   6.205   4.503   4.007
69569SOL    HW110539   6.290   4.477   3.972
69569SOL    HW210540   6.146   4.433   3.981
69570SOL     OW10541   0.887  11.560   6.938
69570SOL    HW110542   0.890  11.533   6.847
69570SOL    HW210543   0.794  11.562   6.960
69571SOL     OW10544  12.852   7.502   8.582
69571SOL    HW110545  12.868   7.415   8.547
69571SOL    HW210546  12.757   7.511   8.581
69572SOL     OW10547  10.458  14.748  11.140
69572SOL    HW110548  10.493  14.778  11.223
69572SOL    HW210549  10.412  14.666  11.161
69573SOL     OW10550   8.812   2.664   7.243
69573SOL    HW110551   8.759   2.725   7.295
69573SOL    HW210552   8.843   2.716   7.169
69574SOL     OW10553   8.278   5.114  10.032
69574SOL    HW110554   8.251   5.196   9.990
69574SOL    HW210555   8.367   5.131  10.062
69575SOL     OW10556   2.141   2.820   2.828
69575SOL    HW110557   2.077   2.791   2.893
69575SOL    HW210558   2.108   2.786   2.745
69576SOL     OW10559   5.204   6.986   8.101
69576SOL    HW110560   5.212   6.945   8.015
69576SOL    HW210561   5.131   7.048   8.092
69577SOL     OW10562   7.829   1.254  14.317
69577SOL    HW110563   7.740   1.286  14.330
69577SOL    HW210564   7.819   1.161  14.297
69578SOL     OW10565   3.763   1.104   3.868
69578SOL    HW110566   3.749   1.070   3.956
69578SOL    HW210567   3.681   1.088   3.822
69579SOL     OW10568   8.468   8.143  11.193
69579SOL    HW110569   8.523   8.080  11.239
69579SOL    HW210570   8.387   8.146  11.244
69580SOL     OW10571  11.053   0.621   0.028
69580SOL    HW110572  10.961   0.641   0.045
69580SOL    HW210573  11.102   0.683   0.083
69581SOL     OW10574  13.475   5.656  10.298
69581SOL    HW110575  13.403   5.659  10.235
69581SOL    HW210576  13.521   5.574  10.278
69582SOL     OW10577  14.293   4.142   7.957
69582SOL    HW110578  14.218   4.133   8.015
69582SOL    HW210579  14.275   4.081   7.885
69583SOL     OW10580  13.648   7.607  10.210
69583SOL    HW110581  13.587   7.572  10.145
69583SOL    HW210582  13.716   7.650  10.158
69584SOL     OW10583   4.119  14.561  14.406
69584SOL    HW110584   4.112  14.628  14.474
69584SOL    HW210585   4.075  14.484  14.444
69585SOL     OW10586  10.132   7.134   0.817
69585SOL    HW110587  10.053   7.082   0.808
69585SOL    HW210588  10.156   7.156   0.727
69586SOL     OW10589   3.783   8.845  12.583
69586SOL    HW110590   3.833   8.764  12.569
69586SOL    HW210591   3.725   8.824  12.657
69587SOL     OW10592   1.711  11.642   1.822
69587SOL    HW110593   1.665  11.687   1.751
69587SOL    HW210594   1.710  11.550   1.797
69588SOL     OW10595   6.454   2.564   5.810
69588SOL    HW110596   6.378   2.608   5.772
69588SOL    HW210597   6.488   2.626   5.875
69589SOL     OW10598   9.536   8.554   5.915
69589SOL    HW110599   9.511   8.633   5.963
69589SOL    HW210600   9.609   8.518   5.966
69590SOL     OW10601   5.941   1.867  11.049
69590SOL    HW110602   6.019   1.848  11.101
69590SOL    HW210603   5.885   1.920  11.106
69591SOL     OW10604  10.949   9.143  11.235
69591SOL    HW110605  10.888   9.129  11.163
69591SOL    HW210606  11.035   9.144  11.194
69592SOL     OW10607   4.128   6.791   4.365
69592SOL    HW110608   4.151   6.794   4.457
69592SOL    HW210609   4.124   6.882   4.338
69593SOL     OW10610   7.784  10.856   7.158
69593SOL    HW110611   7.766  10.763   7.145
69593SOL    HW210612   7.866  10.870   7.111
69594SOL     OW10613  12.788   4.238   4.183
69594SOL    HW110614  12.704   4.205   4.214
69594SOL    HW210615  12.852   4.172   4.211
69595SOL     OW10616  12.599   3.349   2.898
69595SOL    HW110617  12.622   3.287   2.829
69595SOL    HW210618  12.665   3.418   2.892
69596SOL     OW10619   6.650   0.307  13.761
69596SOL    HW110620   6.704   0.327  13.838
69596SOL    HW210621   6.684   0.224  13.728
69597SOL     OW10622   6.812   5.242  10.472
69597SOL    HW110623   6.843   5.327  10.440
69597SOL    HW210624   6.881   5.181  10.445
69598SOL     OW10625   2.615   7.411  14.814
69598SOL    HW110626   2.649   7.400   0.031
69598SOL    HW210627   2.591   7.503  14.809
69599SOL     OW10628   3.654  12.553   8.965
69599SOL    HW110629   3.593  12.603   8.910
69599SOL    HW210630   3.726  12.614   8.982
69600SOL     OW10631  14.310  13.494   6.066
69600SOL    HW110632  14.318  13.564   6.001
69600SOL    HW210633  14.273  13.420   6.017
69601SOL     OW10634   6.834   3.452   9.410
69601SOL    HW110635   6.810   3.435   9.501
69601SOL    HW210636   6.929   3.465   9.412
69602SOL     OW10637   1.966   3.298  12.042
69602SOL    HW110638   1.968   3.388  12.009
69602SOL    HW210639   1.901   3.299  12.112
69603SOL     OW10640  12.678  12.133   6.235
69603SOL    HW110641  12.655  12.217   6.275
69603SOL    HW210642  12.613  12.071   6.268
69604SOL     OW10643   6.175   8.690  12.755
69604SOL    HW110644   6.102   8.672  12.696
69604SOL    HW210645   6.252   8.692  12.699
69605SOL     OW10646   3.955   1.326  12.849
69605SOL    HW110647   3.965   1.305  12.942
69605SOL    HW210648   4.021   1.393  12.832
69606SOL     OW10649  12.888   2.455   0.259
69606SOL    HW110650  12.875   2.549   0.255
69606SOL    HW210651  12.938   2.441   0.339
69607SOL     OW10652   5.689   8.414   8.891
69607SOL    HW110653   5.716   8.342   8.948
69607SOL    HW210654   5.603   8.388   8.858
69608SOL     OW10655   1.803  14.325  11.214
69608SOL    HW110656   1.796  14.365  11.300
69608SOL    HW210657   1.830  14.396  11.156
69609SOL     OW10658   6.737  11.883   7.614
69609SOL    HW110659   6.716  11.826   7.688
69609SOL    HW210660   6.675  11.858   7.545
69610SOL     OW10661   1.076  13.249  12.885
69610SOL    HW110662   1.015  13.186  12.925
69610SOL    HW210663   1.163  13.217  12.909
69611SOL     OW10664   2.786  12.225  14.674
69611SOL    HW110665   2.795  12.245  14.580
69611SOL    HW210666   2.835  12.295  14.718
69612SOL     OW10667   6.657   5.209   7.042
69612SOL    HW110668   6.626   5.253   7.121
69612SOL    HW210669   6.685   5.123   7.072
69613SOL     OW10670   1.302   1.235   5.635
69613SOL    HW110671   1.363   1.276   5.573
69613SOL    HW210672   1.215   1.257   5.601
69614SOL     OW10673   4.208   1.674   9.023
69614SOL    HW110674   4.219   1.752   9.077
69614SOL    HW210675   4.127   1.690   8.974
69615SOL     OW10676   7.266  10.406  11.380
69615SOL    HW110677   7.321  10.437  11.309
69615SOL    HW210678   7.304  10.444  11.459
69616SOL     OW10679   1.988   0.943   7.889
69616SOL    HW110680   1.975   0.871   7.827
69616SOL    HW210681   1.949   1.019   7.846
69617SOL     OW10682  13.155   6.001   0.330
69617SOL    HW110683  13.197   6.022   0.414
69617SOL    HW210684  13.075   5.954   0.354
69618SOL     OW10685   8.802   9.296   0.954
69618SOL    HW110686   8.833   9.341   1.033
69618SOL    HW210687   8.877   9.296   0.895
69619SOL     OW10688  10.122   9.953   9.775
69619SOL    HW110689  10.196   9.938   9.834
69619SOL    HW210690  10.159   9.943   9.687
69620SOL     OW10691   9.462   8.012   1.742
69620SOL    HW110692   9.484   8.057   1.823
69620SOL    HW210693   9.519   7.935   1.741
69621SOL     OW10694   2.587   6.664   7.197
69621SOL    HW110695   2.529   6.589   7.210
69621SOL    HW210696   2.539   6.722   7.139
69622SOL     OW10697   4.891   1.946   3.551
69622SOL    HW110698   4.814   1.903   3.590
69622SOL    HW210699   4.960   1.881   3.557
69623SOL     OW10700   8.257   5.194   2.921
69623SOL    HW110701   8.285   5.261   2.859
69623SOL    HW210702   8.187   5.235   2.972
69624SOL     OW10703  13.414  14.148   8.328
69624SOL    HW110704  13.325  14.169   8.301
69624SOL    HW210705  13.469  14.178   8.255
69625SOL     OW10706  12.565   3.884   9.554
69625SOL    HW110707  12.574   3.960   9.611
69625SOL    HW210708  12.494   3.833   9.592
69626SOL     OW10709  11.217   6.482   6.474
69626SOL    HW110710  11.143   6.475   6.413
69626SOL    HW210711  11.212   6.571   6.508
69627SOL     OW10712  14.854  12.763   3.903
69627SOL    HW110713   0.023  12.741   3.987
69627SOL    HW210714  14.821  12.679   3.870
69628SOL     OW10715   0.186   0.347   9.380
69628SOL    HW110716   0.117   0.370   9.318
69628SOL    HW210717   0.190   0.423   9.439
69629SOL     OW10718  14.588   6.420   0.135
69629SOL    HW110719  14.634   6.348   0.092
69629SOL    HW210720  14.601   6.495   0.077
69630SOL     OW10721   6.490  13.338   7.496
69630SOL    HW110722   6.519  13.249   7.480
69630SOL    HW210723   6.441  13.334   7.579
69631SOL     OW10724   7.609   6.365   9.530
69631SOL    HW110725   7.614   6.459   9.517
69631SOL    HW210726   7.645   6.350   9.617
69632SOL     OW10727   2.748   1.100  10.725
69632SOL    HW110728   2.836   1.113  10.760
69632SOL    HW210729   2.720   1.017  10.762
69633SOL     OW10730  14.200  11.678  12.928
69633SOL    HW110731  14.116  11.706  12.964
69633SOL    HW210732  14.233  11.755  12.882
69634SOL     OW10733  11.769  10.124  13.194
69634SOL    HW110734  11.712  10.106  13.269
69634SOL    HW210735  11.717  10.181  13.138
69635SOL     OW10736   0.999   4.149   8.350
69635SOL    HW110737   1.001   4.236   8.390
69635SOL    HW210738   0.994   4.089   8.424
69636SOL     OW10739  14.055   4.872   7.533
69636SOL    HW110740  14.058   4.776   7.537
69636SOL    HW210741  14.145   4.899   7.555
69637SOL     OW10742   2.940  11.597   5.313
69637SOL    HW110743   2.959  11.586   5.406
69637SOL    HW210744   2.853  11.559   5.301
69638SOL     OW10745  12.139   1.121  12.497
69638SOL    HW110746  12.168   1.123  12.589
69638SOL    HW210747  12.071   1.054  12.496
69639SOL     OW10748  12.931   8.026   5.513
69639SOL    HW110749  12.898   7.945   5.474
69639SOL    HW210750  12.939   8.006   5.606
69640SOL     OW10751  14.592   4.576   9.026
69640SOL    HW110752  14.642   4.596   8.947
69640SOL    HW210753  14.550   4.658   9.050
69641SOL     OW10754   2.485   2.133   2.033
69641SOL    HW110755   2.522   2.154   1.947
69641SOL    HW210756   2.453   2.216   2.067
69642SOL     OW10757   7.004   1.190   7.563
69642SOL    HW110758   7.026   1.194   7.470
69642SOL    HW210759   6.911   1.168   7.565
69643SOL     OW10760   9.377   0.574   3.550
69643SOL    HW110761   9.436   0.636   3.508
69643SOL    HW210762   9.378   0.498   3.492
69644SOL     OW10763   4.250  14.234  12.621
69644SOL    HW110764   4.337  14.255  12.653
69644SOL    HW210765   4.220  14.163  12.678
69645SOL     OW10766   3.011   1.673   9.265
69645SOL    HW110767   3.089   1.718   9.298
69645SOL    HW210768   3.041   1.586   9.241
69646SOL     OW10769  12.664  11.992   5.922
69646SOL    HW110770  12.594  12.054   5.940
69646SOL    HW210771  12.728  12.005   5.992
69647SOL     OW10772  12.612   1.190  13.057
69647SOL    HW110773  12.643   1.218  13.144
69647SOL    HW210774  12.646   1.257  12.998
69648SOL     OW10775   2.271  12.561   7.489
69648SOL    HW110776   2.358  12.592   7.465
69648SOL    HW210777   2.236  12.627   7.548
69649SOL     OW10778  13.545   4.988   8.172
69649SOL    HW110779  13.581   5.001   8.260
69649SOL    HW210780  13.512   4.898   8.173
69650SOL     OW10781   6.547   4.329   1.643
69650SOL    HW110782   6.585   4.416   1.650
69650SOL    HW210783   6.562   4.289   1.728
69651SOL     OW10784   8.549   9.614   5.514
69651SOL    HW110785   8.543   9.570   5.429
69651SOL    HW210786   8.621   9.568   5.559
69652SOL     OW10787  10.380  14.585   6.565
69652SOL    HW110788  10.433  14.639   6.624
69652SOL    HW210789  10.375  14.636   6.484
69653SOL     OW10790   7.468   2.036   9.321
69653SOL    HW110791   7.427   1.950   9.315
69653SOL    HW210792   7.493   2.058   9.232
69654SOL     OW10793  10.785   4.413   8.526
69654SOL    HW110794  10.772   4.319   8.535
69654SOL    HW210795  10.880   4.423   8.514
69655SOL     OW10796  11.120   0.796   3.225
69655SOL    HW110797  11.207   0.816   3.258
69655SOL    HW210798  11.134   0.765   3.136
69656SOL     OW10799   5.265   3.212   7.788
69656SOL    HW110800   5.267   3.274   7.715
69656SOL    HW210801   5.219   3.259   7.858
69657SOL     OW10802   3.931   9.580   1.602
69657SOL    HW110803   3.848   9.535   1.587
69657SOL    HW210804   3.929   9.655   1.543
69658SOL     OW10805   7.936  13.750   6.030
69658SOL    HW110806   7.861  13.723   5.977
69658SOL    HW210807   7.899  13.810   6.095
69659SOL     OW10808   2.021   8.418  13.171
69659SOL    HW110809   1.938   8.376  13.149
69659SOL    HW210810   2.087   8.372  13.119
69660SOL     OW10811   1.870   4.230  11.244
69660SOL    HW110812   1.819   4.203  11.321
69660SOL    HW210813   1.848   4.322  11.231
69661SOL     OW10814  14.629   5.859   2.910
69661SOL    HW110815  14.548   5.908   2.894
69661SOL    HW210816  14.663   5.839   2.822
69662SOL     OW10817   6.337   1.692  10.897
69662SOL    HW110818   6.367   1.696  10.988
69662SOL    HW210819   6.267   1.756  10.892
69663SOL     OW10820   1.039   9.889   1.300
69663SOL    HW110821   1.124   9.883   1.256
69663SOL    HW210822   1.031   9.981   1.324
69664SOL     OW10823  12.642   4.936  10.918
69664SOL    HW110824  12.601   5.022  10.926
69664SOL    HW210825  12.609   4.902  10.834
69665SOL     OW10826   4.711   3.528  12.110
69665SOL    HW110827   4.719   3.613  12.068
69665SOL    HW210828   4.775   3.473  12.066
69666SOL     OW10829   1.014  13.575  14.243
69666SOL    HW110830   1.108  13.565  14.232
69666SOL    HW210831   0.985  13.623  14.166
69667SOL     OW10832   4.728  11.213  13.859
69667SOL    HW110833   4.812  11.200  13.815
69667SOL    HW210834   4.681  11.131  13.844
69668SOL     OW10835   2.774   0.203  14.725
69668SOL    HW110836   2.825   0.134  14.681
69668SOL    HW210837   2.839   0.265  14.757
69669SOL     OW10838   2.169   6.759   0.448
69669SOL    HW110839   2.211   6.844   0.458
69669SOL    HW210840   2.146   6.733   0.537
69670SOL     OW10841  13.618   8.662  13.346
69670SOL    HW110842  13.589   8.746  13.312
69670SOL    HW210843  13.664   8.683  13.427
69671SOL     OW10844   7.941   5.996  12.773
69671SOL    HW110845   7.902   5.970  12.690
69671SOL    HW210846   7.939   6.092  12.771
69672SOL     OW10847   9.085   7.021  14.614
69672SOL    HW110848   9.016   6.961  14.588
69672SOL    HW210849   9.060   7.050  14.702
69673SOL     OW10850   8.743  11.845   9.357
69673SOL    HW110851   8.659  11.822   9.395
69673SOL    HW210852   8.724  11.861   9.264
69674SOL     OW10853   4.075   5.808   0.882
69674SOL    HW110854   4.054   5.722   0.919
69674SOL    HW210855   4.014   5.818   0.809
69675SOL     OW10856  11.626   0.509   9.110
69675SOL    HW110857  11.558   0.442   9.122
69675SOL    HW210858  11.603   0.578   9.173
69676SOL     OW10859  14.045  12.668   4.272
69676SOL    HW110860  13.973  12.679   4.210
69676SOL    HW210861  14.037  12.578   4.303
69677SOL     OW10862   7.154   5.123   6.930
69677SOL    HW110863   7.126   5.196   6.985
69677SOL    HW210864   7.119   5.045   6.974
69678SOL     OW10865   6.551  13.551  11.916
69678SOL    HW110866   6.577  13.597  11.996
69678SOL    HW210867   6.568  13.615  11.846
69679SOL     OW10868   9.939  14.541   7.455
69679SOL    HW110869  10.023  14.520   7.496
69679SOL    HW210870   9.897  14.456   7.441
69680SOL     OW10871   2.280   8.138   0.530
69680SOL    HW110872   2.279   8.044   0.548
69680SOL    HW210873   2.359   8.170   0.574
69681SOL     OW10874   6.324  11.873   5.486
69681SOL    HW110875   6.272  11.796   5.463
69681SOL    HW210876   6.412  11.853   5.457
69682SOL     OW10877  11.476   1.708   3.057
69682SOL    HW110878  11.455   1.637   3.118
69682SOL    HW210879  11.513   1.664   2.980
69683SOL     OW10880   1.250  14.608  10.261
69683SOL    HW110881   1.224  14.592  10.170
69683SOL    HW210882   1.232  14.701  10.274
69684SOL     OW10883  10.688   7.613  10.185
69684SOL    HW110884  10.774   7.627  10.147
69684SOL    HW210885  10.706   7.578  10.273
69685SOL     OW10886  10.502   6.620   3.683
69685SOL    HW110887  10.573   6.558   3.702
69685SOL    HW210888  10.543   6.689   3.630
69686SOL     OW10889   5.201  12.694   9.501
69686SOL    HW110890   5.222  12.749   9.576
69686SOL    HW210891   5.106  12.683   9.504
69687SOL     OW10892   1.636  12.288   1.973
69687SOL    HW110893   1.586  12.370   1.971
69687SOL    HW210894   1.723  12.313   1.939
69688SOL     OW10895   2.072   2.799  14.705
69688SOL    HW110896   2.121   2.752  14.772
69688SOL    HW210897   1.981   2.768  14.715
69689SOL     OW10898  11.855   5.520  10.776
69689SOL    HW110899  11.790   5.450  10.766
69689SOL    HW210900  11.936   5.482  10.741
69690SOL     OW10901   1.300   4.175   0.851
69690SOL    HW110902   1.209   4.152   0.871
69690SOL    HW210903   1.316   4.253   0.905
69691SOL     OW10904   8.639  14.288   2.603
69691SOL    HW110905   8.613  14.380   2.611
69691SOL    HW210906   8.673  14.281   2.514
69692SOL     OW10907   0.601   7.452   9.812
69692SOL    HW110908   0.680   7.502   9.795
69692SOL    HW210909   0.594   7.390   9.739
69693SOL     OW10910   0.130  10.203   0.375
69693SOL    HW110911   0.220  10.207   0.344
69693SOL    HW210912   0.107  10.294   0.395
69694SOL     OW10913   5.835   8.264   2.084
69694SOL    HW110914   5.778   8.338   2.102
69694SOL    HW210915   5.906   8.300   2.030
69695SOL     OW10916   0.595   9.787   4.628
69695SOL    HW110917   0.626   9.725   4.561
69695SOL    HW210918   0.540   9.848   4.580
69696SOL     OW10919   2.181   7.332   8.000
69696SOL    HW110920   2.186   7.402   8.065
69696SOL    HW210921   2.260   7.281   8.013
69697SOL     OW10922   1.097   1.397  12.341
69697SOL    HW110923   1.112   1.302  12.339
69697SOL    HW210924   1.071   1.420  12.252
69698SOL     OW10925   7.378   0.776   1.600
69698SOL    HW110926   7.339   0.841   1.659
69698SOL    HW210927   7.452   0.821   1.560
69699SOL     OW10928   5.147   4.611   2.271
69699SOL    HW110929   5.233   4.573   2.249
69699SOL    HW210930   5.168   4.684   2.329
69700SOL     OW10931   1.802   7.726   9.895
69700SOL    HW110932   1.783   7.813   9.860
69700SOL    HW210933   1.751   7.720   9.976
69701SOL     OW10934   4.628   7.878   8.136
69701SOL    HW110935   4.585   7.901   8.218
69701SOL    HW210936   4.559   7.844   8.080
69702SOL     OW10937   3.109  11.842   3.850
69702SOL    HW110938   3.167  11.893   3.794
69702SOL    HW210939   3.053  11.906   3.894
69703SOL     OW10940  10.174  14.627   6.203
69703SOL    HW110941  10.196  14.678   6.280
69703SOL    HW210942  10.181  14.536   6.231
69704SOL     OW10943   4.666   1.849   2.093
69704SOL    HW110944   4.747   1.835   2.043
69704SOL    HW210945   4.673   1.789   2.167
69705SOL     OW10946  13.656   8.789  14.707
69705SOL    HW110947  13.663   8.844  14.629
69705SOL    HW210948  13.733   8.813  14.760
69706SOL     OW10949  14.862  13.399   1.536
69706SOL    HW110950   0.040  13.367   1.611
69706SOL    HW210951   0.022  13.488   1.521
69707SOL     OW10952   4.478   9.931  12.720
69707SOL    HW110953   4.476   9.957  12.812
69707SOL    HW210954   4.387   9.912  12.698
69708SOL     OW10955   1.124   8.971   0.298
69708SOL    HW110956   1.137   8.910   0.370
69708SOL    HW210957   1.067   9.039   0.334
69709SOL     OW10958   4.886   2.129   2.725
69709SOL    HW110959   4.820   2.153   2.790
69709SOL    HW210960   4.886   2.201   2.662
69710SOL     OW10961   3.313   7.675  12.594
69710SOL    HW110962   3.294   7.768  12.601
69710SOL    HW210963   3.408   7.671  12.580
69711SOL     OW10964  11.757   0.320   1.738
69711SOL    HW110965  11.715   0.262   1.801
69711SOL    HW210966  11.752   0.407   1.778
69712SOL     OW10967  10.937  13.911  12.565
69712SOL    HW110968  10.883  13.988  12.546
69712SOL    HW210969  10.909  13.846  12.501
69713SOL     OW10970  10.356   0.387   1.925
69713SOL    HW110971  10.261   0.388   1.937
69713SOL    HW210972  10.372   0.446   1.852
69714SOL     OW10973   8.789   8.798   9.770
69714SOL    HW110974   8.716   8.758   9.818
69714SOL    HW210975   8.868   8.763   9.811
69715SOL     OW10976   3.055   4.678   6.028
69715SOL    HW110977   3.115   4.639   5.964
69715SOL    HW210978   3.026   4.760   5.986
69716SOL     OW10979   9.876  10.322  10.370
69716SOL    HW110980   9.866  10.338  10.276
69716SOL    HW210981   9.914  10.403  10.405
69717SOL     OW10982   6.253   7.162   4.775
69717SOL    HW110983   6.291   7.243   4.807
69717SOL    HW210984   6.159   7.172   4.788
69718SOL     OW10985  14.574   4.466  14.017
69718SOL    HW110986  14.617   4.550  14.031
69718SOL    HW210987  14.481   4.488  14.011
69719SOL     OW10988  11.875   4.572   9.451
69719SOL    HW110989  11.801   4.588   9.510
69719SOL    HW210990  11.875   4.647   9.392
69720SOL     OW10991   8.977   4.777   5.680
69720SOL    HW110992   8.946   4.847   5.738
69720SOL    HW210993   8.978   4.699   5.736
69721SOL     OW10994   0.563   3.682   2.051
69721SOL    HW110995   0.590   3.768   2.019
69721SOL    HW210996   0.578   3.623   1.977
69722SOL     OW10997  11.508  14.600   3.710
69722SOL    HW110998  11.485  14.692   3.719
69722SOL    HW210999  11.595  14.593   3.751
69723SOL     OW11000   1.317   8.378   6.782
69723SOL    HW111001   1.300   8.290   6.749
69723SOL    HW211002   1.403   8.401   6.748
69724SOL     OW11003   6.363  10.140   1.070
69724SOL    HW111004   6.378  10.067   1.011
69724SOL    HW211005   6.272  10.131   1.098
69725SOL     OW11006   1.456   9.791   3.863
69725SOL    HW111007   1.517   9.864   3.867
69725SOL    HW211008   1.375   9.825   3.902
69726SOL     OW11009   1.536   2.022   5.438
69726SOL    HW111010   1.598   1.980   5.498
69726SOL    HW211011   1.566   1.997   5.351
69727SOL     OW11012   2.607   0.985   7.281
69727SOL    HW111013   2.651   0.921   7.225
69727SOL    HW211014   2.569   1.048   7.219
69728SOL     OW11015   7.196   9.930   1.543
69728SOL    HW111016   7.275   9.879   1.557
69728SOL    HW211017   7.207   9.967   1.455
69729SOL     OW11018  14.144   8.155   0.648
69729SOL    HW111019  14.065   8.207   0.640
69729SOL    HW211020  14.210   8.202   0.597
69730SOL     OW11021   5.071  14.127   0.121
69730SOL    HW111022   5.134  14.143   0.191
69730SOL    HW211023   4.999  14.187   0.139
69731SOL     OW11024   2.573  14.541   5.534
69731SOL    HW111025   2.651  14.582   5.497
69731SOL    HW211026   2.506  14.551   5.466
69732SOL     OW11027   1.806  12.376  12.195
69732SOL    HW111028   1.880  12.410  12.143
69732SOL    HW211029   1.812  12.281  12.185
69733SOL     OW11030   5.292   4.760  11.637
69733SOL    HW111031   5.348   4.736  11.712
69733SOL    HW211032   5.210   4.713  11.653
69734SOL     OW11033  11.496  12.379   4.138
69734SOL    HW111034  11.510  12.344   4.050
69734SOL    HW211035  11.580  12.414   4.164
69735SOL     OW11036  11.185   0.555   0.526
69735SOL    HW111037  11.264   0.549   0.579
69735SOL    HW211038  11.120   0.595   0.585
69736SOL     OW11039   3.500   9.288   4.205
69736SOL    HW111040   3.407   9.306   4.215
69736SOL    HW211041   3.538   9.372   4.178
69737SOL     OW11042   4.512   0.494   5.235
69737SOL    HW111043   4.479   0.564   5.291
69737SOL    HW211044   4.595   0.468   5.275
69738SOL     OW11045   1.148  10.695   4.967
69738SOL    HW111046   1.231  10.742   4.975
69738SOL    HW211047   1.090  10.738   5.030
69739SOL     OW11048  13.561   6.939  12.460
69739SOL    HW111049  13.517   7.006  12.512
69739SOL    HW211050  13.593   6.985  12.383
69740SOL     OW11051   3.984   5.265   5.485
69740SOL    HW111052   3.982   5.359   5.502
69740SOL    HW211053   3.894   5.242   5.463
69741SOL     OW11054   4.926   0.599   8.786
69741SOL    HW111055   4.984   0.558   8.850
69741SOL    HW211056   4.847   0.621   8.835
69742SOL     OW11057  13.989  11.737   1.932
69742SOL    HW111058  14.022  11.649   1.915
69742SOL    HW211059  13.976  11.775   1.845
69743SOL     OW11060  11.947   4.869   0.489
69743SOL    HW111061  11.870   4.817   0.465
69743SOL    HW211062  11.957   4.856   0.583
69744SOL     OW11063  11.140   6.670   2.635
69744SOL    HW111064  11.051   6.681   2.603
69744SOL    HW211065  11.180   6.757   2.626
69745SOL     OW11066   4.432   4.386  12.827
69745SOL    HW111067   4.373   4.314  12.846
69745SOL    HW211068   4.375   4.458  12.802
69746SOL     OW11069   4.333   1.057   3.307
69746SOL    HW111070   4.349   1.002   3.383
69746SOL    HW211071   4.350   0.999   3.232
69747SOL     OW11072   1.290   7.219   7.623
69747SOL    HW111073   1.232   7.207   7.699
69747SOL    HW211074   1.258   7.298   7.581
69748SOL     OW11075   8.661   6.613   4.629
69748SOL    HW111076   8.576   6.632   4.589
69748SOL    HW211077   8.713   6.692   4.612
69749SOL     OW11078   8.404  11.789   8.067
69749SOL    HW111079   8.330  11.739   8.034
69749SOL    HW211080   8.409  11.764   8.160
69750SOL     OW11081   3.324  10.895   2.769
69750SOL    HW111082   3.412  10.907   2.733
69750SOL    HW211083   3.307  10.977   2.816
69751SOL     OW11084   4.691   4.689   7.931
69751SOL    HW111085   4.729   4.608   7.897
69751SOL    HW211086   4.728   4.697   8.020
69752SOL     OW11087   9.300   3.140   2.032
69752SOL    HW111088   9.297   3.214   1.971
69752SOL    HW211089   9.373   3.161   2.091
69753SOL     OW11090   6.344   8.812   7.167
69753SOL    HW111091   6.383   8.827   7.254
69753SOL    HW211092   6.393   8.737   7.132
69754SOL     OW11093  14.617   2.171  11.663
69754SOL    HW111094  14.576   2.088  11.640
69754SOL    HW211095  14.578   2.194  11.748
69755SOL     OW11096  14.554   8.741   7.547
69755SOL    HW111097  14.461   8.715   7.548
69755SOL    HW211098  14.600   8.664   7.580
69756SOL     OW11099   1.707   3.824   3.834
69756SOL    HW111100   1.799   3.800   3.826
69756SOL    HW211101   1.709   3.920   3.843
69757SOL     OW11102   0.050   8.564  11.806
69757SOL    HW111103   0.043   8.497  11.875
69757SOL    HW211104  14.855   8.628  11.828
69758SOL     OW11105   1.642   7.978   2.039
69758SOL    HW111106   1.718   7.951   2.091
69758SOL    HW211107   1.650   8.073   2.032
69759SOL     OW11108  12.436   2.630   2.119
69759SOL    HW111109  12.388   2.710   2.096
69759SOL    HW211110  12.433   2.627   2.215
69760SOL     OW11111  11.363   3.727  14.313
69760SOL    HW111112  11.270   3.731  14.294
69760SOL    HW211113  11.392   3.819  14.310
69761SOL     OW11114   7.527  11.577   8.272
69761SOL    HW111115   7.443  11.596   8.313
69761SOL    HW211116   7.571  11.519   8.334
69762SOL     OW11117   9.262   1.750  13.259
69762SOL    HW111118   9.308   1.726  13.340
69762SOL    HW211119   9.295   1.837  13.237
69763SOL     OW11120   7.516   8.122  11.232
69763SOL    HW111121   7.531   8.145  11.323
69763SOL    HW211122   7.586   8.167  11.184
69764SOL     OW11123   0.656   8.244   3.766
69764SOL    HW111124   0.665   8.152   3.742
69764SOL    HW211125   0.721   8.257   3.835
69765SOL     OW11126   3.473   7.819   7.662
69765SOL    HW111127   3.525   7.767   7.600
69765SOL    HW211128   3.531   7.830   7.738
69766SOL     OW11129   1.483   6.074   8.655
69766SOL    HW111130   1.476   6.015   8.730
69766SOL    HW211131   1.573   6.062   8.624
69767SOL     OW11132   1.780   2.119   0.799
69767SOL    HW111133   1.717   2.134   0.729
69767SOL    HW211134   1.803   2.207   0.830
69768SOL     OW11135   1.772   2.651   2.445
69768SOL    HW111136   1.684   2.683   2.425
69768SOL    HW211137   1.801   2.609   2.364
69769SOL     OW11138  10.149  12.450   6.728
69769SOL    HW111139  10.168  12.544   6.724
69769SOL    HW211140  10.232  12.409   6.752
69770SOL     OW11141  10.927  13.552   5.153
69770SOL    HW111142  10.837  13.565   5.123
69770SOL    HW211143  10.981  13.603   5.092
69771SOL     OW11144  11.223   0.240   7.679
69771SOL    HW111145  11.166   0.188   7.735
69771SOL    HW211146  11.185   0.232   7.591
69772SOL     OW11147  13.060   7.952   4.057
69772SOL    HW111148  13.155   7.958   4.068
69772SOL    HW211149  13.034   8.040   4.030
69773SOL     OW11150   7.993   2.521  10.985
69773SOL    HW111151   8.087   2.537  10.992
69773SOL    HW211152   7.983   2.471  10.904
69774SOL     OW11153   6.767  11.170   2.645
69774SOL    HW111154   6.779  11.089   2.595
69774SOL    HW211155   6.795  11.146   2.734
69775SOL     OW11156  14.377   2.254   2.065
69775SOL    HW111157  14.398   2.164   2.040
69775SOL    HW211158  14.454   2.305   2.040
69776SOL     OW11159   4.104  14.361   6.847
69776SOL    HW111160   4.094  14.356   6.752
69776SOL    HW211161   4.162  14.436   6.861
69777SOL     OW11162  13.128  10.487   9.081
69777SOL    HW111163  13.055  10.461   9.138
69777SOL    HW211164  13.202  10.500   9.140
69778SOL     OW11165   1.094   7.291   7.330
69778SOL    HW111166   1.151   7.343   7.386
69778SOL    HW211167   1.137   7.205   7.325
69779SOL     OW11168   6.209  13.284   3.446
69779SOL    HW111169   6.190  13.190   3.452
69779SOL    HW211170   6.245  13.306   3.532
69780SOL     OW11171   0.768  11.667  12.800
69780SOL    HW111172   0.736  11.752  12.770
69780SOL    HW211173   0.844  11.688  12.853
69781SOL     OW11174   4.226   3.191   3.493
69781SOL    HW111175   4.273   3.265   3.456
69781SOL    HW211176   4.194   3.142   3.418
69782SOL     OW11177   5.549  13.670   3.359
69782SOL    HW111178   5.600  13.609   3.306
69782SOL    HW211179   5.569  13.756   3.322
69783SOL     OW11180  11.575   4.083   0.111
69783SOL    HW111181  11.511   4.142   0.073
69783SOL    HW211182  11.529   4.041   0.184
69784SOL     OW11183   8.024   0.245   7.377
69784SOL    HW111184   8.006   0.185   7.305
69784SOL    HW211185   8.054   0.325   7.334
69785SOL     OW11186   3.772  12.425  11.777
69785SOL    HW111187   3.682  12.457  11.784
69785SOL    HW211188   3.763  12.334  11.750
69786SOL     OW11189   6.971   3.174   5.888
69786SOL    HW111190   6.964   3.083   5.859
69786SOL    HW211191   7.053   3.177   5.937
69787SOL     OW11192   8.039  14.072   7.918
69787SOL    HW111193   7.982  14.015   7.866
69787SOL    HW211194   8.093  14.118   7.853
69788SOL     OW11195   3.425   1.439   5.473
69788SOL    HW111196   3.465   1.481   5.397
69788SOL    HW211197   3.336   1.418   5.445
69789SOL     OW11198  11.402   0.197  14.018
69789SOL    HW111199  11.454   0.148  13.955
69789SOL    HW211200  11.446   0.182  14.102
69790SOL     OW11201   4.948  12.862   4.801
69790SOL    HW111202   4.897  12.941   4.818
69790SOL    HW211203   5.038  12.893   4.792
69791SOL     OW11204   0.215   3.317  10.580
69791SOL    HW111205   0.267   3.239  10.599
69791SOL    HW211206   0.168   3.295  10.499
69792SOL     OW11207   5.896   6.686   1.492
69792SOL    HW111208   5.976   6.718   1.450
69792SOL    HW211209   5.825   6.724   1.440
69793SOL     OW11210  12.482   7.629  14.002
69793SOL    HW111211  12.554   7.659  14.058
69793SOL    HW211212  12.521   7.621  13.915
69794SOL     OW11213  12.015   0.596   1.711
69794SOL    HW111214  11.986   0.560   1.795
69794SOL    HW211215  12.009   0.691   1.722
69795SOL     OW11216   2.731   0.862   3.308
69795SOL    HW111217   2.688   0.777   3.297
69795SOL    HW211218   2.684   0.920   3.248
69796SOL     OW11219   7.768  12.432   2.293
69796SOL    HW111220   7.821  12.488   2.350
69796SOL    HW211221   7.821  12.419   2.215
69797SOL     OW11222   4.053  13.683   3.038
69797SOL    HW111223   3.970  13.637   3.037
69797SOL    HW211224   4.072  13.700   2.945
69798SOL     OW11225  12.676  14.148   4.651
69798SOL    HW111226  12.710  14.129   4.563
69798SOL    HW211227  12.636  14.235   4.642
69799SOL     OW11228   3.316  14.080  12.011
69799SOL    HW111229   3.293  14.168  11.981
69799SOL    HW211230   3.254  14.061  12.081
69800SOL     OW11231  11.043   5.142   5.969
69800SOL    HW111232  11.034   5.178   5.881
69800SOL    HW211233  10.957   5.152   6.009
69801SOL     OW11234   7.793   1.045   6.284
69801SOL    HW111235   7.777   1.137   6.302
69801SOL    HW211236   7.790   1.038   6.188
69802SOL     OW11237   6.781  12.554   9.821
69802SOL    HW111238   6.714  12.543   9.888
69802SOL    HW211239   6.851  12.604   9.864
69803SOL     OW11240   5.057  14.385   6.502
69803SOL    HW111241   5.026  14.418   6.587
69803SOL    HW211242   5.043  14.457   6.442
69804SOL     OW11243   4.001   5.788   5.581
69804SOL    HW111244   4.043   5.843   5.648
69804SOL    HW211245   3.920   5.834   5.559
69805SOL     OW11246   2.473   1.302   3.390
69805SOL    HW111247   2.553   1.348   3.416
69805SOL    HW211248   2.417   1.371   3.355
69806SOL     OW11249   8.690  14.100   8.340
69806SOL    HW111250   8.679  14.020   8.392
69806SOL    HW211251   8.692  14.171   8.404
69807SOL     OW11252   5.757  11.775  10.816
69807SOL    HW111253   5.849  11.794  10.797
69807SOL    HW211254   5.759  11.691  10.863
69808SOL     OW11255  11.513   3.754   3.217
69808SOL    HW111256  11.455   3.821   3.253
69808SOL    HW211257  11.469   3.724   3.137
69809SOL     OW11258   7.635  13.604  13.288
69809SOL    HW111259   7.693  13.528  13.286
69809SOL    HW211260   7.616  13.623  13.196
69810SOL     OW11261   1.775  10.995   5.689
69810SOL    HW111262   1.703  11.023   5.745
69810SOL    HW211263   1.853  11.001   5.744
69811SOL     OW11264   2.105   5.890  11.541
69811SOL    HW111265   2.035   5.915  11.481
69811SOL    HW211266   2.103   5.957  11.610
69812SOL     OW11267  10.034   9.683   2.338
69812SOL    HW111268   9.995   9.600   2.309
69812SOL    HW211269   9.960   9.734   2.370
69813SOL     OW11270   7.003   8.807  13.217
69813SOL    HW111271   7.075   8.759  13.258
69813SOL    HW211272   6.958   8.742  13.164
69814SOL     OW11273  11.257   5.953   1.876
69814SOL    HW111274  11.230   5.889   1.942
69814SOL    HW211275  11.296   6.024   1.927
69815SOL     OW11276  10.709  12.283   8.397
69815SOL    HW111277  10.680  12.192   8.395
69815SOL    HW211278  10.647  12.329   8.341
69816SOL     OW11279   2.089   4.721   2.977
69816SOL    HW111280   2.007   4.672   2.970
69816SOL    HW211281   2.151   4.660   3.018
69817SOL     OW11282   1.938   4.599   8.214
69817SOL    HW111283   1.850   4.611   8.177
69817SOL    HW211284   1.927   4.533   8.282
69818SOL     OW11285  10.313   1.650   7.885
69818SOL    HW111286  10.265   1.569   7.869
69818SOL    HW211287  10.277   1.683   7.967
69819SOL     OW11288   6.154   3.263   0.825
69819SOL    HW111289   6.188   3.265   0.914
69819SOL    HW211290   6.225   3.227   0.772
69820SOL     OW11291   7.769  10.261  11.742
69820SOL    HW111292   7.696  10.228  11.690
69820SOL    HW211293   7.729  10.288  11.825
69821SOL     OW11294  10.112   6.697   2.589
69821SOL    HW111295  10.106   6.621   2.647
69821SOL    HW211296  10.186   6.678   2.532
69822SOL     OW11297   1.854   0.008   0.247
69822SOL    HW111298   1.808   0.064   0.310
69822SOL    HW211299   1.905  14.819   0.302
69823SOL     OW11300   7.974  10.912   0.805
69823SOL    HW111301   7.914  10.874   0.869
69823SOL    HW211302   7.917  10.955   0.741
69824SOL     OW11303  13.295   4.715   6.375
69824SOL    HW111304  13.212   4.762   6.378
69824SOL    HW211305  13.336   4.734   6.459
69825SOL     OW11306   8.296  11.956   3.457
69825SOL    HW111307   8.312  11.862   3.467
69825SOL    HW211308   8.384  11.995   3.462
69826SOL     OW11309   8.996   5.837   2.962
69826SOL    HW111310   9.089   5.856   2.955
69826SOL    HW211311   8.962   5.851   2.874
69827SOL     OW11312  10.234   3.471   6.986
69827SOL    HW111313  10.160   3.464   7.047
69827SOL    HW211314  10.312   3.467   7.043
69828SOL     OW11315  12.936  11.179   6.016
69828SOL    HW111316  12.899  11.265   5.995
69828SOL    HW211317  13.030  11.189   6.001
69829SOL     OW11318   4.479   9.226   6.831
69829SOL    HW111319   4.555   9.189   6.786
69829SOL    HW211320   4.404   9.194   6.781
69830SOL     OW11321  11.951   6.186   7.484
69830SOL    HW111322  11.975   6.267   7.529
69830SOL    HW211323  12.012   6.179   7.411
69831SOL     OW11324   2.503   9.061   5.801
69831SOL    HW111325   2.461   9.093   5.880
69831SOL    HW211326   2.588   9.104   5.798
69832SOL     OW11327  10.618   9.107   7.231
69832SOL    HW111328  10.613   9.183   7.289
69832SOL    HW211329  10.547   9.119   7.169
69833SOL     OW11330   4.691  13.104   8.669
69833SOL    HW111331   4.694  13.193   8.637
69833SOL    HW211332   4.690  13.113   8.765
69834SOL     OW11333   0.544   6.235   6.224
69834SOL    HW111334   0.488   6.283   6.163
69834SOL    HW211335   0.580   6.163   6.172
69835SOL     OW11336   8.867  14.683   2.567
69835SOL    HW111337   8.824  14.613   2.617
69835SOL    HW211338   8.810  14.760   2.581
69836SOL     OW11339   8.359   4.994   7.270
69836SOL    HW111340   8.403   4.986   7.186
69836SOL    HW211341   8.274   5.033   7.249
69837SOL     OW11342  10.515   2.868   3.735
69837SOL    HW111343  10.536   2.941   3.794
69837SOL    HW211344  10.454   2.905   3.672
69838SOL     OW11345  11.900   9.320   6.418
69838SOL    HW111346  11.852   9.320   6.335
69838SOL    HW211347  11.843   9.368   6.478
69839SOL     OW11348   0.456   3.650   4.800
69839SOL    HW111349   0.398   3.699   4.741
69839SOL    HW211350   0.541   3.651   4.756
69840SOL     OW11351   0.816   1.859   6.985
69840SOL    HW111352   0.734   1.812   7.004
69840SOL    HW211353   0.878   1.826   7.050
69841SOL     OW11354   6.781   2.130   1.304
69841SOL    HW111355   6.876   2.127   1.310
69841SOL    HW211356   6.753   2.166   1.388
69842SOL     OW11357  13.387   1.294   3.697
69842SOL    HW111358  13.474   1.272   3.731
69842SOL    HW211359  13.328   1.231   3.737
69843SOL     OW11360   1.695  14.070   0.259
69843SOL    HW111361   1.782  14.106   0.241
69843SOL    HW211362   1.677  14.011   0.187
69844SOL     OW11363   9.677  14.069   3.649
69844SOL    HW111364   9.716  14.006   3.709
69844SOL    HW211365   9.582  14.060   3.661
69845SOL     OW11366   2.494   4.912  12.394
69845SOL    HW111367   2.409   4.890  12.432
69845SOL    HW211368   2.556   4.900  12.466
69846SOL     OW11369   1.602   0.703   9.320
69846SOL    HW111370   1.666   0.631   9.326
69846SOL    HW211371   1.646   0.770   9.268
69847SOL     OW11372   4.888   3.728   3.525
69847SOL    HW111373   4.828   3.779   3.470
69847SOL    HW211374   4.938   3.794   3.574
69848SOL     OW11375  10.435   2.046  12.730
69848SOL    HW111376  10.472   2.011  12.649
69848SOL    HW211377  10.357   1.993  12.746
69849SOL     OW11378   0.439   9.925  10.016
69849SOL    HW111379   0.464   9.850  10.069
69849SOL    HW211380   0.518   9.948   9.967
69850SOL     OW11381   0.474  10.840  12.507
69850SOL    HW111382   0.456  10.778  12.578
69850SOL    HW211383   0.570  10.849  12.507
69851SOL     OW11384  10.877   5.966   5.873
69851SOL    HW111385  10.862   5.956   5.967
69851SOL    HW211386  10.914   5.882   5.846
69852SOL     OW11387  12.843   8.297  13.844
69852SOL    HW111388  12.867   8.241  13.770
69852SOL    HW211389  12.755   8.328  13.824
69853SOL     OW11390  12.265  10.321   1.225
69853SOL    HW111391  12.287  10.241   1.178
69853SOL    HW211392  12.350  10.364   1.239
69854SOL     OW11393   5.127  13.102   5.727
69854SOL    HW111394   5.083  13.043   5.666
69854SOL    HW211395   5.057  13.155   5.765
69855SOL     OW11396   2.404   6.063  11.914
69855SOL    HW111397   2.399   6.157  11.932
69855SOL    HW211398   2.493   6.039  11.937
69856SOL     OW11399   2.169   6.355   3.078
69856SOL    HW111400   2.191   6.323   2.990
69856SOL    HW211401   2.173   6.450   3.071
69857SOL     OW11402   5.333  10.259   5.302
69857SOL    HW111403   5.299  10.190   5.358
69857SOL    HW211404   5.257  10.311   5.277
69858SOL     OW11405  10.312   1.863   2.257
69858SOL    HW111406  10.252   1.792   2.239
69858SOL    HW211407  10.349   1.843   2.343
69859SOL     OW11408   0.735   2.808  12.313
69859SOL    HW111409   0.723   2.719  12.282
69859SOL    HW211410   0.673   2.861  12.263
69860SOL     OW11411   8.678   1.193   2.786
69860SOL    HW111412   8.598   1.154   2.821
69860SOL    HW211413   8.699   1.139   2.710
69861SOL     OW11414   2.722   5.906   6.215
69861SOL    HW111415   2.765   5.834   6.261
69861SOL    HW211416   2.725   5.881   6.122
69862SOL     OW11417   2.717  12.320   8.458
69862SOL    HW111418   2.776  12.364   8.519
69862SOL    HW211419   2.750  12.230   8.453
69863SOL     OW11420  11.365  14.733   5.927
69863SOL    HW111421  11.286  14.728   5.981
69863SOL    HW211422  11.430  14.775   5.983
69864SOL     OW11423  13.055   3.295   7.536
69864SOL    HW111424  13.144   3.301   7.571
69864SOL    HW211425  13.008   3.368   7.577
69865SOL     OW11426  13.409   5.316   1.471
69865SOL    HW111427  13.438   5.239   1.422
69865SOL    HW211428  13.423   5.390   1.411
69866SOL     OW11429   4.885   7.449   2.296
69866SOL    HW111430   4.955   7.397   2.337
69866SOL    HW211431   4.886   7.532   2.343
69867SOL     OW11432   1.379  13.710   3.121
69867SOL    HW111433   1.414  13.622   3.108
69867SOL    HW211434   1.327  13.703   3.201
69868SOL     OW11435   5.109   2.119   0.993
69868SOL    HW111436   5.078   2.156   0.910
69868SOL    HW211437   5.078   2.181   1.060
69869SOL     OW11438   6.353  12.119   3.481
69869SOL    HW111439   6.335  12.029   3.452
69869SOL    HW211440   6.310  12.125   3.567
69870SOL     OW11441  10.184   6.450   6.325
69870SOL    HW111442  10.221   6.369   6.292
69870SOL    HW211443  10.230   6.519   6.277
69871SOL     OW11444   5.828   4.507  11.485
69871SOL    HW111445   5.800   4.556  11.408
69871SOL    HW211446   5.762   4.438  11.495
69872SOL     OW11447   4.085  13.327   6.728
69872SOL    HW111448   4.041  13.396   6.678
69872SOL    HW211449   4.020  13.299   6.792
69873SOL     OW11450   4.566   1.891  11.297
69873SOL    HW111451   4.578   1.980  11.263
69873SOL    HW211452   4.483   1.863  11.258
69874SOL     OW11453   3.112  14.186   8.189
69874SOL    HW111454   3.176  14.123   8.156
69874SOL    HW211455   3.146  14.212   8.274
69875SOL     OW11456  10.243   7.475   2.655
69875SOL    HW111457  10.242   7.501   2.563
69875SOL    HW211458  10.185   7.398   2.659
69876SOL     OW11459  14.271  10.714  11.019
69876SOL    HW111460  14.258  10.662  10.941
69876SOL    HW211461  14.235  10.662  11.090
69877SOL     OW11462   8.478   3.500   8.095
69877SOL    HW111463   8.506   3.466   8.180
69877SOL    HW211464   8.475   3.423   8.038
69878SOL     OW11465  14.123  12.770  13.976
69878SOL    HW111466  14.139  12.781  14.069
69878SOL    HW211467  14.182  12.833  13.934
69879SOL     OW11468   6.319  10.213   7.040
69879SOL    HW111469   6.387  10.173   7.094
69879SOL    HW211470   6.352  10.300   7.021
69880SOL     OW11471  12.172   6.615   1.139
69880SOL    HW111472  12.078   6.602   1.123
69880SOL    HW211473  12.212   6.531   1.114
69881SOL     OW11474  13.350  10.656   1.167
69881SOL    HW111475  13.264  10.648   1.208
69881SOL    HW211476  13.340  10.617   1.081
69882SOL     OW11477   7.013   5.043  13.413
69882SOL    HW111478   7.100   5.076  13.389
69882SOL    HW211479   7.023   4.947  13.412
69883SOL     OW11480   2.317  10.623   7.099
69883SOL    HW111481   2.310  10.610   7.193
69883SOL    HW211482   2.229  10.649   7.071
69884SOL     OW11483  14.484   5.467   6.990
69884SOL    HW111484  14.479   5.555   6.953
69884SOL    HW211485  14.503   5.411   6.914
69885SOL     OW11486  11.142  13.602   3.737
69885SOL    HW111487  11.209  13.549   3.779
69885SOL    HW211488  11.061  13.552   3.750
69886SOL     OW11489   1.666   3.899  13.895
69886SOL    HW111490   1.580   3.938  13.911
69886SOL    HW211491   1.694   3.936  13.811
69887SOL     OW11492   1.145   7.371   9.967
69887SOL    HW111493   1.190   7.399   9.888
69887SOL    HW211494   1.071   7.431   9.976
69888SOL     OW11495   7.256   7.171   2.370
69888SOL    HW111496   7.228   7.135   2.286
69888SOL    HW211497   7.182   7.156   2.429
69889SOL     OW11498   4.515  12.371  10.055
69889SOL    HW111499   4.479  12.300  10.003
69889SOL    HW211500   4.526  12.443   9.993
69890SOL     OW11501   1.731   8.596  10.254
69890SOL    HW111502   1.728   8.683  10.292
69890SOL    HW211503   1.798   8.601  10.186
69891SOL     OW11504   6.373   6.373   2.828
69891SOL    HW111505   6.304   6.396   2.765
69891SOL    HW211506   6.369   6.443   2.894
69892SOL     OW11507   9.878   9.314  11.582
69892SOL    HW111508   9.820   9.246  11.618
69892SOL    HW211509   9.839   9.337  11.498
69893SOL     OW11510   1.626   0.793   2.060
69893SOL    HW111511   1.617   0.786   1.965
69893SOL    HW211512   1.680   0.870   2.073
69894SOL     OW11513   2.214   6.241   9.727
69894SOL    HW111514   2.169   6.158   9.744
69894SOL    HW211515   2.273   6.222   9.654
69895SOL     OW11516   2.841   6.532   1.943
69895SOL    HW111517   2.852   6.485   2.025
69895SOL    HW211518   2.927   6.572   1.926
69896SOL     OW11519  13.825   9.286  10.858
69896SOL    HW111520  13.871   9.269  10.776
69896SOL    HW211521  13.732   9.280  10.835
69897SOL     OW11522   6.304   1.584   1.140
69897SOL    HW111523   6.374   1.625   1.089
69897SOL    HW211524   6.241   1.655   1.154
69898SOL     OW11525  10.919  10.304   8.004
69898SOL    HW111526  10.932  10.278   8.095
69898SOL    HW211527  10.879  10.227   7.962
69899SOL     OW11528   4.747   4.782   0.523
69899SOL    HW111529   4.671   4.756   0.472
69899SOL    HW211530   4.730   4.873   0.547
69900SOL     OW11531   9.734  13.494   0.217
69900SOL    HW111532   9.735  13.584   0.250
69900SOL    HW211533   9.655  13.489   0.164
69901SOL     OW11534  13.816  11.157  13.734
69901SOL    HW111535  13.805  11.210  13.656
69901SOL    HW211536  13.853  11.216  13.799
69902SOL     OW11537   9.772   6.328   9.927
69902SOL    HW111538   9.847   6.272   9.949
69902SOL    HW211539   9.722   6.279   9.862
69903SOL     OW11540   7.802   8.825   3.912
69903SOL    HW111541   7.859   8.872   3.851
69903SOL    HW211542   7.717   8.824   3.868
69904SOL     OW11543   0.406  10.704   1.339
69904SOL    HW111544   0.500  10.686   1.334
69904SOL    HW211545   0.365  10.617   1.340
69905SOL     OW11546  13.539   2.199   7.521
69905SOL    HW111547  13.549   2.238   7.608
69905SOL    HW211548  13.568   2.267   7.460
69906SOL     OW11549  14.601  12.211   3.169
69906SOL    HW111550  14.619  12.119   3.149
69906SOL    HW211551  14.674  12.259   3.129
69907SOL     OW11552  13.138   3.762  13.460
69907SOL    HW111553  13.075   3.832  13.477
69907SOL    HW211554  13.086   3.693  13.418
69908SOL     OW11555   3.517   6.071   7.712
69908SOL    HW111556   3.488   6.056   7.803
69908SOL    HW211557   3.606   6.104   7.720
69909SOL     OW11558   6.061   6.022   2.805
69909SOL    HW111559   5.981   6.035   2.754
69909SOL    HW211560   6.132   6.043   2.744
69910SOL     OW11561  11.461   4.498   7.288
69910SOL    HW111562  11.402   4.566   7.255
69910SOL    HW211563  11.411   4.455   7.358
69911SOL     OW11564   0.186   9.390   2.470
69911SOL    HW111565   0.131   9.361   2.397
69911SOL    HW211566   0.202   9.310   2.521
69912SOL     OW11567   0.175   7.896   1.800
69912SOL    HW111568   0.155   7.879   1.708
69912SOL    HW211569   0.222   7.818   1.829
69913SOL     OW11570   2.713   5.701   2.496
69913SOL    HW111571   2.709   5.620   2.547
69913SOL    HW211572   2.796   5.741   2.522
69914SOL     OW11573   8.025   9.409  10.262
69914SOL    HW111574   8.012   9.454  10.179
69914SOL    HW211575   8.038   9.480  10.326
69915SOL     OW11576   8.068   6.874  13.544
69915SOL    HW111577   8.091   6.925  13.622
69915SOL    HW211578   8.063   6.784  13.574
69916SOL     OW11579   9.254  11.567   6.793
69916SOL    HW111580   9.287  11.501   6.732
69916SOL    HW211581   9.331  11.619   6.816
69917SOL     OW11582   7.551   5.861  12.879
69917SOL    HW111583   7.538   5.945  12.924
69917SOL    HW211584   7.464   5.822  12.874
69918SOL     OW11585   0.685  10.580   1.475
69918SOL    HW111586   0.622  10.599   1.545
69918SOL    HW211587   0.749  10.650   1.479
69919SOL     OW11588  13.978   9.847   2.174
69919SOL    HW111589  14.050   9.821   2.232
69919SOL    HW211590  13.909   9.878   2.233
69920SOL     OW11591   2.492   5.222   0.853
69920SOL    HW111592   2.479   5.155   0.786
69920SOL    HW211593   2.409   5.269   0.856
69921SOL     OW11594   3.108  14.199   2.683
69921SOL    HW111595   3.117  14.161   2.595
69921SOL    HW211596   3.135  14.128   2.742
69922SOL     OW11597  11.322   4.921   2.852
69922SOL    HW111598  11.368   5.001   2.878
69922SOL    HW211599  11.316   4.870   2.932
69923SOL     OW11600   0.294   4.706   2.173
69923SOL    HW111601   0.389   4.710   2.169
69923SOL    HW211602   0.275   4.683   2.264
69924SOL     OW11603   4.573  12.484   0.274
69924SOL    HW111604   4.651  12.534   0.300
69924SOL    HW211605   4.555  12.427   0.349
69925SOL     OW11606   0.739   1.016   5.104
69925SOL    HW111607   0.736   1.071   5.026
69925SOL    HW211608   0.656   1.032   5.149
69926SOL     OW11609   1.914   7.113   6.565
69926SOL    HW111610   1.964   7.078   6.638
69926SOL    HW211611   1.834   7.148   6.605
69927SOL     OW11612   2.701   7.416   1.320
69927SOL    HW111613   2.614   7.457   1.317
69927SOL    HW211614   2.746   7.452   1.243
69928SOL     OW11615   9.148   0.191   1.142
69928SOL    HW111616   9.194   0.273   1.158
69928SOL    HW211617   9.202   0.125   1.185
69929SOL     OW11618   3.602   5.814   5.670
69929SOL    HW111619   3.601   5.894   5.723
69929SOL    HW211620   3.524   5.766   5.698
69930SOL     OW11621  13.164   7.991   6.267
69930SOL    HW111622  13.127   8.078   6.253
69930SOL    HW211623  13.090   7.939   6.300
69931SOL     OW11624  10.773   2.349   7.447
69931SOL    HW111625  10.764   2.290   7.522
69931SOL    HW211626  10.814   2.296   7.379
69932SOL     OW11627  11.105   9.881  14.015
69932SOL    HW111628  11.119   9.832  13.934
69932SOL    HW211629  11.037   9.944  13.993
69933SOL     OW11630   0.135   0.841   0.199
69933SOL    HW111631   0.042   0.818   0.198
69933SOL    HW211632   0.175   0.773   0.253
69934SOL     OW11633   7.129  12.692   9.340
69934SOL    HW111634   7.120  12.738   9.423
69934SOL    HW211635   7.126  12.599   9.363
69935SOL     OW11636   6.695   7.154   7.388
69935SOL    HW111637   6.763   7.166   7.454
69935SOL    HW211638   6.737   7.177   7.305
69936SOL     OW11639   2.013   2.029   6.986
69936SOL    HW111640   1.929   2.072   7.001
69936SOL    HW211641   2.046   2.069   6.905
69937SOL     OW11642   1.572   5.670   8.990
69937SOL    HW111643   1.490   5.622   9.006
69937SOL    HW211644   1.640   5.615   9.028
69938SOL     OW11645   7.619  11.286   5.836
69938SOL    HW111646   7.686  11.337   5.881
69938SOL    HW211647   7.623  11.200   5.878
69939SOL     OW11648   8.377   4.509  13.147
69939SOL    HW111649   8.399   4.533  13.237
69939SOL    HW211650   8.429   4.431  13.129
69940SOL     OW11651  10.640   2.383   3.728
69940SOL    HW111652  10.679   2.296   3.717
69940SOL    HW211653  10.672   2.433   3.653
69941SOL     OW11654  13.290   5.129   0.058
69941SOL    HW111655  13.366   5.132   0.117
69941SOL    HW211656  13.215   5.144   0.116
69942SOL     OW11657  11.438   7.889   3.707
69942SOL    HW111658  11.350   7.851   3.700
69942SOL    HW211659  11.429   7.957   3.774
69943SOL     OW11660   9.396   2.211   6.696
69943SOL    HW111661   9.301   2.207   6.704
69943SOL    HW211662   9.420   2.128   6.655
69944SOL     OW11663   4.147  10.512   5.691
69944SOL    HW111664   4.073  10.569   5.671
69944SOL    HW211665   4.198  10.561   5.756
69945SOL     OW11666   6.873   4.278   5.030
69945SOL    HW111667   6.871   4.186   5.005
69945SOL    HW211668   6.831   4.280   5.116
69946SOL     OW11669  14.450  14.584   2.001
69946SOL    HW111670  14.446  14.563   2.094
69946SOL    HW211671  14.528  14.640   1.993
69947SOL     OW11672   0.436  11.527  14.154
69947SOL    HW111673   0.505  11.480  14.108
69947SOL    HW211674   0.363  11.529  14.093
69948SOL     OW11675   5.433   7.160   7.127
69948SOL    HW111676   5.454   7.068   7.111
69948SOL    HW211677   5.518   7.203   7.128
69949SOL     OW11678   5.980   5.415   8.071
69949SOL    HW111679   5.984   5.339   8.129
69949SOL    HW211680   6.019   5.384   7.989
69950SOL     OW11681   1.501   9.113  14.413
69950SOL    HW111682   1.525   9.055  14.485
69950SOL    HW211683   1.430   9.068  14.368
69951SOL     OW11684   5.742  12.465   5.920
69951SOL    HW111685   5.752  12.422   5.835
69951SOL    HW211686   5.650  12.452   5.942
69952SOL     OW11687  10.906  13.198   0.470
69952SOL    HW111688  10.984  13.187   0.524
69952SOL    HW211689  10.838  13.147   0.515
69953SOL     OW11690   1.974   0.682   8.155
69953SOL    HW111691   1.913   0.748   8.188
69953SOL    HW211692   2.059   0.726   8.155
69954SOL     OW11693   9.819   9.098   3.517
69954SOL    HW111694   9.826   9.069   3.426
69954SOL    HW211695   9.773   9.027   3.562
69955SOL     OW11696  13.148   8.873  14.055
69955SOL    HW111697  13.200   8.838  14.127
69955SOL    HW211698  13.169   8.817  13.980
69956SOL     OW11699   9.979  14.635   0.058
69956SOL    HW111700  10.027  14.710   0.094
69956SOL    HW211701   9.894  14.671   0.032
69957SOL     OW11702  13.917  12.847  12.476
69957SOL    HW111703  13.900  12.769  12.424
69957SOL    HW211704  13.835  12.863  12.523
69958SOL     OW11705   3.868   0.548  14.500
69958SOL    HW111706   3.908   0.577  14.417
69958SOL    HW211707   3.862   0.627  14.553
69959SOL     OW11708  13.572  13.164   4.832
69959SOL    HW111709  13.561  13.108   4.909
69959SOL    HW211710  13.562  13.105   4.757
69960SOL     OW11711  11.877   6.838   4.141
69960SOL    HW111712  11.802   6.856   4.085
69960SOL    HW211713  11.875   6.744   4.154
69961SOL     OW11714  10.831   1.189  13.426
69961SOL    HW111715  10.910   1.205  13.374
69961SOL    HW211716  10.766   1.160  13.362
69962SOL     OW11717   9.361   6.087   7.374
69962SOL    HW111718   9.323   6.141   7.443
69962SOL    HW211719   9.452   6.116   7.368
69963SOL     OW11720   4.299  11.992  12.243
69963SOL    HW111721   4.385  12.001  12.284
69963SOL    HW211722   4.244  12.056  12.289
69964SOL     OW11723   3.424   4.208   5.975
69964SOL    HW111724   3.415   4.214   5.880
69964SOL    HW211725   3.455   4.294   6.001
69965SOL     OW11726   0.070   2.093   9.097
69965SOL    HW111727  14.865   2.045   9.124
69965SOL    HW211728   0.046   2.131   9.012
69966SOL     OW11729   2.721  10.348   3.338
69966SOL    HW111730   2.690  10.287   3.405
69966SOL    HW211731   2.711  10.435   3.378
69967SOL     OW11732  13.505   2.413  11.966
69967SOL    HW111733  13.599   2.402  11.980
69967SOL    HW211734  13.485   2.352  11.895
69968SOL     OW11735  13.003  13.021  14.146
69968SOL    HW111736  12.937  13.088  14.127
69968SOL    HW211737  13.060  13.062  14.211
69969SOL     OW11738  12.334  12.202   0.862
69969SOL    HW111739  12.383  12.211   0.944
69969SOL    HW211740  12.254  12.156   0.887
69970SOL     OW11741   5.331   8.932   0.651
69970SOL    HW111742   5.251   8.932   0.704
69970SOL    HW211743   5.361   9.023   0.654
69971SOL     OW11744   5.050   7.203   8.020
69971SOL    HW111745   4.993   7.253   8.078
69971SOL    HW211746   5.085   7.268   7.958
69972SOL     OW11747   1.248  13.643  11.085
69972SOL    HW111748   1.299  13.724  11.087
69972SOL    HW211749   1.312  13.574  11.068
69973SOL     OW11750   8.991   7.082   8.001
69973SOL    HW111751   8.912   7.033   7.979
69973SOL    HW211752   9.059   7.016   8.011
69974SOL     OW11753  10.223  13.154   5.031
69974SOL    HW111754  10.153  13.098   4.996
69974SOL    HW211755  10.202  13.163   5.124
69975SOL     OW11756   6.456  11.817   3.122
69975SOL    HW111757   6.378  11.785   3.076
69975SOL    HW211758   6.457  11.911   3.104
69976SOL     OW11759   0.257   4.524  12.054
69976SOL    HW111760   0.261   4.574  11.973
69976SOL    HW211761   0.257   4.433  12.026
69977SOL     OW11762   1.765  11.075   5.172
69977SOL    HW111763   1.757  11.169   5.155
69977SOL    HW211764   1.679  11.049   5.205
69978SOL     OW11765   1.433   0.244   2.252
69978SOL    HW111766   1.348   0.248   2.208
69978SOL    HW211767   1.427   0.308   2.323
69979SOL     OW11768  12.460   7.440   9.251
69979SOL    HW111769  12.528   7.463   9.314
69979SOL    HW211770  12.419   7.524   9.229
69980SOL     OW11771   1.194   4.475  10.101
69980SOL    HW111772   1.268   4.444  10.049
69980SOL    HW211773   1.167   4.557  10.059
69981SOL     OW11774  13.292   6.114   7.225
69981SOL    HW111775  13.301   6.156   7.139
69981SOL    HW211776  13.295   6.187   7.287
69982SOL     OW11777  14.105  12.372   7.508
69982SOL    HW111778  14.191  12.411   7.491
69982SOL    HW211779  14.123  12.300   7.568
69983SOL     OW11780  11.522  12.208  12.862
69983SOL    HW111781  11.562  12.176  12.781
69983SOL    HW211782  11.586  12.269  12.898
69984SOL     OW11783   2.091   6.425   1.460
69984SOL    HW111784   2.136   6.341   1.453
69984SOL    HW211785   2.147   6.477   1.517
69985SOL     OW11786   6.870   5.037   8.002
69985SOL    HW111787   6.853   4.960   8.057
69985SOL    HW211788   6.799   5.097   8.023
69986SOL     OW11789  13.412  12.126  13.137
69986SOL    HW111790  13.446  12.142  13.225
69986SOL    HW211791  13.317  12.127  13.148
69987SOL     OW11792  11.048   0.202   8.694
69987SOL    HW111793  11.126   0.207   8.749
69987SOL    HW211794  11.021   0.110   8.697
69988SOL     OW11795   0.461   2.641  14.203
69988SOL    HW111796   0.533   2.626  14.265
69988SOL    HW211797   0.386   2.596  14.241
69989SOL     OW11798  10.096   4.982   4.759
69989SOL    HW111799  10.116   5.075   4.757
69989SOL    HW211800  10.149   4.944   4.689
69990SOL     OW11801   4.868  10.648  12.497
69990SOL    HW111802   4.872  10.728  12.445
69990SOL    HW211803   4.929  10.662  12.569
69991SOL     OW11804   8.356  10.504   0.813
69991SOL    HW111805   8.434  10.471   0.768
69991SOL    HW211806   8.367  10.599   0.815
69992SOL     OW11807  10.137  12.061  11.639
69992SOL    HW111808  10.232  12.073  11.634
69992SOL    HW211809  10.101  12.147  11.617
69993SOL     OW11810  10.697   5.937   1.432
69993SOL    HW111811  10.733   5.995   1.498
69993SOL    HW211812  10.742   5.962   1.351
69994SOL     OW11813   0.008   9.309   3.635
69994SOL    HW111814   0.006   9.332   3.728
69994SOL    HW211815   0.094   9.339   3.605
69995SOL     OW11816  14.659   2.852  14.582
69995SOL    HW111817  14.655   2.946  14.597
69995SOL    HW211818  14.619   2.813  14.660
69996SOL     OW11819   3.846  13.876  14.021
69996SOL    HW111820   3.864  13.812  14.089
69996SOL    HW211821   3.832  13.958  14.069
69997SOL     OW11822  10.180   7.416  14.004
69997SOL    HW111823  10.167   7.416  13.909
69997SOL    HW211824  10.160   7.505  14.032
69998SOL     OW11825   8.958   5.647   2.290
69998SOL    HW111826   8.907   5.648   2.371
69998SOL    HW211827   8.897   5.675   2.222
69999SOL     OW11828   9.180   5.914   5.871
69999SOL    HW111829   9.205   5.844   5.811
69999SOL    HW211830   9.117   5.873   5.931
70000SOL     OW11831  12.496   6.833   9.698
70000SOL    HW111832  12.508   6.804   9.608
70000SOL    HW211833  12.467   6.924   9.691
70001SOL     OW11834   3.296   4.016   3.330
70001SOL    HW111835   3.288   4.030   3.424
70001SOL    HW211836   3.361   4.080   3.301
70002SOL     OW11837   0.218  12.512   2.442
70002SOL    HW111838   0.156  12.561   2.496
70002SOL    HW211839   0.274  12.466   2.505
70003SOL     OW11840   9.375  12.798  10.997
70003SOL    HW111841   9.394  12.874  11.051
70003SOL    HW211842   9.370  12.833  10.908
70004SOL     OW11843   9.462  10.594   6.650
70004SOL    HW111844   9.527  10.563   6.587
70004SOL    HW211845   9.382  10.603   6.599
70005SOL     OW11846   7.279   1.113  11.780
70005SOL    HW111847   7.193   1.121  11.821
70005SOL    HW211848   7.304   1.022  11.795
70006SOL     OW11849   5.792  10.442  10.733
70006SOL    HW111850   5.841  10.496  10.671
70006SOL    HW211851   5.857  10.410  10.795
70007SOL     OW11852  11.234  12.079   1.038
70007SOL    HW111853  11.295  12.051   0.970
70007SOL    HW211854  11.180  12.145   0.997
70008SOL     OW11855  14.604   5.086   2.766
70008SOL    HW111856  14.669   5.144   2.806
70008SOL    HW211857  14.656   5.029   2.709
70009SOL     OW11858  14.567   9.105   5.498
70009SOL    HW111859  14.634   9.062   5.551
70009SOL    HW211860  14.492   9.045   5.502
70010SOL     OW11861   1.202  10.371  14.695
70010SOL    HW111862   1.250  10.450  14.721
70010SOL    HW211863   1.154  10.397  14.617
70011SOL     OW11864   3.889  13.394   0.760
70011SOL    HW111865   3.815  13.401   0.820
70011SOL    HW211866   3.852  13.410   0.674
70012SOL     OW11867   7.791   2.192   2.197
70012SOL    HW111868   7.866   2.177   2.140
70012SOL    HW211869   7.830   2.208   2.283
70013SOL     OW11870  10.222  14.536   0.550
70013SOL    HW111871  10.230  14.501   0.639
70013SOL    HW211872  10.129  14.524   0.528
70014SOL     OW11873  12.749   1.670  11.357
70014SOL    HW111874  12.829   1.635  11.319
70014SOL    HW211875  12.695   1.593  11.376
70015SOL     OW11876  12.548  11.795  10.673
70015SOL    HW111877  12.470  11.740  10.664
70015SOL    HW211878  12.617  11.736  10.702
70016SOL     OW11879  10.693   2.785   1.669
70016SOL    HW111880  10.766   2.765   1.611
70016SOL    HW211881  10.678   2.704   1.718
70017SOL     OW11882  11.470  11.342   0.817
70017SOL    HW111883  11.512  11.428   0.818
70017SOL    HW211884  11.376  11.361   0.820
70018SOL     OW11885   0.903   8.356   8.967
70018SOL    HW111886   0.845   8.429   8.986
70018SOL    HW211887   0.980   8.372   9.022
70019SOL     OW11888   0.090   8.536  13.505
70019SOL    HW111889   0.107   8.563  13.414
70019SOL    HW211890   0.015   8.477  13.498
70020SOL     OW11891   0.474   6.041   6.455
70020SOL    HW111892   0.539   6.041   6.384
70020SOL    HW211893   0.516   5.993   6.526
70021SOL     OW11894  10.358   9.185  11.325
70021SOL    HW111895  10.392   9.184  11.415
70021SOL    HW211896  10.397   9.108  11.284
70022SOL     OW11897   4.994  11.069   8.602
70022SOL    HW111898   5.038  11.037   8.680
70022SOL    HW211899   4.905  11.091   8.632
70023SOL     OW11900   2.867   4.072  13.318
70023SOL    HW111901   2.910   4.158  13.326
70023SOL    HW211902   2.826   4.058  13.404
70024SOL     OW11903  11.780  10.810  12.504
70024SOL    HW111904  11.752  10.835  12.416
70024SOL    HW211905  11.725  10.734  12.525
70025SOL     OW11906   8.571  10.185   2.153
70025SOL    HW111907   8.582  10.114   2.090
70025SOL    HW211908   8.496  10.157   2.207
70026SOL     OW11909   6.822   3.827   6.556
70026SOL    HW111910   6.785   3.803   6.470
70026SOL    HW211911   6.759   3.889   6.592
70027SOL     OW11912   1.856   4.094  10.981
70027SOL    HW111913   1.806   4.130  11.055
70027SOL    HW211914   1.829   4.147  10.906
70028SOL     OW11915   6.560   1.334  12.588
70028SOL    HW111916   6.481   1.384  12.609
70028SOL    HW211917   6.622   1.400  12.556
70029SOL     OW11918   8.965  11.037  12.663
70029SOL    HW111919   8.990  11.069  12.749
70029SOL    HW211920   8.878  10.999  12.676
70030SOL     OW11921  10.618   8.248   4.943
70030SOL    HW111922  10.683   8.281   4.880
70030SOL    HW211923  10.662   8.251   5.028
70031SOL     OW11924   0.855   2.482   5.520
70031SOL    HW111925   0.780   2.525   5.478
70031SOL    HW211926   0.927   2.544   5.508
70032SOL     OW11927  14.379   8.560   6.613
70032SOL    HW111928  14.383   8.555   6.517
70032SOL    HW211929  14.459   8.608   6.637
70033SOL     OW11930   2.675  14.589   8.388
70033SOL    HW111931   2.664  14.502   8.427
70033SOL    HW211932   2.613  14.590   8.315
70034SOL     OW11933   7.521  11.718  12.222
70034SOL    HW111934   7.453  11.662  12.260
70034SOL    HW211935   7.472  11.789  12.180
70035SOL     OW11936   8.300   4.281   6.144
70035SOL    HW111937   8.358   4.337   6.091
70035SOL    HW211938   8.258   4.342   6.205
70036SOL     OW11939   4.732   5.564   1.737
70036SOL    HW111940   4.800   5.594   1.677
70036SOL    HW211941   4.774   5.565   1.823
70037SOL     OW11942   0.308   1.879   2.749
70037SOL    HW111943   0.334   1.788   2.761
70037SOL    HW211944   0.228   1.875   2.696
70038SOL     OW11945   5.538  10.519   1.626
70038SOL    HW111946   5.493  10.574   1.690
70038SOL    HW211947   5.621  10.563   1.609
70039SOL     OW11948   3.368   0.983  14.633
70039SOL    HW111949   3.419   1.062  14.650
70039SOL    HW211950   3.279   1.015  14.619
70040SOL     OW11951   9.539   5.699   0.822
70040SOL    HW111952   9.506   5.640   0.755
70040SOL    HW211953   9.569   5.776   0.774
70041SOL     OW11954   7.058  14.581  13.844
70041SOL    HW111955   7.024  14.540  13.764
70041SOL    HW211956   7.141  14.619  13.818
70042SOL     OW11957   2.646   3.826  11.594
70042SOL    HW111958   2.602   3.827  11.679
70042SOL    HW211959   2.729   3.872  11.609
70043SOL     OW11960  11.205  11.437   1.810
70043SOL    HW111961  11.237  11.525   1.789
70043SOL    HW211962  11.152  11.412   1.734
70044SOL     OW11963   5.059   9.321  10.653
70044SOL    HW111964   5.012   9.386  10.705
70044SOL    HW211965   5.108   9.270  10.717
70045SOL     OW11966  11.027   6.137   8.667
70045SOL    HW111967  10.981   6.214   8.701
70045SOL    HW211968  10.983   6.063   8.710
70046SOL     OW11969   6.579   1.008  13.054
70046SOL    HW111970   6.548   0.946  13.121
70046SOL    HW211971   6.520   1.083  13.062
70047SOL     OW11972   7.743   7.327   6.340
70047SOL    HW111973   7.821   7.378   6.362
70047SOL    HW211974   7.733   7.340   6.245
70048SOL     OW11975   5.165   1.857   0.302
70048SOL    HW111976   5.204   1.931   0.348
70048SOL    HW211977   5.176   1.783   0.361
70049SOL     OW11978   3.957   3.865  11.042
70049SOL    HW111979   3.919   3.831  10.961
70049SOL    HW211980   4.026   3.802  11.064
70050SOL     OW11981  11.720  14.260  11.917
70050SOL    HW111982  11.655  14.327  11.893
70050SOL    HW211983  11.669  14.192  11.960
70051SOL     OW11984  12.988   8.006  10.629
70051SOL    HW111985  12.933   7.954  10.571
70051SOL    HW211986  12.929   8.072  10.666
70052SOL     OW11987   9.596   8.471  11.707
70052SOL    HW111988   9.614   8.386  11.748
70052SOL    HW211989   9.662   8.530  11.743
70053SOL     OW11990   9.763  12.091  12.775
70053SOL    HW111991   9.670  12.112  12.769
70053SOL    HW211992   9.803  12.132  12.698
70054SOL     OW11993  14.269   8.347   1.718
70054SOL    HW111994  14.335   8.338   1.649
70054SOL    HW211995  14.299   8.289   1.788
70055SOL     OW11996   9.508   6.866   0.609
70055SOL    HW111997   9.454   6.805   0.658
70055SOL    HW211998   9.444   6.921   0.562
70056SOL     OW11999   0.422  14.263   3.067
70056SOL    HW112000   0.364  14.303   3.133
70056SOL    HW212001   0.423  14.170   3.089
70057SOL     OW12002   4.685   9.827   7.393
70057SOL    HW112003   4.680   9.831   7.489
70057SOL    HW212004   4.743   9.899   7.369
70058SOL     OW12005  10.860   0.620  10.947
70058SOL    HW112006  10.945   0.634  10.904
70058SOL    HW212007  10.807   0.695  10.919
70059SOL     OW12008  10.324   1.563  13.497
70059SOL    HW112009  10.324   1.653  13.530
70059SOL    HW212010  10.414   1.548  13.467
70060SOL     OW12011   6.377  10.469   4.947
70060SOL    HW112012   6.459  10.451   4.902
70060SOL    HW212013   6.360  10.390   4.999
70061SOL     OW12014   4.546  13.894   4.655
70061SOL    HW112015   4.527  13.920   4.565
70061SOL    HW212016   4.506  13.807   4.664
70062SOL     OW12017   4.663   2.498  11.630
70062SOL    HW112018   4.654   2.454  11.715
70062SOL    HW212019   4.581   2.480  11.585
70063SOL     OW12020  14.742   9.999  11.987
70063SOL    HW112021  14.731   9.923  11.930
70063SOL    HW212022  14.684  10.066  11.950
70064SOL     OW12023  12.549   2.639   7.817
70064SOL    HW112024  12.571   2.663   7.727
70064SOL    HW212025  12.551   2.722   7.866
70065SOL     OW12026   4.926   8.981   0.332
70065SOL    HW112027   5.008   8.976   0.381
70065SOL    HW212028   4.937   8.922   0.258
70066SOL     OW12029   9.481   1.488  12.996
70066SOL    HW112030   9.508   1.397  13.001
70066SOL    HW212031   9.559   1.535  12.968
70067SOL     OW12032   6.335   6.583   8.035
70067SOL    HW112033   6.392   6.569   8.110
70067SOL    HW212034   6.375   6.532   7.964
70068SOL     OW12035   7.005   7.194   9.730
70068SOL    HW112036   7.067   7.266   9.714
70068SOL    HW212037   7.022   7.132   9.660
70069SOL     OW12038   3.885   0.174   8.797
70069SOL    HW112039   3.949   0.110   8.828
70069SOL    HW212040   3.801   0.131   8.808
70070SOL     OW12041  12.361   5.266  14.049
70070SOL    HW112042  12.400   5.350  14.073
70070SOL    HW212043  12.383   5.254  13.957
70071SOL     OW12044   0.072   8.400   2.882
70071SOL    HW112045   0.089   8.367   2.971
70071SOL    HW212046   0.072   8.495   2.892
70072SOL     OW12047   6.116   4.229   2.385
70072SOL    HW112048   6.026   4.207   2.359
70072SOL    HW212049   6.110   4.246   2.479
70073SOL     OW12050   1.954   0.146   1.369
70073SOL    HW112051   1.893   0.090   1.418
70073SOL    HW212052   1.962   0.225   1.422
70074SOL     OW12053   7.544   4.751  11.036
70074SOL    HW112054   7.572   4.823  10.980
70074SOL    HW212055   7.465   4.783  11.080
70075SOL     OW12056  12.297   8.671  14.129
70075SOL    HW112057  12.240   8.681  14.204
70075SOL    HW212058  12.315   8.760  14.099
70076SOL     OW12059  14.062   4.099   2.910
70076SOL    HW112060  13.989   4.107   2.971
70076SOL    HW212061  14.131   4.154   2.947
70077SOL     OW12062  13.401  11.942   2.040
70077SOL    HW112063  13.338  11.895   2.095
70077SOL    HW212064  13.486  11.917   2.077
70078SOL     OW12065  12.301   6.575  11.516
70078SOL    HW112066  12.381   6.604  11.473
70078SOL    HW212067  12.302   6.618  11.602
70079SOL     OW12068   8.015   9.590   4.993
70079SOL    HW112069   8.008   9.590   4.898
70079SOL    HW212070   8.021   9.498   5.017
70080SOL     OW12071  13.463  12.793   7.627
70080SOL    HW112072  13.527  12.852   7.667
70080SOL    HW212073  13.388  12.795   7.686
70081SOL     OW12074   9.167   8.657   4.503
70081SOL    HW112075   9.153   8.563   4.497
70081SOL    HW212076   9.250   8.673   4.459
70082SOL     OW12077   6.207   1.912  12.587
70082SOL    HW112078   6.170   1.883  12.504
70082SOL    HW212079   6.276   1.848  12.606
70083SOL     OW12080   1.538   8.151   2.951
70083SOL    HW112081   1.558   8.078   3.010
70083SOL    HW212082   1.623   8.177   2.916
70084SOL     OW12083   4.193   8.599   2.980
70084SOL    HW112084   4.202   8.635   3.068
70084SOL    HW212085   4.242   8.659   2.924
70085SOL     OW12086   5.616   9.948   7.439
70085SOL    HW112087   5.709   9.966   7.426
70085SOL    HW212088   5.602   9.864   7.397
70086SOL     OW12089   5.906   1.430   7.573
70086SOL    HW112090   5.823   1.442   7.527
70086SOL    HW212091   5.930   1.339   7.557
70087SOL     OW12092   6.746   9.767   7.989
70087SOL    HW112093   6.760   9.843   7.932
70087SOL    HW212094   6.834   9.734   8.007
70088SOL     OW12095   0.656   7.499  11.114
70088SOL    HW112096   0.742   7.457  11.108
70088SOL    HW212097   0.604   7.438  11.168
70089SOL     OW12098   9.971   6.295   4.337
70089SOL    HW112099  10.020   6.278   4.257
70089SOL    HW212100  10.037   6.297   4.407
70090SOL     OW12101   7.812  11.469   7.042
70090SOL    HW112102   7.862  11.437   6.967
70090SOL    HW212103   7.877  11.490   7.108
70091SOL     OW12104  11.002  11.492  14.158
70091SOL    HW112105  11.011  11.483  14.253
70091SOL    HW212106  11.088  11.524  14.129
70092SOL     OW12107  10.661  10.133  11.258
70092SOL    HW112108  10.601  10.078  11.208
70092SOL    HW212109  10.746  10.118  11.218
70093SOL     OW12110  10.054   6.690   6.668
70093SOL    HW112111  10.128   6.630   6.662
70093SOL    HW212112   9.979   6.635   6.691
70094SOL     OW12113   5.890  14.098   9.768
70094SOL    HW112114   5.959  14.044   9.808
70094SOL    HW212115   5.932  14.183   9.754
70095SOL     OW12116  13.536   1.193   2.796
70095SOL    HW112117  13.479   1.217   2.868
70095SOL    HW212118  13.599   1.131   2.834
70096SOL     OW12119   2.561   7.613  13.551
70096SOL    HW112120   2.466   7.615  13.562
70096SOL    HW212121   2.577   7.541  13.491
70097SOL     OW12122   6.556  13.196   6.010
70097SOL    HW112123   6.521  13.152   5.932
70097SOL    HW212124   6.604  13.271   5.976
70098SOL     OW12125   8.108  12.863   6.775
70098SOL    HW112126   8.065  12.802   6.716
70098SOL    HW212127   8.147  12.929   6.718
70099SOL     OW12128   4.572   0.509  10.087
70099SOL    HW112129   4.590   0.540   9.998
70099SOL    HW212130   4.495   0.560  10.115
70100SOL     OW12131   2.002  11.652   8.339
70100SOL    HW112132   1.929  11.699   8.299
70100SOL    HW212133   1.963  11.599   8.408
70101SOL     OW12134   1.300  10.503   7.909
70101SOL    HW112135   1.383  10.456   7.898
70101SOL    HW212136   1.252  10.451   7.973
70102SOL     OW12137  11.457  13.705   2.024
70102SOL    HW112138  11.548  13.685   2.047
70102SOL    HW212139  11.422  13.746   2.103
70103SOL     OW12140   8.880   8.154  14.119
70103SOL    HW112141   8.876   8.115  14.032
70103SOL    HW212142   8.876   8.249  14.103
70104SOL     OW12143  11.672   9.592   6.977
70104SOL    HW112144  11.690   9.553   6.892
70104SOL    HW212145  11.635   9.678   6.957
70105SOL     OW12146   9.884   3.267  14.575
70105SOL    HW112147   9.885   3.201  14.505
70105SOL    HW212148   9.875   3.350  14.529
70106SOL     OW12149  10.657   1.088   8.366
70106SOL    HW112150  10.581   1.145   8.379
70106SOL    HW212151  10.631   1.030   8.295
70107SOL     OW12152   3.190   0.497  13.489
70107SOL    HW112153   3.198   0.581  13.444
70107SOL    HW212154   3.281   0.465  13.497
70108SOL     OW12155  11.284   2.453  11.639
70108SOL    HW112156  11.314   2.511  11.570
70108SOL    HW212157  11.333   2.372  11.627
70109SOL     OW12158  12.746   7.155   9.575
70109SOL    HW112159  12.686   7.155   9.500
70109SOL    HW212160  12.722   7.234   9.624
70110SOL     OW12161   4.978  12.737   8.708
70110SOL    HW112162   5.048  12.787   8.750
70110SOL    HW212163   4.944  12.795   8.640
70111SOL     OW12164   4.154  12.944  10.957
70111SOL    HW112165   4.153  12.873  11.021
70111SOL    HW212166   4.062  12.955  10.932
70112SOL     OW12167   4.860  12.075   9.053
70112SOL    HW112168   4.795  12.050   9.118
70112SOL    HW212169   4.811  12.080   8.971
70113SOL     OW12170   9.449   1.012   8.389
70113SOL    HW112171   9.502   0.963   8.451
70113SOL    HW212172   9.379   0.951   8.364
70114SOL     OW12173   8.430   1.765   0.466
70114SOL    HW112174   8.492   1.831   0.497
70114SOL    HW212175   8.346   1.792   0.502
70115SOL     OW12176   3.845   7.740  13.321
70115SOL    HW112177   3.868   7.718  13.231
70115SOL    HW212178   3.773   7.681  13.343
70116SOL     OW12179  14.162  13.387   8.193
70116SOL    HW112180  14.244  13.378   8.146
70116SOL    HW212181  14.145  13.482   8.193
70117SOL     OW12182  12.914   4.333  14.320
70117SOL    HW112183  12.861   4.286  14.256
70117SOL    HW212184  12.869   4.417  14.332
70118SOL     OW12185   5.642   2.556   9.825
70118SOL    HW112186   5.658   2.474   9.778
70118SOL    HW212187   5.549   2.574   9.810
70119SOL     OW12188  12.828   1.914   8.325
70119SOL    HW112189  12.796   1.845   8.383
70119SOL    HW212190  12.802   1.886   8.237
70120SOL     OW12191  10.464   5.570   5.310
70120SOL    HW112192  10.425   5.483   5.304
70120SOL    HW212193  10.392   5.627   5.339
70121SOL     OW12194   0.726   8.032   5.157
70121SOL    HW112195   0.659   8.021   5.224
70121SOL    HW212196   0.696   8.107   5.105
70122SOL     OW12197   8.086   4.686  11.476
70122SOL    HW112198   8.177   4.684  11.506
70122SOL    HW212199   8.077   4.770  11.432
70123SOL     OW12200   1.398   7.452   1.575
70123SOL    HW112201   1.380   7.364   1.608
70123SOL    HW212202   1.316   7.499   1.586
70124SOL     OW12203  11.991   5.412  13.049
70124SOL    HW112204  11.991   5.380  13.140
70124SOL    HW212205  11.926   5.358  13.005
70125SOL     OW12206   7.467   3.634   3.408
70125SOL    HW112207   7.454   3.665   3.497
70125SOL    HW212208   7.387   3.587   3.386
70126SOL     OW12209   7.505   9.588   1.697
70126SOL    HW112210   7.518   9.493   1.692
70126SOL    HW212211   7.593   9.625   1.694
70127SOL     OW12212   7.817  11.931   9.328
70127SOL    HW112213   7.903  11.890   9.325
70127SOL    HW212214   7.768  11.888   9.257
70128SOL     OW12215   5.780   7.700   2.752
70128SOL    HW112216   5.746   7.627   2.804
70128SOL    HW212217   5.830   7.753   2.815
70129SOL     OW12218   1.766   7.080  14.271
70129SOL    HW112219   1.805   7.146  14.213
70129SOL    HW212220   1.784   6.997  14.228
70130SOL     OW12221   6.056   8.715   6.678
70130SOL    HW112222   6.082   8.721   6.770
70130SOL    HW212223   6.005   8.794   6.662
70131SOL     OW12224  13.530   6.145   1.781
70131SOL    HW112225  13.569   6.189   1.705
70131SOL    HW212226  13.591   6.164   1.852
70132SOL     OW12227   7.724  10.436   5.285
70132SOL    HW112228   7.675  10.466   5.208
70132SOL    HW212229   7.795  10.500   5.294
70133SOL     OW12230  10.786   7.117   6.578
70133SOL    HW112231  10.719   7.066   6.535
70133SOL    HW212232  10.867   7.070   6.562
70134SOL     OW12233   6.251   8.347   7.855
70134SOL    HW112234   6.181   8.409   7.874
70134SOL    HW212235   6.317   8.398   7.809
70135SOL     OW12236   6.006   0.720   9.788
70135SOL    HW112237   6.012   0.811   9.816
70135SOL    HW212238   5.920   0.714   9.745
70136SOL     OW12239  12.733   1.788   1.130
70136SOL    HW112240  12.665   1.837   1.175
70136SOL    HW212241  12.788   1.855   1.089
70137SOL     OW12242   2.759   0.287  13.157
70137SOL    HW112243   2.819   0.213  13.162
70137SOL    HW212244   2.685   0.261  13.213
70138SOL     OW12245   7.412   3.835   8.615
70138SOL    HW112246   7.505   3.831   8.590
70138SOL    HW212247   7.389   3.927   8.607
70139SOL     OW12248   0.149  11.306   2.394
70139SOL    HW112249   0.219  11.242   2.392
70139SOL    HW212250   0.076  11.264   2.350
70140SOL     OW12251   5.252   8.733   7.111
70140SOL    HW112252   5.186   8.696   7.053
70140SOL    HW212253   5.329   8.676   7.100
70141SOL     OW12254   7.075   1.245   5.794
70141SOL    HW112255   7.108   1.157   5.811
70141SOL    HW212256   7.134   1.280   5.727
70142SOL     OW12257  11.382   1.890   2.147
70142SOL    HW112258  11.457   1.925   2.194
70142SOL    HW212259  11.323   1.857   2.215
70143SOL     OW12260   9.021  11.403  13.983
70143SOL    HW112261   9.114  11.386  13.997
70143SOL    HW212262   9.018  11.488  13.938
70144SOL     OW12263   2.412   6.293   9.048
70144SOL    HW112264   2.359   6.276   8.970
70144SOL    HW212265   2.469   6.366   9.023
70145SOL     OW12266   8.516   6.373   4.050
70145SOL    HW112267   8.459   6.324   3.990
70145SOL    HW212268   8.567   6.306   4.094
70146SOL     OW12269  13.728   4.350  11.818
70146SOL    HW112270  13.654   4.342  11.878
70146SOL    HW212271  13.793   4.289  11.853
70147SOL     OW12272   8.416  10.054  12.780
70147SOL    HW112273   8.426  10.109  12.702
70147SOL    HW212274   8.361  10.105  12.839
70148SOL     OW12275   4.563   4.062   8.219
70148SOL    HW112276   4.524   4.146   8.245
70148SOL    HW212277   4.593   4.023   8.301
70149SOL     OW12278  11.012   7.353   1.003
70149SOL    HW112279  11.030   7.335   0.911
70149SOL    HW212280  10.927   7.311   1.019
70150SOL     OW12281   7.514  14.091   6.523
70150SOL    HW112282   7.523  14.087   6.619
70150SOL    HW212283   7.451  14.162   6.509
70151SOL     OW12284  10.418   1.634   0.138
70151SOL    HW112285  10.482   1.565   0.120
70151SOL    HW212286  10.333   1.591   0.124
70152SOL     OW12287   8.542   0.539   8.349
70152SOL    HW112288   8.523   0.468   8.410
70152SOL    HW212289   8.628   0.571   8.376
70153SOL     OW12290   4.168   6.718   5.898
70153SOL    HW112291   4.170   6.813   5.893
70153SOL    HW212292   4.086   6.693   5.854
70154SOL     OW12293   7.690   3.563   2.820
70154SOL    HW112294   7.729   3.534   2.902
70154SOL    HW212295   7.649   3.485   2.783
70155SOL     OW12296   6.404   5.486   3.637
70155SOL    HW112297   6.353   5.417   3.593
70155SOL    HW212298   6.354   5.566   3.622
70156SOL     OW12299   4.741   9.276   0.544
70156SOL    HW112300   4.689   9.234   0.476
70156SOL    HW212301   4.829   9.242   0.532
70157SOL     OW12302   9.105   3.583   4.821
70157SOL    HW112303   9.132   3.556   4.733
70157SOL    HW212304   9.127   3.676   4.825
70158SOL     OW12305  13.338   4.350  10.615
70158SOL    HW112306  13.368   4.266  10.648
70158SOL    HW212307  13.282   4.327  10.540
70159SOL     OW12308   1.454   7.145  14.697
70159SOL    HW112309   1.504   7.145  14.615
70159SOL    HW212310   1.453   7.236  14.724
70160SOL     OW12311   6.700   5.127   0.975
70160SOL    HW112312   6.683   5.042   1.016
70160SOL    HW212313   6.614   5.169   0.972
70161SOL     OW12314   9.349   0.475   8.434
70161SOL    HW112315   9.322   0.556   8.476
70161SOL    HW212316   9.278   0.453   8.374
70162SOL     OW12317   4.039   3.071  11.623
70162SOL    HW112318   3.954   3.099  11.588
70162SOL    HW212319   4.071   3.148  11.670
70163SOL     OW12320   5.740   5.903  11.370
70163SOL    HW112321   5.823   5.950  11.379
70163SOL    HW212322   5.715   5.880  11.459
70164SOL     OW12323   5.961   2.303  14.725
70164SOL    HW112324   5.976   2.395  14.703
70164SOL    HW212325   5.891   2.305  14.790
70165SOL     OW12326  11.984  10.294   1.256
70165SOL    HW112327  11.972  10.240   1.178
70165SOL    HW212328  12.078  10.307   1.263
70166SOL     OW12329   9.658   9.678  12.739
70166SOL    HW112330   9.674   9.629  12.659
70166SOL    HW212331   9.644   9.768  12.710
70167SOL     OW12332  12.743  10.586  14.675
70167SOL    HW112333  12.650  10.584  14.654
70167SOL    HW212334  12.746  10.605  14.769
70168SOL     OW12335  10.118   3.126   4.003
70168SOL    HW112336  10.212   3.119   4.020
70168SOL    HW212337  10.078   3.068   4.067
70169SOL     OW12338   7.318   1.656   4.029
70169SOL    HW112339   7.264   1.691   4.100
70169SOL    HW212340   7.346   1.570   4.060
70170SOL     OW12341  14.803  14.461  12.114
70170SOL    HW112342  14.735  14.486  12.052
70170SOL    HW212343  14.823  14.370  12.092
70171SOL     OW12344  13.243   6.408  13.601
70171SOL    HW112345  13.296   6.338  13.562
70171SOL    HW212346  13.195   6.446  13.528
70172SOL     OW12347   0.162   4.513  13.860
70172SOL    HW112348   0.164   4.606  13.837
70172SOL    HW212349   0.171   4.512  13.956
70173SOL     OW12350   1.240   5.253  11.378
70173SOL    HW112351   1.267   5.247  11.287
70173SOL    HW212352   1.320   5.238  11.428
70174SOL     OW12353   3.005   7.516   2.740
70174SOL    HW112354   3.076   7.508   2.804
70174SOL    HW212355   2.977   7.608   2.746
70175SOL     OW12356  12.685  12.697  14.801
70175SOL    HW112357  12.741  12.729  14.872
70175SOL    HW212358  12.627  12.634  14.844
70176SOL     OW12359   6.278  14.647   9.479
70176SOL    HW112360   6.223  14.675   9.552
70176SOL    HW212361   6.321  14.727   9.449
70177SOL     OW12362   2.006   2.359  14.101
70177SOL    HW112363   1.951   2.355  14.023
70177SOL    HW212364   2.085   2.310  14.076
70178SOL     OW12365   3.387  11.913   0.656
70178SOL    HW112366   3.433  11.984   0.701
70178SOL    HW212367   3.420  11.916   0.566
70179SOL     OW12368   7.509   9.958  14.384
70179SOL    HW112369   7.554   9.886  14.428
70179SOL    HW212370   7.520  10.033  14.443
70180SOL     OW12371  11.736   0.434  13.222
70180SOL    HW112372  11.815   0.484  13.203
70180SOL    HW212373  11.679   0.495  13.269
70181SOL     OW12374  12.391   2.702   6.972
70181SOL    HW112375  12.332   2.629   6.953
70181SOL    HW212376  12.464   2.661   7.018
70182SOL     OW12377   4.956   3.438   0.639
70182SOL    HW112378   4.882   3.378   0.630
70182SOL    HW212379   4.957   3.462   0.731
70183SOL     OW12380  12.761   5.549   7.456
70183SOL    HW112381  12.789   5.636   7.482
70183SOL    HW212382  12.697   5.523   7.522
70184SOL     OW12383   0.818   4.011  12.812
70184SOL    HW112384   0.746   4.023  12.874
70184SOL    HW212385   0.815   4.089  12.757
70185SOL     OW12386   1.006   8.725   6.101
70185SOL    HW112387   1.102   8.724   6.100
70185SOL    HW212388   0.980   8.658   6.038
70186SOL     OW12389   6.465   4.267   3.540
70186SOL    HW112390   6.456   4.322   3.619
70186SOL    HW212391   6.376   4.261   3.505
70187SOL     OW12392  14.695   3.982  12.332
70187SOL    HW112393  14.788   3.970  12.350
70187SOL    HW212394  14.654   3.983  12.419
70188SOL     OW12395   1.231   7.093   9.946
70188SOL    HW112396   1.246   7.185   9.922
70188SOL    HW212397   1.223   7.095  10.042
70189SOL     OW12398   8.696   2.076  12.480
70189SOL    HW112399   8.667   2.161  12.515
70189SOL    HW212400   8.707   2.021  12.557
70190SOL     OW12401   4.006   0.895   3.914
70190SOL    HW112402   3.935   0.859   3.969
70190SOL    HW212403   3.963   0.961   3.860
70191SOL     OW12404   7.883  12.369   4.365
70191SOL    HW112405   7.962  12.345   4.317
70191SOL    HW212406   7.866  12.295   4.423
70192SOL     OW12407  11.744   5.419   8.020
70192SOL    HW112408  11.834   5.389   8.031
70192SOL    HW212409  11.710   5.367   7.948
70193SOL     OW12410  11.719  12.700   0.400
70193SOL    HW112411  11.768  12.731   0.323
70193SOL    HW212412  11.782  12.704   0.472
70194SOL     OW12413   3.671  14.395   0.501
70194SOL    HW112414   3.736  14.440   0.556
70194SOL    HW212415   3.682  14.435   0.414
70195SOL     OW12416   6.747  12.361   2.119
70195SOL    HW112417   6.691  12.423   2.167
70195SOL    HW212418   6.710  12.359   2.031
70196SOL     OW12419  10.067  13.079  14.861
70196SOL    HW112420  10.077  13.155   0.047
70196SOL    HW212421  10.015  13.016   0.040
70197SOL     OW12422   7.212   4.084   4.299
70197SOL    HW112423   7.125   4.091   4.339
70197SOL    HW212424   7.199   4.029   4.222
70198SOL     OW12425   2.351  12.935   4.199
70198SOL    HW112426   2.405  12.936   4.121
70198SOL    HW212427   2.394  12.996   4.259
70199SOL     OW12428  11.905   6.953   8.557
70199SOL    HW112429  11.922   6.914   8.472
70199SOL    HW212430  11.810   6.966   8.559
70200SOL     OW12431   6.730   4.048  10.516
70200SOL    HW112432   6.672   4.120  10.489
70200SOL    HW212433   6.803   4.091  10.559
70201SOL     OW12434   0.875   7.776   8.016
70201SOL    HW112435   0.919   7.704   7.971
70201SOL    HW212436   0.782   7.760   8.003
70202SOL     OW12437  11.981  14.104  12.232
70202SOL    HW112438  11.963  14.168  12.163
70202SOL    HW212439  12.043  14.043  12.194
70203SOL     OW12440  11.790   5.159  12.009
70203SOL    HW112441  11.807   5.080  12.059
70203SOL    HW212442  11.694   5.164  12.003
70204SOL     OW12443   0.640   5.977   4.354
70204SOL    HW112444   0.643   6.048   4.419
70204SOL    HW212445   0.663   5.898   4.403
70205SOL     OW12446   0.113   7.430   6.213
70205SOL    HW112447   0.034   7.394   6.254
70205SOL    HW212448   0.090   7.521   6.194
70206SOL     OW12449   9.334   4.789   4.131
70206SOL    HW112450   9.309   4.879   4.150
70206SOL    HW212451   9.408   4.797   4.070
70207SOL     OW12452   5.966  13.817   0.250
70207SOL    HW112453   5.899  13.885   0.250
70207SOL    HW212454   5.985  13.801   0.157
70208SOL     OW12455   0.031   1.848  11.057
70208SOL    HW112456  14.831   1.791  11.031
70208SOL    HW212457   0.056   1.895  10.977
70209SOL     OW12458   4.863  11.364  12.647
70209SOL    HW112459   4.949  11.366  12.687
70209SOL    HW212460   4.805  11.403  12.712
70210SOL     OW12461   7.419  11.706  14.266
70210SOL    HW112462   7.502  11.735  14.228
70210SOL    HW212463   7.443  11.638  14.329
70211SOL     OW12464   2.637  14.222   1.880
70211SOL    HW112465   2.640  14.313   1.852
70211SOL    HW212466   2.720  14.185   1.850
70212SOL     OW12467   9.448  13.146   1.692
70212SOL    HW112468   9.525  13.162   1.636
70212SOL    HW212469   9.481  13.091   1.763
70213SOL     OW12470   5.171  14.774   1.254
70213SOL    HW112471   5.267  14.778   1.247
70213SOL    HW212472   5.140  14.852   1.209
70214SOL     OW12473   8.343   4.088   8.983
70214SOL    HW112474   8.286   4.028   9.031
70214SOL    HW212475   8.355   4.162   9.043
70215SOL     OW12476   5.774   5.808   1.138
70215SOL    HW112477   5.781   5.713   1.149
70215SOL    HW212478   5.864   5.836   1.121
70216SOL     OW12479   1.956   7.839   9.085
70216SOL    HW112480   1.889   7.818   9.019
70216SOL    HW212481   1.910   7.834   9.168
70217SOL     OW12482   4.305   5.847  11.660
70217SOL    HW112483   4.387   5.804  11.686
70217SOL    HW212484   4.242   5.775  11.654
70218SOL     OW12485   8.300   9.303   0.137
70218SOL    HW112486   8.311   9.212   0.109
70218SOL    HW212487   8.383   9.324   0.182
70219SOL     OW12488   9.934   2.504   3.231
70219SOL    HW112489   9.889   2.441   3.287
70219SOL    HW212490  10.021   2.514   3.269
70220SOL     OW12491   7.029   5.137  10.366
70220SOL    HW112492   7.070   5.166  10.284
70220SOL    HW212493   7.100   5.097  10.415
70221SOL     OW12494  12.516   7.467   3.059
70221SOL    HW112495  12.504   7.562   3.058
70221SOL    HW212496  12.450   7.435   2.997
70222SOL     OW12497   4.065   2.940   1.497
70222SOL    HW112498   4.030   2.982   1.419
70222SOL    HW212499   4.014   2.860   1.508
70223SOL     OW12500  11.513   6.581   8.360
70223SOL    HW112501  11.563   6.514   8.406
70223SOL    HW212502  11.453   6.532   8.304
70224SOL     OW12503  10.535  14.556   7.125
70224SOL    HW112504  10.470  14.556   7.054
70224SOL    HW212505  10.581  14.473   7.117
70225SOL     OW12506  14.113  13.522  14.281
70225SOL    HW112507  14.207  13.519  14.299
70225SOL    HW212508  14.103  13.593  14.218
70226SOL     OW12509   5.407  14.268   2.547
70226SOL    HW112510   5.428  14.355   2.579
70226SOL    HW212511   5.437  14.268   2.456
70227SOL     OW12512   1.032   2.016  13.957
70227SOL    HW112513   1.028   2.003  13.862
70227SOL    HW212514   1.047   2.110  13.967
70228SOL     OW12515   7.415   7.697   3.948
70228SOL    HW112516   7.345   7.703   4.014
70228SOL    HW212517   7.448   7.787   3.941
70229SOL     OW12518   1.926  10.060  10.732
70229SOL    HW112519   1.832  10.077  10.740
70229SOL    HW212520   1.935  10.009  10.652
70230SOL     OW12521   1.973   2.603  10.749
70230SOL    HW112522   1.942   2.528  10.800
70230SOL    HW212523   1.895   2.655  10.732
70231SOL     OW12524  12.238   3.075  13.049
70231SOL    HW112525  12.227   2.981  13.039
70231SOL    HW212526  12.172   3.101  13.113
70232SOL     OW12527  10.380  11.438   3.623
70232SOL    HW112528  10.375  11.388   3.704
70232SOL    HW212529  10.401  11.527   3.650
70233SOL     OW12530   1.557  14.405  12.345
70233SOL    HW112531   1.648  14.422  12.321
70233SOL    HW212532   1.528  14.338  12.284
70234SOL     OW12533  10.145  13.448  11.589
70234SOL    HW112534  10.215  13.510  11.569
70234SOL    HW212535  10.068  13.483  11.544
70235SOL     OW12536   1.348  13.304   7.339
70235SOL    HW112537   1.404  13.287   7.415
70235SOL    HW212538   1.353  13.223   7.288
70236SOL     OW12539  13.020   2.336   1.759
70236SOL    HW112540  13.088   2.398   1.733
70236SOL    HW212541  12.942   2.364   1.712
70237SOL     OW12542   4.083   4.671   5.217
70237SOL    HW112543   4.101   4.694   5.126
70237SOL    HW212544   3.987   4.669   5.223
70238SOL     OW12545   7.613   4.474  12.191
70238SOL    HW112546   7.583   4.417  12.261
70238SOL    HW212547   7.534   4.522  12.164
70239SOL     OW12548  11.317   8.194  13.819
70239SOL    HW112549  11.370   8.115  13.816
70239SOL    HW212550  11.308   8.221  13.727
70240SOL     OW12551   2.489  11.302   5.702
70240SOL    HW112552   2.413  11.245   5.693
70240SOL    HW212553   2.553  11.267   5.641
70241SOL     OW12554  13.991   4.921   5.654
70241SOL    HW112555  13.995   4.989   5.587
70241SOL    HW212556  13.921   4.949   5.713
70242SOL     OW12557   0.638   4.611  10.783
70242SOL    HW112558   0.582   4.589  10.857
70242SOL    HW212559   0.658   4.704  10.794
70243SOL     OW12560  11.958   6.593  12.957
70243SOL    HW112561  11.983   6.685  12.950
70243SOL    HW212562  11.980   6.556  12.871
70244SOL     OW12563   2.844   3.107   1.212
70244SOL    HW112564   2.866   3.050   1.285
70244SOL    HW212565   2.851   3.051   1.134
70245SOL     OW12566  14.764   6.106  11.893
70245SOL    HW112567  14.728   6.172  11.834
70245SOL    HW212568  14.745   6.139  11.981
70246SOL     OW12569   4.947   0.224   4.261
70246SOL    HW112570   4.866   0.252   4.304
70246SOL    HW212571   5.003   0.302   4.261
70247SOL     OW12572   3.787  10.578  13.590
70247SOL    HW112573   3.727  10.526  13.643
70247SOL    HW212574   3.816  10.648  13.648
70248SOL     OW12575   9.148   4.463   6.341
70248SOL    HW112576   9.202   4.415   6.277
70248SOL    HW212577   9.125   4.397   6.406
70249SOL     OW12578   4.890   7.165   0.564
70249SOL    HW112579   4.840   7.088   0.537
70249SOL    HW212580   4.889   7.222   0.487
70250SOL     OW12581   9.127   7.501   3.835
70250SOL    HW112582   9.153   7.516   3.744
70250SOL    HW212583   9.143   7.584   3.879
70251SOL     OW12584  11.430   4.146   9.230
70251SOL    HW112585  11.398   4.218   9.175
70251SOL    HW212586  11.355   4.123   9.285
70252SOL     OW12587   0.283   6.779   6.827
70252SOL    HW112588   0.362   6.785   6.773
70252SOL    HW212589   0.235   6.859   6.808
70253SOL     OW12590   7.349   6.840   4.484
70253SOL    HW112591   7.283   6.882   4.429
70253SOL    HW212592   7.427   6.893   4.473
70254SOL     OW12593   0.178   4.093   4.717
70254SOL    HW112594   0.184   4.110   4.623
70254SOL    HW212595   0.107   4.030   4.725
70255SOL     OW12596  11.626  12.137   2.889
70255SOL    HW112597  11.634  12.068   2.823
70255SOL    HW212598  11.634  12.219   2.841
70256SOL     OW12599   9.139   7.874   8.575
70256SOL    HW112600   9.075   7.807   8.597
70256SOL    HW212601   9.216   7.852   8.627
70257SOL     OW12602  11.915  11.476  11.395
70257SOL    HW112603  11.840  11.492  11.338
70257SOL    HW212604  11.911  11.546  11.459
70258SOL     OW12605   6.349   3.872   8.885
70258SOL    HW112606   6.291   3.824   8.827
70258SOL    HW212607   6.291   3.908   8.952
70259SOL     OW12608  13.493  14.647   6.492
70259SOL    HW112609  13.449  14.707   6.432
70259SOL    HW212610  13.583  14.679   6.498
70260SOL     OW12611   9.765   9.802   0.628
70260SOL    HW112612   9.721   9.848   0.699
70260SOL    HW212613   9.732   9.844   0.548
70261SOL     OW12614   9.142   4.982   5.943
70261SOL    HW112615   9.161   4.988   5.849
70261SOL    HW212616   9.197   5.050   5.983
70262SOL     OW12617   6.951   9.261  11.453
70262SOL    HW112618   6.947   9.354  11.477
70262SOL    HW212619   6.922   9.215  11.532
70263SOL     OW12620  14.282   1.945   0.604
70263SOL    HW112621  14.196   1.921   0.570
70263SOL    HW212622  14.312   2.015   0.547
70264SOL     OW12623  10.831  11.198  13.727
70264SOL    HW112624  10.737  11.202  13.709
70264SOL    HW212625  10.839  11.230  13.817
70265SOL     OW12626   3.798   8.989   5.207
70265SOL    HW112627   3.864   9.051   5.238
70265SOL    HW212628   3.736   8.982   5.280
70266SOL     OW12629   2.903   6.204  13.978
70266SOL    HW112630   2.925   6.262  13.905
70266SOL    HW212631   2.972   6.137  13.977
70267SOL     OW12632  13.969   3.112   8.122
70267SOL    HW112633  13.883   3.121   8.164
70267SOL    HW212634  14.004   3.030   8.157
70268SOL     OW12635   1.072   1.042   3.465
70268SOL    HW112636   1.027   1.016   3.384
70268SOL    HW212637   1.100   0.959   3.505
70269SOL     OW12638  12.972   9.414   8.337
70269SOL    HW112639  13.057   9.368   8.332
70269SOL    HW212640  12.955   9.422   8.431
70270SOL     OW12641  14.182   1.263   7.790
70270SOL    HW112642  14.101   1.221   7.763
70270SOL    HW212643  14.220   1.296   7.708
70271SOL     OW12644   8.011  13.186   8.741
70271SOL    HW112645   8.103  13.162   8.751
70271SOL    HW212646   7.999  13.200   8.647
70272SOL     OW12647   3.922   5.326   7.727
70272SOL    HW112648   4.005   5.291   7.695
70272SOL    HW212649   3.918   5.415   7.690
70273SOL     OW12650   6.205   4.265   0.918
70273SOL    HW112651   6.211   4.188   0.863
70273SOL    HW212652   6.283   4.317   0.896
70274SOL     OW12653   3.881   4.700   1.386
70274SOL    HW112654   3.839   4.767   1.332
70274SOL    HW212655   3.810   4.643   1.414
70275SOL     OW12656  14.534   7.851   6.535
70275SOL    HW112657  14.441   7.871   6.544
70275SOL    HW212658  14.572   7.875   6.619
70276SOL     OW12659   1.890   7.550   7.666
70276SOL    HW112660   1.836   7.511   7.597
70276SOL    HW212661   1.953   7.481   7.688
70277SOL     OW12662   5.341  14.117  10.568
70277SOL    HW112663   5.415  14.176  10.556
70277SOL    HW212664   5.375  14.043  10.617
70278SOL     OW12665   5.060   0.314  12.170
70278SOL    HW112666   4.983   0.301  12.225
70278SOL    HW212667   5.066   0.409  12.159
70279SOL     OW12668  10.648   1.632   1.775
70279SOL    HW112669  10.558   1.653   1.799
70279SOL    HW212670  10.697   1.713   1.789
70280SOL     OW12671   4.820   7.796   0.386
70280SOL    HW112672   4.800   7.833   0.301
70280SOL    HW212673   4.734   7.779   0.426
70281SOL     OW12674   1.981  13.783   0.983
70281SOL    HW112675   1.963  13.793   1.076
70281SOL    HW212676   2.071  13.751   0.979
70282SOL     OW12677   5.244   6.721   2.375
70282SOL    HW112678   5.282   6.642   2.413
70282SOL    HW212679   5.293   6.793   2.415
70283SOL     OW12680   5.227   7.388  10.213
70283SOL    HW112681   5.152   7.401  10.272
70283SOL    HW212682   5.304   7.402  10.268
70284SOL     OW12683  10.369  11.208   3.828
70284SOL    HW112684  10.285  11.243   3.856
70284SOL    HW212685  10.429  11.230   3.899
70285SOL     OW12686   6.531   2.652   0.876
70285SOL    HW112687   6.539   2.678   0.968
70285SOL    HW212688   6.471   2.716   0.838
70286SOL     OW12689   5.632  10.753   2.148
70286SOL    HW112690   5.645  10.706   2.230
70286SOL    HW212691   5.541  10.784   2.152
70287SOL     OW12692   6.970  13.566   6.642
70287SOL    HW112693   6.884  13.605   6.656
70287SOL    HW212694   7.021  13.592   6.718
70288SOL     OW12695  13.721   6.434   4.625
70288SOL    HW112696  13.757   6.509   4.578
70288SOL    HW212697  13.768   6.358   4.590
70289SOL     OW12698   3.408   9.717   6.002
70289SOL    HW112699   3.349   9.791   6.015
70289SOL    HW212700   3.490   9.757   5.971
70290SOL     OW12701   7.665   8.438   3.435
70290SOL    HW112702   7.640   8.351   3.405
70290SOL    HW212703   7.738   8.423   3.496
70291SOL     OW12704   5.031   0.783   3.337
70291SOL    HW112705   5.116   0.807   3.300
70291SOL    HW212706   4.988   0.867   3.355
70292SOL     OW12707   8.745   4.182   9.207
70292SOL    HW112708   8.682   4.199   9.278
70292SOL    HW212709   8.691   4.182   9.128
70293SOL     OW12710   5.304  11.048   7.357
70293SOL    HW112711   5.380  11.055   7.414
70293SOL    HW212712   5.249  11.123   7.382
70294SOL     OW12713   1.004   2.106   1.330
70294SOL    HW112714   1.028   2.129   1.419
70294SOL    HW212715   1.083   2.070   1.292
70295SOL     OW12716  12.583   4.081   7.485
70295SOL    HW112717  12.557   4.143   7.553
70295SOL    HW212718  12.503   4.063   7.437
70296SOL     OW12719   4.559   1.007  11.219
70296SOL    HW112720   4.596   0.919  11.207
70296SOL    HW212721   4.565   1.047  11.132
70297SOL     OW12722   2.062   8.414   8.314
70297SOL    HW112723   2.073   8.508   8.329
70297SOL    HW212724   2.133   8.390   8.255
70298SOL     OW12725  10.936   8.343  14.634
70298SOL    HW112726  10.995   8.370  14.704
70298SOL    HW212727  10.981   8.271  14.590
70299SOL     OW12728  13.812  12.877   4.847
70299SOL    HW112729  13.795  12.829   4.928
70299SOL    HW212730  13.763  12.829   4.780
70300SOL     OW12731   9.025   9.354   1.814
70300SOL    HW112732   9.061   9.363   1.726
70300SOL    HW212733   8.994   9.441   1.837
70301SOL     OW12734   7.888  13.845  11.160
70301SOL    HW112735   7.847  13.773  11.207
70301SOL    HW212736   7.823  13.915  11.162
70302SOL     OW12737   4.934   9.958  13.260
70302SOL    HW112738   4.996   9.904  13.307
70302SOL    HW212739   4.974  10.045  13.258
70303SOL     OW12740  13.171   3.560  11.258
70303SOL    HW112741  13.171   3.551  11.353
70303SOL    HW212742  13.219   3.641  11.241
70304SOL     OW12743  10.932  14.741  10.901
70304SOL    HW112744  11.013  14.704  10.865
70304SOL    HW212745  10.961  14.791  10.978
70305SOL     OW12746   5.405   7.583   4.781
70305SOL    HW112747   5.311   7.600   4.785
70305SOL    HW212748   5.434   7.582   4.872
70306SOL     OW12749  11.244   8.442  12.599
70306SOL    HW112750  11.273   8.493  12.524
70306SOL    HW212751  11.200   8.366  12.560
70307SOL     OW12752   4.346   0.026   3.931
70307SOL    HW112753   4.330   0.083   3.856
70307SOL    HW212754   4.437  14.871   3.922
70308SOL     OW12755  10.315   1.749   0.483
70308SOL    HW112756  10.333   1.812   0.553
70308SOL    HW212757  10.310   1.802   0.403
70309SOL     OW12758   7.883  10.550  12.959
70309SOL    HW112759   7.799  10.593  12.944
70309SOL    HW212760   7.910  10.519  12.873
70310SOL     OW12761  11.857  12.802   3.884
70310SOL    HW112762  11.913  12.872   3.852
70310SOL    HW212763  11.784  12.847   3.926
70311SOL     OW12764   9.145   4.574  13.004
70311SOL    HW112765   9.119   4.498  13.056
70311SOL    HW212766   9.225   4.606  13.046
70312SOL     OW12767   8.689   3.726   5.557
70312SOL    HW112768   8.769   3.702   5.511
70312SOL    HW212769   8.718   3.787   5.625
70313SOL     OW12770   3.923   2.102  11.601
70313SOL    HW112771   3.899   2.188  11.636
70313SOL    HW212772   3.881   2.098  11.516
70314SOL     OW12773   2.054   4.154   3.150
70314SOL    HW112774   2.125   4.095   3.123
70314SOL    HW212775   2.099   4.230   3.186
70315SOL     OW12776  10.864  13.341   5.341
70315SOL    HW112777  10.904  13.392   5.271
70315SOL    HW212778  10.837  13.406   5.406
70316SOL     OW12779   4.533  13.760   4.966
70316SOL    HW112780   4.582  13.839   4.945
70316SOL    HW212781   4.546  13.747   5.060
70317SOL     OW12782  14.078   6.458   3.964
70317SOL    HW112783  14.113   6.456   4.053
70317SOL    HW212784  14.053   6.550   3.950
70318SOL     OW12785   6.230   7.100  13.947
70318SOL    HW112786   6.318   7.114  13.912
70318SOL    HW212787   6.184   7.182  13.931
70319SOL     OW12788  11.785   6.588  10.968
70319SOL    HW112789  11.742   6.670  10.991
70319SOL    HW212790  11.876   6.600  10.994
70320SOL     OW12791   6.632  11.439   4.607
70320SOL    HW112792   6.578  11.361   4.602
70320SOL    HW212793   6.570  11.512   4.599
70321SOL     OW12794   1.749   6.835   5.229
70321SOL    HW112795   1.711   6.922   5.239
70321SOL    HW212796   1.809   6.826   5.303
70322SOL     OW12797   9.032   2.042  12.041
70322SOL    HW112798   9.088   2.113  12.073
70322SOL    HW212799   8.958   2.086  11.999
70323SOL     OW12800  11.434  10.825  11.261
70323SOL    HW112801  11.366  10.769  11.300
70323SOL    HW212802  11.479  10.768  11.198
70324SOL     OW12803   7.429  12.697   2.088
70324SOL    HW112804   7.459  12.731   2.172
70324SOL    HW212805   7.447  12.603   2.091
70325SOL     OW12806   3.104  10.079  10.901
70325SOL    HW112807   3.122  10.112  10.989
70325SOL    HW212808   3.128   9.986  10.905
70326SOL     OW12809   7.440  11.811   1.386
70326SOL    HW112810   7.524  11.769   1.368
70326SOL    HW212811   7.387  11.743   1.427
70327SOL     OW12812   3.510  10.784   7.213
70327SOL    HW112813   3.475  10.862   7.171
70327SOL    HW212814   3.440  10.753   7.271
70328SOL     OW12815  14.383   2.956   8.211
70328SOL    HW112816  14.288   2.953   8.224
70328SOL    HW212817  14.419   2.909   8.286
70329SOL     OW12818  14.506   8.156   2.279
70329SOL    HW112819  14.558   8.234   2.298
70329SOL    HW212820  14.570   8.084   2.276
70330SOL     OW12821   4.819  13.675  13.504
70330SOL    HW112822   4.886  13.641  13.562
70330SOL    HW212823   4.785  13.753  13.548
70331SOL     OW12824   9.785  14.737   4.804
70331SOL    HW112825   9.690  14.723   4.801
70331SOL    HW212826   9.799  14.789   4.883
70332SOL     OW12827  13.282  11.279   1.517
70332SOL    HW112828  13.296  11.372   1.532
70332SOL    HW212829  13.313  11.265   1.427
70333SOL     OW12830   9.454   6.046   3.680
70333SOL    HW112831   9.388   6.035   3.748
70333SOL    HW212832   9.512   5.971   3.690
70334SOL     OW12833   6.897  13.433   1.933
70334SOL    HW112834   6.921  13.344   1.957
70334SOL    HW212835   6.934  13.445   1.846
70335SOL     OW12836   9.729   5.230  14.298
70335SOL    HW112837   9.803   5.254  14.354
70335SOL    HW212838   9.679   5.168  14.350
70336SOL     OW12839   6.461   5.616   3.901
70336SOL    HW112840   6.466   5.709   3.876
70336SOL    HW212841   6.431   5.572   3.821
70337SOL     OW12842  11.092  11.155   1.474
70337SOL    HW112843  11.074  11.238   1.519
70337SOL    HW212844  11.008  11.109   1.475
70338SOL     OW12845  13.984   4.289   3.423
70338SOL    HW112846  14.004   4.314   3.513
70338SOL    HW212847  13.994   4.194   3.421
70339SOL     OW12848   4.640   2.911   4.569
70339SOL    HW112849   4.699   2.910   4.494
70339SOL    HW212850   4.599   2.825   4.568
70340SOL     OW12851   4.773  11.854   8.840
70340SOL    HW112852   4.835  11.820   8.904
70340SOL    HW212853   4.696  11.879   8.893
70341SOL     OW12854  10.446   6.148  13.015
70341SOL    HW112855  10.454   6.146  12.920
70341SOL    HW212856  10.352   6.164  13.031
70342SOL     OW12857  10.497  10.072   5.431
70342SOL    HW112858  10.402  10.065   5.438
70342SOL    HW212859  10.513  10.104   5.342
70343SOL     OW12860  13.260   2.440   2.858
70343SOL    HW112861  13.313   2.401   2.928
70343SOL    HW212862  13.227   2.522   2.895
70344SOL     OW12863  10.056   3.326   6.319
70344SOL    HW112864  10.095   3.377   6.248
70344SOL    HW212865  10.033   3.391   6.385
70345SOL     OW12866   5.667   8.524   0.214
70345SOL    HW112867   5.688   8.526   0.121
70345SOL    HW212868   5.697   8.609   0.247
70346SOL     OW12869   0.873   2.415   1.698
70346SOL    HW112870   0.934   2.486   1.679
70346SOL    HW212871   0.891   2.390   1.788
70347SOL     OW12872  10.438   9.877   9.801
70347SOL    HW112873  10.387   9.827   9.738
70347SOL    HW212874  10.450   9.818   9.875
70348SOL     OW12875   3.134  12.176   3.800
70348SOL    HW112876   3.110  12.126   3.878
70348SOL    HW212877   3.179  12.113   3.744
70349SOL     OW12878   7.000   8.584   7.305
70349SOL    HW112879   7.058   8.627   7.368
70349SOL    HW212880   7.020   8.491   7.312
70350SOL     OW12881   8.304  14.179   0.638
70350SOL    HW112882   8.246  14.109   0.608
70350SOL    HW212883   8.390  14.156   0.603
70351SOL     OW12884  11.647   2.567   9.893
70351SOL    HW112885  11.558   2.583   9.861
70351SOL    HW212886  11.660   2.473   9.879
70352SOL     OW12887   8.039   7.363   1.375
70352SOL    HW112888   8.066   7.365   1.467
70352SOL    HW212889   7.976   7.435   1.368
70353SOL     OW12890  14.008   9.512   1.146
70353SOL    HW112891  13.934   9.521   1.085
70353SOL    HW212892  14.078   9.564   1.106
70354SOL     OW12893  11.245   3.536  14.824
70354SOL    HW112894  11.204   3.595   0.014
70354SOL    HW212895  11.272   3.592  14.751
70355SOL     OW12896   7.698   8.487   9.601
70355SOL    HW112897   7.728   8.408   9.557
70355SOL    HW212898   7.665   8.543   9.531
70356SOL     OW12899   3.978  12.164   5.717
70356SOL    HW112900   3.970  12.254   5.685
70356SOL    HW212901   3.953  12.109   5.643
70357SOL     OW12902  14.825   1.754   3.824
70357SOL    HW112903   0.038   1.781   3.860
70357SOL    HW212904  14.842   1.739   3.731
70358SOL     OW12905   5.204   6.899   9.631
70358SOL    HW112906   5.147   6.973   9.611
70358SOL    HW212907   5.212   6.900   9.726
70359SOL     OW12908   9.897   2.012  13.402
70359SOL    HW112909   9.914   1.966  13.484
70359SOL    HW212910   9.802   2.006  13.390
70360SOL     OW12911   1.790   0.021   9.407
70360SOL    HW112912   1.787  14.803   9.440
70360SOL    HW212913   1.773   0.012   9.313
70361SOL     OW12914   4.169  12.992  12.570
70361SOL    HW112915   4.239  12.940  12.530
70361SOL    HW212916   4.215  13.054  12.626
70362SOL     OW12917   7.110   6.426  10.717
70362SOL    HW112918   7.205   6.415  10.715
70362SOL    HW212919   7.091   6.477  10.638
70363SOL     OW12920   8.281  12.211  11.408
70363SOL    HW112921   8.197  12.258  11.414
70363SOL    HW212922   8.260  12.121  11.435
70364SOL     OW12923   7.396  14.328   6.422
70364SOL    HW112924   7.310  14.369   6.430
70364SOL    HW212925   7.434  14.366   6.343
70365SOL     OW12926  11.859   4.514   7.605
70365SOL    HW112927  11.938   4.515   7.659
70365SOL    HW212928  11.879   4.453   7.534
70366SOL     OW12929   0.889  12.333   6.908
70366SOL    HW112930   0.900  12.244   6.942
70366SOL    HW212931   0.969  12.348   6.857
70367SOL     OW12932   1.747   4.245   6.223
70367SOL    HW112933   1.829   4.293   6.223
70367SOL    HW212934   1.696   4.284   6.294
70368SOL     OW12935   5.620  11.832   4.396
70368SOL    HW112936   5.602  11.868   4.483
70368SOL    HW212937   5.675  11.898   4.354
70369SOL     OW12938   0.012   0.916  12.549
70369SOL    HW112939   0.093   0.889  12.592
70369SOL    HW212940  14.817   0.908  12.617
70370SOL     OW12941  14.222   4.795   9.465
70370SOL    HW112942  14.289   4.847   9.510
70370SOL    HW212943  14.185   4.856   9.400
70371SOL     OW12944   8.501  14.071  11.585
70371SOL    HW112945   8.509  14.008  11.657
70371SOL    HW212946   8.409  14.066  11.558
70372SOL     OW12947   7.791   8.827   0.255
70372SOL    HW112948   7.857   8.759   0.246
70372SOL    HW212949   7.712   8.779   0.282
70373SOL     OW12950  11.638  14.217   1.882
70373SOL    HW112951  11.625  14.165   1.961
70373SOL    HW212952  11.710  14.277   1.905
70374SOL     OW12953  12.408   5.605   7.060
70374SOL    HW112954  12.415   5.636   7.150
70374SOL    HW212955  12.491   5.561   7.043
70375SOL     OW12956   4.507   5.935   9.895
70375SOL    HW112957   4.534   5.977   9.814
70375SOL    HW212958   4.500   6.006   9.958
70376SOL     OW12959   9.374   5.349  13.714
70376SOL    HW112960   9.415   5.429  13.681
70376SOL    HW212961   9.437   5.315  13.777
70377SOL     OW12962   5.715  12.179  11.093
70377SOL    HW112963   5.774  12.254  11.099
70377SOL    HW212964   5.761  12.109  11.139
70378SOL     OW12965   7.160   7.732   9.591
70378SOL    HW112966   7.136   7.772   9.507
70378SOL    HW212967   7.233   7.675   9.571
70379SOL     OW12968   1.920  12.840   1.893
70379SOL    HW112969   1.878  12.889   1.963
70379SOL    HW212970   1.869  12.760   1.885
70380SOL     OW12971   8.531   7.257  12.129
70380SOL    HW112972   8.553   7.210  12.049
70380SOL    HW212973   8.578   7.211  12.198
70381SOL     OW12974   1.140   7.210   1.066
70381SOL    HW112975   1.186   7.180   1.144
70381SOL    HW212976   1.069   7.264   1.100
70382SOL     OW12977   3.133   5.081   4.786
70382SOL    HW112978   3.045   5.084   4.747
70382SOL    HW212979   3.175   5.161   4.753
70383SOL     OW12980   4.511   2.687  10.103
70383SOL    HW112981   4.431   2.683  10.051
70383SOL    HW212982   4.480   2.709  10.191
70384SOL     OW12983   8.634   5.508  11.955
70384SOL    HW112984   8.605   5.461  12.033
70384SOL    HW212985   8.728   5.491  11.951
70385SOL     OW12986   7.615  10.051   0.082
70385SOL    HW112987   7.640  10.127   0.135
70385SOL    HW212988   7.520  10.042   0.096
70386SOL     OW12989   2.242   9.630   3.647
70386SOL    HW112990   2.208   9.716   3.671
70386SOL    HW212991   2.211   9.617   3.557
70387SOL     OW12992  13.746   0.045   7.603
70387SOL    HW112993  13.767  14.842   7.658
70387SOL    HW212994  13.774   0.121   7.655
70388SOL     OW12995   4.178   2.434   0.275
70388SOL    HW112996   4.232   2.500   0.318
70388SOL    HW212997   4.101   2.481   0.245
70389SOL     OW12998  14.634   6.913  13.341
70389SOL    HW112999  14.563   6.925  13.404
70389SOL    HW213000  14.709   6.959  13.380
70390SOL     OW13001   9.492   3.089   4.360
70390SOL    HW113002   9.580   3.127   4.358
70390SOL    HW213003   9.482   3.058   4.451
70391SOL     OW13004   5.440   1.478  12.358
70391SOL    HW113005   5.439   1.504  12.450
70391SOL    HW213006   5.518   1.520  12.321
70392SOL     OW13007   4.248  13.696  10.153
70392SOL    HW113008   4.238  13.790  10.142
70392SOL    HW213009   4.283  13.666  10.069
70393SOL     OW13010   7.573   1.137   5.466
70393SOL    HW113011   7.574   1.232   5.467
70393SOL    HW213012   7.630   1.113   5.393
70394SOL     OW13013   2.055   9.838  11.287
70394SOL    HW113014   2.069   9.927  11.319
70394SOL    HW213015   1.984   9.804  11.341
70395SOL     OW13016  11.202   1.828   3.138
70395SOL    HW113017  11.292   1.793   3.134
70395SOL    HW213018  11.210   1.908   3.190
70396SOL     OW13019   8.444   7.689   7.034
70396SOL    HW113020   8.402   7.640   6.963
70396SOL    HW213021   8.398   7.773   7.035
70397SOL     OW13022   3.902   1.805   0.110
70397SOL    HW113023   3.927   1.762   0.028
70397SOL    HW213024   3.984   1.813   0.159
70398SOL     OW13025   4.459  11.278   9.345
70398SOL    HW113026   4.451  11.187   9.374
70398SOL    HW213027   4.385  11.290   9.285
70399SOL     OW13028  10.543   8.699   1.242
70399SOL    HW113029  10.490   8.779   1.245
70399SOL    HW213030  10.621   8.719   1.293
70400SOL     OW13031   0.943   2.927  11.871
70400SOL    HW113032   0.960   2.983  11.946
70400SOL    HW213033   0.863   2.880  11.893
70401SOL     OW13034   1.617   4.659   7.810
70401SOL    HW113035   1.590   4.677   7.720
70401SOL    HW213036   1.546   4.607   7.847
70402SOL     OW13037   2.989   0.284   3.064
70402SOL    HW113038   2.906   0.325   3.087
70402SOL    HW213039   2.986   0.275   2.968
70403SOL     OW13040   9.493   5.011   0.024
70403SOL    HW113041   9.473   5.105   0.020
70403SOL    HW213042   9.408   4.970   0.043
70404SOL     OW13043   8.899   6.320   7.520
70404SOL    HW113044   8.856   6.397   7.556
70404SOL    HW213045   8.920   6.267   7.596
70405SOL     OW13046   6.603   0.440  12.693
70405SOL    HW113047   6.678   0.496  12.711
70405SOL    HW213048   6.579   0.403  12.778
70406SOL     OW13049  11.218  14.170  11.905
70406SOL    HW113050  11.279  14.115  11.857
70406SOL    HW213051  11.259  14.256  11.906
70407SOL     OW13052  14.232   0.712   5.113
70407SOL    HW113053  14.259   0.667   5.193
70407SOL    HW213054  14.313   0.726   5.065
70408SOL     OW13055  12.579   8.889   9.791
70408SOL    HW113056  12.638   8.894   9.716
70408SOL    HW213057  12.630   8.842   9.858
70409SOL     OW13058   1.888  12.859   0.488
70409SOL    HW113059   1.848  12.809   0.417
70409SOL    HW213060   1.813  12.892   0.538
70410SOL     OW13061   5.107   2.044   3.252
70410SOL    HW113062   5.074   2.110   3.191
70410SOL    HW213063   5.197   2.071   3.270
70411SOL     OW13064   0.960   8.907  11.864
70411SOL    HW113065   0.924   8.825  11.830
70411SOL    HW213066   0.936   8.972  11.798
70412SOL     OW13067   9.357  10.990   0.590
70412SOL    HW113068   9.315  11.025   0.668
70412SOL    HW213069   9.287  10.984   0.525
70413SOL     OW13070  10.132   5.650   9.903
70413SOL    HW113071  10.159   5.727   9.952
70413SOL    HW213072  10.062   5.682   9.845
70414SOL     OW13073   1.134   1.179   5.286
70414SOL    HW113074   1.224   1.211   5.275
70414SOL    HW213075   1.110   1.205   5.375
70415SOL     OW13076   3.189   6.287   1.441
70415SOL    HW113077   3.107   6.244   1.415
70415SOL    HW213078   3.213   6.340   1.365
70416SOL     OW13079   3.500   3.693   7.136
70416SOL    HW113080   3.474   3.730   7.220
70416SOL    HW213081   3.472   3.758   7.072
70417SOL     OW13082   3.617   6.467  11.341
70417SOL    HW113083   3.636   6.546  11.291
70417SOL    HW213084   3.606   6.398  11.275
70418SOL     OW13085   0.618   3.647   1.374
70418SOL    HW113086   0.559   3.711   1.334
70418SOL    HW213087   0.641   3.685   1.459
70419SOL     OW13088  10.279   1.631   4.625
70419SOL    HW113089  10.218   1.591   4.563
70419SOL    HW213090  10.361   1.582   4.613
70420SOL     OW13091   6.095  14.704   9.685
70420SOL    HW113092   6.102  14.689   9.779
70420SOL    HW213093   6.041  14.631   9.653
70421SOL     OW13094   9.428  14.727  13.509
70421SOL    HW113095   9.399  14.818  13.520
70421SOL    HW213096   9.398  14.702  13.422
70422SOL     OW13097  14.712   5.508   4.216
70422SOL    HW113098  14.633   5.511   4.162
70422SOL    HW213099  14.783   5.489   4.154
70423SOL     OW13100   7.819   5.234  13.128
70423SOL    HW113101   7.903   5.275  13.105
70423SOL    HW213102   7.827   5.144  13.096
70424SOL     OW13103  10.779  12.794  11.112
70424SOL    HW113104  10.777  12.708  11.071
70424SOL    HW213105  10.710  12.844  11.069
70425SOL     OW13106   0.186   6.441   3.728
70425SOL    HW113107   0.105   6.398   3.758
70425SOL    HW213108   0.256   6.391   3.770
70426SOL     OW13109   5.700   5.341   9.137
70426SOL    HW113110   5.792   5.356   9.161
70426SOL    HW213111   5.702   5.263   9.082
70427SOL     OW13112   2.063   5.056  10.196
70427SOL    HW113113   2.121   5.111  10.249
70427SOL    HW213114   2.028   4.992  10.258
70428SOL     OW13115  13.327  12.622  13.457
70428SOL    HW113116  13.369  12.633  13.372
70428SOL    HW213117  13.284  12.706  13.474
70429SOL     OW13118   4.139  13.209  14.778
70429SOL    HW113119   4.225  13.211  14.820
70429SOL    HW213120   4.154  13.165  14.695
70430SOL     OW13121  10.148  10.067  13.027
70430SOL    HW113122  10.188  10.014  12.958
70430SOL    HW213123  10.209  10.060  13.100
70431SOL     OW13124   4.597   8.161   6.888
70431SOL    HW113125   4.537   8.225   6.927
70431SOL    HW213126   4.595   8.087   6.949
70432SOL     OW13127  11.701   5.920   5.426
70432SOL    HW113128  11.681   6.001   5.472
70432SOL    HW213129  11.737   5.948   5.341
70433SOL     OW13130  14.450  10.329   2.142
70433SOL    HW113131  14.468  10.323   2.235
70433SOL    HW213132  14.533  10.307   2.100
70434SOL     OW13133   1.508   6.164   3.026
70434SOL    HW113134   1.535   6.079   3.060
70434SOL    HW213135   1.583   6.221   3.040
70435SOL     OW13136   2.727  11.040   0.919
70435SOL    HW113137   2.669  11.000   0.854
70435SOL    HW213138   2.699  11.131   0.924
70436SOL     OW13139  13.329   1.716   2.050
70436SOL    HW113140  13.365   1.656   2.116
70436SOL    HW213141  13.332   1.666   1.969
70437SOL     OW13142   6.188   1.047  10.020
70437SOL    HW113143   6.206   0.960   9.984
70437SOL    HW213144   6.234   1.048  10.104
70438SOL     OW13145  13.877   7.799  10.142
70438SOL    HW113146  13.824   7.822  10.219
70438SOL    HW213147  13.967   7.816  10.170
70439SOL     OW13148  11.776   7.009   6.176
70439SOL    HW113149  11.742   6.982   6.262
70439SOL    HW213150  11.798   7.101   6.187
70440SOL     OW13151   9.750  12.768   5.630
70440SOL    HW113152   9.747  12.725   5.545
70440SOL    HW213153   9.663  12.807   5.640
70441SOL     OW13154   7.356   0.969   2.213
70441SOL    HW113155   7.418   0.952   2.284
70441SOL    HW213156   7.355   1.064   2.204
70442SOL     OW13157   7.663   8.524   0.561
70442SOL    HW113158   7.708   8.459   0.508
70442SOL    HW213159   7.652   8.482   0.646
70443SOL     OW13160   3.625   7.708  13.058
70443SOL    HW113161   3.633   7.801  13.039
70443SOL    HW213162   3.697   7.667  13.010
70444SOL     OW13163   7.968  10.408   5.489
70444SOL    HW113164   7.922  10.479   5.531
70444SOL    HW213165   7.926  10.328   5.522
70445SOL     OW13166  10.018   1.047   1.013
70445SOL    HW113167  10.093   1.001   1.050
70445SOL    HW213168   9.965   1.071   1.089
70446SOL     OW13169  12.002   5.939  12.481
70446SOL    HW113170  12.018   5.849  12.453
70446SOL    HW213171  11.912   5.957  12.453
70447SOL     OW13172   7.018  10.272   5.995
70447SOL    HW113173   6.993  10.269   5.903
70447SOL    HW213174   7.114  10.269   5.995
70448SOL     OW13175   7.799   4.702   9.199
70448SOL    HW113176   7.838   4.789   9.203
70448SOL    HW213177   7.873   4.641   9.207
70449SOL     OW13178   4.712   5.092   5.722
70449SOL    HW113179   4.671   5.025   5.668
70449SOL    HW213180   4.681   5.075   5.811
70450SOL     OW13181   6.065  11.706  10.606
70450SOL    HW113182   6.155  11.715  10.574
70450SOL    HW213183   6.040  11.794  10.634
70451SOL     OW13184   8.450   9.687   0.332
70451SOL    HW113185   8.498   9.620   0.284
70451SOL    HW213186   8.475   9.769   0.290
70452SOL     OW13187  14.011   8.112   2.739
70452SOL    HW113188  13.917   8.104   2.758
70452SOL    HW213189  14.031   8.204   2.759
70453SOL     OW13190   1.486  14.763   4.731
70453SOL    HW113191   1.560  14.728   4.782
70453SOL    HW213192   1.505  14.856   4.721
70454SOL     OW13193  10.027   7.693   4.831
70454SOL    HW113194   9.941   7.731   4.808
70454SOL    HW213195  10.048   7.732   4.916
70455SOL     OW13196   6.138  12.925   7.434
70455SOL    HW113197   6.062  12.870   7.455
70455SOL    HW213198   6.190  12.926   7.514
70456SOL     OW13199   3.369   8.891   9.642
70456SOL    HW113200   3.425   8.918   9.570
70456SOL    HW213201   3.369   8.966   9.702
70457SOL     OW13202   2.173   8.491  14.798
70457SOL    HW113203   2.265   8.464  14.796
70457SOL    HW213204   2.141   8.472  14.709
70458SOL     OW13205  12.685   8.383   2.457
70458SOL    HW113206  12.756   8.370   2.395
70458SOL    HW213207  12.606   8.354   2.410
70459SOL     OW13208   4.630  10.803   6.471
70459SOL    HW113209   4.700  10.853   6.513
70459SOL    HW213210   4.633  10.830   6.379
70460SOL     OW13211   7.940  14.247  14.648
70460SOL    HW113212   7.880  14.246  14.573
70460SOL    HW213213   7.888  14.212  14.720
70461SOL     OW13214  14.253   6.273  14.840
70461SOL    HW113215  14.167   6.312  14.860
70461SOL    HW213216  14.306   6.347  14.811
70462SOL     OW13217   2.551   3.893   7.615
70462SOL    HW113218   2.465   3.900   7.655
70462SOL    HW213219   2.607   3.950   7.668
70463SOL     OW13220   4.411   7.763  11.754
70463SOL    HW113221   4.344   7.718  11.806
70463SOL    HW213222   4.370   7.846  11.730
70464SOL     OW13223  12.943   1.510   8.540
70464SOL    HW113224  13.001   1.528   8.615
70464SOL    HW213225  13.001   1.474   8.473
70465SOL     OW13226   3.306   6.866   2.252
70465SOL    HW113227   3.271   6.940   2.201
70465SOL    HW213228   3.400   6.881   2.252
70466SOL     OW13229  14.669   8.893   6.435
70466SOL    HW113230  14.673   8.904   6.340
70466SOL    HW213231  14.605   8.958   6.465
70467SOL     OW13232   3.062   5.246  14.066
70467SOL    HW113233   3.110   5.321  14.101
70467SOL    HW213234   2.992   5.285  14.013
70468SOL     OW13235   4.216  12.839   7.235
70468SOL    HW113236   4.179  12.760   7.274
70468SOL    HW213237   4.177  12.843   7.147
70469SOL     OW13238   3.623   5.947   0.802
70469SOL    HW113239   3.591   5.961   0.891
70469SOL    HW213240   3.622   6.034   0.762
70470SOL     OW13241  14.409   7.371   3.211
70470SOL    HW113242  14.490   7.418   3.191
70470SOL    HW213243  14.350   7.394   3.140
70471SOL     OW13244  11.182   9.225   8.348
70471SOL    HW113245  11.164   9.136   8.320
70471SOL    HW213246  11.100   9.256   8.386
70472SOL     OW13247   7.302  12.170   7.883
70472SOL    HW113248   7.242  12.245   7.887
70472SOL    HW213249   7.298  12.132   7.971
70473SOL     OW13250  13.937   3.701   2.096
70473SOL    HW113251  13.960   3.780   2.048
70473SOL    HW213252  13.927   3.634   2.029
70474SOL     OW13253  10.577   7.338   0.925
70474SOL    HW113254  10.567   7.411   0.865
70474SOL    HW213255  10.487   7.315   0.951
70475SOL     OW13256   1.525   8.620   0.888
70475SOL    HW113257   1.564   8.637   0.974
70475SOL    HW213258   1.445   8.673   0.887
70476SOL     OW13259   7.584  13.317   8.662
70476SOL    HW113260   7.597  13.407   8.633
70476SOL    HW213261   7.652  13.303   8.728
70477SOL     OW13262   9.503   7.512   5.334
70477SOL    HW113263   9.532   7.585   5.280
70477SOL    HW213264   9.478   7.552   5.418
70478SOL     OW13265   4.201   0.039  10.754
70478SOL    HW113266   4.124   0.017  10.806
70478SOL    HW213267   4.272  14.861  10.794
70479SOL     OW13268   2.986  14.758  12.989
70479SOL    HW113269   2.954  14.844  12.962
70479SOL    HW213270   3.003  14.712  12.907
70480SOL     OW13271  11.496   1.199  11.737
70480SOL    HW113272  11.520   1.166  11.824
70480SOL    HW213273  11.424   1.142  11.710
70481SOL     OW13274   6.045   0.618   7.074
70481SOL    HW113275   6.061   0.547   7.011
70481SOL    HW213276   6.058   0.577   7.159
70482SOL     OW13277   4.198   7.599   5.878
70482SOL    HW113278   4.169   7.516   5.841
70482SOL    HW213279   4.274   7.576   5.931
70483SOL     OW13280   1.797  14.560   0.870
70483SOL    HW113281   1.867  14.538   0.808
70483SOL    HW213282   1.770  14.648   0.846
70484SOL     OW13283   9.873   6.628   7.031
70484SOL    HW113284   9.968   6.631   7.032
70484SOL    HW213285   9.850   6.604   6.941
70485SOL     OW13286  11.702  14.656  10.954
70485SOL    HW113287  11.773  14.689  11.010
70485SOL    HW213288  11.626  14.708  10.980
70486SOL     OW13289   7.032   7.213  13.243
70486SOL    HW113290   6.940   7.199  13.266
70486SOL    HW213291   7.068   7.126  13.232
70487SOL     OW13292   8.379   8.350  12.196
70487SOL    HW113293   8.302   8.352  12.252
70487SOL    HW213294   8.399   8.442  12.178
70488SOL     OW13295   2.818   0.548  13.227
70488SOL    HW113296   2.787   0.460  13.207
70488SOL    HW213297   2.890   0.535  13.288
70489SOL     OW13298   6.942  11.456   6.297
70489SOL    HW113299   6.901  11.459   6.211
70489SOL    HW213300   6.902  11.380   6.340
70490SOL     OW13301   4.401   2.715   0.904
70490SOL    HW113302   4.376   2.804   0.881
70490SOL    HW213303   4.484   2.700   0.857
70491SOL     OW13304   8.050   9.046   4.802
70491SOL    HW113305   7.979   8.996   4.842
70491SOL    HW213306   8.075   9.109   4.869
70492SOL     OW13307  12.873   0.188   5.010
70492SOL    HW113308  12.839   0.138   5.084
70492SOL    HW213309  12.963   0.157   5.000
70493SOL     OW13310   6.595  11.906  11.172
70493SOL    HW113311   6.648  11.985  11.182
70493SOL    HW213312   6.505  11.936  11.187
70494SOL     OW13313   0.139   5.626  11.708
70494SOL    HW113314   0.059   5.605  11.754
70494SOL    HW213315   0.118   5.704  11.656
70495SOL     OW13316  13.795   3.160   1.431
70495SOL    HW113317  13.711   3.120   1.451
70495SOL    HW213318  13.857   3.115   1.488
70496SOL     OW13319  11.633   9.395   3.594
70496SOL    HW113320  11.643   9.379   3.501
70496SOL    HW213321  11.547   9.436   3.603
70497SOL     OW13322   7.118   4.414   5.999
70497SOL    HW113323   7.069   4.354   6.055
70497SOL    HW213324   7.206   4.416   6.038
70498SOL     OW13325   2.894   7.909  11.183
70498SOL    HW113326   2.898   7.895  11.278
70498SOL    HW213327   2.984   7.932  11.159
70499SOL     OW13328   2.208  11.911  12.077
70499SOL    HW113329   2.127  11.940  12.036
70499SOL    HW213330   2.187  11.904  12.170
70500SOL     OW13331   1.272   5.562   3.594
70500SOL    HW113332   1.344   5.591   3.651
70500SOL    HW213333   1.195   5.567   3.650
70501SOL     OW13334   4.870   7.744   2.064
70501SOL    HW113335   4.829   7.704   1.988
70501SOL    HW213336   4.803   7.743   2.132
70502SOL     OW13337   6.655   1.807   1.561
70502SOL    HW113338   6.728   1.797   1.501
70502SOL    HW213339   6.695   1.836   1.643
70503SOL     OW13340  10.685  12.815   2.505
70503SOL    HW113341  10.643  12.873   2.442
70503SOL    HW213342  10.740  12.758   2.452
70504SOL     OW13343   1.466   1.018   9.357
70504SOL    HW113344   1.465   1.091   9.295
70504SOL    HW213345   1.558   1.002   9.375
70505SOL     OW13346   0.699   3.012   8.612
70505SOL    HW113347   0.731   3.090   8.568
70505SOL    HW213348   0.736   2.939   8.561
70506SOL     OW13349   6.394   2.946   2.499
70506SOL    HW113350   6.405   2.984   2.412
70506SOL    HW213351   6.320   2.993   2.537
70507SOL     OW13352  11.738   3.601   8.933
70507SOL    HW113353  11.812   3.617   8.874
70507SOL    HW213354  11.705   3.688   8.955
70508SOL     OW13355  11.344   0.079   3.094
70508SOL    HW113356  11.395   0.140   3.148
70508SOL    HW213357  11.381  14.865   3.114
70509SOL     OW13358   5.190  14.401   8.739
70509SOL    HW113359   5.203  14.483   8.691
70509SOL    HW213360   5.259  14.343   8.706
70510SOL     OW13361   7.342  10.351   6.592
70510SOL    HW113362   7.265  10.354   6.649
70510SOL    HW213363   7.402  10.293   6.638
70511SOL     OW13364   0.875  11.555   9.803
70511SOL    HW113365   0.949  11.511   9.845
70511SOL    HW213366   0.863  11.508   9.720
70512SOL     OW13367   3.060   3.922   8.198
70512SOL    HW113368   3.101   3.862   8.260
70512SOL    HW213369   3.058   4.006   8.243
70513SOL     OW13370   6.527   0.026  14.606
70513SOL    HW113371   6.452   0.023  14.665
70513SOL    HW213372   6.523   0.114  14.568
70514SOL     OW13373   7.830   8.723   4.195
70514SOL    HW113374   7.832   8.764   4.109
70514SOL    HW213375   7.922   8.707   4.217
70515SOL     OW13376   3.989   4.593   0.086
70515SOL    HW113377   3.961   4.518   0.034
70515SOL    HW213378   4.059   4.559   0.142
70516SOL     OW13379  13.244   9.912  12.634
70516SOL    HW113380  13.335   9.923  12.662
70516SOL    HW213381  13.213   9.836  12.683
70517SOL     OW13382   9.566   5.636  11.767
70517SOL    HW113383   9.611   5.554  11.790
70517SOL    HW213384   9.575   5.643  11.672
70518SOL     OW13385   1.072   9.213  14.170
70518SOL    HW113386   1.151   9.183  14.125
70518SOL    HW213387   1.020   9.133  14.182
70519SOL     OW13388   1.760  12.315   0.028
70519SOL    HW113389   1.755  12.229   0.070
70519SOL    HW213390   1.683  12.361   0.060
70520SOL     OW13391   5.558   8.210  10.607
70520SOL    HW113392   5.635   8.194  10.661
70520SOL    HW213393   5.581   8.287  10.554
70521SOL     OW13394  13.641  10.366   7.727
70521SOL    HW113395  13.604  10.354   7.640
70521SOL    HW213396  13.622  10.284   7.773
70522SOL     OW13397   3.833   7.858   7.542
70522SOL    HW113398   3.864   7.769   7.562
70522SOL    HW213399   3.748   7.844   7.500
70523SOL     OW13400   4.955   8.791   7.631
70523SOL    HW113401   4.933   8.824   7.718
70523SOL    HW213402   5.045   8.821   7.616
70524SOL     OW13403  12.021   9.352   5.515
70524SOL    HW113404  12.105   9.395   5.531
70524SOL    HW213405  11.956   9.421   5.525
70525SOL     OW13406  13.452   2.213  12.886
70525SOL    HW113407  13.403   2.287  12.924
70525SOL    HW213408  13.539   2.219  12.925
70526SOL     OW13409   6.660   5.091   5.125
70526SOL    HW113410   6.607   5.071   5.203
70526SOL    HW213411   6.729   5.024   5.125
70527SOL     OW13412  13.302  13.687   2.517
70527SOL    HW113413  13.284  13.713   2.426
70527SOL    HW213414  13.396  13.701   2.528
70528SOL     OW13415  12.758   8.890   8.772
70528SOL    HW113416  12.844   8.872   8.809
70528SOL    HW213417  12.765   8.978   8.735
70529SOL     OW13418  11.995  10.196   6.105
70529SOL    HW113419  11.952  10.111   6.099
70529SOL    HW213420  11.947  10.243   6.173
70530SOL     OW13421   2.259   6.264   8.854
70530SOL    HW113422   2.220   6.337   8.806
70530SOL    HW213423   2.196   6.193   8.847
70531SOL     OW13424  14.034   0.970  14.373
70531SOL    HW113425  14.017   0.996  14.464
70531SOL    HW213426  14.123   0.935  14.375
70532SOL     OW13427  14.705   3.695   6.319
70532SOL    HW113428  14.663   3.677   6.236
70532SOL    HW213429  14.796   3.714   6.297
70533SOL     OW13430  10.123  14.525  10.784
70533SOL    HW113431  10.195  14.571  10.828
70533SOL    HW213432  10.082  14.592  10.730
70534SOL     OW13433   5.051   5.350   1.681
70534SOL    HW113434   5.137   5.389   1.663
70534SOL    HW213435   5.014   5.332   1.595
70535SOL     OW13436  13.360   5.458  13.882
70535SOL    HW113437  13.368   5.424  13.972
70535SOL    HW213438  13.331   5.382  13.831
70536SOL     OW13439  12.999   2.161   2.372
70536SOL    HW113440  13.067   2.116   2.422
70536SOL    HW213441  13.019   2.140   2.281
70537SOL     OW13442  13.856  14.238   4.108
70537SOL    HW113443  13.764  14.249   4.133
70537SOL    HW213444  13.904  14.239   4.191
70538SOL     OW13445   2.914  11.018   8.152
70538SOL    HW113446   2.845  11.051   8.096
70538SOL    HW213447   2.869  10.986   8.230
70539SOL     OW13448   8.654   0.750   5.095
70539SOL    HW113449   8.678   0.663   5.064
70539SOL    HW213450   8.704   0.810   5.039
70540SOL     OW13451   4.304   1.398   1.494
70540SOL    HW113452   4.323   1.352   1.412
70540SOL    HW213453   4.291   1.489   1.467
70541SOL     OW13454   2.004   9.056  12.018
70541SOL    HW113455   2.047   9.138  12.042
70541SOL    HW213456   2.048   9.030  11.936
70542SOL     OW13457   8.569   8.969   5.332
70542SOL    HW113458   8.608   9.027   5.266
70542SOL    HW213459   8.542   9.028   5.403
70543SOL     OW13460  11.981   2.878   8.489
70543SOL    HW113461  12.047   2.852   8.425
70543SOL    HW213462  11.902   2.831   8.464
70544SOL     OW13463  13.308  13.710  12.953
70544SOL    HW113464  13.225  13.670  12.930
70544SOL    HW213465  13.334  13.668  13.034
70545SOL     OW13466   1.179   3.671   2.523
70545SOL    HW113467   1.085   3.685   2.533
70545SOL    HW213468   1.217   3.700   2.606
70546SOL     OW13469  14.162   2.725  11.242
70546SOL    HW113470  14.224   2.779  11.192
70546SOL    HW213471  14.216   2.655  11.279
70547SOL     OW13472   4.314  14.709   1.160
70547SOL    HW113473   4.269  14.790   1.135
70547SOL    HW213474   4.248  14.641   1.154
70548SOL     OW13475   2.403  14.599   7.072
70548SOL    HW113476   2.458  14.532   7.032
70548SOL    HW213477   2.378  14.562   7.157
70549SOL     OW13478   8.687   6.123   8.018
70549SOL    HW113479   8.704   6.191   8.084
70549SOL    HW213480   8.592   6.120   8.012
70550SOL     OW13481   7.344   9.189  14.617
70550SOL    HW113482   7.264   9.212  14.570
70550SOL    HW213483   7.350   9.254  14.687
70551SOL     OW13484  14.058   0.354  11.905
70551SOL    HW113485  14.074   0.309  11.822
70551SOL    HW213486  14.055   0.447  11.881
70552SOL     OW13487   9.623   3.908   7.965
70552SOL    HW113488   9.625   3.939   8.055
70552SOL    HW213489   9.547   3.849   7.962
70553SOL     OW13490  11.450   6.748   6.816
70553SOL    HW113491  11.445   6.839   6.845
70553SOL    HW213492  11.420   6.697   6.891
70554SOL     OW13493   9.318   0.311   3.121
70554SOL    HW113494   9.316   0.406   3.130
70554SOL    HW213495   9.276   0.294   3.037
70555SOL     OW13496   9.765   4.747   7.524
70555SOL    HW113497   9.795   4.814   7.585
70555SOL    HW213498   9.684   4.783   7.487
70556SOL     OW13499   4.587   7.879  11.431
70556SOL    HW113500   4.532   7.804  11.454
70556SOL    HW213501   4.563   7.901  11.341
70557SOL     OW13502  13.796   5.576   7.885
70557SOL    HW113503  13.741   5.498   7.891
70557SOL    HW213504  13.769   5.618   7.803
70558SOL     OW13505   9.856   1.156  10.454
70558SOL    HW113506   9.766   1.179  10.431
70558SOL    HW213507   9.892   1.116  10.375
70559SOL     OW13508   6.538   8.777   0.005
70559SOL    HW113509   6.564   8.825  14.799
70559SOL    HW213510   6.556   8.838   0.077
70560SOL     OW13511   5.306   8.943   4.450
70560SOL    HW113512   5.242   8.901   4.507
70560SOL    HW213513   5.254   9.002   4.395
70561SOL     OW13514   6.717  12.417  12.073
70561SOL    HW113515   6.649  12.383  12.131
70561SOL    HW213516   6.786  12.448  12.132
70562SOL     OW13517   8.907   9.354   9.914
70562SOL    HW113518   8.840   9.306   9.866
70562SOL    HW213519   8.909   9.314  10.000
70563SOL     OW13520   9.606   6.759   3.365
70563SOL    HW113521   9.676   6.820   3.390
70563SOL    HW213522   9.645   6.672   3.376
70564SOL     OW13523   3.957   4.783  11.214
70564SOL    HW113524   4.016   4.858  11.228
70564SOL    HW213525   3.920   4.798  11.128
70565SOL     OW13526  13.003   3.272   8.088
70565SOL    HW113527  12.919   3.277   8.132
70565SOL    HW213528  13.061   3.229   8.151
70566SOL     OW13529   5.774  14.422   0.134
70566SOL    HW113530   5.740  14.445   0.047
70566SOL    HW213531   5.761  14.502   0.186
70567SOL     OW13532  14.084   1.033   3.438
70567SOL    HW113533  14.179   1.034   3.434
70567SOL    HW213534  14.064   0.974   3.511
70568SOL     OW13535   2.717   7.058   7.480
70568SOL    HW113536   2.674   7.026   7.400
70568SOL    HW213537   2.763   6.981   7.514
70569SOL     OW13538  10.212  14.702   9.297
70569SOL    HW113539  10.222  14.696   9.202
70569SOL    HW213540  10.150  14.774   9.310
70570SOL     OW13541   2.595   2.069  14.304
70570SOL    HW113542   2.622   2.069  14.212
70570SOL    HW213543   2.507   2.106  14.303
70571SOL     OW13544   9.979   0.492   9.896
70571SOL    HW113545  10.045   0.499   9.827
70571SOL    HW213546   9.920   0.423   9.867
70572SOL     OW13547  14.085   2.112   6.245
70572SOL    HW113548  14.002   2.065   6.231
70572SOL    HW213549  14.097   2.112   6.340
70573SOL     OW13550   9.340   9.150   1.072
70573SOL    HW113551   9.365   9.236   1.038
70573SOL    HW213552   9.244   9.149   1.066
70574SOL     OW13553  13.161  14.677   4.049
70574SOL    HW113554  13.235  14.658   3.991
70574SOL    HW213555  13.166  14.610   4.117
70575SOL     OW13556   3.485   5.318   2.224
70575SOL    HW113557   3.428   5.252   2.183
70575SOL    HW213558   3.425   5.387   2.251
70576SOL     OW13559  14.609   3.208   0.566
70576SOL    HW113560  14.671   3.211   0.493
70576SOL    HW213561  14.657   3.244   0.640
70577SOL     OW13562   2.939   1.564   5.476
70577SOL    HW113563   2.865   1.617   5.445
70577SOL    HW213564   2.904   1.518   5.552
70578SOL     OW13565  10.756  11.371   3.915
70578SOL    HW113566  10.843  11.336   3.935
70578SOL    HW213567  10.762  11.396   3.822
70579SOL     OW13568   3.730   0.958  10.269
70579SOL    HW113569   3.796   1.000  10.324
70579SOL    HW213570   3.759   0.976  10.179
70580SOL     OW13571   8.406   6.951   3.284
70580SOL    HW113572   8.454   6.883   3.330
70580SOL    HW213573   8.319   6.914   3.270
70581SOL     OW13574   7.408   9.470   1.946
70581SOL    HW113575   7.437   9.518   1.869
70581SOL    HW213576   7.335   9.521   1.981
70582SOL     OW13577   3.764   5.339   5.759
70582SOL    HW113578   3.755   5.428   5.724
70582SOL    HW213579   3.808   5.352   5.843
70583SOL     OW13580  13.673   3.723   7.638
70583SOL    HW113581  13.768   3.732   7.646
70583SOL    HW213582  13.637   3.784   7.701
70584SOL     OW13583  10.307   4.752   4.078
70584SOL    HW113584  10.396   4.741   4.111
70584SOL    HW213585  10.301   4.845   4.055
70585SOL     OW13586  11.410  10.895   7.526
70585SOL    HW113587  11.358  10.841   7.586
70585SOL    HW213588  11.350  10.916   7.455
70586SOL     OW13589   0.745  10.186   2.836
70586SOL    HW113590   0.705  10.148   2.914
70586SOL    HW213591   0.836  10.159   2.839
70587SOL     OW13592   7.842   6.955  13.389
70587SOL    HW113593   7.819   7.043  13.419
70587SOL    HW213594   7.915   6.928  13.445
70588SOL     OW13595   6.782   9.510   3.934
70588SOL    HW113596   6.725   9.462   3.993
70588SOL    HW213597   6.757   9.602   3.946
70589SOL     OW13598  13.766   2.049   7.231
70589SOL    HW113599  13.679   2.053   7.271
70589SOL    HW213600  13.795   2.140   7.226
70590SOL     OW13601  13.758   0.598   3.432
70590SOL    HW113602  13.758   0.667   3.499
70590SOL    HW213603  13.673   0.555   3.442
70591SOL     OW13604  11.063  10.930  13.002
70591SOL    HW113605  11.098  10.934  13.091
70591SOL    HW213606  11.096  11.009  12.959
70592SOL     OW13607  12.374  13.561  14.137
70592SOL    HW113608  12.428  13.546  14.215
70592SOL    HW213609  12.336  13.476  14.117
70593SOL     OW13610  13.560  10.785   4.257
70593SOL    HW113611  13.554  10.689   4.253
70593SOL    HW213612  13.654  10.802   4.267
70594SOL     OW13613  10.701  10.920   3.911
70594SOL    HW113614  10.694  10.845   3.970
70594SOL    HW213615  10.679  10.996   3.966
70595SOL     OW13616   8.509   3.394   4.597
70595SOL    HW113617   8.576   3.357   4.540
70595SOL    HW213618   8.460   3.318   4.630
70596SOL     OW13619   0.416   8.190   4.685
70596SOL    HW113620   0.410   8.239   4.767
70596SOL    HW213621   0.382   8.250   4.618
70597SOL     OW13622  13.862  10.021   3.747
70597SOL    HW113623  13.790  10.056   3.695
70597SOL    HW213624  13.828  10.020   3.837
70598SOL     OW13625  13.012   8.857   9.957
70598SOL    HW113626  13.077   8.812   9.904
70598SOL    HW213627  12.986   8.793  10.024
70599SOL     OW13628  10.275   6.944   1.987
70599SOL    HW113629  10.267   6.864   2.039
70599SOL    HW213630  10.365   6.974   2.002
70600SOL     OW13631  13.283   0.648  12.241
70600SOL    HW113632  13.353   0.609  12.293
70600SOL    HW213633  13.323   0.723  12.197
70601SOL     OW13634   6.074  11.484  10.382
70601SOL    HW113635   6.003  11.513  10.324
70601SOL    HW213636   6.062  11.536  10.462
70602SOL     OW13637  11.236   7.737   3.679
70602SOL    HW113638  11.282   7.660   3.712
70602SOL    HW213639  11.210   7.714   3.590
70603SOL     OW13640  13.886   6.442   0.699
70603SOL    HW113641  13.929   6.402   0.775
70603SOL    HW213642  13.951   6.436   0.629
70604SOL     OW13643  10.370   1.184  11.644
70604SOL    HW113644  10.402   1.273  11.631
70604SOL    HW213645  10.441   1.141  11.693
70605SOL     OW13646   2.496   3.668  11.420
70605SOL    HW113647   2.570   3.613  11.444
70605SOL    HW213648   2.501   3.743  11.479
70606SOL     OW13649   0.627   7.152   5.342
70606SOL    HW113650   0.559   7.089   5.365
70606SOL    HW213651   0.708   7.114   5.378
70607SOL     OW13652  10.228  12.878  12.477
70607SOL    HW113653  10.152  12.934  12.490
70607SOL    HW213654  10.280  12.923  12.410
70608SOL     OW13655   3.254  10.482  12.373
70608SOL    HW113656   3.347  10.479  12.394
70608SOL    HW213657   3.210  10.489  12.457
70609SOL     OW13658   0.828   7.072   8.617
70609SOL    HW113659   0.871   7.039   8.696
70609SOL    HW213660   0.737   7.044   8.627
70610SOL     OW13661  10.499  11.411   0.921
70610SOL    HW113662  10.584  11.367   0.925
70610SOL    HW213663  10.521  11.505   0.918
70611SOL     OW13664   1.902   5.681  12.748
70611SOL    HW113665   1.814   5.669  12.710
70611SOL    HW213666   1.955   5.614  12.705
70612SOL     OW13667   6.060   4.433  14.194
70612SOL    HW113668   6.152   4.424  14.218
70612SOL    HW213669   6.045   4.528  14.191
70613SOL     OW13670  12.403   0.440   7.894
70613SOL    HW113671  12.366   0.506   7.835
70613SOL    HW213672  12.482   0.481   7.930
70614SOL     OW13673   3.401   4.667  11.485
70614SOL    HW113674   3.411   4.741  11.424
70614SOL    HW213675   3.455   4.598  11.447
70615SOL     OW13676   9.083   8.437   7.306
70615SOL    HW113677   9.141   8.512   7.292
70615SOL    HW213678   9.018   8.443   7.236
70616SOL     OW13679   2.796  10.658   2.458
70616SOL    HW113680   2.715  10.677   2.507
70616SOL    HW213681   2.851  10.611   2.520
70617SOL     OW13682   8.168   7.910   3.834
70617SOL    HW113683   8.166   7.826   3.882
70617SOL    HW213684   8.120   7.971   3.891
70618SOL     OW13685  11.802   0.273   0.385
70618SOL    HW113686  11.716   0.310   0.409
70618SOL    HW213687  11.793   0.250   0.293
70619SOL     OW13688   9.614   0.490   6.181
70619SOL    HW113689   9.560   0.411   6.182
70619SOL    HW213690   9.639   0.500   6.089
70620SOL     OW13691   8.035   2.426   8.739
70620SOL    HW113692   7.988   2.445   8.820
70620SOL    HW213693   8.073   2.339   8.753
70621SOL     OW13694   9.485   0.091   5.443
70621SOL    HW113695   9.512   0.150   5.514
70621SOL    HW213696   9.567   0.060   5.405
70622SOL     OW13697   4.332   0.108   6.446
70622SOL    HW113698   4.322   0.168   6.519
70622SOL    HW213699   4.404   0.050   6.471
70623SOL     OW13700  10.374   3.530   8.538
70623SOL    HW113701  10.292   3.486   8.515
70623SOL    HW213702  10.351   3.623   8.539
70624SOL     OW13703   4.137  13.060  13.769
70624SOL    HW113704   4.156  13.115  13.845
70624SOL    HW213705   4.167  13.112  13.694
70625SOL     OW13706   1.850   5.117   9.816
70625SOL    HW113707   1.760   5.086   9.830
70625SOL    HW213708   1.888   5.055   9.754
70626SOL     OW13709   1.208  13.537   2.327
70626SOL    HW113710   1.262  13.615   2.322
70626SOL    HW213711   1.247  13.477   2.262
70627SOL     OW13712  10.558  10.255   5.621
70627SOL    HW113713  10.560  10.196   5.546
70627SOL    HW213714  10.470  10.247   5.656
70628SOL     OW13715   8.677   4.061  12.986
70628SOL    HW113716   8.597   4.014  13.009
70628SOL    HW213717   8.672   4.143  13.036
70629SOL     OW13718   1.781   7.670   9.529
70629SOL    HW113719   1.789   7.585   9.573
70629SOL    HW213720   1.852   7.669   9.464
70630SOL     OW13721   9.881   2.979   2.093
70630SOL    HW113722   9.961   2.959   2.045
70630SOL    HW213723   9.908   3.046   2.156
70631SOL     OW13724   6.874   7.260   0.975
70631SOL    HW113725   6.817   7.221   1.041
70631SOL    HW213726   6.821   7.260   0.894
70632SOL     OW13727  13.910  10.315   5.583
70632SOL    HW113728  13.837  10.358   5.539
70632SOL    HW213729  13.983  10.323   5.522
70633SOL     OW13730   3.193   4.248   4.524
70633SOL    HW113731   3.135   4.178   4.551
70633SOL    HW213732   3.202   4.237   4.429
70634SOL     OW13733   5.174   8.684   1.784
70634SOL    HW113734   5.241   8.749   1.806
70634SOL    HW213735   5.224   8.604   1.769
70635SOL     OW13736  14.129   7.348  11.427
70635SOL    HW113737  14.173   7.413  11.482
70635SOL    HW213738  14.117   7.272  11.484
70636SOL     OW13739   7.716  14.160   8.149
70636SOL    HW113740   7.756  14.243   8.120
70636SOL    HW213741   7.706  14.110   8.068
70637SOL     OW13742   0.756   0.194  13.739
70637SOL    HW113743   0.715   0.210  13.824
70637SOL    HW213744   0.794   0.279  13.715
70638SOL     OW13745   2.575   4.995   7.346
70638SOL    HW113746   2.502   4.957   7.297
70638SOL    HW213747   2.533   5.052   7.410
70639SOL     OW13748  14.573   2.234  12.633
70639SOL    HW113749  14.628   2.308  12.604
70639SOL    HW213750  14.609   2.210  12.718
70640SOL     OW13751   9.600   9.580   0.588
70640SOL    HW113752   9.670   9.632   0.628
70640SOL    HW213753   9.617   9.585   0.494
70641SOL     OW13754   7.699   3.404  11.947
70641SOL    HW113755   7.706   3.459  12.025
70641SOL    HW213756   7.622   3.349  11.963
70642SOL     OW13757  12.711   7.281   9.139
70642SOL    HW113758  12.653   7.344   9.095
70642SOL    HW213759  12.741   7.328   9.217
70643SOL     OW13760   3.481   1.010   4.203
70643SOL    HW113761   3.510   1.064   4.276
70643SOL    HW213762   3.386   1.018   4.203
70644SOL     OW13763  14.456  13.622  10.617
70644SOL    HW113764  14.526  13.688  10.623
70644SOL    HW213765  14.488  13.550  10.672
70645SOL     OW13766   8.114   4.743   6.331
70645SOL    HW113767   8.064   4.718   6.409
70645SOL    HW213768   8.186   4.796   6.364
70646SOL     OW13769   8.948  14.645   0.626
70646SOL    HW113770   9.029  14.688   0.654
70646SOL    HW213771   8.885  14.716   0.616
70647SOL     OW13772   7.440   2.114   3.054
70647SOL    HW113773   7.451   2.075   2.968
70647SOL    HW213774   7.360   2.166   3.046
70648SOL     OW13775   1.302  13.354   2.502
70648SOL    HW113776   1.240  13.335   2.573
70648SOL    HW213777   1.248  13.390   2.432
70649SOL     OW13778  13.418   6.121  13.831
70649SOL    HW113779  13.498   6.167  13.806
70649SOL    HW213780  13.401   6.060  13.759
70650SOL     OW13781   2.774   7.035   6.912
70650SOL    HW113782   2.818   7.037   6.997
70650SOL    HW213783   2.833   7.081   6.853
70651SOL     OW13784   5.541   1.593   4.257
70651SOL    HW113785   5.486   1.624   4.185
70651SOL    HW213786   5.479   1.565   4.324
70652SOL     OW13787   7.095   5.622  11.147
70652SOL    HW113788   7.096   5.576  11.231
70652SOL    HW213789   7.061   5.709  11.169
70653SOL     OW13790  12.313   5.194  10.298
70653SOL    HW113791  12.255   5.134  10.252
70653SOL    HW213792  12.326   5.267  10.237
70654SOL     OW13793   0.479  12.339   5.081
70654SOL    HW113794   0.539  12.276   5.040
70654SOL    HW213795   0.399  12.334   5.029
70655SOL     OW13796   2.399  13.632   0.889
70655SOL    HW113797   2.391  13.546   0.930
70655SOL    HW213798   2.493  13.641   0.871
70656SOL     OW13799   0.999   6.007   0.738
70656SOL    HW113800   1.038   6.065   0.672
70656SOL    HW213801   0.946   6.065   0.792
70657SOL     OW13802   5.030   8.933   1.237
70657SOL    HW113803   5.063   8.861   1.290
70657SOL    HW213804   5.038   9.010   1.294
70658SOL     OW13805   1.133  12.949   4.178
70658SOL    HW113806   1.183  13.030   4.189
70658SOL    HW213807   1.077  12.944   4.255
70659SOL     OW13808   8.351   4.402   7.836
70659SOL    HW113809   8.401   4.484   7.837
70659SOL    HW213810   8.260   4.430   7.826
70660SOL     OW13811  11.131   6.266   6.691
70660SOL    HW113812  11.163   6.332   6.629
70660SOL    HW213813  11.126   6.312   6.774
70661SOL     OW13814  10.423  10.047   9.154
70661SOL    HW113815  10.379  10.112   9.208
70661SOL    HW213816  10.360   9.976   9.146
70662SOL     OW13817   8.621  14.575  11.583
70662SOL    HW113818   8.701  14.593  11.534
70662SOL    HW213819   8.633  14.488  11.619
70663SOL     OW13820   4.764   6.639   2.916
70663SOL    HW113821   4.777   6.734   2.916
70663SOL    HW213822   4.846   6.605   2.881
70664SOL     OW13823  14.680   0.464   6.200
70664SOL    HW113824  14.618   0.515   6.251
70664SOL    HW213825  14.752   0.524   6.183
70665SOL     OW13826   8.283   5.205  13.053
70665SOL    HW113827   8.214   5.264  13.022
70665SOL    HW213828   8.244   5.118  13.046
70666SOL     OW13829  10.189   8.139   8.372
70666SOL    HW113830  10.128   8.065   8.367
70666SOL    HW213831  10.163   8.197   8.301
70667SOL     OW13832  11.913  13.474  10.207
70667SOL    HW113833  11.999  13.476  10.247
70667SOL    HW213834  11.871  13.396  10.244
70668SOL     OW13835   7.955   0.434  12.045
70668SOL    HW113836   7.989   0.494  12.111
70668SOL    HW213837   8.007   0.355  12.056
70669SOL     OW13838  13.581   9.060   3.321
70669SOL    HW113839  13.667   9.071   3.280
70669SOL    HW213840  13.529   9.014   3.255
70670SOL     OW13841   6.495   3.321  13.118
70670SOL    HW113842   6.529   3.365  13.040
70670SOL    HW213843   6.465   3.236  13.085
70671SOL     OW13844   7.905   9.640   4.733
70671SOL    HW113845   7.868   9.698   4.667
70671SOL    HW213846   7.836   9.630   4.799
70672SOL     OW13847  12.666   3.538   2.202
70672SOL    HW113848  12.758   3.552   2.179
70672SOL    HW213849  12.633   3.479   2.135
70673SOL     OW13850  13.469   1.834   0.802
70673SOL    HW113851  13.385   1.790   0.813
70673SOL    HW213852  13.449   1.928   0.809
70674SOL     OW13853   3.650   0.441   4.678
70674SOL    HW113854   3.671   0.414   4.768
70674SOL    HW213855   3.559   0.472   4.683
70675SOL     OW13856   7.474  13.448   0.156
70675SOL    HW113857   7.498  13.537   0.130
70675SOL    HW213858   7.526  13.391   0.100
70676SOL     OW13859  11.683   1.596   0.449
70676SOL    HW113860  11.683   1.683   0.489
70676SOL    HW213861  11.676   1.613   0.355
70677SOL     OW13862  10.399   7.708  13.755
70677SOL    HW113863  10.429   7.791  13.717
70677SOL    HW213864  10.313   7.693  13.715
70678SOL     OW13865   7.531  14.591   8.758
70678SOL    HW113866   7.478  14.649   8.705
70678SOL    HW213867   7.553  14.517   8.700
70679SOL     OW13868   9.266   9.845  12.429
70679SOL    HW113869   9.267   9.775  12.363
70679SOL    HW213870   9.173   9.866  12.440
70680SOL     OW13871   7.900   1.664   3.004
70680SOL    HW113872   7.920   1.756   2.985
70680SOL    HW213873   7.819   1.667   3.054
70681SOL     OW13874  13.029   7.020   4.084
70681SOL    HW113875  12.983   6.937   4.098
70681SOL    HW213876  12.971   7.071   4.029
70682SOL     OW13877   1.071   1.300   0.350
70682SOL    HW113878   1.070   1.357   0.427
70682SOL    HW213879   1.156   1.316   0.310
70683SOL     OW13880   1.712   6.690   5.724
70683SOL    HW113881   1.644   6.672   5.660
70683SOL    HW213882   1.722   6.785   5.722
70684SOL     OW13883  10.087   0.650   2.807
70684SOL    HW113884  10.060   0.577   2.863
70684SOL    HW213885  10.066   0.621   2.718
70685SOL     OW13886   3.005   5.450   2.512
70685SOL    HW113887   2.954   5.411   2.441
70685SOL    HW213888   3.038   5.532   2.475
70686SOL     OW13889   0.379  13.601   3.248
70686SOL    HW113890   0.448  13.538   3.269
70686SOL    HW213891   0.374  13.656   3.326
70687SOL     OW13892   3.906  12.733  10.248
70687SOL    HW113893   3.852  12.812  10.238
70687SOL    HW213894   3.944  12.720  10.161
70688SOL     OW13895  14.120   0.944  11.499
70688SOL    HW113896  14.181   0.873  11.518
70688SOL    HW213897  14.146   0.976  11.413
70689SOL     OW13898   6.236   7.906   8.319
70689SOL    HW113899   6.191   7.854   8.253
70689SOL    HW213900   6.328   7.880   8.312
70690SOL     OW13901   0.904   0.643   8.802
70690SOL    HW113902   0.873   0.555   8.825
70690SOL    HW213903   0.890   0.649   8.707
70691SOL     OW13904   0.544   7.462   9.347
70691SOL    HW113905   0.466   7.479   9.294
70691SOL    HW213906   0.559   7.368   9.338
70692SOL     OW13907  13.648   3.371   6.927
70692SOL    HW113908  13.735   3.365   6.889
70692SOL    HW213909  13.661   3.417   7.010
70693SOL     OW13910   4.130  13.789   9.561
70693SOL    HW113911   4.102  13.880   9.562
70693SOL    HW213912   4.124  13.761   9.652
70694SOL     OW13913   3.075  14.100   4.211
70694SOL    HW113914   3.014  14.048   4.158
70694SOL    HW213915   3.162  14.074   4.181
70695SOL     OW13916   8.335  13.252   3.780
70695SOL    HW113917   8.401  13.222   3.717
70695SOL    HW213918   8.263  13.190   3.771
70696SOL     OW13919  14.115  11.654   8.116
70696SOL    HW113920  14.208  11.649   8.092
70696SOL    HW213921  14.096  11.748   8.118
70697SOL     OW13922  12.901   6.855   9.328
70697SOL    HW113923  12.872   6.879   9.416
70697SOL    HW213924  12.824   6.818   9.286
70698SOL     OW13925   4.925   6.557  13.003
70698SOL    HW113926   4.863   6.611  13.051
70698SOL    HW213927   4.901   6.568  12.911
70699SOL     OW13928   8.760  12.930   5.834
70699SOL    HW113929   8.777  12.913   5.741
70699SOL    HW213930   8.719  13.016   5.836
70700SOL     OW13931   9.020   0.765   5.027
70700SOL    HW113932   8.961   0.840   5.019
70700SOL    HW213933   9.025   0.748   5.122
70701SOL     OW13934  14.753   8.746  11.934
70701SOL    HW113935  14.720   8.749  12.024
70701SOL    HW213936  14.838   8.789  11.939
70702SOL     OW13937   7.798  14.367   6.985
70702SOL    HW113938   7.889  14.367   6.955
70702SOL    HW213939   7.747  14.367   6.904
70703SOL     OW13940   4.913   3.875   4.268
70703SOL    HW113941   4.905   3.791   4.224
70703SOL    HW213942   4.823   3.907   4.276
70704SOL     OW13943  11.084   5.907  12.054
70704SOL    HW113944  11.080   5.952  12.138
70704SOL    HW213945  11.116   5.973  11.993
70705SOL     OW13946   1.039  10.227  10.942
70705SOL    HW113947   1.061  10.263  10.857
70705SOL    HW213948   0.975  10.157  10.923
70706SOL     OW13949   4.648   9.576   3.025
70706SOL    HW113950   4.555   9.589   3.043
70706SOL    HW213951   4.652   9.547   2.934
70707SOL     OW13952   6.325   3.650  11.270
70707SOL    HW113953   6.232   3.663  11.252
70707SOL    HW213954   6.364   3.628  11.185
70708SOL     OW13955   8.013  11.932  11.766
70708SOL    HW113956   8.089  11.878  11.789
70708SOL    HW213957   7.950  11.916  11.836
70709SOL     OW13958   9.303   9.119  14.030
70709SOL    HW113959   9.318   9.027  14.009
70709SOL    HW213960   9.391   9.157  14.033
70710SOL     OW13961   7.099   4.714   6.036
70710SOL    HW113962   7.047   4.639   6.008
70710SOL    HW213963   7.169   4.676   6.090
70711SOL     OW13964   6.185   7.736   0.765
70711SOL    HW113965   6.243   7.791   0.713
70711SOL    HW213966   6.199   7.765   0.855
70712SOL     OW13967   9.400  11.522   1.428
70712SOL    HW113968   9.372  11.483   1.511
70712SOL    HW213969   9.357  11.607   1.426
70713SOL     OW13970   6.940  10.144   8.282
70713SOL    HW113971   6.866  10.084   8.279
70713SOL    HW213972   6.904  10.225   8.318
70714SOL     OW13973  10.953   7.840   1.417
70714SOL    HW113974  10.962   7.906   1.487
70714SOL    HW213975  10.964   7.756   1.462
70715SOL     OW13976  10.249   0.146   7.320
70715SOL    HW113977  10.274   0.231   7.355
70715SOL    HW213978  10.330   0.107   7.288
70716SOL     OW13979   1.158   3.934   1.036
70716SOL    HW113980   1.179   3.957   1.126
70716SOL    HW213981   1.201   3.850   1.022
70717SOL     OW13982  13.639   9.656   2.136
70717SOL    HW113983  13.721   9.665   2.087
70717SOL    HW213984  13.615   9.564   2.126
70718SOL     OW13985   9.902  11.400   0.325
70718SOL    HW113986   9.953  11.341   0.268
70718SOL    HW213987   9.817  11.408   0.281
70719SOL     OW13988   6.388   0.394  11.351
70719SOL    HW113989   6.460   0.414  11.410
70719SOL    HW213990   6.430   0.369  11.268
70720SOL     OW13991   2.562  10.048   3.093
70720SOL    HW113992   2.551  10.142   3.108
70720SOL    HW213993   2.645  10.041   3.045
70721SOL     OW13994   9.268   3.901  10.111
70721SOL    HW113995   9.324   3.965  10.066
70721SOL    HW213996   9.325   3.827  10.129
70722SOL     OW13997   6.851  12.784   6.555
70722SOL    HW113998   6.769  12.790   6.505
70722SOL    HW213999   6.858  12.691   6.578
70723SOL     OW14000   2.348   4.496  13.971
70723SOL    HW114001   2.374   4.434  13.903
70723SOL    HW214002   2.378   4.457  14.053
70724SOL     OW14003   4.172   1.530   2.437
70724SOL    HW114004   4.134   1.512   2.523
70724SOL    HW214005   4.185   1.625   2.436
70725SOL     OW14006   7.007   7.736  11.025
70725SOL    HW114007   7.075   7.726  10.959
70725SOL    HW214008   6.948   7.662  11.011
70726SOL     OW14009  14.425   5.395   3.891
70726SOL    HW114010  14.505   5.344   3.880
70726SOL    HW214011  14.434   5.437   3.977
70727SOL     OW14012   3.514   5.907   7.235
70727SOL    HW114013   3.499   5.818   7.202
70727SOL    HW214014   3.427   5.942   7.250
70728SOL     OW14015   7.788  13.120  14.108
70728SOL    HW114016   7.805  13.199  14.159
70728SOL    HW214017   7.856  13.058  14.136
70729SOL     OW14018  11.666  13.924  10.187
70729SOL    HW114019  11.679  14.017  10.168
70729SOL    HW214020  11.617  13.923  10.269
70730SOL     OW14021  12.454  11.783  10.967
70730SOL    HW114022  12.463  11.877  10.984
70730SOL    HW214023  12.421  11.778  10.878
70731SOL     OW14024   0.346  14.439   6.949
70731SOL    HW114025   0.434  14.403   6.955
70731SOL    HW214026   0.352  14.527   6.986
70732SOL     OW14027   2.289   4.495   7.984
70732SOL    HW114028   2.201   4.488   7.947
70732SOL    HW214029   2.306   4.408   8.020
70733SOL     OW14030   4.010  12.365   1.511
70733SOL    HW114031   4.104  12.352   1.523
70733SOL    HW214032   3.994  12.452   1.546
70734SOL     OW14033   6.685  12.376   3.545
70734SOL    HW114034   6.678  12.286   3.576
70734SOL    HW214035   6.738  12.370   3.465
70735SOL     OW14036  14.621   9.964   7.929
70735SOL    HW114037  14.639  10.057   7.914
70735SOL    HW214038  14.536   9.963   7.975
70736SOL     OW14039   0.208   4.628   8.353
70736SOL    HW114040   0.153   4.558   8.389
70736SOL    HW214041   0.297   4.594   8.361
70737SOL     OW14042   6.968  12.544   5.476
70737SOL    HW114043   6.884  12.548   5.522
70737SOL    HW214044   6.975  12.628   5.431
70738SOL     OW14045   2.072   1.871   8.059
70738SOL    HW114046   1.995   1.871   8.117
70738SOL    HW214047   2.084   1.963   8.036
70739SOL     OW14048   5.231   1.142   8.452
70739SOL    HW114049   5.249   1.049   8.439
70739SOL    HW214050   5.254   1.182   8.368
70740SOL     OW14051  11.006   4.244   9.546
70740SOL    HW114052  11.066   4.317   9.531
70740SOL    HW214053  10.925   4.270   9.503
70741SOL     OW14054   9.685  11.004   0.245
70741SOL    HW114055   9.637  11.033   0.323
70741SOL    HW214056   9.723  11.084   0.209
70742SOL     OW14057  14.730  10.474   3.347
70742SOL    HW114058  14.810  10.512   3.384
70742SOL    HW214059  14.664  10.543   3.356
70743SOL     OW14060   0.951   8.661  10.777
70743SOL    HW114061   0.915   8.731  10.830
70743SOL    HW214062   1.021   8.702  10.726
70744SOL     OW14063   6.599   2.386   4.323
70744SOL    HW114064   6.591   2.294   4.348
70744SOL    HW214065   6.647   2.426   4.395
70745SOL     OW14066   7.390   9.100   8.668
70745SOL    HW114067   7.384   9.040   8.594
70745SOL    HW214068   7.361   9.048   8.743
70746SOL     OW14069   8.156  13.543  11.749
70746SOL    HW114070   8.184  13.466  11.799
70746SOL    HW214071   8.232  13.567  11.697
70747SOL     OW14072   1.114  12.862  10.399
70747SOL    HW114073   1.030  12.823  10.374
70747SOL    HW214074   1.156  12.795  10.454
70748SOL     OW14075   2.782   5.882   5.336
70748SOL    HW114076   2.844   5.945   5.300
70748SOL    HW214077   2.697   5.908   5.301
70749SOL     OW14078  10.008  12.213   3.395
70749SOL    HW114079  10.019  12.205   3.300
70749SOL    HW214080  10.093  12.242   3.427
70750SOL     OW14081   1.571   6.430   6.789
70750SOL    HW114082   1.666   6.419   6.782
70750SOL    HW214083   1.548   6.392   6.873
70751SOL     OW14084  11.996   2.531   8.252
70751SOL    HW114085  12.005   2.622   8.223
70751SOL    HW214086  12.000   2.536   8.347
70752SOL     OW14087  12.092  13.008  14.852
70752SOL    HW114088  12.099  12.953   0.058
70752SOL    HW214089  12.009  13.054  14.861
70753SOL     OW14090   4.561  11.648  12.341
70753SOL    HW114091   4.554  11.700  12.421
70753SOL    HW214092   4.495  11.686  12.283
70754SOL     OW14093  12.562   8.391   9.838
70754SOL    HW114094  12.507   8.335   9.783
70754SOL    HW214095  12.501   8.450   9.882
70755SOL     OW14096   2.898   9.353  11.532
70755SOL    HW114097   2.951   9.429  11.510
70755SOL    HW214098   2.949   9.306  11.598
70756SOL     OW14099   7.977   7.825  14.372
70756SOL    HW114100   7.961   7.767  14.298
70756SOL    HW214101   7.939   7.779  14.447
70757SOL     OW14102   9.754   0.411   0.962
70757SOL    HW114103   9.679   0.435   0.907
70757SOL    HW214104   9.826   0.464   0.928
70758SOL     OW14105   5.255   0.273  10.431
70758SOL    HW114106   5.265   0.266  10.336
70758SOL    HW214107   5.246   0.367  10.448
70759SOL     OW14108   4.606  11.772   1.104
70759SOL    HW114109   4.552  11.812   1.173
70759SOL    HW214110   4.546  11.759   1.031
70760SOL     OW14111   5.564   0.863  12.544
70760SOL    HW114112   5.564   0.783  12.597
70760SOL    HW214113   5.588   0.833  12.456
70761SOL     OW14114  11.075   4.243   6.745
70761SOL    HW114115  11.147   4.219   6.803
70761SOL    HW214116  11.069   4.339   6.752
70762SOL     OW14117   4.624   8.642   7.904
70762SOL    HW114118   4.696   8.583   7.878
70762SOL    HW214119   4.578   8.660   7.822
70763SOL     OW14120  14.025  13.063   5.984
70763SOL    HW114121  14.032  12.968   5.971
70763SOL    HW214122  13.934  13.077   6.011
70764SOL     OW14123  14.217   7.122   5.018
70764SOL    HW114124  14.161   7.137   5.094
70764SOL    HW214125  14.161   7.141   4.943
70765SOL     OW14126   3.960   7.385  14.053
70765SOL    HW114127   3.996   7.339  14.129
70765SOL    HW214128   3.897   7.447  14.090
70766SOL     OW14129   3.305   8.952   1.156
70766SOL    HW114130   3.222   8.949   1.203
70766SOL    HW214131   3.346   8.867   1.173
70767SOL     OW14132  12.624   6.842   8.853
70767SOL    HW114133  12.531   6.841   8.831
70767SOL    HW214134  12.630   6.893   8.934
70768SOL     OW14135   0.498   4.893  12.245
70768SOL    HW114136   0.498   4.944  12.165
70768SOL    HW214137   0.517   4.956  12.314
70769SOL     OW14138   5.398  14.827   6.639
70769SOL    HW114139   5.376  14.745   6.682
70769SOL    HW214140   5.485  14.849   6.673
70770SOL     OW14141   2.179   0.157   0.788
70770SOL    HW114142   2.118   0.097   0.830
70770SOL    HW214143   2.261   0.146   0.835
70771SOL     OW14144   9.128  11.709   9.721
70771SOL    HW114145   9.090  11.755   9.646
70771SOL    HW214146   9.080  11.627   9.727
70772SOL     OW14147  10.744   5.615   3.419
70772SOL    HW114148  10.758   5.625   3.514
70772SOL    HW214149  10.651   5.594   3.412
70773SOL     OW14150   1.498   5.860   6.247
70773SOL    HW114151   1.540   5.946   6.246
70773SOL    HW214152   1.451   5.858   6.330
70774SOL     OW14153   3.012  10.314  11.117
70774SOL    HW114154   3.064  10.383  11.159
70774SOL    HW214155   3.038  10.234  11.162
70775SOL     OW14156   5.509   2.973   0.092
70775SOL    HW114157   5.469   3.036   0.032
70775SOL    HW214158   5.502   2.889   0.047
70776SOL     OW14159   5.035   1.507   5.401
70776SOL    HW114160   5.008   1.474   5.316
70776SOL    HW214161   4.973   1.578   5.420
70777SOL     OW14162   4.680   0.270   2.765
70777SOL    HW114163   4.660   0.176   2.759
70777SOL    HW214164   4.661   0.304   2.677
70778SOL     OW14165  14.306   3.446  13.179
70778SOL    HW114166  14.386   3.460  13.229
70778SOL    HW214167  14.316   3.359  13.140
70779SOL     OW14168  14.227   4.204  13.437
70779SOL    HW114169  14.232   4.297  13.460
70779SOL    HW214170  14.241   4.157  13.519
70780SOL     OW14171   1.671   0.128  13.068
70780SOL    HW114172   1.599   0.107  13.128
70780SOL    HW214173   1.630   0.180  12.999
70781SOL     OW14174   3.766   5.236   5.339
70781SOL    HW114175   3.740   5.326   5.359
70781SOL    HW214176   3.846   5.245   5.287
70782SOL     OW14177  11.049   0.949  10.290
70782SOL    HW114178  11.104   0.964  10.367
70782SOL    HW214179  10.975   0.898  10.323
70783SOL     OW14180   6.153  13.861   0.685
70783SOL    HW114181   6.175  13.945   0.646
70783SOL    HW214182   6.219  13.848   0.752
70784SOL     OW14183  13.782  11.640   5.571
70784SOL    HW114184  13.699  11.646   5.524
70784SOL    HW214185  13.833  11.715   5.541
70785SOL     OW14186  10.691   1.138  10.962
70785SOL    HW114187  10.679   1.169  11.051
70785SOL    HW214188  10.763   1.191  10.928
70786SOL     OW14189   1.040   4.212  13.027
70786SOL    HW114190   0.969   4.178  13.083
70786SOL    HW214191   1.020   4.178  12.940
70787SOL     OW14192   8.719   1.310   8.881
70787SOL    HW114193   8.639   1.331   8.833
70787SOL    HW214194   8.688   1.272   8.963
70788SOL     OW14195   8.487   8.221   9.820
70788SOL    HW114196   8.467   8.184   9.734
70788SOL    HW214197   8.583   8.229   9.821
70789SOL     OW14198   5.209   3.433   9.278
70789SOL    HW114199   5.179   3.464   9.193
70789SOL    HW214200   5.143   3.367   9.303
70790SOL     OW14201   8.046   7.983   2.642
70790SOL    HW114202   8.108   8.048   2.610
70790SOL    HW214203   7.971   8.033   2.673
70791SOL     OW14204  11.801   7.868   4.522
70791SOL    HW114205  11.724   7.812   4.533
70791SOL    HW214206  11.802   7.888   4.429
70792SOL     OW14207   6.733   0.123  14.311
70792SOL    HW114208   6.777   0.062  14.369
70792SOL    HW214209   6.663   0.161  14.364
70793SOL     OW14210   3.364   4.564   4.139
70793SOL    HW114211   3.418   4.633   4.178
70793SOL    HW214212   3.313   4.608   4.072
70794SOL     OW14213  11.386   7.520   3.631
70794SOL    HW114214  11.414   7.502   3.541
70794SOL    HW214215  11.466   7.509   3.683
70795SOL     OW14216   0.454  11.268   6.418
70795SOL    HW114217   0.437  11.278   6.324
70795SOL    HW214218   0.367  11.275   6.458
70796SOL     OW14219  12.521   2.163   3.491
70796SOL    HW114220  12.591   2.198   3.434
70796SOL    HW214221  12.561   2.161   3.578
70797SOL     OW14222   5.309   4.600   1.174
70797SOL    HW114223   5.242   4.538   1.204
70797SOL    HW214224   5.318   4.581   1.081
70798SOL     OW14225   9.638   4.827   2.822
70798SOL    HW114226   9.721   4.808   2.866
70798SOL    HW214227   9.660   4.890   2.754
70799SOL     OW14228  12.264   1.210   5.894
70799SOL    HW114229  12.184   1.182   5.851
70799SOL    HW214230  12.259   1.171   5.981
70800SOL     OW14231   0.325   3.645   0.398
70800SOL    HW114232   0.389   3.588   0.356
70800SOL    HW214233   0.353   3.648   0.490
70801SOL     OW14234   8.891   1.893   7.401
70801SOL    HW114235   8.926   1.905   7.489
70801SOL    HW214236   8.953   1.834   7.358
70802SOL     OW14237   4.080   3.510   3.183
70802SOL    HW114238   4.070   3.548   3.096
70802SOL    HW214239   4.022   3.562   3.239
70803SOL     OW14240   0.176  11.672   9.650
70803SOL    HW114241   0.265  11.677   9.686
70803SOL    HW214242   0.162  11.759   9.612
70804SOL     OW14243   3.535   6.361   0.474
70804SOL    HW114244   3.517   6.267   0.481
70804SOL    HW214245   3.592   6.381   0.548
70805SOL     OW14246   8.546  11.711  12.339
70805SOL    HW114247   8.484  11.711  12.266
70805SOL    HW214248   8.502  11.761  12.408
70806SOL     OW14249   2.963   0.259   6.433
70806SOL    HW114250   2.913   0.210   6.368
70806SOL    HW214251   3.046   0.212   6.440
70807SOL     OW14252  11.085  11.622  13.525
70807SOL    HW114253  11.118  11.542  13.485
70807SOL    HW214254  11.074  11.682  13.451
70808SOL     OW14255   2.633   0.823  10.844
70808SOL    HW114256   2.609   0.759  10.911
70808SOL    HW214257   2.561   0.820  10.781
70809SOL     OW14258  13.407   8.586   7.940
70809SOL    HW114259  13.488   8.606   7.893
70809SOL    HW214260  13.344   8.650   7.907
70810SOL     OW14261   0.028   0.943  13.298
70810SOL    HW114262  14.866   0.881  13.362
70810SOL    HW214263   0.118   0.959  13.326
70811SOL     OW14264  10.448  10.603   4.446
70811SOL    HW114265  10.460  10.618   4.352
70811SOL    HW214266  10.536  10.606   4.482
70812SOL     OW14267  14.492   3.618  12.241
70812SOL    HW114268  14.528   3.607  12.153
70812SOL    HW214269  14.513   3.536  12.286
70813SOL     OW14270   6.811   3.457   7.625
70813SOL    HW114271   6.737   3.404   7.597
70813SOL    HW214272   6.884   3.428   7.570
70814SOL     OW14273   9.912   9.390   1.771
70814SOL    HW114274   9.974   9.358   1.706
70814SOL    HW214275   9.855   9.450   1.722
70815SOL     OW14276  10.535   7.921  11.207
70815SOL    HW114277  10.596   7.870  11.153
70815SOL    HW214278  10.466   7.859  11.230
70816SOL     OW14279   4.092  11.692  13.173
70816SOL    HW114280   4.113  11.610  13.217
70816SOL    HW214281   4.030  11.736  13.231
70817SOL     OW14282  14.531   5.751   2.341
70817SOL    HW114283  14.575   5.822   2.295
70817SOL    HW214284  14.457   5.728   2.285
70818SOL     OW14285   6.104   0.048  13.158
70818SOL    HW114286   6.013   0.075  13.171
70818SOL    HW214287   6.144   0.055  13.245
70819SOL     OW14288  12.276   8.474   9.008
70819SOL    HW114289  12.313   8.419   8.939
70819SOL    HW214290  12.257   8.413   9.079
70820SOL     OW14291   7.280  12.229   9.743
70820SOL    HW114292   7.331  12.209   9.821
70820SOL    HW214293   7.211  12.288   9.773
70821SOL     OW14294  12.867   8.654   5.188
70821SOL    HW114295  12.961   8.639   5.190
70821SOL    HW214296  12.829   8.577   5.229
70822SOL     OW14297  10.532  11.638   3.722
70822SOL    HW114298  10.530  11.733   3.713
70822SOL    HW214299  10.623  11.618   3.745
70823SOL     OW14300  13.045   4.130   4.557
70823SOL    HW114301  13.127   4.131   4.509
70823SOL    HW214302  13.051   4.054   4.615
70824SOL     OW14303  10.403  12.614   6.626
70824SOL    HW114304  10.343  12.668   6.574
70824SOL    HW214305  10.401  12.653   6.713
70825SOL     OW14306   7.102   4.091   3.823
70825SOL    HW114307   7.137   4.144   3.751
70825SOL    HW214308   7.104   4.001   3.789
70826SOL     OW14309  11.752   1.678  12.752
70826SOL    HW114310  11.752   1.586  12.724
70826SOL    HW214311  11.755   1.674  12.848
70827SOL     OW14312   9.424   5.181   0.515
70827SOL    HW114313   9.464   5.267   0.525
70827SOL    HW214314   9.495   5.119   0.532
70828SOL     OW14315   5.698  10.523   5.373
70828SOL    HW114316   5.716  10.471   5.295
70828SOL    HW214317   5.772  10.583   5.379
70829SOL     OW14318  13.493   9.311   8.313
70829SOL    HW114319  13.553   9.380   8.284
70829SOL    HW214320  13.515   9.298   8.405
70830SOL     OW14321   2.404   6.320   5.788
70830SOL    HW114322   2.335   6.375   5.824
70830SOL    HW214323   2.373   6.295   5.701
70831SOL     OW14324   3.246   9.243   0.660
70831SOL    HW114325   3.261   9.196   0.578
70831SOL    HW214326   3.334   9.263   0.693
70832SOL     OW14327   1.487   2.849   3.424
70832SOL    HW114328   1.437   2.830   3.504
70832SOL    HW214329   1.507   2.942   3.431
70833SOL     OW14330  10.805   5.127  13.187
70833SOL    HW114331  10.846   5.059  13.133
70833SOL    HW214332  10.756   5.181  13.125
70834SOL     OW14333  11.731   0.749   0.009
70834SOL    HW114334  11.713   0.833  14.840
70834SOL    HW214335  11.734   0.686  14.809
70835SOL     OW14336   5.034  13.295   0.788
70835SOL    HW114337   5.056  13.269   0.877
70835SOL    HW214338   5.114  13.276   0.738
70836SOL     OW14339   6.055   6.371   0.999
70836SOL    HW114340   5.981   6.316   0.975
70836SOL    HW214341   6.124   6.308   1.024
70837SOL     OW14342   7.291   3.038  12.253
70837SOL    HW114343   7.333   3.038  12.339
70837SOL    HW214344   7.359   3.067  12.193
70838SOL     OW14345   9.180  10.684   0.315
70838SOL    HW114346   9.129  10.762   0.336
70838SOL    HW214347   9.172  10.674   0.220
70839SOL     OW14348   6.757   9.704   9.455
70839SOL    HW114349   6.670   9.698   9.495
70839SOL    HW214350   6.791   9.615   9.456
70840SOL     OW14351  11.172   9.099  13.310
70840SOL    HW114352  11.194   9.006  13.303
70840SOL    HW214353  11.244   9.137  13.360
70841SOL     OW14354  14.314  10.344   4.383
70841SOL    HW114355  14.284  10.400   4.455
70841SOL    HW214356  14.235  10.307   4.346
70842SOL     OW14357  11.402  14.271   6.706
70842SOL    HW114358  11.469  14.215   6.745
70842SOL    HW214359  11.330  14.212   6.685
70843SOL     OW14360   3.371   3.769   2.548
70843SOL    HW114361   3.343   3.758   2.639
70843SOL    HW214362   3.411   3.685   2.525
70844SOL     OW14363   9.192  10.097   9.076
70844SOL    HW114364   9.277  10.100   9.119
70844SOL    HW214365   9.185  10.007   9.043
70845SOL     OW14366   2.950  13.645  12.217
70845SOL    HW114367   2.877  13.598  12.257
70845SOL    HW214368   2.930  13.645  12.123
70846SOL     OW14369  11.784   3.503   5.400
70846SOL    HW114370  11.831   3.546   5.328
70846SOL    HW214371  11.729   3.571   5.437
70847SOL     OW14372  11.639   2.037  14.328
70847SOL    HW114373  11.724   2.016  14.367
70847SOL    HW214374  11.659   2.100  14.260
70848SOL     OW14375   4.146   5.636  14.757
70848SOL    HW114376   4.138   5.732  14.763
70848SOL    HW214377   4.092   5.603  14.829
70849SOL     OW14378   0.553  11.208  11.328
70849SOL    HW114379   0.547  11.265  11.251
70849SOL    HW214380   0.462  11.183  11.346
70850SOL     OW14381   1.398   2.614  11.595
70850SOL    HW114382   1.364   2.703  11.601
70850SOL    HW214383   1.463   2.609  11.665
70851SOL     OW14384  11.488   8.599   0.654
70851SOL    HW114385  11.544   8.585   0.577
70851SOL    HW214386  11.408   8.638   0.619
70852SOL     OW14387   1.900   8.382  14.105
70852SOL    HW114388   1.923   8.316  14.171
70852SOL    HW214389   1.862   8.331  14.033
70853SOL     OW14390   9.217  12.877  14.060
70853SOL    HW114391   9.301  12.901  14.019
70853SOL    HW214392   9.180  12.810  14.003
70854SOL     OW14393   6.093   7.893   6.621
70854SOL    HW114394   6.123   7.804   6.637
70854SOL    HW214395   6.055   7.890   6.533
70855SOL     OW14396   0.768   3.711  10.266
70855SOL    HW114397   0.782   3.622  10.301
70855SOL    HW214398   0.790   3.704  10.173
70856SOL     OW14399  14.720   3.802   2.570
70856SOL    HW114400  14.717   3.893   2.598
70856SOL    HW214401  14.641   3.791   2.516
70857SOL     OW14402   2.009  13.363   5.123
70857SOL    HW114403   1.915  13.380   5.127
70857SOL    HW214404   2.049  13.443   5.158
70858SOL     OW14405   7.064  12.189  14.038
70858SOL    HW114406   6.976  12.224  14.021
70858SOL    HW214407   7.106  12.189  13.952
70859SOL     OW14408  14.428   2.512   6.071
70859SOL    HW114409  14.490   2.481   6.005
70859SOL    HW214410  14.428   2.608   6.060
70860SOL     OW14411   1.920  12.561   4.185
70860SOL    HW114412   1.939  12.477   4.144
70860SOL    HW214413   1.991  12.618   4.157
70861SOL     OW14414   5.099  13.467  11.187
70861SOL    HW114415   5.067  13.551  11.219
70861SOL    HW214416   5.087  13.471  11.092
70862SOL     OW14417  11.966  13.307  14.158
70862SOL    HW114418  11.942  13.373  14.224
70862SOL    HW214419  12.050  13.272  14.188
70863SOL     OW14420  10.392   0.841   2.902
70863SOL    HW114421  10.341   0.769   2.937
70863SOL    HW214422  10.326   0.901   2.865
70864SOL     OW14423   8.361   8.486  11.387
70864SOL    HW114424   8.448   8.446  11.397
70864SOL    HW214425   8.367   8.538  11.307
70865SOL     OW14426  13.013   0.901   9.155
70865SOL    HW114427  12.965   0.857   9.085
70865SOL    HW214428  12.974   0.869   9.236
70866SOL     OW14429  14.797   2.870   8.879
70866SOL    HW114430  14.828   2.919   8.803
70866SOL    HW214431   0.003   2.832   8.917
70867SOL     OW14432  13.404   3.760   3.163
70867SOL    HW114433  13.362   3.676   3.177
70867SOL    HW214434  13.339   3.811   3.114
70868SOL     OW14435   9.571  10.275  12.311
70868SOL    HW114436   9.647  10.288  12.255
70868SOL    HW214437   9.498  10.309  12.261
70869SOL     OW14438   2.903   5.821   3.144
70869SOL    HW114439   2.902   5.914   3.167
70869SOL    HW214440   2.884   5.775   3.226
70870SOL     OW14441   3.355  12.873   7.114
70870SOL    HW114442   3.363  12.793   7.063
70870SOL    HW214443   3.425  12.930   7.081
70871SOL     OW14444  11.160   6.979   2.071
70871SOL    HW114445  11.092   6.963   2.137
70871SOL    HW214446  11.242   6.957   2.115
70872SOL     OW14447   5.780   7.835   5.034
70872SOL    HW114448   5.786   7.912   5.090
70872SOL    HW214449   5.745   7.767   5.092
70873SOL     OW14450   5.446   2.415   2.594
70873SOL    HW114451   5.500   2.341   2.620
70873SOL    HW214452   5.374   2.416   2.656
70874SOL     OW14453   9.716   5.824  12.460
70874SOL    HW114454   9.800   5.853  12.496
70874SOL    HW214455   9.708   5.733  12.486
70875SOL     OW14456   8.536   1.365   9.801
70875SOL    HW114457   8.551   1.341   9.893
70875SOL    HW214458   8.457   1.318   9.776
70876SOL     OW14459   0.333   5.931  13.331
70876SOL    HW114460   0.415   5.938  13.381
70876SOL    HW214461   0.285   5.860  13.373
70877SOL     OW14462   7.316   9.217   1.880
70877SOL    HW114463   7.395   9.168   1.900
70877SOL    HW214464   7.341   9.309   1.891
70878SOL     OW14465   3.701   0.601   0.589
70878SOL    HW114466   3.670   0.613   0.678
70878SOL    HW214467   3.697   0.688   0.550
70879SOL     OW14468   8.395  13.942   0.841
70879SOL    HW114469   8.408  14.000   0.915
70879SOL    HW214470   8.468  13.962   0.782
70880SOL     OW14471  10.574  10.392  10.598
70880SOL    HW114472  10.650  10.349  10.638
70880SOL    HW214473  10.550  10.335  10.525
70881SOL     OW14474   0.116   4.867   3.354
70881SOL    HW114475   0.160   4.847   3.437
70881SOL    HW214476   0.086   4.957   3.364
70882SOL     OW14477   6.599  12.332   0.982
70882SOL    HW114478   6.594  12.399   0.913
70882SOL    HW214479   6.692  12.324   1.000
70883SOL     OW14480  10.877  10.509   1.050
70883SOL    HW114481  10.848  10.600   1.044
70883SOL    HW214482  10.971  10.512   1.032
70884SOL     OW14483   7.185  13.182   6.638
70884SOL    HW114484   7.219  13.147   6.720
70884SOL    HW214485   7.114  13.123   6.613
70885SOL     OW14486   6.676  13.534   7.943
70885SOL    HW114487   6.613  13.471   7.977
70885SOL    HW214488   6.757  13.514   7.991
70886SOL     OW14489  11.715   8.950   3.057
70886SOL    HW114490  11.809   8.957   3.038
70886SOL    HW214491  11.693   8.859   3.036
70887SOL     OW14492   6.352   5.475   6.400
70887SOL    HW114493   6.441   5.476   6.435
70887SOL    HW214494   6.320   5.564   6.414
70888SOL     OW14495   3.706  13.076   0.634
70888SOL    HW114496   3.670  12.989   0.653
70888SOL    HW214497   3.795  13.058   0.603
70889SOL     OW14498   9.013  10.659   9.363
70889SOL    HW114499   9.037  10.693   9.277
70889SOL    HW214500   9.088  10.682   9.419
70890SOL     OW14501   3.309   6.754   6.271
70890SOL    HW114502   3.347   6.842   6.259
70890SOL    HW214503   3.229   6.769   6.321
70891SOL     OW14504  13.109   0.528  14.075
70891SOL    HW114505  13.103   0.612  14.031
70891SOL    HW214506  13.105   0.549  14.168
70892SOL     OW14507   8.532   0.918   6.826
70892SOL    HW114508   8.546   0.862   6.749
70892SOL    HW214509   8.597   0.988   6.817
70893SOL     OW14510   3.001  12.585   9.123
70893SOL    HW114511   3.090  12.554   9.141
70893SOL    HW214512   3.000  12.600   9.028
70894SOL     OW14513   6.134  11.463   8.764
70894SOL    HW114514   6.039  11.466   8.761
70894SOL    HW214515   6.163  11.544   8.723
70895SOL     OW14516   4.344   8.522  12.920
70895SOL    HW114517   4.272   8.574  12.956
70895SOL    HW214518   4.369   8.463  12.991
70896SOL     OW14519   4.691  14.439   5.562
70896SOL    HW114520   4.723  14.491   5.636
70896SOL    HW214521   4.669  14.503   5.495
70897SOL     OW14522   8.224   7.001  12.033
70897SOL    HW114523   8.233   6.951  12.114
70897SOL    HW214524   8.148   7.057  12.048
70898SOL     OW14525   2.846  12.660   7.008
70898SOL    HW114526   2.934  12.639   7.039
70898SOL    HW214527   2.859  12.727   6.941
70899SOL     OW14528   0.921  10.025   0.996
70899SOL    HW114529   0.905  10.070   0.913
70899SOL    HW214530   0.843   9.972   1.010
70900SOL     OW14531   1.178  12.636   8.944
70900SOL    HW114532   1.140  12.614   9.029
70900SOL    HW214533   1.163  12.730   8.934
70901SOL     OW14534   3.272   6.639  11.781
70901SOL    HW114535   3.224   6.612  11.703
70901SOL    HW214536   3.363   6.624  11.759
70902SOL     OW14537   6.852   8.325   1.805
70902SOL    HW114538   6.828   8.327   1.713
70902SOL    HW214539   6.783   8.274   1.847
70903SOL     OW14540   2.465   8.758   2.078
70903SOL    HW114541   2.553   8.740   2.113
70903SOL    HW214542   2.480   8.772   1.984
70904SOL     OW14543   4.059  13.560  13.526
70904SOL    HW114544   3.979  13.612  13.534
70904SOL    HW214545   4.068  13.543  13.432
70905SOL     OW14546   1.010   7.754   4.654
70905SOL    HW114547   1.018   7.757   4.750
70905SOL    HW214548   0.922   7.788   4.636
70906SOL     OW14549   4.604   4.684   6.495
70906SOL    HW114550   4.614   4.759   6.436
70906SOL    HW214551   4.692   4.667   6.528
70907SOL     OW14552   5.441  11.678  12.932
70907SOL    HW114553   5.506  11.660  13.000
70907SOL    HW214554   5.486  11.737  12.871
70908SOL     OW14555   4.265   9.445  11.366
70908SOL    HW114556   4.309   9.520  11.325
70908SOL    HW214557   4.241   9.476  11.453
70909SOL     OW14558   0.428   4.577   5.214
70909SOL    HW114559   0.426   4.494   5.262
70909SOL    HW214560   0.516   4.580   5.176
70910SOL     OW14561   8.759   3.451   6.521
70910SOL    HW114562   8.835   3.498   6.488
70910SOL    HW214563   8.722   3.509   6.588
70911SOL     OW14564   4.910   5.716  14.852
70911SOL    HW114565   4.881   5.688  14.765
70911SOL    HW214566   4.868   5.654   0.040
70912SOL     OW14567  14.836   3.480   5.382
70912SOL    HW114568  14.808   3.485   5.473
70912SOL    HW214569  14.760   3.444   5.336
70913SOL     OW14570   9.055  12.070  13.531
70913SOL    HW114571   9.119  12.073  13.460
70913SOL    HW214572   9.019  12.159  13.534
70914SOL     OW14573  14.584   4.605  13.694
70914SOL    HW114574  14.645   4.532  13.703
70914SOL    HW214575  14.504   4.575  13.736
70915SOL     OW14576  11.326   1.412  11.033
70915SOL    HW114577  11.409   1.381  11.069
70915SOL    HW214578  11.327   1.506  11.048
70916SOL     OW14579   7.676   8.644   3.669
70916SOL    HW114580   7.628   8.622   3.749
70916SOL    HW214581   7.728   8.566   3.650
70917SOL     OW14582   5.132  10.385  14.193
70917SOL    HW114583   5.180  10.431  14.124
70917SOL    HW214584   5.125  10.449  14.264
70918SOL     OW14585   2.028   6.362  11.330
70918SOL    HW114586   2.084   6.304  11.278
70918SOL    HW214587   2.029   6.445  11.282
70919SOL     OW14588   7.746  11.974  11.969
70919SOL    HW114589   7.797  12.018  12.037
70919SOL    HW214590   7.771  11.882  11.976
70920SOL     OW14591   2.677   9.426   5.999
70920SOL    HW114592   2.765   9.409   5.965
70920SOL    HW214593   2.675   9.520   6.017
70921SOL     OW14594  11.544   4.624   1.130
70921SOL    HW114595  11.590   4.701   1.161
70921SOL    HW214596  11.453   4.639   1.154
70922SOL     OW14597   4.335   4.603  11.629
70922SOL    HW114598   4.254   4.559  11.654
70922SOL    HW214599   4.330   4.611  11.534
70923SOL     OW14600   6.659  10.561   4.197
70923SOL    HW114601   6.715  10.630   4.162
70923SOL    HW214602   6.720  10.494   4.228
70924SOL     OW14603  12.860  12.318   1.479
70924SOL    HW114604  12.851  12.265   1.399
70924SOL    HW214605  12.771  12.330   1.510
70925SOL     OW14606   4.928  11.969   8.131
70925SOL    HW114607   4.961  11.882   8.152
70925SOL    HW214608   4.953  12.023   8.206
70926SOL     OW14609   8.530   0.927   7.485
70926SOL    HW114610   8.590   0.944   7.412
70926SOL    HW214611   8.472   1.003   7.486
70927SOL     OW14612  12.892   9.655   2.179
70927SOL    HW114613  12.834   9.592   2.221
70927SOL    HW214614  12.980   9.620   2.193
70928SOL     OW14615   0.842   2.545   6.971
70928SOL    HW114616   0.835   2.636   6.941
70928SOL    HW214617   0.888   2.551   7.055
70929SOL     OW14618   8.114   4.349  11.414
70929SOL    HW114619   8.105   4.385  11.502
70929SOL    HW214620   8.133   4.426  11.359
70930SOL     OW14621   0.318   8.092   5.522
70930SOL    HW114622   0.283   8.151   5.589
70930SOL    HW214623   0.255   8.020   5.519
70931SOL     OW14624   1.833   5.736   2.966
70931SOL    HW114625   1.821   5.726   3.061
70931SOL    HW214626   1.816   5.829   2.950
70932SOL     OW14627  11.542   2.297   2.103
70932SOL    HW114628  11.588   2.214   2.091
70932SOL    HW214629  11.564   2.348   2.025
70933SOL     OW14630  14.165   1.546  10.262
70933SOL    HW114631  14.122   1.528  10.178
70933SOL    HW214632  14.256   1.519  10.248
70934SOL     OW14633  11.517  12.762  13.435
70934SOL    HW114634  11.567  12.694  13.480
70934SOL    HW214635  11.508  12.832  13.499
70935SOL     OW14636   6.473   5.879  10.524
70935SOL    HW114637   6.487   5.785  10.523
70935SOL    HW214638   6.488   5.907  10.434
70936SOL     OW14639  14.721   9.249  14.422
70936SOL    HW114640  14.785   9.214  14.359
70936SOL    HW214641  14.655   9.180  14.429
70937SOL     OW14642   2.787   0.347   2.081
70937SOL    HW114643   2.772   0.365   1.988
70937SOL    HW214644   2.819   0.430   2.116
70938SOL     OW14645   6.620   9.242   8.193
70938SOL    HW114646   6.633   9.149   8.174
70938SOL    HW214647   6.649   9.252   8.284
70939SOL     OW14648   3.959   1.810   4.713
70939SOL    HW114649   4.037   1.844   4.756
70939SOL    HW214650   3.993   1.751   4.645
70940SOL     OW14651  14.790   3.311   9.203
70940SOL    HW114652  14.805   3.321   9.109
70940SOL    HW214653  14.730   3.237   9.210
70941SOL     OW14654   4.321   8.592   3.238
70941SOL    HW114655   4.367   8.672   3.261
70941SOL    HW214656   4.272   8.568   3.317
70942SOL     OW14657   6.583  10.662  11.471
70942SOL    HW114658   6.638  10.660  11.549
70942SOL    HW214659   6.561  10.570  11.455
70943SOL     OW14660  14.729   9.130   9.650
70943SOL    HW114661  14.807   9.122   9.705
70943SOL    HW214662  14.755   9.189   9.580
70944SOL     OW14663   2.393  10.414   9.775
70944SOL    HW114664   2.372  10.452   9.689
70944SOL    HW214665   2.391  10.320   9.761
70945SOL     OW14666   0.248   5.695   8.054
70945SOL    HW114667   0.187   5.627   8.026
70945SOL    HW214668   0.309   5.705   7.981
70946SOL     OW14669  11.938   5.078   9.885
70946SOL    HW114670  11.936   5.027   9.966
70946SOL    HW214671  12.030   5.080   9.860
70947SOL     OW14672   4.151  13.802   3.282
70947SOL    HW114673   4.146  13.765   3.194
70947SOL    HW214674   4.120  13.892   3.272
70948SOL     OW14675   1.981   2.240   7.975
70948SOL    HW114676   1.954   2.196   7.894
70948SOL    HW214677   1.971   2.333   7.955
70949SOL     OW14678   1.038   5.032   9.214
70949SOL    HW114679   1.010   5.069   9.298
70949SOL    HW214680   1.133   5.036   9.217
70950SOL     OW14681   1.522  10.364  14.453
70950SOL    HW114682   1.465  10.436  14.480
70950SOL    HW214683   1.517  10.302  14.525
70951SOL     OW14684  10.102   5.548   8.448
70951SOL    HW114685  10.151   5.618   8.404
70951SOL    HW214686  10.153   5.528   8.526
70952SOL     OW14687  13.280   1.434  12.212
70952SOL    HW114688  13.263   1.528  12.202
70952SOL    HW214689  13.316   1.426  12.300
70953SOL     OW14690  10.675   6.598   8.574
70953SOL    HW114691  10.634   6.627   8.656
70953SOL    HW214692  10.660   6.504   8.573
70954SOL     OW14693  14.798   0.796  13.531
70954SOL    HW114694  14.724   0.772  13.476
70954SOL    HW214695  14.770   0.777  13.620
70955SOL     OW14696   4.972   7.852  13.528
70955SOL    HW114697   4.919   7.868  13.450
70955SOL    HW214698   4.975   7.757  13.536
70956SOL     OW14699   3.056  12.994  12.682
70956SOL    HW114700   3.000  12.968  12.609
70956SOL    HW214701   3.008  12.966  12.760
70957SOL     OW14702  13.111   6.953   7.598
70957SOL    HW114703  13.081   6.966   7.688
70957SOL    HW214704  13.074   6.868   7.573
70958SOL     OW14705  14.777   5.859   6.686
70958SOL    HW114706  14.870   5.864   6.662
70958SOL    HW214707  14.733   5.835   6.604
70959SOL     OW14708   1.555  11.333  14.571
70959SOL    HW114709   1.610  11.345  14.494
70959SOL    HW214710   1.612  11.288  14.634
70960SOL     OW14711  13.536   9.851   9.630
70960SOL    HW114712  13.616   9.863   9.681
70960SOL    HW214713  13.546   9.909   9.555
70961SOL     OW14714   0.835   5.191   8.731
70961SOL    HW114715   0.862   5.167   8.819
70961SOL    HW214716   0.814   5.284   8.737
70962SOL     OW14717   6.117   1.671   2.448
70962SOL    HW114718   6.099   1.679   2.354
70962SOL    HW214719   6.185   1.603   2.453
70963SOL     OW14720   6.259   4.844   8.662
70963SOL    HW114721   6.318   4.897   8.608
70963SOL    HW214722   6.205   4.797   8.598
70964SOL     OW14723  14.575   2.819   9.394
70964SOL    HW114724  14.667   2.795   9.377
70964SOL    HW214725  14.540   2.840   9.307
70965SOL     OW14726   5.319  14.394  13.789
70965SOL    HW114727   5.263  14.471  13.798
70965SOL    HW214728   5.266  14.322  13.824
70966SOL     OW14729   4.432   3.775  10.070
70966SOL    HW114730   4.455   3.781   9.977
70966SOL    HW214731   4.464   3.690  10.097
70967SOL     OW14732   2.143   9.456   6.446
70967SOL    HW114733   2.129   9.547   6.420
70967SOL    HW214734   2.072   9.437   6.507
70968SOL     OW14735   9.552   0.357   3.891
70968SOL    HW114736   9.528   0.319   3.807
70968SOL    HW214737   9.584   0.283   3.942
70969SOL     OW14738   0.892  10.070   6.046
70969SOL    HW114739   0.807  10.028   6.034
70969SOL    HW214740   0.922  10.089   5.957
70970SOL     OW14741   9.029   1.366   6.481
70970SOL    HW114742   9.087   1.293   6.503
70970SOL    HW214743   9.072   1.411   6.409
70971SOL     OW14744   7.852   9.092  13.845
70971SOL    HW114745   7.782   9.031  13.869
70971SOL    HW214746   7.900   9.048  13.776
70972SOL     OW14747  14.744  11.449   0.678
70972SOL    HW114748  14.764  11.531   0.725
70972SOL    HW214749  14.821  11.435   0.622
70973SOL     OW14750   8.562  12.523   6.394
70973SOL    HW114751   8.598  12.585   6.330
70973SOL    HW214752   8.638  12.496   6.446
70974SOL     OW14753   6.786   5.653   3.964
70974SOL    HW114754   6.745   5.670   3.879
70974SOL    HW214755   6.715   5.619   4.018
70975SOL     OW14756   3.232   5.083   9.199
70975SOL    HW114757   3.219   5.031   9.120
70975SOL    HW214758   3.172   5.043   9.263
70976SOL     OW14759   8.964   2.804   8.591
70976SOL    HW114760   9.023   2.775   8.660
70976SOL    HW214761   8.938   2.723   8.546
70977SOL     OW14762   8.831   0.919  12.567
70977SOL    HW114763   8.857   0.987  12.629
70977SOL    HW214764   8.772   0.862  12.616
70978SOL     OW14765   0.862   2.928   0.433
70978SOL    HW114766   0.854   3.012   0.390
70978SOL    HW214767   0.948   2.931   0.476
70979SOL     OW14768  14.776   0.059  13.086
70979SOL    HW114769  14.853   0.074  13.032
70979SOL    HW214770  14.810   0.056  13.176
70980SOL     OW14771   9.386  11.552  12.064
70980SOL    HW114772   9.478  11.529  12.069
70980SOL    HW214773   9.385  11.647  12.061
70981SOL     OW14774   8.562   6.199   0.899
70981SOL    HW114775   8.631   6.167   0.841
70981SOL    HW214776   8.514   6.121   0.926
70982SOL     OW14777   9.831  12.911   8.796
70982SOL    HW114778   9.767  12.848   8.764
70982SOL    HW214779   9.894  12.859   8.845
70983SOL     OW14780   8.759  12.793   3.569
70983SOL    HW114781   8.828  12.791   3.503
70983SOL    HW214782   8.805  12.784   3.652
70984SOL     OW14783  14.126   0.744  10.670
70984SOL    HW114784  14.137   0.794  10.750
70984SOL    HW214785  14.186   0.785  10.607
70985SOL     OW14786  10.246   6.998   1.503
70985SOL    HW114787  10.271   7.082   1.464
70985SOL    HW214788  10.313   6.936   1.473
70986SOL     OW14789   2.270   9.387   9.379
70986SOL    HW114790   2.312   9.314   9.425
70986SOL    HW214791   2.287   9.463   9.433
70987SOL     OW14792   6.917   9.344   3.779
70987SOL    HW114793   6.864   9.394   3.842
70987SOL    HW214794   6.855   9.313   3.714
70988SOL     OW14795  12.815   4.786  10.236
70988SOL    HW114796  12.844   4.835  10.312
70988SOL    HW214797  12.766   4.712  10.273
70989SOL     OW14798  10.108  12.656   9.414
70989SOL    HW114799  10.067  12.626   9.333
70989SOL    HW214800  10.148  12.578   9.451
70990SOL     OW14801  10.734   1.026   8.983
70990SOL    HW114802  10.712   1.115   9.008
70990SOL    HW214803  10.678   0.971   9.038
70991SOL     OW14804   5.809   3.721  10.961
70991SOL    HW114805   5.863   3.652  11.001
70991SOL    HW214806   5.846   3.802  10.995
70992SOL     OW14807   9.142  14.472  13.675
70992SOL    HW114808   9.199  14.548  13.691
70992SOL    HW214809   9.189  14.421  13.608
70993SOL     OW14810  12.781  11.929   3.806
70993SOL    HW114811  12.854  11.867   3.800
70993SOL    HW214812  12.809  11.992   3.873
70994SOL     OW14813   6.601   2.189  14.010
70994SOL    HW114814   6.687   2.160  13.981
70994SOL    HW214815   6.608   2.284  14.016
70995SOL     OW14816   0.226   1.079  13.805
70995SOL    HW114817   0.313   1.038  13.800
70995SOL    HW214818   0.182   1.032  13.876
70996SOL     OW14819  13.185   2.567  10.873
70996SOL    HW114820  13.138   2.539  10.794
70996SOL    HW214821  13.242   2.638  10.842
70997SOL     OW14822   2.730  13.447   0.223
70997SOL    HW114823   2.819  13.450   0.188
70997SOL    HW214824   2.682  13.390   0.162
70998SOL     OW14825  13.426   6.175   6.159
70998SOL    HW114826  13.390   6.245   6.104
70998SOL    HW214827  13.405   6.202   6.249
70999SOL     OW14828   3.902   8.834  12.019
70999SOL    HW114829   3.865   8.870  12.100
70999SOL    HW214830   3.911   8.909  11.961
71000SOL     OW14831  11.591   5.260   1.992
71000SOL    HW114832  11.605   5.179   2.040
71000SOL    HW214833  11.673   5.308   2.001
71001SOL     OW14834   1.243  14.141  11.780
71001SOL    HW114835   1.223  14.049  11.764
71001SOL    HW214836   1.181  14.188  11.723
71002SOL     OW14837   3.820   4.851   2.831
71002SOL    HW114838   3.829   4.946   2.842
71002SOL    HW214839   3.909   4.818   2.833
71003SOL     OW14840   9.335   5.259  12.078
71003SOL    HW114841   9.324   5.187  12.141
71003SOL    HW214842   9.271   5.324  12.106
71004SOL     OW14843  13.177  11.066   0.790
71004SOL    HW114844  13.132  11.148   0.811
71004SOL    HW214845  13.265  11.078   0.827
71005SOL     OW14846   5.648   2.731   1.062
71005SOL    HW114847   5.596   2.806   1.093
71005SOL    HW214848   5.584   2.670   1.026
71006SOL     OW14849   7.966   0.519   5.107
71006SOL    HW114850   7.953   0.560   5.192
71006SOL    HW214851   8.046   0.467   5.117
71007SOL     OW14852   0.147  11.311  14.812
71007SOL    HW114853   0.119  11.378  14.750
71007SOL    HW214854   0.217  11.353  14.862
71008SOL     OW14855   6.777   4.695   7.830
71008SOL    HW114856   6.821   4.764   7.780
71008SOL    HW214857   6.714   4.657   7.769
71009SOL     OW14858   3.774   2.656   5.155
71009SOL    HW114859   3.869   2.661   5.161
71009SOL    HW214860   3.757   2.628   5.065
71010SOL     OW14861  13.834   2.555  10.043
71010SOL    HW114862  13.836   2.459  10.037
71010SOL    HW214863  13.919   2.579  10.078
71011SOL     OW14864  11.755   7.626  12.227
71011SOL    HW114865  11.784   7.550  12.278
71011SOL    HW214866  11.659   7.626  12.237
71012SOL     OW14867   7.854  13.037   3.889
71012SOL    HW114868   7.906  13.100   3.938
71012SOL    HW214869   7.771  13.032   3.936
71013SOL     OW14870   3.821  14.630  11.424
71013SOL    HW114871   3.729  14.656  11.427
71013SOL    HW214872   3.820  14.535  11.438
71014SOL     OW14873  12.399  10.279   5.124
71014SOL    HW114874  12.424  10.346   5.187
71014SOL    HW214875  12.331  10.319   5.071
71015SOL     OW14876   4.034   2.901   5.753
71015SOL    HW114877   4.041   2.839   5.825
71015SOL    HW214878   4.113   2.886   5.701
71016SOL     OW14879   6.999   0.757   1.462
71016SOL    HW114880   7.043   0.840   1.444
71016SOL    HW214881   6.915   0.783   1.500
71017SOL     OW14882   3.252   6.062   9.780
71017SOL    HW114883   3.182   6.015   9.826
71017SOL    HW214884   3.262   6.014   9.698
71018SOL     OW14885  14.645   1.298  10.024
71018SOL    HW114886  14.704   1.351  10.078
71018SOL    HW214887  14.626   1.353   9.949
71019SOL     OW14888   3.086  11.576  13.596
71019SOL    HW114889   3.153  11.625  13.645
71019SOL    HW214890   3.122  11.570  13.508
71020SOL     OW14891  10.605  10.812   2.260
71020SOL    HW114892  10.653  10.824   2.178
71020SOL    HW214893  10.614  10.718   2.280
71021SOL     OW14894   3.224  11.075  10.412
71021SOL    HW114895   3.225  11.168  10.389
71021SOL    HW214896   3.218  11.075  10.508
71022SOL     OW14897   2.535  13.171   4.867
71022SOL    HW114898   2.482  13.248   4.889
71022SOL    HW214899   2.475  13.097   4.877
71023SOL     OW14900  11.688   2.587   5.743
71023SOL    HW114901  11.694   2.616   5.652
71023SOL    HW214902  11.631   2.651   5.786
71024SOL     OW14903   5.735  12.755  12.892
71024SOL    HW114904   5.754  12.830  12.835
71024SOL    HW214905   5.813  12.700  12.886
71025SOL     OW14906   9.695   0.476  10.456
71025SOL    HW114907   9.781   0.498  10.420
71025SOL    HW214908   9.713   0.435  10.541
71026SOL     OW14909   5.001   3.610   5.389
71026SOL    HW114910   5.050   3.611   5.471
71026SOL    HW214911   4.909   3.604   5.416
71027SOL     OW14912   1.407  11.191   8.566
71027SOL    HW114913   1.467  11.254   8.606
71027SOL    HW214914   1.403  11.216   8.474
71028SOL     OW14915   5.874   5.968   7.713
71028SOL    HW114916   5.794   5.931   7.674
71028SOL    HW214917   5.842   6.032   7.776
71029SOL     OW14918   0.121  11.500   1.586
71029SOL    HW114919   0.143  11.551   1.508
71029SOL    HW214920   0.190  11.435   1.592
71030SOL     OW14921  13.345  12.248   4.627
71030SOL    HW114922  13.290  12.201   4.564
71030SOL    HW214923  13.306  12.229   4.712
71031SOL     OW14924  12.951  13.340   2.562
71031SOL    HW114925  12.911  13.261   2.599
71031SOL    HW214926  13.045  13.326   2.575
71032SOL     OW14927   5.027  13.189   4.046
71032SOL    HW114928   5.069  13.273   4.031
71032SOL    HW214929   4.967  13.179   3.972
71033SOL     OW14930   1.229   6.896   0.550
71033SOL    HW114931   1.274   6.973   0.514
71033SOL    HW214932   1.281   6.872   0.627
71034SOL     OW14933  12.789   0.180  11.855
71034SOL    HW114934  12.873   0.175  11.809
71034SOL    HW214935  12.731   0.226  11.794
71035SOL     OW14936   8.605   1.964   6.303
71035SOL    HW114937   8.595   1.896   6.237
71035SOL    HW214938   8.571   2.043   6.260
71036SOL     OW14939  11.732   2.050   2.131
71036SOL    HW114940  11.814   2.099   2.123
71036SOL    HW214941  11.740   1.980   2.067
71037SOL     OW14942   2.412   3.610   1.943
71037SOL    HW114943   2.469   3.582   2.015
71037SOL    HW214944   2.344   3.542   1.939
71038SOL     OW14945   7.228   4.200   1.607
71038SOL    HW114946   7.240   4.268   1.672
71038SOL    HW214947   7.145   4.158   1.630
71039SOL     OW14948   8.588  13.166   2.807
71039SOL    HW114949   8.534  13.234   2.767
71039SOL    HW214950   8.674  13.207   2.818
71040SOL     OW14951   3.720  11.567  11.335
71040SOL    HW114952   3.701  11.641  11.393
71040SOL    HW214953   3.726  11.607  11.248
71041SOL     OW14954  14.389  13.372   9.785
71041SOL    HW114955  14.454  13.431   9.747
71041SOL    HW214956  14.430  13.286   9.784
71042SOL     OW14957  13.987   9.243   2.402
71042SOL    HW114958  14.005   9.229   2.495
71042SOL    HW214959  14.031   9.171   2.357
71043SOL     OW14960  12.931   6.337   8.166
71043SOL    HW114961  12.867   6.378   8.224
71043SOL    HW214962  12.885   6.262   8.129
71044SOL     OW14963   5.233   7.202  10.026
71044SOL    HW114964   5.219   7.272  10.090
71044SOL    HW214965   5.231   7.247   9.941
71045SOL     OW14966   5.120   8.489  13.317
71045SOL    HW114967   5.166   8.542  13.252
71045SOL    HW214968   5.076   8.421  13.266
71046SOL     OW14969   5.853  14.745   8.206
71046SOL    HW114970   5.825  14.676   8.265
71046SOL    HW214971   5.939  14.771   8.239
71047SOL     OW14972   3.083   4.565   9.790
71047SOL    HW114973   3.099   4.616   9.711
71047SOL    HW214974   3.018   4.499   9.765
71048SOL     OW14975  10.747   7.939   2.166
71048SOL    HW114976  10.839   7.913   2.168
71048SOL    HW214977  10.705   7.882   2.231
71049SOL     OW14978   7.445  13.321  12.084
71049SOL    HW114979   7.384  13.304  12.012
71049SOL    HW214980   7.508  13.249  12.079
71050SOL     OW14981   5.801  11.256   5.532
71050SOL    HW114982   5.891  11.284   5.516
71050SOL    HW214983   5.759  11.333   5.571
71051SOL     OW14984   5.147  12.812   4.152
71051SOL    HW114985   5.153  12.850   4.065
71051SOL    HW214986   5.080  12.743   4.144
71052SOL     OW14987   1.700   3.108   6.100
71052SOL    HW114988   1.749   3.181   6.137
71052SOL    HW214989   1.623   3.100   6.156
71053SOL     OW14990   7.687  13.994   1.102
71053SOL    HW114991   7.659  13.905   1.122
71053SOL    HW214992   7.657  14.009   1.013
71054SOL     OW14993  11.331  11.212   2.956
71054SOL    HW114994  11.271  11.277   2.919
71054SOL    HW214995  11.403  11.208   2.894
71055SOL     OW14996   1.462  14.112   0.412
71055SOL    HW114997   1.383  14.072   0.376
71055SOL    HW214998   1.532  14.085   0.352
71056SOL     OW14999   7.106  13.615  11.121
71056SOL    HW115000   7.183  13.671  11.136
71056SOL    HW215001   7.032  13.676  11.124
71057SOL     OW15002  10.814  10.341  12.489
71057SOL    HW115003  10.784  10.430  12.504
71057SOL    HW215004  10.734  10.293  12.466
71058SOL     OW15005   4.349  13.267  13.753
71058SOL    HW115006   4.424  13.250  13.810
71058SOL    HW215007   4.376  13.340  13.698
71059SOL     OW15008   9.157  13.434   9.231
71059SOL    HW115009   9.086  13.474   9.181
71059SOL    HW215010   9.113  13.382   9.298
71060SOL     OW15011   8.442   3.256   9.664
71060SOL    HW115012   8.398   3.324   9.613
71060SOL    HW215013   8.401   3.261   9.750
71061SOL     OW15014   9.420  13.056  10.725
71061SOL    HW115015   9.376  13.115  10.786
71061SOL    HW215016   9.481  13.006  10.780
71062SOL     OW15017   4.614   1.364  11.478
71062SOL    HW115018   4.682   1.410  11.428
71062SOL    HW215019   4.578   1.431  11.536
71063SOL     OW15020  11.887   6.253   8.181
71063SOL    HW115021  11.894   6.320   8.249
71063SOL    HW215022  11.865   6.301   8.102
71064SOL     OW15023  14.365   9.034  12.938
71064SOL    HW115024  14.418   9.083  13.001
71064SOL    HW215025  14.276   9.039  12.971
71065SOL     OW15026   7.102   2.142  13.251
71065SOL    HW115027   7.076   2.188  13.171
71065SOL    HW215028   7.029   2.155  13.311
71066SOL     OW15029   0.278   8.264  11.759
71066SOL    HW115030   0.259   8.193  11.820
71066SOL    HW215031   0.257   8.228  11.672
71067SOL     OW15032  10.739   2.162  14.019
71067SOL    HW115033  10.760   2.255  14.007
71067SOL    HW215034  10.703   2.157  14.107
71068SOL     OW15035   6.709  10.394  12.833
71068SOL    HW115036   6.748  10.330  12.892
71068SOL    HW215037   6.768  10.397  12.758
71069SOL     OW15038   1.011  12.123   7.065
71069SOL    HW115039   0.946  12.058   7.093
71069SOL    HW215040   1.036  12.168   7.146
71070SOL     OW15041  13.643   0.705   1.778
71070SOL    HW115042  13.673   0.763   1.848
71070SOL    HW215043  13.602   0.763   1.715
71071SOL     OW15044   1.094  13.499   3.661
71071SOL    HW115045   1.183  13.461   3.662
71071SOL    HW215046   1.093  13.561   3.733
71072SOL     OW15047  10.482  10.874   4.717
71072SOL    HW115048  10.478  10.779   4.721
71072SOL    HW215049  10.512  10.901   4.803
71073SOL     OW15050   3.623  13.384  10.746
71073SOL    HW115051   3.700  13.408  10.695
71073SOL    HW215052   3.644  13.298  10.782
71074SOL     OW15053  11.241  13.730  11.164
71074SOL    HW115054  11.337  13.723  11.165
71074SOL    HW215055  11.222  13.800  11.226
71075SOL     OW15056  12.005  12.572   1.920
71075SOL    HW115057  11.930  12.521   1.952
71075SOL    HW215058  12.036  12.523   1.844
71076SOL     OW15059  11.011  13.037  10.601
71076SOL    HW115060  10.961  12.973  10.551
71076SOL    HW215061  10.952  13.065  10.671
71077SOL     OW15062   4.042  12.127  13.133
71077SOL    HW115063   4.100  12.075  13.188
71077SOL    HW215064   3.979  12.166  13.193
71078SOL     OW15065   3.420   7.327   8.726
71078SOL    HW115066   3.449   7.388   8.794
71078SOL    HW215067   3.326   7.341   8.720
71079SOL     OW15068  10.215   9.327   9.728
71079SOL    HW115069  10.225   9.344   9.635
71079SOL    HW215070  10.125   9.355   9.748
71080SOL     OW15071  11.646   7.336   1.644
71080SOL    HW115072  11.553   7.317   1.651
71080SOL    HW215073  11.683   7.310   1.729
71081SOL     OW15074   4.158   3.600   4.887
71081SOL    HW115075   4.147   3.632   4.976
71081SOL    HW215076   4.148   3.505   4.893
71082SOL     OW15077   8.351   6.673   1.811
71082SOL    HW115078   8.272   6.618   1.814
71082SOL    HW215079   8.424   6.611   1.815
71083SOL     OW15080  14.352   6.370   9.740
71083SOL    HW115081  14.317   6.334   9.821
71083SOL    HW215082  14.396   6.296   9.698
71084SOL     OW15083   4.165   1.317   3.656
71084SOL    HW115084   4.192   1.327   3.748
71084SOL    HW215085   4.158   1.222   3.644
71085SOL     OW15086   8.293   2.489   5.979
71085SOL    HW115087   8.237   2.555   5.938
71085SOL    HW215088   8.300   2.419   5.915
71086SOL     OW15089   3.708   5.194  10.985
71086SOL    HW115090   3.696   5.146  10.903
71086SOL    HW215091   3.803   5.203  10.994
71087SOL     OW15092   6.634   6.799  14.169
71087SOL    HW115093   6.605   6.854  14.096
71087SOL    HW215094   6.605   6.846  14.247
71088SOL     OW15095   9.212  10.214   0.111
71088SOL    HW115096   9.126  10.250   0.133
71088SOL    HW215097   9.203  10.120   0.124
71089SOL     OW15098   9.630   0.337   3.623
71089SOL    HW115099   9.668   0.409   3.673
71089SOL    HW215100   9.604   0.377   3.540
71090SOL     OW15101   5.872   9.418  11.125
71090SOL    HW115102   5.873   9.356  11.052
71090SOL    HW215103   5.845   9.366  11.200
71091SOL     OW15104   6.824  10.308  10.906
71091SOL    HW115105   6.774  10.263  10.838
71091SOL    HW215106   6.761  10.367  10.947
71092SOL     OW15107  10.786   1.432   3.937
71092SOL    HW115108  10.816   1.498   3.875
71092SOL    HW215109  10.700   1.405   3.904
71093SOL     OW15110   3.436   0.176   1.212
71093SOL    HW115111   3.448   0.108   1.146
71093SOL    HW215112   3.341   0.184   1.221
71094SOL     OW15113  12.823   0.079   7.857
71094SOL    HW115114  12.886   0.150   7.846
71094SOL    HW215115  12.813   0.042   7.769
71095SOL     OW15116  11.024   3.615   2.044
71095SOL    HW115117  11.029   3.689   1.983
71095SOL    HW215118  11.017   3.538   1.989
71096SOL     OW15119  13.342   8.389   6.902
71096SOL    HW115120  13.320   8.482   6.910
71096SOL    HW215121  13.257   8.344   6.903
71097SOL     OW15122   0.381   8.944   8.965
71097SOL    HW115123   0.313   8.926   9.030
71097SOL    HW215124   0.348   8.907   8.883
71098SOL     OW15125  11.282   7.615   5.997
71098SOL    HW115126  11.273   7.535   6.048
71098SOL    HW215127  11.354   7.663   6.040
71099SOL     OW15128  11.190  12.591   3.892
71099SOL    HW115129  11.251  12.616   3.961
71099SOL    HW215130  11.110  12.565   3.938
71100SOL     OW15131   6.990  14.857  11.410
71100SOL    HW115132   7.020  14.794  11.345
71100SOL    HW215133   6.978   0.066  11.360
71101SOL     OW15134   2.177  12.365  11.230
71101SOL    HW115135   2.161  12.280  11.190
71101SOL    HW215136   2.128  12.363  11.312
71102SOL     OW15137   7.144   6.086   2.338
71102SOL    HW115138   7.138   6.131   2.254
71102SOL    HW215139   7.153   5.993   2.314
71103SOL     OW15140   1.536   5.800   7.117
71103SOL    HW115141   1.554   5.894   7.108
71103SOL    HW215142   1.530   5.768   7.028
71104SOL     OW15143   1.304  14.551   8.772
71104SOL    HW115144   1.258  14.589   8.697
71104SOL    HW215145   1.347  14.473   8.736
71105SOL     OW15146  13.741  14.433   7.374
71105SOL    HW115147  13.727  14.352   7.423
71105SOL    HW215148  13.778  14.494   7.438
71106SOL     OW15149   5.419   5.454   4.682
71106SOL    HW115150   5.494   5.477   4.627
71106SOL    HW215151   5.390   5.538   4.718
71107SOL     OW15152  10.564   4.078   5.014
71107SOL    HW115153  10.589   4.010   5.077
71107SOL    HW215154  10.472   4.095   5.031
71108SOL     OW15155  12.003   7.861  11.022
71108SOL    HW115156  12.059   7.922  10.973
71108SOL    HW215157  11.963   7.806  10.954
71109SOL     OW15158   6.360   7.820   1.394
71109SOL    HW115159   6.329   7.729   1.385
71109SOL    HW215160   6.400   7.840   1.310
71110SOL     OW15161   2.918   4.555  12.473
71110SOL    HW115162   2.961   4.478  12.435
71110SOL    HW215163   2.870   4.521  12.548
71111SOL     OW15164   0.926   7.950   3.138
71111SOL    HW115165   0.898   8.040   3.122
71111SOL    HW215166   1.019   7.958   3.158
71112SOL     OW15167   2.821  12.693   8.012
71112SOL    HW115168   2.915  12.675   8.011
71112SOL    HW215169   2.780  12.607   8.012
71113SOL     OW15170   0.475  13.962   8.696
71113SOL    HW115171   0.518  13.877   8.690
71113SOL    HW215172   0.390  13.948   8.655
71114SOL     OW15173  11.489   7.029   8.281
71114SOL    HW115174  11.579   7.006   8.258
71114SOL    HW215175  11.477   7.117   8.246
71115SOL     OW15176   7.483   6.298   0.962
71115SOL    HW115177   7.456   6.384   0.928
71115SOL    HW215178   7.469   6.304   1.056
71116SOL     OW15179  12.120  14.714   7.820
71116SOL    HW115180  12.097  14.629   7.783
71116SOL    HW215181  12.061  14.724   7.896
71117SOL     OW15182  12.958  13.566   6.768
71117SOL    HW115183  13.045  13.606   6.774
71117SOL    HW215184  12.918  13.607   6.691
71118SOL     OW15185  10.605   3.387   8.618
71118SOL    HW115186  10.535   3.446   8.591
71118SOL    HW215187  10.650   3.433   8.689
71119SOL     OW15188   0.198   9.790   8.793
71119SOL    HW115189   0.159   9.863   8.744
71119SOL    HW215190   0.201   9.822   8.884
71120SOL     OW15191   2.345   1.437   7.085
71120SOL    HW115192   2.382   1.484   7.159
71120SOL    HW215193   2.409   1.450   7.014
71121SOL     OW15194   4.005   1.284  11.693
71121SOL    HW115195   4.017   1.214  11.756
71121SOL    HW215196   3.914   1.277  11.665
71122SOL     OW15197   9.356   7.358   9.095
71122SOL    HW115198   9.355   7.335   9.188
71122SOL    HW215199   9.326   7.280   9.050
71123SOL     OW15200   3.652   8.831   7.287
71123SOL    HW115201   3.657   8.816   7.382
71123SOL    HW215202   3.622   8.747   7.252
71124SOL     OW15203   2.596   1.644   0.833
71124SOL    HW115204   2.656   1.643   0.908
71124SOL    HW215205   2.630   1.577   0.774
71125SOL     OW15206  11.228   1.740  12.224
71125SOL    HW115207  11.141   1.769  12.197
71125SOL    HW215208  11.212   1.669  12.285
71126SOL     OW15209   2.133   8.449   2.356
71126SOL    HW115210   2.168   8.536   2.375
71126SOL    HW215211   2.200   8.408   2.301
71127SOL     OW15212   4.595   4.869   6.200
71127SOL    HW115213   4.604   4.774   6.197
71127SOL    HW215214   4.506   4.883   6.234
71128SOL     OW15215   3.558  12.841   6.115
71128SOL    HW115216   3.555  12.754   6.156
71128SOL    HW215217   3.573  12.824   6.022
71129SOL     OW15218   8.990  10.485   5.943
71129SOL    HW115219   8.954  10.509   5.858
71129SOL    HW215220   9.082  10.513   5.939
71130SOL     OW15221  12.969   0.907   6.066
71130SOL    HW115222  13.027   0.852   6.119
71130SOL    HW215223  13.014   0.991   6.060
71131SOL     OW15224   7.026   6.897  14.695
71131SOL    HW115225   7.023   6.802  14.700
71131SOL    HW215226   7.013   6.927  14.785
71132SOL     OW15227   3.381  13.552   3.582
71132SOL    HW115228   3.349  13.620   3.523
71132SOL    HW215229   3.475  13.549   3.565
71133SOL     OW15230   9.383   8.547   1.281
71133SOL    HW115231   9.326   8.527   1.207
71133SOL    HW215232   9.444   8.612   1.246
71134SOL     OW15233  10.474   2.770   4.962
71134SOL    HW115234  10.555   2.747   5.006
71134SOL    HW215235  10.431   2.687   4.943
71135SOL     OW15236   2.986   0.475   0.378
71135SOL    HW115237   2.959   0.540   0.313
71135SOL    HW215238   2.978   0.520   0.462
71136SOL     OW15239  13.270  10.730  13.835
71136SOL    HW115240  13.278  10.760  13.925
71136SOL    HW215241  13.261  10.635  13.843
71137SOL     OW15242   0.908  13.061  13.040
71137SOL    HW115243   0.946  12.975  13.020
71137SOL    HW215244   0.909  13.066  13.135
71138SOL     OW15245   6.066   6.750   5.618
71138SOL    HW115246   6.040   6.722   5.530
71138SOL    HW215247   6.143   6.805   5.603
71139SOL     OW15248   2.916   4.817  12.434
71139SOL    HW115249   2.929   4.722  12.438
71139SOL    HW215250   3.004   4.854  12.444
71140SOL     OW15251   2.076   8.302  12.594
71140SOL    HW115252   2.127   8.382  12.589
71140SOL    HW215253   2.140   8.232  12.594
71141SOL     OW15254   0.078  12.047   5.410
71141SOL    HW115255   0.075  12.097   5.492
71141SOL    HW215256   0.127  12.103   5.350
71142SOL     OW15257   0.222   9.101   8.435
71142SOL    HW115258   0.279   9.165   8.477
71142SOL    HW215259   0.169   9.066   8.507
71143SOL     OW15260   3.372   8.855  12.817
71143SOL    HW115261   3.447   8.819  12.771
71143SOL    HW215262   3.341   8.926  12.760
71144SOL     OW15263   5.958   2.866   4.894
71144SOL    HW115264   5.917   2.789   4.855
71144SOL    HW215265   5.886   2.916   4.932
71145SOL     OW15266   4.532   0.478   6.682
71145SOL    HW115267   4.556   0.525   6.762
71145SOL    HW215268   4.480   0.540   6.632
71146SOL     OW15269   9.805   2.434   7.851
71146SOL    HW115270   9.836   2.434   7.761
71146SOL    HW215271   9.792   2.527   7.871
71147SOL     OW15272  10.831   6.273   1.981
71147SOL    HW115273  10.792   6.190   1.953
71147SOL    HW215274  10.837   6.266   2.076
71148SOL     OW15275  12.217   8.022   5.699
71148SOL    HW115276  12.277   8.095   5.683
71148SOL    HW215277  12.138   8.063   5.734
71149SOL     OW15278   5.882   0.264   8.368
71149SOL    HW115279   5.874   0.203   8.441
71149SOL    HW215280   5.793   0.271   8.333
71150SOL     OW15281   1.894   5.432   8.380
71150SOL    HW115282   1.895   5.359   8.318
71150SOL    HW215283   1.840   5.499   8.338
71151SOL     OW15284   7.064   7.204  14.385
71151SOL    HW115285   6.974   7.237  14.388
71151SOL    HW215286   7.063   7.138  14.316
71152SOL     OW15287   5.697   1.346   0.346
71152SOL    HW115288   5.710   1.368   0.438
71152SOL    HW215289   5.781   1.362   0.304
71153SOL     OW15290  11.714  11.477  12.414
71153SOL    HW115291  11.715  11.401  12.471
71153SOL    HW215292  11.677  11.445  12.331
71154SOL     OW15293  13.724  14.773   6.573
71154SOL    HW115294  13.818  14.753   6.582
71154SOL    HW215295  13.685  14.741   6.655
71155SOL     OW15296   7.583   5.916   5.147
71155SOL    HW115297   7.541   5.978   5.207
71155SOL    HW215298   7.511   5.875   5.100
71156SOL     OW15299  13.852  11.264   8.824
71156SOL    HW115300  13.881  11.262   8.733
71156SOL    HW215301  13.921  11.218   8.873
71157SOL     OW15302  13.246   6.023   6.816
71157SOL    HW115303  13.295   6.093   6.859
71157SOL    HW215304  13.267   6.033   6.723
71158SOL     OW15305  12.095   3.210   7.672
71158SOL    HW115306  12.148   3.131   7.664
71158SOL    HW215307  12.008   3.184   7.642
71159SOL     OW15308  14.534   8.346  12.117
71159SOL    HW115309  14.596   8.408  12.157
71159SOL    HW215310  14.579   8.262  12.121
71160SOL     OW15311   3.207  10.566   4.317
71160SOL    HW115312   3.119  10.567   4.354
71160SOL    HW215313   3.264  10.586   4.390
71161SOL     OW15314   6.171   6.563   4.251
71161SOL    HW115315   6.239   6.616   4.292
71161SOL    HW215316   6.090   6.593   4.293
71162SOL     OW15317   8.237  13.501   8.960
71162SOL    HW115318   8.253  13.517   9.053
71162SOL    HW215319   8.315  13.456   8.929
71163SOL     OW15320  10.407   6.032   9.925
71163SOL    HW115321  10.473   5.971   9.893
71163SOL    HW215322  10.400   6.098   9.855
71164SOL     OW15323  11.645   2.314   9.865
71164SOL    HW115324  11.700   2.254   9.814
71164SOL    HW215325  11.556   2.281   9.852
71165SOL     OW15326   8.130   1.737  12.432
71165SOL    HW115327   8.214   1.720  12.389
71165SOL    HW215328   8.103   1.823  12.399
71166SOL     OW15329   5.758   9.934   8.178
71166SOL    HW115330   5.693   9.887   8.127
71166SOL    HW215331   5.829   9.870   8.192
71167SOL     OW15332  14.454   5.614   5.741
71167SOL    HW115333  14.508   5.538   5.762
71167SOL    HW215334  14.463   5.671   5.817
71168SOL     OW15335  13.542  11.578  11.079
71168SOL    HW115336  13.498  11.506  11.033
71168SOL    HW215337  13.505  11.576  11.167
71169SOL     OW15338   9.937   3.998  12.018
71169SOL    HW115339   9.969   4.064  11.957
71169SOL    HW215340   9.905   4.048  12.093
71170SOL     OW15341   4.404  13.000   2.302
71170SOL    HW115342   4.496  13.025   2.297
71170SOL    HW215343   4.401  12.930   2.367
71171SOL     OW15344   9.500   1.623   8.133
71171SOL    HW115345   9.563   1.552   8.146
71171SOL    HW215346   9.540   1.679   8.066
71172SOL     OW15347  14.279   5.752  11.877
71172SOL    HW115348  14.237   5.672  11.910
71172SOL    HW215349  14.213   5.792  11.821
71173SOL     OW15350   8.628   6.921   5.502
71173SOL    HW115351   8.720   6.917   5.527
71173SOL    HW215352   8.611   6.837   5.459
71174SOL     OW15353  11.261   2.096   2.007
71174SOL    HW115354  11.176   2.057   1.987
71174SOL    HW215355  11.313   2.023   2.042
71175SOL     OW15356  10.265   7.940  14.822
71175SOL    HW115357  10.248   7.934   0.044
71175SOL    HW215358  10.210   7.872  14.783
71176SOL     OW15359  11.655   7.116   9.151
71176SOL    HW115360  11.720   7.127   9.081
71176SOL    HW215361  11.644   7.021   9.159
71177SOL     OW15362   9.505  11.900  14.782
71177SOL    HW115363   9.531  11.851  14.859
71177SOL    HW215364   9.440  11.963  14.814
71178SOL     OW15365   3.054   1.169   5.454
71178SOL    HW115366   3.081   1.259   5.435
71178SOL    HW215367   2.983   1.152   5.392
71179SOL     OW15368   6.632   6.991   5.542
71179SOL    HW115369   6.696   7.051   5.579
71179SOL    HW215370   6.605   6.936   5.616
71180SOL     OW15371  13.422   6.953   9.100
71180SOL    HW115372  13.424   6.891   9.028
71180SOL    HW215373  13.464   7.032   9.065
71181SOL     OW15374   7.347   3.669  10.244
71181SOL    HW115375   7.325   3.641  10.155
71181SOL    HW215376   7.264   3.699  10.281
71182SOL     OW15377   8.052  13.115   9.210
71182SOL    HW115378   7.974  13.071   9.243
71182SOL    HW215379   8.085  13.164   9.285
71183SOL     OW15380   5.236   2.729   8.153
71183SOL    HW115381   5.258   2.812   8.195
71183SOL    HW215382   5.144   2.715   8.175
71184SOL     OW15383  12.508   1.704   1.609
71184SOL    HW115384  12.513   1.719   1.703
71184SOL    HW215385  12.598   1.713   1.578
71185SOL     OW15386   8.110  11.348   5.432
71185SOL    HW115387   8.040  11.404   5.402
71185SOL    HW215388   8.074  11.259   5.429
71186SOL     OW15389   9.695   6.691   2.058
71186SOL    HW115390   9.784   6.715   2.030
71186SOL    HW215391   9.638   6.728   1.991
71187SOL     OW15392   9.871  11.950   5.639
71187SOL    HW115393   9.829  11.986   5.561
71187SOL    HW215394   9.879  11.856   5.621
71188SOL     OW15395  14.292   3.651   0.186
71188SOL    HW115396  14.308   3.706   0.108
71188SOL    HW215397  14.374   3.605   0.200
71189SOL     OW15398   6.830   8.066   0.506
71189SOL    HW115399   6.922   8.041   0.495
71189SOL    HW215400   6.830   8.131   0.575
71190SOL     OW15401   5.218   0.970   6.906
71190SOL    HW115402   5.310   0.952   6.885
71190SOL    HW215403   5.184   0.887   6.938
71191SOL     OW15404   2.156   5.196   3.188
71191SOL    HW115405   2.109   5.115   3.168
71191SOL    HW215406   2.104   5.265   3.146
71192SOL     OW15407   8.275   9.941   8.773
71192SOL    HW115408   8.319   9.858   8.792
71192SOL    HW215409   8.323  10.006   8.824
71193SOL     OW15410   4.565   7.983   8.596
71193SOL    HW115411   4.531   7.902   8.632
71193SOL    HW215412   4.518   7.996   8.514
71194SOL     OW15413   4.577  14.509   7.440
71194SOL    HW115414   4.582  14.579   7.374
71194SOL    HW215415   4.634  14.440   7.407
71195SOL     OW15416   4.137   8.493   0.647
71195SOL    HW115417   4.085   8.542   0.582
71195SOL    HW215418   4.158   8.411   0.602
71196SOL     OW15419   2.829   8.583   3.775
71196SOL    HW115420   2.844   8.577   3.680
71196SOL    HW215421   2.828   8.677   3.793
71197SOL     OW15422   0.165  10.994   5.964
71197SOL    HW115423   0.158  10.899   5.956
71197SOL    HW215424   0.075  11.024   5.971
71198SOL     OW15425   5.465  14.210   1.772
71198SOL    HW115426   5.509  14.277   1.719
71198SOL    HW215427   5.452  14.137   1.711
71199SOL     OW15428   4.789   0.164   8.041
71199SOL    HW115429   4.867   0.120   8.075
71199SOL    HW215430   4.730   0.092   8.017
71200SOL     OW15431   1.442   2.515   0.128
71200SOL    HW115432   1.353   2.478   0.129
71200SOL    HW215433   1.466   2.521   0.221
71201SOL     OW15434   8.474  11.356   4.424
71201SOL    HW115435   8.538  11.303   4.378
71201SOL    HW215436   8.497  11.346   4.517
71202SOL     OW15437  13.184   4.801   1.058
71202SOL    HW115438  13.145   4.863   0.997
71202SOL    HW215439  13.179   4.717   1.014
71203SOL     OW15440   7.219   1.588  10.585
71203SOL    HW115441   7.211   1.668  10.637
71203SOL    HW215442   7.290   1.606  10.524
71204SOL     OW15443   8.135  11.306   9.683
71204SOL    HW115444   8.165  11.227   9.638
71204SOL    HW215445   8.061  11.337   9.631
71205SOL     OW15446  10.671   7.737  14.036
71205SOL    HW115447  10.728   7.784  13.976
71205SOL    HW215448  10.720   7.732  14.117
71206SOL     OW15449   8.820   8.821   0.966
71206SOL    HW115450   8.897   8.864   0.929
71206SOL    HW215451   8.778   8.888   1.019
71207SOL     OW15452   3.208   1.611  12.304
71207SOL    HW115453   3.235   1.614  12.396
71207SOL    HW215454   3.145   1.683  12.295
71208SOL     OW15455   0.381   4.508   0.666
71208SOL    HW115456   0.310   4.481   0.724
71208SOL    HW215457   0.454   4.528   0.725
71209SOL     OW15458   6.380   4.785   9.037
71209SOL    HW115459   6.395   4.839   9.115
71209SOL    HW215460   6.466   4.745   9.019
71210SOL     OW15461  11.753   6.230   6.131
71210SOL    HW115462  11.665   6.219   6.095
71210SOL    HW215463  11.761   6.323   6.150
71211SOL     OW15464   0.736   5.615  12.639
71211SOL    HW115465   0.811   5.567  12.605
71211SOL    HW215466   0.775   5.682  12.696
71212SOL     OW15467   2.521   4.939   7.049
71212SOL    HW115468   2.428   4.937   7.072
71212SOL    HW215469   2.531   4.867   6.986
71213SOL     OW15470   1.228   3.843  12.149
71213SOL    HW115471   1.159   3.837  12.082
71213SOL    HW215472   1.197   3.787  12.220
71214SOL     OW15473  11.380  12.010  13.022
71214SOL    HW115474  11.329  11.935  12.992
71214SOL    HW215475  11.424  12.042  12.944
71215SOL     OW15476   6.862  13.233   7.931
71215SOL    HW115477   6.876  13.180   8.011
71215SOL    HW215478   6.879  13.323   7.959
71216SOL     OW15479   7.295   1.611   1.052
71216SOL    HW115480   7.384   1.577   1.041
71216SOL    HW215481   7.306   1.688   1.108
71217SOL     OW15482   6.584  14.139   5.130
71217SOL    HW115483   6.650  14.097   5.076
71217SOL    HW215484   6.526  14.182   5.067
71218SOL     OW15485  11.141  10.007   9.231
71218SOL    HW115486  11.175   9.961   9.307
71218SOL    HW215487  11.140  10.099   9.257
71219SOL     OW15488  13.159   4.387   9.881
71219SOL    HW115489  13.075   4.373   9.925
71219SOL    HW215490  13.221   4.331   9.928
71220SOL     OW15491   5.532   3.518   3.886
71220SOL    HW115492   5.461   3.557   3.937
71220SOL    HW215493   5.523   3.556   3.799
71221SOL     OW15494  11.275   5.206  13.225
71221SOL    HW115495  11.256   5.209  13.131
71221SOL    HW215496  11.200   5.161  13.263
71222SOL     OW15497   7.425   8.770   1.597
71222SOL    HW115498   7.381   8.696   1.638
71222SOL    HW215499   7.413   8.756   1.503
71223SOL     OW15500   3.890   3.766  14.487
71223SOL    HW115501   3.876   3.815  14.406
71223SOL    HW215502   3.923   3.681  14.457
71224SOL     OW15503  12.055  13.801   5.271
71224SOL    HW115504  12.000  13.840   5.339
71224SOL    HW215505  12.113  13.742   5.318
71225SOL     OW15506  11.377  11.128  12.017
71225SOL    HW115507  11.360  11.044  12.059
71225SOL    HW215508  11.471  11.126  11.998
71226SOL     OW15509  13.266   5.157  14.472
71226SOL    HW115510  13.299   5.243  14.499
71226SOL    HW215511  13.221   5.123  14.550
71227SOL     OW15512   0.145   6.611   2.775
71227SOL    HW115513   0.214   6.559   2.734
71227SOL    HW215514   0.190   6.688   2.810
71228SOL     OW15515   2.586   8.275  11.091
71228SOL    HW115516   2.510   8.220  11.076
71228SOL    HW215517   2.656   8.234  11.040
71229SOL     OW15518  12.791   6.246   6.776
71229SOL    HW115519  12.831   6.315   6.830
71229SOL    HW215520  12.801   6.277   6.686
71230SOL     OW15521   0.958  12.430   5.998
71230SOL    HW115522   0.992  12.456   5.913
71230SOL    HW215523   0.889  12.366   5.978
71231SOL     OW15524   0.298   5.237   6.557
71231SOL    HW115525   0.216   5.237   6.607
71231SOL    HW215526   0.364   5.265   6.620
71232SOL     OW15527  12.156   7.153  10.421
71232SOL    HW115528  12.087   7.210  10.386
71232SOL    HW215529  12.159   7.079  10.361
71233SOL     OW15530  14.280   8.222   7.415
71233SOL    HW115531  14.205   8.249   7.362
71233SOL    HW215532  14.355   8.267   7.375
71234SOL     OW15533   8.484   7.782   2.953
71234SOL    HW115534   8.574   7.759   2.974
71234SOL    HW215535   8.430   7.729   3.011
71235SOL     OW15536   6.442  13.979  10.970
71235SOL    HW115537   6.511  13.916  10.992
71235SOL    HW215538   6.487  14.047  10.919
71236SOL     OW15539  14.042   9.840  11.216
71236SOL    HW115540  14.130   9.804  11.205
71236SOL    HW215541  14.055   9.921  11.265
71237SOL     OW15542  10.590  10.630   8.578
71237SOL    HW115543  10.673  10.614   8.534
71237SOL    HW215544  10.526  10.634   8.506
71238SOL     OW15545   1.254   7.425  12.445
71238SOL    HW115546   1.166   7.463  12.447
71238SOL    HW215547   1.296   7.466  12.369
71239SOL     OW15548   1.889  10.368   8.815
71239SOL    HW115549   1.895  10.312   8.738
71239SOL    HW215550   1.975  10.363   8.856
71240SOL     OW15551   9.093   0.381   3.571
71240SOL    HW115552   9.132   0.411   3.653
71240SOL    HW215553   9.167   0.372   3.511
71241SOL     OW15554   0.387   4.177   7.740
71241SOL    HW115555   0.404   4.168   7.646
71241SOL    HW215556   0.291   4.185   7.746
71242SOL     OW15557   6.328  11.728  10.575
71242SOL    HW115558   6.376  11.719  10.658
71242SOL    HW215559   6.379  11.677  10.512
71243SOL     OW15560   1.955   7.682   8.349
71243SOL    HW115561   1.998   7.599   8.326
71243SOL    HW215562   1.972   7.692   8.443
71244SOL     OW15563   5.835   9.595  13.712
71244SOL    HW115564   5.819   9.564  13.623
71244SOL    HW215565   5.758   9.566  13.762
71245SOL     OW15566  11.850   7.335   2.138
71245SOL    HW115567  11.852   7.271   2.209
71245SOL    HW215568  11.771   7.387   2.154
71246SOL     OW15569  10.103   6.133   6.161
71246SOL    HW115570  10.015   6.157   6.191
71246SOL    HW215571  10.089   6.092   6.076
71247SOL     OW15572   5.088  13.777   8.567
71247SOL    HW115573   5.014  13.772   8.628
71247SOL    HW215574   5.061  13.842   8.502
71248SOL     OW15575   0.683  12.087   4.292
71248SOL    HW115576   0.674  12.136   4.211
71248SOL    HW215577   0.743  12.016   4.271
71249SOL     OW15578  10.012  14.571  13.665
71249SOL    HW115579  10.013  14.504  13.598
71249SOL    HW215580   9.926  14.613  13.656
71250SOL     OW15581   8.406   8.048  14.229
71250SOL    HW115582   8.483   8.014  14.276
71250SOL    HW215583   8.398   7.992  14.152
71251SOL     OW15584   4.894  12.510  10.108
71251SOL    HW115585   4.927  12.456  10.036
71251SOL    HW215586   4.824  12.563  10.068
71252SOL     OW15587   5.993   1.156   1.659
71252SOL    HW115588   5.972   1.088   1.594
71252SOL    HW215589   6.085   1.139   1.681
71253SOL     OW15590  12.435   4.796   0.342
71253SOL    HW115591  12.423   4.839   0.258
71253SOL    HW215592  12.352   4.752   0.359
71254SOL     OW15593  13.390  10.499   3.620
71254SOL    HW115594  13.317  10.477   3.563
71254SOL    HW215595  13.453  10.428   3.607
71255SOL     OW15596   2.188   8.007   4.505
71255SOL    HW115597   2.222   8.085   4.462
71255SOL    HW215598   2.139   8.040   4.579
71256SOL     OW15599  14.219   2.074   1.817
71256SOL    HW115600  14.232   2.161   1.780
71256SOL    HW215601  14.303   2.053   1.858
71257SOL     OW15602   6.299   4.326   3.161
71257SOL    HW115603   6.253   4.346   3.080
71257SOL    HW215604   6.389   4.357   3.146
71258SOL     OW15605  11.058   0.250  14.073
71258SOL    HW115606  11.151   0.237  14.052
71258SOL    HW215607  11.035   0.331  14.027
71259SOL     OW15608   1.185   2.620  10.048
71259SOL    HW115609   1.237   2.693  10.080
71259SOL    HW215610   1.104   2.660  10.015
71260SOL     OW15611   1.837  14.198  12.816
71260SOL    HW115612   1.837  14.286  12.852
71260SOL    HW215613   1.852  14.210  12.722
71261SOL     OW15614   7.583  10.392   9.219
71261SOL    HW115615   7.605  10.436   9.301
71261SOL    HW215616   7.548  10.461   9.163
71262SOL     OW15617   8.937   1.644   4.811
71262SOL    HW115618   8.982   1.727   4.801
71262SOL    HW215619   8.895   1.649   4.897
71263SOL     OW15620  10.086   8.942   0.383
71263SOL    HW115621  10.151   8.937   0.453
71263SOL    HW215622  10.114   9.017   0.330
71264SOL     OW15623   0.785  14.381  10.929
71264SOL    HW115624   0.880  14.391  10.925
71264SOL    HW215625   0.752  14.470  10.943
71265SOL     OW15626   3.912   2.703   7.742
71265SOL    HW115627   3.897   2.662   7.827
71265SOL    HW215628   3.828   2.745   7.721
71266SOL     OW15629  12.695   9.537  13.527
71266SOL    HW115630  12.692   9.474  13.456
71266SOL    HW215631  12.729   9.617  13.487
71267SOL     OW15632  12.431   4.803  11.908
71267SOL    HW115633  12.467   4.722  11.944
71267SOL    HW215634  12.345   4.778  11.874
71268SOL     OW15635   5.969  11.055   1.245
71268SOL    HW115636   6.033  11.120   1.272
71268SOL    HW215637   5.941  11.014   1.327
71269SOL     OW15638   2.024  11.004   6.835
71269SOL    HW115639   1.977  10.953   6.901
71269SOL    HW215640   2.115  11.001   6.863
71270SOL     OW15641   9.742   4.578   8.319
71270SOL    HW115642   9.742   4.538   8.233
71270SOL    HW215643   9.834   4.577   8.346
71271SOL     OW15644  11.275  14.701   4.078
71271SOL    HW115645  11.243  14.790   4.060
71271SOL    HW215646  11.364  14.714   4.109
71272SOL     OW15647   6.391  10.264  12.119
71272SOL    HW115648   6.391  10.218  12.203
71272SOL    HW215649   6.319  10.326  12.125
71273SOL     OW15650   2.419   9.806   9.658
71273SOL    HW115651   2.510   9.812   9.686
71273SOL    HW215652   2.377   9.883   9.696
71274SOL     OW15653   6.417   1.344  10.710
71274SOL    HW115654   6.383   1.411  10.651
71274SOL    HW215655   6.418   1.264  10.658
71275SOL     OW15656   1.875   0.160  12.902
71275SOL    HW115657   1.844   0.140  12.990
71275SOL    HW215658   1.902   0.076  12.866
71276SOL     OW15659   4.331   5.008  11.609
71276SOL    HW115660   4.251   5.040  11.652
71276SOL    HW215661   4.325   5.040  11.519
71277SOL     OW15662   0.540   2.540   8.751
71277SOL    HW115663   0.630   2.562   8.728
71277SOL    HW215664   0.546   2.459   8.802
71278SOL     OW15665  13.169   7.376   1.548
71278SOL    HW115666  13.114   7.396   1.624
71278SOL    HW215667  13.106   7.354   1.479
71279SOL     OW15668  12.233  14.260  11.127
71279SOL    HW115669  12.237  14.354  11.141
71279SOL    HW215670  12.217  14.251  11.033
71280SOL     OW15671   4.573   0.674   4.761
71280SOL    HW115672   4.610   0.651   4.846
71280SOL    HW215673   4.479   0.659   4.771
71281SOL     OW15674   0.351  12.803   3.302
71281SOL    HW115675   0.345  12.860   3.226
71281SOL    HW215676   0.319  12.718   3.272
71282SOL     OW15677   9.849   1.664   6.707
71282SOL    HW115678   9.825   1.756   6.712
71282SOL    HW215679   9.866   1.639   6.798
71283SOL     OW15680   6.483   6.038   3.472
71283SOL    HW115681   6.576   6.060   3.468
71283SOL    HW215682   6.453   6.046   3.381
71284SOL     OW15683   1.478   7.152  14.385
71284SOL    HW115684   1.543   7.218  14.410
71284SOL    HW215685   1.495   7.136  14.292
71285SOL     OW15686   2.070   5.879   2.022
71285SOL    HW115687   2.063   5.860   1.928
71285SOL    HW215688   2.070   5.975   2.027
71286SOL     OW15689   5.187   2.485   4.219
71286SOL    HW115690   5.201   2.579   4.207
71286SOL    HW215691   5.242   2.443   4.153
71287SOL     OW15692   2.422   8.303  11.806
71287SOL    HW115693   2.493   8.297  11.870
71287SOL    HW215694   2.461   8.346  11.730
71288SOL     OW15695   1.294   2.544   5.605
71288SOL    HW115696   1.294   2.490   5.684
71288SOL    HW215697   1.287   2.481   5.533
71289SOL     OW15698   2.160   1.425   1.726
71289SOL    HW115699   2.125   1.360   1.666
71289SOL    HW215700   2.131   1.397   1.813
71290SOL     OW15701  12.945   9.658   0.728
71290SOL    HW115702  12.969   9.736   0.678
71290SOL    HW215703  12.922   9.593   0.661
71291SOL     OW15704   4.237  11.955   6.896
71291SOL    HW115705   4.301  12.006   6.846
71291SOL    HW215706   4.287  11.920   6.970
71292SOL     OW15707   6.709  12.932   1.832
71292SOL    HW115708   6.688  12.894   1.747
71292SOL    HW215709   6.695  13.026   1.820
71293SOL     OW15710  11.702   6.645   3.971
71293SOL    HW115711  11.771   6.583   3.950
71293SOL    HW215712  11.727   6.726   3.929
71294SOL     OW15713   7.922  14.773  11.573
71294SOL    HW115714   7.931  14.682  11.599
71294SOL    HW215715   8.010  14.799  11.545
71295SOL     OW15716  13.868   3.047   1.135
71295SOL    HW115717  13.787   3.026   1.087
71295SOL    HW215718  13.840   3.109   1.203
71296SOL     OW15719  13.647   5.160  11.778
71296SOL    HW115720  13.738   5.177  11.757
71296SOL    HW215721  13.603   5.155  11.693
71297SOL     OW15722   8.905  14.363   5.265
71297SOL    HW115723   8.826  14.413   5.249
71297SOL    HW215724   8.972  14.429   5.282
71298SOL     OW15725   4.621   9.002   4.771
71298SOL    HW115726   4.709   9.008   4.809
71298SOL    HW215727   4.562   9.013   4.845
71299SOL     OW15728   6.534   1.273  13.308
71299SOL    HW115729   6.500   1.185  13.288
71299SOL    HW215730   6.468   1.311  13.366
71300SOL     OW15731   7.077   8.182   2.505
71300SOL    HW115732   7.000   8.131   2.527
71300SOL    HW215733   7.104   8.150   2.419
71301SOL     OW15734   1.873  12.790  10.356
71301SOL    HW115735   1.910  12.782  10.443
71301SOL    HW215736   1.940  12.752  10.298
71302SOL     OW15737  11.099   2.536   3.027
71302SOL    HW115738  11.058   2.610   3.071
71302SOL    HW215739  11.082   2.551   2.934
71303SOL     OW15740  10.861   9.001   3.375
71303SOL    HW115741  10.926   8.981   3.443
71303SOL    HW215742  10.901   9.071   3.324
71304SOL     OW15743  12.500  12.591   0.119
71304SOL    HW115744  12.437  12.550   0.059
71304SOL    HW215745  12.475  12.558   0.206
71305SOL     OW15746  11.866  13.689   2.806
71305SOL    HW115747  11.955  13.702   2.839
71305SOL    HW215748  11.871  13.718   2.714
71306SOL     OW15749  13.134  14.453  10.842
71306SOL    HW115750  13.173  14.538  10.866
71306SOL    HW215751  13.045  14.457  10.876
71307SOL     OW15752   6.926  12.109   4.584
71307SOL    HW115753   6.873  12.100   4.504
71307SOL    HW215754   7.016  12.094   4.554
71308SOL     OW15755  11.768  14.829   2.283
71308SOL    HW115756  11.812  14.745   2.291
71308SOL    HW215757  11.839   0.019   2.266
71309SOL     OW15758   5.598  14.378  10.872
71309SOL    HW115759   5.570  14.440  10.939
71309SOL    HW215760   5.529  14.381  10.806
71310SOL     OW15761   5.456   3.627   4.570
71310SOL    HW115762   5.532   3.667   4.528
71310SOL    HW215763   5.386   3.692   4.562
71311SOL     OW15764   7.293  14.220  10.120
71311SOL    HW115765   7.314  14.129  10.098
71311SOL    HW215766   7.377  14.265  10.122
71312SOL     OW15767  10.728   5.084   2.320
71312SOL    HW115768  10.813   5.078   2.363
71312SOL    HW215769  10.713   5.178   2.310
71313SOL     OW15770  11.024  13.742   2.242
71313SOL    HW115771  11.019  13.798   2.165
71313SOL    HW215772  10.936  13.743   2.279
71314SOL     OW15773   1.129   6.577   2.118
71314SOL    HW115774   1.097   6.505   2.063
71314SOL    HW215775   1.213   6.601   2.080
71315SOL     OW15776   4.426   1.048   4.162
71315SOL    HW115777   4.460   1.042   4.073
71315SOL    HW215778   4.438   1.140   4.186
71316SOL     OW15779   5.892   1.188   2.948
71316SOL    HW115780   5.962   1.247   2.919
71316SOL    HW215781   5.832   1.244   2.997
71317SOL     OW15782   2.611  11.425  12.623
71317SOL    HW115783   2.695  11.439  12.579
71317SOL    HW215784   2.577  11.514  12.639
71318SOL     OW15785   0.757   4.640   2.350
71318SOL    HW115786   0.703   4.604   2.420
71318SOL    HW215787   0.847   4.619   2.377
71319SOL     OW15788   0.992   6.193  10.814
71319SOL    HW115789   1.061   6.147  10.863
71319SOL    HW215790   1.005   6.166  10.723
71320SOL     OW15791   6.817   2.549   8.608
71320SOL    HW115792   6.770   2.505   8.678
71320SOL    HW215793   6.869   2.480   8.566
71321SOL     OW15794   4.803   2.525   6.954
71321SOL    HW115795   4.870   2.552   6.891
71321SOL    HW215796   4.852   2.483   7.025
71322SOL     OW15797   4.871  13.525  13.865
71322SOL    HW115798   4.952  13.522  13.814
71322SOL    HW215799   4.891  13.476  13.945
71323SOL     OW15800   6.521   0.262   6.559
71323SOL    HW115801   6.590   0.207   6.522
71323SOL    HW215802   6.476   0.205   6.620
71324SOL     OW15803  14.262   6.355  12.506
71324SOL    HW115804  14.299   6.284  12.453
71324SOL    HW215805  14.190   6.389  12.453
71325SOL     OW15806   4.319   1.366  11.826
71325SOL    HW115807   4.373   1.295  11.791
71325SOL    HW215808   4.267   1.395  11.751
71326SOL     OW15809   1.121  14.778   6.013
71326SOL    HW115810   1.128  14.772   5.918
71326SOL    HW215811   1.041  14.828   6.028
71327SOL     OW15812   9.665  11.287   2.433
71327SOL    HW115813   9.577  11.326   2.434
71327SOL    HW215814   9.704  11.318   2.351
71328SOL     OW15815   0.607  10.754  11.242
71328SOL    HW115816   0.636  10.835  11.201
71328SOL    HW215817   0.544  10.717  11.180
71329SOL     OW15818   8.206   4.502  12.062
71329SOL    HW115819   8.184   4.418  12.023
71329SOL    HW215820   8.181   4.566  11.995
71330SOL     OW15821   9.866   8.653   2.879
71330SOL    HW115822   9.821   8.679   2.959
71330SOL    HW215823   9.853   8.559   2.873
71331SOL     OW15824  12.393  12.282   4.290
71331SOL    HW115825  12.326  12.226   4.330
71331SOL    HW215826  12.414  12.346   4.359
71332SOL     OW15827  12.139   1.032  13.020
71332SOL    HW115828  12.087   1.106  12.989
71332SOL    HW215829  12.222   1.070  13.048
71333SOL     OW15830   9.218  13.028   0.367
71333SOL    HW115831   9.303  13.073   0.374
71333SOL    HW215832   9.194  13.036   0.275
71334SOL     OW15833  12.491   3.532   5.334
71334SOL    HW115834  12.498   3.454   5.280
71334SOL    HW215835  12.561   3.590   5.302
71335SOL     OW15836   2.545   0.281   2.195
71335SOL    HW115837   2.640   0.274   2.205
71335SOL    HW215838   2.520   0.357   2.248
71336SOL     OW15839   6.862   0.910   1.989
71336SOL    HW115840   6.935   0.885   2.046
71336SOL    HW215841   6.815   0.976   2.039
71337SOL     OW15842  12.801   9.800  11.715
71337SOL    HW115843  12.884   9.828  11.677
71337SOL    HW215844  12.795   9.707  11.695
71338SOL     OW15845   7.680  11.549  11.337
71338SOL    HW115846   7.675  11.580  11.428
71338SOL    HW215847   7.590  11.548  11.307
71339SOL     OW15848   2.108   0.783  12.261
71339SOL    HW115849   2.142   0.780  12.351
71339SOL    HW215850   2.082   0.874  12.249
71340SOL     OW15851   3.064   8.097  12.153
71340SOL    HW115852   3.146   8.079  12.106
71340SOL    HW215853   3.090   8.105  12.245
71341SOL     OW15854  13.600  14.595  11.948
71341SOL    HW115855  13.622  14.567  12.037
71341SOL    HW215856  13.545  14.672  11.961
71342SOL     OW15857   0.682   7.040  10.588
71342SOL    HW115858   0.680   7.055  10.682
71342SOL    HW215859   0.648   7.121  10.550
71343SOL     OW15860  12.678   9.465   7.279
71343SOL    HW115861  12.621   9.406   7.328
71343SOL    HW215862  12.706   9.530   7.343
71344SOL     OW15863  10.125   5.668  13.256
71344SOL    HW115864  10.055   5.719  13.216
71344SOL    HW215865  10.193   5.731  13.276
71345SOL     OW15866   0.999   5.945   0.338
71345SOL    HW115867   1.010   5.878   0.406
71345SOL    HW215868   1.087   5.958   0.303
71346SOL     OW15869   4.049   1.639   1.141
71346SOL    HW115870   4.056   1.544   1.131
71346SOL    HW215871   3.999   1.650   1.223
71347SOL     OW15872  12.945   8.635  10.109
71347SOL    HW115873  12.891   8.589  10.045
71347SOL    HW215874  12.937   8.583  10.189
71348SOL     OW15875   9.112   4.588   5.137
71348SOL    HW115876   9.047   4.654   5.112
71348SOL    HW215877   9.062   4.522   5.184
71349SOL     OW15878   7.368  11.963  11.623
71349SOL    HW115879   7.425  12.013  11.681
71349SOL    HW215880   7.393  11.872  11.637
71350SOL     OW15881   5.038  12.398   7.982
71350SOL    HW115882   4.963  12.414   7.924
71350SOL    HW215883   5.004  12.414   8.070
71351SOL     OW15884  13.359   7.554   7.912
71351SOL    HW115885  13.342   7.541   8.005
71351SOL    HW215886  13.342   7.647   7.897
71352SOL     OW15887   0.973  11.986   0.569
71352SOL    HW115888   1.023  12.066   0.586
71352SOL    HW215889   1.031  11.932   0.515
71353SOL     OW15890   0.915   9.741   6.113
71353SOL    HW115891   0.861   9.797   6.058
71353SOL    HW215892   0.856   9.673   6.144
71354SOL     OW15893   4.673   2.127   9.087
71354SOL    HW115894   4.700   2.062   9.022
71354SOL    HW215895   4.681   2.211   9.041
71355SOL     OW15896   5.379   0.365   5.828
71355SOL    HW115897   5.436   0.437   5.854
71355SOL    HW215898   5.415   0.334   5.746
71356SOL     OW15899   5.071  12.939   9.307
71356SOL    HW115900   4.999  12.977   9.256
71356SOL    HW215901   5.031  12.870   9.358
71357SOL     OW15902  13.564  12.403  13.470
71357SOL    HW115903  13.634  12.357  13.422
71357SOL    HW215904  13.575  12.495  13.445
71358SOL     OW15905  11.488  10.597   6.583
71358SOL    HW115906  11.506  10.688   6.561
71358SOL    HW215907  11.472  10.599   6.678
71359SOL     OW15908   9.334   8.246   2.036
71359SOL    HW115909   9.269   8.256   1.966
71359SOL    HW215910   9.376   8.332   2.043
71360SOL     OW15911  11.778  10.857   8.815
71360SOL    HW115912  11.800  10.950   8.823
71360SOL    HW215913  11.832  10.825   8.743
71361SOL     OW15914   7.336  10.961   5.297
71361SOL    HW115915   7.287  10.963   5.215
71361SOL    HW215916   7.425  10.934   5.272
71362SOL     OW15917   3.086   8.047  10.465
71362SOL    HW115918   3.015   8.111  10.474
71362SOL    HW215919   3.067   8.003  10.382
71363SOL     OW15920  14.379   9.954  14.477
71363SOL    HW115921  14.311   9.949  14.544
71363SOL    HW215922  14.456   9.914  14.517
71364SOL     OW15923  10.028   9.598  13.646
71364SOL    HW115924   9.947   9.565  13.685
71364SOL    HW215925  10.077   9.635  13.720
71365SOL     OW15926   6.128   6.496   1.676
71365SOL    HW115927   6.058   6.549   1.639
71365SOL    HW215928   6.207   6.548   1.662
71366SOL     OW15929  14.464  14.335   7.574
71366SOL    HW115930  14.483  14.302   7.486
71366SOL    HW215931  14.510  14.419   7.578
71367SOL     OW15932  12.990  12.815   1.173
71367SOL    HW115933  12.936  12.742   1.143
71367SOL    HW215934  13.001  12.870   1.095
71368SOL     OW15935   7.400   5.671  11.425
71368SOL    HW115936   7.370   5.581  11.410
71368SOL    HW215937   7.447   5.667  11.508
71369SOL     OW15938   3.408  14.790   4.664
71369SOL    HW115939   3.482  14.730   4.656
71369SOL    HW215940   3.434  14.867   4.614
71370SOL     OW15941  11.636   7.299   9.507
71370SOL    HW115942  11.553   7.316   9.552
71370SOL    HW215943  11.702   7.311   9.575
71371SOL     OW15944   3.445   6.983   3.739
71371SOL    HW115945   3.510   7.027   3.685
71371SOL    HW215946   3.495   6.944   3.810
71372SOL     OW15947   5.441   4.600   5.474
71372SOL    HW115948   5.416   4.688   5.502
71372SOL    HW215949   5.512   4.615   5.411
71373SOL     OW15950  12.209   6.550   3.946
71373SOL    HW115951  12.220   6.628   4.001
71373SOL    HW215952  12.211   6.477   4.008
71374SOL     OW15953   7.555   3.915   3.949
71374SOL    HW115954   7.645   3.918   3.918
71374SOL    HW215955   7.526   4.006   3.950
71375SOL     OW15956   7.078  12.875   9.552
71375SOL    HW115957   6.996  12.912   9.584
71375SOL    HW215958   7.133  12.950   9.532
71376SOL     OW15959  13.964  11.826  11.873
71376SOL    HW115960  13.985  11.737  11.904
71376SOL    HW215961  13.869  11.826  11.866
71377SOL     OW15962   5.884   0.994   3.449
71377SOL    HW115963   5.970   1.019   3.417
71377SOL    HW215964   5.875   1.038   3.533
71378SOL     OW15965   6.224   4.396  12.472
71378SOL    HW115966   6.186   4.310  12.486
71378SOL    HW215967   6.171   4.435  12.402
71379SOL     OW15968   4.021  14.801   2.973
71379SOL    HW115969   3.940  14.757   2.948
71379SOL    HW215970   4.081  14.730   2.996
71380SOL     OW15971   0.033   8.080   8.300
71380SOL    HW115972   0.107   8.134   8.272
71380SOL    HW215973  14.829   8.122   8.261
71381SOL     OW15974   8.477   9.816   5.320
71381SOL    HW115975   8.512   9.765   5.393
71381SOL    HW215976   8.543   9.807   5.251
71382SOL     OW15977  14.668  12.681  13.905
71382SOL    HW115978  14.597  12.724  13.954
71382SOL    HW215979  14.686  12.739  13.831
71383SOL     OW15980   2.185   4.743   6.517
71383SOL    HW115981   2.183   4.762   6.423
71383SOL    HW215982   2.137   4.816   6.556
71384SOL     OW15983   6.824   2.596   0.567
71384SOL    HW115984   6.734   2.586   0.536
71384SOL    HW215985   6.847   2.509   0.601
71385SOL     OW15986  14.240  14.285   4.211
71385SOL    HW115987  14.287  14.264   4.130
71385SOL    HW215988  14.289  14.357   4.249
71386SOL     OW15989   5.693   5.658  10.595
71386SOL    HW115990   5.648   5.658  10.511
71386SOL    HW215991   5.695   5.566  10.621
71387SOL     OW15992   7.631  10.031   5.818
71387SOL    HW115993   7.632   9.944   5.780
71387SOL    HW215994   7.582  10.022   5.899
71388SOL     OW15995   5.323  12.422  13.726
71388SOL    HW115996   5.364  12.427  13.640
71388SOL    HW215997   5.293  12.332  13.733
71389SOL     OW15998   0.441  13.015  11.523
71389SOL    HW115999   0.462  12.975  11.438
71389SOL    HW216000   0.464  12.948  11.587
71390SOL     OW16001  14.827  14.822   0.491
71390SOL    HW116002  14.821  14.840   0.585
71390SOL    HW216003  14.828  14.727   0.485
71391SOL     OW16004   4.003   2.398  10.781
71391SOL    HW116005   3.942   2.346  10.831
71391SOL    HW216006   4.044   2.336  10.720
71392SOL     OW16007   5.579   9.160   5.326
71392SOL    HW116008   5.611   9.200   5.406
71392SOL    HW216009   5.628   9.203   5.256
71393SOL     OW16010   0.204  12.856   6.329
71393SOL    HW116011   0.152  12.915   6.384
71393SOL    HW216012   0.242  12.913   6.262
71394SOL     OW16013   0.316   8.981   7.376
71394SOL    HW116014   0.357   8.995   7.291
71394SOL    HW216015   0.369   8.911   7.416
71395SOL     OW16016   5.266  10.051   6.692
71395SOL    HW116017   5.352  10.012   6.707
71395SOL    HW216018   5.248  10.100   6.772
71396SOL     OW16019  10.696   5.006  13.429
71396SOL    HW116020  10.631   5.075  13.417
71396SOL    HW216021  10.745   5.005  13.347
71397SOL     OW16022   3.191   1.267  14.762
71397SOL    HW116023   3.199   1.353  14.722
71397SOL    HW216024   3.160   1.210  14.692
71398SOL     OW16025  14.014   1.918   3.069
71398SOL    HW116026  13.957   1.842   3.058
71398SOL    HW216027  14.024   1.927   3.164
71399SOL     OW16028   6.140   7.719   9.972
71399SOL    HW116029   6.094   7.802   9.967
71399SOL    HW216030   6.074   7.654   9.948
71400SOL     OW16031   5.180  11.121   0.167
71400SOL    HW116032   5.087  11.130   0.147
71400SOL    HW216033   5.219  11.091   0.085
71401SOL     OW16034   9.032   0.385   9.000
71401SOL    HW116035   9.012   0.293   9.020
71401SOL    HW216036   9.010   0.395   8.908
71402SOL     OW16037  14.804  12.763   6.065
71402SOL    HW116038   0.026  12.769   6.081
71402SOL    HW216039  14.796  12.713   5.984
71403SOL     OW16040   5.333   3.184   6.464
71403SOL    HW116041   5.287   3.233   6.397
71403SOL    HW216042   5.409   3.147   6.420
71404SOL     OW16043   8.905   6.486  11.602
71404SOL    HW116044   8.926   6.450  11.516
71404SOL    HW216045   8.952   6.570  11.604
71405SOL     OW16046   6.482  12.955   8.389
71405SOL    HW116047   6.475  13.013   8.465
71405SOL    HW216048   6.473  13.013   8.314
71406SOL     OW16049   4.704   9.272   8.353
71406SOL    HW116050   4.736   9.349   8.307
71406SOL    HW216051   4.774   9.247   8.413
71407SOL     OW16052   7.896   2.292   4.680
71407SOL    HW116053   7.966   2.255   4.627
71407SOL    HW216054   7.908   2.253   4.767
71408SOL     OW16055  14.424   1.796  10.770
71408SOL    HW116056  14.341   1.843  10.765
71408SOL    HW216057  14.427   1.744  10.690
71409SOL     OW16058   3.731   5.894  11.138
71409SOL    HW116059   3.696   5.959  11.199
71409SOL    HW216060   3.823   5.885  11.163
71410SOL     OW16061  11.864   0.452   3.618
71410SOL    HW116062  11.904   0.522   3.671
71410SOL    HW216063  11.854   0.491   3.531
71411SOL     OW16064   0.791  10.629   0.074
71411SOL    HW116065   0.761  10.711   0.036
71411SOL    HW216066   0.876  10.612   0.033
71412SOL     OW16067  11.987   3.714   8.315
71412SOL    HW116068  12.044   3.639   8.302
71412SOL    HW216069  11.901   3.685   8.283
71413SOL     OW16070   5.219   8.198  11.988
71413SOL    HW116071   5.254   8.199  11.899
71413SOL    HW216072   5.226   8.107  12.016
71414SOL     OW16073   8.313   0.393  13.871
71414SOL    HW116074   8.258   0.455  13.825
71414SOL    HW216075   8.292   0.406  13.964
71415SOL     OW16076   9.479  12.128  13.035
71415SOL    HW116077   9.500  12.040  13.067
71415SOL    HW216078   9.387  12.140  13.056
71416SOL     OW16079   4.260   8.688   3.728
71416SOL    HW116080   4.230   8.607   3.687
71416SOL    HW216081   4.351   8.671   3.750
71417SOL     OW16082   2.126  11.406  11.532
71417SOL    HW116083   2.067  11.473  11.497
71417SOL    HW216084   2.214  11.436  11.507
71418SOL     OW16085  12.454   4.198   6.263
71418SOL    HW116086  12.421   4.281   6.299
71418SOL    HW216087  12.548   4.212   6.255
71419SOL     OW16088   6.127  13.457   7.755
71419SOL    HW116089   6.033  13.438   7.753
71419SOL    HW216090   6.158  13.434   7.668
71420SOL     OW16091  10.443   8.151  12.352
71420SOL    HW116092  10.513   8.216  12.360
71420SOL    HW216093  10.418   8.154  12.259
71421SOL     OW16094  12.119  14.786  11.906
71421SOL    HW116095  12.182  14.793  11.834
71421SOL    HW216096  12.156  14.719  11.964
71422SOL     OW16097  14.744   3.034   9.135
71422SOL    HW116098  14.750   2.957   9.077
71422SOL    HW216099  14.658   3.026   9.175
71423SOL     OW16100   6.050  10.271  11.986
71423SOL    HW116101   6.071  10.236  11.899
71423SOL    HW216102   6.038  10.194  12.041
71424SOL     OW16103   1.716   7.580  11.261
71424SOL    HW116104   1.705   7.639  11.187
71424SOL    HW216105   1.808   7.589  11.286
71425SOL     OW16106  13.783   1.045   5.811
71425SOL    HW116107  13.765   1.136   5.787
71425SOL    HW216108  13.879   1.039   5.808
71426SOL     OW16109   8.004   5.985   1.033
71426SOL    HW116110   7.946   5.920   1.073
71426SOL    HW216111   7.947   6.058   1.011
71427SOL     OW16112  11.009   8.550  11.793
71427SOL    HW116113  11.079   8.585  11.848
71427SOL    HW216114  10.964   8.627  11.759
71428SOL     OW16115  14.202   6.693   9.466
71428SOL    HW116116  14.199   6.608   9.508
71428SOL    HW216117  14.258   6.746   9.523
71429SOL     OW16118   9.856   0.594  13.323
71429SOL    HW116119   9.795   0.656  13.281
71429SOL    HW216120   9.942   0.620  13.290
71430SOL     OW16121   5.086   3.895  12.398
71430SOL    HW116122   5.079   3.821  12.337
71430SOL    HW216123   5.178   3.922  12.391
71431SOL     OW16124   8.615   8.086   7.973
71431SOL    HW116125   8.600   8.177   7.948
71431SOL    HW216126   8.581   8.035   7.899
71432SOL     OW16127   5.519   2.968   5.972
71432SOL    HW116128   5.597   2.961   6.026
71432SOL    HW216129   5.446   2.967   6.034
71433SOL     OW16130   9.247   1.591   7.080
71433SOL    HW116131   9.258   1.615   7.172
71433SOL    HW216132   9.164   1.631   7.054
71434SOL     OW16133   8.054   5.616   6.172
71434SOL    HW116134   8.035   5.618   6.079
71434SOL    HW216135   8.040   5.524   6.197
71435SOL     OW16136   0.004   0.718   6.117
71435SOL    HW116137   0.074   0.775   6.084
71435SOL    HW216138   0.016   0.718   6.212
71436SOL     OW16139   9.091   7.081   2.880
71436SOL    HW116140   9.095   7.096   2.786
71436SOL    HW216141   8.998   7.071   2.899
71437SOL     OW16142   2.536   6.827   5.634
71437SOL    HW116143   2.513   6.904   5.580
71437SOL    HW216144   2.460   6.769   5.625
71438SOL     OW16145   5.213   1.169  12.876
71438SOL    HW116146   5.210   1.264  12.887
71438SOL    HW216147   5.142   1.150  12.814
71439SOL     OW16148   6.124   9.626  10.440
71439SOL    HW116149   6.080   9.561  10.386
71439SOL    HW216150   6.168   9.575  10.508
71440SOL     OW16151   6.791   6.946   6.820
71440SOL    HW116152   6.722   7.000   6.780
71440SOL    HW216153   6.761   6.932   6.909
71441SOL     OW16154   8.025   7.326   2.777
71441SOL    HW116155   8.080   7.250   2.759
71441SOL    HW216156   7.985   7.347   2.692
71442SOL     OW16157   6.353   4.615   2.813
71442SOL    HW116158   6.341   4.520   2.808
71442SOL    HW216159   6.269   4.652   2.787
71443SOL     OW16160   7.027  10.753   2.210
71443SOL    HW116161   7.021  10.843   2.177
71443SOL    HW216162   6.963  10.704   2.159
71444SOL     OW16163   3.521   9.187   3.348
71444SOL    HW116164   3.604   9.233   3.353
71444SOL    HW216165   3.457   9.251   3.380
71445SOL     OW16166   2.205   5.099  14.359
71445SOL    HW116167   2.154   5.085  14.438
71445SOL    HW216168   2.172   5.034  14.297
71446SOL     OW16169  10.430   5.899   2.744
71446SOL    HW116170  10.479   5.929   2.668
71446SOL    HW216171  10.492   5.902   2.816
71447SOL     OW16172  13.240  12.242   8.753
71447SOL    HW116173  13.161  12.194   8.776
71447SOL    HW216174  13.221  12.279   8.667
71448SOL     OW16175   0.478   5.066   2.424
71448SOL    HW116176   0.556   5.119   2.436
71448SOL    HW216177   0.494   4.987   2.476
71449SOL     OW16178  12.116  13.323  11.361
71449SOL    HW116179  12.188  13.380  11.333
71449SOL    HW216180  12.147  13.285  11.443
71450SOL     OW16181   2.795   6.928   1.131
71450SOL    HW116182   2.862   6.996   1.140
71450SOL    HW216183   2.844   6.847   1.117
71451SOL     OW16184   7.452   6.161   2.468
71451SOL    HW116185   7.386   6.113   2.418
71451SOL    HW216186   7.534   6.118   2.445
71452SOL     OW16187   6.282   2.066  11.112
71452SOL    HW116188   6.279   2.077  11.207
71452SOL    HW216189   6.207   2.010  11.093
71453SOL     OW16190  13.978   2.355  13.864
71453SOL    HW116191  13.984   2.350  13.769
71453SOL    HW216192  14.016   2.441  13.887
71454SOL     OW16193   9.079   9.612  11.748
71454SOL    HW116194   9.134   9.690  11.735
71454SOL    HW216195   9.014   9.618  11.678
71455SOL     OW16196   9.958   4.485   2.618
71455SOL    HW116197  10.006   4.557   2.660
71455SOL    HW216198   9.923   4.524   2.538
71456SOL     OW16199   2.139   4.551   9.800
71456SOL    HW116200   2.093   4.634   9.809
71456SOL    HW216201   2.072   4.484   9.810
71457SOL     OW16202  12.515   8.059  12.509
71457SOL    HW116203  12.462   8.018  12.440
71457SOL    HW216204  12.527   7.991  12.574
71458SOL     OW16205   3.090   1.901   6.322
71458SOL    HW116206   3.081   1.946   6.238
71458SOL    HW216207   3.098   1.808   6.300
71459SOL     OW16208   9.310  12.590  13.397
71459SOL    HW116209   9.219  12.562  13.387
71459SOL    HW216210   9.359  12.509  13.412
71460SOL     OW16211  11.696   2.643   4.997
71460SOL    HW116212  11.692   2.654   4.902
71460SOL    HW216213  11.789   2.641   5.018
71461SOL     OW16214   8.332   0.650   4.977
71461SOL    HW116215   8.287   0.582   4.927
71461SOL    HW216216   8.387   0.695   4.913
71462SOL     OW16217   8.324  11.571   7.198
71462SOL    HW116218   8.376  11.650   7.178
71462SOL    HW216219   8.346  11.550   7.289
71463SOL     OW16220  10.123  13.292   8.446
71463SOL    HW116221  10.195  13.337   8.491
71463SOL    HW216222  10.045  13.339   8.475
71464SOL     OW16223   2.121   8.531   1.442
71464SOL    HW116224   2.197   8.547   1.385
71464SOL    HW216225   2.048   8.575   1.398
71465SOL     OW16226   9.860  11.036   8.239
71465SOL    HW116227   9.821  10.989   8.313
71465SOL    HW216228   9.866  10.971   8.169
71466SOL     OW16229   5.851  14.057   1.804
71466SOL    HW116230   5.778  14.108   1.840
71466SOL    HW216231   5.852  13.977   1.858
71467SOL     OW16232   9.886   1.998   9.264
71467SOL    HW116233   9.978   2.023   9.253
71467SOL    HW216234   9.847   2.013   9.178
71468SOL     OW16235  10.611   3.372  11.714
71468SOL    HW116236  10.696   3.337  11.688
71468SOL    HW216237  10.625   3.406  11.802
71469SOL     OW16238  11.100   9.934   5.536
71469SOL    HW116239  11.037   9.862   5.541
71469SOL    HW216240  11.166   9.913   5.602
71470SOL     OW16241   1.798  13.264   5.814
71470SOL    HW116242   1.866  13.280   5.879
71470SOL    HW216243   1.720  13.306   5.850
71471SOL     OW16244   1.945   1.985   8.442
71471SOL    HW116245   1.890   1.947   8.374
71471SOL    HW216246   1.999   2.049   8.396
71472SOL     OW16247   5.513   3.856   4.911
71472SOL    HW116248   5.555   3.929   4.864
71472SOL    HW216249   5.487   3.894   4.995
71473SOL     OW16250  14.044   3.028   9.878
71473SOL    HW116251  14.049   2.941   9.838
71473SOL    HW216252  14.018   3.011   9.969
71474SOL     OW16253   5.761   6.334   1.506
71474SOL    HW116254   5.832   6.397   1.515
71474SOL    HW216255   5.752   6.321   1.412
71475SOL     OW16256   6.530   4.533   0.514
71475SOL    HW116257   6.580   4.580   0.581
71475SOL    HW216258   6.592   4.470   0.478
71476SOL     OW16259   0.781   2.566   4.202
71476SOL    HW116260   0.859   2.570   4.257
71476SOL    HW216261   0.728   2.496   4.240
71477SOL     OW16262   3.272   2.036  12.739
71477SOL    HW116263   3.300   2.122  12.770
71477SOL    HW216264   3.203   2.055  12.676
71478SOL     OW16265  11.081   8.225   1.529
71478SOL    HW116266  11.047   8.158   1.589
71478SOL    HW216267  11.041   8.306   1.561
71479SOL     OW16268   3.696   8.675   4.089
71479SOL    HW116269   3.608   8.701   4.064
71479SOL    HW216270   3.691   8.662   4.184
71480SOL     OW16271   8.723   1.717  10.048
71480SOL    HW116272   8.702   1.772   9.973
71480SOL    HW216273   8.798   1.759  10.088
71481SOL     OW16274   7.007  10.129   2.249
71481SOL    HW116275   7.015  10.191   2.178
71481SOL    HW216276   7.081  10.147   2.306
71482SOL     OW16277   6.536  11.185   4.609
71482SOL    HW116278   6.557  11.144   4.526
71482SOL    HW216279   6.446  11.160   4.627
71483SOL     OW16280   1.704  11.130   7.819
71483SOL    HW116281   1.664  11.136   7.732
71483SOL    HW216282   1.794  11.159   7.806
71484SOL     OW16283   2.051   7.707   5.437
71484SOL    HW116284   1.960   7.735   5.442
71484SOL    HW216285   2.051   7.620   5.477
71485SOL     OW16286   1.024  13.930  12.591
71485SOL    HW116287   0.973  13.850  12.604
71485SOL    HW216288   1.081  13.934  12.668
71486SOL     OW16289  13.933  10.430   5.143
71486SOL    HW116290  13.949  10.496   5.211
71486SOL    HW216291  13.921  10.349   5.192
71487SOL     OW16292   7.449  11.144   7.095
71487SOL    HW116293   7.489  11.078   7.152
71487SOL    HW216294   7.446  11.224   7.149
71488SOL     OW16295   7.666  13.701   7.626
71488SOL    HW116296   7.626  13.661   7.549
71488SOL    HW216297   7.595  13.707   7.690
71489SOL     OW16298  14.055  10.761   7.957
71489SOL    HW116299  14.139  10.751   7.913
71489SOL    HW216300  14.009  10.679   7.941
71490SOL     OW16301   4.365   2.443  10.587
71490SOL    HW116302   4.344   2.535  10.603
71490SOL    HW216303   4.390   2.440  10.495
71491SOL     OW16304  14.702   1.974   6.079
71491SOL    HW116305  14.689   1.943   5.990
71491SOL    HW216306  14.622   1.949   6.125
71492SOL     OW16307   7.410   9.397   1.080
71492SOL    HW116308   7.322   9.406   1.117
71492SOL    HW216309   7.467   9.391   1.157
71493SOL     OW16310   6.570   1.013   6.198
71493SOL    HW116311   6.577   1.057   6.113
71493SOL    HW216312   6.626   1.064   6.256
71494SOL     OW16313   4.096   5.635  11.683
71494SOL    HW116314   4.127   5.612  11.596
71494SOL    HW216315   4.001   5.624  11.679
71495SOL     OW16316  13.413   0.526   5.810
71495SOL    HW116317  13.363   0.481   5.741
71495SOL    HW216318  13.483   0.464   5.833
71496SOL     OW16319  11.686   3.797   1.474
71496SOL    HW116320  11.776   3.775   1.496
71496SOL    HW216321  11.634   3.762   1.547
71497SOL     OW16322   3.600  14.614   8.508
71497SOL    HW116323   3.543  14.572   8.572
71497SOL    HW216324   3.637  14.541   8.458
71498SOL     OW16325   0.389   1.173   7.058
71498SOL    HW116326   0.302   1.212   7.067
71498SOL    HW216327   0.440   1.240   7.013
71499SOL     OW16328   5.887   1.063   8.376
71499SOL    HW116329   5.850   1.151   8.366
71499SOL    HW216330   5.883   1.047   8.470
71500SOL     OW16331  12.923  12.559   4.213
71500SOL    HW116332  12.921  12.470   4.246
71500SOL    HW216333  12.949  12.613   4.288
71501SOL     OW16334   1.525   0.793   2.358
71501SOL    HW116335   1.609   0.802   2.403
71501SOL    HW216336   1.547   0.791   2.265
71502SOL     OW16337  11.613   0.516   7.820
71502SOL    HW116338  11.561   0.523   7.740
71502SOL    HW216339  11.553   0.478   7.884
71503SOL     OW16340  11.840   1.164  13.000
71503SOL    HW116341  11.818   1.077  13.035
71503SOL    HW216342  11.877   1.146  12.913
71504SOL     OW16343  12.361   7.822   1.340
71504SOL    HW116344  12.421   7.752   1.366
71504SOL    HW216345  12.352   7.813   1.245
71505SOL     OW16346  12.738   7.955  13.612
71505SOL    HW116347  12.645   7.974  13.605
71505SOL    HW216348  12.747   7.912  13.698
71506SOL     OW16349  11.849   8.781  12.585
71506SOL    HW116350  11.918   8.830  12.628
71506SOL    HW216351  11.826   8.711  12.647
71507SOL     OW16352   8.139   7.193  11.144
71507SOL    HW116353   8.193   7.160  11.072
71507SOL    HW216354   8.193   7.259  11.187
71508SOL     OW16355  10.714   1.687   8.505
71508SOL    HW116356  10.632   1.671   8.459
71508SOL    HW216357  10.776   1.624   8.468
71509SOL     OW16358   2.281  10.623   2.119
71509SOL    HW116359   2.237  10.650   2.038
71509SOL    HW216360   2.329  10.701   2.147
71510SOL     OW16361   2.051   6.423   5.525
71510SOL    HW116362   2.013   6.466   5.601
71510SOL    HW216363   2.113   6.487   5.490
71511SOL     OW16364  14.141   9.346   7.741
71511SOL    HW116365  14.128   9.421   7.800
71511SOL    HW216366  14.226   9.363   7.701
71512SOL     OW16367  13.569   1.060   0.506
71512SOL    HW116368  13.602   0.997   0.442
71512SOL    HW216369  13.548   1.008   0.583
71513SOL     OW16370   9.194  12.609   6.023
71513SOL    HW116371   9.253  12.605   6.098
71513SOL    HW216372   9.165  12.519   6.011
71514SOL     OW16373   9.481   0.878   5.750
71514SOL    HW116374   9.563   0.872   5.799
71514SOL    HW216375   9.470   0.971   5.734
71515SOL     OW16376  14.629   5.875  14.040
71515SOL    HW116377  14.562   5.817  14.003
71515SOL    HW216378  14.616   5.871  14.135
71516SOL     OW16379   7.980  14.615   1.159
71516SOL    HW116380   7.997  14.701   1.197
71516SOL    HW216381   8.062  14.568   1.169
71517SOL     OW16382  12.985   8.010   0.783
71517SOL    HW116383  13.065   7.963   0.805
71517SOL    HW216384  12.964   7.981   0.694
71518SOL     OW16385   9.459  14.510   5.069
71518SOL    HW116386   9.509  14.486   4.991
71518SOL    HW216387   9.508  14.472   5.142
71519SOL     OW16388   1.231   6.114   9.768
71519SOL    HW116389   1.191   6.133   9.853
71519SOL    HW216390   1.235   6.199   9.725
71520SOL     OW16391  11.950   2.077  10.799
71520SOL    HW116392  11.922   1.994  10.762
71520SOL    HW216393  12.031   2.099  10.751
71521SOL     OW16394   6.126  12.568   2.793
71521SOL    HW116395   6.141  12.501   2.859
71521SOL    HW216396   6.209  12.577   2.747
71522SOL     OW16397  12.042   9.189   5.205
71522SOL    HW116398  12.120   9.243   5.217
71522SOL    HW216399  12.075   9.100   5.198
71523SOL     OW16400   3.557  10.643  10.016
71523SOL    HW116401   3.542  10.569   9.957
71523SOL    HW216402   3.470  10.671  10.043
71524SOL     OW16403   5.842  11.620   0.829
71524SOL    HW116404   5.752  11.590   0.844
71524SOL    HW216405   5.891  11.539   0.812
71525SOL     OW16406  10.316   3.884  10.350
71525SOL    HW116407  10.390   3.857  10.296
71525SOL    HW216408  10.255   3.810  10.347
71526SOL     OW16409   2.142  13.631   4.868
71526SOL    HW116410   2.203  13.705   4.873
71526SOL    HW216411   2.061  13.669   4.833
71527SOL     OW16412  14.731   0.256   3.954
71527SOL    HW116413  14.777   0.255   3.870
71527SOL    HW216414  14.787   0.308   4.012
71528SOL     OW16415   2.189  12.976  12.017
71528SOL    HW116416   2.108  12.956  12.064
71528SOL    HW216417   2.251  12.909  12.046
71529SOL     OW16418   5.786  10.169  14.055
71529SOL    HW116419   5.802  10.228  14.129
71529SOL    HW216420   5.751  10.090  14.094
71530SOL     OW16421  13.290   7.323   8.987
71530SOL    HW116422  13.228   7.394   8.969
71530SOL    HW216423  13.337   7.353   9.065
71531SOL     OW16424   3.742   2.226   0.688
71531SOL    HW116425   3.669   2.264   0.736
71531SOL    HW216426   3.818   2.241   0.743
71532SOL     OW16427   3.609   5.026  14.342
71532SOL    HW116428   3.593   4.973  14.263
71532SOL    HW216429   3.680   4.981  14.387
71533SOL     OW16430   6.164   4.714   8.272
71533SOL    HW116431   6.164   4.809   8.282
71533SOL    HW216432   6.119   4.682   8.351
71534SOL     OW16433  13.149   8.582   0.337
71534SOL    HW116434  13.182   8.600   0.249
71534SOL    HW216435  13.171   8.660   0.388
71535SOL     OW16436   8.820   0.527  12.549
71535SOL    HW116437   8.777   0.470  12.613
71535SOL    HW216438   8.762   0.525  12.473
71536SOL     OW16439   3.660   6.829  13.036
71536SOL    HW116440   3.696   6.741  13.029
71536SOL    HW216441   3.724   6.877  13.089
71537SOL     OW16442   4.741   5.509   5.010
71537SOL    HW116443   4.800   5.584   5.015
71537SOL    HW216444   4.695   5.509   5.094
71538SOL     OW16445   0.411  13.140  12.307
71538SOL    HW116446   0.320  13.143  12.278
71538SOL    HW216447   0.458  13.098  12.235
71539SOL     OW16448   5.755   9.219   7.186
71539SOL    HW116449   5.716   9.269   7.115
71539SOL    HW216450   5.797   9.144   7.143
71540SOL     OW16451  12.001   4.819   9.632
71540SOL    HW116452  12.021   4.912   9.645
71540SOL    HW216453  12.087   4.778   9.620
71541SOL     OW16454   6.479  13.137   2.346
71541SOL    HW116455   6.408  13.076   2.364
71541SOL    HW216456   6.526  13.144   2.429
71542SOL     OW16457  10.062  11.614  12.378
71542SOL    HW116458  10.155  11.623  12.357
71542SOL    HW216459  10.022  11.586  12.295
71543SOL     OW16460   7.385  12.668  13.147
71543SOL    HW116461   7.428  12.584  13.160
71543SOL    HW216462   7.301  12.660  13.192
71544SOL     OW16463   9.932   4.291  10.195
71544SOL    HW116464   9.950   4.334  10.279
71544SOL    HW216465   9.878   4.215  10.218
71545SOL     OW16466   9.011   1.524  11.162
71545SOL    HW116467   9.037   1.536  11.071
71545SOL    HW216468   8.980   1.433  11.166
71546SOL     OW16469   6.681   0.356  11.943
71546SOL    HW116470   6.668   0.443  11.983
71546SOL    HW216471   6.593   0.320  11.938
71547SOL     OW16472  13.819   6.754  13.594
71547SOL    HW116473  13.862   6.703  13.526
71547SOL    HW216474  13.789   6.689  13.658
71548SOL     OW16475   0.371  10.897   1.537
71548SOL    HW116476   0.295  10.869   1.588
71548SOL    HW216477   0.369  10.840   1.459
71549SOL     OW16478  10.443   3.599   3.487
71549SOL    HW116479  10.538   3.591   3.481
71549SOL    HW216480  10.418   3.536   3.555
71550SOL     OW16481  10.198   2.837   0.183
71550SOL    HW116482  10.248   2.835   0.101
71550SOL    HW216483  10.106   2.842   0.155
71551SOL     OW16484   9.342   3.776   4.947
71551SOL    HW116485   9.251   3.806   4.938
71551SOL    HW216486   9.368   3.750   4.859
71552SOL     OW16487   5.052   9.548  14.372
71552SOL    HW116488   4.980   9.516  14.425
71552SOL    HW216489   5.130   9.535  14.426
71553SOL     OW16490  13.044  13.584   2.116
71553SOL    HW116491  12.961  13.539   2.132
71553SOL    HW216492  13.066  13.563   2.025
71554SOL     OW16493   8.711  13.932  11.424
71554SOL    HW116494   8.633  13.975  11.459
71554SOL    HW216495   8.759  13.902  11.501
71555SOL     OW16496  11.355   5.895  13.886
71555SOL    HW116497  11.327   5.967  13.942
71555SOL    HW216498  11.445   5.877  13.913
71556SOL     OW16499  10.178  11.753   4.026
71556SOL    HW116500  10.129  11.834   4.041
71556SOL    HW216501  10.203  11.757   3.934
71557SOL     OW16502   4.017  13.469   4.397
71557SOL    HW116503   3.929  13.453   4.429
71557SOL    HW216504   4.050  13.383   4.371
71558SOL     OW16505  11.989  10.315  14.608
71558SOL    HW116506  12.073  10.272  14.595
71558SOL    HW216507  11.957  10.334  14.520
71559SOL     OW16508   4.307   8.450   0.102
71559SOL    HW116509   4.340   8.465   0.190
71559SOL    HW216510   4.364   8.381   0.067
71560SOL     OW16511   1.945  12.941   2.916
71560SOL    HW116512   1.876  12.878   2.899
71560SOL    HW216513   2.023  12.889   2.929
71561SOL     OW16514   2.539   2.671   5.067
71561SOL    HW116515   2.451   2.670   5.105
71561SOL    HW216516   2.527   2.710   4.980
71562SOL     OW16517  10.826  13.726   7.972
71562SOL    HW116518  10.849  13.672   8.048
71562SOL    HW216519  10.792  13.807   8.010
71563SOL     OW16520   5.965  11.751   7.835
71563SOL    HW116521   6.053  11.724   7.808
71563SOL    HW216522   5.966  11.742   7.930
71564SOL     OW16523   6.699   9.456  14.591
71564SOL    HW116524   6.783   9.486  14.556
71564SOL    HW216525   6.723   9.395  14.661
71565SOL     OW16526   3.164  10.943   6.986
71565SOL    HW116527   3.246  10.990   7.000
71565SOL    HW216528   3.180  10.855   7.020
71566SOL     OW16529   0.333  13.572  13.089
71566SOL    HW116530   0.350  13.505  13.156
71566SOL    HW216531   0.252  13.613  13.117
71567SOL     OW16532   9.956  10.150   3.852
71567SOL    HW116533   9.931  10.069   3.894
71567SOL    HW216534   9.877  10.180   3.808
71568SOL     OW16535   6.360   4.880  12.875
71568SOL    HW116536   6.412   4.958  12.893
71568SOL    HW216537   6.399   4.812  12.931
71569SOL     OW16538   8.118   3.707   0.828
71569SOL    HW116539   8.120   3.716   0.732
71569SOL    HW216540   8.192   3.649   0.847
71570SOL     OW16541  12.790   8.619   8.401
71570SOL    HW116542  12.858   8.630   8.333
71570SOL    HW216543  12.787   8.703   8.446
71571SOL     OW16544   8.229   3.735  14.450
71571SOL    HW116545   8.147   3.785  14.445
71571SOL    HW216546   8.296   3.794  14.416
71572SOL     OW16547  14.293  14.404   4.613
71572SOL    HW116548  14.277  14.310   4.613
71572SOL    HW216549  14.206  14.443   4.602
71573SOL     OW16550   4.729   8.539   6.897
71573SOL    HW116551   4.710   8.571   6.985
71573SOL    HW216552   4.823   8.552   6.887
71574SOL     OW16553  13.555   7.739   1.283
71574SOL    HW116554  13.504   7.661   1.304
71574SOL    HW216555  13.538   7.798   1.357
71575SOL     OW16556   2.708  13.103  13.839
71575SOL    HW116557   2.794  13.064  13.852
71575SOL    HW216558   2.726  13.186  13.795
71576SOL     OW16559  13.025   5.190   0.118
71576SOL    HW116560  13.008   5.276   0.079
71576SOL    HW216561  13.002   5.201   0.211
71577SOL     OW16562  13.820  12.843   6.946
71577SOL    HW116563  13.853  12.871   6.860
71577SOL    HW216564  13.854  12.908   7.007
71578SOL     OW16565   5.187  11.611   5.250
71578SOL    HW116566   5.112  11.669   5.260
71578SOL    HW216567   5.247  11.635   5.321
71579SOL     OW16568  13.868  13.127   5.763
71579SOL    HW116569  13.945  13.158   5.811
71579SOL    HW216570  13.902  13.060   5.704
71580SOL     OW16571  11.353   3.142  10.965
71580SOL    HW116572  11.422   3.076  10.974
71580SOL    HW216573  11.304   3.116  10.888
71581SOL     OW16574   8.007  10.638   3.393
71581SOL    HW116575   7.997  10.544   3.382
71581SOL    HW216576   8.100  10.655   3.379
71582SOL     OW16577   1.840   0.681   6.915
71582SOL    HW116578   1.824   0.773   6.893
71582SOL    HW216579   1.754   0.640   6.910
71583SOL     OW16580   9.956   9.789   7.689
71583SOL    HW116581   9.992   9.750   7.768
71583SOL    HW216582   9.863   9.800   7.707
71584SOL     OW16583  12.241   7.107   7.048
71584SOL    HW116584  12.277   7.020   7.031
71584SOL    HW216585  12.319   7.161   7.064
71585SOL     OW16586   7.385   2.369   0.605
71585SOL    HW116587   7.414   2.331   0.688
71585SOL    HW216588   7.332   2.300   0.565
71586SOL     OW16589   7.103   9.508   8.091
71586SOL    HW116590   7.039   9.454   8.138
71586SOL    HW216591   7.126   9.578   8.152
71587SOL     OW16592  12.580   3.454  10.226
71587SOL    HW116593  12.517   3.521  10.200
71587SOL    HW216594  12.591   3.401  10.147
71588SOL     OW16595  13.785   3.426   2.430
71588SOL    HW116596  13.782   3.366   2.355
71588SOL    HW216597  13.769   3.512   2.392
71589SOL     OW16598   4.685  14.434   0.855
71589SOL    HW116599   4.749  14.423   0.925
71589SOL    HW216600   4.609  14.473   0.898
71590SOL     OW16601   1.904   3.589  12.213
71590SOL    HW116602   1.951   3.587  12.129
71590SOL    HW216603   1.841   3.517  12.206
71591SOL     OW16604   1.354   4.116   8.729
71591SOL    HW116605   1.407   4.073   8.662
71591SOL    HW216606   1.327   4.046   8.787
71592SOL     OW16607  11.887   7.571   7.889
71592SOL    HW116608  11.911   7.543   7.800
71592SOL    HW216609  11.876   7.490   7.938
71593SOL     OW16610   3.631  13.377   7.062
71593SOL    HW116611   3.634  13.467   7.031
71593SOL    HW216612   3.626  13.384   7.157
71594SOL     OW16613   2.515  14.755  12.256
71594SOL    HW116614   2.527  14.735  12.349
71594SOL    HW216615   2.515  14.670  12.212
71595SOL     OW16616   8.970  11.756  12.982
71595SOL    HW116617   9.026  11.785  12.910
71595SOL    HW216618   8.974  11.660  12.978
71596SOL     OW16619  13.168   2.401   7.127
71596SOL    HW116620  13.262   2.385   7.138
71596SOL    HW216621  13.164   2.490   7.092
71597SOL     OW16622  12.493   9.298  13.066
71597SOL    HW116623  12.576   9.253  13.076
71597SOL    HW216624  12.506   9.383  13.108
71598SOL     OW16625   4.300  13.171  11.511
71598SOL    HW116626   4.357  13.148  11.583
71598SOL    HW216627   4.268  13.259  11.533
71599SOL     OW16628   2.145   3.726   8.285
71599SOL    HW116629   2.199   3.791   8.328
71599SOL    HW216630   2.056   3.761   8.289
71600SOL     OW16631  11.692   1.006   2.519
71600SOL    HW116632  11.735   1.068   2.577
71600SOL    HW216633  11.716   0.920   2.554
71601SOL     OW16634   4.023   3.082   2.163
71601SOL    HW116635   4.017   3.164   2.113
71601SOL    HW216636   4.010   3.014   2.098
71602SOL     OW16637  10.625  13.330   0.999
71602SOL    HW116638  10.660  13.336   0.910
71602SOL    HW216639  10.673  13.258   1.039
71603SOL     OW16640  11.026   7.153  14.658
71603SOL    HW116641  11.010   7.174  14.750
71603SOL    HW216642  11.121   7.143  14.652
71604SOL     OW16643   9.908   4.692  10.968
71604SOL    HW116644   9.962   4.690  10.890
71604SOL    HW216645   9.878   4.601  10.979
71605SOL     OW16646   2.579  10.453   7.500
71605SOL    HW116647   2.654  10.489   7.453
71605SOL    HW216648   2.584  10.358   7.484
71606SOL     OW16649  12.262   5.616   9.817
71606SOL    HW116650  12.348   5.628   9.778
71606SOL    HW216651  12.201   5.620   9.743
71607SOL     OW16652   3.611  10.885   1.489
71607SOL    HW116653   3.538  10.916   1.436
71607SOL    HW216654   3.687  10.895   1.433
71608SOL     OW16655   0.177  14.095  10.547
71608SOL    HW116656   0.210  14.081  10.458
71608SOL    HW216657   0.256  14.103  10.601
71609SOL     OW16658   4.161   7.074  11.101
71609SOL    HW116659   4.247   7.092  11.063
71609SOL    HW216660   4.104   7.140  11.064
71610SOL     OW16661   9.746  10.990   1.126
71610SOL    HW116662   9.807  11.064   1.120
71610SOL    HW216663   9.793  10.924   1.177
71611SOL     OW16664   6.719   7.985   9.971
71611SOL    HW116665   6.728   8.079   9.954
71611SOL    HW216666   6.663   7.953   9.900
71612SOL     OW16667   1.115   4.134  12.266
71612SOL    HW116668   1.158   4.062  12.312
71612SOL    HW216669   1.182   4.167  12.206
71613SOL     OW16670  14.429  14.780   4.014
71613SOL    HW116671  14.498  14.826   4.060
71613SOL    HW216672  14.349  14.802   4.062
71614SOL     OW16673  14.839  12.078  12.324
71614SOL    HW116674  14.825  11.983  12.318
71614SOL    HW216675   0.055  12.087  12.360
71615SOL     OW16676   1.704   2.221  10.679
71615SOL    HW116677   1.755   2.153  10.634
71615SOL    HW216678   1.631   2.173  10.719
71616SOL     OW16679  12.767   3.831   7.101
71616SOL    HW116680  12.712   3.906   7.077
71616SOL    HW216681  12.780   3.784   7.019
71617SOL     OW16682   5.697   6.848   2.706
71617SOL    HW116683   5.663   6.925   2.752
71617SOL    HW216684   5.642   6.776   2.736
71618SOL     OW16685   3.437   2.077  11.489
71618SOL    HW116686   3.516   2.051  11.536
71618SOL    HW216687   3.374   2.101  11.557
71619SOL     OW16688   3.470   5.726   5.142
71619SOL    HW116689   3.561   5.745   5.164
71619SOL    HW216690   3.455   5.638   5.176
71620SOL     OW16691   7.046   8.449   9.556
71620SOL    HW116692   7.084   8.456   9.468
71620SOL    HW216693   7.004   8.533   9.571
71621SOL     OW16694   7.864  13.792   2.728
71621SOL    HW116695   7.775  13.828   2.731
71621SOL    HW216696   7.911  13.851   2.669
71622SOL     OW16697  10.619   4.265   4.800
71622SOL    HW116698  10.623   4.231   4.889
71622SOL    HW216699  10.606   4.359   4.810
71623SOL     OW16700   7.009  13.089  11.024
71623SOL    HW116701   7.101  13.103  11.003
71623SOL    HW216702   6.982  13.170  11.067
71624SOL     OW16703   6.560   1.218   4.129
71624SOL    HW116704   6.628   1.278   4.100
71624SOL    HW216705   6.493   1.274   4.169
71625SOL     OW16706   4.144  10.051  14.090
71625SOL    HW116707   4.094   9.971  14.106
71625SOL    HW216708   4.160  10.051  13.995
71626SOL     OW16709   1.161  12.414  10.450
71626SOL    HW116710   1.108  12.364  10.512
71626SOL    HW216711   1.170  12.356  10.374
71627SOL     OW16712   6.014  12.905  11.179
71627SOL    HW116713   6.014  12.832  11.242
71627SOL    HW216714   6.097  12.950  11.196
71628SOL     OW16715   9.309   2.509   8.453
71628SOL    HW116716   9.266   2.424   8.462
71628SOL    HW216717   9.269   2.563   8.521
71629SOL     OW16718   0.221   1.554   1.947
71629SOL    HW116719   0.207   1.535   1.854
71629SOL    HW216720   0.184   1.642   1.959
71630SOL     OW16721  11.902  14.277   1.980
71630SOL    HW116722  11.901  14.224   1.900
71630SOL    HW216723  11.946  14.222   2.045
71631SOL     OW16724   4.437   7.104   9.851
71631SOL    HW116725   4.436   7.199   9.866
71631SOL    HW216726   4.494   7.070   9.921
71632SOL     OW16727  12.243   6.005   5.960
71632SOL    HW116728  12.236   6.078   5.898
71632SOL    HW216729  12.153   5.991   5.990
71633SOL     OW16730  10.227   8.279  14.139
71633SOL    HW116731  10.157   8.310  14.081
71633SOL    HW216732  10.302   8.334  14.117
71634SOL     OW16733   9.821   7.346   1.406
71634SOL    HW116734   9.863   7.378   1.486
71634SOL    HW216735   9.870   7.267   1.383
71635SOL     OW16736   5.062   0.370   7.110
71635SOL    HW116737   5.152   0.338   7.119
71635SOL    HW216738   5.008   0.303   7.152
71636SOL     OW16739   2.695   3.166   8.536
71636SOL    HW116740   2.645   3.084   8.534
71636SOL    HW216741   2.633   3.230   8.571
71637SOL     OW16742   2.310   1.795   5.102
71637SOL    HW116743   2.363   1.748   5.038
71637SOL    HW216744   2.324   1.749   5.185
71638SOL     OW16745  11.691   3.390   2.308
71638SOL    HW116746  11.754   3.462   2.315
71638SOL    HW216747  11.699   3.342   2.390
71639SOL     OW16748  13.447   2.209  14.222
71639SOL    HW116749  13.376   2.184  14.281
71639SOL    HW216750  13.465   2.129  14.172
71640SOL     OW16751   2.956   0.667   6.780
71640SOL    HW116752   2.962   0.762   6.792
71640SOL    HW216753   2.980   0.653   6.689
71641SOL     OW16754  14.068   3.819   1.661
71641SOL    HW116755  14.163   3.819   1.646
71641SOL    HW216756  14.031   3.787   1.578
71642SOL     OW16757  13.217   2.343   4.877
71642SOL    HW116758  13.193   2.275   4.940
71642SOL    HW216759  13.149   2.410   4.887
71643SOL     OW16760   1.726  10.678   2.379
71643SOL    HW116761   1.649  10.735   2.381
71643SOL    HW216762   1.691  10.589   2.383
71644SOL     OW16763   1.035   8.279   2.010
71644SOL    HW116764   1.031   8.352   1.949
71644SOL    HW216765   0.968   8.299   2.076
71645SOL     OW16766   3.632  13.939   1.255
71645SOL    HW116767   3.621  13.879   1.328
71645SOL    HW216768   3.607  14.025   1.289
71646SOL     OW16769   6.822   1.954   8.877
71646SOL    HW116770   6.770   1.875   8.864
71646SOL    HW216771   6.830   1.992   8.789
71647SOL     OW16772   4.488  13.739   9.436
71647SOL    HW116773   4.494  13.834   9.423
71647SOL    HW216774   4.427  13.710   9.368
71648SOL     OW16775  13.651   6.823  11.538
71648SOL    HW116776  13.581   6.765  11.510
71648SOL    HW216777  13.679   6.869  11.459
71649SOL     OW16778  14.051   4.487   9.246
71649SOL    HW116779  14.025   4.415   9.189
71649SOL    HW216780  14.141   4.508   9.220
71650SOL     OW16781   7.537   2.777   4.636
71650SOL    HW116782   7.609   2.771   4.699
71650SOL    HW216783   7.570   2.832   4.566
71651SOL     OW16784  10.578   5.142   5.316
71651SOL    HW116785  10.512   5.075   5.333
71651SOL    HW216786  10.652   5.117   5.371
71652SOL     OW16787   0.746  11.585  11.649
71652SOL    HW116788   0.761  11.668  11.694
71652SOL    HW216789   0.751  11.519  11.718
71653SOL     OW16790   0.946   6.422   2.998
71653SOL    HW116791   0.914   6.476   2.926
71653SOL    HW216792   1.007   6.478   3.046
71654SOL     OW16793   1.365   3.009  10.322
71654SOL    HW116794   1.328   2.967  10.400
71654SOL    HW216795   1.459   3.013  10.340
71655SOL     OW16796  11.439  11.240   2.035
71655SOL    HW116797  11.427  11.182   1.960
71655SOL    HW216798  11.515  11.205   2.081
71656SOL     OW16799   8.630   4.265   5.880
71656SOL    HW116800   8.662   4.293   5.795
71656SOL    HW216801   8.691   4.305   5.943
71657SOL     OW16802  12.361  10.463   6.500
71657SOL    HW116803  12.312  10.545   6.496
71657SOL    HW216804  12.345  10.429   6.588
71658SOL     OW16805  10.232   8.906   6.958
71658SOL    HW116806  10.198   8.937   6.873
71658SOL    HW216807  10.256   8.815   6.943
71659SOL     OW16808   2.156  13.773   2.603
71659SOL    HW116809   2.154  13.713   2.677
71659SOL    HW216810   2.220  13.840   2.627
71660SOL     OW16811   8.662  14.141   5.647
71660SOL    HW116812   8.705  14.214   5.603
71660SOL    HW216813   8.727  14.110   5.710
71661SOL     OW16814   0.143   4.826   8.526
71661SOL    HW116815   0.084   4.788   8.591
71661SOL    HW216816   0.163   4.753   8.467
71662SOL     OW16817   4.740   2.368   4.745
71662SOL    HW116818   4.652   2.402   4.763
71662SOL    HW216819   4.742   2.358   4.650
71663SOL     OW16820   5.994  12.173   7.866
71663SOL    HW116821   6.041  12.097   7.901
71663SOL    HW216822   5.939  12.202   7.938
71664SOL     OW16823   1.080   2.458   3.993
71664SOL    HW116824   1.002   2.408   3.973
71664SOL    HW216825   1.047   2.538   4.033
71665SOL     OW16826   3.880  12.929   6.547
71665SOL    HW116827   3.966  12.963   6.573
71665SOL    HW216828   3.841  12.896   6.627
71666SOL     OW16829   1.505   7.445  12.958
71666SOL    HW116830   1.527   7.378  13.023
71666SOL    HW216831   1.535   7.527  12.997
71667SOL     OW16832   2.994  14.532   9.931
71667SOL    HW116833   3.003  14.610   9.985
71667SOL    HW216834   2.980  14.565   9.842
71668SOL     OW16835  14.575   9.181   9.868
71668SOL    HW116836  14.495   9.130   9.879
71668SOL    HW216837  14.620   9.140   9.794
71669SOL     OW16838   0.226   4.950  10.156
71669SOL    HW116839   0.222   4.868  10.106
71669SOL    HW216840   0.140   4.956  10.198
71670SOL     OW16841  12.961   2.781   8.458
71670SOL    HW116842  12.982   2.702   8.408
71670SOL    HW216843  13.046   2.817   8.483
71671SOL     OW16844   8.271   1.375   4.796
71671SOL    HW116845   8.206   1.304   4.796
71671SOL    HW216846   8.225   1.449   4.836
71672SOL     OW16847   8.957  13.645   9.441
71672SOL    HW116848   8.924  13.657   9.530
71672SOL    HW216849   9.049  13.624   9.452
71673SOL     OW16850   7.872   2.561   9.245
71673SOL    HW116851   7.860   2.530   9.335
71673SOL    HW216852   7.805   2.627   9.233
71674SOL     OW16853   7.015   4.925   4.415
71674SOL    HW116854   6.945   4.958   4.473
71674SOL    HW216855   7.059   5.004   4.385
71675SOL     OW16856   3.924  11.185   8.436
71675SOL    HW116857   3.850  11.134   8.470
71675SOL    HW216858   3.917  11.178   8.341
71676SOL     OW16859  14.792   7.219   9.994
71676SOL    HW116860  14.734   7.169  10.052
71676SOL    HW216861  14.862   7.250  10.050
71677SOL     OW16862   6.169   8.417  14.738
71677SOL    HW116863   6.152   8.374  14.654
71677SOL    HW216864   6.237   8.363  14.779
71678SOL     OW16865  14.203   0.749   3.792
71678SOL    HW116866  14.259   0.673   3.779
71678SOL    HW216867  14.254   0.823   3.757
71679SOL     OW16868   3.504   2.652   0.083
71679SOL    HW116869   3.513   2.669   0.176
71679SOL    HW216870   3.520   2.558   0.074
71680SOL     OW16871  10.942  11.683   0.510
71680SOL    HW116872  10.921  11.589   0.506
71680SOL    HW216873  10.879  11.718   0.573
71681SOL     OW16874   1.281   5.776  12.786
71681SOL    HW116875   1.258   5.868  12.773
71681SOL    HW216876   1.327   5.775  12.870
71682SOL     OW16877  10.705   4.023   6.785
71682SOL    HW116878  10.658   4.028   6.868
71682SOL    HW216879  10.653   4.077   6.725
71683SOL     OW16880  10.088   6.141   1.083
71683SOL    HW116881  10.158   6.156   1.019
71683SOL    HW216882  10.010   6.181   1.044
71684SOL     OW16883  14.402   7.256   3.468
71684SOL    HW116884  14.461   7.203   3.415
71684SOL    HW216885  14.357   7.312   3.405
71685SOL     OW16886  13.130  13.197  13.311
71685SOL    HW116887  13.110  13.168  13.222
71685SOL    HW216888  13.226  13.199  13.316
71686SOL     OW16889   5.185   8.521   2.214
71686SOL    HW116890   5.131   8.582   2.162
71686SOL    HW216891   5.182   8.439   2.165
71687SOL     OW16892  14.793   3.237  10.045
71687SOL    HW116893   0.003   3.283  10.026
71687SOL    HW216894  14.759   3.281  10.123
71688SOL     OW16895  13.751  12.871   6.208
71688SOL    HW116896  13.831  12.819   6.203
71688SOL    HW216897  13.732  12.876   6.301
71689SOL     OW16898   6.285   7.352   6.137
71689SOL    HW116899   6.359   7.398   6.097
71689SOL    HW216900   6.249   7.416   6.199
71690SOL     OW16901   7.641   7.798  11.304
71690SOL    HW116902   7.720   7.745  11.317
71690SOL    HW216903   7.653   7.837  11.217
71691SOL     OW16904   2.134   1.692   3.784
71691SOL    HW116905   2.154   1.782   3.808
71691SOL    HW216906   2.188   1.639   3.842
71692SOL     OW16907  12.400   3.809   7.370
71692SOL    HW116908  12.323   3.766   7.333
71692SOL    HW216909  12.376   3.901   7.375
71693SOL     OW16910  12.694   3.730  11.091
71693SOL    HW116911  12.784   3.711  11.063
71693SOL    HW216912  12.704   3.778  11.173
71694SOL     OW16913   4.247  14.621   8.789
71694SOL    HW116914   4.213  14.542   8.745
71694SOL    HW216915   4.332  14.637   8.746
71695SOL     OW16916   6.073  14.530   2.304
71695SOL    HW116917   6.050  14.483   2.223
71695SOL    HW216918   6.101  14.462   2.365
71696SOL     OW16919   4.486   7.137  10.547
71696SOL    HW116920   4.515   7.093  10.627
71696SOL    HW216921   4.427   7.206  10.578
71697SOL     OW16922   0.338   1.068  11.470
71697SOL    HW116923   0.357   1.050  11.377
71697SOL    HW216924   0.347   1.163  11.477
71698SOL     OW16925  13.883   9.651   0.547
71698SOL    HW116926  13.951   9.703   0.506
71698SOL    HW216927  13.915   9.635   0.636
71699SOL     OW16928  10.938   4.641   2.892
71699SOL    HW116929  10.860   4.594   2.923
71699SOL    HW216930  11.010   4.604   2.944
71700SOL     OW16931   4.164  10.352  12.281
71700SOL    HW116932   4.097  10.313  12.225
71700SOL    HW216933   4.234  10.287  12.284
71701SOL     OW16934  11.978   0.900  12.467
71701SOL    HW116935  12.026   0.818  12.460
71701SOL    HW216936  11.891   0.882  12.431
71702SOL     OW16937  13.337   2.594   2.136
71702SOL    HW116938  13.344   2.615   2.229
71702SOL    HW216939  13.311   2.502   2.133
71703SOL     OW16940   5.829  11.250  11.575
71703SOL    HW116941   5.897  11.183  11.568
71703SOL    HW216942   5.861  11.309  11.644
71704SOL     OW16943   6.180   7.619  13.040
71704SOL    HW116944   6.244   7.586  13.103
71704SOL    HW216945   6.230   7.681  12.986
71705SOL     OW16946  13.971   8.240   4.815
71705SOL    HW116947  13.985   8.263   4.723
71705SOL    HW216948  14.056   8.208   4.845
71706SOL     OW16949   0.786   1.494   0.984
71706SOL    HW116950   0.875   1.505   0.950
71706SOL    HW216951   0.789   1.411   1.031
71707SOL     OW16952  13.244  13.862  11.817
71707SOL    HW116953  13.306  13.902  11.878
71707SOL    HW216954  13.274  13.771  11.809
71708SOL     OW16955   1.403   3.192   6.846
71708SOL    HW116956   1.312   3.165   6.853
71708SOL    HW216957   1.452   3.111   6.835
71709SOL     OW16958   2.768  13.696   2.576
71709SOL    HW116959   2.703  13.646   2.624
71709SOL    HW216960   2.723  13.776   2.551
71710SOL     OW16961   7.583  13.402   9.580
71710SOL    HW116962   7.599  13.488   9.542
71710SOL    HW216963   7.563  13.419   9.672
71711SOL     OW16964   0.043   3.473   0.073
71711SOL    HW116965   0.096   3.536   0.122
71711SOL    HW216966   0.083   3.388   0.092
71712SOL     OW16967  14.772   6.544   9.754
71712SOL    HW116968  14.706   6.505   9.697
71712SOL    HW216969  14.834   6.586   9.694
71713SOL     OW16970  13.538  11.667  12.107
71713SOL    HW116971  13.445  11.682  12.095
71713SOL    HW216972  13.581  11.728  12.047
71714SOL     OW16973   9.172   2.358  10.396
71714SOL    HW116974   9.165   2.294  10.325
71714SOL    HW216975   9.088   2.352  10.442
71715SOL     OW16976   3.321   2.725   0.472
71715SOL    HW116977   3.274   2.642   0.477
71715SOL    HW216978   3.389   2.709   0.406
71716SOL     OW16979   5.763  14.818   1.323
71716SOL    HW116980   5.804   0.028   1.350
71716SOL    HW216981   5.744  14.830   1.230
71717SOL     OW16982  10.817   4.210   3.325
71717SOL    HW116983  10.763   4.187   3.249
71717SOL    HW216984  10.901   4.237   3.288
71718SOL     OW16985   2.035   3.734  13.145
71718SOL    HW116986   1.995   3.657  13.105
71718SOL    HW216987   1.966   3.771  13.200
71719SOL     OW16988   3.661  13.108   9.360
71719SOL    HW116989   3.620  13.167   9.297
71719SOL    HW216990   3.649  13.021   9.324
71720SOL     OW16991   4.259   2.330   2.573
71720SOL    HW116992   4.251   2.379   2.491
71720SOL    HW216993   4.256   2.397   2.641
71721SOL     OW16994   4.701   9.420   4.024
71721SOL    HW116995   4.637   9.428   3.953
71721SOL    HW216996   4.778   9.381   3.982
71722SOL     OW16997   9.841   9.137   6.558
71722SOL    HW116998   9.936   9.148   6.565
71722SOL    HW216999   9.829   9.078   6.485
71723SOL     OW17000   9.517   8.239   8.104
71723SOL    HW117001   9.455   8.300   8.063
71723SOL    HW217002   9.603   8.279   8.089
71724SOL     OW17003   1.843  13.723   8.908
71724SOL    HW117004   1.934  13.753   8.905
71724SOL    HW217005   1.835  13.680   8.993
71725SOL     OW17006  11.060   5.287   5.702
71725SOL    HW117007  11.126   5.353   5.724
71725SOL    HW217008  10.990   5.336   5.658
71726SOL     OW17009   3.226   8.946   6.502
71726SOL    HW117010   3.136   8.969   6.482
71726SOL    HW217011   3.220   8.859   6.541
71727SOL     OW17012   7.388   6.935   3.539
71727SOL    HW117013   7.398   6.848   3.578
71727SOL    HW217014   7.402   6.921   3.445
71728SOL     OW17015   9.472  11.437  14.246
71728SOL    HW117016   9.443  11.346  14.237
71728SOL    HW217017   9.391  11.488  14.251
71729SOL     OW17018   5.204  13.373   5.012
71729SOL    HW117019   5.191  13.345   4.921
71729SOL    HW217020   5.118  13.363   5.052
71730SOL     OW17021   7.297   7.659  10.490
71730SOL    HW117022   7.383   7.699  10.476
71730SOL    HW217023   7.294   7.642  10.584
71731SOL     OW17024  12.555   0.445   5.527
71731SOL    HW117025  12.511   0.525   5.497
71731SOL    HW217026  12.595   0.469   5.610
71732SOL     OW17027   4.521  14.753  13.603
71732SOL    HW117028   4.527  14.692  13.676
71732SOL    HW217029   4.457  14.713  13.543
71733SOL     OW17030   2.744  14.069  11.458
71733SOL    HW117031   2.801  14.046  11.384
71733SOL    HW217032   2.784  14.148  11.495
71734SOL     OW17033   0.362   4.605  14.830
71734SOL    HW117034   0.376   4.620   0.051
71734SOL    HW217035   0.396   4.517  14.814
71735SOL     OW17036   3.756   0.638   5.409
71735SOL    HW117037   3.846   0.614   5.387
71735SOL    HW217038   3.702   0.567   5.373
71736SOL     OW17039   6.117   3.253   0.385
71736SOL    HW117040   6.195   3.198   0.377
71736SOL    HW217041   6.109   3.294   0.299
71737SOL     OW17042   7.293  10.960   9.278
71737SOL    HW117043   7.325  10.871   9.265
71737SOL    HW217044   7.304  10.976   9.372
71738SOL     OW17045   8.213  11.976  12.115
71738SOL    HW117046   8.139  12.025  12.080
71738SOL    HW217047   8.217  12.002  12.207
71739SOL     OW17048  13.502  12.559   7.007
71739SOL    HW117049  13.515  12.468   7.034
71739SOL    HW217050  13.558  12.610   7.066
71740SOL     OW17051   5.927   1.376  14.816
71740SOL    HW117052   5.927   1.361   0.039
71740SOL    HW217053   5.967   1.462  14.805
71741SOL     OW17054   9.661  11.536  13.865
71741SOL    HW117055   9.625  11.586  13.938
71741SOL    HW217056   9.753  11.562  13.861
71742SOL     OW17057  13.086   8.354  11.213
71742SOL    HW117058  13.102   8.448  11.213
71742SOL    HW217059  13.097   8.328  11.304
71743SOL     OW17060   9.148  14.621   4.003
71743SOL    HW117061   9.116  14.708   3.978
71743SOL    HW217062   9.069  14.568   4.012
71744SOL     OW17063   2.057   6.098   4.435
71744SOL    HW117064   2.092   6.185   4.414
71744SOL    HW217065   2.088   6.042   4.363
71745SOL     OW17066   9.092   6.682   0.173
71745SOL    HW117067   9.037   6.659   0.248
71745SOL    HW217068   9.137   6.762   0.200
71746SOL     OW17069  14.719   8.961   6.164
71746SOL    HW117070  14.773   8.905   6.108
71746SOL    HW217071  14.744   9.051   6.140
71747SOL     OW17072  11.844  10.431   1.003
71747SOL    HW117073  11.802  10.461   1.084
71747SOL    HW217074  11.933  10.464   1.009
71748SOL     OW17075  14.604   7.494   6.107
71748SOL    HW117076  14.620   7.581   6.072
71748SOL    HW217077  14.511   7.493   6.129
71749SOL     OW17078  11.660   4.116  11.583
71749SOL    HW117079  11.611   4.195  11.601
71749SOL    HW217080  11.689   4.085  11.669
71750SOL     OW17081   7.401   8.596  12.465
71750SOL    HW117082   7.457   8.621  12.392
71750SOL    HW217083   7.460   8.558  12.530
71751SOL     OW17084   6.103   3.692   4.404
71751SOL    HW117085   6.128   3.744   4.480
71751SOL    HW217086   6.178   3.635   4.388
71752SOL     OW17087   1.246   7.875   6.480
71752SOL    HW117088   1.266   7.897   6.571
71752SOL    HW217089   1.317   7.916   6.430
71753SOL     OW17090   5.835   6.456   9.222
71753SOL    HW117091   5.871   6.532   9.267
71753SOL    HW217092   5.807   6.397   9.293
71754SOL     OW17093   1.964   5.463  14.366
71754SOL    HW117094   1.944   5.384  14.416
71754SOL    HW217095   1.879   5.494  14.335
71755SOL     OW17096  13.676  14.527  13.833
71755SOL    HW117097  13.660  14.605  13.780
71755SOL    HW217098  13.632  14.545  13.916
71756SOL     OW17099  11.150  13.351   9.080
71756SOL    HW117100  11.231  13.339   9.128
71756SOL    HW217101  11.111  13.264   9.075
71757SOL     OW17102   7.103  12.947   8.340
71757SOL    HW117103   7.033  12.971   8.401
71757SOL    HW217104   7.058  12.905   8.267
71758SOL     OW17105  14.513  11.608   6.081
71758SOL    HW117106  14.445  11.579   6.142
71758SOL    HW217107  14.534  11.530   6.030
71759SOL     OW17108  12.509   0.668  11.956
71759SOL    HW117109  12.444   0.736  11.940
71759SOL    HW217110  12.506   0.613  11.877
71760SOL     OW17111   8.061   9.241   2.178
71760SOL    HW117112   8.044   9.321   2.227
71760SOL    HW217113   8.117   9.189   2.236
71761SOL     OW17114   9.909   3.947   1.041
71761SOL    HW117115   9.987   3.902   1.073
71761SOL    HW217116   9.915   3.940   0.946
71762SOL     OW17117   6.901  11.569  13.529
71762SOL    HW117118   6.950  11.498  13.571
71762SOL    HW217119   6.890  11.541  13.439
71763SOL     OW17120   6.002  10.210   9.039
71763SOL    HW117121   5.975  10.124   9.007
71763SOL    HW217122   6.096  10.214   9.020
71764SOL     OW17123   3.880   1.113  13.413
71764SOL    HW117124   3.822   1.081  13.482
71764SOL    HW217125   3.826   1.112  13.334
71765SOL     OW17126   5.026   1.156  11.320
71765SOL    HW117127   4.943   1.108  11.328
71765SOL    HW217128   5.037   1.200  11.404
71766SOL     OW17129   3.747  14.027  14.679
71766SOL    HW117130   3.684  13.988  14.739
71766SOL    HW217131   3.713  14.007  14.592
71767SOL     OW17132   4.128   0.484   7.956
71767SOL    HW117133   4.081   0.405   7.930
71767SOL    HW217134   4.220   0.458   7.953
71768SOL     OW17135   1.327   8.962   5.879
71768SOL    HW117136   1.339   9.032   5.815
71768SOL    HW217137   1.304   9.007   5.960
71769SOL     OW17138  11.320   0.767  14.369
71769SOL    HW117139  11.276   0.832  14.424
71769SOL    HW217140  11.413   0.775  14.392
71770SOL     OW17141  12.558  12.859  11.694
71770SOL    HW117142  12.521  12.906  11.769
71770SOL    HW217143  12.640  12.822  11.726
71771SOL     OW17144   3.683   6.175  13.736
71771SOL    HW117145   3.599   6.153  13.695
71771SOL    HW217146   3.664   6.178  13.830
71772SOL     OW17147   5.445  10.156   7.714
71772SOL    HW117148   5.537  10.130   7.719
71772SOL    HW217149   5.430  10.169   7.620
71773SOL     OW17150   3.813   7.367   8.251
71773SOL    HW117151   3.785   7.409   8.332
71773SOL    HW217152   3.847   7.281   8.279
71774SOL     OW17153   9.278  14.202   1.550
71774SOL    HW117154   9.308  14.276   1.604
71774SOL    HW217155   9.335  14.130   1.575
71775SOL     OW17156   4.559   1.471   5.117
71775SOL    HW117157   4.599   1.486   5.203
71775SOL    HW217158   4.634   1.459   5.058
71776SOL     OW17159   5.117  14.705   5.547
71776SOL    HW117160   5.124  14.800   5.539
71776SOL    HW217161   5.040  14.682   5.495
71777SOL     OW17162   9.619   4.491   7.538
71777SOL    HW117163   9.540   4.544   7.550
71777SOL    HW217164   9.690   4.554   7.533
71778SOL     OW17165  14.349   0.488  11.835
71778SOL    HW117166  14.287   0.520  11.900
71778SOL    HW217167  14.296   0.469  11.758
71779SOL     OW17168  13.437   7.284  14.294
71779SOL    HW117169  13.473   7.272  14.382
71779SOL    HW217170  13.498   7.344  14.251
71780SOL     OW17171  13.982   8.478   9.345
71780SOL    HW117172  13.964   8.567   9.377
71780SOL    HW217173  13.984   8.487   9.250
71781SOL     OW17174  14.610   4.204  12.200
71781SOL    HW117175  14.637   4.117  12.231
71781SOL    HW217176  14.567   4.244  12.276
71782SOL     OW17177   6.465   6.999   1.185
71782SOL    HW117178   6.478   7.085   1.144
71782SOL    HW217179   6.379   7.005   1.227
71783SOL     OW17180   0.043   9.986  10.157
71783SOL    HW117181   0.050   9.941  10.073
71783SOL    HW217182   0.030  10.078  10.133
71784SOL     OW17183   6.263   7.999  12.514
71784SOL    HW117184   6.319   8.077  12.513
71784SOL    HW217185   6.183   8.027  12.558
71785SOL     OW17186   2.909   2.783  10.359
71785SOL    HW117187   2.930   2.780  10.452
71785SOL    HW217188   2.993   2.765  10.315
71786SOL     OW17189   8.833   1.710  12.417
71786SOL    HW117190   8.816   1.622  12.382
71786SOL    HW217191   8.834   1.767  12.340
71787SOL     OW17192  10.287   0.423   7.399
71787SOL    HW117193  10.341   0.489   7.443
71787SOL    HW217194  10.246   0.471   7.326
71788SOL     OW17195  12.795  10.959  13.630
71788SOL    HW117196  12.884  10.990  13.648
71788SOL    HW217197  12.742  10.998  13.700
71789SOL     OW17198   9.044   2.984   2.430
71789SOL    HW117199   8.949   2.977   2.443
71789SOL    HW217200   9.068   3.065   2.474
71790SOL     OW17201  13.491  14.754  14.175
71790SOL    HW117202  13.544  14.816  14.124
71790SOL    HW217203  13.522  14.668  14.146
71791SOL     OW17204   1.962   9.491  13.154
71791SOL    HW117205   2.046   9.491  13.199
71791SOL    HW217206   1.897   9.502  13.223
71792SOL     OW17207   0.670  11.442   0.425
71792SOL    HW117208   0.655  11.385   0.500
71792SOL    HW217209   0.598  11.505   0.428
71793SOL     OW17210   2.889  14.786   4.313
71793SOL    HW117211   2.923  14.737   4.238
71793SOL    HW217212   2.953  14.771   4.383
71794SOL     OW17213   4.701   2.719   1.773
71794SOL    HW117214   4.750   2.654   1.824
71794SOL    HW217215   4.769   2.769   1.728
71795SOL     OW17216  12.650   7.375  14.500
71795SOL    HW117217  12.681   7.324  14.426
71795SOL    HW217218  12.698   7.340  14.575
71796SOL     OW17219   8.111   4.083  11.381
71796SOL    HW117220   8.029   4.035  11.368
71796SOL    HW217221   8.084   4.172  11.400
71797SOL     OW17222  10.954   7.607  13.420
71797SOL    HW117223  10.869   7.573  13.392
71797SOL    HW217224  10.956   7.697  13.389
71798SOL     OW17225   3.220  14.735  12.172
71798SOL    HW117226   3.271  14.816  12.174
71798SOL    HW217227   3.213  14.708  12.263
71799SOL     OW17228   2.753   9.846   7.450
71799SOL    HW117229   2.659   9.842   7.469
71799SOL    HW217230   2.759   9.902   7.373
71800SOL     OW17231   8.226   0.357   9.570
71800SOL    HW117232   8.186   0.408   9.641
71800SOL    HW217233   8.175   0.380   9.493
71801SOL     OW17234   2.458  14.662   2.327
71801SOL    HW117235   2.404  14.672   2.248
71801SOL    HW217236   2.476  14.752   2.355
71802SOL     OW17237   2.208   1.632  11.352
71802SOL    HW117238   2.182   1.722  11.368
71802SOL    HW217239   2.274   1.638  11.283
71803SOL     OW17240   0.213   6.817   8.496
71803SOL    HW117241   0.134   6.786   8.452
71803SOL    HW217242   0.246   6.741   8.544
71804SOL     OW17243   9.247   8.122   7.849
71804SOL    HW117244   9.286   8.209   7.851
71804SOL    HW217245   9.218   8.107   7.939
71805SOL     OW17246   8.939  13.607   9.176
71805SOL    HW117247   8.906  13.517   9.176
71805SOL    HW217248   8.924  13.638   9.265
71806SOL     OW17249   9.095   0.301   6.214
71806SOL    HW117250   9.111   0.229   6.275
71806SOL    HW217251   9.000   0.301   6.200
71807SOL     OW17252   1.957   3.615   7.837
71807SOL    HW117253   1.898   3.636   7.909
71807SOL    HW217254   1.901   3.619   7.759
71808SOL     OW17255   8.207  11.234   6.907
71808SOL    HW117256   8.196  11.329   6.899
71808SOL    HW217257   8.302  11.222   6.917
71809SOL     OW17258   4.500   5.975  10.728
71809SOL    HW117259   4.439   5.936  10.665
71809SOL    HW217260   4.465   5.951  10.814
71810SOL     OW17261  14.099   5.614   1.268
71810SOL    HW117262  14.083   5.522   1.247
71810SOL    HW217263  14.048   5.662   1.203
71811SOL     OW17264   3.737   9.667   1.185
71811SOL    HW117265   3.830   9.656   1.203
71811SOL    HW217266   3.728   9.758   1.159
71812SOL     OW17267   6.485   2.250  11.500
71812SOL    HW117268   6.541   2.183  11.538
71812SOL    HW217269   6.516   2.259  11.409
71813SOL     OW17270   9.357  11.841   9.737
71813SOL    HW117271   9.278  11.788   9.745
71813SOL    HW217272   9.342  11.916   9.794
71814SOL     OW17273  10.312   6.039  12.196
71814SOL    HW117274  10.342   6.024  12.106
71814SOL    HW217275  10.217   6.029  12.191
71815SOL     OW17276   7.467   6.344  11.332
71815SOL    HW117277   7.450   6.252  11.311
71815SOL    HW217278   7.523   6.375  11.261
71816SOL     OW17279   8.852   1.081   7.687
71816SOL    HW117280   8.854   1.045   7.775
71816SOL    HW217281   8.820   1.009   7.632
71817SOL     OW17282  11.527  14.807   4.906
71817SOL    HW117283  11.517   0.016   4.857
71817SOL    HW217284  11.568  14.746   4.844
71818SOL     OW17285   2.301  13.016   8.994
71818SOL    HW117286   2.292  13.111   8.982
71818SOL    HW217287   2.355  12.987   8.920
71819SOL     OW17288   1.307   2.765   9.607
71819SOL    HW117289   1.248   2.834   9.577
71819SOL    HW217290   1.250   2.692   9.628
71820SOL     OW17291   7.551   5.476   2.039
71820SOL    HW117292   7.569   5.551   1.981
71820SOL    HW217293   7.612   5.487   2.111
71821SOL     OW17294   1.791  10.799   6.308
71821SOL    HW117295   1.799  10.841   6.222
71821SOL    HW217296   1.787  10.871   6.370
71822SOL     OW17297   8.302   8.684   9.182
71822SOL    HW117298   8.301   8.599   9.137
71822SOL    HW217299   8.334   8.665   9.270
71823SOL     OW17300   5.127   1.815  12.576
71823SOL    HW117301   5.112   1.910  12.578
71823SOL    HW217302   5.201   1.801  12.635
71824SOL     OW17303   8.350   0.096  11.476
71824SOL    HW117304   8.421   0.041  11.509
71824SOL    HW217305   8.392   0.178  11.451
71825SOL     OW17306  11.743   2.480   6.985
71825SOL    HW117307  11.669   2.441   7.032
71825SOL    HW217308  11.703   2.524   6.911
71826SOL     OW17309   3.840   8.572   2.069
71826SOL    HW117310   3.791   8.558   1.988
71826SOL    HW217311   3.885   8.489   2.085
71827SOL     OW17312   6.908   7.638   6.122
71827SOL    HW117313   6.846   7.677   6.060
71827SOL    HW217314   6.872   7.658   6.208
71828SOL     OW17315   3.991  14.824  12.256
71828SOL    HW117316   4.040  14.783  12.328
71828SOL    HW217317   3.973  14.753  12.195
71829SOL     OW17318  10.948   5.748   5.701
71829SOL    HW117319  11.036   5.748   5.737
71829SOL    HW217320  10.958   5.716   5.612
71830SOL     OW17321  13.420   7.815   5.921
71830SOL    HW117322  13.492   7.781   5.974
71830SOL    HW217323  13.342   7.771   5.955
71831SOL     OW17324   3.708  12.175   7.929
71831SOL    HW117325   3.687  12.254   7.979
71831SOL    HW217326   3.740  12.208   7.845
71832SOL     OW17327   7.383   7.704   4.709
71832SOL    HW117328   7.297   7.708   4.749
71832SOL    HW217329   7.374   7.639   4.639
71833SOL     OW17330  14.063  10.575   0.685
71833SOL    HW117331  14.133  10.636   0.664
71833SOL    HW217332  14.036  10.538   0.600
71834SOL     OW17333   9.160   1.125  10.032
71834SOL    HW117334   9.179   1.039  10.069
71834SOL    HW217335   9.180   1.186  10.104
71835SOL     OW17336   6.333   1.303   3.197
71835SOL    HW117337   6.356   1.246   3.123
71835SOL    HW217338   6.238   1.297   3.203
71836SOL     OW17339   0.073  13.249   5.546
71836SOL    HW117340   0.078  13.158   5.517
71836SOL    HW217341   0.024  13.246   5.628
71837SOL     OW17342   9.889   8.227   7.683
71837SOL    HW117343   9.833   8.159   7.722
71837SOL    HW217344   9.962   8.178   7.644
71838SOL     OW17345  13.325   9.254   2.565
71838SOL    HW117346  13.282   9.187   2.620
71838SOL    HW217347  13.312   9.336   2.613
71839SOL     OW17348   8.166   8.425   0.996
71839SOL    HW117349   8.178   8.509   0.952
71839SOL    HW217350   8.179   8.445   1.089
71840SOL     OW17351   0.224  10.177  14.062
71840SOL    HW117352   0.255  10.090  14.088
71840SOL    HW217353   0.291  10.237  14.094
71841SOL     OW17354   1.009  13.710   5.422
71841SOL    HW117355   0.932  13.653   5.422
71841SOL    HW217356   0.974  13.799   5.421
71842SOL     OW17357   5.307   7.965   9.635
71842SOL    HW117358   5.341   7.891   9.686
71842SOL    HW217359   5.221   7.936   9.604
71843SOL     OW17360  12.611  10.668   3.299
71843SOL    HW117361  12.596  10.690   3.208
71843SOL    HW217362  12.600  10.751   3.346
71844SOL     OW17363   3.525  12.557   6.228
71844SOL    HW117364   3.521  12.476   6.178
71844SOL    HW217365   3.434  12.586   6.234
71845SOL     OW17366  12.008   5.624  14.190
71845SOL    HW117367  11.916   5.637  14.167
71845SOL    HW217368  12.014   5.531  14.213
71846SOL     OW17369   2.220   2.669  13.253
71846SOL    HW117370   2.303   2.630  13.278
71846SOL    HW217371   2.240   2.761  13.236
71847SOL     OW17372   1.681   4.734   5.398
71847SOL    HW117373   1.741   4.754   5.470
71847SOL    HW217374   1.648   4.646   5.418
71848SOL     OW17375   9.487   7.662   1.279
71848SOL    HW117376   9.414   7.644   1.338
71848SOL    HW217377   9.543   7.585   1.285
71849SOL     OW17378   0.901   3.979   7.721
71849SOL    HW117379   0.809   3.955   7.713
71849SOL    HW217380   0.921   4.026   7.640
71850SOL     OW17381  12.052   4.205   1.889
71850SOL    HW117382  12.145   4.189   1.877
71850SOL    HW217383  12.011   4.171   1.809
71851SOL     OW17384   3.951   2.688   5.526
71851SOL    HW117385   4.013   2.657   5.592
71851SOL    HW217386   3.881   2.729   5.576
71852SOL     OW17387   3.141   8.390   0.107
71852SOL    HW117388   3.202   8.425   0.043
71852SOL    HW217389   3.179   8.307   0.135
71853SOL     OW17390   1.655   8.993  10.873
71853SOL    HW117391   1.608   8.911  10.886
71853SOL    HW217392   1.660   9.032  10.961
71854SOL     OW17393  13.897  13.381   8.739
71854SOL    HW117394  13.905  13.290   8.709
71854SOL    HW217395  13.860  13.427   8.663
71855SOL     OW17396   0.579   7.970   9.682
71855SOL    HW117397   0.536   7.921   9.612
71855SOL    HW217398   0.529   7.948   9.761
71856SOL     OW17399  12.292   0.175   9.579
71856SOL    HW117400  12.213   0.123   9.589
71856SOL    HW217401  12.280   0.224   9.497
71857SOL     OW17402   5.093  10.167   8.059
71857SOL    HW117403   5.127  10.093   8.109
71857SOL    HW217404   5.073  10.131   7.973
71858SOL     OW17405  14.670   7.658  14.252
71858SOL    HW117406  14.695   7.640  14.343
71858SOL    HW217407  14.744   7.625  14.201
71859SOL     OW17408  13.334   2.716   7.604
71859SOL    HW117409  13.361   2.691   7.516
71859SOL    HW217410  13.276   2.644   7.632
71860SOL     OW17411   2.436  11.863   6.158
71860SOL    HW117412   2.378  11.834   6.229
71860SOL    HW217413   2.523  11.832   6.183
71861SOL     OW17414   0.606   0.355   2.753
71861SOL    HW117415   0.513   0.353   2.733
71861SOL    HW217416   0.649   0.337   2.669
71862SOL     OW17417   3.127   7.644   4.349
71862SOL    HW117418   3.203   7.685   4.307
71862SOL    HW217419   3.125   7.555   4.313
71863SOL     OW17420   6.612   1.957  11.320
71863SOL    HW117421   6.636   2.040  11.278
71863SOL    HW217422   6.626   1.973  11.413
71864SOL     OW17423   2.087  11.560   9.494
71864SOL    HW117424   2.132  11.636   9.457
71864SOL    HW217425   1.995  11.587   9.499
71865SOL     OW17426  14.350   2.077   1.541
71865SOL    HW117427  14.429   2.128   1.562
71865SOL    HW217428  14.280   2.142   1.540
71866SOL     OW17429   3.236   5.433   5.743
71866SOL    HW117430   3.213   5.474   5.659
71866SOL    HW217431   3.320   5.390   5.726
71867SOL     OW17432  13.268   4.339  10.314
71867SOL    HW117433  13.253   4.247  10.333
71867SOL    HW217434  13.183   4.381  10.328
71868SOL     OW17435  13.370   4.024   2.076
71868SOL    HW117436  13.363   4.109   2.034
71868SOL    HW217437  13.462   4.018   2.103
71869SOL     OW17438   5.766   5.329   5.680
71869SOL    HW117439   5.748   5.421   5.699
71869SOL    HW217440   5.780   5.327   5.585
71870SOL     OW17441  10.354   2.900   4.477
71870SOL    HW117442  10.341   2.890   4.382
71870SOL    HW217443  10.381   2.991   4.487
71871SOL     OW17444   9.195  12.664  10.545
71871SOL    HW117445   9.108  12.639  10.515
71871SOL    HW217446   9.251  12.655  10.468
71872SOL     OW17447   2.973   8.765   4.906
71872SOL    HW117448   2.906   8.730   4.848
71872SOL    HW217449   2.926   8.795   4.983
71873SOL     OW17450  13.540   9.430   5.624
71873SOL    HW117451  13.531   9.524   5.610
71873SOL    HW217452  13.489   9.390   5.554
71874SOL     OW17453  10.455   5.964   3.413
71874SOL    HW117454  10.438   6.055   3.436
71874SOL    HW217455  10.544   5.964   3.377
71875SOL     OW17456  10.835   6.557   2.503
71875SOL    HW117457  10.869   6.608   2.430
71875SOL    HW217458  10.850   6.612   2.580
71876SOL     OW17459   4.439   9.116  13.670
71876SOL    HW117460   4.366   9.168  13.636
71876SOL    HW217461   4.483   9.082  13.592
71877SOL     OW17462   3.734   0.449   8.098
71877SOL    HW117463   3.648   0.446   8.139
71877SOL    HW217464   3.792   0.406   8.161
71878SOL     OW17465  12.756   1.205  13.806
71878SOL    HW117466  12.735   1.121  13.765
71878SOL    HW217467  12.733   1.193  13.898
71879SOL     OW17468  11.927  12.411   2.889
71879SOL    HW117469  11.972  12.486   2.929
71879SOL    HW217470  11.970  12.335   2.927
71880SOL     OW17471   6.434   9.589   6.884
71880SOL    HW117472   6.451   9.683   6.894
71880SOL    HW217473   6.425   9.556   6.973
71881SOL     OW17474   8.625   3.104   9.553
71881SOL    HW117475   8.560   3.170   9.578
71881SOL    HW217476   8.629   3.110   9.457
71882SOL     OW17477   7.243  10.869   6.683
71882SOL    HW117478   7.281  10.954   6.661
71882SOL    HW217479   7.285  10.845   6.766
71883SOL     OW17480   6.140  14.472  14.796
71883SOL    HW117481   6.197  14.538  14.757
71883SOL    HW217482   6.106  14.513   0.002
71884SOL     OW17483   3.872  10.764   2.392
71884SOL    HW117484   3.793  10.720   2.425
71884SOL    HW217485   3.879  10.735   2.301
71885SOL     OW17486  12.327   4.027   6.801
71885SOL    HW117487  12.411   3.991   6.775
71885SOL    HW217488  12.320   4.109   6.752
71886SOL     OW17489  12.597   5.637   5.250
71886SOL    HW117490  12.632   5.579   5.318
71886SOL    HW217491  12.668   5.643   5.186
71887SOL     OW17492   9.547   7.416  12.461
71887SOL    HW117493   9.539   7.320  12.462
71887SOL    HW217494   9.621   7.433  12.403
71888SOL     OW17495  10.069   6.168   1.894
71888SOL    HW117496  10.030   6.129   1.972
71888SOL    HW217497  10.164   6.161   1.908
71889SOL     OW17498   6.741   7.194  10.649
71889SOL    HW117499   6.650   7.185  10.676
71889SOL    HW217500   6.785   7.232  10.725
71890SOL     OW17501   0.823  11.120   7.892
71890SOL    HW117502   0.900  11.075   7.926
71890SOL    HW217503   0.815  11.197   7.949
71891SOL     OW17504   7.032   6.305   8.401
71891SOL    HW117505   7.093   6.368   8.364
71891SOL    HW217506   7.014   6.337   8.490
71892SOL     OW17507  12.418   3.402   0.898
71892SOL    HW117508  12.413   3.323   0.950
71892SOL    HW217509  12.384   3.377   0.812
71893SOL     OW17510  12.915  13.083   2.686
71893SOL    HW117511  12.859  13.023   2.737
71893SOL    HW217512  12.991  13.099   2.742
71894SOL     OW17513   9.108   0.482   4.587
71894SOL    HW117514   9.036   0.421   4.571
71894SOL    HW217515   9.075   0.543   4.652
71895SOL     OW17516  11.022   4.260   2.845
71895SOL    HW117517  10.942   4.222   2.809
71895SOL    HW217518  11.044   4.331   2.785
71896SOL     OW17519   9.115  14.249   2.720
71896SOL    HW117520   9.171  14.271   2.794
71896SOL    HW217521   9.028  14.235   2.757
71897SOL     OW17522  11.877   7.405   5.408
71897SOL    HW117523  11.797   7.429   5.454
71897SOL    HW217524  11.851   7.400   5.316
71898SOL     OW17525  14.490  10.318   0.993
71898SOL    HW117526  14.406  10.354   0.966
71898SOL    HW217527  14.547  10.394   1.007
71899SOL     OW17528   7.095   6.851   0.899
71899SOL    HW117529   7.163   6.918   0.904
71899SOL    HW217530   7.035   6.873   0.970
71900SOL     OW17531   2.492  11.659   0.689
71900SOL    HW117532   2.429  11.715   0.734
71900SOL    HW217533   2.545  11.719   0.636
71901SOL     OW17534   0.326   7.390   4.240
71901SOL    HW117535   0.247   7.415   4.289
71901SOL    HW217536   0.372   7.472   4.225
71902SOL     OW17537   9.424  14.242  11.345
71902SOL    HW117538   9.480  14.180  11.298
71902SOL    HW217539   9.466  14.327  11.331
71903SOL     OW17540  11.772   4.672  13.968
71903SOL    HW117541  11.839   4.705  13.909
71903SOL    HW217542  11.700   4.735  13.962
71904SOL     OW17543   4.279   2.301   5.431
71904SOL    HW117544   4.246   2.305   5.520
71904SOL    HW217545   4.295   2.208   5.416
71905SOL     OW17546   0.385   6.870   4.251
71905SOL    HW117547   0.420   6.958   4.236
71905SOL    HW217548   0.291   6.879   4.240
71906SOL     OW17549   1.601   3.319   5.716
71906SOL    HW117550   1.577   3.265   5.641
71906SOL    HW217551   1.556   3.402   5.700
71907SOL     OW17552   8.025   5.545  10.188
71907SOL    HW117553   7.958   5.512  10.128
71907SOL    HW217554   8.070   5.467  10.220
71908SOL     OW17555  12.154   1.653   1.677
71908SOL    HW117556  12.238   1.692   1.652
71908SOL    HW217557  12.161   1.562   1.648
71909SOL     OW17558  12.536   6.343  10.936
71909SOL    HW117559  12.626   6.363  10.961
71909SOL    HW217560  12.540   6.255  10.900
71910SOL     OW17561   1.791   4.076   7.524
71910SOL    HW117562   1.738   4.131   7.467
71910SOL    HW217563   1.862   4.134   7.553
71911SOL     OW17564   2.729   1.871  11.205
71911SOL    HW117565   2.726   1.926  11.284
71911SOL    HW217566   2.768   1.788  11.236
71912SOL     OW17567  13.186   6.068   5.276
71912SOL    HW117568  13.171   6.094   5.367
71912SOL    HW217569  13.279   6.088   5.261
71913SOL     OW17570   4.512  10.388   8.632
71913SOL    HW117571   4.557  10.472   8.623
71913SOL    HW217572   4.533  10.341   8.552
71914SOL     OW17573   6.623   2.130  13.485
71914SOL    HW117574   6.641   2.036  13.493
71914SOL    HW217575   6.575   2.152  13.564
71915SOL     OW17576   9.483   2.647   5.774
71915SOL    HW117577   9.565   2.694   5.792
71915SOL    HW217578   9.458   2.609   5.858
71916SOL     OW17579  10.720   6.865  13.988
71916SOL    HW117580  10.679   6.932  14.043
71916SOL    HW217581  10.662   6.789  13.996
71917SOL     OW17582  12.849   2.620  10.152
71917SOL    HW117583  12.842   2.527  10.131
71917SOL    HW217584  12.864   2.662  10.067
71918SOL     OW17585   6.949   3.549   5.197
71918SOL    HW117586   6.874   3.608   5.200
71918SOL    HW217587   7.002   3.581   5.124
71919SOL     OW17588   2.136   1.184   4.687
71919SOL    HW117589   2.175   1.119   4.627
71919SOL    HW217590   2.196   1.186   4.761
71920SOL     OW17591   9.019   0.035   4.347
71920SOL    HW117592   8.960   0.057   4.275
71920SOL    HW217593   9.076   0.111   4.357
71921SOL     OW17594   9.786   6.672   0.467
71921SOL    HW117595   9.808   6.607   0.400
71921SOL    HW217596   9.784   6.755   0.419
71922SOL     OW17597   2.082   9.213   6.750
71922SOL    HW117598   1.987   9.222   6.753
71922SOL    HW217599   2.115   9.293   6.792
71923SOL     OW17600   1.544   9.979   6.608
71923SOL    HW117601   1.497  10.028   6.541
71923SOL    HW217602   1.631  10.019   6.611
71924SOL     OW17603   8.009  12.281  10.513
71924SOL    HW117604   8.024  12.247  10.424
71924SOL    HW217605   7.917  12.308  10.513
71925SOL     OW17606   5.694  10.135  14.690
71925SOL    HW117607   5.694  10.160  14.598
71925SOL    HW217608   5.619  10.076  14.699
71926SOL     OW17609   9.537  11.224   9.607
71926SOL    HW117610   9.547  11.217   9.512
71926SOL    HW217611   9.614  11.273   9.635
71927SOL     OW17612  11.773   2.453   9.432
71927SOL    HW117613  11.777   2.395   9.508
71927SOL    HW217614  11.857   2.498   9.431
71928SOL     OW17615  12.699  11.064   0.939
71928SOL    HW117616  12.619  11.011   0.939
71928SOL    HW217617  12.753  11.026   1.008
71929SOL     OW17618  12.266  10.039   9.791
71929SOL    HW117619  12.349   9.991   9.792
71929SOL    HW217620  12.206   9.984   9.741
71930SOL     OW17621   9.879   5.450   8.315
71930SOL    HW117622   9.817   5.479   8.382
71930SOL    HW217623   9.963   5.448   8.361
71931SOL     OW17624  12.436   0.968  10.063
71931SOL    HW117625  12.474   0.973  10.151
71931SOL    HW217626  12.396   0.881  10.058
71932SOL     OW17627   9.641   9.059  13.293
71932SOL    HW117628   9.656   9.135  13.348
71932SOL    HW217629   9.580   9.089  13.226
71933SOL     OW17630   3.732  14.860   3.273
71933SOL    HW117631   3.768   0.047   3.207
71933SOL    HW217632   3.659   0.037   3.312
71934SOL     OW17633   1.108  13.637  11.851
71934SOL    HW117634   1.029  13.645  11.903
71934SOL    HW217635   1.180  13.653  11.912
71935SOL     OW17636   6.097  12.845  10.098
71935SOL    HW117637   6.044  12.812  10.171
71935SOL    HW217638   6.115  12.767  10.046
71936SOL     OW17639   5.870   0.513   3.963
71936SOL    HW117640   5.834   0.515   4.051
71936SOL    HW217641   5.796   0.492   3.907
71937SOL     OW17642   6.573   7.437  12.592
71937SOL    HW117643   6.491   7.391  12.611
71937SOL    HW217644   6.640   7.368  12.596
71938SOL     OW17645   7.791   3.559   4.901
71938SOL    HW117646   7.879   3.595   4.902
71938SOL    HW217647   7.737   3.626   4.943
71939SOL     OW17648  10.432  13.487   1.582
71939SOL    HW117649  10.453  13.580   1.579
71939SOL    HW217650  10.342  13.482   1.551
71940SOL     OW17651   0.445   2.840   3.207
71940SOL    HW117652   0.524   2.816   3.256
71940SOL    HW217653   0.414   2.920   3.250
71941SOL     OW17654   7.729   5.217   7.817
71941SOL    HW117655   7.791   5.263   7.761
71941SOL    HW217656   7.669   5.173   7.757
71942SOL     OW17657   4.383  12.729   0.544
71942SOL    HW117658   4.349  12.769   0.624
71942SOL    HW217659   4.443  12.794   0.508
71943SOL     OW17660   0.577   9.255  10.685
71943SOL    HW117661   0.657   9.261  10.634
71943SOL    HW217662   0.554   9.162  10.684
71944SOL     OW17663  12.849   0.837   9.410
71944SOL    HW117664  12.886   0.752   9.388
71944SOL    HW217665  12.799   0.863   9.333
71945SOL     OW17666   7.319   4.864  11.876
71945SOL    HW117667   7.393   4.803  11.871
71945SOL    HW217668   7.250   4.814  11.919
71946SOL     OW17669  13.023   6.392  12.345
71946SOL    HW117670  13.094   6.385  12.409
71946SOL    HW217671  12.996   6.483  12.348
71947SOL     OW17672   1.875   2.010   4.792
71947SOL    HW117673   1.966   1.987   4.807
71947SOL    HW217674   1.855   1.977   4.705
71948SOL     OW17675  11.976   3.590  14.852
71948SOL    HW117676  12.060   3.621  14.820
71948SOL    HW217677  11.913   3.655  14.821
71949SOL     OW17678   2.991  12.044   3.996
71949SOL    HW117679   2.962  12.069   4.084
71949SOL    HW217680   2.912  12.007   3.955
71950SOL     OW17681   5.536  12.954  12.280
71950SOL    HW117682   5.609  12.940  12.341
71950SOL    HW217683   5.577  12.987  12.200
71951SOL     OW17684   4.059  13.019   3.640
71951SOL    HW117685   4.092  13.089   3.584
71951SOL    HW217686   4.130  13.000   3.700
71952SOL     OW17687  14.740  13.379  14.540
71952SOL    HW117688  14.789  13.438  14.482
71952SOL    HW217689  14.805  13.348  14.602
71953SOL     OW17690  14.527  14.749   8.500
71953SOL    HW117691  14.519  14.819   8.564
71953SOL    HW217692  14.581  14.682   8.543
71954SOL     OW17693  11.962   3.372  10.288
71954SOL    HW117694  12.044   3.349  10.333
71954SOL    HW217695  11.898   3.380  10.359
71955SOL     OW17696   4.018   5.141  13.957
71955SOL    HW117697   4.045   5.133  13.865
71955SOL    HW217698   4.054   5.063  13.999
71956SOL     OW17699   7.962   5.858   0.357
71956SOL    HW117700   7.932   5.913   0.428
71956SOL    HW217701   8.036   5.809   0.394
71957SOL     OW17702  11.997  12.816  12.170
71957SOL    HW117703  11.924  12.754  12.167
71957SOL    HW217704  11.988  12.868  12.090
71958SOL     OW17705   7.149   3.538   2.632
71958SOL    HW117706   7.157   3.508   2.722
71958SOL    HW217707   7.230   3.587   2.616
71959SOL     OW17708   6.041  10.237   4.375
71959SOL    HW117709   6.121  10.255   4.325
71959SOL    HW217710   6.034  10.310   4.437
71960SOL     OW17711   3.308   9.206   5.850
71960SOL    HW117712   3.336   9.117   5.830
71960SOL    HW217713   3.280   9.202   5.942
71961SOL     OW17714   1.711   7.563   8.509
71961SOL    HW117715   1.714   7.587   8.416
71961SOL    HW217716   1.787   7.607   8.547
71962SOL     OW17717   0.729  13.613   7.998
71962SOL    HW117718   0.821  13.594   7.978
71962SOL    HW217719   0.712  13.696   7.953
71963SOL     OW17720  13.336   4.173   7.102
71963SOL    HW117721  13.257   4.141   7.146
71963SOL    HW217722  13.336   4.267   7.119
71964SOL     OW17723   7.215  10.226   4.440
71964SOL    HW117724   7.120  10.210   4.442
71964SOL    HW217725   7.225  10.305   4.387
71965SOL     OW17726   4.633   6.329   2.498
71965SOL    HW117727   4.642   6.240   2.533
71965SOL    HW217728   4.594   6.379   2.569
71966SOL     OW17729  14.607   0.203  12.315
71966SOL    HW117730  14.550   0.202  12.239
71966SOL    HW217731  14.626   0.295  12.331
71967SOL     OW17732   0.436  11.637   9.747
71967SOL    HW117733   0.487  11.644   9.667
71967SOL    HW217734   0.491  11.679   9.814
71968SOL     OW17735  13.103   6.287   6.637
71968SOL    HW117736  13.088   6.288   6.732
71968SOL    HW217737  13.018   6.267   6.599
71969SOL     OW17738   0.366  11.863   5.338
71969SOL    HW117739   0.290  11.840   5.391
71969SOL    HW217740   0.361  11.959   5.329
71970SOL     OW17741  11.384   4.165   3.323
71970SOL    HW117742  11.328   4.199   3.393
71970SOL    HW217743  11.383   4.070   3.337
71971SOL     OW17744   0.257   6.612   0.808
71971SOL    HW117745   0.163   6.625   0.824
71971SOL    HW217746   0.300   6.685   0.852
71972SOL     OW17747   5.366  12.398   1.383
71972SOL    HW117748   5.411  12.360   1.459
71972SOL    HW217749   5.280  12.356   1.382
71973SOL     OW17750   8.030  14.410   7.622
71973SOL    HW117751   8.112  14.459   7.630
71973SOL    HW217752   8.007  14.417   7.529
71974SOL     OW17753  11.529  13.803   1.658
71974SOL    HW117754  11.452  13.756   1.689
71974SOL    HW217755  11.595  13.789   1.726
71975SOL     OW17756   2.076   4.019  12.797
71975SOL    HW117757   2.148   4.040  12.737
71975SOL    HW217758   2.119   3.980  12.873
71976SOL     OW17759   9.797   2.580   6.075
71976SOL    HW117760   9.891   2.572   6.057
71976SOL    HW217761   9.773   2.495   6.113
71977SOL     OW17762  13.408  11.504   9.576
71977SOL    HW117763  13.461  11.505   9.497
71977SOL    HW217764  13.443  11.431   9.628
71978SOL     OW17765  10.999  12.274   7.192
71978SOL    HW117766  10.905  12.269   7.213
71978SOL    HW217767  11.005  12.237   7.104
71979SOL     OW17768  10.770   5.704   0.421
71979SOL    HW117769  10.800   5.751   0.343
71979SOL    HW217770  10.708   5.639   0.388
71980SOL     OW17771   8.346  13.718   8.284
71980SOL    HW117772   8.430  13.761   8.301
71980SOL    HW217773   8.364  13.659   8.210
71981SOL     OW17774  12.949   8.497   3.526
71981SOL    HW117775  13.005   8.454   3.461
71981SOL    HW217776  12.998   8.576   3.550
71982SOL     OW17777  10.852  12.008  14.028
71982SOL    HW117778  10.930  12.022  13.974
71982SOL    HW217779  10.872  11.930  14.080
71983SOL     OW17780   6.293   5.509   5.458
71983SOL    HW117781   6.342   5.439   5.415
71983SOL    HW217782   6.206   5.471   5.472
71984SOL     OW17783   8.355   9.847   3.361
71984SOL    HW117784   8.299   9.805   3.296
71984SOL    HW217785   8.359   9.939   3.334
71985SOL     OW17786   6.923   4.874  11.832
71985SOL    HW117787   6.831   4.891  11.847
71985SOL    HW217788   6.930   4.856  11.738
71986SOL     OW17789   3.640   0.893   5.454
71986SOL    HW117790   3.681   0.809   5.472
71986SOL    HW217791   3.607   0.885   5.364
71987SOL     OW17792   7.755   0.067  13.529
71987SOL    HW117793   7.795   0.051  13.615
71987SOL    HW217794   7.816   0.026  13.467
71988SOL     OW17795  11.561   0.748   0.869
71988SOL    HW117796  11.594   0.800   0.943
71988SOL    HW217797  11.639   0.720   0.823
71989SOL     OW17798   4.906   7.878   8.170
71989SOL    HW117799   4.934   7.967   8.193
71989SOL    HW217800   4.815   7.888   8.145
71990SOL     OW17801  12.993   6.664   6.510
71990SOL    HW117802  13.081   6.652   6.475
71990SOL    HW217803  13.006   6.669   6.605
71991SOL     OW17804  13.441   8.612   9.683
71991SOL    HW117805  13.487   8.582   9.761
71991SOL    HW217806  13.419   8.532   9.636
71992SOL     OW17807   6.815   4.657   4.291
71992SOL    HW117808   6.820   4.673   4.197
71992SOL    HW217809   6.802   4.744   4.330
71993SOL     OW17810   7.386  10.312   5.140
71993SOL    HW117811   7.315  10.261   5.103
71993SOL    HW217812   7.465  10.265   5.114
71994SOL     OW17813   3.782  10.185   4.647
71994SOL    HW117814   3.763  10.107   4.595
71994SOL    HW217815   3.849  10.156   4.709
71995SOL     OW17816   9.388   3.611  12.376
71995SOL    HW117817   9.475   3.645  12.354
71995SOL    HW217818   9.406   3.533  12.429
71996SOL     OW17819   7.202   3.692   0.421
71996SOL    HW117820   7.225   3.749   0.348
71996SOL    HW217821   7.107   3.699   0.427
71997SOL     OW17822  10.006  10.077  12.353
71997SOL    HW117823   9.991   9.993  12.311
71997SOL    HW217824  10.030  10.055  12.443
71998SOL     OW17825   5.230   2.508   5.021
71998SOL    HW117826   5.326   2.509   5.027
71998SOL    HW217827   5.212   2.455   4.943
71999SOL     OW17828   3.066   3.915   0.154
71999SOL    HW117829   3.009   3.992   0.154
71999SOL    HW217830   3.041   3.867   0.075
72000SOL     OW17831   9.397   1.193  12.069
72000SOL    HW117832   9.402   1.273  12.016
72000SOL    HW217833   9.457   1.132  12.026
72001SOL     OW17834  12.065  10.088   9.000
72001SOL    HW117835  12.013  10.166   9.019
72001SOL    HW217836  12.105  10.106   8.915
72002SOL     OW17837   4.710  14.125  12.763
72002SOL    HW117838   4.770  14.121  12.689
72002SOL    HW217839   4.735  14.051  12.819
72003SOL     OW17840   9.824  10.013   4.672
72003SOL    HW117841   9.855  10.071   4.603
72003SOL    HW217842   9.784  10.072   4.737
72004SOL     OW17843  10.664   1.290   8.994
72004SOL    HW117844  10.687   1.364   8.937
72004SOL    HW217845  10.580   1.315   9.033
72005SOL     OW17846   0.422   8.609   7.713
72005SOL    HW117847   0.349   8.629   7.771
72005SOL    HW217848   0.468   8.537   7.755
72006SOL     OW17849   7.820  13.343   5.399
72006SOL    HW117850   7.876  13.378   5.330
72006SOL    HW217851   7.850  13.385   5.479
72007SOL     OW17852   3.869   4.685   7.267
72007SOL    HW117853   3.783   4.678   7.308
72007SOL    HW217854   3.925   4.723   7.335
72008SOL     OW17855   7.838   2.919  10.418
72008SOL    HW117856   7.871   2.831  10.437
72008SOL    HW217857   7.788   2.944  10.496
72009SOL     OW17858   1.935   7.699  12.799
72009SOL    HW117859   2.012   7.706  12.743
72009SOL    HW217860   1.862   7.726  12.743
72010SOL     OW17861  11.337   8.296  11.986
72010SOL    HW117862  11.421   8.250  11.979
72010SOL    HW217863  11.272   8.226  11.994
72011SOL     OW17864   4.300  13.819   5.513
72011SOL    HW117865   4.220  13.795   5.465
72011SOL    HW217866   4.292  13.775   5.597
72012SOL     OW17867   1.501  10.047   7.992
72012SOL    HW117868   1.559   9.983   7.950
72012SOL    HW217869   1.543  10.067   8.076
72013SOL     OW17870  11.218   5.523   3.151
72013SOL    HW117871  11.144   5.531   3.091
72013SOL    HW217872  11.226   5.429   3.167
72014SOL     OW17873  13.523   5.432   7.622
72014SOL    HW117874  13.491   5.462   7.707
72014SOL    HW217875  13.618   5.449   7.625
72015SOL     OW17876   5.801   3.522   5.471
72015SOL    HW117877   5.747   3.549   5.397
72015SOL    HW217878   5.884   3.568   5.459
72016SOL     OW17879  12.673  14.700   0.219
72016SOL    HW117880  12.586  14.690   0.182
72016SOL    HW217881  12.730  14.648   0.161
72017SOL     OW17882  14.321   1.290  13.391
72017SOL    HW117883  14.345   1.371  13.435
72017SOL    HW217884  14.229   1.300  13.370
72018SOL     OW17885   9.218   7.829   2.597
72018SOL    HW117886   9.285   7.881   2.643
72018SOL    HW217887   9.262   7.800   2.517
72019SOL     OW17888   0.335   7.011   7.370
72019SOL    HW117889   0.320   6.930   7.419
72019SOL    HW217890   0.337   6.984   7.278
72020SOL     OW17891   4.566   1.894   8.972
72020SOL    HW117892   4.531   1.969   9.020
72020SOL    HW217893   4.489   1.854   8.931
72021SOL     OW17894   5.299  12.415   4.923
72021SOL    HW117895   5.378  12.373   4.888
72021SOL    HW217896   5.291  12.379   5.011
72022SOL     OW17897   5.143  12.376   3.403
72022SOL    HW117898   5.215  12.432   3.433
72022SOL    HW217899   5.153  12.373   3.308
72023SOL     OW17900   9.579  12.086   1.198
72023SOL    HW117901   9.552  12.117   1.284
72023SOL    HW217902   9.644  12.149   1.168
72024SOL     OW17903   9.318   0.151   5.233
72024SOL    HW117904   9.244   0.101   5.266
72024SOL    HW217905   9.381   0.150   5.305
72025SOL     OW17906   8.500   8.472  11.764
72025SOL    HW117907   8.423   8.446  11.714
72025SOL    HW217908   8.476   8.555  11.805
72026SOL     OW17909  10.511  12.965   1.568
72026SOL    HW117910  10.419  12.941   1.568
72026SOL    HW217911  10.511  13.057   1.541
72027SOL     OW17912  11.657   6.439  13.699
72027SOL    HW117913  11.648   6.483  13.615
72027SOL    HW217914  11.590   6.481  13.754
72028SOL     OW17915  10.910   7.320  11.827
72028SOL    HW117916  10.899   7.226  11.818
72028SOL    HW217917  10.854   7.358  11.759
72029SOL     OW17918   0.999   8.300   5.016
72029SOL    HW117919   0.957   8.269   4.935
72029SOL    HW217920   1.038   8.384   4.991
72030SOL     OW17921  11.318   5.649  13.794
72030SOL    HW117922  11.356   5.608  13.872
72030SOL    HW217923  11.337   5.742  13.803
72031SOL     OW17924   9.432   0.556  13.312
72031SOL    HW117925   9.365   0.624  13.318
72031SOL    HW217926   9.486   0.567  13.391
72032SOL     OW17927  13.535  11.224   8.861
72032SOL    HW117928  13.518  11.248   8.770
72032SOL    HW217929  13.630  11.213   8.866
72033SOL     OW17930   6.173   6.653   4.544
72033SOL    HW117931   6.256   6.611   4.567
72033SOL    HW217932   6.198   6.743   4.522
72034SOL     OW17933   0.738   1.596   5.132
72034SOL    HW117934   0.757   1.509   5.097
72034SOL    HW217935   0.810   1.651   5.101
72035SOL     OW17936   4.438  13.726   2.138
72035SOL    HW117937   4.497  13.655   2.164
72035SOL    HW217938   4.497  13.800   2.120
72036SOL     OW17939   6.166   3.523  12.982
72036SOL    HW117940   6.203   3.436  12.996
72036SOL    HW217941   6.080   3.519  13.025
72037SOL     OW17942   7.455  10.695  11.780
72037SOL    HW117943   7.393  10.758  11.742
72037SOL    HW217944   7.460  10.624  11.716
72038SOL     OW17945  11.538   8.952  13.547
72038SOL    HW117946  11.587   9.014  13.601
72038SOL    HW217947  11.474   9.005  13.500
72039SOL     OW17948  11.389   0.571   5.489
72039SOL    HW117949  11.447   0.624   5.436
72039SOL    HW217950  11.316   0.629   5.511
72040SOL     OW17951   8.176   7.722  13.949
72040SOL    HW117952   8.191   7.698  13.857
72040SOL    HW217953   8.082   7.714  13.961
72041SOL     OW17954  13.537  14.263  10.290
72041SOL    HW117955  13.594  14.254  10.214
72041SOL    HW217956  13.584  14.220  10.361
72042SOL     OW17957   0.570  13.074   3.446
72042SOL    HW117958   0.527  13.160   3.450
72042SOL    HW217959   0.500  13.011   3.465
72043SOL     OW17960   5.082  14.713  11.507
72043SOL    HW117961   4.992  14.731  11.534
72043SOL    HW217962   5.084  14.732  11.413
72044SOL     OW17963   0.131  11.849   1.246
72044SOL    HW117964   0.198  11.913   1.271
72044SOL    HW217965   0.090  11.887   1.168
72045SOL     OW17966   8.428   9.076   3.225
72045SOL    HW117967   8.446   8.992   3.183
72045SOL    HW217968   8.460   9.142   3.163
72046SOL     OW17969  11.031   6.732   7.366
72046SOL    HW117970  11.115   6.744   7.412
72046SOL    HW217971  11.028   6.803   7.302
72047SOL     OW17972   7.131   7.553   4.641
72047SOL    HW117973   7.053   7.595   4.606
72047SOL    HW217974   7.102   7.513   4.723
72048SOL     OW17975   7.396  12.511   3.945
72048SOL    HW117976   7.320  12.464   3.910
72048SOL    HW217977   7.358  12.585   3.993
72049SOL     OW17978  13.219  13.733   1.788
72049SOL    HW117979  13.184  13.786   1.859
72049SOL    HW217980  13.208  13.787   1.710
72050SOL     OW17981  12.153  10.119  10.793
72050SOL    HW117982  12.224  10.183  10.786
72050SOL    HW217983  12.187  10.053  10.853
72051SOL     OW17984   5.704   4.618   0.321
72051SOL    HW117985   5.667   4.549   0.266
72051SOL    HW217986   5.758   4.670   0.261
72052SOL     OW17987   1.909   9.124   4.225
72052SOL    HW117988   1.925   9.197   4.165
72052SOL    HW217989   1.814   9.120   4.232
72053SOL     OW17990   2.790   9.682   5.887
72053SOL    HW117991   2.711   9.733   5.865
72053SOL    HW217992   2.818   9.645   5.804
72054SOL     OW17993   2.282  12.799   6.896
72054SOL    HW117994   2.272  12.894   6.895
72054SOL    HW217995   2.296  12.777   6.988
72055SOL     OW17996   2.368  13.676   6.654
72055SOL    HW117997   2.332  13.693   6.567
72055SOL    HW217998   2.419  13.755   6.675
72056SOL     OW17999   5.234  12.189  14.145
72056SOL    HW118000   5.151  12.238  14.148
72056SOL    HW218001   5.207  12.098  14.137
72057SOL     OW18002   6.072  14.830  10.825
72057SOL    HW118003   6.078   0.039  10.875
72057SOL    HW218004   6.045  14.858  10.738
72058SOL     OW18005  14.155   3.951   0.838
72058SOL    HW118006  14.125   4.032   0.795
72058SOL    HW218007  14.250   3.953   0.829
72059SOL     OW18008  13.600   9.707   0.231
72059SOL    HW118009  13.514   9.746   0.214
72059SOL    HW218010  13.663   9.776   0.212
72060SOL     OW18011   8.678   4.319   3.165
72060SOL    HW118012   8.712   4.296   3.252
72060SOL    HW218013   8.619   4.393   3.182
72061SOL     OW18014   8.560   5.888   0.769
72061SOL    HW118015   8.514   5.912   0.689
72061SOL    HW218016   8.640   5.940   0.768
72062SOL     OW18017  11.608   1.907   9.635
72062SOL    HW118018  11.559   1.903   9.553
72062SOL    HW218019  11.685   1.852   9.620
72063SOL     OW18020  11.424   9.452  12.907
72063SOL    HW118021  11.349   9.459  12.966
72063SOL    HW218022  11.393   9.397  12.835
72064SOL     OW18023  10.413  11.476  11.848
72064SOL    HW118024  10.478  11.540  11.876
72064SOL    HW218025  10.461  11.393  11.843
72065SOL     OW18026   6.124   5.258   1.659
72065SOL    HW118027   6.038   5.263   1.617
72065SOL    HW218028   6.184   5.237   1.587
72066SOL     OW18029   9.368   5.280   2.128
72066SOL    HW118030   9.452   5.242   2.104
72066SOL    HW218031   9.326   5.212   2.181
72067SOL     OW18032   4.865   0.546   0.365
72067SOL    HW118033   4.784   0.567   0.412
72067SOL    HW218034   4.903   0.631   0.343
72068SOL     OW18035  12.193  14.013   0.940
72068SOL    HW118036  12.200  14.107   0.927
72068SOL    HW218037  12.112  13.988   0.896
72069SOL     OW18038  13.388  10.278   5.553
72069SOL    HW118039  13.424  10.228   5.626
72069SOL    HW218040  13.390  10.369   5.584
72070SOL     OW18041   4.416   6.179   4.630
72070SOL    HW118042   4.502   6.143   4.654
72070SOL    HW218043   4.354   6.108   4.650
72071SOL     OW18044  14.314   5.740   5.239
72071SOL    HW118045  14.407   5.761   5.235
72071SOL    HW218046  14.299   5.712   5.329
72072SOL     OW18047  13.911   1.489   5.750
72072SOL    HW118048  13.874   1.530   5.673
72072SOL    HW218049  13.850   1.511   5.821
72073SOL     OW18050  14.223  12.204   1.368
72073SOL    HW118051  14.136  12.172   1.393
72073SOL    HW218052  14.284  12.153   1.422
72074SOL     OW18053   4.825  12.362  13.036
72074SOL    HW118054   4.749  12.371  13.094
72074SOL    HW218055   4.900  12.369  13.095
72075SOL     OW18056  12.877   3.113   9.069
72075SOL    HW118057  12.795   3.081   9.030
72075SOL    HW218058  12.862   3.105   9.164
72076SOL     OW18059   2.462  10.425  12.114
72076SOL    HW118060   2.478  10.518  12.104
72076SOL    HW218061   2.515  10.384  12.045
72077SOL     OW18062  11.557   2.074   6.490
72077SOL    HW118063  11.626   2.048   6.429
72077SOL    HW218064  11.532   2.162   6.461
72078SOL     OW18065   3.093  11.823   0.963
72078SOL    HW118066   3.005  11.848   0.993
72078SOL    HW218067   3.095  11.849   0.871
72079SOL     OW18068   9.809  14.324   6.609
72079SOL    HW118069   9.814  14.407   6.563
72079SOL    HW218070   9.891  14.317   6.657
72080SOL     OW18071   8.934   5.830   6.373
72080SOL    HW118072   8.905   5.837   6.464
72080SOL    HW218073   8.984   5.749   6.370
72081SOL     OW18074   8.446  11.344   0.198
72081SOL    HW118075   8.501  11.337   0.121
72081SOL    HW218076   8.507  11.357   0.271
72082SOL     OW18077  14.047   3.351  13.874
72082SOL    HW118078  13.967   3.298  13.869
72082SOL    HW218079  14.096   3.327  13.796
72083SOL     OW18080  13.362   9.947   5.762
72083SOL    HW118081  13.377   9.931   5.855
72083SOL    HW218082  13.449   9.962   5.726
72084SOL     OW18083   6.283  14.384   4.236
72084SOL    HW118084   6.371  14.420   4.249
72084SOL    HW218085   6.296  14.289   4.237
72085SOL     OW18086   7.882  11.085   6.464
72085SOL    HW118087   7.870  11.174   6.432
72085SOL    HW218088   7.806  11.037   6.432
72086SOL     OW18089   4.373   3.071   1.868
72086SOL    HW118090   4.440   3.103   1.928
72086SOL    HW218091   4.318   3.148   1.850
72087SOL     OW18092   0.260   4.378   8.086
72087SOL    HW118093   0.210   4.437   8.031
72087SOL    HW218094   0.295   4.433   8.156
72088SOL     OW18095   8.145  10.471   3.894
72088SOL    HW118096   8.198  10.548   3.914
72088SOL    HW218097   8.206  10.397   3.904
72089SOL     OW18098   0.396  12.041   0.075
72089SOL    HW118099   0.406  12.136   0.082
72089SOL    HW218100   0.454  12.006   0.143
72090SOL     OW18101  11.965   6.561   9.318
72090SOL    HW118102  11.973   6.585   9.410
72090SOL    HW218103  11.889   6.503   9.314
72091SOL     OW18104   2.821  11.172   2.707
72091SOL    HW118105   2.764  11.100   2.681
72091SOL    HW218106   2.869  11.138   2.783
72092SOL     OW18107   7.242  12.640  10.802
72092SOL    HW118108   7.250  12.736  10.803
72092SOL    HW218109   7.295  12.613  10.727
72093SOL     OW18110   4.624   6.542   3.926
72093SOL    HW118111   4.618   6.543   3.831
72093SOL    HW218112   4.600   6.453   3.951
72094SOL     OW18113   5.826   1.077   2.675
72094SOL    HW118114   5.787   1.162   2.654
72094SOL    HW218115   5.827   1.074   2.771
72095SOL     OW18116   9.774   4.346   0.804
72095SOL    HW118117   9.795   4.265   0.759
72095SOL    HW218118   9.815   4.337   0.891
72096SOL     OW18119   3.938   1.659   1.381
72096SOL    HW118120   3.903   1.570   1.380
72096SOL    HW218121   4.009   1.656   1.445
72097SOL     OW18122  13.272  12.358   3.376
72097SOL    HW118123  13.180  12.350   3.402
72097SOL    HW218124  13.298  12.445   3.404
72098SOL     OW18125   0.650  14.811   6.631
72098SOL    HW118126   0.651  14.751   6.557
72098SOL    HW218127   0.652   0.026   6.591
72099SOL     OW18128   4.598   7.082  14.850
72099SOL    HW118129   4.647   7.160   0.003
72099SOL    HW218130   4.565   7.103  14.762
72100SOL     OW18131   0.225   8.184   8.117
72100SOL    HW118132   0.262   8.141   8.040
72100SOL    HW218133   0.166   8.250   8.081
72101SOL     OW18134   7.837  10.528   8.711
72101SOL    HW118135   7.746  10.554   8.724
72101SOL    HW218136   7.839  10.434   8.730
72102SOL     OW18137   1.315   5.629   9.969
72102SOL    HW118138   1.232   5.635  10.015
72102SOL    HW218139   1.366   5.703  10.001
72103SOL     OW18140  13.387   7.534   1.447
72103SOL    HW118141  13.342   7.542   1.363
72103SOL    HW218142  13.330   7.477   1.499
72104SOL     OW18143   6.696  10.741   1.261
72104SOL    HW118144   6.643  10.809   1.303
72104SOL    HW218145   6.754  10.789   1.201
72105SOL     OW18146  13.375  10.668   6.758
72105SOL    HW118147  13.404  10.611   6.829
72105SOL    HW218148  13.439  10.654   6.688
72106SOL     OW18149   8.996  13.287   8.902
72106SOL    HW118150   9.072  13.249   8.946
72106SOL    HW218151   8.944  13.212   8.873
72107SOL     OW18152  14.050   2.863   5.651
72107SOL    HW118153  14.109   2.842   5.723
72107SOL    HW218154  13.968   2.887   5.694
72108SOL     OW18155  11.303   8.417  14.037
72108SOL    HW118156  11.372   8.441  14.099
72108SOL    HW218157  11.272   8.331  14.067
72109SOL     OW18158   7.217   7.832   5.906
72109SOL    HW118159   7.198   7.881   5.986
72109SOL    HW218160   7.246   7.898   5.844
72110SOL     OW18161   2.530   9.830   4.978
72110SOL    HW118162   2.575   9.745   4.977
72110SOL    HW218163   2.458   9.818   5.040
72111SOL     OW18164   8.619  13.057  11.971
72111SOL    HW118165   8.679  12.985  11.989
72111SOL    HW218166   8.588  13.040  11.882
72112SOL     OW18167  13.777   0.889   8.856
72112SOL    HW118168  13.707   0.889   8.921
72112SOL    HW218169  13.856   0.907   8.907
72113SOL     OW18170   0.575   5.091   9.444
72113SOL    HW118171   0.503   5.039   9.482
72113SOL    HW218172   0.645   5.085   9.509
72114SOL     OW18173   8.462  14.709   3.974
72114SOL    HW118174   8.415  14.655   4.037
72114SOL    HW218175   8.513  14.770   4.028
72115SOL     OW18176   9.055  11.135   5.130
72115SOL    HW118177   8.998  11.200   5.090
72115SOL    HW218178   9.144  11.163   5.107
72116SOL     OW18179  11.882   2.176   6.143
72116SOL    HW118180  11.921   2.210   6.223
72116SOL    HW218181  11.957   2.159   6.085
72117SOL     OW18182   2.510   4.029  10.719
72117SOL    HW118183   2.579   4.060  10.660
72117SOL    HW218184   2.550   4.031  10.806
72118SOL     OW18185   1.850   8.922   2.591
72118SOL    HW118186   1.836   8.966   2.507
72118SOL    HW218187   1.944   8.929   2.606
72119SOL     OW18188   5.019  11.353   6.018
72119SOL    HW118189   4.933  11.346   5.975
72119SOL    HW218190   5.079  11.377   5.947
72120SOL     OW18191  12.679   3.314  10.016
72120SOL    HW118192  12.655   3.382   9.953
72120SOL    HW218193  12.770   3.293   9.997
72121SOL     OW18194  12.356  10.344   3.117
72121SOL    HW118195  12.306  10.388   3.185
72121SOL    HW218196  12.330  10.387   3.036
72122SOL     OW18197   3.445  10.897   6.378
72122SOL    HW118198   3.538  10.885   6.401
72122SOL    HW218199   3.443  10.982   6.334
72123SOL     OW18200  12.232   0.697   9.352
72123SOL    HW118201  12.275   0.625   9.399
72123SOL    HW218202  12.304   0.746   9.312
72124SOL     OW18203  10.250   5.181   1.647
72124SOL    HW118204  10.157   5.182   1.670
72124SOL    HW218205  10.296   5.195   1.730
72125SOL     OW18206   8.840   5.438   8.607
72125SOL    HW118207   8.799   5.498   8.545
72125SOL    HW218208   8.892   5.378   8.552
72126SOL     OW18209   1.580   3.146  14.383
72126SOL    HW118210   1.548   3.224  14.336
72126SOL    HW218211   1.504   3.088  14.385
72127SOL     OW18212  12.658   5.895   4.302
72127SOL    HW118213  12.691   5.980   4.273
72127SOL    HW218214  12.676   5.836   4.228
72128SOL     OW18215  10.680   9.146   0.179
72128SOL    HW118216  10.693   9.202   0.256
72128SOL    HW218217  10.597   9.101   0.195
72129SOL     OW18218  11.216   0.594   9.032
72129SOL    HW118219  11.222   0.638   8.947
72129SOL    HW218220  11.213   0.666   9.095
72130SOL     OW18221   7.552   1.987  11.369
72130SOL    HW118222   7.614   2.059  11.358
72130SOL    HW218223   7.608   1.911  11.388
72131SOL     OW18224  12.095  12.339   0.251
72131SOL    HW118225  12.064  12.250   0.269
72131SOL    HW218226  12.048  12.394   0.313
72132SOL     OW18227   3.198   5.124   2.970
72132SOL    HW118228   3.155   5.043   2.945
72132SOL    HW218229   3.291   5.107   2.958
72133SOL     OW18230   4.069  12.317  11.490
72133SOL    HW118231   3.980  12.282  11.500
72133SOL    HW218232   4.125  12.240  11.489
72134SOL     OW18233   5.879   9.117   3.371
72134SOL    HW118234   5.892   9.210   3.389
72134SOL    HW218235   5.953   9.092   3.316
72135SOL     OW18236   7.297  11.280  12.684
72135SOL    HW118237   7.380  11.326  12.668
72135SOL    HW218238   7.311  11.193  12.646
72136SOL     OW18239   5.457   0.272   8.935
72136SOL    HW118240   5.427   0.187   8.967
72136SOL    HW218241   5.549   0.259   8.915
72137SOL     OW18242   3.198   5.299  13.765
72137SOL    HW118243   3.222   5.230  13.703
72137SOL    HW218244   3.124   5.344  13.725
72138SOL     OW18245   5.485   5.027   6.781
72138SOL    HW118246   5.508   4.951   6.728
72138SOL    HW218247   5.427   4.993   6.849
72139SOL     OW18248   3.549   6.726  13.869
72139SOL    HW118249   3.639   6.757  13.863
72139SOL    HW218250   3.504   6.766  13.795
72140SOL     OW18251  13.767  10.629  10.209
72140SOL    HW118252  13.784  10.701  10.270
72140SOL    HW218253  13.848  10.622  10.159
72141SOL     OW18254   6.400   5.309  11.096
72141SOL    HW118255   6.379   5.242  11.161
72141SOL    HW218256   6.492   5.296  11.075
72142SOL     OW18257   0.322   7.798   5.274
72142SOL    HW118258   0.313   7.890   5.297
72142SOL    HW218259   0.416   7.781   5.275
72143SOL     OW18260   9.955   3.535   4.746
72143SOL    HW118261   9.920   3.605   4.690
72143SOL    HW218262   9.924   3.557   4.834
72144SOL     OW18263   6.933  11.954   6.885
72144SOL    HW118264   6.958  12.015   6.954
72144SOL    HW218265   6.974  11.871   6.910
72145SOL     OW18266   7.283   9.089   7.530
72145SOL    HW118267   7.346   9.127   7.468
72145SOL    HW218268   7.205   9.071   7.477
72146SOL     OW18269   2.173  12.492   3.130
72146SOL    HW118270   2.121  12.460   3.057
72146SOL    HW218271   2.250  12.434   3.132
72147SOL     OW18272  11.685   6.115   9.230
72147SOL    HW118273  11.754   6.117   9.296
72147SOL    HW218274  11.678   6.205   9.200
72148SOL     OW18275   2.223   3.790  12.566
72148SOL    HW118276   2.206   3.739  12.645
72148SOL    HW218277   2.150   3.769  12.507
72149SOL     OW18278   9.289   1.093   2.634
72149SOL    HW118279   9.337   1.024   2.588
72149SOL    HW218280   9.338   1.106   2.715
72150SOL     OW18281   9.764   7.726   0.624
72150SOL    HW118282   9.669   7.733   0.637
72150SOL    HW218283   9.800   7.801   0.671
72151SOL     OW18284   5.028   6.722  10.747
72151SOL    HW118285   4.975   6.643  10.735
72151SOL    HW218286   5.107   6.691  10.791
72152SOL     OW18287  13.655   6.740   6.608
72152SOL    HW118288  13.728   6.777   6.559
72152SOL    HW218289  13.584   6.804   6.596
72153SOL     OW18290   9.024   6.355  10.847
72153SOL    HW118291   9.098   6.398  10.806
72153SOL    HW218292   8.947   6.401  10.813
72154SOL     OW18293  13.337   7.013   0.071
72154SOL    HW118294  13.300   6.995  14.856
72154SOL    HW218295  13.431   7.001   0.060
72155SOL     OW18296   1.195  12.405   7.972
72155SOL    HW118297   1.229  12.360   7.895
72155SOL    HW218298   1.100  12.398   7.963
72156SOL     OW18299  14.649   0.191   8.046
72156SOL    HW118300  14.559   0.224   8.052
72156SOL    HW218301  14.649   0.112   8.100
72157SOL     OW18302  13.699   1.867   1.606
72157SOL    HW118303  13.756   1.850   1.681
72157SOL    HW218304  13.760   1.893   1.536
72158SOL     OW18305   5.993  10.128   0.181
72158SOL    HW118306   5.899  10.117   0.191
72158SOL    HW218307   6.005  10.222   0.167
72159SOL     OW18308   6.417  13.816  14.868
72159SOL    HW118309   6.425  13.910  14.858
72159SOL    HW218310   6.323  13.799  14.864
72160SOL     OW18311  10.630   0.603   9.049
72160SOL    HW118312  10.561   0.608   8.983
72160SOL    HW218313  10.632   0.689   9.090
72161SOL     OW18314   9.260   7.243  13.703
72161SOL    HW118315   9.267   7.288  13.619
72161SOL    HW218316   9.217   7.306  13.761
72162SOL     OW18317   4.458  11.285   6.229
72162SOL    HW118318   4.550  11.301   6.207
72162SOL    HW218319   4.435  11.206   6.180
72163SOL     OW18320   3.951  13.797  13.089
72163SOL    HW118321   3.889  13.772  13.158
72163SOL    HW218322   3.939  13.730  13.021
72164SOL     OW18323  11.354   5.933   5.937
72164SOL    HW118324  11.360   5.867   6.006
72164SOL    HW218325  11.443   5.939   5.902
72165SOL     OW18326   3.801  10.473   5.817
72165SOL    HW118327   3.718  10.426   5.810
72165SOL    HW218328   3.788  10.553   5.767
72166SOL     OW18329   4.908   5.250   9.170
72166SOL    HW118330   4.859   5.290   9.098
72166SOL    HW218331   4.885   5.157   9.167
72167SOL     OW18332   7.776   9.858   7.653
72167SOL    HW118333   7.830   9.932   7.626
72167SOL    HW218334   7.800   9.842   7.744
72168SOL     OW18335   7.194   9.893   3.002
72168SOL    HW118336   7.113   9.920   3.044
72168SOL    HW218337   7.238   9.975   2.980
72169SOL     OW18338   8.399   0.338   6.371
72169SOL    HW118339   8.325   0.296   6.326
72169SOL    HW218340   8.437   0.268   6.424
72170SOL     OW18341   2.477  10.635   5.143
72170SOL    HW118342   2.523  10.552   5.132
72170SOL    HW218343   2.397  10.612   5.191
72171SOL     OW18344  10.530   8.550   4.666
72171SOL    HW118345  10.498   8.615   4.729
72171SOL    HW218346  10.622   8.571   4.654
72172SOL     OW18347   7.911  13.747   1.021
72172SOL    HW118348   7.960  13.817   1.064
72172SOL    HW218349   7.849  13.717   1.087
72173SOL     OW18350  14.605   0.596   3.579
72173SOL    HW118351  14.557   0.591   3.662
72173SOL    HW218352  14.541   0.569   3.513
72174SOL     OW18353  12.737   8.261  13.226
72174SOL    HW118354  12.829   8.236  13.216
72174SOL    HW218355  12.709   8.285  13.137
72175SOL     OW18356   5.099   2.308   1.203
72175SOL    HW118357   5.103   2.286   1.296
72175SOL    HW218358   5.173   2.366   1.189
72176SOL     OW18359   5.967   9.473  10.189
72176SOL    HW118360   5.913   9.394  10.184
72176SOL    HW218361   5.905   9.545  10.173
72177SOL     OW18362   8.377  11.465  11.275
72177SOL    HW118363   8.406  11.476  11.366
72177SOL    HW218364   8.453  11.428  11.231
72178SOL     OW18365   1.130   5.367   8.187
72178SOL    HW118366   1.094   5.366   8.275
72178SOL    HW218367   1.059   5.337   8.131
72179SOL     OW18368   4.866   6.509   4.588
72179SOL    HW118369   4.958   6.488   4.578
72179SOL    HW218370   4.824   6.472   4.510
72180SOL     OW18371   1.808   8.291  13.041
72180SOL    HW118372   1.846   8.234  12.974
72180SOL    HW218373   1.738   8.337  12.995
72181SOL     OW18374   3.429   7.204   7.047
72181SOL    HW118375   3.496   7.265   7.077
72181SOL    HW218376   3.392   7.167   7.128
72182SOL     OW18377  11.140  13.203   3.884
72182SOL    HW118378  11.073  13.135   3.881
72182SOL    HW218379  11.131  13.250   3.801
72183SOL     OW18380  11.788   5.554  10.087
72183SOL    HW118381  11.851   5.593  10.027
72183SOL    HW218382  11.753   5.628  10.137
72184SOL     OW18383   6.575   6.452   0.964
72184SOL    HW118384   6.508   6.424   0.902
72184SOL    HW218385   6.622   6.522   0.919
72185SOL     OW18386  12.947   6.347   1.194
72185SOL    HW118387  12.983   6.328   1.107
72185SOL    HW218388  13.019   6.330   1.254
72186SOL     OW18389   0.080   1.609  11.913
72186SOL    HW118390   0.131   1.617  11.832
72186SOL    HW218391   0.041   1.522  11.908
72187SOL     OW18392   5.001   7.261   2.613
72187SOL    HW118393   5.082   7.272   2.664
72187SOL    HW218394   4.949   7.339   2.634
72188SOL     OW18395   5.703  12.205  13.998
72188SOL    HW118396   5.702  12.238  14.088
72188SOL    HW218397   5.612  12.208  13.970
72189SOL     OW18398   6.749   8.036   9.165
72189SOL    HW118399   6.654   8.041   9.157
72189SOL    HW218400   6.764   7.976   9.238
72190SOL     OW18401  10.764   4.939   0.492
72190SOL    HW118402  10.685   4.942   0.547
72190SOL    HW218403  10.750   5.006   0.426
72191SOL     OW18404   2.216  14.414   0.227
72191SOL    HW118405   2.180  14.464   0.154
72191SOL    HW218406   2.155  14.431   0.299
72192SOL     OW18407   6.924   9.000   2.884
72192SOL    HW118408   6.935   8.991   2.978
72192SOL    HW218409   6.851   9.061   2.873
72193SOL     OW18410   6.659  11.291  11.902
72193SOL    HW118411   6.730  11.237  11.866
72193SOL    HW218412   6.616  11.328  11.824
72194SOL     OW18413   2.225   4.133   8.402
72194SOL    HW118414   2.225   4.174   8.315
72194SOL    HW218415   2.154   4.176   8.449
72195SOL     OW18416   5.700   6.308   9.825
72195SOL    HW118417   5.652   6.385   9.857
72195SOL    HW218418   5.791   6.336   9.824
72196SOL     OW18419   6.271   2.398   3.196
72196SOL    HW118420   6.218   2.414   3.274
72196SOL    HW218421   6.264   2.479   3.145
72197SOL     OW18422   6.594  14.503  13.945
72197SOL    HW118423   6.625  14.531  14.031
72197SOL    HW218424   6.576  14.585  13.899
72198SOL     OW18425   6.577   5.447   4.092
72198SOL    HW118426   6.528   5.502   4.031
72198SOL    HW218427   6.555   5.481   4.179
72199SOL     OW18428   8.921  11.194   7.322
72199SOL    HW118429   8.965  11.149   7.394
72199SOL    HW218430   8.990  11.214   7.259
72200SOL     OW18431  14.447   5.016  14.358
72200SOL    HW118432  14.409   5.099  14.385
72200SOL    HW218433  14.407   4.951  14.415
72201SOL     OW18434   3.746   0.708   9.033
72201SOL    HW118435   3.662   0.750   9.051
72201SOL    HW218436   3.722   0.618   9.008
72202SOL     OW18437   4.969   6.160  14.854
72202SOL    HW118438   4.888   6.181   0.028
72202SOL    HW218439   5.027   6.234   0.001
72203SOL     OW18440   0.286   8.378   7.563
72203SOL    HW118441   0.305   8.471   7.553
72203SOL    HW218442   0.313   8.357   7.652
72204SOL     OW18443  14.087   6.832  14.390
72204SOL    HW118444  14.062   6.905  14.332
72204SOL    HW218445  14.093   6.871  14.477
72205SOL     OW18446   6.853  12.687   9.241
72205SOL    HW118447   6.853  12.603   9.195
72205SOL    HW218448   6.941  12.694   9.278
72206SOL     OW18449   2.749  14.147   4.137
72206SOL    HW118450   2.812  14.165   4.068
72206SOL    HW218451   2.763  14.055   4.159
72207SOL     OW18452   6.796   8.580   7.945
72207SOL    HW118453   6.769   8.632   7.870
72207SOL    HW218454   6.774   8.634   8.021
72208SOL     OW18455  13.097   2.281  14.710
72208SOL    HW118456  13.091   2.357  14.768
72208SOL    HW218457  13.033   2.219  14.745
72209SOL     OW18458   2.366  12.964  12.479
72209SOL    HW118459   2.389  12.927  12.565
72209SOL    HW218460   2.333  13.052  12.499
72210SOL     OW18461   4.497  14.030   1.375
72210SOL    HW118462   4.495  14.103   1.313
72210SOL    HW218463   4.421  14.045   1.431
72211SOL     OW18464  11.059   7.716   2.232
72211SOL    HW118465  11.093   7.674   2.153
72211SOL    HW218466  11.003   7.650   2.272
72212SOL     OW18467   1.057  12.522  12.262
72212SOL    HW118468   0.996  12.578  12.214
72212SOL    HW218469   1.110  12.584  12.313
72213SOL     OW18470   3.956   0.681   6.751
72213SOL    HW118471   4.017   0.752   6.733
72213SOL    HW218472   3.930   0.695   6.843
72214SOL     OW18473  11.620   4.647   7.764
72214SOL    HW118474  11.707   4.659   7.726
72214SOL    HW218475  11.587   4.735   7.775
72215SOL     OW18476   7.434   2.654   0.604
72215SOL    HW118477   7.402   2.564   0.599
72215SOL    HW218478   7.529   2.646   0.607
72216SOL     OW18479   3.598  11.287   8.572
72216SOL    HW118480   3.576  11.218   8.509
72216SOL    HW218481   3.690  11.307   8.555
72217SOL     OW18482  14.540   9.047  12.436
72217SOL    HW118483  14.583   9.099  12.369
72217SOL    HW218484  14.527   9.108  12.509
72218SOL     OW18485   7.464   8.360   2.517
72218SOL    HW118486   7.511   8.300   2.574
72218SOL    HW218487   7.518   8.439   2.516
72219SOL     OW18488   7.003   7.648  10.531
72219SOL    HW118489   7.007   7.606  10.616
72219SOL    HW218490   7.093   7.645  10.498
72220SOL     OW18491   1.990   9.416  10.004
72220SOL    HW118492   1.902   9.378  10.001
72220SOL    HW218493   1.995   9.473   9.927
72221SOL     OW18494   2.446   7.149  13.574
72221SOL    HW118495   2.410   7.060  13.585
72221SOL    HW218496   2.539   7.136  13.560
72222SOL     OW18497  13.141   9.597   9.626
72222SOL    HW118498  13.125   9.517   9.576
72222SOL    HW218499  13.235   9.595   9.645
72223SOL     OW18500   4.610   5.314  10.573
72223SOL    HW118501   4.648   5.357  10.650
72223SOL    HW218502   4.541   5.258  10.608
72224SOL     OW18503   9.298  13.744   1.824
72224SOL    HW118504   9.221  13.712   1.873
72224SOL    HW218505   9.360  13.770   1.892
72225SOL     OW18506  14.532  10.174   9.019
72225SOL    HW118507  14.452  10.134   9.053
72225SOL    HW218508  14.582  10.100   8.983
72226SOL     OW18509  14.590   8.085   8.736
72226SOL    HW118510  14.643   8.160   8.711
72226SOL    HW218511  14.610   8.071   8.829
72227SOL     OW18512  11.159  12.215  11.625
72227SOL    HW118513  11.184  12.303  11.654
72227SOL    HW218514  11.225  12.157  11.662
72228SOL     OW18515  10.847   0.333  10.576
72228SOL    HW118516  10.844   0.425  10.603
72228SOL    HW218517  10.809   0.332  10.488
72229SOL     OW18518   6.862  14.460   6.832
72229SOL    HW118519   6.787  14.516   6.813
72229SOL    HW218520   6.826  14.387   6.883
72230SOL     OW18521  11.110   3.498   5.962
72230SOL    HW118522  11.148   3.515   6.048
72230SOL    HW218523  11.051   3.573   5.947
72231SOL     OW18524   6.963   6.943   7.796
72231SOL    HW118525   6.951   6.996   7.875
72231SOL    HW218526   6.983   6.855   7.829
72232SOL     OW18527   8.072   4.088  10.496
72232SOL    HW118528   8.046   4.033  10.570
72232SOL    HW218529   8.005   4.073  10.430
72233SOL     OW18530  13.328   6.032  10.363
72233SOL    HW118531  13.415   6.070  10.377
72233SOL    HW218532  13.278   6.054  10.441
72234SOL     OW18533   3.602   9.485   7.990
72234SOL    HW118534   3.625   9.401   7.950
72234SOL    HW218535   3.655   9.488   8.070
72235SOL     OW18536  10.750  14.129   7.184
72235SOL    HW118537  10.753  14.159   7.094
72235SOL    HW218538  10.657  14.128   7.207
72236SOL     OW18539  13.955   2.085   9.527
72236SOL    HW118540  13.991   2.118   9.444
72236SOL    HW218541  14.020   2.109   9.593
72237SOL     OW18542   4.159   7.933   7.689
72237SOL    HW118543   4.180   7.895   7.604
72237SOL    HW218544   4.219   8.006   7.698
72238SOL     OW18545   0.722  10.492   9.881
72238SOL    HW118546   0.656  10.453   9.825
72238SOL    HW218547   0.713  10.447   9.965
72239SOL     OW18548   4.105  13.228   0.830
72239SOL    HW118549   4.031  13.285   0.809
72239SOL    HW218550   4.161  13.281   0.886
72240SOL     OW18551   2.823  12.201   7.807
72240SOL    HW118552   2.735  12.167   7.789
72240SOL    HW218553   2.867  12.201   7.722
72241SOL     OW18554  10.710  11.717   2.293
72241SOL    HW118555  10.732  11.731   2.385
72241SOL    HW218556  10.794  11.698   2.251
72242SOL     OW18557  10.825  10.808   2.416
72242SOL    HW118558  10.748  10.815   2.360
72242SOL    HW218559  10.789  10.808   2.505
72243SOL     OW18560   6.117   8.136   2.150
72243SOL    HW118561   6.135   8.119   2.057
72243SOL    HW218562   6.041   8.193   2.150
72244SOL     OW18563  11.760   1.886   6.756
72244SOL    HW118564  11.683   1.830   6.770
72244SOL    HW218565  11.742   1.931   6.673
72245SOL     OW18566   2.700   3.718   7.001
72245SOL    HW118567   2.693   3.811   6.979
72245SOL    HW218568   2.613   3.683   6.982
72246SOL     OW18569   1.088   5.268   9.052
72246SOL    HW118570   1.116   5.297   9.139
72246SOL    HW218571   0.993   5.273   9.055
72247SOL     OW18572  11.941   8.209   4.690
72247SOL    HW118573  11.894   8.291   4.674
72247SOL    HW218574  12.008   8.233   4.754
72248SOL     OW18575  13.791  13.018   9.685
72248SOL    HW118576  13.700  12.990   9.671
72248SOL    HW218577  13.801  13.095   9.629
72249SOL     OW18578   4.218   1.777  13.766
72249SOL    HW118579   4.215   1.795  13.672
72249SOL    HW218580   4.135   1.812  13.800
72250SOL     OW18581   0.536   9.553   0.043
72250SOL    HW118582   0.541   9.485  14.848
72250SOL    HW218583   0.610   9.610   0.025
72251SOL     OW18584   2.182  14.768   3.383
72251SOL    HW118585   2.125  14.829   3.431
72251SOL    HW218586   2.201  14.699   3.446
72252SOL     OW18587  14.033   3.894  14.552
72252SOL    HW118588  13.963   3.840  14.591
72252SOL    HW218589  13.994   3.930  14.472
72253SOL     OW18590   8.220   2.526  12.943
72253SOL    HW118591   8.224   2.461  13.013
72253SOL    HW218592   8.268   2.601  12.978
72254SOL     OW18593   5.162   8.257   9.511
72254SOL    HW118594   5.195   8.174   9.544
72254SOL    HW218595   5.238   8.315   9.510
72255SOL     OW18596  10.154  10.708  11.589
72255SOL    HW118597  10.101  10.640  11.630
72255SOL    HW218598  10.093  10.758  11.535
72256SOL     OW18599  11.146   7.334  14.164
72256SOL    HW118600  11.145   7.244  14.132
72256SOL    HW218601  11.101   7.331  14.248
72257SOL     OW18602   4.346  12.100   5.735
72257SOL    HW118603   4.338  12.196   5.735
72257SOL    HW218604   4.412  12.081   5.802
72258SOL     OW18605  14.058   9.970   1.939
72258SOL    HW118606  14.019   9.931   2.017
72258SOL    HW218607  14.147   9.995   1.966
72259SOL     OW18608  11.839  13.043   9.281
72259SOL    HW118609  11.755  13.077   9.250
72259SOL    HW218610  11.888  13.120   9.310
72260SOL     OW18611   8.092  10.421   8.917
72260SOL    HW118612   8.171  10.475   8.916
72260SOL    HW218613   8.108  10.356   8.984
72261SOL     OW18614  12.770   1.950   9.237
72261SOL    HW118615  12.711   1.947   9.313
72261SOL    HW218616  12.747   1.872   9.187
72262SOL     OW18617  14.461  14.827   4.813
72262SOL    HW118618  14.452  14.815   4.719
72262SOL    HW218619  14.442  14.741   4.850
72263SOL     OW18620   6.814   0.805  12.709
72263SOL    HW118621   6.744   0.795  12.773
72263SOL    HW218622   6.894   0.814  12.761
72264SOL     OW18623  13.981   3.623   0.165
72264SOL    HW118624  14.058   3.635   0.108
72264SOL    HW218625  14.014   3.572   0.239
72265SOL     OW18626  12.709   9.632   7.522
72265SOL    HW118627  12.748   9.650   7.608
72265SOL    HW218628  12.661   9.550   7.534
72266SOL     OW18629  10.498  12.466  12.434
72266SOL    HW118630  10.579  12.502  12.473
72266SOL    HW218631  10.449  12.544  12.407
72267SOL     OW18632   5.388   7.683   7.977
72267SOL    HW118633   5.297   7.660   7.994
72267SOL    HW218634   5.406   7.757   8.035
72268SOL     OW18635   9.616   7.277   1.696
72268SOL    HW118636   9.589   7.346   1.635
72268SOL    HW218637   9.631   7.201   1.640
72269SOL     OW18638   7.808   4.089   1.702
72269SOL    HW118639   7.896   4.125   1.690
72269SOL    HW218640   7.757   4.163   1.736
72270SOL     OW18641   2.664  10.961  12.380
72270SOL    HW118642   2.692  10.909  12.305
72270SOL    HW218643   2.714  11.042  12.374
72271SOL     OW18644  11.331   9.670   2.460
72271SOL    HW118645  11.415   9.664   2.414
72271SOL    HW218646  11.353   9.706   2.546
72272SOL     OW18647   8.721  11.798  14.045
72272SOL    HW118648   8.721  11.790  13.950
72272SOL    HW218649   8.732  11.709  14.077
72273SOL     OW18650   3.026   8.042   1.212
72273SOL    HW118651   3.022   8.080   1.300
72273SOL    HW218652   2.949   8.079   1.168
72274SOL     OW18653   7.620   5.079   4.518
72274SOL    HW118654   7.696   5.020   4.521
72274SOL    HW218655   7.609   5.108   4.608
72275SOL     OW18656   1.946  11.517   5.864
72275SOL    HW118657   1.884  11.453   5.899
72275SOL    HW218658   1.891  11.590   5.835
72276SOL     OW18659   6.810  10.192  12.999
72276SOL    HW118660   6.789  10.115  13.052
72276SOL    HW218661   6.862  10.159  12.926
72277SOL     OW18662  12.504  11.021  12.002
72277SOL    HW118663  12.571  11.005  11.935
72277SOL    HW218664  12.434  10.958  11.981
72278SOL     OW18665   1.735   0.227  10.623
72278SOL    HW118666   1.757   0.304  10.676
72278SOL    HW218667   1.696   0.263  10.544
72279SOL     OW18668  11.392   4.319   6.760
72279SOL    HW118669  11.363   4.405   6.730
72279SOL    HW218670  11.487   4.325   6.761
72280SOL     OW18671  10.257   3.681   5.397
72280SOL    HW118672  10.225   3.746   5.334
72280SOL    HW218673  10.314   3.731   5.455
72281SOL     OW18674  11.009  11.347  12.005
72281SOL    HW118675  11.003  11.254  11.983
72281SOL    HW218676  11.040  11.348  12.095
72282SOL     OW18677   2.351   0.734   2.609
72282SOL    HW118678   2.436   0.693   2.617
72282SOL    HW218679   2.289   0.667   2.638
72283SOL     OW18680   0.054   6.139   0.935
72283SOL    HW118681   0.006   6.206   0.985
72283SOL    HW218682   0.005   6.131   0.853
72284SOL     OW18683   0.891  11.985   0.146
72284SOL    HW118684   0.874  11.933   0.224
72284SOL    HW218685   0.814  12.042   0.139
72285SOL     OW18686  12.396   8.802   3.390
72285SOL    HW118687  12.481   8.812   3.431
72285SOL    HW218688  12.406   8.839   3.302
72286SOL     OW18689  13.148  11.929  11.173
72286SOL    HW118690  13.190  11.851  11.210
72286SOL    HW218691  13.056  11.905  11.163
72287SOL     OW18692   0.702   9.021   7.304
72287SOL    HW118693   0.777   8.999   7.248
72287SOL    HW218694   0.657   8.938   7.317
72288SOL     OW18695   1.358   6.339   4.184
72288SOL    HW118696   1.421   6.409   4.171
72288SOL    HW218697   1.411   6.260   4.194
72289SOL     OW18698   3.216  14.349   4.727
72289SOL    HW118699   3.185  14.406   4.797
72289SOL    HW218700   3.164  14.269   4.735
72290SOL     OW18701   2.516   2.738   1.784
72290SOL    HW118702   2.438   2.685   1.768
72290SOL    HW218703   2.571   2.724   1.706
72291SOL     OW18704   9.380   4.220   7.385
72291SOL    HW118705   9.287   4.240   7.381
72291SOL    HW218706   9.406   4.203   7.295
72292SOL     OW18707  10.741   8.902  13.798
72292SOL    HW118708  10.760   8.823  13.848
72292SOL    HW218709  10.824   8.924  13.756
72293SOL     OW18710  13.695   3.654   3.379
72293SOL    HW118711  13.767   3.706   3.414
72293SOL    HW218712  13.627   3.718   3.358
72294SOL     OW18713   4.856   0.752   6.805
72294SOL    HW118714   4.869   0.842   6.773
72294SOL    HW218715   4.819   0.764   6.893
72295SOL     OW18716   4.714   2.831  14.834
72295SOL    HW118717   4.628   2.827  14.791
72295SOL    HW218718   4.718   2.919  14.872
72296SOL     OW18719  10.771   3.130   2.673
72296SOL    HW118720  10.686   3.117   2.716
72296SOL    HW218721  10.757   3.101   2.583
72297SOL     OW18722   2.752   7.998   7.764
72297SOL    HW118723   2.741   7.978   7.857
72297SOL    HW218724   2.840   8.035   7.758
72298SOL     OW18725   5.012  13.454   7.951
72298SOL    HW118726   5.051  13.467   7.864
72298SOL    HW218727   5.070  13.391   7.994
72299SOL     OW18728  10.792  12.530   8.865
72299SOL    HW118729  10.815  12.623   8.856
72299SOL    HW218730  10.785  12.498   8.776
72300SOL     OW18731  12.796   7.721  11.409
72300SOL    HW118732  12.730   7.773  11.454
72300SOL    HW218733  12.783   7.739  11.316
72301SOL     OW18734   0.950  13.137   7.777
72301SOL    HW118735   0.944  13.156   7.871
72301SOL    HW218736   0.864  13.161   7.742
72302SOL     OW18737   1.766  11.898  10.063
72302SOL    HW118738   1.811  11.828  10.111
72302SOL    HW218739   1.766  11.973  10.123
72303SOL     OW18740  12.186   8.486  13.994
72303SOL    HW118741  12.229   8.498  13.909
72303SOL    HW218742  12.211   8.563  14.045
72304SOL     OW18743   8.250   8.032   4.649
72304SOL    HW118744   8.327   7.975   4.641
72304SOL    HW218745   8.215   8.037   4.560
72305SOL     OW18746   0.836  11.120  12.563
72305SOL    HW118747   0.753  11.133  12.609
72305SOL    HW218748   0.879  11.205  12.567
72306SOL     OW18749   0.397   1.786  11.327
72306SOL    HW118750   0.432   1.860  11.376
72306SOL    HW218751   0.303   1.802  11.321
72307SOL     OW18752  12.800   2.791   8.982
72307SOL    HW118753  12.759   2.877   8.974
72307SOL    HW218754  12.850   2.781   8.901
72308SOL     OW18755   7.728  14.006  14.245
72308SOL    HW118756   7.705  13.973  14.158
72308SOL    HW218757   7.677  13.952  14.305
72309SOL     OW18758  10.246  10.841   3.317
72309SOL    HW118759  10.178  10.781   3.347
72309SOL    HW218760  10.216  10.870   3.231
72310SOL     OW18761   5.749   2.899   6.099
72310SOL    HW118762   5.818   2.843   6.064
72310SOL    HW218763   5.708   2.846   6.168
72311SOL     OW18764   9.280   4.448   4.946
72311SOL    HW118765   9.227   4.487   5.016
72311SOL    HW218766   9.353   4.406   4.991
72312SOL     OW18767  12.709   5.414   1.450
72312SOL    HW118768  12.760   5.475   1.396
72312SOL    HW218769  12.739   5.328   1.423
72313SOL     OW18770   2.311   1.817   5.764
72313SOL    HW118771   2.226   1.862   5.766
72313SOL    HW218772   2.294   1.732   5.804
72314SOL     OW18773  11.535   0.935  10.534
72314SOL    HW118774  11.500   0.959  10.620
72314SOL    HW218775  11.469   0.877  10.496
72315SOL     OW18776  11.731   6.709  12.168
72315SOL    HW118777  11.658   6.700  12.229
72315SOL    HW218778  11.774   6.623  12.168
72316SOL     OW18779   5.818   3.824   9.174
72316SOL    HW118780   5.849   3.771   9.100
72316SOL    HW218781   5.850   3.777   9.251
72317SOL     OW18782  11.303   7.264   3.454
72317SOL    HW118783  11.355   7.332   3.412
72317SOL    HW218784  11.231   7.312   3.496
72318SOL     OW18785   6.131  10.456   2.739
72318SOL    HW118786   6.202  10.413   2.692
72318SOL    HW218787   6.099  10.524   2.679
72319SOL     OW18788  11.612  11.196  13.916
72319SOL    HW118789  11.616  11.177  13.823
72319SOL    HW218790  11.696  11.166  13.951
72320SOL     OW18791   4.643   8.609  10.328
72320SOL    HW118792   4.682   8.696  10.317
72320SOL    HW218793   4.590   8.596  10.250
72321SOL     OW18794  10.146   3.867   6.590
72321SOL    HW118795  10.241   3.863   6.578
72321SOL    HW218796  10.131   3.832   6.677
72322SOL     OW18797   8.754   8.044  11.658
72322SOL    HW118798   8.771   8.111  11.724
72322SOL    HW218799   8.659   8.032  11.659
72323SOL     OW18800   6.813   8.485   0.263
72323SOL    HW118801   6.755   8.428   0.312
72323SOL    HW218802   6.817   8.446   0.175
72324SOL     OW18803   6.484   6.360   2.140
72324SOL    HW118804   6.493   6.336   2.048
72324SOL    HW218805   6.473   6.276   2.185
72325SOL     OW18806   3.546  10.845  13.326
72325SOL    HW118807   3.568  10.882  13.240
72325SOL    HW218808   3.610  10.775  13.338
72326SOL     OW18809   2.859   4.810  14.035
72326SOL    HW118810   2.905   4.729  14.058
72326SOL    HW218811   2.897   4.877  14.092
72327SOL     OW18812  11.566  13.485   6.832
72327SOL    HW118813  11.633  13.541   6.871
72327SOL    HW218814  11.484  13.518   6.869
72328SOL     OW18815   7.089   0.994   8.315
72328SOL    HW118816   7.115   1.086   8.311
72328SOL    HW218817   7.115   0.958   8.230
72329SOL     OW18818  13.424   7.961   1.007
72329SOL    HW118819  13.450   8.039   1.057
72329SOL    HW218820  13.487   7.894   1.033
72330SOL     OW18821  14.385  10.255  10.925
72330SOL    HW118822  14.331  10.216  10.994
72330SOL    HW218823  14.422  10.180  10.878
72331SOL     OW18824   8.012  10.730   4.726
72331SOL    HW118825   7.940  10.668   4.716
72331SOL    HW218826   8.081  10.696   4.669
72332SOL     OW18827  13.407  11.675   1.108
72332SOL    HW118828  13.368  11.741   1.164
72332SOL    HW218829  13.499  11.675   1.131
72333SOL     OW18830   6.606   9.067   0.921
72333SOL    HW118831   6.670   9.009   0.962
72333SOL    HW218832   6.541   9.083   0.988
72334SOL     OW18833   1.584   2.605  10.442
72334SOL    HW118834   1.620   2.518  10.424
72334SOL    HW218835   1.489   2.593  10.437
72335SOL     OW18836  12.716  10.631  13.347
72335SOL    HW118837  12.675  10.557  13.391
72335SOL    HW218838  12.644  10.692  13.330
72336SOL     OW18839   2.022   3.710  11.693
72336SOL    HW118840   2.109   3.750  11.703
72336SOL    HW218841   1.982   3.759  11.622
72337SOL     OW18842  10.741   8.137   1.256
72337SOL    HW118843  10.771   8.081   1.184
72337SOL    HW218844  10.676   8.084   1.302
72338SOL     OW18845   5.164  11.328   5.263
72338SOL    HW118846   5.153  11.423   5.261
72338SOL    HW218847   5.194  11.305   5.175
72339SOL     OW18848  13.284   8.915   9.163
72339SOL    HW118849  13.263   8.833   9.207
72339SOL    HW218850  13.226   8.979   9.202
72340SOL     OW18851  13.861   6.820   8.455
72340SOL    HW118852  13.902   6.756   8.397
72340SOL    HW218853  13.826   6.887   8.397
72341SOL     OW18854   6.824   9.396   6.567
72341SOL    HW118855   6.805   9.406   6.474
72341SOL    HW218856   6.775   9.467   6.609
72342SOL     OW18857  11.466   4.268  12.730
72342SOL    HW118858  11.520   4.266  12.651
72342SOL    HW218859  11.417   4.186  12.728
72343SOL     OW18860  12.709  10.473   8.940
72343SOL    HW118861  12.657  10.540   8.985
72343SOL    HW218862  12.731  10.409   9.007
72344SOL     OW18863   1.077   4.839   4.028
72344SOL    HW118864   1.126   4.893   3.966
72344SOL    HW218865   1.071   4.891   4.107
72345SOL     OW18866  13.933   6.858   7.428
72345SOL    HW118867  13.870   6.878   7.359
72345SOL    HW218868  13.948   6.764   7.422
72346SOL     OW18869   8.549   8.704   1.419
72346SOL    HW118870   8.570   8.631   1.477
72346SOL    HW218871   8.631   8.753   1.412
72347SOL     OW18872  14.260  14.516   3.403
72347SOL    HW118873  14.273  14.607   3.376
72347SOL    HW218874  14.218  14.474   3.328
72348SOL     OW18875   0.008   0.434  10.321
72348SOL    HW118876   0.030   0.521  10.355
72348SOL    HW218877  14.819   0.398  10.385
72349SOL     OW18878   1.964   9.893  10.538
72349SOL    HW118879   1.889   9.834  10.533
72349SOL    HW218880   2.039   9.838  10.513
72350SOL     OW18881   9.938   8.551  12.256
72350SOL    HW118882  10.004   8.507  12.202
72350SOL    HW218883   9.975   8.549  12.345
72351SOL     OW18884   4.556   1.686  14.616
72351SOL    HW118885   4.605   1.768  14.612
72351SOL    HW218886   4.514   1.679  14.530
72352SOL     OW18887   2.576  10.512   4.508
72352SOL    HW118888   2.650  10.570   4.525
72352SOL    HW218889   2.525  10.514   4.589
72353SOL     OW18890   4.200   8.837   0.285
72353SOL    HW118891   4.167   8.925   0.302
72353SOL    HW218892   4.273   8.850   0.224
72354SOL     OW18893  11.700   0.156  11.278
72354SOL    HW118894  11.623   0.195  11.236
72354SOL    HW218895  11.703   0.196  11.364
72355SOL     OW18896  14.322  11.921   3.517
72355SOL    HW118897  14.373  11.935   3.437
72355SOL    HW218898  14.292  12.008   3.541
72356SOL     OW18899   4.011  11.684   3.185
72356SOL    HW118900   4.052  11.765   3.216
72356SOL    HW218901   3.990  11.701   3.093
72357SOL     OW18902   2.420  12.582   6.279
72357SOL    HW118903   2.389  12.501   6.320
72357SOL    HW218904   2.349  12.645   6.292
72358SOL     OW18905  12.800   8.867  10.959
72358SOL    HW118906  12.805   8.956  10.924
72358SOL    HW218907  12.876   8.822  10.921
72359SOL     OW18908   1.471  13.467   8.606
72359SOL    HW118909   1.459  13.392   8.665
72359SOL    HW218910   1.479  13.428   8.519
72360SOL     OW18911  12.666   2.008   6.670
72360SOL    HW118912  12.747   2.038   6.712
72360SOL    HW218913  12.607   1.988   6.743
72361SOL     OW18914   4.818  12.146  12.693
72361SOL    HW118915   4.848  12.233  12.669
72361SOL    HW218916   4.818  12.097  12.611
72362SOL     OW18917   1.060   4.762   0.580
72362SOL    HW118918   1.059   4.667   0.589
72362SOL    HW218919   0.999   4.793   0.647
72363SOL     OW18920   6.160  14.476   3.080
72363SOL    HW118921   6.131  14.564   3.055
72363SOL    HW218922   6.149  14.474   3.175
72364SOL     OW18923   2.952   6.754   4.017
72364SOL    HW118924   3.017   6.819   3.992
72364SOL    HW218925   2.999   6.671   4.017
72365SOL     OW18926  13.676   0.957  11.576
72365SOL    HW118927  13.613   0.915  11.635
72365SOL    HW218928  13.740   0.889  11.558
72366SOL     OW18929   1.025   5.350   8.455
72366SOL    HW118930   1.044   5.399   8.535
72366SOL    HW218931   1.008   5.261   8.485
72367SOL     OW18932   4.528  11.300  10.417
72367SOL    HW118933   4.452  11.356  10.400
72367SOL    HW218934   4.596  11.359  10.448
72368SOL     OW18935   9.286   4.875   6.648
72368SOL    HW118936   9.194   4.856   6.628
72368SOL    HW218937   9.329   4.790   6.646
72369SOL     OW18938   7.691   6.292   8.639
72369SOL    HW118939   7.662   6.238   8.565
72369SOL    HW218940   7.725   6.372   8.597
72370SOL     OW18941  13.213  10.780   2.322
72370SOL    HW118942  13.207  10.692   2.358
72370SOL    HW218943  13.247  10.768   2.233
72371SOL     OW18944  14.437   4.349   7.141
72371SOL    HW118945  14.492   4.275   7.168
72371SOL    HW218946  14.486   4.426   7.168
72372SOL     OW18947   4.949  13.074   6.829
72372SOL    HW118948   4.935  13.151   6.775
72372SOL    HW218949   4.945  13.000   6.768
72373SOL     OW18950   0.275   1.950   5.980
72373SOL    HW118951   0.224   1.889   5.927
72373SOL    HW218952   0.362   1.952   5.938
72374SOL     OW18953   6.763  10.770   5.669
72374SOL    HW118954   6.719  10.770   5.754
72374SOL    HW218955   6.836  10.831   5.680
72375SOL     OW18956  14.167   5.058  10.152
72375SOL    HW118957  14.149   5.147  10.122
72375SOL    HW218958  14.222   5.021  10.083
72376SOL     OW18959   2.913   9.196  14.544
72376SOL    HW118960   2.860   9.185  14.623
72376SOL    HW218961   2.993   9.239  14.574
72377SOL     OW18962   5.766   4.980   5.368
72377SOL    HW118963   5.723   4.953   5.449
72377SOL    HW218964   5.804   4.899   5.334
72378SOL     OW18965   6.576  10.173   4.426
72378SOL    HW118966   6.496  10.197   4.378
72378SOL    HW218967   6.544  10.136   4.508
72379SOL     OW18968   4.188   0.905  11.579
72379SOL    HW118969   4.142   0.845  11.520
72379SOL    HW218970   4.247   0.955  11.523
72380SOL     OW18971  13.311   2.561   7.943
72380SOL    HW118972  13.216   2.570   7.933
72380SOL    HW218973  13.322   2.517   8.028
72381SOL     OW18974   6.907   2.323   2.673
72381SOL    HW118975   6.885   2.352   2.762
72381SOL    HW218976   6.828   2.278   2.643
72382SOL     OW18977   6.757  14.363   3.083
72382SOL    HW118978   6.663  14.359   3.102
72382SOL    HW218979   6.785  14.271   3.078
72383SOL     OW18980   2.159   9.056   9.928
72383SOL    HW118981   2.177   8.964   9.909
72383SOL    HW218982   2.097   9.083   9.860
72384SOL     OW18983  12.399  11.276   0.029
72384SOL    HW118984  12.334  11.296  14.834
72384SOL    HW218985  12.464  11.221  14.857
72385SOL     OW18986   9.930   8.111   6.019
72385SOL    HW118987   9.983   8.162   6.079
72385SOL    HW218988   9.986   8.038   5.993
72386SOL     OW18989  11.723   1.289   6.874
72386SOL    HW118990  11.671   1.230   6.820
72386SOL    HW218991  11.709   1.376   6.836
72387SOL     OW18992   4.776   2.500   2.854
72387SOL    HW118993   4.793   2.493   2.948
72387SOL    HW218994   4.797   2.591   2.833
72388SOL     OW18995   9.084   3.419   1.543
72388SOL    HW118996   9.158   3.479   1.530
72388SOL    HW218997   9.081   3.367   1.463
72389SOL     OW18998   6.123   4.170  14.779
72389SOL    HW118999   6.136   4.196  14.687
72389SOL    HW219000   6.211   4.163  14.815
72390SOL     OW19001   3.368   7.424   2.093
72390SOL    HW119002   3.435   7.425   2.162
72390SOL    HW219003   3.307   7.493   2.118
72391SOL     OW19004   3.104   9.185   5.110
72391SOL    HW119005   3.165   9.140   5.168
72391SOL    HW219006   3.152   9.261   5.077
72392SOL     OW19007   7.040   1.574   6.610
72392SOL    HW119008   6.979   1.561   6.538
72392SOL    HW219009   7.111   1.512   6.593
72393SOL     OW19010   6.610   3.429   5.926
72393SOL    HW119011   6.525   3.473   5.932
72393SOL    HW219012   6.667   3.493   5.882
72394SOL     OW19013   3.635  12.706  11.855
72394SOL    HW119014   3.581  12.774  11.813
72394SOL    HW219015   3.618  12.627  11.803
72395SOL     OW19016   4.675   7.192   1.897
72395SOL    HW119017   4.663   7.264   1.959
72395SOL    HW219018   4.606   7.207   1.831
72396SOL     OW19019   8.677   7.597   7.877
72396SOL    HW119020   8.650   7.569   7.789
72396SOL    HW219021   8.727   7.523   7.911
72397SOL     OW19022  10.675  13.751   1.335
72397SOL    HW119023  10.672  13.715   1.247
72397SOL    HW219024  10.659  13.845   1.323
72398SOL     OW19025   6.606   3.724  12.118
72398SOL    HW119026   6.529   3.779  12.127
72398SOL    HW219027   6.624   3.693  12.207
72399SOL     OW19028   9.987   1.245   0.461
72399SOL    HW119029  10.076   1.213   0.472
72399SOL    HW219030   9.971   1.298   0.539
72400SOL     OW19031  10.661   7.389   3.333
72400SOL    HW119032  10.566   7.386   3.328
72400SOL    HW219033  10.682   7.355   3.420
72401SOL     OW19034   1.931   4.573  12.427
72401SOL    HW119035   1.945   4.665  12.449
72401SOL    HW219036   1.836   4.566  12.417
72402SOL     OW19037   8.898   6.717   0.415
72402SOL    HW119038   8.920   6.800   0.372
72402SOL    HW219039   8.808   6.729   0.445
72403SOL     OW19040   4.339   9.942   6.787
72403SOL    HW119041   4.252   9.932   6.827
72403SOL    HW219042   4.359  10.035   6.797
72404SOL     OW19043  14.504   4.903   0.064
72404SOL    HW119044  14.478   4.978   0.117
72404SOL    HW219045  14.556   4.848   0.123
72405SOL     OW19046   4.383  10.332   2.719
72405SOL    HW119047   4.320  10.270   2.682
72405SOL    HW219048   4.428  10.282   2.787
72406SOL     OW19049  12.812   5.077   2.791
72406SOL    HW119050  12.757   5.144   2.830
72406SOL    HW219051  12.836   5.020   2.864
72407SOL     OW19052  14.176   5.694  10.080
72407SOL    HW119053  14.147   5.752  10.150
72407SOL    HW219054  14.098   5.680  10.027
72408SOL     OW19055   6.702   9.184  11.242
72408SOL    HW119056   6.682   9.245  11.171
72408SOL    HW219057   6.783   9.216  11.280
72409SOL     OW19058  10.542   8.094   9.688
72409SOL    HW119059  10.468   8.101   9.629
72409SOL    HW219060  10.609   8.150   9.649
72410SOL     OW19061   4.852   1.538  14.798
72410SOL    HW119062   4.865   1.613  14.856
72410SOL    HW219063   4.913   1.472  14.829
72411SOL     OW19064   7.832   3.444   6.793
72411SOL    HW119065   7.838   3.526   6.745
72411SOL    HW219066   7.918   3.403   6.781
72412SOL     OW19067   0.547   3.505   2.694
72412SOL    HW119068   0.502   3.589   2.687
72412SOL    HW219069   0.489   3.443   2.648
72413SOL     OW19070   7.105   8.195   0.242
72413SOL    HW119071   7.075   8.268   0.297
72413SOL    HW219072   7.069   8.215   0.155
72414SOL     OW19073  14.209  11.516   3.579
72414SOL    HW119074  14.227  11.520   3.673
72414SOL    HW219075  14.220  11.424   3.556
72415SOL     OW19076   9.960   0.569   6.859
72415SOL    HW119077   9.925   0.648   6.819
72415SOL    HW219078   9.998   0.520   6.785
72416SOL     OW19079  14.236   2.364   7.123
72416SOL    HW119080  14.200   2.439   7.169
72416SOL    HW219081  14.315   2.341   7.173
72417SOL     OW19082   8.384   0.033  10.024
72417SOL    HW119083   8.453   0.057  10.086
72417SOL    HW219084   8.354   0.116   9.987
72418SOL     OW19085  12.870   5.556   9.674
72418SOL    HW119086  12.830   5.536   9.758
72418SOL    HW219087  12.812   5.517   9.609
72419SOL     OW19088  11.193  10.042  12.895
72419SOL    HW119089  11.244  10.024  12.816
72419SOL    HW219090  11.256  10.080  12.956
72420SOL     OW19091  10.154  10.468  14.267
72420SOL    HW119092  10.060  10.461  14.250
72420SOL    HW219093  10.195  10.454  14.181
72421SOL     OW19094   2.049   7.527   2.585
72421SOL    HW119095   2.036   7.588   2.513
72421SOL    HW219096   2.143   7.526   2.600
72422SOL     OW19097   1.758   3.759   5.521
72422SOL    HW119098   1.730   3.684   5.468
72422SOL    HW219099   1.781   3.826   5.458
72423SOL     OW19100   9.091  10.099   8.185
72423SOL    HW119101   9.038  10.167   8.143
72423SOL    HW219102   9.148  10.148   8.245
72424SOL     OW19103   9.402  10.930   6.370
72424SOL    HW119104   9.406  10.898   6.280
72424SOL    HW219105   9.492  10.960   6.388
72425SOL     OW19106   7.701   1.690   2.726
72425SOL    HW119107   7.696   1.618   2.663
72425SOL    HW219108   7.612   1.699   2.759
72426SOL     OW19109  10.014   5.063   9.567
72426SOL    HW119110   9.941   5.004   9.545
72426SOL    HW219111   9.980   5.118   9.637
72427SOL     OW19112   1.891   2.546   6.404
72427SOL    HW119113   1.807   2.538   6.358
72427SOL    HW219114   1.957   2.524   6.338
72428SOL     OW19115  12.687   4.194  14.841
72428SOL    HW119116  12.738   4.246   0.030
72428SOL    HW219117  12.698   4.104  14.871
72429SOL     OW19118   1.415  11.835   1.930
72429SOL    HW119119   1.438  11.886   2.008
72429SOL    HW219120   1.475  11.868   1.863
72430SOL     OW19121   0.791   7.911   6.536
72430SOL    HW119122   0.788   7.970   6.612
72430SOL    HW219123   0.758   7.827   6.569
72431SOL     OW19124   5.487   4.849  10.186
72431SOL    HW119125   5.548   4.920  10.205
72431SOL    HW219126   5.401   4.892  10.183
72432SOL     OW19127  11.317   7.956   9.490
72432SOL    HW119128  11.299   7.890   9.557
72432SOL    HW219129  11.266   8.032   9.516
72433SOL     OW19130   3.048   3.117  13.429
72433SOL    HW119131   2.956   3.137  13.412
72433SOL    HW219132   3.054   3.116  13.525
72434SOL     OW19133   9.726   4.365   2.006
72434SOL    HW119134   9.714   4.444   2.058
72434SOL    HW219135   9.817   4.338   2.022
72435SOL     OW19136  14.704  14.257  11.008
72435SOL    HW119137  14.692  14.331  11.067
72435SOL    HW219138  14.799  14.246  11.001
72436SOL     OW19139  11.007  13.884  10.186
72436SOL    HW119140  11.064  13.887  10.110
72436SOL    HW219141  11.066  13.893  10.261
72437SOL     OW19142   4.242  12.646  10.410
72437SOL    HW119143   4.218  12.634  10.318
72437SOL    HW219144   4.175  12.705  10.445
72438SOL     OW19145  11.415  13.161   6.861
72438SOL    HW119146  11.509  13.173   6.870
72438SOL    HW219147  11.377  13.210   6.933
72439SOL     OW19148   1.530  10.443   6.825
72439SOL    HW119149   1.553  10.503   6.895
72439SOL    HW219150   1.446  10.405   6.851
72440SOL     OW19151   5.506   0.370  10.200
72440SOL    HW119152   5.537   0.365  10.110
72440SOL    HW219153   5.435   0.435  10.196
72441SOL     OW19154   9.533   0.692   0.600
72441SOL    HW119155   9.475   0.648   0.662
72441SOL    HW219156   9.537   0.783   0.632
72442SOL     OW19157   0.720   8.134   0.667
72442SOL    HW119158   0.646   8.177   0.625
72442SOL    HW219159   0.683   8.056   0.707
72443SOL     OW19160   7.431  10.535   9.066
72443SOL    HW119161   7.355  10.527   9.123
72443SOL    HW219162   7.397  10.577   8.986
72444SOL     OW19163   7.104  13.765   2.472
72444SOL    HW119164   7.151  13.830   2.524
72444SOL    HW219165   7.159  13.752   2.395
72445SOL     OW19166   4.371  10.186   6.943
72445SOL    HW119167   4.432  10.204   7.014
72445SOL    HW219168   4.285  10.202   6.981
72446SOL     OW19169   3.075  13.199   4.969
72446SOL    HW119170   3.123  13.191   4.887
72446SOL    HW219171   2.999  13.141   4.958
72447SOL     OW19172   1.003   9.160   5.577
72447SOL    HW119173   1.045   9.227   5.630
72447SOL    HW219174   0.910   9.183   5.578
72448SOL     OW19175  14.760   7.771  13.397
72448SOL    HW119176  14.847   7.810  13.396
72448SOL    HW219177  14.719   7.804  13.477
72449SOL     OW19178   0.342   4.238  14.615
72449SOL    HW119179   0.280   4.234  14.542
72449SOL    HW219180   0.426   4.212  14.577
72450SOL     OW19181   2.365   3.691   1.516
72450SOL    HW119182   2.276   3.668   1.544
72450SOL    HW219183   2.353   3.739   1.435
72451SOL     OW19184   5.000  13.957  10.874
72451SOL    HW119185   4.985  14.049  10.897
72451SOL    HW219186   5.053  13.960  10.795
72452SOL     OW19187   0.658   5.124   0.703
72452SOL    HW119188   0.586   5.114   0.765
72452SOL    HW219189   0.654   5.216   0.677
72453SOL     OW19190   8.992   0.250   3.020
72453SOL    HW119191   8.977   0.336   3.059
72453SOL    HW219192   9.021   0.196   3.093
72454SOL     OW19193   6.575  10.669   8.395
72454SOL    HW119194   6.651  10.617   8.421
72454SOL    HW219195   6.500  10.610   8.408
72455SOL     OW19196  13.662   7.559   9.707
72455SOL    HW119197  13.686   7.613   9.632
72455SOL    HW219198  13.588   7.506   9.676
72456SOL     OW19199   7.476   1.346  13.464
72456SOL    HW119200   7.394   1.309  13.497
72456SOL    HW219201   7.544   1.304  13.516
72457SOL     OW19202  11.550   9.979   0.896
72457SOL    HW119203  11.636   9.965   0.856
72457SOL    HW219204  11.490   9.929   0.841
72458SOL     OW19205   2.559  13.686  12.440
72458SOL    HW119206   2.526  13.607  12.483
72458SOL    HW219207   2.587  13.657  12.354
72459SOL     OW19208   9.888  12.408  11.645
72459SOL    HW119209   9.845  12.322  11.643
72459SOL    HW219210   9.969  12.395  11.597
72460SOL     OW19211  12.865   1.545   1.167
72460SOL    HW119212  12.815   1.624   1.149
72460SOL    HW219213  12.936   1.546   1.103
72461SOL     OW19214   4.312   3.104   5.533
72461SOL    HW119215   4.386   3.099   5.594
72461SOL    HW219216   4.341   3.166   5.466
72462SOL     OW19217  10.429  14.341  12.586
72462SOL    HW119218  10.511  14.368  12.628
72462SOL    HW219219  10.451  14.334  12.493
72463SOL     OW19220   0.875  11.981   9.782
72463SOL    HW119221   0.944  11.924   9.817
72463SOL    HW219222   0.803  11.972   9.845
72464SOL     OW19223   7.348  11.239   7.991
72464SOL    HW119224   7.328  11.189   8.070
72464SOL    HW219225   7.441  11.261   8.000
72465SOL     OW19226  14.216   9.725   3.184
72465SOL    HW119227  14.258   9.796   3.233
72465SOL    HW219228  14.191   9.662   3.251
72466SOL     OW19229  10.062   4.307  13.008
72466SOL    HW119230  10.153   4.334  12.995
72466SOL    HW219231  10.012   4.388  13.003
72467SOL     OW19232   5.222   7.440  10.535
72467SOL    HW119233   5.137   7.396  10.522
72467SOL    HW219234   5.257   7.400  10.614
72468SOL     OW19235   7.072   4.389  13.766
72468SOL    HW119236   7.046   4.371  13.856
72468SOL    HW219237   7.164   4.364  13.761
72469SOL     OW19238  13.813  14.211   7.501
72469SOL    HW119239  13.874  14.229   7.571
72469SOL    HW219240  13.867  14.200   7.423
72470SOL     OW19241   4.122   1.946   0.475
72470SOL    HW119242   4.060   2.015   0.451
72470SOL    HW219243   4.121   1.886   0.401
72471SOL     OW19244   0.996   5.790   6.595
72471SOL    HW119245   0.973   5.747   6.513
72471SOL    HW219246   0.953   5.875   6.591
72472SOL     OW19247  10.820   0.902   5.634
72472SOL    HW119248  10.797   0.995   5.630
72472SOL    HW219249  10.897   0.894   5.578
72473SOL     OW19250   8.335  11.852   0.117
72473SOL    HW119251   8.284  11.931   0.136
72473SOL    HW219252   8.291  11.812   0.042
72474SOL     OW19253   2.262   1.223   5.249
72474SOL    HW119254   2.197   1.265   5.306
72474SOL    HW219255   2.340   1.215   5.303
72475SOL     OW19256   1.123   5.729   9.210
72475SOL    HW119257   1.138   5.670   9.284
72475SOL    HW219258   1.029   5.745   9.211
72476SOL     OW19259   3.316   7.105   5.230
72476SOL    HW119260   3.356   7.162   5.296
72476SOL    HW219261   3.325   7.154   5.148
72477SOL     OW19262  12.741  10.125  14.255
72477SOL    HW119263  12.672  10.143  14.317
72477SOL    HW219264  12.746  10.030  14.251
72478SOL     OW19265   5.979  10.232   0.477
72478SOL    HW119266   5.973  10.212   0.384
72478SOL    HW219267   6.070  10.213   0.501
72479SOL     OW19268  10.134   2.609  13.820
72479SOL    HW119269  10.204   2.582  13.761
72479SOL    HW219270  10.054   2.577  13.779
72480SOL     OW19271   5.126  13.706   3.385
72480SOL    HW119272   5.157  13.769   3.450
72480SOL    HW219273   5.112  13.757   3.306
72481SOL     OW19274   1.636   4.487   4.579
72481SOL    HW119275   1.643   4.579   4.555
72481SOL    HW219276   1.578   4.486   4.655
72482SOL     OW19277   6.808   6.293  10.398
72482SOL    HW119278   6.792   6.375  10.443
72482SOL    HW219279   6.775   6.307  10.309
72483SOL     OW19280   7.424  12.427   3.004
72483SOL    HW119281   7.383  12.511   3.026
72483SOL    HW219282   7.514  12.449   2.982
72484SOL     OW19283  10.213   3.625   5.907
72484SOL    HW119284  10.173   3.703   5.869
72484SOL    HW219285  10.305   3.649   5.922
72485SOL     OW19286   1.546   6.981  10.714
72485SOL    HW119287   1.584   6.907  10.762
72485SOL    HW219288   1.558   7.056  10.772
72486SOL     OW19289   0.384  14.072   4.339
72486SOL    HW119290   0.302  14.091   4.293
72486SOL    HW219291   0.404  13.981   4.315
72487SOL     OW19292   4.664  10.156  13.591
72487SOL    HW119293   4.757  10.175  13.579
72487SOL    HW219294   4.633  10.131  13.504
72488SOL     OW19295  14.602   6.968   9.595
72488SOL    HW119296  14.679   6.913   9.612
72488SOL    HW219297  14.617   7.047   9.646
72489SOL     OW19298   5.089   2.912   3.684
72489SOL    HW119299   5.009   2.892   3.635
72489SOL    HW219300   5.077   3.003   3.713
72490SOL     OW19301   9.105   3.911   8.088
72490SOL    HW119302   9.120   3.819   8.065
72490SOL    HW219303   9.164   3.960   8.031
72491SOL     OW19304   2.964   1.923   2.469
72491SOL    HW119305   2.973   1.888   2.381
72491SOL    HW219306   3.052   1.916   2.508
72492SOL     OW19307   4.500   4.562   6.805
72492SOL    HW119308   4.537   4.618   6.873
72492SOL    HW219309   4.539   4.596   6.723
72493SOL     OW19310  11.154   1.496  12.329
72493SOL    HW119311  11.078   1.491  12.387
72493SOL    HW219312  11.136   1.433  12.260
72494SOL     OW19313   9.469   4.938   5.009
72494SOL    HW119314   9.440   4.977   4.927
72494SOL    HW219315   9.558   4.970   5.021
72495SOL     OW19316   0.520   3.508  11.703
72495SOL    HW119317   0.488   3.432  11.752
72495SOL    HW219318   0.602   3.478  11.664
72496SOL     OW19319   0.176  13.832  12.908
72496SOL    HW119320   0.167  13.756  12.966
72496SOL    HW219321   0.241  13.804  12.844
72497SOL     OW19322   5.156  11.020  12.759
72497SOL    HW119323   5.217  11.037  12.830
72497SOL    HW219324   5.208  11.028  12.679
72498SOL     OW19325  11.838  12.657   0.636
72498SOL    HW119326  11.807  12.703   0.715
72498SOL    HW219327  11.930  12.638   0.654
72499SOL     OW19328  11.272   3.360   5.578
72499SOL    HW119329  11.330   3.391   5.508
72499SOL    HW219330  11.218   3.293   5.535
72500SOL     OW19331   7.860  10.719   3.625
72500SOL    HW119332   7.920  10.788   3.654
72500SOL    HW219333   7.890  10.696   3.537
72501SOL     OW19334  11.206   4.820   0.322
72501SOL    HW119335  11.185   4.849   0.234
72501SOL    HW219336  11.152   4.875   0.379
72502SOL     OW19337   5.338   7.337   6.904
72502SOL    HW119338   5.316   7.267   6.965
72502SOL    HW219339   5.381   7.403   6.957
72503SOL     OW19340   1.169   2.109  10.041
72503SOL    HW119341   1.262   2.117  10.020
72503SOL    HW219342   1.167   2.079  10.132
72504SOL     OW19343   5.220   2.507   3.701
72504SOL    HW119344   5.253   2.540   3.618
72504SOL    HW219345   5.162   2.434   3.678
72505SOL     OW19346   1.742   8.601  14.369
72505SOL    HW119347   1.769   8.510  14.364
72505SOL    HW219348   1.811   8.644  14.419
72506SOL     OW19349  14.388  11.406   1.443
72506SOL    HW119350  14.294  11.414   1.461
72506SOL    HW219351  14.430  11.438   1.522
72507SOL     OW19352   3.474  13.677  10.851
72507SOL    HW119353   3.452  13.588  10.876
72507SOL    HW219354   3.538  13.705  10.917
72508SOL     OW19355   3.897   7.890   3.955
72508SOL    HW119356   3.803   7.905   3.946
72508SOL    HW219357   3.904   7.803   3.994
72509SOL     OW19358  10.367  14.446  14.827
72509SOL    HW119359  10.305  14.373  14.837
72509SOL    HW219360  10.421  14.441   0.033
72510SOL     OW19361   0.959   6.587   6.720
72510SOL    HW119362   0.975   6.616   6.809
72510SOL    HW219363   0.881   6.636   6.693
72511SOL     OW19364  12.245  10.782   2.625
72511SOL    HW119365  12.202  10.709   2.670
72511SOL    HW219366  12.229  10.766   2.532
72512SOL     OW19367   2.774  12.057   0.492
72512SOL    HW119368   2.758  12.149   0.471
72512SOL    HW219369   2.806  12.058   0.582
72513SOL     OW19370   4.679  11.849   0.453
72513SOL    HW119371   4.686  11.866   0.547
72513SOL    HW219372   4.720  11.764   0.441
72514SOL     OW19373  10.859   6.715   6.578
72514SOL    HW119374  10.849   6.645   6.514
72514SOL    HW219375  10.826   6.678   6.660
72515SOL     OW19376   7.523  12.757   1.243
72515SOL    HW119377   7.603  12.704   1.239
72515SOL    HW219378   7.469  12.725   1.171
72516SOL     OW19379  13.510   7.868  12.681
72516SOL    HW119380  13.555   7.846  12.599
72516SOL    HW219381  13.421   7.892  12.654
72517SOL     OW19382  12.756  10.299  12.180
72517SOL    HW119383  12.777  10.215  12.140
72517SOL    HW219384  12.807  10.363  12.131
72518SOL     OW19385   4.822   8.940   5.563
72518SOL    HW119386   4.804   8.847   5.549
72518SOL    HW219387   4.813   8.951   5.658
72519SOL     OW19388  14.049   8.375   1.080
72519SOL    HW119389  14.118   8.309   1.082
72519SOL    HW219390  13.996   8.357   1.157
72520SOL     OW19391   7.677  10.637  13.178
72520SOL    HW119392   7.692  10.674  13.091
72520SOL    HW219393   7.583  10.644  13.192
72521SOL     OW19394   4.732   2.945   3.908
72521SOL    HW119395   4.775   3.030   3.900
72521SOL    HW219396   4.642   2.965   3.935
72522SOL     OW19397   5.175   0.156   2.352
72522SOL    HW119398   5.145   0.234   2.305
72522SOL    HW219399   5.187   0.090   2.284
72523SOL     OW19400   4.940  14.041   7.084
72523SOL    HW119401   5.024  13.995   7.091
72523SOL    HW219402   4.950  14.117   7.140
72524SOL     OW19403   5.375   4.859   5.422
72524SOL    HW119404   5.407   4.817   5.342
72524SOL    HW219405   5.396   4.952   5.410
72525SOL     OW19406  12.967   5.923   9.008
72525SOL    HW119407  13.013   5.975   9.075
72525SOL    HW219408  12.952   5.985   8.937
72526SOL     OW19409  14.684   8.004  11.818
72526SOL    HW119410  14.696   8.095  11.843
72526SOL    HW219411  14.606   7.976  11.866
72527SOL     OW19412   5.899   8.123  14.836
72527SOL    HW119413   5.949   8.179  14.776
72527SOL    HW219414   5.932   8.035  14.819
72528SOL     OW19415  11.421   7.284   8.475
72528SOL    HW119416  11.343   7.314   8.522
72528SOL    HW219417  11.396   7.289   8.382
72529SOL     OW19418  11.405   1.516   6.542
72529SOL    HW119419  11.423   1.428   6.574
72529SOL    HW219420  11.458   1.524   6.463
72530SOL     OW19421   8.949  10.916  14.369
72530SOL    HW119422   9.024  10.919  14.310
72530SOL    HW219423   8.962  10.990  14.428
72531SOL     OW19424  11.809   1.207  10.582
72531SOL    HW119425  11.747   1.255  10.637
72531SOL    HW219426  11.895   1.230  10.616
72532SOL     OW19427   1.704   5.056   8.676
72532SOL    HW119428   1.641   5.097   8.617
72532SOL    HW219429   1.660   4.976   8.707
72533SOL     OW19430   6.744  10.908   3.218
72533SOL    HW119431   6.816  10.866   3.171
72533SOL    HW219432   6.699  10.836   3.263
72534SOL     OW19433   5.142   4.185   0.681
72534SOL    HW119434   5.183   4.263   0.644
72534SOL    HW219435   5.175   4.113   0.628
72535SOL     OW19436   6.033   0.990  11.150
72535SOL    HW119437   6.096   1.025  11.087
72535SOL    HW219438   5.950   1.029  11.126
72536SOL     OW19439  12.973   6.087  10.340
72536SOL    HW119440  13.034   6.117  10.407
72536SOL    HW219441  12.943   6.001  10.371
72537SOL     OW19442   8.407   0.840   4.716
72537SOL    HW119443   8.323   0.832   4.670
72537SOL    HW219444   8.465   0.883   4.653
72538SOL     OW19445   0.654  11.089   8.624
72538SOL    HW119446   0.692  11.177   8.628
72538SOL    HW219447   0.690  11.050   8.545
72539SOL     OW19448   8.389  11.670   0.661
72539SOL    HW119449   8.318  11.694   0.720
72539SOL    HW219450   8.401  11.576   0.675
72540SOL     OW19451  12.143   6.283   4.860
72540SOL    HW119452  12.106   6.196   4.873
72540SOL    HW219453  12.105   6.336   4.931
72541SOL     OW19454  14.824   1.024   0.822
72541SOL    HW119455  14.730   1.030   0.803
72541SOL    HW219456  14.858   1.112   0.806
72542SOL     OW19457   9.831   7.119  13.227
72542SOL    HW119458   9.740   7.150  13.225
72542SOL    HW219459   9.868   7.148  13.143
72543SOL     OW19460   0.291  13.157  13.330
72543SOL    HW119461   0.258  13.246  13.340
72543SOL    HW219462   0.273  13.135  13.238
72544SOL     OW19463   2.300  11.902  13.507
72544SOL    HW119464   2.338  11.816  13.524
72544SOL    HW219465   2.205  11.889  13.518
72545SOL     OW19466   9.023   6.666   7.773
72545SOL    HW119467   8.984   6.657   7.860
72545SOL    HW219468   8.951   6.649   7.713
72546SOL     OW19469  13.564   5.312  10.848
72546SOL    HW119470  13.548   5.291  10.756
72546SOL    HW219471  13.533   5.402  10.859
72547SOL     OW19472   8.618   9.418  10.686
72547SOL    HW119473   8.624   9.450  10.776
72547SOL    HW219474   8.575   9.333  10.694
72548SOL     OW19475  14.241   6.001  14.870
72548SOL    HW119476  14.264   6.093  14.855
72548SOL    HW219477  14.326   5.956   0.001
72549SOL     OW19478   5.814   4.532  12.942
72549SOL    HW119479   5.871   4.601  12.910
72549SOL    HW219480   5.801   4.553  13.035
72550SOL     OW19481   4.320  13.618   3.045
72550SOL    HW119482   4.228  13.635   3.024
72550SOL    HW219483   4.327  13.523   3.048
72551SOL     OW19484   7.306   0.750   4.256
72551SOL    HW119485   7.276   0.737   4.346
72551SOL    HW219486   7.225   0.755   4.205
72552SOL     OW19487  12.506   3.042   2.126
72552SOL    HW119488  12.557   2.968   2.158
72552SOL    HW219489  12.418   3.007   2.113
72553SOL     OW19490  12.482   3.848   0.702
72553SOL    HW119491  12.516   3.786   0.767
72553SOL    HW219492  12.549   3.917   0.697
72554SOL     OW19493   8.946   5.208  10.277
72554SOL    HW119494   8.947   5.244  10.188
72554SOL    HW219495   8.985   5.276  10.331
72555SOL     OW19496   3.844   8.135   1.188
72555SOL    HW119497   3.898   8.191   1.245
72555SOL    HW219498   3.839   8.183   1.106
72556SOL     OW19499  12.192   9.323  13.411
72556SOL    HW119500  12.185   9.240  13.364
72556SOL    HW219501  12.203   9.297  13.503
72557SOL     OW19502  12.686   0.506   8.769
72557SOL    HW119503  12.592   0.497   8.780
72557SOL    HW219504  12.724   0.470   8.849
72558SOL     OW19505   4.244   1.508   4.390
72558SOL    HW119506   4.309   1.575   4.369
72558SOL    HW219507   4.287   1.425   4.370
72559SOL     OW19508   0.759   6.271   2.692
72559SOL    HW119509   0.824   6.216   2.649
72559SOL    HW219510   0.807   6.350   2.716
72560SOL     OW19511   5.869   5.614   9.624
72560SOL    HW119512   5.892   5.588   9.535
72560SOL    HW219513   5.947   5.594   9.676
72561SOL     OW19514   9.187  11.413   9.457
72561SOL    HW119515   9.250  11.467   9.408
72561SOL    HW219516   9.116  11.398   9.396
72562SOL     OW19517   1.530  12.190  13.713
72562SOL    HW119518   1.589  12.174  13.787
72562SOL    HW219519   1.522  12.285  13.709
72563SOL     OW19520   6.732   4.042   5.409
72563SOL    HW119521   6.723   4.068   5.500
72563SOL    HW219522   6.822   4.011   5.401
72564SOL     OW19523   6.528   6.028   8.083
72564SOL    HW119524   6.561   5.986   8.162
72564SOL    HW219525   6.548   6.121   8.094
72565SOL     OW19526   0.281   7.375  13.404
72565SOL    HW119527   0.326   7.298  13.368
72565SOL    HW219528   0.257   7.349  13.493
72566SOL     OW19529   5.492  12.463   2.540
72566SOL    HW119530   5.562  12.397   2.545
72566SOL    HW219531   5.429  12.426   2.478
72567SOL     OW19532   0.891   5.492   6.041
72567SOL    HW119533   0.919   5.570   5.992
72567SOL    HW219534   0.969   5.437   6.045
72568SOL     OW19535  10.819   3.964   1.806
72568SOL    HW119536  10.742   3.952   1.862
72568SOL    HW219537  10.826   4.058   1.794
72569SOL     OW19538   0.141   8.522   3.399
72569SOL    HW119539   0.221   8.471   3.389
72569SOL    HW219540   0.170   8.613   3.402
72570SOL     OW19541  14.232   0.231  12.569
72570SOL    HW119542  14.151   0.192  12.536
72570SOL    HW219543  14.221   0.325  12.552
72571SOL     OW19544  14.160   1.742   8.118
72571SOL    HW119545  14.162   1.669   8.180
72571SOL    HW219546  14.185   1.703   8.034
72572SOL     OW19547   7.289   1.020  14.601
72572SOL    HW119548   7.276   0.926  14.617
72572SOL    HW219549   7.227   1.062  14.660
72573SOL     OW19550   6.170  14.769   6.196
72573SOL    HW119551   6.206  14.727   6.274
72573SOL    HW219552   6.169  14.700   6.129
72574SOL     OW19553  13.111   5.320   3.316
72574SOL    HW119554  13.163   5.394   3.283
72574SOL    HW219555  13.158   5.243   3.287
72575SOL     OW19556  11.887  14.127   0.258
72575SOL    HW119557  11.852  14.185   0.326
72575SOL    HW219558  11.937  14.185   0.200
72576SOL     OW19559   4.487   1.414   1.830
72576SOL    HW119560   4.545   1.457   1.767
72576SOL    HW219561   4.538   1.341   1.864
72577SOL     OW19562   9.852   8.392   2.968
72577SOL    HW119563   9.831   8.403   3.061
72577SOL    HW219564   9.768   8.373   2.926
72578SOL     OW19565  11.761   8.255   6.719
72578SOL    HW119566  11.714   8.203   6.785
72578SOL    HW219567  11.850   8.262   6.754
72579SOL     OW19568   4.954  10.714   5.216
72579SOL    HW119569   5.045  10.685   5.223
72579SOL    HW219570   4.942  10.773   5.291
72580SOL     OW19571   1.194   2.736   4.695
72580SOL    HW119572   1.237   2.671   4.752
72580SOL    HW219573   1.190   2.815   4.749
72581SOL     OW19574   2.613  11.966  12.491
72581SOL    HW119575   2.575  12.003  12.411
72581SOL    HW219576   2.550  11.986  12.560
72582SOL     OW19577  13.256  13.751   2.217
72582SOL    HW119578  13.329  13.693   2.237
72582SOL    HW219579  13.189  13.692   2.181
72583SOL     OW19580   3.904   1.826   7.360
72583SOL    HW119581   3.821   1.870   7.380
72583SOL    HW219582   3.927   1.858   7.273
72584SOL     OW19583   2.386   9.324   0.995
72584SOL    HW119584   2.446   9.313   0.921
72584SOL    HW219585   2.299   9.317   0.957
72585SOL     OW19586   4.139  10.054  13.825
72585SOL    HW119587   4.076   9.987  13.798
72585SOL    HW219588   4.218  10.035  13.774
72586SOL     OW19589   0.039   0.774   2.685
72586SOL    HW119590   0.036   0.831   2.608
72586SOL    HW219591   0.000   0.826   2.755
72587SOL     OW19592   5.332   8.262  14.574
72587SOL    HW119593   5.317   8.172  14.548
72587SOL    HW219594   5.326   8.261  14.670
72588SOL     OW19595   3.685   8.966  14.752
72588SOL    HW119596   3.713   9.011  14.672
72588SOL    HW219597   3.670   9.036  14.815
72589SOL     OW19598  14.845   6.654   3.476
72589SOL    HW119599   0.046   6.593   3.486
72589SOL    HW219600  14.824   6.682   3.565
72590SOL     OW19601  10.872  10.903  13.724
72590SOL    HW119602  10.830  10.989  13.733
72590SOL    HW219603  10.866  10.865  13.812
72591SOL     OW19604   5.425   3.354   2.902
72591SOL    HW119605   5.494   3.307   2.947
72591SOL    HW219606   5.365   3.287   2.872
72592SOL     OW19607  12.719  11.470  10.812
72592SOL    HW119608  12.671  11.416  10.748
72592SOL    HW219609  12.716  11.419  10.893
72593SOL     OW19610  11.964   4.314   3.712
72593SOL    HW119611  11.881   4.282   3.676
72593SOL    HW219612  12.003   4.365   3.641
72594SOL     OW19613   7.684   8.020   2.215
72594SOL    HW119614   7.608   7.971   2.182
72594SOL    HW219615   7.745   7.952   2.244
72595SOL     OW19616   6.048  10.532  11.876
72595SOL    HW119617   6.078  10.605  11.929
72595SOL    HW219618   6.076  10.454  11.924
72596SOL     OW19619   1.227   0.309  13.157
72596SOL    HW119620   1.185   0.224  13.166
72596SOL    HW219621   1.264   0.309  13.069
72597SOL     OW19622   8.153   8.033   1.760
72597SOL    HW119623   8.182   8.022   1.669
72597SOL    HW219624   8.158   8.127   1.776
72598SOL     OW19625   8.446   0.967   4.940
72598SOL    HW119626   8.436   0.909   4.864
72598SOL    HW219627   8.492   0.914   5.005
72599SOL     OW19628   7.535  12.997   1.468
72599SOL    HW119629   7.547  12.926   1.405
72599SOL    HW219630   7.537  13.076   1.415
72600SOL     OW19631  12.484   7.113  12.824
72600SOL    HW119632  12.571   7.084  12.853
72600SOL    HW219633  12.431   7.112  12.903
72601SOL     OW19634  10.333  11.241  13.364
72601SOL    HW119635  10.379  11.186  13.300
72601SOL    HW219636  10.382  11.228  13.445
72602SOL     OW19637   0.544   2.712   1.765
72602SOL    HW119638   0.463   2.704   1.814
72602SOL    HW219639   0.534   2.793   1.715
72603SOL     OW19640   1.694  13.873  11.616
72603SOL    HW119641   1.734  13.852  11.700
72603SOL    HW219642   1.636  13.947  11.636
72604SOL     OW19643  10.994   4.888   6.503
72604SOL    HW119644  10.999   4.891   6.408
72604SOL    HW219645  10.986   4.795   6.523
72605SOL     OW19646   2.743   5.744   5.082
72605SOL    HW119647   2.732   5.788   5.167
72605SOL    HW219648   2.748   5.651   5.104
72606SOL     OW19649   9.032   3.586   5.457
72606SOL    HW119650   8.960   3.621   5.405
72606SOL    HW219651   9.102   3.570   5.394
72607SOL     OW19652   4.711   2.790   6.763
72607SOL    HW119653   4.729   2.778   6.669
72607SOL    HW219654   4.743   2.878   6.782
72608SOL     OW19655   2.519   0.871   2.158
72608SOL    HW119656   2.569   0.814   2.100
72608SOL    HW219657   2.446   0.817   2.188
72609SOL     OW19658  14.358  12.960  11.678
72609SOL    HW119659  14.373  13.020  11.605
72609SOL    HW219660  14.277  12.914  11.654
72610SOL     OW19661   9.618   2.782   6.137
72610SOL    HW119662   9.675   2.706   6.126
72610SOL    HW219663   9.653   2.827   6.213
72611SOL     OW19664  13.935   8.099   3.761
72611SOL    HW119665  13.924   8.186   3.723
72611SOL    HW219666  13.864   8.047   3.723
72612SOL     OW19667   6.649   0.742  13.481
72612SOL    HW119668   6.715   0.684  13.519
72612SOL    HW219669   6.577   0.740  13.544
72613SOL     OW19670  12.434   2.586   9.716
72613SOL    HW119671  12.369   2.545   9.773
72613SOL    HW219672  12.403   2.567   9.627
72614SOL     OW19673   5.825  14.614  10.914
72614SOL    HW119674   5.736  14.599  10.946
72614SOL    HW219675   5.816  14.617  10.819
72615SOL     OW19676   3.992   1.374   1.073
72615SOL    HW119677   3.914   1.401   1.023
72615SOL    HW219678   4.056   1.351   1.006
72616SOL     OW19679   5.785   4.858  11.241
72616SOL    HW119680   5.805   4.943  11.281
72616SOL    HW219681   5.694   4.865  11.213
72617SOL     OW19682  12.780   1.079  11.662
72617SOL    HW119683  12.706   1.110  11.610
72617SOL    HW219684  12.750   1.084  11.752
72618SOL     OW19685  14.048   4.448   9.525
72618SOL    HW119686  13.979   4.382   9.528
72618SOL    HW219687  14.067   4.459   9.432
72619SOL     OW19688  11.541  14.668  12.983
72619SOL    HW119689  11.525  14.740  12.922
72619SOL    HW219690  11.476  14.680  13.052
72620SOL     OW19691   9.562  11.399   0.561
72620SOL    HW119692   9.472  11.387   0.590
72620SOL    HW219693   9.600  11.460   0.624
72621SOL     OW19694  14.356   4.728   8.482
72621SOL    HW119695  14.361   4.815   8.443
72621SOL    HW219696  14.348   4.669   8.408
72622SOL     OW19697   2.745   0.501   8.817
72622SOL    HW119698   2.649   0.509   8.818
72622SOL    HW219699   2.761   0.417   8.774
72623SOL     OW19700   6.287   7.507   8.310
72623SOL    HW119701   6.266   7.594   8.345
72623SOL    HW219702   6.374   7.518   8.270
72624SOL     OW19703  12.853   4.935  13.977
72624SOL    HW119704  12.793   4.928  13.903
72624SOL    HW219705  12.797   4.926  14.054
72625SOL     OW19706  12.153  12.348  13.986
72625SOL    HW119707  12.241  12.324  14.016
72625SOL    HW219708  12.166  12.431  13.940
72626SOL     OW19709   2.466   2.092   5.137
72626SOL    HW119710   2.469   2.068   5.230
72626SOL    HW219711   2.396   2.038   5.101
72627SOL     OW19712  14.852   1.748   9.321
72627SOL    HW119713   0.063   1.720   9.282
72627SOL    HW219714  14.810   1.667   9.349
72628SOL     OW19715   4.415  13.907  10.420
72628SOL    HW119716   4.436  13.946  10.335
72628SOL    HW219717   4.450  13.970  10.484
72629SOL     OW19718  10.968   9.909  12.816
72629SOL    HW119719  11.036   9.948  12.871
72629SOL    HW219720  10.922   9.984  12.778
72630SOL     OW19721   8.590   5.837   6.008
72630SOL    HW119722   8.635   5.785   6.074
72630SOL    HW219723   8.651   5.907   5.986
72631SOL     OW19724   1.985   4.404   2.154
72631SOL    HW119725   1.901   4.379   2.192
72631SOL    HW219726   2.005   4.332   2.093
72632SOL     OW19727   3.113  14.636   1.983
72632SOL    HW119728   3.025  14.604   2.005
72632SOL    HW219729   3.098  14.707   1.920
72633SOL     OW19730   9.642   1.652  10.481
72633SOL    HW119731   9.676   1.579  10.533
72633SOL    HW219732   9.567   1.616  10.434
72634SOL     OW19733   2.163  10.888   9.762
72634SOL    HW119734   2.091  10.843   9.716
72634SOL    HW219735   2.238  10.830   9.752
72635SOL     OW19736  14.390  13.336   4.936
72635SOL    HW119737  14.349  13.280   4.870
72635SOL    HW219738  14.481  13.306   4.939
72636SOL     OW19739   4.280   0.220   6.008
72636SOL    HW119740   4.301   0.129   5.987
72636SOL    HW219741   4.189   0.232   5.980
72637SOL     OW19742  11.669   0.576   3.206
72637SOL    HW119743  11.665   0.536   3.119
72637SOL    HW219744  11.688   0.668   3.189
72638SOL     OW19745  13.941   8.757   3.092
72638SOL    HW119746  14.012   8.696   3.105
72638SOL    HW219747  13.971   8.838   3.133
72639SOL     OW19748  14.552   8.710   0.549
72639SOL    HW119749  14.618   8.642   0.564
72639SOL    HW219750  14.569   8.741   0.461
72640SOL     OW19751  11.110   8.052   0.969
72640SOL    HW119752  11.128   8.136   1.011
72640SOL    HW219753  11.172   7.991   1.009
72641SOL     OW19754   9.322  10.169  11.266
72641SOL    HW119755   9.248  10.161  11.206
72641SOL    HW219756   9.312  10.095  11.326
72642SOL     OW19757  12.758   4.639  12.886
72642SOL    HW119758  12.673   4.657  12.927
72642SOL    HW219759  12.746   4.554  12.844
72643SOL     OW19760   6.247   7.548   2.653
72643SOL    HW119761   6.194   7.583   2.725
72643SOL    HW219762   6.184   7.527   2.584
72644SOL     OW19763  12.169   5.868   7.432
72644SOL    HW119764  12.174   5.957   7.467
72644SOL    HW219765  12.175   5.879   7.337
72645SOL     OW19766   7.906  11.032  11.158
72645SOL    HW119767   7.890  10.938  11.168
72645SOL    HW219768   7.844  11.073  11.218
72646SOL     OW19769  12.845   4.796  12.023
72646SOL    HW119770  12.864   4.703  12.033
72646SOL    HW219771  12.754   4.805  12.053
72647SOL     OW19772  10.624  13.749   9.347
72647SOL    HW119773  10.675  13.709   9.277
72647SOL    HW219774  10.553  13.688   9.365
72648SOL     OW19775   7.715  13.226   6.214
72648SOL    HW119776   7.651  13.270   6.270
72648SOL    HW219777   7.675  13.228   6.127
72649SOL     OW19778   6.711   3.207  10.036
72649SOL    HW119779   6.657   3.280  10.008
72649SOL    HW219780   6.657   3.160  10.099
72650SOL     OW19781  12.971  10.337   3.875
72650SOL    HW119782  12.914  10.348   3.799
72650SOL    HW219783  13.035  10.272   3.848
72651SOL     OW19784   6.662   8.768  10.297
72651SOL    HW119785   6.608   8.818  10.357
72651SOL    HW219786   6.603   8.700  10.263
72652SOL     OW19787   1.046   3.064   5.654
72652SOL    HW119788   0.988   3.140   5.656
72652SOL    HW219789   1.125   3.096   5.610
72653SOL     OW19790   7.121   7.229  12.588
72653SOL    HW119791   7.089   7.273  12.666
72653SOL    HW219792   7.118   7.136  12.610
72654SOL     OW19793   2.691   2.563   2.139
72654SOL    HW119794   2.732   2.516   2.212
72654SOL    HW219795   2.764   2.601   2.090
72655SOL     OW19796   2.208   7.738   0.191
72655SOL    HW119797   2.302   7.751   0.190
72655SOL    HW219798   2.196   7.646   0.215
72656SOL     OW19799   7.396   2.568   5.848
72656SOL    HW119800   7.340   2.644   5.865
72656SOL    HW219801   7.403   2.524   5.932
72657SOL     OW19802   4.572   8.080   3.149
72657SOL    HW119803   4.598   8.169   3.172
72657SOL    HW219804   4.627   8.057   3.074
72658SOL     OW19805   2.349  11.670  12.984
72658SOL    HW119806   2.404  11.670  12.905
72658SOL    HW219807   2.302  11.753  12.981
72659SOL     OW19808   9.945   2.507   4.574
72659SOL    HW119809  10.021   2.564   4.586
72659SOL    HW219810   9.982   2.420   4.559
72660SOL     OW19811   9.264   6.597  14.027
72660SOL    HW119812   9.358   6.617  14.018
72660SOL    HW219813   9.239   6.639  14.109
72661SOL     OW19814  13.777  13.997   9.184
72661SOL    HW119815  13.789  13.902   9.185
72661SOL    HW219816  13.821  14.026   9.103
72662SOL     OW19817   7.493   7.434  13.492
72662SOL    HW119818   7.571   7.472  13.531
72662SOL    HW219819   7.446   7.394  13.566
72663SOL     OW19820   7.860   2.645   1.083
72663SOL    HW119821   7.852   2.558   1.044
72663SOL    HW219822   7.899   2.699   1.014
72664SOL     OW19823   6.228   0.619  11.337
72664SOL    HW119824   6.218   0.616  11.242
72664SOL    HW219825   6.297   0.555  11.356
72665SOL     OW19826   2.408   6.464   7.179
72665SOL    HW119827   2.415   6.371   7.157
72665SOL    HW219828   2.329   6.493   7.135
72666SOL     OW19829  14.863   9.071  14.707
72666SOL    HW119830   0.071   9.111  14.672
72666SOL    HW219831   0.011   9.051  14.798
72667SOL     OW19832   0.682  12.078  10.957
72667SOL    HW119833   0.764  12.115  10.991
72667SOL    HW219834   0.614  12.130  10.999
72668SOL     OW19835   4.440   9.539   6.465
72668SOL    HW119836   4.470   9.592   6.391
72668SOL    HW219837   4.445   9.598   6.540
72669SOL     OW19838  11.762   1.578   8.153
72669SOL    HW119839  11.828   1.640   8.184
72669SOL    HW219840  11.686   1.594   8.209
72670SOL     OW19841   3.747   9.736  11.749
72670SOL    HW119842   3.720   9.645  11.764
72670SOL    HW219843   3.769   9.739  11.655
72671SOL     OW19844   6.883   2.372   6.931
72671SOL    HW119845   6.931   2.351   7.011
72671SOL    HW219846   6.928   2.450   6.896
72672SOL     OW19847   9.646  12.131   2.748
72672SOL    HW119848   9.736  12.142   2.717
72672SOL    HW219849   9.622  12.218   2.781
72673SOL     OW19850  13.697   2.231  11.691
72673SOL    HW119851  13.712   2.318  11.728
72673SOL    HW219852  13.601   2.222  11.690
72674SOL     OW19853   5.854  14.675   2.293
72674SOL    HW119854   5.866  14.741   2.225
72674SOL    HW219855   5.936  14.626   2.294
72675SOL     OW19856  10.194   0.588   8.960
72675SOL    HW119857  10.177   0.504   8.917
72675SOL    HW219858  10.275   0.619   8.921
72676SOL     OW19859   6.510   1.518  13.573
72676SOL    HW119860   6.462   1.435  13.575
72676SOL    HW219861   6.598   1.495  13.603
72677SOL     OW19862  14.653   5.850   9.804
72677SOL    HW119863  14.634   5.904   9.880
72677SOL    HW219864  14.718   5.786   9.835
72678SOL     OW19865   5.155   7.836  11.359
72678SOL    HW119866   5.069   7.870  11.386
72678SOL    HW219867   5.200   7.817  11.442
72679SOL     OW19868  12.391  12.091   0.613
72679SOL    HW119869  12.403  12.120   0.703
72679SOL    HW219870  12.432  12.160   0.560
72680SOL     OW19871   5.585   0.559   3.054
72680SOL    HW119872   5.580   0.469   3.024
72680SOL    HW219873   5.494   0.584   3.070
72681SOL     OW19874   7.142   4.379   3.264
72681SOL    HW119875   7.236   4.395   3.274
72681SOL    HW219876   7.102   4.466   3.262
72682SOL     OW19877   7.938   0.480   2.447
72682SOL    HW119878   7.944   0.392   2.411
72682SOL    HW219879   7.993   0.533   2.389
72683SOL     OW19880   2.584   6.935   2.245
72683SOL    HW119881   2.646   6.946   2.173
72683SOL    HW219882   2.501   6.914   2.202
72684SOL     OW19883   7.461   9.454   4.757
72684SOL    HW119884   7.477   9.445   4.663
72684SOL    HW219885   7.455   9.364   4.788
72685SOL     OW19886   9.902  10.701   2.749
72685SOL    HW119887   9.980  10.647   2.740
72685SOL    HW219888   9.871  10.685   2.838
72686SOL     OW19889   5.710  12.169  11.784
72686SOL    HW119890   5.746  12.092  11.739
72686SOL    HW219891   5.754  12.243  11.742
72687SOL     OW19892   7.534  10.041   1.601
72687SOL    HW119893   7.619  10.006   1.627
72687SOL    HW219894   7.551  10.134   1.582
72688SOL     OW19895   0.285   2.199  11.276
72688SOL    HW119896   0.217   2.147  11.321
72688SOL    HW219897   0.335   2.240  11.347
72689SOL     OW19898   6.657   5.224   4.597
72689SOL    HW119899   6.714   5.151   4.575
72689SOL    HW219900   6.582   5.216   4.538
72690SOL     OW19901  14.189   4.626   2.617
72690SOL    HW119902  14.195   4.609   2.523
72690SOL    HW219903  14.099   4.656   2.630
72691SOL     OW19904   2.129   9.056  11.778
72691SOL    HW119905   2.087   9.139  11.754
72691SOL    HW219906   2.223   9.072  11.765
72692SOL     OW19907  11.213  10.604  11.210
72692SOL    HW119908  11.292  10.603  11.156
72692SOL    HW219909  11.176  10.517  11.200
72693SOL     OW19910   0.461   2.078   9.518
72693SOL    HW119911   0.393   2.022   9.480
72693SOL    HW219912   0.534   2.074   9.456
72694SOL     OW19913   0.197   8.572   6.617
72694SOL    HW119914   0.287   8.601   6.601
72694SOL    HW219915   0.207   8.494   6.671
72695SOL     OW19916  13.493   9.870  13.169
72695SOL    HW119917  13.522   9.785  13.138
72695SOL    HW219918  13.415   9.852  13.222
72696SOL     OW19919  12.726  10.423   6.330
72696SOL    HW119920  12.709  10.441   6.422
72696SOL    HW219921  12.639  10.424   6.289
72697SOL     OW19922  13.194  12.037  10.110
72697SOL    HW119923  13.124  11.972  10.119
72697SOL    HW219924  13.228  12.048  10.199
72698SOL     OW19925   7.906   5.917   3.674
72698SOL    HW119926   7.903   5.842   3.733
72698SOL    HW219927   7.909   5.879   3.587
72699SOL     OW19928   8.844   2.262   0.732
72699SOL    HW119929   8.911   2.193   0.728
72699SOL    HW219930   8.795   2.243   0.812
72700SOL     OW19931   6.206  14.419   7.034
72700SOL    HW119932   6.279  14.410   7.095
72700SOL    HW219933   6.232  14.492   6.977
72701SOL     OW19934   9.231  10.531  10.666
72701SOL    HW119935   9.189  10.502  10.747
72701SOL    HW219936   9.189  10.614  10.645
72702SOL     OW19937   5.931   2.643   7.127
72702SOL    HW119938   5.988   2.567   7.132
72702SOL    HW219939   5.989   2.718   7.139
72703SOL     OW19940   4.766  12.406   9.202
72703SOL    HW119941   4.855  12.441   9.205
72703SOL    HW219942   4.730  12.436   9.119
72704SOL     OW19943   1.953   6.615   4.133
72704SOL    HW119944   1.926   6.561   4.060
72704SOL    HW219945   1.884   6.681   4.142
72705SOL     OW19946  11.284  14.496   2.586
72705SOL    HW119947  11.200  14.483   2.541
72705SOL    HW219948  11.263  14.484   2.679
72706SOL     OW19949   1.232  10.117   8.683
72706SOL    HW119950   1.252  10.203   8.644
72706SOL    HW219951   1.227  10.058   8.608
72707SOL     OW19952  14.460  12.563   4.511
72707SOL    HW119953  14.392  12.506   4.475
72707SOL    HW219954  14.432  12.651   4.486
72708SOL     OW19955  11.804  13.086   5.622
72708SOL    HW119956  11.807  13.036   5.540
72708SOL    HW219957  11.895  13.106   5.642
72709SOL     OW19958   4.952   4.027   3.888
72709SOL    HW119959   4.903   4.104   3.916
72709SOL    HW219960   5.017   4.012   3.957
72710SOL     OW19961   5.824  13.181   5.784
72710SOL    HW119962   5.806  13.240   5.710
72710SOL    HW219963   5.780  13.099   5.760
72711SOL     OW19964  14.066   5.130  14.335
72711SOL    HW119965  14.016   5.107  14.257
72711SOL    HW219966  14.025   5.211  14.366
72712SOL     OW19967   4.421  11.945  14.020
72712SOL    HW119968   4.365  12.017  14.049
72712SOL    HW219969   4.384  11.919  13.936
72713SOL     OW19970   1.710  13.555   1.287
72713SOL    HW119971   1.798  13.577   1.257
72713SOL    HW219972   1.690  13.621   1.354
72714SOL     OW19973   1.855   5.924   7.975
72714SOL    HW119974   1.858   6.009   8.018
72714SOL    HW219975   1.863   5.944   7.882
72715SOL     OW19976   3.124   7.470   9.612
72715SOL    HW119977   3.061   7.398   9.611
72715SOL    HW219978   3.145   7.485   9.520
72716SOL     OW19979  10.378  10.479   9.680
72716SOL    HW119980  10.315  10.442   9.743
72716SOL    HW219981  10.463  10.452   9.713
72717SOL     OW19982   5.514  14.640   8.803
72717SOL    HW119983   5.452  14.617   8.872
72717SOL    HW219984   5.562  14.715   8.838
72718SOL     OW19985   8.161   1.781   6.168
72718SOL    HW119986   8.071   1.758   6.189
72718SOL    HW219987   8.154   1.837   6.091
72719SOL     OW19988  10.576  11.651  12.624
72719SOL    HW119989  10.504  11.682  12.568
72719SOL    HW219990  10.641  11.721  12.620
72720SOL     OW19991   7.087  12.818  11.170
72720SOL    HW119992   7.068  12.907  11.201
72720SOL    HW219993   7.055  12.818  11.079
72721SOL     OW19994   8.488   5.331   8.734
72721SOL    HW119995   8.485   5.393   8.807
72721SOL    HW219996   8.475   5.246   8.776
72722SOL     OW19997   5.791   8.103   8.814
72722SOL    HW119998   5.699   8.088   8.836
72722SOL    HW219999   5.839   8.076   8.892
72723SOL     OW20000  13.267   4.517  13.706
72723SOL    HW120001  13.242   4.607  13.727
72723SOL    HW220002  13.220   4.499  13.624
72724SOL     OW20003   4.492   7.158  14.601
72724SOL    HW120004   4.428   7.111  14.548
72724SOL    HW220005   4.564   7.177  14.540
72725SOL     OW20006   2.153   6.849   2.793
72725SOL    HW120007   2.071   6.887   2.761
72725SOL    HW220008   2.207   6.924   2.817
72726SOL     OW20009   3.373   3.202   6.838
72726SOL    HW120010   3.436   3.156   6.894
72726SOL    HW220011   3.297   3.216   6.895
72727SOL     OW20012   7.158  14.138   1.185
72727SOL    HW120013   7.244  14.097   1.175
72727SOL    HW220014   7.139  14.177   1.099
72728SOL     OW20015   9.003   9.842  14.324
72728SOL    HW120016   9.053   9.923  14.321
72728SOL    HW220017   9.020   9.800  14.240
72729SOL     OW20018   4.904  14.850   0.673
72729SOL    HW120019   4.853  14.822   0.748
72729SOL    HW220020   4.862   0.058   0.643
72730SOL     OW20021   8.662   1.316  11.618
72730SOL    HW120022   8.577   1.306  11.576
72730SOL    HW220023   8.648   1.379  11.689
72731SOL     OW20024   4.806   5.208   3.220
72731SOL    HW120025   4.866   5.246   3.156
72731SOL    HW220026   4.842   5.121   3.239
72732SOL     OW20027  12.537   7.797   1.621
72732SOL    HW120028  12.529   7.789   1.716
72732SOL    HW220029  12.629   7.816   1.606
72733SOL     OW20030   1.416   4.101   2.902
72733SOL    HW120031   1.352   4.036   2.929
72733SOL    HW220032   1.437   4.149   2.982
72734SOL     OW20033   1.320   3.135   5.534
72734SOL    HW120034   1.412   3.149   5.511
72734SOL    HW220035   1.278   3.114   5.451
72735SOL     OW20036   4.214  10.938  10.475
72735SOL    HW120037   4.308  10.945  10.458
72735SOL    HW220038   4.196  10.844  10.475
72736SOL     OW20039   9.115  12.864   3.938
72736SOL    HW120040   9.192  12.852   3.882
72736SOL    HW220041   9.138  12.821   4.021
72737SOL     OW20042  12.974   8.040   3.670
72737SOL    HW120043  12.988   8.125   3.711
72737SOL    HW220044  12.879   8.030   3.666
72738SOL     OW20045  10.666   0.477   1.462
72738SOL    HW120046  10.742   0.458   1.406
72738SOL    HW220047  10.697   0.543   1.523
72739SOL     OW20048   5.383  14.687  11.221
72739SOL    HW120049   5.294  14.718  11.204
72739SOL    HW220050   5.418  14.749  11.285
72740SOL     OW20051   5.268   9.101   8.991
72740SOL    HW120052   5.267   9.188   8.951
72740SOL    HW220053   5.354   9.065   8.968
72741SOL     OW20054   2.885   0.600   9.693
72741SOL    HW120055   2.947   0.614   9.622
72741SOL    HW220056   2.838   0.684   9.701
72742SOL     OW20057   3.180  14.536  13.910
72742SOL    HW120058   3.173  14.631  13.907
72742SOL    HW220059   3.240  14.514  13.838
72743SOL     OW20060  13.050   8.489  10.822
72743SOL    HW120061  13.015   8.423  10.882
72743SOL    HW220062  13.113   8.441  10.768
72744SOL     OW20063   8.530   8.511  10.088
72744SOL    HW120064   8.592   8.534  10.158
72744SOL    HW220065   8.585   8.502  10.010
72745SOL     OW20066   8.718   9.139  13.776
72745SOL    HW120067   8.742   9.232  13.777
72745SOL    HW220068   8.649   9.133  13.709
72746SOL     OW20069   5.071   3.045  12.374
72746SOL    HW120070   5.161   3.017  12.394
72746SOL    HW220071   5.018   3.004  12.444
72747SOL     OW20072   9.056  14.810   9.171
72747SOL    HW120073   9.133  14.766   9.135
72747SOL    HW220074   9.081  14.835   9.259
72748SOL     OW20075   6.137   5.155   4.203
72748SOL    HW120076   6.216   5.125   4.250
72748SOL    HW220077   6.162   5.240   4.167
72749SOL     OW20078   7.755  11.111   0.228
72749SOL    HW120079   7.844  11.076   0.240
72749SOL    HW220080   7.758  11.198   0.267
72750SOL     OW20081   4.282  14.066   0.774
72750SOL    HW120082   4.367  14.105   0.792
72750SOL    HW220083   4.276  13.992   0.834
72751SOL     OW20084   6.430   2.365   1.486
72751SOL    HW120085   6.382   2.446   1.469
72751SOL    HW220086   6.522   2.390   1.481
72752SOL     OW20087   0.458  12.737   9.024
72752SOL    HW120088   0.489  12.800   9.088
72752SOL    HW220089   0.454  12.786   8.942
72753SOL     OW20090   5.209   4.144  11.379
72753SOL    HW120091   5.257   4.220  11.412
72753SOL    HW220092   5.277   4.084  11.349
72754SOL     OW20093  14.010   2.106   6.774
72754SOL    HW120094  13.927   2.069   6.803
72754SOL    HW220095  14.073   2.035   6.788
72755SOL     OW20096  10.728   3.721   8.540
72755SOL    HW120097  10.738   3.648   8.602
72755SOL    HW220098  10.760   3.797   8.588
72756SOL     OW20099   4.619   9.287   5.190
72756SOL    HW120100   4.579   9.373   5.203
72756SOL    HW220101   4.675   9.274   5.266
72757SOL     OW20102   7.331  12.667   0.298
72757SOL    HW120103   7.409  12.712   0.267
72757SOL    HW220104   7.276  12.656   0.220
72758SOL     OW20105  10.125   8.138   5.123
72758SOL    HW120106  10.060   8.162   5.056
72758SOL    HW220107  10.138   8.044   5.111
72759SOL     OW20108   7.542  12.659  12.264
72759SOL    HW120109   7.506  12.585  12.312
72759SOL    HW220110   7.465  12.707  12.232
72760SOL     OW20111   1.124   1.396   8.008
72760SOL    HW120112   1.215   1.406   8.034
72760SOL    HW220113   1.075   1.430   8.083
72761SOL     OW20114   8.539   5.316   1.825
72761SOL    HW120115   8.489   5.237   1.806
72761SOL    HW220116   8.493   5.385   1.779
72762SOL     OW20117  12.004   8.696  10.233
72762SOL    HW120118  11.989   8.760  10.163
72762SOL    HW220119  11.917   8.664  10.255
72763SOL     OW20120   7.523   6.030  11.518
72763SOL    HW120121   7.500   6.053  11.428
72763SOL    HW220122   7.617   6.044  11.523
72764SOL     OW20123   3.791   6.421  10.625
72764SOL    HW120124   3.778   6.343  10.571
72764SOL    HW220125   3.704   6.463  10.628
72765SOL     OW20126   3.884  14.669   9.323
72765SOL    HW120127   3.850  14.747   9.368
72765SOL    HW220128   3.966  14.698   9.283
72766SOL     OW20129   4.000   9.370   1.319
72766SOL    HW120130   4.023   9.303   1.254
72766SOL    HW220131   3.921   9.336   1.361
72767SOL     OW20132   5.775   4.159   7.078
72767SOL    HW120133   5.697   4.207   7.107
72767SOL    HW220134   5.758   4.138   6.986
72768SOL     OW20135  11.577  14.690   5.183
72768SOL    HW120136  11.568  14.736   5.099
72768SOL    HW220137  11.489  14.658   5.203
72769SOL     OW20138  12.283  12.944   1.971
72769SOL    HW120139  12.214  12.998   1.932
72769SOL    HW220140  12.237  12.875   2.018
72770SOL     OW20141   8.984   5.352  10.032
72770SOL    HW120142   8.951   5.440  10.013
72770SOL    HW220143   8.991   5.310   9.946
72771SOL     OW20144   9.844  11.199  10.139
72771SOL    HW120145   9.786  11.259  10.092
72771SOL    HW220146   9.913  11.177  10.076
72772SOL     OW20147   1.206   0.904  12.137
72772SOL    HW120148   1.287   0.903  12.085
72772SOL    HW220149   1.161   0.824  12.112
72773SOL     OW20150   8.834   7.835   7.132
72773SOL    HW120151   8.888   7.911   7.153
72773SOL    HW220152   8.895   7.769   7.100
72774SOL     OW20153  13.234   4.123   4.829
72774SOL    HW120154  13.242   4.075   4.912
72774SOL    HW220155  13.159   4.083   4.785
72775SOL     OW20156   5.894   5.494  13.131
72775SOL    HW120157   5.877   5.411  13.086
72775SOL    HW220158   5.982   5.519  13.103
72776SOL     OW20159  13.523   6.544   0.179
72776SOL    HW120160  13.458   6.613   0.164
72776SOL    HW220161  13.581   6.550   0.103
72777SOL     OW20162   7.459   8.715   7.426
72777SOL    HW120163   7.370   8.736   7.454
72777SOL    HW220164   7.451   8.697   7.332
72778SOL     OW20165  13.661  12.560   0.870
72778SOL    HW120166  13.577  12.600   0.849
72778SOL    HW220167  13.723  12.600   0.809
72779SOL     OW20168  10.285   7.302  11.795
72779SOL    HW120169  10.343   7.377  11.809
72779SOL    HW220170  10.226   7.302  11.871
72780SOL     OW20171   2.157  11.266   7.460
72780SOL    HW120172   2.178  11.174   7.474
72780SOL    HW220173   2.239  11.306   7.433
72781SOL     OW20174  13.981   3.337   4.171
72781SOL    HW120175  14.050   3.290   4.218
72781SOL    HW220176  13.900   3.309   4.214
72782SOL     OW20177   0.710   6.823   1.845
72782SOL    HW120178   0.741   6.858   1.929
72782SOL    HW220179   0.697   6.730   1.860
72783SOL     OW20180   6.464   9.919   6.570
72783SOL    HW120181   6.482   9.961   6.654
72783SOL    HW220182   6.384   9.961   6.539
72784SOL     OW20183   5.066   7.982   8.735
72784SOL    HW120184   5.135   7.916   8.744
72784SOL    HW220185   5.030   7.965   8.648
72785SOL     OW20186   9.362  14.159   9.147
72785SOL    HW120187   9.332  14.099   9.079
72785SOL    HW220188   9.419  14.220   9.101
72786SOL     OW20189  11.000   2.422   8.884
72786SOL    HW120190  11.039   2.498   8.925
72786SOL    HW220191  10.940   2.458   8.818
72787SOL     OW20192   3.291   0.801  11.921
72787SOL    HW120193   3.309   0.713  11.955
72787SOL    HW220194   3.196   0.800  11.904
72788SOL     OW20195  14.695  14.373   2.114
72788SOL    HW120196  14.718  14.460   2.081
72788SOL    HW220197  14.663  14.326   2.037
72789SOL     OW20198   5.253   0.146  12.452
72789SOL    HW120199   5.158   0.136  12.448
72789SOL    HW220200   5.287   0.069  12.408
72790SOL     OW20201   6.080  10.414   6.819
72790SOL    HW120202   6.074  10.336   6.874
72790SOL    HW220203   5.991  10.427   6.786
72791SOL     OW20204   4.736   6.060  13.584
72791SOL    HW120205   4.725   6.120  13.510
72791SOL    HW220206   4.781   5.984  13.547
72792SOL     OW20207   2.367   6.841   7.132
72792SOL    HW120208   2.306   6.910   7.158
72792SOL    HW220209   2.370   6.846   7.037
72793SOL     OW20210   9.260  13.252   7.879
72793SOL    HW120211   9.276  13.343   7.903
72793SOL    HW220212   9.231  13.256   7.787
72794SOL     OW20213   3.782   3.926  13.279
72794SOL    HW120214   3.873   3.932  13.252
72794SOL    HW220215   3.740   4.003  13.241
72795SOL     OW20216   6.956  13.790  13.372
72795SOL    HW120217   7.014  13.765  13.300
72795SOL    HW220218   6.919  13.874  13.345
72796SOL     OW20219  11.209   0.676   3.784
72796SOL    HW120220  11.201   0.737   3.711
72796SOL    HW220221  11.197   0.590   3.744
72797SOL     OW20222   6.669  11.874  10.923
72797SOL    HW120223   6.638  11.869  11.013
72797SOL    HW220224   6.688  11.967  10.909
72798SOL     OW20225  11.918   5.738  11.915
72798SOL    HW120226  11.871   5.696  11.987
72798SOL    HW220227  11.907   5.677  11.841
72799SOL     OW20228  10.382   5.760   5.955
72799SOL    HW120229  10.351   5.728   6.040
72799SOL    HW220230  10.374   5.684   5.897
72800SOL     OW20231  13.949   2.780  14.145
72800SOL    HW120232  13.984   2.866  14.168
72800SOL    HW220233  14.019   2.719  14.166
72801SOL     OW20234   6.208   3.063   7.155
72801SOL    HW120235   6.214   3.158   7.151
72801SOL    HW220236   6.283   3.032   7.104
72802SOL     OW20237   6.183   9.633  13.243
72802SOL    HW120238   6.244   9.564  13.268
72802SOL    HW220239   6.189   9.697  13.314
72803SOL     OW20240  12.357   1.248   2.786
72803SOL    HW120241  12.319   1.217   2.703
72803SOL    HW220242  12.389   1.169   2.829
72804SOL     OW20243   3.761   0.124  12.634
72804SOL    HW120244   3.687   0.068  12.659
72804SOL    HW220245   3.752   0.134  12.539
72805SOL     OW20246   8.946  11.038  10.009
72805SOL    HW120247   8.948  10.951  10.049
72805SOL    HW220248   8.998  11.030   9.930
72806SOL     OW20249   0.991   0.560  14.530
72806SOL    HW120250   1.046   0.591  14.458
72806SOL    HW220251   0.903   0.590  14.506
72807SOL     OW20252  10.733   1.036  10.230
72807SOL    HW120253  10.670   1.108  10.216
72807SOL    HW220254  10.807   1.058  10.173
72808SOL     OW20255  13.185   8.926   5.595
72808SOL    HW120256  13.202   8.898   5.505
72808SOL    HW220257  13.249   8.877   5.648
72809SOL     OW20258   9.228   1.004   0.236
72809SOL    HW120259   9.243   1.005   0.142
72809SOL    HW220260   9.314   0.988   0.274
72810SOL     OW20261  12.918   2.886  12.981
72810SOL    HW120262  12.834   2.932  12.983
72810SOL    HW220263  12.895   2.793  12.987
72811SOL     OW20264   7.563  11.042   4.319
72811SOL    HW120265   7.575  10.969   4.381
72811SOL    HW220266   7.647  11.049   4.274
72812SOL     OW20267   6.892   4.087  13.224
72812SOL    HW120268   6.962   4.128  13.275
72812SOL    HW220269   6.864   4.155  13.163
72813SOL     OW20270   9.348  12.969   4.362
72813SOL    HW120271   9.292  12.895   4.387
72813SOL    HW220272   9.358  12.961   4.268
72814SOL     OW20273   7.573   0.930  14.428
72814SOL    HW120274   7.522   0.849  14.432
72814SOL    HW220275   7.656   0.904  14.388
72815SOL     OW20276  10.983  13.898   2.029
72815SOL    HW120277  10.916  13.872   1.965
72815SOL    HW220278  10.942  13.968   2.079
72816SOL     OW20279   4.207   9.214  13.522
72816SOL    HW120280   4.169   9.301  13.513
72816SOL    HW220281   4.138   9.155  13.491
72817SOL     OW20282   1.033   7.524  12.109
72817SOL    HW120283   1.020   7.475  12.028
72817SOL    HW220284   0.946   7.531  12.147
72818SOL     OW20285   7.438   7.973   1.272
72818SOL    HW120286   7.359   7.919   1.266
72818SOL    HW220287   7.427   8.038   1.203
72819SOL     OW20288   9.788   8.620   8.435
72819SOL    HW120289   9.761   8.628   8.526
72819SOL    HW220290   9.860   8.681   8.425
72820SOL     OW20291   3.509   3.265  11.897
72820SOL    HW120292   3.475   3.272  11.808
72820SOL    HW220293   3.468   3.187  11.933
72821SOL     OW20294   4.264  13.678  13.650
72821SOL    HW120295   4.343  13.624  13.647
72821SOL    HW220296   4.193  13.616  13.634
72822SOL     OW20297   8.216   6.732   5.386
72822SOL    HW120298   8.165   6.659   5.421
72822SOL    HW220299   8.163   6.810   5.404
72823SOL     OW20300   9.781   6.506   6.789
72823SOL    HW120301   9.775   6.565   6.714
72823SOL    HW220302   9.823   6.428   6.754
72824SOL     OW20303  10.517  11.816   4.955
72824SOL    HW120304  10.504  11.906   4.985
72824SOL    HW220305  10.567  11.824   4.874
72825SOL     OW20306  11.988   0.531   7.757
72825SOL    HW120307  11.899   0.520   7.789
72825SOL    HW220308  12.037   0.567   7.831
72826SOL     OW20309   7.489   9.068   7.691
72826SOL    HW120310   7.414   9.047   7.635
72826SOL    HW220311   7.564   9.064   7.632
72827SOL     OW20312   1.249   7.326   1.336
72827SOL    HW120313   1.236   7.392   1.268
72827SOL    HW220314   1.236   7.373   1.418
72828SOL     OW20315  10.617  12.034   1.233
72828SOL    HW120316  10.661  11.952   1.254
72828SOL    HW220317  10.682  12.102   1.251
72829SOL     OW20318   8.336  12.615  14.224
72829SOL    HW120319   8.429  12.622  14.245
72829SOL    HW220320   8.298  12.698  14.252
72830SOL     OW20321  13.921   8.711   9.478
72830SOL    HW120322  13.936   8.805   9.468
72830SOL    HW220323  13.827   8.704   9.495
72831SOL     OW20324   0.489  10.328  13.054
72831SOL    HW120325   0.399  10.361  13.062
72831SOL    HW220326   0.544  10.405  13.062
72832SOL     OW20327   4.677   7.759  14.443
72832SOL    HW120328   4.718   7.674  14.459
72832SOL    HW220329   4.720   7.818  14.505
72833SOL     OW20330   1.286  14.120  13.720
72833SOL    HW120331   1.262  14.180  13.648
72833SOL    HW220332   1.227  14.144  13.791
72834SOL     OW20333   3.542   9.619   4.774
72834SOL    HW120334   3.556   9.525   4.784
72834SOL    HW220335   3.511   9.648   4.859
72835SOL     OW20336   9.981  10.350   5.075
72835SOL    HW120337   9.969  10.284   5.143
72835SOL    HW220338  10.045  10.311   5.015
72836SOL     OW20339  12.453  13.273  14.162
72836SOL    HW120340  12.492  13.196  14.121
72836SOL    HW220341  12.526  13.314  14.210
72837SOL     OW20342  14.362  12.929   1.846
72837SOL    HW120343  14.429  12.996   1.861
72837SOL    HW220344  14.279  12.973   1.866
72838SOL     OW20345  14.626   2.598   3.775
72838SOL    HW120346  14.615   2.592   3.680
72838SOL    HW220347  14.551   2.550   3.811
72839SOL     OW20348   6.632  12.353   7.115
72839SOL    HW120349   6.564  12.410   7.078
72839SOL    HW220350   6.593  12.266   7.115
72840SOL     OW20351   5.586  12.478   9.696
72840SOL    HW120352   5.663  12.468   9.752
72840SOL    HW220353   5.590  12.568   9.665
72841SOL     OW20354   3.553  12.904   0.977
72841SOL    HW120355   3.610  12.877   0.904
72841SOL    HW220356   3.556  13.000   0.975
72842SOL     OW20357  13.888   5.233   4.825
72842SOL    HW120358  13.902   5.162   4.887
72842SOL    HW220359  13.794   5.251   4.829
72843SOL     OW20360  14.414   8.765   4.279
72843SOL    HW120361  14.375   8.763   4.191
72843SOL    HW220362  14.487   8.704   4.274
72844SOL     OW20363   3.517  12.169   7.236
72844SOL    HW120364   3.598  12.217   7.254
72844SOL    HW220365   3.545  12.079   7.220
72845SOL     OW20366  12.732   1.017  11.301
72845SOL    HW120367  12.823   1.042  11.284
72845SOL    HW220368  12.737   0.931  11.342
72846SOL     OW20369   9.051   2.635   4.663
72846SOL    HW120370   9.079   2.559   4.612
72846SOL    HW220371   9.059   2.709   4.603
72847SOL     OW20372   2.969   2.515  10.804
72847SOL    HW120373   3.062   2.497  10.791
72847SOL    HW220374   2.964   2.558  10.889
72848SOL     OW20375   9.711  12.260  10.714
72848SOL    HW120376   9.786  12.319  10.708
72848SOL    HW220377   9.739  12.181  10.667
72849SOL     OW20378   6.055  10.627   8.643
72849SOL    HW120379   6.004  10.547   8.656
72849SOL    HW220380   6.023  10.687   8.710
72850SOL     OW20381  10.056  14.493   1.984
72850SOL    HW120382  10.049  14.568   2.043
72850SOL    HW220383  10.008  14.520   1.905
72851SOL     OW20384   8.550   9.339   5.088
72851SOL    HW120385   8.640   9.348   5.058
72851SOL    HW220386   8.497   9.359   5.010
72852SOL     OW20387   3.790  10.229   5.106
72852SOL    HW120388   3.859  10.262   5.163
72852SOL    HW220389   3.763  10.305   5.054
72853SOL     OW20390  11.939   1.502  11.296
72853SOL    HW120391  11.888   1.442  11.240
72853SOL    HW220392  11.962   1.575  11.238
72854SOL     OW20393   6.857   9.449  14.334
72854SOL    HW120394   6.854   9.361  14.297
72854SOL    HW220395   6.771   9.486  14.317
72855SOL     OW20396   1.869   7.406   9.217
72855SOL    HW120397   1.902   7.469   9.281
72855SOL    HW220398   1.777   7.431   9.204
72856SOL     OW20399   8.446   4.125   2.310
72856SOL    HW120400   8.462   4.207   2.358
72856SOL    HW220401   8.531   4.103   2.272
72857SOL     OW20402   4.318   5.174  12.245
72857SOL    HW120403   4.253   5.202  12.309
72857SOL    HW220404   4.353   5.092  12.281
72858SOL     OW20405   7.574   8.796  12.308
72858SOL    HW120406   7.576   8.799  12.212
72858SOL    HW220407   7.642   8.857  12.335
72859SOL     OW20408   9.077   0.665   6.900
72859SOL    HW120409   9.147   0.730   6.897
72859SOL    HW220410   9.027   0.679   6.820
72860SOL     OW20411  12.020   4.835   3.959
72860SOL    HW120412  11.945   4.815   3.904
72860SOL    HW220413  11.983   4.861   4.044
72861SOL     OW20414   4.657   5.356   0.331
72861SOL    HW120415   4.605   5.435   0.315
72861SOL    HW220416   4.675   5.358   0.425
72862SOL     OW20417   8.936   8.914  14.506
72862SOL    HW120418   8.962   8.953  14.423
72862SOL    HW220419   8.880   8.840  14.481
72863SOL     OW20420  10.716   8.475  14.124
72863SOL    HW120421  10.784   8.425  14.079
72863SOL    HW220422  10.676   8.412  14.184
72864SOL     OW20423  14.351  11.394  12.005
72864SOL    HW120424  14.415  11.461  11.983
72864SOL    HW220425  14.310  11.372  11.921
72865SOL     OW20426  11.116   6.440   4.351
72865SOL    HW120427  11.073   6.525   4.358
72865SOL    HW220428  11.196   6.457   4.301
72866SOL     OW20429   4.420   6.262   1.055
72866SOL    HW120430   4.359   6.236   0.986
72866SOL    HW220431   4.492   6.198   1.049
72867SOL     OW20432  13.148   6.121   1.557
72867SOL    HW120433  13.114   6.193   1.610
72867SOL    HW220434  13.176   6.162   1.475
72868SOL     OW20435   2.221   7.164  10.348
72868SOL    HW120436   2.290   7.098  10.338
72868SOL    HW220437   2.141   7.120  10.320
72869SOL     OW20438   0.999   2.777  12.411
72869SOL    HW120439   0.908   2.774  12.381
72869SOL    HW220440   1.037   2.851  12.364
72870SOL     OW20441  13.546  14.776  12.324
72870SOL    HW120442  13.499  14.810  12.400
72870SOL    HW220443  13.610  14.715  12.361
72871SOL     OW20444   1.589   0.253  11.021
72871SOL    HW120445   1.671   0.266  10.974
72871SOL    HW220446   1.522   0.280  10.958
72872SOL     OW20447   7.422   6.324   8.214
72872SOL    HW120448   7.461   6.277   8.140
72872SOL    HW220449   7.468   6.408   8.217
72873SOL     OW20450   8.920  12.578  12.601
72873SOL    HW120451   8.865  12.501  12.613
72873SOL    HW220452   8.960  12.592  12.687
72874SOL     OW20453  13.148  12.835  13.504
72874SOL    HW120454  13.088  12.822  13.430
72874SOL    HW220455  13.153  12.930  13.514
72875SOL     OW20456   3.804   9.214   1.754
72875SOL    HW120457   3.835   9.157   1.825
72875SOL    HW220458   3.816   9.303   1.788
72876SOL     OW20459   4.754  11.518   0.425
72876SOL    HW120460   4.761  11.535   0.331
72876SOL    HW220461   4.746  11.423   0.432
72877SOL     OW20462  11.799   8.546  10.598
72877SOL    HW120463  11.777   8.472  10.541
72877SOL    HW220464  11.724   8.553  10.657
72878SOL     OW20465   7.144   0.506  13.309
72878SOL    HW120466   7.184   0.438  13.363
72878SOL    HW220467   7.217   0.541  13.257
72879SOL     OW20468  14.452   2.350   7.337
72879SOL    HW120469  14.486   2.438   7.354
72879SOL    HW220470  14.529   2.296   7.325
72880SOL     OW20471   7.566   2.957   6.239
72880SOL    HW120472   7.561   2.906   6.158
72880SOL    HW220473   7.590   2.893   6.306
72881SOL     OW20474   7.053  14.804   2.249
72881SOL    HW120475   7.015  14.717   2.260
72881SOL    HW220476   7.004  14.843   2.176
72882SOL     OW20477   1.469  12.618   0.511
72882SOL    HW120478   1.444  12.671   0.587
72882SOL    HW220479   1.490  12.532   0.548
72883SOL     OW20480   5.367   1.759   4.606
72883SOL    HW120481   5.308   1.812   4.660
72883SOL    HW220482   5.419   1.822   4.557
72884SOL     OW20483   5.938   6.955  11.814
72884SOL    HW120484   5.889   7.034  11.795
72884SOL    HW220485   6.012   6.984  11.867
72885SOL     OW20486  13.245  13.211   1.069
72885SOL    HW120487  13.250  13.255   1.154
72885SOL    HW220488  13.333  13.180   1.053
72886SOL     OW20489   1.286   6.867  13.123
72886SOL    HW120490   1.326   6.816  13.053
72886SOL    HW220491   1.192   6.864  13.105
72887SOL     OW20492   4.395   2.574   8.658
72887SOL    HW120493   4.483   2.570   8.620
72887SOL    HW220494   4.342   2.516   8.603
72888SOL     OW20495  11.279   6.758  10.856
72888SOL    HW120496  11.236   6.833  10.816
72888SOL    HW220497  11.223   6.733  10.928
72889SOL     OW20498  12.789   2.534   1.237
72889SOL    HW120499  12.806   2.623   1.268
72889SOL    HW220500  12.699   2.516   1.263
72890SOL     OW20501   4.714   6.823   5.685
72890SOL    HW120502   4.782   6.795   5.624
72890SOL    HW220503   4.633   6.821   5.633
72891SOL     OW20504   1.003  14.683   4.965
72891SOL    HW120505   1.072  14.744   4.939
72891SOL    HW220506   0.953  14.729   5.031
72892SOL     OW20507   1.623  14.181   0.934
72892SOL    HW120508   1.557  14.171   0.865
72892SOL    HW220509   1.689  14.115   0.914
72893SOL     OW20510  13.275   2.881   4.204
72893SOL    HW120511  13.202   2.862   4.144
72893SOL    HW220512  13.281   2.804   4.260
72894SOL     OW20513   6.608  13.894   7.319
72894SOL    HW120514   6.546  13.822   7.331
72894SOL    HW220515   6.679  13.875   7.381
72895SOL     OW20516   9.626  10.538   7.096
72895SOL    HW120517   9.603  10.601   7.164
72895SOL    HW220518   9.692  10.482   7.137
72896SOL     OW20519   5.485   4.629  13.987
72896SOL    HW120520   5.491   4.607  14.080
72896SOL    HW220521   5.431   4.560  13.949
72897SOL     OW20522  13.755   0.112   4.713
72897SOL    HW120523  13.705   0.191   4.694
72897SOL    HW220524  13.846   0.136   4.697
72898SOL     OW20525  14.453   5.066   6.128
72898SOL    HW120526  14.498   5.146   6.155
72898SOL    HW220527  14.373   5.098   6.086
72899SOL     OW20528   8.759  12.780  10.644
72899SOL    HW120529   8.714  12.696  10.639
72899SOL    HW220530   8.702  12.834  10.699
72900SOL     OW20531   0.675   9.434   4.505
72900SOL    HW120532   0.760   9.461   4.470
72900SOL    HW220533   0.615   9.444   4.432
72901SOL     OW20534   3.257   2.373   5.907
72901SOL    HW120535   3.290   2.297   5.858
72901SOL    HW220536   3.193   2.413   5.848
72902SOL     OW20537   8.340   3.421   7.237
72902SOL    HW120538   8.383   3.484   7.295
72902SOL    HW220539   8.246   3.437   7.250
72903SOL     OW20540  11.275  11.038  14.650
72903SOL    HW120541  11.258  11.012  14.559
72903SOL    HW220542  11.229  11.122  14.660
72904SOL     OW20543   2.963   7.518   3.884
72904SOL    HW120544   2.973   7.611   3.904
72904SOL    HW220545   2.901   7.485   3.950
72905SOL     OW20546   2.935  12.494  14.248
72905SOL    HW120547   2.900  12.537  14.170
72905SOL    HW220548   3.021  12.535  14.261
72906SOL     OW20549   8.256   1.072   5.729
72906SOL    HW120550   8.344   1.065   5.766
72906SOL    HW220551   8.238   1.166   5.725
72907SOL     OW20552   5.466   0.391   6.274
72907SOL    HW120553   5.442   0.410   6.365
72907SOL    HW220554   5.514   0.468   6.245
72908SOL     OW20555  14.573   6.885   6.290
72908SOL    HW120556  14.523   6.880   6.209
72908SOL    HW220557  14.640   6.817   6.281
72909SOL     OW20558   8.986   8.727   6.585
72909SOL    HW120559   9.051   8.684   6.640
72909SOL    HW220560   8.927   8.771   6.646
72910SOL     OW20561  14.580   6.430   3.950
72910SOL    HW120562  14.511   6.384   3.902
72910SOL    HW220563  14.596   6.509   3.898
72911SOL     OW20564  14.310  12.164   9.557
72911SOL    HW120565  14.402  12.136   9.557
72911SOL    HW220566  14.287  12.171   9.465
72912SOL     OW20567   3.052   1.878   8.873
72912SOL    HW120568   3.142   1.910   8.875
72912SOL    HW220569   3.021   1.889   8.963
72913SOL     OW20570   7.370  10.774  13.613
72913SOL    HW120571   7.287  10.821  13.615
72913SOL    HW220572   7.346  10.682  13.621
72914SOL     OW20573  10.241  11.058   7.361
72914SOL    HW120574  10.253  10.992   7.429
72914SOL    HW220575  10.175  11.021   7.302
72915SOL     OW20576   2.667   4.974  10.577
72915SOL    HW120577   2.679   5.007  10.667
72915SOL    HW220578   2.681   5.051  10.522
72916SOL     OW20579  14.075   5.262  11.970
72916SOL    HW120580  13.996   5.270  12.023
72916SOL    HW220581  14.146   5.255  12.034
72917SOL     OW20582  13.310   8.452  14.635
72917SOL    HW120583  13.304   8.540  14.596
72917SOL    HW220584  13.220   8.420  14.635
72918SOL     OW20585   7.040   3.037   3.030
72918SOL    HW120586   7.003   2.950   3.018
72918SOL    HW220587   6.964   3.095   3.034
72919SOL     OW20588   0.799  12.370   6.241
72919SOL    HW120589   0.877  12.347   6.292
72919SOL    HW220590   0.819  12.455   6.202
72920SOL     OW20591  10.247  13.097   9.252
72920SOL    HW120592  10.280  13.146   9.177
72920SOL    HW220593  10.154  13.082   9.232
72921SOL     OW20594   0.628   0.656   1.738
72921SOL    HW120595   0.637   0.561   1.731
72921SOL    HW220596   0.566   0.669   1.809
72922SOL     OW20597  10.367  14.722   2.568
72922SOL    HW120598  10.365  14.696   2.476
72922SOL    HW220599  10.275  14.736   2.591
72923SOL     OW20600   4.441   1.795   6.138
72923SOL    HW120601   4.355   1.777   6.176
72923SOL    HW220602   4.434   1.762   6.048
72924SOL     OW20603  14.187   7.448  14.438
72924SOL    HW120604  14.130   7.397  14.380
72924SOL    HW220605  14.163   7.539  14.420
72925SOL     OW20606   0.992   3.093  12.062
72925SOL    HW120607   1.020   3.088  12.154
72925SOL    HW220608   0.942   3.175  12.057
72926SOL     OW20609   3.680   8.846   6.882
72926SOL    HW120610   3.589   8.873   6.892
72926SOL    HW220611   3.723   8.879   6.960
72927SOL     OW20612   1.089   9.713   7.605
72927SOL    HW120613   1.138   9.677   7.679
72927SOL    HW220614   0.998   9.711   7.634
72928SOL     OW20615   8.658  14.414   7.478
72928SOL    HW120616   8.605  14.469   7.421
72928SOL    HW220617   8.664  14.330   7.432
72929SOL     OW20618  11.095   3.642   3.392
72929SOL    HW120619  11.078   3.695   3.470
72929SOL    HW220620  11.008   3.630   3.352
72930SOL     OW20621   7.047   6.636   0.260
72930SOL    HW120622   7.042   6.603   0.350
72930SOL    HW220623   7.140   6.657   0.247
72931SOL     OW20624  13.178   0.782   6.757
72931SOL    HW120625  13.237   0.839   6.805
72931SOL    HW220626  13.231   0.746   6.686
72932SOL     OW20627  13.941   0.791   2.733
72932SOL    HW120628  13.847   0.806   2.748
72932SOL    HW220629  13.966   0.728   2.800
72933SOL     OW20630   3.183   4.419   9.071
72933SOL    HW120631   3.171   4.349   9.135
72933SOL    HW220632   3.094   4.441   9.044
72934SOL     OW20633   6.415   2.631   4.457
72934SOL    HW120634   6.437   2.574   4.531
72934SOL    HW220635   6.496   2.676   4.436
72935SOL     OW20636   1.463   9.739   8.945
72935SOL    HW120637   1.456   9.827   8.907
72935SOL    HW220638   1.500   9.686   8.874
72936SOL     OW20639   0.225   6.099   2.019
72936SOL    HW120640   0.247   6.080   1.928
72936SOL    HW220641   0.302   6.144   2.054
72937SOL     OW20642  12.198   0.945  13.721
72937SOL    HW120643  12.210   0.930  13.628
72937SOL    HW220644  12.253   1.022  13.740
72938SOL     OW20645   8.990   4.182  11.617
72938SOL    HW120646   9.034   4.101  11.643
72938SOL    HW220647   8.917   4.154  11.563
72939SOL     OW20648   4.451   1.617   9.880
72939SOL    HW120649   4.390   1.545   9.896
72939SOL    HW220650   4.523   1.578   9.831
72940SOL     OW20651   8.781   5.512   3.634
72940SOL    HW120652   8.836   5.571   3.686
72940SOL    HW220653   8.827   5.504   3.551
72941SOL     OW20654  11.368   1.393   1.712
72941SOL    HW120655  11.423   1.376   1.636
72941SOL    HW220656  11.427   1.432   1.777
72942SOL     OW20657   6.781   7.943  11.961
72942SOL    HW120658   6.832   8.010  12.007
72942SOL    HW220659   6.822   7.860  11.987
72943SOL     OW20660   6.951  11.242  12.939
72943SOL    HW120661   6.930  11.247  13.033
72943SOL    HW220662   6.942  11.149  12.917
72944SOL     OW20663  10.245   2.050   1.884
72944SOL    HW120664  10.255   2.064   1.978
72944SOL    HW220665  10.153   2.069   1.866
72945SOL     OW20666  13.115   0.781  13.988
72945SOL    HW120667  13.083   0.869  14.005
72945SOL    HW220668  13.060   0.749  13.916
72946SOL     OW20669   3.406  10.008  10.840
72946SOL    HW120670   3.347  10.078  10.868
72946SOL    HW220671   3.459   9.989  10.918
72947SOL     OW20672   1.426   9.197   5.723
72947SOL    HW120673   1.521   9.189   5.727
72947SOL    HW220674   1.410   9.291   5.731
72948SOL     OW20675   6.198  10.842  10.913
72948SOL    HW120676   6.173  10.764  10.863
72948SOL    HW220677   6.170  10.916  10.858
72949SOL     OW20678   2.983   4.800   4.079
72949SOL    HW120679   2.915   4.743   4.113
72949SOL    HW220680   3.047   4.740   4.038
72950SOL     OW20681  13.602  11.626   7.946
72950SOL    HW120682  13.646  11.699   7.990
72950SOL    HW220683  13.673  11.567   7.921
72951SOL     OW20684   6.120  12.769  12.012
72951SOL    HW120685   6.210  12.742  12.027
72951SOL    HW220686   6.123  12.865  12.012
72952SOL     OW20687  11.574   0.829   5.578
72952SOL    HW120688  11.638   0.900   5.588
72952SOL    HW220689  11.527   0.829   5.661
72953SOL     OW20690   9.016   2.318  14.259
72953SOL    HW120691   9.037   2.406  14.227
72953SOL    HW220692   9.071   2.260  14.206
72954SOL     OW20693   5.350   2.626   9.824
72954SOL    HW120694   5.350   2.637   9.729
72954SOL    HW220695   5.326   2.712   9.859
72955SOL     OW20696   0.707   1.001   3.578
72955SOL    HW120697   0.627   0.959   3.608
72955SOL    HW220698   0.777   0.939   3.601
72956SOL     OW20699  13.345   3.555   4.165
72956SOL    HW120700  13.437   3.543   4.186
72956SOL    HW220701  13.339   3.645   4.131
72957SOL     OW20702   3.782   8.419   0.302
72957SOL    HW120703   3.795   8.397   0.209
72957SOL    HW220704   3.687   8.423   0.312
72958SOL     OW20705   9.189  12.861   1.527
72958SOL    HW120706   9.216  12.941   1.482
72958SOL    HW220707   9.192  12.882   1.620
72959SOL     OW20708  11.371  11.054   8.584
72959SOL    HW120709  11.449  11.071   8.532
72959SOL    HW220710  11.383  10.965   8.616
72960SOL     OW20711  13.535  11.191   5.998
72960SOL    HW120712  13.576  11.104   5.997
72960SOL    HW220713  13.511  11.207   5.907
72961SOL     OW20714  13.052   7.856   8.533
72961SOL    HW120715  13.060   7.846   8.438
72961SOL    HW220716  13.069   7.949   8.549
72962SOL     OW20717   2.646  11.692  13.453
72962SOL    HW120718   2.631  11.643  13.372
72962SOL    HW220719   2.560  11.697  13.494
72963SOL     OW20720   4.847   8.150  14.330
72963SOL    HW120721   4.792   8.181  14.258
72963SOL    HW220722   4.786   8.139  14.403
72964SOL     OW20723   6.048   6.834   8.273
72964SOL    HW120724   6.134   6.850   8.234
72964SOL    HW220725   5.990   6.897   8.230
72965SOL     OW20726   1.534  10.245   3.062
72965SOL    HW120727   1.544  10.197   2.979
72965SOL    HW220728   1.527  10.336   3.036
72966SOL     OW20729   4.305   5.220   2.936
72966SOL    HW120730   4.323   5.131   2.968
72966SOL    HW220731   4.321   5.276   3.011
72967SOL     OW20732   0.151   0.113   9.557
72967SOL    HW120733   0.161   0.161   9.476
72967SOL    HW220734   0.092   0.041   9.535
72968SOL     OW20735   9.719  10.181   5.609
72968SOL    HW120736   9.681  10.102   5.645
72968SOL    HW220737   9.725  10.241   5.683
72969SOL     OW20738   1.441   4.595  14.872
72969SOL    HW120739   1.488   4.677   0.019
72969SOL    HW220740   1.479   4.565  14.789
72970SOL     OW20741   1.704   9.322   9.390
72970SOL    HW120742   1.700   9.402   9.444
72970SOL    HW220743   1.677   9.351   9.303
72971SOL     OW20744   3.593  10.278  11.853
72971SOL    HW120745   3.686  10.269  11.833
72971SOL    HW220746   3.589  10.341  11.924
72972SOL     OW20747   8.205  10.774  14.151
72972SOL    HW120748   8.136  10.834  14.178
72972SOL    HW220749   8.275  10.788  14.215
72973SOL     OW20750  12.472   9.344   5.679
72973SOL    HW120751  12.405   9.276   5.689
72973SOL    HW220752  12.546   9.299   5.639
72974SOL     OW20753   4.150  13.399   8.113
72974SOL    HW120754   4.242  13.391   8.138
72974SOL    HW220755   4.107  13.325   8.157
72975SOL     OW20756   1.950   3.391   0.774
72975SOL    HW120757   1.964   3.297   0.759
72975SOL    HW220758   1.856   3.403   0.763
72976SOL     OW20759  10.698   9.450  11.965
72976SOL    HW120760  10.733   9.430  11.878
72976SOL    HW220761  10.775   9.447  12.022
72977SOL     OW20762  14.221   5.083  11.398
72977SOL    HW120763  14.193   5.118  11.314
72977SOL    HW220764  14.203   4.989  11.393
72978SOL     OW20765  12.447  11.493   4.154
72978SOL    HW120766  12.398  11.568   4.186
72978SOL    HW220767  12.532  11.499   4.198
72979SOL     OW20768   0.334  12.158  10.293
72979SOL    HW120769   0.311  12.191  10.380
72979SOL    HW220770   0.259  12.104  10.267
72980SOL     OW20771  14.318   5.221   4.942
72980SOL    HW120772  14.279   5.134   4.936
72980SOL    HW220773  14.254   5.278   4.899
72981SOL     OW20774   6.401   4.206  14.872
72981SOL    HW120775   6.447   4.289  14.862
72981SOL    HW220776   6.471   4.143   0.022
72982SOL     OW20777  13.621   7.764  12.943
72982SOL    HW120778  13.704   7.769  12.896
72982SOL    HW220779  13.554   7.773  12.875
72983SOL     OW20780  11.787   0.322   9.258
72983SOL    HW120781  11.761   0.394   9.202
72983SOL    HW220782  11.772   0.243   9.205
72984SOL     OW20783   9.399   6.422   8.137
72984SOL    HW120784   9.335   6.369   8.089
72984SOL    HW220785   9.435   6.363   8.203
72985SOL     OW20786   6.949   8.759   5.250
72985SOL    HW120787   6.865   8.791   5.217
72985SOL    HW220788   7.011   8.829   5.232
72986SOL     OW20789   6.695  13.963   0.291
72986SOL    HW120790   6.726  14.052   0.302
72986SOL    HW220791   6.616  13.958   0.345
72987SOL     OW20792  12.497  12.511  14.630
72987SOL    HW120793  12.506  12.513  14.535
72987SOL    HW220794  12.533  12.595  14.659
72988SOL     OW20795   3.619  14.091   4.285
72988SOL    HW120796   3.573  14.175   4.283
72988SOL    HW220797   3.572  14.038   4.349
72989SOL     OW20798  14.003   0.157   4.896
72989SOL    HW120799  14.027   0.123   4.982
72989SOL    HW220800  13.923   0.208   4.911
72990SOL     OW20801   4.333   4.034   9.780
72990SOL    HW120802   4.314   4.095   9.852
72990SOL    HW220803   4.429   4.030   9.777
72991SOL     OW20804  11.231   8.532  13.599
72991SOL    HW120805  11.322   8.539  13.630
72991SOL    HW220806  11.223   8.442  13.569
72992SOL     OW20807   6.270  11.908   4.905
72992SOL    HW120808   6.212  11.963   4.852
72992SOL    HW220809   6.212  11.844   4.946
72993SOL     OW20810   4.031   7.539   2.971
72993SOL    HW120811   4.107   7.586   3.006
72993SOL    HW220812   3.959   7.564   3.028
72994SOL     OW20813   5.753  12.982  14.796
72994SOL    HW120814   5.697  13.022  14.862
72994SOL    HW220815   5.833  13.034  14.798
72995SOL     OW20816  10.993   3.140   4.371
72995SOL    HW120817  10.962   3.109   4.286
72995SOL    HW220818  10.916   3.136   4.428
72996SOL     OW20819   0.721  14.437   2.713
72996SOL    HW120820   0.732  14.375   2.784
72996SOL    HW220821   0.715  14.383   2.634
72997SOL     OW20822  11.158   0.841   4.235
72997SOL    HW120823  11.157   0.765   4.177
72997SOL    HW220824  11.067   0.849   4.265
72998SOL     OW20825   0.538  13.496   2.212
72998SOL    HW120826   0.594  13.430   2.254
72998SOL    HW220827   0.600  13.557   2.171
72999SOL     OW20828  13.993   1.292   9.526
72999SOL    HW120829  14.034   1.226   9.582
72999SOL    HW220830  14.022   1.376   9.562
73000SOL     OW20831  12.676   6.580  14.035
73000SOL    HW120832  12.624   6.499  14.036
73000SOL    HW220833  12.632   6.638  14.097
73001SOL     OW20834   6.511  10.553   0.171
73001SOL    HW120835   6.503  10.526   0.080
73001SOL    HW220836   6.587  10.505   0.204
73002SOL     OW20837  11.179   4.118   9.693
73002SOL    HW120838  11.099   4.143   9.647
73002SOL    HW220839  11.192   4.187   9.758
73003SOL     OW20840  13.493   6.961   1.399
73003SOL    HW120841  13.499   6.872   1.363
73003SOL    HW220842  13.465   6.948   1.490
73004SOL     OW20843   0.528   2.451  12.714
73004SOL    HW120844   0.484   2.472  12.797
73004SOL    HW220845   0.477   2.497  12.648
73005SOL     OW20846   3.294   3.487   6.159
73005SOL    HW120847   3.355   3.522   6.223
73005SOL    HW220848   3.244   3.563   6.129
73006SOL     OW20849   3.917   1.918  11.138
73006SOL    HW120850   3.871   1.844  11.177
73006SOL    HW220851   3.891   1.993  11.191
73007SOL     OW20852   9.399   5.596   3.293
73007SOL    HW120853   9.415   5.657   3.365
73007SOL    HW220854   9.385   5.652   3.217
73008SOL     OW20855  14.432   5.905   4.650
73008SOL    HW120856  14.502   5.969   4.668
73008SOL    HW220857  14.360   5.932   4.706
73009SOL     OW20858   5.146  10.998   1.313
73009SOL    HW120859   5.174  10.933   1.248
73009SOL    HW220860   5.068  11.038   1.274
73010SOL     OW20861   3.897   5.400   4.230
73010SOL    HW120862   3.965   5.459   4.198
73010SOL    HW220863   3.871   5.438   4.314
73011SOL     OW20864   0.891   9.480   8.861
73011SOL    HW120865   0.868   9.437   8.779
73011SOL    HW220866   0.833   9.557   8.865
73012SOL     OW20867   1.497   2.800   1.027
73012SOL    HW120868   1.505   2.867   1.095
73012SOL    HW220869   1.413   2.758   1.046
73013SOL     OW20870   2.302   7.631   5.392
73013SOL    HW120871   2.316   7.640   5.487
73013SOL    HW220872   2.211   7.657   5.380
73014SOL     OW20873   4.306   6.229  14.512
73014SOL    HW120874   4.214   6.210  14.532
73014SOL    HW220875   4.329   6.163  14.447
73015SOL     OW20876   1.274  11.873  12.159
73015SOL    HW120877   1.284  11.959  12.118
73015SOL    HW220878   1.338  11.873  12.230
73016SOL     OW20879   8.993   1.870   9.928
73016SOL    HW120880   9.020   1.798   9.872
73016SOL    HW220881   8.974   1.829  10.013
73017SOL     OW20882   7.679   5.803   2.701
73017SOL    HW120883   7.629   5.773   2.777
73017SOL    HW220884   7.616   5.851   2.648
73018SOL     OW20885  10.320   8.630   6.375
73018SOL    HW120886  10.322   8.669   6.462
73018SOL    HW220887  10.412   8.623   6.349
73019SOL     OW20888  10.066  12.526   5.322
73019SOL    HW120889  10.007  12.451   5.329
73019SOL    HW220890  10.028  12.591   5.383
73020SOL     OW20891   3.065  12.161   0.859
73020SOL    HW120892   3.033  12.160   0.949
73020SOL    HW220893   3.029  12.082   0.820
73021SOL     OW20894  10.707   3.704   3.702
73021SOL    HW120895  10.636   3.695   3.766
73021SOL    HW220896  10.688   3.638   3.635
73022SOL     OW20897   7.186   8.005  13.655
73022SOL    HW120898   7.226   7.992  13.569
73022SOL    HW220899   7.184   7.918  13.694
73023SOL     OW20900   5.848  13.335   5.554
73023SOL    HW120901   5.906  13.376   5.490
73023SOL    HW220902   5.766  13.383   5.547
73024SOL     OW20903  13.743   8.721  10.513
73024SOL    HW120904  13.706   8.635  10.533
73024SOL    HW220905  13.796   8.706  10.434
73025SOL     OW20906   8.670  13.283   2.004
73025SOL    HW120907   8.694  13.327   1.923
73025SOL    HW220908   8.654  13.192   1.979
73026SOL     OW20909   3.985  12.000   9.719
73026SOL    HW120910   3.910  11.972   9.667
73026SOL    HW220911   3.948  12.055   9.788
73027SOL     OW20912   4.536  11.518   2.354
73027SOL    HW120913   4.555  11.553   2.441
73027SOL    HW220914   4.495  11.433   2.371
73028SOL     OW20915  12.699  14.328   7.722
73028SOL    HW120916  12.750  14.321   7.802
73028SOL    HW220917  12.655  14.413   7.728
73029SOL     OW20918   3.105   2.497   1.446
73029SOL    HW120919   3.035   2.557   1.472
73029SOL    HW220920   3.185   2.546   1.463
73030SOL     OW20921  12.093  11.299   0.587
73030SOL    HW120922  12.058  11.290   0.676
73030SOL    HW220923  12.063  11.221   0.541
73031SOL     OW20924   6.427  10.981   1.960
73031SOL    HW120925   6.522  10.975   1.956
73031SOL    HW220926   6.402  10.919   2.029
73032SOL     OW20927   9.529   4.362   2.930
73032SOL    HW120928   9.474   4.347   2.853
73032SOL    HW220929   9.526   4.456   2.944
73033SOL     OW20930   8.085  14.106   0.334
73033SOL    HW120931   8.071  14.198   0.360
73033SOL    HW220932   8.039  14.098   0.250
73034SOL     OW20933   4.908   7.710   3.999
73034SOL    HW120934   4.896   7.799   3.968
73034SOL    HW220935   4.858   7.656   3.938
73035SOL     OW20936   5.777  10.963   8.927
73035SOL    HW120937   5.761  10.890   8.866
73035SOL    HW220938   5.868  10.951   8.954
73036SOL     OW20939  12.614   5.982   9.058
73036SOL    HW120940  12.668   5.948   8.987
73036SOL    HW220941  12.574   6.062   9.022
73037SOL     OW20942  10.485   0.304   7.626
73037SOL    HW120943  10.454   0.385   7.665
73037SOL    HW220944  10.547   0.332   7.558
73038SOL     OW20945   8.868  10.629   1.701
73038SOL    HW120946   8.963  10.636   1.693
73038SOL    HW220947   8.849  10.540   1.673
73039SOL     OW20948  11.317  12.928  13.007
73039SOL    HW120949  11.357  12.868  13.070
73039SOL    HW220950  11.223  12.914  13.017
73040SOL     OW20951   5.453  12.824   8.031
73040SOL    HW120952   5.481  12.784   7.949
73040SOL    HW220953   5.461  12.918   8.016
73041SOL     OW20954   6.789   5.429  14.434
73041SOL    HW120955   6.786   5.524  14.442
73041SOL    HW220956   6.837   5.400  14.512
73042SOL     OW20957  11.514   6.924  10.136
73042SOL    HW120958  11.559   6.978  10.201
73042SOL    HW220959  11.426   6.911  10.172
73043SOL     OW20960   3.314  13.699  10.453
73043SOL    HW120961   3.272  13.672  10.535
73043SOL    HW220962   3.407  13.699  10.473
73044SOL     OW20963   3.812   5.945   6.983
73044SOL    HW120964   3.718   5.962   6.978
73044SOL    HW220965   3.852   6.023   6.944
73045SOL     OW20966  14.160  11.514  12.458
73045SOL    HW120967  14.221  11.564  12.403
73045SOL    HW220968  14.216  11.449  12.501
73046SOL     OW20969   1.046   1.651  13.684
73046SOL    HW120970   1.002   1.692  13.610
73046SOL    HW220971   0.991   1.673  13.760
73047SOL     OW20972   8.081   3.128   0.830
73047SOL    HW120973   7.994   3.141   0.792
73047SOL    HW220974   8.103   3.212   0.870
73048SOL     OW20975  11.937   6.442   8.364
73048SOL    HW120976  11.894   6.497   8.429
73048SOL    HW220977  12.015   6.492   8.338
73049SOL     OW20978  14.580   4.493  14.753
73049SOL    HW120979  14.592   4.556  14.682
73049SOL    HW220980  14.486   4.495  14.771
73050SOL     OW20981   9.894   0.496  10.180
73050SOL    HW120982   9.909   0.486  10.086
73050SOL    HW220983   9.898   0.406  10.214
73051SOL     OW20984   1.736   1.012   9.470
73051SOL    HW120985   1.770   0.951   9.536
73051SOL    HW220986   1.742   1.098   9.512
73052SOL     OW20987  10.236   7.571   8.129
73052SOL    HW120988  10.234   7.653   8.080
73052SOL    HW220989  10.207   7.594   8.217
73053SOL     OW20990   5.344   9.923  11.642
73053SOL    HW120991   5.409   9.982  11.603
73053SOL    HW220992   5.336   9.852  11.578
73054SOL     OW20993   8.156   0.339   5.231
73054SOL    HW120994   8.105   0.280   5.175
73054SOL    HW220995   8.103   0.351   5.309
73055SOL     OW20996   3.217  10.295   3.074
73055SOL    HW120997   3.310  10.281   3.058
73055SOL    HW220998   3.181  10.207   3.084
73056SOL     OW20999  14.217   3.341  10.845
73056SOL    HW121000  14.168   3.412  10.886
73056SOL    HW221001  14.305   3.377  10.833
73057SOL     OW21002   6.852  13.358  13.973
73057SOL    HW121003   6.850  13.454  13.968
73057SOL    HW221004   6.943  13.337  13.994
73058SOL     OW21005   5.688   4.300  10.476
73058SOL    HW121006   5.749   4.309  10.403
73058SOL    HW221007   5.729   4.234  10.533
73059SOL     OW21008   3.737   5.273   9.403
73059SOL    HW121009   3.732   5.287   9.498
73059SOL    HW221010   3.653   5.233   9.380
73060SOL     OW21011   0.384   8.712   1.764
73060SOL    HW121012   0.416   8.637   1.815
73060SOL    HW221013   0.435   8.709   1.683
73061SOL     OW21014   5.537  13.563   1.192
73061SOL    HW121015   5.620  13.516   1.190
73061SOL    HW221016   5.477  13.507   1.142
73062SOL     OW21017  12.053   3.819   5.638
73062SOL    HW121018  12.015   3.770   5.565
73062SOL    HW221019  12.104   3.753   5.687
73063SOL     OW21020  12.986   7.434   2.340
73063SOL    HW121021  12.948   7.522   2.333
73063SOL    HW221022  13.069   7.447   2.385
73064SOL     OW21023   9.303  12.116  10.673
73064SOL    HW121024   9.274  12.032  10.638
73064SOL    HW221025   9.358  12.093  10.748
73065SOL     OW21026  13.185  13.708   9.513
73065SOL    HW121027  13.228  13.634   9.469
73065SOL    HW221028  13.254  13.774   9.520
73066SOL     OW21029  11.087  10.263  11.710
73066SOL    HW121030  10.992  10.269  11.721
73066SOL    HW221031  11.099  10.206  11.635
73067SOL     OW21032   8.231   8.735   1.584
73067SOL    HW121033   8.233   8.696   1.496
73067SOL    HW221034   8.161   8.800   1.580
73068SOL     OW21035   3.379   3.730  12.182
73068SOL    HW121036   3.423   3.691  12.107
73068SOL    HW221037   3.436   3.710  12.256
73069SOL     OW21038  13.306   2.029   4.355
73069SOL    HW121039  13.268   1.981   4.282
73069SOL    HW221040  13.256   2.001   4.431
73070SOL     OW21041   7.338   6.609  10.641
73070SOL    HW121042   7.283   6.672  10.595
73070SOL    HW221043   7.389   6.661  10.703
73071SOL     OW21044   8.839   0.056   6.895
73071SOL    HW121045   8.879   0.073   6.981
73071SOL    HW221046   8.785   0.133   6.878
73072SOL     OW21047  11.973   2.461   5.609
73072SOL    HW121048  11.962   2.428   5.698
73072SOL    HW221049  11.904   2.527   5.599
73073SOL     OW21050  14.054   9.016  11.338
73073SOL    HW121051  14.071   8.992  11.247
73073SOL    HW221052  13.983   8.957  11.366
73074SOL     OW21053  11.617   8.538   8.929
73074SOL    HW121054  11.641   8.594   8.855
73074SOL    HW221055  11.642   8.590   9.006
73075SOL     OW21056   1.758   3.955  11.637
73075SOL    HW121057   1.721   4.028  11.587
73075SOL    HW221058   1.801   3.900  11.571
73076SOL     OW21059  10.931   0.370  12.232
73076SOL    HW121060  10.920   0.282  12.268
73076SOL    HW221061  11.022   0.372  12.203
73077SOL     OW21062  12.745   3.619   5.278
73077SOL    HW121063  12.774   3.710   5.277
73077SOL    HW221064  12.825   3.568   5.265
73078SOL     OW21065   2.485   3.077   9.205
73078SOL    HW121066   2.560   3.073   9.147
73078SOL    HW221067   2.422   3.016   9.167
73079SOL     OW21068   9.869  13.276  11.021
73079SOL    HW121069   9.873  13.360  10.975
73079SOL    HW221070   9.939  13.223  10.982
73080SOL     OW21071   0.549   4.110  12.257
73080SOL    HW121072   0.644   4.117  12.270
73080SOL    HW221073   0.518   4.201  12.259
73081SOL     OW21074   3.823   3.613  10.227
73081SOL    HW121075   3.901   3.604  10.283
73081SOL    HW221076   3.820   3.707  10.206
73082SOL     OW21077  10.355  11.257   6.312
73082SOL    HW121078  10.275  11.276   6.360
73082SOL    HW221079  10.342  11.169   6.277
73083SOL     OW21080   8.777  11.482  11.536
73083SOL    HW121081   8.793  11.473  11.630
73083SOL    HW221082   8.685  11.509  11.529
73084SOL     OW21083   4.835  10.408   9.626
73084SOL    HW121084   4.786  10.489   9.611
73084SOL    HW221085   4.811  10.352   9.552
73085SOL     OW21086  14.179   4.719   0.662
73085SOL    HW121087  14.085   4.722   0.682
73085SOL    HW221088  14.217   4.790   0.713
73086SOL     OW21089  10.796  11.364   2.390
73086SOL    HW121090  10.720  11.421   2.401
73086SOL    HW221091  10.769  11.281   2.429
73087SOL     OW21092  11.795   2.078   1.828
73087SOL    HW121093  11.856   2.126   1.884
73087SOL    HW221094  11.845   2.002   1.797
73088SOL     OW21095   0.613  10.379   7.445
73088SOL    HW121096   0.679  10.345   7.385
73088SOL    HW221097   0.663  10.421   7.515
73089SOL     OW21098   6.995  13.836   2.843
73089SOL    HW121099   7.061  13.892   2.884
73089SOL    HW221100   6.962  13.781   2.913
73090SOL     OW21101   6.619  12.568   2.203
73090SOL    HW121102   6.541  12.607   2.241
73090SOL    HW221103   6.663  12.641   2.158
73091SOL     OW21104  12.399   7.275  11.581
73091SOL    HW121105  12.379   7.240  11.494
73091SOL    HW221106  12.378   7.368  11.574
73092SOL     OW21107  11.763  11.679   7.691
73092SOL    HW121108  11.723  11.660   7.776
73092SOL    HW221109  11.848  11.635   7.694
73093SOL     OW21110   8.824   4.862   1.313
73093SOL    HW121111   8.917   4.857   1.335
73093SOL    HW221112   8.780   4.882   1.396
73094SOL     OW21113   9.765  11.430   9.322
73094SOL    HW121114   9.725  11.426   9.409
73094SOL    HW221115   9.847  11.382   9.331
73095SOL     OW21116   6.016   1.805   8.778
73095SOL    HW121117   6.068   1.885   8.769
73095SOL    HW221118   6.070   1.736   8.740
73096SOL     OW21119  13.042  13.524   1.847
73096SOL    HW121120  13.112  13.577   1.810
73096SOL    HW221121  12.961  13.571   1.824
73097SOL     OW21122   6.696   4.643   0.672
73097SOL    HW121123   6.661   4.670   0.757
73097SOL    HW221124   6.783   4.608   0.692
73098SOL     OW21125  12.880   8.678   7.051
73098SOL    HW121126  12.800   8.650   7.005
73098SOL    HW221127  12.849   8.744   7.114
73099SOL     OW21128  10.609   0.736   5.013
73099SOL    HW121129  10.628   0.763   5.103
73099SOL    HW221130  10.531   0.681   5.020
73100SOL     OW21131  11.699   0.246  10.925
73100SOL    HW121132  11.724   0.154  10.910
73100SOL    HW221133  11.604   0.244  10.930
73101SOL     OW21134   1.146   4.627  14.785
73101SOL    HW121135   1.188   4.574  14.717
73101SOL    HW221136   1.214   4.642  14.850
73102SOL     OW21137  13.121   2.846  11.201
73102SOL    HW121138  13.188   2.854  11.133
73102SOL    HW221139  13.162   2.880  11.280
73103SOL     OW21140   8.832  12.034  12.172
73103SOL    HW121141   8.803  12.114  12.130
73103SOL    HW221142   8.920  12.018  12.137
73104SOL     OW21143   0.084   3.458  12.546
73104SOL    HW121144   0.077   3.389  12.612
73104SOL    HW221145   0.096   3.539  12.596
73105SOL     OW21146   6.523   1.408   2.580
73105SOL    HW121147   6.471   1.488   2.573
73105SOL    HW221148   6.481   1.357   2.649
73106SOL     OW21149   0.123   3.483   4.155
73106SOL    HW121150   0.063   3.409   4.151
73106SOL    HW221151   0.066   3.560   4.148
73107SOL     OW21152   9.656   4.066  14.035
73107SOL    HW121153   9.719   4.014  13.985
73107SOL    HW221154   9.710   4.116  14.096
73108SOL     OW21155   3.344   0.238   0.330
73108SOL    HW121156   3.409   0.308   0.327
73108SOL    HW221157   3.348   0.199   0.243
73109SOL     OW21158   5.842   7.908   9.214
73109SOL    HW121159   5.885   7.832   9.176
73109SOL    HW221160   5.914   7.967   9.236
73110SOL     OW21161   4.299  10.138  12.299
73110SOL    HW121162   4.388  10.105  12.287
73110SOL    HW221163   4.243  10.072  12.258
73111SOL     OW21164  13.420   1.372   6.161
73111SOL    HW121165  13.435   1.451   6.109
73111SOL    HW221166  13.388   1.404   6.246
73112SOL     OW21167   9.984  12.613   9.990
73112SOL    HW121168  10.050  12.630  10.058
73112SOL    HW221169   9.998  12.683   9.926
73113SOL     OW21170  13.079   8.323   6.759
73113SOL    HW121171  13.106   8.406   6.720
73113SOL    HW221172  13.039   8.274   6.688
73114SOL     OW21173  11.740   4.773   9.686
73114SOL    HW121174  11.829   4.793   9.656
73114SOL    HW221175  11.751   4.695   9.741
73115SOL     OW21176  14.685  12.065  13.695
73115SOL    HW121177  14.744  12.015  13.752
73115SOL    HW221178  14.736  12.141  13.668
73116SOL     OW21179  12.478   9.715   0.440
73116SOL    HW121180  12.501   9.749   0.526
73116SOL    HW221181  12.535   9.639   0.428
73117SOL     OW21182   0.431   1.621   2.796
73117SOL    HW121183   0.403   1.568   2.871
73117SOL    HW221184   0.450   1.556   2.728
73118SOL     OW21185  10.547   6.312   9.122
73118SOL    HW121186  10.628   6.303   9.072
73118SOL    HW221187  10.501   6.385   9.079
73119SOL     OW21188  11.539  10.074   7.330
73119SOL    HW121189  11.599  10.038   7.396
73119SOL    HW221190  11.512   9.998   7.279
73120SOL     OW21191   7.918   6.971  11.982
73120SOL    HW121192   7.963   6.932  11.907
73120SOL    HW221193   7.902   6.897  12.041
73121SOL     OW21194   8.169  14.334   2.437
73121SOL    HW121195   8.175  14.296   2.525
73121SOL    HW221196   8.219  14.273   2.382
73122SOL     OW21197   3.852  14.472   4.502
73122SOL    HW121198   3.789  14.538   4.529
73122SOL    HW221199   3.811  14.389   4.526
73123SOL     OW21200   7.634   8.936   7.029
73123SOL    HW121201   7.706   8.939   6.966
73123SOL    HW221202   7.555   8.951   6.976
73124SOL     OW21203  13.061   1.731  14.011
73124SOL    HW121204  13.085   1.645  13.978
73124SOL    HW221205  13.121   1.791  13.968
73125SOL     OW21206   0.321  12.248   6.851
73125SOL    HW121207   0.304  12.285   6.764
73125SOL    HW221208   0.416  12.244   6.857
73126SOL     OW21209   0.046   2.188  10.263
73126SOL    HW121210   0.068   2.113  10.317
73126SOL    HW221211  14.830   2.213  10.292
73127SOL     OW21212   2.754  10.211   6.263
73127SOL    HW121213   2.753  10.193   6.357
73127SOL    HW221214   2.811  10.287   6.253
73128SOL     OW21215   6.204   5.976   7.799
73128SOL    HW121216   6.139   5.919   7.840
73128SOL    HW221217   6.155   6.021   7.731
73129SOL     OW21218   0.762   7.583   0.545
73129SOL    HW121219   0.856   7.602   0.549
73129SOL    HW221220   0.757   7.490   0.521
73130SOL     OW21221  12.592  13.559  13.350
73130SOL    HW121222  12.510  13.514  13.368
73130SOL    HW221223  12.638  13.501  13.288
73131SOL     OW21224  11.444   8.020   3.941
73131SOL    HW121225  11.425   8.113   3.950
73131SOL    HW221226  11.494   7.998   4.019
73132SOL     OW21227   4.272   2.781   5.072
73132SOL    HW121228   4.182   2.811   5.063
73132SOL    HW221229   4.324   2.861   5.076
73133SOL     OW21230  14.655   8.076   9.010
73133SOL    HW121231  14.729   8.025   9.043
73133SOL    HW221232  14.653   8.154   9.066
73134SOL     OW21233   8.038  10.012  14.229
73134SOL    HW121234   8.008   9.987  14.317
73134SOL    HW221235   8.115  10.066  14.244
73135SOL     OW21236   8.390  12.976   6.160
73135SOL    HW121237   8.387  12.881   6.159
73135SOL    HW221238   8.301  13.003   6.139
73136SOL     OW21239   1.346   9.030   9.195
73136SOL    HW121240   1.381   9.069   9.275
73136SOL    HW221241   1.423   8.999   9.147
73137SOL     OW21242  10.644   5.102  14.437
73137SOL    HW121243  10.598   5.020  14.425
73137SOL    HW221244  10.597   5.146  14.508
73138SOL     OW21245  14.482  13.464   1.856
73138SOL    HW121246  14.510  13.498   1.770
73138SOL    HW221247  14.538  13.510   1.919
73139SOL     OW21248  10.937  14.274  11.709
73139SOL    HW121249  10.907  14.338  11.773
73139SOL    HW221250  10.963  14.198  11.761
73140SOL     OW21251  14.274   9.803   3.846
73140SOL    HW121252  14.239   9.719   3.873
73140SOL    HW221253  14.366   9.801   3.873
73141SOL     OW21254   4.378   6.546   6.710
73141SOL    HW121255   4.447   6.603   6.675
73141SOL    HW221256   4.396   6.460   6.671
73142SOL     OW21257   8.426  13.649   4.636
73142SOL    HW121258   8.443  13.739   4.662
73142SOL    HW221259   8.476  13.636   4.556
73143SOL     OW21260   0.154   7.960   3.866
73143SOL    HW121261   0.149   8.055   3.879
73143SOL    HW221262   0.097   7.943   3.791
73144SOL     OW21263   5.391  12.075   1.455
73144SOL    HW121264   5.479  12.048   1.483
73144SOL    HW221265   5.362  12.004   1.398
73145SOL     OW21266   6.251   6.055  14.431
73145SOL    HW121267   6.273   6.058  14.524
73145SOL    HW221268   6.222   5.965  14.416
73146SOL     OW21269   2.699  10.399  12.626
73146SOL    HW121270   2.754  10.470  12.593
73146SOL    HW221271   2.733  10.320  12.584
73147SOL     OW21272   5.167   5.684  13.723
73147SOL    HW121273   5.147   5.596  13.693
73147SOL    HW221274   5.228   5.671  13.796
73148SOL     OW21275  10.822   1.339  11.899
73148SOL    HW121276  10.872   1.349  11.818
73148SOL    HW221277  10.758   1.271  11.879
73149SOL     OW21278   1.190   3.511   5.072
73149SOL    HW121279   1.245   3.589   5.086
73149SOL    HW221280   1.244   3.438   5.102
73150SOL     OW21281  10.346  11.406  11.112
73150SOL    HW121282  10.304  11.431  11.030
73150SOL    HW221283  10.427  11.456  11.114
73151SOL     OW21284   7.892   4.327   3.864
73151SOL    HW121285   7.956   4.265   3.828
73151SOL    HW221286   7.924   4.413   3.836
73152SOL     OW21287   7.582  14.515   2.733
73152SOL    HW121288   7.613  14.507   2.823
73152SOL    HW221289   7.613  14.436   2.690
73153SOL     OW21290   6.216   6.265  14.858
73153SOL    HW121291   6.232   6.344  14.807
73153SOL    HW221292   6.293   6.258   0.043
73154SOL     OW21293  12.680   9.653  10.281
73154SOL    HW121294  12.759   9.601  10.273
73154SOL    HW221295  12.612   9.590  10.307
73155SOL     OW21296   5.459   4.869   2.123
73155SOL    HW121297   5.388   4.809   2.097
73155SOL    HW221298   5.532   4.844   2.067
73156SOL     OW21299   7.417  10.699  14.465
73156SOL    HW121300   7.407  10.606  14.482
73156SOL    HW221301   7.492  10.726  14.520
73157SOL     OW21302   3.920   6.636   4.028
73157SOL    HW121303   3.969   6.575   4.084
73157SOL    HW221304   3.886   6.701   4.089
73158SOL     OW21305   0.903  11.200   6.581
73158SOL    HW121306   0.810  11.175   6.588
73158SOL    HW221307   0.935  11.199   6.671
73159SOL     OW21308   8.602  14.834   7.898
73159SOL    HW121309   8.517  14.818   7.938
73159SOL    HW221310   8.591   0.044   7.850
73160SOL     OW21311  12.295   7.858   6.847
73160SOL    HW121312  12.226   7.795   6.865
73160SOL    HW221313  12.250   7.936   6.816
73161SOL     OW21314  11.138  10.604   3.991
73161SOL    HW121315  11.089  10.684   4.009
73161SOL    HW221316  11.141  10.599   3.895
73162SOL     OW21317  12.595   0.451  14.566
73162SOL    HW121318  12.651   0.397  14.510
73162SOL    HW221319  12.593   0.404  14.650
73163SOL     OW21320   0.536   8.418   2.554
73163SOL    HW121321   0.531   8.324   2.573
73163SOL    HW221322   0.446   8.450   2.565
73164SOL     OW21323   3.339  11.807   6.523
73164SOL    HW121324   3.276  11.739   6.500
73164SOL    HW221325   3.303  11.847   6.602
73165SOL     OW21326   1.024   8.055   5.132
73165SOL    HW121327   1.038   8.138   5.088
73165SOL    HW221328   0.931   8.054   5.155
73166SOL     OW21329  13.617   1.014  13.487
73166SOL    HW121330  13.526   0.986  13.493
73166SOL    HW221331  13.666   0.933  13.474
73167SOL     OW21332   0.643   4.159  14.020
73167SOL    HW121333   0.605   4.207  13.947
73167SOL    HW221334   0.677   4.228  14.078
73168SOL     OW21335  10.579   3.406   2.962
73168SOL    HW121336  10.517   3.410   2.889
73168SOL    HW221337  10.534   3.451   3.034
73169SOL     OW21338   8.489   8.891   1.803
73169SOL    HW121339   8.581   8.891   1.829
73169SOL    HW221340   8.441   8.892   1.885
73170SOL     OW21341   7.778   2.272   7.200
73170SOL    HW121342   7.761   2.266   7.294
73170SOL    HW221343   7.854   2.329   7.192
73171SOL     OW21344  11.879  12.130   1.986
73171SOL    HW121345  11.835  12.047   2.002
73171SOL    HW221346  11.815  12.196   2.011
73172SOL     OW21347   0.427  14.480   8.482
73172SOL    HW121348   0.447  14.502   8.573
73172SOL    HW221349   0.410  14.386   8.482
73173SOL     OW21350  13.134   4.142   5.688
73173SOL    HW121351  13.134   4.158   5.783
73173SOL    HW221352  13.162   4.225   5.650
73174SOL     OW21353   4.782  14.052   5.976
73174SOL    HW121354   4.815  14.132   5.934
73174SOL    HW221355   4.712  14.083   6.034
73175SOL     OW21356   5.159   7.284   2.352
73175SOL    HW121357   5.248   7.250   2.338
73175SOL    HW221358   5.130   7.243   2.433
73176SOL     OW21359  14.474   5.140  14.721
73176SOL    HW121360  14.392   5.091  14.724
73176SOL    HW221361  14.535   5.089  14.775
73177SOL     OW21362   7.300   6.761   9.522
73177SOL    HW121363   7.348   6.832   9.479
73177SOL    HW221364   7.368   6.697   9.545
73178SOL     OW21365  10.210  14.420  11.285
73178SOL    HW121366  10.244  14.343  11.238
73178SOL    HW221367  10.120  14.428  11.254
73179SOL     OW21368  11.082  14.646   9.597
73179SOL    HW121369  11.148  14.606   9.655
73179SOL    HW221370  11.110  14.737   9.589
73180SOL     OW21371   2.941   1.838  13.803
73180SOL    HW121372   2.921   1.920  13.757
73180SOL    HW221373   2.905   1.850  13.891
73181SOL     OW21374  12.942   5.988   2.070
73181SOL    HW121375  13.020   5.948   2.030
73181SOL    HW221376  12.976   6.064   2.117
73182SOL     OW21377  10.541   4.507   8.029
73182SOL    HW121378  10.623   4.471   7.996
73182SOL    HW221379  10.495   4.539   7.952
73183SOL     OW21380   2.353   0.118   8.949
73183SOL    HW121381   2.294   0.101   9.023
73183SOL    HW221382   2.301   0.101   8.871
73184SOL     OW21383   4.430   6.521   9.493
73184SOL    HW121384   4.501   6.493   9.435
73184SOL    HW221385   4.385   6.591   9.446
73185SOL     OW21386  12.063   9.467   0.204
73185SOL    HW121387  12.149   9.505   0.222
73185SOL    HW221388  12.001   9.532   0.237
73186SOL     OW21389   7.786   5.939  14.708
73186SOL    HW121390   7.708   5.972  14.664
73186SOL    HW221391   7.848   5.923  14.637
73187SOL     OW21392  12.599   0.761   9.088
73187SOL    HW121393  12.591   0.669   9.063
73187SOL    HW221394  12.679   0.790   9.044
73188SOL     OW21395   5.267   7.179  13.700
73188SOL    HW121396   5.221   7.157  13.618
73188SOL    HW221397   5.320   7.101  13.718
73189SOL     OW21398  13.077  11.145  12.867
73189SOL    HW121399  13.057  11.084  12.938
73189SOL    HW221400  13.037  11.106  12.790
73190SOL     OW21401   2.600   5.452  13.319
73190SOL    HW121402   2.623   5.408  13.237
73190SOL    HW221403   2.666   5.422  13.381
73191SOL     OW21404   6.583  11.767   5.452
73191SOL    HW121405   6.602  11.681   5.489
73191SOL    HW221406   6.633  11.770   5.371
73192SOL     OW21407   7.045   9.882   3.268
73192SOL    HW121408   7.058   9.801   3.317
73192SOL    HW221409   6.950   9.897   3.271
73193SOL     OW21410   8.019   3.583   0.171
73193SOL    HW121411   8.014   3.557   0.079
73193SOL    HW221412   8.099   3.542   0.203
73194SOL     OW21413  12.254  14.117   0.250
73194SOL    HW121414  12.229  14.036   0.295
73194SOL    HW221415  12.172  14.153   0.216
73195SOL     OW21416  10.950  11.308  12.726
73195SOL    HW121417  10.970  11.228  12.678
73195SOL    HW221418  10.996  11.299  12.809
73196SOL     OW21419   8.424  14.849   3.716
73196SOL    HW121420   8.465  14.764   3.732
73196SOL    HW221421   8.497   0.039   3.721
73197SOL     OW21422  10.514  11.357   7.180
73197SOL    HW121423  10.492  11.369   7.272
73197SOL    HW221424  10.577  11.427   7.161
73198SOL     OW21425  12.827   4.701   0.868
73198SOL    HW121426  12.806   4.643   0.795
73198SOL    HW221427  12.904   4.662   0.909
73199SOL     OW21428  13.708   1.438   0.205
73199SOL    HW121429  13.783   1.380   0.210
73199SOL    HW221430  13.716   1.482   0.120
73200SOL     OW21431   8.152   0.274   0.738
73200SOL    HW121432   8.213   0.222   0.790
73200SOL    HW221433   8.146   0.227   0.655
73201SOL     OW21434   1.979   0.540  12.222
73201SOL    HW121435   1.984   0.635  12.232
73201SOL    HW221436   1.979   0.525  12.127
73202SOL     OW21437   0.401  10.704  13.685
73202SOL    HW121438   0.425  10.758  13.761
73202SOL    HW221439   0.334  10.645  13.719
73203SOL     OW21440   3.477   2.384   7.388
73203SOL    HW121441   3.473   2.474   7.358
73203SOL    HW221442   3.547   2.383   7.454
73204SOL     OW21443   4.349   0.155   8.211
73204SOL    HW121444   4.314   0.199   8.134
73204SOL    HW221445   4.279   0.095   8.238
73205SOL     OW21446  12.807  10.994   9.199
73205SOL    HW121447  12.779  10.959   9.114
73205SOL    HW221448  12.727  11.031   9.237
73206SOL     OW21449   9.767   4.016   9.295
73206SOL    HW121450   9.751   4.104   9.262
73206SOL    HW221451   9.687   3.967   9.271
73207SOL     OW21452   3.109   9.944   7.001
73207SOL    HW121453   3.139   9.920   6.913
73207SOL    HW221454   3.152   9.881   7.059
73208SOL     OW21455  11.879   8.610   1.531
73208SOL    HW121456  11.850   8.671   1.463
73208SOL    HW221457  11.798   8.574   1.566
73209SOL     OW21458  12.799   3.113  13.540
73209SOL    HW121459  12.748   3.194  13.548
73209SOL    HW221460  12.877   3.139  13.491
73210SOL     OW21461   3.277   2.073   5.499
73210SOL    HW121462   3.227   2.062   5.418
73210SOL    HW221463   3.368   2.063   5.472
73211SOL     OW21464  12.384   9.693   4.360
73211SOL    HW121465  12.432   9.731   4.433
73211SOL    HW221466  12.403   9.751   4.286
73212SOL     OW21467   2.339  13.212   3.666
73212SOL    HW121468   2.347  13.183   3.575
73212SOL    HW221469   2.292  13.141   3.710
73213SOL     OW21470   2.173   0.365   0.605
73213SOL    HW121471   2.130   0.354   0.520
73213SOL    HW221472   2.140   0.293   0.658
73214SOL     OW21473  14.320  14.772  13.104
73214SOL    HW121474  14.338  14.731  13.189
73214SOL    HW221475  14.227  14.754  13.089
73215SOL     OW21476   6.593  11.806   0.116
73215SOL    HW121477   6.640  11.733   0.075
73215SOL    HW221478   6.604  11.879   0.054
73216SOL     OW21479  12.981   0.407   5.134
73216SOL    HW121480  12.904   0.461   5.152
73216SOL    HW221481  12.948   0.334   5.082
73217SOL     OW21482  10.971   1.058   3.580
73217SOL    HW121483  10.888   1.012   3.573
73217SOL    HW221484  10.969   1.097   3.668
73218SOL     OW21485   1.760  14.435   4.622
73218SOL    HW121486   1.795  14.347   4.609
73218SOL    HW221487   1.714  14.454   4.541
73219SOL     OW21488   3.325  12.368  14.250
73219SOL    HW121489   3.264  12.300  14.277
73219SOL    HW221490   3.270  12.445  14.235
73220SOL     OW21491   7.788  13.688   9.752
73220SOL    HW121492   7.713  13.639   9.719
73220SOL    HW221493   7.862  13.628   9.743
73221SOL     OW21494   6.136   5.504   0.437
73221SOL    HW121495   6.142   5.508   0.341
73221SOL    HW221496   6.051   5.464   0.454
73222SOL     OW21497  11.925  10.357   7.656
73222SOL    HW121498  12.013  10.393   7.668
73222SOL    HW221499  11.867  10.433   7.659
73223SOL     OW21500  14.175   0.771  13.098
73223SOL    HW121501  14.243   0.735  13.154
73223SOL    HW221502  14.171   0.864  13.122
73224SOL     OW21503   6.974  12.026   3.194
73224SOL    HW121504   6.993  12.115   3.164
73224SOL    HW221505   7.022  11.969   3.134
73225SOL     OW21506   9.887  13.122  13.695
73225SOL    HW121507   9.938  13.127  13.776
73225SOL    HW221508   9.796  13.124  13.725
73226SOL     OW21509   8.741  13.071   4.916
73226SOL    HW121510   8.715  13.152   4.960
73226SOL    HW221511   8.800  13.027   4.978
73227SOL     OW21512  14.265   4.268   5.897
73227SOL    HW121513  14.195   4.219   5.939
73227SOL    HW221514  14.220   4.325   5.835
73228SOL     OW21515   4.825  12.448  10.376
73228SOL    HW121516   4.867  12.466  10.292
73228SOL    HW221517   4.732  12.445  10.356
73229SOL     OW21518   9.621  12.170  13.516
73229SOL    HW121519   9.693  12.125  13.472
73229SOL    HW221520   9.651  12.182  13.606
73230SOL     OW21521  12.771  12.029   5.243
73230SOL    HW121522  12.765  11.979   5.324
73230SOL    HW221523  12.754  11.965   5.174
73231SOL     OW21524   5.355   1.855   2.041
73231SOL    HW121525   5.363   1.833   1.948
73231SOL    HW221526   5.268   1.822   2.066
73232SOL     OW21527  14.505  10.452  12.864
73232SOL    HW121528  14.439  10.513  12.898
73232SOL    HW221529  14.534  10.491  12.782
73233SOL     OW21530  13.533   5.357   5.094
73233SOL    HW121531  13.538   5.263   5.113
73233SOL    HW221532  13.456   5.387   5.142
73234SOL     OW21533   3.580  12.742   7.878
73234SOL    HW121534   3.509  12.721   7.818
73234SOL    HW221535   3.576  12.837   7.888
73235SOL     OW21536   7.379   6.402  13.871
73235SOL    HW121537   7.433   6.480  13.881
73235SOL    HW221538   7.290   6.435  13.863
73236SOL     OW21539   5.595   6.248   8.691
73236SOL    HW121540   5.571   6.253   8.783
73236SOL    HW221541   5.689   6.267   8.689
73237SOL     OW21542  13.949   0.883   3.875
73237SOL    HW121543  13.921   0.890   3.966
73237SOL    HW221544  14.020   0.819   3.877
73238SOL     OW21545   1.554   9.646  10.969
73238SOL    HW121546   1.577   9.553  10.961
73238SOL    HW221547   1.598   9.674  11.049
73239SOL     OW21548  13.650   6.125  11.157
73239SOL    HW121549  13.656   6.114  11.252
73239SOL    HW221550  13.729   6.083  11.123
73240SOL     OW21551   4.594   8.631  13.731
73240SOL    HW121552   4.626   8.707  13.780
73240SOL    HW221553   4.586   8.663  13.641
73241SOL     OW21554  10.983   1.297  10.550
73241SOL    HW121555  11.078   1.288  10.538
73241SOL    HW221556  10.961   1.377  10.502
73242SOL     OW21557   8.291   0.188  14.471
73242SOL    HW121558   8.227   0.258  14.459
73242SOL    HW221559   8.305   0.152  14.384
73243SOL     OW21560   2.266  11.008  14.215
73243SOL    HW121561   2.317  10.952  14.274
73243SOL    HW221562   2.246  11.086  14.267
73244SOL     OW21563   0.498   1.569   6.673
73244SOL    HW121564   0.539   1.650   6.641
73244SOL    HW221565   0.421   1.600   6.721
73245SOL     OW21566  10.141  10.418   0.841
73245SOL    HW121567  10.142  10.323   0.832
73245SOL    HW221568  10.064  10.446   0.792
73246SOL     OW21569   5.288   2.883  14.095
73246SOL    HW121570   5.274   2.844  14.182
73246SOL    HW221571   5.204   2.873  14.050
73247SOL     OW21572   4.378  12.218   6.515
73247SOL    HW121573   4.401  12.180   6.599
73247SOL    HW221574   4.340  12.146   6.465
73248SOL     OW21575  13.449   7.044   5.760
73248SOL    HW121576  13.409   7.041   5.847
73248SOL    HW221577  13.399   6.982   5.708
73249SOL     OW21578   9.773   9.083  12.836
73249SOL    HW121579   9.770   8.994  12.800
73249SOL    HW221580   9.691   9.124  12.807
73250SOL     OW21581  11.645   5.371  13.762
73250SOL    HW121582  11.603   5.288  13.738
73250SOL    HW221583  11.626   5.429  13.689
73251SOL     OW21584   3.672   3.732  14.692
73251SOL    HW121585   3.731   3.718  14.766
73251SOL    HW221586   3.727   3.717  14.615
73252SOL     OW21587   0.260  14.464  12.332
73252SOL    HW121588   0.312  14.399  12.378
73252SOL    HW221589   0.215  14.513  12.401
73253SOL     OW21590   2.500   7.993   4.688
73253SOL    HW121591   2.452   7.961   4.764
73253SOL    HW221592   2.498   7.920   4.626
73254SOL     OW21593  11.467   3.747  11.041
73254SOL    HW121594  11.451   3.680  10.975
73254SOL    HW221595  11.532   3.804  11.002
73255SOL     OW21596   4.304   3.378   4.235
73255SOL    HW121597   4.299   3.374   4.331
73255SOL    HW221598   4.232   3.437   4.211
73256SOL     OW21599   5.166   5.602   3.308
73256SOL    HW121600   5.211   5.654   3.240
73256SOL    HW221601   5.143   5.520   3.264
73257SOL     OW21602   1.827   6.644   2.623
73257SOL    HW121603   1.897   6.679   2.568
73257SOL    HW221604   1.807   6.559   2.584
73258SOL     OW21605  12.596  11.148   4.123
73258SOL    HW121606  12.675  11.095   4.129
73258SOL    HW221607  12.605  11.194   4.040
73259SOL     OW21608  12.079   6.378   1.892
73259SOL    HW121609  12.069   6.470   1.865
73259SOL    HW221610  12.168   6.373   1.926
73260SOL     OW21611   8.950   4.159   8.111
73260SOL    HW121612   8.891   4.127   8.179
73260SOL    HW221613   9.029   4.106   8.122
73261SOL     OW21614  12.993   9.161   8.986
73261SOL    HW121615  12.954   9.243   9.017
73261SOL    HW221616  13.038   9.126   9.063
73262SOL     OW21617  13.881   2.167   8.248
73262SOL    HW121618  13.916   2.174   8.159
73262SOL    HW221619  13.852   2.076   8.255
73263SOL     OW21620  14.087   1.569   1.951
73263SOL    HW121621  14.136   1.650   1.938
73263SOL    HW221622  14.152   1.506   1.980
73264SOL     OW21623   7.164   6.765   2.650
73264SOL    HW121624   7.118   6.747   2.568
73264SOL    HW221625   7.250   6.799   2.623
73265SOL     OW21626   8.250   6.671  12.579
73265SOL    HW121627   8.170   6.724  12.581
73265SOL    HW221628   8.218   6.581  12.571
73266SOL     OW21629   8.402  13.903   1.849
73266SOL    HW121630   8.412  13.808   1.846
73266SOL    HW221631   8.324  13.918   1.902
73267SOL     OW21632  13.443  13.478   8.339
73267SOL    HW121633  13.467  13.570   8.324
73267SOL    HW221634  13.348  13.476   8.324
73268SOL     OW21635   9.666   6.383   2.754
73268SOL    HW121636   9.699   6.332   2.827
73268SOL    HW221637   9.724   6.360   2.681
73269SOL     OW21638   3.052   2.175  12.617
73269SOL    HW121639   2.988   2.213  12.557
73269SOL    HW221640   3.033   2.214  12.702
73270SOL     OW21641   1.714  14.652   9.696
73270SOL    HW121642   1.790  14.613   9.740
73270SOL    HW221643   1.730  14.638   9.603
73271SOL     OW21644   4.133  14.546   2.980
73271SOL    HW121645   4.109  14.490   2.906
73271SOL    HW221646   4.220  14.515   3.006
73272SOL     OW21647   3.256  13.568   4.159
73272SOL    HW121648   3.222  13.636   4.216
73272SOL    HW221649   3.191  13.498   4.162
73273SOL     OW21650   3.337  14.524   6.783
73273SOL    HW121651   3.271  14.457   6.765
73273SOL    HW221652   3.364  14.555   6.696
73274SOL     OW21653   5.247  11.652   6.223
73274SOL    HW121654   5.323  11.604   6.190
73274SOL    HW221655   5.282  11.707   6.293
73275SOL     OW21656   8.800  11.244   6.910
73275SOL    HW121657   8.740  11.196   6.966
73275SOL    HW221658   8.853  11.176   6.868
73276SOL     OW21659   1.419   5.310   9.167
73276SOL    HW121660   1.358   5.383   9.172
73276SOL    HW221661   1.418   5.284   9.075
73277SOL     OW21662   6.952  14.848  13.828
73277SOL    HW121663   7.020   0.039  13.850
73277SOL    HW221664   6.972  14.771  13.882
73278SOL     OW21665  10.909   0.969   7.114
73278SOL    HW121666  10.913   0.904   7.043
73278SOL    HW221667  10.825   1.012   7.102
73279SOL     OW21668   7.880  10.309  11.251
73279SOL    HW121669   7.892  10.347  11.164
73279SOL    HW221670   7.967  10.312  11.291
73280SOL     OW21671   4.327  12.034   4.676
73280SOL    HW121672   4.318  11.939   4.668
73280SOL    HW221673   4.333  12.065   4.586
73281SOL     OW21674  11.905  11.410   9.457
73281SOL    HW121675  11.834  11.468   9.482
73281SOL    HW221676  11.884  11.327   9.499
73282SOL     OW21677  12.171   0.849   3.109
73282SOL    HW121678  12.153   0.800   3.029
73282SOL    HW221679  12.186   0.782   3.175
73283SOL     OW21680   0.067  11.466  12.657
73283SOL    HW121681   0.052  11.555  12.626
73283SOL    HW221682   0.090  11.476  12.749
73284SOL     OW21683  13.272   4.527  11.143
73284SOL    HW121684  13.235   4.493  11.061
73284SOL    HW221685  13.357   4.562  11.118
73285SOL     OW21686   9.848   8.687  13.794
73285SOL    HW121687   9.900   8.756  13.837
73285SOL    HW221688   9.812   8.729  13.716
73286SOL     OW21689  14.346   9.365  10.696
73286SOL    HW121690  14.299   9.316  10.629
73286SOL    HW221691  14.329   9.319  10.777
73287SOL     OW21692  12.531  13.939  13.074
73287SOL    HW121693  12.452  13.900  13.113
73287SOL    HW221694  12.513  14.033  13.072
73288SOL     OW21695  11.917  12.934   0.435
73288SOL    HW121696  11.847  12.947   0.499
73288SOL    HW221697  11.972  13.012   0.442
73289SOL     OW21698   2.809   9.476  10.167
73289SOL    HW121699   2.728   9.488  10.119
73289SOL    HW221700   2.878   9.501  10.105
73290SOL     OW21701   6.835  10.925   6.158
73290SOL    HW121702   6.748  10.964   6.159
73290SOL    HW221703   6.878  10.960   6.236
73291SOL     OW21704  11.603  10.066  10.603
73291SOL    HW121705  11.652  10.071  10.521
73291SOL    HW221706  11.550   9.987  10.594
73292SOL     OW21707   4.427   2.479  14.240
73292SOL    HW121708   4.444   2.395  14.199
73292SOL    HW221709   4.512   2.524  14.239
73293SOL     OW21710   9.756  10.800   6.563
73293SOL    HW121711   9.811  10.728   6.533
73293SOL    HW221712   9.697  10.761   6.627
73294SOL     OW21713   7.056   7.895   1.508
73294SOL    HW121714   7.125   7.888   1.442
73294SOL    HW221715   7.051   7.808   1.548
73295SOL     OW21716   0.470  13.256   4.197
73295SOL    HW121717   0.485  13.202   4.275
73295SOL    HW221718   0.387  13.300   4.214
73296SOL     OW21719   1.178   9.397   6.498
73296SOL    HW121720   1.096   9.355   6.471
73296SOL    HW221721   1.212   9.437   6.418
73297SOL     OW21722   5.046  13.209   1.418
73297SOL    HW121723   5.036  13.115   1.433
73297SOL    HW221724   5.102  13.215   1.340
73298SOL     OW21725   1.475  10.596  11.535
73298SOL    HW121726   1.444  10.509  11.560
73298SOL    HW221727   1.438  10.655  11.601
73299SOL     OW21728  11.626   8.359   9.262
73299SOL    HW121729  11.607   8.311   9.342
73299SOL    HW221730  11.659   8.293   9.201
73300SOL     OW21731   1.718   6.509  14.474
73300SOL    HW121732   1.696   6.586  14.422
73300SOL    HW221733   1.634   6.479  14.509
73301SOL     OW21734  13.100   4.771   0.708
73301SOL    HW121735  13.153   4.793   0.631
73301SOL    HW221736  13.079   4.678   0.698
73302SOL     OW21737  13.985   6.499  14.690
73302SOL    HW121738  13.976   6.424  14.631
73302SOL    HW221739  14.012   6.462  14.773
73303SOL     OW21740   9.077   9.107   5.521
73303SOL    HW121741   9.019   9.092   5.447
73303SOL    HW221742   9.032   9.172   5.575
73304SOL     OW21743  13.041   3.679  14.852
73304SOL    HW121744  13.050   3.654  14.760
73304SOL    HW221745  12.970   3.625   0.013
73305SOL     OW21746   4.651   2.091   8.136
73305SOL    HW121747   4.665   1.997   8.147
73305SOL    HW221748   4.699   2.113   8.057
73306SOL     OW21749  13.370   7.357   3.778
73306SOL    HW121750  13.308   7.423   3.808
73306SOL    HW221751  13.323   7.307   3.712
73307SOL     OW21752   3.215  14.481  12.844
73307SOL    HW121753   3.120  14.466  12.835
73307SOL    HW221754   3.238  14.436  12.925
73308SOL     OW21755   4.443   5.432  13.455
73308SOL    HW121756   4.350   5.416  13.441
73308SOL    HW221757   4.479   5.446  13.368
73309SOL     OW21758   9.983   2.486  13.425
73309SOL    HW121759   9.977   2.548  13.352
73309SOL    HW221760   9.961   2.538  13.503
73310SOL     OW21761  11.298   6.126   5.715
73310SOL    HW121762  11.270   6.216   5.729
73310SOL    HW221763  11.290   6.085   5.802
73311SOL     OW21764  13.711  13.544   8.609
73311SOL    HW121765  13.716  13.581   8.697
73311SOL    HW221766  13.685  13.617   8.553
73312SOL     OW21767   5.053  11.973   0.193
73312SOL    HW121768   5.053  11.893   0.140
73312SOL    HW221769   5.123  12.027   0.156
73313SOL     OW21770   9.057   2.565  14.109
73313SOL    HW121771   8.997   2.637  14.089
73313SOL    HW221772   9.135   2.608  14.143
73314SOL     OW21773  10.914   9.529   0.130
73314SOL    HW121774  10.879   9.579   0.056
73314SOL    HW221775  10.992   9.486   0.094
73315SOL     OW21776  12.829   4.676   2.168
73315SOL    HW121777  12.782   4.627   2.236
73315SOL    HW221778  12.861   4.754   2.212
73316SOL     OW21779   7.129   7.656   7.929
73316SOL    HW121780   7.077   7.584   7.963
73316SOL    HW221781   7.066   7.712   7.884
73317SOL     OW21782  13.981   8.530   1.999
73317SOL    HW121783  14.014   8.539   1.910
73317SOL    HW221784  13.885   8.531   1.989
73318SOL     OW21785  13.523   2.560   3.523
73318SOL    HW121786  13.521   2.568   3.619
73318SOL    HW221787  13.522   2.465   3.507
73319SOL     OW21788  12.175   4.483   2.527
73319SOL    HW121789  12.092   4.476   2.573
73319SOL    HW221790  12.226   4.545   2.578
73320SOL     OW21791  11.017  14.503   3.158
73320SOL    HW121792  11.096  14.529   3.205
73320SOL    HW221793  10.947  14.554   3.199
73321SOL     OW21794  13.010  11.780   3.805
73321SOL    HW121795  13.038  11.700   3.850
73321SOL    HW221796  13.060  11.781   3.724
73322SOL     OW21797   9.590   5.799   6.958
73322SOL    HW121798   9.576   5.808   7.053
73322SOL    HW221799   9.555   5.880   6.921
73323SOL     OW21800   6.056   6.458   6.306
73323SOL    HW121801   6.138   6.418   6.334
73323SOL    HW221802   5.996   6.384   6.293
73324SOL     OW21803  10.981   1.131  14.613
73324SOL    HW121804  10.927   1.207  14.593
73324SOL    HW221805  11.001   1.093  14.527
73325SOL     OW21806   2.147  14.148   0.790
73325SOL    HW121807   2.103  14.067   0.764
73325SOL    HW221808   2.076  14.207   0.815
73326SOL     OW21809  11.957  14.422  10.152
73326SOL    HW121810  11.905  14.436  10.232
73326SOL    HW221811  12.047  14.440  10.179
73327SOL     OW21812  13.915   6.201  11.774
73327SOL    HW121813  13.958   6.194  11.689
73327SOL    HW221814  13.985   6.186  11.837
73328SOL     OW21815   4.827   0.185   9.711
73328SOL    HW121816   4.873   0.268   9.718
73328SOL    HW221817   4.882   0.131   9.655
73329SOL     OW21818   2.916   3.062   7.306
73329SOL    HW121819   2.851   3.122   7.267
73329SOL    HW221820   2.866   3.011   7.369
73330SOL     OW21821   7.004   1.971  14.143
73330SOL    HW121822   7.008   1.891  14.195
73330SOL    HW221823   7.047   2.037  14.197
73331SOL     OW21824  11.972   1.016   5.020
73331SOL    HW121825  11.993   0.957   5.092
73331SOL    HW221826  12.049   1.072   5.012
73332SOL     OW21827   6.203  13.798  12.342
73332SOL    HW121828   6.188  13.709  12.311
73332SOL    HW221829   6.203  13.791  12.437
73333SOL     OW21830  12.308   8.871   2.615
73333SOL    HW121831  12.341   8.783   2.595
73333SOL    HW221832  12.382   8.916   2.656
73334SOL     OW21833   8.468  11.937  13.553
73334SOL    HW121834   8.449  11.864  13.612
73334SOL    HW221835   8.454  11.902  13.465
73335SOL     OW21836   1.936   5.090   1.924
73335SOL    HW121837   1.942   5.006   1.969
73335SOL    HW221838   2.021   5.132   1.939
73336SOL     OW21839  10.862  11.901   8.782
73336SOL    HW121840  10.846  11.931   8.871
73336SOL    HW221841  10.816  11.817   8.776
73337SOL     OW21842   0.071   2.941   8.150
73337SOL    HW121843   0.159   2.920   8.179
73337SOL    HW221844   0.020   2.862   8.170
73338SOL     OW21845  11.505   2.955   1.686
73338SOL    HW121846  11.467   2.948   1.599
73338SOL    HW221847  11.598   2.940   1.673
73339SOL     OW21848   2.085   3.269   7.041
73339SOL    HW121849   1.992   3.269   7.018
73339SOL    HW221850   2.087   3.238   7.131
73340SOL     OW21851  13.779  14.563   8.616
73340SOL    HW121852  13.750  14.492   8.558
73340SOL    HW221853  13.698  14.602   8.648
73341SOL     OW21854   9.090  13.732  10.868
73341SOL    HW121855   9.156  13.779  10.818
73341SOL    HW221856   9.006  13.763  10.833
73342SOL     OW21857   2.465   9.925   6.106
73342SOL    HW121858   2.458   9.832   6.087
73342SOL    HW221859   2.526   9.959   6.041
73343SOL     OW21860   5.636  13.474  13.816
73343SOL    HW121861   5.620  13.385  13.785
73343SOL    HW221862   5.729  13.489  13.797
73344SOL     OW21863  12.782   1.333  11.906
73344SOL    HW121864  12.694   1.299  11.885
73344SOL    HW221865  12.773   1.428  11.901
73345SOL     OW21866  10.258   5.889   1.655
73345SOL    HW121867  10.178   5.882   1.603
73345SOL    HW221868  10.318   5.824   1.616
73346SOL     OW21869   2.223   2.472   9.427
73346SOL    HW121870   2.262   2.531   9.362
73346SOL    HW221871   2.263   2.387   9.410
73347SOL     OW21872   3.354   0.186   2.908
73347SOL    HW121873   3.259   0.197   2.901
73347SOL    HW221874   3.389   0.227   2.828
73348SOL     OW21875  11.055   5.105  11.614
73348SOL    HW121876  11.039   5.012  11.627
73348SOL    HW221877  10.984   5.135  11.557
73349SOL     OW21878  10.213  12.218   1.563
73349SOL    HW121879  10.206  12.260   1.649
73349SOL    HW221880  10.248  12.287   1.506
73350SOL     OW21881   0.271   6.347   3.200
73350SOL    HW121882   0.239   6.281   3.139
73350SOL    HW221883   0.291   6.298   3.280
73351SOL     OW21884   4.371   9.782   4.870
73351SOL    HW121885   4.443   9.783   4.933
73351SOL    HW221886   4.339   9.692   4.871
73352SOL     OW21887   6.099   0.422  14.636
73352SOL    HW121888   6.035   0.399  14.568
73352SOL    HW221889   6.183   0.426  14.590
73353SOL     OW21890   9.398  13.577   3.530
73353SOL    HW121891   9.330  13.613   3.587
73353SOL    HW221892   9.443  13.512   3.584
73354SOL     OW21893   7.014   8.473   3.866
73354SOL    HW121894   7.012   8.545   3.803
73354SOL    HW221895   7.074   8.409   3.826
73355SOL     OW21896   5.885   1.523   2.222
73355SOL    HW121897   5.879   1.610   2.260
73355SOL    HW221898   5.805   1.479   2.251
73356SOL     OW21899   0.714   2.212  11.576
73356SOL    HW121900   0.760   2.289  11.541
73356SOL    HW221901   0.763   2.137  11.541
73357SOL     OW21902  12.766   2.282  14.782
73357SOL    HW121903  12.762   2.377  14.777
73357SOL    HW221904  12.702   2.258  14.849
73358SOL     OW21905  14.266  11.235   3.993
73358SOL    HW121906  14.275  11.176   4.068
73358SOL    HW221907  14.176  11.222   3.962
73359SOL     OW21908  13.976   1.135   3.752
73359SOL    HW121909  13.913   1.064   3.753
73359SOL    HW221910  14.058   1.096   3.782
73360SOL     OW21911   1.065  10.887   5.376
73360SOL    HW121912   1.054  10.830   5.300
73360SOL    HW221913   1.159  10.898   5.384
73361SOL     OW21914  11.810   5.703   2.597
73361SOL    HW121915  11.808   5.615   2.561
73361SOL    HW221916  11.899   5.714   2.630
73362SOL     OW21917   0.173  14.102   0.221
73362SOL    HW121918   0.217  14.187   0.226
73362SOL    HW221919   0.236  14.040   0.257
73363SOL     OW21920   3.283  12.283  10.169
73363SOL    HW121921   3.329  12.361  10.199
73363SOL    HW221922   3.309  12.273  10.078
73364SOL     OW21923   3.105   5.202  10.347
73364SOL    HW121924   3.095   5.297  10.341
73364SOL    HW221925   3.165   5.188  10.420
73365SOL     OW21926   0.978   9.845  12.857
73365SOL    HW121927   1.061   9.837  12.809
73365SOL    HW221928   0.985   9.929  12.903
73366SOL     OW21929   8.218  14.485  13.550
73366SOL    HW121930   8.174  14.458  13.469
73366SOL    HW221931   8.216  14.406  13.604
73367SOL     OW21932   1.791   5.311  13.520
73367SOL    HW121933   1.727   5.241  13.513
73367SOL    HW221934   1.823   5.306  13.610
73368SOL     OW21935   4.456   1.243  10.616
73368SOL    HW121936   4.367   1.278  10.610
73368SOL    HW221937   4.496   1.292  10.688
73369SOL     OW21938   0.701  14.166   7.225
73369SOL    HW121939   0.748  14.105   7.168
73369SOL    HW221940   0.630  14.200   7.171
73370SOL     OW21941   3.428   2.843   4.481
73370SOL    HW121942   3.453   2.770   4.537
73370SOL    HW221943   3.336   2.860   4.502
73371SOL     OW21944   0.679   9.157   0.998
73371SOL    HW121945   0.673   9.062   1.008
73371SOL    HW221946   0.692   9.190   1.087
73372SOL     OW21947  14.534  11.690   6.965
73372SOL    HW121948  14.559  11.758   6.903
73372SOL    HW221949  14.518  11.736   7.047
73373SOL     OW21950  10.593   3.400  14.546
73373SOL    HW121951  10.613   3.431  14.457
73373SOL    HW221952  10.663   3.437  14.600
73374SOL     OW21953   0.110  10.198   3.428
73374SOL    HW121954   0.066  10.283   3.438
73374SOL    HW221955   0.103  10.158   3.515
73375SOL     OW21956  14.045   6.705   2.343
73375SOL    HW121957  14.045   6.660   2.258
73375SOL    HW221958  14.047   6.798   2.320
73376SOL     OW21959   3.808   9.592   2.929
73376SOL    HW121960   3.818   9.500   2.908
73376SOL    HW221961   3.726   9.618   2.886
73377SOL     OW21962   9.076  13.070   2.206
73377SOL    HW121963   9.000  13.127   2.221
73377SOL    HW221964   9.058  13.029   2.121
73378SOL     OW21965   3.326  12.011  10.784
73378SOL    HW121966   3.319  12.039  10.876
73378SOL    HW221967   3.324  12.092  10.734
73379SOL     OW21968   8.308   7.469   2.012
73379SOL    HW121969   8.296   7.527   2.087
73379SOL    HW221970   8.224   7.425   2.002
73380SOL     OW21971  13.066   2.063  14.164
73380SOL    HW121972  13.009   2.139  14.170
73380SOL    HW221973  13.099   2.051  14.253
73381SOL     OW21974   0.516   7.544   3.504
73381SOL    HW121975   0.465   7.542   3.585
73381SOL    HW221976   0.463   7.494   3.441
73382SOL     OW21977   9.454   1.262   0.797
73382SOL    HW121978   9.535   1.244   0.845
73382SOL    HW221979   9.481   1.315   0.722
73383SOL     OW21980  11.913   4.226   7.443
73383SOL    HW121981  11.860   4.148   7.429
73383SOL    HW221982  11.879   4.290   7.380
73384SOL     OW21983   4.469   3.428  11.893
73384SOL    HW121984   4.443   3.513  11.929
73384SOL    HW221985   4.530   3.449  11.823
73385SOL     OW21986  13.731   2.728   3.595
73385SOL    HW121987  13.785   2.684   3.660
73385SOL    HW221988  13.665   2.663   3.570
73386SOL     OW21989   5.089   4.047   7.190
73386SOL    HW121990   5.108   3.954   7.201
73386SOL    HW221991   5.136   4.072   7.111
73387SOL     OW21992  13.866  14.059  11.062
73387SOL    HW121993  13.875  14.124  11.132
73387SOL    HW221994  13.911  13.981  11.095
73388SOL     OW21995  14.304   5.038  10.370
73388SOL    HW121996  14.224   5.012  10.416
73388SOL    HW221997  14.281   5.035  10.277
73389SOL     OW21998   5.716   4.609  13.198
73389SOL    HW121999   5.655   4.681  13.186
73389SOL    HW222000   5.687   4.565  13.277
73390SOL     OW22001   9.579   4.766   1.217
73390SOL    HW122002   9.655   4.821   1.196
73390SOL    HW222003   9.584   4.694   1.154
73391SOL     OW22004   0.124   9.501   2.000
73391SOL    HW122005   0.173   9.423   2.025
73391SOL    HW222006   0.090   9.481   1.913
73392SOL     OW22007   4.378  12.650   0.170
73392SOL    HW122008   4.392  12.650   0.075
73392SOL    HW222009   4.442  12.586   0.203
73393SOL     OW22010   8.663   1.858  13.452
73393SOL    HW122011   8.732   1.922  13.437
73393SOL    HW222012   8.611   1.859  13.372
73394SOL     OW22013   7.798  14.668  12.284
73394SOL    HW122014   7.858  14.740  12.301
73394SOL    HW222015   7.712  14.702  12.308
73395SOL     OW22016   1.411   6.897  10.028
73395SOL    HW122017   1.411   6.952  10.106
73395SOL    HW222018   1.349   6.940   9.968
73396SOL     OW22019   1.470   2.301  12.692
73396SOL    HW122020   1.490   2.215  12.655
73396SOL    HW222021   1.483   2.291  12.786
73397SOL     OW22022   1.531   3.814   1.048
73397SOL    HW122023   1.482   3.736   1.076
73397SOL    HW222024   1.543   3.865   1.129
73398SOL     OW22025   9.163   7.278   1.992
73398SOL    HW122026   9.152   7.184   2.005
73398SOL    HW222027   9.244   7.287   1.943
73399SOL     OW22028   1.955  12.119  13.967
73399SOL    HW122029   2.001  12.148  13.888
73399SOL    HW222030   2.006  12.044  13.997
73400SOL     OW22031   0.586   0.380  13.419
73400SOL    HW122032   0.546   0.454  13.374
73400SOL    HW222033   0.679   0.402  13.423
73401SOL     OW22034   1.563   0.570   3.678
73401SOL    HW122035   1.528   0.659   3.683
73401SOL    HW222036   1.487   0.513   3.691
73402SOL     OW22037   1.522   7.166   3.703
73402SOL    HW122038   1.492   7.255   3.688
73402SOL    HW222039   1.615   7.175   3.725
73403SOL     OW22040  13.372   6.125   9.348
73403SOL    HW122041  13.326   6.154   9.427
73403SOL    HW222042  13.301   6.107   9.285
73404SOL     OW22043   7.734   8.172   7.094
73404SOL    HW122044   7.777   8.147   7.175
73404SOL    HW222045   7.689   8.092   7.066
73405SOL     OW22046   4.295   8.762   9.840
73405SOL    HW122047   4.337   8.740   9.923
73405SOL    HW222048   4.272   8.677   9.801
73406SOL     OW22049  12.122   2.231   0.279
73406SOL    HW122050  12.213   2.257   0.297
73406SOL    HW222051  12.101   2.169   0.348
73407SOL     OW22052   6.022   6.931  14.594
73407SOL    HW122053   6.023   6.946  14.499
73407SOL    HW222054   6.114   6.932  14.619
73408SOL     OW22055  13.351   1.136  12.224
73408SOL    HW122056  13.299   1.137  12.143
73408SOL    HW222057  13.348   1.227  12.255
73409SOL     OW22058  12.357  13.747   5.237
73409SOL    HW122059  12.325  13.660   5.215
73409SOL    HW222060  12.439  13.755   5.188
73410SOL     OW22061   6.844   4.347   8.421
73410SOL    HW122062   6.871   4.369   8.510
73410SOL    HW222063   6.773   4.408   8.401
73411SOL     OW22064  13.340   4.850   1.267
73411SOL    HW122065  13.289   4.821   1.192
73411SOL    HW222066  13.307   4.938   1.286
73412SOL     OW22067   5.722   0.553   2.067
73412SOL    HW122068   5.684   0.627   2.114
73412SOL    HW222069   5.726   0.483   2.132
73413SOL     OW22070   8.458   3.132  12.556
73413SOL    HW122071   8.442   3.053  12.608
73413SOL    HW222072   8.455   3.203  12.620
73414SOL     OW22073   3.093  12.973   7.072
73414SOL    HW122074   3.096  12.939   6.982
73414SOL    HW222075   3.178  12.950   7.109
73415SOL     OW22076  12.867   6.461   4.628
73415SOL    HW122077  12.868   6.369   4.603
73415SOL    HW222078  12.957   6.490   4.617
73416SOL     OW22079   3.659   9.242   3.031
73416SOL    HW122080   3.659   9.330   3.070
73416SOL    HW222081   3.605   9.251   2.953
73417SOL     OW22082  11.905  13.932   5.470
73417SOL    HW122083  11.937  13.892   5.551
73417SOL    HW222084  11.912  14.026   5.486
73418SOL     OW22085   3.725   0.889   2.182
73418SOL    HW122086   3.789   0.914   2.249
73418SOL    HW222087   3.758   0.930   2.102
73419SOL     OW22088   9.195  11.004  13.339
73419SOL    HW122089   9.165  11.030  13.426
73419SOL    HW222090   9.137  10.931  13.314
73420SOL     OW22091  14.807  10.240  10.085
73420SOL    HW122092  14.722  10.269  10.118
73420SOL    HW222093  14.864  10.316  10.098
73421SOL     OW22094  10.062  12.929  10.921
73421SOL    HW122095  10.055  13.012  10.874
73421SOL    HW222096  10.082  12.954  11.011
73422SOL     OW22097  10.286   5.303   3.716
73422SOL    HW122098  10.196   5.329   3.736
73422SOL    HW222099  10.277   5.216   3.676
73423SOL     OW22100  12.318   7.991  11.253
73423SOL    HW122101  12.308   8.061  11.318
73423SOL    HW222102  12.330   8.037  11.170
73424SOL     OW22103   6.689   1.967   5.634
73424SOL    HW122104   6.761   1.906   5.623
73424SOL    HW222105   6.659   1.984   5.544
73425SOL     OW22106  10.041   3.129   9.529
73425SOL    HW122107  10.002   3.111   9.614
73425SOL    HW222108  10.074   3.044   9.500
73426SOL     OW22109   2.665  13.216  13.298
73426SOL    HW122110   2.625  13.166  13.227
73426SOL    HW222111   2.592  13.251  13.348
73427SOL     OW22112   8.100   9.723   7.887
73427SOL    HW122113   8.091   9.727   7.792
73427SOL    HW222114   8.194   9.718   7.902
73428SOL     OW22115  10.231   4.633  13.590
73428SOL    HW122116  10.145   4.647  13.550
73428SOL    HW222117  10.255   4.720  13.624
73429SOL     OW22118   0.282   2.516  14.774
73429SOL    HW122119   0.279   2.611  14.763
73429SOL    HW222120   0.358   2.501  14.829
73430SOL     OW22121  13.085  12.458   8.561
73430SOL    HW122122  13.011  12.470   8.501
73430SOL    HW222123  13.046  12.418   8.638
73431SOL     OW22124   9.708   4.171   2.739
73431SOL    HW122125   9.624   4.161   2.784
73431SOL    HW222126   9.689   4.231   2.667
73432SOL     OW22127   2.862   0.012  13.193
73432SOL    HW122128   2.884  14.855  13.282
73432SOL    HW222129   2.930  14.846  13.138
73433SOL     OW22130  11.693   1.288   1.271
73433SOL    HW122131  11.615   1.244   1.238
73433SOL    HW222132  11.714   1.354   1.205
73434SOL     OW22133   0.267   8.848   1.156
73434SOL    HW122134   0.229   8.770   1.117
73434SOL    HW222135   0.196   8.886   1.208
73435SOL     OW22136   0.701   0.351   8.694
73435SOL    HW122137   0.738   0.352   8.605
73435SOL    HW222138   0.777   0.342   8.751
73436SOL     OW22139   0.741   8.072   8.577
73436SOL    HW122140   0.757   8.151   8.627
73436SOL    HW222141   0.798   8.080   8.500
73437SOL     OW22142   0.193   2.445   5.392
73437SOL    HW122143   0.218   2.512   5.328
73437SOL    HW222144   0.161   2.372   5.339
73438SOL     OW22145   4.150   7.474   9.004
73438SOL    HW122146   4.063   7.471   8.964
73438SOL    HW222147   4.177   7.565   8.997
73439SOL     OW22148   8.697  13.680   7.844
73439SOL    HW122149   8.675  13.681   7.751
73439SOL    HW222150   8.779  13.631   7.849
73440SOL     OW22151  12.975  13.880   2.896
73440SOL    HW122152  12.912  13.811   2.876
73440SOL    HW222153  13.052  13.857   2.844
73441SOL     OW22154  11.609  13.922   4.042
73441SOL    HW122155  11.595  13.929   4.137
73441SOL    HW222156  11.522  13.903   4.006
73442SOL     OW22157   9.064   3.487   1.093
73442SOL    HW122158   9.046   3.453   1.005
73442SOL    HW222159   9.122   3.562   1.078
73443SOL     OW22160   8.200   6.394  12.600
73443SOL    HW122161   8.144   6.321  12.627
73443SOL    HW222162   8.281   6.353  12.572
73444SOL     OW22163   4.740   4.018  14.358
73444SOL    HW122164   4.832   4.002  14.339
73444SOL    HW222165   4.725   4.109  14.330
73445SOL     OW22166  14.461  14.255  13.034
73445SOL    HW122167  14.410  14.175  13.024
73445SOL    HW222168  14.545  14.235  12.992
73446SOL     OW22169   8.034   1.674   1.623
73446SOL    HW122170   8.042   1.758   1.668
73446SOL    HW222171   7.942   1.650   1.632
73447SOL     OW22172  12.414  14.620   1.946
73447SOL    HW122173  12.353  14.551   1.973
73447SOL    HW222174  12.476  14.627   2.018
73448SOL     OW22175  14.138  12.317  13.497
73448SOL    HW122176  14.141  12.411  13.479
73448SOL    HW222177  14.051  12.303  13.535
73449SOL     OW22178  13.364   1.638   6.122
73449SOL    HW122179  13.360   1.715   6.064
73449SOL    HW222180  13.366   1.675   6.210
73450SOL     OW22181   1.457  12.104  11.678
73450SOL    HW122182   1.386  12.040  11.674
73450SOL    HW222183   1.487  12.101  11.769
73451SOL     OW22184   5.932   2.016   9.692
73451SOL    HW122185   5.974   2.040   9.774
73451SOL    HW222186   5.962   2.083   9.630
73452SOL     OW22187  14.390   8.229   2.867
73452SOL    HW122188  14.465   8.170   2.873
73452SOL    HW222189  14.428   8.316   2.859
73453SOL     OW22190  14.326   8.930   8.658
73453SOL    HW122191  14.311   8.888   8.574
73453SOL    HW222192  14.264   8.887   8.718
73454SOL     OW22193   4.464  12.117   6.179
73454SOL    HW122194   4.382  12.069   6.190
73454SOL    HW222195   4.446  12.203   6.218
73455SOL     OW22196   4.927   4.783   4.224
73455SOL    HW122197   5.005   4.791   4.279
73455SOL    HW222198   4.857   4.760   4.286
73456SOL     OW22199   7.840   8.136   3.169
73456SOL    HW122200   7.794   8.108   3.247
73456SOL    HW222201   7.901   8.065   3.150
73457SOL     OW22202   0.229   4.023   2.326
73457SOL    HW122203   0.302   4.018   2.264
73457SOL    HW222204   0.166   4.080   2.283
73458SOL     OW22205   5.329   8.102   7.801
73458SOL    HW122206   5.414   8.082   7.763
73458SOL    HW222207   5.302   8.184   7.759
73459SOL     OW22208  10.372  13.206   9.024
73459SOL    HW122209  10.457  13.167   9.004
73459SOL    HW222210  10.384  13.299   9.008
73460SOL     OW22211   0.861  12.952   6.539
73460SOL    HW122212   0.896  12.999   6.464
73460SOL    HW222213   0.925  12.882   6.556
73461SOL     OW22214  14.693   0.107   1.352
73461SOL    HW122215  14.699   0.189   1.401
73461SOL    HW222216  14.783   0.079   1.340
73462SOL     OW22217  14.427   3.298   4.490
73462SOL    HW122218  14.389   3.227   4.541
73462SOL    HW222219  14.391   3.286   4.402
73463SOL     OW22220   0.705  10.787   8.173
73463SOL    HW122221   0.716  10.734   8.094
73463SOL    HW222222   0.665  10.727   8.236
73464SOL     OW22223  10.354   2.910   5.511
73464SOL    HW122224  10.301   2.970   5.563
73464SOL    HW222225  10.387   2.846   5.574
73465SOL     OW22226   0.021   7.587   6.918
73465SOL    HW122227   0.075   7.647   6.969
73465SOL    HW222228  14.852   7.530   6.983
73466SOL     OW22229   6.461   8.759   0.539
73466SOL    HW122230   6.530   8.820   0.564
73466SOL    HW222231   6.413   8.804   0.469
73467SOL     OW22232   4.957   5.568  12.278
73467SOL    HW122233   4.943   5.485  12.324
73467SOL    HW222234   4.956   5.545  12.185
73468SOL     OW22235  10.909   7.811   6.553
73468SOL    HW122236  10.818   7.806   6.523
73468SOL    HW222237  10.945   7.887   6.507
73469SOL     OW22238   2.606   9.610  12.687
73469SOL    HW122239   2.565   9.566  12.761
73469SOL    HW222240   2.566   9.696  12.685
73470SOL     OW22241   8.378  12.084   8.855
73470SOL    HW122242   8.352  12.146   8.924
73470SOL    HW222243   8.386  12.138   8.776
73471SOL     OW22244  14.237   8.428   2.151
73471SOL    HW122245  14.161   8.452   2.097
73471SOL    HW222246  14.205   8.435   2.241
73472SOL     OW22247   5.460   4.679   7.359
73472SOL    HW122248   5.543   4.684   7.406
73472SOL    HW222249   5.465   4.597   7.311
73473SOL     OW22250   1.971   7.181   5.595
73473SOL    HW122251   2.019   7.157   5.674
73473SOL    HW222252   2.038   7.180   5.526
73474SOL     OW22253   8.416   1.196  11.193
73474SOL    HW122254   8.377   1.115  11.160
73474SOL    HW222255   8.416   1.255  11.117
73475SOL     OW22256   4.510   7.706   0.109
73475SOL    HW122257   4.467   7.713   0.023
73475SOL    HW222258   4.572   7.634   0.099
73476SOL     OW22259   8.393  11.462   2.147
73476SOL    HW122260   8.349  11.432   2.067
73476SOL    HW222261   8.425  11.549   2.124
73477SOL     OW22262  13.319   2.589  10.216
73477SOL    HW122263  13.261   2.533  10.163
73477SOL    HW222264  13.322   2.672  10.168
73478SOL     OW22265   5.818   6.280  12.949
73478SOL    HW122266   5.786   6.327  13.026
73478SOL    HW222267   5.846   6.349  12.888
73479SOL     OW22268   1.166   6.143   4.404
73479SOL    HW122269   1.239   6.088   4.434
73479SOL    HW222270   1.193   6.232   4.427
73480SOL     OW22271   1.482   3.576  10.140
73480SOL    HW122272   1.509   3.551  10.051
73480SOL    HW222273   1.389   3.595  10.133
73481SOL     OW22274   1.991   4.006   5.312
73481SOL    HW122275   1.990   4.079   5.250
73481SOL    HW222276   1.994   4.047   5.398
73482SOL     OW22277   2.193  11.485   8.819
73482SOL    HW122278   2.204  11.395   8.788
73482SOL    HW222279   2.098  11.497   8.825
73483SOL     OW22280  11.352  10.906   3.935
73483SOL    HW122281  11.399  10.823   3.935
73483SOL    HW222282  11.398  10.960   3.872
73484SOL     OW22283   6.186   4.776   5.410
73484SOL    HW122284   6.206   4.870   5.405
73484SOL    HW222285   6.237   4.746   5.486
73485SOL     OW22286   5.488   0.810   2.398
73485SOL    HW122287   5.400   0.816   2.434
73485SOL    HW222288   5.546   0.807   2.474
73486SOL     OW22289  14.068   4.408   8.378
73486SOL    HW122290  14.022   4.470   8.435
73486SOL    HW222291  13.999   4.356   8.337
73487SOL     OW22292  13.475   9.615   4.837
73487SOL    HW122293  13.540   9.594   4.769
73487SOL    HW222294  13.525   9.661   4.905
73488SOL     OW22295   5.384   4.754   1.525
73488SOL    HW122296   5.361   4.785   1.437
73488SOL    HW222297   5.480   4.748   1.524
73489SOL     OW22298  13.762  11.457   9.168
73489SOL    HW122299  13.774  11.551   9.182
73489SOL    HW222300  13.779  11.445   9.074
73490SOL     OW22301   5.792   3.316  10.917
73490SOL    HW122302   5.867   3.357  10.959
73490SOL    HW222303   5.752   3.387  10.865
73491SOL     OW22304   5.405   0.074   4.373
73491SOL    HW122305   5.471   0.123   4.423
73491SOL    HW222306   5.377   0.135   4.304
73492SOL     OW22307   9.152   8.722   0.621
73492SOL    HW122308   9.153   8.815   0.644
73492SOL    HW222309   9.217   8.713   0.551
73493SOL     OW22310  10.401  14.106   8.626
73493SOL    HW122311  10.460  14.173   8.590
73493SOL    HW222312  10.414  14.030   8.569
73494SOL     OW22313  12.114   3.004   4.716
73494SOL    HW122314  12.130   3.047   4.632
73494SOL    HW222315  12.175   3.046   4.776
73495SOL     OW22316   3.684  10.709  14.436
73495SOL    HW122317   3.723  10.735  14.519
73495SOL    HW222318   3.756  10.674  14.385
73496SOL     OW22319  11.695   8.799  10.674
73496SOL    HW122320  11.782   8.767  10.654
73496SOL    HW222321  11.655   8.816  10.589
73497SOL     OW22322   0.597   6.219  14.199
73497SOL    HW122323   0.574   6.126  14.193
73497SOL    HW222324   0.690   6.219  14.220
73498SOL     OW22325   6.749   9.793   4.041
73498SOL    HW122326   6.824   9.763   4.092
73498SOL    HW222327   6.746   9.887   4.057
73499SOL     OW22328  12.023   8.006   7.940
73499SOL    HW122329  12.018   7.911   7.949
73499SOL    HW222330  12.087   8.020   7.870
73500SOL     OW22331   8.141   6.862   4.830
73500SOL    HW122332   8.104   6.937   4.877
73500SOL    HW222333   8.191   6.814   4.897
73501SOL     OW22334   7.282   7.064  12.204
73501SOL    HW122335   7.365   7.094  12.168
73501SOL    HW222336   7.250   7.001  12.140
73502SOL     OW22337   5.621   0.845  13.155
73502SOL    HW122338   5.640   0.883  13.069
73502SOL    HW222339   5.559   0.775  13.138
73503SOL     OW22340   2.361  14.340   9.430
73503SOL    HW122341   2.382  14.386   9.512
73503SOL    HW222342   2.440  14.291   9.409
73504SOL     OW22343  13.710   8.079   2.153
73504SOL    HW122344  13.758   8.123   2.083
73504SOL    HW222345  13.772   8.078   2.227
73505SOL     OW22346  10.193  14.859  10.465
73505SOL    HW122347  10.241   0.055  10.418
73505SOL    HW222348  10.147  14.812  10.396
73506SOL     OW22349   4.517   0.759   5.851
73506SOL    HW122350   4.538   0.851   5.833
73506SOL    HW222351   4.524   0.750   5.946
73507SOL     OW22352   1.953   2.655   5.827
73507SOL    HW122353   1.891   2.651   5.754
73507SOL    HW222354   1.968   2.748   5.841
73508SOL     OW22355  12.334  14.200   6.381
73508SOL    HW122356  12.347  14.190   6.287
73508SOL    HW222357  12.317  14.111   6.412
73509SOL     OW22358   0.792   6.422   4.939
73509SOL    HW122359   0.849   6.357   4.982
73509SOL    HW222360   0.849   6.498   4.926
73510SOL     OW22361   7.084   5.885  14.761
73510SOL    HW122362   7.085   5.939  14.841
73510SOL    HW222363   7.022   5.930  14.703
73511SOL     OW22364   3.730   5.151  13.910
73511SOL    HW122365   3.820   5.150  13.941
73511SOL    HW222366   3.724   5.075  13.853
73512SOL     OW22367   5.902   4.386  12.008
73512SOL    HW122368   5.994   4.363  12.017
73512SOL    HW222369   5.874   4.408  12.096
73513SOL     OW22370   9.499  13.577  14.203
73513SOL    HW122371   9.584  13.617  14.187
73513SOL    HW222372   9.459  13.631  14.271
73514SOL     OW22373  13.636  13.980   7.410
73514SOL    HW122374  13.714  14.031   7.389
73514SOL    HW222375  13.661  13.929   7.487
73515SOL     OW22376   3.810  12.994   8.893
73515SOL    HW122377   3.808  13.083   8.928
73515SOL    HW222378   3.881  12.995   8.829
73516SOL     OW22379  14.171   7.391   5.220
73516SOL    HW122380  14.137   7.302   5.216
73516SOL    HW222381  14.262   7.383   5.190
73517SOL     OW22382   6.889  10.449   3.501
73517SOL    HW122383   6.966  10.505   3.499
73517SOL    HW222384   6.822  10.502   3.544
73518SOL     OW22385  10.794   3.157   6.152
73518SOL    HW122386  10.779   3.194   6.065
73518SOL    HW222387  10.822   3.232   6.205
73519SOL     OW22388  11.816   1.415   5.420
73519SOL    HW122389  11.909   1.438   5.412
73519SOL    HW222390  11.780   1.433   5.333
73520SOL     OW22391   8.325   8.875  10.318
73520SOL    HW122392   8.360   8.954  10.276
73520SOL    HW222393   8.251   8.850  10.262
73521SOL     OW22394   9.984   7.520   5.674
73521SOL    HW122395   9.915   7.475   5.625
73521SOL    HW222396  10.009   7.593   5.617
73522SOL     OW22397   8.242  12.716   7.531
73522SOL    HW122398   8.219  12.660   7.457
73522SOL    HW222399   8.252  12.803   7.494
73523SOL     OW22400  14.512   6.806   5.523
73523SOL    HW122401  14.515   6.890   5.569
73523SOL    HW222402  14.495   6.742   5.591
73524SOL     OW22403  12.383  11.232  11.734
73524SOL    HW122404  12.454  11.171  11.751
73524SOL    HW222405  12.427  11.312  11.706
73525SOL     OW22406   9.368  11.634   2.071
73525SOL    HW122407   9.428  11.560   2.077
73525SOL    HW222408   9.340  11.650   2.162
73526SOL     OW22409   7.646   2.338  12.275
73526SOL    HW122410   7.586   2.401  12.234
73526SOL    HW222411   7.708   2.392  12.323
73527SOL     OW22412   3.899   9.570   3.228
73527SOL    HW122413   3.895   9.657   3.187
73527SOL    HW222414   3.993   9.555   3.241
73528SOL     OW22415   3.450  11.362   0.303
73528SOL    HW122416   3.393  11.434   0.276
73528SOL    HW222417   3.524  11.405   0.344
73529SOL     OW22418   0.229  13.975   6.777
73529SOL    HW122419   0.248  14.064   6.747
73529SOL    HW222420   0.137  13.978   6.802
73530SOL     OW22421   7.115  11.013   2.468
73530SOL    HW122422   7.024  11.021   2.496
73530SOL    HW222423   7.126  11.081   2.402
73531SOL     OW22424  12.379   3.506   5.596
73531SOL    HW122425  12.422   3.545   5.520
73531SOL    HW222426  12.325   3.436   5.560
73532SOL     OW22427   4.097   5.850   3.481
73532SOL    HW122428   4.102   5.809   3.567
73532SOL    HW222429   4.015   5.899   3.483
73533SOL     OW22430   4.766   5.928   6.661
73533SOL    HW122431   4.744   5.947   6.570
73533SOL    HW222432   4.683   5.939   6.708
73534SOL     OW22433   5.163  13.860   1.348
73534SOL    HW122434   5.193  13.778   1.309
73534SOL    HW222435   5.187  13.927   1.285
73535SOL     OW22436  13.272  11.365   9.254
73535SOL    HW122437  13.214  11.335   9.324
73535SOL    HW222438  13.337  11.420   9.298
73536SOL     OW22439   1.365  13.007  13.391
73536SOL    HW122440   1.388  12.940  13.456
73536SOL    HW222441   1.390  13.090  13.433
73537SOL     OW22442   9.159   7.734   3.955
73537SOL    HW122443   9.201   7.804   4.005
73537SOL    HW222444   9.065   7.753   3.961
73538SOL     OW22445   0.275  11.371   9.572
73538SOL    HW122446   0.359  11.352   9.530
73538SOL    HW222447   0.295  11.437   9.638
73539SOL     OW22448   1.308  10.791  10.936
73539SOL    HW122449   1.366  10.803  11.011
73539SOL    HW222450   1.222  10.772  10.975
73540SOL     OW22451   4.810   2.830  13.637
73540SOL    HW122452   4.797   2.890  13.564
73540SOL    HW222453   4.789   2.881  13.715
73541SOL     OW22454  12.925   9.111   2.860
73541SOL    HW122455  12.854   9.144   2.805
73541SOL    HW222456  12.887   9.039   2.910
73542SOL     OW22457   9.691  11.473  11.967
73542SOL    HW122458   9.620  11.468  11.902
73542SOL    HW222459   9.676  11.398  12.024
73543SOL     OW22460  10.621   8.510   1.442
73543SOL    HW122461  10.697   8.548   1.397
73543SOL    HW222462  10.555   8.501   1.373
73544SOL     OW22463   6.502   1.942  14.114
73544SOL    HW122464   6.526   2.032  14.094
73544SOL    HW222465   6.537   1.891  14.041
73545SOL     OW22466  11.157  13.867   5.416
73545SOL    HW122467  11.131  13.799   5.353
73545SOL    HW222468  11.153  13.824   5.501
73546SOL     OW22469  11.103   5.696   4.381
73546SOL    HW122470  11.114   5.784   4.416
73546SOL    HW222471  11.085   5.708   4.288
73547SOL     OW22472   4.330   8.614   5.025
73547SOL    HW122473   4.258   8.596   4.964
73547SOL    HW222474   4.309   8.563   5.103
73548SOL     OW22475   7.971   8.720  12.322
73548SOL    HW122476   8.000   8.768  12.400
73548SOL    HW222477   7.912   8.781  12.278
73549SOL     OW22478  12.256  14.168   9.545
73549SOL    HW122479  12.206  14.167   9.627
73549SOL    HW222480  12.346  14.187   9.572
73550SOL     OW22481   1.732   3.730   5.155
73550SOL    HW122482   1.727   3.671   5.080
73550SOL    HW222483   1.760   3.674   5.228
73551SOL     OW22484   4.392  11.899  14.715
73551SOL    HW122485   4.436  11.855  14.642
73551SOL    HW222486   4.461  11.917  14.778
73552SOL     OW22487   8.985   6.200   0.414
73552SOL    HW122488   9.031   6.241   0.487
73552SOL    HW222489   8.893   6.217   0.430
73553SOL     OW22490  12.548   6.065  12.747
73553SOL    HW122491  12.510   5.977  12.757
73553SOL    HW222492  12.487   6.110  12.688
73554SOL     OW22493   7.772  14.400   6.018
73554SOL    HW122494   7.820  14.367   6.094
73554SOL    HW222495   7.720  14.325   5.988
73555SOL     OW22496   3.622   3.925   1.375
73555SOL    HW122497   3.583   3.842   1.401
73555SOL    HW222498   3.715   3.915   1.391
73556SOL     OW22499   6.581   1.726   0.771
73556SOL    HW122500   6.497   1.700   0.733
73556SOL    HW222501   6.561   1.747   0.862
73557SOL     OW22502   0.524   6.368   2.802
73557SOL    HW122503   0.605   6.351   2.752
73557SOL    HW222504   0.534   6.457   2.835
73558SOL     OW22505  13.013   7.026   2.121
73558SOL    HW122506  12.931   7.066   2.093
73558SOL    HW222507  13.078   7.053   2.056
73559SOL     OW22508  13.131   1.040   4.634
73559SOL    HW122509  13.099   1.000   4.715
73559SOL    HW222510  13.051   1.058   4.583
73560SOL     OW22511   4.399  12.690   8.786
73560SOL    HW122512   4.400  12.766   8.727
73560SOL    HW222513   4.491  12.665   8.793
73561SOL     OW22514   3.042   1.683  12.688
73561SOL    HW122515   2.995   1.600  12.694
73561SOL    HW222516   3.014   1.733  12.765
73562SOL     OW22517   0.750  12.929   5.117
73562SOL    HW122518   0.834  12.886   5.099
73562SOL    HW222519   0.733  12.982   5.039
73563SOL     OW22520   7.244   4.278  14.491
73563SOL    HW122521   7.288   4.276  14.576
73563SOL    HW222522   7.252   4.369  14.462
73564SOL     OW22523   5.031   7.681   7.483
73564SOL    HW122524   5.114   7.646   7.515
73564SOL    HW222525   4.979   7.604   7.462
73565SOL     OW22526   3.956  11.822  10.997
73565SOL    HW122527   3.970  11.758  10.927
73565SOL    HW222528   3.869  11.801  11.031
73566SOL     OW22529  11.712   9.021   2.289
73566SOL    HW122530  11.727   9.035   2.196
73566SOL    HW222531  11.639   9.078   2.311
73567SOL     OW22532   0.127  14.096   4.199
73567SOL    HW122533   0.088  14.013   4.171
73567SOL    HW222534   0.054  14.145   4.235
73568SOL     OW22535  13.406   1.792  13.405
73568SOL    HW122536  13.484   1.808  13.459
73568SOL    HW222537  13.334   1.830  13.455
73569SOL     OW22538  12.221  11.046  14.621
73569SOL    HW122539  12.249  11.040  14.530
73569SOL    HW222540  12.143  11.100  14.619
73570SOL     OW22541  12.482   3.733   0.225
73570SOL    HW122542  12.451   3.662   0.168
73570SOL    HW222543  12.530   3.791   0.167
73571SOL     OW22544  14.825  12.304  13.659
73571SOL    HW122545  14.858  12.353  13.584
73571SOL    HW222546   0.017  12.321  13.728
73572SOL     OW22547  10.931  12.196  10.032
73572SOL    HW122548  10.964  12.280  10.064
73572SOL    HW222549  10.885  12.157  10.106
73573SOL     OW22550   5.127   9.178   1.356
73573SOL    HW122551   5.089   9.256   1.396
73573SOL    HW222552   5.216   9.174   1.391
73574SOL     OW22553   0.479  10.181   6.151
73574SOL    HW122554   0.509  10.269   6.130
73574SOL    HW222555   0.559  10.133   6.174
73575SOL     OW22556  11.059   6.714  13.323
73575SOL    HW122557  11.103   6.702  13.407
73575SOL    HW222558  11.068   6.808  13.305
73576SOL     OW22559   9.054   6.787   9.762
73576SOL    HW122560   9.143   6.778   9.797
73576SOL    HW222561   9.033   6.879   9.774
73577SOL     OW22562  10.685  12.190   9.325
73577SOL    HW122563  10.593  12.186   9.297
73577SOL    HW222564  10.682  12.175   9.419
73578SOL     OW22565   7.139  13.875   9.312
73578SOL    HW122566   7.189  13.903   9.235
73578SOL    HW222567   7.197  13.817   9.359
73579SOL     OW22568   9.474  13.556   0.339
73579SOL    HW122569   9.514  13.539   0.424
73579SOL    HW222570   9.392  13.508   0.341
73580SOL     OW22571   6.185  11.280  10.220
73580SOL    HW122572   6.261  11.320  10.178
73580SOL    HW222573   6.146  11.352  10.271
73581SOL     OW22574  12.127  13.355   9.130
73581SOL    HW122575  12.141  13.321   9.041
73581SOL    HW222576  12.193  13.311   9.183
73582SOL     OW22577   0.980   8.532   3.912
73582SOL    HW122578   1.072   8.557   3.906
73582SOL    HW222579   0.934   8.600   3.862
73583SOL     OW22580   4.085  13.770   5.338
73583SOL    HW122581   4.012  13.730   5.385
73583SOL    HW222582   4.056  13.776   5.248
73584SOL     OW22583   3.406  10.482   9.383
73584SOL    HW122584   3.483  10.530   9.414
73584SOL    HW222585   3.436  10.437   9.304
73585SOL     OW22586  14.753  10.162   1.303
73585SOL    HW122587  14.666  10.153   1.263
73585SOL    HW222588  14.796  10.079   1.285
73586SOL     OW22589  14.770   1.361   4.107
73586SOL    HW122590  14.858   1.331   4.084
73586SOL    HW222591  14.754   1.436   4.049
73587SOL     OW22592  14.682   8.127  12.118
73587SOL    HW122593  14.708   8.094  12.204
73587SOL    HW222594  14.746   8.089  12.058
73588SOL     OW22595  13.517   0.935  11.320
73588SOL    HW122596  13.483   1.021  11.295
73588SOL    HW222597  13.586   0.955  11.384
73589SOL     OW22598   0.530   3.949  11.466
73589SOL    HW122599   0.507   3.899  11.387
73589SOL    HW222600   0.519   4.040  11.441
73590SOL     OW22601   1.374  13.426  11.017
73590SOL    HW122602   1.335  13.345  10.984
73590SOL    HW222603   1.467  13.406  11.026
73591SOL     OW22604  12.922   1.403   9.204
73591SOL    HW122605  12.968   1.336   9.154
73591SOL    HW222606  12.975   1.482   9.194
73592SOL     OW22607  14.421   0.235   8.620
73592SOL    HW122608  14.472   0.215   8.541
73592SOL    HW222609  14.468   0.189   8.690
73593SOL     OW22610   5.915  14.109   8.052
73593SOL    HW122611   5.866  14.191   8.051
73593SOL    HW222612   5.852  14.042   8.026
73594SOL     OW22613   4.212   6.804   4.609
73594SOL    HW122614   4.203   6.868   4.680
73594SOL    HW222615   4.273   6.739   4.643
73595SOL     OW22616   4.079   0.731   2.356
73595SOL    HW122617   4.027   0.726   2.275
73595SOL    HW222618   4.024   0.689   2.422
73596SOL     OW22619   8.696   6.526   3.249
73596SOL    HW122620   8.747   6.571   3.182
73596SOL    HW222621   8.648   6.458   3.201
73597SOL     OW22622  11.230  14.000   7.771
73597SOL    HW122623  11.295  13.930   7.765
73597SOL    HW222624  11.192  13.989   7.858
73598SOL     OW22625  12.718  12.628   2.267
73598SOL    HW122626  12.767  12.663   2.341
73598SOL    HW222627  12.638  12.680   2.265
73599SOL     OW22628   6.746   7.016   3.168
73599SOL    HW122629   6.674   6.952   3.164
73599SOL    HW222630   6.768   7.034   3.076
73600SOL     OW22631   2.867   4.657  14.770
73600SOL    HW122632   2.941   4.672  14.828
73600SOL    HW222633   2.898   4.682  14.683
73601SOL     OW22634   7.502  11.070  14.211
73601SOL    HW122635   7.517  11.077  14.305
73601SOL    HW222636   7.514  10.977  14.191
73602SOL     OW22637   4.560  14.448   1.257
73602SOL    HW122638   4.492  14.433   1.323
73602SOL    HW222639   4.512  14.457   1.175
73603SOL     OW22640   0.744   5.475  12.916
73603SOL    HW122641   0.655   5.492  12.887
73603SOL    HW222642   0.785   5.428  12.843
73604SOL     OW22643   5.961   2.642   2.094
73604SOL    HW122644   5.945   2.585   2.170
73604SOL    HW222645   5.875   2.674   2.069
73605SOL     OW22646   4.480   3.892   7.183
73605SOL    HW122647   4.482   3.866   7.275
73605SOL    HW222648   4.463   3.986   7.185
73606SOL     OW22649   3.602   8.291  10.370
73606SOL    HW122650   3.634   8.213  10.326
73606SOL    HW222651   3.622   8.277  10.462
73607SOL     OW22652   3.762   8.327   7.012
73607SOL    HW122653   3.853   8.298   7.022
73607SOL    HW222654   3.725   8.267   6.947
73608SOL     OW22655  11.081  12.077   1.352
73608SOL    HW122656  11.123  11.999   1.315
73608SOL    HW222657  11.149  12.145   1.348
73609SOL     OW22658   8.975   3.967   5.933
73609SOL    HW122659   8.881   3.982   5.936
73609SOL    HW222660   9.012   4.031   5.994
73610SOL     OW22661   3.505  11.652   3.326
73610SOL    HW122662   3.493  11.605   3.409
73610SOL    HW222663   3.588  11.698   3.337
73611SOL     OW22664   0.725   1.535   5.395
73611SOL    HW122665   0.727   1.443   5.368
73611SOL    HW222666   0.733   1.584   5.313
73612SOL     OW22667   5.838   4.448   6.377
73612SOL    HW122668   5.858   4.405   6.294
73612SOL    HW222669   5.909   4.511   6.389
73613SOL     OW22670   4.443   1.159   8.222
73613SOL    HW122671   4.518   1.106   8.193
73613SOL    HW222672   4.380   1.095   8.254
73614SOL     OW22673  10.755   3.550   0.368
73614SOL    HW122674  10.762   3.615   0.438
73614SOL    HW222675  10.803   3.588   0.295
73615SOL     OW22676  12.304  14.737  10.695
73615SOL    HW122677  12.396  14.717  10.676
73615SOL    HW222678  12.287  14.817  10.645
73616SOL     OW22679   8.005   9.090   4.015
73616SOL    HW122680   7.925   9.090   3.963
73616SOL    HW222681   8.072   9.125   3.957
73617SOL     OW22682  10.505  11.485   1.739
73617SOL    HW122683  10.536  11.433   1.813
73617SOL    HW222684  10.409  11.485   1.749
73618SOL     OW22685   4.621   2.787   4.273
73618SOL    HW122686   4.712   2.815   4.278
73618SOL    HW222687   4.574   2.864   4.241
73619SOL     OW22688   7.365   1.110  14.351
73619SOL    HW122689   7.352   1.169  14.425
73619SOL    HW222690   7.408   1.033  14.389
73620SOL     OW22691   3.108   3.250   2.618
73620SOL    HW122692   3.109   3.267   2.712
73620SOL    HW222693   3.120   3.155   2.610
73621SOL     OW22694   5.576  11.485  14.299
73621SOL    HW122695   5.638  11.449  14.363
73621SOL    HW222696   5.490  11.456  14.331
73622SOL     OW22697  10.192   3.094  11.539
73622SOL    HW122698  10.124   3.064  11.599
73622SOL    HW222699  10.154   3.172  11.497
73623SOL     OW22700  14.062   3.708   8.006
73623SOL    HW122701  14.098   3.644   7.945
73623SOL    HW222702  14.025   3.655   8.077
73624SOL     OW22703  11.973   0.993  14.221
73624SOL    HW122704  11.915   1.032  14.156
73624SOL    HW222705  12.023   0.928  14.172
73625SOL     OW22706  11.746   4.966  14.555
73625SOL    HW122707  11.792   4.904  14.612
73625SOL    HW222708  11.680   4.914  14.510
73626SOL     OW22709  14.522  10.191   3.793
73626SOL    HW122710  14.535  10.264   3.853
73626SOL    HW222711  14.432  10.202   3.761
73627SOL     OW22712  13.264  13.298   9.743
73627SOL    HW122713  13.341  13.345   9.711
73627SOL    HW222714  13.281  13.206   9.721
73628SOL     OW22715   1.119   1.027  10.117
73628SOL    HW122716   1.026   1.030  10.095
73628SOL    HW222717   1.139   0.933  10.123
73629SOL     OW22718  10.204  11.537   6.179
73629SOL    HW122719  10.134  11.537   6.113
73629SOL    HW222720  10.279  11.500   6.133
73630SOL     OW22721  11.967   3.278   9.303
73630SOL    HW122722  11.897   3.230   9.259
73630SOL    HW222723  11.950   3.370   9.282
73631SOL     OW22724   5.223   6.909  11.501
73631SOL    HW122725   5.203   6.874  11.587
73631SOL    HW222726   5.311   6.876  11.481
73632SOL     OW22727   9.712   3.288   4.147
73632SOL    HW122728   9.726   3.285   4.241
73632SOL    HW222729   9.694   3.380   4.128
73633SOL     OW22730   3.380   3.414   9.350
73633SOL    HW122731   3.345   3.326   9.340
73633SOL    HW222732   3.458   3.416   9.294
73634SOL     OW22733  10.589   0.272  14.314
73634SOL    HW122734  10.510   0.261  14.261
73634SOL    HW222735  10.563   0.336  14.381
73635SOL     OW22736  14.754  13.388   7.512
73635SOL    HW122737  14.706  13.470   7.526
73635SOL    HW222738  14.706  13.343   7.443
73636SOL     OW22739   5.001   6.317   9.613
73636SOL    HW122740   4.915   6.334   9.574
73636SOL    HW222741   5.048   6.400   9.603
73637SOL     OW22742   7.915  11.398   9.541
73637SOL    HW122743   7.828  11.439   9.550
73637SOL    HW222744   7.904  11.335   9.470
73638SOL     OW22745   5.032   7.097  14.666
73638SOL    HW122746   5.030   7.001  14.661
73638SOL    HW222747   4.953   7.120  14.716
73639SOL     OW22748  10.524   8.059  14.191
73639SOL    HW122749  10.600   8.019  14.232
73639SOL    HW222750  10.488   8.117  14.257
73640SOL     OW22751  11.684  12.220   1.648
73640SOL    HW122752  11.663  12.313   1.638
73640SOL    HW222753  11.599  12.178   1.661
73641SOL     OW22754  14.205   1.172   4.835
73641SOL    HW122755  14.247   1.136   4.913
73641SOL    HW222756  14.197   1.098   4.775
73642SOL     OW22757  13.749  12.540   6.188
73642SOL    HW122758  13.793  12.493   6.259
73642SOL    HW222759  13.657  12.541   6.213
73643SOL     OW22760   2.330   3.764   0.250
73643SOL    HW122761   2.294   3.811   0.326
73643SOL    HW222762   2.318   3.671   0.273
73644SOL     OW22763  13.186   3.146   8.300
73644SOL    HW122764  13.189   3.061   8.257
73644SOL    HW222765  13.121   3.136   8.370
73645SOL     OW22766  12.983  12.599   5.222
73645SOL    HW122767  13.065  12.648   5.218
73645SOL    HW222768  12.987  12.552   5.305
73646SOL     OW22769  12.776  10.138   8.024
73646SOL    HW122770  12.743  10.228   8.024
73646SOL    HW222771  12.699  10.085   8.001
73647SOL     OW22772   0.646   1.300   4.109
73647SOL    HW122773   0.735   1.272   4.085
73647SOL    HW222774   0.653   1.394   4.119
73648SOL     OW22775   3.101   1.602   6.314
73648SOL    HW122776   3.101   1.554   6.231
73648SOL    HW222777   3.027   1.565   6.363
73649SOL     OW22778   3.311   7.687  13.919
73649SOL    HW122779   3.304   7.598  13.954
73649SOL    HW222780   3.401   7.691  13.885
73650SOL     OW22781   1.381  13.706  13.200
73650SOL    HW122782   1.438  13.770  13.156
73650SOL    HW222783   1.424  13.622  13.183
73651SOL     OW22784   7.211  10.099   5.066
73651SOL    HW122785   7.137  10.044   5.090
73651SOL    HW222786   7.287  10.055   5.105
73652SOL     OW22787  11.518   3.524  14.436
73652SOL    HW122788  11.467   3.582  14.380
73652SOL    HW222789  11.607   3.528  14.400
73653SOL     OW22790   1.848   6.836  13.630
73653SOL    HW122791   1.781   6.894  13.593
73653SOL    HW222792   1.816   6.748  13.612
73654SOL     OW22793   0.485   7.901  10.697
73654SOL    HW122794   0.517   7.988  10.677
73654SOL    HW222795   0.391   7.911  10.706
73655SOL     OW22796   5.717   0.371   2.253
73655SOL    HW122797   5.758   0.419   2.324
73655SOL    HW222798   5.634   0.341   2.289
73656SOL     OW22799   5.056   6.965   2.362
73656SOL    HW122800   5.074   6.871   2.361
73656SOL    HW222801   5.074   6.994   2.273
73657SOL     OW22802   3.796   8.804   8.148
73657SOL    HW122803   3.820   8.755   8.070
73657SOL    HW222804   3.859   8.776   8.214
73658SOL     OW22805   3.133   4.512   2.375
73658SOL    HW122806   3.122   4.436   2.433
73658SOL    HW222807   3.054   4.512   2.320
73659SOL     OW22808   6.539  13.634   8.207
73659SOL    HW122809   6.579  13.700   8.149
73659SOL    HW222810   6.546  13.552   8.159
73660SOL     OW22811  13.486  10.869   8.452
73660SOL    HW122812  13.420  10.899   8.391
73660SOL    HW222813  13.489  10.936   8.521
73661SOL     OW22814   0.375   5.800   9.009
73661SOL    HW122815   0.370   5.717   8.961
73661SOL    HW222816   0.322   5.785   9.087
73662SOL     OW22817  12.976   3.540  13.578
73662SOL    HW122818  12.896   3.563  13.532
73662SOL    HW222819  12.947   3.482  13.649
73663SOL     OW22820  12.535   0.606  12.687
73663SOL    HW122821  12.557   0.566  12.602
73663SOL    HW222822  12.615   0.599  12.738
73664SOL     OW22823  14.476   5.658  13.454
73664SOL    HW122824  14.540   5.619  13.513
73664SOL    HW222825  14.526   5.718  13.400
73665SOL     OW22826   8.772   1.252   5.529
73665SOL    HW122827   8.759   1.262   5.623
73665SOL    HW222828   8.793   1.160   5.517
73666SOL     OW22829  14.723  13.970   1.534
73666SOL    HW122830  14.641  13.930   1.565
73666SOL    HW222831  14.777  13.896   1.508
73667SOL     OW22832   5.829   2.814  10.791
73667SOL    HW122833   5.763   2.857  10.736
73667SOL    HW222834   5.898   2.789  10.730
73668SOL     OW22835  10.195   4.589  14.090
73668SOL    HW122836  10.144   4.594  14.171
73668SOL    HW222837  10.261   4.657  14.099
73669SOL     OW22838   1.901   6.184   0.559
73669SOL    HW122839   1.923   6.123   0.489
73669SOL    HW222840   1.850   6.253   0.515
73670SOL     OW22841  11.706   1.838   1.536
73670SOL    HW122842  11.735   1.750   1.513
73670SOL    HW222843  11.745   1.855   1.622
73671SOL     OW22844  13.883   8.911   0.528
73671SOL    HW122845  13.948   8.897   0.597
73671SOL    HW222846  13.927   8.884   0.447
73672SOL     OW22847   1.032  12.327   7.254
73672SOL    HW122848   1.064  12.263   7.318
73672SOL    HW222849   1.074  12.409   7.280
73673SOL     OW22850  10.012   7.852  11.406
73673SOL    HW122851   9.985   7.944  11.411
73673SOL    HW222852  10.066   7.838  11.483
73674SOL     OW22853  12.315   8.368   5.444
73674SOL    HW122854  12.239   8.315   5.418
73674SOL    HW222855  12.360   8.314   5.509
73675SOL     OW22856   9.663  10.059   2.603
73675SOL    HW122857   9.737  10.119   2.609
73675SOL    HW222858   9.623  10.079   2.518
73676SOL     OW22859   1.397   7.760   8.266
73676SOL    HW122860   1.428   7.676   8.299
73676SOL    HW222861   1.474   7.818   8.271
73677SOL     OW22862  13.035   7.934   9.700
73677SOL    HW122863  12.967   7.870   9.722
73677SOL    HW222864  13.111   7.906   9.750
73678SOL     OW22865  10.137   5.937   4.960
73678SOL    HW122866  10.063   5.877   4.965
73678SOL    HW222867  10.214   5.882   4.976
73679SOL     OW22868   2.704   1.821   3.412
73679SOL    HW122869   2.679   1.811   3.320
73679SOL    HW222870   2.662   1.747   3.457
73680SOL     OW22871   4.764  12.325   3.430
73680SOL    HW122872   4.813  12.350   3.352
73680SOL    HW222873   4.777  12.230   3.438
73681SOL     OW22874   3.970  10.598   6.003
73681SOL    HW122875   3.897  10.579   5.945
73681SOL    HW222876   4.028  10.523   5.996
73682SOL     OW22877  11.243   1.091   2.252
73682SOL    HW122878  11.255   1.104   2.158
73682SOL    HW222879  11.272   1.000   2.267
73683SOL     OW22880  12.016   7.406   2.514
73683SOL    HW122881  12.064   7.469   2.461
73683SOL    HW222882  12.044   7.321   2.480
73684SOL     OW22883   9.546  11.843   8.046
73684SOL    HW122884   9.457  11.829   8.013
73684SOL    HW222885   9.602  11.797   7.983
73685SOL     OW22886  12.558   4.433   6.490
73685SOL    HW122887  12.644   4.471   6.475
73685SOL    HW222888  12.498   4.489   6.440
73686SOL     OW22889   6.733  12.438   7.645
73686SOL    HW122890   6.695  12.436   7.557
73686SOL    HW222891   6.824  12.410   7.632
73687SOL     OW22892   0.313  14.484  13.756
73687SOL    HW122893   0.270  14.467  13.672
73687SOL    HW222894   0.388  14.424  13.758
73688SOL     OW22895   0.423  13.205  11.764
73688SOL    HW122896   0.510  13.235  11.735
73688SOL    HW222897   0.408  13.124  11.714
73689SOL     OW22898  10.046  13.852   0.915
73689SOL    HW122899  10.075  13.858   0.823
73689SOL    HW222900   9.965  13.802   0.911
73690SOL     OW22901  14.573  11.097   1.852
73690SOL    HW122902  14.516  11.139   1.788
73690SOL    HW222903  14.557  11.003   1.840
73691SOL     OW22904  13.469  10.043   0.815
73691SOL    HW122905  13.463  10.123   0.763
73691SOL    HW222906  13.400  10.051   0.881
73692SOL     OW22907   4.648  10.129  10.716
73692SOL    HW122908   4.613  10.133  10.627
73692SOL    HW222909   4.728  10.077  10.708
73693SOL     OW22910   6.390  12.823   2.061
73693SOL    HW122911   6.446  12.891   2.097
73693SOL    HW222912   6.377  12.762   2.134
73694SOL     OW22913   3.462  11.676  14.213
73694SOL    HW122914   3.509  11.705  14.135
73694SOL    HW222915   3.527  11.628  14.264
73695SOL     OW22916   8.341  10.710   4.834
73695SOL    HW122917   8.300  10.654   4.768
73695SOL    HW222918   8.302  10.681   4.917
73696SOL     OW22919   0.217   1.479   8.303
73696SOL    HW122920   0.279   1.458   8.233
73696SOL    HW222921   0.176   1.396   8.325
73697SOL     OW22922   2.250  10.517   5.597
73697SOL    HW122923   2.263  10.602   5.553
73697SOL    HW222924   2.230  10.456   5.526
73698SOL     OW22925   4.869   5.726   8.719
73698SOL    HW122926   4.892   5.709   8.628
73698SOL    HW222927   4.903   5.813   8.737
73699SOL     OW22928   0.981  13.898   9.572
73699SOL    HW122929   0.974  13.879   9.666
73699SOL    HW222930   0.920  13.836   9.531
73700SOL     OW22931   5.060  10.111  10.419
73700SOL    HW122932   5.152  10.089  10.403
73700SOL    HW222933   5.016  10.026  10.427
73701SOL     OW22934   3.240   8.831   6.230
73701SOL    HW122935   3.205   8.917   6.255
73701SOL    HW222936   3.200   8.770   6.293
73702SOL     OW22937   3.827   3.852   3.700
73702SOL    HW122938   3.771   3.896   3.764
73702SOL    HW222939   3.810   3.758   3.714
73703SOL     OW22940   0.016   8.810  14.548
73703SOL    HW122941   0.109   8.789  14.563
73703SOL    HW222942   0.007   8.900  14.578
73704SOL     OW22943   9.954  11.102   7.742
73704SOL    HW122944   9.887  11.112   7.810
73704SOL    HW222945   9.951  11.183   7.692
73705SOL     OW22946   1.713   3.165   5.116
73705SOL    HW122947   1.679   3.176   5.027
73705SOL    HW222948   1.802   3.199   5.112
73706SOL     OW22949  12.346   4.846   3.719
73706SOL    HW122950  12.293   4.826   3.641
73706SOL    HW222951  12.294   4.908   3.768
73707SOL     OW22952   2.638  13.936   2.464
73707SOL    HW122953   2.710  13.911   2.407
73707SOL    HW222954   2.581  13.989   2.409
73708SOL     OW22955  13.636   2.134   1.536
73708SOL    HW122956  13.606   2.147   1.626
73708SOL    HW222957  13.621   2.040   1.520
73709SOL     OW22958   1.840  10.676   8.742
73709SOL    HW122959   1.812  10.632   8.662
73709SOL    HW222960   1.868  10.606   8.800
73710SOL     OW22961   4.039  10.865   9.490
73710SOL    HW122962   4.097  10.789   9.487
73710SOL    HW222963   3.997  10.866   9.403
73711SOL     OW22964  10.185  14.401   6.493
73711SOL    HW122965  10.267  14.376   6.450
73711SOL    HW222966  10.211  14.460   6.564
73712SOL     OW22967   6.015   6.361  10.260
73712SOL    HW122968   6.103   6.389  10.283
73712SOL    HW222969   6.022   6.266  10.251
73713SOL     OW22970   2.725   2.209   5.124
73713SOL    HW122971   2.754   2.119   5.143
73713SOL    HW222972   2.630   2.203   5.120
73714SOL     OW22973   9.336  14.721   5.390
73714SOL    HW122974   9.307  14.748   5.303
73714SOL    HW222975   9.363  14.803   5.432
73715SOL     OW22976   6.592   5.393  12.951
73715SOL    HW122977   6.636   5.433  13.026
73715SOL    HW222978   6.661   5.346  12.905
73716SOL     OW22979  10.834   8.237   9.728
73716SOL    HW122980  10.796   8.279   9.651
73716SOL    HW222981  10.881   8.307   9.773
73717SOL     OW22982  11.802   9.640  12.993
73717SOL    HW122983  11.791   9.725  13.035
73717SOL    HW222984  11.820   9.661  12.901
73718SOL     OW22985   7.171   5.659   8.032
73718SOL    HW122986   7.201   5.585   8.083
73718SOL    HW222987   7.218   5.734   8.068
73719SOL     OW22988   4.750   3.068  11.568
73719SOL    HW122989   4.742   3.034  11.479
73719SOL    HW222990   4.845   3.073  11.583
73720SOL     OW22991  12.574   4.051   9.755
73720SOL    HW122992  12.533   4.137   9.767
73720SOL    HW222993  12.631   4.041   9.831
73721SOL     OW22994   8.419   5.327  11.128
73721SOL    HW122995   8.413   5.239  11.164
73721SOL    HW222996   8.491   5.323  11.065
73722SOL     OW22997   3.342   6.389  14.130
73722SOL    HW122998   3.350   6.448  14.054
73722SOL    HW222999   3.350   6.301  14.093
73723SOL     OW23000  12.565   9.375   7.538
73723SOL    HW123001  12.503   9.314   7.499
73723SOL    HW223002  12.616   9.322   7.600
73724SOL     OW23003   4.769   0.035   5.189
73724SOL    HW123004   4.788   0.040   5.096
73724SOL    HW223005   4.676   0.057   5.195
73725SOL     OW23006   8.394   1.355   0.850
73725SOL    HW123007   8.414   1.424   0.788
73725SOL    HW223008   8.391   1.275   0.797
73726SOL     OW23009   3.763   5.036  12.137
73726SOL    HW123010   3.783   5.020  12.045
73726SOL    HW223011   3.846   5.022  12.183
73727SOL     OW23012   6.807   7.029  14.491
73727SOL    HW123013   6.840   7.106  14.537
73727SOL    HW223014   6.858   6.956  14.526
73728SOL     OW23015   1.424   0.084   3.267
73728SOL    HW123016   1.494   0.027   3.236
73728SOL    HW223017   1.418   0.067   3.361
73729SOL     OW23018   4.981  12.583   7.545
73729SOL    HW123019   4.925  12.538   7.608
73729SOL    HW223020   4.920  12.639   7.496
73730SOL     OW23021   2.252   9.420   4.297
73730SOL    HW123022   2.200   9.447   4.221
73730SOL    HW223023   2.204   9.455   4.373
73731SOL     OW23024   8.659   5.166  14.431
73731SOL    HW123025   8.604   5.173  14.352
73731SOL    HW223026   8.608   5.112  14.491
73732SOL     OW23027   8.268   5.374   6.704
73732SOL    HW123028   8.216   5.425   6.766
73732SOL    HW223029   8.203   5.326   6.652
73733SOL     OW23030   7.562   0.394   2.516
73733SOL    HW123031   7.645   0.350   2.535
73733SOL    HW223032   7.531   0.352   2.435
73734SOL     OW23033   1.995   5.159   8.946
73734SOL    HW123034   2.053   5.213   9.000
73734SOL    HW223035   1.913   5.208   8.942
73735SOL     OW23036   0.739  11.528   2.633
73735SOL    HW123037   0.833  11.549   2.630
73735SOL    HW223038   0.697  11.612   2.652
73736SOL     OW23039   1.919   2.958  10.557
73736SOL    HW123040   1.867   2.921  10.627
73736SOL    HW223041   1.875   3.040  10.535
73737SOL     OW23042   9.149  11.639   2.915
73737SOL    HW123043   9.093  11.716   2.927
73737SOL    HW223044   9.217  11.669   2.854
73738SOL     OW23045   6.194  13.456   0.733
73738SOL    HW123046   6.205  13.538   0.780
73738SOL    HW223047   6.101  13.454   0.709
73739SOL     OW23048  11.286  13.742   0.932
73739SOL    HW123049  11.207  13.760   0.982
73739SOL    HW223050  11.296  13.817   0.873
73740SOL     OW23051  12.767   2.952   3.844
73740SOL    HW123052  12.703   2.890   3.878
73740SOL    HW223053  12.824   2.900   3.786
73741SOL     OW23054  12.588  11.456   5.066
73741SOL    HW123055  12.584  11.363   5.087
73741SOL    HW223056  12.498  11.479   5.039
73742SOL     OW23057  13.367  12.945   2.011
73742SOL    HW123058  13.349  13.012   1.944
73742SOL    HW223059  13.290  12.889   2.010
73743SOL     OW23060   8.995  12.488   4.992
73743SOL    HW123061   9.030  12.577   4.993
73743SOL    HW223062   9.072  12.432   4.981
73744SOL     OW23063   4.931   3.319   6.651
73744SOL    HW123064   4.996   3.388   6.644
73744SOL    HW223065   4.892   3.313   6.563
73745SOL     OW23066  14.641  13.951   8.153
73745SOL    HW123067  14.589  14.004   8.213
73745SOL    HW223068  14.620  13.985   8.066
73746SOL     OW23069  14.493   9.601   3.842
73746SOL    HW123070  14.547   9.673   3.811
73746SOL    HW223071  14.431   9.584   3.770
73747SOL     OW23072   7.330   6.515   9.298
73747SOL    HW123073   7.368   6.474   9.220
73747SOL    HW223074   7.390   6.586   9.319
73748SOL     OW23075   7.577   9.778   5.758
73748SOL    HW123076   7.551   9.761   5.667
73748SOL    HW223077   7.595   9.692   5.795
73749SOL     OW23078   7.423   0.241   3.025
73749SOL    HW123079   7.408   0.336   3.031
73749SOL    HW223080   7.352   0.209   2.970
73750SOL     OW23081   0.850  12.060  13.853
73750SOL    HW123082   0.903  12.126  13.897
73750SOL    HW223083   0.898  12.042  13.772
73751SOL     OW23084  14.292   7.680   8.348
73751SOL    HW123085  14.376   7.634   8.339
73751SOL    HW223086  14.227   7.619   8.313
73752SOL     OW23087   3.989  12.849   4.039
73752SOL    HW123088   4.062  12.826   3.983
73752SOL    HW223089   4.019  12.831   4.128
73753SOL     OW23090   2.341   1.264  13.152
73753SOL    HW123091   2.410   1.302  13.206
73753SOL    HW223092   2.259   1.292  13.193
73754SOL     OW23093   7.171   4.286   6.776
73754SOL    HW123094   7.223   4.206   6.767
73754SOL    HW223095   7.130   4.279   6.862
73755SOL     OW23096   0.072   4.820  13.468
73755SOL    HW123097  14.868   4.813  13.525
73755SOL    HW223098   0.037   4.853  13.385
73756SOL     OW23099  12.472   2.419   5.026
73756SOL    HW123100  12.381   2.404   4.999
73756SOL    HW223101  12.468   2.433   5.120
73757SOL     OW23102   3.802  12.732   9.408
73757SOL    HW123103   3.744  12.781   9.350
73757SOL    HW223104   3.787  12.640   9.386
73758SOL     OW23105  11.033  11.825   3.101
73758SOL    HW123106  11.024  11.737   3.138
73758SOL    HW223107  11.074  11.876   3.171
73759SOL     OW23108   4.489   5.915   2.344
73759SOL    HW123109   4.574   5.892   2.307
73759SOL    HW223110   4.498   5.897   2.437
73760SOL     OW23111   9.180   3.513   3.379
73760SOL    HW123112   9.184   3.447   3.310
73760SOL    HW223113   9.216   3.469   3.456
73761SOL     OW23114   1.846   6.314   6.768
73761SOL    HW123115   1.775   6.252   6.781
73761SOL    HW223116   1.914   6.263   6.724
73762SOL     OW23117   1.019  14.003   2.868
73762SOL    HW123118   0.986  13.982   2.955
73762SOL    HW223119   1.040  13.919   2.829
73763SOL     OW23120   2.604   4.724   0.138
73763SOL    HW123121   2.682   4.768   0.173
73763SOL    HW223122   2.596   4.644   0.191
73764SOL     OW23123   0.076   0.153   7.140
73764SOL    HW123124   0.007   0.116   7.195
73764SOL    HW223125   0.151   0.094   7.153
73765SOL     OW23126   4.395  12.669   6.692
73765SOL    HW123127   4.387  12.573   6.685
73765SOL    HW223128   4.320  12.703   6.644
73766SOL     OW23129   5.533  10.246   1.596
73766SOL    HW123130   5.507  10.333   1.626
73766SOL    HW223131   5.499  10.239   1.507
73767SOL     OW23132   4.356   7.012   4.398
73767SOL    HW123133   4.433   6.966   4.365
73767SOL    HW223134   4.323   6.957   4.468
73768SOL     OW23135  13.524  13.217   4.195
73768SOL    HW123136  13.587  13.236   4.125
73768SOL    HW223137  13.439  13.227   4.153
73769SOL     OW23138   1.642   6.558  13.063
73769SOL    HW123139   1.629   6.622  13.134
73769SOL    HW223140   1.666   6.611  12.987
73770SOL     OW23141   9.357   3.075  10.015
73770SOL    HW123142   9.336   2.996   9.965
73770SOL    HW223143   9.335   3.148   9.957
73771SOL     OW23144  12.097   2.032   5.276
73771SOL    HW123145  12.002   2.044   5.275
73771SOL    HW223146  12.125   2.072   5.358
73772SOL     OW23147   5.065   0.777   7.288
73772SOL    HW123148   5.121   0.700   7.297
73772SOL    HW223149   5.120   0.850   7.316
73773SOL     OW23150   7.686   9.848  11.687
73773SOL    HW123151   7.700   9.906  11.612
73773SOL    HW223152   7.625   9.895  11.743
73774SOL     OW23153  10.847   4.701  12.282
73774SOL    HW123154  10.934   4.671  12.255
73774SOL    HW223155  10.787   4.651  12.227
73775SOL     OW23156   2.444   7.199  12.780
73775SOL    HW123157   2.470   7.161  12.865
73775SOL    HW223158   2.416   7.288  12.801
73776SOL     OW23159  14.216   7.760   6.323
73776SOL    HW123160  14.207   7.712   6.406
73776SOL    HW223161  14.280   7.708   6.273
73777SOL     OW23162   2.165  11.765   8.746
73777SOL    HW123163   2.150  11.681   8.790
73777SOL    HW223164   2.091  11.820   8.773
73778SOL     OW23165  14.182   4.916   2.509
73778SOL    HW123166  14.265   4.875   2.533
73778SOL    HW223167  14.173   4.989   2.571
73779SOL     OW23168   2.992   0.848   3.044
73779SOL    HW123169   3.070   0.883   3.087
73779SOL    HW223170   3.015   0.757   3.025
73780SOL     OW23171   4.537  10.660   8.035
73780SOL    HW123172   4.591  10.597   8.083
73780SOL    HW223173   4.590  10.684   7.959
73781SOL     OW23174  14.012   7.039  13.607
73781SOL    HW123175  13.962   7.120  13.607
73781SOL    HW223176  13.965   6.981  13.547
73782SOL     OW23177   1.589  14.233  14.795
73782SOL    HW123178   1.546  14.232  14.709
73782SOL    HW223179   1.595  14.140  14.820
73783SOL     OW23180   8.858  14.522   0.163
73783SOL    HW123181   8.774  14.568   0.169
73783SOL    HW223182   8.908  14.556   0.238
73784SOL     OW23183   8.024   5.377   3.305
73784SOL    HW123184   8.092   5.393   3.369
73784SOL    HW223185   7.942   5.385   3.354
73785SOL     OW23186   8.426  12.713  11.467
73785SOL    HW123187   8.520  12.691  11.468
73785SOL    HW223188   8.423  12.805  11.494
73786SOL     OW23189   0.453   9.167   5.323
73786SOL    HW123190   0.541   9.196   5.348
73786SOL    HW223191   0.426   9.229   5.256
73787SOL     OW23192   3.329  11.528   7.394
73787SOL    HW123193   3.350  11.547   7.302
73787SOL    HW223194   3.413  11.500   7.432
73788SOL     OW23195  11.733   5.814   3.409
73788SOL    HW123196  11.744   5.747   3.341
73788SOL    HW223197  11.725   5.896   3.360
73789SOL     OW23198   0.495   6.490  14.280
73789SOL    HW123199   0.544   6.430  14.224
73789SOL    HW223200   0.450   6.548  14.218
73790SOL     OW23201  14.111   8.215   3.059
73790SOL    HW123202  14.168   8.265   3.000
73790SOL    HW223203  14.153   8.222   3.144
73791SOL     OW23204  11.264  10.315   0.178
73791SOL    HW123205  11.303  10.390   0.222
73791SOL    HW223206  11.222  10.351   0.100
73792SOL     OW23207   9.700   1.953   2.222
73792SOL    HW123208   9.636   2.024   2.214
73792SOL    HW223209   9.744   1.970   2.305
73793SOL     OW23210   4.676  12.667   4.921
73793SOL    HW123211   4.592  12.710   4.901
73793SOL    HW223212   4.705  12.707   5.003
73794SOL     OW23213  13.004   2.281   9.847
73794SOL    HW123214  12.987   2.188   9.862
73794SOL    HW223215  13.099   2.288   9.845
73795SOL     OW23216   7.281   0.855   8.498
73795SOL    HW123217   7.217   0.908   8.452
73795SOL    HW223218   7.266   0.766   8.466
73796SOL     OW23219   5.669   6.092  11.878
73796SOL    HW123220   5.709   6.171  11.916
73796SOL    HW223221   5.581   6.090  11.915
73797SOL     OW23222  13.158   1.032   5.218
73797SOL    HW123223  13.125   0.943   5.205
73797SOL    HW223224  13.206   1.028   5.301
73798SOL     OW23225  11.827  11.384   4.275
73798SOL    HW123226  11.909  11.335   4.272
73798SOL    HW223227  11.817  11.419   4.186
73799SOL     OW23228  11.225  12.488  13.202
73799SOL    HW123229  11.316  12.514  13.198
73799SOL    HW223230  11.225  12.396  13.176
73800SOL     OW23231   1.638   1.241   8.805
73800SOL    HW123232   1.721   1.194   8.810
73800SOL    HW223233   1.658   1.329   8.837
73801SOL     OW23234   5.423   3.133   1.719
73801SOL    HW123235   5.460   3.093   1.799
73801SOL    HW223236   5.478   3.210   1.704
73802SOL     OW23237  13.888   0.578   7.207
73802SOL    HW123238  13.867   0.528   7.286
73802SOL    HW223239  13.806   0.581   7.157
73803SOL     OW23240   0.189   1.719   8.406
73803SOL    HW123241   0.205   1.628   8.381
73803SOL    HW223242   0.223   1.771   8.334
73804SOL     OW23243   2.943   1.612   5.968
73804SOL    HW123244   3.002   1.686   5.951
73804SOL    HW223245   2.858   1.642   5.938
73805SOL     OW23246   3.429  13.345   5.336
73805SOL    HW123247   3.351  13.305   5.375
73805SOL    HW223248   3.395  13.411   5.277
73806SOL     OW23249  10.145   7.929   6.042
73806SOL    HW123250  10.149   7.853   5.984
73806SOL    HW223251  10.153   7.891   6.130
73807SOL     OW23252   2.291   0.574  13.830
73807SOL    HW123253   2.310   0.634  13.758
73807SOL    HW223254   2.230   0.510  13.792
73808SOL     OW23255   8.450   5.038  11.954
73808SOL    HW123256   8.461   5.061  11.862
73808SOL    HW223257   8.427   4.945  11.952
73809SOL     OW23258   1.523   2.259   7.301
73809SOL    HW123259   1.537   2.185   7.242
73809SOL    HW223260   1.548   2.336   7.249
73810SOL     OW23261   8.650  13.490   4.022
73810SOL    HW123262   8.558  13.480   3.995
73810SOL    HW223263   8.684  13.400   4.026
73811SOL     OW23264  14.171   1.867   2.462
73811SOL    HW123265  14.211   1.879   2.376
73811SOL    HW223266  14.243   1.841   2.519
73812SOL     OW23267   8.337  14.058   1.320
73812SOL    HW123268   8.270  13.991   1.324
73812SOL    HW223269   8.288  14.140   1.310
73813SOL     OW23270   9.540   8.278   6.535
73813SOL    HW123271   9.631   8.274   6.565
73813SOL    HW223272   9.501   8.350   6.585
73814SOL     OW23273  11.002  11.960   1.770
73814SOL    HW123274  10.991  11.954   1.675
73814SOL    HW223275  11.028  12.051   1.786
73815SOL     OW23276   0.102   3.100  10.802
73815SOL    HW123277   0.126   3.014  10.837
73815SOL    HW223278   0.077   3.152  10.880
73816SOL     OW23279   2.847   2.210  12.423
73816SOL    HW123280   2.769   2.180  12.377
73816SOL    HW223281   2.904   2.243  12.354
73817SOL     OW23282   5.937  13.340   8.893
73817SOL    HW123283   5.880  13.417   8.894
73817SOL    HW223284   5.919  13.295   8.975
73818SOL     OW23285   7.799   5.708   3.839
73818SOL    HW123286   7.746   5.739   3.912
73818SOL    HW223287   7.736   5.665   3.780
73819SOL     OW23288   9.256   4.464   0.555
73819SOL    HW123289   9.299   4.495   0.635
73819SOL    HW223290   9.327   4.457   0.491
73820SOL     OW23291   0.476   0.413   1.594
73820SOL    HW123292   0.410   0.400   1.662
73820SOL    HW223293   0.559   0.394   1.638
73821SOL     OW23294  12.541  14.180  12.370
73821SOL    HW123295  12.599  14.255  12.385
73821SOL    HW223296  12.558  14.155  12.279
73822SOL     OW23297  12.597   8.685   2.010
73822SOL    HW123298  12.686   8.721   2.014
73822SOL    HW223299  12.610   8.593   1.989
73823SOL     OW23300  10.839   7.995   0.986
73823SOL    HW123301  10.933   7.978   0.972
73823SOL    HW223302  10.819   8.067   0.926
73824SOL     OW23303   7.655  13.626  14.113
73824SOL    HW123304   7.623  13.542  14.081
73824SOL    HW223305   7.634  13.625  14.207
73825SOL     OW23306   6.132  13.637   1.194
73825SOL    HW123307   6.144  13.690   1.273
73825SOL    HW223308   6.221  13.626   1.159
73826SOL     OW23309   0.987  11.617   1.365
73826SOL    HW123310   0.931  11.681   1.319
73826SOL    HW223311   1.023  11.562   1.295
73827SOL     OW23312  10.992   5.968   5.190
73827SOL    HW123313  11.030   6.006   5.269
73827SOL    HW223314  10.955   6.043   5.142
73828SOL     OW23315   1.010   6.560   8.285
73828SOL    HW123316   0.975   6.519   8.206
73828SOL    HW223317   1.031   6.650   8.258
73829SOL     OW23318   5.228  12.106   4.728
73829SOL    HW123319   5.187  12.157   4.657
73829SOL    HW223320   5.164  12.038   4.749
73830SOL     OW23321   7.000   3.973   5.025
73830SOL    HW123322   7.034   4.029   5.095
73830SOL    HW223323   6.920   3.936   5.061
73831SOL     OW23324   0.005   3.222   5.186
73831SOL    HW123325   0.026   3.271   5.107
73831SOL    HW223326   0.021   3.284   5.258
73832SOL     OW23327   6.729   2.007  14.490
73832SOL    HW123328   6.740   2.039  14.401
73832SOL    HW223329   6.812   2.026  14.533
73833SOL     OW23330   0.137   0.321   2.306
73833SOL    HW123331   0.042   0.310   2.315
73833SOL    HW223332   0.156   0.400   2.357
73834SOL     OW23333  12.456  14.629  12.675
73834SOL    HW123334  12.386  14.591  12.620
73834SOL    HW223335  12.508  14.681  12.614
73835SOL     OW23336  12.280   3.813  11.377
73835SOL    HW123337  12.330   3.750  11.325
73835SOL    HW223338  12.196   3.820  11.331
73836SOL     OW23339   6.079  11.669   9.579
73836SOL    HW123340   6.078  11.669   9.675
73836SOL    HW223341   6.100  11.760   9.556
73837SOL     OW23342   9.862   4.095  13.284
73837SOL    HW123343   9.946   4.140  13.284
73837SOL    HW223344   9.865   4.038  13.360
73838SOL     OW23345   8.935  11.787   0.843
73838SOL    HW123346   8.963  11.696   0.834
73838SOL    HW223347   9.015  11.836   0.862
73839SOL     OW23348  13.672   7.992   3.730
73839SOL    HW123349  13.653   7.921   3.792
73839SOL    HW223350  13.586   8.020   3.699
73840SOL     OW23351   4.766  12.320   2.928
73840SOL    HW123352   4.816  12.401   2.935
73840SOL    HW223353   4.685  12.344   2.884
73841SOL     OW23354   1.369  10.990   7.363
73841SOL    HW123355   1.403  10.999   7.274
73841SOL    HW223356   1.298  10.926   7.355
73842SOL     OW23357   3.388  14.434   1.601
73842SOL    HW123358   3.402  14.454   1.509
73842SOL    HW223359   3.303  14.390   1.603
73843SOL     OW23360   2.748   3.165   9.127
73843SOL    HW123361   2.803   3.123   9.194
73843SOL    HW223362   2.726   3.250   9.164
73844SOL     OW23363  14.003  11.165   4.345
73844SOL    HW123364  13.995  11.249   4.298
73844SOL    HW223365  13.913  11.134   4.354
73845SOL     OW23366  10.232   7.911  12.508
73845SOL    HW123367  10.265   7.999  12.530
73845SOL    HW223368  10.209   7.917  12.415
73846SOL     OW23369   1.692   9.303   7.585
73846SOL    HW123370   1.734   9.350   7.657
73846SOL    HW223371   1.731   9.340   7.506
73847SOL     OW23372  10.760   5.472   7.092
73847SOL    HW123373  10.745   5.510   7.178
73847SOL    HW223374  10.840   5.514   7.060
73848SOL     OW23375   6.551   8.401   7.534
73848SOL    HW123376   6.552   8.445   7.619
73848SOL    HW223377   6.467   8.426   7.496
73849SOL     OW23378   8.213   6.614  11.855
73849SOL    HW123379   8.212   6.594  11.762
73849SOL    HW223380   8.133   6.665  11.869
73850SOL     OW23381   0.234   5.104   5.692
73850SOL    HW123382   0.264   5.075   5.605
73850SOL    HW223383   0.251   5.198   5.693
73851SOL     OW23384   1.623   3.977  11.980
73851SOL    HW123385   1.650   4.066  11.957
73851SOL    HW223386   1.702   3.924  11.969
73852SOL     OW23387   4.417   3.268   6.504
73852SOL    HW123388   4.477   3.302   6.571
73852SOL    HW223389   4.465   3.195   6.465
73853SOL     OW23390  14.602   9.116  10.701
73853SOL    HW123391  14.635   9.205  10.713
73853SOL    HW223392  14.513   9.118  10.734
73854SOL     OW23393   6.035   1.790   3.160
73854SOL    HW123394   6.099   1.857   3.139
73854SOL    HW223395   5.976   1.788   3.085
73855SOL     OW23396   2.842  11.984   8.863
73855SOL    HW123397   2.902  11.939   8.922
73855SOL    HW223398   2.819  11.919   8.797
73856SOL     OW23399   5.074   3.164   3.795
73856SOL    HW123400   4.982   3.178   3.774
73856SOL    HW223401   5.089   3.219   3.872
73857SOL     OW23402  11.392   2.520  12.068
73857SOL    HW123403  11.486   2.535  12.054
73857SOL    HW223404  11.351   2.603  12.046
73858SOL     OW23405   0.640   8.475  13.572
73858SOL    HW123406   0.579   8.406  13.599
73858SOL    HW223407   0.617   8.493  13.481
73859SOL     OW23408   3.058   8.045   2.195
73859SOL    HW123409   3.012   8.064   2.277
73859SOL    HW223410   2.989   8.052   2.128
73860SOL     OW23411   4.286  12.445  12.596
73860SOL    HW123412   4.222  12.377  12.576
73860SOL    HW223413   4.236  12.511  12.643
73861SOL     OW23414   8.583   3.781   0.133
73861SOL    HW123415   8.569   3.873   0.154
73861SOL    HW223416   8.675   3.776   0.107
73862SOL     OW23417  12.475   4.055   8.734
73862SOL    HW123418  12.428   3.979   8.697
73862SOL    HW223419  12.449   4.128   8.678
73863SOL     OW23420  13.664   6.512   2.154
73863SOL    HW123421  13.683   6.544   2.242
73863SOL    HW223422  13.571   6.489   2.157
73864SOL     OW23423   7.193   1.953  13.426
73864SOL    HW123424   7.215   2.009  13.500
73864SOL    HW223425   7.175   2.013  13.354
73865SOL     OW23426   9.062   1.684   0.742
73865SOL    HW123427   9.010   1.731   0.807
73865SOL    HW223428   9.045   1.731   0.660
73866SOL     OW23429   4.327  13.958   8.794
73866SOL    HW123430   4.389  14.025   8.765
73866SOL    HW223431   4.314  13.977   8.887
73867SOL     OW23432   4.763   9.035  14.669
73867SOL    HW123433   4.732   9.101  14.607
73867SOL    HW223434   4.847   9.068  14.699
73868SOL     OW23435   2.104   8.234   9.893
73868SOL    HW123436   2.133   8.148   9.861
73868SOL    HW223437   2.184   8.285   9.902
73869SOL     OW23438   1.262   4.531  11.826
73869SOL    HW123439   1.256   4.479  11.746
73869SOL    HW223440   1.188   4.592  11.820
73870SOL     OW23441  10.004   1.023  11.334
73870SOL    HW123442   9.968   1.020  11.245
73870SOL    HW223443  10.084   0.971  11.328
73871SOL     OW23444   7.532   7.776  10.522
73871SOL    HW123445   7.610   7.756  10.470
73871SOL    HW223446   7.566   7.799  10.609
73872SOL     OW23447   0.093   1.192   8.822
73872SOL    HW123448   0.132   1.188   8.735
73872SOL    HW223449   0.031   1.119   8.823
73873SOL     OW23450   7.518  12.328  11.423
73873SOL    HW123451   7.523  12.254  11.363
73873SOL    HW223452   7.603  12.331  11.466
73874SOL     OW23453   1.408   9.324  12.799
73874SOL    HW123454   1.377   9.264  12.867
73874SOL    HW223455   1.328   9.360  12.761
73875SOL     OW23456   1.828   1.155   3.727
73875SOL    HW123457   1.901   1.133   3.785
73875SOL    HW223458   1.794   1.070   3.697
73876SOL     OW23459   2.889  11.526  14.496
73876SOL    HW123460   2.897  11.493  14.586
73876SOL    HW223461   2.850  11.612  14.506
73877SOL     OW23462   3.589   6.150   6.922
73877SOL    HW123463   3.524   6.145   6.993
73877SOL    HW223464   3.545   6.111   6.847
73878SOL     OW23465   4.568   3.222  13.761
73878SOL    HW123466   4.488   3.244  13.713
73878SOL    HW223467   4.564   3.127  13.772
73879SOL     OW23468  12.536  13.127   1.647
73879SOL    HW123469  12.508  13.123   1.555
73879SOL    HW223470  12.629  13.106   1.644
73880SOL     OW23471   6.105   0.407   3.593
73880SOL    HW123472   6.067   0.491   3.566
73880SOL    HW223473   6.038   0.342   3.571
73881SOL     OW23474  13.604   3.925   2.219
73881SOL    HW123475  13.647   3.995   2.169
73881SOL    HW223476  13.643   3.933   2.307
73882SOL     OW23477  10.137  10.438  10.213
73882SOL    HW123478  10.226  10.403  10.205
73882SOL    HW223479  10.127  10.458  10.306
73883SOL     OW23480   1.561   6.147   5.768
73883SOL    HW123481   1.622   6.102   5.711
73883SOL    HW223482   1.480   6.096   5.762
73884SOL     OW23483   1.023   0.842   4.732
73884SOL    HW123484   0.939   0.827   4.775
73884SOL    HW223485   1.041   0.760   4.685
73885SOL     OW23486   0.479   1.608   5.458
73885SOL    HW123487   0.456   1.531   5.511
73885SOL    HW223488   0.573   1.600   5.445
73886SOL     OW23489   8.487   7.817  10.795
73886SOL    HW123490   8.428   7.748  10.764
73886SOL    HW223491   8.511   7.790  10.884
73887SOL     OW23492   1.624   1.494   1.259
73887SOL    HW123493   1.552   1.457   1.208
73887SOL    HW223494   1.702   1.470   1.211
73888SOL     OW23495   3.185   8.877  13.222
73888SOL    HW123496   3.206   8.785  13.234
73888SOL    HW223497   3.248   8.924  13.278
73889SOL     OW23498  11.239  12.716  12.731
73889SOL    HW123499  11.267  12.671  12.811
73889SOL    HW223500  11.321  12.746  12.691
73890SOL     OW23501   7.927   0.159  13.118
73890SOL    HW123502   7.979   0.139  13.040
73890SOL    HW223503   7.992   0.178  13.186
73891SOL     OW23504   5.321  10.844   1.535
73891SOL    HW123505   5.384  10.840   1.607
73891SOL    HW223506   5.351  10.918   1.481
73892SOL     OW23507   0.065   0.535   7.511
73892SOL    HW123508   0.116   0.612   7.487
73892SOL    HW223509   0.057   0.484   7.431
73893SOL     OW23510  10.785   1.095  10.548
73893SOL    HW123511  10.834   1.177  10.556
73893SOL    HW223512  10.770   1.086  10.453
73894SOL     OW23513   3.046   6.784   4.478
73894SOL    HW123514   3.002   6.720   4.533
73894SOL    HW223515   3.128   6.803   4.523
73895SOL     OW23516   7.392   3.125   7.332
73895SOL    HW123517   7.422   3.216   7.330
73895SOL    HW223518   7.338   3.116   7.254
73896SOL     OW23519   9.706  10.579  10.930
73896SOL    HW123520   9.768  10.589  10.857
73896SOL    HW223521   9.752  10.521  10.991
73897SOL     OW23522   8.003   7.286   7.741
73897SOL    HW123523   7.975   7.290   7.832
73897SOL    HW223524   7.987   7.195   7.715
73898SOL     OW23525   0.657  14.332   0.637
73898SOL    HW123526   0.683  14.341   0.545
73898SOL    HW223527   0.738  14.345   0.686
73899SOL     OW23528  10.947   4.144   7.220
73899SOL    HW123529  10.949   4.074   7.285
73899SOL    HW223530  10.854   4.153   7.198
73900SOL     OW23531   2.450  10.147   9.754
73900SOL    HW123532   2.539  10.127   9.782
73900SOL    HW223533   2.396  10.080   9.796
73901SOL     OW23534   3.295   1.965   8.890
73901SOL    HW123535   3.299   2.060   8.886
73901SOL    HW223536   3.381   1.936   8.861
73902SOL     OW23537   2.362  12.185  14.461
73902SOL    HW123538   2.297  12.121  14.489
73902SOL    HW223539   2.326  12.269  14.487
73903SOL     OW23540   6.806  12.822   7.891
73903SOL    HW123541   6.745  12.853   7.825
73903SOL    HW223542   6.793  12.727   7.892
73904SOL     OW23543   2.422   1.950   4.836
73904SOL    HW123544   2.333   1.915   4.827
73904SOL    HW223545   2.463   1.893   4.900
73905SOL     OW23546   2.663   2.266   7.079
73905SOL    HW123547   2.687   2.250   6.988
73905SOL    HW223548   2.736   2.316   7.115
73906SOL     OW23549   2.940   5.308   9.552
73906SOL    HW123550   2.890   5.227   9.541
73906SOL    HW223551   3.002   5.307   9.479
73907SOL     OW23552  12.268   3.837   8.079
73907SOL    HW123553  12.299   3.755   8.041
73907SOL    HW223554  12.282   3.826   8.173
73908SOL     OW23555  11.131  10.674   6.808
73908SOL    HW123556  11.056  10.699   6.861
73908SOL    HW223557  11.150  10.750   6.754
73909SOL     OW23558   2.220   6.353  14.125
73909SOL    HW123559   2.272   6.373  14.047
73909SOL    HW223560   2.221   6.258  14.131
73910SOL     OW23561   1.954   8.485  13.456
73910SOL    HW123562   1.945   8.390  13.462
73910SOL    HW223563   2.009   8.499  13.379
73911SOL     OW23564  11.395  12.721   3.679
73911SOL    HW123565  11.432  12.698   3.764
73911SOL    HW223566  11.346  12.801   3.694
73912SOL     OW23567   2.796  13.799   9.563
73912SOL    HW123568   2.889  13.781   9.570
73912SOL    HW223569   2.778  13.863   9.632
73913SOL     OW23570  13.934   7.914   0.974
73913SOL    HW123571  14.023   7.928   0.943
73913SOL    HW223572  13.882   7.980   0.928
73914SOL     OW23573   4.809  12.451   3.886
73914SOL    HW123574   4.761  12.430   3.806
73914SOL    HW223575   4.786  12.381   3.948
73915SOL     OW23576   1.956   7.228  13.392
73915SOL    HW123577   1.995   7.189  13.314
73915SOL    HW223578   1.960   7.159  13.459
73916SOL     OW23579   9.830  14.380   4.888
73916SOL    HW123580   9.736  14.365   4.878
73916SOL    HW223581   9.862  14.394   4.799
73917SOL     OW23582   3.927  10.545  11.593
73917SOL    HW123583   3.947  10.596  11.515
73917SOL    HW223584   4.000  10.485  11.602
73918SOL     OW23585  11.926   4.566   2.188
73918SOL    HW123586  12.019   4.588   2.200
73918SOL    HW223587  11.928   4.482   2.142
73919SOL     OW23588  14.423   1.976  12.998
73919SOL    HW123589  14.353   1.910  13.000
73919SOL    HW223590  14.484   1.943  12.933
73920SOL     OW23591  11.488   9.010   4.304
73920SOL    HW123592  11.580   9.037   4.303
73920SOL    HW223593  11.439   9.092   4.305
73921SOL     OW23594  12.704   4.938   1.312
73921SOL    HW123595  12.796   4.932   1.286
73921SOL    HW223596  12.702   4.902   1.401
73922SOL     OW23597   5.766   5.186  11.883
73922SOL    HW123598   5.745   5.097  11.855
73922SOL    HW223599   5.750   5.240  11.805
73923SOL     OW23600   7.244   0.496   8.600
73923SOL    HW123601   7.239   0.412   8.555
73923SOL    HW223602   7.246   0.561   8.530
73924SOL     OW23603  10.319   7.459  12.611
73924SOL    HW123604  10.349   7.475  12.522
73924SOL    HW223605  10.336   7.541  12.657
73925SOL     OW23606   5.913   3.528   9.648
73925SOL    HW123607   5.828   3.505   9.686
73925SOL    HW223608   5.923   3.621   9.666
73926SOL     OW23609  12.099   5.095   9.616
73926SOL    HW123610  12.089   5.119   9.524
73926SOL    HW223611  12.037   5.151   9.662
73927SOL     OW23612   5.626   9.313   8.492
73927SOL    HW123613   5.717   9.340   8.486
73927SOL    HW223614   5.585   9.377   8.550
73928SOL     OW23615   0.024  10.701  11.209
73928SOL    HW123616   0.006  10.722  11.118
73928SOL    HW223617   0.105  10.747  11.230
73929SOL     OW23618   3.100   9.396   8.683
73929SOL    HW123619   3.181   9.371   8.637
73929SOL    HW223620   3.124   9.473   8.734
73930SOL     OW23621  12.658   2.979   6.051
73930SOL    HW123622  12.575   2.931   6.051
73930SOL    HW223623  12.669   3.009   5.961
73931SOL     OW23624   2.276  11.685  12.709
73931SOL    HW123625   2.195  11.661  12.754
73931SOL    HW223626   2.268  11.643  12.623
73932SOL     OW23627   0.924   2.034   8.091
73932SOL    HW123628   0.988   2.094   8.131
73932SOL    HW223629   0.839   2.067   8.121
73933SOL     OW23630   3.787   9.784   4.900
73933SOL    HW123631   3.784   9.704   4.953
73933SOL    HW223632   3.696   9.808   4.886
73934SOL     OW23633   9.848   0.203   4.769
73934SOL    HW123634   9.891   0.148   4.703
73934SOL    HW223635   9.841   0.146   4.846
73935SOL     OW23636   7.660   6.118   6.636
73935SOL    HW123637   7.577   6.093   6.595
73935SOL    HW223638   7.699   6.035   6.664
73936SOL     OW23639   1.697   2.864  12.869
73936SOL    HW123640   1.701   2.789  12.809
73936SOL    HW223641   1.777   2.913  12.852
73937SOL     OW23642   0.080  13.509   3.262
73937SOL    HW123643   0.140  13.539   3.331
73937SOL    HW223644   0.137  13.494   3.186
73938SOL     OW23645  12.064  13.824   9.061
73938SOL    HW123646  12.153  13.815   9.026
73938SOL    HW223647  12.046  13.738   9.101
73939SOL     OW23648   3.989  14.125   1.937
73939SOL    HW123649   3.996  14.164   2.024
73939SOL    HW223650   3.899  14.142   1.910
73940SOL     OW23651   0.608  10.925   5.707
73940SOL    HW123652   0.616  11.018   5.685
73940SOL    HW223653   0.515  10.912   5.725
73941SOL     OW23654  13.137   2.645   7.031
73941SOL    HW123655  13.121   2.717   7.091
73941SOL    HW223656  13.180   2.685   6.956
73942SOL     OW23657  11.468  12.146   4.766
73942SOL    HW123658  11.460  12.151   4.671
73942SOL    HW223659  11.380  12.123   4.797
73943SOL     OW23660   5.877  13.439  12.232
73943SOL    HW123661   5.896  13.365  12.289
73943SOL    HW223662   5.960  13.486  12.225
73944SOL     OW23663   5.053   2.757   3.370
73944SOL    HW123664   4.975   2.785   3.417
73944SOL    HW223665   5.084   2.836   3.325
73945SOL     OW23666   4.899   8.505   1.349
73945SOL    HW123667   4.900   8.409   1.351
73945SOL    HW223668   4.897   8.531   1.441
73946SOL     OW23669  12.331  12.669   5.227
73946SOL    HW123670  12.401  12.707   5.174
73946SOL    HW223671  12.371  12.656   5.313
73947SOL     OW23672   3.756   2.162   1.674
73947SOL    HW123673   3.720   2.238   1.719
73947SOL    HW223674   3.713   2.087   1.715
73948SOL     OW23675   4.538   1.867   8.643
73948SOL    HW123676   4.621   1.842   8.682
73948SOL    HW223677   4.473   1.844   8.710
73949SOL     OW23678   1.639   4.824   9.835
73949SOL    HW123679   1.603   4.744   9.796
73949SOL    HW223680   1.622   4.892   9.771
73950SOL     OW23681   9.162  11.689   9.138
73950SOL    HW123682   9.077  11.649   9.156
73950SOL    HW223683   9.226  11.623   9.165
73951SOL     OW23684   0.090   2.048   3.580
73951SOL    HW123685   0.170   2.083   3.620
73951SOL    HW223686   0.032   2.124   3.572
73952SOL     OW23687   5.817   1.370   3.415
73952SOL    HW123688   5.731   1.328   3.405
73952SOL    HW223689   5.822   1.394   3.507
73953SOL     OW23690   0.862  13.858  11.258
73953SOL    HW123691   0.923  13.833  11.327
73953SOL    HW223692   0.854  13.781  11.202
73954SOL     OW23693   3.364   7.071   0.765
73954SOL    HW123694   3.291   7.055   0.825
73954SOL    HW223695   3.324   7.075   0.679
73955SOL     OW23696   4.563  11.433   1.929
73955SOL    HW123697   4.513  11.361   1.968
73955SOL    HW223698   4.525  11.512   1.968
73956SOL     OW23699   2.005   0.687   2.329
73956SOL    HW123700   1.999   0.635   2.409
73956SOL    HW223701   2.073   0.752   2.347
73957SOL     OW23702  10.864   7.622   1.223
73957SOL    HW123703  10.943   7.634   1.169
73957SOL    HW223704  10.877   7.680   1.297
73958SOL     OW23705  10.692  14.058   5.851
73958SOL    HW123706  10.678  14.047   5.945
73958SOL    HW223707  10.785  14.079   5.843
73959SOL     OW23708   8.230   6.642   8.939
73959SOL    HW123709   8.292   6.652   9.012
73959SOL    HW223710   8.251   6.558   8.900
73960SOL     OW23711   4.589   5.068   0.371
73960SOL    HW123712   4.639   5.005   0.319
73960SOL    HW223713   4.606   5.152   0.328
73961SOL     OW23714   1.931  10.866   0.487
73961SOL    HW123715   1.845  10.861   0.530
73961SOL    HW223716   1.986  10.912   0.550
73962SOL     OW23717  10.451  10.145   9.770
73962SOL    HW123718  10.445  10.050   9.769
73962SOL    HW223719  10.458  10.167   9.863
73963SOL     OW23720   3.213   9.793  14.072
73963SOL    HW123721   3.169   9.768  13.990
73963SOL    HW223722   3.223   9.888  14.066
73964SOL     OW23723  10.307   7.980   3.626
73964SOL    HW123724  10.353   8.024   3.697
73964SOL    HW223725  10.348   8.013   3.546
73965SOL     OW23726   3.932   0.785   6.482
73965SOL    HW123727   3.862   0.851   6.477
73965SOL    HW223728   3.927   0.751   6.571
73966SOL     OW23729  10.173  14.107  11.004
73966SOL    HW123730  10.178  14.168  10.930
73966SOL    HW223731  10.145  14.024  10.965
73967SOL     OW23732   9.109   3.449   8.054
73967SOL    HW123733   9.059   3.475   8.131
73967SOL    HW223734   9.190   3.411   8.090
73968SOL     OW23735   0.751  14.182   3.576
73968SOL    HW123736   0.784  14.270   3.593
73968SOL    HW223737   0.720  14.150   3.661
73969SOL     OW23738   5.135  14.305  12.077
73969SOL    HW123739   5.167  14.298  11.987
73969SOL    HW223740   5.164  14.392  12.106
73970SOL     OW23741   6.107   5.043  14.084
73970SOL    HW123742   6.019   5.073  14.105
73970SOL    HW223743   6.116   5.060  13.990
73971SOL     OW23744  11.546   6.685  14.099
73971SOL    HW123745  11.632   6.706  14.064
73971SOL    HW223746  11.493   6.665  14.022
73972SOL     OW23747   3.710   2.521   8.988
73972SOL    HW123748   3.720   2.531   8.893
73972SOL    HW223749   3.790   2.560   9.024
73973SOL     OW23750  10.091  12.777   5.937
73973SOL    HW123751  10.012  12.740   5.898
73973SOL    HW223752  10.060  12.849   5.991
73974SOL     OW23753  14.466   2.611   7.638
73974SOL    HW123754  14.416   2.661   7.574
73974SOL    HW223755  14.532   2.672   7.671
73975SOL     OW23756   6.985   6.690   1.962
73975SOL    HW123757   6.907   6.635   1.964
73975SOL    HW223758   7.044   6.648   1.901
73976SOL     OW23759  11.752   9.329   2.250
73976SOL    HW123760  11.839   9.323   2.289
73976SOL    HW223761  11.752   9.413   2.205
73977SOL     OW23762   0.037   5.713   1.356
73977SOL    HW123763  14.856   5.730   1.279
73977SOL    HW223764  14.849   5.720   1.430
73978SOL     OW23765   7.607   9.270   3.684
73978SOL    HW123766   7.522   9.298   3.652
73978SOL    HW223767   7.670   9.319   3.631
73979SOL     OW23768  11.185  13.729  10.855
73979SOL    HW123769  11.167  13.661  10.920
73979SOL    HW223770  11.200  13.808  10.908
73980SOL     OW23771   2.992  11.213   0.117
73980SOL    HW123772   2.990  11.299   0.158
73980SOL    HW223773   3.032  11.156   0.183
73981SOL     OW23774   2.393   9.399  14.135
73981SOL    HW123775   2.358   9.457  14.202
73981SOL    HW223776   2.459   9.346  14.181
73982SOL     OW23777   3.281  12.246   6.929
73982SOL    HW123778   3.300  12.272   6.839
73982SOL    HW223779   3.203  12.297   6.953
73983SOL     OW23780   2.957  12.558   9.394
73983SOL    HW123781   3.021  12.487   9.391
73983SOL    HW223782   2.944  12.583   9.302
73984SOL     OW23783  10.781   3.210  13.571
73984SOL    HW123784  10.844   3.213  13.642
73984SOL    HW223785  10.834   3.194  13.492
73985SOL     OW23786   8.937   8.356  14.572
73985SOL    HW123787   8.951   8.277  14.521
73985SOL    HW223788   8.978   8.338  14.656
73986SOL     OW23789   3.518  13.826   4.860
73986SOL    HW123790   3.521  13.860   4.771
73986SOL    HW223791   3.521  13.731   4.850
73987SOL     OW23792   6.494   2.318   6.256
73987SOL    HW123793   6.418   2.369   6.230
73987SOL    HW223794   6.569   2.366   6.219
73988SOL     OW23795  13.332   6.023  14.061
73988SOL    HW123796  13.278   5.950  14.029
73988SOL    HW223797  13.387   6.046  13.987
73989SOL     OW23798   3.167   2.985   3.926
73989SOL    HW123799   3.262   2.972   3.918
73989SOL    HW223800   3.129   2.905   3.889
73990SOL     OW23801   1.999  12.795  12.073
73990SOL    HW123802   1.908  12.826  12.078
73990SOL    HW223803   1.992  12.700  12.083
73991SOL     OW23804   7.157   8.819  14.435
73991SOL    HW123805   7.223   8.864  14.488
73991SOL    HW223806   7.168   8.726  14.456
73992SOL     OW23807   0.166   6.637   8.779
73992SOL    HW123808   0.070   6.637   8.786
73992SOL    HW223809   0.192   6.722   8.815
73993SOL     OW23810  11.511   1.041   1.551
73993SOL    HW123811  11.429   1.053   1.503
73993SOL    HW223812  11.543   0.955   1.524
73994SOL     OW23813   4.055  11.901  10.270
73994SOL    HW123814   4.042  11.861  10.356
73994SOL    HW223815   3.979  11.873  10.219
73995SOL     OW23816   0.800  13.551   5.529
73995SOL    HW123817   0.774  13.547   5.621
73995SOL    HW223818   0.717  13.560   5.481
73996SOL     OW23819  10.256   4.220  12.332
73996SOL    HW123820  10.219   4.235  12.245
73996SOL    HW223821  10.350   4.236  12.321
73997SOL     OW23822  13.779  14.319  11.346
73997SOL    HW123823  13.853  14.267  11.377
73997SOL    HW223824  13.817  14.381  11.284
73998SOL     OW23825   5.541   4.780   8.973
73998SOL    HW123826   5.528   4.720   8.900
73998SOL    HW223827   5.497   4.738   9.047
73999SOL     OW23828   6.685   0.602   3.999
73999SOL    HW123829   6.620   0.645   4.054
73999SOL    HW223830   6.732   0.674   3.956
74000SOL     OW23831   4.748  11.711  12.146
74000SOL    HW123832   4.728  11.798  12.113
74000SOL    HW223833   4.721  11.714  12.238
74001SOL     OW23834   1.752  12.387  11.296
74001SOL    HW123835   1.712  12.324  11.355
74001SOL    HW223836   1.819  12.431  11.349
74002SOL     OW23837   7.108  12.244   0.225
74002SOL    HW123838   7.168  12.169   0.223
74002SOL    HW223839   7.097  12.268   0.133
74003SOL     OW23840   7.401   6.106  12.057
74003SOL    HW123841   7.456   6.137  11.985
74003SOL    HW223842   7.441   6.141  12.136
74004SOL     OW23843  12.916   0.209   3.718
74004SOL    HW123844  12.927   0.115   3.702
74004SOL    HW223845  12.970   0.251   3.651
74005SOL     OW23846  13.374   0.904  13.235
74005SOL    HW123847  13.332   0.946  13.160
74005SOL    HW223848  13.468   0.921  13.223
74006SOL     OW23849   0.345  13.161   0.889
74006SOL    HW123850   0.426  13.188   0.932
74006SOL    HW223851   0.327  13.231   0.826
74007SOL     OW23852  11.468   3.876   2.729
74007SOL    HW123853  11.533   3.841   2.669
74007SOL    HW223854  11.517   3.901   2.807
74008SOL     OW23855   3.089   3.367  11.595
74008SOL    HW123856   3.077   3.369  11.689
74008SOL    HW223857   3.010   3.326  11.561
74009SOL     OW23858   1.963   3.662   4.183
74009SOL    HW123859   1.891   3.665   4.119
74009SOL    HW223860   1.949   3.739   4.238
74010SOL     OW23861   3.403   3.944   8.132
74010SOL    HW123862   3.370   3.914   8.048
74010SOL    HW223863   3.477   3.886   8.152
74011SOL     OW23864  11.240   6.369   2.594
74011SOL    HW123865  11.261   6.459   2.617
74011SOL    HW223866  11.186   6.338   2.667
74012SOL     OW23867   3.818  14.701   1.567
74012SOL    HW123868   3.868  14.635   1.614
74012SOL    HW223869   3.729  14.691   1.601
74013SOL     OW23870   5.238   3.104   2.569
74013SOL    HW123871   5.303   3.115   2.499
74013SOL    HW223872   5.154   3.103   2.523
74014SOL     OW23873   1.589   8.602   1.384
74014SOL    HW123874   1.506   8.649   1.393
74014SOL    HW223875   1.599   8.554   1.467
74015SOL     OW23876   9.575   3.975   0.480
74015SOL    HW123877   9.588   3.887   0.515
74015SOL    HW223878   9.499   4.008   0.528
74016SOL     OW23879   6.034   6.243   5.451
74016SOL    HW123880   6.030   6.329   5.492
74016SOL    HW223881   5.945   6.208   5.460
74017SOL     OW23882   3.421   5.296  11.495
74017SOL    HW123883   3.437   5.201  11.491
74017SOL    HW223884   3.348   5.306  11.555
74018SOL     OW23885   2.816  14.062  13.108
74018SOL    HW123886   2.800  14.127  13.176
74018SOL    HW223887   2.854  14.111  13.036
74019SOL     OW23888   7.719  10.097   4.112
74019SOL    HW123889   7.673  10.106   4.029
74019SOL    HW223890   7.740  10.003   4.118
74020SOL     OW23891   7.131  10.741   1.350
74020SOL    HW123892   7.213  10.695   1.370
74020SOL    HW223893   7.064  10.674   1.361
74021SOL     OW23894   0.054   7.564   2.383
74021SOL    HW123895   0.093   7.478   2.365
74021SOL    HW223896   0.001   7.550   2.461
74022SOL     OW23897   0.702  14.675  10.885
74022SOL    HW123898   0.792  14.703  10.866
74022SOL    HW223899   0.683  14.715  10.970
74023SOL     OW23900   9.577   9.040   7.061
74023SOL    HW123901   9.502   8.984   7.081
74023SOL    HW223902   9.544   9.129   7.073
74024SOL     OW23903   9.762   8.303   1.951
74024SOL    HW123904   9.790   8.395   1.950
74024SOL    HW223905   9.825   8.260   2.009
74025SOL     OW23906   5.101  11.435   5.743
74025SOL    HW123907   5.139  11.347   5.738
74025SOL    HW223908   5.029  11.433   5.681
74026SOL     OW23909   8.719  12.601  10.056
74026SOL    HW123910   8.676  12.526  10.097
74026SOL    HW223911   8.758  12.566   9.976
74027SOL     OW23912  14.855   9.399   1.802
74027SOL    HW123913   0.027   9.371   1.722
74027SOL    HW223914  14.770   9.433   1.771
74028SOL     OW23915  10.710  14.744   8.535
74028SOL    HW123916  10.678  14.814   8.591
74028SOL    HW223917  10.801  14.731   8.563
74029SOL     OW23918  11.108   9.457   7.784
74029SOL    HW123919  11.177   9.522   7.774
74029SOL    HW223920  11.106   9.439   7.878
74030SOL     OW23921  12.449   9.215  12.626
74030SOL    HW123922  12.539   9.184  12.615
74030SOL    HW223923  12.408   9.150  12.683
74031SOL     OW23924   1.239   3.902   7.862
74031SOL    HW123925   1.233   3.997   7.848
74031SOL    HW223926   1.333   3.884   7.862
74032SOL     OW23927   2.979  11.591  10.949
74032SOL    HW123928   2.918  11.572  10.877
74032SOL    HW223929   3.057  11.626  10.906
74033SOL     OW23930  10.057   1.876   0.701
74033SOL    HW123931  10.013   1.841   0.624
74033SOL    HW223932  10.125   1.812   0.722
74034SOL     OW23933   6.474   2.305  12.152
74034SOL    HW123934   6.482   2.391  12.193
74034SOL    HW223935   6.398   2.265  12.195
74035SOL     OW23936  11.749  12.555  14.026
74035SOL    HW123937  11.730  12.525  14.115
74035SOL    HW223938  11.822  12.617  14.037
74036SOL     OW23939   8.621   7.038  10.735
74036SOL    HW123940   8.693   6.984  10.702
74036SOL    HW223941   8.626   7.119  10.684
74037SOL     OW23942   1.050  11.559   4.402
74037SOL    HW123943   0.979  11.587   4.345
74037SOL    HW223944   1.006  11.536   4.484
74038SOL     OW23945  10.893   4.645   6.583
74038SOL    HW123946  10.897   4.681   6.671
74038SOL    HW223947  10.801   4.620   6.571
74039SOL     OW23948   0.178   9.412   6.785
74039SOL    HW123949   0.243   9.427   6.716
74039SOL    HW223950   0.097   9.448   6.751
74040SOL     OW23951   7.784   0.329   7.190
74040SOL    HW123952   7.824   0.309   7.275
74040SOL    HW223953   7.743   0.247   7.163
74041SOL     OW23954   0.117  12.842  11.652
74041SOL    HW123955   0.183  12.865  11.718
74041SOL    HW223956   0.166  12.794  11.586
74042SOL     OW23957   6.004   2.719  11.872
74042SOL    HW123958   5.991   2.676  11.956
74042SOL    HW223959   6.085   2.681  11.837
74043SOL     OW23960   5.537   0.796  11.669
74043SOL    HW123961   5.508   0.715  11.629
74043SOL    HW223962   5.536   0.860  11.598
74044SOL     OW23963  12.066   2.154   9.882
74044SOL    HW123964  11.994   2.105   9.921
74044SOL    HW223965  12.142   2.098   9.893
74045SOL     OW23966   0.352   8.294   0.744
74045SOL    HW123967   0.316   8.212   0.779
74045SOL    HW223968   0.278   8.354   0.743
74046SOL     OW23969  13.854   6.526   3.759
74046SOL    HW123970  13.940   6.504   3.796
74046SOL    HW223971  13.796   6.531   3.835
74047SOL     OW23972   1.292   9.785   6.308
74047SOL    HW123973   1.373   9.832   6.326
74047SOL    HW223974   1.254   9.831   6.233
74048SOL     OW23975   8.136   8.220   0.626
74048SOL    HW123976   8.204   8.216   0.694
74048SOL    HW223977   8.068   8.160   0.657
74049SOL     OW23978   7.168   1.965  14.747
74049SOL    HW123979   7.096   1.953  14.810
74049SOL    HW223980   7.241   1.995  14.800
74050SOL     OW23981  11.956  13.295  12.775
74050SOL    HW123982  12.001  13.225  12.728
74050SOL    HW223983  12.015  13.371  12.768
74051SOL     OW23984   7.633   5.417   2.603
74051SOL    HW123985   7.692   5.373   2.665
74051SOL    HW223986   7.678   5.497   2.579
74052SOL     OW23987  13.939   7.343   6.487
74052SOL    HW123988  13.876   7.294   6.540
74052SOL    HW223989  13.900   7.430   6.477
74053SOL     OW23990  12.175   0.872   2.816
74053SOL    HW123991  12.188   0.830   2.731
74053SOL    HW223992  12.168   0.966   2.796
74054SOL     OW23993  13.656   2.628   6.094
74054SOL    HW123994  13.626   2.714   6.065
74054SOL    HW223995  13.749   2.641   6.113
74055SOL     OW23996   6.165   7.914   3.300
74055SOL    HW123997   6.106   7.925   3.375
74055SOL    HW223998   6.252   7.922   3.337
74056SOL     OW23999  14.544  12.660   7.128
74056SOL    HW124000  14.639  12.652   7.142
74056SOL    HW224001  14.518  12.733   7.185
74057SOL     OW24002   9.083   6.159   9.967
74057SOL    HW124003   9.113   6.237   9.920
74057SOL    HW224004   9.095   6.181  10.060
74058SOL     OW24005  12.505  10.823   0.425
74058SOL    HW124006  12.585  10.875   0.429
74058SOL    HW224007  12.512  10.761   0.498
74059SOL     OW24008  13.185  11.766   9.189
74059SOL    HW124009  13.221  11.853   9.205
74059SOL    HW224010  13.183  11.725   9.275
74060SOL     OW24011   4.813   6.514   5.177
74060SOL    HW124012   4.814   6.473   5.264
74060SOL    HW224013   4.890   6.479   5.133
74061SOL     OW24014  14.435  12.462  12.051
74061SOL    HW124015  14.461  12.384  12.099
74061SOL    HW224016  14.342  12.450  12.034
74062SOL     OW24017   3.438   4.226   8.225
74062SOL    HW124018   3.353   4.258   8.193
74062SOL    HW224019   3.460   4.153   8.167
74063SOL     OW24020  12.322   4.233   0.459
74063SOL    HW124021  12.326   4.238   0.555
74063SOL    HW224022  12.285   4.146   0.442
74064SOL     OW24023   8.306  12.104  11.000
74064SOL    HW124024   8.353  12.088  11.082
74064SOL    HW224025   8.227  12.150  11.027
74065SOL     OW24026  14.731  10.718  13.539
74065SOL    HW124027  14.760  10.661  13.468
74065SOL    HW224028  14.637  10.730  13.524
74066SOL     OW24029   9.714   9.045   1.733
74066SOL    HW124030   9.741   8.996   1.656
74066SOL    HW224031   9.785   9.034   1.795
74067SOL     OW24032  12.928   4.563  11.565
74067SOL    HW124033  13.008   4.516  11.542
74067SOL    HW224034  12.931   4.642  11.510
74068SOL     OW24035   5.463   7.846   6.775
74068SOL    HW124036   5.491   7.764   6.733
74068SOL    HW224037   5.401   7.884   6.713
74069SOL     OW24038  11.913   7.133  13.330
74069SOL    HW124039  11.885   7.061  13.274
74069SOL    HW224040  11.843   7.143  13.395
74070SOL     OW24041   8.067   3.843   4.727
74070SOL    HW124042   8.065   3.868   4.820
74070SOL    HW224043   8.145   3.789   4.719
74071SOL     OW24044   8.633  14.677   0.133
74071SOL    HW124045   8.569  14.639   0.074
74071SOL    HW224046   8.589  14.752   0.172
74072SOL     OW24047   9.431  12.001  11.501
74072SOL    HW124048   9.457  12.075  11.447
74072SOL    HW224049   9.336  12.010  11.511
74073SOL     OW24050   2.099   1.009  13.696
74073SOL    HW124051   2.143   0.939  13.744
74073SOL    HW224052   2.098   1.082  13.756
74074SOL     OW24053   6.082   7.314  13.906
74074SOL    HW124054   6.055   7.404  13.890
74074SOL    HW224055   6.036   7.289  13.986
74075SOL     OW24056   2.715   1.515   4.367
74075SOL    HW124057   2.771   1.444   4.335
74075SOL    HW224058   2.628   1.477   4.371
74076SOL     OW24059   9.311   8.424   2.670
74076SOL    HW124060   9.264   8.454   2.749
74076SOL    HW224061   9.323   8.330   2.683
74077SOL     OW24062   1.481  14.065  11.674
74077SOL    HW124063   1.402  14.112  11.701
74077SOL    HW224064   1.469  13.976  11.708
74078SOL     OW24065   6.449   5.783   1.026
74078SOL    HW124066   6.485   5.841   0.959
74078SOL    HW224067   6.362   5.761   0.995
74079SOL     OW24068   0.423   0.336   6.922
74079SOL    HW124069   0.367   0.404   6.959
74079SOL    HW224070   0.371   0.295   6.853
74080SOL     OW24071   3.467   1.154   0.496
74080SOL    HW124072   3.425   1.220   0.441
74080SOL    HW224073   3.525   1.204   0.554
74081SOL     OW24074   4.399  11.919   7.127
74081SOL    HW124075   4.444  11.870   7.196
74081SOL    HW224076   4.415  12.011   7.149
74082SOL     OW24077   2.680  10.721  12.744
74082SOL    HW124078   2.746  10.666  12.701
74082SOL    HW224079   2.599  10.703  12.697
74083SOL     OW24080   6.769   9.850  12.466
74083SOL    HW124081   6.808   9.854  12.379
74083SOL    HW224082   6.696   9.790  12.457
74084SOL     OW24083  14.457  14.630   6.713
74084SOL    HW124084  14.520  14.701   6.705
74084SOL    HW224085  14.510  14.550   6.708
74085SOL     OW24086   9.888  12.670   1.975
74085SOL    HW124087   9.810  12.621   2.001
74085SOL    HW224088   9.940  12.678   2.055
74086SOL     OW24089   6.342  12.144   3.989
74086SOL    HW124090   6.434  12.157   4.011
74086SOL    HW224091   6.308  12.089   4.059
74087SOL     OW24092  10.290   2.654  13.454
74087SOL    HW124093  10.222   2.701  13.503
74087SOL    HW224094  10.300   2.571  13.500
74088SOL     OW24095  14.597   3.736   3.532
74088SOL    HW124096  14.679   3.710   3.575
74088SOL    HW224097  14.583   3.671   3.464
74089SOL     OW24098  12.782   7.668   4.646
74089SOL    HW124099  12.777   7.583   4.689
74089SOL    HW224100  12.696   7.680   4.605
74090SOL     OW24101  12.648   6.839  12.362
74090SOL    HW124102  12.709   6.906  12.330
74090SOL    HW224103  12.612   6.876  12.443
74091SOL     OW24104  11.659   3.254  11.171
74091SOL    HW124105  11.734   3.205  11.138
74091SOL    HW224106  11.605   3.188  11.215
74092SOL     OW24107   1.770   4.178   3.865
74092SOL    HW124108   1.788   4.171   3.771
74092SOL    HW224109   1.731   4.265   3.876
74093SOL     OW24110   9.176   3.789  10.542
74093SOL    HW124111   9.121   3.713  10.558
74093SOL    HW224112   9.115   3.861  10.526
74094SOL     OW24113   6.406   1.541   6.146
74094SOL    HW124114   6.356   1.477   6.196
74094SOL    HW224115   6.341   1.591   6.097
74095SOL     OW24116  14.424   3.985   0.838
74095SOL    HW124117  14.465   3.903   0.864
74095SOL    HW224118  14.470   4.052   0.889
74096SOL     OW24119  10.236  10.672   7.089
74096SOL    HW124120  10.200  10.698   7.173
74096SOL    HW224121  10.236  10.577   7.091
74097SOL     OW24122   0.511   4.804   5.353
74097SOL    HW124123   0.481   4.714   5.339
74097SOL    HW224124   0.546   4.830   5.268
74098SOL     OW24125   2.077   1.538  13.797
74098SOL    HW124126   2.119   1.599  13.736
74098SOL    HW224127   1.985   1.563  13.795
74099SOL     OW24128   6.467   1.866   5.221
74099SOL    HW124129   6.476   1.829   5.133
74099SOL    HW224130   6.373   1.870   5.237
74100SOL     OW24131   9.242  14.758   3.762
74100SOL    HW124132   9.244  14.745   3.856
74100SOL    HW224133   9.315  14.818   3.745
74101SOL     OW24134   4.086   9.295   4.700
74101SOL    HW124135   4.107   9.355   4.628
74101SOL    HW224136   4.025   9.232   4.661
74102SOL     OW24137  10.937  12.090   4.871
74102SOL    HW124138  10.966  12.004   4.902
74102SOL    HW224139  10.844  12.093   4.890
74103SOL     OW24140   5.774  14.153   2.613
74103SOL    HW124141   5.860  14.139   2.573
74103SOL    HW224142   5.785  14.232   2.666
74104SOL     OW24143  13.948   6.204   1.296
74104SOL    HW124144  14.016   6.177   1.234
74104SOL    HW224145  13.994   6.256   1.361
74105SOL     OW24146   3.214   3.048   5.120
74105SOL    HW124147   3.202   2.982   5.052
74105SOL    HW224148   3.274   3.008   5.183
74106SOL     OW24149   8.426   9.268  10.008
74106SOL    HW124150   8.418   9.224  10.092
74106SOL    HW224151   8.520   9.273   9.992
74107SOL     OW24152  12.659   2.787   7.172
74107SOL    HW124153  12.719   2.762   7.102
74107SOL    HW224154  12.639   2.879   7.156
74108SOL     OW24155  10.790   9.505   2.462
74108SOL    HW124156  10.872   9.550   2.442
74108SOL    HW224157  10.817   9.423   2.503
74109SOL     OW24158   8.939   6.967  14.283
74109SOL    HW124159   8.926   6.921  14.365
74109SOL    HW224160   8.933   7.060  14.305
74110SOL     OW24161   9.667   8.131   5.449
74110SOL    HW124162   9.747   8.164   5.491
74110SOL    HW224163   9.688   8.129   5.356
74111SOL     OW24164   7.941   5.843  10.780
74111SOL    HW124165   7.938   5.836  10.875
74111SOL    HW224166   7.851   5.861  10.753
74112SOL     OW24167  13.794  14.797   2.083
74112SOL    HW124168  13.707  14.769   2.055
74112SOL    HW224169  13.854  14.737   2.040
74113SOL     OW24170  11.346   7.669   0.178
74113SOL    HW124171  11.330   7.576   0.195
74113SOL    HW224172  11.305   7.684   0.093
74114SOL     OW24173   7.700   0.455   6.597
74114SOL    HW124174   7.635   0.390   6.570
74114SOL    HW224175   7.694   0.524   6.530
74115SOL     OW24176   2.030   1.753  11.599
74115SOL    HW124177   1.987   1.668  11.591
74115SOL    HW224178   2.110   1.734  11.648
74116SOL     OW24179  10.046  12.959   7.925
74116SOL    HW124180  10.089  12.917   8.000
74116SOL    HW224181   9.962  12.989   7.960
74117SOL     OW24182  11.569   4.485   0.499
74117SOL    HW124183  11.497   4.549   0.501
74117SOL    HW224184  11.547   4.423   0.569
74118SOL     OW24185   7.126   4.687   0.737
74118SOL    HW124186   7.212   4.676   0.778
74118SOL    HW224187   7.065   4.641   0.795
74119SOL     OW24188   1.520   9.258   7.287
74119SOL    HW124189   1.480   9.267   7.201
74119SOL    HW224190   1.485   9.331   7.338
74120SOL     OW24191  13.456   8.534  13.733
74120SOL    HW124192  13.523   8.477  13.770
74120SOL    HW224193  13.495   8.621  13.733
74121SOL     OW24194   2.857  11.564  12.529
74121SOL    HW124195   2.849  11.649  12.485
74121SOL    HW224196   2.944  11.565  12.568
74122SOL     OW24197   1.221   8.020   1.121
74122SOL    HW124198   1.312   8.040   1.102
74122SOL    HW224199   1.224   7.967   1.200
74123SOL     OW24200   2.985   9.553  14.778
74123SOL    HW124201   3.013   9.641  14.754
74123SOL    HW224202   2.889   9.558  14.781
74124SOL     OW24203  12.600  14.419   9.334
74124SOL    HW124204  12.638  14.506   9.325
74124SOL    HW224205  12.673  14.359   9.318
74125SOL     OW24206  12.694  14.660   2.925
74125SOL    HW124207  12.656  14.722   2.987
74125SOL    HW224208  12.678  14.574   2.965
74126SOL     OW24209   9.330   6.515   0.440
74126SOL    HW124210   9.363   6.578   0.377
74126SOL    HW224211   9.263   6.563   0.489
74127SOL     OW24212   2.396   9.787   5.217
74127SOL    HW124213   2.317   9.837   5.239
74127SOL    HW224214   2.404   9.723   5.288
74128SOL     OW24215  13.313   1.349  14.782
74128SOL    HW124216  13.362   1.378  14.859
74128SOL    HW224217  13.297   1.256  14.798
74129SOL     OW24218   3.138   9.146  13.093
74129SOL    HW124219   3.220   9.184  13.062
74129SOL    HW224220   3.162   9.058  13.123
74130SOL     OW24221   3.594   7.131   3.565
74130SOL    HW124222   3.630   7.079   3.492
74130SOL    HW224223   3.512   7.167   3.530
74131SOL     OW24224  13.218   0.027   0.257
74131SOL    HW124225  13.253  14.813   0.278
74131SOL    HW224226  13.295   0.084   0.254
74132SOL     OW24227   2.262   9.576   1.745
74132SOL    HW124228   2.357   9.586   1.739
74132SOL    HW224229   2.244   9.489   1.710
74133SOL     OW24230  14.094   9.835   0.467
74133SOL    HW124231  14.052   9.888   0.535
74133SOL    HW224232  14.188   9.842   0.485
74134SOL     OW24233   2.913  11.702  10.000
74134SOL    HW124234   2.870  11.682   9.917
74134SOL    HW224235   2.893  11.795  10.016
74135SOL     OW24236   2.282  11.263   0.560
74135SOL    HW124237   2.354  11.324   0.550
74135SOL    HW224238   2.259  11.266   0.653
74136SOL     OW24239   9.750   5.606   7.274
74136SOL    HW124240   9.771   5.519   7.241
74136SOL    HW224241   9.776   5.666   7.205
74137SOL     OW24242   3.205   3.157   1.376
74137SOL    HW124243   3.259   3.083   1.346
74137SOL    HW224244   3.248   3.186   1.457
74138SOL     OW24245   9.695   4.833   8.000
74138SOL    HW124246   9.787   4.807   8.001
74138SOL    HW224247   9.671   4.841   8.093
74139SOL     OW24248   7.092   0.745   6.152
74139SOL    HW124249   7.059   0.824   6.110
74139SOL    HW224250   7.112   0.685   6.080
74140SOL     OW24251  10.907   8.359   5.362
74140SOL    HW124252  10.861   8.327   5.284
74140SOL    HW224253  10.841   8.355   5.431
74141SOL     OW24254   6.553  10.927  13.073
74141SOL    HW124255   6.571  10.846  13.025
74141SOL    HW224256   6.463  10.919  13.102
74142SOL     OW24257  13.966   1.106   8.400
74142SOL    HW124258  13.946   1.080   8.490
74142SOL    HW224259  13.901   1.172   8.378
74143SOL     OW24260   5.131   6.410  12.524
74143SOL    HW124261   5.220   6.375  12.512
74143SOL    HW224262   5.084   6.339  12.569
74144SOL     OW24263   6.968   1.171   0.827
74144SOL    HW124264   7.048   1.191   0.877
74144SOL    HW224265   6.985   1.207   0.740
74145SOL     OW24266   7.271  12.257  14.219
74145SOL    HW124267   7.327  12.209  14.158
74145SOL    HW224268   7.182  12.245  14.185
74146SOL     OW24269   3.195   4.881  11.579
74146SOL    HW124270   3.120   4.868  11.637
74146SOL    HW224271   3.258   4.814  11.605
74147SOL     OW24272  11.634   2.725   0.142
74147SOL    HW124273  11.697   2.738   0.071
74147SOL    HW224274  11.548   2.731   0.101
74148SOL     OW24275   8.121   5.221   6.060
74148SOL    HW124276   8.182   5.159   6.021
74148SOL    HW224277   8.127   5.299   6.005
74149SOL     OW24278  13.346   6.644  10.867
74149SOL    HW124279  13.258   6.654  10.904
74149SOL    HW224280  13.337   6.668  10.775
74150SOL     OW24281   5.810  12.573  10.712
74150SOL    HW124282   5.825  12.505  10.647
74150SOL    HW224283   5.790  12.651  10.661
74151SOL     OW24284  13.047   7.387  11.621
74151SOL    HW124285  13.095   7.465  11.591
74151SOL    HW224286  12.965   7.422  11.656
74152SOL     OW24287  13.993  12.451   4.420
74152SOL    HW124288  13.979  12.480   4.510
74152SOL    HW224289  13.910  12.411   4.394
74153SOL     OW24290   9.944   5.237   0.338
74153SOL    HW124291   9.871   5.197   0.291
74153SOL    HW224292   9.902   5.298   0.398
74154SOL     OW24293   7.825   8.458  14.300
74154SOL    HW124294   7.785   8.372  14.289
74154SOL    HW224295   7.906   8.453  14.248
74155SOL     OW24296  13.419   4.433  11.880
74155SOL    HW124297  13.341   4.395  11.839
74155SOL    HW224298  13.387   4.467  11.964
74156SOL     OW24299   8.731   1.619   1.896
74156SOL    HW124300   8.790   1.624   1.971
74156SOL    HW224301   8.742   1.530   1.863
74157SOL     OW24302   6.532  10.448  10.308
74157SOL    HW124303   6.446  10.415  10.285
74157SOL    HW224304   6.539  10.533  10.263
74158SOL     OW24305   2.349   0.011   1.605
74158SOL    HW124306   2.330   0.099   1.638
74158SOL    HW224307   2.437   0.017   1.569
74159SOL     OW24308  10.038   5.069   7.645
74159SOL    HW124309   9.979   5.090   7.718
74159SOL    HW224310  10.059   4.976   7.657
74160SOL     OW24311   9.952   8.585   1.594
74160SOL    HW124312  10.013   8.625   1.532
74160SOL    HW224313   9.879   8.555   1.539
74161SOL     OW24314  11.697   7.514  14.757
74161SOL    HW124315  11.665   7.444  14.700
74161SOL    HW224316  11.675   7.595  14.709
74162SOL     OW24317   1.981  12.957   4.113
74162SOL    HW124318   1.938  12.941   4.198
74162SOL    HW224319   2.024  13.041   4.124
74163SOL     OW24320  12.035   7.706   3.362
74163SOL    HW124321  12.018   7.731   3.272
74163SOL    HW224322  11.988   7.770   3.415
74164SOL     OW24323   4.122   1.973   8.525
74164SOL    HW124324   4.183   1.953   8.453
74164SOL    HW224325   4.062   1.899   8.527
74165SOL     OW24326   7.828  13.884   6.875
74165SOL    HW124327   7.821  13.847   6.787
74165SOL    HW224328   7.876  13.818   6.925
74166SOL     OW24329   4.081   8.495  10.239
74166SOL    HW124330   4.071   8.408  10.279
74166SOL    HW224331   4.002   8.543  10.266
74167SOL     OW24332   1.512  13.459   3.924
74167SOL    HW124333   1.567  13.432   3.850
74167SOL    HW224334   1.531  13.553   3.934
74168SOL     OW24335   5.754   1.160   7.763
74168SOL    HW124336   5.766   1.141   7.670
74168SOL    HW224337   5.688   1.228   7.765
74169SOL     OW24338   6.509   7.628   6.659
74169SOL    HW124339   6.586   7.644   6.715
74169SOL    HW224340   6.481   7.540   6.683
74170SOL     OW24341  10.686   9.718   6.949
74170SOL    HW124342  10.649   9.657   7.013
74170SOL    HW224343  10.725   9.788   7.001
74171SOL     OW24344   2.116   9.354   7.382
74171SOL    HW124345   2.121   9.332   7.475
74171SOL    HW224346   2.150   9.444   7.377
74172SOL     OW24347   4.029   2.593   2.394
74172SOL    HW124348   3.968   2.647   2.445
74172SOL    HW224349   3.976   2.518   2.366
74173SOL     OW24350   7.946   9.947   2.753
74173SOL    HW124351   8.000  10.014   2.794
74173SOL    HW224352   8.008   9.885   2.715
74174SOL     OW24353   6.551   2.915  10.919
74174SOL    HW124354   6.460   2.933  10.895
74174SOL    HW224355   6.601   2.981  10.872
74175SOL     OW24356   8.998   6.475   5.984
74175SOL    HW124357   9.011   6.560   5.942
74175SOL    HW224358   8.921   6.487   6.040
74176SOL     OW24359   1.304   5.732  13.875
74176SOL    HW124360   1.336   5.666  13.813
74176SOL    HW224361   1.239   5.685  13.928
74177SOL     OW24362   5.502   8.636  12.926
74177SOL    HW124363   5.513   8.731  12.934
74177SOL    HW224364   5.586   8.599  12.954
74178SOL     OW24365   4.335   0.280   6.668
74178SOL    HW124366   4.243   0.297   6.690
74178SOL    HW224367   4.379   0.363   6.685
74179SOL     OW24368   1.380   0.554   7.771
74179SOL    HW124369   1.336   0.560   7.856
74179SOL    HW224370   1.309   0.562   7.707
74180SOL     OW24371   8.085  12.015  10.649
74180SOL    HW124372   8.068  12.095  10.600
74180SOL    HW224373   8.049  11.945  10.593
74181SOL     OW24374   1.127   9.578   7.854
74181SOL    HW124375   1.221   9.581   7.874
74181SOL    HW224376   1.087   9.540   7.932
74182SOL     OW24377   3.944  11.618   7.448
74182SOL    HW124378   3.966  11.539   7.399
74182SOL    HW224379   3.936  11.686   7.381
74183SOL     OW24380   9.887   7.190   3.256
74183SOL    HW124381   9.798   7.208   3.226
74183SOL    HW224382   9.922   7.127   3.193
74184SOL     OW24383   4.750   8.654   1.809
74184SOL    HW124384   4.738   8.595   1.884
74184SOL    HW224385   4.692   8.728   1.827
74185SOL     OW24386   8.583  13.686  12.265
74185SOL    HW124387   8.568  13.687  12.359
74185SOL    HW224388   8.671  13.722  12.254
74186SOL     OW24389  13.050  11.715   5.285
74186SOL    HW124390  12.986  11.687   5.219
74186SOL    HW224391  13.099  11.786   5.243
74187SOL     OW24392  13.472  12.885   8.351
74187SOL    HW124393  13.410  12.827   8.395
74187SOL    HW224394  13.469  12.859   8.259
74188SOL     OW24395   6.589   4.265   5.943
74188SOL    HW124396   6.682   4.282   5.927
74188SOL    HW224397   6.585   4.237   6.034
74189SOL     OW24398   5.366   9.005  12.424
74189SOL    HW124399   5.353   9.099  12.436
74189SOL    HW224400   5.279   8.971  12.406
74190SOL     OW24401  12.770   2.313  12.718
74190SOL    HW124402  12.817   2.307  12.801
74190SOL    HW224403  12.721   2.395  12.723
74191SOL     OW24404   8.536   3.827   2.170
74191SOL    HW124405   8.602   3.895   2.158
74191SOL    HW224406   8.552   3.765   2.099
74192SOL     OW24407   6.740   8.244   9.882
74192SOL    HW124408   6.825   8.277   9.911
74192SOL    HW224409   6.740   8.258   9.787
74193SOL     OW24410  13.390   3.772   3.791
74193SOL    HW124411  13.329   3.730   3.730
74193SOL    HW224412  13.448   3.701   3.819
74194SOL     OW24413   5.417   7.634   9.038
74194SOL    HW124414   5.337   7.681   9.014
74194SOL    HW224415   5.418   7.558   8.979
74195SOL     OW24416   1.427   6.777  10.599
74195SOL    HW124417   1.460   6.857  10.638
74195SOL    HW224418   1.383   6.806  10.519
74196SOL     OW24419   6.389   1.552   0.458
74196SOL    HW124420   6.346   1.480   0.504
74196SOL    HW224421   6.320   1.617   0.444
74197SOL     OW24422  13.760  12.064   1.060
74197SOL    HW124423  13.721  12.136   1.012
74197SOL    HW224424  13.847  12.096   1.086
74198SOL     OW24425  14.747   7.978   1.310
74198SOL    HW124426  14.717   7.958   1.221
74198SOL    HW224427  14.719   8.068   1.325
74199SOL     OW24428  13.201  13.125  14.613
74199SOL    HW124429  13.273  13.063  14.624
74199SOL    HW224430  13.180  13.154  14.702
74200SOL     OW24431  11.670   8.305  13.678
74200SOL    HW124432  11.650   8.212  13.674
74200SOL    HW224433  11.621   8.337  13.754
74201SOL     OW24434   6.749   5.980  14.365
74201SOL    HW124435   6.677   5.935  14.323
74201SOL    HW224436   6.770   6.053  14.305
74202SOL     OW24437  10.255  11.264   7.187
74202SOL    HW124438  10.351  11.262   7.184
74202SOL    HW224439  10.232  11.207   7.261
74203SOL     OW24440   2.908   9.131   3.725
74203SOL    HW124441   2.906   9.194   3.797
74203SOL    HW224442   2.862   9.175   3.654
74204SOL     OW24443  11.401  10.858   0.241
74204SOL    HW124444  11.313  10.825   0.256
74204SOL    HW224445  11.449  10.836   0.320
74205SOL     OW24446   5.642   9.915   1.813
74205SOL    HW124447   5.672   9.936   1.902
74205SOL    HW224448   5.712   9.948   1.756
74206SOL     OW24449   8.027  10.296  14.559
74206SOL    HW124450   8.026  10.206  14.527
74206SOL    HW224451   8.105  10.300  14.615
74207SOL     OW24452   8.438   5.483   5.940
74207SOL    HW124453   8.348   5.454   5.934
74207SOL    HW224454   8.450   5.507   6.032
74208SOL     OW24455   4.773   4.216  12.570
74208SOL    HW124456   4.742   4.175  12.651
74208SOL    HW224457   4.739   4.306  12.574
74209SOL     OW24458   9.094   9.387   6.775
74209SOL    HW124459   9.098   9.347   6.688
74209SOL    HW224460   9.154   9.335   6.828
74210SOL     OW24461   5.951   1.417   8.574
74210SOL    HW124462   5.972   1.355   8.644
74210SOL    HW224463   6.030   1.470   8.566
74211SOL     OW24464  14.325   8.929   0.530
74211SOL    HW124465  14.303   8.968   0.615
74211SOL    HW224466  14.297   8.994   0.466
74212SOL     OW24467   4.329  10.490   8.336
74212SOL    HW124468   4.410  10.525   8.299
74212SOL    HW224469   4.303  10.420   8.276
74213SOL     OW24470  11.284  14.070  13.198
74213SOL    HW124471  11.278  13.980  13.229
74213SOL    HW224472  11.378  14.087  13.190
74214SOL     OW24473   6.299   6.550   9.264
74214SOL    HW124474   6.239   6.555   9.189
74214SOL    HW224475   6.246   6.578   9.339
74215SOL     OW24476   6.130   5.027   7.041
74215SOL    HW124477   6.168   5.046   7.127
74215SOL    HW224478   6.109   4.933   7.045
74216SOL     OW24479   1.408   9.610   5.502
74216SOL    HW124480   1.473   9.655   5.449
74216SOL    HW224481   1.400   9.523   5.461
74217SOL     OW24482   0.381   8.731   8.395
74217SOL    HW124483   0.445   8.661   8.385
74217SOL    HW224484   0.433   8.810   8.409
74218SOL     OW24485   5.116  14.670  10.038
74218SOL    HW124486   5.169  14.738   9.996
74218SOL    HW224487   5.034  14.715  10.060
74219SOL     OW24488   8.022   5.570   9.071
74219SOL    HW124489   8.111   5.539   9.051
74219SOL    HW224490   8.031   5.666   9.072
74220SOL     OW24491   0.729   6.502   0.173
74220SOL    HW124492   0.653   6.560   0.175
74220SOL    HW224493   0.697   6.418   0.205
74221SOL     OW24494   2.851  14.784   0.710
74221SOL    HW124495   2.817  14.696   0.725
74221SOL    HW224496   2.827  14.804   0.619
74222SOL     OW24497  11.314   8.008  13.000
74222SOL    HW124498  11.335   7.996  12.907
74222SOL    HW224499  11.399   8.004  13.044
74223SOL     OW24500   7.368   3.450  11.105
74223SOL    HW124501   7.378   3.507  11.182
74223SOL    HW224502   7.332   3.369  11.140
74224SOL     OW24503   0.328  10.481  14.685
74224SOL    HW124504   0.297  10.572  14.683
74224SOL    HW224505   0.422  10.488  14.673
74225SOL     OW24506   9.373   8.370   6.140
74225SOL    HW124507   9.323   8.414   6.071
74225SOL    HW224508   9.450   8.335   6.095
74226SOL     OW24509   7.660   4.187   3.735
74226SOL    HW124510   7.685   4.117   3.795
74226SOL    HW224511   7.703   4.165   3.653
74227SOL     OW24512   1.392   7.928   4.322
74227SOL    HW124513   1.331   7.881   4.379
74227SOL    HW224514   1.455   7.967   4.382
74228SOL     OW24515  14.320  14.345   4.941
74228SOL    HW124516  14.232  14.383   4.933
74228SOL    HW224517  14.307  14.252   4.921
74229SOL     OW24518   9.936   1.630   7.825
74229SOL    HW124519  10.004   1.563   7.838
74229SOL    HW224520   9.979   1.712   7.847
74230SOL     OW24521   1.132   1.850   1.657
74230SOL    HW124522   1.156   1.797   1.733
74230SOL    HW224523   1.042   1.823   1.637
74231SOL     OW24524   5.361   6.461   5.776
74231SOL    HW124525   5.290   6.413   5.733
74231SOL    HW224526   5.367   6.543   5.726
74232SOL     OW24527   8.127   4.625  13.965
74232SOL    HW124528   8.050   4.653  13.915
74232SOL    HW224529   8.197   4.619  13.901
74233SOL     OW24530   4.423  13.519  12.607
74233SOL    HW124531   4.364  13.570  12.662
74233SOL    HW224532   4.485  13.480  12.668
74234SOL     OW24533   8.582   6.676   5.913
74234SOL    HW124534   8.632   6.757   5.905
74234SOL    HW224535   8.508   6.700   5.969
74235SOL     OW24536  10.275   4.986   7.843
74235SOL    HW124537  10.205   5.030   7.891
74235SOL    HW224538  10.266   4.894   7.866
74236SOL     OW24539   4.256   2.876  14.260
74236SOL    HW124540   4.240   2.872  14.354
74236SOL    HW224541   4.344   2.912  14.252
74237SOL     OW24542   2.086  14.469   8.173
74237SOL    HW124543   2.140  14.408   8.223
74237SOL    HW224544   2.032  14.512   8.238
74238SOL     OW24545  13.546   4.638   3.453
74238SOL    HW124546  13.499   4.718   3.430
74238SOL    HW224547  13.546   4.636   3.548
74239SOL     OW24548   1.071   2.344   7.052
74239SOL    HW124549   0.994   2.324   7.106
74239SOL    HW224550   1.132   2.273   7.072
74240SOL     OW24551   6.533   0.779   3.370
74240SOL    HW124552   6.492   0.847   3.317
74240SOL    HW224553   6.533   0.701   3.314
74241SOL     OW24554   3.905   6.390   6.040
74241SOL    HW124555   3.994   6.375   6.007
74241SOL    HW224556   3.886   6.312   6.092
74242SOL     OW24557   5.179   0.949  10.102
74242SOL    HW124558   5.169   0.969  10.009
74242SOL    HW224559   5.090   0.933  10.133
74243SOL     OW24560   6.342   0.012   5.615
74243SOL    HW124561   6.286   0.090   5.614
74243SOL    HW224562   6.283  14.811   5.599
74244SOL     OW24563  11.881   5.103  14.333
74244SOL    HW124564  11.821   5.074  14.401
74244SOL    HW224565  11.824   5.137  14.264
74245SOL     OW24566   0.027   6.022   1.455
74245SOL    HW124567  14.855   6.009   1.538
74245SOL    HW224568   0.074   5.940   1.439
74246SOL     OW24569   1.492   6.532  12.767
74246SOL    HW124570   1.456   6.570  12.847
74246SOL    HW224571   1.556   6.596  12.737
74247SOL     OW24572  13.463  13.574   0.524
74247SOL    HW124573  13.463  13.667   0.503
74247SOL    HW224574  13.373  13.555   0.550
74248SOL     OW24575   5.555  12.929   9.165
74248SOL    HW124576   5.627  12.936   9.102
74248SOL    HW224577   5.525  12.838   9.158
74249SOL     OW24578  10.086   4.675   3.157
74249SOL    HW124579  10.125   4.588   3.169
74249SOL    HW224580   9.998   4.667   3.195
74250SOL     OW24581   9.670   4.166   7.823
74250SOL    HW124582   9.645   4.123   7.905
74250SOL    HW224583   9.587   4.192   7.783
74251SOL     OW24584  14.232  13.741  12.572
74251SOL    HW124585  14.193  13.827  12.559
74251SOL    HW224586  14.198  13.688  12.500
74252SOL     OW24587   8.657   4.893  10.766
74252SOL    HW124588   8.646   4.932  10.679
74252SOL    HW224589   8.674   4.800  10.749
74253SOL     OW24590   9.151  10.309   4.939
74253SOL    HW124591   9.213  10.355   4.883
74253SOL    HW224592   9.065  10.335   4.906
74254SOL     OW24593   4.823   5.961  12.490
74254SOL    HW124594   4.916   5.942  12.486
74254SOL    HW224595   4.788   5.924  12.408
74255SOL     OW24596  11.397  11.200  13.606
74255SOL    HW124597  11.445  11.261  13.662
74255SOL    HW224598  11.465  11.143  13.569
74256SOL     OW24599   1.126   3.442  12.823
74256SOL    HW124600   1.211   3.439  12.867
74256SOL    HW224601   1.129   3.371  12.760
74257SOL     OW24602   3.059   2.880  12.931
74257SOL    HW124603   3.042   2.922  12.847
74257SOL    HW224604   2.982   2.898  12.984
74258SOL     OW24605  14.413   0.149  10.056
74258SOL    HW124606  14.366   0.201  10.122
74258SOL    HW224607  14.358   0.072  10.043
74259SOL     OW24608  12.894   9.688   8.283
74259SOL    HW124609  12.915   9.737   8.362
74259SOL    HW224610  12.914   9.597   8.306
74260SOL     OW24611   0.557  13.589   5.388
74260SOL    HW124612   0.578  13.541   5.307
74260SOL    HW224613   0.505  13.527   5.439
74261SOL     OW24614   6.612   7.738   7.315
74261SOL    HW124615   6.683   7.800   7.296
74261SOL    HW224616   6.653   7.652   7.312
74262SOL     OW24617   4.084  13.436  12.505
74262SOL    HW124618   4.045  13.454  12.591
74262SOL    HW224619   4.055  13.509  12.450
74263SOL     OW24620   1.770  14.529  11.974
74263SOL    HW124621   1.740  14.502  11.887
74263SOL    HW224622   1.811  14.450  12.010
74264SOL     OW24623   7.985  12.633   2.416
74264SOL    HW124624   8.033  12.705   2.457
74264SOL    HW224625   8.053  12.581   2.374
74265SOL     OW24626   8.492  12.694   8.004
74265SOL    HW124627   8.427  12.700   7.933
74265SOL    HW224628   8.440  12.696   8.084
74266SOL     OW24629   1.714   7.672  10.992
74266SOL    HW124630   1.767   7.646  10.916
74266SOL    HW224631   1.754   7.754  11.022
74267SOL     OW24632   0.701   4.211   3.294
74267SOL    HW124633   0.760   4.284   3.312
74267SOL    HW224634   0.743   4.136   3.337
74268SOL     OW24635   2.061  13.553  11.808
74268SOL    HW124636   2.120  13.565  11.733
74268SOL    HW224637   2.112  13.583  11.883
74269SOL     OW24638   8.282   9.385  14.042
74269SOL    HW124639   8.201   9.424  14.011
74269SOL    HW224640   8.331   9.458  14.081
74270SOL     OW24641   6.708  12.789   3.325
74270SOL    HW124642   6.722  12.769   3.418
74270SOL    HW224643   6.796  12.792   3.288
74271SOL     OW24644  13.742   3.318  11.690
74271SOL    HW124645  13.786   3.235  11.707
74271SOL    HW224646  13.729   3.320  11.596
74272SOL     OW24647   9.106   4.275  14.587
74272SOL    HW124648   9.117   4.259  14.681
74272SOL    HW224649   9.181   4.329  14.563
74273SOL     OW24650  13.499   4.850   4.088
74273SOL    HW124651  13.494   4.900   4.169
74273SOL    HW224652  13.429   4.887   4.033
74274SOL     OW24653   6.369  11.697   5.899
74274SOL    HW124654   6.298  11.684   5.962
74274SOL    HW224655   6.338  11.656   5.818
74275SOL     OW24656   8.788  13.011   4.332
74275SOL    HW124657   8.877  12.995   4.300
74275SOL    HW224658   8.790  13.102   4.363
74276SOL     OW24659  14.871  12.970  14.702
74276SOL    HW124660  14.783  12.969  14.663
74276SOL    HW224661  14.859  13.015  14.786
74277SOL     OW24662  13.912   5.484   3.571
74277SOL    HW124663  13.905   5.481   3.666
74277SOL    HW224664  13.926   5.576   3.550
74278SOL     OW24665   5.968  13.813   2.170
74278SOL    HW124666   5.985  13.728   2.209
74278SOL    HW224667   5.971  13.798   2.075
74279SOL     OW24668   9.538  14.596   9.830
74279SOL    HW124669   9.465  14.655   9.809
74279SOL    HW224670   9.611  14.629   9.779
74280SOL     OW24671   0.186   2.660   3.639
74280SOL    HW124672   0.189   2.753   3.618
74280SOL    HW224673   0.270   2.641   3.680
74281SOL     OW24674  11.399   7.406   2.090
74281SOL    HW124675  11.476   7.447   2.128
74281SOL    HW224676  11.401   7.315   2.121
74282SOL     OW24677  14.627   1.944   3.854
74282SOL    HW124678  14.681   1.872   3.887
74282SOL    HW224679  14.600   1.992   3.932
74283SOL     OW24680   6.978  12.947   9.914
74283SOL    HW124681   6.995  13.010   9.984
74283SOL    HW224682   6.934  12.999   9.846
74284SOL     OW24683   8.824   0.723  11.869
74284SOL    HW124684   8.876   0.767  11.802
74284SOL    HW224685   8.735   0.754  11.853
74285SOL     OW24686  10.794  14.779   2.070
74285SOL    HW124687  10.830  14.703   2.025
74285SOL    HW224688  10.720  14.806   2.017
74286SOL     OW24689  11.043   5.989  13.458
74286SOL    HW124690  11.087   5.931  13.521
74286SOL    HW224691  11.103   5.995  13.384
74287SOL     OW24692   7.278   5.904  11.615
74287SOL    HW124693   7.369   5.930  11.602
74287SOL    HW224694   7.283   5.810  11.634
74288SOL     OW24695   2.214  14.626   7.642
74288SOL    HW124696   2.167  14.700   7.681
74288SOL    HW224697   2.241  14.658   7.556
74289SOL     OW24698   8.673   8.063  13.669
74289SOL    HW124699   8.657   8.129  13.602
74289SOL    HW224700   8.678   7.980  13.621
74290SOL     OW24701  14.104  14.198   9.949
74290SOL    HW124702  14.133  14.203   9.858
74290SOL    HW224703  14.142  14.117   9.982
74291SOL     OW24704   5.819   7.459  12.408
74291SOL    HW124705   5.855   7.382  12.451
74291SOL    HW224706   5.730   7.466  12.443
74292SOL     OW24707   5.050   5.087   7.928
74292SOL    HW124708   5.027   5.081   7.836
74292SOL    HW224709   4.966   5.082   7.974
74293SOL     OW24710  11.829   4.284   5.510
74293SOL    HW124711  11.775   4.231   5.569
74293SOL    HW224712  11.918   4.273   5.543
74294SOL     OW24713   1.896   9.135   5.557
74294SOL    HW124714   1.985   9.104   5.573
74294SOL    HW224715   1.904   9.195   5.482
74295SOL     OW24716   4.849   7.903   0.678
74295SOL    HW124717   4.795   7.945   0.745
74295SOL    HW224718   4.793   7.899   0.601
74296SOL     OW24719  11.439   8.187   3.542
74296SOL    HW124720  11.438   8.258   3.477
74296SOL    HW224721  11.348   8.180   3.571
74297SOL     OW24722  13.805   7.909   2.802
74297SOL    HW124723  13.718   7.895   2.765
74297SOL    HW224724  13.835   7.822   2.828
74298SOL     OW24725   5.941  13.298  11.406
74298SOL    HW124726   5.852  13.283  11.374
74298SOL    HW224727   5.990  13.328  11.330
74299SOL     OW24728   2.902  13.230   8.615
74299SOL    HW124729   2.827  13.170   8.617
74299SOL    HW224730   2.944  13.220   8.700
74300SOL     OW24731   5.924   4.284  14.408
74300SOL    HW124732   5.928   4.298  14.313
74300SOL    HW224733   6.016   4.283  14.436
74301SOL     OW24734  11.101  13.053   0.078
74301SOL    HW124735  11.072  12.970   0.040
74301SOL    HW224736  11.021  13.094   0.111
74302SOL     OW24737  12.709   6.259   9.904
74302SOL    HW124738  12.704   6.340   9.955
74302SOL    HW224739  12.621   6.222   9.909
74303SOL     OW24740  11.063  12.951  13.571
74303SOL    HW124741  11.002  12.887  13.608
74303SOL    HW224742  11.107  12.904  13.500
74304SOL     OW24743   2.618   3.569   0.264
74304SOL    HW124744   2.602   3.582   0.358
74304SOL    HW224745   2.710   3.593   0.252
74305SOL     OW24746   7.646   4.681   6.737
74305SOL    HW124747   7.643   4.596   6.781
74305SOL    HW224748   7.587   4.672   6.662
74306SOL     OW24749   2.727   9.189   0.222
74306SOL    HW124750   2.820   9.196   0.200
74306SOL    HW224751   2.726   9.174   0.317
74307SOL     OW24752  12.638   5.623   9.232
74307SOL    HW124753  12.543   5.628   9.221
74307SOL    HW224754  12.660   5.534   9.205
74308SOL     OW24755   8.454   4.757  11.855
74308SOL    HW124756   8.533   4.762  11.801
74308SOL    HW224757   8.482   4.710  11.934
74309SOL     OW24758  13.998  12.380   9.245
74309SOL    HW124759  13.904  12.384   9.230
74309SOL    HW224760  14.028  12.310   9.187
74310SOL     OW24761  10.414   6.088   9.464
74310SOL    HW124762  10.433   6.181   9.454
74310SOL    HW224763  10.330   6.075   9.419
74311SOL     OW24764   7.636   8.476   7.837
74311SOL    HW124765   7.660   8.499   7.748
74311SOL    HW224766   7.579   8.399   7.827
74312SOL     OW24767   6.296   2.526   9.132
74312SOL    HW124768   6.361   2.592   9.155
74312SOL    HW224769   6.344   2.463   9.078
74313SOL     OW24770   5.666  14.477  12.924
74313SOL    HW124771   5.682  14.562  12.965
74313SOL    HW224772   5.596  14.438  12.977
74314SOL     OW24773   4.693   0.344  13.307
74314SOL    HW124774   4.681   0.411  13.240
74314SOL    HW224775   4.758   0.284  13.269
74315SOL     OW24776   4.996   9.772   5.675
74315SOL    HW124777   4.999   9.785   5.770
74315SOL    HW224778   4.950   9.689   5.664
74316SOL     OW24779   0.328   6.562   8.555
74316SOL    HW124780   0.402   6.573   8.614
74316SOL    HW224781   0.253   6.549   8.612
74317SOL     OW24782   5.103   5.130  13.793
74317SOL    HW124783   5.127   5.037  13.784
74317SOL    HW224784   5.184   5.172  13.823
74318SOL     OW24785   6.234   7.275  11.411
74318SOL    HW124786   6.200   7.354  11.369
74318SOL    HW224787   6.211   7.285  11.503
74319SOL     OW24788  13.432  13.063  14.186
74319SOL    HW124789  13.423  12.968  14.189
74319SOL    HW224790  13.503  13.082  14.247
74320SOL     OW24791  10.090   7.653  10.195
74320SOL    HW124792  10.127   7.611  10.117
74320SOL    HW224793  10.046   7.731  10.162
74321SOL     OW24794  10.197   2.166   5.032
74321SOL    HW124795  10.284   2.205   5.043
74321SOL    HW224796  10.190   2.101   5.102
74322SOL     OW24797   6.447   5.515   8.690
74322SOL    HW124798   6.466   5.560   8.607
74322SOL    HW224799   6.509   5.442   8.692
74323SOL     OW24800  14.003  12.951  11.026
74323SOL    HW124801  13.991  12.939  10.932
74323SOL    HW224802  14.097  12.958  11.039
74324SOL     OW24803  10.601   7.030  10.967
74324SOL    HW124804  10.631   6.945  10.999
74324SOL    HW224805  10.510   7.016  10.942
74325SOL     OW24806   7.896   6.105  14.139
74325SOL    HW124807   7.830   6.036  14.132
74325SOL    HW224808   7.846   6.184  14.158
74326SOL     OW24809   2.100   2.874   0.823
74326SOL    HW124810   2.026   2.813   0.817
74326SOL    HW224811   2.139   2.854   0.908
74327SOL     OW24812   7.596   5.213   1.246
74327SOL    HW124813   7.643   5.155   1.306
74327SOL    HW224814   7.511   5.171   1.234
74328SOL     OW24815   7.303  13.619   7.404
74328SOL    HW124816   7.273  13.583   7.487
74328SOL    HW224817   7.253  13.572   7.337
74329SOL     OW24818   1.540   0.764   9.572
74329SOL    HW124819   1.555   0.754   9.478
74329SOL    HW224820   1.491   0.686   9.597
74330SOL     OW24821   0.910   5.757   9.542
74330SOL    HW124822   0.994   5.756   9.587
74330SOL    HW224823   0.845   5.763   9.613
74331SOL     OW24824  13.895   9.755   9.019
74331SOL    HW124825  13.838   9.821   9.057
74331SOL    HW224826  13.845   9.674   9.025
74332SOL     OW24827   2.514  11.098  11.560
74332SOL    HW124828   2.522  11.004  11.572
74332SOL    HW224829   2.524  11.134  11.649
74333SOL     OW24830  12.962   3.628   0.725
74333SOL    HW124831  12.909   3.558   0.687
74333SOL    HW224832  13.042   3.584   0.754
74334SOL     OW24833   1.745   6.137  12.970
74334SOL    HW124834   1.822   6.174  13.012
74334SOL    HW224835   1.683   6.210  12.965
74335SOL     OW24836  12.044  11.241   4.178
74335SOL    HW124837  12.130  11.258   4.219
74335SOL    HW224838  12.046  11.148   4.157
74336SOL     OW24839  11.964  10.616   8.519
74336SOL    HW124840  11.966  10.618   8.423
74336SOL    HW224841  11.878  10.580   8.540
74337SOL     OW24842  11.239   4.195  10.613
74337SOL    HW124843  11.256   4.288  10.601
74337SOL    HW224844  11.326   4.155  10.617
74338SOL     OW24845   7.864  11.857   0.353
74338SOL    HW124846   7.858  11.879   0.446
74338SOL    HW224847   7.912  11.930   0.315
74339SOL     OW24848   1.785   2.843   3.417
74339SOL    HW124849   1.826   2.845   3.504
74339SOL    HW224850   1.730   2.764   3.419
74340SOL     OW24851  10.774   6.460   3.013
74340SOL    HW124852  10.868   6.476   3.002
74340SOL    HW224853  10.737   6.471   2.926
74341SOL     OW24854   3.727   2.942   7.995
74341SOL    HW124855   3.721   2.917   7.903
74341SOL    HW224856   3.651   2.899   8.036
74342SOL     OW24857   6.705  12.388  10.945
74342SOL    HW124858   6.749  12.472  10.930
74342SOL    HW224859   6.615  12.412  10.966
74343SOL     OW24860  12.250  14.870  14.544
74343SOL    HW124861  12.276  14.795  14.491
74343SOL    HW224862  12.186   0.044  14.490
74344SOL     OW24863   0.769   5.253  10.266
74344SOL    HW124864   0.685   5.298  10.276
74344SOL    HW224865   0.753   5.164  10.297
74345SOL     OW24866   0.748  13.376  12.290
74345SOL    HW124867   0.663  13.380  12.246
74345SOL    HW224868   0.734  13.423  12.372
74346SOL     OW24869  11.641  14.331   9.416
74346SOL    HW124870  11.726  14.322   9.373
74346SOL    HW224871  11.597  14.247   9.400
74347SOL     OW24872   9.465   6.036   6.368
74347SOL    HW124873   9.457   6.070   6.278
74347SOL    HW224874   9.410   6.095   6.420
74348SOL     OW24875  11.637  10.785   8.494
74348SOL    HW124876  11.712  10.840   8.518
74348SOL    HW224877  11.579  10.788   8.570
74349SOL     OW24878  12.946  13.519  10.035
74349SOL    HW124879  12.966  13.599   9.986
74349SOL    HW224880  13.014  13.457  10.009
74350SOL     OW24881   5.851   2.431   6.116
74350SOL    HW124882   5.896   2.364   6.065
74350SOL    HW224883   5.872   2.410   6.207
74351SOL     OW24884   6.778   4.593  10.552
74351SOL    HW124885   6.854   4.616  10.606
74351SOL    HW224886   6.779   4.657  10.481
74352SOL     OW24887   9.034   5.621  10.116
74352SOL    HW124888   8.992   5.628  10.202
74352SOL    HW224889   9.088   5.700  10.109
74353SOL     OW24890   7.506   1.326   7.318
74353SOL    HW124891   7.526   1.420   7.318
74353SOL    HW224892   7.590   1.283   7.334
74354SOL     OW24893   7.760  11.888   6.736
74354SOL    HW124894   7.832  11.933   6.692
74354SOL    HW224895   7.683  11.944   6.721
74355SOL     OW24896  12.731   4.969   9.174
74355SOL    HW124897  12.779   5.045   9.205
74355SOL    HW224898  12.777   4.942   9.094
74356SOL     OW24899  13.698  10.395   8.294
74356SOL    HW124900  13.673  10.466   8.353
74356SOL    HW224901  13.784  10.421   8.261
74357SOL     OW24902   4.724  13.346   7.231
74357SOL    HW124903   4.690  13.258   7.218
74357SOL    HW224904   4.816  13.341   7.205
74358SOL     OW24905   3.478  11.414   9.605
74358SOL    HW124906   3.443  11.439   9.691
74358SOL    HW224907   3.556  11.362   9.626
74359SOL     OW24908   7.530   5.361   5.262
74359SOL    HW124909   7.590   5.409   5.205
74359SOL    HW224910   7.453   5.345   5.207
74360SOL     OW24911   1.283   9.563  10.799
74360SOL    HW124912   1.355   9.624  10.780
74360SOL    HW224913   1.315   9.510  10.872
74361SOL     OW24914   4.085   9.759   0.164
74361SOL    HW124915   4.019   9.690   0.160
74361SOL    HW224916   4.088   9.784   0.256
74362SOL     OW24917   5.155   1.895  14.744
74362SOL    HW124918   5.108   1.954  14.804
74362SOL    HW224919   5.186   1.953  14.674
74363SOL     OW24920   8.974   7.223  13.122
74363SOL    HW124921   8.924   7.204  13.202
74363SOL    HW224922   9.014   7.140  13.098
74364SOL     OW24923  14.822   2.079  11.519
74364SOL    HW124924  14.747   2.125  11.558
74364SOL    HW224925   0.020   2.144  11.519
74365SOL     OW24926   6.529  13.829   9.959
74365SOL    HW124927   6.477  13.783  10.024
74365SOL    HW224928   6.489  13.915   9.952
74366SOL     OW24929  13.227   1.965  14.706
74366SOL    HW124930  13.215   1.890  14.764
74366SOL    HW224931  13.178   2.036  14.748
74367SOL     OW24932   3.558  14.040  10.538
74367SOL    HW124933   3.601  14.119  10.505
74367SOL    HW224934   3.504  14.071  10.611
74368SOL     OW24935   9.924   8.431  13.140
74368SOL    HW124936   9.833   8.457  13.123
74368SOL    HW224937   9.945   8.370  13.069
74369SOL     OW24938   4.443   4.638   5.226
74369SOL    HW124939   4.504   4.579   5.182
74369SOL    HW224940   4.499   4.701   5.271
74370SOL     OW24941   3.738   5.250   0.873
74370SOL    HW124942   3.708   5.170   0.830
74370SOL    HW224943   3.671   5.267   0.939
74371SOL     OW24944  13.102  12.249   1.538
74371SOL    HW124945  13.010  12.271   1.521
74371SOL    HW224946  13.099  12.194   1.616
74372SOL     OW24947  11.679   2.564  12.056
74372SOL    HW124948  11.751   2.579  11.995
74372SOL    HW224949  11.682   2.639  12.115
74373SOL     OW24950   5.106   0.378   6.711
74373SOL    HW124951   5.029   0.393   6.766
74373SOL    HW224952   5.116   0.283   6.710
74374SOL     OW24953  14.584   8.929  14.125
74374SOL    HW124954  14.536   8.891  14.051
74374SOL    HW224955  14.670   8.888  14.121
74375SOL     OW24956   6.173   0.093  14.513
74375SOL    HW124957   6.157   0.124  14.602
74375SOL    HW224958   6.221   0.165  14.471
74376SOL     OW24959   5.467  10.991   3.971
74376SOL    HW124960   5.435  11.072   4.011
74376SOL    HW224961   5.505  11.019   3.888
74377SOL     OW24962   3.839   5.546   3.442
74377SOL    HW124963   3.887   5.469   3.472
74377SOL    HW224964   3.827   5.600   3.520
74378SOL     OW24965  14.370   5.855  11.175
74378SOL    HW124966  14.364   5.795  11.250
74378SOL    HW224967  14.462   5.850  11.148
74379SOL     OW24968  14.150   5.523  13.292
74379SOL    HW124969  14.164   5.441  13.244
74379SOL    HW224970  14.074   5.506  13.347
74380SOL     OW24971   6.906   6.158   1.092
74380SOL    HW124972   6.931   6.229   1.150
74380SOL    HW224973   6.877   6.202   1.012
74381SOL     OW24974   2.920  13.770   6.091
74381SOL    HW124975   2.917  13.806   6.179
74381SOL    HW224976   3.000  13.717   6.089
74382SOL     OW24977  11.331   6.103   7.561
74382SOL    HW124978  11.299   6.117   7.650
74382SOL    HW224979  11.286   6.169   7.508
74383SOL     OW24980   1.997   4.235   7.540
74383SOL    HW124981   2.029   4.226   7.450
74383SOL    HW224982   1.959   4.322   7.543
74384SOL     OW24983   9.631   2.620  14.130
74384SOL    HW124984   9.614   2.693  14.190
74384SOL    HW224985   9.724   2.626  14.110
74385SOL     OW24986   6.826   1.656  10.517
74385SOL    HW124987   6.904   1.665  10.572
74385SOL    HW224988   6.857   1.678  10.429
74386SOL     OW24989  13.031  11.799   5.580
74386SOL    HW124990  13.006  11.886   5.611
74386SOL    HW224991  13.088  11.816   5.504
74387SOL     OW24992   0.450   6.045   2.523
74387SOL    HW124993   0.409   5.973   2.573
74387SOL    HW224994   0.377   6.085   2.476
74388SOL     OW24995  14.702  10.293  11.615
74388SOL    HW124996  14.659  10.237  11.680
74388SOL    HW224997  14.705  10.240  11.535
74389SOL     OW24998  12.235  14.591   8.265
74389SOL    HW124999  12.307  14.630   8.216
74389SOL    HW225000  12.176  14.558   8.198
74390SOL     OW25001   5.478   9.458   9.057
74390SOL    HW125002   5.415   9.410   9.004
74390SOL    HW225003   5.497   9.400   9.130
74391SOL     OW25004   2.290   2.868   5.811
74391SOL    HW125005   2.204   2.850   5.851
74391SOL    HW225006   2.281   2.956   5.775
74392SOL     OW25007   9.396   0.216   8.526
74392SOL    HW125008   9.395   0.310   8.507
74392SOL    HW225009   9.304   0.189   8.514
74393SOL     OW25010  12.949  12.900   8.791
74393SOL    HW125011  12.874  12.900   8.850
74393SOL    HW225012  12.993  12.816   8.806
74394SOL     OW25013   2.712   6.193   0.313
74394SOL    HW125014   2.743   6.131   0.248
74394SOL    HW225015   2.712   6.278   0.268
74395SOL     OW25016   5.094   1.465  12.113
74395SOL    HW125017   5.114   1.519  12.189
74395SOL    HW225018   5.179   1.431  12.084
74396SOL     OW25019   4.347   5.111   3.344
74396SOL    HW125020   4.320   5.112   3.436
74396SOL    HW225021   4.270   5.142   3.297
74397SOL     OW25022  10.291  14.809   4.731
74397SOL    HW125023  10.372  14.759   4.723
74397SOL    HW225024  10.250  14.776   4.811
74398SOL     OW25025  10.127   9.443   6.454
74398SOL    HW125026  10.159   9.528   6.485
74398SOL    HW225027  10.127   9.388   6.532
74399SOL     OW25028  12.884   0.315   1.288
74399SOL    HW125029  12.790   0.330   1.298
74399SOL    HW225030  12.892   0.261   1.210
74400SOL     OW25031   8.278   1.076   3.130
74400SOL    HW125032   8.290   1.013   3.059
74400SOL    HW225033   8.298   1.161   3.091
74401SOL     OW25034   9.050  13.446  13.855
74401SOL    HW125035   9.138  13.460  13.891
74401SOL    HW225036   8.995  13.509  13.903
74402SOL     OW25037   3.995   3.030   5.382
74402SOL    HW125038   3.944   3.051   5.461
74402SOL    HW225039   3.931   3.033   5.311
74403SOL     OW25040  14.627   7.993   9.367
74403SOL    HW125041  14.541   8.004   9.407
74403SOL    HW225042  14.689   7.996   9.440
74404SOL     OW25043   5.373   6.252   5.408
74404SOL    HW125044   5.456   6.227   5.449
74404SOL    HW225045   5.327   6.170   5.394
74405SOL     OW25046   5.887  10.938   1.459
74405SOL    HW125047   5.905  10.858   1.410
74405SOL    HW225048   5.949  10.937   1.532
74406SOL     OW25049  10.036   1.076  12.441
74406SOL    HW125050   9.957   1.111  12.400
74406SOL    HW225051  10.038   1.116  12.528
74407SOL     OW25052  10.448  11.405   7.449
74407SOL    HW125053  10.416  11.447   7.529
74407SOL    HW225054  10.449  11.312   7.470
74408SOL     OW25055   6.763  11.330  13.680
74408SOL    HW125056   6.680  11.374  13.663
74408SOL    HW225057   6.758  11.304  13.773
74409SOL     OW25058   5.353  10.390   1.006
74409SOL    HW125059   5.432  10.352   0.966
74409SOL    HW225060   5.323  10.454   0.942
74410SOL     OW25061   2.563   9.914   3.360
74410SOL    HW125062   2.550   9.945   3.270
74410SOL    HW225063   2.609   9.986   3.403
74411SOL     OW25064   0.444   1.439  13.795
74411SOL    HW125065   0.420   1.481  13.713
74411SOL    HW225066   0.498   1.504  13.840
74412SOL     OW25067   7.668  10.017  13.952
74412SOL    HW125068   7.693  10.037  13.862
74412SOL    HW225069   7.576  10.044  13.958
74413SOL     OW25070  11.631   4.973   0.658
74413SOL    HW125071  11.711   5.016   0.688
74413SOL    HW225072  11.654   4.880   0.655
74414SOL     OW25073  13.426  13.815  13.311
74414SOL    HW125074  13.456  13.890  13.259
74414SOL    HW225075  13.503  13.759  13.318
74415SOL     OW25076   5.710   7.848   8.494
74415SOL    HW125077   5.735   7.940   8.498
74415SOL    HW225078   5.667   7.831   8.578
74416SOL     OW25079  10.503   7.852   5.861
74416SOL    HW125080  10.500   7.767   5.905
74416SOL    HW225081  10.595   7.865   5.839
74417SOL     OW25082   9.248   7.299  14.743
74417SOL    HW125083   9.262   7.383  14.789
74417SOL    HW225084   9.159   7.274  14.769
74418SOL     OW25085   4.707   2.800  11.686
74418SOL    HW125086   4.693   2.718  11.638
74418SOL    HW225087   4.790   2.834  11.652
74419SOL     OW25088  12.281   2.380  10.887
74419SOL    HW125089  12.340   2.430  10.831
74419SOL    HW225090  12.301   2.410  10.976
74420SOL     OW25091   2.505   0.423   6.832
74420SOL    HW125092   2.524   0.414   6.925
74420SOL    HW225093   2.427   0.369   6.818
74421SOL     OW25094   0.431   3.901   3.846
74421SOL    HW125095   0.353   3.948   3.817
74421SOL    HW225096   0.490   3.902   3.771
74422SOL     OW25097  14.045   8.893   1.538
74422SOL    HW125098  13.955   8.864   1.523
74422SOL    HW225099  14.091   8.816   1.569
74423SOL     OW25100  11.563  14.663  10.288
74423SOL    HW125101  11.534  14.691  10.201
74423SOL    HW225102  11.518  14.580  10.303
74424SOL     OW25103   6.712  13.130  12.130
74424SOL    HW125104   6.616  13.138  12.136
74424SOL    HW225105   6.743  13.168  12.213
74425SOL     OW25106   5.976   0.674   1.939
74425SOL    HW125107   5.916   0.678   2.013
74425SOL    HW225108   6.041   0.608   1.965
74426SOL     OW25109   1.137   4.116   5.100
74426SOL    HW125110   1.101   4.048   5.156
74426SOL    HW225111   1.204   4.158   5.153
74427SOL     OW25112   3.441   4.132   5.088
74427SOL    HW125113   3.441   4.133   5.184
74427SOL    HW225114   3.441   4.040   5.064
74428SOL     OW25115   3.738   9.516  11.064
74428SOL    HW125116   3.816   9.556  11.103
74428SOL    HW225117   3.676   9.507  11.136
74429SOL     OW25118  12.682   6.988  13.586
74429SOL    HW125119  12.635   7.012  13.666
74429SOL    HW225120  12.769   6.960  13.616
74430SOL     OW25121  12.249   1.457  11.150
74430SOL    HW125122  12.233   1.520  11.221
74430SOL    HW225123  12.292   1.508  11.082
74431SOL     OW25124   5.680  12.605   7.049
74431SOL    HW125125   5.758  12.660   7.049
74431SOL    HW225126   5.607  12.666   7.034
74432SOL     OW25127   4.763   2.476  14.478
74432SOL    HW125128   4.726   2.471  14.390
74432SOL    HW225129   4.738   2.394  14.521
74433SOL     OW25130  13.664   7.551   0.981
74433SOL    HW125131  13.633   7.639   1.003
74433SOL    HW225132  13.586   7.496   0.988
74434SOL     OW25133  11.356   0.091  11.240
74434SOL    HW125134  11.396   0.085  11.327
74434SOL    HW225135  11.302   0.170  11.244
74435SOL     OW25136   4.141   1.121   7.727
74435SOL    HW125137   4.192   1.040   7.717
74435SOL    HW225138   4.156   1.147   7.818
74436SOL     OW25139   5.135  13.210  12.906
74436SOL    HW125140   5.181  13.180  12.984
74436SOL    HW225141   5.054  13.249  12.940
74437SOL     OW25142   0.010   4.674   1.540
74437SOL    HW125143   0.034   4.618   1.614
74437SOL    HW225144  14.793   4.704   1.560
74438SOL     OW25145   5.821  12.182  14.555
74438SOL    HW125146   5.770  12.226  14.623
74438SOL    HW225147   5.757  12.158  14.488
74439SOL     OW25148  10.549  13.762  11.419
74439SOL    HW125149  10.563  13.848  11.379
74439SOL    HW225150  10.570  13.700  11.349
74440SOL     OW25151  12.525  10.112   4.117
74440SOL    HW125152  12.487  10.175   4.178
74440SOL    HW225153  12.532  10.159   4.035
74441SOL     OW25154  10.054   1.788  12.041
74441SOL    HW125155  10.075   1.697  12.021
74441SOL    HW225156   9.964   1.799  12.010
74442SOL     OW25157  13.411  14.741   1.607
74442SOL    HW125158  13.409  14.653   1.570
74442SOL    HW225159  13.384  14.729   1.698
74443SOL     OW25160   0.763  13.310   4.024
74443SOL    HW125161   0.711  13.235   3.992
74443SOL    HW225162   0.839  13.312   3.965
74444SOL     OW25163   0.626   1.598  13.948
74444SOL    HW125164   0.621   1.588  14.043
74444SOL    HW225165   0.696   1.661  13.933
74445SOL     OW25166   6.114  12.320   9.938
74445SOL    HW125167   6.029  12.343   9.901
74445SOL    HW225168   6.173  12.314   9.862
74446SOL     OW25169  11.500  14.054   4.560
74446SOL    HW125170  11.569  14.003   4.517
74446SOL    HW225171  11.421  14.034   4.511
74447SOL     OW25172   1.671   3.800  10.959
74447SOL    HW125173   1.742   3.758  11.008
74447SOL    HW225174   1.633   3.730  10.906
74448SOL     OW25175   4.444   2.665   3.824
74448SOL    HW125176   4.510   2.631   3.884
74448SOL    HW225177   4.452   2.761   3.831
74449SOL     OW25178  10.263   9.219   1.961
74449SOL    HW125179  10.349   9.261   1.965
74449SOL    HW225180  10.279   9.129   1.989
74450SOL     OW25181   5.052   4.382   7.182
74450SOL    HW125182   5.043   4.437   7.260
74450SOL    HW225183   4.997   4.306   7.200
74451SOL     OW25184   8.439   6.675   4.479
74451SOL    HW125185   8.351   6.705   4.503
74451SOL    HW225186   8.429   6.636   4.392
74452SOL     OW25187   5.240  14.579   6.876
74452SOL    HW125188   5.259  14.565   6.969
74452SOL    HW225189   5.153  14.542   6.864
74453SOL     OW25190   9.261   5.997  14.491
74453SOL    HW125191   9.258   5.907  14.459
74453SOL    HW225192   9.236   6.050  14.416
74454SOL     OW25193  13.522   0.811  11.746
74454SOL    HW125194  13.468   0.861  11.808
74454SOL    HW225195  13.503   0.720  11.765
74455SOL     OW25196  11.322   5.975   5.018
74455SOL    HW125197  11.289   6.018   4.939
74455SOL    HW225198  11.386   5.911   4.985
74456SOL     OW25199   5.683  10.085   3.161
74456SOL    HW125200   5.729  10.107   3.080
74456SOL    HW225201   5.747  10.036   3.212
74457SOL     OW25202   1.455   9.988   8.827
74457SOL    HW125203   1.470  10.065   8.881
74457SOL    HW225204   1.382  10.012   8.770
74458SOL     OW25205  13.483  10.967   7.012
74458SOL    HW125206  13.484  11.061   7.029
74458SOL    HW225207  13.576  10.942   7.007
74459SOL     OW25208  10.638   2.467   8.435
74459SOL    HW125209  10.544   2.461   8.421
74459SOL    HW225210  10.670   2.378   8.424
74460SOL     OW25211   8.462  13.378   2.146
74460SOL    HW125212   8.485  13.366   2.238
74460SOL    HW225213   8.543  13.359   2.098
74461SOL     OW25214   6.940   3.709   0.384
74461SOL    HW125215   6.889   3.782   0.418
74461SOL    HW225216   6.923   3.637   0.445
74462SOL     OW25217   7.112   6.863   0.486
74462SOL    HW125218   7.037   6.821   0.446
74462SOL    HW225219   7.178   6.865   0.417
74463SOL     OW25220  12.404  13.572   2.662
74463SOL    HW125221  12.493  13.560   2.695
74463SOL    HW225222  12.414  13.635   2.591
74464SOL     OW25223   6.044   6.288   8.541
74464SOL    HW125224   6.135   6.314   8.552
74464SOL    HW225225   6.049   6.195   8.517
74465SOL     OW25226   5.408  12.786   5.452
74465SOL    HW125227   5.348  12.822   5.386
74465SOL    HW225228   5.491  12.829   5.435
74466SOL     OW25229   0.127  10.167   7.950
74466SOL    HW125230   0.054  10.209   7.903
74466SOL    HW225231   0.085  10.113   8.017
74467SOL     OW25232   3.712   1.082   1.695
74467SOL    HW125233   3.780   1.031   1.739
74467SOL    HW225234   3.756   1.121   1.620
74468SOL     OW25235  11.328   7.352   8.802
74468SOL    HW125236  11.280   7.378   8.723
74468SOL    HW225237  11.297   7.412   8.870
74469SOL     OW25238   4.247   4.506   3.170
74469SOL    HW125239   4.165   4.471   3.135
74469SOL    HW225240   4.226   4.536   3.258
74470SOL     OW25241   4.154  14.150   9.505
74470SOL    HW125242   4.184  14.221   9.562
74470SOL    HW225243   4.058  14.158   9.505
74471SOL     OW25244  13.133  12.869   7.232
74471SOL    HW125245  13.173  12.956   7.233
74471SOL    HW225246  13.173  12.824   7.158
74472SOL     OW25247  11.422   1.692   9.910
74472SOL    HW125248  11.326   1.688   9.904
74472SOL    HW225249  11.441   1.785   9.925
74473SOL     OW25250   4.443   6.880   9.696
74473SOL    HW125251   4.377   6.827   9.740
74473SOL    HW225252   4.443   6.963   9.743
74474SOL     OW25253   0.528  14.010  10.409
74474SOL    HW125254   0.599  14.070  10.385
74474SOL    HW225255   0.472  14.007  10.332
74475SOL     OW25256   3.650  10.668   5.019
74475SOL    HW125257   3.720  10.721   5.056
74475SOL    HW225258   3.633  10.707   4.933
74476SOL     OW25259   8.871   1.854  12.190
74476SOL    HW125260   8.962   1.827  12.183
74476SOL    HW225261   8.868   1.940  12.148
74477SOL     OW25262   1.373   3.937   4.996
74477SOL    HW125263   1.376   4.018   4.945
74477SOL    HW225264   1.340   3.963   5.082
74478SOL     OW25265   8.036  12.561   8.683
74478SOL    HW125266   7.992  12.631   8.732
74478SOL    HW225267   8.056  12.494   8.749
74479SOL     OW25268   8.216   9.876   5.271
74479SOL    HW125269   8.212   9.843   5.181
74479SOL    HW225270   8.302   9.849   5.302
74480SOL     OW25271   0.338   5.156   8.183
74480SOL    HW125272   0.337   5.062   8.198
74480SOL    HW225273   0.291   5.192   8.258
74481SOL     OW25274   8.968  11.293   2.611
74481SOL    HW125275   8.958  11.281   2.517
74481SOL    HW225276   9.032  11.364   2.620
74482SOL     OW25277  13.713  10.210   2.637
74482SOL    HW125278  13.650  10.140   2.618
74482SOL    HW225279  13.696  10.234   2.728
74483SOL     OW25280  12.008   9.751   2.964
74483SOL    HW125281  12.031   9.796   2.883
74483SOL    HW225282  11.929   9.796   2.994
74484SOL     OW25283   1.873  10.135   2.732
74484SOL    HW125284   1.858  10.224   2.701
74484SOL    HW225285   1.943  10.143   2.796
74485SOL     OW25286   5.896   8.920  12.639
74485SOL    HW125287   5.956   8.971  12.584
74485SOL    HW225288   5.922   8.940  12.728
74486SOL     OW25289  10.717   9.432   7.057
74486SOL    HW125290  10.812   9.422   7.067
74486SOL    HW225291  10.680   9.391   7.135
74487SOL     OW25292   9.987   8.120  10.541
74487SOL    HW125293  10.068   8.161  10.512
74487SOL    HW225294   9.926   8.193  10.553
74488SOL     OW25295   2.193   0.062   8.228
74488SOL    HW125296   2.188   0.077   8.133
74488SOL    HW225297   2.107   0.027   8.251
74489SOL     OW25298   6.053   9.882   2.259
74489SOL    HW125299   6.106   9.877   2.338
74489SOL    HW225300   6.092   9.953   2.208
74490SOL     OW25301  11.473   8.767   9.672
74490SOL    HW125302  11.430   8.852   9.668
74490SOL    HW225303  11.541   8.771   9.605
74491SOL     OW25304   8.410   0.345   1.074
74491SOL    HW125305   8.348   0.402   1.120
74491SOL    HW225306   8.478   0.404   1.044
74492SOL     OW25307  11.496   9.385  11.095
74492SOL    HW125308  11.528   9.428  11.015
74492SOL    HW225309  11.510   9.449  11.164
74493SOL     OW25310  13.039  13.076   1.987
74493SOL    HW125311  12.996  13.136   1.926
74493SOL    HW225312  12.990  12.994   1.979
74494SOL     OW25313  13.127   9.696   8.537
74494SOL    HW125314  13.203   9.645   8.564
74494SOL    HW225315  13.151   9.734   8.453
74495SOL     OW25316   6.806   1.182   4.510
74495SOL    HW125317   6.866   1.187   4.436
74495SOL    HW225318   6.840   1.112   4.564
74496SOL     OW25319   7.443   9.350   2.965
74496SOL    HW125320   7.531   9.377   2.938
74496SOL    HW225321   7.406   9.309   2.887
74497SOL     OW25322   9.888   8.752   7.578
74497SOL    HW125323   9.954   8.685   7.593
74497SOL    HW225324   9.934   8.820   7.529
74498SOL     OW25325  14.719  10.812   8.356
74498SOL    HW125326  14.777  10.851   8.291
74498SOL    HW225327  14.770  10.813   8.437
74499SOL     OW25328   6.440   5.022   8.536
74499SOL    HW125329   6.510   4.965   8.506
74499SOL    HW225330   6.481   5.079   8.601
74500SOL     OW25331  14.431   7.424   4.417
74500SOL    HW125332  14.472   7.357   4.363
74500SOL    HW225333  14.495   7.443   4.486
74501SOL     OW25334   9.298   4.975   7.945
74501SOL    HW125335   9.233   5.025   7.994
74501SOL    HW225336   9.331   4.911   8.007
74502SOL     OW25337  11.182   8.944   4.391
74502SOL    HW125338  11.195   8.933   4.485
74502SOL    HW225339  11.226   9.027   4.371
74503SOL     OW25340  11.335   4.765   8.818
74503SOL    HW125341  11.345   4.690   8.759
74503SOL    HW225342  11.291   4.728   8.895
74504SOL     OW25343   2.495   5.246  11.217
74504SOL    HW125344   2.484   5.237  11.123
74504SOL    HW225345   2.420   5.299  11.246
74505SOL     OW25346   7.753   9.479   2.500
74505SOL    HW125347   7.834   9.469   2.551
74505SOL    HW225348   7.763   9.563   2.455
74506SOL     OW25349   1.704  10.410   3.288
74506SOL    HW125350   1.651  10.331   3.299
74506SOL    HW225351   1.778  10.398   3.348
74507SOL     OW25352   5.269   4.842   1.289
74507SOL    HW125353   5.296   4.762   1.245
74507SOL    HW225354   5.250   4.904   1.219
74508SOL     OW25355   8.942   4.692   2.874
74508SOL    HW125356   8.924   4.619   2.933
74508SOL    HW225357   8.921   4.658   2.787
74509SOL     OW25358   9.270   8.623  14.592
74509SOL    HW125359   9.230   8.568  14.525
74509SOL    HW225360   9.236   8.711  14.574
74510SOL     OW25361   5.096  12.363  10.376
74510SOL    HW125362   5.082  12.333  10.286
74510SOL    HW225363   5.017  12.413  10.397
74511SOL     OW25364   1.581   7.360  13.289
74511SOL    HW125365   1.618   7.289  13.238
74511SOL    HW225366   1.634   7.436  13.267
74512SOL     OW25367  13.550   9.259   2.381
74512SOL    HW125368  13.583   9.349   2.380
74512SOL    HW225369  13.485   9.258   2.451
74513SOL     OW25370  13.829   4.012  14.788
74513SOL    HW125371  13.815   3.930  14.836
74513SOL    HW225372  13.879   4.067  14.847
74514SOL     OW25373  13.883   7.684  10.605
74514SOL    HW125374  13.885   7.601  10.557
74514SOL    HW225375  13.967   7.725  10.587
74515SOL     OW25376   8.316   8.121  10.296
74515SOL    HW125377   8.256   8.186  10.331
74515SOL    HW225378   8.355   8.163  10.219
74516SOL     OW25379   2.373   3.688   4.268
74516SOL    HW125380   2.314   3.680   4.344
74516SOL    HW225381   2.317   3.718   4.197
74517SOL     OW25382  10.504   7.708  10.533
74517SOL    HW125383  10.563   7.739  10.601
74517SOL    HW225384  10.551   7.635  10.492
74518SOL     OW25385  12.934  13.229   1.788
74518SOL    HW125386  12.954  13.260   1.700
74518SOL    HW225387  12.915  13.309   1.837
74519SOL     OW25388   3.115   0.871  10.421
74519SOL    HW125389   3.144   0.855  10.332
74519SOL    HW225390   3.187   0.919  10.462
74520SOL     OW25391  13.393   3.250  10.585
74520SOL    HW125392  13.405   3.210  10.499
74520SOL    HW225393  13.390   3.344  10.567
74521SOL     OW25394   9.659  14.732   3.487
74521SOL    HW125395   9.741  14.688   3.465
74521SOL    HW225396   9.593  14.664   3.482
74522SOL     OW25397   3.259   2.602  11.816
74522SOL    HW125398   3.224   2.663  11.751
74522SOL    HW225399   3.262   2.652  11.897
74523SOL     OW25400   5.530   7.380  11.763
74523SOL    HW125401   5.578   7.301  11.790
74523SOL    HW225402   5.525   7.433  11.842
74524SOL     OW25403   8.315   0.801  11.868
74524SOL    HW125404   8.282   0.828  11.954
74524SOL    HW225405   8.239   0.763  11.824
74525SOL     OW25406   3.880   6.785  11.892
74525SOL    HW125407   3.788   6.788  11.869
74525SOL    HW225408   3.921   6.730  11.825
74526SOL     OW25409   5.982   6.535   5.082
74526SOL    HW125410   6.029   6.582   5.012
74526SOL    HW225411   6.023   6.448   5.083
74527SOL     OW25412  14.319   8.382   0.501
74527SOL    HW125413  14.345   8.473   0.510
74527SOL    HW225414  14.258   8.382   0.427
74528SOL     OW25415   2.435  14.538   7.799
74528SOL    HW125416   2.382  14.561   7.876
74528SOL    HW225417   2.382  14.566   7.725
74529SOL     OW25418   7.203  11.690  12.406
74529SOL    HW125419   7.210  11.642  12.488
74529SOL    HW225420   7.248  11.773  12.423
74530SOL     OW25421   1.509  13.525   5.000
74530SOL    HW125422   1.484  13.616   4.989
74530SOL    HW225423   1.434  13.483   5.042
74531SOL     OW25424   2.727   8.377   4.986
74531SOL    HW125425   2.672   8.319   4.934
74531SOL    HW225426   2.810   8.381   4.939
74532SOL     OW25427  10.620   0.146  12.589
74532SOL    HW125428  10.668   0.222  12.554
74532SOL    HW225429  10.629   0.079  12.522
74533SOL     OW25430   2.902   0.314  12.533
74533SOL    HW125431   2.942   0.258  12.467
74533SOL    HW225432   2.976   0.354  12.579
74534SOL     OW25433   0.184  12.236   1.879
74534SOL    HW125434   0.136  12.164   1.920
74534SOL    HW225435   0.129  12.263   1.806
74535SOL     OW25436   3.945   3.741  13.508
74535SOL    HW125437   3.962   3.720  13.417
74535SOL    HW225438   3.853   3.717  13.522
74536SOL     OW25439   1.880   6.677   6.111
74536SOL    HW125440   1.843   6.611   6.052
74536SOL    HW225441   1.966   6.643   6.134
74537SOL     OW25442   0.532  13.284   4.533
74537SOL    HW125443   0.531  13.188   4.528
74537SOL    HW225444   0.439  13.308   4.542
74538SOL     OW25445   3.295  11.797  10.480
74538SOL    HW125446   3.343  11.833  10.555
74538SOL    HW225447   3.288  11.870  10.419
74539SOL     OW25448   6.986   4.724   4.934
74539SOL    HW125449   6.911   4.709   4.876
74539SOL    HW225450   7.036   4.643   4.930
74540SOL     OW25451   2.438   9.660   8.405
74540SOL    HW125452   2.456   9.665   8.311
74540SOL    HW225453   2.446   9.751   8.435
74541SOL     OW25454  11.362   3.512   5.369
74541SOL    HW125455  11.334   3.568   5.441
74541SOL    HW225456  11.412   3.570   5.312
74542SOL     OW25457  10.542   1.196   6.108
74542SOL    HW125458  10.495   1.185   6.191
74542SOL    HW225459  10.633   1.209   6.134
74543SOL     OW25460   6.989   4.329   7.795
74543SOL    HW125461   6.919   4.265   7.810
74543SOL    HW225462   6.954   4.411   7.831
74544SOL     OW25463  11.828   1.207  14.070
74544SOL    HW125464  11.733   1.209  14.055
74544SOL    HW225465  11.865   1.241  13.988
74545SOL     OW25466   7.282  10.776  10.923
74545SOL    HW125467   7.359  10.728  10.953
74545SOL    HW225468   7.296  10.788  10.829
74546SOL     OW25469   5.243   1.872   7.419
74546SOL    HW125470   5.279   1.932   7.353
74546SOL    HW225471   5.233   1.789   7.372
74547SOL     OW25472   0.543   0.084   8.039
74547SOL    HW125473   0.467   0.141   8.048
74547SOL    HW225474   0.507  14.867   8.043
74548SOL     OW25475   2.619  13.200   1.157
74548SOL    HW125476   2.626  13.110   1.190
74548SOL    HW225477   2.645  13.254   1.231
74549SOL     OW25478   8.076   6.073  13.491
74549SOL    HW125479   8.106   5.988  13.460
74549SOL    HW225480   8.142   6.135  13.460
74550SOL     OW25481   6.536   8.073  11.684
74550SOL    HW125482   6.586   7.992  11.694
74550SOL    HW225483   6.567   8.110  11.601
74551SOL     OW25484   3.758   5.181   1.944
74551SOL    HW125485   3.746   5.087   1.955
74551SOL    HW225486   3.700   5.204   1.871
74552SOL     OW25487   4.923   9.543   4.397
74552SOL    HW125488   4.927   9.577   4.486
74552SOL    HW225489   5.011   9.556   4.362
74553SOL     OW25490   7.629   0.115   9.486
74553SOL    HW125491   7.598   0.029   9.513
74553SOL    HW225492   7.700   0.098   9.425
74554SOL     OW25493   3.335  10.049   0.785
74554SOL    HW125494   3.240  10.042   0.790
74554SOL    HW225495   3.367   9.967   0.824
74555SOL     OW25496   5.902  14.585   4.855
74555SOL    HW125497   5.959  14.593   4.932
74555SOL    HW225498   5.961  14.602   4.781
74556SOL     OW25499   8.874   3.486   3.395
74556SOL    HW125500   8.968   3.489   3.380
74556SOL    HW225501   8.861   3.406   3.447
74557SOL     OW25502   0.955   4.698   3.170
74557SOL    HW125503   0.902   4.621   3.149
74557SOL    HW225504   0.998   4.720   3.087
74558SOL     OW25505  14.833   2.571  10.355
74558SOL    HW125506  14.837   2.493  10.411
74558SOL    HW225507  14.757   2.556  10.299
74559SOL     OW25508   1.506  11.656   5.638
74559SOL    HW125509   1.423  11.654   5.686
74559SOL    HW225510   1.571  11.680   5.704
74560SOL     OW25511   3.372   7.611  10.554
74560SOL    HW125512   3.337   7.580  10.471
74560SOL    HW225513   3.302   7.663  10.592
74561SOL     OW25514   3.693  14.512   7.184
74561SOL    HW125515   3.759  14.549   7.125
74561SOL    HW225516   3.620  14.489   7.128
74562SOL     OW25517   4.299   2.143  12.773
74562SOL    HW125518   4.384   2.149  12.731
74562SOL    HW225519   4.247   2.088  12.714
74563SOL     OW25520  13.784   7.746   0.388
74563SOL    HW125521  13.704   7.695   0.373
74563SOL    HW225522  13.848   7.682   0.420
74564SOL     OW25523  11.727  11.522  11.976
74564SOL    HW125524  11.761  11.611  11.988
74564SOL    HW225525  11.777  11.486  11.903
74565SOL     OW25526  11.364  14.229   3.566
74565SOL    HW125527  11.418  14.258   3.639
74565SOL    HW225528  11.360  14.305   3.507
74566SOL     OW25529   3.234   0.485   6.636
74566SOL    HW125530   3.139   0.475   6.639
74566SOL    HW225531   3.254   0.493   6.542
74567SOL     OW25532  11.955   3.718   6.182
74567SOL    HW125533  11.894   3.754   6.246
74567SOL    HW225534  11.923   3.751   6.098
74568SOL     OW25535  14.369  13.107  10.500
74568SOL    HW125536  14.287  13.088  10.454
74568SOL    HW225537  14.349  13.089  10.592
74569SOL     OW25538   8.527   9.309   8.651
74569SOL    HW125539   8.512   9.343   8.739
74569SOL    HW225540   8.615   9.339   8.628
74570SOL     OW25541  14.748   1.178   0.131
74570SOL    HW125542  14.738   1.175   0.036
74570SOL    HW225543  14.829   1.130   0.148
74571SOL     OW25544   4.448   7.731   8.624
74571SOL    HW125545   4.482   7.644   8.607
74571SOL    HW225546   4.368   7.737   8.572
74572SOL     OW25547  13.727   2.118   3.613
74572SOL    HW125548  13.658   2.061   3.581
74572SOL    HW225549  13.792   2.059   3.652
74573SOL     OW25550  13.032   9.454   5.166
74573SOL    HW125551  13.038   9.537   5.214
74573SOL    HW225552  12.949   9.459   5.119
74574SOL     OW25553   8.649  12.132   9.309
74574SOL    HW125554   8.660  12.041   9.283
74574SOL    HW225555   8.738  12.166   9.318
74575SOL     OW25556   2.679   3.410   9.261
74575SOL    HW125557   2.705   3.364   9.341
74575SOL    HW225558   2.719   3.496   9.268
74576SOL     OW25559  13.760   6.255  14.214
74576SOL    HW125560  13.729   6.236  14.303
74576SOL    HW225561  13.707   6.329  14.186
74577SOL     OW25562   2.896  10.594  10.580
74577SOL    HW125563   2.978  10.602  10.627
74577SOL    HW225564   2.895  10.669  10.520
74578SOL     OW25565  12.838   3.687   6.598
74578SOL    HW125566  12.882   3.604   6.576
74578SOL    HW225567  12.795   3.713   6.517
74579SOL     OW25568  14.531   2.959   1.511
74579SOL    HW125569  14.516   3.041   1.559
74579SOL    HW225570  14.472   2.896   1.553
74580SOL     OW25571  12.314  11.488   2.867
74580SOL    HW125572  12.362  11.494   2.785
74580SOL    HW225573  12.225  11.515   2.845
74581SOL     OW25574  11.860   6.186  10.866
74581SOL    HW125575  11.833   6.154  10.952
74581SOL    HW225576  11.880   6.106  10.817
74582SOL     OW25577  10.531  11.147   1.656
74582SOL    HW125578  10.543  11.078   1.591
74582SOL    HW225579  10.618  11.158   1.695
74583SOL     OW25580   1.452  14.154  14.550
74583SOL    HW125581   1.497  14.087  14.499
74583SOL    HW225582   1.359  14.136  14.537
74584SOL     OW25583  14.426  13.208   6.711
74584SOL    HW125584  14.419  13.198   6.616
74584SOL    HW225585  14.399  13.299   6.727
74585SOL     OW25586   1.321   1.972  13.163
74585SOL    HW125587   1.323   2.066  13.180
74585SOL    HW225588   1.269   1.936  13.235
74586SOL     OW25589  11.094  12.679   8.840
74586SOL    HW125590  11.178  12.725   8.842
74586SOL    HW225591  11.113  12.592   8.874
74587SOL     OW25592   7.798   4.333   6.279
74587SOL    HW125593   7.716   4.342   6.327
74587SOL    HW225594   7.825   4.243   6.294
74588SOL     OW25595  10.608  13.418   5.902
74588SOL    HW125596  10.581  13.400   5.811
74588SOL    HW225597  10.570  13.503   5.922
74589SOL     OW25598  13.273  12.420   7.642
74589SOL    HW125599  13.200  12.424   7.580
74589SOL    HW225600  13.238  12.370   7.716
74590SOL     OW25601  14.029  11.508   3.019
74590SOL    HW125602  13.934  11.495   3.018
74590SOL    HW225603  14.064  11.434   2.970
74591SOL     OW25604   7.375  12.491   5.910
74591SOL    HW125605   7.468  12.499   5.934
74591SOL    HW225606   7.329  12.547   5.973
74592SOL     OW25607   0.239  14.322   6.014
74592SOL    HW125608   0.247  14.264   5.939
74592SOL    HW225609   0.327  14.325   6.052
74593SOL     OW25610   8.290  12.775   7.844
74593SOL    HW125611   8.215  12.715   7.840
74593SOL    HW225612   8.311  12.793   7.752
74594SOL     OW25613   4.003   8.671  12.468
74594SOL    HW125614   3.980   8.671  12.375
74594SOL    HW225615   3.980   8.582  12.497
74595SOL     OW25616   9.401   2.368  10.543
74595SOL    HW125617   9.311   2.371  10.511
74595SOL    HW225618   9.419   2.275  10.556
74596SOL     OW25619  12.039   1.471  12.826
74596SOL    HW125620  12.013   1.420  12.750
74596SOL    HW225621  12.129   1.444  12.843
74597SOL     OW25622  10.082   2.177   8.117
74597SOL    HW125623  10.078   2.117   8.043
74597SOL    HW225624  10.160   2.150   8.166
74598SOL     OW25625   6.095  14.263   7.793
74598SOL    HW125626   6.134  14.323   7.857
74598SOL    HW225627   6.161  14.194   7.782
74599SOL     OW25628   6.157  14.033   7.514
74599SOL    HW125629   6.064  14.013   7.517
74599SOL    HW225630   6.197  13.976   7.580
74600SOL     OW25631  13.614  13.731  12.501
74600SOL    HW125632  13.635  13.640  12.522
74600SOL    HW225633  13.527  13.745  12.539
74601SOL     OW25634  13.466  14.275   5.472
74601SOL    HW125635  13.389  14.220   5.457
74601SOL    HW225636  13.518  14.226   5.536
74602SOL     OW25637   3.260   5.543  11.889
74602SOL    HW125638   3.233   5.455  11.914
74602SOL    HW225639   3.195   5.571  11.824
74603SOL     OW25640   2.077   9.051  10.642
74603SOL    HW125641   2.024   9.121  10.679
74603SOL    HW225642   2.017   8.977  10.634
74604SOL     OW25643   2.057  12.321   2.052
74604SOL    HW125644   1.980  12.268   2.074
74604SOL    HW225645   2.033  12.409   2.082
74605SOL     OW25646   9.608   0.592   4.494
74605SOL    HW125647   9.526   0.556   4.529
74605SOL    HW225648   9.588   0.615   4.403
74606SOL     OW25649  13.122  12.127   6.550
74606SOL    HW125650  13.057  12.198   6.549
74606SOL    HW225651  13.091  12.068   6.618
74607SOL     OW25652   3.846   0.976  11.412
74607SOL    HW125653   3.781   0.922  11.458
74607SOL    HW225654   3.925   0.922  11.410
74608SOL     OW25655   9.253   7.006   8.634
74608SOL    HW125656   9.234   7.066   8.706
74608SOL    HW225657   9.327   7.045   8.589
74609SOL     OW25658   9.196   2.475   2.072
74609SOL    HW125659   9.227   2.443   1.987
74609SOL    HW225660   9.271   2.464   2.130
74610SOL     OW25661   1.223   2.257  11.207
74610SOL    HW125662   1.161   2.277  11.137
74610SOL    HW225663   1.169   2.240  11.284
74611SOL     OW25664   2.895   2.854   9.473
74611SOL    HW125665   2.858   2.865   9.560
74611SOL    HW225666   2.939   2.936   9.454
74612SOL     OW25667   4.105   4.635   5.478
74612SOL    HW125668   4.158   4.702   5.520
74612SOL    HW225669   4.125   4.643   5.385
74613SOL     OW25670  10.897   7.924   5.448
74613SOL    HW125671  10.847   7.990   5.496
74613SOL    HW225672  10.863   7.841   5.480
74614SOL     OW25673   8.753  10.366   2.781
74614SOL    HW125674   8.658  10.368   2.793
74614SOL    HW225675   8.770  10.281   2.741
74615SOL     OW25676  12.796   0.085   2.315
74615SOL    HW125677  12.722   0.118   2.264
74615SOL    HW225678  12.873   0.127   2.277
74616SOL     OW25679  11.856  14.681  14.062
74616SOL    HW125680  11.841  14.774  14.082
74616SOL    HW225681  11.806  14.665  13.983
74617SOL     OW25682   8.733   8.416   3.656
74617SOL    HW125683   8.641   8.409   3.631
74617SOL    HW225684   8.757   8.328   3.685
74618SOL     OW25685   5.644  14.124  11.969
74618SOL    HW125686   5.664  14.085  12.055
74618SOL    HW225687   5.674  14.059  11.906
74619SOL     OW25688  10.006   9.982  13.583
74619SOL    HW125689  10.092   9.966  13.546
74619SOL    HW225690   9.962  10.040  13.520
74620SOL     OW25691   3.125   8.810  13.743
74620SOL    HW125692   3.121   8.825  13.837
74620SOL    HW225693   3.205   8.854  13.715
74621SOL     OW25694   5.320   3.946   6.025
74621SOL    HW125695   5.404   3.901   6.020
74621SOL    HW225696   5.277   3.924   5.942
74622SOL     OW25697   4.815  10.211   3.232
74622SOL    HW125698   4.802  10.183   3.323
74622SOL    HW225699   4.730  10.200   3.191
74623SOL     OW25700   7.634   9.089   4.428
74623SOL    HW125701   7.605   9.157   4.367
74623SOL    HW225702   7.724   9.070   4.402
74624SOL     OW25703  13.040  14.362   9.977
74624SOL    HW125704  13.066  14.449   9.946
74624SOL    HW225705  13.111  14.337  10.037
74625SOL     OW25706   2.343  11.775  10.782
74625SOL    HW125707   2.358  11.869  10.777
74625SOL    HW225708   2.341  11.756  10.876
74626SOL     OW25709  10.118   3.018   2.845
74626SOL    HW125710  10.078   2.931   2.854
74626SOL    HW225711  10.211   3.004   2.862
74627SOL     OW25712  13.252   8.496   4.162
74627SOL    HW125713  13.339   8.477   4.198
74627SOL    HW225714  13.207   8.412   4.160
74628SOL     OW25715  10.700   9.898   1.154
74628SOL    HW125716  10.632   9.965   1.162
74628SOL    HW225717  10.782   9.944   1.174
74629SOL     OW25718  12.416   3.300  11.855
74629SOL    HW125719  12.372   3.385  11.851
74629SOL    HW225720  12.382   3.251  11.781
74630SOL     OW25721   9.248  10.498  12.412
74630SOL    HW125722   9.210  10.448  12.485
74630SOL    HW225723   9.338  10.515  12.439
74631SOL     OW25724   5.654  12.008   1.555
74631SOL    HW125725   5.691  12.038   1.472
74631SOL    HW225726   5.651  11.912   1.546
74632SOL     OW25727  13.125   3.573   9.081
74632SOL    HW125728  13.070   3.529   9.146
74632SOL    HW225729  13.111   3.667   9.097
74633SOL     OW25730   1.985  10.633  11.622
74633SOL    HW125731   1.996  10.723  11.653
74633SOL    HW225732   1.974  10.581  11.702
74634SOL     OW25733   4.944   6.047   4.433
74634SOL    HW125734   5.033   6.039   4.400
74634SOL    HW225735   4.888   6.038   4.355
74635SOL     OW25736   2.557   5.464   2.695
74635SOL    HW125737   2.578   5.472   2.788
74635SOL    HW225738   2.633   5.418   2.658
74636SOL     OW25739   9.584   5.072   9.516
74636SOL    HW125740   9.631   5.150   9.543
74636SOL    HW225741   9.652   5.015   9.480
74637SOL     OW25742   0.320   2.325   8.293
74637SOL    HW125743   0.361   2.392   8.238
74637SOL    HW225744   0.351   2.345   8.381
74638SOL     OW25745   9.301  12.618   9.785
74638SOL    HW125746   9.208  12.632   9.766
74638SOL    HW225747   9.309  12.633   9.879
74639SOL     OW25748   6.385  11.428   4.344
74639SOL    HW125749   6.328  11.501   4.320
74639SOL    HW225750   6.349  11.395   4.426
74640SOL     OW25751   8.370   7.070   3.549
74640SOL    HW125752   8.401   7.079   3.459
74640SOL    HW225753   8.448   7.044   3.598
74641SOL     OW25754  10.447   8.409  13.205
74641SOL    HW125755  10.373   8.401  13.144
74641SOL    HW225756  10.461   8.504  13.212
74642SOL     OW25757   8.041   2.169  11.259
74642SOL    HW125758   8.004   2.256  11.277
74642SOL    HW225759   7.974   2.125  11.206
74643SOL     OW25760   7.529   7.733  10.814
74643SOL    HW125761   7.618   7.712  10.840
74643SOL    HW225762   7.505   7.809  10.867
74644SOL     OW25763   9.581   6.298  13.049
74644SOL    HW125764   9.634   6.222  13.073
74644SOL    HW225765   9.493   6.276  13.080
74645SOL     OW25766   8.495   2.628  10.761
74645SOL    HW125767   8.409   2.587  10.756
74645SOL    HW225768   8.520   2.646  10.670
74646SOL     OW25769   1.151  14.460   4.094
74646SOL    HW125770   1.222  14.524   4.104
74646SOL    HW225771   1.092  14.479   4.168
74647SOL     OW25772   0.516   4.835  13.738
74647SOL    HW125773   0.518   4.900  13.668
74647SOL    HW225774   0.577   4.767  13.710
74648SOL     OW25775  10.416   0.384  13.491
74648SOL    HW125776  10.443   0.372  13.582
74648SOL    HW225777  10.483   0.338  13.440
74649SOL     OW25778  12.725  14.505  13.960
74649SOL    HW125779  12.754  14.415  13.952
74649SOL    HW225780  12.801  14.557  13.932
74650SOL     OW25781   2.965  10.486   9.533
74650SOL    HW125782   3.010  10.536   9.602
74650SOL    HW225783   2.937  10.406   9.577
74651SOL     OW25784  10.580  12.223  11.821
74651SOL    HW125785  10.645  12.170  11.774
74651SOL    HW225786  10.633  12.277  11.880
74652SOL     OW25787   9.170   4.257  12.301
74652SOL    HW125788   9.252   4.254  12.350
74652SOL    HW225789   9.186   4.319  12.230
74653SOL     OW25790  11.363  13.712   0.414
74653SOL    HW125791  11.329  13.629   0.447
74653SOL    HW225792  11.285  13.764   0.394
74654SOL     OW25793   8.571   7.806  10.241
74654SOL    HW125794   8.599   7.824  10.152
74654SOL    HW225795   8.651   7.775  10.285
74655SOL     OW25796   0.462  12.506  10.226
74655SOL    HW125797   0.472  12.596  10.194
74655SOL    HW225798   0.372  12.502  10.258
74656SOL     OW25799   6.209   1.484  12.268
74656SOL    HW125800   6.233   1.412  12.327
74656SOL    HW225801   6.280   1.486  12.203
74657SOL     OW25802   9.346   4.354   5.656
74657SOL    HW125803   9.299   4.418   5.602
74657SOL    HW225804   9.434   4.392   5.666
74658SOL     OW25805   7.308   4.748   1.567
74658SOL    HW125806   7.343   4.803   1.638
74658SOL    HW225807   7.386   4.718   1.519
74659SOL     OW25808   7.508   3.430  13.620
74659SOL    HW125809   7.554   3.357  13.662
74659SOL    HW225810   7.576   3.478  13.574
74660SOL     OW25811   2.237   0.955  13.965
74660SOL    HW125812   2.222   1.035  14.015
74660SOL    HW225813   2.209   0.885  14.023
74661SOL     OW25814   3.907   1.512   0.218
74661SOL    HW125815   3.911   1.576   0.290
74661SOL    HW225816   3.958   1.553   0.148
74662SOL     OW25817  14.603   3.293   4.826
74662SOL    HW125818  14.677   3.322   4.774
74662SOL    HW225819  14.530   3.347   4.797
74663SOL     OW25820   2.097   1.355  14.611
74663SOL    HW125821   2.016   1.382  14.653
74663SOL    HW225822   2.160   1.347  14.683
74664SOL     OW25823   1.236   8.152   6.640
74664SOL    HW125824   1.141   8.160   6.640
74664SOL    HW225825   1.263   8.190   6.557
74665SOL     OW25826  10.037   1.811   7.505
74665SOL    HW125827   9.964   1.802   7.444
74665SOL    HW225828  10.049   1.906   7.515
74666SOL     OW25829  14.768   9.862  10.613
74666SOL    HW125830  14.702   9.827  10.674
74666SOL    HW225831  14.721   9.928  10.562
74667SOL     OW25832  14.106   8.388   0.311
74667SOL    HW125833  14.013   8.410   0.306
74667SOL    HW225834  14.108   8.293   0.295
74668SOL     OW25835   4.175  12.072   9.172
74668SOL    HW125836   4.225  12.006   9.125
74668SOL    HW225837   4.096  12.084   9.120
74669SOL     OW25838   7.662   4.321   4.298
74669SOL    HW125839   7.682   4.288   4.211
74669SOL    HW225840   7.573   4.291   4.316
74670SOL     OW25841  13.766   6.030   4.065
74670SOL    HW125842  13.748   6.118   4.032
74670SOL    HW225843  13.843   6.040   4.121
74671SOL     OW25844   5.564   7.149   4.233
74671SOL    HW125845   5.521   7.213   4.177
74671SOL    HW225846   5.624   7.201   4.287
74672SOL     OW25847  12.281  11.937   9.756
74672SOL    HW125848  12.262  11.890   9.675
74672SOL    HW225849  12.198  11.978   9.780
74673SOL     OW25850  10.122  11.427  13.352
74673SOL    HW125851  10.199  11.378  13.381
74673SOL    HW225852  10.129  11.429  13.257
74674SOL     OW25853  14.633   0.779   8.800
74674SOL    HW125854  14.667   0.696   8.768
74674SOL    HW225855  14.566   0.803   8.737
74675SOL     OW25856   5.455   7.553   7.063
74675SOL    HW125857   5.547   7.554   7.089
74675SOL    HW225858   5.433   7.646   7.050
74676SOL     OW25859  11.294  12.477   5.751
74676SOL    HW125860  11.219  12.417   5.751
74676SOL    HW225861  11.349  12.446   5.823
74677SOL     OW25862   2.737   3.208   4.402
74677SOL    HW125863   2.665   3.146   4.412
74677SOL    HW225864   2.779   3.210   4.488
74678SOL     OW25865   8.165  13.131   9.691
74678SOL    HW125866   8.153  13.039   9.664
74678SOL    HW225867   8.078  13.159   9.719
74679SOL     OW25868   5.046   8.707   2.041
74679SOL    HW125869   4.980   8.773   2.061
74679SOL    HW225870   5.105   8.751   1.979
74680SOL     OW25871   8.304   2.267   1.508
74680SOL    HW125872   8.271   2.178   1.504
74680SOL    HW225873   8.371   2.271   1.440
74681SOL     OW25874   7.280   8.061   7.395
74681SOL    HW125875   7.361   8.051   7.344
74681SOL    HW225876   7.310   8.092   7.481
74682SOL     OW25877   2.632  12.817   0.870
74682SOL    HW125878   2.701  12.850   0.813
74682SOL    HW225879   2.654  12.851   0.957
74683SOL     OW25880   0.494   2.803   4.487
74683SOL    HW125881   0.403   2.783   4.468
74683SOL    HW225882   0.495   2.825   4.581
74684SOL     OW25883   6.404  13.032   3.069
74684SOL    HW125884   6.330  13.091   3.086
74684SOL    HW225885   6.366  12.959   3.021
74685SOL     OW25886   7.477   5.358   0.035
74685SOL    HW125887   7.393   5.341   0.077
74685SOL    HW225888   7.527   5.407   0.100
74686SOL     OW25889   8.961   8.698   8.507
74686SOL    HW125890   8.994   8.753   8.436
74686SOL    HW225891   8.997   8.738   8.586
74687SOL     OW25892   4.497  10.400   7.538
74687SOL    HW125893   4.540  10.342   7.600
74687SOL    HW225894   4.538  10.380   7.454
74688SOL     OW25895  10.036   9.229  12.717
74688SOL    HW125896   9.965   9.190  12.768
74688SOL    HW225897  10.106   9.244  12.780
74689SOL     OW25898  10.449  11.848  12.846
74689SOL    HW125899  10.362  11.808  12.844
74689SOL    HW225900  10.433  11.939  12.871
74690SOL     OW25901   6.994   2.776  12.201
74690SOL    HW125902   7.047   2.718  12.255
74690SOL    HW225903   7.058   2.833  12.156
74691SOL     OW25904  12.220   9.069  10.897
74691SOL    HW125905  12.292   9.034  10.844
74691SOL    HW225906  12.260   9.094  10.980
74692SOL     OW25907  11.500   1.655   8.733
74692SOL    HW125908  11.591   1.666   8.761
74692SOL    HW225909  11.502   1.675   8.640
74693SOL     OW25910   4.534   7.015   9.386
74693SOL    HW125911   4.506   7.022   9.477
74693SOL    HW225912   4.629   7.002   9.391
74694SOL     OW25913   6.017   2.193   4.537
74694SOL    HW125914   6.009   2.215   4.444
74694SOL    HW225915   6.104   2.226   4.562
74695SOL     OW25916   6.464   5.451   1.678
74695SOL    HW125917   6.529   5.452   1.749
74695SOL    HW225918   6.380   5.452   1.723
74696SOL     OW25919   5.408   4.546   7.722
74696SOL    HW125920   5.452   4.497   7.653
74696SOL    HW225921   5.386   4.480   7.788
74697SOL     OW25922  11.110   3.595   0.981
74697SOL    HW125923  11.162   3.545   0.918
74697SOL    HW225924  11.038   3.631   0.929
74698SOL     OW25925   5.300  10.187  12.630
74698SOL    HW125926   5.282  10.128  12.703
74698SOL    HW225927   5.369  10.245  12.663
74699SOL     OW25928  10.977   0.021  14.658
74699SOL    HW125929  11.011  14.811  14.623
74699SOL    HW225930  10.897   0.038  14.609
74700SOL     OW25931  14.012   7.349  14.205
74700SOL    HW125932  14.096   7.333  14.161
74700SOL    HW225933  13.954   7.376  14.134
74701SOL     OW25934   9.441   4.288   5.170
74701SOL    HW125935   9.506   4.236   5.123
74701SOL    HW225936   9.424   4.238   5.250
74702SOL     OW25937  10.536   7.443  14.268
74702SOL    HW125938  10.480   7.481  14.199
74702SOL    HW225939  10.610   7.406  14.221
74703SOL     OW25940   9.406   4.340  14.133
74703SOL    HW125941   9.492   4.340  14.174
74703SOL    HW225942   9.368   4.425  14.156
74704SOL     OW25943   5.005   5.027   8.732
74704SOL    HW125944   4.992   4.938   8.699
74704SOL    HW225945   5.096   5.047   8.710
74705SOL     OW25946  13.034  10.626   1.965
74705SOL    HW125947  12.995  10.642   1.879
74705SOL    HW225948  13.124  10.597   1.947
74706SOL     OW25949   1.645  13.530   3.322
74706SOL    HW125950   1.709  13.589   3.362
74706SOL    HW225951   1.563  13.580   3.321
74707SOL     OW25952   1.416   5.320   0.016
74707SOL    HW125953   1.323   5.340   0.005
74707SOL    HW225954   1.429   5.240  14.838
74708SOL     OW25955   9.228   5.815   9.159
74708SOL    HW125956   9.266   5.739   9.202
74708SOL    HW225957   9.175   5.858   9.226
74709SOL     OW25958   6.417   0.687  12.412
74709SOL    HW125959   6.376   0.620  12.466
74709SOL    HW225960   6.389   0.666  12.322
74710SOL     OW25961   7.337   0.714  14.725
74710SOL    HW125962   7.301   0.625  14.730
74710SOL    HW225963   7.428   0.701  14.701
74711SOL     OW25964  11.250  10.541   4.492
74711SOL    HW125965  11.336  10.582   4.496
74711SOL    HW225966  11.268  10.447   4.486
74712SOL     OW25967  14.632   1.990  11.983
74712SOL    HW125968  14.688   2.044  12.039
74712SOL    HW225969  14.565   2.050  11.951
74713SOL     OW25970   2.859   0.969  12.738
74713SOL    HW125971   2.950   0.953  12.712
74713SOL    HW225972   2.836   0.893  12.792
74714SOL     OW25973   4.209   2.430   4.496
74714SOL    HW125974   4.200   2.350   4.548
74714SOL    HW225975   4.188   2.501   4.556
74715SOL     OW25976   5.599   9.279  10.730
74715SOL    HW125977   5.557   9.264  10.646
74715SOL    HW225978   5.555   9.219  10.790
74716SOL     OW25979   0.504   5.377  12.011
74716SOL    HW125980   0.425   5.430  11.999
74716SOL    HW225981   0.577   5.436  11.997
74717SOL     OW25982   8.646   9.923  11.168
74717SOL    HW125983   8.634   9.886  11.080
74717SOL    HW225984   8.632   9.850  11.228
74718SOL     OW25985   7.775   1.865   8.945
74718SOL    HW125986   7.833   1.922   8.994
74718SOL    HW225987   7.825   1.784   8.933
74719SOL     OW25988  12.653  12.726   2.961
74719SOL    HW125989  12.617  12.814   2.972
74719SOL    HW225990  12.692  12.705   3.046
74720SOL     OW25991  11.700  14.475   4.340
74720SOL    HW125992  11.620  14.525   4.354
74720SOL    HW225993  11.711  14.472   4.245
74721SOL     OW25994   6.169  10.246  13.273
74721SOL    HW125995   6.076  10.224  13.270
74721SOL    HW225996   6.198  10.220  13.360
74722SOL     OW25997   9.529  12.666   9.253
74722SOL    HW125998   9.496  12.664   9.342
74722SOL    HW225999   9.510  12.579   9.218
74723SOL     OW26000   8.547  12.634   4.519
74723SOL    HW126001   8.580  12.578   4.588
74723SOL    HW226002   8.625  12.676   4.482
74724SOL     OW26003  10.085  10.554   0.269
74724SOL    HW126004  10.096  10.619   0.338
74724SOL    HW226005  10.174  10.529   0.245
74725SOL     OW26006   8.601  12.446  14.443
74725SOL    HW126007   8.690  12.428  14.472
74725SOL    HW226008   8.588  12.540  14.459
74726SOL     OW26009   2.631   2.472  10.545
74726SOL    HW126010   2.654   2.531  10.473
74726SOL    HW226011   2.577   2.404  10.504
74727SOL     OW26012   9.262  11.370   9.128
74727SOL    HW126013   9.177  11.345   9.164
74727SOL    HW226014   9.312  11.289   9.124
74728SOL     OW26015   5.393   0.786   1.453
74728SOL    HW126016   5.366   0.731   1.527
74728SOL    HW226017   5.485   0.805   1.469
74729SOL     OW26018  12.996   8.036  12.947
74729SOL    HW126019  12.977   8.029  13.041
74729SOL    HW226020  13.086   8.006  12.939
74730SOL     OW26021  14.040   8.813  12.498
74730SOL    HW126022  14.048   8.830  12.592
74730SOL    HW226023  13.992   8.731  12.493
74731SOL     OW26024   1.032   2.796  13.315
74731SOL    HW126025   1.079   2.724  13.274
74731SOL    HW226026   0.943   2.790  13.279
74732SOL     OW26027  11.416   8.026  13.548
74732SOL    HW126028  11.495   8.037  13.602
74732SOL    HW226029  11.365   7.960  13.595
74733SOL     OW26030  12.400   5.378   7.802
74733SOL    HW126031  12.437   5.438   7.738
74733SOL    HW226032  12.307   5.375   7.781
74734SOL     OW26033   5.930  12.339   3.484
74734SOL    HW126034   5.956  12.261   3.533
74734SOL    HW226035   5.899  12.305   3.400
74735SOL     OW26036   9.816   7.094  12.794
74735SOL    HW126037   9.773   7.155  12.734
74735SOL    HW226038   9.744   7.052  12.841
74736SOL     OW26039  10.652  10.535   0.323
74736SOL    HW126040  10.656  10.444   0.294
74736SOL    HW226041  10.620  10.531   0.413
74737SOL     OW26042   1.647  13.410  12.170
74737SOL    HW126043   1.674  13.445  12.255
74737SOL    HW226044   1.729  13.400  12.121
74738SOL     OW26045  14.343  13.787   9.153
74738SOL    HW126046  14.423  13.752   9.193
74738SOL    HW226047  14.272  13.740   9.196
74739SOL     OW26048   8.062   3.481   4.780
74739SOL    HW126049   8.049   3.534   4.859
74739SOL    HW226050   8.085   3.395   4.813
74740SOL     OW26051   3.722   4.536   0.156
74740SOL    HW126052   3.709   4.475   0.083
74740SOL    HW226053   3.792   4.594   0.127
74741SOL     OW26054  11.787   5.799   6.390
74741SOL    HW126055  11.868   5.748   6.380
74741SOL    HW226056  11.724   5.737   6.427
74742SOL     OW26057  14.614   4.016   6.035
74742SOL    HW126058  14.640   4.008   6.127
74742SOL    HW226059  14.529   4.058   6.038
74743SOL     OW26060   0.056   9.892   6.708
74743SOL    HW126061   0.000   9.968   6.723
74743SOL    HW226062   0.103   9.912   6.627
74744SOL     OW26063   9.201  10.819   7.175
74744SOL    HW126064   9.217  10.784   7.088
74744SOL    HW226065   9.209  10.743   7.233
74745SOL     OW26066  12.472  10.770   2.779
74745SOL    HW126067  12.538  10.744   2.715
74745SOL    HW226068  12.409  10.821   2.728
74746SOL     OW26069   7.983  14.176  11.409
74746SOL    HW126070   7.925  14.250  11.427
74746SOL    HW226071   7.979  14.165  11.314
74747SOL     OW26072   7.077  12.243   3.503
74747SOL    HW126073   7.110  12.220   3.416
74747SOL    HW226074   7.141  12.305   3.538
74748SOL     OW26075   8.108   8.042   6.650
74748SOL    HW126076   8.167   7.994   6.591
74748SOL    HW226077   8.163   8.066   6.725
74749SOL     OW26078   8.531   0.193   7.762
74749SOL    HW126079   8.566   0.163   7.679
74749SOL    HW226080   8.440   0.217   7.743
74750SOL     OW26081   8.031   8.947   3.696
74750SOL    HW126082   8.112   8.995   3.676
74750SOL    HW226083   7.961   9.002   3.662
74751SOL     OW26084   6.780  10.456   8.449
74751SOL    HW126085   6.872  10.433   8.435
74751SOL    HW226086   6.754  10.402   8.524
74752SOL     OW26087   0.412   4.510  12.675
74752SOL    HW126088   0.362   4.452  12.733
74752SOL    HW226089   0.379   4.597  12.694
74753SOL     OW26090   1.455  11.631   7.852
74753SOL    HW126091   1.435  11.558   7.793
74753SOL    HW226092   1.370  11.673   7.868
74754SOL     OW26093   1.314   6.114   6.805
74754SOL    HW126094   1.292   6.192   6.754
74754SOL    HW226095   1.388   6.075   6.760
74755SOL     OW26096   3.504   2.785   3.678
74755SOL    HW126097   3.445   2.712   3.693
74755SOL    HW226098   3.591   2.750   3.698
74756SOL     OW26099   5.183  13.678  11.529
74756SOL    HW126100   5.214  13.727  11.605
74756SOL    HW226101   5.133  13.605  11.566
74757SOL     OW26102  13.255   1.435   4.174
74757SOL    HW126103  13.312   1.485   4.117
74757SOL    HW226104  13.290   1.449   4.262
74758SOL     OW26105   3.533   9.334   2.813
74758SOL    HW126106   3.574   9.381   2.739
74758SOL    HW226107   3.440   9.339   2.795
74759SOL     OW26108   5.414  10.482   8.879
74759SOL    HW126109   5.463  10.419   8.827
74759SOL    HW226110   5.477  10.550   8.900
74760SOL     OW26111  11.227   9.079  13.645
74760SOL    HW126112  11.273   8.997  13.629
74760SOL    HW226113  11.264   9.140  13.581
74761SOL     OW26114  14.043   7.132   5.227
74761SOL    HW126115  13.953   7.157   5.203
74761SOL    HW226116  14.039   7.038   5.243
74762SOL     OW26117   9.312   6.059   5.056
74762SOL    HW126118   9.404   6.034   5.048
74762SOL    HW226119   9.310   6.124   5.127
74763SOL     OW26120  13.967   4.208   5.399
74763SOL    HW126121  13.953   4.299   5.373
74763SOL    HW226122  14.058   4.205   5.428
74764SOL     OW26123   3.530  10.842  13.836
74764SOL    HW126124   3.467  10.905  13.869
74764SOL    HW226125   3.491  10.808  13.756
74765SOL     OW26126   4.572   3.595   2.283
74765SOL    HW126127   4.535   3.672   2.325
74765SOL    HW226128   4.660   3.586   2.321
74766SOL     OW26129   8.217   6.782  11.094
74766SOL    HW126130   8.149   6.843  11.123
74766SOL    HW226131   8.298   6.832  11.102
74767SOL     OW26132  14.189   8.637   3.075
74767SOL    HW126133  14.248   8.562   3.080
74767SOL    HW226134  14.239   8.705   3.030
74768SOL     OW26135  14.469  14.306  12.033
74768SOL    HW126136  14.459  14.277  11.942
74768SOL    HW226137  14.540  14.371  12.030
74769SOL     OW26138   6.612   8.738   2.498
74769SOL    HW126139   6.616   8.643   2.506
74769SOL    HW226140   6.525   8.756   2.461
74770SOL     OW26141   4.407   7.192  12.031
74770SOL    HW126142   4.459   7.164  12.107
74770SOL    HW226143   4.317   7.169  12.053
74771SOL     OW26144   2.706  13.527   9.699
74771SOL    HW126145   2.623  13.496   9.734
74771SOL    HW226146   2.681  13.591   9.632
74772SOL     OW26147   9.574   0.979   4.188
74772SOL    HW126148   9.587   0.906   4.250
74772SOL    HW226149   9.512   0.945   4.124
74773SOL     OW26150   2.504   4.267   6.145
74773SOL    HW126151   2.431   4.210   6.165
74773SOL    HW226152   2.523   4.251   6.053
74774SOL     OW26153   4.413   3.553   5.230
74774SOL    HW126154   4.446   3.642   5.217
74774SOL    HW226155   4.486   3.496   5.205
74775SOL     OW26156   0.850   8.383   0.764
74775SOL    HW126157   0.821   8.291   0.769
74775SOL    HW226158   0.771   8.434   0.781
74776SOL     OW26159   7.829   7.175  14.124
74776SOL    HW126160   7.825   7.135  14.211
74776SOL    HW226161   7.762   7.243  14.125
74777SOL     OW26162   2.868   9.197  13.581
74777SOL    HW126163   2.952   9.241  13.572
74777SOL    HW226164   2.887   9.105  13.564
74778SOL     OW26165  10.505   6.564   7.490
74778SOL    HW126166  10.598   6.543   7.483
74778SOL    HW226167  10.480   6.591   7.402
74779SOL     OW26168   8.403  11.055   7.725
74779SOL    HW126169   8.381  10.988   7.789
74779SOL    HW226170   8.363  11.135   7.759
74780SOL     OW26171   8.484  11.787   9.438
74780SOL    HW126172   8.441  11.775   9.354
74780SOL    HW226173   8.468  11.705   9.485
74781SOL     OW26174   8.903   7.022   9.806
74781SOL    HW126175   8.950   7.103   9.789
74781SOL    HW226176   8.876   7.028   9.897
74782SOL     OW26177   3.577   8.473   1.260
74782SOL    HW126178   3.665   8.500   1.285
74782SOL    HW226179   3.528   8.555   1.253
74783SOL     OW26180   8.232  13.571   7.110
74783SOL    HW126181   8.268  13.518   7.181
74783SOL    HW226182   8.291  13.646   7.104
74784SOL     OW26183   7.187   8.222   1.882
74784SOL    HW126184   7.275   8.189   1.898
74784SOL    HW226185   7.191   8.315   1.905
74785SOL     OW26186   8.539   6.579   6.214
74785SOL    HW126187   8.444   6.573   6.210
74785SOL    HW226188   8.559   6.588   6.307
74786SOL     OW26189   0.647   3.289   9.243
74786SOL    HW126190   0.669   3.230   9.316
74786SOL    HW226191   0.599   3.361   9.283
74787SOL     OW26192   7.009   8.479   5.181
74787SOL    HW126193   6.976   8.557   5.226
74787SOL    HW226194   7.080   8.511   5.125
74788SOL     OW26195   6.990   2.256   3.860
74788SOL    HW126196   7.030   2.226   3.942
74788SOL    HW226197   7.005   2.350   3.860
74789SOL     OW26198   7.302  13.185  11.028
74789SOL    HW126199   7.365  13.255  11.049
74789SOL    HW226200   7.357  13.112  11.001
74790SOL     OW26201   2.696   8.494  10.795
74790SOL    HW126202   2.655   8.408  10.804
74790SOL    HW226203   2.776   8.488  10.847
74791SOL     OW26204   1.634   0.491   9.915
74791SOL    HW126205   1.555   0.541   9.893
74791SOL    HW226206   1.694   0.556   9.952
74792SOL     OW26207  12.889   9.410   9.880
74792SOL    HW126208  12.903   9.505   9.872
74792SOL    HW226209  12.935   9.373   9.804
74793SOL     OW26210   7.380   6.440  13.522
74793SOL    HW126211   7.360   6.528  13.555
74793SOL    HW226212   7.310   6.385  13.558
74794SOL     OW26213  10.439   6.506  11.290
74794SOL    HW126214  10.445   6.564  11.366
74794SOL    HW226215  10.514   6.531  11.236
74795SOL     OW26216   7.791  11.697   7.859
74795SOL    HW126217   7.871  11.734   7.896
74795SOL    HW226218   7.725  11.711   7.926
74796SOL     OW26219   4.988   1.642   6.476
74796SOL    HW126220   4.903   1.676   6.506
74796SOL    HW226221   4.992   1.666   6.384
74797SOL     OW26222  14.150   4.858   5.187
74797SOL    HW126223  14.173   4.917   5.260
74797SOL    HW226224  14.055   4.867   5.178
74798SOL     OW26225   4.261  10.626   8.548
74798SOL    HW126226   4.293  10.565   8.482
74798SOL    HW226227   4.169  10.641   8.524
74799SOL     OW26228   3.769   2.794   3.781
74799SOL    HW126229   3.840   2.757   3.728
74799SOL    HW226230   3.805   2.802   3.869
74800SOL     OW26231   1.440   9.383   5.362
74800SOL    HW126232   1.535   9.391   5.356
74800SOL    HW226233   1.425   9.291   5.385
74801SOL     OW26234   3.163   6.655   2.389
74801SOL    HW126235   3.196   6.673   2.477
74801SOL    HW226236   3.221   6.704   2.331
74802SOL     OW26237   7.139   9.765  10.292
74802SOL    HW126238   7.112   9.708  10.219
74802SOL    HW226239   7.227   9.793  10.269
74803SOL     OW26240  13.067  10.487   8.572
74803SOL    HW126241  13.090  10.580   8.580
74803SOL    HW226242  13.148  10.444   8.545
74804SOL     OW26243  11.395   1.289   7.999
74804SOL    HW126244  11.361   1.201   8.007
74804SOL    HW226245  11.479   1.279   7.954
74805SOL     OW26246   1.720   4.527  14.303
74805SOL    HW126247   1.759   4.564  14.224
74805SOL    HW226248   1.789   4.473  14.341
74806SOL     OW26249   0.634  14.730  13.141
74806SOL    HW126250   0.674  14.696  13.221
74806SOL    HW226251   0.588  14.655  13.103
74807SOL     OW26252  13.987  13.520   1.221
74807SOL    HW126253  14.074  13.550   1.249
74807SOL    HW226254  13.979  13.433   1.260
74808SOL     OW26255  11.160   9.640   9.766
74808SOL    HW126256  11.152   9.733   9.785
74808SOL    HW226257  11.087   9.600   9.814
74809SOL     OW26258  13.420   6.384   9.847
74809SOL    HW126259  13.430   6.341   9.763
74809SOL    HW226260  13.400   6.313   9.908
74810SOL     OW26261   2.261   6.325   1.665
74810SOL    HW126262   2.210   6.400   1.697
74810SOL    HW226263   2.339   6.365   1.627
74811SOL     OW26264   8.220   9.944   4.794
74811SOL    HW126265   8.269  10.024   4.809
74811SOL    HW226266   8.145   9.971   4.742
74812SOL     OW26267   6.776   4.956   7.186
74812SOL    HW126268   6.861   4.993   7.210
74812SOL    HW226269   6.768   4.879   7.242
74813SOL     OW26270   0.245  12.263  10.520
74813SOL    HW126271   0.302  12.249  10.596
74813SOL    HW226272   0.160  12.229  10.548
74814SOL     OW26273   7.331   5.644   5.814
74814SOL    HW126274   7.393   5.593   5.866
74814SOL    HW226275   7.378   5.664   5.733
74815SOL     OW26276  11.894   2.901   4.436
74815SOL    HW126277  11.952   2.929   4.365
74815SOL    HW226278  11.895   2.806   4.432
74816SOL     OW26279   9.646   1.986   8.280
74816SOL    HW126280   9.640   2.078   8.305
74816SOL    HW226281   9.555   1.957   8.272
74817SOL     OW26282   5.834   6.851   3.032
74817SOL    HW126283   5.803   6.835   2.943
74817SOL    HW226284   5.899   6.921   3.023
74818SOL     OW26285   1.808   9.444   4.300
74818SOL    HW126286   1.812   9.540   4.304
74818SOL    HW226287   1.817   9.416   4.391
74819SOL     OW26288   8.199  11.369   2.323
74819SOL    HW126289   8.135  11.373   2.253
74819SOL    HW226290   8.282  11.349   2.279
74820SOL     OW26291  12.465  14.639   9.138
74820SOL    HW126292  12.539  14.618   9.081
74820SOL    HW226293  12.492  14.720   9.182
74821SOL     OW26294   4.075   3.921   6.446
74821SOL    HW126295   4.019   3.945   6.520
74821SOL    HW226296   4.134   3.854   6.481
74822SOL     OW26297  10.021  11.679  10.669
74822SOL    HW126298   9.993  11.674  10.578
74822SOL    HW226299   9.971  11.610  10.713
74823SOL     OW26300  14.554  14.489  10.682
74823SOL    HW126301  14.494  14.414  10.683
74823SOL    HW226302  14.543  14.529  10.768
74824SOL     OW26303   5.841   5.982   7.162
74824SOL    HW126304   5.838   5.920   7.235
74824SOL    HW226305   5.926   6.026   7.171
74825SOL     OW26306  10.053  10.141   2.433
74825SOL    HW126307  10.104  10.077   2.482
74825SOL    HW226308  10.060  10.222   2.484
74826SOL     OW26309  11.243   1.220  12.708
74826SOL    HW126310  11.277   1.134  12.683
74826SOL    HW226311  11.179   1.241  12.640
74827SOL     OW26312   7.885  13.059   1.834
74827SOL    HW126313   7.966  13.042   1.786
74827SOL    HW226314   7.816  13.051   1.769
74828SOL     OW26315   5.790   4.259   2.417
74828SOL    HW126316   5.845   4.337   2.429
74828SOL    HW226317   5.722   4.266   2.484
74829SOL     OW26318  11.539  10.660   5.896
74829SOL    HW126319  11.488  10.619   5.826
74829SOL    HW226320  11.485  10.651   5.974
74830SOL     OW26321  13.225  10.265   0.035
74830SOL    HW126322  13.263  10.196   0.090
74830SOL    HW226323  13.204  10.335   0.096
74831SOL     OW26324  10.564   7.190   3.046
74831SOL    HW126325  10.631   7.217   2.983
74831SOL    HW226326  10.612   7.136   3.109
74832SOL     OW26327   5.604  14.165   4.234
74832SOL    HW126328   5.665  14.234   4.258
74832SOL    HW226329   5.518  14.200   4.257
74833SOL     OW26330   5.859  12.750  12.004
74833SOL    HW126331   5.849  12.660  11.975
74833SOL    HW226332   5.953  12.765  12.005
74834SOL     OW26333  13.425   2.804  12.258
74834SOL    HW126334  13.395   2.725  12.303
74834SOL    HW226335  13.348   2.861  12.255
74835SOL     OW26336  14.127   6.623   1.292
74835SOL    HW126337  14.157   6.706   1.327
74835SOL    HW226338  14.041   6.641   1.255
74836SOL     OW26339   2.820  11.390   4.803
74836SOL    HW126340   2.868  11.316   4.840
74836SOL    HW226341   2.782  11.355   4.722
74837SOL     OW26342  10.941   1.673  10.953
74837SOL    HW126343  10.947   1.599  10.893
74837SOL    HW226344  10.883   1.643  11.023
74838SOL     OW26345  12.432   7.973   5.890
74838SOL    HW126346  12.387   7.975   5.805
74838SOL    HW226347  12.458   8.064   5.905
74839SOL     OW26348   1.423   7.425   8.290
74839SOL    HW126349   1.471   7.440   8.209
74839SOL    HW226350   1.390   7.335   8.283
74840SOL     OW26351   3.933   6.131   0.657
74840SOL    HW126352   3.908   6.202   0.715
74840SOL    HW226353   3.966   6.174   0.578
74841SOL     OW26354  12.967  12.285  11.478
74841SOL    HW126355  12.894  12.295  11.417
74841SOL    HW226356  13.013  12.207  11.448
74842SOL     OW26357   3.133  12.059   3.539
74842SOL    HW126358   3.123  12.063   3.444
74842SOL    HW226359   3.054  12.014   3.569
74843SOL     OW26360  13.550   2.281   8.339
74843SOL    HW126361  13.455   2.282   8.352
74843SOL    HW226362  13.570   2.189   8.321
74844SOL     OW26363   3.286  13.371   7.105
74844SOL    HW126364   3.288  13.320   7.024
74844SOL    HW226365   3.345  13.324   7.164
74845SOL     OW26366   1.299  10.969  14.774
74845SOL    HW126367   1.304  11.059  14.741
74845SOL    HW226368   1.343  10.973  14.859
74846SOL     OW26369   5.393   4.472  10.783
74846SOL    HW126370   5.379   4.544  10.722
74846SOL    HW226371   5.488   4.464  10.790
74847SOL     OW26372  11.226  14.854   0.500
74847SOL    HW126373  11.211  14.842   0.406
74847SOL    HW226374  11.320  14.839   0.511
74848SOL     OW26375   4.718  14.241   9.708
74848SOL    HW126376   4.736  14.331   9.735
74848SOL    HW226377   4.624  14.231   9.721
74849SOL     OW26378  10.161   2.901  13.871
74849SOL    HW126379  10.165   2.807  13.853
74849SOL    HW226380  10.253   2.927  13.880
74850SOL     OW26381   3.739   8.510  10.267
74850SOL    HW126382   3.753   8.576  10.336
74850SOL    HW226383   3.683   8.444  10.308
74851SOL     OW26384  10.726   8.075   3.077
74851SOL    HW126385  10.787   8.014   3.119
74851SOL    HW226386  10.645   8.026   3.069
74852SOL     OW26387  14.189   1.278   5.475
74852SOL    HW126388  14.126   1.209   5.454
74852SOL    HW226389  14.158   1.313   5.558
74853SOL     OW26390   9.030   9.591  12.498
74853SOL    HW126391   9.098   9.527  12.476
74853SOL    HW226392   8.974   9.594  12.421
74854SOL     OW26393   7.803   2.109   3.657
74854SOL    HW126394   7.758   2.029   3.686
74854SOL    HW226395   7.735   2.161   3.615
74855SOL     OW26396   8.004   5.339  11.169
74855SOL    HW126397   8.004   5.316  11.077
74855SOL    HW226398   7.983   5.432  11.171
74856SOL     OW26399   0.765   7.021  14.518
74856SOL    HW126400   0.730   7.094  14.468
74856SOL    HW226401   0.855   7.011  14.486
74857SOL     OW26402  13.160   5.955   8.007
74857SOL    HW126403  13.197   6.015   7.943
74857SOL    HW226404  13.162   5.869   7.964
74858SOL     OW26405   5.322   6.780  11.181
74858SOL    HW126406   5.358   6.843  11.243
74858SOL    HW226407   5.352   6.811  11.096
74859SOL     OW26408   5.578   4.782  12.175
74859SOL    HW126409   5.522   4.858  12.188
74859SOL    HW226410   5.612   4.792  12.086
74860SOL     OW26411  13.012   7.701   1.791
74860SOL    HW126412  13.095   7.714   1.746
74860SOL    HW226413  12.946   7.733   1.729
74861SOL     OW26414   3.890   9.291  12.750
74861SOL    HW126415   3.820   9.257  12.804
74861SOL    HW226416   3.921   9.216  12.699
74862SOL     OW26417  10.396   2.432   8.659
74862SOL    HW126418  10.440   2.366   8.712
74862SOL    HW226419  10.439   2.514   8.684
74863SOL     OW26420   5.679   2.248  12.842
74863SOL    HW126421   5.661   2.272  12.933
74863SOL    HW226422   5.743   2.312  12.812
74864SOL     OW26423   7.923   9.924   3.180
74864SOL    HW126424   7.845   9.876   3.209
74864SOL    HW226425   7.996   9.872   3.213
74865SOL     OW26426  13.438  14.632   7.503
74865SOL    HW126427  13.354  14.587   7.495
74865SOL    HW226428  13.490  14.575   7.559
74866SOL     OW26429   4.122   7.412  12.213
74866SOL    HW126430   4.075   7.376  12.138
74866SOL    HW226431   4.214   7.409  12.187
74867SOL     OW26432   1.107   2.199   3.062
74867SOL    HW126433   1.022   2.224   3.099
74867SOL    HW226434   1.111   2.244   2.978
74868SOL     OW26435  13.835   3.161  14.424
74868SOL    HW126436  13.760   3.128  14.474
74868SOL    HW226437  13.886   3.083  14.403
74869SOL     OW26438   8.149   3.484   5.197
74869SOL    HW126439   8.234   3.496   5.240
74869SOL    HW226440   8.087   3.470   5.269
74870SOL     OW26441   0.975  11.337   3.524
74870SOL    HW126442   0.987  11.427   3.493
74870SOL    HW226443   0.952  11.288   3.444
74871SOL     OW26444  11.802   2.808  11.038
74871SOL    HW126445  11.821   2.832  10.948
74871SOL    HW226446  11.847   2.724  11.050
74872SOL     OW26447   9.834   0.243   9.271
74872SOL    HW126448   9.888   0.292   9.209
74872SOL    HW226449   9.829   0.155   9.234
74873SOL     OW26450  11.426  13.703  14.110
74873SOL    HW126451  11.500  13.643  14.100
74873SOL    HW226452  11.349  13.646  14.116
74874SOL     OW26453  10.868   8.501   1.300
74874SOL    HW126454  10.939   8.437   1.296
74874SOL    HW226455  10.816   8.484   1.222
74875SOL     OW26456  13.023   5.779  11.069
74875SOL    HW126457  12.977   5.698  11.049
74875SOL    HW226458  13.072   5.799  10.989
74876SOL     OW26459   7.756   6.052  10.640
74876SOL    HW126460   7.826   6.100  10.684
74876SOL    HW226461   7.775   6.062  10.547
74877SOL     OW26462   1.342   8.551  10.822
74877SOL    HW126463   1.290   8.512  10.752
74877SOL    HW226464   1.415   8.490  10.834
74878SOL     OW26465   8.188  10.781   5.497
74878SOL    HW126466   8.094  10.796   5.491
74878SOL    HW226467   8.219  10.786   5.407
74879SOL     OW26468   0.601   8.386  11.271
74879SOL    HW126469   0.596   8.296  11.238
74879SOL    HW226470   0.510   8.414  11.276
74880SOL     OW26471   3.586   4.925  10.117
74880SOL    HW126472   3.660   4.871  10.088
74880SOL    HW226473   3.626   5.008  10.143
74881SOL     OW26474   7.613  11.266   6.594
74881SOL    HW126475   7.667  11.284   6.672
74881SOL    HW226476   7.610  11.349   6.548
74882SOL     OW26477   9.152   6.684   0.603
74882SOL    HW126478   9.160   6.771   0.563
74882SOL    HW226479   9.227   6.678   0.662
74883SOL     OW26480   2.564  12.504   5.639
74883SOL    HW126481   2.497  12.544   5.583
74883SOL    HW226482   2.627  12.467   5.577
74884SOL     OW26483   3.875   0.236   3.651
74884SOL    HW126484   3.898   0.257   3.742
74884SOL    HW226485   3.782   0.216   3.654
74885SOL     OW26486  11.152   0.518  11.898
74885SOL    HW126487  11.063   0.497  11.929
74885SOL    HW226488  11.159   0.473  11.814
74886SOL     OW26489  12.664   0.206   9.524
74886SOL    HW126490  12.705   0.123   9.551
74886SOL    HW226491  12.642   0.250   9.606
74887SOL     OW26492   8.887   9.789  13.748
74887SOL    HW126493   8.925   9.704  13.725
74887SOL    HW226494   8.922   9.809  13.835
74888SOL     OW26495   7.402  10.848   3.715
74888SOL    HW126496   7.465  10.862   3.644
74888SOL    HW226497   7.417  10.758   3.743
74889SOL     OW26498   6.919  12.166  14.650
74889SOL    HW126499   6.974  12.222  14.705
74889SOL    HW226500   6.955  12.176  14.562
74890SOL     OW26501   9.634   3.133   2.598
74890SOL    HW126502   9.630   3.146   2.693
74890SOL    HW226503   9.674   3.213   2.564
74891SOL     OW26504   1.187   7.674   2.318
74891SOL    HW126505   1.216   7.638   2.401
74891SOL    HW226506   1.260   7.729   2.288
74892SOL     OW26507   3.224   9.977   8.434
74892SOL    HW126508   3.285   9.916   8.393
74892SOL    HW226509   3.245  10.062   8.397
74893SOL     OW26510  10.067   8.684   1.237
74893SOL    HW126511  10.100   8.647   1.319
74893SOL    HW226512   9.980   8.717   1.259
74894SOL     OW26513   7.871   3.613  10.237
74894SOL    HW126514   7.945   3.576  10.285
74894SOL    HW226515   7.859   3.554  10.162
74895SOL     OW26516   6.219   5.688   0.895
74895SOL    HW126517   6.261   5.638   0.825
74895SOL    HW226518   6.147   5.633   0.924
74896SOL     OW26519   8.433   3.214   4.788
74896SOL    HW126520   8.443   3.287   4.848
74896SOL    HW226521   8.494   3.147   4.820
74897SOL     OW26522   1.919   6.765   0.134
74897SOL    HW126523   1.878   6.688   0.095
74897SOL    HW226524   1.956   6.813   0.061
74898SOL     OW26525   5.229   6.239  10.213
74898SOL    HW126526   5.300   6.221  10.151
74898SOL    HW226527   5.251   6.186  10.290
74899SOL     OW26528   4.519   9.047  10.146
74899SOL    HW126529   4.558   9.123  10.101
74899SOL    HW226530   4.438   9.082  10.185
74900SOL     OW26531   5.660   4.251  14.786
74900SOL    HW126532   5.689   4.220  14.700
74900SOL    HW226533   5.697   4.189  14.848
74901SOL     OW26534  14.374   5.407  13.136
74901SOL    HW126535  14.359   5.324  13.181
74901SOL    HW226536  14.355   5.474  13.201
74902SOL     OW26537  12.204   3.758   2.713
74902SOL    HW126538  12.186   3.837   2.662
74902SOL    HW226539  12.122   3.739   2.759
74903SOL     OW26540  10.429   7.334  12.089
74903SOL    HW126541  10.522   7.339  12.067
74903SOL    HW226542  10.394   7.420  12.065
74904SOL     OW26543   1.932   8.543   9.349
74904SOL    HW126544   1.880   8.463   9.340
74904SOL    HW226545   2.002   8.518   9.410
74905SOL     OW26546  11.979  12.977  10.848
74905SOL    HW126547  11.964  12.913  10.779
74905SOL    HW226548  11.932  13.055  10.819
74906SOL     OW26549   7.421   2.007   6.511
74906SOL    HW126550   7.333   2.007   6.473
74906SOL    HW226551   7.418   1.939   6.578
74907SOL     OW26552   8.214   1.653  11.808
74907SOL    HW126553   8.251   1.634  11.721
74907SOL    HW226554   8.257   1.735  11.834
74908SOL     OW26555  13.735  11.833   8.063
74908SOL    HW126556  13.657  11.850   8.115
74908SOL    HW226557  13.808  11.848   8.123
74909SOL     OW26558  13.947  13.127   3.409
74909SOL    HW126559  13.861  13.164   3.429
74909SOL    HW226560  14.006  13.168   3.472
74910SOL     OW26561  11.102   4.335   7.111
74910SOL    HW126562  11.189   4.307   7.138
74910SOL    HW226563  11.042   4.287   7.168
74911SOL     OW26564  12.384   9.889   4.116
74911SOL    HW126565  12.327   9.934   4.055
74911SOL    HW226566  12.467   9.937   4.112
74912SOL     OW26567   7.864   5.517   7.761
74912SOL    HW126568   7.894   5.442   7.710
74912SOL    HW226569   7.904   5.593   7.719
74913SOL     OW26570   5.099   5.411  13.695
74913SOL    HW126571   5.122   5.407  13.788
74913SOL    HW226572   5.116   5.323  13.662
74914SOL     OW26573  14.027  11.560   0.075
74914SOL    HW126574  14.055  11.618   0.145
74914SOL    HW226575  14.010  11.618   0.000
74915SOL     OW26576   6.990  11.384   4.105
74915SOL    HW126577   6.969  11.477   4.108
74915SOL    HW226578   7.054  11.375   4.034
74916SOL     OW26579   0.056   9.710  14.537
74916SOL    HW126580   0.063   9.615  14.537
74916SOL    HW226581  14.869   9.730  14.465
74917SOL     OW26582   1.222  13.288  13.261
74917SOL    HW126583   1.284  13.269  13.331
74917SOL    HW226584   1.151  13.225  13.275
74918SOL     OW26585  13.642  12.615   1.142
74918SOL    HW126586  13.579  12.544   1.131
74918SOL    HW226587  13.705  12.603   1.071
74919SOL     OW26588  10.947  12.511   3.985
74919SOL    HW126589  10.980  12.433   4.031
74919SOL    HW226590  10.896  12.476   3.912
74920SOL     OW26591   6.766  10.358   7.413
74920SOL    HW126592   6.775  10.351   7.508
74920SOL    HW226593   6.852  10.387   7.382
74921SOL     OW26594   9.551  13.690  12.484
74921SOL    HW126595   9.632  13.646  12.458
74921SOL    HW226596   9.565  13.782  12.462
74922SOL     OW26597  11.468   1.462  12.311
74922SOL    HW126598  11.377   1.472  12.339
74922SOL    HW226599  11.509   1.546  12.332
74923SOL     OW26600  14.558   6.915  12.030
74923SOL    HW126601  14.510   6.876  12.103
74923SOL    HW226602  14.497   6.978  11.991
74924SOL     OW26603  14.357   4.752   7.067
74924SOL    HW126604  14.438   4.720   7.028
74924SOL    HW226605  14.288   4.716   7.011
74925SOL     OW26606   0.550   8.176   8.010
74925SOL    HW126607   0.605   8.107   7.971
74925SOL    HW226608   0.591   8.194   8.094
74926SOL     OW26609   5.436   2.782   0.442
74926SOL    HW126610   5.411   2.868   0.476
74926SOL    HW226611   5.486   2.743   0.514
74927SOL     OW26612  10.940  13.170  14.464
74927SOL    HW126613  10.925  13.205  14.552
74927SOL    HW226614  10.856  13.182  14.418
74928SOL     OW26615  10.568  11.069   6.731
74928SOL    HW126616  10.588  11.155   6.769
74928SOL    HW226617  10.480  11.079   6.696
74929SOL     OW26618   6.512  11.407  11.723
74929SOL    HW126619   6.435  11.450  11.762
74929SOL    HW226620   6.476  11.357  11.650
74930SOL     OW26621  14.653  12.768   4.622
74930SOL    HW126622  14.628  12.681   4.592
74930SOL    HW226623  14.582  12.825   4.593
74931SOL     OW26624   6.780   1.799   1.923
74931SOL    HW126625   6.753   1.869   1.864
74931SOL    HW226626   6.806   1.844   2.004
74932SOL     OW26627  10.950  13.740  13.619
74932SOL    HW126628  10.999  13.778  13.546
74932SOL    HW226629  11.004  13.758  13.696
74933SOL     OW26630   4.991   4.236  11.246
74933SOL    HW126631   4.954   4.159  11.204
74933SOL    HW226632   5.077   4.209  11.276
74934SOL     OW26633  14.217  13.421  12.152
74934SOL    HW126634  14.129  13.397  12.182
74934SOL    HW226635  14.248  13.343  12.105
74935SOL     OW26636   4.739   9.208   1.978
74935SOL    HW126637   4.658   9.189   1.929
74935SOL    HW226638   4.709   9.226   2.067
74936SOL     OW26639   2.681   0.174   9.899
74936SOL    HW126640   2.591   0.143   9.896
74936SOL    HW226641   2.685   0.229   9.978
74937SOL     OW26642   5.740   5.501   6.149
74937SOL    HW126643   5.755   5.408   6.163
74937SOL    HW226644   5.796   5.545   6.213
74938SOL     OW26645   2.941   1.735   0.334
74938SOL    HW126646   2.895   1.685   0.401
74938SOL    HW226647   2.903   1.704   0.251
74939SOL     OW26648   3.233   6.221   2.486
74939SOL    HW126649   3.202   6.282   2.419
74939SOL    HW226650   3.323   6.201   2.460
74940SOL     OW26651   1.417  14.843   1.810
74940SOL    HW126652   1.434   0.061   1.835
74940SOL    HW226653   1.383  14.849   1.720
74941SOL     OW26654  10.510  14.487   8.686
74941SOL    HW126655  10.563  14.551   8.733
74941SOL    HW226656  10.551  14.403   8.706
74942SOL     OW26657   8.160   3.831  10.172
74942SOL    HW126658   8.219   3.797  10.105
74942SOL    HW226659   8.109   3.754  10.199
74943SOL     OW26660   8.053  14.302  12.107
74943SOL    HW126661   8.094  14.364  12.047
74943SOL    HW226662   8.124  14.243  12.133
74944SOL     OW26663  12.211   8.547   0.746
74944SOL    HW126664  12.201   8.593   0.829
74944SOL    HW226665  12.152   8.593   0.686
74945SOL     OW26666  13.979   3.510  13.599
74945SOL    HW126667  13.970   3.423  13.561
74945SOL    HW226668  13.889   3.542  13.606
74946SOL     OW26669  10.717   9.721   5.365
74946SOL    HW126670  10.687   9.649   5.420
74946SOL    HW226671  10.757   9.783   5.426
74947SOL     OW26672  14.462   5.554  12.006
74947SOL    HW126673  14.388   5.593  11.959
74947SOL    HW226674  14.451   5.583  12.096
74948SOL     OW26675   3.267   6.802   9.389
74948SOL    HW126676   3.269   6.897   9.376
74948SOL    HW226677   3.292   6.790   9.481
74949SOL     OW26678   7.814  10.167  14.162
74949SOL    HW126679   7.764  10.124  14.094
74949SOL    HW226680   7.892  10.113  14.173
74950SOL     OW26681   5.613   1.694  11.277
74950SOL    HW126682   5.526   1.696  11.317
74950SOL    HW226683   5.636   1.601  11.275
74951SOL     OW26684  13.825  12.435  11.562
74951SOL    HW126685  13.919  12.442  11.579
74951SOL    HW226686  13.807  12.501  11.495
74952SOL     OW26687   8.407  13.456   6.583
74952SOL    HW126688   8.474  13.407   6.631
74952SOL    HW226689   8.363  13.390   6.529
74953SOL     OW26690   1.582   2.470   1.466
74953SOL    HW126691   1.544   2.471   1.553
74953SOL    HW226692   1.576   2.379   1.438
74954SOL     OW26693   8.905   5.567   3.390
74954SOL    HW126694   8.947   5.568   3.304
74954SOL    HW226695   8.903   5.658   3.417
74955SOL     OW26696   7.093   4.634  12.913
74955SOL    HW126697   7.114   4.550  12.954
74955SOL    HW226698   7.086   4.695  12.986
74956SOL     OW26699   1.651  12.777   8.603
74956SOL    HW126700   1.666  12.716   8.675
74956SOL    HW226701   1.701  12.855   8.627
74957SOL     OW26702   5.037   0.884   3.674
74957SOL    HW126703   4.994   0.927   3.600
74957SOL    HW226704   5.079   0.955   3.722
74958SOL     OW26705  11.084   4.009   3.741
74958SOL    HW126706  11.131   4.006   3.824
74958SOL    HW226707  11.024   4.083   3.750
74959SOL     OW26708   5.359   1.503  12.619
74959SOL    HW126709   5.282   1.501  12.677
74959SOL    HW226710   5.424   1.555  12.666
74960SOL     OW26711   6.735   8.566  13.360
74960SOL    HW126712   6.804   8.555  13.425
74960SOL    HW226713   6.777   8.544  13.277
74961SOL     OW26714   3.717   8.671   8.957
74961SOL    HW126715   3.652   8.711   9.016
74961SOL    HW226716   3.703   8.577   8.966
74962SOL     OW26717   0.020  10.131   7.433
74962SOL    HW126718   0.008  10.061   7.369
74962SOL    HW226719   0.114  10.133   7.450
74963SOL     OW26720  12.339   0.423   0.970
74963SOL    HW126721  12.370   0.448   0.883
74963SOL    HW226722  12.382   0.340   0.988
74964SOL     OW26723   6.410   8.054   1.808
74964SOL    HW126724   6.319   8.036   1.834
74964SOL    HW226725   6.403   8.101   1.725
74965SOL     OW26726  14.137   7.611   8.725
74965SOL    HW126727  14.136   7.531   8.673
74965SOL    HW226728  14.094   7.676   8.670
74966SOL     OW26729  11.573  14.049   3.412
74966SOL    HW126730  11.588  14.143   3.417
74966SOL    HW226731  11.659  14.011   3.395
74967SOL     OW26732   0.010   0.617   0.506
74967SOL    HW126733  14.797   0.602   0.547
74967SOL    HW226734   0.040   0.700   0.543
74968SOL     OW26735  11.688  14.720   1.244
74968SOL    HW126736  11.620  14.759   1.299
74968SOL    HW226737  11.741  14.794   1.215
74969SOL     OW26738  11.471   9.724  13.969
74969SOL    HW126739  11.497   9.805  14.013
74969SOL    HW226740  11.548   9.699  13.918
74970SOL     OW26741  13.656   2.707   8.956
74970SOL    HW126742  13.577   2.658   8.979
74970SOL    HW226743  13.631   2.761   8.882
74971SOL     OW26744   1.677  11.591  10.034
74971SOL    HW126745   1.743  11.529  10.003
74971SOL    HW226746   1.717  11.632  10.111
74972SOL     OW26747   9.018  14.568   8.830
74972SOL    HW126748   8.926  14.587   8.848
74972SOL    HW226749   9.016  14.513   8.752
74973SOL     OW26750  13.045  11.268   0.012
74973SOL    HW126751  13.033  11.330   0.084
74973SOL    HW226752  13.073  11.322  14.810
74974SOL     OW26753   0.247   0.716   0.880
74974SOL    HW126754   0.165   0.696   0.925
74974SOL    HW226755   0.222   0.740   0.791
74975SOL     OW26756   2.852   4.847  12.144
74975SOL    HW126757   2.904   4.797  12.081
74975SOL    HW226758   2.884   4.819  12.230
74976SOL     OW26759   9.982   0.478  10.496
74976SOL    HW126760  10.021   0.391  10.504
74976SOL    HW226761  10.025   0.531  10.562
74977SOL     OW26762   2.462   0.996   0.753
74977SOL    HW126763   2.488   1.087   0.768
74977SOL    HW226764   2.544   0.946   0.757
74978SOL     OW26765   2.171   2.902  12.214
74978SOL    HW126766   2.099   2.840  12.223
74978SOL    HW226767   2.140   2.982  12.255
74979SOL     OW26768  13.037  12.647  14.366
74979SOL    HW126769  13.055  12.554  14.379
74979SOL    HW226770  13.014  12.679  14.454
74980SOL     OW26771  11.235   5.418   0.143
74980SOL    HW126772  11.157   5.451   0.188
74980SOL    HW226773  11.274   5.357   0.205
74981SOL     OW26774  12.235   3.154   9.642
74981SOL    HW126775  12.275   3.238   9.664
74981SOL    HW226776  12.141   3.168   9.653
74982SOL     OW26777   6.279  11.539   5.174
74982SOL    HW126778   6.328  11.561   5.253
74982SOL    HW226779   6.341  11.553   5.103
74983SOL     OW26780   0.655   3.888   9.554
74983SOL    HW126781   0.627   3.932   9.635
74983SOL    HW226782   0.687   3.959   9.499
74984SOL     OW26783   1.942   7.518   9.791
74984SOL    HW126784   1.888   7.583   9.836
74984SOL    HW226785   1.880   7.459   9.749
74985SOL     OW26786  14.820  12.997   9.897
74985SOL    HW126787   0.036  13.029   9.881
74985SOL    HW226788  14.815  12.914   9.850
74986SOL     OW26789   7.290   8.503   1.066
74986SOL    HW126790   7.380   8.531   1.051
74986SOL    HW226791   7.251   8.497   0.979
74987SOL     OW26792  12.067   1.604  13.911
74987SOL    HW126793  12.100   1.583  13.998
74987SOL    HW226794  12.010   1.679  13.925
74988SOL     OW26795   2.001   0.290   2.349
74988SOL    HW126796   1.910   0.320   2.357
74988SOL    HW226797   2.027   0.271   2.439
74989SOL     OW26798   6.780   2.161   7.156
74989SOL    HW126799   6.748   2.074   7.176
74989SOL    HW226800   6.707   2.219   7.176
74990SOL     OW26801   8.429  13.862  10.849
74990SOL    HW126802   8.396  13.898  10.766
74990SOL    HW226803   8.352  13.855  10.905
74991SOL     OW26804   5.486  14.504   3.350
74991SOL    HW126805   5.525  14.591   3.347
74991SOL    HW226806   5.492  14.477   3.442
74992SOL     OW26807   7.422  13.497  10.470
74992SOL    HW126808   7.409  13.435  10.542
74992SOL    HW226809   7.337  13.539  10.458
74993SOL     OW26810   0.636   1.553   3.832
74993SOL    HW126811   0.726   1.525   3.845
74993SOL    HW226812   0.603   1.497   3.762
74994SOL     OW26813   5.097   1.323   4.220
74994SOL    HW126814   5.121   1.242   4.266
74994SOL    HW226815   5.110   1.303   4.128
74995SOL     OW26816   8.523   2.528   3.065
74995SOL    HW126817   8.536   2.561   2.976
74995SOL    HW226818   8.598   2.562   3.115
74996SOL     OW26819   7.581  12.000   9.972
74996SOL    HW126820   7.576  11.906   9.992
74996SOL    HW226821   7.503  12.037  10.013
74997SOL     OW26822   5.416   7.584  13.219
74997SOL    HW126823   5.439   7.510  13.275
74997SOL    HW226824   5.321   7.591  13.225
74998SOL     OW26825   9.769  13.974  12.856
74998SOL    HW126826   9.829  14.019  12.797
74998SOL    HW226827   9.818  13.898  12.887
74999SOL     OW26828   9.298   3.774   2.944
74999SOL    HW126829   9.377   3.721   2.934
74999SOL    HW226830   9.304   3.809   3.033
75000SOL     OW26831  10.123   7.467  11.320
75000SOL    HW126832  10.104   7.474  11.413
75000SOL    HW226833  10.068   7.395  11.289
75001SOL     OW26834  12.865   4.962   1.716
75001SOL    HW126835  12.897   5.042   1.758
75001SOL    HW226836  12.938   4.900   1.723
75002SOL     OW26837   5.586   9.277  11.114
75002SOL    HW126838   5.531   9.340  11.066
75002SOL    HW226839   5.533   9.254  11.191
75003SOL     OW26840   2.371   6.157  12.756
75003SOL    HW126841   2.365   6.092  12.825
75003SOL    HW226842   2.368   6.106  12.675
75004SOL     OW26843   5.063  11.856   5.961
75004SOL    HW126844   5.039  11.782   6.017
75004SOL    HW226845   5.074  11.818   5.874
75005SOL     OW26846  13.951  12.729  10.042
75005SOL    HW126847  14.006  12.791  10.090
75005SOL    HW226848  13.894  12.691  10.108
75006SOL     OW26849   6.187  14.711   1.441
75006SOL    HW126850   6.238  14.752   1.370
75006SOL    HW226851   6.250  14.654   1.485
75007SOL     OW26852   7.025  14.054  11.804
75007SOL    HW126853   6.954  14.028  11.864
75007SOL    HW226854   7.050  14.141  11.834
75008SOL     OW26855   0.217   8.356  13.678
75008SOL    HW126856   0.181   8.416  13.613
75008SOL    HW226857   0.202   8.399  13.762
75009SOL     OW26858  13.226   3.733  12.546
75009SOL    HW126859  13.289   3.775  12.488
75009SOL    HW226860  13.254   3.641  12.549
75010SOL     OW26861   3.820   4.913   2.115
75010SOL    HW126862   3.892   4.849   2.108
75010SOL    HW226863   3.816   4.934   2.208
75011SOL     OW26864  14.587   3.114   6.455
75011SOL    HW126865  14.602   3.103   6.361
75011SOL    HW226866  14.670   3.150   6.487
75012SOL     OW26867  11.307  11.352   9.484
75012SOL    HW126868  11.256  11.285   9.439
75012SOL    HW226869  11.254  11.432   9.477
75013SOL     OW26870   6.703   8.726   0.325
75013SOL    HW126871   6.633   8.666   0.354
75013SOL    HW226872   6.772   8.668   0.294
75014SOL     OW26873   9.936   7.806   2.622
75014SOL    HW126874   9.901   7.794   2.711
75014SOL    HW226875  10.027   7.832   2.636
75015SOL     OW26876   5.741   0.123   6.263
75015SOL    HW126877   5.802   0.080   6.203
75015SOL    HW226878   5.789   0.130   6.346
75016SOL     OW26879  13.938   1.568   4.233
75016SOL    HW126880  14.030   1.554   4.256
75016SOL    HW226881  13.930   1.663   4.221
75017SOL     OW26882  13.432   4.143   7.917
75017SOL    HW126883  13.461   4.120   8.006
75017SOL    HW226884  13.337   4.135   7.920
75018SOL     OW26885   8.126   1.312  13.342
75018SOL    HW126886   8.219   1.321  13.324
75018SOL    HW226887   8.093   1.402  13.347
75019SOL     OW26888   1.524  14.854  10.048
75019SOL    HW126889   1.455   0.047  10.040
75019SOL    HW226890   1.529  14.835  10.142
75020SOL     OW26891  12.319  13.208  12.544
75020SOL    HW126892  12.378  13.261  12.598
75020SOL    HW226893  12.251  13.179  12.603
75021SOL     OW26894   0.324   9.946   8.383
75021SOL    HW126895   0.245   9.902   8.412
75021SOL    HW226896   0.372   9.880   8.333
75022SOL     OW26897  13.120   2.470  10.625
75022SOL    HW126898  13.193   2.410  10.613
75022SOL    HW226899  13.120   2.525  10.547
75023SOL     OW26900   2.402  13.963   9.361
75023SOL    HW126901   2.387  13.930   9.273
75023SOL    HW226902   2.493  13.939   9.380
75024SOL     OW26903   6.606   2.106   5.877
75024SOL    HW126904   6.680   2.150   5.919
75024SOL    HW226905   6.639   2.081   5.791
75025SOL     OW26906   1.110   5.520  13.549
75025SOL    HW126907   1.199   5.542  13.522
75025SOL    HW226908   1.096   5.431  13.515
75026SOL     OW26909   3.758   7.458   3.872
75026SOL    HW126910   3.709   7.435   3.792
75026SOL    HW226911   3.765   7.375   3.919
75027SOL     OW26912  11.654  10.801  10.943
75027SOL    HW126913  11.616  10.735  11.001
75027SOL    HW226914  11.590  10.871  10.940
75028SOL     OW26915   3.231   9.451   0.042
75028SOL    HW126916   3.213   9.504  14.837
75028SOL    HW226917   3.315   9.483   0.075
75029SOL     OW26918  13.458  13.503   9.726
75029SOL    HW126919  13.395  13.537   9.789
75029SOL    HW226920  13.443  13.555   9.647
75030SOL     OW26921  12.413   3.310   8.523
75030SOL    HW126922  12.391   3.240   8.584
75030SOL    HW226923  12.335   3.318   8.467
75031SOL     OW26924   5.825   4.895   6.193
75031SOL    HW126925   5.828   4.885   6.098
75031SOL    HW226926   5.896   4.957   6.213
75032SOL     OW26927   6.644   1.245  10.862
75032SOL    HW126928   6.569   1.243  10.802
75032SOL    HW226929   6.616   1.192  10.937
75033SOL     OW26930  13.338   5.904   7.556
75033SOL    HW126931  13.400   5.976   7.541
75033SOL    HW226932  13.386   5.825   7.530
75034SOL     OW26933   9.857  13.764   8.942
75034SOL    HW126934   9.843  13.744   9.035
75034SOL    HW226935   9.769  13.775   8.907
75035SOL     OW26936   6.171  11.757   3.958
75035SOL    HW126937   6.257  11.797   3.951
75035SOL    HW226938   6.169  11.693   3.887
75036SOL     OW26939  12.821  13.572   1.206
75036SOL    HW126940  12.884  13.526   1.262
75036SOL    HW226941  12.823  13.524   1.124
75037SOL     OW26942   5.999   0.824   7.307
75037SOL    HW126943   5.909   0.805   7.280
75037SOL    HW226944   6.048   0.746   7.280
75038SOL     OW26945   0.724  13.703  14.042
75038SOL    HW126946   0.732  13.610  14.023
75038SOL    HW226947   0.814  13.734  14.049
75039SOL     OW26948  13.016  12.584   6.714
75039SOL    HW126949  13.068  12.512   6.677
75039SOL    HW226950  13.079  12.634   6.765
75040SOL     OW26951   4.307   6.905   8.247
75040SOL    HW126952   4.259   6.954   8.314
75040SOL    HW226953   4.378   6.863   8.294
75041SOL     OW26954  10.845   9.035   9.290
75041SOL    HW126955  10.823   9.107   9.350
75041SOL    HW226956  10.887   9.078   9.216
75042SOL     OW26957  11.015   1.498  10.767
75042SOL    HW126958  11.092   1.441  10.762
75042SOL    HW226959  10.996   1.519  10.676
75043SOL     OW26960   6.952   9.449   0.613
75043SOL    HW126961   7.006   9.370   0.610
75043SOL    HW226962   7.014   9.521   0.621
75044SOL     OW26963   9.887   7.099  10.697
75044SOL    HW126964   9.891   7.089  10.602
75044SOL    HW226965   9.938   7.179  10.714
75045SOL     OW26966   6.003  12.737   0.806
75045SOL    HW126967   5.948  12.716   0.882
75045SOL    HW226968   6.051  12.816   0.832
75046SOL     OW26969  13.890  13.111   6.727
75046SOL    HW126970  13.980  13.085   6.707
75046SOL    HW226971  13.873  13.185   6.668
75047SOL     OW26972  11.007  12.749   3.712
75047SOL    HW126973  11.075  12.713   3.769
75047SOL    HW226974  10.947  12.676   3.699
75048SOL     OW26975   7.236   8.557  14.349
75048SOL    HW126976   7.291   8.627  14.315
75048SOL    HW226977   7.218   8.501  14.273
75049SOL     OW26978   2.281  11.806   0.776
75049SOL    HW126979   2.243  11.802   0.864
75049SOL    HW226980   2.218  11.855   0.725
75050SOL     OW26981   1.382  11.126   2.582
75050SOL    HW126982   1.296  11.161   2.605
75050SOL    HW226983   1.363  11.049   2.528
75051SOL     OW26984   2.318  13.320  11.670
75051SOL    HW126985   2.375  13.246  11.651
75051SOL    HW226986   2.244  13.283  11.719
75052SOL     OW26987   2.929   0.762   7.550
75052SOL    HW126988   2.896   0.851   7.548
75052SOL    HW226989   2.879   0.718   7.619
75053SOL     OW26990  13.053   3.819   9.185
75053SOL    HW126991  13.028   3.896   9.134
75053SOL    HW226992  12.986   3.812   9.253
75054SOL     OW26993   7.367   1.518   5.475
75054SOL    HW126994   7.348   1.582   5.407
75054SOL    HW226995   7.459   1.495   5.462
75055SOL     OW26996   3.665   9.218   9.717
75055SOL    HW126997   3.690   9.165   9.793
75055SOL    HW226998   3.746   9.259   9.688
75056SOL     OW26999   7.253  14.399   3.812
75056SOL    HW127000   7.284  14.325   3.759
75056SOL    HW227001   7.323  14.464   3.805
75057SOL     OW27002   4.613   4.012  13.104
75057SOL    HW127003   4.646   4.017  13.194
75057SOL    HW227004   4.607   4.103  13.075
75058SOL     OW27005  11.749   4.187  10.671
75058SOL    HW127006  11.813   4.116  10.681
75058SOL    HW227007  11.759   4.239  10.751
75059SOL     OW27008  11.610   7.661   0.377
75059SOL    HW127009  11.524   7.704   0.372
75059SOL    HW227010  11.625   7.626   0.290
75060SOL     OW27011   7.974   8.258  12.012
75060SOL    HW127012   8.063   8.268  11.977
75060SOL    HW227013   7.952   8.345  12.045
75061SOL     OW27014   8.323  13.211  12.574
75061SOL    HW127015   8.380  13.263  12.517
75061SOL    HW227016   8.366  13.213  12.659
75062SOL     OW27017  11.961   4.951   7.187
75062SOL    HW127018  12.010   5.031   7.170
75062SOL    HW227019  11.890   4.978   7.245
75063SOL     OW27020  10.294   9.873  10.951
75063SOL    HW127021  10.291   9.900  10.860
75063SOL    HW227022  10.224   9.922  10.993
75064SOL     OW27023   2.657   3.821   2.138
75064SOL    HW127024   2.674   3.848   2.229
75064SOL    HW227025   2.614   3.897   2.099
75065SOL     OW27026   8.010   2.148   1.996
75065SOL    HW127027   8.025   2.211   1.925
75065SOL    HW227028   7.981   2.069   1.952
75066SOL     OW27029   7.527   5.267   5.805
75066SOL    HW127030   7.593   5.315   5.754
75066SOL    HW227031   7.466   5.233   5.739
75067SOL     OW27032   9.755   1.069   1.427
75067SOL    HW127033   9.706   1.064   1.510
75067SOL    HW227034   9.705   1.130   1.374
75068SOL     OW27035  12.134   5.030  14.239
75068SOL    HW127036  12.104   4.949  14.198
75068SOL    HW227037  12.056   5.085  14.245
75069SOL     OW27038   0.387   4.952   7.553
75069SOL    HW127039   0.393   4.945   7.649
75069SOL    HW227040   0.460   4.900   7.520
75070SOL     OW27041   2.783  11.307   8.982
75070SOL    HW127042   2.780  11.215   8.955
75070SOL    HW227043   2.820  11.306   9.070
75071SOL     OW27044   3.440   4.699   5.907
75071SOL    HW127045   3.437   4.695   5.811
75071SOL    HW227046   3.529   4.673   5.929
75072SOL     OW27047   5.744   8.557  13.003
75072SOL    HW127048   5.831   8.527  12.978
75072SOL    HW227049   5.747   8.563  13.098
75073SOL     OW27050  12.433   7.516  11.222
75073SOL    HW127051  12.521   7.545  11.247
75073SOL    HW227052  12.374   7.579  11.263
75074SOL     OW27053   5.090   9.449   5.351
75074SOL    HW127054   5.079   9.363   5.311
75074SOL    HW227055   5.173   9.443   5.398
75075SOL     OW27056  13.674   6.459  12.511
75075SOL    HW127057  13.598   6.439  12.457
75075SOL    HW227058  13.734   6.505  12.451
75076SOL     OW27059   5.153   1.815   9.430
75076SOL    HW127060   5.169   1.837   9.522
75076SOL    HW227061   5.240   1.802   9.393
75077SOL     OW27062   1.277  12.311   1.487
75077SOL    HW127063   1.365  12.274   1.486
75077SOL    HW227064   1.228  12.254   1.547
75078SOL     OW27065   3.706   9.328  10.011
75078SOL    HW127066   3.701   9.399  10.075
75078SOL    HW227067   3.695   9.248  10.063
75079SOL     OW27068   9.332   2.689   5.008
75079SOL    HW127069   9.253   2.677   5.061
75079SOL    HW227070   9.401   2.704   5.072
75080SOL     OW27071   2.219   8.439   0.217
75080SOL    HW127072   2.214   8.447   0.122
75080SOL    HW227073   2.282   8.506   0.244
75081SOL     OW27074  13.780   4.302  10.957
75081SOL    HW127075  13.687   4.303  10.933
75081SOL    HW227076  13.787   4.235  11.025
75082SOL     OW27077   4.620   5.922   0.648
75082SOL    HW127078   4.543   5.877   0.682
75082SOL    HW227079   4.616   6.009   0.688
75083SOL     OW27080  14.707   3.625   6.935
75083SOL    HW127081  14.648   3.581   6.874
75083SOL    HW227082  14.735   3.556   6.995
75084SOL     OW27083   1.913  13.423   1.627
75084SOL    HW127084   1.822  13.394   1.616
75084SOL    HW227085   1.953  13.409   1.541
75085SOL     OW27086   6.693  14.811  13.133
75085SOL    HW127087   6.764  14.831  13.071
75085SOL    HW227088   6.655   0.024  13.153
75086SOL     OW27089   4.342   5.986   9.626
75086SOL    HW127090   4.335   6.068   9.676
75086SOL    HW227091   4.276   5.929   9.664
75087SOL     OW27092  13.067  12.391   7.427
75087SOL    HW127093  13.028  12.459   7.371
75087SOL    HW227094  13.002  12.377   7.495
75088SOL     OW27095   4.089  11.184  14.491
75088SOL    HW127096   4.064  11.093  14.474
75088SOL    HW227097   4.057  11.232  14.414
75089SOL     OW27098   3.532   6.142   2.715
75089SOL    HW127099   3.437   6.144   2.722
75089SOL    HW227100   3.549   6.138   2.621
75090SOL     OW27101   8.985   4.387   9.168
75090SOL    HW127102   8.901   4.341   9.168
75090SOL    HW227103   9.029   4.358   9.248
75091SOL     OW27104   7.531   8.818   8.555
75091SOL    HW127105   7.614   8.770   8.563
75091SOL    HW227106   7.473   8.757   8.509
75092SOL     OW27107   5.128  12.217  11.732
75092SOL    HW127108   5.039  12.247  11.753
75092SOL    HW227109   5.143  12.246  11.642
75093SOL     OW27110   0.696   6.625   8.478
75093SOL    HW127111   0.695   6.709   8.433
75093SOL    HW227112   0.679   6.646   8.569
75094SOL     OW27113   1.890   5.465   7.467
75094SOL    HW127114   1.980   5.500   7.465
75094SOL    HW227115   1.857   5.480   7.379
75095SOL     OW27116   8.484  12.890   0.460
75095SOL    HW127117   8.450  12.873   0.372
75095SOL    HW227118   8.414  12.863   0.519
75096SOL     OW27119   9.639   4.899   2.294
75096SOL    HW127120   9.669   4.950   2.219
75096SOL    HW227121   9.710   4.906   2.358
75097SOL     OW27122  10.745  13.199  11.376
75097SOL    HW127123  10.693  13.278  11.361
75097SOL    HW227124  10.821  13.230  11.426
75098SOL     OW27125  10.011  13.053   6.945
75098SOL    HW127126  10.067  12.977   6.962
75098SOL    HW227127   9.951  13.056   7.020
75099SOL     OW27128  12.746  14.259   6.679
75099SOL    HW127129  12.760  14.201   6.753
75099SOL    HW227130  12.679  14.320   6.708
75100SOL     OW27131   4.378  13.737  11.020
75100SOL    HW127132   4.404  13.645  11.016
75100SOL    HW227133   4.460  13.785  11.028
75101SOL     OW27134   5.301  14.044  11.988
75101SOL    HW127135   5.299  14.120  12.045
75101SOL    HW227136   5.356  14.070  11.914
75102SOL     OW27137   8.916  13.827   1.808
75102SOL    HW127138   8.848  13.843   1.874
75102SOL    HW227139   8.997  13.824   1.858
75103SOL     OW27140   8.242   0.706   7.088
75103SOL    HW127141   8.213   0.688   6.999
75103SOL    HW227142   8.306   0.777   7.079
75104SOL     OW27143   0.870   3.152   7.882
75104SOL    HW127144   0.954   3.198   7.888
75104SOL    HW227145   0.863   3.105   7.965
75105SOL     OW27146   4.755   7.167   3.526
75105SOL    HW127147   4.802   7.242   3.489
75105SOL    HW227148   4.816   7.128   3.589
75106SOL     OW27149   8.965   7.571   9.881
75106SOL    HW127150   9.001   7.637   9.940
75106SOL    HW227151   8.967   7.490   9.932
75107SOL     OW27152   1.338  12.209   6.406
75107SOL    HW127153   1.354  12.200   6.500
75107SOL    HW227154   1.247  12.181   6.394
75108SOL     OW27155  14.268  10.676   7.779
75108SOL    HW127156  14.202  10.717   7.723
75108SOL    HW227157  14.351  10.709   7.747
75109SOL     OW27158   9.150   5.439   0.828
75109SOL    HW127159   9.080   5.465   0.768
75109SOL    HW227160   9.230   5.473   0.789
75110SOL     OW27161   4.461   9.518   7.878
75110SOL    HW127162   4.555   9.527   7.867
75110SOL    HW227163   4.451   9.459   7.953
75111SOL     OW27164   4.573   8.088   5.287
75111SOL    HW127165   4.656   8.117   5.325
75111SOL    HW227166   4.597   8.019   5.226
75112SOL     OW27167   6.569   4.048   5.769
75112SOL    HW127168   6.521   4.091   5.698
75112SOL    HW227169   6.594   4.120   5.827
75113SOL     OW27170  10.095  12.915  13.235
75113SOL    HW127171  10.118  12.991  13.181
75113SOL    HW227172  10.128  12.840  13.186
75114SOL     OW27173   6.397  13.648   4.342
75114SOL    HW127174   6.352  13.579   4.390
75114SOL    HW227175   6.400  13.616   4.252
75115SOL     OW27176   5.842  13.026   7.567
75115SOL    HW127177   5.892  13.041   7.647
75115SOL    HW227178   5.892  13.070   7.498
75116SOL     OW27179  14.198   0.433   2.899
75116SOL    HW127180  14.248   0.503   2.856
75116SOL    HW227181  14.206   0.452   2.992
75117SOL     OW27182  13.778   5.611   4.515
75117SOL    HW127183  13.723   5.689   4.515
75117SOL    HW227184  13.842   5.627   4.585
75118SOL     OW27185  11.342  13.938   7.433
75118SOL    HW127186  11.395  13.999   7.382
75118SOL    HW227187  11.339  13.977   7.521
75119SOL     OW27188  11.792   5.059   7.410
75119SOL    HW127189  11.812   4.977   7.454
75119SOL    HW227190  11.764   5.118   7.480
75120SOL     OW27191  14.239   3.238  13.682
75120SOL    HW127192  14.246   3.144  13.702
75120SOL    HW227193  14.300   3.252  13.610
75121SOL     OW27194   2.624   0.001   3.581
75121SOL    HW127195   2.626  14.779   3.569
75121SOL    HW227196   2.665   0.016   3.666
75122SOL     OW27197  12.592   9.821  13.269
75122SOL    HW127198  12.563   9.899  13.221
75122SOL    HW227199  12.682   9.842  13.296
75123SOL     OW27200   1.466  14.197   3.280
75123SOL    HW127201   1.478  14.103   3.289
75123SOL    HW227202   1.385  14.216   3.326
75124SOL     OW27203   3.547   5.279  11.914
75124SOL    HW127204   3.639   5.257  11.925
75124SOL    HW227205   3.508   5.201  11.875
75125SOL     OW27206   5.387   4.359  13.419
75125SOL    HW127207   5.463   4.335  13.365
75125SOL    HW227208   5.325   4.287  13.406
75126SOL     OW27209   9.504   3.991   2.851
75126SOL    HW127210   9.537   3.907   2.885
75126SOL    HW227211   9.477   4.039   2.929
75127SOL     OW27212   8.905  11.685   6.796
75127SOL    HW127213   8.999  11.679   6.812
75127SOL    HW227214   8.875  11.754   6.855
75128SOL     OW27215   0.019   5.486   7.698
75128SOL    HW127216   0.038   5.579   7.699
75128SOL    HW227217  14.864   5.468   7.608
75129SOL     OW27218   5.175   3.890  11.078
75129SOL    HW127219   5.176   3.946  11.000
75129SOL    HW227220   5.259   3.907  11.120
75130SOL     OW27221   3.362   4.430  11.926
75130SOL    HW127222   3.284   4.410  11.874
75130SOL    HW227223   3.373   4.524  11.917
75131SOL     OW27224  13.742   1.797   2.372
75131SOL    HW127225  13.702   1.729   2.426
75131SOL    HW227226  13.811   1.753   2.324
75132SOL     OW27227   7.386  12.107   4.305
75132SOL    HW127228   7.444  12.043   4.263
75132SOL    HW227229   7.432  12.132   4.385
75133SOL     OW27230   0.848   6.014   6.338
75133SOL    HW127231   0.775   5.952   6.344
75133SOL    HW227232   0.885   6.017   6.426
75134SOL     OW27233   1.396  13.589   6.280
75134SOL    HW127234   1.344  13.668   6.265
75134SOL    HW227235   1.483  13.612   6.247
75135SOL     OW27236   7.619  11.749   6.073
75135SOL    HW127237   7.681  11.762   6.001
75135SOL    HW227238   7.574  11.667   6.052
75136SOL     OW27239  10.265  14.170   2.152
75136SOL    HW127240  10.217  14.100   2.194
75136SOL    HW227241  10.245  14.161   2.059
75137SOL     OW27242   7.382   6.116  10.953
75137SOL    HW127243   7.454   6.131  10.892
75137SOL    HW227244   7.339   6.202  10.961
75138SOL     OW27245  13.784   2.835   5.115
75138SOL    HW127246  13.838   2.891   5.060
75138SOL    HW227247  13.704   2.820   5.065
75139SOL     OW27248   8.221   4.414   9.489
75139SOL    HW127249   8.150   4.358   9.459
75139SOL    HW227250   8.288   4.406   9.420
75140SOL     OW27251   1.360  11.511   9.286
75140SOL    HW127252   1.288  11.494   9.346
75140SOL    HW227253   1.374  11.428   9.241
75141SOL     OW27254   0.236  10.475   9.172
75141SOL    HW127255   0.246  10.545   9.107
75141SOL    HW227256   0.218  10.521   9.254
75142SOL     OW27257   3.186  10.945   3.898
75142SOL    HW127258   3.151  10.909   3.817
75142SOL    HW227259   3.108  10.977   3.945
75143SOL     OW27260   7.811   7.886   7.502
75143SOL    HW127261   7.838   7.808   7.452
75143SOL    HW227262   7.850   7.873   7.589
75144SOL     OW27263   9.714   6.376   7.249
75144SOL    HW127264   9.712   6.381   7.153
75144SOL    HW227265   9.642   6.433   7.277
75145SOL     OW27266  11.861  12.141  12.872
75145SOL    HW127267  11.809  12.127  12.951
75145SOL    HW227268  11.849  12.061  12.821
75146SOL     OW27269  12.160   3.597   1.615
75146SOL    HW127270  12.221   3.575   1.686
75146SOL    HW227271  12.177   3.530   1.549
75147SOL     OW27272   4.012  13.003   4.654
75147SOL    HW127273   4.043  12.912   4.646
75147SOL    HW227274   3.985  13.027   4.566
75148SOL     OW27275  10.855   5.021  14.041
75148SOL    HW127276  10.940   5.017  13.998
75148SOL    HW227277  10.843   4.935  14.080
75149SOL     OW27278   0.656   1.504   5.760
75149SOL    HW127279   0.735   1.457   5.735
75149SOL    HW227280   0.589   1.473   5.699
75150SOL     OW27281  12.002  12.259   0.659
75150SOL    HW127282  11.939  12.286   0.592
75150SOL    HW227283  12.013  12.165   0.646
75151SOL     OW27284  13.005   9.234   0.623
75151SOL    HW127285  13.081   9.233   0.680
75151SOL    HW227286  13.037   9.199   0.540
75152SOL     OW27287   2.971  11.321   2.238
75152SOL    HW127288   2.947  11.400   2.285
75152SOL    HW227289   2.990  11.350   2.149
75153SOL     OW27290  11.076  14.500  10.111
75153SOL    HW127291  11.143  14.506  10.178
75153SOL    HW227292  11.117  14.534  10.032
75154SOL     OW27293   2.194   1.192  12.103
75154SOL    HW127294   2.176   1.286  12.098
75154SOL    HW227295   2.275   1.185  12.153
75155SOL     OW27296  12.022  10.429   4.187
75155SOL    HW127297  12.053  10.516   4.213
75155SOL    HW227298  12.018  10.432   4.092
75156SOL     OW27299  12.663   8.853   3.448
75156SOL    HW127300  12.756   8.845   3.427
75156SOL    HW227301  12.653   8.803   3.529
75157SOL     OW27302   3.833   3.009   0.064
75157SOL    HW127303   3.813   3.103   0.072
75157SOL    HW227304   3.893   2.992   0.136
75158SOL     OW27305  13.560   1.510   9.115
75158SOL    HW127306  13.554   1.415   9.116
75158SOL    HW227307  13.584   1.532   9.024
75159SOL     OW27308  14.734   0.985   4.476
75159SOL    HW127309  14.819   1.020   4.503
75159SOL    HW227310  14.724   0.905   4.526
75160SOL     OW27311   1.740   3.652   2.206
75160SOL    HW127312   1.719   3.712   2.135
75160SOL    HW227313   1.832   3.630   2.193
75161SOL     OW27314  14.240  10.240   4.804
75161SOL    HW127315  14.299  10.198   4.865
75161SOL    HW227316  14.281  10.325   4.786
75162SOL     OW27317   4.666   6.719   0.981
75162SOL    HW127318   4.604   6.663   1.028
75162SOL    HW227319   4.646   6.808   1.012
75163SOL     OW27320   6.382   3.473   3.699
75163SOL    HW127321   6.462   3.505   3.739
75163SOL    HW227322   6.317   3.474   3.770
75164SOL     OW27323  12.707  14.076   3.773
75164SOL    HW127324  12.615  14.103   3.773
75164SOL    HW227325  12.722  14.043   3.685
75165SOL     OW27326   9.432   9.690   2.233
75165SOL    HW127327   9.475   9.701   2.318
75165SOL    HW227328   9.499   9.716   2.169
75166SOL     OW27329  12.378  13.777  12.793
75166SOL    HW127330  12.330  13.698  12.820
75166SOL    HW227331  12.319  13.821  12.732
75167SOL     OW27332   7.605  11.272  10.094
75167SOL    HW127333   7.569  11.257  10.007
75167SOL    HW227334   7.610  11.367  10.102
75168SOL     OW27335   5.606  14.570   9.425
75168SOL    HW127336   5.624  14.511   9.352
75168SOL    HW227337   5.565  14.647   9.384
75169SOL     OW27338   2.248  12.778  14.556
75169SOL    HW127339   2.268  12.743  14.470
75169SOL    HW227340   2.333  12.804  14.592
75170SOL     OW27341  11.261   5.317  12.778
75170SOL    HW127342  11.230   5.263  12.851
75170SOL    HW227343  11.353   5.334  12.798
75171SOL     OW27344  13.584   0.146   8.727
75171SOL    HW127345  13.531   0.120   8.652
75171SOL    HW227346  13.609   0.237   8.708
75172SOL     OW27347  10.166   2.150  10.986
75172SOL    HW127348  10.151   2.237  10.949
75172SOL    HW227349  10.154   2.162  11.080
75173SOL     OW27350  10.066   9.527  10.872
75173SOL    HW127351  10.153   9.544  10.906
75173SOL    HW227352  10.039   9.610  10.832
75174SOL     OW27353   8.366   1.837   5.210
75174SOL    HW127354   8.313   1.832   5.291
75174SOL    HW227355   8.452   1.805   5.236
75175SOL     OW27356   3.158   1.120  13.036
75175SOL    HW127357   3.063   1.107  13.034
75175SOL    HW227358   3.169   1.214  13.021
75176SOL     OW27359   6.799   9.707   6.310
75176SOL    HW127360   6.805   9.692   6.216
75176SOL    HW227361   6.887   9.690   6.343
75177SOL     OW27362   6.516  14.206   1.801
75177SOL    HW127363   6.429  14.201   1.840
75177SOL    HW227364   6.516  14.290   1.753
75178SOL     OW27365   9.534  10.679   8.866
75178SOL    HW127366   9.625  10.657   8.886
75178SOL    HW227367   9.538  10.726   8.783
75179SOL     OW27368   7.671   3.102   5.651
75179SOL    HW127369   7.669   3.073   5.742
75179SOL    HW227370   7.583   3.138   5.635
75180SOL     OW27371   2.982  14.493   3.717
75180SOL    HW127372   2.891  14.483   3.748
75180SOL    HW227373   2.990  14.586   3.698
75181SOL     OW27374  10.393  13.430   0.846
75181SOL    HW127375  10.477  13.413   0.888
75181SOL    HW227376  10.392  13.372   0.770
75182SOL     OW27377   1.475  14.353  11.368
75182SOL    HW127378   1.570  14.359  11.381
75182SOL    HW227379   1.456  14.259  11.372
75183SOL     OW27380   1.341   6.353  12.590
75183SOL    HW127381   1.401   6.281  12.570
75183SOL    HW227382   1.395   6.418  12.634
75184SOL     OW27383  11.964   8.960   0.189
75184SOL    HW127384  11.992   8.942   0.099
75184SOL    HW227385  11.987   8.880   0.237
75185SOL     OW27386  13.550   2.318  10.873
75185SOL    HW127387  13.459   2.339  10.896
75185SOL    HW227388  13.547   2.227  10.843
75186SOL     OW27389   8.981   7.636   8.574
75186SOL    HW127390   8.895   7.654   8.535
75186SOL    HW227391   8.978   7.543   8.597
75187SOL     OW27392  11.156   3.166   2.641
75187SOL    HW127393  11.194   3.124   2.719
75187SOL    HW227394  11.224   3.161   2.575
75188SOL     OW27395  10.790   7.515   5.073
75188SOL    HW127396  10.751   7.554   5.151
75188SOL    HW227397  10.743   7.556   5.000
75189SOL     OW27398  13.604   4.458  12.813
75189SOL    HW127399  13.689   4.418  12.832
75189SOL    HW227400  13.561   4.396  12.754
75190SOL     OW27401   7.226   2.777  10.820
75190SOL    HW127402   7.209   2.805  10.910
75190SOL    HW227403   7.312   2.812  10.799
75191SOL     OW27404  10.487   1.783   3.666
75191SOL    HW127405  10.497   1.820   3.753
75191SOL    HW227406  10.574   1.748   3.645
75192SOL     OW27407   2.845  11.176   1.217
75192SOL    HW127408   2.926  11.138   1.184
75192SOL    HW227409   2.809  11.225   1.144
75193SOL     OW27410  10.317  13.561   4.819
75193SOL    HW127411  10.404  13.597   4.838
75193SOL    HW227412  10.305  13.578   4.726
75194SOL     OW27413   3.742   6.801   4.994
75194SOL    HW127414   3.754   6.740   5.066
75194SOL    HW227415   3.672   6.859   5.022
75195SOL     OW27416  14.814   4.149   0.361
75195SOL    HW127417  14.822   4.181   0.271
75195SOL    HW227418   0.031   4.133   0.389
75196SOL     OW27419   6.784  12.388   1.852
75196SOL    HW127420   6.874  12.357   1.836
75196SOL    HW227421   6.785  12.479   1.823
75197SOL     OW27422  11.647   1.927   9.070
75197SOL    HW127423  11.601   1.971   8.998
75197SOL    HW227424  11.735   1.965   9.068
75198SOL     OW27425   2.360   5.234  13.171
75198SOL    HW127426   2.403   5.178  13.236
75198SOL    HW227427   2.299   5.287  13.222
75199SOL     OW27428  12.599   3.382   8.732
75199SOL    HW127429  12.640   3.460   8.695
75199SOL    HW227430  12.522   3.368   8.678
75200SOL     OW27431   5.686   7.655   9.648
75200SOL    HW127432   5.745   7.579   9.650
75200SOL    HW227433   5.698   7.692   9.560
75201SOL     OW27434   1.641  14.060  10.548
75201SOL    HW127435   1.676  13.993  10.488
75201SOL    HW227436   1.573  14.104  10.498
75202SOL     OW27437  11.291  11.793  12.653
75202SOL    HW127438  11.239  11.812  12.731
75202SOL    HW227439  11.228  11.799  12.581
75203SOL     OW27440   8.580   0.594   1.057
75203SOL    HW127441   8.541   0.681   1.048
75203SOL    HW227442   8.565   0.571   1.149
75204SOL     OW27443   8.492  13.088  10.060
75204SOL    HW127444   8.543  13.165  10.084
75204SOL    HW227445   8.528  13.017  10.113
75205SOL     OW27446  14.725  14.634   2.007
75205SOL    HW127447  14.759  14.581   1.935
75205SOL    HW227448  14.753  14.723   1.986
75206SOL     OW27449   8.367  11.303   9.324
75206SOL    HW127450   8.316  11.229   9.358
75206SOL    HW227451   8.303  11.355   9.274
75207SOL     OW27452  10.219   1.028   5.172
75207SOL    HW127453  10.209   1.082   5.093
75207SOL    HW227454  10.174   0.946   5.150
75208SOL     OW27455   1.482   2.033   9.615
75208SOL    HW127456   1.455   2.025   9.524
75208SOL    HW227457   1.429   2.105   9.650
75209SOL     OW27458   7.663   4.279   9.535
75209SOL    HW127459   7.659   4.206   9.472
75209SOL    HW227460   7.661   4.237   9.621
75210SOL     OW27461   9.046  14.618   0.353
75210SOL    HW127462   9.003  14.703   0.362
75210SOL    HW227463   9.028  14.573   0.435
75211SOL     OW27464   6.169   5.365  10.110
75211SOL    HW127465   6.080   5.395  10.091
75211SOL    HW227466   6.161   5.271  10.123
75212SOL     OW27467  10.467   6.790   0.920
75212SOL    HW127468  10.499   6.702   0.941
75212SOL    HW227469  10.439   6.825   1.005
75213SOL     OW27470   5.712   1.040   9.580
75213SOL    HW127471   5.617   1.041   9.583
75213SOL    HW227472   5.733   1.048   9.487
75214SOL     OW27473  14.839   6.127  12.385
75214SOL    HW127474   0.015   6.081  12.453
75214SOL    HW227475  14.756   6.079  12.378
75215SOL     OW27476  11.836   6.855   1.607
75215SOL    HW127477  11.908   6.843   1.544
75215SOL    HW227478  11.856   6.938   1.651
75216SOL     OW27479  14.649   9.243   8.327
75216SOL    HW127480  14.701   9.231   8.248
75216SOL    HW227481  14.714   9.263   8.395
75217SOL     OW27482  13.076   9.546   6.646
75217SOL    HW127483  13.127   9.542   6.727
75217SOL    HW227484  13.001   9.602   6.668
75218SOL     OW27485   7.169  14.206   3.108
75218SOL    HW127486   7.196  14.167   3.191
75218SOL    HW227487   7.225  14.164   3.042
75219SOL     OW27488   0.045   6.000   3.862
75219SOL    HW127489  14.861   5.923   3.852
75219SOL    HW227490   0.131   5.970   3.831
75220SOL     OW27491  11.113  11.067   1.922
75220SOL    HW127492  11.205  11.068   1.895
75220SOL    HW227493  11.104  11.144   1.978
75221SOL     OW27494   5.150   0.637   3.779
75221SOL    HW127495   5.229   0.624   3.726
75221SOL    HW227496   5.108   0.714   3.741
75222SOL     OW27497   8.197   2.208   2.818
75222SOL    HW127498   8.173   2.128   2.770
75222SOL    HW227499   8.270   2.244   2.767
75223SOL     OW27500   4.771   0.834  14.694
75223SOL    HW127501   4.847   0.777  14.698
75223SOL    HW227502   4.781   0.883  14.613
75224SOL     OW27503  14.161  11.011   0.381
75224SOL    HW127504  14.135  10.992   0.471
75224SOL    HW227505  14.215  11.090   0.387
75225SOL     OW27506   9.442  14.045  11.768
75225SOL    HW127507   9.534  14.056  11.745
75225SOL    HW227508   9.409  14.134  11.778
75226SOL     OW27509   0.766   9.325   7.525
75226SOL    HW127510   0.702   9.360   7.587
75226SOL    HW227511   0.844   9.378   7.540
75227SOL     OW27512  11.286   4.099   4.162
75227SOL    HW127513  11.196   4.124   4.180
75227SOL    HW227514  11.337   4.179   4.177
75228SOL     OW27515  12.056   7.262   6.420
75228SOL    HW127516  12.135   7.293   6.464
75228SOL    HW227517  12.032   7.181   6.466
75229SOL     OW27518   4.564  12.766   5.380
75229SOL    HW127519   4.593  12.776   5.471
75229SOL    HW227520   4.617  12.829   5.331
75230SOL     OW27521   9.851   8.359  10.587
75230SOL    HW127522   9.872   8.403  10.504
75230SOL    HW227523   9.756   8.359  10.591
75231SOL     OW27524   0.192   9.011   3.624
75231SOL    HW127525   0.182   9.028   3.718
75231SOL    HW227526   0.103   8.994   3.594
75232SOL     OW27527  14.791  12.179   9.295
75232SOL    HW127528  14.819  12.102   9.245
75232SOL    HW227529  14.863  12.197   9.354
75233SOL     OW27530  10.842   7.907  13.911
75233SOL    HW127531  10.888   7.964  13.973
75233SOL    HW227532  10.787   7.967  13.860
75234SOL     OW27533   9.902   4.569  14.821
75234SOL    HW127534   9.996   4.579  14.833
75234SOL    HW227535   9.891   4.478  14.793
75235SOL     OW27536  10.293  10.071  11.529
75235SOL    HW127537  10.269  10.131  11.458
75235SOL    HW227538  10.263  10.115  11.609
75236SOL     OW27539   7.597   8.331   9.379
75236SOL    HW127540   7.595   8.330   9.284
75236SOL    HW227541   7.602   8.239   9.404
75237SOL     OW27542  10.534   9.027   3.888
75237SOL    HW127543  10.454   9.020   3.940
75237SOL    HW227544  10.546   8.940   3.850
75238SOL     OW27545   2.301   5.247  10.262
75238SOL    HW127546   2.331   5.163  10.298
75238SOL    HW227547   2.265   5.293  10.338
75239SOL     OW27548  14.101   5.710  12.211
75239SOL    HW127549  14.179   5.656  12.197
75239SOL    HW227550  14.126   5.797  12.178
75240SOL     OW27551  13.370   8.573   8.793
75240SOL    HW127552  13.392   8.603   8.881
75240SOL    HW227553  13.455   8.553   8.753
75241SOL     OW27554   5.336   7.122   9.429
75241SOL    HW127555   5.340   7.093   9.337
75241SOL    HW227556   5.259   7.077   9.464
75242SOL     OW27557  12.142  10.088   1.786
75242SOL    HW127558  12.052  10.113   1.803
75242SOL    HW227559  12.159  10.015   1.847
75243SOL     OW27560   9.670  14.606  13.409
75243SOL    HW127561   9.575  14.618  13.412
75243SOL    HW227562   9.699  14.623  13.498
75244SOL     OW27563   6.927   1.813   5.617
75244SOL    HW127564   6.938   1.744   5.682
75244SOL    HW227565   6.940   1.894   5.667
75245SOL     OW27566   3.057   8.108   5.813
75245SOL    HW127567   2.975   8.133   5.856
75245SOL    HW227568   3.124   8.161   5.855
75246SOL     OW27569   8.903  12.293  12.400
75246SOL    HW127570   8.814  12.326  12.389
75246SOL    HW227571   8.950  12.324  12.322
75247SOL     OW27572   5.608   7.244  14.545
75247SOL    HW127573   5.595   7.311  14.477
75247SOL    HW227574   5.554   7.273  14.618
75248SOL     OW27575   4.977  14.439  14.475
75248SOL    HW127576   5.048  14.405  14.420
75248SOL    HW227577   4.944  14.515  14.427
75249SOL     OW27578   1.724  13.151  11.546
75249SOL    HW127579   1.739  13.094  11.621
75249SOL    HW227580   1.715  13.239  11.583
75250SOL     OW27581   7.411  14.576   6.770
75250SOL    HW127582   7.387  14.484   6.764
75250SOL    HW227583   7.427  14.603   6.679
75251SOL     OW27584   4.747   3.440   1.062
75251SOL    HW127585   4.664   3.479   1.089
75251SOL    HW227586   4.770   3.381   1.135
75252SOL     OW27587   2.384   6.729   4.391
75252SOL    HW127588   2.351   6.717   4.480
75252SOL    HW227589   2.384   6.641   4.353
75253SOL     OW27590   8.949   9.813  11.419
75253SOL    HW127591   8.942   9.725  11.456
75253SOL    HW227592   8.875   9.861  11.456
75254SOL     OW27593   1.270   3.043   9.938
75254SOL    HW127594   1.276   2.963   9.990
75254SOL    HW227595   1.349   3.042   9.884
75255SOL     OW27596  11.744   7.878   6.749
75255SOL    HW127597  11.667   7.934   6.740
75255SOL    HW227598  11.721   7.798   6.700
75256SOL     OW27599   5.466   1.844   0.637
75256SOL    HW127600   5.419   1.799   0.707
75256SOL    HW227601   5.529   1.779   0.605
75257SOL     OW27602   6.719   2.456  10.684
75257SOL    HW127603   6.675   2.391  10.629
75257SOL    HW227604   6.702   2.540  10.640
75258SOL     OW27605  12.946  12.607   7.275
75258SOL    HW127606  12.897  12.687   7.295
75258SOL    HW227607  12.939  12.598   7.180
75259SOL     OW27608   0.303   8.512   7.984
75259SOL    HW127609   0.222   8.494   7.937
75259SOL    HW227610   0.282   8.494   8.076
75260SOL     OW27611   1.342   8.198   7.005
75260SOL    HW127612   1.418   8.145   6.984
75260SOL    HW227613   1.326   8.250   6.926
75261SOL     OW27614   6.261   2.787  14.810
75261SOL    HW127615   6.180   2.837  14.800
75261SOL    HW227616   6.244   2.705  14.763
75262SOL     OW27617   6.778   8.841  14.219
75262SOL    HW127618   6.744   8.815  14.134
75262SOL    HW227619   6.864   8.878  14.200
75263SOL     OW27620   4.893   6.912   9.906
75263SOL    HW127621   4.977   6.870   9.927
75263SOL    HW227622   4.830   6.867   9.962
75264SOL     OW27623   0.164   4.509   9.848
75264SOL    HW127624   0.129   4.431   9.805
75264SOL    HW227625   0.205   4.476   9.928
75265SOL     OW27626  12.035   1.437  12.281
75265SOL    HW127627  12.001   1.399  12.362
75265SOL    HW227628  12.124   1.404  12.275
75266SOL     OW27629   9.271   5.051   4.231
75266SOL    HW127630   9.328   5.127   4.219
75266SOL    HW227631   9.183   5.088   4.237
75267SOL     OW27632  14.406   4.274   9.680
75267SOL    HW127633  14.407   4.368   9.699
75267SOL    HW227634  14.313   4.253   9.671
75268SOL     OW27635  11.161  12.470   6.752
75268SOL    HW127636  11.135  12.545   6.805
75268SOL    HW227637  11.110  12.397   6.788
75269SOL     OW27638   3.632  11.240  14.441
75269SOL    HW127639   3.679  11.164  14.406
75269SOL    HW227640   3.543  11.209  14.456
75270SOL     OW27641   2.484   8.527   3.295
75270SOL    HW127642   2.445   8.514   3.381
75270SOL    HW227643   2.561   8.583   3.311
75271SOL     OW27644   6.930   9.442   2.471
75271SOL    HW127645   6.946   9.470   2.381
75271SOL    HW227646   6.868   9.506   2.506
75272SOL     OW27647  12.931   2.141   8.012
75272SOL    HW127648  12.848   2.095   8.023
75272SOL    HW227649  12.930   2.168   7.920
75273SOL     OW27650   5.803  14.821  11.682
75273SOL    HW127651   5.733   0.005  11.715
75273SOL    HW227652   5.866  14.816  11.753
75274SOL     OW27653   9.021  13.672   7.693
75274SOL    HW127654   8.985  13.613   7.759
75274SOL    HW227655   9.010  13.759   7.730
75275SOL     OW27656   2.608   6.792   8.398
75275SOL    HW127657   2.666   6.717   8.388
75275SOL    HW227658   2.609   6.810   8.492
75276SOL     OW27659   3.924   7.775  10.740
75276SOL    HW127660   4.011   7.777  10.699
75276SOL    HW227661   3.865   7.810  10.674
75277SOL     OW27662  11.943   7.123   1.663
75277SOL    HW127663  11.969   7.207   1.623
75277SOL    HW227664  11.870   7.146   1.720
75278SOL     OW27665   8.252  11.114   5.646
75278SOL    HW127666   8.271  11.024   5.672
75278SOL    HW227667   8.319  11.134   5.581
75279SOL     OW27668   6.537  10.238   7.294
75279SOL    HW127669   6.611  10.292   7.321
75279SOL    HW227670   6.469  10.302   7.269
75280SOL     OW27671   1.240   2.053  12.058
75280SOL    HW127672   1.260   1.970  12.101
75280SOL    HW227673   1.304   2.115  12.094
75281SOL     OW27674   3.853   0.198  11.413
75281SOL    HW127675   3.917   0.254  11.368
75281SOL    HW227676   3.788   0.176  11.347
75282SOL     OW27677   3.068   6.112   6.424
75282SOL    HW127678   3.001   6.064   6.472
75282SOL    HW227679   3.098   6.179   6.486
75283SOL     OW27680  10.767   6.618   5.292
75283SOL    HW127681  10.704   6.556   5.254
75283SOL    HW227682  10.852   6.587   5.263
75284SOL     OW27683   1.691  12.026  12.439
75284SOL    HW127684   1.747  12.039  12.362
75284SOL    HW227685   1.729  12.082  12.507
75285SOL     OW27686   9.716  10.166   4.852
75285SOL    HW127687   9.714  10.261   4.856
75285SOL    HW227688   9.629  10.140   4.883
75286SOL     OW27689  10.394  11.836   4.180
75286SOL    HW127690  10.341  11.792   4.114
75286SOL    HW227691  10.461  11.882   4.129
75287SOL     OW27692   0.964  10.421   4.602
75287SOL    HW127693   0.985  10.439   4.694
75287SOL    HW227694   0.937  10.506   4.567
75288SOL     OW27695   8.563   7.354   8.884
75288SOL    HW127696   8.619   7.424   8.916
75288SOL    HW227697   8.529   7.311   8.962
75289SOL     OW27698   6.175   7.569  13.830
75289SOL    HW127699   6.265   7.549  13.855
75289SOL    HW227700   6.151   7.645  13.884
75290SOL     OW27701  11.833  13.745   8.909
75290SOL    HW127702  11.885  13.666   8.893
75290SOL    HW227703  11.890  13.803   8.957
75291SOL     OW27704   9.679   5.478  13.992
75291SOL    HW127705   9.668   5.430  13.910
75291SOL    HW227706   9.590   5.483  14.029
75292SOL     OW27707   9.692   0.352   0.326
75292SOL    HW127708   9.673   0.395   0.410
75292SOL    HW227709   9.659   0.263   0.338
75293SOL     OW27710   9.532   3.962   6.704
75293SOL    HW127711   9.470   4.001   6.766
75293SOL    HW227712   9.608   3.940   6.758
75294SOL     OW27713  12.099   6.353  14.623
75294SOL    HW127714  12.054   6.423  14.576
75294SOL    HW227715  12.163   6.319  14.561
75295SOL     OW27716  14.742  10.194   3.624
75295SOL    HW127717  14.702  10.228   3.544
75295SOL    HW227718  14.671  10.195   3.689
75296SOL     OW27719  13.002  12.695  10.398
75296SOL    HW127720  13.031  12.779  10.361
75296SOL    HW227721  13.030  12.698  10.490
75297SOL     OW27722   0.988  10.832   7.760
75297SOL    HW127723   1.024  10.749   7.729
75297SOL    HW227724   0.973  10.882   7.679
75298SOL     OW27725   5.348  13.242   0.884
75298SOL    HW127726   5.337  13.182   0.958
75298SOL    HW227727   5.336  13.187   0.807
75299SOL     OW27728  14.107   1.224   2.389
75299SOL    HW127729  14.069   1.218   2.301
75299SOL    HW227730  14.065   1.152   2.438
75300SOL     OW27731   1.292   7.923   6.755
75300SOL    HW127732   1.283   8.008   6.712
75300SOL    HW227733   1.210   7.910   6.801
75301SOL     OW27734   4.301  14.070   5.707
75301SOL    HW127735   4.300  13.996   5.646
75301SOL    HW227736   4.353  14.137   5.663
75302SOL     OW27737   6.808  10.553  12.204
75302SOL    HW127738   6.798  10.461  12.228
75302SOL    HW227739   6.720  10.583  12.183
75303SOL     OW27740   0.005   1.744   3.274
75303SOL    HW127741  14.870   1.838   3.292
75303SOL    HW227742  14.860   1.736   3.181
75304SOL     OW27743   5.233   9.221  13.888
75304SOL    HW127744   5.328   9.232  13.895
75304SOL    HW227745   5.209   9.169  13.964
75305SOL     OW27746  12.847   5.248   9.871
75305SOL    HW127747  12.789   5.220   9.801
75305SOL    HW227748  12.856   5.171   9.927
75306SOL     OW27749   1.465   3.563   4.205
75306SOL    HW127750   1.401   3.497   4.234
75306SOL    HW227751   1.530   3.565   4.276
75307SOL     OW27752   1.477   1.971   1.039
75307SOL    HW127753   1.545   1.917   1.081
75307SOL    HW227754   1.440   1.914   0.972
75308SOL     OW27755   4.354  13.164   3.615
75308SOL    HW127756   4.362  13.070   3.628
75308SOL    HW227757   4.353  13.200   3.704
75309SOL     OW27758  13.490  13.059   6.032
75309SOL    HW127759  13.408  13.010   6.040
75309SOL    HW227760  13.474  13.141   6.078
75310SOL     OW27761   1.886   1.747   8.627
75310SOL    HW127762   1.883   1.691   8.549
75310SOL    HW227763   1.861   1.834   8.595
75311SOL     OW27764   2.777  14.154   6.752
75311SOL    HW127765   2.801  14.165   6.843
75311SOL    HW227766   2.860  14.142   6.706
75312SOL     OW27767   4.377   3.269  14.773
75312SOL    HW127768   4.459   3.227  14.745
75312SOL    HW227769   4.405   3.341  14.830
75313SOL     OW27770   7.102  13.753  12.923
75313SOL    HW127771   7.087  13.687  12.855
75313SOL    HW227772   7.175  13.806  12.890
75314SOL     OW27773   7.616   6.527   3.809
75314SOL    HW127774   7.686   6.521   3.745
75314SOL    HW227775   7.592   6.436   3.826
75315SOL     OW27776  11.946   3.036   5.762
75315SOL    HW127777  11.895   3.117   5.771
75315SOL    HW227778  11.999   3.050   5.684
75316SOL     OW27779   4.435   1.450  11.075
75316SOL    HW127780   4.383   1.398  11.136
75316SOL    HW227781   4.521   1.456  11.115
75317SOL     OW27782   2.846   7.210   5.089
75317SOL    HW127783   2.795   7.265   5.029
75317SOL    HW227784   2.879   7.271   5.155
75318SOL     OW27785   0.354   3.186   3.916
75318SOL    HW127786   0.438   3.215   3.951
75318SOL    HW227787   0.320   3.127   3.983
75319SOL     OW27788   3.540   9.445   6.591
75319SOL    HW127789   3.486   9.369   6.610
75319SOL    HW227790   3.620   9.408   6.554
75320SOL     OW27791  14.555   5.849  13.283
75320SOL    HW127792  14.517   5.927  13.244
75320SOL    HW227793  14.649   5.856  13.263
75321SOL     OW27794   6.227  14.176  13.144
75321SOL    HW127795   6.293  14.146  13.081
75321SOL    HW227796   6.273  14.241  13.198
75322SOL     OW27797  12.885   9.623  12.558
75322SOL    HW127798  12.963   9.661  12.598
75322SOL    HW227799  12.870   9.543  12.607
75323SOL     OW27800   9.546   7.860   7.064
75323SOL    HW127801   9.498   7.897   7.138
75323SOL    HW227802   9.599   7.932   7.030
75324SOL     OW27803  13.015   6.321   2.991
75324SOL    HW127804  13.101   6.354   2.966
75324SOL    HW227805  12.956   6.352   2.922
75325SOL     OW27806  13.135  12.839   9.701
75325SOL    HW127807  13.162  12.930   9.690
75325SOL    HW227808  13.200  12.789   9.652
75326SOL     OW27809   2.960  14.824   5.390
75326SOL    HW127810   2.947  14.739   5.349
75326SOL    HW227811   2.922  14.815   5.478
75327SOL     OW27812   9.324   4.443  14.543
75327SOL    HW127813   9.339   4.477  14.632
75327SOL    HW227814   9.412   4.425  14.510
75328SOL     OW27815   3.994  13.765   1.522
75328SOL    HW127816   4.027  13.757   1.433
75328SOL    HW227817   3.899  13.777   1.512
75329SOL     OW27818  14.739   5.070   8.682
75329SOL    HW127819  14.791   5.149   8.667
75329SOL    HW227820  14.796   5.014   8.734
75330SOL     OW27821   1.955   1.997   2.971
75330SOL    HW127822   1.918   1.913   2.996
75330SOL    HW227823   1.952   1.997   2.875
75331SOL     OW27824  14.209  14.451   7.535
75331SOL    HW127825  14.230  14.544   7.535
75331SOL    HW227826  14.293  14.406   7.541
75332SOL     OW27827  12.142  11.073  11.161
75332SOL    HW127828  12.089  11.151  11.176
75332SOL    HW227829  12.220  11.087  11.214
75333SOL     OW27830  12.554   6.220   8.934
75333SOL    HW127831  12.532   6.297   8.986
75333SOL    HW227832  12.529   6.243   8.845
75334SOL     OW27833   8.952   3.084  13.728
75334SOL    HW127834   9.021   3.071  13.664
75334SOL    HW227835   8.993   3.061  13.812
75335SOL     OW27836   0.119  10.660   5.063
75335SOL    HW127837   0.090  10.577   5.103
75335SOL    HW227838   0.039  10.696   5.023
75336SOL     OW27839   4.953   5.418  13.288
75336SOL    HW127840   4.928   5.417  13.381
75336SOL    HW227841   5.048   5.421  13.289
75337SOL     OW27842  10.125   8.670   0.268
75337SOL    HW127843  10.103   8.754   0.309
75337SOL    HW227844  10.168   8.621   0.337
75338SOL     OW27845   4.875   8.135   3.267
75338SOL    HW127846   4.863   8.166   3.177
75338SOL    HW227847   4.965   8.157   3.288
75339SOL     OW27848   8.088   6.406   4.550
75339SOL    HW127849   8.043   6.367   4.625
75339SOL    HW227850   8.167   6.444   4.587
75340SOL     OW27851  11.469   2.450   0.488
75340SOL    HW127852  11.508   2.370   0.452
75340SOL    HW227853  11.378   2.426   0.505
75341SOL     OW27854   7.755   3.055  11.334
75341SOL    HW127855   7.801   3.138  11.348
75341SOL    HW227856   7.780   3.029  11.245
75342SOL     OW27857   7.790  13.008   9.295
75342SOL    HW127858   7.837  12.946   9.351
75342SOL    HW227859   7.698  12.991   9.312
75343SOL     OW27860   1.576   2.313   4.731
75343SOL    HW127861   1.554   2.255   4.658
75343SOL    HW227862   1.572   2.401   4.695
75344SOL     OW27863   2.910  13.013  12.341
75344SOL    HW127864   2.897  12.939  12.400
75344SOL    HW227865   2.975  13.068  12.386
75345SOL     OW27866   9.499  11.922  12.632
75345SOL    HW127867   9.430  11.889  12.689
75345SOL    HW227868   9.520  12.008  12.667
75346SOL     OW27869  14.169  12.311  12.230
75346SOL    HW127870  14.118  12.323  12.150
75346SOL    HW227871  14.180  12.216  12.237
75347SOL     OW27872   1.757  12.637   0.809
75347SOL    HW127873   1.764  12.562   0.869
75347SOL    HW227874   1.731  12.598   0.726
75348SOL     OW27875   8.144  12.729  10.811
75348SOL    HW127876   8.121  12.703  10.722
75348SOL    HW227877   8.070  12.701  10.864
75349SOL     OW27878  12.159   3.609   0.251
75349SOL    HW127879  12.132   3.582   0.163
75349SOL    HW227880  12.252   3.586   0.256
75350SOL     OW27881   9.799  12.391   3.599
75350SOL    HW127882   9.815  12.364   3.690
75350SOL    HW227883   9.885  12.391   3.558
75351SOL     OW27884   6.012   2.020   1.613
75351SOL    HW127885   6.059   2.096   1.647
75351SOL    HW227886   5.924   2.027   1.651
75352SOL     OW27887   1.080   9.301   2.492
75352SOL    HW127888   1.129   9.299   2.410
75352SOL    HW227889   0.992   9.330   2.467
75353SOL     OW27890  10.787  14.497   0.286
75353SOL    HW127891  10.881  14.502   0.270
75353SOL    HW227892  10.779  14.492   0.381
75354SOL     OW27893   9.743  14.142   4.375
75354SOL    HW127894   9.793  14.079   4.426
75354SOL    HW227895   9.662  14.097   4.354
75355SOL     OW27896   5.238   2.150   3.598
75355SOL    HW127897   5.184   2.100   3.537
75355SOL    HW227898   5.249   2.236   3.556
75356SOL     OW27899   5.359  13.898  13.271
75356SOL    HW127900   5.305  13.855  13.205
75356SOL    HW227901   5.329  13.988  13.274
75357SOL     OW27902  11.124  13.008   6.155
75357SOL    HW127903  11.056  13.068   6.187
75357SOL    HW227904  11.178  12.989   6.231
75358SOL     OW27905  10.902   0.141   5.626
75358SOL    HW127906  10.898   0.232   5.596
75358SOL    HW227907  10.933   0.092   5.551
75359SOL     OW27908   7.654  11.792  13.732
75359SOL    HW127909   7.696  11.877  13.741
75359SOL    HW227910   7.605  11.798  13.651
75360SOL     OW27911   3.903   5.407   9.672
75360SOL    HW127912   3.969   5.373   9.732
75360SOL    HW227913   3.863   5.480   9.719
75361SOL     OW27914   2.029   0.950   2.454
75361SOL    HW127915   2.093   1.019   2.436
75361SOL    HW227916   1.971   0.988   2.519
75362SOL     OW27917   8.241   3.489   1.320
75362SOL    HW127918   8.149   3.492   1.293
75362SOL    HW227919   8.238   3.502   1.415
75363SOL     OW27920   3.484   7.577   6.739
75363SOL    HW127921   3.468   7.622   6.656
75363SOL    HW227922   3.569   7.534   6.727
75364SOL     OW27923   5.333   6.892   4.897
75364SOL    HW127924   5.331   6.986   4.879
75364SOL    HW227925   5.386   6.884   4.976
75365SOL     OW27926   7.728   9.314   1.843
75365SOL    HW127927   7.685   9.338   1.761
75365SOL    HW227928   7.694   9.227   1.864
75366SOL     OW27929  11.705   4.005   9.250
75366SOL    HW127930  11.630   4.055   9.220
75366SOL    HW227931  11.778   4.067   9.245
75367SOL     OW27932  10.271   8.088   9.926
75367SOL    HW127933  10.227   8.151   9.983
75367SOL    HW227934  10.236   8.106   9.839
75368SOL     OW27935   2.634   7.986  12.079
75368SOL    HW127936   2.718   7.948  12.106
75368SOL    HW227937   2.630   7.970  11.985
75369SOL     OW27938  14.469  10.401   8.364
75369SOL    HW127939  14.547  10.367   8.406
75369SOL    HW227940  14.468  10.359   8.278
75370SOL     OW27941   1.542   8.821   5.653
75370SOL    HW127942   1.586   8.810   5.737
75370SOL    HW227943   1.613   8.840   5.592
75371SOL     OW27944  13.656   7.501   8.612
75371SOL    HW127945  13.748   7.483   8.592
75371SOL    HW227946  13.645   7.470   8.702
75372SOL     OW27947   8.269  11.056   3.689
75372SOL    HW127948   8.298  11.144   3.712
75372SOL    HW227949   8.331  10.998   3.734
75373SOL     OW27950   8.562   7.770   8.072
75373SOL    HW127951   8.580   7.709   8.001
75373SOL    HW227952   8.485   7.734   8.116
75374SOL     OW27953  10.049  14.699   2.156
75374SOL    HW127954  10.128  14.751   2.140
75374SOL    HW227955  10.006  14.742   2.230
75375SOL     OW27956  12.131   0.829   3.546
75375SOL    HW127957  12.187   0.799   3.618
75375SOL    HW227958  12.181   0.808   3.467
75376SOL     OW27959   7.302   0.148   0.191
75376SOL    HW127960   7.285   0.077   0.253
75376SOL    HW227961   7.279   0.228   0.240
75377SOL     OW27962   6.620   7.745   4.363
75377SOL    HW127963   6.540   7.764   4.411
75377SOL    HW227964   6.606   7.785   4.277
75378SOL     OW27965  11.197   0.062  13.481
75378SOL    HW127966  11.215   0.144  13.435
75378SOL    HW227967  11.212   0.082  13.573
75379SOL     OW27968   2.461   8.579   6.054
75379SOL    HW127969   2.459   8.560   6.148
75379SOL    HW227970   2.525   8.650   6.046
75380SOL     OW27971   1.232   2.366   1.355
75380SOL    HW127972   1.203   2.331   1.271
75380SOL    HW227973   1.317   2.325   1.370
75381SOL     OW27974  10.361  14.172  12.219
75381SOL    HW127975  10.311  14.205  12.144
75381SOL    HW227976  10.397  14.250  12.260
75382SOL     OW27977   3.288  10.645   2.975
75382SOL    HW127978   3.314  10.721   3.028
75382SOL    HW227979   3.337  10.656   2.893
75383SOL     OW27980   5.318  13.746   5.494
75383SOL    HW127981   5.332  13.708   5.407
75383SOL    HW227982   5.388  13.810   5.503
75384SOL     OW27983   2.612   5.184  12.336
75384SOL    HW127984   2.666   5.226  12.402
75384SOL    HW227985   2.627   5.090  12.349
75385SOL     OW27986   3.168   5.436   2.103
75385SOL    HW127987   3.177   5.341   2.115
75385SOL    HW227988   3.148   5.446   2.010
75386SOL     OW27989  12.510   6.569   2.875
75386SOL    HW127990  12.427   6.524   2.887
75386SOL    HW227991  12.517   6.629   2.950
75387SOL     OW27992   4.648   9.605  13.068
75387SOL    HW127993   4.650   9.581  12.975
75387SOL    HW227994   4.572   9.663  13.076
75388SOL     OW27995   9.348   2.064   3.034
75388SOL    HW127996   9.386   1.980   3.008
75388SOL    HW227997   9.296   2.091   2.958
75389SOL     OW27998  12.297   0.115   0.686
75389SOL    HW127999  12.292   0.093   0.593
75389SOL    HW228000  12.288   0.031   0.731
75390SOL     OW28001   8.184   2.358  11.499
75390SOL    HW128002   8.150   2.270  11.518
75390SOL    HW228003   8.152   2.412  11.571
75391SOL     OW28004   5.488  10.089  11.452
75391SOL    HW128005   5.549  10.147  11.496
75391SOL    HW228006   5.413  10.144  11.430
75392SOL     OW28007   9.297   6.792  11.835
75392SOL    HW128008   9.387   6.773  11.806
75392SOL    HW228009   9.273   6.870  11.786
75393SOL     OW28010   3.182   9.607  14.272
75393SOL    HW128011   3.179   9.659  14.191
75393SOL    HW228012   3.236   9.659  14.332
75394SOL     OW28013   9.772   7.833   5.814
75394SOL    HW128014   9.736   7.810   5.729
75394SOL    HW228015   9.802   7.924   5.804
75395SOL     OW28016   8.647  11.249  14.658
75395SOL    HW128017   8.622  11.164  14.695
75395SOL    HW228018   8.590  11.259  14.581
75396SOL     OW28019   2.461   3.082   8.123
75396SOL    HW128020   2.405   3.004   8.127
75396SOL    HW228021   2.444   3.127   8.206
75397SOL     OW28022   1.728   6.539   5.942
75397SOL    HW128023   1.636   6.519   5.959
75397SOL    HW228024   1.728   6.586   5.859
75398SOL     OW28025   1.769   6.576  10.695
75398SOL    HW128026   1.718   6.550  10.618
75398SOL    HW228027   1.717   6.645  10.737
75399SOL     OW28028   8.964  10.060   8.503
75399SOL    HW128029   8.944  10.047   8.596
75399SOL    HW228030   8.994   9.974   8.473
75400SOL     OW28031  11.804   2.327   7.293
75400SOL    HW128032  11.751   2.390   7.244
75400SOL    HW228033  11.742   2.259   7.319
75401SOL     OW28034   0.168   5.439   4.661
75401SOL    HW128035   0.150   5.489   4.741
75401SOL    HW228036   0.242   5.484   4.621
75402SOL     OW28037   2.958   4.648   4.860
75402SOL    HW128038   2.984   4.737   4.882
75402SOL    HW228039   2.929   4.654   4.769
75403SOL     OW28040   0.011   5.779  12.445
75403SOL    HW128041   0.041   5.868  12.465
75403SOL    HW228042   0.080   5.743  12.389
75404SOL     OW28043  13.289   9.357   7.790
75404SOL    HW128044  13.350   9.328   7.857
75404SOL    HW228045  13.248   9.277   7.759
75405SOL     OW28046   5.514   5.092  12.768
75405SOL    HW128047   5.473   5.116  12.685
75405SOL    HW228048   5.565   5.169  12.793
75406SOL     OW28049   1.723   3.594   9.431
75406SOL    HW128050   1.804   3.551   9.406
75406SOL    HW228051   1.750   3.675   9.474
75407SOL     OW28052   6.694   4.241  12.191
75407SOL    HW128053   6.630   4.197  12.247
75407SOL    HW228054   6.660   4.330  12.181
75408SOL     OW28055   5.720   4.346  12.709
75408SOL    HW128056   5.629   4.324  12.689
75408SOL    HW228057   5.715   4.430  12.756
75409SOL     OW28058   5.069  10.827   0.020
75409SOL    HW128059   5.073  10.762   0.090
75409SOL    HW228060   5.136  10.892   0.043
75410SOL     OW28061   5.257  13.250   1.205
75410SOL    HW128062   5.223  13.284   1.122
75410SOL    HW228063   5.325  13.188   1.179
75411SOL     OW28064   4.962   4.718   3.968
75411SOL    HW128065   4.966   4.734   4.062
75411SOL    HW228066   4.871   4.736   3.945
75412SOL     OW28067   7.639  14.287   5.726
75412SOL    HW128068   7.664  14.245   5.808
75412SOL    HW228069   7.545  14.304   5.735
75413SOL     OW28070   0.753   7.562   2.452
75413SOL    HW128071   0.760   7.492   2.386
75413SOL    HW228072   0.788   7.523   2.532
75414SOL     OW28073  13.028   6.908  10.905
75414SOL    HW128074  13.037   6.971  10.977
75414SOL    HW228075  13.048   6.823  10.945
75415SOL     OW28076  11.386   5.915  13.500
75415SOL    HW128077  11.301   5.913  13.545
75415SOL    HW228078  11.371   5.971  13.424
75416SOL     OW28079   2.933  10.671   8.387
75416SOL    HW128080   2.948  10.750   8.439
75416SOL    HW228081   2.917  10.602   8.451
75417SOL     OW28082   3.759   8.709   5.162
75417SOL    HW128083   3.844   8.694   5.203
75417SOL    HW228084   3.751   8.804   5.155
75418SOL     OW28085   2.627   2.570   0.195
75418SOL    HW128086   2.614   2.663   0.215
75418SOL    HW228087   2.538   2.533   0.197
75419SOL     OW28088   2.022  10.515   3.994
75419SOL    HW128089   1.979  10.599   3.985
75419SOL    HW228090   2.099  10.533   4.049
75420SOL     OW28091   1.094   5.673  14.066
75420SOL    HW128092   1.154   5.605  14.035
75420SOL    HW228093   1.011   5.627  14.080
75421SOL     OW28094   5.096   5.949   8.323
75421SOL    HW128095   5.163   5.885   8.347
75421SOL    HW228096   5.111   5.966   8.230
75422SOL     OW28097   0.654  13.898  12.827
75422SOL    HW128098   0.685  13.987  12.812
75422SOL    HW228099   0.583  13.907  12.890
75423SOL     OW28100  13.700  10.771  10.913
75423SOL    HW128101  13.681  10.816  10.995
75423SOL    HW228102  13.711  10.842  10.849
75424SOL     OW28103   6.322   0.419   2.231
75424SOL    HW128104   6.408   0.442   2.198
75424SOL    HW228105   6.337   0.391   2.321
75425SOL     OW28106   6.186   0.789   7.888
75425SOL    HW128107   6.200   0.707   7.936
75425SOL    HW228108   6.173   0.855   7.956
75426SOL     OW28109  14.149   6.279   7.077
75426SOL    HW128110  14.137   6.194   7.120
75426SOL    HW228111  14.163   6.257   6.985
75427SOL     OW28112   2.403  10.012   7.097
75427SOL    HW128113   2.361  10.085   7.051
75427SOL    HW228114   2.460  10.053   7.162
75428SOL     OW28115  13.564   2.580   9.945
75428SOL    HW128116  13.659   2.585   9.939
75428SOL    HW228117  13.547   2.507  10.004
75429SOL     OW28118  13.579   5.656   1.695
75429SOL    HW128119  13.584   5.726   1.761
75429SOL    HW228120  13.625   5.582   1.734
75430SOL     OW28121  13.438   0.709  14.263
75430SOL    HW128122  13.458   0.733  14.354
75430SOL    HW228123  13.350   0.672  14.267
75431SOL     OW28124   7.412   5.181   5.580
75431SOL    HW128125   7.370   5.254   5.534
75431SOL    HW228126   7.370   5.103   5.543
75432SOL     OW28127  13.168  11.519   5.439
75432SOL    HW128128  13.125  11.596   5.402
75432SOL    HW228129  13.160  11.452   5.371
75433SOL     OW28130   3.801   5.917   8.961
75433SOL    HW128131   3.799   5.858   9.037
75433SOL    HW228132   3.740   5.877   8.898
75434SOL     OW28133  14.002   6.031  12.154
75434SOL    HW128134  13.920   5.993  12.124
75434SOL    HW228135  13.990   6.045  12.248
75435SOL     OW28136   6.050   7.917  11.886
75435SOL    HW128137   6.115   7.980  11.857
75435SOL    HW228138   5.992   7.906  11.811
75436SOL     OW28139   9.482   1.210   4.288
75436SOL    HW128140   9.508   1.130   4.243
75436SOL    HW228141   9.526   1.205   4.373
75437SOL     OW28142   9.454   8.587   8.294
75437SOL    HW128143   9.400   8.601   8.372
75437SOL    HW228144   9.510   8.514   8.316
75438SOL     OW28145  10.857   9.897   2.355
75438SOL    HW128146  10.864   9.802   2.341
75438SOL    HW228147  10.795   9.927   2.289
75439SOL     OW28148   7.987  10.193   2.055
75439SOL    HW128149   7.985  10.123   2.120
75439SOL    HW228150   8.078  10.221   2.052
75440SOL     OW28151  13.575  12.212  11.220
75440SOL    HW128152  13.586  12.164  11.138
75440SOL    HW228153  13.659  12.254  11.235
75441SOL     OW28154   8.294  10.739  11.904
75441SOL    HW128155   8.266  10.790  11.829
75441SOL    HW228156   8.323  10.804  11.968
75442SOL     OW28157   0.924   1.294  14.381
75442SOL    HW128158   0.877   1.214  14.406
75442SOL    HW228159   0.878   1.325  14.303
75443SOL     OW28160  14.597   0.397   0.971
75443SOL    HW128161  14.685   0.399   0.934
75443SOL    HW228162  14.595   0.318   1.025
75444SOL     OW28163   5.749  11.119  11.006
75444SOL    HW128164   5.692  11.076  10.942
75444SOL    HW228165   5.688  11.161  11.068
75445SOL     OW28166   9.946   7.916  11.063
75445SOL    HW128167   9.853   7.914  11.085
75445SOL    HW228168   9.981   7.835  11.098
75446SOL     OW28169  11.650  11.132   3.226
75446SOL    HW128170  11.632  11.219   3.190
75446SOL    HW228171  11.594  11.125   3.303
75447SOL     OW28172   1.077  11.414  14.714
75447SOL    HW128173   1.000  11.391  14.767
75447SOL    HW228174   1.076  11.510  14.710
75448SOL     OW28175   8.027   5.279   4.898
75448SOL    HW128176   8.114   5.319   4.910
75448SOL    HW228177   7.982   5.296   4.981
75449SOL     OW28178   2.479   2.158   7.839
75449SOL    HW128179   2.395   2.115   7.852
75449SOL    HW228180   2.458   2.240   7.795
75450SOL     OW28181   5.356   2.764   8.595
75450SOL    HW128182   5.278   2.730   8.638
75450SOL    HW228183   5.322   2.808   8.517
75451SOL     OW28184  11.010   4.773   3.635
75451SOL    HW128185  11.038   4.763   3.545
75451SOL    HW228186  10.920   4.739   3.636
75452SOL     OW28187  10.965   0.674   0.793
75452SOL    HW128188  10.918   0.665   0.876
75452SOL    HW228189  11.013   0.756   0.801
75453SOL     OW28190   1.488   0.340   5.334
75453SOL    HW128191   1.434   0.386   5.270
75453SOL    HW228192   1.546   0.285   5.282
75454SOL     OW28193  11.823   3.263   5.808
75454SOL    HW128194  11.856   3.348   5.837
75454SOL    HW228195  11.754   3.284   5.745
75455SOL     OW28196   6.724  13.392   5.952
75455SOL    HW128197   6.705  13.481   5.921
75455SOL    HW228198   6.799  13.364   5.900
75456SOL     OW28199  11.565   7.425  14.230
75456SOL    HW128200  11.653   7.443  14.263
75456SOL    HW228201  11.574   7.344  14.180
75457SOL     OW28202   0.913   6.796   7.355
75457SOL    HW128203   0.902   6.888   7.381
75457SOL    HW228204   1.005   6.777   7.373
75458SOL     OW28205   6.382   9.775  14.415
75458SOL    HW128206   6.430   9.753  14.495
75458SOL    HW228207   6.340   9.859  14.435
75459SOL     OW28208  13.993  13.193   0.647
75459SOL    HW128209  14.072  13.214   0.597
75459SOL    HW228210  13.956  13.279   0.669
75460SOL     OW28211  11.298   3.483   1.276
75460SOL    HW128212  11.237   3.468   1.203
75460SOL    HW228213  11.372   3.530   1.237
75461SOL     OW28214   6.033   2.323   1.343
75461SOL    HW128215   6.027   2.411   1.306
75461SOL    HW228216   6.059   2.268   1.269
75462SOL     OW28217   1.729   1.439   3.768
75462SOL    HW128218   1.650   1.437   3.822
75462SOL    HW228219   1.762   1.349   3.769
75463SOL     OW28220   7.407  14.471  14.565
75463SOL    HW128221   7.317  14.499  14.549
75463SOL    HW228222   7.449  14.478  14.479
75464SOL     OW28223  13.325   2.925   1.254
75464SOL    HW128224  13.420   2.929   1.265
75464SOL    HW228225  13.298   3.017   1.246
75465SOL     OW28226   5.596   3.974  11.416
75465SOL    HW128227   5.667   3.922  11.379
75465SOL    HW228228   5.626   3.996  11.504
75466SOL     OW28229  11.882   1.791   3.857
75466SOL    HW128230  11.860   1.883   3.844
75466SOL    HW228231  11.819   1.744   3.803
75467SOL     OW28232  12.297  13.138  12.954
75467SOL    HW128233  12.229  13.107  13.014
75467SOL    HW228234  12.337  13.212  13.001
75468SOL     OW28235   3.013  13.492   0.195
75468SOL    HW128236   3.090  13.477   0.141
75468SOL    HW228237   3.036  13.568   0.249
75469SOL     OW28238   6.539   9.558   1.787
75469SOL    HW128239   6.576   9.613   1.718
75469SOL    HW228240   6.602   9.564   1.859
75470SOL     OW28241   5.514   9.108   1.628
75470SOL    HW128242   5.534   9.142   1.716
75470SOL    HW228243   5.495   9.186   1.576
75471SOL     OW28244   9.578   0.959   3.759
75471SOL    HW128245   9.665   0.926   3.782
75471SOL    HW228246   9.526   0.946   3.838
75472SOL     OW28247  14.102  13.462  13.186
75472SOL    HW128248  14.077  13.425  13.270
75472SOL    HW228249  14.025  13.510  13.156
75473SOL     OW28250   5.199   9.945  12.835
75473SOL    HW128251   5.157   9.884  12.895
75473SOL    HW228252   5.280   9.970  12.879
75474SOL     OW28253   2.172  10.773   6.447
75474SOL    HW128254   2.120  10.808   6.519
75474SOL    HW228255   2.135  10.686   6.431
75475SOL     OW28256  12.009   7.832  10.342
75475SOL    HW128257  11.923   7.816  10.381
75475SOL    HW228258  12.066   7.765  10.381
75476SOL     OW28259   5.382   3.423   8.568
75476SOL    HW128260   5.442   3.350   8.558
75476SOL    HW228261   5.438   3.500   8.578
75477SOL     OW28262   6.253   8.298   0.932
75477SOL    HW128263   6.223   8.208   0.946
75477SOL    HW228264   6.188   8.352   0.977
75478SOL     OW28265   7.161   8.435   8.395
75478SOL    HW128266   7.079   8.465   8.356
75478SOL    HW228267   7.205   8.515   8.424
75479SOL     OW28268   1.859   9.341   0.163
75479SOL    HW128269   1.931   9.359   0.224
75479SOL    HW228270   1.816   9.425   0.151
75480SOL     OW28271   9.059   3.986  11.125
75480SOL    HW128272   9.013   3.905  11.148
75480SOL    HW228273   9.136   3.986  11.181
75481SOL     OW28274   8.185   6.630   7.956
75481SOL    HW128275   8.102   6.670   7.930
75481SOL    HW228276   8.211   6.679   8.034
75482SOL     OW28277   0.831   0.743   3.324
75482SOL    HW128278   0.909   0.799   3.321
75482SOL    HW228279   0.848   0.675   3.258
75483SOL     OW28280  13.392  13.837   8.814
75483SOL    HW128281  13.437  13.805   8.736
75483SOL    HW228282  13.300  13.813   8.798
75484SOL     OW28283   3.370   8.090  14.709
75484SOL    HW128284   3.418   8.010  14.689
75484SOL    HW228285   3.318   8.107  14.630
75485SOL     OW28286  14.563  12.249   9.196
75485SOL    HW128287  14.636  12.232   9.256
75485SOL    HW228288  14.577  12.189   9.124
75486SOL     OW28289   9.347  13.429  12.105
75486SOL    HW128290   9.362  13.432  12.199
75486SOL    HW228291   9.351  13.336  12.083
75487SOL     OW28292   9.184  11.505  12.266
75487SOL    HW128293   9.213  11.429  12.318
75487SOL    HW228294   9.244  11.508  12.192
75488SOL     OW28295   3.123  11.577  11.931
75488SOL    HW128296   3.161  11.489  11.927
75488SOL    HW228297   3.191  11.635  11.897
75489SOL     OW28298  14.036  12.731  14.622
75489SOL    HW128299  14.116  12.783  14.624
75489SOL    HW228300  14.039  12.676  14.700
75490SOL     OW28301   6.912  14.833   5.183
75490SOL    HW128302   6.917  14.790   5.268
75490SOL    HW228303   6.938   0.051   5.200
75491SOL     OW28304   8.336   8.037   5.174
75491SOL    HW128305   8.291   7.971   5.120
75491SOL    HW228306   8.427   8.006   5.177
75492SOL     OW28307   5.653   8.593   0.783
75492SOL    HW128308   5.658   8.559   0.693
75492SOL    HW228309   5.743   8.592   0.814
75493SOL     OW28310   4.335   9.611   0.314
75493SOL    HW128311   4.328   9.703   0.290
75493SOL    HW228312   4.310   9.608   0.407
75494SOL     OW28313   3.883   3.490   2.323
75494SOL    HW128314   3.939   3.456   2.254
75494SOL    HW228315   3.826   3.553   2.279
75495SOL     OW28316   1.662  10.898   4.984
75495SOL    HW128317   1.693  10.982   5.019
75495SOL    HW228318   1.741  10.844   4.978
75496SOL     OW28319   6.982   5.922   3.221
75496SOL    HW128320   6.931   5.989   3.175
75496SOL    HW228321   6.918   5.854   3.242
75497SOL     OW28322  10.502  13.691   7.728
75497SOL    HW128323  10.458  13.757   7.781
75497SOL    HW228324  10.574  13.737   7.686
75498SOL     OW28325   1.063   2.751   4.454
75498SOL    HW128326   1.014   2.672   4.434
75498SOL    HW228327   1.089   2.742   4.546
75499SOL     OW28328  12.133  12.141   2.075
75499SOL    HW128329  12.054  12.177   2.035
75499SOL    HW228330  12.136  12.179   2.163
75500SOL     OW28331   7.357   9.769  12.668
75500SOL    HW128332   7.330   9.681  12.691
75500SOL    HW228333   7.447   9.775  12.700
75501SOL     OW28334   5.905   4.283   7.394
75501SOL    HW128335   5.881   4.347   7.327
75501SOL    HW228336   5.821   4.248   7.424
75502SOL     OW28337   0.064  11.209  12.526
75502SOL    HW128338   0.119  11.245  12.455
75502SOL    HW228339   0.056  11.280  12.589
75503SOL     OW28340  11.662  12.175   3.854
75503SOL    HW128341  11.618  12.246   3.901
75503SOL    HW228342  11.709  12.219   3.783
75504SOL     OW28343   5.952   3.828   3.912
75504SOL    HW128344   5.924   3.863   3.997
75504SOL    HW228345   5.891   3.757   3.894
75505SOL     OW28346   4.351   2.985  10.639
75505SOL    HW128347   4.272   3.005  10.590
75505SOL    HW228348   4.421   3.033  10.594
75506SOL     OW28349   0.756   2.136   2.774
75506SOL    HW128350   0.673   2.103   2.808
75506SOL    HW228351   0.822   2.105   2.836
75507SOL     OW28352   7.273   9.228   4.860
75507SOL    HW128353   7.185   9.202   4.889
75507SOL    HW228354   7.318   9.255   4.940
75508SOL     OW28355   1.229   2.272  10.731
75508SOL    HW128356   1.167   2.310  10.668
75508SOL    HW228357   1.179   2.202  10.774
75509SOL     OW28358  11.978  10.271  10.174
75509SOL    HW128359  11.936  10.190  10.202
75509SOL    HW228360  11.995  10.258  10.080
75510SOL     OW28361  14.835  14.387  10.765
75510SOL    HW128362  14.825  14.294  10.747
75510SOL    HW228363  14.748  14.415  10.795
75511SOL     OW28364   8.441   7.539   1.511
75511SOL    HW128365   8.469   7.472   1.448
75511SOL    HW228366   8.517   7.595   1.522
75512SOL     OW28367  11.999   9.269   4.534
75512SOL    HW128368  11.946   9.277   4.613
75512SOL    HW228369  12.014   9.175   4.525
75513SOL     OW28370   1.180   0.594  12.115
75513SOL    HW128371   1.168   0.593  12.210
75513SOL    HW228372   1.228   0.514  12.096
75514SOL     OW28373   0.391   9.288   5.710
75514SOL    HW128374   0.416   9.250   5.626
75514SOL    HW228375   0.474   9.305   5.754
75515SOL     OW28376   9.973   9.139   0.066
75515SOL    HW128377  10.050   9.184   0.030
75515SOL    HW228378  10.000   9.111   0.153
75516SOL     OW28379   8.221   7.376   9.218
75516SOL    HW128380   8.206   7.355   9.126
75516SOL    HW228381   8.280   7.307   9.249
75517SOL     OW28382   4.295   6.179   6.027
75517SOL    HW128383   4.215   6.222   6.056
75517SOL    HW228384   4.365   6.232   6.065
75518SOL     OW28385  11.017   1.573   6.175
75518SOL    HW128386  11.031   1.641   6.241
75518SOL    HW228387  10.983   1.620   6.098
75519SOL     OW28388   3.872  14.599   5.697
75519SOL    HW128389   3.794  14.552   5.667
75519SOL    HW228390   3.942  14.567   5.641
75520SOL     OW28391   0.998   4.345  12.719
75520SOL    HW128392   0.913   4.311  12.694
75520SOL    HW228393   1.000   4.434  12.684
75521SOL     OW28394   2.601   4.046  11.383
75521SOL    HW128395   2.572   3.959  11.410
75521SOL    HW228396   2.525   4.085  11.341
75522SOL     OW28397  14.375   6.208   2.118
75522SOL    HW128398  14.450   6.203   2.059
75522SOL    HW228399  14.366   6.120   2.154
75523SOL     OW28400  13.573   2.283   7.776
75523SOL    HW128401  13.576   2.236   7.860
75523SOL    HW228402  13.575   2.376   7.801
75524SOL     OW28403   3.578   6.037   5.819
75524SOL    HW128404   3.518   6.047   5.893
75524SOL    HW228405   3.524   6.048   5.742
75525SOL     OW28406  14.612   2.855   1.263
75525SOL    HW128407  14.610   2.883   1.355
75525SOL    HW228408  14.524   2.875   1.231
75526SOL     OW28409   6.564   5.981   6.798
75526SOL    HW128410   6.472   6.009   6.802
75526SOL    HW228411   6.613   6.063   6.789
75527SOL     OW28412  13.650   4.053  10.358
75527SOL    HW128413  13.570   4.043  10.305
75527SOL    HW228414  13.640   4.138  10.401
75528SOL     OW28415  13.268   1.973   9.686
75528SOL    HW128416  13.219   1.933   9.614
75528SOL    HW228417  13.297   2.057   9.651
75529SOL     OW28418   1.833   1.040   4.713
75529SOL    HW128419   1.743   1.025   4.684
75529SOL    HW228420   1.850   1.132   4.692
75530SOL     OW28421  12.779  14.119   6.215
75530SOL    HW128422  12.858  14.157   6.254
75530SOL    HW228423  12.771  14.033   6.255
75531SOL     OW28424   8.003  11.208   7.866
75531SOL    HW128425   8.029  11.175   7.952
75531SOL    HW228426   7.908  11.205   7.868
75532SOL     OW28427  11.024  14.524  13.063
75532SOL    HW128428  10.947  14.533  13.120
75532SOL    HW228429  10.990  14.541  12.975
75533SOL     OW28430  11.231  13.831   2.648
75533SOL    HW128431  11.299  13.822   2.715
75533SOL    HW228432  11.226  13.925   2.631
75534SOL     OW28433   1.093  11.406  14.433
75534SOL    HW128434   1.174  11.355  14.428
75534SOL    HW228435   1.065  11.399  14.524
75535SOL     OW28436   7.659  12.792   8.962
75535SOL    HW128437   7.574  12.830   8.982
75535SOL    HW228438   7.691  12.843   8.888
75536SOL     OW28439  10.571  10.443  14.539
75536SOL    HW128440  10.588  10.537  14.533
75536SOL    HW228441  10.571  10.425  14.633
75537SOL     OW28442  11.526   0.758   1.540
75537SOL    HW128443  11.530   0.712   1.624
75537SOL    HW228444  11.581   0.705   1.482
75538SOL     OW28445   0.091  12.106   0.480
75538SOL    HW128446   0.048  12.075   0.400
75538SOL    HW228447   0.182  12.076   0.472
75539SOL     OW28448   2.152  14.246   8.864
75539SOL    HW128449   2.202  14.293   8.930
75539SOL    HW228450   2.062  14.277   8.874
75540SOL     OW28451   3.385   0.787  11.206
75540SOL    HW128452   3.334   0.722  11.159
75540SOL    HW228453   3.361   0.870  11.165
75541SOL     OW28454   0.686   6.804   1.481
75541SOL    HW128455   0.700   6.878   1.540
75541SOL    HW228456   0.591   6.802   1.467
75542SOL     OW28457   5.497  12.059  11.907
75542SOL    HW128458   5.582  12.081  11.868
75542SOL    HW228459   5.491  11.964  11.900
75543SOL     OW28460  14.326  14.037   3.113
75543SOL    HW128461  14.332  14.009   3.021
75543SOL    HW228462  14.236  14.016   3.139
75544SOL     OW28463   2.666  14.670  14.679
75544SOL    HW128464   2.732  14.701  14.741
75544SOL    HW228465   2.710  14.601  14.630
75545SOL     OW28466   1.636   0.778   5.248
75545SOL    HW128467   1.693   0.702   5.239
75545SOL    HW228468   1.669   0.841   5.183
75546SOL     OW28469  14.194   1.156   9.690
75546SOL    HW128470  14.290   1.160   9.684
75546SOL    HW228471  14.178   1.094   9.762
75547SOL     OW28472   8.883   3.273   9.301
75547SOL    HW128473   8.871   3.349   9.245
75547SOL    HW228474   8.912   3.308   9.384
75548SOL     OW28475  12.458   7.115  12.199
75548SOL    HW128476  12.416   7.116  12.284
75548SOL    HW228477  12.444   7.026  12.166
75549SOL     OW28478   5.285   2.547   0.557
75549SOL    HW128479   5.305   2.476   0.496
75549SOL    HW228480   5.308   2.626   0.509
75550SOL     OW28481  11.010   9.122  12.834
75550SOL    HW128482  10.999   9.033  12.800
75550SOL    HW228483  10.996   9.113  12.928
75551SOL     OW28484   5.767  10.924   5.279
75551SOL    HW128485   5.846  10.871   5.284
75551SOL    HW228486   5.786  10.989   5.211
75552SOL     OW28487   0.537  10.953   0.885
75552SOL    HW128488   0.539  11.048   0.877
75552SOL    HW228489   0.472  10.936   0.953
75553SOL     OW28490   2.264   0.785  13.362
75553SOL    HW128491   2.314   0.803  13.282
75553SOL    HW228492   2.207   0.861  13.371
75554SOL     OW28493   0.723  13.880   1.832
75554SOL    HW128494   0.667  13.889   1.755
75554SOL    HW228495   0.681  13.811   1.884
75555SOL     OW28496  12.893   3.694   4.724
75555SOL    HW128497  12.821   3.645   4.763
75555SOL    HW228498  12.863   3.716   4.636
75556SOL     OW28499   9.442   8.207  10.488
75556SOL    HW128500   9.473   8.189  10.399
75556SOL    HW228501   9.372   8.143  10.502
75557SOL     OW28502   5.512   0.353  14.246
75557SOL    HW128503   5.542   0.415  14.312
75557SOL    HW228504   5.430   0.390  14.213
75558SOL     OW28505  11.544  14.850   8.485
75558SOL    HW128506  11.541  14.767   8.532
75558SOL    HW228507  11.483  14.839   8.412
75559SOL     OW28508   2.566   9.447  10.061
75559SOL    HW128509   2.490   9.389  10.064
75559SOL    HW228510   2.529   9.534  10.075
75560SOL     OW28511   6.714   2.664  11.185
75560SOL    HW128512   6.618   2.668  11.176
75560SOL    HW228513   6.746   2.719  11.113
75561SOL     OW28514  14.111  11.382   7.262
75561SOL    HW128515  14.050  11.361   7.332
75561SOL    HW228516  14.120  11.300   7.213
75562SOL     OW28517   2.177  13.633   9.405
75562SOL    HW128518   2.216  13.663   9.324
75562SOL    HW228519   2.113  13.567   9.379
75563SOL     OW28520  11.958   8.107   7.494
75563SOL    HW128521  11.917   8.114   7.408
75563SOL    HW228522  11.945   8.016   7.520
75564SOL     OW28523   9.927  11.661  11.544
75564SOL    HW128524   9.882  11.742  11.519
75564SOL    HW228525  10.020  11.682  11.539
75565SOL     OW28526  10.538   7.654   1.797
75565SOL    HW128527  10.490   7.715   1.740
75565SOL    HW228528  10.470   7.600   1.838
75566SOL     OW28529   9.109   7.359  10.005
75566SOL    HW128530   9.186   7.306  10.027
75566SOL    HW228531   9.082   7.398  10.088
75567SOL     OW28532   5.289  12.428   9.317
75567SOL    HW128533   5.340  12.504   9.347
75567SOL    HW228534   5.283  12.371   9.393
75568SOL     OW28535  12.918  10.829  11.644
75568SOL    HW128536  12.918  10.746  11.692
75568SOL    HW228537  13.010  10.848  11.629
75569SOL     OW28538   7.959   4.576   4.728
75569SOL    HW128539   7.948   4.661   4.771
75569SOL    HW228540   7.876   4.530   4.743
75570SOL     OW28541   6.727   8.499  11.000
75570SOL    HW128542   6.766   8.431  10.944
75570SOL    HW228543   6.775   8.578  10.978
75571SOL     OW28544  14.813  10.972  10.459
75571SOL    HW128545  14.750  10.922  10.512
75571SOL    HW228546  14.782  11.062  10.462
75572SOL     OW28547   9.021   0.371   8.692
75572SOL    HW128548   9.017   0.380   8.596
75572SOL    HW228549   9.057   0.284   8.706
75573SOL     OW28550  11.532   4.750   4.305
75573SOL    HW128551  11.448   4.716   4.276
75573SOL    HW228552  11.592   4.730   4.234
75574SOL     OW28553  12.586   0.042  13.918
75574SOL    HW128554  12.536   0.041  13.836
75574SOL    HW228555  12.535   0.099  13.976
75575SOL     OW28556  13.214   4.903   5.627
75575SOL    HW128557  13.296   4.946   5.651
75575SOL    HW228558  13.159   4.974   5.593
75576SOL     OW28559  11.473   1.213   5.488
75576SOL    HW128560  11.565   1.208   5.460
75576SOL    HW228561  11.426   1.161   5.423
75577SOL     OW28562   2.909  11.024  13.392
75577SOL    HW128563   2.932  10.954  13.332
75577SOL    HW228564   2.937  11.104  13.348
75578SOL     OW28565   2.227   7.919  10.115
75578SOL    HW128566   2.224   7.938  10.021
75578SOL    HW228567   2.317   7.890  10.131
75579SOL     OW28568   2.790  14.237   5.859
75579SOL    HW128569   2.758  14.175   5.924
75579SOL    HW228570   2.711  14.270   5.817
75580SOL     OW28571   9.338   4.834   9.192
75580SOL    HW128572   9.339   4.805   9.284
75580SOL    HW228573   9.282   4.912   9.193
75581SOL     OW28574   5.806   0.325   9.320
75581SOL    HW128575   5.729   0.339   9.266
75581SOL    HW228576   5.776   0.271   9.392
75582SOL     OW28577  12.895   7.578  14.033
75582SOL    HW128578  12.946   7.594  14.113
75582SOL    HW228579  12.953   7.525  13.978
75583SOL     OW28580   2.102  13.258   0.138
75583SOL    HW128581   2.156  13.325   0.094
75583SOL    HW228582   2.017  13.264   0.095
75584SOL     OW28583   7.693   7.086   3.990
75584SOL    HW128584   7.714   7.006   3.940
75584SOL    HW228585   7.620   7.060   4.047
75585SOL     OW28586   7.349  10.118  14.837
75585SOL    HW128587   7.285  10.079  14.777
75585SOL    HW228588   7.323  10.085   0.051
75586SOL     OW28589   4.571   5.784   0.407
75586SOL    HW128590   4.587   5.877   0.394
75586SOL    HW228591   4.631   5.759   0.478
75587SOL     OW28592   9.106   8.647   6.879
75587SOL    HW128593   9.039   8.596   6.834
75587SOL    HW228594   9.058   8.702   6.941
75588SOL     OW28595   9.598   7.157   6.315
75588SOL    HW128596   9.619   7.217   6.386
75588SOL    HW228597   9.675   7.157   6.259
75589SOL     OW28598   5.902   6.295   2.254
75589SOL    HW128599   5.937   6.260   2.336
75589SOL    HW228600   5.844   6.227   2.222
75590SOL     OW28601  10.649   7.845   3.625
75590SOL    HW128602  10.613   7.798   3.550
75590SOL    HW228603  10.584   7.833   3.695
75591SOL     OW28604   9.785   0.238  10.631
75591SOL    HW128605   9.818   0.194  10.553
75591SOL    HW228606   9.858   0.293  10.661
75592SOL     OW28607   5.881   9.981   3.365
75592SOL    HW128608   5.880   9.888   3.387
75592SOL    HW228609   5.842  10.024   3.441
75593SOL     OW28610  10.113  12.348   8.131
75593SOL    HW128611  10.167  12.279   8.168
75593SOL    HW228612  10.172  12.397   8.074
75594SOL     OW28613   1.091   2.414   0.466
75594SOL    HW128614   1.153   2.461   0.522
75594SOL    HW228615   1.017   2.474   0.455
75595SOL     OW28616   3.619  14.726   6.054
75595SOL    HW128617   3.713  14.709   6.066
75595SOL    HW228618   3.614  14.819   6.033
75596SOL     OW28619   9.922   7.194   6.549
75596SOL    HW128620   9.962   7.154   6.472
75596SOL    HW228621   9.889   7.279   6.517
75597SOL     OW28622   9.933   1.032  13.956
75597SOL    HW128623   9.893   0.990  13.879
75597SOL    HW228624  10.027   1.027  13.940
75598SOL     OW28625   2.456   1.290  12.618
75598SOL    HW128626   2.551   1.288  12.631
75598SOL    HW228627   2.421   1.332  12.696
75599SOL     OW28628   5.041   4.807   1.828
75599SOL    HW128629   5.049   4.867   1.754
75599SOL    HW228630   4.951   4.777   1.826
75600SOL     OW28631   1.571  14.434   9.290
75600SOL    HW128632   1.637  14.384   9.242
75600SOL    HW228633   1.589  14.414   9.382
75601SOL     OW28634   9.044   9.220   2.303
75601SOL    HW128635   9.036   9.309   2.267
75601SOL    HW228636   9.124   9.223   2.355
75602SOL     OW28637  13.488  14.055   5.610
75602SOL    HW128638  13.579  14.080   5.593
75602SOL    HW228639  13.472  14.082   5.700
75603SOL     OW28640   0.627   2.930   4.324
75603SOL    HW128641   0.577   2.876   4.386
75603SOL    HW228642   0.599   3.019   4.342
75604SOL     OW28643   8.439   4.278   0.129
75604SOL    HW128644   8.478   4.361   0.155
75604SOL    HW228645   8.421   4.288   0.035
75605SOL     OW28646  10.802   8.039   3.569
75605SOL    HW128647  10.876   8.015   3.624
75605SOL    HW228648  10.733   7.976   3.592
75606SOL     OW28649  11.014   8.712   1.053
75606SOL    HW128650  11.008   8.799   1.013
75606SOL    HW228651  10.949   8.660   1.006
75607SOL     OW28652   9.688   4.894  10.388
75607SOL    HW128653   9.689   4.989  10.398
75607SOL    HW228654   9.669   4.881  10.295
75608SOL     OW28655   4.654  13.194   3.599
75608SOL    HW128656   4.560  13.181   3.605
75608SOL    HW228657   4.672  13.266   3.660
75609SOL     OW28658  10.778   6.093   4.348
75609SOL    HW128659  10.851   6.105   4.409
75609SOL    HW228660  10.820   6.062   4.267
75610SOL     OW28661   2.822   1.558   3.721
75610SOL    HW128662   2.802   1.550   3.815
75610SOL    HW228663   2.843   1.651   3.709
75611SOL     OW28664   5.868  12.095   7.068
75611SOL    HW128665   5.940  12.141   7.112
75611SOL    HW228666   5.808  12.071   7.139
75612SOL     OW28667   0.556  13.645  10.414
75612SOL    HW128668   0.525  13.717  10.359
75612SOL    HW228669   0.484  13.581  10.412
75613SOL     OW28670   6.652   9.384   4.302
75613SOL    HW128671   6.676   9.364   4.212
75613SOL    HW228672   6.593   9.312   4.328
75614SOL     OW28673   0.804   8.707   0.842
75614SOL    HW128674   0.795   8.759   0.762
75614SOL    HW228675   0.857   8.632   0.816
75615SOL     OW28676   1.480   2.540  10.897
75615SOL    HW128677   1.496   2.480  10.825
75615SOL    HW228678   1.455   2.622  10.856
75616SOL     OW28679   9.290  14.669   0.615
75616SOL    HW128680   9.244  14.591   0.584
75616SOL    HW228681   9.364  14.635   0.666
75617SOL     OW28682  14.366   0.742   0.961
75617SOL    HW128683  14.347   0.835   0.969
75617SOL    HW228684  14.376   0.727   0.867
75618SOL     OW28685   0.201   8.844   9.433
75618SOL    HW128686   0.141   8.917   9.451
75618SOL    HW228687   0.238   8.822   9.518
75619SOL     OW28688   5.492   5.009  14.581
75619SOL    HW128689   5.404   5.012  14.617
75619SOL    HW228690   5.541   4.953  14.641
75620SOL     OW28691  13.012   9.907   2.292
75620SOL    HW128692  12.966   9.938   2.370
75620SOL    HW228693  12.943   9.867   2.238
75621SOL     OW28694   8.809   2.426   4.485
75621SOL    HW128695   8.851   2.511   4.477
75621SOL    HW228696   8.877   2.363   4.459
75622SOL     OW28697  12.038   1.831   6.778
75622SOL    HW128698  12.104   1.841   6.709
75622SOL    HW228699  11.955   1.851   6.734
75623SOL     OW28700   0.022  10.836   0.315
75623SOL    HW128701   0.082  10.829   0.240
75623SOL    HW228702  14.810  10.858   0.276
75624SOL     OW28703  13.529   8.130  13.081
75624SOL    HW128704  13.541   8.206  13.139
75624SOL    HW228705  13.542   8.165  12.993
75625SOL     OW28706  12.212   3.745   6.583
75625SOL    HW128707  12.238   3.706   6.666
75625SOL    HW228708  12.166   3.674   6.537
75626SOL     OW28709   0.347   5.640   3.305
75626SOL    HW128710   0.408   5.614   3.375
75626SOL    HW228711   0.388   5.716   3.265
75627SOL     OW28712  12.127  14.860   7.583
75627SOL    HW128713  12.089  14.820   7.661
75627SOL    HW228714  12.206   0.031   7.615
75628SOL     OW28715   1.999   8.253  10.142
75628SOL    HW128716   2.051   8.206  10.207
75628SOL    HW228717   2.025   8.216  10.058
75629SOL     OW28718   7.588   9.090  11.760
75629SOL    HW128719   7.644   9.013  11.767
75629SOL    HW228720   7.507   9.064  11.804
75630SOL     OW28721  11.289   5.285   7.082
75630SOL    HW128722  11.266   5.297   6.990
75630SOL    HW228723  11.210   5.250   7.123
75631SOL     OW28724  12.675  11.320   2.159
75631SOL    HW128725  12.714  11.400   2.195
75631SOL    HW228726  12.613  11.351   2.093
75632SOL     OW28727  12.204  10.348  12.398
75632SOL    HW128728  12.279  10.403  12.422
75632SOL    HW228729  12.155  10.338  12.480
75633SOL     OW28730   5.846   0.442   9.670
75633SOL    HW128731   5.830   0.475   9.759
75633SOL    HW228732   5.858   0.348   9.681
75634SOL     OW28733  12.554  11.516  14.400
75634SOL    HW128734  12.487  11.453  14.376
75634SOL    HW228735  12.584  11.488  14.486
75635SOL     OW28736   7.072   6.466   3.497
75635SOL    HW128737   7.165   6.443   3.502
75635SOL    HW228738   7.029   6.403   3.555
75636SOL     OW28739  13.576   3.151   5.367
75636SOL    HW128740  13.594   3.226   5.311
75636SOL    HW228741  13.652   3.147   5.426
75637SOL     OW28742   3.587   7.363  11.829
75637SOL    HW128743   3.556   7.285  11.784
75637SOL    HW228744   3.629   7.331  11.908
75638SOL     OW28745  10.888  11.865  11.594
75638SOL    HW128746  10.932  11.840  11.675
75638SOL    HW228747  10.893  11.788  11.538
75639SOL     OW28748  11.928   0.357  10.624
75639SOL    HW128749  11.868   0.394  10.689
75639SOL    HW228750  11.939   0.426  10.559
75640SOL     OW28751   7.277  11.073   3.189
75640SOL    HW128752   7.190  11.060   3.228
75640SOL    HW228753   7.260  11.073   3.094
75641SOL     OW28754   6.022  14.460   2.602
75641SOL    HW128755   6.118  14.464   2.607
75641SOL    HW228756   5.999  14.378   2.645
75642SOL     OW28757   9.836   2.437  12.667
75642SOL    HW128758   9.758   2.418  12.718
75642SOL    HW228759   9.803   2.480  12.588
75643SOL     OW28760  11.010   6.038   0.756
75643SOL    HW128761  10.934   6.007   0.707
75643SOL    HW228762  11.030   5.966   0.817
75644SOL     OW28763   5.723  14.704  10.225
75644SOL    HW128764   5.701  14.620  10.183
75644SOL    HW228765   5.777  14.750  10.161
75645SOL     OW28766  13.372   3.857  13.828
75645SOL    HW128767  13.329   3.942  13.833
75645SOL    HW228768  13.334   3.815  13.750
75646SOL     OW28769   4.910   5.104  10.316
75646SOL    HW128770   4.867   5.021  10.296
75646SOL    HW228771   4.903   5.112  10.411
75647SOL     OW28772  10.057   5.420   3.413
75647SOL    HW128773  10.086   5.347   3.359
75647SOL    HW228774  10.113   5.493   3.386
75648SOL     OW28775  12.979   1.830   0.305
75648SOL    HW128776  12.934   1.903   0.349
75648SOL    HW228777  12.909   1.783   0.260
75649SOL     OW28778   4.252  11.791   5.232
75649SOL    HW128779   4.346  11.773   5.230
75649SOL    HW228780   4.219  11.743   5.308
75650SOL     OW28781   7.061   0.557  13.026
75650SOL    HW128782   7.057   0.570  13.121
75650SOL    HW228783   7.128   0.490  13.014
75651SOL     OW28784   0.703   2.139   5.717
75651SOL    HW128785   0.722   2.056   5.673
75651SOL    HW228786   0.788   2.167   5.752
75652SOL     OW28787   8.766   2.008   9.318
75652SOL    HW128788   8.790   1.951   9.245
75652SOL    HW228789   8.826   1.985   9.389
75653SOL     OW28790   1.328  14.409   6.574
75653SOL    HW128791   1.321  14.426   6.480
75653SOL    HW228792   1.265  14.468   6.614
75654SOL     OW28793  10.175   6.192   9.313
75654SOL    HW128794  10.090   6.149   9.322
75654SOL    HW228795  10.188   6.200   9.218
75655SOL     OW28796   8.134   4.221  12.840
75655SOL    HW128797   8.050   4.209  12.795
75655SOL    HW228798   8.116   4.288  12.905
75656SOL     OW28799  12.727   7.798  10.768
75656SOL    HW128800  12.681   7.845  10.698
75656SOL    HW228801  12.788   7.741  10.722
75657SOL     OW28802   2.595  11.932   9.368
75657SOL    HW128803   2.586  11.840   9.342
75657SOL    HW228804   2.662  11.967   9.309
75658SOL     OW28805   5.979   2.906   7.204
75658SOL    HW128806   6.059   2.951   7.177
75658SOL    HW228807   5.967   2.929   7.296
75659SOL     OW28808   8.650   9.308   9.126
75659SOL    HW128809   8.705   9.233   9.149
75659SOL    HW228810   8.608   9.333   9.208
75660SOL     OW28811  12.746   7.550   8.961
75660SOL    HW128812  12.762   7.619   8.897
75660SOL    HW228813  12.753   7.469   8.912
75661SOL     OW28814  12.098   4.902   6.205
75661SOL    HW128815  12.187   4.928   6.181
75661SOL    HW228816  12.101   4.896   6.301
75662SOL     OW28817   0.573   9.416  10.266
75662SOL    HW128818   0.599   9.476  10.337
75662SOL    HW228819   0.641   9.428  10.199
75663SOL     OW28820   8.090   7.163   7.362
75663SOL    HW128821   8.147   7.181   7.287
75663SOL    HW228822   8.118   7.077   7.393
75664SOL     OW28823  12.052   9.880   8.217
75664SOL    HW128824  11.980   9.824   8.247
75664SOL    HW228825  12.015   9.969   8.221
75665SOL     OW28826   2.597   3.995  14.600
75665SOL    HW128827   2.534   4.039  14.658
75665SOL    HW228828   2.553   3.993  14.515
75666SOL     OW28829  12.712  14.776  12.304
75666SOL    HW128830  12.789  14.833  12.308
75666SOL    HW228831  12.646  14.820  12.358
75667SOL     OW28832   0.472   9.952   1.177
75667SOL    HW128833   0.511   9.926   1.094
75667SOL    HW228834   0.501   9.885   1.239
75668SOL     OW28835  14.219   3.738   1.236
75668SOL    HW128836  14.140   3.706   1.279
75668SOL    HW228837  14.243   3.668   1.175
75669SOL     OW28838   8.158   9.870   2.382
75669SOL    HW128839   8.198   9.933   2.442
75669SOL    HW228840   8.142   9.792   2.435
75670SOL     OW28841  13.015   3.595  13.254
75670SOL    HW128842  13.012   3.653  13.178
75670SOL    HW228843  12.928   3.555  13.258
75671SOL     OW28844   5.845   4.183   1.905
75671SOL    HW128845   5.799   4.106   1.873
75671SOL    HW228846   5.931   4.180   1.864
75672SOL     OW28847   7.473   7.916   0.332
75672SOL    HW128848   7.406   7.979   0.307
75672SOL    HW228849   7.425   7.835   0.348
75673SOL     OW28850  14.751   7.504  14.497
75673SOL    HW128851  14.741   7.442  14.569
75673SOL    HW228852  14.770   7.449  14.421
75674SOL     OW28853   9.541  11.978   9.581
75674SOL    HW128854   9.551  11.925   9.502
75674SOL    HW228855   9.476  11.931   9.633
75675SOL     OW28856   2.915  14.778   1.405
75675SOL    HW128857   2.984  14.830   1.445
75675SOL    HW228858   2.872  14.838   1.344
75676SOL     OW28859  11.231   0.395   4.105
75676SOL    HW128860  11.190   0.332   4.164
75676SOL    HW228861  11.319   0.408   4.141
75677SOL     OW28862  14.175  13.183  10.292
75677SOL    HW128863  14.265  13.166  10.261
75677SOL    HW228864  14.120  13.160  10.217
75678SOL     OW28865  11.311  13.767   9.263
75678SOL    HW128866  11.380  13.705   9.285
75678SOL    HW228867  11.356  13.849   9.244
75679SOL     OW28868   5.998   5.615   2.993
75679SOL    HW128869   5.986   5.618   2.898
75679SOL    HW228870   6.055   5.690   3.012
75680SOL     OW28871   2.010  11.664   0.986
75680SOL    HW128872   2.010  11.610   1.066
75680SOL    HW228873   2.009  11.754   1.018
75681SOL     OW28874   5.712   9.296  12.991
75681SOL    HW128875   5.777   9.336  12.933
75681SOL    HW228876   5.730   9.333  13.077
75682SOL     OW28877   2.790   6.907  11.363
75682SOL    HW128878   2.827   6.994  11.350
75682SOL    HW228879   2.698   6.923  11.386
75683SOL     OW28880  12.660  13.617   7.429
75683SOL    HW128881  12.640  13.549   7.494
75683SOL    HW228882  12.751  13.600   7.404
75684SOL     OW28883  10.904   1.251   4.948
75684SOL    HW128884  10.842   1.187   4.982
75684SOL    HW228885  10.862   1.288   4.871
75685SOL     OW28886  13.251   4.574  12.067
75685SOL    HW128887  13.311   4.585  12.142
75685SOL    HW228888  13.164   4.584  12.105
75686SOL     OW28889   7.912   7.060   6.827
75686SOL    HW128890   7.845   7.128   6.822
75686SOL    HW228891   7.941   7.062   6.919
75687SOL     OW28892  14.107   7.290   6.954
75687SOL    HW128893  14.068   7.293   7.041
75687SOL    HW228894  14.197   7.320   6.967
75688SOL     OW28895  12.748  11.306  13.701
75688SOL    HW128896  12.672  11.248  13.703
75688SOL    HW228897  12.713  11.393  13.717
75689SOL     OW28898  10.920  10.231  14.676
75689SOL    HW128899  10.904  10.275  14.760
75689SOL    HW228900  11.015  10.232  14.666
75690SOL     OW28901  13.814   2.259  10.066
75690SOL    HW128902  13.900   2.258  10.108
75690SOL    HW228903  13.757   2.212  10.127
75691SOL     OW28904   4.965   0.529   8.164
75691SOL    HW128905   4.906   0.521   8.239
75691SOL    HW228906   4.918   0.484   8.093
75692SOL     OW28907   5.579   5.250   6.648
75692SOL    HW128908   5.674   5.234   6.642
75692SOL    HW228909   5.545   5.171   6.689
75693SOL     OW28910  12.798   1.804  11.780
75693SOL    HW128911  12.799   1.899  11.782
75693SOL    HW228912  12.726   1.782  11.721
75694SOL     OW28913  14.350   6.017   3.141
75694SOL    HW128914  14.282   6.083   3.130
75694SOL    HW228915  14.354   6.002   3.235
75695SOL     OW28916   7.733   6.285  13.780
75695SOL    HW128917   7.776   6.267  13.696
75695SOL    HW228918   7.669   6.353  13.760
75696SOL     OW28919   1.733   8.761   5.875
75696SOL    HW128920   1.795   8.699   5.836
75696SOL    HW228921   1.784   8.805   5.944
75697SOL     OW28922   9.065   8.281   7.658
75697SOL    HW128923   9.046   8.213   7.722
75697SOL    HW228924   9.024   8.360   7.693
75698SOL     OW28925  12.151   0.272   9.345
75698SOL    HW128926  12.079   0.256   9.407
75698SOL    HW228927  12.113   0.251   9.259
75699SOL     OW28928  10.448   9.327   3.376
75699SOL    HW128929  10.509   9.372   3.318
75699SOL    HW228930  10.503   9.271   3.431
75700SOL     OW28931   9.942  10.051   4.977
75700SOL    HW128932   9.908  10.062   5.066
75700SOL    HW228933   9.875  10.089   4.920
75701SOL     OW28934  10.481   1.218   1.626
75701SOL    HW128935  10.447   1.226   1.715
75701SOL    HW228936  10.543   1.291   1.617
75702SOL     OW28937   8.896   8.936   5.360
75702SOL    HW128938   8.802   8.917   5.369
75702SOL    HW228939   8.898   9.019   5.312
75703SOL     OW28940   2.576  12.271   6.647
75703SOL    HW128941   2.646  12.333   6.626
75703SOL    HW228942   2.499  12.326   6.663
75704SOL     OW28943   8.549   2.947  13.053
75704SOL    HW128944   8.533   3.030  13.008
75704SOL    HW228945   8.638   2.922  13.027
75705SOL     OW28946   2.532   8.272  10.796
75705SOL    HW128947   2.494   8.204  10.853
75705SOL    HW228948   2.460   8.334  10.782
75706SOL     OW28949   0.402   9.325  12.162
75706SOL    HW128950   0.387   9.382  12.086
75706SOL    HW228951   0.336   9.256  12.154
75707SOL     OW28952   1.661   7.165  12.934
75707SOL    HW128953   1.703   7.247  12.908
75707SOL    HW228954   1.722   7.096  12.908
75708SOL     OW28955   7.869  11.703  13.904
75708SOL    HW128956   7.933  11.661  13.846
75708SOL    HW228957   7.799  11.733  13.846
75709SOL     OW28958   8.419   0.667   7.525
75709SOL    HW128959   8.432   0.734   7.458
75709SOL    HW228960   8.507   0.637   7.547
75710SOL     OW28961   6.245   4.223   6.177
75710SOL    HW128962   6.267   4.230   6.084
75710SOL    HW228963   6.243   4.128   6.193
75711SOL     OW28964   9.405   5.411   3.103
75711SOL    HW128965   9.415   5.464   3.182
75711SOL    HW228966   9.317   5.373   3.111
75712SOL     OW28967   4.019   9.096   2.417
75712SOL    HW128968   4.047   9.162   2.354
75712SOL    HW228969   3.924   9.107   2.423
75713SOL     OW28970   5.954   0.862   8.201
75713SOL    HW128971   5.947   0.923   8.275
75713SOL    HW228972   6.046   0.862   8.178
75714SOL     OW28973   8.341  10.898  11.052
75714SOL    HW128974   8.340  10.948  11.133
75714SOL    HW228975   8.379  10.957  10.988
75715SOL     OW28976   0.322   0.426   3.241
75715SOL    HW128977   0.370   0.411   3.159
75715SOL    HW228978   0.363   0.367   3.304
75716SOL     OW28979  11.546  14.742   5.702
75716SOL    HW128980  11.575  14.831   5.682
75716SOL    HW228981  11.482  14.752   5.773
75717SOL     OW28982   5.739   8.413   3.924
75717SOL    HW128983   5.821   8.364   3.923
75717SOL    HW228984   5.672   8.347   3.905
75718SOL     OW28985  12.983   2.060   1.822
75718SOL    HW128986  12.994   2.152   1.798
75718SOL    HW228987  12.891   2.041   1.805
75719SOL     OW28988   6.298   2.337   2.315
75719SOL    HW128989   6.271   2.427   2.297
75719SOL    HW228990   6.338   2.340   2.401
75720SOL     OW28991   8.233   6.569   7.577
75720SOL    HW128992   8.149   6.525   7.593
75720SOL    HW228993   8.270   6.524   7.501
75721SOL     OW28994   4.227   4.481   3.557
75721SOL    HW128995   4.235   4.559   3.611
75721SOL    HW228996   4.193   4.414   3.616
75722SOL     OW28997   8.059  13.480  10.745
75722SOL    HW128998   7.965  13.460  10.743
75722SOL    HW228999   8.067  13.563  10.698
75723SOL     OW29000  11.932   9.991  10.217
75723SOL    HW129001  11.969   9.980  10.129
75723SOL    HW229002  11.900   9.903  10.240
75724SOL     OW29003   8.809   0.968   4.049
75724SOL    HW129004   8.767   0.883   4.058
75724SOL    HW229005   8.742   1.024   4.010
75725SOL     OW29006   9.525   5.701   0.412
75725SOL    HW129007   9.502   5.771   0.349
75725SOL    HW229008   9.448   5.646   0.416
75726SOL     OW29009  11.671  13.429  13.174
75726SOL    HW129010  11.632  13.375  13.105
75726SOL    HW229011  11.601  13.439  13.239
75727SOL     OW29012  14.599   6.266  11.200
75727SOL    HW129013  14.530   6.309  11.250
75727SOL    HW229014  14.561   6.253  11.113
75728SOL     OW29015   9.965   1.990   1.611
75728SOL    HW129016  10.052   1.968   1.579
75728SOL    HW229017   9.906   1.964   1.541
75729SOL     OW29018   0.532   0.732  13.662
75729SOL    HW129019   0.552   0.657  13.717
75729SOL    HW229020   0.451   0.709  13.617
75730SOL     OW29021   5.347  10.864   8.873
75730SOL    HW129022   5.429  10.823   8.846
75730SOL    HW229023   5.318  10.813   8.949
75731SOL     OW29024  14.593   4.702   9.995
75731SOL    HW129025  14.682   4.721   9.964
75731SOL    HW229026  14.588   4.607   9.999
75732SOL     OW29027   3.158   8.728   0.534
75732SOL    HW129028   3.107   8.736   0.615
75732SOL    HW229029   3.221   8.799   0.538
75733SOL     OW29030  14.323   5.863   4.355
75733SOL    HW129031  14.384   5.913   4.302
75733SOL    HW229032  14.344   5.887   4.446
75734SOL     OW29033  11.783   5.185   5.105
75734SOL    HW129034  11.720   5.143   5.048
75734SOL    HW229035  11.825   5.113   5.153
75735SOL     OW29036   0.005  14.238   6.940
75735SOL    HW129037   0.065  14.189   6.996
75735SOL    HW229038   0.002  14.187   6.859
75736SOL     OW29039   1.587  12.595  14.542
75736SOL    HW129040   1.642  12.674  14.542
75736SOL    HW229041   1.638  12.530  14.493
75737SOL     OW29042  14.591  13.974   2.379
75737SOL    HW129043  14.550  13.959   2.464
75737SOL    HW229044  14.670  13.920   2.380
75738SOL     OW29045   2.172   6.733   4.889
75738SOL    HW129046   2.110   6.779   4.946
75738SOL    HW229047   2.249   6.791   4.886
75739SOL     OW29048   3.518   5.035   4.956
75739SOL    HW129049   3.571   4.956   4.968
75739SOL    HW229050   3.512   5.047   4.862
75740SOL     OW29051  11.399  12.850  10.432
75740SOL    HW129052  11.387  12.758  10.456
75740SOL    HW229053  11.355  12.899  10.501
75741SOL     OW29054   8.484   9.521  14.128
75741SOL    HW129055   8.530   9.603  14.148
75741SOL    HW229056   8.513   9.498  14.040
75742SOL     OW29057   1.068   9.560   1.838
75742SOL    HW129058   1.118   9.602   1.908
75742SOL    HW229059   0.998   9.622   1.818
75743SOL     OW29060   2.332   6.028   7.561
75743SOL    HW129061   2.285   6.023   7.645
75743SOL    HW229062   2.303   6.111   7.522
75744SOL     OW29063   0.486   1.002   8.333
75744SOL    HW129064   0.459   0.912   8.314
75744SOL    HW229065   0.443   1.055   8.266
75745SOL     OW29066   0.715   5.643   5.618
75745SOL    HW129067   0.622   5.627   5.600
75745SOL    HW229068   0.732   5.730   5.583
75746SOL     OW29069   1.785  14.782  13.321
75746SOL    HW129070   1.867  14.807  13.279
75746SOL    HW229071   1.723  14.851  13.297
75747SOL     OW29072  11.767   6.294   0.844
75747SOL    HW129073  11.734   6.287   0.754
75747SOL    HW229074  11.689   6.300   0.898
75748SOL     OW29075   9.608   6.801   9.312
75748SOL    HW129076   9.690   6.801   9.263
75748SOL    HW229077   9.634   6.811   9.403
75749SOL     OW29078   0.720   7.470   0.213
75749SOL    HW129079   0.803   7.435   0.243
75749SOL    HW229080   0.699   7.420   0.134
75750SOL     OW29081   0.344   3.177   5.294
75750SOL    HW129082   0.319   3.269   5.300
75750SOL    HW229083   0.326   3.141   5.380
75751SOL     OW29084   6.698   2.279   3.122
75751SOL    HW129085   6.752   2.209   3.086
75751SOL    HW229086   6.620   2.234   3.155
75752SOL     OW29087  13.257   1.031  12.468
75752SOL    HW129088  13.331   1.025  12.529
75752SOL    HW229089  13.293   1.075  12.391
75753SOL     OW29090   5.032   1.624   3.326
75753SOL    HW129091   4.951   1.585   3.359
75753SOL    HW229092   5.083   1.643   3.405
75754SOL     OW29093  11.368   4.820  13.741
75754SOL    HW129094  11.401   4.791  13.656
75754SOL    HW229095  11.292   4.764  13.757
75755SOL     OW29096  11.229   0.999  12.519
75755SOL    HW129097  11.303   0.938  12.523
75755SOL    HW229098  11.228   1.030  12.428
75756SOL     OW29099  14.248   3.013   0.460
75756SOL    HW129100  14.172   3.000   0.403
75756SOL    HW229101  14.318   3.038   0.400
75757SOL     OW29102   0.147  10.899   8.816
75757SOL    HW129103   0.200  10.855   8.751
75757SOL    HW229104   0.090  10.957   8.766
75758SOL     OW29105   9.984  11.664   0.335
75758SOL    HW129106   9.978  11.568   0.332
75758SOL    HW229107  10.077  11.682   0.325
75759SOL     OW29108   4.838   9.086  10.831
75759SOL    HW129109   4.823   9.038  10.750
75759SOL    HW229110   4.772   9.155  10.831
75760SOL     OW29111   4.160   6.169   8.849
75760SOL    HW129112   4.202   6.157   8.934
75760SOL    HW229113   4.196   6.252   8.816
75761SOL     OW29114   6.473   3.664  11.870
75761SOL    HW129115   6.524   3.665  11.951
75761SOL    HW229116   6.485   3.752  11.833
75762SOL     OW29117  14.129   8.555  11.877
75762SOL    HW129118  14.158   8.501  11.950
75762SOL    HW229119  14.164   8.512  11.799
75763SOL     OW29120   3.856   7.108   4.456
75763SOL    HW129121   3.844   7.041   4.389
75763SOL    HW229122   3.903   7.178   4.413
75764SOL     OW29123   4.208   4.683   8.128
75764SOL    HW129124   4.262   4.615   8.086
75764SOL    HW229125   4.182   4.740   8.056
75765SOL     OW29126  12.165   5.537   0.252
75765SOL    HW129127  12.212   5.582   0.322
75765SOL    HW229128  12.222   5.462   0.230
75766SOL     OW29129   1.643  10.576   7.051
75766SOL    HW129130   1.666  10.484   7.038
75766SOL    HW229131   1.634  10.585   7.146
75767SOL     OW29132   3.825   5.756  12.715
75767SOL    HW129133   3.741   5.802  12.719
75767SOL    HW229134   3.890   5.826  12.720
75768SOL     OW29135   1.108   8.290   2.550
75768SOL    HW129136   1.117   8.352   2.477
75768SOL    HW229137   1.074   8.344   2.622
75769SOL     OW29138  12.814  12.068   4.074
75769SOL    HW129139  12.783  12.149   4.114
75769SOL    HW229140  12.829  12.009   4.147
75770SOL     OW29141  12.647   5.039  14.807
75770SOL    HW129142  12.687   5.059   0.020
75770SOL    HW229143  12.643   5.124  14.762
75771SOL     OW29144   7.030   8.686   8.613
75771SOL    HW129145   7.061   8.614   8.667
75771SOL    HW229146   7.098   8.698   8.547
75772SOL     OW29147  11.121  11.847   8.235
75772SOL    HW129148  11.166  11.931   8.228
75772SOL    HW229149  11.060  11.859   8.308
75773SOL     OW29150   2.691   1.343   2.035
75773SOL    HW129151   2.763   1.366   1.976
75773SOL    HW229152   2.711   1.389   2.117
75774SOL     OW29153   6.032   5.971  11.360
75774SOL    HW129154   6.079   6.045  11.323
75774SOL    HW229155   6.092   5.897  11.347
75775SOL     OW29156  11.523   6.498  10.865
75775SOL    HW129157  11.502   6.407  10.847
75775SOL    HW229158  11.601   6.495  10.920
75776SOL     OW29159  14.424   4.950  14.097
75776SOL    HW129160  14.450   4.951  14.189
75776SOL    HW229161  14.505   4.930  14.050
75777SOL     OW29162   4.213   6.785  13.773
75777SOL    HW129163   4.174   6.860  13.817
75777SOL    HW229164   4.142   6.750  13.719
75778SOL     OW29165  14.102   5.943   0.242
75778SOL    HW129166  14.192   5.912   0.247
75778SOL    HW229167  14.094   5.980   0.154
75779SOL     OW29168  12.392   5.535   1.701
75779SOL    HW129169  12.332   5.607   1.722
75779SOL    HW229170  12.479   5.570   1.720
75780SOL     OW29171   2.864   9.923  10.001
75780SOL    HW129172   2.887   9.841  10.045
75780SOL    HW229173   2.940   9.980  10.015
75781SOL     OW29174   4.961   9.080   8.947
75781SOL    HW129175   5.042   9.125   8.970
75781SOL    HW229176   4.895   9.116   9.007
75782SOL     OW29177   3.735   7.730   8.931
75782SOL    HW129178   3.700   7.737   9.020
75782SOL    HW229179   3.785   7.649   8.931
75783SOL     OW29180   2.986   0.544  11.903
75783SOL    HW129181   2.907   0.498  11.876
75783SOL    HW229182   2.953   0.623  11.947
75784SOL     OW29183   1.280  12.981  11.839
75784SOL    HW129184   1.207  12.978  11.901
75784SOL    HW229185   1.243  12.945  11.758
75785SOL     OW29186  10.535  12.432  13.191
75785SOL    HW129187  10.571  12.347  13.219
75785SOL    HW229188  10.594  12.460  13.121
75786SOL     OW29189  10.665   2.818  13.818
75786SOL    HW129190  10.712   2.891  13.859
75786SOL    HW229191  10.665   2.838  13.725
75787SOL     OW29192  12.503  10.045  13.138
75787SOL    HW129193  12.408  10.059  13.133
75787SOL    HW229194  12.528  10.014  13.051
75788SOL     OW29195   4.968   3.235   2.796
75788SOL    HW129196   4.873   3.244   2.787
75788SOL    HW229197   5.004   3.308   2.745
75789SOL     OW29198   6.247  10.723   7.266
75789SOL    HW129199   6.234  10.645   7.212
75789SOL    HW229200   6.255  10.689   7.355
75790SOL     OW29201  12.631   8.889   6.824
75790SOL    HW129202  12.541   8.870   6.849
75790SOL    HW229203  12.656   8.963   6.880
75791SOL     OW29204  13.706  12.054   8.324
75791SOL    HW129205  13.707  11.970   8.371
75791SOL    HW229206  13.622  12.055   8.278
75792SOL     OW29207   2.169   0.326   6.385
75792SOL    HW129208   2.145   0.280   6.304
75792SOL    HW229209   2.107   0.294   6.450
75793SOL     OW29210   4.169   4.422   0.933
75793SOL    HW129211   4.108   4.451   1.001
75793SOL    HW229212   4.136   4.460   0.852
75794SOL     OW29213   4.979  11.902  13.140
75794SOL    HW129214   5.072  11.881  13.133
75794SOL    HW229215   4.952  11.920  13.049
75795SOL     OW29216  12.942   7.696   2.772
75795SOL    HW129217  12.880   7.752   2.724
75795SOL    HW229218  13.028   7.735   2.753
75796SOL     OW29219   3.413  13.470   9.465
75796SOL    HW129220   3.398  13.424   9.548
75796SOL    HW229221   3.487  13.528   9.483
75797SOL     OW29222  14.737   1.013   3.124
75797SOL    HW129223  14.754   1.080   3.191
75797SOL    HW229224  14.680   1.057   3.061
75798SOL     OW29225  10.082   6.006   0.554
75798SOL    HW129226  10.012   6.046   0.605
75798SOL    HW229227  10.152   5.991   0.617
75799SOL     OW29228   9.499   7.779   6.144
75799SOL    HW129229   9.584   7.821   6.132
75799SOL    HW229230   9.439   7.851   6.164
75800SOL     OW29231   8.811   9.100   8.607
75800SOL    HW129232   8.798   9.019   8.655
75800SOL    HW229233   8.794   9.169   8.671
75801SOL     OW29234   7.926   1.168   4.227
75801SOL    HW129235   7.898   1.094   4.173
75801SOL    HW229236   7.865   1.238   4.206
75802SOL     OW29237  14.401  11.281   4.340
75802SOL    HW129238  14.388  11.366   4.382
75802SOL    HW229239  14.485  11.289   4.295
75803SOL     OW29240   1.170   9.404  12.677
75803SOL    HW129241   1.129   9.336  12.623
75803SOL    HW229242   1.104   9.424  12.744
75804SOL     OW29243   1.361  13.595   1.156
75804SOL    HW129244   1.322  13.592   1.244
75804SOL    HW229245   1.379  13.687   1.141
75805SOL     OW29246   0.830   7.744   6.971
75805SOL    HW129247   0.737   7.728   6.954
75805SOL    HW229248   0.870   7.658   6.967
75806SOL     OW29249   4.864   2.969   4.395
75806SOL    HW129250   4.938   3.005   4.444
75806SOL    HW229251   4.901   2.894   4.349
75807SOL     OW29252   9.538  14.369  14.846
75807SOL    HW129253   9.527  14.432   0.045
75807SOL    HW229254   9.451  14.365  14.805
75808SOL     OW29255   9.537   6.226  10.330
75808SOL    HW129256   9.526   6.281  10.253
75808SOL    HW229257   9.602   6.271  10.383
75809SOL     OW29258  13.554   4.470   5.598
75809SOL    HW129259  13.507   4.450   5.517
75809SOL    HW229260  13.506   4.422   5.666
75810SOL     OW29261  11.896   8.834  11.073
75810SOL    HW129262  11.872   8.824  11.165
75810SOL    HW229263  11.983   8.795  11.066
75811SOL     OW29264   7.814  12.380   8.633
75811SOL    HW129265   7.871  12.372   8.709
75811SOL    HW229266   7.800  12.474   8.622
75812SOL     OW29267   4.967   9.281   8.023
75812SOL    HW129268   4.993   9.201   8.069
75812SOL    HW229269   4.964   9.255   7.931
75813SOL     OW29270  12.006   5.664  12.465
75813SOL    HW129271  11.988   5.609  12.389
75813SOL    HW229272  12.004   5.604  12.539
75814SOL     OW29273   8.813   9.091   7.166
75814SOL    HW129274   8.842   9.003   7.190
75814SOL    HW229275   8.801   9.136   7.249
75815SOL     OW29276   5.241   9.061  11.408
75815SOL    HW129277   5.265   8.974  11.440
75815SOL    HW229278   5.222   9.111  11.487
75816SOL     OW29279  14.830   1.808  11.517
75816SOL    HW129280  14.763   1.786  11.582
75816SOL    HW229281  14.829   1.904  11.514
75817SOL     OW29282   9.049   2.183   9.503
75817SOL    HW129283   9.025   2.266   9.462
75817SOL    HW229284   9.141   2.170   9.479
75818SOL     OW29285   7.047   5.227   8.257
75818SOL    HW129286   6.968   5.219   8.310
75818SOL    HW229287   7.108   5.163   8.295
75819SOL     OW29288   8.697   8.102   8.829
75819SOL    HW129289   8.743   8.071   8.907
75819SOL    HW229290   8.614   8.136   8.862
75820SOL     OW29291   6.815   2.519   0.285
75820SOL    HW129292   6.746   2.552   0.342
75820SOL    HW229293   6.869   2.596   0.265
75821SOL     OW29294   5.428  14.339   5.495
75821SOL    HW129295   5.439  14.429   5.525
75821SOL    HW229296   5.387  14.347   5.409
75822SOL     OW29297  13.340   1.342   1.899
75822SOL    HW129298  13.347   1.301   1.812
75822SOL    HW229299  13.324   1.434   1.881
75823SOL     OW29300   5.198   4.606  13.670
75823SOL    HW129301   5.157   4.556  13.740
75823SOL    HW229302   5.166   4.565  13.589
75824SOL     OW29303   7.617   3.245   4.742
75824SOL    HW129304   7.614   3.315   4.677
75824SOL    HW229305   7.683   3.274   4.805
75825SOL     OW29306  14.422   1.663   8.230
75825SOL    HW129307  14.367   1.741   8.231
75825SOL    HW229308  14.419   1.631   8.320
75826SOL     OW29309  10.643  10.482   7.676
75826SOL    HW129310  10.645  10.388   7.661
75826SOL    HW229311  10.550  10.503   7.686
75827SOL     OW29312   7.009  10.683  12.062
75827SOL    HW129313   6.949  10.646  12.126
75827SOL    HW229314   7.033  10.768  12.099
75828SOL     OW29315  14.652   7.916   1.799
75828SOL    HW129316  14.704   7.835   1.797
75828SOL    HW229317  14.708   7.979   1.845
75829SOL     OW29318  11.184   6.000   9.302
75829SOL    HW129319  11.178   5.907   9.320
75829SOL    HW229320  11.277   6.022   9.314
75830SOL     OW29321  11.735  11.790   0.585
75830SOL    HW129322  11.675  11.830   0.647
75830SOL    HW229323  11.717  11.833   0.501
75831SOL     OW29324   8.119  14.838  10.558
75831SOL    HW129325   8.133  14.746  10.537
75831SOL    HW229326   8.033  14.840  10.601
75832SOL     OW29327   0.293   5.183   9.694
75832SOL    HW129328   0.315   5.099   9.654
75832SOL    HW229329   0.207   5.169   9.734
75833SOL     OW29330   7.721   5.269   3.647
75833SOL    HW129331   7.704   5.330   3.719
75833SOL    HW229332   7.773   5.200   3.687
75834SOL     OW29333  11.119   4.684   5.514
75834SOL    HW129334  11.184   4.710   5.448
75834SOL    HW229335  11.170   4.635   5.578
75835SOL     OW29336  13.430   3.192   0.892
75835SOL    HW129337  13.448   3.232   0.808
75835SOL    HW229338  13.370   3.119   0.872
75836SOL     OW29339   9.974  14.454  11.169
75836SOL    HW129340   9.914  14.410  11.230
75836SOL    HW229341   9.921  14.472  11.092
75837SOL     OW29342   8.160   2.123   0.731
75837SOL    HW129343   8.130   2.194   0.788
75837SOL    HW229344   8.117   2.045   0.766
75838SOL     OW29345   1.107  10.388  12.420
75838SOL    HW129346   1.187  10.344  12.450
75838SOL    HW229347   1.138  10.462  12.367
75839SOL     OW29348   6.840   0.356   0.016
75839SOL    HW129349   6.758   0.335   0.061
75839SOL    HW229350   6.833   0.450  14.868
75840SOL     OW29351   0.947   1.317  13.998
75840SOL    HW129352   0.871   1.314  14.057
75840SOL    HW229353   1.006   1.249  14.031
75841SOL     OW29354   8.079  13.561  13.513
75841SOL    HW129355   8.043  13.549  13.426
75841SOL    HW229356   8.160  13.510  13.514
75842SOL     OW29357  14.174  12.444   3.549
75842SOL    HW129358  14.175  12.539   3.542
75842SOL    HW229359  14.084  12.420   3.527
75843SOL     OW29360   3.582   7.073   9.388
75843SOL    HW129361   3.488   7.062   9.377
75843SOL    HW229362   3.621   6.997   9.346
75844SOL     OW29363   0.590   2.450   0.326
75844SOL    HW129364   0.661   2.514   0.318
75844SOL    HW229365   0.513   2.502   0.350
75845SOL     OW29366   6.481   6.283   0.100
75845SOL    HW129367   6.550   6.341   0.067
75845SOL    HW229368   6.529   6.208   0.137
75846SOL     OW29369   6.868  10.800  14.830
75846SOL    HW129370   6.936  10.740  14.801
75846SOL    HW229371   6.912  10.885  14.834
75847SOL     OW29372   3.888  14.122   2.615
75847SOL    HW129373   3.795  14.103   2.623
75847SOL    HW229374   3.892  14.208   2.573
75848SOL     OW29375   5.570   6.052   2.556
75848SOL    HW129376   5.638   6.116   2.535
75848SOL    HW229377   5.488   6.096   2.533
75849SOL     OW29378  13.755   5.272   5.351
75849SOL    HW129379  13.726   5.328   5.423
75849SOL    HW229380  13.811   5.329   5.298
75850SOL     OW29381   7.604   6.578   6.141
75850SOL    HW129382   7.653   6.620   6.212
75850SOL    HW229383   7.669   6.522   6.098
75851SOL     OW29384  13.632   9.349   3.046
75851SOL    HW129385  13.554   9.300   3.070
75851SOL    HW229386  13.617   9.437   3.080
75852SOL     OW29387  12.741   7.601  12.657
75852SOL    HW129388  12.673   7.628  12.596
75852SOL    HW229389  12.781   7.524  12.616
75853SOL     OW29390   6.512  13.667   2.891
75853SOL    HW129391   6.570  13.607   2.844
75853SOL    HW229392   6.469  13.612   2.956
75854SOL     OW29393  13.568   8.861  14.042
75854SOL    HW129394  13.629   8.800  14.084
75854SOL    HW229395  13.570   8.939  14.097
75855SOL     OW29396   6.133   1.319   5.835
75855SOL    HW129397   6.042   1.345   5.844
75855SOL    HW229398   6.136   1.229   5.866
75856SOL     OW29399  10.911   5.330   0.511
75856SOL    HW129400  10.905   5.418   0.548
75856SOL    HW229401  11.005   5.316   0.496
75857SOL     OW29402   2.369   2.268  12.990
75857SOL    HW129403   2.431   2.266  13.063
75857SOL    HW229404   2.390   2.350  12.943
75858SOL     OW29405   2.270  12.972   2.307
75858SOL    HW129406   2.264  13.044   2.371
75858SOL    HW229407   2.274  13.016   2.222
75859SOL     OW29408  13.784   8.954   2.712
75859SOL    HW129409  13.760   8.964   2.620
75859SOL    HW229410  13.741   9.027   2.756
75860SOL     OW29411   5.851   8.550   6.421
75860SOL    HW129412   5.820   8.640   6.416
75860SOL    HW229413   5.854   8.520   6.330
75861SOL     OW29414  12.355  12.385   2.632
75861SOL    HW129415  12.387  12.432   2.709
75861SOL    HW229416  12.373  12.293   2.650
75862SOL     OW29417   5.100  11.278   0.986
75862SOL    HW129418   5.091  11.368   1.018
75862SOL    HW229419   5.010  11.249   0.972
75863SOL     OW29420  13.517  11.190   5.089
75863SOL    HW129421  13.502  11.264   5.029
75863SOL    HW229422  13.452  11.202   5.158
75864SOL     OW29423   6.836  10.862  14.153
75864SOL    HW129424   6.771  10.903  14.211
75864SOL    HW229425   6.870  10.788  14.203
75865SOL     OW29426  12.423   8.799   6.169
75865SOL    HW129427  12.513   8.818   6.195
75865SOL    HW229428  12.397   8.876   6.117
75866SOL     OW29429  10.949   5.559  12.491
75866SOL    HW129430  10.986   5.562  12.579
75866SOL    HW229431  10.934   5.650  12.468
75867SOL     OW29432  12.577   0.623   5.791
75867SOL    HW129433  12.532   0.707   5.790
75867SOL    HW229434  12.516   0.564   5.836
75868SOL     OW29435   1.958  11.977   9.855
75868SOL    HW129436   1.863  11.980   9.862
75868SOL    HW229437   1.978  12.026   9.775
75869SOL     OW29438  10.181   0.467   3.204
75869SOL    HW129439  10.206   0.541   3.148
75869SOL    HW229440  10.131   0.409   3.146
75870SOL     OW29441  14.180  12.210  12.528
75870SOL    HW129442  14.231  12.290  12.511
75870SOL    HW229443  14.091  12.233  12.505
75871SOL     OW29444   5.819  12.376   1.323
75871SOL    HW129445   5.787  12.411   1.406
75871SOL    HW229446   5.812  12.281   1.333
75872SOL     OW29447   4.813   5.956   3.274
75872SOL    HW129448   4.745   5.915   3.220
75872SOL    HW229449   4.815   5.904   3.354
75873SOL     OW29450   6.790  11.868  12.554
75873SOL    HW129451   6.827  11.859  12.466
75873SOL    HW229452   6.841  11.809  12.608
75874SOL     OW29453  10.982   7.712   4.360
75874SOL    HW129454  10.906   7.656   4.343
75874SOL    HW229455  10.959   7.796   4.320
75875SOL     OW29456   2.748   6.248   7.111
75875SOL    HW129457   2.776   6.338   7.126
75875SOL    HW229458   2.699   6.224   7.190
75876SOL     OW29459   9.096   6.510  13.260
75876SOL    HW129460   9.093   6.464  13.176
75876SOL    HW229461   9.011   6.491  13.300
75877SOL     OW29462  14.591   7.418   2.185
75877SOL    HW129463  14.528   7.448   2.250
75877SOL    HW229464  14.547   7.430   2.101
75878SOL     OW29465   3.178   4.571   1.487
75878SOL    HW129466   3.175   4.665   1.470
75878SOL    HW229467   3.107   4.535   1.434
75879SOL     OW29468  12.083   6.156   7.248
75879SOL    HW129469  12.070   6.111   7.164
75879SOL    HW229470  12.172   6.191   7.242
75880SOL     OW29471  13.137  11.053   2.290
75880SOL    HW129472  13.162  10.961   2.290
75880SOL    HW229473  13.059  11.057   2.346
75881SOL     OW29474  11.617  10.198   6.953
75881SOL    HW129475  11.632  10.292   6.946
75881SOL    HW229476  11.697  10.158   6.918
75882SOL     OW29477   0.613  11.534   5.770
75882SOL    HW129478   0.593  11.526   5.677
75882SOL    HW229479   0.538  11.493   5.814
75883SOL     OW29480   3.478  11.549  10.900
75883SOL    HW129481   3.427  11.469  10.910
75883SOL    HW229482   3.468  11.594  10.983
75884SOL     OW29483   8.752  11.505   8.809
75884SOL    HW129484   8.728  11.551   8.729
75884SOL    HW229485   8.720  11.561   8.880
75885SOL     OW29486  13.044   8.410  14.636
75885SOL    HW129487  12.992   8.374  14.564
75885SOL    HW229488  12.989   8.398  14.714
75886SOL     OW29489  12.706   8.247   3.337
75886SOL    HW129490  12.727   8.271   3.427
75886SOL    HW229491  12.772   8.182   3.313
75887SOL     OW29492  10.704   8.902  11.211
75887SOL    HW129493  10.689   8.858  11.295
75887SOL    HW229494  10.617   8.916  11.175
75888SOL     OW29495   7.495   8.497  10.739
75888SOL    HW129496   7.508   8.514  10.832
75888SOL    HW229497   7.551   8.561  10.694
75889SOL     OW29498  10.225  10.967   2.851
75889SOL    HW129499  10.242  11.058   2.830
75889SOL    HW229500  10.180  10.933   2.773
75890SOL     OW29501   9.250  13.403  12.625
75890SOL    HW129502   9.259  13.461  12.701
75890SOL    HW229503   9.173  13.434  12.579
75891SOL     OW29504  11.776   9.897   1.882
75891SOL    HW129505  11.826   9.820   1.911
75891SOL    HW229506  11.689   9.863   1.862
75892SOL     OW29507   9.909   6.321   3.711
75892SOL    HW129508   9.893   6.308   3.804
75892SOL    HW229509   9.905   6.234   3.673
75893SOL     OW29510   7.130   9.984   1.259
75893SOL    HW129511   7.082  10.066   1.273
75893SOL    HW229512   7.218  10.012   1.233
75894SOL     OW29513   0.791   8.492  13.084
75894SOL    HW129514   0.766   8.555  13.016
75894SOL    HW229515   0.817   8.547  13.158
75895SOL     OW29516  13.774   5.273   0.806
75895SOL    HW129517  13.716   5.250   0.878
75895SOL    HW229518  13.733   5.348   0.764
75896SOL     OW29519   6.659   2.786  11.600
75896SOL    HW129520   6.625   2.848  11.536
75896SOL    HW229521   6.743   2.757  11.563
75897SOL     OW29522   6.729   6.453   7.246
75897SOL    HW129523   6.782   6.477   7.170
75897SOL    HW229524   6.681   6.375   7.218
75898SOL     OW29525   8.313   4.247  14.364
75898SOL    HW129526   8.264   4.251  14.282
75898SOL    HW229527   8.404   4.260  14.338
75899SOL     OW29528   3.976   4.517   1.945
75899SOL    HW129529   3.893   4.509   1.993
75899SOL    HW229530   3.969   4.453   1.874
75900SOL     OW29531   9.479   5.186  13.145
75900SOL    HW129532   9.536   5.108  13.144
75900SOL    HW229533   9.479   5.214  13.236
75901SOL     OW29534   9.043  14.681   1.060
75901SOL    HW129535   9.093  14.746   1.010
75901SOL    HW229536   9.067  14.697   1.151
75902SOL     OW29537   8.057   7.181   3.172
75902SOL    HW129538   8.057   7.237   3.250
75902SOL    HW229539   8.146   7.186   3.138
75903SOL     OW29540   8.013   9.131   8.683
75903SOL    HW129541   8.004   9.169   8.770
75903SOL    HW229542   8.046   9.202   8.628
75904SOL     OW29543  11.963   5.905  14.431
75904SOL    HW129544  11.959   5.811  14.415
75904SOL    HW229545  11.876   5.929  14.463
75905SOL     OW29546   0.250   5.918   3.642
75905SOL    HW129547   0.264   5.903   3.736
75905SOL    HW229548   0.337   5.933   3.606
75906SOL     OW29549  10.484   8.308   6.958
75906SOL    HW129550  10.522   8.256   7.029
75906SOL    HW229551  10.462   8.392   6.999
75907SOL     OW29552   6.433   0.602   2.421
75907SOL    HW129553   6.412   0.687   2.458
75907SOL    HW229554   6.367   0.587   2.354
75908SOL     OW29555   1.658   1.796  10.512
75908SOL    HW129556   1.727   1.756  10.565
75908SOL    HW229557   1.584   1.735  10.520
75909SOL     OW29558   2.947  11.164   2.970
75909SOL    HW129559   2.890  11.159   3.047
75909SOL    HW229560   3.035  11.154   3.006
75910SOL     OW29561  10.964   9.186   8.106
75910SOL    HW129562  10.999   9.113   8.157
75910SOL    HW229563  10.872   9.164   8.093
75911SOL     OW29564  11.636  12.453   9.712
75911SOL    HW129565  11.633  12.479   9.620
75911SOL    HW229566  11.720  12.487   9.744
75912SOL     OW29567   5.235   8.007   4.057
75912SOL    HW129568   5.214   7.916   4.036
75912SOL    HW229569   5.185   8.025   4.136
75913SOL     OW29570   8.142   6.698   2.396
75913SOL    HW129571   8.198   6.687   2.319
75913SOL    HW229572   8.128   6.792   2.402
75914SOL     OW29573  10.996   0.627  13.778
75914SOL    HW129574  10.903   0.628  13.754
75914SOL    HW229575  11.030   0.546  13.740
75915SOL     OW29576   2.015  14.267  11.547
75915SOL    HW129577   2.054  14.279  11.460
75915SOL    HW229578   2.000  14.356  11.579
75916SOL     OW29579   6.854   2.554  14.587
75916SOL    HW129580   6.881   2.566  14.678
75916SOL    HW229581   6.763   2.583  14.584
75917SOL     OW29582   6.382   4.339   2.769
75917SOL    HW129583   6.443   4.307   2.835
75917SOL    HW229584   6.301   4.290   2.786
75918SOL     OW29585   3.079   5.314   9.345
75918SOL    HW129586   3.095   5.397   9.301
75918SOL    HW229587   3.124   5.249   9.290
75919SOL     OW29588  10.938   3.706   5.964
75919SOL    HW129589  10.871   3.647   5.996
75919SOL    HW229590  10.975   3.746   6.043
75920SOL     OW29591   5.497   9.341  11.573
75920SOL    HW129592   5.468   9.387  11.652
75920SOL    HW229593   5.565   9.398  11.536
75921SOL     OW29594  10.014   9.971   0.406
75921SOL    HW129595  10.056   9.904   0.459
75921SOL    HW229596  10.086  10.010   0.356
75922SOL     OW29597   1.349   7.117   3.888
75922SOL    HW129598   1.416   7.119   3.820
75922SOL    HW229599   1.394   7.082   3.965
75923SOL     OW29600   6.559   5.969  10.904
75923SOL    HW129601   6.611   6.041  10.868
75923SOL    HW229602   6.623   5.912  10.946
75924SOL     OW29603  13.889   7.146   3.977
75924SOL    HW129604  13.799   7.125   4.001
75924SOL    HW229605  13.885   7.169   3.885
75925SOL     OW29606   9.963  13.587   8.778
75925SOL    HW129607   9.921  13.656   8.830
75925SOL    HW229608   9.890  13.536   8.743
75926SOL     OW29609   0.952   3.868   3.227
75926SOL    HW129610   0.978   3.789   3.179
75926SOL    HW229611   0.960   3.939   3.163
75927SOL     OW29612   1.045  11.147   4.886
75927SOL    HW129613   0.957  11.113   4.869
75927SOL    HW229614   1.032  11.218   4.949
75928SOL     OW29615  13.145  10.431   4.295
75928SOL    HW129616  13.159  10.484   4.216
75928SOL    HW229617  13.058  10.455   4.326
75929SOL     OW29618   0.859  10.525  13.290
75929SOL    HW129619   0.797  10.516  13.362
75929SOL    HW229620   0.930  10.579  13.326
75930SOL     OW29621  12.620   5.774  11.130
75930SOL    HW129622  12.604   5.688  11.091
75930SOL    HW229623  12.650   5.755  11.219
75931SOL     OW29624   6.042   6.133  12.682
75931SOL    HW129625   6.061   6.159  12.592
75931SOL    HW229626   6.127   6.129  12.725
75932SOL     OW29627   3.556   8.209   1.232
75932SOL    HW129628   3.567   8.303   1.242
75932SOL    HW229629   3.645   8.174   1.232
75933SOL     OW29630  11.212  14.277   9.688
75933SOL    HW129631  11.300  14.314   9.682
75933SOL    HW229632  11.191  14.282   9.782
75934SOL     OW29633  11.932  12.752   2.639
75934SOL    HW129634  11.985  12.673   2.638
75934SOL    HW229635  11.899  12.758   2.729
75935SOL     OW29636   7.178  13.010   2.725
75935SOL    HW129637   7.143  13.021   2.814
75935SOL    HW229638   7.248  12.946   2.734
75936SOL     OW29639   3.757  14.058  11.898
75936SOL    HW129640   3.670  14.019  11.904
75936SOL    HW229641   3.748  14.127  11.833
75937SOL     OW29642   5.328   9.555   4.685
75937SOL    HW129643   5.390   9.539   4.756
75937SOL    HW229644   5.380   9.549   4.605
75938SOL     OW29645   7.796   6.187   5.032
75938SOL    HW129646   7.785   6.125   5.104
75938SOL    HW229647   7.822   6.269   5.075
75939SOL     OW29648   5.315  14.125   9.175
75939SOL    HW129649   5.294  14.032   9.179
75939SOL    HW229650   5.362  14.143   9.257
75940SOL     OW29651  13.206  11.017   1.214
75940SOL    HW129652  13.255  11.092   1.247
75940SOL    HW229653  13.256  10.987   1.139
75941SOL     OW29654   0.669   1.957   4.885
75941SOL    HW129655   0.646   1.895   4.954
75941SOL    HW229656   0.597   1.951   4.823
75942SOL     OW29657   5.449   8.567   6.908
75942SOL    HW129658   5.507   8.618   6.966
75942SOL    HW229659   5.494   8.483   6.897
75943SOL     OW29660  13.824   5.002   8.991
75943SOL    HW129661  13.768   5.004   8.913
75943SOL    HW229662  13.911   5.024   8.958
75944SOL     OW29663   4.385   4.266   2.456
75944SOL    HW129664   4.446   4.337   2.434
75944SOL    HW229665   4.413   4.193   2.401
75945SOL     OW29666   3.205  12.679   4.158
75945SOL    HW129667   3.275  12.698   4.095
75945SOL    HW229668   3.144  12.622   4.110
75946SOL     OW29669  13.734   2.253   1.150
75946SOL    HW129670  13.697   2.295   1.228
75946SOL    HW229671  13.703   2.163   1.155
75947SOL     OW29672   4.626  10.578  12.291
75947SOL    HW129673   4.532  10.597  12.289
75947SOL    HW229674   4.665  10.651  12.340
75948SOL     OW29675   3.366  12.677   5.704
75948SOL    HW129676   3.418  12.633   5.637
75948SOL    HW229677   3.428  12.696   5.775
75949SOL     OW29678  12.307   0.488  13.954
75949SOL    HW129679  12.262   0.503  14.037
75949SOL    HW229680  12.257   0.538  13.889
75950SOL     OW29681   2.687   7.639   2.729
75950SOL    HW129682   2.745   7.713   2.746
75950SOL    HW229683   2.599   7.675   2.737
75951SOL     OW29684  12.162   7.895   9.439
75951SOL    HW129685  12.086   7.882   9.382
75951SOL    HW229686  12.153   7.828   9.506
75952SOL     OW29687   7.694   8.115   8.999
75952SOL    HW129688   7.774   8.134   9.048
75952SOL    HW229689   7.631   8.182   9.030
75953SOL     OW29690  11.266   0.999   6.542
75953SOL    HW129691  11.312   0.917   6.529
75953SOL    HW229692  11.203   0.981   6.612
75954SOL     OW29693  12.463   4.450   1.935
75954SOL    HW129694  12.475   4.442   2.029
75954SOL    HW229695  12.405   4.525   1.925
75955SOL     OW29696   6.612  11.200   7.963
75955SOL    HW129697   6.626  11.236   7.876
75955SOL    HW229698   6.542  11.136   7.951
75956SOL     OW29699   8.869   3.908   5.153
75956SOL    HW129700   8.802   3.973   5.130
75956SOL    HW229701   8.825   3.848   5.213
75957SOL     OW29702   5.401   0.553  12.568
75957SOL    HW129703   5.309   0.579  12.573
75957SOL    HW229704   5.435   0.569  12.656
75958SOL     OW29705  12.091  12.876   1.066
75958SOL    HW129706  12.021  12.813   1.047
75958SOL    HW229707  12.171  12.823   1.067
75959SOL     OW29708   2.764  12.806  14.417
75959SOL    HW129709   2.848  12.823  14.375
75959SOL    HW229710   2.733  12.892  14.445
75960SOL     OW29711   3.054   0.520   4.146
75960SOL    HW129712   3.035   0.584   4.078
75960SOL    HW229713   2.994   0.448   4.129
75961SOL     OW29714  12.240   5.251   9.890
75961SOL    HW129715  12.187   5.318   9.934
75961SOL    HW229716  12.275   5.296   9.813
75962SOL     OW29717   0.025  12.210  13.207
75962SOL    HW129718   0.052  12.118  13.211
75962SOL    HW229719   0.106  12.257  13.185
75963SOL     OW29720   9.754   7.969   3.421
75963SOL    HW129721   9.788   7.880   3.411
75963SOL    HW229722   9.693   7.963   3.495
75964SOL     OW29723   6.124  12.777   9.239
75964SOL    HW129724   6.030  12.762   9.229
75964SOL    HW229725   6.157  12.697   9.282
75965SOL     OW29726   8.313  14.261   4.178
75965SOL    HW129727   8.386  14.319   4.158
75965SOL    HW229728   8.311  14.199   4.104
75966SOL     OW29729   1.369   9.966  11.703
75966SOL    HW129730   1.295   9.955  11.762
75966SOL    HW229731   1.424  10.032  11.746
75967SOL     OW29732   5.280   5.632   0.680
75967SOL    HW129733   5.305   5.563   0.618
75967SOL    HW229734   5.363   5.671   0.707
75968SOL     OW29735  11.365   4.400   1.617
75968SOL    HW129736  11.380   4.414   1.524
75968SOL    HW229737  11.368   4.488   1.655
75969SOL     OW29738   5.324   8.896   5.846
75969SOL    HW129739   5.231   8.904   5.869
75969SOL    HW229740   5.324   8.876   5.753
75970SOL     OW29741  10.355   6.236   8.848
75970SOL    HW129742  10.351   6.295   8.773
75970SOL    HW229743  10.424   6.173   8.825
75971SOL     OW29744  13.484   5.792   8.610
75971SOL    HW129745  13.420   5.794   8.681
75971SOL    HW229746  13.526   5.706   8.617
75972SOL     OW29747   2.178   9.762  10.476
75972SOL    HW129748   2.244   9.782  10.542
75972SOL    HW229749   2.221   9.701  10.416
75973SOL     OW29750   4.898   1.551   1.076
75973SOL    HW129751   4.927   1.626   1.025
75973SOL    HW229752   4.803   1.560   1.081
75974SOL     OW29753   7.828   9.752  13.624
75974SOL    HW129754   7.819   9.712  13.537
75974SOL    HW229755   7.806   9.844  13.610
75975SOL     OW29756  12.880   7.683   2.306
75975SOL    HW129757  12.816   7.658   2.373
75975SOL    HW229758  12.829   7.730   2.241
75976SOL     OW29759  13.071  12.365   0.102
75976SOL    HW129760  13.081  12.354   0.007
75976SOL    HW229761  13.003  12.304   0.127
75977SOL     OW29762   1.651  12.729   6.782
75977SOL    HW129763   1.609  12.644   6.774
75977SOL    HW229764   1.597  12.787   6.728
75978SOL     OW29765   8.727   6.727   5.090
75978SOL    HW129766   8.754   6.724   5.181
75978SOL    HW229767   8.763   6.809   5.056
75979SOL     OW29768   3.185   4.265   6.722
75979SOL    HW129769   3.098   4.241   6.691
75979SOL    HW229770   3.225   4.182   6.747
75980SOL     OW29771   8.212   5.742  12.527
75980SOL    HW129772   8.297   5.763  12.487
75980SOL    HW229773   8.204   5.803  12.600
75981SOL     OW29774  13.238  14.310   2.620
75981SOL    HW129775  13.247  14.232   2.675
75981SOL    HW229776  13.145  14.313   2.597
75982SOL     OW29777  14.525   9.197  14.122
75982SOL    HW129778  14.472   9.213  14.200
75982SOL    HW229779  14.543   9.103  14.124
75983SOL     OW29780   8.774   5.944  12.144
75983SOL    HW129781   8.840   5.972  12.080
75983SOL    HW229782   8.802   5.857  12.172
75984SOL     OW29783  12.812   5.160   5.779
75984SOL    HW129784  12.783   5.211   5.703
75984SOL    HW229785  12.837   5.226   5.843
75985SOL     OW29786   6.899  13.992   1.279
75985SOL    HW129787   6.919  13.973   1.371
75985SOL    HW229788   6.983  14.018   1.241
75986SOL     OW29789  11.057   0.266   7.436
75986SOL    HW129790  11.013   0.322   7.371
75986SOL    HW229791  11.005   0.186   7.437
75987SOL     OW29792   2.550   5.691  11.224
75987SOL    HW129793   2.576   5.753  11.156
75987SOL    HW229794   2.454   5.687  11.218
75988SOL     OW29795   5.498  13.990  12.945
75988SOL    HW129796   5.483  13.999  12.851
75988SOL    HW229797   5.438  14.052  12.985
75989SOL     OW29798   8.834  13.120  12.481
75989SOL    HW129799   8.843  13.092  12.390
75989SOL    HW229800   8.854  13.042  12.532
75990SOL     OW29801  13.423  10.762  13.622
75990SOL    HW129802  13.363  10.713  13.566
75990SOL    HW229803  13.385  10.757  13.709
75991SOL     OW29804  13.307   2.943   2.936
75991SOL    HW129805  13.359   2.885   2.882
75991SOL    HW229806  13.237   2.974   2.878
75992SOL     OW29807   6.123   0.531  10.792
75992SOL    HW129808   6.039   0.557  10.755
75992SOL    HW229809   6.158   0.468  10.729
75993SOL     OW29810   2.910   1.061   7.061
75993SOL    HW129811   2.822   1.034   7.034
75993SOL    HW229812   2.950   0.980   7.094
75994SOL     OW29813  12.145  10.362   2.807
75994SOL    HW129814  12.189  10.446   2.825
75994SOL    HW229815  12.086  10.350   2.882
75995SOL     OW29816   6.609   6.676  12.550
75995SOL    HW129817   6.514   6.671  12.556
75995SOL    HW229818   6.626   6.754  12.498
75996SOL     OW29819  11.191  11.055  13.744
75996SOL    HW129820  11.122  11.098  13.693
75996SOL    HW229821  11.271  11.101  13.720
75997SOL     OW29822   2.465   0.142   4.570
75997SOL    HW129823   2.518   0.204   4.620
75997SOL    HW229824   2.468   0.061   4.620
75998SOL     OW29825   2.524   1.244   0.819
75998SOL    HW129826   2.501   1.267   0.908
75998SOL    HW229827   2.586   1.312   0.792
75999SOL     OW29828  11.442   3.960   4.369
75999SOL    HW129829  11.415   3.878   4.328
75999SOL    HW229830  11.375   4.023   4.342
76000SOL     OW29831  12.835  10.022   1.343
76000SOL    HW129832  12.836   9.963   1.268
76000SOL    HW229833  12.878  10.101   1.312
76001SOL     OW29834   8.358   3.253   0.378
76001SOL    HW129835   8.444   3.211   0.373
76001SOL    HW229836   8.333   3.268   0.287
76002SOL     OW29837  13.907   3.111   3.169
76002SOL    HW129838  13.962   3.060   3.109
76002SOL    HW229839  13.912   3.200   3.136
76003SOL     OW29840  11.086  13.597   8.214
76003SOL    HW129841  11.076  13.514   8.169
76003SOL    HW229842  11.173  13.593   8.253
76004SOL     OW29843  10.155  13.037  11.151
76004SOL    HW129844  10.211  13.031  11.228
76004SOL    HW229845  10.134  13.130  11.145
76005SOL     OW29846   1.414   3.490   1.007
76005SOL    HW129847   1.436   3.520   0.918
76005SOL    HW229848   1.496   3.501   1.056
76006SOL     OW29849   3.809  14.378   2.899
76006SOL    HW129850   3.765  14.455   2.865
76006SOL    HW229851   3.872  14.353   2.831
76007SOL     OW29852   5.662   1.847  12.773
76007SOL    HW129853   5.741   1.861  12.825
76007SOL    HW229854   5.684   1.773  12.716
76008SOL     OW29855  13.899   1.827  13.607
76008SOL    HW129856  13.810   1.794  13.600
76008SOL    HW229857  13.889   1.917  13.637
76009SOL     OW29858  13.278  10.684  12.670
76009SOL    HW129859  13.233  10.600  12.666
76009SOL    HW229860  13.275  10.709  12.763
76010SOL     OW29861   6.734   1.352   0.544
76010SOL    HW129862   6.705   1.418   0.480
76010SOL    HW229863   6.826   1.335   0.521
76011SOL     OW29864   3.167   2.023  13.007
76011SOL    HW129865   3.225   1.977  12.946
76011SOL    HW229866   3.182   2.116  12.988
76012SOL     OW29867   6.538  10.931   8.472
76012SOL    HW129868   6.455  10.914   8.516
76012SOL    HW229869   6.561  10.847   8.432
76013SOL     OW29870   3.636   2.783   4.331
76013SOL    HW129871   3.618   2.792   4.238
76013SOL    HW229872   3.557   2.817   4.374
76014SOL     OW29873   6.453  10.404  14.603
76014SOL    HW129874   6.538  10.361  14.595
76014SOL    HW229875   6.475  10.497  14.613
76015SOL     OW29876  10.453  10.982  10.875
76015SOL    HW129877  10.544  11.006  10.890
76015SOL    HW229878  10.444  10.978  10.780
76016SOL     OW29879  11.008   0.976  12.152
76016SOL    HW129880  10.977   1.006  12.237
76016SOL    HW229881  10.931   0.940  12.109
76017SOL     OW29882   4.075   2.529  10.552
76017SOL    HW129883   4.037   2.515  10.638
76017SOL    HW229884   4.131   2.452  10.537
76018SOL     OW29885   4.925  12.812  11.286
76018SOL    HW129886   4.929  12.799  11.380
76018SOL    HW229887   4.986  12.885  11.270
76019SOL     OW29888  12.038  11.125   5.851
76019SOL    HW129889  11.975  11.183   5.807
76019SOL    HW229890  12.047  11.051   5.791
76020SOL     OW29891   3.274   3.046   0.232
76020SOL    HW129892   3.247   3.028   0.322
76020SOL    HW229893   3.358   3.092   0.241
76021SOL     OW29894   1.629   6.805  10.226
76021SOL    HW129895   1.575   6.864  10.173
76021SOL    HW229896   1.575   6.785  10.302
76022SOL     OW29897   7.192   6.403   1.596
76022SOL    HW129898   7.110   6.357   1.614
76022SOL    HW229899   7.167   6.495   1.592
76023SOL     OW29900   6.341   9.387   3.179
76023SOL    HW129901   6.423   9.430   3.202
76023SOL    HW229902   6.288   9.393   3.258
76024SOL     OW29903   0.821  12.871   9.425
76024SOL    HW129904   0.883  12.799   9.417
76024SOL    HW229905   0.871  12.942   9.465
76025SOL     OW29906  11.185   1.645   6.459
76025SOL    HW129907  11.096   1.611   6.465
76025SOL    HW229908  11.241   1.568   6.468
76026SOL     OW29909   4.386  10.287   3.685
76026SOL    HW129910   4.468  10.289   3.736
76026SOL    HW229911   4.319  10.313   3.747
76027SOL     OW29912   0.737   6.448  13.371
76027SOL    HW129913   0.673   6.399  13.318
76027SOL    HW229914   0.795   6.381  13.406
76028SOL     OW29915  11.763  14.491   3.792
76028SOL    HW129916  11.726  14.433   3.726
76028SOL    HW229917  11.844  14.525   3.753
76029SOL     OW29918   9.134   2.272   8.472
76029SOL    HW129919   9.039   2.270   8.474
76029SOL    HW229920   9.159   2.205   8.408
76030SOL     OW29921   5.019   7.072   3.070
76030SOL    HW129922   4.934   7.115   3.078
76030SOL    HW229923   5.032   7.061   2.976
76031SOL     OW29924   8.072  13.722   8.035
76031SOL    HW129925   8.153  13.770   8.018
76031SOL    HW229926   8.006  13.791   8.045
76032SOL     OW29927  10.551  14.035   4.405
76032SOL    HW129928  10.622  13.980   4.372
76032SOL    HW229929  10.555  14.114   4.351
76033SOL     OW29930   8.746   7.062   6.175
76033SOL    HW129931   8.721   6.975   6.145
76033SOL    HW229932   8.780   7.048   6.264
76034SOL     OW29933   9.578   2.241   6.314
76034SOL    HW129934   9.611   2.292   6.240
76034SOL    HW229935   9.483   2.243   6.304
76035SOL     OW29936   2.258   0.118   0.363
76035SOL    HW129937   2.219   0.097   0.278
76035SOL    HW229938   2.209   0.064   0.425
76036SOL     OW29939   5.239   8.537   4.121
76036SOL    HW129940   5.192   8.617   4.144
76036SOL    HW229941   5.323   8.545   4.166
76037SOL     OW29942  11.181   1.299   3.350
76037SOL    HW129943  11.225   1.299   3.434
76037SOL    HW229944  11.234   1.241   3.295
76038SOL     OW29945  14.470   1.163  14.008
76038SOL    HW129946  14.412   1.148  13.933
76038SOL    HW229947  14.411   1.169  14.083
76039SOL     OW29948  10.678   9.650   3.398
76039SOL    HW129949  10.754   9.621   3.448
76039SOL    HW229950  10.656   9.576   3.342
76040SOL     OW29951  11.108   7.841   5.709
76040SOL    HW129952  11.036   7.841   5.645
76040SOL    HW229953  11.127   7.934   5.723
76041SOL     OW29954   0.625  10.335   0.416
76041SOL    HW129955   0.714  10.298   0.423
76041SOL    HW229956   0.585  10.316   0.501
76042SOL     OW29957  10.884   9.044   7.040
76042SOL    HW129958  10.886   8.949   7.030
76042SOL    HW229959  10.804   9.071   6.996
76043SOL     OW29960   7.521  13.837   4.754
76043SOL    HW129961   7.482  13.865   4.837
76043SOL    HW229962   7.461  13.869   4.687
76044SOL     OW29963   6.946  13.683   5.941
76044SOL    HW129964   6.952  13.702   6.035
76044SOL    HW229965   6.853  13.665   5.927
76045SOL     OW29966  14.095  13.675   8.154
76045SOL    HW129967  14.102  13.695   8.248
76045SOL    HW229968  14.030  13.737   8.121
76046SOL     OW29969  11.956   7.271   8.274
76046SOL    HW129970  11.944   7.336   8.343
76046SOL    HW229971  11.988   7.320   8.199
76047SOL     OW29972   9.910   3.993   6.300
76047SOL    HW129973   9.905   3.926   6.368
76047SOL    HW229974   9.900   4.076   6.347
76048SOL     OW29975   5.819  12.687   0.606
76048SOL    HW129976   5.844  12.686   0.513
76048SOL    HW229977   5.902  12.701   0.652
76049SOL     OW29978  12.019  11.286   2.614
76049SOL    HW129979  12.085  11.227   2.650
76049SOL    HW229980  12.014  11.357   2.678
76050SOL     OW29981   9.308   9.274   6.929
76050SOL    HW129982   9.369   9.296   6.999
76050SOL    HW229983   9.278   9.185   6.950
76051SOL     OW29984   0.086   1.782   2.637
76051SOL    HW129985   0.094   1.700   2.589
76051SOL    HW229986  14.864   1.790   2.656
76052SOL     OW29987  11.336  10.306   4.644
76052SOL    HW129988  11.404  10.276   4.584
76052SOL    HW229989  11.359  10.265   4.728
76053SOL     OW29990  12.446   0.596  13.684
76053SOL    HW129991  12.395   0.525  13.723
76053SOL    HW229992  12.473   0.650  13.759
76054SOL     OW29993  13.190   9.238   3.950
76054SOL    HW129994  13.237   9.165   3.990
76054SOL    HW229995  13.098   9.224   3.974
76055SOL     OW29996  11.241   9.985  10.512
76055SOL    HW129997  11.260   9.914  10.574
76055SOL    HW229998  11.146   9.986  10.504
76056SOL     OW29999  14.554   5.659   4.612
76056SOL    HW130000  14.584   5.652   4.521
76056SOL    HW230001  14.492   5.731   4.611
76057SOL     OW30002   8.036   7.099   7.078
76057SOL    HW130003   7.970   7.112   7.146
76057SOL    HW230004   8.082   7.182   7.072
76058SOL     OW30005  10.282   8.488  11.898
76058SOL    HW130006  10.370   8.516  11.872
76058SOL    HW230007  10.256   8.424  11.832
76059SOL     OW30008   9.003  13.278   6.607
76059SOL    HW130009   9.083  13.328   6.595
76059SOL    HW230010   8.967  13.309   6.690
76060SOL     OW30011   5.737   8.202   9.201
76060SOL    HW130012   5.806   8.146   9.165
76060SOL    HW230013   5.664   8.192   9.141
76061SOL     OW30014   3.099   5.131   9.805
76061SOL    HW130015   3.151   5.183   9.865
76061SOL    HW230016   3.009   5.156   9.823
76062SOL     OW30017   0.586   7.744   9.247
76062SOL    HW130018   0.553   7.657   9.270
76062SOL    HW230019   0.610   7.738   9.155
76063SOL     OW30020   6.360   8.628  11.171
76063SOL    HW130021   6.361   8.533  11.163
76063SOL    HW230022   6.357   8.660  11.081
76064SOL     OW30023   5.202  14.203   5.210
76064SOL    HW130024   5.191  14.277   5.270
76064SOL    HW230025   5.116  14.161   5.207
76065SOL     OW30026  10.352   2.241   2.922
76065SOL    HW130027  10.428   2.185   2.937
76065SOL    HW230028  10.305   2.198   2.850
76066SOL     OW30029   1.410   7.818   2.278
76066SOL    HW130030   1.421   7.912   2.272
76066SOL    HW230031   1.426   7.785   2.190
76067SOL     OW30032   1.493   1.066  10.499
76067SOL    HW130033   1.423   1.045  10.437
76067SOL    HW230034   1.468   1.151  10.535
76068SOL     OW30035  12.078  11.255  13.437
76068SOL    HW130036  12.078  11.190  13.507
76068SOL    HW230037  12.119  11.332  13.476
76069SOL     OW30038  10.521  10.147   8.742
76069SOL    HW130039  10.546  10.138   8.834
76069SOL    HW230040  10.564  10.074   8.698
76070SOL     OW30041   3.256   2.622   9.055
76070SOL    HW130042   3.220   2.541   9.018
76070SOL    HW230043   3.334   2.594   9.103
76071SOL     OW30044   6.188   6.290  14.050
76071SOL    HW130045   6.281   6.285  14.026
76071SOL    HW230046   6.185   6.267  14.143
76072SOL     OW30047   9.945   6.940   4.206
76072SOL    HW130048   9.959   6.897   4.290
76072SOL    HW230049   9.851   6.958   4.204
76073SOL     OW30050   1.890  11.372   1.130
76073SOL    HW130051   1.984  11.385   1.142
76073SOL    HW230052   1.854  11.374   1.218
76074SOL     OW30053  14.277   9.530   6.903
76074SOL    HW130054  14.351   9.473   6.881
76074SOL    HW230055  14.318   9.613   6.929
76075SOL     OW30056   3.375   2.424   2.446
76075SOL    HW130057   3.312   2.434   2.375
76075SOL    HW230058   3.458   2.454   2.409
76076SOL     OW30059   3.815   7.147   3.725
76076SOL    HW130060   3.725   7.142   3.691
76076SOL    HW230061   3.814   7.093   3.804
76077SOL     OW30062   1.673   9.309  10.673
76077SOL    HW130063   1.635   9.299  10.760
76077SOL    HW230064   1.668   9.221  10.635
76078SOL     OW30065   0.233   7.330   2.844
76078SOL    HW130066   0.325   7.349   2.861
76078SOL    HW230067   0.235   7.254   2.786
76079SOL     OW30068  12.700   1.162   2.751
76079SOL    HW130069  12.621   1.116   2.724
76079SOL    HW230070  12.769   1.096   2.744
76080SOL     OW30071   5.525  13.792  13.476
76080SOL    HW130072   5.506  13.843  13.398
76080SOL    HW230073   5.619  13.802  13.490
76081SOL     OW30074   9.038  11.700  11.131
76081SOL    HW130075   8.977  11.642  11.178
76081SOL    HW230076   9.025  11.678  11.038
76082SOL     OW30077  14.638   8.665   8.110
76082SOL    HW130078  14.654   8.575   8.138
76082SOL    HW230079  14.580   8.656   8.034
76083SOL     OW30080   8.289   5.830   4.123
76083SOL    HW130081   8.245   5.829   4.208
76083SOL    HW230082   8.275   5.742   4.088
76084SOL     OW30083   8.848  11.571   3.443
76084SOL    HW130084   8.877  11.482   3.463
76084SOL    HW230085   8.844  11.575   3.347
76085SOL     OW30086   9.072  13.390   0.159
76085SOL    HW130087   9.110  13.304   0.140
76085SOL    HW230088   8.978  13.378   0.143
76086SOL     OW30089   9.479   9.589   1.938
76086SOL    HW130090   9.546   9.650   1.970
76086SOL    HW230091   9.431   9.564   2.016
76087SOL     OW30092  11.277  12.556   1.623
76087SOL    HW130093  11.276  12.613   1.700
76087SOL    HW230094  11.196  12.505   1.630
76088SOL     OW30095   7.830   9.317   8.886
76088SOL    HW130096   7.748   9.328   8.935
76088SOL    HW230097   7.820   9.374   8.810
76089SOL     OW30098  11.027   7.680   6.973
76089SOL    HW130099  10.943   7.647   6.940
76089SOL    HW230100  11.048   7.753   6.916
76090SOL     OW30101   2.207   1.501  12.034
76090SOL    HW130102   2.186   1.475  11.945
76090SOL    HW230103   2.295   1.465  12.049
76091SOL     OW30104   4.709   0.564  12.780
76091SOL    HW130105   4.645   0.634  12.765
76091SOL    HW230106   4.734   0.535  12.692
76092SOL     OW30107   2.363   7.463  12.855
76092SOL    HW130108   2.322   7.536  12.809
76092SOL    HW230109   2.382   7.497  12.942
76093SOL     OW30110   6.630   3.803   5.877
76093SOL    HW130111   6.726   3.801   5.879
76093SOL    HW230112   6.609   3.895   5.860
76094SOL     OW30113   3.111   1.230   5.925
76094SOL    HW130114   3.193   1.250   5.879
76094SOL    HW230115   3.106   1.135   5.924
76095SOL     OW30116   6.663   4.886   8.748
76095SOL    HW130117   6.748   4.902   8.789
76095SOL    HW230118   6.625   4.973   8.735
76096SOL     OW30119   1.984   3.755   3.800
76096SOL    HW130120   2.015   3.735   3.711
76096SOL    HW230121   2.033   3.696   3.856
76097SOL     OW30122   1.403   1.782  10.277
76097SOL    HW130123   1.309   1.790  10.259
76097SOL    HW230124   1.437   1.731  10.204
76098SOL     OW30125   6.650   7.090  14.274
76098SOL    HW130126   6.703   7.060  14.348
76098SOL    HW230127   6.623   7.178  14.298
76099SOL     OW30128   6.390   6.729   4.065
76099SOL    HW130129   6.389   6.641   4.027
76099SOL    HW230130   6.330   6.779   4.011
76100SOL     OW30131  12.518   6.803   3.895
76100SOL    HW130132  12.560   6.736   3.950
76100SOL    HW230133  12.496   6.757   3.814
76101SOL     OW30134   8.700  12.307  11.153
76101SOL    HW130135   8.793  12.329  11.152
76101SOL    HW230136   8.698  12.212  11.144
76102SOL     OW30137   9.453   8.295   7.409
76102SOL    HW130138   9.386   8.343   7.456
76102SOL    HW230139   9.514   8.266   7.476
76103SOL     OW30140   8.257   5.590   5.513
76103SOL    HW130141   8.330   5.599   5.574
76103SOL    HW230142   8.277   5.650   5.441
76104SOL     OW30143  11.630   6.967   2.541
76104SOL    HW130144  11.673   6.922   2.468
76104SOL    HW230145  11.645   6.909   2.616
76105SOL     OW30146   1.993   1.354   6.265
76105SOL    HW130147   2.050   1.424   6.233
76105SOL    HW230148   2.045   1.274   6.254
76106SOL     OW30149   9.069   8.260  11.692
76106SOL    HW130150   9.024   8.332  11.648
76106SOL    HW230151   9.092   8.296  11.778
76107SOL     OW30152  13.983   6.352  14.089
76107SOL    HW130153  13.894   6.321  14.102
76107SOL    HW230154  13.993   6.426  14.148
76108SOL     OW30155   6.943   9.638   0.158
76108SOL    HW130156   6.965   9.729   0.139
76108SOL    HW230157   6.997   9.615   0.233
76109SOL     OW30158   4.473  14.021  11.277
76109SOL    HW130159   4.420  14.070  11.214
76109SOL    HW230160   4.455  13.929  11.258
76110SOL     OW30161  10.614  14.271   8.830
76110SOL    HW130162  10.633  14.298   8.920
76110SOL    HW230163  10.599  14.176   8.837
76111SOL     OW30164   7.609   5.403   8.899
76111SOL    HW130165   7.684   5.359   8.858
76111SOL    HW230166   7.637   5.416   8.990
76112SOL     OW30167   3.620   5.087   3.990
76112SOL    HW130168   3.643   5.179   4.006
76112SOL    HW230169   3.695   5.037   4.023
76113SOL     OW30170   3.614   2.454   5.754
76113SOL    HW130171   3.552   2.495   5.693
76113SOL    HW230172   3.593   2.361   5.750
76114SOL     OW30173   1.585   2.450   9.172
76114SOL    HW130174   1.497   2.420   9.198
76114SOL    HW230175   1.578   2.467   9.078
76115SOL     OW30176  14.847  10.910   7.723
76115SOL    HW130177  14.841  10.836   7.662
76115SOL    HW230178  14.800  10.882   7.801
76116SOL     OW30179  10.118   8.526   7.315
76116SOL    HW130180  10.079   8.593   7.260
76116SOL    HW230181  10.068   8.447   7.296
76117SOL     OW30182  11.361   6.198   5.173
76117SOL    HW130183  11.361   6.116   5.125
76117SOL    HW230184  11.340   6.265   5.108
76118SOL     OW30185   8.134   9.705  11.559
76118SOL    HW130186   8.058   9.687  11.503
76118SOL    HW230187   8.168   9.618  11.582
76119SOL     OW30188   9.477   5.785   4.174
76119SOL    HW130189   9.563   5.808   4.208
76119SOL    HW230190   9.416   5.810   4.244
76120SOL     OW30191  10.183   2.523  11.558
76120SOL    HW130192  10.209   2.614  11.544
76120SOL    HW230193  10.235   2.472  11.496
76121SOL     OW30194  10.314   7.532   0.309
76121SOL    HW130195  10.337   7.597   0.376
76121SOL    HW230196  10.372   7.458   0.326
76122SOL     OW30197  10.845   2.067   3.136
76122SOL    HW130198  10.886   1.993   3.179
76122SOL    HW230199  10.909   2.138   3.143
76123SOL     OW30200   7.430   1.561   4.479
76123SOL    HW130201   7.416   1.518   4.563
76123SOL    HW230202   7.418   1.491   4.414
76124SOL     OW30203   4.630   2.654   0.756
76124SOL    HW130204   4.704   2.643   0.816
76124SOL    HW230205   4.640   2.582   0.693
76125SOL     OW30206   4.131   2.475  14.345
76125SOL    HW130207   4.095   2.535  14.279
76125SOL    HW230208   4.222   2.503  14.355
76126SOL     OW30209   8.556   5.966   1.586
76126SOL    HW130210   8.581   5.932   1.500
76126SOL    HW230211   8.468   6.000   1.574
76127SOL     OW30212   4.239   6.039   4.782
76127SOL    HW130213   4.191   6.113   4.746
76127SOL    HW230214   4.187   5.962   4.757
76128SOL     OW30215   9.619   8.646  12.116
76128SOL    HW130216   9.706   8.665  12.081
76128SOL    HW230217   9.631   8.566  12.167
76129SOL     OW30218  12.487   0.234  12.856
76129SOL    HW130219  12.466   0.145  12.886
76129SOL    HW230220  12.570   0.255  12.899
76130SOL     OW30221   8.705  11.999   8.299
76130SOL    HW130222   8.657  12.072   8.262
76130SOL    HW230223   8.781  12.039   8.342
76131SOL     OW30224  12.023   9.355   9.955
76131SOL    HW130225  12.029   9.266   9.920
76131SOL    HW230226  12.060   9.348  10.043
76132SOL     OW30227  13.926   8.353  12.250
76132SOL    HW130228  14.004   8.313  12.210
76132SOL    HW230229  13.873   8.279  12.279
76133SOL     OW30230   6.550  10.535   4.530
76133SOL    HW130231   6.599  10.458   4.557
76133SOL    HW230232   6.565  10.542   4.435
76134SOL     OW30233   0.704   8.373   2.853
76134SOL    HW130234   0.638   8.322   2.806
76134SOL    HW230235   0.671   8.377   2.943
76135SOL     OW30236   5.545  14.133   6.015
76135SOL    HW130237   5.519  14.214   5.971
76135SOL    HW230238   5.478  14.120   6.083
76136SOL     OW30239  13.270  12.273   6.902
76136SOL    HW130240  13.326  12.195   6.904
76136SOL    HW230241  13.236  12.280   6.992
76137SOL     OW30242   6.810  14.145   8.899
76137SOL    HW130243   6.848  14.081   8.839
76137SOL    HW230244   6.828  14.230   8.858
76138SOL     OW30245   7.999   5.463   1.045
76138SOL    HW130246   7.929   5.450   1.109
76138SOL    HW230247   8.019   5.374   1.014
76139SOL     OW30248   5.361   5.444  10.738
76139SOL    HW130249   5.388   5.485  10.820
76139SOL    HW230250   5.444   5.421  10.694
76140SOL     OW30251   2.583   3.743   1.253
76140SOL    HW130252   2.585   3.802   1.178
76140SOL    HW230253   2.511   3.682   1.233
76141SOL     OW30254  13.534   9.483   5.173
76141SOL    HW130255  13.491   9.408   5.133
76141SOL    HW230256  13.462   9.539   5.204
76142SOL     OW30257  13.838   0.623   6.492
76142SOL    HW130258  13.752   0.619   6.450
76142SOL    HW230259  13.867   0.714   6.479
76143SOL     OW30260   5.070  13.311  11.406
76143SOL    HW130261   5.084  13.367  11.330
76143SOL    HW230262   4.992  13.260  11.385
76144SOL     OW30263   2.853  10.975   9.588
76144SOL    HW130264   2.828  11.019   9.670
76144SOL    HW230265   2.884  11.046   9.531
76145SOL     OW30266   6.098  10.120   6.642
76145SOL    HW130267   6.086  10.164   6.726
76145SOL    HW230268   6.085  10.027   6.662
76146SOL     OW30269  14.224   4.224   5.503
76146SOL    HW130270  14.305   4.190   5.465
76146SOL    HW230271  14.253   4.290   5.566
76147SOL     OW30272   9.629   0.076  10.348
76147SOL    HW130273   9.719   0.098  10.374
76147SOL    HW230274   9.593   0.158  10.315
76148SOL     OW30275   3.766   4.135   2.670
76148SOL    HW130276   3.687   4.081   2.666
76148SOL    HW230277   3.787   4.154   2.578
76149SOL     OW30278   4.685   8.578   6.322
76149SOL    HW130279   4.628   8.532   6.261
76149SOL    HW230280   4.681   8.670   6.294
76150SOL     OW30281   4.753   7.200   8.686
76150SOL    HW130282   4.830   7.160   8.727
76150SOL    HW230283   4.789   7.267   8.627
76151SOL     OW30284   9.061   0.465  11.710
76151SOL    HW130285   9.015   0.396  11.758
76151SOL    HW230286   9.091   0.526  11.777
76152SOL     OW30287   8.720   5.816   6.621
76152SOL    HW130288   8.677   5.823   6.706
76152SOL    HW230289   8.700   5.727   6.592
76153SOL     OW30290   1.738   4.708   9.032
76153SOL    HW130291   1.702   4.629   8.993
76153SOL    HW230292   1.719   4.777   8.970
76154SOL     OW30293   1.363   3.879   6.036
76154SOL    HW130294   1.397   3.814   5.976
76154SOL    HW230295   1.435   3.941   6.048
76155SOL     OW30296   6.786   4.976   4.565
76155SOL    HW130297   6.824   5.014   4.644
76155SOL    HW230298   6.703   4.939   4.595
76156SOL     OW30299   7.873   4.193   9.913
76156SOL    HW130300   7.942   4.242   9.957
76156SOL    HW230301   7.866   4.111   9.962
76157SOL     OW30302   1.840   8.040   8.581
76157SOL    HW130303   1.758   8.075   8.546
76157SOL    HW230304   1.904   8.109   8.565
76158SOL     OW30305  14.071   3.292  12.474
76158SOL    HW130306  14.097   3.262  12.387
76158SOL    HW230307  14.068   3.212  12.526
76159SOL     OW30308   5.312   8.342   5.067
76159SOL    HW130309   5.387   8.286   5.090
76159SOL    HW230310   5.270   8.296   4.995
76160SOL     OW30311   5.124   3.147   1.231
76160SOL    HW130312   5.040   3.106   1.252
76160SOL    HW230313   5.183   3.118   1.300
76161SOL     OW30314  14.772   4.918  10.399
76161SOL    HW130315  14.682   4.893  10.380
76161SOL    HW230316  14.822   4.838  10.384
76162SOL     OW30317   3.357   8.964   9.347
76162SOL    HW130318   3.310   9.022   9.288
76162SOL    HW230319   3.427   9.018   9.383
76163SOL     OW30320   6.427   9.872   0.981
76163SOL    HW130321   6.518   9.898   0.974
76163SOL    HW230322   6.425   9.808   1.052
76164SOL     OW30323  13.257   5.399   5.209
76164SOL    HW130324  13.201   5.463   5.252
76164SOL    HW230325  13.271   5.331   5.275
76165SOL     OW30326  11.374   1.709   1.294
76165SOL    HW130327  11.342   1.647   1.358
76165SOL    HW230328  11.389   1.790   1.343
76166SOL     OW30329  11.733   1.148   5.416
76166SOL    HW130330  11.746   1.242   5.410
76166SOL    HW230331  11.820   1.111   5.401
76167SOL     OW30332   0.528   2.294   8.845
76167SOL    HW130333   0.476   2.221   8.811
76167SOL    HW230334   0.546   2.270   8.936
76168SOL     OW30335   4.084  11.337  12.202
76168SOL    HW130336   4.168  11.378  12.184
76168SOL    HW230337   4.101  11.243  12.192
76169SOL     OW30338   5.928   0.206   9.092
76169SOL    HW130339   5.937   0.279   9.032
76169SOL    HW230340   5.886   0.244   9.170
76170SOL     OW30341   1.121   2.209  14.658
76170SOL    HW130342   1.151   2.267  14.588
76170SOL    HW230343   1.078   2.137  14.612
76171SOL     OW30344  12.169  13.800  11.220
76171SOL    HW130345  12.141  13.827  11.132
76171SOL    HW230346  12.184  13.883  11.266
76172SOL     OW30347   9.559   8.904  12.080
76172SOL    HW130348   9.577   8.811  12.066
76172SOL    HW230349   9.573   8.917  12.174
76173SOL     OW30350  10.170   1.303  14.024
76173SOL    HW130351  10.165   1.221  13.974
76173SOL    HW230352  10.236   1.354  13.978
76174SOL     OW30353  14.359   0.058  10.882
76174SOL    HW130354  14.381   0.074  10.790
76174SOL    HW230355  14.296   0.127  10.903
76175SOL     OW30356   3.081   5.208   0.242
76175SOL    HW130357   3.110   5.291   0.278
76175SOL    HW230358   3.161   5.165   0.212
76176SOL     OW30359   6.349  13.480  10.781
76176SOL    HW130360   6.403  13.434  10.717
76176SOL    HW230361   6.323  13.560  10.736
76177SOL     OW30362   8.208   0.812   0.970
76177SOL    HW130363   8.126   0.778   0.934
76177SOL    HW230364   8.262   0.734   0.985
76178SOL     OW30365  13.274   0.982  10.878
76178SOL    HW130366  13.201   0.934  10.838
76178SOL    HW230367  13.311   0.921  10.941
76179SOL     OW30368   7.051  10.452   6.359
76179SOL    HW130369   6.982  10.499   6.407
76179SOL    HW230370   7.086  10.517   6.298
76180SOL     OW30371   8.600   7.937   5.253
76180SOL    HW130372   8.678   7.944   5.197
76180SOL    HW230373   8.553   7.861   5.219
76181SOL     OW30374   5.910   6.204  10.839
76181SOL    HW130375   5.931   6.130  10.896
76181SOL    HW230376   5.898   6.165  10.753
76182SOL     OW30377  12.564   6.097  10.827
76182SOL    HW130378  12.652   6.060  10.822
76182SOL    HW230379  12.521   6.047  10.896
76183SOL     OW30380   3.741   0.476   9.534
76183SOL    HW130381   3.694   0.403   9.573
76183SOL    HW230382   3.809   0.435   9.480
76184SOL     OW30383   7.228  11.253  12.091
76184SOL    HW130384   7.214  11.326  12.151
76184SOL    HW230385   7.239  11.293  12.005
76185SOL     OW30386   5.593   1.788   6.044
76185SOL    HW130387   5.582   1.879   6.071
76185SOL    HW230388   5.527   1.776   5.975
76186SOL     OW30389  10.012  14.402  11.551
76186SOL    HW130390   9.933  14.382  11.501
76186SOL    HW230391  10.006  14.496  11.569
76187SOL     OW30392   4.928   3.493   0.381
76187SOL    HW130393   4.951   3.490   0.474
76187SOL    HW230394   4.875   3.415   0.367
76188SOL     OW30395  10.190   6.652   8.536
76188SOL    HW130396  10.171   6.729   8.483
76188SOL    HW230397  10.138   6.665   8.616
76189SOL     OW30398   8.429   3.098   2.524
76189SOL    HW130399   8.492   3.027   2.536
76189SOL    HW230400   8.408   3.096   2.431
76190SOL     OW30401  12.794   0.421   6.003
76190SOL    HW130402  12.851   0.368   6.058
76190SOL    HW230403  12.767   0.494   6.059
76191SOL     OW30404   5.875   3.078   9.452
76191SOL    HW130405   5.929   3.117   9.521
76191SOL    HW230406   5.932   3.073   9.376
76192SOL     OW30407  14.158   0.292   4.333
76192SOL    HW130408  14.087   0.250   4.284
76192SOL    HW230409  14.238   0.259   4.293
76193SOL     OW30410  13.979   9.396   8.810
76193SOL    HW130411  13.953   9.356   8.893
76193SOL    HW230412  14.030   9.328   8.765
76194SOL     OW30413   0.051   2.037   0.227
76194SOL    HW130414   0.132   2.066   0.186
76194SOL    HW230415   0.046   1.944   0.208
76195SOL     OW30416  14.258   3.506  12.495
76195SOL    HW130417  14.226   3.596  12.483
76195SOL    HW230418  14.179   3.452  12.487
76196SOL     OW30419  12.860  13.021  11.757
76196SOL    HW130420  12.823  13.072  11.685
76196SOL    HW230421  12.944  13.062  11.774
76197SOL     OW30422   3.122   7.007  11.811
76197SOL    HW130423   3.104   6.937  11.748
76197SOL    HW230424   3.096   6.970  11.896
76198SOL     OW30425   6.945   8.904   3.548
76198SOL    HW130426   6.951   8.943   3.635
76198SOL    HW230427   6.980   8.971   3.490
76199SOL     OW30428   6.505   1.048   8.748
76199SOL    HW130429   6.550   1.039   8.664
76199SOL    HW230430   6.505   0.960   8.785
76200SOL     OW30431  13.509   3.603   6.313
76200SOL    HW130432  13.561   3.630   6.389
76200SOL    HW230433  13.461   3.526   6.344
76201SOL     OW30434  11.117  12.158   3.733
76201SOL    HW130435  11.021  12.156   3.733
76201SOL    HW230436  11.140  12.177   3.824
76202SOL     OW30437   8.462   4.132   7.249
76202SOL    HW130438   8.514   4.053   7.240
76202SOL    HW230439   8.389   4.107   7.306
76203SOL     OW30440  10.951   0.469   2.527
76203SOL    HW130441  11.008   0.535   2.566
76203SOL    HW230442  10.899   0.436   2.601
76204SOL     OW30443   9.525  14.315  13.636
76204SOL    HW130444   9.457  14.258  13.671
76204SOL    HW230445   9.480  14.373  13.575
76205SOL     OW30446   2.311   5.607  12.101
76205SOL    HW130447   2.373   5.590  12.029
76205SOL    HW230448   2.320   5.700  12.119
76206SOL     OW30449  13.080   1.490  10.375
76206SOL    HW130450  13.042   1.513  10.459
76206SOL    HW230451  13.115   1.573  10.342
76207SOL     OW30452   8.824   1.570  10.389
76207SOL    HW130453   8.748   1.607  10.434
76207SOL    HW230454   8.881   1.539  10.459
76208SOL     OW30455   0.569   7.650   6.964
76208SOL    HW130456   0.590   7.556   6.965
76208SOL    HW230457   0.476   7.654   6.985
76209SOL     OW30458   3.801   2.286   3.140
76209SOL    HW130459   3.834   2.246   3.060
76209SOL    HW230460   3.799   2.380   3.122
76210SOL     OW30461  14.019  11.970   1.313
76210SOL    HW130462  14.091  11.920   1.275
76210SOL    HW230463  13.992  12.030   1.243
76211SOL     OW30464   4.735   2.885  10.597
76211SOL    HW130465   4.719   2.795  10.568
76211SOL    HW230466   4.700   2.939  10.526
76212SOL     OW30467   4.176  10.069  14.375
76212SOL    HW130468   4.141  10.066  14.286
76212SOL    HW230469   4.159   9.982  14.410
76213SOL     OW30470  12.172   9.550  13.964
76213SOL    HW130471  12.156   9.644  13.974
76213SOL    HW230472  12.107   9.509  14.021
76214SOL     OW30473   9.555   8.665  14.480
76214SOL    HW130474   9.478   8.650  14.535
76214SOL    HW230475   9.612   8.590  14.497
76215SOL     OW30476   4.612   2.729   3.174
76215SOL    HW130477   4.644   2.639   3.181
76215SOL    HW230478   4.522   2.725   3.207
76216SOL     OW30479  11.764   6.656   0.010
76216SOL    HW130480  11.780   6.643   0.104
76216SOL    HW230481  11.727   6.572  14.853
76217SOL     OW30482   3.323   4.167  11.310
76217SOL    HW130483   3.288   4.080  11.330
76217SOL    HW230484   3.416   4.160  11.328
76218SOL     OW30485   9.328   3.256   9.825
76218SOL    HW130486   9.325   3.264   9.730
76218SOL    HW230487   9.370   3.337   9.855
76219SOL     OW30488   0.931   9.046  14.334
76219SOL    HW130489   0.889   8.973  14.288
76219SOL    HW230490   0.919   9.027  14.427
76220SOL     OW30491   7.352   9.600   9.262
76220SOL    HW130492   7.370   9.579   9.171
76220SOL    HW230493   7.409   9.674   9.282
76221SOL     OW30494   5.417   2.297   8.796
76221SOL    HW130495   5.415   2.274   8.703
76221SOL    HW230496   5.375   2.383   8.800
76222SOL     OW30497  12.326   6.072  10.399
76222SOL    HW130498  12.296   6.107  10.483
76222SOL    HW230499  12.365   5.988  10.420
76223SOL     OW30500   1.051   9.351  11.781
76223SOL    HW130501   1.134   9.400  11.779
76223SOL    HW230502   0.986   9.416  11.809
76224SOL     OW30503   1.632   7.852   7.617
76224SOL    HW130504   1.726   7.871   7.616
76224SOL    HW230505   1.590   7.938   7.614
76225SOL     OW30506  11.791  10.148  10.411
76225SOL    HW130507  11.879  10.167  10.443
76225SOL    HW230508  11.802  10.071  10.355
76226SOL     OW30509  10.436   0.666  12.347
76226SOL    HW130510  10.503   0.724  12.381
76226SOL    HW230511  10.405   0.618  12.424
76227SOL     OW30512   9.001   0.161   1.449
76227SOL    HW130513   9.009   0.255   1.467
76227SOL    HW230514   9.042   0.118   1.525
76228SOL     OW30515   3.619  10.793   2.048
76228SOL    HW130516   3.599  10.703   2.021
76228SOL    HW230517   3.584  10.800   2.137
76229SOL     OW30518   6.183   4.486  10.789
76229SOL    HW130519   6.217   4.562  10.834
76229SOL    HW230520   6.234   4.412  10.823
76230SOL     OW30521   7.847   5.476   4.437
76230SOL    HW130522   7.915   5.536   4.407
76230SOL    HW230523   7.842   5.408   4.369
76231SOL     OW30524   9.706   9.134   6.845
76231SOL    HW130525   9.657   9.088   6.913
76231SOL    HW230526   9.789   9.087   6.840
76232SOL     OW30527   7.175   8.060   1.013
76232SOL    HW130528   7.201   8.097   0.929
76232SOL    HW230529   7.119   8.127   1.053
76233SOL     OW30530   4.851   7.047   2.177
76233SOL    HW130531   4.895   6.964   2.162
76233SOL    HW230532   4.911   7.113   2.143
76234SOL     OW30533   2.022   3.017   7.510
76234SOL    HW130534   2.046   3.110   7.517
76234SOL    HW230535   1.926   3.018   7.504
76235SOL     OW30536   4.164  11.218   9.409
76235SOL    HW130537   4.245  11.173   9.433
76235SOL    HW230538   4.157  11.290   9.472
76236SOL     OW30539  10.358   0.006  14.503
76236SOL    HW130540  10.377   0.057  14.582
76236SOL    HW230541  10.442  14.838  14.480
76237SOL     OW30542   8.961   2.458  11.973
76237SOL    HW130543   9.002   2.394  12.032
76237SOL    HW230544   8.890   2.410  11.932
76238SOL     OW30545   0.390  13.353  13.750
76238SOL    HW130546   0.471  13.379  13.794
76238SOL    HW230547   0.417  13.284  13.689
76239SOL     OW30548  13.909   7.655  13.993
76239SOL    HW130549  13.898   7.672  13.900
76239SOL    HW230550  13.933   7.563  13.999
76240SOL     OW30551  12.546  13.509  14.362
76240SOL    HW130552  12.635  13.484  14.389
76240SOL    HW230553  12.494  13.501  14.442
76241SOL     OW30554   7.060   3.149   9.187
76241SOL    HW130555   7.087   3.060   9.164
76241SOL    HW230556   7.045   3.192   9.103
76242SOL     OW30557   2.132  11.493   2.625
76242SOL    HW130558   2.114  11.517   2.534
76242SOL    HW230559   2.075  11.417   2.641
76243SOL     OW30560   8.118   1.836  14.704
76243SOL    HW130561   8.049   1.888  14.663
76243SOL    HW230562   8.079   1.805  14.786
76244SOL     OW30563   9.254  13.880   7.516
76244SOL    HW130564   9.179  13.927   7.551
76244SOL    HW230565   9.256  13.798   7.566
76245SOL     OW30566   8.425   8.015   2.084
76245SOL    HW130567   8.451   8.096   2.127
76245SOL    HW230568   8.333   8.028   2.060
76246SOL     OW30569   1.939  12.436   6.634
76246SOL    HW130570   1.846  12.443   6.614
76246SOL    HW230571   1.955  12.342   6.641
76247SOL     OW30572   5.618   3.076   5.399
76247SOL    HW130573   5.533   3.032   5.395
76247SOL    HW230574   5.609   3.151   5.340
76248SOL     OW30575   5.339   2.152   7.029
76248SOL    HW130576   5.429   2.144   7.061
76248SOL    HW230577   5.341   2.228   6.971
76249SOL     OW30578   4.203   1.799   2.378
76249SOL    HW130579   4.189   1.894   2.375
76249SOL    HW230580   4.268   1.782   2.310
76250SOL     OW30581   7.180   1.306   5.547
76250SOL    HW130582   7.112   1.343   5.490
76250SOL    HW230583   7.252   1.369   5.543
76251SOL     OW30584  14.470  13.670   9.597
76251SOL    HW130585  14.526  13.725   9.651
76251SOL    HW230586  14.464  13.716   9.513
76252SOL     OW30587  10.387   7.961   1.611
76252SOL    HW130588  10.465   7.924   1.570
76252SOL    HW230589  10.421   8.026   1.672
76253SOL     OW30590   2.530   7.308   7.408
76253SOL    HW130591   2.614   7.295   7.452
76253SOL    HW230592   2.474   7.240   7.445
76254SOL     OW30593   1.378   2.598   7.318
76254SOL    HW130594   1.384   2.587   7.413
76254SOL    HW230595   1.456   2.555   7.284
76255SOL     OW30596   7.335   7.814  13.159
76255SOL    HW130597   7.315   7.770  13.241
76255SOL    HW230598   7.355   7.904  13.184
76256SOL     OW30599   3.804  12.383   8.212
76256SOL    HW130600   3.769  12.392   8.124
76256SOL    HW230601   3.861  12.459   8.223
76257SOL     OW30602  11.366   2.855   6.700
76257SOL    HW130603  11.274   2.878   6.692
76257SOL    HW230604  11.367   2.780   6.759
76258SOL     OW30605  10.605   4.713  14.677
76258SOL    HW130606  10.694   4.732  14.649
76258SOL    HW230607  10.579   4.791  14.727
76259SOL     OW30608   5.029   8.094  12.301
76259SOL    HW130609   5.124   8.086  12.300
76259SOL    HW230610   4.999   8.043  12.227
76260SOL     OW30611   1.871   3.282   7.509
76260SOL    HW130612   1.927   3.349   7.472
76260SOL    HW230613   1.818   3.327   7.575
76261SOL     OW30614  12.135   8.026   4.093
76261SOL    HW130615  12.140   7.983   4.008
76261SOL    HW230616  12.093   8.110   4.075
76262SOL     OW30617  10.106   0.987  13.386
76262SOL    HW130618  10.126   0.910  13.333
76262SOL    HW230619  10.150   0.971  13.469
76263SOL     OW30620  11.890   3.700   9.359
76263SOL    HW130621  11.907   3.747   9.440
76263SOL    HW230622  11.795   3.707   9.346
76264SOL     OW30623   9.333   5.139   8.387
76264SOL    HW130624   9.266   5.071   8.381
76264SOL    HW230625   9.321   5.176   8.475
76265SOL     OW30626  14.128   0.298  14.044
76265SOL    HW130627  14.126   0.271  14.136
76265SOL    HW230628  14.208   0.257  14.009
76266SOL     OW30629   6.474   8.642   2.784
76266SOL    HW130630   6.457   8.724   2.736
76266SOL    HW230631   6.420   8.577   2.739
76267SOL     OW30632   0.140  13.721   8.337
76267SOL    HW130633   0.234  13.708   8.324
76267SOL    HW230634   0.125  13.700   8.429
76268SOL     OW30635   8.235  13.040  14.288
76268SOL    HW130636   8.271  13.074  14.207
76268SOL    HW230637   8.146  13.011  14.265
76269SOL     OW30638   9.108  14.129   3.335
76269SOL    HW130639   9.184  14.090   3.380
76269SOL    HW230640   9.117  14.101   3.244
76270SOL     OW30641   0.259  13.127  13.072
76270SOL    HW130642   0.252  13.054  13.010
76270SOL    HW230643   0.343  13.167  13.053
76271SOL     OW30644   0.896   4.525  11.847
76271SOL    HW130645   0.894   4.564  11.935
76271SOL    HW230646   0.966   4.572  11.802
76272SOL     OW30647  12.185   2.849   3.061
76272SOL    HW130648  12.180   2.944   3.048
76272SOL    HW230649  12.099   2.824   3.095
76273SOL     OW30650   2.914   5.587  13.869
76273SOL    HW130651   2.832   5.581  13.821
76273SOL    HW230652   2.918   5.507  13.920
76274SOL     OW30653  11.318   6.173  13.074
76274SOL    HW130654  11.414   6.176  13.080
76274SOL    HW230655  11.288   6.255  13.112
76275SOL     OW30656   1.220   6.224   5.469
76275SOL    HW130657   1.147   6.245   5.410
76275SOL    HW230658   1.296   6.266   5.430
76276SOL     OW30659   0.742   1.167   2.205
76276SOL    HW130660   0.671   1.123   2.253
76276SOL    HW230661   0.820   1.114   2.224
76277SOL     OW30662   4.319   0.848  14.722
76277SOL    HW130663   4.298   0.756  14.710
76277SOL    HW230664   4.246   0.895  14.682
76278SOL     OW30665   0.088  13.087   8.861
76278SOL    HW130666   0.103  13.005   8.909
76278SOL    HW230667  14.869  13.110   8.881
76279SOL     OW30668   2.543   8.650  11.060
76279SOL    HW130669   2.630   8.623  11.089
76279SOL    HW230670   2.521   8.589  10.989
76280SOL     OW30671  10.074   1.403   4.854
76280SOL    HW130672  10.055   1.481   4.803
76280SOL    HW230673  10.020   1.335   4.814
76281SOL     OW30674  12.599   6.933   6.063
76281SOL    HW130675  12.564   7.005   6.010
76281SOL    HW230676  12.551   6.940   6.146
76282SOL     OW30677   7.332   6.271   7.733
76282SOL    HW130678   7.350   6.222   7.814
76282SOL    HW230679   7.384   6.351   7.742
76283SOL     OW30680  14.526   8.266   7.228
76283SOL    HW130681  14.551   8.209   7.155
76283SOL    HW230682  14.466   8.330   7.189
76284SOL     OW30683   0.079  14.555  10.558
76284SOL    HW130684  14.858  14.547  10.534
76284SOL    HW230685   0.090  14.496  10.632
76285SOL     OW30686  13.213  13.624   7.915
76285SOL    HW130687  13.258  13.544   7.943
76285SOL    HW230688  13.143  13.593   7.858
76286SOL     OW30689  13.760  11.265   6.158
76286SOL    HW130690  13.676  11.240   6.118
76286SOL    HW230691  13.737  11.294   6.246
76287SOL     OW30692   5.783   9.459   1.896
76287SOL    HW130693   5.761   9.522   1.965
76287SOL    HW230694   5.869   9.487   1.865
76288SOL     OW30695   0.410  11.660   9.303
76288SOL    HW130696   0.476  11.627   9.364
76288SOL    HW230697   0.455  11.727   9.253
76289SOL     OW30698   6.267   9.033   9.056
76289SOL    HW130699   6.325   8.959   9.075
76289SOL    HW230700   6.290   9.060   8.967
76290SOL     OW30701  13.356   8.762   5.726
76290SOL    HW130702  13.451   8.765   5.716
76290SOL    HW230703  13.341   8.778   5.819
76291SOL     OW30704  12.126   7.133   2.594
76291SOL    HW130705  12.203   7.165   2.642
76291SOL    HW230706  12.154   7.132   2.503
76292SOL     OW30707  12.414   3.007  12.801
76292SOL    HW130708  12.338   3.005  12.860
76292SOL    HW230709  12.376   3.015  12.714
76293SOL     OW30710  11.585   7.105  10.325
76293SOL    HW130711  11.523   7.146  10.386
76293SOL    HW230712  11.617   7.177  10.271
76294SOL     OW30713   0.018   1.376  13.546
76294SOL    HW130714   0.091   1.314  13.536
76294SOL    HW230715   0.036   1.444  13.482
76295SOL     OW30716  11.915  13.225  10.746
76295SOL    HW130717  11.862  13.173  10.686
76295SOL    HW230718  11.852  13.266  10.805
76296SOL     OW30719   3.824   2.506  14.265
76296SOL    HW130720   3.884   2.441  14.227
76296SOL    HW230721   3.872   2.589  14.258
76297SOL     OW30722   1.658   8.520   0.412
76297SOL    HW130723   1.668   8.583   0.483
76297SOL    HW230724   1.740   8.469   0.413
76298SOL     OW30725   7.115   7.621  14.555
76298SOL    HW130726   7.158   7.695  14.513
76298SOL    HW230727   7.175   7.594  14.624
76299SOL     OW30728   6.245   8.073   7.904
76299SOL    HW130729   6.211   8.070   7.993
76299SOL    HW230730   6.242   8.166   7.880
76300SOL     OW30731   8.357  10.469  13.498
76300SOL    HW130732   8.390  10.480  13.587
76300SOL    HW230733   8.262  10.463  13.508
76301SOL     OW30734  12.030   0.019   5.586
76301SOL    HW130735  11.977   0.020   5.506
76301SOL    HW230736  12.109  14.843   5.563
76302SOL     OW30737   9.044   4.218  12.846
76302SOL    HW130738   9.021   4.126  12.861
76302SOL    HW230739   9.138   4.217  12.828
76303SOL     OW30740   0.359   8.572   3.036
76303SOL    HW130741   0.426   8.551   3.102
76303SOL    HW230742   0.336   8.488   2.998
76304SOL     OW30743   6.014   0.816   8.530
76304SOL    HW130744   6.065   0.793   8.452
76304SOL    HW230745   6.073   0.799   8.603
76305SOL     OW30746   8.623   0.448   2.613
76305SOL    HW130747   8.603   0.415   2.525
76305SOL    HW230748   8.591   0.380   2.672
76306SOL     OW30749   8.170  13.159   4.050
76306SOL    HW130750   8.139  13.150   4.140
76306SOL    HW230751   8.160  13.252   4.030
76307SOL     OW30752   3.864   2.200   6.084
76307SOL    HW130753   3.785   2.253   6.077
76307SOL    HW230754   3.918   2.228   6.010
76308SOL     OW30755  12.108   3.278  12.098
76308SOL    HW130756  12.098   3.352  12.038
76308SOL    HW230757  12.183   3.301  12.153
76309SOL     OW30758   0.828  13.347  14.515
76309SOL    HW130759   0.886  13.284  14.472
76309SOL    HW230760   0.875  13.371  14.595
76310SOL     OW30761   9.918   9.838   1.774
76310SOL    HW130762   9.924   9.808   1.683
76310SOL    HW230763   9.837   9.888   1.777
76311SOL     OW30764  11.610  11.562   3.882
76311SOL    HW130765  11.605  11.468   3.863
76311SOL    HW230766  11.526  11.597   3.855
76312SOL     OW30767   8.744   0.058   9.121
76312SOL    HW130768   8.776   0.028   9.206
76312SOL    HW230769   8.745   0.154   9.128
76313SOL     OW30770  13.083  10.346  10.181
76313SOL    HW130771  13.172  10.351  10.214
76313SOL    HW230772  13.069  10.427  10.133
76314SOL     OW30773   7.146   0.285  10.425
76314SOL    HW130774   7.131   0.373  10.392
76314SOL    HW230775   7.063   0.260  10.465
76315SOL     OW30776  11.863  11.578  14.019
76315SOL    HW130777  11.953  11.595  13.993
76315SOL    HW230778  11.816  11.659  13.996
76316SOL     OW30779  11.538   5.199   7.290
76316SOL    HW130780  11.611   5.147   7.256
76316SOL    HW230781  11.469   5.191   7.225
76317SOL     OW30782   1.205   9.098  13.241
76317SOL    HW130783   1.164   9.028  13.292
76317SOL    HW230784   1.154   9.176  13.261
76318SOL     OW30785   4.093   0.041   8.291
76318SOL    HW130786   4.082   0.107   8.359
76318SOL    HW230787   4.107  14.832   8.338
76319SOL     OW30788   3.832   1.336   2.285
76319SOL    HW130789   3.805   1.407   2.343
76319SOL    HW230790   3.905   1.373   2.234
76320SOL     OW30791   6.868   9.969   9.484
76320SOL    HW130792   6.947   9.959   9.431
76320SOL    HW230793   6.816   9.891   9.465
76321SOL     OW30794   7.268  11.948  13.145
76321SOL    HW130795   7.247  11.861  13.180
76321SOL    HW230796   7.209  12.007  13.191
76322SOL     OW30797   5.134  13.295  14.019
76322SOL    HW130798   5.082  13.245  13.956
76322SOL    HW230799   5.069  13.342  14.072
76323SOL     OW30800   8.383   1.176   3.667
76323SOL    HW130801   8.338   1.116   3.727
76323SOL    HW230802   8.471   1.138   3.658
76324SOL     OW30803   8.332  14.179  11.831
76324SOL    HW130804   8.372  14.236  11.897
76324SOL    HW230805   8.288  14.239  11.771
76325SOL     OW30806   2.844   8.699   7.488
76325SOL    HW130807   2.795   8.711   7.407
76325SOL    HW230808   2.848   8.786   7.527
76326SOL     OW30809  13.604   4.560  11.710
76326SOL    HW130810  13.677   4.500  11.727
76326SOL    HW230811  13.526   4.507  11.725
76327SOL     OW30812   2.005   3.048   2.191
76327SOL    HW130813   1.947   2.991   2.241
76327SOL    HW230814   1.984   3.137   2.222
76328SOL     OW30815   7.200   0.343  14.179
76328SOL    HW130816   7.240   0.257  14.166
76328SOL    HW230817   7.127   0.327  14.238
76329SOL     OW30818   5.300   7.836   1.681
76329SOL    HW130819   5.306   7.742   1.664
76329SOL    HW230820   5.213   7.848   1.720
76330SOL     OW30821   9.557   5.371   7.719
76330SOL    HW130822   9.505   5.295   7.746
76330SOL    HW230823   9.595   5.346   7.635
76331SOL     OW30824   5.635  12.228   4.670
76331SOL    HW130825   5.631  12.323   4.660
76331SOL    HW230826   5.646  12.195   4.581
76332SOL     OW30827   1.498   1.140  11.865
76332SOL    HW130828   1.532   1.226  11.888
76332SOL    HW230829   1.407   1.141  11.896
76333SOL     OW30830   2.745   2.983  10.422
76333SOL    HW130831   2.794   2.902  10.411
76333SOL    HW230832   2.687   2.966  10.497
76334SOL     OW30833  14.828   9.417  10.907
76334SOL    HW130834  14.740   9.429  10.872
76334SOL    HW230835  14.854   9.329  10.880
76335SOL     OW30836  12.562  14.328   4.015
76335SOL    HW130837  12.642  14.340   3.964
76335SOL    HW230838  12.506  14.272   3.960
76336SOL     OW30839  14.202   2.397   0.622
76336SOL    HW130840  14.132   2.334   0.609
76336SOL    HW230841  14.277   2.359   0.577
76337SOL     OW30842   7.968   1.889   8.539
76337SOL    HW130843   7.994   1.981   8.535
76337SOL    HW230844   7.879   1.890   8.574
76338SOL     OW30845   0.225   0.693   9.045
76338SOL    HW130846   0.269   0.667   8.964
76338SOL    HW230847   0.132   0.697   9.022
76339SOL     OW30848   6.528   8.414   9.614
76339SOL    HW130849   6.520   8.504   9.583
76339SOL    HW230850   6.468   8.410   9.689
76340SOL     OW30851   3.067  10.635   4.991
76340SOL    HW130852   3.162  10.635   5.002
76340SOL    HW230853   3.048  10.558   4.937
76341SOL     OW30854  14.209   7.119   1.109
76341SOL    HW130855  14.135   7.086   1.059
76341SOL    HW230856  14.199   7.214   1.108
76342SOL     OW30857  12.816   2.460  11.484
76342SOL    HW130858  12.875   2.529  11.454
76342SOL    HW230859  12.850   2.380  11.444
76343SOL     OW30860   2.477   3.827  11.854
76343SOL    HW130861   2.440   3.753  11.902
76343SOL    HW230862   2.526   3.876  11.920
76344SOL     OW30863  11.178  14.054  13.765
76344SOL    HW130864  11.095  14.042  13.719
76344SOL    HW230865  11.198  13.968  13.802
76345SOL     OW30866   3.517   4.699   3.388
76345SOL    HW130867   3.581   4.681   3.457
76345SOL    HW230868   3.504   4.794   3.391
76346SOL     OW30869   8.139   8.419  13.747
76346SOL    HW130870   8.198   8.413  13.822
76346SOL    HW230871   8.191   8.459  13.678
76347SOL     OW30872   4.622   3.423   7.663
76347SOL    HW130873   4.664   3.445   7.580
76347SOL    HW230874   4.652   3.491   7.723
76348SOL     OW30875   8.260  13.835   9.289
76348SOL    HW130876   8.170  13.869   9.283
76348SOL    HW230877   8.307  13.880   9.218
76349SOL     OW30878  13.839  11.762   6.580
76349SOL    HW130879  13.779  11.813   6.635
76349SOL    HW230880  13.923  11.765   6.626
76350SOL     OW30881   5.505  14.218  10.328
76350SOL    HW130882   5.460  14.256  10.252
76350SOL    HW230883   5.580  14.274  10.342
76351SOL     OW30884   5.648   0.061   1.092
76351SOL    HW130885   5.651   0.120   1.168
76351SOL    HW230886   5.556   0.056   1.069
76352SOL     OW30887   8.701  14.867   2.719
76352SOL    HW130888   8.610   0.011   2.693
76352SOL    HW230889   8.712   0.045   2.800
76353SOL     OW30890   0.617  14.714   5.369
76353SOL    HW130891   0.558  14.788   5.355
76353SOL    HW230892   0.560  14.642   5.396
76354SOL     OW30893   9.303  10.471   9.587
76354SOL    HW130894   9.234  10.409   9.562
76354SOL    HW230895   9.322  10.519   9.507
76355SOL     OW30896   9.020   8.291   4.961
76355SOL    HW130897   8.961   8.367   4.968
76355SOL    HW230898   9.077   8.312   4.887
76356SOL     OW30899   8.422  13.769   7.076
76356SOL    HW130900   8.381  13.846   7.036
76356SOL    HW230901   8.489  13.806   7.134
76357SOL     OW30902   5.499   3.805   1.288
76357SOL    HW130903   5.418   3.760   1.265
76357SOL    HW230904   5.506   3.877   1.226
76358SOL     OW30905   7.788   0.916  13.441
76358SOL    HW130906   7.882   0.915  13.455
76358SOL    HW230907   7.758   0.831  13.474
76359SOL     OW30908   0.349   7.594   9.847
76359SOL    HW130909   0.303   7.569   9.927
76359SOL    HW230910   0.413   7.524   9.833
76360SOL     OW30911   9.889  13.244  14.720
76360SOL    HW130912   9.909  13.294  14.799
76360SOL    HW230913   9.956  13.177  14.716
76361SOL     OW30914   7.156   7.607   4.365
76361SOL    HW130915   7.126   7.523   4.329
76361SOL    HW230916   7.175   7.588   4.457
76362SOL     OW30917  13.782   2.647   4.351
76362SOL    HW130918  13.730   2.623   4.428
76362SOL    HW230919  13.755   2.585   4.283
76363SOL     OW30920   0.571   2.258   1.855
76363SOL    HW130921   0.550   2.165   1.859
76363SOL    HW230922   0.562   2.289   1.945
76364SOL     OW30923   3.948   0.295   5.639
76364SOL    HW130924   3.928   0.220   5.584
76364SOL    HW230925   3.950   0.369   5.579
76365SOL     OW30926   5.324   0.766   4.277
76365SOL    HW130927   5.315   0.749   4.370
76365SOL    HW230928   5.243   0.734   4.238
76366SOL     OW30929   6.327   6.260   7.433
76366SOL    HW130930   6.310   6.166   7.422
76366SOL    HW230931   6.406   6.264   7.487
76367SOL     OW30932   2.644   8.032  14.279
76367SOL    HW130933   2.714   8.087  14.242
76367SOL    HW230934   2.567   8.055  14.228
76368SOL     OW30935   8.959   1.357  14.647
76368SOL    HW130936   8.879   1.314  14.676
76368SOL    HW230937   8.974   1.426  14.711
76369SOL     OW30938  11.513  10.894  12.906
76369SOL    HW130939  11.444  10.903  12.840
76369SOL    HW230940  11.517  10.800  12.924
76370SOL     OW30941  12.256  10.839   7.879
76370SOL    HW130942  12.346  10.814   7.859
76370SOL    HW230943  12.237  10.911   7.819
76371SOL     OW30944  10.915   2.892   8.617
76371SOL    HW130945  10.845   2.883   8.552
76371SOL    HW230946  10.955   2.977   8.597
76372SOL     OW30947   1.344  11.764   3.611
76372SOL    HW130948   1.263  11.804   3.578
76372SOL    HW230949   1.402  11.762   3.535
76373SOL     OW30950  10.936   9.135  12.383
76373SOL    HW130951  10.872   9.085  12.433
76373SOL    HW230952  10.897   9.222  12.373
76374SOL     OW30953   5.607   3.151   2.948
76374SOL    HW130954   5.675   3.163   3.014
76374SOL    HW230955   5.590   3.057   2.949
76375SOL     OW30956  10.747  13.337   1.425
76375SOL    HW130957  10.784  13.419   1.393
76375SOL    HW230958  10.755  13.277   1.350
76376SOL     OW30959  12.381   4.830   9.315
76376SOL    HW130960  12.474   4.808   9.312
76376SOL    HW230961  12.379   4.919   9.352
76377SOL     OW30962   0.071   9.369   3.914
76377SOL    HW130963  14.852   9.390   3.934
76377SOL    HW230964   0.119   9.386   3.995
76378SOL     OW30965   6.466   4.206  12.549
76378SOL    HW130966   6.523   4.131  12.535
76378SOL    HW230967   6.418   4.186  12.629
76379SOL     OW30968   2.154   8.374   0.662
76379SOL    HW130969   2.088   8.313   0.693
76379SOL    HW230970   2.214   8.321   0.610
76380SOL     OW30971   0.281  10.103   7.519
76380SOL    HW130972   0.287  10.031   7.582
76380SOL    HW230973   0.340  10.170   7.553
76381SOL     OW30974   3.740   3.304  12.027
76381SOL    HW130975   3.801   3.233  12.008
76381SOL    HW230976   3.664   3.287  11.972
76382SOL     OW30977  12.699  13.791   3.345
76382SOL    HW130978  12.656  13.720   3.393
76382SOL    HW230979  12.790  13.765   3.340
76383SOL     OW30980   1.483   5.045   8.138
76383SOL    HW130981   1.506   5.116   8.198
76383SOL    HW230982   1.535   4.971   8.168
76384SOL     OW30983  10.791   9.192  11.806
76384SOL    HW130984  10.821   9.123  11.746
76384SOL    HW230985  10.820   9.273  11.766
76385SOL     OW30986   7.506   3.980   3.495
76385SOL    HW130987   7.597   3.999   3.471
76385SOL    HW230988   7.513   3.917   3.567
76386SOL     OW30989   2.297   3.522   1.042
76386SOL    HW130990   2.374   3.497   1.092
76386SOL    HW230991   2.297   3.464   0.966
76387SOL     OW30992   8.612  10.857   1.259
76387SOL    HW130993   8.518  10.843   1.271
76387SOL    HW230994   8.625  10.950   1.277
76388SOL     OW30995   5.925   1.296   8.826
76388SOL    HW130996   5.943   1.384   8.858
76388SOL    HW230997   5.845   1.270   8.871
76389SOL     OW30998   1.878  11.619   0.201
76389SOL    HW130999   1.789  11.586   0.213
76389SOL    HW231000   1.871  11.680   0.128
76390SOL     OW31001   9.044   1.704   7.910
76390SOL    HW131002   9.054   1.616   7.947
76390SOL    HW231003   8.955   1.707   7.877
76391SOL     OW31004  14.613   8.299  13.725
76391SOL    HW131005  14.522   8.314  13.701
76391SOL    HW231006  14.620   8.332  13.814
76392SOL     OW31007  10.558  10.130   7.979
76392SOL    HW131008  10.628  10.117   7.915
76392SOL    HW231009  10.603  10.143   8.062
76393SOL     OW31010   4.551   0.073   0.827
76393SOL    HW131011   4.593   0.151   0.862
76393SOL    HW231012   4.574   0.073   0.734
76394SOL     OW31013   8.949   8.234   7.414
76394SOL    HW131014   8.999   8.300   7.366
76394SOL    HW231015   8.987   8.233   7.502
76395SOL     OW31016  11.782   6.264   4.043
76395SOL    HW131017  11.773   6.333   3.977
76395SOL    HW231018  11.714   6.200   4.019
76396SOL     OW31019  14.187  13.701   1.071
76396SOL    HW131020  14.273  13.688   1.030
76396SOL    HW231021  14.128  13.720   0.998
76397SOL     OW31022   4.751   1.550   7.309
76397SOL    HW131023   4.706   1.621   7.356
76397SOL    HW231024   4.684   1.513   7.252
76398SOL     OW31025   3.903   7.821  12.637
76398SOL    HW131026   3.918   7.728  12.656
76398SOL    HW231027   3.990   7.856  12.621
76399SOL     OW31028   6.110   3.321   7.500
76399SOL    HW131029   6.165   3.285   7.570
76399SOL    HW231030   6.171   3.373   7.447
76400SOL     OW31031   9.072   9.102   3.527
76400SOL    HW131032   9.111   9.140   3.448
76400SOL    HW231033   9.143   9.100   3.591
76401SOL     OW31034   4.796   7.799   6.549
76401SOL    HW131035   4.873   7.824   6.498
76401SOL    HW231036   4.808   7.840   6.634
76402SOL     OW31037   4.856   1.973   5.076
76402SOL    HW131038   4.937   2.023   5.063
76402SOL    HW231039   4.815   2.014   5.152
76403SOL     OW31040   6.887   5.477  10.061
76403SOL    HW131041   6.859   5.567  10.082
76403SOL    HW231042   6.982   5.481  10.062
76404SOL     OW31043  10.287   9.579   5.274
76404SOL    HW131044  10.241   9.567   5.191
76404SOL    HW231045  10.379   9.559   5.254
76405SOL     OW31046   0.689   6.442  14.061
76405SOL    HW131047   0.772   6.438  14.014
76405SOL    HW231048   0.671   6.351  14.085
76406SOL     OW31049   5.400   2.245  12.474
76406SOL    HW131050   5.343   2.193  12.418
76406SOL    HW231051   5.392   2.204  12.560
76407SOL     OW31052   6.522   9.263   8.899
76407SOL    HW131053   6.481   9.207   8.833
76407SOL    HW231054   6.610   9.227   8.909
76408SOL     OW31055  10.239   0.954   0.652
76408SOL    HW131056  10.188   1.024   0.692
76408SOL    HW231057  10.244   0.977   0.559
76409SOL     OW31058   6.839   7.516   1.080
76409SOL    HW131059   6.865   7.431   1.045
76409SOL    HW231060   6.790   7.557   1.009
76410SOL     OW31061  13.980   6.749   9.011
76410SOL    HW131062  13.973   6.705   9.095
76410SOL    HW231063  13.893   6.785   8.995
76411SOL     OW31064  11.773   9.041   1.003
76411SOL    HW131065  11.835   9.025   1.074
76411SOL    HW231066  11.809   8.992   0.929
76412SOL     OW31067   5.909  13.058   8.784
76412SOL    HW131068   6.003  13.043   8.798
76412SOL    HW231069   5.900  13.154   8.785
76413SOL     OW31070   5.370   5.799  10.691
76413SOL    HW131071   5.305   5.746  10.736
76413SOL    HW231072   5.335   5.811  10.603
76414SOL     OW31073   7.220   1.819   9.974
76414SOL    HW131074   7.175   1.740   9.945
76414SOL    HW231075   7.313   1.798   9.968
76415SOL     OW31076   3.023  14.545   1.661
76415SOL    HW131077   3.018  14.450   1.658
76415SOL    HW231078   2.935  14.574   1.637
76416SOL     OW31079   1.365  13.890   2.919
76416SOL    HW131080   1.378  13.814   2.976
76416SOL    HW231081   1.450  13.933   2.918
76417SOL     OW31082  11.054  14.116   6.436
76417SOL    HW131083  10.974  14.113   6.487
76417SOL    HW231084  11.036  14.182   6.368
76418SOL     OW31085  10.464   8.910   0.866
76418SOL    HW131086  10.527   8.982   0.869
76418SOL    HW231087  10.462   8.883   0.775
76419SOL     OW31088   6.663  13.772   4.822
76419SOL    HW131089   6.702  13.730   4.745
76419SOL    HW231090   6.571  13.783   4.798
76420SOL     OW31091   3.301   4.332   3.656
76420SOL    HW131092   3.291   4.313   3.749
76420SOL    HW231093   3.393   4.359   3.647
76421SOL     OW31094   7.551   6.785  11.031
76421SOL    HW131095   7.637   6.767  11.068
76421SOL    HW231096   7.549   6.736  10.948
76422SOL     OW31097   5.935   8.863  10.739
76422SOL    HW131098   5.845   8.894  10.736
76422SOL    HW231099   5.935   8.794  10.806
76423SOL     OW31100   7.400  14.675   4.329
76423SOL    HW131101   7.324  14.731   4.316
76423SOL    HW231102   7.441  14.669   4.242
76424SOL     OW31103  14.766   8.192   1.555
76424SOL    HW131104  14.739   8.260   1.494
76424SOL    HW231105  14.684   8.147   1.578
76425SOL     OW31106   3.538   9.575  12.260
76425SOL    HW131107   3.630   9.597  12.247
76425SOL    HW231108   3.495   9.659  12.275
76426SOL     OW31109   8.463   6.200   6.042
76426SOL    HW131110   8.395   6.229   5.983
76426SOL    HW231111   8.544   6.202   5.991
76427SOL     OW31112   0.002  14.715   8.894
76427SOL    HW131113   0.044  14.641   8.939
76427SOL    HW231114   0.061  14.789   8.909
76428SOL     OW31115   9.575   4.193   8.466
76428SOL    HW131116   9.503   4.130   8.470
76428SOL    HW231117   9.533   4.279   8.465
76429SOL     OW31118   9.806  10.694   3.303
76429SOL    HW131119   9.825  10.605   3.332
76429SOL    HW231120   9.769  10.683   3.215
76430SOL     OW31121   8.514   6.214  11.598
76430SOL    HW131122   8.578   6.223  11.669
76430SOL    HW231123   8.506   6.119  11.585
76431SOL     OW31124   2.195   3.354   1.490
76431SOL    HW131125   2.280   3.308   1.491
76431SOL    HW231126   2.150   3.321   1.568
76432SOL     OW31127   8.977   2.154   1.447
76432SOL    HW131128   8.988   2.242   1.412
76432SOL    HW231129   9.064   2.131   1.482
76433SOL     OW31130  14.324   2.547   3.857
76433SOL    HW131131  14.300   2.624   3.804
76433SOL    HW231132  14.254   2.540   3.921
76434SOL     OW31133   0.865   4.621  14.423
76434SOL    HW131134   0.881   4.658  14.510
76434SOL    HW231135   0.801   4.681  14.384
76435SOL     OW31136   4.776  13.435  12.232
76435SOL    HW131137   4.820  13.391  12.159
76435SOL    HW231138   4.753  13.364  12.292
76436SOL     OW31139   7.890   7.586   1.306
76436SOL    HW131140   7.840   7.590   1.387
76436SOL    HW231141   7.943   7.665   1.307
76437SOL     OW31142  12.477  10.524  12.519
76437SOL    HW131143  12.471  10.460  12.590
76437SOL    HW231144  12.500  10.473  12.442
76438SOL     OW31145   0.497   9.312  14.354
76438SOL    HW131146   0.509   9.407  14.348
76438SOL    HW231147   0.512   9.280  14.265
76439SOL     OW31148   7.134  10.602  12.677
76439SOL    HW131149   7.149  10.637  12.590
76439SOL    HW231150   7.085  10.670  12.723
76440SOL     OW31151   1.884  12.233   7.923
76440SOL    HW131152   1.915  12.153   7.880
76440SOL    HW231153   1.889  12.300   7.855
76441SOL     OW31154  14.344   5.665   2.158
76441SOL    HW131155  14.351   5.570   2.173
76441SOL    HW231156  14.376   5.677   2.069
76442SOL     OW31157   4.015   9.504   0.076
76442SOL    HW131158   3.944   9.487   0.014
76442SOL    HW231159   4.083   9.546   0.023
76443SOL     OW31160   0.335   9.990   3.239
76443SOL    HW131161   0.271   9.940   3.288
76443SOL    HW231162   0.299  10.079   3.235
76444SOL     OW31163   5.975   7.294  14.147
76444SOL    HW131164   5.886   7.317  14.172
76444SOL    HW231165   6.027   7.308  14.227
76445SOL     OW31166   1.542  10.902   8.752
76445SOL    HW131167   1.522  10.994   8.735
76445SOL    HW231168   1.585  10.871   8.672
76446SOL     OW31169   5.512  10.706   6.588
76446SOL    HW131170   5.476  10.657   6.514
76446SOL    HW231171   5.591  10.748   6.554
76447SOL     OW31172  13.693  12.919   1.963
76447SOL    HW131173  13.727  13.008   1.976
76447SOL    HW231174  13.600  12.927   1.981
76448SOL     OW31175   2.967   9.282   9.590
76448SOL    HW131176   2.903   9.210   9.587
76448SOL    HW231177   3.027   9.263   9.518
76449SOL     OW31178  10.706  10.844   2.880
76449SOL    HW131179  10.651  10.897   2.937
76449SOL    HW231180  10.768  10.802   2.939
76450SOL     OW31181  13.940   9.910  12.672
76450SOL    HW131182  13.915   9.858  12.749
76450SOL    HW231183  14.025   9.947  12.695
76451SOL     OW31184  11.635   4.142   8.761
76451SOL    HW131185  11.605   4.095   8.684
76451SOL    HW231186  11.730   4.147   8.751
76452SOL     OW31187  12.538   0.810  12.366
76452SOL    HW131188  12.493   0.737  12.323
76452SOL    HW231189  12.568   0.866  12.294
76453SOL     OW31190  13.336  13.040   9.659
76453SOL    HW131191  13.407  13.011   9.602
76453SOL    HW231192  13.366  13.017   9.747
76454SOL     OW31193  10.118  12.179   6.829
76454SOL    HW131194  10.212  12.160   6.818
76454SOL    HW231195  10.109  12.270   6.801
76455SOL     OW31196   5.944   0.600   0.666
76455SOL    HW131197   5.981   0.619   0.580
76455SOL    HW231198   5.940   0.685   0.710
76456SOL     OW31199  12.033  12.304  12.608
76456SOL    HW131200  12.126  12.299  12.626
76456SOL    HW231201  12.016  12.235  12.544
76457SOL     OW31202   3.722   2.564   4.901
76457SOL    HW131203   3.681   2.480   4.919
76457SOL    HW231204   3.802   2.543   4.853
76458SOL     OW31205   1.245   2.089  14.185
76458SOL    HW131206   1.192   2.157  14.143
76458SOL    HW231207   1.330   2.130  14.200
76459SOL     OW31208  14.490   5.210  10.997
76459SOL    HW131209  14.549   5.281  10.972
76459SOL    HW231210  14.507   5.196  11.091
76460SOL     OW31211  12.536   5.603   2.780
76460SOL    HW131212  12.593   5.654   2.723
76460SOL    HW231213  12.512   5.663   2.850
76461SOL     OW31214   7.892   0.795  12.215
76461SOL    HW131215   7.889   0.700  12.224
76461SOL    HW231216   7.818   0.816  12.159
76462SOL     OW31217  12.775  14.315   5.003
76462SOL    HW131218  12.798  14.393   5.053
76462SOL    HW231219  12.855  14.261   5.005
76463SOL     OW31220   0.178   7.798   6.617
76463SOL    HW131221   0.097   7.816   6.571
76463SOL    HW231222   0.158   7.818   6.709
76464SOL     OW31223  13.283  13.140   0.353
76464SOL    HW131224  13.311  13.179   0.436
76464SOL    HW231225  13.191  13.118   0.367
76465SOL     OW31226   6.044   1.064   5.488
76465SOL    HW131227   6.049   0.972   5.464
76465SOL    HW231228   5.988   1.103   5.420
76466SOL     OW31229   7.794   7.320   5.149
76466SOL    HW131230   7.715   7.311   5.096
76466SOL    HW231231   7.860   7.357   5.090
76467SOL     OW31232   7.664   6.872   2.370
76467SOL    HW131233   7.641   6.942   2.431
76467SOL    HW231234   7.666   6.915   2.284
76468SOL     OW31235   4.580   2.604  13.995
76468SOL    HW131236   4.497   2.653  13.997
76468SOL    HW231237   4.606   2.604  13.903
76469SOL     OW31238   1.574  14.032   6.602
76469SOL    HW131239   1.641  14.012   6.666
76469SOL    HW231240   1.520  13.953   6.597
76470SOL     OW31241   6.007   2.964  13.294
76470SOL    HW131242   6.011   3.057  13.271
76470SOL    HW231243   6.022   2.918  13.211
76471SOL     OW31244   4.681  11.178  13.448
76471SOL    HW131245   4.630  11.126  13.510
76471SOL    HW231246   4.754  11.212  13.499
76472SOL     OW31247  14.244  14.714   1.486
76472SOL    HW131248  14.236  14.794   1.538
76472SOL    HW231249  14.237  14.643   1.549
76473SOL     OW31250   9.778   6.106  10.909
76473SOL    HW131251   9.866   6.139  10.890
76473SOL    HW231252   9.747   6.073  10.825
76474SOL     OW31253  12.103   2.123  11.272
76474SOL    HW131254  12.189   2.101  11.237
76474SOL    HW231255  12.050   2.143  11.194
76475SOL     OW31256  10.017  13.143   8.888
76475SOL    HW131257   9.946  13.081   8.872
76475SOL    HW231258  10.086  13.117   8.827
76476SOL     OW31259   0.845   8.141  12.931
76476SOL    HW131260   0.897   8.209  12.887
76476SOL    HW231261   0.828   8.177  13.018
76477SOL     OW31262   4.585   4.219   0.955
76477SOL    HW131263   4.610   4.143   0.904
76477SOL    HW231264   4.519   4.263   0.902
76478SOL     OW31265   5.588  13.284  10.590
76478SOL    HW131266   5.514  13.249  10.639
76478SOL    HW231267   5.655  13.217  10.594
76479SOL     OW31268   7.945  10.495   9.458
76479SOL    HW131269   7.918  10.508   9.549
76479SOL    HW231270   7.898  10.563   9.409
76480SOL     OW31271   9.260   6.434   2.227
76480SOL    HW131272   9.304   6.378   2.292
76480SOL    HW231273   9.183   6.468   2.273
76481SOL     OW31274  10.784   0.018  13.770
76481SOL    HW131275  10.841  14.861  13.699
76481SOL    HW231276  10.826  14.858  13.850
76482SOL     OW31277   5.346   1.745   5.908
76482SOL    HW131278   5.296   1.736   5.989
76482SOL    HW231279   5.280   1.750   5.839
76483SOL     OW31280   6.963  14.846   2.832
76483SOL    HW131281   7.051  14.871   2.861
76483SOL    HW231282   6.970  14.839   2.737
76484SOL     OW31283   1.085   9.530  14.369
76484SOL    HW131284   1.125   9.498  14.288
76484SOL    HW231285   1.158   9.548  14.427
76485SOL     OW31286  10.624   6.204   7.666
76485SOL    HW131287  10.639   6.208   7.572
76485SOL    HW231288  10.529   6.194   7.674
76486SOL     OW31289   3.769   8.380  12.731
76486SOL    HW131290   3.752   8.466  12.692
76486SOL    HW231291   3.859   8.359  12.706
76487SOL     OW31292   8.365  13.739   6.578
76487SOL    HW131293   8.278  13.754   6.616
76487SOL    HW231294   8.376  13.644   6.580
76488SOL     OW31295   1.083   6.162  10.538
76488SOL    HW131296   1.114   6.075  10.513
76488SOL    HW231297   1.153   6.221  10.511
76489SOL     OW31298   8.338  10.017  10.285
76489SOL    HW131299   8.381  10.102  10.297
76489SOL    HW231300   8.350   9.972  10.369
76490SOL     OW31301   8.974  13.731   2.944
76490SOL    HW131302   8.934  13.765   2.864
76490SOL    HW231303   8.997  13.809   2.994
76491SOL     OW31304   6.447  10.437   2.759
76491SOL    HW131305   6.476  10.488   2.834
76491SOL    HW231306   6.442  10.501   2.687
76492SOL     OW31307   2.680  10.553  11.678
76492SOL    HW131308   2.585  10.544  11.672
76492SOL    HW231309   2.712  10.520  11.594
76493SOL     OW31310   8.645   4.952   9.388
76493SOL    HW131311   8.667   5.044   9.372
76493SOL    HW231312   8.660   4.909   9.304
76494SOL     OW31313   5.652  14.783  13.024
76494SOL    HW131314   5.600  14.840  12.968
76494SOL    HW231315   5.626  14.805  13.113
76495SOL     OW31316   2.287  12.012  10.480
76495SOL    HW131317   2.324  12.031  10.566
76495SOL    HW231318   2.350  11.953  10.440
76496SOL     OW31319   4.441  10.481   2.177
76496SOL    HW131320   4.447  10.432   2.259
76496SOL    HW231321   4.377  10.550   2.195
76497SOL     OW31322   0.247   8.166   0.466
76497SOL    HW131323   0.302   8.173   0.387
76497SOL    HW231324   0.294   8.217   0.532
76498SOL     OW31325   0.411  14.541   1.880
76498SOL    HW131326   0.318  14.524   1.871
76498SOL    HW231327   0.426  14.618   1.826
76499SOL     OW31328  14.771   9.224   7.515
76499SOL    HW131329  14.801   9.308   7.482
76499SOL    HW231330  14.831   9.160   7.477
76500SOL     OW31331   8.203  11.742  11.855
76500SOL    HW131332   8.178  11.650  11.863
76500SOL    HW231333   8.287  11.747  11.901
76501SOL     OW31334  13.851   2.483   5.653
76501SOL    HW131335  13.939   2.518   5.637
76501SOL    HW231336  13.837   2.421   5.581
76502SOL     OW31337  11.448   2.219  14.091
76502SOL    HW131338  11.377   2.283  14.086
76502SOL    HW231339  11.489   2.236  14.176
76503SOL     OW31340   8.640   2.301  10.653
76503SOL    HW131341   8.702   2.238  10.690
76503SOL    HW231342   8.693   2.376  10.627
76504SOL     OW31343   8.070   1.178   7.872
76504SOL    HW131344   8.104   1.098   7.912
76504SOL    HW231345   8.078   1.245   7.940
76505SOL     OW31346  13.642  13.812   2.462
76505SOL    HW131347  13.619  13.897   2.500
76505SOL    HW231348  13.691  13.767   2.531
76506SOL     OW31349   5.525  10.204  11.019
76506SOL    HW131350   5.615  10.235  11.032
76506SOL    HW231351   5.525  10.114  11.052
76507SOL     OW31352  12.974  14.673  11.207
76507SOL    HW131353  13.062  14.653  11.240
76507SOL    HW231354  12.917  14.608  11.248
76508SOL     OW31355   5.408  11.208   1.529
76508SOL    HW131356   5.450  11.236   1.447
76508SOL    HW231357   5.393  11.289   1.577
76509SOL     OW31358   3.798  11.172  14.053
76509SOL    HW131359   3.810  11.127  14.137
76509SOL    HW231360   3.752  11.108  13.998
76510SOL     OW31361   8.193   0.531  11.778
76510SOL    HW131362   8.176   0.525  11.684
76510SOL    HW231363   8.287   0.515  11.787
76511SOL     OW31364  11.795   9.345   7.362
76511SOL    HW131365  11.876   9.352   7.312
76511SOL    HW231366  11.788   9.252   7.384
76512SOL     OW31367   3.432  11.064  10.096
76512SOL    HW131368   3.403  11.074  10.005
76512SOL    HW231369   3.526  11.044  10.088
76513SOL     OW31370   9.522   2.379  14.219
76513SOL    HW131371   9.584   2.449  14.200
76513SOL    HW231372   9.574   2.312  14.262
76514SOL     OW31373   3.900   3.589   8.682
76514SOL    HW131374   3.916   3.625   8.769
76514SOL    HW231375   3.976   3.618   8.630
76515SOL     OW31376   3.584  14.788   6.641
76515SOL    HW131377   3.664  14.797   6.589
76515SOL    HW231378   3.614  14.759   6.727
76516SOL     OW31379   6.300  11.894  13.577
76516SOL    HW131380   6.259  11.908  13.662
76516SOL    HW231381   6.392  11.916  13.591
76517SOL     OW31382  12.962   9.046  12.467
76517SOL    HW131383  12.930   8.963  12.432
76517SOL    HW231384  13.016   9.084  12.398
76518SOL     OW31385  11.311   2.381   6.072
76518SOL    HW131386  11.350   2.294   6.082
76518SOL    HW231387  11.331   2.405   5.981
76519SOL     OW31388   2.824   6.772   6.660
76519SOL    HW131389   2.747   6.823   6.686
76519SOL    HW231390   2.840   6.799   6.569
76520SOL     OW31391   6.253  11.177   2.582
76520SOL    HW131392   6.159  11.195   2.582
76520SOL    HW231393   6.268  11.123   2.659
76521SOL     OW31394   8.701  10.081   9.067
76521SOL    HW131395   8.753  10.004   9.089
76521SOL    HW231396   8.729  10.103   8.978
76522SOL     OW31397  10.913  10.997   0.955
76522SOL    HW131398  10.994  10.965   0.993
76522SOL    HW231399  10.894  11.078   1.003
76523SOL     OW31400   1.257  14.841  13.493
76523SOL    HW131401   1.324  14.786  13.534
76523SOL    HW231402   1.250   0.044  13.551
76524SOL     OW31403   4.504   3.693   7.773
76524SOL    HW131404   4.491   3.784   7.747
76524SOL    HW231405   4.480   3.691   7.866
76525SOL     OW31406  14.333   5.946   9.936
76525SOL    HW131407  14.285   5.870   9.968
76525SOL    HW231408  14.277   5.982   9.867
76526SOL     OW31409  14.636  14.291   5.852
76526SOL    HW131410  14.698  14.364   5.866
76526SOL    HW231411  14.683  14.214   5.884
76527SOL     OW31412   6.191  14.558   0.911
76527SOL    HW131413   6.190  14.573   1.005
76527SOL    HW231414   6.271  14.600   0.880
76528SOL     OW31415   4.921  11.108   0.778
76528SOL    HW131416   4.883  11.044   0.717
76528SOL    HW231417   4.909  11.068   0.865
76529SOL     OW31418  13.091   5.150   8.755
76529SOL    HW131419  13.093   5.101   8.673
76529SOL    HW231420  13.183   5.158   8.781
76530SOL     OW31421  13.152   0.657  14.371
76530SOL    HW131422  13.058   0.649  14.354
76530SOL    HW231423  13.166   0.750  14.390
76531SOL     OW31424   5.161   5.375  14.779
76531SOL    HW131425   5.232   5.433  14.750
76531SOL    HW231426   5.107   5.430  14.835
76532SOL     OW31427   6.223   1.985   9.492
76532SOL    HW131428   6.178   1.955   9.413
76532SOL    HW231429   6.231   1.907   9.547
76533SOL     OW31430   9.821   6.970   6.651
76533SOL    HW131431   9.821   6.995   6.743
76533SOL    HW231432   9.875   7.037   6.608
76534SOL     OW31433  12.881   2.596  14.023
76534SOL    HW131434  12.847   2.588  14.112
76534SOL    HW231435  12.975   2.612  14.034
76535SOL     OW31436  10.850   7.628   2.605
76535SOL    HW131437  10.872   7.538   2.581
76535SOL    HW231438  10.810   7.620   2.692
76536SOL     OW31439  14.181  11.151   7.143
76536SOL    HW131440  14.270  11.143   7.109
76536SOL    HW231441  14.129  11.089   7.092
76537SOL     OW31442   1.009   5.193   3.905
76537SOL    HW131443   0.977   5.265   3.959
76537SOL    HW231444   1.025   5.233   3.819
76538SOL     OW31445   9.324   8.967  10.327
76538SOL    HW131446   9.279   9.004  10.403
76538SOL    HW231447   9.296   8.875  10.325
76539SOL     OW31448   4.161  11.402  12.541
76539SOL    HW131449   4.225  11.338  12.508
76539SOL    HW231450   4.081  11.351  12.555
76540SOL     OW31451   9.820  12.620  13.550
76540SOL    HW131452   9.896  12.617  13.492
76540SOL    HW231453   9.808  12.712  13.570
76541SOL     OW31454   8.791  12.784   5.234
76541SOL    HW131455   8.767  12.700   5.272
76541SOL    HW231456   8.869  12.811   5.282
76542SOL     OW31457   8.722   0.301   0.484
76542SOL    HW131458   8.781   0.364   0.444
76542SOL    HW231459   8.706   0.236   0.415
76543SOL     OW31460   2.293  12.169   3.483
76543SOL    HW131461   2.369  12.210   3.524
76543SOL    HW231462   2.226  12.237   3.481
76544SOL     OW31463  13.469   3.816  14.071
76544SOL    HW131464  13.441   3.849  13.986
76544SOL    HW231465  13.509   3.893  14.114
76545SOL     OW31466   4.136  11.032   7.883
76545SOL    HW131467   4.150  10.940   7.861
76545SOL    HW231468   4.042  11.046   7.870
76546SOL     OW31469   7.942   4.805   7.297
76546SOL    HW131470   8.021   4.760   7.268
76546SOL    HW231471   7.870   4.751   7.263
76547SOL     OW31472   3.329   7.396   1.822
76547SOL    HW131473   3.366   7.379   1.909
76547SOL    HW231474   3.367   7.330   1.765
76548SOL     OW31475   4.139   1.462   5.321
76548SOL    HW131476   4.175   1.524   5.257
76548SOL    HW231477   4.091   1.517   5.383
76549SOL     OW31478  11.050   0.936   0.965
76549SOL    HW131479  11.139   0.961   0.989
76549SOL    HW231480  11.018   1.009   0.912
76550SOL     OW31481   3.898   2.326   7.617
76550SOL    HW131482   3.964   2.395   7.618
76550SOL    HW231483   3.946   2.247   7.594
76551SOL     OW31484   3.260   1.592   3.106
76551SOL    HW131485   3.307   1.668   3.072
76551SOL    HW231486   3.328   1.527   3.123
76552SOL     OW31487  11.983   2.607   9.446
76552SOL    HW131488  11.936   2.679   9.488
76552SOL    HW231489  12.072   2.613   9.479
76553SOL     OW31490   9.185   5.167  14.544
76553SOL    HW131491   9.117   5.148  14.608
76553SOL    HW231492   9.140   5.168  14.460
76554SOL     OW31493   7.661   0.938   6.486
76554SOL    HW131494   7.720   0.975   6.420
76554SOL    HW231495   7.713   0.936   6.567
76555SOL     OW31496   6.669   0.128   3.053
76555SOL    HW131497   6.752   0.164   3.021
76555SOL    HW231498   6.602   0.187   3.017
76556SOL     OW31499   3.339   2.226   0.881
76556SOL    HW131500   3.348   2.137   0.848
76556SOL    HW231501   3.334   2.217   0.976
76557SOL     OW31502  11.739   8.330  10.361
76557SOL    HW131503  11.774   8.257  10.309
76557SOL    HW231504  11.658   8.295  10.400
76558SOL     OW31505   2.265  11.570   3.476
76558SOL    HW131506   2.253  11.478   3.457
76558SOL    HW231507   2.325  11.602   3.410
76559SOL     OW31508   4.977   7.685   5.210
76559SOL    HW131509   4.967   7.696   5.115
76559SOL    HW231510   5.049   7.621   5.219
76560SOL     OW31511   4.402  13.418   9.401
76560SOL    HW131512   4.397  13.417   9.496
76560SOL    HW231513   4.423  13.327   9.377
76561SOL     OW31514  13.725  10.679   3.153
76561SOL    HW131515  13.670  10.728   3.092
76561SOL    HW231516  13.694  10.705   3.239
76562SOL     OW31517   7.505  10.179   7.830
76562SOL    HW131518   7.593  10.155   7.860
76562SOL    HW231519   7.473  10.100   7.786
76563SOL     OW31520  13.993   5.347   9.617
76563SOL    HW131521  13.934   5.277   9.647
76563SOL    HW231522  13.980   5.351   9.523
76564SOL     OW31523   4.987   8.371   7.880
76564SOL    HW131524   5.016   8.286   7.912
76564SOL    HW231525   4.914   8.350   7.821
76565SOL     OW31526   4.770  13.704  12.167
76565SOL    HW131527   4.805  13.616  12.179
76565SOL    HW231528   4.845  13.762  12.175
76566SOL     OW31529   6.223   5.503  11.342
76566SOL    HW131530   6.317   5.487  11.342
76566SOL    HW231531   6.186   5.429  11.293
76567SOL     OW31532  13.993   3.018   6.500
76567SOL    HW131533  13.936   2.998   6.574
76567SOL    HW231534  13.940   2.999   6.423
76568SOL     OW31535   8.371   5.618   1.816
76568SOL    HW131536   8.400   5.631   1.726
76568SOL    HW231537   8.279   5.646   1.815
76569SOL     OW31538   2.495  12.506   6.029
76569SOL    HW131539   2.461  12.528   6.116
76569SOL    HW231540   2.424  12.526   5.969
76570SOL     OW31541  13.034   2.865   7.211
76570SOL    HW131542  13.110   2.923   7.215
76570SOL    HW231543  12.998   2.867   7.300
76571SOL     OW31544  10.334   9.108  11.777
76571SOL    HW131545  10.339   9.034  11.837
76571SOL    HW231546  10.255   9.092  11.725
76572SOL     OW31547   3.350   3.572  11.912
76572SOL    HW131548   3.372   3.656  11.870
76572SOL    HW231549   3.349   3.509  11.840
76573SOL     OW31550   2.077   3.160   9.156
76573SOL    HW131551   2.037   3.084   9.199
76573SOL    HW231552   2.097   3.130   9.068
76574SOL     OW31553  10.036  13.894   4.310
76574SOL    HW131554  10.074  13.807   4.315
76574SOL    HW231555  10.109  13.954   4.327
76575SOL     OW31556   8.223  11.581   8.021
76575SOL    HW131557   8.127  11.580   8.017
76575SOL    HW231558   8.246  11.503   8.072
76576SOL     OW31559  10.486   7.384   5.208
76576SOL    HW131560  10.409   7.438   5.225
76576SOL    HW231561  10.478   7.358   5.116
76577SOL     OW31562   3.586   1.818   4.060
76577SOL    HW131563   3.635   1.896   4.038
76577SOL    HW231564   3.524   1.807   3.988
76578SOL     OW31565   1.379   8.867   1.178
76578SOL    HW131566   1.292   8.903   1.161
76578SOL    HW231567   1.380   8.853   1.273
76579SOL     OW31568   6.357   8.719   5.957
76579SOL    HW131569   6.452   8.723   5.946
76579SOL    HW231570   6.323   8.701   5.869
76580SOL     OW31571   2.699   8.517  11.402
76580SOL    HW131572   2.755   8.574  11.454
76580SOL    HW231573   2.702   8.553  11.314
76581SOL     OW31574  13.674   3.003   3.669
76581SOL    HW131575  13.632   3.047   3.596
76581SOL    HW231576  13.675   2.910   3.644
76582SOL     OW31577   5.545  13.133   3.147
76582SOL    HW131578   5.585  13.139   3.234
76582SOL    HW231579   5.466  13.188   3.154
76583SOL     OW31580   9.107   7.934  10.249
76583SOL    HW131581   9.191   7.902  10.282
76583SOL    HW231582   9.128   7.969  10.162
76584SOL     OW31583   2.257  11.535   9.710
76584SOL    HW131584   2.271  11.619   9.666
76584SOL    HW231585   2.190  11.492   9.658
76585SOL     OW31586  12.794   0.387   8.532
76585SOL    HW131587  12.801   0.426   8.619
76585SOL    HW231588  12.723   0.323   8.540
76586SOL     OW31589   2.312  10.352   6.199
76586SOL    HW131590   2.233  10.396   6.229
76586SOL    HW231591   2.321  10.378   6.107
76587SOL     OW31592  10.949  14.051   5.058
76587SOL    HW131593  10.940  14.104   4.979
76587SOL    HW231594  10.991  14.110   5.121
76588SOL     OW31595   3.610   1.991  14.437
76588SOL    HW131596   3.548   2.063  14.431
76588SOL    HW231597   3.629   1.968  14.346
76589SOL     OW31598   0.909  12.660   7.761
76589SOL    HW131599   0.988  12.675   7.813
76589SOL    HW231600   0.933  12.590   7.701
76590SOL     OW31601  13.955   4.637   4.321
76590SOL    HW131602  13.989   4.578   4.254
76590SOL    HW231603  13.862   4.616   4.327
76591SOL     OW31604   0.351   3.911   2.074
76591SOL    HW131605   0.371   4.001   2.048
76591SOL    HW231606   0.255   3.908   2.075
76592SOL     OW31607   7.436   0.387  11.708
76592SOL    HW131608   7.438   0.380  11.803
76592SOL    HW231609   7.396   0.306  11.678
76593SOL     OW31610   3.219   0.349   3.223
76593SOL    HW131611   3.133   0.309   3.207
76593SOL    HW231612   3.244   0.386   3.139
76594SOL     OW31613   1.965   2.061   7.732
76594SOL    HW131614   1.933   2.128   7.672
76594SOL    HW231615   2.056   2.045   7.704
76595SOL     OW31616  11.872   1.054   0.324
76595SOL    HW131617  11.842   1.003   0.399
76595SOL    HW231618  11.885   0.989   0.254
76596SOL     OW31619   8.161   9.826  11.811
76596SOL    HW131620   8.093   9.810  11.877
76596SOL    HW231621   8.143   9.762  11.742
76597SOL     OW31622   6.145  12.781   6.981
76597SOL    HW131623   6.138  12.686   6.986
76597SOL    HW231624   6.182  12.806   7.066
76598SOL     OW31625   5.377   3.510   8.293
76598SOL    HW131626   5.450   3.566   8.319
76598SOL    HW231627   5.333   3.488   8.375
76599SOL     OW31628   1.853   2.395   1.661
76599SOL    HW131629   1.843   2.315   1.608
76599SOL    HW231630   1.916   2.371   1.729
76600SOL     OW31631   3.446   1.711   8.081
76600SOL    HW131632   3.407   1.658   8.150
76600SOL    HW231633   3.427   1.663   8.000
76601SOL     OW31634   6.821   9.625  12.779
76601SOL    HW131635   6.845   9.590  12.693
76601SOL    HW231636   6.750   9.568  12.809
76602SOL     OW31637   8.693   0.233  13.880
76602SOL    HW131638   8.752   0.302  13.913
76602SOL    HW231639   8.647   0.274  13.807
76603SOL     OW31640  10.516   1.448  12.613
76603SOL    HW131641  10.449   1.381  12.602
76603SOL    HW231642  10.480   1.525  12.569
76604SOL     OW31643   1.864   4.831   1.077
76604SOL    HW131644   1.780   4.836   1.122
76604SOL    HW231645   1.899   4.920   1.082
76605SOL     OW31646  12.136   9.522   7.828
76605SOL    HW131647  12.056   9.471   7.820
76605SOL    HW231648  12.115   9.591   7.890
76606SOL     OW31649   6.889  12.320  12.975
76606SOL    HW131650   6.804  12.328  13.018
76606SOL    HW231651   6.873  12.349  12.885
76607SOL     OW31652   8.678   8.526   6.625
76607SOL    HW131653   8.602   8.564   6.582
76607SOL    HW231654   8.745   8.595   6.622
76608SOL     OW31655   8.618  11.104   3.684
76608SOL    HW131656   8.689  11.144   3.734
76608SOL    HW231657   8.559  11.177   3.665
76609SOL     OW31658   7.076  12.377   0.479
76609SOL    HW131659   7.110  12.366   0.390
76609SOL    HW231660   6.981  12.366   0.469
76610SOL     OW31661   3.158   9.709   4.907
76610SOL    HW131662   3.072   9.735   4.875
76610SOL    HW231663   3.217   9.779   4.879
76611SOL     OW31664  11.635   4.445   2.854
76611SOL    HW131665  11.647   4.401   2.939
76611SOL    HW231666  11.653   4.537   2.872
76612SOL     OW31667   2.293   7.424  10.187
76612SOL    HW131668   2.251   7.509  10.196
76612SOL    HW231669   2.221   7.361  10.183
76613SOL     OW31670  12.975  10.211   9.784
76613SOL    HW131671  12.977  10.149   9.857
76613SOL    HW231672  12.990  10.297   9.825
76614SOL     OW31673   4.984   6.311   6.306
76614SOL    HW131674   4.925   6.245   6.270
76614SOL    HW231675   4.984   6.382   6.241
76615SOL     OW31676  13.722  11.615   2.463
76615SOL    HW131677  13.789  11.559   2.423
76615SOL    HW231678  13.763  11.701   2.467
76616SOL     OW31679  14.621  13.778   4.218
76616SOL    HW131680  14.713  13.805   4.206
76616SOL    HW231681  14.571  13.858   4.201
76617SOL     OW31682  10.793  13.055   7.696
76617SOL    HW131683  10.796  13.076   7.789
76617SOL    HW231684  10.764  13.137   7.655
76618SOL     OW31685  12.236   9.850   0.448
76618SOL    HW131686  12.302   9.783   0.467
76618SOL    HW231687  12.280   9.933   0.468
76619SOL     OW31688   1.195  14.269   8.295
76619SOL    HW131689   1.271  14.327   8.281
76619SOL    HW231690   1.144  14.312   8.363
76620SOL     OW31691   6.243   6.096  13.403
76620SOL    HW131692   6.154   6.086  13.436
76620SOL    HW231693   6.299   6.086  13.480
76621SOL     OW31694   9.611   3.315  12.318
76621SOL    HW131695   9.523   3.282  12.297
76621SOL    HW231696   9.610   3.406  12.287
76622SOL     OW31697  12.003  13.745  11.505
76622SOL    HW131698  11.998  13.807  11.432
76622SOL    HW231699  11.912  13.725  11.526
76623SOL     OW31700  11.141   0.304   4.347
76623SOL    HW131701  11.107   0.388   4.376
76623SOL    HW231702  11.065   0.245   4.350
76624SOL     OW31703  12.499   2.169   8.712
76624SOL    HW131704  12.523   2.144   8.801
76624SOL    HW231705  12.532   2.098   8.657
76625SOL     OW31706   8.017   6.201   7.341
76625SOL    HW131707   7.935   6.178   7.383
76625SOL    HW231708   8.081   6.138   7.374
76626SOL     OW31709  11.299   9.518  11.531
76626SOL    HW131710  11.369   9.527  11.596
76626SOL    HW231711  11.224   9.562  11.570
76627SOL     OW31712   2.883   1.528   6.466
76627SOL    HW131713   2.850   1.440   6.445
76627SOL    HW231714   2.822   1.587   6.422
76628SOL     OW31715   3.099  14.845   3.158
76628SOL    HW131716   3.176  14.787   3.158
76628SOL    HW231717   3.127   0.048   3.106
76629SOL     OW31718  14.790  13.937   5.686
76629SOL    HW131719  14.798  13.866   5.622
76629SOL    HW231720  14.735  14.003   5.642
76630SOL     OW31721   1.167   4.188  10.101
76630SOL    HW131722   1.142   4.280  10.102
76630SOL    HW231723   1.157   4.160  10.010
76631SOL     OW31724   6.385   2.316   8.961
76631SOL    HW131725   6.479   2.315   8.980
76631SOL    HW231726   6.376   2.261   8.883
76632SOL     OW31727   6.307  13.445  13.992
76632SOL    HW131728   6.342  13.511  14.052
76632SOL    HW231729   6.285  13.371  14.048
76633SOL     OW31730   8.833   4.592  11.688
76633SOL    HW131731   8.775   4.534  11.739
76633SOL    HW231732   8.900   4.619  11.750
76634SOL     OW31733   2.844   2.937  13.622
76634SOL    HW131734   2.770   2.991  13.594
76634SOL    HW231735   2.827   2.917  13.714
76635SOL     OW31736   2.305  11.250  14.628
76635SOL    HW131737   2.211  11.266  14.637
76635SOL    HW231738   2.344  11.296  14.702
76636SOL     OW31739   5.233  12.834   5.250
76636SOL    HW131740   5.266  12.780   5.178
76636SOL    HW231741   5.149  12.793   5.274
76637SOL     OW31742   4.894   0.059   0.329
76637SOL    HW131743   4.962   0.083   0.265
76637SOL    HW231744   4.816   0.106   0.299
76638SOL     OW31745   7.033  10.595  11.401
76638SOL    HW131746   7.014  10.534  11.473
76638SOL    HW231747   7.103  10.553  11.352
76639SOL     OW31748  10.217   7.569   1.426
76639SOL    HW131749  10.253   7.527   1.348
76639SOL    HW231750  10.184   7.654   1.396
76640SOL     OW31751   9.358   0.916  14.602
76640SOL    HW131752   9.335   0.836  14.554
76640SOL    HW231753   9.294   0.981  14.572
76641SOL     OW31754   7.155  13.105   0.193
76641SOL    HW131755   7.198  13.033   0.148
76641SOL    HW231756   7.117  13.158   0.123
76642SOL     OW31757  12.623  11.715   3.860
76642SOL    HW131758  12.672  11.786   3.818
76642SOL    HW231759  12.685  11.676   3.922
76643SOL     OW31760   8.062   9.279   9.036
76643SOL    HW131761   8.109   9.204   8.999
76643SOL    HW231762   7.977   9.279   8.993
76644SOL     OW31763  13.266  11.221   6.691
76644SOL    HW131764  13.303  11.301   6.730
76644SOL    HW231765  13.173  11.240   6.680
76645SOL     OW31766  11.272   3.590   2.566
76645SOL    HW131767  11.276   3.590   2.471
76645SOL    HW231768  11.182   3.612   2.587
76646SOL     OW31769   7.070   4.380  10.760
76646SOL    HW131770   7.107   4.439  10.694
76646SOL    HW231771   7.064   4.434  10.840
76647SOL     OW31772  14.321   3.759  14.811
76647SOL    HW131773  14.253   3.822  14.787
76647SOL    HW231774  14.402   3.808  14.803
76648SOL     OW31775  14.208   8.327  10.757
76648SOL    HW131776  14.176   8.417  10.765
76648SOL    HW231777  14.287   8.333  10.703
76649SOL     OW31778   1.398   1.704  12.282
76649SOL    HW131779   1.416   1.738  12.194
76649SOL    HW231780   1.462   1.634  12.293
76650SOL     OW31781   3.026   6.161  12.304
76650SOL    HW131782   3.000   6.250  12.278
76650SOL    HW231783   3.081   6.131  12.232
76651SOL     OW31784  10.601   7.703   0.241
76651SOL    HW131785  10.646   7.658   0.313
76651SOL    HW231786  10.565   7.782   0.281
76652SOL     OW31787  10.326   7.346   6.923
76652SOL    HW131788  10.246   7.368   6.874
76652SOL    HW231789  10.336   7.252   6.911
76653SOL     OW31790   0.628   7.829  10.123
76653SOL    HW131791   0.718   7.808  10.146
76653SOL    HW231792   0.588   7.860  10.204
76654SOL     OW31793  13.376   9.326   5.405
76654SOL    HW131794  13.355   9.411   5.367
76654SOL    HW231795  13.388   9.268   5.330
76655SOL     OW31796  14.844   5.732  10.354
76655SOL    HW131797   0.048   5.678  10.372
76655SOL    HW231798  14.819   5.710  10.264
76656SOL     OW31799  14.554   4.866   2.911
76656SOL    HW131800  14.574   4.930   2.843
76656SOL    HW231801  14.623   4.877   2.976
76657SOL     OW31802   1.936   0.052  10.952
76657SOL    HW131803   1.999   0.006  11.006
76657SOL    HW231804   1.985   0.076  10.873
76658SOL     OW31805  12.992  13.864  12.967
76658SOL    HW131806  12.920  13.908  13.012
76658SOL    HW231807  13.044  13.824  13.036
76659SOL     OW31808   6.226   5.594  13.908
76659SOL    HW131809   6.172   5.668  13.936
76659SOL    HW231810   6.237   5.541  13.987
76660SOL     OW31811  10.490   6.876   5.021
76660SOL    HW131812  10.437   6.950   4.991
76660SOL    HW231813  10.457   6.856   5.108
76661SOL     OW31814   2.435  12.679   2.144
76661SOL    HW131815   2.488  12.645   2.072
76661SOL    HW231816   2.491  12.743   2.188
76662SOL     OW31817   5.013   1.659  13.132
76662SOL    HW131818   5.051   1.628  13.215
76662SOL    HW231819   5.080   1.718  13.097
76663SOL     OW31820   4.975   7.177  12.586
76663SOL    HW131821   5.035   7.125  12.640
76663SOL    HW231822   5.032   7.222  12.524
76664SOL     OW31823  11.904   8.166  12.458
76664SOL    HW131824  11.973   8.208  12.511
76664SOL    HW231825  11.900   8.077  12.492
76665SOL     OW31826  11.244  11.117   3.211
76665SOL    HW131827  11.270  11.119   3.119
76665SOL    HW231828  11.278  11.199   3.248
76666SOL     OW31829  13.478   3.155   1.237
76666SOL    HW131830  13.465   3.243   1.201
76666SOL    HW231831  13.542   3.114   1.178
76667SOL     OW31832   2.271  13.972   3.739
76667SOL    HW131833   2.345  14.015   3.696
76667SOL    HW231834   2.298  13.881   3.749
76668SOL     OW31835   2.715  13.877   6.612
76668SOL    HW131836   2.758  13.959   6.635
76668SOL    HW231837   2.622  13.901   6.600
76669SOL     OW31838   5.747   4.290   6.611
76669SOL    HW131839   5.779   4.314   6.524
76669SOL    HW231840   5.825   4.270   6.662
76670SOL     OW31841   5.536  14.520   2.597
76670SOL    HW131842   5.474  14.591   2.579
76670SOL    HW231843   5.622  14.558   2.583
76671SOL     OW31844  12.176  13.914   8.424
76671SOL    HW131845  12.238  13.875   8.363
76671SOL    HW231846  12.200  13.879   8.509
76672SOL     OW31847   2.560   5.418  13.971
76672SOL    HW131848   2.519   5.411  13.885
76672SOL    HW231849   2.638   5.363  13.965
76673SOL     OW31850   9.150   5.806   4.718
76673SOL    HW131851   9.068   5.796   4.670
76673SOL    HW231852   9.158   5.901   4.731
76674SOL     OW31853  10.692  10.124   8.209
76674SOL    HW131854  10.734  10.065   8.272
76674SOL    HW231855  10.667  10.200   8.262
76675SOL     OW31856   9.309   6.447  13.697
76675SOL    HW131857   9.377   6.460  13.763
76675SOL    HW231858   9.295   6.533  13.658
76676SOL     OW31859   2.184   7.645   6.273
76676SOL    HW131860   2.259   7.663   6.217
76676SOL    HW231861   2.155   7.557   6.248
76677SOL     OW31862   0.215   3.402   2.074
76677SOL    HW131863   0.264   3.386   1.994
76677SOL    HW231864   0.267   3.468   2.121
76678SOL     OW31865   9.589   9.794   4.899
76678SOL    HW131866   9.512   9.811   4.952
76678SOL    HW231867   9.574   9.843   4.818
76679SOL     OW31868   4.831  11.283   5.416
76679SOL    HW131869   4.775  11.234   5.476
76679SOL    HW231870   4.915  11.236   5.418
76680SOL     OW31871   1.963  12.596   8.023
76680SOL    HW131872   1.886  12.593   7.966
76680SOL    HW231873   2.034  12.559   7.970
76681SOL     OW31874   4.851  14.152  10.586
76681SOL    HW131875   4.896  14.120  10.508
76681SOL    HW231876   4.876  14.245  10.592
76682SOL     OW31877   2.663  14.677   6.457
76682SOL    HW131878   2.731  14.736   6.491
76682SOL    HW231879   2.659  14.605   6.520
76683SOL     OW31880  13.027   7.412   1.328
76683SOL    HW131881  13.011   7.331   1.279
76683SOL    HW231882  12.949   7.465   1.312
76684SOL     OW31883   8.548   7.197   7.609
76684SOL    HW131884   8.458   7.214   7.582
76684SOL    HW231885   8.540   7.138   7.684
76685SOL     OW31886  13.542   4.463  14.493
76685SOL    HW131887  13.583   4.549  14.502
76685SOL    HW231888  13.582   4.425  14.415
76686SOL     OW31889   9.969   1.841  12.566
76686SOL    HW131890  10.026   1.764  12.556
76686SOL    HW231891   9.984   1.892  12.486
76687SOL     OW31892   1.679   2.618   1.702
76687SOL    HW131893   1.592   2.602   1.739
76687SOL    HW231894   1.731   2.542   1.728
76688SOL     OW31895   7.713   1.533   9.977
76688SOL    HW131896   7.794   1.526   9.927
76688SOL    HW231897   7.673   1.447   9.970
76689SOL     OW31898   0.655   3.692  12.887
76689SOL    HW131899   0.708   3.756  12.934
76689SOL    HW231900   0.719   3.633  12.847
76690SOL     OW31901   3.692   4.676  12.954
76690SOL    HW131902   3.655   4.693  12.868
76690SOL    HW231903   3.656   4.592  12.981
76691SOL     OW31904  12.460   4.399   5.065
76691SOL    HW131905  12.550   4.372   5.083
76691SOL    HW231906  12.410   4.368   5.140
76692SOL     OW31907  14.673   6.594  10.707
76692SOL    HW131908  14.689   6.515  10.656
76692SOL    HW231909  14.615   6.647  10.652
76693SOL     OW31910  14.599  12.108   8.972
76693SOL    HW131911  14.529  12.052   8.940
76693SOL    HW231912  14.679  12.055   8.959
76694SOL     OW31913   5.110   0.252   9.246
76694SOL    HW131914   5.040   0.187   9.240
76694SOL    HW231915   5.190   0.199   9.254
76695SOL     OW31916   8.552  11.379  13.710
76695SOL    HW131917   8.485  11.426  13.760
76695SOL    HW231918   8.574  11.304  13.765
76696SOL     OW31919  13.814   2.871   8.236
76696SOL    HW131920  13.757   2.946   8.255
76696SOL    HW231921  13.772   2.826   8.163
76697SOL     OW31922   0.046   4.225   6.896
76697SOL    HW131923   0.009   4.225   6.984
76697SOL    HW231924  14.853   4.180   6.843
76698SOL     OW31925  10.787  11.483   8.618
76698SOL    HW131926  10.879  11.510   8.611
76698SOL    HW231927  10.789  11.408   8.677
76699SOL     OW31928   9.757  13.396  14.180
76699SOL    HW131929   9.755  13.348  14.097
76699SOL    HW231930   9.674  13.443  14.182
76700SOL     OW31931   9.231  11.832   4.970
76700SOL    HW131932   9.247  11.893   4.898
76700SOL    HW231933   9.201  11.751   4.927
76701SOL     OW31934   7.716   2.562   2.599
76701SOL    HW131935   7.782   2.511   2.646
76701SOL    HW231936   7.661   2.496   2.557
76702SOL     OW31937   3.055  10.993   4.287
76702SOL    HW131938   3.128  11.052   4.307
76702SOL    HW231939   3.022  11.022   4.203
76703SOL     OW31940  12.453  14.708   8.097
76703SOL    HW131941  12.423  14.714   8.006
76703SOL    HW231942  12.496  14.792   8.114
76704SOL     OW31943   6.316   5.667   1.613
76704SOL    HW131944   6.360   5.751   1.596
76704SOL    HW231945   6.388   5.606   1.630
76705SOL     OW31946   4.177  10.196   5.195
76705SOL    HW131947   4.142  10.250   5.125
76705SOL    HW231948   4.272  10.210   5.190
76706SOL     OW31949  11.712   0.047   6.354
76706SOL    HW131950  11.662   0.029   6.434
76706SOL    HW231951  11.658   0.109   6.306
76707SOL     OW31952   9.761   4.414  12.215
76707SOL    HW131953   9.781   4.333  12.261
76707SOL    HW231954   9.846   4.456  12.201
76708SOL     OW31955   0.338   8.363   7.297
76708SOL    HW131956   0.430   8.388   7.283
76708SOL    HW231957   0.333   8.343   7.391
76709SOL     OW31958  12.237   9.209  13.139
76709SOL    HW131959  12.320   9.240  13.103
76709SOL    HW231960  12.173   9.230  13.071
76710SOL     OW31961  14.822   7.200   0.886
76710SOL    HW131962  14.815   7.225   0.794
76710SOL    HW231963  14.846   7.280   0.932
76711SOL     OW31964   3.768   5.617  11.278
76711SOL    HW131965   3.781   5.701  11.233
76711SOL    HW231966   3.751   5.554  11.207
76712SOL     OW31967  13.367   2.834   5.181
76712SOL    HW131968  13.276   2.818   5.205
76712SOL    HW231969  13.413   2.842   5.264
76713SOL     OW31970  12.131   1.062   0.434
76713SOL    HW131971  12.120   1.152   0.465
76713SOL    HW231972  12.057   1.047   0.376
76714SOL     OW31973   0.914   3.178   1.177
76714SOL    HW131974   0.964   3.125   1.239
76714SOL    HW231975   0.946   3.267   1.191
76715SOL     OW31976   7.223   4.993   2.418
76715SOL    HW131977   7.201   5.027   2.331
76715SOL    HW231978   7.145   5.012   2.471
76716SOL     OW31979   5.527   9.949  13.051
76716SOL    HW131980   5.465   9.876  13.060
76716SOL    HW231981   5.526   9.969  12.957
76717SOL     OW31982  12.280   9.521   6.606
76717SOL    HW131983  12.244   9.450   6.553
76717SOL    HW231984  12.354   9.481   6.652
76718SOL     OW31985  14.397  10.207   2.867
76718SOL    HW131986  14.467  10.247   2.814
76718SOL    HW231987  14.316  10.244   2.831
76719SOL     OW31988   8.974  11.046   3.434
76719SOL    HW131989   8.880  11.030   3.431
76719SOL    HW231990   9.014  10.960   3.422
76720SOL     OW31991   4.666  10.222  12.201
76720SOL    HW131992   4.612  10.164  12.254
76720SOL    HW231993   4.700  10.166  12.131
76721SOL     OW31994   0.268   9.749  14.060
76721SOL    HW131995   0.246   9.822  14.118
76721SOL    HW231996   0.252   9.671  14.113
76722SOL     OW31997   0.575   4.682   2.155
76722SOL    HW131998   0.647   4.665   2.093
76722SOL    HW231999   0.613   4.661   2.241
76723SOL     OW32000  11.901   5.136   1.875
76723SOL    HW132001  11.959   5.093   1.812
76723SOL    HW232002  11.887   5.223   1.839
76724SOL     OW32003  10.442  14.557   4.128
76724SOL    HW132004  10.481  14.610   4.059
76724SOL    HW232005  10.420  14.474   4.085
76725SOL     OW32006   8.518   1.694   0.976
76725SOL    HW132007   8.497   1.664   0.887
76725SOL    HW232008   8.452   1.761   0.995
76726SOL     OW32009   0.176   7.571   8.521
76726SOL    HW132010   0.123   7.630   8.468
76726SOL    HW232011   0.251   7.549   8.466
76727SOL     OW32012   5.668   1.900   5.493
76727SOL    HW132013   5.725   1.850   5.552
76727SOL    HW232014   5.582   1.897   5.534
76728SOL     OW32015  14.245   9.251  13.346
76728SOL    HW132016  14.162   9.222  13.383
76728SOL    HW232017  14.276   9.176  13.295
76729SOL     OW32018   1.297  11.555   8.136
76729SOL    HW132019   1.362  11.605   8.087
76729SOL    HW232020   1.218  11.559   8.082
76730SOL     OW32021   6.559   6.628   0.637
76730SOL    HW132022   6.634   6.609   0.694
76730SOL    HW232023   6.599   6.650   0.553
76731SOL     OW32024  13.375  14.773  12.093
76731SOL    HW132025  13.441  14.774  12.162
76731SOL    HW232026  13.292  14.785  12.140
76732SOL     OW32027   5.912   9.666   2.660
76732SOL    HW132028   5.864   9.719   2.724
76732SOL    HW232029   5.973   9.726   2.619
76733SOL     OW32030   2.067  13.351   4.822
76733SOL    HW132031   2.018  13.389   4.895
76733SOL    HW232032   2.130  13.419   4.799
76734SOL     OW32033   2.895  14.027   1.448
76734SOL    HW132034   2.864  14.114   1.424
76734SOL    HW232035   2.826  13.967   1.418
76735SOL     OW32036  11.370   0.402   5.083
76735SOL    HW132037  11.357   0.330   5.146
76735SOL    HW232038  11.434   0.459   5.125
76736SOL     OW32039   7.446  13.013   9.848
76736SOL    HW132040   7.360  12.972   9.860
76736SOL    HW232041   7.508  12.943   9.869
76737SOL     OW32042   7.353   9.703   7.069
76737SOL    HW132043   7.446   9.709   7.047
76737SOL    HW232044   7.345   9.623   7.120
76738SOL     OW32045   6.430  13.409  12.297
76738SOL    HW132046   6.486  13.482  12.323
76738SOL    HW232047   6.402  13.370  12.380
76739SOL     OW32048  13.596   6.777   0.501
76739SOL    HW132049  13.570   6.730   0.581
76739SOL    HW232050  13.532   6.847   0.492
76740SOL     OW32051   6.761  13.837  11.947
76740SOL    HW132052   6.836  13.788  11.913
76740SOL    HW232053   6.791  13.870  12.032
76741SOL     OW32054  10.855   5.252   5.265
76741SOL    HW132055  10.839   5.164   5.300
76741SOL    HW232056  10.818   5.311   5.331
76742SOL     OW32057   2.291  12.010   8.557
76742SOL    HW132058   2.225  12.078   8.569
76742SOL    HW232059   2.255  11.954   8.488
76743SOL     OW32060   9.824   5.788   0.223
76743SOL    HW132061   9.751   5.757   0.170
76743SOL    HW232062   9.892   5.812   0.160
76744SOL     OW32063   8.569   6.110  11.058
76744SOL    HW132064   8.503   6.065  11.110
76744SOL    HW232065   8.613   6.041  11.009
76745SOL     OW32066   5.991   4.498   3.752
76745SOL    HW132067   5.978   4.589   3.726
76745SOL    HW232068   6.049   4.461   3.684
76746SOL     OW32069   7.342   6.766   0.283
76746SOL    HW132070   7.386   6.812   0.211
76746SOL    HW232071   7.391   6.792   0.361
76747SOL     OW32072   1.485  10.237   8.946
76747SOL    HW132073   1.553  10.304   8.950
76747SOL    HW232074   1.404  10.286   8.932
76748SOL     OW32075  13.341  14.788   9.345
76748SOL    HW132076  13.408  14.722   9.362
76748SOL    HW232077  13.384  14.850   9.286
76749SOL     OW32078   8.824   2.762   8.267
76749SOL    HW132079   8.741   2.718   8.282
76749SOL    HW232080   8.890   2.698   8.293
76750SOL     OW32081   0.125  14.717   4.165
76750SOL    HW132082   0.143  14.809   4.185
76750SOL    HW232083   0.140  14.671   4.247
76751SOL     OW32084  12.743   7.130  12.565
76751SOL    HW132085  12.800   7.089  12.630
76751SOL    HW232086  12.788   7.117  12.482
76752SOL     OW32087  10.312   2.596  12.330
76752SOL    HW132088  10.315   2.581  12.425
76752SOL    HW232089  10.333   2.511  12.292
76753SOL     OW32090   3.205   5.555   6.622
76753SOL    HW132091   3.256   5.474   6.617
76753SOL    HW232092   3.135   5.535   6.684
76754SOL     OW32093  13.579   9.225   0.076
76754SOL    HW132094  13.620   9.247   0.159
76754SOL    HW232095  13.592   9.131   0.066
76755SOL     OW32096   8.393  11.433   0.804
76755SOL    HW132097   8.486  11.456   0.792
76755SOL    HW232098   8.391  11.338   0.796
76756SOL     OW32099   1.960  13.795  13.465
76756SOL    HW132100   1.921  13.763  13.546
76756SOL    HW232101   1.890  13.844  13.422
76757SOL     OW32102  10.164   4.273  12.075
76757SOL    HW132103  10.256   4.287  12.052
76757SOL    HW232104  10.119   4.269  11.991
76758SOL     OW32105   7.417  10.661  10.646
76758SOL    HW132106   7.434  10.580  10.599
76758SOL    HW232107   7.335  10.694  10.609
76759SOL     OW32108   7.261   1.577   7.531
76759SOL    HW132109   7.228   1.488   7.546
76759SOL    HW232110   7.270   1.583   7.436
76760SOL     OW32111   3.349   6.584   0.669
76760SOL    HW132112   3.314   6.673   0.671
76760SOL    HW232113   3.378   6.572   0.578
76761SOL     OW32114   3.164  11.409   8.948
76761SOL    HW132115   3.221  11.482   8.926
76761SOL    HW232116   3.154  11.413   9.043
76762SOL     OW32117   0.140   4.018   9.413
76762SOL    HW132118   0.159   4.112   9.407
76762SOL    HW232119   0.212   3.976   9.366
76763SOL     OW32120   0.063   3.637   6.790
76763SOL    HW132121   0.042   3.659   6.699
76763SOL    HW232122  14.852   3.649   6.836
76764SOL     OW32123   1.384  12.314  11.436
76764SOL    HW132124   1.473  12.350  11.429
76764SOL    HW232125   1.397  12.219  11.436
76765SOL     OW32126  12.170  13.100  12.732
76765SOL    HW132127  12.217  13.110  12.814
76765SOL    HW232128  12.127  13.014  12.739
76766SOL     OW32129  14.316   1.984   8.932
76766SOL    HW132130  14.408   1.986   8.906
76766SOL    HW232131  14.269   2.019   8.856
76767SOL     OW32132   9.982   5.489   8.063
76767SOL    HW132133   9.919   5.546   8.018
76767SOL    HW232134   9.948   5.481   8.152
76768SOL     OW32135   1.923  12.367   9.033
76768SOL    HW132136   1.894  12.444   8.983
76768SOL    HW232137   2.018  12.367   9.025
76769SOL     OW32138   0.168   0.288   8.281
76769SOL    HW132139   0.189   0.347   8.354
76769SOL    HW232140   0.207   0.204   8.306
76770SOL     OW32141  14.247   4.199  12.055
76770SOL    HW132142  14.257   4.266  12.123
76770SOL    HW232143  14.337   4.174  12.032
76771SOL     OW32144   1.167  14.640   2.199
76771SOL    HW132145   1.146  14.681   2.282
76771SOL    HW232146   1.262  14.627   2.202
76772SOL     OW32147   7.538   4.184   6.757
76772SOL    HW132148   7.520   4.095   6.788
76772SOL    HW232149   7.634   4.190   6.758
76773SOL     OW32150   7.897   6.747   9.943
76773SOL    HW132151   7.866   6.801   9.871
76773SOL    HW232152   7.980   6.710   9.911
76774SOL     OW32153   8.313   5.908   7.840
76774SOL    HW132154   8.287   5.981   7.784
76774SOL    HW232155   8.406   5.895   7.823
76775SOL     OW32156  14.644  11.061   3.417
76775SOL    HW132157  14.729  11.092   3.448
76775SOL    HW232158  14.614  11.001   3.486
76776SOL     OW32159   4.367   8.268   7.465
76776SOL    HW132160   4.279   8.229   7.466
76776SOL    HW232161   4.355   8.353   7.506
76777SOL     OW32162  14.771   9.153   0.760
76777SOL    HW132163  14.750   9.235   0.805
76777SOL    HW232164  14.690   9.102   0.762
76778SOL     OW32165   8.228  10.799   7.734
76778SOL    HW132166   8.194  10.814   7.822
76778SOL    HW232167   8.309  10.751   7.748
76779SOL     OW32168   3.627   5.218  13.257
76779SOL    HW132169   3.696   5.164  13.219
76779SOL    HW232170   3.589   5.163  13.325
76780SOL     OW32171   1.993   7.088  13.147
76780SOL    HW132172   2.064   7.129  13.099
76780SOL    HW232173   2.027   7.002  13.172
76781SOL     OW32174  13.368  13.076  11.040
76781SOL    HW132175  13.384  13.165  11.011
76781SOL    HW232176  13.275  13.061  11.023
76782SOL     OW32177  11.910   8.670   2.812
76782SOL    HW132178  11.837   8.612   2.789
76782SOL    HW232179  11.879   8.757   2.786
76783SOL     OW32180  13.121   5.698   3.634
76783SOL    HW132181  13.071   5.656   3.564
76783SOL    HW232182  13.199   5.643   3.644
76784SOL     OW32183   0.085   0.148  14.159
76784SOL    HW132184   0.126   0.064  14.142
76784SOL    HW232185   0.146   0.213  14.124
76785SOL     OW32186   7.446   4.172   3.936
76785SOL    HW132187   7.431   4.181   3.842
76785SOL    HW232188   7.375   4.221   3.977
76786SOL     OW32189   5.986   9.618  11.007
76786SOL    HW132190   5.900   9.641  10.971
76786SOL    HW232191   5.974   9.530  11.043
76787SOL     OW32192   7.809   1.408   3.253
76787SOL    HW132193   7.806   1.349   3.177
76787SOL    HW232194   7.902   1.417   3.272
76788SOL     OW32195   9.012   5.127   8.366
76788SOL    HW132196   9.028   5.210   8.412
76788SOL    HW232197   9.045   5.060   8.426
76789SOL     OW32198  12.661   0.227  11.116
76789SOL    HW132199  12.577   0.272  11.126
76789SOL    HW232200  12.709   0.248  11.196
76790SOL     OW32201   0.003   5.890   0.440
76790SOL    HW132202  14.787   5.922   0.455
76790SOL    HW232203   0.052   5.913   0.519
76791SOL     OW32204  12.060   4.839   6.682
76791SOL    HW132205  11.985   4.785   6.658
76791SOL    HW232206  12.119   4.779   6.728
76792SOL     OW32207  12.035  14.472  14.584
76792SOL    HW132208  12.103  14.477  14.517
76792SOL    HW232209  11.959  14.436  14.538
76793SOL     OW32210  12.150   1.586  13.611
76793SOL    HW132211  12.070   1.597  13.559
76793SOL    HW232212  12.129   1.624  13.696
76794SOL     OW32213   3.876   6.245   3.218
76794SOL    HW132214   3.862   6.247   3.313
76794SOL    HW232215   3.838   6.328   3.187
76795SOL     OW32216  10.725   7.073   7.718
76795SOL    HW132217  10.709   6.986   7.679
76795SOL    HW232218  10.719   7.133   7.644
76796SOL     OW32219   7.014  10.974  14.474
76796SOL    HW132220   7.024  11.069  14.473
76796SOL    HW232221   6.926  10.959  14.510
76797SOL     OW32222  10.999   1.681   5.105
76797SOL    HW132223  10.907   1.676   5.132
76797SOL    HW232224  11.018   1.774   5.103
76798SOL     OW32225  13.418  10.212  11.508
76798SOL    HW132226  13.507  10.221  11.474
76798SOL    HW232227  13.426  10.231  11.601
76799SOL     OW32228  10.404   1.462   5.011
76799SOL    HW132229  10.435   1.375   5.033
76799SOL    HW232230  10.313   1.463   5.042
76800SOL     OW32231  11.649  12.104  12.634
76800SOL    HW132232  11.595  12.037  12.676
76800SOL    HW232233  11.707  12.055  12.575
76801SOL     OW32234  11.014   3.477  10.152
76801SOL    HW132235  11.005   3.385  10.128
76801SOL    HW232236  11.106   3.487  10.177
76802SOL     OW32237   9.699  13.138   4.402
76802SOL    HW132238   9.648  13.067   4.440
76802SOL    HW232239   9.719  13.196   4.476
76803SOL     OW32240   0.973  11.328   2.800
76803SOL    HW132241   1.007  11.282   2.876
76803SOL    HW232242   0.944  11.413   2.833
76804SOL     OW32243  10.753  13.775   2.303
76804SOL    HW132244  10.707  13.723   2.368
76804SOL    HW232245  10.685  13.803   2.242
76805SOL     OW32246  14.777  10.569  10.317
76805SOL    HW132247  14.706  10.547  10.257
76805SOL    HW232248  14.804  10.658  10.290
76806SOL     OW32249  11.538   4.662   3.622
76806SOL    HW132250  11.450   4.623   3.621
76806SOL    HW232251  11.523   4.755   3.604
76807SOL     OW32252   1.006  14.149  12.413
76807SOL    HW132253   1.024  14.065  12.456
76807SOL    HW232254   0.914  14.166  12.431
76808SOL     OW32255   6.703   1.535   2.137
76808SOL    HW132256   6.791   1.571   2.151
76808SOL    HW232257   6.669   1.584   2.063
76809SOL     OW32258  10.751  10.733  14.225
76809SOL    HW132259  10.754  10.642  14.254
76809SOL    HW232260  10.703  10.778  14.295
76810SOL     OW32261   0.431   4.269   8.488
76810SOL    HW132262   0.365   4.285   8.555
76810SOL    HW232263   0.385   4.216   8.422
76811SOL     OW32264   9.700  10.649  14.780
76811SOL    HW132265   9.783  10.677  14.820
76811SOL    HW232266   9.633  10.698  14.828
76812SOL     OW32267  12.019   8.041  14.145
76812SOL    HW132268  12.098   8.050  14.200
76812SOL    HW232269  11.971   7.968  14.185
76813SOL     OW32270   3.362  13.643   0.979
76813SOL    HW132271   3.363  13.645   1.075
76813SOL    HW232272   3.281  13.596   0.957
76814SOL     OW32273  12.069   8.126  13.467
76814SOL    HW132274  12.042   8.213  13.439
76814SOL    HW232275  12.109   8.087  13.389
76815SOL     OW32276   3.959   0.337   7.593
76815SOL    HW132277   4.020   0.400   7.631
76815SOL    HW232278   3.900   0.389   7.540
76816SOL     OW32279   8.012   2.399  10.759
76816SOL    HW132280   8.068   2.415  10.682
76816SOL    HW232281   7.954   2.328  10.731
76817SOL     OW32282  14.685  14.725   6.501
76817SOL    HW132283  14.690  14.797   6.564
76817SOL    HW232284  14.684  14.769   6.416
76818SOL     OW32285   9.400   0.838  14.285
76818SOL    HW132286   9.353   0.779  14.345
76818SOL    HW232287   9.385   0.801  14.198
76819SOL     OW32288   3.642  13.125  10.832
76819SOL    HW132289   3.547  13.119  10.837
76819SOL    HW232290   3.666  13.074  10.755
76820SOL     OW32291  14.657   1.525  11.935
76820SOL    HW132292  14.698   1.532  12.021
76820SOL    HW232293  14.577   1.577  11.942
76821SOL     OW32294   2.735  12.525   6.628
76821SOL    HW132295   2.825  12.521   6.659
76821SOL    HW232296   2.743  12.533   6.533
76822SOL     OW32297   0.217  11.275   6.530
76822SOL    HW132298   0.174  11.210   6.586
76822SOL    HW232299   0.152  11.299   6.465
76823SOL     OW32300  12.191   1.150   1.143
76823SOL    HW132301  12.253   1.078   1.131
76823SOL    HW232302  12.217   1.215   1.078
76824SOL     OW32303  12.765  14.168   5.429
76824SOL    HW132304  12.845  14.205   5.468
76824SOL    HW232305  12.697  14.232   5.450
76825SOL     OW32306  12.977   6.285  14.695
76825SOL    HW132307  13.023   6.352  14.644
76825SOL    HW232308  13.046   6.227  14.725
76826SOL     OW32309  13.873   1.361   8.368
76826SOL    HW132310  13.780   1.372   8.348
76826SOL    HW232311  13.880   1.386   8.460
76827SOL     OW32312   6.996  12.872   3.389
76827SOL    HW132313   6.942  12.946   3.418
76827SOL    HW232314   6.991  12.810   3.462
76828SOL     OW32315  13.348   6.078   0.152
76828SOL    HW132316  13.284   6.033   0.207
76828SOL    HW232317  13.377   6.153   0.204
76829SOL     OW32318   6.304  11.313   7.059
76829SOL    HW132319   6.369  11.381   7.043
76829SOL    HW232320   6.273  11.287   6.972
76830SOL     OW32321   6.841   0.581   4.926
76830SOL    HW132322   6.765   0.563   4.980
76830SOL    HW232323   6.875   0.495   4.902
76831SOL     OW32324   4.770   9.381   6.502
76831SOL    HW132325   4.822   9.306   6.530
76831SOL    HW232326   4.821   9.457   6.527
76832SOL     OW32327   0.269   0.796   9.849
76832SOL    HW132328   0.229   0.825   9.767
76832SOL    HW232329   0.203   0.812   9.916
76833SOL     OW32330  12.584  10.131  14.871
76833SOL    HW132331  12.614  10.213   0.036
76833SOL    HW232332  12.660  10.073   0.003
76834SOL     OW32333   0.188  14.224   7.343
76834SOL    HW132334   0.241  14.167   7.399
76834SOL    HW232335   0.135  14.276   7.403
76835SOL     OW32336   3.065   2.103   6.115
76835SOL    HW132337   2.973   2.090   6.091
76835SOL    HW232338   3.064   2.185   6.166
76836SOL     OW32339   4.398  11.833  13.404
76836SOL    HW132340   4.443  11.917  13.410
76836SOL    HW232341   4.460  11.770  13.440
76837SOL     OW32342   8.046   3.478  11.632
76837SOL    HW132343   8.031   3.488  11.538
76837SOL    HW232344   8.075   3.387  11.643
76838SOL     OW32345  12.888  10.228   1.171
76838SOL    HW132346  12.885  10.221   1.076
76838SOL    HW232347  12.810  10.278   1.194
76839SOL     OW32348   3.451   3.068  14.776
76839SOL    HW132349   3.456   2.986  14.825
76839SOL    HW232350   3.431   3.134  14.842
76840SOL     OW32351   1.636   0.347   8.824
76840SOL    HW132352   1.612   0.290   8.897
76840SOL    HW232353   1.641   0.434   8.864
76841SOL     OW32354   8.402   7.037   6.761
76841SOL    HW132355   8.390   7.124   6.801
76841SOL    HW232356   8.471   7.051   6.696
76842SOL     OW32357  14.217   0.900   6.508
76842SOL    HW132358  14.231   0.952   6.588
76842SOL    HW232359  14.161   0.955   6.453
76843SOL     OW32360   7.754   5.804   9.369
76843SOL    HW132361   7.781   5.713   9.356
76843SOL    HW232362   7.789   5.828   9.455
76844SOL     OW32363   0.615  10.011   7.785
76844SOL    HW132364   0.595   9.945   7.718
76844SOL    HW232365   0.531  10.028   7.828
76845SOL     OW32366   8.061   5.306   3.743
76845SOL    HW132367   8.157   5.305   3.743
76845SOL    HW232368   8.039   5.396   3.719
76846SOL     OW32369  11.606  11.517  13.924
76846SOL    HW132370  11.686  11.570  13.929
76846SOL    HW232371  11.636  11.427  13.940
76847SOL     OW32372   2.809   7.879   0.322
76847SOL    HW132373   2.749   7.941   0.364
76847SOL    HW232374   2.785   7.881   0.230
76848SOL     OW32375   0.427   5.408  10.931
76848SOL    HW132376   0.375   5.466  10.988
76848SOL    HW232377   0.381   5.410  10.847
76849SOL     OW32378   9.432   0.034   0.936
76849SOL    HW132379   9.438  14.833   0.997
76849SOL    HW232380   9.338   0.043   0.919
76850SOL     OW32381  14.522   4.140   5.549
76850SOL    HW132382  14.587   4.140   5.619
76850SOL    HW232383  14.501   4.232   5.535
76851SOL     OW32384   9.350   4.445  13.702
76851SOL    HW132385   9.418   4.406  13.756
76851SOL    HW232386   9.390   4.524  13.666
76852SOL     OW32387   8.489  13.736  11.402
76852SOL    HW132388   8.569  13.787  11.416
76852SOL    HW232389   8.418  13.795  11.425
76853SOL     OW32390  11.607  12.864   1.915
76853SOL    HW132391  11.697  12.855   1.947
76853SOL    HW232392  11.598  12.957   1.895
76854SOL     OW32393   6.902   1.636  12.707
76854SOL    HW132394   6.861   1.704  12.653
76854SOL    HW232395   6.962   1.591  12.647
76855SOL     OW32396   8.899  13.457  11.033
76855SOL    HW132397   8.820  13.497  11.067
76855SOL    HW232398   8.906  13.489  10.944
76856SOL     OW32399   9.490  11.466   4.708
76856SOL    HW132400   9.586  11.467   4.705
76856SOL    HW232401   9.465  11.557   4.694
76857SOL     OW32402   1.647  11.070   3.780
76857SOL    HW132403   1.597  11.061   3.699
76857SOL    HW232404   1.615  11.000   3.837
76858SOL     OW32405   1.040   1.289   5.050
76858SOL    HW132406   1.034   1.381   5.078
76858SOL    HW232407   1.075   1.244   5.126
76859SOL     OW32408   9.651   0.121  11.232
76859SOL    HW132409   9.648   0.028  11.255
76859SOL    HW232410   9.733   0.152  11.270
76860SOL     OW32411   0.452  10.591   4.597
76860SOL    HW132412   0.363  10.588   4.562
76860SOL    HW232413   0.446  10.651   4.672
76861SOL     OW32414   2.920  10.178   3.887
76861SOL    HW132415   2.903  10.155   3.978
76861SOL    HW232416   2.858  10.125   3.837
76862SOL     OW32417  12.225   8.042  13.272
76862SOL    HW132418  12.203   8.070  13.183
76862SOL    HW232419  12.310   7.999  13.263
76863SOL     OW32420  12.954  11.828  10.855
76863SOL    HW132421  12.914  11.788  10.778
76863SOL    HW232422  12.887  11.889  10.888
76864SOL     OW32423  14.340   8.443   9.773
76864SOL    HW132424  14.420   8.486   9.745
76864SOL    HW232425  14.283   8.445   9.697
76865SOL     OW32426   0.560  13.937  10.013
76865SOL    HW132427   0.633  13.917  10.072
76865SOL    HW232428   0.513  13.854  10.005
76866SOL     OW32429   3.256   5.092  14.290
76866SOL    HW132430   3.273   5.182  14.318
76866SOL    HW232431   3.320   5.075  14.221
76867SOL     OW32432  12.877   5.012   3.537
76867SOL    HW132433  12.833   5.070   3.599
76867SOL    HW232434  12.856   5.050   3.451
76868SOL     OW32435   4.391   5.263   7.221
76868SOL    HW132436   4.317   5.323   7.204
76868SOL    HW232437   4.441   5.263   7.140
76869SOL     OW32438  11.154   3.882   4.864
76869SOL    HW132439  11.092   3.919   4.927
76869SOL    HW232440  11.238   3.883   4.910
76870SOL     OW32441   0.165   7.824   9.525
76870SOL    HW132442   0.249   7.822   9.478
76870SOL    HW232443   0.171   7.901   9.581
76871SOL     OW32444   5.069   3.916   9.169
76871SOL    HW132445   5.110   3.837   9.136
76871SOL    HW232446   5.066   3.975   9.094
76872SOL     OW32447  11.213   9.035   9.327
76872SOL    HW132448  11.290   9.076   9.288
76872SOL    HW232449  11.149   9.106   9.334
76873SOL     OW32450   3.730  12.308   1.886
76873SOL    HW132451   3.718  12.397   1.853
76873SOL    HW232452   3.695  12.312   1.975
76874SOL     OW32453   1.715  12.801   4.525
76874SOL    HW132454   1.656  12.815   4.451
76874SOL    HW232455   1.725  12.706   4.530
76875SOL     OW32456   3.470   0.417   8.207
76875SOL    HW132457   3.396   0.358   8.189
76875SOL    HW232458   3.472   0.424   8.302
76876SOL     OW32459   5.414   2.702   2.533
76876SOL    HW132460   5.430   2.721   2.440
76876SOL    HW232461   5.404   2.607   2.537
76877SOL     OW32462   4.434   9.590  12.685
76877SOL    HW132463   4.507   9.531  12.706
76877SOL    HW232464   4.456   9.625  12.599
76878SOL     OW32465   7.796   4.123   6.711
76878SOL    HW132466   7.867   4.125   6.647
76878SOL    HW232467   7.836   4.084   6.789
76879SOL     OW32468   5.567  11.623   4.860
76879SOL    HW132469   5.489  11.609   4.913
76879SOL    HW232470   5.561  11.558   4.791
76880SOL     OW32471   7.090   3.680  10.421
76880SOL    HW132472   7.052   3.594  10.438
76880SOL    HW232473   7.014   3.738  10.413
76881SOL     OW32474   0.821   9.323  10.605
76881SOL    HW132475   0.854   9.287  10.523
76881SOL    HW232476   0.894   9.375  10.640
76882SOL     OW32477   6.455   8.290  13.955
76882SOL    HW132478   6.520   8.315  14.021
76882SOL    HW232479   6.461   8.359  13.888
76883SOL     OW32480   4.494  14.872   8.378
76883SOL    HW132481   4.460   0.047   8.302
76883SOL    HW232482   4.581  14.842   8.351
76884SOL     OW32483   4.571   3.487   7.397
76884SOL    HW132484   4.541   3.397   7.383
76884SOL    HW232485   4.642   3.499   7.335
76885SOL     OW32486  11.247   9.067   8.652
76885SOL    HW132487  11.313   9.135   8.667
76885SOL    HW232488  11.167   9.116   8.635
76886SOL     OW32489   7.743   2.164  11.530
76886SOL    HW132490   7.734   2.178  11.624
76886SOL    HW232491   7.828   2.120  11.520
76887SOL     OW32492   2.993   6.531   0.759
76887SOL    HW132493   2.957   6.502   0.676
76887SOL    HW232494   3.057   6.598   0.736
76888SOL     OW32495  13.317  13.520   0.868
76888SOL    HW132496  13.265  13.440   0.875
76888SOL    HW232497  13.260  13.583   0.824
76889SOL     OW32498   2.962   0.655  14.693
76889SOL    HW132499   3.050   0.644  14.729
76889SOL    HW232500   2.911   0.694  14.764
76890SOL     OW32501  10.315   0.844   9.055
76890SOL    HW132502  10.297   0.776   9.119
76890SOL    HW232503  10.288   0.925   9.098
76891SOL     OW32504   7.572  10.802  13.805
76891SOL    HW132505   7.522  10.864  13.859
76891SOL    HW232506   7.518  10.790  13.727
76892SOL     OW32507  13.695  10.594   0.727
76892SOL    HW132508  13.634  10.641   0.670
76892SOL    HW232509  13.734  10.527   0.671
76893SOL     OW32510   2.412  11.840   3.673
76893SOL    HW132511   2.460  11.759   3.691
76893SOL    HW232512   2.462  11.883   3.605
76894SOL     OW32513  14.178   6.637  13.916
76894SOL    HW132514  14.115   6.669  13.851
76894SOL    HW232515  14.124   6.608  13.990
76895SOL     OW32516   6.261  11.641   7.051
76895SOL    HW132517   6.284  11.638   6.958
76895SOL    HW232518   6.179  11.593   7.057
76896SOL     OW32519   1.003   4.055   3.836
76896SOL    HW132520   1.084   4.094   3.803
76896SOL    HW232521   1.030   4.002   3.911
76897SOL     OW32522   9.829   8.557   0.319
76897SOL    HW132523   9.900   8.499   0.291
76897SOL    HW232524   9.754   8.531   0.266
76898SOL     OW32525  14.009  13.828  10.842
76898SOL    HW132526  13.937  13.875  10.800
76898SOL    HW232527  13.980  13.816  10.932
76899SOL     OW32528   3.179   4.004   4.744
76899SOL    HW132529   3.115   4.041   4.683
76899SOL    HW232530   3.170   3.910   4.734
76900SOL     OW32531   4.647   4.683   1.583
76900SOL    HW132532   4.663   4.597   1.544
76900SOL    HW232533   4.631   4.740   1.508
76901SOL     OW32534   3.341   7.157   7.564
76901SOL    HW132535   3.307   7.096   7.630
76901SOL    HW232536   3.433   7.132   7.555
76902SOL     OW32537  12.467  12.173  10.315
76902SOL    HW132538  12.463  12.134  10.402
76902SOL    HW232539  12.501  12.261  10.328
76903SOL     OW32540  13.082   3.189   3.060
76903SOL    HW132541  12.999   3.143   3.066
76903SOL    HW232542  13.101   3.194   2.967
76904SOL     OW32543  11.732  11.530   3.308
76904SOL    HW132544  11.768  11.615   3.283
76904SOL    HW232545  11.695  11.545   3.395
76905SOL     OW32546   8.462  13.040   8.461
76905SOL    HW132547   8.392  12.999   8.411
76905SOL    HW232548   8.449  13.008   8.550
76906SOL     OW32549  10.697  13.116  13.872
76906SOL    HW132550  10.789  13.117  13.898
76906SOL    HW232551  10.688  13.036  13.819
76907SOL     OW32552   2.069  10.993   7.482
76907SOL    HW132553   2.054  10.978   7.575
76907SOL    HW232554   2.118  10.916   7.453
76908SOL     OW32555   9.142   8.102   1.057
76908SOL    HW132556   9.120   8.192   1.084
76908SOL    HW232557   9.141   8.052   1.138
76909SOL     OW32558   6.853   7.276  13.465
76909SOL    HW132559   6.856   7.368  13.438
76909SOL    HW232560   6.761   7.251  13.457
76910SOL     OW32561  12.946  13.622   2.645
76910SOL    HW132562  12.945  13.529   2.624
76910SOL    HW232563  12.858  13.640   2.678
76911SOL     OW32564  12.850   0.003   9.546
76911SOL    HW132565  12.819  14.825   9.621
76911SOL    HW232566  12.942  14.850   9.537
76912SOL     OW32567   4.790  11.002  14.127
76912SOL    HW132568   4.852  11.072  14.149
76912SOL    HW232569   4.759  10.970  14.212
76913SOL     OW32570  14.466   2.051  10.627
76913SOL    HW132571  14.381   2.008  10.625
76913SOL    HW232572  14.518   2.006  10.561
76914SOL     OW32573   8.049   5.080   3.189
76914SOL    HW132574   8.144   5.082   3.184
76914SOL    HW232575   8.021   5.163   3.149
76915SOL     OW32576   3.362  14.440   1.065
76915SOL    HW132577   3.452  14.456   1.036
76915SOL    HW232578   3.315  14.520   1.041
76916SOL     OW32579   5.320  13.306   0.300
76916SOL    HW132580   5.328  13.370   0.370
76916SOL    HW232581   5.305  13.223   0.345
76917SOL     OW32582  11.276   8.113   2.505
76917SOL    HW132583  11.335   8.084   2.436
76917SOL    HW232584  11.193   8.070   2.486
76918SOL     OW32585   3.938   0.406  14.243
76918SOL    HW132586   3.916   0.481  14.187
76918SOL    HW232587   3.857   0.386  14.289
76919SOL     OW32588  14.790  12.793   8.871
76919SOL    HW132589  14.866  12.806   8.813
76919SOL    HW232590  14.770  12.700   8.863
76920SOL     OW32591  14.870   7.452   2.837
76920SOL    HW132592   0.065   7.386   2.823
76920SOL    HW232593   0.022   7.494   2.920
76921SOL     OW32594   5.321   4.139   7.837
76921SOL    HW132595   5.280   4.196   7.772
76921SOL    HW232596   5.398   4.187   7.867
76922SOL     OW32597   1.798   3.576  11.384
76922SOL    HW132598   1.767   3.517  11.315
76922SOL    HW232599   1.854   3.521  11.439
76923SOL     OW32600   8.264  10.987  10.648
76923SOL    HW132601   8.231  11.023  10.566
76923SOL    HW232602   8.341  11.040  10.670
76924SOL     OW32603   1.709  10.207   6.858
76924SOL    HW132604   1.757  10.176   6.936
76924SOL    HW232605   1.684  10.297   6.879
76925SOL     OW32606  10.494  13.888   2.213
76925SOL    HW132607  10.497  13.917   2.122
76925SOL    HW232608  10.422  13.824   2.215
76926SOL     OW32609   9.895  14.119  11.627
76926SOL    HW132610   9.857  14.036  11.598
76926SOL    HW232611   9.962  14.140  11.562
76927SOL     OW32612   4.544   6.331   5.408
76927SOL    HW132613   4.639   6.340   5.408
76927SOL    HW232614   4.529   6.240   5.382
76928SOL     OW32615   3.792   5.370  11.432
76928SOL    HW132616   3.813   5.433  11.364
76928SOL    HW232617   3.746   5.421  11.499
76929SOL     OW32618   3.571   1.552  11.261
76929SOL    HW132619   3.513   1.582  11.331
76929SOL    HW232620   3.545   1.461  11.247
76930SOL     OW32621   3.401  14.589  14.486
76930SOL    HW132622   3.458  14.512  14.484
76930SOL    HW232623   3.353  14.585  14.403
76931SOL     OW32624  12.440  12.755  10.305
76931SOL    HW132625  12.354  12.725  10.275
76931SOL    HW232626  12.457  12.835  10.256
76932SOL     OW32627   8.378   6.508   0.763
76932SOL    HW132628   8.465   6.543   0.780
76932SOL    HW232629   8.343   6.488   0.850
76933SOL     OW32630   2.467   7.389   5.782
76933SOL    HW132631   2.394   7.343   5.824
76933SOL    HW232632   2.425   7.459   5.732
76934SOL     OW32633   6.698  12.375   5.731
76934SOL    HW132634   6.716  12.330   5.649
76934SOL    HW232635   6.785  12.395   5.767
76935SOL     OW32636   3.216   7.887   5.989
76935SOL    HW132637   3.272   7.964   5.992
76935SOL    HW232638   3.130   7.921   5.962
76936SOL     OW32639   8.676   8.884   8.733
76936SOL    HW132640   8.651   8.834   8.656
76936SOL    HW232641   8.743   8.831   8.775
76937SOL     OW32642   2.118   6.718  12.576
76937SOL    HW132643   2.170   6.638  12.567
76937SOL    HW232644   2.062   6.701  12.652
76938SOL     OW32645  12.278   9.475   5.498
76938SOL    HW132646  12.336   9.424   5.556
76938SOL    HW232647  12.317   9.562   5.496
76939SOL     OW32648   5.780   6.901   4.681
76939SOL    HW132649   5.868   6.872   4.656
76939SOL    HW232650   5.762   6.975   4.623
76940SOL     OW32651  14.641   3.632   9.597
76940SOL    HW132652  14.718   3.690   9.602
76940SOL    HW232653  14.571   3.682   9.638
76941SOL     OW32654   4.326  13.539   4.334
76941SOL    HW132655   4.284  13.614   4.377
76941SOL    HW232656   4.280  13.530   4.251
76942SOL     OW32657  12.326   4.004  10.085
76942SOL    HW132658  12.296   4.085  10.044
76942SOL    HW232659  12.256   3.981  10.145
76943SOL     OW32660  11.050   1.638  11.551
76943SOL    HW132661  11.017   1.578  11.618
76943SOL    HW232662  11.130   1.674  11.589
76944SOL     OW32663   6.461  11.834   9.924
76944SOL    HW132664   6.537  11.861   9.874
76944SOL    HW232665   6.405  11.789   9.861
76945SOL     OW32666   9.832  13.564   0.741
76945SOL    HW132667   9.808  13.490   0.797
76945SOL    HW232668   9.912  13.534   0.697
76946SOL     OW32669   1.320   3.939   9.732
76946SOL    HW132670   1.317   3.972   9.821
76946SOL    HW232671   1.298   4.014   9.677
76947SOL     OW32672   3.722  12.969  11.940
76947SOL    HW132673   3.714  12.875  11.928
76947SOL    HW232674   3.815  12.988  11.924
76948SOL     OW32675   4.069   1.571   9.839
76948SOL    HW132676   4.073   1.667   9.838
76948SOL    HW232677   4.046   1.547   9.750
76949SOL     OW32678   3.378   5.502   2.811
76949SOL    HW132679   3.414   5.432   2.757
76949SOL    HW232680   3.311   5.543   2.755
76950SOL     OW32681   5.844   7.876   0.926
76950SOL    HW132682   5.907   7.907   0.861
76950SOL    HW232683   5.780   7.826   0.876
76951SOL     OW32684   9.254  13.006  12.021
76951SOL    HW132685   9.191  12.991  11.950
76951SOL    HW232686   9.328  13.050  11.978
76952SOL     OW32687   6.996  13.327   3.734
76952SOL    HW132688   6.973  13.242   3.695
76952SOL    HW232689   7.087  13.317   3.760
76953SOL     OW32690  12.561  12.035   9.837
76953SOL    HW132691  12.585  12.123   9.866
76953SOL    HW232692  12.466  12.036   9.833
76954SOL     OW32693  10.193   6.718   1.262
76954SOL    HW132694  10.210   6.676   1.346
76954SOL    HW232695  10.098   6.711   1.250
76955SOL     OW32696   3.747   2.559   0.352
76955SOL    HW132697   3.704   2.524   0.431
76955SOL    HW232698   3.755   2.484   0.294
76956SOL     OW32699  13.030  10.378   6.926
76956SOL    HW132700  13.088  10.440   6.882
76956SOL    HW232701  12.993  10.428   6.999
76957SOL     OW32702   8.134  10.818  13.774
76957SOL    HW132703   8.227  10.796  13.772
76957SOL    HW232704   8.093  10.746  13.821
76958SOL     OW32705   0.368   2.925   2.660
76958SOL    HW132706   0.413   2.968   2.733
76958SOL    HW232707   0.355   2.835   2.690
76959SOL     OW32708   3.595  13.794   0.437
76959SOL    HW132709   3.690  13.794   0.445
76959SOL    HW232710   3.565  13.862   0.498
76960SOL     OW32711   3.899  14.534   9.024
76960SOL    HW132712   3.874  14.532   9.116
76960SOL    HW232713   3.932  14.446   9.006
76961SOL     OW32714   9.868   2.039  10.960
76961SOL    HW132715   9.855   1.982  10.884
76961SOL    HW232716   9.905   2.119  10.923
76962SOL     OW32717  13.625  11.405   1.052
76962SOL    HW132718  13.573  11.364   0.983
76962SOL    HW232719  13.716  11.382   1.030
76963SOL     OW32720   8.956  10.314   3.945
76963SOL    HW132721   8.932  10.364   3.868
76963SOL    HW232722   9.042  10.277   3.924
76964SOL     OW32723   3.599  10.898   0.172
76964SOL    HW132724   3.588  10.993   0.180
76964SOL    HW232725   3.629  10.870   0.259
76965SOL     OW32726   7.710   4.951   6.548
76965SOL    HW132727   7.704   4.866   6.592
76965SOL    HW232728   7.622   4.988   6.554
76966SOL     OW32729   3.537  13.986  13.179
76966SOL    HW132730   3.557  13.928  13.105
76966SOL    HW232731   3.443  13.975  13.193
76967SOL     OW32732   7.940  10.189  10.647
76967SOL    HW132733   7.872  10.221  10.706
76967SOL    HW232734   7.928  10.240  10.567
76968SOL     OW32735   5.782  10.292   1.732
76968SOL    HW132736   5.788  10.227   1.803
76968SOL    HW232737   5.704  10.268   1.683
76969SOL     OW32738   5.532   8.132  14.248
76969SOL    HW132739   5.536   8.224  14.273
76969SOL    HW232740   5.439   8.116  14.228
76970SOL     OW32741  11.332   7.349  12.398
76970SOL    HW132742  11.291   7.269  12.365
76970SOL    HW232743  11.390   7.319  12.468
76971SOL     OW32744   8.544  12.722   7.566
76971SOL    HW132745   8.491  12.799   7.546
76971SOL    HW232746   8.491  12.648   7.537
76972SOL     OW32747   3.594   0.190  11.803
76972SOL    HW132748   3.651   0.152  11.736
76972SOL    HW232749   3.600   0.129  11.876
76973SOL     OW32750  13.992   1.143  11.611
76973SOL    HW132751  14.033   1.068  11.569
76973SOL    HW232752  14.038   1.152  11.695
76974SOL     OW32753  14.262  11.928   7.930
76974SOL    HW132754  14.343  11.974   7.910
76974SOL    HW232755  14.285  11.867   8.000
76975SOL     OW32756  10.702   8.344   0.139
76975SOL    HW132757  10.707   8.249   0.141
76975SOL    HW232758  10.702   8.370   0.231
76976SOL     OW32759   7.206  11.431   6.105
76976SOL    HW132760   7.122  11.473   6.091
76976SOL    HW232761   7.269  11.486   6.059
76977SOL     OW32762   3.959  14.624   2.582
76977SOL    HW132763   3.904  14.693   2.619
76977SOL    HW232764   3.932  14.618   2.491
76978SOL     OW32765   9.662   5.789  14.194
76978SOL    HW132766   9.594   5.751  14.139
76978SOL    HW232767   9.744   5.759  14.154
76979SOL     OW32768  12.408   3.121   0.943
76979SOL    HW132769  12.363   3.066   1.008
76979SOL    HW232770  12.391   3.078   0.859
76980SOL     OW32771   1.601   6.159   1.126
76980SOL    HW132772   1.544   6.154   1.049
76980SOL    HW232773   1.547   6.198   1.194
76981SOL     OW32774   0.071   0.845  10.032
76981SOL    HW132775   0.087   0.938  10.049
76981SOL    HW232776  14.848   0.838  10.023
76982SOL     OW32777   0.637   0.205   6.503
76982SOL    HW132778   0.639   0.232   6.595
76982SOL    HW232779   0.698   0.264   6.459
76983SOL     OW32780   9.178   8.580  11.463
76983SOL    HW132781   9.114   8.515  11.493
76983SOL    HW232782   9.250   8.574  11.525
76984SOL     OW32783  13.447  13.993  11.960
76984SOL    HW132784  13.428  14.083  11.933
76984SOL    HW232785  13.526  13.970  11.912
76985SOL     OW32786  11.809   8.675   0.074
76985SOL    HW132787  11.797   8.749   0.015
76985SOL    HW232788  11.903   8.657   0.070
76986SOL     OW32789   3.313   4.336   6.456
76986SOL    HW132790   3.402   4.306   6.474
76986SOL    HW232791   3.262   4.255   6.449
76987SOL     OW32792  13.943  14.033   0.647
76987SOL    HW132793  13.919  14.126   0.642
76987SOL    HW232794  13.873  13.988   0.600
76988SOL     OW32795   7.512   3.670   6.010
76988SOL    HW132796   7.434   3.631   5.971
76988SOL    HW232797   7.582   3.606   5.993
76989SOL     OW32798   3.826   1.784  14.712
76989SOL    HW132799   3.827   1.788  14.617
76989SOL    HW232800   3.803   1.873  14.739
76990SOL     OW32801   3.236   1.273   5.164
76990SOL    HW132802   3.200   1.338   5.224
76990SOL    HW232803   3.246   1.319   5.081
76991SOL     OW32804   9.528   6.558  13.829
76991SOL    HW132805   9.610   6.567  13.877
76991SOL    HW232806   9.497   6.648  13.818
76992SOL     OW32807   5.623  12.545   3.380
76992SOL    HW132808   5.691  12.487   3.347
76992SOL    HW232809   5.664  12.632   3.382
76993SOL     OW32810   7.665  10.639  11.571
76993SOL    HW132811   7.673  10.730  11.543
76993SOL    HW232812   7.742  10.596  11.535
76994SOL     OW32813   6.535  14.018   3.793
76994SOL    HW132814   6.503  13.943   3.844
76994SOL    HW232815   6.630  14.009   3.794
76995SOL     OW32816  13.499   5.464   2.453
76995SOL    HW132817  13.572   5.499   2.505
76995SOL    HW232818  13.447   5.414   2.516
76996SOL     OW32819   1.463  10.717   4.716
76996SOL    HW132820   1.407  10.645   4.745
76996SOL    HW232821   1.414  10.796   4.737
76997SOL     OW32822   3.661  14.078   6.162
76997SOL    HW132823   3.628  14.144   6.100
76997SOL    HW232824   3.721  14.025   6.110
76998SOL     OW32825   1.719  14.758  10.840
76998SOL    HW132826   1.694  14.695  10.908
76998SOL    HW232827   1.747  14.836  10.889
76999SOL     OW32828  13.326   7.982  13.962
76999SOL    HW132829  13.267   8.014  14.030
76999SOL    HW232830  13.316   8.044  13.890
77000SOL     OW32831   4.604   8.413  12.575
77000SOL    HW132832   4.651   8.332  12.559
77000SOL    HW232833   4.514   8.387  12.593
77001SOL     OW32834  14.203  11.960  14.056
77001SOL    HW132835  14.122  11.912  14.036
77001SOL    HW232836  14.219  11.942  14.148
77002SOL     OW32837   5.985   1.624  10.317
77002SOL    HW132838   6.011   1.575  10.395
77002SOL    HW232839   5.968   1.557  10.251
77003SOL     OW32840   0.164  12.040  14.501
77003SOL    HW132841   0.222  11.975  14.461
77003SOL    HW232842   0.148  12.007  14.589
77004SOL     OW32843   4.842   9.425   7.484
77004SOL    HW132844   4.804   9.410   7.570
77004SOL    HW232845   4.788   9.373   7.425
77005SOL     OW32846   2.884   5.516   5.060
77005SOL    HW132847   2.953   5.453   5.042
77005SOL    HW232848   2.929   5.600   5.072
77006SOL     OW32849   7.375   5.778   5.011
77006SOL    HW132850   7.313   5.821   4.952
77006SOL    HW232851   7.321   5.718   5.063
77007SOL     OW32852   2.857   7.060  10.491
77007SOL    HW132853   2.851   7.139  10.437
77007SOL    HW232854   2.921   7.083  10.559
77008SOL     OW32855   5.920   6.971   8.061
77008SOL    HW132856   5.953   7.046   8.111
77008SOL    HW232857   5.975   6.967   7.983
77009SOL     OW32858   2.488   5.543   2.124
77009SOL    HW132859   2.392   5.536   2.121
77009SOL    HW232860   2.505   5.611   2.189
77010SOL     OW32861  13.434  10.218   8.928
77010SOL    HW132862  13.440  10.194   9.021
77010SOL    HW232863  13.346  10.254   8.919
77011SOL     OW32864  14.372   5.971   3.399
77011SOL    HW132865  14.325   6.036   3.452
77011SOL    HW232866  14.461   5.973   3.432
77012SOL     OW32867   9.912   8.910   5.420
77012SOL    HW132868   9.893   8.999   5.449
77012SOL    HW232869   9.952   8.868   5.496
77013SOL     OW32870  14.473   4.141  13.007
77013SOL    HW132871  14.425   4.059  12.998
77013SOL    HW232872  14.559   4.115  13.039
77014SOL     OW32873  11.336   4.896   6.960
77014SOL    HW132874  11.381   4.956   7.020
77014SOL    HW232875  11.393   4.891   6.883
77015SOL     OW32876   6.699   1.487   1.140
77015SOL    HW132877   6.730   1.419   1.081
77015SOL    HW232878   6.771   1.549   1.146
77016SOL     OW32879   7.444   4.157   4.397
77016SOL    HW132880   7.367   4.146   4.342
77016SOL    HW232881   7.497   4.079   4.381
77017SOL     OW32882   3.900   3.482  12.859
77017SOL    HW132883   3.882   3.391  12.838
77017SOL    HW232884   3.861   3.531  12.786
77018SOL     OW32885   0.280   7.740   7.004
77018SOL    HW132886   0.335   7.807   6.963
77018SOL    HW232887   0.309   7.739   7.096
77019SOL     OW32888   6.917   3.664   3.562
77019SOL    HW132889   6.868   3.694   3.486
77019SOL    HW232890   7.009   3.673   3.536
77020SOL     OW32891   8.873  13.490   9.737
77020SOL    HW132892   8.797  13.548   9.749
77020SOL    HW232893   8.839  13.415   9.689
77021SOL     OW32894   8.004   9.472   6.470
77021SOL    HW132895   8.083   9.474   6.523
77021SOL    HW232896   8.035   9.459   6.381
77022SOL     OW32897  11.635  12.540   2.468
77022SOL    HW132898  11.679  12.623   2.482
77022SOL    HW232899  11.547  12.563   2.439
77023SOL     OW32900   4.044  14.579   5.957
77023SOL    HW132901   3.968  14.522   5.968
77023SOL    HW232902   4.012  14.667   5.978
77024SOL     OW32903   2.498   9.882   3.763
77024SOL    HW132904   2.494   9.787   3.752
77024SOL    HW232905   2.419   9.904   3.811
77025SOL     OW32906   4.979   8.223  10.779
77025SOL    HW132907   5.072   8.201  10.779
77025SOL    HW232908   4.939   8.157  10.722
77026SOL     OW32909   7.708   8.806   1.775
77026SOL    HW132910   7.765   8.820   1.851
77026SOL    HW232911   7.655   8.730   1.797
77027SOL     OW32912   1.636  13.991   5.771
77027SOL    HW132913   1.688  14.070   5.787
77027SOL    HW232914   1.549  14.023   5.750
77028SOL     OW32915  12.584  11.628  10.050
77028SOL    HW132916  12.496  11.665  10.054
77028SOL    HW232917  12.592  11.595   9.961
77029SOL     OW32918   0.975   6.406   8.032
77029SOL    HW132919   0.885   6.375   8.037
77029SOL    HW232920   1.028   6.333   8.063
77030SOL     OW32921   3.987   6.274  13.948
77030SOL    HW132922   3.937   6.198  13.978
77030SOL    HW232923   3.921   6.342  13.933
77031SOL     OW32924  13.986   7.032  14.226
77031SOL    HW132925  14.004   7.003  14.136
77031SOL    HW232926  14.006   7.125  14.225
77032SOL     OW32927   8.523  14.426   6.398
77032SOL    HW132928   8.560  14.499   6.349
77032SOL    HW232929   8.492  14.365   6.330
77033SOL     OW32930   8.304   6.294   3.355
77033SOL    HW132931   8.269   6.375   3.391
77033SOL    HW232932   8.228   6.249   3.318
77034SOL     OW32933   5.072   7.639   0.374
77034SOL    HW132934   5.136   7.689   0.426
77034SOL    HW232935   4.987   7.661   0.413
77035SOL     OW32936  13.822  14.838   4.281
77035SOL    HW132937  13.806  14.793   4.365
77035SOL    HW232938  13.749  14.812   4.226
77036SOL     OW32939   5.460   0.266   3.765
77036SOL    HW132940   5.442   0.295   3.676
77036SOL    HW232941   5.374   0.263   3.807
77037SOL     OW32942   9.159  13.470   0.930
77037SOL    HW132943   9.165  13.445   0.837
77037SOL    HW232944   9.199  13.557   0.934
77038SOL     OW32945   1.320   2.485   2.024
77038SOL    HW132946   1.247   2.446   2.072
77038SOL    HW232947   1.334   2.570   2.065
77039SOL     OW32948   5.108   0.245   2.627
77039SOL    HW132949   5.165   0.197   2.687
77039SOL    HW232950   5.168   0.302   2.579
77040SOL     OW32951   2.173   0.281  12.744
77040SOL    HW132952   2.263   0.304  12.768
77040SOL    HW232953   2.140   0.233  12.821
77041SOL     OW32954   7.373  12.317   5.697
77041SOL    HW132955   7.288  12.322   5.654
77041SOL    HW232956   7.369  12.383   5.766
77042SOL     OW32957   8.508   4.390   7.535
77042SOL    HW132958   8.584   4.395   7.478
77042SOL    HW232959   8.506   4.474   7.581
77043SOL     OW32960   4.314  10.594  12.153
77043SOL    HW132961   4.260  10.526  12.192
77043SOL    HW232962   4.262  10.674  12.162
77044SOL     OW32963   5.343  11.936   3.989
77044SOL    HW132964   5.294  12.000   4.042
77044SOL    HW232965   5.343  11.856   4.042
77045SOL     OW32966   8.112   4.993  13.060
77045SOL    HW132967   8.020   4.969  13.074
77045SOL    HW232968   8.162   4.920  13.096
77046SOL     OW32969  12.091   4.456  11.657
77046SOL    HW132970  12.160   4.436  11.594
77046SOL    HW232971  12.039   4.525  11.615
77047SOL     OW32972   9.308   9.776  13.905
77047SOL    HW132973   9.378   9.764  13.968
77047SOL    HW232974   9.263   9.691  13.902
77048SOL     OW32975   1.137   5.106   8.846
77048SOL    HW132976   1.103   5.138   8.930
77048SOL    HW232977   1.227   5.080   8.865
77049SOL     OW32978   5.394   2.171  14.623
77049SOL    HW132979   5.381   2.256  14.580
77049SOL    HW232980   5.318   2.162  14.680
77050SOL     OW32981  14.276   4.209   4.031
77050SOL    HW132982  14.295   4.127   4.075
77050SOL    HW232983  14.189   4.198   3.993
77051SOL     OW32984   3.699  12.627   0.012
77051SOL    HW132985   3.657  12.621   0.098
77051SOL    HW232986   3.739  12.714   0.011
77052SOL     OW32987   9.952   1.336   1.643
77052SOL    HW132988  10.013   1.382   1.586
77052SOL    HW232989   9.900   1.405   1.684
77053SOL     OW32990  12.382   6.553   9.770
77053SOL    HW132991  12.388   6.644   9.740
77053SOL    HW232992  12.330   6.509   9.702
77054SOL     OW32993   8.503   6.254  10.479
77054SOL    HW132994   8.477   6.196  10.551
77054SOL    HW232995   8.468   6.340  10.504
77055SOL     OW32996  12.379   2.883   5.059
77055SOL    HW132997  12.457   2.847   5.101
77055SOL    HW232998  12.313   2.887   5.128
77056SOL     OW32999  13.082   2.531   6.606
77056SOL    HW133000  13.033   2.563   6.531
77056SOL    HW233001  13.133   2.606   6.636
77057SOL     OW33002   4.139  12.527  10.904
77057SOL    HW133003   4.142  12.527  10.999
77057SOL    HW233004   4.046  12.536  10.882
77058SOL     OW33005   6.660  10.456   4.824
77058SOL    HW133006   6.669  10.551   4.829
77058SOL    HW233007   6.699  10.424   4.905
77059SOL     OW33008   1.988  12.148  12.537
77059SOL    HW133009   2.034  12.087  12.595
77059SOL    HW233010   1.915  12.182  12.590
77060SOL     OW33011   3.242  12.491   9.854
77060SOL    HW133012   3.296  12.415   9.877
77060SOL    HW233013   3.281  12.525   9.773
77061SOL     OW33014   7.185   8.775   7.461
77061SOL    HW133015   7.171   8.785   7.556
77061SOL    HW233016   7.153   8.857   7.424
77062SOL     OW33017   6.553   6.304   9.488
77062SOL    HW133018   6.468   6.281   9.527
77062SOL    HW233019   6.545   6.279   9.396
77063SOL     OW33020   6.650   3.724   0.896
77063SOL    HW133021   6.656   3.819   0.911
77063SOL    HW233022   6.600   3.716   0.815
77064SOL     OW33023  10.829   1.640  13.724
77064SOL    HW133024  10.829   1.567  13.662
77064SOL    HW233025  10.737   1.659  13.740
77065SOL     OW33026   0.372  13.946   3.972
77065SOL    HW133027   0.436  13.930   3.903
77065SOL    HW233028   0.416  13.921   4.053
77066SOL     OW33029   2.998   2.357   8.219
77066SOL    HW133030   2.982   2.287   8.281
77066SOL    HW233031   3.080   2.334   8.177
77067SOL     OW33032   0.664   5.665   6.577
77067SOL    HW133033   0.666   5.644   6.670
77067SOL    HW233034   0.742   5.623   6.541
77068SOL     OW33035  11.074   6.084   1.245
77068SOL    HW133036  11.116   6.163   1.280
77068SOL    HW233037  11.088   6.017   1.311
77069SOL     OW33038  13.923   5.641   0.801
77069SOL    HW133039  13.910   5.735   0.789
77069SOL    HW233040  13.840   5.602   0.772
77070SOL     OW33041   5.383   9.241   1.416
77070SOL    HW133042   5.444   9.214   1.349
77070SOL    HW233043   5.399   9.335   1.427
77071SOL     OW33044   9.467   4.132   2.032
77071SOL    HW133045   9.519   4.212   2.033
77071SOL    HW233046   9.516   4.070   2.086
77072SOL     OW33047   3.429   8.724  13.810
77072SOL    HW133048   3.422   8.765  13.896
77072SOL    HW233049   3.492   8.653  13.822
77073SOL     OW33050  14.452  10.136   5.359
77073SOL    HW133051  14.522  10.135   5.294
77073SOL    HW233052  14.398  10.059   5.337
77074SOL     OW33053   8.621   5.958  13.584
77074SOL    HW133054   8.546   5.931  13.531
77074SOL    HW233055   8.645   6.044  13.549
77075SOL     OW33056   7.961   2.996  12.440
77075SOL    HW133057   8.011   2.919  12.412
77075SOL    HW233058   8.021   3.069  12.426
77076SOL     OW33059  10.267  14.054   4.804
77076SOL    HW133060  10.357  14.025   4.819
77076SOL    HW233061  10.276  14.137   4.757
77077SOL     OW33062  14.252   9.796   5.718
77077SOL    HW133063  14.281   9.831   5.633
77077SOL    HW233064  14.237   9.874   5.771
77078SOL     OW33065  10.536   5.513   6.343
77078SOL    HW133066  10.609   5.566   6.310
77078SOL    HW233067  10.570   5.470   6.421
77079SOL     OW33068   2.459  14.217   9.927
77079SOL    HW133069   2.528  14.151   9.917
77079SOL    HW233070   2.381  14.177   9.888
77080SOL     OW33071  14.524   1.414  10.544
77080SOL    HW133072  14.505   1.338  10.490
77080SOL    HW233073  14.609   1.395  10.584
77081SOL     OW33074   5.367   2.397   4.043
77081SOL    HW133075   5.458   2.415   4.067
77081SOL    HW233076   5.362   2.414   3.949
77082SOL     OW33077   5.147   6.510   9.380
77082SOL    HW133078   5.241   6.496   9.369
77082SOL    HW233079   5.107   6.441   9.326
77083SOL     OW33080   1.554  10.759   8.988
77083SOL    HW133081   1.540  10.665   8.992
77083SOL    HW233082   1.529  10.784   8.899
77084SOL     OW33083   6.959  14.750  14.646
77084SOL    HW133084   6.966  14.746  14.551
77084SOL    HW233085   6.953  14.658  14.674
77085SOL     OW33086   5.231   9.226   1.095
77085SOL    HW133087   5.298   9.161   1.075
77085SOL    HW233088   5.202   9.204   1.183
77086SOL     OW33089  14.037  10.725   8.349
77086SOL    HW133090  14.073  10.646   8.308
77086SOL    HW233091  13.950  10.733   8.310
77087SOL     OW33092   9.079   3.193  14.648
77087SOL    HW133093   9.014   3.196  14.718
77087SOL    HW233094   9.027   3.194  14.568
77088SOL     OW33095   8.758   5.370  10.990
77088SOL    HW133096   8.750   5.421  11.071
77088SOL    HW233097   8.830   5.309  11.007
77089SOL     OW33098  12.850   9.455   0.572
77089SOL    HW133099  12.888   9.373   0.605
77089SOL    HW233100  12.760   9.454   0.603
77090SOL     OW33101  12.590   5.231   7.527
77090SOL    HW133102  12.510   5.284   7.525
77090SOL    HW233103  12.614   5.227   7.619
77091SOL     OW33104   1.008   9.660   2.426
77091SOL    HW133105   1.084   9.658   2.368
77091SOL    HW233106   0.976   9.751   2.420
77092SOL     OW33107   7.319  14.694   5.135
77092SOL    HW133108   7.296  14.776   5.179
77092SOL    HW233109   7.321  14.629   5.204
77093SOL     OW33110   3.914  10.119  12.240
77093SOL    HW133111   3.970  10.047  12.211
77093SOL    HW233112   3.925  10.121  12.335
77094SOL     OW33113  13.537   6.459   3.326
77094SOL    HW133114  13.600   6.469   3.397
77094SOL    HW233115  13.455   6.434   3.369
77095SOL     OW33116  10.722   5.121  12.266
77095SOL    HW133117  10.737   5.058  12.336
77095SOL    HW233118  10.733   5.071  12.185
77096SOL     OW33119   4.041   7.556   5.327
77096SOL    HW133120   4.106   7.598   5.271
77096SOL    HW233121   3.957   7.586   5.293
77097SOL     OW33122  12.525   3.603   6.959
77097SOL    HW133123  12.520   3.597   6.864
77097SOL    HW233124  12.614   3.633   6.977
77098SOL     OW33125   8.534   2.994   4.069
77098SOL    HW133126   8.583   2.978   3.989
77098SOL    HW233127   8.457   3.043   4.040
77099SOL     OW33128   4.273  11.599  12.999
77099SOL    HW133129   4.213  11.653  13.050
77099SOL    HW233130   4.223  11.574  12.921
77100SOL     OW33131   8.364  12.632   2.826
77100SOL    HW133132   8.305  12.569   2.784
77100SOL    HW233133   8.363  12.708   2.767
77101SOL     OW33134   0.318  14.803   4.373
77101SOL    HW133135   0.264  14.787   4.451
77101SOL    HW233136   0.408  14.796   4.405
77102SOL     OW33137   5.828   8.546  11.244
77102SOL    HW133138   5.844   8.599  11.323
77102SOL    HW233139   5.753   8.587  11.202
77103SOL     OW33140  13.060  11.607   6.574
77103SOL    HW133141  13.078  11.647   6.659
77103SOL    HW233142  13.073  11.513   6.588
77104SOL     OW33143   4.093  14.535   1.218
77104SOL    HW133144   4.033  14.609   1.220
77104SOL    HW233145   4.054  14.474   1.155
77105SOL     OW33146   5.139   2.776   4.481
77105SOL    HW133147   5.110   2.743   4.567
77105SOL    HW233148   5.182   2.859   4.501
77106SOL     OW33149   7.314  14.183   3.659
77106SOL    HW133150   7.297  14.191   3.565
77106SOL    HW233151   7.408  14.165   3.665
77107SOL     OW33152   8.775   0.814  14.450
77107SOL    HW133153   8.779   0.741  14.512
77107SOL    HW233154   8.750   0.774  14.367
77108SOL     OW33155  11.484  14.310   2.529
77108SOL    HW133156  11.437  14.250   2.587
77108SOL    HW233157  11.433  14.390   2.532
77109SOL     OW33158   8.642   0.886   0.632
77109SOL    HW133159   8.574   0.835   0.676
77109SOL    HW233160   8.707   0.904   0.701
77110SOL     OW33161   4.540   6.433   9.086
77110SOL    HW133162   4.580   6.474   9.163
77110SOL    HW233163   4.478   6.370   9.122
77111SOL     OW33164   0.954   5.738   3.168
77111SOL    HW133165   0.948   5.753   3.262
77111SOL    HW233166   0.975   5.645   3.160
77112SOL     OW33167   6.973   9.681   4.217
77112SOL    HW133168   7.019   9.633   4.149
77112SOL    HW233169   7.041   9.734   4.259
77113SOL     OW33170   4.683   2.548   8.827
77113SOL    HW133171   4.714   2.600   8.901
77113SOL    HW233172   4.690   2.606   8.751
77114SOL     OW33173  14.824   2.132   8.615
77114SOL    HW133174  14.793   2.111   8.527
77114SOL    HW233175  14.780   2.215   8.637
77115SOL     OW33176   4.145   8.514   8.467
77115SOL    HW133177   4.179   8.592   8.510
77115SOL    HW233178   4.050   8.521   8.475
77116SOL     OW33179   7.017  14.411   9.169
77116SOL    HW133180   7.098  14.462   9.162
77116SOL    HW233181   6.983  14.407   9.080
77117SOL     OW33182   7.575  12.300   9.297
77117SOL    HW133183   7.656  12.350   9.311
77117SOL    HW233184   7.506  12.366   9.298
77118SOL     OW33185   0.998   3.299  13.965
77118SOL    HW133186   1.048   3.218  13.976
77118SOL    HW233187   0.983   3.306  13.871
77119SOL     OW33188   8.659  12.780  12.132
77119SOL    HW133189   8.683  12.732  12.211
77119SOL    HW233190   8.708  12.737  12.062
77120SOL     OW33191   5.124   3.893   3.087
77120SOL    HW133192   5.080   3.902   3.171
77120SOL    HW233193   5.086   3.962   3.032
77121SOL     OW33194   5.612  10.596   0.875
77121SOL    HW133195   5.677  10.623   0.811
77121SOL    HW233196   5.531  10.637   0.846
77122SOL     OW33197   8.647   1.026  11.282
77122SOL    HW133198   8.649   0.993  11.371
77122SOL    HW233199   8.564   1.075  11.276
77123SOL     OW33200  14.176   6.409   1.144
77123SOL    HW133201  14.237   6.349   1.186
77123SOL    HW233202  14.180   6.489   1.197
77124SOL     OW33203  13.655   2.508   2.979
77124SOL    HW133204  13.680   2.513   3.071
77124SOL    HW233205  13.699   2.583   2.938
77125SOL     OW33206  11.933  10.978   0.848
77125SOL    HW133207  12.010  10.925   0.828
77125SOL    HW233208  11.888  10.987   0.764
77126SOL     OW33209   1.272   7.062   4.765
77126SOL    HW133210   1.231   7.034   4.846
77126SOL    HW233211   1.363   7.081   4.789
77127SOL     OW33212   7.583   3.408   6.192
77127SOL    HW133213   7.600   3.492   6.233
77127SOL    HW233214   7.602   3.343   6.260
77128SOL     OW33215   7.401   5.407  12.357
77128SOL    HW133216   7.470   5.424  12.294
77128SOL    HW233217   7.430   5.330  12.405
77129SOL     OW33218  11.052   6.258  12.763
77129SOL    HW133219  11.007   6.274  12.846
77129SOL    HW233220  11.133   6.214  12.788
77130SOL     OW33221  13.647   7.161   6.799
77130SOL    HW133222  13.699   7.152   6.719
77130SOL    HW233223  13.571   7.106   6.784
77131SOL     OW33224   3.672   2.950   4.756
77131SOL    HW133225   3.618   2.873   4.771
77131SOL    HW233226   3.630   2.995   4.683
77132SOL     OW33227   7.237  11.522   4.997
77132SOL    HW133228   7.169  11.479   5.049
77132SOL    HW233229   7.268  11.593   5.052
77133SOL     OW33230   4.981   7.610   4.266
77133SOL    HW133231   4.911   7.555   4.302
77133SOL    HW233232   4.954   7.627   4.175
77134SOL     OW33233   4.211   4.078   6.947
77134SOL    HW133234   4.220   4.145   7.015
77134SOL    HW233235   4.117   4.065   6.938
77135SOL     OW33236   4.054  12.387   7.522
77135SOL    HW133237   4.102  12.363   7.601
77135SOL    HW233238   3.963  12.393   7.551
77136SOL     OW33239   1.249  14.866  14.420
77136SOL    HW133240   1.318   0.060  14.431
77136SOL    HW233241   1.209   0.014  14.335
77137SOL     OW33242  13.753   9.441   4.165
77137SOL    HW133243  13.768   9.510   4.230
77137SOL    HW233244  13.699   9.377   4.211
77138SOL     OW33245  14.329   6.777   5.249
77138SOL    HW133246  14.371   6.752   5.331
77138SOL    HW233247  14.256   6.716   5.240
77139SOL     OW33248  10.012   1.607  11.706
77139SOL    HW133249  10.021   1.591  11.612
77139SOL    HW233250   9.974   1.695  11.712
77140SOL     OW33251   3.746  14.839   0.535
77140SOL    HW133252   3.726  14.783   0.460
77140SOL    HW233253   3.681  14.814   0.601
77141SOL     OW33254   5.398   4.035   1.965
77141SOL    HW133255   5.340   4.084   1.907
77141SOL    HW233256   5.476   4.017   1.912
77142SOL     OW33257   8.026   1.634   8.869
77142SOL    HW133258   8.118   1.621   8.844
77142SOL    HW233259   8.008   1.563   8.931
77143SOL     OW33260  10.687   9.677   9.514
77143SOL    HW133261  10.732   9.694   9.597
77143SOL    HW233262  10.755   9.642   9.457
77144SOL     OW33263   5.365   7.864  11.548
77144SOL    HW133264   5.415   7.796  11.593
77144SOL    HW233265   5.396   7.946  11.585
77145SOL     OW33266   6.247   9.426   3.422
77145SOL    HW133267   6.217   9.515   3.402
77145SOL    HW233268   6.204   9.405   3.505
77146SOL     OW33269   1.352  13.706  12.396
77146SOL    HW133270   1.438  13.706  12.354
77146SOL    HW233271   1.318  13.794  12.381
77147SOL     OW33272   4.063   0.548  11.896
77147SOL    HW133273   4.083   0.631  11.854
77147SOL    HW233274   4.098   0.557  11.985
77148SOL     OW33275  12.017   3.492   5.535
77148SOL    HW133276  12.018   3.441   5.616
77148SOL    HW233277  11.926   3.484   5.503
77149SOL     OW33278  14.755  10.575   1.293
77149SOL    HW133279  14.718  10.493   1.326
77149SOL    HW233280  14.849  10.568   1.312
77150SOL     OW33281   8.576  14.612   6.714
77150SOL    HW133282   8.572  14.517   6.715
77150SOL    HW233283   8.662  14.633   6.749
77151SOL     OW33284   2.795   3.542   2.726
77151SOL    HW133285   2.792   3.570   2.635
77151SOL    HW233286   2.761   3.452   2.724
77152SOL     OW33287   8.331  10.595   8.591
77152SOL    HW133288   8.414  10.637   8.565
77152SOL    HW233289   8.355  10.503   8.606
77153SOL     OW33290   4.289  13.916  14.227
77153SOL    HW133291   4.329  13.858  14.293
77153SOL    HW233292   4.335  13.894  14.146
77154SOL     OW33293  14.285   0.935   0.741
77154SOL    HW133294  14.242   0.866   0.790
77154SOL    HW233295  14.250   1.016   0.778
77155SOL     OW33296   6.381  14.468  14.291
77155SOL    HW133297   6.368  14.560  14.315
77155SOL    HW233298   6.293  14.432  14.283
77156SOL     OW33299   4.707  10.390  10.298
77156SOL    HW133300   4.716  10.475  10.341
77156SOL    HW233301   4.791  10.346  10.314
77157SOL     OW33302   3.362   5.698   1.190
77157SOL    HW133303   3.441   5.748   1.211
77157SOL    HW233304   3.357   5.630   1.258
77158SOL     OW33305   4.866  14.388   0.462
77158SOL    HW133306   4.819  14.454   0.513
77158SOL    HW233307   4.832  14.398   0.373
77159SOL     OW33308   6.988   3.958  13.701
77159SOL    HW133309   6.899   3.924  13.706
77159SOL    HW233310   7.024   3.920  13.621
77160SOL     OW33311   9.247  14.351   5.181
77160SOL    HW133312   9.192  14.404   5.239
77160SOL    HW233313   9.316  14.410   5.152
77161SOL     OW33314   0.878   6.960  11.577
77161SOL    HW133315   0.824   6.897  11.529
77161SOL    HW233316   0.853   7.045  11.541
77162SOL     OW33317   1.310   1.094   7.663
77162SOL    HW133318   1.228   1.057   7.696
77162SOL    HW233319   1.288   1.128   7.576
77163SOL     OW33320   9.895  11.127   4.709
77163SOL    HW133321   9.866  11.207   4.665
77163SOL    HW233322   9.915  11.067   4.638
77164SOL     OW33323   3.697  11.238   0.963
77164SOL    HW133324   3.724  11.291   0.888
77164SOL    HW233325   3.602  11.243   0.963
77165SOL     OW33326  13.189  12.520   2.001
77165SOL    HW133327  13.188  12.582   2.073
77165SOL    HW233328  13.100  12.522   1.965
77166SOL     OW33329   0.231  13.359   9.108
77166SOL    HW133330   0.176  13.281   9.108
77166SOL    HW233331   0.302  13.339   9.169
77167SOL     OW33332   3.526   1.392   4.173
77167SOL    HW133333   3.546   1.433   4.088
77167SOL    HW233334   3.435   1.365   4.165
77168SOL     OW33335   3.303   2.791  12.628
77168SOL    HW133336   3.370   2.853  12.600
77168SOL    HW233337   3.241   2.844  12.678
77169SOL     OW33338  11.797   4.071   7.694
77169SOL    HW133339  11.871   4.082   7.754
77169SOL    HW233340  11.767   4.160   7.676
77170SOL     OW33341   1.521   6.041  12.542
77170SOL    HW133342   1.611   6.042  12.508
77170SOL    HW233343   1.468   6.077  12.471
77171SOL     OW33344   0.324   7.010  13.521
77171SOL    HW133345   0.359   7.052  13.443
77171SOL    HW233346   0.393   7.019  13.586
77172SOL     OW33347   9.870   2.158   6.099
77172SOL    HW133348   9.793   2.141   6.046
77172SOL    HW233349   9.898   2.071   6.130
77173SOL     OW33350   3.797   9.535   5.333
77173SOL    HW133351   3.853   9.612   5.346
77173SOL    HW233352   3.777   9.537   5.239
77174SOL     OW33353   1.964   8.616  14.551
77174SOL    HW133354   2.011   8.536  14.527
77174SOL    HW233355   1.903   8.587  14.619
77175SOL     OW33356  14.858   1.022  12.287
77175SOL    HW133357  14.859   0.963  12.362
77175SOL    HW233358   0.052   1.089  12.309
77176SOL     OW33359   0.739  12.970   1.868
77176SOL    HW133360   0.663  12.915   1.849
77176SOL    HW233361   0.795  12.960   1.791
77177SOL     OW33362   1.663  12.620   4.126
77177SOL    HW133363   1.754  12.607   4.150
77177SOL    HW233364   1.618  12.543   4.162
77178SOL     OW33365   8.015  11.532   8.225
77178SOL    HW133366   8.067  11.598   8.272
77178SOL    HW233367   8.046  11.448   8.260
77179SOL     OW33368  11.601   2.556   2.560
77179SOL    HW133369  11.679   2.505   2.536
77179SOL    HW233370  11.528   2.503   2.529
77180SOL     OW33371   9.086   9.971   7.915
77180SOL    HW133372   9.179   9.949   7.915
77180SOL    HW233373   9.066   9.996   8.005
77181SOL     OW33374   6.622  11.216   9.169
77181SOL    HW133375   6.664  11.300   9.151
77181SOL    HW233376   6.567  11.201   9.092
77182SOL     OW33377   8.658  12.777   7.813
77182SOL    HW133378   8.605  12.722   7.871
77182SOL    HW233379   8.635  12.748   7.725
77183SOL     OW33380  14.470   8.333   8.893
77183SOL    HW133381  14.515   8.377   8.965
77183SOL    HW233382  14.540   8.290   8.844
77184SOL     OW33383   2.828   9.060   7.789
77184SOL    HW133384   2.789   9.085   7.873
77184SOL    HW233385   2.869   9.140   7.756
77185SOL     OW33386   9.534   3.292   5.786
77185SOL    HW133387   9.564   3.208   5.821
77185SOL    HW233388   9.571   3.358   5.844
77186SOL     OW33389   3.710   2.008  14.719
77186SOL    HW133390   3.679   2.000  14.628
77186SOL    HW233391   3.630   2.024  14.769
77187SOL     OW33392   8.972   2.724   0.746
77187SOL    HW133393   8.974   2.818   0.727
77187SOL    HW233394   8.972   2.683   0.660
77188SOL     OW33395   5.732   7.942   4.542
77188SOL    HW133396   5.694   8.017   4.587
77188SOL    HW233397   5.698   7.866   4.588
77189SOL     OW33398  12.752   6.827   2.953
77189SOL    HW133399  12.835   6.874   2.960
77189SOL    HW233400  12.715   6.857   2.870
77190SOL     OW33401   6.166  10.280  10.694
77190SOL    HW133402   6.249  10.296  10.737
77190SOL    HW233403   6.144  10.362  10.651
77191SOL     OW33404   0.058   9.018   6.475
77191SOL    HW133405   0.031   9.108   6.461
77191SOL    HW233406  14.850   8.973   6.502
77192SOL     OW33407   6.155  13.376  12.496
77192SOL    HW133408   6.215  13.306  12.520
77192SOL    HW233409   6.075  13.330  12.470
77193SOL     OW33410  14.486  10.193   0.152
77193SOL    HW133411  14.396  10.162   0.159
77193SOL    HW233412  14.518  10.194   0.242
77194SOL     OW33413   2.346   8.574   8.053
77194SOL    HW133414   2.254   8.579   8.026
77194SOL    HW233415   2.343   8.536   8.141
77195SOL     OW33416   8.112   3.437   3.727
77195SOL    HW133417   8.125   3.446   3.821
77195SOL    HW233418   8.044   3.371   3.718
77196SOL     OW33419   2.095  13.837  14.598
77196SOL    HW133420   2.157  13.854  14.669
77196SOL    HW233421   2.012  13.872  14.630
77197SOL     OW33422  12.117   6.199   7.791
77197SOL    HW133423  12.126   6.217   7.884
77197SOL    HW233424  12.082   6.110   7.787
77198SOL     OW33425   7.471   7.349   6.351
77198SOL    HW133426   7.448   7.334   6.442
77198SOL    HW233427   7.567   7.341   6.349
77199SOL     OW33428   5.996  14.064   8.751
77199SOL    HW133429   5.976  14.146   8.796
77199SOL    HW233430   5.976  13.996   8.816
77200SOL     OW33431   1.814  10.735  10.493
77200SOL    HW133432   1.750  10.800  10.463
77200SOL    HW233433   1.873  10.723  10.418
77201SOL     OW33434   9.667   7.244   4.695
77201SOL    HW133435   9.743   7.302   4.694
77201SOL    HW233436   9.638   7.239   4.604
77202SOL     OW33437   6.772   6.857   9.618
77202SOL    HW133438   6.732   6.921   9.677
77202SOL    HW233439   6.866   6.873   9.625
77203SOL     OW33440  14.383  11.430   2.312
77203SOL    HW133441  14.366  11.344   2.350
77203SOL    HW233442  14.479  11.439   2.315
77204SOL     OW33443  10.844  10.178   6.226
77204SOL    HW133444  10.783  10.252   6.224
77204SOL    HW233445  10.921  10.210   6.180
77205SOL     OW33446   8.197   2.693  14.273
77205SOL    HW133447   8.289   2.693  14.250
77205SOL    HW233448   8.190   2.629  14.344
77206SOL     OW33449  10.277   4.035   4.423
77206SOL    HW133450  10.247   4.122   4.450
77206SOL    HW233451  10.311   3.996   4.504
77207SOL     OW33452  13.654   3.734   4.351
77207SOL    HW133453  13.685   3.651   4.315
77207SOL    HW233454  13.658   3.795   4.278
77208SOL     OW33455   7.637   1.033   1.275
77208SOL    HW133456   7.678   1.055   1.191
77208SOL    HW233457   7.570   1.100   1.287
77209SOL     OW33458   8.026   7.177   1.675
77209SOL    HW133459   7.956   7.137   1.623
77209SOL    HW233460   8.012   7.271   1.666
77210SOL     OW33461   1.054   3.514   3.728
77210SOL    HW133462   1.020   3.505   3.639
77210SOL    HW233463   1.056   3.425   3.763
77211SOL     OW33464  10.066   4.835   9.088
77211SOL    HW133465   9.977   4.807   9.064
77211SOL    HW233466  10.063   4.930   9.084
77212SOL     OW33467   3.081   1.486  10.882
77212SOL    HW133468   3.008   1.528  10.926
77212SOL    HW233469   3.134   1.449  10.952
77213SOL     OW33470   7.777   6.307   3.057
77213SOL    HW133471   7.777   6.309   3.153
77213SOL    HW233472   7.857   6.354   3.032
77214SOL     OW33473   7.104   7.672  10.221
77214SOL    HW133474   7.195   7.689  10.195
77214SOL    HW233475   7.054   7.743  10.181
77215SOL     OW33476   6.698   2.955   4.592
77215SOL    HW133477   6.631   3.024   4.594
77215SOL    HW233478   6.779   2.999   4.619
77216SOL     OW33479   6.786  10.186   4.571
77216SOL    HW133480   6.707  10.199   4.520
77216SOL    HW233481   6.782  10.095   4.601
77217SOL     OW33482   0.117   6.806   3.072
77217SOL    HW133483   0.045   6.825   3.012
77217SOL    HW233484   0.195   6.837   3.027
77218SOL     OW33485  13.549   0.445   3.407
77218SOL    HW133486  13.512   0.391   3.476
77218SOL    HW233487  13.474   0.476   3.357
77219SOL     OW33488   6.166   7.546   4.132
77219SOL    HW133489   6.121   7.626   4.107
77219SOL    HW233490   6.161   7.544   4.228
77220SOL     OW33491   8.575   4.602   1.686
77220SOL    HW133492   8.668   4.583   1.675
77220SOL    HW233493   8.546   4.631   1.599
77221SOL     OW33494   1.665   4.018   4.971
77221SOL    HW133495   1.612   3.965   4.912
77221SOL    HW233496   1.749   4.029   4.926
77222SOL     OW33497   1.770   6.985  12.642
77222SOL    HW133498   1.722   7.048  12.589
77222SOL    HW233499   1.818   7.039  12.705
77223SOL     OW33500   0.672   7.503   1.480
77223SOL    HW133501   0.594   7.483   1.531
77223SOL    HW233502   0.645   7.571   1.418
77224SOL     OW33503   8.476   9.026   8.008
77224SOL    HW133504   8.460   8.965   8.079
77224SOL    HW233505   8.571   9.023   7.994
77225SOL     OW33506   4.988  11.223   7.287
77225SOL    HW133507   4.965  11.132   7.303
77225SOL    HW233508   5.014  11.257   7.373
77226SOL     OW33509   7.735  11.339   0.418
77226SOL    HW133510   7.812  11.294   0.453
77226SOL    HW233511   7.767  11.426   0.393
77227SOL     OW33512   8.828   5.007  11.229
77227SOL    HW133513   8.829   4.982  11.136
77227SOL    HW233514   8.873   4.935  11.273
77228SOL     OW33515  13.779   9.491  13.618
77228SOL    HW133516  13.746   9.417  13.668
77228SOL    HW233517  13.868   9.505  13.652
77229SOL     OW33518   6.461  10.431   7.001
77229SOL    HW133519   6.520  10.450   6.929
77229SOL    HW233520   6.504  10.470   7.078
77230SOL     OW33521   9.104   3.213  11.461
77230SOL    HW133522   9.180   3.234  11.516
77230SOL    HW233523   9.132   3.237  11.372
77231SOL     OW33524   0.565   7.808   4.329
77231SOL    HW133525   0.542   7.808   4.422
77231SOL    HW233526   0.566   7.900   4.304
77232SOL     OW33527   8.890   3.720   3.960
77232SOL    HW133528   8.818   3.736   3.900
77232SOL    HW233529   8.856   3.746   4.046
77233SOL     OW33530  11.465   1.036   0.264
77233SOL    HW133531  11.496   1.122   0.239
77233SOL    HW233532  11.412   1.006   0.190
77234SOL     OW33533   9.498  11.401  10.034
77234SOL    HW133534   9.490  11.491  10.003
77234SOL    HW233535   9.442  11.351   9.974
77235SOL     OW33536   2.040  10.246   0.988
77235SOL    HW133537   2.048  10.162   0.942
77235SOL    HW233538   2.101  10.239   1.061
77236SOL     OW33539   6.577   5.487   9.885
77236SOL    HW133540   6.618   5.460   9.967
77236SOL    HW233541   6.571   5.582   9.891
77237SOL     OW33542   4.986   6.849   7.759
77237SOL    HW133543   4.961   6.761   7.784
77237SOL    HW233544   4.976   6.851   7.663
77238SOL     OW33545   8.982   3.232   0.784
77238SOL    HW133546   8.979   3.327   0.777
77238SOL    HW233547   8.899   3.202   0.748
77239SOL     OW33548  13.730   7.431   5.085
77239SOL    HW133549  13.677   7.505   5.055
77239SOL    HW233550  13.811   7.472   5.117
77240SOL     OW33551  11.959   0.545   6.154
77240SOL    HW133552  11.960   0.449   6.153
77240SOL    HW233553  11.949   0.570   6.062
77241SOL     OW33554  11.734  11.087   9.790
77241SOL    HW133555  11.747  11.024   9.861
77241SOL    HW233556  11.659  11.052   9.741
77242SOL     OW33557  13.139   0.053  14.290
77242SOL    HW133558  13.047   0.066  14.316
77242SOL    HW233559  13.183   0.133  14.319
77243SOL     OW33560   4.501  13.054  10.357
77243SOL    HW133561   4.413  13.051  10.394
77243SOL    HW233562   4.548  12.983  10.400
77244SOL     OW33563   8.136   4.426   1.728
77244SOL    HW133564   8.099   4.502   1.684
77244SOL    HW233565   8.229   4.447   1.738
77245SOL     OW33566  13.889   7.007  11.804
77245SOL    HW133567  13.843   6.923  11.796
77245SOL    HW233568  13.901   7.019  11.899
77246SOL     OW33569  14.826   5.832  13.220
77246SOL    HW133570   0.023   5.842  13.286
77246SOL    HW233571  14.844   5.748  13.178
77247SOL     OW33572   0.956   0.312  14.656
77247SOL    HW133573   1.000   0.387  14.616
77247SOL    HW233574   0.886   0.290  14.594
77248SOL     OW33575   7.676  14.658  10.412
77248SOL    HW133576   7.716  14.744  10.397
77248SOL    HW233577   7.647  14.631  10.325
77249SOL     OW33578   0.987   8.115   9.110
77249SOL    HW133579   0.904   8.145   9.148
77249SOL    HW233580   0.978   8.134   9.016
77250SOL     OW33581   8.260   0.736   2.725
77250SOL    HW133582   8.310   0.655   2.720
77250SOL    HW233583   8.169   0.708   2.720
77251SOL     OW33584  14.760   2.503  10.840
77251SOL    HW133585  14.668   2.478  10.845
77251SOL    HW233586  14.781   2.537  10.927
77252SOL     OW33587   7.204  10.175  13.188
77252SOL    HW133588   7.117  10.206  13.212
77252SOL    HW233589   7.192  10.083  13.164
77253SOL     OW33590   1.010  11.012  12.732
77253SOL    HW133591   0.946  11.046  12.670
77253SOL    HW233592   1.089  11.063  12.714
77254SOL     OW33593  13.556   6.260   0.547
77254SOL    HW133594  13.498   6.304   0.610
77254SOL    HW233595  13.590   6.331   0.492
77255SOL     OW33596  12.904   7.852  13.427
77255SOL    HW133597  12.832   7.886  13.480
77255SOL    HW233598  12.977   7.842  13.488
77256SOL     OW33599   3.479   7.295   1.592
77256SOL    HW133600   3.437   7.302   1.506
77256SOL    HW233601   3.555   7.352   1.587
77257SOL     OW33602  12.273   0.231  10.280
77257SOL    HW133603  12.310   0.320  10.280
77257SOL    HW233604  12.272   0.205  10.188
77258SOL     OW33605  14.420  12.428  14.651
77258SOL    HW133606  14.493  12.398  14.597
77258SOL    HW233607  14.460  12.449  14.735
77259SOL     OW33608   1.002   2.000   2.864
77259SOL    HW133609   1.075   2.042   2.912
77259SOL    HW233610   0.978   1.926   2.919
77260SOL     OW33611   7.472   1.723   3.810
77260SOL    HW133612   7.408   1.722   3.881
77260SOL    HW233613   7.514   1.637   3.814
77261SOL     OW33614   9.970   0.736  11.060
77261SOL    HW133615   9.976   0.829  11.042
77261SOL    HW233616   9.911   0.730  11.136
77262SOL     OW33617   3.353   8.974   2.909
77262SOL    HW133618   3.357   9.055   2.959
77262SOL    HW233619   3.338   9.002   2.819
77263SOL     OW33620   2.667   1.545   8.109
77263SOL    HW133621   2.636   1.502   8.188
77263SOL    HW233622   2.761   1.525   8.107
77264SOL     OW33623   6.597  12.879   0.515
77264SOL    HW133624   6.646  12.837   0.586
77264SOL    HW233625   6.627  12.834   0.436
77265SOL     OW33626   3.806  10.245   2.735
77265SOL    HW133627   3.824  10.296   2.656
77265SOL    HW233628   3.892  10.213   2.762
77266SOL     OW33629  13.064   8.385   1.573
77266SOL    HW133630  13.015   8.379   1.655
77266SOL    HW233631  13.135   8.322   1.583
77267SOL     OW33632   5.496   2.665   1.936
77267SOL    HW133633   5.528   2.575   1.934
77267SOL    HW233634   5.480   2.683   2.029
77268SOL     OW33635   0.379   5.838   1.978
77268SOL    HW133636   0.442   5.805   2.042
77268SOL    HW233637   0.312   5.882   2.030
77269SOL     OW33638   8.908   4.336   3.835
77269SOL    HW133639   8.870   4.352   3.921
77269SOL    HW233640   8.841   4.366   3.773
77270SOL     OW33641   2.998  11.109   9.923
77270SOL    HW133642   3.064  11.086   9.857
77270SOL    HW233643   3.034  11.076  10.005
77271SOL     OW33644   8.577  12.809   1.945
77271SOL    HW133645   8.600  12.818   2.038
77271SOL    HW233646   8.526  12.888   1.926
77272SOL     OW33647   6.246   3.072   5.112
77272SOL    HW133648   6.258   3.148   5.057
77272SOL    HW233649   6.287   3.096   5.196
77273SOL     OW33650   2.475  13.768  11.521
77273SOL    HW133651   2.522  13.685  11.518
77273SOL    HW233652   2.472  13.798  11.430
77274SOL     OW33653  11.318  12.757   5.300
77274SOL    HW133654  11.244  12.810   5.270
77274SOL    HW233655  11.277  12.686   5.349
77275SOL     OW33656   5.469   2.586   7.136
77275SOL    HW133657   5.381   2.605   7.170
77275SOL    HW233658   5.459   2.588   7.041
77276SOL     OW33659   4.105   5.501  13.031
77276SOL    HW133660   4.137   5.537  12.948
77276SOL    HW233661   4.148   5.554  13.098
77277SOL     OW33662   0.915  13.346  10.238
77277SOL    HW133663   0.894  13.343  10.331
77277SOL    HW233664   0.931  13.255  10.213
77278SOL     OW33665   6.013   5.974   4.066
77278SOL    HW133666   6.107   5.965   4.079
77278SOL    HW233667   6.004   6.054   4.014
77279SOL     OW33668   7.092   5.358  13.044
77279SOL    HW133669   7.158   5.395  12.984
77279SOL    HW233670   7.138   5.348  13.127
77280SOL     OW33671   4.511   4.365   7.638
77280SOL    HW133672   4.519   4.327   7.725
77280SOL    HW233673   4.441   4.314   7.596
77281SOL     OW33674   8.383  11.876   1.579
77281SOL    HW133675   8.415  11.813   1.515
77281SOL    HW233676   8.326  11.934   1.529
77282SOL     OW33677  14.627   5.300  14.017
77282SOL    HW133678  14.550   5.356  14.023
77282SOL    HW233679  14.698   5.352  14.056
77283SOL     OW33680   1.893   9.967   2.388
77283SOL    HW133681   1.933   9.945   2.303
77283SOL    HW233682   1.884  10.062   2.386
77284SOL     OW33683  13.001   0.282  12.916
77284SOL    HW133684  13.031   0.329  12.994
77284SOL    HW233685  13.071   0.292  12.852
77285SOL     OW33686  12.266   4.197  12.765
77285SOL    HW133687  12.232   4.166  12.849
77285SOL    HW233688  12.307   4.119  12.726
77286SOL     OW33689   6.639   3.826   3.347
77286SOL    HW133690   6.695   3.856   3.419
77286SOL    HW233691   6.568   3.778   3.390
77287SOL     OW33692  14.579   5.697   6.413
77287SOL    HW133693  14.497   5.720   6.457
77287SOL    HW233694  14.616   5.781   6.386
77288SOL     OW33695   2.004   4.982   3.099
77288SOL    HW133696   1.925   4.990   3.153
77288SOL    HW233697   2.011   4.888   3.083
77289SOL     OW33698   4.918   8.011   8.480
77289SOL    HW133699   4.888   8.073   8.547
77289SOL    HW233700   4.923   8.063   8.400
77290SOL     OW33701  11.465  12.219   0.711
77290SOL    HW133702  11.447  12.313   0.721
77290SOL    HW233703  11.486  12.189   0.800
77291SOL     OW33704   4.934  14.530   7.665
77291SOL    HW133705   4.988  14.579   7.727
77291SOL    HW233706   4.947  14.438   7.690
77292SOL     OW33707  13.472   5.472  11.965
77292SOL    HW133708  13.511   5.559  11.956
77292SOL    HW233709  13.414   5.464  11.890
77293SOL     OW33710   1.154  13.972   7.996
77293SOL    HW133711   1.117  14.060   7.994
77293SOL    HW233712   1.233  13.978   7.943
77294SOL     OW33713   3.200  14.066  11.067
77294SOL    HW133714   3.214  13.976  11.097
77294SOL    HW233715   3.201  14.060  10.972
77295SOL     OW33716   5.621   1.452   9.740
77295SOL    HW133717   5.668   1.431   9.659
77295SOL    HW233718   5.630   1.373   9.793
77296SOL     OW33719   1.712   0.352   4.872
77296SOL    HW133720   1.804   0.364   4.850
77296SOL    HW233721   1.712   0.324   4.963
77297SOL     OW33722   3.310   4.300   1.716
77297SOL    HW133723   3.222   4.266   1.699
77297SOL    HW233724   3.333   4.266   1.802
77298SOL     OW33725   0.905  14.391   0.767
77298SOL    HW133726   0.884  14.450   0.840
77298SOL    HW233727   0.970  14.331   0.803
77299SOL     OW33728  10.779   5.121   4.138
77299SOL    HW133729  10.734   5.068   4.072
77299SOL    HW233730  10.712   5.141   4.203
77300SOL     OW33731  12.285   4.409   1.163
77300SOL    HW133732  12.343   4.388   1.090
77300SOL    HW233733  12.291   4.334   1.222
77301SOL     OW33734   4.989   3.190  12.992
77301SOL    HW133735   4.923   3.123  13.011
77301SOL    HW233736   5.066   3.162  13.041
77302SOL     OW33737   4.543  14.608   4.590
77302SOL    HW133738   4.450  14.619   4.569
77302SOL    HW233739   4.556  14.513   4.591
77303SOL     OW33740   0.299  10.110  14.461
77303SOL    HW133741   0.247  10.190  14.445
77303SOL    HW233742   0.311  10.108  14.556
77304SOL     OW33743  13.360  10.700   6.083
77304SOL    HW133744  13.333  10.620   6.129
77304SOL    HW233745  13.294  10.712   6.015
77305SOL     OW33746   1.977  13.161  12.988
77305SOL    HW133747   1.893  13.128  13.021
77305SOL    HW233748   2.010  13.091  12.932
77306SOL     OW33749   8.687  13.327   7.395
77306SOL    HW133750   8.666  13.318   7.302
77306SOL    HW233751   8.727  13.244   7.420
77307SOL     OW33752   0.031   6.666  12.339
77307SOL    HW133753   0.115   6.698  12.307
77307SOL    HW233754   0.052   6.584  12.383
77308SOL     OW33755   7.806   0.091   0.923
77308SOL    HW133756   7.717   0.106   0.954
77308SOL    HW233757   7.854   0.169   0.949
77309SOL     OW33758   3.063  11.334  14.408
77309SOL    HW133759   3.007  11.410  14.427
77309SOL    HW233760   3.142  11.372  14.370
77310SOL     OW33761  10.108  10.242  12.161
77310SOL    HW133762  10.062  10.197  12.232
77310SOL    HW233763  10.090  10.189  12.083
77311SOL     OW33764   3.319  11.849  12.139
77311SOL    HW133765   3.380  11.903  12.089
77311SOL    HW233766   3.357  11.761  12.136
77312SOL     OW33767  14.455   1.892   7.303
77312SOL    HW133768  14.362   1.909   7.322
77312SOL    HW233769  14.455   1.855   7.215
77313SOL     OW33770   7.829   7.757   5.567
77313SOL    HW133771   7.860   7.748   5.657
77313SOL    HW233772   7.734   7.756   5.575
77314SOL     OW33773   3.452   7.818   3.138
77314SOL    HW133774   3.495   7.892   3.180
77314SOL    HW233775   3.414   7.854   3.058
77315SOL     OW33776   6.470  10.806   0.248
77315SOL    HW133777   6.386  10.795   0.292
77315SOL    HW233778   6.496  10.717   0.225
77316SOL     OW33779   5.537   3.745   9.175
77316SOL    HW133780   5.549   3.827   9.126
77316SOL    HW233781   5.623   3.702   9.171
77317SOL     OW33782   8.985   6.972   8.618
77317SOL    HW133783   9.072   6.995   8.587
77317SOL    HW233784   8.973   7.022   8.699
77318SOL     OW33785  11.579   3.905   2.251
77318SOL    HW133786  11.485   3.888   2.254
77318SOL    HW233787  11.591   3.985   2.301
77319SOL     OW33788  13.421   6.255   5.593
77319SOL    HW133789  13.502   6.221   5.631
77319SOL    HW233790  13.445   6.339   5.555
77320SOL     OW33791  12.720  14.661   9.411
77320SOL    HW133792  12.781  14.707   9.353
77320SOL    HW233793  12.766  14.655   9.494
77321SOL     OW33794   7.030   9.497  14.102
77321SOL    HW133795   7.088   9.563  14.141
77321SOL    HW233796   7.059   9.414  14.141
77322SOL     OW33797  10.754  10.632   9.166
77322SOL    HW133798  10.804  10.552   9.151
77322SOL    HW233799  10.814  10.702   9.141
77323SOL     OW33800   2.051   7.623   6.559
77323SOL    HW133801   2.109   7.662   6.494
77323SOL    HW233802   1.969   7.673   6.551
77324SOL     OW33803   6.899   7.893   5.045
77324SOL    HW133804   6.831   7.958   5.062
77324SOL    HW233805   6.903   7.842   5.126
77325SOL     OW33806   2.120   5.017   0.531
77325SOL    HW133807   2.199   5.066   0.508
77325SOL    HW233808   2.070   5.078   0.586
77326SOL     OW33809   7.249  11.130  10.891
77326SOL    HW133810   7.183  11.198  10.904
77326SOL    HW233811   7.205  11.063  10.838
77327SOL     OW33812   8.340   2.683   4.051
77327SOL    HW133813   8.379   2.730   3.978
77327SOL    HW233814   8.305   2.603   4.012
77328SOL     OW33815   1.766   0.202   6.677
77328SOL    HW133816   1.720   0.171   6.599
77328SOL    HW233817   1.795   0.290   6.655
77329SOL     OW33818  11.593   7.630   4.070
77329SOL    HW133819  11.589   7.540   4.038
77329SOL    HW233820  11.526   7.676   4.019
77330SOL     OW33821  14.392   0.779   6.975
77330SOL    HW133822  14.302   0.810   6.990
77330SOL    HW233823  14.424   0.758   7.063
77331SOL     OW33824   2.207   0.794   3.753
77331SOL    HW133825   2.260   0.736   3.698
77331SOL    HW233826   2.218   0.759   3.841
77332SOL     OW33827  13.147  12.970   9.955
77332SOL    HW133828  13.062  13.003   9.984
77332SOL    HW233829  13.127  12.912   9.882
77333SOL     OW33830   4.613   4.118   5.089
77333SOL    HW133831   4.679   4.073   5.036
77333SOL    HW233832   4.588   4.194   5.038
77334SOL     OW33833  12.972   7.664  14.275
77334SOL    HW133834  12.956   7.747  14.321
77334SOL    HW233835  13.050   7.628  14.316
77335SOL     OW33836   1.318   0.081   7.198
77335SOL    HW133837   1.235   0.082   7.151
77335SOL    HW233838   1.294   0.068   7.290
77336SOL     OW33839  11.886  11.757   4.413
77336SOL    HW133840  11.881  11.842   4.369
77336SOL    HW233841  11.924  11.698   4.348
77337SOL     OW33842   0.446  14.794   1.771
77337SOL    HW133843   0.485  14.762   1.690
77337SOL    HW233844   0.506  14.862   1.802
77338SOL     OW33845  12.120  14.005  13.862
77338SOL    HW133846  12.057  13.934  13.873
77338SOL    HW233847  12.194  13.965  13.816
77339SOL     OW33848   6.041   7.848   3.685
77339SOL    HW133849   5.995   7.865   3.603
77339SOL    HW233850   6.096   7.926   3.698
77340SOL     OW33851  11.826  13.083  14.738
77340SOL    HW133852  11.903  13.079  14.681
77340SOL    HW233853  11.752  13.079  14.678
77341SOL     OW33854   2.163   7.999  11.580
77341SOL    HW133855   2.168   7.983  11.486
77341SOL    HW233856   2.249   8.031  11.604
77342SOL     OW33857  12.636   9.304   9.171
77342SOL    HW133858  12.573   9.363   9.130
77342SOL    HW233859  12.597   9.282   9.256
77343SOL     OW33860   2.567   5.498  12.395
77343SOL    HW133861   2.592   5.413  12.359
77343SOL    HW233862   2.599   5.562  12.331
77344SOL     OW33863   8.438  10.929   1.804
77344SOL    HW133864   8.432  10.978   1.886
77344SOL    HW233865   8.484  10.849   1.827
77345SOL     OW33866   2.281  13.068   1.173
77345SOL    HW133867   2.266  12.995   1.233
77345SOL    HW233868   2.345  13.123   1.219
77346SOL     OW33869   7.893  11.322   5.657
77346SOL    HW133870   7.808  11.305   5.697
77346SOL    HW233871   7.873  11.353   5.568
77347SOL     OW33872   9.109  11.373   9.913
77347SOL    HW133873   9.110  11.429   9.836
77347SOL    HW233874   9.029  11.398   9.960
77348SOL     OW33875  10.855   5.165  12.767
77348SOL    HW133876  10.832   5.081  12.806
77348SOL    HW233877  10.927   5.145  12.707
77349SOL     OW33878  10.862   6.151  11.822
77349SOL    HW133879  10.880   6.136  11.915
77349SOL    HW233880  10.880   6.066  11.781
77350SOL     OW33881  13.639  11.888   8.790
77350SOL    HW133882  13.599  11.821   8.845
77350SOL    HW233883  13.564  11.936   8.754
77351SOL     OW33884   8.932   6.923   5.551
77351SOL    HW133885   9.026   6.905   5.552
77351SOL    HW233886   8.921   6.997   5.612
77352SOL     OW33887   4.835   7.503   7.545
77352SOL    HW133888   4.807   7.459   7.626
77352SOL    HW233889   4.790   7.454   7.475
77353SOL     OW33890   1.646  12.864  13.971
77353SOL    HW133891   1.582  12.920  13.928
77353SOL    HW233892   1.730  12.910  13.960
77354SOL     OW33893   2.699   4.876  12.593
77354SOL    HW133894   2.747   4.902  12.672
77354SOL    HW233895   2.767   4.861  12.528
77355SOL     OW33896   0.660   3.359   6.394
77355SOL    HW133897   0.661   3.402   6.309
77355SOL    HW233898   0.623   3.273   6.377
77356SOL     OW33899   5.523   7.376   5.095
77356SOL    HW133900   5.529   7.298   5.150
77356SOL    HW233901   5.453   7.356   5.033
77357SOL     OW33902   3.127   5.417  10.690
77357SOL    HW133903   3.125   5.322  10.697
77357SOL    HW233904   3.183   5.435  10.614
77358SOL     OW33905  10.784   5.548  13.363
77358SOL    HW133906  10.848   5.478  13.346
77358SOL    HW233907  10.710   5.526  13.307
77359SOL     OW33908   6.022   2.807   0.711
77359SOL    HW133909   5.995   2.724   0.672
77359SOL    HW233910   5.949   2.833   0.767
77360SOL     OW33911   8.513  13.737   5.628
77360SOL    HW133912   8.559  13.660   5.661
77360SOL    HW233913   8.421  13.712   5.626
77361SOL     OW33914   1.901  11.078   2.445
77361SOL    HW133915   1.814  11.099   2.411
77361SOL    HW233916   1.904  10.982   2.445
77362SOL     OW33917  11.921   5.347  10.245
77362SOL    HW133918  11.854   5.283  10.268
77362SOL    HW233919  11.872   5.421  10.209
77363SOL     OW33920  14.725   2.626  11.087
77363SOL    HW133921  14.658   2.562  11.111
77363SOL    HW233922  14.676   2.703  11.061
77364SOL     OW33923   4.397   2.008   0.385
77364SOL    HW133924   4.391   2.083   0.326
77364SOL    HW233925   4.307   1.990   0.413
77365SOL     OW33926   0.904   9.687   9.818
77365SOL    HW133927   0.969   9.688   9.889
77365SOL    HW233928   0.956   9.683   9.738
77366SOL     OW33929  14.135   4.150   0.653
77366SOL    HW133930  14.206   4.123   0.595
77366SOL    HW233931  14.113   4.239   0.623
77367SOL     OW33932  11.503  10.502  11.748
77367SOL    HW133933  11.539  10.464  11.828
77367SOL    HW233934  11.459  10.429  11.705
77368SOL     OW33935   3.813  14.227   4.641
77368SOL    HW133936   3.900  14.255   4.668
77368SOL    HW233937   3.828  14.175   4.561
77369SOL     OW33938   2.429   7.143  14.182
77369SOL    HW133939   2.421   7.083  14.108
77369SOL    HW233940   2.345   7.135  14.228
77370SOL     OW33941   5.821  12.997  12.592
77370SOL    HW133942   5.734  12.995  12.633
77370SOL    HW233943   5.882  12.989  12.665
77371SOL     OW33944  11.493   6.012   0.017
77371SOL    HW133945  11.526   5.929  14.855
77371SOL    HW233946  11.563   6.044   0.074
77372SOL     OW33947   1.273  10.631   2.156
77372SOL    HW133948   1.334  10.656   2.086
77372SOL    HW233949   1.287  10.537   2.168
77373SOL     OW33950   9.533  11.202   8.601
77373SOL    HW133951   9.567  11.167   8.518
77373SOL    HW233952   9.549  11.133   8.665
77374SOL     OW33953   3.301   4.413   2.636
77374SOL    HW133954   3.206   4.402   2.628
77374SOL    HW233955   3.320   4.391   2.727
77375SOL     OW33956   2.869   2.667   1.452
77375SOL    HW133957   2.810   2.660   1.376
77375SOL    HW233958   2.873   2.761   1.469
77376SOL     OW33959   4.720   7.362   9.952
77376SOL    HW133960   4.744   7.282   9.906
77376SOL    HW233961   4.704   7.334  10.043
77377SOL     OW33962   4.628   8.263   5.630
77377SOL    HW133963   4.542   8.305   5.629
77377SOL    HW233964   4.660   8.271   5.540
77378SOL     OW33965  14.544   1.970   6.591
77378SOL    HW133966  14.478   1.970   6.522
77378SOL    HW233967  14.547   2.061   6.622
77379SOL     OW33968   9.205   6.230   7.545
77379SOL    HW133969   9.145   6.256   7.476
77379SOL    HW233970   9.178   6.281   7.621
77380SOL     OW33971   2.924   8.766   4.200
77380SOL    HW133972   2.830   8.773   4.184
77380SOL    HW233973   2.938   8.817   4.281
77381SOL     OW33974   1.513  12.006   8.494
77381SOL    HW133975   1.510  11.980   8.402
77381SOL    HW233976   1.505  12.101   8.493
77382SOL     OW33977   9.480   1.863   4.817
77382SOL    HW133978   9.438   1.886   4.734
77382SOL    HW233979   9.440   1.780   4.843
77383SOL     OW33980   6.799   8.465   3.655
77383SOL    HW133981   6.803   8.546   3.705
77383SOL    HW233982   6.717   8.423   3.683
77384SOL     OW33983  14.715  12.617   5.858
77384SOL    HW133984  14.673  12.589   5.939
77384SOL    HW233985  14.670  12.569   5.789
77385SOL     OW33986  11.437   9.390   7.853
77385SOL    HW133987  11.447   9.303   7.891
77385SOL    HW233988  11.475   9.382   7.765
77386SOL     OW33989   6.472   6.525   8.270
77386SOL    HW133990   6.466   6.442   8.318
77386SOL    HW233991   6.535   6.577   8.320
77387SOL     OW33992   4.667  13.104   7.951
77387SOL    HW133993   4.671  13.147   8.036
77387SOL    HW233994   4.756  13.075   7.934
77388SOL     OW33995   2.034   1.235   9.172
77388SOL    HW133996   1.944   1.255   9.147
77388SOL    HW233997   2.077   1.320   9.178
77389SOL     OW33998   6.702  10.917  11.139
77389SOL    HW133999   6.725  10.862  11.213
77389SOL    HW234000   6.782  10.966  11.119
77390SOL     OW34001   8.041   1.373   2.545
77390SOL    HW134002   8.135   1.363   2.526
77390SOL    HW234003   8.001   1.295   2.507
77391SOL     OW34004   0.596   9.373   3.012
77391SOL    HW134005   0.518   9.406   2.966
77391SOL    HW234006   0.563   9.341   3.096
77392SOL     OW34007   2.319   9.412   9.664
77392SOL    HW134008   2.398   9.467   9.660
77392SOL    HW234009   2.335   9.353   9.737
77393SOL     OW34010   9.103   8.730  10.552
77393SOL    HW134011   9.093   8.767  10.640
77393SOL    HW234012   9.063   8.795  10.494
77394SOL     OW34013   6.634   5.492   0.320
77394SOL    HW134014   6.680   5.526   0.243
77394SOL    HW234015   6.604   5.571   0.366
77395SOL     OW34016  13.702   5.452  11.771
77395SOL    HW134017  13.780   5.402  11.744
77395SOL    HW234018  13.632   5.387  11.774
77396SOL     OW34019   9.395   2.070  14.072
77396SOL    HW134020   9.487   2.067  14.099
77396SOL    HW234021   9.354   1.996  14.117
77397SOL     OW34022   1.115   2.301  14.037
77397SOL    HW134023   1.062   2.366  14.083
77397SOL    HW234024   1.104   2.322  13.944
77398SOL     OW34025  10.818   5.562   3.692
77398SOL    HW134026  10.752   5.495   3.707
77398SOL    HW234027  10.901   5.520   3.717
77399SOL     OW34028  13.332   6.177   3.165
77399SOL    HW134029  13.313   6.224   3.246
77399SOL    HW234030  13.418   6.210   3.138
77400SOL     OW34031  13.815   1.886  14.742
77400SOL    HW134032  13.800   1.881  14.837
77400SOL    HW234033  13.911   1.884  14.734
77401SOL     OW34034   2.997   4.810   7.901
77401SOL    HW134035   3.046   4.859   7.967
77401SOL    HW234036   2.906   4.812   7.931
77402SOL     OW34037   7.377   1.530   9.459
77402SOL    HW134038   7.346   1.615   9.427
77402SOL    HW234039   7.437   1.499   9.391
77403SOL     OW34040  10.985   5.657   7.145
77403SOL    HW134041  10.962   5.743   7.182
77403SOL    HW234042  11.073   5.640   7.177
77404SOL     OW34043   2.798   7.067   5.656
77404SOL    HW134044   2.834   7.029   5.575
77404SOL    HW234045   2.721   7.115   5.627
77405SOL     OW34046   7.212  13.302   6.389
77405SOL    HW134047   7.216  13.244   6.465
77405SOL    HW234048   7.227  13.245   6.314
77406SOL     OW34049   7.553   8.189  11.916
77406SOL    HW134050   7.589   8.277  11.911
77406SOL    HW234051   7.547   8.160  11.825
77407SOL     OW34052   0.508   0.548   8.449
77407SOL    HW134053   0.422   0.507   8.456
77407SOL    HW234054   0.568   0.476   8.430
77408SOL     OW34055  13.389   5.396  12.468
77408SOL    HW134056  13.358   5.430  12.384
77408SOL    HW234057  13.318   5.340  12.499
77409SOL     OW34058   7.745   2.444  12.660
77409SOL    HW134059   7.825   2.454  12.608
77409SOL    HW234060   7.724   2.351  12.654
77410SOL     OW34061   5.157   9.760  12.398
77410SOL    HW134062   5.151   9.845  12.355
77410SOL    HW234063   5.210   9.707  12.339
77411SOL     OW34064   0.506  11.952   8.090
77411SOL    HW134065   0.438  12.018   8.102
77411SOL    HW234066   0.553  11.978   8.011
77412SOL     OW34067   4.719   8.312  10.070
77412SOL    HW134068   4.648   8.367  10.036
77412SOL    HW234069   4.733   8.343  10.159
77413SOL     OW34070   3.987  13.399   9.464
77413SOL    HW134071   3.903  13.405   9.509
77413SOL    HW234072   4.048  13.370   9.532
77414SOL     OW34073   2.883   4.585   5.441
77414SOL    HW134074   2.825   4.559   5.513
77414SOL    HW234075   2.959   4.625   5.485
77415SOL     OW34076   4.895   7.895  12.796
77415SOL    HW134077   4.904   7.990  12.793
77415SOL    HW234078   4.873   7.876  12.888
77416SOL     OW34079   1.990  10.810   8.415
77416SOL    HW134080   2.086  10.802   8.414
77416SOL    HW234081   1.960  10.739   8.359
77417SOL     OW34082   9.353   0.766   8.754
77417SOL    HW134083   9.431   0.782   8.807
77417SOL    HW234084   9.368   0.680   8.714
77418SOL     OW34085   9.703  10.278  14.567
77418SOL    HW134086   9.635  10.213  14.583
77418SOL    HW234087   9.658  10.362  14.579
77419SOL     OW34088   4.264  10.095   8.917
77419SOL    HW134089   4.251  10.145   8.836
77419SOL    HW234090   4.341  10.135   8.958
77420SOL     OW34091   9.857   8.655   4.781
77420SOL    HW134092   9.906   8.651   4.863
77420SOL    HW234093   9.783   8.713   4.800
77421SOL     OW34094   0.755   9.418   1.578
77421SOL    HW134095   0.843   9.407   1.541
77421SOL    HW234096   0.739   9.338   1.627
77422SOL     OW34097   5.403  11.576  12.152
77422SOL    HW134098   5.409  11.579  12.248
77422SOL    HW234099   5.373  11.664  12.127
77423SOL     OW34100   1.274   1.758  11.390
77423SOL    HW134101   1.359   1.799  11.373
77423SOL    HW234102   1.216   1.830  11.410
77424SOL     OW34103   1.562   1.789   8.001
77424SOL    HW134104   1.635   1.840   7.966
77424SOL    HW234105   1.604   1.713   8.042
77425SOL     OW34106   6.460   6.938   1.582
77425SOL    HW134107   6.378   6.888   1.575
77425SOL    HW234108   6.434   7.022   1.620
77426SOL     OW34109  13.173  10.834   3.072
77426SOL    HW134110  13.149  10.743   3.088
77426SOL    HW234111  13.232  10.856   3.144
77427SOL     OW34112   9.794   2.603  10.643
77427SOL    HW134113   9.706   2.606  10.679
77427SOL    HW234114   9.801   2.516  10.603
77428SOL     OW34115   1.206   1.654  14.723
77428SOL    HW134116   1.194   1.707  14.802
77428SOL    HW234117   1.122   1.661  14.678
77429SOL     OW34118  11.113   8.741   6.746
77429SOL    HW134119  11.067   8.802   6.804
77429SOL    HW234120  11.180   8.795   6.703
77430SOL     OW34121   9.829   7.598  10.939
77430SOL    HW134122   9.855   7.525  10.996
77430SOL    HW234123   9.768   7.559  10.877
77431SOL     OW34124  14.003   6.998   8.641
77431SOL    HW134125  13.967   6.924   8.592
77431SOL    HW234126  14.072   6.961   8.695
77432SOL     OW34127   4.722   9.248   5.424
77432SOL    HW134128   4.784   9.235   5.495
77432SOL    HW234129   4.644   9.199   5.450
77433SOL     OW34130   6.254  12.502  13.793
77433SOL    HW134131   6.216  12.557  13.861
77433SOL    HW234132   6.272  12.561  13.720
77434SOL     OW34133   1.291   9.903   8.207
77434SOL    HW134134   1.384   9.918   8.227
77434SOL    HW234135   1.261   9.987   8.170
77435SOL     OW34136   0.536   4.064   5.663
77435SOL    HW134137   0.469   4.015   5.615
77435SOL    HW234138   0.496   4.082   5.748
77436SOL     OW34139   7.475   3.891   1.044
77436SOL    HW134140   7.520   3.897   0.959
77436SOL    HW234141   7.421   3.970   1.048
77437SOL     OW34142  14.732  14.190   0.386
77437SOL    HW134143  14.658  14.141   0.419
77437SOL    HW234144  14.807  14.133   0.399
77438SOL     OW34145   5.285   5.596   8.352
77438SOL    HW134146   5.202   5.569   8.391
77438SOL    HW234147   5.289   5.548   8.269
77439SOL     OW34148   4.949   4.850   6.896
77439SOL    HW134149   4.867   4.897   6.885
77439SOL    HW234150   4.999   4.871   6.818
77440SOL     OW34151  10.863  13.357  14.728
77440SOL    HW134152  10.833  13.321  14.811
77440SOL    HW234153  10.786  13.404  14.694
77441SOL     OW34154   6.583   7.433   9.085
77441SOL    HW134155   6.655   7.372   9.071
77441SOL    HW234156   6.531   7.394   9.156
77442SOL     OW34157   1.319   2.204   6.191
77442SOL    HW134158   1.244   2.203   6.251
77442SOL    HW234159   1.293   2.146   6.119
77443SOL     OW34160   4.421   8.401   5.859
77443SOL    HW134161   4.485   8.347   5.904
77443SOL    HW234162   4.339   8.353   5.865
77444SOL     OW34163   6.817   4.685   0.162
77444SOL    HW134164   6.897   4.727   0.193
77444SOL    HW234165   6.763   4.675   0.240
77445SOL     OW34166   4.747   7.387   1.604
77445SOL    HW134167   4.703   7.450   1.546
77445SOL    HW234168   4.689   7.311   1.606
77446SOL     OW34169  13.747   8.085  11.938
77446SOL    HW134170  13.823   8.134  11.908
77446SOL    HW234171  13.680   8.102  11.872
77447SOL     OW34172   4.092  11.181  13.486
77447SOL    HW134173   4.100  11.168  13.392
77447SOL    HW234174   4.024  11.248  13.495
77448SOL     OW34175  10.891  12.687   2.383
77448SOL    HW134176  10.839  12.633   2.324
77448SOL    HW234177  10.941  12.624   2.435
77449SOL     OW34178   6.615  11.323   8.214
77449SOL    HW134179   6.625  11.293   8.124
77449SOL    HW234180   6.638  11.247   8.267
77450SOL     OW34181   2.305   4.626  11.053
77450SOL    HW134182   2.326   4.680  11.129
77450SOL    HW234183   2.284   4.688  10.984
77451SOL     OW34184   6.315   8.746   5.144
77451SOL    HW134185   6.368   8.771   5.220
77451SOL    HW234186   6.379   8.719   5.078
77452SOL     OW34187   1.724   8.548  13.627
77452SOL    HW134188   1.650   8.521  13.572
77452SOL    HW234189   1.799   8.547  13.568
77453SOL     OW34190   9.069   0.765  11.201
77453SOL    HW134191   8.991   0.740  11.152
77453SOL    HW234192   9.097   0.685  11.245
77454SOL     OW34193   4.872   8.618  13.360
77454SOL    HW134194   4.959   8.582  13.342
77454SOL    HW234195   4.811   8.550  13.333
77455SOL     OW34196   2.574   1.430  12.220
77455SOL    HW134197   2.530   1.425  12.305
77455SOL    HW234198   2.662   1.396  12.237
77456SOL     OW34199  10.294   8.909   5.355
77456SOL    HW134200  10.348   8.986   5.368
77456SOL    HW234201  10.239   8.904   5.433
77457SOL     OW34202  13.342   1.833  10.091
77457SOL    HW134203  13.315   1.791  10.010
77457SOL    HW234204  13.432   1.805  10.104
77458SOL     OW34205  10.858  12.117   6.076
77458SOL    HW134206  10.856  12.189   6.012
77458SOL    HW234207  10.915  12.051   6.036
77459SOL     OW34208   8.290   0.349   3.601
77459SOL    HW134209   8.355   0.317   3.539
77459SOL    HW234210   8.256   0.429   3.561
77460SOL     OW34211  10.712   7.378   1.625
77460SOL    HW134212  10.657   7.372   1.547
77460SOL    HW234213  10.649   7.393   1.696
77461SOL     OW34214   7.902  10.393   2.735
77461SOL    HW134215   7.905  10.336   2.812
77461SOL    HW234216   7.824  10.364   2.687
77462SOL     OW34217   7.254   9.063   5.911
77462SOL    HW134218   7.201   9.122   5.857
77462SOL    HW234219   7.308   9.122   5.964
77463SOL     OW34220  11.793   3.002   9.342
77463SOL    HW134221  11.728   3.066   9.370
77463SOL    HW234222  11.769   2.981   9.251
77464SOL     OW34223   6.014  10.334   9.374
77464SOL    HW134224   6.099  10.303   9.340
77464SOL    HW234225   6.037  10.391   9.447
77465SOL     OW34226   3.421   0.425   8.787
77465SOL    HW134227   3.452   0.344   8.828
77465SOL    HW234228   3.389   0.397   8.701
77466SOL     OW34229  10.660   8.044   2.466
77466SOL    HW134230  10.655   8.040   2.562
77466SOL    HW234231  10.684   7.955   2.439
77467SOL     OW34232   6.086   1.835  13.365
77467SOL    HW134233   6.017   1.818  13.300
77467SOL    HW234234   6.137   1.754  13.367
77468SOL     OW34235   5.304   6.635   0.308
77468SOL    HW134236   5.335   6.596   0.226
77468SOL    HW234237   5.278   6.724   0.285
77469SOL     OW34238   1.026  11.467  11.386
77469SOL    HW134239   0.990  11.475  11.297
77469SOL    HW234240   0.966  11.408  11.431
77470SOL     OW34241   1.678  14.872   3.152
77470SOL    HW134242   1.655  14.779   3.151
77470SOL    HW234243   1.729   0.013   3.071
77471SOL     OW34244   0.499   2.794   9.593
77471SOL    HW134245   0.551   2.795   9.673
77471SOL    HW234246   0.489   2.886   9.568
77472SOL     OW34247   7.029  11.252  10.483
77472SOL    HW134248   6.950  11.200  10.493
77472SOL    HW234249   7.099  11.187  10.476
77473SOL     OW34250   6.720  11.546  12.905
77473SOL    HW134251   6.722  11.471  12.965
77473SOL    HW234252   6.645  11.597  12.934
77474SOL     OW34253  10.347   8.521  12.277
77474SOL    HW134254  10.298   8.458  12.330
77474SOL    HW234255  10.417   8.551  12.335
77475SOL     OW34256  12.689  11.264  11.534
77475SOL    HW134257  12.742  11.333  11.575
77475SOL    HW234258  12.658  11.303  11.452
77476SOL     OW34259   3.456   5.036   2.934
77476SOL    HW134260   3.466   4.991   2.850
77476SOL    HW234261   3.530   5.097   2.937
77477SOL     OW34262   5.822  10.232   9.620
77477SOL    HW134263   5.856  10.265   9.537
77477SOL    HW234264   5.885  10.165   9.647
77478SOL     OW34265   3.353   6.381  12.928
77478SOL    HW134266   3.288   6.312  12.915
77478SOL    HW234267   3.431   6.350  12.880
77479SOL     OW34268   2.166  11.400   1.208
77479SOL    HW134269   2.260  11.390   1.219
77479SOL    HW234270   2.128  11.359   1.286
77480SOL     OW34271  11.806  13.959   6.862
77480SOL    HW134272  11.772  13.886   6.810
77480SOL    HW234273  11.884  13.923   6.904
77481SOL     OW34274  10.826   1.918   4.331
77481SOL    HW134275  10.764   1.888   4.398
77481SOL    HW234276  10.847   1.839   4.281
77482SOL     OW34277   2.654  14.381  10.390
77482SOL    HW134278   2.657  14.477  10.384
77482SOL    HW234279   2.576  14.356  10.342
77483SOL     OW34280   7.139   7.592   5.987
77483SOL    HW134281   7.058   7.611   6.035
77483SOL    HW234282   7.171   7.677   5.960
77484SOL     OW34283   0.145  13.945   3.709
77484SOL    HW134284   0.177  13.861   3.744
77484SOL    HW234285   0.225  13.992   3.684
77485SOL     OW34286   4.314  13.638   9.262
77485SOL    HW134287   4.223  13.655   9.287
77485SOL    HW234288   4.335  13.555   9.303
77486SOL     OW34289  10.209  12.668  11.465
77486SOL    HW134290  10.168  12.749  11.493
77486SOL    HW234291  10.143  12.625  11.410
77487SOL     OW34292   5.498   5.358   8.734
77487SOL    HW134293   5.483   5.343   8.827
77487SOL    HW234294   5.589   5.330   8.720
77488SOL     OW34295  14.211   3.771  12.102
77488SOL    HW134296  14.304   3.788  12.115
77488SOL    HW234297  14.202   3.759  12.007
77489SOL     OW34298  14.041   6.162  13.254
77489SOL    HW134299  14.056   6.068  13.249
77489SOL    HW234300  14.009   6.186  13.167
77490SOL     OW34301   2.324  10.816  12.212
77490SOL    HW134302   2.309  10.897  12.164
77490SOL    HW234303   2.365  10.757  12.149
77491SOL     OW34304   3.112   3.539   1.841
77491SOL    HW134305   3.047   3.484   1.884
77491SOL    HW234306   3.115   3.618   1.894
77492SOL     OW34307  11.208  11.403   8.187
77492SOL    HW134308  11.141  11.465   8.217
77492SOL    HW234309  11.245  11.444   8.109
77493SOL     OW34310  10.943  14.419   9.221
77493SOL    HW134311  10.996  14.378   9.289
77493SOL    HW234312  11.000  14.421   9.144
77494SOL     OW34313   8.839   5.715   5.341
77494SOL    HW134314   8.760   5.704   5.395
77494SOL    HW234315   8.820   5.669   5.260
77495SOL     OW34316   5.226  11.015  13.852
77495SOL    HW134317   5.262  10.959  13.782
77495SOL    HW234318   5.294  11.080  13.868
77496SOL     OW34319   1.824   2.577   5.593
77496SOL    HW134320   1.730   2.583   5.574
77496SOL    HW234321   1.851   2.494   5.554
77497SOL     OW34322   4.992   5.671   4.756
77497SOL    HW134323   5.043   5.644   4.832
77497SOL    HW234324   4.977   5.591   4.706
77498SOL     OW34325  14.633   9.741  11.195
77498SOL    HW134326  14.651   9.702  11.110
77498SOL    HW234327  14.550   9.786  11.184
77499SOL     OW34328   4.523   6.028   5.384
77499SOL    HW134329   4.554   5.960   5.324
77499SOL    HW234330   4.534   5.989   5.471
77500SOL     OW34331   0.105   7.600   3.028
77500SOL    HW134332   0.087   7.693   3.034
77500SOL    HW234333   0.200   7.593   3.029
77501SOL     OW34334  11.540   7.455  10.988
77501SOL    HW134335  11.475   7.428  10.923
77501SOL    HW234336  11.565   7.543  10.962
77502SOL     OW34337   1.608   6.674   0.108
77502SOL    HW134338   1.685   6.619   0.092
77502SOL    HW234339   1.542   6.613   0.144
77503SOL     OW34340   5.966   9.537   7.845
77503SOL    HW134341   6.012   9.547   7.928
77503SOL    HW234342   6.019   9.475   7.795
77504SOL     OW34343   6.915   5.108   6.797
77504SOL    HW134344   6.894   5.015   6.787
77504SOL    HW234345   7.008   5.110   6.819
77505SOL     OW34346   6.619   4.563   8.330
77505SOL    HW134347   6.638   4.545   8.238
77505SOL    HW234348   6.529   4.597   8.330
77506SOL     OW34349   3.682   2.814   3.026
77506SOL    HW134350   3.660   2.868   3.102
77506SOL    HW234351   3.635   2.855   2.953
77507SOL     OW34352  11.025   3.004   9.209
77507SOL    HW134353  11.102   3.012   9.265
77507SOL    HW234354  10.951   3.021   9.267
77508SOL     OW34355   3.316   9.068   8.310
77508SOL    HW134356   3.352   9.130   8.374
77508SOL    HW234357   3.377   9.072   8.236
77509SOL     OW34358   3.893   4.355  12.713
77509SOL    HW134359   3.806   4.315  12.712
77509SOL    HW234360   3.877   4.447  12.732
77510SOL     OW34361   2.526   7.288  14.532
77510SOL    HW134362   2.530   7.384  14.532
77510SOL    HW234363   2.606   7.261  14.578
77511SOL     OW34364   0.614  10.687   1.724
77511SOL    HW134365   0.695  10.735   1.741
77511SOL    HW234366   0.608  10.624   1.795
77512SOL     OW34367   1.603  11.423   6.357
77512SOL    HW134368   1.607  11.416   6.452
77512SOL    HW234369   1.607  11.333   6.326
77513SOL     OW34370  13.167   9.994   5.334
77513SOL    HW134371  13.142  10.026   5.248
77513SOL    HW234372  13.135  10.061   5.395
77514SOL     OW34373   5.365  12.201   3.687
77514SOL    HW134374   5.420  12.179   3.762
77514SOL    HW234375   5.412  12.271   3.642
77515SOL     OW34376   7.858   5.318   8.824
77515SOL    HW134377   7.904   5.240   8.793
77515SOL    HW234378   7.893   5.389   8.770
77516SOL     OW34379  14.200   3.216   3.725
77516SOL    HW134380  14.120   3.174   3.693
77516SOL    HW234381  14.245   3.147   3.774
77517SOL     OW34382   3.834   6.851   7.272
77517SOL    HW134383   3.806   6.910   7.201
77517SOL    HW234384   3.786   6.770   7.256
77518SOL     OW34385   6.521  13.124   5.755
77518SOL    HW134386   6.579  13.066   5.706
77518SOL    HW234387   6.440  13.126   5.705
77519SOL     OW34388  14.499   9.041   2.543
77519SOL    HW134389  14.488   9.005   2.455
77519SOL    HW234390  14.414   9.027   2.585
77520SOL     OW34391  13.427   0.694  13.401
77520SOL    HW134392  13.422   0.752  13.325
77520SOL    HW234393  13.446   0.753  13.475
77521SOL     OW34394   7.536   4.624   4.992
77521SOL    HW134395   7.488   4.707   4.986
77521SOL    HW234396   7.486   4.564   4.937
77522SOL     OW34397   1.915  14.677   8.855
77522SOL    HW134398   1.903  14.768   8.829
77522SOL    HW234399   2.010  14.667   8.865
77523SOL     OW34400   7.652   2.524   8.202
77523SOL    HW134401   7.629   2.589   8.136
77523SOL    HW234402   7.620   2.441   8.168
77524SOL     OW34403   2.132   3.490   1.272
77524SOL    HW134404   2.207   3.536   1.233
77524SOL    HW234405   2.169   3.446   1.349
77525SOL     OW34406   6.522   9.870   5.807
77525SOL    HW134407   6.428   9.879   5.788
77525SOL    HW234408   6.564   9.937   5.753
77526SOL     OW34409   2.665  14.493   2.263
77526SOL    HW134410   2.590  14.539   2.226
77526SOL    HW234411   2.687  14.544   2.342
77527SOL     OW34412   5.149   2.092   6.052
77527SOL    HW134413   5.152   2.056   5.963
77527SOL    HW234414   5.231   2.139   6.061
77528SOL     OW34415  14.262   4.682  11.219
77528SOL    HW134416  14.304   4.733  11.150
77528SOL    HW234417  14.229   4.747  11.281
77529SOL     OW34418   0.593   7.811   2.681
77529SOL    HW134419   0.683   7.834   2.659
77529SOL    HW234420   0.598   7.720   2.711
77530SOL     OW34421   2.753   2.575  11.950
77530SOL    HW134422   2.772   2.634  11.877
77530SOL    HW234423   2.716   2.632  12.018
77531SOL     OW34424   7.339  10.598   7.124
77531SOL    HW134425   7.399  10.571   7.193
77531SOL    HW234426   7.252  10.580   7.160
77532SOL     OW34427   8.026  12.591   9.259
77532SOL    HW134428   8.017  12.582   9.164
77532SOL    HW234429   8.057  12.680   9.272
77533SOL     OW34430   4.897   3.902  13.117
77533SOL    HW134431   4.893   3.930  13.026
77533SOL    HW234432   4.848   3.819  13.119
77534SOL     OW34433   7.612   5.537  11.844
77534SOL    HW134434   7.590   5.444  11.848
77534SOL    HW234435   7.690   5.546  11.898
77535SOL     OW34436   1.008   0.946   6.938
77535SOL    HW134437   0.965   0.860   6.934
77535SOL    HW234438   1.061   0.949   6.858
77536SOL     OW34439   5.765  12.575   0.075
77536SOL    HW134440   5.791  12.623  14.869
77536SOL    HW234441   5.684  12.618   0.104
77537SOL     OW34442   6.848   8.317  13.227
77537SOL    HW134443   6.753   8.310  13.217
77537SOL    HW234444   6.862   8.307  13.321
77538SOL     OW34445   5.107   2.876  10.725
77538SOL    HW134446   5.172   2.946  10.727
77538SOL    HW234447   5.025   2.920  10.702
77539SOL     OW34448  11.398   6.374   3.714
77539SOL    HW134449  11.362   6.460   3.692
77539SOL    HW234450  11.383   6.322   3.635
77540SOL     OW34451   3.091   5.941  11.325
77540SOL    HW134452   3.146   5.893  11.264
77540SOL    HW234453   3.102   5.895  11.409
77541SOL     OW34454   4.439   9.106   2.001
77541SOL    HW134455   4.493   9.028   1.986
77541SOL    HW234456   4.418   9.102   2.095
77542SOL     OW34457   9.308   9.430   2.832
77542SOL    HW134458   9.245   9.491   2.793
77542SOL    HW234459   9.355   9.394   2.757
77543SOL     OW34460   0.550  12.110   2.426
77543SOL    HW134461   0.509  12.176   2.370
77543SOL    HW234462   0.571  12.156   2.507
77544SOL     OW34463  12.720   6.364   3.917
77544SOL    HW134464  12.704   6.370   3.823
77544SOL    HW234465  12.655   6.301   3.948
77545SOL     OW34466  10.995   0.811  11.826
77545SOL    HW134467  10.905   0.820  11.859
77545SOL    HW234468  11.023   0.725  11.857
77546SOL     OW34469   9.289   1.326   8.248
77546SOL    HW134470   9.375   1.349   8.282
77546SOL    HW234471   9.305   1.295   8.159
77547SOL     OW34472   9.775   5.007   3.747
77547SOL    HW134473   9.728   5.046   3.821
77547SOL    HW234474   9.723   4.931   3.722
77548SOL     OW34475   2.135  13.143   6.155
77548SOL    HW134476   2.144  13.075   6.088
77548SOL    HW234477   2.176  13.105   6.233
77549SOL     OW34478   4.609  10.871   6.185
77549SOL    HW134479   4.641  10.958   6.162
77549SOL    HW234480   4.644  10.814   6.116
77550SOL     OW34481   2.087   0.015  14.633
77550SOL    HW134482   2.022  14.848  14.691
77550SOL    HW234483   2.164   0.028  14.689
77551SOL     OW34484   8.542   9.502  10.191
77551SOL    HW134485   8.475   9.554  10.146
77551SOL    HW234486   8.507   9.490  10.279
77552SOL     OW34487  12.423   1.794   6.620
77552SOL    HW134488  12.443   1.861   6.686
77552SOL    HW234489  12.342   1.824   6.579
77553SOL     OW34490   1.568   5.698  12.404
77553SOL    HW134491   1.545   5.777  12.355
77553SOL    HW234492   1.517   5.629  12.363
77554SOL     OW34493   1.498   3.792  14.814
77554SOL    HW134494   1.407   3.817  14.795
77554SOL    HW234495   1.493   3.699  14.835
77555SOL     OW34496  12.431   4.869   2.928
77555SOL    HW134497  12.366   4.872   2.857
77555SOL    HW234498  12.406   4.793   2.981
77556SOL     OW34499   8.223   6.278  14.795
77556SOL    HW134500   8.160   6.295  14.865
77556SOL    HW234501   8.172   6.283  14.714
77557SOL     OW34502  12.955   0.083   1.718
77557SOL    HW134503  13.001   0.016   1.668
77557SOL    HW234504  12.875   0.100   1.668
77558SOL     OW34505   9.017   7.500  11.562
77558SOL    HW134506   9.105   7.524  11.591
77558SOL    HW234507   8.959   7.534  11.629
77559SOL     OW34508   4.033  10.685   7.049
77559SOL    HW134509   3.942  10.693   7.078
77559SOL    HW234510   4.054  10.592   7.059
77560SOL     OW34511  11.773   8.893  14.773
77560SOL    HW134512  11.727   8.946  14.838
77560SOL    HW234513  11.852   8.943  14.752
77561SOL     OW34514   2.824   3.446   7.363
77561SOL    HW134515   2.886   3.393   7.414
77561SOL    HW234516   2.761   3.478   7.428
77562SOL     OW34517   1.975   3.316  14.126
77562SOL    HW134518   1.942   3.231  14.155
77562SOL    HW234519   2.066   3.318  14.157
77563SOL     OW34520   6.829  13.776   0.447
77563SOL    HW134521   6.891  13.725   0.395
77563SOL    HW234522   6.781  13.828   0.382
77564SOL     OW34523  11.848   1.481   2.345
77564SOL    HW134524  11.895   1.558   2.314
77564SOL    HW234525  11.771   1.475   2.288
77565SOL     OW34526   8.920  14.269   2.902
77565SOL    HW134527   8.826  14.251   2.907
77565SOL    HW234528   8.926  14.364   2.899
77566SOL     OW34529   6.236  12.802   8.456
77566SOL    HW134530   6.326  12.826   8.434
77566SOL    HW234531   6.229  12.709   8.435
77567SOL     OW34532   2.003  14.766   7.297
77567SOL    HW134533   1.938  14.823   7.339
77567SOL    HW234534   2.059  14.826   7.248
77568SOL     OW34535   3.208  11.979   6.731
77568SOL    HW134536   3.172  11.979   6.819
77568SOL    HW234537   3.277  12.046   6.734
77569SOL     OW34538   1.383   1.399   5.180
77569SOL    HW134539   1.396   1.366   5.268
77569SOL    HW234540   1.420   1.331   5.123
77570SOL     OW34541   9.413   5.036   5.789
77570SOL    HW134542   9.460   5.108   5.831
77570SOL    HW234543   9.467   4.959   5.806
77571SOL     OW34544   9.411   4.786  14.565
77571SOL    HW134545   9.318   4.767  14.581
77571SOL    HW234546   9.415   4.882  14.561
77572SOL     OW34547   1.742   3.774   8.463
77572SOL    HW134548   1.691   3.734   8.392
77572SOL    HW234549   1.781   3.700   8.509
77573SOL     OW34550   3.610  10.698   6.623
77573SOL    HW134551   3.649  10.761   6.563
77573SOL    HW234552   3.595  10.620   6.570
77574SOL     OW34553  10.481  11.694   5.827
77574SOL    HW134554  10.473  11.776   5.875
77574SOL    HW234555  10.438  11.711   5.743
77575SOL     OW34556   1.975  11.556   4.321
77575SOL    HW134557   1.959  11.578   4.229
77575SOL    HW234558   1.887  11.544   4.358
77576SOL     OW34559   1.997   4.313   0.873
77576SOL    HW134560   1.943   4.357   0.939
77576SOL    HW234561   1.968   4.222   0.874
77577SOL     OW34562   7.657   6.565   5.795
77577SOL    HW134563   7.705   6.647   5.790
77577SOL    HW234564   7.690   6.522   5.873
77578SOL     OW34565  10.611  14.134  13.549
77578SOL    HW134566  10.610  14.040  13.534
77578SOL    HW234567  10.665  14.169  13.478
77579SOL     OW34568   0.732   5.282  13.390
77579SOL    HW134569   0.684   5.355  13.429
77579SOL    HW234570   0.678   5.255  13.316
77580SOL     OW34571   2.018   1.420   0.298
77580SOL    HW134572   2.083   1.391   0.233
77580SOL    HW234573   2.013   1.348   0.360
77581SOL     OW34574  14.643   5.612   9.499
77581SOL    HW134575  14.703   5.591   9.428
77581SOL    HW234576  14.606   5.528   9.526
77582SOL     OW34577   9.659  11.218   7.268
77582SOL    HW134578   9.580  11.178   7.231
77582SOL    HW234579   9.719  11.225   7.194
77583SOL     OW34580   1.703  13.971   5.267
77583SOL    HW134581   1.614  14.006   5.271
77583SOL    HW234582   1.743  14.018   5.193
77584SOL     OW34583   9.630   4.651   8.659
77584SOL    HW134584   9.616   4.561   8.631
77584SOL    HW234585   9.614   4.649   8.753
77585SOL     OW34586   1.871   6.940  12.936
77585SOL    HW134587   1.964   6.960  12.946
77585SOL    HW234588   1.848   6.888  13.013
77586SOL     OW34589   3.205  10.417   2.388
77586SOL    HW134590   3.151  10.338   2.392
77586SOL    HW234591   3.148  10.483   2.349
77587SOL     OW34592   9.189  12.545   7.933
77587SOL    HW134593   9.279  12.537   7.964
77587SOL    HW234594   9.196  12.538   7.838
77588SOL     OW34595   4.920   9.482   8.689
77588SOL    HW134596   4.989   9.427   8.652
77588SOL    HW234597   4.846   9.470   8.629
77589SOL     OW34598  13.973   6.130   8.555
77589SOL    HW134599  13.905   6.134   8.622
77589SOL    HW234600  14.028   6.207   8.572
77590SOL     OW34601   4.925   9.991   9.784
77590SOL    HW134602   4.858  10.057   9.802
77590SOL    HW234603   4.987  10.035   9.726
77591SOL     OW34604   7.872   5.741   6.928
77591SOL    HW134605   7.882   5.835   6.942
77591SOL    HW234606   7.788   5.720   6.969
77592SOL     OW34607   0.654   2.589  13.008
77592SOL    HW134608   0.576   2.550  12.969
77592SOL    HW234609   0.681   2.656  12.945
77593SOL     OW34610   5.855  13.856   9.593
77593SOL    HW134611   5.853  13.949   9.617
77593SOL    HW234612   5.763  13.830   9.591
77594SOL     OW34613   4.736   4.392  12.252
77594SOL    HW134614   4.751   4.356  12.339
77594SOL    HW234615   4.727   4.486  12.266
77595SOL     OW34616   5.128   2.920   0.600
77595SOL    HW134617   5.152   2.952   0.513
77595SOL    HW234618   5.158   2.988   0.660
77596SOL     OW34619   0.464  14.577   0.294
77596SOL    HW134620   0.483  14.569   0.388
77596SOL    HW234621   0.531  14.638   0.261
77597SOL     OW34622  13.862   9.229   7.819
77597SOL    HW134623  13.942   9.263   7.778
77597SOL    HW234624  13.814   9.306   7.847
77598SOL     OW34625  13.981  10.389   3.964
77598SOL    HW134626  13.995  10.475   4.003
77598SOL    HW234627  13.907  10.401   3.905
77599SOL     OW34628   2.570  14.679   3.177
77599SOL    HW134629   2.583  14.643   3.264
77599SOL    HW234630   2.585  14.604   3.118
77600SOL     OW34631   1.181   1.787   9.005
77600SOL    HW134632   1.241   1.791   9.079
77600SOL    HW234633   1.146   1.698   9.007
77601SOL     OW34634   9.580   3.466   6.382
77601SOL    HW134635   9.614   3.379   6.365
77601SOL    HW234636   9.487   3.454   6.398
77602SOL     OW34637   2.483   8.595  12.283
77602SOL    HW134638   2.418   8.661  12.311
77602SOL    HW234639   2.530   8.638  12.211
77603SOL     OW34640   7.180  11.083  13.421
77603SOL    HW134641   7.123  11.012  13.391
77603SOL    HW234642   7.185  11.071  13.516
77604SOL     OW34643   0.951   1.441   9.724
77604SOL    HW134644   1.025   1.422   9.667
77604SOL    HW234645   0.929   1.533   9.706
77605SOL     OW34646   5.692   0.704   9.683
77605SOL    HW134647   5.679   0.757   9.605
77605SOL    HW234648   5.653   0.755   9.754
77606SOL     OW34649   7.718   3.575  11.379
77606SOL    HW134650   7.805   3.592  11.344
77606SOL    HW234651   7.687   3.499  11.331
77607SOL     OW34652   1.125   2.810  14.385
77607SOL    HW134653   1.096   2.810  14.294
77607SOL    HW234654   1.187   2.737  14.391
77608SOL     OW34655  10.639  11.980   7.304
77608SOL    HW134656  10.630  11.928   7.225
77608SOL    HW234657  10.672  11.919   7.370
77609SOL     OW34658  13.973  12.312   7.952
77609SOL    HW134659  14.020  12.266   8.021
77609SOL    HW234660  13.880  12.298   7.971
77610SOL     OW34661   8.154   3.365  13.026
77610SOL    HW134662   8.229   3.390  12.971
77610SOL    HW234663   8.088   3.335  12.963
77611SOL     OW34664   2.318   7.610  14.810
77611SOL    HW134665   2.264   7.680  14.772
77611SOL    HW234666   2.257   7.537  14.822
77612SOL     OW34667   1.311  11.215  14.689
77612SOL    HW134668   1.375  11.277  14.653
77612SOL    HW234669   1.230  11.267  14.696
77613SOL     OW34670   8.819   3.650   5.280
77613SOL    HW134671   8.810   3.567   5.233
77613SOL    HW234672   8.739   3.699   5.259
77614SOL     OW34673   6.749  11.439  14.852
77614SOL    HW134674   6.666  11.431  14.804
77614SOL    HW234675   6.725  11.423   0.071
77615SOL     OW34676   6.242   0.723  14.525
77615SOL    HW134677   6.275   0.750  14.610
77615SOL    HW234678   6.252   0.801  14.469
77616SOL     OW34679   8.267   3.291  11.433
77616SOL    HW134680   8.319   3.239  11.371
77616SOL    HW234681   8.331   3.338  11.486
77617SOL     OW34682   0.750  10.779   6.511
77617SOL    HW134683   0.821  10.824   6.465
77617SOL    HW234684   0.743  10.825   6.595
77618SOL     OW34685  11.928   7.765  14.813
77618SOL    HW134686  12.023   7.759  14.822
77618SOL    HW234687  11.894   7.721   0.019
77619SOL     OW34688  13.692  12.384   7.755
77619SOL    HW134689  13.683  12.412   7.847
77619SOL    HW234690  13.605  12.397   7.718
77620SOL     OW34691   9.453   2.422   5.570
77620SOL    HW134692   9.432   2.495   5.511
77620SOL    HW234693   9.510   2.462   5.637
77621SOL     OW34694   4.713   4.614   4.358
77621SOL    HW134695   4.627   4.587   4.391
77621SOL    HW234696   4.695   4.652   4.272
77622SOL     OW34697  12.923  13.835  14.144
77622SOL    HW134698  12.839  13.798  14.171
77622SOL    HW234699  12.927  13.920  14.187
77623SOL     OW34700  12.102  13.685   6.588
77623SOL    HW134701  12.096  13.746   6.661
77623SOL    HW234702  12.195  13.686   6.564
77624SOL     OW34703   7.775   2.774   4.740
77624SOL    HW134704   7.802   2.689   4.773
77624SOL    HW234705   7.763   2.828   4.818
77625SOL     OW34706   1.477   4.030  13.571
77625SOL    HW134707   1.491   4.082  13.492
77625SOL    HW234708   1.424   4.085  13.628
77626SOL     OW34709   0.570  11.798   6.607
77626SOL    HW134710   0.488  11.760   6.639
77626SOL    HW234711   0.593  11.864   6.673
77627SOL     OW34712  14.727   1.167  12.901
77627SOL    HW134713  14.645   1.180  12.949
77627SOL    HW234714  14.701   1.167  12.808
77628SOL     OW34715  10.507   3.358  12.772
77628SOL    HW134716  10.518   3.298  12.846
77628SOL    HW234717  10.434   3.321  12.722
77629SOL     OW34718   3.460  11.542   1.575
77629SOL    HW134719   3.488  11.574   1.489
77629SOL    HW234720   3.510  11.461   1.588
77630SOL     OW34721   5.021  14.408   3.678
77630SOL    HW134722   4.995  14.485   3.628
77630SOL    HW234723   5.115  14.398   3.659
77631SOL     OW34724  12.228  12.949   8.704
77631SOL    HW134725  12.199  12.870   8.658
77631SOL    HW234726  12.309  12.923   8.747
77632SOL     OW34727   5.088   5.729  10.544
77632SOL    HW134728   5.084   5.670  10.469
77632SOL    HW234729   5.071   5.673  10.620
77633SOL     OW34730   9.028   1.260  13.559
77633SOL    HW134731   9.081   1.188  13.527
77633SOL    HW234732   9.045   1.331  13.498
77634SOL     OW34733   1.433  14.042   4.823
77634SOL    HW134734   1.442  14.108   4.754
77634SOL    HW234735   1.339  14.039   4.842
77635SOL     OW34736   7.616   2.867   8.982
77635SOL    HW134737   7.700   2.823   8.996
77635SOL    HW234738   7.608   2.875   8.887
77636SOL     OW34739   2.536  11.780   1.462
77636SOL    HW134740   2.461  11.826   1.422
77636SOL    HW234741   2.546  11.821   1.547
77637SOL     OW34742   3.088  11.819  12.607
77637SOL    HW134743   3.163  11.836  12.550
77637SOL    HW234744   3.015  11.866  12.567
77638SOL     OW34745  13.141   1.683   6.711
77638SOL    HW134746  13.058   1.660   6.753
77638SOL    HW234747  13.140   1.633   6.629
77639SOL     OW34748   7.605   9.711   9.574
77639SOL    HW134749   7.551   9.733   9.498
77639SOL    HW234750   7.619   9.794   9.619
77640SOL     OW34751   2.157   9.088   5.513
77640SOL    HW134752   2.205   9.041   5.445
77640SOL    HW234753   2.205   9.171   5.522
77641SOL     OW34754   7.320  14.748   8.604
77641SOL    HW134755   7.239  14.716   8.563
77641SOL    HW234756   7.291  14.819   8.661
77642SOL     OW34757  11.447   7.964   8.870
77642SOL    HW134758  11.359   7.975   8.835
77642SOL    HW234759  11.459   7.869   8.874
77643SOL     OW34760   7.164   5.904  13.749
77643SOL    HW134761   7.219   5.880  13.823
77643SOL    HW234762   7.075   5.896  13.781
77644SOL     OW34763  13.280  12.314   9.283
77644SOL    HW134764  13.360  12.285   9.237
77644SOL    HW234765  13.234  12.367   9.218
77645SOL     OW34766   6.353  13.413   8.366
77645SOL    HW134767   6.438  13.444   8.335
77645SOL    HW234768   6.327  13.346   8.303
77646SOL     OW34769   6.964   8.285  10.451
77646SOL    HW134770   7.039   8.263  10.396
77646SOL    HW234771   7.001   8.336  10.523
77647SOL     OW34772  10.361   5.798   2.379
77647SOL    HW134773  10.412   5.876   2.399
77647SOL    HW234774  10.368   5.788   2.284
77648SOL     OW34775   0.959   2.687  12.972
77648SOL    HW134776   0.945   2.593  12.971
77648SOL    HW234777   0.893   2.721  13.032
77649SOL     OW34778   6.206   6.341   1.925
77649SOL    HW134779   6.148   6.389   1.867
77649SOL    HW234780   6.261   6.289   1.866
77650SOL     OW34781  10.952   7.092   4.518
77650SOL    HW134782  11.043   7.112   4.497
77650SOL    HW234783  10.957   7.034   4.594
77651SOL     OW34784   6.774   0.487   8.153
77651SOL    HW134785   6.734   0.541   8.221
77651SOL    HW234786   6.825   0.548   8.100
77652SOL     OW34787   4.708   6.395   1.421
77652SOL    HW134788   4.632   6.453   1.429
77652SOL    HW234789   4.770   6.444   1.367
77653SOL     OW34790   4.571   5.613   9.885
77653SOL    HW134791   4.642   5.585   9.943
77653SOL    HW234792   4.573   5.708   9.888
77654SOL     OW34793   0.614   4.234  13.260
77654SOL    HW134794   0.705   4.228  13.289
77654SOL    HW234795   0.564   4.191  13.329
77655SOL     OW34796   2.038   1.369   1.995
77655SOL    HW134797   2.023   1.463   2.003
77655SOL    HW234798   2.088   1.346   2.073
77656SOL     OW34799   8.830   8.011   4.566
77656SOL    HW134800   8.904   7.959   4.598
77656SOL    HW234801   8.753   7.958   4.587
77657SOL     OW34802  11.223   2.925   6.130
77657SOL    HW134803  11.175   2.849   6.098
77657SOL    HW234804  11.163   2.968   6.191
77658SOL     OW34805   3.741   6.635   6.462
77658SOL    HW134806   3.832   6.607   6.453
77658SOL    HW234807   3.715   6.661   6.373
77659SOL     OW34808   6.723   0.230  10.415
77659SOL    HW134809   6.765   0.157  10.369
77659SOL    HW234810   6.788   0.258  10.479
77660SOL     OW34811   9.588   2.822  12.384
77660SOL    HW134812   9.568   2.761  12.455
77660SOL    HW234813   9.683   2.812  12.370
77661SOL     OW34814   1.715  11.751   9.782
77661SOL    HW134815   1.639  11.692   9.777
77661SOL    HW234816   1.736  11.755   9.875
77662SOL     OW34817   8.890   6.248   1.975
77662SOL    HW134818   8.810   6.298   1.986
77662SOL    HW234819   8.875   6.167   2.022
77663SOL     OW34820   1.703   7.344   6.509
77663SOL    HW134821   1.618   7.365   6.548
77663SOL    HW234822   1.701   7.385   6.423
77664SOL     OW34823   7.429   6.761  11.806
77664SOL    HW134824   7.348   6.711  11.801
77664SOL    HW234825   7.452   6.760  11.899
77665SOL     OW34826   3.766   4.062   4.325
77665SOL    HW134827   3.810   4.040   4.407
77665SOL    HW234828   3.832   4.046   4.258
77666SOL     OW34829  14.762  11.567   9.378
77666SOL    HW134830  14.848  11.601   9.352
77666SOL    HW234831  14.713  11.562   9.296
77667SOL     OW34832   4.586  10.322   7.266
77667SOL    HW134833   4.600  10.241   7.216
77667SOL    HW234834   4.668  10.370   7.256
77668SOL     OW34835   7.397   1.587   6.411
77668SOL    HW134836   7.433   1.632   6.488
77668SOL    HW234837   7.419   1.495   6.425
77669SOL     OW34838   3.834   9.941  14.310
77669SOL    HW134839   3.839   9.915  14.218
77669SOL    HW234840   3.777  10.018  14.310
77670SOL     OW34841   5.271   7.067  11.029
77670SOL    HW134842   5.301   7.041  10.943
77670SOL    HW234843   5.191   7.017  11.043
77671SOL     OW34844   7.040  10.988   2.059
77671SOL    HW134845   6.976  11.047   2.099
77671SOL    HW234846   7.088  11.043   1.997
77672SOL     OW34847   7.605  10.520   5.612
77672SOL    HW134848   7.539  10.485   5.552
77672SOL    HW234849   7.619  10.450   5.676
77673SOL     OW34850   7.302  10.945   4.062
77673SOL    HW134851   7.213  10.976   4.048
77673SOL    HW234852   7.356  11.025   4.059
77674SOL     OW34853   8.374  12.039   7.941
77674SOL    HW134854   8.318  11.972   7.980
77674SOL    HW234855   8.437  11.989   7.889
77675SOL     OW34856   0.722  13.250  11.719
77675SOL    HW134857   0.798  13.192  11.728
77675SOL    HW234858   0.683  13.226  11.634
77676SOL     OW34859   1.350   3.983  11.964
77676SOL    HW134860   1.320   3.922  12.031
77676SOL    HW234861   1.445   3.982  11.972
77677SOL     OW34862   0.883   5.097   6.771
77677SOL    HW134863   0.794   5.132   6.759
77677SOL    HW234864   0.871   5.002   6.770
77678SOL     OW34865   4.620  10.488   3.382
77678SOL    HW134866   4.527  10.469   3.391
77678SOL    HW234867   4.638  10.476   3.288
77679SOL     OW34868   7.442   3.944   4.960
77679SOL    HW134869   7.407   3.981   4.879
77679SOL    HW234870   7.365   3.932   5.016
77680SOL     OW34871   6.374   1.156  14.617
77680SOL    HW134872   6.305   1.219  14.638
77680SOL    HW234873   6.447   1.182  14.673
77681SOL     OW34874  14.588  14.375   8.726
77681SOL    HW134875  14.610  14.466   8.746
77681SOL    HW234876  14.672  14.332   8.713
77682SOL     OW34877   1.186  10.648  10.142
77682SOL    HW134878   1.184  10.709  10.216
77682SOL    HW234879   1.187  10.704  10.064
77683SOL     OW34880  10.607  12.969   0.307
77683SOL    HW134881  10.577  13.058   0.287
77683SOL    HW234882  10.593  12.921   0.225
77684SOL     OW34883   3.269   1.983   9.187
77684SOL    HW134884   3.277   2.076   9.205
77684SOL    HW234885   3.284   1.975   9.092
77685SOL     OW34886   0.963   1.557  12.506
77685SOL    HW134887   1.022   1.581  12.577
77685SOL    HW234888   1.021   1.523  12.437
77686SOL     OW34889   9.928   7.630   0.824
77686SOL    HW134890   9.971   7.714   0.808
77686SOL    HW234891   9.861   7.624   0.755
77687SOL     OW34892   8.948   7.128  13.703
77687SOL    HW134893   8.985   7.199  13.651
77687SOL    HW234894   8.940   7.055  13.641
77688SOL     OW34895   3.516  12.139   0.707
77688SOL    HW134896   3.600  12.137   0.661
77688SOL    HW234897   3.529  12.203   0.777
77689SOL     OW34898   5.636  12.490   4.615
77689SOL    HW134899   5.685  12.552   4.669
77689SOL    HW234900   5.566  12.542   4.575
77690SOL     OW34901   8.512   0.405   8.589
77690SOL    HW134902   8.419   0.385   8.579
77690SOL    HW234903   8.553   0.321   8.610
77691SOL     OW34904   8.970  12.665  12.989
77691SOL    HW134905   9.030  12.698  12.922
77691SOL    HW234906   8.959  12.572  12.969
77692SOL     OW34907  12.792   3.849   0.848
77692SOL    HW134908  12.816   3.781   0.786
77692SOL    HW234909  12.856   3.841   0.919
77693SOL     OW34910   5.850  14.236   8.965
77693SOL    HW134911   5.785  14.290   8.919
77693SOL    HW234912   5.909  14.299   9.005
77694SOL     OW34913   1.501  14.240   0.682
77694SOL    HW134914   1.432  14.173   0.678
77694SOL    HW234915   1.453  14.321   0.697
77695SOL     OW34916   7.288   8.524   2.882
77695SOL    HW134917   7.286   8.578   2.803
77695SOL    HW234918   7.373   8.480   2.879
77696SOL     OW34919  12.304  13.817  10.751
77696SOL    HW134920  12.249  13.741  10.770
77696SOL    HW234921  12.286  13.837  10.659
77697SOL     OW34922   4.420   9.983   4.367
77697SOL    HW134923   4.439   9.970   4.460
77697SOL    HW234924   4.503  10.012   4.329
77698SOL     OW34925  14.024   7.703  13.499
77698SOL    HW134926  13.931   7.723  13.501
77698SOL    HW234927  14.061   7.764  13.435
77699SOL     OW34928  11.806   8.083   6.454
77699SOL    HW134929  11.899   8.071   6.469
77699SOL    HW234930  11.778   8.143   6.524
77700SOL     OW34931  13.308  12.864  10.769
77700SOL    HW134932  13.314  12.879  10.675
77700SOL    HW234933  13.386  12.905  10.805
77701SOL     OW34934  10.706   5.509  13.893
77701SOL    HW134935  10.682   5.418  13.912
77701SOL    HW234936  10.706   5.514  13.797
77702SOL     OW34937   7.397   1.557  14.550
77702SOL    HW134938   7.399   1.537  14.644
77702SOL    HW234939   7.335   1.629  14.542
77703SOL     OW34940   0.712   8.933   4.947
77703SOL    HW134941   0.721   9.002   4.880
77703SOL    HW234942   0.619   8.912   4.946
77704SOL     OW34943   4.804  11.049   8.111
77704SOL    HW134944   4.846  11.129   8.080
77704SOL    HW234945   4.835  11.039   8.201
77705SOL     OW34946   7.582   9.412  14.209
77705SOL    HW134947   7.557   9.504  14.205
77705SOL    HW234948   7.677   9.413  14.220
77706SOL     OW34949   8.949   7.302   2.977
77706SOL    HW134950   9.032   7.255   2.968
77706SOL    HW234951   8.907   7.262   3.053
77707SOL     OW34952  14.336   9.900   0.299
77707SOL    HW134953  14.303   9.849   0.226
77707SOL    HW234954  14.302   9.988   0.285
77708SOL     OW34955   5.939   9.285   0.084
77708SOL    HW134956   5.865   9.284   0.144
77708SOL    HW234957   5.950   9.378   0.061
77709SOL     OW34958  10.508   8.846  13.493
77709SOL    HW134959  10.482   8.814  13.580
77709SOL    HW234960  10.587   8.898  13.509
77710SOL     OW34961   2.102   5.378   6.883
77710SOL    HW134962   2.178   5.436   6.886
77710SOL    HW234963   2.112   5.321   6.959
77711SOL     OW34964   4.689  14.034   0.056
77711SOL    HW134965   4.713  13.969   0.123
77711SOL    HW234966   4.723  14.117   0.090
77712SOL     OW34967   3.471  12.011   3.803
77712SOL    HW134968   3.548  12.068   3.802
77712SOL    HW234969   3.401  12.067   3.837
77713SOL     OW34970  12.716   1.034   7.784
77713SOL    HW134971  12.680   1.092   7.718
77713SOL    HW234972  12.652   1.037   7.856
77714SOL     OW34973   3.565   4.436   6.161
77714SOL    HW134974   3.478   4.469   6.182
77714SOL    HW234975   3.611   4.511   6.123
77715SOL     OW34976  14.346  11.930   2.583
77715SOL    HW134977  14.346  11.834   2.586
77715SOL    HW234978  14.269  11.952   2.530
77716SOL     OW34979  10.605  11.256   8.680
77716SOL    HW134980  10.569  11.188   8.622
77716SOL    HW234981  10.530  11.288   8.729
77717SOL     OW34982   3.441   2.639   1.077
77717SOL    HW134983   3.396   2.642   0.992
77717SOL    HW234984   3.442   2.546   1.100
77718SOL     OW34985  13.135   9.114  13.874
77718SOL    HW134986  13.068   9.061  13.829
77718SOL    HW234987  13.160   9.061  13.950
77719SOL     OW34988   0.126   0.988   9.701
77719SOL    HW134989   0.158   1.054   9.640
77719SOL    HW234990   0.050   1.028   9.742
77720SOL     OW34991   3.453  11.461   4.629
77720SOL    HW134992   3.444  11.366   4.626
77720SOL    HW234993   3.545  11.476   4.651
77721SOL     OW34994   8.961   1.792   6.536
77721SOL    HW134995   8.965   1.756   6.447
77721SOL    HW234996   8.901   1.866   6.528
77722SOL     OW34997  10.838  11.201   9.420
77722SOL    HW134998  10.746  11.187   9.441
77722SOL    HW234999  10.871  11.253   9.493
77723SOL     OW35000   1.154   8.906   0.037
77723SOL    HW135001   1.062   8.881   0.031
77723SOL    HW235002   1.160   8.956   0.118
77724SOL     OW35003   1.630  11.318   3.020
77724SOL    HW135004   1.693  11.257   2.980
77724SOL    HW235005   1.556  11.319   2.960
77725SOL     OW35006  14.375   2.119  10.294
77725SOL    HW135007  14.340   2.202  10.260
77725SOL    HW235008  14.300   2.077  10.335
77726SOL     OW35009   0.806  10.718   7.379
77726SOL    HW135010   0.836  10.808   7.390
77726SOL    HW235011   0.778  10.712   7.288
77727SOL     OW35012  14.385  11.351   7.359
77727SOL    HW135013  14.370  11.265   7.399
77727SOL    HW235014  14.347  11.343   7.272
77728SOL     OW35015   4.884  10.049   8.765
77728SOL    HW135016   4.908  10.139   8.743
77728SOL    HW235017   4.965   9.999   8.755
77729SOL     OW35018   1.675  12.337  12.885
77729SOL    HW135019   1.734  12.412  12.875
77729SOL    HW235020   1.597  12.362  12.836
77730SOL     OW35021  11.089  11.064  12.652
77730SOL    HW135022  11.155  11.104  12.595
77730SOL    HW235023  11.134  11.053  12.736
77731SOL     OW35024   9.259   4.562   2.482
77731SOL    HW135025   9.216   4.592   2.402
77731SOL    HW235026   9.349   4.542   2.455
77732SOL     OW35027   7.755  12.197   2.944
77732SOL    HW135028   7.727  12.283   2.911
77732SOL    HW235029   7.755  12.207   3.039
77733SOL     OW35030   3.149   4.054   5.441
77733SOL    HW135031   3.131   3.990   5.510
77733SOL    HW235032   3.100   4.132   5.466
77734SOL     OW35033   4.512  10.292  10.869
77734SOL    HW135034   4.572  10.244  10.812
77734SOL    HW235035   4.567  10.325  10.940
77735SOL     OW35036  12.607   2.256  11.993
77735SOL    HW135037  12.579   2.230  11.905
77735SOL    HW235038  12.556   2.335  12.012
77736SOL     OW35039   0.642  12.708  12.380
77736SOL    HW135040   0.633  12.801  12.402
77736SOL    HW235041   0.684  12.669  12.457
77737SOL     OW35042   8.132   2.436   7.727
77737SOL    HW135043   8.204   2.375   7.714
77737SOL    HW235044   8.059   2.382   7.755
77738SOL     OW35045   8.526   9.017   9.100
77738SOL    HW135046   8.549   8.935   9.145
77738SOL    HW235047   8.605   9.039   9.050
77739SOL     OW35048  10.798   6.055  10.927
77739SOL    HW135049  10.814   5.971  10.883
77739SOL    HW235050  10.823   6.039  11.018
77740SOL     OW35051  10.674   8.576   7.036
77740SOL    HW135052  10.614   8.531   7.095
77740SOL    HW235053  10.747   8.515   7.025
77741SOL     OW35054  14.469   7.108   4.440
77741SOL    HW135055  14.542   7.057   4.477
77741SOL    HW235056  14.459   7.182   4.500
77742SOL     OW35057   5.783   5.528  10.206
77742SOL    HW135058   5.740   5.600  10.160
77742SOL    HW235059   5.833   5.483  10.138
77743SOL     OW35060   3.921  12.633   3.764
77743SOL    HW135061   3.836  12.636   3.721
77743SOL    HW235062   3.901  12.640   3.858
77744SOL     OW35063   6.462  14.180   5.559
77744SOL    HW135064   6.475  14.213   5.649
77744SOL    HW235065   6.449  14.086   5.569
77745SOL     OW35066   9.076   5.831   5.273
77745SOL    HW135067   8.993   5.785   5.285
77745SOL    HW235068   9.121   5.781   5.204
77746SOL     OW35069  13.224   2.879   8.235
77746SOL    HW135070  13.264   2.826   8.166
77746SOL    HW235071  13.249   2.834   8.316
77747SOL     OW35072  14.298   8.580   1.253
77747SOL    HW135073  14.285   8.604   1.162
77747SOL    HW235074  14.371   8.634   1.283
77748SOL     OW35075  12.548  12.163   4.777
77748SOL    HW135076  12.612  12.190   4.843
77748SOL    HW235077  12.467  12.206   4.803
77749SOL     OW35078   1.810   5.324   5.958
77749SOL    HW135079   1.760   5.341   6.038
77749SOL    HW235080   1.755   5.263   5.909
77750SOL     OW35081  14.868   2.305  13.143
77750SOL    HW135082  14.813   2.353  13.205
77750SOL    HW235083   0.080   2.351  13.146
77751SOL     OW35084   8.295  11.627  11.070
77751SOL    HW135085   8.210  11.596  11.036
77751SOL    HW235086   8.329  11.553  11.120
77752SOL     OW35087   6.644  10.908   5.420
77752SOL    HW135088   6.552  10.899   5.396
77752SOL    HW235089   6.649  10.870   5.508
77753SOL     OW35090  11.145  11.181  13.446
77753SOL    HW135091  11.110  11.222  13.526
77753SOL    HW235092  11.240  11.190  13.454
77754SOL     OW35093   8.909   5.321  12.474
77754SOL    HW135094   8.953   5.263  12.413
77754SOL    HW235095   8.863   5.384  12.418
77755SOL     OW35096   5.735   1.272   4.223
77755SOL    HW135097   5.804   1.276   4.289
77755SOL    HW235098   5.778   1.242   4.143
77756SOL     OW35099   9.256   0.827   4.850
77756SOL    HW135100   9.293   0.791   4.931
77756SOL    HW235101   9.318   0.800   4.782
77757SOL     OW35102   6.275   6.304  10.571
77757SOL    HW135103   6.278   6.307  10.475
77757SOL    HW235104   6.257   6.212  10.591
77758SOL     OW35105  10.634   5.509   5.926
77758SOL    HW135106  10.675   5.497   5.841
77758SOL    HW235107  10.662   5.597   5.954
77759SOL     OW35108   9.888   2.085   5.480
77759SOL    HW135109   9.902   2.180   5.482
77759SOL    HW235110   9.955   2.050   5.539
77760SOL     OW35111  13.995   9.636   6.727
77760SOL    HW135112  13.905   9.652   6.756
77760SOL    HW235113  14.049   9.668   6.800
77761SOL     OW35114  14.633   6.743   4.623
77761SOL    HW135115  14.635   6.650   4.602
77761SOL    HW235116  14.724   6.765   4.645
77762SOL     OW35117   4.208   6.396   8.485
77762SOL    HW135118   4.118   6.364   8.489
77762SOL    HW235119   4.216   6.434   8.397
77763SOL     OW35120   7.090   1.542  13.202
77763SOL    HW135121   7.185   1.544  13.194
77763SOL    HW235122   7.071   1.601  13.275
77764SOL     OW35123   4.261   1.490   6.794
77764SOL    HW135124   4.353   1.469   6.804
77764SOL    HW235125   4.218   1.444   6.866
77765SOL     OW35126   8.834   7.039   2.900
77765SOL    HW135127   8.829   6.963   2.842
77765SOL    HW235128   8.766   7.025   2.966
77766SOL     OW35129   8.823   6.120   3.790
77766SOL    HW135130   8.773   6.056   3.840
77766SOL    HW235131   8.892   6.069   3.748
77767SOL     OW35132   4.850  11.633   7.303
77767SOL    HW135133   4.809  11.572   7.365
77767SOL    HW235134   4.806  11.716   7.320
77768SOL     OW35135   2.714  10.491  11.412
77768SOL    HW135136   2.623  10.467  11.398
77768SOL    HW235137   2.744  10.523  11.327
77769SOL     OW35138  10.243   9.661   6.082
77769SOL    HW135139  10.160   9.703   6.105
77769SOL    HW235140  10.310   9.715   6.125
77770SOL     OW35141  14.555   8.392   4.905
77770SOL    HW135142  14.507   8.372   4.986
77770SOL    HW235143  14.543   8.314   4.851
77771SOL     OW35144   9.801   8.571   9.524
77771SOL    HW135145   9.759   8.596   9.441
77771SOL    HW235146   9.852   8.493   9.502
77772SOL     OW35147   9.835   4.005   8.473
77772SOL    HW135148   9.856   3.948   8.547
77772SOL    HW235149   9.841   3.949   8.396
77773SOL     OW35150  10.524   5.081   6.832
77773SOL    HW135151  10.497   5.163   6.791
77773SOL    HW235152  10.603   5.104   6.881
77774SOL     OW35153  13.025  12.122   7.666
77774SOL    HW135154  12.962  12.083   7.726
77774SOL    HW235155  13.108  12.121   7.714
77775SOL     OW35156   8.865  14.267  13.621
77775SOL    HW135157   8.845  14.254  13.529
77775SOL    HW235158   8.796  14.219  13.668
77776SOL     OW35159  13.454  10.716  13.251
77776SOL    HW135160  13.477  10.805  13.277
77776SOL    HW235161  13.504  10.700  13.171
77777SOL     OW35162   9.954   3.786   1.319
77777SOL    HW135163  10.007   3.866   1.326
77777SOL    HW235164  10.017   3.716   1.302
77778SOL     OW35165   3.656   5.501   2.868
77778SOL    HW135166   3.738   5.489   2.820
77778SOL    HW235167   3.589   5.506   2.800
77779SOL     OW35168  11.790   7.424  11.745
77779SOL    HW135169  11.824   7.496  11.797
77779SOL    HW235170  11.754   7.362  11.809
77780SOL     OW35171   1.690  13.680   0.943
77780SOL    HW135172   1.780  13.712   0.938
77780SOL    HW235173   1.648  13.713   0.864
77781SOL     OW35174  14.187  14.786   4.439
77781SOL    HW135175  14.135  14.845   4.494
77781SOL    HW235176  14.148  14.793   4.352
77782SOL     OW35177   2.024   7.992   3.625
77782SOL    HW135178   2.119   7.996   3.634
77782SOL    HW235179   1.997   7.922   3.684
77783SOL     OW35180   8.949  10.641  14.328
77783SOL    HW135181   8.877  10.629  14.265
77783SOL    HW235182   8.950  10.735  14.346
77784SOL     OW35183   6.962  11.876   5.395
77784SOL    HW135184   6.917  11.868   5.479
77784SOL    HW235185   6.913  11.819   5.335
77785SOL     OW35186   1.068   0.518  13.105
77785SOL    HW135187   1.135   0.461  13.144
77785SOL    HW235188   1.046   0.475  13.022
77786SOL     OW35189   1.690   0.259   6.957
77786SOL    HW135190   1.752   0.220   6.896
77786SOL    HW235191   1.630   0.188   6.980
77787SOL     OW35192   9.779   3.035   7.315
77787SOL    HW135193   9.739   2.953   7.344
77787SOL    HW235194   9.830   3.065   7.390
77788SOL     OW35195   9.751  10.381   3.750
77788SOL    HW135196   9.712  10.411   3.832
77788SOL    HW235197   9.834  10.428   3.744
77789SOL     OW35198   7.722  11.292  11.047
77789SOL    HW135199   7.757  11.291  11.136
77789SOL    HW235200   7.654  11.224  11.047
77790SOL     OW35201   4.213   4.585   6.528
77790SOL    HW135202   4.218   4.654   6.594
77790SOL    HW235203   4.261   4.511   6.566
77791SOL     OW35204   1.899   4.534   1.017
77791SOL    HW135205   1.877   4.610   1.071
77791SOL    HW235206   1.968   4.565   0.958
77792SOL     OW35207   3.299   3.833   2.809
77792SOL    HW135208   3.344   3.754   2.840
77792SOL    HW235209   3.283   3.884   2.888
77793SOL     OW35210   9.031   5.613   7.729
77793SOL    HW135211   9.123   5.592   7.742
77793SOL    HW235212   8.993   5.612   7.818
77794SOL     OW35213   1.657  10.314  11.118
77794SOL    HW135214   1.685  10.352  11.034
77794SOL    HW235215   1.602  10.381  11.158
77795SOL     OW35216   6.519   0.229   5.830
77795SOL    HW135217   6.529   0.308   5.883
77795SOL    HW235218   6.456   0.176   5.878
77796SOL     OW35219  10.042   5.755  12.988
77796SOL    HW135220  10.103   5.774  12.916
77796SOL    HW235221   9.988   5.684  12.955
77797SOL     OW35222   2.828  12.725   3.646
77797SOL    HW135223   2.858  12.805   3.602
77797SOL    HW235224   2.895  12.708   3.713
77798SOL     OW35225   8.379   4.169   5.833
77798SOL    HW135226   8.334   4.253   5.844
77798SOL    HW235227   8.472   4.191   5.836
77799SOL     OW35228   5.629   8.865   8.015
77799SOL    HW135229   5.635   8.812   8.094
77799SOL    HW235230   5.618   8.802   7.944
77800SOL     OW35231   2.944   3.371  12.429
77800SOL    HW135232   2.969   3.464  12.429
77800SOL    HW235233   2.850   3.372  12.445
77801SOL     OW35234  10.061  10.515  12.118
77801SOL    HW135235  10.074  10.421  12.130
77801SOL    HW235236  10.022  10.544  12.201
77802SOL     OW35237   5.949   8.340   2.983
77802SOL    HW135238   5.948   8.434   2.996
77802SOL    HW235239   6.039   8.314   3.001
77803SOL     OW35240  13.482   6.578   3.786
77803SOL    HW135241  13.506   6.502   3.839
77803SOL    HW235242  13.412   6.621   3.835
77804SOL     OW35243  13.472   8.598  12.266
77804SOL    HW135244  13.468   8.564  12.356
77804SOL    HW235245  13.497   8.690  12.276
77805SOL     OW35246   7.725   0.807   6.907
77805SOL    HW135247   7.748   0.744   6.975
77805SOL    HW235248   7.635   0.833   6.928
77806SOL     OW35249   9.022   3.385   5.879
77806SOL    HW135250   8.999   3.379   5.787
77806SOL    HW235251   9.105   3.338   5.886
77807SOL     OW35252   0.097  11.850   7.967
77807SOL    HW135253   0.005  11.857   7.942
77807SOL    HW235254   0.129  11.773   7.919
77808SOL     OW35255  14.402   1.523   0.182
77808SOL    HW135256  14.407   1.535   0.276
77808SOL    HW235257  14.474   1.462   0.162
77809SOL     OW35258  11.255   3.053   9.717
77809SOL    HW135259  11.308   3.086   9.789
77809SOL    HW235260  11.208   2.978   9.755
77810SOL     OW35261   6.894  13.255   2.354
77810SOL    HW135262   6.809  13.212   2.341
77810SOL    HW235263   6.889  13.335   2.300
77811SOL     OW35264  12.561  11.818  13.933
77811SOL    HW135265  12.519  11.762  13.867
77811SOL    HW235266  12.569  11.762  14.010
77812SOL     OW35267   1.437   7.551  10.683
77812SOL    HW135268   1.362   7.502  10.647
77812SOL    HW235269   1.449   7.514  10.770
77813SOL     OW35270   4.063   1.869   5.316
77813SOL    HW135271   4.053   1.906   5.228
77813SOL    HW235272   3.974   1.850   5.344
77814SOL     OW35273   4.103  10.220   2.419
77814SOL    HW135274   4.177  10.210   2.359
77814SOL    HW235275   4.029  10.244   2.363
77815SOL     OW35276   7.859   3.119  14.275
77815SOL    HW135277   7.942   3.136  14.230
77815SOL    HW235278   7.864   3.026  14.299
77816SOL     OW35279   3.742   1.178  12.085
77816SOL    HW135280   3.665   1.208  12.132
77816SOL    HW235281   3.815   1.222  12.128
77817SOL     OW35282  14.264  10.983  12.321
77817SOL    HW135283  14.310  10.988  12.405
77817SOL    HW235284  14.192  10.922  12.336
77818SOL     OW35285  13.014   4.991   9.889
77818SOL    HW135286  13.110   4.996   9.883
77818SOL    HW235287  12.985   4.974   9.800
77819SOL     OW35288   4.749   2.735   8.056
77819SOL    HW135289   4.747   2.679   7.978
77819SOL    HW235290   4.677   2.797   8.043
77820SOL     OW35291   5.697  14.164   3.384
77820SOL    HW135292   5.633  14.183   3.316
77820SOL    HW235293   5.773  14.219   3.362
77821SOL     OW35294   4.256  13.696   1.596
77821SOL    HW135295   4.308  13.720   1.519
77821SOL    HW235296   4.166  13.716   1.572
77822SOL     OW35297   3.804   6.586  14.419
77822SOL    HW135298   3.883   6.532  14.417
77822SOL    HW235299   3.752   6.549  14.490
77823SOL     OW35300   3.936   3.132  10.510
77823SOL    HW135301   3.921   3.227  10.510
77823SOL    HW235302   4.031   3.123  10.523
77824SOL     OW35303   9.524   9.365   0.080
77824SOL    HW135304   9.594   9.310   0.113
77824SOL    HW235305   9.480   9.311   0.014
77825SOL     OW35306  10.433  11.222   0.703
77825SOL    HW135307  10.421  11.290   0.769
77825SOL    HW235308  10.478  11.265   0.631
77826SOL     OW35309   1.166   0.435   8.947
77826SOL    HW135310   1.225   0.445   8.873
77826SOL    HW235311   1.161   0.522   8.986
77827SOL     OW35312  12.843   7.081   9.007
77827SOL    HW135313  12.810   7.134   9.079
77827SOL    HW235314  12.937   7.075   9.022
77828SOL     OW35315   1.667   0.076  11.204
77828SOL    HW135316   1.645   0.141  11.136
77828SOL    HW235317   1.743   0.113  11.249
77829SOL     OW35318   0.874   7.732  12.222
77829SOL    HW135319   0.782   7.718  12.246
77829SOL    HW235320   0.874   7.814  12.172
77830SOL     OW35321  11.667  10.285  11.381
77830SOL    HW135322  11.624  10.204  11.407
77830SOL    HW235323  11.749  10.287  11.430
77831SOL     OW35324  14.862   0.040  13.364
77831SOL    HW135325  14.802  14.847  13.399
77831SOL    HW235326   0.076   0.013  13.396
77832SOL     OW35327   1.304   9.575   1.173
77832SOL    HW135328   1.393   9.549   1.147
77832SOL    HW235329   1.318   9.636   1.246
77833SOL     OW35330   7.011   1.865   7.636
77833SOL    HW135331   6.964   1.845   7.555
77833SOL    HW235332   6.942   1.874   7.702
77834SOL     OW35333   3.996   1.478   7.665
77834SOL    HW135334   4.017   1.567   7.637
77834SOL    HW235335   4.030   1.422   7.596
77835SOL     OW35336  11.430   1.463   0.614
77835SOL    HW135337  11.430   1.520   0.690
77835SOL    HW235338  11.515   1.477   0.573
77836SOL     OW35339   6.201  13.423   3.224
77836SOL    HW135340   6.208  13.375   3.306
77836SOL    HW235341   6.139  13.494   3.243
77837SOL     OW35342  14.301   1.656   7.891
77837SOL    HW135343  14.394   1.656   7.917
77837SOL    HW235344  14.285   1.746   7.863
77838SOL     OW35345  14.712   9.705   0.179
77838SOL    HW135346  14.658   9.718   0.101
77838SOL    HW235347  14.802   9.703   0.146
77839SOL     OW35348  11.529   8.211   2.633
77839SOL    HW135349  11.508   8.233   2.543
77839SOL    HW235350  11.568   8.291   2.669
77840SOL     OW35351   4.848   6.889   4.483
77840SOL    HW135352   4.796   6.846   4.415
77840SOL    HW235353   4.915   6.824   4.507
77841SOL     OW35354   2.108  12.014   0.653
77841SOL    HW135355   2.078  12.032   0.564
77841SOL    HW235356   2.176  12.079   0.668
77842SOL     OW35357   6.399   9.725  11.748
77842SOL    HW135358   6.340   9.801  11.750
77842SOL    HW235359   6.340   9.649  11.740
77843SOL     OW35360   5.735   3.183  13.764
77843SOL    HW135361   5.789   3.167  13.686
77843SOL    HW235362   5.653   3.137  13.746
77844SOL     OW35363   9.664   1.822  11.310
77844SOL    HW135364   9.682   1.841  11.402
77844SOL    HW235365   9.744   1.847  11.264
77845SOL     OW35366   4.149   6.802  11.164
77845SOL    HW135367   4.069   6.786  11.214
77845SOL    HW235368   4.154   6.897  11.155
77846SOL     OW35369   7.438   8.735  14.287
77846SOL    HW135370   7.514   8.706  14.237
77846SOL    HW235371   7.447   8.830  14.292
77847SOL     OW35372  14.247  13.146   8.967
77847SOL    HW135373  14.290  13.106   9.043
77847SOL    HW235374  14.168  13.094   8.955
77848SOL     OW35375  13.415   9.051  14.441
77848SOL    HW135376  13.396   9.029  14.532
77848SOL    HW235377  13.341   9.107  14.415
77849SOL     OW35378  14.454   4.138   2.549
77849SOL    HW135379  14.368   4.143   2.508
77849SOL    HW235380  14.457   4.051   2.589
77850SOL     OW35381  14.143   2.436   6.362
77850SOL    HW135382  14.062   2.473   6.327
77850SOL    HW235383  14.130   2.437   6.457
77851SOL     OW35384   1.305  13.725   5.196
77851SOL    HW135385   1.244  13.667   5.241
77851SOL    HW235386   1.388  13.713   5.242
77852SOL     OW35387  12.881   3.228   4.870
77852SOL    HW135388  12.935   3.170   4.816
77852SOL    HW235389  12.880   3.187   4.956
77853SOL     OW35390  12.823  14.252   8.827
77853SOL    HW135391  12.773  14.328   8.797
77853SOL    HW235392  12.914  14.277   8.816
77854SOL     OW35393   6.876   7.144   2.240
77854SOL    HW135394   6.912   7.074   2.185
77854SOL    HW235395   6.813   7.189   2.184
77855SOL     OW35396  11.772   0.931  13.808
77855SOL    HW135397  11.832   1.000  13.780
77855SOL    HW235398  11.686   0.974  13.810
77856SOL     OW35399  12.756   1.724   8.545
77856SOL    HW135400  12.759   1.762   8.632
77856SOL    HW235401  12.824   1.656   8.546
77857SOL     OW35402  10.867   5.322  10.064
77857SOL    HW135403  10.798   5.334   9.999
77857SOL    HW235404  10.823   5.334  10.148
77858SOL     OW35405  13.275   2.621  12.645
77858SOL    HW135406  13.279   2.715  12.632
77858SOL    HW235407  13.192   2.606  12.692
77859SOL     OW35408   6.461   6.540   4.626
77859SOL    HW135409   6.511   6.581   4.555
77859SOL    HW235410   6.497   6.451   4.631
77860SOL     OW35411  14.793  10.069   4.069
77860SOL    HW135412  14.808   9.978   4.043
77860SOL    HW235413  14.700  10.072   4.093
77861SOL     OW35414   5.151   9.351  13.007
77861SOL    HW135415   5.209   9.404  12.953
77861SOL    HW235416   5.146   9.266  12.963
77862SOL     OW35417  12.610   3.547   6.233
77862SOL    HW135418  12.635   3.632   6.196
77862SOL    HW235419  12.684   3.489   6.212
77863SOL     OW35420   3.287  11.152   0.179
77863SOL    HW135421   3.291  11.137   0.085
77863SOL    HW235422   3.299  11.246   0.189
77864SOL     OW35423   2.646  10.281   0.367
77864SOL    HW135424   2.717  10.304   0.427
77864SOL    HW235425   2.679  10.302   0.280
77865SOL     OW35426  14.124   6.932   3.143
77865SOL    HW135427  14.119   6.843   3.178
77865SOL    HW235428  14.217   6.950   3.135
77866SOL     OW35429   8.393   1.266  14.187
77866SOL    HW135430   8.340   1.341  14.214
77866SOL    HW235431   8.332   1.192  14.192
77867SOL     OW35432  11.946   6.284   5.470
77867SOL    HW135433  11.899   6.262   5.390
77867SOL    HW235434  11.912   6.223   5.535
77868SOL     OW35435   9.229   4.441  10.091
77868SOL    HW135436   9.173   4.399  10.025
77868SOL    HW235437   9.299   4.482  10.040
77869SOL     OW35438  12.303  12.729   3.648
77869SOL    HW135439  12.315  12.775   3.732
77869SOL    HW235440  12.243  12.785   3.598
77870SOL     OW35441  11.114   4.957  13.946
77870SOL    HW135442  11.167   5.024  13.903
77870SOL    HW235443  11.164   4.933  14.024
77871SOL     OW35444  12.497  14.751  12.078
77871SOL    HW135445  12.502  14.685  12.010
77871SOL    HW235446  12.587  14.761  12.110
77872SOL     OW35447   2.297   6.276  11.448
77872SOL    HW135448   2.288   6.363  11.408
77872SOL    HW235449   2.336   6.222  11.379
77873SOL     OW35450   4.562   2.053   4.615
77873SOL    HW135451   4.609   2.018   4.690
77873SOL    HW235452   4.563   2.148   4.627
77874SOL     OW35453   2.117   4.168  11.112
77874SOL    HW135454   2.070   4.151  11.031
77874SOL    HW235455   2.058   4.224  11.163
77875SOL     OW35456   5.870  14.097   4.055
77875SOL    HW135457   5.930  14.172   4.058
77875SOL    HW235458   5.800  14.121   4.115
77876SOL     OW35459   4.185   7.686  10.917
77876SOL    HW135460   4.187   7.780  10.900
77876SOL    HW235461   4.094   7.667  10.941
77877SOL     OW35462  11.778   5.202  14.695
77877SOL    HW135463  11.732   5.131  14.650
77877SOL    HW235464  11.755   5.281  14.645
77878SOL     OW35465   1.376  12.101  11.102
77878SOL    HW135466   1.324  12.069  11.028
77878SOL    HW235467   1.324  12.174  11.138
77879SOL     OW35468   1.832  11.618   3.806
77879SOL    HW135469   1.821  11.528   3.836
77879SOL    HW235470   1.747  11.641   3.768
77880SOL     OW35471   6.670  13.976  13.220
77880SOL    HW135472   6.672  13.917  13.144
77880SOL    HW235473   6.577  13.995  13.232
77881SOL     OW35474  12.593   7.356   3.764
77881SOL    HW135475  12.534   7.316   3.828
77881SOL    HW235476  12.656   7.404   3.818
77882SOL     OW35477   9.856   8.521  11.456
77882SOL    HW135478   9.779   8.502  11.508
77882SOL    HW235479   9.930   8.508  11.516
77883SOL     OW35480   5.853   9.561  14.655
77883SOL    HW135481   5.845   9.625  14.726
77883SOL    HW235482   5.931   9.589  14.606
77884SOL     OW35483   3.543   0.371   1.619
77884SOL    HW135484   3.463   0.423   1.612
77884SOL    HW235485   3.614   0.434   1.607
77885SOL     OW35486   7.013  14.733   1.856
77885SOL    HW135487   6.981  14.667   1.794
77885SOL    HW235488   7.029  14.811   1.802
77886SOL     OW35489   4.160   8.498   8.191
77886SOL    HW135490   4.184   8.588   8.172
77886SOL    HW235491   4.142   8.496   8.285
77887SOL     OW35492  12.139   7.429  11.348
77887SOL    HW135493  12.177   7.352  11.306
77887SOL    HW235494  12.093   7.395  11.425
77888SOL     OW35495   6.752  11.762   4.550
77888SOL    HW135496   6.839  11.773   4.588
77888SOL    HW235497   6.694  11.811   4.610
77889SOL     OW35498   4.693   6.403  10.392
77889SOL    HW135499   4.787   6.402  10.413
77889SOL    HW235500   4.655   6.336  10.449
77890SOL     OW35501  10.671   9.849   3.097
77890SOL    HW135502  10.764   9.855   3.122
77890SOL    HW235503  10.666   9.896   3.014
77891SOL     OW35504   5.141   6.025  12.573
77891SOL    HW135505   5.150   5.935  12.603
77891SOL    HW235506   5.226   6.047  12.535
77892SOL     OW35507   7.088  11.466   9.406
77892SOL    HW135508   7.095  11.509   9.321
77892SOL    HW235509   7.150  11.513   9.462
77893SOL     OW35510  12.844  11.307   7.518
77893SOL    HW135511  12.828  11.232   7.576
77893SOL    HW235512  12.937  11.301   7.496
77894SOL     OW35513   4.910   8.184  12.039
77894SOL    HW135514   4.992   8.203  12.084
77894SOL    HW235515   4.925   8.100  11.995
77895SOL     OW35516  11.667  10.980   4.264
77895SOL    HW135517  11.585  11.016   4.296
77895SOL    HW235518  11.666  10.999   4.170
77896SOL     OW35519  14.579   7.364  12.302
77896SOL    HW135520  14.554   7.404  12.219
77896SOL    HW235521  14.589   7.437  12.363
77897SOL     OW35522   5.316   4.437   5.311
77897SOL    HW135523   5.319   4.367   5.376
77897SOL    HW235524   5.349   4.514   5.357
77898SOL     OW35525   1.049   5.959  14.112
77898SOL    HW135526   1.035   5.868  14.084
77898SOL    HW235527   1.112   5.953  14.184
77899SOL     OW35528   8.613   2.527   6.613
77899SOL    HW135529   8.701   2.519   6.650
77899SOL    HW235530   8.565   2.452   6.648
77900SOL     OW35531   2.438   4.903   6.628
77900SOL    HW135532   2.478   4.981   6.590
77900SOL    HW235533   2.378   4.872   6.560
77901SOL     OW35534   9.589   0.007   6.630
77901SOL    HW135535   9.626  14.799   6.593
77901SOL    HW235536   9.507  14.852   6.670
77902SOL     OW35537   9.703   3.692  10.347
77902SOL    HW135538   9.639   3.664  10.412
77902SOL    HW235539   9.764   3.747  10.397
77903SOL     OW35540  11.024   3.110   2.410
77903SOL    HW135541  11.061   3.097   2.497
77903SOL    HW235542  11.061   3.194   2.380
77904SOL     OW35543  14.658   8.108   8.097
77904SOL    HW135544  14.639   8.017   8.074
77904SOL    HW235545  14.581   8.137   8.146
77905SOL     OW35546  14.226  13.732   3.424
77905SOL    HW135547  14.212  13.697   3.336
77905SOL    HW235548  14.153  13.793   3.438
77906SOL     OW35549   9.708   1.728   4.754
77906SOL    HW135550   9.756   1.772   4.683
77906SOL    HW235551   9.658   1.798   4.795
77907SOL     OW35552   8.326  12.502   3.849
77907SOL    HW135553   8.288  12.445   3.782
77907SOL    HW235554   8.363  12.575   3.800
77908SOL     OW35555  12.906   4.241   9.278
77908SOL    HW135556  12.917   4.296   9.201
77908SOL    HW235557  12.995   4.223   9.307
77909SOL     OW35558   0.280   1.895   9.098
77909SOL    HW135559   0.227   1.966   9.063
77909SOL    HW235560   0.245   1.816   9.055
77910SOL     OW35561   3.161  10.689  12.099
77910SOL    HW135562   3.072  10.665  12.075
77910SOL    HW235563   3.213  10.611  12.081
77911SOL     OW35564   0.401   0.121   2.765
77911SOL    HW135565   0.323   0.082   2.806
77911SOL    HW235566   0.366   0.188   2.706
77912SOL     OW35567   2.698  10.436  10.065
77912SOL    HW135568   2.644  10.504  10.024
77912SOL    HW235569   2.652  10.414  10.146
77913SOL     OW35570   5.791  11.048   7.335
77913SOL    HW135571   5.866  11.076   7.387
77913SOL    HW235572   5.749  11.130   7.308
77914SOL     OW35573  13.255  10.662   4.553
77914SOL    HW135574  13.296  10.696   4.632
77914SOL    HW235575  13.320  10.605   4.513
77915SOL     OW35576   7.117   4.947  13.015
77915SOL    HW135577   7.043   4.998  13.048
77915SOL    HW235578   7.123   4.872  13.075
77916SOL     OW35579  14.573   5.399   8.268
77916SOL    HW135580  14.602   5.471   8.212
77916SOL    HW235581  14.630   5.326   8.244
77917SOL     OW35582  11.350  14.829   8.255
77917SOL    HW135583  11.403  14.855   8.180
77917SOL    HW235584  11.262  14.860   8.234
77918SOL     OW35585   6.558  10.160   2.815
77918SOL    HW135586   6.638  10.178   2.864
77918SOL    HW235587   6.506  10.240   2.825
77919SOL     OW35588  10.828   8.715  11.572
77919SOL    HW135589  10.789   8.634  11.538
77919SOL    HW235590  10.760   8.781  11.558
77920SOL     OW35591   0.554   7.591   0.733
77920SOL    HW135592   0.634   7.583   0.682
77920SOL    HW235593   0.484   7.566   0.673
77921SOL     OW35594   3.105   5.170   2.481
77921SOL    HW135595   3.078   5.262   2.477
77921SOL    HW235596   3.094   5.145   2.572
77922SOL     OW35597   6.498   3.564  11.625
77922SOL    HW135598   6.586   3.528  11.624
77922SOL    HW235599   6.491   3.611  11.708
77923SOL     OW35600   5.972   4.970  10.586
77923SOL    HW135601   6.054   4.958  10.635
77923SOL    HW235602   5.910   4.911  10.628
77924SOL     OW35603   0.387   3.734   2.649
77924SOL    HW135604   0.303   3.780   2.651
77924SOL    HW235605   0.418   3.743   2.559
77925SOL     OW35606  13.614   9.467  14.841
77925SOL    HW135607  13.617   9.380   0.009
77925SOL    HW235608  13.651   9.455  14.754
77926SOL     OW35609   5.631   9.490  14.546
77926SOL    HW135610   5.717   9.516  14.580
77926SOL    HW235611   5.615   9.548  14.472
77927SOL     OW35612   4.137   9.124  12.497
77927SOL    HW135613   4.044   9.102  12.499
77927SOL    HW235614   4.180   9.053  12.544
77928SOL     OW35615  13.351  13.972   3.932
77928SOL    HW135616  13.312  14.009   3.853
77928SOL    HW235617  13.442  14.001   3.929
77929SOL     OW35618  13.356   2.077  10.271
77929SOL    HW135619  13.311   2.020  10.333
77929SOL    HW235620  13.285   2.124  10.226
77930SOL     OW35621   7.426  13.406  14.519
77930SOL    HW135622   7.402  13.454  14.598
77930SOL    HW235623   7.351  13.416  14.461
77931SOL     OW35624  10.583   1.779   2.157
77931SOL    HW135625  10.646   1.846   2.185
77931SOL    HW235626  10.498   1.822   2.165
77932SOL     OW35627   1.331  11.723  13.099
77932SOL    HW135628   1.288  11.716  13.184
77932SOL    HW235629   1.319  11.637  13.059
77933SOL     OW35630  12.100   7.462   3.618
77933SOL    HW135631  12.194   7.478   3.617
77933SOL    HW235632  12.083   7.407   3.542
77934SOL     OW35633   7.153   7.322  10.075
77934SOL    HW135634   7.145   7.366  10.159
77934SOL    HW235635   7.086   7.362  10.020
77935SOL     OW35636   7.458  11.255  13.810
77935SOL    HW135637   7.524  11.212  13.757
77935SOL    HW235638   7.423  11.185  13.865
77936SOL     OW35639   8.210   2.781   6.389
77936SOL    HW135640   8.281   2.820   6.338
77936SOL    HW235641   8.253   2.719   6.447
77937SOL     OW35642   1.016   0.105  13.881
77937SOL    HW135643   1.017   0.199  13.864
77937SOL    HW235644   0.926   0.078  13.863
77938SOL     OW35645  13.681  11.517  12.780
77938SOL    HW135646  13.645  11.508  12.692
77938SOL    HW235647  13.606  11.504  12.838
77939SOL     OW35648   9.546  11.858   7.149
77939SOL    HW135649   9.562  11.768   7.178
77939SOL    HW235650   9.622  11.907   7.179
77940SOL     OW35651  10.642   9.584   4.168
77940SOL    HW135652  10.705   9.651   4.144
77940SOL    HW235653  10.584   9.627   4.230
77941SOL     OW35654   9.805   4.182   1.445
77941SOL    HW135655   9.792   4.245   1.374
77941SOL    HW235656   9.740   4.208   1.512
77942SOL     OW35657   8.615   8.417   8.242
77942SOL    HW135658   8.634   8.411   8.335
77942SOL    HW235659   8.559   8.341   8.224
77943SOL     OW35660  11.522  11.856  13.598
77943SOL    HW135661  11.555  11.894  13.680
77943SOL    HW235662  11.427  11.855  13.608
77944SOL     OW35663  13.365   8.155  11.616
77944SOL    HW135664  13.322   8.073  11.640
77944SOL    HW235665  13.293   8.219  11.614
77945SOL     OW35666   1.196   2.580   9.178
77945SOL    HW135667   1.138   2.648   9.145
77945SOL    HW235668   1.231   2.538   9.099
77946SOL     OW35669  10.278   9.145  10.481
77946SOL    HW135670  10.261   9.074  10.543
77946SOL    HW235671  10.202   9.202  10.488
77947SOL     OW35672   5.197   9.046  10.420
77947SOL    HW135673   5.275   9.006  10.459
77947SOL    HW235674   5.217   9.139  10.417
77948SOL     OW35675   9.835   7.169  12.221
77948SOL    HW135676   9.778   7.170  12.298
77948SOL    HW235677   9.921   7.143  12.256
77949SOL     OW35678   6.258   7.723   0.056
77949SOL    HW135679   6.245   7.739   0.150
77949SOL    HW235680   6.171   7.704   0.023
77950SOL     OW35681   2.143  12.845  11.435
77950SOL    HW135682   2.054  12.880  11.431
77950SOL    HW235683   2.187  12.898  11.502
77951SOL     OW35684   6.520  12.052   6.008
77951SOL    HW135685   6.536  12.083   5.919
77951SOL    HW235686   6.426  12.064   6.020
77952SOL     OW35687   9.839   8.878  11.185
77952SOL    HW135688   9.836   8.808  11.120
77952SOL    HW235689   9.908   8.852  11.246
77953SOL     OW35690  10.731  11.861   6.713
77953SOL    HW135691  10.691  11.887   6.795
77953SOL    HW235692  10.728  11.939   6.658
77954SOL     OW35693   5.642   2.489  12.594
77954SOL    HW135694   5.642   2.395  12.576
77954SOL    HW235695   5.562   2.522  12.553
77955SOL     OW35696   1.616   8.756   8.403
77955SOL    HW135697   1.625   8.845   8.370
77955SOL    HW235698   1.672   8.703   8.346
77956SOL     OW35699   0.959   7.600   5.048
77956SOL    HW135700   1.000   7.678   5.011
77956SOL    HW235701   0.941   7.622   5.139
77957SOL     OW35702   6.203   5.306   9.486
77957SOL    HW135703   6.273   5.295   9.551
77957SOL    HW235704   6.221   5.239   9.420
77958SOL     OW35705   7.161   3.260   6.441
77958SOL    HW135706   7.230   3.250   6.376
77958SOL    HW235707   7.081   3.274   6.390
77959SOL     OW35708   4.069   5.901   6.262
77959SOL    HW135709   4.020   5.874   6.185
77959SOL    HW235710   4.160   5.904   6.233
77960SOL     OW35711  10.908   9.260  11.471
77960SOL    HW135712  10.925   9.203  11.396
77960SOL    HW235713  10.964   9.226  11.541
77961SOL     OW35714   5.602  10.871   7.470
77961SOL    HW135715   5.653  10.877   7.390
77961SOL    HW235716   5.576  10.961   7.489
77962SOL     OW35717  10.105   9.307   2.815
77962SOL    HW135718  10.185   9.333   2.861
77962SOL    HW235719  10.034   9.332   2.875
77963SOL     OW35720   9.028   3.803   5.610
77963SOL    HW135721   9.042   3.728   5.553
77963SOL    HW235722   9.075   3.781   5.691
77964SOL     OW35723   2.587   8.302  14.787
77964SOL    HW135724   2.536   8.323  14.865
77964SOL    HW235725   2.677   8.321  14.811
77965SOL     OW35726   7.204  11.755   2.001
77965SOL    HW135727   7.250  11.733   2.082
77965SOL    HW235728   7.203  11.851   1.999
77966SOL     OW35729   5.740   7.009   7.230
77966SOL    HW135730   5.811   6.973   7.178
77966SOL    HW235731   5.662   6.964   7.199
77967SOL     OW35732  11.811  13.020   1.354
77967SOL    HW135733  11.893  12.985   1.387
77967SOL    HW235734  11.764  13.048   1.433
77968SOL     OW35735  13.244   2.355   5.783
77968SOL    HW135736  13.164   2.390   5.743
77968SOL    HW235737  13.282   2.430   5.829
77969SOL     OW35738  11.563  12.345  10.153
77969SOL    HW135739  11.658  12.357  10.148
77969SOL    HW235740  11.528  12.399  10.083
77970SOL     OW35741   0.250  12.329   5.270
77970SOL    HW135742   0.307  12.277   5.214
77970SOL    HW235743   0.305  12.352   5.345
77971SOL     OW35744   5.085   7.899   2.380
77971SOL    HW135745   5.054   7.982   2.415
77971SOL    HW235746   5.174   7.917   2.350
77972SOL     OW35747   2.689  11.183  14.872
77972SOL    HW135748   2.772  11.210   0.039
77972SOL    HW235749   2.678  11.092   0.027
77973SOL     OW35750   7.331   4.885  13.939
77973SOL    HW135751   7.272   4.816  13.967
77973SOL    HW235752   7.302   4.963  13.987
77974SOL     OW35753   9.863   5.035   2.222
77974SOL    HW135754   9.905   5.067   2.302
77974SOL    HW235755   9.926   4.973   2.185
77975SOL     OW35756  10.719   7.453  11.440
77975SOL    HW135757  10.675   7.372  11.467
77975SOL    HW235758  10.743   7.437  11.348
77976SOL     OW35759  11.754   5.349   0.452
77976SOL    HW135760  11.774   5.272   0.398
77976SOL    HW235761  11.658   5.351   0.457
77977SOL     OW35762   9.463   2.791  11.773
77977SOL    HW135763   9.372   2.801  11.746
77977SOL    HW235764   9.479   2.863  11.834
77978SOL     OW35765   6.896   8.372  12.591
77978SOL    HW135766   6.967   8.338  12.646
77978SOL    HW235767   6.938   8.434  12.533
77979SOL     OW35768   9.569   6.100  10.560
77979SOL    HW135769   9.660   6.119  10.584
77979SOL    HW235770   9.563   6.129  10.469
77980SOL     OW35771   3.706   1.784   8.649
77980SOL    HW135772   3.785   1.820   8.610
77980SOL    HW235773   3.683   1.710   8.592
77981SOL     OW35774   7.971  12.772   7.129
77981SOL    HW135775   7.925  12.716   7.192
77981SOL    HW235776   7.938  12.745   7.044
77982SOL     OW35777  13.562  12.472   1.648
77982SOL    HW135778  13.505  12.448   1.721
77982SOL    HW235779  13.592  12.389   1.612
77983SOL     OW35780  10.082   2.409   2.557
77983SOL    HW135781  10.125   2.480   2.510
77983SOL    HW235782  10.113   2.417   2.647
77984SOL     OW35783   3.462   3.852   0.563
77984SOL    HW135784   3.435   3.817   0.478
77984SOL    HW235785   3.395   3.917   0.584
77985SOL     OW35786   2.453  14.852   0.183
77985SOL    HW135787   2.488  14.787   0.244
77985SOL    HW235788   2.521   0.047   0.177
77986SOL     OW35789  14.016   4.530  14.054
77986SOL    HW135790  13.950   4.579  14.103
77986SOL    HW235791  14.080   4.596  14.028
77987SOL     OW35792   9.546   9.817   7.335
77987SOL    HW135793   9.521   9.787   7.422
77987SOL    HW235794   9.526   9.911   7.336
77988SOL     OW35795   1.167   7.013  12.565
77988SOL    HW135796   1.208   7.092  12.600
77988SOL    HW235797   1.140   6.964  12.643
77989SOL     OW35798  11.982   7.059   6.575
77989SOL    HW135799  11.958   7.019   6.659
77989SOL    HW235800  11.970   6.989   6.511
77990SOL     OW35801   0.815   4.437  12.423
77990SOL    HW135802   0.808   4.478  12.509
77990SOL    HW235803   0.725   4.431  12.392
77991SOL     OW35804   2.537  10.782   7.126
77991SOL    HW135805   2.457  10.739   7.096
77991SOL    HW235806   2.507  10.865   7.164
77992SOL     OW35807  10.224   0.643   7.761
77992SOL    HW135808  10.224   0.668   7.854
77992SOL    HW235809  10.192   0.721   7.715
77993SOL     OW35810  10.447  13.573   6.569
77993SOL    HW135811  10.507  13.499   6.565
77993SOL    HW235812  10.438  13.602   6.478
77994SOL     OW35813   0.078   6.890  13.704
77994SOL    HW135814   0.145   6.939  13.656
77994SOL    HW235815   0.113   6.801  13.708
77995SOL     OW35816   0.637   0.120   0.050
77995SOL    HW135817   0.628   0.184   0.120
77995SOL    HW235818   0.728   0.128   0.022
77996SOL     OW35819  11.181   5.248   1.772
77996SOL    HW135820  11.137   5.211   1.695
77996SOL    HW235821  11.274   5.235   1.754
77997SOL     OW35822   4.705   8.850  12.576
77997SOL    HW135823   4.749   8.830  12.494
77997SOL    HW235824   4.775   8.882  12.634
77998SOL     OW35825  11.801  12.101  13.990
77998SOL    HW135826  11.804  12.191  13.957
77998SOL    HW235827  11.879  12.059  13.954
77999SOL     OW35828   9.956   1.035   9.076
77999SOL    HW135829   9.980   0.957   9.025
77999SOL    HW235830   9.869   1.058   9.045
78000SOL     OW35831  10.553   9.649  14.422
78000SOL    HW135832  10.631   9.677  14.375
78000SOL    HW235833  10.573   9.560  14.452
78001SOL     OW35834   5.471   9.436  14.061
78001SOL    HW135835   5.398   9.428  14.122
78001SOL    HW235836   5.507   9.348  14.055
78002SOL     OW35837  12.882   6.162  10.653
78002SOL    HW135838  12.860   6.138  10.743
78002SOL    HW235839  12.852   6.253  10.645
78003SOL     OW35840  12.957   9.663   9.845
78003SOL    HW135841  12.965   9.755   9.872
78003SOL    HW235842  13.027   9.652   9.781
78004SOL     OW35843   6.447   7.200  11.253
78004SOL    HW135844   6.380   7.251  11.299
78004SOL    HW235845   6.412   7.112  11.248
78005SOL     OW35846   6.508   2.541   6.593
78005SOL    HW135847   6.428   2.527   6.645
78005SOL    HW235848   6.579   2.510   6.649
78006SOL     OW35849   4.865   4.948   0.808
78006SOL    HW135850   4.823   4.953   0.894
78006SOL    HW235851   4.793   4.953   0.746
78007SOL     OW35852  10.492   1.446   6.432
78007SOL    HW135853  10.572   1.482   6.396
78007SOL    HW235854  10.509   1.438   6.526
78008SOL     OW35855  14.265   6.024   7.525
78008SOL    HW135856  14.203   6.033   7.597
78008SOL    HW235857  14.320   5.950   7.551
78009SOL     OW35858  11.183  10.417  12.868
78009SOL    HW135859  11.138  10.388  12.789
78009SOL    HW235860  11.114  10.433  12.932
78010SOL     OW35861  14.744  12.843   3.023
78010SOL    HW135862  14.765  12.878   2.936
78010SOL    HW235863  14.660  12.882   3.046
78011SOL     OW35864  11.280   1.200   0.643
78011SOL    HW135865  11.314   1.285   0.617
78011SOL    HW235866  11.204   1.186   0.587
78012SOL     OW35867  14.680   1.022  10.102
78012SOL    HW135868  14.642   1.107  10.079
78012SOL    HW235869  14.648   1.003  10.190
78013SOL     OW35870   2.661   6.128   7.322
78013SOL    HW135871   2.649   6.136   7.417
78013SOL    HW235872   2.603   6.056   7.297
78014SOL     OW35873   0.812   2.562  13.511
78014SOL    HW135874   0.727   2.569  13.554
78014SOL    HW235875   0.835   2.651  13.488
78015SOL     OW35876  11.693   5.012   8.968
78015SOL    HW135877  11.741   4.966   8.899
78015SOL    HW235878  11.686   4.947   9.039
78016SOL     OW35879  12.961  10.650   0.051
78016SOL    HW135880  13.028  10.612   0.107
78016SOL    HW235881  12.902  10.578   0.030
78017SOL     OW35882   1.859  13.555   3.726
78017SOL    HW135883   1.934  13.524   3.676
78017SOL    HW235884   1.892  13.630   3.775
78018SOL     OW35885   4.424   8.207   4.718
78018SOL    HW135886   4.516   8.232   4.723
78018SOL    HW235887   4.381   8.261   4.785
78019SOL     OW35888  13.711   5.997   1.608
78019SOL    HW135889  13.680   5.941   1.679
78019SOL    HW235890  13.790   6.038   1.642
78020SOL     OW35891  13.232   8.198  13.621
78020SOL    HW135892  13.155   8.254  13.614
78020SOL    HW235893  13.267   8.193  13.533
78021SOL     OW35894  14.314   3.060  13.330
78021SOL    HW135895  14.303   2.972  13.366
78021SOL    HW235896  14.241   3.070  13.269
78022SOL     OW35897   3.356   7.958   9.205
78022SOL    HW135898   3.326   7.967   9.115
78022SOL    HW235899   3.441   8.003   9.207
78023SOL     OW35900   6.959  11.563  14.442
78023SOL    HW135901   6.975  11.527  14.354
78023SOL    HW235902   6.899  11.501  14.482
78024SOL     OW35903   6.594   1.179  12.104
78024SOL    HW135904   6.642   1.260  12.087
78024SOL    HW235905   6.596   1.169  12.199
78025SOL     OW35906   0.300   0.586  10.206
78025SOL    HW135907   0.221   0.540  10.179
78025SOL    HW235908   0.269   0.655  10.266
78026SOL     OW35909   5.264  14.075   8.659
78026SOL    HW135910   5.322  14.038   8.726
78026SOL    HW235911   5.181  14.028   8.671
78027SOL     OW35912  12.256   4.919   2.719
78027SOL    HW135913  12.277   5.012   2.717
78027SOL    HW235914  12.160   4.916   2.714
78028SOL     OW35915   0.011   8.550  11.179
78028SOL    HW135916   0.018   8.622  11.241
78028SOL    HW235917  14.833   8.587  11.106
78029SOL     OW35918   1.499  14.285   8.512
78029SOL    HW135919   1.458  14.314   8.431
78029SOL    HW235920   1.446  14.211   8.541
78030SOL     OW35921  12.165   8.662   2.044
78030SOL    HW135922  12.179   8.737   1.986
78030SOL    HW235923  12.218   8.680   2.121
78031SOL     OW35924   1.167   4.285   6.498
78031SOL    HW135925   1.092   4.234   6.469
78031SOL    HW235926   1.242   4.248   6.451
78032SOL     OW35927   8.440   1.135   0.726
78032SOL    HW135928   8.500   1.153   0.654
78032SOL    HW235929   8.398   1.053   0.703
78033SOL     OW35930   1.175   7.582   7.061
78033SOL    HW135931   1.096   7.557   7.014
78033SOL    HW235932   1.144   7.638   7.132
78034SOL     OW35933  14.667   7.737   8.030
78034SOL    HW135934  14.634   7.768   8.114
78034SOL    HW235935  14.607   7.776   7.966
78035SOL     OW35936   1.195  12.963  14.838
78035SOL    HW135937   1.169  12.923   0.049
78035SOL    HW235938   1.290  12.970  14.844
78036SOL     OW35939   3.855   8.294   1.457
78036SOL    HW135940   3.947   8.276   1.478
78036SOL    HW235941   3.852   8.388   1.439
78037SOL     OW35942  13.705   1.511   1.704
78037SOL    HW135943  13.771   1.580   1.703
78037SOL    HW235944  13.727   1.455   1.629
78038SOL     OW35945   9.546   7.256  13.440
78038SOL    HW135946   9.632   7.235  13.475
78038SOL    HW235947   9.496   7.174  13.446
78039SOL     OW35948  12.200   2.921  10.228
78039SOL    HW135949  12.283   2.932  10.274
78039SOL    HW235950  12.145   2.871  10.288
78040SOL     OW35951   5.353  11.855   4.318
78040SOL    HW135952   5.424  11.797   4.292
78040SOL    HW235953   5.391  11.913   4.384
78041SOL     OW35954   2.588   0.054   1.498
78041SOL    HW135955   2.636   0.129   1.463
78041SOL    HW235956   2.645  14.851   1.481
78042SOL     OW35957   9.024   9.258  12.624
78042SOL    HW135958   9.047   9.254  12.531
78042SOL    HW235959   9.041   9.170  12.657
78043SOL     OW35960   2.449   5.308   1.825
78043SOL    HW135961   2.412   5.221   1.845
78043SOL    HW235962   2.532   5.309   1.872
78044SOL     OW35963   5.495   8.450   6.056
78044SOL    HW135964   5.551   8.528   6.059
78044SOL    HW235965   5.510   8.406   6.140
78045SOL     OW35966   7.404  13.204   8.872
78045SOL    HW135967   7.455  13.209   8.791
78045SOL    HW235968   7.408  13.112   8.898
78046SOL     OW35969   5.462   0.987   2.877
78046SOL    HW135970   5.443   1.031   2.794
78046SOL    HW235971   5.511   0.909   2.853
78047SOL     OW35972  14.502  14.412   3.000
78047SOL    HW135973  14.548  14.395   3.082
78047SOL    HW235974  14.506  14.328   2.954
78048SOL     OW35975   9.655   9.693   3.409
78048SOL    HW135976   9.675   9.737   3.491
78048SOL    HW235977   9.606   9.759   3.358
78049SOL     OW35978   6.109   2.401  10.314
78049SOL    HW135979   6.102   2.402  10.409
78049SOL    HW235980   6.144   2.487  10.291
78050SOL     OW35981   1.904  14.685   0.484
78050SOL    HW135982   1.869  14.612   0.536
78050SOL    HW235983   1.921  14.647   0.398
78051SOL     OW35984  11.407   5.650   9.780
78051SOL    HW135985  11.317   5.642   9.810
78051SOL    HW235986  11.457   5.673   9.859
78052SOL     OW35987  10.450   9.973   0.525
78052SOL    HW135988  10.358   9.992   0.545
78052SOL    HW235989  10.496  10.055   0.541
78053SOL     OW35990   0.699  10.235   9.458
78053SOL    HW135991   0.762  10.302   9.431
78053SOL    HW235992   0.622  10.285   9.485
78054SOL     OW35993   3.493   5.347   8.300
78054SOL    HW135994   3.553   5.415   8.270
78054SOL    HW235995   3.437   5.329   8.225
78055SOL     OW35996   5.049   6.260   1.293
78055SOL    HW135997   5.093   6.175   1.282
78055SOL    HW235998   5.084   6.294   1.375
78056SOL     OW35999   6.226   2.167   0.608
78056SOL    HW136000   6.282   2.188   0.683
78056SOL    HW236001   6.144   2.135   0.648
78057SOL     OW36002   7.002   8.574   0.042
78057SOL    HW136003   6.907   8.579   0.050
78057SOL    HW236004   7.021   8.481   0.030
78058SOL     OW36005   0.506   3.514   6.055
78058SOL    HW136006   0.435   3.542   5.997
78058SOL    HW236007   0.507   3.418   6.048
78059SOL     OW36008   1.197   6.749  11.291
78059SOL    HW136009   1.263   6.775  11.356
78059SOL    HW236010   1.168   6.831  11.251
78060SOL     OW36011   3.390  11.041   7.127
78060SOL    HW136012   3.398  11.133   7.104
78060SOL    HW236013   3.318  11.038   7.191
78061SOL     OW36014   1.701  12.996  10.439
78061SOL    HW136015   1.747  13.015  10.521
78061SOL    HW236016   1.753  12.927  10.397
78062SOL     OW36017   1.885   4.553   8.648
78062SOL    HW136018   1.966   4.595   8.678
78062SOL    HW236019   1.844   4.521   8.729
78063SOL     OW36020   5.324   7.145  12.247
78063SOL    HW136021   5.369   7.061  12.246
78063SOL    HW236022   5.265   7.142  12.172
78064SOL     OW36023   1.550   5.251   6.938
78064SOL    HW136024   1.513   5.212   6.859
78064SOL    HW236025   1.478   5.301   6.977
78065SOL     OW36026  11.523   5.974   7.410
78065SOL    HW136027  11.455   6.014   7.463
78065SOL    HW236028  11.601   5.973   7.466
78066SOL     OW36029   9.569  11.167   5.355
78066SOL    HW136030   9.514  11.089   5.361
78066SOL    HW236031   9.515  11.236   5.394
78067SOL     OW36032   1.586   0.598   4.037
78067SOL    HW136033   1.639   0.523   4.064
78067SOL    HW236034   1.649   0.670   4.027
78068SOL     OW36035   4.714  12.057   6.091
78068SOL    HW136036   4.641  12.074   6.150
78068SOL    HW236037   4.672  12.041   6.006
78069SOL     OW36038  13.201  12.463   4.914
78069SOL    HW136039  13.144  12.529   4.874
78069SOL    HW236040  13.281  12.511   4.937
78070SOL     OW36041   6.266   6.525   2.562
78070SOL    HW136042   6.305   6.560   2.482
78070SOL    HW236043   6.206   6.593   2.591
78071SOL     OW36044   1.513   1.214   4.981
78071SOL    HW136045   1.493   1.130   4.939
78071SOL    HW236046   1.585   1.251   4.929
78072SOL     OW36047   6.290   7.021   6.383
78072SOL    HW136048   6.302   6.988   6.294
78072SOL    HW236049   6.216   6.970   6.418
78073SOL     OW36050   7.335   0.042  14.800
78073SOL    HW136051   7.249   0.009  14.825
78073SOL    HW236052   7.349   0.117  14.858
78074SOL     OW36053   5.575   1.892   5.187
78074SOL    HW136054   5.605   1.983   5.188
78074SOL    HW236055   5.488   1.896   5.147
78075SOL     OW36056  14.180  10.148   7.379
78075SOL    HW136057  14.235  10.110   7.448
78075SOL    HW236058  14.242  10.195   7.323
78076SOL     OW36059   4.848  14.179   1.445
78076SOL    HW136060   4.904  14.147   1.374
78076SOL    HW236061   4.840  14.273   1.428
78077SOL     OW36062  10.044   2.617  10.742
78077SOL    HW136063   9.951   2.616  10.716
78077SOL    HW236064  10.090   2.583  10.666
78078SOL     OW36065   1.375  12.019   2.546
78078SOL    HW136066   1.317  11.976   2.483
78078SOL    HW236067   1.374  11.961   2.623
78079SOL     OW36068   8.364   3.249  10.315
78079SOL    HW136069   8.460   3.249  10.322
78079SOL    HW236070   8.340   3.341  10.318
78080SOL     OW36071   6.286  13.143   5.565
78080SOL    HW136072   6.336  13.130   5.484
78080SOL    HW236073   6.226  13.069   5.569
78081SOL     OW36074   6.480  14.859   1.669
78081SOL    HW136075   6.525  14.833   1.749
78081SOL    HW236076   6.540  14.832   1.599
78082SOL     OW36077  13.427   9.318  11.912
78082SOL    HW136078  13.481   9.354  11.841
78082SOL    HW236079  13.462   9.230  11.926
78083SOL     OW36080   1.556   0.884   1.141
78083SOL    HW136081   1.625   0.887   1.075
78083SOL    HW236082   1.589   0.938   1.213
78084SOL     OW36083   4.538   8.593   2.429
78084SOL    HW136084   4.472   8.660   2.412
78084SOL    HW236085   4.491   8.510   2.418
78085SOL     OW36086   9.306   2.889  13.000
78085SOL    HW136087   9.362   2.956  12.962
78085SOL    HW236088   9.319   2.812  12.944
78086SOL     OW36089  14.649   0.514   2.222
78086SOL    HW136090  14.693   0.443   2.268
78086SOL    HW236091  14.577   0.472   2.176
78087SOL     OW36092  12.047   5.781   0.505
78087SOL    HW136093  11.992   5.704   0.489
78087SOL    HW236094  12.059   5.820   0.419
78088SOL     OW36095   3.422   6.781  13.651
78088SOL    HW136096   3.433   6.749  13.561
78088SOL    HW236097   3.378   6.866  13.640
78089SOL     OW36098   6.044   8.366   4.760
78089SOL    HW136099   6.066   8.403   4.845
78089SOL    HW236100   6.128   8.352   4.717
78090SOL     OW36101   8.185   4.275  10.345
78090SOL    HW136102   8.136   4.199  10.375
78090SOL    HW236103   8.152   4.348  10.397
78091SOL     OW36104   5.802   4.849   8.196
78091SOL    HW136105   5.716   4.809   8.192
78091SOL    HW236106   5.854   4.802   8.131
78092SOL     OW36107   5.120   2.697   3.909
78092SOL    HW136108   5.166   2.655   3.836
78092SOL    HW236109   5.089   2.780   3.873
78093SOL     OW36110   0.829  10.665   2.546
78093SOL    HW136111   0.879  10.710   2.615
78093SOL    HW236112   0.781  10.735   2.502
78094SOL     OW36113  14.551   6.373   5.012
78094SOL    HW136114  14.582   6.387   4.922
78094SOL    HW236115  14.629   6.386   5.066
78095SOL     OW36116   0.693  11.744   3.532
78095SOL    HW136117   0.685  11.651   3.552
78095SOL    HW236118   0.786  11.763   3.545
78096SOL     OW36119   8.301   0.158   3.290
78096SOL    HW136120   8.334   0.072   3.264
78096SOL    HW236121   8.376   0.202   3.330
78097SOL     OW36122   6.441   9.173  13.974
78097SOL    HW136123   6.388   9.139  13.902
78097SOL    HW236124   6.377   9.187  14.045
78098SOL     OW36125   0.784   8.433   5.867
78098SOL    HW136126   0.749   8.377   5.935
78098SOL    HW236127   0.868   8.464   5.902
78099SOL     OW36128  12.848   2.405  13.507
78099SOL    HW136129  12.792   2.383  13.432
78099SOL    HW236130  12.809   2.485  13.542
78100SOL     OW36131   3.797   9.691   5.918
78100SOL    HW136132   3.784   9.654   6.005
78100SOL    HW236133   3.772   9.621   5.858
78101SOL     OW36134   1.576   7.972   6.707
78101SOL    HW136135   1.505   7.915   6.735
78101SOL    HW236136   1.655   7.918   6.717
78102SOL     OW36137   5.925   1.398   3.744
78102SOL    HW136138   5.965   1.480   3.712
78102SOL    HW236139   5.840   1.425   3.778
78103SOL     OW36140   3.035   7.347   7.621
78103SOL    HW136141   2.941   7.353   7.603
78103SOL    HW236142   3.075   7.414   7.566
78104SOL     OW36143   0.291  11.845   5.033
78104SOL    HW136144   0.342  11.853   5.113
78104SOL    HW236145   0.310  11.925   4.984
78105SOL     OW36146   7.378  11.143  10.174
78105SOL    HW136147   7.469  11.173  10.175
78105SOL    HW236148   7.342  11.176  10.092
78106SOL     OW36149   8.878   9.518  11.298
78106SOL    HW136150   8.933   9.588  11.263
78106SOL    HW236151   8.932   9.475  11.364
78107SOL     OW36152   8.163   4.240  13.402
78107SOL    HW136153   8.121   4.306  13.347
78107SOL    HW236154   8.115   4.244  13.485
78108SOL     OW36155   2.032  12.244  12.924
78108SOL    HW136156   2.013  12.321  12.871
78108SOL    HW236157   2.114  12.266  12.969
78109SOL     OW36158  14.441  13.476   2.470
78109SOL    HW136159  14.393  13.528   2.405
78109SOL    HW236160  14.532  13.480   2.442
78110SOL     OW36161   1.268   6.125   4.724
78110SOL    HW136162   1.179   6.091   4.716
78110SOL    HW236163   1.289   6.113   4.817
78111SOL     OW36164   6.815  13.579  13.257
78111SOL    HW136165   6.849  13.603  13.171
78111SOL    HW236166   6.822  13.659  13.309
78112SOL     OW36167  10.247   8.962   0.067
78112SOL    HW136168  10.175   8.905   0.039
78112SOL    HW236169  10.207   9.048   0.078
78113SOL     OW36170   9.820  13.151  11.293
78113SOL    HW136171   9.850  13.190  11.211
78113SOL    HW236172   9.841  13.058  11.285
78114SOL     OW36173   7.186  12.863   9.113
78114SOL    HW136174   7.157  12.799   9.178
78114SOL    HW236175   7.158  12.827   9.029
78115SOL     OW36176  11.034   7.882  11.303
78115SOL    HW136177  11.057   7.949  11.367
78115SOL    HW236178  10.967   7.923  11.248
78116SOL     OW36179   3.012   7.328  11.705
78116SOL    HW136180   2.985   7.256  11.648
78116SOL    HW236181   3.068   7.287  11.772
78117SOL     OW36182   5.932   4.179  11.483
78117SOL    HW136183   5.912   4.087  11.499
78117SOL    HW236184   5.918   4.222  11.568
78118SOL     OW36185   0.803   1.058   7.340
78118SOL    HW136186   0.849   0.992   7.392
78118SOL    HW236187   0.866   1.084   7.273
78119SOL     OW36188  13.421   7.007  11.961
78119SOL    HW136189  13.487   6.990  12.028
78119SOL    HW236190  13.427   6.933  11.901
78120SOL     OW36191   0.890   4.929   5.471
78120SOL    HW136192   0.839   4.850   5.489
78120SOL    HW236193   0.959   4.928   5.537
78121SOL     OW36194   2.396   9.904   1.558
78121SOL    HW136195   2.409   9.986   1.510
78121SOL    HW236196   2.449   9.840   1.509
78122SOL     OW36197   2.453   0.512   8.357
78122SOL    HW136198   2.506   0.458   8.299
78122SOL    HW236199   2.482   0.601   8.339
78123SOL     OW36200   7.980   1.664   4.679
78123SOL    HW136201   7.987   1.754   4.646
78123SOL    HW236202   7.984   1.610   4.601
78124SOL     OW36203   0.478   3.446   5.323
78124SOL    HW136204   0.527   3.519   5.284
78124SOL    HW236205   0.531   3.369   5.303
78125SOL     OW36206  10.858  12.124  11.781
78125SOL    HW136207  10.870  12.064  11.707
78125SOL    HW236208  10.947  12.154  11.802
78126SOL     OW36209  10.350  12.798   4.934
78126SOL    HW136210  10.287  12.729   4.952
78126SOL    HW236211  10.381  12.826   5.020
78127SOL     OW36212  12.203  10.877   8.998
78127SOL    HW136213  12.264  10.895   9.069
78127SOL    HW236214  12.254  10.889   8.918
78128SOL     OW36215   9.237   6.086  11.739
78128SOL    HW136216   9.261   6.006  11.786
78128SOL    HW236217   9.239   6.154  11.806
78129SOL     OW36218   4.247   3.772  11.090
78129SOL    HW136219   4.279   3.709  11.025
78129SOL    HW236220   4.317   3.778  11.154
78130SOL     OW36221   2.211  14.300   5.959
78130SOL    HW136222   2.164  14.344   5.888
78130SOL    HW236223   2.162  14.219   5.974
78131SOL     OW36224   9.174   9.537  13.915
78131SOL    HW136225   9.108   9.577  13.858
78131SOL    HW236226   9.168   9.443  13.896
78132SOL     OW36227   1.305   2.318   5.779
78132SOL    HW136228   1.226   2.294   5.828
78132SOL    HW236229   1.374   2.322   5.846
78133SOL     OW36230   4.137   3.532  13.572
78133SOL    HW136231   4.123   3.456  13.516
78133SOL    HW236232   4.048   3.563  13.592
78134SOL     OW36233  10.707  14.263  12.626
78134SOL    HW136234  10.635  14.202  12.641
78134SOL    HW236235  10.723  14.260  12.532
78135SOL     OW36236   8.400   7.407   3.346
78135SOL    HW136237   8.308   7.388   3.363
78135SOL    HW236238   8.399   7.482   3.286
78136SOL     OW36239   2.242   1.787   8.740
78136SOL    HW136240   2.228   1.820   8.651
78136SOL    HW236241   2.170   1.727   8.756
78137SOL     OW36242   2.550   0.881   6.073
78137SOL    HW136243   2.616   0.950   6.071
78137SOL    HW236244   2.591   0.808   6.027
78138SOL     OW36245  13.584   5.463   1.921
78138SOL    HW136246  13.618   5.394   1.865
78138SOL    HW236247  13.489   5.453   1.918
78139SOL     OW36248   7.281   2.864  12.929
78139SOL    HW136249   7.362   2.881  12.978
78139SOL    HW236250   7.279   2.933  12.863
78140SOL     OW36251   0.195   3.992  10.791
78140SOL    HW136252   0.157   3.921  10.738
78140SOL    HW236253   0.272   4.020  10.741
78141SOL     OW36254   8.514   4.889  13.251
78141SOL    HW136255   8.586   4.876  13.189
78141SOL    HW236256   8.551   4.863  13.335
78142SOL     OW36257   4.247   0.943   2.202
78142SOL    HW136258   4.235   0.860   2.249
78142SOL    HW236259   4.205   0.929   2.118
78143SOL     OW36260   7.296  12.629  11.881
78143SOL    HW136261   7.337  12.553  11.841
78143SOL    HW236262   7.270  12.599  11.969
78144SOL     OW36263   8.485   9.504   4.428
78144SOL    HW136264   8.481   9.598   4.447
78144SOL    HW236265   8.571   9.491   4.390
78145SOL     OW36266   7.150  12.845  10.522
78145SOL    HW136267   7.233  12.798  10.516
78145SOL    HW236268   7.175  12.934  10.548
78146SOL     OW36269  12.376   1.687  11.535
78146SOL    HW136270  12.309   1.680  11.468
78146SOL    HW236271  12.343   1.635  11.608
78147SOL     OW36272   9.939  12.055   2.226
78147SOL    HW136273   9.935  12.021   2.315
78147SOL    HW236274   9.926  12.149   2.235
78148SOL     OW36275   4.348  14.801   3.642
78148SOL    HW136276   4.433  14.812   3.600
78148SOL    HW236277   4.285  14.840   3.581
78149SOL     OW36278   9.631  12.825   7.046
78149SOL    HW136279   9.638  12.905   6.994
78149SOL    HW236280   9.537  12.812   7.058
78150SOL     OW36281  13.415  10.361   9.502
78150SOL    HW136282  13.459  10.293   9.554
78150SOL    HW236283  13.378  10.421   9.567
78151SOL     OW36284   0.620   3.189  14.178
78151SOL    HW136285   0.597   3.100  14.151
78151SOL    HW236286   0.716   3.188  14.184
78152SOL     OW36287   1.440  12.695   1.728
78152SOL    HW136288   1.375  12.647   1.677
78152SOL    HW236289   1.524  12.655   1.703
78153SOL     OW36290   8.860  13.344  10.443
78153SOL    HW136291   8.891  13.273  10.499
78153SOL    HW236292   8.776  13.370  10.481
78154SOL     OW36293  11.984  13.913  11.896
78154SOL    HW136294  12.063  13.874  11.934
78154SOL    HW236295  12.003  14.006  11.893
78155SOL     OW36296   5.963   2.465   9.594
78155SOL    HW136297   5.946   2.455   9.688
78155SOL    HW236298   6.007   2.384   9.570
78156SOL     OW36299   7.897  11.303  10.487
78156SOL    HW136300   7.919  11.247  10.413
78156SOL    HW236301   7.883  11.242  10.560
78157SOL     OW36302   2.136   0.924   5.358
78157SOL    HW136303   2.166   1.015   5.351
78157SOL    HW236304   2.058   0.919   5.302
78158SOL     OW36305  12.355   9.868  10.362
78158SOL    HW136306  12.404   9.796  10.400
78158SOL    HW236307  12.327   9.920  10.437
78159SOL     OW36308   1.091  10.986   4.641
78159SOL    HW136309   1.151  10.975   4.567
78159SOL    HW236310   1.149  11.007   4.715
78160SOL     OW36311   9.548   0.076   2.398
78160SOL    HW136312   9.487   0.006   2.420
78160SOL    HW236313   9.505   0.156   2.428
78161SOL     OW36314   4.804   5.235   5.511
78161SOL    HW136315   4.767   5.185   5.583
78161SOL    HW236316   4.886   5.191   5.490
78162SOL     OW36317   0.498  14.671  10.009
78162SOL    HW136318   0.511  14.706  10.097
78162SOL    HW236319   0.582  14.681   9.965
78163SOL     OW36320  14.455   2.840   9.144
78163SOL    HW136321  14.472   2.858   9.051
78163SOL    HW236322  14.368   2.800   9.145
78164SOL     OW36323   4.033   3.216  10.181
78164SOL    HW136324   3.939   3.229  10.192
78164SOL    HW236325   4.065   3.300  10.149
78165SOL     OW36326   5.823  13.136  11.136
78165SOL    HW136327   5.875  13.082  11.076
78165SOL    HW236328   5.885  13.200  11.170
78166SOL     OW36329   1.835   6.209  11.457
78166SOL    HW136330   1.776   6.180  11.388
78166SOL    HW236331   1.893   6.273  11.414
78167SOL     OW36332   1.066   1.566   5.113
78167SOL    HW136333   1.023   1.649   5.092
78167SOL    HW236334   1.122   1.586   5.188
78168SOL     OW36335  14.520   2.717   4.441
78168SOL    HW136336  14.505   2.682   4.529
78168SOL    HW236337  14.529   2.812   4.454
78169SOL     OW36338  14.435  10.288  10.006
78169SOL    HW136339  14.457  10.252   9.920
78169SOL    HW236340  14.343  10.265  10.019
78170SOL     OW36341   4.253  11.563   7.453
78170SOL    HW136342   4.200  11.497   7.409
78170SOL    HW236343   4.205  11.645   7.443
78171SOL     OW36344  13.610  11.985  14.651
78171SOL    HW136345  13.590  12.058  14.593
78171SOL    HW236346  13.655  12.025  14.725
78172SOL     OW36347  13.763   9.383  14.158
78172SOL    HW136348  13.824   9.331  14.210
78172SOL    HW236349  13.756   9.336  14.074
78173SOL     OW36350   4.073  12.297   5.094
78173SOL    HW136351   4.023  12.343   5.026
78173SOL    HW236352   4.097  12.214   5.053
78174SOL     OW36353   5.726   9.831   9.152
78174SOL    HW136354   5.630   9.831   9.146
78174SOL    HW236355   5.751   9.739   9.140
78175SOL     OW36356  10.832   6.327  10.949
78175SOL    HW136357  10.829   6.234  10.926
78175SOL    HW236358  10.892   6.365  10.884
78176SOL     OW36359  11.730   6.417   9.326
78176SOL    HW136360  11.714   6.387   9.415
78176SOL    HW236361  11.648   6.401   9.280
78177SOL     OW36362   4.661   8.856  10.612
78177SOL    HW136363   4.583   8.800  10.608
78177SOL    HW236364   4.693   8.858  10.522
78178SOL     OW36365  14.689   9.448  13.611
78178SOL    HW136366  14.639   9.374  13.646
78178SOL    HW236367  14.724   9.416  13.528
78179SOL     OW36368   0.140   9.133   2.597
78179SOL    HW136369   0.062   9.130   2.653
78179SOL    HW236370   0.212   9.112   2.657
78180SOL     OW36371  10.197   5.771   8.327
78180SOL    HW136372  10.242   5.855   8.338
78180SOL    HW236373  10.211   5.747   8.236
78181SOL     OW36374   8.374  14.596   4.456
78181SOL    HW136375   8.463  14.561   4.451
78181SOL    HW236376   8.319  14.519   4.473
78182SOL     OW36377   3.384   6.439   7.445
78182SOL    HW136378   3.432   6.513   7.407
78182SOL    HW236379   3.292   6.460   7.431
78183SOL     OW36380   5.100  12.205   4.496
78183SOL    HW136381   5.060  12.137   4.442
78183SOL    HW236382   5.025  12.253   4.532
78184SOL     OW36383   1.216   8.667   3.904
78184SOL    HW136384   1.270   8.743   3.925
78184SOL    HW236385   1.262   8.623   3.833
78185SOL     OW36386   1.941  10.894   9.303
78185SOL    HW136387   1.979  10.816   9.343
78185SOL    HW236388   1.908  10.863   9.218
78186SOL     OW36389  13.214   6.426  12.537
78186SOL    HW136390  13.231   6.354  12.598
78186SOL    HW236391  13.192   6.500  12.593
78187SOL     OW36392  12.587   1.076   1.388
78187SOL    HW136393  12.664   1.019   1.392
78187SOL    HW236394  12.604   1.133   1.313
78188SOL     OW36395  14.281   3.512  11.389
78188SOL    HW136396  14.276   3.461  11.470
78188SOL    HW236397  14.374   3.535  11.382
78189SOL     OW36398   6.186   6.708   9.012
78189SOL    HW136399   6.157   6.619   9.030
78189SOL    HW236400   6.180   6.753   9.096
78190SOL     OW36401   8.551  11.286  11.147
78190SOL    HW136402   8.616  11.250  11.208
78190SOL    HW236403   8.602  11.344  11.089
78191SOL     OW36404   4.841   4.444   8.912
78191SOL    HW136405   4.860   4.432   9.006
78191SOL    HW236406   4.777   4.515   8.910
78192SOL     OW36407  12.708  14.004  12.526
78192SOL    HW136408  12.647  14.040  12.462
78192SOL    HW236409  12.744  14.081  12.571
78193SOL     OW36410   2.739   8.915   0.374
78193SOL    HW136411   2.663   8.908   0.315
78193SOL    HW236412   2.752   8.826   0.406
78194SOL     OW36413   6.771   7.101   8.705
78194SOL    HW136414   6.821   7.165   8.654
78194SOL    HW236415   6.687   7.145   8.721
78195SOL     OW36416  13.822   7.999   3.507
78195SOL    HW136417  13.765   7.983   3.583
78195SOL    HW236418  13.765   7.990   3.431
78196SOL     OW36419  10.247  14.017   3.937
78196SOL    HW136420  10.221  13.958   4.008
78196SOL    HW236421  10.304  14.081   3.979
78197SOL     OW36422  12.442   1.146   7.670
78197SOL    HW136423  12.366   1.170   7.724
78197SOL    HW236424  12.454   1.053   7.686
78198SOL     OW36425   7.795   7.901   9.977
78198SOL    HW136426   7.710   7.858   9.977
78198SOL    HW236427   7.777   7.991   9.951
78199SOL     OW36428   1.081   5.390   8.746
78199SOL    HW136429   1.082   5.471   8.797
78199SOL    HW236430   1.081   5.320   8.811
78200SOL     OW36431   5.894   1.560  13.982
78200SOL    HW136432   5.934   1.646  13.996
78200SOL    HW236433   5.867   1.561  13.891
78201SOL     OW36434   0.127  11.916   6.362
78201SOL    HW136435   0.147  11.989   6.303
78201SOL    HW236436   0.205  11.861   6.358
78202SOL     OW36437   9.159   9.522   4.393
78202SOL    HW136438   9.165   9.564   4.307
78202SOL    HW236439   9.092   9.573   4.439
78203SOL     OW36440  13.133   9.823  13.486
78203SOL    HW136441  13.061   9.788  13.432
78203SOL    HW236442  13.212   9.798  13.439
78204SOL     OW36443   0.119  14.485   5.457
78204SOL    HW136444   0.097  14.576   5.478
78204SOL    HW236445   0.109  14.480   5.362
78205SOL     OW36446   9.878  13.612   6.596
78205SOL    HW136447   9.944  13.543   6.585
78205SOL    HW236448   9.797  13.564   6.616
78206SOL     OW36449  11.638   3.936  10.932
78206SOL    HW136450  11.596   4.021  10.933
78206SOL    HW236451  11.649   3.915  10.839
78207SOL     OW36452   7.266   3.024   0.358
78207SOL    HW136453   7.321   3.101   0.344
78207SOL    HW236454   7.208   3.049   0.431
78208SOL     OW36455   8.794   2.952  11.666
78208SOL    HW136456   8.729   2.928  11.599
78208SOL    HW236457   8.810   3.045  11.651
78209SOL     OW36458   0.940   2.354   7.882
78209SOL    HW136459   0.926   2.275   7.829
78209SOL    HW236460   0.949   2.322   7.972
78210SOL     OW36461   0.785  14.222   5.143
78210SOL    HW136462   0.782  14.306   5.098
78210SOL    HW236463   0.694  14.195   5.149
78211SOL     OW36464   8.822   8.189   8.455
78211SOL    HW136465   8.730   8.212   8.466
78211SOL    HW236466   8.862   8.267   8.417
78212SOL     OW36467   1.137   3.403   5.446
78212SOL    HW136468   1.073   3.474   5.454
78212SOL    HW236469   1.199   3.419   5.517
78213SOL     OW36470  13.079   1.598   0.128
78213SOL    HW136471  13.174   1.606   0.121
78213SOL    HW236472  13.060   1.623   0.218
78214SOL     OW36473   0.385   3.194   1.507
78214SOL    HW136474   0.456   3.217   1.447
78214SOL    HW236475   0.333   3.129   1.459
78215SOL     OW36476  12.321  11.478   5.254
78215SOL    HW136477  12.240  11.428   5.266
78215SOL    HW236478  12.309  11.557   5.307
78216SOL     OW36479  11.812  10.795  13.682
78216SOL    HW136480  11.794  10.819  13.772
78216SOL    HW236481  11.731  10.812  13.635
78217SOL     OW36482   4.257  10.906   9.232
78217SOL    HW136483   4.231  10.899   9.140
78217SOL    HW236484   4.200  10.845   9.278
78218SOL     OW36485   0.809   8.180  13.579
78218SOL    HW136486   0.735   8.198  13.521
78218SOL    HW236487   0.825   8.263  13.623
78219SOL     OW36488  12.843   2.754   0.219
78219SOL    HW136489  12.753   2.786   0.228
78219SOL    HW236490  12.872   2.788   0.134
78220SOL     OW36491   2.160  11.456   6.027
78220SOL    HW136492   2.142  11.508   6.105
78220SOL    HW236493   2.111  11.499   5.957
78221SOL     OW36494  11.530  11.164   2.777
78221SOL    HW136495  11.512  11.104   2.705
78221SOL    HW236496  11.625  11.175   2.775
78222SOL     OW36497   3.638   8.989   9.074
78222SOL    HW136498   3.579   8.940   9.017
78222SOL    HW236499   3.673   9.059   9.018
78223SOL     OW36500   3.553  12.284  11.992
78223SOL    HW136501   3.554  12.358  12.053
78223SOL    HW236502   3.563  12.207  12.048
78224SOL     OW36503   5.673  10.316  14.462
78224SOL    HW136504   5.741  10.334  14.397
78224SOL    HW236505   5.680  10.388  14.524
78225SOL     OW36506  11.651   0.864   2.853
78225SOL    HW136507  11.678   0.773   2.841
78225SOL    HW236508  11.612   0.867   2.940
78226SOL     OW36509  12.255   8.267   9.175
78226SOL    HW136510  12.297   8.222   9.102
78226SOL    HW236511  12.239   8.198   9.240
78227SOL     OW36512   7.820   4.397  12.851
78227SOL    HW136513   7.815   4.309  12.816
78227SOL    HW236514   7.897   4.436  12.809
78228SOL     OW36515   6.311  14.753   8.783
78228SOL    HW136516   6.369  14.807   8.837
78228SOL    HW236517   6.361  14.672   8.768
78229SOL     OW36518   2.788   0.112   8.123
78229SOL    HW136519   2.749   0.036   8.081
78229SOL    HW236520   2.872   0.125   8.078
78230SOL     OW36521   5.242   6.953   5.227
78230SOL    HW136522   5.216   6.915   5.311
78230SOL    HW236523   5.173   7.017   5.207
78231SOL     OW36524   8.875  14.054   2.316
78231SOL    HW136525   8.940  14.031   2.250
78231SOL    HW236526   8.815  13.979   2.318
78232SOL     OW36527  11.063   4.473   6.426
78232SOL    HW136528  11.023   4.488   6.341
78232SOL    HW236529  10.994   4.496   6.489
78233SOL     OW36530  13.684   6.372   1.377
78233SOL    HW136531  13.733   6.289   1.377
78233SOL    HW236532  13.677   6.395   1.470
78234SOL     OW36533   4.777   7.664  10.853
78234SOL    HW136534   4.779   7.742  10.909
78234SOL    HW236535   4.740   7.595  10.909
78235SOL     OW36536   2.904  10.787   1.354
78235SOL    HW136537   2.823  10.769   1.305
78235SOL    HW236538   2.966  10.721   1.322
78236SOL     OW36539   4.478   6.515   1.075
78236SOL    HW136540   4.437   6.429   1.066
78236SOL    HW236541   4.407   6.572   1.105
78237SOL     OW36542   7.042  13.183   9.709
78237SOL    HW136543   7.128  13.212   9.742
78237SOL    HW236544   7.022  13.243   9.638
78238SOL     OW36545   7.946   1.074   3.299
78238SOL    HW136546   7.897   1.068   3.217
78238SOL    HW236547   8.013   1.141   3.282
78239SOL     OW36548   6.867  12.021   1.198
78239SOL    HW136549   6.829  11.993   1.115
78239SOL    HW236550   6.793  12.057   1.248
78240SOL     OW36551   8.748  10.924  10.432
78240SOL    HW136552   8.682  10.855  10.428
78240SOL    HW236553   8.716  10.991  10.372
78241SOL     OW36554  11.549  13.776   0.156
78241SOL    HW136555  11.569  13.855   0.105
78241SOL    HW236556  11.455  13.783   0.175
78242SOL     OW36557   8.975  14.517   7.208
78242SOL    HW136558   8.976  14.474   7.293
78242SOL    HW236559   9.067  14.520   7.181
78243SOL     OW36560   3.809   9.663  13.746
78243SOL    HW136561   3.735   9.610  13.718
78243SOL    HW236562   3.876   9.599  13.772
78244SOL     OW36563   6.451  13.427  12.998
78244SOL    HW136564   6.358  13.434  13.019
78244SOL    HW236565   6.495  13.426  13.083
78245SOL     OW36566  10.207   8.355  10.698
78245SOL    HW136567  10.240   8.265  10.700
78245SOL    HW236568  10.212   8.380  10.606
78246SOL     OW36569   9.276  10.253  10.973
78246SOL    HW136570   9.370  10.267  10.967
78246SOL    HW236571   9.267  10.157  10.976
78247SOL     OW36572   2.909   8.918  12.422
78247SOL    HW136573   2.957   8.962  12.492
78247SOL    HW236574   2.825   8.895  12.461
78248SOL     OW36575  14.429  10.694   0.342
78248SOL    HW136576  14.434  10.642   0.423
78248SOL    HW236577  14.514  10.683   0.301
78249SOL     OW36578   2.304   9.699  11.970
78249SOL    HW136579   2.348   9.640  12.032
78249SOL    HW236580   2.340   9.785  11.990
78250SOL     OW36581  10.050   3.480   7.189
78250SOL    HW136582  10.076   3.398   7.230
78250SOL    HW236583  10.087   3.548   7.247
78251SOL     OW36584   7.262  14.372  14.166
78251SOL    HW136585   7.181  14.353  14.119
78251SOL    HW236586   7.263  14.467  14.174
78252SOL     OW36587   2.457  13.089  13.927
78252SOL    HW136588   2.407  13.113  13.849
78252SOL    HW236589   2.546  13.073  13.896
78253SOL     OW36590  13.912   2.983   4.006
78253SOL    HW136591  13.971   2.997   4.079
78253SOL    HW236592  13.879   2.894   4.018
78254SOL     OW36593  14.839   6.568  12.662
78254SOL    HW136594  14.802   6.654  12.644
78254SOL    HW236595   0.047   6.587  12.712
78255SOL     OW36596   8.939   7.562  12.403
78255SOL    HW136597   8.873   7.509  12.358
78255SOL    HW236598   8.900   7.583  12.488
78256SOL     OW36599  11.572   1.467   6.296
78256SOL    HW136600  11.603   1.382   6.268
78256SOL    HW236601  11.505   1.491   6.232
78257SOL     OW36602   3.227  13.496   7.922
78257SOL    HW136603   3.240  13.454   7.837
78257SOL    HW236604   3.132  13.496   7.935
78258SOL     OW36605   0.857   9.162   1.212
78258SOL    HW136606   0.889   9.241   1.255
78258SOL    HW236607   0.813   9.113   1.281
78259SOL     OW36608  12.964   2.045  14.822
78259SOL    HW136609  12.883   2.083  14.855
78259SOL    HW236610  12.942   1.955  14.798
78260SOL     OW36611  14.106   4.201   4.302
78260SOL    HW136612  14.060   4.235   4.379
78260SOL    HW236613  14.037   4.164   4.247
78261SOL     OW36614   9.226  10.372   6.117
78261SOL    HW136615   9.246  10.405   6.029
78261SOL    HW236616   9.149  10.317   6.105
78262SOL     OW36617  13.701  12.232  12.254
78262SOL    HW136618  13.706  12.328  12.256
78262SOL    HW236619  13.627  12.213  12.197
78263SOL     OW36620   6.964   0.216   1.468
78263SOL    HW136621   7.035   0.280   1.464
78263SOL    HW236622   6.976   0.161   1.390
78264SOL     OW36623   3.663   9.836   8.510
78264SOL    HW136624   3.608   9.850   8.434
78264SOL    HW236625   3.605   9.796   8.575
78265SOL     OW36626   5.699   0.519   8.261
78265SOL    HW136627   5.703   0.576   8.338
78265SOL    HW236628   5.712   0.578   8.186
78266SOL     OW36629   3.776   5.063   8.955
78266SOL    HW136630   3.797   5.022   8.871
78266SOL    HW236631   3.753   5.153   8.932
78267SOL     OW36632   5.042  10.360   7.536
78267SOL    HW136633   5.048  10.265   7.548
78267SOL    HW236634   5.129  10.386   7.508
78268SOL     OW36635  11.404  13.206  14.035
78268SOL    HW136636  11.325  13.166  14.000
78268SOL    HW236637  11.373  13.283  14.083
78269SOL     OW36638   0.071   0.018   6.410
78269SOL    HW136639   0.031  14.834   6.344
78269SOL    HW236640   0.157  14.850   6.427
78270SOL     OW36641  14.613  14.532   9.189
78270SOL    HW136642  14.686  14.566   9.137
78270SOL    HW236643  14.546  14.511   9.125
78271SOL     OW36644  13.214  13.204  13.972
78271SOL    HW136645  13.119  13.195  13.965
78271SOL    HW236646  13.234  13.172  14.060
78272SOL     OW36647   7.718  14.122  10.342
78272SOL    HW136648   7.778  14.048  10.350
78272SOL    HW236649   7.631  14.083  10.337
78273SOL     OW36650   5.110   3.834  12.742
78273SOL    HW136651   5.070   3.813  12.658
78273SOL    HW236652   5.037   3.849  12.802
78274SOL     OW36653  11.883   1.714   0.977
78274SOL    HW136654  11.837   1.741   0.897
78274SOL    HW236655  11.865   1.620   0.984
78275SOL     OW36656  13.688   1.296  14.009
78275SOL    HW136657  13.661   1.362  13.946
78275SOL    HW236658  13.643   1.216  13.981
78276SOL     OW36659   2.869   9.020   9.163
78276SOL    HW136660   2.838   9.101   9.202
78276SOL    HW236661   2.933   9.047   9.098
78277SOL     OW36662   0.821   7.878  12.789
78277SOL    HW136663   0.846   7.963  12.826
78277SOL    HW236664   0.881   7.816  12.831
78278SOL     OW36665   5.712   6.073   3.913
78278SOL    HW136666   5.669   6.158   3.918
78278SOL    HW236667   5.790   6.089   3.860
78279SOL     OW36668   9.439   7.060   0.406
78279SOL    HW136669   9.463   7.130   0.467
78279SOL    HW236670   9.476   7.089   0.322
78280SOL     OW36671   6.853   0.938   0.757
78280SOL    HW136672   6.861   0.948   0.663
78280SOL    HW236673   6.912   1.004   0.793
78281SOL     OW36674   6.449   2.524  11.914
78281SOL    HW136675   6.430   2.586  11.844
78281SOL    HW236676   6.536   2.550  11.946
78282SOL     OW36677   4.581   3.537   8.758
78282SOL    HW136678   4.578   3.530   8.662
78282SOL    HW236679   4.529   3.463   8.789
78283SOL     OW36680   9.046   3.531   0.017
78283SOL    HW136681   9.071   3.438   0.015
78283SOL    HW236682   9.002   3.545  14.805
78284SOL     OW36683   8.362   4.168   1.623
78284SOL    HW136684   8.386   4.251   1.665
78284SOL    HW236685   8.405   4.170   1.538
78285SOL     OW36686   1.200   6.848   7.936
78285SOL    HW136687   1.163   6.760   7.943
78285SOL    HW236688   1.207   6.878   8.026
78286SOL     OW36689   1.388   7.572  10.038
78286SOL    HW136690   1.362   7.524   9.959
78286SOL    HW236691   1.363   7.663  10.019
78287SOL     OW36692   4.954   3.505   7.673
78287SOL    HW136693   4.996   3.591   7.679
78287SOL    HW236694   4.984   3.459   7.752
78288SOL     OW36695  14.787  12.240   5.591
78288SOL    HW136696  14.839  12.223   5.670
78288SOL    HW236697  14.815  12.327   5.563
78289SOL     OW36698   0.593  12.137   0.417
78289SOL    HW136699   0.585  12.106   0.327
78289SOL    HW236700   0.671  12.192   0.417
78290SOL     OW36701  10.534  13.979   5.141
78290SOL    HW136702  10.466  14.023   5.192
78290SOL    HW236703  10.607  13.969   5.203
78291SOL     OW36704  10.944   6.823   1.662
78291SOL    HW136705  11.021   6.817   1.719
78291SOL    HW236706  10.879   6.766   1.704
78292SOL     OW36707   2.729   6.500   4.377
78292SOL    HW136708   2.738   6.584   4.422
78292SOL    HW236709   2.795   6.444   4.418
78293SOL     OW36710   6.266  12.495  10.343
78293SOL    HW136711   6.324  12.460  10.275
78293SOL    HW236712   6.179  12.466  10.317
78294SOL     OW36713  10.436  10.201   1.458
78294SOL    HW136714  10.388  10.236   1.533
78294SOL    HW236715  10.424  10.106   1.465
78295SOL     OW36716  14.722  11.578  13.326
78295SOL    HW136717  14.724  11.661  13.375
78295SOL    HW236718  14.814  11.553  13.318
78296SOL     OW36719   9.870   8.016  13.954
78296SOL    HW136720   9.824   8.099  13.947
78296SOL    HW236721   9.853   7.971  13.871
78297SOL     OW36722  12.220  10.923   7.144
78297SOL    HW136723  12.171  10.847   7.176
78297SOL    HW236724  12.171  10.999   7.177
78298SOL     OW36725  10.065   3.455  13.391
78298SOL    HW136726   9.983   3.504  13.387
78298SOL    HW236727  10.128   3.510  13.346
78299SOL     OW36728   9.509   3.915   5.116
78299SOL    HW136729   9.486   3.842   5.059
78299SOL    HW236730   9.429   3.934   5.164
78300SOL     OW36731   9.119   4.036  12.108
78300SOL    HW136732   9.083   4.108  12.055
78300SOL    HW236733   9.158   4.080  12.184
78301SOL     OW36734   7.863   5.149   6.148
78301SOL    HW136735   7.899   5.086   6.085
78301SOL    HW236736   7.940   5.191   6.187
78302SOL     OW36737   2.522   2.280   5.874
78302SOL    HW136738   2.594   2.337   5.900
78302SOL    HW236739   2.475   2.329   5.807
78303SOL     OW36740  11.881   6.970  11.711
78303SOL    HW136741  11.872   6.875  11.718
78303SOL    HW236742  11.929   6.996  11.790
78304SOL     OW36743  13.215  12.185   4.853
78304SOL    HW136744  13.178  12.161   4.938
78304SOL    HW236745  13.194  12.278   4.845
78305SOL     OW36746   8.285   1.223  13.008
78305SOL    HW136747   8.214   1.165  13.035
78305SOL    HW236748   8.352   1.211  13.075
78306SOL     OW36749   2.357  11.178   2.730
78306SOL    HW136750   2.399  11.114   2.787
78306SOL    HW236751   2.413  11.255   2.735
78307SOL     OW36752   1.468  14.029   3.664
78307SOL    HW136753   1.556  14.003   3.637
78307SOL    HW236754   1.411  13.963   3.624
78308SOL     OW36755  11.237   8.332   8.216
78308SOL    HW136756  11.169   8.265   8.209
78308SOL    HW236757  11.318   8.287   8.192
78309SOL     OW36758   1.301   1.820   7.286
78309SOL    HW136759   1.298   1.852   7.376
78309SOL    HW236760   1.381   1.857   7.249
78310SOL     OW36761   0.817   2.445   9.563
78310SOL    HW136762   0.846   2.385   9.494
78310SOL    HW236763   0.723   2.430   9.569
78311SOL     OW36764   0.269   8.747   0.670
78311SOL    HW136765   0.336   8.799   0.715
78311SOL    HW236766   0.188   8.767   0.716
78312SOL     OW36767   4.086   7.928   9.648
78312SOL    HW136768   4.125   7.871   9.582
78312SOL    HW236769   4.027   7.871   9.697
78313SOL     OW36770   4.471   1.646  14.365
78313SOL    HW136771   4.549   1.643  14.309
78313SOL    HW236772   4.399   1.620  14.307
78314SOL     OW36773   5.812  14.041   9.158
78314SOL    HW136774   5.820  14.114   9.096
78314SOL    HW236775   5.869  14.065   9.230
78315SOL     OW36776   3.428  12.836  11.253
78315SOL    HW136777   3.469  12.757  11.217
78315SOL    HW236778   3.501  12.887  11.289
78316SOL     OW36779   8.756   0.028   8.831
78316SOL    HW136780   8.840   0.036   8.876
78316SOL    HW236781   8.691   0.054   8.896
78317SOL     OW36782  11.505   5.596   1.853
78317SOL    HW136783  11.485   5.673   1.800
78317SOL    HW236784  11.424   5.545   1.851
78318SOL     OW36785   9.922   8.857   2.693
78318SOL    HW136786   9.854   8.857   2.626
78318SOL    HW236787   9.899   8.785   2.751
78319SOL     OW36788   1.316   8.397  14.346
78319SOL    HW136789   1.323   8.331  14.277
78319SOL    HW236790   1.378   8.465  14.322
78320SOL     OW36791   9.595  10.604   9.414
78320SOL    HW136792   9.625  10.572   9.499
78320SOL    HW236793   9.587  10.525   9.360
78321SOL     OW36794   0.508   3.014  11.695
78321SOL    HW136795   0.555   3.090  11.729
78321SOL    HW236796   0.458   3.048  11.621
78322SOL     OW36797  10.844   8.571   7.412
78322SOL    HW136798  10.822   8.664   7.422
78322SOL    HW236799  10.836   8.535   7.500
78323SOL     OW36800   0.056   8.252  13.928
78323SOL    HW136801   0.094   8.207  14.003
78323SOL    HW236802   0.096   8.339  13.929
78324SOL     OW36803   9.784   6.839   2.326
78324SOL    HW136804   9.742   6.832   2.240
78324SOL    HW236805   9.713   6.853   2.388
78325SOL     OW36806   8.403  12.854   4.480
78325SOL    HW136807   8.436  12.895   4.560
78325SOL    HW236808   8.434  12.763   4.487
78326SOL     OW36809   9.792   7.029   1.257
78326SOL    HW136810   9.859   7.059   1.195
78326SOL    HW236811   9.822   7.063   1.342
78327SOL     OW36812   2.614   9.571  13.457
78327SOL    HW136813   2.686   9.519  13.420
78327SOL    HW236814   2.548   9.573  13.387
78328SOL     OW36815   5.000  14.607   8.302
78328SOL    HW136816   5.089  14.598   8.335
78328SOL    HW236817   4.997  14.549   8.226
78329SOL     OW36818  11.484   2.471   8.942
78329SOL    HW136819  11.545   2.512   9.003
78329SOL    HW236820  11.410   2.443   8.995
78330SOL     OW36821  14.095   9.426   8.340
78330SOL    HW136822  14.104   9.497   8.405
78330SOL    HW236823  14.007   9.392   8.354
78331SOL     OW36824   6.881   2.765   1.728
78331SOL    HW136825   6.853   2.811   1.807
78331SOL    HW236826   6.870   2.829   1.657
78332SOL     OW36827   3.671  13.097  10.031
78332SOL    HW136828   3.579  13.076  10.043
78332SOL    HW236829   3.671  13.166   9.965
78333SOL     OW36830   9.811   0.963   8.222
78333SOL    HW136831   9.731   1.003   8.257
78333SOL    HW236832   9.815   0.993   8.132
78334SOL     OW36833   0.998   5.321   3.637
78334SOL    HW136834   0.951   5.243   3.606
78334SOL    HW236835   1.038   5.358   3.558
78335SOL     OW36836   9.391   9.094   6.497
78335SOL    HW136837   9.456   9.041   6.543
78335SOL    HW236838   9.434   9.122   6.417
78336SOL     OW36839  10.229   5.195   1.106
78336SOL    HW136840  10.320   5.190   1.077
78336SOL    HW236841  10.186   5.124   1.059
78337SOL     OW36842   8.957  12.643  10.905
78337SOL    HW136843   8.942  12.667  10.814
78337SOL    HW236844   9.052  12.639  10.914
78338SOL     OW36845   5.984   8.287   8.500
78338SOL    HW136846   5.930   8.236   8.560
78338SOL    HW236847   5.926   8.306   8.426
78339SOL     OW36848   0.711  11.871   2.497
78339SOL    HW136849   0.664  11.950   2.523
78339SOL    HW236850   0.694  11.863   2.403
78340SOL     OW36851   9.689  13.354   1.739
78340SOL    HW136852   9.690  13.408   1.660
78340SOL    HW236853   9.736  13.274   1.714
78341SOL     OW36854   2.544   8.785   8.868
78341SOL    HW136855   2.538   8.696   8.901
78341SOL    HW236856   2.547   8.840   8.946
78342SOL     OW36857   2.929  11.482  11.348
78342SOL    HW136858   2.941  11.575  11.363
78342SOL    HW236859   3.000  11.458  11.287
78343SOL     OW36860   0.914  11.972   1.441
78343SOL    HW136861   0.946  12.011   1.359
78343SOL    HW236862   0.866  11.894   1.413
78344SOL     OW36863   1.233   2.018  11.508
78344SOL    HW136864   1.243   2.041  11.600
78344SOL    HW236865   1.323   2.011  11.475
78345SOL     OW36866   1.461   8.502   7.004
78345SOL    HW136867   1.448   8.462   6.918
78345SOL    HW236868   1.501   8.432   7.057
78346SOL     OW36869  11.601   1.651   1.112
78346SOL    HW136870  11.524   1.683   1.160
78346SOL    HW236871  11.657   1.728   1.103
78347SOL     OW36872   4.997  12.930   7.468
78347SOL    HW136873   4.940  12.871   7.517
78347SOL    HW236874   4.983  13.016   7.508
78348SOL     OW36875   0.251   0.722   3.267
78348SOL    HW136876   0.228   0.738   3.175
78348SOL    HW236877   0.274   0.629   3.270
78349SOL     OW36878   4.678   3.865   3.384
78349SOL    HW136879   4.610   3.930   3.397
78349SOL    HW236880   4.700   3.871   3.291
78350SOL     OW36881   3.138   8.414   4.497
78350SOL    HW136882   3.088   8.490   4.526
78350SOL    HW236883   3.088   8.377   4.425
78351SOL     OW36884   0.077   8.290   4.465
78351SOL    HW136885   0.145   8.306   4.400
78351SOL    HW236886  14.868   8.292   4.416
78352SOL     OW36887   4.466   1.853  10.972
78352SOL    HW136888   4.460   1.923  10.907
78352SOL    HW236889   4.378   1.816  10.975
78353SOL     OW36890  14.605   5.942   6.994
78353SOL    HW136891  14.522   5.990   6.995
78353SOL    HW236892  14.605   5.894   6.911
78354SOL     OW36893   1.109  14.663   6.252
78354SOL    HW136894   1.051  14.719   6.303
78354SOL    HW236895   1.099  14.694   6.162
78355SOL     OW36896   3.604   8.138  13.486
78355SOL    HW136897   3.681   8.085  13.465
78355SOL    HW236898   3.599   8.136  13.581
78356SOL     OW36899  12.523   7.172   7.487
78356SOL    HW136900  12.513   7.087   7.529
78356SOL    HW236901  12.463   7.230   7.534
78357SOL     OW36902  14.579   1.036   0.728
78357SOL    HW136903  14.610   0.993   0.649
78357SOL    HW236904  14.489   1.005   0.739
78358SOL     OW36905   0.174   2.944   3.641
78358SOL    HW136906   0.094   2.952   3.694
78358SOL    HW236907   0.152   2.988   3.559
78359SOL     OW36908   1.284  14.591  13.955
78359SOL    HW136909   1.202  14.614  14.000
78359SOL    HW236910   1.312  14.673  13.915
78360SOL     OW36911   6.445  10.921   9.053
78360SOL    HW136912   6.439  11.009   9.016
78360SOL    HW236913   6.357  10.885   9.045
78361SOL     OW36914   2.355   8.801   5.016
78361SOL    HW136915   2.423   8.854   5.056
78361SOL    HW236916   2.397   8.717   4.998
78362SOL     OW36917   2.964   8.077   4.897
78362SOL    HW136918   3.011   8.138   4.954
78362SOL    HW236919   3.016   8.077   4.816
78363SOL     OW36920   0.179  11.021  12.247
78363SOL    HW136921   0.202  11.046  12.337
78363SOL    HW236922   0.231  11.080  12.192
78364SOL     OW36923   6.812  11.839  13.010
78364SOL    HW136924   6.851  11.810  13.092
78364SOL    HW236925   6.885  11.842  12.948
78365SOL     OW36926   4.784  11.765   7.597
78365SOL    HW136927   4.842  11.831   7.560
78365SOL    HW236928   4.709  11.763   7.537
78366SOL     OW36929   4.174   6.012   6.841
78366SOL    HW136930   4.165   6.015   6.745
78366SOL    HW236931   4.172   6.103   6.868
78367SOL     OW36932   1.584   7.276  12.450
78367SOL    HW136933   1.613   7.343  12.388
78367SOL    HW236934   1.590   7.319  12.535
78368SOL     OW36935   5.331  10.333   9.201
78368SOL    HW136936   5.334  10.389   9.279
78368SOL    HW236937   5.422  10.307   9.187
78369SOL     OW36938   5.616   1.310   1.530
78369SOL    HW136939   5.687   1.356   1.577
78369SOL    HW236940   5.536   1.346   1.568
78370SOL     OW36941   5.525   8.946   4.007
78370SOL    HW136942   5.488   8.863   3.975
78370SOL    HW236943   5.526   8.936   4.102
78371SOL     OW36944  14.266   0.697   2.115
78371SOL    HW136945  14.199   0.710   2.182
78371SOL    HW236946  14.221   0.713   2.032
78372SOL     OW36947   8.853  12.676  11.854
78372SOL    HW136948   8.837  12.707  11.765
78372SOL    HW236949   8.852  12.581  11.846
78373SOL     OW36950   7.713   4.652   5.860
78373SOL    HW136951   7.652   4.726   5.869
78373SOL    HW236952   7.719   4.616   5.948
78374SOL     OW36953   1.380   6.599  11.806
78374SOL    HW136954   1.413   6.554  11.727
78374SOL    HW236955   1.376   6.691  11.781
78375SOL     OW36956  12.516   7.208   5.591
78375SOL    HW136957  12.449   7.234   5.653
78375SOL    HW236958  12.552   7.127   5.627
78376SOL     OW36959   2.303   8.963   5.306
78376SOL    HW136960   2.371   8.959   5.374
78376SOL    HW236961   2.278   8.871   5.293
78377SOL     OW36962   4.672   0.059  10.557
78377SOL    HW136963   4.731  14.861  10.586
78377SOL    HW236964   4.731   0.127  10.525
78378SOL     OW36965  10.423   8.968  11.155
78378SOL    HW136966  10.408   8.883  11.197
78378SOL    HW236967  10.338   8.991  11.117
78379SOL     OW36968  12.770   4.594   8.035
78379SOL    HW136969  12.694   4.652   8.043
78379SOL    HW236970  12.783   4.583   7.941
78380SOL     OW36971   4.088  10.868   6.348
78380SOL    HW136972   4.043  10.881   6.431
78380SOL    HW236973   4.177  10.901   6.363
78381SOL     OW36974   0.370   5.311  14.023
78381SOL    HW136975   0.400   5.259  14.097
78381SOL    HW236976   0.300   5.365  14.058
78382SOL     OW36977   3.131   6.763  14.776
78382SOL    HW136978   3.180   6.837  14.740
78382SOL    HW236979   3.060   6.803  14.827
78383SOL     OW36980   6.988  10.402  11.621
78383SOL    HW136981   7.054  10.435  11.683
78383SOL    HW236982   6.911  10.384  11.676
78384SOL     OW36983  12.164   6.257   9.221
78384SOL    HW136984  12.211   6.191   9.170
78384SOL    HW236985  12.096   6.208   9.267
78385SOL     OW36986  12.013  12.848   5.366
78385SOL    HW136987  11.931  12.798   5.366
78385SOL    HW236988  12.047  12.838   5.455
78386SOL     OW36989   4.538   9.744   1.020
78386SOL    HW136990   4.619   9.711   1.059
78386SOL    HW236991   4.534   9.702   0.934
78387SOL     OW36992   1.550   8.780   7.399
78387SOL    HW136993   1.630   8.728   7.409
78387SOL    HW236994   1.551   8.809   7.307
78388SOL     OW36995   2.455   2.543   4.781
78388SOL    HW136996   2.420   2.507   4.700
78388SOL    HW236997   2.517   2.610   4.753
78389SOL     OW36998   0.734  13.155   8.268
78389SOL    HW136999   0.677  13.178   8.342
78389SOL    HW237000   0.823  13.162   8.303
78390SOL     OW37001  13.910  11.517   5.827
78390SOL    HW137002  13.840  11.538   5.888
78390SOL    HW237003  13.881  11.556   5.744
78391SOL     OW37004  12.487   9.639   7.778
78391SOL    HW137005  12.486   9.556   7.732
78391SOL    HW237006  12.577   9.670   7.770
78392SOL     OW37007  10.802  11.894   3.307
78392SOL    HW137008  10.880  11.932   3.345
78392SOL    HW237009  10.794  11.935   3.221
78393SOL     OW37010   1.053   6.049   5.856
78393SOL    HW137011   0.991   6.088   5.795
78393SOL    HW237012   1.003   6.036   5.936
78394SOL     OW37013  12.112   5.972   1.275
78394SOL    HW137014  12.085   6.011   1.192
78394SOL    HW237015  12.058   6.017   1.340
78395SOL     OW37016   1.075   1.658  11.586
78395SOL    HW137017   1.061   1.747  11.552
78395SOL    HW237018   1.170   1.651  11.596
78396SOL     OW37019   3.674   7.051   2.572
78396SOL    HW137020   3.672   7.133   2.622
78396SOL    HW237021   3.603   6.998   2.609
78397SOL     OW37022   2.553   3.049   2.374
78397SOL    HW137023   2.617   3.006   2.431
78397SOL    HW237024   2.475   2.995   2.382
78398SOL     OW37025  10.455  11.432   4.212
78398SOL    HW137026  10.433  11.355   4.161
78398SOL    HW237027  10.543  11.456   4.183
78399SOL     OW37028  13.527  14.301   5.217
78399SOL    HW137029  13.514  14.312   5.311
78399SOL    HW237030  13.440  14.283   5.182
78400SOL     OW37031   4.879  11.176   2.210
78400SOL    HW137032   4.830  11.099   2.235
78400SOL    HW237033   4.814  11.246   2.206
78401SOL     OW37034   1.319   1.643   4.562
78401SOL    HW137035   1.226   1.622   4.555
78401SOL    HW237036   1.322   1.724   4.614
78402SOL     OW37037   1.600   0.417  14.573
78402SOL    HW137038   1.671   0.479  14.592
78402SOL    HW237039   1.598   0.412  14.478
78403SOL     OW37040   6.470   3.430   3.220
78403SOL    HW137041   6.394   3.375   3.200
78403SOL    HW237042   6.477   3.489   3.146
78404SOL     OW37043   6.178   5.078   1.259
78404SOL    HW137044   6.116   5.148   1.238
78404SOL    HW237045   6.249   5.121   1.307
78405SOL     OW37046   3.260  12.209   4.048
78405SOL    HW137047   3.306  12.283   4.087
78405SOL    HW237048   3.252  12.232   3.956
78406SOL     OW37049   9.850   5.717   4.808
78406SOL    HW137050   9.791   5.642   4.814
78406SOL    HW237051   9.893   5.721   4.893
78407SOL     OW37052  13.188  11.981   4.584
78407SOL    HW137053  13.236  11.901   4.562
78407SOL    HW237054  13.152  11.965   4.671
78408SOL     OW37055   5.661  12.070   3.793
78408SOL    HW137056   5.588  12.083   3.853
78408SOL    HW237057   5.733  12.121   3.831
78409SOL     OW37058   0.623  12.125  13.398
78409SOL    HW137059   0.613  12.115  13.493
78409SOL    HW237060   0.650  12.038  13.368
78410SOL     OW37061   0.569   9.108  13.177
78410SOL    HW137062   0.521   9.148  13.104
78410SOL    HW237063   0.534   9.018  13.182
78411SOL     OW37064  13.326   0.498   4.308
78411SOL    HW137065  13.243   0.460   4.335
78411SOL    HW237066  13.384   0.423   4.294
78412SOL     OW37067   9.326  11.288   1.268
78412SOL    HW137068   9.388  11.263   1.199
78412SOL    HW237069   9.365  11.366   1.308
78413SOL     OW37070   0.427   1.467  13.006
78413SOL    HW137071   0.343   1.439  13.041
78413SOL    HW237072   0.481   1.387  13.006
78414SOL     OW37073   6.495   8.632   8.094
78414SOL    HW137074   6.401   8.616   8.108
78414SOL    HW237075   6.500   8.672   8.008
78415SOL     OW37076   2.720   5.774  11.678
78415SOL    HW137077   2.796   5.734  11.635
78415SOL    HW237078   2.725   5.867  11.655
78416SOL     OW37079   1.906   5.207  10.060
78416SOL    HW137080   1.882   5.177   9.973
78416SOL    HW237081   1.969   5.141  10.092
78417SOL     OW37082   8.396   2.209  14.279
78417SOL    HW137083   8.346   2.134  14.309
78417SOL    HW237084   8.434   2.182  14.195
78418SOL     OW37085   1.223   9.990   2.862
78418SOL    HW137086   1.276  10.002   2.941
78418SOL    HW237087   1.252   9.907   2.826
78419SOL     OW37088   5.729   7.112   6.603
78419SOL    HW137089   5.752   7.041   6.663
78419SOL    HW237090   5.654   7.155   6.644
78420SOL     OW37091   6.812  13.228   4.536
78420SOL    HW137092   6.784  13.215   4.445
78420SOL    HW237093   6.893  13.177   4.543
78421SOL     OW37094   1.890   1.251   7.552
78421SOL    HW137095   1.983   1.242   7.531
78421SOL    HW237096   1.844   1.218   7.475
78422SOL     OW37097   0.190  14.758   5.703
78422SOL    HW137098   0.273  14.712   5.717
78422SOL    HW237099   0.143  14.748   5.786
78423SOL     OW37100   8.205  10.869  11.678
78423SOL    HW137101   8.272  10.937  11.677
78423SOL    HW237102   8.244  10.796  11.630
78424SOL     OW37103  11.970   8.542   0.608
78424SOL    HW137104  11.930   8.522   0.692
78424SOL    HW237105  12.025   8.466   0.588
78425SOL     OW37106   7.994   2.965   1.981
78425SOL    HW137107   7.967   2.943   2.070
78425SOL    HW237108   8.000   2.881   1.936
78426SOL     OW37109  12.983   2.206   5.135
78426SOL    HW137110  13.056   2.195   5.195
78426SOL    HW237111  12.905   2.186   5.187
78427SOL     OW37112  13.479  12.121   4.026
78427SOL    HW137113  13.573  12.113   4.009
78427SOL    HW237114  13.438  12.073   3.954
78428SOL     OW37115   9.817   0.332   4.425
78428SOL    HW137116   9.766   0.402   4.467
78428SOL    HW237117   9.782   0.328   4.336
78429SOL     OW37118   1.737  14.371   2.183
78429SOL    HW137119   1.716  14.362   2.276
78429SOL    HW237120   1.832  14.388   2.182
78430SOL     OW37121  10.595   7.013  11.888
78430SOL    HW137122  10.531   7.012  11.959
78430SOL    HW237123  10.556   6.960  11.819
78431SOL     OW37124  11.927   6.536   9.620
78431SOL    HW137125  11.936   6.489   9.703
78431SOL    HW237126  11.833   6.551   9.610
78432SOL     OW37127  13.166  10.477  10.568
78432SOL    HW137128  13.128  10.437  10.646
78432SOL    HW237129  13.096  10.474  10.502
78433SOL     OW37130   3.400  10.377  13.923
78433SOL    HW137131   3.319  10.422  13.901
78433SOL    HW237132   3.390  10.289  13.888
78434SOL     OW37133   7.515  10.540   2.717
78434SOL    HW137134   7.463  10.561   2.640
78434SOL    HW237135   7.571  10.617   2.730
78435SOL     OW37136  12.978   5.715  14.161
78435SOL    HW137137  12.949   5.693  14.072
78435SOL    HW237138  13.009   5.633  14.198
78436SOL     OW37139   7.757   4.319   4.747
78436SOL    HW137140   7.670   4.288   4.724
78436SOL    HW237141   7.750   4.345   4.838
78437SOL     OW37142  14.499   4.504   8.572
78437SOL    HW137143  14.509   4.483   8.479
78437SOL    HW237144  14.457   4.590   8.573
78438SOL     OW37145  10.389   7.175   4.351
78438SOL    HW137146  10.313   7.162   4.407
78438SOL    HW237147  10.442   7.096   4.362
78439SOL     OW37148  10.460   9.518  13.275
78439SOL    HW137149  10.391   9.479  13.221
78439SOL    HW237150  10.450   9.475  13.360
78440SOL     OW37151  10.855  10.266   0.608
78440SOL    HW137152  10.863  10.339   0.670
78440SOL    HW237153  10.935  10.215   0.621
78441SOL     OW37154   8.356   1.747  10.846
78441SOL    HW137155   8.349   1.831  10.801
78441SOL    HW237156   8.282   1.745  10.907
78442SOL     OW37157   4.977   2.064   8.397
78442SOL    HW137158   5.007   2.134   8.339
78442SOL    HW237159   4.888   2.091   8.422
78443SOL     OW37160  13.504   0.843   4.750
78443SOL    HW137161  13.462   0.833   4.664
78443SOL    HW237162  13.446   0.796   4.810
78444SOL     OW37163   5.690  12.967   5.757
78444SOL    HW137164   5.602  13.000   5.773
78444SOL    HW237165   5.677  12.881   5.719
78445SOL     OW37166   2.388   1.808  11.102
78445SOL    HW137167   2.366   1.729  11.052
78445SOL    HW237168   2.453   1.778  11.166
78446SOL     OW37169   3.803   4.732  11.910
78446SOL    HW137170   3.895   4.748  11.889
78446SOL    HW237171   3.801   4.643  11.945
78447SOL     OW37172   0.039   8.763   2.310
78447SOL    HW137173   0.088   8.802   2.383
78447SOL    HW237174   0.104   8.711   2.263
78448SOL     OW37175   8.207   0.271   6.764
78448SOL    HW137176   8.173   0.287   6.852
78448SOL    HW237177   8.131   0.282   6.707
78449SOL     OW37178   6.178   4.692   7.463
78449SOL    HW137179   6.140   4.608   7.488
78449SOL    HW237180   6.205   4.680   7.372
78450SOL     OW37181  14.595  10.194   0.415
78450SOL    HW137182  14.671  10.136   0.417
78450SOL    HW237183  14.592  10.233   0.503
78451SOL     OW37184   7.091  10.661  14.770
78451SOL    HW137185   7.138  10.578  14.755
78451SOL    HW237186   7.119  10.689  14.857
78452SOL     OW37187   1.061  12.781   7.497
78452SOL    HW137188   1.077  12.838   7.572
78452SOL    HW237189   0.975  12.808   7.464
78453SOL     OW37190   1.390  14.570   1.945
78453SOL    HW137191   1.384  14.652   1.896
78453SOL    HW237192   1.407  14.598   2.035
78454SOL     OW37193   3.975   3.716   5.569
78454SOL    HW137194   4.001   3.748   5.655
78454SOL    HW237195   3.990   3.622   5.571
78455SOL     OW37196   6.231  14.697  11.704
78455SOL    HW137197   6.224  14.685  11.609
78455SOL    HW237198   6.190  14.781  11.721
78456SOL     OW37199  11.429   2.915   0.976
78456SOL    HW137200  11.508   2.862   0.966
78456SOL    HW237201  11.448   2.995   0.926
78457SOL     OW37202   9.153   9.636   3.392
78457SOL    HW137203   9.072   9.685   3.375
78457SOL    HW237204   9.127   9.544   3.386
78458SOL     OW37205  13.395  11.107  13.087
78458SOL    HW137206  13.355  11.194  13.082
78458SOL    HW237207  13.378  11.069  13.001
78459SOL     OW37208   6.363   0.357   7.270
78459SOL    HW137209   6.433   0.416   7.243
78459SOL    HW237210   6.336   0.313   7.189
78460SOL     OW37211   0.971   2.029   1.818
78460SOL    HW137212   0.974   1.934   1.822
78460SOL    HW237213   1.059   2.054   1.788
78461SOL     OW37214  12.397   4.814   9.761
78461SOL    HW137215  12.458   4.752   9.801
78461SOL    HW237216  12.315   4.803   9.809
78462SOL     OW37217   1.606  10.054   7.297
78462SOL    HW137218   1.679  10.074   7.238
78462SOL    HW237219   1.576  10.139   7.328
78463SOL     OW37220   6.763  10.969   9.651
78463SOL    HW137221   6.833  11.019   9.609
78463SOL    HW237222   6.781  10.878   9.628
78464SOL     OW37223  12.094   9.934  13.356
78464SOL    HW137224  12.186   9.914  13.370
78464SOL    HW237225  12.052   9.848  13.353
78465SOL     OW37226  14.138   9.776   9.137
78465SOL    HW137227  14.197   9.702   9.123
78465SOL    HW237228  14.061   9.755   9.084
78466SOL     OW37229   1.844   5.194   3.555
78466SOL    HW137230   1.868   5.102   3.571
78466SOL    HW237231   1.834   5.232   3.643
78467SOL     OW37232  10.871   9.675  14.766
78467SOL    HW137233  10.829   9.613  14.707
78467SOL    HW237234  10.801   9.735  14.791
78468SOL     OW37235  14.192   9.410   5.100
78468SOL    HW137236  14.278   9.432   5.063
78468SOL    HW237237  14.158   9.493   5.133
78469SOL     OW37238  12.627   3.412   6.483
78469SOL    HW137239  12.634   3.321   6.454
78469SOL    HW237240  12.643   3.464   6.405
78470SOL     OW37241   2.800   4.568  10.746
78470SOL    HW137242   2.780   4.511  10.821
78470SOL    HW237243   2.843   4.509  10.683
78471SOL     OW37244  14.018   4.686   9.950
78471SOL    HW137245  14.064   4.668   9.868
78471SOL    HW237246  14.077   4.656  10.019
78472SOL     OW37247   4.785   3.519   7.245
78472SOL    HW137248   4.766   3.480   7.160
78472SOL    HW237249   4.775   3.613   7.231
78473SOL     OW37250   0.163   9.880  10.670
78473SOL    HW137251   0.082   9.912  10.632
78473SOL    HW237252   0.136   9.811  10.731
78474SOL     OW37253   2.307   8.701   7.135
78474SOL    HW137254   2.274   8.614   7.158
78474SOL    HW237255   2.232   8.759   7.147
78475SOL     OW37256   4.638  14.575   1.854
78475SOL    HW137257   4.716  14.623   1.882
78475SOL    HW237258   4.671  14.507   1.794
78476SOL     OW37259  13.579  11.012  12.493
78476SOL    HW137260  13.671  11.041  12.491
78476SOL    HW237261  13.568  10.963  12.412
78477SOL     OW37262   6.846   1.374   1.727
78477SOL    HW137263   6.805   1.345   1.808
78477SOL    HW237264   6.783   1.436   1.689
78478SOL     OW37265  12.144  11.959   0.771
78478SOL    HW137266  12.086  11.979   0.698
78478SOL    HW237267  12.180  11.872   0.750
78479SOL     OW37268   5.155   0.649  14.254
78479SOL    HW137269   5.069   0.620  14.286
78479SOL    HW237270   5.151   0.745  14.261
78480SOL     OW37271  11.330  13.111   8.451
78480SOL    HW137272  11.291  13.073   8.372
78480SOL    HW237273  11.424  13.112   8.433
78481SOL     OW37274  12.158   7.299   9.718
78481SOL    HW137275  12.138   7.207   9.730
78481SOL    HW237276  12.158   7.336   9.806
78482SOL     OW37277   9.693   0.107   0.734
78482SOL    HW137278   9.627   0.174   0.719
78482SOL    HW237279   9.644   0.033   0.770
78483SOL     OW37280   4.190  13.560   6.566
78483SOL    HW137281   4.240  13.501   6.622
78483SOL    HW237282   4.119  13.592   6.621
78484SOL     OW37283   9.530   1.278  14.386
78484SOL    HW137284   9.515   1.210  14.452
78484SOL    HW237285   9.443   1.310  14.364
78485SOL     OW37286  12.799   9.837  11.337
78485SOL    HW137287  12.869   9.870  11.393
78485SOL    HW237288  12.819   9.744  11.325
78486SOL     OW37289   9.833   0.735  14.011
78486SOL    HW137290   9.829   0.831  14.014
78486SOL    HW237291   9.742   0.707  14.013
78487SOL     OW37292   1.911   8.389  12.266
78487SOL    HW137293   1.995   8.433  12.256
78487SOL    HW237294   1.927   8.299  12.239
78488SOL     OW37295   5.420   7.415   7.677
78488SOL    HW137296   5.484   7.481   7.704
78488SOL    HW237297   5.459   7.374   7.601
78489SOL     OW37298   0.614   8.614   5.744
78489SOL    HW137299   0.639   8.670   5.671
78489SOL    HW237300   0.688   8.555   5.756
78490SOL     OW37301  11.371   4.469  12.878
78490SOL    HW137302  11.283   4.488  12.846
78490SOL    HW237303  11.401   4.395  12.826
78491SOL     OW37304   9.096   0.033   4.032
78491SOL    HW137305   9.022   0.073   4.078
78491SOL    HW237306   9.152   0.107   4.008
78492SOL     OW37307   9.985   6.776  10.117
78492SOL    HW137308  10.062   6.820  10.079
78492SOL    HW237309  10.020   6.695  10.155
78493SOL     OW37310   1.660   9.401   4.850
78493SOL    HW137311   1.745   9.419   4.890
78493SOL    HW237312   1.606   9.369   4.922
78494SOL     OW37313  10.417  13.748   5.698
78494SOL    HW137314  10.348  13.813   5.704
78494SOL    HW237315  10.442  13.729   5.788
78495SOL     OW37316   8.601  11.888  11.804
78495SOL    HW137317   8.532  11.916  11.743
78495SOL    HW237318   8.669  11.852  11.748
78496SOL     OW37319   9.940   8.468   4.592
78496SOL    HW137320   9.899   8.527   4.656
78496SOL    HW237321  10.033   8.487   4.598
78497SOL     OW37322  11.596   4.024  10.042
78497SOL    HW137323  11.612   3.930  10.050
78497SOL    HW237324  11.511   4.031  10.000
78498SOL     OW37325   7.502   8.096   4.159
78498SOL    HW137326   7.410   8.081   4.180
78498SOL    HW237327   7.509   8.082   4.065
78499SOL     OW37328   8.225  12.358   9.113
78499SOL    HW137329   8.250  12.418   9.183
78499SOL    HW237330   8.147  12.313   9.146
78500SOL     OW37331   7.065   2.961   6.473
78500SOL    HW137332   6.990   2.976   6.416
78500SOL    HW237333   7.118   3.040   6.465
78501SOL     OW37334   7.447   2.680   2.259
78501SOL    HW137335   7.521   2.717   2.308
78501SOL    HW237336   7.429   2.597   2.303
78502SOL     OW37337  12.944   9.901   7.660
78502SOL    HW137338  12.988   9.976   7.618
78502SOL    HW237339  13.016   9.850   7.699
78503SOL     OW37340  14.158  11.802   9.273
78503SOL    HW137341  14.249  11.795   9.303
78503SOL    HW237342  14.115  11.725   9.309
78504SOL     OW37343   9.203   5.922  11.286
78504SOL    HW137344   9.232   5.980  11.356
78504SOL    HW237345   9.246   5.957  11.207
78505SOL     OW37346   2.231  14.785  14.442
78505SOL    HW137347   2.287  14.743  14.506
78505SOL    HW237348   2.152  14.810  14.490
78506SOL     OW37349   3.184  11.691   8.248
78506SOL    HW137350   3.197  11.644   8.330
78506SOL    HW237351   3.110  11.646   8.207
78507SOL     OW37352   0.148   1.535   2.514
78507SOL    HW137353   0.063   1.499   2.489
78507SOL    HW237354   0.183   1.574   2.434
78508SOL     OW37355   7.057  10.175  14.655
78508SOL    HW137356   7.079  10.263  14.625
78508SOL    HW237357   6.963  10.179  14.673
78509SOL     OW37358   0.865  11.580   7.343
78509SOL    HW137359   0.845  11.530   7.264
78509SOL    HW237360   0.793  11.643   7.350
78510SOL     OW37361   8.649   8.796   7.721
78510SOL    HW137362   8.639   8.705   7.749
78510SOL    HW237363   8.560   8.832   7.724
78511SOL     OW37364   6.704  11.903   8.216
78511SOL    HW137365   6.705  11.926   8.309
78511SOL    HW237366   6.711  11.987   8.170
78512SOL     OW37367   5.812   5.255   6.173
78512SOL    HW137368   5.816   5.225   6.082
78512SOL    HW237369   5.894   5.225   6.212
78513SOL     OW37370   1.615   2.551   8.486
78513SOL    HW137371   1.682   2.604   8.530
78513SOL    HW237372   1.596   2.600   8.406
78514SOL     OW37373   1.717  14.630   4.824
78514SOL    HW137374   1.731  14.597   4.912
78514SOL    HW237375   1.741  14.558   4.766
78515SOL     OW37376   8.388  12.960   4.018
78515SOL    HW137377   8.315  13.012   4.052
78515SOL    HW237378   8.427  12.920   4.096
78516SOL     OW37379  12.833   7.287  11.044
78516SOL    HW137380  12.801   7.199  11.028
78516SOL    HW237381  12.766   7.344  11.007
78517SOL     OW37382  13.584   2.550   1.489
78517SOL    HW137383  13.551   2.461   1.478
78517SOL    HW237384  13.672   2.548   1.452
78518SOL     OW37385   7.704  12.314  10.776
78518SOL    HW137386   7.747  12.340  10.857
78518SOL    HW237387   7.717  12.220  10.771
78519SOL     OW37388  10.076  11.416   9.352
78519SOL    HW137389  10.062  11.499   9.306
78519SOL    HW237390  10.142  11.370   9.299
78520SOL     OW37391   9.900   8.082   1.362
78520SOL    HW137392   9.861   8.088   1.449
78520SOL    HW237393   9.848   8.016   1.317
78521SOL     OW37394  13.343  13.861  12.191
78521SOL    HW137395  13.414  13.800  12.212
78521SOL    HW237396  13.373  13.907  12.112
78522SOL     OW37397   4.540   1.313   4.119
78522SOL    HW137398   4.576   1.335   4.206
78522SOL    HW237399   4.600   1.354   4.057
78523SOL     OW37400   5.778   3.707   6.865
78523SOL    HW137401   5.720   3.721   6.790
78523SOL    HW237402   5.745   3.767   6.932
78524SOL     OW37403  10.416   3.527  11.022
78524SOL    HW137404  10.503   3.488  11.013
78524SOL    HW237405  10.420   3.575  11.105
78525SOL     OW37406   2.830   1.131   5.244
78525SOL    HW137407   2.838   1.075   5.167
78525SOL    HW237408   2.832   1.221   5.209
78526SOL     OW37409   7.698  13.393  11.496
78526SOL    HW137410   7.779  13.350  11.523
78526SOL    HW237411   7.631  13.325  11.503
78527SOL     OW37412   0.826   6.038   6.858
78527SOL    HW137413   0.789   6.104   6.917
78527SOL    HW237414   0.887   5.989   6.914
78528SOL     OW37415   1.748  11.334  13.865
78528SOL    HW137416   1.719  11.422  13.842
78528SOL    HW237417   1.686  11.275  13.822
78529SOL     OW37418  11.898   6.973   4.904
78529SOL    HW137419  11.896   6.917   4.825
78529SOL    HW237420  11.877   7.060   4.872
78530SOL     OW37421   1.932   0.960   5.141
78530SOL    HW137422   1.913   0.921   5.056
78530SOL    HW237423   1.860   1.020   5.157
78531SOL     OW37424  14.206   7.786   4.187
78531SOL    HW137425  14.128   7.825   4.146
78531SOL    HW237426  14.175   7.754   4.272
78532SOL     OW37427  10.034   5.014   3.790
78532SOL    HW137428   9.942   4.991   3.784
78532SOL    HW237429  10.081   4.933   3.769
78533SOL     OW37430   6.959   1.243   0.471
78533SOL    HW137431   6.928   1.159   0.435
78533SOL    HW237432   7.048   1.225   0.502
78534SOL     OW37433   7.172  13.089   4.240
78534SOL    HW137434   7.267  13.096   4.248
78534SOL    HW237435   7.142  13.060   4.326
78535SOL     OW37436   9.217   5.058   0.628
78535SOL    HW137437   9.273   5.108   0.569
78535SOL    HW237438   9.226   4.967   0.599
78536SOL     OW37439   3.959  13.751   0.159
78536SOL    HW137440   3.933  13.796   0.239
78536SOL    HW237441   4.053  13.734   0.171
78537SOL     OW37442   8.479  11.118   3.942
78537SOL    HW137443   8.462  11.048   4.004
78537SOL    HW237444   8.513  11.074   3.864
78538SOL     OW37445   1.386  11.133   4.025
78538SOL    HW137446   1.439  11.090   4.092
78538SOL    HW237447   1.444  11.137   3.948
78539SOL     OW37448  11.491  13.405   1.680
78539SOL    HW137449  11.455  13.489   1.709
78539SOL    HW237450  11.469  13.400   1.587
78540SOL     OW37451   3.210   6.575  14.276
78540SOL    HW137452   3.177   6.559  14.365
78540SOL    HW237453   3.256   6.495  14.252
78541SOL     OW37454   0.453  13.069   1.466
78541SOL    HW137455   0.476  13.120   1.388
78541SOL    HW237456   0.380  13.014   1.438
78542SOL     OW37457  11.311  11.260  13.926
78542SOL    HW137458  11.396  11.287  13.961
78542SOL    HW237459  11.275  11.338  13.884
78543SOL     OW37460   5.131   6.362   8.649
78543SOL    HW137461   5.158   6.276   8.615
78543SOL    HW237462   5.209   6.394   8.695
78544SOL     OW37463  10.226   0.415   4.995
78544SOL    HW137464  10.238   0.371   4.911
78544SOL    HW237465  10.277   0.495   4.987
78545SOL     OW37466   9.207  13.953   9.708
78545SOL    HW137467   9.224  13.919   9.620
78545SOL    HW237468   9.146  13.889   9.747
78546SOL     OW37469  10.774  11.037  11.859
78546SOL    HW137470  10.787  10.962  11.802
78546SOL    HW237471  10.741  11.000  11.941
78547SOL     OW37472  14.465   7.922  13.826
78547SOL    HW137473  14.373   7.910  13.803
78547SOL    HW237474  14.464   7.980  13.902
78548SOL     OW37475   4.505  13.270  14.107
78548SOL    HW137476   4.468  13.219  14.178
78548SOL    HW237477   4.514  13.359  14.142
78549SOL     OW37478   0.908   9.818  11.794
78549SOL    HW137479   0.930   9.858  11.879
78549SOL    HW237480   0.971   9.856  11.733
78550SOL     OW37481  10.001  14.588   7.018
78550SOL    HW137482   9.910  14.562   7.009
78550SOL    HW237483  10.011  14.662   6.958
78551SOL     OW37484   4.510   5.897   1.435
78551SOL    HW137485   4.452   5.932   1.367
78551SOL    HW237486   4.574   5.967   1.450
78552SOL     OW37487   5.845   2.858   9.617
78552SOL    HW137488   5.881   2.933   9.571
78552SOL    HW237489   5.861   2.784   9.558
78553SOL     OW37490  14.762   3.042   2.233
78553SOL    HW137491  14.774   3.109   2.300
78553SOL    HW237492  14.821   3.067   2.162
78554SOL     OW37493   4.830  12.288   4.366
78554SOL    HW137494   4.879  12.370   4.361
78554SOL    HW237495   4.757  12.307   4.424
78555SOL     OW37496  14.340   1.103  12.118
78555SOL    HW137497  14.295   1.021  12.098
78555SOL    HW237498  14.431   1.088  12.091
78556SOL     OW37499   8.989  10.771   7.549
78556SOL    HW137500   9.059  10.799   7.608
78556SOL    HW237501   9.034  10.743   7.470
78557SOL     OW37502  11.419   1.291  13.288
78557SOL    HW137503  11.487   1.302  13.222
78557SOL    HW237504  11.403   1.196  13.291
78558SOL     OW37505  10.108  13.279  11.307
78558SOL    HW137506  10.094  13.217  11.379
78558SOL    HW237507  10.078  13.363  11.342
78559SOL     OW37508   1.396  10.603  14.488
78559SOL    HW137509   1.381  10.674  14.426
78559SOL    HW237510   1.485  10.617  14.520
78560SOL     OW37511   1.944   0.030   6.903
78560SOL    HW137512   1.955  14.822   6.955
78560SOL    HW237513   1.931  14.871   6.813
78561SOL     OW37514   9.445   9.518   4.467
78561SOL    HW137515   9.354   9.498   4.446
78561SOL    HW237516   9.448   9.614   4.470
78562SOL     OW37517  10.854   7.143   4.041
78562SOL    HW137518  10.768   7.171   4.010
78562SOL    HW237519  10.849   7.151   4.136
78563SOL     OW37520   3.145   9.461   0.842
78563SOL    HW137521   3.133   9.517   0.766
78563SOL    HW237522   3.129   9.373   0.810
78564SOL     OW37523   4.448   3.632   8.359
78564SOL    HW137524   4.448   3.545   8.397
78564SOL    HW237525   4.494   3.686   8.423
78565SOL     OW37526   2.356   5.619   1.054
78565SOL    HW137527   2.282   5.622   1.115
78565SOL    HW237528   2.409   5.696   1.076
78566SOL     OW37529   2.298   8.327   8.544
78566SOL    HW137530   2.254   8.397   8.496
78566SOL    HW237531   2.283   8.349   8.636
78567SOL     OW37532   5.135   6.018   1.291
78567SOL    HW137533   5.082   5.967   1.351
78567SOL    HW237534   5.194   5.954   1.250
78568SOL     OW37535  11.004   2.412   2.030
78568SOL    HW137536  11.009   2.377   1.941
78568SOL    HW237537  11.093   2.402   2.064
78569SOL     OW37538   4.006   5.621  14.325
78569SOL    HW137539   3.920   5.642  14.290
78569SOL    HW237540   4.066   5.635  14.252
78570SOL     OW37541  14.868   0.012   8.579
78570SOL    HW137542   0.085  14.852   8.564
78570SOL    HW237543  14.812  14.809   8.560
78571SOL     OW37544   9.190  10.571   6.562
78571SOL    HW137545   9.119  10.518   6.598
78571SOL    HW237546   9.186  10.554   6.467
78572SOL     OW37547   7.680   6.795  13.609
78572SOL    HW137548   7.632   6.877  13.622
78572SOL    HW237549   7.691   6.790  13.514
78573SOL     OW37550   0.466   6.677   2.262
78573SOL    HW137551   0.444   6.769   2.276
78573SOL    HW237552   0.554   6.667   2.299
78574SOL     OW37553  14.137  12.822   7.788
78574SOL    HW137554  14.137  12.755   7.857
78574SOL    HW237555  14.047  12.823   7.756
78575SOL     OW37556   0.188   5.078   1.089
78575SOL    HW137557   0.186   5.038   1.176
78575SOL    HW237558   0.197   5.004   1.029
78576SOL     OW37559   4.718  10.032   7.193
78576SOL    HW137560   4.644   9.996   7.143
78576SOL    HW237561   4.793  10.023   7.134
78577SOL     OW37562  14.147  11.754   8.744
78577SOL    HW137563  14.203  11.780   8.817
78577SOL    HW237564  14.161  11.822   8.678
78578SOL     OW37565   8.980   9.718  14.570
78578SOL    HW137566   8.937   9.634  14.552
78578SOL    HW237567   8.995   9.755  14.483
78579SOL     OW37568   4.552  14.091   8.757
78579SOL    HW137569   4.638  14.113   8.722
78579SOL    HW237570   4.536  14.158   8.824
78580SOL     OW37571   3.220  14.049   9.382
78580SOL    HW137572   3.289  13.999   9.338
78580SOL    HW237573   3.260  14.079   9.464
78581SOL     OW37574   8.356   5.563   6.227
78581SOL    HW137575   8.335   5.558   6.320
78581SOL    HW237576   8.273   5.584   6.185
78582SOL     OW37577   2.756  13.733   4.656
78582SOL    HW137578   2.842  13.705   4.685
78582SOL    HW237579   2.723  13.788   4.728
78583SOL     OW37580   0.720   9.913   9.934
78583SOL    HW137581   0.791   9.973   9.911
78583SOL    HW237582   0.751   9.827   9.908
78584SOL     OW37583   0.186   4.025   3.665
78584SOL    HW137584   0.136   4.096   3.625
78584SOL    HW237585   0.217   3.972   3.592
78585SOL     OW37586   9.521  10.986  10.790
78585SOL    HW137587   9.451  11.046  10.817
78585SOL    HW237588   9.493  10.953  10.704
78586SOL     OW37589   7.271  11.282   8.711
78586SOL    HW137590   7.218  11.242   8.780
78586SOL    HW237591   7.259  11.223   8.636
78587SOL     OW37592  13.362  11.091  14.243
78587SOL    HW137593  13.429  11.130  14.299
78587SOL    HW237594  13.322  11.165  14.198
78588SOL     OW37595   7.221   2.929  13.511
78588SOL    HW137596   7.201   2.839  13.485
78588SOL    HW237597   7.231   2.925  13.606
78589SOL     OW37598  10.106   7.988   1.735
78589SOL    HW137599  10.183   7.974   1.680
78589SOL    HW237600  10.051   8.047   1.684
78590SOL     OW37601   9.743   8.522   1.431
78590SOL    HW137602   9.772   8.453   1.372
78590SOL    HW237603   9.662   8.489   1.469
78591SOL     OW37604   7.356   2.030   0.534
78591SOL    HW137605   7.426   2.031   0.599
78591SOL    HW237606   7.392   1.977   0.462
78592SOL     OW37607   1.721  10.529   9.610
78592SOL    HW137608   1.734  10.449   9.661
78592SOL    HW237609   1.687  10.499   9.526
78593SOL     OW37610   6.554  13.284   3.537
78593SOL    HW137611   6.482  13.303   3.597
78593SOL    HW237612   6.526  13.322   3.454
78594SOL     OW37613   7.247  13.138  13.389
78594SOL    HW137614   7.185  13.187  13.443
78594SOL    HW237615   7.259  13.193  13.311
78595SOL     OW37616  13.872   9.725   7.687
78595SOL    HW137617  13.808   9.795   7.697
78595SOL    HW237618  13.927   9.753   7.613
78596SOL     OW37619   5.605  14.439   3.642
78596SOL    HW137620   5.697  14.419   3.662
78596SOL    HW237621   5.556  14.365   3.678
78597SOL     OW37622  13.882   4.795  10.979
78597SOL    HW137623  13.794   4.792  11.017
78597SOL    HW237624  13.925   4.716  11.011
78598SOL     OW37625   4.128   9.902   5.964
78598SOL    HW137626   4.081   9.902   6.048
78598SOL    HW237627   4.060   9.896   5.898
78599SOL     OW37628  10.879   6.107  14.453
78599SOL    HW137629  10.877   6.185  14.508
78599SOL    HW237630  10.800   6.058  14.477
78600SOL     OW37631   3.920  13.437   7.194
78600SOL    HW137632   3.874  13.494   7.256
78600SOL    HW237633   3.896  13.348   7.219
78601SOL     OW37634   7.650  14.451   0.522
78601SOL    HW137635   7.683  14.363   0.506
78601SOL    HW237636   7.632  14.453   0.616
78602SOL     OW37637   8.675   2.568   9.798
78602SOL    HW137638   8.640   2.656   9.809
78602SOL    HW237639   8.713   2.568   9.711
78603SOL     OW37640   2.947   4.754   0.694
78603SOL    HW137641   2.922   4.705   0.772
78603SOL    HW237642   2.935   4.691   0.622
78604SOL     OW37643   7.407   5.064   3.813
78604SOL    HW137644   7.476   5.108   3.762
78604SOL    HW237645   7.330   5.119   3.802
78605SOL     OW37646   7.551   7.861  11.560
78605SOL    HW137647   7.511   7.782  11.596
78605SOL    HW237648   7.574   7.838  11.470
78606SOL     OW37649   7.509   0.943   8.613
78606SOL    HW137650   7.426   0.902   8.589
78606SOL    HW237651   7.516   1.017   8.553
78607SOL     OW37652   9.806   1.803  10.173
78607SOL    HW137653   9.748   1.876  10.155
78607SOL    HW237654   9.886   1.823  10.124
78608SOL     OW37655  14.046   2.635  10.181
78608SOL    HW137656  14.121   2.690  10.160
78608SOL    HW237657  14.020   2.664  10.269
78609SOL     OW37658   2.184   0.725   4.322
78609SOL    HW137659   2.151   0.723   4.412
78609SOL    HW237660   2.275   0.754   4.330
78610SOL     OW37661  12.023  14.652   4.990
78610SOL    HW137662  12.055  14.677   5.076
78610SOL    HW237663  12.082  14.582   4.961
78611SOL     OW37664  11.591   1.649  13.408
78611SOL    HW137665  11.655   1.720  13.417
78611SOL    HW237666  11.514   1.691  13.369
78612SOL     OW37667   0.898  11.109  14.463
78612SOL    HW137668   0.994  11.111  14.461
78612SOL    HW237669   0.876  11.085  14.552
78613SOL     OW37670   7.659   4.116  13.034
78613SOL    HW137671   7.742   4.156  13.057
78613SOL    HW237672   7.683   4.033  12.991
78614SOL     OW37673   2.055  13.350   9.267
78614SOL    HW137674   2.000  13.361   9.345
78614SOL    HW237675   2.120  13.285   9.292
78615SOL     OW37676  11.264   5.973   9.660
78615SOL    HW137677  11.233   5.977   9.750
78615SOL    HW237678  11.343   6.027   9.659
78616SOL     OW37679   1.572   1.318   2.656
78616SOL    HW137680   1.602   1.228   2.643
78616SOL    HW237681   1.652   1.368   2.674
78617SOL     OW37682  11.145   4.962  14.706
78617SOL    HW137683  11.156   5.030  14.772
78617SOL    HW237684  11.127   5.010  14.625
78618SOL     OW37685   3.172   7.369  14.420
78618SOL    HW137686   3.256   7.336  14.387
78618SOL    HW237687   3.107   7.335  14.359
78619SOL     OW37688   4.953   6.290   7.193
78619SOL    HW137689   4.880   6.243   7.152
78619SOL    HW237690   4.957   6.255   7.282
78620SOL     OW37691   3.061   1.164   6.855
78620SOL    HW137692   3.105   1.249   6.855
78620SOL    HW237693   3.017   1.160   6.940
78621SOL     OW37694  11.266   1.799  10.253
78621SOL    HW137695  11.245   1.802  10.346
78621SOL    HW237696  11.209   1.731  10.218
78622SOL     OW37697   8.816  12.672   0.600
78622SOL    HW137698   8.801  12.663   0.694
78622SOL    HW237699   8.903  12.710   0.592
78623SOL     OW37700   4.041  11.527   4.182
78623SOL    HW137701   4.086  11.555   4.102
78623SOL    HW237702   3.951  11.508   4.154
78624SOL     OW37703   7.342  12.231   6.127
78624SOL    HW137704   7.396  12.201   6.201
78624SOL    HW237705   7.401  12.227   6.052
78625SOL     OW37706  11.694   6.045   1.169
78625SOL    HW137707  11.720   5.980   1.104
78625SOL    HW237708  11.639   6.106   1.120
78626SOL     OW37709  11.959   7.633  11.301
78626SOL    HW137710  11.995   7.548  11.276
78626SOL    HW237711  11.873   7.637  11.259
78627SOL     OW37712   5.396   4.749   2.825
78627SOL    HW137713   5.409   4.689   2.899
78627SOL    HW237714   5.374   4.833   2.866
78628SOL     OW37715  12.686   0.526  13.314
78628SOL    HW137716  12.631   0.452  13.339
78628SOL    HW237717  12.637   0.571  13.245
78629SOL     OW37718   2.865   6.746   9.524
78629SOL    HW137719   2.777   6.755   9.487
78629SOL    HW237720   2.916   6.707   9.452
78630SOL     OW37721   4.218  10.986   1.308
78630SOL    HW137722   4.277  11.062   1.305
78630SOL    HW237723   4.248  10.930   1.237
78631SOL     OW37724  12.723  10.936  11.495
78631SOL    HW137725  12.644  10.882  11.500
78631SOL    HW237726  12.780  10.902  11.563
78632SOL     OW37727   6.751   6.281   0.378
78632SOL    HW137728   6.835   6.245   0.406
78632SOL    HW237729   6.718   6.219   0.313
78633SOL     OW37730   4.377   2.420  11.858
78633SOL    HW137731   4.426   2.500  11.878
78633SOL    HW237732   4.316   2.447  11.788
78634SOL     OW37733   1.772   1.137  13.814
78634SOL    HW137734   1.850   1.192  13.811
78634SOL    HW237735   1.708   1.190  13.862
78635SOL     OW37736   2.458  10.607   0.551
78635SOL    HW137737   2.368  10.604   0.520
78635SOL    HW237738   2.453  10.648   0.637
78636SOL     OW37739  14.621   4.931   4.996
78636SOL    HW137740  14.709   4.908   5.026
78636SOL    HW237741  14.621   4.906   4.903
78637SOL     OW37742   2.154  13.282  12.065
78637SOL    HW137743   2.066  13.313  12.042
78637SOL    HW237744   2.147  13.186  12.061
78638SOL     OW37745  13.586   4.264  10.122
78638SOL    HW137746  13.598   4.265  10.217
78638SOL    HW237747  13.675   4.274  10.087
78639SOL     OW37748   9.165   7.421   7.814
78639SOL    HW137749   9.214   7.494   7.777
78639SOL    HW237750   9.230   7.371   7.864
78640SOL     OW37751   2.373  11.637  13.565
78640SOL    HW137752   2.291  11.588  13.553
78640SOL    HW237753   2.406  11.606  13.650
78641SOL     OW37754  14.683  12.929   8.224
78641SOL    HW137755  14.723  12.969   8.301
78641SOL    HW237756  14.737  12.958   8.150
78642SOL     OW37757  14.744   4.427   6.715
78642SOL    HW137758  14.771   4.336   6.704
78642SOL    HW237759  14.667   4.435   6.660
78643SOL     OW37760   1.600   5.223   5.783
78643SOL    HW137761   1.651   5.282   5.728
78643SOL    HW237762   1.509   5.234   5.754
78644SOL     OW37763   3.484   6.312   1.780
78644SOL    HW137764   3.398   6.349   1.799
78644SOL    HW237765   3.493   6.319   1.685
78645SOL     OW37766   0.210   4.781   6.606
78645SOL    HW137767   0.158   4.726   6.547
78645SOL    HW237768   0.227   4.861   6.557
78646SOL     OW37769  13.477   0.545  11.731
78646SOL    HW137770  13.449   0.539  11.639
78646SOL    HW237771  13.572   0.538  11.728
78647SOL     OW37772  10.250  11.178   7.733
78647SOL    HW137773  10.207  11.099   7.700
78647SOL    HW237774  10.190  11.212   7.799
78648SOL     OW37775  10.412   4.938   3.034
78648SOL    HW137776  10.413   5.022   3.079
78648SOL    HW237777  10.458   4.955   2.951
78649SOL     OW37778   2.953   2.479   9.360
78649SOL    HW137779   2.886   2.547   9.353
78649SOL    HW237780   2.945   2.446   9.450
78650SOL     OW37781  12.187   6.869   4.800
78650SOL    HW137782  12.098   6.896   4.774
78650SOL    HW237783  12.179   6.775   4.818
78651SOL     OW37784   6.340   1.100  11.278
78651SOL    HW137785   6.416   1.151  11.249
78651SOL    HW237786   6.365   1.009  11.264
78652SOL     OW37787  12.357  12.322   0.221
78652SOL    HW137788  12.343  12.338   0.127
78652SOL    HW237789  12.269  12.310   0.256
78653SOL     OW37790   5.921   8.629   1.307
78653SOL    HW137791   5.880   8.594   1.228
78653SOL    HW237792   6.008   8.656   1.279
78654SOL     OW37793   6.770   4.834  13.117
78654SOL    HW137794   6.784   4.928  13.126
78654SOL    HW237795   6.814   4.795  13.192
78655SOL     OW37796   5.028  10.284  14.794
78655SOL    HW137797   5.099  10.242  14.745
78655SOL    HW237798   4.950  10.233  14.771
78656SOL     OW37799   6.178   7.805  11.567
78656SOL    HW137800   6.245   7.738  11.556
78656SOL    HW237801   6.156   7.832  11.478
78657SOL     OW37802  14.508  12.688   3.689
78657SOL    HW137803  14.579  12.752   3.699
78657SOL    HW237804  14.436  12.724   3.739
78658SOL     OW37805  14.248   8.399  12.056
78658SOL    HW137806  14.337   8.382  12.086
78658SOL    HW237807  14.201   8.317  12.073
78659SOL     OW37808   2.696  12.361  13.433
78659SOL    HW137809   2.769  12.385  13.490
78659SOL    HW237810   2.630  12.428  13.449
78660SOL     OW37811   2.810  13.901  12.465
78660SOL    HW137812   2.769  13.943  12.390
78660SOL    HW237813   2.792  13.807  12.453
78661SOL     OW37814  10.130   2.297  13.059
78661SOL    HW137815  10.132   2.391  13.045
78661SOL    HW237816  10.092   2.286  13.146
78662SOL     OW37817   2.385   1.348  10.759
78662SOL    HW137818   2.477   1.333  10.781
78662SOL    HW237819   2.386   1.419  10.695
78663SOL     OW37820   4.900   1.759   5.396
78663SOL    HW137821   4.967   1.799   5.340
78663SOL    HW237822   4.885   1.824   5.465
78664SOL     OW37823  13.616   0.030  12.982
78664SOL    HW137824  13.524   0.016  13.004
78664SOL    HW237825  13.660  14.823  13.010
78665SOL     OW37826   7.781  12.615  12.080
78665SOL    HW137827   7.723  12.630  12.155
78665SOL    HW237828   7.814  12.702  12.057
78666SOL     OW37829   5.653  14.206   5.478
78666SOL    HW137830   5.564  14.238   5.490
78666SOL    HW237831   5.707  14.263   5.533
78667SOL     OW37832   1.661   1.108   9.115
78667SOL    HW137833   1.712   1.188   9.101
78667SOL    HW237834   1.594   1.109   9.047
78668SOL     OW37835   5.468   0.975   9.252
78668SOL    HW137836   5.551   1.018   9.230
78668SOL    HW237837   5.435   0.942   9.168
78669SOL     OW37838  12.972   4.797   4.549
78669SOL    HW137839  12.884   4.771   4.521
78669SOL    HW237840  12.986   4.882   4.507
78670SOL     OW37841   9.832  11.167   5.272
78670SOL    HW137842   9.827  11.213   5.188
78670SOL    HW237843   9.742  11.163   5.303
78671SOL     OW37844  10.514  11.979  13.466
78671SOL    HW137845  10.529  11.895  13.509
78671SOL    HW237846  10.520  11.961  13.373
78672SOL     OW37847   9.006   2.486   9.452
78672SOL    HW137848   8.936   2.537   9.409
78672SOL    HW237849   8.998   2.508   9.545
78673SOL     OW37850  11.731  11.012  11.087
78673SOL    HW137851  11.762  10.964  11.010
78673SOL    HW237852  11.743  11.104  11.065
78674SOL     OW37853   7.252   5.105  10.867
78674SOL    HW137854   7.247   5.010  10.878
78674SOL    HW237855   7.345   5.125  10.869
78675SOL     OW37856  11.440   9.308  11.792
78675SOL    HW137857  11.346   9.303  11.813
78675SOL    HW237858  11.459   9.402  11.791
78676SOL     OW37859  11.479   7.289  13.712
78676SOL    HW137860  11.496   7.374  13.752
78676SOL    HW237861  11.515   7.295  13.624
78677SOL     OW37862  11.467   1.287   3.554
78677SOL    HW137863  11.460   1.201   3.596
78677SOL    HW237864  11.477   1.348   3.627
78678SOL     OW37865   6.096   8.492   5.317
78678SOL    HW137866   6.137   8.576   5.340
78678SOL    HW237867   6.055   8.507   5.232
78679SOL     OW37868  10.460   6.837   6.750
78679SOL    HW137869  10.406   6.906   6.713
78679SOL    HW237870  10.507   6.800   6.675
78680SOL     OW37871   9.177   3.012   3.425
78680SOL    HW137872   9.144   2.940   3.479
78680SOL    HW237873   9.099   3.056   3.394
78681SOL     OW37874   4.210   4.315   0.503
78681SOL    HW137875   4.173   4.238   0.546
78681SOL    HW237876   4.185   4.305   0.411
78682SOL     OW37877   7.650   3.815  14.265
78682SOL    HW137878   7.744   3.834  14.255
78682SOL    HW237879   7.642   3.781  14.354
78683SOL     OW37880   9.389   4.637  12.121
78683SOL    HW137881   9.303   4.668  12.148
78683SOL    HW237882   9.374   4.592  12.038
78684SOL     OW37883  10.561  10.601   2.828
78684SOL    HW137884  10.636  10.661   2.828
78684SOL    HW237885  10.486  10.657   2.847
78685SOL     OW37886  12.658  14.492   4.368
78685SOL    HW137887  12.586  14.435   4.340
78685SOL    HW237888  12.729  14.432   4.391
78686SOL     OW37889   9.418   2.498   0.544
78686SOL    HW137890   9.466   2.456   0.473
78686SOL    HW237891   9.417   2.591   0.521
78687SOL     OW37892  11.356  14.625   7.008
78687SOL    HW137893  11.389  14.541   6.976
78687SOL    HW237894  11.286  14.648   6.947
78688SOL     OW37895   5.638   4.355   3.606
78688SOL    HW137896   5.684   4.313   3.679
78688SOL    HW237897   5.581   4.419   3.648
78689SOL     OW37898  11.366   1.179   5.997
78689SOL    HW137899  11.296   1.229   6.039
78689SOL    HW237900  11.354   1.194   5.904
78690SOL     OW37901   0.258   2.150   3.972
78690SOL    HW137902   0.172   2.190   3.987
78690SOL    HW237903   0.310   2.174   4.049
78691SOL     OW37904   2.876   2.810   8.012
78691SOL    HW137905   2.871   2.890   8.064
78691SOL    HW237906   2.968   2.785   8.016
78692SOL     OW37907   9.908  12.430   7.574
78692SOL    HW137908   9.899  12.348   7.623
78692SOL    HW237909   9.856  12.416   7.495
78693SOL     OW37910  12.072  10.300   3.587
78693SOL    HW137911  12.060  10.229   3.524
78693SOL    HW237912  12.021  10.274   3.663
78694SOL     OW37913   8.671   6.618   4.077
78694SOL    HW137914   8.659   6.524   4.061
78694SOL    HW237915   8.582   6.651   4.090
78695SOL     OW37916   5.245   1.899   1.084
78695SOL    HW137917   5.210   1.988   1.077
78695SOL    HW237918   5.336   1.907   1.055
78696SOL     OW37919   8.163  12.547   9.861
78696SOL    HW137920   8.241  12.576   9.813
78696SOL    HW237921   8.098  12.615   9.844
78697SOL     OW37922   5.270  13.543   8.276
78697SOL    HW137923   5.254  13.635   8.300
78697SOL    HW237924   5.221  13.492   8.340
78698SOL     OW37925  11.467  11.634   8.652
78698SOL    HW137926  11.441  11.658   8.563
78698SOL    HW237927  11.440  11.709   8.706
78699SOL     OW37928  13.822   5.906   6.990
78699SOL    HW137929  13.768   5.962   7.047
78699SOL    HW237930  13.768   5.891   6.913
78700SOL     OW37931   8.431   0.349  11.359
78700SOL    HW137932   8.461   0.353  11.268
78700SOL    HW237933   8.392   0.435  11.375
78701SOL     OW37934   9.430   6.550   7.011
78701SOL    HW137935   9.520   6.516   7.016
78701SOL    HW237936   9.417   6.597   7.093
78702SOL     OW37937  11.085  14.278   2.273
78702SOL    HW137938  11.137  14.358   2.259
78702SOL    HW237939  11.145  14.219   2.319
78703SOL     OW37940  13.743  12.263   9.675
78703SOL    HW137941  13.694  12.341   9.700
78703SOL    HW237942  13.811  12.295   9.616
78704SOL     OW37943  14.786   4.596   3.030
78704SOL    HW137944  14.700   4.562   3.052
78704SOL    HW237945  14.792   4.590   2.935
78705SOL     OW37946  10.714   8.887  13.104
78705SOL    HW137947  10.743   8.972  13.070
78705SOL    HW237948  10.787   8.856  13.157
78706SOL     OW37949   2.980   1.041   9.948
78706SOL    HW137950   2.958   1.120   9.898
78706SOL    HW237951   3.030   1.073  10.023
78707SOL     OW37952   7.267   6.417  12.560
78707SOL    HW137953   7.242   6.378  12.476
78707SOL    HW237954   7.331   6.356  12.597
78708SOL     OW37955  13.568   7.865   2.686
78708SOL    HW137956  13.534   7.780   2.658
78708SOL    HW237957  13.493   7.925   2.676
78709SOL     OW37958   3.282   3.168  10.140
78709SOL    HW137959   3.301   3.217  10.220
78709SOL    HW237960   3.252   3.082  10.171
78710SOL     OW37961   8.337   5.062   4.212
78710SOL    HW137962   8.306   4.989   4.265
78710SOL    HW237963   8.285   5.137   4.242
78711SOL     OW37964   0.047   7.446   4.300
78711SOL    HW137965  14.863   7.369   4.293
78711SOL    HW237966  14.867   7.509   4.350
78712SOL     OW37967  14.214  12.161   2.035
78712SOL    HW137968  14.132  12.194   2.071
78712SOL    HW237969  14.224  12.208   1.952
78713SOL     OW37970  10.270   8.597  12.600
78713SOL    HW137971  10.297   8.655  12.671
78713SOL    HW237972  10.349   8.589  12.545
78714SOL     OW37973   5.122  12.032  14.723
78714SOL    HW137974   5.144  12.066  14.636
78714SOL    HW237975   5.040  11.984  14.710
78715SOL     OW37976   0.353  13.436  10.304
78715SOL    HW137977   0.258  13.427  10.298
78715SOL    HW237978   0.383  13.427  10.213
78716SOL     OW37979   6.254  13.073   7.847
78716SOL    HW137980   6.267  13.049   7.939
78716SOL    HW237981   6.159  13.072   7.835
78717SOL     OW37982  13.926   6.845   6.610
78717SOL    HW137983  13.927   6.826   6.703
78717SOL    HW237984  13.987   6.918   6.599
78718SOL     OW37985   2.780  10.786   5.381
78718SOL    HW137986   2.843  10.730   5.335
78718SOL    HW237987   2.832  10.858   5.415
78719SOL     OW37988   9.280  10.704   1.240
78719SOL    HW137989   9.189  10.734   1.240
78719SOL    HW237990   9.287  10.646   1.164
78720SOL     OW37991   5.635   2.690   7.938
78720SOL    HW137992   5.615   2.618   7.998
78720SOL    HW237993   5.564   2.689   7.874
78721SOL     OW37994   3.529   6.917  12.201
78721SOL    HW137995   3.438   6.918  12.233
78721SOL    HW237996   3.534   6.993  12.143
78722SOL     OW37997  11.596  10.967   7.774
78722SOL    HW137998  11.546  10.896   7.816
78722SOL    HW237999  11.559  10.972   7.686
78723SOL     OW38000  12.759   6.831   8.629
78723SOL    HW138001  12.703   6.838   8.707
78723SOL    HW238002  12.833   6.889   8.648
78724SOL     OW38003   4.671  10.417   2.749
78724SOL    HW138004   4.614  10.462   2.686
78724SOL    HW238005   4.705  10.487   2.804
78725SOL     OW38006   8.699  10.055   8.672
78725SOL    HW138007   8.690   9.965   8.702
78725SOL    HW238008   8.666  10.054   8.582
78726SOL     OW38009  10.978   6.780  11.941
78726SOL    HW138010  10.926   6.719  11.889
78726SOL    HW238011  11.029   6.829  11.877
78727SOL     OW38012   4.015  11.481   7.751
78727SOL    HW138013   4.084  11.546   7.737
78727SOL    HW238014   4.054  11.398   7.722
78728SOL     OW38015   0.148   9.779  12.039
78728SOL    HW138016   0.230   9.755  12.083
78728SOL    HW238017   0.166   9.864  11.999
78729SOL     OW38018   7.513   9.132   2.408
78729SOL    HW138019   7.550   9.200   2.351
78729SOL    HW238020   7.460   9.078   2.350
78730SOL     OW38021  11.001  12.779   0.454
78730SOL    HW138022  11.035  12.800   0.367
78730SOL    HW238023  11.076  12.794   0.513
78731SOL     OW38024   4.839   1.351   1.609
78731SOL    HW138025   4.912   1.406   1.638
78731SOL    HW238026   4.802   1.398   1.534
78732SOL     OW38027  12.357  11.516  12.810
78732SOL    HW138028  12.327  11.555  12.728
78732SOL    HW238029  12.418  11.448  12.783
78733SOL     OW38030  13.953  14.676   7.812
78733SOL    HW138031  13.999  14.617   7.872
78733SOL    HW238032  14.020  14.738   7.783
78734SOL     OW38033   0.916   8.035   5.566
78734SOL    HW138034   0.860   8.040   5.644
78734SOL    HW238035   0.877   8.099   5.505
78735SOL     OW38036   2.009   6.546   6.708
78735SOL    HW138037   1.996   6.529   6.615
78735SOL    HW238038   1.975   6.467   6.751
78736SOL     OW38039   4.597   2.457   6.804
78736SOL    HW138040   4.576   2.372   6.841
78736SOL    HW238041   4.671   2.489   6.856
78737SOL     OW38042   5.651  12.956  11.474
78737SOL    HW138043   5.584  12.923  11.535
78737SOL    HW238044   5.620  13.044  11.451
78738SOL     OW38045   3.431  14.327   4.962
78738SOL    HW138046   3.357  14.355   4.908
78738SOL    HW238047   3.504  14.319   4.901
78739SOL     OW38048   4.932   9.572   6.575
78739SOL    HW138049   4.999   9.619   6.526
78739SOL    HW238050   4.969   9.562   6.663
78740SOL     OW38051  10.634   0.101   7.344
78740SOL    HW138052  10.635   0.055   7.428
78740SOL    HW238053  10.726   0.121   7.327
78741SOL     OW38054   7.797   8.426   2.747
78741SOL    HW138055   7.867   8.437   2.683
78741SOL    HW238056   7.827   8.356   2.804
78742SOL     OW38057  14.102  11.009   6.912
78742SOL    HW138058  14.079  10.917   6.924
78742SOL    HW238059  14.192  11.007   6.879
78743SOL     OW38060   4.441  10.813   5.592
78743SOL    HW138061   4.476  10.727   5.611
78743SOL    HW238062   4.504  10.874   5.631
78744SOL     OW38063   0.712   4.489   9.450
78744SOL    HW138064   0.627   4.456   9.480
78744SOL    HW238065   0.749   4.533   9.527
78745SOL     OW38066   9.557  14.135   1.847
78745SOL    HW138067   9.586  14.124   1.937
78745SOL    HW238068   9.560  14.047   1.809
78746SOL     OW38069   2.918   5.053  14.573
78746SOL    HW138070   2.837   5.050  14.624
78746SOL    HW238071   2.964   5.130  14.605
78747SOL     OW38072   5.749   4.543  11.808
78747SOL    HW138073   5.794   4.481  11.865
78747SOL    HW238074   5.816   4.608  11.785
78748SOL     OW38075   6.628   6.952  11.594
78748SOL    HW138076   6.533   6.944  11.594
78748SOL    HW238077   6.655   6.914  11.510
78749SOL     OW38078   2.717  12.707   4.922
78749SOL    HW138079   2.791  12.650   4.900
78749SOL    HW238080   2.640  12.654   4.901
78750SOL     OW38081  11.673   9.401  10.841
78750SOL    HW138082  11.598   9.390  10.782
78750SOL    HW238083  11.748   9.369  10.790
78751SOL     OW38084   0.666   7.219  14.331
78751SOL    HW138085   0.717   7.179  14.261
78751SOL    HW238086   0.652   7.309  14.302
78752SOL     OW38087   1.495   7.696   5.827
78752SOL    HW138088   1.476   7.607   5.798
78752SOL    HW238089   1.480   7.751   5.750
78753SOL     OW38090   7.972  13.573   5.288
78753SOL    HW138091   7.901  13.606   5.232
78753SOL    HW238092   7.968  13.629   5.366
78754SOL     OW38093   9.055  11.593   4.869
78754SOL    HW138094   8.984  11.655   4.886
78754SOL    HW238095   9.049  11.576   4.775
78755SOL     OW38096   1.571   3.418  11.581
78755SOL    HW138097   1.508   3.409  11.652
78755SOL    HW238098   1.606   3.506  11.590
78756SOL     OW38099  12.696  13.824   0.721
78756SOL    HW138100  12.624  13.849   0.663
78756SOL    HW238101  12.697  13.891   0.789
78757SOL     OW38102   2.213   2.595   2.598
78757SOL    HW138103   2.119   2.602   2.612
78757SOL    HW238104   2.244   2.534   2.665
78758SOL     OW38105   0.470   0.692  10.582
78758SOL    HW138106   0.516   0.721  10.661
78758SOL    HW238107   0.500   0.602  10.568
78759SOL     OW38108  11.647   5.761  13.722
78759SOL    HW138109  11.676   5.804  13.642
78759SOL    HW238110  11.567   5.715  13.697
78760SOL     OW38111   0.527   5.965   9.392
78760SOL    HW138112   0.490   6.049   9.369
78760SOL    HW238113   0.590   5.985   9.461
78761SOL     OW38114   9.461  11.083   4.877
78761SOL    HW138115   9.407  11.132   4.940
78761SOL    HW238116   9.543  11.067   4.923
78762SOL     OW38117   3.474  11.273   6.845
78762SOL    HW138118   3.389  11.265   6.802
78762SOL    HW238119   3.515  11.188   6.833
78763SOL     OW38120  12.480   0.037   8.899
78763SOL    HW138121  12.410   0.080   8.948
78763SOL    HW238122  12.435  14.841   8.848
78764SOL     OW38123  10.556   4.839  12.037
78764SOL    HW138124  10.474   4.855  11.990
78764SOL    HW238125  10.579   4.749  12.014
78765SOL     OW38126   8.345  14.835   7.619
78765SOL    HW138127   8.419  14.775   7.605
78765SOL    HW238128   8.370   0.043   7.575
78766SOL     OW38129  11.957   9.195  13.717
78766SOL    HW138130  11.996   9.196  13.804
78766SOL    HW238131  12.018   9.145  13.664
78767SOL     OW38132   6.750   9.185   2.368
78767SOL    HW138133   6.843   9.176   2.350
78767SOL    HW238134   6.731   9.117   2.433
78768SOL     OW38135   8.570  13.864   6.251
78768SOL    HW138136   8.549  13.850   6.159
78768SOL    HW238137   8.502  13.922   6.284
78769SOL     OW38138   4.715   9.423   6.030
78769SOL    HW138139   4.735   9.458   6.117
78769SOL    HW238140   4.671   9.495   5.985
78770SOL     OW38141   0.929   8.262  14.512
78770SOL    HW138142   0.846   8.310  14.516
78770SOL    HW238143   0.994   8.328  14.487
78771SOL     OW38144   9.177   3.280   4.788
78771SOL    HW138145   9.186   3.361   4.837
78771SOL    HW238146   9.095   3.290   4.738
78772SOL     OW38147   1.584  11.168   8.872
78772SOL    HW138148   1.650  11.231   8.901
78772SOL    HW238149   1.625  11.082   8.886
78773SOL     OW38150  11.405   4.974  14.501
78773SOL    HW138151  11.373   4.888  14.528
78773SOL    HW238152  11.485   4.956  14.453
78774SOL     OW38153  13.906   0.454   3.928
78774SOL    HW138154  13.975   0.497   3.979
78774SOL    HW238155  13.951   0.424   3.849
78775SOL     OW38156   2.483  12.875  14.654
78775SOL    HW138157   2.495  12.853  14.747
78775SOL    HW238158   2.533  12.956  14.643
78776SOL     OW38159  11.980   9.028  10.787
78776SOL    HW138160  12.073   9.019  10.809
78776SOL    HW238161  11.944   8.940  10.797
78777SOL     OW38162  12.511   6.581   5.421
78777SOL    HW138163  12.524   6.524   5.497
78777SOL    HW238164  12.431   6.630   5.442
78778SOL     OW38165   7.058  12.260   3.065
78778SOL    HW138166   6.998  12.326   3.030
78778SOL    HW238167   7.106  12.305   3.134
78779SOL     OW38168   5.482  10.321   9.722
78779SOL    HW138169   5.449  10.240   9.684
78779SOL    HW238170   5.577  10.308   9.729
78780SOL     OW38171   5.487   6.932  13.473
78780SOL    HW138172   5.497   6.919  13.378
78780SOL    HW238173   5.506   6.846  13.511
78781SOL     OW38174   9.566   2.588  10.786
78781SOL    HW138175   9.525   2.504  10.805
78781SOL    HW238176   9.605   2.615  10.869
78782SOL     OW38177   9.138  12.778  14.317
78782SOL    HW138178   9.213  12.754  14.371
78782SOL    HW238179   9.175  12.825  14.243
78783SOL     OW38180   7.171  13.865   9.845
78783SOL    HW138181   7.082  13.900   9.843
78783SOL    HW238182   7.196  13.856   9.753
78784SOL     OW38183   4.414   9.159  12.136
78784SOL    HW138184   4.415   9.240  12.188
78784SOL    HW238185   4.438   9.187  12.047
78785SOL     OW38186   7.901  13.710   8.544
78785SOL    HW138187   7.873  13.717   8.453
78785SOL    HW238188   7.997  13.713   8.540
78786SOL     OW38189   9.869  12.999   3.302
78786SOL    HW138190   9.912  13.082   3.321
78786SOL    HW238191   9.775  13.019   3.306
78787SOL     OW38192   8.323   5.564   2.237
78787SOL    HW138193   8.411   5.603   2.238
78787SOL    HW238194   8.339   5.471   2.222
78788SOL     OW38195  10.354  12.167   0.049
78788SOL    HW138196  10.301  12.093   0.079
78788SOL    HW238197  10.296  12.217  14.864
78789SOL     OW38198   2.735   7.214  13.608
78789SOL    HW138199   2.789   7.151  13.560
78789SOL    HW238200   2.774   7.299  13.589
78790SOL     OW38201   0.992   6.486  10.800
78790SOL    HW138202   1.066   6.492  10.739
78790SOL    HW238203   0.988   6.394  10.824
78791SOL     OW38204  13.144   7.396   3.254
78791SOL    HW138205  13.183   7.459   3.314
78791SOL    HW238206  13.187   7.313   3.276
78792SOL     OW38207   8.858   8.905  11.568
78792SOL    HW138208   8.885   8.849  11.495
78792SOL    HW238209   8.845   8.991  11.529
78793SOL     OW38210   6.866  13.609   4.347
78793SOL    HW138211   6.873  13.704   4.337
78793SOL    HW238212   6.801  13.583   4.282
78794SOL     OW38213   4.049  10.332   6.034
78794SOL    HW138214   4.007  10.260   5.988
78794SOL    HW238215   4.012  10.329   6.123
78795SOL     OW38216   3.661   8.552  12.465
78795SOL    HW138217   3.647   8.596  12.381
78795SOL    HW238218   3.604   8.600  12.526
78796SOL     OW38219   8.500   5.639   0.882
78796SOL    HW138220   8.512   5.726   0.846
78796SOL    HW238221   8.507   5.580   0.807
78797SOL     OW38222   3.554   6.113  14.560
78797SOL    HW138223   3.487   6.170  14.523
78797SOL    HW238224   3.535   6.026  14.524
78798SOL     OW38225   8.551   5.493  13.307
78798SOL    HW138226   8.518   5.506  13.396
78798SOL    HW238227   8.595   5.408  13.310
78799SOL     OW38228   6.206   6.000   5.516
78799SOL    HW138229   6.237   6.048   5.593
78799SOL    HW238230   6.211   6.063   5.444
78800SOL     OW38231   2.352   5.305   8.554
78800SOL    HW138232   2.422   5.271   8.609
78800SOL    HW238233   2.390   5.382   8.511
78801SOL     OW38234  13.348   3.226  12.808
78801SOL    HW138235  13.352   3.130  12.809
78801SOL    HW238236  13.267   3.246  12.855
78802SOL     OW38237   8.433   4.371   3.561
78802SOL    HW138238   8.399   4.283   3.543
78802SOL    HW238239   8.473   4.398   3.479
78803SOL     OW38240  14.473  12.075   7.827
78803SOL    HW138241  14.473  12.162   7.868
78803SOL    HW238242  14.469  12.093   7.733
78804SOL     OW38243   2.304   1.299  10.289
78804SOL    HW138244   2.371   1.297  10.357
78804SOL    HW238245   2.285   1.207  10.272
78805SOL     OW38246   2.952   8.550   7.137
78805SOL    HW138247   2.924   8.466   7.100
78805SOL    HW238248   2.974   8.529   7.228
78806SOL     OW38249   0.433  10.428   1.481
78806SOL    HW138250   0.515  10.456   1.440
78806SOL    HW238251   0.406  10.352   1.430
78807SOL     OW38252   3.643   5.068   8.590
78807SOL    HW138253   3.714   5.085   8.652
78807SOL    HW238254   3.568   5.047   8.645
78808SOL     OW38255   3.940  13.604  11.119
78808SOL    HW138256   3.925  13.525  11.067
78808SOL    HW238257   3.998  13.575  11.190
78809SOL     OW38258  10.079  11.662   1.260
78809SOL    HW138259  10.028  11.582   1.276
78809SOL    HW238260  10.118  11.683   1.345
78810SOL     OW38261  10.495   3.700   8.926
78810SOL    HW138262  10.522   3.644   8.999
78810SOL    HW238263  10.400   3.694   8.925
78811SOL     OW38264  13.581  10.140   6.637
78811SOL    HW138265  13.586  10.046   6.618
78811SOL    HW238266  13.560  10.145   6.730
78812SOL     OW38267  14.284  14.128  11.426
78812SOL    HW138268  14.260  14.221  11.424
78812SOL    HW238269  14.373  14.125  11.392
78813SOL     OW38270   8.567   8.307  13.522
78813SOL    HW138271   8.514   8.381  13.493
78813SOL    HW238272   8.550   8.239  13.458
78814SOL     OW38273  13.128   7.609   2.074
78814SOL    HW138274  13.087   7.523   2.086
78814SOL    HW238275  13.099   7.637   1.987
78815SOL     OW38276   2.333  10.376  12.987
78815SOL    HW138277   2.258  10.432  13.010
78815SOL    HW238278   2.298  10.313  12.924
78816SOL     OW38279   3.473  11.369  13.302
78816SOL    HW138280   3.442  11.435  13.240
78816SOL    HW238281   3.533  11.314  13.252
78817SOL     OW38282   9.345  10.147   7.602
78817SOL    HW138283   9.283  10.190   7.662
78817SOL    HW238284   9.303  10.064   7.580
78818SOL     OW38285   0.623  13.223   7.836
78818SOL    HW138286   0.573  13.143   7.849
78818SOL    HW238287   0.600  13.278   7.911
78819SOL     OW38288   2.613   3.084  13.591
78819SOL    HW138289   2.677   3.153  13.609
78819SOL    HW238290   2.532   3.132  13.570
78820SOL     OW38291   0.079   1.385   5.644
78820SOL    HW138292   0.138   1.406   5.716
78820SOL    HW238293   0.055   1.470   5.607
78821SOL     OW38294  13.688   5.058   6.393
78821SOL    HW138295  13.735   5.092   6.468
78821SOL    HW238296  13.688   5.130   6.330
78822SOL     OW38297   1.935  13.799   0.148
78822SOL    HW138298   1.914  13.766   0.061
78822SOL    HW238299   1.980  13.726   0.191
78823SOL     OW38300   0.185  14.195   8.759
78823SOL    HW138301   0.189  14.122   8.697
78823SOL    HW238302   0.273  14.200   8.796
78824SOL     OW38303   4.309   5.768   9.996
78824SOL    HW138304   4.334   5.676   9.997
78824SOL    HW238305   4.382   5.813   9.952
78825SOL     OW38306   1.359   5.719   0.697
78825SOL    HW138307   1.350   5.667   0.777
78825SOL    HW238308   1.357   5.656   0.626
78826SOL     OW38309   8.408   4.029   2.911
78826SOL    HW138310   8.326   4.066   2.944
78826SOL    HW238311   8.464   4.104   2.895
78827SOL     OW38312   1.043  12.524   5.485
78827SOL    HW138313   1.114  12.507   5.423
78827SOL    HW238314   0.976  12.570   5.434
78828SOL     OW38315   5.809   4.434   5.646
78828SOL    HW138316   5.755   4.461   5.572
78828SOL    HW238317   5.895   4.416   5.608
78829SOL     OW38318  14.462   6.605  10.889
78829SOL    HW138319  14.512   6.624  10.809
78829SOL    HW238320  14.447   6.511  10.886
78830SOL     OW38321  13.323  11.662   3.809
78830SOL    HW138322  13.316  11.709   3.726
78830SOL    HW238323  13.366  11.724   3.868
78831SOL     OW38324  12.389   3.454  14.539
78831SOL    HW138325  12.411   3.546  14.525
78831SOL    HW238326  12.293   3.451  14.537
78832SOL     OW38327   6.315  14.693   5.208
78832SOL    HW138328   6.327  14.704   5.113
78832SOL    HW238329   6.306  14.599   5.220
78833SOL     OW38330   1.660   3.186  12.467
78833SOL    HW138331   1.566   3.199  12.477
78833SOL    HW238332   1.668   3.098  12.431
78834SOL     OW38333  11.694  10.498   3.701
78834SOL    HW138334  11.701  10.589   3.673
78834SOL    HW238335  11.668  10.503   3.793
78835SOL     OW38336   1.187   2.418   1.627
78835SOL    HW138337   1.214   2.391   1.539
78835SOL    HW238338   1.128   2.349   1.656
78836SOL     OW38339   6.067  12.469   1.754
78836SOL    HW138340   6.098  12.418   1.679
78836SOL    HW238341   6.138  12.530   1.773
78837SOL     OW38342   5.271   2.771  13.699
78837SOL    HW138343   5.234   2.859  13.690
78837SOL    HW238344   5.359   2.778  13.662
78838SOL     OW38345   9.685  14.491  11.599
78838SOL    HW138346   9.684  14.569  11.654
78838SOL    HW238347   9.659  14.522  11.512
78839SOL     OW38348   4.522   3.833  13.383
78839SOL    HW138349   4.436   3.792  13.392
78839SOL    HW238350   4.583   3.760  13.373
78840SOL     OW38351  10.957   2.124  13.006
78840SOL    HW138352  10.947   2.211  12.966
78840SOL    HW238353  10.929   2.135  13.097
78841SOL     OW38354   1.570   5.433   9.983
78841SOL    HW138355   1.616   5.490  10.044
78841SOL    HW238356   1.554   5.487   9.906
78842SOL     OW38357   9.690  11.687   7.540
78842SOL    HW138358   9.776  11.693   7.499
78842SOL    HW238359   9.699  11.736   7.622
78843SOL     OW38360  12.246  11.449  11.876
78843SOL    HW138361  12.282  11.453  11.964
78843SOL    HW238362  12.288  11.373  11.836
78844SOL     OW38363   8.728   9.595   2.188
78844SOL    HW138364   8.654   9.558   2.139
78844SOL    HW238365   8.772   9.652   2.126
78845SOL     OW38366   6.064   0.050   0.195
78845SOL    HW138367   5.972   0.065   0.178
78845SOL    HW238368   6.084   0.105   0.270
78846SOL     OW38369   0.316   4.579   2.998
78846SOL    HW138370   0.233   4.591   3.042
78846SOL    HW238371   0.380   4.625   3.052
78847SOL     OW38372   2.977   4.073   0.677
78847SOL    HW138373   2.989   3.995   0.622
78847SOL    HW238374   2.967   4.145   0.614
78848SOL     OW38375   9.992   3.980   5.609
78848SOL    HW138376   9.953   3.924   5.542
78848SOL    HW238377  10.075   4.008   5.571
78849SOL     OW38378   9.473  14.822  12.020
78849SOL    HW138379   9.427  14.743  12.048
78849SOL    HW238380   9.463   0.011  12.092
78850SOL     OW38381  12.394   4.178   2.331
78850SOL    HW138382  12.393   4.083   2.321
78850SOL    HW238383  12.303   4.200   2.352
78851SOL     OW38384  14.280   0.579  13.604
78851SOL    HW138385  14.326   0.657  13.634
78851SOL    HW238386  14.314   0.508  13.659
78852SOL     OW38387  11.528   4.339  12.469
78852SOL    HW138388  11.436   4.366  12.472
78852SOL    HW238389  11.536   4.292  12.386
78853SOL     OW38390   1.081  12.004   3.920
78853SOL    HW138391   1.050  11.928   3.871
78853SOL    HW238392   1.171  11.983   3.943
78854SOL     OW38393   5.584   5.883  13.233
78854SOL    HW138394   5.533   5.842  13.302
78854SOL    HW238395   5.613   5.810  13.178
78855SOL     OW38396  11.093   1.287   6.567
78855SOL    HW138397  11.032   1.247   6.629
78855SOL    HW238398  11.173   1.300   6.617
78856SOL     OW38399   4.425  14.002  11.986
78856SOL    HW138400   4.463  13.976  12.070
78856SOL    HW238401   4.486  14.066  11.951
78857SOL     OW38402   2.601  12.925  12.275
78857SOL    HW138403   2.600  12.884  12.362
78857SOL    HW238404   2.694  12.937  12.255
78858SOL     OW38405  11.649   8.359   8.093
78858SOL    HW138406  11.712   8.382   8.162
78858SOL    HW238407  11.640   8.439   8.042
78859SOL     OW38408   6.789   2.963   0.242
78859SOL    HW138409   6.833   3.026   0.299
78859SOL    HW238410   6.696   2.978   0.256
78860SOL     OW38411   7.206  11.125  11.203
78860SOL    HW138412   7.194  11.220  11.211
78860SOL    HW238413   7.235  11.113  11.112
78861SOL     OW38414   2.031   1.247  13.859
78861SOL    HW138415   2.073   1.328  13.830
78861SOL    HW238416   2.000   1.266  13.947
78862SOL     OW38417  10.921  11.686  11.327
78862SOL    HW138418  10.909  11.767  11.277
78862SOL    HW238419  10.849  11.630  11.299
78863SOL     OW38420  12.287  12.958  11.385
78863SOL    HW138421  12.290  13.026  11.452
78863SOL    HW238422  12.239  12.997  11.313
78864SOL     OW38423   7.983  10.042   8.301
78864SOL    HW138424   7.973  10.039   8.396
78864SOL    HW238425   7.949  10.128   8.276
78865SOL     OW38426  13.019   9.012   7.082
78865SOL    HW138427  12.975   9.078   7.029
78865SOL    HW238428  12.948   8.967   7.128
78866SOL     OW38429  12.533   3.179  12.397
78866SOL    HW138430  12.624   3.207  12.412
78866SOL    HW238431  12.524   3.180  12.302
78867SOL     OW38432   3.090   8.456   6.722
78867SOL    HW138433   3.148   8.492   6.654
78867SOL    HW238434   3.044   8.384   6.679
78868SOL     OW38435   2.420  14.697   6.300
78868SOL    HW138436   2.475  14.671   6.375
78868SOL    HW238437   2.356  14.626   6.292
78869SOL     OW38438   5.797   5.172  12.934
78869SOL    HW138439   5.803   5.086  12.976
78869SOL    HW238440   5.888   5.198  12.919
78870SOL     OW38441   0.679   0.172   5.123
78870SOL    HW138442   0.691   0.097   5.065
78870SOL    HW238443   0.592   0.159   5.160
78871SOL     OW38444   5.653   1.647   0.593
78871SOL    HW138445   5.717   1.718   0.588
78871SOL    HW238446   5.705   1.568   0.605
78872SOL     OW38447   8.548  12.432   8.204
78872SOL    HW138448   8.622  12.467   8.154
78872SOL    HW238449   8.536  12.343   8.170
78873SOL     OW38450  13.952  12.500   2.483
78873SOL    HW138451  14.024  12.488   2.421
78873SOL    HW238452  13.944  12.595   2.493
78874SOL     OW38453  13.306  13.892   0.812
78874SOL    HW138454  13.392  13.851   0.801
78874SOL    HW238455  13.324  13.986   0.817
78875SOL     OW38456   1.587  10.740   7.317
78875SOL    HW138457   1.610  10.687   7.393
78875SOL    HW238458   1.493  10.753   7.324
78876SOL     OW38459   5.865   7.173  11.248
78876SOL    HW138460   5.826   7.158  11.162
78876SOL    HW238461   5.795   7.216  11.298
78877SOL     OW38462   7.578   8.731   6.608
78877SOL    HW138463   7.623   8.693   6.532
78877SOL    HW238464   7.647   8.775   6.657
78878SOL     OW38465   9.759  13.230   0.388
78878SOL    HW138466   9.680  13.278   0.362
78878SOL    HW238467   9.786  13.185   0.308
78879SOL     OW38468   9.847   0.401  12.317
78879SOL    HW138469   9.890   0.316  12.302
78879SOL    HW238470   9.822   0.430  12.229
78880SOL     OW38471   3.864   6.011   4.804
78880SOL    HW138472   3.930   5.960   4.758
78880SOL    HW238473   3.780   5.977   4.771
78881SOL     OW38474   5.343   8.053  10.547
78881SOL    HW138475   5.387   7.988  10.492
78881SOL    HW238476   5.414   8.094  10.597
78882SOL     OW38477  12.173   1.480   1.047
78882SOL    HW138478  12.205   1.526   1.125
78882SOL    HW238479  12.216   1.525   0.974
78883SOL     OW38480   1.064  12.414   2.404
78883SOL    HW138481   0.982  12.366   2.394
78883SOL    HW238482   1.101  12.382   2.485
78884SOL     OW38483   5.698   4.025   9.320
78884SOL    HW138484   5.643   4.005   9.395
78884SOL    HW238485   5.752   3.947   9.308
78885SOL     OW38486   0.308   8.933   6.545
78885SOL    HW138487   0.230   8.967   6.502
78885SOL    HW238488   0.326   8.996   6.614
78886SOL     OW38489  13.342   1.094   6.287
78886SOL    HW138490  13.400   1.167   6.262
78886SOL    HW238491  13.268   1.102   6.227
78887SOL     OW38492   8.822  11.119   9.028
78887SOL    HW138493   8.782  11.194   8.983
78887SOL    HW238494   8.913  11.146   9.043
78888SOL     OW38495   2.615   2.857   0.261
78888SOL    HW138496   2.710   2.846   0.249
78888SOL    HW238497   2.607   2.917   0.335
78889SOL     OW38498   2.137   2.102   0.836
78889SOL    HW138499   2.090   2.159   0.897
78889SOL    HW238500   2.102   2.015   0.851
78890SOL     OW38501   6.083   0.679   4.116
78890SOL    HW138502   6.022   0.631   4.060
78890SOL    HW238503   6.121   0.613   4.174
78891SOL     OW38504  13.215   9.140   4.868
78891SOL    HW138505  13.151   9.190   4.919
78891SOL    HW238506  13.278   9.206   4.838
78892SOL     OW38507   5.945  12.688   4.053
78892SOL    HW138508   5.946  12.780   4.025
78892SOL    HW238509   5.854  12.662   4.046
78893SOL     OW38510  11.106   7.258   2.252
78893SOL    HW138511  11.123   7.182   2.196
78893SOL    HW238512  11.189   7.307   2.252
78894SOL     OW38513   9.973   6.897  12.446
78894SOL    HW138514  10.026   6.960  12.397
78894SOL    HW238515  10.006   6.902  12.535
78895SOL     OW38516  14.337  13.101  13.535
78895SOL    HW138517  14.356  13.101  13.441
78895SOL    HW238518  14.244  13.078  13.540
78896SOL     OW38519   1.921  12.613   2.469
78896SOL    HW138520   1.837  12.657   2.459
78896SOL    HW238521   1.982  12.666   2.419
78897SOL     OW38522  11.858  10.941   5.948
78897SOL    HW138523  11.873  10.934   6.042
78897SOL    HW238524  11.932  10.991   5.915
78898SOL     OW38525   6.073  13.826  11.284
78898SOL    HW138526   6.014  13.901  11.289
78898SOL    HW238527   6.160  13.865  11.270
78899SOL     OW38528   5.197  11.702   0.041
78899SOL    HW138529   5.223  11.630   0.100
78899SOL    HW238530   5.104  11.687   0.026
78900SOL     OW38531   0.578   9.427   2.529
78900SOL    HW138532   0.502   9.479   2.558
78900SOL    HW238533   0.539   9.347   2.492
78901SOL     OW38534   7.652   0.869  12.087
78901SOL    HW138535   7.615   0.798  12.035
78901SOL    HW238536   7.622   0.949  12.043
78902SOL     OW38537  10.103   4.584   9.422
78902SOL    HW138538  10.147   4.542   9.496
78902SOL    HW238539  10.144   4.670   9.415
78903SOL     OW38540   7.270   5.541   2.024
78903SOL    HW138541   7.359   5.506   2.021
78903SOL    HW238542   7.246   5.536   2.117
78904SOL     OW38543   1.894   9.113  12.502
78904SOL    HW138544   1.983   9.130  12.532
78904SOL    HW238545   1.899   9.028  12.457
78905SOL     OW38546   4.221  13.171   6.936
78905SOL    HW138547   4.185  13.089   6.970
78905SOL    HW238548   4.145  13.229   6.929
78906SOL     OW38549   6.859   5.411  14.716
78906SOL    HW138550   6.917   5.420  14.792
78906SOL    HW238551   6.776   5.380  14.753
78907SOL     OW38552   7.888   3.479   2.994
78907SOL    HW138553   7.942   3.475   3.073
78907SOL    HW238554   7.945   3.448   2.924
78908SOL     OW38555   3.227   0.448   4.356
78908SOL    HW138556   3.174   0.487   4.286
78908SOL    HW238557   3.175   0.374   4.388
78909SOL     OW38558   9.230   0.685   0.184
78909SOL    HW138559   9.283   0.682   0.264
78909SOL    HW238560   9.276   0.629   0.123
78910SOL     OW38561  12.670  13.073   3.670
78910SOL    HW138562  12.686  13.033   3.756
78910SOL    HW238563  12.610  13.013   3.626
78911SOL     OW38564   7.948   7.445  13.840
78911SOL    HW138565   7.864   7.471  13.878
78911SOL    HW238566   8.004   7.523  13.850
78912SOL     OW38567   4.841   2.971  13.014
78912SOL    HW138568   4.799   2.906  12.958
78912SOL    HW238569   4.894   2.921  13.076
78913SOL     OW38570  14.831  13.948  12.725
78913SOL    HW138571  14.867  13.874  12.676
78913SOL    HW238572   0.022  13.961  12.797
78914SOL     OW38573  13.636   2.904  12.459
78914SOL    HW138574  13.621   2.858  12.542
78914SOL    HW238575  13.581   2.858  12.396
78915SOL     OW38576   6.749   2.206  10.971
78915SOL    HW138577   6.680   2.195  11.037
78915SOL    HW238578   6.726   2.144  10.902
78916SOL     OW38579  13.297  12.934  11.637
78916SOL    HW138580  13.255  12.848  11.646
78916SOL    HW238581  13.337  12.931  11.550
78917SOL     OW38582  13.737  12.859   6.481
78917SOL    HW138583  13.699  12.773   6.501
78917SOL    HW238584  13.682  12.921   6.530
78918SOL     OW38585   7.279   1.057   4.113
78918SOL    HW138586   7.314   0.977   4.073
78918SOL    HW238587   7.217   1.026   4.179
78919SOL     OW38588  12.798   4.702   5.433
78919SOL    HW138589  12.709   4.715   5.401
78919SOL    HW238590  12.832   4.790   5.447
78920SOL     OW38591   2.945   7.134  10.765
78920SOL    HW138592   2.857   7.127  10.801
78920SOL    HW238593   2.972   7.223  10.783
78921SOL     OW38594   7.327  13.963   9.137
78921SOL    HW138595   7.292  14.034   9.083
78921SOL    HW238596   7.357  14.007   9.217
78922SOL     OW38597   4.141   8.236  12.059
78922SOL    HW138598   4.050   8.265  12.065
78922SOL    HW238599   4.192   8.313  12.085
78923SOL     OW38600   6.244   4.511   5.635
78923SOL    HW138601   6.304   4.483   5.704
78923SOL    HW238602   6.300   4.523   5.558
78924SOL     OW38603   2.426  10.234   5.708
78924SOL    HW138604   2.460  10.303   5.652
78924SOL    HW238605   2.333  10.230   5.688
78925SOL     OW38606   4.665   3.148   4.337
78925SOL    HW138607   4.629   3.097   4.265
78925SOL    HW238608   4.750   3.108   4.354
78926SOL     OW38609   1.104   4.880  13.777
78926SOL    HW138610   1.109   4.831  13.695
78926SOL    HW238611   1.120   4.971  13.751
78927SOL     OW38612   4.138   8.393   6.939
78927SOL    HW138613   4.198   8.464   6.962
78927SOL    HW238614   4.075   8.434   6.879
78928SOL     OW38615   5.329   5.934   9.848
78928SOL    HW138616   5.390   5.995   9.807
78928SOL    HW238617   5.244   5.955   9.810
78929SOL     OW38618   3.780  10.127  12.861
78929SOL    HW138619   3.865  10.164  12.839
78929SOL    HW238620   3.771  10.050  12.804
78930SOL     OW38621   4.500   4.427  10.666
78930SOL    HW138622   4.536   4.367  10.601
78930SOL    HW238623   4.425   4.380  10.703
78931SOL     OW38624   2.055  14.781   4.708
78931SOL    HW138625   1.969  14.815   4.731
78931SOL    HW238626   2.041  14.687   4.696
78932SOL     OW38627   7.776  11.353   1.971
78932SOL    HW138628   7.727  11.271   1.961
78932SOL    HW238629   7.710  11.419   1.989
78933SOL     OW38630   6.109   6.881   4.734
78933SOL    HW138631   6.112   6.788   4.760
78933SOL    HW238632   6.200   6.902   4.713
78934SOL     OW38633  12.978   2.732   4.697
78934SOL    HW138634  12.952   2.816   4.658
78934SOL    HW238635  13.041   2.695   4.635
78935SOL     OW38636   5.960  12.035   9.033
78935SOL    HW138637   5.907  12.083   8.969
78935SOL    HW238638   6.039  12.089   9.043
78936SOL     OW38639   4.896  10.966   7.406
78936SOL    HW138640   4.966  10.932   7.463
78936SOL    HW238641   4.863  10.890   7.360
78937SOL     OW38642   8.298   3.483  14.426
78937SOL    HW138643   8.229   3.424  14.458
78937SOL    HW238644   8.260   3.570  14.432
78938SOL     OW38645  14.449  12.572  10.696
78938SOL    HW138646  14.383  12.526  10.644
78938SOL    HW238647  14.502  12.502  10.734
78939SOL     OW38648  13.772  12.467  12.968
78939SOL    HW138649  13.769  12.374  12.991
78939SOL    HW238650  13.753  12.468  12.874
78940SOL     OW38651   4.242   0.775   0.408
78940SOL    HW138652   4.331   0.748   0.389
78940SOL    HW238653   4.225   0.745   0.497
78941SOL     OW38654  10.030   1.838  10.339
78941SOL    HW138655   9.955   1.810  10.286
78941SOL    HW238656  10.042   1.767  10.402
78942SOL     OW38657   7.940   4.636  13.326
78942SOL    HW138658   7.942   4.599  13.238
78942SOL    HW238659   7.859   4.687  13.329
78943SOL     OW38660  14.351   0.387  11.085
78943SOL    HW138661  14.417   0.428  11.028
78943SOL    HW238662  14.278   0.367  11.027
78944SOL     OW38663   7.169  11.691   6.722
78944SOL    HW138664   7.095  11.650   6.679
78944SOL    HW238665   7.245  11.640   6.693
78945SOL     OW38666   5.700   8.791  11.973
78945SOL    HW138667   5.771   8.751  11.922
78945SOL    HW238668   5.662   8.856  11.914
78946SOL     OW38669  11.652  13.397  10.588
78946SOL    HW138670  11.634  13.398  10.682
78946SOL    HW238671  11.731  13.342  10.580
78947SOL     OW38672   4.988  14.721   1.577
78947SOL    HW138673   5.026  14.718   1.665
78947SOL    HW238674   4.903  14.761   1.589
78948SOL     OW38675  11.343  12.715   1.908
78948SOL    HW138676  11.421  12.771   1.904
78948SOL    HW238677  11.270  12.777   1.915
78949SOL     OW38678   1.752   8.229  11.814
78949SOL    HW138679   1.695   8.189  11.880
78949SOL    HW238680   1.839   8.196  11.835
78950SOL     OW38681   0.069   9.076   9.442
78950SOL    HW138682   0.093   9.097   9.532
78950SOL    HW238683   0.034   9.159   9.407
78951SOL     OW38684   6.145   8.713   6.159
78951SOL    HW138685   6.202   8.715   6.083
78951SOL    HW238686   6.178   8.641   6.212
78952SOL     OW38687   8.202   3.451  12.436
78952SOL    HW138688   8.214   3.546  12.437
78952SOL    HW238689   8.114   3.438  12.471
78953SOL     OW38690   3.327  13.353  13.742
78953SOL    HW138691   3.386  13.286  13.776
78953SOL    HW238692   3.239  13.319  13.760
78954SOL     OW38693   6.824  12.788   7.173
78954SOL    HW138694   6.776  12.868   7.151
78954SOL    HW238695   6.832  12.741   7.091
78955SOL     OW38696   4.503   3.480   1.211
78955SOL    HW138697   4.441   3.552   1.201
78955SOL    HW238698   4.451   3.408   1.248
78956SOL     OW38699   3.919  13.539   2.665
78956SOL    HW138700   3.895  13.497   2.582
78956SOL    HW238701   3.838  13.542   2.715
78957SOL     OW38702   4.493  14.806   8.907
78957SOL    HW138703   4.486  14.785   8.814
78957SOL    HW238704   4.545   0.013   8.910
78958SOL     OW38705  12.705  10.086  12.456
78958SOL    HW138706  12.690  10.180  12.469
78958SOL    HW238707  12.620  10.052  12.427
78959SOL     OW38708   6.335   3.664   8.587
78959SOL    HW138709   6.262   3.725   8.589
78959SOL    HW238710   6.295   3.579   8.606
78960SOL     OW38711   4.851  10.513   8.994
78960SOL    HW138712   4.822  10.426   8.968
78960SOL    HW238713   4.944  10.515   8.973
78961SOL     OW38714   4.342   8.768   2.835
78961SOL    HW138715   4.430   8.733   2.822
78961SOL    HW238716   4.356   8.862   2.849
78962SOL     OW38717   5.720   7.442  14.798
78962SOL    HW138718   5.630   7.410  14.806
78962SOL    HW238719   5.771   7.384  14.854
78963SOL     OW38720  13.769  14.523   4.724
78963SOL    HW138721  13.727  14.444   4.689
78963SOL    HW238722  13.768  14.510   4.819
78964SOL     OW38723   1.964   3.428  11.544
78964SOL    HW138724   1.965   3.343  11.589
78964SOL    HW238725   2.042   3.473  11.576
78965SOL     OW38726   7.582  13.362   7.556
78965SOL    HW138727   7.525  13.390   7.627
78965SOL    HW238728   7.619  13.279   7.585
78966SOL     OW38729   9.222   3.361  10.497
78966SOL    HW138730   9.150   3.422  10.478
78966SOL    HW238731   9.276   3.362  10.418
78967SOL     OW38732   4.923  11.469  11.779
78967SOL    HW138733   5.004  11.491  11.732
78967SOL    HW238734   4.901  11.380  11.748
78968SOL     OW38735  13.000  10.829   6.828
78968SOL    HW138736  13.092  10.845   6.846
78968SOL    HW238737  12.985  10.738   6.857
78969SOL     OW38738   8.465  12.989   5.663
78969SOL    HW138739   8.511  13.022   5.585
78969SOL    HW238740   8.459  13.064   5.721
78970SOL     OW38741  12.980   2.719  12.323
78970SOL    HW138742  12.991   2.776  12.247
78970SOL    HW238743  12.947   2.776  12.392
78971SOL     OW38744   5.598   2.337   2.908
78971SOL    HW138745   5.591   2.415   2.853
78971SOL    HW238746   5.576   2.368   2.996
78972SOL     OW38747   8.047   8.099   8.080
78972SOL    HW138748   8.140   8.097   8.054
78972SOL    HW238749   8.016   8.185   8.053
78973SOL     OW38750   7.583   0.626  14.616
78973SOL    HW138751   7.654   0.689  14.603
78973SOL    HW238752   7.626   0.546  14.646
78974SOL     OW38753  10.141  10.452   9.859
78974SOL    HW138754  10.156  10.390   9.930
78974SOL    HW238755  10.082  10.407   9.800
78975SOL     OW38756   5.336   5.270   0.117
78975SOL    HW138757   5.255   5.221   0.104
78975SOL    HW238758   5.323   5.317   0.199
78976SOL     OW38759   2.232   9.526   2.632
78976SOL    HW138760   2.301   9.513   2.697
78976SOL    HW238761   2.151   9.525   2.682
78977SOL     OW38762  14.017   4.700  10.376
78977SOL    HW138763  14.031   4.780  10.426
78977SOL    HW238764  13.953   4.651  10.427
78978SOL     OW38765   1.107   3.527   6.239
78978SOL    HW138766   1.084   3.506   6.149
78978SOL    HW238767   1.130   3.443   6.278
78979SOL     OW38768   7.375   1.772   9.314
78979SOL    HW138769   7.461   1.769   9.271
78979SOL    HW238770   7.314   1.740   9.248
78980SOL     OW38771   6.861   2.423  13.249
78980SOL    HW138772   6.840   2.485  13.319
78980SOL    HW238773   6.780   2.372  13.238
78981SOL     OW38774  12.264   1.960   5.818
78981SOL    HW138775  12.309   1.876   5.829
78981SOL    HW238776  12.335   2.025   5.816
78982SOL     OW38777  14.487   8.047   4.743
78982SOL    HW138778  14.520   8.033   4.832
78982SOL    HW238779  14.563   8.034   4.687
78983SOL     OW38780   7.566  13.604   6.703
78983SOL    HW138781   7.484  13.577   6.661
78983SOL    HW238782   7.598  13.525   6.747
78984SOL     OW38783   9.129   9.423   5.700
78984SOL    HW138784   9.073   9.346   5.710
78984SOL    HW238785   9.087   9.490   5.753
78985SOL     OW38786   5.817   9.665   1.672
78985SOL    HW138787   5.807   9.727   1.744
78985SOL    HW238788   5.817   9.719   1.593
78986SOL     OW38789   3.885   6.858  14.801
78986SOL    HW138790   3.901   6.870  14.708
78986SOL    HW238791   3.804   6.907  14.819
78987SOL     OW38792   8.311   7.758  14.701
78987SOL    HW138793   8.311   7.761  14.606
78987SOL    HW238794   8.329   7.848  14.728
78988SOL     OW38795   3.154   4.208   7.031
78988SOL    HW138796   3.190   4.284   7.076
78988SOL    HW238797   3.145   4.237   6.940
78989SOL     OW38798  10.277   1.593   3.698
78989SOL    HW138799  10.327   1.672   3.674
78989SOL    HW238800  10.328   1.553   3.769
78990SOL     OW38801  12.952   5.378  13.672
78990SOL    HW138802  12.956   5.297  13.723
78990SOL    HW238803  12.871   5.371  13.621
78991SOL     OW38804   8.555  13.614   9.951
78991SOL    HW138805   8.616  13.688   9.958
78991SOL    HW238806   8.507  13.631   9.870
78992SOL     OW38807   9.918   6.570   2.374
78992SOL    HW138808  10.003   6.541   2.340
78992SOL    HW238809   9.931   6.661   2.397
78993SOL     OW38810  12.709   0.527  13.985
78993SOL    HW138811  12.733   0.537  14.077
78993SOL    HW238812  12.686   0.435  13.976
78994SOL     OW38813  11.792   7.838  13.422
78994SOL    HW138814  11.783   7.742  13.427
78994SOL    HW238815  11.806   7.865  13.513
78995SOL     OW38816  10.169   0.840   4.218
78995SOL    HW138817  10.251   0.888   4.208
78995SOL    HW238818  10.104   0.896   4.175
78996SOL     OW38819  13.583   6.303   8.326
78996SOL    HW138820  13.513   6.246   8.295
78996SOL    HW238821  13.660   6.276   8.276
78997SOL     OW38822   1.458   2.942   1.291
78997SOL    HW138823   1.531   2.916   1.348
78997SOL    HW238824   1.397   2.868   1.297
78998SOL     OW38825   5.760   8.326   9.960
78998SOL    HW138826   5.822   8.281  10.017
78998SOL    HW238827   5.674   8.299   9.993
78999SOL     OW38828   6.343   3.098   0.430
78999SOL    HW138829   6.372   3.008   0.439
78999SOL    HW238830   6.358   3.137   0.516
79000SOL     OW38831   2.505  11.340   8.524
79000SOL    HW138832   2.469  11.255   8.548
79000SOL    HW238833   2.434  11.385   8.478
79001SOL     OW38834  10.800   8.963   3.110
79001SOL    HW138835  10.727   9.026   3.115
79001SOL    HW238836  10.836   8.961   3.199
79002SOL     OW38837  11.948  13.895   7.332
79002SOL    HW138838  12.038  13.862   7.337
79002SOL    HW238839  11.942  13.959   7.403
79003SOL     OW38840  13.492  12.782   6.242
79003SOL    HW138841  13.579  12.804   6.210
79003SOL    HW238842  13.454  12.729   6.172
79004SOL     OW38843  13.666  12.063   9.512
79004SOL    HW138844  13.603  12.040   9.581
79004SOL    HW238845  13.720  12.130   9.552
79005SOL     OW38846  14.867   5.186   2.791
79005SOL    HW138847   0.052   5.263   2.787
79005SOL    HW238848   0.054   5.112   2.775
79006SOL     OW38849  14.331   6.297   7.470
79006SOL    HW138850  14.325   6.202   7.480
79006SOL    HW238851  14.370   6.326   7.553
79007SOL     OW38852   2.616   5.412   5.080
79007SOL    HW138853   2.708   5.437   5.081
79007SOL    HW238854   2.570   5.492   5.053
79008SOL     OW38855   9.154   3.416   8.535
79008SOL    HW138856   9.194   3.493   8.497
79008SOL    HW238857   9.082   3.394   8.476
79009SOL     OW38858  11.256  10.340   3.176
79009SOL    HW138859  11.262  10.249   3.205
79009SOL    HW238860  11.311  10.388   3.237
79010SOL     OW38861   3.871   9.881   4.279
79010SOL    HW138862   3.883   9.893   4.184
79010SOL    HW238863   3.935   9.939   4.319
79011SOL     OW38864   2.573   0.480   6.271
79011SOL    HW138865   2.584   0.541   6.343
79011SOL    HW238866   2.523   0.407   6.309
79012SOL     OW38867   1.606   1.079   6.176
79012SOL    HW138868   1.691   1.084   6.132
79012SOL    HW238869   1.542   1.105   6.109
79013SOL     OW38870  10.657   2.550   6.756
79013SOL    HW138871  10.603   2.626   6.735
79013SOL    HW238872  10.710   2.578   6.831
79014SOL     OW38873  13.214   8.535   6.532
79014SOL    HW138874  13.231   8.623   6.500
79014SOL    HW238875  13.297   8.489   6.520
79015SOL     OW38876   5.232   8.553   5.945
79015SOL    HW138877   5.271   8.555   5.857
79015SOL    HW238878   5.298   8.510   6.000
79016SOL     OW38879  10.974   3.356   0.835
79016SOL    HW138880  10.953   3.367   0.743
79016SOL    HW238881  10.974   3.445   0.871
79017SOL     OW38882   1.078  14.502   5.209
79017SOL    HW138883   0.985  14.504   5.188
79017SOL    HW238884   1.111  14.588   5.181
79018SOL     OW38885  10.923  14.251  13.073
79018SOL    HW138886  10.985  14.210  13.012
79018SOL    HW238887  10.951  14.342  13.077
79019SOL     OW38888   2.840   9.353   6.847
79019SOL    HW138889   2.747   9.334   6.856
79019SOL    HW238890   2.875   9.279   6.798
79020SOL     OW38891  10.764   9.132   6.416
79020SOL    HW138892  10.816   9.052   6.414
79020SOL    HW238893  10.685   9.110   6.367
79021SOL     OW38894   3.438   1.873  12.619
79021SOL    HW138895   3.388   1.916  12.688
79021SOL    HW238896   3.426   1.930  12.542
79022SOL     OW38897   3.944  14.029  11.189
79022SOL    HW138898   3.869  13.993  11.236
79022SOL    HW238899   3.990  13.952  11.155
79023SOL     OW38900  12.718   0.460   1.088
79023SOL    HW138901  12.701   0.479   0.995
79023SOL    HW238902  12.736   0.366   1.091
79024SOL     OW38903   4.732   1.428   2.885
79024SOL    HW138904   4.699   1.470   2.806
79024SOL    HW238905   4.731   1.497   2.951
79025SOL     OW38906   7.755   2.094   4.244
79025SOL    HW138907   7.778   2.006   4.273
79025SOL    HW238908   7.729   2.083   4.152
79026SOL     OW38909   1.217  12.760   8.239
79026SOL    HW138910   1.241  12.776   8.330
79026SOL    HW238911   1.288  12.707   8.204
79027SOL     OW38912   5.785   0.514  12.908
79027SOL    HW138913   5.871   0.511  12.949
79027SOL    HW238914   5.776   0.430  12.864
79028SOL     OW38915   3.377   4.955   9.534
79028SOL    HW138916   3.448   5.007   9.573
79028SOL    HW238917   3.355   4.891   9.600
79029SOL     OW38918  13.398   4.353   9.328
79029SOL    HW138919  13.424   4.443   9.309
79029SOL    HW238920  13.474   4.314   9.372
79030SOL     OW38921   5.460   7.178  11.217
79030SOL    HW138922   5.377   7.154  11.174
79030SOL    HW238923   5.495   7.094  11.248
79031SOL     OW38924   7.721   4.789   8.442
79031SOL    HW138925   7.687   4.702   8.421
79031SOL    HW238926   7.670   4.849   8.388
79032SOL     OW38927  12.507   6.065   0.595
79032SOL    HW138928  12.521   5.984   0.644
79032SOL    HW238929  12.509   6.038   0.503
79033SOL     OW38930  13.379   6.789  11.163
79033SOL    HW138931  13.373   6.879  11.129
79033SOL    HW238932  13.456   6.752  11.120
79034SOL     OW38933   0.107   0.132   1.210
79034SOL    HW138934   0.168   0.153   1.281
79034SOL    HW238935   0.145   0.055   1.168
79035SOL     OW38936   6.339  12.520   6.391
79035SOL    HW138937   6.404  12.586   6.368
79035SOL    HW238938   6.279  12.565   6.451
79036SOL     OW38939  12.440   8.654   9.547
79036SOL    HW138940  12.434   8.563   9.518
79036SOL    HW238941  12.524   8.685   9.511
79037SOL     OW38942   7.656  10.292   1.601
79037SOL    HW138943   7.740  10.311   1.560
79037SOL    HW238944   7.675  10.286   1.695
79038SOL     OW38945   9.986   0.169   1.055
79038SOL    HW138946  10.075   0.202   1.061
79038SOL    HW238947   9.969   0.161   0.962
79039SOL     OW38948  12.062   0.108  12.877
79039SOL    HW138949  12.154   0.079  12.880
79039SOL    HW238950  12.017   0.039  12.829
79040SOL     OW38951  13.549   4.978   9.652
79040SOL    HW138952  13.533   4.992   9.559
79040SOL    HW238953  13.501   4.898   9.673
79041SOL     OW38954   0.496   7.330   7.443
79041SOL    HW138955   0.430   7.265   7.421
79041SOL    HW238956   0.448   7.402   7.484
79042SOL     OW38957   7.357  14.015   5.642
79042SOL    HW138958   7.284  14.060   5.684
79042SOL    HW238959   7.366  14.058   5.557
79043SOL     OW38960  14.231   8.393   8.779
79043SOL    HW138961  14.168   8.355   8.840
79043SOL    HW238962  14.315   8.385   8.824
79044SOL     OW38963   8.954   6.833  12.114
79044SOL    HW138964   9.047   6.855  12.112
79044SOL    HW238965   8.951   6.740  12.091
79045SOL     OW38966   1.551   9.332   4.372
79045SOL    HW138967   1.495   9.268   4.414
79045SOL    HW238968   1.627   9.340   4.431
79046SOL     OW38969   4.385  12.745   9.551
79046SOL    HW138970   4.315  12.786   9.500
79046SOL    HW238971   4.369  12.651   9.543
79047SOL     OW38972   4.678   1.695   2.341
79047SOL    HW138973   4.661   1.742   2.422
79047SOL    HW238974   4.719   1.613   2.368
79048SOL     OW38975  13.602   8.824   4.506
79048SOL    HW138976  13.616   8.730   4.517
79048SOL    HW238977  13.635   8.863   4.587
79049SOL     OW38978   3.020   8.387  11.551
79049SOL    HW138979   2.941   8.406  11.602
79049SOL    HW238980   3.081   8.457  11.574
79050SOL     OW38981  10.273   4.708   8.658
79050SOL    HW138982  10.203   4.645   8.673
79050SOL    HW238983  10.344   4.656   8.620
79051SOL     OW38984   3.322   0.931   9.953
79051SOL    HW138985   3.367   0.925   9.869
79051SOL    HW238986   3.276   1.015   9.950
79052SOL     OW38987  12.491   6.547   0.971
79052SOL    HW138988  12.420   6.587   0.920
79052SOL    HW238989  12.448   6.477   1.020
79053SOL     OW38990  10.300  13.994   1.239
79053SOL    HW138991  10.300  13.933   1.313
79053SOL    HW238992  10.393  14.013   1.224
79054SOL     OW38993   5.443   5.285  13.807
79054SOL    HW138994   5.533   5.288  13.776
79054SOL    HW238995   5.450   5.260  13.899
79055SOL     OW38996   9.669  12.612  11.597
79055SOL    HW138997   9.619  12.554  11.655
79055SOL    HW238998   9.755  12.570  11.589
79056SOL     OW38999   8.366   9.149   1.121
79056SOL    HW139000   8.446   9.147   1.174
79056SOL    HW239001   8.394   9.186   1.038
79057SOL     OW39002  13.147   9.591   9.046
79057SOL    HW139003  13.090   9.668   9.040
79057SOL    HW239004  13.087   9.518   9.061
79058SOL     OW39005   4.311   4.658   4.642
79058SOL    HW139006   4.334   4.750   4.659
79058SOL    HW239007   4.215   4.657   4.647
79059SOL     OW39008   5.440   9.991   8.488
79059SOL    HW139009   5.444   9.935   8.410
79059SOL    HW239010   5.508   9.957   8.546
79060SOL     OW39011   4.120  11.751   8.245
79060SOL    HW139012   4.200  11.700   8.232
79060SOL    HW239013   4.049  11.688   8.234
79061SOL     OW39014   7.696   3.666   6.675
79061SOL    HW139015   7.658   3.729   6.736
79061SOL    HW239016   7.727   3.720   6.602
79062SOL     OW39017  13.922   5.083   9.385
79062SOL    HW139018  13.893   5.077   9.476
79062SOL    HW239019  13.938   5.176   9.371
79063SOL     OW39020   0.336   4.446  10.360
79063SOL    HW139021   0.300   4.416  10.443
79063SOL    HW239022   0.395   4.518  10.384
79064SOL     OW39023   1.124  14.488   1.576
79064SOL    HW139024   1.170  14.416   1.532
79064SOL    HW239025   1.100  14.452   1.661
79065SOL     OW39026   7.357  11.729   5.130
79065SOL    HW139027   7.287  11.743   5.193
79065SOL    HW239028   7.436  11.724   5.182
79066SOL     OW39029   3.572   0.771  13.105
79066SOL    HW139030   3.639   0.818  13.057
79066SOL    HW239031   3.614   0.744  13.187
79067SOL     OW39032  11.713   3.016   2.637
79067SOL    HW139033  11.740   3.028   2.728
79067SOL    HW239034  11.732   3.100   2.595
79068SOL     OW39035   8.303  11.653   8.701
79068SOL    HW139036   8.331  11.605   8.622
79068SOL    HW239037   8.318  11.592   8.773
79069SOL     OW39038  11.414  13.586   5.205
79069SOL    HW139039  11.342  13.575   5.267
79069SOL    HW239040  11.395  13.668   5.159
79070SOL     OW39041   1.339  14.610   5.407
79070SOL    HW139042   1.298  14.675   5.350
79070SOL    HW239043   1.346  14.531   5.352
79071SOL     OW39044   2.469  10.963   4.353
79071SOL    HW139045   2.562  10.984   4.343
79071SOL    HW239046   2.435  10.961   4.264
79072SOL     OW39047   8.085   4.532  11.169
79072SOL    HW139048   8.061   4.625  11.168
79072SOL    HW239049   8.159   4.527  11.109
79073SOL     OW39050   6.400   2.811   8.936
79073SOL    HW139051   6.454   2.854   9.003
79073SOL    HW239052   6.320   2.787   8.982
79074SOL     OW39053   6.188   0.290   5.993
79074SOL    HW139054   6.275   0.250   5.988
79074SOL    HW239055   6.167   0.312   5.902
79075SOL     OW39056   8.292  12.400   8.021
79075SOL    HW139057   8.311  12.463   8.090
79075SOL    HW239058   8.377  12.377   7.985
79076SOL     OW39059   8.329   3.119   7.238
79076SOL    HW139060   8.235   3.112   7.258
79076SOL    HW239061   8.343   3.212   7.224
79077SOL     OW39062   5.877  13.166   1.244
79077SOL    HW139063   5.840  13.148   1.331
79077SOL    HW239064   5.825  13.239   1.211
79078SOL     OW39065   1.393  14.617  10.752
79078SOL    HW139066   1.362  14.554  10.686
79078SOL    HW239067   1.468  14.574  10.793
79079SOL     OW39068  13.701   4.520   9.653
79079SOL    HW139069  13.739   4.600   9.618
79079SOL    HW239070  13.719   4.523   9.747
79080SOL     OW39071   8.932   1.606   7.546
79080SOL    HW139072   8.974   1.685   7.581
79080SOL    HW239073   8.964   1.535   7.602
79081SOL     OW39074   2.823  11.483  10.754
79081SOL    HW139075   2.811  11.474  10.660
79081SOL    HW239076   2.743  11.526  10.785
79082SOL     OW39077  10.794  11.644   0.852
79082SOL    HW139078  10.718  11.650   0.911
79082SOL    HW239079  10.762  11.678   0.769
79083SOL     OW39080   9.047  10.010   5.965
79083SOL    HW139081   9.027   9.921   5.995
79083SOL    HW239082   9.139  10.007   5.940
79084SOL     OW39083   4.343   8.785   7.225
79084SOL    HW139084   4.291   8.860   7.196
79084SOL    HW239085   4.372   8.743   7.144
79085SOL     OW39086   4.613  10.937   8.516
79085SOL    HW139087   4.582  10.913   8.429
79085SOL    HW239088   4.706  10.913   8.516
79086SOL     OW39089  13.009  13.553  14.319
79086SOL    HW139090  12.981  13.487  14.256
79086SOL    HW239091  13.056  13.618  14.266
79087SOL     OW39092   8.855   5.352  12.033
79087SOL    HW139093   8.895   5.339  11.947
79087SOL    HW239094   8.802   5.273  12.046
79088SOL     OW39095   0.513   9.200   8.870
79088SOL    HW139096   0.463   9.132   8.914
79088SOL    HW239097   0.479   9.201   8.780
79089SOL     OW39098   8.731   5.647  12.631
79089SOL    HW139099   8.680   5.587  12.686
79089SOL    HW239100   8.666   5.686  12.572
79090SOL     OW39101   7.851  13.865   8.100
79090SOL    HW139102   7.823  13.908   8.020
79090SOL    HW239103   7.772  13.860   8.154
79091SOL     OW39104   3.045   9.180   8.283
79091SOL    HW139105   2.991   9.104   8.304
79091SOL    HW239106   3.134   9.147   8.282
79092SOL     OW39107   6.599   1.348   5.187
79092SOL    HW139108   6.648   1.284   5.239
79092SOL    HW239109   6.657   1.424   5.182
79093SOL     OW39110   2.280  14.164  14.046
79093SOL    HW139111   2.287  14.073  14.074
79093SOL    HW239112   2.263  14.159  13.952
79094SOL     OW39113   6.107  10.824   7.649
79094SOL    HW139114   6.164  10.778   7.711
79094SOL    HW239115   6.064  10.754   7.600
79095SOL     OW39116   5.218   2.056   8.085
79095SOL    HW139117   5.204   2.008   8.003
79095SOL    HW239118   5.308   2.036   8.109
79096SOL     OW39119   8.183  10.155   7.424
79096SOL    HW139120   8.251  10.148   7.357
79096SOL    HW239121   8.228  10.196   7.499
79097SOL     OW39122   0.417   0.327  13.630
79097SOL    HW139123   0.467   0.313  13.549
79097SOL    HW239124   0.419   0.242  13.673
79098SOL     OW39125   0.915  14.165  14.568
79098SOL    HW139126   0.885  14.178  14.479
79098SOL    HW239127   0.868  14.088  14.599
79099SOL     OW39128   5.412  10.938   9.553
79099SOL    HW139129   5.377  10.923   9.641
79099SOL    HW239130   5.507  10.933   9.564
79100SOL     OW39131  13.505  11.699  13.406
79100SOL    HW139132  13.432  11.742  13.362
79100SOL    HW239133  13.472  11.612  13.428
79101SOL     OW39134   7.090   5.798   1.512
79101SOL    HW139135   7.105   5.738   1.585
79101SOL    HW239136   7.065   5.881   1.553
79102SOL     OW39137   6.940   8.846   8.240
79102SOL    HW139138   6.901   8.851   8.327
79102SOL    HW239139   6.959   8.753   8.228
79103SOL     OW39140   4.342   8.661   5.807
79103SOL    HW139141   4.289   8.664   5.886
79103SOL    HW239142   4.396   8.582   5.818
79104SOL     OW39143  12.502   3.693  12.023
79104SOL    HW139144  12.547   3.612  12.047
79104SOL    HW239145  12.478   3.680  11.931
79105SOL     OW39146  12.501   6.303   6.761
79105SOL    HW139147  12.464   6.242   6.697
79105SOL    HW239148  12.592   6.276   6.770
79106SOL     OW39149   6.081   0.604   6.577
79106SOL    HW139150   6.152   0.540   6.584
79106SOL    HW239151   6.117   0.685   6.612
79107SOL     OW39152   8.990  11.228  10.585
79107SOL    HW139153   9.073  11.184  10.605
79107SOL    HW239154   8.932  11.157  10.556
79108SOL     OW39155   0.687  11.849   3.779
79108SOL    HW139156   0.664  11.806   3.697
79108SOL    HW239157   0.677  11.942   3.762
79109SOL     OW39158  13.695   1.778   3.899
79109SOL    HW139159  13.705   1.723   3.822
79109SOL    HW239160  13.738   1.729   3.969
79110SOL     OW39161   5.572  14.716   6.139
79110SOL    HW139162   5.571  14.806   6.107
79110SOL    HW239163   5.640  14.673   6.086
79111SOL     OW39164   8.418   7.869   9.345
79111SOL    HW139165   8.349   7.848   9.282
79111SOL    HW239166   8.458   7.949   9.311
79112SOL     OW39167  14.515   1.958   0.038
79112SOL    HW139168  14.442   1.896   0.043
79112SOL    HW239169  14.590   1.908   0.072
79113SOL     OW39170   0.354   0.400   7.591
79113SOL    HW139171   0.318   0.322   7.632
79113SOL    HW239172   0.361   0.377   7.498
79114SOL     OW39173   7.389   2.292   2.810
79114SOL    HW139174   7.380   2.197   2.808
79114SOL    HW239175   7.420   2.315   2.722
79115SOL     OW39176  11.397   9.131   2.673
79115SOL    HW139177  11.485   9.154   2.644
79115SOL    HW239178  11.369   9.204   2.727
79116SOL     OW39179   0.243  13.984   1.268
79116SOL    HW139180   0.226  14.051   1.202
79116SOL    HW239181   0.233  13.901   1.221
79117SOL     OW39182  13.954   2.548   1.912
79117SOL    HW139183  13.969   2.505   1.996
79117SOL    HW239184  13.906   2.483   1.860
79118SOL     OW39185   0.281  10.719  10.510
79118SOL    HW139186   0.261  10.811  10.530
79118SOL    HW239187   0.287  10.716  10.415
79119SOL     OW39188   2.848  11.151   0.603
79119SOL    HW139189   2.783  11.109   0.659
79119SOL    HW239190   2.812  11.239   0.587
79120SOL     OW39191  12.990   0.529  12.671
79120SOL    HW139192  12.898   0.541  12.695
79120SOL    HW239193  13.020   0.616  12.644
79121SOL     OW39194   2.783  13.075   4.062
79121SOL    HW139195   2.690  13.053   4.057
79121SOL    HW239196   2.829  12.994   4.042
79122SOL     OW39197  10.099   2.113  14.464
79122SOL    HW139198  10.126   2.202  14.442
79122SOL    HW239199  10.177   2.072  14.502
79123SOL     OW39200   6.361  12.709   0.022
79123SOL    HW139201   6.404  12.694  14.809
79123SOL    HW239202   6.391  12.795   0.049
79124SOL     OW39203  11.331   7.227   2.473
79124SOL    HW139204  11.303   7.316   2.492
79124SOL    HW239205  11.263   7.171   2.512
79125SOL     OW39206  10.968  12.571  13.172
79125SOL    HW139207  11.054  12.533  13.154
79125SOL    HW239208  10.935  12.519  13.246
79126SOL     OW39209  12.754  11.245  11.946
79126SOL    HW139210  12.843  11.214  11.959
79126SOL    HW239211  12.714  11.179  11.889
79127SOL     OW39212   8.119   6.619   9.805
79127SOL    HW139213   8.069   6.655   9.732
79127SOL    HW239214   8.132   6.527   9.782
79128SOL     OW39215   3.609   3.777   8.138
79128SOL    HW139216   3.630   3.734   8.055
79128SOL    HW239217   3.668   3.738   8.201
79129SOL     OW39218   8.872   8.114   5.111
79129SOL    HW139219   8.886   8.134   5.203
79129SOL    HW239220   8.938   8.166   5.065
79130SOL     OW39221   0.253   4.924   5.902
79130SOL    HW139222   0.251   4.966   5.816
79130SOL    HW239223   0.213   4.838   5.887
79131SOL     OW39224   0.468  14.848  11.812
79131SOL    HW139225   0.518  14.770  11.836
79131SOL    HW239226   0.411  14.818  11.741
79132SOL     OW39227  12.707   7.294   8.012
79132SOL    HW139228  12.771   7.227   8.033
79132SOL    HW239229  12.623   7.254   8.034
79133SOL     OW39230  10.226  13.415  10.726
79133SOL    HW139231  10.291  13.430  10.657
79133SOL    HW239232  10.270  13.354  10.787
79134SOL     OW39233   1.250   3.334   9.123
79134SOL    HW139234   1.215   3.374   9.203
79134SOL    HW239235   1.191   3.261   9.105
79135SOL     OW39236   6.257  14.415   5.213
79135SOL    HW139237   6.345  14.382   5.235
79135SOL    HW239238   6.257  14.420   5.118
79136SOL     OW39239   2.481  14.384   3.064
79136SOL    HW139240   2.471  14.403   2.971
79136SOL    HW239241   2.395  14.351   3.091
79137SOL     OW39242  14.213   7.904  13.619
79137SOL    HW139243  14.170   7.820  13.635
79137SOL    HW239244  14.268   7.888  13.542
79138SOL     OW39245   3.192   5.879   3.039
79138SOL    HW139246   3.115   5.824   3.057
79138SOL    HW239247   3.169   5.964   3.077
79139SOL     OW39248  12.841   7.021  12.323
79139SOL    HW139249  12.868   7.088  12.260
79139SOL    HW239250  12.924   6.986  12.357
79140SOL     OW39251  14.358  11.688  11.239
79140SOL    HW139252  14.284  11.637  11.207
79140SOL    HW239253  14.405  11.715  11.161
79141SOL     OW39254  11.205  13.097   3.541
79141SOL    HW139255  11.194  13.191   3.548
79141SOL    HW239256  11.212  13.080   3.447
79142SOL     OW39257  14.258  10.652   8.817
79142SOL    HW139258  14.211  10.730   8.788
79142SOL    HW239259  14.218  10.630   8.901
79143SOL     OW39260   9.832   5.955   5.403
79143SOL    HW139261   9.816   6.033   5.350
79143SOL    HW239262   9.744   5.925   5.428
79144SOL     OW39263   2.642   3.883   1.010
79144SOL    HW139264   2.704   3.846   0.946
79144SOL    HW239265   2.675   3.971   1.027
79145SOL     OW39266   6.031   6.414  10.672
79145SOL    HW139267   6.105   6.382  10.620
79145SOL    HW239268   5.990   6.335  10.707
79146SOL     OW39269   6.844  12.365  12.701
79146SOL    HW139270   6.800  12.288  12.665
79146SOL    HW239271   6.813  12.438  12.647
79147SOL     OW39272   2.295  12.555   5.844
79147SOL    HW139273   2.256  12.495   5.780
79147SOL    HW239274   2.315  12.634   5.793
79148SOL     OW39275  10.219  13.601   6.853
79148SOL    HW139276  10.203  13.563   6.940
79148SOL    HW239277  10.258  13.529   6.803
79149SOL     OW39278  11.784   6.027   5.146
79149SOL    HW139279  11.860   5.968   5.141
79149SOL    HW239280  11.743   6.020   5.060
79150SOL     OW39281  11.323  13.157   0.794
79150SOL    HW139282  11.334  13.192   0.883
79150SOL    HW239283  11.350  13.065   0.801
79151SOL     OW39284  10.699  11.522   4.144
79151SOL    HW139285  10.783  11.559   4.170
79151SOL    HW239286  10.718  11.469   4.067
79152SOL     OW39287   7.647   6.801   1.904
79152SOL    HW139288   7.733   6.812   1.943
79152SOL    HW239289   7.596   6.754   1.970
79153SOL     OW39290   1.230   4.986   7.314
79153SOL    HW139291   1.176   5.044   7.368
79153SOL    HW239292   1.166   4.930   7.269
79154SOL     OW39293   2.245   3.418   2.062
79154SOL    HW139294   2.294   3.420   2.145
79154SOL    HW239295   2.237   3.325   2.041
79155SOL     OW39296  14.113   5.514   6.496
79155SOL    HW139297  14.078   5.493   6.409
79155SOL    HW239298  14.036   5.516   6.553
79156SOL     OW39299   6.832   3.637   8.923
79156SOL    HW139300   6.911   3.686   8.947
79156SOL    HW239301   6.760   3.693   8.949
79157SOL     OW39302   9.606   0.216   1.804
79157SOL    HW139303   9.627   0.228   1.712
79157SOL    HW239304   9.525   0.166   1.805
79158SOL     OW39305   6.519   7.662   8.648
79158SOL    HW139306   6.568   7.618   8.579
79158SOL    HW239307   6.583   7.683   8.715
79159SOL     OW39308  12.160   2.661   0.330
79159SOL    HW139309  12.086   2.604   0.310
79159SOL    HW239310  12.194   2.687   0.245
79160SOL     OW39311   0.170   1.913   7.295
79160SOL    HW139312   0.086   1.955   7.316
79160SOL    HW239313   0.161   1.887   7.204
79161SOL     OW39314   9.507  10.455   4.536
79161SOL    HW139315   9.603  10.456   4.543
79161SOL    HW239316   9.491  10.462   4.441
79162SOL     OW39317   4.463  10.597  12.883
79162SOL    HW139318   4.395  10.602  12.816
79162SOL    HW239319   4.537  10.556  12.838
79163SOL     OW39320   2.120   6.069   3.417
79163SOL    HW139321   2.150   6.071   3.508
79163SOL    HW239322   2.193   6.031   3.368
79164SOL     OW39323  10.581   9.202  12.727
79164SOL    HW139324  10.664   9.249  12.732
79164SOL    HW239325  10.585   9.140  12.800
79165SOL     OW39326  12.635   9.412  11.555
79165SOL    HW139327  12.578   9.489  11.563
79165SOL    HW239328  12.597   9.348  11.615
79166SOL     OW39329   9.906  10.910  14.687
79166SOL    HW139330   9.826  10.943  14.727
79166SOL    HW239331   9.950  10.861  14.757
79167SOL     OW39332   4.440  11.387  12.728
79167SOL    HW139333   4.387  11.377  12.806
79167SOL    HW239334   4.392  11.449  12.673
79168SOL     OW39335   5.412   6.923   0.490
79168SOL    HW139336   5.357   6.845   0.501
79168SOL    HW239337   5.442   6.918   0.399
79169SOL     OW39338   8.195   2.450   3.674
79169SOL    HW139339   8.152   2.514   3.618
79169SOL    HW239340   8.133   2.378   3.679
79170SOL     OW39341  11.513   3.201   0.432
79170SOL    HW139342  11.513   3.223   0.339
79170SOL    HW239343  11.604   3.208   0.459
79171SOL     OW39344   3.098   0.267  12.878
79171SOL    HW139345   3.079   0.239  12.967
79171SOL    HW239346   3.037   0.339  12.861
79172SOL     OW39347   2.530  14.019  14.358
79172SOL    HW139348   2.605  14.014  14.298
79172SOL    HW239349   2.461  13.970  14.313
79173SOL     OW39350   3.228   0.367   2.517
79173SOL    HW139351   3.288   0.412   2.577
79173SOL    HW239352   3.283   0.339   2.445
79174SOL     OW39353   7.994   7.345   4.087
79174SOL    HW139354   7.989   7.289   4.010
79174SOL    HW239355   7.916   7.400   4.082
79175SOL     OW39356  10.892   1.620   8.936
79175SOL    HW139357  10.931   1.698   8.976
79175SOL    HW239358  10.821   1.596   8.996
79176SOL     OW39359  10.393  11.797   0.905
79176SOL    HW139360  10.310  11.762   0.875
79176SOL    HW239361  10.392  11.889   0.878
79177SOL     OW39362   4.411  14.610   8.200
79177SOL    HW139363   4.375  14.660   8.127
79177SOL    HW239364   4.460  14.538   8.159
79178SOL     OW39365   7.674   8.246   3.870
79178SOL    HW139366   7.677   8.150   3.878
79178SOL    HW239367   7.582   8.266   3.857
79179SOL     OW39368   3.291   9.030   4.816
79179SOL    HW139369   3.314   9.089   4.744
79179SOL    HW239370   3.227   9.080   4.868
79180SOL     OW39371  12.351   0.472   5.064
79180SOL    HW139372  12.357   0.446   4.973
79180SOL    HW239373  12.394   0.402   5.113
79181SOL     OW39374  14.453   2.106   2.816
79181SOL    HW139375  14.374   2.157   2.795
79181SOL    HW239376  14.492   2.087   2.731
79182SOL     OW39377   0.432   1.689  12.006
79182SOL    HW139378   0.420   1.725  11.918
79182SOL    HW239379   0.526   1.683  12.017
79183SOL     OW39380  14.529   8.438  12.951
79183SOL    HW139381  14.456   8.499  12.940
79183SOL    HW239382  14.527   8.383  12.872
79184SOL     OW39383   9.000   7.520  14.447
79184SOL    HW139384   8.950   7.546  14.525
79184SOL    HW239385   8.957   7.565  14.375
79185SOL     OW39386   3.574   8.333  10.805
79185SOL    HW139387   3.661   8.309  10.837
79185SOL    HW239388   3.590   8.396  10.735
79186SOL     OW39389   6.947  11.535  13.247
79186SOL    HW139390   7.007  11.461  13.258
79186SOL    HW239391   6.882  11.505  13.184
79187SOL     OW39392   7.256   0.842   3.630
79187SOL    HW139393   7.286   0.858   3.541
79187SOL    HW239394   7.254   0.928   3.671
79188SOL     OW39395   7.589   3.505   8.551
79188SOL    HW139396   7.517   3.520   8.490
79188SOL    HW239397   7.657   3.566   8.524
79189SOL     OW39398  10.993  12.025  12.810
79189SOL    HW139399  11.021  12.116  12.797
79189SOL    HW239400  10.897  12.029  12.808
79190SOL     OW39401  10.291   4.871   1.541
79190SOL    HW139402  10.306   4.941   1.604
79190SOL    HW239403  10.236   4.912   1.473
79191SOL     OW39404   1.675   4.283   7.991
79191SOL    HW139405   1.665   4.378   7.976
79191SOL    HW239406   1.586   4.249   7.985
79192SOL     OW39407   0.656   1.618   4.102
79192SOL    HW139408   0.688   1.702   4.136
79192SOL    HW239409   0.631   1.637   4.011
79193SOL     OW39410  10.403   2.186  14.431
79193SOL    HW139411  10.483   2.233  14.407
79193SOL    HW239412  10.336   2.224  14.374
79194SOL     OW39413  14.657   3.723  10.351
79194SOL    HW139414  14.720   3.793  10.366
79194SOL    HW239415  14.573   3.767  10.340
79195SOL     OW39416  12.123   1.897  14.451
79195SOL    HW139417  12.167   1.812  14.454
79195SOL    HW239418  12.180   1.952  14.398
79196SOL     OW39419   3.707  13.690  14.630
79196SOL    HW139420   3.790  13.707  14.675
79196SOL    HW239421   3.645  13.669  14.700
79197SOL     OW39422   3.386  13.473   9.994
79197SOL    HW139423   3.478  13.447   9.986
79197SOL    HW239424   3.389  13.561  10.031
79198SOL     OW39425   4.868  10.882   8.443
79198SOL    HW139426   4.940  10.908   8.501
79198SOL    HW239427   4.895  10.797   8.408
79199SOL     OW39428  11.680  13.360   6.621
79199SOL    HW139429  11.612  13.302   6.588
79199SOL    HW239430  11.642  13.400   6.699
79200SOL     OW39431  11.081  10.724   7.833
79200SOL    HW139432  11.081  10.717   7.738
79200SOL    HW239433  11.095  10.634   7.864
79201SOL     OW39434   8.482   8.716   4.917
79201SOL    HW139435   8.492   8.675   5.003
79201SOL    HW239436   8.491   8.644   4.855
79202SOL     OW39437  12.454  10.659   0.650
79202SOL    HW139438  12.524  10.711   0.690
79202SOL    HW239439  12.423  10.602   0.720
79203SOL     OW39440   4.469   4.328   2.821
79203SOL    HW139441   4.390   4.372   2.790
79203SOL    HW239442   4.462   4.332   2.916
79204SOL     OW39443   3.581   2.895   2.614
79204SOL    HW139444   3.601   2.981   2.578
79204SOL    HW239445   3.560   2.911   2.706
79205SOL     OW39446   0.656   7.208   9.284
79205SOL    HW139447   0.721   7.139   9.294
79205SOL    HW239448   0.702   7.278   9.239
79206SOL     OW39449   5.418  13.318  10.362
79206SOL    HW139450   5.482  13.299  10.431
79206SOL    HW239451   5.355  13.376  10.404
79207SOL     OW39452   8.205   4.441   5.830
79207SOL    HW139453   8.119   4.410   5.861
79207SOL    HW239454   8.213   4.529   5.865
79208SOL     OW39455   3.595  12.572  12.086
79208SOL    HW139456   3.502  12.584  12.103
79208SOL    HW239457   3.615  12.635  12.016
79209SOL     OW39458   0.390  14.257   1.707
79209SOL    HW139459   0.395  14.276   1.613
79209SOL    HW239460   0.440  14.327   1.748
79210SOL     OW39461   5.161   4.077   2.746
79210SOL    HW139462   5.205   3.993   2.758
79210SOL    HW239463   5.212   4.139   2.798
79211SOL     OW39464   3.559  11.243  12.469
79211SOL    HW139465   3.570  11.285  12.383
79211SOL    HW239466   3.622  11.171  12.468
79212SOL     OW39467   8.236   6.018   6.852
79212SOL    HW139468   8.312   6.076   6.863
79212SOL    HW239469   8.232   6.002   6.758
79213SOL     OW39470   5.816   6.274  11.158
79213SOL    HW139471   5.821   6.232  11.244
79213SOL    HW239472   5.808   6.201  11.096
79214SOL     OW39473   0.734   2.021   1.950
79214SOL    HW139474   0.681   1.977   1.883
79214SOL    HW239475   0.810   2.054   1.902
79215SOL     OW39476   9.483   6.174   3.452
79215SOL    HW139477   9.398   6.157   3.412
79215SOL    HW239478   9.477   6.134   3.539
79216SOL     OW39479   9.939   1.310  13.715
79216SOL    HW139480  10.035   1.310  13.719
79216SOL    HW239481   9.919   1.345  13.628
79217SOL     OW39482   6.791   6.595   0.797
79217SOL    HW139483   6.859   6.560   0.855
79217SOL    HW239484   6.824   6.682   0.772
79218SOL     OW39485  14.598  14.442  13.684
79218SOL    HW139486  14.559  14.527  13.664
79218SOL    HW239487  14.598  14.438  13.780
79219SOL     OW39488   5.597  12.487   3.040
79219SOL    HW139489   5.633  12.574   3.023
79219SOL    HW239490   5.666  12.442   3.089
79220SOL     OW39491  12.079   5.362   3.197
79220SOL    HW139492  12.055   5.439   3.145
79220SOL    HW239493  12.124   5.398   3.274
79221SOL     OW39494   9.004  11.292   6.085
79221SOL    HW139495   9.076  11.353   6.100
79221SOL    HW239496   9.041  11.206   6.109
79222SOL     OW39497   4.393   4.384  13.994
79222SOL    HW139498   4.466   4.407  13.937
79222SOL    HW239499   4.337   4.462  13.994
79223SOL     OW39500   8.215  11.048   0.893
79223SOL    HW139501   8.162  10.971   0.873
79223SOL    HW239502   8.156  11.122   0.875
79224SOL     OW39503  14.558   1.811   4.985
79224SOL    HW139504  14.570   1.903   4.966
79224SOL    HW239505  14.640   1.783   5.025
79225SOL     OW39506  11.334   8.984   1.883
79225SOL    HW139507  11.387   8.943   1.951
79225SOL    HW239508  11.317   8.914   1.820
79226SOL     OW39509   9.399   4.489   5.982
79226SOL    HW139510   9.368   4.531   6.063
79226SOL    HW239511   9.370   4.547   5.912
79227SOL     OW39512  10.738   4.978   7.217
79227SOL    HW139513  10.763   5.060   7.175
79227SOL    HW239514  10.647   4.992   7.244
79228SOL     OW39515   6.525   3.122  10.227
79228SOL    HW139516   6.450   3.121  10.286
79228SOL    HW239517   6.557   3.212  10.230
79229SOL     OW39518   4.886   3.234   9.764
79229SOL    HW139519   4.876   3.216   9.858
79229SOL    HW239520   4.892   3.148   9.723
79230SOL     OW39521   3.945   0.200   7.821
79230SOL    HW139522   3.850   0.186   7.829
79230SOL    HW239523   3.955   0.254   7.743
79231SOL     OW39524   2.096   1.938   6.558
79231SOL    HW139525   2.186   1.944   6.589
79231SOL    HW239526   2.068   2.029   6.546
79232SOL     OW39527   0.243  14.453  11.055
79232SOL    HW139528   0.311  14.517  11.078
79232SOL    HW239529   0.177  14.504  11.008
79233SOL     OW39530  13.172  14.215   5.899
79233SOL    HW139531  13.098  14.156   5.883
79233SOL    HW239532  13.132  14.296   5.930
79234SOL     OW39533   2.066  10.719   7.079
79234SOL    HW139534   2.007  10.720   7.003
79234SOL    HW239535   2.009  10.699   7.153
79235SOL     OW39536  13.657   4.639  13.164
79235SOL    HW139537  13.685   4.692  13.239
79235SOL    HW239538  13.735   4.588  13.141
79236SOL     OW39539  10.667  12.261   6.222
79236SOL    HW139540  10.646  12.189   6.282
79236SOL    HW239541  10.736  12.225   6.166
79237SOL     OW39542   4.158   4.043   6.223
79237SOL    HW139543   4.122   4.131   6.227
79237SOL    HW239544   4.119   3.997   6.297
79238SOL     OW39545  13.634   9.531   4.644
79238SOL    HW139546  13.606   9.490   4.562
79238SOL    HW239547  13.681   9.610   4.617
79239SOL     OW39548  10.056  11.792   7.684
79239SOL    HW139549  10.144  11.756   7.698
79239SOL    HW239550  10.057  11.876   7.731
79240SOL     OW39551   6.479   9.319   6.557
79240SOL    HW139552   6.445   9.371   6.630
79240SOL    HW239553   6.555   9.369   6.526
79241SOL     OW39554  13.050  12.188   3.929
79241SOL    HW139555  13.100  12.107   3.922
79241SOL    HW239556  12.970  12.163   3.975
79242SOL     OW39557   6.417  10.663   1.557
79242SOL    HW139558   6.390  10.582   1.600
79242SOL    HW239559   6.491  10.695   1.609
79243SOL     OW39560  12.029   6.493   3.583
79243SOL    HW139561  12.121   6.465   3.578
79243SOL    HW239562  11.990   6.461   3.502
79244SOL     OW39563   9.507   8.912  14.352
79244SOL    HW139564   9.521   8.824  14.387
79244SOL    HW239565   9.502   8.900  14.258
79245SOL     OW39566   8.845  10.607   2.445
79245SOL    HW139567   8.882  10.695   2.453
79245SOL    HW239568   8.815  10.603   2.354
79246SOL     OW39569   0.326   5.017   9.159
79246SOL    HW139570   0.415   5.053   9.152
79246SOL    HW239571   0.337   4.935   9.208
79247SOL     OW39572   5.710   7.803  12.037
79247SOL    HW139573   5.728   7.896  12.026
79247SOL    HW239574   5.744   7.782  12.125
79248SOL     OW39575  10.364   3.470   7.421
79248SOL    HW139576  10.320   3.425   7.494
79248SOL    HW239577  10.359   3.407   7.348
79249SOL     OW39578   7.441   9.698   9.796
79249SOL    HW139579   7.468   9.615   9.835
79249SOL    HW239580   7.476   9.694   9.707
79250SOL     OW39581  11.040  14.459   4.335
79250SOL    HW139582  10.968  14.490   4.280
79250SOL    HW239583  11.043  14.521   4.408
79251SOL     OW39584   7.266   5.929   5.937
79251SOL    HW139585   7.284   5.838   5.914
79251SOL    HW239586   7.352   5.966   5.957
79252SOL     OW39587  13.672   6.794   9.903
79252SOL    HW139588  13.722   6.762   9.978
79252SOL    HW239589  13.708   6.881   9.885
79253SOL     OW39590  12.901   2.552   0.529
79253SOL    HW139591  12.901   2.567   0.624
79253SOL    HW239592  12.808   2.552   0.505
79254SOL     OW39593   8.540   0.874   1.020
79254SOL    HW139594   8.535   0.928   1.099
79254SOL    HW239595   8.494   0.925   0.953
79255SOL     OW39596   1.012   6.557  13.524
79255SOL    HW139597   0.987   6.469  13.554
79255SOL    HW239598   1.008   6.552  13.429
79256SOL     OW39599   5.169   2.740  12.937
79256SOL    HW139600   5.076   2.726  12.917
79256SOL    HW239601   5.212   2.742  12.851
79257SOL     OW39602   5.575   6.930   3.144
79257SOL    HW139603   5.586   6.950   3.237
79257SOL    HW239604   5.648   6.872   3.123
79258SOL     OW39605   2.802   7.070  12.537
79258SOL    HW139606   2.790   7.158  12.501
79258SOL    HW239607   2.801   7.082  12.632
79259SOL     OW39608  10.498  14.086   3.306
79259SOL    HW139609  10.566  14.024   3.334
79259SOL    HW239610  10.471  14.130   3.386
79260SOL     OW39611  14.115   0.244   8.434
79260SOL    HW139612  14.177   0.171   8.433
79260SOL    HW239613  14.078   0.243   8.523
79261SOL     OW39614  10.325  12.101   2.152
79261SOL    HW139615  10.417  12.093   2.128
79261SOL    HW239616  10.325  12.160   2.228
79262SOL     OW39617   5.958   7.326   7.148
79262SOL    HW139618   6.014   7.253   7.177
79262SOL    HW239619   6.008   7.368   7.078
79263SOL     OW39620  11.160   1.918  13.856
79263SOL    HW139621  11.121   2.005  13.848
79263SOL    HW239622  11.093   1.865  13.898
79264SOL     OW39623   3.869   9.274   5.407
79264SOL    HW139624   3.850   9.366   5.391
79264SOL    HW239625   3.940   9.253   5.347
79265SOL     OW39626  12.473   8.870   5.834
79265SOL    HW139627  12.553   8.883   5.784
79265SOL    HW239628  12.410   8.835   5.771
79266SOL     OW39629   0.455   2.063  11.760
79266SOL    HW139630   0.406   1.985  11.787
79266SOL    HW239631   0.429   2.131  11.822
79267SOL     OW39632   0.575  10.928   6.227
79267SOL    HW139633   0.608  10.907   6.139
79267SOL    HW239634   0.646  10.975   6.269
79268SOL     OW39635  14.713   0.627   4.237
79268SOL    HW139636  14.636   0.574   4.257
79268SOL    HW239637  14.683   0.717   4.244
79269SOL     OW39638   2.996   4.874   3.400
79269SOL    HW139639   3.006   4.806   3.333
79269SOL    HW239640   3.083   4.913   3.408
79270SOL     OW39641   3.774  14.419   7.452
79270SOL    HW139642   3.807  14.372   7.375
79270SOL    HW239643   3.744  14.504   7.418
79271SOL     OW39644  12.852   8.173   7.323
79271SOL    HW139645  12.814   8.116   7.257
79271SOL    HW239646  12.914   8.117   7.370
79272SOL     OW39647   1.505   5.386  14.429
79272SOL    HW139648   1.431   5.387  14.490
79272SOL    HW239649   1.521   5.293  14.412
79273SOL     OW39650   6.673  14.344   7.509
79273SOL    HW139651   6.669  14.434   7.477
79273SOL    HW239652   6.584  14.311   7.500
79274SOL     OW39653   9.041   1.260   8.101
79274SOL    HW139654   8.981   1.194   8.134
79274SOL    HW239655   9.101   1.277   8.173
79275SOL     OW39656   1.261  13.528  14.554
79275SOL    HW139657   1.297  13.605  14.508
79275SOL    HW239658   1.329  13.461  14.545
79276SOL     OW39659   0.975   3.683   9.799
79276SOL    HW139660   1.065   3.657   9.778
79276SOL    HW239661   0.960   3.759   9.744
79277SOL     OW39662   8.806  10.344  14.297
79277SOL    HW139663   8.759  10.305  14.371
79277SOL    HW239664   8.740  10.396  14.252
79278SOL     OW39665  11.712  13.763   5.660
79278SOL    HW139666  11.743  13.677   5.688
79278SOL    HW239667  11.619  13.750   5.643
79279SOL     OW39668   4.306   5.968   0.193
79279SOL    HW139669   4.272   5.892   0.240
79279SOL    HW239670   4.380   5.998   0.245
79280SOL     OW39671  13.422  13.157   6.972
79280SOL    HW139672  13.515  13.143   6.953
79280SOL    HW239673  13.420  13.186   7.063
79281SOL     OW39674   5.810   3.440   2.962
79281SOL    HW139675   5.881   3.375   2.958
79281SOL    HW239676   5.770   3.427   3.048
79282SOL     OW39677  11.449   7.740  12.915
79282SOL    HW139678  11.502   7.670  12.953
79282SOL    HW239679  11.392   7.695  12.852
79283SOL     OW39680   2.842   9.832   2.328
79283SOL    HW139681   2.752   9.830   2.362
79283SOL    HW239682   2.885   9.758   2.371
79284SOL     OW39683  10.211   4.824  10.870
79284SOL    HW139684  10.301   4.801  10.851
79284SOL    HW239685  10.213   4.854  10.961
79285SOL     OW39686   7.831   1.791   4.052
79285SOL    HW139687   7.737   1.778   4.063
79285SOL    HW239688   7.854   1.737   3.976
79286SOL     OW39689   3.826   9.865   8.206
79286SOL    HW139690   3.789   9.885   8.293
79286SOL    HW239691   3.841   9.950   8.166
79287SOL     OW39692   7.616  10.728   5.419
79287SOL    HW139693   7.544  10.674   5.387
79287SOL    HW239694   7.663  10.671   5.480
79288SOL     OW39695   2.165  11.105   8.305
79288SOL    HW139696   2.173  11.166   8.232
79288SOL    HW239697   2.092  11.137   8.357
79289SOL     OW39698   8.525   9.532   8.044
79289SOL    HW139699   8.474   9.560   8.120
79289SOL    HW239700   8.605   9.584   8.048
79290SOL     OW39701   0.124   8.309   3.146
79290SOL    HW139702   0.039   8.287   3.185
79290SOL    HW239703   0.169   8.360   3.213
79291SOL     OW39704   9.525   1.814  13.021
79291SOL    HW139705   9.503   1.767  13.102
79291SOL    HW239706   9.589   1.757  12.977
79292SOL     OW39707  11.158   8.619  10.850
79292SOL    HW139708  11.077   8.641  10.805
79292SOL    HW239709  11.206   8.565  10.787
79293SOL     OW39710   8.162   7.023  13.755
79293SOL    HW139711   8.086   7.066  13.794
79293SOL    HW239712   8.222   7.010  13.828
79294SOL     OW39713   8.840   6.103   7.704
79294SOL    HW139714   8.748   6.102   7.677
79294SOL    HW239715   8.876   6.022   7.669
79295SOL     OW39716  12.769   1.314   8.633
79295SOL    HW139717  12.829   1.388   8.626
79295SOL    HW239718  12.715   1.319   8.554
79296SOL     OW39719   3.825   5.063  13.129
79296SOL    HW139720   3.868   5.135  13.084
79296SOL    HW239721   3.892   5.026  13.186
79297SOL     OW39722   6.896   6.236   8.942
79297SOL    HW139723   6.901   6.141   8.933
79297SOL    HW239724   6.803   6.254   8.957
79298SOL     OW39725   6.390  14.483   8.905
79298SOL    HW139726   6.347  14.434   8.835
79298SOL    HW239727   6.345  14.456   8.985
79299SOL     OW39728   9.135   5.632   2.070
79299SOL    HW139729   9.080   5.606   2.144
79299SOL    HW239730   9.080   5.692   2.019
79300SOL     OW39731  10.724   9.196  13.875
79300SOL    HW139732  10.638   9.210  13.915
79300SOL    HW239733  10.755   9.114  13.913
79301SOL     OW39734   0.873   4.605  14.024
79301SOL    HW139735   0.902   4.595  13.934
79301SOL    HW239736   0.810   4.677  14.022
79302SOL     OW39737   7.127  10.741   5.077
79302SOL    HW139738   7.208  10.742   5.026
79302SOL    HW239739   7.116  10.831   5.107
79303SOL     OW39740   1.745   4.463  11.403
79303SOL    HW139741   1.657   4.481  11.370
79303SOL    HW239742   1.780   4.550  11.424
79304SOL     OW39743   9.948   2.176   2.801
79304SOL    HW139744   9.927   2.269   2.787
79304SOL    HW239745   9.979   2.146   2.716
79305SOL     OW39746   7.380  11.035  11.960
79305SOL    HW139747   7.303  11.068  12.008
79305SOL    HW239748   7.360  10.943  11.943
79306SOL     OW39749   3.296   9.685   6.437
79306SOL    HW139750   3.247   9.753   6.391
79306SOL    HW239751   3.248   9.604   6.419
79307SOL     OW39752  10.258   5.816   8.732
79307SOL    HW139753  10.168   5.826   8.761
79307SOL    HW239754  10.272   5.885   8.668
79308SOL     OW39755   1.018   2.312  12.435
79308SOL    HW139756   1.003   2.264  12.354
79308SOL    HW239757   0.962   2.390  12.428
79309SOL     OW39758   5.854   2.628   5.737
79309SOL    HW139759   5.863   2.709   5.686
79309SOL    HW239760   5.782   2.647   5.798
79310SOL     OW39761   0.748   5.841   3.365
79310SOL    HW139762   0.810   5.793   3.419
79310SOL    HW239763   0.780   5.931   3.366
79311SOL     OW39764   8.542   1.893   8.156
79311SOL    HW139765   8.535   1.981   8.120
79311SOL    HW239766   8.634   1.869   8.146
79312SOL     OW39767   4.038   7.873   7.916
79312SOL    HW139768   4.083   7.892   7.834
79312SOL    HW239769   4.091   7.804   7.957
79313SOL     OW39770   3.010  10.936   0.929
79313SOL    HW139771   3.044  10.896   0.850
79313SOL    HW239772   2.918  10.955   0.908
79314SOL     OW39773   9.305   2.309  14.572
79314SOL    HW139774   9.292   2.246  14.501
79314SOL    HW239775   9.257   2.387  14.543
79315SOL     OW39776   5.458  11.538  10.073
79315SOL    HW139777   5.480  11.454  10.034
79315SOL    HW239778   5.381  11.567  10.024
79316SOL     OW39779   0.334   9.078   7.978
79316SOL    HW139780   0.330   9.026   8.058
79316SOL    HW239781   0.324   9.013   7.908
79317SOL     OW39782   6.898   7.600   4.001
79317SOL    HW139783   6.894   7.675   4.060
79317SOL    HW239784   6.818   7.606   3.950
79318SOL     OW39785   0.837  10.209   3.436
79318SOL    HW139786   0.745  10.184   3.436
79318SOL    HW239787   0.869  10.183   3.522
79319SOL     OW39788  12.853  10.802   0.524
79319SOL    HW139789  12.873  10.858   0.450
79319SOL    HW239790  12.834  10.862   0.596
79320SOL     OW39791   1.843   0.139   8.828
79320SOL    HW139792   1.835   0.232   8.806
79320SOL    HW239793   1.756   0.103   8.810
79321SOL     OW39794  13.333   9.821   0.182
79321SOL    HW139795  13.243   9.840   0.207
79321SOL    HW239796  13.335   9.726   0.168
79322SOL     OW39797   2.449  13.873   5.398
79322SOL    HW139798   2.496  13.908   5.474
79322SOL    HW239799   2.458  13.778   5.406
79323SOL     OW39800   8.096   6.481   5.702
79323SOL    HW139801   8.016   6.525   5.730
79323SOL    HW239802   8.066   6.415   5.639
79324SOL     OW39803   6.727   8.369  10.560
79324SOL    HW139804   6.726   8.305  10.632
79324SOL    HW239805   6.775   8.325  10.490
79325SOL     OW39806   2.578  12.699   0.395
79325SOL    HW139807   2.610  12.755   0.324
79325SOL    HW239808   2.618  12.735   0.474
79326SOL     OW39809   9.182   1.840  12.149
79326SOL    HW139810   9.151   1.901  12.083
79326SOL    HW239811   9.239   1.779  12.101
79327SOL     OW39812  10.789   2.353   6.567
79327SOL    HW139813  10.869   2.328   6.613
79327SOL    HW239814  10.762   2.435   6.608
79328SOL     OW39815   3.327   8.888   7.309
79328SOL    HW139816   3.385   8.815   7.286
79328SOL    HW239817   3.282   8.857   7.387
79329SOL     OW39818  13.589   8.923  10.860
79329SOL    HW139819  13.580   8.961  10.947
79329SOL    HW239820  13.577   8.829  10.872
79330SOL     OW39821   7.006   3.632   7.345
79330SOL    HW139822   7.031   3.717   7.307
79330SOL    HW239823   6.943   3.655   7.413
79331SOL     OW39824   3.111  10.800   5.384
79331SOL    HW139825   3.061  10.819   5.304
79331SOL    HW239826   3.148  10.713   5.369
79332SOL     OW39827  12.939   4.653   1.232
79332SOL    HW139828  12.859   4.602   1.222
79332SOL    HW239829  12.992   4.632   1.154
79333SOL     OW39830  13.476  11.327   2.462
79333SOL    HW139831  13.491  11.239   2.426
79333SOL    HW239832  13.497  11.386   2.390
79334SOL     OW39833   5.286  11.389   1.693
79334SOL    HW139834   5.290  11.483   1.674
79334SOL    HW239835   5.246  11.383   1.780
79335SOL     OW39836   6.933   7.402   4.372
79335SOL    HW139837   6.840   7.381   4.387
79335SOL    HW239838   6.951   7.476   4.430
79336SOL     OW39839   4.368  10.215   4.005
79336SOL    HW139840   4.440  10.275   4.024
79336SOL    HW239841   4.408  10.128   4.006
79337SOL     OW39842   4.994   2.917   5.379
79337SOL    HW139843   5.078   2.907   5.334
79337SOL    HW239844   4.970   2.828   5.405
79338SOL     OW39845  10.348   0.936  10.222
79338SOL    HW139846  10.371   0.881  10.147
79338SOL    HW239847  10.411   0.912  10.290
79339SOL     OW39848   3.145  11.563   4.902
79339SOL    HW139849   3.112  11.505   4.971
79339SOL    HW239850   3.230  11.593   4.935
79340SOL     OW39851   5.855  12.007  11.257
79340SOL    HW139852   5.882  11.936  11.198
79340SOL    HW239853   5.938  12.038  11.295
79341SOL     OW39854   9.887   9.350  12.381
79341SOL    HW139855   9.945   9.426  12.374
79341SOL    HW239856   9.929   9.283  12.327
79342SOL     OW39857  13.148  12.454   2.913
79342SOL    HW139858  13.133  12.390   2.982
79342SOL    HW239859  13.225  12.503   2.942
79343SOL     OW39860   3.336   4.661   9.312
79343SOL    HW139861   3.241   4.667   9.321
79343SOL    HW239862   3.360   4.583   9.361
79344SOL     OW39863  13.227   3.467   5.278
79344SOL    HW139864  13.269   3.541   5.234
79344SOL    HW239865  13.161   3.437   5.215
79345SOL     OW39866   1.635   5.101  10.584
79345SOL    HW139867   1.712   5.114  10.529
79345SOL    HW239868   1.621   5.185  10.628
79346SOL     OW39869   7.797  10.380   0.506
79346SOL    HW139870   7.877  10.421   0.472
79346SOL    HW239871   7.753  10.346   0.429
79347SOL     OW39872   5.872   3.469   1.463
79347SOL    HW139873   5.861   3.502   1.552
79347SOL    HW239874   5.966   3.468   1.448
79348SOL     OW39875  11.628   9.071  11.283
79348SOL    HW139876  11.543   9.113  11.286
79348SOL    HW239877  11.653   9.076  11.190
79349SOL     OW39878  12.001  10.226  10.577
79349SOL    HW139879  12.037  10.199  10.661
79349SOL    HW239880  12.055  10.300  10.550
79350SOL     OW39881   8.273   7.345  11.903
79350SOL    HW139882   8.283   7.301  11.819
79350SOL    HW239883   8.329   7.423  11.897
79351SOL     OW39884   7.145   8.929   9.170
79351SOL    HW139885   7.194   8.955   9.249
79351SOL    HW239886   7.055   8.955   9.188
79352SOL     OW39887  11.931  12.872   9.091
79352SOL    HW139888  11.944  12.954   9.138
79352SOL    HW239889  11.993  12.811   9.131
79353SOL     OW39890   0.470  11.357   4.068
79353SOL    HW139891   0.408  11.429   4.065
79353SOL    HW239892   0.520  11.365   3.987
79354SOL     OW39893  10.278  10.795  12.712
79354SOL    HW139894  10.307  10.790  12.621
79354SOL    HW239895  10.221  10.872  12.714
79355SOL     OW39896  13.640   4.746  11.127
79355SOL    HW139897  13.609   4.656  11.132
79355SOL    HW239898  13.561   4.797  11.106
79356SOL     OW39899   1.586  13.528   9.017
79356SOL    HW139900   1.675  13.552   9.042
79356SOL    HW239901   1.531  13.598   9.052
79357SOL     OW39902  12.127   6.596   4.833
79357SOL    HW139903  12.079   6.551   4.764
79357SOL    HW239904  12.139   6.530   4.901
79358SOL     OW39905   4.028   2.465   1.232
79358SOL    HW139906   4.001   2.556   1.240
79358SOL    HW239907   4.061   2.457   1.142
79359SOL     OW39908   0.954   3.725  12.172
79359SOL    HW139909   0.872   3.759  12.206
79359SOL    HW239910   1.010   3.714  12.249
79360SOL     OW39911   3.857   0.857   9.786
79360SOL    HW139912   3.883   0.807   9.709
79360SOL    HW239913   3.852   0.791   9.856
79361SOL     OW39914   7.034  14.213   7.816
79361SOL    HW139915   6.949  14.185   7.784
79361SOL    HW239916   7.065  14.139   7.869
79362SOL     OW39917  13.573   7.108   5.466
79362SOL    HW139918  13.647   7.078   5.520
79362SOL    HW239919  13.506   7.042   5.480
79363SOL     OW39920  14.473  13.293   8.938
79363SOL    HW139921  14.384  13.265   8.958
79363SOL    HW239922  14.463  13.381   8.900
79364SOL     OW39923  14.516   7.900  10.904
79364SOL    HW139924  14.519   7.808  10.932
79364SOL    HW239925  14.607   7.929  10.906
79365SOL     OW39926   7.697   5.888   4.295
79365SOL    HW139927   7.711   5.822   4.363
79365SOL    HW239928   7.611   5.925   4.313
79366SOL     OW39929  10.065   7.442   0.557
79366SOL    HW139930   9.983   7.422   0.512
79366SOL    HW239931  10.108   7.357   0.568
79367SOL     OW39932  14.836   2.036   8.337
79367SOL    HW139933  14.759   2.087   8.312
79367SOL    HW239934   0.036   2.078   8.291
79368SOL     OW39935   8.223  10.412   5.029
79368SOL    HW139936   8.166  10.368   5.093
79368SOL    HW239937   8.201  10.505   5.037
79369SOL     OW39938  13.872   6.912  14.739
79369SOL    HW139939  13.959   6.908  14.700
79369SOL    HW239940  13.881   6.973  14.812
79370SOL     OW39941   3.430   6.529   1.577
79370SOL    HW139942   3.420   6.606   1.633
79370SOL    HW239943   3.388   6.553   1.495
79371SOL     OW39944   7.799   2.176  13.146
79371SOL    HW139945   7.760   2.234  13.211
79371SOL    HW239946   7.736   2.105  13.137
79372SOL     OW39947   2.855   3.515  14.352
79372SOL    HW139948   2.898   3.601  14.353
79372SOL    HW239949   2.764   3.534  14.332
79373SOL     OW39950   4.592   9.397   0.762
79373SOL    HW139951   4.661   9.357   0.709
79373SOL    HW239952   4.617   9.377   0.852
79374SOL     OW39953   5.672   1.370  14.253
79374SOL    HW139954   5.604   1.411  14.307
79374SOL    HW239955   5.661   1.276  14.268
79375SOL     OW39956   9.629   2.499   1.548
79375SOL    HW139957   9.667   2.586   1.533
79375SOL    HW239958   9.615   2.495   1.643
79376SOL     OW39959  10.421  10.983   9.657
79376SOL    HW139960  10.394  10.894   9.634
79376SOL    HW239961  10.339  11.032   9.664
79377SOL     OW39962  14.549  13.506   3.805
79377SOL    HW139963  14.636  13.545   3.815
79377SOL    HW239964  14.506  13.559   3.738
79378SOL     OW39965  10.470  13.961  11.662
79378SOL    HW139966  10.563  13.985  11.665
79378SOL    HW239967  10.451  13.949  11.569
79379SOL     OW39968   2.289   5.715   7.643
79379SOL    HW139969   2.382   5.730   7.623
79379SOL    HW239970   2.252   5.802   7.652
79380SOL     OW39971   4.376   8.011  11.011
79380SOL    HW139972   4.370   8.099  11.047
79380SOL    HW239973   4.467   7.986  11.023
79381SOL     OW39974  12.881   0.543  11.914
79381SOL    HW139975  12.925   0.617  11.873
79381SOL    HW239976  12.868   0.570  12.005
79382SOL     OW39977   7.125   4.716  14.072
79382SOL    HW139978   7.094   4.746  14.158
79382SOL    HW239979   7.131   4.621  14.080
79383SOL     OW39980   6.556  11.445   7.045
79383SOL    HW139981   6.517  11.509   7.104
79383SOL    HW239982   6.621  11.494   6.995
79384SOL     OW39983   3.073  10.581   2.003
79384SOL    HW139984   3.078  10.665   1.957
79384SOL    HW239985   2.989  10.584   2.049
79385SOL     OW39986   7.491   4.293   4.665
79385SOL    HW139987   7.474   4.305   4.571
79385SOL    HW239988   7.428   4.350   4.709
79386SOL     OW39989   0.931   6.108   2.569
79386SOL    HW139990   0.996   6.138   2.632
79386SOL    HW239991   0.948   6.159   2.490
79387SOL     OW39992   9.313   4.826  11.748
79387SOL    HW139993   9.360   4.901  11.711
79387SOL    HW239994   9.377   4.755  11.746
79388SOL     OW39995  12.623  10.956  13.893
79388SOL    HW139996  12.604  11.035  13.842
79388SOL    HW239997  12.599  10.884  13.835
79389SOL     OW39998  13.719   0.639   3.896
79389SOL    HW139999  13.777   0.565   3.916
79389SOL    HW240000  13.719   0.692   3.975
79390SOL     OW40001   1.534   6.707   6.749
79390SOL    HW140002   1.554   6.616   6.770
79390SOL    HW240003   1.528   6.708   6.653
79391SOL     OW40004   4.014  10.850   4.904
79391SOL    HW140005   4.077  10.796   4.857
79391SOL    HW240006   4.045  10.940   4.892
79392SOL     OW40007   6.392  14.524  12.316
79392SOL    HW140008   6.313  14.537  12.368
79392SOL    HW240009   6.367  14.459  12.250
79393SOL     OW40010  10.469  10.172  12.852
79393SOL    HW140011  10.379  10.152  12.828
79393SOL    HW240012  10.464  10.254  12.901
79394SOL     OW40013   5.062   4.494   8.742
79394SOL    HW140014   4.989   4.464   8.797
79394SOL    HW240015   5.089   4.415   8.695
79395SOL     OW40016  12.824   7.907   9.063
79395SOL    HW140017  12.751   7.862   9.020
79395SOL    HW240018  12.809   8.000   9.045
79396SOL     OW40019  10.328   1.449   6.234
79396SOL    HW140020  10.383   1.467   6.309
79396SOL    HW240021  10.366   1.501   6.163
79397SOL     OW40022  13.780   2.941   6.321
79397SOL    HW140023  13.788   3.032   6.348
79397SOL    HW240024  13.689   2.932   6.292
79398SOL     OW40025  11.120   0.836  13.489
79398SOL    HW140026  11.155   0.895  13.423
79398SOL    HW240027  11.040   0.879  13.519
79399SOL     OW40028   7.985   2.578   0.662
79399SOL    HW140029   8.044   2.503   0.660
79399SOL    HW240030   7.988   2.614   0.573
79400SOL     OW40031  11.208   6.920   4.187
79400SOL    HW140032  11.274   6.869   4.141
79400SOL    HW240033  11.194   6.997   4.131
79401SOL     OW40034  10.908   9.324   8.338
79401SOL    HW140035  10.861   9.406   8.350
79401SOL    HW240036  10.935   9.325   8.246
79402SOL     OW40037   9.606  14.236   8.124
79402SOL    HW140038   9.543  14.164   8.127
79402SOL    HW240039   9.641  14.241   8.213
79403SOL     OW40040  13.368   4.006   6.632
79403SOL    HW140041  13.428   4.038   6.565
79403SOL    HW240042  13.281   4.017   6.594
79404SOL     OW40043   0.192   6.348   8.675
79404SOL    HW140044   0.200   6.331   8.769
79404SOL    HW240045   0.249   6.283   8.634
79405SOL     OW40046   3.722   0.734  13.897
79405SOL    HW140047   3.790   0.752  13.833
79405SOL    HW240048   3.675   0.658  13.861
79406SOL     OW40049  13.016   4.546   7.472
79406SOL    HW140050  13.044   4.571   7.560
79406SOL    HW240051  13.053   4.614   7.415
79407SOL     OW40052   3.375   9.965   8.083
79407SOL    HW140053   3.362   9.953   7.989
79407SOL    HW240054   3.332   9.890   8.123
79408SOL     OW40055   4.432  14.281   4.966
79408SOL    HW140056   4.389  14.220   5.025
79408SOL    HW240057   4.503  14.318   5.018
79409SOL     OW40058  11.827  12.867   4.220
79409SOL    HW140059  11.918  12.853   4.192
79409SOL    HW240060  11.821  12.822   4.304
79410SOL     OW40061   2.639   1.350  10.895
79410SOL    HW140062   2.674   1.341  10.806
79410SOL    HW240063   2.702   1.407  10.940
79411SOL     OW40064   8.069   0.183  11.474
79411SOL    HW140065   8.020   0.166  11.554
79411SOL    HW240066   8.156   0.147  11.491
79412SOL     OW40067   3.479   1.224  14.693
79412SOL    HW140068   3.517   1.307  14.721
79412SOL    HW240069   3.430   1.193  14.769
79413SOL     OW40070   5.323  11.061  11.104
79413SOL    HW140071   5.284  11.075  11.190
79413SOL    HW240072   5.412  11.097  11.112
79414SOL     OW40073  10.712   2.116  12.778
79414SOL    HW140074  10.714   2.158  12.865
79414SOL    HW240075  10.620   2.102  12.760
79415SOL     OW40076  10.195  12.028   1.051
79415SOL    HW140077  10.198  12.123   1.054
79415SOL    HW240078  10.245  12.000   1.127
79416SOL     OW40079   5.605   2.082   6.102
79416SOL    HW140080   5.550   2.143   6.151
79416SOL    HW240081   5.692   2.091   6.141
79417SOL     OW40082   7.114   3.395   0.605
79417SOL    HW140083   7.068   3.357   0.680
79417SOL    HW240084   7.043   3.421   0.545
79418SOL     OW40085   5.556   5.758   4.715
79418SOL    HW140086   5.638   5.738   4.670
79418SOL    HW240087   5.532   5.846   4.684
79419SOL     OW40088   5.822  12.686  10.165
79419SOL    HW140089   5.761  12.626  10.209
79419SOL    HW240090   5.772  12.766  10.153
79420SOL     OW40091  11.116   5.247   4.451
79420SOL    HW140092  11.173   5.283   4.383
79420SOL    HW240093  11.146   5.157   4.463
79421SOL     OW40094   4.432   7.507   3.845
79421SOL    HW140095   4.465   7.474   3.761
79421SOL    HW240096   4.342   7.475   3.849
79422SOL     OW40097   5.799   3.721   0.816
79422SOL    HW140098   5.722   3.741   0.761
79422SOL    HW240099   5.837   3.643   0.776
79423SOL     OW40100   0.896  14.082   1.783
79423SOL    HW140101   0.844  14.005   1.802
79423SOL    HW240102   0.846  14.130   1.717
79424SOL     OW40103  14.710   9.031  13.084
79424SOL    HW140104  14.671   9.060  13.002
79424SOL    HW240105  14.722   8.936  13.073
79425SOL     OW40106   7.225   2.846   4.858
79425SOL    HW140107   7.158   2.883   4.800
79425SOL    HW240108   7.199   2.754   4.870
79426SOL     OW40109   8.686   0.810   9.226
79426SOL    HW140110   8.621   0.767   9.170
79426SOL    HW240111   8.756   0.746   9.235
79427SOL     OW40112   7.117   2.459   7.954
79427SOL    HW140113   7.060   2.382   7.947
79427SOL    HW240114   7.183   2.434   8.018
79428SOL     OW40115   8.062  14.585   6.507
79428SOL    HW140116   8.007  14.550   6.577
79428SOL    HW240117   8.149  14.550   6.524
79429SOL     OW40118   1.943  13.201   3.004
79429SOL    HW140119   1.933  13.162   3.091
79429SOL    HW240120   1.938  13.127   2.944
79430SOL     OW40121   2.108   2.340   2.167
79430SOL    HW140122   2.173   2.271   2.174
79430SOL    HW240123   2.158   2.420   2.151
79431SOL     OW40124   3.006  13.438   7.571
79431SOL    HW140125   2.910  13.432   7.568
79431SOL    HW240126   3.033  13.437   7.479
79432SOL     OW40127   3.932  13.774   4.426
79432SOL    HW140128   3.981  13.704   4.383
79432SOL    HW240129   3.849  13.733   4.451
79433SOL     OW40130   6.342   1.137  12.677
79433SOL    HW140131   6.386   1.058  12.646
79433SOL    HW240132   6.321   1.118  12.768
79434SOL     OW40133  11.206  10.221   1.705
79434SOL    HW140134  11.127  10.260   1.669
79434SOL    HW240135  11.183  10.129   1.719
79435SOL     OW40136  10.161   7.274   3.175
79435SOL    HW140137  10.081   7.227   3.199
79435SOL    HW240138  10.176   7.250   3.084
79436SOL     OW40139   5.031   3.897   0.365
79436SOL    HW140140   5.125   3.882   0.353
79436SOL    HW240141   4.995   3.895   0.277
79437SOL     OW40142   7.550  14.769  13.891
79437SOL    HW140143   7.612  14.840  13.908
79437SOL    HW240144   7.569  14.704  13.958
79438SOL     OW40145   8.865   2.775   3.383
79438SOL    HW140146   8.786   2.793   3.434
79438SOL    HW240147   8.936   2.776   3.448
79439SOL     OW40148   9.702   5.086   4.019
79439SOL    HW140149   9.784   5.135   4.022
79439SOL    HW240150   9.698   5.040   4.103
79440SOL     OW40151  12.635  10.412   2.819
79440SOL    HW140152  12.654  10.391   2.910
79440SOL    HW240153  12.601  10.502   2.821
79441SOL     OW40154   7.145   5.734   2.892
79441SOL    HW140155   7.128   5.662   2.953
79441SOL    HW240156   7.164   5.809   2.948
79442SOL     OW40157   4.782  13.563  12.537
79442SOL    HW140158   4.700  13.544  12.583
79442SOL    HW240159   4.786  13.498  12.467
79443SOL     OW40160  13.387   1.114   3.990
79443SOL    HW140161  13.307   1.073   4.022
79443SOL    HW240162  13.423   1.160   4.066
79444SOL     OW40163   0.803  11.988   8.041
79444SOL    HW140164   0.808  11.909   8.095
79444SOL    HW240165   0.893  12.019   8.035
79445SOL     OW40166  13.836  10.715   2.627
79445SOL    HW140167  13.811  10.734   2.537
79445SOL    HW240168  13.884  10.632   2.622
79446SOL     OW40169   7.043   2.178   4.139
79446SOL    HW140170   6.972   2.126   4.177
79446SOL    HW240171   7.118   2.162   4.196
79447SOL     OW40172  13.220  12.931  12.647
79447SOL    HW140173  13.255  12.852  12.607
79447SOL    HW240174  13.157  12.965  12.582
79448SOL     OW40175  14.323  11.352   7.929
79448SOL    HW140176  14.305  11.392   7.844
79448SOL    HW240177  14.255  11.285   7.939
79449SOL     OW40178  14.556   1.716   2.887
79449SOL    HW140179  14.506   1.650   2.838
79449SOL    HW240180  14.504   1.732   2.966
79450SOL     OW40181  10.743   0.089   5.315
79450SOL    HW140182  10.793   0.060   5.239
79450SOL    HW240183  10.765   0.182   5.325
79451SOL     OW40184   7.869   2.840   1.277
79451SOL    HW140185   7.887   2.767   1.217
79451SOL    HW240186   7.897   2.808   1.363
79452SOL     OW40187  13.321   1.638   5.690
79452SOL    HW140188  13.243   1.625   5.636
79452SOL    HW240189  13.395   1.618   5.632
79453SOL     OW40190  14.837   6.055   9.286
79453SOL    HW140191  14.764   6.043   9.225
79453SOL    HW240192  14.795   6.067   9.372
79454SOL     OW40193  10.893   0.901  10.693
79454SOL    HW140194  10.987   0.919  10.695
79454SOL    HW240195  10.857   0.968  10.634
79455SOL     OW40196  11.377  13.406  14.225
79455SOL    HW140197  11.315  13.447  14.285
79455SOL    HW240198  11.463  13.427  14.262
79456SOL     OW40199   4.551   4.265   7.208
79456SOL    HW140200   4.642   4.241   7.190
79456SOL    HW240201   4.558   4.343   7.263
79457SOL     OW40202   4.095   1.201  10.214
79457SOL    HW140203   4.112   1.284  10.168
79457SOL    HW240204   4.178   1.153  10.207
79458SOL     OW40205   4.064  14.163  11.389
79458SOL    HW140206   4.030  14.094  11.332
79458SOL    HW240207   4.138  14.200  11.340
79459SOL     OW40208   8.869  10.440  13.144
79459SOL    HW140209   8.913  10.378  13.086
79459SOL    HW240210   8.793  10.392  13.177
79460SOL     OW40211   5.160   4.331   2.158
79460SOL    HW140212   5.156   4.374   2.073
79460SOL    HW240213   5.236   4.370   2.201
79461SOL     OW40214  11.416  13.831   6.604
79461SOL    HW140215  11.364  13.880   6.668
79461SOL    HW240216  11.381  13.742   6.609
79462SOL     OW40217   1.441   2.620   5.112
79462SOL    HW140218   1.491   2.554   5.160
79462SOL    HW240219   1.508   2.674   5.069
79463SOL     OW40220  10.039   5.772  14.157
79463SOL    HW140221   9.954   5.736  14.131
79463SOL    HW240222  10.099   5.742  14.089
79464SOL     OW40223  12.770   8.864   1.016
79464SOL    HW140224  12.817   8.781   1.006
79464SOL    HW240225  12.714   8.870   0.939
79465SOL     OW40226   7.625   2.617  14.387
79465SOL    HW140227   7.703   2.562  14.395
79465SOL    HW240228   7.560   2.577  14.444
79466SOL     OW40229   9.818   7.261  11.111
79466SOL    HW140230   9.819   7.202  11.036
79466SOL    HW240231   9.732   7.248  11.152
79467SOL     OW40232   8.402   0.348   5.799
79467SOL    HW140233   8.321   0.381   5.837
79467SOL    HW240234   8.468   0.414   5.820
79468SOL     OW40235   0.559   6.691  14.829
79468SOL    HW140236   0.611   6.670  14.751
79468SOL    HW240237   0.476   6.724  14.794
79469SOL     OW40238  11.178  13.481   2.010
79469SOL    HW140239  11.152  13.496   2.101
79469SOL    HW240240  11.262  13.527   2.002
79470SOL     OW40241   3.649   1.968  11.663
79470SOL    HW140242   3.673   1.877  11.646
79470SOL    HW240243   3.732   2.013  11.675
79471SOL     OW40244   2.858   8.736  10.701
79471SOL    HW140245   2.813   8.654  10.721
79471SOL    HW240246   2.942   8.729  10.747
79472SOL     OW40247  10.468  11.394   8.121
79472SOL    HW140248  10.530  11.352   8.062
79472SOL    HW240249  10.420  11.321   8.162
79473SOL     OW40250  11.574   9.037   8.139
79473SOL    HW140251  11.484   9.070   8.132
79473SOL    HW240252  11.612   9.089   8.211
79474SOL     OW40253   9.593  10.658   1.589
79474SOL    HW140254   9.644  10.736   1.609
79474SOL    HW240255   9.502  10.684   1.607
79475SOL     OW40256   8.747  14.136   8.035
79475SOL    HW140257   8.692  14.065   8.000
79475SOL    HW240258   8.753  14.118   8.129
79476SOL     OW40259  10.071  13.555   9.749
79476SOL    HW140260  10.080  13.632   9.806
79476SOL    HW240261  10.142  13.564   9.686
79477SOL     OW40262  11.933  11.647   2.992
79477SOL    HW140263  11.955  11.717   2.931
79477SOL    HW240264  11.872  11.688   3.054
79478SOL     OW40265   5.139   7.094   4.519
79478SOL    HW140266   5.078   7.167   4.509
79478SOL    HW240267   5.087   7.023   4.555
79479SOL     OW40268   8.003   7.271   8.030
79479SOL    HW140269   7.940   7.258   8.100
79479SOL    HW240270   8.082   7.226   8.060
79480SOL     OW40271  11.151   4.354  13.057
79480SOL    HW140272  11.106   4.317  12.981
79480SOL    HW240273  11.244   4.350  13.034
79481SOL     OW40274  11.073  12.318   9.627
79481SOL    HW140275  10.994  12.318   9.682
79481SOL    HW240276  11.055  12.385   9.560
79482SOL     OW40277   7.600  12.981  11.761
79482SOL    HW140278   7.564  12.933  11.687
79482SOL    HW240279   7.590  12.922  11.835
79483SOL     OW40280   1.924  14.696   2.093
79483SOL    HW140281   1.952  14.678   2.003
79483SOL    HW240282   1.997  14.667   2.147
79484SOL     OW40283   2.769   0.562   7.063
79484SOL    HW140284   2.743   0.504   7.135
79484SOL    HW240285   2.831   0.510   7.013
79485SOL     OW40286   5.841  12.011   5.107
79485SOL    HW140287   5.914  11.998   5.168
79485SOL    HW240288   5.794  12.087   5.141
79486SOL     OW40289   7.194   7.469   9.307
79486SOL    HW140290   7.189   7.540   9.243
79486SOL    HW240291   7.287   7.461   9.327
79487SOL     OW40292   4.620   2.429   1.678
79487SOL    HW140293   4.683   2.428   1.750
79487SOL    HW240294   4.618   2.338   1.647
79488SOL     OW40295   0.710   3.689   8.194
79488SOL    HW140296   0.789   3.675   8.142
79488SOL    HW240297   0.664   3.605   8.191
79489SOL     OW40298   1.184  11.066  13.179
79489SOL    HW140299   1.134  11.110  13.248
79489SOL    HW240300   1.225  11.137  13.130
79490SOL     OW40301   1.383  14.235   7.391
79490SOL    HW140302   1.334  14.219   7.311
79490SOL    HW240303   1.457  14.290   7.364
79491SOL     OW40304   4.045   5.073   0.832
79491SOL    HW140305   4.084   5.084   0.918
79491SOL    HW240306   3.984   4.999   0.842
79492SOL     OW40307  13.687  13.228   3.459
79492SOL    HW140308  13.660  13.164   3.525
79492SOL    HW240309  13.660  13.190   3.376
79493SOL     OW40310   2.479   3.400   9.619
79493SOL    HW140311   2.564   3.382   9.580
79493SOL    HW240312   2.436   3.460   9.558
79494SOL     OW40313   7.070  10.644   5.461
79494SOL    HW140314   7.129  10.717   5.482
79494SOL    HW240315   7.051  10.655   5.368
79495SOL     OW40316   6.900  10.527   2.890
79495SOL    HW140317   6.844  10.450   2.894
79495SOL    HW240318   6.985  10.494   2.864
79496SOL     OW40319   8.809   7.128   7.522
79496SOL    HW140320   8.875   7.143   7.589
79496SOL    HW240321   8.727   7.119   7.570
79497SOL     OW40322   8.378   1.901   7.837
79497SOL    HW140323   8.315   1.885   7.767
79497SOL    HW240324   8.359   1.990   7.867
79498SOL     OW40325  13.118   1.548   8.745
79498SOL    HW140326  13.091   1.626   8.792
79498SOL    HW240327  13.203   1.526   8.782
79499SOL     OW40328   5.011  14.293   7.770
79499SOL    HW140329   5.093  14.291   7.721
79499SOL    HW240330   5.038  14.290   7.862
79500SOL     OW40331  14.676   2.960   2.596
79500SOL    HW140332  14.673   2.960   2.692
79500SOL    HW240333  14.769   2.949   2.574
79501SOL     OW40334  12.894   4.699  10.888
79501SOL    HW140335  12.805   4.683  10.919
79501SOL    HW240336  12.884   4.715  10.794
79502SOL     OW40337  12.915  14.650   2.780
79502SOL    HW140338  12.933  14.733   2.735
79502SOL    HW240339  12.832  14.665   2.826
79503SOL     OW40340   5.293   1.387   7.742
79503SOL    HW140341   5.267   1.370   7.833
79503SOL    HW240342   5.211   1.397   7.695
79504SOL     OW40343   5.548   9.198   3.920
79504SOL    HW140344   5.522   9.117   3.964
79504SOL    HW240345   5.560   9.171   3.828
79505SOL     OW40346  12.215  13.656   7.786
79505SOL    HW140347  12.207  13.572   7.831
79505SOL    HW240348  12.292  13.646   7.730
79506SOL     OW40349  14.807   5.268  14.337
79506SOL    HW140350  14.862   5.322  14.394
79506SOL    HW240351  14.766   5.205  14.396
79507SOL     OW40352   6.481   9.638   5.213
79507SOL    HW140353   6.385   9.634   5.216
79507SOL    HW240354   6.505   9.690   5.289
79508SOL     OW40355  14.648   0.789   9.104
79508SOL    HW140356  14.610   0.803   9.191
79508SOL    HW240357  14.625   0.868   9.055
79509SOL     OW40358  14.325   2.713   0.299
79509SOL    HW140359  14.244   2.738   0.254
79509SOL    HW240360  14.322   2.618   0.303
79510SOL     OW40361  14.300   2.828   2.874
79510SOL    HW140362  14.204   2.820   2.876
79510SOL    HW240363  14.331   2.737   2.878
79511SOL     OW40364  10.211   7.928  10.178
79511SOL    HW140365  10.213   7.925  10.082
79511SOL    HW240366  10.225   8.021  10.198
79512SOL     OW40367   8.912   3.885  10.167
79512SOL    HW140368   9.007   3.895  10.170
79512SOL    HW240369   8.878   3.965  10.206
79513SOL     OW40370  12.122   1.097  10.161
79513SOL    HW140371  12.083   1.174  10.202
79513SOL    HW240372  12.054   1.030  10.164
79514SOL     OW40373   8.260  10.756   5.239
79514SOL    HW140374   8.312  10.681   5.268
79514SOL    HW240375   8.203  10.720   5.170
79515SOL     OW40376   8.550   6.138  14.581
79515SOL    HW140377   8.589   6.069  14.635
79515SOL    HW240378   8.542   6.099  14.494
79516SOL     OW40379  11.220  13.707   4.407
79516SOL    HW140380  11.131  13.700   4.440
79516SOL    HW240381  11.251  13.617   4.402
79517SOL     OW40382   8.642   0.970  11.551
79517SOL    HW140383   8.650   0.875  11.541
79517SOL    HW240384   8.603   0.983  11.637
79518SOL     OW40385   7.466   3.617   4.688
79518SOL    HW140386   7.432   3.642   4.603
79518SOL    HW240387   7.560   3.634   4.683
79519SOL     OW40388  10.551   7.410   1.363
79519SOL    HW140389  10.638   7.374   1.347
79519SOL    HW240390  10.542   7.480   1.298
79520SOL     OW40391   1.600   9.569  14.616
79520SOL    HW140392   1.622   9.500  14.679
79520SOL    HW240393   1.648   9.545  14.537
79521SOL     OW40394   8.165  10.245  11.884
79521SOL    HW140395   8.195  10.334  11.901
79521SOL    HW240396   8.211  10.191  11.949
79522SOL     OW40397  12.665   8.362   9.131
79522SOL    HW140398  12.662   8.325   9.220
79522SOL    HW240399  12.591   8.423   9.128
79523SOL     OW40400  10.261   5.107  12.183
79523SOL    HW140401  10.197   5.131  12.249
79523SOL    HW240402  10.333   5.170  12.195
79524SOL     OW40403  10.943  12.904  10.240
79524SOL    HW140404  10.879  12.867  10.180
79524SOL    HW240405  11.027  12.894  10.196
79525SOL     OW40406   8.830   6.196  14.415
79525SOL    HW140407   8.737   6.180  14.433
79525SOL    HW240408   8.830   6.277  14.363
79526SOL     OW40409   2.985   5.347   6.088
79526SOL    HW140410   3.031   5.387   6.162
79526SOL    HW240411   3.052   5.296   6.043
79527SOL     OW40412   8.334   3.025  11.676
79527SOL    HW140413   8.407   3.086  11.686
79527SOL    HW240414   8.354   2.977  11.596
79528SOL     OW40415   5.587   1.618   5.230
79528SOL    HW140416   5.552   1.682   5.167
79528SOL    HW240417   5.642   1.670   5.288
79529SOL     OW40418   6.566   5.205   0.397
79529SOL    HW140419   6.576   5.296   0.370
79529SOL    HW240420   6.577   5.207   0.492
79530SOL     OW40421   8.112  12.484   6.298
79530SOL    HW140422   8.031  12.515   6.339
79530SOL    HW240423   8.164  12.449   6.370
79531SOL     OW40424   4.530  12.697   8.353
79531SOL    HW140425   4.604  12.680   8.411
79531SOL    HW240426   4.570  12.730   8.273
79532SOL     OW40427   0.784   8.648   7.495
79532SOL    HW140428   0.868   8.679   7.459
79532SOL    HW240429   0.794   8.553   7.498
79533SOL     OW40430   7.086   2.034  12.613
79533SOL    HW140431   7.110   1.982  12.537
79533SOL    HW240432   6.990   2.034  12.613
79534SOL     OW40433  13.204   4.019   0.522
79534SOL    HW140434  13.281   3.964   0.537
79534SOL    HW240435  13.190   4.015   0.427
79535SOL     OW40436   9.385   0.063  12.909
79535SOL    HW140437   9.418   0.114  12.983
79535SOL    HW240438   9.437   0.092  12.834
79536SOL     OW40439   2.467   3.397  11.190
79536SOL    HW140440   2.449   3.456  11.264
79536SOL    HW240441   2.531   3.444  11.137
79537SOL     OW40442   4.454   5.867   4.904
79537SOL    HW140443   4.515   5.905   4.967
79537SOL    HW240444   4.391   5.937   4.888
79538SOL     OW40445   0.401  12.809  13.416
79538SOL    HW140446   0.480  12.756  13.404
79538SOL    HW240447   0.332  12.745  13.435
79539SOL     OW40448   8.922   3.543   2.118
79539SOL    HW140449   8.893   3.455   2.093
79539SOL    HW240450   8.888   3.554   2.207
79540SOL     OW40451  13.703   5.813  10.189
79540SOL    HW140452  13.697   5.749  10.118
79540SOL    HW240453  13.645   5.778  10.257
79541SOL     OW40454   5.818  11.109   1.044
79541SOL    HW140455   5.812  11.043   0.975
79541SOL    HW240456   5.878  11.071   1.108
79542SOL     OW40457   7.931   6.993   5.910
79542SOL    HW140458   7.841   6.966   5.896
79542SOL    HW240459   7.956   7.037   5.829
79543SOL     OW40460  13.435   8.095   5.795
79543SOL    HW140461  13.345   8.125   5.784
79543SOL    HW240462  13.430   8.033   5.868
79544SOL     OW40463   7.203   9.972   7.632
79544SOL    HW140464   7.292   9.937   7.620
79544SOL    HW240465   7.208  10.021   7.714
79545SOL     OW40466   4.101  11.771  14.508
79545SOL    HW140467   4.016  11.739  14.476
79545SOL    HW240468   4.156  11.693  14.513
79546SOL     OW40469   2.566  14.785   4.695
79546SOL    HW140470   2.645  14.751   4.654
79546SOL    HW240471   2.511  14.708   4.708
79547SOL     OW40472   5.159  11.173   4.297
79547SOL    HW140473   5.178  11.213   4.212
79547SOL    HW240474   5.168  11.079   4.282
79548SOL     OW40475  14.576   2.803   0.190
79548SOL    HW140476  14.487   2.778   0.215
79548SOL    HW240477  14.569   2.896   0.166
79549SOL     OW40478  10.267   4.464  10.411
79549SOL    HW140479  10.314   4.485  10.331
79549SOL    HW240480  10.331   4.479  10.481
79550SOL     OW40481  14.567   1.462   0.842
79550SOL    HW140482  14.521   1.545   0.828
79550SOL    HW240483  14.650   1.487   0.884
79551SOL     OW40484   6.120   4.032  13.901
79551SOL    HW140485   6.165   4.104  13.944
79551SOL    HW240486   6.050   4.075  13.850
79552SOL     OW40487   6.632   3.572   3.719
79552SOL    HW140488   6.704   3.603   3.774
79552SOL    HW240489   6.675   3.534   3.642
79553SOL     OW40490  12.050   7.747   1.063
79553SOL    HW140491  12.090   7.815   1.009
79553SOL    HW240492  11.971   7.788   1.099
79554SOL     OW40493   7.572   6.695  14.434
79554SOL    HW140494   7.635   6.623  14.422
79554SOL    HW240495   7.562   6.703  14.529
79555SOL     OW40496   0.484   7.104   4.200
79555SOL    HW140497   0.544   7.094   4.127
79555SOL    HW240498   0.434   7.183   4.180
79556SOL     OW40499   1.640   8.133  13.543
79556SOL    HW140500   1.613   8.210  13.594
79556SOL    HW240501   1.614   8.154  13.453
79557SOL     OW40502   5.402   9.735   3.647
79557SOL    HW140503   5.326   9.705   3.597
79557SOL    HW240504   5.409   9.673   3.720
79558SOL     OW40505   7.613  12.088   1.694
79558SOL    HW140506   7.697  12.071   1.737
79558SOL    HW240507   7.547  12.063   1.759
79559SOL     OW40508   5.681   7.321   2.466
79559SOL    HW140509   5.776   7.313   2.478
79559SOL    HW240510   5.658   7.401   2.513
79560SOL     OW40511   6.730   3.413   9.658
79560SOL    HW140512   6.739   3.484   9.722
79560SOL    HW240513   6.785   3.343   9.691
79561SOL     OW40514   1.546  13.112   4.341
79561SOL    HW140515   1.605  13.145   4.273
79561SOL    HW240516   1.555  13.017   4.337
79562SOL     OW40517   8.448   4.958   6.136
79562SOL    HW140518   8.469   5.004   6.217
79562SOL    HW240519   8.491   4.873   6.145
79563SOL     OW40520  11.391  11.850   6.433
79563SOL    HW140521  11.419  11.788   6.500
79563SOL    HW240522  11.467  11.907   6.420
79564SOL     OW40523  10.075   9.939  12.572
79564SOL    HW140524  10.028   9.871  12.620
79564SOL    HW240525  10.103  10.001  12.640
79565SOL     OW40526   9.279   5.346   8.975
79565SOL    HW140527   9.207   5.383   8.925
79565SOL    HW240528   9.348   5.413   8.972
79566SOL     OW40529   8.850   1.766   8.221
79566SOL    HW140530   8.899   1.759   8.303
79566SOL    HW240531   8.820   1.677   8.202
79567SOL     OW40532   4.857  14.227  14.656
79567SOL    HW140533   4.899  14.143  14.678
79567SOL    HW240534   4.922  14.273  14.602
79568SOL     OW40535   1.432  12.164   7.283
79568SOL    HW140536   1.527  12.168   7.294
79568SOL    HW240537   1.406  12.255   7.265
79569SOL     OW40538  13.541  11.992   6.071
79569SOL    HW140539  13.513  11.954   6.155
79569SOL    HW240540  13.607  11.931   6.038
79570SOL     OW40541   1.494   1.353   5.442
79570SOL    HW140542   1.477   1.432   5.493
79570SOL    HW240543   1.589   1.345   5.441
79571SOL     OW40544  13.193   9.207  14.391
79571SOL    HW140545  13.208   9.300  14.410
79571SOL    HW240546  13.116   9.184  14.442
79572SOL     OW40547   7.311   3.890   0.570
79572SOL    HW140548   7.291   3.818   0.511
79572SOL    HW240549   7.365   3.851   0.638
79573SOL     OW40550   8.150   5.558   7.451
79573SOL    HW140551   8.180   5.527   7.537
79573SOL    HW240552   8.213   5.626   7.427
79574SOL     OW40553   3.892  10.396   6.384
79574SOL    HW140554   3.963  10.459   6.395
79574SOL    HW240555   3.821  10.446   6.343
79575SOL     OW40556   5.457   6.568  10.945
79575SOL    HW140557   5.540   6.544  10.904
79575SOL    HW240558   5.482   6.615  11.024
79576SOL     OW40559  11.866  13.726   9.573
79576SOL    HW140560  11.941  13.669   9.590
79576SOL    HW240561  11.902  13.798   9.521
79577SOL     OW40562   3.733   6.441   4.965
79577SOL    HW140563   3.671   6.491   4.912
79577SOL    HW240564   3.772   6.506   5.023
79578SOL     OW40565   2.224   7.668   4.965
79578SOL    HW140566   2.147   7.693   5.016
79578SOL    HW240567   2.273   7.750   4.955
79579SOL     OW40568   0.871   8.134   7.641
79579SOL    HW140569   0.966   8.146   7.648
79579SOL    HW240570   0.854   8.050   7.682
79580SOL     OW40571   2.899   8.429   9.479
79580SOL    HW140572   2.972   8.491   9.476
79580SOL    HW240573   2.933   8.349   9.440
79581SOL     OW40574   6.513   1.637   4.220
79581SOL    HW140575   6.484   1.556   4.262
79581SOL    HW240576   6.456   1.646   4.144
79582SOL     OW40577   9.806   6.795  10.305
79582SOL    HW140578   9.877   6.811  10.242
79582SOL    HW240579   9.824   6.855  10.377
79583SOL     OW40580   7.840   5.134   4.718
79583SOL    HW140581   7.907   5.138   4.650
79583SOL    HW240582   7.884   5.170   4.796
79584SOL     OW40583   5.172  14.535   1.455
79584SOL    HW140584   5.122  14.605   1.497
79584SOL    HW240585   5.234  14.581   1.398
79585SOL     OW40586  14.602   4.755   6.915
79585SOL    HW140587  14.659   4.688   6.878
79585SOL    HW240588  14.604   4.827   6.851
79586SOL     OW40589   7.218  13.780  11.835
79586SOL    HW140590   7.217  13.874  11.853
79586SOL    HW240591   7.310  13.759  11.820
79587SOL     OW40592   9.452   2.059  12.145
79587SOL    HW140593   9.448   1.988  12.209
79587SOL    HW240594   9.518   2.119  12.180
79588SOL     OW40595   5.515   8.798   1.708
79588SOL    HW140596   5.504   8.892   1.693
79588SOL    HW240597   5.608   8.781   1.690
79589SOL     OW40598   0.875   9.963   2.026
79589SOL    HW140599   0.859   9.871   2.048
79589SOL    HW240600   0.791  10.006   2.038
79590SOL     OW40601   9.501  14.509   2.428
79590SOL    HW140602   9.555  14.491   2.351
79590SOL    HW240603   9.448  14.430   2.439
79591SOL     OW40604   6.068   6.106   7.595
79591SOL    HW140605   6.113   6.041   7.541
79591SOL    HW240606   5.985   6.065   7.619
79592SOL     OW40607   2.175   5.580   1.810
79592SOL    HW140608   2.081   5.595   1.814
79592SOL    HW240609   2.205   5.590   1.900
79593SOL     OW40610   5.001   9.782   7.858
79593SOL    HW140611   5.031   9.764   7.769
79593SOL    HW240612   5.079   9.777   7.912
79594SOL     OW40613   4.077   1.878  11.432
79594SOL    HW140614   4.023   1.945  11.391
79594SOL    HW240615   4.093   1.910  11.520
79595SOL     OW40616  10.709  14.356  14.252
79595SOL    HW140617  10.659  14.437  14.262
79595SOL    HW240618  10.762  14.351  14.332
79596SOL     OW40619   1.752   7.584   3.993
79596SOL    HW140620   1.819   7.606   4.059
79596SOL    HW240621   1.672   7.624   4.027
79597SOL     OW40622  10.139   9.358   4.828
79597SOL    HW140623  10.212   9.354   4.766
79597SOL    HW240624  10.069   9.401   4.779
79598SOL     OW40625   9.093   8.844   8.293
79598SOL    HW140626   9.114   8.937   8.281
79598SOL    HW240627   9.088   8.809   8.204
79599SOL     OW40628   8.099  12.012   0.910
79599SOL    HW140629   8.006  12.016   0.934
79599SOL    HW240630   8.109  12.081   0.844
79600SOL     OW40631   5.538   9.490   1.753
79600SOL    HW140632   5.628   9.512   1.778
79600SOL    HW240633   5.522   9.405   1.794
79601SOL     OW40634   5.520   1.539   6.393
79601SOL    HW140635   5.556   1.627   6.392
79601SOL    HW240636   5.457   1.538   6.321
79602SOL     OW40637   2.948  14.486  12.801
79602SOL    HW140638   2.878  14.433  12.764
79602SOL    HW240639   2.938  14.572  12.760
79603SOL     OW40640   2.191   2.124  12.811
79603SOL    HW140641   2.149   2.171  12.739
79603SOL    HW240642   2.234   2.193  12.862
79604SOL     OW40643   3.031   6.734   9.283
79604SOL    HW140644   3.079   6.689   9.214
79604SOL    HW240645   3.097   6.757   9.348
79605SOL     OW40646   1.636   4.501  14.671
79605SOL    HW140647   1.697   4.538  14.735
79605SOL    HW240648   1.658   4.408  14.667
79606SOL     OW40649   2.542   7.108  13.057
79606SOL    HW140650   2.503   7.020  13.057
79606SOL    HW240651   2.616   7.101  13.117
79607SOL     OW40652   8.018  14.540   9.670
79607SOL    HW140653   7.925  14.563   9.669
79607SOL    HW240654   8.063  14.620   9.645
79608SOL     OW40655   3.900   4.444   0.345
79608SOL    HW140656   3.829   4.468   0.286
79608SOL    HW240657   3.948   4.526   0.360
79609SOL     OW40658  11.350   9.568  12.603
79609SOL    HW140659  11.267   9.576  12.651
79609SOL    HW240660  11.405   9.514  12.660
79610SOL     OW40661   7.282  14.856   3.745
79610SOL    HW140662   7.284   0.056   3.683
79610SOL    HW240663   7.344  14.792   3.709
79611SOL     OW40664   9.064   7.821   0.446
79611SOL    HW140665   9.019   7.745   0.484
79611SOL    HW240666   8.993   7.877   0.415
79612SOL     OW40667   1.804   8.879   5.542
79612SOL    HW140668   1.856   8.959   5.548
79612SOL    HW240669   1.869   8.809   5.537
79613SOL     OW40670   4.160   9.260  14.669
79613SOL    HW140671   4.219   9.320  14.715
79613SOL    HW240672   4.101   9.227  14.736
79614SOL     OW40673   9.091   6.435  12.972
79614SOL    HW140674   9.106   6.362  12.911
79614SOL    HW240675   8.998   6.455  12.963
79615SOL     OW40676   0.377  12.064  12.561
79615SOL    HW140677   0.445  12.002  12.535
79615SOL    HW240678   0.346  12.103  12.479
79616SOL     OW40679   1.709  12.694   0.369
79616SOL    HW140680   1.745  12.637   0.301
79616SOL    HW240681   1.631  12.649   0.399
79617SOL     OW40682  13.363   0.665   6.571
79617SOL    HW140683  13.391   0.584   6.614
79617SOL    HW240684  13.365   0.644   6.478
79618SOL     OW40685   0.026   2.520  13.834
79618SOL    HW140686   0.027   2.538  13.928
79618SOL    HW240687   0.118   2.513  13.810
79619SOL     OW40688  11.218   7.456  14.806
79619SOL    HW140689  11.205   7.550  14.823
79619SOL    HW240690  11.249   7.421   0.017
79620SOL     OW40691   0.235   6.666   3.588
79620SOL    HW140692   0.175   6.726   3.631
79620SOL    HW240693   0.217   6.580   3.627
79621SOL     OW40694  11.116   5.092   0.704
79621SOL    HW140695  11.197   5.040   0.710
79621SOL    HW240696  11.146   5.183   0.701
79622SOL     OW40697   5.848   8.554  13.658
79622SOL    HW140698   5.760   8.522  13.638
79622SOL    HW240699   5.903   8.475  13.655
79623SOL     OW40700   0.498   6.130   9.942
79623SOL    HW140701   0.452   6.084   9.872
79623SOL    HW240702   0.431   6.186   9.981
79624SOL     OW40703   8.219   5.774   4.937
79624SOL    HW140704   8.193   5.865   4.948
79624SOL    HW240705   8.149   5.724   4.979
79625SOL     OW40706   5.232  14.611   4.747
79625SOL    HW140707   5.172  14.594   4.819
79625SOL    HW240708   5.319  14.594   4.784
79626SOL     OW40709  12.602   8.783  11.701
79626SOL    HW140710  12.591   8.785  11.606
79626SOL    HW240711  12.592   8.874  11.728
79627SOL     OW40712   8.824  11.627  12.035
79627SOL    HW140713   8.834  11.546  12.086
79627SOL    HW240714   8.906  11.675  12.050
79628SOL     OW40715   1.836   3.112  14.226
79628SOL    HW140716   1.760   3.109  14.284
79628SOL    HW240717   1.858   3.020  14.210
79629SOL     OW40718  11.527   3.417  14.713
79629SOL    HW140719  11.573   3.336  14.687
79629SOL    HW240720  11.520   3.467  14.632
79630SOL     OW40721   5.846   8.000   0.210
79630SOL    HW140722   5.863   8.064   0.279
79630SOL    HW240723   5.845   8.050   0.129
79631SOL     OW40724   7.477   8.205   8.645
79631SOL    HW140725   7.529   8.244   8.575
79631SOL    HW240726   7.468   8.113   8.621
79632SOL     OW40727   7.672   6.865   9.679
79632SOL    HW140728   7.630   6.817   9.750
79632SOL    HW240729   7.670   6.956   9.708
79633SOL     OW40730   0.501   4.020   1.736
79633SOL    HW140731   0.408   4.028   1.717
79633SOL    HW240732   0.545   4.056   1.659
79634SOL     OW40733   1.311  12.478   3.633
79634SOL    HW140734   1.372  12.496   3.562
79634SOL    HW240735   1.227  12.511   3.600
79635SOL     OW40736  11.183   6.000   8.248
79635SOL    HW140737  11.117   5.963   8.307
79635SOL    HW240738  11.176   5.947   8.169
79636SOL     OW40739   3.492   5.158   5.412
79636SOL    HW140740   3.465   5.147   5.320
79636SOL    HW240741   3.585   5.178   5.407
79637SOL     OW40742   6.425   8.040  13.034
79637SOL    HW140743   6.428   8.122  12.984
79637SOL    HW240744   6.353   8.053  13.095
79638SOL     OW40745  10.287   3.819   3.690
79638SOL    HW140746  10.222   3.749   3.684
79638SOL    HW240747  10.299   3.848   3.599
79639SOL     OW40748  12.230  14.128  14.820
79639SOL    HW140749  12.242  14.053   0.006
79639SOL    HW240750  12.135  14.140  14.816
79640SOL     OW40751  12.571  11.575   5.557
79640SOL    HW140752  12.555  11.565   5.463
79640SOL    HW240753  12.665  11.588   5.565
79641SOL     OW40754   7.017   4.038   1.071
79641SOL    HW140755   7.044   3.949   1.047
79641SOL    HW240756   6.943   4.057   1.014
79642SOL     OW40757   7.816  14.511   5.678
79642SOL    HW140758   7.748  14.449   5.703
79642SOL    HW240759   7.852  14.476   5.596
79643SOL     OW40760   1.415  12.745  13.548
79643SOL    HW140761   1.356  12.731  13.623
79643SOL    HW240762   1.461  12.827  13.569
79644SOL     OW40763   4.612   3.714   3.783
79644SOL    HW140764   4.648   3.803   3.784
79644SOL    HW240765   4.547   3.716   3.713
79645SOL     OW40766  14.634   9.394   7.250
79645SOL    HW140767  14.630   9.476   7.200
79645SOL    HW240768  14.728   9.379   7.264
79646SOL     OW40769   4.390   9.196  10.958
79646SOL    HW140770   4.333   9.248  11.015
79646SOL    HW240771   4.383   9.238  10.873
79647SOL     OW40772  11.563   1.120   2.048
79647SOL    HW140773  11.550   1.067   2.127
79647SOL    HW240774  11.486   1.102   1.994
79648SOL     OW40775   6.253   9.513   3.748
79648SOL    HW140776   6.193   9.495   3.821
79648SOL    HW240777   6.233   9.603   3.722
79649SOL     OW40778   2.361  14.811  11.280
79649SOL    HW140779   2.392   0.026  11.305
79649SOL    HW240780   2.441  14.758  11.275
79650SOL     OW40781  10.408   3.580  11.939
79650SOL    HW140782  10.504   3.585  11.946
79650SOL    HW240783  10.393   3.503  11.884
79651SOL     OW40784  13.087   8.951   6.176
79651SOL    HW140785  13.145   8.982   6.245
79651SOL    HW240786  13.105   9.009   6.102
79652SOL     OW40787   8.791   4.586   3.587
79652SOL    HW140788   8.712   4.533   3.591
79652SOL    HW240789   8.863   4.523   3.583
79653SOL     OW40790   3.194   4.767   1.114
79653SOL    HW140791   3.178   4.754   1.021
79653SOL    HW240792   3.230   4.684   1.144
79654SOL     OW40793   2.387  11.836   5.090
79654SOL    HW140794   2.414  11.875   5.174
79654SOL    HW240795   2.463  11.849   5.033
79655SOL     OW40796   5.576  10.328   6.363
79655SOL    HW140797   5.640  10.261   6.387
79655SOL    HW240798   5.510  10.323   6.432
79656SOL     OW40799  13.996   2.293  13.587
79656SOL    HW140800  13.943   2.286  13.508
79656SOL    HW240801  14.086   2.302  13.556
79657SOL     OW40802   8.994  10.752   3.340
79657SOL    HW140803   9.027  10.792   3.259
79657SOL    HW240804   8.961  10.667   3.313
79658SOL     OW40805   9.682  13.907  14.740
79658SOL    HW140806   9.747  13.972  14.714
79658SOL    HW240807   9.694  13.898  14.835
79659SOL     OW40808   0.431   6.404   7.547
79659SOL    HW140809   0.445   6.454   7.627
79659SOL    HW240810   0.511   6.415   7.496
79660SOL     OW40811   8.997  11.819   8.610
79660SOL    HW140812   9.061  11.789   8.545
79660SOL    HW240813   9.049  11.870   8.672
79661SOL     OW40814  12.697  13.923  13.667
79661SOL    HW140815  12.728  14.013  13.667
79661SOL    HW240816  12.685  13.902  13.760
79662SOL     OW40817   6.123   6.333   3.212
79662SOL    HW140818   6.132   6.428   3.219
79662SOL    HW240819   6.039   6.314   3.254
79663SOL     OW40820   0.740  11.590   3.990
79663SOL    HW140821   0.696  11.671   4.016
79663SOL    HW240822   0.828  11.598   4.025
79664SOL     OW40823  14.648  13.267   4.838
79664SOL    HW140824  14.737  13.301   4.825
79664SOL    HW240825  14.659  13.172   4.839
79665SOL     OW40826  10.136   6.932   8.639
79665SOL    HW140827  10.158   6.925   8.546
79665SOL    HW240828  10.219   6.921   8.684
79666SOL     OW40829   2.589   9.999  13.411
79666SOL    HW140830   2.495   9.999  13.429
79666SOL    HW240831   2.623   9.924  13.460
79667SOL     OW40832   5.411   1.732   4.994
79667SOL    HW140833   5.326   1.709   4.954
79667SOL    HW240834   5.457   1.648   5.001
79668SOL     OW40835   4.702   1.897   4.850
79668SOL    HW140836   4.758   1.950   4.906
79668SOL    HW240837   4.763   1.852   4.791
79669SOL     OW40838   6.950  10.978   2.849
79669SOL    HW140839   7.028  10.996   2.797
79669SOL    HW240840   6.964  10.890   2.884
79670SOL     OW40841  10.327   4.125   5.644
79670SOL    HW140842  10.258   4.184   5.614
79670SOL    HW240843  10.350   4.156   5.731
79671SOL     OW40844   5.896  10.466  10.310
79671SOL    HW140845   5.963  10.453  10.244
79671SOL    HW240846   5.816  10.485  10.261
79672SOL     OW40847  10.144   7.085   6.378
79672SOL    HW140848  10.179   7.173   6.387
79672SOL    HW240849  10.216   7.035   6.339
79673SOL     OW40850   2.966  14.177   7.427
79673SOL    HW140851   2.889  14.224   7.457
79673SOL    HW240852   3.040  14.222   7.468
79674SOL     OW40853  11.544   5.606   8.015
79674SOL    HW140854  11.553   5.675   8.080
79674SOL    HW240855  11.622   5.552   8.026
79675SOL     OW40856   0.876   8.061   5.846
79675SOL    HW140857   0.784   8.066   5.872
79675SOL    HW240858   0.913   7.991   5.901
79676SOL     OW40859   3.687  13.686   7.227
79676SOL    HW140860   3.751  13.666   7.295
79676SOL    HW240861   3.704  13.778   7.205
79677SOL     OW40862   8.185  13.035   5.640
79677SOL    HW140863   8.161  12.995   5.556
79677SOL    HW240864   8.262  12.987   5.669
79678SOL     OW40865   3.824   5.582  13.340
79678SOL    HW140866   3.803   5.622  13.255
79678SOL    HW240867   3.852   5.655  13.395
79679SOL     OW40868  13.361   9.149   0.222
79679SOL    HW140869  13.418   9.183   0.153
79679SOL    HW240870  13.293   9.099   0.176
79680SOL     OW40871   9.313   8.466  13.870
79680SOL    HW140872   9.409   8.467  13.865
79680SOL    HW240873   9.293   8.518  13.948
79681SOL     OW40874   8.765  11.921  12.401
79681SOL    HW140875   8.674  11.892  12.397
79681SOL    HW240876   8.769  11.997  12.343
79682SOL     OW40877   3.001   3.376  11.856
79682SOL    HW140878   2.917   3.420  11.843
79682SOL    HW240879   3.044   3.425  11.925
79683SOL     OW40880   0.979   3.081   4.994
79683SOL    HW140881   0.889   3.075   5.025
79683SOL    HW240882   0.989   3.172   4.966
79684SOL     OW40883   7.285   1.035   1.750
79684SOL    HW140884   7.370   1.078   1.744
79684SOL    HW240885   7.222   1.102   1.725
79685SOL     OW40886   4.171   9.402  11.820
79685SOL    HW140887   4.080   9.387  11.848
79685SOL    HW240888   4.191   9.328  11.762
79686SOL     OW40889  12.100   7.743   1.667
79686SOL    HW140890  12.087   7.666   1.722
79686SOL    HW240891  12.025   7.798   1.684
79687SOL     OW40892   5.963   4.822   1.276
79687SOL    HW140893   5.879   4.822   1.230
79687SOL    HW240894   5.986   4.914   1.284
79688SOL     OW40895   5.758   7.115   3.335
79688SOL    HW140896   5.782   7.205   3.358
79688SOL    HW240897   5.824   7.088   3.272
79689SOL     OW40898  10.710  13.505   3.107
79689SOL    HW140899  10.765  13.570   3.151
79689SOL    HW240900  10.771  13.437   3.079
79690SOL     OW40901   2.199   9.688   1.440
79690SOL    HW140902   2.229   9.597   1.435
79690SOL    HW240903   2.216   9.714   1.531
79691SOL     OW40904   0.223   5.528   1.753
79691SOL    HW140905   0.138   5.541   1.795
79691SOL    HW240906   0.206   5.468   1.681
79692SOL     OW40907   1.033   8.716   4.724
79692SOL    HW140908   1.023   8.803   4.761
79692SOL    HW240909   1.029   8.657   4.800
79693SOL     OW40910  12.274   1.939  11.744
79693SOL    HW140911  12.220   1.981  11.677
79693SOL    HW240912  12.260   1.845  11.731
79694SOL     OW40913   3.131   2.680   6.489
79694SOL    HW140914   3.129   2.713   6.579
79694SOL    HW240915   3.224   2.675   6.468
79695SOL     OW40916   5.404  11.388   7.950
79695SOL    HW140917   5.323  11.337   7.951
79695SOL    HW240918   5.450  11.359   8.029
79696SOL     OW40919   2.873   4.907   9.413
79696SOL    HW140920   2.962   4.943   9.415
79696SOL    HW240921   2.819   4.979   9.382
79697SOL     OW40922   3.712   4.222   0.418
79697SOL    HW140923   3.721   4.217   0.513
79697SOL    HW240924   3.737   4.312   0.396
79698SOL     OW40925  11.519   8.034  11.714
79698SOL    HW140926  11.557   7.947  11.728
79698SOL    HW240927  11.557   8.088  11.784
79699SOL     OW40928  12.066  12.345  10.053
79699SOL    HW140929  12.111  12.296  10.122
79699SOL    HW240930  12.114  12.324   9.973
79700SOL     OW40931   9.618  13.307   3.251
79700SOL    HW140932   9.633  13.213   3.263
79700SOL    HW240933   9.660  13.348   3.326
79701SOL     OW40934   3.450  11.704  11.127
79701SOL    HW140935   3.395  11.658  11.191
79701SOL    HW240936   3.395  11.776  11.096
79702SOL     OW40937   2.376  11.186   3.225
79702SOL    HW140938   2.419  11.183   3.140
79702SOL    HW240939   2.448  11.182   3.288
79703SOL     OW40940   0.612  13.701  12.081
79703SOL    HW140941   0.612  13.649  12.001
79703SOL    HW240942   0.702  13.697  12.112
79704SOL     OW40943  14.029  13.591  10.093
79704SOL    HW140944  14.014  13.580   9.999
79704SOL    HW240945  14.125  13.591  10.102
79705SOL     OW40946   5.860   7.184  10.103
79705SOL    HW140947   5.847   7.142  10.018
79705SOL    HW240948   5.876   7.111  10.163
79706SOL     OW40949  11.795   1.488  13.975
79706SOL    HW140950  11.887   1.493  13.999
79706SOL    HW240951  11.795   1.483  13.880
79707SOL     OW40952  12.851   6.813  10.259
79707SOL    HW140953  12.814   6.732  10.293
79707SOL    HW240954  12.814   6.822  10.171
79708SOL     OW40955  12.511  11.342   7.211
79708SOL    HW140956  12.529  11.248   7.214
79708SOL    HW240957  12.416  11.348   7.200
79709SOL     OW40958   1.921   6.764   4.999
79709SOL    HW140959   1.867   6.695   4.962
79709SOL    HW240960   1.898   6.766   5.092
79710SOL     OW40961   0.779   7.878   4.608
79710SOL    HW140962   0.692   7.909   4.633
79710SOL    HW240963   0.810   7.941   4.543
79711SOL     OW40964   2.897   7.442   3.425
79711SOL    HW140965   2.893   7.346   3.421
79711SOL    HW240966   2.852   7.471   3.345
79712SOL     OW40967  11.542   8.605   1.898
79712SOL    HW140968  11.448   8.608   1.882
79712SOL    HW240969  11.552   8.550   1.976
79713SOL     OW40970  11.874  14.798   4.018
79713SOL    HW140971  11.922  14.801   3.936
79713SOL    HW240972  11.941  14.786   4.085
79714SOL     OW40973   1.546   7.775   2.865
79714SOL    HW140974   1.572   7.790   2.956
79714SOL    HW240975   1.602   7.833   2.815
79715SOL     OW40976   9.716  14.078   6.257
79715SOL    HW140977   9.744  13.988   6.278
79715SOL    HW240978   9.636  14.066   6.207
79716SOL     OW40979   3.401   3.502   2.861
79716SOL    HW140980   3.315   3.517   2.900
79716SOL    HW240981   3.454   3.577   2.889
79717SOL     OW40982   7.494   9.382  11.906
79717SOL    HW140983   7.558   9.435  11.858
79717SOL    HW240984   7.530   9.293  11.904
79718SOL     OW40985  10.760  10.307   6.755
79718SOL    HW140986  10.718  10.393   6.757
79718SOL    HW240987  10.716  10.257   6.824
79719SOL     OW40988   7.467  11.279   8.946
79719SOL    HW140989   7.550  11.290   8.899
79719SOL    HW240990   7.437  11.191   8.923
79720SOL     OW40991  11.874   4.117   0.303
79720SOL    HW140992  11.953   4.164   0.329
79720SOL    HW240993  11.805   4.152   0.359
79721SOL     OW40994   1.419   4.535   0.550
79721SOL    HW140995   1.391   4.489   0.629
79721SOL    HW240996   1.379   4.621   0.557
79722SOL     OW40997   4.702  11.053  12.806
79722SOL    HW140998   4.745  10.977  12.845
79722SOL    HW240999   4.767  11.088  12.745
79723SOL     OW41000   6.059  11.478   5.682
79723SOL    HW141001   6.040  11.566   5.716
79723SOL    HW241002   6.043  11.420   5.756
79724SOL     OW41003  12.591  13.031  12.819
79724SOL    HW141004  12.555  13.097  12.760
79724SOL    HW241005  12.638  13.081  12.886
79725SOL     OW41006   3.026  12.026   6.983
79725SOL    HW141007   2.982  12.080   6.917
79725SOL    HW241008   3.082  12.087   7.031
79726SOL     OW41009   3.730   5.137  10.193
79726SOL    HW141010   3.697   5.196  10.261
79726SOL    HW241011   3.751   5.195  10.119
79727SOL     OW41012  10.914   3.270   9.478
79727SOL    HW141013  10.847   3.338   9.469
79727SOL    HW241014  10.864   3.189   9.488
79728SOL     OW41015   2.548   9.320   7.420
79728SOL    HW141016   2.543   9.258   7.347
79728SOL    HW241017   2.534   9.267   7.498
79729SOL     OW41018   8.516  13.358  12.398
79729SOL    HW141019   8.508  13.313  12.314
79729SOL    HW241020   8.522  13.450  12.376
79730SOL     OW41021   8.839   6.614  10.762
79730SOL    HW141022   8.931   6.641  10.760
79730SOL    HW241023   8.827   6.563  10.682
79731SOL     OW41024  11.434   7.239  12.616
79731SOL    HW141025  11.359   7.184  12.639
79731SOL    HW241026  11.438   7.303  12.687
79732SOL     OW41027   0.438  13.494  14.228
79732SOL    HW141028   0.398  13.569  14.273
79732SOL    HW241029   0.531  13.500  14.250
79733SOL     OW41030   6.183   0.326   8.347
79733SOL    HW141031   6.199   0.420   8.353
79733SOL    HW241032   6.097   0.314   8.388
79734SOL     OW41033   3.680  11.728  14.772
79734SOL    HW141034   3.728  11.726  14.689
79734SOL    HW241035   3.694  11.642  14.810
79735SOL     OW41036  13.899  10.736   0.865
79735SOL    HW141037  13.816  10.708   0.827
79735SOL    HW241038  13.964  10.677   0.829
79736SOL     OW41039   0.143   2.514   6.758
79736SOL    HW141040   0.208   2.556   6.814
79736SOL    HW241041   0.162   2.547   6.670
79737SOL     OW41042   7.580   4.418  14.738
79737SOL    HW141043   7.558   4.494  14.792
79737SOL    HW241044   7.508   4.356  14.754
79738SOL     OW41045   2.852   5.678   8.602
79738SOL    HW141046   2.796   5.754   8.586
79738SOL    HW241047   2.934   5.715   8.635
79739SOL     OW41048   5.961  12.043  14.186
79739SOL    HW141049   5.993  12.017  14.273
79739SOL    HW241050   5.879  11.996  14.175
79740SOL     OW41051  11.628   0.447   2.979
79740SOL    HW141052  11.658   0.356   2.987
79740SOL    HW241053  11.575   0.448   2.900
79741SOL     OW41054   7.006  13.426  12.056
79741SOL    HW141055   6.912  13.415  12.046
79741SOL    HW241056   7.028  13.498  11.996
79742SOL     OW41057   9.267   5.262   0.325
79742SOL    HW141058   9.334   5.243   0.392
79742SOL    HW241059   9.307   5.232   0.243
79743SOL     OW41060  10.491  10.806   7.050
79743SOL    HW141061  10.407  10.762   7.043
79743SOL    HW241062  10.512  10.805   7.144
79744SOL     OW41063   7.037   3.644  11.841
79744SOL    HW141064   6.962   3.698  11.863
79744SOL    HW241065   7.108   3.706  11.827
79745SOL     OW41066  13.922   4.943   3.602
79745SOL    HW141067  13.907   4.853   3.574
79745SOL    HW241068  13.969   4.983   3.530
79746SOL     OW41069   5.731  10.739   9.316
79746SOL    HW141070   5.756  10.732   9.408
79746SOL    HW241071   5.661  10.805   9.316
79747SOL     OW41072   1.093   3.120  13.461
79747SOL    HW141073   1.113   3.208  13.429
79747SOL    HW241074   1.061   3.073  13.384
79748SOL     OW41075   7.169  11.684  11.723
79748SOL    HW141076   7.202  11.609  11.672
79748SOL    HW241077   7.178  11.656  11.814
79749SOL     OW41078   4.062   8.075  13.092
79749SOL    HW141079   4.153   8.067  13.064
79749SOL    HW241080   4.066   8.129  13.171
79750SOL     OW41081  12.649   5.852  13.725
79750SOL    HW141082  12.572   5.889  13.681
79750SOL    HW241083  12.643   5.884  13.815
79751SOL     OW41084   6.753   3.642   7.875
79751SOL    HW141085   6.832   3.594   7.900
79751SOL    HW241086   6.691   3.575   7.848
79752SOL     OW41087   4.618   8.021   4.168
79752SOL    HW141088   4.628   8.065   4.084
79752SOL    HW241089   4.534   7.975   4.162
79753SOL     OW41090   9.259   7.148  10.177
79753SOL    HW141091   9.292   7.209  10.243
79753SOL    HW241092   9.326   7.079  10.174
79754SOL     OW41093   4.158   0.721   9.281
79754SOL    HW141094   4.235   0.769   9.312
79754SOL    HW241095   4.184   0.685   9.196
79755SOL     OW41096   1.964   2.422   8.894
79755SOL    HW141097   1.986   2.369   8.818
79755SOL    HW241098   1.915   2.363   8.951
79756SOL     OW41099  12.093   3.849  13.084
79756SOL    HW141100  12.147   3.813  13.153
79756SOL    HW241101  12.078   3.940  13.109
79757SOL     OW41102   4.109   1.411  12.011
79757SOL    HW141103   4.170   1.402  12.084
79757SOL    HW241104   4.136   1.344  11.948
79758SOL     OW41105   8.744   1.339   6.463
79758SOL    HW141106   8.744   1.319   6.369
79758SOL    HW241107   8.835   1.362   6.483
79759SOL     OW41108   5.467  10.876   9.277
79759SOL    HW141109   5.391  10.833   9.238
79759SOL    HW241110   5.449  10.877   9.371
79760SOL     OW41111   7.793  12.061   9.568
79760SOL    HW141112   7.782  12.156   9.565
79760SOL    HW241113   7.791  12.035   9.476
79761SOL     OW41114   5.732  11.617   7.770
79761SOL    HW141115   5.753  11.543   7.827
79761SOL    HW241116   5.804  11.679   7.784
79762SOL     OW41117   4.771  14.724  11.180
79762SOL    HW141118   4.774  14.703  11.273
79762SOL    HW241119   4.682  14.700  11.153
79763SOL     OW41120   7.495   5.924   9.315
79763SOL    HW141121   7.502   6.018   9.330
79763SOL    HW241122   7.585   5.892   9.318
79764SOL     OW41123   2.936   8.233   5.244
79764SOL    HW141124   2.947   8.309   5.301
79764SOL    HW241125   2.842   8.214   5.248
79765SOL     OW41126   4.693  13.511   8.457
79765SOL    HW141127   4.782  13.541   8.475
79765SOL    HW241128   4.702  13.418   8.439
79766SOL     OW41129   6.910   4.169  12.359
79766SOL    HW141130   6.909   4.191  12.452
79766SOL    HW241131   6.824   4.198  12.327
79767SOL     OW41132  10.158  10.655   9.365
79767SOL    HW141133  10.072  10.662   9.407
79767SOL    HW241134  10.152  10.576   9.312
79768SOL     OW41135  14.075  12.512  12.369
79768SOL    HW141136  14.126  12.445  12.323
79768SOL    HW241137  14.129  12.535  12.444
79769SOL     OW41138   1.926   1.968   9.916
79769SOL    HW141139   1.954   2.051   9.878
79769SOL    HW241140   1.965   1.902   9.860
79770SOL     OW41141   9.140   6.007   2.637
79770SOL    HW141142   9.183   6.018   2.552
79770SOL    HW241143   9.072   5.942   2.621
79771SOL     OW41144   1.164   0.219  11.721
79771SOL    HW141145   1.105   0.292  11.744
79771SOL    HW241146   1.214   0.202  11.801
79772SOL     OW41147   0.853   7.359   7.714
79772SOL    HW141148   0.758   7.343   7.715
79772SOL    HW241149   0.891   7.278   7.746
79773SOL     OW41150  11.469  12.855   0.145
79773SOL    HW141151  11.543  12.819   0.098
79773SOL    HW241152  11.494  12.946   0.165
79774SOL     OW41153   4.303   2.130   6.670
79774SOL    HW141154   4.263   2.058   6.720
79774SOL    HW241155   4.244   2.204   6.684
79775SOL     OW41156  10.691   4.472   5.491
79775SOL    HW141157  10.714   4.488   5.400
79775SOL    HW241158  10.717   4.552   5.537
79776SOL     OW41159   0.779   6.774  12.544
79776SOL    HW141160   0.864   6.798  12.508
79776SOL    HW241161   0.718   6.788  12.472
79777SOL     OW41162   2.418   7.450   1.248
79777SOL    HW141163   2.466   7.399   1.182
79777SOL    HW241164   2.340   7.480   1.202
79778SOL     OW41165   9.881   5.466  14.736
79778SOL    HW141166   9.977   5.468  14.733
79778SOL    HW241167   9.854   5.434  14.650
79779SOL     OW41168   0.060   6.893   6.105
79779SOL    HW141169  14.871   6.944   6.159
79779SOL    HW241170   0.101   6.958   6.048
79780SOL     OW41171  10.878  11.850   4.089
79780SOL    HW141172  10.902  11.757   4.088
79780SOL    HW241173  10.945  11.891   4.145
79781SOL     OW41174   1.145   2.526   0.712
79781SOL    HW141175   1.191   2.504   0.793
79781SOL    HW241176   1.060   2.483   0.721
79782SOL     OW41177   4.967   0.484   6.011
79782SOL    HW141178   5.005   0.429   5.942
79782SOL    HW241179   4.912   0.424   6.061
79783SOL     OW41180  11.960   5.480  13.457
79783SOL    HW141181  11.886   5.528  13.494
79783SOL    HW241182  12.022   5.548  13.431
79784SOL     OW41183   5.777   3.757   7.813
79784SOL    HW141184   5.813   3.669   7.822
79784SOL    HW241185   5.682   3.746   7.826
79785SOL     OW41186   8.430   3.917  13.060
79785SOL    HW141187   8.351   3.920  13.007
79785SOL    HW241188   8.400   3.938  13.149
79786SOL     OW41189  12.906   8.433  10.308
79786SOL    HW141190  12.823   8.386  10.295
79786SOL    HW241191  12.939   8.399  10.391
79787SOL     OW41192   6.106   1.057  12.205
79787SOL    HW141193   6.076   0.966  12.201
79787SOL    HW241194   6.162   1.067  12.128
79788SOL     OW41195   0.560   5.352  12.369
79788SOL    HW141196   0.549   5.300  12.290
79788SOL    HW241197   0.608   5.430  12.341
79789SOL     OW41198  10.464   5.005   9.172
79789SOL    HW141199  10.520   5.041   9.103
79789SOL    HW241200  10.525   4.965   9.234
79790SOL     OW41201  12.504   4.564   5.347
79790SOL    HW141202  12.490   4.597   5.258
79790SOL    HW241203  12.521   4.642   5.399
79791SOL     OW41204  13.297   3.584  10.683
79791SOL    HW141205  13.242   3.554  10.610
79791SOL    HW241206  13.244   3.568  10.761
79792SOL     OW41207  13.708   0.001  11.427
79792SOL    HW141208  13.751   0.084  11.447
79792SOL    HW241209  13.615   0.021  11.430
79793SOL     OW41210  11.723  13.674  14.419
79793SOL    HW141211  11.716  13.721  14.502
79793SOL    HW241212  11.679  13.730  14.355
79794SOL     OW41213   2.426   4.334  10.762
79794SOL    HW141214   2.382   4.270  10.706
79794SOL    HW241215   2.360   4.401  10.780
79795SOL     OW41216  13.635   7.557  11.995
79795SOL    HW141217  13.543   7.531  11.992
79795SOL    HW241218  13.676   7.503  11.926
79796SOL     OW41219   7.275  12.831  12.950
79796SOL    HW141220   7.350  12.792  12.996
79796SOL    HW241221   7.217  12.757  12.934
79797SOL     OW41222   9.572   4.309   2.522
79797SOL    HW141223   9.564   4.404   2.527
79797SOL    HW241224   9.638   4.293   2.455
79798SOL     OW41225   5.452   8.086  10.962
79798SOL    HW141226   5.489   8.033  10.892
79798SOL    HW241227   5.448   8.026  11.037
79799SOL     OW41228  11.291   6.374   0.957
79799SOL    HW141229  11.232   6.448   0.968
79799SOL    HW241230  11.253   6.322   0.886
79800SOL     OW41231   7.351   8.379   7.270
79800SOL    HW141232   7.352   8.378   7.366
79800SOL    HW241233   7.437   8.414   7.246
79801SOL     OW41234   3.140   9.009   4.006
79801SOL    HW141235   3.188   8.984   4.085
79801SOL    HW241236   3.109   8.926   3.969
79802SOL     OW41237  10.174   2.869   2.613
79802SOL    HW141238  10.153   2.814   2.688
79802SOL    HW241239  10.120   2.947   2.625
79803SOL     OW41240   1.078   5.663   0.929
79803SOL    HW141241   1.095   5.710   1.011
79803SOL    HW241242   1.099   5.572   0.948
79804SOL     OW41243  11.804   8.651   6.805
79804SOL    HW141244  11.874   8.662   6.869
79804SOL    HW241245  11.831   8.706   6.731
79805SOL     OW41246   5.555  10.717   8.843
79805SOL    HW141247   5.590  10.740   8.757
79805SOL    HW241248   5.632  10.705   8.898
79806SOL     OW41249   4.767  13.566  11.177
79806SOL    HW141250   4.779  13.610  11.262
79806SOL    HW241251   4.832  13.606  11.120
79807SOL     OW41252  12.716   8.848   5.700
79807SOL    HW141253  12.802   8.820   5.732
79807SOL    HW241254  12.730   8.866   5.607
79808SOL     OW41255   4.364   3.557   7.567
79808SOL    HW141256   4.424   3.513   7.507
79808SOL    HW241257   4.421   3.592   7.636
79809SOL     OW41258   3.785   9.584   8.156
79809SOL    HW141259   3.878   9.572   8.139
79809SOL    HW241260   3.774   9.679   8.165
79810SOL     OW41261   1.166   9.880   0.005
79810SOL    HW141262   1.231   9.842   0.063
79810SOL    HW241263   1.086   9.883   0.058
79811SOL     OW41264  13.477   4.281   0.081
79811SOL    HW141265  13.419   4.351   0.112
79811SOL    HW241266  13.521   4.317   0.005
79812SOL     OW41267   1.820   9.832   3.415
79812SOL    HW141268   1.854   9.859   3.500
79812SOL    HW241269   1.863   9.890   3.353
79813SOL     OW41270   6.686  11.480   9.210
79813SOL    HW141271   6.747  11.506   9.279
79813SOL    HW241272   6.692  11.550   9.145
79814SOL     OW41273   8.279   8.311   5.883
79814SOL    HW141274   8.317   8.396   5.904
79814SOL    HW241275   8.350   8.249   5.895
79815SOL     OW41276   1.260   2.469   0.991
79815SOL    HW141277   1.211   2.409   1.047
79815SOL    HW241278   1.239   2.556   1.024
79816SOL     OW41279   0.314   9.749   4.489
79816SOL    HW141280   0.304   9.689   4.564
79816SOL    HW241281   0.250   9.819   4.506
79817SOL     OW41282   2.516   0.664  11.874
79817SOL    HW141283   2.568   0.744  11.867
79817SOL    HW241284   2.443   0.688  11.930
79818SOL     OW41285   5.543   0.779  14.677
79818SOL    HW141286   5.477   0.833  14.721
79818SOL    HW241287   5.591   0.738  14.748
79819SOL     OW41288   7.306   4.334  10.300
79819SOL    HW141289   7.286   4.345  10.207
79819SOL    HW241290   7.357   4.252  10.304
79820SOL     OW41291   6.139   9.602   8.053
79820SOL    HW141292   6.207   9.660   8.018
79820SOL    HW241293   6.187   9.535   8.101
79821SOL     OW41294   8.189  13.797   9.927
79821SOL    HW141295   8.193  13.703   9.908
79821SOL    HW241296   8.270  13.832   9.890
79822SOL     OW41297   1.916   2.727   4.523
79822SOL    HW141298   1.865   2.649   4.502
79822SOL    HW241299   1.910   2.735   4.619
79823SOL     OW41300   3.097  14.279   9.337
79823SOL    HW141301   3.147  14.206   9.376
79823SOL    HW241302   3.036  14.305   9.405
79824SOL     OW41303   1.055  11.122  14.798
79824SOL    HW141304   1.109  11.044  14.788
79824SOL    HW241305   1.064  11.146   0.017
79825SOL     OW41306  14.198   4.749   4.033
79825SOL    HW141307  14.130   4.770   3.969
79825SOL    HW241308  14.187   4.656   4.050
79826SOL     OW41309   2.815   1.601   0.546
79826SOL    HW141310   2.863   1.519   0.536
79826SOL    HW241311   2.723   1.575   0.546
79827SOL     OW41312   8.577   0.939   4.495
79827SOL    HW141313   8.571   0.861   4.440
79827SOL    HW241314   8.612   1.006   4.437
79828SOL     OW41315   0.941  10.776   4.797
79828SOL    HW141316   1.021  10.747   4.842
79828SOL    HW241317   0.957  10.756   4.705
79829SOL     OW41318   0.185   2.634   7.999
79829SOL    HW141319   0.094   2.659   8.020
79829SOL    HW241320   0.230   2.718   7.987
79830SOL     OW41321  13.384   0.029   4.518
79830SOL    HW141322  13.458   0.066   4.469
79830SOL    HW241323  13.326  14.866   4.451
79831SOL     OW41324  14.200   2.011   7.389
79831SOL    HW141325  14.155   2.003   7.473
79831SOL    HW241326  14.176   1.932   7.341
79832SOL     OW41327   0.207   2.624   3.378
79832SOL    HW141328   0.292   2.626   3.334
79832SOL    HW241329   0.228   2.632   3.471
79833SOL     OW41330   3.148   3.567   2.977
79833SOL    HW141331   3.066   3.611   2.956
79833SOL    HW241332   3.165   3.589   3.068
79834SOL     OW41333  11.935   1.771   9.091
79834SOL    HW141334  11.988   1.693   9.107
79834SOL    HW241335  11.989   1.824   9.032
79835SOL     OW41336   6.256  10.835   2.182
79835SOL    HW141337   6.273  10.745   2.157
79835SOL    HW241338   6.195  10.867   2.115
79836SOL     OW41339   9.724   7.726  12.139
79836SOL    HW141340   9.746   7.634  12.153
79836SOL    HW241341   9.654   7.725  12.073
79837SOL     OW41342   0.623   3.499   1.837
79837SOL    HW141343   0.648   3.451   1.758
79837SOL    HW241344   0.706   3.526   1.876
79838SOL     OW41345   0.377   0.101  13.768
79838SOL    HW141346   0.363   0.019  13.721
79838SOL    HW241347   0.361   0.079  13.860
79839SOL     OW41348   6.219   4.125   3.331
79839SOL    HW141349   6.283   4.158   3.269
79839SOL    HW241350   6.138   4.171   3.308
79840SOL     OW41351   5.562   7.545   3.160
79840SOL    HW141352   5.618   7.476   3.197
79840SOL    HW241353   5.476   7.530   3.200
79841SOL     OW41354   8.000   7.334   2.093
79841SOL    HW141355   7.989   7.420   2.133
79841SOL    HW241356   7.987   7.272   2.165
79842SOL     OW41357   8.539   7.334   2.475
79842SOL    HW141358   8.611   7.377   2.427
79842SOL    HW241359   8.524   7.253   2.427
79843SOL     OW41360   4.645   2.064   5.247
79843SOL    HW141361   4.552   2.046   5.230
79843SOL    HW241362   4.649   2.084   5.340
79844SOL     OW41363   5.247   2.155  10.863
79844SOL    HW141364   5.300   2.100  10.804
79844SOL    HW241365   5.262   2.118  10.950
79845SOL     OW41366   2.063  11.302  11.201
79845SOL    HW141367   2.147  11.323  11.160
79845SOL    HW241368   2.049  11.210  11.181
79846SOL     OW41369   1.204   5.746   1.907
79846SOL    HW141370   1.258   5.812   1.862
79846SOL    HW241371   1.114   5.776   1.895
79847SOL     OW41372   8.216   0.220   1.757
79847SOL    HW141373   8.206   0.314   1.770
79847SOL    HW241374   8.136   0.194   1.710
79848SOL     OW41375   7.812   0.416   7.722
79848SOL    HW141376   7.816   0.500   7.676
79848SOL    HW241377   7.727   0.379   7.698
79849SOL     OW41378   6.494   3.390   9.262
79849SOL    HW141379   6.508   3.455   9.330
79849SOL    HW241380   6.575   3.390   9.211
79850SOL     OW41381   1.776   5.089   1.490
79850SOL    HW141382   1.784   5.035   1.569
79850SOL    HW241383   1.685   5.119   1.492
79851SOL     OW41384   3.356   9.373  10.049
79851SOL    HW141385   3.402   9.323  10.116
79851SOL    HW241386   3.266   9.380  10.081
79852SOL     OW41387   0.252   4.333  10.622
79852SOL    HW141388   0.320   4.325  10.689
79852SOL    HW241389   0.200   4.409  10.648
79853SOL     OW41390   8.667   4.487   6.427
79853SOL    HW141391   8.628   4.400   6.437
79853SOL    HW241392   8.600   4.546   6.460
79854SOL     OW41393   4.369   5.248   8.050
79854SOL    HW141394   4.441   5.185   8.063
79854SOL    HW241395   4.358   5.251   7.955
79855SOL     OW41396   2.789   1.746   7.716
79855SOL    HW141397   2.842   1.757   7.637
79855SOL    HW241398   2.839   1.685   7.770
79856SOL     OW41399   9.589   5.117  13.986
79856SOL    HW141400   9.547   5.177  14.047
79856SOL    HW241401   9.538   5.036  13.991
79857SOL     OW41402   1.893   5.734   5.701
79857SOL    HW141403   1.914   5.650   5.741
79857SOL    HW241404   1.901   5.718   5.606
79858SOL     OW41405   0.033   6.104   2.650
79858SOL    HW141406   0.125   6.109   2.675
79858SOL    HW241407  14.863   6.175   2.700
79859SOL     OW41408   4.676   1.568   0.192
79859SOL    HW141409   4.652   1.601   0.106
79859SOL    HW241410   4.626   1.622   0.254
79860SOL     OW41411   2.098   6.723   3.807
79860SOL    HW141412   2.160   6.776   3.757
79860SOL    HW241413   2.137   6.719   3.895
79861SOL     OW41414   9.218   1.901   7.934
79861SOL    HW141415   9.172   1.979   7.902
79861SOL    HW241416   9.163   1.828   7.908
79862SOL     OW41417  11.422  13.490  14.753
79862SOL    HW141418  11.331  13.466  14.767
79862SOL    HW241419  11.470  13.408  14.759
79863SOL     OW41420  12.611   9.524   8.958
79863SOL    HW141421  12.527   9.558   8.927
79863SOL    HW241422  12.672   9.541   8.886
79864SOL     OW41423   9.100   8.357   4.258
79864SOL    HW141424   9.104   8.376   4.352
79864SOL    HW241425   9.009   8.377   4.234
79865SOL     OW41426   6.773  12.402   4.595
79865SOL    HW141427   6.720  12.351   4.656
79865SOL    HW241428   6.778  12.348   4.516
79866SOL     OW41429   3.565   1.141   4.897
79866SOL    HW141430   3.512   1.062   4.906
79866SOL    HW241431   3.654   1.110   4.884
79867SOL     OW41432   3.950  12.637   5.498
79867SOL    HW141433   3.946  12.610   5.406
79867SOL    HW241434   3.879  12.589   5.541
79868SOL     OW41435   4.929  12.716  11.003
79868SOL    HW141436   4.931  12.742  11.095
79868SOL    HW241437   4.964  12.792  10.956
79869SOL     OW41438   2.382  14.220   2.550
79869SOL    HW141439   2.406  14.309   2.525
79869SOL    HW241440   2.398  14.168   2.472
79870SOL     OW41441   5.071  12.011   1.585
79870SOL    HW141442   5.057  12.065   1.507
79870SOL    HW241443   5.147  11.958   1.564
79871SOL     OW41444   5.241   9.228   3.561
79871SOL    HW141445   5.166   9.185   3.520
79871SOL    HW241446   5.308   9.161   3.565
79872SOL     OW41447   8.498   3.327   6.062
79872SOL    HW141448   8.470   3.418   6.051
79872SOL    HW241449   8.594   3.331   6.058
79873SOL     OW41450   4.970   9.694   3.152
79873SOL    HW141451   5.039   9.727   3.095
79873SOL    HW241452   4.987   9.600   3.160
79874SOL     OW41453  13.584   1.469  10.081
79874SOL    HW141454  13.580   1.556  10.120
79874SOL    HW241455  13.566   1.483   9.988
79875SOL     OW41456   5.753   9.857   6.438
79875SOL    HW141457   5.729   9.825   6.525
79875SOL    HW241458   5.808   9.788   6.401
79876SOL     OW41459   6.198   6.684  11.880
79876SOL    HW141460   6.123   6.714  11.829
79876SOL    HW241461   6.224   6.602  11.838
79877SOL     OW41462   2.356  13.242   9.339
79877SOL    HW141463   2.352  13.326   9.293
79877SOL    HW241464   2.419  13.257   9.409
79878SOL     OW41465   2.294   2.963   6.878
79878SOL    HW141466   2.210   3.010   6.880
79878SOL    HW241467   2.281   2.894   6.814
79879SOL     OW41468   9.977   7.106   1.441
79879SOL    HW141469  10.065   7.116   1.405
79879SOL    HW241470   9.984   7.031   1.501
79880SOL     OW41471  10.921   0.776  13.266
79880SOL    HW141472  10.977   0.732  13.329
79880SOL    HW241473  10.853   0.711  13.245
79881SOL     OW41474   6.773   7.660   6.797
79881SOL    HW141475   6.852   7.714   6.806
79881SOL    HW241476   6.786   7.590   6.861
79882SOL     OW41477   1.198  11.272   4.686
79882SOL    HW141478   1.156  11.227   4.760
79882SOL    HW241479   1.131  11.271   4.618
79883SOL     OW41480   2.045  11.003   0.690
79883SOL    HW141481   2.027  11.093   0.720
79883SOL    HW241482   2.027  10.949   0.767
79884SOL     OW41483   6.022  13.238   0.510
79884SOL    HW141484   5.987  13.287   0.585
79884SOL    HW241485   5.951  13.239   0.446
79885SOL     OW41486   1.744   1.741   2.881
79885SOL    HW141487   1.660   1.695   2.883
79885SOL    HW241488   1.739   1.798   2.803
79886SOL     OW41489  14.832  10.884   5.255
79886SOL    HW141490  14.820  10.979   5.255
79886SOL    HW241491  14.819  10.858   5.163
79887SOL     OW41492  12.413   8.045  12.249
79887SOL    HW141493  12.420   8.104  12.174
79887SOL    HW241494  12.337   7.990  12.229
79888SOL     OW41495  14.415   8.579   6.021
79888SOL    HW141496  14.418   8.630   6.102
79888SOL    HW241497  14.349   8.512   6.038
79889SOL     OW41498   3.745  11.256   2.637
79889SOL    HW141499   3.719  11.231   2.548
79889SOL    HW241500   3.748  11.351   2.635
79890SOL     OW41501  14.613   4.079   5.024
79890SOL    HW141502  14.575   4.157   5.065
79890SOL    HW241503  14.644   4.110   4.939
79891SOL     OW41504   6.791  13.594   9.035
79891SOL    HW141505   6.870  13.610   9.086
79891SOL    HW241506   6.733  13.547   9.094
79892SOL     OW41507   3.077  12.434   0.043
79892SOL    HW141508   3.154  12.389   0.079
79892SOL    HW241509   3.005  12.372   0.055
79893SOL     OW41510   4.290   7.432  13.422
79893SOL    HW141511   4.370   7.482  13.407
79893SOL    HW241512   4.225   7.497  13.446
79894SOL     OW41513  14.159   9.294  11.691
79894SOL    HW141514  14.243   9.331  11.721
79894SOL    HW241515  14.126   9.360  11.629
79895SOL     OW41516  14.073   5.845  11.610
79895SOL    HW141517  13.990   5.869  11.570
79895SOL    HW241518  14.139   5.876  11.548
79896SOL     OW41519   1.854  12.339   9.579
79896SOL    HW141520   1.931  12.368   9.531
79896SOL    HW241521   1.866  12.372   9.668
79897SOL     OW41522   2.611  10.862  10.901
79897SOL    HW141523   2.632  10.769  10.907
79897SOL    HW241524   2.542  10.876  10.966
79898SOL     OW41525   8.536   6.649  11.191
79898SOL    HW141526   8.577   6.685  11.112
79898SOL    HW241527   8.581   6.566  11.205
79899SOL     OW41528   1.762   2.992   7.445
79899SOL    HW141529   1.717   2.908   7.450
79899SOL    HW241530   1.703   3.054   7.488
79900SOL     OW41531   0.294   5.597  11.037
79900SOL    HW141532   0.265   5.650  10.962
79900SOL    HW241533   0.228   5.615  11.105
79901SOL     OW41534  12.172   8.274   3.581
79901SOL    HW141535  12.265   8.292   3.568
79901SOL    HW241536  12.144   8.230   3.500
79902SOL     OW41537   0.893   2.256   6.358
79902SOL    HW141538   0.944   2.227   6.283
79902SOL    HW241539   0.954   2.250   6.432
79903SOL     OW41540   6.256  11.849   3.330
79903SOL    HW141541   6.331  11.793   3.313
79903SOL    HW241542   6.187  11.815   3.273
79904SOL     OW41543   9.913   1.780   2.513
79904SOL    HW141544   9.885   1.729   2.590
79904SOL    HW241545   9.960   1.855   2.550
79905SOL     OW41546   5.217   6.729   2.699
79905SOL    HW141547   5.276   6.796   2.733
79905SOL    HW241548   5.274   6.655   2.676
79906SOL     OW41549   4.137   8.103   6.133
79906SOL    HW141550   4.162   8.179   6.080
79906SOL    HW241551   4.171   8.028   6.085
79907SOL     OW41552   7.857   3.789   6.482
79907SOL    HW141553   7.933   3.763   6.534
79907SOL    HW241554   7.888   3.788   6.391
79908SOL     OW41555   5.378  10.936  10.434
79908SOL    HW141556   5.459  10.985  10.447
79908SOL    HW241557   5.357  10.902  10.521
79909SOL     OW41558   7.309   6.702   5.484
79909SOL    HW141559   7.366   6.635   5.447
79909SOL    HW241560   7.359   6.783   5.476
79910SOL     OW41561   2.207   2.818   2.428
79910SOL    HW141562   2.195   2.781   2.341
79910SOL    HW241563   2.208   2.743   2.487
79911SOL     OW41564   6.663  14.329   1.476
79911SOL    HW141565   6.612  14.250   1.459
79911SOL    HW241566   6.751  14.296   1.496
79912SOL     OW41567   8.643   9.304  12.012
79912SOL    HW141568   8.728   9.260  12.008
79912SOL    HW241569   8.581   9.234  12.032
79913SOL     OW41570   6.314   7.809  12.873
79913SOL    HW141571   6.352   7.877  12.929
79913SOL    HW241572   6.389   7.771  12.828
79914SOL     OW41573   3.696  13.771   2.622
79914SOL    HW141574   3.699  13.742   2.531
79914SOL    HW241575   3.786  13.794   2.643
79915SOL     OW41576   2.817   9.270   9.251
79915SOL    HW141577   2.725   9.297   9.255
79915SOL    HW241578   2.866   9.351   9.262
79916SOL     OW41579   9.106   8.167   0.313
79916SOL    HW141580   9.100   8.193   0.221
79916SOL    HW241581   9.024   8.121   0.331
79917SOL     OW41582  12.127   2.003   2.541
79917SOL    HW141583  12.214   2.029   2.511
79917SOL    HW241584  12.135   1.995   2.636
79918SOL     OW41585   8.082  12.083   5.204
79918SOL    HW141586   8.068  12.177   5.194
79918SOL    HW241587   8.035  12.058   5.283
79919SOL     OW41588   0.512   5.573   2.672
79919SOL    HW141589   0.477   5.640   2.730
79919SOL    HW241590   0.571   5.621   2.613
79920SOL     OW41591   9.690   6.645  11.185
79920SOL    HW141592   9.625   6.575  11.196
79920SOL    HW241593   9.648   6.722  11.223
79921SOL     OW41594   4.145  12.569   8.168
79921SOL    HW141595   4.110  12.656   8.153
79921SOL    HW241596   4.099  12.537   8.246
79922SOL     OW41597   6.675   7.622   5.478
79922SOL    HW141598   6.642   7.653   5.563
79922SOL    HW241599   6.770   7.624   5.487
79923SOL     OW41600   5.840  10.336   7.047
79923SOL    HW141601   5.751  10.318   7.016
79923SOL    HW241602   5.861  10.264   7.106
79924SOL     OW41603   2.925   9.097  12.930
79924SOL    HW141604   2.931   9.112  12.836
79924SOL    HW241605   3.012   9.120  12.963
79925SOL     OW41606   0.034  10.288   9.092
79925SOL    HW141607   0.086  10.360   9.126
79925SOL    HW241608   0.088  10.210   9.108
79926SOL     OW41609   5.735   8.847   4.818
79926SOL    HW141610   5.736   8.871   4.911
79926SOL    HW241611   5.787   8.915   4.775
79927SOL     OW41612   9.661   0.459  13.131
79927SOL    HW141613   9.580   0.492  13.169
79927SOL    HW241614   9.637   0.375  13.093
79928SOL     OW41615  11.217  13.424  11.695
79928SOL    HW141616  11.276  13.481  11.646
79928SOL    HW241617  11.234  13.445  11.787
79929SOL     OW41618   1.823  14.355   4.066
79929SOL    HW141619   1.751  14.381   4.008
79929SOL    HW241620   1.803  14.265   4.091
79930SOL     OW41621  10.141   1.460   3.994
79930SOL    HW141622  10.143   1.382   3.938
79930SOL    HW241623  10.224   1.459   4.041
79931SOL     OW41624   3.080  10.624   9.737
79931SOL    HW141625   3.103  10.564   9.807
79931SOL    HW241626   3.024  10.689   9.779
79932SOL     OW41627  14.138  12.934  10.763
79932SOL    HW141628  14.094  12.987  10.697
79932SOL    HW241629  14.227  12.969  10.766
79933SOL     OW41630  10.165   6.212   9.045
79933SOL    HW141631  10.108   6.289   9.041
79933SOL    HW241632  10.239   6.233   8.988
79934SOL     OW41633  13.363  13.839   5.463
79934SOL    HW141634  13.359  13.905   5.533
79934SOL    HW241635  13.289  13.860   5.406
79935SOL     OW41636  12.216   0.348   3.056
79935SOL    HW141637  12.241   0.378   2.969
79935SOL    HW241638  12.123   0.325   3.048
79936SOL     OW41639   6.854   8.352   5.403
79936SOL    HW141640   6.835   8.263   5.374
79936SOL    HW241641   6.918   8.385   5.340
79937SOL     OW41642   9.501   4.802   0.783
79937SOL    HW141643   9.418   4.765   0.755
79937SOL    HW241644   9.565   4.732   0.767
79938SOL     OW41645  11.063  12.613  12.364
79938SOL    HW141646  10.997  12.602  12.296
79938SOL    HW241647  11.033  12.689  12.415
79939SOL     OW41648   3.631   2.025   5.994
79939SOL    HW141649   3.563   2.067   6.046
79939SOL    HW241650   3.638   1.937   6.030
79940SOL     OW41651  14.051  12.063   5.248
79940SOL    HW141652  14.125  12.003   5.249
79940SOL    HW241653  14.000  12.040   5.326
79941SOL     OW41654   6.601   9.488   3.227
79941SOL    HW141655   6.681   9.445   3.258
79941SOL    HW241656   6.600   9.572   3.273
79942SOL     OW41657   2.984   9.823   8.098
79942SOL    HW141658   3.013   9.826   8.007
79942SOL    HW241659   2.993   9.731   8.123
79943SOL     OW41660   3.984   4.584   6.945
79943SOL    HW141661   4.026   4.507   6.908
79943SOL    HW241662   4.046   4.617   7.010
79944SOL     OW41663  13.754   0.984   7.320
79944SOL    HW141664  13.732   1.042   7.247
79944SOL    HW241665  13.671   0.972   7.366
79945SOL     OW41666  14.815  13.613  14.423
79945SOL    HW141667  14.746  13.676  14.442
79945SOL    HW241668  14.815  13.606  14.327
79946SOL     OW41669   9.550  13.772   4.096
79946SOL    HW141670   9.499  13.695   4.123
79946SOL    HW241671   9.638  13.756   4.131
79947SOL     OW41672   6.490  12.142  12.461
79947SOL    HW141673   6.466  12.066  12.407
79947SOL    HW241674   6.418  12.203  12.449
79948SOL     OW41675  10.137   3.786  11.488
79948SOL    HW141676  10.199   3.854  11.516
79948SOL    HW241677  10.074   3.780  11.560
79949SOL     OW41678   5.858   7.728   4.320
79949SOL    HW141679   5.769   7.704   4.294
79949SOL    HW241680   5.848   7.811   4.367
79950SOL     OW41681   4.191  12.507   5.605
79950SOL    HW141682   4.112  12.560   5.594
79950SOL    HW241683   4.170  12.424   5.563
79951SOL     OW41684  10.164   2.476  14.856
79951SOL    HW141685  10.216   2.551  14.828
79951SOL    HW241686  10.168   2.415  14.783
79952SOL     OW41687  14.074   2.455   8.576
79952SOL    HW141688  14.075   2.538   8.623
79952SOL    HW241689  14.125   2.396   8.631
79953SOL     OW41690   8.671  14.116   4.581
79953SOL    HW141691   8.758  14.122   4.540
79953SOL    HW241692   8.632  14.038   4.543
79954SOL     OW41693  14.077   6.009  13.922
79954SOL    HW141694  13.983   6.017  13.902
79954SOL    HW241695  14.117   6.080  13.872
79955SOL     OW41696   7.162   7.411   2.264
79955SOL    HW141697   7.187   7.333   2.313
79955SOL    HW241698   7.120   7.377   2.185
79956SOL     OW41699   9.836   8.599  11.123
79956SOL    HW141700   9.916   8.549  11.106
79956SOL    HW241701   9.839   8.619  11.216
79957SOL     OW41702  13.142  11.531   9.069
79957SOL    HW141703  13.204  11.467   9.104
79957SOL    HW241704  13.154  11.609   9.123
79958SOL     OW41705  13.501   3.681  14.357
79958SOL    HW141706  13.450   3.760  14.337
79958SOL    HW241707  13.446   3.609  14.327
79959SOL     OW41708   8.516  11.747   3.142
79959SOL    HW141709   8.500  11.718   3.232
79959SOL    HW241710   8.473  11.681   3.088
79960SOL     OW41711   1.062  12.855   2.684
79960SOL    HW141712   1.006  12.928   2.658
79960SOL    HW241713   1.060  12.796   2.609
79961SOL     OW41714   7.346   1.375   0.780
79961SOL    HW141715   7.356   1.310   0.710
79961SOL    HW241716   7.257   1.407   0.771
79962SOL     OW41717   8.822   6.407  10.565
79962SOL    HW141718   8.827   6.313  10.545
79962SOL    HW241719   8.741   6.436  10.524
79963SOL     OW41720  10.121  12.203   7.214
79963SOL    HW141721  10.097  12.163   7.130
79963SOL    HW241722  10.061  12.163   7.277
79964SOL     OW41723  12.061  10.033   3.214
79964SOL    HW141724  12.154  10.011   3.213
79964SOL    HW241725  12.018   9.956   3.179
79965SOL     OW41726   9.521   8.850   8.406
79965SOL    HW141727   9.573   8.928   8.382
79965SOL    HW241728   9.551   8.782   8.346
79966SOL     OW41729   9.678   6.065  13.187
79966SOL    HW141730   9.763   6.061  13.143
79966SOL    HW241731   9.692   6.017  13.269
79967SOL     OW41732  12.276   6.887   1.995
79967SOL    HW141733  12.324   6.804   1.988
79967SOL    HW241734  12.321   6.946   1.934
79968SOL     OW41735   0.102  12.145   7.370
79968SOL    HW141736   0.110  12.138   7.465
79968SOL    HW241737   0.044  12.072   7.346
79969SOL     OW41738  11.119   8.996   5.514
79969SOL    HW141739  11.176   8.960   5.447
79969SOL    HW241740  11.141   9.090   5.515
79970SOL     OW41741   7.113   5.367  13.696
79970SOL    HW141742   7.144   5.277  13.710
79970SOL    HW241743   7.053   5.383  13.769
79971SOL     OW41744   2.424   5.835  12.160
79971SOL    HW141745   2.510   5.803  12.130
79971SOL    HW241746   2.435   5.930  12.165
79972SOL     OW41747   5.806   6.128   7.935
79972SOL    HW141748   5.896   6.115   7.965
79972SOL    HW241749   5.755   6.137   8.016
79973SOL     OW41750  14.296   2.715   1.280
79973SOL    HW141751  14.271   2.652   1.213
79973SOL    HW241752  14.213   2.741   1.321
79974SOL     OW41753   4.440  14.297   4.160
79974SOL    HW141754   4.480  14.215   4.191
79974SOL    HW241755   4.442  14.290   4.065
79975SOL     OW41756   0.709  12.650  13.894
79975SOL    HW141757   0.619  12.620  13.909
79975SOL    HW241758   0.764  12.577  13.922
79976SOL     OW41759   5.464   0.262   5.553
79976SOL    HW141760   5.542   0.243   5.604
79976SOL    HW241761   5.460   0.193   5.487
79977SOL     OW41762   5.340   2.854   3.322
79977SOL    HW141763   5.352   2.900   3.405
79977SOL    HW241764   5.309   2.922   3.261
79978SOL     OW41765   1.954   2.794   1.376
79978SOL    HW141766   2.034   2.836   1.407
79978SOL    HW241767   1.907   2.862   1.328
79979SOL     OW41768   3.130   1.764   7.916
79979SOL    HW141769   3.179   1.846   7.910
79979SOL    HW241770   3.156   1.715   7.838
79980SOL     OW41771   3.683   3.014  10.959
79980SOL    HW141772   3.740   2.982  11.029
79980SOL    HW241773   3.604   3.045  11.004
79981SOL     OW41774   3.338  12.449   0.296
79981SOL    HW141775   3.317  12.448   0.203
79981SOL    HW241776   3.392  12.371   0.310
79982SOL     OW41777   7.358   9.752   3.863
79982SOL    HW141778   7.346   9.811   3.937
79982SOL    HW241779   7.400   9.675   3.900
79983SOL     OW41780  12.369  13.768  11.702
79983SOL    HW141781  12.334  13.694  11.752
79983SOL    HW241782  12.327  13.762  11.616
79984SOL     OW41783   5.243   9.224   4.649
79984SOL    HW141784   5.300   9.269   4.586
79984SOL    HW241785   5.303   9.193   4.717
79985SOL     OW41786   6.990   4.757   1.306
79985SOL    HW141787   6.994   4.661   1.301
79985SOL    HW241788   6.897   4.776   1.318
79986SOL     OW41789   3.894   6.861  12.471
79986SOL    HW141790   3.857   6.773  12.473
79986SOL    HW241791   3.818   6.919  12.465
79987SOL     OW41792   6.652   1.941   7.226
79987SOL    HW141793   6.624   1.855   7.193
79987SOL    HW241794   6.597   1.956   7.303
79988SOL     OW41795   4.448   9.821  11.872
79988SOL    HW141796   4.430   9.728  11.889
79988SOL    HW241797   4.362   9.859  11.851
79989SOL     OW41798   8.927   2.991  10.358
79989SOL    HW141799   9.016   2.959  10.343
79989SOL    HW241800   8.935   3.050  10.433
79990SOL     OW41801   2.759   6.549   5.127
79990SOL    HW141802   2.802   6.465   5.143
79990SOL    HW241803   2.749   6.587   5.214
79991SOL     OW41804   4.013   5.880   2.353
79991SOL    HW141805   3.941   5.817   2.349
79991SOL    HW241806   4.053   5.877   2.267
79992SOL     OW41807   5.328  10.254  10.327
79992SOL    HW141808   5.405  10.246  10.384
79992SOL    HW241809   5.299  10.344  10.340
79993SOL     OW41810   9.673   6.345   7.677
79993SOL    HW141811   9.642   6.256   7.693
79993SOL    HW241812   9.725   6.339   7.597
79994SOL     OW41813  11.017  11.339   0.224
79994SOL    HW141814  11.042  11.431   0.232
79994SOL    HW241815  11.007  11.324   0.130
79995SOL     OW41816   5.493  11.122   7.527
79995SOL    HW141817   5.478  11.214   7.505
79995SOL    HW241818   5.471  11.116   7.620
79996SOL     OW41819  13.920   3.718   7.434
79996SOL    HW141820  13.849   3.658   7.414
79996SOL    HW241821  13.933   3.709   7.529
79997SOL     OW41822   6.533   8.262   1.020
79997SOL    HW141823   6.442   8.289   1.011
79997SOL    HW241824   6.583   8.343   1.012
79998SOL     OW41825   4.905  14.821   4.191
79998SOL    HW141826   4.888   0.042   4.181
79998SOL    HW241827   4.900  14.806   4.286
79999SOL     OW41828   7.173   5.550   6.297
79999SOL    HW141829   7.135   5.619   6.351
79999SOL    HW241830   7.169   5.472   6.351
80000SOL     OW41831  11.178   0.881  14.588
80000SOL    HW141832  11.254   0.841  14.630
80000SOL    HW241833  11.104   0.828  14.618
80001SOL     OW41834   3.824  11.279   1.236
80001SOL    HW141835   3.822  11.276   1.140
80001SOL    HW241836   3.831  11.188   1.263
80002SOL     OW41837  10.051   4.939   3.372
80002SOL    HW141838   9.972   4.902   3.331
80002SOL    HW241839  10.031   5.032   3.382
80003SOL     OW41840  12.841  10.422   1.968
80003SOL    HW141841  12.830  10.387   2.056
80003SOL    HW241842  12.861  10.515   1.981
80004SOL     OW41843   4.091  13.065   5.341
80004SOL    HW141844   4.025  13.018   5.290
80004SOL    HW241845   4.101  13.013   5.421
80005SOL     OW41846   7.051   8.071  13.396
80005SOL    HW141847   7.058   7.986  13.353
80005SOL    HW241848   7.133   8.115  13.374
80006SOL     OW41849   5.592   1.639   2.269
80006SOL    HW141850   5.518   1.635   2.330
80006SOL    HW241851   5.663   1.676   2.322
80007SOL     OW41852   5.006   1.064   9.899
80007SOL    HW141853   4.912   1.045   9.903
80007SOL    HW241854   5.018   1.139   9.957
80008SOL     OW41855   9.746   7.508   2.669
80008SOL    HW141856   9.788   7.445   2.728
80008SOL    HW241857   9.797   7.502   2.588
80009SOL     OW41858  12.066  14.208  12.467
80009SOL    HW141859  12.028  14.161  12.392
80009SOL    HW241860  12.074  14.298  12.437
80010SOL     OW41861   1.841   1.624   3.094
80010SOL    HW141862   1.807   1.672   3.018
80010SOL    HW241863   1.765   1.611   3.151
80011SOL     OW41864   2.922  11.893  12.171
80011SOL    HW141865   2.935  11.839  12.093
80011SOL    HW241866   2.962  11.977  12.148
80012SOL     OW41867   5.794   8.669  12.717
80012SOL    HW141868   5.782   8.764  12.713
80012SOL    HW241869   5.752   8.642  12.798
80013SOL     OW41870   9.296   6.144   3.008
80013SOL    HW141871   9.330   6.075   2.951
80013SOL    HW241872   9.218   6.177   2.964
80014SOL     OW41873  13.856   3.763   9.429
80014SOL    HW141874  13.770   3.786   9.465
80014SOL    HW241875  13.857   3.804   9.343
80015SOL     OW41876   5.864  14.317  12.602
80015SOL    HW141877   5.849  14.303  12.696
80015SOL    HW241878   5.957  14.340  12.597
80016SOL     OW41879  13.814   8.333  14.804
80016SOL    HW141880  13.803   8.393   0.005
80016SOL    HW241881  13.824   8.247  14.845
80017SOL     OW41882   5.992  10.696  14.692
80017SOL    HW141883   6.039  10.680  14.610
80017SOL    HW241884   6.042  10.765  14.736
80018SOL     OW41885   5.616  12.225   5.762
80018SOL    HW141886   5.524  12.208   5.780
80018SOL    HW241887   5.620  12.231   5.666
80019SOL     OW41888   6.709   3.293   1.135
80019SOL    HW141889   6.633   3.296   1.194
80019SOL    HW241890   6.729   3.385   1.118
80020SOL     OW41891   3.948  11.007   0.511
80020SOL    HW141892   3.953  10.913   0.529
80020SOL    HW241893   4.039  11.038   0.518
80021SOL     OW41894  14.104   8.046  14.584
80021SOL    HW141895  14.093   7.954  14.562
80021SOL    HW241896  14.167   8.046  14.657
80022SOL     OW41897  13.712  11.762   4.981
80022SOL    HW141898  13.753  11.840   5.020
80022SOL    HW241899  13.623  11.763   5.016
80023SOL     OW41900   6.401   3.880   4.989
80023SOL    HW141901   6.457   3.931   5.047
80023SOL    HW241902   6.411   3.790   5.019
80024SOL     OW41903   5.563   2.465  11.735
80024SOL    HW141904   5.575   2.425  11.648
80024SOL    HW241905   5.640   2.438  11.785
80025SOL     OW41906   7.847   3.209  14.553
80025SOL    HW141907   7.780   3.144  14.570
80025SOL    HW241908   7.855   3.211  14.458
80026SOL     OW41909   3.991   1.921  13.865
80026SOL    HW141910   3.985   2.011  13.896
80026SOL    HW241911   3.900   1.894  13.853
80027SOL     OW41912   1.011   2.748   1.477
80027SOL    HW141913   0.959   2.708   1.547
80027SOL    HW241914   0.995   2.692   1.401
80028SOL     OW41915  12.841  12.417   5.087
80028SOL    HW141916  12.870  12.436   4.998
80028SOL    HW241917  12.885  12.483   5.141
80029SOL     OW41918   4.610  13.513   5.889
80029SOL    HW141919   4.607  13.557   5.805
80029SOL    HW241920   4.601  13.583   5.953
80030SOL     OW41921   8.639  11.710   6.407
80030SOL    HW141922   8.652  11.640   6.343
80030SOL    HW241923   8.699  11.780   6.379
80031SOL     OW41924   7.230   0.135   7.774
80031SOL    HW141925   7.176   0.206   7.738
80031SOL    HW241926   7.284   0.106   7.700
80032SOL     OW41927   6.166  13.840   9.081
80032SOL    HW141928   6.134  13.899   9.149
80032SOL    HW241929   6.241  13.796   9.121
80033SOL     OW41930  12.565   0.083  14.353
80033SOL    HW141931  12.505   0.157  14.348
80033SOL    HW241932  12.536   0.024  14.284
80034SOL     OW41933  11.153  14.092  12.657
80034SOL    HW141934  11.099  14.171  12.655
80034SOL    HW241935  11.091  14.020  12.647
80035SOL     OW41936   9.455  12.695   2.245
80035SOL    HW141937   9.435  12.784   2.273
80035SOL    HW241938   9.382  12.643   2.278
80036SOL     OW41939  11.116   9.963   8.227
80036SOL    HW141940  11.123   9.924   8.140
80036SOL    HW241941  11.044   9.914   8.269
80037SOL     OW41942   4.751   1.185   3.740
80037SOL    HW141943   4.746   1.163   3.833
80037SOL    HW241944   4.840   1.220   3.728
80038SOL     OW41945   3.552  11.027   0.750
80038SOL    HW141946   3.576  11.046   0.841
80038SOL    HW241947   3.612  11.079   0.698
80039SOL     OW41948   9.105   0.984   8.960
80039SOL    HW141949   9.024   1.015   8.921
80039SOL    HW241950   9.095   0.889   8.966
80040SOL     OW41951   3.435   7.007  13.059
80040SOL    HW141952   3.482   6.924  13.054
80040SOL    HW241953   3.499   7.073  13.031
80041SOL     OW41954  12.989   3.809   2.812
80041SOL    HW141955  12.907   3.810   2.763
80041SOL    HW241956  13.040   3.882   2.776
80042SOL     OW41957  13.895  12.764   7.718
80042SOL    HW141958  13.887  12.697   7.651
80042SOL    HW241959  13.809  12.805   7.723
80043SOL     OW41960   5.070   9.851   1.558
80043SOL    HW141961   5.110   9.789   1.497
80043SOL    HW241962   5.135   9.861   1.628
80044SOL     OW41963   8.775   4.691   6.277
80044SOL    HW141964   8.865   4.697   6.243
80044SOL    HW241965   8.773   4.606   6.323
80045SOL     OW41966   7.352  14.639   5.542
80045SOL    HW141967   7.370  14.577   5.613
80045SOL    HW241968   7.380  14.593   5.463
80046SOL     OW41969   5.975   5.913   8.047
80046SOL    HW141970   5.894   5.939   8.090
80046SOL    HW241971   5.997   5.828   8.084
80047SOL     OW41972  14.406  11.893   0.689
80047SOL    HW141973  14.489  11.856   0.722
80047SOL    HW241974  14.374  11.948   0.761
80048SOL     OW41975   9.321   7.795   3.591
80048SOL    HW141976   9.237   7.816   3.550
80048SOL    HW241977   9.299   7.774   3.682
80049SOL     OW41978  11.241   9.857  12.546
80049SOL    HW141979  11.242   9.785  12.608
80049SOL    HW241980  11.253   9.816  12.460
80050SOL     OW41981   7.955   3.201   2.297
80050SOL    HW141982   7.977   3.241   2.382
80050SOL    HW241983   8.040   3.179   2.258
80051SOL     OW41984   7.595  10.355  11.970
80051SOL    HW141985   7.501  10.339  11.968
80051SOL    HW241986   7.606  10.429  12.030
80052SOL     OW41987  10.209   1.904  12.709
80052SOL    HW141988  10.203   1.812  12.683
80052SOL    HW241989  10.119   1.935  12.707
80053SOL     OW41990   5.500   4.358   5.615
80053SOL    HW141991   5.590   4.342   5.586
80053SOL    HW241992   5.489   4.453   5.607
80054SOL     OW41993   2.314   2.434   3.269
80054SOL    HW141994   2.260   2.438   3.191
80054SOL    HW241995   2.374   2.507   3.261
80055SOL     OW41996  12.812   6.318   0.315
80055SOL    HW141997  12.822   6.383   0.384
80055SOL    HW241998  12.773   6.366   0.242
80056SOL     OW41999   7.428  12.572  12.761
80056SOL    HW142000   7.465  12.627  12.692
80056SOL    HW242001   7.473  12.600  12.840
80057SOL     OW42002   0.228   0.228   6.710
80057SOL    HW142003   0.218   0.138   6.681
80057SOL    HW242004   0.199   0.281   6.636
80058SOL     OW42005   7.109  10.214   1.425
80058SOL    HW142006   7.023  10.244   1.454
80058SOL    HW242007   7.158  10.200   1.506
80059SOL     OW42008  13.580   8.517   2.861
80059SOL    HW142009  13.635   8.564   2.925
80059SOL    HW242010  13.639   8.453   2.822
80060SOL     OW42011  14.373   7.139  11.970
80060SOL    HW142012  14.325   7.140  12.053
80060SOL    HW242013  14.311   7.175  11.907
80061SOL     OW42014   8.058   9.557   3.879
80061SOL    HW142015   8.012   9.510   3.809
80061SOL    HW242016   7.991   9.615   3.917
80062SOL     OW42017   2.244   8.166  13.233
80062SOL    HW142018   2.326   8.205  13.263
80062SOL    HW242019   2.200   8.138  13.313
80063SOL     OW42020   2.984   6.038   5.952
80063SOL    HW142021   2.891   6.031   5.972
80063SOL    HW242022   3.028   6.025   6.035
80064SOL     OW42023   4.443   4.218   6.523
80064SOL    HW142024   4.528   4.248   6.555
80064SOL    HW242025   4.419   4.146   6.582
80065SOL     OW42026   1.154   0.793  12.641
80065SOL    HW142027   1.190   0.861  12.699
80065SOL    HW242028   1.060   0.811  12.638
80066SOL     OW42029   4.144  14.397   4.117
80066SOL    HW142030   4.211  14.329   4.111
80066SOL    HW242031   4.191  14.479   4.102
80067SOL     OW42032  11.293   3.166   6.560
80067SOL    HW142033  11.332   3.124   6.483
80067SOL    HW242034  11.341   3.248   6.569
80068SOL     OW42035  12.840   3.469   9.206
80068SOL    HW142036  12.832   3.431   9.118
80068SOL    HW242037  12.797   3.554   9.199
80069SOL     OW42038   7.394   4.985   4.346
80069SOL    HW142039   7.383   4.912   4.406
80069SOL    HW242040   7.480   5.022   4.367
80070SOL     OW42041  12.571  14.017  10.089
80070SOL    HW142042  12.620  13.939  10.114
80070SOL    HW242043  12.500  13.984  10.035
80071SOL     OW42044   9.299  12.001   4.752
80071SOL    HW142045   9.247  12.020   4.674
80071SOL    HW242046   9.390  12.011   4.724
80072SOL     OW42047  12.781   9.446   5.035
80072SOL    HW142048  12.755   9.520   4.981
80072SOL    HW242049  12.710   9.383   5.024
80073SOL     OW42050   0.729   3.465   7.887
80073SOL    HW142051   0.822   3.458   7.868
80073SOL    HW242052   0.716   3.409   7.964
80074SOL     OW42053   0.985   3.143   8.692
80074SOL    HW142054   1.064   3.173   8.646
80074SOL    HW242055   0.913   3.167   8.634
80075SOL     OW42056   0.662   6.474   6.651
80075SOL    HW142057   0.705   6.539   6.596
80075SOL    HW242058   0.619   6.415   6.589
80076SOL     OW42059  10.083   6.390  14.087
80076SOL    HW142060  10.120   6.450  14.151
80076SOL    HW242061  10.055   6.314  14.138
80077SOL     OW42062   2.715  10.915  14.122
80077SOL    HW142063   2.732  11.005  14.149
80077SOL    HW242064   2.802  10.880  14.102
80078SOL     OW42065  13.183  11.055   4.161
80078SOL    HW142066  13.266  11.070   4.206
80078SOL    HW242067  13.146  10.978   4.206
80079SOL     OW42068   7.626  10.891   1.142
80079SOL    HW142069   7.577  10.937   1.210
80079SOL    HW242070   7.632  10.801   1.173
80080SOL     OW42071   4.061   7.870  11.331
80080SOL    HW142072   4.018   7.891  11.247
80080SOL    HW242073   4.109   7.789  11.313
80081SOL     OW42074  10.836   2.591  14.726
80081SOL    HW142075  10.743   2.605  14.744
80081SOL    HW242076  10.849   2.497  14.736
80082SOL     OW42077   4.856   1.805   8.706
80082SOL    HW142078   4.840   1.727   8.653
80082SOL    HW242079   4.887   1.771   8.790
80083SOL     OW42080   3.497   7.569   6.456
80083SOL    HW142081   3.460   7.646   6.413
80083SOL    HW242082   3.585   7.561   6.418
80084SOL     OW42083   0.222   2.175   6.169
80084SOL    HW142084   0.233   2.254   6.116
80084SOL    HW242085   0.273   2.108   6.125
80085SOL     OW42086  12.695   6.634   9.752
80085SOL    HW142087  12.646   6.557   9.723
80085SOL    HW242088  12.637   6.708   9.732
80086SOL     OW42089   4.599   5.933  12.042
80086SOL    HW142090   4.570   6.008  11.990
80086SOL    HW242091   4.679   5.903  11.998
80087SOL     OW42092  10.724   2.925  10.352
80087SOL    HW142093  10.801   2.885  10.392
80087SOL    HW242094  10.651   2.868  10.378
80088SOL     OW42095   7.589  14.490   0.781
80088SOL    HW142096   7.502  14.482   0.820
80088SOL    HW242097   7.637  14.547   0.841
80089SOL     OW42098   1.729   1.622   4.175
80089SOL    HW142099   1.801   1.613   4.113
80089SOL    HW242100   1.654   1.649   4.121
80090SOL     OW42101   5.773  14.840   4.979
80090SOL    HW142102   5.859  14.816   5.014
80090SOL    HW242103   5.722  14.759   4.984
80091SOL     OW42104   1.086   6.761  10.433
80091SOL    HW142105   1.009   6.789  10.482
80091SOL    HW242106   1.062   6.774  10.341
80092SOL     OW42107  13.304  11.327   0.604
80092SOL    HW142108  13.258  11.297   0.526
80092SOL    HW242109  13.242  11.385   0.648
80093SOL     OW42110   9.128  10.265   4.531
80093SOL    HW142111   9.055  10.202   4.537
80093SOL    HW242112   9.139  10.297   4.621
80094SOL     OW42113   0.346  12.927   3.535
80094SOL    HW142114   0.320  12.879   3.456
80094SOL    HW242115   0.332  12.863   3.606
80095SOL     OW42116  10.909   8.498   8.584
80095SOL    HW142117  10.817   8.499   8.611
80095SOL    HW242118  10.935   8.406   8.591
80096SOL     OW42119   1.391   8.100  11.999
80096SOL    HW142120   1.314   8.113  11.944
80096SOL    HW242121   1.456   8.059  11.941
80097SOL     OW42122   0.815  11.782   1.238
80097SOL    HW142123   0.726  11.811   1.258
80097SOL    HW242124   0.809  11.747   1.149
80098SOL     OW42125   2.026   6.936   9.786
80098SOL    HW142126   2.104   6.919   9.838
80098SOL    HW242127   2.000   6.851   9.752
80099SOL     OW42128   9.539  13.289   9.758
80099SOL    HW142129   9.534  13.304   9.852
80099SOL    HW242130   9.631  13.306   9.736
80100SOL     OW42131  12.416   1.038   4.320
80100SOL    HW142132  12.405   0.999   4.407
80100SOL    HW242133  12.344   1.000   4.269
80101SOL     OW42134   8.742   9.338  10.277
80101SOL    HW142135   8.690   9.267  10.316
80101SOL    HW242136   8.677   9.403  10.251
80102SOL     OW42137   4.331   5.961  12.187
80102SOL    HW142138   4.358   5.874  12.158
80102SOL    HW242139   4.402   6.019  12.158
80103SOL     OW42140   6.604   4.882   1.047
80103SOL    HW142141   6.526   4.895   1.102
80103SOL    HW242142   6.625   4.790   1.057
80104SOL     OW42143   2.639  12.823  13.811
80104SOL    HW142144   2.712  12.845  13.752
80104SOL    HW242145   2.621  12.731  13.793
80105SOL     OW42146  11.457   4.274  14.388
80105SOL    HW142147  11.413   4.264  14.472
80105SOL    HW242148  11.390   4.254  14.322
80106SOL     OW42149   3.893   6.366   2.839
80106SOL    HW142150   3.934   6.419   2.907
80106SOL    HW242151   3.906   6.275   2.868
80107SOL     OW42152  14.529   2.790   3.224
80107SOL    HW142153  14.612   2.761   3.263
80107SOL    HW242154  14.477   2.710   3.217
80108SOL     OW42155  14.667  10.743   9.329
80108SOL    HW142156  14.694  10.834   9.340
80108SOL    HW242157  14.663  10.730   9.234
80109SOL     OW42158  14.106   1.826   3.324
80109SOL    HW142159  14.099   1.821   3.420
80109SOL    HW242160  14.160   1.751   3.300
80110SOL     OW42161   3.369  13.972  14.353
80110SOL    HW142162   3.415  13.957  14.436
80110SOL    HW242163   3.329  13.887  14.332
80111SOL     OW42164   7.807  14.539  14.855
80111SOL    HW142165   7.850  14.608   0.034
80111SOL    HW242166   7.782  14.582  14.773
80112SOL     OW42167   7.944  13.863   6.485
80112SOL    HW142168   7.979  13.785   6.528
80112SOL    HW242169   7.858  13.876   6.525
80113SOL     OW42170   1.708   9.016   8.313
80113SOL    HW142171   1.687   9.009   8.219
80113SOL    HW242172   1.776   9.083   8.317
80114SOL     OW42173  10.328   8.599  14.341
80114SOL    HW142174  10.407   8.594  14.394
80114SOL    HW242175  10.296   8.509  14.336
80115SOL     OW42176   2.167   2.717   9.558
80115SOL    HW142177   2.172   2.621   9.548
80115SOL    HW242178   2.105   2.730   9.630
80116SOL     OW42179  11.460   3.397   3.867
80116SOL    HW142180  11.494   3.376   3.954
80116SOL    HW242181  11.368   3.418   3.882
80117SOL     OW42182   5.161   4.824   6.170
80117SOL    HW142183   5.190   4.733   6.159
80117SOL    HW242184   5.242   4.875   6.164
80118SOL     OW42185  10.966   7.070  13.891
80118SOL    HW142186  10.887   7.122  13.906
80118SOL    HW242187  10.945   6.984  13.928
80119SOL     OW42188   2.992  13.552  13.592
80119SOL    HW142189   2.942  13.630  13.570
80119SOL    HW242190   2.968  13.488  13.525
80120SOL     OW42191  13.679   2.641   7.001
80120SOL    HW142192  13.592   2.677   7.016
80120SOL    HW242193  13.694   2.653   6.907
80121SOL     OW42194  10.627  13.508  12.173
80121SOL    HW142195  10.553  13.449  12.165
80121SOL    HW242196  10.639  13.545  12.085
80122SOL     OW42197  11.821   4.314  12.397
80122SOL    HW142198  11.818   4.366  12.317
80122SOL    HW242199  11.805   4.377  12.468
80123SOL     OW42200   3.701   9.033  10.750
80123SOL    HW142201   3.727   8.941  10.750
80123SOL    HW242202   3.747   9.070  10.826
80124SOL     OW42203   7.618   1.385   4.914
80124SOL    HW142204   7.712   1.369   4.926
80124SOL    HW242205   7.576   1.306   4.948
80125SOL     OW42206  11.011  12.349  12.847
80125SOL    HW142207  11.049  12.437  12.849
80125SOL    HW242208  11.066  12.300  12.786
80126SOL     OW42209   3.378   8.490   5.269
80126SOL    HW142210   3.432   8.503   5.191
80126SOL    HW242211   3.360   8.396   5.270
80127SOL     OW42212   0.750  13.189  13.268
80127SOL    HW142213   0.683  13.131  13.233
80127SOL    HW242214   0.708  13.275  13.271
80128SOL     OW42215   6.582   9.232   5.100
80128SOL    HW142216   6.584   9.229   5.196
80128SOL    HW242217   6.564   9.141   5.074
80129SOL     OW42218   4.279   9.938  12.522
80129SOL    HW142219   4.218   9.871  12.491
80129SOL    HW242220   4.320   9.971  12.442
80130SOL     OW42221   1.252  10.438   1.852
80130SOL    HW142222   1.330  10.465   1.902
80130SOL    HW242223   1.270  10.468   1.763
80131SOL     OW42224   2.711  11.152  14.606
80131SOL    HW142225   2.718  11.159  14.701
80131SOL    HW242226   2.708  11.243  14.576
80132SOL     OW42227   0.357   6.865   0.509
80132SOL    HW142228   0.275   6.907   0.535
80132SOL    HW242229   0.384   6.816   0.587
80133SOL     OW42230   8.272   2.947  13.852
80133SOL    HW142231   8.182   2.968  13.829
80133SOL    HW242232   8.302   3.022  13.904
80134SOL     OW42233  13.916   9.277   6.244
80134SOL    HW142234  13.911   9.307   6.154
80134SOL    HW242235  13.828   9.287   6.278
80135SOL     OW42236  12.163   4.631   3.276
80135SOL    HW142237  12.142   4.705   3.218
80135SOL    HW242238  12.152   4.554   3.221
80136SOL     OW42239   0.215  14.011   5.280
80136SOL    HW142240   0.194  14.019   5.187
80136SOL    HW242241   0.217  13.916   5.295
80137SOL     OW42242   5.664   2.332   6.894
80137SOL    HW142243   5.649   2.312   6.986
80137SOL    HW242244   5.749   2.376   6.893
80138SOL     OW42245  10.799   2.468   3.212
80138SOL    HW142246  10.745   2.412   3.156
80138SOL    HW242247  10.770   2.557   3.192
80139SOL     OW42248   9.581   0.091   8.376
80139SOL    HW142249   9.512   0.071   8.313
80139SOL    HW242250   9.539   0.149   8.440
80140SOL     OW42251   3.260   6.326   0.215
80140SOL    HW142252   3.254   6.372   0.131
80140SOL    HW242253   3.288   6.238   0.192
80141SOL     OW42254   1.607  12.787  10.688
80141SOL    HW142255   1.559  12.846  10.745
80141SOL    HW242256   1.540  12.737  10.642
80142SOL     OW42257  11.190  12.489  14.676
80142SOL    HW142258  11.116  12.505  14.734
80142SOL    HW242259  11.232  12.575  14.666
80143SOL     OW42260   4.309   9.085  13.069
80143SOL    HW142261   4.385   9.032  13.046
80143SOL    HW242262   4.235   9.039  13.029
80144SOL     OW42263   1.005  12.665  12.722
80144SOL    HW142264   0.947  12.694  12.792
80144SOL    HW242265   0.951  12.609  12.667
80145SOL     OW42266  13.239  11.333   9.782
80145SOL    HW142267  13.316  11.276   9.777
80145SOL    HW242268  13.269  11.417   9.747
80146SOL     OW42269   2.079   4.574  14.029
80146SOL    HW142270   2.096   4.628  14.106
80146SOL    HW242271   2.166   4.540  14.005
80147SOL     OW42272   6.072   0.278  10.618
80147SOL    HW142273   6.051   0.324  10.536
80147SOL    HW242274   5.987   0.254  10.654
80148SOL     OW42275   2.185  14.099   9.835
80148SOL    HW142276   2.191  14.011   9.873
80148SOL    HW242277   2.188  14.084   9.740
80149SOL     OW42278  14.298   8.679   9.292
80149SOL    HW142279  14.229   8.700   9.229
80149SOL    HW242280  14.325   8.764   9.327
80150SOL     OW42281   7.254   0.559   7.293
80150SOL    HW142282   7.321   0.529   7.231
80150SOL    HW242283   7.270   0.653   7.302
80151SOL     OW42284  14.455   9.052  11.638
80151SOL    HW142285  14.493   9.127  11.591
80151SOL    HW242286  14.530   8.995  11.655
80152SOL     OW42287  11.529   6.443   0.819
80152SOL    HW142288  11.444   6.415   0.853
80152SOL    HW242289  11.527   6.420   0.726
80153SOL     OW42290   0.167   3.013  10.349
80153SOL    HW142291   0.222   2.936  10.338
80153SOL    HW242292   0.220   3.086  10.316
80154SOL     OW42293   7.465  11.721  11.789
80154SOL    HW142294   7.370  11.729  11.777
80154SOL    HW242295   7.486  11.784  11.858
80155SOL     OW42296  11.496   2.984   7.635
80155SOL    HW142297  11.568   2.993   7.698
80155SOL    HW242298  11.479   2.890   7.632
80156SOL     OW42299   2.343  11.123   4.161
80156SOL    HW142300   2.265  11.134   4.214
80156SOL    HW242301   2.366  11.212   4.133
80157SOL     OW42302   3.767   0.625  11.776
80157SOL    HW142303   3.837   0.570  11.812
80157SOL    HW242304   3.706   0.563  11.736
80158SOL     OW42305  10.828   8.277   9.056
80158SOL    HW142306  10.856   8.347   8.998
80158SOL    HW242307  10.907   8.251   9.104
80159SOL     OW42308   2.624   5.268   2.066
80159SOL    HW142309   2.636   5.228   2.153
80159SOL    HW242310   2.584   5.353   2.084
80160SOL     OW42311  13.924  11.960   6.396
80160SOL    HW142312  13.949  11.991   6.483
80160SOL    HW242313  13.843  11.911   6.410
80161SOL     OW42314  14.605  14.706  13.086
80161SOL    HW142315  14.645  14.791  13.106
80161SOL    HW242316  14.513  14.727  13.067
80162SOL     OW42317   8.438   7.922   9.650
80162SOL    HW142318   8.492   7.993   9.615
80162SOL    HW242319   8.443   7.853   9.584
80163SOL     OW42320  13.472  12.368  14.231
80163SOL    HW142321  13.534  12.297  14.217
80163SOL    HW242322  13.436  12.386  14.145
80164SOL     OW42323  13.874  11.519   1.463
80164SOL    HW142324  13.904  11.506   1.553
80164SOL    HW242325  13.868  11.614   1.453
80165SOL     OW42326  10.907   0.074   9.621
80165SOL    HW142327  10.956   0.125   9.557
80165SOL    HW242328  10.893   0.134   9.694
80166SOL     OW42329   1.110   1.000  11.001
80166SOL    HW142330   1.094   1.066  10.934
80166SOL    HW242331   1.092   1.045  11.084
80167SOL     OW42332  13.899   7.793   8.606
80167SOL    HW142333  13.850   7.729   8.553
80167SOL    HW242334  13.955   7.838   8.543
80168SOL     OW42335   1.079   2.236  12.711
80168SOL    HW142336   1.043   2.322  12.730
80168SOL    HW242337   1.081   2.231  12.615
80169SOL     OW42338   4.012   0.875   3.201
80169SOL    HW142339   4.054   0.959   3.221
80169SOL    HW242340   4.074   0.809   3.231
80170SOL     OW42341  13.056  13.030  12.429
80170SOL    HW142342  12.980  13.088  12.424
80170SOL    HW242343  13.127  13.081  12.389
80171SOL     OW42344   4.945   9.750   2.554
80171SOL    HW142345   4.997   9.689   2.501
80171SOL    HW242346   5.007   9.819   2.578
80172SOL     OW42347   6.451   2.090   2.908
80172SOL    HW142348   6.525   2.147   2.887
80172SOL    HW242349   6.376   2.150   2.911
80173SOL     OW42350   9.233   3.499   4.567
80173SOL    HW142351   9.165   3.465   4.509
80173SOL    HW242352   9.248   3.589   4.537
80174SOL     OW42353  10.260  11.632  14.107
80174SOL    HW142354  10.343  11.648  14.151
80174SOL    HW242355  10.251  11.704  14.045
80175SOL     OW42356   7.747   1.496   1.951
80175SOL    HW142357   7.693   1.537   2.019
80175SOL    HW242358   7.696   1.506   1.871
80176SOL     OW42359   3.164   8.772   5.110
80176SOL    HW142360   3.159   8.677   5.102
80176SOL    HW242361   3.087   8.804   5.062
80177SOL     OW42362   3.957   7.268   7.232
80177SOL    HW142363   4.011   7.242   7.158
80177SOL    HW242364   4.019   7.280   7.304
80178SOL     OW42365   3.254  13.395  14.383
80178SOL    HW142366   3.267  13.320  14.441
80178SOL    HW242367   3.160  13.409  14.383
80179SOL     OW42368   6.127  11.572   3.745
80179SOL    HW142369   6.056  11.509   3.731
80179SOL    HW242370   6.139  11.612   3.659
80180SOL     OW42371   6.509   0.041   0.508
80180SOL    HW142372   6.450   0.045   0.583
80180SOL    HW242373   6.551  14.827   0.516
80181SOL     OW42374   3.340   5.658  14.449
80181SOL    HW142375   3.316   5.604  14.524
80181SOL    HW242376   3.378   5.596  14.386
80182SOL     OW42377  10.120   7.376  10.468
80182SOL    HW142378  10.032   7.397  10.436
80182SOL    HW242379  10.175   7.447  10.436
80183SOL     OW42380   6.766  10.358   9.599
80183SOL    HW142381   6.834  10.296   9.624
80183SOL    HW242382   6.719  10.315   9.527
80184SOL     OW42383  13.351  11.439  12.028
80184SOL    HW142384  13.438  11.458  12.063
80184SOL    HW242385  13.314  11.374  12.088
80185SOL     OW42386   4.427  12.417  10.586
80185SOL    HW142387   4.419  12.500  10.633
80185SOL    HW242388   4.453  12.442  10.497
80186SOL     OW42389  10.379   6.205   6.711
80186SOL    HW142390  10.413   6.116   6.700
80186SOL    HW242391  10.397   6.248   6.628
80187SOL     OW42392   2.213   8.662   5.875
80187SOL    HW142393   2.129   8.634   5.911
80187SOL    HW242394   2.277   8.630   5.938
80188SOL     OW42395   7.196   9.705  13.190
80188SOL    HW142396   7.268   9.751  13.233
80188SOL    HW242397   7.223   9.613  13.191
80189SOL     OW42398  13.464   1.393  12.443
80189SOL    HW142399  13.544   1.433  12.408
80189SOL    HW242400  13.457   1.427  12.532
80190SOL     OW42401  12.160   1.857  14.155
80190SOL    HW142402  12.110   1.885  14.232
80190SOL    HW242403  12.105   1.881  14.080
80191SOL     OW42404  13.741   4.291   9.255
80191SOL    HW142405  13.700   4.270   9.339
80191SOL    HW242406  13.732   4.386   9.248
80192SOL     OW42407   5.069  12.213   8.697
80192SOL    HW142408   5.114  12.258   8.768
80192SOL    HW242409   5.132  12.147   8.666
80193SOL     OW42410  11.066   6.008   3.533
80193SOL    HW142411  11.054   6.065   3.457
80193SOL    HW242412  11.008   6.044   3.600
80194SOL     OW42413  14.502   4.262   6.024
80194SOL    HW142414  14.414   4.275   5.989
80194SOL    HW242415  14.560   4.299   5.957
80195SOL     OW42416  12.875  14.422   6.165
80195SOL    HW142417  12.781  14.427   6.148
80195SOL    HW242418  12.888  14.469   6.247
80196SOL     OW42419  11.017  11.767  12.205
80196SOL    HW142420  10.932  11.742  12.241
80196SOL    HW242421  11.043  11.693  12.150
80197SOL     OW42422   5.749   3.799  13.616
80197SOL    HW142423   5.826   3.816  13.671
80197SOL    HW242424   5.746   3.704  13.607
80198SOL     OW42425   5.381   6.238  10.899
80198SOL    HW142426   5.328   6.275  10.969
80198SOL    HW242427   5.362   6.292  10.823
80199SOL     OW42428  11.639  11.206   8.906
80199SOL    HW142429  11.607  11.268   8.840
80199SOL    HW242430  11.732  11.195   8.885
80200SOL     OW42431   4.736   2.173   8.412
80200SOL    HW142432   4.767   2.263   8.417
80200SOL    HW242433   4.715   2.160   8.320
80201SOL     OW42434  14.456   3.704   5.533
80201SOL    HW142435  14.534   3.735   5.579
80201SOL    HW242436  14.418   3.783   5.494
80202SOL     OW42437   1.982  12.010  11.949
80202SOL    HW142438   2.018  12.072  11.885
80202SOL    HW242439   1.949  11.937  11.896
80203SOL     OW42440   3.675  14.110   9.305
80203SOL    HW142441   3.636  14.153   9.381
80203SOL    HW242442   3.612  14.042   9.281
80204SOL     OW42443  12.945   8.130  13.647
80204SOL    HW142444  13.030   8.087  13.644
80204SOL    HW242445  12.882   8.060  13.627
80205SOL     OW42446  11.517  10.333   2.443
80205SOL    HW142447  11.586  10.367   2.385
80205SOL    HW242448  11.457  10.287   2.384
80206SOL     OW42449   2.354   9.758  13.494
80206SOL    HW142450   2.424   9.698  13.520
80206SOL    HW242451   2.343   9.816  13.569
80207SOL     OW42452   9.904   8.969  12.395
80207SOL    HW142453   9.928   9.052  12.353
80207SOL    HW242454   9.978   8.911  12.376
80208SOL     OW42455  11.853   1.633   5.175
80208SOL    HW142456  11.853   1.697   5.246
80208SOL    HW242457  11.772   1.584   5.187
80209SOL     OW42458   4.419   3.676   8.074
80209SOL    HW142459   4.369   3.599   8.046
80209SOL    HW242460   4.415   3.674   8.170
80210SOL     OW42461   3.883  13.529   8.898
80210SOL    HW142462   3.861  13.616   8.863
80210SOL    HW242463   3.883  13.472   8.822
80211SOL     OW42464  13.802   0.665   9.986
80211SOL    HW142465  13.842   0.597   9.932
80211SOL    HW242466  13.845   0.746   9.958
80212SOL     OW42467   8.111   0.246  10.590
80212SOL    HW142468   8.040   0.260  10.526
80212SOL    HW242469   8.158   0.170  10.556
80213SOL     OW42470  10.684   9.330   0.363
80213SOL    HW142471  10.605   9.320   0.417
80213SOL    HW242472  10.689   9.424   0.344
80214SOL     OW42473   6.744   1.065   5.921
80214SOL    HW142474   6.777   1.155   5.923
80214SOL    HW242475   6.717   1.051   5.831
80215SOL     OW42476   8.563  13.275   4.986
80215SOL    HW142477   8.545  13.335   4.914
80215SOL    HW242478   8.479  13.265   5.030
80216SOL     OW42479   0.391   7.612  12.946
80216SOL    HW142480   0.420   7.522  12.958
80216SOL    HW242481   0.458   7.651  12.889
80217SOL     OW42482  13.731  14.863   7.110
80217SOL    HW142483  13.639  14.835   7.107
80217SOL    HW242484  13.772  14.804   7.173
80218SOL     OW42485   3.571  10.430  12.076
80218SOL    HW142486   3.640  10.402  12.136
80218SOL    HW242487   3.571  10.526  12.082
80219SOL     OW42488   7.728  12.672  11.222
80219SOL    HW142489   7.648  12.657  11.271
80219SOL    HW242490   7.747  12.587  11.181
80220SOL     OW42491  11.051   6.243   4.089
80220SOL    HW142492  11.010   6.287   4.164
80220SOL    HW242493  11.037   6.304   4.016
80221SOL     OW42494  10.175   7.471  13.008
80221SOL    HW142495  10.247   7.421  12.971
80221SOL    HW242496  10.107   7.406  13.025
80222SOL     OW42497  13.155  14.040   6.867
80222SOL    HW142498  13.166  13.953   6.906
80222SOL    HW242499  13.064  14.040   6.834
80223SOL     OW42500   3.063  14.511   8.629
80223SOL    HW142501   2.967  14.507   8.635
80223SOL    HW242502   3.092  14.516   8.720
80224SOL     OW42503   1.734  11.171   0.567
80224SOL    HW142504   1.672  11.102   0.589
80224SOL    HW242505   1.686  11.252   0.584
80225SOL     OW42506  14.002   8.866   5.301
80225SOL    HW142507  14.008   8.912   5.218
80225SOL    HW242508  14.083   8.888   5.347
80226SOL     OW42509   3.876   1.490  10.194
80226SOL    HW142510   3.966   1.515  10.213
80226SOL    HW242511   3.839   1.466  10.278
80227SOL     OW42512   0.850   1.537   3.251
80227SOL    HW142513   0.768   1.540   3.300
80227SOL    HW242514   0.917   1.561   3.314
80228SOL     OW42515   2.860   7.455  13.581
80228SOL    HW142516   2.943   7.443  13.627
80228SOL    HW242517   2.833   7.544  13.604
80229SOL     OW42518  11.329  13.388   5.005
80229SOL    HW142519  11.267  13.440   4.954
80229SOL    HW242520  11.386  13.452   5.047
80230SOL     OW42521  11.902  10.184   6.861
80230SOL    HW142522  11.919  10.175   6.954
80230SOL    HW242523  11.946  10.109   6.821
80231SOL     OW42524   8.753   5.727   0.273
80231SOL    HW142525   8.789   5.712   0.186
80231SOL    HW242526   8.663   5.756   0.257
80232SOL     OW42527  10.150   8.332  12.350
80232SOL    HW142528  10.110   8.245  12.349
80232SOL    HW242529  10.088   8.386  12.399
80233SOL     OW42530   8.990   9.653   9.188
80233SOL    HW142531   8.995   9.557   9.187
80233SOL    HW242532   9.046   9.679   9.261
80234SOL     OW42533   9.976   0.199  11.055
80234SOL    HW142534   9.916   0.183  11.128
80234SOL    HW242535  10.061   0.213  11.096
80235SOL     OW42536   6.605  12.603   0.701
80235SOL    HW142537   6.629  12.549   0.626
80235SOL    HW242538   6.522  12.568   0.731
80236SOL     OW42539   3.718   8.618  14.641
80236SOL    HW142540   3.793   8.562  14.622
80236SOL    HW242541   3.715   8.680  14.568
80237SOL     OW42542   2.928  10.505   2.621
80237SOL    HW142543   2.992  10.575   2.633
80237SOL    HW242544   2.975  10.425   2.646
80238SOL     OW42545   0.003   1.576  13.835
80238SOL    HW142546  14.800   1.529  13.870
80238SOL    HW242547   0.067   1.508  13.815
80239SOL     OW42548  12.046   6.985  14.518
80239SOL    HW142549  12.122   6.994  14.576
80239SOL    HW242550  12.062   7.048  14.447
80240SOL     OW42551   7.269  12.883   8.002
80240SOL    HW142552   7.294  12.808   8.057
80240SOL    HW242553   7.177  12.900   8.025
80241SOL     OW42554   3.174   7.427  12.574
80241SOL    HW142555   3.183   7.427  12.670
80241SOL    HW242556   3.212   7.510  12.547
80242SOL     OW42557   6.394   6.111   6.427
80242SOL    HW142558   6.473   6.116   6.480
80242SOL    HW242559   6.426   6.101   6.337
80243SOL     OW42560   9.990   1.605   1.896
80243SOL    HW142561   9.916   1.621   1.838
80243SOL    HW242562   9.988   1.678   1.958
80244SOL     OW42563   7.712  13.151  12.081
80244SOL    HW142564   7.785  13.090  12.067
80244SOL    HW242565   7.721  13.177  12.173
80245SOL     OW42566   5.480   8.830   1.243
80245SOL    HW142567   5.547   8.884   1.285
80245SOL    HW242568   5.467   8.870   1.157
80246SOL     OW42569   6.165   8.679  10.544
80246SOL    HW142570   6.142   8.588  10.567
80246SOL    HW242571   6.252   8.692  10.582
80247SOL     OW42572  13.175   7.532   3.831
80247SOL    HW142573  13.139   7.608   3.785
80247SOL    HW242574  13.205   7.567   3.915
80248SOL     OW42575   3.225   4.521   5.874
80248SOL    HW142576   3.270   4.451   5.828
80248SOL    HW242577   3.289   4.592   5.878
80249SOL     OW42578   4.243   0.863   8.958
80249SOL    HW142579   4.232   0.922   8.883
80249SOL    HW242580   4.185   0.789   8.939
80250SOL     OW42581  14.426   7.791   1.912
80250SOL    HW142582  14.481   7.846   1.856
80250SOL    HW242583  14.368   7.745   1.852
80251SOL     OW42584  11.033   2.510   6.439
80251SOL    HW142585  10.962   2.571   6.419
80251SOL    HW242586  10.989   2.427   6.456
80252SOL     OW42587   5.987   7.845  14.412
80252SOL    HW142588   5.908   7.891  14.441
80252SOL    HW242589   5.960   7.754  14.404
80253SOL     OW42590  14.718   7.342   6.287
80253SOL    HW142591  14.665   7.387   6.221
80253SOL    HW242592  14.664   7.343   6.366
80254SOL     OW42593   8.757   1.977   2.251
80254SOL    HW142594   8.712   1.904   2.293
80254SOL    HW242595   8.763   2.044   2.319
80255SOL     OW42596   3.234   8.947   1.610
80255SOL    HW142597   3.289   8.935   1.688
80255SOL    HW242598   3.233   9.041   1.596
80256SOL     OW42599  11.768  13.460   9.023
80256SOL    HW142600  11.850  13.493   8.985
80256SOL    HW242601  11.717  13.429   8.948
80257SOL     OW42602  13.524   0.389  13.571
80257SOL    HW142603  13.434   0.379  13.601
80257SOL    HW242604  13.518   0.451  13.498
80258SOL     OW42605   0.671   2.743   0.415
80258SOL    HW142606   0.616   2.753   0.337
80258SOL    HW242607   0.727   2.821   0.414
80259SOL     OW42608  10.814  12.030   2.370
80259SOL    HW142609  10.823  11.981   2.288
80259SOL    HW242610  10.834  12.120   2.347
80260SOL     OW42611   0.655   8.518   0.026
80260SOL    HW142612   0.689   8.442  14.852
80260SOL    HW242613   0.723   8.540   0.089
80261SOL     OW42614   2.532  13.460   1.468
80261SOL    HW142615   2.546  13.382   1.414
80261SOL    HW242616   2.611  13.465   1.523
80262SOL     OW42617  12.379   0.375  11.442
80262SOL    HW142618  12.441   0.440  11.475
80262SOL    HW242619  12.320   0.425  11.385
80263SOL     OW42620  12.047  12.155   1.093
80263SOL    HW142621  11.968  12.102   1.077
80263SOL    HW242622  12.119  12.093   1.090
80264SOL     OW42623  13.493   1.042  12.586
80264SOL    HW142624  13.525   1.122  12.546
80264SOL    HW242625  13.572   0.996  12.614
80265SOL     OW42626   6.481  13.787  12.752
80265SOL    HW142627   6.522  13.712  12.794
80265SOL    HW242628   6.538  13.807  12.678
80266SOL     OW42629   6.922  12.682   7.590
80266SOL    HW142630   6.833  12.696   7.623
80266SOL    HW242631   6.977  12.681   7.668
80267SOL     OW42632  12.046   9.799  14.100
80267SOL    HW142633  11.982   9.764  14.161
80267SOL    HW242634  12.062   9.889  14.129
80268SOL     OW42635   7.679  14.216  14.440
80268SOL    HW142636   7.709  14.127  14.424
80268SOL    HW242637   7.587  14.216  14.415
80269SOL     OW42638   0.162  14.775   4.647
80269SOL    HW142639   0.217  14.805   4.719
80269SOL    HW242640   0.074  14.806   4.669
80270SOL     OW42641  14.818   7.137   3.869
80270SOL    HW142642  14.762   7.205   3.832
80270SOL    HW242643  14.826   7.072   3.800
80271SOL     OW42644   4.344   8.124   3.737
80271SOL    HW142645   4.324   8.217   3.749
80271SOL    HW242646   4.277   8.078   3.788
80272SOL     OW42647   5.704   8.863   6.885
80272SOL    HW142648   5.651   8.919   6.829
80272SOL    HW242649   5.794   8.882   6.859
80273SOL     OW42650  13.583   9.953   3.707
80273SOL    HW142651  13.574  10.027   3.768
80273SOL    HW242652  13.495   9.943   3.669
80274SOL     OW42653  14.403   0.902   4.127
80274SOL    HW142654  14.473   0.867   4.071
80274SOL    HW242655  14.401   0.995   4.106
80275SOL     OW42656  11.854  12.263  11.054
80275SOL    HW142657  11.807  12.199  11.108
80275SOL    HW242658  11.869  12.218  10.971
80276SOL     OW42659  12.565  12.140   6.771
80276SOL    HW142660  12.646  12.097   6.742
80276SOL    HW242661  12.528  12.080   6.835
80277SOL     OW42662   2.330   6.936  10.427
80277SOL    HW142663   2.352   6.861  10.372
80277SOL    HW242664   2.414   6.971  10.455
80278SOL     OW42665   6.883   2.932   3.693
80278SOL    HW142666   6.808   2.877   3.713
80278SOL    HW242667   6.927   2.945   3.777
80279SOL     OW42668   5.302  12.335   2.399
80279SOL    HW142669   5.287  12.295   2.314
80279SOL    HW242670   5.224  12.389   2.415
80280SOL     OW42671  12.515   9.843   4.557
80280SOL    HW142672  12.560   9.868   4.638
80280SOL    HW242673  12.582   9.798   4.506
80281SOL     OW42674  14.483  11.718   3.797
80281SOL    HW142675  14.508  11.674   3.878
80281SOL    HW242676  14.514  11.660   3.727
80282SOL     OW42677  10.119   2.653   6.261
80282SOL    HW142678  10.090   2.605   6.184
80282SOL    HW242679  10.093   2.597   6.335
80283SOL     OW42680   6.989   5.738   7.451
80283SOL    HW142681   7.080   5.747   7.480
80283SOL    HW242682   6.991   5.667   7.386
80284SOL     OW42683  10.346   4.644  12.276
80284SOL    HW142684  10.402   4.718  12.300
80284SOL    HW242685  10.388   4.568  12.315
80285SOL     OW42686   4.056   5.908  14.417
80285SOL    HW142687   3.975   5.858  14.416
80285SOL    HW242688   4.072   5.929  14.325
80286SOL     OW42689   8.432   2.880   9.221
80286SOL    HW142690   8.480   2.868   9.139
80286SOL    HW242691   8.440   2.796   9.266
80287SOL     OW42692   3.781  14.301  14.766
80287SOL    HW142693   3.861  14.337  14.805
80287SOL    HW242694   3.784  14.208  14.786
80288SOL     OW42695   0.933   8.963   6.859
80288SOL    HW142696   0.978   9.046   6.873
80288SOL    HW242697   0.988   8.898   6.903
80289SOL     OW42698  12.446  13.500   2.335
80289SOL    HW142699  12.461  13.416   2.291
80289SOL    HW242700  12.356  13.493   2.368
80290SOL     OW42701   1.559   5.088   7.142
80290SOL    HW142702   1.596   5.121   7.224
80290SOL    HW242703   1.594   5.146   7.075
80291SOL     OW42704   2.079   3.523   4.723
80291SOL    HW142705   2.066   3.598   4.781
80291SOL    HW242706   2.038   3.450   4.768
80292SOL     OW42707   6.605   6.037   5.454
80292SOL    HW142708   6.665   5.972   5.418
80292SOL    HW242709   6.547   5.987   5.511
80293SOL     OW42710  12.460  10.370   6.240
80293SOL    HW142711  12.384  10.330   6.198
80293SOL    HW242712  12.429  10.392   6.329
80294SOL     OW42713   7.474   1.639   4.960
80294SOL    HW142714   7.505   1.548   4.964
80294SOL    HW242715   7.539   1.685   4.907
80295SOL     OW42716   3.689   7.125   6.646
80295SOL    HW142717   3.669   7.050   6.589
80295SOL    HW242718   3.781   7.113   6.670
80296SOL     OW42719  12.856  14.124  14.712
80296SOL    HW142720  12.925  14.058  14.706
80296SOL    HW242721  12.803  14.097  14.787
80297SOL     OW42722   0.931  12.320  12.648
80297SOL    HW142723   0.926  12.326  12.553
80297SOL    HW242724   0.938  12.226  12.666
80298SOL     OW42725   3.529  11.826   2.015
80298SOL    HW142726   3.573  11.862   2.091
80298SOL    HW242727   3.446  11.792   2.049
80299SOL     OW42728  12.423   5.412   1.445
80299SOL    HW142729  12.429   5.469   1.522
80299SOL    HW242730  12.505   5.363   1.444
80300SOL     OW42731   6.417   0.440   4.967
80300SOL    HW142732   6.452   0.370   4.913
80300SOL    HW242733   6.354   0.485   4.911
80301SOL     OW42734   4.772   1.322   6.037
80301SOL    HW142735   4.680   1.328   6.014
80301SOL    HW242736   4.776   1.348   6.129
80302SOL     OW42737   7.525  12.705   9.910
80302SOL    HW142738   7.438  12.712   9.870
80302SOL    HW242739   7.556  12.618   9.885
80303SOL     OW42740  13.234   4.278   6.354
80303SOL    HW142741  13.242   4.214   6.425
80303SOL    HW242742  13.324   4.304   6.335
80304SOL     OW42743   2.983  10.428   8.033
80304SOL    HW142744   2.951  10.411   7.945
80304SOL    HW242745   3.056  10.367   8.044
80305SOL     OW42746  11.152  12.326  10.916
80305SOL    HW142747  11.134  12.234  10.897
80305SOL    HW242748  11.114  12.340  11.003
80306SOL     OW42749   0.679  14.219  12.407
80306SOL    HW142750   0.680  14.157  12.334
80306SOL    HW242751   0.674  14.305  12.365
80307SOL     OW42752  13.810   1.889   2.014
80307SOL    HW142753  13.850   1.961   1.965
80307SOL    HW242754  13.762   1.932   2.085
80308SOL     OW42755   0.196   9.838   4.121
80308SOL    HW142756   0.276   9.852   4.071
80308SOL    HW242757   0.129   9.821   4.055
80309SOL     OW42758   7.354  14.472   5.297
80309SOL    HW142759   7.444  14.449   5.273
80309SOL    HW242760   7.311  14.389   5.313
80310SOL     OW42761   1.315   2.296   8.432
80310SOL    HW142762   1.321   2.282   8.337
80310SOL    HW242763   1.391   2.251   8.467
80311SOL     OW42764  12.868  13.745   7.596
80311SOL    HW142765  12.789  13.770   7.644
80311SOL    HW242766  12.890  13.822   7.544
80312SOL     OW42767   2.804   2.222   6.795
80312SOL    HW142768   2.799   2.137   6.841
80312SOL    HW242769   2.764   2.205   6.710
80313SOL     OW42770  10.551   4.806  13.289
80313SOL    HW142771  10.639   4.777  13.266
80313SOL    HW242772  10.564   4.865  13.363
80314SOL     OW42773   7.692  11.253   1.215
80314SOL    HW142774   7.733  11.187   1.159
80314SOL    HW242775   7.661  11.202   1.291
80315SOL     OW42776   4.787   3.513   1.767
80315SOL    HW142777   4.704   3.508   1.721
80315SOL    HW242778   4.838   3.440   1.732
80316SOL     OW42779  12.003   3.477  10.055
80316SOL    HW142780  11.965   3.438  10.134
80316SOL    HW242781  12.095   3.450  10.058
80317SOL     OW42782   1.111   8.290  13.878
80317SOL    HW142783   1.202   8.313  13.892
80317SOL    HW242784   1.110   8.244  13.794
80318SOL     OW42785   5.993   1.681  10.610
80318SOL    HW142786   5.915   1.645  10.651
80318SOL    HW242787   6.014   1.759  10.661
80319SOL     OW42788   9.355   9.604   3.072
80319SOL    HW142789   9.335   9.530   3.014
80319SOL    HW242790   9.360   9.680   3.013
80320SOL     OW42791   4.347  14.240  14.294
80320SOL    HW142792   4.396  14.300  14.350
80320SOL    HW242793   4.363  14.153  14.332
80321SOL     OW42794   2.062   0.562   9.869
80321SOL    HW142795   2.072   0.630   9.935
80321SOL    HW242796   2.064   0.608   9.785
80322SOL     OW42797   6.124  13.556  11.434
80322SOL    HW142798   6.096  13.634  11.481
80322SOL    HW242799   6.043  13.514  11.406
80323SOL     OW42800   4.083  12.292   3.384
80323SOL    HW142801   4.129  12.307   3.301
80323SOL    HW242802   3.996  12.327   3.369
80324SOL     OW42803   1.737  12.217  12.624
80324SOL    HW142804   1.762  12.249  12.710
80324SOL    HW242805   1.682  12.286  12.587
80325SOL     OW42806  13.494  12.843  11.998
80325SOL    HW142807  13.503  12.785  11.922
80325SOL    HW242808  13.584  12.860  12.026
80326SOL     OW42809   0.611   5.731   7.105
80326SOL    HW142810   0.566   5.815   7.096
80326SOL    HW242811   0.550   5.676   7.154
80327SOL     OW42812   1.244   8.016  10.180
80327SOL    HW142813   1.238   8.109  10.202
80327SOL    HW242814   1.159   7.980  10.205
80328SOL     OW42815  14.523   6.076   3.674
80328SOL    HW142816  14.583   6.094   3.746
80328SOL    HW242817  14.569   6.012   3.620
80329SOL     OW42818   8.478   6.351   3.171
80329SOL    HW142819   8.444   6.322   3.255
80329SOL    HW242820   8.415   6.416   3.141
80330SOL     OW42821  14.137   8.294  10.214
80330SOL    HW142822  14.197   8.283  10.287
80330SOL    HW242823  14.056   8.326  10.254
80331SOL     OW42824  14.110   6.532   2.856
80331SOL    HW142825  14.173   6.465   2.884
80331SOL    HW242826  14.025   6.499   2.883
80332SOL     OW42827  13.495  12.971   5.063
80332SOL    HW142828  13.480  12.983   5.157
80332SOL    HW242829  13.408  12.960   5.025
80333SOL     OW42830   2.365   0.904  10.004
80333SOL    HW142831   2.387   0.815   9.976
80333SOL    HW242832   2.272   0.912   9.984
80334SOL     OW42833   7.901  10.988   6.056
80334SOL    HW142834   7.993  11.005   6.077
80334SOL    HW242835   7.870  10.934   6.128
80335SOL     OW42836   1.485   4.938   7.409
80335SOL    HW142837   1.394   4.957   7.388
80335SOL    HW242838   1.490   4.943   7.505
80336SOL     OW42839   2.261   1.729  14.825
80336SOL    HW142840   2.234   1.729   0.045
80336SOL    HW242841   2.342   1.677  14.824
80337SOL     OW42842  13.408  10.242   3.408
80337SOL    HW142843  13.479  10.304   3.393
80337SOL    HW242844  13.453  10.161   3.433
80338SOL     OW42845  11.453  10.785   4.513
80338SOL    HW142846  11.498  10.867   4.534
80338SOL    HW242847  11.398  10.807   4.438
80339SOL     OW42848   6.472  12.515   0.166
80339SOL    HW142849   6.408  12.585   0.154
80339SOL    HW242850   6.440  12.443   0.111
80340SOL     OW42851   4.279   4.618   2.353
80340SOL    HW142852   4.324   4.701   2.367
80340SOL    HW242853   4.265   4.614   2.259
80341SOL     OW42854   4.130   5.495   2.826
80341SOL    HW142855   4.077   5.574   2.838
80341SOL    HW242856   4.151   5.493   2.733
80342SOL     OW42857   6.442   4.201  10.397
80342SOL    HW142858   6.444   4.189  10.303
80342SOL    HW242859   6.514   4.262  10.415
80343SOL     OW42860   3.787   7.953   9.349
80343SOL    HW142861   3.801   8.047   9.339
80343SOL    HW242862   3.816   7.915   9.266
80344SOL     OW42863   9.869   3.566   6.660
80344SOL    HW142864   9.774   3.576   6.652
80344SOL    HW242865   9.881   3.472   6.677
80345SOL     OW42866   7.017   9.994   3.752
80345SOL    HW142867   6.931  10.016   3.715
80345SOL    HW242868   7.077  10.055   3.710
80346SOL     OW42869   6.395   5.573   2.382
80346SOL    HW142870   6.303   5.550   2.376
80346SOL    HW242871   6.440   5.490   2.403
80347SOL     OW42872  13.701  10.399   3.411
80347SOL    HW142873  13.692  10.491   3.434
80347SOL    HW242874  13.781  10.395   3.358
80348SOL     OW42875   2.132  12.451  10.966
80348SOL    HW142876   2.158  12.432  11.056
80348SOL    HW242877   2.047  12.494  10.975
80349SOL     OW42878  11.244   1.337  10.775
80349SOL    HW142879  11.284   1.399  10.836
80349SOL    HW242880  11.261   1.251  10.814
80350SOL     OW42881   0.278  13.565   7.931
80350SOL    HW142882   0.251  13.657   7.922
80350SOL    HW242883   0.307  13.557   8.021
80351SOL     OW42884   1.237   8.887  12.260
80351SOL    HW142885   1.152   8.886  12.216
80351SOL    HW242886   1.217   8.859  12.350
80352SOL     OW42887  10.622   4.179   8.899
80352SOL    HW142888  10.603   4.094   8.940
80352SOL    HW242889  10.715   4.193   8.916
80353SOL     OW42890  13.782   6.778  10.692
80353SOL    HW142891  13.737   6.719  10.753
80353SOL    HW242892  13.800   6.723  10.615
80354SOL     OW42893  10.784   4.248  14.567
80354SOL    HW142894  10.791   4.154  14.587
80354SOL    HW242895  10.874   4.276  14.553
80355SOL     OW42896  10.684   0.995  13.244
80355SOL    HW142897  10.596   0.962  13.261
80355SOL    HW242898  10.742   0.928  13.279
80356SOL     OW42899   7.431   2.312  12.496
80356SOL    HW142900   7.519   2.296  12.530
80356SOL    HW242901   7.389   2.226  12.496
80357SOL     OW42902  14.468   1.858  10.429
80357SOL    HW142903  14.432   1.789  10.485
80357SOL    HW242904  14.403   1.867  10.359
80358SOL     OW42905   6.830  11.070   4.902
80358SOL    HW142906   6.895  11.087   4.970
80358SOL    HW242907   6.836  10.976   4.886
80359SOL     OW42908   5.389  14.394  10.714
80359SOL    HW142909   5.370  14.352  10.631
80359SOL    HW242910   5.436  14.474  10.691
80360SOL     OW42911  14.292  10.497   5.550
80360SOL    HW142912  14.338  10.467   5.629
80360SOL    HW242913  14.216  10.544   5.583
80361SOL     OW42914  12.996  12.045   7.048
80361SOL    HW142915  12.945  12.033   7.127
80361SOL    HW242916  13.081  12.005   7.068
80362SOL     OW42917   1.522   4.850   3.314
80362SOL    HW142918   1.588   4.910   3.278
80362SOL    HW242919   1.466   4.906   3.368
80363SOL     OW42920   3.952   0.528  10.290
80363SOL    HW142921   3.906   0.564  10.213
80363SOL    HW242922   4.004   0.456  10.255
80364SOL     OW42923   5.005   7.813   6.377
80364SOL    HW142924   5.074   7.752   6.404
80364SOL    HW242925   5.047   7.899   6.383
80365SOL     OW42926  11.326  12.911   0.988
80365SOL    HW142927  11.398  12.886   0.931
80365SOL    HW242928  11.351  12.876   1.074
80366SOL     OW42929   2.277   8.158  12.092
80366SOL    HW142930   2.353   8.167  12.035
80366SOL    HW242931   2.237   8.245  12.091
80367SOL     OW42932   1.832   4.011   3.302
80367SOL    HW142933   1.891   4.047   3.236
80367SOL    HW242934   1.832   4.076   3.372
80368SOL     OW42935   3.081   9.372  13.533
80368SOL    HW142936   3.001   9.401  13.488
80368SOL    HW242937   3.142   9.445  13.522
80369SOL     OW42938   1.572   8.356  12.112
80369SOL    HW142939   1.540   8.273  12.078
80369SOL    HW242940   1.542   8.358  12.203
80370SOL     OW42941  11.176   7.048  14.100
80370SOL    HW142942  11.167   7.055  14.005
80370SOL    HW242943  11.105   6.989  14.127
80371SOL     OW42944   8.608   0.131   1.117
80371SOL    HW142945   8.560   0.048   1.119
80371SOL    HW242946   8.554   0.189   1.062
80372SOL     OW42947   4.929   1.771  14.623
80372SOL    HW142948   4.901   1.697  14.677
80372SOL    HW242949   5.013   1.798  14.661
80373SOL     OW42950   7.035   1.588   7.274
80373SOL    HW142951   7.011   1.673   7.312
80373SOL    HW242952   6.952   1.543   7.260
80374SOL     OW42953   5.057  10.597   2.663
80374SOL    HW142954   5.152  10.590   2.667
80374SOL    HW242955   5.026  10.554   2.742
80375SOL     OW42956   0.520  14.518  13.003
80375SOL    HW142957   0.454  14.451  13.023
80375SOL    HW242958   0.569  14.481  12.929
80376SOL     OW42959   3.570   7.195   6.150
80376SOL    HW142960   3.544   7.259   6.084
80376SOL    HW242961   3.506   7.205   6.220
80377SOL     OW42962   6.530  10.667  14.465
80377SOL    HW142963   6.440  10.690  14.445
80377SOL    HW242964   6.570  10.650  14.380
80378SOL     OW42965   8.475   6.811   3.888
80378SOL    HW142966   8.505   6.722   3.872
80378SOL    HW242967   8.476   6.820   3.984
80379SOL     OW42968  12.806  10.461   2.440
80379SOL    HW142969  12.756  10.540   2.459
80379SOL    HW242970  12.896  10.492   2.428
80380SOL     OW42971   5.640   9.480  13.517
80380SOL    HW142972   5.575   9.471  13.586
80380SOL    HW242973   5.629   9.402  13.463
80381SOL     OW42974   4.292   2.130   8.706
80381SOL    HW142975   4.365   2.158   8.651
80381SOL    HW242976   4.232   2.086   8.646
80382SOL     OW42977   5.123   5.794   7.034
80382SOL    HW142978   5.044   5.740   7.036
80382SOL    HW242979   5.157   5.784   6.945
80383SOL     OW42980   9.388  13.990   2.541
80383SOL    HW142981   9.342  13.923   2.593
80383SOL    HW242982   9.433  13.941   2.473
80384SOL     OW42983  11.932   5.458  12.283
80384SOL    HW142984  11.840   5.461  12.257
80384SOL    HW242985  11.971   5.392  12.226
80385SOL     OW42986   1.886  11.251  12.844
80385SOL    HW142987   1.953  11.317  12.860
80385SOL    HW242988   1.900  11.186  12.913
80386SOL     OW42989   9.278   4.257   9.073
80386SOL    HW142990   9.370   4.233   9.072
80386SOL    HW242991   9.232   4.173   9.084
80387SOL     OW42992   2.769   5.953  11.221
80387SOL    HW142993   2.852   5.959  11.268
80387SOL    HW242994   2.783   5.883  11.157
80388SOL     OW42995   6.543  12.295   4.142
80388SOL    HW142996   6.629  12.302   4.102
80388SOL    HW242997   6.495  12.372   4.112
80389SOL     OW42998   0.427  12.144   7.378
80389SOL    HW142999   0.332  12.151   7.362
80389SOL    HW243000   0.466  12.169   7.295
80390SOL     OW43001   4.039  11.226   4.609
80390SOL    HW143002   4.085  11.192   4.686
80390SOL    HW243003   4.097  11.293   4.573
80391SOL     OW43004   6.670   2.044   7.892
80391SOL    HW143005   6.707   1.957   7.880
80391SOL    HW243006   6.620   2.060   7.812
80392SOL     OW43007   3.014   3.385   2.408
80392SOL    HW143008   3.048   3.344   2.488
80392SOL    HW243009   2.962   3.316   2.366
80393SOL     OW43010   3.012   6.504   0.245
80393SOL    HW143011   3.019   6.478   0.337
80393SOL    HW243012   3.054   6.434   0.196
80394SOL     OW43013   4.338   2.780  13.983
80394SOL    HW143014   4.308   2.766  14.072
80394SOL    HW243015   4.259   2.773  13.929
80395SOL     OW43016   6.681   6.336  13.067
80395SOL    HW143017   6.744   6.269  13.095
80395SOL    HW243018   6.665   6.317  12.975
80396SOL     OW43019  12.389   9.789   2.912
80396SOL    HW143020  12.366   9.881   2.920
80396SOL    HW243021  12.447   9.773   2.987
80397SOL     OW43022  10.738  14.786   1.136
80397SOL    HW143023  10.732  14.816   1.227
80397SOL    HW243024  10.650  14.754   1.116
80398SOL     OW43025  10.161   8.901  11.020
80398SOL    HW143026  10.139   8.976  10.965
80398SOL    HW243027  10.139   8.824  10.968
80399SOL     OW43028   9.290   5.351  10.555
80399SOL    HW143029   9.320   5.432  10.597
80399SOL    HW243030   9.328   5.281  10.609
80400SOL     OW43031  14.853   7.669   4.515
80400SOL    HW143032  14.838   7.744   4.458
80400SOL    HW243033  14.864   7.706   4.602
80401SOL     OW43034   6.943   1.271   3.009
80401SOL    HW143035   6.920   1.338   3.073
80401SOL    HW243036   7.022   1.305   2.966
80402SOL     OW43037   4.179   5.656  14.118
80402SOL    HW143038   4.131   5.586  14.076
80402SOL    HW243039   4.251   5.676  14.058
80403SOL     OW43040   2.372   3.693   0.643
80403SOL    HW143041   2.299   3.632   0.639
80403SOL    HW243042   2.340   3.773   0.602
80404SOL     OW43043  14.402   9.825   6.603
80404SOL    HW143044  14.342   9.750   6.610
80404SOL    HW243045  14.488   9.786   6.592
80405SOL     OW43046  13.523  10.275  12.375
80405SOL    HW143047  13.459  10.205  12.383
80405SOL    HW243048  13.603  10.240  12.413
80406SOL     OW43049  14.718   2.963   5.652
80406SOL    HW143050  14.747   2.872   5.661
80406SOL    HW243051  14.757   2.993   5.570
80407SOL     OW43052   1.592   2.157  13.768
80407SOL    HW143053   1.608   2.072  13.810
80407SOL    HW243054   1.504   2.181  13.795
80408SOL     OW43055  12.751   3.760  10.144
80408SOL    HW143056  12.670   3.771  10.096
80408SOL    HW243057  12.812   3.822  10.104
80409SOL     OW43058   2.581   0.081   6.306
80409SOL    HW143059   2.580   0.117   6.395
80409SOL    HW243060   2.519   0.008   6.310
80410SOL     OW43061   7.067   6.326   7.588
80410SOL    HW143062   7.153   6.328   7.630
80410SOL    HW243063   7.033   6.415   7.599
80411SOL     OW43064   2.521   8.890  10.860
80411SOL    HW143065   2.523   8.796  10.876
80411SOL    HW243066   2.427   8.911  10.855
80412SOL     OW43067   0.284   2.773  13.602
80412SOL    HW143068   0.375   2.794  13.580
80412SOL    HW243069   0.242   2.858  13.612
80413SOL     OW43070   5.617   8.758   6.565
80413SOL    HW143071   5.593   8.830   6.624
80413SOL    HW243072   5.657   8.692   6.623
80414SOL     OW43073  14.698   9.468  12.668
80414SOL    HW143074  14.726   9.500  12.582
80414SOL    HW243075  14.753   9.392  12.685
80415SOL     OW43076   4.702   5.391  10.836
80415SOL    HW143077   4.666   5.475  10.865
80415SOL    HW243078   4.773   5.373  10.896
80416SOL     OW43079   7.086   3.868   7.236
80416SOL    HW143080   7.153   3.922   7.194
80416SOL    HW243081   7.043   3.928   7.297
80417SOL     OW43082  13.171  10.345   5.237
80417SOL    HW143083  13.185  10.285   5.310
80417SOL    HW243084  13.110  10.298   5.179
80418SOL     OW43085   6.495   5.295  13.787
80418SOL    HW143086   6.565   5.277  13.850
80418SOL    HW243087   6.540   5.316  13.706
80419SOL     OW43088  14.036  13.050   7.988
80419SOL    HW143089  14.064  13.066   7.898
80419SOL    HW243090  14.108  12.999   8.027
80420SOL     OW43091   7.317   2.375  10.580
80420SOL    HW143092   7.290   2.334  10.662
80420SOL    HW243093   7.349   2.461  10.606
80421SOL     OW43094   5.332   6.517   0.985
80421SOL    HW143095   5.303   6.475   0.904
80421SOL    HW243096   5.254   6.519   1.041
80422SOL     OW43097  10.695  14.356   9.092
80422SOL    HW143098  10.728  14.443   9.110
80422SOL    HW243099  10.639  14.335   9.167
80423SOL     OW43100   4.303   1.820  11.277
80423SOL    HW143101   4.330   1.728  11.274
80423SOL    HW243102   4.224   1.820  11.330
80424SOL     OW43103   0.279  14.034   2.393
80424SOL    HW143104   0.267  14.084   2.474
80424SOL    HW243105   0.265  13.943   2.419
80425SOL     OW43106  13.085  10.108  11.297
80425SOL    HW143107  13.146  10.040  11.326
80425SOL    HW243108  13.098  10.179  11.360
80426SOL     OW43109   3.933   1.771   9.060
80426SOL    HW143110   3.918   1.863   9.081
80426SOL    HW243111   3.861   1.725   9.102
80427SOL     OW43112  12.573   9.061   3.028
80427SOL    HW143113  12.655   9.013   3.024
80427SOL    HW243114  12.566   9.088   3.119
80428SOL     OW43115   7.032  10.972   3.912
80428SOL    HW143116   7.024  11.038   3.844
80428SOL    HW243117   6.970  10.999   3.979
80429SOL     OW43118  13.895   9.794  10.664
80429SOL    HW143119  13.935   9.880  10.675
80429SOL    HW243120  13.801   9.813  10.655
80430SOL     OW43121  12.362   2.023  12.233
80430SOL    HW143122  12.449   1.992  12.210
80430SOL    HW243123  12.311   1.943  12.247
80431SOL     OW43124  12.328   8.317   1.030
80431SOL    HW143125  12.276   8.308   1.110
80431SOL    HW243126  12.266   8.307   0.959
80432SOL     OW43127   6.715   6.491   8.011
80432SOL    HW143128   6.699   6.478   8.105
80432SOL    HW243129   6.733   6.404   7.977
80433SOL     OW43130   6.258  13.578  13.752
80433SOL    HW143131   6.238  13.515  13.821
80433SOL    HW243132   6.199  13.652  13.769
80434SOL     OW43133  12.088   7.559   5.548
80434SOL    HW143134  12.166   7.578   5.495
80434SOL    HW243135  12.032   7.508   5.489
80435SOL     OW43136   7.619  14.168   8.393
80435SOL    HW143137   7.573  14.085   8.404
80435SOL    HW243138   7.665  14.159   8.310
80436SOL     OW43139   9.473  14.194  12.392
80436SOL    HW143140   9.473  14.237  12.477
80436SOL    HW243141   9.530  14.248  12.337
80437SOL     OW43142   5.910  12.433   6.562
80437SOL    HW143143   5.941  12.369   6.626
80437SOL    HW243144   5.965  12.419   6.485
80438SOL     OW43145   7.364   7.269   2.871
80438SOL    HW143146   7.406   7.342   2.825
80438SOL    HW243147   7.280   7.305   2.901
80439SOL     OW43148   9.182  12.162  13.023
80439SOL    HW143149   9.151  12.088  13.074
80439SOL    HW243150   9.153  12.144  12.934
80440SOL     OW43151   5.227   8.727  11.503
80440SOL    HW143152   5.223   8.706  11.409
80440SOL    HW243153   5.149   8.687  11.540
80441SOL     OW43154  14.253   7.507  11.629
80441SOL    HW143155  14.256   7.602  11.636
80441SOL    HW243156  14.345   7.480  11.627
80442SOL     OW43157  11.097   5.156   7.203
80442SOL    HW143158  11.158   5.089   7.232
80442SOL    HW243159  11.020   5.143   7.258
80443SOL     OW43160   2.614   6.106   7.588
80443SOL    HW143161   2.520   6.110   7.605
80443SOL    HW243162   2.646   6.037   7.645
80444SOL     OW43163   9.380  10.123  14.115
80444SOL    HW143164   9.407  10.197  14.170
80444SOL    HW243165   9.304  10.087  14.160
80445SOL     OW43166   2.350   1.172   7.707
80445SOL    HW143167   2.285   1.172   7.637
80445SOL    HW243168   2.354   1.081   7.737
80446SOL     OW43169   2.985   4.551   0.405
80446SOL    HW143170   3.016   4.478   0.458
80446SOL    HW243171   3.057   4.614   0.407
80447SOL     OW43172  12.140   4.004   2.538
80447SOL    HW143173  12.118   4.065   2.467
80447SOL    HW243174  12.074   4.020   2.605
80448SOL     OW43175   1.501   2.732   9.273
80448SOL    HW143176   1.458   2.710   9.191
80448SOL    HW243177   1.454   2.680   9.339
80449SOL     OW43178   9.324   2.883   9.817
80449SOL    HW143179   9.410   2.926   9.807
80449SOL    HW243180   9.294   2.870   9.727
80450SOL     OW43181   7.580   6.936   6.817
80450SOL    HW143182   7.576   6.841   6.806
80450SOL    HW243183   7.632   6.948   6.897
80451SOL     OW43184   9.097  11.673  14.318
80451SOL    HW143185   9.184  11.666  14.358
80451SOL    HW243186   9.110  11.731  14.243
80452SOL     OW43187   4.455   6.962   7.442
80452SOL    HW143188   4.495   7.029   7.498
80452SOL    HW243189   4.424   6.895   7.503
80453SOL     OW43190  12.573  11.220   3.842
80453SOL    HW143191  12.636  11.222   3.770
80453SOL    HW243192  12.536  11.308   3.845
80454SOL     OW43193  13.414  14.470  10.424
80454SOL    HW143194  13.412  14.535  10.354
80454SOL    HW243195  13.452  14.393  10.384
80455SOL     OW43196  11.394   3.042   2.181
80455SOL    HW143197  11.382   2.948   2.194
80455SOL    HW243198  11.443   3.049   2.099
80456SOL     OW43199   5.272   7.826   3.061
80456SOL    HW143200   5.331   7.856   3.130
80456SOL    HW243201   5.191   7.875   3.075
80457SOL     OW43202  14.310   7.194   8.384
80457SOL    HW143203  14.369   7.121   8.362
80457SOL    HW243204  14.254   7.203   8.307
80458SOL     OW43205   3.012   0.022  10.724
80458SOL    HW143206   3.041  14.841  10.798
80458SOL    HW243207   3.058   0.106  10.735
80459SOL     OW43208   1.948   5.233   5.570
80459SOL    HW143209   1.996   5.275   5.499
80459SOL    HW243210   1.883   5.179   5.525
80460SOL     OW43211   1.520   2.207   8.062
80460SOL    HW143212   1.508   2.220   7.968
80460SOL    HW243213   1.464   2.132   8.083
80461SOL     OW43214   2.117   1.684  12.650
80461SOL    HW143215   2.046   1.730  12.696
80461SOL    HW243216   2.108   1.593  12.677
80462SOL     OW43217  14.567   3.616   8.650
80462SOL    HW143218  14.535   3.693   8.604
80462SOL    HW243219  14.544   3.631   8.742
80463SOL     OW43220  13.912   6.343  10.056
80463SOL    HW143221  13.917   6.257  10.014
80463SOL    HW243222  13.829   6.380  10.026
80464SOL     OW43223  12.097   4.180  11.345
80464SOL    HW143224  12.006   4.151  11.342
80464SOL    HW243225  12.121   4.173  11.437
80465SOL     OW43226   7.795   3.279   3.440
80465SOL    HW143227   7.777   3.367   3.407
80465SOL    HW243228   7.845   3.237   3.370
80466SOL     OW43229  14.436   9.763   0.716
80466SOL    HW143230  14.521   9.736   0.752
80466SOL    HW243231  14.454   9.779   0.624
80467SOL     OW43232   5.983  11.576   4.512
80467SOL    HW143233   5.991  11.557   4.606
80467SOL    HW243234   5.985  11.490   4.470
80468SOL     OW43235  13.593   1.690   5.651
80468SOL    HW143236  13.632   1.745   5.719
80468SOL    HW243237  13.664   1.674   5.589
80469SOL     OW43238   0.255  12.410   2.094
80469SOL    HW143239   0.180  12.469   2.091
80469SOL    HW243240   0.236  12.343   2.028
80470SOL     OW43241   9.185  11.247  12.576
80470SOL    HW143242   9.173  11.159  12.609
80470SOL    HW243243   9.240  11.290  12.641
80471SOL     OW43244   3.911   0.869   3.616
80471SOL    HW143245   3.828   0.845   3.656
80471SOL    HW243246   3.887   0.925   3.542
80472SOL     OW43247   5.585   1.749  11.867
80472SOL    HW143248   5.597   1.758  11.773
80472SOL    HW243249   5.503   1.795  11.885
80473SOL     OW43250  11.959  12.745  14.038
80473SOL    HW143251  11.961  12.769  13.946
80473SOL    HW243252  12.039  12.694  14.052
80474SOL     OW43253  12.823   6.792   6.815
80474SOL    HW143254  12.822   6.886   6.801
80474SOL    HW243255  12.753   6.759   6.758
80475SOL     OW43256   1.946   7.212   8.183
80475SOL    HW143257   1.912   7.147   8.121
80475SOL    HW243258   1.992   7.160   8.249
80476SOL     OW43259  11.934   6.194   8.724
80476SOL    HW143260  11.904   6.161   8.809
80476SOL    HW243261  11.933   6.118   8.667
80477SOL     OW43262  12.645   9.901  12.180
80477SOL    HW143263  12.613   9.812  12.193
80477SOL    HW243264  12.579   9.957  12.222
80478SOL     OW43265  10.147  13.597   7.115
80478SOL    HW143266  10.098  13.604   7.197
80478SOL    HW243267  10.160  13.687   7.087
80479SOL     OW43268   4.770   3.715  14.590
80479SOL    HW143269   4.808   3.763  14.663
80479SOL    HW243270   4.735   3.783  14.532
80480SOL     OW43271   8.946   2.252   1.097
80480SOL    HW143272   8.927   2.327   1.153
80480SOL    HW243273   8.861   2.210   1.084
80481SOL     OW43274   5.037  13.588  13.634
80481SOL    HW143275   5.090  13.666  13.614
80481SOL    HW243276   5.097  13.527  13.675
80482SOL     OW43277   2.892   4.422   7.376
80482SOL    HW143278   2.813   4.441   7.426
80482SOL    HW243279   2.885   4.329   7.354
80483SOL     OW43280  12.909   9.705   9.530
80483SOL    HW143281  12.989   9.665   9.563
80483SOL    HW243282  12.860   9.730   9.609
80484SOL     OW43283   6.860   6.834   2.534
80484SOL    HW143284   6.895   6.862   2.619
80484SOL    HW243285   6.812   6.910   2.501
80485SOL     OW43286   8.678   2.967   4.894
80485SOL    HW143287   8.687   2.966   4.799
80485SOL    HW243288   8.744   2.905   4.925
80486SOL     OW43289  11.995   3.937   6.627
80486SOL    HW143290  12.054   3.868   6.599
80486SOL    HW243291  11.967   3.911   6.715
80487SOL     OW43292   3.544   7.347  10.481
80487SOL    HW143293   3.519   7.439  10.480
80487SOL    HW243294   3.468   7.302  10.518
80488SOL     OW43295   1.102  14.198   6.493
80488SOL    HW143296   1.148  14.130   6.443
80488SOL    HW243297   1.152  14.207   6.574
80489SOL     OW43298  14.713  11.006   0.193
80489SOL    HW143299  14.750  11.094   0.192
80489SOL    HW243300  14.633  11.014   0.245
80490SOL     OW43301   6.025   2.655   7.592
80490SOL    HW143302   6.002   2.678   7.682
80490SOL    HW243303   5.966   2.583   7.570
80491SOL     OW43304   2.689   3.179  13.069
80491SOL    HW143305   2.692   3.274  13.053
80491SOL    HW243306   2.779   3.149  13.056
80492SOL     OW43307   1.153  13.487   5.362
80492SOL    HW143308   1.102  13.565   5.381
80492SOL    HW243309   1.117  13.420   5.421
80493SOL     OW43310   0.943   2.118   6.111
80493SOL    HW143311   0.973   2.164   6.033
80493SOL    HW243312   1.010   2.051   6.127
80494SOL     OW43313   6.339   4.109   1.690
80494SOL    HW143314   6.396   4.176   1.727
80494SOL    HW243315   6.345   4.036   1.752
80495SOL     OW43316   6.095   6.943  10.411
80495SOL    HW143317   6.008   6.946  10.450
80495SOL    HW243318   6.095   7.014  10.347
80496SOL     OW43319  14.578   0.654   5.828
80496SOL    HW143320  14.560   0.714   5.900
80496SOL    HW243321  14.564   0.567   5.864
80497SOL     OW43322  14.008  11.276   0.240
80497SOL    HW143323  13.998  11.350   0.179
80497SOL    HW243324  13.921  11.238   0.246
80498SOL     OW43325  14.302  12.639   4.120
80498SOL    HW143326  14.376  12.585   4.148
80498SOL    HW243327  14.232  12.619   4.182
80499SOL     OW43328  14.184   7.125   0.503
80499SOL    HW143329  14.120   7.108   0.572
80499SOL    HW243330  14.263   7.080   0.532
80500SOL     OW43331   8.758  11.975   1.422
80500SOL    HW143332   8.663  11.963   1.413
80500SOL    HW243333   8.778  12.049   1.366
80501SOL     OW43334   3.041   7.827   0.596
80501SOL    HW143335   3.128   7.864   0.583
80501SOL    HW243336   3.007   7.813   0.508
80502SOL     OW43337   7.381   5.006  10.066
80502SOL    HW143338   7.445   5.002   9.995
80502SOL    HW243339   7.424   4.963  10.140
80503SOL     OW43340   0.571  11.213   5.677
80503SOL    HW143341   0.622  11.243   5.602
80503SOL    HW243342   0.497  11.274   5.682
80504SOL     OW43343   3.305   9.127   3.850
80504SOL    HW143344   3.391   9.111   3.890
80504SOL    HW243345   3.242   9.097   3.915
80505SOL     OW43346   1.295  10.071   9.108
80505SOL    HW143347   1.340  10.154   9.123
80505SOL    HW243348   1.347  10.006   9.155
80506SOL     OW43349   3.420  13.270   0.499
80506SOL    HW143350   3.434  13.355   0.538
80506SOL    HW243351   3.504  13.225   0.508
80507SOL     OW43352   5.597  12.101  14.354
80507SOL    HW143353   5.628  12.037  14.290
80507SOL    HW243354   5.627  12.185  14.320
80508SOL     OW43355   0.423  10.855   7.366
80508SOL    HW143356   0.328  10.863   7.352
80508SOL    HW243357   0.460  10.858   7.278
80509SOL     OW43358   0.704   5.518   4.814
80509SOL    HW143359   0.740   5.434   4.842
80509SOL    HW243360   0.778   5.564   4.773
80510SOL     OW43361   0.471   7.855   9.898
80510SOL    HW143362   0.430   7.770   9.883
80510SOL    HW243363   0.500   7.851   9.990
80511SOL     OW43364   8.763  10.778   1.064
80511SOL    HW143365   8.711  10.805   1.140
80511SOL    HW243366   8.711  10.709   1.022
80512SOL     OW43367   6.635   4.325   7.527
80512SOL    HW143368   6.723   4.291   7.538
80512SOL    HW243369   6.615   4.310   7.434
80513SOL     OW43370  14.213  14.649   9.025
80513SOL    HW143371  14.179  14.701   8.953
80513SOL    HW243372  14.149  14.578   9.036
80514SOL     OW43373   1.226   8.495   3.674
80514SOL    HW143374   1.180   8.578   3.661
80514SOL    HW243375   1.248   8.466   3.585
80515SOL     OW43376   1.254   8.257  11.191
80515SOL    HW143377   1.346   8.233  11.202
80515SOL    HW243378   1.232   8.223  11.104
80516SOL     OW43379   2.428  13.507   7.831
80516SOL    HW143380   2.453  13.559   7.907
80516SOL    HW243381   2.511  13.478   7.793
80517SOL     OW43382   0.604  11.093   9.539
80517SOL    HW143383   0.551  11.013   9.541
80517SOL    HW243384   0.560  11.150   9.476
80518SOL     OW43385   0.623   9.291   1.928
80518SOL    HW143386   0.531   9.310   1.910
80518SOL    HW243387   0.646   9.350   2.000
80519SOL     OW43388   7.076   6.433   8.005
80519SOL    HW143389   7.092   6.476   8.089
80519SOL    HW243390   7.151   6.457   7.952
80520SOL     OW43391   0.600   8.888   2.225
80520SOL    HW143392   0.508   8.910   2.215
80520SOL    HW243393   0.613   8.879   2.319
80521SOL     OW43394   3.597   7.358   3.337
80521SOL    HW143395   3.670   7.339   3.278
80521SOL    HW243396   3.602   7.453   3.350
80522SOL     OW43397   7.568   5.199   1.629
80522SOL    HW143398   7.625   5.205   1.706
80522SOL    HW243399   7.484   5.234   1.659
80523SOL     OW43400   9.069   8.499   7.986
80523SOL    HW143401   9.031   8.481   7.900
80523SOL    HW243402   8.995   8.494   8.047
80524SOL     OW43403   8.204   7.479  10.997
80524SOL    HW143404   8.300   7.472  10.993
80524SOL    HW243405   8.176   7.460  10.907
80525SOL     OW43406   9.918   6.805   4.826
80525SOL    HW143407   9.978   6.862   4.874
80525SOL    HW243408   9.833   6.847   4.834
80526SOL     OW43409   9.878  13.634   3.028
80526SOL    HW143410   9.832  13.714   3.056
80526SOL    HW243411   9.904  13.592   3.110
80527SOL     OW43412   4.169   9.691   6.236
80527SOL    HW143413   4.154   9.608   6.282
80527SOL    HW243414   4.168   9.667   6.144
80528SOL     OW43415  13.759   3.318   5.104
80528SOL    HW143416  13.768   3.348   5.195
80528SOL    HW243417  13.679   3.359   5.073
80529SOL     OW43418   0.893   9.822   5.771
80529SOL    HW143419   0.807   9.857   5.793
80529SOL    HW243420   0.940   9.897   5.733
80530SOL     OW43421   0.905   6.043   9.174
80530SOL    HW143422   0.895   6.062   9.080
80530SOL    HW243423   0.865   5.957   9.186
80531SOL     OW43424   6.196   6.045   8.189
80531SOL    HW143425   6.210   6.119   8.130
80531SOL    HW243426   6.120   5.999   8.153
80532SOL     OW43427   4.109   9.956  12.953
80532SOL    HW143428   4.156   9.874  12.968
80532SOL    HW243429   4.019   9.929  12.938
80533SOL     OW43430  10.845   8.089  11.155
80533SOL    HW143431  10.787   8.103  11.230
80533SOL    HW243432  10.810   8.147  11.088
80534SOL     OW43433   1.231   5.987  12.993
80534SOL    HW143434   1.146   5.968  13.034
80534SOL    HW243435   1.214   6.063  12.938
80535SOL     OW43436  13.641   9.574  12.540
80535SOL    HW143437  13.650   9.669  12.526
80535SOL    HW243438  13.674   9.536  12.458
80536SOL     OW43439  14.155   6.196   2.805
80536SOL    HW143440  14.066   6.166   2.823
80536SOL    HW243441  14.165   6.185   2.710
80537SOL     OW43442  11.796  13.689  10.054
80537SOL    HW143443  11.812  13.627  10.125
80537SOL    HW243444  11.777  13.771  10.099
80538SOL     OW43445  10.358   5.887  13.583
80538SOL    HW143446  10.417   5.937  13.640
80538SOL    HW243447  10.322   5.952  13.523
80539SOL     OW43448  12.119  13.310   5.618
80539SOL    HW143449  12.205  13.351   5.604
80539SOL    HW243450  12.057  13.371   5.578
80540SOL     OW43451   0.478  13.511   5.758
80540SOL    HW143452   0.497  13.440   5.697
80540SOL    HW243453   0.504  13.477   5.843
80541SOL     OW43454   5.100   7.627   1.951
80541SOL    HW143455   5.028   7.674   1.993
80541SOL    HW243456   5.175   7.688   1.958
80542SOL     OW43457   7.929   6.083   5.901
80542SOL    HW143458   7.958   6.079   5.992
80542SOL    HW243459   7.988   6.145   5.859
80543SOL     OW43460   1.799  10.074   5.419
80543SOL    HW143461   1.761  10.109   5.499
80543SOL    HW243462   1.726  10.030   5.376
80544SOL     OW43463   7.680   8.939   6.274
80544SOL    HW143464   7.638   8.989   6.204
80544SOL    HW243465   7.763   8.984   6.290
80545SOL     OW43466   2.526   7.941   0.170
80545SOL    HW143467   2.523   8.006   0.240
80545SOL    HW243468   2.484   7.984   0.095
80546SOL     OW43469  12.372  12.684   7.747
80546SOL    HW143470  12.407  12.639   7.670
80546SOL    HW243471  12.448  12.700   7.802
80547SOL     OW43472  11.454  12.418   9.912
80547SOL    HW143473  11.380  12.365   9.883
80547SOL    HW243474  11.496  12.448   9.832
80548SOL     OW43475   9.393   3.519   5.284
80548SOL    HW143476   9.478   3.527   5.240
80548SOL    HW243477   9.414   3.494   5.374
80549SOL     OW43478   2.875   3.719   0.195
80549SOL    HW143479   2.949   3.780   0.200
80549SOL    HW243480   2.905   3.649   0.137
80550SOL     OW43481   8.631  14.307  11.663
80550SOL    HW143482   8.690  14.273  11.730
80550SOL    HW243483   8.610  14.231  11.609
80551SOL     OW43484   2.823   5.797   0.859
80551SOL    HW143485   2.791   5.833   0.942
80551SOL    HW243486   2.758   5.731   0.835
80552SOL     OW43487   7.808  12.749   3.783
80552SOL    HW143488   7.897  12.736   3.814
80552SOL    HW243489   7.792  12.842   3.793
80553SOL     OW43490   5.659   3.602   5.262
80553SOL    HW143491   5.585   3.635   5.313
80553SOL    HW243492   5.622   3.582   5.176
80554SOL     OW43493  12.346  13.410  13.357
80554SOL    HW143494  12.281  13.376  13.296
80554SOL    HW243495  12.372  13.334  13.410
80555SOL     OW43496  14.411  10.019   8.082
80555SOL    HW143497  14.344   9.960   8.117
80555SOL    HW243498  14.378  10.107   8.100
80556SOL     OW43499   0.084   2.301  13.513
80556SOL    HW143500   0.089   2.380  13.567
80556SOL    HW243501   0.001   2.309  13.467
80557SOL     OW43502   3.900   7.063   9.916
80557SOL    HW143503   3.966   7.067   9.848
80557SOL    HW243504   3.949   7.044   9.996
80558SOL     OW43505   2.819   5.722   3.980
80558SOL    HW143506   2.790   5.800   3.933
80558SOL    HW243507   2.902   5.748   4.022
80559SOL     OW43508   0.892   2.404  11.378
80559SOL    HW143509   0.931   2.491  11.378
80559SOL    HW243510   0.961   2.346  11.410
80560SOL     OW43511  13.526  12.972   3.339
80560SOL    HW143512  13.440  12.944   3.308
80560SOL    HW243513  13.577  12.986   3.259
80561SOL     OW43514  10.502   8.173   1.743
80561SOL    HW143515  10.488   8.167   1.837
80561SOL    HW243516  10.588   8.214   1.734
80562SOL     OW43517   7.896   3.234   7.555
80562SOL    HW143518   7.859   3.299   7.616
80562SOL    HW243519   7.872   3.267   7.468
80563SOL     OW43520  13.677   7.348  11.790
80563SOL    HW143521  13.656   7.433  11.751
80563SOL    HW243522  13.725   7.301  11.721
80564SOL     OW43523   6.908   7.635   9.607
80564SOL    HW143524   6.972   7.703   9.629
80564SOL    HW243525   6.847   7.678   9.548
80565SOL     OW43526  14.831   5.123   3.443
80565SOL    HW143527   0.016   5.090   3.513
80565SOL    HW243528  14.752   5.151   3.488
80566SOL     OW43529   2.826   8.862   5.107
80566SOL    HW143530   2.752   8.896   5.058
80566SOL    HW243531   2.848   8.931   5.169
80567SOL     OW43532   1.961   1.928   2.022
80567SOL    HW143533   1.978   1.956   2.112
80567SOL    HW243534   2.004   1.994   1.968
80568SOL     OW43535   2.583   0.442   9.891
80568SOL    HW143536   2.577   0.381   9.964
80568SOL    HW243537   2.654   0.501   9.915
80569SOL     OW43538  13.666   3.245  11.171
80569SOL    HW143539  13.662   3.173  11.109
80569SOL    HW243540  13.706   3.317  11.123
80570SOL     OW43541   4.946  10.828  13.228
80570SOL    HW143542   5.013  10.760  13.237
80570SOL    HW243543   4.996  10.909  13.218
80571SOL     OW43544   7.316   3.440  13.283
80571SOL    HW143545   7.365   3.390  13.218
80571SOL    HW243546   7.366   3.431  13.364
80572SOL     OW43547  11.578   1.069  11.022
80572SOL    HW143548  11.543   1.051  11.109
80572SOL    HW243549  11.617   1.156  11.029
80573SOL     OW43550   7.342   4.950   5.451
80573SOL    HW143551   7.395   4.963   5.373
80573SOL    HW243552   7.386   4.880   5.500
80574SOL     OW43553   3.909  12.248   4.824
80574SOL    HW143554   3.999  12.246   4.791
80574SOL    HW243555   3.875  12.160   4.808
80575SOL     OW43556   6.898  10.991  10.833
80575SOL    HW143557   6.931  10.988  10.923
80575SOL    HW243558   6.975  10.977  10.778
80576SOL     OW43559   3.342   2.522   8.087
80576SOL    HW143560   3.298   2.542   8.170
80576SOL    HW243561   3.274   2.482   8.033
80577SOL     OW43562   8.524  14.097   4.051
80577SOL    HW143563   8.584  14.029   4.020
80577SOL    HW243564   8.464  14.111   3.977
80578SOL     OW43565  13.695  12.093   2.312
80578SOL    HW143566  13.765  12.102   2.247
80578SOL    HW243567  13.698  12.174   2.362
80579SOL     OW43568   3.860   9.335  14.092
80579SOL    HW143569   3.871   9.319  14.186
80579SOL    HW243570   3.781   9.390  14.087
80580SOL     OW43571   3.961   1.746  12.273
80580SOL    HW143572   3.921   1.685  12.211
80580SOL    HW243573   3.898   1.817  12.283
80581SOL     OW43574  11.523  11.211  14.561
80581SOL    HW143575  11.471  11.131  14.568
80581SOL    HW243576  11.462  11.281  14.583
80582SOL     OW43577   0.817   5.368   5.671
80582SOL    HW143578   0.786   5.456   5.649
80582SOL    HW243579   0.738   5.322   5.699
80583SOL     OW43580   3.519  13.184   1.653
80583SOL    HW143581   3.524  13.200   1.559
80583SOL    HW243582   3.553  13.264   1.693
80584SOL     OW43583   0.630  10.249   8.403
80584SOL    HW143584   0.579  10.319   8.361
80584SOL    HW243585   0.683  10.295   8.469
80585SOL     OW43586   8.748   5.222   4.698
80585SOL    HW143587   8.675   5.209   4.760
80585SOL    HW243588   8.785   5.134   4.686
80586SOL     OW43589   3.117  10.834   9.558
80586SOL    HW143590   3.124  10.749   9.602
80586SOL    HW243591   3.023  10.850   9.551
80587SOL     OW43592  11.554   0.833   3.612
80587SOL    HW143593  11.638   0.869   3.585
80587SOL    HW243594  11.573   0.789   3.695
80588SOL     OW43595   1.495  11.229   8.042
80588SOL    HW143596   1.574  11.222   7.988
80588SOL    HW243597   1.425  11.247   7.980
80589SOL     OW43598  13.936  13.628   2.457
80589SOL    HW143599  13.930  13.559   2.391
80589SOL    HW243600  13.872  13.603   2.524
80590SOL     OW43601   6.818   3.191   3.315
80590SOL    HW143602   6.730   3.203   3.350
80590SOL    HW243603   6.843   3.102   3.342
80591SOL     OW43604   3.584   4.113   6.505
80591SOL    HW143605   3.621   4.091   6.591
80591SOL    HW243606   3.660   4.126   6.449
80592SOL     OW43607   6.991   3.470  14.603
80592SOL    HW143608   6.939   3.535  14.650
80592SOL    HW243609   6.994   3.394  14.661
80593SOL     OW43610  10.005   0.215  13.665
80593SOL    HW143611  10.012   0.134  13.716
80593SOL    HW243612  10.079   0.211  13.604
80594SOL     OW43613   8.629   3.955   6.948
80594SOL    HW143614   8.632   3.881   7.010
80594SOL    HW243615   8.539   3.985   6.952
80595SOL     OW43616   3.713  14.574  13.972
80595SOL    HW143617   3.715  14.497  13.915
80595SOL    HW243618   3.805  14.600  13.979
80596SOL     OW43619   7.061  10.460   8.485
80596SOL    HW143620   7.126  10.519   8.447
80596SOL    HW243621   7.037  10.501   8.568
80597SOL     OW43622  11.985   0.460   1.972
80597SOL    HW143623  11.963   0.530   2.033
80597SOL    HW243624  12.081   0.454   1.976
80598SOL     OW43625  12.380   4.658  12.189
80598SOL    HW143626  12.365   4.578  12.139
80598SOL    HW243627  12.366   4.632  12.280
80599SOL     OW43628  11.665  13.914   8.226
80599SOL    HW143629  11.580  13.944   8.257
80599SOL    HW243630  11.727  13.945   8.292
80600SOL     OW43631   7.873   0.233   4.456
80600SOL    HW143632   7.836   0.237   4.544
80600SOL    HW243633   7.813   0.284   4.402
80601SOL     OW43634  11.106  14.511  14.743
80601SOL    HW143635  11.113  14.416  14.755
80601SOL    HW243636  11.191  14.536  14.706
80602SOL     OW43637   9.979   7.845  11.929
80602SOL    HW143638   9.989   7.761  11.973
80602SOL    HW243639   9.903   7.834  11.871
80603SOL     OW43640  13.652   8.944   7.066
80603SOL    HW143641  13.734   8.991   7.079
80603SOL    HW243642  13.644   8.934   6.971
80604SOL     OW43643   1.295   3.756   0.334
80604SOL    HW143644   1.248   3.763   0.417
80604SOL    HW243645   1.387   3.745   0.360
80605SOL     OW43646   2.322  10.263   2.923
80605SOL    HW143647   2.341  10.309   2.842
80605SOL    HW243648   2.401  10.272   2.975
80606SOL     OW43649   3.931   9.205  14.832
80606SOL    HW143650   3.879   9.282  14.854
80606SOL    HW243651   3.917   9.144   0.032
80607SOL     OW43652   1.233   1.699   8.226
80607SOL    HW143653   1.230   1.683   8.320
80607SOL    HW243654   1.151   1.745   8.207
80608SOL     OW43655   1.179   9.313   2.212
80608SOL    HW143656   1.212   9.225   2.229
80608SOL    HW243657   1.097   9.299   2.165
80609SOL     OW43658   7.732   2.891  10.672
80609SOL    HW143659   7.785   2.868  10.748
80609SOL    HW243660   7.653   2.837  10.680
80610SOL     OW43661  12.467   7.980  13.873
80610SOL    HW143662  12.493   7.892  13.901
80610SOL    HW243663  12.372   7.974  13.859
80611SOL     OW43664  12.141  11.583   8.545
80611SOL    HW143665  12.080  11.636   8.597
80611SOL    HW243666  12.213  11.642   8.525
80612SOL     OW43667  10.486  13.794   3.946
80612SOL    HW143668  10.469  13.846   4.025
80612SOL    HW243669  10.435  13.714   3.958
80613SOL     OW43670   2.275   6.640   6.086
80613SOL    HW143671   2.354   6.586   6.077
80613SOL    HW243672   2.306   6.724   6.118
80614SOL     OW43673   2.220  10.697  14.870
80614SOL    HW143674   2.268  10.708   0.079
80614SOL    HW243675   2.221  10.783  14.829
80615SOL     OW43676  14.265   8.585  10.245
80615SOL    HW143677  14.271   8.549  10.156
80615SOL    HW243678  14.287   8.678  10.235
80616SOL     OW43679   2.277   6.476   7.875
80616SOL    HW143680   2.218   6.461   7.800
80616SOL    HW243681   2.276   6.571   7.886
80617SOL     OW43682   3.941   2.414  10.326
80617SOL    HW143683   3.945   2.483  10.392
80617SOL    HW243684   3.921   2.335  10.375
80618SOL     OW43685   5.790   8.686   7.488
80618SOL    HW143686   5.755   8.601   7.515
80618SOL    HW243687   5.715   8.745   7.490
80619SOL     OW43688   0.361  11.411   1.349
80619SOL    HW143689   0.331  11.502   1.360
80619SOL    HW243690   0.434  11.402   1.410
80620SOL     OW43691  12.873  12.017   9.596
80620SOL    HW143692  12.852  12.059   9.679
80620SOL    HW243693  12.942  12.071   9.559
80621SOL     OW43694   6.664  14.272   9.311
80621SOL    HW143695   6.623  14.268   9.224
80621SOL    HW243696   6.720  14.194   9.315
80622SOL     OW43697  11.870   6.720  13.361
80622SOL    HW143698  11.820   6.696  13.439
80622SOL    HW243699  11.868   6.641  13.306
80623SOL     OW43700   5.507   0.355   0.628
80623SOL    HW143701   5.597   0.377   0.651
80623SOL    HW243702   5.469   0.319   0.708
80624SOL     OW43703   3.975   0.217   3.909
80624SOL    HW143704   4.030   0.258   3.975
80624SOL    HW243705   3.932   0.145   3.956
80625SOL     OW43706   2.693   2.141   9.379
80625SOL    HW143707   2.650   2.123   9.463
80625SOL    HW243708   2.682   2.236   9.367
80626SOL     OW43709   6.942   6.425   1.210
80626SOL    HW143710   6.914   6.515   1.195
80626SOL    HW243711   7.030   6.421   1.173
80627SOL     OW43712  14.185   6.222   3.825
80627SOL    HW143713  14.170   6.295   3.885
80627SOL    HW243714  14.100   6.179   3.819
80628SOL     OW43715   7.253  13.969   0.881
80628SOL    HW143716   7.285  13.914   0.809
80628SOL    HW243717   7.177  13.922   0.914
80629SOL     OW43718   4.828   6.713   5.477
80629SOL    HW143719   4.850   6.789   5.423
80629SOL    HW243720   4.777   6.657   5.419
80630SOL     OW43721  11.771   9.709  14.831
80630SOL    HW143722  11.716   9.738  14.759
80630SOL    HW243723  11.815   9.788  14.862
80631SOL     OW43724   5.002   8.607  14.682
80631SOL    HW143725   4.929   8.668  14.673
80631SOL    HW243726   5.074   8.648  14.635
80632SOL     OW43727  13.348   4.913   9.146
80632SOL    HW143728  13.392   4.842   9.100
80632SOL    HW243729  13.369   4.991   9.095
80633SOL     OW43730   2.189   3.758  14.683
80633SOL    HW143731   2.098   3.727  14.684
80633SOL    HW243732   2.185   3.842  14.638
80634SOL     OW43733   4.648   4.470  11.648
80634SOL    HW143734   4.580   4.403  11.657
80634SOL    HW243735   4.632   4.530  11.721
80635SOL     OW43736   1.700   7.155   6.902
80635SOL    HW143737   1.786   7.178   6.938
80635SOL    HW243738   1.715   7.073   6.856
80636SOL     OW43739  10.786   6.418  13.867
80636SOL    HW143740  10.791   6.364  13.946
80636SOL    HW243741  10.695   6.448  13.865
80637SOL     OW43742   6.241   4.768  11.506
80637SOL    HW143743   6.202   4.827  11.443
80637SOL    HW243744   6.199   4.684  11.490
80638SOL     OW43745  12.400   9.426   4.317
80638SOL    HW143746  12.426   9.517   4.305
80638SOL    HW243747  12.313   9.431   4.358
80639SOL     OW43748  12.143  12.153  14.607
80639SOL    HW143749  12.064  12.201  14.580
80639SOL    HW243750  12.110  12.073  14.648
80640SOL     OW43751  10.581   5.637  12.431
80640SOL    HW143752  10.639   5.565  12.406
80640SOL    HW243753  10.596   5.704  12.365
80641SOL     OW43754   2.406  11.385   7.406
80641SOL    HW143755   2.433  11.471   7.438
80641SOL    HW243756   2.475  11.359   7.346
80642SOL     OW43757  11.438   2.781  11.548
80642SOL    HW143758  11.397   2.734  11.475
80642SOL    HW243759  11.497   2.716  11.588
80643SOL     OW43760   0.151   5.677   2.801
80643SOL    HW143761   0.186   5.627   2.875
80643SOL    HW243762   0.091   5.617   2.757
80644SOL     OW43763  13.837   5.512   1.760
80644SOL    HW143764  13.932   5.500   1.769
80644SOL    HW243765  13.802   5.486   1.845
80645SOL     OW43766  12.771  10.740  10.852
80645SOL    HW143767  12.718  10.806  10.896
80645SOL    HW243768  12.742  10.742  10.761
80646SOL     OW43769   6.266  11.892   7.175
80646SOL    HW143770   6.242  11.876   7.267
80646SOL    HW243771   6.276  11.804   7.137
80647SOL     OW43772   0.644   7.121   7.247
80647SOL    HW143773   0.697   7.180   7.300
80647SOL    HW243774   0.573   7.092   7.306
80648SOL     OW43775   8.299   6.377   7.872
80648SOL    HW143776   8.266   6.333   7.794
80648SOL    HW243777   8.269   6.468   7.863
80649SOL     OW43778  13.306   3.053   6.085
80649SOL    HW143779  13.281   3.136   6.126
80649SOL    HW243780  13.238   3.037   6.020
80650SOL     OW43781   3.049  13.950  10.643
80650SOL    HW143782   3.141  13.964  10.665
80650SOL    HW243783   3.040  13.855  10.635
80651SOL     OW43784   4.215   5.237   4.377
80651SOL    HW143785   4.214   5.196   4.463
80651SOL    HW243786   4.295   5.290   4.375
80652SOL     OW43787  10.781  11.863   9.275
80652SOL    HW143788  10.867  11.840   9.312
80652SOL    HW243789  10.800  11.930   9.209
80653SOL     OW43790   5.325   9.340   5.064
80653SOL    HW143791   5.348   9.433   5.073
80653SOL    HW243792   5.319   9.308   5.154
80654SOL     OW43793  13.547  12.090   5.775
80654SOL    HW143794  13.457  12.093   5.743
80654SOL    HW243795  13.542  12.042   5.857
80655SOL     OW43796  14.483   6.526   1.104
80655SOL    HW143797  14.564   6.545   1.056
80655SOL    HW243798  14.500   6.559   1.192
80656SOL     OW43799  11.645  10.004   9.652
80656SOL    HW143800  11.613   9.915   9.666
80656SOL    HW243801  11.629  10.049   9.735
80657SOL     OW43802   3.186   1.349   4.190
80657SOL    HW143803   3.156   1.430   4.150
80657SOL    HW243804   3.226   1.300   4.118
80658SOL     OW43805   8.303  11.449   8.479
80658SOL    HW143806   8.231  11.480   8.425
80658SOL    HW243807   8.262  11.389   8.541
80659SOL     OW43808  14.495   6.167   7.676
80659SOL    HW143809  14.500   6.106   7.749
80659SOL    HW243810  14.485   6.253   7.716
80660SOL     OW43811   6.086   5.659   2.194
80660SOL    HW143812   6.059   5.604   2.121
80660SOL    HW243813   6.095   5.598   2.267
80661SOL     OW43814   9.275  12.707  10.040
80661SOL    HW143815   9.332  12.758  10.098
80661SOL    HW243816   9.243  12.636  10.095
80662SOL     OW43817   3.494   0.440   4.297
80662SOL    HW143818   3.400   0.425   4.303
80662SOL    HW243819   3.502   0.520   4.244
80663SOL     OW43820   0.362   7.554   5.082
80663SOL    HW143821   0.441   7.579   5.034
80663SOL    HW243822   0.344   7.629   5.139
80664SOL     OW43823   6.498   2.200  13.721
80664SOL    HW143824   6.521   2.199  13.814
80664SOL    HW243825   6.422   2.257  13.716
80665SOL     OW43826   9.842  12.011   5.377
80665SOL    HW143827   9.758  12.044   5.344
80665SOL    HW243828   9.842  11.919   5.351
80666SOL     OW43829  14.599   3.534   6.724
80666SOL    HW143830  14.670   3.577   6.676
80666SOL    HW243831  14.524   3.539   6.665
80667SOL     OW43832  13.765   6.376  11.051
80667SOL    HW143833  13.856   6.347  11.044
80667SOL    HW243834  13.715   6.295  11.064
80668SOL     OW43835   4.964  10.869   5.445
80668SOL    HW143836   5.011  10.938   5.398
80668SOL    HW243837   5.025  10.843   5.514
80669SOL     OW43838  14.446   1.783   7.046
80669SOL    HW143839  14.512   1.829   6.994
80669SOL    HW243840  14.458   1.691   7.025
80670SOL     OW43841  12.275  12.212   7.110
80670SOL    HW143842  12.344  12.160   7.069
80670SOL    HW243843  12.276  12.185   7.202
80671SOL     OW43844   3.951  11.325   6.839
80671SOL    HW143845   3.927  11.340   6.930
80671SOL    HW243846   4.026  11.382   6.824
80672SOL     OW43847   7.963  11.986   9.032
80672SOL    HW143848   8.014  12.061   9.062
80672SOL    HW243849   7.872  12.010   9.051
80673SOL     OW43850  10.548   1.489   1.552
80673SOL    HW143851  10.545   1.557   1.619
80673SOL    HW243852  10.596   1.528   1.480
80674SOL     OW43853   0.641   7.504  14.299
80674SOL    HW143854   0.554   7.530  14.269
80674SOL    HW243855   0.694   7.584  14.292
80675SOL     OW43856  12.063  10.432   1.855
80675SOL    HW143857  12.027  10.372   1.920
80675SOL    HW243858  12.117  10.377   1.799
80676SOL     OW43859  13.960   8.796  13.495
80676SOL    HW143860  14.038   8.796  13.551
80676SOL    HW243861  13.887   8.786  13.557
80677SOL     OW43862  13.919   4.583   5.436
80677SOL    HW143863  13.845   4.587   5.497
80677SOL    HW243864  13.991   4.625   5.484
80678SOL     OW43865  11.529  11.368   4.106
80678SOL    HW143866  11.623  11.351   4.102
80678SOL    HW243867  11.522  11.458   4.137
80679SOL     OW43868   0.910   9.913   3.925
80679SOL    HW143869   0.824   9.917   3.967
80679SOL    HW243870   0.893   9.866   3.843
80680SOL     OW43871  14.711   6.668  14.292
80680SOL    HW143872  14.643   6.612  14.255
80680SOL    HW243873  14.790   6.613  14.291
80681SOL     OW43874   7.616  13.210   8.063
80681SOL    HW143875   7.531  13.169   8.048
80681SOL    HW243876   7.601  13.303   8.047
80682SOL     OW43877  11.665  12.689   7.705
80682SOL    HW143878  11.741  12.724   7.658
80682SOL    HW243879  11.670  12.728   7.792
80683SOL     OW43880   0.420   6.255   2.114
80683SOL    HW143881   0.429   6.341   2.072
80683SOL    HW243882   0.472   6.262   2.194
80684SOL     OW43883   6.991   8.053   1.763
80684SOL    HW143884   7.000   8.068   1.669
80684SOL    HW243885   7.053   8.114   1.803
80685SOL     OW43886   7.798   4.478  10.570
80685SOL    HW143887   7.894   4.472  10.570
80685SOL    HW243888   7.769   4.389  10.552
80686SOL     OW43889   2.174   3.148   1.990
80686SOL    HW143890   2.089   3.114   2.018
80686SOL    HW243891   2.234   3.073   1.999
80687SOL     OW43892   0.337  13.795   3.459
80687SOL    HW143893   0.402  13.859   3.430
80687SOL    HW243894   0.354  13.784   3.553
80688SOL     OW43895   6.556  11.506   0.557
80688SOL    HW143896   6.546  11.559   0.478
80688SOL    HW243897   6.604  11.428   0.528
80689SOL     OW43898   4.547   9.153   9.759
80689SOL    HW143899   4.579   9.194   9.680
80689SOL    HW243900   4.473   9.100   9.731
80690SOL     OW43901   6.368  11.457  10.715
80690SOL    HW143902   6.384  11.381  10.771
80690SOL    HW243903   6.455  11.493  10.698
80691SOL     OW43904   2.026   1.509  13.036
80691SOL    HW143905   2.033   1.481  12.945
80691SOL    HW243906   2.076   1.590  13.040
80692SOL     OW43907   5.345   3.014   5.393
80692SOL    HW143908   5.285   2.954   5.347
80692SOL    HW243909   5.288   3.068   5.447
80693SOL     OW43910  13.265   6.954  13.312
80693SOL    HW143911  13.200   6.985  13.249
80693SOL    HW243912  13.246   7.004  13.392
80694SOL     OW43913   1.175  10.297   6.094
80694SOL    HW143914   1.118  10.282   6.170
80694SOL    HW243915   1.246  10.233   6.104
80695SOL     OW43916   9.336  13.257  10.944
80695SOL    HW143917   9.278  13.331  10.930
80695SOL    HW243918   9.325  13.235  11.037
80696SOL     OW43919   1.051  14.375  14.708
80696SOL    HW143920   1.001  14.309  14.661
80696SOL    HW243921   1.022  14.458  14.671
80697SOL     OW43922   3.535  14.234   9.499
80697SOL    HW143923   3.456  14.187   9.528
80697SOL    HW243924   3.524  14.323   9.533
80698SOL     OW43925   4.880   9.355  10.135
80698SOL    HW143926   4.876   9.381  10.043
80698SOL    HW243927   4.912   9.265  10.133
80699SOL     OW43928  10.366  10.525   7.778
80699SOL    HW143929  10.316  10.456   7.821
80699SOL    HW243930  10.383  10.589   7.848
80700SOL     OW43931   4.492  11.731   1.703
80700SOL    HW143932   4.517  11.642   1.729
80700SOL    HW243933   4.542  11.747   1.623
80701SOL     OW43934   7.546   5.044   4.060
80701SOL    HW143935   7.506   4.959   4.078
80701SOL    HW243936   7.488   5.084   3.995
80702SOL     OW43937   3.505   9.486   7.143
80702SOL    HW143938   3.502   9.505   7.050
80702SOL    HW243939   3.413   9.474   7.168
80703SOL     OW43940   1.777  10.121  14.703
80703SOL    HW143941   1.845  10.074  14.750
80703SOL    HW243942   1.800  10.214  14.712
80704SOL     OW43943  12.188   3.725   7.553
80704SOL    HW143944  12.241   3.657   7.594
80704SOL    HW243945  12.250   3.794   7.529
80705SOL     OW43946  10.225   2.200   5.838
80705SOL    HW143947  10.199   2.264   5.771
80705SOL    HW243948  10.193   2.239   5.920
80706SOL     OW43949   8.012  10.564   3.045
80706SOL    HW143950   7.923  10.566   3.081
80706SOL    HW243951   8.069  10.559   3.122
80707SOL     OW43952   2.738   7.125   6.112
80707SOL    HW143953   2.660   7.091   6.157
80707SOL    HW243954   2.763   7.056   6.052
80708SOL     OW43955  10.921   8.257   5.926
80708SOL    HW143956  11.015   8.269   5.942
80708SOL    HW243957  10.904   8.167   5.952
80709SOL     OW43958  10.594  13.896  14.391
80709SOL    HW143959  10.688  13.882  14.403
80709SOL    HW243960  10.588  13.947  14.310
80710SOL     OW43961  11.670   7.528   8.755
80710SOL    HW143962  11.756   7.568   8.770
80710SOL    HW243963  11.680   7.439   8.789
80711SOL     OW43964  10.618   1.222  11.227
80711SOL    HW143965  10.651   1.184  11.308
80711SOL    HW243966  10.529   1.251  11.248
80712SOL     OW43967  13.520  12.023   4.285
80712SOL    HW143968  13.454  12.050   4.222
80712SOL    HW243969  13.592  11.991   4.231
80713SOL     OW43970   7.835  10.139   5.518
80713SOL    HW143971   7.861  10.107   5.605
80713SOL    HW243972   7.884  10.084   5.457
80714SOL     OW43973  13.490   4.118   5.791
80714SOL    HW143974  13.413   4.074   5.825
80714SOL    HW243975  13.489   4.204   5.832
80715SOL     OW43976   7.084   1.348   9.649
80715SOL    HW143977   7.087   1.307   9.735
80715SOL    HW243978   7.014   1.301   9.603
80716SOL     OW43979  10.113  13.833   7.405
80716SOL    HW143980  10.117  13.742   7.434
80716SOL    HW243981  10.056  13.832   7.328
80717SOL     OW43982  10.863  11.296  14.848
80717SOL    HW143983  10.866  11.228   0.043
80717SOL    HW243984  10.784  11.345  14.867
80718SOL     OW43985  10.198  14.162  14.503
80718SOL    HW143986  10.126  14.178  14.442
80718SOL    HW243987  10.277  14.188  14.454
80719SOL     OW43988  12.793   9.050   0.747
80719SOL    HW143989  12.868   9.085   0.699
80719SOL    HW243990  12.769   9.119   0.808
80720SOL     OW43991   7.623  14.165   3.532
80720SOL    HW143992   7.688  14.197   3.594
80720SOL    HW243993   7.670  14.158   3.449
80721SOL     OW43994  12.970   6.753  14.160
80721SOL    HW143995  13.000   6.664  14.140
80721SOL    HW243996  13.050   6.802  14.177
80722SOL     OW43997   8.180   8.179  14.809
80722SOL    HW143998   8.194   8.255  14.754
80722SOL    HW243999   8.161   8.108  14.748
80723SOL     OW44000   0.726   9.056   1.416
80723SOL    HW144001   0.657   9.004   1.375
80723SOL    HW244002   0.692   9.077   1.503
80724SOL     OW44003  14.670   1.497  13.264
80724SOL    HW144004  14.636   1.499  13.353
80724SOL    HW244005  14.648   1.410  13.231
80725SOL     OW44006   9.382  13.967  12.547
80725SOL    HW144007   9.309  14.003  12.496
80725SOL    HW244008   9.458  13.977  12.490
80726SOL     OW44009  14.365   7.174   3.723
80726SOL    HW144010  14.379   7.200   3.631
80726SOL    HW244011  14.449   7.137   3.750
80727SOL     OW44012   5.453   1.605  12.956
80727SOL    HW144013   5.368   1.566  12.937
80727SOL    HW244014   5.446   1.633  13.047
80728SOL     OW44015   3.057  13.150   3.913
80728SOL    HW144016   2.991  13.083   3.935
80728SOL    HW244017   3.131  13.130   3.969
80729SOL     OW44018   2.518   3.384  13.849
80729SOL    HW144019   2.491   3.297  13.878
80729SOL    HW244020   2.545   3.429  13.930
80730SOL     OW44021   9.653   0.843  13.291
80730SOL    HW144022   9.638   0.835  13.197
80730SOL    HW244023   9.615   0.928  13.314
80731SOL     OW44024   3.715  14.658   8.169
80731SOL    HW144025   3.632  14.697   8.199
80731SOL    HW244026   3.694  14.620   8.084
80732SOL     OW44027   7.515  11.250   2.220
80732SOL    HW144028   7.603  11.275   2.246
80732SOL    HW244029   7.512  11.155   2.233
80733SOL     OW44030  12.353   8.904   3.765
80733SOL    HW144031  12.298   8.830   3.792
80733SOL    HW244032  12.339   8.970   3.833
80734SOL     OW44033   5.089   7.164   1.176
80734SOL    HW144034   5.178   7.130   1.174
80734SOL    HW244035   5.033   7.086   1.179
80735SOL     OW44036   1.266   5.398   5.144
80735SOL    HW144037   1.361   5.381   5.146
80735SOL    HW244038   1.241   5.405   5.236
80736SOL     OW44039   3.346   8.209   6.956
80736SOL    HW144040   3.416   8.149   6.980
80736SOL    HW244041   3.385   8.296   6.965
80737SOL     OW44042   2.356   0.177   2.930
80737SOL    HW144043   2.307   0.141   3.004
80737SOL    HW244044   2.289   0.214   2.872
80738SOL     OW44045  11.552   7.207   2.614
80738SOL    HW144046  11.597   7.123   2.599
80738SOL    HW244047  11.494   7.216   2.538
80739SOL     OW44048  10.968   6.782  13.900
80739SOL    HW144049  11.005   6.699  13.930
80739SOL    HW244050  10.879   6.783  13.936
80740SOL     OW44051  13.339  13.051  12.100
80740SOL    HW144052  13.407  12.984  12.109
80740SOL    HW244053  13.295  13.029  12.018
80741SOL     OW44054   0.338   0.555   9.784
80741SOL    HW144055   0.318   0.640   9.823
80741SOL    HW244056   0.427   0.536   9.814
80742SOL     OW44057  12.861   4.688   5.909
80742SOL    HW144058  12.918   4.673   5.984
80742SOL    HW244059  12.916   4.668   5.833
80743SOL     OW44060   7.772  14.229   5.041
80743SOL    HW144061   7.755  14.135   5.046
80743SOL    HW244062   7.753  14.253   4.951
80744SOL     OW44063   4.959  14.395  10.676
80744SOL    HW144064   5.024  14.380  10.607
80744SOL    HW244065   4.994  14.467  10.728
80745SOL     OW44066   5.061  11.214   6.547
80745SOL    HW144067   4.989  11.196   6.607
80745SOL    HW244068   5.018  11.240   6.465
80746SOL     OW44069  12.957  13.677  10.936
80746SOL    HW144070  12.913  13.683  10.851
80746SOL    HW244071  13.011  13.598  10.930
80747SOL     OW44072  13.818   3.439   1.027
80747SOL    HW144073  13.727   3.418   1.008
80747SOL    HW244074  13.814   3.488   1.110
80748SOL     OW44075  11.285   2.120   9.029
80748SOL    HW144076  11.284   2.205   9.073
80748SOL    HW244077  11.238   2.134   8.947
80749SOL     OW44078   0.485  13.519  12.259
80749SOL    HW144079   0.408  13.481  12.216
80749SOL    HW244080   0.525  13.574  12.192
80750SOL     OW44081  14.671   1.901  12.236
80750SOL    HW144082  14.629   1.968  12.289
80750SOL    HW244083  14.650   1.926  12.146
80751SOL     OW44084   4.539   8.938  12.982
80751SOL    HW144085   4.522   8.860  12.929
80751SOL    HW244086   4.629   8.963  12.958
80752SOL     OW44087   1.163   4.008   2.579
80752SOL    HW144088   1.205   3.974   2.500
80752SOL    HW244089   1.213   4.087   2.601
80753SOL     OW44090  12.679  14.419   5.554
80753SOL    HW144091  12.595  14.426   5.599
80753SOL    HW244092  12.685  14.498   5.501
80754SOL     OW44093   6.239   2.217  11.348
80754SOL    HW144094   6.308   2.266  11.393
80754SOL    HW244095   6.168   2.211  11.411
80755SOL     OW44096  12.224   9.220  14.792
80755SOL    HW144097  12.304   9.258  14.756
80755SOL    HW244098  12.163   9.294  14.798
80756SOL     OW44099   9.887  12.938  14.025
80756SOL    HW144100   9.958  12.982  13.979
80756SOL    HW244101   9.862  12.865  13.968
80757SOL     OW44102   9.601  13.969   8.511
80757SOL    HW144103   9.591  14.020   8.431
80757SOL    HW244104   9.666  14.016   8.562
80758SOL     OW44105   5.282  11.761   3.600
80758SOL    HW144106   5.298  11.791   3.511
80758SOL    HW244107   5.263  11.840   3.650
80759SOL     OW44108   3.927   8.008  13.743
80759SOL    HW144109   3.896   8.082  13.796
80759SOL    HW244110   3.923   8.039  13.653
80760SOL     OW44111   7.262   5.679   6.852
80760SOL    HW144112   7.169   5.690   6.835
80760SOL    HW244113   7.265   5.618   6.926
80761SOL     OW44114  10.111  13.272  12.433
80761SOL    HW144115  10.146  13.360  12.427
80761SOL    HW244116  10.187  13.214  12.425
80762SOL     OW44117   3.827   9.745  14.842
80762SOL    HW144118   3.845   9.734  14.748
80762SOL    HW244119   3.858   9.834  14.862
80763SOL     OW44120   1.988   8.905   7.873
80763SOL    HW144121   2.066   8.958   7.859
80763SOL    HW244122   1.991   8.882   7.966
80764SOL     OW44123  13.769   4.534   3.843
80764SOL    HW144124  13.739   4.456   3.796
80764SOL    HW244125  13.850   4.559   3.799
80765SOL     OW44126   5.148   9.462   2.152
80765SOL    HW144127   5.193   9.423   2.227
80765SOL    HW244128   5.218   9.500   2.099
80766SOL     OW44129   2.570   9.290   0.004
80766SOL    HW144130   2.628   9.264   0.075
80766SOL    HW244131   2.569   9.215  14.817
80767SOL     OW44132   5.916   4.016   8.962
80767SOL    HW144133   5.852   4.081   8.933
80767SOL    HW244134   5.871   3.967   9.031
80768SOL     OW44135   5.023   3.383   3.061
80768SOL    HW144136   5.092   3.432   3.015
80768SOL    HW244137   5.025   3.296   3.022
80769SOL     OW44138   2.392   4.607   7.507
80769SOL    HW144139   2.386   4.527   7.560
80769SOL    HW244140   2.336   4.590   7.431
80770SOL     OW44141   3.220  10.016   5.795
80770SOL    HW144142   3.280   9.979   5.730
80770SOL    HW244143   3.136   9.974   5.778
80771SOL     OW44144   0.167   6.752  14.472
80771SOL    HW144145   0.108   6.821  14.442
80771SOL    HW244146   0.148   6.677  14.415
80772SOL     OW44147  13.822   7.609   6.509
80772SOL    HW144148  13.825   7.645   6.421
80772SOL    HW244149  13.730   7.588   6.524
80773SOL     OW44150   9.727   7.306  14.519
80773SOL    HW144151   9.741   7.236  14.456
80773SOL    HW244152   9.634   7.301  14.540
80774SOL     OW44153   2.198  12.687   0.708
80774SOL    HW144154   2.128  12.745   0.737
80774SOL    HW244155   2.166  12.650   0.626
80775SOL     OW44156  12.551   1.294   5.514
80775SOL    HW144157  12.486   1.361   5.536
80775SOL    HW244158  12.616   1.299   5.584
80776SOL     OW44159   4.660   3.061   0.743
80776SOL    HW144160   4.709   2.987   0.708
80776SOL    HW244161   4.617   3.028   0.822
80777SOL     OW44162  13.655  11.865   2.149
80777SOL    HW144163  13.723  11.803   2.175
80777SOL    HW244164  13.669  11.942   2.204
80778SOL     OW44165  13.045   3.769   5.393
80778SOL    HW144166  12.982   3.837   5.370
80778SOL    HW244167  13.120   3.817   5.427
80779SOL     OW44168   2.094   8.770   4.236
80779SOL    HW144169   2.180   8.806   4.214
80779SOL    HW244170   2.036   8.803   4.167
80780SOL     OW44171   3.406   3.860   6.588
80780SOL    HW144172   3.484   3.910   6.612
80780SOL    HW244173   3.353   3.921   6.537
80781SOL     OW44174  14.835   3.407  13.544
80781SOL    HW144175   0.055   3.433  13.544
80781SOL    HW244176  14.835   3.317  13.576
80782SOL     OW44177   9.355   9.889  11.186
80782SOL    HW144178   9.434   9.836  11.175
80782SOL    HW244179   9.336   9.922  11.098
80783SOL     OW44180   9.286   0.044   6.548
80783SOL    HW144181   9.228   0.091   6.609
80783SOL    HW244182   9.233   0.035   6.469
80784SOL     OW44183   0.987   9.552   0.127
80784SOL    HW144184   0.945   9.526   0.046
80784SOL    HW244185   1.050   9.619   0.101
80785SOL     OW44186   6.679   7.287   1.161
80785SOL    HW144187   6.594   7.275   1.202
80785SOL    HW244188   6.708   7.374   1.191
80786SOL     OW44189   6.395   3.331   4.550
80786SOL    HW144190   6.414   3.248   4.506
80786SOL    HW244191   6.302   3.325   4.573
80787SOL     OW44192   9.961   1.944   6.250
80787SOL    HW144193   9.935   1.925   6.341
80787SOL    HW244194  10.041   1.893   6.238
80788SOL     OW44195   4.182   3.488  14.609
80788SOL    HW144196   4.098   3.524  14.638
80788SOL    HW244197   4.240   3.564  14.605
80789SOL     OW44198  10.798  10.462   4.020
80789SOL    HW144199  10.760  10.428   4.102
80789SOL    HW244200  10.892  10.456   4.034
80790SOL     OW44201   1.340  12.143  13.914
80790SOL    HW144202   1.383  12.143  13.829
80790SOL    HW244203   1.390  12.082  13.968
80791SOL     OW44204  13.106   9.831   7.141
80791SOL    HW144205  13.045   9.867   7.077
80791SOL    HW244206  13.094   9.736   7.136
80792SOL     OW44207  10.282  13.894  14.304
80792SOL    HW144208  10.322  13.853  14.228
80792SOL    HW244209  10.356  13.930  14.353
80793SOL     OW44210   9.135  10.761  13.814
80793SOL    HW144211   9.179  10.840  13.782
80793SOL    HW244212   9.183  10.689  13.775
80794SOL     OW44213  10.008   5.139   2.444
80794SOL    HW144214  10.068   5.213   2.448
80794SOL    HW244215  10.048   5.071   2.498
80795SOL     OW44216   5.773  12.179   1.736
80795SOL    HW144217   5.705  12.123   1.698
80795SOL    HW244218   5.851  12.160   1.684
80796SOL     OW44219   8.761   3.363  10.045
80796SOL    HW144220   8.800   3.351   9.958
80796SOL    HW244221   8.675   3.321  10.039
80797SOL     OW44222   5.681  10.587   6.177
80797SOL    HW144223   5.681  10.558   6.086
80797SOL    HW244224   5.596  10.561   6.212
80798SOL     OW44225  11.598  12.325  13.156
80798SOL    HW144226  11.527  12.263  13.177
80798SOL    HW244227  11.630  12.354  13.242
80799SOL     OW44228   2.153   4.497   0.224
80799SOL    HW144229   2.121   4.465   0.308
80799SOL    HW244230   2.236   4.451   0.211
80800SOL     OW44231   1.437   8.822   4.811
80800SOL    HW144232   1.476   8.869   4.885
80800SOL    HW244233   1.511   8.776   4.770
80801SOL     OW44234   5.760   7.888   7.373
80801SOL    HW144235   5.847   7.870   7.337
80801SOL    HW244236   5.742   7.814   7.431
80802SOL     OW44237   2.716   3.487  11.409
80802SOL    HW144238   2.712   3.480  11.314
80802SOL    HW244239   2.807   3.512  11.428
80803SOL     OW44240   4.136   1.900   3.279
80803SOL    HW144241   4.115   1.807   3.269
80803SOL    HW244242   4.100   1.942   3.201
80804SOL     OW44243   1.408   8.366   7.487
80804SOL    HW144244   1.326   8.336   7.525
80804SOL    HW244245   1.397   8.351   7.393
80805SOL     OW44246  11.085   0.739   6.469
80805SOL    HW144247  11.036   0.746   6.551
80805SOL    HW244248  11.039   0.795   6.407
80806SOL     OW44249  10.908  12.469   6.972
80806SOL    HW144250  10.907  12.553   6.926
80806SOL    HW244251  10.824  12.466   7.018
80807SOL     OW44252   5.859  11.426   5.012
80807SOL    HW144253   5.824  11.495   5.068
80807SOL    HW244254   5.915  11.472   4.949
80808SOL     OW44255   9.211  12.823  13.651
80808SOL    HW144256   9.200  12.902  13.598
80808SOL    HW244257   9.240  12.757  13.589
80809SOL     OW44258   1.561   3.723   0.499
80809SOL    HW144259   1.586   3.701   0.410
80809SOL    HW244260   1.536   3.816   0.495
80810SOL     OW44261  13.744  11.284   6.493
80810SOL    HW144262  13.661  11.265   6.537
80810SOL    HW244263  13.758  11.377   6.508
80811SOL     OW44264  14.030  10.302   6.932
80811SOL    HW144265  13.988  10.217   6.920
80811SOL    HW244266  14.100  10.286   6.995
80812SOL     OW44267   1.811  13.402   0.331
80812SOL    HW144268   1.792  13.463   0.402
80812SOL    HW244269   1.809  13.316   0.372
80813SOL     OW44270   5.289   9.530   5.538
80813SOL    HW144271   5.221   9.493   5.594
80813SOL    HW244272   5.346   9.578   5.598
80814SOL     OW44273   6.685  13.822  12.568
80814SOL    HW144274   6.772  13.837  12.606
80814SOL    HW244275   6.675  13.892  12.503
80815SOL     OW44276   1.649   2.715   4.969
80815SOL    HW144277   1.612   2.763   4.895
80815SOL    HW244278   1.689   2.637   4.930
80816SOL     OW44279   6.839   7.336  14.403
80816SOL    HW144280   6.855   7.415  14.455
80816SOL    HW244281   6.744   7.331  14.394
80817SOL     OW44282  12.997  11.991   2.545
80817SOL    HW144283  12.941  11.990   2.622
80817SOL    HW244284  13.012  12.084   2.528
80818SOL     OW44285   7.733  11.186   7.770
80818SOL    HW144286   7.765  11.130   7.699
80818SOL    HW244287   7.736  11.274   7.735
80819SOL     OW44288   9.740  10.980   4.906
80819SOL    HW144289   9.769  11.014   4.821
80819SOL    HW244290   9.784  10.895   4.913
80820SOL     OW44291  13.733   1.098  10.808
80820SOL    HW144292  13.721   1.011  10.770
80820SOL    HW244293  13.649   1.118  10.849
80821SOL     OW44294  10.601   0.077   3.556
80821SOL    HW144295  10.509   0.062   3.577
80821SOL    HW244296  10.610   0.172   3.552
80822SOL     OW44297   3.049   2.836   7.538
80822SOL    HW144298   3.083   2.783   7.610
80822SOL    HW244299   3.048   2.925   7.571
80823SOL     OW44300   0.510   3.430   3.397
80823SOL    HW144301   0.506   3.393   3.485
80823SOL    HW244302   0.419   3.450   3.375
80824SOL     OW44303   7.747  12.187   9.046
80824SOL    HW144304   7.679  12.212   9.108
80824SOL    HW244305   7.701  12.138   8.978
80825SOL     OW44306   0.311   5.857   3.927
80825SOL    HW144307   0.293   5.763   3.922
80825SOL    HW244308   0.322   5.874   4.020
80826SOL     OW44309   3.666  12.240   6.200
80826SOL    HW144310   3.672  12.198   6.115
80826SOL    HW244311   3.692  12.173   6.262
80827SOL     OW44312   9.366   7.668   2.789
80827SOL    HW144313   9.323   7.639   2.708
80827SOL    HW244314   9.454   7.695   2.760
80828SOL     OW44315   6.236   5.917   0.109
80828SOL    HW144316   6.274   5.848   0.055
80828SOL    HW244317   6.309   5.948   0.163
80829SOL     OW44318   8.742   5.622  10.830
80829SOL    HW144319   8.812   5.609  10.766
80829SOL    HW244320   8.745   5.543  10.885
80830SOL     OW44321   9.716   7.893  12.594
80830SOL    HW144322   9.778   7.840  12.543
80830SOL    HW244323   9.745   7.983  12.580
80831SOL     OW44324   0.450   9.507   1.153
80831SOL    HW144325   0.492   9.487   1.070
80831SOL    HW244326   0.522   9.526   1.214
80832SOL     OW44327   8.396   1.564   2.113
80832SOL    HW144328   8.381   1.658   2.102
80832SOL    HW244329   8.317   1.522   2.077
80833SOL     OW44330   7.524  13.468  10.222
80833SOL    HW144331   7.516  13.446  10.315
80833SOL    HW244332   7.442  13.512  10.201
80834SOL     OW44333   2.892   7.127  11.541
80834SOL    HW144334   2.872   7.151  11.451
80834SOL    HW244335   2.941   7.045  11.534
80835SOL     OW44336  12.234   4.698   4.040
80835SOL    HW144337  12.288   4.690   3.961
80835SOL    HW244338  12.154   4.741   4.010
80836SOL     OW44339  10.922   5.668   7.752
80836SOL    HW144340  10.981   5.603   7.714
80836SOL    HW244341  10.980   5.740   7.779
80837SOL     OW44342   4.937   4.543   8.133
80837SOL    HW144343   5.026   4.567   8.107
80837SOL    HW244344   4.914   4.469   8.077
80838SOL     OW44345  10.486  11.027   4.442
80838SOL    HW144346  10.456  10.975   4.517
80838SOL    HW244347  10.581  11.013   4.440
80839SOL     OW44348   2.874  14.806   8.311
80839SOL    HW144349   2.810  14.753   8.359
80839SOL    HW244350   2.821  14.862   8.255
80840SOL     OW44351  11.412   3.092   6.292
80840SOL    HW144352  11.499   3.065   6.261
80840SOL    HW244353  11.351   3.035   6.245
80841SOL     OW44354  13.231  10.560   3.139
80841SOL    HW144355  13.314  10.513   3.148
80841SOL    HW244356  13.183  10.512   3.071
80842SOL     OW44357   7.773  13.115   0.355
80842SOL    HW144358   7.794  13.022   0.359
80842SOL    HW244359   7.677  13.118   0.358
80843SOL     OW44360   3.767  12.598   6.335
80843SOL    HW144361   3.817  12.529   6.291
80843SOL    HW244362   3.676  12.576   6.319
80844SOL     OW44363  10.299   4.026  11.859
80844SOL    HW144364  10.323   3.934  11.844
80844SOL    HW244365  10.267   4.056  11.774
80845SOL     OW44366   6.229   7.332   8.654
80845SOL    HW144367   6.292   7.384   8.702
80845SOL    HW244368   6.158   7.393   8.633
80846SOL     OW44369   7.349   8.953   3.456
80846SOL    HW144370   7.330   8.862   3.433
80846SOL    HW244371   7.391   8.990   3.378
80847SOL     OW44372   4.540   7.863   6.494
80847SOL    HW144373   4.632   7.838   6.508
80847SOL    HW244374   4.531   7.948   6.537
80848SOL     OW44375   7.278  14.570   7.376
80848SOL    HW144376   7.237  14.633   7.436
80848SOL    HW244377   7.255  14.602   7.289
80849SOL     OW44378   7.448   9.327   0.345
80849SOL    HW144379   7.484   9.263   0.407
80849SOL    HW244380   7.420   9.275   0.270
80850SOL     OW44381   8.634   3.726   1.552
80850SOL    HW144382   8.539   3.719   1.541
80850SOL    HW244383   8.660   3.642   1.588
80851SOL     OW44384  13.912   0.033   3.024
80851SOL    HW144385  13.987   0.085   3.054
80851SOL    HW244386  13.951  14.833   2.973
80852SOL     OW44387   5.860   7.841   2.500
80852SOL    HW144388   5.927   7.786   2.460
80852SOL    HW244389   5.839   7.798   2.582
80853SOL     OW44390  14.122   5.751   5.064
80853SOL    HW144391  14.184   5.741   5.136
80853SOL    HW244392  14.136   5.674   5.009
80854SOL     OW44393  11.198  12.450   0.752
80854SOL    HW144394  11.171  12.478   0.665
80854SOL    HW244395  11.294  12.457   0.751
80855SOL     OW44396   7.532  10.251   8.970
80855SOL    HW144397   7.483  10.329   8.946
80855SOL    HW244398   7.576  10.274   9.052
80856SOL     OW44399   8.923   9.104   4.631
80856SOL    HW144400   8.931   9.180   4.573
80856SOL    HW244401   8.869   9.042   4.581
80857SOL     OW44402  14.844   9.895  11.632
80857SOL    HW144403  14.815   9.807  11.607
80857SOL    HW244404  14.773   9.952  11.602
80858SOL     OW44405   2.224  14.483  11.843
80858SOL    HW144406   2.216  14.521  11.931
80858SOL    HW244407   2.178  14.545  11.786
80859SOL     OW44408   1.448   2.343  12.314
80859SOL    HW144409   1.380   2.377  12.256
80859SOL    HW244410   1.409   2.265  12.354
80860SOL     OW44411   7.077   0.557  10.401
80860SOL    HW144412   7.057   0.614  10.475
80860SOL    HW244413   7.134   0.609  10.345
80861SOL     OW44414  14.591  10.639   8.522
80861SOL    HW144415  14.680  10.606   8.535
80861SOL    HW244416  14.598  10.698   8.447
80862SOL     OW44417   5.710   5.247  14.607
80862SOL    HW144418   5.652   5.173  14.588
80862SOL    HW244419   5.694   5.268  14.699
80863SOL     OW44420  10.653   1.155   1.286
80863SOL    HW144421  10.594   1.228   1.264
80863SOL    HW244422  10.606   1.077   1.258
80864SOL     OW44423   2.680   5.750  12.186
80864SOL    HW144424   2.745   5.770  12.253
80864SOL    HW244425   2.685   5.655  12.175
80865SOL     OW44426   4.315   8.826   7.898
80865SOL    HW144427   4.295   8.734   7.882
80865SOL    HW244428   4.350   8.857   7.814
80866SOL     OW44429   6.303   2.969  11.804
80866SOL    HW144430   6.394   2.944  11.816
80866SOL    HW244431   6.277   2.927  11.722
80867SOL     OW44432   8.616  10.738   8.858
80867SOL    HW144433   8.682  10.702   8.917
80867SOL    HW244434   8.666  10.793   8.797
80868SOL     OW44435   0.399   3.541  10.905
80868SOL    HW144436   0.377   3.633  10.916
80868SOL    HW244437   0.467   3.525  10.970
80869SOL     OW44438  10.408   3.688   6.881
80869SOL    HW144439  10.391   3.597   6.906
80869SOL    HW244440  10.488   3.711   6.927
80870SOL     OW44441   1.714   6.029   6.321
80870SOL    HW144442   1.771   5.953   6.328
80870SOL    HW244443   1.754   6.084   6.254
80871SOL     OW44444  12.670   2.367   1.524
80871SOL    HW144445  12.681   2.318   1.442
80871SOL    HW244446  12.643   2.301   1.588
80872SOL     OW44447  14.451   1.182   7.701
80872SOL    HW144448  14.527   1.237   7.684
80872SOL    HW244449  14.453   1.166   7.796
80873SOL     OW44450  14.277   0.720   3.312
80873SOL    HW144451  14.338   0.649   3.330
80873SOL    HW244452  14.320   0.798   3.347
80874SOL     OW44453   3.208   8.320  12.962
80874SOL    HW144454   3.260   8.286  12.889
80874SOL    HW244455   3.272   8.352  13.025
80875SOL     OW44456  10.483  13.216   1.441
80875SOL    HW144457  10.493  13.305   1.475
80875SOL    HW244458  10.555  13.207   1.378
80876SOL     OW44459  12.117   4.112   2.131
80876SOL    HW144460  12.095   4.134   2.041
80876SOL    HW244461  12.099   4.019   2.139
80877SOL     OW44462   3.587  12.449  14.024
80877SOL    HW144463   3.535  12.524  13.996
80877SOL    HW244464   3.645  12.483  14.092
80878SOL     OW44465   9.791   9.003  14.475
80878SOL    HW144466   9.843   8.959  14.542
80878SOL    HW244467   9.715   8.946  14.462
80879SOL     OW44468   1.214   0.778   5.277
80879SOL    HW144469   1.128   0.773   5.320
80879SOL    HW244470   1.224   0.692   5.236
80880SOL     OW44471   2.306   2.242   9.285
80880SOL    HW144472   2.222   2.223   9.243
80880SOL    HW244473   2.356   2.161   9.276
80881SOL     OW44474   5.353  13.298  14.614
80881SOL    HW144475   5.257  13.297  14.621
80881SOL    HW244476   5.380  13.215  14.655
80882SOL     OW44477   1.135   6.563   7.288
80882SOL    HW144478   1.190   6.562   7.210
80882SOL    HW244479   1.045   6.559   7.254
80883SOL     OW44480   1.626  11.508   8.960
80883SOL    HW144481   1.684  11.432   8.950
80883SOL    HW244482   1.666  11.560   9.030
80884SOL     OW44483   6.890  11.120   1.320
80884SOL    HW144484   6.967  11.153   1.367
80884SOL    HW244485   6.838  11.198   1.300
80885SOL     OW44486  10.434   0.472   5.553
80885SOL    HW144487  10.390   0.459   5.469
80885SOL    HW244488  10.526   0.484   5.531
80886SOL     OW44489   1.824   9.692  12.791
80886SOL    HW144490   1.734   9.714  12.816
80886SOL    HW244491   1.878   9.739  12.854
80887SOL     OW44492   7.527  12.295   7.434
80887SOL    HW144493   7.481  12.217   7.465
80887SOL    HW244494   7.465  12.366   7.448
80888SOL     OW44495  12.422   8.478   0.557
80888SOL    HW144496  12.430   8.383   0.544
80888SOL    HW244497  12.337   8.489   0.600
80889SOL     OW44498  13.739   8.541   7.857
80889SOL    HW144499  13.668   8.550   7.793
80889SOL    HW244500  13.741   8.624   7.903
80890SOL     OW44501   6.375   4.192   9.145
80890SOL    HW144502   6.385   4.287   9.152
80890SOL    HW244503   6.406   4.171   9.057
80891SOL     OW44504   1.826  13.932  14.591
80891SOL    HW144505   1.739  13.897  14.570
80891SOL    HW244506   1.829  14.016  14.546
80892SOL     OW44507   7.572   0.650   2.269
80892SOL    HW144508   7.527   0.651   2.185
80892SOL    HW244509   7.621   0.567   2.269
80893SOL     OW44510   1.498  10.313   7.813
80893SOL    HW144511   1.559  10.382   7.788
80893SOL    HW244512   1.548  10.232   7.804
80894SOL     OW44513   0.380  13.343   3.477
80894SOL    HW144514   0.313  13.409   3.492
80894SOL    HW244515   0.443  13.385   3.419
80895SOL     OW44516  13.481   1.213  13.658
80895SOL    HW144517  13.550   1.266  13.617
80895SOL    HW244518  13.471   1.138  13.599
80896SOL     OW44519  13.034   7.533  10.842
80896SOL    HW144520  13.059   7.607  10.898
80896SOL    HW244521  13.029   7.459  10.902
80897SOL     OW44522  10.402   2.988   7.293
80897SOL    HW144523  10.357   2.996   7.377
80897SOL    HW244524  10.472   3.053   7.298
80898SOL     OW44525   6.079   0.954   4.170
80898SOL    HW144526   6.055   0.957   4.262
80898SOL    HW244527   6.093   0.861   4.152
80899SOL     OW44528  13.448  11.652   5.109
80899SOL    HW144529  13.468  11.569   5.067
80899SOL    HW244530  13.353  11.663   5.098
80900SOL     OW44531   2.846   4.225   9.284
80900SOL    HW144532   2.871   4.160   9.219
80900SOL    HW244533   2.774   4.273   9.243
80901SOL     OW44534   9.244  12.517   3.532
80901SOL    HW144535   9.310  12.456   3.564
80901SOL    HW244536   9.290  12.601   3.524
80902SOL     OW44537   8.651   4.272   7.986
80902SOL    HW144538   8.575   4.259   8.043
80902SOL    HW244539   8.650   4.365   7.965
80903SOL     OW44540   9.609   7.213   3.144
80903SOL    HW144541   9.527   7.172   3.170
80903SOL    HW244542   9.583   7.301   3.117
80904SOL     OW44543  11.938   8.379  13.966
80904SOL    HW144544  11.900   8.439  14.030
80904SOL    HW244545  12.032   8.400  13.966
80905SOL     OW44546  12.037  11.327  13.924
80905SOL    HW144547  11.965  11.303  13.866
80905SOL    HW244548  12.046  11.421  13.913
80906SOL     OW44549   1.781   7.587  10.355
80906SOL    HW144550   1.870   7.567  10.326
80906SOL    HW244551   1.787   7.587  10.450
80907SOL     OW44552  10.473   1.356   7.291
80907SOL    HW144553  10.546   1.335   7.234
80907SOL    HW244554  10.455   1.449   7.276
80908SOL     OW44555  12.566   1.299   0.455
80908SOL    HW144556  12.585   1.205   0.446
80908SOL    HW244557  12.551   1.310   0.549
80909SOL     OW44558   4.690   3.002   2.579
80909SOL    HW144559   4.702   3.021   2.672
80909SOL    HW244560   4.657   2.912   2.577
80910SOL     OW44561   9.764  13.272   7.833
80910SOL    HW144562   9.749  13.195   7.889
80910SOL    HW244563   9.851  13.258   7.796
80911SOL     OW44564   1.618   0.835  14.474
80911SOL    HW144565   1.636   0.917  14.429
80911SOL    HW244566   1.676   0.771  14.432
80912SOL     OW44567   2.314   3.783   4.958
80912SOL    HW144568   2.345   3.831   5.035
80912SOL    HW244569   2.222   3.808   4.950
80913SOL     OW44570   8.414   9.250   7.409
80913SOL    HW144571   8.336   9.211   7.367
80913SOL    HW244572   8.458   9.296   7.338
80914SOL     OW44573  10.636   5.208  12.970
80914SOL    HW144574  10.580   5.174  13.040
80914SOL    HW244575  10.668   5.129  12.926
80915SOL     OW44576   3.479  13.540   0.503
80915SOL    HW144577   3.467  13.582   0.587
80915SOL    HW244578   3.536  13.599   0.454
80916SOL     OW44579   1.301   8.933   4.623
80916SOL    HW144580   1.337   8.877   4.692
80916SOL    HW244581   1.206   8.926   4.633
80917SOL     OW44582   4.936  14.486   8.016
80917SOL    HW144583   4.924  14.398   8.052
80917SOL    HW244584   4.849  14.513   7.988
80918SOL     OW44585   6.632   2.509   2.333
80918SOL    HW144586   6.600   2.594   2.304
80918SOL    HW244587   6.727   2.513   2.316
80919SOL     OW44588  14.813   2.049   1.490
80919SOL    HW144589  14.743   2.061   1.426
80919SOL    HW244590   0.018   2.089   1.448
80920SOL     OW44591   4.464  11.330   7.273
80920SOL    HW144592   4.444  11.348   7.181
80920SOL    HW244593   4.506  11.244   7.272
80921SOL     OW44594  13.675   5.735   5.916
80921SOL    HW144595  13.686   5.830   5.912
80921SOL    HW244596  13.585   5.723   5.945
80922SOL     OW44597   8.216   3.541   9.240
80922SOL    HW144598   8.257   3.607   9.296
80922SOL    HW244599   8.148   3.589   9.193
80923SOL     OW44600   8.325   1.290   1.122
80923SOL    HW144601   8.378   1.364   1.152
80923SOL    HW244602   8.322   1.299   1.027
80924SOL     OW44603   9.945   3.499  10.542
80924SOL    HW144604  10.014   3.461  10.597
80924SOL    HW244605   9.864   3.480  10.588
80925SOL     OW44606  13.747   9.981   4.247
80925SOL    HW144607  13.776   9.892   4.226
80925SOL    HW244608  13.765  10.031   4.167
80926SOL     OW44609   0.809   4.346  13.595
80926SOL    HW144610   0.832   4.327  13.504
80926SOL    HW244611   0.865   4.419  13.620
80927SOL     OW44612   3.123  14.756   7.848
80927SOL    HW144613   3.197  14.700   7.827
80927SOL    HW244614   3.129  14.771   7.942
80928SOL     OW44615   6.193   5.164   2.758
80928SOL    HW144616   6.223   5.096   2.698
80928SOL    HW244617   6.229   5.245   2.723
80929SOL     OW44618  13.654   4.963  13.544
80929SOL    HW144619  13.568   4.932  13.572
80929SOL    HW244620  13.665   5.047  13.589
80930SOL     OW44621  14.350  13.653   6.527
80930SOL    HW144622  14.321  13.612   6.445
80930SOL    HW244623  14.359  13.580   6.588
80931SOL     OW44624   0.571   3.434   9.739
80931SOL    HW144625   0.636   3.493   9.701
80931SOL    HW244626   0.493   3.444   9.684
80932SOL     OW44627   2.569   4.457  12.420
80932SOL    HW144628   2.625   4.378  12.422
80932SOL    HW244629   2.589   4.498  12.336
80933SOL     OW44630  11.807  13.426  13.697
80933SOL    HW144631  11.878  13.422  13.761
80933SOL    HW244632  11.729  13.402  13.746
80934SOL     OW44633   7.308   8.027   5.476
80934SOL    HW144634   7.253   8.058   5.548
80934SOL    HW244635   7.248   8.022   5.401
80935SOL     OW44636   1.306   1.597   0.712
80935SOL    HW144637   1.398   1.615   0.692
80935SOL    HW244638   1.268   1.683   0.730
80936SOL     OW44639   4.626   2.181  11.207
80936SOL    HW144640   4.689   2.176  11.135
80936SOL    HW244641   4.556   2.238  11.174
80937SOL     OW44642   8.327   5.699   3.763
80937SOL    HW144643   8.350   5.659   3.846
80937SOL    HW244644   8.396   5.672   3.703
80938SOL     OW44645  13.682   6.817   8.643
80938SOL    HW144646  13.734   6.803   8.563
80938SOL    HW244647  13.638   6.901   8.630
80939SOL     OW44648   0.875  12.329  10.267
80939SOL    HW144649   0.928  12.272  10.322
80939SOL    HW244650   0.824  12.270  10.212
80940SOL     OW44651  11.230   2.588   5.191
80940SOL    HW144652  11.319   2.622   5.198
80940SOL    HW244653  11.235   2.501   5.231
80941SOL     OW44654   5.220   6.666   2.989
80941SOL    HW144655   5.264   6.606   2.928
80941SOL    HW244656   5.132   6.676   2.953
80942SOL     OW44657   3.755   5.793  11.519
80942SOL    HW144658   3.779   5.762  11.606
80942SOL    HW244659   3.733   5.713  11.471
80943SOL     OW44660   6.596  14.701   6.879
80943SOL    HW144661   6.678  14.744   6.856
80943SOL    HW244662   6.597  14.618   6.832
80944SOL     OW44663   3.479  13.956  12.265
80944SOL    HW144664   3.420  14.017  12.220
80944SOL    HW244665   3.532  14.011  12.322
80945SOL     OW44666   0.195   9.472   9.551
80945SOL    HW144667   0.267   9.434   9.500
80945SOL    HW244668   0.225   9.467   9.642
80946SOL     OW44669   4.952   8.158   3.003
80946SOL    HW144670   4.939   8.244   2.963
80946SOL    HW244671   5.020   8.117   2.950
80947SOL     OW44672   5.363   3.356   0.082
80947SOL    HW144673   5.292   3.412   0.114
80947SOL    HW244674   5.361   3.365  14.859
80948SOL     OW44675   8.250   8.557   8.677
80948SOL    HW144676   8.200   8.520   8.604
80948SOL    HW244677   8.265   8.648   8.652
80949SOL     OW44678  14.781   2.511   6.483
80949SOL    HW144679  14.844   2.446   6.451
80949SOL    HW244680  14.700   2.491   6.436
80950SOL     OW44681  10.893   3.959   8.411
80950SOL    HW144682  10.933   4.001   8.335
80950SOL    HW244683  10.965   3.913   8.454
80951SOL     OW44684   6.446  12.875  12.997
80951SOL    HW144685   6.477  12.966  12.999
80951SOL    HW244686   6.377  12.873  13.063
80952SOL     OW44687  13.178   3.284  13.728
80952SOL    HW144688  13.111   3.266  13.794
80952SOL    HW244689  13.260   3.255  13.767
80953SOL     OW44690   6.292   5.245   1.857
80953SOL    HW144691   6.349   5.172   1.832
80953SOL    HW244692   6.235   5.259   1.782
80954SOL     OW44693   6.285  12.850   2.882
80954SOL    HW144694   6.197  12.843   2.844
80954SOL    HW244695   6.327  12.767   2.861
80955SOL     OW44696   9.431   4.826  11.278
80955SOL    HW144697   9.395   4.876  11.205
80955SOL    HW244698   9.355   4.802  11.330
80956SOL     OW44699   8.329  11.051  11.288
80956SOL    HW144700   8.388  11.082  11.356
80956SOL    HW244701   8.268  11.123  11.274
80957SOL     OW44702   5.848   7.203   0.272
80957SOL    HW144703   5.815   7.234   0.356
80957SOL    HW244704   5.923   7.148   0.294
80958SOL     OW44705   9.440   2.833  13.998
80958SOL    HW144706   9.514   2.879  14.038
80958SOL    HW244707   9.426   2.879  13.915
80959SOL     OW44708   8.595  12.323   5.838
80959SOL    HW144709   8.620  12.354   5.924
80959SOL    HW244710   8.526  12.258   5.855
80960SOL     OW44711   7.652   0.123   3.180
80960SOL    HW144712   7.679   0.066   3.107
80960SOL    HW244713   7.584   0.179   3.143
80961SOL     OW44714   7.020   1.457   2.506
80961SOL    HW144715   7.086   1.390   2.524
80961SOL    HW244716   7.015   1.509   2.586
80962SOL     OW44717   5.771   1.161  10.792
80962SOL    HW144718   5.808   1.247  10.772
80962SOL    HW244719   5.689   1.158  10.742
80963SOL     OW44720   3.500   3.627  13.834
80963SOL    HW144721   3.573   3.683  13.859
80963SOL    HW244722   3.541   3.548  13.798
80964SOL     OW44723   9.345   5.143   6.692
80964SOL    HW144724   9.419   5.163   6.635
80964SOL    HW244725   9.324   5.052   6.671
80965SOL     OW44726  10.668   7.012   0.784
80965SOL    HW144727  10.692   6.980   0.871
80965SOL    HW244728  10.573   7.025   0.788
80966SOL     OW44729   7.414   8.304  12.823
80966SOL    HW144730   7.489   8.353  12.789
80966SOL    HW244731   7.441   8.212  12.819
80967SOL     OW44732  14.409   1.408   8.459
80967SOL    HW144733  14.497   1.372   8.461
80967SOL    HW244734  14.357   1.343   8.412
80968SOL     OW44735  11.383   1.000   8.884
80968SOL    HW144736  11.432   1.075   8.918
80968SOL    HW244737  11.429   0.924   8.920
80969SOL     OW44738   0.964  12.723   6.705
80969SOL    HW144739   1.029  12.702   6.772
80969SOL    HW244740   0.883  12.735   6.754
80970SOL     OW44741   1.327   3.132  11.582
80970SOL    HW144742   1.265   3.070  11.620
80970SOL    HW244743   1.412   3.087  11.585
80971SOL     OW44744   9.159   6.179   9.003
80971SOL    HW144745   9.150   6.260   8.952
80971SOL    HW244746   9.206   6.205   9.082
80972SOL     OW44747   7.850   6.524   6.022
80972SOL    HW144748   7.913   6.461   5.988
80972SOL    HW244749   7.896   6.608   6.016
80973SOL     OW44750  12.255  11.442   5.754
80973SOL    HW144751  12.302  11.390   5.819
80973SOL    HW244752  12.208  11.508   5.807
80974SOL     OW44753   2.081  12.126   5.410
80974SOL    HW144754   2.067  12.048   5.357
80974SOL    HW244755   2.160  12.106   5.460
80975SOL     OW44756  12.574  11.618   7.118
80975SOL    HW144757  12.542  11.598   7.030
80975SOL    HW244758  12.543  11.546   7.173
80976SOL     OW44759  12.618   8.781   3.753
80976SOL    HW144760  12.532   8.822   3.765
80976SOL    HW244761  12.621   8.712   3.819
80977SOL     OW44762   1.243   0.450   8.012
80977SOL    HW144763   1.247   0.356   8.027
80977SOL    HW244764   1.152   0.468   7.989
80978SOL     OW44765   3.670   0.345  14.317
80978SOL    HW144766   3.643   0.260  14.282
80978SOL    HW244767   3.605   0.406  14.284
80979SOL     OW44768   4.946  11.020   0.407
80979SOL    HW144769   4.968  10.929   0.387
80979SOL    HW244770   5.025  11.056   0.448
80980SOL     OW44771  11.625   9.479  10.107
80980SOL    HW144772  11.630   9.547  10.040
80980SOL    HW244773  11.652   9.399  10.062
80981SOL     OW44774   1.175   0.588   8.628
80981SOL    HW144775   1.246   0.524   8.632
80981SOL    HW244776   1.153   0.605   8.720
80982SOL     OW44777   7.812   8.515   8.143
80982SOL    HW144778   7.820   8.579   8.214
80982SOL    HW244779   7.843   8.561   8.065
80983SOL     OW44780  10.279  12.180   8.268
80983SOL    HW144781  10.344  12.187   8.338
80983SOL    HW244782  10.223  12.107   8.295
80984SOL     OW44783   3.619  10.135  10.340
80984SOL    HW144784   3.689  10.167  10.283
80984SOL    HW244785   3.540  10.140  10.287
80985SOL     OW44786   5.006  10.958   1.734
80985SOL    HW144787   5.097  10.931   1.748
80985SOL    HW244788   5.013  11.033   1.675
80986SOL     OW44789   9.969   7.791   7.212
80986SOL    HW144790   9.952   7.756   7.125
80986SOL    HW244791  10.049   7.747   7.241
80987SOL     OW44792   7.593   8.905  11.131
80987SOL    HW144793   7.558   8.845  11.198
80987SOL    HW244794   7.522   8.967  11.115
80988SOL     OW44795  13.362   7.177   9.748
80988SOL    HW144796  13.392   7.191   9.837
80988SOL    HW244797  13.321   7.090   9.749
80989SOL     OW44798   4.455  14.356   8.102
80989SOL    HW144799   4.392  14.363   8.030
80989SOL    HW244800   4.427  14.281   8.153
80990SOL     OW44801  13.193   5.774  14.679
80990SOL    HW144802  13.247   5.698  14.658
80990SOL    HW244803  13.235   5.847  14.635
80991SOL     OW44804  13.849   9.879   8.575
80991SOL    HW144805  13.785   9.949   8.569
80991SOL    HW244806  13.933   9.924   8.582
80992SOL     OW44807  13.733   6.527   2.770
80992SOL    HW144808  13.827   6.543   2.765
80992SOL    HW244809  13.717   6.461   2.703
80993SOL     OW44810  11.348  10.720   5.699
80993SOL    HW144811  11.359  10.774   5.622
80993SOL    HW244812  11.325  10.781   5.769
80994SOL     OW44813   3.611   8.481   5.447
80994SOL    HW144814   3.535   8.468   5.390
80994SOL    HW244815   3.686   8.474   5.388
80995SOL     OW44816   8.779  10.484   8.320
80995SOL    HW144817   8.856  10.443   8.358
80995SOL    HW244818   8.709  10.420   8.332
80996SOL     OW44819   8.537   7.536   4.350
80996SOL    HW144820   8.517   7.611   4.295
80996SOL    HW244821   8.623   7.506   4.322
80997SOL     OW44822   3.672   3.452   5.537
80997SOL    HW144823   3.638   3.420   5.454
80997SOL    HW244824   3.758   3.411   5.545
80998SOL     OW44825   7.312   7.275  11.589
80998SOL    HW144826   7.325   7.225  11.509
80998SOL    HW244827   7.264   7.217  11.647
80999SOL     OW44828  12.850  14.616  12.130
80999SOL    HW144829  12.793  14.659  12.193
80999SOL    HW244830  12.930  14.598  12.178
81000SOL     OW44831  13.809   7.954   8.815
81000SOL    HW144832  13.804   7.906   8.732
81000SOL    HW244833  13.894   7.929   8.851
81001SOL     OW44834   7.031  14.658   9.706
81001SOL    HW144835   7.008  14.586   9.648
81001SOL    HW244836   6.957  14.665   9.766
81002SOL     OW44837  14.288   1.916  11.603
81002SOL    HW144838  14.249   1.876  11.680
81002SOL    HW244839  14.298   2.008  11.626
81003SOL     OW44840   5.693   5.194   4.580
81003SOL    HW144841   5.698   5.227   4.669
81003SOL    HW244842   5.765   5.132   4.573
81004SOL     OW44843  13.086   9.363  10.638
81004SOL    HW144844  13.092   9.345  10.544
81004SOL    HW244845  13.154   9.307  10.676
81005SOL     OW44846  10.589   0.009   8.991
81005SOL    HW144847  10.580   0.033   9.083
81005SOL    HW244848  10.609  14.787   8.992
81006SOL     OW44849   7.758  10.477   7.614
81006SOL    HW144850   7.787  10.554   7.565
81006SOL    HW244851   7.675  10.503   7.654
81007SOL     OW44852   0.379   2.772   0.251
81007SOL    HW144853   0.301   2.823   0.229
81007SOL    HW244854   0.345   2.696   0.298
81008SOL     OW44855   4.469  11.066   0.528
81008SOL    HW144856   4.394  11.120   0.553
81008SOL    HW244857   4.460  10.988   0.581
81009SOL     OW44858   9.005  13.414  12.877
81009SOL    HW144859   9.036  13.327  12.904
81009SOL    HW244860   9.085  13.466  12.871
81010SOL     OW44861  10.843   2.172   7.229
81010SOL    HW144862  10.903   2.097   7.229
81010SOL    HW244863  10.774   2.148   7.166
81011SOL     OW44864  11.113  11.566  10.822
81011SOL    HW144865  11.151  11.645  10.861
81011SOL    HW244866  11.185  11.503  10.819
81012SOL     OW44867   9.618   4.994   7.456
81012SOL    HW144868   9.531   5.021   7.485
81012SOL    HW244869   9.675   5.013   7.531
81013SOL     OW44870   7.020   2.389   9.534
81013SOL    HW144871   6.937   2.436   9.529
81013SOL    HW244872   7.053   2.388   9.444
81014SOL     OW44873   9.258  10.853  12.895
81014SOL    HW144874   9.279  10.887  12.808
81014SOL    HW244875   9.276  10.927  12.954
81015SOL     OW44876  10.287   6.593   3.313
81015SOL    HW144877  10.313   6.680   3.282
81015SOL    HW244878  10.360   6.536   3.288
81016SOL     OW44879  14.337   4.206   3.529
81016SOL    HW144880  14.358   4.117   3.558
81016SOL    HW244881  14.259   4.229   3.578
81017SOL     OW44882  11.196   6.867   5.035
81017SOL    HW144883  11.285   6.859   5.067
81017SOL    HW244884  11.177   6.783   4.993
81018SOL     OW44885   8.010   0.596   0.138
81018SOL    HW144886   8.014   0.670   0.198
81018SOL    HW244887   8.079   0.537   0.169
81019SOL     OW44888   4.006   9.917   3.493
81019SOL    HW144889   3.965   9.862   3.559
81019SOL    HW244890   4.100   9.910   3.511
81020SOL     OW44891  12.078   9.490  12.403
81020SOL    HW144892  12.158   9.444  12.429
81020SOL    HW244893  12.087   9.502  12.308
81021SOL     OW44894   7.189   1.659  11.446
81021SOL    HW144895   7.227   1.745  11.433
81021SOL    HW244896   7.151   1.661  11.533
81022SOL     OW44897  13.388  13.190  13.776
81022SOL    HW144898  13.314  13.178  13.836
81022SOL    HW244899  13.465  13.168  13.828
81023SOL     OW44900   5.301   8.602  13.118
81023SOL    HW144901   5.386   8.608  13.073
81023SOL    HW244902   5.276   8.692  13.136
81024SOL     OW44903   3.256   4.901   9.796
81024SOL    HW144904   3.236   4.992   9.821
81024SOL    HW244905   3.272   4.857   9.879
81025SOL     OW44906   5.263   0.232  11.981
81025SOL    HW144907   5.220   0.270  12.058
81025SOL    HW244908   5.283   0.307  11.925
81026SOL     OW44909  14.018   2.555   1.612
81026SOL    HW144910  14.027   2.593   1.700
81026SOL    HW244911  14.048   2.464   1.622
81027SOL     OW44912   4.237   4.858   7.367
81027SOL    HW144913   4.147   4.889   7.374
81027SOL    HW244914   4.255   4.819   7.452
81028SOL     OW44915  12.910  14.125   5.788
81028SOL    HW144916  12.851  14.186   5.832
81028SOL    HW244917  12.867  14.040   5.794
81029SOL     OW44918  13.303   9.615   5.215
81029SOL    HW144919  13.286   9.673   5.141
81029SOL    HW244920  13.216   9.596   5.250
81030SOL     OW44921  11.266   0.220   6.086
81030SOL    HW144922  11.301   0.298   6.128
81030SOL    HW244923  11.228   0.169   6.158
81031SOL     OW44924   4.903   3.574   4.648
81031SOL    HW144925   4.999   3.578   4.658
81031SOL    HW244926   4.879   3.486   4.677
81032SOL     OW44927   2.676   0.278  10.974
81032SOL    HW144928   2.768   0.300  10.983
81032SOL    HW244929   2.640   0.344  10.915
81033SOL     OW44930  11.931  13.056  10.322
81033SOL    HW144931  12.009  13.020  10.363
81033SOL    HW244932  11.883  12.980  10.290
81034SOL     OW44933  13.993  11.239  12.654
81034SOL    HW144934  14.072  11.293  12.652
81034SOL    HW244935  13.944  11.271  12.729
81035SOL     OW44936   3.328   7.366   5.907
81035SOL    HW144937   3.413   7.403   5.928
81035SOL    HW244938   3.267   7.414   5.963
81036SOL     OW44939   7.489   1.683  11.882
81036SOL    HW144940   7.577   1.645  11.886
81036SOL    HW244941   7.436   1.615  11.838
81037SOL     OW44942  12.413  12.787  10.573
81037SOL    HW144943  12.450  12.874  10.590
81037SOL    HW244944  12.434  12.770  10.481
81038SOL     OW44945  11.044   6.576   0.515
81038SOL    HW144946  11.009   6.660   0.487
81038SOL    HW244947  10.998   6.512   0.461
81039SOL     OW44948   6.266   4.080   5.199
81039SOL    HW144949   6.274   4.113   5.289
81039SOL    HW244950   6.186   4.120   5.166
81040SOL     OW44951  12.353   6.110   2.050
81040SOL    HW144952  12.437   6.121   2.095
81040SOL    HW244953  12.338   6.195   2.008
81041SOL     OW44954   9.319  10.589   6.299
81041SOL    HW144955   9.326  10.506   6.253
81041SOL    HW244956   9.410  10.618   6.311
81042SOL     OW44957  14.779   2.586   0.624
81042SOL    HW144958  14.741   2.605   0.710
81042SOL    HW244959  14.861   2.636   0.623
81043SOL     OW44960  12.744   0.659   0.240
81043SOL    HW144961  12.791   0.717   0.299
81043SOL    HW244962  12.755   0.698   0.153
81044SOL     OW44963   2.151   7.590   3.841
81044SOL    HW144964   2.218   7.606   3.907
81044SOL    HW244965   2.108   7.509   3.869
81045SOL     OW44966   1.470   3.796   9.496
81045SOL    HW144967   1.425   3.871   9.458
81045SOL    HW244968   1.414   3.721   9.474
81046SOL     OW44969   8.706   9.404   4.282
81046SOL    HW144970   8.677   9.313   4.291
81046SOL    HW244971   8.799   9.397   4.258
81047SOL     OW44972   5.087   4.619  11.661
81047SOL    HW144973   5.067   4.554  11.728
81047SOL    HW244974   5.006   4.628  11.611
81048SOL     OW44975  14.345   6.374   5.545
81048SOL    HW144976  14.262   6.365   5.591
81048SOL    HW244977  14.411   6.341   5.606
81049SOL     OW44978   5.293   8.647  13.672
81049SOL    HW144979   5.355   8.623  13.741
81049SOL    HW244980   5.210   8.607  13.700
81050SOL     OW44981  11.451   1.279   4.598
81050SOL    HW144982  11.530   1.329   4.620
81050SOL    HW244983  11.453   1.204   4.657
81051SOL     OW44984   2.994   5.584   8.342
81051SOL    HW144985   2.943   5.527   8.285
81051SOL    HW244986   2.951   5.576   8.428
81052SOL     OW44987   0.647   6.305  12.682
81052SOL    HW144988   0.668   6.376  12.622
81052SOL    HW244989   0.667   6.226  12.633
81053SOL     OW44990   0.489   4.989   2.158
81053SOL    HW144991   0.507   4.907   2.111
81053SOL    HW244992   0.480   4.963   2.249
81054SOL     OW44993   5.286  10.452   7.491
81054SOL    HW144994   5.345  10.489   7.425
81054SOL    HW244995   5.322  10.366   7.510
81055SOL     OW44996   5.292   9.553  12.857
81055SOL    HW144997   5.380   9.526  12.834
81055SOL    HW244998   5.267   9.614  12.787
81056SOL     OW44999  10.365   1.042  14.359
81056SOL    HW145000  10.328   0.987  14.428
81056SOL    HW245001  10.293   1.099  14.332
81057SOL     OW45002   5.090   9.966   5.486
81057SOL    HW145003   5.051   9.915   5.558
81057SOL    HW245004   5.180   9.981   5.514
81058SOL     OW45005   2.944   5.007  13.805
81058SOL    HW145006   2.915   4.929  13.852
81058SOL    HW245007   2.881   5.017  13.734
81059SOL     OW45008   5.972   6.476  14.212
81059SOL    HW145009   6.043   6.539  14.206
81059SOL    HW245010   6.014   6.391  14.201
81060SOL     OW45011   9.850  13.824  14.414
81060SOL    HW145012   9.894  13.906  14.390
81060SOL    HW245013   9.760  13.836  14.382
81061SOL     OW45014   4.279   5.860  14.606
81061SOL    HW145015   4.226   5.891  14.679
81061SOL    HW245016   4.219   5.855  14.532
81062SOL     OW45017   8.138   8.371  13.417
81062SOL    HW145018   8.155   8.299  13.478
81062SOL    HW245019   8.137   8.449  13.472
81063SOL     OW45020  12.126   7.807   8.287
81063SOL    HW145021  12.154   7.743   8.353
81063SOL    HW245022  12.049   7.849   8.325
81064SOL     OW45023  11.234   1.061   7.962
81064SOL    HW145024  11.184   0.981   7.977
81064SOL    HW245025  11.220   1.081   7.870
81065SOL     OW45026   2.650  13.467   7.684
81065SOL    HW145027   2.627  13.424   7.601
81065SOL    HW245028   2.682  13.554   7.658
81066SOL     OW45029   0.646   5.869   4.648
81066SOL    HW145030   0.677   5.852   4.737
81066SOL    HW245031   0.716   5.836   4.591
81067SOL     OW45032   1.178   6.038   1.748
81067SOL    HW145033   1.147   5.959   1.704
81067SOL    HW245034   1.257   6.063   1.700
81068SOL     OW45035  14.321  13.682   7.972
81068SOL    HW145036  14.391  13.681   8.037
81068SOL    HW245037  14.240  13.675   8.023
81069SOL     OW45038   2.537  12.445   8.269
81069SOL    HW145039   2.608  12.425   8.329
81069SOL    HW245040   2.464  12.390   8.297
81070SOL     OW45041   6.355   3.184   9.152
81070SOL    HW145042   6.399   3.236   9.219
81070SOL    HW245043   6.424   3.163   9.089
81071SOL     OW45044   2.933   8.544   6.146
81071SOL    HW145045   2.864   8.601   6.180
81071SOL    HW245046   2.985   8.600   6.088
81072SOL     OW45047   6.712   9.327  10.249
81072SOL    HW145048   6.803   9.303  10.264
81072SOL    HW245049   6.665   9.244  10.240
81073SOL     OW45050  10.447   1.779   3.166
81073SOL    HW145051  10.504   1.707   3.195
81073SOL    HW245052  10.395   1.801   3.243
81074SOL     OW45053   9.246   0.983   7.164
81074SOL    HW145054   9.222   0.991   7.256
81074SOL    HW245055   9.169   0.946   7.122
81075SOL     OW45056  10.182   1.980   8.805
81075SOL    HW145057  10.276   1.975   8.785
81075SOL    HW245058  10.171   2.066   8.844
81076SOL     OW45059   7.626   2.314  10.855
81076SOL    HW145060   7.530   2.309  10.861
81076SOL    HW245061   7.655   2.317  10.946
81077SOL     OW45062   6.215  13.863   6.728
81077SOL    HW145063   6.165  13.842   6.649
81077SOL    HW245064   6.304  13.879   6.697
81078SOL     OW45065  10.340   8.810  11.833
81078SOL    HW145066  10.409   8.744  11.820
81078SOL    HW245067  10.351   8.839  11.923
81079SOL     OW45068   2.472  13.702   1.327
81079SOL    HW145069   2.450  13.624   1.379
81079SOL    HW245070   2.396  13.715   1.271
81080SOL     OW45071  14.066   3.235  12.893
81080SOL    HW145072  14.132   3.213  12.827
81080SOL    HW245073  13.987   3.254  12.843
81081SOL     OW45074  13.781  10.950   9.099
81081SOL    HW145075  13.705  10.924   9.046
81081SOL    HW245076  13.770  11.044   9.112
81082SOL     OW45077  11.735  11.171   4.836
81082SOL    HW145078  11.784  11.253   4.839
81082SOL    HW245079  11.802  11.103   4.823
81083SOL     OW45080  12.058   6.105  14.278
81083SOL    HW145081  11.975   6.146  14.252
81083SOL    HW245082  12.032   6.026  14.325
81084SOL     OW45083   0.983  11.057  11.081
81084SOL    HW145084   1.012  10.978  11.127
81084SOL    HW245085   1.054  11.120  11.094
81085SOL     OW45086   0.895  14.781   9.295
81085SOL    HW145087   0.867  14.718   9.229
81085SOL    HW245088   0.983  14.753   9.320
81086SOL     OW45089   4.350   8.666  13.284
81086SOL    HW145090   4.398   8.743  13.316
81086SOL    HW245091   4.417   8.598  13.277
81087SOL     OW45092   5.336   8.272  11.744
81087SOL    HW145093   5.362   8.363  11.731
81087SOL    HW245094   5.286   8.249  11.666
81088SOL     OW45095  10.235   1.597   8.295
81088SOL    HW145096  10.182   1.637   8.363
81088SOL    HW245097  10.194   1.512   8.279
81089SOL     OW45098   3.704  11.460   3.732
81089SOL    HW145099   3.712  11.515   3.810
81089SOL    HW245100   3.775  11.488   3.675
81090SOL     OW45101   1.608  13.107  12.798
81090SOL    HW145102   1.517  13.096  12.823
81090SOL    HW245103   1.605  13.140  12.708
81091SOL     OW45104   3.340   3.401   0.752
81091SOL    HW145105   3.247   3.427   0.755
81091SOL    HW245106   3.385   3.478   0.715
81092SOL     OW45107  14.440   9.076   2.842
81092SOL    HW145108  14.505   9.108   2.905
81092SOL    HW245109  14.491   9.058   2.762
81093SOL     OW45110   2.169   0.472   5.967
81093SOL    HW145111   2.190   0.485   6.059
81093SOL    HW245112   2.145   0.379   5.961
81094SOL     OW45113   9.176   0.041  11.136
81094SOL    HW145114   9.264   0.074  11.125
81094SOL    HW245115   9.135   0.101  11.199
81095SOL     OW45116   8.518  11.303   5.241
81095SOL    HW145117   8.500  11.251   5.162
81095SOL    HW245118   8.600  11.348   5.222
81096SOL     OW45119   2.057   2.050   2.277
81096SOL    HW145120   2.142   2.093   2.266
81096SOL    HW245121   2.004   2.113   2.325
81097SOL     OW45122   3.178  12.303   5.670
81097SOL    HW145123   3.178  12.243   5.745
81097SOL    HW245124   3.120  12.375   5.697
81098SOL     OW45125   7.892   3.886   9.341
81098SOL    HW145126   7.972   3.932   9.365
81098SOL    HW245127   7.879   3.823   9.412
81099SOL     OW45128  14.714   7.511  11.380
81099SOL    HW145129  14.741   7.571  11.449
81099SOL    HW245130  14.618   7.507  11.387
81100SOL     OW45131   9.389   7.254   1.843
81100SOL    HW145132   9.475   7.259   1.801
81100SOL    HW245133   9.327   7.251   1.770
81101SOL     OW45134  11.628  11.335   7.632
81101SOL    HW145135  11.640  11.259   7.576
81101SOL    HW245136  11.717  11.367   7.649
81102SOL     OW45137   3.383   6.892   3.374
81102SOL    HW145138   3.477   6.897   3.392
81102SOL    HW245139   3.368   6.956   3.304
81103SOL     OW45140   3.891   4.492  12.454
81103SOL    HW145141   3.895   4.516  12.547
81103SOL    HW245142   3.798   4.476  12.438
81104SOL     OW45143   7.779   6.319  11.856
81104SOL    HW145144   7.805   6.404  11.892
81104SOL    HW245145   7.800   6.326  11.763
81105SOL     OW45146  11.465  14.693  12.555
81105SOL    HW145147  11.409  14.648  12.619
81105SOL    HW245148  11.554  14.662  12.575
81106SOL     OW45149   5.271   3.024   9.006
81106SOL    HW145150   5.313   3.070   9.079
81106SOL    HW245151   5.334   2.957   8.981
81107SOL     OW45152  10.355   1.322   1.881
81107SOL    HW145153  10.309   1.402   1.855
81107SOL    HW245154  10.289   1.254   1.877
81108SOL     OW45155   5.884   2.041   0.105
81108SOL    HW145156   5.980   2.051   0.103
81108SOL    HW245157   5.857   2.083   0.186
81109SOL     OW45158   5.993   5.985   9.260
81109SOL    HW145159   5.991   5.976   9.355
81109SOL    HW245160   5.901   5.999   9.235
81110SOL     OW45161  10.026   3.275  11.429
81110SOL    HW145162   9.941   3.267  11.472
81110SOL    HW245163  10.044   3.369  11.428
81111SOL     OW45164  11.988   9.859   7.711
81111SOL    HW145165  12.075   9.847   7.749
81111SOL    HW245166  11.928   9.835   7.782
81112SOL     OW45167   7.612   9.315   8.041
81112SOL    HW145168   7.619   9.408   8.060
81112SOL    HW245169   7.545   9.283   8.102
81113SOL     OW45170   4.446   4.548  11.068
81113SOL    HW145171   4.394   4.468  11.069
81113SOL    HW245172   4.515   4.531  11.003
81114SOL     OW45173   7.491   3.320   2.276
81114SOL    HW145174   7.585   3.339   2.280
81114SOL    HW245175   7.485   3.243   2.218
81115SOL     OW45176   8.930   0.329   2.590
81115SOL    HW145177   8.995   0.320   2.659
81115SOL    HW245178   8.853   0.365   2.634
81116SOL     OW45179  12.871  14.261   7.953
81116SOL    HW145180  12.944  14.245   7.893
81116SOL    HW245181  12.861  14.179   8.001
81117SOL     OW45182   3.958  10.132   6.408
81117SOL    HW145183   3.942  10.226   6.393
81117SOL    HW245184   4.045  10.128   6.447
81118SOL     OW45185   1.224   4.477  14.310
81118SOL    HW145186   1.310   4.514  14.290
81118SOL    HW245187   1.162   4.533  14.264
81119SOL     OW45188   1.876  10.235   1.310
81119SOL    HW145189   1.912  10.169   1.370
81119SOL    HW245190   1.803  10.190   1.267
81120SOL     OW45191   3.396   1.528   2.346
81120SOL    HW145192   3.304   1.506   2.360
81120SOL    HW245193   3.437   1.445   2.321
81121SOL     OW45194   5.320   4.758   8.306
81121SOL    HW145195   5.280   4.839   8.336
81121SOL    HW245196   5.357   4.718   8.385
81122SOL     OW45197   0.677   2.321   0.881
81122SOL    HW145198   0.644   2.392   0.936
81122SOL    HW245199   0.691   2.248   0.942
81123SOL     OW45200   0.532  12.469   7.606
81123SOL    HW145201   0.565  12.494   7.693
81123SOL    HW245202   0.448  12.513   7.599
81124SOL     OW45203  11.398   1.061  14.158
81124SOL    HW145204  11.379   1.069  14.252
81124SOL    HW245205  11.358   0.978  14.133
81125SOL     OW45206  11.573   2.339   3.648
81125SOL    HW145207  11.661   2.376   3.644
81125SOL    HW245208  11.538   2.368   3.732
81126SOL     OW45209  10.616  13.903   8.257
81126SOL    HW145210  10.598  13.833   8.194
81126SOL    HW245211  10.706  13.930   8.238
81127SOL     OW45212   7.539   1.023  10.764
81127SOL    HW145213   7.504   1.018  10.676
81127SOL    HW245214   7.574   0.936  10.782
81128SOL     OW45215   8.991  12.987   1.205
81128SOL    HW145216   8.990  12.923   1.277
81128SOL    HW245217   9.057  12.954   1.145
81129SOL     OW45218  13.153  11.316   8.098
81129SOL    HW145219  13.062  11.320   8.067
81129SOL    HW245220  13.148  11.267   8.180
81130SOL     OW45221   3.475  13.819   3.125
81130SOL    HW145222   3.443  13.857   3.043
81130SOL    HW245223   3.402  13.765   3.156
81131SOL     OW45224   8.755   3.190   1.311
81131SOL    HW145225   8.700   3.262   1.341
81131SOL    HW245226   8.743   3.121   1.376
81132SOL     OW45227   2.227   8.742  12.737
81132SOL    HW145228   2.144   8.776  12.771
81132SOL    HW245229   2.290   8.757  12.808
81133SOL     OW45230  10.161   4.322   1.705
81133SOL    HW145231  10.099   4.250   1.714
81133SOL    HW245232  10.196   4.335   1.793
81134SOL     OW45233   8.396  12.949  12.187
81134SOL    HW145234   8.486  12.917  12.197
81134SOL    HW245235   8.369  12.973  12.276
81135SOL     OW45236  12.348  13.549  10.694
81135SOL    HW145237  12.268  13.499  10.674
81135SOL    HW245238  12.395  13.493  10.756
81136SOL     OW45239   0.193  12.747  10.365
81136SOL    HW145240   0.210  12.785  10.451
81136SOL    HW245241   0.194  12.652  10.380
81137SOL     OW45242  11.240   2.770   0.361
81137SOL    HW145243  11.313   2.724   0.403
81137SOL    HW245244  11.176   2.701   0.344
81138SOL     OW45245   7.884   4.937  14.557
81138SOL    HW145246   7.917   4.850  14.534
81138SOL    HW245247   7.826   4.961  14.485
81139SOL     OW45248   2.970   9.169   2.219
81139SOL    HW145249   2.918   9.122   2.153
81139SOL    HW245250   3.004   9.245   2.172
81140SOL     OW45251   9.772   4.360   2.307
81140SOL    HW145252   9.762   4.453   2.289
81140SOL    HW245253   9.862   4.340   2.280
81141SOL     OW45254  10.384   8.956   2.102
81141SOL    HW145255  10.350   8.943   2.191
81141SOL    HW245256  10.425   8.873   2.079
81142SOL     OW45257   9.997   2.276   7.346
81142SOL    HW145258  10.068   2.331   7.313
81142SOL    HW245259   9.939   2.263   7.271
81143SOL     OW45260   0.795   4.431  10.558
81143SOL    HW145261   0.870   4.371  10.555
81143SOL    HW245262   0.809   4.482  10.638
81144SOL     OW45263   9.924   2.739   9.096
81144SOL    HW145264   9.927   2.835   9.106
81144SOL    HW245265  10.011   2.710   9.124
81145SOL     OW45266  13.854  11.518   5.175
81145SOL    HW145267  13.863  11.592   5.234
81145SOL    HW245268  13.896  11.445   5.222
81146SOL     OW45269  11.059   8.886   3.596
81146SOL    HW145270  11.061   8.791   3.593
81146SOL    HW245271  11.057   8.907   3.689
81147SOL     OW45272   5.973   0.997   6.338
81147SOL    HW145273   6.040   1.040   6.285
81147SOL    HW245274   5.899   1.058   6.337
81148SOL     OW45275   7.736   5.614  14.141
81148SOL    HW145276   7.658   5.558  14.139
81148SOL    HW245277   7.760   5.619  14.234
81149SOL     OW45278  13.230   7.465   8.622
81149SOL    HW145279  13.165   7.532   8.644
81149SOL    HW245280  13.310   7.513   8.604
81150SOL     OW45281  13.636   8.408  11.099
81150SOL    HW145282  13.550   8.388  11.062
81150SOL    HW245283  13.677   8.466  11.035
81151SOL     OW45284   6.402   3.890   1.860
81151SOL    HW145285   6.359   3.884   1.946
81151SOL    HW245286   6.493   3.868   1.878
81152SOL     OW45287   1.959   9.967  13.343
81152SOL    HW145288   1.964  10.060  13.366
81152SOL    HW245289   1.889   9.932  13.398
81153SOL     OW45290   7.837   2.106  12.123
81153SOL    HW145291   7.765   2.122  12.185
81153SOL    HW245292   7.887   2.187  12.124
81154SOL     OW45293   3.370   2.935   1.069
81154SOL    HW145294   3.304   2.925   1.000
81154SOL    HW245295   3.400   2.845   1.086
81155SOL     OW45296   3.346  12.352  12.834
81155SOL    HW145297   3.359  12.341  12.928
81155SOL    HW245298   3.337  12.262  12.801
81156SOL     OW45299   9.674  13.334   2.655
81156SOL    HW145300   9.724  13.294   2.584
81156SOL    HW245301   9.703  13.425   2.657
81157SOL     OW45302   8.639  12.457   9.162
81157SOL    HW145303   8.594  12.414   9.089
81157SOL    HW245304   8.725  12.417   9.165
81158SOL     OW45305  10.097   2.452   1.356
81158SOL    HW145306  10.164   2.384   1.355
81158SOL    HW245307  10.117   2.508   1.282
81159SOL     OW45308  13.049   4.191   3.766
81159SOL    HW145309  13.086   4.243   3.838
81159SOL    HW245310  13.125   4.171   3.711
81160SOL     OW45311  12.117  12.574   3.104
81160SOL    HW145312  12.099  12.625   3.183
81160SOL    HW245313  12.112  12.483   3.132
81161SOL     OW45314  12.533   3.262  10.782
81161SOL    HW145315  12.607   3.261  10.842
81161SOL    HW245316  12.564   3.214  10.705
81162SOL     OW45317   6.715   4.358   2.548
81162SOL    HW145318   6.796   4.309   2.530
81162SOL    HW245319   6.646   4.293   2.539
81163SOL     OW45320   5.608   6.761   5.851
81163SOL    HW145321   5.647   6.848   5.844
81163SOL    HW245322   5.556   6.751   5.771
81164SOL     OW45323   2.068  14.486   4.683
81164SOL    HW145324   2.004  14.453   4.619
81164SOL    HW245325   2.151  14.489   4.635
81165SOL     OW45326   5.218  11.793  13.107
81165SOL    HW145327   5.237  11.722  13.169
81165SOL    HW245328   5.280  11.778  13.035
81166SOL     OW45329  11.292  11.226  12.525
81166SOL    HW145330  11.381  11.209  12.558
81166SOL    HW245331  11.306  11.259  12.436
81167SOL     OW45332  12.044  14.480   8.064
81167SOL    HW145333  11.981  14.415   8.096
81167SOL    HW245334  12.048  14.465   7.970
81168SOL     OW45335  11.575   0.683   9.316
81168SOL    HW145336  11.581   0.628   9.395
81168SOL    HW245337  11.483   0.708   9.312
81169SOL     OW45338   4.508   4.628   7.725
81169SOL    HW145339   4.594   4.659   7.754
81169SOL    HW245340   4.523   4.536   7.702
81170SOL     OW45341   4.933  10.565   0.586
81170SOL    HW145342   4.948  10.581   0.679
81170SOL    HW245343   4.998  10.497   0.563
81171SOL     OW45344  13.175   7.643   6.442
81171SOL    HW145345  13.181   7.608   6.353
81171SOL    HW245346  13.089   7.616   6.473
81172SOL     OW45347  11.589   0.716   3.863
81172SOL    HW145348  11.619   0.638   3.817
81172SOL    HW245349  11.621   0.705   3.952
81173SOL     OW45350   9.057   8.566   3.942
81173SOL    HW145351   8.977   8.560   3.994
81173SOL    HW245352   9.117   8.504   3.983
81174SOL     OW45353   5.319   1.748   9.700
81174SOL    HW145354   5.299   1.785   9.785
81174SOL    HW245355   5.359   1.820   9.651
81175SOL     OW45356   3.968   1.318  13.611
81175SOL    HW145357   3.876   1.293  13.620
81175SOL    HW245358   4.017   1.243  13.645
81176SOL     OW45359   1.089   0.088   8.970
81176SOL    HW145360   1.135   0.006   8.987
81176SOL    HW245361   1.129   0.151   9.030
81177SOL     OW45362  14.415   4.545   9.757
81177SOL    HW145363  14.400   4.598   9.835
81177SOL    HW245364  14.426   4.609   9.687
81178SOL     OW45365   0.649   0.069   1.088
81178SOL    HW145366   0.721   0.122   1.055
81178SOL    HW245367   0.684  14.852   1.088
81179SOL     OW45368   6.213  10.983  12.839
81179SOL    HW145369   6.221  10.909  12.779
81179SOL    HW245370   6.240  10.947  12.924
81180SOL     OW45371   8.585   6.325   1.602
81180SOL    HW145372   8.670   6.367   1.589
81180SOL    HW245373   8.565   6.285   1.517
81181SOL     OW45374   9.828  11.826   0.886
81181SOL    HW145375   9.906  11.800   0.935
81181SOL    HW245376   9.861  11.882   0.816
81182SOL     OW45377   3.587   3.161   1.238
81182SOL    HW145378   3.534   3.087   1.268
81182SOL    HW245379   3.598   3.145   1.144
81183SOL     OW45380   6.657   4.761   7.400
81183SOL    HW145381   6.676   4.717   7.482
81183SOL    HW245382   6.586   4.821   7.420
81184SOL     OW45383   3.235  12.998  14.143
81184SOL    HW145384   3.322  13.003  14.181
81184SOL    HW245385   3.206  13.089  14.136
81185SOL     OW45386   8.647   0.162   8.613
81185SOL    HW145387   8.696   0.117   8.682
81185SOL    HW245388   8.571   0.105   8.597
81186SOL     OW45389   8.020   5.470   9.723
81186SOL    HW145390   8.084   5.494   9.656
81186SOL    HW245391   7.949   5.533   9.712
81187SOL     OW45392   1.485   0.493   6.638
81187SOL    HW145393   1.485   0.423   6.573
81187SOL    HW245394   1.430   0.561   6.600
81188SOL     OW45395   6.781  10.766   8.656
81188SOL    HW145396   6.784  10.775   8.561
81188SOL    HW245397   6.698  10.721   8.673
81189SOL     OW45398  12.334   9.843  13.414
81189SOL    HW145399  12.420   9.835  13.372
81189SOL    HW245400  12.354   9.842  13.508
81190SOL     OW45401   3.367  11.703   0.833
81190SOL    HW145402   3.288  11.652   0.816
81190SOL    HW245403   3.353  11.785   0.787
81191SOL     OW45404   4.840  10.083   2.340
81191SOL    HW145405   4.810  10.171   2.366
81191SOL    HW245406   4.800  10.024   2.405
81192SOL     OW45407  12.493   6.547   4.288
81192SOL    HW145408  12.500   6.473   4.348
81192SOL    HW245409  12.401   6.544   4.258
81193SOL     OW45410   5.161   3.426  13.265
81193SOL    HW145411   5.092   3.362  13.282
81193SOL    HW245412   5.116   3.509  13.254
81194SOL     OW45413   0.189   3.934  13.861
81194SOL    HW145414   0.166   3.842  13.869
81194SOL    HW245415   0.109   3.976  13.831
81195SOL     OW45416   6.555   3.935  12.546
81195SOL    HW145417   6.463   3.908  12.546
81195SOL    HW245418   6.599   3.871  12.490
81196SOL     OW45419   8.440   5.361   2.447
81196SOL    HW145420   8.513   5.328   2.499
81196SOL    HW245421   8.481   5.410   2.376
81197SOL     OW45422   0.478   1.040   3.159
81197SOL    HW145423   0.550   0.994   3.203
81197SOL    HW245424   0.408   1.044   3.225
81198SOL     OW45425   7.375   8.363   5.347
81198SOL    HW145426   7.413   8.329   5.428
81198SOL    HW245427   7.282   8.376   5.368
81199SOL     OW45428   9.961  12.378  12.862
81199SOL    HW145429   9.946  12.406  12.772
81199SOL    HW245430   9.876  12.347  12.893
81200SOL     OW45431   6.464  11.639   3.491
81200SOL    HW145432   6.472  11.544   3.499
81200SOL    HW245433   6.553  11.672   3.500
81201SOL     OW45434   9.276   9.588   4.933
81201SOL    HW145435   9.295   9.523   4.865
81201SOL    HW245436   9.305   9.548   5.014
81202SOL     OW45437   5.965   6.798   8.744
81202SOL    HW145438   5.966   6.860   8.817
81202SOL    HW245439   5.967   6.853   8.665
81203SOL     OW45440   3.642  14.787   2.278
81203SOL    HW145441   3.689  14.789   2.195
81203SOL    HW245442   3.579  14.859   2.272
81204SOL     OW45443  13.223  11.098   4.889
81204SOL    HW145444  13.229  11.017   4.939
81204SOL    HW245445  13.242  11.073   4.799
81205SOL     OW45446   5.475   5.150   0.750
81205SOL    HW145447   5.426   5.084   0.701
81205SOL    HW245448   5.454   5.233   0.706
81206SOL     OW45449  13.463   8.210   2.863
81206SOL    HW145450  13.524   8.214   2.789
81206SOL    HW245451  13.453   8.301   2.891
81207SOL     OW45452  14.812   3.977   1.915
81207SOL    HW145453  14.726   3.935   1.923
81207SOL    HW245454  14.858   3.954   1.995
81208SOL     OW45455   5.410   8.723   3.925
81208SOL    HW145456   5.348   8.694   3.859
81208SOL    HW245457   5.402   8.658   3.995
81209SOL     OW45458   6.544   9.072  13.680
81209SOL    HW145459   6.515   9.039  13.595
81209SOL    HW245460   6.483   9.034  13.743
81210SOL     OW45461   7.511   1.292   2.033
81210SOL    HW145462   7.571   1.219   2.048
81210SOL    HW245463   7.555   1.367   2.071
81211SOL     OW45464   4.402   5.577   6.189
81211SOL    HW145465   4.349   5.542   6.118
81211SOL    HW245466   4.372   5.668   6.198
81212SOL     OW45467   7.301  13.261   9.878
81212SOL    HW145468   7.359  13.185   9.867
81212SOL    HW245469   7.304  13.279   9.972
81213SOL     OW45470   9.471  13.962  14.579
81213SOL    HW145471   9.554  13.947  14.623
81213SOL    HW245472   9.476  14.052  14.547
81214SOL     OW45473   6.239   6.548   5.445
81214SOL    HW145474   6.146   6.557   5.427
81214SOL    HW245475   6.282   6.575   5.364
81215SOL     OW45476   4.238   2.739  13.482
81215SOL    HW145477   4.176   2.809  13.503
81215SOL    HW245478   4.229   2.726  13.388
81216SOL     OW45479  12.770   9.177   0.374
81216SOL    HW145480  12.743   9.087   0.357
81216SOL    HW245481  12.803   9.175   0.464
81217SOL     OW45482  11.586   9.259  14.266
81217SOL    HW145483  11.593   9.264  14.171
81217SOL    HW245484  11.676   9.266  14.297
81218SOL     OW45485   4.070  11.093   0.938
81218SOL    HW145486   4.010  11.123   0.869
81218SOL    HW245487   4.015  11.086   1.016
81219SOL     OW45488   6.276   6.868   6.132
81219SOL    HW145489   6.366   6.853   6.103
81219SOL    HW245490   6.223   6.812   6.075
81220SOL     OW45491   0.067   7.641  10.432
81220SOL    HW145492   0.023   7.725  10.420
81220SOL    HW245493  14.868   7.577  10.438
81221SOL     OW45494   7.235  13.130  12.355
81221SOL    HW145495   7.183  13.133  12.275
81221SOL    HW245496   7.222  13.215  12.396
81222SOL     OW45497   8.894   5.394   1.274
81222SOL    HW145498   8.857   5.380   1.186
81222SOL    HW245499   8.941   5.313   1.292
81223SOL     OW45500   4.864   4.965   9.650
81223SOL    HW145501   4.818   5.041   9.616
81223SOL    HW245502   4.893   4.992   9.737
81224SOL     OW45503   1.930  13.747   4.749
81224SOL    HW145504   1.842  13.722   4.778
81224SOL    HW245505   1.945  13.695   4.670
81225SOL     OW45506  14.383  12.466   9.464
81225SOL    HW145507  14.322  12.469   9.537
81225SOL    HW245508  14.366  12.382   9.421
81226SOL     OW45509  10.985   6.361  11.657
81226SOL    HW145510  10.996   6.308  11.579
81226SOL    HW245511  10.927   6.310  11.713
81227SOL     OW45512  13.007   6.576   6.787
81227SOL    HW145513  13.048   6.625   6.858
81227SOL    HW245514  12.913   6.591   6.798
81228SOL     OW45515   8.811   2.356   7.600
81228SOL    HW145516   8.870   2.377   7.529
81228SOL    HW245517   8.791   2.263   7.588
81229SOL     OW45518   7.967  13.128   0.115
81229SOL    HW145519   7.932  13.163   0.197
81229SOL    HW245520   8.007  13.044   0.140
81230SOL     OW45521   1.003   1.972  13.669
81230SOL    HW145522   1.080   1.999  13.619
81230SOL    HW245523   0.959   1.909  13.612
81231SOL     OW45524   6.763   2.743  10.625
81231SOL    HW145525   6.850   2.732  10.588
81231SOL    HW245526   6.716   2.798  10.562
81232SOL     OW45527   0.894   6.268   4.432
81232SOL    HW145528   0.869   6.310   4.350
81232SOL    HW245529   0.963   6.206   4.408
81233SOL     OW45530  10.704  11.971   3.774
81233SOL    HW145531  10.789  11.926   3.779
81233SOL    HW245532  10.722  12.051   3.724
81234SOL     OW45533   1.692   2.146   4.918
81234SOL    HW145534   1.671   2.210   4.850
81234SOL    HW245535   1.749   2.082   4.874
81235SOL     OW45536   4.072   3.165   9.736
81235SOL    HW145537   4.015   3.122   9.672
81235SOL    HW245538   4.042   3.256   9.735
81236SOL     OW45539   5.308   5.383   5.390
81236SOL    HW145540   5.373   5.449   5.413
81236SOL    HW245541   5.263   5.364   5.472
81237SOL     OW45542   2.563   9.207   5.421
81237SOL    HW145543   2.551   9.122   5.463
81237SOL    HW245544   2.614   9.187   5.342
81238SOL     OW45545  13.279   4.218   8.305
81238SOL    HW145546  13.193   4.258   8.321
81238SOL    HW245547  13.268   4.172   8.222
81239SOL     OW45548   8.109   4.173   9.189
81239SOL    HW145549   8.080   4.141   9.275
81239SOL    HW245550   8.186   4.226   9.207
81240SOL     OW45551   0.758   3.254  11.154
81240SOL    HW145552   0.730   3.164  11.170
81240SOL    HW245553   0.848   3.246  11.122
81241SOL     OW45554  14.230   3.433  12.120
81241SOL    HW145555  14.312   3.400  12.157
81241SOL    HW245556  14.240   3.529  12.124
81242SOL     OW45557  11.847   3.425   3.818
81242SOL    HW145558  11.763   3.434   3.773
81242SOL    HW245559  11.827   3.442   3.910
81243SOL     OW45560  13.144   7.754   3.387
81243SOL    HW145561  13.237   7.738   3.369
81243SOL    HW245562  13.136   7.850   3.385
81244SOL     OW45563  12.334   8.100   0.130
81244SOL    HW145564  12.266   8.068   0.190
81244SOL    HW245565  12.402   8.135   0.187
81245SOL     OW45566   2.037   8.022   9.647
81245SOL    HW145567   2.101   7.989   9.709
81245SOL    HW245568   1.981   7.946   9.628
81246SOL     OW45569   8.796  13.264  10.829
81246SOL    HW145570   8.830  13.353  10.839
81246SOL    HW245571   8.702  13.273  10.845
81247SOL     OW45572   7.413   8.555   8.195
81247SOL    HW145573   7.409   8.566   8.100
81247SOL    HW245574   7.463   8.474   8.207
81248SOL     OW45575   8.524  14.385  14.277
81248SOL    HW145576   8.598  14.427  14.232
81248SOL    HW245577   8.447  14.432  14.246
81249SOL     OW45578  13.313   2.718  10.693
81249SOL    HW145579  13.322   2.800  10.644
81249SOL    HW245580  13.348   2.651  10.635
81250SOL     OW45581  14.651   5.636  14.342
81250SOL    HW145582  14.606   5.557  14.371
81250SOL    HW245583  14.584   5.686  14.295
81251SOL     OW45584   9.047  12.103   9.785
81251SOL    HW145585   9.138  12.093   9.759
81251SOL    HW245586   9.041  12.192   9.821
81252SOL     OW45587   3.786   4.404   7.258
81252SOL    HW145588   3.846   4.420   7.331
81252SOL    HW245589   3.743   4.488   7.244
81253SOL     OW45590   9.094   3.764  12.070
81253SOL    HW145591   9.069   3.856  12.065
81253SOL    HW245592   9.190   3.766  12.075
81254SOL     OW45593   9.675   4.770   7.109
81254SOL    HW145594   9.701   4.862   7.119
81254SOL    HW245595   9.624   4.751   7.188
81255SOL     OW45596  12.815   1.547   2.879
81255SOL    HW145597  12.788   1.618   2.937
81255SOL    HW245598  12.733   1.504   2.854
81256SOL     OW45599   1.112   7.721  11.445
81256SOL    HW145600   1.031   7.740  11.492
81256SOL    HW245601   1.132   7.801  11.397
81257SOL     OW45602  13.972  13.497  13.954
81257SOL    HW145603  13.969  13.417  13.901
81257SOL    HW245604  13.894  13.492  14.009
81258SOL     OW45605   6.603   8.225   0.682
81258SOL    HW145606   6.545   8.300   0.688
81258SOL    HW245607   6.690   8.263   0.668
81259SOL     OW45608  13.297   4.591   9.456
81259SOL    HW145609  13.227   4.573   9.394
81259SOL    HW245610  13.375   4.602   9.401
81260SOL     OW45611  12.508   7.695   4.592
81260SOL    HW145612  12.432   7.723   4.541
81260SOL    HW245613  12.472   7.634   4.656
81261SOL     OW45614   6.261   7.938  11.116
81261SOL    HW145615   6.250   7.859  11.167
81261SOL    HW245616   6.178   7.948  11.069
81262SOL     OW45617   0.843   2.914   3.605
81262SOL    HW145618   0.877   3.000   3.579
81262SOL    HW245619   0.907   2.881   3.668
81263SOL     OW45620   7.123   6.482  13.804
81263SOL    HW145621   7.147   6.484  13.711
81263SOL    HW245622   7.034   6.518  13.806
81264SOL     OW45623   6.725   4.437   1.250
81264SOL    HW145624   6.678   4.389   1.182
81264SOL    HW245625   6.745   4.371   1.317
81265SOL     OW45626   6.080  10.163   6.922
81265SOL    HW145627   6.019  10.120   6.983
81265SOL    HW245628   6.162  10.169   6.971
81266SOL     OW45629  12.379  13.644   9.734
81266SOL    HW145630  12.369  13.554   9.704
81266SOL    HW245631  12.473  13.654   9.750
81267SOL     OW45632   6.096   0.249   2.682
81267SOL    HW145633   6.110   0.308   2.756
81267SOL    HW245634   6.170   0.265   2.623
81268SOL     OW45635  12.024   7.563   4.495
81268SOL    HW145636  12.014   7.586   4.402
81268SOL    HW245637  12.054   7.643   4.537
81269SOL     OW45638   6.662   9.760   9.196
81269SOL    HW145639   6.725   9.830   9.179
81269SOL    HW245640   6.701   9.710   9.268
81270SOL     OW45641  13.486  12.484   5.015
81270SOL    HW145642  13.563  12.462   4.964
81270SOL    HW245643  13.469  12.576   4.996
81271SOL     OW45644  13.020   7.087   1.708
81271SOL    HW145645  13.101   7.099   1.759
81271SOL    HW245646  13.042   7.121   1.621
81272SOL     OW45647  12.521   3.892   8.235
81272SOL    HW145648  12.585   3.928   8.297
81272SOL    HW245649  12.449   3.861   8.290
81273SOL     OW45650   6.427  12.415  10.611
81273SOL    HW145651   6.519  12.437  10.596
81273SOL    HW245652   6.394  12.392  10.524
81274SOL     OW45653  11.416  10.906   2.858
81274SOL    HW145654  11.512  10.914   2.863
81274SOL    HW245655  11.384  10.989   2.894
81275SOL     OW45656   0.607   3.401   7.503
81275SOL    HW145657   0.701   3.412   7.517
81275SOL    HW245658   0.567   3.475   7.549
81276SOL     OW45659   1.673  10.434   2.893
81276SOL    HW145660   1.683  10.497   2.964
81276SOL    HW245661   1.663  10.488   2.814
81277SOL     OW45662   6.527   2.821   1.243
81277SOL    HW145663   6.526   2.900   1.296
81277SOL    HW245664   6.615   2.817   1.206
81278SOL     OW45665   6.248   8.277   6.690
81278SOL    HW145666   6.281   8.316   6.771
81278SOL    HW245667   6.180   8.338   6.661
81279SOL     OW45668  10.791   2.956   8.923
81279SOL    HW145669  10.752   3.043   8.913
81279SOL    HW245670  10.885   2.972   8.930
81280SOL     OW45671   0.555   3.453  10.141
81280SOL    HW145672   0.498   3.464  10.217
81280SOL    HW245673   0.643   3.463  10.176
81281SOL     OW45674  13.900   2.342  12.506
81281SOL    HW145675  13.869   2.391  12.582
81281SOL    HW245676  13.827   2.345  12.445
81282SOL     OW45677  14.629   7.703   2.498
81282SOL    HW145678  14.665   7.725   2.584
81282SOL    HW245679  14.629   7.607   2.496
81283SOL     OW45680   3.905  11.788   1.993
81283SOL    HW145681   3.860  11.867   2.023
81283SOL    HW245682   3.888  11.785   1.898
81284SOL     OW45683   1.797   6.437   5.377
81284SOL    HW145684   1.805   6.445   5.472
81284SOL    HW245685   1.887   6.425   5.347
81285SOL     OW45686   1.899   3.542   9.739
81285SOL    HW145687   1.891   3.483   9.664
81285SOL    HW245688   1.894   3.485   9.816
81286SOL     OW45689  10.794   9.296   5.738
81286SOL    HW145690  10.798   9.227   5.672
81286SOL    HW245691  10.823   9.253   5.819
81287SOL     OW45692   2.639  10.316   5.878
81287SOL    HW145693   2.551  10.348   5.859
81287SOL    HW245694   2.660  10.352   5.964
81288SOL     OW45695   1.380  14.065   8.599
81288SOL    HW145696   1.331  14.042   8.520
81288SOL    HW245697   1.397  13.981   8.642
81289SOL     OW45698  13.884   1.856   9.000
81289SOL    HW145699  13.948   1.839   8.931
81289SOL    HW245700  13.908   1.796   9.071
81290SOL     OW45701   6.673  10.812   3.615
81290SOL    HW145702   6.752  10.857   3.584
81290SOL    HW245703   6.614  10.812   3.539
81291SOL     OW45704   5.244  14.051  10.266
81291SOL    HW145705   5.266  14.083  10.353
81291SOL    HW245706   5.253  13.956  10.272
81292SOL     OW45707   8.752   3.469   1.650
81292SOL    HW145708   8.749   3.397   1.713
81292SOL    HW245709   8.824   3.447   1.591
81293SOL     OW45710   3.380   7.289  10.177
81293SOL    HW145711   3.314   7.222  10.198
81293SOL    HW245712   3.448   7.241  10.130
81294SOL     OW45713   3.976  14.060   4.453
81294SOL    HW145714   3.962  13.967   4.466
81294SOL    HW245715   4.071  14.070   4.450
81295SOL     OW45716   1.200   2.648  12.860
81295SOL    HW145717   1.114   2.684  12.884
81295SOL    HW245718   1.260   2.723  12.867
81296SOL     OW45719   3.282  13.616   7.060
81296SOL    HW145720   3.283  13.522   7.082
81296SOL    HW245721   3.190  13.635   7.041
81297SOL     OW45722   5.767   1.373   9.491
81297SOL    HW145723   5.800   1.394   9.403
81297SOL    HW245724   5.842   1.333   9.535
81298SOL     OW45725   3.428  11.262   9.157
81298SOL    HW145726   3.345  11.311   9.158
81298SOL    HW245727   3.406  11.180   9.114
81299SOL     OW45728   1.396   2.312   4.025
81299SOL    HW145729   1.435   2.398   4.008
81299SOL    HW245730   1.471   2.254   4.040
81300SOL     OW45731  10.049  10.665   4.037
81300SOL    HW145732  10.105  10.617   3.975
81300SOL    HW245733  10.062  10.757   4.016
81301SOL     OW45734  14.038  11.635   8.373
81301SOL    HW145735  14.054  11.631   8.279
81301SOL    HW245736  14.011  11.725   8.389
81302SOL     OW45737  12.131   3.598   2.219
81302SOL    HW145738  12.107   3.597   2.312
81302SOL    HW245739  12.186   3.520   2.208
81303SOL     OW45740  12.291   1.294   7.442
81303SOL    HW145741  12.230   1.231   7.480
81303SOL    HW245742  12.292   1.367   7.504
81304SOL     OW45743   1.531  11.892   0.218
81304SOL    HW145744   1.607  11.895   0.159
81304SOL    HW245745   1.539  11.807   0.262
81305SOL     OW45746   5.135   2.738   1.628
81305SOL    HW145747   5.221   2.775   1.647
81305SOL    HW245748   5.142   2.703   1.539
81306SOL     OW45749  10.592   7.804   2.856
81306SOL    HW145750  10.511   7.762   2.826
81306SOL    HW245751  10.589   7.796   2.951
81307SOL     OW45752  13.397   1.276   8.730
81307SOL    HW145753  13.317   1.223   8.727
81307SOL    HW245754  13.385   1.333   8.806
81308SOL     OW45755  10.984   1.143  14.313
81308SOL    HW145756  10.968   1.233  14.285
81308SOL    HW245757  10.997   1.095  14.231
81309SOL     OW45758   6.932   8.431   6.108
81309SOL    HW145759   6.992   8.469   6.044
81309SOL    HW245760   6.845   8.449   6.073
81310SOL     OW45761   7.453   7.453  14.392
81310SOL    HW145762   7.360   7.431  14.386
81310SOL    HW245763   7.456   7.525  14.455
81311SOL     OW45764  13.052   9.965   5.967
81311SOL    HW145765  13.136   9.990   6.006
81311SOL    HW245766  13.005  10.047   5.956
81312SOL     OW45767  13.965   9.447   2.818
81312SOL    HW145768  13.954   9.466   2.911
81312SOL    HW245769  14.060   9.445   2.804
81313SOL     OW45770  10.641  10.035  11.509
81313SOL    HW145771  10.656  10.078  11.425
81313SOL    HW245772  10.607   9.948  11.486
81314SOL     OW45773   2.144   7.985   7.066
81314SOL    HW145774   2.194   7.929   7.125
81314SOL    HW245775   2.175   8.074   7.085
81315SOL     OW45776   5.013   1.172   1.606
81315SOL    HW145777   5.025   1.105   1.539
81315SOL    HW245778   4.927   1.211   1.586
81316SOL     OW45779   2.273   6.040  10.059
81316SOL    HW145780   2.207   6.017   9.993
81316SOL    HW245781   2.342   6.085  10.010
81317SOL     OW45782   3.503  13.503   7.350
81317SOL    HW145783   3.568  13.558   7.306
81317SOL    HW245784   3.446  13.565   7.396
81318SOL     OW45785   9.209   8.287  14.224
81318SOL    HW145786   9.200   8.263  14.132
81318SOL    HW245787   9.128   8.255  14.265
81319SOL     OW45788   8.485   1.879   7.517
81319SOL    HW145789   8.541   1.802   7.507
81319SOL    HW245790   8.411   1.849   7.569
81320SOL     OW45791  13.636   0.290   6.875
81320SOL    HW145792  13.618   0.196   6.874
81320SOL    HW245793  13.634   0.317   6.783
81321SOL     OW45794  10.052   4.979   0.536
81321SOL    HW145795  10.100   5.056   0.505
81321SOL    HW245796  10.000   4.952   0.460
81322SOL     OW45797   6.068   2.517  14.060
81322SOL    HW145798   5.999   2.513  13.994
81322SOL    HW245799   6.021   2.513  14.144
81323SOL     OW45800   6.057   3.677   8.124
81323SOL    HW145801   6.098   3.760   8.099
81323SOL    HW245802   6.099   3.612   8.067
81324SOL     OW45803   4.989  10.088  11.515
81324SOL    HW145804   4.994  10.153  11.585
81324SOL    HW245805   5.034  10.128  11.441
81325SOL     OW45806  10.731   7.573   2.855
81325SOL    HW145807  10.689   7.659   2.861
81325SOL    HW245808  10.739   7.544   2.945
81326SOL     OW45809   7.825  11.224   8.878
81326SOL    HW145810   7.771  11.179   8.942
81326SOL    HW245811   7.828  11.164   8.803
81327SOL     OW45812   5.485   0.313   6.764
81327SOL    HW145813   5.440   0.246   6.815
81327SOL    HW245814   5.554   0.345   6.822
81328SOL     OW45815   3.630   1.443  11.964
81328SOL    HW145816   3.554   1.416  11.911
81328SOL    HW245817   3.598   1.443  12.054
81329SOL     OW45818  13.156   6.976  12.023
81329SOL    HW145819  13.244   7.004  11.996
81329SOL    HW245820  13.101   6.999  11.948
81330SOL     OW45821   9.096   4.295   5.725
81330SOL    HW145822   9.060   4.372   5.680
81330SOL    HW245823   9.191   4.301   5.710
81331SOL     OW45824   5.982   2.077  13.457
81331SOL    HW145825   6.025   2.005  13.411
81331SOL    HW245826   6.013   2.071  13.547
81332SOL     OW45827   1.507   2.377   6.316
81332SOL    HW145828   1.481   2.355   6.405
81332SOL    HW245829   1.460   2.314   6.261
81333SOL     OW45830   8.533   5.912   2.185
81333SOL    HW145831   8.624   5.941   2.182
81333SOL    HW245832   8.482   5.993   2.186
81334SOL     OW45833   9.115   2.543   6.951
81334SOL    HW145834   9.030   2.588   6.946
81334SOL    HW245835   9.155   2.558   6.865
81335SOL     OW45836   5.993   1.376   4.886
81335SOL    HW145837   5.942   1.432   4.945
81335SOL    HW245838   6.084   1.402   4.899
81336SOL     OW45839  11.022   6.756   3.837
81336SOL    HW145840  10.969   6.678   3.823
81336SOL    HW245841  10.974   6.806   3.903
81337SOL     OW45842   5.951   7.346   0.061
81337SOL    HW145843   5.944   7.332   0.156
81337SOL    HW245844   6.019   7.284   0.033
81338SOL     OW45845   5.082   0.590  12.876
81338SOL    HW145846   5.070   0.575  12.782
81338SOL    HW245847   5.058   0.682  12.889
81339SOL     OW45848   5.228   8.318   7.628
81339SOL    HW145849   5.223   8.272   7.544
81339SOL    HW245850   5.201   8.408   7.607
81340SOL     OW45851   0.962   7.299   5.475
81340SOL    HW145852   1.028   7.292   5.544
81340SOL    HW245853   0.949   7.393   5.464
81341SOL     OW45854  13.373   5.894   4.582
81341SOL    HW145855  13.341   5.846   4.658
81341SOL    HW245856  13.337   5.847   4.507
81342SOL     OW45857   9.049   9.270  11.604
81342SOL    HW145858   8.977   9.294  11.663
81342SOL    HW245859   9.006   9.235  11.526
81343SOL     OW45860   7.041  11.418   9.018
81343SOL    HW145861   7.002  11.441   8.933
81343SOL    HW245862   6.966  11.394   9.072
81344SOL     OW45863   0.015  11.076  10.935
81344SOL    HW145864   0.105  11.103  10.918
81344SOL    HW245865   0.003  11.088  11.029
81345SOL     OW45866   3.776   3.758   9.685
81345SOL    HW145867   3.730   3.695   9.740
81345SOL    HW245868   3.789   3.713   9.602
81346SOL     OW45869  12.944   7.909   6.429
81346SOL    HW145870  12.951   7.814   6.438
81346SOL    HW245871  12.853   7.924   6.404
81347SOL     OW45872  13.950   5.273   4.027
81347SOL    HW145873  14.008   5.282   4.103
81347SOL    HW245874  13.917   5.184   4.031
81348SOL     OW45875   1.320   7.022   2.391
81348SOL    HW145876   1.384   6.960   2.426
81348SOL    HW245877   1.371   7.101   2.371
81349SOL     OW45878  11.209   6.245   4.502
81349SOL    HW145879  11.302   6.257   4.516
81349SOL    HW245880  11.179   6.327   4.462
81350SOL     OW45881  14.451  12.850  13.972
81350SOL    HW145882  14.464  12.940  14.000
81350SOL    HW245883  14.412  12.856  13.885
81351SOL     OW45884  12.918   7.442   7.059
81351SOL    HW145885  12.929   7.354   7.023
81351SOL    HW245886  12.868   7.489   6.993
81352SOL     OW45887  11.428   7.773  11.935
81352SOL    HW145888  11.478   7.835  11.988
81352SOL    HW245889  11.363   7.737  11.996
81353SOL     OW45890   4.891   7.277   4.184
81353SOL    HW145891   4.937   7.320   4.111
81353SOL    HW245892   4.928   7.189   4.187
81354SOL     OW45893   8.433   2.570   3.339
81354SOL    HW145894   8.518   2.576   3.382
81354SOL    HW245895   8.450   2.517   3.260
81355SOL     OW45896  11.571   4.331   0.716
81355SOL    HW145897  11.517   4.267   0.762
81355SOL    HW245898  11.641   4.351   0.777
81356SOL     OW45899   4.396   0.697   1.975
81356SOL    HW145900   4.419   0.732   2.061
81356SOL    HW245901   4.455   0.743   1.914
81357SOL     OW45902  10.779   8.556   2.125
81357SOL    HW145903  10.867   8.563   2.162
81357SOL    HW245904  10.721   8.586   2.195
81358SOL     OW45905   4.360  12.649   7.974
81358SOL    HW145906   4.442  12.613   8.008
81358SOL    HW245907   4.292  12.603   8.023
81359SOL     OW45908   6.302   0.477  10.463
81359SOL    HW145909   6.328   0.513  10.378
81359SOL    HW245910   6.220   0.432  10.445
81360SOL     OW45911   6.663  12.933   6.016
81360SOL    HW145912   6.746  12.944   6.063
81360SOL    HW245913   6.625  13.020   6.014
81361SOL     OW45914  11.961   4.780  13.008
81361SOL    HW145915  11.923   4.756  12.923
81361SOL    HW245916  11.917   4.722  13.070
81362SOL     OW45917  13.342  14.747  11.831
81362SOL    HW145918  13.346  14.833  11.790
81362SOL    HW245919  13.357  14.764  11.924
81363SOL     OW45920   2.004  13.529   7.838
81363SOL    HW145921   1.953  13.570   7.769
81363SOL    HW245922   1.962  13.557   7.919
81364SOL     OW45923  13.266   2.288   2.132
81364SOL    HW145924  13.240   2.233   2.059
81364SOL    HW245925  13.303   2.227   2.196
81365SOL     OW45926   7.314  10.905   9.903
81365SOL    HW145927   7.288  10.826   9.856
81365SOL    HW245928   7.286  10.889   9.993
81366SOL     OW45929   3.279   7.327   4.357
81366SOL    HW145930   3.214   7.339   4.287
81366SOL    HW245931   3.345   7.269   4.318
81367SOL     OW45932  11.743   3.095   0.010
81367SOL    HW145933  11.789   3.138  14.809
81367SOL    HW245934  11.808   3.036   0.048
81368SOL     OW45935  14.222   1.744   1.016
81368SOL    HW145936  14.248   1.709   1.101
81368SOL    HW245937  14.189   1.667   0.968
81369SOL     OW45938  14.435   9.010   8.912
81369SOL    HW145939  14.384   8.946   8.863
81369SOL    HW245940  14.501   9.041   8.850
81370SOL     OW45941   5.194   2.520  10.428
81370SOL    HW145942   5.265   2.457  10.435
81370SOL    HW245943   5.170   2.539  10.519
81371SOL     OW45944   2.108   5.344  13.696
81371SOL    HW145945   2.015   5.329  13.716
81371SOL    HW245946   2.152   5.327  13.779
81372SOL     OW45947  13.043   7.064  14.143
81372SOL    HW145948  13.128   7.029  14.116
81372SOL    HW245949  13.064   7.128  14.212
81373SOL     OW45950  10.256  14.314  11.993
81373SOL    HW145951  10.285  14.231  11.956
81373SOL    HW245952  10.182  14.341  11.939
81374SOL     OW45953   1.743  11.890   5.497
81374SOL    HW145954   1.704  11.893   5.410
81374SOL    HW245955   1.690  11.949   5.550
81375SOL     OW45956   7.673   1.721   8.395
81375SOL    HW145957   7.753   1.670   8.382
81375SOL    HW245958   7.624   1.672   8.461
81376SOL     OW45959   4.113   3.976  12.598
81376SOL    HW145960   4.077   4.001  12.683
81376SOL    HW245961   4.094   3.883  12.590
81377SOL     OW45962   5.185   0.067   5.097
81377SOL    HW145963   5.211   0.157   5.115
81377SOL    HW245964   5.250   0.035   5.035
81378SOL     OW45965   9.719  10.794   0.812
81378SOL    HW145966   9.751  10.730   0.748
81378SOL    HW245967   9.798  10.840   0.841
81379SOL     OW45968  12.899   7.641  10.578
81379SOL    HW145969  12.876   7.555  10.543
81379SOL    HW245970  12.960   7.621  10.650
81380SOL     OW45971   1.201   0.847  14.435
81380SOL    HW145972   1.163   0.929  14.464
81380SOL    HW245973   1.289   0.870  14.403
81381SOL     OW45974   5.173  11.542  11.722
81381SOL    HW145975   5.250  11.487  11.735
81381SOL    HW245976   5.167  11.596  11.800
81382SOL     OW45977  14.420   0.976   7.498
81382SOL    HW145978  14.333   1.003   7.469
81382SOL    HW245979  14.442   1.039   7.567
81383SOL     OW45980   0.337  11.060  12.469
81383SOL    HW145981   0.394  10.982  12.472
81383SOL    HW245982   0.286  11.055  12.550
81384SOL     OW45983  12.810   0.609   2.388
81384SOL    HW145984  12.769   0.524   2.373
81384SOL    HW245985  12.818   0.616   2.483
81385SOL     OW45986  11.278   4.357   2.111
81385SOL    HW145987  11.217   4.428   2.091
81385SOL    HW245988  11.228   4.297   2.167
81386SOL     OW45989   3.672   7.599   0.266
81386SOL    HW145990   3.684   7.555   0.182
81386SOL    HW245991   3.616   7.674   0.247
81387SOL     OW45992   4.467   5.180   1.565
81387SOL    HW145993   4.449   5.272   1.545
81387SOL    HW245994   4.380   5.138   1.565
81388SOL     OW45995   2.723   0.231   8.755
81388SOL    HW145996   2.688   0.185   8.678
81388SOL    HW245997   2.692   0.179   8.829
81389SOL     OW45998  10.609   0.381   8.216
81389SOL    HW145999  10.661   0.410   8.291
81389SOL    HW246000  10.670   0.381   8.143
81390SOL     OW46001   4.739   3.894   0.105
81390SOL    HW146002   4.754   3.809   0.145
81390SOL    HW246003   4.770   3.958   0.169
81391SOL     OW46004   3.096   4.885   7.164
81391SOL    HW146005   3.041   4.864   7.240
81391SOL    HW246006   3.035   4.885   7.090
81392SOL     OW46007   7.848   1.912  11.839
81392SOL    HW146008   7.780   1.861  11.883
81392SOL    HW246009   7.815   2.002  11.838
81393SOL     OW46010  11.135   2.599  13.591
81393SOL    HW146011  11.075   2.673  13.604
81393SOL    HW246012  11.173   2.614  13.505
81394SOL     OW46013   2.513  13.894   9.067
81394SOL    HW146014   2.525  13.983   9.032
81394SOL    HW246015   2.590  13.880   9.122
81395SOL     OW46016   6.573  10.048   9.848
81395SOL    HW146017   6.544   9.989   9.918
81395SOL    HW246018   6.580  10.134   9.891
81396SOL     OW46019  14.464   5.179   0.965
81396SOL    HW146020  14.447   5.264   0.924
81396SOL    HW246021  14.382   5.158   1.011
81397SOL     OW46022   6.166   9.320   2.765
81397SOL    HW146023   6.245   9.267   2.769
81397SOL    HW246024   6.095   9.257   2.754
81398SOL     OW46025  14.586   1.823   8.619
81398SOL    HW146026  14.600   1.741   8.666
81398SOL    HW246027  14.656   1.825   8.553
81399SOL     OW46028  14.297  10.259   2.548
81399SOL    HW146029  14.243  10.256   2.627
81399SOL    HW246030  14.244  10.305   2.484
81400SOL     OW46031   2.133  13.605   5.146
81400SOL    HW146032   2.083  13.684   5.167
81400SOL    HW246033   2.149  13.611   5.052
81401SOL     OW46034  11.896  12.450   7.755
81401SOL    HW146035  11.844  12.469   7.833
81401SOL    HW246036  11.985  12.476   7.778
81402SOL     OW46037   8.814   2.528   2.703
81402SOL    HW146038   8.827   2.448   2.753
81402SOL    HW246039   8.803   2.499   2.613
81403SOL     OW46040  13.090   3.979  11.483
81403SOL    HW146041  13.022   4.044  11.468
81403SOL    HW246042  13.137   4.012  11.561
81404SOL     OW46043  10.583   4.857   4.106
81404SOL    HW146044  10.612   4.904   4.028
81404SOL    HW246045  10.538   4.923   4.159
81405SOL     OW46046  11.111   4.558   5.892
81405SOL    HW146047  11.166   4.530   5.819
81405SOL    HW246048  11.044   4.490   5.899
81406SOL     OW46049  13.425   1.711   8.701
81406SOL    HW146050  13.500   1.752   8.745
81406SOL    HW246051  13.460   1.631   8.663
81407SOL     OW46052   1.623  12.277   4.983
81407SOL    HW146053   1.534  12.257   5.013
81407SOL    HW246054   1.613  12.292   4.889
81408SOL     OW46055   7.293   4.611   7.216
81408SOL    HW146056   7.384   4.640   7.220
81408SOL    HW246057   7.242   4.691   7.203
81409SOL     OW46058   9.024   8.580  14.452
81409SOL    HW146059   8.961   8.510  14.434
81409SOL    HW246060   9.041   8.573  14.546
81410SOL     OW46061  10.290   9.587  10.261
81410SOL    HW146062  10.303   9.492  10.260
81410SOL    HW246063  10.224   9.603  10.194
81411SOL     OW46064  13.118  13.472  10.984
81411SOL    HW146065  13.188  13.422  10.941
81411SOL    HW246066  13.096  13.421  11.061
81412SOL     OW46067  12.743   3.635  13.490
81412SOL    HW146068  12.650   3.655  13.484
81412SOL    HW246069  12.769   3.612  13.401
81413SOL     OW46070   3.625  12.951   7.564
81413SOL    HW146071   3.691  12.881   7.568
81413SOL    HW246072   3.639  13.002   7.644
81414SOL     OW46073  14.389   1.120   3.295
81414SOL    HW146074  14.409   1.135   3.203
81414SOL    HW246075  14.420   1.031   3.313
81415SOL     OW46076   8.173   4.743  14.608
81415SOL    HW146077   8.190   4.674  14.544
81415SOL    HW246078   8.130   4.698  14.681
81416SOL     OW46079   3.789   7.588   8.083
81416SOL    HW146080   3.844   7.525   8.130
81416SOL    HW246081   3.702   7.549   8.084
81417SOL     OW46082  13.175  11.320   5.253
81417SOL    HW146083  13.175  11.229   5.284
81417SOL    HW246084  13.089  11.330   5.211
81418SOL     OW46085  12.778  13.379   8.557
81418SOL    HW146086  12.702  13.342   8.601
81418SOL    HW246087  12.853  13.345   8.606
81419SOL     OW46088   8.934   1.935   9.556
81419SOL    HW146089   9.006   1.884   9.594
81419SOL    HW246090   8.973   2.020   9.536
81420SOL     OW46091  12.615   3.369   9.584
81420SOL    HW146092  12.544   3.425   9.554
81420SOL    HW246093  12.572   3.286   9.605
81421SOL     OW46094  10.901   8.186   2.925
81421SOL    HW146095  10.950   8.113   2.887
81421SOL    HW246096  10.842   8.145   2.988
81422SOL     OW46097   9.267   3.427  14.544
81422SOL    HW146098   9.198   3.394  14.486
81422SOL    HW246099   9.259   3.374  14.623
81423SOL     OW46100   3.462   8.473   6.945
81423SOL    HW146101   3.523   8.546   6.959
81423SOL    HW246102   3.498   8.427   6.869
81424SOL     OW46103   5.219   3.561  12.879
81424SOL    HW146104   5.253   3.471  12.890
81424SOL    HW246105   5.151   3.553  12.813
81425SOL     OW46106   9.821   4.942   2.490
81425SOL    HW146107   9.777   5.013   2.537
81425SOL    HW246108   9.906   4.934   2.532
81426SOL     OW46109  14.026   8.242   4.536
81426SOL    HW146110  14.019   8.273   4.445
81426SOL    HW246111  14.113   8.270   4.564
81427SOL     OW46112   5.355  14.331   7.902
81427SOL    HW146113   5.419  14.294   7.840
81427SOL    HW246114   5.390  14.308   7.988
81428SOL     OW46115   6.337  14.705  13.127
81428SOL    HW146116   6.259  14.658  13.158
81428SOL    HW246117   6.360  14.764  13.199
81429SOL     OW46118   0.009  11.354   3.988
81429SOL    HW146119  14.792  11.374   3.959
81429SOL    HW246120   0.043  11.294   3.922
81430SOL     OW46121  12.827   4.028   3.735
81430SOL    HW146122  12.744   4.056   3.697
81430SOL    HW246123  12.875   4.109   3.753
81431SOL     OW46124   9.149   3.712  13.209
81431SOL    HW146125   9.231   3.753  13.180
81431SOL    HW246126   9.177   3.631  13.252
81432SOL     OW46127   5.410   1.257   3.684
81432SOL    HW146128   5.460   1.178   3.664
81432SOL    HW246129   5.453   1.294   3.760
81433SOL     OW46130  11.647   3.641   4.505
81433SOL    HW146131  11.710   3.661   4.435
81433SOL    HW246132  11.584   3.582   4.464
81434SOL     OW46133   8.744   2.755   7.742
81434SOL    HW146134   8.804   2.752   7.817
81434SOL    HW246135   8.706   2.842   7.745
81435SOL     OW46136   8.947   1.279   5.074
81435SOL    HW146137   8.883   1.338   5.115
81435SOL    HW246138   8.895   1.224   5.016
81436SOL     OW46139   0.429   4.188  11.412
81436SOL    HW146140   0.347   4.150  11.381
81436SOL    HW246141   0.429   4.277  11.376
81437SOL     OW46142  11.163  10.377  14.495
81437SOL    HW146143  11.190  10.333  14.576
81437SOL    HW246144  11.164  10.470  14.517
81438SOL     OW46145  10.386   1.633  12.409
81438SOL    HW146146  10.410   1.724  12.427
81438SOL    HW246147  10.419   1.617  12.321
81439SOL     OW46148   2.440   3.433  13.029
81439SOL    HW146149   2.438   3.365  12.962
81439SOL    HW246150   2.364   3.415  13.084
81440SOL     OW46151   7.760   0.618  11.505
81440SOL    HW146152   7.734   0.527  11.517
81440SOL    HW246153   7.798   0.644  11.589
81441SOL     OW46154   0.049  14.360   6.396
81441SOL    HW146155   0.108  14.302   6.444
81441SOL    HW246156   0.011  14.417   6.463
81442SOL     OW46157  14.488  12.758   8.452
81442SOL    HW146158  14.568  12.729   8.408
81442SOL    HW246159  14.518  12.816   8.521
81443SOL     OW46160  10.914  14.038   5.541
81443SOL    HW146161  10.969  14.064   5.467
81443SOL    HW246162  10.931  13.944   5.551
81444SOL     OW46163   3.435  12.852  12.106
81444SOL    HW146164   3.390  12.887  12.029
81444SOL    HW246165   3.493  12.922  12.135
81445SOL     OW46166   7.699   5.566  10.804
81445SOL    HW146167   7.694   5.532  10.714
81445SOL    HW246168   7.659   5.653  10.799
81446SOL     OW46169  12.706   4.254   6.188
81446SOL    HW146170  12.717   4.209   6.104
81446SOL    HW246171  12.724   4.346   6.168
81447SOL     OW46172   2.793  11.570   2.993
81447SOL    HW146173   2.830  11.539   2.911
81447SOL    HW246174   2.865  11.565   3.056
81448SOL     OW46175  11.628  13.421   6.037
81448SOL    HW146176  11.674  13.477   5.975
81448SOL    HW246177  11.615  13.338   5.990
81449SOL     OW46178  12.985   5.734   0.915
81449SOL    HW146179  13.046   5.675   0.871
81449SOL    HW246180  13.027   5.755   0.999
81450SOL     OW46181   3.944  11.475   9.094
81450SOL    HW146182   4.014  11.530   9.060
81450SOL    HW246183   3.936  11.502   9.186
81451SOL     OW46184   3.288   0.178   5.072
81451SOL    HW146185   3.269   0.115   5.141
81451SOL    HW246186   3.203   0.197   5.032
81452SOL     OW46187  13.471  11.447   5.817
81452SOL    HW146188  13.528  11.451   5.741
81452SOL    HW246189  13.401  11.386   5.792
81453SOL     OW46190  10.404  12.203   9.522
81453SOL    HW146191  10.313  12.172   9.530
81453SOL    HW246192  10.454  12.143   9.577
81454SOL     OW46193  14.637   8.865  11.712
81454SOL    HW146194  14.730   8.860  11.690
81454SOL    HW246195  14.633   8.842  11.805
81455SOL     OW46196   6.028  10.015  13.665
81455SOL    HW146197   6.024   9.936  13.718
81455SOL    HW246198   5.951  10.065  13.690
81456SOL     OW46199   2.357  12.182   5.762
81456SOL    HW146200   2.270  12.220   5.770
81456SOL    HW246201   2.416  12.257   5.755
81457SOL     OW46202   7.238   7.404   8.171
81457SOL    HW146203   7.324   7.418   8.132
81457SOL    HW246204   7.201   7.330   8.123
81458SOL     OW46205  11.543  10.243   4.476
81458SOL    HW146206  11.619  10.298   4.456
81458SOL    HW246207  11.576  10.153   4.468
81459SOL     OW46208   6.701  13.032   0.794
81459SOL    HW146209   6.689  13.025   0.889
81459SOL    HW246210   6.616  13.008   0.757
81460SOL     OW46211   0.413   6.797   0.268
81460SOL    HW146212   0.386   6.820   0.357
81460SOL    HW246213   0.507   6.815   0.266
81461SOL     OW46214  14.371  13.119  11.424
81461SOL    HW146215  14.421  13.194  11.459
81461SOL    HW246216  14.420  13.092  11.346
81462SOL     OW46217  12.542   5.027   5.917
81462SOL    HW146218  12.564   4.939   5.886
81462SOL    HW246219  12.623   5.076   5.909
81463SOL     OW46220   1.410  13.747   0.215
81463SOL    HW146221   1.483  13.697   0.252
81463SOL    HW246222   1.365  13.686   0.157
81464SOL     OW46223   0.665   6.241  12.939
81464SOL    HW146224   0.752   6.201  12.935
81464SOL    HW246225   0.646   6.265  12.848
81465SOL     OW46226  14.001   2.088   0.376
81465SOL    HW146227  14.083   2.088   0.325
81465SOL    HW246228  14.006   2.008   0.429
81466SOL     OW46229   2.705   9.858   1.978
81466SOL    HW146230   2.673   9.869   1.889
81466SOL    HW246231   2.708   9.947   2.013
81467SOL     OW46232   1.823   9.493   1.980
81467SOL    HW146233   1.898   9.442   2.011
81467SOL    HW246234   1.857   9.540   1.903
81468SOL     OW46235   4.734  11.996   2.260
81468SOL    HW146236   4.694  11.984   2.346
81468SOL    HW246237   4.821  12.030   2.278
81469SOL     OW46238   7.939   8.829  14.516
81469SOL    HW146239   7.916   8.832  14.609
81469SOL    HW246240   8.018   8.883  14.509
81470SOL     OW46241   5.748  13.326  11.984
81470SOL    HW146242   5.796  13.366  12.056
81470SOL    HW246243   5.667  13.377  11.979
81471SOL     OW46244  12.814   9.347  10.137
81471SOL    HW146245  12.837   9.368  10.046
81471SOL    HW246246  12.870   9.404  10.190
81472SOL     OW46247   3.913   1.297   4.425
81472SOL    HW146248   3.888   1.388   4.442
81472SOL    HW246249   3.931   1.295   4.331
81473SOL     OW46250   4.371   2.164   8.953
81473SOL    HW146251   4.451   2.213   8.935
81473SOL    HW246252   4.334   2.146   8.866
81474SOL     OW46253  12.494   1.175  11.816
81474SOL    HW146254  12.409   1.145  11.784
81474SOL    HW246255  12.508   1.126  11.897
81475SOL     OW46256   7.990   5.656   5.076
81475SOL    HW146257   7.908   5.636   5.030
81475SOL    HW246258   7.963   5.690   5.161
81476SOL     OW46259   9.433   6.746   0.336
81476SOL    HW146260   9.398   6.832   0.314
81476SOL    HW246261   9.517   6.764   0.377
81477SOL     OW46262   1.104  10.227   0.304
81477SOL    HW146263   1.189  10.246   0.344
81477SOL    HW246264   1.123  10.211   0.212
81478SOL     OW46265   4.155   1.510   5.680
81478SOL    HW146266   4.083   1.495   5.619
81478SOL    HW246267   4.111   1.536   5.762
81479SOL     OW46268   7.854   5.592   8.377
81479SOL    HW146269   7.861   5.595   8.473
81479SOL    HW246270   7.769   5.552   8.361
81480SOL     OW46271   3.251   7.617   9.016
81480SOL    HW146272   3.227   7.692   8.963
81480SOL    HW246273   3.181   7.553   9.002
81481SOL     OW46274   6.947  13.841   5.563
81481SOL    HW146275   7.019  13.803   5.513
81481SOL    HW246276   6.885  13.769   5.573
81482SOL     OW46277  14.047  11.205   1.557
81482SOL    HW146278  14.033  11.250   1.473
81482SOL    HW246279  14.018  11.115   1.541
81483SOL     OW46280   4.026   0.583   3.969
81483SOL    HW146281   3.972   0.635   4.028
81483SOL    HW246282   4.053   0.507   4.021
81484SOL     OW46283  13.781   4.284   6.754
81484SOL    HW146284  13.708   4.339   6.783
81484SOL    HW246285  13.747   4.194   6.759
81485SOL     OW46286   8.474   9.900   6.396
81485SOL    HW146287   8.544   9.851   6.439
81485SOL    HW246288   8.474   9.986   6.439
81486SOL     OW46289   0.119   0.908   3.406
81486SOL    HW146290   0.146   0.996   3.378
81486SOL    HW246291   0.166   0.849   3.347
81487SOL     OW46292   6.637  14.775   1.871
81487SOL    HW146293   6.643  14.842   1.939
81487SOL    HW246294   6.676  14.697   1.910
81488SOL     OW46295  13.686  13.573   5.801
81488SOL    HW146296  13.601  13.607   5.829
81488SOL    HW246297  13.690  13.485   5.838
81489SOL     OW46298   2.903  10.656   2.190
81489SOL    HW146299   2.848  10.715   2.138
81489SOL    HW246300   2.871  10.666   2.280
81490SOL     OW46301  14.645   6.665   3.252
81490SOL    HW146302  14.680   6.657   3.341
81490SOL    HW246303  14.719   6.648   3.195
81491SOL     OW46304   0.692  12.076   9.991
81491SOL    HW146305   0.659  12.129  10.063
81491SOL    HW246306   0.615  12.057   9.938
81492SOL     OW46307   6.167   6.158   8.866
81492SOL    HW146308   6.153   6.225   8.799
81492SOL    HW246309   6.252   6.119   8.844
81493SOL     OW46310  13.456   0.997   9.274
81493SOL    HW146311  13.509   0.978   9.352
81493SOL    HW246312  13.373   1.029   9.309
81494SOL     OW46313   7.225   5.097   8.387
81494SOL    HW146314   7.236   5.113   8.481
81494SOL    HW246315   7.308   5.123   8.348
81495SOL     OW46316   9.564   6.857   8.453
81495SOL    HW146317   9.575   6.827   8.363
81495SOL    HW246318   9.503   6.794   8.492
81496SOL     OW46319   2.125   9.466  10.809
81496SOL    HW146320   2.107   9.487  10.901
81496SOL    HW246321   2.041   9.436  10.775
81497SOL     OW46322  11.513  11.091   6.717
81497SOL    HW146323  11.513  11.067   6.810
81497SOL    HW246324  11.456  11.168   6.713
81498SOL     OW46325   3.966  11.829   4.192
81498SOL    HW146326   3.926  11.860   4.111
81498SOL    HW246327   4.044  11.781   4.164
81499SOL     OW46328   0.988   1.114   9.496
81499SOL    HW146329   0.921   1.149   9.436
81499SOL    HW246330   1.069   1.154   9.467
81500SOL     OW46331   5.431  13.542   2.324
81500SOL    HW146332   5.364  13.474   2.332
81500SOL    HW246333   5.407  13.592   2.247
81501SOL     OW46334   9.103   6.835   1.160
81501SOL    HW146335   9.175   6.898   1.167
81501SOL    HW246336   9.100   6.792   1.245
81502SOL     OW46337   0.610  11.911   8.609
81502SOL    HW146338   0.529  11.861   8.614
81502SOL    HW246339   0.616  11.938   8.517
81503SOL     OW46340   9.963   9.993  14.699
81503SOL    HW146341  10.029   9.958  14.759
81503SOL    HW246342   9.907  10.047  14.755
81504SOL     OW46343   2.200  14.361  14.235
81504SOL    HW146344   2.152  14.418  14.174
81504SOL    HW246345   2.227  14.287  14.181
81505SOL     OW46346  10.626  13.963   3.768
81505SOL    HW146347  10.652  13.924   3.684
81505SOL    HW246348  10.572  13.896   3.809
81506SOL     OW46349  10.578   4.799   5.513
81506SOL    HW146350  10.555   4.749   5.434
81506SOL    HW246351  10.673   4.788   5.521
81507SOL     OW46352   4.370   9.014  11.609
81507SOL    HW146353   4.435   8.973  11.666
81507SOL    HW246354   4.376   8.965  11.527
81508SOL     OW46355  10.474   3.726  14.730
81508SOL    HW146356  10.385   3.761  14.721
81508SOL    HW246357  10.521   3.761  14.654
81509SOL     OW46358  14.372  14.370   9.910
81509SOL    HW146359  14.468  14.366   9.914
81509SOL    HW246360  14.353  14.367   9.816
81510SOL     OW46361   1.673   1.239  14.591
81510SOL    HW146362   1.634   1.251  14.504
81510SOL    HW246363   1.598   1.241  14.651
81511SOL     OW46364   8.642   5.912  11.409
81511SOL    HW146365   8.644   5.830  11.459
81511SOL    HW246366   8.731   5.945  11.414
81512SOL     OW46367   9.184  13.648  13.134
81512SOL    HW146368   9.225  13.734  13.144
81512SOL    HW246369   9.246  13.598  13.082
81513SOL     OW46370  10.443  12.923   0.838
81513SOL    HW146371  10.512  12.948   0.776
81513SOL    HW246372  10.433  13.000   0.894
81514SOL     OW46373  10.661   3.057  10.793
81514SOL    HW146374  10.729   3.117  10.824
81514SOL    HW246375  10.590   3.066  10.857
81515SOL     OW46376   8.000   7.439   1.630
81515SOL    HW146377   8.072   7.502   1.632
81515SOL    HW246378   7.955   7.452   1.713
81516SOL     OW46379   8.858   2.829  13.762
81516SOL    HW146380   8.765   2.838  13.783
81516SOL    HW246381   8.885   2.917  13.736
81517SOL     OW46382   2.288  10.307   8.407
81517SOL    HW146383   2.236  10.362   8.465
81517SOL    HW246384   2.379  10.333   8.424
81518SOL     OW46385   1.664  10.477   1.205
81518SOL    HW146386   1.715  10.525   1.270
81518SOL    HW246387   1.664  10.387   1.237
81519SOL     OW46388   9.306   2.559   7.310
81519SOL    HW146389   9.330   2.651   7.313
81519SOL    HW246390   9.367   2.517   7.372
81520SOL     OW46391   1.380   0.204  11.901
81520SOL    HW146392   1.353   0.296  11.893
81520SOL    HW246393   1.402   0.194  11.994
81521SOL     OW46394   4.382   5.229   6.194
81521SOL    HW146395   4.300   5.254   6.152
81521SOL    HW246396   4.360   5.221   6.287
81522SOL     OW46397   1.953  13.390   5.581
81522SOL    HW146398   1.912  13.439   5.652
81522SOL    HW246399   1.922  13.434   5.501
81523SOL     OW46400  11.588   0.291   4.941
81523SOL    HW146401  11.508   0.306   4.990
81523SOL    HW246402  11.559   0.252   4.858
81524SOL     OW46403  10.956  13.019   8.588
81524SOL    HW146404  10.900  13.022   8.665
81524SOL    HW246405  10.971  13.111   8.565
81525SOL     OW46406   4.534   3.791   7.414
81525SOL    HW146407   4.488   3.709   7.396
81525SOL    HW246408   4.615   3.764   7.458
81526SOL     OW46409   4.505  12.218   9.619
81526SOL    HW146410   4.540  12.301   9.587
81526SOL    HW246411   4.441  12.191   9.552
81527SOL     OW46412   3.535  13.404  11.593
81527SOL    HW146413   3.535  13.406  11.689
81527SOL    HW246414   3.611  13.456  11.567
81528SOL     OW46415   9.685   6.086  14.357
81528SOL    HW146416   9.680   6.051  14.446
81528SOL    HW246417   9.730   6.018  14.307
81529SOL     OW46418   3.548  13.284   4.409
81529SOL    HW146419   3.479  13.297   4.343
81529SOL    HW246420   3.554  13.190   4.420
81530SOL     OW46421  11.055   5.921   4.690
81530SOL    HW146422  10.977   5.867   4.681
81530SOL    HW246423  11.109   5.875   4.754
81531SOL     OW46424   2.139  13.774  11.446
81531SOL    HW146425   2.209  13.710  11.459
81531SOL    HW246426   2.184  13.854  11.417
81532SOL     OW46427   8.881  12.497   7.824
81532SOL    HW146428   8.975  12.484   7.815
81532SOL    HW246429   8.852  12.520   7.736
81533SOL     OW46430  13.096  11.551   3.899
81533SOL    HW146431  13.188  11.572   3.884
81533SOL    HW246432  13.096  11.458   3.921
81534SOL     OW46433   5.642  12.786   6.055
81534SOL    HW146434   5.714  12.737   6.097
81534SOL    HW246435   5.668  12.793   5.963
81535SOL     OW46436   5.836  12.909  12.315
81535SOL    HW146437   5.929  12.912  12.292
81535SOL    HW246438   5.833  12.944  12.405
81536SOL     OW46439  11.596  14.265  13.578
81536SOL    HW146440  11.680  14.246  13.537
81536SOL    HW246441  11.618  14.285  13.669
81537SOL     OW46442   3.321   4.404  14.279
81537SOL    HW146443   3.326   4.480  14.337
81537SOL    HW246444   3.229   4.377  14.283
81538SOL     OW46445   9.040   7.704  13.602
81538SOL    HW146446   8.953   7.672  13.579
81538SOL    HW246447   9.030   7.798  13.610
81539SOL     OW46448  13.614  13.320   8.498
81539SOL    HW146449  13.667  13.394   8.528
81539SOL    HW246450  13.554  13.357   8.434
81540SOL     OW46451  10.575  14.224   5.437
81540SOL    HW146452  10.603  14.226   5.346
81540SOL    HW246453  10.497  14.168   5.437
81541SOL     OW46454   4.081   4.531   0.703
81541SOL    HW146455   4.105   4.483   0.624
81541SOL    HW246456   4.112   4.620   0.687
81542SOL     OW46457  13.493   1.745   1.164
81542SOL    HW146458  13.435   1.724   1.237
81542SOL    HW246459  13.435   1.776   1.095
81543SOL     OW46460   1.229  11.991   3.355
81543SOL    HW146461   1.157  12.048   3.384
81543SOL    HW246462   1.308  12.032   3.392
81544SOL     OW46463   1.541   8.018   8.498
81544SOL    HW146464   1.509   7.934   8.533
81544SOL    HW246465   1.582   7.995   8.415
81545SOL     OW46466  14.532   7.761   5.461
81545SOL    HW146467  14.450   7.726   5.425
81545SOL    HW246468  14.599   7.701   5.431
81546SOL     OW46469  13.191   9.022   0.072
81546SOL    HW146470  13.097   9.031   0.089
81546SOL    HW246471  13.198   9.028  14.849
81547SOL     OW46472   6.480   0.623   9.502
81547SOL    HW146473   6.488   0.572   9.421
81547SOL    HW246474   6.412   0.687   9.484
81548SOL     OW46475  12.038  14.699  10.765
81548SOL    HW146476  12.082  14.713  10.849
81548SOL    HW246477  12.101  14.729  10.699
81549SOL     OW46478   9.156   3.440  13.736
81549SOL    HW146479   9.143   3.424  13.643
81549SOL    HW246480   9.163   3.535  13.743
81550SOL     OW46481   7.383   7.066   8.115
81550SOL    HW146482   7.425   7.113   8.187
81550SOL    HW246483   7.326   7.131   8.074
81551SOL     OW46484   3.058  14.008  12.149
81551SOL    HW146485   2.991  14.075  12.162
81551SOL    HW246486   3.042  13.945  12.219
81552SOL     OW46487   4.777   7.443   2.041
81552SOL    HW146488   4.864   7.443   2.000
81552SOL    HW246489   4.795   7.435   2.135
81553SOL     OW46490   7.109  10.704  13.842
81553SOL    HW146491   7.177  10.704  13.910
81553SOL    HW246492   7.129  10.781  13.789
81554SOL     OW46493   8.777   8.512  11.779
81554SOL    HW146494   8.791   8.479  11.868
81554SOL    HW246495   8.683   8.500  11.763
81555SOL     OW46496   5.354   7.830   5.916
81555SOL    HW146497   5.273   7.830   5.968
81555SOL    HW246498   5.359   7.918   5.880
81556SOL     OW46499   0.755   5.730   4.452
81556SOL    HW146500   0.795   5.648   4.481
81556SOL    HW246501   0.819   5.769   4.392
81557SOL     OW46502   9.023  13.823   6.542
81557SOL    HW146503   8.951  13.804   6.482
81557SOL    HW246504   8.981  13.867   6.616
81558SOL     OW46505   0.892   1.255   1.371
81558SOL    HW146506   0.897   1.280   1.463
81558SOL    HW246507   0.969   1.200   1.357
81559SOL     OW46508   1.292  12.460   2.972
81559SOL    HW146509   1.280  12.522   2.900
81559SOL    HW246510   1.204  12.427   2.989
81560SOL     OW46511   8.096  14.683  14.529
81560SOL    HW146512   8.025  14.722  14.580
81560SOL    HW246513   8.094  14.590  14.550
81561SOL     OW46514   6.246   7.728   0.330
81561SOL    HW146515   6.275   7.785   0.401
81561SOL    HW246516   6.326   7.693   0.292
81562SOL     OW46517  13.723   3.835  11.695
81562SOL    HW146518  13.654   3.900  11.684
81562SOL    HW246519  13.698   3.763  11.637
81563SOL     OW46520  12.133   6.462  12.396
81563SOL    HW146521  12.112   6.425  12.310
81563SOL    HW246522  12.229   6.470  12.395
81564SOL     OW46523   2.006   8.677   1.214
81564SOL    HW146524   1.935   8.621   1.244
81564SOL    HW246525   1.963   8.741   1.157
81565SOL     OW46526  10.790   2.584   6.130
81565SOL    HW146527  10.731   2.640   6.078
81565SOL    HW246528  10.838   2.646   6.185
81566SOL     OW46529   4.806  13.911   8.918
81566SOL    HW146530   4.738  13.862   8.872
81566SOL    HW246531   4.774  13.916   9.008
81567SOL     OW46532  11.817  10.687   2.679
81567SOL    HW146533  11.739  10.652   2.723
81567SOL    HW246534  11.816  10.644   2.593
81568SOL     OW46535   6.317   7.483   1.517
81568SOL    HW146536   6.413   7.490   1.522
81568SOL    HW246537   6.285   7.555   1.571
81569SOL     OW46538   5.567  11.539   2.273
81569SOL    HW146539   5.595  11.532   2.182
81569SOL    HW246540   5.477  11.505   2.274
81570SOL     OW46541   5.327  11.775   6.899
81570SOL    HW146542   5.272  11.765   6.821
81570SOL    HW246543   5.405  11.722   6.881
81571SOL     OW46544   0.228   6.523  10.367
81571SOL    HW146545   0.207   6.487  10.454
81571SOL    HW246546   0.323   6.534  10.369
81572SOL     OW46547  11.871  13.205   4.569
81572SOL    HW146548  11.788  13.173   4.533
81572SOL    HW246549  11.878  13.163   4.654
81573SOL     OW46550   5.461  10.407   4.274
81573SOL    HW146551   5.417  10.408   4.359
81573SOL    HW246552   5.554  10.394   4.296
81574SOL     OW46553   2.887  12.108  11.970
81574SOL    HW146554   2.861  12.185  11.920
81574SOL    HW246555   2.967  12.135  12.016
81575SOL     OW46556   0.911   8.958   0.555
81575SOL    HW146557   0.981   8.893   0.545
81575SOL    HW246558   0.925   9.019   0.483
81576SOL     OW46559  10.493   0.295   1.585
81576SOL    HW146560  10.436   0.343   1.645
81576SOL    HW246561  10.535   0.363   1.533
81577SOL     OW46562  11.376  12.803  11.083
81577SOL    HW146563  11.294  12.817  11.131
81577SOL    HW246564  11.386  12.708  11.078
81578SOL     OW46565   8.634  12.450   4.733
81578SOL    HW146566   8.725  12.429   4.712
81578SOL    HW246567   8.587  12.367   4.719
81579SOL     OW46568   2.845  12.489  14.588
81579SOL    HW146569   2.823  12.439  14.509
81579SOL    HW246570   2.809  12.576  14.573
81580SOL     OW46571   4.079  14.798   4.263
81580SOL    HW146572   3.998  14.828   4.305
81580SOL    HW246573   4.134   0.004   4.259
81581SOL     OW46574   1.936   2.267   2.352
81581SOL    HW146575   2.001   2.297   2.288
81581SOL    HW246576   1.853   2.303   2.320
81582SOL     OW46577   8.375   9.332   1.560
81582SOL    HW146578   8.397   9.330   1.467
81582SOL    HW246579   8.359   9.425   1.579
81583SOL     OW46580  13.820   1.326  10.177
81583SOL    HW146581  13.742   1.379  10.190
81583SOL    HW246582  13.881   1.384  10.130
81584SOL     OW46583  11.053  11.657  14.654
81584SOL    HW146584  11.083  11.748  14.657
81584SOL    HW246585  10.967  11.658  14.694
81585SOL     OW46586  11.755   9.581  11.037
81585SOL    HW146587  11.806   9.505  11.065
81585SOL    HW246588  11.714   9.553  10.954
81586SOL     OW46589  14.142   0.009   7.746
81586SOL    HW146590  14.171   0.043   7.831
81586SOL    HW246591  14.136   0.087   7.691
81587SOL     OW46592   8.648   1.370   4.152
81587SOL    HW146593   8.726   1.422   4.170
81587SOL    HW246594   8.585   1.395   4.219
81588SOL     OW46595  14.212  14.030   7.151
81588SOL    HW146596  14.218  13.976   7.230
81588SOL    HW246597  14.282  13.997   7.094
81589SOL     OW46598   3.963  12.121   6.520
81589SOL    HW146599   4.037  12.181   6.511
81589SOL    HW246600   3.957  12.105   6.615
81590SOL     OW46601   9.687   6.444   1.167
81590SOL    HW146602   9.649   6.523   1.130
81590SOL    HW246603   9.760   6.475   1.221
81591SOL     OW46604   2.560  11.059  10.171
81591SOL    HW146605   2.474  11.052  10.214
81591SOL    HW246606   2.538  11.073  10.079
81592SOL     OW46607  11.432  11.422   2.606
81592SOL    HW146608  11.409  11.359   2.674
81592SOL    HW246609  11.501  11.380   2.555
81593SOL     OW46610  12.907   9.257   9.343
81593SOL    HW146611  12.878   9.321   9.408
81593SOL    HW246612  12.833   9.197   9.334
81594SOL     OW46613   7.453   3.674   1.306
81594SOL    HW146614   7.414   3.750   1.349
81594SOL    HW246615   7.459   3.699   1.214
81595SOL     OW46616   6.467   1.728  11.129
81595SOL    HW146617   6.473   1.643  11.173
81595SOL    HW246618   6.557   1.761  11.129
81596SOL     OW46619  13.149  10.269  11.502
81596SOL    HW146620  13.127  10.238  11.590
81596SOL    HW246621  13.239  10.237  11.487
81597SOL     OW46622   5.009   9.580  10.946
81597SOL    HW146623   5.060   9.641  10.999
81597SOL    HW246624   5.034   9.493  10.979
81598SOL     OW46625   8.583  12.398   3.570
81598SOL    HW146626   8.665  12.439   3.598
81598SOL    HW246627   8.611  12.325   3.515
81599SOL     OW46628  14.252  12.535  12.603
81599SOL    HW146629  14.251  12.464  12.667
81599SOL    HW246630  14.210  12.608  12.648
81600SOL     OW46631  11.380   2.119   4.319
81600SOL    HW146632  11.302   2.163   4.284
81600SOL    HW246633  11.345   2.046   4.370
81601SOL     OW46634  13.265  11.745  14.659
81601SOL    HW146635  13.352  11.714  14.685
81601SOL    HW246636  13.279  11.836  14.633
81602SOL     OW46637   9.830  10.439   5.577
81602SOL    HW146638   9.801  10.356   5.538
81602SOL    HW246639   9.920  10.421   5.606
81603SOL     OW46640   2.927   7.861   6.046
81603SOL    HW146641   2.944   7.904   6.129
81603SOL    HW246642   3.002   7.802   6.034
81604SOL     OW46643  11.904  11.830   9.427
81604SOL    HW146644  11.878  11.921   9.410
81604SOL    HW246645  11.915  11.792   9.340
81605SOL     OW46646   4.650  10.373   4.261
81605SOL    HW146647   4.627  10.448   4.206
81605SOL    HW246648   4.729  10.401   4.308
81606SOL     OW46649   0.556   1.083   2.693
81606SOL    HW146650   0.534   1.171   2.722
81606SOL    HW246651   0.646   1.088   2.663
81607SOL     OW46652  14.460   9.326   9.469
81607SOL    HW146653  14.498   9.380   9.538
81607SOL    HW246654  14.409   9.260   9.515
81608SOL     OW46655   9.238   7.827   6.994
81608SOL    HW146656   9.293   7.785   7.061
81608SOL    HW246657   9.229   7.917   7.023
81609SOL     OW46658   2.927  10.121  12.040
81609SOL    HW146659   2.973  10.130  12.123
81609SOL    HW246660   2.885  10.206  12.027
81610SOL     OW46661  12.740   5.307   8.829
81610SOL    HW146662  12.745   5.398   8.857
81610SOL    HW246663  12.810   5.263   8.877
81611SOL     OW46664   0.958  11.170   4.295
81611SOL    HW146665   0.885  11.225   4.265
81611SOL    HW246666   0.915  11.100   4.345
81612SOL     OW46667   9.673   2.101   5.941
81612SOL    HW146668   9.612   2.172   5.919
81612SOL    HW246669   9.700   2.066   5.856
81613SOL     OW46670   8.762  11.479   7.066
81613SOL    HW146671   8.692  11.535   7.032
81613SOL    HW246672   8.770  11.409   7.001
81614SOL     OW46673   4.972   7.676  14.353
81614SOL    HW146674   5.064   7.690  14.372
81614SOL    HW246675   4.935   7.764  14.342
81615SOL     OW46676  11.888   9.728   3.920
81615SOL    HW146677  11.799   9.693   3.921
81615SOL    HW246678  11.901   9.759   3.831
81616SOL     OW46679  14.451   4.187  14.676
81616SOL    HW146680  14.466   4.102  14.718
81616SOL    HW246681  14.481   4.175  14.586
81617SOL     OW46682   4.480   1.163   6.797
81617SOL    HW146683   4.404   1.150   6.854
81617SOL    HW246684   4.554   1.128   6.847
81618SOL     OW46685   7.634   2.818   7.745
81618SOL    HW146686   7.687   2.897   7.741
81618SOL    HW246687   7.548   2.845   7.714
81619SOL     OW46688  12.270   5.638  12.709
81619SOL    HW146689  12.299   5.705  12.771
81619SOL    HW246690  12.200   5.592  12.755
81620SOL     OW46691  13.155  14.483   0.548
81620SOL    HW146692  13.097  14.406   0.552
81620SOL    HW246693  13.163  14.503   0.455
81621SOL     OW46694   0.044   4.319   9.309
81621SOL    HW146695  14.848   4.259   9.279
81621SOL    HW246696   0.016   4.405   9.279
81622SOL     OW46697   8.754   5.464   4.563
81622SOL    HW146698   8.791   5.380   4.588
81622SOL    HW246699   8.793   5.483   4.478
81623SOL     OW46700   0.127   6.053  11.733
81623SOL    HW146701   0.051   6.045  11.790
81623SOL    HW246702   0.095   6.102  11.657
81624SOL     OW46703  10.789   5.170   1.356
81624SOL    HW146704  10.751   5.247   1.314
81624SOL    HW246705  10.720   5.138   1.414
81625SOL     OW46706   6.962   7.386   3.097
81625SOL    HW146707   6.971   7.305   3.146
81625SOL    HW246708   6.874   7.418   3.119
81626SOL     OW46709  10.598   0.257  11.487
81626SOL    HW146710  10.553   0.200  11.424
81626SOL    HW246711  10.678   0.283  11.442
81627SOL     OW46712   6.468   6.108   2.271
81627SOL    HW146713   6.497   6.050   2.342
81627SOL    HW246714   6.380   6.134   2.296
81628SOL     OW46715  14.659   1.504  13.560
81628SOL    HW146716  14.702   1.585  13.588
81628SOL    HW246717  14.727   1.437  13.567
81629SOL     OW46718   4.289   0.162   3.218
81629SOL    HW146719   4.290   0.258   3.228
81629SOL    HW246720   4.228   0.146   3.146
81630SOL     OW46721   4.309   7.148  14.871
81630SOL    HW146722   4.381   7.086   0.004
81630SOL    HW246723   4.233   7.099   0.031
81631SOL     OW46724  12.391   4.262   9.452
81631SOL    HW146725  12.477   4.258   9.411
81631SOL    HW246726  12.401   4.323   9.525
81632SOL     OW46727   4.094  14.681   6.600
81632SOL    HW146728   4.048  14.679   6.684
81632SOL    HW246729   4.049  14.617   6.545
81633SOL     OW46730   2.763   2.416   3.209
81633SOL    HW146731   2.754   2.441   3.301
81633SOL    HW246732   2.830   2.474   3.175
81634SOL     OW46733   6.860   6.462  13.400
81634SOL    HW146734   6.767   6.478  13.385
81634SOL    HW246735   6.877   6.378  13.357
81635SOL     OW46736   9.682   3.061   7.824
81635SOL    HW146737   9.748   3.124   7.795
81635SOL    HW246738   9.698   3.050   7.917
81636SOL     OW46739   8.775  14.278  11.027
81636SOL    HW146740   8.799  14.371  11.031
81636SOL    HW246741   8.713  14.266  11.099
81637SOL     OW46742   1.835  11.614  12.074
81637SOL    HW146743   1.860  11.661  11.995
81637SOL    HW246744   1.884  11.532  12.071
81638SOL     OW46745   4.319   4.251  11.831
81638SOL    HW146746   4.235   4.261  11.875
81638SOL    HW246747   4.383   4.286  11.893
81639SOL     OW46748   4.709   3.259  11.876
81639SOL    HW146749   4.631   3.309  11.850
81639SOL    HW246750   4.771   3.325  11.907
81640SOL     OW46751   1.181   1.175  13.745
81640SOL    HW146752   1.135   1.113  13.803
81640SOL    HW246753   1.111   1.212  13.691
81641SOL     OW46754   9.476   4.448   0.421
81641SOL    HW146755   9.513   4.380   0.365
81641SOL    HW246756   9.552   4.483   0.469
81642SOL     OW46757  10.364   8.143  11.061
81642SOL    HW146758  10.340   8.091  10.984
81642SOL    HW246759  10.396   8.078  11.125
81643SOL     OW46760   7.911   3.398  10.649
81643SOL    HW146761   7.891   3.307  10.625
81643SOL    HW246762   8.004   3.397  10.671
81644SOL     OW46763  13.893   6.537  12.918
81644SOL    HW146764  13.805   6.537  12.879
81644SOL    HW246765  13.909   6.628  12.942
81645SOL     OW46766   2.083   5.592   0.579
81645SOL    HW146767   2.162   5.541   0.559
81645SOL    HW246768   2.043   5.608   0.494
81646SOL     OW46769  10.714   5.113   2.968
81646SOL    HW146770  10.663   5.096   2.889
81646SOL    HW246771  10.790   5.055   2.961
81647SOL     OW46772   9.669  11.604   0.729
81647SOL    HW146773   9.700  11.667   0.664
81647SOL    HW246774   9.717  11.626   0.809
81648SOL     OW46775   4.475   4.460   3.490
81648SOL    HW146776   4.506   4.550   3.480
81648SOL    HW246777   4.382   4.468   3.511
81649SOL     OW46778   8.009   6.988   5.466
81649SOL    HW146779   8.070   7.059   5.488
81649SOL    HW246780   7.933   7.033   5.430
81650SOL     OW46781   5.596  10.005   9.516
81650SOL    HW146782   5.667  10.059   9.480
81650SOL    HW246783   5.518  10.060   9.510
81651SOL     OW46784  11.874   5.459  11.462
81651SOL    HW146785  11.927   5.381  11.442
81651SOL    HW246786  11.827   5.478  11.381
81652SOL     OW46787   7.801  10.013   1.672
81652SOL    HW146788   7.869  10.040   1.610
81652SOL    HW246789   7.846  10.010   1.756
81653SOL     OW46790  11.274  10.154   8.534
81653SOL    HW146791  11.305  10.069   8.502
81653SOL    HW246792  11.241  10.198   8.456
81654SOL     OW46793   9.677   4.423   1.282
81654SOL    HW146794   9.681   4.481   1.358
81654SOL    HW246795   9.665   4.482   1.207
81655SOL     OW46796   2.562   4.225   8.496
81655SOL    HW146797   2.467   4.234   8.509
81655SOL    HW246798   2.569   4.171   8.417
81656SOL     OW46799   8.097   8.001   3.594
81656SOL    HW146800   8.037   7.934   3.564
81656SOL    HW246801   8.122   7.974   3.682
81657SOL     OW46802  13.485  10.847   7.262
81657SOL    HW146803  13.491  10.869   7.169
81657SOL    HW246804  13.436  10.919   7.300
81658SOL     OW46805   1.840   4.115   9.465
81658SOL    HW146806   1.927   4.151   9.481
81658SOL    HW246807   1.796   4.182   9.412
81659SOL     OW46808   3.526   7.863  11.437
81659SOL    HW146809   3.432   7.862  11.453
81659SOL    HW246810   3.548   7.772  11.415
81660SOL     OW46811  14.026   7.863   9.308
81660SOL    HW146812  13.930   7.859   9.303
81660SOL    HW246813  14.055   7.773   9.294
81661SOL     OW46814   9.708   3.760  14.002
81661SOL    HW146815   9.693   3.742  13.909
81661SOL    HW246816   9.803   3.754  14.012
81662SOL     OW46817   3.995   7.414   0.030
81662SOL    HW146818   4.074   7.381  14.859
81662SOL    HW246819   4.027   7.454   0.111
81663SOL     OW46820  13.960   7.092   1.353
81663SOL    HW146821  13.972   7.183   1.379
81663SOL    HW246822  13.889   7.094   1.289
81664SOL     OW46823   3.753  11.561   6.473
81664SOL    HW146824   3.742  11.536   6.564
81664SOL    HW246825   3.834  11.518   6.445
81665SOL     OW46826   2.778   7.057   3.015
81665SOL    HW146827   2.839   6.988   3.043
81665SOL    HW246828   2.695   7.012   3.000
81666SOL     OW46829   8.548   0.592   0.715
81666SOL    HW146830   8.550   0.508   0.762
81666SOL    HW246831   8.483   0.579   0.646
81667SOL     OW46832  13.377   9.350  10.072
81667SOL    HW146833  13.424   9.352   9.988
81667SOL    HW246834  13.429   9.290  10.126
81668SOL     OW46835   7.770   2.689  12.279
81668SOL    HW146836   7.812   2.641  12.208
81668SOL    HW246837   7.716   2.755  12.235
81669SOL     OW46838   3.320  12.122   2.182
81669SOL    HW146839   3.258  12.195   2.180
81669SOL    HW246840   3.364  12.130   2.266
81670SOL     OW46841  11.829   7.012   7.145
81670SOL    HW146842  11.899   6.985   7.204
81670SOL    HW246843  11.819   6.938   7.085
81671SOL     OW46844   5.577  12.729  12.573
81671SOL    HW146845   5.492  12.774  12.580
81671SOL    HW246846   5.556  12.645  12.532
81672SOL     OW46847   6.708   8.161  14.433
81672SOL    HW146848   6.691   8.206  14.516
81672SOL    HW246849   6.682   8.071  14.449
81673SOL     OW46850   4.694   2.408   6.008
81673SOL    HW146851   4.743   2.444   5.934
81673SOL    HW246852   4.633   2.477   6.033
81674SOL     OW46853   4.611   7.670   6.968
81674SOL    HW146854   4.530   7.710   6.936
81674SOL    HW246855   4.595   7.653   7.061
81675SOL     OW46856  14.838   1.217  14.058
81675SOL    HW146857  14.792   1.266  13.989
81675SOL    HW246858   0.005   1.285  14.113
81676SOL     OW46859   6.508   5.271   2.662
81676SOL    HW146860   6.516   5.177   2.645
81676SOL    HW246861   6.570   5.312   2.601
81677SOL     OW46862  14.251   6.286  10.628
81677SOL    HW146863  14.345   6.272  10.617
81677SOL    HW246864  14.235   6.270  10.721
81678SOL     OW46865   7.331   0.392   6.296
81678SOL    HW146866   7.321   0.483   6.325
81678SOL    HW246867   7.276   0.386   6.219
81679SOL     OW46868   7.826   1.132   7.705
81679SOL    HW146869   7.909   1.121   7.753
81679SOL    HW246870   7.763   1.156   7.773
81680SOL     OW46871  10.212   2.161   1.603
81680SOL    HW146872  10.201   2.113   1.522
81680SOL    HW246873  10.261   2.101   1.660
81681SOL     OW46874  14.428   7.274  13.868
81681SOL    HW146875  14.501   7.325  13.904
81681SOL    HW246876  14.437   7.284  13.773
81682SOL     OW46877   4.202   4.025   2.138
81682SOL    HW146878   4.132   4.082   2.105
81682SOL    HW246879   4.175   4.004   2.227
81683SOL     OW46880   3.432  13.931  14.633
81683SOL    HW146881   3.369  13.860  14.622
81683SOL    HW246882   3.472  13.915  14.718
81684SOL     OW46883  12.366  13.247  10.279
81684SOL    HW146884  12.456  13.278  10.268
81684SOL    HW246885  12.355  13.240  10.374
81685SOL     OW46886   8.153   1.859   3.365
81685SOL    HW146887   8.104   1.933   3.401
81685SOL    HW246888   8.232   1.854   3.419
81686SOL     OW46889  13.665   4.993  10.891
81686SOL    HW146890  13.757   5.019  10.889
81686SOL    HW246891  13.617   5.075  10.904
81687SOL     OW46892   2.690  12.970   7.695
81687SOL    HW146893   2.762  13.033   7.697
81687SOL    HW246894   2.611  13.025   7.701
81688SOL     OW46895   3.185   9.699   9.643
81688SOL    HW146896   3.214   9.668   9.729
81688SOL    HW246897   3.261   9.746   9.608
81689SOL     OW46898  10.853   4.857   0.173
81689SOL    HW146899  10.922   4.901   0.222
81689SOL    HW246900  10.859   4.893   0.084
81690SOL     OW46901  11.326   5.474  13.220
81690SOL    HW146902  11.304   5.521  13.139
81690SOL    HW246903  11.310   5.382  13.200
81691SOL     OW46904  14.572   9.702   9.480
81691SOL    HW146905  14.490   9.676   9.439
81691SOL    HW246906  14.602   9.624   9.526
81692SOL     OW46907   2.843   8.458   6.518
81692SOL    HW146908   2.802   8.442   6.603
81692SOL    HW246909   2.847   8.554   6.510
81693SOL     OW46910   1.941  12.750   6.371
81693SOL    HW146911   1.890  12.830   6.370
81693SOL    HW246912   1.950  12.728   6.464
81694SOL     OW46913  11.070  11.315  13.668
81694SOL    HW146914  10.977  11.304  13.691
81694SOL    HW246915  11.102  11.381  13.731
81695SOL     OW46916   9.422   4.141  11.704
81695SOL    HW146917   9.450   4.064  11.654
81695SOL    HW246918   9.418   4.111  11.795
81696SOL     OW46919  11.204  11.552   4.107
81696SOL    HW146920  11.280  11.519   4.059
81696SOL    HW246921  11.220  11.646   4.114
81697SOL     OW46922   1.377  12.193   9.639
81697SOL    HW146923   1.405  12.113   9.593
81697SOL    HW246924   1.450  12.214   9.697
81698SOL     OW46925  14.653   1.243   4.882
81698SOL    HW146926  14.616   1.179   4.942
81698SOL    HW246927  14.578   1.274   4.831
81699SOL     OW46928   4.472   9.671  12.221
81699SOL    HW146929   4.448   9.590  12.265
81699SOL    HW246930   4.505   9.728  12.291
81700SOL     OW46931   4.093   9.457  13.547
81700SOL    HW146932   4.106   9.509  13.626
81700SOL    HW246933   4.024   9.504  13.499
81701SOL     OW46934   2.485   4.843   1.428
81701SOL    HW146935   2.531   4.835   1.345
81701SOL    HW246936   2.483   4.938   1.445
81702SOL     OW46937  14.253  13.717   0.533
81702SOL    HW146938  14.205  13.755   0.460
81702SOL    HW246939  14.243  13.781   0.604
81703SOL     OW46940   7.922   2.155   8.781
81703SOL    HW146941   7.968   2.158   8.697
81703SOL    HW246942   7.937   2.067   8.814
81704SOL     OW46943   8.273  10.389  14.833
81704SOL    HW146944   8.244  10.458  14.773
81704SOL    HW246945   8.347  10.348  14.789
81705SOL     OW46946   5.499   5.686   9.437
81705SOL    HW146947   5.522   5.760   9.380
81705SOL    HW246948   5.455   5.624   9.379
81706SOL     OW46949   3.500   1.303  12.733
81706SOL    HW146950   3.467   1.216  12.754
81706SOL    HW246951   3.565   1.321  12.801
81707SOL     OW46952   7.364   4.684   6.187
81707SOL    HW146953   7.434   4.750   6.188
81707SOL    HW246954   7.405   4.606   6.148
81708SOL     OW46955   9.255   3.677   7.492
81708SOL    HW146956   9.319   3.606   7.498
81708SOL    HW246957   9.277   3.735   7.566
81709SOL     OW46958   5.905   9.691   3.369
81709SOL    HW146959   5.876   9.637   3.296
81709SOL    HW246960   5.833   9.689   3.431
81710SOL     OW46961   6.249   9.852  12.354
81710SOL    HW146962   6.231   9.800  12.275
81710SOL    HW246963   6.162   9.873  12.388
81711SOL     OW46964  13.149   8.984   3.761
81711SOL    HW146965  13.064   8.976   3.803
81711SOL    HW246966  13.211   8.945   3.823
81712SOL     OW46967   3.019   9.828  11.323
81712SOL    HW146968   2.971   9.750  11.293
81712SOL    HW246969   3.000   9.832  11.417
81713SOL     OW46970  13.276   5.940  10.122
81713SOL    HW146971  13.314   5.959  10.208
81713SOL    HW246972  13.214   6.011  10.107
81714SOL     OW46973  13.905   1.776  14.260
81714SOL    HW146974  13.886   1.723  14.182
81714SOL    HW246975  13.974   1.728  14.305
81715SOL     OW46976  12.739   4.809  11.173
81715SOL    HW146977  12.707   4.818  11.083
81715SOL    HW246978  12.731   4.897  11.209
81716SOL     OW46979   1.868   4.324   6.675
81716SOL    HW146980   1.863   4.234   6.708
81716SOL    HW246981   1.935   4.366   6.729
81717SOL     OW46982   0.939   9.530  14.743
81717SOL    HW146983   1.017   9.479  14.721
81717SOL    HW246984   0.883   9.522  14.666
81718SOL     OW46985   9.856   0.323   7.725
81718SOL    HW146986   9.867   0.379   7.802
81718SOL    HW246987   9.927   0.348   7.666
81719SOL     OW46988   7.915   5.456   0.448
81719SOL    HW146989   7.981   5.441   0.516
81719SOL    HW246990   7.959   5.430   0.367
81720SOL     OW46991  14.820   1.450  14.257
81720SOL    HW146992  14.757   1.503  14.210
81720SOL    HW246993   0.033   1.488  14.235
81721SOL     OW46994   2.153   4.435   5.379
81721SOL    HW146995   2.096   4.512   5.383
81721SOL    HW246996   2.236   4.463   5.417
81722SOL     OW46997   0.294  13.102  10.867
81722SOL    HW146998   0.378  13.144  10.885
81722SOL    HW246999   0.254  13.088  10.952
81723SOL     OW47000  11.138   2.554   8.505
81723SOL    HW147001  11.189   2.617   8.555
81723SOL    HW247002  11.204   2.503   8.457
81724SOL     OW47003  11.735   1.085   0.993
81724SOL    HW147004  11.745   1.057   1.084
81724SOL    HW247005  11.825   1.101   0.963
81725SOL     OW47006   2.292   2.239   0.686
81725SOL    HW147007   2.263   2.328   0.705
81725SOL    HW247008   2.237   2.184   0.742
81726SOL     OW47009   0.998  14.470   4.350
81726SOL    HW147010   0.905  14.491   4.360
81726SOL    HW247011   1.036  14.484   4.437
81727SOL     OW47012  10.548  10.956  11.644
81727SOL    HW147013  10.526  10.888  11.580
81727SOL    HW247014  10.541  10.913  11.729
81728SOL     OW47015  10.127  12.396  14.090
81728SOL    HW147016  10.206  12.347  14.111
81728SOL    HW247017  10.073  12.334  14.041
81729SOL     OW47018   2.308  11.007  14.872
81729SOL    HW147019   2.306  11.044  14.784
81729SOL    HW247020   2.241  11.055   0.047
81730SOL     OW47021   1.159  11.843   8.241
81730SOL    HW147022   1.218  11.917   8.227
81730SOL    HW247023   1.198  11.773   8.188
81731SOL     OW47024   4.125   3.697   9.918
81731SOL    HW147025   4.174   3.760   9.972
81731SOL    HW247026   4.111   3.622   9.976
81732SOL     OW47027   1.500   6.503  10.493
81732SOL    HW147028   1.497   6.574  10.557
81732SOL    HW247029   1.535   6.543  10.414
81733SOL     OW47030   4.376   5.226  10.925
81733SOL    HW147031   4.412   5.141  10.897
81733SOL    HW247032   4.293   5.234  10.878
81734SOL     OW47033   6.713  10.113   9.134
81734SOL    HW147034   6.788  10.056   9.153
81734SOL    HW247035   6.700  10.105   9.039
81735SOL     OW47036   2.983  13.611   4.743
81735SOL    HW147037   2.949  13.580   4.827
81735SOL    HW247038   2.978  13.534   4.686
81736SOL     OW47039  13.852  13.955   3.940
81736SOL    HW147040  13.941  13.966   3.908
81736SOL    HW247041  13.862  13.928   4.031
81737SOL     OW47042   3.656  12.067   0.209
81737SOL    HW147043   3.613  12.076   0.123
81737SOL    HW247044   3.708  11.987   0.201
81738SOL     OW47045   2.630   2.587  13.568
81738SOL    HW147046   2.597   2.666  13.611
81738SOL    HW247047   2.717   2.611  13.538
81739SOL     OW47048  12.238  11.929   6.470
81739SOL    HW147049  12.214  11.991   6.539
81739SOL    HW247050  12.206  11.845   6.501
81740SOL     OW47051  10.521   5.617   7.243
81740SOL    HW147052  10.587   5.580   7.301
81740SOL    HW247053  10.490   5.542   7.192
81741SOL     OW47054  10.586   3.755  10.402
81741SOL    HW147055  10.573   3.850  10.396
81741SOL    HW247056  10.680   3.743  10.389
81742SOL     OW47057  11.367  14.384  12.615
81742SOL    HW147058  11.447  14.425  12.581
81742SOL    HW247059  11.382  14.378  12.709
81743SOL     OW47060   6.928   5.260   5.797
81743SOL    HW147061   6.833   5.261   5.788
81743SOL    HW247062   6.951   5.167   5.798
81744SOL     OW47063   4.365   0.354   4.149
81744SOL    HW147064   4.453   0.346   4.111
81744SOL    HW247065   4.350   0.448   4.156
81745SOL     OW47066  11.729  14.069  14.322
81745SOL    HW147067  11.679  13.987  14.312
81745SOL    HW247068  11.691  14.128  14.257
81746SOL     OW47069   6.141   8.152   9.788
81746SOL    HW147070   6.205   8.177   9.855
81746SOL    HW247071   6.194   8.139   9.709
81747SOL     OW47072   4.229   4.196  12.919
81747SOL    HW147073   4.243   4.126  12.856
81747SOL    HW247074   4.243   4.155  13.004
81748SOL     OW47075   0.119  12.545  14.111
81748SOL    HW147076   0.036  12.537  14.158
81748SOL    HW247077   0.186  12.534  14.179
81749SOL     OW47078  13.933   6.740  14.052
81749SOL    HW147079  13.952   6.801  13.981
81749SOL    HW247080  13.840   6.720  14.041
81750SOL     OW47081  11.485   7.377  11.324
81750SOL    HW147082  11.400   7.338  11.303
81750SOL    HW247083  11.463   7.460  11.365
81751SOL     OW47084   5.218  12.147   4.103
81751SOL    HW147085   5.198  12.108   4.188
81751SOL    HW247086   5.192  12.239   4.113
81752SOL     OW47087  12.028  14.197   3.638
81752SOL    HW147088  11.975  14.170   3.713
81752SOL    HW247089  11.970  14.255   3.588
81753SOL     OW47090   0.836   2.809   8.432
81753SOL    HW147091   0.806   2.791   8.343
81753SOL    HW247092   0.929   2.830   8.422
81754SOL     OW47093   6.656   4.056  10.010
81754SOL    HW147094   6.678   3.964   9.995
81754SOL    HW247095   6.737   4.095  10.044
81755SOL     OW47096   9.423   7.887   2.163
81755SOL    HW147097   9.505   7.919   2.126
81755SOL    HW247098   9.355   7.926   2.108
81756SOL     OW47099   9.130   7.957  12.844
81756SOL    HW147100   9.076   7.879  12.847
81756SOL    HW247101   9.088   8.018  12.905
81757SOL     OW47102   7.152   3.690   8.630
81757SOL    HW147103   7.092   3.760   8.656
81757SOL    HW247104   7.236   3.733   8.620
81758SOL     OW47105   7.929   0.478   2.754
81758SOL    HW147106   7.931   0.571   2.777
81758SOL    HW247107   7.914   0.477   2.660
81759SOL     OW47108   7.589   4.399  14.411
81759SOL    HW147109   7.663   4.391  14.470
81759SOL    HW247110   7.574   4.310  14.379
81760SOL     OW47111   3.059   0.303   2.794
81760SOL    HW147112   2.988   0.288   2.731
81760SOL    HW247113   3.095   0.388   2.769
81761SOL     OW47114  11.382  13.509   0.161
81761SOL    HW147115  11.396  13.508   0.066
81761SOL    HW247116  11.449  13.569   0.194
81762SOL     OW47117  14.194  12.368   9.737
81762SOL    HW147118  14.221  12.290   9.689
81762SOL    HW247119  14.149  12.422   9.671
81763SOL     OW47120  13.128   1.294   5.303
81763SOL    HW147121  13.165   1.341   5.229
81763SOL    HW247122  13.102   1.209   5.268
81764SOL     OW47123  14.101   1.928  11.368
81764SOL    HW147124  14.159   1.888  11.432
81764SOL    HW247125  14.138   2.014  11.352
81765SOL     OW47126   3.447  13.855   2.182
81765SOL    HW147127   3.470  13.898   2.265
81765SOL    HW247128   3.477  13.764   2.193
81766SOL     OW47129   7.161  10.559   3.921
81766SOL    HW147130   7.236  10.604   3.959
81766SOL    HW247131   7.087  10.617   3.938
81767SOL     OW47132  10.534   2.556   4.359
81767SOL    HW147133  10.626   2.580   4.344
81767SOL    HW247134  10.515   2.588   4.447
81768SOL     OW47135   7.595   3.132   3.568
81768SOL    HW147136   7.664   3.177   3.520
81768SOL    HW247137   7.562   3.196   3.630
81769SOL     OW47138   2.015  12.903   9.465
81769SOL    HW147139   2.082  12.881   9.529
81769SOL    HW247140   2.063  12.935   9.389
81770SOL     OW47141  14.789   7.153   9.409
81770SOL    HW147142  14.697   7.133   9.394
81770SOL    HW247143  14.788   7.228   9.469
81771SOL     OW47144   6.978   7.516   0.009
81771SOL    HW147145   7.012   7.589   0.062
81771SOL    HW247146   6.977   7.442   0.069
81772SOL     OW47147   8.606  11.107   1.679
81772SOL    HW147148   8.536  11.052   1.714
81772SOL    HW247149   8.595  11.192   1.723
81773SOL     OW47150   7.330  10.234  12.086
81773SOL    HW147151   7.259  10.236  12.150
81773SOL    HW247152   7.327  10.145  12.049
81774SOL     OW47153   1.396  11.366   8.866
81774SOL    HW147154   1.457  11.440   8.872
81774SOL    HW247155   1.451  11.288   8.871
81775SOL     OW47156   5.220   8.897   1.043
81775SOL    HW147157   5.159   8.920   1.113
81775SOL    HW247158   5.180   8.933   0.964
81776SOL     OW47159   2.794  14.195  13.922
81776SOL    HW147160   2.700  14.207  13.936
81776SOL    HW247161   2.799  14.130  13.851
81777SOL     OW47162   8.842   0.143  13.197
81777SOL    HW147163   8.883   0.127  13.282
81777SOL    HW247164   8.795   0.062  13.177
81778SOL     OW47165   4.982  13.989   8.429
81778SOL    HW147166   4.993  14.079   8.460
81778SOL    HW247167   4.948  13.998   8.340
81779SOL     OW47168   8.438  10.238   1.124
81779SOL    HW147169   8.520  10.193   1.103
81779SOL    HW247170   8.463  10.330   1.133
81780SOL     OW47171   6.433   2.961   7.069
81780SOL    HW147172   6.509   3.019   7.057
81780SOL    HW247173   6.436   2.902   6.993
81781SOL     OW47174   9.699   5.502  13.463
81781SOL    HW147175   9.790   5.521  13.487
81781SOL    HW247176   9.703   5.419  13.415
81782SOL     OW47177   2.177   1.046   5.853
81782SOL    HW147178   2.173   0.974   5.916
81782SOL    HW247179   2.209   1.005   5.772
81783SOL     OW47180   0.767   2.513   9.859
81783SOL    HW147181   0.858   2.538   9.870
81783SOL    HW247182   0.770   2.432   9.807
81784SOL     OW47183  12.437   2.193   4.631
81784SOL    HW147184  12.417   2.113   4.582
81784SOL    HW247185  12.524   2.177   4.668
81785SOL     OW47186  11.903  13.084   3.381
81785SOL    HW147187  11.905  13.057   3.472
81785SOL    HW247188  11.988  13.056   3.346
81786SOL     OW47189   0.316   6.619   7.259
81786SOL    HW147190   0.231   6.579   7.279
81786SOL    HW247191   0.350   6.648   7.343
81787SOL     OW47192  11.368   2.974   9.427
81787SOL    HW147193  11.362   2.913   9.501
81787SOL    HW247194  11.326   3.054   9.459
81788SOL     OW47195   1.659   0.328   1.301
81788SOL    HW147196   1.665   0.394   1.370
81788SOL    HW247197   1.661   0.244   1.347
81789SOL     OW47198   8.152  10.533   0.980
81789SOL    HW147199   8.219  10.555   0.915
81789SOL    HW247200   8.153  10.607   1.040
81790SOL     OW47201  13.754   5.521   5.050
81790SOL    HW147202  13.722   5.591   5.107
81790SOL    HW247203  13.682   5.458   5.045
81791SOL     OW47204   2.720   6.955   4.086
81791SOL    HW147205   2.765   6.871   4.092
81791SOL    HW247206   2.658   6.955   4.159
81792SOL     OW47207   0.253   7.381   5.591
81792SOL    HW147208   0.272   7.291   5.617
81792SOL    HW247209   0.319   7.401   5.525
81793SOL     OW47210  14.201  13.213   5.823
81793SOL    HW147211  14.153  13.158   5.885
81793SOL    HW247212  14.175  13.303   5.845
81794SOL     OW47213   4.086  10.463   2.125
81794SOL    HW147214   4.092  10.494   2.215
81794SOL    HW247215   4.077  10.542   2.072
81795SOL     OW47216   2.691  11.190   7.005
81795SOL    HW147217   2.746  11.112   7.009
81795SOL    HW247218   2.741  11.253   6.952
81796SOL     OW47219   7.545  13.043   6.748
81796SOL    HW147220   7.586  12.998   6.822
81796SOL    HW247221   7.474  13.093   6.786
81797SOL     OW47222  13.993  11.364   6.703
81797SOL    HW147223  13.960  11.387   6.616
81797SOL    HW247224  14.089  11.368   6.694
81798SOL     OW47225   8.370   2.600   6.516
81798SOL    HW147226   8.375   2.542   6.440
81798SOL    HW247227   8.454   2.589   6.559
81799SOL     OW47228   2.545   5.680   1.876
81799SOL    HW147229   2.468   5.736   1.868
81799SOL    HW247230   2.537   5.638   1.961
81800SOL     OW47231   3.753  12.539   3.047
81800SOL    HW147232   3.846  12.550   3.029
81800SOL    HW247233   3.715  12.626   3.031
81801SOL     OW47234  14.049  11.175   9.254
81801SOL    HW147235  13.986  11.230   9.302
81801SOL    HW247236  14.028  11.086   9.281
81802SOL     OW47237  13.843   7.032   0.387
81802SOL    HW147238  13.933   7.065   0.382
81802SOL    HW247239  13.845   6.968   0.458
81803SOL     OW47240   3.787   0.194  10.811
81803SOL    HW147241   3.843   0.151  10.876
81803SOL    HW247242   3.738   0.122  10.771
81804SOL     OW47243   3.005   1.940   7.042
81804SOL    HW147244   3.008   2.012   7.105
81804SOL    HW247245   3.096   1.908   7.038
81805SOL     OW47246  10.386   5.516  12.258
81805SOL    HW147247  10.453   5.563  12.308
81805SOL    HW247248  10.335   5.470  12.324
81806SOL     OW47249   9.025  12.801   5.344
81806SOL    HW147250   9.100  12.857   5.359
81806SOL    HW247251   9.048  12.717   5.385
81807SOL     OW47252  13.396  11.130   9.086
81807SOL    HW147253  13.329  11.193   9.112
81807SOL    HW247254  13.430  11.163   9.003
81808SOL     OW47255   3.781  13.062   5.343
81808SOL    HW147256   3.785  12.976   5.302
81808SOL    HW247257   3.775  13.123   5.270
81809SOL     OW47258   6.518  13.249   9.414
81809SOL    HW147259   6.508  13.194   9.492
81809SOL    HW247260   6.515  13.188   9.340
81810SOL     OW47261   2.116  11.526  13.598
81810SOL    HW147262   2.070  11.556  13.676
81810SOL    HW247263   2.049  11.522  13.530
81811SOL     OW47264   1.138   4.429   4.615
81811SOL    HW147265   1.177   4.436   4.702
81811SOL    HW247266   1.121   4.336   4.603
81812SOL     OW47267   7.849  12.772  13.470
81812SOL    HW147268   7.840  12.786  13.564
81812SOL    HW247269   7.801  12.845  13.431
81813SOL     OW47270  12.431   6.944  13.459
81813SOL    HW147271  12.490   7.005  13.414
81813SOL    HW247272  12.380   7.000  13.518
81814SOL     OW47273  14.553   6.216  12.071
81814SOL    HW147274  14.464   6.224  12.107
81814SOL    HW247275  14.596   6.299  12.095
81815SOL     OW47276  13.292   4.994   3.952
81815SOL    HW147277  13.220   4.937   3.980
81815SOL    HW247278  13.270   5.016   3.861
81816SOL     OW47279   6.963  11.562  10.734
81816SOL    HW147280   7.057  11.572  10.750
81816SOL    HW247281   6.957  11.532  10.644
81817SOL     OW47282   0.374   9.291   0.595
81817SOL    HW147283   0.412   9.295   0.682
81817SOL    HW247284   0.374   9.198   0.572
81818SOL     OW47285   8.659  11.481   0.731
81818SOL    HW147286   8.736  11.426   0.743
81818SOL    HW247287   8.693  11.567   0.708
81819SOL     OW47288   8.639   5.673  11.557
81819SOL    HW147289   8.606   5.583  11.551
81819SOL    HW247290   8.729   5.663  11.588
81820SOL     OW47291   2.279  13.164   2.507
81820SOL    HW147292   2.271  13.131   2.597
81820SOL    HW247293   2.374  13.174   2.494
81821SOL     OW47294  13.214   0.567   2.632
81821SOL    HW147295  13.257   0.619   2.701
81821SOL    HW247296  13.277   0.564   2.561
81822SOL     OW47297  10.136  12.830   2.401
81822SOL    HW147298  10.161  12.821   2.493
81822SOL    HW247299  10.176  12.913   2.373
81823SOL     OW47300   3.309   4.127   4.130
81823SOL    HW147301   3.390   4.091   4.166
81823SOL    HW247302   3.294   4.208   4.178
81824SOL     OW47303  13.307   0.820   3.970
81824SOL    HW147304  13.345   0.748   4.019
81824SOL    HW247305  13.365   0.832   3.894
81825SOL     OW47306   1.381   6.853  13.668
81825SOL    HW147307   1.462   6.882  13.709
81825SOL    HW247308   1.316   6.858  13.739
81826SOL     OW47309   7.898   9.451   8.610
81826SOL    HW147310   7.959   9.389   8.571
81826SOL    HW247311   7.941   9.536   8.599
81827SOL     OW47312   6.170   9.013   6.463
81827SOL    HW147313   6.121   8.937   6.496
81827SOL    HW247314   6.220   9.044   6.538
81828SOL     OW47315  10.845   2.768  13.497
81828SOL    HW147316  10.773   2.829  13.482
81828SOL    HW247317  10.920   2.824  13.519
81829SOL     OW47318   3.244   9.611   2.915
81829SOL    HW147319   3.152   9.637   2.903
81829SOL    HW247320   3.242   9.516   2.906
81830SOL     OW47321  13.512   5.250   7.426
81830SOL    HW147322  13.517   5.316   7.495
81830SOL    HW247323  13.600   5.250   7.387
81831SOL     OW47324   5.537  14.579  12.123
81831SOL    HW147325   5.536  14.649  12.189
81831SOL    HW247326   5.630  14.559  12.111
81832SOL     OW47327   7.876   0.977  11.812
81832SOL    HW147328   7.811   1.024  11.760
81832SOL    HW247329   7.960   1.015  11.786
81833SOL     OW47330   0.830   1.233   8.594
81833SOL    HW147331   0.843   1.276   8.510
81833SOL    HW247332   0.868   1.146   8.583
81834SOL     OW47333   7.808   5.211  11.834
81834SOL    HW147334   7.872   5.161  11.783
81834SOL    HW247335   7.744   5.241  11.770
81835SOL     OW47336   0.627   5.670   7.792
81835SOL    HW147337   0.669   5.677   7.878
81835SOL    HW247338   0.534   5.685   7.810
81836SOL     OW47339   5.553   1.033  11.518
81836SOL    HW147340   5.465   1.028  11.481
81836SOL    HW247341   5.599   1.096  11.463
81837SOL     OW47342  10.693  12.364   1.466
81837SOL    HW147343  10.704  12.315   1.548
81837SOL    HW247344  10.640  12.440   1.491
81838SOL     OW47345   0.146   7.157   4.363
81838SOL    HW147346   0.095   7.170   4.283
81838SOL    HW247347   0.228   7.202   4.346
81839SOL     OW47348  13.157   9.886   1.280
81839SOL    HW147349  13.092   9.874   1.210
81839SOL    HW247350  13.111   9.936   1.347
81840SOL     OW47351   4.777   0.505   5.021
81840SOL    HW147352   4.728   0.581   5.053
81840SOL    HW247353   4.844   0.489   5.088
81841SOL     OW47354   1.822  10.681   1.321
81841SOL    HW147355   1.894  10.619   1.324
81841SOL    HW247356   1.825  10.717   1.232
81842SOL     OW47357  11.081   7.349   7.077
81842SOL    HW147358  11.011   7.363   7.141
81842SOL    HW247359  11.095   7.435   7.038
81843SOL     OW47360  11.657   4.134  14.624
81843SOL    HW147361  11.703   4.114  14.706
81843SOL    HW247362  11.625   4.223  14.636
81844SOL     OW47363   7.516  10.657  10.254
81844SOL    HW147364   7.550  10.610  10.331
81844SOL    HW247365   7.594  10.679  10.204
81845SOL     OW47366   9.090  13.589   2.564
81845SOL    HW147367   9.091  13.685   2.565
81845SOL    HW247368   9.183  13.565   2.564
81846SOL     OW47369  10.991  11.553  13.798
81846SOL    HW147370  10.911  11.560  13.850
81846SOL    HW247371  10.969  11.596  13.715
81847SOL     OW47372  12.367   1.954   8.016
81847SOL    HW147373  12.356   2.026   7.954
81847SOL    HW247374  12.354   1.875   7.963
81848SOL     OW47375   2.782   0.559  10.602
81848SOL    HW147376   2.846   0.583  10.669
81848SOL    HW247377   2.828   0.572  10.520
81849SOL     OW47378   8.844   2.525  10.588
81849SOL    HW147379   8.935   2.534  10.616
81849SOL    HW247380   8.849   2.484  10.502
81850SOL     OW47381   0.442   9.945   0.302
81850SOL    HW147382   0.395   9.882   0.246
81850SOL    HW247383   0.532   9.941   0.270
81851SOL     OW47384  12.975   2.530   9.713
81851SOL    HW147385  12.880   2.538   9.702
81851SOL    HW247386  12.986   2.457   9.774
81852SOL     OW47387  14.161  11.957  14.382
81852SOL    HW147388  14.079  11.913  14.404
81852SOL    HW247389  14.134  12.044  14.354
81853SOL     OW47390   7.699   2.733   1.594
81853SOL    HW147391   7.786   2.756   1.562
81853SOL    HW247392   7.653   2.701   1.516
81854SOL     OW47393   9.486   1.357  12.323
81854SOL    HW147394   9.399   1.393  12.337
81854SOL    HW247395   9.473   1.262  12.324
81855SOL     OW47396   1.323   2.315   3.617
81855SOL    HW147397   1.350   2.348   3.531
81855SOL    HW247398   1.404   2.288   3.659
81856SOL     OW47399  13.970   8.742   7.729
81856SOL    HW147400  13.955   8.789   7.811
81856SOL    HW247401  13.936   8.654   7.745
81857SOL     OW47402   7.243  11.582  12.003
81857SOL    HW147403   7.276  11.668  12.031
81857SOL    HW247404   7.181  11.557  12.072
81858SOL     OW47405   4.506   6.574   8.619
81858SOL    HW147406   4.485   6.657   8.576
81858SOL    HW247407   4.435   6.562   8.683
81859SOL     OW47408   4.446   6.905   6.573
81859SOL    HW147409   4.358   6.870   6.558
81859SOL    HW247410   4.504   6.830   6.561
81860SOL     OW47411  12.245   2.246   8.945
81860SOL    HW147412  12.172   2.302   8.919
81860SOL    HW247413  12.297   2.235   8.865
81861SOL     OW47414  10.915   0.324   4.581
81861SOL    HW147415  10.905   0.395   4.519
81861SOL    HW247416  10.860   0.349   4.655
81862SOL     OW47417   7.828   6.225   3.344
81862SOL    HW147418   7.794   6.276   3.418
81862SOL    HW247419   7.848   6.139   3.381
81863SOL     OW47420   8.309  12.964  13.615
81863SOL    HW147421   8.297  12.953  13.710
81863SOL    HW247422   8.220  12.962  13.579
81864SOL     OW47423   1.237   7.447   7.479
81864SOL    HW147424   1.316   7.494   7.453
81864SOL    HW247425   1.171   7.516   7.489
81865SOL     OW47426   0.421   8.258   1.895
81865SOL    HW147427   0.419   8.163   1.885
81865SOL    HW247428   0.509   8.282   1.865
81866SOL     OW47429   2.699   5.841   9.314
81866SOL    HW147430   2.609   5.870   9.300
81866SOL    HW247431   2.705   5.824   9.409
81867SOL     OW47432  14.314   8.694   7.299
81867SOL    HW147433  14.322   8.780   7.339
81867SOL    HW247434  14.258   8.644   7.359
81868SOL     OW47435   7.534  10.273   2.363
81868SOL    HW147436   7.607  10.225   2.324
81868SOL    HW247437   7.563  10.291   2.453
81869SOL     OW47438  12.725   0.317   0.592
81869SOL    HW147439  12.697   0.351   0.507
81869SOL    HW247440  12.803   0.264   0.572
81870SOL     OW47441   5.746   6.400   1.240
81870SOL    HW147442   5.654   6.388   1.217
81870SOL    HW247443   5.774   6.477   1.190
81871SOL     OW47444   4.113   5.061   8.083
81871SOL    HW147445   4.199   5.102   8.077
81871SOL    HW247446   4.121   4.981   8.032
81872SOL     OW47447  12.819   6.199   8.591
81872SOL    HW147448  12.727   6.193   8.614
81872SOL    HW247449  12.847   6.284   8.626
81873SOL     OW47450   1.861   9.565   3.339
81873SOL    HW147451   1.842   9.659   3.340
81873SOL    HW247452   1.811   9.532   3.264
81874SOL     OW47453   1.582   2.781   1.466
81874SOL    HW147454   1.586   2.692   1.432
81874SOL    HW247455   1.653   2.787   1.530
81875SOL     OW47456  13.952   8.205  13.271
81875SOL    HW147457  14.012   8.177  13.341
81875SOL    HW247458  13.866   8.206  13.313
81876SOL     OW47459  12.226   4.879   7.089
81876SOL    HW147460  12.226   4.952   7.027
81876SOL    HW247461  12.146   4.890   7.140
81877SOL     OW47462   8.778   0.086   1.886
81877SOL    HW147463   8.696   0.078   1.933
81877SOL    HW247464   8.825   0.005   1.905
81878SOL     OW47465   0.925  14.247   9.968
81878SOL    HW147466   0.888  14.290  10.045
81878SOL    HW247467   0.858  14.185   9.940
81879SOL     OW47468   9.192   7.763  10.876
81879SOL    HW147469   9.281   7.784  10.904
81879SOL    HW247470   9.201   7.741  10.783
81880SOL     OW47471   4.311   1.938   4.146
81880SOL    HW147472   4.398   1.922   4.181
81880SOL    HW247473   4.253   1.933   4.222
81881SOL     OW47474  13.807   3.143  10.502
81881SOL    HW147475  13.846   3.059  10.523
81881SOL    HW247476  13.863   3.207  10.546
81882SOL     OW47477  14.000  11.674   4.943
81882SOL    HW147478  13.918  11.722   4.950
81882SOL    HW247479  13.975  11.588   4.909
81883SOL     OW47480   0.837   5.005   6.092
81883SOL    HW147481   0.911   4.951   6.120
81883SOL    HW247482   0.795   4.955   6.022
81884SOL     OW47483   7.226   8.795   5.884
81884SOL    HW147484   7.227   8.891   5.893
81884SOL    HW247485   7.297   8.776   5.823
81885SOL     OW47486   7.274  14.454   5.982
81885SOL    HW147487   7.280  14.527   6.043
81885SOL    HW247488   7.185  14.459   5.946
81886SOL     OW47489   2.039   4.416   7.857
81886SOL    HW147490   1.990   4.498   7.856
81886SOL    HW247491   1.979   4.351   7.892
81887SOL     OW47492   0.180   8.360  10.464
81887SOL    HW147493   0.140   8.297  10.524
81887SOL    HW247494   0.181   8.316  10.379
81888SOL     OW47495   6.914  13.128   8.195
81888SOL    HW147496   6.902  13.163   8.284
81888SOL    HW247497   6.837  13.073   8.181
81889SOL     OW47498   1.892  11.548   8.558
81889SOL    HW147499   1.828  11.478   8.544
81889SOL    HW247500   1.930  11.529   8.644
81890SOL     OW47501  11.037   4.008  11.336
81890SOL    HW147502  11.026   3.992  11.429
81890SOL    HW247503  11.107   4.074  11.331
81891SOL     OW47504   0.205   8.292   9.777
81891SOL    HW147505   0.237   8.378   9.807
81891SOL    HW247506   0.256   8.274   9.699
81892SOL     OW47507   7.604   7.601   2.558
81892SOL    HW147508   7.560   7.608   2.643
81892SOL    HW247509   7.544   7.643   2.496
81893SOL     OW47510  12.207   1.175   2.200
81893SOL    HW147511  12.117   1.203   2.218
81893SOL    HW247512  12.205   1.145   2.110
81894SOL     OW47513   7.991   0.044   2.997
81894SOL    HW147514   7.897   0.028   3.004
81894SOL    HW247515   7.998   0.127   2.949
81895SOL     OW47516  11.329  12.244  12.071
81895SOL    HW147517  11.264  12.244  12.142
81895SOL    HW247518  11.403  12.292  12.106
81896SOL     OW47519   2.041  11.098   4.571
81896SOL    HW147520   1.993  11.016   4.555
81896SOL    HW247521   2.010  11.129   4.655
81897SOL     OW47522   1.416  12.524  11.955
81897SOL    HW147523   1.376  12.474  11.883
81897SOL    HW247524   1.355  12.596  11.970
81898SOL     OW47525  11.624   0.838  13.023
81898SOL    HW147526  11.700   0.858  13.076
81898SOL    HW247527  11.659   0.812  12.938
81899SOL     OW47528   3.187   2.647   5.005
81899SOL    HW147529   3.131   2.604   4.940
81899SOL    HW247530   3.224   2.722   4.959
81900SOL     OW47531   7.952  11.910  10.434
81900SOL    HW147532   7.977  11.823  10.403
81900SOL    HW247533   7.903  11.948  10.361
81901SOL     OW47534   9.118   3.020  13.943
81901SOL    HW147535   9.175   3.089  13.909
81901SOL    HW247536   9.161   2.939  13.916
81902SOL     OW47537   9.436   5.267   4.183
81902SOL    HW147538   9.410   5.349   4.141
81902SOL    HW247539   9.522   5.286   4.221
81903SOL     OW47540   0.248   9.027  14.427
81903SOL    HW147541   0.214   9.085  14.359
81903SOL    HW247542   0.309   8.969  14.382
81904SOL     OW47543   9.218   3.972   9.252
81904SOL    HW147544   9.135   4.001   9.213
81904SOL    HW247545   9.194   3.940   9.339
81905SOL     OW47546   4.987   2.142   7.301
81905SOL    HW147547   5.082   2.142   7.291
81905SOL    HW247548   4.960   2.054   7.276
81906SOL     OW47549  11.276   4.845   2.040
81906SOL    HW147550  11.284   4.885   1.953
81906SOL    HW247551  11.360   4.802   2.054
81907SOL     OW47552   6.243   4.160   8.013
81907SOL    HW147553   6.298   4.223   8.059
81907SOL    HW247554   6.278   4.158   7.924
81908SOL     OW47555   4.410   4.720  10.689
81908SOL    HW147556   4.375   4.637  10.723
81908SOL    HW247557   4.504   4.704  10.680
81909SOL     OW47558  10.343   0.161  10.341
81909SOL    HW147559  10.381   0.125  10.261
81909SOL    HW247560  10.310   0.247  10.315
81910SOL     OW47561   7.351   5.744   7.824
81910SOL    HW147562   7.294   5.702   7.889
81910SOL    HW247563   7.437   5.706   7.839
81911SOL     OW47564  12.267  13.884  10.493
81911SOL    HW147565  12.349  13.933  10.488
81911SOL    HW247566  12.223  13.901  10.410
81912SOL     OW47567   7.535  12.183   0.403
81912SOL    HW147568   7.573  12.248   0.344
81912SOL    HW247569   7.570  12.205   0.489
81913SOL     OW47570   8.664   4.465  12.304
81913SOL    HW147571   8.599   4.443  12.237
81913SOL    HW247572   8.732   4.399  12.294
81914SOL     OW47573   4.170  11.928   8.776
81914SOL    HW147574   4.118  11.870   8.720
81914SOL    HW247575   4.108  11.994   8.806
81915SOL     OW47576  10.544   9.815  13.226
81915SOL    HW147577  10.583   9.735  13.262
81915SOL    HW247578  10.617   9.876  13.218
81916SOL     OW47579   4.058  11.739   2.658
81916SOL    HW147580   4.025  11.828   2.675
81916SOL    HW247581   4.101  11.713   2.740
81917SOL     OW47582   1.896   9.767   7.990
81917SOL    HW147583   1.983   9.769   8.029
81917SOL    HW247584   1.864   9.857   7.999
81918SOL     OW47585   2.430  13.388   0.230
81918SOL    HW147586   2.449  13.301   0.264
81918SOL    HW247587   2.419  13.374   0.135
81919SOL     OW47588   0.444   7.915   6.564
81919SOL    HW147589   0.354   7.904   6.595
81919SOL    HW247590   0.448   8.005   6.533
81920SOL     OW47591  10.578   2.086   9.846
81920SOL    HW147592  10.506   2.061   9.788
81920SOL    HW247593  10.634   2.008   9.850
81921SOL     OW47594  10.532  13.852   2.683
81921SOL    HW147595  10.505  13.908   2.611
81921SOL    HW247596  10.573  13.776   2.641
81922SOL     OW47597   7.786   2.637  13.372
81922SOL    HW147598   7.695   2.649  13.344
81922SOL    HW247599   7.838   2.663  13.295
81923SOL     OW47600   2.338   1.236   6.839
81923SOL    HW147601   2.324   1.315   6.891
81923SOL    HW247602   2.300   1.256   6.753
81924SOL     OW47603  13.823   0.885  11.868
81924SOL    HW147604  13.851   0.977  11.864
81924SOL    HW247605  13.781   0.869  11.784
81925SOL     OW47606   4.300   1.097   7.189
81925SOL    HW147607   4.230   1.072   7.250
81925SOL    HW247608   4.336   1.014   7.158
81926SOL     OW47609   9.107   9.390   9.719
81926SOL    HW147610   9.111   9.296   9.702
81926SOL    HW247611   9.042   9.400   9.788
81927SOL     OW47612   7.150   3.874   3.660
81927SOL    HW147613   7.188   3.804   3.712
81927SOL    HW247614   7.185   3.860   3.571
81928SOL     OW47615   3.273  13.981   6.341
81928SOL    HW147616   3.315  13.909   6.295
81928SOL    HW247617   3.257  14.047   6.273
81929SOL     OW47618   5.480  11.732   1.769
81929SOL    HW147619   5.459  11.802   1.831
81929SOL    HW247620   5.396  11.712   1.727
81930SOL     OW47621  11.174   2.187   1.002
81930SOL    HW147622  11.270   2.192   1.002
81930SOL    HW247623  11.153   2.130   1.075
81931SOL     OW47624  11.999  14.036  10.656
81931SOL    HW147625  12.093  14.047  10.645
81931SOL    HW247626  11.977  13.962  10.599
81932SOL     OW47627   4.544   3.296   3.583
81932SOL    HW147628   4.601   3.363   3.544
81932SOL    HW247629   4.470   3.345   3.618
81933SOL     OW47630   7.116  13.200   7.787
81933SOL    HW147631   7.150  13.279   7.828
81933SOL    HW247632   7.026  13.194   7.819
81934SOL     OW47633  12.660   0.640   1.263
81934SOL    HW147634  12.577   0.666   1.222
81934SOL    HW247635  12.707   0.592   1.195
81935SOL     OW47636  11.138   8.223  12.485
81935SOL    HW147637  11.215   8.174  12.458
81935SOL    HW247638  11.093   8.244  12.403
81936SOL     OW47639   5.976   5.665   0.618
81936SOL    HW147640   5.945   5.637   0.704
81936SOL    HW247641   6.058   5.616   0.605
81937SOL     OW47642  12.383  11.044  12.806
81937SOL    HW147643  12.396  11.027  12.900
81937SOL    HW247644  12.359  10.959  12.770
81938SOL     OW47645   3.071  14.258   1.648
81938SOL    HW147646   3.128  14.241   1.722
81938SOL    HW247647   3.113  14.213   1.574
81939SOL     OW47648  11.291   6.732   5.553
81939SOL    HW147649  11.281   6.801   5.488
81939SOL    HW247650  11.345   6.771   5.622
81940SOL     OW47651  14.596   8.162  11.152
81940SOL    HW147652  14.686   8.192  11.166
81940SOL    HW247653  14.593   8.076  11.193
81941SOL     OW47654  14.404   4.705   5.079
81941SOL    HW147655  14.336   4.771   5.060
81941SOL    HW247656  14.465   4.750   5.138
81942SOL     OW47657   8.626   3.546  11.931
81942SOL    HW147658   8.653   3.604  12.002
81942SOL    HW247659   8.604   3.464  11.973
81943SOL     OW47660  10.752  14.685  11.315
81943SOL    HW147661  10.691  14.738  11.367
81943SOL    HW247662  10.712  14.599  11.313
81944SOL     OW47663   5.919   6.494  12.057
81944SOL    HW147664   5.972   6.545  12.118
81944SOL    HW247665   5.979   6.428  12.023
81945SOL     OW47666  11.183   3.987   6.576
81945SOL    HW147667  11.139   4.069   6.601
81945SOL    HW247668  11.129   3.951   6.506
81946SOL     OW47669   2.729   4.246  12.417
81946SOL    HW147670   2.767   4.229  12.331
81946SOL    HW247671   2.685   4.165  12.441
81947SOL     OW47672   7.691   8.463  11.871
81947SOL    HW147673   7.597   8.475  11.863
81947SOL    HW247674   7.713   8.502  11.956
81948SOL     OW47675   7.031  11.987   5.114
81948SOL    HW147676   7.026  11.914   5.175
81948SOL    HW247677   6.972  11.964   5.043
81949SOL     OW47678  10.471   5.376   6.672
81949SOL    HW147679  10.469   5.468   6.701
81949SOL    HW247680  10.540   5.374   6.606
81950SOL     OW47681   0.304   5.151  13.150
81950SOL    HW147682   0.395   5.134  13.126
81950SOL    HW247683   0.302   5.142  13.245
81951SOL     OW47684   6.018  12.442   6.268
81951SOL    HW147685   6.042  12.504   6.199
81951SOL    HW247686   5.987  12.364   6.222
81952SOL     OW47687  12.408  10.933   8.799
81952SOL    HW147688  12.438  10.868   8.735
81952SOL    HW247689  12.380  11.008   8.747
81953SOL     OW47690  12.419   6.172   4.865
81953SOL    HW147691  12.398   6.091   4.913
81953SOL    HW247692  12.333   6.212   4.849
81954SOL     OW47693   4.894   7.248   8.402
81954SOL    HW147694   4.989   7.239   8.390
81954SOL    HW247695   4.874   7.337   8.372
81955SOL     OW47696  12.135   8.737   7.628
81955SOL    HW147697  12.183   8.664   7.591
81955SOL    HW247698  12.046   8.726   7.595
81956SOL     OW47699   4.954  10.895   7.831
81956SOL    HW147700   5.007  10.971   7.858
81956SOL    HW247701   4.914  10.864   7.912
81957SOL     OW47702  14.761   5.439   4.470
81957SOL    HW147703  14.749   5.460   4.378
81957SOL    HW247704  14.836   5.492   4.497
81958SOL     OW47705   7.320   7.271   3.376
81958SOL    HW147706   7.290   7.215   3.305
81958SOL    HW247707   7.406   7.235   3.400
81959SOL     OW47708   9.415  14.547  13.270
81959SOL    HW147709   9.412  14.592  13.186
81959SOL    HW247710   9.479  14.477  13.258
81960SOL     OW47711   7.899  14.727   3.702
81960SOL    HW147712   7.926  14.724   3.610
81960SOL    HW247713   7.969  14.773   3.747
81961SOL     OW47714   7.438   9.475  11.442
81961SOL    HW147715   7.438   9.546  11.378
81961SOL    HW247716   7.487   9.405  11.400
81962SOL     OW47717   1.737   7.283   0.779
81962SOL    HW147718   1.735   7.372   0.813
81962SOL    HW247719   1.829   7.259   0.780
81963SOL     OW47720   1.779   2.469   9.616
81963SOL    HW147721   1.821   2.480   9.531
81963SOL    HW247722   1.746   2.555   9.640
81964SOL     OW47723   8.243   8.404   9.780
81964SOL    HW147724   8.274   8.318   9.752
81964SOL    HW247725   8.269   8.463   9.709
81965SOL     OW47726   8.563   0.703   6.628
81965SOL    HW147727   8.494   0.641   6.652
81965SOL    HW247728   8.644   0.656   6.644
81966SOL     OW47729   2.784  13.420   3.404
81966SOL    HW147730   2.806  13.447   3.493
81966SOL    HW247731   2.868  13.414   3.359
81967SOL     OW47732   9.044   0.803  14.126
81967SOL    HW147733   9.137   0.800  14.106
81967SOL    HW247734   9.018   0.710  14.132
81968SOL     OW47735   2.374  10.592   7.385
81968SOL    HW147736   2.333  10.605   7.471
81968SOL    HW247737   2.456  10.545   7.405
81969SOL     OW47738   7.364   1.628  12.164
81969SOL    HW147739   7.440   1.570  12.168
81969SOL    HW247740   7.388   1.694  12.099
81970SOL     OW47741   1.201  12.795  12.855
81970SOL    HW147742   1.286  12.820  12.821
81970SOL    HW247743   1.169  12.728  12.794
81971SOL     OW47744   7.510  14.783   2.779
81971SOL    HW147745   7.516  14.692   2.749
81971SOL    HW247746   7.436  14.784   2.839
81972SOL     OW47747  12.900   0.579   3.972
81972SOL    HW147748  12.878   0.487   3.959
81972SOL    HW247749  12.976   0.578   4.030
81973SOL     OW47750   8.038   7.775  11.590
81973SOL    HW147751   8.107   7.798  11.528
81973SOL    HW247752   7.999   7.695  11.554
81974SOL     OW47753  14.654   4.496   0.808
81974SOL    HW147754  14.594   4.424   0.791
81974SOL    HW247755  14.659   4.544   0.726
81975SOL     OW47756   8.169   0.701  13.831
81975SOL    HW147757   8.183   0.779  13.886
81975SOL    HW247758   8.210   0.724  13.748
81976SOL     OW47759   4.563   0.061   9.651
81976SOL    HW147760   4.650   0.100   9.646
81976SOL    HW247761   4.511   0.125   9.700
81977SOL     OW47762   5.998  10.377  10.911
81977SOL    HW147763   6.029  10.365  11.001
81977SOL    HW247764   6.039  10.306  10.862
81978SOL     OW47765  10.202  11.397   7.976
81978SOL    HW147766  10.145  11.346   8.034
81978SOL    HW247767  10.284  11.406   8.024
81979SOL     OW47768   1.804   6.236   9.244
81979SOL    HW147769   1.768   6.306   9.298
81979SOL    HW247770   1.894   6.227   9.274
81980SOL     OW47771   4.953  11.860   6.909
81980SOL    HW147772   4.915  11.772   6.916
81980SOL    HW247773   4.985  11.864   6.819
81981SOL     OW47774  10.285   3.414   1.903
81981SOL    HW147775  10.285   3.401   1.809
81981SOL    HW247776  10.373   3.388   1.931
81982SOL     OW47777   2.856  11.052  10.239
81982SOL    HW147778   2.900  11.137  10.242
81982SOL    HW247779   2.769  11.069  10.276
81983SOL     OW47780   9.185  12.899   3.517
81983SOL    HW147781   9.161  12.908   3.424
81983SOL    HW247782   9.271  12.858   3.516
81984SOL     OW47783   3.696   4.218   9.146
81984SOL    HW147784   3.783   4.256   9.130
81984SOL    HW247785   3.639   4.294   9.158
81985SOL     OW47786   3.987   0.021   9.108
81985SOL    HW147787   3.967  14.821   9.048
81985SOL    HW247788   4.056  14.858   9.164
81986SOL     OW47789   8.055   4.094   4.669
81986SOL    HW147790   8.033   4.005   4.696
81986SOL    HW247791   8.122   4.123   4.730
81987SOL     OW47792  14.071   6.000   5.366
81987SOL    HW147793  14.012   6.049   5.309
81987SOL    HW247794  14.157   6.040   5.354
81988SOL     OW47795   0.027   3.885  10.365
81988SOL    HW147796   0.038   3.973  10.401
81988SOL    HW247797   0.024   3.898  10.270
81989SOL     OW47798  12.717  13.367   7.601
81989SOL    HW147799  12.788  13.335   7.545
81989SOL    HW247800  12.749  13.351   7.690
81990SOL     OW47801   3.130   2.174   1.901
81990SOL    HW147802   3.153   2.156   1.992
81990SOL    HW247803   3.138   2.269   1.892
81991SOL     OW47804  12.575  14.346  12.783
81991SOL    HW147805  12.623  14.386  12.710
81991SOL    HW247806  12.643  14.300  12.834
81992SOL     OW47807   9.931   3.464  12.543
81992SOL    HW147808   9.937   3.419  12.627
81992SOL    HW247809   9.943   3.556  12.563
81993SOL     OW47810   4.988  11.462   7.133
81993SOL    HW147811   4.989  11.524   7.205
81993SOL    HW247812   4.963  11.379   7.173
81994SOL     OW47813  11.031   6.322   5.953
81994SOL    HW147814  11.117   6.365   5.958
81994SOL    HW247815  10.994   6.352   5.870
81995SOL     OW47816   5.465   3.180   4.081
81995SOL    HW147817   5.460   3.201   3.987
81995SOL    HW247818   5.421   3.096   4.089
81996SOL     OW47819   8.676   6.754   1.729
81996SOL    HW147820   8.632   6.826   1.773
81996SOL    HW247821   8.615   6.729   1.658
81997SOL     OW47822   7.619   6.859  12.022
81997SOL    HW147823   7.657   6.863  11.934
81997SOL    HW247824   7.598   6.950  12.044
81998SOL     OW47825   9.674   7.914   4.440
81998SOL    HW147826   9.656   7.948   4.353
81998SOL    HW247827   9.709   7.989   4.489
81999SOL     OW47828  10.817  10.243  11.812
81999SOL    HW147829  10.765  10.316  11.779
81999SOL    HW247830  10.796  10.171  11.753
82000SOL     OW47831   2.771   2.140   8.156
82000SOL    HW147832   2.719   2.196   8.213
82000SOL    HW247833   2.799   2.067   8.213
82001SOL     OW47834   2.323   3.742   6.587
82001SOL    HW147835   2.384   3.670   6.604
82001SOL    HW247836   2.374   3.821   6.607
82002SOL     OW47837   8.726   6.727   9.330
82002SOL    HW147838   8.681   6.666   9.388
82002SOL    HW247839   8.800   6.759   9.381
82003SOL     OW47840   2.806  13.460   4.413
82003SOL    HW147841   2.813  13.390   4.348
82003SOL    HW247842   2.857  13.430   4.487
82004SOL     OW47843   4.905   5.970   0.320
82004SOL    HW147844   4.839   6.016   0.370
82004SOL    HW247845   4.971   6.036   0.300
82005SOL     OW47846  14.523   4.991   1.774
82005SOL    HW147847  14.443   4.937   1.777
82005SOL    HW247848  14.523   5.037   1.858
82006SOL     OW47849   6.163   6.699  13.098
82006SOL    HW147850   6.229   6.681  13.165
82006SOL    HW247851   6.140   6.613  13.063
82007SOL     OW47852   2.100   8.451  10.572
82007SOL    HW147853   2.101   8.542  10.542
82007SOL    HW247854   2.029   8.448  10.636
82008SOL     OW47855   8.959   0.317   0.656
82008SOL    HW147856   8.904   0.296   0.580
82008SOL    HW247857   8.930   0.404   0.683
82009SOL     OW47858  11.771   0.266  12.783
82009SOL    HW147859  11.817   0.349  12.795
82009SOL    HW247860  11.706   0.284  12.715
82010SOL     OW47861  12.537  12.179   3.471
82010SOL    HW147862  12.452  12.191   3.428
82010SOL    HW247863  12.554  12.262   3.515
82011SOL     OW47864  11.451   4.006  14.467
82011SOL    HW147865  11.481   4.068  14.400
82011SOL    HW247866  11.523   4.003  14.530
82012SOL     OW47867   4.695   6.800   6.334
82012SOL    HW147868   4.779   6.754   6.327
82012SOL    HW247869   4.709   6.883   6.290
82013SOL     OW47870   0.070   6.400   5.953
82013SOL    HW147871   0.159   6.369   5.970
82013SOL    HW247872   0.056   6.381   5.860
82014SOL     OW47873   8.536   6.739   3.062
82014SOL    HW147874   8.492   6.802   3.005
82014SOL    HW247875   8.466   6.705   3.118
82015SOL     OW47876  13.790  14.795   1.460
82015SOL    HW147877  13.874  14.794   1.413
82015SOL    HW247878  13.735  14.735   1.411
82016SOL     OW47879  11.893   1.794   5.415
82016SOL    HW147880  11.968   1.792   5.475
82016SOL    HW247881  11.821   1.827   5.467
82017SOL     OW47882   4.715  10.748   0.199
82017SOL    HW147883   4.782  10.762   0.265
82017SOL    HW247884   4.635  10.732   0.249
82018SOL     OW47885   6.190  11.924   8.677
82018SOL    HW147886   6.208  11.830   8.678
82018SOL    HW247887   6.123  11.935   8.609
82019SOL     OW47888   9.114   5.756   2.482
82019SOL    HW147889   9.076   5.683   2.530
82019SOL    HW247890   9.069   5.755   2.398
82020SOL     OW47891   0.601   5.477   2.081
82020SOL    HW147892   0.569   5.437   2.162
82020SOL    HW247893   0.553   5.559   2.074
82021SOL     OW47894   5.528   2.127   2.574
82021SOL    HW147895   5.437   2.106   2.554
82021SOL    HW247896   5.579   2.076   2.511
82022SOL     OW47897   4.221  10.971   2.400
82022SOL    HW147898   4.237  11.049   2.346
82022SOL    HW247899   4.277  10.903   2.360
82023SOL     OW47900  11.420  11.007   8.925
82023SOL    HW147901  11.403  10.996   9.018
82023SOL    HW247902  11.479  11.082   8.921
82024SOL     OW47903  13.586  12.654   9.995
82024SOL    HW147904  13.602  12.585  10.060
82024SOL    HW247905  13.604  12.735  10.042
82025SOL     OW47906   4.989   0.847   5.589
82025SOL    HW147907   4.909   0.796   5.576
82025SOL    HW247908   5.030   0.807   5.666
82026SOL     OW47909   1.312  13.768  14.409
82026SOL    HW147910   1.233  13.820  14.420
82026SOL    HW247911   1.345  13.792  14.323
82027SOL     OW47912   2.899   1.561   9.501
82027SOL    HW147913   2.877   1.639   9.551
82027SOL    HW247914   2.947   1.595   9.425
82028SOL     OW47915   7.352   9.608   2.741
82028SOL    HW147916   7.321   9.636   2.655
82028SOL    HW247917   7.395   9.524   2.724
82029SOL     OW47918   0.001   3.085   0.687
82029SOL    HW147919   0.016   3.136   0.766
82029SOL    HW247920  14.779   3.066   0.688
82030SOL     OW47921  10.220   5.957   5.587
82030SOL    HW147922  10.129   5.966   5.615
82030SOL    HW247923  10.234   5.862   5.583
82031SOL     OW47924   3.154   4.469   7.865
82031SOL    HW147925   3.160   4.400   7.931
82031SOL    HW247926   3.115   4.425   7.789
82032SOL     OW47927  12.911   4.917   9.604
82032SOL    HW147928  12.947   4.898   9.517
82032SOL    HW247929  12.889   4.832   9.640
82033SOL     OW47930  13.190  11.611   9.944
82033SOL    HW147931  13.144  11.549  10.001
82033SOL    HW247932  13.281  11.606   9.972
82034SOL     OW47933   9.508   2.445  13.181
82034SOL    HW147934   9.482   2.354  13.164
82034SOL    HW247935   9.440   2.497  13.138
82035SOL     OW47936   6.242   2.959   5.923
82035SOL    HW147937   6.147   2.960   5.905
82035SOL    HW247938   6.259   3.042   5.967
82036SOL     OW47939   2.279   9.823   0.161
82036SOL    HW147940   2.246   9.742   0.123
82036SOL    HW247941   2.276   9.886   0.090
82037SOL     OW47942   9.054   0.742  12.522
82037SOL    HW147943   9.009   0.825  12.538
82037SOL    HW247944   8.987   0.675  12.535
82038SOL     OW47945   8.155   5.760  12.841
82038SOL    HW147946   8.116   5.838  12.800
82038SOL    HW247947   8.244   5.787  12.863
82039SOL     OW47948   3.465  11.586   2.346
82039SOL    HW147949   3.427  11.661   2.392
82039SOL    HW247950   3.408  11.574   2.270
82040SOL     OW47951   6.028  11.437   8.072
82040SOL    HW147952   6.053  11.347   8.096
82040SOL    HW247953   5.968  11.425   7.998
82041SOL     OW47954   9.646  14.147   5.119
82041SOL    HW147955   9.623  14.191   5.037
82041SOL    HW247956   9.730  14.185   5.144
82042SOL     OW47957   2.193   4.004   4.298
82042SOL    HW147958   2.099   3.993   4.312
82042SOL    HW247959   2.211   3.960   4.215
82043SOL     OW47960   9.112   5.966   7.066
82043SOL    HW147961   9.079   5.990   6.979
82043SOL    HW247962   9.050   6.007   7.126
82044SOL     OW47963  14.632   1.468   9.785
82044SOL    HW147964  14.643   1.441   9.694
82044SOL    HW247965  14.716   1.506   9.810
82045SOL     OW47966   2.009   2.667  13.419
82045SOL    HW147967   2.081   2.657  13.357
82045SOL    HW247968   1.942   2.607  13.388
82046SOL     OW47969  14.615   2.907  12.114
82046SOL    HW147970  14.653   2.859  12.187
82046SOL    HW247971  14.521   2.887  12.119
82047SOL     OW47972  10.695   6.237  13.099
82047SOL    HW147973  10.675   6.327  13.124
82047SOL    HW247974  10.613   6.202  13.066
82048SOL     OW47975   7.667  10.319  12.670
82048SOL    HW147976   7.616  10.348  12.594
82048SOL    HW247977   7.654  10.224  12.673
82049SOL     OW47978   6.648   1.882   4.328
82049SOL    HW147979   6.696   1.835   4.396
82049SOL    HW247980   6.617   1.814   4.269
82050SOL     OW47981   4.496   6.402   9.735
82050SOL    HW147982   4.466   6.437   9.652
82050SOL    HW247983   4.551   6.471   9.772
82051SOL     OW47984  11.447   6.047   9.370
82051SOL    HW147985  11.438   6.084   9.457
82051SOL    HW247986  11.523   6.091   9.333
82052SOL     OW47987  12.455   8.134   1.274
82052SOL    HW147988  12.397   8.062   1.299
82052SOL    HW247989  12.406   8.213   1.298
82053SOL     OW47990   8.043  14.645   0.368
82053SOL    HW147991   8.049  14.687   0.454
82053SOL    HW247992   7.951  14.653   0.343
82054SOL     OW47993   4.582   3.894   8.005
82054SOL    HW147994   4.586   3.953   8.081
82054SOL    HW247995   4.507   3.837   8.023
82055SOL     OW47996   0.773   7.012   1.647
82055SOL    HW147997   0.804   7.091   1.692
82055SOL    HW247998   0.765   6.947   1.716
82056SOL     OW47999  12.208   7.819   0.013
82056SOL    HW148000  12.232   7.818  14.792
82056SOL    HW248001  12.284   7.856   0.057
82057SOL     OW48002   7.376   5.156   7.173
82057SOL    HW148003   7.313   5.223   7.144
82057SOL    HW248004   7.365   5.085   7.110
82058SOL     OW48005   9.554   9.421  11.574
82058SOL    HW148006   9.595   9.427  11.661
82058SOL    HW248007   9.460   9.425  11.591
82059SOL     OW48008   2.114  10.477   6.323
82059SOL    HW148009   2.036  10.422   6.323
82059SOL    HW248010   2.161  10.452   6.403
82060SOL     OW48011   1.491  13.978  14.280
82060SOL    HW148012   1.581  14.005  14.260
82060SOL    HW248013   1.437  14.051  14.250
82061SOL     OW48014   5.124   7.274   9.767
82061SOL    HW148015   5.044   7.241   9.808
82061SOL    HW248016   5.105   7.275   9.673
82062SOL     OW48017   0.467   6.820  14.325
82062SOL    HW148018   0.558   6.825  14.297
82062SOL    HW248019   0.456   6.894  14.385
82063SOL     OW48020  14.447   7.277  13.570
82063SOL    HW148021  14.532   7.261  13.531
82063SOL    HW248022  14.389   7.212  13.531
82064SOL     OW48023   2.685  10.793  11.856
82064SOL    HW148024   2.733  10.865  11.816
82064SOL    HW248025   2.669  10.731  11.785
82065SOL     OW48026   6.755   6.877  12.395
82065SOL    HW148027   6.796   6.822  12.329
82065SOL    HW248028   6.816   6.950  12.407
82066SOL     OW48029   2.572   9.887  12.735
82066SOL    HW148030   2.500   9.846  12.783
82066SOL    HW248031   2.593   9.965  12.786
82067SOL     OW48032   5.586   9.202   1.216
82067SOL    HW148033   5.555   9.157   1.138
82067SOL    HW248034   5.614   9.131   1.275
82068SOL     OW48035   7.834  11.492   6.718
82068SOL    HW148036   7.844  11.563   6.781
82068SOL    HW248037   7.823  11.536   6.634
82069SOL     OW48038   8.777  12.047   1.898
82069SOL    HW148039   8.686  12.074   1.886
82069SOL    HW248040   8.786  11.969   1.843
82070SOL     OW48041   4.898   6.144   6.778
82070SOL    HW148042   4.936   6.186   6.701
82070SOL    HW248043   4.864   6.060   6.746
82071SOL     OW48044   2.238  12.768  11.201
82071SOL    HW148045   2.168  12.813  11.153
82071SOL    HW248046   2.212  12.774  11.293
82072SOL     OW48047   9.905   5.185   7.027
82072SOL    HW148048   9.960   5.108   7.039
82072SOL    HW248049   9.921   5.211   6.936
82073SOL     OW48050   4.077  13.170  13.130
82073SOL    HW148051   4.094  13.216  13.049
82073SOL    HW248052   4.129  13.216  13.196
82074SOL     OW48053  11.671  13.741   5.992
82074SOL    HW148054  11.709  13.703   5.913
82074SOL    HW248055  11.654  13.833   5.969
82075SOL     OW48056  12.898   6.108  11.482
82075SOL    HW148057  12.816   6.060  11.493
82075SOL    HW248058  12.928   6.125  11.571
82076SOL     OW48059  13.327   9.710   9.964
82076SOL    HW148060  13.288   9.667  10.040
82076SOL    HW248061  13.287   9.798   9.963
82077SOL     OW48062   6.361   3.053   1.641
82077SOL    HW148063   6.456   3.056   1.633
82077SOL    HW248064   6.343   3.106   1.719
82078SOL     OW48065   6.330   6.896   0.266
82078SOL    HW148066   6.254   6.912   0.210
82078SOL    HW248067   6.305   6.820   0.318
82079SOL     OW48068  14.439  14.782   4.536
82079SOL    HW148069  14.354  14.790   4.492
82079SOL    HW248070  14.490  14.725   4.478
82080SOL     OW48071   0.980  10.626   2.154
82080SOL    HW148072   1.076  10.626   2.151
82080SOL    HW248073   0.956  10.534   2.157
82081SOL     OW48074   1.666   7.834   3.342
82081SOL    HW148075   1.615   7.821   3.422
82081SOL    HW248076   1.752   7.863   3.374
82082SOL     OW48077  13.501   4.666   6.815
82082SOL    HW148078  13.436   4.736   6.825
82082SOL    HW248079  13.533   4.675   6.725
82083SOL     OW48080   6.400   2.149  13.111
82083SOL    HW148081   6.377   2.120  13.023
82083SOL    HW248082   6.364   2.082  13.169
82084SOL     OW48083  12.713   8.461   6.628
82084SOL    HW148084  12.718   8.432   6.720
82084SOL    HW248085  12.621   8.446   6.604
82085SOL     OW48086   2.128   8.961   2.622
82085SOL    HW148087   2.199   8.962   2.686
82085SOL    HW248088   2.107   9.054   2.608
82086SOL     OW48089   2.832  10.316   6.710
82086SOL    HW148090   2.887  10.250   6.754
82086SOL    HW248091   2.892  10.360   6.650
82087SOL     OW48092   5.442   9.256   7.326
82087SOL    HW148093   5.514   9.197   7.350
82087SOL    HW248094   5.424   9.236   7.234
82088SOL     OW48095  13.285  14.209  10.127
82088SOL    HW148096  13.286  14.284  10.186
82088SOL    HW248097  13.373  14.206  10.089
82089SOL     OW48098   7.107   2.911   2.508
82089SOL    HW148099   7.133   2.942   2.595
82089SOL    HW248100   7.189   2.910   2.458
82090SOL     OW48101   7.207   2.401   3.705
82090SOL    HW148102   7.183   2.476   3.651
82090SOL    HW248103   7.202   2.326   3.646
82091SOL     OW48104  13.659   1.472  10.842
82091SOL    HW148105  13.634   1.547  10.895
82091SOL    HW248106  13.731   1.430  10.890
82092SOL     OW48107  13.080   2.725   0.398
82092SOL    HW148108  13.067   2.672   0.477
82092SOL    HW248109  12.998   2.714   0.349
82093SOL     OW48110   6.495   4.140   5.083
82093SOL    HW148111   6.450   4.171   5.004
82093SOL    HW248112   6.424   4.110   5.140
82094SOL     OW48113   5.684   9.372   5.490
82094SOL    HW148114   5.749   9.349   5.556
82094SOL    HW248115   5.648   9.456   5.520
82095SOL     OW48116   1.190   2.488   2.374
82095SOL    HW148117   1.138   2.508   2.451
82095SOL    HW248118   1.180   2.566   2.318
82096SOL     OW48119   3.668  13.471   3.546
82096SOL    HW148120   3.701  13.381   3.539
82096SOL    HW248121   3.670  13.491   3.639
82097SOL     OW48122   5.707  10.657   4.092
82097SOL    HW148123   5.777  10.606   4.133
82097SOL    HW248124   5.722  10.648   3.998
82098SOL     OW48125  13.435   5.608  14.663
82098SOL    HW148126  13.440   5.693  14.620
82098SOL    HW248127  13.518   5.565  14.642
82099SOL     OW48128   0.442   1.723   0.837
82099SOL    HW148129   0.534   1.723   0.810
82099SOL    HW248130   0.439   1.664   0.912
82100SOL     OW48131   1.613  13.489   4.478
82100SOL    HW148132   1.578  13.451   4.559
82100SOL    HW248133   1.635  13.413   4.424
82101SOL     OW48134  14.323   4.169  12.560
82101SOL    HW148135  14.330   4.213  12.645
82101SOL    HW248136  14.396   4.108  12.558
82102SOL     OW48137   6.003   5.259   9.019
82102SOL    HW148138   6.019   5.351   8.997
82102SOL    HW248139   6.087   5.228   9.054
82103SOL     OW48140   9.323   6.080  13.337
82103SOL    HW148141   9.325   6.154  13.398
82103SOL    HW248142   9.339   6.118  13.251
82104SOL     OW48143   4.194   0.339  10.994
82104SOL    HW148144   4.236   0.425  10.981
82104SOL    HW248145   4.266   0.276  10.984
82105SOL     OW48146   7.818   3.508  13.207
82105SOL    HW148147   7.832   3.453  13.284
82105SOL    HW248148   7.898   3.559  13.199
82106SOL     OW48149  12.178  14.521  11.586
82106SOL    HW148150  12.145  14.511  11.675
82106SOL    HW248151  12.254  14.462  11.582
82107SOL     OW48152   4.247   8.558  14.729
82107SOL    HW148153   4.319   8.620  14.712
82107SOL    HW248154   4.277   8.507  14.803
82108SOL     OW48155  13.456  11.255  12.556
82108SOL    HW148156  13.370  11.228  12.526
82108SOL    HW248157  13.510  11.176  12.549
82109SOL     OW48158  13.321  10.974   3.267
82109SOL    HW148159  13.339  10.939   3.354
82109SOL    HW248160  13.404  11.013   3.238
82110SOL     OW48161   4.493  12.448  10.305
82110SOL    HW148162   4.398  12.458  10.311
82110SOL    HW248163   4.508  12.402  10.223
82111SOL     OW48164   1.776   5.748  14.556
82111SOL    HW148165   1.798   5.664  14.595
82111SOL    HW248166   1.695   5.774  14.600
82112SOL     OW48167   4.041   3.299   5.052
82112SOL    HW148168   4.009   3.253   4.974
82112SOL    HW248169   3.961   3.320   5.101
82113SOL     OW48170   4.590  10.871   1.183
82113SOL    HW148171   4.502  10.854   1.149
82113SOL    HW248172   4.597  10.966   1.187
82114SOL     OW48173   6.913   2.950  12.967
82114SOL    HW148174   6.828   2.955  13.012
82114SOL    HW248175   6.904   3.011  12.893
82115SOL     OW48176   3.535   4.070   7.186
82115SOL    HW148177   3.477   3.998   7.210
82115SOL    HW248178   3.516   4.138   7.251
82116SOL     OW48179  13.670   9.796   5.339
82116SOL    HW148180  13.687   9.806   5.433
82116SOL    HW248181  13.593   9.850   5.323
82117SOL     OW48182   2.397  12.362   3.148
82117SOL    HW148183   2.453  12.347   3.072
82117SOL    HW248184   2.385  12.275   3.187
82118SOL     OW48185   7.781   9.266  12.275
82118SOL    HW148186   7.765   9.248  12.182
82118SOL    HW248187   7.732   9.346  12.293
82119SOL     OW48188  11.499   7.564   1.382
82119SOL    HW148189  11.484   7.609   1.465
82119SOL    HW248190  11.554   7.624   1.332
82120SOL     OW48191  12.811   3.001   6.283
82120SOL    HW148192  12.779   2.982   6.195
82120SOL    HW248193  12.798   2.919   6.331
82121SOL     OW48194  14.102   6.033  13.585
82121SOL    HW148195  14.193   6.012  13.565
82121SOL    HW248196  14.061   5.948  13.600
82122SOL     OW48197   1.039   3.858   5.923
82122SOL    HW148198   1.068   3.938   5.967
82122SOL    HW248199   1.079   3.788   5.974
82123SOL     OW48200  12.966   0.504   7.745
82123SOL    HW148201  12.995   0.544   7.663
82123SOL    HW248202  13.015   0.550   7.813
82124SOL     OW48203   4.475   4.932   6.658
82124SOL    HW148204   4.487   4.862   6.594
82124SOL    HW248205   4.560   4.939   6.702
82125SOL     OW48206   8.881  10.626   5.473
82125SOL    HW148207   8.884  10.536   5.441
82125SOL    HW248208   8.924  10.678   5.404
82126SOL     OW48209   6.800  11.236   7.456
82126SOL    HW148210   6.853  11.306   7.495
82126SOL    HW248211   6.864  11.181   7.410
82127SOL     OW48212   7.048   9.739   8.504
82127SOL    HW148213   7.059   9.676   8.575
82127SOL    HW248214   7.080   9.822   8.540
82128SOL     OW48215   8.872   3.133   9.638
82128SOL    HW148216   8.916   3.080   9.572
82128SOL    HW248217   8.779   3.111   9.630
82129SOL     OW48218  12.822   4.428   0.083
82129SOL    HW148219  12.871   4.497   0.038
82129SOL    HW248220  12.731   4.454   0.076
82130SOL     OW48221   0.545  11.867  11.604
82130SOL    HW148222   0.609  11.872  11.675
82130SOL    HW248223   0.487  11.795  11.629
82131SOL     OW48224   3.968  11.538  11.399
82131SOL    HW148225   4.027  11.606  11.366
82131SOL    HW248226   3.883  11.561  11.363
82132SOL     OW48227  14.828  11.703   6.736
82132SOL    HW148228  14.765  11.771   6.762
82132SOL    HW248229  14.784  11.655   6.665
82133SOL     OW48230  12.654  10.383   9.382
82133SOL    HW148231  12.580  10.444   9.376
82133SOL    HW248232  12.667  10.369   9.476
82134SOL     OW48233   3.474  11.697  12.986
82134SOL    HW148234   3.542  11.641  13.023
82134SOL    HW248235   3.419  11.637  12.935
82135SOL     OW48236   8.079  12.930  10.302
82135SOL    HW148237   8.162  12.976  10.287
82135SOL    HW248238   8.018  12.970  10.241
82136SOL     OW48239  12.175   4.718  11.937
82136SOL    HW148240  12.115   4.721  12.011
82136SOL    HW248241  12.151   4.638  11.890
82137SOL     OW48242   3.435  11.803  12.686
82137SOL    HW148243   3.383  11.762  12.617
82137SOL    HW248244   3.438  11.738  12.756
82138SOL     OW48245   2.278   7.230   2.474
82138SOL    HW148246   2.202   7.231   2.416
82138SOL    HW248247   2.250   7.276   2.553
82139SOL     OW48248  11.086   2.578  10.717
82139SOL    HW148249  11.155   2.520  10.686
82139SOL    HW248250  11.027   2.586  10.642
82140SOL     OW48251   8.079  12.433  14.798
82140SOL    HW148252   8.162  12.464  14.760
82140SOL    HW248253   8.063  12.349  14.755
82141SOL     OW48254   5.667  12.433   7.673
82141SOL    HW148255   5.746  12.459   7.721
82141SOL    HW248256   5.605  12.406   7.742
82142SOL     OW48257   4.829  14.128   8.680
82142SOL    HW148258   4.878  14.176   8.613
82142SOL    HW248259   4.888  14.058   8.707
82143SOL     OW48260   8.336  10.397   0.371
82143SOL    HW148261   8.281  10.427   0.443
82143SOL    HW248262   8.386  10.475   0.345
82144SOL     OW48263   3.161   3.745  13.762
82144SOL    HW148264   3.256   3.739  13.775
82144SOL    HW248265   3.152   3.780  13.674
82145SOL     OW48266   0.268  11.673   1.425
82145SOL    HW148267   0.240  11.734   1.357
82145SOL    HW248268   0.317  11.726   1.487
82146SOL     OW48269   4.159   7.097   8.417
82146SOL    HW148270   4.064   7.105   8.419
82146SOL    HW248271   4.185   7.087   8.508
82147SOL     OW48272  10.155   9.694   1.883
82147SOL    HW148273  10.091   9.735   1.826
82147SOL    HW248274  10.154   9.601   1.859
82148SOL     OW48275  14.664  11.992  14.047
82148SOL    HW148276  14.647  11.944  14.128
82148SOL    HW248277  14.597  12.060  14.045
82149SOL     OW48278   4.459   0.518  10.790
82149SOL    HW148279   4.364   0.527  10.792
82149SOL    HW248280   4.488   0.583  10.726
82150SOL     OW48281   9.064  10.237  12.012
82150SOL    HW148282   9.074  10.165  11.950
82150SOL    HW248283   9.074  10.316  11.959
82151SOL     OW48284   6.616   3.296   0.065
82151SOL    HW148285   6.695   3.339   0.098
82151SOL    HW248286   6.594   3.232   0.133
82152SOL     OW48287  14.398  10.853  10.507
82152SOL    HW148288  14.483  10.896  10.518
82152SOL    HW248289  14.414  10.762  10.533
82153SOL     OW48290  14.276   3.502   7.559
82153SOL    HW148291  14.364   3.480   7.527
82153SOL    HW248292  14.218   3.480   7.486
82154SOL     OW48293  12.403   0.639   8.755
82154SOL    HW148294  12.415   0.563   8.812
82154SOL    HW248295  12.321   0.678   8.783
82155SOL     OW48296   2.334   5.845   1.777
82155SOL    HW148297   2.285   5.799   1.709
82155SOL    HW248298   2.291   5.929   1.786
82156SOL     OW48299   6.248   5.659  12.977
82156SOL    HW148300   6.181   5.727  12.986
82156SOL    HW248301   6.300   5.667  13.058
82157SOL     OW48302   1.216  12.202   7.441
82157SOL    HW148303   1.305  12.193   7.407
82157SOL    HW248304   1.190  12.113   7.463
82158SOL     OW48305   0.346  12.392  14.231
82158SOL    HW148306   0.389  12.338  14.297
82158SOL    HW248307   0.376  12.481  14.249
82159SOL     OW48308   5.285   7.679  10.107
82159SOL    HW148309   5.335   7.599  10.120
82159SOL    HW248310   5.234   7.689  10.188
82160SOL     OW48311   2.165   0.287  10.509
82160SOL    HW148312   2.132   0.228  10.440
82160SOL    HW248313   2.236   0.335  10.467
82161SOL     OW48314  10.194   0.538  14.522
82161SOL    HW148315  10.102   0.521  14.541
82161SOL    HW248316  10.205   0.512  14.430
82162SOL     OW48317  13.181  10.014  12.996
82162SOL    HW148318  13.108  10.012  12.935
82162SOL    HW248319  13.233   9.936  12.974
82163SOL     OW48320   3.889   7.538  12.335
82163SOL    HW148321   3.855   7.584  12.258
82163SOL    HW248322   3.974   7.504  12.305
82164SOL     OW48323   1.094  10.679   8.965
82164SOL    HW148324   1.006  10.669   8.929
82164SOL    HW248325   1.123  10.765   8.936
82165SOL     OW48326   8.879  10.885  10.650
82165SOL    HW148327   8.820  10.862  10.722
82165SOL    HW248328   8.822  10.888  10.573
82166SOL     OW48329   9.259   6.596  11.458
82166SOL    HW148330   9.289   6.611  11.368
82166SOL    HW248331   9.336   6.616  11.512
82167SOL     OW48332   9.023   9.977  12.495
82167SOL    HW148333   9.064  10.049  12.447
82167SOL    HW248334   8.961   9.939  12.432
82168SOL     OW48335   9.963  12.576   7.995
82168SOL    HW148336   9.868  12.578   8.009
82168SOL    HW248337   9.989  12.488   8.022
82169SOL     OW48338  14.789   2.100   5.416
82169SOL    HW148339  14.697   2.120   5.431
82169SOL    HW248340  14.821   2.068   5.500
82170SOL     OW48341   2.231  13.195   4.041
82170SOL    HW148342   2.196  13.199   4.130
82170SOL    HW248343   2.323  13.173   4.052
82171SOL     OW48344   8.780   2.316  11.824
82171SOL    HW148345   8.728   2.393  11.800
82171SOL    HW248346   8.808   2.279  11.741
82172SOL     OW48347   2.111   7.234   3.500
82172SOL    HW148348   2.204   7.242   3.477
82172SOL    HW248349   2.066   7.287   3.434
82173SOL     OW48350   4.169   8.510   0.897
82173SOL    HW148351   4.094   8.565   0.918
82173SOL    HW248352   4.154   8.483   0.806
82174SOL     OW48353   4.209   6.769  14.413
82174SOL    HW148354   4.168   6.696  14.461
82174SOL    HW248355   4.302   6.760  14.431
82175SOL     OW48356   2.696   2.962   6.190
82175SOL    HW148357   2.786   2.955   6.222
82175SOL    HW248358   2.657   3.032   6.242
82176SOL     OW48359  14.472   9.151  13.875
82176SOL    HW148360  14.486   9.161  13.969
82176SOL    HW248361  14.547   9.100  13.845
82177SOL     OW48362  11.532   4.889   4.542
82177SOL    HW148363  11.628   4.885   4.546
82177SOL    HW248364  11.508   4.827   4.474
82178SOL     OW48365  13.206  10.010   4.496
82178SOL    HW148366  13.198  10.044   4.585
82178SOL    HW248367  13.138  10.056   4.446
82179SOL     OW48368   7.765  10.744  10.158
82179SOL    HW148369   7.816  10.821  10.180
82179SOL    HW248370   7.798  10.676  10.217
82180SOL     OW48371   9.972   1.013   0.062
82180SOL    HW148372   9.973   0.979   0.152
82180SOL    HW248373  10.043   0.966   0.018
82181SOL     OW48374   0.182   7.215   1.400
82181SOL    HW148375   0.102   7.240   1.354
82181SOL    HW248376   0.208   7.133   1.358
82182SOL     OW48377   0.455   1.004   5.204
82182SOL    HW148378   0.434   0.993   5.111
82182SOL    HW248379   0.373   0.985   5.249
82183SOL     OW48380  13.297   1.748   9.848
82183SOL    HW148381  13.282   1.819   9.785
82183SOL    HW248382  13.216   1.697   9.847
82184SOL     OW48383   0.343  12.607  14.781
82184SOL    HW148384   0.319  12.662  14.706
82184SOL    HW248385   0.267  12.550  14.793
82185SOL     OW48386  11.090   1.107  10.943
82185SOL    HW148387  11.014   1.163  10.953
82185SOL    HW248388  11.078   1.038  11.009
82186SOL     OW48389   8.216   5.825   9.271
82186SOL    HW148390   8.151   5.799   9.336
82186SOL    HW248391   8.300   5.820   9.318
82187SOL     OW48392  13.073   3.198  10.483
82187SOL    HW148393  13.131   3.187  10.407
82187SOL    HW248394  13.079   3.115  10.530
82188SOL     OW48395   3.369   0.770   1.773
82188SOL    HW148396   3.341   0.778   1.865
82188SOL    HW248397   3.324   0.842   1.728
82189SOL     OW48398  14.831   1.789  14.297
82189SOL    HW148399   0.016   1.724  14.338
82189SOL    HW248400  14.757   1.737  14.264
82190SOL     OW48401   0.019   8.697   6.403
82190SOL    HW148402  14.859   8.780   6.439
82190SOL    HW248403   0.053   8.650   6.479
82191SOL     OW48404   2.134  10.841   4.305
82191SOL    HW148405   2.096  10.833   4.393
82191SOL    HW248406   2.213  10.788   4.309
82192SOL     OW48407  13.689   9.105   2.143
82192SOL    HW148408  13.653   9.080   2.227
82192SOL    HW248409  13.650   9.044   2.080
82193SOL     OW48410   0.191  12.856   2.841
82193SOL    HW148411   0.167  12.935   2.792
82193SOL    HW248412   0.217  12.793   2.774
82194SOL     OW48413   5.220  13.225   9.288
82194SOL    HW148414   5.261  13.148   9.328
82194SOL    HW248415   5.198  13.282   9.362
82195SOL     OW48416   2.490  10.336   3.181
82195SOL    HW148417   2.480  10.426   3.148
82195SOL    HW248418   2.578  10.335   3.219
82196SOL     OW48419   1.994  13.892   2.424
82196SOL    HW148420   2.042  13.834   2.483
82196SOL    HW248421   1.965  13.964   2.480
82197SOL     OW48422  12.068   3.148   3.495
82197SOL    HW148423  12.011   3.191   3.430
82197SOL    HW248424  12.075   3.211   3.566
82198SOL     OW48425   5.896  11.643   5.339
82198SOL    HW148426   5.953  11.717   5.318
82198SOL    HW248427   5.809  11.671   5.311
82199SOL     OW48428  14.405  12.960   5.057
82199SOL    HW148429  14.341  12.892   5.079
82199SOL    HW248430  14.409  12.959   4.961
82200SOL     OW48431  14.664   9.108  12.834
82200SOL    HW148432  14.648   9.015  12.822
82200SOL    HW248433  14.699   9.138  12.750
82201SOL     OW48434   6.686   5.486  11.194
82201SOL    HW148435   6.685   5.444  11.108
82201SOL    HW248436   6.721   5.574  11.177
82202SOL     OW48437   3.210   6.451   3.874
82202SOL    HW148438   3.176   6.475   3.960
82202SOL    HW248439   3.305   6.444   3.888
82203SOL     OW48440   7.332   9.404   8.992
82203SOL    HW148441   7.274   9.359   8.930
82203SOL    HW248442   7.321   9.497   8.971
82204SOL     OW48443   8.896   9.677   3.949
82204SOL    HW148444   8.875   9.591   3.911
82204SOL    HW248445   8.822   9.698   4.004
82205SOL     OW48446  12.077  13.317   4.151
82205SOL    HW148447  12.072  13.412   4.152
82205SOL    HW248448  12.086  13.293   4.244
82206SOL     OW48449   4.999  13.127   7.624
82206SOL    HW148450   5.067  13.120   7.691
82206SOL    HW248451   4.963  13.215   7.636
82207SOL     OW48452  14.041   7.716  10.938
82207SOL    HW148453  14.057   7.658  10.864
82207SOL    HW248454  14.127   7.726  10.979
82208SOL     OW48455   1.399  14.791   2.703
82208SOL    HW148456   1.388   0.012   2.681
82208SOL    HW248457   1.317  14.751   2.676
82209SOL     OW48458   9.118   1.666  14.419
82209SOL    HW148459   9.101   1.729  14.489
82209SOL    HW248460   9.042   1.673  14.361
82210SOL     OW48461   2.984   5.522   7.088
82210SOL    HW148462   2.987   5.589   7.156
82210SOL    HW248463   2.901   5.476   7.102
82211SOL     OW48464   7.858   0.869   5.282
82211SOL    HW148465   7.939   0.920   5.279
82211SOL    HW248466   7.809   0.899   5.205
82212SOL     OW48467   9.583   7.201  12.708
82212SOL    HW148468   9.581   7.245  12.793
82212SOL    HW248469   9.495   7.163  12.699
82213SOL     OW48470   3.502   2.372  13.012
82213SOL    HW148471   3.466   2.461  13.017
82213SOL    HW248472   3.592   2.385  12.983
82214SOL     OW48473   0.838  12.797   5.995
82214SOL    HW148474   0.821  12.740   6.070
82214SOL    HW248475   0.814  12.884   6.026
82215SOL     OW48476  10.280   5.615   7.324
82215SOL    HW148477  10.279   5.528   7.364
82215SOL    HW248478  10.370   5.627   7.293
82216SOL     OW48479   4.002   9.561  14.624
82216SOL    HW148480   4.063   9.587  14.693
82216SOL    HW248481   4.042   9.485  14.583
82217SOL     OW48482  14.289   7.748   9.386
82217SOL    HW148483  14.281   7.820   9.323
82217SOL    HW248484  14.320   7.674   9.334
82218SOL     OW48485  12.494   4.858   6.740
82218SOL    HW148486  12.562   4.866   6.674
82218SOL    HW248487  12.540   4.835   6.821
82219SOL     OW48488  13.547   6.130   3.520
82219SOL    HW148489  13.543   6.072   3.595
82219SOL    HW248490  13.508   6.212   3.551
82220SOL     OW48491   6.185  10.632   0.922
82220SOL    HW148492   6.166  10.697   0.989
82220SOL    HW248493   6.273  10.601   0.942
82221SOL     OW48494  14.524   8.926   1.961
82221SOL    HW148495  14.457   8.956   2.022
82221SOL    HW248496  14.560   8.848   2.004
82222SOL     OW48497  11.773   8.409   5.009
82222SOL    HW148498  11.764   8.324   5.050
82222SOL    HW248499  11.854   8.404   4.958
82223SOL     OW48500   8.606   0.839   7.729
82223SOL    HW148501   8.579   0.867   7.642
82223SOL    HW248502   8.572   0.750   7.738
82224SOL     OW48503   4.111   5.569   1.100
82224SOL    HW148504   4.108   5.560   1.005
82224SOL    HW248505   4.093   5.481   1.133
82225SOL     OW48506   1.324   5.297   8.634
82225SOL    HW148507   1.250   5.349   8.664
82225SOL    HW248508   1.289   5.241   8.564
82226SOL     OW48509  11.438   3.431   1.987
82226SOL    HW148510  11.482   3.484   2.054
82226SOL    HW248511  11.509   3.396   1.934
82227SOL     OW48512   2.664  12.875   0.195
82227SOL    HW148513   2.707  12.837   0.118
82227SOL    HW248514   2.732  12.926   0.238
82228SOL     OW48515  10.654   1.121  14.475
82228SOL    HW148516  10.720   1.121  14.406
82228SOL    HW248517  10.571   1.109  14.429
82229SOL     OW48518   4.266   0.519   5.521
82229SOL    HW148519   4.302   0.587   5.464
82229SOL    HW248520   4.309   0.532   5.606
82230SOL     OW48521   7.364   6.413  14.443
82230SOL    HW148522   7.394   6.496  14.479
82230SOL    HW248523   7.443   6.361  14.433
82231SOL     OW48524   2.900   8.896   1.579
82231SOL    HW148525   2.935   8.835   1.644
82231SOL    HW248526   2.967   8.964   1.570
82232SOL     OW48527  13.673  12.683   4.601
82232SOL    HW148528  13.640  12.642   4.521
82232SOL    HW248529  13.597  12.685   4.659
82233SOL     OW48530  11.304   1.675   1.971
82233SOL    HW148531  11.324   1.593   2.016
82233SOL    HW248532  11.351   1.742   2.020
82234SOL     OW48533   7.212  13.059  11.271
82234SOL    HW148534   7.162  13.109  11.336
82234SOL    HW248535   7.246  13.125  11.211
82235SOL     OW48536   8.049  13.410   3.783
82235SOL    HW148537   8.049  13.331   3.729
82235SOL    HW248538   7.962  13.448   3.770
82236SOL     OW48539  11.474  12.958   6.660
82236SOL    HW148540  11.400  12.987   6.713
82236SOL    HW248541  11.543  12.940   6.724
82237SOL     OW48542   2.038   1.516   8.172
82237SOL    HW148543   1.994   1.434   8.192
82237SOL    HW248544   2.129   1.502   8.195
82238SOL     OW48545   8.109   7.768   4.084
82238SOL    HW148546   8.125   7.739   4.174
82238SOL    HW248547   8.023   7.731   4.063
82239SOL     OW48548   1.175   4.216  14.380
82239SOL    HW148549   1.206   4.289  14.325
82239SOL    HW248550   1.125   4.161  14.320
82240SOL     OW48551   9.287   4.444  10.364
82240SOL    HW148552   9.306   4.537  10.375
82240SOL    HW248553   9.244   4.438  10.279
82241SOL     OW48554  10.204   0.171   4.845
82241SOL    HW148555  10.121   0.208   4.813
82241SOL    HW248556  10.226   0.104   4.780
82242SOL     OW48557   7.706   9.304  10.681
82242SOL    HW148558   7.620   9.336  10.653
82242SOL    HW248559   7.691   9.271  10.770
82243SOL     OW48560  11.207   0.952  10.757
82243SOL    HW148561  11.281   0.926  10.813
82243SOL    HW248562  11.167   1.026  10.803
82244SOL     OW48563   6.892   3.234   8.713
82244SOL    HW148564   6.950   3.158   8.706
82244SOL    HW248565   6.804   3.197   8.714
82245SOL     OW48566   5.250   0.691   7.896
82245SOL    HW148567   5.317   0.743   7.851
82245SOL    HW248568   5.240   0.613   7.842
82246SOL     OW48569  11.056   8.984   8.874
82246SOL    HW148570  11.089   9.035   8.800
82246SOL    HW248571  11.011   8.909   8.834
82247SOL     OW48572   8.488  13.443  10.328
82247SOL    HW148573   8.401  13.427  10.363
82247SOL    HW248574   8.533  13.359  10.335
82248SOL     OW48575   7.334  11.762   3.608
82248SOL    HW148576   7.324  11.698   3.537
82248SOL    HW248577   7.401  11.822   3.576
82249SOL     OW48578  11.238  14.576   1.385
82249SOL    HW148579  11.314  14.635   1.382
82249SOL    HW248580  11.275  14.488   1.382
82250SOL     OW48581   9.662  12.049   6.896
82250SOL    HW148582   9.579  12.010   6.921
82250SOL    HW248583   9.647  12.086   6.809
82251SOL     OW48584   3.320  12.088  12.779
82251SOL    HW148585   3.333  11.993  12.779
82251SOL    HW248586   3.227  12.100  12.798
82252SOL     OW48587   0.846  14.757  10.087
82252SOL    HW148588   0.919  14.817  10.074
82252SOL    HW248589   0.814  14.737   9.999
82253SOL     OW48590  12.667   9.642   9.718
82253SOL    HW148591  12.644   9.559   9.761
82253SOL    HW248592  12.746   9.671   9.764
82254SOL     OW48593   1.897   6.753  11.671
82254SOL    HW148594   1.903   6.748  11.575
82254SOL    HW248595   1.851   6.673  11.696
82255SOL     OW48596   5.224   4.076  10.162
82255SOL    HW148597   5.285   4.149  10.167
82255SOL    HW248598   5.276   4.003  10.128
82256SOL     OW48599   1.617  14.528   4.338
82256SOL    HW148600   1.683  14.595   4.323
82256SOL    HW248601   1.565  14.526   4.258
82257SOL     OW48602   0.787   1.634   8.956
82257SOL    HW148603   0.772   1.728   8.949
82257SOL    HW248604   0.759   1.612   9.045
82258SOL     OW48605   2.971   7.184   6.735
82258SOL    HW148606   3.053   7.158   6.692
82258SOL    HW248607   2.918   7.222   6.665
82259SOL     OW48608   4.544  10.113   2.057
82259SOL    HW148609   4.503  10.190   2.097
82259SOL    HW248610   4.508  10.039   2.106
82260SOL     OW48611   0.153  11.333   1.174
82260SOL    HW148612   0.217  11.368   1.236
82260SOL    HW248613   0.204  11.280   1.114
82261SOL     OW48614   9.482   7.814  10.889
82261SOL    HW148615   9.501   7.893  10.939
82261SOL    HW248616   9.512   7.833  10.801
82262SOL     OW48617   3.046   2.380   0.073
82262SOL    HW148618   3.113   2.447   0.062
82262SOL    HW248619   3.094   2.302   0.101
82263SOL     OW48620   7.212  12.063   6.720
82263SOL    HW148621   7.307  12.060   6.715
82263SOL    HW248622   7.187  11.982   6.764
82264SOL     OW48623   1.749   4.971   4.766
82264SOL    HW148624   1.807   4.964   4.842
82264SOL    HW248625   1.694   5.047   4.785
82265SOL     OW48626   6.243   8.601   0.993
82265SOL    HW148627   6.248   8.614   0.898
82265SOL    HW248628   6.290   8.676   1.030
82266SOL     OW48629   0.734   0.266   5.926
82266SOL    HW148630   0.695   0.321   5.994
82266SOL    HW248631   0.659   0.223   5.884
82267SOL     OW48632   0.175   7.025   7.882
82267SOL    HW148633   0.230   7.100   7.903
82267SOL    HW248634   0.177   6.971   7.961
82268SOL     OW48635  11.984   6.292  13.941
82268SOL    HW148636  11.892   6.272  13.921
82268SOL    HW248637  12.033   6.254  13.869
82269SOL     OW48638   9.800  12.342   9.078
82269SOL    HW148639   9.871  12.381   9.128
82269SOL    HW248640   9.774  12.410   9.016
82270SOL     OW48641   6.371   6.231  10.091
82270SOL    HW148642   6.317   6.153  10.074
82270SOL    HW248643   6.388   6.267  10.004
82271SOL     OW48644  13.635   8.750   5.159
82271SOL    HW148645  13.713   8.700   5.135
82271SOL    HW248646  13.578   8.742   5.082
82272SOL     OW48647   5.843   4.751   6.753
82272SOL    HW148648   5.852   4.751   6.658
82272SOL    HW248649   5.770   4.811   6.771
82273SOL     OW48650  10.816  11.255   4.812
82273SOL    HW148651  10.798  11.257   4.906
82273SOL    HW248652  10.867  11.334   4.796
82274SOL     OW48653   7.535   2.018   0.735
82274SOL    HW148654   7.497   2.089   0.787
82274SOL    HW248655   7.627   2.016   0.759
82275SOL     OW48656  11.120  14.376   7.927
82275SOL    HW148657  11.073  14.433   7.988
82275SOL    HW248658  11.072  14.385   7.845
82276SOL     OW48659  11.599  13.053   9.964
82276SOL    HW148660  11.546  12.985   9.923
82276SOL    HW248661  11.595  13.033  10.058
82277SOL     OW48662   2.033   9.103   1.396
82277SOL    HW148663   1.940   9.106   1.377
82277SOL    HW248664   2.062   9.194   1.390
82278SOL     OW48665   3.853   7.677   4.258
82278SOL    HW148666   3.793   7.608   4.230
82278SOL    HW248667   3.809   7.758   4.234
82279SOL     OW48668   6.488  10.459   5.720
82279SOL    HW148669   6.526  10.372   5.727
82279SOL    HW248670   6.451  10.476   5.807
82280SOL     OW48671  12.691   7.055  14.652
82280SOL    HW148672  12.646   7.030  14.572
82280SOL    HW248673  12.707   6.972  14.698
82281SOL     OW48674   1.616   7.070   8.370
82281SOL    HW148675   1.681   7.004   8.344
82281SOL    HW248676   1.657   7.154   8.348
82282SOL     OW48677   4.261   7.669   4.416
82282SOL    HW148678   4.201   7.668   4.341
82282SOL    HW248679   4.211   7.710   4.487
82283SOL     OW48680   8.518   0.853   3.391
82283SOL    HW148681   8.450   0.918   3.374
82283SOL    HW248682   8.587   0.902   3.435
82284SOL     OW48683   1.681   2.646  12.702
82284SOL    HW148684   1.647   2.651  12.613
82284SOL    HW248685   1.767   2.606  12.693
82285SOL     OW48686   0.176   3.917   7.606
82285SOL    HW148687   0.134   3.865   7.674
82285SOL    HW248688   0.268   3.922   7.634
82286SOL     OW48689   2.675  14.294  12.001
82286SOL    HW148690   2.707  14.382  11.981
82286SOL    HW248691   2.589  14.291  11.958
82287SOL     OW48692  12.392   1.442   4.600
82287SOL    HW148693  12.468   1.417   4.653
82287SOL    HW248694  12.409   1.403   4.514
82288SOL     OW48695   5.727  13.778   4.996
82288SOL    HW148696   5.746  13.699   5.048
82288SOL    HW248697   5.761  13.850   5.049
82289SOL     OW48698  11.782   9.421   3.015
82289SOL    HW148699  11.739   9.429   2.930
82289SOL    HW248700  11.876   9.413   2.994
82290SOL     OW48701  14.485   8.724  11.542
82290SOL    HW148702  14.545   8.792  11.573
82290SOL    HW248703  14.400   8.768  11.539
82291SOL     OW48704   5.100  13.640  10.237
82291SOL    HW148705   5.060  13.556  10.214
82291SOL    HW248706   5.076  13.699  10.165
82292SOL     OW48707  12.193   7.680   9.941
82292SOL    HW148708  12.187   7.588   9.965
82292SOL    HW248709  12.157   7.684   9.853
82293SOL     OW48710   7.332  12.717   2.692
82293SOL    HW148711   7.385  12.643   2.664
82293SOL    HW248712   7.288  12.746   2.612
82294SOL     OW48713   6.448   6.989   9.279
82294SOL    HW148714   6.390   6.934   9.332
82294SOL    HW248715   6.504   7.033   9.342
82295SOL     OW48716   5.329   3.671   4.306
82295SOL    HW148717   5.244   3.639   4.336
82295SOL    HW248718   5.317   3.684   4.212
82296SOL     OW48719   7.272   8.113  11.783
82296SOL    HW148720   7.356   8.099  11.740
82296SOL    HW248721   7.222   8.033  11.764
82297SOL     OW48722   0.402   1.711  14.806
82297SOL    HW148723   0.306   1.701  14.809
82297SOL    HW248724   0.426   1.736   0.023
82298SOL     OW48725   6.363   7.595   3.327
82298SOL    HW148726   6.280   7.608   3.282
82298SOL    HW248727   6.339   7.554   3.410
82299SOL     OW48728  11.866   6.585   0.555
82299SOL    HW148729  11.893   6.595   0.647
82299SOL    HW248730  11.909   6.504   0.527
82300SOL     OW48731   7.200  13.947   4.797
82300SOL    HW148732   7.251  13.978   4.872
82300SOL    HW248733   7.265  13.920   4.733
82301SOL     OW48734  13.747   7.352   0.460
82301SOL    HW148735  13.771   7.261   0.480
82301SOL    HW248736  13.725   7.390   0.545
82302SOL     OW48737   4.048  13.644   9.331
82302SOL    HW148738   4.073  13.696   9.408
82302SOL    HW248739   4.040  13.555   9.363
82303SOL     OW48740   0.796   5.592  10.611
82303SOL    HW148741   0.785   5.665  10.551
82303SOL    HW248742   0.795   5.632  10.698
82304SOL     OW48743   7.520   2.725   6.824
82304SOL    HW148744   7.603   2.756   6.788
82304SOL    HW248745   7.539   2.636   6.853
82305SOL     OW48746  11.962   7.384   0.871
82305SOL    HW148747  11.935   7.319   0.806
82305SOL    HW248748  11.880   7.421   0.903
82306SOL     OW48749  12.626   2.136  13.174
82306SOL    HW148750  12.597   2.122  13.084
82306SOL    HW248751  12.705   2.082  13.183
82307SOL     OW48752   6.633  14.493   9.517
82307SOL    HW148753   6.717  14.453   9.537
82307SOL    HW248754   6.604  14.449   9.437
82308SOL     OW48755  13.268   0.813   8.659
82308SOL    HW148756  13.181   0.786   8.628
82308SOL    HW248757  13.290   0.750   8.727
82309SOL     OW48758   2.799   0.028   0.460
82309SOL    HW148759   2.706   0.047   0.472
82309SOL    HW248760   2.806   0.005   0.367
82310SOL     OW48761   9.426   6.443   8.668
82310SOL    HW148762   9.437   6.480   8.581
82310SOL    HW248763   9.513   6.450   8.708
82311SOL     OW48764   2.736   5.561  11.410
82311SOL    HW148765   2.686   5.600  11.339
82311SOL    HW248766   2.777   5.484  11.371
82312SOL     OW48767   8.384   7.592  10.214
82312SOL    HW148768   8.431   7.674  10.231
82312SOL    HW248769   8.416   7.563  10.128
82313SOL     OW48770   7.353   6.941  13.039
82313SOL    HW148771   7.433   6.903  13.075
82313SOL    HW248772   7.301   6.865  13.011
82314SOL     OW48773  14.797   6.509   3.035
82314SOL    HW148774  14.856   6.518   2.961
82314SOL    HW248775  14.847   6.459   3.100
82315SOL     OW48776   5.733   2.650  12.260
82315SOL    HW148777   5.650   2.693  12.238
82315SOL    HW248778   5.756   2.687  12.346
82316SOL     OW48779  14.413   8.486  11.125
82316SOL    HW148780  14.371   8.402  11.106
82316SOL    HW248781  14.414   8.490  11.221
82317SOL     OW48782   1.452  13.792   4.974
82317SOL    HW148783   1.398  13.800   5.052
82317SOL    HW248784   1.430  13.868   4.921
82318SOL     OW48785   7.928   9.803   6.977
82318SOL    HW148786   7.867   9.871   7.005
82318SOL    HW248787   7.926   9.806   6.881
82319SOL     OW48788   4.168  10.586   4.020
82319SOL    HW148789   4.177  10.609   3.928
82319SOL    HW248790   4.168  10.490   4.021
82320SOL     OW48791   7.043   9.008   7.428
82320SOL    HW148792   7.038   9.032   7.335
82320SOL    HW248793   6.964   9.047   7.467
82321SOL     OW48794   4.137   9.178  13.826
82321SOL    HW148795   4.099   9.169  13.739
82321SOL    HW248796   4.091   9.113  13.879
82322SOL     OW48797   9.410   1.334   1.280
82322SOL    HW148798   9.407   1.360   1.188
82322SOL    HW248799   9.504   1.327   1.300
82323SOL     OW48800   4.899   4.799   9.419
82323SOL    HW148801   4.885   4.724   9.476
82323SOL    HW248802   4.873   4.875   9.471
82324SOL     OW48803  11.954  13.861   4.823
82324SOL    HW148804  12.017  13.794   4.848
82324SOL    HW248805  11.970  13.933   4.884
82325SOL     OW48806   3.079   7.843   2.504
82325SOL    HW148807   3.086   7.936   2.482
82325SOL    HW248808   3.033   7.804   2.429
82326SOL     OW48809   5.468  13.920  10.714
82326SOL    HW148810   5.457  13.833  10.754
82326SOL    HW248811   5.562  13.935  10.715
82327SOL     OW48812   0.838   4.436   3.381
82327SOL    HW148813   0.865   4.461   3.470
82327SOL    HW248814   0.909   4.466   3.325
82328SOL     OW48815  14.514   6.557  14.146
82328SOL    HW148816  14.510   6.491  14.077
82328SOL    HW248817  14.425   6.563  14.179
82329SOL     OW48818   1.209   5.644   6.693
82329SOL    HW148819   1.131   5.683   6.653
82329SOL    HW248820   1.198   5.659   6.786
82330SOL     OW48821   2.112  13.830  13.883
82330SOL    HW148822   2.088  13.887  13.956
82330SOL    HW248823   2.030  13.817  13.835
82331SOL     OW48824   1.323  13.202  11.661
82331SOL    HW148825   1.373  13.188  11.741
82331SOL    HW248826   1.328  13.118  11.615
82332SOL     OW48827  14.342   9.875  13.996
82332SOL    HW148828  14.348   9.842  13.907
82332SOL    HW248829  14.263   9.834  14.031
82333SOL     OW48830   9.374  12.306   4.608
82333SOL    HW148831   9.443  12.241   4.592
82333SOL    HW248832   9.306  12.284   4.545
82334SOL     OW48833   0.973  11.643  10.232
82334SOL    HW148834   0.894  11.591  10.220
82334SOL    HW248835   0.949  11.706  10.301
82335SOL     OW48836   9.711  13.769  13.218
82335SOL    HW148837   9.622  13.738  13.233
82335SOL    HW248838   9.720  13.775  13.123
82336SOL     OW48839   2.729   3.765   3.243
82336SOL    HW148840   2.780   3.685   3.254
82336SOL    HW248841   2.734   3.808   3.328
82337SOL     OW48842   8.268   8.519   3.001
82337SOL    HW148843   8.341   8.460   3.018
82337SOL    HW248844   8.221   8.523   3.084
82338SOL     OW48845  10.121  12.019   2.500
82338SOL    HW148846  10.130  11.942   2.556
82338SOL    HW248847  10.201  12.068   2.513
82339SOL     OW48848   1.242  14.009   5.951
82339SOL    HW148849   1.313  14.049   6.002
82339SOL    HW248850   1.257  14.039   5.861
82340SOL     OW48851  12.531  10.485   4.148
82340SOL    HW148852  12.519  10.557   4.211
82340SOL    HW248853  12.469  10.504   4.078
82341SOL     OW48854   0.543   8.341  10.077
82341SOL    HW148855   0.477   8.405  10.051
82341SOL    HW248856   0.626   8.390  10.073
82342SOL     OW48857  12.395  13.599   8.498
82342SOL    HW148858  12.378  13.676   8.552
82342SOL    HW248859  12.318  13.591   8.442
82343SOL     OW48860  11.245  10.385   7.067
82343SOL    HW148861  11.198  10.310   7.103
82343SOL    HW248862  11.221  10.386   6.974
82344SOL     OW48863   8.937  10.813   0.191
82344SOL    HW148864   8.990  10.750   0.142
82344SOL    HW248865   8.948  10.895   0.144
82345SOL     OW48866  14.707  12.419  11.587
82345SOL    HW148867  14.626  12.467  11.601
82345SOL    HW248868  14.699  12.341  11.642
82346SOL     OW48869   8.087   6.781   6.010
82346SOL    HW148870   8.049   6.860   5.972
82346SOL    HW248871   8.060   6.784   6.102
82347SOL     OW48872  14.547  12.505  10.972
82347SOL    HW148873  14.489  12.517  11.047
82347SOL    HW248874  14.634  12.498  11.010
82348SOL     OW48875  11.971  14.366  12.131
82348SOL    HW148876  11.901  14.432  12.132
82348SOL    HW248877  12.013  14.374  12.217
82349SOL     OW48878  11.886   4.261   9.769
82349SOL    HW148879  11.949   4.209   9.719
82349SOL    HW248880  11.920   4.261   9.858
82350SOL     OW48881   8.779   2.795   2.708
82350SOL    HW148882   8.779   2.700   2.696
82350SOL    HW248883   8.701   2.813   2.761
82351SOL     OW48884   5.374   0.772   7.154
82351SOL    HW148885   5.410   0.702   7.100
82351SOL    HW248886   5.413   0.852   7.120
82352SOL     OW48887   2.563   8.158  10.438
82352SOL    HW148888   2.626   8.137  10.369
82352SOL    HW248889   2.614   8.156  10.519
82353SOL     OW48890   9.286   0.374  13.669
82353SOL    HW148891   9.336   0.293  13.656
82353SOL    HW248892   9.224   0.376  13.595
82354SOL     OW48893  13.397   0.533  11.467
82354SOL    HW148894  13.378   0.463  11.405
82354SOL    HW248895  13.338   0.604  11.441
82355SOL     OW48896   4.736   9.002   5.857
82355SOL    HW148897   4.717   9.096   5.854
82355SOL    HW248898   4.665   8.961   5.807
82356SOL     OW48899  13.334   6.660   6.824
82356SOL    HW148900  13.281   6.740   6.816
82356SOL    HW248901  13.321   6.615   6.740
82357SOL     OW48902  13.300  14.498  13.879
82357SOL    HW148903  13.267  14.519  13.966
82357SOL    HW248904  13.359  14.423  13.892
82358SOL     OW48905  10.642  10.122   7.185
82358SOL    HW148906  10.708  10.109   7.117
82358SOL    HW248907  10.558  10.116   7.139
82359SOL     OW48908  10.979   4.844   7.228
82359SOL    HW148909  10.983   4.766   7.282
82359SOL    HW248910  10.894   4.883   7.248
82360SOL     OW48911   8.104   8.487   0.012
82360SOL    HW148912   8.134   8.396   0.005
82360SOL    HW248913   8.112   8.521  14.795
82361SOL     OW48914   2.013   8.204   7.593
82361SOL    HW148915   2.038   8.284   7.639
82361SOL    HW248916   1.917   8.208   7.588
82362SOL     OW48917  12.973  10.329   7.899
82362SOL    HW148918  12.993  10.238   7.922
82362SOL    HW248919  12.997  10.378   7.978
82363SOL     OW48920   4.769   6.668   5.951
82363SOL    HW148921   4.732   6.698   5.868
82363SOL    HW248922   4.863   6.687   5.944
82364SOL     OW48923   9.166   6.707  10.088
82364SOL    HW148924   9.072   6.708  10.070
82364SOL    HW248925   9.202   6.772  10.028
82365SOL     OW48926   1.200   4.665  13.914
82365SOL    HW148927   1.212   4.592  13.853
82365SOL    HW248928   1.165   4.736  13.861
82366SOL     OW48929   8.588   7.973  11.390
82366SOL    HW148930   8.571   8.015  11.474
82366SOL    HW248931   8.611   7.883  11.413
82367SOL     OW48932   4.512  13.328  10.016
82367SOL    HW148933   4.437  13.273   9.994
82367SOL    HW248934   4.548  13.289  10.095
82368SOL     OW48935  14.217  12.814  10.491
82368SOL    HW148936  14.183  12.725  10.504
82368SOL    HW248937  14.159  12.869  10.544
82369SOL     OW48938   9.809  14.704  14.076
82369SOL    HW148939   9.879  14.768  14.087
82369SOL    HW248940   9.731  14.747  14.111
82370SOL     OW48941  10.638   5.024   3.902
82370SOL    HW148942  10.702   5.077   3.854
82370SOL    HW248943  10.578   4.992   3.834
82371SOL     OW48944   3.663  11.899   2.260
82371SOL    HW148945   3.742  11.941   2.227
82371SOL    HW248946   3.693  11.817   2.299
82372SOL     OW48947   0.347   1.077  13.362
82372SOL    HW148948   0.410   1.019  13.404
82372SOL    HW248949   0.400   1.145  13.321
82373SOL     OW48950   8.018   5.229   1.288
82373SOL    HW148951   8.024   5.178   1.369
82373SOL    HW248952   8.101   5.213   1.244
82374SOL     OW48953  10.048   8.966   1.566
82374SOL    HW148954  10.080   8.927   1.647
82374SOL    HW248955  10.112   8.940   1.499
82375SOL     OW48956  12.108   8.700   0.971
82375SOL    HW148957  12.115   8.714   1.065
82375SOL    HW248958  12.093   8.788   0.935
82376SOL     OW48959   3.208   0.799  11.433
82376SOL    HW148960   3.229   0.868  11.495
82376SOL    HW248961   3.268   0.813  11.360
82377SOL     OW48962   4.969   0.176   1.156
82377SOL    HW148963   4.881   0.141   1.145
82377SOL    HW248964   4.993   0.156   1.246
82378SOL     OW48965   3.768   4.115   1.636
82378SOL    HW148966   3.700   4.183   1.630
82378SOL    HW248967   3.724   4.041   1.679
82379SOL     OW48968  12.913  14.123   9.131
82379SOL    HW148969  12.859  14.062   9.182
82379SOL    HW248970  12.850  14.173   9.079
82380SOL     OW48971  11.919  14.471  14.212
82380SOL    HW148972  12.007  14.492  14.244
82380SOL    HW248973  11.897  14.542  14.152
82381SOL     OW48974  14.796   3.824   8.712
82381SOL    HW148975  14.827   3.913   8.694
82381SOL    HW248976  14.725   3.835   8.776
82382SOL     OW48977   2.482  12.746   4.616
82382SOL    HW148978   2.541  12.791   4.555
82382SOL    HW248979   2.537  12.681   4.660
82383SOL     OW48980   8.828   8.396   4.197
82383SOL    HW148981   8.778   8.447   4.261
82383SOL    HW248982   8.770   8.388   4.122
82384SOL     OW48983   0.965   3.539   7.746
82384SOL    HW148984   1.024   3.606   7.712
82384SOL    HW248985   0.906   3.520   7.674
82385SOL     OW48986   5.611   9.467   2.688
82385SOL    HW148987   5.676   9.407   2.651
82385SOL    HW248988   5.621   9.547   2.637
82386SOL     OW48989  10.884   4.615   3.926
82386SOL    HW148990  10.885   4.603   3.831
82386SOL    HW248991  10.806   4.568   3.956
82387SOL     OW48992   0.925  11.798  11.431
82387SOL    HW148993   0.882  11.737  11.492
82387SOL    HW248994   0.896  11.885  11.459
82388SOL     OW48995  14.093   7.726   2.282
82388SOL    HW148996  14.166   7.739   2.342
82388SOL    HW248997  14.123   7.658   2.222
82389SOL     OW48998  14.075  14.241   2.698
82389SOL    HW148999  14.103  14.209   2.612
82389SOL    HW249000  14.014  14.174   2.729
82390SOL     OW49001  11.775   5.474   8.338
82390SOL    HW149002  11.800   5.497   8.249
82390SOL    HW249003  11.817   5.541   8.392
82391SOL     OW49004   8.599   7.185   0.967
82391SOL    HW149005   8.516   7.211   0.926
82391SOL    HW249006   8.624   7.261   1.019
82392SOL     OW49007   0.133   2.632   9.863
82392SOL    HW149008   0.220   2.629   9.824
82392SOL    HW249009   0.073   2.639   9.788
82393SOL     OW49010  12.856   4.917   5.704
82393SOL    HW149011  12.883   5.006   5.729
82393SOL    HW249012  12.902   4.861   5.767
82394SOL     OW49013   2.336   8.656   2.652
82394SOL    HW149014   2.402   8.592   2.682
82394SOL    HW249015   2.319   8.709   2.730
82395SOL     OW49016  13.243  11.414   3.347
82395SOL    HW149017  13.261  11.361   3.269
82395SOL    HW249018  13.151  11.438   3.338
82396SOL     OW49019  10.538   4.114   4.150
82396SOL    HW149020  10.549   4.170   4.226
82396SOL    HW249021  10.541   4.025   4.185
82397SOL     OW49022  11.246  14.240  10.245
82397SOL    HW149023  11.230  14.158  10.292
82397SOL    HW249024  11.205  14.307  10.300
82398SOL     OW49025  14.464  10.709   5.718
82398SOL    HW149026  14.504  10.623   5.730
82398SOL    HW249027  14.370  10.692   5.719
82399SOL     OW49028   0.349   8.629   3.714
82399SOL    HW149029   0.318   8.642   3.625
82399SOL    HW249030   0.359   8.534   3.722
82400SOL     OW49031   3.005   9.618  11.535
82400SOL    HW149032   3.100   9.621  11.524
82400SOL    HW249033   2.991   9.631  11.629
82401SOL     OW49034   8.572   3.781  14.563
82401SOL    HW149035   8.519   3.825  14.629
82401SOL    HW249036   8.661   3.810  14.580
82402SOL     OW49037   9.467   9.273  11.244
82402SOL    HW149038   9.386   9.228  11.223
82402SOL    HW249039   9.516   9.274  11.162
82403SOL     OW49040   1.066  13.363  14.701
82403SOL    HW149041   1.065  13.395  14.792
82403SOL    HW249042   1.117  13.429  14.654
82404SOL     OW49043   2.748   4.981  13.029
82404SOL    HW149044   2.689   4.908  13.049
82404SOL    HW249045   2.727   5.048  13.093
82405SOL     OW49046  12.017  11.192   9.896
82405SOL    HW149047  11.965  11.123   9.937
82405SOL    HW249048  11.966  11.272   9.912
82406SOL     OW49049   1.035   0.810  10.820
82406SOL    HW149050   1.071   0.721  10.824
82406SOL    HW249051   1.083   0.858  10.887
82407SOL     OW49052   7.530  12.344   1.284
82407SOL    HW149053   7.441  12.327   1.314
82407SOL    HW249054   7.571  12.394   1.354
82408SOL     OW49055   1.383  10.132   6.113
82408SOL    HW149056   1.425  10.059   6.067
82408SOL    HW249057   1.369  10.099   6.202
82409SOL     OW49058  11.740   5.984   8.779
82409SOL    HW149059  11.687   5.964   8.702
82409SOL    HW249060  11.764   5.899   8.816
82410SOL     OW49061  11.644  13.591  11.430
82410SOL    HW149062  11.647  13.671  11.481
82410SOL    HW249063  11.721  13.542  11.459
82411SOL     OW49064  13.897   4.780   8.079
82411SOL    HW149065  13.805   4.752   8.076
82411SOL    HW249066  13.947   4.702   8.054
82412SOL     OW49067   5.819  13.194  14.185
82412SOL    HW149068   5.825  13.272  14.131
82412SOL    HW249069   5.755  13.216  14.253
82413SOL     OW49070   0.306   5.048   3.866
82413SOL    HW149071   0.390   5.062   3.822
82413SOL    HW249072   0.322   4.975   3.927
82414SOL     OW49073  12.547   9.917  11.717
82414SOL    HW149074  12.633   9.883  11.741
82414SOL    HW249075  12.491   9.897  11.792
82415SOL     OW49076   4.928   4.213   4.771
82415SOL    HW149077   4.978   4.239   4.848
82415SOL    HW249078   4.864   4.149   4.805
82416SOL     OW49079  12.337   5.412  11.404
82416SOL    HW149080  12.424   5.394  11.369
82416SOL    HW249081  12.300   5.477  11.344
82417SOL     OW49082   0.460   3.672  10.540
82417SOL    HW149083   0.515   3.738  10.582
82417SOL    HW249084   0.372   3.710  10.541
82418SOL     OW49085   1.376   1.452   3.049
82418SOL    HW149086   1.304   1.486   3.103
82418SOL    HW249087   1.454   1.497   3.083
82419SOL     OW49088  14.377  11.502   5.444
82419SOL    HW149089  14.408  11.591   5.426
82419SOL    HW249090  14.440  11.467   5.507
82420SOL     OW49091   7.746  12.590   1.375
82420SOL    HW149092   7.809  12.656   1.404
82420SOL    HW249093   7.761  12.516   1.434
82421SOL     OW49094   8.423  13.718   5.078
82421SOL    HW149095   8.365  13.675   5.140
82421SOL    HW249096   8.406  13.811   5.089
82422SOL     OW49097   5.759   5.054  12.543
82422SOL    HW149098   5.779   5.053  12.449
82422SOL    HW249099   5.696   5.125  12.553
82423SOL     OW49100   6.300   0.097   2.125
82423SOL    HW149101   6.239   0.023   2.123
82423SOL    HW249102   6.292   0.130   2.215
82424SOL     OW49103  14.187   5.160   0.983
82424SOL    HW149104  14.152   5.225   1.044
82424SOL    HW249105  14.185   5.078   1.032
82425SOL     OW49106   6.139  10.900  14.806
82425SOL    HW149107   6.084  10.958  14.753
82425SOL    HW249108   6.217  10.952  14.825
82426SOL     OW49109   8.732   8.009   1.492
82426SOL    HW149110   8.671   8.079   1.515
82426SOL    HW249111   8.795   8.006   1.564
82427SOL     OW49112   8.291  12.133  13.487
82427SOL    HW149113   8.361  12.168  13.432
82427SOL    HW249114   8.329  12.056  13.528
82428SOL     OW49115  10.744  14.814   0.036
82428SOL    HW149116  10.743  14.738  14.850
82428SOL    HW249117  10.653  14.825   0.063
82429SOL     OW49118   3.914   4.708   3.483
82429SOL    HW149119   3.891   4.615   3.476
82429SOL    HW249120   3.834   4.750   3.515
82430SOL     OW49121   0.093   8.901   3.220
82430SOL    HW149122   0.142   8.878   3.141
82430SOL    HW249123   0.151   8.874   3.292
82431SOL     OW49124   6.285   3.506   4.311
82431SOL    HW149125   6.364   3.454   4.327
82431SOL    HW249126   6.224   3.444   4.269
82432SOL     OW49127   7.031   0.496   4.545
82432SOL    HW149128   6.938   0.474   4.547
82432SOL    HW249129   7.065   0.464   4.628
82433SOL     OW49130   1.600  11.504   1.291
82433SOL    HW149131   1.630  11.538   1.207
82433SOL    HW249132   1.677  11.461   1.328
82434SOL     OW49133  13.677  10.921   6.754
82434SOL    HW149134  13.750  10.982   6.767
82434SOL    HW249135  13.606  10.975   6.720
82435SOL     OW49136   8.238   8.320   4.536
82435SOL    HW149137   8.252   8.232   4.572
82435SOL    HW249138   8.311   8.372   4.571
82436SOL     OW49139   4.268   7.367   4.535
82436SOL    HW149140   4.274   7.407   4.448
82436SOL    HW249141   4.180   7.390   4.565
82437SOL     OW49142   2.549  10.615   6.007
82437SOL    HW149143   2.561  10.542   6.068
82437SOL    HW249144   2.532  10.574   5.922
82438SOL     OW49145   2.692   1.552   2.576
82438SOL    HW149146   2.622   1.611   2.601
82438SOL    HW249147   2.743   1.600   2.510
82439SOL     OW49148   0.602   0.114   4.159
82439SOL    HW149149   0.542   0.169   4.210
82439SOL    HW249150   0.688   0.153   4.173
82440SOL     OW49151  12.754   1.648  10.774
82440SOL    HW149152  12.711   1.731  10.794
82440SOL    HW249153  12.817   1.636  10.845
82441SOL     OW49154  11.621   5.025   1.597
82441SOL    HW149155  11.614   4.954   1.660
82441SOL    HW249156  11.552   5.086   1.621
82442SOL     OW49157   5.367  12.660   5.046
82442SOL    HW149158   5.348  12.595   4.978
82442SOL    HW249159   5.428  12.616   5.105
82443SOL     OW49160   7.668   8.391   0.803
82443SOL    HW149161   7.633   8.302   0.809
82443SOL    HW249162   7.754   8.386   0.844
82444SOL     OW49163  14.112   2.470  12.123
82444SOL    HW149164  14.068   2.554  12.138
82444SOL    HW249165  14.059   2.406  12.170
82445SOL     OW49166  14.259   8.566   0.961
82445SOL    HW149167  14.223   8.478   0.969
82445SOL    HW249168  14.325   8.558   0.892
82446SOL     OW49169  13.474   7.247   0.616
82446SOL    HW149170  13.553   7.194   0.623
82446SOL    HW249171  13.433   7.240   0.702
82447SOL     OW49172   8.210   7.617   1.597
82447SOL    HW149173   8.253   7.648   1.677
82447SOL    HW249174   8.281   7.582   1.543
82448SOL     OW49175  13.150  10.845  14.766
82448SOL    HW149176  13.095  10.781  14.810
82448SOL    HW249177  13.133  10.832  14.673
82449SOL     OW49178   2.991   5.910   7.389
82449SOL    HW149179   2.950   5.961   7.458
82449SOL    HW249180   2.955   5.946   7.308
82450SOL     OW49181   6.326  11.273   8.727
82450SOL    HW149182   6.332  11.249   8.635
82450SOL    HW249183   6.241  11.316   8.735
82451SOL     OW49184   8.065  12.784   5.457
82451SOL    HW149185   8.027  12.699   5.434
82451SOL    HW249186   7.992  12.833   5.496
82452SOL     OW49187   1.642   8.065   4.404
82452SOL    HW149188   1.634   8.130   4.474
82452SOL    HW249189   1.719   8.093   4.354
82453SOL     OW49190   5.009   2.847  14.040
82453SOL    HW149191   5.026   2.775  14.101
82453SOL    HW249192   4.919   2.833  14.012
82454SOL     OW49193  10.929   9.707  12.632
82454SOL    HW149194  10.959   9.622  12.664
82454SOL    HW249195  10.963   9.770  12.696
82455SOL     OW49196   3.661   5.798   7.486
82455SOL    HW149197   3.618   5.713   7.477
82455SOL    HW249198   3.621   5.852   7.418
82456SOL     OW49199   6.686   3.695   8.175
82456SOL    HW149200   6.705   3.685   8.268
82456SOL    HW249201   6.739   3.770   8.148
82457SOL     OW49202  10.122  12.121   4.604
82457SOL    HW149203  10.122  12.217   4.606
82457SOL    HW249204  10.136  12.099   4.512
82458SOL     OW49205   7.790   9.341   0.242
82458SOL    HW149206   7.735   9.263   0.236
82458SOL    HW249207   7.879   9.308   0.237
82459SOL     OW49208   3.099   2.438   1.815
82459SOL    HW149209   3.043   2.514   1.798
82459SOL    HW249210   3.183   2.461   1.776
82460SOL     OW49211  13.181   2.514  13.775
82460SOL    HW149212  13.172   2.422  13.800
82460SOL    HW249213  13.154   2.563  13.853
82461SOL     OW49214  13.677   6.316   7.966
82461SOL    HW149215  13.582   6.323   7.980
82461SOL    HW249216  13.705   6.244   8.022
82462SOL     OW49217  13.833   4.297   8.271
82462SOL    HW149218  13.745   4.336   8.273
82462SOL    HW249219  13.828   4.230   8.203
82463SOL     OW49220  12.001  12.631  11.194
82463SOL    HW149221  11.972  12.632  11.285
82463SOL    HW249222  12.018  12.722  11.173
82464SOL     OW49223  12.930   0.829   5.444
82464SOL    HW149224  12.974   0.889   5.503
82464SOL    HW249225  13.001   0.773   5.410
82465SOL     OW49226   2.251  12.246  10.834
82465SOL    HW149227   2.180  12.215  10.778
82465SOL    HW249228   2.225  12.334  10.860
82466SOL     OW49229  10.587   9.962  10.295
82466SOL    HW149230  10.616   9.895  10.357
82466SOL    HW249231  10.661   9.972  10.235
82467SOL     OW49232  12.336   6.912   5.857
82467SOL    HW149233  12.267   6.916   5.924
82467SOL    HW249234  12.292   6.935   5.775
82468SOL     OW49235  11.140  12.431   1.099
82468SOL    HW149236  11.086  12.458   1.173
82468SOL    HW249237  11.088  12.455   1.022
82469SOL     OW49238   6.147   6.488   0.736
82469SOL    HW149239   6.111   6.425   0.673
82469SOL    HW249240   6.098   6.473   0.816
82470SOL     OW49241   1.115  13.832   3.800
82470SOL    HW149242   1.132  13.889   3.874
82470SOL    HW249243   1.186  13.769   3.800
82471SOL     OW49244   0.484   4.149   9.092
82471SOL    HW149245   0.445   4.115   9.011
82471SOL    HW249246   0.417   4.204   9.130
82472SOL     OW49247   4.282   4.441   8.610
82472SOL    HW149248   4.200   4.390   8.610
82472SOL    HW249249   4.268   4.510   8.546
82473SOL     OW49250  12.100   0.161  13.180
82473SOL    HW149251  12.021   0.172  13.128
82473SOL    HW249252  12.102   0.238  13.237
82474SOL     OW49253   0.793  12.210   8.906
82474SOL    HW149254   0.817  12.165   8.987
82474SOL    HW249255   0.861  12.277   8.894
82475SOL     OW49256   4.259  12.023   6.397
82475SOL    HW149257   4.204  11.957   6.441
82475SOL    HW249258   4.202  12.059   6.329
82476SOL     OW49259  11.713   1.582   7.463
82476SOL    HW149260  11.662   1.503   7.445
82476SOL    HW249261  11.745   1.610   7.377
82477SOL     OW49262  11.451  14.065   9.658
82477SOL    HW149263  11.440  14.017   9.741
82477SOL    HW249264  11.478  13.998   9.595
82478SOL     OW49265   4.401   0.963  12.454
82478SOL    HW149266   4.467   1.016  12.409
82478SOL    HW249267   4.373   0.899  12.387
82479SOL     OW49268   0.794   6.604  11.561
82479SOL    HW149269   0.725   6.596  11.495
82479SOL    HW249270   0.876   6.603  11.510
82480SOL     OW49271   1.715   6.807   2.820
82480SOL    HW149272   1.772   6.844   2.888
82480SOL    HW249273   1.773   6.754   2.766
82481SOL     OW49274   7.154  12.374  13.249
82481SOL    HW149275   7.153  12.468  13.264
82481SOL    HW249276   7.154  12.364  13.154
82482SOL     OW49277   0.388   9.705   4.790
82482SOL    HW149278   0.437   9.623   4.788
82482SOL    HW249279   0.437   9.764   4.732
82483SOL     OW49280   8.752   3.177  13.264
82483SOL    HW149281   8.693   3.245  13.296
82483SOL    HW249282   8.735   3.173  13.170
82484SOL     OW49283   0.528  11.279   0.256
82484SOL    HW149284   0.589  11.337   0.301
82484SOL    HW249285   0.442  11.318   0.271
82485SOL     OW49286   0.973  12.491   2.756
82485SOL    HW149287   1.051  12.456   2.713
82485SOL    HW249288   0.901  12.468   2.697
82486SOL     OW49289  14.310   0.290   4.715
82486SOL    HW149290  14.391   0.332   4.744
82486SOL    HW249291  14.257   0.280   4.794
82487SOL     OW49292  13.633   9.847  12.208
82487SOL    HW149293  13.603   9.812  12.292
82487SOL    HW249294  13.726   9.864  12.222
82488SOL     OW49295  13.250   8.615   3.073
82488SOL    HW149296  13.336   8.573   3.074
82488SOL    HW249297  13.242   8.657   3.158
82489SOL     OW49298   5.161  12.682  14.414
82489SOL    HW149299   5.214  12.624  14.360
82489SOL    HW249300   5.221  12.750  14.444
82490SOL     OW49301   8.418  11.019  11.766
82490SOL    HW149302   8.439  10.974  11.847
82490SOL    HW249303   8.475  11.096  11.765
82491SOL     OW49304   1.028  11.296   3.191
82491SOL    HW149305   1.019  11.209   3.230
82491SOL    HW249306   1.089  11.284   3.118
82492SOL     OW49307   3.362   4.624   7.911
82492SOL    HW149308   3.289   4.576   7.872
82492SOL    HW249309   3.420   4.555   7.946
82493SOL     OW49310   7.180   3.475  10.912
82493SOL    HW149311   7.181   3.385  10.878
82493SOL    HW249312   7.240   3.473  10.986
82494SOL     OW49313   4.478   5.365  10.305
82494SOL    HW149314   4.531   5.332  10.377
82494SOL    HW249315   4.473   5.460  10.320
82495SOL     OW49316   5.840  14.524  13.687
82495SOL    HW149317   5.926  14.485  13.699
82495SOL    HW249318   5.833  14.588  13.758
82496SOL     OW49319   2.507   3.870   8.569
82496SOL    HW149320   2.454   3.920   8.631
82496SOL    HW249321   2.584   3.925   8.553
82497SOL     OW49322  11.952  10.598   0.733
82497SOL    HW149323  11.867  10.640   0.718
82497SOL    HW249324  11.930  10.505   0.741
82498SOL     OW49325  12.313   5.050   4.350
82498SOL    HW149326  12.388   5.104   4.374
82498SOL    HW249327  12.351   4.976   4.302
82499SOL     OW49328   0.185  14.062   9.312
82499SOL    HW149329   0.278  14.043   9.303
82499SOL    HW249330   0.141  13.996   9.259
82500SOL     OW49331   6.359   9.116   4.610
82500SOL    HW149332   6.374   9.182   4.677
82500SOL    HW249333   6.439   9.116   4.558
82501SOL     OW49334   2.532   2.393   1.454
82501SOL    HW149335   2.575   2.314   1.488
82501SOL    HW249336   2.556   2.395   1.362
82502SOL     OW49337  14.275  10.252  14.033
82502SOL    HW149338  14.344  10.197  14.070
82502SOL    HW249339  14.209  10.257  14.102
82503SOL     OW49340  10.357   7.205  10.280
82503SOL    HW149341  10.447   7.235  10.264
82503SOL    HW249342  10.322   7.186  10.193
82504SOL     OW49343   5.641   2.300   3.529
82504SOL    HW149344   5.599   2.318   3.445
82504SOL    HW249345   5.674   2.211   3.521
82505SOL     OW49346  12.292   5.459   2.786
82505SOL    HW149347  12.376   5.500   2.766
82505SOL    HW249348  12.302   5.428   2.876
82506SOL     OW49349   1.357  13.050  14.162
82506SOL    HW149350   1.329  13.140  14.175
82506SOL    HW249351   1.386  13.021  14.248
82507SOL     OW49352   2.533   7.507   8.480
82507SOL    HW149353   2.482   7.586   8.500
82507SOL    HW249354   2.516   7.449   8.554
82508SOL     OW49355  12.945   2.843   6.668
82508SOL    HW149356  13.015   2.811   6.726
82508SOL    HW249357  12.869   2.790   6.692
82509SOL     OW49358   1.345   7.844   9.936
82509SOL    HW149359   1.269   7.901   9.947
82509SOL    HW249360   1.411   7.899   9.893
82510SOL     OW49361   8.018  13.144   8.272
82510SOL    HW149362   7.978  13.224   8.238
82510SOL    HW249363   8.072  13.112   8.201
82511SOL     OW49364   1.294   8.951   8.004
82511SOL    HW149365   1.332   8.879   8.055
82511SOL    HW249366   1.359   8.969   7.937
82512SOL     OW49367  14.438  13.378   8.014
82512SOL    HW149368  14.496  13.401   7.941
82512SOL    HW249369  14.493  13.388   8.092
82513SOL     OW49370  13.085   0.724   7.871
82513SOL    HW149371  13.147   0.780   7.919
82513SOL    HW249372  13.011   0.781   7.851
82514SOL     OW49373  11.878  10.975  10.011
82514SOL    HW149374  11.861  10.990  10.104
82514SOL    HW249375  11.858  10.882   9.998
82515SOL     OW49376   4.201   1.424   4.680
82515SOL    HW149377   4.153   1.343   4.668
82515SOL    HW249378   4.240   1.442   4.594
82516SOL     OW49379   9.695   0.049   3.308
82516SOL    HW149380   9.619   0.106   3.297
82516SOL    HW249381   9.670  14.861   3.378
82517SOL     OW49382   5.072   5.282   4.379
82517SOL    HW149383   5.164   5.260   4.391
82517SOL    HW249384   5.073   5.375   4.356
82518SOL     OW49385   7.793   3.146   4.242
82518SOL    HW149386   7.793   3.217   4.306
82518SOL    HW249387   7.718   3.092   4.267
82519SOL     OW49388   7.917  13.203   9.730
82519SOL    HW149389   7.908  13.238   9.641
82519SOL    HW249390   7.894  13.277   9.787
82520SOL     OW49391   2.344  12.413  13.776
82520SOL    HW149392   2.288  12.491  13.778
82520SOL    HW249393   2.287  12.341  13.801
82521SOL     OW49394   9.916  12.743   1.070
82521SOL    HW149395   9.854  12.796   1.120
82521SOL    HW249396   9.899  12.765   0.979
82522SOL     OW49397   4.755   1.941   4.277
82522SOL    HW149398   4.799   1.917   4.195
82522SOL    HW249399   4.823   1.985   4.328
82523SOL     OW49400  14.548  10.506  13.215
82523SOL    HW149401  14.475  10.470  13.164
82523SOL    HW249402  14.525  10.489  13.306
82524SOL     OW49403  12.185   4.791   1.625
82524SOL    HW149404  12.192   4.695   1.624
82524SOL    HW249405  12.262   4.821   1.577
82525SOL     OW49406   3.705   0.846   7.477
82525SOL    HW149407   3.653   0.830   7.556
82525SOL    HW249408   3.729   0.939   7.482
82526SOL     OW49409   6.082  11.537   4.107
82526SOL    HW149410   6.150  11.602   4.123
82526SOL    HW249411   6.027  11.576   4.039
82527SOL     OW49412   1.640   1.024   1.371
82527SOL    HW149413   1.644   1.114   1.405
82527SOL    HW249414   1.728   0.989   1.387
82528SOL     OW49415   0.410  12.252   4.734
82528SOL    HW149416   0.469  12.180   4.757
82528SOL    HW249417   0.461  12.307   4.676
82529SOL     OW49418  14.106  12.700  11.170
82529SOL    HW149419  14.042  12.669  11.234
82529SOL    HW249420  14.057  12.759  11.113
82530SOL     OW49421   7.857  10.524  11.755
82530SOL    HW149422   7.814  10.446  11.719
82530SOL    HW249423   7.946  10.521  11.720
82531SOL     OW49424   2.208  13.380   7.749
82531SOL    HW149425   2.279  13.401   7.809
82531SOL    HW249426   2.137  13.441   7.773
82532SOL     OW49427   2.845   7.840   3.634
82532SOL    HW149428   2.935   7.846   3.664
82532SOL    HW249429   2.808   7.765   3.681
82533SOL     OW49430  10.555   1.980   2.556
82533SOL    HW149431  10.626   1.940   2.606
82533SOL    HW249432  10.491   1.909   2.544
82534SOL     OW49433   8.172  11.582  12.216
82534SOL    HW149434   8.232  11.644  12.175
82534SOL    HW249435   8.219  11.550  12.293
82535SOL     OW49436   1.276  14.292  13.517
82535SOL    HW149437   1.333  14.224  13.482
82535SOL    HW249438   1.334  14.348  13.568
82536SOL     OW49439   8.217  11.041   5.123
82536SOL    HW149440   8.221  10.969   5.186
82536SOL    HW249441   8.152  11.012   5.059
82537SOL     OW49442   4.842   9.515  13.937
82537SOL    HW149443   4.842   9.599  13.891
82537SOL    HW249444   4.916   9.467  13.901
82538SOL     OW49445   5.532  11.002   0.147
82538SOL    HW149446   5.486  10.924   0.176
82538SOL    HW249447   5.462  11.064   0.124
82539SOL     OW49448   3.901   7.131   8.984
82539SOL    HW149449   3.923   7.206   8.928
82539SOL    HW249450   3.893   7.057   8.924
82540SOL     OW49451   3.672   0.916   7.802
82540SOL    HW149452   3.731   0.975   7.755
82540SOL    HW249453   3.661   0.956   7.888
82541SOL     OW49454   8.228   5.999   3.727
82541SOL    HW149455   8.198   6.017   3.638
82541SOL    HW249456   8.240   5.904   3.729
82542SOL     OW49457   0.684   4.226   4.454
82542SOL    HW149458   0.652   4.147   4.409
82542SOL    HW249459   0.631   4.297   4.417
82543SOL     OW49460  12.561   3.497   4.556
82543SOL    HW149461  12.496   3.567   4.559
82543SOL    HW249462  12.616   3.510   4.633
82544SOL     OW49463  10.916  10.747  11.560
82544SOL    HW149464  10.887  10.663  11.525
82544SOL    HW249465  10.915  10.736  11.655
82545SOL     OW49466   2.833  11.156   4.473
82545SOL    HW149467   2.917  11.196   4.452
82545SOL    HW249468   2.853  11.091   4.540
82546SOL     OW49469  13.662   4.302  11.327
82546SOL    HW149470  13.662   4.283  11.421
82546SOL    HW249471  13.574   4.335  11.310
82547SOL     OW49472  10.960   1.927  11.279
82547SOL    HW149473  10.871   1.911  11.248
82547SOL    HW249474  10.982   2.013  11.242
82548SOL     OW49475   8.788  10.275  10.683
82548SOL    HW149476   8.724  10.336  10.648
82548SOL    HW249477   8.736  10.204  10.721
82549SOL     OW49478  12.407  12.054   1.334
82549SOL    HW149479  12.429  11.989   1.268
82549SOL    HW249480  12.457  12.028   1.411
82550SOL     OW49481  13.345   1.467  14.259
82550SOL    HW149482  13.256   1.486  14.290
82550SOL    HW249483  13.377   1.399  14.319
82551SOL     OW49484   3.451   5.491   9.044
82551SOL    HW149485   3.375   5.547   9.032
82551SOL    HW249486   3.472   5.499   9.137
82552SOL     OW49487  13.083   7.790  10.922
82552SOL    HW149488  13.005   7.847  10.922
82552SOL    HW249489  13.133   7.820  10.846
82553SOL     OW49490   5.072   0.329   3.100
82553SOL    HW149491   4.999   0.357   3.045
82553SOL    HW249492   5.034   0.265   3.160
82554SOL     OW49493   1.737   8.867  14.750
82554SOL    HW149494   1.749   8.783  14.794
82554SOL    HW249495   1.678   8.848  14.677
82555SOL     OW49496   7.659  11.282   3.593
82555SOL    HW149497   7.661  11.195   3.632
82555SOL    HW249498   7.570  11.314   3.610
82556SOL     OW49499   9.445   6.622   2.869
82556SOL    HW149500   9.476   6.630   2.959
82556SOL    HW249501   9.364   6.673   2.866
82557SOL     OW49502   3.539   2.410  12.365
82557SOL    HW149503   3.508   2.337  12.418
82557SOL    HW249504   3.553   2.481  12.428
82558SOL     OW49505   1.781   7.313   5.432
82558SOL    HW149506   1.859   7.272   5.468
82558SOL    HW249507   1.747   7.367   5.504
82559SOL     OW49508   2.823   6.164   1.185
82559SOL    HW149509   2.772   6.196   1.259
82559SOL    HW249510   2.899   6.123   1.224
82560SOL     OW49511   1.516   9.957   6.880
82560SOL    HW149512   1.504   9.933   6.788
82560SOL    HW249513   1.581  10.027   6.879
82561SOL     OW49514   3.252  12.846   7.357
82561SOL    HW149515   3.290  12.862   7.270
82561SOL    HW249516   3.302  12.904   7.415
82562SOL     OW49517   0.553  10.912   4.585
82562SOL    HW149518   0.555  10.817   4.593
82562SOL    HW249519   0.464  10.936   4.613
82563SOL     OW49520   2.586  12.094   7.757
82563SOL    HW149521   2.540  12.073   7.676
82563SOL    HW249522   2.540  12.043   7.824
82564SOL     OW49523   9.069   7.450   0.329
82564SOL    HW149524   9.073   7.502   0.249
82564SOL    HW249525   9.025   7.506   0.393
82565SOL     OW49526   6.838   7.259   1.871
82565SOL    HW149527   6.782   7.236   1.945
82565SOL    HW249528   6.780   7.255   1.795
82566SOL     OW49529   6.105   2.596   8.160
82566SOL    HW149530   6.126   2.592   8.253
82566SOL    HW249531   6.145   2.517   8.122
82567SOL     OW49532   2.459   5.922  13.496
82567SOL    HW149533   2.409   5.985  13.444
82567SOL    HW249534   2.426   5.934  13.585
82568SOL     OW49535  12.830   2.342  11.804
82568SOL    HW149536  12.758   2.388  11.761
82568SOL    HW249537  12.850   2.396  11.881
82569SOL     OW49538   8.851   6.913  12.535
82569SOL    HW149539   8.854   6.948  12.446
82569SOL    HW249540   8.793   6.973  12.582
82570SOL     OW49541  13.543  14.229  10.759
82570SOL    HW149542  13.453  14.244  10.786
82570SOL    HW249543  13.591  14.305  10.792
82571SOL     OW49544  12.303   0.417   8.450
82571SOL    HW149545  12.279   0.345   8.392
82571SOL    HW249546  12.362   0.378   8.514
82572SOL     OW49547   4.465  13.631   6.909
82572SOL    HW149548   4.451  13.592   6.995
82572SOL    HW249549   4.536  13.694   6.922
82573SOL     OW49550   4.576   6.167   9.683
82573SOL    HW149551   4.497   6.122   9.652
82573SOL    HW249552   4.546   6.253   9.710
82574SOL     OW49553   1.113  14.239   8.020
82574SOL    HW149554   1.155  14.285   8.093
82574SOL    HW249555   1.029  14.282   8.010
82575SOL     OW49556   0.717   8.370   7.705
82575SOL    HW149557   0.763   8.361   7.621
82575SOL    HW249558   0.776   8.330   7.769
82576SOL     OW49559   1.080   8.427   9.347
82576SOL    HW149560   1.117   8.515   9.351
82576SOL    HW249561   1.089   8.402   9.255
82577SOL     OW49562  13.366   3.441  13.961
82577SOL    HW149563  13.310   3.516  13.939
82577SOL    HW249564  13.452   3.480  13.978
82578SOL     OW49565   3.163  13.962   0.816
82578SOL    HW149566   3.180  13.950   0.723
82578SOL    HW249567   3.222  14.032   0.843
82579SOL     OW49568   6.843  14.783   2.061
82579SOL    HW149569   6.841   0.007   2.067
82579SOL    HW249570   6.905  14.765   1.991
82580SOL     OW49571   4.114   6.988   6.244
82580SOL    HW149572   4.095   6.925   6.174
82580SOL    HW249573   4.208   6.979   6.259
82581SOL     OW49574   5.928  13.338   2.980
82581SOL    HW149575   5.847  13.288   2.965
82581SOL    HW249576   5.910  13.423   2.940
82582SOL     OW49577  14.573   5.252   1.545
82582SOL    HW149578  14.517   5.208   1.481
82582SOL    HW249579  14.637   5.186   1.571
82583SOL     OW49580   8.827   3.295   4.092
82583SOL    HW149581   8.841   3.368   4.153
82583SOL    HW249582   8.868   3.220   4.136
82584SOL     OW49583  14.425  10.534   2.997
82584SOL    HW149584  14.414  10.607   3.058
82584SOL    HW249585  14.353  10.474   3.019
82585SOL     OW49586   5.258  11.890  13.754
82585SOL    HW149587   5.294  11.821  13.810
82585SOL    HW249588   5.289  11.868  13.666
82586SOL     OW49589  13.969  13.434  12.736
82586SOL    HW149590  13.998  13.440  12.827
82586SOL    HW249591  13.877  13.461  12.738
82587SOL     OW49592  11.420   2.350   0.770
82587SOL    HW149593  11.362   2.315   0.703
82587SOL    HW249594  11.401   2.297   0.848
82588SOL     OW49595   1.704   5.344   1.622
82588SOL    HW149596   1.761   5.275   1.589
82588SOL    HW249597   1.692   5.403   1.548
82589SOL     OW49598  10.002   4.869   5.032
82589SOL    HW149599  10.044   4.783   5.036
82589SOL    HW249600  10.040   4.911   4.954
82590SOL     OW49601   5.035   5.765   5.884
82590SOL    HW149602   5.023   5.675   5.914
82590SOL    HW249603   5.107   5.799   5.937
82591SOL     OW49604   2.955   3.641   9.833
82591SOL    HW149605   2.956   3.675   9.922
82591SOL    HW249606   3.035   3.676   9.793
82592SOL     OW49607   2.184  12.340   9.249
82592SOL    HW149608   2.216  12.266   9.198
82592SOL    HW249609   2.244  12.411   9.229
82593SOL     OW49610   2.706   1.965   4.791
82593SOL    HW149611   2.726   2.058   4.797
82593SOL    HW249612   2.610   1.961   4.785
82594SOL     OW49613  14.184   5.071   0.123
82594SOL    HW149614  14.198   5.001   0.059
82594SOL    HW249615  14.241   5.048   0.197
82595SOL     OW49616  12.933  11.403   8.375
82595SOL    HW149617  12.991  11.465   8.333
82595SOL    HW249618  12.887  11.360   8.303
82596SOL     OW49619  12.391   3.008  11.159
82596SOL    HW149620  12.422   3.099  11.162
82596SOL    HW249621  12.458   2.962  11.109
82597SOL     OW49622   2.249   1.530   3.978
82597SOL    HW149623   2.332   1.494   4.011
82597SOL    HW249624   2.209   1.457   3.931
82598SOL     OW49625   1.041   3.710   6.417
82598SOL    HW149626   1.040   3.661   6.499
82598SOL    HW249627   1.096   3.657   6.359
82599SOL     OW49628   3.256   4.601  13.422
82599SOL    HW149629   3.290   4.677  13.469
82599SOL    HW249630   3.296   4.606  13.335
82600SOL     OW49631   4.635   0.726   5.069
82600SOL    HW149632   4.592   0.699   5.150
82600SOL    HW249633   4.614   0.819   5.061
82601SOL     OW49634  14.659   0.018   4.096
82601SOL    HW149635  14.692   0.107   4.109
82601SOL    HW249636  14.706  14.858   4.019
82602SOL     OW49637   1.134  10.695  11.138
82602SOL    HW149638   1.041  10.676  11.151
82602SOL    HW249639   1.148  10.779  11.182
82603SOL     OW49640   9.939   2.631   0.064
82603SOL    HW149641  10.009   2.574   0.032
82603SOL    HW249642   9.862   2.575   0.066
82604SOL     OW49643  11.162  10.884   5.468
82604SOL    HW149644  11.149  10.790   5.457
82604SOL    HW249645  11.076  10.918   5.494
82605SOL     OW49646   7.276   2.080   1.105
82605SOL    HW149647   7.265   2.107   1.014
82605SOL    HW249648   7.286   2.162   1.154
82606SOL     OW49649  10.037   4.020  10.096
82606SOL    HW149650  10.084   4.081  10.153
82606SOL    HW249651   9.959   3.996  10.146
82607SOL     OW49652   8.271   9.451   6.570
82607SOL    HW149653   8.257   9.358   6.585
82607SOL    HW249654   8.298   9.486   6.655
82608SOL     OW49655   4.873   2.487   1.780
82608SOL    HW149656   4.930   2.415   1.753
82608SOL    HW249657   4.913   2.522   1.859
82609SOL     OW49658   5.099   0.203   1.626
82609SOL    HW149659   5.160   0.141   1.588
82609SOL    HW249660   5.018   0.190   1.578
82610SOL     OW49661  10.091   1.266   5.292
82610SOL    HW149662  10.102   1.181   5.250
82610SOL    HW249663  10.158   1.268   5.360
82611SOL     OW49664   7.056   3.235   0.216
82611SOL    HW149665   7.093   3.159   0.172
82611SOL    HW249666   7.131   3.287   0.243
82612SOL     OW49667   2.156   2.896  11.640
82612SOL    HW149668   2.088   2.836  11.669
82612SOL    HW249669   2.201   2.849  11.570
82613SOL     OW49670   3.313   7.616  13.634
82613SOL    HW149671   3.332   7.680  13.702
82613SOL    HW249672   3.304   7.533  13.680
82614SOL     OW49673   5.318   0.064   8.358
82614SOL    HW149674   5.363   0.124   8.299
82614SOL    HW249675   5.309  14.855   8.309
82615SOL     OW49676   2.071   8.656   0.610
82615SOL    HW149677   2.071   8.574   0.659
82615SOL    HW249678   2.068   8.724   0.678
82616SOL     OW49679   8.665   6.820  12.070
82616SOL    HW149680   8.750   6.840  12.110
82616SOL    HW249681   8.675   6.846  11.978
82617SOL     OW49682   5.699   3.389   8.304
82617SOL    HW149683   5.658   3.471   8.276
82617SOL    HW249684   5.708   3.399   8.399
82618SOL     OW49685  11.670  14.811   7.109
82618SOL    HW149686  11.607   0.011   7.112
82618SOL    HW249687  11.746  14.843   7.158
82619SOL     OW49688   5.758   5.660   5.306
82619SOL    HW149689   5.663   5.665   5.298
82619SOL    HW249690   5.778   5.706   5.388
82620SOL     OW49691   0.128   9.555   3.171
82620SOL    HW149692   0.134   9.469   3.214
82620SOL    HW249693   0.094   9.536   3.083
82621SOL     OW49694  10.187   7.434   5.046
82621SOL    HW149695  10.120   7.373   5.015
82621SOL    HW249696  10.168   7.445   5.139
82622SOL     OW49697   7.717   7.738  13.290
82622SOL    HW149698   7.668   7.719  13.210
82622SOL    HW249699   7.787   7.673  13.291
82623SOL     OW49700   8.263  10.012  12.511
82623SOL    HW149701   8.313   9.940  12.471
82623SOL    HW249702   8.329  10.080  12.526
82624SOL     OW49703   4.210   7.555   6.551
82624SOL    HW149704   4.254   7.593   6.627
82624SOL    HW249705   4.189   7.465   6.576
82625SOL     OW49706   0.375  13.591   4.677
82625SOL    HW149707   0.290  13.559   4.648
82625SOL    HW249708   0.357  13.677   4.715
82626SOL     OW49709   8.085  11.823   7.178
82626SOL    HW149710   8.073  11.859   7.266
82626SOL    HW249711   8.006  11.849   7.131
82627SOL     OW49712   9.152  11.632   5.187
82627SOL    HW149713   9.090  11.656   5.256
82627SOL    HW249714   9.153  11.707   5.128
82628SOL     OW49715   2.536   1.994  13.089
82628SOL    HW149716   2.454   2.040  13.074
82628SOL    HW249717   2.571   1.978  13.001
82629SOL     OW49718  14.872   0.986  11.575
82629SOL    HW149719  14.816   0.909  11.582
82629SOL    HW249720   0.028   1.004  11.665
82630SOL     OW49721   9.951  11.872  12.026
82630SOL    HW149722   9.934  11.832  11.940
82630SOL    HW249723   9.993  11.955  12.005
82631SOL     OW49724   7.890   5.281  13.925
82631SOL    HW149725   7.910   5.267  14.018
82631SOL    HW249726   7.962   5.335  13.893
82632SOL     OW49727   1.029   0.342  12.894
82632SOL    HW149728   1.000   0.264  12.941
82632SOL    HW249729   0.959   0.360  12.831
82633SOL     OW49730   5.420   1.973  11.862
82633SOL    HW149731   5.356   2.034  11.827
82633SOL    HW249732   5.493   2.029  11.891
82634SOL     OW49733  10.444   6.139  12.752
82634SOL    HW149734  10.514   6.088  12.711
82634SOL    HW249735  10.367   6.122  12.697
82635SOL     OW49736  12.411   3.210   4.320
82635SOL    HW149737  12.371   3.126   4.298
82635SOL    HW249738  12.464   3.191   4.398
82636SOL     OW49739   8.270   5.096  12.732
82636SOL    HW149740   8.323   5.053  12.665
82636SOL    HW249741   8.266   5.188  12.704
82637SOL     OW49742   3.832   3.879  10.161
82637SOL    HW149743   3.781   3.960  10.161
82637SOL    HW249744   3.863   3.870  10.071
82638SOL     OW49745  11.988  10.649   5.949
82638SOL    HW149746  12.081  10.653   5.928
82638SOL    HW249747  11.943  10.667   5.866
82639SOL     OW49748   8.427   9.075  11.707
82639SOL    HW149749   8.478   9.005  11.747
82639SOL    HW249750   8.349   9.031  11.672
82640SOL     OW49751   2.173   6.644   5.393
82640SOL    HW149752   2.238   6.696   5.440
82640SOL    HW249753   2.215   6.621   5.310
82641SOL     OW49754   3.904  11.319  12.431
82641SOL    HW149755   3.909  11.415  12.433
82641SOL    HW249756   3.950  11.295  12.350
82642SOL     OW49757   9.918   6.864   8.513
82642SOL    HW149758   9.977   6.927   8.554
82642SOL    HW249759   9.832   6.888   8.546
82643SOL     OW49760   8.155   9.298   6.869
82643SOL    HW149761   8.225   9.236   6.853
82643SOL    HW249762   8.183   9.347   6.946
82644SOL     OW49763  12.146   1.586   9.682
82644SOL    HW149764  12.119   1.550   9.766
82644SOL    HW249765  12.087   1.545   9.619
82645SOL     OW49766   2.801   3.754   5.989
82645SOL    HW149767   2.848   3.671   5.988
82645SOL    HW249768   2.758   3.758   5.903
82646SOL     OW49769   5.013  13.403   5.573
82646SOL    HW149770   4.930  13.359   5.555
82646SOL    HW249771   5.039  13.440   5.489
82647SOL     OW49772  10.836  11.548   3.656
82647SOL    HW149773  10.870  11.461   3.636
82647SOL    HW249774  10.823  11.589   3.570
82648SOL     OW49775   0.979   2.196   9.545
82648SOL    HW149776   0.949   2.164   9.630
82648SOL    HW249777   0.929   2.145   9.481
82649SOL     OW49778  12.104  13.378  14.521
82649SOL    HW149779  12.113  13.297  14.470
82649SOL    HW249780  12.192  13.394  14.556
82650SOL     OW49781  14.134   4.974  10.785
82650SOL    HW149782  14.220   5.007  10.759
82650SOL    HW249783  14.151   4.884  10.814
82651SOL     OW49784  12.924   2.291  14.203
82651SOL    HW149785  12.861   2.246  14.258
82651SOL    HW249786  12.941   2.374  14.248
82652SOL     OW49787   0.596   9.936  12.324
82652SOL    HW149788   0.645   9.988  12.388
82652SOL    HW249789   0.616   9.975  12.240
82653SOL     OW49790  10.482  13.811  13.579
82653SOL    HW149791  10.567  13.765  13.575
82653SOL    HW249792  10.459  13.810  13.672
82654SOL     OW49793   0.300   8.817   2.965
82654SOL    HW149794   0.304   8.722   2.981
82654SOL    HW249795   0.391   8.846   2.972
82655SOL     OW49796   5.261  14.136   7.026
82655SOL    HW149797   5.352  14.108   7.014
82655SOL    HW249798   5.221  14.067   7.080
82656SOL     OW49799   7.563   6.266   2.008
82656SOL    HW149800   7.489   6.302   1.958
82656SOL    HW249801   7.613   6.343   2.035
82657SOL     OW49802  14.470  13.204   9.528
82657SOL    HW149803  14.375  13.195   9.520
82657SOL    HW249804  14.486  13.298   9.522
82658SOL     OW49805   7.978   5.344   0.200
82658SOL    HW149806   8.024   5.263   0.222
82658SOL    HW249807   7.951   5.331   0.109
82659SOL     OW49808   6.327   4.462   5.116
82659SOL    HW149809   6.312   4.378   5.072
82659SOL    HW249810   6.358   4.520   5.046
82660SOL     OW49811   5.363   8.390  10.311
82660SOL    HW149812   5.289   8.330  10.311
82660SOL    HW249813   5.421   8.356  10.243
82661SOL     OW49814   9.713  11.503  11.387
82661SOL    HW149815   9.805  11.525  11.402
82661SOL    HW249816   9.704  11.414  11.422
82662SOL     OW49817  14.450   2.104   6.062
82662SOL    HW149818  14.394   2.139   6.131
82662SOL    HW249819  14.447   2.009   6.073
82663SOL     OW49820   6.043   8.740  11.567
82663SOL    HW149821   6.067   8.649  11.551
82663SOL    HW249822   6.053   8.783  11.482
82664SOL     OW49823   7.974  14.746   0.106
82664SOL    HW149824   8.033  14.697   0.163
82664SOL    HW249825   7.932  14.810   0.164
82665SOL     OW49826   4.042  12.949   1.196
82665SOL    HW149827   3.996  12.883   1.145
82665SOL    HW249828   4.071  12.902   1.275
82666SOL     OW49829   8.483   5.714  11.863
82666SOL    HW149830   8.535   5.642  11.899
82666SOL    HW249831   8.503   5.789  11.919
82667SOL     OW49832   8.085   2.522   3.355
82667SOL    HW149833   8.181   2.524   3.351
82667SOL    HW249834   8.057   2.567   3.275
82668SOL     OW49835   4.090   2.630   4.637
82668SOL    HW149836   4.059   2.683   4.563
82668SOL    HW249837   4.106   2.694   4.706
82669SOL     OW49838  11.668   4.512   8.695
82669SOL    HW149839  11.715   4.592   8.673
82669SOL    HW249840  11.681   4.454   8.619
82670SOL     OW49841   4.205  11.471   3.250
82670SOL    HW149842   4.163  11.556   3.242
82670SOL    HW249843   4.180  11.424   3.170
82671SOL     OW49844  10.405   2.842   8.212
82671SOL    HW149845  10.419   2.905   8.283
82671SOL    HW249846  10.311   2.825   8.212
82672SOL     OW49847  14.074   0.827   0.913
82672SOL    HW149848  14.025   0.797   0.989
82672SOL    HW249849  14.026   0.904   0.883
82673SOL     OW49850   8.679  12.409  13.630
82673SOL    HW149851   8.645  12.351  13.698
82673SOL    HW249852   8.615  12.479  13.622
82674SOL     OW49853  11.064   2.108  11.783
82674SOL    HW149854  11.124   2.115  11.857
82674SOL    HW249855  11.112   2.144  11.709
82675SOL     OW49856   3.572   6.946   2.348
82675SOL    HW149857   3.609   6.983   2.268
82675SOL    HW249858   3.636   6.966   2.416
82676SOL     OW49859   2.494   3.310  11.965
82676SOL    HW149860   2.557   3.257  11.916
82676SOL    HW249861   2.434   3.344  11.898
82677SOL     OW49862  12.494   2.434   5.560
82677SOL    HW149863  12.581   2.397   5.545
82677SOL    HW249864  12.480   2.426   5.655
82678SOL     OW49865   9.183   6.708   4.675
82678SOL    HW149866   9.145   6.649   4.610
82678SOL    HW249867   9.256   6.659   4.713
82679SOL     OW49868   1.824   5.613  13.765
82679SOL    HW149869   1.836   5.657  13.681
82679SOL    HW249870   1.889   5.653  13.823
82680SOL     OW49871  10.506   7.782   2.086
82680SOL    HW149872  10.567   7.713   2.060
82680SOL    HW249873  10.560   7.861   2.093
82681SOL     OW49874   2.351   1.891   9.726
82681SOL    HW149875   2.319   1.845   9.803
82681SOL    HW249876   2.391   1.823   9.672
82682SOL     OW49877  10.047  12.957  10.580
82682SOL    HW149878   9.984  12.916  10.520
82682SOL    HW249879   9.994  13.005  10.642
82683SOL     OW49880   7.473  12.579   7.744
82683SOL    HW149881   7.517  12.495   7.756
82683SOL    HW249882   7.535  12.632   7.695
82684SOL     OW49883   2.267  11.954   2.038
82684SOL    HW149884   2.174  11.976   2.033
82684SOL    HW249885   2.281  11.892   1.967
82685SOL     OW49886  10.105   3.192  13.608
82685SOL    HW149887  10.093   3.183  13.513
82685SOL    HW249888  10.178   3.253  13.617
82686SOL     OW49889  14.675   6.855  10.229
82686SOL    HW149890  14.746   6.884  10.172
82686SOL    HW249891  14.602   6.914  10.209
82687SOL     OW49892   6.116   4.371   7.018
82687SOL    HW149893   6.209   4.392   7.020
82687SOL    HW249894   6.073   4.456   7.004
82688SOL     OW49895   4.726   8.940   7.518
82688SOL    HW149896   4.681   8.978   7.593
82688SOL    HW249897   4.806   8.902   7.554
82689SOL     OW49898  13.491  13.397   1.452
82689SOL    HW149899  13.521  13.484   1.426
82689SOL    HW249900  13.568  13.341   1.442
82690SOL     OW49901  12.086   4.962   9.009
82690SOL    HW149902  12.136   5.038   9.038
82690SOL    HW249903  12.091   4.965   8.914
82691SOL     OW49904  11.482   7.068   5.845
82691SOL    HW149905  11.561   7.052   5.794
82691SOL    HW249906  11.479   7.163   5.855
82692SOL     OW49907   7.456   7.285   6.925
82692SOL    HW149908   7.399   7.216   6.893
82692SOL    HW249909   7.426   7.303   7.014
82693SOL     OW49910   1.743   7.647   3.745
82693SOL    HW149911   1.721   7.624   3.835
82693SOL    HW249912   1.760   7.562   3.702
82694SOL     OW49913   9.755   0.004   9.143
82694SOL    HW149914   9.766  14.783   9.125
82694SOL    HW249915   9.716   0.040   9.063
82695SOL     OW49916   0.364  12.659   5.531
82695SOL    HW149917   0.354  12.595   5.461
82695SOL    HW249918   0.277  12.696   5.544
82696SOL     OW49919   6.522   4.081  10.960
82696SOL    HW149920   6.563   4.019  10.899
82696SOL    HW249921   6.593   4.111  11.015
82697SOL     OW49922  14.348  10.916  14.740
82697SOL    HW149923  14.409  10.844  14.726
82697SOL    HW249924  14.311  10.899  14.827
82698SOL     OW49925  10.699  13.395   0.091
82698SOL    HW149926  10.624  13.373   0.036
82698SOL    HW249927  10.668  13.466   0.148
82699SOL     OW49928   3.186   1.175   4.496
82699SOL    HW149929   3.169   1.096   4.548
82699SOL    HW249930   3.210   1.141   4.409
82700SOL     OW49931   3.575  14.596   3.273
82700SOL    HW149932   3.617  14.564   3.193
82700SOL    HW249933   3.640  14.653   3.314
82701SOL     OW49934   2.649   3.522   7.549
82701SOL    HW149935   2.576   3.580   7.568
82701SOL    HW249936   2.692   3.511   7.634
82702SOL     OW49937   5.898   1.658   8.344
82702SOL    HW149938   5.967   1.705   8.299
82702SOL    HW249939   5.940   1.576   8.373
82703SOL     OW49940  12.180   4.235   3.433
82703SOL    HW149941  12.128   4.229   3.353
82703SOL    HW249942  12.200   4.328   3.442
82704SOL     OW49943   7.570   2.883  11.758
82704SOL    HW149944   7.646   2.837  11.722
82704SOL    HW249945   7.530   2.820  11.818
82705SOL     OW49946   6.706   2.896  10.204
82705SOL    HW149947   6.679   2.970  10.258
82705SOL    HW249948   6.632   2.836  10.205
82706SOL     OW49949  12.520   8.500  11.698
82706SOL    HW149950  12.562   8.584  11.718
82706SOL    HW249951  12.500   8.462  11.783
82707SOL     OW49952   3.381   3.232  12.840
82707SOL    HW149953   3.338   3.317  12.840
82707SOL    HW249954   3.374   3.202  12.749
82708SOL     OW49955   6.040  11.042   7.481
82708SOL    HW149956   6.099  11.084   7.544
82708SOL    HW249957   6.029  10.953   7.515
82709SOL     OW49958  10.379   7.444   6.629
82709SOL    HW149959  10.409   7.519   6.681
82709SOL    HW249960  10.405   7.368   6.680
82710SOL     OW49961  11.152  12.248   0.012
82710SOL    HW149962  11.237  12.210   0.035
82710SOL    HW249963  11.174  12.332  14.844
82711SOL     OW49964  12.944   6.744   4.318
82711SOL    HW149965  12.959   6.794   4.398
82711SOL    HW249966  12.850   6.725   4.318
82712SOL     OW49967   1.716   1.600  11.767
82712SOL    HW149968   1.655   1.673  11.782
82712SOL    HW249969   1.787   1.616  11.829
82713SOL     OW49970   6.080   8.003   0.510
82713SOL    HW149971   6.026   7.937   0.554
82713SOL    HW249972   6.169   7.966   0.512
82714SOL     OW49973  12.813   3.468   8.931
82714SOL    HW149974  12.737   3.457   8.874
82714SOL    HW249975  12.867   3.533   8.885
82715SOL     OW49976  12.536  11.810   2.208
82715SOL    HW149977  12.529  11.721   2.174
82715SOL    HW249978  12.580  11.800   2.293
82716SOL     OW49979   5.015   8.372  10.404
82716SOL    HW149980   4.926   8.337  10.393
82716SOL    HW249981   5.073   8.298  10.384
82717SOL     OW49982  13.106   0.693   0.462
82717SOL    HW149983  13.161   0.743   0.523
82717SOL    HW249984  13.019   0.695   0.501
82718SOL     OW49985  10.918  12.280   6.611
82718SOL    HW149986  10.864  12.200   6.607
82718SOL    HW249987  10.971  12.276   6.531
82719SOL     OW49988  11.239   8.145   1.315
82719SOL    HW149989  11.191   8.151   1.398
82719SOL    HW249990  11.245   8.051   1.298
82720SOL     OW49991  14.697   0.415   7.018
82720SOL    HW149992  14.629   0.396   6.953
82720SOL    HW249993  14.779   0.398   6.972
82721SOL     OW49994   4.465  10.066   8.055
82721SOL    HW149995   4.545  10.089   8.102
82721SOL    HW249996   4.409  10.026   8.122
82722SOL     OW49997   5.983  11.392   6.535
82722SOL    HW149998   5.981  11.487   6.533
82722SOL    HW249999   5.901  11.365   6.493
82723SOL     OW50000   8.109   4.563   4.452
82723SOL    HW150001   8.078   4.477   4.426
82723SOL    HW250002   8.084   4.571   4.545
82724SOL     OW50003   8.493  14.722   6.457
82724SOL    HW150004   8.534  14.677   6.531
82724SOL    HW250005   8.559  14.720   6.388
82725SOL     OW50006   2.979   3.422   7.105
82725SOL    HW150007   2.940   3.449   7.188
82725SOL    HW250008   2.945   3.484   7.041
82726SOL     OW50009  13.285   8.470   0.698
82726SOL    HW150010  13.341   8.491   0.623
82726SOL    HW250011  13.332   8.400   0.744
82727SOL     OW50012   2.970  10.719   7.273
82727SOL    HW150013   3.030  10.689   7.205
82727SOL    HW250014   2.995  10.810   7.288
82728SOL     OW50015   6.188   3.338  10.098
82728SOL    HW150016   6.225   3.348  10.011
82728SOL    HW250017   6.190   3.244  10.115
82729SOL     OW50018   5.152   9.666   1.368
82729SOL    HW150019   5.126   9.603   1.301
82729SOL    HW250020   5.185   9.611   1.440
82730SOL     OW50021  14.693   9.472   3.445
82730SOL    HW150022  14.659   9.417   3.374
82730SOL    HW250023  14.700   9.413   3.520
82731SOL     OW50024  11.242  14.557   9.275
82731SOL    HW150025  11.167  14.611   9.250
82731SOL    HW250026  11.204  14.477   9.312
82732SOL     OW50027   7.500   1.462   3.736
82732SOL    HW150028   7.416   1.415   3.735
82732SOL    HW250029   7.554   1.415   3.673
82733SOL     OW50030  10.380   8.985  10.275
82733SOL    HW150031  10.324   8.984  10.197
82733SOL    HW250032  10.337   9.048  10.334
82734SOL     OW50033   0.145   6.259   8.924
82734SOL    HW150034   0.104   6.227   9.004
82734SOL    HW250035   0.199   6.333   8.952
82735SOL     OW50036   1.338  13.157  10.652
82735SOL    HW150037   1.417  13.187  10.697
82735SOL    HW250038   1.371  13.112  10.574
82736SOL     OW50039   7.514   7.091   2.210
82736SOL    HW150040   7.556   7.168   2.172
82736SOL    HW250041   7.458   7.125   2.279
82737SOL     OW50042  11.615   5.514  12.248
82737SOL    HW150043  11.629   5.609  12.245
82737SOL    HW250044  11.528   5.504  12.285
82738SOL     OW50045   9.313   8.056   5.047
82738SOL    HW150046   9.237   8.096   5.090
82738SOL    HW250047   9.326   7.974   5.093
82739SOL     OW50048  12.391  14.379  11.951
82739SOL    HW150049  12.437  14.460  11.927
82739SOL    HW250050  12.449  14.309  11.923
82740SOL     OW50051  10.757  12.551   7.493
82740SOL    HW150052  10.745  12.610   7.567
82740SOL    HW250053  10.685  12.489   7.499
82741SOL     OW50054   4.068  11.180   4.239
82741SOL    HW150055   4.083  11.092   4.272
82741SOL    HW250056   4.104  11.179   4.150
82742SOL     OW50057  12.971  14.102   5.075
82742SOL    HW150058  12.900  14.062   5.026
82742SOL    HW250059  13.047  14.096   5.017
82743SOL     OW50060   8.859   9.602   3.007
82743SOL    HW150061   8.924   9.543   3.045
82743SOL    HW250062   8.805   9.545   2.952
82744SOL     OW50063   4.080  13.185  12.362
82744SOL    HW150064   4.079  13.118  12.430
82744SOL    HW250065   4.132  13.256  12.398
82745SOL     OW50066   6.987  10.704   4.347
82745SOL    HW150067   7.079  10.711   4.320
82745SOL    HW250068   6.942  10.769   4.293
82746SOL     OW50069  11.960   9.372   4.225
82746SOL    HW150070  11.986   9.454   4.183
82746SOL    HW250071  11.944   9.396   4.317
82747SOL     OW50072   7.310   2.926   3.389
82747SOL    HW150073   7.231   2.946   3.438
82747SOL    HW250074   7.309   2.986   3.315
82748SOL     OW50075   9.239  13.215   2.040
82748SOL    HW150076   9.329  13.181   2.039
82748SOL    HW250077   9.193  13.159   2.103
82749SOL     OW50078   5.622   4.101   6.847
82749SOL    HW150079   5.568   4.032   6.884
82749SOL    HW250080   5.642   4.071   6.758
82750SOL     OW50081   8.428   7.956  10.450
82750SOL    HW150082   8.452   7.877  10.401
82750SOL    HW250083   8.400   8.018  10.384
82751SOL     OW50084   1.052   3.454   0.233
82751SOL    HW150085   1.030   3.484   0.322
82751SOL    HW250086   0.994   3.505   0.176
82752SOL     OW50087  10.018   5.114   6.174
82752SOL    HW150088  10.018   5.161   6.257
82752SOL    HW250089   9.956   5.042   6.188
82753SOL     OW50090  12.774   2.729   5.902
82753SOL    HW150091  12.699   2.698   5.953
82753SOL    HW250092  12.787   2.662   5.835
82754SOL     OW50093   4.663   0.361  13.872
82754SOL    HW150094   4.636   0.346  13.963
82754SOL    HW250095   4.635   0.282  13.826
82755SOL     OW50096   1.370   1.161  14.109
82755SOL    HW150097   1.319   1.236  14.079
82755SOL    HW250098   1.461   1.189  14.099
82756SOL     OW50099  14.636   3.249   1.183
82756SOL    HW150100  14.703   3.316   1.194
82756SOL    HW250101  14.602   3.262   1.095
82757SOL     OW50102  14.231  10.620  12.650
82757SOL    HW150103  14.244  10.529  12.674
82757SOL    HW250104  14.178  10.656  12.721
82758SOL     OW50105   5.559  10.438  12.094
82758SOL    HW150106   5.655  10.441  12.099
82758SOL    HW250107   5.534  10.525  12.065
82759SOL     OW50108   4.164   6.798   2.962
82759SOL    HW150109   4.088   6.848   2.931
82759SOL    HW250110   4.205   6.767   2.881
82760SOL     OW50111  12.441   8.458  13.333
82760SOL    HW150112  12.519   8.405  13.321
82760SOL    HW250113  12.369   8.402  13.304
82761SOL     OW50114   2.087   3.035  13.130
82761SOL    HW150115   2.056   3.115  13.173
82761SOL    HW250116   2.036   2.965  13.171
82762SOL     OW50117   1.291  14.150   7.122
82762SOL    HW150118   1.259  14.061   7.141
82762SOL    HW250119   1.239  14.178   7.047
82763SOL     OW50120   7.499  13.680   6.402
82763SOL    HW150121   7.529  13.591   6.423
82763SOL    HW250122   7.547  13.703   6.322
82764SOL     OW50123  13.522   3.060   5.079
82764SOL    HW150124  13.488   2.977   5.113
82764SOL    HW250125  13.526   3.117   5.156
82765SOL     OW50126   2.615   8.510   2.643
82765SOL    HW150127   2.660   8.567   2.705
82765SOL    HW250128   2.670   8.511   2.564
82766SOL     OW50129  10.448   4.469   8.290
82766SOL    HW150130  10.487   4.505   8.210
82766SOL    HW250131  10.467   4.535   8.356
82767SOL     OW50132   6.215  10.598   3.600
82767SOL    HW150133   6.169  10.521   3.634
82767SOL    HW250134   6.168  10.621   3.520
82768SOL     OW50135  11.715  11.734  14.796
82768SOL    HW150136  11.707  11.830  14.801
82768SOL    HW250137  11.625  11.703  14.793
82769SOL     OW50138   3.972  14.861   5.982
82769SOL    HW150139   4.005   0.073   5.950
82769SOL    HW250140   3.951   0.005   6.074
82770SOL     OW50141   9.161   9.506  13.150
82770SOL    HW150142   9.130   9.595  13.164
82770SOL    HW250143   9.108   9.474  13.077
82771SOL     OW50144   4.437   6.304   6.591
82771SOL    HW150145   4.524   6.327   6.558
82771SOL    HW250146   4.451   6.278   6.682
82772SOL     OW50147  10.079   5.452   6.690
82772SOL    HW150148  10.000   5.492   6.656
82772SOL    HW250149  10.151   5.499   6.647
82773SOL     OW50150   6.419  12.280   3.750
82773SOL    HW150151   6.507  12.259   3.780
82773SOL    HW250152   6.363  12.214   3.791
82774SOL     OW50153   7.336   4.050   9.724
82774SOL    HW150154   7.310   4.137   9.693
82774SOL    HW250155   7.267   3.991   9.692
82775SOL     OW50156  13.500   4.823   5.964
82775SOL    HW150157  13.491   4.898   5.905
82775SOL    HW250158  13.419   4.774   5.953
82776SOL     OW50159   1.729   2.269   9.289
82776SOL    HW150160   1.817   2.301   9.310
82776SOL    HW250161   1.682   2.346   9.257
82777SOL     OW50162   9.703   4.991  13.173
82777SOL    HW150163   9.730   4.985  13.264
82777SOL    HW250164   9.756   4.925  13.128
82778SOL     OW50165   2.933  11.220   1.476
82778SOL    HW150166   2.910  11.237   1.385
82778SOL    HW250167   2.911  11.128   1.490
82779SOL     OW50168  12.206  11.381  14.703
82779SOL    HW150169  12.223  11.467  14.665
82779SOL    HW250170  12.145  11.339  14.642
82780SOL     OW50171   8.476  13.684  13.597
82780SOL    HW150172   8.438  13.625  13.662
82780SOL    HW250173   8.542  13.632  13.553
82781SOL     OW50174  10.772  11.142  11.552
82781SOL    HW150175  10.856  11.100  11.569
82781SOL    HW250176  10.708  11.088  11.599
82782SOL     OW50177   7.972   7.770  11.281
82782SOL    HW150178   7.984   7.689  11.232
82782SOL    HW250179   8.051   7.821  11.264
82783SOL     OW50180   8.304  11.517   3.093
82783SOL    HW150181   8.301  11.486   3.002
82783SOL    HW250182   8.213  11.512   3.122
82784SOL     OW50183  10.840   8.134  10.679
82784SOL    HW150184  10.881   8.214  10.647
82784SOL    HW250185  10.748   8.157  10.692
82785SOL     OW50186  13.596   4.704  12.418
82785SOL    HW150187  13.690   4.685  12.415
82785SOL    HW250188  13.573   4.694  12.511
82786SOL     OW50189   6.863   4.384  11.282
82786SOL    HW150190   6.785   4.334  11.306
82786SOL    HW250191   6.913   4.391  11.364
82787SOL     OW50192  11.938  11.906   9.814
82787SOL    HW150193  11.959  11.999   9.804
82787SOL    HW250194  11.848  11.899   9.783
82788SOL     OW50195  13.984   1.182   7.494
82788SOL    HW150196  13.949   1.146   7.576
82788SOL    HW250197  14.033   1.259   7.520
82789SOL     OW50198   6.549   5.030   9.532
82789SOL    HW150199   6.533   5.015   9.625
82789SOL    HW250200   6.558   5.125   9.524
82790SOL     OW50201   6.521  12.115   5.728
82790SOL    HW150202   6.457  12.094   5.659
82790SOL    HW250203   6.505  12.207   5.748
82791SOL     OW50204   1.946   2.968   9.288
82791SOL    HW150205   1.887   2.962   9.363
82791SOL    HW250206   1.896   2.932   9.215
82792SOL     OW50207   1.325   9.890  14.660
82792SOL    HW150208   1.402   9.930  14.700
82792SOL    HW250209   1.266   9.872  14.734
82793SOL     OW50210   2.515  14.159  11.088
82793SOL    HW150211   2.462  14.239  11.086
82793SOL    HW250212   2.517  14.134  11.181
82794SOL     OW50213   6.589  14.125  12.443
82794SOL    HW150214   6.506  14.078  12.439
82794SOL    HW250215   6.605  14.152  12.352
82795SOL     OW50216  13.448   8.041   5.046
82795SOL    HW150217  13.360   8.039   5.083
82795SOL    HW250218  13.438   8.006   4.957
82796SOL     OW50219  10.163  12.492  14.362
82796SOL    HW150220  10.228  12.423  14.376
82796SOL    HW250221  10.146  12.489  14.268
82797SOL     OW50222  10.903   7.798  12.130
82797SOL    HW150223  10.932   7.721  12.178
82797SOL    HW250224  10.928   7.781  12.039
82798SOL     OW50225   2.100   1.975   9.287
82798SOL    HW150226   2.169   1.910   9.299
82798SOL    HW250227   2.122   2.018   9.205
82799SOL     OW50228  10.395  12.541   3.427
82799SOL    HW150229  10.351  12.553   3.343
82799SOL    HW250230  10.476  12.591   3.419
82800SOL     OW50231   6.992  13.299   9.456
82800SOL    HW150232   7.076  13.274   9.417
82800SOL    HW250233   6.930  13.297   9.384
82801SOL     OW50234   0.820   4.075   5.743
82801SOL    HW150235   0.727   4.092   5.727
82801SOL    HW250236   0.821   4.021   5.822
82802SOL     OW50237   3.766   3.413   3.083
82802SOL    HW150238   3.813   3.456   3.011
82802SOL    HW250239   3.690   3.468   3.098
82803SOL     OW50240   1.878   9.673   1.342
82803SOL    HW150241   1.971   9.694   1.331
82803SOL    HW250242   1.861   9.686   1.435
82804SOL     OW50243   0.678   0.136  12.798
82804SOL    HW150244   0.681   0.231  12.795
82804SOL    HW250245   0.620   0.116  12.872
82805SOL     OW50246   1.130   2.683   3.338
82805SOL    HW150247   1.215   2.714   3.368
82805SOL    HW250248   1.123   2.594   3.373
82806SOL     OW50249   2.680   4.476  11.039
82806SOL    HW150250   2.741   4.435  11.101
82806SOL    HW250251   2.647   4.553  11.084
82807SOL     OW50252  12.720   5.090  11.887
82807SOL    HW150253  12.791   5.096  11.823
82807SOL    HW250254  12.763   5.104  11.971
82808SOL     OW50255   0.473   7.729  11.420
82808SOL    HW150256   0.534   7.764  11.486
82808SOL    HW250257   0.392   7.713  11.468
82809SOL     OW50258   9.016   4.930   6.952
82809SOL    HW150259   9.102   4.968   6.933
82809SOL    HW250260   9.034   4.838   6.969
82810SOL     OW50261   9.441   1.833   1.383
82810SOL    HW150262   9.479   1.917   1.407
82810SOL    HW250263   9.438   1.834   1.287
82811SOL     OW50264   4.630   7.248   4.128
82811SOL    HW150265   4.726   7.251   4.120
82811SOL    HW250266   4.607   7.159   4.103
82812SOL     OW50267   4.398  11.558  11.419
82812SOL    HW150268   4.487  11.587  11.441
82812SOL    HW250269   4.389  11.575  11.326
82813SOL     OW50270  11.509  13.283   0.573
82813SOL    HW150271  11.473  13.249   0.655
82813SOL    HW250272  11.447  13.351   0.546
82814SOL     OW50273  11.510  12.152   7.695
82814SOL    HW150274  11.580  12.182   7.753
82814SOL    HW250275  11.438  12.128   7.754
82815SOL     OW50276   4.694   6.357  11.568
82815SOL    HW150277   4.780   6.393  11.549
82815SOL    HW250278   4.659   6.332  11.482
82816SOL     OW50279   9.192   2.430   0.704
82816SOL    HW150280   9.263   2.459   0.646
82816SOL    HW250281   9.138   2.508   0.716
82817SOL     OW50282   8.402   0.001   2.695
82817SOL    HW150283   8.388   0.054   2.773
82817SOL    HW250284   8.322   0.011   2.643
82818SOL     OW50285   7.997   0.988   2.948
82818SOL    HW150286   8.080   0.946   2.970
82818SOL    HW250287   8.017   1.044   2.873
82819SOL     OW50288   3.321  10.643  10.401
82819SOL    HW150289   3.381  10.606  10.465
82819SOL    HW250290   3.348  10.734  10.391
82820SOL     OW50291   2.685   2.153  14.570
82820SOL    HW150292   2.707   2.090  14.501
82820SOL    HW250293   2.624   2.107  14.627
82821SOL     OW50294  13.217   8.593  10.077
82821SOL    HW150295  13.215   8.621   9.986
82821SOL    HW250296  13.125   8.579  10.100
82822SOL     OW50297  14.661   3.302  10.519
82822SOL    HW150298  14.677   3.376  10.576
82822SOL    HW250299  14.735   3.243  10.535
82823SOL     OW50300   8.724   1.445  10.130
82823SOL    HW150301   8.715   1.529  10.086
82823SOL    HW250302   8.773   1.464  10.210
82824SOL     OW50303  12.562  14.427   6.821
82824SOL    HW150304  12.528  14.416   6.910
82824SOL    HW250305  12.505  14.492   6.781
82825SOL     OW50306  13.304   2.234   3.582
82825SOL    HW150307  13.236   2.208   3.644
82825SOL    HW250308  13.282   2.188   3.501
82826SOL     OW50309   1.167   7.111   4.205
82826SOL    HW150310   1.150   7.106   4.299
82826SOL    HW250311   1.109   7.181   4.174
82827SOL     OW50312  10.661   4.751   2.587
82827SOL    HW150313  10.752   4.770   2.610
82827SOL    HW250314  10.631   4.690   2.654
82828SOL     OW50315   8.314   0.230  11.727
82828SOL    HW150316   8.227   0.271  11.728
82828SOL    HW250317   8.314   0.176  11.648
82829SOL     OW50318   9.969   3.900   0.738
82829SOL    HW150319  10.064   3.905   0.725
82829SOL    HW250320   9.952   3.807   0.754
82830SOL     OW50321   9.591   4.734   5.270
82830SOL    HW150322   9.570   4.645   5.298
82830SOL    HW250323   9.505   4.775   5.258
82831SOL     OW50324  12.878  10.335   4.388
82831SOL    HW150325  12.803  10.374   4.434
82831SOL    HW250326  12.843  10.311   4.302
82832SOL     OW50327   0.629   6.169  11.375
82832SOL    HW150328   0.686   6.096  11.398
82832SOL    HW250329   0.685   6.229  11.327
82833SOL     OW50330   0.325  14.211   1.109
82833SOL    HW150331   0.320  14.256   1.024
82833SOL    HW250332   0.418  14.205   1.127
82834SOL     OW50333  10.485  14.103  14.819
82834SOL    HW150334  10.420  14.037  14.797
82834SOL    HW250335  10.435  14.174  14.860
82835SOL     OW50336   3.330   7.013  13.581
82835SOL    HW150337   3.390   7.085  13.604
82835SOL    HW250338   3.324   7.017  13.485
82836SOL     OW50339   0.207  14.590   0.219
82836SOL    HW150340   0.184  14.507   0.259
82836SOL    HW250341   0.302  14.589   0.211
82837SOL     OW50342  11.061   2.016   3.625
82837SOL    HW150343  11.051   1.921   3.616
82837SOL    HW250344  11.006   2.052   3.556
82838SOL     OW50345  14.809  13.202  12.754
82838SOL    HW150346  14.861  13.266  12.705
82838SOL    HW250347   0.000  13.137  12.785
82839SOL     OW50348   0.048   1.132   5.918
82839SOL    HW150349   0.015   1.043   5.931
82839SOL    HW250350   0.122   1.121   5.858
82840SOL     OW50351   0.057   7.236   4.606
82840SOL    HW150352   0.052   7.231   4.511
82840SOL    HW250353   0.127   7.174   4.630
82841SOL     OW50354   7.846  13.124   6.876
82841SOL    HW150355   7.826  13.067   6.950
82841SOL    HW250356   7.862  13.064   6.803
82842SOL     OW50357  10.466   0.071   4.208
82842SOL    HW150358  10.412   0.115   4.274
82842SOL    HW250359  10.403   0.034   4.147
82843SOL     OW50360  12.217  10.438  12.676
82843SOL    HW150361  12.273  10.515  12.671
82843SOL    HW250362  12.264  10.378  12.734
82844SOL     OW50363   8.567   0.513  14.018
82844SOL    HW150364   8.548   0.537  13.927
82844SOL    HW250365   8.481   0.506  14.059
82845SOL     OW50366  13.102   1.523  14.651
82845SOL    HW150367  13.138   1.439  14.679
82845SOL    HW250368  13.177   1.582  14.648
82846SOL     OW50369   0.171   8.312   1.919
82846SOL    HW150370   0.262   8.283   1.909
82846SOL    HW250371   0.119   8.238   1.886
82847SOL     OW50372   1.406   3.962   7.220
82847SOL    HW150373   1.419   3.883   7.274
82847SOL    HW250374   1.406   3.929   7.130
82848SOL     OW50375  14.164  11.228   3.627
82848SOL    HW150376  14.176  11.137   3.655
82848SOL    HW250377  14.139  11.222   3.535
82849SOL     OW50378   3.173   6.056  14.389
82849SOL    HW150379   3.175   6.126  14.324
82849SOL    HW250380   3.143   5.979  14.340
82850SOL     OW50381   8.813   4.452  14.063
82850SOL    HW150382   8.886   4.397  14.094
82850SOL    HW250383   8.849   4.497  13.986
82851SOL     OW50384   5.039   9.539   7.095
82851SOL    HW150385   5.034   9.481   7.019
82851SOL    HW250386   4.951   9.575   7.104
82852SOL     OW50387   6.055   5.598  11.136
82852SOL    HW150388   6.010   5.570  11.056
82852SOL    HW250389   5.990   5.584  11.206
82853SOL     OW50390  12.375   8.838   0.256
82853SOL    HW150391  12.350   8.913   0.203
82853SOL    HW250392  12.298   8.821   0.311
82854SOL     OW50393  10.978   6.886  12.264
82854SOL    HW150394  10.891   6.860  12.233
82854SOL    HW250395  10.984   6.847  12.351
82855SOL     OW50396   0.863   0.045  10.637
82855SOL    HW150397   0.873  14.861  10.713
82855SOL    HW250398   0.924   0.117  10.652
82856SOL     OW50399  14.100   0.187   3.112
82856SOL    HW150400  14.140   0.268   3.142
82856SOL    HW250401  14.174   0.130   3.092
82857SOL     OW50402   6.298  14.119   4.148
82857SOL    HW150403   6.271  14.131   4.057
82857SOL    HW250404   6.331  14.029   4.152
82858SOL     OW50405   4.934   3.691   1.143
82858SOL    HW150406   4.885   3.699   1.061
82858SOL    HW250407   5.004   3.628   1.123
82859SOL     OW50408   4.127   5.238   3.220
82859SOL    HW150409   4.131   5.330   3.194
82859SOL    HW250410   4.070   5.197   3.155
82860SOL     OW50411   3.817   8.978  11.097
82860SOL    HW150412   3.879   8.975  11.171
82860SOL    HW250413   3.792   9.070  11.091
82861SOL     OW50414  14.167  10.760   5.636
82861SOL    HW150415  14.104  10.828   5.658
82861SOL    HW250416  14.216  10.796   5.561
82862SOL     OW50417   1.471   1.577  10.022
82862SOL    HW150418   1.450   1.487   9.996
82862SOL    HW250419   1.467   1.627   9.941
82863SOL     OW50420   6.078   1.203   2.400
82863SOL    HW150421   6.104   1.114   2.373
82863SOL    HW250422   5.986   1.209   2.378
82864SOL     OW50423  13.962  13.833   7.932
82864SOL    HW150424  13.960  13.916   7.885
82864SOL    HW250425  13.972  13.767   7.863
82865SOL     OW50426   2.413   8.906   4.118
82865SOL    HW150427   2.394   8.844   4.048
82865SOL    HW250428   2.355   8.979   4.102
82866SOL     OW50429  10.430   4.177  14.121
82866SOL    HW150430  10.348   4.203  14.079
82866SOL    HW250431  10.464   4.258  14.159
82867SOL     OW50432   4.987   3.693  12.213
82867SOL    HW150433   4.917   3.628  12.218
82867SOL    HW250434   4.986   3.722  12.121
82868SOL     OW50435   9.498   5.352   9.854
82868SOL    HW150436   9.510   5.446   9.869
82868SOL    HW250437   9.438   5.324   9.924
82869SOL     OW50438   3.599   9.558  13.282
82869SOL    HW150439   3.662   9.520  13.222
82869SOL    HW250440   3.620   9.651  13.284
82870SOL     OW50441   7.231   1.396  11.379
82870SOL    HW150442   7.153   1.353  11.413
82870SOL    HW250443   7.220   1.488  11.405
82871SOL     OW50444   4.587  11.797  14.199
82871SOL    HW150445   4.536  11.860  14.147
82871SOL    HW250446   4.675  11.800  14.161
82872SOL     OW50447   0.164   4.183   9.808
82872SOL    HW150448   0.180   4.208   9.717
82872SOL    HW250449   0.115   4.101   9.803
82873SOL     OW50450  10.448   2.215   5.669
82873SOL    HW150451  10.404   2.237   5.587
82873SOL    HW250452  10.380   2.173   5.723
82874SOL     OW50453   7.010   0.217  11.266
82874SOL    HW150454   7.036   0.284  11.203
82874SOL    HW250455   6.929   0.250  11.304
82875SOL     OW50456   5.437   4.222   8.167
82875SOL    HW150457   5.510   4.278   8.192
82875SOL    HW250458   5.373   4.231   8.238
82876SOL     OW50459  13.116   8.325   2.011
82876SOL    HW150460  13.122   8.375   2.093
82876SOL    HW250461  13.207   8.316   1.982
82877SOL     OW50462  12.622  14.524   6.101
82877SOL    HW150463  12.543  14.517   6.154
82877SOL    HW250464  12.590  14.541   6.013
82878SOL     OW50465  12.622  10.747   3.024
82878SOL    HW150466  12.594  10.717   2.937
82878SOL    HW250467  12.717  10.739   3.022
82879SOL     OW50468   5.061   3.577   8.465
82879SOL    HW150469   5.080   3.493   8.507
82879SOL    HW250470   4.966   3.573   8.448
82880SOL     OW50471   1.655  13.756   1.500
82880SOL    HW150472   1.618  13.844   1.492
82880SOL    HW250473   1.592  13.708   1.553
82881SOL     OW50474   8.562   1.325   4.734
82881SOL    HW150475   8.487   1.299   4.681
82881SOL    HW250476   8.546   1.417   4.754
82882SOL     OW50477   4.796   3.349  11.558
82882SOL    HW150478   4.754   3.263  11.566
82882SOL    HW250479   4.740   3.407  11.609
82883SOL     OW50480   7.380   8.513   1.325
82883SOL    HW150481   7.343   8.500   1.237
82883SOL    HW250482   7.307   8.494   1.384
82884SOL     OW50483  12.372   9.301   0.316
82884SOL    HW150484  12.339   9.228   0.263
82884SOL    HW250485  12.355   9.378   0.262
82885SOL     OW50486   6.967   2.273   4.690
82885SOL    HW150487   7.007   2.272   4.603
82885SOL    HW250488   7.040   2.289   4.750
82886SOL     OW50489   6.635   9.849  12.135
82886SOL    HW150490   6.642   9.860  12.040
82886SOL    HW250491   6.675   9.928  12.172
82887SOL     OW50492   4.035   4.604   9.647
82887SOL    HW150493   4.001   4.515   9.656
82887SOL    HW250494   4.127   4.597   9.675
82888SOL     OW50495   0.676   0.929  11.073
82888SOL    HW150496   0.638   0.963  10.992
82888SOL    HW250497   0.722   1.004  11.111
82889SOL     OW50498   9.882   0.070  14.523
82889SOL    HW150499   9.814   0.064  14.590
82889SOL    HW250500   9.953   0.014  14.556
82890SOL     OW50501   4.644   1.907   0.310
82890SOL    HW150502   4.552   1.885   0.322
82890SOL    HW250503   4.692   1.829   0.338
82891SOL     OW50504   1.501   4.054  12.974
82891SOL    HW150505   1.417   4.014  12.954
82891SOL    HW250506   1.523   4.104  12.896
82892SOL     OW50507   7.544  10.826   5.109
82892SOL    HW150508   7.524  10.868   5.026
82892SOL    HW250509   7.517  10.735   5.098
82893SOL     OW50510  12.517   7.152   4.387
82893SOL    HW150511  12.594   7.126   4.337
82893SOL    HW250512  12.443   7.121   4.336
82894SOL     OW50513   2.734   6.772  11.646
82894SOL    HW150514   2.651   6.753  11.603
82894SOL    HW250515   2.715   6.846  11.703
82895SOL     OW50516   4.259  10.855  13.109
82895SOL    HW150517   4.242  10.863  13.015
82895SOL    HW250518   4.278  10.944  13.137
82896SOL     OW50519   7.186   2.595  13.900
82896SOL    HW150520   7.101   2.640  13.900
82896SOL    HW250521   7.231   2.630  13.976
82897SOL     OW50522  11.189   8.688   7.139
82897SOL    HW150523  11.096   8.710   7.132
82897SOL    HW250524  11.189   8.598   7.173
82898SOL     OW50525   3.434   6.576   8.791
82898SOL    HW150526   3.441   6.558   8.697
82898SOL    HW250527   3.340   6.570   8.809
82899SOL     OW50528  11.447   8.873  14.007
82899SOL    HW150529  11.484   8.894  14.093
82899SOL    HW250530  11.388   8.799  14.023
82900SOL     OW50531   5.237  10.527  10.919
82900SOL    HW150532   5.297  10.467  10.875
82900SOL    HW250533   5.233  10.603  10.861
82901SOL     OW50534   2.586   2.061   4.246
82901SOL    HW150535   2.570   2.150   4.215
82901SOL    HW250536   2.557   2.062   4.337
82902SOL     OW50537   7.480   0.475   7.185
82902SOL    HW150538   7.517   0.489   7.272
82902SOL    HW250539   7.488   0.380   7.170
82903SOL     OW50540   8.057   3.593  14.741
82903SOL    HW150541   8.112   3.665  14.773
82903SOL    HW250542   8.036   3.618  14.651
82904SOL     OW50543  12.260  13.462   6.171
82904SOL    HW150544  12.265  13.401   6.097
82904SOL    HW250545  12.168  13.461   6.197
82905SOL     OW50546  12.187   5.711   1.216
82905SOL    HW150547  12.135   5.787   1.240
82905SOL    HW250548  12.200   5.719   1.122
82906SOL     OW50549  10.905  11.668   1.164
82906SOL    HW150550  10.871  11.701   1.080
82906SOL    HW250551  10.989  11.628   1.142
82907SOL     OW50552   8.524   7.776   4.191
82907SOL    HW150553   8.474   7.857   4.190
82907SOL    HW250554   8.598   7.792   4.132
82908SOL     OW50555  14.807   5.005   9.066
82908SOL    HW150556  14.740   5.072   9.084
82908SOL    HW250557  14.831   4.971   9.152
82909SOL     OW50558  11.960   5.071  11.762
82909SOL    HW150559  12.038   5.034  11.803
82909SOL    HW250560  11.891   5.061  11.828
82910SOL     OW50561   8.336   3.742   1.151
82910SOL    HW150562   8.344   3.646   1.145
82910SOL    HW250563   8.300   3.768   1.066
82911SOL     OW50564   3.192  14.298   7.551
82911SOL    HW150565   3.173  14.304   7.644
82911SOL    HW250566   3.283  14.267   7.547
82912SOL     OW50567   9.501   6.741   0.050
82912SOL    HW150568   9.473   6.677   0.116
82912SOL    HW250569   9.551   6.806   0.100
82913SOL     OW50570   7.641   7.667   1.492
82913SOL    HW150571   7.696   7.736   1.456
82913SOL    HW250572   7.555   7.708   1.503
82914SOL     OW50573   7.510   4.271   7.648
82914SOL    HW150574   7.539   4.241   7.734
82914SOL    HW250575   7.414   4.268   7.653
82915SOL     OW50576   2.312  14.481   3.856
82915SOL    HW150577   2.308  14.386   3.854
82915SOL    HW250578   2.247  14.509   3.791
82916SOL     OW50579   7.299   2.107  13.643
82916SOL    HW150580   7.333   2.018  13.639
82916SOL    HW250581   7.375   2.163  13.623
82917SOL     OW50582   0.451  11.032  10.136
82917SOL    HW150583   0.380  10.979  10.173
82917SOL    HW250584   0.452  11.008  10.043
82918SOL     OW50585  10.424   7.405  11.431
82918SOL    HW150586  10.334   7.437  11.422
82918SOL    HW250587  10.467   7.430  11.350
82919SOL     OW50588   1.927  11.078  13.049
82919SOL    HW150589   1.867  11.054  13.119
82919SOL    HW250590   2.004  11.022  13.063
82920SOL     OW50591  10.299   4.896   8.362
82920SOL    HW150592  10.211   4.933   8.362
82920SOL    HW250593  10.319   4.881   8.455
82921SOL     OW50594   3.061   4.352   9.955
82921SOL    HW150595   3.133   4.348  10.017
82921SOL    HW250596   3.076   4.433   9.906
82922SOL     OW50597  12.521   6.522   7.170
82922SOL    HW150598  12.548   6.493   7.082
82922SOL    HW250599  12.604   6.540   7.214
82923SOL     OW50600   9.693   4.589   6.007
82923SOL    HW150601   9.746   4.526   6.057
82923SOL    HW250602   9.604   4.576   6.038
82924SOL     OW50603   9.410  13.476   5.335
82924SOL    HW150604   9.429  13.425   5.413
82924SOL    HW250605   9.465  13.554   5.343
82925SOL     OW50606   3.846   5.490   7.375
82925SOL    HW150607   3.903   5.535   7.438
82925SOL    HW250608   3.781   5.446   7.429
82926SOL     OW50609   5.942   1.418  11.129
82926SOL    HW150610   5.863   1.364  11.126
82926SOL    HW250611   5.995   1.380  11.199
82927SOL     OW50612   8.272   2.542   1.562
82927SOL    HW150613   8.260   2.582   1.475
82927SOL    HW250614   8.286   2.449   1.544
82928SOL     OW50615  10.107   7.672   0.240
82928SOL    HW150616  10.030   7.657   0.296
82928SOL    HW250617  10.178   7.627   0.284
82929SOL     OW50618   0.317  14.219  14.114
82929SOL    HW150619   0.251  14.151  14.128
82929SOL    HW250620   0.323  14.228  14.019
82930SOL     OW50621  14.541   5.649   1.658
82930SOL    HW150622  14.547   5.571   1.714
82930SOL    HW250623  14.457   5.640   1.613
82931SOL     OW50624  10.107   0.501   1.985
82931SOL    HW150625  10.087   0.509   2.079
82931SOL    HW250626  10.126   0.590   1.957
82932SOL     OW50627   9.987  11.441   8.369
82932SOL    HW150628  10.059  11.499   8.344
82932SOL    HW250629  10.024  11.385   8.438
82933SOL     OW50630   1.904   3.903   1.314
82933SOL    HW150631   1.914   3.809   1.325
82933SOL    HW250632   1.960   3.925   1.239
82934SOL     OW50633   9.266   5.689   5.707
82934SOL    HW150634   9.269   5.597   5.733
82934SOL    HW250635   9.207   5.691   5.631
82935SOL     OW50636  11.251  14.298  10.748
82935SOL    HW150637  11.253  14.333  10.837
82935SOL    HW250638  11.169  14.249  10.744
82936SOL     OW50639   6.076   6.460  12.931
82936SOL    HW150640   5.988   6.496  12.942
82936SOL    HW250641   6.074   6.376  12.977
82937SOL     OW50642  12.175   8.214   6.066
82937SOL    HW150643  12.170   8.254   5.979
82937SOL    HW250644  12.110   8.143   6.063
82938SOL     OW50645   5.838   7.578   6.858
82938SOL    HW150646   5.774   7.587   6.929
82938SOL    HW250647   5.846   7.667   6.823
82939SOL     OW50648   9.203   2.968   8.738
82939SOL    HW150649   9.176   2.913   8.812
82939SOL    HW250650   9.167   3.054   8.757
82940SOL     OW50651   7.378   2.231   9.641
82940SOL    HW150652   7.435   2.154   9.638
82940SOL    HW250653   7.326   2.220   9.721
82941SOL     OW50654   2.027  11.130   2.924
82941SOL    HW150655   2.076  11.077   2.987
82941SOL    HW250656   2.079  11.125   2.843
82942SOL     OW50657   6.032   2.176   9.502
82942SOL    HW150658   6.098   2.107   9.507
82942SOL    HW250659   6.011   2.183   9.409
82943SOL     OW50660  14.330   8.951   9.410
82943SOL    HW150661  14.270   9.009   9.457
82943SOL    HW250662  14.371   9.008   9.344
82944SOL     OW50663  13.176   2.360  11.267
82944SOL    HW150664  13.231   2.297  11.314
82944SOL    HW250665  13.087   2.325  11.276
82945SOL     OW50666   7.042  14.077   5.989
82945SOL    HW150667   7.114  14.013   5.990
82945SOL    HW250668   6.988  14.051   5.914
82946SOL     OW50669  10.745   7.305  14.800
82946SOL    HW150670  10.796   7.250  14.861
82946SOL    HW250671  10.692   7.360  14.857
82947SOL     OW50672  13.566   2.438   8.109
82947SOL    HW150673  13.548   2.360   8.161
82947SOL    HW250674  13.660   2.451   8.117
82948SOL     OW50675   6.516   9.027  13.402
82948SOL    HW150676   6.440   8.985  13.363
82948SOL    HW250677   6.591   8.984  13.360
82949SOL     OW50678  12.274   1.665   4.736
82949SOL    HW150679  12.321   1.620   4.665
82949SOL    HW250680  12.342   1.710   4.786
82950SOL     OW50681  11.880   7.515   9.999
82950SOL    HW150682  11.838   7.546   9.918
82950SOL    HW250683  11.844   7.571  10.067
82951SOL     OW50684  12.941   8.103  14.539
82951SOL    HW150685  12.986   8.097  14.454
82951SOL    HW250686  13.007   8.078  14.603
82952SOL     OW50687   2.673   8.901   9.739
82952SOL    HW150688   2.599   8.841   9.724
82952SOL    HW250689   2.667   8.965   9.669
82953SOL     OW50690   0.748   3.774  13.647
82953SOL    HW150691   0.672   3.833  13.644
82953SOL    HW250692   0.821   3.827  13.617
82954SOL     OW50693   5.836   6.233   0.936
82954SOL    HW150694   5.809   6.173   1.005
82954SOL    HW250695   5.760   6.289   0.921
82955SOL     OW50696   0.927   3.967  10.763
82955SOL    HW150697   0.968   3.951  10.849
82955SOL    HW250698   0.893   3.881  10.737
82956SOL     OW50699   0.098   9.605  10.761
82956SOL    HW150700   0.076   9.529  10.815
82956SOL    HW250701   0.190   9.622  10.781
82957SOL     OW50702   3.038  10.588   6.943
82957SOL    HW150703   3.049  10.581   6.849
82957SOL    HW250704   2.948  10.617   6.955
82958SOL     OW50705   9.433   3.518  11.978
82958SOL    HW150706   9.393   3.435  11.952
82958SOL    HW250707   9.516   3.520  11.930
82959SOL     OW50708   8.068  12.127   9.767
82959SOL    HW150709   8.107  12.041   9.784
82959SOL    HW250710   7.985  12.126   9.813
82960SOL     OW50711  13.849  11.998   5.106
82960SOL    HW150712  13.792  12.075   5.100
82960SOL    HW250713  13.903  12.014   5.183
82961SOL     OW50714  11.937  12.573  12.509
82961SOL    HW150715  11.966  12.495  12.557
82961SOL    HW250716  11.907  12.540  12.425
82962SOL     OW50717   8.155  11.981   6.775
82962SOL    HW150718   8.212  12.038   6.724
82962SOL    HW250719   8.195  11.978   6.862
82963SOL     OW50720   2.159  10.619   0.467
82963SOL    HW150721   2.157  10.528   0.497
82963SOL    HW250722   2.078  10.657   0.501
82964SOL     OW50723  11.605   1.583  14.793
82964SOL    HW150724  11.674   1.536  14.745
82964SOL    HW250725  11.608   1.672  14.757
82965SOL     OW50726   1.721   5.794   9.556
82965SOL    HW150727   1.654   5.814   9.621
82965SOL    HW250728   1.672   5.771   9.477
82966SOL     OW50729   8.572   4.337  13.930
82966SOL    HW150730   8.592   4.254  13.885
82966SOL    HW250731   8.656   4.381  13.936
82967SOL     OW50732   6.216  11.958   4.144
82967SOL    HW150733   6.136  12.001   4.114
82967SOL    HW250734   6.214  11.872   4.104
82968SOL     OW50735   5.596   4.668   3.377
82968SOL    HW150736   5.622   4.743   3.430
82968SOL    HW250737   5.627   4.689   3.289
82969SOL     OW50738   8.502   5.021   3.827
82969SOL    HW150739   8.445   5.095   3.849
82969SOL    HW250740   8.478   4.952   3.888
82970SOL     OW50741   3.086   3.873   0.845
82970SOL    HW150742   3.098   3.968   0.838
82970SOL    HW250743   3.049   3.860   0.933
82971SOL     OW50744   6.398   9.697   9.119
82971SOL    HW150745   6.488   9.713   9.147
82971SOL    HW250746   6.367   9.782   9.088
82972SOL     OW50747  14.792   4.485   3.915
82972SOL    HW150748  14.859   4.473   3.848
82972SOL    HW250749  14.760   4.397   3.933
82973SOL     OW50750   8.537  10.915   6.340
82973SOL    HW150751   8.522  10.891   6.249
82973SOL    HW250752   8.619  10.964   6.339
82974SOL     OW50753  14.038   9.188   4.590
82974SOL    HW150754  14.105   9.141   4.640
82974SOL    HW250755  14.085   9.226   4.516
82975SOL     OW50756   7.771   2.247   6.653
82975SOL    HW150757   7.687   2.291   6.646
82975SOL    HW250758   7.754   2.171   6.709
82976SOL     OW50759   9.849   7.393   2.441
82976SOL    HW150760   9.883   7.327   2.380
82976SOL    HW250761   9.777   7.434   2.394
82977SOL     OW50762   0.272   8.673  14.679
82977SOL    HW150763   0.307   8.592  14.716
82977SOL    HW250764   0.349   8.725  14.658
82978SOL     OW50765   3.263   1.288  10.646
82978SOL    HW150766   3.185   1.329  10.608
82978SOL    HW250767   3.258   1.197  10.616
82979SOL     OW50768   8.146   1.597   5.789
82979SOL    HW150769   8.082   1.667   5.774
82979SOL    HW250770   8.230   1.635   5.763
82980SOL     OW50771   4.620   5.870  14.641
82980SOL    HW150772   4.541   5.924  14.644
82980SOL    HW250773   4.629   5.835  14.729
82981SOL     OW50774  14.365  13.857   7.001
82981SOL    HW150775  14.451  13.897   6.986
82981SOL    HW250776  14.382  13.762   7.000
82982SOL     OW50777   3.968  14.817   5.297
82982SOL    HW150778   3.912   0.007   5.342
82982SOL    HW250779   3.960  14.736   5.347
82983SOL     OW50780  10.922   8.643  13.637
82983SOL    HW150781  10.993   8.608  13.691
82983SOL    HW250782  10.939   8.737  13.634
82984SOL     OW50783   9.697   0.930   5.160
82984SOL    HW150784   9.712   0.917   5.067
82984SOL    HW250785   9.749   0.862   5.203
82985SOL     OW50786   2.199  12.670   1.974
82985SOL    HW150787   2.242  12.707   1.896
82985SOL    HW250788   2.237  12.719   2.047
82986SOL     OW50789   3.209   9.814   8.700
82986SOL    HW150790   3.277   9.847   8.758
82986SOL    HW250791   3.177   9.890   8.653
82987SOL     OW50792   3.840   5.522  11.708
82987SOL    HW150793   3.824   5.512  11.802
82987SOL    HW250794   3.755   5.503  11.667
82988SOL     OW50795   2.388   0.972   2.684
82988SOL    HW150796   2.374   0.881   2.659
82988SOL    HW250797   2.458   1.003   2.627
82989SOL     OW50798   3.317  11.345   8.577
82989SOL    HW150799   3.408  11.365   8.598
82989SOL    HW250800   3.323  11.273   8.514
82990SOL     OW50801  14.332  14.381  12.700
82990SOL    HW150802  14.284  14.328  12.764
82990SOL    HW250803  14.374  14.449  12.752
82991SOL     OW50804   0.687  11.115   7.661
82991SOL    HW150805   0.654  11.201   7.636
82991SOL    HW250806   0.748  11.133   7.733
82992SOL     OW50807  10.920   4.233   0.831
82992SOL    HW150808  10.853   4.230   0.763
82992SOL    HW250809  10.952   4.323   0.829
82993SOL     OW50810   4.877   0.961   7.201
82993SOL    HW150811   4.905   0.985   7.113
82993SOL    HW250812   4.941   0.895   7.229
82994SOL     OW50813   8.041   8.755  10.950
82994SOL    HW150814   8.093   8.800  10.884
82994SOL    HW250815   8.057   8.804  11.031
82995SOL     OW50816  12.450   7.864  11.686
82995SOL    HW150817  12.480   7.934  11.745
82995SOL    HW250818  12.361   7.889  11.663
82996SOL     OW50819  14.254   9.393   4.794
82996SOL    HW150820  14.194   9.350   4.855
82996SOL    HW250821  14.200   9.418   4.719
82997SOL     OW50822  14.410   3.782   7.652
82997SOL    HW150823  14.399   3.690   7.677
82997SOL    HW250824  14.363   3.790   7.569
82998SOL     OW50825   2.565   5.261   8.684
82998SOL    HW150826   2.652   5.238   8.652
82998SOL    HW250827   2.578   5.339   8.738
82999SOL     OW50828   9.354  13.865  10.698
82999SOL    HW150829   9.435  13.913  10.718
82999SOL    HW250830   9.340  13.881  10.604
83000SOL     OW50831   3.737   7.169  14.517
83000SOL    HW150832   3.739   7.106  14.445
83000SOL    HW250833   3.829   7.182  14.540
83001SOL     OW50834  12.402  10.656   9.969
83001SOL    HW150835  12.308  10.648   9.952
83001SOL    HW250836  12.408  10.685  10.060
83002SOL     OW50837   6.819   9.354   0.248
83002SOL    HW150838   6.805   9.347   0.154
83002SOL    HW250839   6.899   9.305   0.265
83003SOL     OW50840  13.022  10.502  14.575
83003SOL    HW150841  12.931  10.521  14.597
83003SOL    HW250842  13.025  10.406  14.570
83004SOL     OW50843   9.244   5.394  11.540
83004SOL    HW150844   9.252   5.381  11.635
83004SOL    HW250845   9.169   5.339  11.515
83005SOL     OW50846   7.901  12.580   5.918
83005SOL    HW150847   7.937  12.634   5.848
83005SOL    HW250848   7.976  12.533   5.954
83006SOL     OW50849   8.827   3.959  13.202
83006SOL    HW150850   8.753   3.993  13.252
83006SOL    HW250851   8.800   3.969  13.110
83007SOL     OW50852  13.170   7.334  13.329
83007SOL    HW150853  13.203   7.325  13.418
83007SOL    HW250854  13.225   7.276  13.276
83008SOL     OW50855   0.420  11.126   1.408
83008SOL    HW150856   0.390  11.049   1.457
83008SOL    HW250857   0.377  11.200   1.451
83009SOL     OW50858   5.896  11.037  12.290
83009SOL    HW150859   5.946  11.084  12.356
83009SOL    HW250860   5.808  11.030  12.326
83010SOL     OW50861   6.995  12.665   4.423
83010SOL    HW150862   6.907  12.640   4.451
83010SOL    HW250863   7.047  12.662   4.503
83011SOL     OW50864   2.944  14.391  11.803
83011SOL    HW150865   2.890  14.458  11.845
83011SOL    HW250866   2.994  14.352  11.875
83012SOL     OW50867   2.560   4.601   8.732
83012SOL    HW150868   2.653   4.601   8.710
83012SOL    HW250869   2.516   4.569   8.654
83013SOL     OW50870  14.045   7.236   1.756
83013SOL    HW150871  13.990   7.179   1.811
83013SOL    HW250872  14.069   7.308   1.814
83014SOL     OW50873  11.600  12.296   6.176
83014SOL    HW150874  11.560  12.373   6.217
83014SOL    HW250875  11.693  12.314   6.175
83015SOL     OW50876   4.840   4.187   7.155
83015SOL    HW150877   4.922   4.139   7.165
83015SOL    HW250878   4.824   4.186   7.060
83016SOL     OW50879   8.000   3.880  14.430
83016SOL    HW150880   7.997   3.963  14.383
83016SOL    HW250881   7.945   3.894  14.507
83017SOL     OW50882   0.152   1.029   6.573
83017SOL    HW150883   0.148   1.097   6.641
83017SOL    HW250884   0.213   0.964   6.608
83018SOL     OW50885   0.418  10.208   1.319
83018SOL    HW150886   0.458  10.121   1.313
83018SOL    HW250887   0.324  10.191   1.323
83019SOL     OW50888   8.810   0.917   4.669
83019SOL    HW150889   8.826   0.826   4.645
83019SOL    HW250890   8.723   0.937   4.635
83020SOL     OW50891   2.149  11.784   3.167
83020SOL    HW150892   2.244  11.779   3.155
83020SOL    HW250893   2.121  11.692   3.170
83021SOL     OW50894   8.621  10.713   1.585
83021SOL    HW150895   8.630  10.782   1.519
83021SOL    HW250896   8.712  10.692   1.609
83022SOL     OW50897   3.901   1.494   8.274
83022SOL    HW150898   3.977   1.449   8.237
83022SOL    HW250899   3.931   1.528   8.358
83023SOL     OW50900   4.171  11.697  11.525
83023SOL    HW150901   4.150  11.704  11.431
83023SOL    HW250902   4.261  11.665  11.527
83024SOL     OW50903  14.608   8.244   6.053
83024SOL    HW150904  14.616   8.163   6.003
83024SOL    HW250905  14.580   8.216   6.140
83025SOL     OW50906   0.975   1.236   7.871
83025SOL    HW150907   1.021   1.292   7.933
83025SOL    HW250908   1.034   1.231   7.795
83026SOL     OW50909  12.204   2.453   6.140
83026SOL    HW150910  12.279   2.430   6.194
83026SOL    HW250911  12.220   2.543   6.113
83027SOL     OW50912   4.520  12.572   9.855
83027SOL    HW150913   4.492  12.661   9.831
83027SOL    HW250914   4.566  12.539   9.778
83028SOL     OW50915   2.926  13.506   5.567
83028SOL    HW150916   2.899  13.430   5.619
83028SOL    HW250917   2.968  13.469   5.490
83029SOL     OW50918   1.599   0.505   9.051
83029SOL    HW150919   1.524   0.561   9.072
83029SOL    HW250920   1.657   0.514   9.127
83030SOL     OW50921   7.622  12.676   4.007
83030SOL    HW150922   7.668  12.698   3.925
83030SOL    HW250923   7.541  12.634   3.979
83031SOL     OW50924  11.422  10.188   5.493
83031SOL    HW150925  11.354  10.158   5.432
83031SOL    HW250926  11.389  10.164   5.579
83032SOL     OW50927   1.570   5.696  11.804
83032SOL    HW150928   1.578   5.601  11.796
83032SOL    HW250929   1.512   5.709  11.879
83033SOL     OW50930  10.362   0.247   4.441
83033SOL    HW150931  10.290   0.307   4.458
83033SOL    HW250932  10.421   0.258   4.516
83034SOL     OW50933   5.931   4.851  13.907
83034SOL    HW150934   5.920   4.889  13.820
83034SOL    HW250935   5.869   4.778  13.910
83035SOL     OW50936   0.445   8.716  11.080
83035SOL    HW150937   0.468   8.718  11.173
83035SOL    HW250938   0.355   8.750  11.077
83036SOL     OW50939  10.518   9.084   5.759
83036SOL    HW150940  10.529   8.990   5.772
83036SOL    HW250941  10.474   9.114   5.838
83037SOL     OW50942   8.717  12.712   2.680
83037SOL    HW150943   8.794  12.667   2.714
83037SOL    HW250944   8.690  12.771   2.750
83038SOL     OW50945   1.252   7.087   3.219
83038SOL    HW150946   1.314   7.137   3.273
83038SOL    HW250947   1.179   7.146   3.203
83039SOL     OW50948   3.323  10.517   3.841
83039SOL    HW150949   3.341  10.576   3.914
83039SOL    HW250950   3.228  10.508   3.839
83040SOL     OW50951   2.143  10.258  10.397
83040SOL    HW150952   2.170  10.180  10.349
83040SOL    HW250953   2.113  10.319  10.329
83041SOL     OW50954   5.338   5.696   6.506
83041SOL    HW150955   5.309   5.653   6.586
83041SOL    HW250956   5.258   5.725   6.462
83042SOL     OW50957   3.732  13.950   3.015
83042SOL    HW150958   3.696  13.862   3.027
83042SOL    HW250959   3.786  13.943   2.936
83043SOL     OW50960  14.798   3.941  14.593
83043SOL    HW150961   0.009   3.901  14.619
83043SOL    HW250962  14.772   3.893  14.515
83044SOL     OW50963   9.409   7.636   7.464
83044SOL    HW150964   9.444   7.553   7.498
83044SOL    HW250965   9.480   7.699   7.480
83045SOL     OW50966   6.650   8.488  12.558
83045SOL    HW150967   6.663   8.579  12.586
83045SOL    HW250968   6.732   8.444  12.580
83046SOL     OW50969  13.376  13.331  12.016
83046SOL    HW150970  13.397  13.281  11.937
83046SOL    HW250971  13.315  13.275  12.064
83047SOL     OW50972   4.245   8.637   2.207
83047SOL    HW150973   4.309   8.604   2.144
83047SOL    HW250974   4.290   8.708   2.253
83048SOL     OW50975   3.472   7.262  12.874
83048SOL    HW150976   3.556   7.221  12.894
83048SOL    HW250977   3.471   7.342  12.925
83049SOL     OW50978   2.109  11.413  10.672
83049SOL    HW150979   2.192  11.389  10.712
83049SOL    HW250980   2.116  11.508  10.658
83050SOL     OW50981   0.522   7.722   2.403
83050SOL    HW150982   0.600   7.669   2.417
83050SOL    HW250983   0.511   7.771   2.485
83051SOL     OW50984   5.112   8.179   6.085
83051SOL    HW150985   5.049   8.251   6.080
83051SOL    HW250986   5.063   8.101   6.061
83052SOL     OW50987   1.726   9.150   0.328
83052SOL    HW150988   1.683   9.195   0.401
83052SOL    HW250989   1.765   9.221   0.276
83053SOL     OW50990   9.865   5.517   2.447
83053SOL    HW150991   9.837   5.599   2.487
83053SOL    HW250992   9.791   5.457   2.462
83054SOL     OW50993  11.802   1.047  11.743
83054SOL    HW150994  11.861   1.008  11.808
83054SOL    HW250995  11.804   1.141  11.763
83055SOL     OW50996  14.446   3.520   4.829
83055SOL    HW150997  14.366   3.482   4.794
83055SOL    HW250998  14.467   3.591   4.769
83056SOL     OW50999   5.151  13.624  14.545
83056SOL    HW151000   5.168  13.626  14.639
83056SOL    HW251001   5.100  13.703  14.528
83057SOL     OW51002   8.611  10.345  13.171
83057SOL    HW151003   8.612  10.254  13.142
83057SOL    HW251004   8.548  10.388  13.112
83058SOL     OW51005   6.050   9.941   4.142
83058SOL    HW151006   6.118   9.947   4.209
83058SOL    HW251007   6.091   9.890   4.071
83059SOL     OW51008   6.615  11.379   6.558
83059SOL    HW151009   6.558  11.353   6.631
83059SOL    HW251010   6.616  11.302   6.501
83060SOL     OW51011  14.746   1.621  10.367
83060SOL    HW151012  14.740   1.716  10.358
83060SOL    HW251013  14.688   1.600  10.441
83061SOL     OW51014   5.786  14.774   2.732
83061SOL    HW151015   5.866  14.814   2.764
83061SOL    HW251016   5.816  14.706   2.671
83062SOL     OW51017  10.338   7.729   6.526
83062SOL    HW151018  10.360   7.715   6.618
83062SOL    HW251019  10.405   7.790   6.494
83063SOL     OW51020   2.307   3.357  14.629
83063SOL    HW151021   2.388   3.401  14.654
83063SOL    HW251022   2.336   3.275  14.590
83064SOL     OW51023  14.157   8.752  13.725
83064SOL    HW151024  14.169   8.709  13.810
83064SOL    HW251025  14.177   8.844  13.742
83065SOL     OW51026   0.995   4.899   0.326
83065SOL    HW151027   1.018   4.857   0.409
83065SOL    HW251028   0.993   4.827   0.263
83066SOL     OW51029   7.704   1.241  10.808
83066SOL    HW151030   7.644   1.167  10.801
83066SOL    HW251031   7.783   1.204  10.848
83067SOL     OW51032   5.089  12.765  10.011
83067SOL    HW151033   4.994  12.760   9.998
83067SOL    HW251034   5.126  12.713   9.940
83068SOL     OW51035  13.330   7.176   2.845
83068SOL    HW151036  13.318   7.153   2.937
83068SOL    HW251037  13.340   7.093   2.799
83069SOL     OW51038  10.550   4.192   6.670
83069SOL    HW151039  10.460   4.160   6.666
83069SOL    HW251040  10.572   4.211   6.579
83070SOL     OW51041   3.483   6.310  11.826
83070SOL    HW151042   3.433   6.268  11.895
83070SOL    HW251043   3.575   6.288  11.845
83071SOL     OW51044   3.421   6.982  14.380
83071SOL    HW151045   3.516   6.970  14.385
83071SOL    HW251046   3.393   6.921  14.312
83072SOL     OW51047   4.779   0.373   5.679
83072SOL    HW151048   4.824   0.305   5.628
83072SOL    HW251049   4.689   0.343   5.685
83073SOL     OW51050   3.549  14.634  10.092
83073SOL    HW151051   3.537  14.612  10.185
83073SOL    HW251052   3.643  14.653  10.085
83074SOL     OW51053  13.371  13.850   3.078
83074SOL    HW151054  13.322  13.919   3.034
83074SOL    HW251055  13.336  13.849   3.167
83075SOL     OW51056   9.322   6.192  13.087
83075SOL    HW151057   9.301   6.145  13.007
83075SOL    HW251058   9.243   6.242  13.107
83076SOL     OW51059   5.052   2.377   4.431
83076SOL    HW151060   5.113   2.407   4.364
83076SOL    HW251061   5.103   2.318   4.486
83077SOL     OW51062  13.099   4.603   8.385
83077SOL    HW151063  13.066   4.513   8.380
83077SOL    HW251064  13.188   4.597   8.350
83078SOL     OW51065   8.693   9.313   5.448
83078SOL    HW151066   8.709   9.291   5.540
83078SOL    HW251067   8.600   9.335   5.445
83079SOL     OW51068   8.559   2.236   2.541
83079SOL    HW151069   8.561   2.154   2.589
83079SOL    HW251070   8.646   2.243   2.501
83080SOL     OW51071   2.601   4.424   2.175
83080SOL    HW151072   2.602   4.389   2.085
83080SOL    HW251073   2.584   4.518   2.164
83081SOL     OW51074  10.438   1.529   9.272
83081SOL    HW151075  10.354   1.544   9.228
83081SOL    HW251076  10.502   1.578   9.220
83082SOL     OW51077   4.599   8.576   0.559
83082SOL    HW151078   4.651   8.656   0.550
83082SOL    HW251079   4.520   8.593   0.509
83083SOL     OW51080   3.215   7.342  12.839
83083SOL    HW151081   3.203   7.436  12.853
83083SOL    HW251082   3.309   7.329  12.845
83084SOL     OW51083   5.869   9.834  14.090
83084SOL    HW151084   5.932   9.881  14.144
83084SOL    HW251085   5.911   9.827  14.004
83085SOL     OW51086  11.974  10.471   9.690
83085SOL    HW151087  11.889  10.473   9.733
83085SOL    HW251088  11.953  10.460   9.597
83086SOL     OW51089   0.955   4.641   6.552
83086SOL    HW151090   0.866   4.658   6.584
83086SOL    HW251091   0.942   4.608   6.463
83087SOL     OW51092   4.021   1.527   1.927
83087SOL    HW151093   4.024   1.507   2.021
83087SOL    HW251094   4.102   1.577   1.912
83088SOL     OW51095  12.557  12.262  12.769
83088SOL    HW151096  12.634  12.252  12.826
83088SOL    HW251097  12.572  12.345  12.723
83089SOL     OW51098   2.739  13.587   6.686
83089SOL    HW151099   2.785  13.561   6.605
83089SOL    HW251100   2.709  13.676   6.668
83090SOL     OW51101   2.980  12.372   6.618
83090SOL    HW151102   2.950  12.285   6.645
83090SOL    HW251103   2.977  12.371   6.523
83091SOL     OW51104   1.324   9.503   6.290
83091SOL    HW151105   1.415   9.484   6.309
83091SOL    HW251106   1.313   9.595   6.314
83092SOL     OW51107   2.750  11.226   7.569
83092SOL    HW151108   2.713  11.283   7.636
83092SOL    HW251109   2.837  11.203   7.602
83093SOL     OW51110  10.080   3.441   2.442
83093SOL    HW151111  10.109   3.385   2.514
83093SOL    HW251112  10.155   3.497   2.423
83094SOL     OW51113   0.290  12.896  14.315
83094SOL    HW151114   0.211  12.945  14.335
83094SOL    HW251115   0.350  12.961  14.279
83095SOL     OW51116   6.412  13.284   1.169
83095SOL    HW151117   6.333  13.308   1.121
83095SOL    HW251118   6.483  13.298   1.107
83096SOL     OW51119   4.550   7.807   8.884
83096SOL    HW151120   4.521   7.769   8.801
83096SOL    HW251121   4.635   7.846   8.864
83097SOL     OW51122   8.316  12.421  13.804
83097SOL    HW151123   8.269  12.473  13.738
83097SOL    HW251124   8.354  12.349  13.754
83098SOL     OW51125  11.205   1.850  11.348
83098SOL    HW151126  11.225   1.823  11.437
83098SOL    HW251127  11.112   1.875  11.351
83099SOL     OW51128   3.991   3.034   0.295
83099SOL    HW151129   4.034   2.958   0.333
83099SOL    HW251130   4.037   3.109   0.334
83100SOL     OW51131  13.285   5.696   8.797
83100SOL    HW151132  13.238   5.674   8.877
83100SOL    HW251133  13.230   5.662   8.726
83101SOL     OW51134   0.261  10.311  13.818
83101SOL    HW151135   0.235  10.265  13.898
83101SOL    HW251136   0.294  10.242  13.761
83102SOL     OW51137   5.557  13.956   6.973
83102SOL    HW151138   5.604  13.912   6.901
83102SOL    HW251139   5.589  13.912   7.052
83103SOL     OW51140   8.358  13.584   7.818
83103SOL    HW151141   8.339  13.549   7.731
83103SOL    HW251142   8.339  13.677   7.812
83104SOL     OW51143  12.447   0.364  14.303
83104SOL    HW151144  12.359   0.396  14.323
83104SOL    HW251145  12.505   0.419  14.355
83105SOL     OW51146   3.461  13.166   0.874
83105SOL    HW151147   3.531  13.223   0.905
83105SOL    HW251148   3.492  13.134   0.789
83106SOL     OW51149  11.368   7.655   5.262
83106SOL    HW151150  11.289   7.698   5.293
83106SOL    HW251151  11.374   7.679   5.169
83107SOL     OW51152   0.320   3.733   6.360
83107SOL    HW151153   0.387   3.761   6.297
83107SOL    HW251154   0.326   3.637   6.359
83108SOL     OW51155   9.028  10.106  11.544
83108SOL    HW151156   9.107  10.071  11.503
83108SOL    HW251157   8.997  10.173  11.484
83109SOL     OW51158   3.443   4.496   2.252
83109SOL    HW151159   3.362   4.489   2.201
83109SOL    HW251160   3.455   4.408   2.290
83110SOL     OW51161   6.367   6.360   9.072
83110SOL    HW151162   6.301   6.294   9.094
83110SOL    HW251163   6.332   6.441   9.108
83111SOL     OW51164  11.651   0.038  10.118
83111SOL    HW151165  11.606   0.040  10.202
83111SOL    HW251166  11.621   0.118  10.073
83112SOL     OW51167  10.582   2.620  13.464
83112SOL    HW151168  10.488   2.639  13.472
83112SOL    HW251169  10.625   2.695  13.506
83113SOL     OW51170   0.234   8.515   0.499
83113SOL    HW151171   0.181   8.578   0.548
83113SOL    HW251172   0.320   8.555   0.493
83114SOL     OW51173   9.111   8.261   0.048
83114SOL    HW151174   9.152   8.234  14.838
83114SOL    HW251175   9.150   8.347   0.067
83115SOL     OW51176   8.668  13.391   2.583
83115SOL    HW151177   8.626  13.328   2.526
83115SOL    HW251178   8.602  13.409   2.651
83116SOL     OW51179  13.135   1.086   8.397
83116SOL    HW151180  13.141   1.010   8.340
83116SOL    HW251181  13.077   1.147   8.350
83117SOL     OW51182   8.259   8.730  12.990
83117SOL    HW151183   8.176   8.777  12.998
83117SOL    HW251184   8.250   8.677  12.911
83118SOL     OW51185  12.653  12.381   1.814
83118SOL    HW151186  12.655  12.326   1.892
83118SOL    HW251187  12.612  12.463   1.844
83119SOL     OW51188   4.932   4.721  13.880
83119SOL    HW151189   4.966   4.767  13.957
83119SOL    HW251190   4.867   4.780  13.842
83120SOL     OW51191   7.099   3.745   8.996
83120SOL    HW151192   7.131   3.824   8.953
83120SOL    HW251193   7.077   3.773   9.085
83121SOL     OW51194   6.708   5.118   7.580
83121SOL    HW151195   6.709   5.169   7.499
83121SOL    HW251196   6.659   5.173   7.641
83122SOL     OW51197  14.798   2.485   2.979
83122SOL    HW151198  14.732   2.550   3.005
83122SOL    HW251199  14.746   2.413   2.943
83123SOL     OW51200   5.918   4.514  10.864
83123SOL    HW151201   5.894   4.532  10.955
83123SOL    HW251202   6.012   4.529  10.861
83124SOL     OW51203   6.267  10.979  13.096
83124SOL    HW151204   6.255  11.073  13.083
83124SOL    HW251205   6.240  10.964  13.187
83125SOL     OW51206   7.683  11.186   4.595
83125SOL    HW151207   7.617  11.229   4.649
83125SOL    HW251208   7.634  11.149   4.522
83126SOL     OW51209  10.771   9.996  10.574
83126SOL    HW151210  10.776  10.018  10.667
83126SOL    HW251211  10.737   9.907  10.572
83127SOL     OW51212   7.017   0.802   0.354
83127SOL    HW151213   7.008   0.723   0.300
83127SOL    HW251214   7.052   0.771   0.437
83128SOL     OW51215   0.701   9.093  11.155
83128SOL    HW151216   0.620   9.051  11.182
83128SOL    HW251217   0.756   9.093  11.234
83129SOL     OW51218   0.983  10.355   2.191
83129SOL    HW151219   1.020  10.267   2.191
83129SOL    HW251220   0.942  10.365   2.277
83130SOL     OW51221  12.520   1.043   8.605
83130SOL    HW151222  12.509   1.135   8.628
83130SOL    HW251223  12.443   1.000   8.641
83131SOL     OW51224   3.665   4.215   4.963
83131SOL    HW151225   3.657   4.236   4.870
83131SOL    HW251226   3.577   4.191   4.990
83132SOL     OW51227   1.922   7.020   1.385
83132SOL    HW151228   1.952   7.074   1.458
83132SOL    HW251229   2.000   6.972   1.357
83133SOL     OW51230   4.531  13.721  11.923
83133SOL    HW151231   4.559  13.728  12.014
83133SOL    HW251232   4.590  13.779  11.875
83134SOL     OW51233   4.202   8.984   7.071
83134SOL    HW151234   4.219   8.985   6.977
83134SOL    HW251235   4.108   8.997   7.079
83135SOL     OW51236   2.630   8.256  13.768
83135SOL    HW151237   2.628   8.311  13.847
83135SOL    HW251238   2.577   8.180  13.790
83136SOL     OW51239   4.615   9.065   0.034
83136SOL    HW151240   4.682   9.054  14.839
83136SOL    HW251241   4.663   9.089   0.113
83137SOL     OW51242   4.072   6.786   5.449
83137SOL    HW151243   4.031   6.804   5.364
83137SOL    HW251244   4.052   6.694   5.466
83138SOL     OW51245  10.024   0.171  13.265
83138SOL    HW151246  10.050   0.244  13.321
83138SOL    HW251247  10.080   0.179  13.187
83139SOL     OW51248   9.739  11.223   1.872
83139SOL    HW151249   9.778  11.215   1.784
83139SOL    HW251250   9.811  11.200   1.931
83140SOL     OW51251  13.259  11.944   0.868
83140SOL    HW151252  13.264  11.990   0.951
83140SOL    HW251253  13.349  11.917   0.851
83141SOL     OW51254  12.015  12.022   8.007
83141SOL    HW151255  11.953  12.013   7.934
83141SOL    HW251256  11.970  12.081   8.068
83142SOL     OW51257   9.855   7.113   8.196
83142SOL    HW151258   9.788   7.080   8.255
83142SOL    HW251259   9.840   7.065   8.114
83143SOL     OW51260   6.451   2.712  11.087
83143SOL    HW151261   6.458   2.765  11.008
83143SOL    HW251262   6.363   2.673  11.083
83144SOL     OW51263   4.421   6.747   2.106
83144SOL    HW151264   4.447   6.681   2.170
83144SOL    HW251265   4.488   6.815   2.112
83145SOL     OW51266  11.675  14.423   8.552
83145SOL    HW151267  11.625  14.502   8.570
83145SOL    HW251268  11.732  14.412   8.628
83146SOL     OW51269  13.405   7.955   9.404
83146SOL    HW151270  13.499   7.942   9.388
83146SOL    HW251271  13.387   8.043   9.371
83147SOL     OW51272   1.320   3.047   9.069
83147SOL    HW151273   1.343   3.052   8.976
83147SOL    HW251274   1.229   3.075   9.073
83148SOL     OW51275   2.806   9.050   1.160
83148SOL    HW151276   2.819   9.095   1.243
83148SOL    HW251277   2.810   8.957   1.181
83149SOL     OW51278   7.574   3.067   1.606
83149SOL    HW151279   7.658   3.042   1.645
83149SOL    HW251280   7.581   3.161   1.593
83150SOL     OW51281   9.796  11.322   5.518
83150SOL    HW151282   9.827  11.399   5.471
83150SOL    HW251283   9.806  11.250   5.455
83151SOL     OW51284   1.729  13.717   5.155
83151SOL    HW151285   1.702  13.796   5.201
83151SOL    HW251286   1.656  13.698   5.096
83152SOL     OW51287   1.062   3.982   6.427
83152SOL    HW151288   1.027   3.893   6.429
83152SOL    HW251289   1.157   3.970   6.431
83153SOL     OW51290   5.862   6.560  10.890
83153SOL    HW151291   5.869   6.476  10.844
83153SOL    HW251292   5.876   6.538  10.982
83154SOL     OW51293  12.793   0.304   4.304
83154SOL    HW151294  12.740   0.230   4.274
83154SOL    HW251295  12.748   0.381   4.269
83155SOL     OW51296   0.260  11.049   8.245
83155SOL    HW151297   0.273  11.098   8.164
83155SOL    HW251298   0.274  11.113   8.315
83156SOL     OW51299  10.133   5.249  11.938
83156SOL    HW151300  10.178   5.167  11.960
83156SOL    HW251301  10.190   5.291  11.873
83157SOL     OW51302   5.600  12.511   7.396
83157SOL    HW151303   5.628  12.496   7.486
83157SOL    HW251304   5.681  12.523   7.347
83158SOL     OW51305   4.506   1.318   6.019
83158SOL    HW151306   4.461   1.400   6.039
83158SOL    HW251307   4.435   1.255   6.005
83159SOL     OW51308   3.000   1.556   8.844
83159SOL    HW151309   2.912   1.589   8.863
83159SOL    HW251310   3.058   1.612   8.896
83160SOL     OW51311   1.974   3.105   0.198
83160SOL    HW151312   1.891   3.058   0.201
83160SOL    HW251313   2.027   3.057   0.135
83161SOL     OW51314   9.023   4.269   4.691
83161SOL    HW151315   9.108   4.246   4.727
83161SOL    HW251316   8.969   4.291   4.767
83162SOL     OW51317   8.853  14.085   5.834
83162SOL    HW151318   8.899  14.009   5.870
83162SOL    HW251319   8.923  14.145   5.807
83163SOL     OW51320   1.986   2.387   1.915
83163SOL    HW151321   2.012   2.372   2.006
83163SOL    HW251322   2.044   2.457   1.884
83164SOL     OW51323   3.060   0.891   2.330
83164SOL    HW151324   3.078   0.800   2.353
83164SOL    HW251325   2.975   0.910   2.370
83165SOL     OW51326   3.362   9.309  11.055
83165SOL    HW151327   3.269   9.293  11.038
83165SOL    HW251328   3.401   9.319  10.968
83166SOL     OW51329  10.936   4.532   0.816
83166SOL    HW151330  10.997   4.598   0.783
83166SOL    HW251331  10.853   4.552   0.773
83167SOL     OW51332  10.101  10.450  11.338
83167SOL    HW151333  10.008  10.468  11.350
83167SOL    HW251334  10.141  10.477  11.421
83168SOL     OW51335  10.758   0.023  13.354
83168SOL    HW151336  10.735   0.008  13.262
83168SOL    HW251337  10.746  14.810  13.396
83169SOL     OW51338   4.976   8.269  14.033
83169SOL    HW151339   5.021   8.195  13.992
83169SOL    HW251340   4.966   8.333  13.962
83170SOL     OW51341  14.201  11.824   0.969
83170SOL    HW151342  14.162  11.826   1.056
83170SOL    HW251343  14.140  11.772   0.917
83171SOL     OW51344   9.230   8.819   1.782
83171SOL    HW151345   9.325   8.818   1.786
83171SOL    HW251346   9.209   8.838   1.691
83172SOL     OW51347  10.333  12.485   2.675
83172SOL    HW151348  10.243  12.517   2.668
83172SOL    HW251349  10.387  12.563   2.659
83173SOL     OW51350   1.382   7.824   7.343
83173SOL    HW151351   1.414   7.854   7.428
83173SOL    HW251352   1.437   7.749   7.320
83174SOL     OW51353   5.719  10.132   0.232
83174SOL    HW151354   5.642  10.178   0.266
83174SOL    HW251355   5.687  10.045   0.208
83175SOL     OW51356  13.442   4.839  10.308
83175SOL    HW151357  13.500   4.855  10.234
83175SOL    HW251358  13.420   4.746  10.301
83176SOL     OW51359   5.767   1.415  13.128
83176SOL    HW151360   5.801   1.483  13.185
83176SOL    HW251361   5.764   1.456  13.041
83177SOL     OW51362  12.826  12.540   0.748
83177SOL    HW151363  12.895  12.553   0.682
83177SOL    HW251364  12.767  12.476   0.709
83178SOL     OW51365   4.901   3.767  13.601
83178SOL    HW151366   4.849   3.811  13.669
83178SOL    HW251367   4.985   3.812  13.602
83179SOL     OW51368  10.841   3.916   7.737
83179SOL    HW151369  10.803   3.953   7.816
83179SOL    HW251370  10.812   3.973   7.667
83180SOL     OW51371  12.735   0.055   5.190
83180SOL    HW151372  12.651   0.010   5.187
83180SOL    HW251373  12.734   0.104   5.272
83181SOL     OW51374   4.844  13.356   5.180
83181SOL    HW151375   4.752  13.338   5.196
83181SOL    HW251376   4.866  13.303   5.103
83182SOL     OW51377  14.590   5.680  12.443
83182SOL    HW151378  14.564   5.625  12.517
83182SOL    HW251379  14.686   5.685  12.449
83183SOL     OW51380   7.126  12.970   2.983
83183SOL    HW151381   7.213  12.940   3.009
83183SOL    HW251382   7.091  13.012   3.061
83184SOL     OW51383   7.578   6.490   0.554
83184SOL    HW151384   7.625   6.427   0.499
83184SOL    HW251385   7.517   6.436   0.605
83185SOL     OW51386   4.518   9.102   8.427
83185SOL    HW151387   4.579   9.174   8.410
83185SOL    HW251388   4.565   9.023   8.401
83186SOL     OW51389   7.333   1.152  11.238
83186SOL    HW151390   7.416   1.186  11.205
83186SOL    HW251391   7.336   1.169  11.332
83187SOL     OW51392   1.017   0.118   2.338
83187SOL    HW151393   0.937   0.067   2.352
83187SOL    HW251394   1.088   0.059   2.362
83188SOL     OW51395   9.606   1.856  11.619
83188SOL    HW151396   9.556   1.936  11.637
83188SOL    HW251397   9.695   1.877  11.648
83189SOL     OW51398   1.549  11.697   6.400
83189SOL    HW151399   1.619  11.743   6.446
83189SOL    HW251400   1.584  11.609   6.384
83190SOL     OW51401  10.243  14.126   8.866
83190SOL    HW151402  10.202  14.040   8.880
83190SOL    HW251403  10.293  14.115   8.785
83191SOL     OW51404   6.793   5.449   1.170
83191SOL    HW151405   6.797   5.365   1.123
83191SOL    HW251406   6.867   5.446   1.231
83192SOL     OW51407   2.736   5.961  14.438
83192SOL    HW151408   2.777   6.038  14.478
83192SOL    HW251409   2.686   5.921  14.510
83193SOL     OW51410   7.707   0.685  13.580
83193SOL    HW151411   7.772   0.622  13.611
83193SOL    HW251412   7.692   0.743  13.656
83194SOL     OW51413   6.747   4.241  14.263
83194SOL    HW151414   6.670   4.256  14.318
83194SOL    HW251415   6.776   4.153  14.286
83195SOL     OW51416  14.002  14.167   6.113
83195SOL    HW151417  13.996  14.090   6.057
83195SOL    HW251418  13.951  14.145   6.191
83196SOL     OW51419  12.756   1.124  14.354
83196SOL    HW151420  12.737   1.116  14.448
83196SOL    HW251421  12.796   1.210  14.345
83197SOL     OW51422  13.635   3.728   8.015
83197SOL    HW151423  13.623   3.799   7.952
83197SOL    HW251424  13.549   3.687   8.022
83198SOL     OW51425  12.546   5.389   3.582
83198SOL    HW151426  12.519   5.474   3.548
83198SOL    HW251427  12.480   5.367   3.647
83199SOL     OW51428   7.866   6.717  12.441
83199SOL    HW151429   7.785   6.722  12.391
83199SOL    HW251430   7.917   6.649  12.397
83200SOL     OW51431   5.930  12.561  12.829
83200SOL    HW151432   5.933  12.605  12.744
83200SOL    HW251433   6.018  12.525  12.841
83201SOL     OW51434   1.098   4.088   9.819
83201SOL    HW151435   1.103   4.161   9.758
83201SOL    HW251436   1.040   4.025   9.776
83202SOL     OW51437  14.585  13.302  13.474
83202SOL    HW151438  14.585  13.206  13.471
83202SOL    HW251439  14.619  13.323  13.561
83203SOL     OW51440   3.923   1.580  11.712
83203SOL    HW151441   4.014   1.608  11.714
83203SOL    HW251442   3.925   1.488  11.737
83204SOL     OW51443   2.401   9.055   8.570
83204SOL    HW151444   2.307   9.044   8.552
83204SOL    HW251445   2.441   9.066   8.484
83205SOL     OW51446   2.477  11.165   0.982
83205SOL    HW151447   2.509  11.173   1.072
83205SOL    HW251448   2.382  11.176   0.990
83206SOL     OW51449  12.262   6.927  11.786
83206SOL    HW151450  12.238   6.927  11.879
83206SOL    HW251451  12.354   6.901  11.785
83207SOL     OW51452   2.228   2.051   7.647
83207SOL    HW151453   2.262   1.962   7.637
83207SOL    HW251454   2.278   2.103   7.584
83208SOL     OW51455   6.715   6.089   1.675
83208SOL    HW151456   6.726   6.104   1.581
83208SOL    HW251457   6.795   6.125   1.714
83209SOL     OW51458   2.562  14.239   6.569
83209SOL    HW151459   2.620  14.204   6.638
83209SOL    HW251460   2.604  14.212   6.487
83210SOL     OW51461  11.610  14.776  11.939
83210SOL    HW151462  11.583  14.842  12.003
83210SOL    HW251463  11.697  14.805  11.910
83211SOL     OW51464   0.301  10.554  11.752
83211SOL    HW151465   0.305  10.548  11.848
83211SOL    HW251466   0.385  10.519  11.723
83212SOL     OW51467  12.157  13.529  13.705
83212SOL    HW151468  12.082  13.505  13.758
83212SOL    HW251469  12.232  13.489  13.750
83213SOL     OW51470   4.882   8.965   3.742
83213SOL    HW151471   4.792   8.931   3.738
83213SOL    HW251472   4.896   9.005   3.656
83214SOL     OW51473   7.155   0.507   0.954
83214SOL    HW151474   7.102   0.572   1.002
83214SOL    HW251475   7.113   0.423   0.975
83215SOL     OW51476  14.019   7.961   3.042
83215SOL    HW151477  14.075   8.036   3.064
83215SOL    HW251478  13.971   7.989   2.963
83216SOL     OW51479  13.907   5.072   8.034
83216SOL    HW151480  13.946   5.000   8.085
83216SOL    HW251481  13.945   5.062   7.946
83217SOL     OW51482   2.682   6.638  10.208
83217SOL    HW151483   2.716   6.558  10.167
83217SOL    HW251484   2.752   6.664  10.269
83218SOL     OW51485  14.181   1.876   4.053
83218SOL    HW151486  14.124   1.936   4.102
83218SOL    HW251487  14.237   1.934   4.001
83219SOL     OW51488   4.731   1.725   2.928
83219SOL    HW151489   4.799   1.757   2.987
83219SOL    HW251490   4.770   1.730   2.841
83220SOL     OW51491   1.240   4.519   7.275
83220SOL    HW151492   1.262   4.427   7.292
83220SOL    HW251493   1.325   4.564   7.275
83221SOL     OW51494   4.966  11.805   5.579
83221SOL    HW151495   4.952  11.886   5.628
83221SOL    HW251496   5.044  11.766   5.620
83222SOL     OW51497  13.431   2.213   6.266
83222SOL    HW151498  13.383   2.231   6.346
83222SOL    HW251499  13.392   2.132   6.233
83223SOL     OW51500  13.036  13.025   5.724
83223SOL    HW151501  13.035  12.998   5.633
83223SOL    HW251502  13.012  13.118   5.722
83224SOL     OW51503   4.457   3.006   6.218
83224SOL    HW151504   4.516   3.020   6.292
83224SOL    HW251505   4.370   3.004   6.257
83225SOL     OW51506   8.626   8.991   5.986
83225SOL    HW151507   8.648   9.083   5.972
83225SOL    HW251508   8.710   8.946   5.991
83226SOL     OW51509   4.562  13.344   8.785
83226SOL    HW151510   4.601  13.401   8.852
83226SOL    HW251511   4.487  13.394   8.752
83227SOL     OW51512   7.497   4.786  14.207
83227SOL    HW151513   7.425   4.814  14.262
83227SOL    HW251514   7.471   4.811  14.118
83228SOL     OW51515  14.060  11.226   8.660
83228SOL    HW151516  14.115  11.284   8.609
83228SOL    HW251517  14.117  11.153   8.685
83229SOL     OW51518   4.752  13.925   0.807
83229SOL    HW151519   4.666  13.893   0.831
83229SOL    HW251520   4.736  13.983   0.732
83230SOL     OW51521   3.684   0.495   3.050
83230SOL    HW151522   3.602   0.537   3.076
83230SOL    HW251523   3.726   0.558   2.992
83231SOL     OW51524   7.893   8.481   3.580
83231SOL    HW151525   7.970   8.465   3.634
83231SOL    HW251526   7.909   8.567   3.540
83232SOL     OW51527   7.381   8.873   0.590
83232SOL    HW151528   7.381   8.919   0.505
83232SOL    HW251529   7.471   8.840   0.599
83233SOL     OW51530  10.862   5.049   3.259
83233SOL    HW151531  10.866   5.020   3.168
83233SOL    HW251532  10.803   5.125   3.257
83234SOL     OW51533   1.312   2.139  12.431
83234SOL    HW151534   1.329   2.113  12.521
83234SOL    HW251535   1.217   2.131  12.421
83235SOL     OW51536   0.832  13.659  10.404
83235SOL    HW151537   0.758  13.603  10.429
83235SOL    HW251538   0.842  13.720  10.477
83236SOL     OW51539   5.289   6.133   7.380
83236SOL    HW151540   5.215   6.073   7.383
83236SOL    HW251541   5.327   6.119   7.293
83237SOL     OW51542  13.774  11.670   7.294
83237SOL    HW151543  13.768  11.743   7.231
83237SOL    HW251544  13.724  11.700   7.370
83238SOL     OW51545   3.805   8.534   7.332
83238SOL    HW151546   3.794   8.597   7.403
83238SOL    HW251547   3.751   8.569   7.261
83239SOL     OW51548   0.777  10.181  14.137
83239SOL    HW151549   0.828  10.100  14.144
83239SOL    HW251550   0.764  10.209  14.228
83240SOL     OW51551   7.830   3.398   6.453
83240SOL    HW151552   7.835   3.394   6.548
83240SOL    HW251553   7.800   3.311   6.426
83241SOL     OW51554   0.664  10.154   8.749
83241SOL    HW151555   0.615  10.141   8.667
83241SOL    HW251556   0.728  10.083   8.750
83242SOL     OW51557   1.369  14.231  14.177
83242SOL    HW151558   1.405  14.318  14.160
83242SOL    HW251559   1.274  14.243  14.177
83243SOL     OW51560   6.649   6.324  11.028
83243SOL    HW151561   6.744   6.338  11.025
83243SOL    HW251562   6.629   6.278  10.946
83244SOL     OW51563   3.519   2.019   8.579
83244SOL    HW151564   3.562   1.939   8.611
83244SOL    HW251565   3.435   1.989   8.546
83245SOL     OW51566  14.272  12.831  14.739
83245SOL    HW151567  14.278  12.923  14.765
83245SOL    HW251568  14.262  12.783  14.822
83246SOL     OW51569  13.784   9.049   1.144
83246SOL    HW151570  13.826   9.066   1.228
83246SOL    HW251571  13.695   9.083   1.154
83247SOL     OW51572  10.969   7.725   7.619
83247SOL    HW151573  11.026   7.798   7.646
83247SOL    HW251574  11.017   7.646   7.645
83248SOL     OW51575  10.975   7.009   0.686
83248SOL    HW151576  11.051   6.992   0.630
83248SOL    HW251577  10.906   6.953   0.650
83249SOL     OW51578  14.583   8.015   4.996
83249SOL    HW151579  14.633   7.943   5.035
83249SOL    HW251580  14.537   8.055   5.070
83250SOL     OW51581  13.333   4.066   0.770
83250SOL    HW151582  13.245   4.039   0.745
83250SOL    HW251583  13.381   4.070   0.687
83251SOL     OW51584  11.960   5.558   6.015
83251SOL    HW151585  11.894   5.625   5.996
83251SOL    HW251586  11.954   5.545   6.109
83252SOL     OW51587  12.779  14.013  13.067
83252SOL    HW151588  12.692  13.974  13.054
83252SOL    HW251589  12.765  14.107  13.050
83253SOL     OW51590  10.749  13.768   6.090
83253SOL    HW151591  10.779  13.677   6.092
83253SOL    HW251592  10.751  13.796   6.182
83254SOL     OW51593   1.955  14.697  10.666
83254SOL    HW151594   1.863  14.688  10.693
83254SOL    HW251595   1.955  14.773  10.608
83255SOL     OW51596  11.385   9.398   0.385
83255SOL    HW151597  11.296   9.388   0.351
83255SOL    HW251598  11.424   9.311   0.375
83256SOL     OW51599   4.831   4.569   0.287
83256SOL    HW151600   4.754   4.557   0.342
83256SOL    HW251601   4.885   4.492   0.305
83257SOL     OW51602  11.646  13.756   6.696
83257SOL    HW151603  11.680  13.707   6.620
83257SOL    HW251604  11.556  13.777   6.672
83258SOL     OW51605   6.230   6.026   7.360
83258SOL    HW151606   6.319   6.010   7.329
83258SOL    HW251607   6.174   6.007   7.285
83259SOL     OW51608   1.771  13.086   8.561
83259SOL    HW151609   1.703  13.121   8.619
83259SOL    HW251610   1.766  13.140   8.483
83260SOL     OW51611   1.908  14.058   7.406
83260SOL    HW151612   1.912  14.044   7.501
83260SOL    HW251613   1.931  13.973   7.369
83261SOL     OW51614   3.587  11.376   4.188
83261SOL    HW151615   3.538  11.440   4.241
83261SOL    HW251616   3.566  11.292   4.227
83262SOL     OW51617   6.703   8.520   4.475
83262SOL    HW151618   6.626   8.577   4.465
83262SOL    HW251619   6.686   8.446   4.416
83263SOL     OW51620   9.803   8.368   3.795
83263SOL    HW151621   9.895   8.345   3.782
83263SOL    HW251622   9.773   8.312   3.866
83264SOL     OW51623   3.527   1.717   4.745
83264SOL    HW151624   3.561   1.805   4.761
83264SOL    HW251625   3.499   1.686   4.831
83265SOL     OW51626  10.755   5.593  11.976
83265SOL    HW151627  10.753   5.594  11.881
83265SOL    HW251628  10.824   5.529  11.997
83266SOL     OW51629   6.132  10.101  12.844
83266SOL    HW151630   6.038  10.101  12.859
83266SOL    HW251631   6.171  10.086  12.930
83267SOL     OW51632   9.735   5.134   8.615
83267SOL    HW151633   9.686   5.192   8.674
83267SOL    HW251634   9.681   5.129   8.536
83268SOL     OW51635   3.564   1.396  12.222
83268SOL    HW151636   3.593   1.474  12.269
83268SOL    HW251637   3.539   1.335  12.292
83269SOL     OW51638  12.208   3.568   9.652
83269SOL    HW151639  12.231   3.486   9.694
83269SOL    HW251640  12.209   3.548   9.558
83270SOL     OW51641   2.185   2.777  10.785
83270SOL    HW151642   2.096   2.740  10.783
83270SOL    HW251643   2.175   2.860  10.832
83271SOL     OW51644   1.241   9.419   2.704
83271SOL    HW151645   1.182   9.360   2.658
83271SOL    HW251646   1.305   9.446   2.638
83272SOL     OW51647  14.300   3.999   9.473
83272SOL    HW151648  14.231   4.031   9.531
83272SOL    HW251649  14.253   3.954   9.402
83273SOL     OW51650   3.284  12.307  12.294
83273SOL    HW151651   3.280  12.403  12.299
83273SOL    HW251652   3.345  12.282  12.363
83274SOL     OW51653   1.957   3.166  10.253
83274SOL    HW151654   1.882   3.226  10.251
83274SOL    HW251655   2.008   3.194  10.328
83275SOL     OW51656   2.988   4.847  12.739
83275SOL    HW151657   3.054   4.858  12.670
83275SOL    HW251658   2.966   4.754  12.737
83276SOL     OW51659  10.034   7.778   8.055
83276SOL    HW151660  10.010   7.696   8.099
83276SOL    HW251661  10.026   7.845   8.124
83277SOL     OW51662   6.419   5.254  11.785
83277SOL    HW151663   6.327   5.275  11.766
83277SOL    HW251664   6.447   5.323  11.845
83278SOL     OW51665  14.755  13.223   6.879
83278SOL    HW151666  14.689  13.275   6.834
83278SOL    HW251667  14.708  13.143   6.905
83279SOL     OW51668   2.427   8.382  11.297
83279SOL    HW151669   2.397   8.296  11.328
83279SOL    HW251670   2.499   8.362  11.237
83280SOL     OW51671   2.499   4.084   0.087
83280SOL    HW151672   2.437   4.013   0.073
83280SOL    HW251673   2.580   4.041   0.113
83281SOL     OW51674   6.498   0.612   4.201
83281SOL    HW151675   6.440   0.672   4.155
83281SOL    HW251676   6.499   0.645   4.291
83282SOL     OW51677   2.410   8.268   6.269
83282SOL    HW151678   2.367   8.279   6.354
83282SOL    HW251679   2.368   8.191   6.231
83283SOL     OW51680   2.158   5.958   0.905
83283SOL    HW151681   2.253   5.953   0.910
83283SOL    HW251682   2.136   5.917   0.822
83284SOL     OW51683   5.213   7.942   0.090
83284SOL    HW151684   5.255   7.956   0.175
83284SOL    HW251685   5.187   8.030   0.062
83285SOL     OW51686  13.904   9.111   3.625
83285SOL    HW151687  13.816   9.077   3.643
83285SOL    HW251688  13.948   9.108   3.710
83286SOL     OW51689  11.329  10.342   7.760
83286SOL    HW151690  11.395  10.387   7.813
83286SOL    HW251691  11.361  10.351   7.670
83287SOL     OW51692   5.320  10.808   1.173
83287SOL    HW151693   5.412  10.785   1.185
83287SOL    HW251694   5.322  10.878   1.107
83288SOL     OW51695  11.456  10.946   4.854
83288SOL    HW151696  11.457  11.023   4.911
83288SOL    HW251697  11.433  10.873   4.911
83289SOL     OW51698  10.579   6.211   4.491
83289SOL    HW151699  10.491   6.173   4.486
83289SOL    HW251700  10.633   6.154   4.436
83290SOL     OW51701   9.348   2.283  13.906
83290SOL    HW151702   9.362   2.197  13.945
83290SOL    HW251703   9.374   2.345  13.973
83291SOL     OW51704   5.470   1.017   5.205
83291SOL    HW151705   5.466   1.089   5.268
83291SOL    HW251706   5.545   1.039   5.149
83292SOL     OW51707  12.917   2.507  14.622
83292SOL    HW151708  12.889   2.427  14.577
83292SOL    HW251709  12.899   2.490  14.715
83293SOL     OW51710   0.716   1.852   7.693
83293SOL    HW151711   0.781   1.890   7.634
83293SOL    HW251712   0.662   1.796   7.636
83294SOL     OW51713   3.392   4.131  12.551
83294SOL    HW151714   3.317   4.088  12.592
83294SOL    HW251715   3.439   4.059  12.507
83295SOL     OW51716   9.268  12.269   3.041
83295SOL    HW151717   9.183  12.278   2.996
83295SOL    HW251718   9.253  12.201   3.107
83296SOL     OW51719   3.753  11.786   9.112
83296SOL    HW151720   3.745  11.880   9.093
83296SOL    HW251721   3.844  11.776   9.141
83297SOL     OW51722  10.981   3.224  10.086
83297SOL    HW151723  10.897   3.227  10.131
83297SOL    HW251724  11.035   3.165  10.138
83298SOL     OW51725   5.535   2.934  13.271
83298SOL    HW151726   5.591   2.963  13.199
83298SOL    HW251727   5.483   2.862  13.234
83299SOL     OW51728   9.351  10.856   8.120
83299SOL    HW151729   9.294  10.779   8.120
83299SOL    HW251730   9.414  10.840   8.191
83300SOL     OW51731  13.402   1.219   0.359
83300SOL    HW151732  13.354   1.277   0.418
83300SOL    HW251733  13.488   1.208   0.400
83301SOL     OW51734   3.116   0.051   7.612
83301SOL    HW151735   3.031   0.094   7.620
83301SOL    HW251736   3.117  14.859   7.683
83302SOL     OW51737  12.168   2.229   1.081
83302SOL    HW151738  12.132   2.205   0.995
83302SOL    HW251739  12.123   2.310   1.104
83303SOL     OW51740  13.871   7.613   1.544
83303SOL    HW151741  13.787   7.621   1.590
83303SOL    HW251742  13.925   7.683   1.581
83304SOL     OW51743   1.156   4.685   7.869
83304SOL    HW151744   1.215   4.759   7.883
83304SOL    HW251745   1.077   4.709   7.917
83305SOL     OW51746  10.261  11.434   0.404
83305SOL    HW151747  10.252  11.505   0.340
83305SOL    HW251748  10.301  11.362   0.354
83306SOL     OW51749   1.207   9.235  11.533
83306SOL    HW151750   1.154   9.286  11.593
83306SOL    HW251751   1.250   9.169  11.588
83307SOL     OW51752  13.689   2.671   0.994
83307SOL    HW151753  13.710   2.616   0.919
83307SOL    HW251754  13.648   2.611   1.056
83308SOL     OW51755   6.830  11.664   0.298
83308SOL    HW151756   6.886  11.719   0.245
83308SOL    HW251757   6.862  11.575   0.283
83309SOL     OW51758   9.819  11.071  14.016
83309SOL    HW151759   9.862  11.013  14.079
83309SOL    HW251760   9.846  11.037  13.930
83310SOL     OW51761   7.148  11.734  13.247
83310SOL    HW151762   7.081  11.666  13.244
83310SOL    HW251763   7.152  11.761  13.338
83311SOL     OW51764   2.203  13.323   8.076
83311SOL    HW151765   2.164  13.397   8.030
83311SOL    HW251766   2.131  13.260   8.085
83312SOL     OW51767  10.404  12.821  11.280
83312SOL    HW151768  10.462  12.831  11.205
83312SOL    HW251769  10.402  12.726  11.296
83313SOL     OW51770   4.780   2.847   1.487
83313SOL    HW151771   4.789   2.754   1.465
83313SOL    HW251772   4.688   2.857   1.511
83314SOL     OW51773   7.223   9.504  10.770
83314SOL    HW151774   7.233   9.493  10.865
83314SOL    HW251775   7.135   9.540  10.759
83315SOL     OW51776  10.838  10.010   8.402
83315SOL    HW151777  10.870   9.922   8.381
83315SOL    HW251778  10.917  10.059   8.425
83316SOL     OW51779   4.992   5.511  10.728
83316SOL    HW151780   4.939   5.437  10.759
83316SOL    HW251781   4.973   5.582  10.789
83317SOL     OW51782   4.649   2.957   7.078
83317SOL    HW151783   4.702   3.032   7.052
83317SOL    HW251784   4.706   2.881   7.067
83318SOL     OW51785   0.281   7.537  14.529
83318SOL    HW151786   0.284   7.505  14.620
83318SOL    HW251787   0.229   7.472  14.483
83319SOL     OW51788  13.310  14.118   1.034
83319SOL    HW151789  13.238  14.078   0.984
83319SOL    HW251790  13.297  14.087   1.123
83320SOL     OW51791   3.532   2.396   0.004
83320SOL    HW151792   3.536   2.330   0.072
83320SOL    HW251793   3.595   2.367  14.810
83321SOL     OW51794  10.464  10.763  14.171
83321SOL    HW151795  10.425  10.845  14.201
83321SOL    HW251796  10.508  10.787  14.089
83322SOL     OW51797   2.006   0.672  10.839
83322SOL    HW151798   2.087   0.630  10.811
83322SOL    HW251799   1.968   0.707  10.758
83323SOL     OW51800   9.757   6.291   6.022
83323SOL    HW151801   9.769   6.234   5.946
83323SOL    HW251802   9.779   6.236   6.097
83324SOL     OW51803   7.851   8.058   4.255
83324SOL    HW151804   7.892   8.122   4.313
83324SOL    HW251805   7.783   8.018   4.308
83325SOL     OW51806   2.542   9.477   2.431
83325SOL    HW151807   2.593   9.542   2.479
83325SOL    HW251808   2.604   9.441   2.367
83326SOL     OW51809  11.522   2.788   1.459
83326SOL    HW151810  11.456   2.778   1.390
83326SOL    HW251811  11.543   2.698   1.485
83327SOL     OW51812   1.083  13.160   5.084
83327SOL    HW151813   1.156  13.104   5.113
83327SOL    HW251814   1.119  13.211   5.012
83328SOL     OW51815   2.097  14.067  10.489
83328SOL    HW151816   2.088  14.125  10.565
83328SOL    HW251817   2.054  13.986  10.516
83329SOL     OW51818   5.806  12.384   3.178
83329SOL    HW151819   5.884  12.437   3.196
83329SOL    HW251820   5.838  12.293   3.180
83330SOL     OW51821   0.498   6.970  12.301
83330SOL    HW151822   0.424   6.914  12.325
83330SOL    HW251823   0.575   6.914  12.307
83331SOL     OW51824   0.879  11.337   1.985
83331SOL    HW151825   0.958  11.338   1.930
83331SOL    HW251826   0.908  11.302   2.069
83332SOL     OW51827  11.909   1.876  12.957
83332SOL    HW151828  11.944   1.932  13.027
83332SOL    HW251829  11.953   1.792  12.971
83333SOL     OW51830   9.394  13.123   3.525
83333SOL    HW151831   9.427  13.196   3.578
83333SOL    HW251832   9.314  13.157   3.485
83334SOL     OW51833   2.324  13.402   1.636
83334SOL    HW151834   2.402  13.430   1.588
83334SOL    HW251835   2.280  13.342   1.577
83335SOL     OW51836  10.833   6.317  14.868
83335SOL    HW151837  10.856   6.334   0.087
83335SOL    HW251838  10.824   6.222  14.863
83336SOL     OW51839   5.276   8.248  14.828
83336SOL    HW151840   5.183   8.251  14.807
83336SOL    HW251841   5.282   8.288   0.043
83337SOL     OW51842  14.518   6.692   8.210
83337SOL    HW151843  14.526   6.692   8.305
83337SOL    HW251844  14.425   6.676   8.194
83338SOL     OW51845  12.663   6.333   6.223
83338SOL    HW151846  12.635   6.425   6.227
83338SOL    HW251847  12.661   6.312   6.130
83339SOL     OW51848   3.436   4.097  13.845
83339SOL    HW151849   3.362   4.153  13.824
83339SOL    HW251850   3.431   4.084  13.940
83340SOL     OW51851   6.496  11.177  10.626
83340SOL    HW151852   6.415  11.208  10.584
83340SOL    HW251853   6.486  11.201  10.718
83341SOL     OW51854   1.898   5.546   2.790
83341SOL    HW151855   1.858   5.609   2.850
83341SOL    HW251856   1.828   5.525   2.728
83342SOL     OW51857  10.934   7.176   0.073
83342SOL    HW151858  10.968   7.225   0.147
83342SOL    HW251859  10.998   7.107   0.057
83343SOL     OW51860   3.224   2.764  10.846
83343SOL    HW151861   3.311   2.797  10.867
83343SOL    HW251862   3.206   2.797  10.758
83344SOL     OW51863   8.763   0.143   2.943
83344SOL    HW151864   8.840   0.189   2.977
83344SOL    HW251865   8.773   0.053   2.974
83345SOL     OW51866  12.897   8.082   3.255
83345SOL    HW151867  12.927   8.091   3.165
83345SOL    HW251868  12.916   7.991   3.278
83346SOL     OW51869  10.858   6.433   1.625
83346SOL    HW151870  10.771   6.413   1.590
83346SOL    HW251871  10.909   6.462   1.549
83347SOL     OW51872  12.776   9.662   5.473
83347SOL    HW151873  12.714   9.672   5.400
83347SOL    HW251874  12.860   9.642   5.430
83348SOL     OW51875   4.837   9.992   1.644
83348SOL    HW151876   4.876   9.997   1.731
83348SOL    HW251877   4.893   9.931   1.596
83349SOL     OW51878   6.471  10.826   0.662
83349SOL    HW151879   6.479  10.905   0.609
83349SOL    HW251880   6.508  10.757   0.607
83350SOL     OW51881   0.709   9.012   6.991
83350SOL    HW151882   0.653   8.936   6.979
83350SOL    HW251883   0.788   8.992   6.940
83351SOL     OW51884   7.491   8.712   3.030
83351SOL    HW151885   7.561   8.765   3.068
83351SOL    HW251886   7.481   8.638   3.090
83352SOL     OW51887   3.677   1.772  10.673
83352SOL    HW151888   3.770   1.787  10.657
83352SOL    HW251889   3.674   1.742  10.764
83353SOL     OW51890   7.550  11.041   0.064
83353SOL    HW151891   7.591  11.033   0.150
83353SOL    HW251892   7.465  10.999   0.074
83354SOL     OW51893   7.302   5.141  13.467
83354SOL    HW151894   7.398   5.150  13.462
83354SOL    HW251895   7.285   5.127  13.560
83355SOL     OW51896  10.532   3.335   1.932
83355SOL    HW151897  10.572   3.413   1.892
83355SOL    HW251898  10.592   3.264   1.908
83356SOL     OW51899   2.601   0.187   5.044
83356SOL    HW151900   2.646   0.207   4.962
83356SOL    HW251901   2.635   0.251   5.106
83357SOL     OW51902  11.072   7.992  10.566
83357SOL    HW151903  10.977   7.984  10.563
83357SOL    HW251904  11.096   7.960  10.653
83358SOL     OW51905   1.973   0.363   0.397
83358SOL    HW151906   1.900   0.308   0.426
83358SOL    HW251907   2.009   0.318   0.321
83359SOL     OW51908   4.025  14.086   7.748
83359SOL    HW151909   3.954  14.147   7.728
83359SOL    HW251910   4.014  14.067   7.841
83360SOL     OW51911   1.225   0.086   3.084
83360SOL    HW151912   1.301   0.063   3.137
83360SOL    HW251913   1.210   0.009   3.029
83361SOL     OW51914  10.954   8.308   3.711
83361SOL    HW151915  10.923   8.319   3.801
83361SOL    HW251916  10.874   8.314   3.658
83362SOL     OW51917   6.738   4.140   6.474
83362SOL    HW151918   6.754   4.081   6.547
83362SOL    HW251919   6.644   4.136   6.459
83363SOL     OW51920   7.577   1.282  14.870
83363SOL    HW151921   7.668   1.311   0.009
83363SOL    HW251922   7.580   1.224  14.794
83364SOL     OW51923   4.206   4.061   9.343
83364SOL    HW151924   4.175   4.014   9.265
83364SOL    HW251925   4.299   4.074   9.328
83365SOL     OW51926  12.693  10.946  12.403
83365SOL    HW151927  12.730  11.000  12.333
83365SOL    HW251928  12.765  10.888  12.429
83366SOL     OW51929   9.137  11.808   6.891
83366SOL    HW151930   9.188  11.740   6.846
83366SOL    HW251931   9.177  11.815   6.977
83367SOL     OW51932   2.316   2.446   7.627
83367SOL    HW151933   2.311   2.363   7.581
83367SOL    HW251934   2.402   2.446   7.668
83368SOL     OW51935  11.629   6.960   4.032
83368SOL    HW151936  11.697   6.939   3.968
83368SOL    HW251937  11.638   7.054   4.048
83369SOL     OW51938   2.965   3.952   1.433
83369SOL    HW151939   2.922   3.891   1.373
83369SOL    HW251940   2.934   3.926   1.520
83370SOL     OW51941   6.224   0.466   8.655
83370SOL    HW151942   6.144   0.421   8.629
83370SOL    HW251943   6.284   0.395   8.681
83371SOL     OW51944   8.393  12.110  10.289
83371SOL    HW151945   8.366  12.191  10.332
83371SOL    HW251946   8.488  12.111  10.292
83372SOL     OW51947   2.614  12.049   0.220
83372SOL    HW151948   2.616  12.058   0.125
83372SOL    HW251949   2.685  12.105   0.251
83373SOL     OW51950   7.750   9.130   2.132
83373SOL    HW151951   7.688   9.058   2.127
83373SOL    HW251952   7.697   9.208   2.116
83374SOL     OW51953   3.273  13.824  11.151
83374SOL    HW151954   3.209  13.793  11.215
83374SOL    HW251955   3.322  13.746  11.126
83375SOL     OW51956  12.328  12.518  11.065
83375SOL    HW151957  12.311  12.585  11.130
83375SOL    HW251958  12.252  12.461  11.068
83376SOL     OW51959   8.062  14.796  11.967
83376SOL    HW151960   7.969  14.787  11.989
83376SOL    HW251961   8.099  14.710  11.986
83377SOL     OW51962   1.423  13.355  12.862
83377SOL    HW151963   1.408  13.266  12.829
83377SOL    HW251964   1.518  13.360  12.876
83378SOL     OW51965   9.215   8.666  11.966
83378SOL    HW151966   9.254   8.709  12.043
83378SOL    HW251967   9.149   8.728  11.935
83379SOL     OW51968  14.744   6.094  10.710
83379SOL    HW151969  14.812   6.079  10.644
83379SOL    HW251970  14.780   6.162  10.766
83380SOL     OW51971  10.119   2.638  10.120
83380SOL    HW151972  10.143   2.622  10.211
83380SOL    HW251973  10.202   2.652  10.075
83381SOL     OW51974   2.778   4.858   5.356
83381SOL    HW151975   2.771   4.825   5.445
83381SOL    HW251976   2.846   4.926   5.360
83382SOL     OW51977   5.614   9.084   3.621
83382SOL    HW151978   5.655   9.009   3.577
83382SOL    HW251979   5.620   9.155   3.558
83383SOL     OW51980   6.876   8.974  13.571
83383SOL    HW151981   6.805   8.935  13.623
83383SOL    HW251982   6.842   8.974  13.482
83384SOL     OW51983   0.628  12.932   8.154
83384SOL    HW151984   0.660  13.012   8.195
83384SOL    HW251985   0.633  12.865   8.223
83385SOL     OW51986   8.973   5.456   0.626
83385SOL    HW151987   8.958   5.367   0.656
83385SOL    HW251988   8.988   5.448   0.532
83386SOL     OW51989   8.606   8.651   0.991
83386SOL    HW151990   8.672   8.705   0.947
83386SOL    HW251991   8.552   8.714   1.039
83387SOL     OW51992  12.208   0.376  13.675
83387SOL    HW151993  12.169   0.330  13.749
83387SOL    HW251994  12.155   0.350  13.599
83388SOL     OW51995  14.282   5.927   1.899
83388SOL    HW151996  14.244   6.003   1.853
83388SOL    HW251997  14.343   5.966   1.962
83389SOL     OW51998   6.267   0.308   8.069
83389SOL    HW151999   6.255   0.287   8.161
83389SOL    HW252000   6.299   0.228   8.029
83390SOL     OW52001   2.415  13.067   7.676
83390SOL    HW152002   2.347  13.104   7.620
83390SOL    HW252003   2.380  13.076   7.765
83391SOL     OW52004  11.692  12.987   4.009
83391SOL    HW152005  11.713  12.952   4.096
83391SOL    HW252006  11.606  13.026   4.018
83392SOL     OW52007  11.604   0.183   2.944
83392SOL    HW152008  11.648   0.114   2.993
83392SOL    HW252009  11.510   0.163   2.953
83393SOL     OW52010   9.990  13.480  14.302
83393SOL    HW152011  10.032  13.540  14.240
83393SOL    HW252012   9.903  13.464  14.265
83394SOL     OW52013   4.655   7.736   9.120
83394SOL    HW152014   4.596   7.776   9.057
83394SOL    HW252015   4.742   7.742   9.081
83395SOL     OW52016   4.045   7.307   3.581
83395SOL    HW152017   3.957   7.278   3.605
83395SOL    HW252018   4.032   7.395   3.543
83396SOL     OW52019   2.002   3.666  12.470
83396SOL    HW152020   1.953   3.625  12.399
83396SOL    HW252021   1.961   3.633  12.550
83397SOL     OW52022   4.558   3.268  10.887
83397SOL    HW152023   4.529   3.306  10.970
83397SOL    HW252024   4.632   3.212  10.911
83398SOL     OW52025   5.785   5.315  11.608
83398SOL    HW152026   5.808   5.259  11.534
83398SOL    HW252027   5.694   5.340  11.593
83399SOL     OW52028   5.265   0.654   1.662
83399SOL    HW152029   5.170   0.664   1.656
83399SOL    HW252030   5.278   0.559   1.668
83400SOL     OW52031  13.038   7.876   1.032
83400SOL    HW152032  12.980   7.819   0.982
83400SOL    HW252033  13.117   7.883   0.978
83401SOL     OW52034   7.565  14.858   7.342
83401SOL    HW152035   7.589  14.778   7.388
83401SOL    HW252036   7.531  14.828   7.258
83402SOL     OW52037   9.641  10.111   9.902
83402SOL    HW152038   9.729  10.076   9.915
83402SOL    HW252039   9.582  10.039   9.925
83403SOL     OW52040   9.424  13.536   2.374
83403SOL    HW152041   9.516  13.512   2.384
83403SOL    HW252042   9.388  13.532   2.462
83404SOL     OW52043   6.099   6.615   3.765
83404SOL    HW152044   6.023   6.649   3.718
83404SOL    HW252045   6.139   6.692   3.805
83405SOL     OW52046   1.782   0.671   1.656
83405SOL    HW152047   1.824   0.594   1.693
83405SOL    HW252048   1.820   0.679   1.568
83406SOL     OW52049  10.828   0.764   5.350
83406SOL    HW152050  10.879   0.716   5.415
83406SOL    HW252051  10.763   0.812   5.402
83407SOL     OW52052   1.876  11.220   1.641
83407SOL    HW152053   1.835  11.266   1.715
83407SOL    HW252054   1.950  11.275   1.618
83408SOL     OW52055   4.996   0.318  14.577
83408SOL    HW152056   4.952   0.235  14.555
83408SOL    HW252057   5.079   0.313  14.531
83409SOL     OW52058   9.916   0.796   4.664
83409SOL    HW152059   9.904   0.888   4.638
83409SOL    HW252060  10.001   0.772   4.625
83410SOL     OW52061  11.041   1.978   0.660
83410SOL    HW152062  10.974   1.970   0.592
83410SOL    HW252063  11.013   2.053   0.713
83411SOL     OW52064   9.551   3.764   8.977
83411SOL    HW152065   9.555   3.799   8.888
83411SOL    HW252066   9.457   3.761   8.997
83412SOL     OW52067  14.443   6.191   4.459
83412SOL    HW152068  14.459   6.153   4.373
83412SOL    HW252069  14.496   6.138   4.519
83413SOL     OW52070   6.901   2.402   4.243
83413SOL    HW152071   6.960   2.342   4.197
83413SOL    HW252072   6.840   2.432   4.177
83414SOL     OW52073  10.341  11.711   9.071
83414SOL    HW152074  10.404  11.660   9.020
83414SOL    HW252075  10.392  11.783   9.108
83415SOL     OW52076  13.177  14.428   5.543
83415SOL    HW152077  13.235  14.427   5.467
83415SOL    HW252078  13.218  14.490   5.603
83416SOL     OW52079  11.472  11.295   5.448
83416SOL    HW152080  11.521  11.315   5.368
83416SOL    HW252081  11.394  11.249   5.417
83417SOL     OW52082  10.395   0.669  11.728
83417SOL    HW152083  10.310   0.647  11.690
83417SOL    HW252084  10.454   0.600  11.697
83418SOL     OW52085  11.790   3.500   7.632
83418SOL    HW152086  11.828   3.586   7.651
83418SOL    HW252087  11.858   3.454   7.584
83419SOL     OW52088   1.363   3.255   8.021
83419SOL    HW152089   1.350   3.350   8.032
83419SOL    HW252090   1.452   3.247   7.988
83420SOL     OW52091  12.098  14.062   2.375
83420SOL    HW152092  12.006  14.039   2.364
83420SOL    HW252093  12.100  14.114   2.456
83421SOL     OW52094   6.064   2.374   7.111
83421SOL    HW152095   6.160   2.373   7.112
83421SOL    HW252096   6.040   2.295   7.062
83422SOL     OW52097   9.013  12.700   9.859
83422SOL    HW152098   9.051  12.693   9.947
83422SOL    HW252099   8.998  12.609   9.833
83423SOL     OW52100   7.695  12.402   1.082
83423SOL    HW152101   7.612  12.394   1.128
83423SOL    HW252102   7.761  12.391   1.151
83424SOL     OW52103   7.837   3.252   0.745
83424SOL    HW152104   7.783   3.330   0.758
83424SOL    HW252105   7.795   3.205   0.673
83425SOL     OW52106   9.154   7.541   6.305
83425SOL    HW152107   9.233   7.540   6.251
83425SOL    HW252108   9.170   7.475   6.373
83426SOL     OW52109   5.999   1.815  14.305
83426SOL    HW152110   5.905   1.808  14.317
83426SOL    HW252111   6.015   1.777  14.218
83427SOL     OW52112   4.868   6.871  11.809
83427SOL    HW152113   4.803   6.837  11.871
83427SOL    HW252114   4.817   6.914  11.741
83428SOL     OW52115   1.274   3.297   4.849
83428SOL    HW152116   1.241   3.308   4.760
83428SOL    HW252117   1.245   3.376   4.895
83429SOL     OW52118  12.698   8.251  10.087
83429SOL    HW152119  12.685   8.302  10.167
83429SOL    HW252120  12.652   8.302  10.019
83430SOL     OW52121  10.093   7.223   8.739
83430SOL    HW152122  10.085   7.280   8.662
83430SOL    HW252123  10.169   7.168   8.720
83431SOL     OW52124  14.268  10.792   0.706
83431SOL    HW152125  14.324  10.725   0.667
83431SOL    HW252126  14.323  10.832   0.773
83432SOL     OW52127   9.366   5.008   2.240
83432SOL    HW152128   9.303   4.964   2.297
83432SOL    HW252129   9.452   4.978   2.270
83433SOL     OW52130   1.316  11.732  14.556
83433SOL    HW152131   1.394  11.676  14.561
83433SOL    HW252132   1.342  11.814  14.597
83434SOL     OW52133  10.510   6.472  14.808
83434SOL    HW152134  10.471   6.400  14.856
83434SOL    HW252135  10.442   6.540  14.806
83435SOL     OW52136   3.548   5.383   0.704
83435SOL    HW152137   3.579   5.453   0.647
83435SOL    HW252138   3.625   5.328   0.719
83436SOL     OW52139   9.807   8.178  10.236
83436SOL    HW152140   9.856   8.224  10.168
83436SOL    HW252141   9.831   8.086  10.226
83437SOL     OW52142   7.292   6.332   3.308
83437SOL    HW152143   7.242   6.413   3.294
83437SOL    HW252144   7.308   6.298   3.220
83438SOL     OW52145   2.898   8.428   2.804
83438SOL    HW152146   2.927   8.446   2.715
83438SOL    HW252147   2.978   8.408   2.853
83439SOL     OW52148   0.342   7.084   0.711
83439SOL    HW152149   0.385   7.165   0.739
83439SOL    HW252150   0.304   7.105   0.626
83440SOL     OW52151  13.782  11.800  12.659
83440SOL    HW152152  13.840  11.727  12.679
83440SOL    HW252153  13.696  11.771  12.688
83441SOL     OW52154  12.078   7.648  12.578
83441SOL    HW152155  12.090   7.557  12.553
83441SOL    HW252156  12.118   7.654  12.665
83442SOL     OW52157  10.262   7.912  10.447
83442SOL    HW152158  10.235   7.911  10.355
83442SOL    HW252159  10.343   7.862  10.448
83443SOL     OW52160   0.235   4.528  13.047
83443SOL    HW152161   0.201   4.447  13.084
83443SOL    HW252162   0.232   4.591  13.119
83444SOL     OW52163   9.407  10.717   5.117
83444SOL    HW152164   9.330  10.691   5.067
83444SOL    HW252165   9.478  10.662   5.083
83445SOL     OW52166   6.607   2.571   3.850
83445SOL    HW152167   6.635   2.545   3.938
83445SOL    HW252168   6.620   2.493   3.797
83446SOL     OW52169  14.681   4.227   1.901
83446SOL    HW152170  14.745   4.253   1.834
83446SOL    HW252171  14.720   4.150   1.942
83447SOL     OW52172   8.061  11.149  10.100
83447SOL    HW152173   8.139  11.097  10.082
83447SOL    HW252174   8.002  11.089  10.148
83448SOL     OW52175   6.798  12.443   9.001
83448SOL    HW152176   6.709  12.415   9.021
83448SOL    HW252177   6.792  12.537   8.988
83449SOL     OW52178   5.517   4.167   4.465
83449SOL    HW152179   5.481   4.082   4.439
83449SOL    HW252180   5.551   4.205   4.384
83450SOL     OW52181   2.420   2.236  10.473
83450SOL    HW152182   2.459   2.155  10.506
83450SOL    HW252183   2.379   2.211  10.390
83451SOL     OW52184   2.908  11.340   9.261
83451SOL    HW152185   2.817  11.366   9.273
83451SOL    HW252186   2.912  11.249   9.292
83452SOL     OW52187   3.925   2.227   5.107
83452SOL    HW152188   3.948   2.288   5.037
83452SOL    HW252189   3.969   2.263   5.185
83453SOL     OW52190  11.810   2.038   3.126
83453SOL    HW152191  11.717   2.020   3.108
83453SOL    HW252192  11.856   1.960   3.095
83454SOL     OW52193  11.835   8.261   6.237
83454SOL    HW152194  11.796   8.177   6.262
83454SOL    HW252195  11.928   8.249   6.252
83455SOL     OW52196   1.820  12.052  14.302
83455SOL    HW152197   1.912  12.027  14.312
83455SOL    HW252198   1.785  11.987  14.240
83456SOL     OW52199   4.638   6.751   7.667
83456SOL    HW152200   4.659   6.668   7.625
83456SOL    HW252201   4.676   6.817   7.609
83457SOL     OW52202   1.186  14.683  11.559
83457SOL    HW152203   1.282  14.679  11.557
83457SOL    HW252204   1.158  14.606  11.510
83458SOL     OW52205   2.614   5.341   1.431
83458SOL    HW152206   2.625   5.407   1.500
83458SOL    HW252207   2.588   5.262   1.477
83459SOL     OW52208   3.713  13.780   1.933
83459SOL    HW152209   3.727  13.840   1.860
83459SOL    HW252210   3.736  13.830   2.011
83460SOL     OW52211   6.988   2.008  11.404
83460SOL    HW152212   6.939   1.978  11.480
83460SOL    HW252213   6.982   1.936  11.341
83461SOL     OW52214   5.663  11.636  10.559
83461SOL    HW152215   5.668  11.722  10.601
83461SOL    HW252216   5.737  11.588  10.595
83462SOL     OW52217  13.776   4.764  10.715
83462SOL    HW152218  13.804   4.810  10.794
83462SOL    HW252219  13.713   4.822  10.674
83463SOL     OW52220  13.347   9.503   1.108
83463SOL    HW152221  13.354   9.593   1.139
83463SOL    HW252222  13.381   9.506   1.018
83464SOL     OW52223   3.497   9.119  14.534
83464SOL    HW152224   3.494   9.196  14.591
83464SOL    HW252225   3.449   9.146  14.455
83465SOL     OW52226  11.170   7.419   3.781
83465SOL    HW152227  11.122   7.437   3.700
83465SOL    HW252228  11.262   7.416   3.754
83466SOL     OW52229   8.424   2.274   4.016
83466SOL    HW152230   8.397   2.200   3.961
83466SOL    HW252231   8.375   2.349   3.982
83467SOL     OW52232  11.355  12.317   9.126
83467SOL    HW152233  11.378  12.271   9.206
83467SOL    HW252234  11.431  12.308   9.069
83468SOL     OW52235  14.678   7.001   2.616
83468SOL    HW152236  14.639   6.965   2.696
83468SOL    HW252237  14.619   6.971   2.546
83469SOL     OW52238  13.635  10.116  12.555
83469SOL    HW152239  13.699  10.065  12.505
83469SOL    HW252240  13.579  10.051  12.596
83470SOL     OW52241   1.026   4.461  11.445
83470SOL    HW152242   1.001   4.553  11.436
83470SOL    HW252243   0.942   4.414  11.444
83471SOL     OW52244   4.511   0.405   6.024
83471SOL    HW152245   4.459   0.372   5.951
83471SOL    HW252246   4.477   0.358   6.101
83472SOL     OW52247   4.566   7.863  12.510
83472SOL    HW152248   4.485   7.812  12.509
83472SOL    HW252249   4.594   7.866  12.418
83473SOL     OW52250   2.743  13.477   6.029
83473SOL    HW152251   2.812  13.416   6.057
83473SOL    HW252252   2.695  13.498   6.109
83474SOL     OW52253  10.518   8.720   4.879
83474SOL    HW152254  10.546   8.692   4.966
83474SOL    HW252255  10.565   8.802   4.864
83475SOL     OW52256  14.329  11.278   0.488
83475SOL    HW152257  14.248  11.286   0.539
83475SOL    HW252258  14.374  11.361   0.502
83476SOL     OW52259   8.426   5.978   1.040
83476SOL    HW152260   8.511   5.941   1.064
83476SOL    HW252261   8.368   5.951   1.111
83477SOL     OW52262  14.872   1.210   2.457
83477SOL    HW152263  14.837   1.293   2.426
83477SOL    HW252264  14.851   1.148   2.388
83478SOL     OW52265  13.246   1.465   2.324
83478SOL    HW152266  13.285   1.380   2.341
83478SOL    HW252267  13.304   1.506   2.260
83479SOL     OW52268  11.869  12.477   1.481
83479SOL    HW152269  11.778  12.474   1.451
83479SOL    HW252270  11.919  12.433   1.413
83480SOL     OW52271   6.741   0.457   2.861
83480SOL    HW152272   6.788   0.377   2.882
83480SOL    HW252273   6.809   0.523   2.849
83481SOL     OW52274   1.970   8.947   1.774
83481SOL    HW152275   1.921   8.912   1.848
83481SOL    HW252276   2.013   9.025   1.808
83482SOL     OW52277   4.497   2.826   6.014
83482SOL    HW152278   4.496   2.740   6.056
83482SOL    HW252279   4.475   2.888   6.083
83483SOL     OW52280  10.217   1.353  12.256
83483SOL    HW152281  10.238   1.365  12.348
83483SOL    HW252282  10.169   1.270  12.253
83484SOL     OW52283   1.668  12.027   7.932
83484SOL    HW152284   1.761  12.004   7.927
83484SOL    HW252285   1.627  11.980   7.859
83485SOL     OW52286   8.358  10.388  10.696
83485SOL    HW152287   8.374  10.312  10.641
83485SOL    HW252288   8.274  10.369  10.739
83486SOL     OW52289   9.466   9.481   1.709
83486SOL    HW152290   9.468   9.386   1.719
83486SOL    HW252291   9.487   9.515   1.796
83487SOL     OW52292  13.279  11.881   5.207
83487SOL    HW152293  13.295  11.964   5.252
83487SOL    HW252294  13.355  11.871   5.150
83488SOL     OW52295   7.327   3.729   4.497
83488SOL    HW152296   7.291   3.811   4.464
83488SOL    HW252297   7.253   3.684   4.536
83489SOL     OW52298  12.356   6.157  10.665
83489SOL    HW152299  12.415   6.115  10.728
83489SOL    HW252300  12.273   6.165  10.712
83490SOL     OW52301  12.737   8.088  12.274
83490SOL    HW152302  12.765   8.064  12.362
83490SOL    HW252303  12.642   8.078  12.275
83491SOL     OW52304   0.014   1.680   3.544
83491SOL    HW152305  14.871   1.685   3.450
83491SOL    HW252306  14.821   1.616   3.575
83492SOL     OW52307   1.368   8.692  11.870
83492SOL    HW152308   1.381   8.785  11.886
83492SOL    HW252309   1.444   8.666  11.818
83493SOL     OW52310   5.063   0.847   5.203
83493SOL    HW152311   5.105   0.765   5.176
83493SOL    HW252312   5.115   0.877   5.277
83494SOL     OW52313  11.112  14.383   8.990
83494SOL    HW152314  11.017  14.377   8.979
83494SOL    HW252315  11.148  14.347   8.909
83495SOL     OW52316   8.341   4.762   5.009
83495SOL    HW152317   8.264   4.762   5.065
83495SOL    HW252318   8.306   4.750   4.920
83496SOL     OW52319   1.528   7.203   1.273
83496SOL    HW152320   1.435   7.219   1.285
83496SOL    HW252321   1.550   7.248   1.192
83497SOL     OW52322  12.140  14.369   3.345
83497SOL    HW152323  12.047  14.345   3.339
83497SOL    HW252324  12.168  14.337   3.430
83498SOL     OW52325   7.273   8.863   6.719
83498SOL    HW152326   7.292   8.802   6.647
83498SOL    HW252327   7.236   8.808   6.788
83499SOL     OW52328   5.808  10.045   9.325
83499SOL    HW152329   5.900  10.065   9.307
83499SOL    HW252330   5.791   9.965   9.275
83500SOL     OW52331   9.006   0.912  12.223
83500SOL    HW152332   9.052   0.996  12.221
83500SOL    HW252333   9.033   0.872  12.305
83501SOL     OW52334   5.234   7.143   7.613
83501SOL    HW152335   5.294   7.217   7.601
83501SOL    HW252336   5.250   7.086   7.538
83502SOL     OW52337   1.400  14.206   4.598
83502SOL    HW152338   1.321  14.202   4.543
83502SOL    HW252339   1.405  14.298   4.624
83503SOL     OW52340   9.013   9.152   3.877
83503SOL    HW152341   9.075   9.221   3.853
83503SOL    HW252342   8.946   9.156   3.810
83504SOL     OW52343   1.927   0.010   8.295
83504SOL    HW152344   1.869   0.059   8.352
83504SOL    HW252345   1.897   0.031   8.206
83505SOL     OW52346   0.894   6.951   6.078
83505SOL    HW152347   0.824   7.007   6.112
83505SOL    HW252348   0.869   6.862   6.103
83506SOL     OW52349   6.532   5.361   7.242
83506SOL    HW152350   6.592   5.408   7.300
83506SOL    HW252351   6.445   5.377   7.280
83507SOL     OW52352  13.875   8.907  10.760
83507SOL    HW152353  13.788   8.930  10.792
83507SOL    HW252354  13.880   8.947  10.673
83508SOL     OW52355   0.683   4.225  11.692
83508SOL    HW152356   0.593   4.198  11.709
83508SOL    HW252357   0.727   4.217  11.776
83509SOL     OW52358  13.274   3.313   4.702
83509SOL    HW152359  13.243   3.226   4.678
83509SOL    HW252360  13.202   3.372   4.677
83510SOL     OW52361   0.958   2.784   8.141
83510SOL    HW152362   1.005   2.819   8.065
83510SOL    HW252363   1.014   2.713   8.173
83511SOL     OW52364   3.832   9.999  11.860
83511SOL    HW152365   3.880  10.027  11.782
83511SOL    HW252366   3.796   9.914  11.836
83512SOL     OW52367   6.885  13.542   1.353
83512SOL    HW152368   6.865  13.452   1.327
83512SOL    HW252369   6.806  13.571   1.398
83513SOL     OW52370  14.505  12.540   6.892
83513SOL    HW152371  14.511  12.567   6.984
83513SOL    HW252372  14.561  12.602   6.845
83514SOL     OW52373   4.800  11.441  12.019
83514SOL    HW152374   4.783  11.535  12.027
83514SOL    HW252375   4.861  11.435  11.945
83515SOL     OW52376   3.181   5.930   5.582
83515SOL    HW152377   3.146   5.850   5.620
83515SOL    HW252378   3.241   5.900   5.514
83516SOL     OW52379  12.064   9.791   6.936
83516SOL    HW152380  12.036   9.771   6.847
83516SOL    HW252381  12.054   9.708   6.984
83517SOL     OW52382  13.317   3.945   9.086
83517SOL    HW152383  13.392   3.973   9.137
83517SOL    HW252384  13.257   3.907   9.150
83518SOL     OW52385   1.937   7.874  13.695
83518SOL    HW152386   1.960   7.829  13.777
83518SOL    HW252387   1.841   7.879  13.698
83519SOL     OW52388   7.295   8.295  13.653
83519SOL    HW152389   7.254   8.226  13.706
83519SOL    HW252390   7.247   8.374  13.676
83520SOL     OW52391   5.292   0.857  10.946
83520SOL    HW152392   5.351   0.852  10.871
83520SOL    HW252393   5.344   0.826  11.020
83521SOL     OW52394   8.947   8.440  11.098
83521SOL    HW152395   9.004   8.446  11.022
83521SOL    HW252396   8.997   8.391  11.163
83522SOL     OW52397   8.424   4.050   6.079
83522SOL    HW152398   8.369   4.054   6.001
83522SOL    HW252399   8.412   4.136   6.120
83523SOL     OW52400   1.573  12.925   5.987
83523SOL    HW152401   1.525  12.981   5.926
83523SOL    HW252402   1.520  12.846   5.993
83524SOL     OW52403   4.980  14.153   1.198
83524SOL    HW152404   5.070  14.121   1.193
83524SOL    HW252405   4.965  14.193   1.112
83525SOL     OW52406   2.084  10.491   0.816
83525SOL    HW152407   2.076  10.408   0.864
83525SOL    HW252408   2.132  10.468   0.737
83526SOL     OW52409   7.241   3.652   3.809
83526SOL    HW152410   7.276   3.570   3.773
83526SOL    HW252411   7.220   3.630   3.900
83527SOL     OW52412   8.845   8.800   5.764
83527SOL    HW152413   8.787   8.870   5.796
83527SOL    HW252414   8.909   8.788   5.834
83528SOL     OW52415   7.443   6.959   5.422
83528SOL    HW152416   7.437   6.952   5.327
83528SOL    HW252417   7.467   7.051   5.438
83529SOL     OW52418   3.880  13.151   1.118
83529SOL    HW152419   3.942  13.080   1.132
83529SOL    HW252420   3.935  13.226   1.094
83530SOL     OW52421   1.074   8.086  12.405
83530SOL    HW152422   1.158   8.069  12.364
83530SOL    HW252423   1.065   8.017  12.472
83531SOL     OW52424   8.531   1.528   3.743
83531SOL    HW152425   8.540   1.442   3.784
83531SOL    HW252426   8.620   1.562   3.737
83532SOL     OW52427  13.602   6.116  12.563
83532SOL    HW152428  13.512   6.124  12.596
83532SOL    HW252429  13.594   6.134  12.469
83533SOL     OW52430   2.045   9.316  12.127
83533SOL    HW152431   2.033   9.409  12.113
83533SOL    HW252432   2.034   9.304  12.221
83534SOL     OW52433   3.376  11.749   8.675
83534SOL    HW152434   3.449  11.715   8.623
83534SOL    HW252435   3.345  11.825   8.625
83535SOL     OW52436   2.278   3.834  10.283
83535SOL    HW152437   2.303   3.870  10.198
83535SOL    HW252438   2.238   3.908  10.329
83536SOL     OW52439   3.976   9.086  13.429
83536SOL    HW152440   3.989   9.033  13.508
83536SOL    HW252441   3.931   9.028  13.368
83537SOL     OW52442   4.705  12.479  11.410
83537SOL    HW152443   4.679  12.563  11.447
83537SOL    HW252444   4.799  12.486  11.395
83538SOL     OW52445   6.456  14.107   9.966
83538SOL    HW152446   6.405  14.141  10.040
83538SOL    HW252447   6.481  14.184   9.916
83539SOL     OW52448   0.786   8.842  13.823
83539SOL    HW152449   0.833   8.791  13.889
83539SOL    HW252450   0.707   8.790  13.805
83540SOL     OW52451   9.535  11.770   0.141
83540SOL    HW152452   9.627  11.788   0.162
83540SOL    HW252453   9.495  11.750   0.226
83541SOL     OW52454   9.667   2.423   3.823
83541SOL    HW152455   9.705   2.488   3.883
83541SOL    HW252456   9.587   2.395   3.867
83542SOL     OW52457  14.295  12.075  10.573
83542SOL    HW152458  14.333  11.992  10.599
83542SOL    HW252459  14.274  12.119  10.656
83543SOL     OW52460   7.560   3.374   5.869
83543SOL    HW152461   7.639   3.420   5.897
83543SOL    HW252462   7.572   3.284   5.900
83544SOL     OW52463  10.131   0.359  14.233
83544SOL    HW152464  10.073   0.430  14.206
83544SOL    HW252465  10.095   0.329  14.316
83545SOL     OW52466   7.858   7.444   1.869
83545SOL    HW152467   7.886   7.375   1.929
83545SOL    HW252468   7.876   7.525   1.915
83546SOL     OW52469   8.814  14.797   8.325
83546SOL    HW152470   8.723  14.825   8.318
83546SOL    HW252471   8.824  14.770   8.416
83547SOL     OW52472  10.736  10.366   2.448
83547SOL    HW152473  10.728  10.369   2.544
83547SOL    HW252474  10.689  10.288   2.422
83548SOL     OW52475  10.602   7.086   6.063
83548SOL    HW152476  10.658   7.089   5.985
83548SOL    HW252477  10.632   7.159   6.117
83549SOL     OW52478   6.676   3.443   5.435
83549SOL    HW152479   6.692   3.355   5.470
83549SOL    HW252480   6.660   3.429   5.342
83550SOL     OW52481   5.270   2.651  12.154
83550SOL    HW152482   5.187   2.698  12.139
83550SOL    HW252483   5.247   2.581  12.214
83551SOL     OW52484   6.670   6.502  13.891
83551SOL    HW152485   6.663   6.410  13.919
83551SOL    HW252486   6.728   6.500  13.815
83552SOL     OW52487  10.145   3.912   0.251
83552SOL    HW152488  10.240   3.901   0.250
83552SOL    HW252489  10.125   3.953   0.167
83553SOL     OW52490   6.936  10.272  13.274
83553SOL    HW152491   6.863  10.272  13.212
83553SOL    HW252492   6.898  10.241  13.356
83554SOL     OW52493   1.812   1.095  13.499
83554SOL    HW152494   1.827   1.070  13.590
83554SOL    HW252495   1.825   1.190  13.498
83555SOL     OW52496   9.444   8.961  13.577
83555SOL    HW152497   9.366   8.918  13.542
83555SOL    HW252498   9.413   9.047  13.606
83556SOL     OW52499   0.480   3.925  14.852
83556SOL    HW152500   0.447   3.967   0.059
83556SOL    HW252501   0.539   3.857   0.011
83557SOL     OW52502   4.426   3.787   9.807
83557SOL    HW152503   4.366   3.718   9.780
83557SOL    HW252504   4.380   3.868   9.787
83558SOL     OW52505  14.089   0.608   0.344
83558SOL    HW152506  14.140   0.538   0.385
83558SOL    HW252507  14.070   0.575   0.257
83559SOL     OW52508   7.958  10.940  10.240
83559SOL    HW152509   7.998  10.904  10.319
83559SOL    HW252510   7.876  10.979  10.269
83560SOL     OW52511   8.065  10.579   7.931
83560SOL    HW152512   8.075  10.513   7.999
83560SOL    HW252513   8.152  10.584   7.891
83561SOL     OW52514   5.732  12.865  14.374
83561SOL    HW152515   5.827  12.857  14.376
83561SOL    HW252516   5.714  12.945  14.424
83562SOL     OW52517   3.486   7.762   3.501
83562SOL    HW152518   3.524   7.838   3.546
83562SOL    HW252519   3.396   7.787   3.484
83563SOL     OW52520   3.756   6.113   4.316
83563SOL    HW152521   3.844   6.123   4.280
83563SOL    HW252522   3.767   6.057   4.392
83564SOL     OW52523   0.216   0.615  11.725
83564SOL    HW152524   0.169   0.633  11.643
83564SOL    HW252525   0.257   0.698  11.748
83565SOL     OW52526   5.170   5.966  14.112
83565SOL    HW152527   5.143   5.880  14.146
83565SOL    HW252528   5.154   5.960  14.018
83566SOL     OW52529   7.235  10.793   1.707
83566SOL    HW152530   7.275  10.747   1.632
83566SOL    HW252531   7.215  10.880   1.674
83567SOL     OW52532   6.698  14.067   5.869
83567SOL    HW152533   6.764  13.998   5.866
83567SOL    HW252534   6.741  14.140   5.912
83568SOL     OW52535   8.819   6.983   5.034
83568SOL    HW152536   8.870   7.019   5.107
83568SOL    HW252537   8.745   7.042   5.025
83569SOL     OW52538   9.598   7.337   5.129
83569SOL    HW152539   9.572   7.349   5.221
83569SOL    HW252540   9.670   7.399   5.117
83570SOL     OW52541   8.507   8.710  11.899
83570SOL    HW152542   8.420   8.748  11.908
83570SOL    HW252543   8.542   8.748  11.819
83571SOL     OW52544   4.220   4.031   1.543
83571SOL    HW152545   4.282   3.970   1.585
83571SOL    HW252546   4.274   4.080   1.481
83572SOL     OW52547   2.125   4.489   0.701
83572SOL    HW152548   2.109   4.400   0.733
83572SOL    HW252549   2.122   4.544   0.780
83573SOL     OW52550   5.868  10.148   4.155
83573SOL    HW152551   5.930  10.210   4.193
83573SOL    HW252552   5.921  10.074   4.127
83574SOL     OW52553  10.331  14.288   9.487
83574SOL    HW152554  10.406  14.276   9.428
83574SOL    HW252555  10.344  14.376   9.523
83575SOL     OW52556   1.471   1.201   2.270
83575SOL    HW152557   1.519   1.249   2.202
83575SOL    HW252558   1.390   1.174   2.226
83576SOL     OW52559   7.068   9.876   1.924
83576SOL    HW152560   7.147   9.827   1.900
83576SOL    HW252561   7.069   9.878   2.019
83577SOL     OW52562  14.294  10.721   9.616
83577SOL    HW152563  14.352  10.649   9.593
83577SOL    HW252564  14.214  10.704   9.568
83578SOL     OW52565  12.162   3.638  10.341
83578SOL    HW152566  12.179   3.625  10.435
83578SOL    HW252567  12.079   3.593  10.326
83579SOL     OW52568   4.321  10.391   6.028
83579SOL    HW152569   4.225  10.390   6.027
83579SOL    HW252570   4.346  10.356   5.942
83580SOL     OW52571   3.346  10.982   9.065
83580SOL    HW152572   3.330  11.017   8.978
83580SOL    HW252573   3.410  10.912   9.051
83581SOL     OW52574  10.732  13.201   1.899
83581SOL    HW152575  10.794  13.248   1.955
83581SOL    HW252576  10.671  13.267   1.869
83582SOL     OW52577   3.720   2.393   1.125
83582SOL    HW152578   3.756   2.439   1.049
83582SOL    HW252579   3.756   2.304   1.118
83583SOL     OW52580   5.613   9.006  12.292
83583SOL    HW152581   5.590   9.094  12.264
83583SOL    HW252582   5.545   8.983  12.356
83584SOL     OW52583  11.447   2.010   6.949
83584SOL    HW152584  11.519   2.072   6.940
83584SOL    HW252585  11.466   1.964   7.031
83585SOL     OW52586  11.557   1.809   8.488
83585SOL    HW152587  11.634   1.859   8.516
83585SOL    HW252588  11.522   1.860   8.414
83586SOL     OW52589   9.716   5.013  12.334
83586SOL    HW152590   9.686   4.982  12.248
83586SOL    HW252591   9.710   4.935  12.390
83587SOL     OW52592   3.505   0.763   7.651
83587SOL    HW152593   3.417   0.799   7.667
83587SOL    HW252594   3.561   0.807   7.715
83588SOL     OW52595   8.919   6.554   9.494
83588SOL    HW152596   8.826   6.535   9.492
83588SOL    HW252597   8.940   6.561   9.587
83589SOL     OW52598   1.082  14.315   1.160
83589SOL    HW152599   1.164  14.309   1.111
83589SOL    HW252600   1.106  14.287   1.249
83590SOL     OW52601   4.500   1.807   8.240
83590SOL    HW152602   4.499   1.797   8.145
83590SOL    HW252603   4.588   1.779   8.265
83591SOL     OW52604   2.987   7.936   5.426
83591SOL    HW152605   2.920   8.004   5.416
83591SOL    HW252606   3.023   7.925   5.338
83592SOL     OW52607  13.220   9.303   2.090
83592SOL    HW152608  13.152   9.245   2.054
83592SOL    HW252609  13.271   9.330   2.014
83593SOL     OW52610   4.280   3.212   9.521
83593SOL    HW152611   4.200   3.204   9.572
83593SOL    HW252612   4.306   3.304   9.531
83594SOL     OW52613   9.390   4.326   9.716
83594SOL    HW152614   9.321   4.288   9.771
83594SOL    HW252615   9.415   4.407   9.761
83595SOL     OW52616   1.740   9.474   5.262
83595SOL    HW152617   1.750   9.436   5.174
83595SOL    HW252618   1.816   9.441   5.311
83596SOL     OW52619  13.103   5.219   1.621
83596SOL    HW152620  13.115   5.301   1.573
83596SOL    HW252621  13.060   5.246   1.703
83597SOL     OW52622  13.797  10.786   5.788
83597SOL    HW152623  13.858  10.714   5.774
83597SOL    HW252624  13.726  10.769   5.726
83598SOL     OW52625   0.271   7.656   4.416
83598SOL    HW152626   0.191   7.605   4.404
83598SOL    HW252627   0.282   7.703   4.333
83599SOL     OW52628  13.595   4.204  13.713
83599SOL    HW152629  13.560   4.211  13.802
83599SOL    HW252630  13.594   4.110  13.695
83600SOL     OW52631  14.012   9.091  11.606
83600SOL    HW152632  13.991   9.107  11.514
83600SOL    HW252633  14.059   9.169  11.635
83601SOL     OW52634   9.023   4.343   5.229
83601SOL    HW152635   8.942   4.344   5.279
83601SOL    HW252636   8.995   4.350   5.138
83602SOL     OW52637   0.756   2.449   3.302
83602SOL    HW152638   0.767   2.538   3.336
83602SOL    HW252639   0.687   2.411   3.356
83603SOL     OW52640   8.281   9.570   8.594
83603SOL    HW152641   8.355   9.618   8.632
83603SOL    HW252642   8.221   9.639   8.564
83604SOL     OW52643  11.563  11.386   3.166
83604SOL    HW152644  11.623  11.429   3.226
83604SOL    HW252645  11.476  11.415   3.193
83605SOL     OW52646   8.489   6.318  12.147
83605SOL    HW152647   8.395   6.321  12.132
83605SOL    HW252648   8.509   6.399  12.194
83606SOL     OW52649   8.309   1.623  11.545
83606SOL    HW152650   8.332   1.537  11.510
83606SOL    HW252651   8.303   1.679  11.467
83607SOL     OW52652   3.621   8.833   1.192
83607SOL    HW152653   3.549   8.771   1.187
83607SOL    HW252654   3.608   8.879   1.275
83608SOL     OW52655   7.300  14.356   8.637
83608SOL    HW152656   7.266  14.280   8.590
83608SOL    HW252657   7.364  14.394   8.577
83609SOL     OW52658   2.265  12.208   4.792
83609SOL    HW152659   2.261  12.281   4.854
83609SOL    HW252660   2.230  12.243   4.711
83610SOL     OW52661   3.223   3.966   6.424
83610SOL    HW152662   3.286   4.013   6.370
83610SOL    HW252663   3.158   3.931   6.363
83611SOL     OW52664   3.276   7.154  12.568
83611SOL    HW152665   3.312   7.180  12.484
83611SOL    HW252666   3.254   7.236  12.612
83612SOL     OW52667  12.989   0.958  11.849
83612SOL    HW152668  12.984   0.988  11.759
83612SOL    HW252669  12.898   0.962  11.881
83613SOL     OW52670   1.363   4.878  12.571
83613SOL    HW152671   1.382   4.784  12.564
83613SOL    HW252672   1.449   4.920  12.564
83614SOL     OW52673  12.570  14.029   2.147
83614SOL    HW152674  12.578  14.081   2.067
83614SOL    HW252675  12.661  14.005   2.168
83615SOL     OW52676   6.366  14.649  12.670
83615SOL    HW152677   6.449  14.608  12.645
83615SOL    HW252678   6.351  14.620  12.760
83616SOL     OW52679   9.153  11.800   0.171
83616SOL    HW152680   9.187  11.888   0.154
83616SOL    HW252681   9.095  11.782   0.097
83617SOL     OW52682   8.992   4.279   2.790
83617SOL    HW152683   9.060   4.346   2.778
83617SOL    HW252684   8.981   4.241   2.703
83618SOL     OW52685   6.277   0.179   9.677
83618SOL    HW152686   6.277   0.273   9.658
83618SOL    HW252687   6.228   0.140   9.604
83619SOL     OW52688  10.209  12.591   5.021
83619SOL    HW152689  10.170  12.593   5.108
83619SOL    HW252690  10.298  12.560   5.036
83620SOL     OW52691  14.082  10.342   1.837
83620SOL    HW152692  14.035  10.285   1.776
83620SOL    HW252693  14.151  10.382   1.784
83621SOL     OW52694  13.222   5.662  11.271
83621SOL    HW152695  13.152   5.725  11.257
83621SOL    HW252696  13.241   5.628  11.183
83622SOL     OW52697   6.142   7.393   2.458
83622SOL    HW152698   6.102   7.307   2.461
83622SOL    HW252699   6.187   7.396   2.374
83623SOL     OW52700   1.976   1.339   9.918
83623SOL    HW152701   2.057   1.351   9.969
83623SOL    HW252702   1.968   1.419   9.867
83624SOL     OW52703  13.607  10.400   1.107
83624SOL    HW152704  13.623  10.312   1.074
83624SOL    HW252705  13.540  10.435   1.049
83625SOL     OW52706   1.614   8.277  11.569
83625SOL    HW152707   1.566   8.198  11.543
83625SOL    HW252708   1.651   8.255  11.654
83626SOL     OW52709  12.728  11.383   2.740
83626SOL    HW152710  12.743  11.327   2.817
83626SOL    HW252711  12.791  11.351   2.675
83627SOL     OW52712  13.534   2.690  13.406
83627SOL    HW152713  13.484   2.624  13.454
83627SOL    HW252714  13.559   2.755  13.472
83628SOL     OW52715  14.288   3.088  12.013
83628SOL    HW152716  14.327   3.121  12.094
83628SOL    HW252717  14.265   2.997  12.032
83629SOL     OW52718  12.588  11.253   1.709
83629SOL    HW152719  12.553  11.170   1.676
83629SOL    HW252720  12.665  11.228   1.760
83630SOL     OW52721   5.624   7.506   6.195
83630SOL    HW152722   5.558   7.510   6.264
83630SOL    HW252723   5.693   7.451   6.232
83631SOL     OW52724   8.401   1.792  14.317
83631SOL    HW152725   8.468   1.787  14.249
83631SOL    HW252726   8.449   1.783  14.400
83632SOL     OW52727   9.268  11.348   3.492
83632SOL    HW152728   9.213  11.363   3.415
83632SOL    HW252729   9.337  11.414   3.485
83633SOL     OW52730  12.752  10.873   2.331
83633SOL    HW152731  12.814  10.808   2.297
83633SOL    HW252732  12.667  10.845   2.300
83634SOL     OW52733  12.070  11.880   7.121
83634SOL    HW152734  12.009  11.929   7.177
83634SOL    HW252735  12.079  11.933   7.042
83635SOL     OW52736   9.837   0.621   2.216
83635SOL    HW152737   9.760   0.641   2.162
83635SOL    HW252738   9.821   0.667   2.298
83636SOL     OW52739  10.176  12.133   4.311
83636SOL    HW152740  10.132  12.215   4.286
83636SOL    HW252741  10.132  12.066   4.258
83637SOL     OW52742  11.167   6.703  14.117
83637SOL    HW152743  11.175   6.615  14.082
83637SOL    HW252744  11.184   6.761  14.042
83638SOL     OW52745  13.608   5.471   4.324
83638SOL    HW152746  13.642   5.522   4.397
83638SOL    HW252747  13.642   5.515   4.246
83639SOL     OW52748   9.594  10.928   7.527
83639SOL    HW152749   9.559  10.904   7.441
83639SOL    HW252750   9.674  10.978   7.508
83640SOL     OW52751   3.014   2.579   8.715
83640SOL    HW152752   3.002   2.554   8.807
83640SOL    HW252753   3.042   2.670   8.719
83641SOL     OW52754  13.127  11.014   9.677
83641SOL    HW152755  13.139  11.106   9.653
83641SOL    HW252756  13.216  10.980   9.686
83642SOL     OW52757  14.694   1.564   7.258
83642SOL    HW152758  14.762   1.502   7.230
83642SOL    HW252759  14.664   1.604   7.176
83643SOL     OW52760  12.185   7.238  12.110
83643SOL    HW152761  12.235   7.256  12.189
83643SOL    HW252762  12.240   7.178  12.059
83644SOL     OW52763   5.515   4.301   0.524
83644SOL    HW152764   5.594   4.248   0.539
83644SOL    HW252765   5.483   4.272   0.438
83645SOL     OW52766  14.147  10.253  11.642
83645SOL    HW152767  14.185  10.291  11.721
83645SOL    HW252768  14.197  10.293  11.570
83646SOL     OW52769  13.434  14.404   7.221
83646SOL    HW152770  13.486  14.445   7.290
83646SOL    HW252771  13.344  14.410   7.252
83647SOL     OW52772   7.948   8.668   7.967
83647SOL    HW152773   7.901   8.722   7.904
83647SOL    HW252774   7.994   8.730   8.023
83648SOL     OW52775   2.951   3.463   2.045
83648SOL    HW152776   2.995   3.492   2.125
83648SOL    HW252777   2.897   3.537   2.019
83649SOL     OW52778   1.715  10.368   1.823
83649SOL    HW152779   1.803  10.331   1.827
83649SOL    HW252780   1.723  10.442   1.764
83650SOL     OW52781   0.835  14.200   6.089
83650SOL    HW152782   0.913  14.211   6.143
83650SOL    HW252783   0.775  14.149   6.143
83651SOL     OW52784  12.511   9.230   9.448
83651SOL    HW152785  12.447   9.283   9.400
83651SOL    HW252786  12.472   9.219   9.535
83652SOL     OW52787  14.484   1.109   3.019
83652SOL    HW152788  14.398   1.137   2.989
83652SOL    HW252789  14.480   1.014   3.020
83653SOL     OW52790  11.659  13.393   6.309
83653SOL    HW152791  11.667  13.441   6.226
83653SOL    HW252792  11.722  13.322   6.302
83654SOL     OW52793   8.829   9.561   4.788
83654SOL    HW152794   8.879   9.573   4.707
83654SOL    HW252795   8.757   9.623   4.781
83655SOL     OW52796   8.628   0.244  12.425
83655SOL    HW152797   8.642   0.278  12.513
83655SOL    HW252798   8.598   0.320  12.374
83656SOL     OW52799   5.373  10.590  14.000
83656SOL    HW152800   5.284  10.565  13.974
83656SOL    HW252801   5.425  10.511  13.990
83657SOL     OW52802  10.390   1.351   6.997
83657SOL    HW152803  10.380   1.313   6.910
83657SOL    HW252804  10.484   1.344   7.015
83658SOL     OW52805   8.470   7.016  12.418
83658SOL    HW152806   8.552   7.045  12.379
83658SOL    HW252807   8.488   6.927  12.450
83659SOL     OW52808   6.832   1.166   5.334
83659SOL    HW152809   6.879   1.160   5.251
83659SOL    HW252810   6.895   1.136   5.400
83660SOL     OW52811   6.712   0.565   3.239
83660SOL    HW152812   6.787   0.508   3.225
83660SOL    HW252813   6.748   0.654   3.234
83661SOL     OW52814  11.545   2.453   1.844
83661SOL    HW152815  11.490   2.393   1.794
83661SOL    HW252816  11.507   2.539   1.830
83662SOL     OW52817  12.467   7.733   3.712
83662SOL    HW152818  12.400   7.717   3.778
83662SOL    HW252819  12.495   7.823   3.728
83663SOL     OW52820   6.036  14.757   1.896
83663SOL    HW152821   6.067  14.724   1.980
83663SOL    HW252822   6.116  14.782   1.849
83664SOL     OW52823   1.986   0.390  14.144
83664SOL    HW152824   1.998   0.406  14.051
83664SOL    HW252825   2.032   0.462  14.187
83665SOL     OW52826   4.408   9.364  10.422
83665SOL    HW152827   4.319   9.399  10.416
83665SOL    HW252828   4.407   9.287  10.366
83666SOL     OW52829  13.265   0.037  11.428
83666SOL    HW152830  13.195   0.101  11.439
83666SOL    HW252831  13.265   0.017  11.334
83667SOL     OW52832  11.450   9.456   2.750
83667SOL    HW152833  11.440   9.549   2.732
83667SOL    HW252834  11.374   9.432   2.802
83668SOL     OW52835   5.304   1.154  14.518
83668SOL    HW152836   5.316   1.225  14.581
83668SOL    HW252837   5.215   1.166  14.485
83669SOL     OW52838   2.239   7.044   5.748
83669SOL    HW152839   2.266   6.974   5.689
83669SOL    HW252840   2.196   7.000   5.820
83670SOL     OW52841  14.194  12.759   8.474
83670SOL    HW152842  14.172  12.678   8.428
83670SOL    HW252843  14.283  12.778   8.446
83671SOL     OW52844   3.437   9.418   5.138
83671SOL    HW152845   3.481   9.355   5.195
83671SOL    HW252846   3.466   9.395   5.049
83672SOL     OW52847   0.085   1.399   6.329
83672SOL    HW152848   0.160   1.364   6.281
83672SOL    HW252849   0.114   1.486   6.357
83673SOL     OW52850   3.927   1.033   2.330
83673SOL    HW152851   4.014   1.015   2.368
83673SOL    HW252852   3.876   1.068   2.403
83674SOL     OW52853   9.250  11.052   7.974
83674SOL    HW152854   9.318  11.092   7.920
83674SOL    HW252855   9.297  11.002   8.040
83675SOL     OW52856   5.425   8.820   9.394
83675SOL    HW152857   5.338   8.787   9.414
83675SOL    HW252858   5.485   8.755   9.433
83676SOL     OW52859  13.175  10.378   8.192
83676SOL    HW152860  13.261  10.414   8.213
83676SOL    HW252861  13.193  10.297   8.144
83677SOL     OW52862  12.061   8.016   6.783
83677SOL    HW152863  12.056   8.111   6.792
83677SOL    HW252864  11.986   7.993   6.729
83678SOL     OW52865   2.664  12.410   8.028
83678SOL    HW152866   2.594  12.415   8.093
83678SOL    HW252867   2.735  12.365   8.074
83679SOL     OW52868   1.586  13.833   8.071
83679SOL    HW152869   1.679  13.846   8.053
83679SOL    HW252870   1.579  13.838   8.166
83680SOL     OW52871   4.744   2.556   7.853
83680SOL    HW152872   4.670   2.499   7.873
83680SOL    HW252873   4.778   2.523   7.769
83681SOL     OW52874  14.672  12.478   0.739
83681SOL    HW152875  14.713  12.493   0.824
83681SOL    HW252876  14.646  12.565   0.709
83682SOL     OW52877  11.191   5.149  13.530
83682SOL    HW152878  11.236   5.085  13.475
83682SOL    HW252879  11.116   5.101  13.565
83683SOL     OW52880  10.096   5.362   4.387
83683SOL    HW152881  10.172   5.371   4.444
83683SOL    HW252882  10.025   5.404   4.435
83684SOL     OW52883  14.582   3.181   9.378
83684SOL    HW152884  14.587   3.276   9.373
83684SOL    HW252885  14.652   3.157   9.438
83685SOL     OW52886   9.945   3.080   9.789
83685SOL    HW152887   9.911   3.121   9.869
83685SOL    HW252888   9.953   2.987   9.810
83686SOL     OW52889   5.207  10.780   9.100
83686SOL    HW152890   5.210  10.743   9.189
83686SOL    HW252891   5.169  10.711   9.046
83687SOL     OW52892   5.813   1.445   6.157
83687SOL    HW152893   5.782   1.504   6.089
83687SOL    HW252894   5.856   1.503   6.221
83688SOL     OW52895   7.676   5.150  14.614
83688SOL    HW152896   7.656   5.165  14.706
83688SOL    HW252897   7.715   5.063  14.611
83689SOL     OW52898  11.998  13.176   6.922
83689SOL    HW152899  12.055  13.203   6.850
83689SOL    HW252900  11.913  13.214   6.901
83690SOL     OW52901   4.723  11.434  12.883
83690SOL    HW152902   4.666  11.369  12.924
83690SOL    HW252903   4.667  11.510  12.870
83691SOL     OW52904   0.655  14.661   7.850
83691SOL    HW152905   0.728  14.695   7.798
83691SOL    HW252906   0.615  14.738   7.891
83692SOL     OW52907   1.856   8.258   9.544
83692SOL    HW152908   1.914   8.182   9.550
83692SOL    HW252909   1.842   8.271   9.450
83693SOL     OW52910   6.262   6.956  14.710
83693SOL    HW152911   6.289   7.039  14.748
83693SOL    HW252912   6.313   6.949  14.629
83694SOL     OW52913  11.995   6.819  12.406
83694SOL    HW152914  12.046   6.899  12.411
83694SOL    HW252915  12.007   6.788  12.316
83695SOL     OW52916   0.353   0.257  12.418
83695SOL    HW152917   0.442   0.226  12.429
83695SOL    HW252918   0.360   0.329  12.355
83696SOL     OW52919   4.577   4.496   8.350
83696SOL    HW152920   4.557   4.572   8.295
83696SOL    HW252921   4.510   4.432   8.327
83697SOL     OW52922   7.511   3.311   9.134
83697SOL    HW152923   7.431   3.362   9.137
83697SOL    HW252924   7.484   3.224   9.104
83698SOL     OW52925  12.427  13.466  14.636
83698SOL    HW152926  12.495  13.494  14.698
83698SOL    HW252927  12.443  13.373  14.623
83699SOL     OW52928   3.070   6.966  12.098
83699SOL    HW152929   3.029   7.037  12.147
83699SOL    HW252930   3.143   6.938  12.153
83700SOL     OW52931   4.679   7.321  11.566
83700SOL    HW152932   4.657   7.244  11.514
83700SOL    HW252933   4.612   7.385  11.544
83701SOL     OW52934   4.478  10.809  14.434
83701SOL    HW152935   4.457  10.853  14.352
83701SOL    HW252936   4.478  10.716  14.412
83702SOL     OW52937   5.539  14.624  10.676
83702SOL    HW152938   5.546  14.683  10.600
83702SOL    HW252939   5.500  14.678  10.745
83703SOL     OW52940   8.980   2.215   7.393
83703SOL    HW152941   8.920   2.148   7.359
83703SOL    HW252942   9.066   2.189   7.361
83704SOL     OW52943   5.316   5.056   5.684
83704SOL    HW152944   5.403   5.092   5.701
83704SOL    HW252945   5.298   5.079   5.593
83705SOL     OW52946   0.123   1.970   7.767
83705SOL    HW152947   0.198   1.914   7.750
83705SOL    HW252948   0.047   1.915   7.747
83706SOL     OW52949  10.547   8.958   0.580
83706SOL    HW152950  10.582   8.900   0.513
83706SOL    HW252951  10.623   9.006   0.612
83707SOL     OW52952   4.102  10.240   4.167
83707SOL    HW152953   4.161  10.213   4.097
83707SOL    HW252954   4.122  10.180   4.239
83708SOL     OW52955   5.532  12.243  14.607
83708SOL    HW152956   5.601  12.191  14.647
83708SOL    HW252957   5.479  12.180  14.559
83709SOL     OW52958   7.611  12.652  14.684
83709SOL    HW152959   7.563  12.697  14.753
83709SOL    HW252960   7.657  12.722  14.636
83710SOL     OW52961   0.764   0.548   9.570
83710SOL    HW152962   0.697   0.608   9.535
83710SOL    HW252963   0.714   0.471   9.599
83711SOL     OW52964   3.915   2.757  14.862
83711SOL    HW152965   3.873   2.842   0.001
83711SOL    HW252966   3.865   2.714  14.793
83712SOL     OW52967  10.165   5.154   3.005
83712SOL    HW152968  10.213   5.088   2.956
83712SOL    HW252969  10.077   5.152   2.968
83713SOL     OW52970   7.611   6.897   1.655
83713SOL    HW152971   7.691   6.949   1.664
83713SOL    HW252972   7.596   6.861   1.743
83714SOL     OW52973  12.404   0.274   1.685
83714SOL    HW152974  12.369   0.185   1.681
83714SOL    HW252975  12.462   0.280   1.610
83715SOL     OW52976  12.588   0.506   4.283
83715SOL    HW152977  12.507   0.549   4.256
83715SOL    HW252978  12.656   0.573   4.271
83716SOL     OW52979  13.503   0.155  10.299
83716SOL    HW152980  13.540   0.103  10.228
83716SOL    HW252981  13.570   0.154  10.367
83717SOL     OW52982  14.806   7.874   8.595
83717SOL    HW152983  14.807   7.960   8.637
83717SOL    HW252984   0.003   7.878   8.529
83718SOL     OW52985   8.139   7.373  10.744
83718SOL    HW152986   8.133   7.280  10.767
83718SOL    HW252987   8.147   7.374  10.649
83719SOL     OW52988  11.896  14.206   7.322
83719SOL    HW152989  11.839  14.130   7.335
83719SOL    HW252990  11.887  14.226   7.229
83720SOL     OW52991   0.864   3.712   5.778
83720SOL    HW152992   0.815   3.767   5.718
83720SOL    HW252993   0.921   3.772   5.826
83721SOL     OW52994   6.912   9.589   0.859
83721SOL    HW152995   6.862   9.516   0.895
83721SOL    HW252996   6.916   9.571   0.765
83722SOL     OW52997   7.851  11.222  14.433
83722SOL    HW152998   7.818  11.274  14.506
83722SOL    HW252999   7.775  11.169  14.406
83723SOL     OW53000   2.044   3.201  13.415
83723SOL    HW153001   2.005   3.286  13.394
83723SOL    HW253002   2.017   3.184  13.505
83724SOL     OW53003  11.865   2.345   9.058
83724SOL    HW153004  11.826   2.412   9.115
83724SOL    HW253005  11.840   2.372   8.970
83725SOL     OW53006   8.489  10.741   7.808
83725SOL    HW153007   8.557  10.778   7.752
83725SOL    HW253008   8.524  10.656   7.836
83726SOL     OW53009   2.194   6.198   0.145
83726SOL    HW153010   2.135   6.226   0.074
83726SOL    HW253011   2.215   6.280   0.191
83727SOL     OW53012  13.911   7.244   8.392
83727SOL    HW153013  13.919   7.157   8.353
83727SOL    HW253014  13.822   7.272   8.371
83728SOL     OW53015  11.547  10.822  13.620
83728SOL    HW153016  11.538  10.727  13.624
83728SOL    HW253017  11.464  10.856  13.653
83729SOL     OW53018   8.929   9.370   6.171
83729SOL    HW153019   8.905   9.462   6.165
83729SOL    HW253020   8.862   9.331   6.226
83730SOL     OW53021   3.612   7.555   0.548
83730SOL    HW153022   3.616   7.520   0.459
83730SOL    HW253023   3.619   7.478   0.605
83731SOL     OW53024   9.606   2.700   4.870
83731SOL    HW153025   9.516   2.700   4.839
83731SOL    HW253026   9.659   2.697   4.790
83732SOL     OW53027   2.471   1.645  13.445
83732SOL    HW153028   2.507   1.733  13.459
83732SOL    HW253029   2.473   1.633  13.350
83733SOL     OW53030   3.522   3.477  12.110
83733SOL    HW153031   3.501   3.475  12.017
83733SOL    HW253032   3.596   3.416  12.119
83734SOL     OW53033   7.901   4.906   6.790
83734SOL    HW153034   7.947   4.874   6.867
83734SOL    HW253035   7.823   4.949   6.824
83735SOL     OW53036   5.839   4.012   0.367
83735SOL    HW153037   5.908   4.060   0.321
83735SOL    HW253038   5.868   3.921   0.366
83736SOL     OW53039  14.171   0.578  12.023
83736SOL    HW153040  14.136   0.498  12.062
83736SOL    HW253041  14.108   0.646  12.046
83737SOL     OW53042   5.661  13.805   0.457
83737SOL    HW153043   5.749  13.831   0.484
83737SOL    HW253044   5.603  13.841   0.524
83738SOL     OW53045   5.504  11.524  14.040
83738SOL    HW153046   5.587  11.477  14.034
83738SOL    HW253047   5.483  11.523  14.133
83739SOL     OW53048   1.365   3.293   1.877
83739SOL    HW153049   1.435   3.350   1.846
83739SOL    HW253050   1.308   3.350   1.929
83740SOL     OW53051   9.905  12.130   2.642
83740SOL    HW153052   9.949  12.205   2.681
83740SOL    HW253053   9.966  12.099   2.575
83741SOL     OW53054  12.878   2.573  10.410
83741SOL    HW153055  12.867   2.595  10.317
83741SOL    HW253056  12.962   2.611  10.434
83742SOL     OW53057   5.492   3.132   8.392
83742SOL    HW153058   5.578   3.146   8.353
83742SOL    HW253059   5.430   3.164   8.326
83743SOL     OW53060   8.627  13.605   3.739
83743SOL    HW153061   8.576  13.527   3.719
83743SOL    HW253062   8.692  13.575   3.803
83744SOL     OW53063   1.780   1.413  10.373
83744SOL    HW153064   1.748   1.415  10.464
83744SOL    HW253065   1.875   1.417  10.381
83745SOL     OW53066   3.695   4.731   2.614
83745SOL    HW153067   3.748   4.756   2.690
83745SOL    HW253068   3.652   4.649   2.641
83746SOL     OW53069   0.944  14.864   0.175
83746SOL    HW153070   0.947   0.051   0.100
83746SOL    HW253071   0.936   0.049   0.251
83747SOL     OW53072   5.361   6.268   7.624
83747SOL    HW153073   5.446   6.238   7.657
83747SOL    HW253074   5.350   6.220   7.542
83748SOL     OW53075   5.096   4.729   7.091
83748SOL    HW153076   5.048   4.758   7.013
83748SOL    HW253077   5.146   4.653   7.062
83749SOL     OW53078   2.802   3.032   8.151
83749SOL    HW153079   2.709   3.052   8.153
83749SOL    HW253080   2.830   3.039   8.242
83750SOL     OW53081   0.125   2.999   9.689
83750SOL    HW153082   0.041   3.036   9.717
83750SOL    HW253083   0.151   2.942   9.762
83751SOL     OW53084  14.788   6.171   5.618
83751SOL    HW153085  14.780   6.076   5.619
83751SOL    HW253086  14.755   6.197   5.532
83752SOL     OW53087   0.267   8.048   4.373
83752SOL    HW153088   0.194   8.042   4.434
83752SOL    HW253089   0.234   8.006   4.293
83753SOL     OW53090   4.615   8.931   0.685
83753SOL    HW153091   4.558   8.921   0.761
83753SOL    HW253092   4.680   8.996   0.713
83754SOL     OW53093   2.496   6.330   3.902
83754SOL    HW153094   2.572   6.332   3.843
83754SOL    HW253095   2.469   6.422   3.910
83755SOL     OW53096   1.558  11.223  12.381
83755SOL    HW153097   1.619  11.151  12.365
83755SOL    HW253098   1.585  11.259  12.466
83756SOL     OW53099   7.524   6.828  10.187
83756SOL    HW153100   7.458   6.868  10.243
83756SOL    HW253101   7.572   6.902  10.150
83757SOL     OW53102   5.824   5.170   0.172
83757SOL    HW153103   5.909   5.141   0.140
83757SOL    HW253104   5.797   5.101   0.234
83758SOL     OW53105   7.064   9.936   4.630
83758SOL    HW153106   7.148   9.961   4.669
83758SOL    HW253107   6.999   9.957   4.698
83759SOL     OW53108   0.635  12.076   5.399
83759SOL    HW153109   0.620  12.101   5.308
83759SOL    HW253110   0.713  12.125   5.425
83760SOL     OW53111   8.356   0.394  13.524
83760SOL    HW153112   8.310   0.340  13.460
83760SOL    HW253113   8.304   0.475  13.529
83761SOL     OW53114   1.019   1.611   0.890
83761SOL    HW153115   1.012   1.669   0.966
83761SOL    HW253116   1.048   1.669   0.819
83762SOL     OW53117  13.302   2.081   1.176
83762SOL    HW153118  13.225   2.070   1.120
83762SOL    HW253119  13.292   2.014   1.244
83763SOL     OW53120  14.852   6.528  13.834
83763SOL    HW153121   0.054   6.579  13.801
83763SOL    HW253122  14.786   6.594  13.858
83764SOL     OW53123  13.408   8.808   0.739
83764SOL    HW153124  13.473   8.777   0.677
83764SOL    HW253125  13.425   8.902   0.748
83765SOL     OW53126   1.534  13.042  12.035
83765SOL    HW153127   1.471  12.978  12.002
83765SOL    HW253128   1.531  13.114  11.971
83766SOL     OW53129   2.701  13.730   1.871
83766SOL    HW153130   2.686  13.778   1.789
83766SOL    HW253131   2.668  13.789   1.939
83767SOL     OW53132   9.205   2.593   8.674
83767SOL    HW153133   9.137   2.531   8.701
83767SOL    HW253134   9.264   2.598   8.749
83768SOL     OW53135   2.677  11.436   5.049
83768SOL    HW153136   2.597  11.466   5.007
83768SOL    HW253137   2.742  11.434   4.979
83769SOL     OW53138   4.226  13.772   4.441
83769SOL    HW153139   4.291  13.809   4.501
83769SOL    HW253140   4.148  13.761   4.494
83770SOL     OW53141   4.604   3.475   1.530
83770SOL    HW153142   4.516   3.488   1.564
83770SOL    HW253143   4.592   3.461   1.436
83771SOL     OW53144   4.478  10.754   7.030
83771SOL    HW153145   4.388  10.737   7.055
83771SOL    HW253146   4.486  10.716   6.942
83772SOL     OW53147   5.889   2.368   6.384
83772SOL    HW153148   5.841   2.434   6.433
83772SOL    HW253149   5.869   2.286   6.428
83773SOL     OW53150   8.719  12.411   0.009
83773SOL    HW153151   8.694  12.391   0.099
83773SOL    HW253152   8.668  12.350  14.829
83774SOL     OW53153   7.446   3.594   5.496
83774SOL    HW153154   7.382   3.587   5.566
83774SOL    HW253155   7.499   3.515   5.504
83775SOL     OW53156   6.942  14.638   8.202
83775SOL    HW153157   6.948  14.634   8.106
83775SOL    HW253158   6.942  14.732   8.222
83776SOL     OW53159   6.627   7.128   0.210
83776SOL    HW153160   6.619   7.034   0.225
83776SOL    HW253161   6.614   7.138   0.115
83777SOL     OW53162   8.263  13.564   9.231
83777SOL    HW153163   8.192  13.516   9.273
83777SOL    HW253164   8.254  13.654   9.263
83778SOL     OW53165   6.137  11.382  11.912
83778SOL    HW153166   6.220  11.335  11.911
83778SOL    HW253167   6.150  11.454  11.974
83779SOL     OW53168   8.716  11.625   1.324
83779SOL    HW153169   8.789  11.664   1.276
83779SOL    HW253170   8.692  11.548   1.272
83780SOL     OW53171  10.488   2.229   7.314
83780SOL    HW153172  10.440   2.219   7.232
83780SOL    HW253173  10.563   2.284   7.291
83781SOL     OW53174  14.321  13.089   8.715
83781SOL    HW153175  14.372  13.008   8.706
83781SOL    HW253176  14.291  13.090   8.806
83782SOL     OW53177   4.535   7.965  14.272
83782SOL    HW153178   4.539   7.958  14.177
83782SOL    HW253179   4.580   7.888  14.305
83783SOL     OW53180   1.234   6.924   8.794
83783SOL    HW153181   1.325   6.953   8.801
83783SOL    HW253182   1.220   6.915   8.699
83784SOL     OW53183   3.176   7.462   3.405
83784SOL    HW153184   3.188   7.405   3.329
83784SOL    HW253185   3.100   7.425   3.450
83785SOL     OW53186   6.976  10.191   8.740
83785SOL    HW153187   7.067  10.210   8.718
83785SOL    HW253188   6.956  10.254   8.810
83786SOL     OW53189   7.915  12.723  13.993
83786SOL    HW153190   7.936  12.653  13.931
83786SOL    HW253191   7.820  12.717  14.005
83787SOL     OW53192  12.279   3.275   6.565
83787SOL    HW153193  12.277   3.185   6.534
83787SOL    HW253194  12.237   3.325   6.495
83788SOL     OW53195  14.522   1.020  11.431
83788SOL    HW153196  14.588   1.058  11.374
83788SOL    HW253197  14.490   0.943  11.383
83789SOL     OW53198  11.640   0.612   2.396
83789SOL    HW153199  11.649   0.603   2.301
83789SOL    HW253200  11.568   0.553   2.419
83790SOL     OW53201   1.432  12.710  12.295
83790SOL    HW153202   1.428  12.642  12.363
83790SOL    HW253203   1.387  12.671  12.220
83791SOL     OW53204   2.058   0.851   0.331
83791SOL    HW153205   2.091   0.852   0.241
83791SOL    HW253206   1.969   0.818   0.323
83792SOL     OW53207   9.986  14.246  12.346
83792SOL    HW153208   9.932  14.266  12.270
83792SOL    HW253209  10.047  14.320  12.352
83793SOL     OW53210  11.832  11.754   3.205
83793SOL    HW153211  11.754  11.798   3.241
83793SOL    HW253212  11.906  11.796   3.249
83794SOL     OW53213  11.181   1.054   7.684
83794SOL    HW153214  11.183   1.052   7.589
83794SOL    HW253215  11.188   0.962   7.710
83795SOL     OW53216  12.014  12.289  13.312
83795SOL    HW153217  12.095  12.255  13.274
83795SOL    HW253218  12.038  12.316  13.400
83796SOL     OW53219   6.381   8.154  10.246
83796SOL    HW153220   6.468   8.182  10.218
83796SOL    HW253221   6.373   8.188  10.336
83797SOL     OW53222   6.849   5.212   0.200
83797SOL    HW153223   6.848   5.145   0.268
83797SOL    HW253224   6.763   5.254   0.206
83798SOL     OW53225   9.181   7.040   1.755
83798SOL    HW153226   9.161   7.060   1.663
83798SOL    HW253227   9.095   7.037   1.797
83799SOL     OW53228   1.343   4.950   4.531
83799SOL    HW153229   1.357   5.034   4.575
83799SOL    HW253230   1.399   4.889   4.579
83800SOL     OW53231   8.006  14.247  12.711
83800SOL    HW153232   8.100  14.230  12.713
83800SOL    HW253233   7.970  14.180  12.653
83801SOL     OW53234  12.137   4.311   8.363
83801SOL    HW153235  12.191   4.362   8.303
83801SOL    HW253236  12.083   4.257   8.306
83802SOL     OW53237   8.184  14.763   2.301
83802SOL    HW153238   8.092  14.741   2.321
83802SOL    HW253239   8.235  14.708   2.360
83803SOL     OW53240   1.645   7.025  13.502
83803SOL    HW153241   1.571   6.974  13.469
83803SOL    HW253242   1.675   7.075  13.427
83804SOL     OW53243   4.944   4.105   0.863
83804SOL    HW153244   4.978   4.137   0.946
83804SOL    HW253245   5.017   4.116   0.802
83805SOL     OW53246   9.545  12.683  13.304
83805SOL    HW153247   9.574  12.597  13.334
83805SOL    HW253248   9.457  12.693  13.339
83806SOL     OW53249   1.747   7.318   8.385
83806SOL    HW153250   1.796   7.378   8.328
83806SOL    HW253251   1.689   7.375   8.435
83807SOL     OW53252   4.135   1.049   3.572
83807SOL    HW153253   4.225   1.016   3.569
83807SOL    HW253254   4.082   0.971   3.586
83808SOL     OW53255  13.618   7.487   9.063
83808SOL    HW153256  13.537   7.532   9.087
83808SOL    HW253257  13.633   7.425   9.134
83809SOL     OW53258   1.678  12.676   3.731
83809SOL    HW153259   1.672  12.620   3.654
83809SOL    HW253260   1.770  12.703   3.734
83810SOL     OW53261   9.043   1.977   3.876
83810SOL    HW153262   9.118   1.938   3.830
83810SOL    HW253263   9.073   2.065   3.899
83811SOL     OW53264   7.857   8.764  10.268
83811SOL    HW153265   7.898   8.731  10.348
83811SOL    HW253266   7.769   8.788  10.294
83812SOL     OW53267   4.206   1.315  10.638
83812SOL    HW153268   4.131   1.275  10.683
83812SOL    HW253269   4.169   1.387  10.588
83813SOL     OW53270  14.806  14.686   5.799
83813SOL    HW153271  14.741  14.632   5.754
83813SOL    HW253272  14.832  14.633   5.875
83814SOL     OW53273   0.588  13.040   6.373
83814SOL    HW153274   0.593  12.958   6.423
83814SOL    HW253275   0.625  13.106   6.432
83815SOL     OW53276   9.835  12.121   4.648
83815SOL    HW153277   9.824  12.128   4.554
83815SOL    HW253278   9.927  12.098   4.660
83816SOL     OW53279   8.913  12.416  14.210
83816SOL    HW153280   8.974  12.398  14.139
83816SOL    HW253281   8.915  12.337  14.265
83817SOL     OW53282  10.491   9.397  11.599
83817SOL    HW153283  10.402   9.409  11.565
83817SOL    HW253284  10.479   9.378  11.692
83818SOL     OW53285   3.729   0.903   0.371
83818SOL    HW153286   3.740   0.918   0.465
83818SOL    HW253287   3.650   0.849   0.365
83819SOL     OW53288   7.635   4.603  10.726
83819SOL    HW153289   7.561   4.544  10.736
83819SOL    HW253290   7.693   4.558  10.664
83820SOL     OW53291   7.944   4.966  11.362
83820SOL    HW153292   7.944   4.898  11.294
83820SOL    HW253293   7.852   4.975  11.387
83821SOL     OW53294   7.660  11.991   5.377
83821SOL    HW153295   7.584  12.030   5.420
83821SOL    HW253296   7.721  11.975   5.449
83822SOL     OW53297  12.802   4.817  12.433
83822SOL    HW153298  12.862   4.778  12.369
83822SOL    HW253299  12.843   4.802  12.518
83823SOL     OW53300   2.577   3.045   4.547
83823SOL    HW153301   2.511   2.998   4.496
83823SOL    HW253302   2.534   3.127   4.573
83824SOL     OW53303  12.285   5.024  13.443
83824SOL    HW153304  12.264   5.027  13.350
83824SOL    HW253305  12.268   5.113  13.474
83825SOL     OW53306   9.408  14.042   3.692
83825SOL    HW153307   9.362  14.119   3.725
83825SOL    HW253308   9.410  13.982   3.767
83826SOL     OW53309  13.359   0.578   3.033
83826SOL    HW153310  13.346   0.618   2.947
83826SOL    HW253311  13.342   0.485   3.019
83827SOL     OW53312   6.033   1.746   9.901
83827SOL    HW153313   6.111   1.696   9.878
83827SOL    HW253314   6.030   1.744   9.997
83828SOL     OW53315  14.088  14.374   0.744
83828SOL    HW153316  14.030  14.328   0.684
83828SOL    HW253317  14.112  14.455   0.698
83829SOL     OW53318   7.172  10.526  10.459
83829SOL    HW153319   7.232  10.476  10.515
83829SOL    HW253320   7.128  10.460  10.406
83830SOL     OW53321   2.924  11.579   5.855
83830SOL    HW153322   2.886  11.606   5.938
83830SOL    HW253323   2.980  11.505   5.877
83831SOL     OW53324   8.065   8.526   3.247
83831SOL    HW153325   8.020   8.547   3.166
83831SOL    HW253326   8.019   8.576   3.314
83832SOL     OW53327  14.265  11.017   8.750
83832SOL    HW153328  14.224  10.946   8.799
83832SOL    HW253329  14.350  11.029   8.792
83833SOL     OW53330  12.980   5.664   2.556
83833SOL    HW153331  12.947   5.581   2.523
83833SOL    HW253332  12.979   5.723   2.481
83834SOL     OW53333   5.301  13.643  11.061
83834SOL    HW153334   5.315  13.567  11.118
83834SOL    HW253335   5.247  13.702  11.114
83835SOL     OW53336   3.180  14.569   9.559
83835SOL    HW153337   3.143  14.551   9.472
83835SOL    HW253338   3.232  14.491   9.579
83836SOL     OW53339  12.169   9.283   6.485
83836SOL    HW153340  12.188   9.202   6.438
83836SOL    HW253341  12.079   9.305   6.461
83837SOL     OW53342   8.387  11.226   5.972
83837SOL    HW153343   8.293  11.225   5.992
83837SOL    HW253344   8.392  11.220   5.877
83838SOL     OW53345   4.939  10.372   8.224
83838SOL    HW153346   4.988  10.332   8.152
83838SOL    HW253347   4.967  10.323   8.301
83839SOL     OW53348   5.354   9.350   2.331
83839SOL    HW153349   5.329   9.391   2.414
83839SOL    HW253350   5.384   9.262   2.355
83840SOL     OW53351  13.727   3.173   9.468
83840SOL    HW153352  13.730   3.265   9.494
83840SOL    HW253353  13.686   3.174   9.381
83841SOL     OW53354   4.288  10.978   5.757
83841SOL    HW153355   4.379  10.952   5.772
83841SOL    HW253356   4.248  10.900   5.718
83842SOL     OW53357   1.556  11.294   5.115
83842SOL    HW153358   1.578  11.368   5.059
83842SOL    HW253359   1.537  11.334   5.200
83843SOL     OW53360   5.525  12.131  13.696
83843SOL    HW153361   5.512  12.066  13.628
83843SOL    HW253362   5.476  12.098  13.771
83844SOL     OW53363   2.104   0.636   9.587
83844SOL    HW153364   2.065   0.549   9.597
83844SOL    HW253365   2.060   0.674   9.511
83845SOL     OW53366  11.205  11.135  12.880
83845SOL    HW153367  11.191  11.184  12.961
83845SOL    HW253368  11.280  11.179  12.839
83846SOL     OW53369   3.412   8.555   7.935
83846SOL    HW153370   3.341   8.618   7.947
83846SOL    HW253371   3.395   8.487   7.999
83847SOL     OW53372   9.813   5.390   4.108
83847SOL    HW153373   9.785   5.352   4.192
83847SOL    HW253374   9.875   5.326   4.073
83848SOL     OW53375   0.325   9.576   6.606
83848SOL    HW153376   0.354   9.544   6.521
83848SOL    HW253377   0.404   9.574   6.661
83849SOL     OW53378  13.857  14.860  11.869
83849SOL    HW153379  13.922   0.021  11.807
83849SOL    HW253380  13.781   0.043  11.856
83850SOL     OW53381   7.154  10.245  10.305
83850SOL    HW153382   7.107  10.169  10.271
83850SOL    HW253383   7.164  10.227  10.399
83851SOL     OW53384   4.281   5.627   7.756
83851SOL    HW153385   4.276   5.537   7.788
83851SOL    HW253386   4.227   5.627   7.677
83852SOL     OW53387   5.699   0.175  14.201
83852SOL    HW153388   5.629   0.238  14.218
83852SOL    HW253389   5.777   0.229  14.186
83853SOL     OW53390   4.183  13.528   7.315
83853SOL    HW153391   4.107  13.529   7.258
83853SOL    HW253392   4.238  13.457   7.281
83854SOL     OW53393   5.749  10.739   2.783
83854SOL    HW153394   5.709  10.779   2.706
83854SOL    HW253395   5.787  10.812   2.832
83855SOL     OW53396   3.420  13.954   9.210
83855SOL    HW153397   3.425  13.862   9.236
83855SOL    HW253398   3.460  13.956   9.123
83856SOL     OW53399  13.160  10.883   8.131
83856SOL    HW153400  13.152  10.809   8.191
83856SOL    HW253401  13.252  10.909   8.138
83857SOL     OW53402   8.211  10.734  12.747
83857SOL    HW153403   8.212  10.644  12.714
83857SOL    HW253404   8.269  10.733  12.823
83858SOL     OW53405   2.750   1.284   6.521
83858SOL    HW153406   2.807   1.211   6.501
83858SOL    HW253407   2.761   1.299   6.615
83859SOL     OW53408   5.993   1.084  11.790
83859SOL    HW153409   5.900   1.064  11.782
83859SOL    HW253410   5.995   1.166  11.839
83860SOL     OW53411  14.457   3.930  10.314
83860SOL    HW153412  14.414   3.993  10.372
83860SOL    HW253413  14.388   3.870  10.287
83861SOL     OW53414  12.914  11.122   2.463
83861SOL    HW153415  12.822  11.113   2.490
83861SOL    HW253416  12.958  11.156   2.541
83862SOL     OW53417   4.690   8.506   8.182
83862SOL    HW153418   4.686   8.566   8.108
83862SOL    HW253419   4.604   8.513   8.223
83863SOL     OW53420  10.116  12.360  13.283
83863SOL    HW153421  10.140  12.384  13.193
83863SOL    HW253422  10.172  12.285  13.303
83864SOL     OW53423   5.275   2.900   2.001
83864SOL    HW153424   5.333   2.949   2.060
83864SOL    HW253425   5.203   2.961   1.984
83865SOL     OW53426   1.488   9.536  13.748
83865SOL    HW153427   1.440   9.486  13.813
83865SOL    HW253428   1.461   9.627  13.761
83866SOL     OW53429   8.326  14.500   7.471
83866SOL    HW153430   8.398  14.546   7.428
83866SOL    HW253431   8.289  14.443   7.404
83867SOL     OW53432   4.805   6.691   9.483
83867SOL    HW153433   4.897   6.700   9.457
83867SOL    HW253434   4.782   6.777   9.518
83868SOL     OW53435   3.354  10.057   9.023
83868SOL    HW153436   3.339  10.076   9.116
83868SOL    HW253437   3.409   9.979   9.023
83869SOL     OW53438   5.800   5.594   4.603
83869SOL    HW153439   5.813   5.521   4.664
83869SOL    HW253440   5.884   5.638   4.601
83870SOL     OW53441  12.804   6.558   1.030
83870SOL    HW153442  12.725   6.549   1.084
83870SOL    HW253443  12.866   6.496   1.068
83871SOL     OW53444   8.767   2.242   6.011
83871SOL    HW153445   8.752   2.183   5.936
83871SOL    HW253446   8.834   2.303   5.981
83872SOL     OW53447   2.320   3.307   9.109
83872SOL    HW153448   2.234   3.263   9.106
83872SOL    HW253449   2.379   3.239   9.142
83873SOL     OW53450   1.317   8.755   7.105
83873SOL    HW153451   1.299   8.744   7.198
83873SOL    HW253452   1.360   8.673   7.080
83874SOL     OW53453   9.204   1.920   2.597
83874SOL    HW153454   9.115   1.888   2.587
83874SOL    HW253455   9.202   1.972   2.677
83875SOL     OW53456   1.575  10.951   8.048
83875SOL    HW153457   1.663  10.967   8.014
83875SOL    HW253458   1.540  11.039   8.065
83876SOL     OW53459  10.704   9.959  14.403
83876SOL    HW153460  10.708   9.882  14.346
83876SOL    HW253461  10.710  10.033  14.343
83877SOL     OW53462   7.564   8.432   6.313
83877SOL    HW153463   7.551   8.411   6.405
83877SOL    HW253464   7.630   8.502   6.313
83878SOL     OW53465  12.914  11.701  11.245
83878SOL    HW153466  12.918  11.771  11.310
83878SOL    HW253467  12.823  11.670  11.248
83879SOL     OW53468  10.695   8.276  11.286
83879SOL    HW153469  10.778   8.322  11.287
83879SOL    HW253470  10.650   8.308  11.208
83880SOL     OW53471  11.634  14.435  12.508
83880SOL    HW153472  11.644  14.422  12.413
83880SOL    HW253473  11.709  14.389  12.546
83881SOL     OW53474  14.096   4.334  10.263
83881SOL    HW153475  14.074   4.414  10.309
83881SOL    HW253476  14.171   4.298  10.311
83882SOL     OW53477   7.922  14.673   2.349
83882SOL    HW153478   7.867  14.733   2.299
83882SOL    HW253479   7.866  14.645   2.421
83883SOL     OW53480   0.214   8.040   7.637
83883SOL    HW153481   0.210   8.117   7.694
83883SOL    HW253482   0.147   7.981   7.672
83884SOL     OW53483   6.086   7.653   3.216
83884SOL    HW153484   6.114   7.745   3.210
83884SOL    HW253485   6.007   7.655   3.269
83885SOL     OW53486   1.096   1.172  11.222
83885SOL    HW153487   1.172   1.184  11.278
83885SOL    HW253488   1.021   1.182  11.281
83886SOL     OW53489   9.399   7.907   1.233
83886SOL    HW153490   9.443   7.822   1.232
83886SOL    HW253491   9.406   7.939   1.143
83887SOL     OW53492   5.191  14.544  12.851
83887SOL    HW153493   5.271  14.498  12.827
83887SOL    HW253494   5.162  14.500  12.931
83888SOL     OW53495  13.302  10.944  12.570
83888SOL    HW153496  13.382  10.923  12.522
83888SOL    HW253497  13.272  10.860  12.606
83889SOL     OW53498   2.181   7.231  10.764
83889SOL    HW153499   2.098   7.277  10.775
83889SOL    HW253500   2.159   7.152  10.715
83890SOL     OW53501   4.424   6.125   7.526
83890SOL    HW153502   4.384   6.039   7.526
83890SOL    HW253503   4.403   6.162   7.612
83891SOL     OW53504   3.718   4.467   4.114
83891SOL    HW153505   3.803   4.425   4.126
83891SOL    HW253506   3.684   4.479   4.203
83892SOL     OW53507  13.591  14.721   5.678
83892SOL    HW153508  13.511  14.685   5.715
83892SOL    HW253509  13.571  14.814   5.664
83893SOL     OW53510   5.590   5.147   8.071
83893SOL    HW153511   5.565   5.056   8.085
83893SOL    HW253512   5.608   5.154   7.978
83894SOL     OW53513  12.264   4.636   5.923
83894SOL    HW153514  12.290   4.553   5.961
83894SOL    HW253515  12.269   4.622   5.828
83895SOL     OW53516  14.142  14.290   7.326
83895SOL    HW153517  14.148  14.360   7.392
83895SOL    HW253518  14.197  14.322   7.254
83896SOL     OW53519   0.489  13.647   0.664
83896SOL    HW153520   0.405  13.608   0.639
83896SOL    HW253521   0.555  13.584   0.636
83897SOL     OW53522   2.752   4.842   8.008
83897SOL    HW153523   2.661   4.850   7.980
83897SOL    HW253524   2.750   4.779   8.080
83898SOL     OW53525   5.427   5.156   7.475
83898SOL    HW153526   5.365   5.108   7.421
83898SOL    HW253527   5.373   5.192   7.546
83899SOL     OW53528   9.288   3.737   3.256
83899SOL    HW153529   9.366   3.764   3.304
83899SOL    HW253530   9.262   3.654   3.297
83900SOL     OW53531   4.259   2.397  13.965
83900SOL    HW153532   4.324   2.465  13.943
83900SOL    HW253533   4.307   2.335  14.019
83901SOL     OW53534   7.200   8.171   8.443
83901SOL    HW153535   7.167   8.259   8.426
83901SOL    HW253536   7.292   8.173   8.416
83902SOL     OW53537   0.934  14.479   9.571
83902SOL    HW153538   0.894  14.544   9.629
83902SOL    HW253539   0.912  14.510   9.482
83903SOL     OW53540   8.950   9.427   2.124
83903SOL    HW153541   8.892   9.502   2.122
83903SOL    HW253542   8.894   9.352   2.104
83904SOL     OW53543   2.677   9.225  13.802
83904SOL    HW153544   2.712   9.205  13.715
83904SOL    HW253545   2.645   9.315  13.795
83905SOL     OW53546  12.300   5.829   5.765
83905SOL    HW153547  12.289   5.914   5.808
83905SOL    HW253548  12.355   5.847   5.689
83906SOL     OW53549   5.096  11.719   0.419
83906SOL    HW153550   5.041  11.715   0.341
83906SOL    HW253551   5.036  11.702   0.491
83907SOL     OW53552   3.515   1.580   4.993
83907SOL    HW153553   3.491   1.594   5.085
83907SOL    HW253554   3.610   1.577   4.993
83908SOL     OW53555   1.241   3.601   9.019
83908SOL    HW153556   1.256   3.511   9.046
83908SOL    HW253557   1.325   3.631   8.985
83909SOL     OW53558   3.907   6.715   8.395
83909SOL    HW153559   3.868   6.665   8.324
83909SOL    HW253560   3.931   6.799   8.356
83910SOL     OW53561   7.401   9.353   8.559
83910SOL    HW153562   7.419   9.276   8.613
83910SOL    HW253563   7.446   9.425   8.605
83911SOL     OW53564   3.873   9.569  13.401
83911SOL    HW153565   3.802   9.632  13.418
83911SOL    HW253566   3.919   9.606  13.326
83912SOL     OW53567  14.030  10.226  11.920
83912SOL    HW153568  13.990  10.313  11.920
83912SOL    HW253569  13.976  10.175  11.981
83913SOL     OW53570   4.751   7.616   1.832
83913SOL    HW153571   4.706   7.553   1.888
83913SOL    HW253572   4.741   7.580   1.744
83914SOL     OW53573  12.558  13.158  12.420
83914SOL    HW153574  12.576  13.248  12.445
83914SOL    HW253575  12.474  13.138  12.460
83915SOL     OW53576  14.545   3.590  12.902
83915SOL    HW153577  14.484   3.610  12.973
83915SOL    HW253578  14.570   3.676  12.868
83916SOL     OW53579  10.681   2.176   8.393
83916SOL    HW153580  10.639   2.161   8.309
83916SOL    HW253581  10.617   2.146   8.457
83917SOL     OW53582   3.611   9.562  10.422
83917SOL    HW153583   3.606   9.485  10.479
83917SOL    HW253584   3.546   9.622  10.459
83918SOL     OW53585  10.219  10.494   6.402
83918SOL    HW153586  10.251  10.405   6.397
83918SOL    HW253587  10.231  10.530   6.314
83919SOL     OW53588  13.535   2.841   8.750
83919SOL    HW153589  13.445   2.843   8.781
83919SOL    HW253590  13.534   2.780   8.676
83920SOL     OW53591  14.630   7.716  13.903
83920SOL    HW153592  14.587   7.802  13.895
83920SOL    HW253593  14.718   7.737  13.933
83921SOL     OW53594  13.696   4.272   1.159
83921SOL    HW153595  13.734   4.185   1.176
83921SOL    HW253596  13.644   4.260   1.080
83922SOL     OW53597   3.962   6.914   8.822
83922SOL    HW153598   4.004   6.856   8.759
83922SOL    HW253599   3.870   6.886   8.824
83923SOL     OW53600   2.651   5.217   6.571
83923SOL    HW153601   2.709   5.141   6.564
83923SOL    HW253602   2.703   5.289   6.535
83924SOL     OW53603   8.263   2.606  11.036
83924SOL    HW153604   8.256   2.598  11.131
83924SOL    HW253605   8.342   2.659  11.022
83925SOL     OW53606   4.967  12.544  11.297
83925SOL    HW153607   4.970  12.636  11.321
83925SOL    HW253608   5.035  12.535  11.230
83926SOL     OW53609   4.048   1.637   3.710
83926SOL    HW153610   4.038   1.654   3.803
83926SOL    HW253611   4.142   1.631   3.696
83927SOL     OW53612   1.656   4.055   3.610
83927SOL    HW153613   1.588   4.061   3.678
83927SOL    HW253614   1.632   4.121   3.546
83928SOL     OW53615   1.762   7.008  11.059
83928SOL    HW153616   1.703   7.083  11.069
83928SOL    HW253617   1.843   7.046  11.024
83929SOL     OW53618   9.592   6.792  13.130
83929SOL    HW153619   9.614   6.699  13.122
83929SOL    HW253620   9.588   6.808  13.224
83930SOL     OW53621   0.074   9.829   8.429
83930SOL    HW153622   0.019   9.842   8.507
83930SOL    HW253623   0.032   9.757   8.382
83931SOL     OW53624   3.578   7.479   9.866
83931SOL    HW153625   3.487   7.450   9.864
83931SOL    HW253626   3.616   7.447   9.784
83932SOL     OW53627   7.278   4.003   5.179
83932SOL    HW153628   7.261   3.914   5.211
83932SOL    HW253629   7.353   4.033   5.230
83933SOL     OW53630  13.524   3.533   9.246
83933SOL    HW153631  13.484   3.447   9.263
83933SOL    HW253632  13.482   3.592   9.308
83934SOL     OW53633   6.301   9.477   2.445
83934SOL    HW153634   6.344   9.550   2.400
83934SOL    HW253635   6.370   9.411   2.453
83935SOL     OW53636   4.625   6.260   3.964
83935SOL    HW153637   4.687   6.191   3.939
83935SOL    HW253638   4.578   6.225   4.040
83936SOL     OW53639   3.034  13.387   7.003
83936SOL    HW153640   3.051  13.422   6.916
83936SOL    HW253641   3.105  13.323   7.017
83937SOL     OW53642   3.676   1.930  10.408
83937SOL    HW153643   3.753   1.881  10.377
83937SOL    HW253644   3.670   1.909  10.501
83938SOL     OW53645   4.535   3.259   2.508
83938SOL    HW153646   4.577   3.174   2.514
83938SOL    HW253647   4.607   3.321   2.502
83939SOL     OW53648   3.691   3.072   9.671
83939SOL    HW153649   3.758   3.074   9.602
83939SOL    HW253650   3.626   3.010   9.639
83940SOL     OW53651   2.321   6.602   9.635
83940SOL    HW153652   2.261   6.677   9.640
83940SOL    HW253653   2.386   6.618   9.703
83941SOL     OW53654   4.481  13.578   1.122
83941SOL    HW153655   4.576  13.584   1.127
83941SOL    HW253656   4.460  13.497   1.168
83942SOL     OW53657   5.713   8.759   0.388
83942SOL    HW153658   5.619   8.771   0.403
83942SOL    HW253659   5.753   8.838   0.424
83943SOL     OW53660   5.120  10.937   4.037
83943SOL    HW153661   5.102  10.906   4.126
83943SOL    HW253662   5.199  10.888   4.011
83944SOL     OW53663  11.250   9.443  13.709
83944SOL    HW153664  11.161   9.414  13.726
83944SOL    HW253665  11.242   9.506  13.637
83945SOL     OW53666  13.737   2.211   4.888
83945SOL    HW153667  13.644   2.194   4.904
83945SOL    HW253668  13.741   2.304   4.866
83946SOL     OW53669   1.577  13.952   0.036
83946SOL    HW153670   1.589  13.895  14.832
83946SOL    HW253671   1.519  13.903   0.094
83947SOL     OW53672   0.673  13.405  11.938
83947SOL    HW153673   0.584  13.438  11.935
83947SOL    HW253674   0.687  13.364  11.853
83948SOL     OW53675  11.972  13.528   5.458
83948SOL    HW153676  11.879  13.522   5.438
83948SOL    HW253677  11.980  13.604   5.516
83949SOL     OW53678   6.071   5.972   3.420
83949SOL    HW153679   6.140   6.008   3.475
83949SOL    HW253680   6.074   6.025   3.340
83950SOL     OW53681   5.010  13.324   9.108
83950SOL    HW153682   4.990  13.394   9.170
83950SOL    HW253683   5.071  13.267   9.156
83951SOL     OW53684   6.576  12.387   9.119
83951SOL    HW153685   6.530  12.307   9.097
83951SOL    HW253686   6.556  12.402   9.212
83952SOL     OW53687   4.498  13.758   6.564
83952SOL    HW153688   4.469  13.723   6.480
83952SOL    HW253689   4.433  13.726   6.627
83953SOL     OW53690   0.756   5.193  14.445
83953SOL    HW153691   0.830   5.133  14.447
83953SOL    HW253692   0.693   5.156  14.507
83954SOL     OW53693   6.639   5.106   8.287
83954SOL    HW153694   6.547   5.118   8.309
83954SOL    HW253695   6.646   5.135   8.195
83955SOL     OW53696   2.732  12.000   6.986
83955SOL    HW153697   2.680  12.013   6.907
83955SOL    HW253698   2.796  12.071   6.985
83956SOL     OW53699   6.773   6.418   9.166
83956SOL    HW153700   6.733   6.488   9.114
83956SOL    HW253701   6.862   6.411   9.131
83957SOL     OW53702   3.420   3.049   5.899
83957SOL    HW153703   3.415   2.966   5.947
83957SOL    HW253704   3.502   3.088   5.928
83958SOL     OW53705  12.575   7.930   4.716
83958SOL    HW153706  12.617   7.966   4.638
83958SOL    HW253707  12.536   7.848   4.687
83959SOL     OW53708  13.833   2.939   6.682
83959SOL    HW153709  13.749   2.983   6.669
83959SOL    HW253710  13.810   2.847   6.696
83960SOL     OW53711   4.730   7.510  12.075
83960SOL    HW153712   4.697   7.528  11.987
83960SOL    HW253713   4.708   7.588  12.126
83961SOL     OW53714   8.628   7.960   0.529
83961SOL    HW153715   8.575   8.037   0.548
83961SOL    HW253716   8.622   7.950   0.434
83962SOL     OW53717   7.699  13.166   4.088
83962SOL    HW153718   7.758  13.241   4.092
83962SOL    HW253719   7.721  13.113   4.165
83963SOL     OW53720   0.584  12.227   8.606
83963SOL    HW153721   0.621  12.190   8.686
83963SOL    HW253722   0.561  12.150   8.553
83964SOL     OW53723   0.050   6.514  14.295
83964SOL    HW153724   0.133   6.493  14.252
83964SOL    HW253725   0.021   6.431  14.333
83965SOL     OW53726   6.222   3.551  14.212
83965SOL    HW153727   6.134   3.565  14.177
83965SOL    HW253728   6.267   3.635  14.200
83966SOL     OW53729  14.405   0.819   5.379
83966SOL    HW153730  14.379   0.898   5.426
83966SOL    HW253731  14.443   0.762   5.447
83967SOL     OW53732   0.690  10.349  12.374
83967SOL    HW153733   0.641  10.280  12.419
83967SOL    HW253734   0.699  10.418  12.439
83968SOL     OW53735  12.262   1.153   3.601
83968SOL    HW153736  12.178   1.183   3.633
83968SOL    HW253737  12.322   1.226   3.618
83969SOL     OW53738   2.367  13.619   4.328
83969SOL    HW153739   2.444  13.574   4.361
83969SOL    HW253740   2.348  13.576   4.244
83970SOL     OW53741   2.388   7.475   3.652
83970SOL    HW153742   2.472   7.451   3.612
83970SOL    HW253743   2.403   7.471   3.746
83971SOL     OW53744   4.043   2.184   1.525
83971SOL    HW153745   3.966   2.128   1.511
83971SOL    HW253746   4.083   2.151   1.605
83972SOL     OW53747  12.576  13.366   7.070
83972SOL    HW153748  12.609  13.310   7.140
83972SOL    HW253749  12.640  13.356   6.999
83973SOL     OW53750   4.184   5.399  13.372
83973SOL    HW153751   4.193   5.486  13.332
83973SOL    HW253752   4.090   5.381  13.366
83974SOL     OW53753   4.634  10.476  12.610
83974SOL    HW153754   4.585  10.419  12.551
83974SOL    HW253755   4.656  10.552  12.556
83975SOL     OW53756   5.244   8.613   9.140
83975SOL    HW153757   5.196   8.692   9.163
83975SOL    HW253758   5.179   8.543   9.142
83976SOL     OW53759   1.693   1.678  14.115
83976SOL    HW153760   1.610   1.643  14.082
83976SOL    HW253761   1.705   1.635  14.199
83977SOL     OW53762   7.472  12.073   9.396
83977SOL    HW153763   7.518  12.152   9.366
83977SOL    HW253764   7.509  12.055   9.482
83978SOL     OW53765  14.200   2.970   6.689
83978SOL    HW153766  14.180   2.890   6.736
83978SOL    HW253767  14.125   2.983   6.631
83979SOL     OW53768   2.789   2.711   1.879
83979SOL    HW153769   2.705   2.754   1.860
83979SOL    HW253770   2.792   2.637   1.818
83980SOL     OW53771   2.436   3.614  14.580
83980SOL    HW153772   2.376   3.657  14.519
83980SOL    HW253773   2.417   3.653  14.665
83981SOL     OW53774   8.150   3.678   2.604
83981SOL    HW153775   8.145   3.695   2.510
83981SOL    HW253776   8.065   3.706   2.638
83982SOL     OW53777   2.011  14.119   4.037
83982SOL    HW153778   1.962  14.061   4.096
83982SOL    HW253779   2.036  14.193   4.092
83983SOL     OW53780  11.975  10.236   3.002
83983SOL    HW153781  11.924  10.300   3.052
83983SOL    HW253782  12.017  10.182   3.069
83984SOL     OW53783   9.569  10.086  11.477
83984SOL    HW153784   9.518  10.131  11.409
83984SOL    HW253785   9.557  10.140  11.555
83985SOL     OW53786   3.974   7.853   5.910
83985SOL    HW153787   4.036   7.829   5.841
83985SOL    HW253788   4.019   7.833   5.992
83986SOL     OW53789   0.007   9.168   2.011
83986SOL    HW153790   0.029   9.111   1.937
83986SOL    HW253791   0.021   9.257   1.977
83987SOL     OW53792   3.885   0.690  12.315
83987SOL    HW153793   3.926   0.724  12.235
83987SOL    HW253794   3.848   0.606  12.289
83988SOL     OW53795   4.282  10.699   2.622
83988SOL    HW153796   4.299  10.720   2.714
83988SOL    HW253797   4.330  10.766   2.573
83989SOL     OW53798   7.630   3.018  13.369
83989SOL    HW153799   7.544   3.027  13.329
83989SOL    HW253800   7.614   2.969  13.450
83990SOL     OW53801  10.578  12.006   5.542
83990SOL    HW153802  10.545  12.077   5.486
83990SOL    HW253803  10.595  11.934   5.481
83991SOL     OW53804  14.605   3.918  10.072
83991SOL    HW153805  14.523   3.905  10.025
83991SOL    HW253806  14.579   3.929  10.163
83992SOL     OW53807   5.414   0.095   6.956
83992SOL    HW153808   5.475   0.032   6.917
83992SOL    HW253809   5.327   0.064   6.929
83993SOL     OW53810   5.276   6.493   2.521
83993SOL    HW153811   5.209   6.452   2.466
83993SOL    HW253812   5.345   6.427   2.529
83994SOL     OW53813  11.018  13.427   8.807
83994SOL    HW153814  10.935  13.446   8.851
83994SOL    HW253815  11.077  13.399   8.877
83995SOL     OW53816   9.268  10.788   9.986
83995SOL    HW153817   9.265  10.719  10.052
83995SOL    HW253818   9.290  10.868  10.035
83996SOL     OW53819   2.805  13.024  13.456
83996SOL    HW153820   2.900  13.036  13.460
83996SOL    HW253821   2.774  13.097  13.402
83997SOL     OW53822   5.913   8.079   5.420
83997SOL    HW153823   5.906   7.984   5.420
83997SOL    HW253824   5.920   8.103   5.512
83998SOL     OW53825   3.448   2.635  12.062
83998SOL    HW153826   3.472   2.727  12.064
83998SOL    HW253827   3.380   2.626  12.129
83999SOL     OW53828  12.088   3.020   9.326
83999SOL    HW153829  11.997   2.994   9.339
83999SOL    HW253830  12.090   3.114   9.343
84000SOL     OW53831  13.812   9.493   8.639
84000SOL    HW153832  13.892   9.470   8.686
84000SOL    HW253833  13.753   9.527   8.706
84001SOL     OW53834   9.177  10.426   3.248
84001SOL    HW153835   9.162  10.336   3.277
84001SOL    HW253836   9.090  10.463   3.236
84002SOL     OW53837   6.949   3.937  14.009
84002SOL    HW153838   6.991   3.945  13.923
84002SOL    HW253839   6.859   3.965  13.994
84003SOL     OW53840   8.471   5.525  13.048
84003SOL    HW153841   8.410   5.452  13.058
84003SOL    HW253842   8.491   5.551  13.138
84004SOL     OW53843   8.329   5.903   6.025
84004SOL    HW153844   8.322   5.914   6.120
84004SOL    HW253845   8.419   5.875   6.011
84005SOL     OW53846   9.921   8.143  14.283
84005SOL    HW153847   9.828   8.125  14.269
84005SOL    HW253848   9.938   8.115  14.373
84006SOL     OW53849   2.228  13.359   6.315
84006SOL    HW153850   2.300  13.302   6.341
84006SOL    HW253851   2.194  13.319   6.235
84007SOL     OW53852   6.085   3.713  10.757
84007SOL    HW153853   6.165   3.660  10.762
84007SOL    HW253854   6.114   3.801  10.780
84008SOL     OW53855  12.994   9.028  10.184
84008SOL    HW153856  13.024   9.118  10.176
84008SOL    HW253857  13.010   8.989  10.098
84009SOL     OW53858  10.815   4.144  10.307
84009SOL    HW153859  10.893   4.152  10.362
84009SOL    HW253860  10.842   4.176  10.221
84010SOL     OW53861  14.347   1.570   6.500
84010SOL    HW153862  14.313   1.516   6.572
84010SOL    HW253863  14.340   1.660   6.533
84011SOL     OW53864   0.056   6.590   5.258
84011SOL    HW153865   0.131   6.594   5.318
84011SOL    HW253866   0.041   6.681   5.233
84012SOL     OW53867   4.008   4.857   9.097
84012SOL    HW153868   4.007   4.909   9.177
84012SOL    HW253869   4.027   4.768   9.126
84013SOL     OW53870   9.998   4.521  12.150
84013SOL    HW153871   9.992   4.547  12.058
84013SOL    HW253872  10.037   4.433  12.147
84014SOL     OW53873  14.428   2.862   5.217
84014SOL    HW153874  14.358   2.857   5.152
84014SOL    HW253875  14.492   2.922   5.178
84015SOL     OW53876  14.616   2.291   2.347
84015SOL    HW153877  14.544   2.233   2.371
84015SOL    HW253878  14.641   2.334   2.429
84016SOL     OW53879  13.494  11.921   2.702
84016SOL    HW153880  13.445  11.898   2.623
84016SOL    HW253881  13.443  11.990   2.743
84017SOL     OW53882   3.300   4.148   1.963
84017SOL    HW153883   3.297   4.202   2.042
84017SOL    HW253884   3.211   4.152   1.928
84018SOL     OW53885  10.285   0.490   0.642
84018SOL    HW153886  10.219   0.551   0.674
84018SOL    HW253887  10.367   0.520   0.680
84019SOL     OW53888   5.032   8.786   9.221
84019SOL    HW153889   4.978   8.726   9.272
84019SOL    HW253890   5.035   8.866   9.274
84020SOL     OW53891  10.403   9.963   8.196
84020SOL    HW153892  10.489  10.001   8.175
84020SOL    HW253893  10.415   9.869   8.185
84021SOL     OW53894  10.768   4.694   1.941
84021SOL    HW153895  10.721   4.777   1.929
84021SOL    HW253896  10.835   4.713   2.006
84022SOL     OW53897   2.800  11.768  11.667
84022SOL    HW153898   2.849  11.715  11.604
84022SOL    HW253899   2.775  11.847  11.618
84023SOL     OW53900   2.839  13.776  13.544
84023SOL    HW153901   2.815  13.806  13.456
84023SOL    HW253902   2.803  13.687  13.549
84024SOL     OW53903  14.568  12.736   7.486
84024SOL    HW153904  14.485  12.754   7.529
84024SOL    HW253905  14.544  12.689   7.406
84025SOL     OW53906   6.722   1.697   0.132
84025SOL    HW153907   6.776   1.626   0.099
84025SOL    HW253908   6.688   1.740   0.053
84026SOL     OW53909   6.019   9.629   1.004
84026SOL    HW153910   6.057   9.577   0.933
84026SOL    HW253911   6.051   9.718   0.988
84027SOL     OW53912  12.364   6.807   8.021
84027SOL    HW153913  12.379   6.880   7.960
84027SOL    HW253914  12.274   6.779   8.003
84028SOL     OW53915   2.802   6.943   5.893
84028SOL    HW153916   2.840   6.857   5.877
84028SOL    HW253917   2.801   6.985   5.807
84029SOL     OW53918  11.165  12.227  12.679
84029SOL    HW153919  11.186  12.293  12.613
84029SOL    HW253920  11.165  12.144  12.632
84030SOL     OW53921   8.834   7.370   2.466
84030SOL    HW153922   8.803   7.294   2.516
84030SOL    HW253923   8.871   7.332   2.386
84031SOL     OW53924   4.861   6.796   3.931
84031SOL    HW153925   4.901   6.819   4.015
84031SOL    HW253926   4.901   6.712   3.908
84032SOL     OW53927  13.951  12.970   0.784
84032SOL    HW153928  13.940  13.062   0.758
84032SOL    HW253929  14.028  12.941   0.736
84033SOL     OW53930   6.382   9.408  12.349
84033SOL    HW153931   6.393   9.313  12.353
84033SOL    HW253932   6.374   9.427  12.256
84034SOL     OW53933   6.456   6.078   7.823
84034SOL    HW153934   6.472   6.071   7.917
84034SOL    HW253935   6.362   6.064   7.814
84035SOL     OW53936   5.803   9.469  12.156
84035SOL    HW153937   5.858   9.524  12.212
84035SOL    HW253938   5.850   9.386  12.148
84036SOL     OW53939  14.284   0.879  12.516
84036SOL    HW153940  14.199   0.838  12.501
84036SOL    HW253941  14.266   0.973  12.518
84037SOL     OW53942   2.536   9.228  11.329
84037SOL    HW153943   2.522   9.141  11.367
84037SOL    HW253944   2.568   9.281  11.402
84038SOL     OW53945   0.537   6.771  11.991
84038SOL    HW153946   0.598   6.750  11.920
84038SOL    HW253947   0.464   6.712  11.978
84039SOL     OW53948  11.005   5.369   3.857
84039SOL    HW153949  10.914   5.340   3.865
84039SOL    HW253950  11.030   5.393   3.946
84040SOL     OW53951   0.675   0.119   9.481
84040SOL    HW153952   0.596   0.173   9.485
84040SOL    HW253953   0.714   0.140   9.397
84041SOL     OW53954   0.374   7.913  12.002
84041SOL    HW153955   0.444   7.927  12.067
84041SOL    HW253956   0.417   7.865  11.931
84042SOL     OW53957   3.744  10.326  11.364
84042SOL    HW153958   3.696  10.405  11.387
84042SOL    HW253959   3.826  10.358  11.326
84043SOL     OW53960   8.902  10.368   4.790
84043SOL    HW153961   8.906  10.461   4.766
84043SOL    HW253962   8.840  10.331   4.728
84044SOL     OW53963   6.601   1.552   1.650
84044SOL    HW153964   6.588   1.644   1.626
84044SOL    HW253965   6.610   1.506   1.567
84045SOL     OW53966   0.982   7.968  11.875
84045SOL    HW153967   1.040   8.043  11.883
84045SOL    HW253968   0.909   7.988  11.934
84046SOL     OW53969  10.923   7.205   7.878
84046SOL    HW153970  10.854   7.188   7.814
84046SOL    HW253971  11.004   7.189   7.831
84047SOL     OW53972  11.245  13.504   0.759
84047SOL    HW153973  11.201  13.425   0.789
84047SOL    HW253974  11.247  13.561   0.836
84048SOL     OW53975   5.996   3.864  11.936
84048SOL    HW153976   6.069   3.804  11.947
84048SOL    HW253977   6.034   3.942  11.896
84049SOL     OW53978   2.609   7.616   3.091
84049SOL    HW153979   2.539   7.616   3.025
84049SOL    HW253980   2.634   7.524   3.100
84050SOL     OW53981   6.578   1.046   4.370
84050SOL    HW153982   6.577   1.083   4.282
84050SOL    HW253983   6.617   1.114   4.425
84051SOL     OW53984   3.741   4.375   1.332
84051SOL    HW153985   3.698   4.298   1.369
84051SOL    HW253986   3.698   4.449   1.374
84052SOL     OW53987   2.332  13.835   7.386
84052SOL    HW153988   2.370  13.922   7.375
84052SOL    HW253989   2.399  13.775   7.352
84053SOL     OW53990   7.551  10.691  11.007
84053SOL    HW153991   7.543  10.718  11.099
84053SOL    HW253992   7.639  10.719  10.982
84054SOL     OW53993   3.320   8.141   9.720
84054SOL    HW153994   3.358   8.100   9.642
84054SOL    HW253995   3.380   8.212   9.742
84055SOL     OW53996   1.368   8.232   4.700
84055SOL    HW153997   1.358   8.326   4.691
84055SOL    HW253998   1.317   8.196   4.627
84056SOL     OW53999  10.595   4.556   9.341
84056SOL    HW154000  10.567   4.479   9.291
84056SOL    HW254001  10.690   4.553   9.339
84057SOL     OW54002   1.003   8.827  12.118
84057SOL    HW154003   0.911   8.835  12.142
84057SOL    HW254004   1.004   8.832  12.022
84058SOL     OW54005   8.647   5.840   8.028
84058SOL    HW154006   8.673   5.932   8.035
84058SOL    HW254007   8.623   5.829   7.936
84059SOL     OW54008   5.346   4.572  12.025
84059SOL    HW154009   5.270   4.515  12.012
84059SOL    HW254010   5.343   4.596  12.118
84060SOL     OW54011  11.822   1.303   6.436
84060SOL    HW154012  11.728   1.291   6.450
84060SOL    HW254013  11.828   1.340   6.348
84061SOL     OW54014  11.959  11.817   9.148
84061SOL    HW154015  11.892  11.880   9.122
84061SOL    HW254016  12.039  11.849   9.106
84062SOL     OW54017   4.292   8.122   1.703
84062SOL    HW154018   4.216   8.088   1.655
84062SOL    HW254019   4.304   8.211   1.669
84063SOL     OW54020   4.609   4.747  14.710
84063SOL    HW154021   4.571   4.787  14.631
84063SOL    HW254022   4.606   4.653  14.692
84064SOL     OW54023   0.420   7.635   4.156
84064SOL    HW154024   0.471   7.577   4.100
84064SOL    HW254025   0.485   7.693   4.196
84065SOL     OW54026   4.757   3.968   1.546
84065SOL    HW154027   4.803   4.050   1.529
84065SOL    HW254028   4.822   3.900   1.530
84066SOL     OW54029   9.396   1.504   5.624
84066SOL    HW154030   9.485   1.468   5.615
84066SOL    HW254031   9.404   1.572   5.691
84067SOL     OW54032   6.361  13.045   5.084
84067SOL    HW154033   6.410  13.077   5.159
84067SOL    HW254034   6.417  12.979   5.044
84068SOL     OW54035  10.098  11.969  12.709
84068SOL    HW154036  10.125  11.974  12.801
84068SOL    HW254037  10.179  11.966  12.660
84069SOL     OW54038  10.455   0.247  10.921
84069SOL    HW154039  10.404   0.301  10.861
84069SOL    HW254040  10.545   0.252  10.887
84070SOL     OW54041   4.004   6.550   4.823
84070SOL    HW154042   4.026   6.625   4.767
84070SOL    HW254043   3.909   6.541   4.814
84071SOL     OW54044   6.170   6.547   9.483
84071SOL    HW154045   6.093   6.600   9.460
84071SOL    HW254046   6.185   6.566   9.576
84072SOL     OW54047  13.774   8.319  11.509
84072SOL    HW154048  13.706   8.341  11.445
84072SOL    HW254049  13.789   8.226  11.497
84073SOL     OW54050   9.326  10.719  14.481
84073SOL    HW154051   9.343  10.693  14.572
84073SOL    HW254052   9.392  10.786  14.463
84074SOL     OW54053  13.430   1.230   3.099
84074SOL    HW154054  13.402   1.298   3.160
84074SOL    HW254055  13.359   1.224   3.035
84075SOL     OW54056   3.697  12.191   5.408
84075SOL    HW154057   3.655  12.122   5.459
84075SOL    HW254058   3.626  12.231   5.357
84076SOL     OW54059   3.982   8.456   9.664
84076SOL    HW154060   3.923   8.446   9.739
84076SOL    HW254061   3.972   8.547   9.637
84077SOL     OW54062   7.066   7.225  12.956
84077SOL    HW154063   7.054   7.226  13.051
84077SOL    HW254064   7.156   7.194  12.944
84078SOL     OW54065   0.879   5.278  14.686
84078SOL    HW154066   0.847   5.209  14.629
84078SOL    HW254067   0.910   5.346  14.627
84079SOL     OW54068  12.425   2.392  14.708
84079SOL    HW154069  12.401   2.421  14.796
84079SOL    HW254070  12.478   2.464  14.673
84080SOL     OW54071   8.672   0.339  11.736
84080SOL    HW154072   8.742   0.372  11.792
84080SOL    HW254073   8.598   0.397  11.754
84081SOL     OW54074   3.899   0.050  14.636
84081SOL    HW154075   3.903   0.142  14.662
84081SOL    HW254076   3.839   0.010  14.698
84082SOL     OW54077  10.484   6.902   5.776
84082SOL    HW154078  10.463   6.810   5.795
84082SOL    HW254079  10.557   6.923   5.835
84083SOL     OW54080   4.015  11.221  10.650
84083SOL    HW154081   3.963  11.174  10.584
84083SOL    HW254082   3.952  11.278  10.694
84084SOL     OW54083   5.169  11.336  12.283
84084SOL    HW154084   5.246  11.281  12.268
84084SOL    HW254085   5.103  11.302  12.222
84085SOL     OW54086  11.423   7.778   8.355
84085SOL    HW154087  11.488   7.822   8.301
84085SOL    HW254088  11.466   7.698   8.385
84086SOL     OW54089  10.421   4.870   6.415
84086SOL    HW154090  10.374   4.904   6.338
84086SOL    HW254091  10.496   4.930   6.425
84087SOL     OW54092   0.118  10.417   7.526
84087SOL    HW154093   0.196  10.439   7.576
84087SOL    HW254094   0.133  10.454   7.439
84088SOL     OW54095   9.963  10.453   9.393
84088SOL    HW154096   9.993  10.391   9.327
84088SOL    HW254097   9.871  10.430   9.408
84089SOL     OW54098   5.541   0.499  10.639
84089SOL    HW154099   5.518   0.579  10.593
84089SOL    HW254100   5.490   0.503  10.720
84090SOL     OW54101  12.016   1.261   4.288
84090SOL    HW154102  11.961   1.339   4.290
84090SOL    HW254103  12.021   1.237   4.195
84091SOL     OW54104  10.009   6.478  10.818
84091SOL    HW154105  10.076   6.512  10.759
84091SOL    HW254106  10.021   6.383  10.815
84092SOL     OW54107   2.695  13.235  11.450
84092SOL    HW154108   2.682  13.303  11.384
84092SOL    HW254109   2.762  13.178  11.412
84093SOL     OW54110   2.975   7.217   6.236
84093SOL    HW154111   2.888   7.197   6.201
84093SOL    HW254112   2.957   7.252   6.323
84094SOL     OW54113   3.221   3.645   0.146
84094SOL    HW154114   3.140   3.623   0.100
84094SOL    HW254115   3.275   3.687   0.080
84095SOL     OW54116   9.139  13.104   2.920
84095SOL    HW154117   9.184  13.045   2.858
84095SOL    HW254118   9.167  13.192   2.893
84096SOL     OW54119  10.619   7.054  12.774
84096SOL    HW154120  10.647   7.080  12.687
84096SOL    HW254121  10.524   7.063  12.773
84097SOL     OW54122  14.297  10.283  11.924
84097SOL    HW154123  14.280  10.371  11.957
84097SOL    HW254124  14.212  10.239  11.930
84098SOL     OW54125   1.919  12.780   4.928
84098SOL    HW154126   1.864  12.708   4.899
84098SOL    HW254127   1.898  12.790   5.021
84099SOL     OW54128   0.882  11.523  11.972
84099SOL    HW154129   0.884  11.578  12.051
84099SOL    HW254130   0.880  11.434  12.005
84100SOL     OW54131   3.076   9.889   7.850
84100SOL    HW154132   3.171   9.903   7.857
84100SOL    HW254133   3.067   9.806   7.803
84101SOL     OW54134  14.186   1.383  14.315
84101SOL    HW154135  14.211   1.300  14.272
84101SOL    HW254136  14.099   1.367  14.349
84102SOL     OW54137   5.051   6.443   7.497
84102SOL    HW154138   5.051   6.348   7.501
84102SOL    HW254139   5.140   6.466   7.469
84103SOL     OW54140   7.151   6.254   2.833
84103SOL    HW154141   7.161   6.287   2.744
84103SOL    HW254142   7.096   6.176   2.824
84104SOL     OW54143   5.380  11.697   5.443
84104SOL    HW154144   5.401  11.778   5.397
84104SOL    HW254145   5.440  11.695   5.517
84105SOL     OW54146   2.649   1.464   8.952
84105SOL    HW154147   2.623   1.392   8.894
84105SOL    HW254148   2.636   1.428   9.040
84106SOL     OW54149   5.874   0.863  10.691
84106SOL    HW154150   5.949   0.908  10.730
84106SOL    HW254151   5.805   0.930  10.688
84107SOL     OW54152  14.102  13.251  14.270
84107SOL    HW154153  14.030  13.208  14.224
84107SOL    HW254154  14.084  13.345  14.261
84108SOL     OW54155   9.104   3.438   7.463
84108SOL    HW154156   9.131   3.522   7.501
84108SOL    HW254157   9.043   3.401   7.527
84109SOL     OW54158  12.017  13.919   0.372
84109SOL    HW154159  11.951  13.852   0.392
84109SOL    HW254160  11.966  13.996   0.346
84110SOL     OW54161   1.897   1.864  13.119
84110SOL    HW154162   1.825   1.816  13.079
84110SOL    HW254163   1.969   1.859  13.055
84111SOL     OW54164  10.872  10.197  12.875
84111SOL    HW154165  10.928  10.221  12.802
84111SOL    HW254166  10.831  10.279  12.903
84112SOL     OW54167  14.386  14.127  10.084
84112SOL    HW154168  14.347  14.208  10.053
84112SOL    HW254169  14.405  14.077  10.004
84113SOL     OW54170   0.911  11.104   1.419
84113SOL    HW154171   0.833  11.157   1.438
84113SOL    HW254172   0.890  11.017   1.453
84114SOL     OW54173   9.303   7.980   5.690
84114SOL    HW154174   9.380   8.015   5.735
84114SOL    HW254175   9.229   8.018   5.736
84115SOL     OW54176  13.211   3.621   7.794
84115SOL    HW154177  13.268   3.545   7.795
84115SOL    HW254178  13.244   3.676   7.723
84116SOL     OW54179   2.848  10.357   7.806
84116SOL    HW154180   2.851  10.265   7.779
84116SOL    HW254181   2.760  10.368   7.843
84117SOL     OW54182   5.403   3.918   3.186
84117SOL    HW154183   5.334   3.910   3.251
84117SOL    HW254184   5.364   3.970   3.115
84118SOL     OW54185   0.704   8.036   8.264
84118SOL    HW154186   0.672   8.121   8.295
84118SOL    HW254187   0.665   7.973   8.325
84119SOL     OW54188  10.612   7.871   1.496
84119SOL    HW154189  10.665   7.812   1.442
84119SOL    HW254190  10.662   7.952   1.499
84120SOL     OW54191   3.229   3.930   6.792
84120SOL    HW154192   3.257   3.928   6.884
84120SOL    HW254193   3.306   3.899   6.744
84121SOL     OW54194   1.642   4.649   2.129
84121SOL    HW154195   1.572   4.714   2.131
84121SOL    HW254196   1.616   4.587   2.061
84122SOL     OW54197   0.508   6.604  14.557
84122SOL    HW154198   0.489   6.600  14.464
84122SOL    HW254199   0.568   6.677  14.567
84123SOL     OW54200  13.344  12.909  11.335
84123SOL    HW154201  13.337  13.005  11.340
84123SOL    HW254202  13.254  12.880  11.323
84124SOL     OW54203   7.937   2.245  12.914
84124SOL    HW154204   7.925   2.338  12.893
84124SOL    HW254205   7.867   2.226  12.977
84125SOL     OW54206   8.936   3.755  13.055
84125SOL    HW154207   9.006   3.745  13.120
84125SOL    HW254208   8.865   3.796  13.103
84126SOL     OW54209   1.302   8.876   1.667
84126SOL    HW154210   1.272   8.789   1.692
84126SOL    HW254211   1.244   8.936   1.714
84127SOL     OW54212   8.919  13.191   5.657
84127SOL    HW154213   8.863  13.164   5.730
84127SOL    HW254214   8.956  13.108   5.624
84128SOL     OW54215   3.811  13.086   4.273
84128SOL    HW154216   3.783  13.175   4.251
84128SOL    HW254217   3.738  13.050   4.323
84129SOL     OW54218  12.783  10.369   7.495
84129SOL    HW154219  12.824  10.350   7.410
84129SOL    HW254220  12.715  10.302   7.503
84130SOL     OW54221  13.658   7.048  10.953
84130SOL    HW154222  13.710   7.126  10.973
84130SOL    HW254223  13.662   7.040  10.858
84131SOL     OW54224   6.637   8.545   4.073
84131SOL    HW154225   6.685   8.477   4.121
84131SOL    HW254226   6.689   8.625   4.087
84132SOL     OW54227  12.775   3.435  11.805
84132SOL    HW154228  12.824   3.366  11.849
84132SOL    HW254229  12.842   3.490  11.766
84133SOL     OW54230   6.326   3.362   7.097
84133SOL    HW154231   6.309   3.455   7.112
84133SOL    HW254232   6.417   3.349   7.124
84134SOL     OW54233   3.752   1.922  12.283
84134SOL    HW154234   3.662   1.916  12.252
84134SOL    HW254235   3.760   2.013  12.314
84135SOL     OW54236   9.216  10.962   8.958
84135SOL    HW154237   9.252  10.899   8.895
84135SOL    HW254238   9.177  11.031   8.904
84136SOL     OW54239   2.992   2.246   0.556
84136SOL    HW154240   2.943   2.234   0.475
84136SOL    HW254241   2.933   2.298   0.612
84137SOL     OW54242   7.683   4.767   3.105
84137SOL    HW154243   7.639   4.706   3.045
84137SOL    HW254244   7.700   4.715   3.183
84138SOL     OW54245   6.823   6.622   9.753
84138SOL    HW154246   6.830   6.659   9.841
84138SOL    HW254247   6.806   6.697   9.697
84139SOL     OW54248   9.721   1.931   6.663
84139SOL    HW154249   9.630   1.961   6.665
84139SOL    HW254250   9.759   1.969   6.743
84140SOL     OW54251   4.777   1.474   1.387
84140SOL    HW154252   4.862   1.518   1.388
84140SOL    HW254253   4.715   1.542   1.363
84141SOL     OW54254   3.009   0.810   9.300
84141SOL    HW154255   3.086   0.855   9.264
84141SOL    HW254256   2.941   0.877   9.303
84142SOL     OW54257  12.920  13.277   5.660
84142SOL    HW154258  12.866  13.348   5.694
84142SOL    HW254259  12.901  13.275   5.566
84143SOL     OW54260  13.788   3.952   2.710
84143SOL    HW154261  13.837   3.878   2.746
84143SOL    HW254262  13.766   4.005   2.787
84144SOL     OW54263  14.583   9.989   1.585
84144SOL    HW154264  14.565   9.927   1.515
84144SOL    HW254265  14.516   9.971   1.651
84145SOL     OW54266  12.789  11.607   4.039
84145SOL    HW154267  12.766  11.566   4.122
84145SOL    HW254268  12.883  11.592   4.030
84146SOL     OW54269   3.863  11.569  11.650
84146SOL    HW154270   3.894  11.558  11.560
84146SOL    HW254271   3.800  11.499  11.663
84147SOL     OW54272   9.861  12.234   6.319
84147SOL    HW154273   9.866  12.292   6.395
84147SOL    HW254274   9.940  12.254   6.269
84148SOL     OW54275   3.504   5.311   2.670
84148SOL    HW154276   3.546   5.246   2.725
84148SOL    HW254277   3.517   5.279   2.581
84149SOL     OW54278   1.467   5.959   2.374
84149SOL    HW154279   1.428   5.926   2.293
84149SOL    HW254280   1.441   6.051   2.378
84150SOL     OW54281  13.090   3.414  14.441
84150SOL    HW154282  13.151   3.453  14.378
84150SOL    HW254283  13.121   3.324  14.453
84151SOL     OW54284   3.379   6.673   4.148
84151SOL    HW154285   3.424   6.743   4.101
84151SOL    HW254286   3.299   6.713   4.180
84152SOL     OW54287  10.447  11.961   5.809
84152SOL    HW154288  10.406  12.043   5.837
84152SOL    HW254289  10.485  11.982   5.724
84153SOL     OW54290   9.299   5.986   8.856
84153SOL    HW154291   9.231   6.049   8.877
84153SOL    HW254292   9.368   6.038   8.815
84154SOL     OW54293   4.309   8.326   4.961
84154SOL    HW154294   4.296   8.234   4.984
84154SOL    HW254295   4.344   8.366   5.041
84155SOL     OW54296   6.986   9.032   7.169
84155SOL    HW154297   6.905   9.012   7.122
84155SOL    HW254298   7.056   8.997   7.114
84156SOL     OW54299  12.826   1.426  11.639
84156SOL    HW154300  12.748   1.481  11.626
84156SOL    HW254301  12.805   1.372  11.715
84157SOL     OW54302   9.779  10.049   2.943
84157SOL    HW154303   9.825  10.128   2.971
84157SOL    HW254304   9.755  10.004   3.025
84158SOL     OW54305  11.360  11.922  14.742
84158SOL    HW154306  11.272  11.936  14.707
84158SOL    HW254307  11.379  11.830  14.722
84159SOL     OW54308  10.438   9.183  13.980
84159SOL    HW154309  10.377   9.158  13.911
84159SOL    HW254310  10.428   9.115  14.047
84160SOL     OW54311   7.500  11.077  10.975
84160SOL    HW154312   7.418  11.088  10.928
84160SOL    HW254313   7.557  11.031  10.913
84161SOL     OW54314   3.855   8.090   6.590
84161SOL    HW154315   3.929   8.116   6.533
84161SOL    HW254316   3.844   7.997   6.573
84162SOL     OW54317   3.258   5.169   2.137
84162SOL    HW154318   3.192   5.121   2.186
84162SOL    HW254319   3.262   5.125   2.052
84163SOL     OW54320   8.831   7.581  13.461
84163SOL    HW154321   8.736   7.577  13.474
84163SOL    HW254322   8.842   7.584  13.366
84164SOL     OW54323   9.823   9.473   5.584
84164SOL    HW154324   9.812   9.386   5.623
84164SOL    HW254325   9.909   9.470   5.543
84165SOL     OW54326  12.577   4.761   1.011
84165SOL    HW154327  12.558   4.784   0.920
84165SOL    HW254328  12.666   4.793   1.026
84166SOL     OW54329   1.567   5.226  12.254
84166SOL    HW154330   1.654   5.266  12.250
84166SOL    HW254331   1.521   5.277  12.321
84167SOL     OW54332   9.394   4.093   5.799
84167SOL    HW154333   9.350   4.176   5.783
84167SOL    HW254334   9.454   4.110   5.871
84168SOL     OW54335  10.504   9.452   5.175
84168SOL    HW154336  10.480   9.474   5.085
84168SOL    HW254337  10.586   9.402   5.166
84169SOL     OW54338   7.787   4.240   2.271
84169SOL    HW154339   7.882   4.254   2.265
84169SOL    HW254340   7.768   4.177   2.201
84170SOL     OW54341   7.135  11.559   6.457
84170SOL    HW154342   7.063  11.541   6.396
84170SOL    HW254343   7.133  11.654   6.468
84171SOL     OW54344   7.577   5.185  13.481
84171SOL    HW154345   7.636   5.250  13.443
84171SOL    HW254346   7.590   5.192  13.575
84172SOL     OW54347   3.865  12.661   2.781
84172SOL    HW154348   3.950  12.700   2.800
84172SOL    HW254349   3.881  12.567   2.779
84173SOL     OW54350  10.493   3.889   4.299
84173SOL    HW154351  10.509   3.797   4.280
84173SOL    HW254352  10.402   3.893   4.327
84174SOL     OW54353   1.872   6.336  13.075
84174SOL    HW154354   1.808   6.407  13.067
84174SOL    HW254355   1.956   6.378  13.058
84175SOL     OW54356   5.716  13.007  10.278
84175SOL    HW154357   5.785  13.003  10.212
84175SOL    HW254358   5.760  13.039  10.357
84176SOL     OW54359  10.232   2.841   4.234
84176SOL    HW154360  10.296   2.855   4.165
84176SOL    HW254361  10.150   2.822   4.189
84177SOL     OW54362  14.233  12.755   5.126
84177SOL    HW154363  14.282  12.690   5.177
84177SOL    HW254364  14.150  12.765   5.174
84178SOL     OW54365   3.692   1.820   6.387
84178SOL    HW154366   3.751   1.896   6.391
84178SOL    HW254367   3.747   1.745   6.409
84179SOL     OW54368   2.356   4.748   8.825
84179SOL    HW154369   2.435   4.707   8.792
84179SOL    HW254370   2.386   4.809   8.893
84180SOL     OW54371   0.977   3.113   7.627
84180SOL    HW154372   1.056   3.109   7.680
84180SOL    HW254373   0.907   3.130   7.691
84181SOL     OW54374   7.180   7.429  14.328
84181SOL    HW154375   7.161   7.336  14.345
84181SOL    HW254376   7.099   7.474  14.348
84182SOL     OW54377   4.862  11.744   3.587
84182SOL    HW154378   4.926  11.793   3.535
84182SOL    HW254379   4.811  11.695   3.522
84183SOL     OW54380   2.168   2.899  11.916
84183SOL    HW154381   2.077   2.905  11.947
84183SOL    HW254382   2.167   2.940  11.830
84184SOL     OW54383  12.253   5.105   0.001
84184SOL    HW154384  12.289   5.160  14.804
84184SOL    HW254385  12.164   5.085  14.845
84185SOL     OW54386   9.819   2.315   6.632
84185SOL    HW154387   9.839   2.408   6.638
84185SOL    HW254388   9.895   2.277   6.587
84186SOL     OW54389  12.138  14.442   7.790
84186SOL    HW154390  12.115  14.349   7.783
84186SOL    HW254391  12.228  14.442   7.822
84187SOL     OW54392   9.915   0.443   3.334
84187SOL    HW154393   9.926   0.348   3.343
84187SOL    HW254394   9.991   0.471   3.282
84188SOL     OW54395   9.630   5.277   8.849
84188SOL    HW154396   9.640   5.349   8.912
84188SOL    HW254397   9.588   5.207   8.900
84189SOL     OW54398   0.751   6.043  12.047
84189SOL    HW154399   0.682   6.084  12.100
84189SOL    HW254400   0.813   6.114  12.031
84190SOL     OW54401   2.816  13.128   6.856
84190SOL    HW154402   2.801  13.216   6.891
84190SOL    HW254403   2.887  13.139   6.792
84191SOL     OW54404   4.432  12.159   7.229
84191SOL    HW154405   4.359  12.220   7.234
84191SOL    HW254406   4.507  12.214   7.208
84192SOL     OW54407   5.570   7.540  11.983
84192SOL    HW154408   5.527   7.511  12.063
84192SOL    HW254409   5.623   7.615  12.009
84193SOL     OW54410   0.896  12.572   8.321
84193SOL    HW154411   0.955  12.598   8.391
84193SOL    HW254412   0.844  12.501   8.359
84194SOL     OW54413   1.231  10.475  11.887
84194SOL    HW154414   1.228  10.543  11.819
84194SOL    HW254415   1.140  10.462  11.912
84195SOL     OW54416   7.179   8.642  11.707
84195SOL    HW154417   7.126   8.720  11.695
84195SOL    HW254418   7.130   8.573  11.663
84196SOL     OW54419   4.122   8.447   6.474
84196SOL    HW154420   4.081   8.366   6.505
84196SOL    HW254421   4.055   8.514   6.488
84197SOL     OW54422   4.349   6.368  14.273
84197SOL    HW154423   4.427   6.328  14.235
84197SOL    HW254424   4.343   6.331  14.361
84198SOL     OW54425   7.327   2.908   0.689
84198SOL    HW154426   7.367   2.827   0.658
84198SOL    HW254427   7.349   2.912   0.782
84199SOL     OW54428   1.412  12.750   7.846
84199SOL    HW154429   1.463  12.814   7.798
84199SOL    HW254430   1.365  12.701   7.779
84200SOL     OW54431  12.759  12.344  11.834
84200SOL    HW154432  12.845  12.349  11.792
84200SOL    HW254433  12.712  12.278  11.783
84201SOL     OW54434   8.037   2.665   4.407
84201SOL    HW154435   7.959   2.703   4.366
84201SOL    HW254436   8.107   2.728   4.388
84202SOL     OW54437   9.817   1.997  11.800
84202SOL    HW154438   9.907   2.001  11.766
84202SOL    HW254439   9.817   1.919  11.856
84203SOL     OW54440  12.204   2.689   7.525
84203SOL    HW154441  12.215   2.595   7.538
84203SOL    HW254442  12.264   2.711   7.453
84204SOL     OW54443   9.860   4.380   8.138
84204SOL    HW154444   9.940   4.346   8.098
84204SOL    HW254445   9.843   4.319   8.210
84205SOL     OW54446  13.114  11.550  13.105
84205SOL    HW154447  13.052  11.489  13.065
84205SOL    HW254448  13.172  11.495  13.157
84206SOL     OW54449   0.417   1.212   0.770
84206SOL    HW154450   0.372   1.281   0.722
84206SOL    HW254451   0.348   1.150   0.793
84207SOL     OW54452   5.376   8.672   4.970
84207SOL    HW154453   5.290   8.646   4.938
84207SOL    HW254454   5.418   8.714   4.895
84208SOL     OW54455  11.002   4.163  10.799
84208SOL    HW154456  11.043   4.113  10.870
84208SOL    HW254457  11.075   4.186  10.742
84209SOL     OW54458   5.287  13.130   8.604
84209SOL    HW154459   5.262  13.078   8.528
84209SOL    HW254460   5.356  13.188   8.571
84210SOL     OW54461   0.116   1.233  12.883
84210SOL    HW154462   0.127   1.292  12.957
84210SOL    HW254463   0.025   1.203  12.891
84211SOL     OW54464   7.726   3.026   2.031
84211SOL    HW154465   7.719   2.952   1.972
84211SOL    HW254466   7.818   3.052   2.026
84212SOL     OW54467   6.585  12.957   2.703
84212SOL    HW154468   6.589  13.004   2.787
84212SOL    HW254469   6.597  13.025   2.637
84213SOL     OW54470   9.402   7.884   8.125
84213SOL    HW154471   9.472   7.888   8.190
84213SOL    HW254472   9.438   7.928   8.048
84214SOL     OW54473   3.226   2.042  12.217
84214SOL    HW154474   3.175   1.962  12.216
84214SOL    HW254475   3.218   2.075  12.307
84215SOL     OW54476   3.087   8.824  14.040
84215SOL    HW154477   3.028   8.816  14.115
84215SOL    HW254478   3.136   8.905  14.057
84216SOL     OW54479   4.720  12.623   4.557
84216SOL    HW154480   4.793  12.684   4.563
84216SOL    HW254481   4.699  12.618   4.464
84217SOL     OW54482   3.812  10.107   9.506
84217SOL    HW154483   3.897  10.111   9.550
84217SOL    HW254484   3.780  10.018   9.524
84218SOL     OW54485   9.172   3.869   3.903
84218SOL    HW154486   9.128   3.943   3.946
84218SOL    HW254487   9.111   3.796   3.913
84219SOL     OW54488   3.539   4.437  12.934
84219SOL    HW154489   3.581   4.387  12.864
84219SOL    HW254490   3.452   4.397  12.944
84220SOL     OW54491   1.414   5.120   0.584
84220SOL    HW154492   1.402   5.133   0.678
84220SOL    HW254493   1.339   5.066   0.557
84221SOL     OW54494   7.922   7.694   6.259
84221SOL    HW154495   7.926   7.641   6.338
84221SOL    HW254496   8.013   7.706   6.234
84222SOL     OW54497  14.331   9.783   6.320
84222SOL    HW154498  14.419   9.756   6.294
84222SOL    HW254499  14.345   9.844   6.392
84223SOL     OW54500  12.478   9.045  11.395
84223SOL    HW154501  12.405   9.065  11.453
84223SOL    HW254502  12.502   9.129  11.356
84224SOL     OW54503   8.316  10.583   9.469
84224SOL    HW154504   8.269  10.529   9.406
84224SOL    HW254505   8.354  10.654   9.417
84225SOL     OW54506   0.388   9.480   8.282
84225SOL    HW154507   0.348   9.553   8.328
84225SOL    HW254508   0.314   9.432   8.245
84226SOL     OW54509   8.059   9.013  10.704
84226SOL    HW154510   8.127   8.990  10.641
84226SOL    HW254511   8.105   9.062  10.772
84227SOL     OW54512  11.848  10.210  14.052
84227SOL    HW154513  11.879  10.252  13.972
84227SOL    HW254514  11.761  10.248  14.066
84228SOL     OW54515   6.497   4.684  10.457
84228SOL    HW154516   6.513   4.648  10.370
84228SOL    HW254517   6.583   4.685  10.499
84229SOL     OW54518  11.107   8.567   5.508
84229SOL    HW154519  11.052   8.497   5.474
84229SOL    HW254520  11.054   8.646   5.498
84230SOL     OW54521  12.172  12.943   3.508
84230SOL    HW154522  12.196  12.950   3.416
84230SOL    HW254523  12.192  13.030   3.544
84231SOL     OW54524  14.346  10.151  13.683
84231SOL    HW154525  14.337  10.174  13.776
84231SOL    HW254526  14.394  10.069  13.683
84232SOL     OW54527  13.386   4.564   2.917
84232SOL    HW154528  13.367   4.649   2.876
84232SOL    HW254529  13.465   4.580   2.968
84233SOL     OW54530  14.149   7.031  11.331
84233SOL    HW154531  14.169   7.082  11.410
84233SOL    HW254532  14.207   6.955  11.337
84234SOL     OW54533   0.487  12.150   0.658
84234SOL    HW154534   0.514  12.153   0.567
84234SOL    HW254535   0.475  12.242   0.683
84235SOL     OW54536  14.459   6.694   7.764
84235SOL    HW154537  14.519   6.761   7.734
84235SOL    HW254538  14.382   6.742   7.794
84236SOL     OW54539   8.270   3.015   0.221
84236SOL    HW154540   8.291   3.003   0.129
84236SOL    HW254541   8.196   3.075   0.221
84237SOL     OW54542  13.991  14.711   1.896
84237SOL    HW154543  13.945  14.772   1.840
84237SOL    HW254544  14.081  14.745   1.900
84238SOL     OW54545   6.343   4.159  12.794
84238SOL    HW154546   6.320   4.198  12.878
84238SOL    HW254547   6.305   4.071  12.798
84239SOL     OW54548   1.273  12.950   5.135
84239SOL    HW154549   1.345  12.887   5.134
84239SOL    HW254550   1.213  12.918   5.068
84240SOL     OW54551   4.550   4.266  13.095
84240SOL    HW154552   4.456   4.255  13.084
84240SOL    HW254553   4.560   4.352  13.136
84241SOL     OW54554   8.193   2.171   3.073
84241SOL    HW154555   8.183   2.168   2.977
84241SOL    HW254556   8.183   2.263   3.095
84242SOL     OW54557   9.771   0.776   3.869
84242SOL    HW154558   9.812   0.706   3.819
84242SOL    HW254559   9.703   0.732   3.921
84243SOL     OW54560   5.790  12.679   2.327
84243SOL    HW154561   5.759  12.735   2.255
84243SOL    HW254562   5.866  12.634   2.290
84244SOL     OW54563   7.825   9.738   5.149
84244SOL    HW154564   7.818   9.803   5.080
84244SOL    HW254565   7.851   9.658   5.103
84245SOL     OW54566   7.408   2.657   8.987
84245SOL    HW154567   7.492   2.625   9.019
84245SOL    HW254568   7.424   2.750   8.966
84246SOL     OW54569   1.538   7.455  11.922
84246SOL    HW154570   1.580   7.371  11.908
84246SOL    HW254571   1.448   7.433  11.948
84247SOL     OW54572  13.697   2.627   0.303
84247SOL    HW154573  13.761   2.618   0.374
84247SOL    HW254574  13.669   2.537   0.284
84248SOL     OW54575  11.635   5.668   7.330
84248SOL    HW154576  11.584   5.731   7.381
84248SOL    HW254577  11.581   5.590   7.326
84249SOL     OW54578  12.409   3.999   7.082
84249SOL    HW154579  12.379   3.909   7.070
84249SOL    HW254580  12.386   4.043   7.000
84250SOL     OW54581  14.153   2.195  14.061
84250SOL    HW154582  14.126   2.106  14.085
84250SOL    HW254583  14.083   2.226  14.003
84251SOL     OW54584  14.286  12.539   6.479
84251SOL    HW154585  14.215  12.603   6.483
84251SOL    HW254586  14.253  12.464   6.527
84252SOL     OW54587   3.767   9.161   2.460
84252SOL    HW154588   3.715   9.231   2.501
84252SOL    HW254589   3.711   9.127   2.391
84253SOL     OW54590   4.307   7.877   2.614
84253SOL    HW154591   4.399   7.896   2.597
84253SOL    HW254592   4.304   7.855   2.707
84254SOL     OW54593   3.073   2.058  11.246
84254SOL    HW154594   3.022   2.083  11.169
84254SOL    HW254595   3.041   2.115  11.316
84255SOL     OW54596   2.638   4.234   4.044
84255SOL    HW154597   2.656   4.295   4.115
84255SOL    HW254598   2.635   4.148   4.086
84256SOL     OW54599   2.491   5.551   0.527
84256SOL    HW154600   2.576   5.526   0.491
84256SOL    HW254601   2.511   5.599   0.607
84257SOL     OW54602   6.804  14.026  12.834
84257SOL    HW154603   6.885  13.990  12.798
84257SOL    HW254604   6.781  14.097  12.774
84258SOL     OW54605  11.083   3.013  10.295
84258SOL    HW154606  11.005   2.980  10.341
84258SOL    HW254607  11.157   2.979  10.347
84259SOL     OW54608   0.338  12.572   1.576
84259SOL    HW154609   0.268  12.563   1.640
84259SOL    HW254610   0.304  12.635   1.512
84260SOL     OW54611   8.505  12.967   3.758
84260SOL    HW154612   8.485  12.881   3.721
84260SOL    HW254613   8.453  12.971   3.839
84261SOL     OW54614   7.520  13.923  10.240
84261SOL    HW154615   7.615  13.933  10.235
84261SOL    HW254616   7.491  13.925  10.150
84262SOL     OW54617   8.844   2.889  10.092
84262SOL    HW154618   8.929   2.868  10.052
84262SOL    HW254619   8.867   2.944  10.167
84263SOL     OW54620  12.895   0.210   9.870
84263SOL    HW154621  12.843   0.268   9.926
84263SOL    HW254622  12.892   0.125   9.915
84264SOL     OW54623  10.777   3.006   8.212
84264SOL    HW154624  10.743   3.010   8.302
84264SOL    HW254625  10.758   2.917   8.184
84265SOL     OW54626   4.749   4.987  13.358
84265SOL    HW154627   4.783   5.040  13.286
84265SOL    HW254628   4.818   4.989  13.424
84266SOL     OW54629  11.591   0.466   7.077
84266SOL    HW154630  11.561   0.513   6.999
84266SOL    HW254631  11.686   0.479   7.077
84267SOL     OW54632   6.480  10.037   8.853
84267SOL    HW154633   6.495  10.111   8.793
84267SOL    HW254634   6.565   9.994   8.858
84268SOL     OW54635   1.904   0.772   7.714
84268SOL    HW154636   1.909   0.722   7.632
84268SOL    HW254637   1.811   0.767   7.739
84269SOL     OW54638  13.343  13.367   6.771
84269SOL    HW154639  13.374  13.356   6.681
84269SOL    HW254640  13.403  13.313   6.824
84270SOL     OW54641  10.049   0.070   9.701
84270SOL    HW154642  10.140   0.077   9.730
84270SOL    HW254643  10.043   0.130   9.627
84271SOL     OW54644  12.540   8.983  14.711
84271SOL    HW154645  12.586   8.906  14.745
84271SOL    HW254646  12.487   8.949  14.639
84272SOL     OW54647   9.329   4.228   0.790
84272SOL    HW154648   9.347   4.218   0.696
84272SOL    HW254649   9.414   4.214   0.832
84273SOL     OW54650   0.983   5.479   3.983
84273SOL    HW154651   1.073   5.449   3.975
84273SOL    HW254652   0.973   5.545   3.914
84274SOL     OW54653  10.424  11.134   0.362
84274SOL    HW154654  10.505  11.118   0.411
84274SOL    HW254655  10.354  11.122   0.425
84275SOL     OW54656   9.510   0.823   7.373
84275SOL    HW154657   9.429   0.825   7.425
84275SOL    HW254658   9.536   0.731   7.374
84276SOL     OW54659  14.618  12.621  12.629
84276SOL    HW154660  14.571  12.611  12.712
84276SOL    HW254661  14.560  12.675  12.575
84277SOL     OW54662  10.758  13.474   8.860
84277SOL    HW154663  10.701  13.410   8.901
84277SOL    HW254664  10.698  13.539   8.822
84278SOL     OW54665   8.611  10.607   0.914
84278SOL    HW154666   8.526  10.648   0.894
84278SOL    HW254667   8.637  10.564   0.833
84279SOL     OW54668   9.681   2.843  14.319
84279SOL    HW154669   9.658   2.909  14.384
84279SOL    HW254670   9.690   2.762  14.368
84280SOL     OW54671  12.766   2.630  10.664
84280SOL    HW154672  12.698   2.563  10.670
84280SOL    HW254673  12.828   2.596  10.600
84281SOL     OW54674   0.893  12.407  13.867
84281SOL    HW154675   0.986  12.417  13.890
84281SOL    HW254676   0.850  12.387  13.950
84282SOL     OW54677  10.882   4.726  10.041
84282SOL    HW154678  10.792   4.711  10.069
84282SOL    HW254679  10.880   4.718   9.946
84283SOL     OW54680   1.911   2.954   6.971
84283SOL    HW154681   1.911   3.001   6.888
84283SOL    HW254682   1.910   3.023   7.037
84284SOL     OW54683  10.450   5.105   3.355
84284SOL    HW154684  10.522   5.044   3.372
84284SOL    HW254685  10.469   5.142   3.269
84285SOL     OW54686   2.403   7.363  13.788
84285SOL    HW154687   2.460   7.434  13.759
84285SOL    HW254688   2.412   7.295  13.720
84286SOL     OW54689   0.903   3.051  10.496
84286SOL    HW154690   0.975   3.101  10.535
84286SOL    HW254691   0.834   3.052  10.562
84287SOL     OW54692  11.416  11.932   1.692
84287SOL    HW154693  11.400  12.005   1.632
84287SOL    HW254694  11.506  11.904   1.673
84288SOL     OW54695   3.786  10.541   0.293
84288SOL    HW154696   3.804  10.508   0.381
84288SOL    HW254697   3.796  10.636   0.300
84289SOL     OW54698  10.422  14.462  10.506
84289SOL    HW154699  10.433  14.534  10.569
84289SOL    HW254700  10.445  14.501  10.422
84290SOL     OW54701   3.157   6.673   2.913
84290SOL    HW154702   3.160   6.709   3.002
84290SOL    HW254703   3.226   6.606   2.912
84291SOL     OW54704  11.515   3.575  10.623
84291SOL    HW154705  11.607   3.599  10.638
84291SOL    HW254706  11.482   3.552  10.710
84292SOL     OW54707   1.051  13.353  11.959
84292SOL    HW154708   1.134  13.369  12.003
84292SOL    HW254709   1.015  13.440  11.941
84293SOL     OW54710   0.789  11.913   0.380
84293SOL    HW154711   0.711  11.913   0.435
84293SOL    HW254712   0.859  11.944   0.437
84294SOL     OW54713  14.224   6.611  14.543
84294SOL    HW154714  14.187   6.682  14.492
84294SOL    HW254715  14.148   6.572  14.588
84295SOL     OW54716   1.602   8.394   6.724
84295SOL    HW154717   1.690   8.380   6.760
84295SOL    HW254718   1.617   8.422   6.634
84296SOL     OW54719   2.981  13.651   2.015
84296SOL    HW154720   2.997  13.557   2.004
84296SOL    HW254721   2.885  13.659   2.011
84297SOL     OW54722   0.283   6.873   2.865
84297SOL    HW154723   0.364   6.837   2.829
84297SOL    HW254724   0.273   6.959   2.823
84298SOL     OW54725  13.850   8.109   6.067
84298SOL    HW154726  13.762   8.140   6.049
84298SOL    HW254727  13.839   8.017   6.090
84299SOL     OW54728  14.081  10.848  14.510
84299SOL    HW154729  14.027  10.910  14.559
84299SOL    HW254730  14.166  10.849  14.554
84300SOL     OW54731   3.075   0.387   3.854
84300SOL    HW154732   3.086   0.471   3.809
84300SOL    HW254733   3.163   0.365   3.885
84301SOL     OW54734   3.150  14.102   9.946
84301SOL    HW154735   3.186  14.014   9.928
84301SOL    HW254736   3.062  14.086   9.979
84302SOL     OW54737   9.740   1.341  13.459
84302SOL    HW154738   9.743   1.250  13.488
84302SOL    HW254739   9.704   1.336  13.370
84303SOL     OW54740  11.447   4.110   5.680
84303SOL    HW154741  11.485   4.074   5.600
84303SOL    HW254742  11.514   4.097   5.747
84304SOL     OW54743   0.119   1.852   5.357
84304SOL    HW154744   0.029   1.882   5.344
84304SOL    HW254745   0.137   1.869   5.449
84305SOL     OW54746   3.507  11.471   3.553
84305SOL    HW154747   3.433  11.527   3.573
84305SOL    HW254748   3.564  11.478   3.630
84306SOL     OW54749   0.623  13.104   2.359
84306SOL    HW154750   0.532  13.128   2.344
84306SOL    HW254751   0.674  13.170   2.311
84307SOL     OW54752  13.108   7.913   8.821
84307SOL    HW154753  13.050   7.851   8.776
84307SOL    HW254754  13.166   7.945   8.753
84308SOL     OW54755  12.168   6.308   1.367
84308SOL    HW154756  12.203   6.223   1.394
84308SOL    HW254757  12.139   6.349   1.448
84309SOL     OW54758   3.704  11.101   6.857
84309SOL    HW154759   3.789  11.069   6.886
84309SOL    HW254760   3.723  11.151   6.777
84310SOL     OW54761  12.840   2.910  14.354
84310SOL    HW154762  12.931   2.923  14.326
84310SOL    HW254763  12.789   2.970  14.299
84311SOL     OW54764   8.561  14.293  10.797
84311SOL    HW154765   8.650  14.317  10.771
84311SOL    HW254766   8.552  14.324  10.887
84312SOL     OW54767   4.189   9.371   0.226
84312SOL    HW154768   4.222   9.456   0.255
84312SOL    HW254769   4.101   9.390   0.192
84313SOL     OW54770   2.275   4.154  11.979
84313SOL    HW154771   2.237   4.072  12.011
84313SOL    HW254772   2.223   4.176  11.902
84314SOL     OW54773  12.659   5.903   2.169
84314SOL    HW154774  12.663   5.811   2.198
84314SOL    HW254775  12.723   5.908   2.098
84315SOL     OW54776   8.136  12.950   0.277
84315SOL    HW154777   8.153  13.012   0.348
84315SOL    HW254778   8.099  12.873   0.321
84316SOL     OW54779  12.679  10.707   5.443
84316SOL    HW154780  12.680  10.629   5.500
84316SOL    HW254781  12.768  10.740   5.445
84317SOL     OW54782   2.427  13.885   7.096
84317SOL    HW154783   2.506  13.843   7.129
84317SOL    HW254784   2.355  13.828   7.124
84318SOL     OW54785  11.403  11.571   5.591
84318SOL    HW154786  11.320  11.577   5.543
84318SOL    HW254787  11.401  11.644   5.653
84319SOL     OW54788   0.677   9.742   3.123
84319SOL    HW154789   0.624   9.700   3.055
84319SOL    HW254790   0.760   9.695   3.121
84320SOL     OW54791  14.378  11.483  14.628
84320SOL    HW154792  14.451  11.423  14.644
84320SOL    HW254793  14.324  11.475  14.707
84321SOL     OW54794   4.475   8.255   3.542
84321SOL    HW154795   4.396   8.307   3.557
84321SOL    HW254796   4.478   8.194   3.616
84322SOL     OW54797   3.001   5.508   6.805
84322SOL    HW154798   3.005   5.522   6.899
84322SOL    HW254799   2.954   5.425   6.795
84323SOL     OW54800   5.843   7.056   2.003
84323SOL    HW154801   5.843   6.964   2.031
84323SOL    HW254802   5.861   7.052   1.909
84324SOL     OW54803  10.874   0.022   4.580
84324SOL    HW154804  10.898   0.055   4.667
84324SOL    HW254805  10.864   0.101   4.527
84325SOL     OW54806   2.054   5.082  12.201
84325SOL    HW154807   2.006   5.083  12.284
84325SOL    HW254808   2.145   5.100  12.226
84326SOL     OW54809   6.454  14.487  13.497
84326SOL    HW154810   6.508  14.566  13.497
84326SOL    HW254811   6.501  14.425  13.552
84327SOL     OW54812   3.301   1.802   1.886
84327SOL    HW154813   3.385   1.789   1.842
84327SOL    HW254814   3.323   1.858   1.961
84328SOL     OW54815   4.482   0.994   0.925
84328SOL    HW154816   4.465   0.914   0.876
84328SOL    HW254817   4.536   1.048   0.867
84329SOL     OW54818  14.216  11.388   5.256
84329SOL    HW154819  14.207  11.465   5.199
84329SOL    HW254820  14.279  11.416   5.324
84330SOL     OW54821  13.800   4.228  13.355
84330SOL    HW154822  13.825   4.248  13.445
84330SOL    HW254823  13.870   4.172  13.323
84331SOL     OW54824  11.484  14.455   8.279
84331SOL    HW154825  11.542  14.417   8.212
84331SOL    HW254826  11.528  14.536   8.306
84332SOL     OW54827  12.497  13.016   4.902
84332SOL    HW154828  12.544  13.090   4.864
84332SOL    HW254829  12.468  13.048   4.987
84333SOL     OW54830   8.235  14.802   6.386
84333SOL    HW154831   8.199  14.724   6.428
84333SOL    HW254832   8.330  14.793   6.396
84334SOL     OW54833   9.925   9.717   5.769
84334SOL    HW154834  10.011   9.683   5.744
84334SOL    HW254835   9.882   9.738   5.686
84335SOL     OW54836   5.890  11.445   7.214
84335SOL    HW154837   5.815  11.389   7.232
84335SOL    HW254838   5.920  11.417   7.127
84336SOL     OW54839  14.255   6.459   6.302
84336SOL    HW154840  14.177   6.507   6.329
84336SOL    HW254841  14.328   6.510   6.336
84337SOL     OW54842  14.529  14.422  12.279
84337SOL    HW154843  14.486  14.508  12.276
84337SOL    HW254844  14.464  14.362  12.241
84338SOL     OW54845   7.501  13.610   2.536
84338SOL    HW154846   7.580  13.665   2.533
84338SOL    HW254847   7.523  13.533   2.484
84339SOL     OW54848  10.459   1.920  12.410
84339SOL    HW154849  10.543   1.960  12.387
84339SOL    HW254850  10.395   1.988  12.389
84340SOL     OW54851   1.485   9.270   5.995
84340SOL    HW154852   1.412   9.292   5.939
84340SOL    HW254853   1.553   9.239   5.935
84341SOL     OW54854  13.741   2.006  14.472
84341SOL    HW154855  13.720   1.923  14.429
84341SOL    HW254856  13.805   1.983  14.539
84342SOL     OW54857  14.813   0.084  10.446
84342SOL    HW154858  14.754   0.028  10.496
84342SOL    HW254859  14.786   0.173  10.467
84343SOL     OW54860   2.386  10.069  14.341
84343SOL    HW154861   2.334   9.990  14.330
84343SOL    HW254862   2.350  10.131  14.277
84344SOL     OW54863   8.149   7.140   4.218
84344SOL    HW154864   8.178   7.099   4.136
84344SOL    HW254865   8.116   7.226   4.191
84345SOL     OW54866  12.320   8.392   7.891
84345SOL    HW154867  12.257   8.403   7.962
84345SOL    HW254868  12.306   8.303   7.859
84346SOL     OW54869  12.561   4.246   1.732
84346SOL    HW154870  12.533   4.336   1.751
84346SOL    HW254871  12.603   4.217   1.814
84347SOL     OW54872  13.583  10.825  12.759
84347SOL    HW154873  13.558  10.767  12.687
84347SOL    HW254874  13.663  10.867  12.728
84348SOL     OW54875   2.518  13.035  13.610
84348SOL    HW154876   2.508  13.115  13.558
84348SOL    HW254877   2.598  13.051  13.662
84349SOL     OW54878   9.070  11.776  12.037
84349SOL    HW154879   9.159  11.743  12.031
84349SOL    HW254880   9.078  11.871  12.022
84350SOL     OW54881  13.215   9.280   8.326
84350SOL    HW154882  13.305   9.312   8.320
84350SOL    HW254883  13.219   9.191   8.290
84351SOL     OW54884  13.911   8.410   6.654
84351SOL    HW154885  13.931   8.465   6.729
84351SOL    HW254886  13.905   8.471   6.580
84352SOL     OW54887   9.901   7.938  10.181
84352SOL    HW154888   9.996   7.945  10.171
84352SOL    HW254889   9.874   7.874  10.116
84353SOL     OW54890  14.469   5.191  11.323
84353SOL    HW154891  14.413   5.151  11.390
84353SOL    HW254892  14.558   5.169  11.351
84354SOL     OW54893  12.061   3.302  10.921
84354SOL    HW154894  12.132   3.343  10.871
84354SOL    HW254895  12.083   3.321  11.012
84355SOL     OW54896   4.001   0.656   5.151
84355SOL    HW154897   4.086   0.683   5.118
84355SOL    HW254898   3.989   0.567   5.118
84356SOL     OW54899   9.471   2.509   2.417
84356SOL    HW154900   9.485   2.414   2.423
84356SOL    HW254901   9.469   2.539   2.508
84357SOL     OW54902   8.586   9.928   6.104
84357SOL    HW154903   8.497   9.925   6.140
84357SOL    HW254904   8.613   9.836   6.101
84358SOL     OW54905   1.200   6.900   7.165
84358SOL    HW154906   1.239   6.987   7.164
84358SOL    HW254907   1.183   6.882   7.258
84359SOL     OW54908   3.122   3.710  12.828
84359SOL    HW154909   3.036   3.752  12.830
84359SOL    HW254910   3.158   3.725  12.916
84360SOL     OW54911   2.909   6.719   2.264
84360SOL    HW154912   2.948   6.683   2.184
84360SOL    HW254913   2.963   6.684   2.335
84361SOL     OW54914   1.671   3.183   9.443
84361SOL    HW154915   1.613   3.179   9.367
84361SOL    HW254916   1.717   3.099   9.442
84362SOL     OW54917  13.429   0.869   1.991
84362SOL    HW154918  13.378   0.844   1.915
84362SOL    HW254919  13.477   0.790   2.015
84363SOL     OW54920   3.651   5.903  10.248
84363SOL    HW154921   3.688   5.986  10.216
84363SOL    HW254922   3.662   5.842  10.175
84364SOL     OW54923   8.464   9.354  10.923
84364SOL    HW154924   8.429   9.443  10.925
84364SOL    HW254925   8.392   9.300  10.891
84365SOL     OW54926   3.650  13.655   5.594
84365SOL    HW154927   3.649  13.724   5.528
84365SOL    HW254928   3.607  13.694   5.670
84366SOL     OW54929   5.794   1.103   0.558
84366SOL    HW154930   5.746   1.077   0.480
84366SOL    HW254931   5.748   1.061   0.631
84367SOL     OW54932  12.902   2.998   1.646
84367SOL    HW154933  12.960   3.009   1.721
84367SOL    HW254934  12.960   2.991   1.570
84368SOL     OW54935   3.277   4.281   9.625
84368SOL    HW154936   3.329   4.201   9.623
84368SOL    HW254937   3.302   4.323   9.707
84369SOL     OW54938   2.678  10.031   8.548
84369SOL    HW154939   2.760  10.075   8.527
84369SOL    HW254940   2.704   9.950   8.591
84370SOL     OW54941  12.776  13.696   3.864
84370SOL    HW154942  12.863  13.680   3.826
84370SOL    HW254943  12.726  13.734   3.792
84371SOL     OW54944   9.472   8.801   6.828
84371SOL    HW154945   9.504   8.854   6.755
84371SOL    HW254946   9.546   8.797   6.888
84372SOL     OW54947  13.652  13.082  13.599
84372SOL    HW154948  13.568  13.051  13.565
84372SOL    HW254949  13.659  13.172  13.567
84373SOL     OW54950   3.498   6.645   9.045
84373SOL    HW154951   3.434   6.679   8.983
84373SOL    HW254952   3.444   6.606   9.115
84374SOL     OW54953   8.742   8.912   4.464
84374SOL    HW154954   8.739   8.971   4.388
84374SOL    HW254955   8.660   8.929   4.510
84375SOL     OW54956   6.888  10.963  12.940
84375SOL    HW154957   6.832  10.944  12.865
84375SOL    HW254958   6.977  10.947  12.908
84376SOL     OW54959   8.342   2.359  10.385
84376SOL    HW154960   8.385   2.319  10.461
84376SOL    HW254961   8.254   2.382  10.417
84377SOL     OW54962  13.550  14.296  13.036
84377SOL    HW154963  13.557  14.224  13.098
84377SOL    HW254964  13.462  14.332  13.051
84378SOL     OW54965  11.654   2.336   6.100
84378SOL    HW154966  11.645   2.348   6.005
84378SOL    HW254967  11.716   2.264   6.109
84379SOL     OW54968  13.106   1.060   1.102
84379SOL    HW154969  13.077   1.028   1.017
84379SOL    HW254970  13.026   1.075   1.151
84380SOL     OW54971   8.569   3.629  11.658
84380SOL    HW154972   8.584   3.644  11.751
84380SOL    HW254973   8.574   3.716  11.619
84381SOL     OW54974   5.546   2.809   5.545
84381SOL    HW154975   5.593   2.755   5.480
84381SOL    HW254976   5.469   2.840   5.498
84382SOL     OW54977   9.183  13.636   3.190
84382SOL    HW154978   9.190  13.574   3.118
84382SOL    HW254979   9.254  13.699   3.176
84383SOL     OW54980  14.410  11.378   2.713
84383SOL    HW154981  14.325  11.368   2.754
84383SOL    HW254982  14.473  11.380   2.785
84384SOL     OW54983  12.557   4.317   2.172
84384SOL    HW154984  12.493   4.277   2.231
84384SOL    HW254985  12.613   4.370   2.229
84385SOL     OW54986   7.547   5.089   7.400
84385SOL    HW154987   7.570   5.167   7.350
84385SOL    HW254988   7.547   5.018   7.335
84386SOL     OW54989  11.332   7.099   0.096
84386SOL    HW154990  11.407   7.113   0.038
84386SOL    HW254991  11.285   7.025   0.057
84387SOL     OW54992   9.089  13.420  13.250
84387SOL    HW154993   9.115  13.497  13.200
84387SOL    HW254994   9.157  13.355  13.231
84388SOL     OW54995  11.714   6.773  10.682
84388SOL    HW154996  11.788   6.775  10.742
84388SOL    HW254997  11.730   6.846  10.622
84389SOL     OW54998   0.038   1.300  11.591
84389SOL    HW154999   0.116   1.329  11.544
84389SOL    HW255000   0.062   1.214  11.626
84390SOL     OW55001   9.390   8.005   2.780
84390SOL    HW155002   9.477   7.967   2.792
84390SOL    HW255003   9.373   8.052   2.862
84391SOL     OW55004   9.948   5.703   3.095
84391SOL    HW155005   9.939   5.795   3.119
84391SOL    HW255006   9.869   5.661   3.129
84392SOL     OW55007  12.871   3.580   5.621
84392SOL    HW155008  12.837   3.512   5.563
84392SOL    HW255009  12.933   3.629   5.567
84393SOL     OW55010   0.066   4.304   4.397
84393SOL    HW155011   0.003   4.251   4.446
84393SOL    HW255012   0.018   4.330   4.318
84394SOL     OW55013  14.040   0.506   3.540
84394SOL    HW155014  14.004   0.594   3.551
84394SOL    HW255015  14.050   0.496   3.445
84395SOL     OW55016   5.619   4.305  12.034
84395SOL    HW155017   5.551   4.301  11.967
84395SOL    HW255018   5.701   4.292  11.986
84396SOL     OW55019   8.210  14.327   6.295
84396SOL    HW155020   8.242  14.378   6.369
84396SOL    HW255021   8.289  14.289   6.256
84397SOL     OW55022   8.743   7.802   4.778
84397SOL    HW155023   8.752   7.816   4.872
84397SOL    HW255024   8.832   7.807   4.744
84398SOL     OW55025  14.207   2.769   4.288
84398SOL    HW155026  14.204   2.848   4.232
84398SOL    HW255027  14.300   2.752   4.300
84399SOL     OW55028  13.518   9.422   9.857
84399SOL    HW155029  13.467   9.473   9.795
84399SOL    HW255030  13.570   9.487   9.904
84400SOL     OW55031  14.748   8.749  13.071
84400SOL    HW155032  14.782   8.733  13.159
84400SOL    HW255033  14.684   8.679  13.057
84401SOL     OW55034  10.352  11.740   7.742
84401SOL    HW155035  10.445  11.736   7.765
84401SOL    HW255036  10.330  11.650   7.716
84402SOL     OW55037   3.210   5.269  11.675
84402SOL    HW155038   3.192   5.214  11.752
84402SOL    HW255039   3.127   5.270  11.627
84403SOL     OW55040   9.914  11.696  11.824
84403SOL    HW155041   9.844  11.638  11.854
84403SOL    HW255042   9.925  11.676  11.731
84404SOL     OW55043  10.872   5.354  12.058
84404SOL    HW155044  10.922   5.279  12.087
84404SOL    HW255045  10.783   5.321  12.047
84405SOL     OW55046   6.262   7.661  10.231
84405SOL    HW155047   6.336   7.722  10.229
84405SOL    HW255048   6.208   7.686  10.156
84406SOL     OW55049  13.649   8.285   2.665
84406SOL    HW155050  13.717   8.347   2.691
84406SOL    HW255051  13.676   8.255   2.578
84407SOL     OW55052  13.040  12.733   6.444
84407SOL    HW155053  12.980  12.733   6.518
84407SOL    HW255054  13.038  12.823   6.411
84408SOL     OW55055   5.166   7.567  13.727
84408SOL    HW155056   5.142   7.479  13.755
84408SOL    HW255057   5.147   7.622  13.803
84409SOL     OW55058   2.993  13.774   8.894
84409SOL    HW155059   3.039  13.690   8.898
84409SOL    HW255060   3.050  13.835   8.943
84410SOL     OW55061   1.020  11.322   7.458
84410SOL    HW155062   0.936  11.368   7.457
84410SOL    HW255063   1.037  11.300   7.367
84411SOL     OW55064   0.226  13.894  12.360
84411SOL    HW155065   0.140  13.910  12.399
84411SOL    HW255066   0.216  13.922  12.269
84412SOL     OW55067   4.178  12.097   1.795
84412SOL    HW155068   4.095  12.135   1.766
84412SOL    HW255069   4.239  12.170   1.798
84413SOL     OW55070   0.090   6.936   0.558
84413SOL    HW155071   0.016   6.914   0.502
84413SOL    HW255072   0.082   7.030   0.574
84414SOL     OW55073   3.688  10.072   6.302
84414SOL    HW155074   3.770  10.076   6.351
84414SOL    HW255075   3.620  10.074   6.370
84415SOL     OW55076   0.240   3.914  14.506
84415SOL    HW155077   0.222   4.007  14.498
84415SOL    HW255078   0.234   3.880  14.417
84416SOL     OW55079   3.812  14.404   9.753
84416SOL    HW155080   3.868  14.424   9.829
84416SOL    HW255081   3.723  14.401   9.789
84417SOL     OW55082   7.403   9.702   6.255
84417SOL    HW155083   7.481   9.700   6.200
84417SOL    HW255084   7.401   9.615   6.297
84418SOL     OW55085   1.870  13.192  11.925
84418SOL    HW155086   1.884  13.154  12.012
84418SOL    HW255087   1.831  13.278  11.942
84419SOL     OW55088   3.329   9.151   7.561
84419SOL    HW155089   3.303   9.083   7.499
84419SOL    HW255090   3.420   9.171   7.537
84420SOL     OW55091   2.461   0.939   5.516
84420SOL    HW155092   2.376   0.975   5.541
84420SOL    HW255093   2.484   0.985   5.436
84421SOL     OW55094  14.715   2.636   7.478
84421SOL    HW155095  14.754   2.549   7.487
84421SOL    HW255096  14.746   2.684   7.554
84422SOL     OW55097   7.966   7.666   8.379
84422SOL    HW155098   7.999   7.667   8.469
84422SOL    HW255099   7.953   7.759   8.358
84423SOL     OW55100   2.460   8.549   6.342
84423SOL    HW155101   2.484   8.456   6.340
84423SOL    HW255102   2.365   8.549   6.351
84424SOL     OW55103  12.604   3.630   1.769
84424SOL    HW155104  12.668   3.606   1.836
84424SOL    HW255105  12.637   3.590   1.688
84425SOL     OW55106   7.655   7.202   3.555
84425SOL    HW155107   7.728   7.144   3.576
84425SOL    HW255108   7.612   7.160   3.480
84426SOL     OW55109   5.872  10.424  11.678
84426SOL    HW155110   5.931  10.447  11.749
84426SOL    HW255111   5.805  10.492  11.678
84427SOL     OW55112   2.592   0.745  10.538
84427SOL    HW155113   2.652   0.682  10.576
84427SOL    HW255114   2.647   0.819  10.511
84428SOL     OW55115  12.671  14.803  11.421
84428SOL    HW155116  12.756  14.787  11.461
84428SOL    HW255117  12.612  14.740  11.464
84429SOL     OW55118   1.426   2.783  13.793
84429SOL    HW155119   1.416   2.849  13.862
84429SOL    HW255120   1.496   2.726  13.823
84430SOL     OW55121   5.110   8.185   2.267
84430SOL    HW155122   5.127   8.111   2.209
84430SOL    HW255123   5.025   8.219   2.238
84431SOL     OW55124  10.110   5.815   1.336
84431SOL    HW155125  10.052   5.758   1.286
84431SOL    HW255126  10.052   5.858   1.400
84432SOL     OW55127   0.295   9.997   5.146
84432SOL    HW155128   0.341  10.054   5.208
84432SOL    HW255129   0.365   9.954   5.097
84433SOL     OW55130   0.003   5.668   0.065
84433SOL    HW155131  14.825   5.623   0.133
84433SOL    HW255132   0.074   5.712   0.112
84434SOL     OW55133  10.339   2.405   5.104
84434SOL    HW155134  10.429   2.383   5.078
84434SOL    HW255135  10.304   2.454   5.030
84435SOL     OW55136  13.056   5.394   3.581
84435SOL    HW155137  13.150   5.414   3.576
84435SOL    HW255138  13.035   5.359   3.495
84436SOL     OW55139  12.315   1.572   2.556
84436SOL    HW155140  12.395   1.530   2.524
84436SOL    HW255141  12.244   1.520   2.518
84437SOL     OW55142   0.222   1.330  14.354
84437SOL    HW155143   0.246   1.240  14.332
84437SOL    HW255144   0.228   1.377  14.271
84438SOL     OW55145   6.304  13.579   5.174
84438SOL    HW155146   6.323  13.661   5.127
84438SOL    HW255147   6.261  13.524   5.109
84439SOL     OW55148   6.230   1.823   1.230
84439SOL    HW155149   6.319   1.852   1.209
84439SOL    HW255150   6.215   1.856   1.319
84440SOL     OW55151   6.343   3.521   1.553
84440SOL    HW155152   6.343   3.498   1.646
84440SOL    HW255153   6.283   3.458   1.513
84441SOL     OW55154   9.445   3.895   7.192
84441SOL    HW155155   9.446   3.990   7.177
84441SOL    HW255156   9.417   3.858   7.109
84442SOL     OW55157  13.058   3.545   9.365
84442SOL    HW155158  13.051   3.452   9.386
84442SOL    HW255159  12.969   3.580   9.378
84443SOL     OW55160   2.577   6.180  10.679
84443SOL    HW155161   2.633   6.252  10.651
84443SOL    HW255162   2.592   6.172  10.773
84444SOL     OW55163  11.451   2.974  12.666
84444SOL    HW155164  11.361   2.977  12.634
84444SOL    HW255165  11.445   2.926  12.749
84445SOL     OW55166   6.054   4.449   7.541
84445SOL    HW155167   6.020   4.381   7.482
84445SOL    HW255168   6.010   4.433   7.624
84446SOL     OW55169   6.064  14.299   5.380
84446SOL    HW155170   6.115  14.346   5.314
84446SOL    HW255171   6.070  14.207   5.354
84447SOL     OW55172  13.417   1.937   5.580
84447SOL    HW155173  13.371   1.961   5.660
84447SOL    HW255174  13.470   1.861   5.604
84448SOL     OW55175   8.745   3.816   9.948
84448SOL    HW155176   8.764   3.725   9.926
84448SOL    HW255177   8.782   3.829  10.035
84449SOL     OW55178  11.417   2.782   7.336
84449SOL    HW155179  11.491   2.745   7.287
84449SOL    HW255180  11.401   2.867   7.296
84450SOL     OW55181   0.769  10.870  12.476
84450SOL    HW155182   0.859  10.838  12.471
84450SOL    HW255183   0.777  10.960  12.508
84451SOL     OW55184   0.226  10.979  11.206
84451SOL    HW155185   0.287  10.997  11.134
84451SOL    HW255186   0.275  10.923  11.266
84452SOL     OW55187   7.266  12.695   7.213
84452SOL    HW155188   7.241  12.603   7.213
84452SOL    HW255189   7.320  12.706   7.292
84453SOL     OW55190   2.934   1.418   2.581
84453SOL    HW155191   2.839   1.430   2.570
84453SOL    HW255192   2.957   1.477   2.652
84454SOL     OW55193   7.772   9.443   1.033
84454SOL    HW155194   7.743   9.534   1.035
84454SOL    HW255195   7.716   9.400   0.969
84455SOL     OW55196   9.474   5.213   3.917
84455SOL    HW155197   9.412   5.225   3.988
84455SOL    HW255198   9.545   5.161   3.955
84456SOL     OW55199  14.607   3.354   6.184
84456SOL    HW155200  14.530   3.378   6.236
84456SOL    HW255201  14.662   3.305   6.244
84457SOL     OW55202   8.917  13.881  13.991
84457SOL    HW155203   8.969  13.880  13.910
84457SOL    HW255204   8.980  13.902  14.059
84458SOL     OW55205   7.485   0.739   2.509
84458SOL    HW155206   7.553   0.803   2.532
84458SOL    HW255207   7.525   0.686   2.440
84459SOL     OW55208  13.817   1.749   9.714
84459SOL    HW155209  13.753   1.820   9.721
84459SOL    HW255210  13.873   1.775   9.641
84460SOL     OW55211  12.011   0.672   9.166
84460SOL    HW155212  11.931   0.703   9.210
84460SOL    HW255213  12.079   0.679   9.233
84461SOL     OW55214  12.914   6.695   3.369
84461SOL    HW155215  12.827   6.733   3.362
84461SOL    HW255216  12.898   6.603   3.392
84462SOL     OW55217   7.292  12.469   1.653
84462SOL    HW155218   7.356  12.528   1.693
84462SOL    HW255219   7.330  12.382   1.662
84463SOL     OW55220  14.664   1.677   7.482
84463SOL    HW155221  14.669   1.635   7.396
84463SOL    HW255222  14.571   1.688   7.498
84464SOL     OW55223   7.318   8.639   0.503
84464SOL    HW155224   7.320   8.723   0.549
84464SOL    HW255225   7.300   8.663   0.411
84465SOL     OW55226   5.398  11.539   3.478
84465SOL    HW155227   5.397  11.630   3.508
84465SOL    HW255228   5.453  11.494   3.541
84466SOL     OW55229  10.777  11.455  12.887
84466SOL    HW155230  10.826  11.417  12.814
84466SOL    HW255231  10.798  11.400  12.962
84467SOL     OW55232   5.668  13.141  13.036
84467SOL    HW155233   5.582  13.107  13.012
84467SOL    HW255234   5.670  13.230  13.000
84468SOL     OW55235   5.428   1.927   5.610
84468SOL    HW155236   5.443   1.945   5.702
84468SOL    HW255237   5.349   1.976   5.588
84469SOL     OW55238   4.088  14.010  13.170
84469SOL    HW155239   4.133  13.982  13.250
84469SOL    HW255240   4.044  13.931  13.139
84470SOL     OW55241  11.904   1.285   4.759
84470SOL    HW155242  11.911   1.313   4.850
84470SOL    HW255243  11.984   1.318   4.717
84471SOL     OW55244  11.691  13.711   4.922
84471SOL    HW155245  11.754  13.771   4.881
84471SOL    HW255246  11.736  13.680   5.001
84472SOL     OW55247   4.279   5.872   7.087
84472SOL    HW155248   4.237   5.920   7.016
84472SOL    HW255249   4.370   5.901   7.085
84473SOL     OW55250   7.369  10.501   5.352
84473SOL    HW155251   7.313  10.450   5.410
84473SOL    HW255252   7.399  10.438   5.287
84474SOL     OW55253  13.138   1.516   8.244
84474SOL    HW155254  13.119   1.610   8.239
84474SOL    HW255255  13.226   1.511   8.281
84475SOL     OW55256   4.253  14.226  13.649
84475SOL    HW155257   4.244  14.254  13.740
84475SOL    HW255258   4.333  14.174  13.647
84476SOL     OW55259   8.988   2.896   0.336
84476SOL    HW155260   8.895   2.911   0.319
84476SOL    HW255261   8.996   2.800   0.343
84477SOL     OW55262  12.824  13.986  12.171
84477SOL    HW155263  12.850  14.067  12.126
84477SOL    HW255264  12.735  14.004  12.202
84478SOL     OW55265   7.253  13.913   6.087
84478SOL    HW155266   7.215  13.922   6.174
84478SOL    HW255267   7.296  13.828   6.087
84479SOL     OW55268   8.767  14.862   9.376
84479SOL    HW155269   8.782   0.037   9.458
84479SOL    HW255270   8.673  14.845   9.375
84480SOL     OW55271  11.571   5.183  11.169
84480SOL    HW155272  11.610   5.138  11.243
84480SOL    HW255273  11.541   5.267  11.205
84481SOL     OW55274   8.614   6.264   3.726
84481SOL    HW155275   8.654   6.315   3.655
84481SOL    HW255276   8.678   6.196   3.745
84482SOL     OW55277  12.184   0.344   2.458
84482SOL    HW155278  12.124   0.415   2.436
84482SOL    HW255279  12.262   0.361   2.407
84483SOL     OW55280   2.182  12.744   7.700
84483SOL    HW155281   2.131  12.800   7.758
84483SOL    HW255282   2.265  12.789   7.689
84484SOL     OW55283  13.375  12.558  12.337
84484SOL    HW155284  13.385  12.566  12.242
84484SOL    HW255285  13.288  12.519  12.349
84485SOL     OW55286  14.185  14.513  13.434
84485SOL    HW155287  14.216  14.469  13.513
84485SOL    HW255288  14.096  14.540  13.455
84486SOL     OW55289  12.525   4.662   4.825
84486SOL    HW155290  12.618   4.684   4.833
84486SOL    HW255291  12.497   4.705   4.744
84487SOL     OW55292   5.230  10.992  14.459
84487SOL    HW155293   5.278  11.066  14.420
84487SOL    HW255294   5.296  10.945  14.509
84488SOL     OW55295  11.691   6.126   8.041
84488SOL    HW155296  11.733   6.187   8.102
84488SOL    HW255297  11.717   6.158   7.954
84489SOL     OW55298   8.920   3.995   9.258
84489SOL    HW155299   8.857   4.059   9.224
84489SOL    HW255300   8.959   4.039   9.333
84490SOL     OW55301  12.749  14.211   4.375
84490SOL    HW155302  12.843  14.221   4.363
84490SOL    HW255303  12.718  14.171   4.294
84491SOL     OW55304  13.793   7.357  14.695
84491SOL    HW155305  13.778   7.427  14.759
84491SOL    HW255306  13.780   7.277  14.745
84492SOL     OW55307   1.980   0.702  13.993
84492SOL    HW155308   1.914   0.650  13.948
84492SOL    HW255309   2.062   0.654  13.981
84493SOL     OW55310   5.609   0.433  14.716
84493SOL    HW155311   5.612   0.451  14.622
84493SOL    HW255312   5.693   0.391  14.735
84494SOL     OW55313   0.267   5.119   2.683
84494SOL    HW155314   0.320   5.122   2.603
84494SOL    HW255315   0.287   5.201   2.729
84495SOL     OW55316   5.071  11.916  10.450
84495SOL    HW155317   5.077  11.949  10.360
84495SOL    HW255318   5.069  11.821  10.440
84496SOL     OW55319   8.082  11.040  12.838
84496SOL    HW155320   8.118  11.073  12.756
84496SOL    HW255321   8.140  10.968  12.863
84497SOL     OW55322  12.067   8.049   0.791
84497SOL    HW155323  12.100   8.139   0.793
84497SOL    HW255324  12.000   8.047   0.858
84498SOL     OW55325   4.124  14.036  10.946
84498SOL    HW155326   4.109  13.959  11.000
84498SOL    HW255327   4.124  14.003  10.856
84499SOL     OW55328  10.574  11.281  12.318
84499SOL    HW155329  10.646  11.229  12.353
84499SOL    HW255330  10.539  11.228  12.246
84500SOL     OW55331   1.036  10.747   3.703
84500SOL    HW155332   0.958  10.721   3.751
84500SOL    HW255333   1.069  10.823   3.750
84501SOL     OW55334  14.728  11.786   0.254
84501SOL    HW155335  14.769  11.702   0.235
84501SOL    HW255336  14.693  11.777   0.342
84502SOL     OW55337   9.245   4.646  13.902
84502SOL    HW155338   9.223   4.594  13.980
84502SOL    HW255339   9.261   4.581  13.834
84503SOL     OW55340   7.764   6.624   1.066
84503SOL    HW155341   7.782   6.613   0.973
84503SOL    HW255342   7.848   6.649   1.104
84504SOL     OW55343   9.583   6.693   1.095
84504SOL    HW155344   9.594   6.787   1.078
84504SOL    HW255345   9.531   6.689   1.175
84505SOL     OW55346  14.853   0.190   5.123
84505SOL    HW155347   0.032   0.139   5.060
84505SOL    HW255348  14.819   0.264   5.072
84506SOL     OW55349  11.695  14.147   0.830
84506SOL    HW155350  11.638  14.222   0.814
84506SOL    HW255351  11.695  14.137   0.926
84507SOL     OW55352   6.501   7.829   8.297
84507SOL    HW155353   6.580   7.881   8.281
84507SOL    HW255354   6.529   7.738   8.287
84508SOL     OW55355   2.973  10.287  10.034
84508SOL    HW155356   3.010  10.225  10.097
84508SOL    HW255357   2.885  10.305  10.068
84509SOL     OW55358   2.179   2.506   6.296
84509SOL    HW155359   2.169   2.578   6.234
84509SOL    HW255360   2.244   2.537   6.359
84510SOL     OW55361   1.682   8.676   6.671
84510SOL    HW155362   1.599   8.706   6.635
84510SOL    HW255363   1.665   8.666   6.765
84511SOL     OW55364   2.078   3.289  11.170
84511SOL    HW155365   2.111   3.367  11.126
84511SOL    HW255366   1.985   3.285  11.146
84512SOL     OW55367   7.201   6.560   4.843
84512SOL    HW155368   7.232   6.549   4.933
84512SOL    HW255369   7.171   6.651   4.839
84513SOL     OW55370  11.590   0.417  14.078
84513SOL    HW155371  11.520   0.481  14.090
84513SOL    HW255372  11.549   0.333  14.098
84514SOL     OW55373  11.238   5.971   0.460
84514SOL    HW155374  11.322   5.989   0.416
84514SOL    HW255375  11.258   5.977   0.553
84515SOL     OW55376   1.200   6.138  14.822
84515SOL    HW155377   1.295   6.146  14.824
84515SOL    HW255378   1.175   6.166  14.735
84516SOL     OW55379   6.455   7.275   5.142
84516SOL    HW155380   6.479   7.200   5.196
84516SOL    HW255381   6.409   7.238   5.067
84517SOL     OW55382   7.682   3.538  12.568
84517SOL    HW155383   7.651   3.463  12.517
84517SOL    HW255384   7.665   3.614  12.512
84518SOL     OW55385  13.153   7.080   0.977
84518SOL    HW155386  13.123   7.155   0.926
84518SOL    HW255387  13.187   7.019   0.912
84519SOL     OW55388   4.644   8.326  11.415
84519SOL    HW155389   4.717   8.330  11.478
84519SOL    HW255390   4.566   8.316  11.469
84520SOL     OW55391  11.085   6.729   4.337
84520SOL    HW155392  10.993   6.755   4.350
84520SOL    HW255393  11.118   6.789   4.271
84521SOL     OW55394   3.265   7.837   1.245
84521SOL    HW155395   3.218   7.910   1.204
84521SOL    HW255396   3.335   7.879   1.295
84522SOL     OW55397  11.872   7.401  10.864
84522SOL    HW155398  11.936   7.329  10.859
84522SOL    HW255399  11.797   7.362  10.909
84523SOL     OW55400   2.165   5.016   4.138
84523SOL    HW155401   2.143   4.986   4.226
84523SOL    HW255402   2.252   4.979   4.122
84524SOL     OW55403   2.013   0.440   3.190
84524SOL    HW155404   2.076   0.385   3.238
84524SOL    HW255405   2.042   0.436   3.099
84525SOL     OW55406   6.538   7.930   5.676
84525SOL    HW155407   6.471   7.936   5.745
84525SOL    HW255408   6.593   8.007   5.689
84526SOL     OW55409   4.533  13.565   9.084
84526SOL    HW155410   4.594  13.573   9.158
84526SOL    HW255411   4.446  13.568   9.125
84527SOL     OW55412  12.708  10.680  12.164
84527SOL    HW155413  12.768  10.624  12.116
84527SOL    HW255414  12.763  10.728  12.227
84528SOL     OW55415   6.164   9.032   7.156
84528SOL    HW155416   6.229   8.962   7.152
84528SOL    HW255417   6.216   9.111   7.176
84529SOL     OW55418   7.996  14.387  13.968
84529SOL    HW155419   7.985  14.298  13.934
84529SOL    HW255420   8.065  14.426  13.913
84530SOL     OW55421  14.097   1.678   5.444
84530SOL    HW155422  14.157   1.715   5.509
84530SOL    HW255423  14.125   1.715   5.361
84531SOL     OW55424  13.505   1.539   9.834
84531SOL    HW155425  13.473   1.628   9.824
84531SOL    HW255426  13.448   1.486   9.780
84532SOL     OW55427   2.067   5.007  12.829
84532SOL    HW155428   2.158   5.006  12.860
84532SOL    HW255429   2.027   5.082  12.873
84533SOL     OW55430   9.774   7.513  13.635
84533SOL    HW155431   9.679   7.515  13.648
84533SOL    HW255432   9.810   7.485  13.719
84534SOL     OW55433  10.495  14.192   9.907
84534SOL    HW155434  10.448  14.273   9.889
84534SOL    HW255435  10.459  14.129   9.845
84535SOL     OW55436   3.940   7.957   8.873
84535SOL    HW155437   3.976   7.969   8.786
84535SOL    HW255438   3.863   7.901   8.860
84536SOL     OW55439   2.240  14.656   7.978
84536SOL    HW155440   2.169  14.613   7.932
84536SOL    HW255441   2.223  14.640   8.070
84537SOL     OW55442  10.282  10.668  14.697
84537SOL    HW155443  10.281  10.624  14.612
84537SOL    HW255444  10.337  10.746  14.684
84538SOL     OW55445  14.469   8.056  12.504
84538SOL    HW155446  14.500   8.012  12.583
84538SOL    HW255447  14.518   8.138  12.500
84539SOL     OW55448  13.151  12.541   6.264
84539SOL    HW155449  13.148  12.453   6.302
84539SOL    HW255450  13.147  12.600   6.339
84540SOL     OW55451   7.402  13.892   3.515
84540SOL    HW155452   7.477  13.949   3.499
84540SOL    HW255453   7.414  13.861   3.605
84541SOL     OW55454   4.816   4.465  10.788
84541SOL    HW155455   4.867   4.385  10.776
84541SOL    HW255456   4.881   4.535  10.783
84542SOL     OW55457   4.255   0.994   0.567
84542SOL    HW155458   4.225   0.922   0.511
84542SOL    HW255459   4.339   1.021   0.529
84543SOL     OW55460   9.226  13.319  14.380
84543SOL    HW155461   9.219  13.232  14.419
84543SOL    HW255462   9.158  13.371  14.422
84544SOL     OW55463   3.325  11.023   4.868
84544SOL    HW155464   3.380  10.957   4.825
84544SOL    HW255465   3.285  11.071   4.795
84545SOL     OW55466  11.939   5.228   8.315
84545SOL    HW155467  11.905   5.193   8.397
84545SOL    HW255468  11.915   5.321   8.317
84546SOL     OW55469   1.849   6.803   2.275
84546SOL    HW155470   1.813   6.749   2.204
84546SOL    HW255471   1.911   6.745   2.320
84547SOL     OW55472   2.471   7.800  12.741
84547SOL    HW155473   2.403   7.813  12.807
84547SOL    HW255474   2.425   7.806  12.657
84548SOL     OW55475   6.279   0.303   4.465
84548SOL    HW155476   6.184   0.308   4.470
84548SOL    HW255477   6.297   0.243   4.393
84549SOL     OW55478   1.492   3.505  14.848
84549SOL    HW155479   1.519   3.514  14.757
84549SOL    HW255480   1.532   3.423   0.005
84550SOL     OW55481  10.898  11.412   0.931
84550SOL    HW155482  10.869  11.348   0.865
84550SOL    HW255483  10.875  11.497   0.894
84551SOL     OW55484  13.447   7.328  10.336
84551SOL    HW155485  13.453   7.383  10.414
84551SOL    HW255486  13.532   7.284  10.331
84552SOL     OW55487   8.941   0.699   3.339
84552SOL    HW155488   9.034   0.714   3.358
84552SOL    HW255489   8.899   0.693   3.424
84553SOL     OW55490   7.493   8.840   3.917
84553SOL    HW155491   7.437   8.890   3.977
84553SOL    HW255492   7.481   8.884   3.832
84554SOL     OW55493   7.932   9.100  11.714
84554SOL    HW155494   7.871   9.031  11.688
84554SOL    HW255495   7.951   9.147  11.632
84555SOL     OW55496   4.223   0.274   2.915
84555SOL    HW155497   4.133   0.267   2.945
84555SOL    HW255498   4.217   0.270   2.819
84556SOL     OW55499  10.916  11.864   8.427
84556SOL    HW155500  10.865  11.908   8.495
84556SOL    HW255501  10.872  11.779   8.416
84557SOL     OW55502   6.801   5.838   5.407
84557SOL    HW155503   6.816   5.819   5.499
84557SOL    HW255504   6.818   5.755   5.362
84558SOL     OW55505   8.385   7.849   1.536
84558SOL    HW155506   8.341   7.778   1.584
84558SOL    HW255507   8.405   7.811   1.450
84559SOL     OW55508   1.991   3.470  10.626
84559SOL    HW155509   2.030   3.557  10.611
84559SOL    HW255510   1.918   3.487  10.686
84560SOL     OW55511  11.349   1.812   5.958
84560SOL    HW155512  11.363   1.904   5.940
84560SOL    HW255513  11.327   1.809   6.051
84561SOL     OW55514   7.686   3.609   6.356
84561SOL    HW155515   7.749   3.548   6.395
84561SOL    HW255516   7.704   3.692   6.399
84562SOL     OW55517   8.105   8.386  13.112
84562SOL    HW155518   8.088   8.292  13.107
84562SOL    HW255519   8.056   8.416  13.188
84563SOL     OW55520   0.822   4.841   6.803
84563SOL    HW155521   0.877   4.773   6.842
84563SOL    HW255522   0.763   4.793   6.745
84564SOL     OW55523   4.395   2.675  12.703
84564SOL    HW155524   4.388   2.760  12.659
84564SOL    HW255525   4.393   2.611  12.631
84565SOL     OW55526   1.850   5.973   3.414
84565SOL    HW155527   1.805   5.981   3.499
84565SOL    HW255528   1.935   6.013   3.428
84566SOL     OW55529   0.490   9.634  11.769
84566SOL    HW155530   0.531   9.579  11.702
84566SOL    HW255531   0.498   9.723  11.735
84567SOL     OW55532   1.169   8.623   8.323
84567SOL    HW155533   1.201   8.691   8.384
84567SOL    HW255534   1.083   8.655   8.295
84568SOL     OW55535   1.548  10.418   0.498
84568SOL    HW155536   1.577  10.479   0.566
84568SOL    HW255537   1.619  10.419   0.433
84569SOL     OW55538   0.266   0.992  12.880
84569SOL    HW155539   0.210   0.920  12.910
84569SOL    HW255540   0.206   1.066  12.869
84570SOL     OW55541   7.509  13.286   1.653
84570SOL    HW155542   7.503  13.372   1.610
84570SOL    HW255543   7.598  13.256   1.633
84571SOL     OW55544   4.937  13.172  14.255
84571SOL    HW155545   5.029  13.164  14.231
84571SOL    HW255546   4.927  13.262  14.284
84572SOL     OW55547   9.467   8.658   4.380
84572SOL    HW155548   9.489   8.568   4.355
84572SOL    HW255549   9.501   8.712   4.308
84573SOL     OW55550   2.670   0.769   4.223
84573SOL    HW155551   2.661   0.838   4.158
84573SOL    HW255552   2.639   0.808   4.304
84574SOL     OW55553   8.375  13.139   1.602
84574SOL    HW155554   8.419  13.060   1.570
84574SOL    HW255555   8.412  13.210   1.551
84575SOL     OW55556   0.465  14.451   9.089
84575SOL    HW155557   0.516  14.370   9.096
84575SOL    HW255558   0.408  14.451   9.166
84576SOL     OW55559   4.196   5.629  12.775
84576SOL    HW155560   4.126   5.635  12.710
84576SOL    HW255561   4.240   5.714  12.771
84577SOL     OW55562  10.493   5.292   0.705
84577SOL    HW155563  10.579   5.252   0.689
84577SOL    HW255564  10.435   5.219   0.724
84578SOL     OW55565  11.023   3.786   2.886
84578SOL    HW155566  10.962   3.762   2.956
84578SOL    HW255567  11.083   3.848   2.926
84579SOL     OW55568  12.702   8.099   1.770
84579SOL    HW155569  12.673   8.122   1.682
84579SOL    HW255570  12.791   8.135   1.776
84580SOL     OW55571   2.059   5.174   6.121
84580SOL    HW155572   2.014   5.238   6.066
84580SOL    HW255573   1.995   5.151   6.189
84581SOL     OW55574  13.565   2.767   4.994
84581SOL    HW155575  13.532   2.740   4.908
84581SOL    HW255576  13.496   2.742   5.055
84582SOL     OW55577  10.619  11.443   4.776
84582SOL    HW155578  10.631  11.511   4.709
84582SOL    HW255579  10.622  11.361   4.727
84583SOL     OW55580  13.179  11.581   9.456
84583SOL    HW155581  13.255  11.539   9.496
84583SOL    HW255582  13.105  11.525   9.481
84584SOL     OW55583  11.692   1.647   7.136
84584SOL    HW155584  11.714   1.554   7.125
84584SOL    HW255585  11.763   1.693   7.091
84585SOL     OW55586   5.614  12.424   0.469
84585SOL    HW155587   5.588  12.512   0.499
84585SOL    HW255588   5.538  12.369   0.488
84586SOL     OW55589   2.250   8.558   9.243
84586SOL    HW155590   2.184   8.584   9.307
84586SOL    HW255591   2.326   8.614   9.262
84587SOL     OW55592   3.005   9.937  11.669
84587SOL    HW155593   3.032   9.854  11.710
84587SOL    HW255594   2.919   9.918  11.632
84588SOL     OW55595   0.005   0.110   5.926
84588SOL    HW155596   0.057   0.040   5.966
84588SOL    HW255597   0.065   0.153   5.866
84589SOL     OW55598  10.514   2.966   4.785
84589SOL    HW155599  10.435   3.019   4.784
84589SOL    HW255600  10.489   2.887   4.833
84590SOL     OW55601   9.451   2.724   7.858
84590SOL    HW155602   9.414   2.812   7.846
84590SOL    HW255603   9.414   2.694   7.941
84591SOL     OW55604   5.874  11.336  11.856
84591SOL    HW155605   5.830  11.363  11.937
84591SOL    HW255606   5.967  11.336  11.879
84592SOL     OW55607  12.239  10.067  13.106
84592SOL    HW155608  12.174  10.129  13.139
84592SOL    HW255609  12.188   9.991  13.077
84593SOL     OW55610  14.405  12.350   0.215
84593SOL    HW155611  14.425  12.348   0.308
84593SOL    HW255612  14.312  12.327   0.209
84594SOL     OW55613   0.342   1.554   8.595
84594SOL    HW155614   0.430   1.571   8.562
84594SOL    HW255615   0.320   1.468   8.561
84595SOL     OW55616   9.380  10.060   2.491
84595SOL    HW155617   9.352  10.004   2.419
84595SOL    HW255618   9.387  10.147   2.452
84596SOL     OW55619   1.340   3.657   7.283
84596SOL    HW155620   1.338   3.619   7.195
84596SOL    HW255621   1.252   3.694   7.295
84597SOL     OW55622   3.141   3.569  14.620
84597SOL    HW155623   3.229   3.603  14.635
84597SOL    HW255624   3.086   3.647  14.611
84598SOL     OW55625   1.652  13.628   0.219
84598SOL    HW155626   1.694  13.676   0.147
84598SOL    HW255627   1.722  13.575   0.255
84599SOL     OW55628  10.843  12.785   8.821
84599SOL    HW155629  10.846  12.880   8.820
84599SOL    HW255630  10.934  12.758   8.834
84600SOL     OW55631   9.926   8.762   6.210
84600SOL    HW155632   9.905   8.728   6.123
84600SOL    HW255633   9.957   8.852   6.194
84601SOL     OW55634   7.012   3.140   1.659
84601SOL    HW155635   7.062   3.059   1.663
84601SOL    HW255636   7.076   3.207   1.634
84602SOL     OW55637   8.554   4.781   4.122
84602SOL    HW155638   8.551   4.738   4.208
84602SOL    HW255639   8.465   4.815   4.109
84603SOL     OW55640   6.860   2.931   8.367
84603SOL    HW155641   6.795   2.994   8.336
84603SOL    HW255642   6.910   2.978   8.433
84604SOL     OW55643   3.910  10.387  10.124
84604SOL    HW155644   3.848  10.441  10.075
84604SOL    HW255645   3.995  10.426  10.107
84605SOL     OW55646   8.333  12.029   2.753
84605SOL    HW155647   8.337  11.934   2.751
84605SOL    HW255648   8.411  12.057   2.704
84606SOL     OW55649   5.273   4.674  14.566
84606SOL    HW155650   5.204   4.668  14.632
84606SOL    HW255651   5.231   4.718  14.492
84607SOL     OW55652   3.979  12.155   3.785
84607SOL    HW155653   4.007  12.202   3.863
84607SOL    HW255654   4.059  12.138   3.736
84608SOL     OW55655   0.951   1.503  14.568
84608SOL    HW155656   0.958   1.586  14.522
84608SOL    HW255657   0.931   1.439  14.500
84609SOL     OW55658  14.106   1.625   5.889
84609SOL    HW155659  14.036   1.586   5.836
84609SOL    HW255660  14.181   1.626   5.830
84610SOL     OW55661  13.053   2.967   2.817
84610SOL    HW155662  12.976   2.955   2.872
84610SOL    HW255663  13.051   2.892   2.757
84611SOL     OW55664   2.515   9.582   4.439
84611SOL    HW155665   2.549   9.616   4.521
84611SOL    HW255666   2.420   9.590   4.447
84612SOL     OW55667   0.866   2.031  13.113
84612SOL    HW155668   0.867   2.057  13.021
84612SOL    HW255669   0.882   1.937  13.112
84613SOL     OW55670   7.615  12.660   5.619
84613SOL    HW155671   7.635  12.567   5.631
84613SOL    HW255672   7.602  12.670   5.525
84614SOL     OW55673  12.043   9.598   4.096
84614SOL    HW155674  11.995   9.635   4.022
84614SOL    HW255675  12.133   9.589   4.064
84615SOL     OW55676   2.835  10.978   9.197
84615SOL    HW155677   2.922  10.948   9.222
84615SOL    HW255678   2.842  11.001   9.105
84616SOL     OW55679   2.041   7.088   4.893
84616SOL    HW155680   2.048   7.018   4.959
84616SOL    HW255681   2.013   7.043   4.814
84617SOL     OW55682  13.480   3.442   9.985
84617SOL    HW155683  13.500   3.534   9.971
84617SOL    HW255684  13.544   3.395   9.932
84618SOL     OW55685   5.536   4.893   3.925
84618SOL    HW155686   5.463   4.894   3.863
84618SOL    HW255687   5.495   4.878   4.010
84619SOL     OW55688   3.458   9.192  13.386
84619SOL    HW155689   3.501   9.187  13.301
84619SOL    HW255690   3.429   9.103  13.404
84620SOL     OW55691  14.772  14.543  13.896
84620SOL    HW155692  14.777  14.544  13.801
84620SOL    HW255693  14.808  14.458  13.922
84621SOL     OW55694   0.120  14.210  11.036
84621SOL    HW155695   0.169  14.165  10.967
84621SOL    HW255696   0.168  14.292  11.049
84622SOL     OW55697   8.397   7.031  11.222
84622SOL    HW155698   8.342   6.999  11.294
84622SOL    HW255699   8.487   7.014  11.250
84623SOL     OW55700   4.009  12.068   6.789
84623SOL    HW155701   4.004  12.145   6.847
84623SOL    HW255702   4.087  12.021   6.819
84624SOL     OW55703   5.024  10.720   9.792
84624SOL    HW155704   5.048  10.787   9.856
84624SOL    HW255705   4.946  10.678   9.828
84625SOL     OW55706   3.134   9.601   8.843
84625SOL    HW155707   3.139   9.679   8.788
84625SOL    HW255708   3.170   9.628   8.927
84626SOL     OW55709  13.691   4.599   5.270
84626SOL    HW155710  13.769   4.611   5.323
84626SOL    HW255711  13.674   4.505   5.272
84627SOL     OW55712   2.923  14.116   1.990
84627SOL    HW155713   2.855  14.086   2.051
84627SOL    HW255714   2.888  14.095   1.903
84628SOL     OW55715   8.371   1.986  11.883
84628SOL    HW155716   8.285   1.987  11.924
84628SOL    HW255717   8.431   2.014  11.953
84629SOL     OW55718  10.392  11.869  11.960
84629SOL    HW155719  10.477  11.827  11.973
84629SOL    HW255720  10.358  11.828  11.880
84630SOL     OW55721  11.083  10.344  11.993
84630SOL    HW155722  11.010  10.364  12.052
84630SOL    HW255723  11.043  10.334  11.907
84631SOL     OW55724  14.858   8.186  10.602
84631SOL    HW155725  14.826   8.199  10.691
84631SOL    HW255726  14.791   8.224  10.546
84632SOL     OW55727  12.822   2.624   1.632
84632SOL    HW155728  12.743   2.588   1.593
84632SOL    HW255729  12.829   2.582   1.718
84633SOL     OW55730   1.874   9.299   0.758
84633SOL    HW155731   1.813   9.343   0.699
84633SOL    HW255732   1.838   9.313   0.845
84634SOL     OW55733   3.259   7.514  14.626
84634SOL    HW155734   3.326   7.454  14.661
84634SOL    HW255735   3.215   7.463  14.558
84635SOL     OW55736   6.853   6.129  12.436
84635SOL    HW155737   6.932   6.130  12.382
84635SOL    HW255738   6.809   6.211  12.416
84636SOL     OW55739   0.806   8.309   4.586
84636SOL    HW155740   0.730   8.251   4.579
84636SOL    HW255741   0.832   8.303   4.678
84637SOL     OW55742  14.459   3.689   4.584
84637SOL    HW155743  14.369   3.720   4.574
84637SOL    HW255744  14.459   3.602   4.543
84638SOL     OW55745  12.840  10.210   1.517
84638SOL    HW155746  12.820  10.128   1.472
84638SOL    HW255747  12.763  10.228   1.571
84639SOL     OW55748  12.393   4.182   7.714
84639SOL    HW155749  12.387   4.097   7.757
84639SOL    HW255750  12.316   4.187   7.658
84640SOL     OW55751  11.771   7.878   1.635
84640SOL    HW155752  11.729   7.909   1.715
84640SOL    HW255753  11.727   7.796   1.614
84641SOL     OW55754   8.049   5.701   9.462
84641SOL    HW155755   7.994   5.714   9.539
84641SOL    HW255756   8.093   5.617   9.479
84642SOL     OW55757   1.570  12.314   7.941
84642SOL    HW155758   1.526  12.330   7.857
84642SOL    HW255759   1.642  12.254   7.919
84643SOL     OW55760   9.820   5.492   9.968
84643SOL    HW155761   9.747   5.437   9.940
84643SOL    HW255762   9.895   5.432   9.969
84644SOL     OW55763   2.392   2.036   7.087
84644SOL    HW155764   2.319   1.985   7.122
84644SOL    HW255765   2.418   2.095   7.158
84645SOL     OW55766  10.363  13.835   8.834
84645SOL    HW155767  10.319  13.773   8.776
84645SOL    HW255768  10.295  13.862   8.896
84646SOL     OW55769   7.321  14.177   4.504
84646SOL    HW155770   7.380  14.248   4.529
84646SOL    HW255771   7.234  14.207   4.530
84647SOL     OW55772   9.691   8.814  13.605
84647SOL    HW155773   9.694   8.774  13.518
84647SOL    HW255774   9.617   8.874  13.602
84648SOL     OW55775   6.803   6.480   3.429
84648SOL    HW155776   6.748   6.406   3.405
84648SOL    HW255777   6.891   6.455   3.401
84649SOL     OW55778   9.465  12.075   5.663
84649SOL    HW155779   9.408  12.039   5.594
84649SOL    HW255780   9.471  12.005   5.728
84650SOL     OW55781   6.318   5.417  12.902
84650SOL    HW155782   6.403   5.388  12.936
84650SOL    HW255783   6.295   5.493  12.956
84651SOL     OW55784  11.141  12.894   4.015
84651SOL    HW155785  11.211  12.911   3.952
84651SOL    HW255786  11.140  12.798   4.023
84652SOL     OW55787   3.461   4.865   3.164
84652SOL    HW155788   3.465   4.947   3.114
84652SOL    HW255789   3.517   4.806   3.115
84653SOL     OW55790   4.752   3.875   7.772
84653SOL    HW155791   4.721   3.892   7.861
84653SOL    HW255792   4.783   3.960   7.741
84654SOL     OW55793  10.149   2.758   3.870
84654SOL    HW155794  10.076   2.706   3.904
84654SOL    HW255795  10.224   2.698   3.872
84655SOL     OW55796   8.773   4.015   8.554
84655SOL    HW155797   8.735   3.966   8.627
84655SOL    HW255798   8.808   4.095   8.594
84656SOL     OW55799   8.887   1.741   3.991
84656SOL    HW155800   8.796   1.738   4.020
84656SOL    HW255801   8.890   1.813   3.929
84657SOL     OW55802  11.835   6.350   2.019
84657SOL    HW155803  11.903   6.375   1.956
84657SOL    HW255804  11.860   6.262   2.047
84658SOL     OW55805   8.680   8.186  14.405
84658SOL    HW155806   8.642   8.266  14.441
84658SOL    HW255807   8.707   8.135  14.482
84659SOL     OW55808  14.498   6.528   7.992
84659SOL    HW155809  14.449   6.599   7.950
84659SOL    HW255810  14.510   6.558   8.082
84660SOL     OW55811   7.074  14.865  12.671
84660SOL    HW155812   7.079  14.806  12.596
84660SOL    HW255813   7.102  14.811  12.745
84661SOL     OW55814   8.369   4.949  14.099
84661SOL    HW155815   8.375   4.854  14.104
84661SOL    HW255816   8.344   4.966  14.008
84662SOL     OW55817   6.736  11.406  10.971
84662SOL    HW155818   6.769  11.355  10.897
84662SOL    HW255819   6.724  11.342  11.041
84663SOL     OW55820   6.725   1.686   3.631
84663SOL    HW155821   6.630   1.690   3.626
84663SOL    HW255822   6.745   1.593   3.642
84664SOL     OW55823  14.530   1.125  13.477
84664SOL    HW155824  14.439   1.153  13.477
84664SOL    HW255825  14.527   1.031  13.495
84665SOL     OW55826   9.242  12.935   5.420
84665SOL    HW155827   9.286  12.889   5.492
84665SOL    HW255828   9.310  12.987   5.379
84666SOL     OW55829   8.703   0.094   7.553
84666SOL    HW155830   8.768   0.081   7.484
84666SOL    HW255831   8.654   0.011   7.555
84667SOL     OW55832   3.599  14.258   8.095
84667SOL    HW155833   3.510  14.225   8.082
84667SOL    HW255834   3.654  14.200   8.043
84668SOL     OW55835  10.918  10.094  13.912
84668SOL    HW155836  10.885  10.136  13.832
84668SOL    HW255837  10.907  10.161  13.980
84669SOL     OW55838   1.486   3.626   8.860
84669SOL    HW155839   1.456   3.604   8.772
84669SOL    HW255840   1.504   3.542   8.902
84670SOL     OW55841   2.140   5.006  13.676
84670SOL    HW155842   2.177   5.058  13.748
84670SOL    HW255843   2.188   4.924  13.678
84671SOL     OW55844  12.951  13.430   8.341
84671SOL    HW155845  12.920  13.519   8.353
84671SOL    HW255846  12.915  13.381   8.414
84672SOL     OW55847   7.951   6.149   8.406
84672SOL    HW155848   7.950   6.147   8.502
84672SOL    HW255849   7.907   6.231   8.383
84673SOL     OW55850   5.938  10.095  13.324
84673SOL    HW155851   5.876  10.024  13.308
84673SOL    HW255852   5.925  10.119  13.416
84674SOL     OW55853   2.465  12.022   0.799
84674SOL    HW155854   2.404  12.075   0.747
84674SOL    HW255855   2.411  11.985   0.868
84675SOL     OW55856  11.259  12.634  13.628
84675SOL    HW155857  11.238  12.680  13.547
84675SOL    HW255858  11.181  12.643  13.683
84676SOL     OW55859   9.928   3.848  14.514
84676SOL    HW155860  10.007   3.802  14.483
84676SOL    HW255861   9.875   3.860  14.435
84677SOL     OW55862   0.030   3.888   5.193
84677SOL    HW155863  14.832   3.913   5.254
84677SOL    HW255864   0.049   3.797   5.216
84678SOL     OW55865   1.228  12.554   3.315
84678SOL    HW155866   1.309  12.582   3.358
84678SOL    HW255867   1.158  12.601   3.361
84679SOL     OW55868  11.284  12.554  12.047
84679SOL    HW155869  11.319  12.537  12.135
84679SOL    HW255870  11.223  12.627  12.060
84680SOL     OW55871   8.573   4.716   6.091
84680SOL    HW155872   8.630   4.693   6.165
84680SOL    HW255873   8.633   4.747   6.023
84681SOL     OW55874  11.776  12.535   3.964
84681SOL    HW155875  11.765  12.535   4.059
84681SOL    HW255876  11.829  12.613   3.947
84682SOL     OW55877  12.519  10.354   8.773
84682SOL    HW155878  12.592  10.375   8.832
84682SOL    HW255879  12.557  10.364   8.685
84683SOL     OW55880   7.709   9.722   2.316
84683SOL    HW155881   7.622   9.726   2.276
84683SOL    HW255882   7.713   9.799   2.372
84684SOL     OW55883  14.155  13.392   3.370
84684SOL    HW155884  14.192  13.475   3.338
84684SOL    HW255885  14.112  13.415   3.452
84685SOL     OW55886   7.254  13.718   0.270
84685SOL    HW155887   7.164  13.694   0.248
84685SOL    HW255888   7.253  13.732   0.365
84686SOL     OW55889  11.661   8.308   7.080
84686SOL    HW155890  11.647   8.222   7.041
84686SOL    HW255891  11.628   8.370   7.015
84687SOL     OW55892   6.598  12.758   4.244
84687SOL    HW155893   6.657  12.825   4.278
84687SOL    HW255894   6.614  12.682   4.299
84688SOL     OW55895  11.988   5.497   4.069
84688SOL    HW155896  11.919   5.478   4.132
84688SOL    HW255897  12.018   5.585   4.092
84689SOL     OW55898   1.420   5.653   0.104
84689SOL    HW155899   1.482   5.592   0.065
84689SOL    HW255900   1.467   5.736   0.109
84690SOL     OW55901  10.732   7.043  12.367
84690SOL    HW155902  10.795   7.075  12.303
84690SOL    HW255903  10.702   7.122  12.412
84691SOL     OW55904  12.295  14.167  10.122
84691SOL    HW155905  12.254  14.151  10.036
84691SOL    HW255906  12.375  14.216  10.101
84692SOL     OW55907   3.501   8.747  14.750
84692SOL    HW155908   3.574   8.698  14.711
84692SOL    HW255909   3.537   8.833  14.768
84693SOL     OW55910   8.363   7.454   7.831
84693SOL    HW155911   8.415   7.522   7.788
84693SOL    HW255912   8.275   7.491   7.839
84694SOL     OW55913   8.263   9.124   1.991
84694SOL    HW155914   8.194   9.158   2.048
84694SOL    HW255915   8.242   9.160   1.905
84695SOL     OW55916  11.492  10.098  10.162
84695SOL    HW155917  11.445  10.149  10.228
84695SOL    HW255918  11.422  10.061  10.107
84696SOL     OW55919   9.888   5.845   9.171
84696SOL    HW155920   9.952   5.818   9.105
84696SOL    HW255921   9.814   5.878   9.121
84697SOL     OW55922   8.765   5.720  13.601
84697SOL    HW155923   8.848   5.752  13.566
84697SOL    HW255924   8.713   5.799  13.615
84698SOL     OW55925   4.887   9.515   0.886
84698SOL    HW155926   4.843   9.594   0.854
84698SOL    HW255927   4.972   9.546   0.918
84699SOL     OW55928   2.007  13.452   3.100
84699SOL    HW155929   1.996  13.370   3.051
84699SOL    HW255930   1.983  13.429   3.190
84700SOL     OW55931   1.056  14.436  13.791
84700SOL    HW155932   1.059  14.369  13.859
84700SOL    HW255933   1.148  14.462  13.780
84701SOL     OW55934   3.802  14.124  13.701
84701SOL    HW155935   3.853  14.190  13.748
84701SOL    HW255936   3.842  14.120  13.614
84702SOL     OW55937   3.067  13.219  13.702
84702SOL    HW155938   3.007  13.232  13.628
84702SOL    HW255939   3.047  13.291  13.761
84703SOL     OW55940   8.071   4.412   3.189
84703SOL    HW155941   7.998   4.377   3.240
84703SOL    HW255942   8.032   4.434   3.104
84704SOL     OW55943   6.847   3.808  14.574
84704SOL    HW155944   6.769   3.790  14.523
84704SOL    HW255945   6.837   3.756  14.653
84705SOL     OW55946   7.386   5.345   2.723
84705SOL    HW155947   7.424   5.283   2.785
84705SOL    HW255948   7.462   5.390   2.685
84706SOL     OW55949  12.900   5.350  11.576
84706SOL    HW155950  12.806   5.359  11.591
84706SOL    HW255951  12.921   5.260  11.601
84707SOL     OW55952   1.958  14.447   0.686
84707SOL    HW155953   1.927  14.371   0.736
84707SOL    HW255954   1.989  14.410   0.604
84708SOL     OW55955   6.725  11.330   0.436
84708SOL    HW155956   6.719  11.261   0.503
84708SOL    HW255957   6.818  11.355   0.437
84709SOL     OW55958   4.810  14.695  10.665
84709SOL    HW155959   4.823  14.706  10.759
84709SOL    HW255960   4.720  14.662  10.657
84710SOL     OW55961   3.780   2.864   2.057
84710SOL    HW155962   3.871   2.838   2.043
84710SOL    HW255963   3.753   2.817   2.135
84711SOL     OW55964   2.761   8.645   0.441
84711SOL    HW155965   2.844   8.618   0.402
84711SOL    HW255966   2.777   8.641   0.535
84712SOL     OW55967  12.125  11.798  13.261
84712SOL    HW155968  12.113  11.810  13.167
84712SOL    HW255969  12.108  11.884  13.299
84713SOL     OW55970   7.242  10.027  11.279
84713SOL    HW155971   7.334  10.001  11.271
84713SOL    HW255972   7.204  10.006  11.194
84714SOL     OW55973   3.448  10.137   9.999
84714SOL    HW155974   3.401  10.141  10.083
84714SOL    HW255975   3.489  10.051   9.999
84715SOL     OW55976  13.290  12.413  10.688
84715SOL    HW155977  13.307  12.495  10.642
84715SOL    HW255978  13.211  12.378  10.648
84716SOL     OW55979   3.301   8.564   0.375
84716SOL    HW155980   3.277   8.605   0.291
84716SOL    HW255981   3.246   8.608   0.440
84717SOL     OW55982   3.163  14.424  14.147
84717SOL    HW155983   3.200  14.430  14.059
84717SOL    HW255984   3.099  14.353  14.142
84718SOL     OW55985  11.067  10.076  11.414
84718SOL    HW155986  11.109  10.019  11.351
84718SOL    HW255987  11.011  10.018  11.466
84719SOL     OW55988   7.244  14.700   6.497
84719SOL    HW155989   7.331  14.664   6.479
84719SOL    HW255990   7.228  14.759   6.424
84720SOL     OW55991   3.218   7.108   8.287
84720SOL    HW155992   3.303   7.070   8.312
84720SOL    HW255993   3.238   7.164   8.212
84721SOL     OW55994   6.279   4.452   6.326
84721SOL    HW155995   6.335   4.516   6.282
84721SOL    HW255996   6.282   4.375   6.270
84722SOL     OW55997   1.113   6.278   1.590
84722SOL    HW155998   1.074   6.235   1.666
84722SOL    HW255999   1.171   6.344   1.628
84723SOL     OW56000  14.376  11.503  10.638
84723SOL    HW156001  14.395  11.409  10.629
84723SOL    HW256002  14.295  11.506  10.689
84724SOL     OW56003   7.396   0.437   8.814
84724SOL    HW156004   7.391   0.517   8.867
84724SOL    HW256005   7.340   0.455   8.738
84725SOL     OW56006   9.099  13.421   3.354
84725SOL    HW156007   9.086  13.500   3.302
84725SOL    HW256008   9.194  13.413   3.361
84726SOL     OW56009  11.837  13.365   7.531
84726SOL    HW156010  11.757  13.412   7.554
84726SOL    HW256011  11.907  13.414   7.575
84727SOL     OW56012  10.767   1.979   5.149
84727SOL    HW156013  10.860   2.000   5.164
84727SOL    HW256014  10.761   1.885   5.166
84728SOL     OW56015  10.877   7.938  13.266
84728SOL    HW156016  10.798   7.991  13.261
84728SOL    HW256017  10.889   7.904  13.177
84729SOL     OW56018  12.332   6.407   3.351
84729SOL    HW156019  12.404   6.469   3.341
84729SOL    HW256020  12.346   6.367   3.436
84730SOL     OW56021  10.110  10.835  10.502
84730SOL    HW156022  10.041  10.813  10.440
84730SOL    HW256023  10.084  10.920  10.539
84731SOL     OW56024   5.494   8.371  14.019
84731SOL    HW156025   5.418   8.351  14.073
84731SOL    HW256026   5.518   8.287  13.979
84732SOL     OW56027   2.057   2.826   7.774
84732SOL    HW156028   2.069   2.850   7.682
84732SOL    HW256029   2.111   2.748   7.785
84733SOL     OW56030  11.873  10.523  14.120
84733SOL    HW156031  11.940  10.580  14.080
84733SOL    HW256032  11.802  10.520  14.056
84734SOL     OW56033   2.888   5.762   7.949
84734SOL    HW156034   2.968   5.724   7.986
84734SOL    HW256035   2.919   5.827   7.886
84735SOL     OW56036  13.442   3.592   8.219
84735SOL    HW156037  13.374   3.589   8.287
84735SOL    HW256038  13.492   3.671   8.239
84736SOL     OW56039   5.629   5.396  13.603
84736SOL    HW156040   5.652   5.311  13.642
84736SOL    HW256041   5.697   5.456  13.633
84737SOL     OW56042   0.307  12.400   3.205
84737SOL    HW156043   0.396  12.399   3.240
84737SOL    HW256044   0.280  12.308   3.204
84738SOL     OW56045  10.528  10.480  12.017
84738SOL    HW156046  10.549  10.398  12.062
84738SOL    HW256047  10.510  10.542  12.087
84739SOL     OW56048   1.114   5.187   6.334
84739SOL    HW156049   1.094   5.277   6.359
84739SOL    HW256050   1.066   5.134   6.397
84740SOL     OW56051  12.934  12.264   6.906
84740SOL    HW156052  13.028  12.271   6.896
84740SOL    HW256053  12.921  12.190   6.966
84741SOL     OW56054  10.165  13.618   3.835
84741SOL    HW156055  10.216  13.662   3.767
84741SOL    HW256056  10.231  13.588   3.898
84742SOL     OW56057  11.595   7.433   4.754
84742SOL    HW156058  11.608   7.401   4.843
84742SOL    HW256059  11.550   7.363   4.708
84743SOL     OW56060  13.648   6.799  11.056
84743SOL    HW156061  13.662   6.728  10.993
84743SOL    HW256062  13.662   6.879  11.007
84744SOL     OW56063   3.648   8.572  13.542
84744SOL    HW156064   3.554   8.562  13.560
84744SOL    HW256065   3.674   8.647  13.596
84745SOL     OW56066   9.840  12.053  10.596
84745SOL    HW156067   9.819  11.960  10.606
84745SOL    HW256068   9.847  12.066  10.502
84746SOL     OW56069   9.596   9.416  12.782
84746SOL    HW156070   9.640   9.501  12.779
84746SOL    HW256071   9.508   9.436  12.811
84747SOL     OW56072  13.406  11.502  14.745
84747SOL    HW156073  13.435  11.423  14.792
84747SOL    HW256074  13.462  11.572  14.780
84748SOL     OW56075  13.277  10.678   6.456
84748SOL    HW156076  13.357  10.720   6.489
84748SOL    HW256077  13.245  10.626   6.529
84749SOL     OW56078   6.657  13.585  12.886
84749SOL    HW156079   6.636  13.492  12.898
84749SOL    HW256080   6.747  13.584  12.854
84750SOL     OW56081  11.639   1.661  10.708
84750SOL    HW156082  11.652   1.751  10.678
84750SOL    HW256083  11.621   1.611  10.628
84751SOL     OW56084   7.311  13.057   0.440
84751SOL    HW156085   7.385  13.091   0.390
84751SOL    HW256086   7.237  13.063   0.380
84752SOL     OW56087   0.761  11.413   8.951
84752SOL    HW156088   0.716  11.433   8.869
84752SOL    HW256089   0.839  11.469   8.949
84753SOL     OW56090  12.453   8.996  10.767
84753SOL    HW156091  12.474   8.960  10.681
84753SOL    HW256092  12.483   9.087  10.763
84754SOL     OW56093   0.927   4.063   9.449
84754SOL    HW156094   0.919   3.991   9.387
84754SOL    HW256095   0.939   4.141   9.394
84755SOL     OW56096   7.512  14.388  12.245
84755SOL    HW156097   7.417  14.389  12.251
84755SOL    HW256098   7.539  14.475  12.275
84756SOL     OW56099   2.585   6.414   9.617
84756SOL    HW156100   2.517   6.428   9.551
84756SOL    HW256101   2.592   6.497   9.663
84757SOL     OW56102   9.603   4.487   3.223
84757SOL    HW156103   9.543   4.525   3.287
84757SOL    HW256104   9.587   4.537   3.143
84758SOL     OW56105   8.190   2.100   6.746
84758SOL    HW156106   8.206   2.146   6.828
84758SOL    HW256107   8.229   2.014   6.758
84759SOL     OW56108   0.714   1.617  12.653
84759SOL    HW156109   0.676   1.699  12.685
84759SOL    HW256110   0.750   1.639  12.567
84760SOL     OW56111   3.430   9.023   1.814
84760SOL    HW156112   3.359   9.038   1.877
84760SOL    HW256113   3.468   9.110   1.800
84761SOL     OW56114  10.040   0.138   2.252
84761SOL    HW156115   9.967   0.102   2.303
84761SOL    HW256116  10.036   0.232   2.268
84762SOL     OW56117  10.223  14.261  10.425
84762SOL    HW156118  10.131  14.278  10.445
84762SOL    HW256119  10.271  14.329  10.473
84763SOL     OW56120   2.858   8.194  13.134
84763SOL    HW156121   2.891   8.116  13.178
84763SOL    HW256122   2.822   8.161  13.051
84764SOL     OW56123   1.823  10.409   0.960
84764SOL    HW156124   1.801  10.459   1.038
84764SOL    HW256125   1.902  10.361   0.983
84765SOL     OW56126   1.337   3.198   1.408
84765SOL    HW156127   1.375   3.135   1.346
84765SOL    HW256128   1.403   3.267   1.416
84766SOL     OW56129   1.786   4.972  11.706
84766SOL    HW156130   1.856   4.912  11.678
84766SOL    HW256131   1.807   4.992  11.797
84767SOL     OW56132   7.344   3.078   6.333
84767SOL    HW156133   7.426   3.071   6.284
84767SOL    HW256134   7.313   2.988   6.342
84768SOL     OW56135   5.180   8.582   4.791
84768SOL    HW156136   5.179   8.498   4.836
84768SOL    HW256137   5.191   8.561   4.699
84769SOL     OW56138  10.863   7.979  14.713
84769SOL    HW156139  10.862   8.035  14.636
84769SOL    HW256140  10.778   7.934  14.712
84770SOL     OW56141   0.944   8.576   1.917
84770SOL    HW156142   0.988   8.625   1.847
84770SOL    HW256143   0.898   8.643   1.967
84771SOL     OW56144  10.861   7.649   3.651
84771SOL    HW156145  10.846   7.636   3.745
84771SOL    HW256146  10.817   7.732   3.632
84772SOL     OW56147  10.019  12.893   0.199
84772SOL    HW156148  10.091  12.944   0.236
84772SOL    HW256149  10.055  12.805   0.188
84773SOL     OW56150   0.060   5.254   7.057
84773SOL    HW156151   0.141   5.278   7.103
84773SOL    HW256152   0.025   5.337   7.025
84774SOL     OW56153   7.653   2.763   5.255
84774SOL    HW156154   7.569   2.729   5.223
84774SOL    HW256155   7.667   2.843   5.203
84775SOL     OW56156  11.005   1.425   7.848
84775SOL    HW156157  11.084   1.469   7.819
84775SOL    HW256158  11.037   1.353   7.904
84776SOL     OW56159  13.874   8.485   7.585
84776SOL    HW156160  13.795   8.486   7.638
84776SOL    HW256161  13.845   8.454   7.499
84777SOL     OW56162   6.051  12.593  14.477
84777SOL    HW156163   6.044  12.553  14.391
84777SOL    HW256164   5.991  12.543  14.532
84778SOL     OW56165  10.245  11.592   1.722
84778SOL    HW156166  10.170  11.535   1.710
84778SOL    HW256167  10.223  11.645   1.799
84779SOL     OW56168   3.773  12.614   3.477
84779SOL    HW156169   3.809  12.662   3.402
84779SOL    HW256170   3.679  12.614   3.461
84780SOL     OW56171  11.597  13.177   0.173
84780SOL    HW156172  11.527  13.206   0.114
84780SOL    HW256173  11.630  13.096   0.134
84781SOL     OW56174   1.829  11.199   4.093
84781SOL    HW156175   1.891  11.192   4.165
84781SOL    HW256176   1.869  11.149   4.022
84782SOL     OW56177   8.309  12.446   5.258
84782SOL    HW156178   8.216  12.437   5.239
84782SOL    HW256179   8.352  12.425   5.175
84783SOL     OW56180   7.086   8.635   9.368
84783SOL    HW156181   7.112   8.725   9.389
84783SOL    HW256182   7.109   8.624   9.275
84784SOL     OW56183  10.488  11.388  10.609
84784SOL    HW156184  10.476  11.327  10.681
84784SOL    HW256185  10.442  11.347  10.535
84785SOL     OW56186  12.504  12.342   1.604
84785SOL    HW156187  12.433  12.287   1.639
84785SOL    HW256188  12.563  12.355   1.679
84786SOL     OW56189   7.567   6.433   7.301
84786SOL    HW156190   7.633   6.502   7.312
84786SOL    HW256191   7.483   6.479   7.307
84787SOL     OW56192   1.890   1.349   4.033
84787SOL    HW156193   1.800   1.323   4.053
84787SOL    HW256194   1.941   1.317   4.107
84788SOL     OW56195   7.367   4.045   2.850
84788SOL    HW156196   7.348   4.127   2.896
84788SOL    HW256197   7.308   3.981   2.890
84789SOL     OW56198   1.334  13.811   0.922
84789SOL    HW156199   1.381  13.798   0.841
84789SOL    HW256200   1.401  13.833   0.986
84790SOL     OW56201   8.782   6.208  11.231
84790SOL    HW156202   8.719   6.162  11.175
84790SOL    HW256203   8.863   6.209  11.181
84791SOL     OW56204   7.323  11.760  12.832
84791SOL    HW156205   7.290  11.702  12.763
84791SOL    HW256206   7.247  11.814  12.855
84792SOL     OW56207   0.044  13.472   9.304
84792SOL    HW156208   0.084  13.407   9.361
84792SOL    HW256209   0.071  13.447   9.216
84793SOL     OW56210  10.117   3.366   9.448
84793SOL    HW156211  10.121   3.431   9.518
84793SOL    HW256212  10.082   3.287   9.490
84794SOL     OW56213   5.489   4.208   4.159
84794SOL    HW156214   5.443   4.125   4.159
84794SOL    HW256215   5.449   4.258   4.087
84795SOL     OW56216   6.611   4.659   1.917
84795SOL    HW156217   6.602   4.630   1.826
84795SOL    HW256218   6.522   4.682   1.943
84796SOL     OW56219   3.286  11.747   4.284
84796SOL    HW156220   3.248  11.834   4.299
84796SOL    HW256221   3.361  11.764   4.226
84797SOL     OW56222   8.472  12.637   9.909
84797SOL    HW156223   8.563  12.632   9.939
84797SOL    HW256224   8.427  12.567   9.957
84798SOL     OW56225   8.998   3.712   0.920
84798SOL    HW156226   8.944   3.666   0.985
84798SOL    HW256227   9.040   3.783   0.969
84799SOL     OW56228  13.188   7.563   5.274
84799SOL    HW156229  13.175   7.658   5.269
84799SOL    HW256230  13.282   7.553   5.291
84800SOL     OW56231   1.302  11.503   1.086
84800SOL    HW156232   1.348  11.422   1.109
84800SOL    HW256233   1.212  11.488   1.117
84801SOL     OW56234  11.188  10.703   6.197
84801SOL    HW156235  11.148  10.785   6.227
84801SOL    HW256236  11.282  10.720   6.197
84802SOL     OW56237   4.761  12.623   6.004
84802SOL    HW156238   4.845  12.605   5.962
84802SOL    HW256239   4.736  12.540   6.045
84803SOL     OW56240   4.822   9.054   1.488
84803SOL    HW156241   4.763   9.032   1.561
84803SOL    HW256242   4.765   9.093   1.422
84804SOL     OW56243   6.090   8.760   4.984
84804SOL    HW156244   6.171   8.785   5.029
84804SOL    HW256245   6.119   8.716   4.904
84805SOL     OW56246  11.017   9.218   9.629
84805SOL    HW156247  10.935   9.244   9.589
84805SOL    HW256248  11.083   9.234   9.561
84806SOL     OW56249   4.894  10.230   0.623
84806SOL    HW156250   4.984  10.261   0.611
84806SOL    HW256251   4.842  10.282   0.562
84807SOL     OW56252   5.669  12.798   2.105
84807SOL    HW156253   5.629  12.791   2.018
84807SOL    HW256254   5.622  12.870   2.147
84808SOL     OW56255  10.679  13.588   9.158
84808SOL    HW156256  10.747  13.648   9.127
84808SOL    HW256257  10.621  13.576   9.083
84809SOL     OW56258   9.360   7.752   2.386
84809SOL    HW156259   9.371   7.804   2.306
84809SOL    HW256260   9.425   7.682   2.378
84810SOL     OW56261   3.569  12.215  13.879
84810SOL    HW156262   3.580  12.279  13.949
84810SOL    HW256263   3.522  12.262  13.810
84811SOL     OW56264  14.165  10.338  12.461
84811SOL    HW156265  14.195  10.333  12.552
84811SOL    HW256266  14.069  10.339  12.468
84812SOL     OW56267   5.123  13.934   4.816
84812SOL    HW156268   5.040  13.888   4.813
84812SOL    HW256269   5.182  13.882   4.761
84813SOL     OW56270  10.253   9.997   5.592
84813SOL    HW156271  10.172   9.999   5.643
84813SOL    HW256272  10.251   9.913   5.546
84814SOL     OW56273  14.515   5.244  11.947
84814SOL    HW156274  14.440   5.251  12.007
84814SOL    HW256275  14.481   5.275  11.863
84815SOL     OW56276  14.790   1.776   8.396
84815SOL    HW156277   0.012   1.757   8.401
84815SOL    HW256278  14.785   1.870   8.379
84816SOL     OW56279  11.162   8.230   0.507
84816SOL    HW156280  11.135   8.236   0.416
84816SOL    HW256281  11.234   8.166   0.506
84817SOL     OW56282  13.930   2.823   7.335
84817SOL    HW156283  13.840   2.800   7.358
84817SOL    HW256284  13.924   2.855   7.245
84818SOL     OW56285   9.604   3.860  12.554
84818SOL    HW156286   9.572   3.901  12.474
84818SOL    HW256287   9.687   3.904  12.573
84819SOL     OW56288   3.990   6.076   9.164
84819SOL    HW156289   3.967   6.038   9.249
84819SOL    HW256290   3.939   6.025   9.101
84820SOL     OW56291   3.937  13.476   1.493
84820SOL    HW156292   3.922  13.387   1.525
84820SOL    HW256293   3.959  13.527   1.571
84821SOL     OW56294   7.586  12.295   8.318
84821SOL    HW156295   7.542  12.378   8.304
84821SOL    HW256296   7.671  12.304   8.276
84822SOL     OW56297   5.028  13.691   6.629
84822SOL    HW156298   4.969  13.622   6.596
84822SOL    HW256299   4.978  13.772   6.618
84823SOL     OW56300   9.998   5.167   4.034
84823SOL    HW156301  10.046   5.118   4.100
84823SOL    HW256302  10.021   5.125   3.951
84824SOL     OW56303   3.882   0.317   8.325
84824SOL    HW156304   3.880   0.263   8.245
84824SOL    HW256305   3.873   0.254   8.396
84825SOL     OW56306   3.754   9.969  10.540
84825SOL    HW156307   3.712  10.016  10.468
84825SOL    HW256308   3.721  10.010  10.619
84826SOL     OW56309   3.874   2.765   9.021
84826SOL    HW156310   3.929   2.795   8.949
84826SOL    HW256311   3.891   2.828   9.092
84827SOL     OW56312   8.105   3.357  14.586
84827SOL    HW156313   8.070   3.390  14.669
84827SOL    HW256314   8.035   3.302  14.551
84828SOL     OW56315  12.879   3.947  14.768
84828SOL    HW156316  12.850   3.893  14.695
84828SOL    HW256317  12.929   3.887  14.824
84829SOL     OW56318   7.233  10.460   0.188
84829SOL    HW156319   7.255  10.461   0.281
84829SOL    HW256320   7.192  10.544   0.172
84830SOL     OW56321  11.526   7.526  13.866
84830SOL    HW156322  11.432   7.542  13.866
84830SOL    HW256323  11.562   7.594  13.922
84831SOL     OW56324   3.467   4.140   0.319
84831SOL    HW156325   3.555   4.124   0.354
84831SOL    HW256326   3.424   4.194   0.385
84832SOL     OW56327   0.772   3.880  11.750
84832SOL    HW156328   0.750   3.968  11.780
84832SOL    HW256329   0.862   3.888  11.717
84833SOL     OW56330   3.120   4.789  10.475
84833SOL    HW156331   3.027   4.797  10.497
84833SOL    HW256332   3.164   4.848  10.535
84834SOL     OW56333  13.835  14.820  13.268
84834SOL    HW156334  13.795   0.028  13.302
84834SOL    HW256335  13.794  14.750  13.318
84835SOL     OW56336  13.594   3.276   9.753
84835SOL    HW156337  13.646   3.196   9.758
84835SOL    HW256338  13.529   3.259   9.685
84836SOL     OW56339   7.956   1.949   1.779
84836SOL    HW156340   7.930   2.001   1.703
84836SOL    HW256341   8.051   1.959   1.783
84837SOL     OW56342  13.977   9.484   5.737
84837SOL    HW156343  13.888   9.451   5.725
84837SOL    HW256344  14.024   9.454   5.659
84838SOL     OW56345  10.385   5.773   3.567
84838SOL    HW156346  10.298   5.801   3.598
84838SOL    HW256347  10.413   5.845   3.510
84839SOL     OW56348   8.919  11.857   2.456
84839SOL    HW156349   8.922  11.762   2.467
84839SOL    HW256350   8.964  11.873   2.373
84840SOL     OW56351   1.425   5.677   5.444
84840SOL    HW156352   1.363   5.644   5.509
84840SOL    HW256353   1.493   5.721   5.494
84841SOL     OW56354  13.906  11.737   9.193
84841SOL    HW156355  13.977  11.801   9.190
84841SOL    HW256356  13.900  11.704   9.103
84842SOL     OW56357  11.710   9.032   2.000
84842SOL    HW156358  11.715   8.947   1.957
84842SOL    HW256359  11.616   9.048   2.011
84843SOL     OW56360   7.387   0.643   3.823
84843SOL    HW156361   7.480   0.664   3.823
84843SOL    HW256362   7.350   0.695   3.751
84844SOL     OW56363   5.844   9.736   2.337
84844SOL    HW156364   5.905   9.803   2.306
84844SOL    HW256365   5.898   9.660   2.357
84845SOL     OW56366  14.702   9.364   5.909
84845SOL    HW156367  14.778   9.406   5.869
84845SOL    HW256368  14.656   9.322   5.837
84846SOL     OW56369   5.970   5.483  11.742
84846SOL    HW156370   5.922   5.428  11.680
84846SOL    HW256371   6.057   5.491  11.704
84847SOL     OW56372   0.838  14.741  14.201
84847SOL    HW156373   0.817  14.691  14.280
84847SOL    HW256374   0.756  14.784  14.177
84848SOL     OW56375   7.070  11.333  12.486
84848SOL    HW156376   6.979  11.325  12.515
84848SOL    HW256377   7.122  11.314  12.564
84849SOL     OW56378   5.472  12.572  13.141
84849SOL    HW156379   5.453  12.662  13.169
84849SOL    HW256380   5.466  12.575  13.045
84850SOL     OW56381   7.381   2.573   3.248
84850SOL    HW156382   7.466   2.602   3.281
84850SOL    HW256383   7.356   2.640   3.184
84851SOL     OW56384   6.446   8.634   4.506
84851SOL    HW156385   6.425   8.699   4.574
84851SOL    HW256386   6.362   8.594   4.484
84852SOL     OW56387  13.132   5.869  11.973
84852SOL    HW156388  13.176   5.853  11.889
84852SOL    HW256389  13.045   5.900  11.948
84853SOL     OW56390   0.118   7.322  10.161
84853SOL    HW156391   0.177   7.266  10.211
84853SOL    HW256392   0.171   7.398  10.138
84854SOL     OW56393   0.592  13.567   3.641
84854SOL    HW156394   0.662  13.510   3.607
84854SOL    HW256395   0.525  13.506   3.672
84855SOL     OW56396  12.276   7.798   4.518
84855SOL    HW156397  12.223   7.807   4.597
84855SOL    HW256398  12.227   7.844   4.450
84856SOL     OW56399  14.678   4.884  11.778
84856SOL    HW156400  14.609   4.831  11.737
84856SOL    HW256401  14.636   4.924  11.854
84857SOL     OW56402  13.176   8.867  10.688
84857SOL    HW156403  13.101   8.903  10.640
84857SOL    HW256404  13.248   8.927  10.669
84858SOL     OW56405   3.731   1.848   0.585
84858SOL    HW156406   3.823   1.833   0.608
84858SOL    HW256407   3.732   1.934   0.543
84859SOL     OW56408   3.368   3.660   4.960
84859SOL    HW156409   3.351   3.753   4.980
84859SOL    HW256410   3.288   3.615   4.987
84860SOL     OW56411  13.303   6.829   1.169
84860SOL    HW156412  13.346   6.751   1.203
84860SOL    HW256413  13.254   6.799   1.093
84861SOL     OW56414  14.729   2.550  14.738
84861SOL    HW156415  14.803   2.544  14.799
84861SOL    HW256416  14.654   2.569  14.793
84862SOL     OW56417   6.573   9.205   0.031
84862SOL    HW156418   6.609   9.122   0.063
84862SOL    HW256419   6.647   9.248  14.860
84863SOL     OW56420   2.741   2.568  11.508
84863SOL    HW156421   2.730   2.493  11.566
84863SOL    HW256422   2.833   2.593  11.517
84864SOL     OW56423  10.687  10.638   4.587
84864SOL    HW156424  10.715  10.724   4.557
84864SOL    HW256425  10.659  10.652   4.678
84865SOL     OW56426   1.542  14.192   5.449
84865SOL    HW156427   1.593  14.192   5.530
84865SOL    HW256428   1.593  14.245   5.388
84866SOL     OW56429   2.345   0.096  10.257
84866SOL    HW156430   2.262   0.126  10.292
84866SOL    HW256431   2.329   0.004  10.234
84867SOL     OW56432   5.718   6.757   1.313
84867SOL    HW156433   5.710   6.720   1.225
84867SOL    HW256434   5.744   6.848   1.298
84868SOL     OW56435   5.586   2.339   5.059
84868SOL    HW156436   5.666   2.391   5.055
84868SOL    HW256437   5.524   2.394   5.108
84869SOL     OW56438  11.538   5.363   2.721
84869SOL    HW156439  11.588   5.285   2.696
84869SOL    HW256440  11.465   5.365   2.660
84870SOL     OW56441   8.873   3.472  13.315
84870SOL    HW156442   8.802   3.492  13.376
84870SOL    HW256443   8.829   3.459  13.231
84871SOL     OW56444   5.330   9.582   8.300
84871SOL    HW156445   5.244   9.560   8.263
84871SOL    HW256446   5.361   9.500   8.339
84872SOL     OW56447  11.512   4.151  10.382
84872SOL    HW156448  11.607   4.153  10.366
84872SOL    HW256449  11.486   4.062  10.360
84873SOL     OW56450   4.725   4.119  11.677
84873SOL    HW156451   4.638   4.159  11.667
84873SOL    HW256452   4.772   4.146  11.598
84874SOL     OW56453   8.102  14.801   4.237
84874SOL    HW156454   8.138  14.831   4.320
84874SOL    HW256455   8.052   0.003   4.204
84875SOL     OW56456  13.063   2.574   8.807
84875SOL    HW156457  13.032   2.646   8.751
84875SOL    HW256458  12.992   2.510   8.805
84876SOL     OW56459   2.841   9.855  11.095
84876SOL    HW156460   2.890   9.797  11.036
84876SOL    HW256461   2.755   9.813  11.104
84877SOL     OW56462   1.485  12.955  14.421
84877SOL    HW156463   1.530  13.040  14.410
84877SOL    HW256464   1.537  12.894  14.369
84878SOL     OW56465   4.065   8.217   5.561
84878SOL    HW156466   4.113   8.300   5.565
84878SOL    HW256467   4.043   8.206   5.468
84879SOL     OW56468   8.155  10.778   1.122
84879SOL    HW156469   8.073  10.823   1.145
84879SOL    HW256470   8.212  10.793   1.198
84880SOL     OW56471  14.689   6.938   3.685
84880SOL    HW156472  14.649   6.933   3.772
84880SOL    HW256473  14.624   6.899   3.627
84881SOL     OW56474  11.982   3.346  14.000
84881SOL    HW156475  11.951   3.297  14.076
84881SOL    HW256476  11.902   3.374  13.955
84882SOL     OW56477   2.564  13.348   2.792
84882SOL    HW156478   2.584  13.355   2.885
84882SOL    HW256479   2.546  13.438   2.764
84883SOL     OW56480  10.128   4.415   8.809
84883SOL    HW156481  10.123   4.379   8.720
84883SOL    HW256482  10.077   4.496   8.804
84884SOL     OW56483   4.746   0.376   4.364
84884SOL    HW156484   4.693   0.455   4.375
84884SOL    HW256485   4.683   0.308   4.339
84885SOL     OW56486   7.704   6.171  14.854
84885SOL    HW156487   7.703   6.086  14.810
84885SOL    HW256488   7.740   6.154   0.068
84886SOL     OW56489   7.281   1.500  13.742
84886SOL    HW156490   7.320   1.421  13.779
84886SOL    HW256491   7.239   1.471  13.661
84887SOL     OW56492   4.182  14.597   3.291
84887SOL    HW156493   4.131  14.521   3.322
84887SOL    HW256494   4.165  14.601   3.197
84888SOL     OW56495   7.265   2.165   8.634
84888SOL    HW156496   7.185   2.136   8.679
84888SOL    HW256497   7.255   2.259   8.625
84889SOL     OW56498   8.689   8.102  12.976
84889SOL    HW156499   8.751   8.030  12.964
84889SOL    HW256500   8.719   8.148  13.054
84890SOL     OW56501  14.660   1.731   1.336
84890SOL    HW156502  14.657   1.636   1.330
84890SOL    HW256503  14.604   1.753   1.410
84891SOL     OW56504  10.049   5.602   7.735
84891SOL    HW156505  10.011   5.637   7.815
84891SOL    HW256506  10.143   5.605   7.749
84892SOL     OW56507   3.457  14.413  10.669
84892SOL    HW156508   3.416  14.400  10.754
84892SOL    HW256509   3.418  14.347  10.613
84893SOL     OW56510   9.506  12.446   9.722
84893SOL    HW156511   9.434  12.508   9.735
84893SOL    HW256512   9.584  12.501   9.716
84894SOL     OW56513  12.510   7.068  14.460
84894SOL    HW156514  12.570   7.120  14.407
84894SOL    HW256515  12.430   7.061  14.407
84895SOL     OW56516  13.335  12.726   3.175
84895SOL    HW156517  13.394  12.763   3.110
84895SOL    HW256518  13.362  12.634   3.180
84896SOL     OW56519   6.265   9.976  11.738
84896SOL    HW156520   6.181   9.993  11.781
84896SOL    HW256521   6.319  10.051  11.761
84897SOL     OW56522  13.701   9.430  14.585
84897SOL    HW156523  13.759   9.490  14.538
84897SOL    HW256524  13.648   9.390  14.516
84898SOL     OW56525   4.863   0.793   9.513
84898SOL    HW156526   4.790   0.732   9.500
84898SOL    HW256527   4.824   0.869   9.557
84899SOL     OW56528   6.704  10.141  10.733
84899SOL    HW156529   6.636  10.083  10.766
84899SOL    HW256530   6.689  10.143  10.638
84900SOL     OW56531   4.901   3.973  11.173
84900SOL    HW156532   4.993   3.955  11.154
84900SOL    HW256533   4.853   3.941  11.097
84901SOL     OW56534   0.273  12.063  13.180
84901SOL    HW156535   0.269  11.981  13.131
84901SOL    HW256536   0.354  12.105  13.152
84902SOL     OW56537  11.845   3.453  12.410
84902SOL    HW156538  11.865   3.529  12.464
84902SOL    HW256539  11.878   3.379  12.460
84903SOL     OW56540  13.899   5.344  13.391
84903SOL    HW156541  13.806   5.324  13.401
84903SOL    HW256542  13.918   5.408  13.459
84904SOL     OW56543  11.103  14.375   9.455
84904SOL    HW156544  11.140  14.318   9.522
84904SOL    HW256545  11.077  14.454   9.503
84905SOL     OW56546   4.659  14.568   7.697
84905SOL    HW156547   4.618  14.530   7.620
84905SOL    HW256548   4.751  14.545   7.689
84906SOL     OW56549   4.633   4.121   4.110
84906SOL    HW156550   4.539   4.137   4.111
84906SOL    HW256551   4.647   4.056   4.179
84907SOL     OW56552  13.459   6.154   8.976
84907SOL    HW156553  13.430   6.116   8.892
84907SOL    HW256554  13.453   6.248   8.962
84908SOL     OW56555   2.551  10.765  14.316
84908SOL    HW156556   2.473  10.728  14.275
84908SOL    HW256557   2.608  10.789  14.243
84909SOL     OW56558   1.993  12.787   0.858
84909SOL    HW156559   1.909  12.760   0.821
84909SOL    HW256560   1.975  12.798   0.952
84910SOL     OW56561   8.349  13.323   9.699
84910SOL    HW156562   8.282  13.257   9.678
84910SOL    HW256563   8.412  13.277   9.754
84911SOL     OW56564   5.730   4.748   7.073
84911SOL    HW156565   5.722   4.843   7.063
84911SOL    HW256566   5.646   4.714   7.042
84912SOL     OW56567   4.264  11.020   5.033
84912SOL    HW156568   4.280  11.087   5.099
84912SOL    HW256569   4.311  10.943   5.066
84913SOL     OW56570   4.848   4.243   0.006
84913SOL    HW156571   4.842   4.161   0.056
84913SOL    HW256572   4.909   4.223  14.808
84914SOL     OW56573   5.604   5.503  11.401
84914SOL    HW156574   5.526   5.464  11.363
84914SOL    HW256575   5.577   5.591  11.426
84915SOL     OW56576   2.357   2.058   8.444
84915SOL    HW156577   2.410   2.059   8.524
84915SOL    HW256578   2.296   1.986   8.457
84916SOL     OW56579   6.882  14.314   0.781
84916SOL    HW156580   6.965  14.269   0.794
84916SOL    HW256581   6.856  14.344   0.868
84917SOL     OW56582   6.536   8.232   4.853
84917SOL    HW156583   6.599   8.285   4.803
84917SOL    HW256584   6.521   8.283   4.933
84918SOL     OW56585   3.264  11.436   2.985
84918SOL    HW156586   3.243  11.355   3.031
84918SOL    HW256587   3.354  11.455   3.011
84919SOL     OW56588   0.823   7.682   9.414
84919SOL    HW156589   0.847   7.750   9.351
84919SOL    HW256590   0.728   7.679   9.410
84920SOL     OW56591   9.428   3.027   5.347
84920SOL    HW156592   9.455   3.048   5.258
84920SOL    HW256593   9.336   2.999   5.338
84921SOL     OW56594  13.752  12.272  13.332
84921SOL    HW156595  13.799  12.326  13.269
84921SOL    HW256596  13.694  12.218  13.279
84922SOL     OW56597   2.313  13.681   0.056
84922SOL    HW156598   2.406  13.690   0.076
84922SOL    HW256599   2.269  13.743   0.115
84923SOL     OW56600  11.580  10.056   7.656
84923SOL    HW156601  11.647   9.987   7.652
84923SOL    HW256602  11.604  10.108   7.733
84924SOL     OW56603   1.391   0.307   4.228
84924SOL    HW156604   1.328   0.245   4.190
84924SOL    HW256605   1.337   0.367   4.280
84925SOL     OW56606   4.096   5.722   8.765
84925SOL    HW156607   4.010   5.764   8.757
84925SOL    HW256608   4.083   5.651   8.828
84926SOL     OW56609   7.824   0.741  10.288
84926SOL    HW156610   7.880   0.775  10.219
84926SOL    HW256611   7.746   0.796  10.286
84927SOL     OW56612   7.659   7.785  14.242
84927SOL    HW156613   7.724   7.848  14.276
84927SOL    HW256614   7.575   7.829  14.255
84928SOL     OW56615   6.218   3.161   4.034
84928SOL    HW156616   6.167   3.209   4.098
84928SOL    HW256617   6.194   3.069   4.048
84929SOL     OW56618   0.255  13.584  12.509
84929SOL    HW156619   0.328  13.645  12.497
84929SOL    HW256620   0.297  13.499  12.523
84930SOL     OW56621   5.830   3.559   3.395
84930SOL    HW156622   5.908   3.612   3.412
84930SOL    HW256623   5.802   3.529   3.482
84931SOL     OW56624   6.790   8.198   6.019
84931SOL    HW156625   6.815   8.238   6.102
84931SOL    HW256626   6.870   8.198   5.966
84932SOL     OW56627   9.341  10.743   2.650
84932SOL    HW156628   9.411  10.681   2.671
84932SOL    HW256629   9.347  10.756   2.556
84933SOL     OW56630   9.073  11.772   7.351
84933SOL    HW156631   9.044  11.706   7.287
84933SOL    HW256632   9.132  11.829   7.302
84934SOL     OW56633   2.370  12.181  11.555
84934SOL    HW156634   2.298  12.159  11.496
84934SOL    HW256635   2.376  12.106  11.614
84935SOL     OW56636  12.915   4.560   1.943
84935SOL    HW156637  12.868   4.595   2.018
84935SOL    HW256638  12.944   4.637   1.894
84936SOL     OW56639   4.252  10.517   7.567
84936SOL    HW156640   4.331  10.463   7.567
84936SOL    HW256641   4.280  10.601   7.603
84937SOL     OW56642   8.573   5.297   1.499
84937SOL    HW156643   8.561   5.310   1.405
84937SOL    HW256644   8.484   5.293   1.534
84938SOL     OW56645  10.971  10.380  10.561
84938SOL    HW156646  11.041  10.428  10.604
84938SOL    HW256647  10.917  10.448  10.519
84939SOL     OW56648   1.989  12.108   0.065
84939SOL    HW156649   2.060  12.160   0.100
84939SOL    HW256650   2.024  12.071  14.856
84940SOL     OW56651   0.278  14.689   5.181
84940SOL    HW156652   0.363  14.675   5.224
84940SOL    HW256653   0.220  14.717   5.252
84941SOL     OW56654  13.530   9.196  10.214
84941SOL    HW156655  13.618   9.201  10.251
84941SOL    HW256656  13.527   9.111  10.170
84942SOL     OW56657   0.040   4.963   2.406
84942SOL    HW156658   0.121   4.916   2.422
84942SOL    HW256659  14.866   4.911   2.340
84943SOL     OW56660   3.322   7.638  14.848
84943SOL    HW156661   3.344   7.563   0.032
84943SOL    HW256662   3.294   7.597  14.765
84944SOL     OW56663   2.867   3.061   4.097
84944SOL    HW156664   2.948   3.090   4.054
84944SOL    HW256665   2.837   3.139   4.145
84945SOL     OW56666   1.201   9.503   8.319
84945SOL    HW156667   1.165   9.424   8.278
84945SOL    HW256668   1.126   9.542   8.364
84946SOL     OW56669   7.125  14.377   8.299
84946SOL    HW156670   7.119  14.364   8.204
84946SOL    HW256671   7.218  14.361   8.318
84947SOL     OW56672   3.374   7.579  11.329
84947SOL    HW156673   3.286   7.542  11.321
84947SOL    HW256674   3.425   7.537  11.259
84948SOL     OW56675   7.349   7.848  14.534
84948SOL    HW156676   7.290   7.902  14.481
84948SOL    HW256677   7.430   7.898  14.538
84949SOL     OW56678   1.275   2.024   0.280
84949SOL    HW156679   1.225   2.054   0.205
84949SOL    HW256680   1.361   2.066   0.271
84950SOL     OW56681   7.697   4.767  13.617
84950SOL    HW156682   7.632   4.829  13.649
84950SOL    HW256683   7.655   4.681  13.624
84951SOL     OW56684  10.076  11.543   3.783
84951SOL    HW156685  10.136  11.617   3.775
84951SOL    HW256686  10.038  11.534   3.695
84952SOL     OW56687  11.504   9.719  12.880
84952SOL    HW156688  11.463   9.633  12.877
84952SOL    HW256689  11.580   9.712  12.822
84953SOL     OW56690   6.770  11.591   6.964
84953SOL    HW156691   6.770  11.665   7.025
84953SOL    HW256692   6.853  11.546   6.981
84954SOL     OW56693   4.753  12.908   3.815
84954SOL    HW156694   4.739  12.853   3.892
84954SOL    HW256695   4.777  12.846   3.746
84955SOL     OW56696   1.677   9.584  12.093
84955SOL    HW156697   1.761   9.596  12.138
84955SOL    HW256698   1.619   9.547  12.160
84956SOL     OW56699   5.121   0.422   4.262
84956SOL    HW156700   5.117   0.507   4.217
84956SOL    HW256701   5.106   0.443   4.354
84957SOL     OW56702   4.039   0.012  10.085
84957SOL    HW156703   4.015   0.098  10.051
84957SOL    HW256704   4.133   0.005  10.070
84958SOL     OW56705   7.906   4.865  14.816
84958SOL    HW156706   7.868   4.868  14.728
84958SOL    HW256707   7.843   4.913  14.871
84959SOL     OW56708  11.943   7.441  12.987
84959SOL    HW156709  12.006   7.370  12.978
84959SOL    HW256710  11.950   7.490  12.904
84960SOL     OW56711   4.046   2.320   9.531
84960SOL    HW156712   3.975   2.297   9.592
84960SOL    HW256713   4.015   2.288   9.446
84961SOL     OW56714   4.152  12.968   5.818
84961SOL    HW156715   4.147  12.884   5.772
84961SOL    HW256716   4.071  12.970   5.871
84962SOL     OW56717  10.227   6.862  10.001
84962SOL    HW156718  10.257   6.790   9.946
84962SOL    HW256719  10.276   6.938   9.970
84963SOL     OW56720   2.460  14.792  12.812
84963SOL    HW156721   2.398  14.864  12.822
84963SOL    HW256722   2.407  14.717  12.788
84964SOL     OW56723   3.227   5.647  13.940
84964SOL    HW156724   3.187   5.569  13.978
84964SOL    HW256725   3.293   5.614  13.880
84965SOL     OW56726  14.110   9.520   6.113
84965SOL    HW156727  14.037   9.519   6.175
84965SOL    HW256728  14.181   9.475   6.159
84966SOL     OW56729   0.347   6.330   5.025
84966SOL    HW156730   0.317   6.339   5.116
84966SOL    HW256731   0.271   6.296   4.979
84967SOL     OW56732  12.131  10.666   7.184
84967SOL    HW156733  12.129  10.629   7.096
84967SOL    HW256734  12.041  10.659   7.216
84968SOL     OW56735   2.541  14.073  14.669
84968SOL    HW156736   2.565  14.130  14.595
84968SOL    HW256737   2.541  13.985  14.632
84969SOL     OW56738   7.826   4.763  12.869
84969SOL    HW156739   7.901   4.709  12.847
84969SOL    HW256740   7.793   4.794  12.784
84970SOL     OW56741   0.549   2.597  13.367
84970SOL    HW156742   0.521   2.514  13.404
84970SOL    HW256743   0.532   2.662  13.436
84971SOL     OW56744   5.446   5.165   9.209
84971SOL    HW156745   5.515   5.157   9.143
84971SOL    HW256746   5.385   5.229   9.172
84972SOL     OW56747   3.465   0.479  14.202
84972SOL    HW156748   3.389   0.471  14.260
84972SOL    HW256749   3.430   0.463  14.115
84973SOL     OW56750  11.829   6.759   7.677
84973SOL    HW156751  11.791   6.841   7.708
84973SOL    HW256752  11.805   6.755   7.584
84974SOL     OW56753   1.614   6.855   0.993
84974SOL    HW156754   1.623   6.760   1.001
84974SOL    HW256755   1.635   6.874   0.901
84975SOL     OW56756   5.688   0.425  13.601
84975SOL    HW156757   5.668   0.519  13.596
84975SOL    HW256758   5.728   0.414  13.688
84976SOL     OW56759  10.322   3.949  10.928
84976SOL    HW156760  10.301   4.015  10.994
84976SOL    HW256761  10.272   3.976  10.850
84977SOL     OW56762   7.117   4.217   8.953
84977SOL    HW156763   7.139   4.258   8.870
84977SOL    HW256764   7.145   4.126   8.943
84978SOL     OW56765   7.733   2.983   8.400
84978SOL    HW156766   7.800   2.953   8.462
84978SOL    HW256767   7.751   2.933   8.320
84979SOL     OW56768   0.044  10.531   4.229
84979SOL    HW156769   0.002  10.445   4.234
84979SOL    HW256770  14.847  10.589   4.198
84980SOL     OW56771   1.087   3.362   7.915
84980SOL    HW156772   1.059   3.409   7.994
84980SOL    HW256773   1.064   3.420   7.843
84981SOL     OW56774   1.143  12.200   2.822
84981SOL    HW156775   1.179  12.146   2.892
84981SOL    HW256776   1.067  12.152   2.790
84982SOL     OW56777   6.745  10.599   5.326
84982SOL    HW156778   6.797  10.677   5.305
84982SOL    HW256779   6.725  10.559   5.242
84983SOL     OW56780   3.085   2.900   2.871
84983SOL    HW156781   3.079   2.947   2.954
84983SOL    HW256782   3.142   2.825   2.889
84984SOL     OW56783  10.009   6.491  10.459
84984SOL    HW156784  10.072   6.485  10.386
84984SOL    HW256785  10.029   6.415  10.513
84985SOL     OW56786   3.650  14.757   9.152
84985SOL    HW156787   3.723  14.721   9.201
84985SOL    HW256788   3.681  14.841   9.119
84986SOL     OW56789  12.658  13.588   9.889
84986SOL    HW156790  12.644  13.493   9.891
84986SOL    HW256791  12.709  13.602   9.809
84987SOL     OW56792   2.306   3.410  11.823
84987SOL    HW156793   2.264   3.332  11.859
84987SOL    HW256794   2.288   3.478  11.888
84988SOL     OW56795  12.138   2.045  10.579
84988SOL    HW156796  12.177   2.093  10.506
84988SOL    HW256797  12.206   2.043  10.646
84989SOL     OW56798   5.959  10.022  11.762
84989SOL    HW156799   5.904   9.974  11.700
84989SOL    HW256800   6.017  10.074  11.707
84990SOL     OW56801   3.107   1.410   8.633
84990SOL    HW156802   3.060   1.459   8.701
84990SOL    HW256803   3.126   1.475   8.566
84991SOL     OW56804   5.661  13.536   5.126
84991SOL    HW156805   5.569  13.550   5.101
84991SOL    HW256806   5.656  13.475   5.200
84992SOL     OW56807  14.195   9.231  10.510
84992SOL    HW156808  14.172   9.140  10.530
84992SOL    HW256809  14.209   9.232  10.415
84993SOL     OW56810   8.204   3.215   2.905
84993SOL    HW156811   8.160   3.266   2.836
84993SOL    HW256812   8.272   3.274   2.938
84994SOL     OW56813   3.343   2.174  13.394
84994SOL    HW156814   3.317   2.256  13.351
84994SOL    HW256815   3.436   2.165  13.374
84995SOL     OW56816   8.667   5.207  14.124
84995SOL    HW156817   8.580   5.191  14.161
84995SOL    HW256818   8.656   5.193  14.030
84996SOL     OW56819   5.115   5.130   3.078
84996SOL    HW156820   5.043   5.130   3.014
84996SOL    HW256821   5.095   5.057   3.137
84997SOL     OW56822  12.418   8.582  10.417
84997SOL    HW156823  12.344   8.525  10.437
84997SOL    HW256824  12.391   8.630  10.339
84998SOL     OW56825   9.348  13.538  13.539
84998SOL    HW156826   9.394  13.545  13.623
84998SOL    HW256827   9.259  13.568  13.558
84999SOL     OW56828  11.911   5.657   8.184
84999SOL    HW156829  11.932   5.701   8.102
84999SOL    HW256830  11.844   5.713   8.224
85000SOL     OW56831  13.039   9.185  12.995
85000SOL    HW156832  13.073   9.256  12.940
85000SOL    HW256833  13.117   9.137  13.021
85001SOL     OW56834   9.895   6.178   7.595
85001SOL    HW156835   9.985   6.202   7.571
85001SOL    HW256836   9.852   6.162   7.511
85002SOL     OW56837  12.722   4.396   1.487
85002SOL    HW156838  12.644   4.384   1.433
85002SOL    HW256839  12.689   4.437   1.568
85003SOL     OW56840  11.405   2.004   4.602
85003SOL    HW156841  11.342   2.069   4.632
85003SOL    HW256842  11.482   2.054   4.578
85004SOL     OW56843  13.009   2.876  11.531
85004SOL    HW156844  13.003   2.958  11.580
85004SOL    HW256845  13.102   2.867  11.509
85005SOL     OW56846   7.463   1.973  11.797
85005SOL    HW156847   7.474   1.897  11.854
85005SOL    HW256848   7.485   1.941  11.710
85006SOL     OW56849   7.334   1.360  12.184
85006SOL    HW156850   7.417   1.357  12.136
85006SOL    HW256851   7.315   1.453  12.193
85007SOL     OW56852  11.484   7.644   7.991
85007SOL    HW156853  11.517   7.714   8.047
85007SOL    HW256854  11.393   7.632   8.017
85008SOL     OW56855   1.771   9.802   6.426
85008SOL    HW156856   1.780   9.783   6.520
85008SOL    HW256857   1.821   9.882   6.413
85009SOL     OW56858  12.591   9.698   2.521
85009SOL    HW156859  12.611   9.787   2.492
85009SOL    HW256860  12.501   9.683   2.491
85010SOL     OW56861   2.197   3.447   9.878
85010SOL    HW156862   2.159   3.490   9.955
85010SOL    HW256863   2.133   3.461   9.809
85011SOL     OW56864   7.364   3.507   0.696
85011SOL    HW156865   7.385   3.530   0.606
85011SOL    HW256866   7.272   3.477   0.693
85012SOL     OW56867   8.688  11.834   4.303
85012SOL    HW156868   8.741  11.790   4.370
85012SOL    HW256869   8.651  11.763   4.251
85013SOL     OW56870  13.494  12.050   0.567
85013SOL    HW156871  13.451  12.000   0.498
85013SOL    HW256872  13.432  12.121   0.587
85014SOL     OW56873   8.169  14.161   9.837
85014SOL    HW156874   8.224  14.228   9.879
85014SOL    HW256875   8.106  14.137   9.905
85015SOL     OW56876  11.546   2.719   7.860
85015SOL    HW156877  11.505   2.732   7.775
85015SOL    HW256878  11.577   2.628   7.859
85016SOL     OW56879   6.458   2.765   7.995
85016SOL    HW156880   6.488   2.767   8.086
85016SOL    HW256881   6.415   2.680   7.986
85017SOL     OW56882   6.080   4.345   8.506
85017SOL    HW156883   6.140   4.341   8.580
85017SOL    HW256884   6.067   4.254   8.480
85018SOL     OW56885   2.764  10.355  10.984
85018SOL    HW156886   2.722  10.269  10.973
85018SOL    HW256887   2.848  10.335  11.026
85019SOL     OW56888   0.702   1.351   2.745
85019SOL    HW156889   0.737   1.440   2.744
85019SOL    HW256890   0.715   1.321   2.835
85020SOL     OW56891   0.710   5.185   1.693
85020SOL    HW156892   0.680   5.176   1.783
85020SOL    HW256893   0.635   5.223   1.647
85021SOL     OW56894   0.892  14.290   7.749
85021SOL    HW156895   0.837  14.302   7.826
85021SOL    HW256896   0.865  14.206   7.713
85022SOL     OW56897   5.928  11.794  11.094
85022SOL    HW156898   5.837  11.766  11.102
85022SOL    HW256899   5.963  11.744  11.020
85023SOL     OW56900   8.147   9.360   6.268
85023SOL    HW156901   8.098   9.279   6.284
85023SOL    HW256902   8.225   9.331   6.221
85024SOL     OW56903   3.167  14.429   6.148
85024SOL    HW156904   3.144  14.516   6.116
85024SOL    HW256905   3.225  14.446   6.222
85025SOL     OW56906   8.762   3.558   1.050
85025SOL    HW156907   8.763   3.602   1.135
85025SOL    HW256908   8.710   3.616   0.994
85026SOL     OW56909  11.080   0.353   5.742
85026SOL    HW156910  10.995   0.395   5.752
85026SOL    HW256911  11.079   0.280   5.803
85027SOL     OW56912  11.630   9.285  12.390
85027SOL    HW156913  11.538   9.297  12.368
85027SOL    HW256914  11.660   9.217  12.329
85028SOL     OW56915  11.082  10.792  10.757
85028SOL    HW156916  11.015  10.772  10.822
85028SOL    HW256917  11.159  10.815  10.809
85029SOL     OW56918  12.321   5.703   2.354
85029SOL    HW156919  12.266   5.748   2.417
85029SOL    HW256920  12.357   5.628   2.402
85030SOL     OW56921   1.349   8.135   3.200
85030SOL    HW156922   1.366   8.064   3.138
85030SOL    HW256923   1.397   8.210   3.164
85031SOL     OW56924   5.546   6.096   7.418
85031SOL    HW156925   5.542   6.005   7.391
85031SOL    HW256926   5.457   6.129   7.407
85032SOL     OW56927  10.539   6.643   8.328
85032SOL    HW156928  10.538   6.733   8.297
85032SOL    HW256929  10.566   6.649   8.419
85033SOL     OW56930  12.255   3.449   5.972
85033SOL    HW156931  12.230   3.361   5.943
85033SOL    HW256932  12.231   3.452   6.065
85034SOL     OW56933   7.163   7.231   6.055
85034SOL    HW156934   7.100   7.298   6.080
85034SOL    HW256935   7.150   7.160   6.118
85035SOL     OW56936  10.648   7.274  12.512
85035SOL    HW156937  10.558   7.288  12.483
85035SOL    HW256938  10.690   7.360  12.504
85036SOL     OW56939   9.549   3.977   1.057
85036SOL    HW156940   9.608   4.033   1.107
85036SOL    HW256941   9.483   3.948   1.120
85037SOL     OW56942   9.374   4.487   8.202
85037SOL    HW156943   9.285   4.452   8.203
85037SOL    HW256944   9.366   4.571   8.157
85038SOL     OW56945   4.378  13.137  11.780
85038SOL    HW156946   4.335  13.220  11.799
85038SOL    HW256947   4.431  13.118  11.858
85039SOL     OW56948   3.473   9.524   9.304
85039SOL    HW156949   3.561   9.491   9.283
85039SOL    HW256950   3.446   9.474   9.381
85040SOL     OW56951  10.060  11.312   0.100
85040SOL    HW156952  10.003  11.281   0.030
85040SOL    HW256953  10.116  11.236   0.120
85041SOL     OW56954  11.527   8.778   4.175
85041SOL    HW156955  11.551   8.834   4.249
85041SOL    HW256956  11.609   8.736   4.149
85042SOL     OW56957  12.991  14.464   1.502
85042SOL    HW156958  12.898  14.488   1.494
85042SOL    HW256959  12.996  14.418   1.586
85043SOL     OW56960   8.679   8.553   4.703
85043SOL    HW156961   8.754   8.594   4.661
85043SOL    HW256962   8.711   8.529   4.790
85044SOL     OW56963  11.139   7.772   5.358
85044SOL    HW156964  11.076   7.708   5.390
85044SOL    HW256965  11.086   7.847   5.331
85045SOL     OW56966  11.712   8.982   9.065
85045SOL    HW156967  11.784   9.045   9.062
85045SOL    HW256968  11.719   8.941   9.151
85046SOL     OW56969   0.654  12.443   3.734
85046SOL    HW156970   0.673  12.537   3.739
85046SOL    HW256971   0.564  12.434   3.766
85047SOL     OW56972   6.525   6.819   3.163
85047SOL    HW156973   6.495   6.819   3.254
85047SOL    HW256974   6.550   6.729   3.145
85048SOL     OW56975   1.297   7.750  11.147
85048SOL    HW156976   1.219   7.698  11.167
85048SOL    HW256977   1.290   7.770  11.054
85049SOL     OW56978   0.671  10.325   1.710
85049SOL    HW156979   0.611  10.281   1.650
85049SOL    HW256980   0.621  10.398   1.745
85050SOL     OW56981   8.073  13.974   5.173
85050SOL    HW156982   8.062  14.068   5.188
85050SOL    HW256983   8.151  13.951   5.224
85051SOL     OW56984   2.417   8.027   6.095
85051SOL    HW156985   2.453   7.989   6.175
85051SOL    HW256986   2.348   7.966   6.070
85052SOL     OW56987   1.554   9.303   2.697
85052SOL    HW156988   1.546   9.389   2.654
85052SOL    HW256989   1.645   9.300   2.727
85053SOL     OW56990   5.080  14.085   0.769
85053SOL    HW156991   5.119  14.163   0.807
85053SOL    HW256992   5.003  14.068   0.823
85054SOL     OW56993   1.901  14.755   1.119
85054SOL    HW156994   1.879  14.844   1.148
85054SOL    HW256995   1.882  14.700   1.195
85055SOL     OW56996   1.286   5.545   9.081
85055SOL    HW156997   1.243   5.616   9.129
85055SOL    HW256998   1.224   5.523   9.012
85056SOL     OW56999  11.453  13.704  12.505
85056SOL    HW157000  11.361  13.701  12.529
85056SOL    HW257001  11.460  13.779  12.446
85057SOL     OW57002  10.304   5.063   0.720
85057SOL    HW157003  10.244   5.076   0.794
85057SOL    HW257004  10.265   5.114   0.649
85058SOL     OW57005   5.628  10.162  12.224
85058SOL    HW157006   5.685  10.094  12.187
85058SOL    HW257007   5.615  10.224  12.153
85059SOL     OW57008   5.436   5.567  10.985
85059SOL    HW157009   5.373   5.578  11.056
85059SOL    HW257010   5.487   5.648  10.985
85060SOL     OW57011   4.454   6.531  13.962
85060SOL    HW157012   4.453   6.515  13.867
85060SOL    HW257013   4.386   6.473  13.996
85061SOL     OW57014   9.226  12.274   9.468
85061SOL    HW157015   9.310  12.280   9.514
85061SOL    HW257016   9.201  12.182   9.475
85062SOL     OW57017   9.403  11.120   1.658
85062SOL    HW157018   9.458  11.087   1.729
85062SOL    HW257019   9.425  11.213   1.652
85063SOL     OW57020   6.517   1.008   2.311
85063SOL    HW157021   6.475   0.934   2.355
85063SOL    HW257022   6.494   1.084   2.364
85064SOL     OW57023  13.138  12.935   4.607
85064SOL    HW157024  13.167  12.844   4.618
85064SOL    HW257025  13.082  12.932   4.529
85065SOL     OW57026  10.272   4.976  11.939
85065SOL    HW157027  10.197   4.919  11.924
85065SOL    HW257028  10.269   4.997  12.032
85066SOL     OW57029   9.704   2.098   1.181
85066SOL    HW157030   9.673   2.039   1.113
85066SOL    HW257031   9.710   2.184   1.138
85067SOL     OW57032  13.897  10.512   1.935
85067SOL    HW157033  13.938  10.536   2.018
85067SOL    HW257034  13.963  10.460   1.890
85068SOL     OW57035  14.617   9.897   6.981
85068SOL    HW157036  14.566   9.938   6.912
85068SOL    HW257037  14.597   9.948   7.060
85069SOL     OW57038   4.401  10.297   9.808
85069SOL    HW157039   4.352  10.260   9.881
85069SOL    HW257040   4.346  10.368   9.775
85070SOL     OW57041   4.718   6.857  13.432
85070SOL    HW157042   4.661   6.910  13.488
85070SOL    HW257043   4.737   6.779  13.485
85071SOL     OW57044   4.638   8.181   1.489
85071SOL    HW157045   4.624   8.200   1.582
85071SOL    HW257046   4.695   8.252   1.458
85072SOL     OW57047   3.097   3.044   8.855
85072SOL    HW157048   3.078   3.096   8.777
85072SOL    HW257049   3.012   3.008   8.881
85073SOL     OW57050   5.141   8.550  10.742
85073SOL    HW157051   5.138   8.454  10.741
85073SOL    HW257052   5.078   8.577  10.674
85074SOL     OW57053  13.647   8.480   1.260
85074SOL    HW157054  13.681   8.568   1.275
85074SOL    HW257055  13.721   8.431   1.224
85075SOL     OW57056   4.334   7.744  10.161
85075SOL    HW157057   4.333   7.837  10.181
85075SOL    HW257058   4.403   7.734  10.096
85076SOL     OW57059   6.991   1.641  10.303
85076SOL    HW157060   7.025   1.590  10.229
85076SOL    HW257061   7.032   1.727  10.294
85077SOL     OW57062   6.767  14.034  10.484
85077SOL    HW157063   6.762  14.066  10.574
85077SOL    HW257064   6.854  14.061  10.454
85078SOL     OW57065  10.569   7.397   2.317
85078SOL    HW157066  10.536   7.310   2.292
85078SOL    HW257067  10.660   7.381   2.343
85079SOL     OW57068   3.636   3.193   2.266
85079SOL    HW157069   3.558   3.140   2.254
85079SOL    HW257070   3.683   3.184   2.183
85080SOL     OW57071   9.189   4.780  10.290
85080SOL    HW157072   9.123   4.849  10.283
85080SOL    HW257073   9.229   4.776  10.203
85081SOL     OW57074   0.256   3.164  14.404
85081SOL    HW157075   0.182   3.111  14.372
85081SOL    HW257076   0.224   3.254  14.401
85082SOL     OW57077   7.316  14.787   2.249
85082SOL    HW157078   7.330  14.763   2.157
85082SOL    HW257079   7.221  14.787   2.259
85083SOL     OW57080   7.872  14.391  12.284
85083SOL    HW157081   7.844  14.483  12.285
85083SOL    HW257082   7.910  14.378  12.198
85084SOL     OW57083  11.196  13.630   9.002
85084SOL    HW157084  11.187  13.571   9.077
85084SOL    HW257085  11.234  13.710   9.039
85085SOL     OW57086   0.759  14.677   0.822
85085SOL    HW157087   0.727  14.762   0.793
85085SOL    HW257088   0.680  14.627   0.841
85086SOL     OW57089   1.072  12.254   9.920
85086SOL    HW157090   1.086  12.345   9.945
85086SOL    HW257091   1.122  12.243   9.839
85087SOL     OW57092   0.826   2.611   5.220
85087SOL    HW157093   0.899   2.623   5.159
85087SOL    HW257094   0.768   2.548   5.176
85088SOL     OW57095  14.226   3.996   7.014
85088SOL    HW157096  14.158   4.009   7.080
85088SOL    HW257097  14.241   4.084   6.978
85089SOL     OW57098   8.074   2.152   8.552
85089SOL    HW157099   8.019   2.182   8.480
85089SOL    HW257100   8.153   2.206   8.545
85090SOL     OW57101   3.907   7.382   6.204
85090SOL    HW157102   3.836   7.319   6.194
85090SOL    HW257103   3.981   7.342   6.159
85091SOL     OW57104  11.398  13.866   5.629
85091SOL    HW157105  11.426  13.775   5.616
85091SOL    HW257106  11.332  13.860   5.699
85092SOL     OW57107   4.907   2.123   5.819
85092SOL    HW157108   4.923   2.211   5.853
85092SOL    HW257109   4.995   2.087   5.805
85093SOL     OW57110   3.570   8.186   2.588
85093SOL    HW157111   3.560   8.251   2.519
85093SOL    HW257112   3.580   8.103   2.541
85094SOL     OW57113   9.347   5.562   2.416
85094SOL    HW157114   9.252   5.552   2.420
85094SOL    HW257115   9.366   5.575   2.323
85095SOL     OW57116   4.593  13.363   1.733
85095SOL    HW157117   4.525  13.422   1.765
85095SOL    HW257118   4.583  13.284   1.786
85096SOL     OW57119   2.771  12.261   0.178
85096SOL    HW157120   2.847  12.215   0.143
85096SOL    HW257121   2.807  12.338   0.222
85097SOL     OW57122   2.820  13.489   0.799
85097SOL    HW157123   2.868  13.477   0.717
85097SOL    HW257124   2.831  13.406   0.845
85098SOL     OW57125  13.289   3.984   1.336
85098SOL    HW157126  13.274   4.078   1.326
85098SOL    HW257127  13.204   3.944   1.317
85099SOL     OW57128  12.077  14.015  11.620
85099SOL    HW157129  12.102  13.923  11.630
85099SOL    HW257130  12.139  14.062  11.675
85100SOL     OW57131   1.116   0.463   1.785
85100SOL    HW157132   1.043   0.518   1.815
85100SOL    HW257133   1.074   0.390   1.740
85101SOL     OW57134   7.172  11.395   4.370
85101SOL    HW157135   7.228  11.339   4.317
85101SOL    HW257136   7.085  11.356   4.362
85102SOL     OW57137   8.394   8.608   6.453
85102SOL    HW157138   8.316   8.603   6.398
85102SOL    HW257139   8.451   8.670   6.406
85103SOL     OW57140   1.211   8.047   8.221
85103SOL    HW157141   1.122   8.034   8.189
85103SOL    HW257142   1.220   7.984   8.293
85104SOL     OW57143   9.140   4.966   8.526
85104SOL    HW157144   9.197   4.929   8.593
85104SOL    HW257145   9.055   4.925   8.542
85105SOL     OW57146   7.418   6.177   5.194
85105SOL    HW157147   7.350   6.110   5.192
85105SOL    HW257148   7.421   6.211   5.104
85106SOL     OW57149   0.596   0.631   3.920
85106SOL    HW157150   0.687   0.611   3.898
85106SOL    HW257151   0.601   0.676   4.004
85107SOL     OW57152   0.829  14.859   8.930
85107SOL    HW157153   0.797  14.789   8.987
85107SOL    HW257154   0.911   0.015   8.970
85108SOL     OW57155   8.554   4.673   9.461
85108SOL    HW157156   8.622   4.739   9.473
85108SOL    HW257157   8.473   4.723   9.449
85109SOL     OW57158   5.050   8.055   0.351
85109SOL    HW157159   5.040   8.074   0.444
85109SOL    HW257160   5.145   8.045   0.339
85110SOL     OW57161   7.122   3.877   4.792
85110SOL    HW157162   7.106   3.891   4.886
85110SOL    HW257163   7.191   3.938   4.770
85111SOL     OW57164  10.228   1.883  14.681
85111SOL    HW157165  10.323   1.886  14.691
85111SOL    HW257166  10.194   1.938  14.752
85112SOL     OW57167   1.695   9.338   3.890
85112SOL    HW157168   1.707   9.336   3.795
85112SOL    HW257169   1.638   9.413   3.905
85113SOL     OW57170   3.603   7.714   9.226
85113SOL    HW157171   3.563   7.753   9.304
85113SOL    HW257172   3.633   7.628   9.254
85114SOL     OW57173   7.647  13.886   9.941
85114SOL    HW157174   7.709  13.830   9.894
85114SOL    HW257175   7.702  13.939   9.998
85115SOL     OW57176   4.403  12.630   0.842
85115SOL    HW157177   4.438  12.651   0.929
85115SOL    HW257178   4.369  12.541   0.851
85116SOL     OW57179   8.276  11.608  14.219
85116SOL    HW157180   8.210  11.618  14.288
85116SOL    HW257181   8.243  11.536  14.165
85117SOL     OW57182   6.516   8.479   7.796
85117SOL    HW157183   6.577   8.428   7.848
85117SOL    HW257184   6.535   8.570   7.818
85118SOL     OW57185   5.919   5.694   4.317
85118SOL    HW157186   5.844   5.734   4.273
85118SOL    HW257187   5.966   5.767   4.356
85119SOL     OW57188  13.662   9.627  13.147
85119SOL    HW157189  13.736   9.567  13.137
85119SOL    HW257190  13.630   9.610  13.236
85120SOL     OW57191  11.017  12.449   1.647
85120SOL    HW157192  10.995  12.356   1.644
85120SOL    HW257193  10.954  12.490   1.588
85121SOL     OW57194   0.978   5.985   7.584
85121SOL    HW157195   0.908   5.991   7.518
85121SOL    HW257196   0.940   5.931   7.653
85122SOL     OW57197   6.066   7.242   5.535
85122SOL    HW157198   6.049   7.150   5.558
85122SOL    HW257199   6.063   7.289   5.619
85123SOL     OW57200  14.824   3.158  12.041
85123SOL    HW157201  14.790   3.144  12.129
85123SOL    HW257202  14.766   3.225  12.003
85124SOL     OW57203   0.296  13.012   0.611
85124SOL    HW157204   0.224  13.029   0.550
85124SOL    HW257205   0.282  13.073   0.683
85125SOL     OW57206  12.121  13.694   0.240
85125SOL    HW157207  12.057  13.680   0.170
85125SOL    HW257208  12.072  13.738   0.309
85126SOL     OW57209  14.624   5.318   6.114
85126SOL    HW157210  14.662   5.262   6.046
85126SOL    HW257211  14.700   5.347   6.166
85127SOL     OW57212   5.884   0.988   9.781
85127SOL    HW157213   5.814   1.028   9.729
85127SOL    HW257214   5.839   0.950   9.856
85128SOL     OW57215   1.116   1.198   0.978
85128SOL    HW157216   1.175   1.268   0.950
85128SOL    HW257217   1.173   1.133   1.017
85129SOL     OW57218   0.873   4.281   3.729
85129SOL    HW157219   0.915   4.200   3.758
85129SOL    HW257220   0.783   4.275   3.761
85130SOL     OW57221   5.625   7.898   1.586
85130SOL    HW157222   5.620   7.832   1.516
85130SOL    HW257223   5.598   7.979   1.543
85131SOL     OW57224   8.169  14.528  10.767
85131SOL    HW157225   8.089  14.484  10.797
85131SOL    HW257226   8.153  14.547  10.675
85132SOL     OW57227  14.759  11.898   8.198
85132SOL    HW157228  14.843  11.921   8.159
85132SOL    HW257229  14.751  11.804   8.187
85133SOL     OW57230   4.455  14.466   1.004
85133SOL    HW157231   4.430  14.556   0.985
85133SOL    HW257232   4.378  14.414   0.981
85134SOL     OW57233  13.104   1.615   6.448
85134SOL    HW157234  13.052   1.544   6.485
85134SOL    HW257235  13.040   1.682   6.425
85135SOL     OW57236  14.645  11.780  11.002
85135SOL    HW157237  14.669  11.836  10.929
85135SOL    HW257238  14.563  11.739  10.975
85136SOL     OW57239   4.914  11.567   6.894
85136SOL    HW157240   4.935  11.543   6.984
85136SOL    HW257241   4.820  11.550   6.886
85137SOL     OW57242  12.523   3.039   7.112
85137SOL    HW157243  12.548   3.104   7.046
85137SOL    HW257244  12.548   3.079   7.195
85138SOL     OW57245   6.142   9.734  12.125
85138SOL    HW157246   6.216   9.732  12.065
85138SOL    HW257247   6.115   9.643  12.134
85139SOL     OW57248   2.820   5.003   6.558
85139SOL    HW157249   2.823   4.907   6.559
85139SOL    HW257250   2.911   5.029   6.542
85140SOL     OW57251  13.948  11.698   8.927
85140SOL    HW157252  13.899  11.780   8.927
85140SOL    HW257253  14.005  11.703   8.851
85141SOL     OW57254   0.819   2.461   2.231
85141SOL    HW157255   0.880   2.388   2.245
85141SOL    HW257256   0.862   2.518   2.168
85142SOL     OW57257   1.805  12.161   2.825
85142SOL    HW157258   1.790  12.173   2.731
85142SOL    HW257259   1.721  12.181   2.865
85143SOL     OW57260   7.502   7.768  13.439
85143SOL    HW157261   7.577   7.746  13.384
85143SOL    HW257262   7.444   7.692  13.432
85144SOL     OW57263  10.821   9.602   5.634
85144SOL    HW157264  10.816   9.534   5.701
85144SOL    HW257265  10.904   9.586   5.590
85145SOL     OW57266  13.941   4.691  13.646
85145SOL    HW157267  13.873   4.693  13.579
85145SOL    HW257268  13.913   4.623  13.707
85146SOL     OW57269  13.180  10.415  12.020
85146SOL    HW157270  13.269  10.400  11.987
85146SOL    HW257271  13.169  10.350  12.089
85147SOL     OW57272   9.225  12.498  11.695
85147SOL    HW157273   9.233  12.456  11.781
85147SOL    HW257274   9.281  12.445  11.638
85148SOL     OW57275  11.605  10.786   5.376
85148SOL    HW157276  11.589  10.875   5.344
85148SOL    HW257277  11.605  10.794   5.471
85149SOL     OW57278   4.148   0.898   7.902
85149SOL    HW157279   4.079   0.926   7.963
85149SOL    HW257280   4.100   0.854   7.832
85150SOL     OW57281   7.425  11.897  12.513
85150SOL    HW157282   7.438  11.954  12.589
85150SOL    HW257283   7.511  11.858  12.497
85151SOL     OW57284  13.117   4.424   2.184
85151SOL    HW157285  13.129   4.376   2.103
85151SOL    HW257286  13.131   4.516   2.160
85152SOL     OW57287   3.933   5.878   6.023
85152SOL    HW157288   3.845   5.916   6.029
85152SOL    HW257289   3.918   5.785   6.008
85153SOL     OW57290   5.800   8.863   9.768
85153SOL    HW157291   5.873   8.840   9.711
85153SOL    HW257292   5.811   8.956   9.785
85154SOL     OW57293   8.891   9.500  13.340
85154SOL    HW157294   8.872   9.425  13.283
85154SOL    HW257295   8.946   9.557  13.287
85155SOL     OW57296   1.381   3.881   0.841
85155SOL    HW157297   1.314   3.942   0.871
85155SOL    HW257298   1.438   3.867   0.917
85156SOL     OW57299  11.372  10.298  11.619
85156SOL    HW157300  11.363  10.205  11.595
85156SOL    HW257301  11.321  10.344  11.553
85157SOL     OW57302   8.596   8.186   4.773
85157SOL    HW157303   8.556   8.161   4.689
85157SOL    HW257304   8.522   8.209   4.829
85158SOL     OW57305   6.489  12.910  10.639
85158SOL    HW157306   6.423  12.956  10.588
85158SOL    HW257307   6.531  12.850  10.577
85159SOL     OW57308   5.035  10.008   2.930
85159SOL    HW157309   5.083   9.931   2.960
85159SOL    HW257310   5.083  10.082   2.966
85160SOL     OW57311  11.634   6.303  13.393
85160SOL    HW157312  11.566   6.301  13.461
85160SOL    HW257313  11.686   6.224  13.409
85161SOL     OW57314   3.605  12.385   8.589
85161SOL    HW157315   3.588  12.329   8.514
85161SOL    HW257316   3.520  12.393   8.633
85162SOL     OW57317   1.423  10.270   9.285
85162SOL    HW157318   1.432  10.364   9.301
85162SOL    HW257319   1.341  10.246   9.328
85163SOL     OW57320  13.956   0.193  13.540
85163SOL    HW157321  13.925   0.281  13.519
85163SOL    HW257322  13.895   0.135  13.495
85164SOL     OW57323  13.475   1.608   2.244
85164SOL    HW157324  13.480   1.683   2.304
85164SOL    HW257325  13.565   1.575   2.241
85165SOL     OW57326   2.280   8.644   0.414
85165SOL    HW157327   2.332   8.581   0.463
85165SOL    HW257328   2.204   8.662   0.470
85166SOL     OW57329  12.242   0.167   6.374
85166SOL    HW157330  12.207   0.199   6.291
85166SOL    HW257331  12.166   0.168   6.434
85167SOL     OW57332   7.493   0.950   7.022
85167SOL    HW157333   7.435   1.020   7.051
85167SOL    HW257334   7.571   0.996   6.990
85168SOL     OW57335   0.407   9.462  11.554
85168SOL    HW157336   0.384   9.546  11.513
85168SOL    HW257337   0.457   9.416  11.487
85169SOL     OW57338   4.187   1.316  14.145
85169SOL    HW157339   4.197   1.309  14.050
85169SOL    HW257340   4.173   1.226  14.174
85170SOL     OW57341  12.058   5.541   1.791
85170SOL    HW157342  12.122   5.610   1.774
85170SOL    HW257343  11.973   5.581   1.769
85171SOL     OW57344  10.535  11.858   9.199
85171SOL    HW157345  10.606  11.882   9.258
85171SOL    HW257346  10.522  11.935   9.143
85172SOL     OW57347  14.553  14.457   8.084
85172SOL    HW157348  14.500  14.378   8.079
85172SOL    HW257349  14.524  14.501   8.163
85173SOL     OW57350   1.308   8.502   4.742
85173SOL    HW157351   1.234   8.533   4.794
85173SOL    HW257352   1.365   8.578   4.732
85174SOL     OW57353   7.539  10.405   8.598
85174SOL    HW157354   7.601  10.334   8.583
85174SOL    HW257355   7.462  10.383   8.546
85175SOL     OW57356   2.677  10.809   3.640
85175SOL    HW157357   2.597  10.764   3.667
85175SOL    HW257358   2.710  10.756   3.567
85176SOL     OW57359   0.246  13.767  14.034
85176SOL    HW157360   0.226  13.847  13.986
85176SOL    HW257361   0.182  13.703  14.003
85177SOL     OW57362   0.554  14.035   2.467
85177SOL    HW157363   0.460  14.029   2.450
85177SOL    HW257364   0.583  13.945   2.477
85178SOL     OW57365   8.353   1.162  11.698
85178SOL    HW157366   8.405   1.087  11.670
85178SOL    HW257367   8.363   1.163  11.793
85179SOL     OW57368   3.968   0.086  13.954
85179SOL    HW157369   3.999   0.086  14.044
85179SOL    HW257370   3.904   0.157  13.951
85180SOL     OW57371   6.308   4.849   0.560
85180SOL    HW157372   6.279   4.940   0.567
85180SOL    HW257373   6.383   4.852   0.501
85181SOL     OW57374  11.543  12.550   8.173
85181SOL    HW157375  11.481  12.514   8.237
85181SOL    HW257376  11.487  12.592   8.107
85182SOL     OW57377   1.267   5.545  14.354
85182SOL    HW157378   1.275   5.500  14.439
85182SOL    HW257379   1.285   5.637  14.374
85183SOL     OW57380  14.441   3.534  14.456
85183SOL    HW157381  14.468   3.443  14.464
85183SOL    HW257382  14.408   3.557  14.543
85184SOL     OW57383   8.538   3.327   3.568
85184SOL    HW157384   8.470   3.337   3.635
85184SOL    HW257385   8.620   3.349   3.613
85185SOL     OW57386   3.068  11.964  14.163
85185SOL    HW157387   3.009  11.889  14.169
85185SOL    HW257388   3.121  11.946  14.085
85186SOL     OW57389   0.519   4.578   7.542
85186SOL    HW157390   0.517   4.492   7.500
85186SOL    HW257391   0.495   4.560   7.633
85187SOL     OW57392   0.775  14.327   3.984
85187SOL    HW157393   0.774  14.407   3.932
85187SOL    HW257394   0.736  14.351   4.067
85188SOL     OW57395   2.092   5.242  10.467
85188SOL    HW157396   2.094   5.292  10.548
85188SOL    HW257397   2.003   5.254  10.433
85189SOL     OW57398  12.081   6.278   6.716
85189SOL    HW157399  12.034   6.286   6.633
85189SOL    HW257400  12.064   6.188   6.745
85190SOL     OW57401  12.040  12.416   1.680
85190SOL    HW157402  12.041  12.322   1.700
85190SOL    HW257403  11.969  12.427   1.617
85191SOL     OW57404  13.670  11.228  12.085
85191SOL    HW157405  13.595  11.168  12.090
85191SOL    HW257406  13.668  11.276  12.167
85192SOL     OW57407   9.222   6.233   7.985
85192SOL    HW157408   9.213   6.252   7.892
85192SOL    HW257409   9.295   6.172   7.991
85193SOL     OW57410   1.994   0.636   9.003
85193SOL    HW157411   2.076   0.655   8.959
85193SOL    HW257412   1.997   0.542   9.021
85194SOL     OW57413   7.747  12.973   1.636
85194SOL    HW157414   7.663  12.957   1.593
85194SOL    HW257415   7.782  12.885   1.653
85195SOL     OW57416   0.086  13.963  14.745
85195SOL    HW157417   0.126  13.930  14.664
85195SOL    HW257418   0.052  13.885  14.789
85196SOL     OW57419  12.902   6.637   1.531
85196SOL    HW157420  12.854   6.633   1.448
85196SOL    HW257421  12.892   6.549   1.568
85197SOL     OW57422   3.715   1.724  11.585
85197SOL    HW157423   3.661   1.647  11.600
85197SOL    HW257424   3.799   1.702  11.626
85198SOL     OW57425  11.349  14.147   6.239
85198SOL    HW157426  11.370  14.062   6.276
85198SOL    HW257427  11.297  14.191   6.307
85199SOL     OW57428   6.092   7.647  12.205
85199SOL    HW157429   6.011   7.697  12.213
85199SOL    HW257430   6.118   7.628  12.295
85200SOL     OW57431   9.163  14.658   5.998
85200SOL    HW157432   9.180  14.714   5.923
85200SOL    HW257433   9.220  14.582   5.985
85201SOL     OW57434  14.468   3.234   5.085
85201SOL    HW157435  14.391   3.215   5.031
85201SOL    HW257436  14.532   3.269   5.023
85202SOL     OW57437   6.077   5.304   6.586
85202SOL    HW157438   6.169   5.314   6.610
85202SOL    HW257439   6.034   5.382   6.623
85203SOL     OW57440  10.463   1.081   9.955
85203SOL    HW157441  10.485   0.997   9.995
85203SOL    HW257442  10.367   1.080   9.947
85204SOL     OW57443   9.060   1.063   0.610
85204SOL    HW157444   9.152   1.046   0.632
85204SOL    HW257445   9.022   1.094   0.692
85205SOL     OW57446  11.090  10.641   8.765
85205SOL    HW157447  11.170  10.613   8.720
85205SOL    HW257448  11.114  10.723   8.808
85206SOL     OW57449   1.832   1.955   4.519
85206SOL    HW157450   1.881   1.908   4.451
85206SOL    HW257451   1.845   2.047   4.498
85207SOL     OW57452   1.245  10.115   1.227
85207SOL    HW157453   1.258  10.125   1.321
85207SOL    HW257454   1.177  10.179   1.205
85208SOL     OW57455  11.033   1.764   5.598
85208SOL    HW157456  11.076   1.705   5.536
85208SOL    HW257457  11.026   1.848   5.551
85209SOL     OW57458   0.143   9.817   3.054
85209SOL    HW157459   0.147   9.744   3.115
85209SOL    HW257460   0.105   9.889   3.105
85210SOL     OW57461   1.455   4.870   2.177
85210SOL    HW157462   1.420   4.922   2.105
85210SOL    HW257463   1.454   4.929   2.252
85211SOL     OW57464   2.184   4.404   3.238
85211SOL    HW157465   2.228   4.477   3.195
85211SOL    HW257466   2.250   4.335   3.241
85212SOL     OW57467   3.610   1.216   4.371
85212SOL    HW157468   3.598   1.290   4.312
85212SOL    HW257469   3.700   1.223   4.401
85213SOL     OW57470   7.315   1.953  12.828
85213SOL    HW157471   7.295   2.022  12.765
85213SOL    HW257472   7.230   1.928  12.865
85214SOL     OW57473   4.683   4.668   4.692
85214SOL    HW157474   4.652   4.647   4.604
85214SOL    HW257475   4.711   4.584   4.729
85215SOL     OW57476   9.328   9.833  10.240
85215SOL    HW157477   9.336   9.738  10.229
85215SOL    HW257478   9.251   9.843  10.297
85216SOL     OW57479  10.424   4.233   2.316
85216SOL    HW157480  10.509   4.228   2.272
85216SOL    HW257481  10.369   4.168   2.271
85217SOL     OW57482  12.598   4.803   2.042
85217SOL    HW157483  12.610   4.835   1.953
85217SOL    HW257484  12.666   4.737   2.053
85218SOL     OW57485   4.465   5.923   8.908
85218SOL    HW157486   4.475   5.835   8.873
85218SOL    HW257487   4.480   5.981   8.834
85219SOL     OW57488  11.354   7.751   2.331
85219SOL    HW157489  11.395   7.694   2.266
85219SOL    HW257490  11.263   7.760   2.302
85220SOL     OW57491   1.159   7.898  14.765
85220SOL    HW157492   1.186   7.925  14.854
85220SOL    HW257493   1.089   7.958  14.742
85221SOL     OW57494   4.853   9.992   7.802
85221SOL    HW157495   4.914  10.018   7.734
85221SOL    HW257496   4.892   9.914   7.841
85222SOL     OW57497   8.479   6.126   2.324
85222SOL    HW157498   8.483   6.190   2.395
85222SOL    HW257499   8.524   6.049   2.360
85223SOL     OW57500   1.506   6.594   0.596
85223SOL    HW157501   1.523   6.501   0.580
85223SOL    HW257502   1.414   6.605   0.572
85224SOL     OW57503   5.169   7.712   8.657
85224SOL    HW157504   5.170   7.738   8.565
85224SOL    HW257505   5.113   7.634   8.659
85225SOL     OW57506   9.122   9.171   6.158
85225SOL    HW157507   9.194   9.209   6.208
85225SOL    HW257508   9.054   9.239   6.158
85226SOL     OW57509   4.186   1.334   0.136
85226SOL    HW157510   4.186   1.255   0.190
85226SOL    HW257511   4.094   1.346   0.113
85227SOL     OW57512   4.317  14.106   0.499
85227SOL    HW157513   4.314  14.117   0.594
85227SOL    HW257514   4.367  14.026   0.485
85228SOL     OW57515   2.020   0.993  13.144
85228SOL    HW157516   2.059   1.006  13.230
85228SOL    HW257517   2.079   0.934  13.099
85229SOL     OW57518  14.528  12.432   4.056
85229SOL    HW157519  14.607  12.406   4.103
85229SOL    HW257520  14.457  12.385   4.101
85230SOL     OW57521   4.866   9.586  13.231
85230SOL    HW157522   4.870   9.642  13.309
85230SOL    HW257523   4.785   9.611  13.188
85231SOL     OW57524   4.068   1.290   8.148
85231SOL    HW157525   4.113   1.213   8.184
85231SOL    HW257526   3.998   1.253   8.094
85232SOL     OW57527   1.457  12.495   1.983
85232SOL    HW157528   1.427  12.473   2.071
85232SOL    HW257529   1.444  12.589   1.976
85233SOL     OW57530   8.390   2.182   7.201
85233SOL    HW157531   8.373   2.254   7.263
85233SOL    HW257532   8.478   2.152   7.223
85234SOL     OW57533   8.868   7.893   9.984
85234SOL    HW157534   8.773   7.895   9.995
85234SOL    HW257535   8.883   7.906   9.891
85235SOL     OW57536   2.761   1.310  13.393
85235SOL    HW157537   2.666   1.315  13.405
85235SOL    HW257538   2.797   1.324  13.480
85236SOL     OW57539  10.985  12.302   4.696
85236SOL    HW157540  11.004  12.370   4.761
85236SOL    HW257541  10.950  12.229   4.747
85237SOL     OW57542   9.099   6.178   3.496
85237SOL    HW157543   9.156   6.184   3.419
85237SOL    HW257544   9.048   6.259   3.493
85238SOL     OW57545   9.068   4.624   9.894
85238SOL    HW157546   9.128   4.645   9.822
85238SOL    HW257547   9.125   4.603   9.968
85239SOL     OW57548   8.130   3.389   3.305
85239SOL    HW157549   8.092   3.470   3.272
85239SOL    HW257550   8.220   3.413   3.328
85240SOL     OW57551   0.122  11.322   6.111
85240SOL    HW157552   0.137  11.414   6.135
85240SOL    HW257553   0.031  11.319   6.084
85241SOL     OW57554   3.401  11.723   5.834
85241SOL    HW157555   3.419  11.753   5.923
85241SOL    HW257556   3.462  11.651   5.819
85242SOL     OW57557   6.106   3.436  10.395
85242SOL    HW157558   6.038   3.457  10.331
85242SOL    HW257559   6.109   3.512  10.453
85243SOL     OW57560  12.994  11.602  13.731
85243SOL    HW157561  12.959  11.566  13.649
85243SOL    HW257562  13.060  11.666  13.703
85244SOL     OW57563  12.573   2.615   6.320
85244SOL    HW157564  12.540   2.558   6.389
85244SOL    HW257565  12.637   2.562   6.273
85245SOL     OW57566  10.441   3.350   0.812
85245SOL    HW157567  10.463   3.427   0.865
85245SOL    HW257568  10.490   3.363   0.730
85246SOL     OW57569   6.210  12.841  13.156
85246SOL    HW157570   6.233  12.933  13.169
85246SOL    HW257571   6.149  12.821  13.228
85247SOL     OW57572  12.541   9.555  13.161
85247SOL    HW157573  12.454   9.588  13.184
85247SOL    HW257574  12.601   9.609  13.212
85248SOL     OW57575   0.133   8.445   0.848
85248SOL    HW157576   0.156   8.538   0.848
85248SOL    HW257577   0.095   8.430   0.762
85249SOL     OW57578   1.477   8.787   9.362
85249SOL    HW157579   1.493   8.878   9.337
85249SOL    HW257580   1.536   8.736   9.306
85250SOL     OW57581   3.472  10.444  11.595
85250SOL    HW157582   3.405  10.446  11.663
85250SOL    HW257583   3.551  10.415  11.641
85251SOL     OW57584   1.999   9.782  10.206
85251SOL    HW157585   2.026   9.859  10.256
85251SOL    HW257586   1.904   9.790  10.200
85252SOL     OW57587   0.914   0.009  14.484
85252SOL    HW157588   0.865   0.090  14.472
85252SOL    HW257589   0.977   0.008  14.413
85253SOL     OW57590   6.556   1.780  13.620
85253SOL    HW157591   6.610   1.800  13.544
85253SOL    HW257592   6.544   1.685  13.616
85254SOL     OW57593  13.801  10.408  13.125
85254SOL    HW157594  13.794  10.474  13.194
85254SOL    HW257595  13.870  10.349  13.155
85255SOL     OW57596   1.378   5.565  10.916
85255SOL    HW157597   1.352   5.495  10.975
85255SOL    HW257598   1.372   5.526  10.828
85256SOL     OW57599   1.790  11.745  11.587
85256SOL    HW157600   1.779  11.665  11.535
85256SOL    HW257601   1.703  11.762  11.624
85257SOL     OW57602   5.878   9.129   1.718
85257SOL    HW157603   5.913   9.217   1.708
85257SOL    HW257604   5.801   9.140   1.775
85258SOL     OW57605  11.366   1.492   3.226
85258SOL    HW157606  11.440   1.454   3.274
85258SOL    HW257607  11.302   1.421   3.221
85259SOL     OW57608  13.668   7.507  11.031
85259SOL    HW157609  13.617   7.588  11.021
85259SOL    HW257610  13.682   7.476  10.941
85260SOL     OW57611   9.667   6.820  14.476
85260SOL    HW157612   9.733   6.889  14.478
85260SOL    HW257613   9.584   6.866  14.488
85261SOL     OW57614   9.401   0.582   0.822
85261SOL    HW157615   9.449   0.604   0.902
85261SOL    HW257616   9.311   0.609   0.840
85262SOL     OW57617   0.832   1.619   7.908
85262SOL    HW157618   0.779   1.693   7.879
85262SOL    HW257619   0.923   1.650   7.904
85263SOL     OW57620   5.022   9.201   7.526
85263SOL    HW157621   4.999   9.174   7.615
85263SOL    HW257622   4.982   9.287   7.516
85264SOL     OW57623  11.447  12.471  11.056
85264SOL    HW157624  11.541  12.482  11.042
85264SOL    HW257625  11.408  12.498  10.973
85265SOL     OW57626   6.124   2.110   7.000
85265SOL    HW157627   6.107   2.121   6.907
85265SOL    HW257628   6.199   2.051   7.004
85266SOL     OW57629  10.130  13.318   8.139
85266SOL    HW157630  10.145  13.335   8.232
85266SOL    HW257631  10.038  13.293   8.133
85267SOL     OW57632   7.162   8.974   8.419
85267SOL    HW157633   7.180   9.066   8.438
85267SOL    HW257634   7.082   8.975   8.366
85268SOL     OW57635  10.102  12.537   0.976
85268SOL    HW157636  10.035  12.601   0.997
85268SOL    HW257637  10.178  12.589   0.951
85269SOL     OW57638   1.927   5.836   6.353
85269SOL    HW157639   1.914   5.759   6.407
85269SOL    HW257640   2.019   5.859   6.365
85270SOL     OW57641  13.725   9.739  14.337
85270SOL    HW157642  13.629   9.744  14.339
85270SOL    HW257643  13.750   9.731  14.429
85271SOL     OW57644   9.199  11.030   3.890
85271SOL    HW157645   9.123  10.978   3.863
85271SOL    HW257646   9.244  11.051   3.809
85272SOL     OW57647  13.613   1.132   7.606
85272SOL    HW157648  13.576   1.145   7.518
85272SOL    HW257649  13.674   1.205   7.618
85273SOL     OW57650   7.349  10.409  14.530
85273SOL    HW157651   7.307  10.402  14.616
85273SOL    HW257652   7.442  10.394  14.546
85274SOL     OW57653   7.936   4.020   9.693
85274SOL    HW157654   7.877   3.950   9.723
85274SOL    HW257655   7.916   4.094   9.750
85275SOL     OW57656   5.735  12.600  14.300
85275SOL    HW157657   5.712  12.685  14.338
85275SOL    HW257658   5.753  12.544  14.376
85276SOL     OW57659   4.748   6.400  12.232
85276SOL    HW157660   4.812   6.465  12.260
85276SOL    HW257661   4.784   6.316  12.260
85277SOL     OW57662  12.131   3.876  12.064
85277SOL    HW157663  12.126   3.780  12.071
85277SOL    HW257664  12.207   3.900  12.117
85278SOL     OW57665  11.050   9.119   5.973
85278SOL    HW157666  10.960   9.147   5.960
85278SOL    HW257667  11.047   9.024   5.961
85279SOL     OW57668   5.682   8.477   5.773
85279SOL    HW157669   5.604   8.483   5.828
85279SOL    HW257670   5.649   8.456   5.686
85280SOL     OW57671   6.314   5.449   7.390
85280SOL    HW157672   6.243   5.495   7.344
85280SOL    HW257673   6.351   5.515   7.449
85281SOL     OW57674  12.192   6.866   1.009
85281SOL    HW157675  12.282   6.895   1.025
85281SOL    HW257676  12.190   6.776   1.040
85282SOL     OW57677   8.256  10.208   2.061
85282SOL    HW157678   8.265  10.131   2.005
85282SOL    HW257679   8.316  10.192   2.134
85283SOL     OW57680   3.699   6.938   8.508
85283SOL    HW157681   3.656   7.012   8.551
85283SOL    HW257682   3.643   6.863   8.528
85284SOL     OW57683   0.829   9.234   8.386
85284SOL    HW157684   0.769   9.306   8.371
85284SOL    HW257685   0.845   9.197   8.299
85285SOL     OW57686   9.139   0.576   7.483
85285SOL    HW157687   9.073   0.638   7.515
85285SOL    HW257688   9.182   0.623   7.411
85286SOL     OW57689  12.341   8.575   3.045
85286SOL    HW157690  12.334   8.553   3.138
85286SOL    HW257691  12.362   8.668   3.045
85287SOL     OW57692   4.679   4.627  12.063
85287SOL    HW157693   4.605   4.627  12.002
85287SOL    HW257694   4.735   4.555  12.033
85288SOL     OW57695   3.583   0.733   6.153
85288SOL    HW157696   3.496   0.771   6.165
85288SOL    HW257697   3.604   0.693   6.237
85289SOL     OW57698  14.620   2.068   4.993
85289SOL    HW157699  14.624   2.133   5.063
85289SOL    HW257700  14.565   2.108   4.926
85290SOL     OW57701   0.299   0.093   4.849
85290SOL    HW157702   0.273   0.155   4.917
85290SOL    HW257703   0.344   0.023   4.896
85291SOL     OW57704  11.370  12.818   8.795
85291SOL    HW157705  11.392  12.789   8.706
85291SOL    HW257706  11.344  12.909   8.784
85292SOL     OW57707   8.048   2.938   3.911
85292SOL    HW157708   8.084   2.872   3.851
85292SOL    HW257709   7.955   2.941   3.889
85293SOL     OW57710   9.671  13.216  12.440
85293SOL    HW157711   9.711  13.297  12.470
85293SOL    HW257712   9.634  13.177  12.520
85294SOL     OW57713  10.845   9.327   7.782
85294SOL    HW157714  10.791   9.375   7.719
85294SOL    HW257715  10.928   9.374   7.783
85295SOL     OW57716   3.965  11.953   2.810
85295SOL    HW157717   3.898  12.019   2.826
85295SOL    HW257718   3.931  11.874   2.851
85296SOL     OW57719  14.253  13.968   7.655
85296SOL    HW157720  14.286  13.945   7.568
85296SOL    HW257721  14.235  13.884   7.697
85297SOL     OW57722  10.409   7.651   4.322
85297SOL    HW157723  10.454   7.702   4.254
85297SOL    HW257724  10.477   7.633   4.387
85298SOL     OW57725   2.600   3.169  10.771
85298SOL    HW157726   2.558   3.238  10.719
85298SOL    HW257727   2.596   3.091  10.715
85299SOL     OW57728   9.273   8.908   7.934
85299SOL    HW157729   9.193   8.912   7.881
85299SOL    HW257730   9.251   8.849   8.006
85300SOL     OW57731  10.025   6.664   3.290
85300SOL    HW157732  10.121   6.656   3.284
85300SOL    HW257733  10.002   6.723   3.218
85301SOL     OW57734   8.982  11.143  14.522
85301SOL    HW157735   8.995  11.202  14.447
85301SOL    HW257736   8.936  11.196  14.586
85302SOL     OW57737   3.981  13.871  11.862
85302SOL    HW157738   3.908  13.923  11.895
85302SOL    HW257739   4.002  13.910  11.777
85303SOL     OW57740   5.562   2.232  11.933
85303SOL    HW157741   5.501   2.269  11.870
85303SOL    HW257742   5.612   2.307  11.965
85304SOL     OW57743   3.402   0.536   9.996
85304SOL    HW157744   3.348   0.592  10.052
85304SOL    HW257745   3.345   0.514   9.922
85305SOL     OW57746  10.488  14.694   1.114
85305SOL    HW157747  10.430  14.708   1.039
85305SOL    HW257748  10.428  14.666   1.184
85306SOL     OW57749   5.918   9.409   1.644
85306SOL    HW157750   5.906   9.503   1.650
85306SOL    HW257751   5.831   9.375   1.620
85307SOL     OW57752   4.458   8.444   5.484
85307SOL    HW157753   4.458   8.533   5.449
85307SOL    HW257754   4.449   8.388   5.407
85308SOL     OW57755   2.408  11.090   8.602
85308SOL    HW157756   2.419  11.026   8.532
85308SOL    HW257757   2.362  11.042   8.671
85309SOL     OW57758  11.096   0.696  10.803
85309SOL    HW157759  11.169   0.645  10.769
85309SOL    HW257760  11.129   0.785  10.809
85310SOL     OW57761   3.498   0.148   9.369
85310SOL    HW157762   3.426   0.211   9.375
85310SOL    HW257763   3.460   0.065   9.398
85311SOL     OW57764  11.410   8.183   4.181
85311SOL    HW157765  11.318   8.205   4.186
85311SOL    HW257766  11.456   8.263   4.208
85312SOL     OW57767  14.405   9.313   8.766
85312SOL    HW157768  14.381   9.381   8.703
85312SOL    HW257769  14.459   9.251   8.716
85313SOL     OW57770   9.751  11.467   6.707
85313SOL    HW157771   9.776  11.521   6.633
85313SOL    HW257772   9.672  11.421   6.678
85314SOL     OW57773   4.164   9.497   2.194
85314SOL    HW157774   4.251   9.537   2.185
85314SOL    HW257775   4.104   9.557   2.151
85315SOL     OW57776   7.489  11.807   1.840
85315SOL    HW157777   7.449  11.877   1.892
85315SOL    HW257778   7.415  11.769   1.792
85316SOL     OW57779   8.353   7.701   1.801
85316SOL    HW157780   8.379   7.658   1.882
85316SOL    HW257781   8.410   7.777   1.794
85317SOL     OW57782   3.674   3.566  11.740
85317SOL    HW157783   3.639   3.633  11.799
85317SOL    HW257784   3.614   3.492  11.749
85318SOL     OW57785   1.165   1.836   4.356
85318SOL    HW157786   1.253   1.835   4.319
85318SOL    HW257787   1.175   1.806   4.446
85319SOL     OW57788   4.748   0.594   7.168
85319SOL    HW157789   4.793   0.635   7.242
85319SOL    HW257790   4.704   0.518   7.205
85320SOL     OW57791   5.528   5.009   3.498
85320SOL    HW157792   5.589   4.956   3.549
85320SOL    HW257793   5.441   4.977   3.523
85321SOL     OW57794   1.715   0.333   2.410
85321SOL    HW157795   1.703   0.389   2.487
85321SOL    HW257796   1.697   0.390   2.336
85322SOL     OW57797  13.268   8.327   9.016
85322SOL    HW157798  13.234   8.416   9.024
85322SOL    HW257799  13.210   8.285   8.952
85323SOL     OW57800   2.732   1.377  10.014
85323SOL    HW157801   2.812   1.406  10.059
85323SOL    HW257802   2.764   1.335   9.934
85324SOL     OW57803   9.961  14.074   1.660
85324SOL    HW157804   9.935  14.057   1.751
85324SOL    HW257805   9.895  14.134   1.627
85325SOL     OW57806   6.872   5.358   4.193
85325SOL    HW157807   6.865   5.348   4.288
85325SOL    HW257808   6.803   5.420   4.170
85326SOL     OW57809   7.438  13.560   7.757
85326SOL    HW157810   7.480  13.497   7.815
85326SOL    HW257811   7.375  13.508   7.707
85327SOL     OW57812   6.351  11.512   9.300
85327SOL    HW157813   6.443  11.487   9.310
85327SOL    HW257814   6.351  11.607   9.314
85328SOL     OW57815  12.290   4.224   3.710
85328SOL    HW157816  12.382   4.199   3.703
85328SOL    HW257817  12.265   4.245   3.620
85329SOL     OW57818   1.608   5.793   6.537
85329SOL    HW157819   1.689   5.837   6.511
85329SOL    HW257820   1.637   5.726   6.599
85330SOL     OW57821   0.607   9.264  14.032
85330SOL    HW157822   0.591   9.338  13.973
85330SOL    HW257823   0.668   9.299  14.097
85331SOL     OW57824   0.573   7.395   5.885
85331SOL    HW157825   0.605   7.478   5.850
85331SOL    HW257826   0.478   7.407   5.892
85332SOL     OW57827  12.683  14.852   1.939
85332SOL    HW157828  12.682  14.797   2.018
85332SOL    HW257829  12.776  14.868   1.923
85333SOL     OW57830   9.373   4.508  14.801
85333SOL    HW157831   9.410   4.502   0.017
85333SOL    HW257832   9.285   4.543  14.814
85334SOL     OW57833   8.719  14.741   4.818
85334SOL    HW157834   8.666  14.662   4.815
85334SOL    HW257835   8.657  14.812   4.835
85335SOL     OW57836   6.123   0.443   9.086
85335SOL    HW157837   6.215   0.448   9.061
85335SOL    HW257838   6.096   0.534   9.099
85336SOL     OW57839   8.633   2.439   7.166
85336SOL    HW157840   8.698   2.508   7.182
85336SOL    HW257841   8.549   2.485   7.168
85337SOL     OW57842   9.418  14.591   7.439
85337SOL    HW157843   9.478  14.568   7.510
85337SOL    HW257844   9.471  14.640   7.377
85338SOL     OW57845   9.195  10.422  11.709
85338SOL    HW157846   9.151  10.471  11.778
85338SOL    HW257847   9.268  10.379  11.753
85339SOL     OW57848   2.075   2.636   3.412
85339SOL    HW157849   2.017   2.568   3.377
85339SOL    HW257850   2.146   2.588   3.455
85340SOL     OW57851   4.926   5.579   5.268
85340SOL    HW157852   4.926   5.597   5.362
85340SOL    HW257853   4.850   5.522   5.255
85341SOL     OW57854  11.263   2.285   5.266
85341SOL    HW157855  11.260   2.203   5.217
85341SOL    HW257856  11.176   2.292   5.305
85342SOL     OW57857   3.148   6.953   1.898
85342SOL    HW157858   3.070   7.005   1.918
85342SOL    HW257859   3.220   7.001   1.937
85343SOL     OW57860  11.867   3.929  10.393
85343SOL    HW157861  11.818   3.847  10.403
85343SOL    HW257862  11.820   3.977  10.324
85344SOL     OW57863  10.923  13.593  14.150
85344SOL    HW157864  10.866  13.532  14.196
85344SOL    HW257865  10.869  13.671  14.137
85345SOL     OW57866  10.486  10.776   6.036
85345SOL    HW157867  10.506  10.717   5.963
85345SOL    HW257868  10.550  10.846   6.028
85346SOL     OW57869   6.639   0.729  12.902
85346SOL    HW157870   6.572   0.667  12.876
85346SOL    HW257871   6.654   0.710  12.995
85347SOL     OW57872   6.174  12.110   0.069
85347SOL    HW157873   6.116  12.047   0.112
85347SOL    HW257874   6.161  12.094  14.847
85348SOL     OW57875  12.695   2.455   3.287
85348SOL    HW157876  12.645   2.422   3.212
85348SOL    HW257877  12.720   2.376   3.335
85349SOL     OW57878   5.744   6.724   5.478
85349SOL    HW157879   5.668   6.668   5.494
85349SOL    HW257880   5.710   6.813   5.484
85350SOL     OW57881  10.155  10.860  12.363
85350SOL    HW157882  10.171  10.909  12.444
85350SOL    HW257883  10.221  10.891  12.302
85351SOL     OW57884  11.480  11.248   9.133
85351SOL    HW157885  11.552  11.241   9.072
85351SOL    HW257886  11.486  11.170   9.188
85352SOL     OW57887  13.868   9.857   6.949
85352SOL    HW157888  13.903   9.841   7.036
85352SOL    HW257889  13.834   9.772   6.920
85353SOL     OW57890  11.871   5.723   0.766
85353SOL    HW157891  11.870   5.661   0.693
85353SOL    HW257892  11.888   5.808   0.725
85354SOL     OW57893  13.070   3.381   5.022
85354SOL    HW157894  13.154   3.391   4.977
85354SOL    HW257895  13.006   3.369   4.952
85355SOL     OW57896   7.338   6.970  14.258
85355SOL    HW157897   7.359   7.032  14.328
85355SOL    HW257898   7.297   7.024  14.190
85356SOL     OW57899   9.134   5.727   1.621
85356SOL    HW157900   9.159   5.651   1.674
85356SOL    HW257901   9.082   5.690   1.549
85357SOL     OW57902  10.434  10.115   1.989
85357SOL    HW157903  10.363  10.052   1.977
85357SOL    HW257904  10.487  10.106   1.910
85358SOL     OW57905  10.812   9.078  10.122
85358SOL    HW157906  10.841   9.074  10.213
85358SOL    HW257907  10.731   9.026  10.121
85359SOL     OW57908  12.883   6.247   8.934
85359SOL    HW157909  12.800   6.201   8.920
85359SOL    HW257910  12.892   6.305   8.859
85360SOL     OW57911   5.778   0.206   7.455
85360SOL    HW157912   5.741   0.280   7.407
85360SOL    HW257913   5.747   0.217   7.545
85361SOL     OW57914   6.083  10.042   1.491
85361SOL    HW157915   6.153  10.047   1.426
85361SOL    HW257916   6.003  10.053   1.440
85362SOL     OW57917   0.618  12.616  13.343
85362SOL    HW157918   0.597  12.535  13.296
85362SOL    HW257919   0.695  12.650  13.298
85363SOL     OW57920   2.148   9.353  12.961
85363SOL    HW157921   2.205   9.422  12.996
85363SOL    HW257922   2.067   9.362  13.011
85364SOL     OW57923   7.352  14.288   0.642
85364SOL    HW157924   7.427  14.243   0.604
85364SOL    HW257925   7.286  14.287   0.573
85365SOL     OW57926  13.386  11.668   0.490
85365SOL    HW157927  13.456  11.606   0.469
85365SOL    HW257928  13.357  11.642   0.578
85366SOL     OW57929   1.999   0.650   9.324
85366SOL    HW157930   1.930   0.599   9.283
85366SOL    HW257931   1.994   0.736   9.282
85367SOL     OW57932   2.272  11.302  13.036
85367SOL    HW157933   2.276  11.376  13.097
85367SOL    HW257934   2.237  11.339  12.955
85368SOL     OW57935   9.280   6.893   2.621
85368SOL    HW157936   9.244   6.980   2.602
85368SOL    HW257937   9.321   6.866   2.539
85369SOL     OW57938  14.764  11.426   4.600
85369SOL    HW157939  14.776  11.352   4.541
85369SOL    HW257940  14.846  11.429   4.651
85370SOL     OW57941   5.999  11.972  12.145
85370SOL    HW157942   5.974  11.960  12.237
85370SOL    HW257943   5.942  12.042  12.113
85371SOL     OW57944   8.977  13.107  12.920
85371SOL    HW157945   8.962  13.146  13.006
85371SOL    HW257946   8.929  13.025  12.921
85372SOL     OW57947   8.705   5.857   1.017
85372SOL    HW157948   8.679   5.787   0.956
85372SOL    HW257949   8.747   5.810   1.089
85373SOL     OW57950   3.082  11.811   5.966
85373SOL    HW157951   3.129  11.848   5.891
85373SOL    HW257952   3.053  11.725   5.935
85374SOL     OW57953   0.871   2.647   3.488
85374SOL    HW157954   0.961   2.659   3.458
85374SOL    HW257955   0.843   2.735   3.513
85375SOL     OW57956   0.887  11.881   4.530
85375SOL    HW157957   0.972  11.838   4.532
85375SOL    HW257958   0.850  11.857   4.445
85376SOL     OW57959  12.555   1.453   1.163
85376SOL    HW157960  12.504   1.482   1.239
85376SOL    HW257961  12.645   1.476   1.184
85377SOL     OW57962  10.288  10.090   3.659
85377SOL    HW157963  10.268  10.037   3.582
85377SOL    HW257964  10.264  10.034   3.733
85378SOL     OW57965  11.992   5.968  12.141
85378SOL    HW157966  11.963   6.029  12.209
85378SOL    HW257967  11.911   5.939  12.099
85379SOL     OW57968  12.922   9.583  11.272
85379SOL    HW157969  13.009   9.569  11.310
85379SOL    HW257970  12.909   9.508  11.213
85380SOL     OW57971   3.209   8.207   8.579
85380SOL    HW157972   3.181   8.136   8.522
85380SOL    HW257973   3.254   8.165   8.651
85381SOL     OW57974   4.539   5.514   0.728
85381SOL    HW157975   4.622   5.557   0.706
85381SOL    HW257976   4.482   5.586   0.757
85382SOL     OW57977   1.444   2.179   3.296
85382SOL    HW157978   1.439   2.263   3.251
85382SOL    HW257979   1.390   2.120   3.244
85383SOL     OW57980   0.191   1.090   6.315
85383SOL    HW157981   0.102   1.086   6.278
85383SOL    HW257982   0.179   1.079   6.409
85384SOL     OW57983   5.751   8.140   4.115
85384SOL    HW157984   5.746   8.208   4.047
85384SOL    HW257985   5.660   8.116   4.132
85385SOL     OW57986   8.980  11.405   6.624
85385SOL    HW157987   8.942  11.435   6.706
85385SOL    HW257988   9.027  11.325   6.646
85386SOL     OW57989  10.694  12.031   4.608
85386SOL    HW157990  10.672  12.123   4.620
85386SOL    HW257991  10.610  11.987   4.596
85387SOL     OW57992   1.730  12.289   4.403
85387SOL    HW157993   1.701  12.197   4.404
85387SOL    HW257994   1.689  12.326   4.325
85388SOL     OW57995   8.889  11.534   9.395
85388SOL    HW157996   8.840  11.456   9.420
85388SOL    HW257997   8.858  11.555   9.307
85389SOL     OW57998   8.905   7.460   7.634
85389SOL    HW157999   8.851   7.441   7.711
85389SOL    HW258000   8.990   7.484   7.670
85390SOL     OW58001  10.243  12.669  13.777
85390SOL    HW158002  10.264  12.577  13.764
85390SOL    HW258003  10.175  12.670  13.843
85391SOL     OW58004  11.072   9.423   5.775
85391SOL    HW158005  11.122   9.504   5.766
85391SOL    HW258006  11.032   9.430   5.862
85392SOL     OW58007   8.617  13.338   3.646
85392SOL    HW158008   8.628  13.252   3.686
85392SOL    HW258009   8.705  13.363   3.618
85393SOL     OW58010   5.923   0.847  13.161
85393SOL    HW158011   5.909   0.835  13.067
85393SOL    HW258012   5.836   0.867  13.196
85394SOL     OW58013  10.116   7.149   7.766
85394SOL    HW158014  10.196   7.122   7.812
85394SOL    HW258015  10.081   7.221   7.820
85395SOL     OW58016   3.854   3.112   3.394
85395SOL    HW158017   3.831   3.137   3.305
85395SOL    HW258018   3.876   3.019   3.388
85396SOL     OW58019   7.695   5.388   5.635
85396SOL    HW158020   7.731   5.381   5.547
85396SOL    HW258021   7.763   5.353   5.692
85397SOL     OW58022  12.795   5.461   7.818
85397SOL    HW158023  12.855   5.455   7.892
85397SOL    HW258024  12.833   5.403   7.752
85398SOL     OW58025  10.360   2.965  13.355
85398SOL    HW158026  10.376   2.975  13.261
85398SOL    HW258027  10.270   2.935  13.361
85399SOL     OW58028   8.402   7.167   1.292
85399SOL    HW158029   8.464   7.238   1.302
85399SOL    HW258030   8.330   7.205   1.242
85400SOL     OW58031  13.076   3.689   9.759
85400SOL    HW158032  13.076   3.757   9.691
85400SOL    HW258033  12.985   3.662   9.765
85401SOL     OW58034   1.359   9.629   1.883
85401SOL    HW158035   1.362   9.560   1.950
85401SOL    HW258036   1.334   9.708   1.932
85402SOL     OW58037  13.219   0.696   5.829
85402SOL    HW158038  13.283   0.627   5.814
85402SOL    HW258039  13.146   0.675   5.770
85403SOL     OW58040   5.214  13.802  13.608
85403SOL    HW158041   5.207  13.866  13.537
85403SOL    HW258042   5.307  13.783  13.615
85404SOL     OW58043  13.141  14.772   7.788
85404SOL    HW158044  13.182  14.802   7.708
85404SOL    HW258045  13.073  14.837   7.807
85405SOL     OW58046   3.399  14.623   9.254
85405SOL    HW158047   3.487  14.608   9.219
85405SOL    HW258048   3.342  14.566   9.203
85406SOL     OW58049  14.824   1.033   2.208
85406SOL    HW158050  14.763   1.084   2.155
85406SOL    HW258051   0.038   1.053   2.172
85407SOL     OW58052   6.810   3.235   1.479
85407SOL    HW158053   6.866   3.312   1.462
85407SOL    HW258054   6.865   3.177   1.532
85408SOL     OW58055  10.406   8.931  12.308
85408SOL    HW158056  10.409   9.018  12.349
85408SOL    HW258057  10.346   8.880  12.363
85409SOL     OW58058   1.104   7.487  11.347
85409SOL    HW158059   1.009   7.484  11.345
85409SOL    HW258060   1.126   7.579  11.359
85410SOL     OW58061  10.099   9.139   4.999
85410SOL    HW158062  10.014   9.111   4.964
85410SOL    HW258063  10.126   9.210   4.942
85411SOL     OW58064   8.131   4.495   3.673
85411SOL    HW158065   8.176   4.431   3.729
85411SOL    HW258066   8.193   4.568   3.667
85412SOL     OW58067  10.035  10.198  10.540
85412SOL    HW158068  10.107  10.179  10.479
85412SOL    HW258069   9.963  10.226  10.483
85413SOL     OW58070  14.406  14.502  12.974
85413SOL    HW158071  14.432  14.410  12.973
85413SOL    HW258072  14.388  14.521  13.067
85414SOL     OW58073  11.671  11.731  12.852
85414SOL    HW158074  11.741  11.795  12.837
85414SOL    HW258075  11.703  11.651  12.810
85415SOL     OW58076   9.041  11.763   5.749
85415SOL    HW158077   9.002  11.814   5.819
85415SOL    HW258078   8.976  11.763   5.679
85416SOL     OW58079  11.523   2.514   9.530
85416SOL    HW158080  11.615   2.499   9.509
85416SOL    HW258081  11.501   2.444   9.592
85417SOL     OW58082   5.956   2.567   4.164
85417SOL    HW158083   5.953   2.574   4.260
85417SOL    HW258084   6.045   2.590   4.141
85418SOL     OW58085  11.679   6.474  14.673
85418SOL    HW158086  11.687   6.415  14.597
85418SOL    HW258087  11.611   6.537  14.647
85419SOL     OW58088   8.699   9.741   4.419
85419SOL    HW158089   8.623   9.788   4.453
85419SOL    HW258090   8.718   9.783   4.336
85420SOL     OW58091  10.248   3.207   0.962
85420SOL    HW158092  10.313   3.250   0.907
85420SOL    HW258093  10.188   3.276   0.988
85421SOL     OW58094   2.905   9.594  13.204
85421SOL    HW158095   2.868   9.532  13.267
85421SOL    HW258096   2.974   9.545  13.160
85422SOL     OW58097   8.145   1.047   0.175
85422SOL    HW158098   8.116   0.958   0.154
85422SOL    HW258099   8.204   1.036   0.250
85423SOL     OW58100   5.335   5.932   0.177
85423SOL    HW158101   5.241   5.927   0.159
85423SOL    HW258102   5.345   6.011   0.230
85424SOL     OW58103   1.486   4.038   5.395
85424SOL    HW158104   1.487   4.034   5.491
85424SOL    HW258105   1.574   4.010   5.370
85425SOL     OW58106   8.193  11.566   7.612
85425SOL    HW158107   8.119  11.588   7.556
85425SOL    HW258108   8.156  11.511   7.681
85426SOL     OW58109  13.919   6.162   3.856
85426SOL    HW158110  13.841   6.210   3.884
85426SOL    HW258111  13.937   6.100   3.927
85427SOL     OW58112   1.006  14.693   2.003
85427SOL    HW158113   1.070  14.663   2.069
85427SOL    HW258114   1.059  14.738   1.937
85428SOL     OW58115   7.961   2.347  12.190
85428SOL    HW158116   8.053   2.321  12.184
85428SOL    HW258117   7.952   2.418  12.127
85429SOL     OW58118   1.514   2.035   8.363
85429SOL    HW158119   1.593   2.006   8.318
85429SOL    HW258120   1.543   2.112   8.413
85430SOL     OW58121   2.384   3.279  12.402
85430SOL    HW158122   2.319   3.346  12.382
85430SOL    HW258123   2.358   3.244  12.487
85431SOL     OW58124   0.950   7.011  11.829
85431SOL    HW158125   0.861   7.026  11.861
85431SOL    HW258126   0.939   6.975  11.742
85432SOL     OW58127   2.550   4.733  11.962
85432SOL    HW158128   2.523   4.810  11.912
85432SOL    HW258129   2.638   4.714  11.930
85433SOL     OW58130   9.118   4.287   7.394
85433SOL    HW158131   9.050   4.320   7.335
85433SOL    HW258132   9.075   4.279   7.479
85434SOL     OW58133  12.825  14.447  11.258
85434SOL    HW158134  12.747  14.417  11.211
85434SOL    HW258135  12.804  14.434  11.350
85435SOL     OW58136   8.410  11.452  13.979
85435SOL    HW158137   8.344  11.500  14.029
85435SOL    HW258138   8.383  11.361  13.984
85436SOL     OW58139   2.748   0.786  13.112
85436SOL    HW158140   2.725   0.831  13.194
85436SOL    HW258141   2.770   0.697  13.140
85437SOL     OW58142  10.781  12.850  10.011
85437SOL    HW158143  10.711  12.792  10.039
85437SOL    HW258144  10.737  12.931   9.985
85438SOL     OW58145   4.680   0.243  14.148
85438SOL    HW158146   4.718   0.160  14.178
85438SOL    HW258147   4.586   0.225  14.142
85439SOL     OW58148  10.418  11.387   5.072
85439SOL    HW158149  10.387  11.428   4.991
85439SOL    HW258150  10.365  11.307   5.079
85440SOL     OW58151   8.058   3.203   6.442
85440SOL    HW158152   7.989   3.188   6.377
85440SOL    HW258153   8.109   3.276   6.408
85441SOL     OW58154  14.667   0.918  14.514
85441SOL    HW158155  14.666   0.822  14.504
85441SOL    HW258156  14.575   0.943  14.512
85442SOL     OW58157   6.268   2.290  13.554
85442SOL    HW158158   6.290   2.200  13.528
85442SOL    HW258159   6.186   2.282  13.603
85443SOL     OW58160   4.186  12.429   7.063
85443SOL    HW158161   4.220  12.507   7.020
85443SOL    HW258162   4.239  12.418   7.141
85444SOL     OW58163   1.611   9.035   0.062
85444SOL    HW158164   1.657   8.969   0.009
85444SOL    HW258165   1.677   9.066   0.124
85445SOL     OW58166  10.148   5.072   4.230
85445SOL    HW158167  10.209   5.060   4.158
85445SOL    HW258168  10.199   5.115   4.298
85446SOL     OW58169   9.715   5.740   4.572
85446SOL    HW158170   9.758   5.776   4.650
85446SOL    HW258171   9.625   5.723   4.600
85447SOL     OW58172   1.255   6.046   1.377
85447SOL    HW158173   1.184   5.995   1.340
85447SOL    HW258174   1.243   6.134   1.341
85448SOL     OW58175   6.788  10.660  10.387
85448SOL    HW158176   6.704  10.702  10.400
85448SOL    HW258177   6.833  10.666  10.471
85449SOL     OW58178  10.760  13.054   8.778
85449SOL    HW158179  10.738  13.072   8.869
85449SOL    HW258180  10.707  13.116   8.728
85450SOL     OW58181   5.560   3.973   9.525
85450SOL    HW158182   5.542   3.979   9.619
85450SOL    HW258183   5.519   3.891   9.498
85451SOL     OW58184   6.262   5.898  13.904
85451SOL    HW158185   6.288   5.829  13.843
85451SOL    HW258186   6.198   5.857  13.962
85452SOL     OW58187  12.342   4.419  14.530
85452SOL    HW158188  12.368   4.394  14.618
85452SOL    HW258189  12.250   4.392  14.524
85453SOL     OW58190   6.539  13.827  14.586
85453SOL    HW158191   6.460  13.824  14.639
85453SOL    HW258192   6.581  13.742  14.600
85454SOL     OW58193   6.232   7.750   5.841
85454SOL    HW158194   6.158   7.794   5.798
85454SOL    HW258195   6.207   7.658   5.842
85455SOL     OW58196   1.679   8.427  12.615
85455SOL    HW158197   1.738   8.354  12.632
85455SOL    HW258198   1.721   8.503  12.654
85456SOL     OW58199  10.431   0.128   1.251
85456SOL    HW158200  10.370   0.079   1.306
85456SOL    HW258201  10.517   0.115   1.292
85457SOL     OW58202   5.221   9.438   1.550
85457SOL    HW158203   5.193   9.449   1.641
85457SOL    HW258204   5.317   9.444   1.554
85458SOL     OW58205   8.181   8.279   3.328
85458SOL    HW158206   8.228   8.340   3.385
85458SOL    HW258207   8.098   8.322   3.310
85459SOL     OW58208   3.302  12.587  14.504
85459SOL    HW158209   3.226  12.568  14.560
85459SOL    HW258210   3.374  12.540  14.546
85460SOL     OW58211   1.052   7.920   6.976
85460SOL    HW158212   0.989   7.851   6.955
85460SOL    HW258213   1.010   7.970   7.045
85461SOL     OW58214  11.273  13.443  10.616
85461SOL    HW158215  11.320  13.442  10.533
85461SOL    HW258216  11.340  13.457  10.682
85462SOL     OW58217   9.211   6.916  11.074
85462SOL    HW158218   9.241   6.952  10.991
85462SOL    HW258219   9.119   6.940  11.079
85463SOL     OW58220   2.535  11.619   7.438
85463SOL    HW158221   2.610  11.619   7.497
85463SOL    HW258222   2.573  11.629   7.351
85464SOL     OW58223   3.424   1.470   3.481
85464SOL    HW158224   3.448   1.554   3.520
85464SOL    HW258225   3.424   1.487   3.387
85465SOL     OW58226   7.066  14.586   1.219
85465SOL    HW158227   7.068  14.516   1.284
85465SOL    HW258228   6.988  14.637   1.241
85466SOL     OW58229   2.868  13.346  12.891
85466SOL    HW158230   2.955  13.325  12.859
85466SOL    HW258231   2.846  13.429  12.849
85467SOL     OW58232  12.967  12.585  12.553
85467SOL    HW158233  13.026  12.650  12.515
85467SOL    HW258234  12.881  12.607  12.517
85468SOL     OW58235   0.845  13.448   9.409
85468SOL    HW158236   0.805  13.534   9.425
85468SOL    HW258237   0.922  13.467   9.355
85469SOL     OW58238  12.167  11.422   0.366
85469SOL    HW158239  12.099  11.485   0.343
85469SOL    HW258240  12.125  11.362   0.428
85470SOL     OW58241  14.091  12.690   2.756
85470SOL    HW158242  14.013  12.680   2.702
85470SOL    HW258243  14.089  12.782   2.783
85471SOL     OW58244   3.268   0.116   2.326
85471SOL    HW158245   3.291   0.023   2.328
85471SOL    HW258246   3.221   0.126   2.243
85472SOL     OW58247   4.557   0.442   0.206
85472SOL    HW158248   4.463   0.450   0.195
85472SOL    HW258249   4.593   0.521   0.166
85473SOL     OW58250   0.684  14.237   2.922
85473SOL    HW158251   0.595  14.267   2.942
85473SOL    HW258252   0.690  14.150   2.962
85474SOL     OW58253  13.978  10.640   5.329
85474SOL    HW158254  14.016  10.719   5.291
85474SOL    HW258255  14.003  10.644   5.421
85475SOL     OW58256   7.213   3.170   2.529
85475SOL    HW158257   7.158   3.246   2.508
85475SOL    HW258258   7.226   3.126   2.445
85476SOL     OW58259   2.248   8.164   1.262
85476SOL    HW158260   2.169   8.182   1.212
85476SOL    HW258261   2.247   8.230   1.332
85477SOL     OW58262   8.365   0.602  10.884
85477SOL    HW158263   8.297   0.575  10.823
85477SOL    HW258264   8.438   0.543  10.866
85478SOL     OW58265   0.369   4.528   4.203
85478SOL    HW158266   0.286   4.557   4.165
85478SOL    HW258267   0.375   4.575   4.286
85479SOL     OW58268  11.544   4.265   4.159
85479SOL    HW158269  11.607   4.208   4.204
85479SOL    HW258270  11.575   4.267   4.069
85480SOL     OW58271   9.877   4.843   8.572
85480SOL    HW158272   9.789   4.812   8.592
85480SOL    HW258273   9.865   4.908   8.503
85481SOL     OW58274   2.216   0.612   5.404
85481SOL    HW158275   2.242   0.654   5.322
85481SOL    HW258276   2.298   0.584   5.444
85482SOL     OW58277  12.901   9.323   2.362
85482SOL    HW158278  12.991   9.293   2.349
85482SOL    HW258279  12.902   9.366   2.447
85483SOL     OW58280   8.245  13.915   4.108
85483SOL    HW158281   8.186  13.979   4.149
85483SOL    HW258282   8.333  13.942   4.136
85484SOL     OW58283   6.931  12.684  10.005
85484SOL    HW158284   6.936  12.776   9.980
85484SOL    HW258285   6.977  12.679  10.089
85485SOL     OW58286   3.922  10.027   4.872
85485SOL    HW158287   3.898   9.935   4.886
85485SOL    HW258288   3.867  10.076   4.933
85486SOL     OW58289  14.568   3.266   8.063
85486SOL    HW158290  14.552   3.178   8.027
85486SOL    HW258291  14.493   3.317   8.033
85487SOL     OW58292   7.325   8.302   3.184
85487SOL    HW158293   7.234   8.331   3.194
85487SOL    HW258294   7.332   8.272   3.094
85488SOL     OW58295   4.946  13.305   7.044
85488SOL    HW158296   4.913  13.295   6.954
85488SOL    HW258297   5.029  13.258   7.044
85489SOL     OW58298  14.776   5.486   7.036
85489SOL    HW158299  14.681   5.479   7.045
85489SOL    HW258300  14.789   5.553   6.970
85490SOL     OW58301  11.272  11.220  11.100
85490SOL    HW158302  11.283  11.151  11.035
85490SOL    HW258303  11.202  11.275  11.064
85491SOL     OW58304   7.053   0.351   7.380
85491SOL    HW158305   7.015   0.336   7.293
85491SOL    HW258306   7.126   0.410   7.364
85492SOL     OW58307  13.859  10.009   4.631
85492SOL    HW158308  13.878  10.090   4.677
85492SOL    HW258309  13.900  10.019   4.545
85493SOL     OW58310   3.065   7.717   1.666
85493SOL    HW158311   3.101   7.672   1.590
85493SOL    HW258312   3.071   7.653   1.737
85494SOL     OW58313  11.326   3.337  10.726
85494SOL    HW158314  11.299   3.339  10.634
85494SOL    HW258315  11.324   3.244  10.750
85495SOL     OW58316   3.314   6.891  10.393
85495SOL    HW158317   3.318   6.968  10.337
85495SOL    HW258318   3.390   6.838  10.368
85496SOL     OW58319   6.340   6.287   9.687
85496SOL    HW158320   6.412   6.278   9.749
85496SOL    HW258321   6.300   6.371   9.709
85497SOL     OW58322  10.622  10.257  14.758
85497SOL    HW158323  10.713  10.230  14.747
85497SOL    HW258324  10.575  10.207  14.690
85498SOL     OW58325   4.408   9.518   8.365
85498SOL    HW158326   4.332   9.462   8.381
85498SOL    HW258327   4.374   9.593   8.318
85499SOL     OW58328   0.570   2.184   6.163
85499SOL    HW158329   0.654   2.163   6.204
85499SOL    HW258330   0.545   2.268   6.201
85500SOL     OW58331  10.990   1.565   9.613
85500SOL    HW158332  10.900   1.563   9.646
85500SOL    HW258333  11.021   1.653   9.633
85501SOL     OW58334   2.115   2.434  12.481
85501SOL    HW158335   2.185   2.410  12.541
85501SOL    HW258336   2.160   2.476  12.408
85502SOL     OW58337   7.590   7.911   4.319
85502SOL    HW158338   7.511   7.858   4.315
85502SOL    HW258339   7.566   7.993   4.276
85503SOL     OW58340   5.264  10.063   1.005
85503SOL    HW158341   5.205  10.120   1.054
85503SOL    HW258342   5.351  10.097   1.023
85504SOL     OW58343  11.352  13.186   4.754
85504SOL    HW158344  11.429  13.131   4.765
85504SOL    HW258345  11.352  13.243   4.831
85505SOL     OW58346   7.647  13.887  14.006
85505SOL    HW158347   7.640  13.858  13.915
85505SOL    HW258348   7.652  13.806  14.057
85506SOL     OW58349   3.863   1.265  11.131
85506SOL    HW158350   3.789   1.211  11.159
85506SOL    HW258351   3.901   1.297  11.213
85507SOL     OW58352   8.442   1.718   1.654
85507SOL    HW158353   8.401   1.641   1.615
85507SOL    HW258354   8.536   1.703   1.643
85508SOL     OW58355   1.847   5.103  11.963
85508SOL    HW158356   1.912   5.113  12.033
85508SOL    HW258357   1.871   5.170  11.899
85509SOL     OW58358  14.617   5.140   7.666
85509SOL    HW158359  14.673   5.173   7.737
85509SOL    HW258360  14.537   5.112   7.710
85510SOL     OW58361  11.815  10.971   2.888
85510SOL    HW158362  11.802  11.066   2.892
85510SOL    HW258363  11.753  10.935   2.952
85511SOL     OW58364   1.198   7.015   8.476
85511SOL    HW158365   1.151   7.098   8.477
85511SOL    HW258366   1.131   6.948   8.492
85512SOL     OW58367   1.635   9.289   6.233
85512SOL    HW158368   1.594   9.309   6.149
85512SOL    HW258369   1.562   9.276   6.294
85513SOL     OW58370   9.756  13.051   0.957
85513SOL    HW158371   9.739  13.005   1.039
85513SOL    HW258372   9.807  12.990   0.904
85514SOL     OW58373  14.448   1.695  11.931
85514SOL    HW158374  14.440   1.790  11.944
85514SOL    HW258375  14.365   1.669  11.893
85515SOL     OW58376   2.583  14.068   8.715
85515SOL    HW158377   2.553  13.986   8.677
85515SOL    HW258378   2.511  14.130   8.701
85516SOL     OW58379  12.550   9.121  13.407
85516SOL    HW158380  12.608   9.046  13.404
85516SOL    HW258381  12.470   9.091  13.363
85517SOL     OW58382  10.433   1.054  14.043
85517SOL    HW158383  10.427   1.096  14.128
85517SOL    HW258384  10.511   1.091  14.003
85518SOL     OW58385   2.476  12.307   9.477
85518SOL    HW158386   2.565  12.327   9.449
85518SOL    HW258387   2.428  12.389   9.466
85519SOL     OW58388   4.281  12.385   5.834
85519SOL    HW158389   4.352  12.429   5.879
85519SOL    HW258390   4.256  12.444   5.763
85520SOL     OW58391   4.680   2.753   9.886
85520SOL    HW158392   4.625   2.713   9.954
85520SOL    HW258393   4.765   2.710   9.895
85521SOL     OW58394   5.178  13.642   3.843
85521SOL    HW158395   5.123  13.653   3.765
85521SOL    HW258396   5.231  13.722   3.845
85522SOL     OW58397   0.218  12.549   8.207
85522SOL    HW158398   0.263  12.630   8.182
85522SOL    HW258399   0.163  12.528   8.132
85523SOL     OW58400  13.584   0.870   2.309
85523SOL    HW158401  13.619   0.814   2.240
85523SOL    HW258402  13.619   0.957   2.289
85524SOL     OW58403   6.281   3.214  11.911
85524SOL    HW158404   6.285   3.119  11.899
85524SOL    HW258405   6.266   3.249  11.823
85525SOL     OW58406   2.539   0.813   0.160
85525SOL    HW158407   2.454   0.825   0.118
85525SOL    HW258408   2.518   0.780   0.248
85526SOL     OW58409  11.558  13.141   8.863
85526SOL    HW158410  11.466  13.126   8.842
85526SOL    HW258411  11.606  13.083   8.804
85527SOL     OW58412   9.160  14.650   8.107
85527SOL    HW158413   9.066  14.640   8.090
85527SOL    HW258414   9.199  14.660   8.020
85528SOL     OW58415   1.129  14.013   8.443
85528SOL    HW158416   1.140  14.102   8.408
85528SOL    HW258417   1.069  14.023   8.516
85529SOL     OW58418   2.280  10.908   2.699
85529SOL    HW158419   2.305  10.991   2.660
85529SOL    HW258420   2.295  10.843   2.629
85530SOL     OW58421   1.959   9.065   0.464
85530SOL    HW158422   2.000   9.000   0.407
85530SOL    HW258423   1.875   9.084   0.421
85531SOL     OW58424   1.251   7.799   3.162
85531SOL    HW158425   1.268   7.859   3.088
85531SOL    HW258426   1.276   7.849   3.239
85532SOL     OW58427  12.708   5.638   8.607
85532SOL    HW158428  12.719   5.557   8.656
85532SOL    HW258429  12.684   5.610   8.519
85533SOL     OW58430   6.839  13.444  14.329
85533SOL    HW158431   6.924  13.405  14.308
85533SOL    HW258432   6.836  13.524  14.278
85534SOL     OW58433  10.589  13.165  10.527
85534SOL    HW158434  10.587  13.257  10.500
85534SOL    HW258435  10.628  13.167  10.614
85535SOL     OW58436   7.557   5.767  14.547
85535SOL    HW158437   7.477   5.765  14.598
85535SOL    HW258438   7.584   5.859  14.548
85536SOL     OW58439   6.302   8.226  11.478
85536SOL    HW158440   6.397   8.232  11.466
85536SOL    HW258441   6.291   8.176  11.558
85537SOL     OW58442  11.197   9.007  10.877
85537SOL    HW158443  11.287   8.976  10.885
85537SOL    HW258444  11.193   9.047  10.790
85538SOL     OW58445  10.134   6.176   7.977
85538SOL    HW158446  10.181   6.254   7.947
85538SOL    HW258447  10.044   6.188   7.945
85539SOL     OW58448   8.693  12.426  12.622
85539SOL    HW158449   8.684  12.388  12.535
85539SOL    HW258450   8.649  12.364  12.680
85540SOL     OW58451   0.092   3.318  10.331
85540SOL    HW158452   0.128   3.304  10.243
85540SOL    HW258453   0.019   3.379  10.317
85541SOL     OW58454   4.001  11.816   7.835
85541SOL    HW158455   3.958  11.816   7.920
85541SOL    HW258456   3.929  11.807   7.772
85542SOL     OW58457   6.768  12.719   6.256
85542SOL    HW158458   6.826  12.694   6.185
85542SOL    HW258459   6.749  12.811   6.241
85543SOL     OW58460   7.797   1.534   9.255
85543SOL    HW158461   7.713   1.530   9.209
85543SOL    HW258462   7.803   1.625   9.285
85544SOL     OW58463  13.313   2.295   6.488
85544SOL    HW158464  13.336   2.387   6.477
85544SOL    HW258465  13.222   2.297   6.519
85545SOL     OW58466   7.727   3.561  13.567
85545SOL    HW158467   7.797   3.529  13.624
85545SOL    HW258468   7.763   3.640  13.527
85546SOL     OW58469   7.216  11.582  12.642
85546SOL    HW158470   7.246  11.498  12.677
85546SOL    HW258471   7.122  11.584  12.660
85547SOL     OW58472   7.670   1.659   3.183
85547SOL    HW158473   7.580   1.681   3.161
85547SOL    HW258474   7.664   1.576   3.230
85548SOL     OW58475   3.814   3.032   9.167
85548SOL    HW158476   3.788   3.065   9.081
85548SOL    HW258477   3.740   3.053   9.224
85549SOL     OW58478   2.536   6.458   5.574
85549SOL    HW158479   2.611   6.517   5.568
85549SOL    HW258480   2.541   6.423   5.663
85550SOL     OW58481   3.316  10.101  10.261
85550SOL    HW158482   3.319  10.171  10.326
85550SOL    HW258483   3.224  10.091  10.239
85551SOL     OW58484   1.366  13.565  12.700
85551SOL    HW158485   1.378  13.489  12.758
85551SOL    HW258486   1.294  13.614  12.739
85552SOL     OW58487  11.402   9.502   6.660
85552SOL    HW158488  11.358   9.549   6.589
85552SOL    HW258489  11.346   9.516   6.736
85553SOL     OW58490  12.863   9.849  13.302
85553SOL    HW158491  12.855   9.938  13.268
85553SOL    HW258492  12.817   9.851  13.386
85554SOL     OW58493   2.592  11.301  13.040
85554SOL    HW158494   2.554  11.356  12.972
85554SOL    HW258495   2.571  11.211  13.013
85555SOL     OW58496   3.852   6.058   1.109
85555SOL    HW158497   3.904   6.117   1.055
85555SOL    HW258498   3.771   6.046   1.059
85556SOL     OW58499  10.019  11.552   5.964
85556SOL    HW158500  10.040  11.644   5.951
85556SOL    HW258501   9.975  11.525   5.883
85557SOL     OW58502   7.506   7.938   7.817
85557SOL    HW158503   7.596   7.944   7.850
85557SOL    HW258504   7.516   7.904   7.728
85558SOL     OW58505  10.898  14.376   7.332
85558SOL    HW158506  10.887  14.304   7.393
85558SOL    HW258507  10.955  14.341   7.263
85559SOL     OW58508   4.798  13.705  10.862
85559SOL    HW158509   4.747  13.695  10.782
85559SOL    HW258510   4.850  13.784  10.848
85560SOL     OW58511  13.426   2.278  11.723
85560SOL    HW158512  13.344   2.238  11.752
85560SOL    HW258513  13.401   2.334  11.649
85561SOL     OW58514   7.403   4.254   8.223
85561SOL    HW158515   7.359   4.338   8.212
85561SOL    HW258516   7.423   4.225   8.134
85562SOL     OW58517   7.931  11.424  12.680
85562SOL    HW158518   8.024  11.446  12.675
85562SOL    HW258519   7.907  11.441  12.771
85563SOL     OW58520   0.248  12.859   5.946
85563SOL    HW158521   0.336  12.862   5.907
85563SOL    HW258522   0.242  12.772   5.985
85564SOL     OW58523   8.559  10.271   7.553
85564SOL    HW158524   8.477  10.306   7.517
85564SOL    HW258525   8.571  10.188   7.507
85565SOL     OW58526  11.896   5.713   9.345
85565SOL    HW158527  11.839   5.779   9.383
85565SOL    HW258528  11.850   5.630   9.360
85566SOL     OW58529   0.582  10.740  13.393
85566SOL    HW158530   0.505  10.722  13.339
85566SOL    HW258531   0.563  10.695  13.476
85567SOL     OW58532   5.967   8.477   4.389
85567SOL    HW158533   5.925   8.517   4.314
85567SOL    HW258534   5.936   8.386   4.389
85568SOL     OW58535   5.029  14.634   8.836
85568SOL    HW158536   5.101  14.592   8.883
85568SOL    HW258537   4.974  14.562   8.806
85569SOL     OW58538   4.258  14.155   1.126
85569SOL    HW158539   4.269  14.080   1.185
85569SOL    HW258540   4.347  14.186   1.110
85570SOL     OW58541   7.869  14.184  12.456
85570SOL    HW158542   7.851  14.262  12.404
85570SOL    HW258543   7.949  14.147  12.418
85571SOL     OW58544   0.223  10.331   5.568
85571SOL    HW158545   0.185  10.270   5.631
85571SOL    HW258546   0.317  10.313   5.572
85572SOL     OW58547  12.382   2.928   6.135
85572SOL    HW158548  12.427   3.007   6.165
85572SOL    HW258549  12.304   2.959   6.090
85573SOL     OW58550   4.488   1.382   0.179
85573SOL    HW158551   4.563   1.442   0.186
85573SOL    HW258552   4.454   1.398   0.091
85574SOL     OW58553   3.309   5.086  10.510
85574SOL    HW158554   3.347   4.999  10.524
85574SOL    HW258555   3.384   5.140  10.484
85575SOL     OW58556   1.665  13.897   6.113
85575SOL    HW158557   1.678  13.865   6.202
85575SOL    HW258558   1.753  13.912   6.079
85576SOL     OW58559  13.229   1.050   2.662
85576SOL    HW158560  13.278   1.129   2.638
85576SOL    HW258561  13.250   0.987   2.593
85577SOL     OW58562  10.078   1.625   9.977
85577SOL    HW158563  10.166   1.655   9.954
85577SOL    HW258564  10.020   1.677   9.922
85578SOL     OW58565   3.766   0.322   0.522
85578SOL    HW158566   3.792   0.402   0.568
85578SOL    HW258567   3.711   0.274   0.584
85579SOL     OW58568   6.181  14.335   0.739
85579SOL    HW158569   6.193  14.423   0.775
85579SOL    HW258570   6.150  14.283   0.812
85580SOL     OW58571   4.514   9.956   4.020
85580SOL    HW158572   4.578   9.987   4.084
85580SOL    HW258573   4.490   9.869   4.050
85581SOL     OW58574  14.309   3.924  14.127
85581SOL    HW158575  14.370   3.983  14.083
85581SOL    HW258576  14.287   3.969  14.209
85582SOL     OW58577   9.732   3.497   2.983
85582SOL    HW158578   9.763   3.508   3.073
85582SOL    HW258579   9.784   3.424   2.949
85583SOL     OW58580   5.578   6.505   8.067
85583SOL    HW158581   5.647   6.552   8.115
85583SOL    HW258582   5.579   6.544   7.980
85584SOL     OW58583   0.926   1.843   9.297
85584SOL    HW158584   0.915   1.932   9.263
85584SOL    HW258585   0.856   1.793   9.255
85585SOL     OW58586   3.043   3.315  14.434
85585SOL    HW158587   3.114   3.309  14.370
85585SOL    HW258588   2.996   3.395  14.410
85586SOL     OW58589   4.233   5.244   4.918
85586SOL    HW158590   4.321   5.275   4.896
85586SOL    HW258591   4.247   5.166   4.972
85587SOL     OW58592   7.506   2.807  10.959
85587SOL    HW158593   7.492   2.794  11.053
85587SOL    HW258594   7.576   2.746  10.937
85588SOL     OW58595   4.382   6.147   0.606
85588SOL    HW158596   4.422   6.093   0.538
85588SOL    HW258597   4.455   6.174   0.662
85589SOL     OW58598   3.565   6.785   0.514
85589SOL    HW158599   3.510   6.822   0.445
85589SOL    HW258600   3.624   6.726   0.467
85590SOL     OW58601   3.398   5.344  14.214
85590SOL    HW158602   3.382   5.401  14.139
85590SOL    HW258603   3.452   5.273  14.179
85591SOL     OW58604  12.435  11.525   3.295
85591SOL    HW158605  12.395  11.484   3.218
85591SOL    HW258606  12.453  11.453   3.355
85592SOL     OW58607  13.459   9.724   8.841
85592SOL    HW158608  13.554   9.737   8.847
85592SOL    HW258609  13.422   9.800   8.886
85593SOL     OW58610  11.689   4.642   6.068
85593SOL    HW158611  11.764   4.623   6.012
85593SOL    HW258612  11.707   4.727   6.107
85594SOL     OW58613   9.368   3.902   9.596
85594SOL    HW158614   9.438   3.843   9.622
85594SOL    HW258615   9.413   3.980   9.561
85595SOL     OW58616  13.301  13.144   3.125
85595SOL    HW158617  13.340  13.180   3.046
85595SOL    HW258618  13.285  13.220   3.181
85596SOL     OW58619   9.082   0.070   6.352
85596SOL    HW158620   9.137   0.008   6.304
85596SOL    HW258621   8.992   0.040   6.334
85597SOL     OW58622   3.944  12.013  14.348
85597SOL    HW158623   3.938  11.930  14.395
85597SOL    HW258624   3.858  12.024  14.307
85598SOL     OW58625   7.421  12.945   4.911
85598SOL    HW158626   7.442  12.851   4.918
85598SOL    HW258627   7.505  12.989   4.922
85599SOL     OW58628  11.112   4.165  13.373
85599SOL    HW158629  11.085   4.148  13.463
85599SOL    HW258630  11.161   4.086  13.348
85600SOL     OW58631  13.201   1.104   8.650
85600SOL    HW158632  13.175   1.100   8.558
85600SOL    HW258633  13.213   1.013   8.676
85601SOL     OW58634   0.398   3.694   3.263
85601SOL    HW158635   0.345   3.745   3.202
85601SOL    HW258636   0.344   3.618   3.283
85602SOL     OW58637   9.230  13.812   4.474
85602SOL    HW158638   9.287  13.867   4.529
85602SOL    HW258639   9.231  13.854   4.388
85603SOL     OW58640   7.389  12.855   3.838
85603SOL    HW158641   7.439  12.934   3.855
85603SOL    HW258642   7.305  12.887   3.803
85604SOL     OW58643   4.219  14.404  13.116
85604SOL    HW158644   4.128  14.433  13.103
85604SOL    HW258645   4.211  14.324  13.168
85605SOL     OW58646  12.135  14.072   1.682
85605SOL    HW158647  12.085  14.147   1.653
85605SOL    HW258648  12.072  14.018   1.730
85606SOL     OW58649  13.977   9.266   4.986
85606SOL    HW158650  13.933   9.324   4.925
85606SOL    HW258651  14.022   9.324   5.047
85607SOL     OW58652  13.109   7.350   0.155
85607SOL    HW158653  13.087   7.435   0.195
85607SOL    HW258654  13.163   7.372   0.080
85608SOL     OW58655   0.172  10.935   7.303
85608SOL    HW158656   0.110  10.880   7.256
85608SOL    HW258657   0.117  10.992   7.358
85609SOL     OW58658  10.381   9.972   2.821
85609SOL    HW158659  10.352  10.003   2.907
85609SOL    HW258660  10.404  10.052   2.774
85610SOL     OW58661  11.884   1.483   6.218
85610SOL    HW158662  11.959   1.430   6.193
85610SOL    HW258663  11.833   1.492   6.137
85611SOL     OW58664  13.331   0.510  12.963
85611SOL    HW158665  13.275   0.581  12.994
85611SOL    HW258666  13.391   0.552  12.901
85612SOL     OW58667   7.556  11.612   5.570
85612SOL    HW158668   7.511  11.551   5.511
85612SOL    HW258669   7.494  11.684   5.582
85613SOL     OW58670   0.075   5.399   2.934
85613SOL    HW158671  14.870   5.452   2.915
85613SOL    HW258672   0.074   5.388   3.029
85614SOL     OW58673   8.913   4.900   0.644
85614SOL    HW158674   9.002   4.877   0.617
85614SOL    HW258675   8.920   4.919   0.737
85615SOL     OW58676  14.023  10.733   0.059
85615SOL    HW158677  14.023  10.644   0.022
85615SOL    HW258678  13.932  10.761   0.053
85616SOL     OW58679   4.753   6.153   0.477
85616SOL    HW158680   4.816   6.201   0.422
85616SOL    HW258681   4.767   6.188   0.565
85617SOL     OW58682  10.884   0.547  10.002
85617SOL    HW158683  10.883   0.520   9.911
85617SOL    HW258684  10.947   0.489  10.045
85618SOL     OW58685  13.570   2.926   8.395
85618SOL    HW158686  13.565   2.838   8.434
85618SOL    HW258687  13.529   2.983   8.460
85619SOL     OW58688   4.747   1.099  13.507
85619SOL    HW158689   4.789   1.016  13.481
85619SOL    HW258690   4.717   1.136  13.424
85620SOL     OW58691   0.746   9.229   0.006
85620SOL    HW158692   0.840   9.221   0.019
85620SOL    HW258693   0.724   9.158  14.818
85621SOL     OW58694  12.802  12.658   8.623
85621SOL    HW158695  12.822  12.605   8.546
85621SOL    HW258696  12.887  12.681   8.660
85622SOL     OW58697   7.958   8.512  14.628
85622SOL    HW158698   7.959   8.605  14.649
85622SOL    HW258699   7.866   8.486  14.637
85623SOL     OW58700   3.435   4.157   9.026
85623SOL    HW158701   3.456   4.250   9.036
85623SOL    HW258702   3.459   4.137   8.936
85624SOL     OW58703  13.669   3.751   6.099
85624SOL    HW158704  13.655   3.845   6.097
85624SOL    HW258705  13.605   3.718   6.162
85625SOL     OW58706   3.777  11.358  13.801
85625SOL    HW158707   3.697  11.321  13.764
85625SOL    HW258708   3.847  11.300  13.772
85626SOL     OW58709   7.352   9.135  10.389
85626SOL    HW158710   7.376   9.118  10.481
85626SOL    HW258711   7.256   9.136  10.389
85627SOL     OW58712  12.898   1.829  12.342
85627SOL    HW158713  12.886   1.884  12.265
85627SOL    HW258714  12.912   1.741  12.307
85628SOL     OW58715  14.237   8.708  12.298
85628SOL    HW158716  14.235   8.686  12.205
85628SOL    HW258717  14.166   8.771  12.309
85629SOL     OW58718   6.304  11.564   5.476
85629SOL    HW158719   6.227  11.533   5.522
85629SOL    HW258720   6.378  11.534   5.528
85630SOL     OW58721   0.958   7.706   0.170
85630SOL    HW158722   0.866   7.678   0.169
85630SOL    HW258723   0.989   7.687   0.082
85631SOL     OW58724  13.804   2.462   4.839
85631SOL    HW158725  13.880   2.475   4.783
85631SOL    HW258726  13.828   2.501   4.923
85632SOL     OW58727   5.640   0.822  11.923
85632SOL    HW158728   5.609   0.755  11.984
85632SOL    HW258729   5.597   0.800  11.840
85633SOL     OW58730   9.740   3.240   7.497
85633SOL    HW158731   9.669   3.182   7.469
85633SOL    HW258732   9.724   3.321   7.448
85634SOL     OW58733  11.699  11.284  11.099
85634SOL    HW158734  11.627  11.270  11.161
85634SOL    HW258735  11.737  11.368  11.126
85635SOL     OW58736   5.851   8.747   9.228
85635SOL    HW158737   5.862   8.841   9.237
85635SOL    HW258738   5.763   8.736   9.191
85636SOL     OW58739   0.648   1.451  13.503
85636SOL    HW158740   0.689   1.421  13.584
85636SOL    HW258741   0.565   1.490  13.531
85637SOL     OW58742  12.015  10.622   6.932
85637SOL    HW158743  11.919  10.617   6.925
85637SOL    HW258744  12.046  10.542   6.890
85638SOL     OW58745  11.596   7.225   2.910
85638SOL    HW158746  11.581   7.244   2.818
85638SOL    HW258747  11.653   7.148   2.910
85639SOL     OW58748  11.228  10.631  11.692
85639SOL    HW158749  11.288  10.562  11.717
85639SOL    HW258750  11.225  10.629  11.596
85640SOL     OW58751   6.775   7.588   4.716
85640SOL    HW158752   6.828   7.665   4.737
85640SOL    HW258753   6.760   7.594   4.622
85641SOL     OW58754   2.490   0.913  12.958
85641SOL    HW158755   2.518   0.821  12.956
85641SOL    HW258756   2.526   0.951  12.878
85642SOL     OW58757   3.893  13.373   6.250
85642SOL    HW158758   3.911  13.298   6.194
85642SOL    HW258759   3.979  13.408   6.272
85643SOL     OW58760  12.484   0.500   4.798
85643SOL    HW158761  12.536   0.464   4.726
85643SOL    HW258762  12.395   0.506   4.762
85644SOL     OW58763  13.598  10.183   5.346
85644SOL    HW158764  13.692  10.171   5.331
85644SOL    HW258765  13.594  10.229   5.430
85645SOL     OW58766  11.450   6.903   4.832
85645SOL    HW158767  11.471   6.880   4.742
85645SOL    HW258768  11.358   6.930   4.830
85646SOL     OW58769  10.066  11.515  10.109
85646SOL    HW158770  10.024  11.557  10.184
85646SOL    HW258771  10.026  11.428  10.104
85647SOL     OW58772  11.726  12.417   0.899
85647SOL    HW158773  11.812  12.385   0.872
85647SOL    HW258774  11.744  12.501   0.940
85648SOL     OW58775  13.383  11.035   9.937
85648SOL    HW158776  13.399  10.941   9.943
85648SOL    HW258777  13.295  11.047   9.974
85649SOL     OW58778   0.151  12.332   4.866
85649SOL    HW158779   0.228  12.288   4.830
85649SOL    HW258780   0.104  12.365   4.789
85650SOL     OW58781   8.068  10.360   7.230
85650SOL    HW158782   8.091  10.321   7.314
85650SOL    HW258783   8.087  10.453   7.242
85651SOL     OW58784   2.657   3.889   7.340
85651SOL    HW158785   2.673   3.794   7.338
85651SOL    HW258786   2.636   3.908   7.431
85652SOL     OW58787   1.634  12.994   4.714
85652SOL    HW158788   1.646  12.929   4.645
85652SOL    HW258789   1.721  13.031   4.726
85653SOL     OW58790   3.612  12.730   1.827
85653SOL    HW158791   3.625  12.794   1.896
85653SOL    HW258792   3.583  12.781   1.752
85654SOL     OW58793   1.678  13.261   1.119
85654SOL    HW158794   1.642  13.343   1.085
85654SOL    HW258795   1.742  13.233   1.053
85655SOL     OW58796   6.722   7.705   5.209
85655SOL    HW158797   6.663   7.637   5.174
85655SOL    HW258798   6.697   7.714   5.301
85656SOL     OW58799   4.320   8.696   0.494
85656SOL    HW158800   4.309   8.770   0.554
85656SOL    HW258801   4.273   8.722   0.415
85657SOL     OW58802   6.510  14.698   5.772
85657SOL    HW158803   6.459  14.773   5.742
85657SOL    HW258804   6.518  14.642   5.694
85658SOL     OW58805   0.571   0.445  10.495
85658SOL    HW158806   0.532   0.372  10.447
85658SOL    HW258807   0.653   0.410  10.530
85659SOL     OW58808   3.674  10.006   7.418
85659SOL    HW158809   3.609  10.018   7.487
85659SOL    HW258810   3.757  10.027   7.460
85660SOL     OW58811   5.316   2.712   1.080
85660SOL    HW158812   5.298   2.805   1.096
85660SOL    HW258813   5.229   2.673   1.068
85661SOL     OW58814   6.175   6.276   8.036
85661SOL    HW158815   6.180   6.300   7.943
85661SOL    HW258816   6.155   6.358   8.081
85662SOL     OW58817   0.839  14.681  12.937
85662SOL    HW158818   0.767  14.709  12.994
85662SOL    HW258819   0.800  14.676  12.850
85663SOL     OW58820   6.953  13.965   7.171
85663SOL    HW158821   6.954  13.955   7.266
85663SOL    HW258822   6.986  14.053   7.156
85664SOL     OW58823   4.582   5.808   5.225
85664SOL    HW158824   4.562   5.719   5.255
85664SOL    HW258825   4.673   5.803   5.195
85665SOL     OW58826  12.128  10.804   1.153
85665SOL    HW158827  12.038  10.835   1.161
85665SOL    HW258828  12.166  10.819   1.239
85666SOL     OW58829  10.185  13.468  14.484
85666SOL    HW158830  10.177  13.560  14.511
85666SOL    HW258831  10.117  13.457  14.418
85667SOL     OW58832   0.292   7.991  11.586
85667SOL    HW158833   0.381   7.970  11.556
85667SOL    HW258834   0.261   7.909  11.626
85668SOL     OW58835   3.706   8.085  12.104
85668SOL    HW158836   3.759   8.121  12.174
85668SOL    HW258837   3.624   8.135  12.108
85669SOL     OW58838   2.294  10.236  14.127
85669SOL    HW158839   2.229  10.288  14.175
85669SOL    HW258840   2.309  10.285  14.046
85670SOL     OW58841   5.018  11.690   0.704
85670SOL    HW158842   5.096  11.655   0.747
85670SOL    HW258843   4.945  11.652   0.753
85671SOL     OW58844   4.547   1.578  11.642
85671SOL    HW158845   4.535   1.666  11.608
85671SOL    HW258846   4.551   1.589  11.737
85672SOL     OW58847   8.033   7.755   8.850
85672SOL    HW158848   8.034   7.848   8.826
85672SOL    HW258849   8.100   7.747   8.918
85673SOL     OW58850   2.346   0.906   4.870
85673SOL    HW158851   2.304   0.825   4.840
85673SOL    HW258852   2.433   0.904   4.830
85674SOL     OW58853   2.887   4.881   8.696
85674SOL    HW158854   2.969   4.895   8.744
85674SOL    HW258855   2.911   4.817   8.628
85675SOL     OW58856   1.867   6.852   3.753
85675SOL    HW158857   1.852   6.790   3.825
85675SOL    HW258858   1.962   6.865   3.752
85676SOL     OW58859   9.805  12.853  12.484
85676SOL    HW158860   9.757  12.816  12.410
85676SOL    HW258861   9.886  12.888  12.444
85677SOL     OW58862   6.786   6.653   5.263
85677SOL    HW158863   6.868   6.625   5.222
85677SOL    HW258864   6.794   6.748   5.271
85678SOL     OW58865   8.723   0.228  10.540
85678SOL    HW158866   8.764   0.181  10.613
85678SOL    HW258867   8.629   0.223  10.559
85679SOL     OW58868   2.906   4.723   8.957
85679SOL    HW158869   2.868   4.706   8.871
85679SOL    HW258870   2.954   4.805   8.947
85680SOL     OW58871   9.301  12.872   3.124
85680SOL    HW158872   9.291  12.950   3.178
85680SOL    HW258873   9.241  12.885   3.051
85681SOL     OW58874  14.522  13.971   4.893
85681SOL    HW158875  14.517  13.938   4.983
85681SOL    HW258876  14.598  14.028   4.893
85682SOL     OW58877   9.572  14.636   2.082
85682SOL    HW158878   9.606  14.631   1.993
85682SOL    HW258879   9.595  14.552   2.122
85683SOL     OW58880   0.739   2.721  12.001
85683SOL    HW158881   0.654   2.758  11.976
85683SOL    HW258882   0.720   2.665  12.076
85684SOL     OW58883   0.795   1.967   1.475
85684SOL    HW158884   0.871   1.982   1.419
85684SOL    HW258885   0.765   2.054   1.499
85685SOL     OW58886   7.405   8.019   4.853
85685SOL    HW158887   7.415   7.957   4.925
85685SOL    HW258888   7.461   7.986   4.783
85686SOL     OW58889   2.032  12.333   8.126
85686SOL    HW158890   1.973  12.367   8.192
85686SOL    HW258891   1.975  12.306   8.054
85687SOL     OW58892   8.076   3.486  12.796
85687SOL    HW158893   7.984   3.511  12.792
85687SOL    HW258894   8.123   3.563  12.762
85688SOL     OW58895   4.484   9.662   7.297
85688SOL    HW158896   4.546   9.729   7.329
85688SOL    HW258897   4.540   9.589   7.269
85689SOL     OW58898  14.333   9.956   5.173
85689SOL    HW158899  14.298   9.953   5.084
85689SOL    HW258900  14.257   9.943   5.230
85690SOL     OW58901   8.213   2.498  11.272
85690SOL    HW158902   8.230   2.445  11.349
85690SOL    HW258903   8.117   2.496  11.261
85691SOL     OW58904   8.006  10.666   2.777
85691SOL    HW158905   7.968  10.579   2.758
85691SOL    HW258906   8.039  10.658   2.866
85692SOL     OW58907  12.389   7.583   5.841
85692SOL    HW158908  12.436   7.629   5.910
85692SOL    HW258909  12.320   7.644   5.813
85693SOL     OW58910   2.906  13.363  12.150
85693SOL    HW158911   2.861  13.357  12.234
85693SOL    HW258912   2.899  13.275  12.113
85694SOL     OW58913   7.245  13.342   2.009
85694SOL    HW158914   7.255  13.296   1.926
85694SOL    HW258915   7.166  13.304   2.048
85695SOL     OW58916   7.776  12.967   9.838
85695SOL    HW158917   7.813  12.919   9.765
85695SOL    HW258918   7.806  13.057   9.827
85696SOL     OW58919   7.913   7.498   3.217
85696SOL    HW158920   7.820   7.490   3.237
85696SOL    HW258921   7.921   7.467   3.127
85697SOL     OW58922  11.229   7.984  12.177
85697SOL    HW158923  11.200   8.005  12.088
85697SOL    HW258924  11.260   8.068  12.212
85698SOL     OW58925   1.878  13.006   2.404
85698SOL    HW158926   1.958  12.985   2.451
85698SOL    HW258927   1.822  12.929   2.414
85699SOL     OW58928  14.532   7.197  14.394
85699SOL    HW158929  14.499   7.131  14.333
85699SOL    HW258930  14.580   7.147  14.460
85700SOL     OW58931   2.409   2.638  10.819
85700SOL    HW158932   2.337   2.701  10.817
85700SOL    HW258933   2.375   2.562  10.772
85701SOL     OW58934   3.413  12.611  11.487
85701SOL    HW158935   3.422  12.685  11.546
85701SOL    HW258936   3.334  12.629  11.436
85702SOL     OW58937   5.397   0.169   6.119
85702SOL    HW158938   5.391   0.260   6.146
85702SOL    HW258939   5.359   0.119   6.192
85703SOL     OW58940   3.380  13.217   8.506
85703SOL    HW158941   3.470  13.249   8.508
85703SOL    HW258942   3.327  13.292   8.479
85704SOL     OW58943   2.559   4.364   3.117
85704SOL    HW158944   2.574   4.427   3.047
85704SOL    HW258945   2.647   4.341   3.148
85705SOL     OW58946   0.609   0.506  13.847
85705SOL    HW158947   0.562   0.422  13.838
85705SOL    HW258948   0.694   0.490  13.806
85706SOL     OW58949  10.069  14.505  12.146
85706SOL    HW158950  10.085  14.427  12.092
85706SOL    HW258951   9.997  14.549  12.102
85707SOL     OW58952  11.174   3.363  12.812
85707SOL    HW158953  11.230   3.377  12.735
85707SOL    HW258954  11.188   3.440  12.866
85708SOL     OW58955   5.326   4.638   3.098
85708SOL    HW158956   5.256   4.646   3.162
85708SOL    HW258957   5.377   4.719   3.108
85709SOL     OW58958   7.399  10.731   3.365
85709SOL    HW158959   7.482  10.731   3.414
85709SOL    HW258960   7.364  10.819   3.379
85710SOL     OW58961   0.280   5.840  14.741
85710SOL    HW158962   0.364   5.861  14.700
85710SOL    HW258963   0.295   5.852  14.834
85711SOL     OW58964   2.121  14.066  10.834
85711SOL    HW158965   2.099  14.009  10.908
85711SOL    HW258966   2.094  14.153  10.863
85712SOL     OW58967  12.226   0.819   0.037
85712SOL    HW158968  12.240   0.901  14.863
85712SOL    HW258969  12.298   0.813   0.099
85713SOL     OW58970   0.599  14.346  10.045
85713SOL    HW158971   0.670  14.403  10.071
85713SOL    HW258972   0.521  14.401  10.048
85714SOL     OW58973   3.022  10.207   7.369
85714SOL    HW158974   3.069  10.252   7.298
85714SOL    HW258975   2.959  10.273   7.400
85715SOL     OW58976  13.180   7.153  10.607
85715SOL    HW158977  13.150   7.062  10.610
85715SOL    HW258978  13.152   7.184  10.520
85716SOL     OW58979   5.530   9.239   2.869
85716SOL    HW158980   5.558   9.312   2.813
85716SOL    HW258981   5.552   9.268   2.958
85717SOL     OW58982  14.554   6.603  14.738
85717SOL    HW158983  14.507   6.535  14.689
85717SOL    HW258984  14.551   6.680  14.681
85718SOL     OW58985   2.823   9.026   8.133
85718SOL    HW158986   2.732   9.041   8.157
85718SOL    HW258987   2.825   8.936   8.100
85719SOL     OW58988   0.308  13.168   6.924
85719SOL    HW158989   0.248  13.239   6.903
85719SOL    HW258990   0.292  13.151   7.017
85720SOL     OW58991  13.446   3.111  12.506
85720SOL    HW158992  13.510   3.040  12.510
85720SOL    HW258993  13.479   3.176  12.567
85721SOL     OW58994  11.249   8.057   6.666
85721SOL    HW158995  11.345   8.052   6.666
85721SOL    HW258996  11.229   8.142   6.628
85722SOL     OW58997   0.254   1.776   3.653
85722SOL    HW158998   0.167   1.748   3.622
85722SOL    HW258999   0.258   1.869   3.633
85723SOL     OW59000   3.834  11.844   0.347
85723SOL    HW159001   3.817  11.763   0.299
85723SOL    HW259002   3.913  11.880   0.306
85724SOL     OW59003  13.017   7.646   8.740
85724SOL    HW159004  12.952   7.578   8.724
85724SOL    HW259005  13.021   7.695   8.658
85725SOL     OW59006  10.430  10.324  13.369
85725SOL    HW159007  10.464  10.265  13.436
85725SOL    HW259008  10.452  10.412  13.401
85726SOL     OW59009   6.800   4.704   3.284
85726SOL    HW159010   6.716   4.665   3.310
85726SOL    HW259011   6.779   4.795   3.262
85727SOL     OW59012   4.182   7.721   2.439
85727SOL    HW159013   4.237   7.792   2.472
85727SOL    HW259014   4.166   7.666   2.515
85728SOL     OW59015   5.586  13.070  14.544
85728SOL    HW159016   5.678  13.095  14.553
85728SOL    HW259017   5.552  13.073  14.633
85729SOL     OW59018   6.790   6.636   1.213
85729SOL    HW159019   6.721   6.676   1.159
85729SOL    HW259020   6.756   6.643   1.302
85730SOL     OW59021   3.751   1.792  12.940
85730SOL    HW159022   3.815   1.795  12.869
85730SOL    HW259023   3.685   1.730  12.908
85731SOL     OW59024   3.103  14.838   0.337
85731SOL    HW159025   3.077   0.054   0.308
85731SOL    HW259026   3.044  14.819   0.410
85732SOL     OW59027  13.999   3.608   8.417
85732SOL    HW159028  14.046   3.579   8.495
85732SOL    HW259029  13.977   3.700   8.434
85733SOL     OW59030   2.745   9.228   1.335
85733SOL    HW159031   2.672   9.184   1.291
85733SOL    HW259032   2.737   9.319   1.308
85734SOL     OW59033  13.693  12.938   7.753
85734SOL    HW159034  13.759  12.987   7.704
85734SOL    HW259035  13.643  13.005   7.799
85735SOL     OW59036  14.164  14.438   0.047
85735SOL    HW159037  14.204  14.485   0.120
85735SOL    HW259038  14.192  14.487  14.842
85736SOL     OW59039  13.769   3.517   7.927
85736SOL    HW159040  13.841   3.514   7.990
85736SOL    HW259041  13.726   3.601   7.944
85737SOL     OW59042   6.688   0.557   0.790
85737SOL    HW159043   6.605   0.520   0.822
85737SOL    HW259044   6.712   0.622   0.857
85738SOL     OW59045   9.726  11.303   3.270
85738SOL    HW159046   9.693  11.236   3.330
85738SOL    HW259047   9.669  11.378   3.283
85739SOL     OW59048   6.169   1.472   8.391
85739SOL    HW159049   6.228   1.511   8.327
85739SOL    HW259050   6.106   1.422   8.339
85740SOL     OW59051  11.468  11.377   1.674
85740SOL    HW159052  11.460  11.417   1.588
85740SOL    HW259053  11.378  11.359   1.700
85741SOL     OW59054  12.873   5.378   3.976
85741SOL    HW159055  12.895   5.286   3.959
85741SOL    HW259056  12.837   5.409   3.892
85742SOL     OW59057  12.735  11.086  12.139
85742SOL    HW159058  12.648  11.056  12.114
85742SOL    HW259059  12.747  11.168  12.090
85743SOL     OW59060   0.945  13.165  13.825
85743SOL    HW159061   0.945  13.200  13.914
85743SOL    HW259062   1.018  13.103  13.824
85744SOL     OW59063  10.492   0.930   5.225
85744SOL    HW159064  10.400   0.956   5.214
85744SOL    HW259065  10.492   0.877   5.304
85745SOL     OW59066  14.054   4.121  12.869
85745SOL    HW159067  14.139   4.162  12.854
85745SOL    HW259068  14.066   4.031  12.840
85746SOL     OW59069   0.586   0.496  14.118
85746SOL    HW159070   0.595   0.510  14.023
85746SOL    HW259071   0.529   0.566  14.147
85747SOL     OW59072   7.207  13.392   7.256
85747SOL    HW159073   7.295  13.359   7.236
85747SOL    HW259074   7.150  13.346   7.194
85748SOL     OW59075  13.608  12.871  10.150
85748SOL    HW159076  13.628  12.965  10.158
85748SOL    HW259077  13.674  12.828  10.204
85749SOL     OW59078   4.395   7.944   6.861
85749SOL    HW159079   4.336   8.004   6.816
85749SOL    HW259080   4.389   7.862   6.812
85750SOL     OW59081   7.000   9.745   6.551
85750SOL    HW159082   7.055   9.823   6.563
85750SOL    HW259083   6.921   9.763   6.602
85751SOL     OW59084   0.067  14.414   5.128
85751SOL    HW159085   0.084  14.434   5.036
85751SOL    HW259086  14.847  14.437   5.141
85752SOL     OW59087   0.721   8.196   5.401
85752SOL    HW159088   0.700   8.243   5.482
85752SOL    HW259089   0.635   8.176   5.363
85753SOL     OW59090   9.517   2.240  10.022
85753SOL    HW159091   9.483   2.243   9.932
85753SOL    HW259092   9.534   2.332  10.044
85754SOL     OW59093   5.631  11.213   9.494
85754SOL    HW159094   5.712  11.217   9.442
85754SOL    HW259095   5.657  11.168   9.574
85755SOL     OW59096   2.969  12.746   1.337
85755SOL    HW159097   2.876  12.723   1.345
85755SOL    HW259098   2.973  12.806   1.263
85756SOL     OW59099   6.255  10.731   5.928
85756SOL    HW159100   6.329  10.747   5.870
85756SOL    HW259101   6.185  10.785   5.893
85757SOL     OW59102   7.705   9.030   7.516
85757SOL    HW159103   7.763   9.021   7.441
85757SOL    HW259104   7.730   9.113   7.556
85758SOL     OW59105  13.675   8.748   9.256
85758SOL    HW159106  13.708   8.660   9.239
85758SOL    HW259107  13.648   8.746   9.347
85759SOL     OW59108   0.673   3.263   9.956
85759SOL    HW159109   0.635   3.337   9.907
85759SOL    HW259110   0.680   3.296  10.046
85760SOL     OW59111   2.385   5.301   4.519
85760SOL    HW159112   2.368   5.291   4.425
85760SOL    HW259113   2.465   5.353   4.523
85761SOL     OW59114   1.463   0.371   8.448
85761SOL    HW159115   1.555   0.353   8.468
85761SOL    HW259116   1.466   0.449   8.391
85762SOL     OW59117   2.708  12.296  13.968
85762SOL    HW159118   2.802  12.318  13.972
85762SOL    HW259119   2.664  12.380  13.975
85763SOL     OW59120   1.270  12.421   2.189
85763SOL    HW159121   1.197  12.437   2.129
85763SOL    HW259122   1.233  12.434   2.276
85764SOL     OW59123   4.702   4.132   8.977
85764SOL    HW159124   4.743   4.049   8.953
85764SOL    HW259125   4.672   4.168   8.893
85765SOL     OW59126   1.637  14.677  11.115
85765SOL    HW159127   1.617  14.770  11.129
85765SOL    HW259128   1.565  14.631  11.159
85766SOL     OW59129  12.021   2.084   4.162
85766SOL    HW159130  11.974   2.131   4.093
85766SOL    HW259131  12.069   2.151   4.210
85767SOL     OW59132   3.209  12.801  11.405
85767SOL    HW159133   3.243  12.806  11.494
85767SOL    HW259134   3.282  12.830  11.350
85768SOL     OW59135   8.322   8.496   4.001
85768SOL    HW159136   8.266   8.565   4.037
85768SOL    HW259137   8.381   8.474   4.073
85769SOL     OW59138   6.664   0.292  12.958
85769SOL    HW159139   6.631   0.335  13.037
85769SOL    HW259140   6.742   0.245  12.987
85770SOL     OW59141   8.711   4.579   4.632
85770SOL    HW159142   8.656   4.547   4.703
85770SOL    HW259143   8.673   4.664   4.608
85771SOL     OW59144  14.655  11.486  12.877
85771SOL    HW159145  14.606  11.502  12.958
85771SOL    HW259146  14.662  11.391  12.872
85772SOL     OW59147   0.537   5.659   8.210
85772SOL    HW159148   0.478   5.657   8.135
85772SOL    HW259149   0.479   5.661   8.286
85773SOL     OW59150   4.670   1.324   4.370
85773SOL    HW159151   4.752   1.283   4.399
85773SOL    HW259152   4.654   1.394   4.433
85774SOL     OW59153  14.835   4.492   7.763
85774SOL    HW159154  14.763   4.551   7.740
85774SOL    HW259155   0.041   4.548   7.764
85775SOL     OW59156   0.394  14.576   5.453
85775SOL    HW159157   0.307  14.537   5.449
85775SOL    HW259158   0.441  14.526   5.519
85776SOL     OW59159   4.778  13.557   8.089
85776SOL    HW159160   4.804  13.598   8.172
85776SOL    HW259161   4.860  13.524   8.052
85777SOL     OW59162  13.334  10.185   9.222
85777SOL    HW159163  13.365  10.222   9.305
85777SOL    HW259164  13.246  10.153   9.242
85778SOL     OW59165   3.434   6.691  13.294
85778SOL    HW159166   3.524   6.658  13.298
85778SOL    HW259167   3.411   6.686  13.202
85779SOL     OW59168   7.056   7.275  11.991
85779SOL    HW159169   7.054   7.360  11.946
85779SOL    HW259170   7.029   7.294  12.080
85780SOL     OW59171   4.207   5.135  11.801
85780SOL    HW159172   4.130   5.156  11.855
85780SOL    HW259173   4.272   5.105  11.863
85781SOL     OW59174  13.481   9.279   6.108
85781SOL    HW159175  13.427   9.201   6.125
85781SOL    HW259176  13.442   9.318   6.030
85782SOL     OW59177   5.383  10.995   5.560
85782SOL    HW159178   5.469  11.016   5.523
85782SOL    HW259179   5.321  11.033   5.499
85783SOL     OW59180   5.983   9.231   4.841
85783SOL    HW159181   5.993   9.302   4.906
85783SOL    HW259182   6.002   9.151   4.890
85784SOL     OW59183   3.201   4.076   3.582
85784SOL    HW159184   3.128   4.037   3.631
85784SOL    HW259185   3.192   4.170   3.597
85785SOL     OW59186  11.457   1.508   7.175
85785SOL    HW159187  11.464   1.432   7.233
85785SOL    HW259188  11.541   1.552   7.182
85786SOL     OW59189   8.188  10.014  12.223
85786SOL    HW159190   8.095  10.012  12.247
85786SOL    HW259191   8.227   9.941  12.271
85787SOL     OW59192   7.705   7.276   4.232
85787SOL    HW159193   7.772   7.254   4.297
85787SOL    HW259194   7.720   7.215   4.160
85788SOL     OW59195   7.507   0.287   8.367
85788SOL    HW159196   7.445   0.215   8.356
85788SOL    HW259197   7.583   0.247   8.410
85789SOL     OW59198   9.320  12.125   0.001
85789SOL    HW159199   9.250  12.100   0.061
85789SOL    HW259200   9.346  12.213   0.029
85790SOL     OW59201   1.133  13.467   0.974
85790SOL    HW159202   1.120  13.434   1.063
85790SOL    HW259203   1.212  13.521   0.979
85791SOL     OW59204   1.442   2.335  11.389
85791SOL    HW159205   1.389   2.302  11.317
85791SOL    HW259206   1.394   2.308  11.468
85792SOL     OW59207   1.695   8.674   7.862
85792SOL    HW159208   1.629   8.628   7.811
85792SOL    HW259209   1.757   8.708   7.797
85793SOL     OW59210  14.019   2.975   6.116
85793SOL    HW159211  14.001   3.045   6.053
85793SOL    HW259212  14.095   2.929   6.080
85794SOL     OW59213   7.939   9.930  10.403
85794SOL    HW159214   7.921   9.868  10.475
85794SOL    HW259215   7.980  10.005  10.446
85795SOL     OW59216   7.391  14.355   9.271
85795SOL    HW159217   7.345  14.438   9.261
85795SOL    HW259218   7.391  14.316   9.183
85796SOL     OW59219   6.172   0.779   0.107
85796SOL    HW159220   6.184   0.838   0.033
85796SOL    HW259221   6.174   0.691   0.069
85797SOL     OW59222   4.475   5.471   3.944
85797SOL    HW159223   4.468   5.559   3.907
85797SOL    HW259224   4.531   5.482   4.021
85798SOL     OW59225   2.613   5.669  12.982
85798SOL    HW159226   2.659   5.719  13.050
85798SOL    HW259227   2.662   5.587  12.975
85799SOL     OW59228  14.358  11.586   9.216
85799SOL    HW159229  14.371  11.494   9.237
85799SOL    HW259230  14.296  11.586   9.143
85800SOL     OW59231   5.046   4.495  12.112
85800SOL    HW159232   5.037   4.585  12.141
85800SOL    HW259233   5.036   4.443  12.191
85801SOL     OW59234   0.312   4.541   1.145
85801SOL    HW159235   0.406   4.548   1.164
85801SOL    HW259236   0.274   4.501   1.223
85802SOL     OW59237  13.696  13.952   7.930
85802SOL    HW159238  13.656  13.870   7.900
85802SOL    HW259239  13.720  13.998   7.849
85803SOL     OW59240   8.743   9.125   7.670
85803SOL    HW159241   8.658   9.145   7.708
85803SOL    HW259242   8.776   9.051   7.721
85804SOL     OW59243  14.286   4.499  10.552
85804SOL    HW159244  14.333   4.583  10.559
85804SOL    HW259245  14.292   4.461  10.640
85805SOL     OW59246   0.100  10.440  12.781
85805SOL    HW159247   0.177  10.434  12.725
85805SOL    HW259248   0.054  10.518  12.751
85806SOL     OW59249   6.162   9.829   3.915
85806SOL    HW159250   6.162   9.827   3.820
85806SOL    HW259251   6.249   9.799   3.940
85807SOL     OW59252   3.280   3.185   3.519
85807SOL    HW159253   3.300   3.266   3.565
85807SOL    HW259254   3.231   3.213   3.442
85808SOL     OW59255   3.848  10.847  11.733
85808SOL    HW159256   3.796  10.816  11.659
85808SOL    HW259257   3.935  10.809  11.719
85809SOL     OW59258  11.140   0.454   9.852
85809SOL    HW159259  11.216   0.509   9.831
85809SOL    HW259260  11.075   0.476   9.786
85810SOL     OW59261   3.298  14.148   6.585
85810SOL    HW159262   3.282  14.104   6.501
85810SOL    HW259263   3.391  14.171   6.582
85811SOL     OW59264   6.153   8.026  14.252
85811SOL    HW159265   6.148   7.973  14.173
85811SOL    HW259266   6.130   7.965  14.323
85812SOL     OW59267  11.509   1.026  13.816
85812SOL    HW159268  11.416   1.037  13.796
85812SOL    HW259269  11.525   1.088  13.887
85813SOL     OW59270   5.494  13.961  13.920
85813SOL    HW159271   5.554  13.889  13.939
85813SOL    HW259272   5.536  14.010  13.849
85814SOL     OW59273  13.818   8.405   8.828
85814SOL    HW159274  13.757   8.364   8.767
85814SOL    HW259275  13.804   8.499   8.816
85815SOL     OW59276   6.633  13.315   8.703
85815SOL    HW159277   6.569  13.348   8.765
85815SOL    HW259278   6.673  13.394   8.665
85816SOL     OW59279   1.581   8.698  12.440
85816SOL    HW159280   1.625   8.676  12.523
85816SOL    HW259281   1.640   8.666  12.373
85817SOL     OW59282   3.476   1.444  10.638
85817SOL    HW159283   3.472   1.531  10.598
85817SOL    HW259284   3.391   1.405  10.619
85818SOL     OW59285  14.440  12.898   7.286
85818SOL    HW159286  14.374  12.948   7.334
85818SOL    HW259287  14.488  12.963   7.235
85819SOL     OW59288  12.307  11.858   7.237
85819SOL    HW159289  12.337  11.791   7.175
85819SOL    HW259290  12.221  11.885   7.204
85820SOL     OW59291  10.756   6.437   6.661
85820SOL    HW159292  10.771   6.344   6.674
85820SOL    HW259293  10.782   6.453   6.570
85821SOL     OW59294  13.392   4.906   3.372
85821SOL    HW159295  13.465   4.954   3.408
85821SOL    HW259296  13.423   4.875   3.286
85822SOL     OW59297  13.682   8.062   4.775
85822SOL    HW159298  13.674   7.967   4.768
85822SOL    HW259299  13.691   8.092   4.684
85823SOL     OW59300   4.477  12.563   5.219
85823SOL    HW159301   4.393  12.548   5.263
85823SOL    HW259302   4.516  12.636   5.267
85824SOL     OW59303  10.691   7.718   7.591
85824SOL    HW159304  10.782   7.732   7.567
85824SOL    HW259305  10.668   7.792   7.646
85825SOL     OW59306   5.043   4.153   1.118
85825SOL    HW159307   5.025   4.247   1.124
85825SOL    HW259308   5.052   4.124   1.208
85826SOL     OW59309   0.417   5.861   4.180
85826SOL    HW159310   0.454   5.773   4.175
85826SOL    HW259311   0.462   5.902   4.254
85827SOL     OW59312  14.312  11.746  14.283
85827SOL    HW159313  14.319  11.666  14.336
85827SOL    HW259314  14.250  11.801  14.331
85828SOL     OW59315   1.466   7.547   4.202
85828SOL    HW159316   1.527   7.513   4.268
85828SOL    HW259317   1.392   7.487   4.204
85829SOL     OW59318   6.987  11.122   6.986
85829SOL    HW159319   7.077  11.090   6.998
85829SOL    HW259320   6.967  11.168   7.068
85830SOL     OW59321  10.845   3.845  10.803
85830SOL    HW159322  10.870   3.795  10.725
85830SOL    HW259323  10.821   3.931  10.769
85831SOL     OW59324   7.011   1.886   8.023
85831SOL    HW159325   7.015   1.802   8.069
85831SOL    HW259326   6.937   1.931   8.063
85832SOL     OW59327  13.684  12.258   7.361
85832SOL    HW159328  13.746  12.203   7.409
85832SOL    HW259329  13.616  12.278   7.425
85833SOL     OW59330  11.482  13.574   9.589
85833SOL    HW159331  11.406  13.631   9.599
85833SOL    HW259332  11.545  13.605   9.654
85834SOL     OW59333  10.069  12.742  11.165
85834SOL    HW159334  10.106  12.660  11.135
85834SOL    HW259335  10.140  12.785  11.213
85835SOL     OW59336   5.367  10.401   6.559
85835SOL    HW159337   5.452  10.405   6.603
85835SOL    HW259338   5.313  10.466   6.604
85836SOL     OW59339  12.031   9.677   6.708
85836SOL    HW159340  12.088   9.606   6.680
85836SOL    HW259341  11.948   9.660   6.664
85837SOL     OW59342   4.705   6.859   6.751
85837SOL    HW159343   4.733   6.827   6.837
85837SOL    HW259344   4.670   6.781   6.707
85838SOL     OW59345   2.179  12.137  11.075
85838SOL    HW159346   2.211  12.161  10.988
85838SOL    HW259347   2.177  12.042  11.075
85839SOL     OW59348  14.342   5.390  11.553
85839SOL    HW159349  14.269   5.428  11.601
85839SOL    HW259350  14.330   5.421  11.463
85840SOL     OW59351   4.081  13.744  10.541
85840SOL    HW159352   4.167  13.706  10.525
85840SOL    HW259353   4.098  13.835  10.566
85841SOL     OW59354   0.386  12.961  11.250
85841SOL    HW159355   0.318  12.901  11.280
85841SOL    HW259356   0.434  12.912  11.183
85842SOL     OW59357   9.006  13.966   0.446
85842SOL    HW159358   8.917  13.931   0.434
85842SOL    HW259359   9.050  13.951   0.363
85843SOL     OW59360  10.304  10.757   1.792
85843SOL    HW159361  10.324  10.741   1.700
85843SOL    HW259362  10.383  10.798   1.828
85844SOL     OW59363   3.636   3.030   1.529
85844SOL    HW159364   3.567   2.970   1.501
85844SOL    HW259365   3.609   3.059   1.616
85845SOL     OW59366   9.187   3.416   6.157
85845SOL    HW159367   9.126   3.482   6.188
85845SOL    HW259368   9.144   3.333   6.178
85846SOL     OW59369   6.574   7.972  14.631
85846SOL    HW159370   6.489   7.977  14.674
85846SOL    HW259371   6.623   8.045  14.667
85847SOL     OW59372   9.521   1.111   1.649
85847SOL    HW159373   9.450   1.049   1.630
85847SOL    HW259374   9.476   1.195   1.660
85848SOL     OW59375   8.869   8.475   8.154
85848SOL    HW159376   8.848   8.558   8.198
85848SOL    HW259377   8.784   8.442   8.126
85849SOL     OW59378   5.021   6.139   0.871
85849SOL    HW159379   5.031   6.130   0.776
85849SOL    HW259380   4.971   6.219   0.882
85850SOL     OW59381  12.278  13.418   4.905
85850SOL    HW159382  12.184  13.397   4.905
85850SOL    HW259383  12.288  13.483   4.837
85851SOL     OW59384   9.704   4.271   0.387
85851SOL    HW159385   9.634   4.236   0.331
85851SOL    HW259386   9.686   4.235   0.473
85852SOL     OW59387  14.068   5.804   2.881
85852SOL    HW159388  14.035   5.733   2.936
85852SOL    HW259389  14.115   5.761   2.810
85853SOL     OW59390  14.786   6.386   8.699
85853SOL    HW159391   0.008   6.392   8.710
85853SOL    HW259392  14.753   6.366   8.787
85854SOL     OW59393   9.776   4.346  14.699
85854SOL    HW159394   9.697   4.308  14.739
85854SOL    HW259395   9.833   4.270  14.682
85855SOL     OW59396  11.807  13.994  14.005
85855SOL    HW159397  11.832  14.085  13.994
85855SOL    HW259398  11.728  13.984  13.952
85856SOL     OW59399   5.756  11.119   0.631
85856SOL    HW159400   5.851  11.131   0.634
85856SOL    HW259401   5.736  11.108   0.537
85857SOL     OW59402  11.540   4.026  12.010
85857SOL    HW159403  11.566   3.997  12.098
85857SOL    HW259404  11.445   4.019  12.010
85858SOL     OW59405  11.430  13.449  13.348
85858SOL    HW159406  11.358  13.504  13.317
85858SOL    HW259407  11.469  13.498  13.420
85859SOL     OW59408  14.579   5.415   1.787
85859SOL    HW159409  14.670   5.386   1.786
85859SOL    HW259410  14.530   5.341   1.750
85860SOL     OW59411  14.650   5.470   0.697
85860SOL    HW159412  14.671   5.540   0.636
85860SOL    HW259413  14.735   5.434   0.723
85861SOL     OW59414  14.677  11.832   7.885
85861SOL    HW159415  14.629  11.752   7.867
85861SOL    HW259416  14.610  11.901   7.884
85862SOL     OW59417  14.484  14.824  11.275
85862SOL    HW159418  14.519  14.856  11.358
85862SOL    HW259419  14.389  14.836  11.283
85863SOL     OW59420   4.747   6.519   3.150
85863SOL    HW159421   4.761   6.426   3.136
85863SOL    HW259422   4.740   6.556   3.062
85864SOL     OW59423   0.284   1.535   2.236
85864SOL    HW159424   0.231   1.577   2.169
85864SOL    HW259425   0.308   1.450   2.198
85865SOL     OW59426   1.603   6.213   8.357
85865SOL    HW159427   1.692   6.195   8.388
85865SOL    HW259428   1.589   6.151   8.286
85866SOL     OW59429   4.913  11.065   9.612
85866SOL    HW159430   5.002  11.100   9.614
85866SOL    HW259431   4.918  10.991   9.551
85867SOL     OW59432   7.235   9.432  13.326
85867SOL    HW159433   7.207   9.460  13.414
85867SOL    HW259434   7.234   9.337  13.330
85868SOL     OW59435   7.933   6.193   1.952
85868SOL    HW159436   7.923   6.220   1.860
85868SOL    HW259437   8.019   6.152   1.956
85869SOL     OW59438  10.272   8.172   3.357
85869SOL    HW159439  10.337   8.240   3.371
85869SOL    HW259440  10.253   8.175   3.263
85870SOL     OW59441  13.988   4.353   6.587
85870SOL    HW159442  13.989   4.448   6.579
85870SOL    HW259443  13.902   4.332   6.623
85871SOL     OW59444   3.965   0.174   6.621
85871SOL    HW159445   4.015   0.189   6.701
85871SOL    HW259446   3.932   0.260   6.597
85872SOL     OW59447   9.214  14.069  12.073
85872SOL    HW159448   9.267  13.992  12.094
85872SOL    HW259449   9.229  14.083  11.979
85873SOL     OW59450   3.037  12.658   0.921
85873SOL    HW159451   3.064  12.589   0.861
85873SOL    HW259452   3.099  12.652   0.994
85874SOL     OW59453   3.317   8.140  10.607
85874SOL    HW159454   3.261   8.107  10.537
85874SOL    HW259455   3.320   8.068  10.670
85875SOL     OW59456   4.023   2.816  11.655
85875SOL    HW159457   4.113   2.784  11.663
85875SOL    HW259458   4.033   2.909  11.635
85876SOL     OW59459   8.114  13.085   6.496
85876SOL    HW159460   8.144  13.140   6.423
85876SOL    HW259461   8.195  13.049   6.532
85877SOL     OW59462   3.618   6.085   5.426
85877SOL    HW159463   3.571   6.126   5.354
85877SOL    HW259464   3.557   6.089   5.500
85878SOL     OW59465   9.891  11.027   2.775
85878SOL    HW159466   9.931  11.062   2.855
85878SOL    HW259467   9.941  10.948   2.756
85879SOL     OW59468   6.184   0.678   9.486
85879SOL    HW159469   6.181   0.600   9.542
85879SOL    HW259470   6.105   0.673   9.433
85880SOL     OW59471  10.845   2.444  13.634
85880SOL    HW159472  10.940   2.451  13.640
85880SOL    HW259473  10.822   2.492  13.554
85881SOL     OW59474   9.661   4.489  10.780
85881SOL    HW159475   9.609   4.489  10.699
85881SOL    HW259476   9.749   4.513  10.752
85882SOL     OW59477   0.452   8.256   9.579
85882SOL    HW159478   0.542   8.290   9.572
85882SOL    HW259479   0.462   8.171   9.622
85883SOL     OW59480   9.221  12.447  11.208
85883SOL    HW159481   9.273  12.471  11.285
85883SOL    HW259482   9.243  12.514  11.143
85884SOL     OW59483  10.212   4.362   5.842
85884SOL    HW159484  10.293   4.314   5.858
85884SOL    HW259485  10.231   4.451   5.869
85885SOL     OW59486   1.542   9.201   8.015
85885SOL    HW159487   1.555   9.108   7.995
85885SOL    HW259488   1.499   9.202   8.100
85886SOL     OW59489   7.069   4.956   2.658
85886SOL    HW159490   6.998   4.902   2.692
85886SOL    HW259491   7.132   4.963   2.730
85887SOL     OW59492   0.100   7.928   4.176
85887SOL    HW159493   0.029   7.986   4.147
85887SOL    HW259494   0.097   7.855   4.115
85888SOL     OW59495   7.683  13.002   7.190
85888SOL    HW159496   7.613  12.999   7.256
85888SOL    HW259497   7.645  12.961   7.112
85889SOL     OW59498   3.385  12.390   8.286
85889SOL    HW159499   3.432  12.311   8.310
85889SOL    HW259500   3.310  12.393   8.346
85890SOL     OW59501   7.695   5.252  10.422
85890SOL    HW159502   7.722   5.341  10.447
85890SOL    HW259503   7.719   5.198  10.497
85891SOL     OW59504  10.714  12.541  12.998
85891SOL    HW159505  10.671  12.582  12.923
85891SOL    HW259506  10.792  12.594  13.013
85892SOL     OW59507  10.309  12.939   6.106
85892SOL    HW159508  10.329  12.850   6.075
85892SOL    HW259509  10.297  12.990   6.027
85893SOL     OW59510   2.661   0.128   9.259
85893SOL    HW159511   2.748   0.129   9.299
85893SOL    HW259512   2.600   0.128   9.333
85894SOL     OW59513   3.451   6.106  14.852
85894SOL    HW159514   3.464   6.200  14.865
85894SOL    HW259515   3.498   6.086  14.771
85895SOL     OW59516  14.649   2.225   9.216
85895SOL    HW159517  14.622   2.143   9.258
85895SOL    HW259518  14.591   2.231   9.139
85896SOL     OW59519   4.155  11.057   4.795
85896SOL    HW159520   4.221  11.006   4.749
85896SOL    HW259521   4.179  11.050   4.887
85897SOL     OW59522  12.429   0.923   6.433
85897SOL    HW159523  12.421   0.880   6.518
85897SOL    HW259524  12.370   0.999   6.439
85898SOL     OW59525  11.158  14.514   4.959
85898SOL    HW159526  11.191  14.545   4.875
85898SOL    HW259527  11.202  14.430   4.973
85899SOL     OW59528  14.374   6.842   9.656
85899SOL    HW159529  14.362   6.895   9.735
85899SOL    HW259530  14.463   6.863   9.627
85900SOL     OW59531   9.647  13.563   1.509
85900SOL    HW159532   9.560  13.534   1.482
85900SOL    HW259533   9.688  13.593   1.428
85901SOL     OW59534  11.043   0.134   5.927
85901SOL    HW159535  11.126   0.139   5.974
85901SOL    HW259536  11.028   0.041   5.914
85902SOL     OW59537   9.257   5.001  12.998
85902SOL    HW159538   9.196   5.036  13.063
85902SOL    HW259539   9.219   5.027  12.913
85903SOL     OW59540  12.968   2.050   3.270
85903SOL    HW159541  12.961   2.122   3.208
85903SOL    HW259542  13.062   2.033   3.277
85904SOL     OW59543  11.503   4.929   3.532
85904SOL    HW159544  11.422   4.935   3.482
85904SOL    HW259545  11.518   5.018   3.563
85905SOL     OW59546  13.200   1.992   0.353
85905SOL    HW159547  13.254   1.940   0.413
85905SOL    HW259548  13.122   1.939   0.338
85906SOL     OW59549   5.476   5.117   9.491
85906SOL    HW159550   5.475   5.146   9.400
85906SOL    HW259551   5.392   5.147   9.526
85907SOL     OW59552  10.850   4.136   3.803
85907SOL    HW159553  10.798   4.133   3.723
85907SOL    HW259554  10.842   4.225   3.835
85908SOL     OW59555  11.328   9.217  14.838
85908SOL    HW159556  11.296   9.202  14.748
85908SOL    HW259557  11.419   9.244  14.826
85909SOL     OW59558   1.827   1.193   6.045
85909SOL    HW159559   1.879   1.237   6.112
85909SOL    HW259560   1.864   1.224   5.962
85910SOL     OW59561  14.287  10.588  12.958
85910SOL    HW159562  14.279  10.678  12.988
85910SOL    HW259563  14.240  10.536  13.023
85911SOL     OW59564   8.858   0.991   5.400
85911SOL    HW159565   8.817   0.920   5.449
85911SOL    HW259566   8.952   0.975   5.410
85912SOL     OW59567   6.763  14.399   5.890
85912SOL    HW159568   6.693  14.431   5.947
85912SOL    HW259569   6.743  14.436   5.804
85913SOL     OW59570   0.133   4.901   1.837
85913SOL    HW159571   0.141   4.957   1.914
85913SOL    HW259572   0.070   4.834   1.862
85914SOL     OW59573   3.415   7.648   6.969
85914SOL    HW159574   3.445   7.614   6.885
85914SOL    HW259575   3.368   7.729   6.947
85915SOL     OW59576   4.429   9.281   3.582
85915SOL    HW159577   4.351   9.232   3.557
85915SOL    HW259578   4.419   9.366   3.538
85916SOL     OW59579   4.808   1.511  10.713
85916SOL    HW159580   4.808   1.450  10.640
85916SOL    HW259581   4.891   1.495  10.758
85917SOL     OW59582   1.270   0.439  14.597
85917SOL    HW159583   1.280   0.344  14.607
85917SOL    HW259584   1.275   0.474  14.686
85918SOL     OW59585   7.484   2.371   1.067
85918SOL    HW159586   7.480   2.332   1.154
85918SOL    HW259587   7.435   2.453   1.076
85919SOL     OW59588  12.272   5.096   1.264
85919SOL    HW159589  12.190   5.145   1.257
85919SOL    HW259590  12.245   5.004   1.273
85920SOL     OW59591   2.455  12.430  10.000
85920SOL    HW159592   2.390  12.397   9.939
85920SOL    HW259593   2.460  12.363  10.068
85921SOL     OW59594   6.132   9.838   6.468
85921SOL    HW159595   6.087   9.779   6.408
85921SOL    HW259596   6.101   9.812   6.555
85922SOL     OW59597  10.572   9.478  12.349
85922SOL    HW159598  10.573   9.404  12.289
85922SOL    HW259599  10.518   9.544  12.306
85923SOL     OW59600  10.474   8.467   2.925
85923SOL    HW159601  10.465   8.375   2.901
85923SOL    HW259602  10.569   8.483   2.923
85924SOL     OW59603  13.682   3.662   6.541
85924SOL    HW159604  13.699   3.752   6.567
85924SOL    HW259605  13.752   3.611   6.583
85925SOL     OW59606   2.256   5.447   5.009
85925SOL    HW159607   2.272   5.381   4.942
85925SOL    HW259608   2.189   5.407   5.066
85926SOL     OW59609   0.524   1.989   2.856
85926SOL    HW159610   0.453   1.935   2.823
85926SOL    HW259611   0.536   1.960   2.947
85927SOL     OW59612   5.449   7.410  12.179
85927SOL    HW159613   5.414   7.322  12.171
85927SOL    HW259614   5.492   7.412  12.264
85928SOL     OW59615   9.738   2.038   2.521
85928SOL    HW159616   9.697   2.014   2.604
85928SOL    HW259617   9.818   2.084   2.547
85929SOL     OW59618   1.213   8.678   7.656
85929SOL    HW159619   1.232   8.710   7.568
85929SOL    HW259620   1.140   8.733   7.686
85930SOL     OW59621   8.183   7.741   6.183
85930SOL    HW159622   8.183   7.836   6.193
85930SOL    HW259623   8.262   7.711   6.228
85931SOL     OW59624   6.581   7.155  13.433
85931SOL    HW159625   6.514   7.180  13.496
85931SOL    HW259626   6.537   7.161  13.348
85932SOL     OW59627  13.200   0.119  12.037
85932SOL    HW159628  13.210   0.058  12.110
85932SOL    HW259629  13.206   0.206  12.078
85933SOL     OW59630   1.212  14.432   2.740
85933SOL    HW159631   1.136  14.402   2.690
85933SOL    HW259632   1.246  14.353   2.782
85934SOL     OW59633   8.493   4.785  10.572
85934SOL    HW159634   8.560   4.726  10.606
85934SOL    HW259635   8.413   4.761  10.619
85935SOL     OW59636   7.765  14.485  13.526
85935SOL    HW159637   7.814  14.527  13.597
85935SOL    HW259638   7.719  14.413  13.568
85936SOL     OW59639   8.818  10.563  11.473
85936SOL    HW159640   8.884  10.571  11.405
85936SOL    HW259641   8.811  10.650  11.511
85937SOL     OW59642   6.778   5.830   9.570
85937SOL    HW159643   6.768   5.914   9.614
85937SOL    HW259644   6.825   5.851   9.489
85938SOL     OW59645  11.871   0.960   6.995
85938SOL    HW159646  11.806   0.900   6.958
85938SOL    HW259647  11.851   1.045   6.956
85939SOL     OW59648  12.140   0.254   0.382
85939SOL    HW159649  12.068   0.231   0.323
85939SOL    HW259650  12.182   0.171   0.402
85940SOL     OW59651   5.777  12.689   3.029
85940SOL    HW159652   5.803  12.739   2.952
85940SOL    HW259653   5.859  12.654   3.064
85941SOL     OW59654   8.218  11.519   6.165
85941SOL    HW159655   8.286  11.467   6.206
85941SOL    HW259656   8.192  11.468   6.088
85942SOL     OW59657   4.653   2.082   9.377
85942SOL    HW159658   4.666   1.990   9.356
85942SOL    HW259659   4.660   2.127   9.292
85943SOL     OW59660   7.810   3.965   3.868
85943SOL    HW159661   7.870   3.931   3.801
85943SOL    HW259662   7.868   4.009   3.931
85944SOL     OW59663  13.388  10.947  12.878
85944SOL    HW159664  13.453  10.891  12.836
85944SOL    HW259665  13.386  11.026  12.823
85945SOL     OW59666  11.989  12.315   4.116
85945SOL    HW159667  11.930  12.268   4.057
85945SOL    HW259668  12.075  12.281   4.095
85946SOL     OW59669   7.315   3.531  10.007
85946SOL    HW159670   7.246   3.576   9.957
85946SOL    HW259671   7.362   3.481   9.942
85947SOL     OW59672   4.513   9.648  13.721
85947SOL    HW159673   4.591   9.598  13.698
85947SOL    HW259674   4.513   9.722  13.661
85948SOL     OW59675  12.638   8.677   9.336
85948SOL    HW159676  12.592   8.637   9.262
85948SOL    HW259677  12.627   8.772   9.322
85949SOL     OW59678   1.009   0.447   4.391
85949SOL    HW159679   1.020   0.472   4.299
85949SOL    HW259680   0.951   0.371   4.389
85950SOL     OW59681   5.319   5.000   7.723
85950SOL    HW159682   5.385   5.069   7.724
85950SOL    HW259683   5.236   5.048   7.717
85951SOL     OW59684  13.719   5.892   9.169
85951SOL    HW159685  13.638   5.852   9.137
85951SOL    HW259686  13.706   5.986   9.157
85952SOL     OW59687  12.171   9.709   6.427
85952SOL    HW159688  12.240   9.663   6.473
85952SOL    HW259689  12.104   9.725   6.493
85953SOL     OW59690   2.102   0.533  13.366
85953SOL    HW159691   2.141   0.590  13.300
85953SOL    HW259692   2.098   0.586  13.445
85954SOL     OW59693   1.765   6.885   6.820
85954SOL    HW159694   1.849   6.839   6.828
85954SOL    HW259695   1.699   6.815   6.827
85955SOL     OW59696   4.822  13.605   1.154
85955SOL    HW159697   4.850  13.635   1.068
85955SOL    HW259698   4.885  13.537   1.178
85956SOL     OW59699   9.932  13.919   3.412
85956SOL    HW159700   9.928  13.914   3.316
85956SOL    HW259701  10.012  13.871   3.434
85957SOL     OW59702   0.454   2.442   6.625
85957SOL    HW159703   0.454   2.359   6.673
85957SOL    HW259704   0.521   2.431   6.558
85958SOL     OW59705  12.703   7.143  14.274
85958SOL    HW159706  12.794   7.159  14.297
85958SOL    HW259707  12.707   7.087  14.197
85959SOL     OW59708   6.827   7.871  14.220
85959SOL    HW159709   6.795   7.860  14.310
85959SOL    HW259710   6.762   7.929  14.179
85960SOL     OW59711  13.053   4.779   7.287
85960SOL    HW159712  13.018   4.867   7.300
85960SOL    HW259713  13.127   4.792   7.227
85961SOL     OW59714  13.045   0.160   2.228
85961SOL    HW159715  13.103   0.183   2.155
85961SOL    HW259716  13.101   0.166   2.306
85962SOL     OW59717   6.008  14.191  10.602
85962SOL    HW159718   6.039  14.143  10.679
85962SOL    HW259719   6.088  14.214  10.555
85963SOL     OW59720   0.284  11.100  14.661
85963SOL    HW159721   0.192  11.075  14.649
85963SOL    HW259722   0.304  11.073  14.751
85964SOL     OW59723   6.427  14.607   0.825
85964SOL    HW159724   6.480  14.682   0.851
85964SOL    HW259725   6.479  14.531   0.850
85965SOL     OW59726   4.976   1.020   9.165
85965SOL    HW159727   5.020   0.960   9.226
85965SOL    HW259728   4.916   0.965   9.115
85966SOL     OW59729   8.892   0.041  14.130
85966SOL    HW159730   8.855  14.826  14.146
85966SOL    HW259731   8.908   0.077  14.217
85967SOL     OW59732   0.987  12.847  11.162
85967SOL    HW159733   1.019  12.908  11.095
85967SOL    HW259734   1.061  12.838  11.222
85968SOL     OW59735  11.838  13.372   3.822
85968SOL    HW159736  11.877  13.423   3.894
85968SOL    HW259737  11.853  13.425   3.744
85969SOL     OW59738   5.547   0.852   7.430
85969SOL    HW159739   5.569   0.936   7.390
85969SOL    HW259740   5.613   0.839   7.498
85970SOL     OW59741   8.484   8.942  13.957
85970SOL    HW159742   8.544   8.995  14.011
85970SOL    HW259743   8.444   9.006  13.898
85971SOL     OW59744  11.467  12.316   0.014
85971SOL    HW159745  11.429  12.394   0.054
85971SOL    HW259746  11.494  12.344  14.799
85972SOL     OW59747  13.746   1.270  12.574
85972SOL    HW159748  13.794   1.346  12.607
85972SOL    HW259749  13.787   1.250  12.490
85973SOL     OW59750  10.484  10.642   9.935
85973SOL    HW159751  10.525  10.558   9.957
85973SOL    HW259752  10.483  10.644   9.840
85974SOL     OW59753   3.186   4.952  12.346
85974SOL    HW159754   3.266   4.960  12.397
85974SOL    HW259755   3.207   4.890  12.277
85975SOL     OW59756  11.827  12.760   4.491
85975SOL    HW159757  11.755  12.765   4.554
85975SOL    HW259758  11.897  12.812   4.531
85976SOL     OW59759  14.225   6.472   3.505
85976SOL    HW159760  14.225   6.469   3.409
85976SOL    HW259761  14.155   6.533   3.527
85977SOL     OW59762  11.067  10.885  13.337
85977SOL    HW159763  10.985  10.836  13.344
85977SOL    HW259764  11.047  10.972  13.370
85978SOL     OW59765   4.687   0.013   2.687
85978SOL    HW159766   4.774   0.048   2.668
85978SOL    HW259767   4.699  14.825   2.760
85979SOL     OW59768   2.809   8.707  14.604
85979SOL    HW159769   2.870   8.760  14.657
85979SOL    HW259770   2.730   8.702  14.658
85980SOL     OW59771   6.677   3.527   3.394
85980SOL    HW159772   6.760   3.484   3.374
85980SOL    HW259773   6.622   3.508   3.318
85981SOL     OW59774  14.626   8.656  11.323
85981SOL    HW159775  14.565   8.674  11.395
85981SOL    HW259776  14.648   8.563  11.333
85982SOL     OW59777   6.972  12.221  12.097
85982SOL    HW159778   6.922  12.140  12.084
85982SOL    HW259779   6.923  12.288  12.049
85983SOL     OW59780  10.490  12.443   8.785
85983SOL    HW159781  10.580  12.411   8.793
85983SOL    HW259782  10.498  12.529   8.744
85984SOL     OW59783  10.811   6.520   7.652
85984SOL    HW159784  10.816   6.508   7.558
85984SOL    HW259785  10.786   6.612   7.663
85985SOL     OW59786   4.927   9.904  12.693
85985SOL    HW159787   5.021   9.919  12.691
85985SOL    HW259788   4.911   9.868  12.781
85986SOL     OW59789   4.044  14.545  12.174
85986SOL    HW159790   4.016  14.485  12.243
85986SOL    HW259791   3.979  14.533  12.104
85987SOL     OW59792   2.944   3.272   3.763
85987SOL    HW159793   2.993   3.330   3.821
85987SOL    HW259794   3.011   3.228   3.711
85988SOL     OW59795   9.666   3.712   4.829
85988SOL    HW159796   9.589   3.719   4.773
85988SOL    HW259797   9.731   3.769   4.788
85989SOL     OW59798  12.260  12.327   3.761
85989SOL    HW159799  12.344  12.297   3.727
85989SOL    HW259800  12.240  12.267   3.833
85990SOL     OW59801   9.913  14.229   5.210
85990SOL    HW159802   9.909  14.318   5.246
85990SOL    HW259803   9.988  14.230   5.151
85991SOL     OW59804  11.580   7.274   0.353
85991SOL    HW159805  11.619   7.196   0.313
85991SOL    HW259806  11.654   7.325   0.385
85992SOL     OW59807   5.331   2.413   9.223
85992SOL    HW159808   5.329   2.321   9.248
85992SOL    HW259809   5.249   2.449   9.256
85993SOL     OW59810   8.984  14.420   1.875
85993SOL    HW159811   8.913  14.423   1.811
85993SOL    HW259812   8.976  14.335   1.917
85994SOL     OW59813   9.271  10.102   9.942
85994SOL    HW159814   9.186  10.124   9.980
85994SOL    HW259815   9.252  10.031   9.880
85995SOL     OW59816   3.700   5.719   6.859
85995SOL    HW159817   3.699   5.705   6.764
85995SOL    HW259818   3.767   5.785   6.873
85996SOL     OW59819  12.330   4.121  12.032
85996SOL    HW159820  12.281   4.142  11.953
85996SOL    HW259821  12.264   4.115  12.101
85997SOL     OW59822  13.911   0.183   6.868
85997SOL    HW159823  13.903   0.248   6.799
85997SOL    HW259824  13.858   0.218   6.940
85998SOL     OW59825   2.392   7.397  10.884
85998SOL    HW159826   2.335   7.441  10.948
85998SOL    HW259827   2.341   7.321  10.856
85999SOL     OW59828   6.681   0.760   3.598
85999SOL    HW159829   6.725   0.845   3.599
85999SOL    HW259830   6.633   0.760   3.515
86000SOL     OW59831  11.347  12.595   2.378
86000SOL    HW159832  11.307  12.514   2.407
86000SOL    HW259833  11.281  12.635   2.321
86001SOL     OW59834   1.662  11.969   9.623
86001SOL    HW159835   1.628  12.026   9.691
86001SOL    HW259836   1.688  11.890   9.669
86002SOL     OW59837  11.912   8.669   2.088
86002SOL    HW159838  11.883   8.742   2.033
86002SOL    HW259839  12.006   8.660   2.069
86003SOL     OW59840   5.727  11.705   5.066
86003SOL    HW159841   5.693  11.680   4.981
86003SOL    HW259842   5.760  11.794   5.053
86004SOL     OW59843   7.397   6.301   0.653
86004SOL    HW159844   7.386   6.336   0.742
86004SOL    HW259845   7.390   6.206   0.664
86005SOL     OW59846   9.489   9.418  12.438
86005SOL    HW159847   9.527   9.343  12.393
86005SOL    HW259848   9.396   9.414  12.418
86006SOL     OW59849   8.756   4.138   9.747
86006SOL    HW159850   8.802   4.125   9.829
86006SOL    HW259851   8.818   4.186   9.691
86007SOL     OW59852  13.266   1.300   3.465
86007SOL    HW159853  13.312   1.301   3.549
86007SOL    HW259854  13.228   1.212   3.460
86008SOL     OW59855  12.756   4.509   6.126
86008SOL    HW159856  12.818   4.573   6.162
86008SOL    HW259857  12.696   4.562   6.072
86009SOL     OW59858   1.143  10.441  14.086
86009SOL    HW159859   1.086  10.435  14.009
86009SOL    HW259860   1.232  10.434  14.051
86010SOL     OW59861   8.269  13.238   6.327
86010SOL    HW159862   8.364  13.231   6.329
86010SOL    HW259863   8.250  13.285   6.245
86011SOL     OW59864   7.502   1.902  13.595
86011SOL    HW159865   7.567   1.967  13.622
86011SOL    HW259866   7.498   1.840  13.668
86012SOL     OW59867   3.816   7.241  13.659
86012SOL    HW159868   3.794   7.315  13.716
86012SOL    HW259869   3.894   7.269  13.613
86013SOL     OW59870  11.739   6.116  12.870
86013SOL    HW159871  11.713   6.042  12.816
86013SOL    HW259872  11.721   6.088  12.960
86014SOL     OW59873  13.122   5.155   3.740
86014SOL    HW159874  13.060   5.167   3.811
86014SOL    HW259875  13.085   5.207   3.668
86015SOL     OW59876  13.502   5.106   0.231
86015SOL    HW159877  13.549   5.168   0.287
86015SOL    HW259878  13.508   5.022   0.277
86016SOL     OW59879   7.963  11.544  10.680
86016SOL    HW159880   7.883  11.598  10.685
86016SOL    HW259881   7.939  11.463  10.725
86017SOL     OW59882   9.051   3.498  11.273
86017SOL    HW159883   9.102   3.547  11.337
86017SOL    HW259884   8.971   3.473  11.320
86018SOL     OW59885   6.192   2.471  13.328
86018SOL    HW159886   6.230   2.428  13.405
86018SOL    HW259887   6.260   2.463  13.261
86019SOL     OW59888  14.733   5.155  11.552
86019SOL    HW159889  14.783   5.227  11.592
86019SOL    HW259890  14.652   5.151  11.603
86020SOL     OW59891   9.198  14.594   1.881
86020SOL    HW159892   9.140  14.521   1.905
86020SOL    HW259893   9.269  14.589   1.945
86021SOL     OW59894   3.611   8.749  12.271
86021SOL    HW159895   3.703   8.774  12.261
86021SOL    HW259896   3.569   8.781  12.191
86022SOL     OW59897  12.912   1.824   6.482
86022SOL    HW159898  12.992   1.877   6.487
86022SOL    HW259899  12.841   1.888   6.485
86023SOL     OW59900  12.326  12.745   7.246
86023SOL    HW159901  12.413  12.775   7.222
86023SOL    HW259902  12.330  12.650   7.238
86024SOL     OW59903   8.186  14.271   1.707
86024SOL    HW159904   8.184  14.186   1.664
86024SOL    HW259905   8.278  14.282   1.734
86025SOL     OW59906   2.607   7.009   8.182
86025SOL    HW159907   2.672   6.952   8.225
86025SOL    HW259908   2.643   7.097   8.191
86026SOL     OW59909   4.105  12.957   9.865
86026SOL    HW159910   4.021  12.918   9.888
86026SOL    HW259911   4.157  12.950   9.945
86027SOL     OW59912  12.021   9.074  10.168
86027SOL    HW159913  12.044   9.000  10.224
86027SOL    HW259914  11.948   9.042  10.115
86028SOL     OW59915  11.088  11.507   9.947
86028SOL    HW159916  11.086  11.423   9.902
86028SOL    HW259917  10.996  11.532   9.956
86029SOL     OW59918   8.729   3.646   7.615
86029SOL    HW159919   8.695   3.728   7.651
86029SOL    HW259920   8.747   3.592   7.692
86030SOL     OW59921   3.651   1.389   1.655
86030SOL    HW159922   3.587   1.321   1.675
86030SOL    HW259923   3.712   1.388   1.729
86031SOL     OW59924   6.895   2.435   9.269
86031SOL    HW159925   6.820   2.473   9.224
86031SOL    HW259926   6.923   2.363   9.212
86032SOL     OW59927   8.232   0.929   1.231
86032SOL    HW159928   8.201   0.891   1.149
86032SOL    HW259929   8.319   0.963   1.210
86033SOL     OW59930  11.050   5.302   9.463
86033SOL    HW159931  10.965   5.306   9.419
86033SOL    HW259932  11.090   5.387   9.445
86034SOL     OW59933   3.624  10.154  10.760
86034SOL    HW159934   3.541  10.191  10.732
86034SOL    HW259935   3.601  10.091  10.828
86035SOL     OW59936   2.666   0.613   6.034
86035SOL    HW159937   2.595   0.604   5.969
86035SOL    HW259938   2.643   0.551   6.103
86036SOL     OW59939   5.813  10.081   1.377
86036SOL    HW159940   5.785  10.092   1.286
86036SOL    HW259941   5.754  10.136   1.428
86037SOL     OW59942   8.557  10.510   6.495
86037SOL    HW159943   8.590  10.442   6.554
86037SOL    HW259944   8.594  10.488   6.410
86038SOL     OW59945   5.476   9.953  14.744
86038SOL    HW159946   5.544   9.904  14.697
86038SOL    HW259947   5.397   9.901  14.734
86039SOL     OW59948   6.922   7.488  13.954
86039SOL    HW159949   6.966   7.405  13.971
86039SOL    HW259950   6.967   7.552  14.008
86040SOL     OW59951   4.774   5.024   2.098
86040SOL    HW159952   4.834   4.949   2.103
86040SOL    HW259953   4.715   5.004   2.026
86041SOL     OW59954  14.499  12.423   8.269
86041SOL    HW159955  14.570  12.366   8.240
86041SOL    HW259956  14.532  12.462   8.351
86042SOL     OW59957  10.421  14.705  10.627
86042SOL    HW159958  10.463  14.747  10.552
86042SOL    HW259959  10.394  14.777  10.684
86043SOL     OW59960   6.733   3.314  13.762
86043SOL    HW159961   6.755   3.246  13.826
86043SOL    HW259962   6.807   3.313  13.700
86044SOL     OW59963   9.338  14.831  14.166
86044SOL    HW159964   9.276  14.857  14.098
86044SOL    HW259965   9.297  14.860  14.248
86045SOL     OW59966   7.376  13.621  12.792
86045SOL    HW159967   7.396  13.714  12.803
86045SOL    HW259968   7.432  13.593  12.720
86046SOL     OW59969  11.250   0.723  10.033
86046SOL    HW159970  11.202   0.794   9.991
86046SOL    HW259971  11.339   0.756  10.042
86047SOL     OW59972  12.655  10.638  14.374
86047SOL    HW159973  12.646  10.601  14.287
86047SOL    HW259974  12.617  10.573  14.432
86048SOL     OW59975   4.478   6.196   1.666
86048SOL    HW159976   4.521   6.265   1.717
86048SOL    HW259977   4.386   6.201   1.690
86049SOL     OW59978  12.054  10.932  11.695
86049SOL    HW159979  11.993  10.989  11.742
86049SOL    HW259980  11.999  10.866  11.654
86050SOL     OW59981  13.802   5.122   3.087
86050SOL    HW159982  13.839   5.140   3.173
86050SOL    HW259983  13.860   5.056   3.049
86051SOL     OW59984   1.579  14.282   6.040
86051SOL    HW159985   1.675  14.280   6.032
86051SOL    HW259986   1.557  14.199   6.082
86052SOL     OW59987  13.473   9.810   3.998
86052SOL    HW159988  13.411   9.741   3.972
86052SOL    HW259989  13.480   9.866   3.920
86053SOL     OW59990   5.960  12.515   8.217
86053SOL    HW159991   5.903  12.527   8.293
86053SOL    HW259992   5.918  12.447   8.165
86054SOL     OW59993   9.806  13.652  10.145
86054SOL    HW159994   9.877  13.717  10.140
86054SOL    HW259995   9.781  13.638  10.053
86055SOL     OW59996   2.402  14.558   9.593
86055SOL    HW159997   2.380  14.651   9.588
86055SOL    HW259998   2.393  14.536   9.686
86056SOL     OW59999   9.975   0.922   6.274
86056SOL    HW160000  10.070   0.935   6.263
86056SOL    HW260001   9.936   0.979   6.207
86057SOL     OW60002   5.389  13.527  12.734
86057SOL    HW160003   5.476  13.566  12.731
86057SOL    HW260004   5.355  13.536  12.644
86058SOL     OW60005  13.018   4.948  12.869
86058SOL    HW160006  13.043   4.923  12.958
86058SOL    HW260007  12.946   5.010  12.881
86059SOL     OW60008  14.602   7.140  10.477
86059SOL    HW160009  14.507   7.151  10.470
86059SOL    HW260010  14.637   7.184  10.399
86060SOL     OW60011  14.385   6.790   3.285
86060SOL    HW160012  14.480   6.794   3.287
86060SOL    HW260013  14.365   6.715   3.229
86061SOL     OW60014   5.864   1.162  13.248
86061SOL    HW160015   5.871   1.110  13.167
86061SOL    HW260016   5.828   1.246  13.219
86062SOL     OW60017   0.597   3.340  12.726
86062SOL    HW160018   0.507   3.315  12.750
86062SOL    HW260019   0.587   3.422  12.679
86063SOL     OW60020  12.633   9.764  12.782
86063SOL    HW160021  12.642   9.669  12.780
86063SOL    HW260022  12.702   9.796  12.723
86064SOL     OW60023   7.022   7.574   2.748
86064SOL    HW160024   7.076   7.513   2.799
86064SOL    HW260025   7.016   7.652   2.803
86065SOL     OW60026   5.681   1.968   2.408
86065SOL    HW160027   5.698   1.874   2.416
86065SOL    HW260028   5.753   2.001   2.355
86066SOL     OW60029   7.956  13.332   0.381
86066SOL    HW160030   7.908  13.397   0.330
86066SOL    HW260031   7.890  13.266   0.404
86067SOL     OW60032   3.623   2.472   4.122
86067SOL    HW160033   3.587   2.532   4.187
86067SOL    HW260034   3.681   2.414   4.173
86068SOL     OW60035   0.755  14.331   8.343
86068SOL    HW160036   0.796  14.255   8.384
86068SOL    HW260037   0.811  14.405   8.366
86069SOL     OW60038  10.592  11.404   9.733
86069SOL    HW160039  10.567  11.331   9.789
86069SOL    HW260040  10.514  11.422   9.680
86070SOL     OW60041   7.896   6.249   1.657
86070SOL    HW160042   7.818   6.240   1.711
86070SOL    HW260043   7.905   6.343   1.642
86071SOL     OW60044   1.809   7.082   2.409
86071SOL    HW160045   1.744   7.136   2.365
86071SOL    HW260046   1.788   6.992   2.382
86072SOL     OW60047   5.505   1.512   3.580
86072SOL    HW160048   5.502   1.438   3.640
86072SOL    HW260049   5.470   1.478   3.498
86073SOL     OW60050  10.363   0.820   6.795
86073SOL    HW160051  10.290   0.766   6.825
86073SOL    HW260052  10.425   0.757   6.759
86074SOL     OW60053   9.868  13.726   7.014
86074SOL    HW160054   9.940  13.771   7.058
86074SOL    HW260055   9.883  13.742   6.921
86075SOL     OW60056   0.909   2.757  11.525
86075SOL    HW160057   0.844   2.815  11.486
86075SOL    HW260058   0.931   2.695  11.456
86076SOL     OW60059   2.097   8.710   0.881
86076SOL    HW160060   2.020   8.658   0.907
86076SOL    HW260061   2.074   8.799   0.905
86077SOL     OW60062  12.660   4.108   8.933
86077SOL    HW160063  12.626   4.088   8.846
86077SOL    HW260064  12.615   4.189   8.958
86078SOL     OW60065   4.062  10.493   5.020
86078SOL    HW160066   4.110  10.566   4.980
86078SOL    HW260067   4.066  10.509   5.114
86079SOL     OW60068   0.811   8.651   9.042
86079SOL    HW160069   0.767   8.724   8.998
86079SOL    HW260070   0.901   8.655   9.010
86080SOL     OW60071  11.109   3.674   0.132
86080SOL    HW160072  11.111   3.713   0.219
86080SOL    HW260073  11.028   3.624   0.130
86081SOL     OW60074   2.146   4.600   4.996
86081SOL    HW160075   2.160   4.648   5.077
86081SOL    HW260076   2.234   4.583   4.963
86082SOL     OW60077   5.326   8.128   5.474
86082SOL    HW160078   5.419   8.110   5.490
86082SOL    HW260079   5.307   8.205   5.527
86083SOL     OW60080   6.615   1.501  12.351
86083SOL    HW160081   6.706   1.493  12.322
86083SOL    HW260082   6.563   1.477  12.273
86084SOL     OW60083  10.601  10.132   5.898
86084SOL    HW160084  10.576  10.134   5.806
86084SOL    HW260085  10.560  10.052   5.932
86085SOL     OW60086   1.651   4.605   1.206
86085SOL    HW160087   1.628   4.698   1.198
86085SOL    HW260088   1.657   4.574   1.115
86086SOL     OW60089   8.174   3.065   6.888
86086SOL    HW160090   8.106   3.056   6.821
86086SOL    HW260091   8.163   2.987   6.943
86087SOL     OW60092   0.486   0.649   1.969
86087SOL    HW160093   0.399   0.613   1.981
86087SOL    HW260094   0.529   0.635   2.054
86088SOL     OW60095  11.247  13.505   7.870
86088SOL    HW160096  11.243  13.412   7.893
86088SOL    HW260097  11.303  13.543   7.938
86089SOL     OW60098   8.492  13.163  12.816
86089SOL    HW160099   8.555  13.193  12.751
86089SOL    HW260100   8.495  13.068  12.810
86090SOL     OW60101  10.497  11.565   2.181
86090SOL    HW160102  10.481  11.497   2.247
86090SOL    HW260103  10.573  11.613   2.215
86091SOL     OW60104   1.060  14.454  10.897
86091SOL    HW160105   1.061  14.536  10.945
86091SOL    HW260106   1.138  14.408  10.927
86092SOL     OW60107   4.535   3.616   4.177
86092SOL    HW160108   4.479   3.655   4.111
86092SOL    HW260109   4.500   3.527   4.189
86093SOL     OW60110  14.735   0.380  12.757
86093SOL    HW160111  14.700   0.293  12.776
86093SOL    HW260112  14.830   0.366  12.747
86094SOL     OW60113  11.754   0.484   4.046
86094SOL    HW160114  11.740   0.459   3.954
86094SOL    HW260115  11.830   0.433   4.073
86095SOL     OW60116   1.024  13.821   8.177
86095SOL    HW160117   1.076  13.877   8.120
86095SOL    HW260118   0.970  13.882   8.228
86096SOL     OW60119  14.599  13.177   9.850
86096SOL    HW160120  14.571  13.211   9.935
86096SOL    HW260121  14.680  13.130   9.870
86097SOL     OW60122  10.715  14.067  11.723
86097SOL    HW160123  10.710  14.056  11.818
86097SOL    HW260124  10.808  14.079  11.705
86098SOL     OW60125   4.891   9.882   8.337
86098SOL    HW160126   4.941   9.869   8.417
86098SOL    HW260127   4.802   9.855   8.358
86099SOL     OW60128   8.128   7.855   0.080
86099SOL    HW160129   8.216   7.817   0.077
86099SOL    HW260130   8.117   7.899  14.868
86100SOL     OW60131   1.012  12.553   1.785
86100SOL    HW160132   1.009  12.571   1.691
86100SOL    HW260133   0.921  12.538   1.810
86101SOL     OW60134  11.462   5.789   6.942
86101SOL    HW160135  11.498   5.712   6.899
86101SOL    HW260136  11.522   5.807   7.015
86102SOL     OW60137  11.779  13.932   9.306
86102SOL    HW160138  11.766  13.862   9.241
86102SOL    HW260139  11.842  13.992   9.264
86103SOL     OW60140   3.121   8.049  12.845
86103SOL    HW160141   3.037   8.002  12.846
86103SOL    HW260142   3.104   8.130  12.894
86104SOL     OW60143   9.830   8.319   4.413
86104SOL    HW160144   9.851   8.385   4.479
86104SOL    HW260145   9.911   8.269   4.402
86105SOL     OW60146   6.637   9.734   3.788
86105SOL    HW160147   6.701   9.684   3.738
86105SOL    HW260148   6.686   9.771   3.861
86106SOL     OW60149   2.806  13.283   5.683
86106SOL    HW160150   2.734  13.333   5.722
86106SOL    HW260151   2.809  13.202   5.734
86107SOL     OW60152  12.655   1.687   0.441
86107SOL    HW160153  12.683   1.629   0.369
86107SOL    HW260154  12.687   1.774   0.415
86108SOL     OW60155  14.080   7.718  12.751
86108SOL    HW160156  14.025   7.643  12.727
86108SOL    HW260157  14.153   7.715  12.690
86109SOL     OW60158  10.569   8.468  11.464
86109SOL    HW160159  10.565   8.543  11.405
86109SOL    HW260160  10.626   8.405  11.419
86110SOL     OW60161   5.458   1.121  10.296
86110SOL    HW160162   5.531   1.182  10.293
86110SOL    HW260163   5.380   1.177  10.288
86111SOL     OW60164   8.793   7.609   6.868
86111SOL    HW160165   8.770   7.591   6.959
86111SOL    HW260166   8.710   7.622   6.824
86112SOL     OW60167   5.327  10.583   2.680
86112SOL    HW160168   5.398  10.618   2.627
86112SOL    HW260169   5.331  10.634   2.762
86113SOL     OW60170   4.481   7.298   9.138
86113SOL    HW160171   4.558   7.341   9.101
86113SOL    HW260172   4.501   7.290   9.231
86114SOL     OW60173   9.281  11.033  13.972
86114SOL    HW160174   9.187  11.052  13.977
86114SOL    HW260175   9.293  10.996  13.884
86115SOL     OW60176   2.763  12.344   0.478
86115SOL    HW160177   2.771  12.389   0.394
86115SOL    HW260178   2.831  12.384   0.533
86116SOL     OW60179   1.164   8.443   0.888
86116SOL    HW160180   1.258   8.450   0.875
86116SOL    HW260181   1.139   8.361   0.845
86117SOL     OW60182   8.188   4.298   4.799
86117SOL    HW160183   8.177   4.355   4.722
86117SOL    HW260184   8.102   4.295   4.839
86118SOL     OW60185   4.428   4.687   3.852
86118SOL    HW160186   4.422   4.781   3.837
86118SOL    HW260187   4.350   4.651   3.809
86119SOL     OW60188   8.519   3.695  10.090
86119SOL    HW160189   8.450   3.747  10.048
86119SOL    HW260190   8.560   3.648  10.018
86120SOL     OW60191   7.581  10.734   8.814
86120SOL    HW160192   7.529  10.656   8.796
86120SOL    HW260193   7.566  10.752   8.907
86121SOL     OW60194   4.261  14.600  13.548
86121SOL    HW160195   4.185  14.586  13.491
86121SOL    HW260196   4.223  14.620  13.634
86122SOL     OW60197  10.946   6.895   8.346
86122SOL    HW160198  11.005   6.952   8.298
86122SOL    HW260199  10.968   6.910   8.438
86123SOL     OW60200   2.397   2.220   6.294
86123SOL    HW160201   2.410   2.195   6.203
86123SOL    HW260202   2.454   2.296   6.306
86124SOL     OW60203   1.909  13.371   4.227
86124SOL    HW160204   1.843  13.353   4.160
86124SOL    HW260205   1.957  13.447   4.194
86125SOL     OW60206  13.864  10.680   1.122
86125SOL    HW160207  13.794  10.738   1.153
86125SOL    HW260208  13.868  10.696   1.028
86126SOL     OW60209   5.249  11.997  11.469
86126SOL    HW160210   5.269  11.920  11.522
86126SOL    HW260211   5.320  12.001  11.405
86127SOL     OW60212   8.193  12.744   3.558
86127SOL    HW160213   8.266  12.793   3.521
86127SOL    HW260214   8.205  12.655   3.525
86128SOL     OW60215   9.896   3.231   0.496
86128SOL    HW160216   9.971   3.225   0.554
86128SOL    HW260217   9.850   3.311   0.522
86129SOL     OW60218   4.815   3.864   9.923
86129SOL    HW160219   4.886   3.827   9.871
86129SOL    HW260220   4.774   3.788   9.965
86130SOL     OW60221  13.039  10.778  14.541
86130SOL    HW160222  12.998  10.700  14.505
86130SOL    HW260223  13.093  10.813  14.469
86131SOL     OW60224   8.263   8.682  11.581
86131SOL    HW160225   8.221   8.624  11.517
86131SOL    HW260226   8.223   8.660  11.664
86132SOL     OW60227   7.643   6.307   9.821
86132SOL    HW160228   7.728   6.329   9.783
86132SOL    HW260229   7.639   6.359   9.901
86133SOL     OW60230  11.309   0.669   9.741
86133SOL    HW160231  11.404   0.681   9.750
86133SOL    HW260232  11.271   0.734   9.800
86134SOL     OW60233   0.517   1.435   0.118
86134SOL    HW160234   0.473   1.493   0.180
86134SOL    HW260235   0.488   1.347   0.143
86135SOL     OW60236   6.775   8.127   6.851
86135SOL    HW160237   6.746   8.096   6.937
86135SOL    HW260238   6.717   8.083   6.789
86136SOL     OW60239   7.089   9.248  10.773
86136SOL    HW160240   7.042   9.207  10.846
86136SOL    HW260241   7.135   9.322  10.812
86137SOL     OW60242   9.337   2.673   3.673
86137SOL    HW160243   9.387   2.617   3.613
86137SOL    HW260244   9.274   2.614   3.713
86138SOL     OW60245  14.754  11.710   6.209
86138SOL    HW160246  14.709  11.679   6.131
86138SOL    HW260247  14.684  11.737   6.268
86139SOL     OW60248   7.523   9.558   8.675
86139SOL    HW160249   7.484   9.644   8.692
86139SOL    HW260250   7.592   9.550   8.740
86140SOL     OW60251  13.048   2.271  13.670
86140SOL    HW160252  12.983   2.309  13.610
86140SOL    HW260253  13.015   2.293  13.758
86141SOL     OW60254   7.696  10.891   3.117
86141SOL    HW160255   7.718  10.921   3.029
86141SOL    HW260256   7.663  10.803   3.105
86142SOL     OW60257  11.050   2.377   6.743
86142SOL    HW160258  11.056   2.470   6.722
86142SOL    HW260259  11.140   2.352   6.764
86143SOL     OW60260   9.916   1.834   5.804
86143SOL    HW160261   9.901   1.740   5.797
86143SOL    HW260262  10.000   1.842   5.849
86144SOL     OW60263   5.952  12.075   9.679
86144SOL    HW160264   6.047  12.068   9.691
86144SOL    HW260265   5.916  12.050   9.764
86145SOL     OW60266   6.324  10.260   4.262
86145SOL    HW160267   6.336  10.355   4.267
86145SOL    HW260268   6.298  10.244   4.172
86146SOL     OW60269  13.643  11.290   4.055
86146SOL    HW160270  13.706  11.354   4.023
86146SOL    HW260271  13.631  11.229   3.982
86147SOL     OW60272   5.147  14.497   7.312
86147SOL    HW160273   5.213  14.508   7.381
86147SOL    HW260274   5.198  14.482   7.232
86148SOL     OW60275  14.221  14.755   9.278
86148SOL    HW160276  14.189  14.735   9.190
86148SOL    HW260277  14.149  14.732   9.336
86149SOL     OW60278   4.765   2.748   7.600
86149SOL    HW160279   4.747   2.781   7.512
86149SOL    HW260280   4.679   2.724   7.634
86150SOL     OW60281  14.634  10.602   4.097
86150SOL    HW160282  14.607  10.551   4.174
86150SOL    HW260283  14.628  10.693   4.126
86151SOL     OW60284  12.992   7.498  12.437
86151SOL    HW160285  12.926   7.445  12.393
86151SOL    HW260286  12.991   7.581  12.389
86152SOL     OW60287  14.357   6.539   4.961
86152SOL    HW160288  14.404   6.535   4.877
86152SOL    HW260289  14.420   6.506   5.025
86153SOL     OW60290   3.503   3.656  14.134
86153SOL    HW160291   3.471   3.633  14.047
86153SOL    HW260292   3.575   3.717  14.118
86154SOL     OW60293   1.723   3.649   0.931
86154SOL    HW160294   1.659   3.696   0.984
86154SOL    HW260295   1.677   3.629   0.850
86155SOL     OW60296   3.072   8.709  11.298
86155SOL    HW160297   3.137   8.779  11.302
86155SOL    HW260298   3.009   8.739  11.233
86156SOL     OW60299   4.124   6.606   9.625
86156SOL    HW160300   4.031   6.589   9.612
86156SOL    HW260301   4.133   6.701   9.612
86157SOL     OW60302   7.349   8.293   8.896
86157SOL    HW160303   7.388   8.247   8.821
86157SOL    HW260304   7.255   8.278   8.886
86158SOL     OW60305  10.090   4.008   3.819
86158SOL    HW160306  10.122   4.097   3.830
86158SOL    HW260307  10.159   3.963   3.770
86159SOL     OW60308   5.899   8.765   9.524
86159SOL    HW160309   5.882   8.672   9.539
86159SOL    HW260310   5.894   8.776   9.430
86160SOL     OW60311   5.211  14.846  10.978
86160SOL    HW160312   5.179   0.050  10.931
86160SOL    HW260313   5.288  14.817  10.929
86161SOL     OW60314   9.797   6.812   9.861
86161SOL    HW160315   9.784   6.883   9.923
86161SOL    HW260316   9.870   6.761   9.897
86162SOL     OW60317   5.708   8.399   2.893
86162SOL    HW160318   5.711   8.389   2.798
86162SOL    HW260319   5.793   8.368   2.923
86163SOL     OW60320   4.523   3.354  10.620
86163SOL    HW160321   4.507   3.308  10.703
86163SOL    HW260322   4.544   3.443  10.646
86164SOL     OW60323   0.318  12.602   3.029
86164SOL    HW160324   0.236  12.636   3.065
86164SOL    HW260325   0.332  12.519   3.074
86165SOL     OW60326   0.228   9.102  12.179
86165SOL    HW160327   0.187   9.075  12.097
86165SOL    HW260328   0.262   9.021  12.217
86166SOL     OW60329  11.026   6.294   2.750
86166SOL    HW160330  11.011   6.365   2.813
86166SOL    HW260331  10.977   6.220   2.785
86167SOL     OW60332   0.860   0.657   0.848
86167SOL    HW160333   0.805   0.579   0.853
86167SOL    HW260334   0.947   0.627   0.874
86168SOL     OW60335   2.165   0.685  10.329
86168SOL    HW160336   2.074   0.696  10.355
86168SOL    HW260337   2.215   0.711  10.406
86169SOL     OW60338   5.773   2.745   3.810
86169SOL    HW160339   5.749   2.693   3.887
86169SOL    HW260340   5.753   2.835   3.834
86170SOL     OW60341   3.380  13.508   1.524
86170SOL    HW160342   3.323  13.546   1.591
86170SOL    HW260343   3.328  13.436   1.487
86171SOL     OW60344  10.765   1.417  12.726
86171SOL    HW160345  10.798   1.507  12.731
86171SOL    HW260346  10.681   1.425  12.680
86172SOL     OW60347   8.865  13.392  12.216
86172SOL    HW160348   8.877  13.345  12.133
86172SOL    HW260349   8.773  13.379  12.239
86173SOL     OW60350   9.485   8.481   0.486
86173SOL    HW160351   9.494   8.413   0.553
86173SOL    HW260352   9.404   8.458   0.440
86174SOL     OW60353   8.081  11.705   9.083
86174SOL    HW160354   8.058  11.794   9.059
86174SOL    HW260355   8.007  11.652   9.054
86175SOL     OW60356   1.169   5.728  10.198
86175SOL    HW160357   1.137   5.786  10.130
86175SOL    HW260358   1.091   5.684  10.232
86176SOL     OW60359   5.671   8.399  12.105
86176SOL    HW160360   5.616   8.345  12.048
86176SOL    HW260361   5.626   8.484  12.108
86177SOL     OW60362   3.369   1.735  11.029
86177SOL    HW160363   3.308   1.706  10.961
86177SOL    HW260364   3.312   1.769  11.099
86178SOL     OW60365  14.444  14.862   0.406
86178SOL    HW160366  14.438   0.085   0.411
86178SOL    HW260367  14.525  14.845   0.358
86179SOL     OW60368  14.225   7.346   1.401
86179SOL    HW160369  14.198   7.438   1.402
86179SOL    HW260370  14.213   7.318   1.311
86180SOL     OW60371  11.663  12.857  11.424
86180SOL    HW160372  11.580  12.821  11.455
86180SOL    HW260373  11.643  12.891  11.336
86181SOL     OW60374   8.604  14.806  14.238
86181SOL    HW160375   8.601  14.751  14.160
86181SOL    HW260376   8.577   0.021  14.208
86182SOL     OW60377   6.095   4.599   1.837
86182SOL    HW160378   6.048   4.589   1.920
86182SOL    HW260379   6.027   4.620   1.773
86183SOL     OW60380   5.423   7.368   4.120
86183SOL    HW160381   5.491   7.359   4.052
86183SOL    HW260382   5.433   7.458   4.151
86184SOL     OW60383   3.131   9.525   4.696
86184SOL    HW160384   3.054   9.499   4.646
86184SOL    HW260385   3.101   9.597   4.751
86185SOL     OW60386  11.305   8.525   3.351
86185SOL    HW160387  11.389   8.480   3.364
86185SOL    HW260388  11.242   8.455   3.336
86186SOL     OW60389   8.972  12.065   3.491
86186SOL    HW160390   8.961  12.095   3.582
86186SOL    HW260391   8.965  11.970   3.497
86187SOL     OW60392   0.784  14.180  10.744
86187SOL    HW160393   0.753  14.097  10.779
86187SOL    HW260394   0.783  14.239  10.820
86188SOL     OW60395  12.429  14.690   4.425
86188SOL    HW160396  12.514  14.659   4.394
86188SOL    HW260397  12.401  14.623   4.487
86189SOL     OW60398  11.200   0.440  11.637
86189SOL    HW160399  11.143   0.378  11.590
86189SOL    HW260400  11.191   0.521  11.588
86190SOL     OW60401   5.848   3.723   2.665
86190SOL    HW160402   5.900   3.773   2.602
86190SOL    HW260403   5.884   3.747   2.750
86191SOL     OW60404   5.038   7.050  13.583
86191SOL    HW160405   5.095   6.975  13.601
86191SOL    HW260406   4.992   7.065  13.665
86192SOL     OW60407   7.221  12.394   7.217
86192SOL    HW160408   7.247  12.302   7.209
86192SOL    HW260409   7.180  12.415   7.134
86193SOL     OW60410   6.053   0.042   9.539
86193SOL    HW160411   6.072  14.837   9.592
86193SOL    HW260412   6.032   0.007   9.453
86194SOL     OW60413  10.574   1.195   4.898
86194SOL    HW160414  10.610   1.164   4.815
86194SOL    HW260415  10.611   1.137   4.964
86195SOL     OW60416  10.807   2.937   2.326
86195SOL    HW160417  10.868   2.987   2.380
86195SOL    HW260418  10.826   2.964   2.236
86196SOL     OW60419  10.031  10.346   5.750
86196SOL    HW160420  10.043  10.434   5.787
86196SOL    HW260421  10.028  10.288   5.826
86197SOL     OW60422   3.927   1.358   6.317
86197SOL    HW160423   4.012   1.345   6.359
86197SOL    HW260424   3.902   1.271   6.285
86198SOL     OW60425   9.413   0.396   5.165
86198SOL    HW160426   9.489   0.397   5.108
86198SOL    HW260427   9.372   0.310   5.150
86199SOL     OW60428  14.173   1.010   7.388
86199SOL    HW160429  14.127   1.092   7.406
86199SOL    HW260430  14.104   0.948   7.364
86200SOL     OW60431   8.524   5.185  12.452
86200SOL    HW160432   8.440   5.215  12.486
86200SOL    HW260433   8.505   5.161  12.361
86201SOL     OW60434   0.469   9.192   9.210
86201SOL    HW160435   0.430   9.117   9.165
86201SOL    HW260436   0.446   9.267   9.156
86202SOL     OW60437   8.855   4.276  12.337
86202SOL    HW160438   8.845   4.227  12.418
86202SOL    HW260439   8.950   4.280  12.323
86203SOL     OW60440   2.671   8.795   7.277
86203SOL    HW160441   2.590   8.843   7.293
86203SOL    HW260442   2.641   8.710   7.242
86204SOL     OW60443   5.794   1.204   6.280
86204SOL    HW160444   5.815   1.286   6.235
86204SOL    HW260445   5.766   1.231   6.367
86205SOL     OW60446   5.829   8.475  10.597
86205SOL    HW160447   5.734   8.483  10.585
86205SOL    HW260448   5.843   8.491  10.690
86206SOL     OW60449   3.543   9.356   4.872
86206SOL    HW160450   3.458   9.325   4.842
86206SOL    HW260451   3.590   9.276   4.899
86207SOL     OW60452   8.407   0.700   9.594
86207SOL    HW160453   8.466   0.764   9.634
86207SOL    HW260454   8.374   0.743   9.516
86208SOL     OW60455   1.072  11.586   4.852
86208SOL    HW160456   1.166  11.603   4.844
86208SOL    HW260457   1.066  11.513   4.914
86209SOL     OW60458   3.427   9.912   2.636
86209SOL    HW160459   3.487   9.854   2.588
86209SOL    HW260460   3.471   9.996   2.638
86210SOL     OW60461   8.909   8.757   7.051
86210SOL    HW160462   8.936   8.818   7.120
86210SOL    HW260463   8.893   8.674   7.097
86211SOL     OW60464   8.443   6.551  13.639
86211SOL    HW160465   8.357   6.579  13.670
86211SOL    HW260466   8.465   6.614  13.571
86212SOL     OW60467   0.978   2.371  12.999
86212SOL    HW160468   1.058   2.322  12.983
86212SOL    HW260469   0.908   2.316  12.964
86213SOL     OW60470   4.650   0.885   4.570
86213SOL    HW160471   4.620   0.820   4.634
86213SOL    HW260472   4.571   0.912   4.524
86214SOL     OW60473  10.745   7.267  13.946
86214SOL    HW160474  10.763   7.299  14.035
86214SOL    HW260475  10.730   7.346  13.894
86215SOL     OW60476   6.181   9.153   9.502
86215SOL    HW160477   6.151   9.070   9.538
86215SOL    HW260478   6.277   9.144   9.498
86216SOL     OW60479  10.810   9.017  10.676
86216SOL    HW160480  10.718   9.033  10.657
86216SOL    HW260481  10.831   8.937  10.630
86217SOL     OW60482   4.950   4.778   2.541
86217SOL    HW160483   4.891   4.775   2.617
86217SOL    HW260484   5.030   4.819   2.575
86218SOL     OW60485  11.449   6.255  14.323
86218SOL    HW160486  11.387   6.324  14.346
86218SOL    HW260487  11.399   6.174  14.328
86219SOL     OW60488   9.770  11.612   4.309
86219SOL    HW160489   9.842  11.559   4.276
86219SOL    HW260490   9.808  11.698   4.326
86220SOL     OW60491   6.857   8.798  11.944
86220SOL    HW160492   6.812   8.776  12.026
86220SOL    HW260493   6.796   8.772  11.875
86221SOL     OW60494   5.571  12.276   6.516
86221SOL    HW160495   5.601  12.337   6.449
86221SOL    HW260496   5.619  12.300   6.595
86222SOL     OW60497   6.573  12.328   9.385
86222SOL    HW160498   6.534  12.254   9.432
86222SOL    HW260499   6.523  12.404   9.413
86223SOL     OW60500   4.009  10.337  12.780
86223SOL    HW160501   4.058  10.260  12.750
86223SOL    HW260502   4.028  10.404  12.714
86224SOL     OW60503   4.154  14.399   2.460
86224SOL    HW160504   4.200  14.472   2.418
86224SOL    HW260505   4.223  14.351   2.507
86225SOL     OW60506   1.412   0.569   0.836
86225SOL    HW160507   1.481   0.520   0.790
86225SOL    HW260508   1.330   0.534   0.800
86226SOL     OW60509   2.685   8.194   4.776
86226SOL    HW160510   2.751   8.197   4.708
86226SOL    HW260511   2.617   8.136   4.741
86227SOL     OW60512   7.347  14.231   3.368
86227SOL    HW160513   7.378  14.154   3.320
86227SOL    HW260514   7.411  14.299   3.349
86228SOL     OW60515   7.512   2.055   6.903
86228SOL    HW160516   7.439   1.994   6.912
86228SOL    HW260517   7.477   2.139   6.932
86229SOL     OW60518   9.663   6.862   5.625
86229SOL    HW160519   9.724   6.807   5.577
86229SOL    HW260520   9.613   6.802   5.680
86230SOL     OW60521   4.418   2.638   1.181
86230SOL    HW160522   4.345   2.677   1.230
86230SOL    HW260523   4.384   2.625   1.093
86231SOL     OW60524   0.818  13.235   2.704
86231SOL    HW160525   0.754  13.164   2.707
86231SOL    HW260526   0.810  13.279   2.789
86232SOL     OW60527   9.328   8.560   1.935
86232SOL    HW160528   9.346   8.554   1.841
86232SOL    HW260529   9.392   8.624   1.967
86233SOL     OW60530   7.565   9.095   1.881
86233SOL    HW160531   7.591   9.018   1.932
86233SOL    HW260532   7.553   9.061   1.792
86234SOL     OW60533   0.214  10.255   3.199
86234SOL    HW160534   0.249  10.342   3.217
86234SOL    HW260535   0.170  10.229   3.280
86235SOL     OW60536   3.771   4.442  11.234
86235SOL    HW160537   3.861   4.475  11.234
86235SOL    HW260538   3.774   4.364  11.179
86236SOL     OW60539   4.635  14.300   3.576
86236SOL    HW160540   4.560  14.359   3.585
86236SOL    HW260541   4.673  14.296   3.664
86237SOL     OW60542  14.499   5.027  13.130
86237SOL    HW160543  14.424   5.072  13.169
86237SOL    HW260544  14.530   4.969  13.200
86238SOL     OW60545   4.841   3.087   7.280
86238SOL    HW160546   4.872   3.102   7.190
86238SOL    HW260547   4.871   3.163   7.329
86239SOL     OW60548  13.570   9.062  11.961
86239SOL    HW160549  13.636   9.006  12.002
86239SOL    HW260550  13.535   9.009  11.889
86240SOL     OW60551   1.748   7.878   4.184
86240SOL    HW160552   1.669   7.904   4.231
86240SOL    HW260553   1.795   7.960   4.168
86241SOL     OW60554   6.667   7.899   2.515
86241SOL    HW160555   6.630   7.963   2.454
86241SOL    HW260556   6.602   7.830   2.520
86242SOL     OW60557  13.414   9.464   0.841
86242SOL    HW160558  13.432   9.528   0.771
86242SOL    HW260559  13.487   9.402   0.837
86243SOL     OW60560   7.536   5.391   6.222
86243SOL    HW160561   7.488   5.391   6.139
86243SOL    HW260562   7.605   5.455   6.210
86244SOL     OW60563  12.015  13.544   7.105
86244SOL    HW160564  12.094  13.492   7.087
86244SOL    HW260565  11.956  13.482   7.148
86245SOL     OW60566   2.745   1.035   3.540
86245SOL    HW160567   2.765   1.003   3.452
86245SOL    HW260568   2.825   1.018   3.591
86246SOL     OW60569   0.827   3.703   3.850
86246SOL    HW160570   0.852   3.727   3.939
86246SOL    HW260571   0.860   3.614   3.839
86247SOL     OW60572  10.091   3.607   8.372
86247SOL    HW160573  10.017   3.557   8.337
86247SOL    HW260574  10.052   3.663   8.439
86248SOL     OW60575  12.237  14.165   4.054
86248SOL    HW160576  12.239  14.202   3.966
86248SOL    HW260577  12.171  14.216   4.101
86249SOL     OW60578   6.880   4.923   5.109
86249SOL    HW160579   6.955   4.964   5.154
86249SOL    HW260580   6.918   4.846   5.066
86250SOL     OW60581  12.330   3.556   1.840
86250SOL    HW160582  12.417   3.579   1.809
86250SOL    HW260583  12.339   3.545   1.934
86251SOL     OW60584   9.055  13.603   1.330
86251SOL    HW160585   9.010  13.640   1.405
86251SOL    HW260586   9.000  13.530   1.302
86252SOL     OW60587  10.245  10.024   3.053
86252SOL    HW160588  10.247  10.070   3.137
86252SOL    HW260589  10.245   9.932   3.076
86253SOL     OW60590  14.690   9.784   8.572
86253SOL    HW160591  14.615   9.784   8.513
86253SOL    HW260592  14.680   9.703   8.623
86254SOL     OW60593  11.775   1.687   4.908
86254SOL    HW160594  11.841   1.683   4.840
86254SOL    HW260595  11.823   1.671   4.989
86255SOL     OW60596   7.085  11.137   3.700
86255SOL    HW160597   7.173  11.105   3.718
86255SOL    HW260598   7.096  11.229   3.676
86256SOL     OW60599   4.633  12.682  10.295
86256SOL    HW160600   4.588  12.598  10.296
86256SOL    HW260601   4.616  12.719  10.382
86257SOL     OW60602   9.429   1.697   5.845
86257SOL    HW160603   9.402   1.786   5.822
86257SOL    HW260604   9.492   1.709   5.916
86258SOL     OW60605   5.852   0.628  10.145
86258SOL    HW160606   5.831   0.539  10.118
86258SOL    HW260607   5.767   0.673  10.148
86259SOL     OW60608   0.485  11.953   9.802
86259SOL    HW160609   0.552  11.886   9.819
86259SOL    HW260610   0.475  11.954   9.707
86260SOL     OW60611   0.322   7.137  11.713
86260SOL    HW160612   0.298   7.159  11.623
86260SOL    HW260613   0.354   7.220  11.749
86261SOL     OW60614   5.186  14.576   7.971
86261SOL    HW160615   5.223  14.487   7.973
86261SOL    HW260616   5.091  14.562   7.967
86262SOL     OW60617   2.968  14.299   2.372
86262SOL    HW160618   2.975  14.245   2.451
86262SOL    HW260619   2.880  14.281   2.338
86263SOL     OW60620   4.718   3.843  12.594
86263SOL    HW160621   4.679   3.907  12.535
86263SOL    HW260622   4.672   3.761  12.574
86264SOL     OW60623   2.966   0.569   2.066
86264SOL    HW160624   3.044   0.529   2.106
86264SOL    HW260625   2.955   0.522   1.983
86265SOL     OW60626   3.722   8.742  13.035
86265SOL    HW160627   3.798   8.688  13.055
86265SOL    HW260628   3.653   8.708  13.092
86266SOL     OW60629   4.716  12.785   6.240
86266SOL    HW160630   4.683  12.750   6.157
86266SOL    HW260631   4.663  12.863   6.257
86267SOL     OW60632   1.221   7.346   8.684
86267SOL    HW160633   1.154   7.358   8.750
86267SOL    HW260634   1.173   7.325   8.604
86268SOL     OW60635   7.103  13.262  14.016
86268SOL    HW160636   7.060  13.185  13.980
86268SOL    HW260637   7.110  13.243  14.110
86269SOL     OW60638  13.060  11.700   4.256
86269SOL    HW160639  13.134  11.730   4.204
86269SOL    HW260640  12.996  11.772   4.251
86270SOL     OW60641   1.382  13.856   6.858
86270SOL    HW160642   1.460  13.907   6.879
86270SOL    HW260643   1.319  13.880   6.927
86271SOL     OW60644   2.977   6.699   1.041
86271SOL    HW160645   2.958   6.704   0.948
86271SOL    HW260646   2.971   6.606   1.062
86272SOL     OW60647  10.070   4.931   7.104
86272SOL    HW160648  10.004   4.863   7.118
86272SOL    HW260649  10.127   4.926   7.180
86273SOL     OW60650   7.796   4.452   9.748
86273SOL    HW160651   7.735   4.414   9.812
86273SOL    HW260652   7.749   4.445   9.664
86274SOL     OW60653   7.966  13.765  14.832
86274SOL    HW160654   7.880  13.736  14.861
86274SOL    HW260655   7.954  13.789  14.740
86275SOL     OW60656  12.164   3.404   4.677
86275SOL    HW160657  12.239   3.413   4.737
86275SOL    HW260658  12.203   3.412   4.590
86276SOL     OW60659  11.460  12.424   7.510
86276SOL    HW160660  11.436  12.516   7.522
86276SOL    HW260661  11.449  12.385   7.597
86277SOL     OW60662   6.469   5.782  11.162
86277SOL    HW160663   6.554   5.763  11.122
86277SOL    HW260664   6.410   5.718  11.123
86278SOL     OW60665   5.139   9.447   3.294
86278SOL    HW160666   5.104   9.363   3.264
86278SOL    HW260667   5.214   9.463   3.237
86279SOL     OW60668  14.721   4.196  10.501
86279SOL    HW160669  14.807   4.183  10.461
86279SOL    HW260670  14.679   4.263  10.447
86280SOL     OW60671   5.829  14.375   0.570
86280SOL    HW160672   5.874  14.353   0.488
86280SOL    HW260673   5.798  14.291   0.604
86281SOL     OW60674   5.731   9.260   0.322
86281SOL    HW160675   5.761   9.269   0.412
86281SOL    HW260676   5.704   9.347   0.296
86282SOL     OW60677   1.188   3.169   8.512
86282SOL    HW160678   1.225   3.233   8.573
86282SOL    HW260679   1.164   3.221   8.435
86283SOL     OW60680   5.995   6.817  11.086
86283SOL    HW160681   6.038   6.738  11.053
86283SOL    HW260682   6.067   6.877  11.107
86284SOL     OW60683   8.262   3.811   2.819
86284SOL    HW160684   8.355   3.832   2.819
86284SOL    HW260685   8.249   3.754   2.743
86285SOL     OW60686  13.723   7.712   4.968
86285SOL    HW160687  13.668   7.724   5.045
86285SOL    HW260688  13.671   7.747   4.896
86286SOL     OW60689   3.164   2.726   4.592
86286SOL    HW160690   3.073   2.753   4.606
86286SOL    HW260691   3.172   2.643   4.639
86287SOL     OW60692   4.308   8.718   6.137
86287SOL    HW160693   4.222   8.721   6.094
86287SOL    HW260694   4.296   8.767   6.218
86288SOL     OW60695   8.457   1.528   3.473
86288SOL    HW160696   8.488   1.612   3.441
86288SOL    HW260697   8.474   1.530   3.567
86289SOL     OW60698   5.535  10.123  12.843
86289SOL    HW160699   5.486  10.187  12.894
86289SOL    HW260700   5.625  10.154  12.847
86290SOL     OW60701   6.931  13.543   8.791
86290SOL    HW160702   6.875  13.551   8.867
86290SOL    HW260703   7.020  13.557   8.824
86291SOL     OW60704   4.550   1.740   0.017
86291SOL    HW160705   4.582   1.704  14.807
86291SOL    HW260706   4.458   1.760   0.001
86292SOL     OW60707   9.146   9.564   0.482
86292SOL    HW160708   9.197   9.645   0.480
86292SOL    HW260709   9.182   9.511   0.412
86293SOL     OW60710  12.607   6.018   2.568
86293SOL    HW160711  12.663   5.941   2.579
86293SOL    HW260712  12.540   5.990   2.506
86294SOL     OW60713  13.172   7.628  11.535
86294SOL    HW160714  13.232   7.666  11.598
86294SOL    HW260715  13.112   7.700  11.513
86295SOL     OW60716   0.125   7.867  11.208
86295SOL    HW160717   0.055   7.849  11.146
86295SOL    HW260718   0.081   7.874  11.293
86296SOL     OW60719   0.899   3.366  11.901
86296SOL    HW160720   0.872   3.382  11.992
86296SOL    HW260721   0.885   3.450  11.857
86297SOL     OW60722  10.064   7.489  11.601
86297SOL    HW160723  10.040   7.556  11.665
86297SOL    HW260724  10.099   7.417  11.653
86298SOL     OW60725   3.313   8.085   2.266
86298SOL    HW160726   3.349   7.997   2.268
86298SOL    HW260727   3.225   8.074   2.230
86299SOL     OW60728   0.658   6.397  10.276
86299SOL    HW160729   0.647   6.399  10.181
86299SOL    HW260730   0.606   6.471  10.307
86300SOL     OW60731   4.384   1.856  12.619
86300SOL    HW160732   4.297   1.855  12.578
86300SOL    HW260733   4.377   1.795  12.692
86301SOL     OW60734   9.174   4.242  14.848
86301SOL    HW160735   9.173   4.166   0.034
86301SOL    HW260736   9.148   4.316   0.031
86302SOL     OW60737   7.412   1.718  11.190
86302SOL    HW160738   7.344   1.653  11.173
86302SOL    HW260739   7.375   1.774  11.258
86303SOL     OW60740   4.060  13.249   4.038
86303SOL    HW160741   3.982  13.278   4.086
86303SOL    HW260742   4.031  13.175   3.985
86304SOL     OW60743  12.599   2.541   2.851
86304SOL    HW160744  12.519   2.543   2.799
86304SOL    HW260745  12.570   2.563   2.940
86305SOL     OW60746  13.270   1.588  11.205
86305SOL    HW160747  13.332   1.556  11.140
86305SOL    HW260748  13.322   1.641  11.265
86306SOL     OW60749   7.211   6.210  11.703
86306SOL    HW160750   7.265   6.278  11.663
86306SOL    HW260751   7.266   6.132  11.704
86307SOL     OW60752  14.674  14.003   7.294
86307SOL    HW160753  14.619  14.074   7.328
86307SOL    HW260754  14.626  13.972   7.217
86308SOL     OW60755   6.981   3.368  13.638
86308SOL    HW160756   6.973   3.341  13.546
86308SOL    HW260757   7.075   3.366  13.655
86309SOL     OW60758   6.957   9.871   0.487
86309SOL    HW160759   6.911   9.902   0.565
86309SOL    HW260760   6.911   9.790   0.463
86310SOL     OW60761  12.680   7.321   6.924
86310SOL    HW160762  12.684   7.278   6.838
86310SOL    HW260763  12.682   7.249   6.987
86311SOL     OW60764   9.820   7.718  10.041
86311SOL    HW160765   9.727   7.721  10.020
86311SOL    HW260766   9.847   7.630  10.016
86312SOL     OW60767   1.282   2.054   2.382
86312SOL    HW160768   1.209   2.024   2.436
86312SOL    HW260769   1.341   1.979   2.379
86313SOL     OW60770  13.044   3.648  14.563
86313SOL    HW160771  13.107   3.710  14.525
86313SOL    HW260772  13.054   3.569  14.510
86314SOL     OW60773   9.158   7.983   1.325
86314SOL    HW160774   9.126   7.949   1.408
86314SOL    HW260775   9.243   7.941   1.312
86315SOL     OW60776   6.933   9.542   5.050
86315SOL    HW160777   6.957   9.480   4.982
86315SOL    HW260778   6.840   9.524   5.067
86316SOL     OW60779   3.148   6.996   0.892
86316SOL    HW160780   3.064   7.039   0.906
86316SOL    HW260781   3.170   6.960   0.978
86317SOL     OW60782   8.526   6.100  14.292
86317SOL    HW160783   8.494   6.019  14.253
86317SOL    HW260784   8.464   6.167  14.262
86318SOL     OW60785  13.538  14.212   1.970
86318SOL    HW160786  13.621  14.208   2.018
86318SOL    HW260787  13.563  14.195   1.879
86319SOL     OW60788   6.493  14.253   6.429
86319SOL    HW160789   6.460  14.201   6.356
86319SOL    HW260790   6.554  14.315   6.388
86320SOL     OW60791   5.115   0.021   4.717
86320SOL    HW160792   5.137   0.080   4.646
86320SOL    HW260793   5.193  14.839   4.730
86321SOL     OW60794   6.386   6.128   5.768
86321SOL    HW160795   6.362   6.086   5.851
86321SOL    HW260796   6.456   6.074   5.733
86322SOL     OW60797  13.651  13.921   9.923
86322SOL    HW160798  13.651  13.830   9.896
86322SOL    HW260799  13.742  13.940   9.947
86323SOL     OW60800   9.936   1.081   9.354
86323SOL    HW160801   9.867   1.021   9.326
86323SOL    HW260802   9.977   1.111   9.272
86324SOL     OW60803   7.324   9.925   2.349
86324SOL    HW160804   7.330   9.908   2.443
86324SOL    HW260805   7.341  10.019   2.340
86325SOL     OW60806   2.128   9.639   3.386
86325SOL    HW160807   2.036   9.624   3.366
86325SOL    HW260808   2.175   9.596   3.314
86326SOL     OW60809   3.495  10.754  14.627
86326SOL    HW160810   3.536  10.704  14.556
86326SOL    HW260811   3.510  10.701  14.706
86327SOL     OW60812   6.558   5.703   5.214
86327SOL    HW160813   6.508   5.662   5.143
86327SOL    HW260814   6.491   5.743   5.270
86328SOL     OW60815   9.434   3.271  13.604
86328SOL    HW160816   9.483   3.220  13.669
86328SOL    HW260817   9.494   3.341  13.579
86329SOL     OW60818   5.395   5.698  11.809
86329SOL    HW160819   5.352   5.714  11.725
86329SOL    HW260820   5.467   5.639  11.789
86330SOL     OW60821   1.238   5.107   5.931
86330SOL    HW160822   1.151   5.142   5.953
86330SOL    HW260823   1.273   5.169   5.867
86331SOL     OW60824   9.860   7.776   2.892
86331SOL    HW160825   9.927   7.708   2.892
86331SOL    HW260826   9.798   7.749   2.959
86332SOL     OW60827   7.570   1.113   2.414
86332SOL    HW160828   7.617   1.173   2.472
86332SOL    HW260829   7.636   1.083   2.351
86333SOL     OW60830   1.939  10.755  14.667
86333SOL    HW160831   1.867  10.714  14.716
86333SOL    HW260832   1.952  10.840  14.709
86334SOL     OW60833   9.853   7.704   7.845
86334SOL    HW160834   9.912   7.731   7.916
86334SOL    HW260835   9.866   7.609   7.838
86335SOL     OW60836   8.744  12.716   6.320
86335SOL    HW160837   8.738  12.747   6.229
86335SOL    HW260838   8.837  12.718   6.340
86336SOL     OW60839   8.044  10.146   7.025
86336SOL    HW160840   8.014  10.199   7.099
86336SOL    HW260841   7.983  10.166   6.955
86337SOL     OW60842   3.635   0.102  13.730
86337SOL    HW160843   3.719   0.121  13.771
86337SOL    HW260844   3.572   0.156  13.778
86338SOL     OW60845   2.173  12.431  10.257
86338SOL    HW160846   2.257  12.455  10.218
86338SOL    HW260847   2.152  12.503  10.316
86339SOL     OW60848   7.807  11.067   2.527
86339SOL    HW160849   7.879  11.106   2.576
86339SOL    HW260850   7.784  11.134   2.462
86340SOL     OW60851   8.787  10.378  10.364
86340SOL    HW160852   8.882  10.390  10.372
86340SOL    HW260853   8.751  10.421  10.442
86341SOL     OW60854  11.727  11.631   0.263
86341SOL    HW160855  11.684  11.714   0.286
86341SOL    HW260856  11.667  11.564   0.294
86342SOL     OW60857  12.667  10.406  13.082
86342SOL    HW160858  12.675  10.487  13.031
86342SOL    HW260859  12.727  10.418  13.156
86343SOL     OW60860   6.599   9.377   2.460
86343SOL    HW160861   6.657   9.311   2.423
86343SOL    HW260862   6.627   9.459   2.418
86344SOL     OW60863   2.212   0.938   0.739
86344SOL    HW160864   2.307   0.949   0.739
86344SOL    HW260865   2.195   0.874   0.808
86345SOL     OW60866   6.077   2.063   4.775
86345SOL    HW160867   6.164   2.029   4.752
86345SOL    HW260868   6.045   2.104   4.695
86346SOL     OW60869   9.082   8.746   5.911
86346SOL    HW160870   9.087   8.670   5.969
86346SOL    HW260871   9.132   8.720   5.834
86347SOL     OW60872   0.610  10.775   9.304
86347SOL    HW160873   0.673  10.845   9.317
86347SOL    HW260874   0.627  10.714   9.375
86348SOL     OW60875  11.568   8.385   3.337
86348SOL    HW160876  11.630   8.458   3.335
86348SOL    HW260877  11.547   8.369   3.245
86349SOL     OW60878   3.681   5.473   2.096
86349SOL    HW160879   3.622   5.403   2.125
86349SOL    HW260880   3.767   5.447   2.128
86350SOL     OW60881   8.693   7.531  14.223
86350SOL    HW160882   8.727   7.592  14.288
86350SOL    HW260883   8.655   7.586  14.155
86351SOL     OW60884  11.821   2.031   5.231
86351SOL    HW160885  11.850   1.964   5.292
86351SOL    HW260886  11.819   2.112   5.283
86352SOL     OW60887   3.125   7.405   2.532
86352SOL    HW160888   3.184   7.479   2.516
86352SOL    HW260889   3.058   7.441   2.591
86353SOL     OW60890   6.268  11.076   9.386
86353SOL    HW160891   6.261  10.997   9.332
86353SOL    HW260892   6.219  11.143   9.338
86354SOL     OW60893   3.495  14.743   9.651
86354SOL    HW160894   3.486  14.811   9.719
86354SOL    HW260895   3.429  14.766   9.586
86355SOL     OW60896   2.983   9.489   9.230
86355SOL    HW160897   3.039   9.511   9.305
86355SOL    HW260898   2.973   9.572   9.183
86356SOL     OW60899  11.471  13.952   9.931
86356SOL    HW160900  11.506  13.903  10.005
86356SOL    HW260901  11.520  14.034   9.930
86357SOL     OW60902   0.605  12.259  10.179
86357SOL    HW160903   0.533  12.220  10.228
86357SOL    HW260904   0.598  12.353  10.195
86358SOL     OW60905  10.104  12.947   8.207
86358SOL    HW160906  10.101  13.022   8.266
86358SOL    HW260907  10.012  12.928   8.188
86359SOL     OW60908   8.794   7.465   4.290
86359SOL    HW160909   8.846   7.544   4.275
86359SOL    HW260910   8.848   7.412   4.349
86360SOL     OW60911   5.604   1.086   7.284
86360SOL    HW160912   5.648   1.089   7.198
86360SOL    HW260913   5.529   1.144   7.274
86361SOL     OW60914   4.025  12.499   8.393
86361SOL    HW160915   4.029  12.562   8.465
86361SOL    HW260916   3.983  12.422   8.430
86362SOL     OW60917   1.079   8.669  13.743
86362SOL    HW160918   1.167   8.693  13.772
86362SOL    HW260919   1.030   8.752  13.745
86363SOL     OW60920   5.973   3.657  11.655
86363SOL    HW160921   6.054   3.657  11.603
86363SOL    HW260922   5.989   3.593  11.724
86364SOL     OW60923  12.155  12.501   7.815
86364SOL    HW160924  12.250  12.503   7.803
86364SOL    HW260925  12.140  12.432   7.879
86365SOL     OW60926  12.432  12.799  13.939
86365SOL    HW160927  12.382  12.746  14.002
86365SOL    HW260928  12.504  12.742  13.912
86366SOL     OW60929   7.742   6.053  11.985
86366SOL    HW160930   7.831   6.019  11.974
86366SOL    HW260931   7.748   6.145  11.960
86367SOL     OW60932   7.548  13.105   9.583
86367SOL    HW160933   7.551  13.062   9.668
86367SOL    HW260934   7.558  13.198   9.604
86368SOL     OW60935   7.411  12.562   9.239
86368SOL    HW160936   7.386  12.610   9.318
86368SOL    HW260937   7.492  12.604   9.211
86369SOL     OW60938   6.040   7.347   8.276
86369SOL    HW160939   5.996   7.369   8.194
86369SOL    HW260940   6.099   7.421   8.292
86370SOL     OW60941  12.349   5.116   5.758
86370SOL    HW160942  12.411   5.081   5.822
86370SOL    HW260943  12.383   5.203   5.736
86371SOL     OW60944   7.764   8.886   0.942
86371SOL    HW160945   7.786   8.950   0.875
86371SOL    HW260946   7.846   8.839   0.959
86372SOL     OW60947   8.360   1.089   0.406
86372SOL    HW160948   8.398   1.002   0.395
86372SOL    HW260949   8.434   1.150   0.399
86373SOL     OW60950  14.547   6.262   6.217
86373SOL    HW160951  14.467   6.228   6.175
86373SOL    HW260952  14.531   6.356   6.225
86374SOL     OW60953   2.508   5.987  10.995
86374SOL    HW160954   2.573   5.918  11.010
86374SOL    HW260955   2.450   5.951  10.928
86375SOL     OW60956   7.200   0.344  12.734
86375SOL    HW160957   7.158   0.298  12.807
86375SOL    HW260958   7.225   0.428  12.770
86376SOL     OW60959   4.196   9.434   6.379
86376SOL    HW160960   4.135   9.463   6.447
86376SOL    HW260961   4.279   9.475   6.403
86377SOL     OW60962   0.887   8.199   3.009
86377SOL    HW160963   0.922   8.248   3.083
86377SOL    HW260964   0.834   8.262   2.960
86378SOL     OW60965   6.323   4.245   4.247
86378SOL    HW160966   6.288   4.333   4.261
86378SOL    HW260967   6.247   4.192   4.226
86379SOL     OW60968  11.059   4.544   8.796
86379SOL    HW160969  11.134   4.580   8.842
86379SOL    HW260970  11.096   4.508   8.715
86380SOL     OW60971   1.942  10.261  12.093
86380SOL    HW160972   2.010  10.327  12.105
86380SOL    HW260973   1.894  10.289  12.015
86381SOL     OW60974  12.625  10.353   9.969
86381SOL    HW160975  12.562  10.303  10.021
86381SOL    HW260976  12.665  10.289   9.911
86382SOL     OW60977   6.795  12.321   9.564
86382SOL    HW160978   6.843  12.238   9.559
86382SOL    HW260979   6.715  12.305   9.514
86383SOL     OW60980  12.663   8.959   9.360
86383SOL    HW160981  12.611   9.036   9.385
86383SOL    HW260982  12.689   8.976   9.270
86384SOL     OW60983   8.611   9.916  13.782
86384SOL    HW160984   8.694   9.868  13.777
86384SOL    HW260985   8.556   9.876  13.714
86385SOL     OW60986  12.425   9.123   7.538
86385SOL    HW160987  12.344   9.072   7.548
86385SOL    HW260988  12.475   9.104   7.616
86386SOL     OW60989   3.005  10.430   3.885
86386SOL    HW160990   3.038  10.410   3.972
86386SOL    HW260991   2.959  10.350   3.858
86387SOL     OW60992   0.339   3.906  12.849
86387SOL    HW160993   0.338   3.974  12.916
86387SOL    HW260994   0.373   3.950  12.771
86388SOL     OW60995  14.730  10.849   0.741
86388SOL    HW160996  14.738  10.892   0.827
86388SOL    HW260997  14.699  10.919   0.683
86389SOL     OW60998   6.745  14.621   1.205
86389SOL    HW160999   6.706  14.702   1.173
86389SOL    HW261000   6.777  14.643   1.292
86390SOL     OW61001   1.956  10.629  12.013
86390SOL    HW161002   1.982  10.691  12.082
86390SOL    HW261003   1.886  10.673  11.965
86391SOL     OW61004   0.932   2.600   1.011
86391SOL    HW161005   0.962   2.557   1.091
86391SOL    HW261006   0.950   2.693   1.025
86392SOL     OW61007  10.983   7.983   1.667
86392SOL    HW161008  10.899   8.015   1.631
86392SOL    HW261009  10.964   7.963   1.758
86393SOL     OW61010   4.140   9.216   3.398
86393SOL    HW161011   4.215   9.178   3.352
86393SOL    HW261012   4.064   9.172   3.359
86394SOL     OW61013  12.030  11.911   0.132
86394SOL    HW161014  12.007  11.826   0.170
86394SOL    HW261015  12.114  11.933   0.171
86395SOL     OW61016   1.887  13.675  14.200
86395SOL    HW161017   1.944  13.624  14.142
86395SOL    HW261018   1.822  13.715  14.141
86396SOL     OW61019   9.900   8.362   5.851
86396SOL    HW161020   9.871   8.433   5.794
86396SOL    HW261021   9.849   8.374   5.931
86397SOL     OW61022   9.374   0.687   3.795
86397SOL    HW161023   9.413   0.646   3.718
86397SOL    HW261024   9.282   0.699   3.772
86398SOL     OW61025   5.756   6.633   3.977
86398SOL    HW161026   5.780   6.659   4.065
86398SOL    HW261027   5.662   6.649   3.972
86399SOL     OW61028  14.100   8.455   7.731
86399SOL    HW161029  14.135   8.542   7.709
86399SOL    HW261030  14.037   8.437   7.662
86400SOL     OW61031  13.608   3.652   2.948
86400SOL    HW161032  13.534   3.711   2.937
86400SOL    HW261033  13.640   3.636   2.860
86401SOL     OW61034   5.934   4.446   4.705
86401SOL    HW161035   5.885   4.479   4.630
86401SOL    HW261036   5.891   4.485   4.781
86402SOL     OW61037  13.175   8.999  10.426
86402SOL    HW161038  13.138   9.032  10.345
86402SOL    HW261039  13.183   8.904  10.413
86403SOL     OW61040   0.715   0.655   9.197
86403SOL    HW161041   0.783   0.589   9.178
86403SOL    HW261042   0.702   0.649   9.291
86404SOL     OW61043  12.026   5.047   4.499
86404SOL    HW161044  12.088   5.004   4.441
86404SOL    HW261045  12.067   5.045   4.585
86405SOL     OW61046   1.735   2.723  10.671
86405SOL    HW161047   1.713   2.679  10.589
86405SOL    HW261048   1.653   2.765  10.699
86406SOL     OW61049  14.414  11.862   4.942
86406SOL    HW161050  14.343  11.924   4.956
86406SOL    HW261051  14.435  11.870   4.849
86407SOL     OW61052   0.305   4.834  10.998
86407SOL    HW161053   0.244   4.810  11.068
86407SOL    HW261054   0.258   4.898  10.945
86408SOL     OW61055   3.109   1.439   5.323
86408SOL    HW161056   3.051   1.499   5.370
86408SOL    HW261057   3.140   1.489   5.248
86409SOL     OW61058   8.025   3.288  10.205
86409SOL    HW161059   8.102   3.269  10.259
86409SOL    HW261060   8.055   3.351  10.140
86410SOL     OW61061  12.408   7.621   0.717
86410SOL    HW161062  12.423   7.532   0.684
86410SOL    HW261063  12.318   7.619   0.750
86411SOL     OW61064  12.964   9.212   1.426
86411SOL    HW161065  13.019   9.231   1.350
86411SOL    HW261066  13.005   9.262   1.497
86412SOL     OW61067  10.107   6.388   8.486
86412SOL    HW161068  10.135   6.477   8.506
86412SOL    HW261069  10.165   6.360   8.415
86413SOL     OW61070   9.243  13.309   1.761
86413SOL    HW161071   9.230  13.303   1.856
86413SOL    HW261072   9.305  13.239   1.740
86414SOL     OW61073  14.582   1.502   1.615
86414SOL    HW161074  14.491   1.530   1.616
86414SOL    HW261075  14.614   1.519   1.704
86415SOL     OW61076   5.857   0.285  13.757
86415SOL    HW161077   5.882   0.206  13.709
86415SOL    HW261078   5.900   0.277  13.842
86416SOL     OW61079   6.759   3.753   5.101
86416SOL    HW161080   6.678   3.703   5.114
86416SOL    HW261081   6.730   3.842   5.080
86417SOL     OW61082  12.263   9.586   8.312
86417SOL    HW161083  12.270   9.681   8.313
86417SOL    HW261084  12.217   9.566   8.230
86418SOL     OW61085   6.419   7.838   7.863
86418SOL    HW161086   6.356   7.910   7.869
86418SOL    HW261087   6.454   7.845   7.774
86419SOL     OW61088   7.594   0.487   7.423
86419SOL    HW161089   7.624   0.397   7.436
86419SOL    HW261090   7.648   0.540   7.482
86420SOL     OW61091   2.655  13.783   0.420
86420SOL    HW161092   2.727  13.839   0.394
86420SOL    HW261093   2.611  13.831   0.490
86421SOL     OW61094  14.371  13.192   6.443
86421SOL    HW161095  14.314  13.140   6.386
86421SOL    HW261096  14.443  13.220   6.385
86422SOL     OW61097   4.797   3.155   6.951
86422SOL    HW161098   4.775   3.114   6.867
86422SOL    HW261099   4.856   3.226   6.927
86423SOL     OW61100   6.940   6.260   3.661
86423SOL    HW161101   6.898   6.297   3.738
86423SOL    HW261102   7.008   6.203   3.697
86424SOL     OW61103   0.580   9.207  13.467
86424SOL    HW161104   0.673   9.190  13.483
86424SOL    HW261105   0.561   9.160  13.386
86425SOL     OW61106   8.648  13.382  13.187
86425SOL    HW161107   8.628  13.393  13.095
86425SOL    HW261108   8.590  13.313  13.218
86426SOL     OW61109  11.353  13.792   3.965
86426SOL    HW161110  11.338  13.833   3.880
86426SOL    HW261111  11.354  13.698   3.946
86427SOL     OW61112   3.737   5.508   5.370
86427SOL    HW161113   3.726   5.579   5.308
86427SOL    HW261114   3.811   5.534   5.425
86428SOL     OW61115   6.126  12.111  10.381
86428SOL    HW161116   6.167  12.100  10.295
86428SOL    HW261117   6.199  12.115  10.443
86429SOL     OW61118   0.165   8.833  11.928
86429SOL    HW161119   0.179   8.753  11.979
86429SOL    HW261120   0.239   8.836  11.867
86430SOL     OW61121   5.342  14.074   6.242
86430SOL    HW161122   5.414  14.088   6.304
86430SOL    HW261123   5.264  14.098   6.292
86431SOL     OW61124   8.526  12.153   0.366
86431SOL    HW161125   8.547  12.085   0.430
86431SOL    HW261126   8.491  12.105   0.291
86432SOL     OW61127   4.868   0.521   6.657
86432SOL    HW161128   4.831   0.458   6.719
86432SOL    HW261129   4.867   0.605   6.704
86433SOL     OW61130   6.717  13.142   7.707
86433SOL    HW161131   6.761  13.174   7.628
86433SOL    HW261132   6.764  13.183   7.779
86434SOL     OW61133  13.789  12.288  10.521
86434SOL    HW161134  13.865  12.294  10.463
86434SOL    HW261135  13.741  12.212  10.490
86435SOL     OW61136   7.605  13.421   0.968
86435SOL    HW161137   7.606  13.338   0.921
86435SOL    HW261138   7.536  13.411   1.034
86436SOL     OW61139  13.290   4.611   5.949
86436SOL    HW161140  13.213   4.603   6.006
86436SOL    HW261141  13.256   4.598   5.861
86437SOL     OW61142   9.013   8.869   0.242
86437SOL    HW161143   9.108   8.875   0.254
86437SOL    HW261144   8.998   8.778   0.216
86438SOL     OW61145  13.302  14.421   9.141
86438SOL    HW161146  13.263  14.385   9.221
86438SOL    HW261147  13.396  14.419   9.159
86439SOL     OW61148   1.872   8.729   7.436
86439SOL    HW161149   1.948   8.681   7.469
86439SOL    HW261150   1.849   8.789   7.507
86440SOL     OW61151   2.729  11.014   4.266
86440SOL    HW161152   2.756  11.068   4.341
86440SOL    HW261153   2.785  10.937   4.270
86441SOL     OW61154  10.777  10.609  10.663
86441SOL    HW161155  10.714  10.602  10.591
86441SOL    HW261156  10.821  10.693  10.648
86442SOL     OW61157   8.056   1.770  14.040
86442SOL    HW161158   8.022   1.859  14.043
86442SOL    HW261159   7.989   1.720  13.994
86443SOL     OW61160   8.876   1.121   7.393
86443SOL    HW161161   8.804   1.076   7.349
86443SOL    HW261162   8.834   1.171   7.463
86444SOL     OW61163  11.735   8.869   4.352
86444SOL    HW161164  11.820   8.831   4.328
86444SOL    HW261165  11.737   8.956   4.313
86445SOL     OW61166  12.075  11.095   4.525
86445SOL    HW161167  11.981  11.084   4.508
86445SOL    HW261168  12.107  11.007   4.542
86446SOL     OW61169   8.836   6.701   2.482
86446SOL    HW161170   8.744   6.686   2.506
86446SOL    HW261171   8.838   6.791   2.450
86447SOL     OW61172   9.276  11.333  13.934
86447SOL    HW161173   9.290  11.239  13.933
86447SOL    HW261174   9.364  11.371  13.923
86448SOL     OW61175   8.513   5.435   8.994
86448SOL    HW161176   8.508   5.374   9.068
86448SOL    HW261177   8.496   5.521   9.033
86449SOL     OW61178   8.823   8.327   0.619
86449SOL    HW161179   8.854   8.312   0.708
86449SOL    HW261180   8.775   8.409   0.625
86450SOL     OW61181   3.185   4.198   8.891
86450SOL    HW161182   3.274   4.164   8.889
86450SOL    HW261183   3.190   4.273   8.950
86451SOL     OW61184   3.807  14.842   5.754
86451SOL    HW161185   3.809  14.748   5.737
86451SOL    HW261186   3.852  14.852   5.838
86452SOL     OW61187   2.204   5.338   9.569
86452SOL    HW161188   2.216   5.305   9.658
86452SOL    HW261189   2.291   5.333   9.529
86453SOL     OW61190  11.715   1.434  12.650
86453SOL    HW161191  11.624   1.429  12.680
86453SOL    HW261192  11.738   1.344  12.628
86454SOL     OW61193  14.042   1.070  13.920
86454SOL    HW161194  13.967   1.080  13.861
86454SOL    HW261195  14.119   1.082  13.864
86455SOL     OW61196   1.165   8.960  14.027
86455SOL    HW161197   1.127   9.015  13.958
86455SOL    HW261198   1.259   8.970  14.016
86456SOL     OW61199   0.731   1.934   0.380
86456SOL    HW161200   0.776   1.914   0.462
86456SOL    HW261201   0.800   1.926   0.313
86457SOL     OW61202   1.893   7.519  13.397
86457SOL    HW161203   1.917   7.575  13.324
86457SOL    HW261204   1.909   7.430  13.365
86458SOL     OW61205   5.239  13.886   9.241
86458SOL    HW161206   5.272  13.824   9.176
86458SOL    HW261207   5.281  13.859   9.323
86459SOL     OW61208   2.467  14.765  12.514
86459SOL    HW161209   2.420  14.843  12.486
86459SOL    HW261210   2.478  14.776  12.608
86460SOL     OW61211  11.263   6.053  14.371
86460SOL    HW161212  11.265   6.090  14.459
86460SOL    HW261213  11.261   5.958  14.384
86461SOL     OW61214   9.275   0.982   9.190
86461SOL    HW161215   9.318   0.907   9.230
86461SOL    HW261216   9.256   0.955   9.100
86462SOL     OW61217   6.022   6.207   7.308
86462SOL    HW161218   6.086   6.162   7.362
86462SOL    HW261219   5.964   6.251   7.370
86463SOL     OW61220  14.018  13.254   3.707
86463SOL    HW161221  13.936  13.231   3.752
86463SOL    HW261222  14.084  13.200   3.749
86464SOL     OW61223   5.300   2.823  12.546
86464SOL    HW161224   5.283   2.729  12.536
86464SOL    HW261225   5.315   2.835  12.640
86465SOL     OW61226   9.957   1.214   4.712
86465SOL    HW161227   9.906   1.217   4.631
86465SOL    HW261228   9.898   1.172   4.775
86466SOL     OW61229  11.847   1.249   6.029
86466SOL    HW161230  11.804   1.215   6.108
86466SOL    HW261231  11.774   1.269   5.970
86467SOL     OW61232   5.907   9.207   6.798
86467SOL    HW161233   5.957   9.286   6.819
86467SOL    HW261234   5.823   9.240   6.767
86468SOL     OW61235  12.178   6.578   0.332
86468SOL    HW161236  12.170   6.648   0.396
86468SOL    HW261237  12.165   6.620   0.247
86469SOL     OW61238   8.161  10.252   7.734
86469SOL    HW161239   8.082  10.289   7.775
86469SOL    HW261240   8.194  10.323   7.678
86470SOL     OW61241   9.433   7.803   6.545
86470SOL    HW161242   9.374   7.796   6.470
86470SOL    HW261243   9.511   7.754   6.519
86471SOL     OW61244   6.183   4.346   1.365
86471SOL    HW161245   6.166   4.252   1.374
86471SOL    HW261246   6.202   4.375   1.454
86472SOL     OW61247   9.115   9.102   9.665
86472SOL    HW161248   9.096   9.026   9.720
86472SOL    HW261249   9.166   9.066   9.592
86473SOL     OW61250   7.044   7.085   4.681
86473SOL    HW161251   6.949   7.083   4.678
86473SOL    HW261252   7.065   7.149   4.749
86474SOL     OW61253  14.321  10.113  13.335
86474SOL    HW161254  14.358  10.199  13.355
86474SOL    HW261255  14.382  10.075  13.272
86475SOL     OW61256   2.304   2.903  11.210
86475SOL    HW161257   2.350   2.841  11.153
86475SOL    HW261258   2.342   2.988  11.189
86476SOL     OW61259   0.551  13.230   9.394
86476SOL    HW161260   0.540  13.229   9.299
86476SOL    HW261261   0.630  13.282   9.408
86477SOL     OW61262   3.149  10.491   6.217
86477SOL    HW161263   3.169  10.584   6.209
86477SOL    HW261264   3.058  10.483   6.187
86478SOL     OW61265   5.053   6.811   7.425
86478SOL    HW161266   4.993   6.738   7.409
86478SOL    HW261267   5.093   6.828   7.340
86479SOL     OW61268  10.320  10.595   8.970
86479SOL    HW161269  10.255  10.662   8.950
86479SOL    HW261270  10.270  10.528   9.017
86480SOL     OW61271   3.296   6.380  13.571
86480SOL    HW161272   3.225   6.439  13.593
86480SOL    HW261273   3.373   6.417  13.614
86481SOL     OW61274  10.001   8.368   6.283
86481SOL    HW161275   9.992   8.448   6.334
86481SOL    HW261276   9.996   8.297   6.347
86482SOL     OW61277   2.071   9.550   9.765
86482SOL    HW161278   2.146   9.491   9.777
86482SOL    HW261279   2.089   9.595   9.682
86483SOL     OW61280   7.596   6.496  13.707
86483SOL    HW161281   7.616   6.590  13.700
86483SOL    HW261282   7.504   6.490  13.683
86484SOL     OW61283   2.362   2.646   6.460
86484SOL    HW161284   2.441   2.659   6.408
86484SOL    HW261285   2.390   2.591   6.534
86485SOL     OW61286   0.009  11.186   2.170
86485SOL    HW161287  14.786  11.182   2.156
86485SOL    HW261288   0.037  11.095   2.177
86486SOL     OW61289   0.599   9.296   6.349
86486SOL    HW161290   0.504   9.302   6.347
86486SOL    HW261291   0.618   9.248   6.430
86487SOL     OW61292  12.617   2.883   3.329
86487SOL    HW161293  12.678   2.838   3.270
86487SOL    HW261294  12.531   2.848   3.306
86488SOL     OW61295  12.403   9.571  13.578
86488SOL    HW161296  12.403   9.666  13.573
86488SOL    HW261297  12.496   9.547  13.582
86489SOL     OW61298   7.657  10.629   1.013
86489SOL    HW161299   7.640  10.535   1.019
86489SOL    HW261300   7.728  10.637   0.949
86490SOL     OW61301  14.091   2.097   5.276
86490SOL    HW161302  14.057   2.137   5.196
86490SOL    HW261303  14.139   2.019   5.246
86491SOL     OW61304  13.000   8.335  12.956
86491SOL    HW161305  13.088   8.362  12.930
86491SOL    HW261306  13.006   8.240  12.965
86492SOL     OW61307  11.778   0.017   0.517
86492SOL    HW161308  11.846  14.832   0.551
86492SOL    HW261309  11.822   0.067   0.447
86493SOL     OW61310  12.555  13.298  10.702
86493SOL    HW161311  12.618  13.364  10.731
86493SOL    HW261312  12.609  13.224  10.675
86494SOL     OW61313   9.447   5.357   7.046
86494SOL    HW161314   9.400   5.274   7.054
86494SOL    HW261315   9.493   5.351   6.963
86495SOL     OW61316  10.975  12.650   5.783
86495SOL    HW161317  11.008  12.561   5.791
86495SOL    HW261318  11.032  12.703   5.839
86496SOL     OW61319   2.606   5.875  11.934
86496SOL    HW161320   2.615   5.833  11.848
86496SOL    HW261321   2.642   5.811  11.995
86497SOL     OW61322   3.912  10.564  12.015
86497SOL    HW161323   3.947  10.476  12.026
86497SOL    HW261324   3.971  10.605  11.951
86498SOL     OW61325   4.584   2.184   8.666
86498SOL    HW161326   4.630   2.190   8.582
86498SOL    HW261327   4.575   2.090   8.680
86499SOL     OW61328   7.542   5.405   8.115
86499SOL    HW161329   7.575   5.450   8.037
86499SOL    HW261330   7.561   5.464   8.187
86500SOL     OW61331   7.996   9.696  14.546
86500SOL    HW161332   7.953   9.671  14.464
86500SOL    HW261333   7.949   9.647  14.613
86501SOL     OW61334  10.592   8.677   3.227
86501SOL    HW161335  10.525   8.713   3.284
86501SOL    HW261336  10.590   8.583   3.244
86502SOL     OW61337   6.846   4.505   6.693
86502SOL    HW161338   6.865   4.458   6.612
86502SOL    HW261339   6.905   4.467   6.758
86503SOL     OW61340   0.393   2.864  10.522
86503SOL    HW161341   0.301   2.843  10.506
86503SOL    HW261342   0.433   2.781  10.546
86504SOL     OW61343   8.955   2.309   2.199
86504SOL    HW161344   8.974   2.389   2.150
86504SOL    HW261345   8.999   2.240   2.150
86505SOL     OW61346   4.772  11.772   2.008
86505SOL    HW161347   4.817  11.713   1.948
86505SOL    HW261348   4.689  11.727   2.027
86506SOL     OW61349   0.255   6.260   9.909
86506SOL    HW161350   0.186   6.197   9.929
86506SOL    HW261351   0.211   6.345   9.907
86507SOL     OW61352  10.667   3.537  11.924
86507SOL    HW161353  10.669   3.571  12.013
86507SOL    HW261354  10.738   3.472  11.921
86508SOL     OW61355   5.760  10.084   3.596
86508SOL    HW161356   5.666  10.065   3.597
86508SOL    HW261357   5.770  10.159   3.655
86509SOL     OW61358  14.452  11.871   9.681
86509SOL    HW161359  14.453  11.855   9.586
86509SOL    HW261360  14.360  11.887   9.701
86510SOL     OW61361   6.203   3.283   5.381
86510SOL    HW161362   6.267   3.329   5.435
86510SOL    HW261363   6.133   3.259   5.442
86511SOL     OW61364   0.460   9.269   0.859
86511SOL    HW161365   0.397   9.210   0.899
86511SOL    HW261366   0.538   9.261   0.913
86512SOL     OW61367   9.187  14.863  14.401
86512SOL    HW161368   9.213  14.776  14.430
86512SOL    HW261369   9.097   0.001  14.433
86513SOL     OW61370   6.018   2.835  11.346
86513SOL    HW161371   5.963   2.866  11.274
86513SOL    HW261372   6.002   2.741  11.350
86514SOL     OW61373   0.160  13.822   7.109
86514SOL    HW161374   0.123  13.740   7.142
86514SOL    HW261375   0.251  13.802   7.090
86515SOL     OW61376   2.859   6.717  14.504
86515SOL    HW161377   2.928   6.671  14.455
86515SOL    HW261378   2.842   6.661  14.579
86516SOL     OW61379  13.646   3.207  10.144
86516SOL    HW161380  13.635   3.269  10.071
86516SOL    HW261381  13.642   3.121  10.102
86517SOL     OW61382   0.759  11.161   3.496
86517SOL    HW161383   0.705  11.114   3.559
86517SOL    HW261384   0.849  11.146   3.525
86518SOL     OW61385   5.516   6.366  12.130
86518SOL    HW161386   5.521   6.306  12.205
86518SOL    HW261387   5.447   6.428  12.153
86519SOL     OW61388  14.092  13.209   7.192
86519SOL    HW161389  14.070  13.255   7.111
86519SOL    HW261390  14.188  13.201   7.190
86520SOL     OW61391   9.198  10.887  12.275
86520SOL    HW161392   9.127  10.827  12.251
86520SOL    HW261393   9.178  10.968  12.228
86521SOL     OW61394   7.312   8.389  11.532
86521SOL    HW161395   7.236   8.344  11.496
86521SOL    HW261396   7.296   8.391  11.627
86522SOL     OW61397   3.285   7.704   9.917
86522SOL    HW161398   3.198   7.732   9.889
86522SOL    HW261399   3.272   7.615   9.950
86523SOL     OW61400   2.637   4.486   7.442
86523SOL    HW161401   2.615   4.439   7.522
86523SOL    HW261402   2.563   4.544   7.426
86524SOL     OW61403   4.012   4.902  13.260
86524SOL    HW161404   4.012   4.856  13.176
86524SOL    HW261405   4.041   4.836  13.323
86525SOL     OW61406  14.058  11.904  13.613
86525SOL    HW161407  13.990  11.849  13.575
86525SOL    HW261408  14.106  11.847  13.673
86526SOL     OW61409  11.157   3.154   5.888
86526SOL    HW161410  11.117   3.097   5.953
86526SOL    HW261411  11.164   3.239   5.932
86527SOL     OW61412   1.266   9.806   2.309
86527SOL    HW161413   1.240   9.886   2.354
86527SOL    HW261414   1.360   9.798   2.327
86528SOL     OW61415   8.121  10.314  11.007
86528SOL    HW161416   8.199  10.337  11.058
86528SOL    HW261417   8.148  10.237  10.956
86529SOL     OW61418   9.605   6.857  11.782
86529SOL    HW161419   9.609   6.931  11.721
86529SOL    HW261420   9.605   6.897  11.869
86530SOL     OW61421  13.583   9.391   4.402
86530SOL    HW161422  13.610   9.308   4.443
86530SOL    HW261423  13.546   9.365   4.318
86531SOL     OW61424   9.187  12.728   4.188
86531SOL    HW161425   9.131  12.652   4.177
86531SOL    HW261426   9.208  12.729   4.281
86532SOL     OW61427  14.370   5.914  10.697
86532SOL    HW161428  14.419   5.956  10.768
86532SOL    HW261429  14.419   5.937  10.618
86533SOL     OW61430   9.369   0.064   1.843
86533SOL    HW161431   9.373   0.013   1.923
86533SOL    HW261432   9.336   0.004   1.777
86534SOL     OW61433   6.214   7.027   2.533
86534SOL    HW161434   6.217   6.974   2.613
86534SOL    HW261435   6.302   7.064   2.525
86535SOL     OW61436   8.835   1.486   5.945
86535SOL    HW161437   8.909   1.516   5.893
86535SOL    HW261438   8.761   1.538   5.912
86536SOL     OW61439   9.099   7.600   1.124
86536SOL    HW161440   9.105   7.623   1.217
86536SOL    HW261441   9.057   7.675   1.083
86537SOL     OW61442  11.509  12.031  13.261
86537SOL    HW161443  11.464  12.028  13.176
86537SOL    HW261444  11.588  11.978  13.248
86538SOL     OW61445  11.694  11.673  13.500
86538SOL    HW161446  11.629  11.716  13.556
86538SOL    HW261447  11.686  11.580  13.522
86539SOL     OW61448   6.975   0.555   4.165
86539SOL    HW161449   7.040   0.579   4.099
86539SOL    HW261450   6.993   0.613   4.239
86540SOL     OW61451   7.747  12.765   2.365
86540SOL    HW161452   7.783  12.825   2.300
86540SOL    HW261453   7.823  12.722   2.404
86541SOL     OW61454   2.929   8.394   5.623
86541SOL    HW161455   2.939   8.299   5.625
86541SOL    HW261456   2.953   8.420   5.534
86542SOL     OW61457  13.648  12.142  12.494
86542SOL    HW161458  13.650  12.187  12.410
86542SOL    HW261459  13.663  12.050  12.473
86543SOL     OW61460  13.629   7.042  13.969
86543SOL    HW161461  13.678   7.096  13.907
86543SOL    HW261462  13.596   6.969  13.917
86544SOL     OW61463   3.975   7.246   7.829
86544SOL    HW161464   3.907   7.297   7.785
86544SOL    HW261465   3.956   7.155   7.805
86545SOL     OW61466   3.914  10.185  10.835
86545SOL    HW161467   3.936  10.276  10.815
86545SOL    HW261468   3.826  10.174  10.800
86546SOL     OW61469   3.511   8.504   4.379
86546SOL    HW161470   3.550   8.418   4.391
86546SOL    HW261471   3.446   8.492   4.310
86547SOL     OW61472   5.654   9.900   0.626
86547SOL    HW161473   5.705   9.826   0.657
86547SOL    HW261474   5.653   9.890   0.530
86548SOL     OW61475   7.805   3.328   1.038
86548SOL    HW161476   7.874   3.393   1.023
86548SOL    HW261477   7.804   3.275   0.959
86549SOL     OW61478  12.485   9.606   1.329
86549SOL    HW161479  12.559   9.592   1.388
86549SOL    HW261480  12.408   9.605   1.385
86550SOL     OW61481   9.902  10.889  14.236
86550SOL    HW161482   9.973  10.825  14.231
86550SOL    HW261483   9.940  10.963  14.284
86551SOL     OW61484   7.119   5.096   6.017
86551SOL    HW161485   7.192   5.112   6.077
86551SOL    HW261486   7.143   5.141   5.937
86552SOL     OW61487  13.584   8.277   2.346
86552SOL    HW161488  13.664   8.317   2.313
86552SOL    HW261489  13.593   8.184   2.325
86553SOL     OW61490   8.992   1.197   5.831
86553SOL    HW161491   8.986   1.189   5.926
86553SOL    HW261492   9.060   1.263   5.816
86554SOL     OW61493   3.716  11.188   5.646
86554SOL    HW161494   3.764  11.107   5.662
86554SOL    HW261495   3.629  11.159   5.617
86555SOL     OW61496   6.820   2.274  12.813
86555SOL    HW161497   6.730   2.306  12.817
86555SOL    HW261498   6.870   2.350  12.781
86556SOL     OW61499   5.539   0.764  14.268
86556SOL    HW161500   5.532   0.835  14.332
86556SOL    HW261501   5.628   0.773  14.232
86557SOL     OW61502   1.345   4.981  11.150
86557SOL    HW161503   1.436   4.992  11.121
86557SOL    HW261504   1.325   4.889  11.131
86558SOL     OW61505   9.544   6.393  11.815
86558SOL    HW161506   9.589   6.315  11.849
86558SOL    HW261507   9.460   6.394  11.861
86559SOL     OW61508   1.818  12.616   0.105
86559SOL    HW161509   1.901  12.664   0.109
86559SOL    HW261510   1.768  12.661   0.037
86560SOL     OW61511   4.986   6.203   4.726
86560SOL    HW161512   5.079   6.188   4.744
86560SOL    HW261513   4.963   6.136   4.661
86561SOL     OW61514   6.028  14.603   8.543
86561SOL    HW161515   5.977  14.549   8.483
86561SOL    HW261516   6.030  14.553   8.625
86562SOL     OW61517   7.338   0.501   0.142
86562SOL    HW161518   7.432   0.483   0.134
86562SOL    HW261519   7.333   0.571   0.207
86563SOL     OW61520   9.637  10.147   8.908
86563SOL    HW161521   9.714  10.168   8.961
86563SOL    HW261522   9.602  10.067   8.948
86564SOL     OW61523  11.236   8.892   8.006
86564SOL    HW161524  11.256   8.857   8.093
86564SOL    HW261525  11.167   8.956   8.021
86565SOL     OW61526  11.867   2.331  10.179
86565SOL    HW161527  11.932   2.352  10.112
86565SOL    HW261528  11.818   2.257  10.143
86566SOL     OW61529   7.687   8.801   8.199
86566SOL    HW161530   7.744   8.873   8.223
86566SOL    HW261531   7.662   8.761   8.282
86567SOL     OW61532  12.307  12.514  14.830
86567SOL    HW161533  12.351  12.508  14.745
86567SOL    HW261534  12.223  12.470  14.817
86568SOL     OW61535  12.692  10.987  12.803
86568SOL    HW161536  12.664  10.992  12.894
86568SOL    HW261537  12.634  10.923  12.763
86569SOL     OW61538   0.757   9.816   9.132
86569SOL    HW161539   0.703   9.825   9.211
86569SOL    HW261540   0.830   9.761   9.160
86570SOL     OW61541   7.799   3.708   2.228
86570SOL    HW161542   7.769   3.795   2.253
86570SOL    HW261543   7.808   3.660   2.310
86571SOL     OW61544   2.984  13.140   6.631
86571SOL    HW161545   3.077  13.142   6.608
86571SOL    HW261546   2.943  13.095   6.557
86572SOL     OW61547   1.441   4.724  10.408
86572SOL    HW161548   1.455   4.630  10.400
86572SOL    HW261549   1.491   4.762  10.336
86573SOL     OW61550   8.830   5.980   5.930
86573SOL    HW161551   8.880   6.060   5.943
86573SOL    HW261552   8.887   5.910   5.964
86574SOL     OW61553  11.745   8.047  13.996
86574SOL    HW161554  11.768   8.060  14.088
86574SOL    HW261555  11.820   8.000  13.959
86575SOL     OW61556   2.162   1.898  13.462
86575SOL    HW161557   2.077   1.942  13.471
86575SOL    HW261558   2.178   1.859  13.547
86576SOL     OW61559  13.161  13.588   2.970
86576SOL    HW161560  13.243  13.637   2.963
86576SOL    HW261561  13.155  13.539   2.888
86577SOL     OW61562   9.038   7.596   5.107
86577SOL    HW161563   9.005   7.508   5.125
86577SOL    HW261564   9.010   7.614   5.018
86578SOL     OW61565   8.373  10.946   4.686
86578SOL    HW161566   8.357  10.865   4.734
86578SOL    HW261567   8.465  10.966   4.702
86579SOL     OW61568  14.214  10.947   2.058
86579SOL    HW161569  14.265  10.869   2.082
86579SOL    HW261570  14.176  10.977   2.140
86580SOL     OW61571   0.196  13.766   5.718
86580SOL    HW161572   0.161  13.706   5.652
86580SOL    HW261573   0.123  13.824   5.739
86581SOL     OW61574   6.217  11.279  14.632
86581SOL    HW161575   6.180  11.322  14.710
86581SOL    HW261576   6.236  11.350  14.572
86582SOL     OW61577  10.994   0.561   2.247
86582SOL    HW161578  10.975   0.511   2.326
86582SOL    HW261579  10.915   0.613   2.231
86583SOL     OW61580   1.722   4.238  14.647
86583SOL    HW161581   1.703   4.170  14.711
86583SOL    HW261582   1.815   4.256  14.659
86584SOL     OW61583  12.034   6.873  12.904
86584SOL    HW161584  12.003   6.911  12.821
86584SOL    HW261585  11.987   6.922  12.971
86585SOL     OW61586   9.381   8.878   4.042
86585SOL    HW161587   9.295   8.846   4.014
86585SOL    HW261588   9.362   8.950   4.102
86586SOL     OW61589  14.094  11.291   5.822
86586SOL    HW161590  14.033  11.218   5.837
86586SOL    HW261591  14.037  11.366   5.805
86587SOL     OW61592   7.077  13.082   3.220
86587SOL    HW161593   7.063  13.002   3.270
86587SOL    HW261594   7.070  13.153   3.283
86588SOL     OW61595  13.014   3.841   8.312
86588SOL    HW161596  13.033   3.872   8.400
86588SOL    HW261597  12.919   3.851   8.303
86589SOL     OW61598  13.556   7.614   0.279
86589SOL    HW161599  13.494   7.661   0.224
86589SOL    HW261600  13.539   7.521   0.261
86590SOL     OW61601   8.441   0.080  13.303
86590SOL    HW161602   8.436   0.097  13.397
86590SOL    HW261603   8.532   0.100  13.279
86591SOL     OW61604   2.763  10.362   0.822
86591SOL    HW161605   2.783  10.366   0.728
86591SOL    HW261606   2.729  10.274   0.835
86592SOL     OW61607   3.946  14.337  12.404
86592SOL    HW161608   3.924  14.383  12.485
86592SOL    HW261609   4.041  14.346  12.397
86593SOL     OW61610  14.672  10.335   8.015
86593SOL    HW161611  14.742  10.342   7.950
86593SOL    HW261612  14.683  10.413   8.070
86594SOL     OW61613   9.094  10.215   1.310
86594SOL    HW161614   9.187  10.227   1.330
86594SOL    HW261615   9.093  10.159   1.232
86595SOL     OW61616   0.440  11.063  13.080
86595SOL    HW161617   0.480  11.063  13.168
86595SOL    HW261618   0.347  11.050  13.096
86596SOL     OW61619   9.662   5.032   7.207
86596SOL    HW161620   9.645   4.997   7.294
86596SOL    HW261621   9.682   5.124   7.220
86597SOL     OW61622   7.586  10.278   2.629
86597SOL    HW161623   7.544  10.194   2.646
86597SOL    HW261624   7.549  10.337   2.694
86598SOL     OW61625   2.900   0.344   3.363
86598SOL    HW161626   2.836   0.372   3.297
86598SOL    HW261627   2.940   0.266   3.327
86599SOL     OW61628   5.573   5.786  10.871
86599SOL    HW161629   5.547   5.756  10.785
86599SOL    HW261630   5.516   5.862  10.889
86600SOL     OW61631   8.554   2.258   3.045
86600SOL    HW161632   8.519   2.347   3.041
86600SOL    HW261633   8.592   2.251   3.132
86601SOL     OW61634   3.709   7.476   2.494
86601SOL    HW161635   3.669   7.421   2.426
86601SOL    HW261636   3.753   7.545   2.445
86602SOL     OW61637  11.104   0.511  10.231
86602SOL    HW161638  11.123   0.558  10.312
86602SOL    HW261639  11.130   0.572  10.162
86603SOL     OW61640   8.323   4.135  14.615
86603SOL    HW161641   8.302   4.222  14.651
86603SOL    HW261642   8.340   4.151  14.523
86604SOL     OW61643   6.929   3.514  10.767
86604SOL    HW161644   7.017   3.516  10.804
86604SOL    HW261645   6.938   3.466  10.684
86605SOL     OW61646  13.447  14.568  13.487
86605SOL    HW161647  13.361  14.552  13.449
86605SOL    HW261648  13.465  14.489  13.539
86606SOL     OW61649   0.525  12.269   8.977
86606SOL    HW161650   0.612  12.249   8.942
86606SOL    HW261651   0.532  12.248   9.070
86607SOL     OW61652   4.750  10.398   1.712
86607SOL    HW161653   4.722  10.441   1.792
86607SOL    HW261654   4.759  10.468   1.648
86608SOL     OW61655   7.389  11.574   3.400
86608SOL    HW161656   7.482  11.587   3.380
86608SOL    HW261657   7.343  11.626   3.334
86609SOL     OW61658   1.996  10.772   5.222
86609SOL    HW161659   1.924  10.727   5.266
86609SOL    HW261660   2.013  10.850   5.275
86610SOL     OW61661  12.630   5.018  12.332
86610SOL    HW161662  12.680   5.072  12.270
86610SOL    HW261663  12.696   4.963  12.374
86611SOL     OW61664   1.656  12.287   4.714
86611SOL    HW161665   1.564  12.273   4.693
86611SOL    HW261666   1.700  12.290   4.629
86612SOL     OW61667   2.435  13.947   6.653
86612SOL    HW161668   2.383  14.005   6.597
86612SOL    HW261669   2.425  13.982   6.741
86613SOL     OW61670   4.576  11.154   1.222
86613SOL    HW161671   4.595  11.247   1.207
86613SOL    HW261672   4.486  11.152   1.254
86614SOL     OW61673   6.811  12.137  10.091
86614SOL    HW161674   6.784  12.148   9.999
86614SOL    HW261675   6.731  12.109  10.136
86615SOL     OW61676   8.808   9.958  11.790
86615SOL    HW161677   8.815   9.870  11.827
86615SOL    HW261678   8.898   9.989  11.781
86616SOL     OW61679   0.927   7.424  11.077
86616SOL    HW161680   0.930   7.518  11.093
86616SOL    HW261681   0.983   7.387  11.146
86617SOL     OW61682  10.277   4.414   5.031
86617SOL    HW161683  10.191   4.387   4.996
86617SOL    HW261684  10.295   4.352   5.101
86618SOL     OW61685  10.197  11.936   9.947
86618SOL    HW161686  10.289  11.920   9.970
86618SOL    HW261687  10.164  11.991  10.018
86619SOL     OW61688   3.232   9.626   9.123
86619SOL    HW161689   3.218   9.652   9.214
86619SOL    HW261690   3.292   9.551   9.129
86620SOL     OW61691   2.327   2.953   3.175
86620SOL    HW161692   2.255   2.978   3.232
86620SOL    HW261693   2.376   3.034   3.161
86621SOL     OW61694  11.001  14.728   4.175
86621SOL    HW161695  11.020  14.812   4.217
86621SOL    HW261696  11.088  14.688   4.163
86622SOL     OW61697  10.274   9.171   2.615
86622SOL    HW161698  10.222   9.233   2.666
86622SOL    HW261699  10.214   9.099   2.597
86623SOL     OW61700  14.320   3.071  14.543
86623SOL    HW161701  14.297   3.043  14.454
86623SOL    HW261702  14.365   3.155  14.530
86624SOL     OW61703   6.918   4.674   7.210
86624SOL    HW161704   6.847   4.620   7.244
86624SOL    HW261705   6.967   4.701   7.287
86625SOL     OW61706  10.622  12.839   4.902
86625SOL    HW161707  10.532  12.818   4.879
86625SOL    HW261708  10.615  12.887   4.985
86626SOL     OW61709   8.164  11.513  13.133
86626SOL    HW161710   8.247  11.557  13.113
86626SOL    HW261711   8.169  11.431  13.085
86627SOL     OW61712   0.622   7.682   7.928
86627SOL    HW161713   0.622   7.651   7.838
86627SOL    HW261714   0.529   7.692   7.950
86628SOL     OW61715   8.288  14.193  12.221
86628SOL    HW161716   8.352  14.146  12.274
86628SOL    HW261717   8.340  14.254  12.168
86629SOL     OW61718   2.468   3.692   4.743
86629SOL    HW161719   2.407   3.737   4.801
86629SOL    HW261720   2.486   3.756   4.674
86630SOL     OW61721   1.409   0.185   5.960
86630SOL    HW161722   1.378   0.118   5.900
86630SOL    HW261723   1.448   0.252   5.904
86631SOL     OW61724   1.955   9.992   6.355
86631SOL    HW161725   1.876  10.033   6.320
86631SOL    HW261726   2.005  10.065   6.392
86632SOL     OW61727   9.646   4.141   5.095
86632SOL    HW161728   9.590   4.064   5.099
86632SOL    HW261729   9.709   4.121   5.025
86633SOL     OW61730  13.322   6.480   1.935
86633SOL    HW161731  13.246   6.538   1.939
86633SOL    HW261732  13.378   6.518   1.868
86634SOL     OW61733   0.209   6.676   6.079
86634SOL    HW161734   0.150   6.750   6.084
86634SOL    HW261735   0.186   6.631   5.997
86635SOL     OW61736   9.178   5.826   5.001
86635SOL    HW161737   9.210   5.915   5.015
86635SOL    HW261738   9.188   5.812   4.907
86636SOL     OW61739   0.282   1.408   4.040
86636SOL    HW161740   0.309   1.473   4.104
86636SOL    HW261741   0.262   1.458   3.961
86637SOL     OW61742   6.830   3.285   1.876
86637SOL    HW161743   6.855   3.235   1.798
86637SOL    HW261744   6.882   3.247   1.947
86638SOL     OW61745  12.645   2.966  12.940
86638SOL    HW161746  12.573   2.988  12.882
86638SOL    HW261747  12.604   2.938  13.022
86639SOL     OW61748   9.279   5.500  10.151
86639SOL    HW161749   9.288   5.440  10.076
86639SOL    HW261750   9.190   5.533  10.144
86640SOL     OW61751   7.654  10.052   4.576
86640SOL    HW161752   7.614  10.113   4.639
86640SOL    HW261753   7.651  10.099   4.492
86641SOL     OW61754   2.473   3.370   6.507
86641SOL    HW161755   2.498   3.306   6.574
86641SOL    HW261756   2.426   3.438   6.555
86642SOL     OW61757  14.205   6.057   7.246
86642SOL    HW161758  14.287   6.015   7.218
86642SOL    HW261759  14.201   6.041   7.340
86643SOL     OW61760   9.405   4.116  10.021
86643SOL    HW161761   9.485   4.149  10.063
86643SOL    HW261762   9.403   4.160   9.936
86644SOL     OW61763  10.333  13.745  12.257
86644SOL    HW161764  10.400  13.691  12.215
86644SOL    HW261765  10.277  13.774  12.184
86645SOL     OW61766   8.412   8.830  13.427
86645SOL    HW161767   8.474   8.882  13.479
86645SOL    HW261768   8.444   8.838  13.337
86646SOL     OW61769  12.561  14.306   2.622
86646SOL    HW161770  12.639  14.360   2.612
86646SOL    HW261771  12.499  14.342   2.558
86647SOL     OW61772   2.170   0.492  14.521
86647SOL    HW161773   2.257   0.501  14.561
86647SOL    HW261774   2.151   0.398  14.529
86648SOL     OW61775  11.700   9.999   9.384
86648SOL    HW161776  11.671  10.009   9.475
86648SOL    HW261777  11.633   9.944   9.344
86649SOL     OW61778  12.250   9.372   3.874
86649SOL    HW161779  12.235   9.466   3.883
86649SOL    HW261780  12.240   9.356   3.780
86650SOL     OW61781  13.936   2.395  14.697
86650SOL    HW161782  13.970   2.331  14.635
86650SOL    HW261783  13.986   2.475  14.680
86651SOL     OW61784  10.934   1.094   2.723
86651SOL    HW161785  10.966   1.125   2.807
86651SOL    HW261786  10.838   1.097   2.730
86652SOL     OW61787  11.982  10.726   2.903
86652SOL    HW161788  11.945  10.719   2.815
86652SOL    HW261789  11.972  10.818   2.926
86653SOL     OW61790   6.462   9.565   8.887
86653SOL    HW161791   6.448   9.475   8.915
86653SOL    HW261792   6.453   9.617   8.967
86654SOL     OW61793   5.284  14.082   4.995
86654SOL    HW161794   5.208  14.030   4.969
86654SOL    HW261795   5.249  14.149   5.053
86655SOL     OW61796   9.330   5.777   3.077
86655SOL    HW161797   9.301   5.812   2.993
86655SOL    HW261798   9.414   5.818   3.094
86656SOL     OW61799   5.379   6.435   2.837
86656SOL    HW161800   5.387   6.407   2.928
86656SOL    HW261801   5.340   6.360   2.792
86657SOL     OW61802   2.928   2.842   4.638
86657SOL    HW161803   2.857   2.892   4.680
86657SOL    HW261804   2.993   2.909   4.613
86658SOL     OW61805   9.269   3.462   0.235
86658SOL    HW161806   9.336   3.394   0.223
86658SOL    HW261807   9.199   3.437   0.174
86659SOL     OW61808  13.444   0.398  12.450
86659SOL    HW161809  13.472   0.431  12.365
86659SOL    HW261810  13.391   0.320  12.430
86660SOL     OW61811  11.440   5.681   7.665
86660SOL    HW161812  11.516   5.637   7.627
86660SOL    HW261813  11.475   5.758   7.708
86661SOL     OW61814   2.478   7.405  14.033
86661SOL    HW161815   2.459   7.332  14.092
86661SOL    HW261816   2.460   7.370  13.946
86662SOL     OW61817   2.293  10.102   6.014
86662SOL    HW161818   2.314  10.182   6.061
86662SOL    HW261819   2.346  10.034   6.057
86663SOL     OW61820  14.043  10.943   9.768
86663SOL    HW161821  14.110  10.925   9.834
86663SOL    HW261822  13.965  10.964   9.818
86664SOL     OW61823   0.371   5.374  13.466
86664SOL    HW161824   0.357   5.362  13.560
86664SOL    HW261825   0.461   5.403  13.458
86665SOL     OW61826  10.862   1.863  13.260
86665SOL    HW161827  10.845   1.913  13.340
86665SOL    HW261828  10.803   1.902  13.195
86666SOL     OW61829  10.681  10.423   9.813
86666SOL    HW161830  10.656  10.369   9.889
86666SOL    HW261831  10.743  10.486   9.848
86667SOL     OW61832   8.382  13.586  11.636
86667SOL    HW161833   8.392  13.649  11.564
86667SOL    HW261834   8.387  13.500  11.593
86668SOL     OW61835   0.593  11.415   3.847
86668SOL    HW161836   0.643  11.483   3.891
86668SOL    HW261837   0.636  11.405   3.762
86669SOL     OW61838  12.212  14.785  13.160
86669SOL    HW161839  12.177   0.001  13.148
86669SOL    HW261840  12.161  14.749  13.233
86670SOL     OW61841   8.408  14.525  12.205
86670SOL    HW161842   8.392  14.509  12.298
86670SOL    HW261843   8.436  14.616  12.201
86671SOL     OW61844  11.739   2.351   2.447
86671SOL    HW161845  11.746   2.354   2.351
86671SOL    HW261846  11.815   2.300   2.474
86672SOL     OW61847   0.673   6.436   1.264
86672SOL    HW161848   0.593   6.384   1.256
86672SOL    HW261849   0.661   6.487   1.344
86673SOL     OW61850  10.920  11.091  14.546
86673SOL    HW161851  11.006  11.128  14.531
86673SOL    HW261852  10.889  11.066  14.458
86674SOL     OW61853  12.561  14.668   1.737
86674SOL    HW161854  12.576  14.757   1.770
86674SOL    HW261855  12.501  14.628   1.801
86675SOL     OW61856   4.115  13.510  14.610
86675SOL    HW161857   4.073  13.595  14.623
86675SOL    HW261858   4.077  13.454  14.678
86676SOL     OW61859   0.525   0.081   8.352
86676SOL    HW161860   0.602   0.099   8.405
86676SOL    HW261861   0.559   0.053   8.267
86677SOL     OW61862   3.891   9.935  11.435
86677SOL    HW161863   3.881   9.924  11.340
86677SOL    HW261864   3.822   9.881  11.473
86678SOL     OW61865   7.649  12.951  12.753
86678SOL    HW161866   7.557  12.975  12.744
86678SOL    HW261867   7.648  12.856  12.765
86679SOL     OW61868  12.271  13.982  12.372
86679SOL    HW161869  12.341  14.046  12.385
86679SOL    HW261870  12.236  13.967  12.460
86680SOL     OW61871  12.386   4.650   3.095
86680SOL    HW161872  12.358   4.663   3.185
86680SOL    HW261873  12.396   4.555   3.087
86681SOL     OW61874   9.060   0.151  11.343
86681SOL    HW161875   8.967   0.145  11.322
86681SOL    HW261876   9.070   0.236  11.385
86682SOL     OW61877   3.337   1.574  13.718
86682SOL    HW161878   3.317   1.659  13.679
86682SOL    HW261879   3.390   1.530  13.652
86683SOL     OW61880   8.174  11.492   5.872
86683SOL    HW161881   8.115  11.416   5.870
86683SOL    HW261882   8.164  11.533   5.786
86684SOL     OW61883   8.773  10.353  11.932
86684SOL    HW161884   8.786  10.356  11.837
86684SOL    HW261885   8.860  10.338  11.967
86685SOL     OW61886  13.683   0.658   6.748
86685SOL    HW161887  13.717   0.681   6.835
86685SOL    HW261888  13.761   0.646   6.694
86686SOL     OW61889   4.057  11.323   5.715
86686SOL    HW161890   3.969  11.358   5.700
86686SOL    HW261891   4.116  11.393   5.688
86687SOL     OW61892   9.897  14.478  13.940
86687SOL    HW161893   9.838  14.452  13.871
86687SOL    HW261894   9.856  14.555  13.980
86688SOL     OW61895   3.171  10.783  14.656
86688SOL    HW161896   3.172  10.778  14.751
86688SOL    HW261897   3.125  10.864  14.636
86689SOL     OW61898   5.370  14.664  12.394
86689SOL    HW161899   5.416  14.589  12.431
86689SOL    HW261900   5.439  14.728  12.375
86690SOL     OW61901   8.118  10.309  11.373
86690SOL    HW161902   8.208  10.336  11.391
86690SOL    HW261903   8.084  10.279  11.457
86691SOL     OW61904   9.515   8.891   9.964
86691SOL    HW161905   9.575   8.885   9.890
86691SOL    HW261906   9.428   8.881   9.925
86692SOL     OW61907   7.956   2.441   6.847
86692SOL    HW161908   8.043   2.455   6.809
86692SOL    HW261909   7.906   2.396   6.779
86693SOL     OW61910  11.199   7.042   7.766
86693SOL    HW161911  11.206   6.946   7.768
86693SOL    HW261912  11.198   7.064   7.673
86694SOL     OW61913   0.452   9.304  14.815
86694SOL    HW161914   0.542   9.281  14.841
86694SOL    HW261915   0.414   9.341   0.022
86695SOL     OW61916   8.009  11.464   2.120
86695SOL    HW161917   7.951  11.392   2.096
86695SOL    HW261918   8.045  11.495   2.037
86696SOL     OW61919  14.122  10.486  13.918
86696SOL    HW161920  14.180  10.412  13.936
86696SOL    HW261921  14.180  10.554  13.884
86697SOL     OW61922  12.289   9.617   4.030
86697SOL    HW161923  12.373   9.575   4.050
86697SOL    HW261924  12.299   9.706   4.063
86698SOL     OW61925   2.010   4.264   3.451
86698SOL    HW161926   2.094   4.310   3.449
86698SOL    HW261927   2.018   4.204   3.525
86699SOL     OW61928   3.077   2.825  14.040
86699SOL    HW161929   3.061   2.918  14.056
86699SOL    HW261930   3.123   2.795  14.119
86700SOL     OW61931   3.325   0.559   1.580
86700SOL    HW161932   3.277   0.622   1.527
86700SOL    HW261933   3.351   0.608   1.658
86701SOL     OW61934  12.103   9.836   1.660
86701SOL    HW161935  12.190   9.862   1.628
86701SOL    HW261936  12.066   9.917   1.697
86702SOL     OW61937   8.870   5.787  11.183
86702SOL    HW161938   8.781   5.819  11.169
86702SOL    HW261939   8.908   5.783  11.095
86703SOL     OW61940   9.907  12.389  14.410
86703SOL    HW161941   9.999  12.413  14.414
86703SOL    HW261942   9.871  12.440  14.338
86704SOL     OW61943  11.846  13.749   4.567
86704SOL    HW161944  11.837  13.808   4.642
86704SOL    HW261945  11.851  13.661   4.606
86705SOL     OW61946   1.469   1.327   7.725
86705SOL    HW161947   1.423   1.399   7.681
86705SOL    HW261948   1.414   1.250   7.708
86706SOL     OW61949  13.210   9.681  13.738
86706SOL    HW161950  13.225   9.687  13.643
86706SOL    HW261951  13.138   9.743  13.754
86707SOL     OW61952   8.136   8.460   7.102
86707SOL    HW161953   8.139   8.551   7.133
86707SOL    HW261954   8.048   8.430   7.124
86708SOL     OW61955   8.882   7.577  14.691
86708SOL    HW161956   8.798   7.621  14.675
86708SOL    HW261957   8.908   7.607  14.778
86709SOL     OW61958   0.880  12.252  11.066
86709SOL    HW161959   0.904  12.312  10.995
86709SOL    HW261960   0.817  12.301  11.119
86710SOL     OW61961  12.359   6.737   1.337
86710SOL    HW161962  12.356   6.823   1.379
86710SOL    HW261963  12.280   6.734   1.283
86711SOL     OW61964   1.296  13.194   5.677
86711SOL    HW161965   1.233  13.213   5.607
86711SOL    HW261966   1.299  13.273   5.729
86712SOL     OW61967   9.371   1.683   6.666
86712SOL    HW161968   9.346   1.747   6.733
86712SOL    HW261969   9.330   1.715   6.586
86713SOL     OW61970   7.455   7.302   9.780
86713SOL    HW161971   7.428   7.393   9.772
86713SOL    HW261972   7.374   7.252   9.773
86714SOL     OW61973   6.539   4.038  11.879
86714SOL    HW161974   6.496   4.026  11.964
86714SOL    HW261975   6.500   4.118  11.843
86715SOL     OW61976   7.557   1.678   6.172
86715SOL    HW161977   7.541   1.769   6.198
86715SOL    HW261978   7.502   1.626   6.231
86716SOL     OW61979  11.788  10.400   6.731
86716SOL    HW161980  11.840  10.334   6.776
86716SOL    HW261981  11.716  10.352   6.690
86717SOL     OW61982   7.962   4.453   9.226
86717SOL    HW161983   8.011   4.447   9.144
86717SOL    HW261984   7.924   4.366   9.238
86718SOL     OW61985   3.134   5.448   1.813
86718SOL    HW161986   3.179   5.532   1.811
86718SOL    HW261987   3.139   5.417   1.722
86719SOL     OW61988  13.647   1.212   4.134
86719SOL    HW161989  13.615   1.147   4.197
86719SOL    HW261990  13.716   1.259   4.181
86720SOL     OW61991  13.252   6.576   1.372
86720SOL    HW161992  13.346   6.592   1.375
86720SOL    HW261993  13.213   6.651   1.417
86721SOL     OW61994   8.751   6.734  13.149
86721SOL    HW161995   8.674   6.774  13.108
86721SOL    HW261996   8.745   6.641  13.126
86722SOL     OW61997   8.924   6.727   0.756
86722SOL    HW161998   9.001   6.732   0.699
86722SOL    HW261999   8.960   6.710   0.843
86723SOL     OW62000   7.496   4.349  12.892
86723SOL    HW162001   7.572   4.400  12.920
86723SOL    HW262002   7.522   4.258  12.904
86724SOL     OW62003   1.758   6.251   3.319
86724SOL    HW162004   1.829   6.201   3.278
86724SOL    HW262005   1.799   6.295   3.393
86725SOL     OW62006   5.103   8.001   4.303
86725SOL    HW162007   5.123   8.061   4.375
86725SOL    HW262008   5.014   7.972   4.321
86726SOL     OW62009   0.925   3.495  13.479
86726SOL    HW162010   0.984   3.562  13.444
86726SOL    HW262011   0.867   3.473  13.407
86727SOL     OW62012  13.250  13.454  12.584
86727SOL    HW162013  13.182  13.517  12.559
86727SOL    HW262014  13.201  13.377  12.615
86728SOL     OW62015   5.293  12.076   0.793
86728SOL    HW162016   5.239  12.030   0.729
86728SOL    HW262017   5.377  12.089   0.748
86729SOL     OW62018  12.667   2.548  14.791
86729SOL    HW162019  12.614   2.550  14.870
86729SOL    HW262020  12.626   2.612  14.733
86730SOL     OW62021   9.815  10.962   5.875
86730SOL    HW162022   9.788  10.985   5.964
86730SOL    HW262023   9.770  11.025   5.819
86731SOL     OW62024   6.630   2.159  10.604
86731SOL    HW162025   6.717   2.166  10.643
86731SOL    HW262026   6.628   2.071  10.566
86732SOL     OW62027   7.252  12.377   6.743
86732SOL    HW162028   7.240  12.296   6.794
86732SOL    HW262029   7.190  12.439   6.782
86733SOL     OW62030   2.880   6.196   1.510
86733SOL    HW162031   2.820   6.121   1.521
86733SOL    HW262032   2.826   6.272   1.531
86734SOL     OW62033  14.512   7.361   1.407
86734SOL    HW162034  14.523   7.298   1.336
86734SOL    HW262035  14.420   7.353   1.432
86735SOL     OW62036   0.430  13.189   6.214
86735SOL    HW162037   0.356  13.147   6.170
86735SOL    HW262038   0.473  13.118   6.263
86736SOL     OW62039  11.491   0.855  12.585
86736SOL    HW162040  11.496   0.936  12.634
86736SOL    HW262041  11.579   0.818  12.591
86737SOL     OW62042   8.571   0.900   2.106
86737SOL    HW162043   8.585   0.805   2.100
86737SOL    HW262044   8.529   0.923   2.023
86738SOL     OW62045   1.550   5.909   0.056
86738SOL    HW162046   1.523   5.961   0.133
86738SOL    HW262047   1.557   5.974  14.858
86739SOL     OW62048   3.951  10.991   4.494
86739SOL    HW162049   3.967  11.085   4.505
86739SOL    HW262050   4.030  10.958   4.452
86740SOL     OW62051   2.816   0.809   7.169
86740SOL    HW162052   2.805   0.735   7.109
86740SOL    HW262053   2.812   0.770   7.256
86741SOL     OW62054   0.791   7.598  12.608
86741SOL    HW162055   0.872   7.570  12.566
86741SOL    HW262056   0.796   7.694  12.608
86742SOL     OW62057   6.389   5.810  12.789
86742SOL    HW162058   6.459   5.797  12.853
86742SOL    HW262059   6.318   5.754  12.819
86743SOL     OW62060   3.256   4.727   8.708
86743SOL    HW162061   3.285   4.719   8.799
86743SOL    HW262062   3.328   4.771   8.663
86744SOL     OW62063  12.495   1.148   3.937
86744SOL    HW162064  12.551   1.161   3.860
86744SOL    HW262065  12.431   1.083   3.909
86745SOL     OW62066  12.298   5.023   3.271
86745SOL    HW162067  12.380   4.977   3.286
86745SOL    HW262068  12.319   5.088   3.204
86746SOL     OW62069   4.724   4.173   3.580
86746SOL    HW162070   4.714   4.105   3.513
86746SOL    HW262071   4.634   4.194   3.607
86747SOL     OW62072   3.838  10.278   4.045
86747SOL    HW162073   3.853  10.208   3.980
86747SOL    HW262074   3.919  10.282   4.095
86748SOL     OW62075  13.215   2.030   3.946
86748SOL    HW162076  13.137   2.003   3.995
86748SOL    HW262077  13.287   2.018   4.007
86749SOL     OW62078  11.877   3.088   7.969
86749SOL    HW162079  11.834   3.154   7.914
86749SOL    HW262080  11.805   3.040   8.010
86750SOL     OW62081   4.051   2.281   6.738
86750SOL    HW162082   4.062   2.343   6.665
86750SOL    HW262083   3.979   2.317   6.789
86751SOL     OW62084   2.334   7.293   6.391
86751SOL    HW162085   2.314   7.307   6.299
86751SOL    HW262086   2.257   7.247   6.426
86752SOL     OW62087   7.839  11.729  12.546
86752SOL    HW162088   7.847  11.679  12.627
86752SOL    HW262089   7.767  11.687  12.498
86753SOL     OW62090  12.230  12.059   5.171
86753SOL    HW162091  12.215  12.050   5.265
86753SOL    HW262092  12.320  12.092   5.165
86754SOL     OW62093   0.293   1.747  14.451
86754SOL    HW162094   0.336   1.676  14.498
86754SOL    HW262095   0.200   1.727  14.457
86755SOL     OW62096   7.914   2.830   2.205
86755SOL    HW162097   7.839   2.859   2.257
86755SOL    HW262098   7.910   2.734   2.209
86756SOL     OW62099   1.846  12.787   9.706
86756SOL    HW162100   1.757  12.755   9.724
86756SOL    HW262101   1.867  12.751   9.620
86757SOL     OW62102   0.180  14.609   2.242
86757SOL    HW162103   0.265  14.565   2.246
86757SOL    HW262104   0.116  14.541   2.260
86758SOL     OW62105   0.639   3.560   5.557
86758SOL    HW162106   0.672   3.486   5.506
86758SOL    HW262107   0.568   3.523   5.610
86759SOL     OW62108   4.366   3.073   0.615
86759SOL    HW162109   4.311   3.057   0.692
86759SOL    HW262110   4.447   3.026   0.634
86760SOL     OW62111  14.604  14.479   1.150
86760SOL    HW162112  14.585  14.442   1.237
86760SOL    HW262113  14.669  14.420   1.113
86761SOL     OW62114   3.244   6.605  10.025
86761SOL    HW162115   3.325   6.643   9.991
86761SOL    HW262116   3.195   6.680  10.059
86762SOL     OW62117   1.278   8.767   0.932
86762SOL    HW162118   1.187   8.777   0.961
86762SOL    HW262119   1.330   8.797   1.006
86763SOL     OW62120   6.605   4.790   9.770
86763SOL    HW162121   6.526   4.803   9.717
86763SOL    HW262122   6.590   4.844   9.848
86764SOL     OW62123  12.100   4.854   1.290
86764SOL    HW162124  12.122   4.769   1.252
86764SOL    HW262125  12.048   4.833   1.368
86765SOL     OW62126  14.687  13.726   5.911
86765SOL    HW162127  14.670  13.817   5.886
86765SOL    HW262128  14.655  13.674   5.837
86766SOL     OW62129  14.464  11.332   9.833
86766SOL    HW162130  14.417  11.281   9.898
86766SOL    HW262131  14.399  11.394   9.799
86767SOL     OW62132  13.909   7.426   8.621
86767SOL    HW162133  13.944   7.363   8.558
86767SOL    HW262134  13.944   7.398   8.705
86768SOL     OW62135   0.541   0.515  10.116
86768SOL    HW162136   0.463   0.553  10.155
86768SOL    HW262137   0.534   0.421  10.134
86769SOL     OW62138  14.220  13.519  11.267
86769SOL    HW162139  14.310  13.524  11.235
86769SOL    HW262140  14.220  13.568  11.349
86770SOL     OW62141  11.941   3.660   3.854
86770SOL    HW162142  12.025   3.678   3.811
86770SOL    HW262143  11.919   3.571   3.828
86771SOL     OW62144  13.388   6.625   9.190
86771SOL    HW162145  13.296   6.643   9.170
86771SOL    HW262146  13.391   6.530   9.199
86772SOL     OW62147   3.656   1.043   7.015
86772SOL    HW162148   3.618   0.977   7.074
86772SOL    HW262149   3.581   1.096   6.987
86773SOL     OW62150   6.198   6.329  12.275
86773SOL    HW162151   6.150   6.326  12.192
86773SOL    HW262152   6.290   6.326  12.250
86774SOL     OW62153   7.468  14.793   4.754
86774SOL    HW162154   7.449  14.711   4.801
86774SOL    HW262155   7.408  14.857   4.792
86775SOL     OW62156  10.572  14.393   8.201
86775SOL    HW162157  10.521  14.313   8.211
86775SOL    HW262158  10.605  14.412   8.289
86776SOL     OW62159   9.259  11.364   0.737
86776SOL    HW162160   9.217  11.355   0.651
86776SOL    HW262161   9.257  11.276   0.774
86777SOL     OW62162  11.400  11.238   7.883
86777SOL    HW162163  11.450  11.237   7.801
86777SOL    HW262164  11.453  11.185   7.943
86778SOL     OW62165   1.189   7.085   1.466
86778SOL    HW162166   1.213   7.018   1.402
86778SOL    HW262167   1.200   7.168   1.419
86779SOL     OW62168   6.534   8.374   1.611
86779SOL    HW162169   6.614   8.342   1.568
86779SOL    HW262170   6.534   8.331   1.696
86780SOL     OW62171   4.850   1.809  10.902
86780SOL    HW162172   4.942   1.814  10.926
86780SOL    HW262173   4.849   1.821  10.807
86781SOL     OW62174   0.251  14.038   1.725
86781SOL    HW162175   0.190  14.063   1.795
86781SOL    HW262176   0.311  14.112   1.717
86782SOL     OW62177   2.817  12.338   4.155
86782SOL    HW162178   2.852  12.256   4.190
86782SOL    HW262179   2.724  12.320   4.139
86783SOL     OW62180  14.050  10.850   6.143
86783SOL    HW162181  14.115  10.887   6.084
86783SOL    HW262182  14.085  10.867   6.231
86784SOL     OW62183   3.165   4.602  13.860
86784SOL    HW162184   3.228   4.551  13.911
86784SOL    HW262185   3.189   4.693  13.876
86785SOL     OW62186   1.574  11.019   7.160
86785SOL    HW162187   1.562  10.963   7.084
86785SOL    HW262188   1.668  11.017   7.177
86786SOL     OW62189   1.169   9.640   2.129
86786SOL    HW162190   1.204   9.724   2.159
86786SOL    HW262191   1.210   9.575   2.186
86787SOL     OW62192  14.464   7.291  11.356
86787SOL    HW162193  14.530   7.285  11.287
86787SOL    HW262194  14.381   7.301  11.309
86788SOL     OW62195  10.029  11.515   3.397
86788SOL    HW162196  10.081  11.495   3.319
86788SOL    HW262197  10.058  11.451   3.462
86789SOL     OW62198   7.183   9.357   1.241
86789SOL    HW162199   7.091   9.336   1.251
86789SOL    HW262200   7.195   9.435   1.296
86790SOL     OW62201   9.648   6.534  13.191
86790SOL    HW162202   9.599   6.521  13.273
86790SOL    HW262203   9.647   6.447  13.150
86791SOL     OW62204   3.613   6.234   8.792
86791SOL    HW162205   3.621   6.309   8.852
86791SOL    HW262206   3.691   6.181   8.810
86792SOL     OW62207  13.698   4.777   4.661
86792SOL    HW162208  13.648   4.695   4.663
86792SOL    HW262209  13.674   4.818   4.578
86793SOL     OW62210   3.511   2.209   2.033
86793SOL    HW162211   3.460   2.170   2.103
86793SOL    HW262212   3.478   2.299   2.026
86794SOL     OW62213   5.926   3.492  12.123
86794SOL    HW162214   5.961   3.418  12.172
86794SOL    HW262215   5.843   3.460  12.087
86795SOL     OW62216   3.781   6.812  10.905
86795SOL    HW162217   3.875   6.832  10.899
86795SOL    HW262218   3.739   6.898  10.914
86796SOL     OW62219   4.996   9.867   3.393
86796SOL    HW162220   4.976   9.810   3.319
86796SOL    HW262221   4.960   9.952   3.369
86797SOL     OW62222   0.947   1.441  11.409
86797SOL    HW162223   0.964   1.527  11.448
86797SOL    HW262224   0.852   1.429  11.419
86798SOL     OW62225  14.046  11.070  13.047
86798SOL    HW162226  14.000  11.153  13.032
86798SOL    HW262227  14.095  11.085  13.128
86799SOL     OW62228  13.845  10.915   9.960
86799SOL    HW162229  13.899  10.974  10.013
86799SOL    HW262230  13.755  10.940   9.980
86800SOL     OW62231   4.596  12.529  12.780
86800SOL    HW162232   4.625  12.597  12.840
86800SOL    HW262233   4.519  12.491  12.822
86801SOL     OW62234  11.342   2.640   6.855
86801SOL    HW162235  11.254   2.637   6.817
86801SOL    HW262236  11.333   2.595   6.939
86802SOL     OW62237  11.452   0.135   1.397
86802SOL    HW162238  11.480   0.211   1.448
86802SOL    HW262239  11.429   0.172   1.311
86803SOL     OW62240   3.861   9.893   0.615
86803SOL    HW162241   3.947   9.910   0.652
86803SOL    HW262242   3.846   9.799   0.630
86804SOL     OW62243  12.168   1.851   4.158
86804SOL    HW162244  12.097   1.911   4.179
86804SOL    HW262245  12.230   1.903   4.107
86805SOL     OW62246   6.294  14.206  13.512
86805SOL    HW162247   6.216  14.256  13.489
86805SOL    HW262248   6.314  14.234  13.602
86806SOL     OW62249   3.055   1.453  10.586
86806SOL    HW162250   3.071   1.460  10.680
86806SOL    HW262251   2.963   1.480  10.576
86807SOL     OW62252   2.174  12.846   3.625
86807SOL    HW162253   2.257  12.810   3.594
86807SOL    HW262254   2.199  12.905   3.697
86808SOL     OW62255   5.298   1.995   0.805
86808SOL    HW162256   5.392   2.014   0.799
86808SOL    HW262257   5.286   1.960   0.893
86809SOL     OW62258  14.570   9.075  11.040
86809SOL    HW162259  14.557   9.005  10.977
86809SOL    HW262260  14.640   9.043  11.098
86810SOL     OW62261   9.936   0.902   2.980
86810SOL    HW162262   9.972   0.880   3.066
86810SOL    HW262263   9.947   0.997   2.973
86811SOL     OW62264   2.192   9.876   3.721
86811SOL    HW162265   2.236   9.952   3.760
86811SOL    HW262266   2.106   9.908   3.697
86812SOL     OW62267   3.937  10.437   3.669
86812SOL    HW162268   3.973  10.361   3.624
86812SOL    HW262269   3.846  10.442   3.641
86813SOL     OW62270   7.694   9.368   2.803
86813SOL    HW162271   7.733   9.286   2.775
86813SOL    HW262272   7.620   9.381   2.744
86814SOL     OW62273   1.391   9.387   9.341
86814SOL    HW162274   1.454   9.377   9.269
86814SOL    HW262275   1.393   9.302   9.385
86815SOL     OW62276   1.859   4.809   5.584
86815SOL    HW162277   1.938   4.793   5.636
86815SOL    HW262278   1.824   4.891   5.618
86816SOL     OW62279   1.153   8.357   3.040
86816SOL    HW162280   1.081   8.383   3.098
86816SOL    HW262281   1.228   8.346   3.099
86817SOL     OW62282  10.486  10.102   4.621
86817SOL    HW162283  10.445  10.182   4.654
86817SOL    HW262284  10.413  10.048   4.593
86818SOL     OW62285   4.601   8.720  13.416
86818SOL    HW162286   4.689   8.697  13.388
86818SOL    HW262287   4.603   8.815  13.427
86819SOL     OW62288   1.638   7.474   2.887
86819SOL    HW162289   1.595   7.557   2.867
86819SOL    HW262290   1.713   7.498   2.942
86820SOL     OW62291   8.059   1.519  11.347
86820SOL    HW162292   8.073   1.426  11.362
86820SOL    HW262293   7.969   1.526  11.316
86821SOL     OW62294   1.602   8.644  11.705
86821SOL    HW162295   1.681   8.675  11.661
86821SOL    HW262296   1.633   8.574  11.762
86822SOL     OW62297   5.468  12.279   1.627
86822SOL    HW162298   5.419  12.224   1.566
86822SOL    HW262299   5.488  12.221   1.701
86823SOL     OW62300   9.519  13.925   5.670
86823SOL    HW162301   9.520  13.830   5.678
86823SOL    HW262302   9.486  13.941   5.581
86824SOL     OW62303   0.266  11.813  10.220
86824SOL    HW162304   0.352  11.837  10.255
86824SOL    HW262305   0.271  11.832  10.127
86825SOL     OW62306   8.892  12.169   6.079
86825SOL    HW162307   8.885  12.197   6.171
86825SOL    HW262308   8.882  12.250   6.029
86826SOL     OW62309   9.985   8.750  11.372
86826SOL    HW162310  10.045   8.778  11.441
86826SOL    HW262311   9.957   8.663  11.399
86827SOL     OW62312  12.712  12.986   6.711
86827SOL    HW162313  12.627  12.988   6.665
86827SOL    HW262314  12.761  12.917   6.667
86828SOL     OW62315  13.565   3.088  10.695
86828SOL    HW162316  13.651   3.129  10.686
86828SOL    HW262317  13.502   3.159  10.680
86829SOL     OW62318   0.489   8.660  13.095
86829SOL    HW162319   0.558   8.658  13.029
86829SOL    HW262320   0.457   8.750  13.094
86830SOL     OW62321  13.450   2.371  10.074
86830SOL    HW162322  13.493   2.288  10.051
86830SOL    HW262323  13.404   2.397   9.995
86831SOL     OW62324   1.453  10.512  12.732
86831SOL    HW162325   1.472  10.522  12.638
86831SOL    HW262326   1.535  10.479  12.769
86832SOL     OW62327  10.795   3.890   8.763
86832SOL    HW162328  10.877   3.895   8.811
86832SOL    HW262329  10.733   3.938   8.818
86833SOL     OW62330   2.744   7.486  11.540
86833SOL    HW162331   2.690   7.444  11.473
86833SOL    HW262332   2.824   7.433  11.542
86834SOL     OW62333   0.244   7.427  12.509
86834SOL    HW162334   0.251   7.508  12.560
86834SOL    HW262335   0.321   7.376  12.534
86835SOL     OW62336   0.508  13.911   1.663
86835SOL    HW162337   0.471  13.830   1.627
86835SOL    HW262338   0.519  13.968   1.587
86836SOL     OW62339   4.431   3.842  12.132
86836SOL    HW162340   4.512   3.850  12.183
86836SOL    HW262341   4.426   3.923  12.082
86837SOL     OW62342   9.225   1.075  13.517
86837SOL    HW162343   9.245   1.025  13.596
86837SOL    HW262344   9.181   1.013  13.460
86838SOL     OW62345  14.389   2.634   8.366
86838SOL    HW162346  14.332   2.563   8.336
86838SOL    HW262347  14.434   2.664   8.287
86839SOL     OW62348   5.841   3.089   7.020
86839SOL    HW162349   5.862   3.173   7.060
86839SOL    HW262350   5.869   3.024   7.084
86840SOL     OW62351   6.409   2.936  11.233
86840SOL    HW162352   6.472   3.006  11.213
86840SOL    HW262353   6.448   2.857  11.196
86841SOL     OW62354  13.280   5.766  13.122
86841SOL    HW162355  13.305   5.838  13.065
86841SOL    HW262356  13.194   5.739  13.090
86842SOL     OW62357  14.070   3.857   5.445
86842SOL    HW162358  14.061   3.914   5.521
86842SOL    HW262359  13.987   3.867   5.398
86843SOL     OW62360  14.392   5.554   3.279
86843SOL    HW162361  14.412   5.607   3.356
86843SOL    HW262362  14.414   5.465   3.305
86844SOL     OW62363   1.923  10.568   9.034
86844SOL    HW162364   1.967  10.488   9.005
86844SOL    HW262365   1.950  10.580   9.125
86845SOL     OW62366   8.333   7.303   2.868
86845SOL    HW162367   8.275   7.378   2.884
86845SOL    HW262368   8.352   7.268   2.955
86846SOL     OW62369  11.915   9.923   2.602
86846SOL    HW162370  11.914   9.993   2.667
86846SOL    HW262371  11.830   9.928   2.560
86847SOL     OW62372  11.171   5.167  14.206
86847SOL    HW162373  11.102   5.197  14.146
86847SOL    HW262374  11.149   5.075  14.223
86848SOL     OW62375   7.995   0.094  14.440
86848SOL    HW162376   8.085   0.064  14.431
86848SOL    HW262377   8.003   0.181  14.479
86849SOL     OW62378   3.825  14.480   9.485
86849SOL    HW162379   3.856  14.556   9.437
86849SOL    HW262380   3.842  14.500   9.577
86850SOL     OW62381   1.107   0.835   0.272
86850SOL    HW162382   1.116   0.844   0.177
86850SOL    HW262383   1.077   0.920   0.302
86851SOL     OW62384  10.545   7.913   6.430
86851SOL    HW162385  10.598   7.992   6.432
86851SOL    HW262386  10.485   7.926   6.356
86852SOL     OW62387   1.707   4.037   7.231
86852SOL    HW162388   1.660   3.966   7.274
86852SOL    HW262389   1.665   4.117   7.264
86853SOL     OW62390   2.208   5.270  11.796
86853SOL    HW162391   2.254   5.257  11.879
86853SOL    HW262392   2.257   5.339  11.752
86854SOL     OW62393   1.550   3.887  11.219
86854SOL    HW162394   1.535   3.980  11.233
86854SOL    HW262395   1.495   3.865  11.143
86855SOL     OW62396  11.340   5.325   8.887
86855SOL    HW162397  11.359   5.232   8.895
86855SOL    HW262398  11.364   5.363   8.971
86856SOL     OW62399   4.186  10.820  13.487
86856SOL    HW162400   4.226  10.883  13.547
86856SOL    HW262401   4.223  10.736  13.514
86857SOL     OW62402   8.557   6.404  11.830
86857SOL    HW162403   8.518   6.378  11.746
86857SOL    HW262404   8.488   6.392  11.894
86858SOL     OW62405  14.601   5.970  12.320
86858SOL    HW162406  14.621   5.895  12.376
86858SOL    HW262407  14.556   5.933  12.244
86859SOL     OW62408   4.978   4.062  10.012
86859SOL    HW162409   5.058   4.032  10.053
86859SOL    HW262410   4.937   3.982   9.978
86860SOL     OW62411   2.348   2.911   8.408
86860SOL    HW162412   2.432   2.947   8.437
86860SOL    HW262413   2.283   2.963   8.454
86861SOL     OW62414   4.431   9.050   8.974
86861SOL    HW162415   4.493   9.101   9.027
86861SOL    HW262416   4.446   9.080   8.885
86862SOL     OW62417   5.610   6.072   9.462
86862SOL    HW162418   5.601   6.144   9.400
86862SOL    HW262419   5.613   5.993   9.408
86863SOL     OW62420   0.261  12.786   6.951
86863SOL    HW162421   0.281  12.692   6.956
86863SOL    HW262422   0.300  12.823   7.029
86864SOL     OW62423   8.720   1.043   0.413
86864SOL    HW162424   8.814   1.046   0.394
86864SOL    HW262425   8.714   0.997   0.496
86865SOL     OW62426  14.407  13.940   5.992
86865SOL    HW162427  14.355  14.021   5.993
86865SOL    HW262428  14.409  13.913   6.084
86866SOL     OW62429   0.796   9.619   1.751
86866SOL    HW162430   0.788   9.558   1.678
86866SOL    HW262431   0.753   9.699   1.719
86867SOL     OW62432   3.138   8.066  10.840
86867SOL    HW162433   3.121   8.017  10.921
86867SOL    HW262434   3.175   8.149  10.869
86868SOL     OW62435   5.051   9.863   3.710
86868SOL    HW162436   4.983   9.907   3.659
86868SOL    HW262437   5.051   9.773   3.677
86869SOL     OW62438  14.771   1.100   6.522
86869SOL    HW162439  14.709   1.038   6.560
86869SOL    HW262440  14.856   1.057   6.529
86870SOL     OW62441   1.531   7.181   4.773
86870SOL    HW162442   1.619   7.215   4.758
86870SOL    HW262443   1.518   7.188   4.868
86871SOL     OW62444   2.437  12.652  12.689
86871SOL    HW162445   2.496  12.672  12.762
86871SOL    HW262446   2.400  12.566  12.712
86872SOL     OW62447  13.165   5.263   6.452
86872SOL    HW162448  13.224   5.236   6.382
86872SOL    HW262449  13.211   5.334   6.496
86873SOL     OW62450  13.448  12.535   3.502
86873SOL    HW162451  13.518  12.496   3.554
86873SOL    HW262452  13.489  12.562   3.421
86874SOL     OW62453  11.294   1.323   0.894
86874SOL    HW162454  11.364   1.388   0.886
86874SOL    HW262455  11.303   1.270   0.815
86875SOL     OW62456   4.571  13.288  11.294
86875SOL    HW162457   4.584  13.376  11.329
86875SOL    HW262458   4.522  13.301  11.213
86876SOL     OW62459   2.837  13.240   2.911
86876SOL    HW162460   2.817  13.233   3.004
86876SOL    HW262461   2.910  13.178   2.898
86877SOL     OW62462  14.362   4.802   4.808
86877SOL    HW162463  14.379   4.896   4.800
86877SOL    HW262464  14.287   4.787   4.751
86878SOL     OW62465   1.507   8.188  11.270
86878SOL    HW162466   1.578   8.184  11.333
86878SOL    HW262467   1.479   8.098  11.258
86879SOL     OW62468   8.588   6.522   2.181
86879SOL    HW162469   8.669   6.573   2.178
86879SOL    HW262470   8.616   6.431   2.179
86880SOL     OW62471   3.318  10.672   0.847
86880SOL    HW162472   3.298  10.759   0.813
86880SOL    HW262473   3.233  10.636   0.872
86881SOL     OW62474   7.699   4.895   2.067
86881SOL    HW162475   7.634   4.966   2.067
86881SOL    HW262476   7.666   4.833   2.002
86882SOL     OW62477  10.445   5.270   3.959
86882SOL    HW162478  10.404   5.326   4.025
86882SOL    HW262479  10.399   5.292   3.878
86883SOL     OW62480   5.680  14.406   5.849
86883SOL    HW162481   5.586  14.392   5.838
86883SOL    HW262482   5.720  14.332   5.804
86884SOL     OW62483  11.992   3.767   6.859
86884SOL    HW162484  11.914   3.742   6.908
86884SOL    HW262485  12.042   3.686   6.849
86885SOL     OW62486  10.396  14.263   4.604
86885SOL    HW162487  10.475  14.210   4.619
86885SOL    HW262488  10.419  14.350   4.636
86886SOL     OW62489   7.790   5.066  10.586
86886SOL    HW162490   7.727   4.994  10.593
86886SOL    HW262491   7.834   5.068  10.671
86887SOL     OW62492   1.240   2.973   0.177
86887SOL    HW162493   1.206   2.923   0.102
86887SOL    HW262494   1.283   3.048   0.137
86888SOL     OW62495   6.109   0.945   2.332
86888SOL    HW162496   6.018   0.965   2.311
86888SOL    HW262497   6.147   0.912   2.251
86889SOL     OW62498  10.241   3.545   3.960
86889SOL    HW162499  10.171   3.481   3.950
86889SOL    HW262500  10.244   3.564   4.054
86890SOL     OW62501  10.569   6.086   7.918
86890SOL    HW162502  10.656   6.049   7.939
86890SOL    HW262503  10.559   6.072   7.824
86891SOL     OW62504  11.598   4.910   6.067
86891SOL    HW162505  11.526   4.908   6.005
86891SOL    HW262506  11.656   4.978   6.035
86892SOL     OW62507   0.846   7.582  11.346
86892SOL    HW162508   0.777   7.521  11.372
86892SOL    HW262509   0.844   7.650  11.412
86893SOL     OW62510  14.593   2.610   8.770
86893SOL    HW162511  14.645   2.530   8.770
86893SOL    HW262512  14.518   2.590   8.714
86894SOL     OW62513   1.855  11.387   2.636
86894SOL    HW162514   1.904  11.312   2.669
86894SOL    HW262515   1.769  11.351   2.613
86895SOL     OW62516   6.264   3.699   2.312
86895SOL    HW162517   6.272   3.605   2.295
86895SOL    HW262518   6.234   3.704   2.403
86896SOL     OW62519   3.441   4.784   6.199
86896SOL    HW162520   3.413   4.787   6.107
86896SOL    HW262521   3.391   4.711   6.236
86897SOL     OW62522   4.373   3.754   4.892
86897SOL    HW162523   4.311   3.690   4.857
86897SOL    HW262524   4.321   3.808   4.952
86898SOL     OW62525  13.745  13.994  10.802
86898SOL    HW162526  13.660  14.029  10.776
86898SOL    HW262527  13.745  14.001  10.897
86899SOL     OW62528   8.072   0.829   6.611
86899SOL    HW162529   8.123   0.889   6.557
86899SOL    HW262530   8.136   0.784   6.666
86900SOL     OW62531   2.905   9.423   4.584
86900SOL    HW162532   2.937   9.475   4.510
86900SOL    HW262533   2.897   9.335   4.549
86901SOL     OW62534  11.702  12.405   7.139
86901SOL    HW162535  11.685  12.338   7.205
86901SOL    HW262536  11.673  12.487   7.180
86902SOL     OW62537   7.088   3.208   7.837
86902SOL    HW162538   7.037   3.156   7.775
86902SOL    HW262539   7.111   3.146   7.907
86903SOL     OW62540   4.731   4.125  12.111
86903SOL    HW162541   4.747   4.213  12.146
86903SOL    HW262542   4.782   4.067  12.166
86904SOL     OW62543   8.735   5.505   8.860
86904SOL    HW162544   8.754   5.459   8.779
86904SOL    HW262545   8.656   5.462   8.893
86905SOL     OW62546   1.380   1.429   2.503
86905SOL    HW162547   1.338   1.343   2.496
86905SOL    HW262548   1.427   1.425   2.586
86906SOL     OW62549   2.308   0.438   9.072
86906SOL    HW162550   2.296   0.348   9.101
86906SOL    HW262551   2.310   0.489   9.152
86907SOL     OW62552   7.784   3.306  11.529
86907SOL    HW162553   7.749   3.375  11.585
86907SOL    HW262554   7.853   3.349  11.478
86908SOL     OW62555  14.273   3.654   9.109
86908SOL    HW162556  14.296   3.573   9.156
86908SOL    HW262557  14.195   3.632   9.059
86909SOL     OW62558   1.499   7.898   9.045
86909SOL    HW162559   1.479   7.929   8.956
86909SOL    HW262560   1.420   7.918   9.095
86910SOL     OW62561   0.441   2.017  12.710
86910SOL    HW162562   0.421   2.038  12.619
86910SOL    HW262563   0.357   1.987  12.746
86911SOL     OW62564   1.821  13.980   9.964
86911SOL    HW162565   1.733  13.968  10.000
86911SOL    HW262566   1.846  14.068   9.992
86912SOL     OW62567   8.365   9.788   1.488
86912SOL    HW162568   8.432   9.856   1.491
86912SOL    HW262569   8.312   9.809   1.412
86913SOL     OW62570  12.353   0.904  11.917
86913SOL    HW162571  12.291   0.907  11.844
86913SOL    HW262572  12.358   0.995  11.948
86914SOL     OW62573   5.019   1.707   8.223
86914SOL    HW162574   5.010   1.756   8.141
86914SOL    HW262575   5.074   1.763   8.278
86915SOL     OW62576  10.756   2.492   5.258
86915SOL    HW162577  10.669   2.492   5.218
86915SOL    HW262578  10.807   2.432   5.204
86916SOL     OW62579  12.354   0.112   7.668
86916SOL    HW162580  12.440   0.148   7.644
86916SOL    HW262581  12.321   0.171   7.735
86917SOL     OW62582   0.203   7.233  11.184
86917SOL    HW162583   0.219   7.324  11.159
86917SOL    HW262584   0.132   7.204  11.126
86918SOL     OW62585   6.251   3.911   5.961
86918SOL    HW162586   6.171   3.896   6.011
86918SOL    HW262587   6.267   4.005   5.969
86919SOL     OW62588   6.617   9.256   9.803
86919SOL    HW162589   6.608   9.297   9.888
86919SOL    HW262590   6.558   9.180   9.807
86920SOL     OW62591   2.968  11.263  10.857
86920SOL    HW162592   2.931  11.324  10.794
86920SOL    HW262593   2.951  11.177  10.820
86921SOL     OW62594  11.505   7.460  12.795
86921SOL    HW162595  11.432   7.502  12.750
86921SOL    HW262596  11.581   7.514  12.773
86922SOL     OW62597  14.128   2.984   2.604
86922SOL    HW162598  14.219   3.013   2.591
86922SOL    HW262599  14.075   3.053   2.564
86923SOL     OW62600  10.792   2.201   6.907
86923SOL    HW162601  10.798   2.110   6.936
86923SOL    HW262602  10.881   2.221   6.875
86924SOL     OW62603  12.510   4.074   1.027
86924SOL    HW162604  12.564   4.062   1.105
86924SOL    HW262605  12.506   4.168   1.015
86925SOL     OW62606   2.993   0.866  13.533
86925SOL    HW162607   2.945   0.930  13.481
86925SOL    HW262608   3.043   0.918  13.595
86926SOL     OW62609   1.530   9.523   8.371
86926SOL    HW162610   1.575   9.441   8.349
86926SOL    HW262611   1.437   9.503   8.358
86927SOL     OW62612   0.373   0.570   3.583
86927SOL    HW162613   0.348   0.479   3.600
86927SOL    HW262614   0.468   0.567   3.573
86928SOL     OW62615  10.841   6.029   9.371
86928SOL    HW162616  10.884   6.092   9.313
86928SOL    HW262617  10.751   6.024   9.339
86929SOL     OW62618  11.556  13.472   9.912
86929SOL    HW162619  11.469  13.476   9.871
86929SOL    HW262620  11.601  13.401   9.865
86930SOL     OW62621   0.172   8.921   5.704
86930SOL    HW162622   0.229   8.856   5.746
86930SOL    HW262623   0.231   8.973   5.649
86931SOL     OW62624   0.888   0.722   6.538
86931SOL    HW162625   0.817   0.664   6.565
86931SOL    HW262626   0.853   0.810   6.555
86932SOL     OW62627   2.627   6.610  12.134
86932SOL    HW162628   2.678   6.551  12.079
86932SOL    HW262629   2.683   6.627  12.210
86933SOL     OW62630  12.575   5.561   5.683
86933SOL    HW162631  12.542   5.583   5.770
86933SOL    HW262632  12.589   5.646   5.641
86934SOL     OW62633   5.989  12.980  13.574
86934SOL    HW162634   6.027  12.907  13.624
86934SOL    HW262635   5.902  12.993  13.612
86935SOL     OW62636   2.195  13.749   8.616
86935SOL    HW162637   2.167  13.830   8.659
86935SOL    HW262638   2.282  13.732   8.651
86936SOL     OW62639  11.887   8.909   7.901
86936SOL    HW162640  11.828   8.885   7.972
86936SOL    HW262641  11.853   8.862   7.825
86937SOL     OW62642  11.030   1.243   8.052
86937SOL    HW162643  11.108   1.187   8.053
86937SOL    HW262644  10.960   1.186   8.085
86938SOL     OW62645   4.996   6.046   9.394
86938SOL    HW162646   4.905   6.040   9.424
86938SOL    HW262647   5.039   5.970   9.432
86939SOL     OW62648   7.152   5.992  10.603
86939SOL    HW162649   7.086   5.965  10.538
86939SOL    HW262650   7.171   5.912  10.651
86940SOL     OW62651   9.756   9.694  11.625
86940SOL    HW162652   9.743   9.612  11.577
86940SOL    HW262653   9.722   9.676  11.712
86941SOL     OW62654   5.671   4.626   7.808
86941SOL    HW162655   5.655   4.716   7.836
86941SOL    HW262656   5.589   4.597   7.769
86942SOL     OW62657   1.778   8.950   9.080
86942SOL    HW162658   1.789   8.968   9.173
86942SOL    HW262659   1.838   9.009   9.036
86943SOL     OW62660   1.762   0.676   0.314
86943SOL    HW162661   1.807   0.608   0.363
86943SOL    HW262662   1.808   0.679   0.230
86944SOL     OW62663   9.219   4.817   3.490
86944SOL    HW162664   9.262   4.736   3.520
86944SOL    HW262665   9.136   4.819   3.537
86945SOL     OW62666   1.164   2.807   1.885
86945SOL    HW162667   1.119   2.882   1.846
86945SOL    HW262668   1.234   2.786   1.823
86946SOL     OW62669   6.333   3.456   5.581
86946SOL    HW162670   6.385   3.397   5.637
86946SOL    HW262671   6.268   3.494   5.641
86947SOL     OW62672  10.316   1.849   0.216
86947SOL    HW162673  10.345   1.769   0.172
86947SOL    HW262674  10.380   1.915   0.190
86948SOL     OW62675   4.757  11.513   0.820
86948SOL    HW162676   4.742  11.544   0.910
86948SOL    HW262677   4.682  11.547   0.771
86949SOL     OW62678   9.276  14.722   6.278
86949SOL    HW162679   9.284  14.633   6.314
86949SOL    HW262680   9.231  14.710   6.195
86950SOL     OW62681  14.302   8.717  12.025
86950SOL    HW162682  14.250   8.693  11.948
86950SOL    HW262683  14.393   8.712  11.995
86951SOL     OW62684   7.021   4.626  13.632
86951SOL    HW162685   7.035   4.697  13.695
86951SOL    HW262686   7.024   4.546  13.685
86952SOL     OW62687  10.389  14.495  11.006
86952SOL    HW162688  10.403  14.411  11.050
86952SOL    HW262689  10.443  14.490  10.927
86953SOL     OW62690   2.928  10.314  11.440
86953SOL    HW162691   2.878  10.244  11.398
86953SOL    HW262692   2.868  10.389  11.441
86954SOL     OW62693   6.178   7.648   6.724
86954SOL    HW162694   6.254   7.597   6.751
86954SOL    HW262695   6.127   7.589   6.668
86955SOL     OW62696  14.476   8.528   4.523
86955SOL    HW162697  14.419   8.498   4.595
86955SOL    HW262698  14.436   8.492   4.444
86956SOL     OW62699   6.257   6.915  14.167
86956SOL    HW162700   6.317   6.981  14.203
86956SOL    HW262701   6.240   6.945  14.077
86957SOL     OW62702  12.857  13.450   1.543
86957SOL    HW162703  12.830  13.541   1.530
86957SOL    HW262704  12.778  13.405   1.572
86958SOL     OW62705   1.859   4.483  13.758
86958SOL    HW162706   1.808   4.432  13.695
86958SOL    HW262707   1.799   4.500  13.830
86959SOL     OW62708  10.997   2.584  10.983
86959SOL    HW162709  11.071   2.530  11.013
86959SOL    HW262710  10.994   2.572  10.888
86960SOL     OW62711  11.723  13.882  12.865
86960SOL    HW162712  11.746  13.967  12.903
86960SOL    HW262713  11.697  13.902  12.775
86961SOL     OW62714   6.539   9.594   9.565
86961SOL    HW162715   6.510   9.663   9.626
86961SOL    HW262716   6.463   9.579   9.508
86962SOL     OW62717  14.725   5.297  12.441
86962SOL    HW162718  14.771   5.330  12.518
86962SOL    HW262719  14.793   5.253  12.390
86963SOL     OW62720  10.119   2.077   7.465
86963SOL    HW162721  10.058   2.114   7.401
86963SOL    HW262722  10.192   2.138   7.467
86964SOL     OW62723   3.230  14.602   2.327
86964SOL    HW162724   3.266  14.665   2.264
86964SOL    HW262725   3.140  14.631   2.340
86965SOL     OW62726   5.127  13.193   3.338
86965SOL    HW162727   5.063  13.136   3.295
86965SOL    HW262728   5.083  13.278   3.342
86966SOL     OW62729   5.882   9.199  11.394
86966SOL    HW162730   5.851   9.109  11.407
86966SOL    HW262731   5.812   9.253  11.430
86967SOL     OW62732   1.261  14.169   2.907
86967SOL    HW162733   1.185  14.115   2.885
86967SOL    HW262734   1.330  14.107   2.928
86968SOL     OW62735  10.471   3.601  11.580
86968SOL    HW162736  10.533   3.528  11.589
86968SOL    HW262737  10.470   3.620  11.486
86969SOL     OW62738  12.583  11.702   4.522
86969SOL    HW162739  12.495  11.670   4.541
86969SOL    HW262740  12.576  11.742   4.435
86970SOL     OW62741  13.856   0.706   7.980
86970SOL    HW162742  13.768   0.668   7.978
86970SOL    HW262743  13.843   0.797   7.955
86971SOL     OW62744   6.138   4.062   8.725
86971SOL    HW162745   6.099   4.069   8.813
86971SOL    HW262746   6.195   4.139   8.718
86972SOL     OW62747  11.433   3.875   6.280
86972SOL    HW162748  11.463   3.961   6.251
86972SOL    HW262749  11.340   3.874   6.259
86973SOL     OW62750  13.399   9.565  13.079
86973SOL    HW162751  13.494   9.569  13.092
86973SOL    HW262752  13.376   9.474  13.099
86974SOL     OW62753  11.550   1.112   6.768
86974SOL    HW162754  11.489   1.039   6.768
86974SOL    HW262755  11.540   1.152   6.681
86975SOL     OW62756  12.213   0.897  14.380
86975SOL    HW162757  12.128   0.935  14.360
86975SOL    HW262758  12.273   0.971  14.383
86976SOL     OW62759   0.953  12.295  13.066
86976SOL    HW162760   0.930  12.367  13.125
86976SOL    HW262761   1.048  12.294  13.065
86977SOL     OW62762   8.779   3.719   8.013
86977SOL    HW162763   8.750   3.687   8.098
86977SOL    HW262764   8.789   3.813   8.024
86978SOL     OW62765   2.068   7.801   8.112
86978SOL    HW162766   2.023   7.778   8.194
86978SOL    HW262767   2.005   7.779   8.044
86979SOL     OW62768   5.797  11.915   9.533
86979SOL    HW162769   5.861  11.965   9.585
86979SOL    HW262770   5.816  11.938   9.442
86980SOL     OW62771  11.314   9.660   4.760
86980SOL    HW162772  11.402   9.697   4.748
86980SOL    HW262773  11.257   9.716   4.708
86981SOL     OW62774   5.093   0.553   0.988
86981SOL    HW162775   5.171   0.555   0.933
86981SOL    HW262776   5.083   0.643   1.018
86982SOL     OW62777   9.595   5.595   3.813
86982SOL    HW162778   9.555   5.660   3.756
86982SOL    HW262779   9.677   5.634   3.841
86983SOL     OW62780   6.109   5.544   9.743
86983SOL    HW162781   6.169   5.555   9.670
86983SOL    HW262782   6.069   5.458   9.728
86984SOL     OW62783  14.553  11.026   0.627
86984SOL    HW162784  14.489  11.025   0.698
86984SOL    HW262785  14.502  11.004   0.549
86985SOL     OW62786   9.756   0.382  14.250
86985SOL    HW162787   9.825   0.421  14.303
86985SOL    HW262788   9.747   0.441  14.174
86986SOL     OW62789   0.841   9.490   5.468
86986SOL    HW162790   0.836   9.479   5.373
86986SOL    HW262791   0.917   9.547   5.482
86987SOL     OW62792   8.070   6.350   8.052
86987SOL    HW162793   8.135   6.417   8.032
86987SOL    HW262794   8.108   6.299   8.123
86988SOL     OW62795  13.054  11.080   0.533
86988SOL    HW162796  12.964  11.113   0.540
86988SOL    HW262797  13.076  11.053   0.623
86989SOL     OW62798   4.814   3.379   4.173
86989SOL    HW162799   4.734   3.328   4.179
86989SOL    HW262800   4.799   3.454   4.230
86990SOL     OW62801   0.890   9.712   2.116
86990SOL    HW162802   0.983   9.711   2.134
86990SOL    HW262803   0.854   9.638   2.164
86991SOL     OW62804  13.750   6.066   3.346
86991SOL    HW162805  13.686   6.113   3.400
86991SOL    HW262806  13.730   5.974   3.359
86992SOL     OW62807  12.120   2.723  10.847
86992SOL    HW162808  12.052   2.785  10.820
86992SOL    HW262809  12.154   2.758  10.929
86993SOL     OW62810   9.102   8.455   0.668
86993SOL    HW162811   9.111   8.437   0.575
86993SOL    HW262812   9.144   8.541   0.680
86994SOL     OW62813   3.283   1.809   0.340
86994SOL    HW162814   3.295   1.717   0.317
86994SOL    HW262815   3.196   1.812   0.380
86995SOL     OW62816   3.607   0.772   3.432
86995SOL    HW162817   3.615   0.736   3.343
86995SOL    HW262818   3.552   0.850   3.420
86996SOL     OW62819  11.731   0.272   0.124
86996SOL    HW162820  11.656   0.269   0.065
86996SOL    HW262821  11.762   0.363   0.119
86997SOL     OW62822   6.030  10.712   1.653
86997SOL    HW162823   5.959  10.649   1.669
86997SOL    HW262824   6.077  10.678   1.578
86998SOL     OW62825  14.258  10.563  14.755
86998SOL    HW162826  14.168  10.538  14.778
86998SOL    HW262827  14.310  10.538  14.832
86999SOL     OW62828  13.050   7.698   0.145
86999SOL    HW162829  13.016   7.724   0.230
86999SOL    HW262830  12.980   7.647   0.105
87000SOL     OW62831  12.005   9.480  14.213
87000SOL    HW162832  12.014   9.431  14.295
87000SOL    HW262833  11.932   9.439  14.168
87001SOL     OW62834   8.209  10.405  14.231
87001SOL    HW162835   8.148  10.450  14.289
87001SOL    HW262836   8.155  10.376  14.157
87002SOL     OW62837   5.380   0.899  13.967
87002SOL    HW162838   5.384   0.966  14.035
87002SOL    HW262839   5.456   0.843  13.984
87003SOL     OW62840   1.463   1.240  14.397
87003SOL    HW162841   1.407   1.304  14.442
87003SOL    HW262842   1.410   1.210  14.324
87004SOL     OW62843   2.569  10.429  13.108
87004SOL    HW162844   2.483  10.419  13.068
87004SOL    HW262845   2.591  10.342  13.141
87005SOL     OW62846   9.433   2.729  13.503
87005SOL    HW162847   9.345   2.766  13.517
87005SOL    HW262848   9.439   2.657  13.566
87006SOL     OW62849  12.040  10.970   8.549
87006SOL    HW162850  12.074  10.916   8.478
87006SOL    HW262851  11.950  10.991   8.523
87007SOL     OW62852  14.049   7.931   2.061
87007SOL    HW162853  14.123   7.980   2.095
87007SOL    HW262854  14.047   7.850   2.112
87008SOL     OW62855   6.359   8.065   7.013
87008SOL    HW162856   6.317   7.980   6.999
87008SOL    HW262857   6.453   8.046   7.009
87009SOL     OW62858  14.615  13.497  12.513
87009SOL    HW162859  14.640  13.506  12.605
87009SOL    HW262860  14.640  13.407  12.490
87010SOL     OW62861   5.621   1.748   7.545
87010SOL    HW162862   5.620   1.766   7.639
87010SOL    HW262863   5.598   1.832   7.505
87011SOL     OW62864   2.896   6.042   9.277
87011SOL    HW162865   2.822   5.988   9.252
87011SOL    HW262866   2.973   5.986   9.263
87012SOL     OW62867   0.044   1.865   7.075
87012SOL    HW162868   0.034   1.920   6.997
87012SOL    HW262869  14.836   1.813   7.078
87013SOL     OW62870  14.840  12.613  10.549
87013SOL    HW162871  14.809  12.522  10.553
87013SOL    HW262872  14.834  12.637  10.457
87014SOL     OW62873  14.158   0.942   8.897
87014SOL    HW162874  14.179   0.874   8.833
87014SOL    HW262875  14.121   0.895   8.971
87015SOL     OW62876   1.355   7.170  11.508
87015SOL    HW162877   1.439   7.126  11.495
87015SOL    HW262878   1.302   7.107  11.556
87016SOL     OW62879   0.758  13.279   2.189
87016SOL    HW162880   0.852  13.295   2.182
87016SOL    HW262881   0.728  13.266   2.099
87017SOL     OW62882   1.856   5.778   0.455
87017SOL    HW162883   1.893   5.855   0.412
87017SOL    HW262884   1.796   5.813   0.520
87018SOL     OW62885   4.163   1.418   3.934
87018SOL    HW162886   4.187   1.497   3.983
87018SOL    HW262887   4.189   1.346   3.991
87019SOL     OW62888   3.302   7.974  14.022
87019SOL    HW162889   3.297   7.878  14.022
87019SOL    HW262890   3.334   7.997  14.109
87020SOL     OW62891  10.862   0.200  12.864
87020SOL    HW162892  10.770   0.178  12.853
87020SOL    HW262893  10.888   0.155  12.945
87021SOL     OW62894   1.301   9.100   7.760
87021SOL    HW162895   1.241   9.107   7.686
87021SOL    HW262896   1.244   9.092   7.837
87022SOL     OW62897   3.662   4.340   5.388
87022SOL    HW162898   3.693   4.356   5.299
87022SOL    HW262899   3.740   4.349   5.443
87023SOL     OW62900   1.511  11.361   5.838
87023SOL    HW162901   1.434  11.355   5.781
87023SOL    HW262902   1.485  11.422   5.907
87024SOL     OW62903  11.438   8.325   1.375
87024SOL    HW162904  11.482   8.270   1.439
87024SOL    HW262905  11.360   8.275   1.349
87025SOL     OW62906   4.733  12.092  10.949
87025SOL    HW162907   4.730  12.006  10.906
87025SOL    HW262908   4.744  12.154  10.877
87026SOL     OW62909   4.307   1.596   5.135
87026SOL    HW162910   4.252   1.581   5.058
87026SOL    HW262911   4.396   1.600   5.102
87027SOL     OW62912   1.635  14.759  12.341
87027SOL    HW162913   1.579  14.681  12.340
87027SOL    HW262914   1.720  14.728  12.311
87028SOL     OW62915  14.469   7.390   5.673
87028SOL    HW162916  14.484   7.313   5.619
87028SOL    HW262917  14.546   7.395   5.730
87029SOL     OW62918   8.133   1.370   4.225
87029SOL    HW162919   8.071   1.300   4.207
87029SOL    HW262920   8.189   1.374   4.147
87030SOL     OW62921   8.450  10.065  11.400
87030SOL    HW162922   8.465   9.972  11.380
87030SOL    HW262923   8.535  10.096  11.431
87031SOL     OW62924   8.071  12.532   1.513
87031SOL    HW162925   8.087  12.528   1.419
87031SOL    HW262926   8.158  12.539   1.552
87032SOL     OW62927   9.086   0.999  11.882
87032SOL    HW162928   9.158   1.017  11.821
87032SOL    HW262929   9.010   1.043  11.844
87033SOL     OW62930   8.159   2.266  14.007
87033SOL    HW162931   8.150   2.237  13.917
87033SOL    HW262932   8.252   2.287  14.017
87034SOL     OW62933  14.809   3.460   3.854
87034SOL    HW162934   0.025   3.445   3.820
87034SOL    HW262935  14.764   3.377   3.841
87035SOL     OW62936  13.064  11.781  14.228
87035SOL    HW162937  13.038  11.786  14.136
87035SOL    HW262938  13.124  11.706  14.232
87036SOL     OW62939  10.514   2.177  13.420
87036SOL    HW162940  10.526   2.244  13.352
87036SOL    HW262941  10.421   2.156  13.417
87037SOL     OW62942   6.206   5.270   5.553
87037SOL    HW162943   6.144   5.244   5.622
87037SOL    HW262944   6.290   5.279   5.599
87038SOL     OW62945   1.769   9.440   1.255
87038SOL    HW162946   1.746   9.390   1.333
87038SOL    HW262947   1.820   9.514   1.287
87039SOL     OW62948   5.281   9.477  12.209
87039SOL    HW162949   5.365   9.502  12.246
87039SOL    HW262950   5.280   9.515  12.121
87040SOL     OW62951  11.527   1.915   9.367
87040SOL    HW162952  11.603   1.961   9.332
87040SOL    HW262953  11.478   1.888   9.290
87041SOL     OW62954   3.812   0.909   1.917
87041SOL    HW162955   3.895   0.901   1.870
87041SOL    HW262956   3.756   0.841   1.879
87042SOL     OW62957   1.026  10.481   1.477
87042SOL    HW162958   0.953  10.449   1.424
87042SOL    HW262959   0.992  10.484   1.566
87043SOL     OW62960   4.061   0.115  10.406
87043SOL    HW162961   4.021   0.045  10.457
87043SOL    HW262962   4.013   0.115  10.323
87044SOL     OW62963   7.144   6.132   5.747
87044SOL    HW162964   7.188   6.124   5.663
87044SOL    HW262965   7.171   6.054   5.796
87045SOL     OW62966  13.993  10.952   5.720
87045SOL    HW162967  13.910  10.911   5.744
87045SOL    HW262968  13.969  11.018   5.655
87046SOL     OW62969   6.903  10.382   4.698
87046SOL    HW162970   6.830  10.396   4.757
87046SOL    HW262971   6.880  10.302   4.649
87047SOL     OW62972   8.556   2.694  12.378
87047SOL    HW162973   8.471   2.669  12.414
87047SOL    HW262974   8.579   2.623  12.318
87048SOL     OW62975  11.359   3.261  12.219
87048SOL    HW162976  11.405   3.333  12.261
87048SOL    HW262977  11.371   3.186  12.277
87049SOL     OW62978   4.192   2.262   3.173
87049SOL    HW162979   4.175   2.198   3.103
87049SOL    HW262980   4.119   2.324   3.166
87050SOL     OW62981   2.944  11.427   2.821
87050SOL    HW162982   2.913  11.339   2.844
87050SOL    HW262983   3.027  11.411   2.775
87051SOL     OW62984   7.950  14.610   3.383
87051SOL    HW162985   8.027  14.574   3.426
87051SOL    HW262986   7.982  14.685   3.333
87052SOL     OW62987   4.151  10.790  10.136
87052SOL    HW162988   4.222  10.850  10.160
87052SOL    HW262989   4.196  10.713  10.099
87053SOL     OW62990   2.377   8.553  14.013
87053SOL    HW162991   2.337   8.640  14.001
87053SOL    HW262992   2.455   8.555  13.958
87054SOL     OW62993   2.823   5.452   0.613
87054SOL    HW162994   2.794   5.488   0.530
87054SOL    HW262995   2.878   5.521   0.651
87055SOL     OW62996   6.118   5.229   2.231
87055SOL    HW162997   6.145   5.172   2.159
87055SOL    HW262998   6.137   5.177   2.310
87056SOL     OW62999   3.126  11.505   6.988
87056SOL    HW163000   3.206  11.482   6.941
87056SOL    HW263001   3.146  11.590   7.028
87057SOL     OW63002   6.036  10.366   1.831
87057SOL    HW163003   5.958  10.365   1.775
87057SOL    HW263004   6.007  10.407   1.913
87058SOL     OW63005   6.712   0.658  11.920
87058SOL    HW163006   6.627   0.701  11.916
87058SOL    HW263007   6.750   0.688  12.003
87059SOL     OW63008   1.104   7.450  13.562
87059SOL    HW163009   1.032   7.481  13.618
87059SOL    HW263010   1.168   7.415  13.624
87060SOL     OW63011   5.559   0.067   0.580
87060SOL    HW163012   5.579   0.011   0.655
87060SOL    HW263013   5.484   0.119   0.609
87061SOL     OW63014   3.043   6.558  11.878
87061SOL    HW163015   3.122   6.593  11.835
87061SOL    HW263016   3.049   6.464  11.865
87062SOL     OW63017   8.288  14.032   7.056
87062SOL    HW163018   8.201  14.000   7.080
87062SOL    HW263019   8.307  14.101   7.119
87063SOL     OW63020   7.204  11.383   1.165
87063SOL    HW163021   7.222  11.289   1.154
87063SOL    HW263022   7.110  11.387   1.183
87064SOL     OW63023   2.973   4.129  14.553
87064SOL    HW163024   2.904   4.133  14.487
87064SOL    HW263025   3.016   4.214  14.548
87065SOL     OW63026   5.572   3.724   1.625
87065SOL    HW163027   5.483   3.700   1.650
87065SOL    HW263028   5.576   3.819   1.640
87066SOL     OW63029   6.525   6.613   9.927
87066SOL    HW163030   6.446   6.661   9.954
87066SOL    HW263031   6.541   6.642   9.838
87067SOL     OW63032   7.343   2.459  12.260
87067SOL    HW163033   7.381   2.415  12.336
87067SOL    HW263034   7.260   2.494  12.292
87068SOL     OW63035   9.537   7.504  14.357
87068SOL    HW163036   9.488   7.439  14.407
87068SOL    HW263037   9.499   7.588  14.382
87069SOL     OW63038  13.900   8.952   4.585
87069SOL    HW163039  13.951   9.034   4.585
87069SOL    HW263040  13.839   8.962   4.658
87070SOL     OW63041   5.771   5.537   7.374
87070SOL    HW163042   5.678   5.519   7.363
87070SOL    HW263043   5.782   5.549   7.469
87071SOL     OW63044   1.959   5.387   5.150
87071SOL    HW163045   1.910   5.464   5.120
87071SOL    HW263046   1.964   5.330   5.073
87072SOL     OW63047   9.445   4.663   2.282
87072SOL    HW163048   9.428   4.647   2.189
87072SOL    HW263049   9.476   4.754   2.285
87073SOL     OW63050  10.131   1.081   3.611
87073SOL    HW163051  10.100   1.158   3.562
87073SOL    HW263052  10.178   1.029   3.546
87074SOL     OW63053   5.252   2.754   4.240
87074SOL    HW163054   5.324   2.817   4.240
87074SOL    HW263055   5.227   2.747   4.332
87075SOL     OW63056   3.420   2.340   6.088
87075SOL    HW163057   3.355   2.350   6.018
87075SOL    HW263058   3.379   2.381   6.164
87076SOL     OW63059  14.757   7.306  14.239
87076SOL    HW163060  14.745   7.251  14.161
87076SOL    HW263061  14.693   7.273  14.302
87077SOL     OW63062   1.610  14.710   8.965
87077SOL    HW163063   1.647  14.630   8.930
87077SOL    HW263064   1.521  14.686   8.992
87078SOL     OW63065  14.651   6.210  13.155
87078SOL    HW163066  14.736   6.195  13.115
87078SOL    HW263067  14.645   6.305  13.164
87079SOL     OW63068   7.319  11.034   2.665
87079SOL    HW163069   7.264  11.020   2.588
87079SOL    HW263070   7.408  11.036   2.630
87080SOL     OW63071  11.908   5.629   4.870
87080SOL    HW163072  11.843   5.619   4.800
87080SOL    HW263073  11.870   5.583   4.945
87081SOL     OW63074   6.683  14.498   4.088
87081SOL    HW163075   6.750  14.446   4.044
87081SOL    HW263076   6.654  14.561   4.021
87082SOL     OW63077   2.137   0.359  11.420
87082SOL    HW163078   2.117   0.266  11.435
87082SOL    HW263079   2.226   0.359  11.387
87083SOL     OW63080   9.950   7.319   4.706
87083SOL    HW163081   9.989   7.304   4.792
87083SOL    HW263082   9.957   7.234   4.661
87084SOL     OW63083   5.821  12.647   8.506
87084SOL    HW163084   5.810  12.716   8.571
87084SOL    HW263085   5.769  12.574   8.538
87085SOL     OW63086   0.949  14.821  10.873
87085SOL    HW163087   1.031  14.777  10.897
87085SOL    HW263088   0.944   0.024  10.932
87086SOL     OW63089  11.384  12.602   0.088
87086SOL    HW163090  11.405  12.683   0.135
87086SOL    HW263091  11.378  12.628  14.869
87087SOL     OW63092  10.921   3.294  12.781
87087SOL    HW163093  10.908   3.363  12.846
87087SOL    HW263094  11.013   3.305  12.754
87088SOL     OW63095  11.720   3.304   1.572
87088SOL    HW163096  11.635   3.338   1.544
87088SOL    HW263097  11.782   3.340   1.509
87089SOL     OW63098   5.021   2.304   5.593
87089SOL    HW163099   5.114   2.325   5.603
87089SOL    HW263100   4.983   2.323   5.679
87090SOL     OW63101   1.409   8.644  10.416
87090SOL    HW163102   1.404   8.573  10.480
87090SOL    HW263103   1.475   8.614  10.353
87091SOL     OW63104   2.139   7.136   8.743
87091SOL    HW163105   2.145   7.209   8.805
87091SOL    HW263106   2.076   7.166   8.677
87092SOL     OW63107   1.782   1.003  10.570
87092SOL    HW163108   1.833   1.080  10.598
87092SOL    HW263109   1.706   1.040  10.526
87093SOL     OW63110   6.072   3.871   5.218
87093SOL    HW163111   6.025   3.867   5.135
87093SOL    HW263112   6.156   3.911   5.196
87094SOL     OW63113  10.215   0.744   1.915
87094SOL    HW163114  10.186   0.737   1.825
87094SOL    HW263115  10.154   0.806   1.955
87095SOL     OW63116  11.935  14.827  13.395
87095SOL    HW163117  11.870  14.792  13.334
87095SOL    HW263118  11.919   0.049  13.397
87096SOL     OW63119   1.331   5.309   1.313
87096SOL    HW163120   1.256   5.360   1.343
87096SOL    HW263121   1.371   5.363   1.245
87097SOL     OW63122   6.853  13.528   4.027
87097SOL    HW163123   6.891  13.465   3.965
87097SOL    HW263124   6.769  13.552   3.988
87098SOL     OW63125   1.560  12.976   2.958
87098SOL    HW163126   1.550  12.948   3.049
87098SOL    HW263127   1.493  13.044   2.947
87099SOL     OW63128  12.108  11.439   1.579
87099SOL    HW163129  12.040  11.504   1.566
87099SOL    HW263130  12.062  11.362   1.614
87100SOL     OW63131   6.685   7.862  12.245
87100SOL    HW163132   6.601   7.850  12.201
87100SOL    HW263133   6.743   7.797  12.205
87101SOL     OW63134   4.578   3.212   7.370
87101SOL    HW163135   4.648   3.165   7.325
87101SOL    HW263136   4.514   3.144   7.391
87102SOL     OW63137   2.272  12.418   4.970
87102SOL    HW163138   2.200  12.415   5.033
87102SOL    HW263139   2.281  12.510   4.947
87103SOL     OW63140   3.283  10.737  13.391
87103SOL    HW163141   3.282  10.773  13.479
87103SOL    HW263142   3.363  10.770  13.352
87104SOL     OW63143   9.361   3.713   0.323
87104SOL    HW163144   9.331   3.625   0.302
87104SOL    HW263145   9.392   3.749   0.240
87105SOL     OW63146   0.187   4.622   2.400
87105SOL    HW163147   0.199   4.699   2.457
87105SOL    HW263148   0.216   4.548   2.454
87106SOL     OW63149   2.590  13.593  14.278
87106SOL    HW163150   2.582  13.506  14.238
87106SOL    HW263151   2.631  13.577  14.363
87107SOL     OW63152   4.881   3.337   7.445
87107SOL    HW163153   4.874   3.395   7.369
87107SOL    HW263154   4.916   3.393   7.515
87108SOL     OW63155   5.734  11.554   1.255
87108SOL    HW163156   5.649  11.512   1.269
87108SOL    HW263157   5.791  11.483   1.226
87109SOL     OW63158   7.988   5.152  12.826
87109SOL    HW163159   8.035   5.072  12.850
87109SOL    HW263160   8.023   5.220  12.883
87110SOL     OW63161  12.750   7.965   8.278
87110SOL    HW163162  12.758   7.873   8.304
87110SOL    HW263163  12.660   7.989   8.298
87111SOL     OW63164   1.055  14.232   8.975
87111SOL    HW163165   1.060  14.220   9.070
87111SOL    HW263166   1.114  14.166   8.939
87112SOL     OW63167   6.356  14.032   3.566
87112SOL    HW163168   6.440  14.011   3.525
87112SOL    HW263169   6.357  13.983   3.649
87113SOL     OW63170   6.989   8.984   2.641
87113SOL    HW163171   7.034   9.067   2.625
87113SOL    HW263172   6.973   8.983   2.735
87114SOL     OW63173   9.788  10.472   4.485
87114SOL    HW163174   9.757  10.558   4.455
87114SOL    HW263175   9.850  10.492   4.555
87115SOL     OW63176   2.224  13.705   7.734
87115SOL    HW163177   2.247  13.713   7.827
87115SOL    HW263178   2.236  13.612   7.715
87116SOL     OW63179  12.303   7.637   5.374
87116SOL    HW163180  12.223   7.638   5.320
87116SOL    HW263181  12.356   7.567   5.336
87117SOL     OW63182   4.986  12.570   5.849
87117SOL    HW163183   5.066  12.605   5.888
87117SOL    HW263184   4.999  12.582   5.755
87118SOL     OW63185   1.656  11.301   7.163
87118SOL    HW163186   1.626  11.214   7.135
87118SOL    HW263187   1.726  11.283   7.225
87119SOL     OW63188   3.818   6.302   9.598
87119SOL    HW163189   3.732   6.292   9.558
87119SOL    HW263190   3.852   6.384   9.561
87120SOL     OW63191  10.158  14.108  14.004
87120SOL    HW163192  10.237  14.055  13.995
87120SOL    HW263193  10.163  14.171  13.932
87121SOL     OW63194   5.589  11.476   1.556
87121SOL    HW163195   5.583  11.509   1.646
87121SOL    HW263196   5.649  11.402   1.562
87122SOL     OW63197   1.761   4.702   4.951
87122SOL    HW163198   1.679   4.725   4.907
87122SOL    HW263199   1.750   4.611   4.978
87123SOL     OW63200   8.156   0.603  13.028
87123SOL    HW163201   8.243   0.612  13.067
87123SOL    HW263202   8.168   0.632  12.937
87124SOL     OW63203   1.182  10.694   4.454
87124SOL    HW163204   1.173  10.616   4.399
87124SOL    HW263205   1.273  10.691   4.484
87125SOL     OW63206   9.007   7.608   0.078
87125SOL    HW163207   9.073   7.673   0.054
87125SOL    HW263208   8.946   7.656   0.135
87126SOL     OW63209  14.715  10.221   7.147
87126SOL    HW163210  14.726  10.283   7.219
87126SOL    HW263211  14.741  10.270   7.069
87127SOL     OW63212   4.288  14.775   7.979
87127SOL    HW163213   4.257  14.753   7.891
87127SOL    HW263214   4.243  14.856   8.000
87128SOL     OW63215   8.288   6.299   9.057
87128SOL    HW163216   8.334   6.332   9.134
87128SOL    HW263217   8.284   6.204   9.070
87129SOL     OW63218   8.257   6.257   2.253
87129SOL    HW163219   8.337   6.205   2.266
87129SOL    HW263220   8.266   6.290   2.164
87130SOL     OW63221   9.076   6.464   4.161
87130SOL    HW163222   9.020   6.527   4.205
87130SOL    HW263223   9.016   6.396   4.131
87131SOL     OW63224   2.036   2.214   2.600
87131SOL    HW163225   2.109   2.156   2.580
87131SOL    HW263226   2.015   2.255   2.516
87132SOL     OW63227  12.290  13.709   6.984
87132SOL    HW163228  12.347  13.658   7.041
87132SOL    HW263229  12.229  13.753   7.043
87133SOL     OW63230  14.449  12.940   3.465
87133SOL    HW163231  14.431  13.024   3.422
87133SOL    HW263232  14.533  12.913   3.429
87134SOL     OW63233   3.194   8.513   6.979
87134SOL    HW163234   3.146   8.510   6.896
87134SOL    HW263235   3.284   8.491   6.955
87135SOL     OW63236   4.501  14.584  10.086
87135SOL    HW163237   4.539  14.634  10.159
87135SOL    HW263238   4.503  14.645  10.012
87136SOL     OW63239   5.529   6.907  12.544
87136SOL    HW163240   5.611   6.923  12.497
87136SOL    HW263241   5.516   6.986  12.597
87137SOL     OW63242  13.397  13.842   0.499
87137SOL    HW163243  13.427  13.933   0.501
87137SOL    HW263244  13.311  13.846   0.458
87138SOL     OW63245   0.053   5.752   8.762
87138SOL    HW163246   0.048   5.846   8.779
87138SOL    HW263247   0.045   5.711   8.848
87139SOL     OW63248   0.124  11.870   8.633
87139SOL    HW163249   0.129  11.924   8.554
87139SOL    HW263250   0.048  11.814   8.619
87140SOL     OW63251   3.393   0.616  12.614
87140SOL    HW163252   3.367   0.557  12.685
87140SOL    HW263253   3.416   0.698  12.658
87141SOL     OW63254  10.361  10.599   6.661
87141SOL    HW163255  10.287  10.555   6.620
87141SOL    HW263256  10.323  10.653   6.730
87142SOL     OW63257   4.710  11.066  14.599
87142SOL    HW163258   4.679  10.996  14.541
87142SOL    HW263259   4.717  11.143  14.542
87143SOL     OW63260   8.614   4.542   3.338
87143SOL    HW163261   8.648   4.630   3.354
87143SOL    HW263262   8.531   4.557   3.293
87144SOL     OW63263   5.401   6.587   8.584
87144SOL    HW163264   5.402   6.548   8.497
87144SOL    HW263265   5.407   6.512   8.644
87145SOL     OW63266   3.801   3.986   4.585
87145SOL    HW163267   3.783   4.071   4.626
87145SOL    HW263268   3.732   3.929   4.618
87146SOL     OW63269   7.601   8.967  14.866
87146SOL    HW163270   7.593   9.023  14.789
87146SOL    HW263271   7.528   8.905  14.858
87147SOL     OW63272   1.384  13.856  10.332
87147SOL    HW163273   1.477  13.878  10.328
87147SOL    HW263274   1.383  13.761  10.342
87148SOL     OW63275  14.545   3.939   2.010
87148SOL    HW163276  14.454   3.947   1.982
87148SOL    HW263277  14.552   3.849   2.043
87149SOL     OW63278   9.558   8.301  11.077
87149SOL    HW163279   9.643   8.323  11.038
87149SOL    HW263280   9.549   8.363  11.150
87150SOL     OW63281   2.521  10.242   3.875
87150SOL    HW163282   2.543  10.149   3.872
87150SOL    HW263283   2.541  10.268   3.965
87151SOL     OW63284   5.134  10.435   4.898
87151SOL    HW163285   5.212  10.489   4.883
87151SOL    HW263286   5.066  10.475   4.844
87152SOL     OW63287   2.901  12.802  12.509
87152SOL    HW163288   2.848  12.795  12.589
87152SOL    HW263289   2.856  12.746  12.446
87153SOL     OW63290  12.516  14.585  11.842
87153SOL    HW163291  12.603  14.625  11.847
87153SOL    HW263292  12.494  14.586  11.749
87154SOL     OW63293   4.992   0.919   4.102
87154SOL    HW163294   4.904   0.927   4.065
87154SOL    HW263295   5.033   1.004   4.086
87155SOL     OW63296   5.372  12.749   6.083
87155SOL    HW163297   5.364  12.709   6.170
87155SOL    HW263298   5.465  12.744   6.062
87156SOL     OW63299  13.230   2.463   7.552
87156SOL    HW163300  13.261   2.388   7.503
87156SOL    HW263301  13.136   2.448   7.562
87157SOL     OW63302   5.841   2.988  11.469
87157SOL    HW163303   5.788   2.964  11.392
87157SOL    HW263304   5.913   2.925  11.468
87158SOL     OW63305  10.952   5.769  14.305
87158SOL    HW163306  10.899   5.691  14.322
87158SOL    HW263307  11.041   5.743  14.332
87159SOL     OW63308   5.607   8.884  13.528
87159SOL    HW163309   5.553   8.829  13.472
87159SOL    HW263310   5.554   8.898  13.607
87160SOL     OW63311  13.767   9.362  12.657
87160SOL    HW163312  13.751   9.449  12.621
87160SOL    HW263313  13.760   9.302  12.582
87161SOL     OW63314   5.105  11.530   4.137
87161SOL    HW163315   5.053  11.570   4.206
87161SOL    HW263316   5.192  11.522   4.174
87162SOL     OW63317   5.937   0.238   2.134
87162SOL    HW163318   5.861   0.281   2.174
87162SOL    HW263319   5.967   0.177   2.201
87163SOL     OW63320  13.591   0.672   9.340
87163SOL    HW163321  13.667   0.730   9.344
87163SOL    HW263322  13.588   0.630   9.425
87164SOL     OW63323   6.651   9.116  12.701
87164SOL    HW163324   6.612   9.203  12.703
87164SOL    HW263325   6.631   9.082  12.614
87165SOL     OW63326   4.792   9.100   0.830
87165SOL    HW163327   4.871   9.147   0.804
87165SOL    HW263328   4.779   9.124   0.922
87166SOL     OW63329   2.112   8.377   2.816
87166SOL    HW163330   2.131   8.405   2.906
87166SOL    HW263331   2.160   8.295   2.806
87167SOL     OW63332   8.041   9.460  13.196
87167SOL    HW163333   8.122   9.470  13.246
87167SOL    HW263334   8.071   9.441  13.107
87168SOL     OW63335   0.906   5.199   5.453
87168SOL    HW163336   0.843   5.244   5.509
87168SOL    HW263337   0.880   5.107   5.457
87169SOL     OW63338   8.655   6.284   4.468
87169SOL    HW163339   8.571   6.239   4.454
87169SOL    HW263340   8.644   6.328   4.552
87170SOL     OW63341   6.449  14.116   2.875
87170SOL    HW163342   6.443  14.144   2.967
87170SOL    HW263343   6.470  14.195   2.827
87171SOL     OW63344   7.157   4.123  10.818
87171SOL    HW163345   7.157   4.219  10.814
87171SOL    HW263346   7.239   4.101  10.863
87172SOL     OW63347  12.560   4.351   8.301
87172SOL    HW163348  12.514   4.413   8.246
87172SOL    HW263349  12.627   4.313   8.244
87173SOL     OW63350  10.161   5.088  10.721
87173SOL    HW163351  10.098   5.039  10.668
87173SOL    HW263352  10.168   5.039  10.802
87174SOL     OW63353   1.756  12.609  11.487
87174SOL    HW163354   1.762  12.698  11.522
87174SOL    HW263355   1.812  12.557  11.545
87175SOL     OW63356   2.683  13.673   0.929
87175SOL    HW163357   2.729  13.673   1.013
87175SOL    HW263358   2.719  13.599   0.881
87176SOL     OW63359   6.896   0.019  12.329
87176SOL    HW163360   6.946   0.099  12.311
87176SOL    HW263361   6.816   0.050  12.372
87177SOL     OW63362   9.761  13.753   4.284
87177SOL    HW163363   9.788  13.809   4.357
87177SOL    HW263364   9.717  13.679   4.326
87178SOL     OW63365  13.040  10.977   6.566
87178SOL    HW163366  13.051  10.903   6.627
87178SOL    HW263367  13.094  11.046   6.604
87179SOL     OW63368   6.818   9.693   8.685
87179SOL    HW163369   6.787   9.676   8.596
87179SOL    HW263370   6.789   9.617   8.736
87180SOL     OW63371  10.880  11.248   8.778
87180SOL    HW163372  10.843  11.196   8.706
87180SOL    HW263373  10.975  11.240   8.767
87181SOL     OW63374  14.781  14.598  14.471
87181SOL    HW163375  14.764  14.505  14.486
87181SOL    HW263376  14.820  14.629  14.553
87182SOL     OW63377   3.174   9.999  10.009
87182SOL    HW163378   3.214   9.913  10.005
87182SOL    HW263379   3.230  10.055   9.956
87183SOL     OW63380  11.665   2.918   8.593
87183SOL    HW163381  11.674   3.006   8.630
87183SOL    HW263382  11.710   2.923   8.509
87184SOL     OW63383   1.709  10.140   5.674
87184SOL    HW163384   1.738  10.230   5.688
87184SOL    HW263385   1.613  10.144   5.681
87185SOL     OW63386   3.792  12.484  11.125
87185SOL    HW163387   3.782  12.537  11.046
87185SOL    HW263388   3.876  12.512  11.162
87186SOL     OW63389   8.668  14.846  12.755
87186SOL    HW163390   8.633  14.808  12.674
87186SOL    HW263391   8.592   0.014  12.796
87187SOL     OW63392  13.346   4.253  11.205
87187SOL    HW163393  13.327   4.347  11.202
87187SOL    HW263394  13.353   4.226  11.114
87188SOL     OW63395   6.608   0.181   3.428
87188SOL    HW163396   6.515   0.179   3.452
87188SOL    HW263397   6.609   0.204   3.335
87189SOL     OW63398   6.683   0.235   2.293
87189SOL    HW163399   6.694   0.214   2.386
87189SOL    HW263400   6.599   0.195   2.270
87190SOL     OW63401   5.348  10.298  12.303
87190SOL    HW163402   5.389  10.238  12.365
87190SOL    HW263403   5.414  10.366  12.288
87191SOL     OW63404   9.529   7.635   3.382
87191SOL    HW163405   9.445   7.681   3.381
87191SOL    HW263406   9.508   7.547   3.414
87192SOL     OW63407  13.819   9.435  11.690
87192SOL    HW163408  13.778   9.408  11.772
87192SOL    HW263409  13.779   9.379  11.624
87193SOL     OW63410   5.341   2.495   0.129
87193SOL    HW163411   5.382   2.412   0.152
87193SOL    HW263412   5.374   2.516   0.042
87194SOL     OW63413   6.190  12.247   5.332
87194SOL    HW163414   6.220  12.172   5.281
87194SOL    HW263415   6.261  12.311   5.325
87195SOL     OW63416   2.591  10.375   6.139
87195SOL    HW163417   2.504  10.355   6.174
87195SOL    HW263418   2.649  10.311   6.180
87196SOL     OW63419   7.797  14.827  11.976
87196SOL    HW163420   7.756  14.851  11.893
87196SOL    HW263421   7.784   0.031  12.033
87197SOL     OW63422   7.446   5.183   8.236
87197SOL    HW163423   7.458   5.140   8.151
87197SOL    HW263424   7.469   5.274   8.220
87198SOL     OW63425   5.038  11.348   9.933
87198SOL    HW163426   4.989  11.363   9.852
87198SOL    HW263427   4.997  11.270   9.970
87199SOL     OW63428   6.049   3.579   4.101
87199SOL    HW163429   6.137   3.607   4.076
87199SOL    HW263430   6.015   3.653   4.152
87200SOL     OW63431   2.341  11.780   6.846
87200SOL    HW163432   2.371  11.837   6.917
87200SOL    HW263433   2.379  11.695   6.866
87201SOL     OW63434   8.243   5.372   3.485
87201SOL    HW163435   8.286   5.350   3.568
87201SOL    HW263436   8.315   5.378   3.422
87202SOL     OW63437  11.842   2.517   0.997
87202SOL    HW163438  11.827   2.436   1.046
87202SOL    HW263439  11.858   2.487   0.907
87203SOL     OW63440  12.444  12.378  14.022
87203SOL    HW163441  12.484  12.290  14.022
87203SOL    HW263442  12.502  12.430  14.078
87204SOL     OW63443   9.131   7.620   6.715
87204SOL    HW163444   9.043   7.631   6.678
87204SOL    HW263445   9.167   7.709   6.716
87205SOL     OW63446  14.737   3.378  11.308
87205SOL    HW163447  14.731   3.402  11.401
87205SOL    HW263448  14.798   3.304  11.307
87206SOL     OW63449   7.741   6.195  11.392
87206SOL    HW163450   7.828   6.177  11.357
87206SOL    HW263451   7.681   6.157  11.328
87207SOL     OW63452  13.771   9.333   0.591
87207SOL    HW163453  13.711   9.397   0.550
87207SOL    HW263454  13.716   9.285   0.653
87208SOL     OW63455   7.745  11.449   5.437
87208SOL    HW163456   7.784  11.510   5.374
87208SOL    HW263457   7.678  11.501   5.482
87209SOL     OW63458   0.760   6.718   6.519
87209SOL    HW163459   0.681   6.704   6.466
87209SOL    HW263460   0.759   6.811   6.539
87210SOL     OW63461   4.159   0.128   7.984
87210SOL    HW163462   4.110   0.151   7.905
87210SOL    HW263463   4.091   0.108   8.049
87211SOL     OW63464   0.223   6.172   3.420
87211SOL    HW163465   0.296   6.189   3.480
87211SOL    HW263466   0.214   6.077   3.420
87212SOL     OW63467   9.367   1.556  10.029
87212SOL    HW163468   9.344   1.595  10.113
87212SOL    HW263469   9.454   1.590  10.010
87213SOL     OW63470   2.699   8.821  10.025
87213SOL    HW163471   2.692   8.796   9.933
87213SOL    HW263472   2.686   8.916  10.025
87214SOL     OW63473   0.160  12.923   9.087
87214SOL    HW163474   0.144  12.830   9.071
87214SOL    HW263475   0.227  12.925   9.155
87215SOL     OW63476  12.435   1.928  14.648
87215SOL    HW163477  12.510   1.872  14.665
87215SOL    HW263478  12.417   1.918  14.555
87216SOL     OW63479   9.020  14.534  14.308
87216SOL    HW163480   8.942  14.589  14.318
87216SOL    HW263481   9.046  14.546  14.216
87217SOL     OW63482   0.696  13.746  11.817
87217SOL    HW163483   0.628  13.748  11.749
87217SOL    HW263484   0.714  13.838  11.836
87218SOL     OW63485  11.582   1.377   3.334
87218SOL    HW163486  11.664   1.394   3.380
87218SOL    HW263487  11.524   1.341   3.401
87219SOL     OW63488  13.361   7.804   9.628
87219SOL    HW163489  13.328   7.728   9.580
87219SOL    HW263490  13.381   7.869   9.560
87220SOL     OW63491  12.257   5.528   8.818
87220SOL    HW163492  12.312   5.603   8.796
87220SOL    HW263493  12.311   5.452   8.796
87221SOL     OW63494   8.699   3.567  12.837
87221SOL    HW163495   8.721   3.506  12.907
87221SOL    HW263496   8.782   3.584  12.792
87222SOL     OW63497   6.410   7.178   0.581
87222SOL    HW163498   6.435   7.251   0.637
87222SOL    HW263499   6.342   7.131   0.631
87223SOL     OW63500   7.195  11.426   2.720
87223SOL    HW163501   7.140  11.430   2.642
87223SOL    HW263502   7.284  11.417   2.687
87224SOL     OW63503   4.392   3.247   7.646
87224SOL    HW163504   4.472   3.300   7.638
87224SOL    HW263505   4.344   3.287   7.719
87225SOL     OW63506   7.418  11.246   5.621
87225SOL    HW163507   7.462  11.164   5.599
87225SOL    HW263508   7.473  11.286   5.688
87226SOL     OW63509   6.662   0.780   7.059
87226SOL    HW163510   6.613   0.800   6.980
87226SOL    HW263511   6.616   0.827   7.129
87227SOL     OW63512   9.553  13.242  11.358
87227SOL    HW163513   9.520  13.172  11.415
87227SOL    HW263514   9.645  13.220  11.344
87228SOL     OW63515   8.463   7.079  12.706
87228SOL    HW163516   8.412   7.082  12.625
87228SOL    HW263517   8.539   7.136  12.689
87229SOL     OW63518   9.422   8.822   6.042
87229SOL    HW163519   9.459   8.845   6.128
87229SOL    HW263520   9.329   8.841   6.050
87230SOL     OW63521   6.031  10.600   7.476
87230SOL    HW163522   6.106  10.544   7.457
87230SOL    HW263523   5.956  10.552   7.440
87231SOL     OW63524   4.990   8.308   1.664
87231SOL    HW163525   5.049   8.346   1.729
87231SOL    HW263526   4.930   8.380   1.642
87232SOL     OW63527   8.107   9.674   1.092
87232SOL    HW163528   8.061   9.711   1.016
87232SOL    HW263529   8.095   9.580   1.084
87233SOL     OW63530   8.523   2.358   7.923
87233SOL    HW163531   8.541   2.407   7.843
87233SOL    HW263532   8.434   2.324   7.911
87234SOL     OW63533   7.854   8.588   7.127
87234SOL    HW163534   7.900   8.543   7.198
87234SOL    HW263535   7.805   8.658   7.169
87235SOL     OW63536   7.208   3.497   7.193
87235SOL    HW163537   7.209   3.545   7.111
87235SOL    HW263538   7.134   3.533   7.242
87236SOL     OW63539   6.346  10.222  10.992
87236SOL    HW163540   6.366  10.130  10.970
87236SOL    HW263541   6.371  10.271  10.913
87237SOL     OW63542   7.357   7.676   0.026
87237SOL    HW163543   7.321   7.751  14.852
87237SOL    HW263544   7.449   7.699   0.040
87238SOL     OW63545  12.141   7.505   6.650
87238SOL    HW163546  12.074   7.436   6.657
87238SOL    HW263547  12.150   7.539   6.739
87239SOL     OW63548   0.527   7.519  11.817
87239SOL    HW163549   0.534   7.424  11.829
87239SOL    HW263550   0.578   7.536  11.738
87240SOL     OW63551   1.352   3.451  13.429
87240SOL    HW163552   1.266   3.489  13.411
87240SOL    HW263553   1.363   3.384  13.361
87241SOL     OW63554   8.755   4.094   8.293
87241SOL    HW163555   8.687   4.149   8.255
87241SOL    HW263556   8.739   4.096   8.387
87242SOL     OW63557  14.038  14.112   0.969
87242SOL    HW163558  13.951  14.077   0.987
87242SOL    HW263559  14.022  14.188   0.912
87243SOL     OW63560   9.929   3.416   1.471
87243SOL    HW163561   9.994   3.381   1.410
87243SOL    HW263562   9.938   3.363   1.549
87244SOL     OW63563   6.473  11.354   3.483
87244SOL    HW163564   6.452  11.370   3.575
87244SOL    HW263565   6.530  11.277   3.484
87245SOL     OW63566   4.310   1.416  13.580
87245SOL    HW163567   4.331   1.326  13.557
87245SOL    HW263568   4.327   1.466  13.501
87246SOL     OW63569   3.682   3.985   9.258
87246SOL    HW163570   3.700   4.020   9.345
87246SOL    HW263571   3.677   4.061   9.201
87247SOL     OW63572   3.151   4.326  11.197
87247SOL    HW163573   3.205   4.274  11.257
87247SOL    HW263574   3.123   4.401  11.249
87248SOL     OW63575   1.954  13.915   9.436
87248SOL    HW163576   2.046  13.925   9.409
87248SOL    HW263577   1.957  13.913   9.531
87249SOL     OW63578  10.721   5.980   6.478
87249SOL    HW163579  10.806   6.017   6.502
87249SOL    HW263580  10.726   5.966   6.384
87250SOL     OW63581   9.968  11.708   7.444
87250SOL    HW163582   9.998  11.728   7.532
87250SOL    HW263583  10.045  11.722   7.389
87251SOL     OW63584  13.969   2.059   2.409
87251SOL    HW163585  14.029   1.985   2.420
87251SOL    HW263586  13.974   2.079   2.316
87252SOL     OW63587   9.824  14.345   6.267
87252SOL    HW163588   9.807  14.251   6.271
87252SOL    HW263589   9.740  14.384   6.242
87253SOL     OW63590   7.001   6.429   0.909
87253SOL    HW163591   7.092   6.415   0.935
87253SOL    HW263592   6.975   6.347   0.868
87254SOL     OW63593   2.942   0.687   3.971
87254SOL    HW163594   2.898   0.648   3.895
87254SOL    HW263595   2.920   0.780   3.967
87255SOL     OW63596   6.824   8.569   0.860
87255SOL    HW163597   6.829   8.551   0.766
87255SOL    HW263598   6.849   8.661   0.869
87256SOL     OW63599   4.024   9.788  14.084
87256SOL    HW163600   4.056   9.705  14.121
87256SOL    HW263601   3.990   9.764  13.998
87257SOL     OW63602   0.899   3.398  12.196
87257SOL    HW163603   0.946   3.471  12.236
87257SOL    HW263604   0.823   3.385  12.253
87258SOL     OW63605   4.446  10.542  11.210
87258SOL    HW163606   4.495  10.470  11.249
87258SOL    HW263607   4.513  10.606  11.185
87259SOL     OW63608  14.035   5.350   6.871
87259SOL    HW163609  14.008   5.272   6.920
87259SOL    HW263610  14.130   5.349   6.875
87260SOL     OW63611   4.876  13.922  12.855
87260SOL    HW163612   4.807  13.869  12.896
87260SOL    HW263613   4.902  13.872  12.777
87261SOL     OW63614  13.515   5.696   9.946
87261SOL    HW163615  13.522   5.602   9.930
87261SOL    HW263616  13.431   5.706   9.992
87262SOL     OW63617  13.654  10.338   2.032
87262SOL    HW163618  13.689  10.251   2.053
87262SOL    HW263619  13.731  10.394   2.024
87263SOL     OW63620  13.162  10.677   9.440
87263SOL    HW163621  13.077  10.717   9.424
87263SOL    HW263622  13.169  10.670   9.535
87264SOL     OW63623   5.773  14.661  12.482
87264SOL    HW163624   5.772  14.582  12.429
87264SOL    HW263625   5.733  14.635  12.565
87265SOL     OW63626   1.599   7.277   7.402
87265SOL    HW163627   1.573   7.231   7.322
87265SOL    HW263628   1.680   7.323   7.379
87266SOL     OW63629   4.359   3.432   9.885
87266SOL    HW163630   4.449   3.408   9.909
87266SOL    HW263631   4.356   3.425   9.790
87267SOL     OW63632   4.414   9.223  13.317
87267SOL    HW163633   4.360   9.213  13.238
87267SOL    HW263634   4.351   9.227  13.388
87268SOL     OW63635   4.575   9.035   7.742
87268SOL    HW163636   4.611   9.102   7.800
87268SOL    HW263637   4.481   9.047   7.746
87269SOL     OW63638   9.324  13.911   4.716
87269SOL    HW163639   9.328  13.879   4.806
87269SOL    HW263640   9.280  13.996   4.723
87270SOL     OW63641  10.845   4.891   5.817
87270SOL    HW163642  10.768   4.873   5.870
87270SOL    HW263643  10.835   4.981   5.787
87271SOL     OW63644   2.886  14.150  10.761
87271SOL    HW163645   2.833  14.114  10.831
87271SOL    HW263646   2.917  14.074  10.712
87272SOL     OW63647  10.538  11.896   2.109
87272SOL    HW163648  10.467  11.839   2.081
87272SOL    HW263649  10.605  11.837   2.143
87273SOL     OW63650   4.179   3.811   1.971
87273SOL    HW163651   4.208   3.879   2.031
87273SOL    HW263652   4.085   3.823   1.964
87274SOL     OW63653  12.185   8.944  12.457
87274SOL    HW163654  12.148   8.881  12.394
87274SOL    HW263655  12.164   9.030  12.420
87275SOL     OW63656   8.887   0.102   5.682
87275SOL    HW163657   8.934   0.128   5.760
87275SOL    HW263658   8.889   0.006   5.683
87276SOL     OW63659   6.777   2.243   5.044
87276SOL    HW163660   6.859   2.246   5.092
87276SOL    HW263661   6.783   2.316   4.982
87277SOL     OW63662  10.224   8.675  12.100
87277SOL    HW163663  10.269   8.621  12.166
87277SOL    HW263664  10.224   8.621  12.021
87278SOL     OW63665   1.150  12.720  12.420
87278SOL    HW163666   1.220  12.771  12.380
87278SOL    HW263667   1.090  12.785  12.455
87279SOL     OW63668  12.152  12.613   1.305
87279SOL    HW163669  12.105  12.530   1.307
87279SOL    HW263670  12.199  12.612   1.221
87280SOL     OW63671   4.370   2.940  12.586
87280SOL    HW163672   4.274   2.950  12.590
87280SOL    HW263673   4.388   2.922  12.494
87281SOL     OW63674   6.705   5.011  10.223
87281SOL    HW163675   6.643   5.034  10.291
87281SOL    HW263676   6.716   5.092  10.172
87282SOL     OW63677   5.378   8.283   2.400
87282SOL    HW163678   5.434   8.298   2.323
87282SOL    HW263679   5.290   8.281   2.364
87283SOL     OW63680   7.190   5.478  12.080
87283SOL    HW163681   7.105   5.498  12.118
87283SOL    HW263682   7.232   5.421  12.144
87284SOL     OW63683   7.825   1.398   0.347
87284SOL    HW163684   7.776   1.322   0.316
87284SOL    HW263685   7.785   1.472   0.302
87285SOL     OW63686   4.612   2.626   4.032
87285SOL    HW163687   4.578   2.661   4.115
87285SOL    HW263688   4.707   2.630   4.042
87286SOL     OW63689   4.144  14.233   9.938
87286SOL    HW163690   4.190  14.247  10.021
87286SOL    HW263691   4.065  14.184   9.963
87287SOL     OW63692   8.921   5.437  13.122
87287SOL    HW163693   8.971   5.411  13.199
87287SOL    HW263694   8.982   5.429  13.049
87288SOL     OW63695   8.369   4.531  10.396
87288SOL    HW163696   8.279   4.537  10.429
87288SOL    HW263697   8.418   4.596  10.446
87289SOL     OW63698   0.792  13.414   3.513
87289SOL    HW163699   0.860  13.474   3.484
87289SOL    HW263700   0.839  13.340   3.550
87290SOL     OW63701   0.791  11.723   4.267
87290SOL    HW163702   0.725  11.763   4.210
87290SOL    HW263703   0.744  11.653   4.313
87291SOL     OW63704   0.866   3.003   9.263
87291SOL    HW163705   0.812   3.034   9.336
87291SOL    HW263706   0.808   2.948   9.211
87292SOL     OW63707   6.117   4.999   3.134
87292SOL    HW163708   6.049   5.038   3.190
87292SOL    HW263709   6.172   5.073   3.109
87293SOL     OW63710  11.498  14.428   6.910
87293SOL    HW163711  11.458  14.403   6.827
87293SOL    HW263712  11.592  14.423   6.894
87294SOL     OW63713  11.752  13.449   8.243
87294SOL    HW163714  11.829  13.479   8.194
87294SOL    HW263715  11.744  13.510   8.316
87295SOL     OW63716  12.719  10.934   6.726
87295SOL    HW163717  12.777  10.863   6.752
87295SOL    HW263718  12.642  10.891   6.689
87296SOL     OW63719  12.547   9.620  14.217
87296SOL    HW163720  12.568   9.623  14.310
87296SOL    HW263721  12.452   9.605  14.214
87297SOL     OW63722   9.971   3.753  11.135
87297SOL    HW163723   9.961   3.753  11.040
87297SOL    HW263724  10.057   3.713  11.150
87298SOL     OW63725   3.500   8.330   9.594
87298SOL    HW163726   3.541   8.346   9.508
87298SOL    HW263727   3.453   8.412   9.613
87299SOL     OW63728   7.434   5.183  11.284
87299SOL    HW163729   7.355   5.236  11.276
87299SOL    HW263730   7.439   5.161  11.377
87300SOL     OW63731  12.242  12.735   9.549
87300SOL    HW163732  12.273  12.790   9.477
87300SOL    HW263733  12.159  12.776   9.575
87301SOL     OW63734  13.628   1.515   7.819
87301SOL    HW163735  13.544   1.536   7.780
87301SOL    HW263736  13.682   1.486   7.746
87302SOL     OW63737   1.261   4.365  11.611
87302SOL    HW163738   1.226   4.414  11.537
87302SOL    HW263739   1.215   4.281  11.608
87303SOL     OW63740   6.329   9.510   4.977
87303SOL    HW163741   6.401   9.496   5.040
87303SOL    HW263742   6.294   9.596   5.000
87304SOL     OW63743   1.493   5.054   1.941
87304SOL    HW163744   1.403   5.040   1.911
87304SOL    HW263745   1.488   5.132   1.996
87305SOL     OW63746   7.145  13.737  12.201
87305SOL    HW163747   7.064  13.784  12.180
87305SOL    HW263748   7.194  13.735  12.119
87306SOL     OW63749   1.265   5.427  14.585
87306SOL    HW163750   1.207   5.352  14.574
87306SOL    HW263751   1.232   5.472  14.664
87307SOL     OW63752   1.150  11.557   3.467
87307SOL    HW163753   1.233  11.508   3.470
87307SOL    HW263754   1.122  11.550   3.376
87308SOL     OW63755   9.200   2.438  13.597
87308SOL    HW163756   9.153   2.453  13.515
87308SOL    HW263757   9.179   2.515  13.651
87309SOL     OW63758   4.652  12.427   4.746
87309SOL    HW163759   4.677  12.486   4.674
87309SOL    HW263760   4.615  12.485   4.812
87310SOL     OW63761   5.793   9.221   7.811
87310SOL    HW163762   5.837   9.304   7.830
87310SOL    HW263763   5.831   9.159   7.873
87311SOL     OW63764   7.932   3.272   1.385
87311SOL    HW163765   7.886   3.347   1.422
87311SOL    HW263766   7.973   3.229   1.459
87312SOL     OW63767   8.924  14.354   3.242
87312SOL    HW163768   8.987  14.292   3.206
87312SOL    HW263769   8.866  14.302   3.297
87313SOL     OW63770   2.725   6.504   0.905
87313SOL    HW163771   2.781   6.491   0.981
87313SOL    HW263772   2.778   6.479   0.830
87314SOL     OW63773   5.404   5.637   9.849
87314SOL    HW163774   5.472   5.647   9.783
87314SOL    HW263775   5.346   5.712   9.836
87315SOL     OW63776  10.605   6.132   8.789
87315SOL    HW163777  10.572   6.146   8.700
87315SOL    HW263778  10.646   6.215   8.813
87316SOL     OW63779   0.892  13.798  11.568
87316SOL    HW163780   0.854  13.751  11.641
87316SOL    HW263781   0.885  13.890  11.592
87317SOL     OW63782  13.859   4.839  10.084
87317SOL    HW163783  13.906   4.790  10.017
87317SOL    HW263784  13.915   4.837  10.161
87318SOL     OW63785   4.722  12.385   8.435
87318SOL    HW163786   4.722  12.305   8.488
87318SOL    HW263787   4.718  12.354   8.344
87319SOL     OW63788  10.971   6.874  11.119
87319SOL    HW163789  11.052   6.889  11.168
87319SOL    HW263790  10.988   6.792  11.072
87320SOL     OW63791   5.380   1.163  13.171
87320SOL    HW163792   5.435   1.124  13.104
87320SOL    HW263793   5.436   1.228  13.214
87321SOL     OW63794   5.674  10.846   7.743
87321SOL    HW163795   5.628  10.834   7.660
87321SOL    HW263796   5.605  10.840   7.810
87322SOL     OW63797  12.463  11.238   5.507
87322SOL    HW163798  12.451  11.154   5.552
87322SOL    HW263799  12.428  11.303   5.568
87323SOL     OW63800   9.074   2.704   6.407
87323SOL    HW163801   9.050   2.796   6.397
87323SOL    HW263802   9.154   2.706   6.459
87324SOL     OW63803   9.784   9.492   5.061
87324SOL    HW163804   9.811   9.583   5.056
87324SOL    HW263805   9.859   9.446   5.099
87325SOL     OW63806  12.947  14.408  12.476
87325SOL    HW163807  12.992  14.323  12.472
87325SOL    HW263808  12.974  14.453  12.396
87326SOL     OW63809  10.398   8.567   8.652
87326SOL    HW163810  10.393   8.662   8.645
87326SOL    HW263811  10.434   8.552   8.740
87327SOL     OW63812   7.694   1.278  12.304
87327SOL    HW163813   7.633   1.335  12.350
87327SOL    HW263814   7.767   1.336  12.281
87328SOL     OW63815   8.986   2.165   4.447
87328SOL    HW163816   8.970   2.149   4.354
87328SOL    HW263817   9.080   2.179   4.454
87329SOL     OW63818   8.577   9.519   0.723
87329SOL    HW163819   8.631   9.562   0.789
87329SOL    HW263820   8.514   9.468   0.775
87330SOL     OW63821  12.904   9.925   5.528
87330SOL    HW163822  12.981   9.897   5.576
87330SOL    HW263823  12.832   9.877   5.568
87331SOL     OW63824   8.630  13.801  10.507
87331SOL    HW163825   8.556  13.753  10.545
87331SOL    HW263826   8.694  13.808  10.578
87332SOL     OW63827   4.957  10.684   3.835
87332SOL    HW163828   4.924  10.629   3.906
87332SOL    HW263829   5.052  10.681   3.845
87333SOL     OW63830  11.398   2.621   5.444
87333SOL    HW163831  11.446   2.616   5.362
87333SOL    HW263832  11.377   2.714   5.454
87334SOL     OW63833  14.860   4.317   7.984
87334SOL    HW163834   0.027   4.245   7.934
87334SOL    HW263835  14.864   4.392   7.925
87335SOL     OW63836   8.973   0.694   0.272
87335SOL    HW163837   8.972   0.761   0.340
87335SOL    HW263838   9.063   0.695   0.239
87336SOL     OW63839   3.423   8.323  10.148
87336SOL    HW163840   3.482   8.313  10.073
87336SOL    HW263841   3.482   8.325  10.224
87337SOL     OW63842   1.840   0.613   5.224
87337SOL    HW163843   1.883   0.590   5.307
87337SOL    HW263844   1.909   0.654   5.172
87338SOL     OW63845   7.734  11.546   3.606
87338SOL    HW163846   7.731  11.457   3.643
87338SOL    HW263847   7.690  11.538   3.521
87339SOL     OW63848  11.156   3.317   3.650
87339SOL    HW163849  11.210   3.310   3.571
87339SOL    HW263850  11.172   3.406   3.682
87340SOL     OW63851   6.805   5.100   9.833
87340SOL    HW163852   6.872   5.031   9.830
87340SOL    HW263853   6.824   5.154   9.755
87341SOL     OW63854   2.648  14.266   1.176
87341SOL    HW163855   2.689  14.182   1.157
87341SOL    HW263856   2.708  14.308   1.237
87342SOL     OW63857   4.908   7.309   1.033
87342SOL    HW163858   4.987   7.275   1.075
87342SOL    HW263859   4.918   7.285   0.941
87343SOL     OW63860  13.090   1.579   0.993
87343SOL    HW163861  13.080   1.571   0.898
87343SOL    HW263862  13.149   1.507   1.017
87344SOL     OW63863  13.106   4.593   7.723
87344SOL    HW163864  13.136   4.582   7.814
87344SOL    HW263865  13.169   4.653   7.684
87345SOL     OW63866   8.074   5.559  13.547
87345SOL    HW163867   8.031   5.591  13.626
87345SOL    HW263868   8.114   5.477  13.573
87346SOL     OW63869  10.679   2.580  12.671
87346SOL    HW163870  10.714   2.650  12.617
87346SOL    HW263871  10.746   2.566  12.739
87347SOL     OW63872   6.448  11.943  12.280
87347SOL    HW163873   6.467  11.926  12.187
87347SOL    HW263874   6.353  11.951  12.284
87348SOL     OW63875   0.554   1.678   4.747
87348SOL    HW163876   0.512   1.764   4.737
87348SOL    HW263877   0.483   1.615   4.738
87349SOL     OW63878   5.749   0.801   5.179
87349SOL    HW163879   5.667   0.758   5.156
87349SOL    HW263880   5.743   0.887   5.138
87350SOL     OW63881   8.042  11.977  13.575
87350SOL    HW163882   8.115  11.972  13.636
87350SOL    HW263883   8.069  12.042  13.510
87351SOL     OW63884  12.623   2.699   8.554
87351SOL    HW163885  12.627   2.617   8.603
87351SOL    HW263886  12.532   2.705   8.525
87352SOL     OW63887   3.429   5.739  13.427
87352SOL    HW163888   3.498   5.805  13.412
87352SOL    HW263889   3.466   5.658  13.393
87353SOL     OW63890   5.306   9.239  13.547
87353SOL    HW163891   5.229   9.286  13.517
87353SOL    HW263892   5.282   9.146  13.540
87354SOL     OW63893   3.223  13.435   0.033
87354SOL    HW163894   3.254  13.503   0.093
87354SOL    HW263895   3.285  13.436  14.832
87355SOL     OW63896   8.450   0.270  10.580
87355SOL    HW163897   8.418   0.285  10.491
87355SOL    HW263898   8.435   0.176  10.595
87356SOL     OW63899  12.813   0.341   2.687
87356SOL    HW163900  12.903   0.332   2.656
87356SOL    HW263901  12.820   0.334   2.782
87357SOL     OW63902  10.096   8.835  12.283
87357SOL    HW163903  10.061   8.886  12.210
87357SOL    HW263904  10.153   8.770  12.240
87358SOL     OW63905   1.893   2.075  10.559
87358SOL    HW163906   1.962   2.088  10.624
87358SOL    HW263907   1.939   2.057  10.477
87359SOL     OW63908   1.620   5.353   8.056
87359SOL    HW163909   1.528   5.379   8.065
87359SOL    HW263910   1.644   5.322   8.143
87360SOL     OW63911  11.173   3.689   9.071
87360SOL    HW163912  11.132   3.646   9.146
87360SOL    HW263913  11.265   3.697   9.097
87361SOL     OW63914   5.619  13.272  13.287
87361SOL    HW163915   5.613  13.240  13.197
87361SOL    HW263916   5.703  13.238  13.319
87362SOL     OW63917   6.531   6.278   5.232
87362SOL    HW163918   6.500   6.248   5.317
87362SOL    HW263919   6.470   6.237   5.169
87363SOL     OW63920   9.831  10.694   6.262
87363SOL    HW163921   9.871  10.642   6.193
87363SOL    HW263922   9.867  10.658   6.343
87364SOL     OW63923   2.808   5.401   6.416
87364SOL    HW163924   2.831   5.484   6.459
87364SOL    HW263925   2.743   5.426   6.350
87365SOL     OW63926   7.523   8.260  12.175
87365SOL    HW163927   7.438   8.242  12.134
87365SOL    HW263928   7.586   8.214  12.120
87366SOL     OW63929   2.235   1.315  14.870
87366SOL    HW163930   2.260   1.407  14.867
87366SOL    HW263931   2.278   1.281   0.076
87367SOL     OW63932   6.634   9.637  10.272
87367SOL    HW163933   6.544   9.638  10.238
87367SOL    HW263934   6.632   9.573  10.343
87368SOL     OW63935   8.255   7.885   4.939
87368SOL    HW163936   8.241   7.932   4.857
87368SOL    HW263937   8.329   7.827   4.920
87369SOL     OW63938  12.198   2.508   7.948
87369SOL    HW163939  12.184   2.416   7.925
87369SOL    HW263940  12.110   2.545   7.952
87370SOL     OW63941   0.247   7.776  14.672
87370SOL    HW163942   0.246   7.682  14.651
87370SOL    HW263943   0.176   7.812  14.619
87371SOL     OW63944  13.064   9.684   0.132
87371SOL    HW163945  13.071   9.651   0.222
87371SOL    HW263946  13.043   9.606   0.080
87372SOL     OW63947   6.771   5.587  12.105
87372SOL    HW163948   6.845   5.647  12.094
87372SOL    HW263949   6.694   5.644  12.101
87373SOL     OW63950   5.966  14.869   4.236
87373SOL    HW163951   5.875   0.028   4.238
87373SOL    HW263952   5.970  14.803   4.305
87374SOL     OW63953   5.671   6.038   0.760
87374SOL    HW163954   5.695   6.018   0.850
87374SOL    HW263955   5.599   6.100   0.768
87375SOL     OW63956   1.230  10.283   5.828
87375SOL    HW163957   1.239  10.375   5.801
87375SOL    HW263958   1.199  10.288   5.919
87376SOL     OW63959  12.777   8.871   9.587
87376SOL    HW163960  12.730   8.894   9.507
87376SOL    HW263961  12.852   8.819   9.556
87377SOL     OW63962  12.905   9.992   6.998
87377SOL    HW163963  12.824   9.962   7.039
87377SOL    HW263964  12.877  10.027   6.913
87378SOL     OW63965  11.802   5.641   1.718
87378SOL    HW163966  11.777   5.548   1.717
87378SOL    HW263967  11.759   5.678   1.641
87379SOL     OW63968  14.335   5.022   3.223
87379SOL    HW163969  14.376   4.939   3.202
87379SOL    HW263970  14.406   5.076   3.257
87380SOL     OW63971   7.275   5.840   6.619
87380SOL    HW163972   7.207   5.844   6.551
87380SOL    HW263973   7.259   5.758   6.665
87381SOL     OW63974   0.640   3.539  12.244
87381SOL    HW163975   0.651   3.573  12.155
87381SOL    HW263976   0.552   3.567  12.269
87382SOL     OW63977  13.129   9.557  14.683
87382SOL    HW163978  13.143   9.645  14.718
87382SOL    HW263979  13.217   9.522  14.671
87383SOL     OW63980  10.510   2.553   1.382
87383SOL    HW163981  10.509   2.635   1.331
87383SOL    HW263982  10.437   2.563   1.443
87384SOL     OW63983   8.026   5.619  10.602
87384SOL    HW163984   8.013   5.654  10.514
87384SOL    HW263985   7.966   5.670  10.657
87385SOL     OW63986   9.258  13.423   3.022
87385SOL    HW163987   9.224  13.380   3.101
87385SOL    HW263988   9.352  13.406   3.024
87386SOL     OW63989   1.628   8.664   4.489
87386SOL    HW163990   1.678   8.663   4.407
87386SOL    HW263991   1.632   8.755   4.518
87387SOL     OW63992   5.285   8.102   0.860
87387SOL    HW163993   5.313   8.183   0.901
87387SOL    HW263994   5.328   8.101   0.775
87388SOL     OW63995   8.085   4.285   8.010
87388SOL    HW163996   8.022   4.232   8.058
87388SOL    HW263997   8.093   4.243   7.925
87389SOL     OW63998  10.712  10.560   7.041
87389SOL    HW163999  10.653  10.543   6.968
87389SOL    HW264000  10.798  10.569   7.001
87390SOL     OW64001   6.992   1.036   8.825
87390SOL    HW164002   7.049   1.097   8.778
87390SOL    HW264003   6.964   1.086   8.902
87391SOL     OW64004   8.648   0.115   0.181
87391SOL    HW164005   8.579   0.089   0.121
87391SOL    HW264006   8.694   0.186   0.136
87392SOL     OW64007   5.901   4.518   2.417
87392SOL    HW164008   5.981   4.569   2.411
87392SOL    HW264009   5.835   4.581   2.447
87393SOL     OW64010   6.144  14.359   5.625
87393SOL    HW164011   6.208  14.296   5.658
87393SOL    HW264012   6.115  14.322   5.542
87394SOL     OW64013  12.906   0.828   3.129
87394SOL    HW164014  12.882   0.900   3.071
87394SOL    HW264015  12.987   0.855   3.170
87395SOL     OW64016   5.576   7.208   3.069
87395SOL    HW164017   5.585   7.118   3.100
87395SOL    HW264018   5.588   7.261   3.148
87396SOL     OW64019  12.704   3.562  12.650
87396SOL    HW164020  12.658   3.596  12.572
87396SOL    HW264021  12.796   3.562  12.625
87397SOL     OW64022   8.235   8.241  14.303
87397SOL    HW164023   8.281   8.324  14.291
87397SOL    HW264024   8.294   8.174  14.269
87398SOL     OW64025  14.359  12.208   2.881
87398SOL    HW164026  14.298  12.138   2.855
87398SOL    HW264027  14.446  12.173   2.862
87399SOL     OW64028   9.805   4.072  12.608
87399SOL    HW164029   9.827   4.163  12.590
87399SOL    HW264030   9.865   4.047  12.679
87400SOL     OW64031   7.139  12.243  14.788
87400SOL    HW164032   7.179  12.327  14.770
87400SOL    HW264033   7.177  12.183  14.724
87401SOL     OW64034   0.927  12.253   1.016
87401SOL    HW164035   0.931  12.311   0.940
87401SOL    HW264036   1.017  12.244   1.044
87402SOL     OW64037   1.190   0.003   4.929
87402SOL    HW164038   1.193   0.096   4.952
87402SOL    HW264039   1.283  14.851   4.921
87403SOL     OW64040   8.418   6.160   1.792
87403SOL    HW164041   8.494   6.105   1.807
87403SOL    HW264042   8.443   6.217   1.719
87404SOL     OW64043   6.254  11.647  10.915
87404SOL    HW164044   6.284  11.579  10.855
87404SOL    HW264045   6.306  11.635  10.994
87405SOL     OW64046   4.902   8.062   0.128
87405SOL    HW164047   4.961   8.069   0.203
87405SOL    HW264048   4.829   8.009   0.160
87406SOL     OW64049   3.062   7.447   8.949
87406SOL    HW164050   2.979   7.491   8.963
87406SOL    HW264051   3.064   7.379   9.016
87407SOL     OW64052   8.691  10.234   5.532
87407SOL    HW164053   8.703  10.166   5.599
87407SOL    HW264054   8.605  10.270   5.550
87408SOL     OW64055   1.459   5.477   1.727
87408SOL    HW164056   1.532   5.418   1.706
87408SOL    HW264057   1.487   5.523   1.806
87409SOL     OW64058  10.072   1.752   8.922
87409SOL    HW164059  10.112   1.830   8.885
87409SOL    HW264060   9.994   1.784   8.968
87410SOL     OW64061   0.236   9.976   0.483
87410SOL    HW164062   0.202  10.063   0.462
87410SOL    HW264063   0.312   9.965   0.426
87411SOL     OW64064   2.638   8.925  11.326
87411SOL    HW164065   2.638   8.984  11.251
87411SOL    HW264066   2.585   8.850  11.298
87412SOL     OW64067  10.335  11.356   0.143
87412SOL    HW164068  10.390  11.408   0.085
87412SOL    HW264069  10.247  11.364   0.106
87413SOL     OW64070   3.557   9.169  10.559
87413SOL    HW164071   3.504   9.098  10.523
87413SOL    HW264072   3.617   9.126  10.620
87414SOL     OW64073   1.300  10.025   4.223
87414SOL    HW164074   1.267  10.108   4.188
87414SOL    HW264075   1.385  10.046   4.260
87415SOL     OW64076  12.553   2.300  10.205
87415SOL    HW164077  12.518   2.371  10.259
87415SOL    HW264078  12.648   2.305  10.218
87416SOL     OW64079  14.397  14.453   9.041
87416SOL    HW164080  14.332  14.523   9.044
87416SOL    HW264081  14.358  14.387   8.983
87417SOL     OW64082   4.190  12.617   9.786
87417SOL    HW164083   4.143  12.649   9.709
87417SOL    HW264084   4.130  12.631   9.859
87418SOL     OW64085   7.998   6.661  13.211
87418SOL    HW164086   8.064   6.726  13.185
87418SOL    HW264087   8.044   6.602  13.270
87419SOL     OW64088   9.013  11.105   1.016
87419SOL    HW164089   9.027  11.194   1.049
87419SOL    HW264090   9.032  11.049   1.091
87420SOL     OW64091   6.328   3.120   1.322
87420SOL    HW164092   6.422   3.100   1.328
87420SOL    HW264093   6.285   3.051   1.372
87421SOL     OW64094  14.314   8.076  10.137
87421SOL    HW164095  14.239   8.092  10.194
87421SOL    HW264096  14.352   8.162  10.123
87422SOL     OW64097   8.663   0.394   0.902
87422SOL    HW164098   8.756   0.380   0.917
87422SOL    HW264099   8.638   0.460   0.967
87423SOL     OW64100  13.220   3.886   3.003
87423SOL    HW164101  13.272   3.864   2.925
87423SOL    HW264102  13.132   3.853   2.984
87424SOL     OW64103   6.191  12.513   8.382
87424SOL    HW164104   6.151  12.512   8.469
87424SOL    HW264105   6.119  12.494   8.322
87425SOL     OW64106  11.114   3.218   3.906
87425SOL    HW164107  11.149   3.131   3.927
87425SOL    HW264108  11.140   3.233   3.815
87426SOL     OW64109   2.704  12.527   2.208
87426SOL    HW164110   2.638  12.458   2.206
87426SOL    HW264111   2.738  12.531   2.119
87427SOL     OW64112   7.974   9.846   6.621
87427SOL    HW164113   7.918   9.769   6.633
87427SOL    HW264114   8.054   9.825   6.669
87428SOL     OW64115   9.813   0.845   1.770
87428SOL    HW164116   9.801   0.940   1.771
87428SOL    HW264117   9.764   0.815   1.694
87429SOL     OW64118   8.305   6.407   7.359
87429SOL    HW164119   8.241   6.382   7.292
87429SOL    HW264120   8.388   6.414   7.310
87430SOL     OW64121  14.844  12.801   8.511
87430SOL    HW164122  14.842  12.878   8.455
87430SOL    HW264123   0.004  12.832   8.596
87431SOL     OW64124   6.306   2.977  10.825
87431SOL    HW164125   6.216   3.012  10.824
87431SOL    HW264126   6.359   3.046  10.784
87432SOL     OW64127   7.242   9.824  14.012
87432SOL    HW164128   7.251   9.870  14.096
87432SOL    HW264129   7.314   9.856  13.959
87433SOL     OW64130   2.172  10.585  10.507
87433SOL    HW164131   2.256  10.612  10.543
87433SOL    HW264132   2.195  10.527  10.434
87434SOL     OW64133   7.751   4.182  12.345
87434SOL    HW164134   7.787   4.211  12.261
87434SOL    HW264135   7.681   4.245  12.364
87435SOL     OW64136  12.442   6.148  11.698
87435SOL    HW164137  12.357   6.192  11.698
87435SOL    HW264138  12.504   6.214  11.729
87436SOL     OW64139   7.396  12.369  10.237
87436SOL    HW164140   7.311  12.388  10.278
87436SOL    HW264141   7.431  12.455  10.216
87437SOL     OW64142   0.397   7.450  10.648
87437SOL    HW164143   0.431   7.495  10.570
87437SOL    HW264144   0.309   7.486  10.660
87438SOL     OW64145  10.202  12.692   0.185
87438SOL    HW164146  10.279  12.683   0.241
87438SOL    HW264147  10.209  12.620   0.122
87439SOL     OW64148   5.446   9.591   2.211
87439SOL    HW164149   5.400   9.609   2.129
87439SOL    HW264150   5.408   9.509   2.242
87440SOL     OW64151  10.849  14.438   5.277
87440SOL    HW164152  10.766  14.394   5.257
87440SOL    HW264153  10.916  14.375   5.251
87441SOL     OW64154   3.824  13.956  12.727
87441SOL    HW164155   3.838  14.031  12.668
87441SOL    HW264156   3.769  13.991  12.797
87442SOL     OW64157  10.468  13.466   3.421
87442SOL    HW164158  10.508  13.398   3.367
87442SOL    HW264159  10.444  13.421   3.503
87443SOL     OW64160   1.440   9.286  12.025
87443SOL    HW164161   1.355   9.253  12.055
87443SOL    HW264162   1.421   9.374  11.993
87444SOL     OW64163   1.821   2.443   6.959
87444SOL    HW164164   1.916   2.429   6.959
87444SOL    HW264165   1.809   2.530   6.921
87445SOL     OW64166  10.361  11.875   8.140
87445SOL    HW164167  10.290  11.898   8.201
87445SOL    HW264168  10.339  11.921   8.059
87446SOL     OW64169  11.765  13.027  12.235
87446SOL    HW164170  11.695  12.969  12.264
87446SOL    HW264171  11.739  13.054  12.147
87447SOL     OW64172   3.261   2.938  13.384
87447SOL    HW164173   3.200   3.008  13.364
87447SOL    HW264174   3.348   2.980  13.382
87448SOL     OW64175   0.429   5.805   0.524
87448SOL    HW164176   0.430   5.807   0.620
87448SOL    HW264177   0.506   5.755   0.499
87449SOL     OW64178  12.382   2.314   9.171
87449SOL    HW164179  12.441   2.365   9.115
87449SOL    HW264180  12.319   2.276   9.110
87450SOL     OW64181   7.473  11.254   0.793
87450SOL    HW164182   7.568  11.253   0.807
87450SOL    HW264183   7.453  11.346   0.773
87451SOL     OW64184   8.393   6.217   8.120
87451SOL    HW164185   8.397   6.305   8.083
87451SOL    HW264186   8.302   6.190   8.109
87452SOL     OW64187  11.708   2.337  11.913
87452SOL    HW164188  11.670   2.264  11.962
87452SOL    HW264189  11.662   2.415  11.947
87453SOL     OW64190   2.151  10.815   4.821
87453SOL    HW164191   2.239  10.852   4.826
87453SOL    HW264192   2.160  10.727   4.859
87454SOL     OW64193  11.691  10.280   9.233
87454SOL    HW164194  11.746  10.296   9.157
87454SOL    HW264195  11.714  10.191   9.262
87455SOL     OW64196   8.420  11.629   5.035
87455SOL    HW164197   8.391  11.687   4.965
87455SOL    HW264198   8.420  11.684   5.113
87456SOL     OW64199   7.536   0.200   5.412
87456SOL    HW164200   7.513   0.166   5.498
87456SOL    HW264201   7.574   0.286   5.429
87457SOL     OW64202  14.222   2.572  14.774
87457SOL    HW164203  14.157   2.564  14.844
87457SOL    HW264204  14.299   2.525  14.808
87458SOL     OW64205   5.794   9.677   5.722
87458SOL    HW164206   5.877   9.628   5.716
87458SOL    HW264207   5.751   9.661   5.637
87459SOL     OW64208   5.490   3.421   4.347
87459SOL    HW164209   5.432   3.488   4.311
87459SOL    HW264210   5.471   3.420   4.441
87460SOL     OW64211   3.305  13.018   9.342
87460SOL    HW164212   3.221  12.991   9.305
87460SOL    HW264213   3.288  13.105   9.380
87461SOL     OW64214   6.847   1.929   3.738
87461SOL    HW164215   6.815   1.850   3.694
87461SOL    HW264216   6.782   1.946   3.807
87462SOL     OW64217   4.932   8.991   4.001
87462SOL    HW164218   5.026   9.007   4.013
87462SOL    HW264219   4.922   8.974   3.907
87463SOL     OW64220   7.644   1.124   6.803
87463SOL    HW164221   7.579   1.144   6.736
87463SOL    HW264222   7.704   1.063   6.760
87464SOL     OW64223  13.038  11.884   8.044
87464SOL    HW164224  13.011  11.896   7.953
87464SOL    HW264225  12.997  11.801   8.070
87465SOL     OW64226   9.262   3.364   3.578
87465SOL    HW164227   9.234   3.429   3.643
87465SOL    HW264228   9.242   3.279   3.619
87466SOL     OW64229   5.557   9.492   7.282
87466SOL    HW164230   5.523   9.412   7.321
87466SOL    HW264231   5.493   9.516   7.215
87467SOL     OW64232   9.210  10.673   4.703
87467SOL    HW164233   9.230  10.585   4.736
87467SOL    HW264234   9.287  10.725   4.725
87468SOL     OW64235   1.188   4.134   6.985
87468SOL    HW164236   1.147   4.047   6.986
87468SOL    HW264237   1.162   4.171   6.900
87469SOL     OW64238  10.986   5.817   9.191
87469SOL    HW164239  11.019   5.899   9.153
87469SOL    HW264240  10.950   5.844   9.276
87470SOL     OW64241   5.175   7.047   1.476
87470SOL    HW164242   5.183   6.951   1.471
87470SOL    HW264243   5.081   7.063   1.481
87471SOL     OW64244  13.966   4.483  12.362
87471SOL    HW164245  13.922   4.413  12.410
87471SOL    HW264246  13.962   4.559  12.419
87472SOL     OW64247   5.577   7.031   1.039
87472SOL    HW164248   5.648   7.068   0.986
87472SOL    HW264249   5.569   6.941   1.009
87473SOL     OW64250  14.245   9.255   2.992
87473SOL    HW164251  14.289   9.172   2.972
87473SOL    HW264252  14.232   9.254   3.087
87474SOL     OW64253   5.982   1.419  10.098
87474SOL    HW164254   5.959   1.330  10.073
87474SOL    HW264255   6.062   1.438  10.049
87475SOL     OW64256   5.472  10.770   4.143
87475SOL    HW164257   5.543  10.710   4.119
87475SOL    HW264258   5.473  10.838   4.075
87476SOL     OW64259   3.567   6.150   8.230
87476SOL    HW164260   3.659   6.123   8.226
87476SOL    HW264261   3.533   6.128   8.143
87477SOL     OW64262   6.225   9.579   0.801
87477SOL    HW164263   6.190   9.646   0.742
87477SOL    HW264264   6.311   9.558   0.764
87478SOL     OW64265   0.109   2.193   5.249
87478SOL    HW164266   0.043   2.142   5.297
87478SOL    HW264267   0.105   2.158   5.160
87479SOL     OW64268   0.572   8.159  12.697
87479SOL    HW164269   0.645   8.100  12.679
87479SOL    HW264270   0.501   8.101  12.725
87480SOL     OW64271   7.738   3.562   1.644
87480SOL    HW164272   7.758   3.656   1.641
87480SOL    HW264273   7.816   3.519   1.609
87481SOL     OW64274   8.404   9.889  14.346
87481SOL    HW164275   8.353   9.968  14.331
87481SOL    HW264276   8.424   9.890  14.440
87482SOL     OW64277   9.543   7.007   0.129
87482SOL    HW164278   9.475   7.021   0.063
87482SOL    HW264279   9.612   7.069   0.106
87483SOL     OW64280   4.262  13.713  12.753
87483SOL    HW164281   4.305  13.783  12.703
87483SOL    HW264282   4.173  13.710  12.719
87484SOL     OW64283  10.627  11.117  14.047
87484SOL    HW164284  10.618  11.079  13.960
87484SOL    HW264285  10.705  11.173  14.041
87485SOL     OW64286   1.760   2.921   3.164
87485SOL    HW164287   1.753   2.917   3.259
87485SOL    HW264288   1.849   2.953   3.148
87486SOL     OW64289   0.294   4.881   4.958
87486SOL    HW164290   0.264   4.968   4.931
87486SOL    HW264291   0.243   4.861   5.036
87487SOL     OW64292   2.520   8.962   3.692
87487SOL    HW164293   2.450   8.967   3.757
87487SOL    HW264294   2.475   8.938   3.610
87488SOL     OW64295   7.064   5.590  13.478
87488SOL    HW164296   7.148   5.549  13.500
87488SOL    HW264297   7.079   5.683  13.494
87489SOL     OW64298   4.583  13.249   5.196
87489SOL    HW164299   4.594  13.213   5.108
87489SOL    HW264300   4.502  13.300   5.191
87490SOL     OW64301   6.929   5.330   8.037
87490SOL    HW164302   6.863   5.384   8.080
87490SOL    HW264303   6.963   5.274   8.106
87491SOL     OW64304   8.994   6.023  11.950
87491SOL    HW164305   9.029   6.103  11.910
87491SOL    HW264306   9.045   5.952  11.911
87492SOL     OW64307  10.990  10.320  11.342
87492SOL    HW164308  11.060  10.320  11.278
87492SOL    HW264309  10.983  10.229  11.370
87493SOL     OW64310  11.016   5.376   7.444
87493SOL    HW164311  10.949   5.313   7.468
87493SOL    HW264312  11.037   5.356   7.353
87494SOL     OW64313   6.083  11.211  13.095
87494SOL    HW164314   6.045  11.139  13.045
87494SOL    HW264315   6.011  11.243  13.149
87495SOL     OW64316   8.425  14.827   4.920
87495SOL    HW164317   8.418   0.044   4.885
87495SOL    HW264318   8.344  14.813   4.968
87496SOL     OW64319  14.540   3.635   6.124
87496SOL    HW164320  14.476   3.675   6.065
87496SOL    HW264321  14.544   3.544   6.096
87497SOL     OW64322   8.281   7.271   9.783
87497SOL    HW164323   8.207   7.242   9.730
87497SOL    HW264324   8.336   7.193   9.792
87498SOL     OW64325  11.507  12.654   3.913
87498SOL    HW164326  11.585  12.598   3.912
87498SOL    HW264327  11.531  12.726   3.971
87499SOL     OW64328   0.625   3.930  12.068
87499SOL    HW164329   0.688   3.969  12.007
87499SOL    HW264330   0.592   4.004  12.118
87500SOL     OW64331   0.749   7.270   0.974
87500SOL    HW164332   0.737   7.232   1.061
87500SOL    HW264333   0.774   7.361   0.991
87501SOL     OW64334   6.808  13.689   4.613
87501SOL    HW164335   6.901  13.710   4.609
87501SOL    HW264336   6.795  13.624   4.544
87502SOL     OW64337   8.161  13.597   4.639
87502SOL    HW164338   8.139  13.655   4.566
87502SOL    HW264339   8.255  13.611   4.654
87503SOL     OW64340   4.392  13.510  14.263
87503SOL    HW164341   4.425  13.584  14.314
87503SOL    HW264342   4.309  13.487  14.306
87504SOL     OW64343  12.375   8.811   1.919
87504SOL    HW164344  12.447   8.754   1.947
87504SOL    HW264345  12.356   8.865   1.996
87505SOL     OW64346   4.254   7.489  12.477
87505SOL    HW164347   4.199   7.425  12.431
87505SOL    HW264348   4.331   7.439  12.504
87506SOL     OW64349  11.815   9.993   7.533
87506SOL    HW164350  11.883   9.963   7.593
87506SOL    HW264351  11.858  10.062   7.482
87507SOL     OW64352   6.412   2.295   6.853
87507SOL    HW164353   6.500   2.263   6.837
87507SOL    HW264354   6.356   2.218   6.844
87508SOL     OW64355   1.540  13.779   0.724
87508SOL    HW164356   1.609  13.804   0.662
87508SOL    HW264357   1.497  13.705   0.682
87509SOL     OW64358  12.337   5.728  11.404
87509SOL    HW164359  12.327   5.821  11.385
87509SOL    HW264360  12.248   5.696  11.415
87510SOL     OW64361   7.546   0.988   3.197
87510SOL    HW164362   7.540   0.892   3.192
87510SOL    HW264363   7.635   1.008   3.168
87511SOL     OW64364   2.717   3.924   0.132
87511SOL    HW164365   2.749   3.858   0.193
87511SOL    HW264366   2.739   3.889   0.045
87512SOL     OW64367   5.787   9.950   4.319
87512SOL    HW164368   5.793  10.045   4.331
87512SOL    HW264369   5.878   9.923   4.302
87513SOL     OW64370  11.452   1.584   0.864
87513SOL    HW164371  11.505   1.586   0.943
87513SOL    HW264372  11.384   1.649   0.879
87514SOL     OW64373   6.851   7.524  10.948
87514SOL    HW164374   6.756   7.516  10.945
87514SOL    HW264375   6.880   7.505  10.858
87515SOL     OW64376   9.035   3.363   9.524
87515SOL    HW164377   9.070   3.279   9.551
87515SOL    HW264378   9.096   3.427   9.559
87516SOL     OW64379  14.537  11.716  10.506
87516SOL    HW164380  14.471  11.648  10.520
87516SOL    HW264381  14.607  11.695  10.567
87517SOL     OW64382   7.161   6.376   4.362
87517SOL    HW164383   7.124   6.309   4.419
87517SOL    HW264384   7.172   6.453   4.418
87518SOL     OW64385   0.684   5.450   0.390
87518SOL    HW164386   0.686   5.401   0.309
87518SOL    HW264387   0.610   5.412   0.439
87519SOL     OW64388   5.511   3.581   5.040
87519SOL    HW164389   5.451   3.648   5.007
87519SOL    HW264390   5.553   3.545   4.961
87520SOL     OW64391  13.540   5.949   6.246
87520SOL    HW164392  13.451   5.917   6.260
87520SOL    HW264393  13.530   6.043   6.231
87521SOL     OW64394   5.088   1.732   4.530
87521SOL    HW164395   5.067   1.789   4.457
87521SOL    HW264396   5.183   1.718   4.522
87522SOL     OW64397   5.202   9.983   7.378
87522SOL    HW164398   5.213  10.016   7.289
87522SOL    HW264399   5.203   9.888   7.368
87523SOL     OW64400   4.439   7.653   7.774
87523SOL    HW164401   4.451   7.708   7.697
87523SOL    HW264402   4.368   7.593   7.749
87524SOL     OW64403  14.748   4.865   5.912
87524SOL    HW164404  14.778   4.835   5.826
87524SOL    HW264405  14.823   4.849   5.970
87525SOL     OW64406   3.711  11.428   0.368
87525SOL    HW164407   3.666  11.489   0.427
87525SOL    HW264408   3.792  11.406   0.414
87526SOL     OW64409   0.815  14.458  10.147
87526SOL    HW164410   0.796  14.455  10.241
87526SOL    HW264411   0.886  14.522  10.139
87527SOL     OW64412   8.276   9.676   9.389
87527SOL    HW164413   8.304   9.602   9.335
87527SOL    HW264414   8.330   9.749   9.360
87528SOL     OW64415   1.833   3.475   5.075
87528SOL    HW164416   1.878   3.424   5.008
87528SOL    HW264417   1.753   3.505   5.032
87529SOL     OW64418   6.963   8.562   4.700
87529SOL    HW164419   7.026   8.627   4.731
87529SOL    HW264420   6.936   8.593   4.614
87530SOL     OW64421   1.286   2.701   1.397
87530SOL    HW164422   1.227   2.722   1.469
87530SOL    HW264423   1.292   2.605   1.399
87531SOL     OW64424  14.754   5.392   1.385
87531SOL    HW164425  14.732   5.394   1.292
87531SOL    HW264426  14.677   5.354   1.428
87532SOL     OW64427   0.678   2.414  13.218
87532SOL    HW164428   0.666   2.443  13.128
87532SOL    HW264429   0.663   2.493  13.270
87533SOL     OW64430  11.077   4.102   5.411
87533SOL    HW164431  11.078   4.141   5.323
87533SOL    HW264432  11.072   4.177   5.470
87534SOL     OW64433   3.238   3.014   9.107
87534SOL    HW164434   3.218   2.924   9.132
87534SOL    HW264435   3.162   3.042   9.056
87535SOL     OW64436   6.512  13.452  11.442
87535SOL    HW164437   6.575  13.420  11.507
87535SOL    HW264438   6.525  13.547  11.441
87536SOL     OW64439   5.033   2.000   1.973
87536SOL    HW164440   4.982   2.027   2.050
87536SOL    HW264441   5.087   2.076   1.953
87537SOL     OW64442  11.936  13.630   8.158
87537SOL    HW164443  11.891  13.714   8.163
87537SOL    HW264444  11.992  13.627   8.235
87538SOL     OW64445   7.220   5.892  11.977
87538SOL    HW164446   7.280   5.958  12.012
87538SOL    HW264447   7.274   5.814  11.967
87539SOL     OW64448  13.005   3.151  14.598
87539SOL    HW164449  12.982   3.202  14.676
87539SOL    HW264450  13.028   3.065  14.632
87540SOL     OW64451   1.718  14.252   8.694
87540SOL    HW164452   1.682  14.183   8.749
87540SOL    HW264453   1.642  14.286   8.645
87541SOL     OW64454   3.400   5.783  10.426
87541SOL    HW164455   3.434   5.718  10.489
87541SOL    HW264456   3.473   5.845  10.415
87542SOL     OW64457   3.808   8.944  12.257
87542SOL    HW164458   3.789   8.965  12.348
87542SOL    HW264459   3.752   9.003  12.206
87543SOL     OW64460  13.667  14.031  14.051
87543SOL    HW164461  13.708  13.950  14.083
87543SOL    HW264462  13.634  14.008  13.964
87544SOL     OW64463   7.291   4.414  11.063
87544SOL    HW164464   7.217   4.354  11.054
87544SOL    HW264465   7.333   4.387  11.145
87545SOL     OW64466  11.658   7.532  11.526
87545SOL    HW164467  11.720   7.513  11.597
87545SOL    HW264468  11.574   7.498  11.557
87546SOL     OW64469   9.041  11.710   3.822
87546SOL    HW164470   9.097  11.633   3.828
87546SOL    HW264471   9.020  11.732   3.913
87547SOL     OW64472   8.152  10.473   9.268
87547SOL    HW164473   8.170  10.387   9.232
87547SOL    HW264474   8.070  10.463   9.317
87548SOL     OW64475  14.327   0.598   4.112
87548SOL    HW164476  14.383   0.582   4.188
87548SOL    HW264477  14.337   0.691   4.094
87549SOL     OW64478   5.389   6.720  14.360
87549SOL    HW164479   5.461   6.743  14.301
87549SOL    HW264480   5.316   6.700  14.302
87550SOL     OW64481   2.043   9.373   2.097
87550SOL    HW164482   2.012   9.294   2.054
87550SOL    HW264483   2.068   9.345   2.185
87551SOL     OW64484   8.602   8.389   9.101
87551SOL    HW164485   8.669   8.432   9.047
87551SOL    HW264486   8.608   8.433   9.186
87552SOL     OW64487  14.856   3.784  10.935
87552SOL    HW164488   0.024   3.800  10.849
87552SOL    HW264489  14.816   3.698  10.927
87553SOL     OW64490  11.093   8.542  13.873
87553SOL    HW164491  11.102   8.448  13.860
87553SOL    HW264492  11.162   8.564  13.936
87554SOL     OW64493   2.735   2.403   5.969
87554SOL    HW164494   2.808   2.349   5.940
87554SOL    HW264495   2.742   2.402   6.065
87555SOL     OW64496  11.325   0.260   1.077
87555SOL    HW164497  11.306   0.313   1.000
87555SOL    HW264498  11.251   0.199   1.083
87556SOL     OW64499   7.455  11.283   1.693
87556SOL    HW164500   7.382  11.298   1.633
87556SOL    HW264501   7.533  11.293   1.638
87557SOL     OW64502  11.855   7.131   3.128
87557SOL    HW164503  11.796   7.125   3.203
87557SOL    HW264504  11.853   7.223   3.103
87558SOL     OW64505   8.200   9.146  12.944
87558SOL    HW164506   8.239   9.209  12.883
87558SOL    HW264507   8.137   9.098  12.891
87559SOL     OW64508   9.375   8.840   0.975
87559SOL    HW164509   9.442   8.797   1.028
87559SOL    HW264510   9.382   8.933   0.997
87560SOL     OW64511  10.121   2.712   0.667
87560SOL    HW164512  10.111   2.803   0.640
87560SOL    HW264513  10.076   2.662   0.599
87561SOL     OW64514   2.122   4.400   3.855
87561SOL    HW164515   2.215   4.382   3.870
87561SOL    HW264516   2.118   4.431   3.765
87562SOL     OW64517   9.349   2.747   0.750
87562SOL    HW164518   9.412   2.677   0.734
87562SOL    HW264519   9.286   2.709   0.811
87563SOL     OW64520   5.375  14.213   6.648
87563SOL    HW164521   5.376  14.254   6.562
87563SOL    HW264522   5.360  14.120   6.630
87564SOL     OW64523   8.261   6.843   9.613
87564SOL    HW164524   8.324   6.846   9.685
87564SOL    HW264525   8.191   6.786   9.644
87565SOL     OW64526   9.506   8.903   0.416
87565SOL    HW164527   9.513   8.818   0.373
87565SOL    HW264528   9.585   8.910   0.469
87566SOL     OW64529  14.298   9.791   3.439
87566SOL    HW164530  14.315   9.880   3.473
87566SOL    HW264531  14.217   9.765   3.484
87567SOL     OW64532   4.130   1.884  12.447
87567SOL    HW164533   4.176   1.929  12.376
87567SOL    HW264534   4.060   1.836  12.403
87568SOL     OW64535   7.193  14.433  11.825
87568SOL    HW164536   7.158  14.517  11.795
87568SOL    HW264537   7.225  14.390  11.746
87569SOL     OW64538   7.470  11.500  10.105
87569SOL    HW164539   7.430  11.440  10.042
87569SOL    HW264540   7.406  11.507  10.175
87570SOL     OW64541   5.966   8.898   4.505
87570SOL    HW164542   6.061   8.891   4.494
87570SOL    HW264543   5.940   8.814   4.543
87571SOL     OW64544   3.677   8.578   6.775
87571SOL    HW164545   3.703   8.618   6.692
87571SOL    HW264546   3.696   8.645   6.841
87572SOL     OW64547   8.306   5.018   1.302
87572SOL    HW164548   8.363   4.975   1.238
87572SOL    HW264549   8.299   5.108   1.270
87573SOL     OW64550   4.961   7.977   9.880
87573SOL    HW164551   4.987   7.902   9.828
87573SOL    HW264552   4.901   8.026   9.822
87574SOL     OW64553   5.528   6.895   7.062
87574SOL    HW164554   5.504   6.877   6.971
87574SOL    HW264555   5.572   6.815   7.092
87575SOL     OW64556   7.658   3.017   4.554
87575SOL    HW164557   7.683   2.959   4.626
87575SOL    HW264558   7.661   3.105   4.592
87576SOL     OW64559   1.062  11.498   3.995
87576SOL    HW164560   1.099  11.537   3.915
87576SOL    HW264561   1.133  11.445   4.031
87577SOL     OW64562   3.909  14.248   4.047
87577SOL    HW164563   3.925  14.189   4.121
87577SOL    HW264564   3.965  14.324   4.064
87578SOL     OW64565  11.643   2.850   4.489
87578SOL    HW164566  11.625   2.852   4.583
87578SOL    HW264567  11.729   2.890   4.480
87579SOL     OW64568   5.366   5.220  11.914
87579SOL    HW164569   5.421   5.207  11.991
87579SOL    HW264570   5.375   5.139  11.864
87580SOL     OW64571   4.621   5.529   6.639
87580SOL    HW164572   4.537   5.499   6.675
87580SOL    HW264573   4.620   5.499   6.548
87581SOL     OW64574   4.096  13.744   2.783
87581SOL    HW164575   4.164  13.773   2.722
87581SOL    HW264576   4.054  13.670   2.738
87582SOL     OW64577   9.724   7.615   3.764
87582SOL    HW164578   9.785   7.558   3.810
87582SOL    HW264579   9.743   7.703   3.799
87583SOL     OW64580  10.051  10.462  12.521
87583SOL    HW164581   9.988  10.390  12.516
87583SOL    HW264582  10.022  10.515  12.595
87584SOL     OW64583   7.968   7.177  10.446
87584SOL    HW164584   7.915   7.226  10.383
87584SOL    HW264585   7.922   7.093  10.455
87585SOL     OW64586   7.784   1.931   4.962
87585SOL    HW164587   7.825   1.889   5.037
87585SOL    HW264588   7.811   2.022   4.967
87586SOL     OW64589  10.041  11.992   4.068
87586SOL    HW164590   9.946  12.004   4.064
87586SOL    HW264591  10.077  12.076   4.038
87587SOL     OW64592   7.752   7.799  13.684
87587SOL    HW164593   7.842   7.826  13.664
87587SOL    HW264594   7.752   7.789  13.780
87588SOL     OW64595  13.211   2.067   6.859
87588SOL    HW164596  13.258   1.996   6.816
87588SOL    HW264597  13.134   2.025   6.898
87589SOL     OW64598   2.802   0.238  10.544
87589SOL    HW164599   2.828   0.146  10.539
87589SOL    HW264600   2.852   0.273  10.617
87590SOL     OW64601  13.883  11.487  14.686
87590SOL    HW164602  13.845  11.444  14.610
87590SOL    HW264603  13.930  11.418  14.733
87591SOL     OW64604   9.992   1.736   1.471
87591SOL    HW164605  10.040   1.679   1.411
87591SOL    HW264606   9.932   1.785   1.415
87592SOL     OW64607   6.002   6.193   7.000
87592SOL    HW164608   5.971   6.269   6.952
87592SOL    HW264609   6.006   6.221   7.091
87593SOL     OW64610   7.644  10.664   3.766
87593SOL    HW164611   7.657  10.576   3.801
87593SOL    HW264612   7.724  10.684   3.718
87594SOL     OW64613   4.526  14.124   1.090
87594SOL    HW164614   4.517  14.130   0.995
87594SOL    HW264615   4.571  14.041   1.104
87595SOL     OW64616  10.320   1.244  13.029
87595SOL    HW164617  10.382   1.265  12.959
87595SOL    HW264618  10.365   1.273  13.109
87596SOL     OW64619   2.897   1.055  13.313
87596SOL    HW164620   2.839   1.090  13.245
87596SOL    HW264621   2.912   1.129  13.372
87597SOL     OW64622   1.711   5.631   4.192
87597SOL    HW164623   1.631   5.609   4.239
87597SOL    HW264624   1.704   5.586   4.108
87598SOL     OW64625   1.546   7.133   5.030
87598SOL    HW164626   1.589   7.155   5.112
87598SOL    HW264627   1.607   7.074   4.986
87599SOL     OW64628  13.652   9.337   6.335
87599SOL    HW164629  13.612   9.313   6.251
87599SOL    HW264630  13.640   9.431   6.341
87600SOL     OW64631   2.088   5.450  11.543
87600SOL    HW164632   2.058   5.361  11.559
87600SOL    HW264633   2.031   5.505  11.598
87601SOL     OW64634  11.623   6.819   8.650
87601SOL    HW164635  11.611   6.903   8.604
87601SOL    HW264636  11.553   6.817   8.715
87602SOL     OW64637  11.206   3.894   2.589
87602SOL    HW164638  11.184   3.932   2.675
87602SOL    HW264639  11.292   3.855   2.601
87603SOL     OW64640   6.580   8.613   1.920
87603SOL    HW164641   6.647   8.625   1.988
87603SOL    HW264642   6.611   8.538   1.869
87604SOL     OW64643  10.079   6.493   1.937
87604SOL    HW164644  10.027   6.419   1.905
87604SOL    HW264645  10.153   6.498   1.878
87605SOL     OW64646  10.356   2.573   9.432
87605SOL    HW164647  10.395   2.660   9.429
87605SOL    HW264648  10.403   2.528   9.502
87606SOL     OW64649   4.927  10.677   6.771
87606SOL    HW164650   4.964  10.764   6.755
87606SOL    HW264651   4.908  10.677   6.865
87607SOL     OW64652   9.102  12.146   3.238
87607SOL    HW164653   9.078  12.141   3.331
87607SOL    HW264654   9.019  12.159   3.193
87608SOL     OW64655   1.504   7.342  10.203
87608SOL    HW164656   1.594   7.361  10.178
87608SOL    HW264657   1.452   7.408  10.158
87609SOL     OW64658   5.973  10.901  14.422
87609SOL    HW164659   6.043  10.939  14.370
87609SOL    HW264660   5.960  10.962  14.494
87610SOL     OW64661   9.340  10.236  12.109
87610SOL    HW164662   9.351  10.150  12.070
87610SOL    HW264663   9.246  10.241  12.129
87611SOL     OW64664  12.559   5.918   6.052
87611SOL    HW164665  12.470   5.937   6.083
87611SOL    HW264666  12.616   5.956   6.119
87612SOL     OW64667   4.245   4.782   6.749
87612SOL    HW164668   4.297   4.862   6.760
87612SOL    HW264669   4.268   4.728   6.825
87613SOL     OW64670   5.833   2.667   6.464
87613SOL    HW164671   5.821   2.713   6.548
87613SOL    HW264672   5.901   2.717   6.419
87614SOL     OW64673   4.852   1.173  11.585
87614SOL    HW164674   4.868   1.266  11.600
87614SOL    HW264675   4.917   1.129  11.641
87615SOL     OW64676   8.898   4.638  13.850
87615SOL    HW164677   8.907   4.717  13.797
87615SOL    HW264678   8.966   4.579  13.817
87616SOL     OW64679   1.839   7.445   3.570
87616SOL    HW164680   1.927   7.476   3.549
87616SOL    HW264681   1.853   7.375   3.633
87617SOL     OW64682   5.974   7.373   1.568
87617SOL    HW164683   6.042   7.415   1.620
87617SOL    HW264684   5.920   7.446   1.537
87618SOL     OW64685   3.164  12.399  13.127
87618SOL    HW164686   3.138  12.456  13.200
87618SOL    HW264687   3.115  12.318  13.143
87619SOL     OW64688  11.199   1.176   1.744
87619SOL    HW164689  11.244   1.259   1.726
87619SOL    HW264690  11.203   1.128   1.661
87620SOL     OW64691  11.879  12.094   3.994
87620SOL    HW164692  11.962  12.068   3.954
87620SOL    HW264693  11.820  12.108   3.920
87621SOL     OW64694   6.028  10.659   3.373
87621SOL    HW164695   5.969  10.611   3.315
87621SOL    HW264696   6.032  10.747   3.335
87622SOL     OW64697  12.445   0.601  14.867
87622SOL    HW164698  12.371   0.597  14.807
87622SOL    HW264699  12.497   0.523  14.846
87623SOL     OW64700   0.253   3.841  11.855
87623SOL    HW164701   0.249   3.774  11.923
87623SOL    HW264702   0.337   3.826  11.811
87624SOL     OW64703   8.260   6.438  13.974
87624SOL    HW164704   8.254   6.413  13.882
87624SOL    HW264705   8.325   6.509  13.975
87625SOL     OW64706   2.411   4.952   4.109
87625SOL    HW164707   2.462   4.877   4.079
87625SOL    HW264708   2.457   4.983   4.187
87626SOL     OW64709   2.757  11.930  13.301
87626SOL    HW164710   2.845  11.955  13.329
87626SOL    HW264711   2.734  11.857  13.359
87627SOL     OW64712   7.417  14.481  11.313
87627SOL    HW164713   7.434  14.571  11.284
87627SOL    HW264714   7.328  14.462  11.283
87628SOL     OW64715  14.839  14.217   2.860
87628SOL    HW164716  14.836  14.227   2.765
87628SOL    HW264717   0.039  14.157   2.876
87629SOL     OW64718  10.162   1.238   0.074
87629SOL    HW164719  10.233   1.251   0.011
87629SOL    HW264720  10.188   1.160   0.123
87630SOL     OW64721   8.213   8.691  13.570
87630SOL    HW164722   8.222   8.721  13.661
87630SOL    HW264723   8.280   8.739  13.522
87631SOL     OW64724  12.636   9.686   2.781
87631SOL    HW164725  12.638   9.707   2.687
87631SOL    HW264726  12.544   9.674   2.801
87632SOL     OW64727   5.333   8.620   8.860
87632SOL    HW164728   5.276   8.628   8.936
87632SOL    HW264729   5.333   8.707   8.820
87633SOL     OW64730  12.921   1.478   0.796
87633SOL    HW164731  12.970   1.498   0.717
87633SOL    HW264732  12.830   1.472   0.768
87634SOL     OW64733  12.062  14.539   7.074
87634SOL    HW164734  12.054  14.574   6.985
87634SOL    HW264735  11.972  14.529   7.105
87635SOL     OW64736  13.024  13.361  13.818
87635SOL    HW164737  13.080  13.414  13.876
87635SOL    HW264738  12.947  13.416  13.802
87636SOL     OW64739   9.601   2.421   4.912
87636SOL    HW164740   9.604   2.515   4.897
87636SOL    HW264741   9.675   2.386   4.862
87637SOL     OW64742   5.111  13.581   1.894
87637SOL    HW164743   5.066  13.497   1.904
87637SOL    HW264744   5.040  13.646   1.893
87638SOL     OW64745  11.628   3.730   3.447
87638SOL    HW164746  11.596   3.735   3.357
87638SOL    HW264747  11.710   3.779   3.446
87639SOL     OW64748   4.702   5.229  12.976
87639SOL    HW164749   4.652   5.271  12.906
87639SOL    HW264750   4.792   5.226  12.943
87640SOL     OW64751  12.589   4.002   6.751
87640SOL    HW164752  12.602   3.916   6.711
87640SOL    HW264753  12.675   4.025   6.786
87641SOL     OW64754   4.966   1.479   8.088
87641SOL    HW164755   4.879   1.442   8.105
87641SOL    HW264756   4.980   1.540   8.160
87642SOL     OW64757   8.636   7.196   9.550
87642SOL    HW164758   8.663   7.214   9.460
87642SOL    HW264759   8.708   7.228   9.604
87643SOL     OW64760   8.041   9.435   5.707
87643SOL    HW164761   8.006   9.507   5.653
87643SOL    HW264762   8.044   9.470   5.796
87644SOL     OW64763   1.529  13.071   3.378
87644SOL    HW164764   1.449  13.122   3.389
87644SOL    HW264765   1.586  13.127   3.324
87645SOL     OW64766  13.898   4.239  10.081
87645SOL    HW164767  13.978   4.257  10.130
87645SOL    HW264768  13.859   4.164  10.125
87646SOL     OW64769   1.531   0.063   7.045
87646SOL    HW164770   1.443   0.075   7.080
87646SOL    HW264771   1.563  14.857   7.090
87647SOL     OW64772   8.040  11.231   0.968
87647SOL    HW164773   7.979  11.303   0.954
87647SOL    HW264774   7.983  11.154   0.981
87648SOL     OW64775   2.754  14.614   0.311
87648SOL    HW164776   2.664  14.634   0.337
87648SOL    HW264777   2.779  14.687   0.253
87649SOL     OW64778  12.099  11.249   1.967
87649SOL    HW164779  12.159  11.273   2.038
87649SOL    HW264780  12.149  11.260   1.887
87650SOL     OW64781  10.994   2.627  10.337
87650SOL    HW164782  10.981   2.537  10.309
87650SOL    HW264783  11.034   2.671  10.262
87651SOL     OW64784   9.929  14.666   8.721
87651SOL    HW164785   9.846  14.674   8.769
87651SOL    HW264786   9.991  14.635   8.786
87652SOL     OW64787   7.828   8.288   7.618
87652SOL    HW164788   7.896   8.246   7.565
87652SOL    HW264789   7.827   8.239   7.700
87653SOL     OW64790   7.187   5.090  13.702
87653SOL    HW164791   7.110   5.050  13.663
87653SOL    HW264792   7.203   5.039  13.781
87654SOL     OW64793  11.832  13.983  14.820
87654SOL    HW164794  11.855  14.050  14.755
87654SOL    HW264795  11.877  14.009   0.027
87655SOL     OW64796   4.427  13.868   0.197
87655SOL    HW164797   4.361  13.936   0.181
87655SOL    HW264798   4.462  13.889   0.284
87656SOL     OW64799   0.084   4.049  11.582
87656SOL    HW164800   0.073   4.097  11.664
87656SOL    HW264801   0.050   3.962  11.601
87657SOL     OW64802   6.155   8.976   1.759
87657SOL    HW164803   6.194   9.045   1.813
87657SOL    HW264804   6.094   8.931   1.818
87658SOL     OW64805  10.467   9.447   0.901
87658SOL    HW164806  10.487   9.496   0.821
87658SOL    HW264807  10.491   9.506   0.972
87659SOL     OW64808   3.533  10.563  10.597
87659SOL    HW164809   3.590  10.607  10.660
87659SOL    HW264810   3.506  10.482  10.641
87660SOL     OW64811  10.296  11.120   2.364
87660SOL    HW164812  10.226  11.067   2.326
87660SOL    HW264813  10.251  11.181   2.422
87661SOL     OW64814   9.668   5.639  11.006
87661SOL    HW164815   9.722   5.629  10.928
87661SOL    HW264816   9.718   5.697  11.063
87662SOL     OW64817   3.618   7.286  14.209
87662SOL    HW164818   3.673   7.214  14.240
87662SOL    HW264819   3.656   7.364  14.248
87663SOL     OW64820  12.373   2.687   2.439
87663SOL    HW164821  12.466   2.674   2.421
87663SOL    HW264822  12.356   2.638   2.519
87664SOL     OW64823  13.458   5.347   0.771
87664SOL    HW164824  13.474   5.271   0.826
87664SOL    HW264825  13.418   5.311   0.691
87665SOL     OW64826   4.269  10.822  12.600
87665SOL    HW164827   4.351  10.867  12.621
87665SOL    HW264828   4.278  10.736  12.641
87666SOL     OW64829   6.780  11.360   1.922
87666SOL    HW164830   6.816  11.358   1.833
87666SOL    HW264831   6.697  11.406   1.914
87667SOL     OW64832   3.433  11.221   6.465
87667SOL    HW164833   3.346  11.204   6.500
87667SOL    HW264834   3.437  11.316   6.454
87668SOL     OW64835   2.095   3.536   2.421
87668SOL    HW164836   2.067   3.543   2.330
87668SOL    HW264837   2.014   3.541   2.472
87669SOL     OW64838  13.340   1.753   6.358
87669SOL    HW164839  13.273   1.702   6.402
87669SOL    HW264840  13.421   1.735   6.407
87670SOL     OW64841   5.719   7.306  13.865
87670SOL    HW164842   5.635   7.316  13.819
87670SOL    HW264843   5.780   7.360  13.815
87671SOL     OW64844   7.565   0.012   4.033
87671SOL    HW164845   7.558   0.107   4.022
87671SOL    HW264846   7.630  14.857   3.967
87672SOL     OW64847  12.827  12.243   5.972
87672SOL    HW164848  12.804  12.332   6.000
87672SOL    HW264849  12.794  12.187   6.042
87673SOL     OW64850  10.123  13.702   0.088
87673SOL    HW164851  10.068  13.645   0.034
87673SOL    HW264852  10.148  13.647   0.162
87674SOL     OW64853   2.237   8.465   3.945
87674SOL    HW164854   2.256   8.424   3.861
87674SOL    HW264855   2.271   8.404   4.011
87675SOL     OW64856   2.560   1.004  13.579
87675SOL    HW164857   2.515   1.068  13.633
87675SOL    HW264858   2.563   0.925  13.632
87676SOL     OW64859   8.830   7.818  14.047
87676SOL    HW164860   8.862   7.799  13.959
87676SOL    HW264861   8.735   7.824  14.037
87677SOL     OW64862   2.571   4.171   4.600
87677SOL    HW164863   2.526   4.246   4.640
87677SOL    HW264864   2.500   4.115   4.568
87678SOL     OW64865  14.006   3.490  14.609
87678SOL    HW164866  14.091   3.520  14.642
87678SOL    HW264867  14.028   3.443  14.528
87679SOL     OW64868  11.527   5.117   6.673
87679SOL    HW164869  11.537   5.022   6.666
87679SOL    HW264870  11.451   5.129   6.730
87680SOL     OW64871   3.933   6.648   5.737
87680SOL    HW164872   3.847   6.607   5.747
87680SOL    HW264873   3.975   6.598   5.667
87681SOL     OW64874   6.500  10.033   8.216
87681SOL    HW164875   6.590  10.005   8.202
87681SOL    HW264876   6.468  10.055   8.129
87682SOL     OW64877   6.323   5.831   1.267
87682SOL    HW164878   6.280   5.745   1.272
87682SOL    HW264879   6.382   5.825   1.192
87683SOL     OW64880   8.876   6.190  10.250
87683SOL    HW164881   8.970   6.190  10.231
87683SOL    HW264882   8.871   6.172  10.343
87684SOL     OW64883   8.133  12.576  12.724
87684SOL    HW164884   8.156  12.628  12.801
87684SOL    HW264885   8.172  12.624  12.651
87685SOL     OW64886  13.168  11.991   4.206
87685SOL    HW164887  13.248  11.963   4.250
87685SOL    HW264888  13.177  11.958   4.116
87686SOL     OW64889  12.715   3.193  13.931
87686SOL    HW164890  12.634   3.242  13.923
87686SOL    HW264891  12.713   3.157  14.020
87687SOL     OW64892   7.881   0.958  13.731
87687SOL    HW164893   7.861   1.050  13.713
87687SOL    HW264894   7.795   0.916  13.738
87688SOL     OW64895  13.921   1.349  14.339
87688SOL    HW164896  13.852   1.407  14.308
87688SOL    HW264897  13.893   1.261  14.314
87689SOL     OW64898   2.915   3.328   8.616
87689SOL    HW164899   2.870   3.375   8.686
87689SOL    HW264900   2.854   3.261   8.588
87690SOL     OW64901  11.871  11.698   3.770
87690SOL    HW164902  11.905  11.609   3.782
87690SOL    HW264903  11.926  11.753   3.825
87691SOL     OW64904   6.175   0.527   3.250
87691SOL    HW164905   6.195   0.601   3.193
87691SOL    HW264906   6.187   0.562   3.339
87692SOL     OW64907   0.641  12.635  11.857
87692SOL    HW164908   0.564  12.578  11.856
87692SOL    HW264909   0.645  12.668  11.946
87693SOL     OW64910   7.963   1.814   5.881
87693SOL    HW164911   7.914   1.831   5.801
87693SOL    HW264912   7.896   1.792   5.946
87694SOL     OW64913   4.306   1.137  12.058
87694SOL    HW164914   4.308   1.230  12.083
87694SOL    HW264915   4.373   1.129  11.991
87695SOL     OW64916   7.913   3.384  12.463
87695SOL    HW164917   7.866   3.450  12.512
87695SOL    HW264918   7.846   3.338  12.413
87696SOL     OW64919   4.609  12.932   4.660
87696SOL    HW164920   4.556  12.998   4.616
87696SOL    HW264921   4.553  12.854   4.663
87697SOL     OW64922   1.117   9.241  14.461
87697SOL    HW164923   1.108   9.200  14.375
87697SOL    HW264924   1.094   9.333  14.447
87698SOL     OW64925  10.439  11.927   4.617
87698SOL    HW164926  10.405  11.970   4.695
87698SOL    HW264927  10.387  11.847   4.609
87699SOL     OW64928  12.747  11.272   1.101
87699SOL    HW164929  12.812  11.322   1.051
87699SOL    HW264930  12.716  11.206   1.039
87700SOL     OW64931   0.309   5.118  14.670
87700SOL    HW164932   0.218   5.093  14.682
87700SOL    HW264933   0.357   5.064  14.733
87701SOL     OW64934  12.624  10.456   4.544
87701SOL    HW164935  12.535  10.490   4.546
87701SOL    HW264936  12.676  10.527   4.507
87702SOL     OW64937   2.042  11.403  12.433
87702SOL    HW164938   2.052  11.325  12.379
87702SOL    HW264939   2.082  11.473  12.383
87703SOL     OW64940   7.175  13.533   8.530
87703SOL    HW164941   7.152  13.444   8.556
87703SOL    HW264942   7.264  13.526   8.496
87704SOL     OW64943   3.234   0.388  14.307
87704SOL    HW164944   3.253   0.309  14.256
87704SOL    HW264945   3.180   0.357  14.380
87705SOL     OW64946  12.567   3.686   5.023
87705SOL    HW164947  12.590   3.598   5.053
87705SOL    HW264948  12.506   3.671   4.951
87706SOL     OW64949  12.424   2.691   8.334
87706SOL    HW164950  12.386   2.675   8.247
87706SOL    HW264951  12.421   2.786   8.344
87707SOL     OW64952   9.781  10.283  12.074
87707SOL    HW164953   9.749  10.373  12.081
87707SOL    HW264954   9.741  10.250  11.993
87708SOL     OW64955  11.720   1.674   9.841
87708SOL    HW164956  11.628   1.659   9.819
87708SOL    HW264957  11.755   1.719   9.764
87709SOL     OW64958   6.114  13.681  10.523
87709SOL    HW164959   6.198  13.639  10.504
87709SOL    HW264960   6.082  13.710  10.437
87710SOL     OW64961   2.711   5.524   7.952
87710SOL    HW164962   2.763   5.604   7.954
87710SOL    HW264963   2.691   5.510   7.860
87711SOL     OW64964   5.005  12.615   2.822
87711SOL    HW164965   5.037  12.524   2.821
87711SOL    HW264966   4.953  12.621   2.901
87712SOL     OW64967   8.226   3.853   8.765
87712SOL    HW164968   8.209   3.880   8.674
87712SOL    HW264969   8.141   3.861   8.808
87713SOL     OW64970   3.539  13.165   4.945
87713SOL    HW164971   3.632  13.166   4.968
87713SOL    HW264972   3.532  13.226   4.872
87714SOL     OW64973   3.420   5.435   3.769
87714SOL    HW164974   3.448   5.516   3.727
87714SOL    HW264975   3.325   5.438   3.765
87715SOL     OW64976  11.023   0.937   8.320
87715SOL    HW164977  11.012   0.899   8.407
87715SOL    HW264978  11.117   0.934   8.303
87716SOL     OW64979   1.583  12.204   9.802
87716SOL    HW164980   1.663  12.258   9.801
87716SOL    HW264981   1.540  12.228   9.885
87717SOL     OW64982  11.620  13.750   9.723
87717SOL    HW164983  11.654  13.753   9.812
87717SOL    HW264984  11.698  13.751   9.668
87718SOL     OW64985  14.729   4.859  14.741
87718SOL    HW164986  14.648   4.854  14.791
87718SOL    HW264987  14.732   4.776  14.692
87719SOL     OW64988  13.461   7.219  10.066
87719SOL    HW164989  13.412   7.289  10.023
87719SOL    HW264990  13.499   7.260  10.144
87720SOL     OW64991   0.963   8.798   1.747
87720SOL    HW164992   0.959   8.842   1.662
87720SOL    HW264993   1.031   8.847   1.795
87721SOL     OW64994   6.503   2.369   0.612
87721SOL    HW164995   6.553   2.368   0.694
87721SOL    HW264996   6.538   2.295   0.562
87722SOL     OW64997  12.332  14.517   5.146
87722SOL    HW164998  12.327  14.469   5.064
87722SOL    HW264999  12.304  14.454   5.212
87723SOL     OW65000   2.516  14.357  11.547
87723SOL    HW165001   2.477  14.438  11.514
87723SOL    HW265002   2.597  14.384  11.589
87724SOL     OW65003  12.220   1.196   3.172
87724SOL    HW165004  12.313   1.195   3.194
87724SOL    HW265005  12.179   1.136   3.234
87725SOL     OW65006   2.672   8.095  12.639
87725SOL    HW165007   2.606   8.150  12.597
87725SOL    HW265008   2.753   8.146  12.636
87726SOL     OW65009  10.332   4.868  13.634
87726SOL    HW165010  10.412   4.919  13.648
87726SOL    HW265011  10.268   4.932  13.603
87727SOL     OW65012   9.093   3.801   2.789
87727SOL    HW165013   9.172   3.803   2.843
87727SOL    HW265014   9.042   3.727   2.823
87728SOL     OW65015   8.030   4.418   6.431
87728SOL    HW165016   8.018   4.419   6.526
87728SOL    HW265017   7.942   4.408   6.396
87729SOL     OW65018   7.385   5.418   5.992
87729SOL    HW165019   7.294   5.424   5.964
87729SOL    HW265020   7.428   5.367   5.924
87730SOL     OW65021  10.127   9.495   9.203
87730SOL    HW165022  10.087   9.570   9.160
87730SOL    HW265023  10.059   9.428   9.204
87731SOL     OW65024   3.116   9.744  14.563
87731SOL    HW165025   3.063   9.778  14.635
87731SOL    HW265026   3.173   9.816  14.538
87732SOL     OW65027   6.702  13.844   1.534
87732SOL    HW165028   6.641  13.789   1.486
87732SOL    HW265029   6.676  13.934   1.512
87733SOL     OW65030   1.860   0.722   6.031
87733SOL    HW165031   1.845   0.784   6.102
87733SOL    HW265032   1.864   0.775   5.952
87734SOL     OW65033   3.833  13.561   8.324
87734SOL    HW165034   3.867  13.650   8.317
87734SOL    HW265035   3.911  13.506   8.337
87735SOL     OW65036  13.002   3.236   9.437
87735SOL    HW165037  12.911   3.262   9.419
87735SOL    HW265038  13.002   3.211   9.529
87736SOL     OW65039   2.884  11.654   4.857
87736SOL    HW165040   2.979  11.662   4.865
87736SOL    HW265041   2.871  11.568   4.819
87737SOL     OW65042  13.479   9.771   5.972
87737SOL    HW165043  13.461   9.783   6.065
87737SOL    HW265044  13.572   9.787   5.963
87738SOL     OW65045  10.441  10.482  11.090
87738SOL    HW165046  10.419  10.412  11.029
87738SOL    HW265047  10.406  10.561  11.049
87739SOL     OW65048   5.676   5.035  14.043
87739SOL    HW165049   5.766   5.002  14.040
87739SOL    HW265050   5.632   4.992  13.970
87740SOL     OW65051  12.804  13.609  13.040
87740SOL    HW165052  12.743  13.604  12.967
87740SOL    HW265053  12.853  13.690  13.025
87741SOL     OW65054   8.871   3.660   0.214
87741SOL    HW165055   8.929   3.605   0.162
87741SOL    HW265056   8.869   3.619   0.300
87742SOL     OW65057  14.804  10.501   9.432
87742SOL    HW165058  14.738  10.515   9.364
87742SOL    HW265059  14.866  10.573   9.420
87743SOL     OW65060   8.692   0.513   4.977
87743SOL    HW165061   8.784   0.488   4.978
87743SOL    HW265062   8.653   0.466   5.051
87744SOL     OW65063   8.060   4.932   4.141
87744SOL    HW165064   7.990   4.985   4.104
87744SOL    HW265065   8.015   4.855   4.178
87745SOL     OW65066  12.436   6.600  13.060
87745SOL    HW165067  12.510   6.655  13.033
87745SOL    HW265068  12.367   6.620  12.997
87746SOL     OW65069  11.441   8.622  14.192
87746SOL    HW165070  11.368   8.667  14.234
87746SOL    HW265071  11.513   8.627  14.255
87747SOL     OW65072   7.345  11.731   3.163
87747SOL    HW165073   7.270  11.787   3.144
87747SOL    HW265074   7.422  11.785   3.141
87748SOL     OW65075   2.319  10.899   0.670
87748SOL    HW165076   2.321  10.900   0.765
87748SOL    HW265077   2.237  10.943   0.647
87749SOL     OW65078   3.549   7.434   5.119
87749SOL    HW165079   3.588   7.461   5.203
87749SOL    HW265080   3.523   7.343   5.133
87750SOL     OW65081  10.277   0.036   1.439
87750SOL    HW165082  10.185   0.045   1.412
87750SOL    HW265083  10.277   0.060   1.531
87751SOL     OW65084  12.249  14.121  13.615
87751SOL    HW165085  12.342  14.142  13.619
87751SOL    HW265086  12.244  14.031  13.648
87752SOL     OW65087  11.262   1.494  13.112
87752SOL    HW165088  11.206   1.440  13.056
87752SOL    HW265089  11.315   1.432  13.161
87753SOL     OW65090   3.410   2.009   0.679
87753SOL    HW165091   3.335   1.950   0.686
87753SOL    HW265092   3.445   1.991   0.592
87754SOL     OW65093  12.728   7.039  10.407
87754SOL    HW165094  12.795   6.980  10.372
87754SOL    HW265095  12.745   7.040  10.502
87755SOL     OW65096   7.867   1.156   2.547
87755SOL    HW165097   7.845   1.125   2.635
87755SOL    HW265098   7.925   1.090   2.511
87756SOL     OW65099  12.874  11.364   9.558
87756SOL    HW165100  12.912  11.420   9.626
87756SOL    HW265101  12.782  11.387   9.557
87757SOL     OW65102   5.672   4.172   7.474
87757SOL    HW165103   5.647   4.162   7.382
87757SOL    HW265104   5.637   4.093   7.517
87758SOL     OW65105   7.518   4.970   9.011
87758SOL    HW165106   7.565   4.895   9.049
87758SOL    HW265107   7.562   5.047   9.048
87759SOL     OW65108  11.135  10.183   2.516
87759SOL    HW165109  11.134  10.264   2.464
87759SOL    HW265110  11.172  10.117   2.458
87760SOL     OW65111  14.218  10.862   2.552
87760SOL    HW165112  14.146  10.908   2.596
87760SOL    HW265113  14.297  10.907   2.581
87761SOL     OW65114  12.512  14.845   3.064
87761SOL    HW165115  12.439  14.802   3.109
87761SOL    HW265116  12.521   0.057   3.108
87762SOL     OW65117   9.980  10.404   4.265
87762SOL    HW165118   9.922  10.347   4.215
87762SOL    HW265119   9.925  10.436   4.337
87763SOL     OW65120   0.388  13.383   5.457
87763SOL    HW165121   0.378  13.307   5.399
87763SOL    HW265122   0.305  13.429   5.451
87764SOL     OW65123  11.096  13.110   1.955
87764SOL    HW165124  11.083  13.021   1.920
87764SOL    HW265125  11.090  13.099   2.050
87765SOL     OW65126   6.364   7.824   1.669
87765SOL    HW165127   6.341   7.839   1.577
87765SOL    HW265128   6.382   7.911   1.704
87766SOL     OW65129  14.727  10.510  14.232
87766SOL    HW165130  14.656  10.572  14.215
87766SOL    HW265131  14.684  10.432  14.266
87767SOL     OW65132   6.531  11.090   3.904
87767SOL    HW165133   6.469  11.135   3.960
87767SOL    HW265134   6.598  11.156   3.884
87768SOL     OW65135   2.215  12.397  11.644
87768SOL    HW165136   2.253  12.481  11.672
87768SOL    HW265137   2.291  12.340  11.629
87769SOL     OW65138   8.238   9.268   5.564
87769SOL    HW165139   8.178   9.339   5.587
87769SOL    HW265140   8.187   9.212   5.506
87770SOL     OW65141  12.484   3.821  10.332
87770SOL    HW165142  12.539   3.840  10.256
87770SOL    HW265143  12.438   3.740  10.309
87771SOL     OW65144   0.569  12.889   0.604
87771SOL    HW165145   0.474  12.901   0.610
87771SOL    HW265146   0.596  12.948   0.534
87772SOL     OW65147   5.020   3.165   5.019
87772SOL    HW165148   4.991   3.074   5.030
87772SOL    HW265149   5.115   3.160   5.018
87773SOL     OW65150   7.520  13.922  12.306
87773SOL    HW165151   7.450  13.970  12.349
87773SOL    HW265152   7.575  13.989  12.265
87774SOL     OW65153  14.823  11.096   3.765
87774SOL    HW165154  14.755  11.162   3.756
87774SOL    HW265155  14.778  11.020   3.802
87775SOL     OW65156  14.544  13.948  11.825
87775SOL    HW165157  14.475  13.912  11.769
87775SOL    HW265158  14.498  13.975  11.905
87776SOL     OW65159  11.144  10.236   8.769
87776SOL    HW165160  11.177  10.203   8.685
87776SOL    HW265161  11.106  10.159   8.812
87777SOL     OW65162   5.320  13.498   3.366
87777SOL    HW165163   5.403  13.545   3.356
87777SOL    HW265164   5.253  13.567   3.362
87778SOL     OW65165  13.468   0.061   2.286
87778SOL    HW165166  13.470  14.848   2.330
87778SOL    HW265167  13.550   0.064   2.236
87779SOL     OW65168  12.567  11.440   1.929
87779SOL    HW165169  12.623  11.517   1.926
87779SOL    HW265170  12.572  11.404   1.840
87780SOL     OW65171   9.176  10.567   3.878
87780SOL    HW165172   9.222  10.647   3.855
87780SOL    HW265173   9.121  10.592   3.953
87781SOL     OW65174   9.527  14.315   8.994
87781SOL    HW165175   9.523  14.391   8.937
87781SOL    HW265176   9.581  14.252   8.948
87782SOL     OW65177   3.367   3.953   5.765
87782SOL    HW165178   3.395   3.918   5.680
87782SOL    HW265179   3.445   3.946   5.820
87783SOL     OW65180   5.132   1.913   0.604
87783SOL    HW165181   5.041   1.931   0.629
87783SOL    HW265182   5.183   1.940   0.680
87784SOL     OW65183   5.486   8.256   2.144
87784SOL    HW165184   5.494   8.165   2.118
87784SOL    HW265185   5.410   8.289   2.096
87785SOL     OW65186   6.068   6.226   5.720
87785SOL    HW165187   6.158   6.223   5.754
87785SOL    HW265188   6.079   6.226   5.625
87786SOL     OW65189   5.619  12.738  11.125
87786SOL    HW165190   5.647  12.818  11.080
87786SOL    HW265191   5.524  12.745  11.128
87787SOL     OW65192   4.306   6.101   9.105
87787SOL    HW165193   4.330   6.027   9.050
87787SOL    HW265194   4.220   6.079   9.140
87788SOL     OW65195  13.497   4.876   7.455
87788SOL    HW165196  13.559   4.946   7.476
87788SOL    HW265197  13.540   4.796   7.485
87789SOL     OW65198   6.433  11.026   3.644
87789SOL    HW165199   6.496  11.074   3.591
87789SOL    HW265200   6.468  11.030   3.733
87790SOL     OW65201   9.090  14.126   8.425
87790SOL    HW165202   9.021  14.124   8.359
87790SOL    HW265203   9.075  14.048   8.478
87791SOL     OW65204   3.393   8.963   2.268
87791SOL    HW165205   3.419   8.879   2.231
87791SOL    HW265206   3.415   9.027   2.201
87792SOL     OW65207  14.580   1.348   3.417
87792SOL    HW165208  14.486   1.339   3.405
87792SOL    HW265209  14.607   1.413   3.351
87793SOL     OW65210   4.647   5.563  12.159
87793SOL    HW165211   4.675   5.533  12.072
87793SOL    HW265212   4.552   5.567  12.153
87794SOL     OW65213   9.378  13.501   7.922
87794SOL    HW165214   9.466  13.514   7.888
87794SOL    HW265215   9.351  13.586   7.955
87795SOL     OW65216   4.132  14.580  13.770
87795SOL    HW165217   4.183  14.506  13.804
87795SOL    HW265218   4.063  14.594  13.836
87796SOL     OW65219  13.342  13.752  13.845
87796SOL    HW165220  13.432  13.783  13.851
87796SOL    HW265221  13.349  13.657  13.839
87797SOL     OW65222  10.872  12.643   1.490
87797SOL    HW165223  10.935  12.715   1.493
87797SOL    HW265224  10.808  12.664   1.557
87798SOL     OW65225  14.228   9.352  14.604
87798SOL    HW165226  14.151   9.355  14.660
87798SOL    HW265227  14.297   9.315  14.660
87799SOL     OW65228   4.847  10.546   1.210
87799SOL    HW165229   4.829  10.533   1.117
87799SOL    HW265230   4.936  10.581   1.212
87800SOL     OW65231   5.105   5.231   3.462
87800SOL    HW165232   5.085   5.138   3.465
87800SOL    HW265233   5.083   5.264   3.549
87801SOL     OW65234   8.750  12.903  10.395
87801SOL    HW165235   8.812  12.971  10.425
87801SOL    HW265236   8.744  12.843  10.469
87802SOL     OW65237  14.538   6.490  12.881
87802SOL    HW165238  14.515   6.519  12.792
87802SOL    HW265239  14.569   6.570  12.925
87803SOL     OW65240  14.799   1.129   6.236
87803SOL    HW165241  14.718   1.139   6.186
87803SOL    HW265242  14.770   1.106   6.324
87804SOL     OW65243  14.739   2.939   1.862
87804SOL    HW165244  14.779   3.025   1.871
87804SOL    HW265245  14.762   2.910   1.774
87805SOL     OW65246  12.619  10.320   5.494
87805SOL    HW165247  12.659  10.376   5.560
87805SOL    HW265248  12.590  10.242   5.542
87806SOL     OW65249   7.327   5.907  11.327
87806SOL    HW165250   7.235   5.884  11.321
87806SOL    HW265251   7.365   5.836  11.380
87807SOL     OW65252   6.432   0.840  11.224
87807SOL    HW165253   6.413   0.818  11.133
87807SOL    HW265254   6.392   0.770  11.276
87808SOL     OW65255  14.238  10.929   8.449
87808SOL    HW165256  14.156  10.883   8.465
87808SOL    HW265257  14.281  10.933   8.534
87809SOL     OW65258   2.901  11.323  12.047
87809SOL    HW165259   2.970  11.333  11.982
87809SOL    HW265260   2.921  11.389  12.114
87810SOL     OW65261   6.195  13.336   1.023
87810SOL    HW165262   6.234  13.422   1.008
87810SOL    HW265263   6.115  13.336   0.970
87811SOL     OW65264   9.026   7.667   7.024
87811SOL    HW165265   8.982   7.653   6.940
87811SOL    HW265266   9.093   7.733   7.005
87812SOL     OW65267   7.297   9.126   1.316
87812SOL    HW165268   7.277   9.148   1.408
87812SOL    HW265269   7.262   9.200   1.266
87813SOL     OW65270  12.796  10.545   0.635
87813SOL    HW165271  12.757  10.557   0.721
87813SOL    HW265272  12.820  10.633   0.607
87814SOL     OW65273  14.471  10.284  11.247
87814SOL    HW165274  14.513  10.369  11.238
87814SOL    HW265275  14.532  10.222  11.206
87815SOL     OW65276   2.918   0.166  11.615
87815SOL    HW165277   2.863   0.150  11.691
87815SOL    HW265278   2.962   0.249  11.634
87816SOL     OW65279   4.063  11.195  10.019
87816SOL    HW165280   4.035  11.227  10.105
87816SOL    HW265281   4.146  11.238  10.003
87817SOL     OW65282  10.153   3.409   0.362
87817SOL    HW165283  10.146   3.419   0.457
87817SOL    HW265284  10.236   3.364   0.348
87818SOL     OW65285  10.431   0.044  10.105
87818SOL    HW165286  10.398  14.826  10.112
87818SOL    HW265287  10.513   0.035  10.055
87819SOL     OW65288   4.546   2.835   0.525
87819SOL    HW165289   4.603   2.793   0.590
87819SOL    HW265290   4.596   2.830   0.443
87820SOL     OW65291  10.229   0.214   2.451
87820SOL    HW165292  10.298   0.236   2.513
87820SOL    HW265293  10.275   0.187   2.372
87821SOL     OW65294  10.124   2.079  14.864
87821SOL    HW165295  10.215   2.104   0.011
87821SOL    HW265296  10.079   2.088   0.076
87822SOL     OW65297   6.208   6.087   9.115
87822SOL    HW165298   6.170   6.107   9.029
87822SOL    HW265299   6.132   6.066   9.170
87823SOL     OW65300   3.621   1.152   7.490
87823SOL    HW165301   3.565   1.151   7.412
87823SOL    HW265302   3.561   1.133   7.562
87824SOL     OW65303   7.964   0.426   3.729
87824SOL    HW165304   7.985   0.475   3.650
87824SOL    HW265305   7.920   0.347   3.697
87825SOL     OW65306  13.338   7.853   3.758
87825SOL    HW165307  13.370   7.805   3.682
87825SOL    HW265308  13.246   7.825   3.767
87826SOL     OW65309   8.041   0.971   3.763
87826SOL    HW165310   8.104   1.028   3.808
87826SOL    HW265311   7.969   1.030   3.739
87827SOL     OW65312   3.606   7.485   7.823
87827SOL    HW165313   3.597   7.439   7.907
87827SOL    HW265314   3.517   7.511   7.801
87828SOL     OW65315   4.601   8.704   0.243
87828SOL    HW165316   4.625   8.765   0.313
87828SOL    HW265317   4.534   8.648   0.281
87829SOL     OW65318   3.888  11.375   5.163
87829SOL    HW165319   3.880  11.341   5.253
87829SOL    HW265320   3.888  11.297   5.108
87830SOL     OW65321  11.410   6.032  12.805
87830SOL    HW165322  11.342   6.057  12.868
87830SOL    HW265323  11.471   5.978  12.856
87831SOL     OW65324   8.467   3.312   5.542
87831SOL    HW165325   8.521   3.276   5.472
87831SOL    HW265326   8.531   3.344   5.607
87832SOL     OW65327  11.918   2.018   4.972
87832SOL    HW165328  11.888   2.022   5.063
87832SOL    HW265329  11.980   1.945   4.970
87833SOL     OW65330   9.683  14.073   7.267
87833SOL    HW165331   9.733  14.046   7.343
87833SOL    HW265332   9.599  14.027   7.275
87834SOL     OW65333  12.289   2.404   7.221
87834SOL    HW165334  12.199   2.421   7.196
87834SOL    HW265335  12.292   2.421   7.315
87835SOL     OW65336   3.628   7.254   5.390
87835SOL    HW165337   3.649   7.319   5.458
87835SOL    HW265338   3.650   7.170   5.430
87836SOL     OW65339   8.868  12.317   8.196
87836SOL    HW165340   8.817  12.382   8.148
87836SOL    HW265341   8.878  12.353   8.284
87837SOL     OW65342   1.589  13.020   0.546
87837SOL    HW165343   1.598  13.115   0.540
87837SOL    HW265344   1.533  13.007   0.623
87838SOL     OW65345   5.079   6.973   6.919
87838SOL    HW165346   5.098   7.058   6.960
87838SOL    HW265347   4.985   6.962   6.931
87839SOL     OW65348   8.835   8.500   6.020
87839SOL    HW165349   8.930   8.505   6.012
87839SOL    HW265350   8.802   8.528   5.935
87840SOL     OW65351   0.514   6.767   5.162
87840SOL    HW165352   0.525   6.678   5.129
87840SOL    HW265353   0.577   6.819   5.112
87841SOL     OW65354   6.239   9.245   1.903
87841SOL    HW165355   6.283   9.269   1.822
87841SOL    HW265356   6.185   9.320   1.925
87842SOL     OW65357  11.491  10.145  13.117
87842SOL    HW165358  11.417  10.207  13.116
87842SOL    HW265359  11.520  10.141  13.026
87843SOL     OW65360   9.602   8.503  13.776
87843SOL    HW165361   9.640   8.588  13.796
87843SOL    HW265362   9.658   8.440  13.821
87844SOL     OW65363   6.883  13.029   0.594
87844SOL    HW165364   6.809  13.044   0.653
87844SOL    HW265365   6.958  13.069   0.637
87845SOL     OW65366   7.996  10.163  12.813
87845SOL    HW165367   8.022  10.254  12.825
87845SOL    HW265368   8.047  10.114  12.878
87846SOL     OW65369   6.931  10.003  10.674
87846SOL    HW165370   7.011  10.054  10.688
87846SOL    HW265371   6.861  10.056  10.713
87847SOL     OW65372  14.692  11.865  11.497
87847SOL    HW165373  14.677  11.888  11.406
87847SOL    HW265374  14.630  11.794  11.515
87848SOL     OW65375   5.567  14.207   8.107
87848SOL    HW165376   5.598  14.132   8.057
87848SOL    HW265377   5.547  14.171   8.194
87849SOL     OW65378   4.271  13.514   7.890
87849SOL    HW165379   4.309  13.464   7.962
87849SOL    HW265380   4.226  13.448   7.837
87850SOL     OW65381  12.928   3.644   3.842
87850SOL    HW165382  12.932   3.582   3.770
87850SOL    HW265383  12.964   3.596   3.917
87851SOL     OW65384   8.245  13.189   0.826
87851SOL    HW165385   8.335  13.156   0.820
87851SOL    HW265386   8.252  13.268   0.880
87852SOL     OW65387  12.575   8.202   6.309
87852SOL    HW165388  12.506   8.135   6.301
87852SOL    HW265389  12.652   8.160   6.272
87853SOL     OW65390   7.157   7.100   0.165
87853SOL    HW165391   7.152   7.165   0.095
87853SOL    HW265392   7.081   7.043   0.151
87854SOL     OW65393  11.495   2.199   0.121
87854SOL    HW165394  11.515   2.106   0.128
87854SOL    HW265395  11.537   2.227   0.040
87855SOL     OW65396   0.041   0.238   3.743
87855SOL    HW165397   0.111   0.192   3.697
87855SOL    HW265398   0.069   0.329   3.744
87856SOL     OW65399   1.278   1.850   2.762
87856SOL    HW165400   1.311   1.915   2.824
87856SOL    HW265401   1.253   1.775   2.816
87857SOL     OW65402   3.722  14.701  12.506
87857SOL    HW165403   3.678  14.723  12.588
87857SOL    HW265404   3.774  14.779  12.485
87858SOL     OW65405  12.333  14.809  14.836
87858SOL    HW165406  12.422  14.844  14.848
87858SOL    HW265407  12.334  14.771  14.748
87859SOL     OW65408  13.705  13.627   9.892
87859SOL    HW165409  13.673  13.597   9.807
87859SOL    HW265410  13.799  13.611   9.890
87860SOL     OW65411  11.122   7.449   5.289
87860SOL    HW165412  11.209   7.484   5.312
87860SOL    HW265413  11.123   7.443   5.193
87861SOL     OW65414  11.844  14.250  10.556
87861SOL    HW165415  11.879  14.332  10.592
87861SOL    HW265416  11.893  14.181  10.602
87862SOL     OW65417   3.911  12.309  12.423
87862SOL    HW165418   3.849  12.239  12.439
87862SOL    HW265419   3.889  12.376  12.488
87863SOL     OW65420   1.456   7.053   8.597
87863SOL    HW165421   1.524   7.055   8.531
87863SOL    HW265422   1.374   7.063   8.548
87864SOL     OW65423   6.168   2.859  11.579
87864SOL    HW165424   6.113   2.861  11.501
87864SOL    HW265425   6.109   2.883  11.651
87865SOL     OW65426   9.485  14.400   6.463
87865SOL    HW165427   9.518  14.311   6.474
87865SOL    HW265428   9.393  14.394   6.488
87866SOL     OW65429   6.193   5.813   8.602
87866SOL    HW165430   6.116   5.755   8.600
87866SOL    HW265431   6.253   5.770   8.662
87867SOL     OW65432  10.737   5.419  12.342
87867SOL    HW165433  10.799   5.415  12.415
87867SOL    HW265434  10.704   5.330  12.333
87868SOL     OW65435   8.934   7.051  12.279
87868SOL    HW165436   8.932   6.960  12.250
87868SOL    HW265437   8.904   7.101  12.203
87869SOL     OW65438   4.365   4.912   0.419
87869SOL    HW165439   4.339   4.946   0.333
87869SOL    HW265440   4.451   4.950   0.435
87870SOL     OW65441   5.299   2.045   6.612
87870SOL    HW165442   5.235   2.117   6.616
87870SOL    HW265443   5.264   1.985   6.546
87871SOL     OW65444   6.114   9.626   4.760
87871SOL    HW165445   6.157   9.540   4.754
87871SOL    HW265446   6.053   9.627   4.686
87872SOL     OW65447   3.925   7.858  13.033
87872SOL    HW165448   3.983   7.931  13.056
87872SOL    HW265449   3.979   7.799  12.982
87873SOL     OW65450   6.670   5.318  10.976
87873SOL    HW165451   6.649   5.370  10.899
87873SOL    HW265452   6.721   5.245  10.942
87874SOL     OW65453   7.723   4.510   4.481
87874SOL    HW165454   7.802   4.494   4.533
87874SOL    HW265455   7.721   4.438   4.418
87875SOL     OW65456   6.443  14.678   0.271
87875SOL    HW165457   6.381  14.744   0.303
87875SOL    HW265458   6.496  14.657   0.347
87876SOL     OW65459  11.478   0.682  14.063
87876SOL    HW165460  11.475   0.664  13.969
87876SOL    HW265461  11.553   0.740  14.074
87877SOL     OW65462   8.670   0.109  10.771
87877SOL    HW165463   8.641   0.035  10.718
87877SOL    HW265464   8.597   0.125  10.831
87878SOL     OW65465   8.171   5.720   0.471
87878SOL    HW165466   8.217   5.637   0.474
87878SOL    HW265467   8.192   5.762   0.554
87879SOL     OW65468   1.503  14.853   1.246
87879SOL    HW165469   1.539   0.016   1.165
87879SOL    HW265470   1.453  14.776   1.219
87880SOL     OW65471   4.597  12.978   9.554
87880SOL    HW165472   4.535  12.906   9.547
87880SOL    HW265473   4.573  13.022   9.636
87881SOL     OW65474  11.748   8.879  11.859
87881SOL    HW165475  11.711   8.836  11.936
87881SOL    HW265476  11.841   8.857  11.862
87882SOL     OW65477   9.492  13.673  13.339
87882SOL    HW165478   9.509  13.717  13.422
87882SOL    HW265479   9.461  13.586  13.365
87883SOL     OW65480   4.849   7.287  13.146
87883SOL    HW165481   4.926   7.274  13.091
87883SOL    HW265482   4.855   7.219  13.213
87884SOL     OW65483   1.740   2.423  14.793
87884SOL    HW165484   1.681   2.495  14.771
87884SOL    HW265485   1.714   2.396   0.009
87885SOL     OW65486  13.129  14.862   3.440
87885SOL    HW165487  13.130  14.826   3.351
87885SOL    HW265488  13.074   0.067   3.435
87886SOL     OW65489   1.246   8.004   9.097
87886SOL    HW165490   1.166   8.053   9.119
87886SOL    HW265491   1.215   7.933   9.040
87887SOL     OW65492   6.138   2.932   3.444
87887SOL    HW165493   6.203   2.930   3.515
87887SOL    HW265494   6.092   2.848   3.451
87888SOL     OW65495   3.104   6.058   3.339
87888SOL    HW165496   3.011   6.053   3.358
87888SOL    HW265497   3.109   6.108   3.257
87889SOL     OW65498  10.202   8.364  14.394
87889SOL    HW165499  10.236   8.296  14.452
87889SOL    HW265500  10.174   8.317  14.315
87890SOL     OW65501   5.556   1.886  11.080
87890SOL    HW165502   5.570   1.830  11.156
87890SOL    HW265503   5.543   1.825  11.008
87891SOL     OW65504   2.863  14.845   2.145
87891SOL    HW165505   2.878  14.817   2.236
87891SOL    HW265506   2.770  14.866   2.141
87892SOL     OW65507   6.183   8.080   8.865
87892SOL    HW165508   6.277   8.066   8.853
87892SOL    HW265509   6.141   8.020   8.803
87893SOL     OW65510   0.962   4.006   2.988
87893SOL    HW165511   0.912   3.949   2.929
87893SOL    HW265512   0.905   4.081   3.002
87894SOL     OW65513  12.951   5.172   5.190
87894SOL    HW165514  12.902   5.184   5.108
87894SOL    HW265515  13.003   5.093   5.175
87895SOL     OW65516   6.630   8.170  11.452
87895SOL    HW165517   6.648   8.085  11.412
87895SOL    HW265518   6.654   8.233  11.384
87896SOL     OW65519  11.753   2.949  12.847
87896SOL    HW165520  11.771   2.986  12.761
87896SOL    HW265521  11.770   3.020  12.908
87897SOL     OW65522  13.937  13.813   7.517
87897SOL    HW165523  13.899  13.899   7.538
87897SOL    HW265524  13.932  13.764   7.599
87898SOL     OW65525   4.972  14.488   5.211
87898SOL    HW165526   5.013  14.443   5.285
87898SOL    HW265527   4.913  14.552   5.252
87899SOL     OW65528  13.981   3.787   7.763
87899SOL    HW165529  13.940   3.703   7.743
87899SOL    HW265530  13.964   3.799   7.857
87900SOL     OW65531   2.414  13.989   8.355
87900SOL    HW165532   2.334  13.957   8.314
87900SOL    HW265533   2.484  13.944   8.308
87901SOL     OW65534   9.250  12.037   6.770
87901SOL    HW165535   9.288  11.999   6.691
87901SOL    HW265536   9.206  11.965   6.813
87902SOL     OW65537   9.395   2.820   9.168
87902SOL    HW165538   9.483   2.807   9.204
87902SOL    HW265539   9.407   2.883   9.098
87903SOL     OW65540   1.988   6.738  12.350
87903SOL    HW165541   2.037   6.669  12.305
87903SOL    HW265542   2.046   6.767  12.420
87904SOL     OW65543   2.656  11.846   5.709
87904SOL    HW165544   2.562  11.840   5.730
87904SOL    HW265545   2.694  11.769   5.751
87905SOL     OW65546   7.108  11.214  13.882
87905SOL    HW165547   7.036  11.152  13.889
87905SOL    HW265548   7.166  11.192  13.955
87906SOL     OW65549   5.891  13.153  10.444
87906SOL    HW165550   5.836  13.231  10.438
87906SOL    HW265551   5.939  13.163  10.526
87907SOL     OW65552   7.334   3.323   7.853
87907SOL    HW165553   7.322   3.350   7.762
87907SOL    HW265554   7.250   3.285   7.879
87908SOL     OW65555   3.895   6.747  13.466
87908SOL    HW165556   3.962   6.810  13.439
87908SOL    HW265557   3.929   6.709  13.546
87909SOL     OW65558  11.688   3.016   3.837
87909SOL    HW165559  11.634   2.939   3.823
87909SOL    HW265560  11.723   3.036   3.751
87910SOL     OW65561  11.628  14.623  13.903
87910SOL    HW165562  11.572  14.648  13.976
87910SOL    HW265563  11.568  14.594  13.835
87911SOL     OW65564   4.398   2.683   9.244
87911SOL    HW165565   4.387   2.607   9.302
87911SOL    HW265566   4.383   2.648   9.156
87912SOL     OW65567   7.988  12.076   6.581
87912SOL    HW165568   8.032  12.064   6.665
87912SOL    HW265569   7.922  12.143   6.597
87913SOL     OW65570   8.118  11.426   4.487
87913SOL    HW165571   8.039  11.476   4.466
87913SOL    HW265572   8.161  11.412   4.403
87914SOL     OW65573   5.451   1.217  12.279
87914SOL    HW165574   5.436   1.305  12.313
87914SOL    HW265575   5.425   1.159  12.351
87915SOL     OW65576   6.667   8.714   6.032
87915SOL    HW165577   6.683   8.715   5.938
87915SOL    HW265578   6.711   8.793   6.064
87916SOL     OW65579   0.034   2.118   5.937
87916SOL    HW165580  14.838   2.078   5.991
87916SOL    HW265581   0.110   2.061   5.951
87917SOL     OW65582  10.997   2.990   0.969
87917SOL    HW165583  10.912   2.950   0.949
87917SOL    HW265584  11.048   2.977   0.889
87918SOL     OW65585   8.898   3.070   4.231
87918SOL    HW165586   8.833   3.001   4.244
87918SOL    HW265587   8.969   3.047   4.292
87919SOL     OW65588   7.834  10.889  13.066
87919SOL    HW165589   7.903  10.938  13.020
87919SOL    HW265590   7.781  10.851  12.995
87920SOL     OW65591   3.877   0.506  13.557
87920SOL    HW165592   3.836   0.420  13.549
87920SOL    HW265593   3.963   0.495  13.515
87921SOL     OW65594  12.967   1.691   1.669
87921SOL    HW165595  12.876   1.706   1.693
87921SOL    HW265596  12.975   1.596   1.664
87922SOL     OW65597  11.820   8.966   9.748
87922SOL    HW165598  11.733   8.976   9.709
87922SOL    HW265599  11.828   8.872   9.765
87923SOL     OW65600   4.429  12.266   8.086
87923SOL    HW165601   4.389  12.315   8.158
87923SOL    HW265602   4.397  12.176   8.098
87924SOL     OW65603   1.871   6.924  10.736
87924SOL    HW165604   1.820   6.895  10.661
87924SOL    HW265605   1.891   7.016  10.718
87925SOL     OW65606   3.228  10.634  11.360
87925SOL    HW165607   3.172  10.709  11.341
87925SOL    HW265608   3.248  10.597  11.274
87926SOL     OW65609   8.041   0.000  13.927
87926SOL    HW165610   8.125   0.038  13.904
87926SOL    HW265611   8.059  14.780  13.941
87927SOL     OW65612   3.103   7.332  10.892
87927SOL    HW165613   3.118   7.323  10.986
87927SOL    HW265614   3.075   7.423  10.880
87928SOL     OW65615   4.299  10.193  10.724
87928SOL    HW165616   4.258  10.110  10.746
87928SOL    HW265617   4.360  10.210  10.797
87929SOL     OW65618  13.291   5.507  12.227
87929SOL    HW165619  13.209   5.543  12.193
87929SOL    HW265620  13.353   5.514  12.154
87930SOL     OW65621   3.262   2.740   5.288
87930SOL    HW165622   3.249   2.688   5.209
87930SOL    HW265623   3.175   2.770   5.312
87931SOL     OW65624   1.759   6.323   4.983
87931SOL    HW165625   1.848   6.350   4.964
87931SOL    HW265626   1.724   6.391   5.039
87932SOL     OW65627  11.709   1.823  13.870
87932SOL    HW165628  11.735   1.758  13.805
87932SOL    HW265629  11.661   1.889  13.820
87933SOL     OW65630   4.477   1.189   9.150
87933SOL    HW165631   4.550   1.233   9.196
87933SOL    HW265632   4.420   1.261   9.122
87934SOL     OW65633   5.916   2.262   5.844
87934SOL    HW165634   5.918   2.171   5.814
87934SOL    HW265635   5.837   2.299   5.804
87935SOL     OW65636   6.223  14.783   3.166
87935SOL    HW165637   6.217  14.832   3.248
87935SOL    HW265638   6.280  14.709   3.187
87936SOL     OW65639  13.909  13.239   8.225
87936SOL    HW165640  13.900  13.229   8.320
87936SOL    HW265641  13.997  13.276   8.213
87937SOL     OW65642   9.387   1.155  12.846
87937SOL    HW165643   9.385   1.214  12.770
87937SOL    HW265644   9.295   1.143  12.869
87938SOL     OW65645   8.022  12.221   9.186
87938SOL    HW165646   8.036  12.212   9.281
87938SOL    HW265647   7.927  12.234   9.178
87939SOL     OW65648   3.149  13.186   4.320
87939SOL    HW165649   3.137  13.124   4.392
87939SOL    HW265650   3.060  13.212   4.296
87940SOL     OW65651   8.051  13.504  13.254
87940SOL    HW165652   8.126  13.540  13.207
87940SOL    HW265653   8.036  13.418  13.214
87941SOL     OW65654  11.304  10.075   0.540
87941SOL    HW165655  11.381  10.130   0.553
87941SOL    HW265656  11.331  10.010   0.476
87942SOL     OW65657   9.757  14.775  12.292
87942SOL    HW165658   9.673  14.817  12.305
87942SOL    HW265659   9.768  14.718  12.369
87943SOL     OW65660   2.366   8.468  10.484
87943SOL    HW165661   2.427   8.524  10.533
87943SOL    HW265662   2.285   8.470  10.535
87944SOL     OW65663   4.685   8.172  14.856
87944SOL    HW165664   4.710   8.258  14.824
87944SOL    HW265665   4.756   8.145   0.041
87945SOL     OW65666   4.777  10.818  11.291
87945SOL    HW165667   4.695  10.809  11.338
87945SOL    HW265668   4.784  10.912  11.272
87946SOL     OW65669   6.163  10.288   8.389
87946SOL    HW165670   6.185  10.195   8.379
87946SOL    HW265671   6.078  10.297   8.346
87947SOL     OW65672   5.169   1.428   3.582
87947SOL    HW165673   5.231   1.373   3.631
87947SOL    HW265674   5.167   1.389   3.494
87948SOL     OW65675   1.791  10.913   3.302
87948SOL    HW165676   1.744  10.881   3.379
87948SOL    HW265677   1.877  10.872   3.307
87949SOL     OW65678  11.127   7.944   7.771
87949SOL    HW165679  11.106   7.918   7.860
87949SOL    HW265680  11.159   8.034   7.779
87950SOL     OW65681   3.798  10.546   3.944
87950SOL    HW165682   3.859  10.516   3.877
87950SOL    HW265683   3.800  10.478   4.011
87951SOL     OW65684  11.337   0.728  12.958
87951SOL    HW165685  11.417   0.775  12.984
87951SOL    HW265686  11.267   0.770  13.008
87952SOL     OW65687   9.065   1.320   2.210
87952SOL    HW165688   9.125   1.381   2.253
87952SOL    HW265689   9.000   1.376   2.168
87953SOL     OW65690  13.989   2.022  12.272
87953SOL    HW165691  14.047   1.987  12.339
87953SOL    HW265692  13.905   1.981  12.289
87954SOL     OW65693  10.021   4.057   1.364
87954SOL    HW165694  10.056   4.117   1.298
87954SOL    HW265695   9.941   4.099   1.395
87955SOL     OW65696   6.415  13.190   0.267
87955SOL    HW165697   6.374  13.228   0.345
87955SOL    HW265698   6.507  13.182   0.290
87956SOL     OW65699   5.449  11.483   6.152
87956SOL    HW165700   5.422  11.392   6.143
87956SOL    HW265701   5.494  11.504   6.070
87957SOL     OW65702   2.719   2.035  13.296
87957SOL    HW165703   2.806   2.028  13.256
87957SOL    HW265704   2.659   1.999  13.230
87958SOL     OW65705   9.407   4.910  14.234
87958SOL    HW165706   9.317   4.885  14.214
87958SOL    HW265707   9.452   4.826  14.249
87959SOL     OW65708   4.456   2.688   4.489
87959SOL    HW165709   4.473   2.659   4.399
87959SOL    HW265710   4.374   2.737   4.483
87960SOL     OW65711   0.374  11.143   0.067
87960SOL    HW165712   0.296  11.198   0.075
87960SOL    HW265713   0.422  11.156   0.149
87961SOL     OW65714   1.541   2.900  14.036
87961SOL    HW165715   1.586   2.816  14.046
87961SOL    HW265716   1.597   2.951  13.978
87962SOL     OW65717   1.739   1.605  13.693
87962SOL    HW165718   1.733   1.541  13.764
87962SOL    HW265719   1.666   1.665  13.709
87963SOL     OW65720  14.083   0.360   7.123
87963SOL    HW165721  14.155   0.319   7.170
87963SOL    HW265722  14.006   0.306   7.145
87964SOL     OW65723   8.565   5.129   2.862
87964SOL    HW165724   8.481   5.151   2.902
87964SOL    HW265725   8.614   5.085   2.931
87965SOL     OW65726   5.767   0.495   0.355
87965SOL    HW165727   5.842   0.554   0.367
87965SOL    HW265728   5.778   0.430   0.424
87966SOL     OW65729   3.816   5.523   2.413
87966SOL    HW165730   3.862   5.453   2.367
87966SOL    HW265731   3.787   5.582   2.343
87967SOL     OW65732   6.969   1.505  13.992
87967SOL    HW165733   6.921   1.444  13.936
87967SOL    HW265734   6.909   1.579  14.003
87968SOL     OW65735   2.509  14.301   5.677
87968SOL    HW165736   2.532  14.359   5.605
87968SOL    HW265737   2.432  14.341   5.717
87969SOL     OW65738   1.845   2.212   5.688
87969SOL    HW165739   1.814   2.147   5.752
87969SOL    HW265740   1.764   2.249   5.651
87970SOL     OW65741   4.040  12.122   8.916
87970SOL    HW165742   3.960  12.070   8.908
87970SOL    HW265743   4.024  12.198   8.860
87971SOL     OW65744  12.699   6.727   4.599
87971SOL    HW165745  12.662   6.746   4.685
87971SOL    HW265746  12.731   6.637   4.605
87972SOL     OW65747   1.049  13.007   3.902
87972SOL    HW165748   1.080  13.010   3.993
87972SOL    HW265749   1.058  12.916   3.876
87973SOL     OW65750  13.667  12.362   4.820
87973SOL    HW165751  13.685  12.275   4.787
87973SOL    HW265752  13.745  12.413   4.797
87974SOL     OW65753   1.835   0.088   0.739
87974SOL    HW165754   1.909   0.060   0.794
87974SOL    HW265755   1.768   0.021   0.753
87975SOL     OW65756   3.463   2.060  10.857
87975SOL    HW165757   3.372   2.081  10.878
87975SOL    HW265758   3.498   2.022  10.937
87976SOL     OW65759   8.354   3.340   3.755
87976SOL    HW165760   8.261   3.364   3.755
87976SOL    HW265761   8.360   3.268   3.817
87977SOL     OW65762   6.002   8.510   0.071
87977SOL    HW165763   5.910   8.511   0.048
87977SOL    HW265764   6.044   8.459   0.001
87978SOL     OW65765  14.673   6.575   5.364
87978SOL    HW165766  14.704   6.605   5.449
87978SOL    HW265767  14.743   6.597   5.303
87979SOL     OW65768   1.323   8.823   8.457
87979SOL    HW165769   1.308   8.847   8.548
87979SOL    HW265770   1.417   8.805   8.452
87980SOL     OW65771   0.005   0.421   4.157
87980SOL    HW165772  14.838   0.506   4.177
87980SOL    HW265773   0.094   0.442   4.127
87981SOL     OW65774   4.706  12.281   8.057
87981SOL    HW165775   4.612  12.296   8.067
87981SOL    HW265776   4.716  12.187   8.070
87982SOL     OW65777   3.475   3.929  10.264
87982SOL    HW165778   3.470   3.944  10.169
87982SOL    HW265779   3.433   3.844  10.276
87983SOL     OW65780   9.859   9.905   9.889
87983SOL    HW165781   9.948   9.892   9.855
87983SOL    HW265782   9.802   9.874   9.819
87984SOL     OW65783   7.038   8.979  14.017
87984SOL    HW165784   7.105   9.017  13.960
87984SOL    HW265785   7.065   9.002  14.106
87985SOL     OW65786  14.697   1.518   3.609
87985SOL    HW165787  14.735   1.441   3.651
87985SOL    HW265788  14.640   1.483   3.541
87986SOL     OW65789   9.808   8.181  12.554
87986SOL    HW165790   9.882   8.194  12.613
87986SOL    HW265791   9.753   8.259  12.566
87987SOL     OW65792   0.581   0.929   8.750
87987SOL    HW165793   0.604   0.889   8.666
87987SOL    HW265794   0.624   0.874   8.815
87988SOL     OW65795   6.207   0.029  12.920
87988SOL    HW165796   6.184   0.055  13.009
87988SOL    HW265797   6.285  14.846  12.930
87989SOL     OW65798   6.160   3.148  13.624
87989SOL    HW165799   6.115   3.175  13.545
87989SOL    HW265800   6.146   3.219  13.686
87990SOL     OW65801   2.648  11.794   2.511
87990SOL    HW165802   2.595  11.717   2.526
87990SOL    HW265803   2.707  11.798   2.586
87991SOL     OW65804   9.755   8.817  12.707
87991SOL    HW165805   9.834   8.784  12.664
87991SOL    HW265806   9.683   8.773  12.663
87992SOL     OW65807  13.211   8.721   9.820
87992SOL    HW165808  13.167   8.652   9.771
87992SOL    HW265809  13.299   8.725   9.782
87993SOL     OW65810   5.095  14.620  10.814
87993SOL    HW165811   5.160  14.658  10.755
87993SOL    HW265812   5.090  14.681  10.887
87994SOL     OW65813   6.200   4.083   1.416
87994SOL    HW165814   6.245   4.041   1.490
87994SOL    HW265815   6.173   4.010   1.361
87995SOL     OW65816  14.738   3.369   2.424
87995SOL    HW165817  14.804   3.300   2.415
87995SOL    HW265818  14.751   3.424   2.346
87996SOL     OW65819  10.758   3.922   3.945
87996SOL    HW165820  10.672   3.908   3.905
87996SOL    HW265821  10.803   3.982   3.886
87997SOL     OW65822   9.118  10.629   0.059
87997SOL    HW165823   9.040  10.589   0.019
87997SOL    HW265824   9.186  10.621  14.864
87998SOL     OW65825   2.560   8.392   4.378
87998SOL    HW165826   2.620   8.453   4.334
87998SOL    HW265827   2.477   8.440   4.382
87999SOL     OW65828  10.402  13.967   2.477
87999SOL    HW165829  10.419  13.959   2.383
87999SOL    HW265830  10.405  14.061   2.494
88000SOL     OW65831   7.797   7.410   9.472
88000SOL    HW165832   7.888   7.436   9.458
88000SOL    HW265833   7.746   7.468   9.416
88001SOL     OW65834   2.771   1.913   5.444
88001SOL    HW165835   2.816   1.938   5.363
88001SOL    HW265836   2.707   1.983   5.458
88002SOL     OW65837   5.628   8.096  12.329
88002SOL    HW165838   5.635   8.125  12.238
88002SOL    HW265839   5.718   8.075  12.354
88003SOL     OW65840  12.499   5.447   4.197
88003SOL    HW165841  12.469   5.516   4.138
88003SOL    HW265842  12.593   5.459   4.204
88004SOL     OW65843  12.216   4.740  11.602
88004SOL    HW165844  12.197   4.833  11.588
88004SOL    HW265845  12.130   4.699  11.613
88005SOL     OW65846  14.532   2.464   4.617
88005SOL    HW165847  14.537   2.525   4.691
88005SOL    HW265848  14.442   2.433   4.618
88006SOL     OW65849   3.803   4.379   5.151
88006SOL    HW165850   3.892   4.346   5.168
88006SOL    HW265851   3.772   4.326   5.078
88007SOL     OW65852  14.760   9.631   1.541
88007SOL    HW165853  14.696   9.690   1.500
88007SOL    HW265854  14.716   9.547   1.545
88008SOL     OW65855  11.039   9.378   5.279
88008SOL    HW165856  11.074   9.462   5.309
88008SOL    HW265857  10.965   9.361   5.337
88009SOL     OW65858   9.703  13.506  12.223
88009SOL    HW165859   9.653  13.577  12.181
88009SOL    HW265860   9.659  13.426  12.194
88010SOL     OW65861   8.972   4.929   7.855
88010SOL    HW165862   8.977   4.952   7.948
88010SOL    HW265863   9.003   5.008   7.809
88011SOL     OW65864  13.525  14.130   8.061
88011SOL    HW165865  13.516  14.205   8.002
88011SOL    HW265866  13.548  14.057   8.003
88012SOL     OW65867  13.954   6.505   5.697
88012SOL    HW165868  13.929   6.458   5.618
88012SOL    HW265869  14.021   6.450   5.738
88013SOL     OW65870  11.497   0.351   5.905
88013SOL    HW165871  11.439   0.288   5.948
88013SOL    HW265872  11.458   0.364   5.818
88014SOL     OW65873   0.887   4.438   1.054
88014SOL    HW165874   0.880   4.435   1.149
88014SOL    HW265875   0.965   4.490   1.037
88015SOL     OW65876   2.681   0.478  14.635
88015SOL    HW165877   2.737   0.405  14.607
88015SOL    HW265878   2.742   0.540  14.675
88016SOL     OW65879  12.868  10.900  14.303
88016SOL    HW165880  12.855  10.809  14.327
88016SOL    HW265881  12.957  10.904  14.268
88017SOL     OW65882  10.928   8.393  11.233
88017SOL    HW165883  10.914   8.466  11.173
88017SOL    HW265884  11.011   8.354  11.203
88018SOL     OW65885   4.383   4.206  12.277
88018SOL    HW165886   4.351   4.128  12.322
88018SOL    HW265887   4.337   4.206  12.193
88019SOL     OW65888   1.528   0.823   0.738
88019SOL    HW165889   1.617   0.788   0.748
88019SOL    HW265890   1.471   0.753   0.767
88020SOL     OW65891   2.634   7.394   0.767
88020SOL    HW165892   2.666   7.483   0.784
88020SOL    HW265893   2.714   7.343   0.754
88021SOL     OW65894   0.523   3.282   8.394
88021SOL    HW165895   0.517   3.356   8.455
88021SOL    HW265896   0.442   3.234   8.407
88022SOL     OW65897   6.741   1.968  12.867
88022SOL    HW165898   6.744   1.932  12.778
88022SOL    HW265899   6.649   1.963  12.891
88023SOL     OW65900   9.159  13.464  10.946
88023SOL    HW165901   9.077  13.473  10.994
88023SOL    HW265902   9.163  13.541  10.891
88024SOL     OW65903   2.753   1.660  14.012
88024SOL    HW165904   2.664   1.692  14.028
88024SOL    HW265905   2.810   1.729  14.046
88025SOL     OW65906  10.893  13.082   7.381
88025SOL    HW165907  10.894  13.034   7.464
88025SOL    HW265908  10.954  13.155   7.394
88026SOL     OW65909   2.797   7.365   8.770
88026SOL    HW165910   2.824   7.306   8.840
88026SOL    HW265911   2.736   7.314   8.717
88027SOL     OW65912   6.900   0.222   4.673
88027SOL    HW165913   6.936   0.134   4.681
88027SOL    HW265914   6.871   0.228   4.582
88028SOL     OW65915   8.656  13.766   4.911
88028SOL    HW165916   8.588  13.748   4.975
88028SOL    HW265917   8.694  13.681   4.891
88029SOL     OW65918   2.938  11.687   0.122
88029SOL    HW165919   2.855  11.736   0.115
88029SOL    HW265920   3.006  11.754   0.110
88030SOL     OW65921   0.992   3.256   3.795
88030SOL    HW165922   1.010   3.211   3.878
88030SOL    HW265923   0.981   3.185   3.732
88031SOL     OW65924   1.347   3.485   0.253
88031SOL    HW165925   1.380   3.479   0.163
88031SOL    HW265926   1.303   3.570   0.256
88032SOL     OW65927  12.214  13.874   9.481
88032SOL    HW165928  12.132  13.915   9.509
88032SOL    HW265929  12.279  13.944   9.490
88033SOL     OW65930  10.242  14.550  13.999
88033SOL    HW165931  10.184  14.474  13.988
88033SOL    HW265932  10.254  14.557  14.094
88034SOL     OW65933   9.076   8.177   9.821
88034SOL    HW165934   8.982   8.193   9.821
88034SOL    HW265935   9.115   8.258   9.790
88035SOL     OW65936   0.309   5.557  12.008
88035SOL    HW165937   0.280   5.645  11.988
88035SOL    HW265938   0.248   5.526  12.076
88036SOL     OW65939   2.555   1.794   8.705
88036SOL    HW165940   2.472   1.832   8.732
88036SOL    HW265941   2.621   1.856   8.737
88037SOL     OW65942   2.052   5.792  11.020
88037SOL    HW165943   1.978   5.813  11.076
88037SOL    HW265944   2.129   5.813  11.074
88038SOL     OW65945   1.969   0.502   5.444
88038SOL    HW165946   1.949   0.495   5.538
88038SOL    HW265947   2.055   0.544   5.441
88039SOL     OW65948  10.461   3.360   5.221
88039SOL    HW165949  10.529   3.397   5.277
88039SOL    HW265950  10.503   3.286   5.177
88040SOL     OW65951   9.542  14.465   1.399
88040SOL    HW165952   9.608  14.528   1.425
88040SOL    HW265953   9.518  14.420   1.480
88041SOL     OW65954   4.680   8.446  11.726
88041SOL    HW165955   4.690   8.451  11.821
88041SOL    HW265956   4.737   8.374  11.699
88042SOL     OW65957   9.719  11.060  10.631
88042SOL    HW165958   9.660  11.038  10.702
88042SOL    HW265959   9.788  10.993  10.633
88043SOL     OW65960   4.922  11.099  12.634
88043SOL    HW165961   4.918  11.186  12.594
88043SOL    HW265962   5.009  11.095  12.675
88044SOL     OW65963  10.870   6.027   9.854
88044SOL    HW165964  10.896   6.060   9.768
88044SOL    HW265965  10.890   6.098   9.915
88045SOL     OW65966  14.102  12.684  11.568
88045SOL    HW165967  14.115  12.761  11.623
88045SOL    HW265968  14.072  12.719  11.484
88046SOL     OW65969   8.801   6.993   0.996
88046SOL    HW165970   8.887   6.968   0.962
88046SOL    HW265971   8.767   7.057   0.933
88047SOL     OW65972   9.206   9.055   7.111
88047SOL    HW165973   9.234   8.965   7.099
88047SOL    HW265974   9.267   9.091   7.176
88048SOL     OW65975   9.917   4.631  10.055
88048SOL    HW165976   9.999   4.581  10.060
88048SOL    HW265977   9.926   4.698  10.123
88049SOL     OW65978  11.270   0.635  12.265
88049SOL    HW165979  11.254   0.545  12.237
88049SOL    HW265980  11.318   0.626  12.347
88050SOL     OW65981  14.351  11.226  10.654
88050SOL    HW165982  14.381  11.187  10.572
88050SOL    HW265983  14.353  11.154  10.717
88051SOL     OW65984   3.071   4.747   5.598
88051SOL    HW165985   3.161   4.715   5.607
88051SOL    HW265986   3.065   4.819   5.661
88052SOL     OW65987   6.673   1.882  10.548
88052SOL    HW165988   6.691   1.789  10.556
88052SOL    HW265989   6.597   1.887  10.490
88053SOL     OW65990   6.871   5.065   4.145
88053SOL    HW165991   6.948   5.115   4.173
88053SOL    HW265992   6.830   5.121   4.079
88054SOL     OW65993   0.203   1.525   3.789
88054SOL    HW165994   0.240   1.599   3.741
88054SOL    HW265995   0.234   1.448   3.741
88055SOL     OW65996   3.122   6.014  13.990
88055SOL    HW165997   3.195   6.030  14.050
88055SOL    HW265998   3.158   6.033  13.903
88056SOL     OW65999   8.112   0.191  13.303
88056SOL    HW166000   8.120   0.144  13.385
88056SOL    HW266001   8.168   0.268  13.314
88057SOL     OW66002   5.061   2.816   2.885
88057SOL    HW166003   5.097   2.820   2.797
88057SOL    HW266004   5.120   2.870   2.938
88058SOL     OW66005   4.882   8.899   2.878
88058SOL    HW166006   4.871   8.822   2.933
88058SOL    HW266007   4.928   8.867   2.801
88059SOL     OW66008  11.817   9.725   1.640
88059SOL    HW166009  11.748   9.788   1.619
88059SOL    HW266010  11.891   9.753   1.586
88060SOL     OW66011  12.704  11.594  12.701
88060SOL    HW166012  12.797  11.574  12.695
88060SOL    HW266013  12.670  11.580  12.613
88061SOL     OW66014   9.999   3.594   8.029
88061SOL    HW166015   9.913   3.563   7.999
88061SOL    HW266016  10.014   3.674   7.978
88062SOL     OW66017   5.418   9.504  10.971
88062SOL    HW166018   5.446   9.595  10.980
88062SOL    HW266019   5.362   9.503  10.893
88063SOL     OW66020  14.667   1.997   1.733
88063SOL    HW166021  14.697   1.956   1.652
88063SOL    HW266022  14.744   2.043   1.767
88064SOL     OW66023  12.789   7.623  10.207
88064SOL    HW166024  12.843   7.556  10.166
88064SOL    HW266025  12.832   7.706  10.186
88065SOL     OW66026   4.775   0.129  10.807
88065SOL    HW166027   4.722   0.136  10.727
88065SOL    HW266028   4.757   0.210  10.855
88066SOL     OW66029   5.190   1.674   5.700
88066SOL    HW166030   5.243   1.689   5.622
88066SOL    HW266031   5.159   1.584   5.692
88067SOL     OW66032   0.751   7.750   3.867
88067SOL    HW166033   0.781   7.664   3.838
88067SOL    HW266034   0.807   7.771   3.942
88068SOL     OW66035   2.223   1.116   2.379
88068SOL    HW166036   2.293   1.177   2.402
88068SOL    HW266037   2.193   1.145   2.292
88069SOL     OW66038  12.971   0.484  14.687
88069SOL    HW166039  12.934   0.486  14.775
88069SOL    HW266040  13.020   0.402  14.683
88070SOL     OW66041  14.376   4.804  10.534
88070SOL    HW166042  14.333   4.890  10.539
88070SOL    HW266043  14.449   4.810  10.595
88071SOL     OW66044  13.376   3.204  11.129
88071SOL    HW166045  13.460   3.159  11.119
88071SOL    HW266046  13.365   3.214  11.223
88072SOL     OW66047   3.323   8.152   7.495
88072SOL    HW166048   3.233   8.182   7.483
88072SOL    HW266049   3.373   8.196   7.426
88073SOL     OW66050   0.306  13.841  13.409
88073SOL    HW166051   0.386  13.830  13.358
88073SOL    HW266052   0.246  13.775  13.374
88074SOL     OW66053   6.028  14.738  14.470
88074SOL    HW166054   6.050  14.830  14.482
88074SOL    HW266055   6.000  14.708  14.556
88075SOL     OW66056   1.339  13.229   0.924
88075SOL    HW166057   1.262  13.278   0.951
88075SOL    HW266058   1.407  13.296   0.911
88076SOL     OW66059   2.797  10.446   9.214
88076SOL    HW166060   2.779  10.400   9.296
88076SOL    HW266061   2.832  10.531   9.241
88077SOL     OW66062  12.696   9.354   7.967
88077SOL    HW166063  12.770   9.387   7.917
88077SOL    HW266064  12.660   9.431   8.011
88078SOL     OW66065   5.800   6.445   5.974
88078SOL    HW166066   5.809   6.497   5.895
88078SOL    HW266067   5.806   6.354   5.944
88079SOL     OW66068  11.951   0.589  13.164
88079SOL    HW166069  11.960   0.659  13.228
88079SOL    HW266070  12.008   0.614  13.091
88080SOL     OW66071   4.333   8.244   0.780
88080SOL    HW166072   4.288   8.264   0.698
88080SOL    HW266073   4.418   8.287   0.771
88081SOL     OW66074   2.668   2.970   5.700
88081SOL    HW166075   2.678   2.951   5.793
88081SOL    HW266076   2.744   3.024   5.678
88082SOL     OW66077  14.521   4.269   3.220
88082SOL    HW166078  14.432   4.304   3.207
88082SOL    HW266079  14.564   4.284   3.136
88083SOL     OW66080   1.098   7.716   7.266
88083SOL    HW166081   1.176   7.762   7.299
88083SOL    HW266082   1.068   7.665   7.341
88084SOL     OW66083   9.514   1.662   0.111
88084SOL    HW166084   9.565   1.609   0.172
88084SOL    HW266085   9.528   1.753   0.139
88085SOL     OW66086  11.608   6.276   2.574
88085SOL    HW166087  11.670   6.339   2.611
88085SOL    HW266088  11.583   6.221   2.648
88086SOL     OW66089   7.890  13.584   7.725
88086SOL    HW166090   7.956  13.562   7.660
88086SOL    HW266091   7.817  13.620   7.674
88087SOL     OW66092  12.328   8.518  12.580
88087SOL    HW166093  12.348   8.606  12.613
88087SOL    HW266094  12.400   8.463  12.613
88088SOL     OW66095  10.460   0.151   5.340
88088SOL    HW166096  10.473   0.068   5.294
88088SOL    HW266097  10.477   0.131   5.432
88089SOL     OW66098   6.540   7.106   4.588
88089SOL    HW166099   6.518   7.095   4.496
88089SOL    HW266100   6.455   7.118   4.631
88090SOL     OW66101  12.701   1.727   3.056
88090SOL    HW166102  12.637   1.795   3.036
88090SOL    HW266103  12.712   1.732   3.151
88091SOL     OW66104   4.556   0.950  12.689
88091SOL    HW166105   4.478   0.926  12.640
88091SOL    HW266106   4.569   1.043  12.670
88092SOL     OW66107   7.436  14.017   3.191
88092SOL    HW166108   7.451  13.925   3.170
88092SOL    HW266109   7.503  14.064   3.142
88093SOL     OW66110  10.513   6.009   2.197
88093SOL    HW166111  10.493   6.081   2.137
88093SOL    HW266112  10.475   5.931   2.156
88094SOL     OW66113   2.703  14.511   2.612
88094SOL    HW166114   2.694  14.577   2.681
88094SOL    HW266115   2.791  14.477   2.622
88095SOL     OW66116   3.884   8.679  13.814
88095SOL    HW166117   3.836   8.703  13.894
88095SOL    HW266118   3.840   8.727  13.745
88096SOL     OW66119   1.878   8.253   5.348
88096SOL    HW166120   1.869   8.283   5.258
88096SOL    HW266121   1.971   8.234   5.358
88097SOL     OW66122   5.212   8.948   4.001
88097SOL    HW166123   5.282   8.899   3.959
88097SOL    HW266124   5.256   9.001   4.068
88098SOL     OW66125   1.162  11.441   6.161
88098SOL    HW166126   1.078  11.407   6.191
88098SOL    HW266127   1.143  11.529   6.130
88099SOL     OW66128   7.825   8.662  12.669
88099SOL    HW166129   7.784   8.748  12.666
88099SOL    HW266130   7.841   8.645  12.762
88100SOL     OW66131   1.213   8.555  11.259
88100SOL    HW166132   1.209   8.461  11.242
88100SOL    HW266133   1.217   8.562  11.354
88101SOL     OW66134   2.591  14.597   4.997
88101SOL    HW166135   2.529  14.647   5.050
88101SOL    HW266136   2.543  14.579   4.916
88102SOL     OW66137   1.035   9.056   5.287
88102SOL    HW166138   0.941   9.070   5.293
88102SOL    HW266139   1.068   9.077   5.375
88103SOL     OW66140   8.136   1.405  13.943
88103SOL    HW166141   8.220   1.420  13.987
88103SOL    HW266142   8.070   1.430  14.008
88104SOL     OW66143  13.035  14.424   8.391
88104SOL    HW166144  13.120  14.468   8.385
88104SOL    HW266145  13.038  14.356   8.324
88105SOL     OW66146   6.678   4.256   5.237
88105SOL    HW166147   6.616   4.207   5.183
88105SOL    HW266148   6.705   4.194   5.305
88106SOL     OW66149  12.539  11.889   4.340
88106SOL    HW166150  12.531  11.978   4.304
88106SOL    HW266151  12.462  11.843   4.307
88107SOL     OW66152   0.858   0.087   1.989
88107SOL    HW166153   0.929   0.143   1.958
88107SOL    HW266154   0.894  14.870   1.983
88108SOL     OW66155   9.142   3.140   3.688
88108SOL    HW166156   9.090   3.066   3.718
88108SOL    HW266157   9.189   3.109   3.611
88109SOL     OW66158   7.912   8.496  10.679
88109SOL    HW166159   7.988   8.554  10.672
88109SOL    HW266160   7.865   8.528  10.756
88110SOL     OW66161  10.861   3.387   0.562
88110SOL    HW166162  10.772   3.369   0.591
88110SOL    HW266163  10.851   3.430   0.477
88111SOL     OW66164  13.097  10.370   6.080
88111SOL    HW166165  13.123  10.438   6.142
88111SOL    HW266166  13.177  10.354   6.029
88112SOL     OW66167   5.231   9.739  12.662
88112SOL    HW166168   5.228   9.813  12.723
88112SOL    HW266169   5.222   9.778  12.576
88113SOL     OW66170   0.487  11.577  13.880
88113SOL    HW166171   0.481  11.482  13.875
88113SOL    HW266172   0.581  11.595  13.878
88114SOL     OW66173   4.766  13.682  14.498
88114SOL    HW166174   4.718  13.706  14.577
88114SOL    HW266175   4.858  13.691  14.522
88115SOL     OW66176   2.689  13.412  12.575
88115SOL    HW166177   2.708  13.481  12.639
88115SOL    HW266178   2.774  13.372  12.557
88116SOL     OW66179   4.924  11.694  14.305
88116SOL    HW166180   4.980  11.630  14.348
88116SOL    HW266181   4.970  11.778  14.318
88117SOL     OW66182  10.925   3.030   2.882
88117SOL    HW166183  10.895   3.083   2.955
88117SOL    HW266184  10.885   3.069   2.804
88118SOL     OW66185   9.176   5.029   4.877
88118SOL    HW166186   9.206   5.038   4.968
88118SOL    HW266187   9.118   4.952   4.879
88119SOL     OW66188   4.303  10.593  13.848
88119SOL    HW166189   4.269  10.503  13.847
88119SOL    HW266190   4.355  10.599  13.768
88120SOL     OW66191  10.398   1.598  13.189
88120SOL    HW166192  10.415   1.690  13.209
88120SOL    HW266193  10.467   1.573  13.128
88121SOL     OW66194   2.580   9.193   7.860
88121SOL    HW166195   2.649   9.244   7.817
88121SOL    HW266196   2.510   9.188   7.795
88122SOL     OW66197  11.422   5.780   2.288
88122SOL    HW166198  11.455   5.860   2.329
88122SOL    HW266199  11.334   5.803   2.258
88123SOL     OW66200  13.776  12.917  13.209
88123SOL    HW166201  13.865  12.914  13.244
88123SOL    HW266202  13.769  12.841  13.152
88124SOL     OW66203   6.760  14.094   1.986
88124SOL    HW166204   6.750  14.152   2.061
88124SOL    HW266205   6.696  14.126   1.922
88125SOL     OW66206   9.658   8.104   9.346
88125SOL    HW166207   9.690   8.103   9.436
88125SOL    HW266208   9.580   8.047   9.348
88126SOL     OW66209   1.186  11.915   7.484
88126SOL    HW166210   1.244  11.881   7.415
88126SOL    HW266211   1.133  11.839   7.509
88127SOL     OW66212   1.416  13.068   7.100
88127SOL    HW166213   1.322  13.062   7.086
88127SOL    HW266214   1.432  13.014   7.178
88128SOL     OW66215   8.034  12.576   4.094
88128SOL    HW166216   8.003  12.577   4.004
88128SOL    HW266217   8.048  12.484   4.115
88129SOL     OW66218   1.855   1.810  12.456
88129SOL    HW166219   1.810   1.726  12.447
88129SOL    HW266220   1.795   1.874  12.419
88130SOL     OW66221  11.153   0.179   3.749
88130SOL    HW166222  11.093   0.125   3.800
88130SOL    HW266223  11.111   0.186   3.663
88131SOL     OW66224   1.612   2.886   7.737
88131SOL    HW166225   1.517   2.890   7.724
88131SOL    HW266226   1.640   2.814   7.680
88132SOL     OW66227   7.709  10.992  10.695
88132SOL    HW166228   7.682  10.919  10.639
88132SOL    HW266229   7.797  10.968  10.725
88133SOL     OW66230   6.919   2.017  10.749
88133SOL    HW166231   6.967   2.023  10.832
88133SOL    HW266232   6.909   1.923  10.734
88134SOL     OW66233  10.059  14.771   8.488
88134SOL    HW166234   9.998  14.742   8.555
88134SOL    HW266235  10.128  14.816   8.536
88135SOL     OW66236  13.808   8.379   1.776
88135SOL    HW166237  13.883   8.430   1.748
88135SOL    HW266238  13.758   8.363   1.695
88136SOL     OW66239   5.028   4.318  12.604
88136SOL    HW166240   4.950   4.265  12.588
88136SOL    HW266241   5.059   4.290  12.690
88137SOL     OW66242   2.889  13.414   5.006
88137SOL    HW166243   2.810  13.361   5.012
88137SOL    HW266244   2.960  13.351   4.994
88138SOL     OW66245   7.570   8.886   9.985
88138SOL    HW166246   7.641   8.827   9.959
88138SOL    HW266247   7.493   8.853   9.940
88139SOL     OW66248   2.515   5.685   8.629
88139SOL    HW166249   2.520   5.594   8.657
88139SOL    HW266250   2.423   5.697   8.604
88140SOL     OW66251  10.336   0.685   7.428
88140SOL    HW166252  10.318   0.772   7.465
88140SOL    HW266253  10.298   0.687   7.341
88141SOL     OW66254  12.970   0.374  12.421
88141SOL    HW166255  12.925   0.417  12.494
88141SOL    HW266256  12.933   0.414  12.342
88142SOL     OW66257  13.724   9.112   9.735
88142SOL    HW166258  13.728   9.022   9.769
88142SOL    HW266259  13.638   9.144   9.761
88143SOL     OW66260   6.619   4.573   4.548
88143SOL    HW166261   6.608   4.505   4.482
88143SOL    HW266262   6.570   4.648   4.514
88144SOL     OW66263  10.308   7.105   5.140
88144SOL    HW166264  10.358   7.164   5.084
88144SOL    HW266265  10.359   7.101   5.221
88145SOL     OW66266   6.395   1.216   6.489
88145SOL    HW166267   6.383   1.309   6.509
88145SOL    HW266268   6.490   1.207   6.475
88146SOL     OW66269   4.269   2.508   5.116
88146SOL    HW166270   4.296   2.482   5.204
88146SOL    HW266271   4.295   2.600   5.109
88147SOL     OW66272   5.558  14.835  12.288
88147SOL    HW166273   5.542   0.039  12.231
88147SOL    HW266274   5.652  14.822  12.285
88148SOL     OW66275   5.383   5.452   0.500
88148SOL    HW166276   5.390   5.492   0.413
88148SOL    HW266277   5.473   5.435   0.525
88149SOL     OW66278   4.359  14.412   2.085
88149SOL    HW166279   4.392  14.484   2.140
88149SOL    HW266280   4.438  14.364   2.060
88150SOL     OW66281   0.332   7.499   6.834
88150SOL    HW166282   0.384   7.499   6.753
88150SOL    HW266283   0.291   7.585   6.837
88151SOL     OW66284  11.181   7.289   6.050
88151SOL    HW166285  11.206   7.316   6.138
88151SOL    HW266286  11.105   7.232   6.063
88152SOL     OW66287   7.898  13.910   5.378
88152SOL    HW166288   7.925  13.947   5.294
88152SOL    HW266289   7.848  13.980   5.420
88153SOL     OW66290  10.249   2.101   6.283
88153SOL    HW166291  10.218   2.012   6.296
88153SOL    HW266292  10.309   2.095   6.208
88154SOL     OW66293  11.176  12.812   4.546
88154SOL    HW166294  11.231  12.750   4.594
88154SOL    HW266295  11.095  12.817   4.596
88155SOL     OW66296   9.205   1.448  14.100
88155SOL    HW166297   9.150   1.395  14.043
88155SOL    HW266298   9.208   1.534  14.057
88156SOL     OW66299   9.898   5.910  13.194
88156SOL    HW166300   9.915   5.957  13.112
88156SOL    HW266301   9.984   5.904  13.236
88157SOL     OW66302   5.822  10.068   9.946
88157SOL    HW166303   5.777  10.149   9.924
88157SOL    HW266304   5.786  10.043  10.031
88158SOL     OW66305   6.306   8.966   8.020
88158SOL    HW166306   6.255   8.915   7.957
88158SOL    HW266307   6.313   9.053   7.980
88159SOL     OW66308   4.227  11.326  10.785
88159SOL    HW166309   4.146  11.288  10.752
88159SOL    HW266310   4.234  11.411  10.740
88160SOL     OW66311   1.410   0.658  13.713
88160SOL    HW166312   1.438   0.600  13.784
88160SOL    HW266313   1.434   0.746  13.743
88161SOL     OW66314   6.414   6.428   0.746
88161SOL    HW166315   6.322   6.454   0.747
88161SOL    HW266316   6.455   6.488   0.683
88162SOL     OW66317   2.211   8.365   7.871
88162SOL    HW166318   2.292   8.350   7.822
88162SOL    HW266319   2.241   8.384   7.960
88163SOL     OW66320   9.217  14.039   5.556
88163SOL    HW166321   9.297  14.022   5.507
88163SOL    HW266322   9.158  14.078   5.492
88164SOL     OW66323   6.774   3.232   2.489
88164SOL    HW166324   6.847   3.292   2.499
88164SOL    HW266325   6.737   3.224   2.577
88165SOL     OW66326   9.573   6.682   5.804
88165SOL    HW166327   9.585   6.710   5.895
88165SOL    HW266328   9.627   6.604   5.795
88166SOL     OW66329  10.189   7.311   9.110
88166SOL    HW166330  10.273   7.280   9.076
88166SOL    HW266331  10.199   7.310   9.205
88167SOL     OW66332   5.908  14.306   9.392
88167SOL    HW166333   5.866  14.291   9.477
88167SOL    HW266334   5.957  14.387   9.404
88168SOL     OW66335  12.132   5.871   2.952
88168SOL    HW166336  12.164   5.952   2.912
88168SOL    HW266337  12.128   5.891   3.046
88169SOL     OW66338  11.489   4.360   4.421
88169SOL    HW166339  11.405   4.317   4.439
88169SOL    HW266340  11.510   4.336   4.331
88170SOL     OW66341  13.361  14.743  12.578
88170SOL    HW166342  13.297  14.765  12.510
88170SOL    HW266343  13.364  14.821  12.633
88171SOL     OW66344   8.708   2.791   5.904
88171SOL    HW166345   8.749   2.815   5.821
88171SOL    HW266346   8.655   2.714   5.884
88172SOL     OW66347   7.740  13.301   5.055
88172SOL    HW166348   7.759  13.383   5.008
88172SOL    HW266349   7.826  13.263   5.072
88173SOL     OW66350  11.304  12.348  14.456
88173SOL    HW166351  11.272  12.396  14.533
88173SOL    HW266352  11.330  12.416  14.394
88174SOL     OW66353   1.732  14.012   6.838
88174SOL    HW166354   1.801  14.070   6.871
88174SOL    HW266355   1.772  13.925   6.837
88175SOL     OW66356  11.214  11.607   9.210
88175SOL    HW166357  11.263  11.640   9.286
88175SOL    HW266358  11.282  11.575   9.150
88176SOL     OW66359  10.160  11.696   2.997
88176SOL    HW166360  10.211  11.737   2.928
88176SOL    HW266361  10.087  11.755   3.012
88177SOL     OW66362   5.206   1.617   8.748
88177SOL    HW166363   5.159   1.534   8.736
88177SOL    HW266364   5.219   1.624   8.842
88178SOL     OW66365   2.058   9.795   3.082
88178SOL    HW166366   1.990   9.816   3.018
88178SOL    HW266367   2.035   9.847   3.159
88179SOL     OW66368   5.907  10.527  11.191
88179SOL    HW166369   5.991  10.557  11.156
88179SOL    HW266370   5.866  10.607  11.225
88180SOL     OW66371   9.755   5.345   6.314
88180SOL    HW166372   9.831   5.301   6.354
88180SOL    HW266373   9.776   5.349   6.221
88181SOL     OW66374   1.156  13.891  11.702
88181SOL    HW166375   1.159  13.883  11.607
88181SOL    HW266376   1.095  13.823  11.731
88182SOL     OW66377   2.527  12.236   0.485
88182SOL    HW166378   2.517  12.202   0.396
88182SOL    HW266379   2.609  12.285   0.482
88183SOL     OW66380   6.656   5.748  11.539
88183SOL    HW166381   6.655   5.789  11.452
88183SOL    HW266382   6.571   5.706  11.547
88184SOL     OW66383   7.948   3.165   3.238
88184SOL    HW166384   8.007   3.098   3.204
88184SOL    HW266385   8.004   3.241   3.252
88185SOL     OW66386   4.534  11.608   4.735
88185SOL    HW166387   4.459  11.552   4.715
88185SOL    HW266388   4.531  11.619   4.830
88186SOL     OW66389  12.914   6.419   7.514
88186SOL    HW166390  12.976   6.346   7.506
88186SOL    HW266391  12.916   6.441   7.608
88187SOL     OW66392   6.819  10.949   4.278
88187SOL    HW166393   6.728  10.943   4.305
88187SOL    HW266394   6.818  11.010   4.204
88188SOL     OW66395   3.220   7.218  11.935
88188SOL    HW166396   3.184   7.144  11.885
88188SOL    HW266397   3.227   7.186  12.024
88189SOL     OW66398   6.340   5.950   0.467
88189SOL    HW166399   6.333   5.960   0.562
88189SOL    HW266400   6.258   5.986   0.433
88190SOL     OW66401   2.036   6.797  10.901
88190SOL    HW166402   1.977   6.836  10.836
88190SOL    HW266403   2.071   6.872  10.949
88191SOL     OW66404   2.727   8.117  11.317
88191SOL    HW166405   2.766   8.204  11.311
88191SOL    HW266406   2.744   8.076  11.232
88192SOL     OW66407  13.589   5.541  11.155
88192SOL    HW166408  13.534   5.543  11.077
88192SOL    HW266409  13.560   5.617  11.207
88193SOL     OW66410   7.789   0.815   3.546
88193SOL    HW166411   7.758   0.905   3.546
88193SOL    HW266412   7.884   0.821   3.536
88194SOL     OW66413  10.656   8.171   6.122
88194SOL    HW166414  10.564   8.151   6.142
88194SOL    HW266415  10.651   8.237   6.052
88195SOL     OW66416  10.286  14.807   1.870
88195SOL    HW166417  10.257  14.854   1.948
88195SOL    HW266418  10.349  14.742   1.902
88196SOL     OW66419  10.684   4.640  14.046
88196SOL    HW166420  10.613   4.651  13.983
88196SOL    HW266421  10.763   4.667  13.998
88197SOL     OW66422   8.476  11.688  10.679
88197SOL    HW166423   8.386  11.720  10.672
88197SOL    HW266424   8.529  11.768  10.684
88198SOL     OW66425   5.625   8.264  11.118
88198SOL    HW166426   5.582   8.266  11.203
88198SOL    HW266427   5.574   8.322  11.063
88199SOL     OW66428   2.692   1.811  13.461
88199SOL    HW166429   2.752   1.752  13.418
88199SOL    HW266430   2.692   1.890  13.407
88200SOL     OW66431   9.675  10.890   9.793
88200SOL    HW166432   9.655  10.955   9.860
88200SOL    HW266433   9.641  10.807   9.827
88201SOL     OW66434   6.075   8.742   9.006
88201SOL    HW166435   6.020   8.722   9.081
88201SOL    HW266436   6.131   8.814   9.035
88202SOL     OW66437  13.493  13.187   7.597
88202SOL    HW166438  13.530  13.247   7.661
88202SOL    HW266439  13.463  13.112   7.648
88203SOL     OW66440  13.965  11.925   3.292
88203SOL    HW166441  14.003  11.862   3.353
88203SOL    HW266442  14.033  11.991   3.279
88204SOL     OW66443  13.459   5.597   4.725
88204SOL    HW166444  13.432   5.670   4.780
88204SOL    HW266445  13.379   5.567   4.682
88205SOL     OW66446  11.022  11.417   3.345
88205SOL    HW166447  10.974  11.500   3.351
88205SOL    HW266448  10.955  11.352   3.324
88206SOL     OW66449  14.485   1.444   7.472
88206SOL    HW166450  14.579   1.430   7.464
88206SOL    HW266451  14.477   1.527   7.519
88207SOL     OW66452  10.565  13.533   2.165
88207SOL    HW166453  10.652  13.503   2.189
88207SOL    HW266454  10.505  13.470   2.205
88208SOL     OW66455   8.546  10.546   6.018
88208SOL    HW166456   8.606  10.620   6.017
88208SOL    HW266457   8.460  10.586   6.004
88209SOL     OW66458   9.163   0.709   0.889
88209SOL    HW166459   9.119   0.663   0.961
88209SOL    HW266460   9.101   0.706   0.817
88210SOL     OW66461   1.490   5.868   1.075
88210SOL    HW166462   1.558   5.844   1.012
88210SOL    HW266463   1.521   5.951   1.112
88211SOL     OW66464  14.106  10.967   7.328
88211SOL    HW166465  14.148  11.046   7.293
88211SOL    HW266466  14.022  10.963   7.282
88212SOL     OW66467   9.040   6.188   9.338
88212SOL    HW166468   9.123   6.215   9.298
88212SOL    HW266469   8.973   6.226   9.282
88213SOL     OW66470  11.122   6.628  11.025
88213SOL    HW166471  11.116   6.634  11.121
88213SOL    HW266472  11.166   6.545  11.009
88214SOL     OW66473   2.344   4.880   3.134
88214SOL    HW166474   2.287   4.893   3.210
88214SOL    HW266475   2.430   4.909   3.165
88215SOL     OW66476   1.659   9.958  13.151
88215SOL    HW166477   1.635   9.905  13.227
88215SOL    HW266478   1.692  10.039  13.188
88216SOL     OW66479   1.547  11.251   9.393
88216SOL    HW166480   1.595  11.169   9.380
88216SOL    HW266481   1.591  11.313   9.335
88217SOL     OW66482   6.180  12.485   9.036
88217SOL    HW166483   6.170  12.484   9.131
88217SOL    HW266484   6.274  12.502   9.022
88218SOL     OW66485   3.458  11.457  10.511
88218SOL    HW166486   3.478  11.508  10.590
88218SOL    HW266487   3.365  11.436  10.519
88219SOL     OW66488  13.115   2.899  14.271
88219SOL    HW166489  13.149   2.982  14.237
88219SOL    HW266490  13.193   2.851  14.300
88220SOL     OW66491   1.135   1.075   1.325
88220SOL    HW166492   1.130   1.016   1.250
88220SOL    HW266493   1.189   1.028   1.389
88221SOL     OW66494   6.794  13.680  14.208
88221SOL    HW166495   6.825  13.770  14.217
88221SOL    HW266496   6.701  13.684  14.229
88222SOL     OW66497  13.872   5.203  12.712
88222SOL    HW166498  13.876   5.297  12.697
88222SOL    HW266499  13.779   5.181  12.705
88223SOL     OW66500   7.390  10.409   2.988
88223SOL    HW166501   7.361  10.455   3.066
88223SOL    HW266502   7.470  10.453   2.961
88224SOL     OW66503   8.860   1.548   4.215
88224SOL    HW166504   8.914   1.564   4.139
88224SOL    HW266505   8.872   1.625   4.270
88225SOL     OW66506  10.052   8.169  12.683
88225SOL    HW166507  10.006   8.085  12.681
88225SOL    HW266508  10.141   8.149  12.657
88226SOL     OW66509   7.743  10.825   7.707
88226SOL    HW166510   7.754  10.764   7.635
88226SOL    HW266511   7.794  10.902   7.681
88227SOL     OW66512   0.550   5.058  13.899
88227SOL    HW166513   0.563   4.974  13.855
88227SOL    HW266514   0.469   5.046  13.950
88228SOL     OW66515  13.643   7.419   1.325
88228SOL    HW166516  13.693   7.500   1.332
88228SOL    HW266517  13.579   7.425   1.396
88229SOL     OW66518   8.477   8.763   5.994
88229SOL    HW166519   8.548   8.828   6.000
88229SOL    HW266520   8.404   8.803   6.042
88230SOL     OW66521   3.190  10.857   2.366
88230SOL    HW166522   3.276  10.887   2.395
88230SOL    HW266523   3.197  10.852   2.270
88231SOL     OW66524   2.241   5.060  10.692
88231SOL    HW166525   2.180   5.096  10.755
88231SOL    HW266526   2.215   4.969  10.682
88232SOL     OW66527   0.086   1.724  11.283
88232SOL    HW166528   0.071   1.790  11.215
88232SOL    HW266529   0.045   1.762  11.361
88233SOL     OW66530   7.890  11.582   4.426
88233SOL    HW166531   7.943  11.661   4.428
88233SOL    HW266532   7.838  11.590   4.345
88234SOL     OW66533  13.030  13.584   4.506
88234SOL    HW166534  12.948  13.614   4.468
88234SOL    HW266535  13.003  13.522   4.574
88235SOL     OW66536   2.302  10.731   8.293
88235SOL    HW166537   2.346  10.810   8.323
88235SOL    HW266538   2.368  10.662   8.301
88236SOL     OW66539   5.482   9.499   1.466
88236SOL    HW166540   5.558   9.489   1.523
88236SOL    HW266541   5.469   9.594   1.460
88237SOL     OW66542  13.276  11.019   5.804
88237SOL    HW166543  13.234  11.067   5.875
88237SOL    HW266544  13.335  11.084   5.764
88238SOL     OW66545   7.929   8.955   9.918
88238SOL    HW166546   7.880   8.994   9.845
88238SOL    HW266547   7.874   8.882   9.947
88239SOL     OW66548   8.230  13.980  14.474
88239SOL    HW166549   8.199  13.920  14.406
88239SOL    HW266550   8.311  14.017  14.439
88240SOL     OW66551  13.450   6.670   9.770
88240SOL    HW166552  13.452   6.580   9.803
88240SOL    HW266553  13.515   6.716   9.824
88241SOL     OW66554   1.654   3.653   6.531
88241SOL    HW166555   1.721   3.719   6.511
88241SOL    HW266556   1.699   3.569   6.519
88242SOL     OW66557   8.306  13.615  10.939
88242SOL    HW166558   8.230  13.645  10.990
88242SOL    HW266559   8.271  13.597  10.852
88243SOL     OW66560  14.264  11.990   7.015
88243SOL    HW166561  14.275  12.085   7.023
88243SOL    HW266562  14.335  11.953   7.069
88244SOL     OW66563  11.033   6.558   5.206
88244SOL    HW166564  11.047   6.488   5.141
88244SOL    HW266565  11.107   6.617   5.194
88245SOL     OW66566   1.646   5.842   4.670
88245SOL    HW166567   1.712   5.815   4.607
88245SOL    HW266568   1.697   5.879   4.743
88246SOL     OW66569   5.313   8.114  10.074
88246SOL    HW166570   5.232   8.087  10.118
88246SOL    HW266571   5.286   8.137   9.985
88247SOL     OW66572   2.867   7.383  10.606
88247SOL    HW166573   2.929   7.377  10.533
88247SOL    HW266574   2.904   7.449  10.664
88248SOL     OW66575   9.778   6.685   6.578
88248SOL    HW166576   9.736   6.679   6.493
88248SOL    HW266577   9.825   6.768   6.577
88249SOL     OW66578   1.637   5.888  13.021
88249SOL    HW166579   1.595   5.898  12.936
88249SOL    HW266580   1.691   5.966  13.030
88250SOL     OW66581  11.684   4.152  14.056
88250SOL    HW166582  11.639   4.164  13.972
88250SOL    HW266583  11.738   4.230  14.065
88251SOL     OW66584  13.616   4.442   3.046
88251SOL    HW166585  13.578   4.485   3.122
88251SOL    HW266586  13.689   4.391   3.081
88252SOL     OW66587   5.004  14.448   6.822
88252SOL    HW166588   5.033  14.357   6.812
88252SOL    HW266589   4.919  14.452   6.778
88253SOL     OW66590   0.662   5.366  10.763
88253SOL    HW166591   0.612   5.386  10.842
88253SOL    HW266592   0.713   5.446  10.746
88254SOL     OW66593   3.068  14.105   4.797
88254SOL    HW166594   2.988  14.054   4.779
88254SOL    HW266595   3.126  14.084   4.725
88255SOL     OW66596   2.069   0.035   2.982
88255SOL    HW166597   2.084  14.824   2.936
88255SOL    HW266598   1.979   0.058   2.959
88256SOL     OW66599   8.604  13.537   7.093
88256SOL    HW166600   8.545  13.473   7.132
88256SOL    HW266601   8.549  13.613   7.074
88257SOL     OW66602   8.865   0.846  12.944
88257SOL    HW166603   8.833   0.937  12.942
88257SOL    HW266604   8.807   0.800  12.883
88258SOL     OW66605   6.955   3.084  11.042
88258SOL    HW166606   6.921   3.168  11.010
88258SOL    HW266607   6.877   3.034  11.064
88259SOL     OW66608   5.734   3.797  10.008
88259SOL    HW166609   5.796   3.796  10.081
88259SOL    HW266610   5.703   3.888  10.004
88260SOL     OW66611   7.014   6.522   2.928
88260SOL    HW166612   7.041   6.456   2.864
88260SOL    HW266613   7.096   6.562   2.957
88261SOL     OW66614  13.232   9.869   8.742
88261SOL    HW166615  13.216   9.886   8.835
88261SOL    HW266616  13.283   9.788   8.741
88262SOL     OW66617  14.415   8.817  14.330
88262SOL    HW166618  14.501   8.843  14.298
88262SOL    HW266619  14.410   8.723  14.312
88263SOL     OW66620   8.477   4.737   4.618
88263SOL    HW166621   8.399   4.747   4.673
88263SOL    HW266622   8.502   4.827   4.597
88264SOL     OW66623   7.149   3.570   6.919
88264SOL    HW166624   7.103   3.517   6.854
88264SOL    HW266625   7.079   3.608   6.973
88265SOL     OW66626  13.936  10.960   1.500
88265SOL    HW166627  13.865  10.897   1.513
88265SOL    HW266628  13.984  10.926   1.424
88266SOL     OW66629   7.256   6.064  12.681
88266SOL    HW166630   7.339   6.109  12.699
88266SOL    HW266631   7.260   6.043  12.588
88267SOL     OW66632   1.523  13.050   5.760
88267SOL    HW166633   1.555  13.015   5.676
88267SOL    HW266634   1.448  13.105   5.735
88268SOL     OW66635  12.905  11.915   9.945
88268SOL    HW166636  12.843  11.970   9.897
88268SOL    HW266637  12.853  11.881  10.019
88269SOL     OW66638   6.566   0.799   8.840
88269SOL    HW166639   6.559   0.704   8.831
88269SOL    HW266640   6.655   0.820   8.815
88270SOL     OW66641  13.844  12.372   5.237
88270SOL    HW166642  13.849  12.467   5.247
88270SOL    HW266643  13.753  12.351   5.258
88271SOL     OW66644  11.522   7.771   1.587
88271SOL    HW166645  11.434   7.779   1.625
88271SOL    HW266646  11.522   7.832   1.514
88272SOL     OW66647   3.170  13.292  10.592
88272SOL    HW166648   3.164  13.251  10.506
88272SOL    HW266649   3.258  13.330  10.595
88273SOL     OW66650  14.853   7.065   4.932
88273SOL    HW166651  14.836   7.076   5.025
88273SOL    HW266652   0.068   7.102   4.919
88274SOL     OW66653   8.554   3.341   4.078
88274SOL    HW166654   8.545   3.375   4.167
88274SOL    HW266655   8.648   3.326   4.067
88275SOL     OW66656   7.881   6.928  13.992
88275SOL    HW166657   7.965   6.966  13.965
88275SOL    HW266658   7.824   7.003  14.006
88276SOL     OW66659  10.389  10.529   0.778
88276SOL    HW166660  10.323  10.464   0.802
88276SOL    HW266661  10.472  10.489   0.802
88277SOL     OW66662   6.327   0.703   5.677
88277SOL    HW166663   6.335   0.701   5.773
88277SOL    HW266664   6.382   0.630   5.647
88278SOL     OW66665  12.368   9.713   6.788
88278SOL    HW166666  12.350   9.628   6.746
88278SOL    HW266667  12.304   9.718   6.859
88279SOL     OW66668   0.778   9.315  14.233
88279SOL    HW166669   0.832   9.240  14.261
88279SOL    HW266670   0.734   9.343  14.313
88280SOL     OW66671   6.153  10.237  11.710
88280SOL    HW166672   6.125  10.258  11.621
88280SOL    HW266673   6.243  10.269  11.716
88281SOL     OW66674   1.023   1.329   3.518
88281SOL    HW166675   0.942   1.307   3.564
88281SOL    HW266676   1.040   1.254   3.462
88282SOL     OW66677   0.950  13.411   8.227
88282SOL    HW166678   1.039  13.403   8.260
88282SOL    HW266679   0.959  13.464   8.147
88283SOL     OW66680  10.174   4.530   8.150
88283SOL    HW166681  10.247   4.483   8.190
88283SOL    HW266682  10.129   4.464   8.098
88284SOL     OW66683   2.481   4.269  14.393
88284SOL    HW166684   2.496   4.328  14.320
88284SOL    HW266685   2.490   4.181  14.355
88285SOL     OW66686  10.791  13.538   9.754
88285SOL    HW166687  10.769  13.613   9.809
88285SOL    HW266688  10.812  13.577   9.669
88286SOL     OW66689  13.597  11.643   5.341
88286SOL    HW166690  13.681  11.624   5.300
88286SOL    HW266691  13.538  11.659   5.267
88287SOL     OW66692  13.894   0.096  12.969
88287SOL    HW166693  13.801   0.076  12.981
88287SOL    HW266694  13.902   0.189  12.990
88288SOL     OW66695   5.110  13.626  13.303
88288SOL    HW166696   5.050  13.612  13.376
88288SOL    HW266697   5.076  13.703  13.258
88289SOL     OW66698  13.838  10.899  11.579
88289SOL    HW166699  13.791  10.982  11.573
88289SOL    HW266700  13.919  10.914  11.531
88290SOL     OW66701  13.313  11.817   7.855
88290SOL    HW166702  13.382  11.879   7.831
88290SOL    HW266703  13.261  11.808   7.775
88291SOL     OW66704   0.385   4.530   6.781
88291SOL    HW166705   0.407   4.617   6.814
88291SOL    HW266706   0.290   4.522   6.796
88292SOL     OW66707   4.110  10.235  13.563
88292SOL    HW166708   4.195  10.225  13.520
88292SOL    HW266709   4.131  10.262  13.652
88293SOL     OW66710   3.906  13.712   6.035
88293SOL    HW166711   3.930  13.713   6.128
88293SOL    HW266712   3.893  13.620   6.014
88294SOL     OW66713  11.392   8.150   1.783
88294SOL    HW166714  11.380   8.136   1.877
88294SOL    HW266715  11.380   8.244   1.771
88295SOL     OW66716   8.341   8.802   8.929
88295SOL    HW166717   8.349   8.763   9.016
88295SOL    HW266718   8.423   8.850   8.916
88296SOL     OW66719   9.326   1.042   0.644
88296SOL    HW166720   9.406   0.992   0.625
88296SOL    HW266721   9.356   1.133   0.649
88297SOL     OW66722  11.992   0.881   1.698
88297SOL    HW166723  12.060   0.938   1.733
88297SOL    HW266724  11.931   0.941   1.654
88298SOL     OW66725   7.926  11.210  13.065
88298SOL    HW166726   7.987  11.177  13.000
88298SOL    HW266727   7.961  11.181  13.149
88299SOL     OW66728   7.572   3.535   1.933
88299SOL    HW166729   7.627   3.591   1.877
88299SOL    HW266730   7.622   3.454   1.942
88300SOL     OW66731   4.399   8.343   8.245
88300SOL    HW166732   4.407   8.296   8.162
88300SOL    HW266733   4.314   8.387   8.240
88301SOL     OW66734  12.319   3.285   0.034
88301SOL    HW166735  12.398   3.232   0.024
88301SOL    HW266736  12.260   3.251  14.839
88302SOL     OW66737   6.189   1.058  13.593
88302SOL    HW166738   6.105   1.052  13.547
88302SOL    HW266739   6.203   0.971  13.630
88303SOL     OW66740  13.149   4.020  14.017
88303SOL    HW166741  13.173   4.068  13.938
88303SOL    HW266742  13.053   4.027  14.022
88304SOL     OW66743  13.204   4.311   7.718
88304SOL    HW166744  13.296   4.289   7.708
88304SOL    HW266745  13.199   4.357   7.802
88305SOL     OW66746  13.244   4.494  14.481
88305SOL    HW166747  13.333   4.491  14.516
88305SOL    HW266748  13.229   4.586  14.463
88306SOL     OW66749   6.797   1.752   4.514
88306SOL    HW166750   6.882   1.710   4.501
88306SOL    HW266751   6.739   1.681   4.541
88307SOL     OW66752  14.512  10.924   6.261
88307SOL    HW166753  14.525  11.010   6.221
88307SOL    HW266754  14.450  10.880   6.204
88308SOL     OW66755   0.498   6.024   8.313
88308SOL    HW166756   0.472   6.037   8.222
88308SOL    HW266757   0.588   6.056   8.317
88309SOL     OW66758  10.233  12.772   2.683
88309SOL    HW166759  10.327  12.773   2.666
88309SOL    HW266760  10.224  12.805   2.772
88310SOL     OW66761   0.939   7.726  12.977
88310SOL    HW166762   0.889   7.658  13.022
88310SOL    HW266763   1.006   7.752  13.041
88311SOL     OW66764  14.329   4.284  10.386
88311SOL    HW166765  14.396   4.237  10.437
88311SOL    HW266766  14.320   4.368  10.431
88312SOL     OW66767   8.125  10.811   1.907
88312SOL    HW166768   8.085  10.750   1.969
88312SOL    HW266769   8.211  10.773   1.889
88313SOL     OW66770  14.347  12.756   1.650
88313SOL    HW166771  14.374  12.674   1.692
88313SOL    HW266772  14.328  12.815   1.723
88314SOL     OW66773   2.477  12.653   3.090
88314SOL    HW166774   2.403  12.595   3.070
88314SOL    HW266775   2.467  12.671   3.184
88315SOL     OW66776   6.899   4.300   4.600
88315SOL    HW166777   6.901   4.243   4.523
88315SOL    HW266778   6.820   4.273   4.647
88316SOL     OW66779   8.155   2.701  14.666
88316SOL    HW166780   8.176   2.648  14.743
88316SOL    HW266781   8.201   2.783  14.680
88317SOL     OW66782  12.026   2.757   5.786
88317SOL    HW166783  11.985   2.680   5.825
88317SOL    HW266784  11.953   2.817   5.771
88318SOL     OW66785   7.886  10.674   9.671
88318SOL    HW166786   7.895  10.704   9.761
88318SOL    HW266787   7.792  10.681   9.653
88319SOL     OW66788   0.906   3.865   3.630
88319SOL    HW166789   0.932   3.928   3.696
88319SOL    HW266790   0.852   3.802   3.677
88320SOL     OW66791   2.799   5.153   8.468
88320SOL    HW166792   2.861   5.186   8.533
88320SOL    HW266793   2.853   5.131   8.392
88321SOL     OW66794   7.014   0.768  10.091
88321SOL    HW166795   7.060   0.844  10.127
88321SOL    HW266796   7.084   0.711  10.058
88322SOL     OW66797   8.901   2.202   2.706
88322SOL    HW166798   8.890   2.260   2.782
88322SOL    HW266799   8.829   2.140   2.712
88323SOL     OW66800   6.416   0.195  13.868
88323SOL    HW166801   6.420   0.116  13.816
88323SOL    HW266802   6.493   0.246  13.842
88324SOL     OW66803  12.919  12.508   9.909
88324SOL    HW166804  12.825  12.496   9.897
88324SOL    HW266805  12.929  12.533  10.001
88325SOL     OW66806   7.185   9.532   8.682
88325SOL    HW166807   7.128   9.458   8.704
88325SOL    HW266808   7.240   9.499   8.611
88326SOL     OW66809  13.426   4.061  11.373
88326SOL    HW166810  13.384   4.122  11.311
88326SOL    HW266811  13.381   4.077  11.456
88327SOL     OW66812  11.031  13.300   7.503
88327SOL    HW166813  11.059  13.230   7.562
88327SOL    HW266814  10.970  13.352   7.556
88328SOL     OW66815  13.949   3.376   3.094
88328SOL    HW166816  14.001   3.369   3.014
88328SOL    HW266817  13.919   3.466   3.096
88329SOL     OW66818   7.095  13.326   8.255
88329SOL    HW166819   7.044  13.266   8.201
88329SOL    HW266820   7.152  13.270   8.307
88330SOL     OW66821   1.687   1.066   2.761
88330SOL    HW166822   1.661   1.064   2.853
88330SOL    HW266823   1.659   0.982   2.725
88331SOL     OW66824   8.057   9.439  12.004
88331SOL    HW166825   8.086   9.525  12.035
88331SOL    HW266826   8.087   9.378  12.071
88332SOL     OW66827  10.978  14.772  13.606
88332SOL    HW166828  10.957  14.703  13.542
88332SOL    HW266829  11.010  14.845  13.553
88333SOL     OW66830  12.186   3.118   3.075
88333SOL    HW166831  12.280   3.138   3.081
88333SOL    HW266832  12.152   3.181   3.011
88334SOL     OW66833   1.937   2.886   2.420
88334SOL    HW166834   2.028   2.856   2.411
88334SOL    HW266835   1.889   2.808   2.447
88335SOL     OW66836   0.659   9.516   3.826
88335SOL    HW166837   0.701   9.430   3.827
88335SOL    HW266838   0.605   9.517   3.905
88336SOL     OW66839   6.337   8.227  10.543
88336SOL    HW166840   6.242   8.225  10.555
88336SOL    HW266841   6.372   8.188  10.623
88337SOL     OW66842  11.253   8.807  14.274
88337SOL    HW166843  11.185   8.762  14.224
88337SOL    HW266844  11.234   8.900  14.261
88338SOL     OW66845  12.762   0.989   2.431
88338SOL    HW166846  12.799   0.930   2.366
88338SOL    HW266847  12.837   1.018   2.483
88339SOL     OW66848  10.810   0.964   8.546
88339SOL    HW166849  10.746   0.898   8.570
88339SOL    HW266850  10.766   1.018   8.480
88340SOL     OW66851   1.900  10.812  12.847
88340SOL    HW166852   1.916  10.825  12.754
88340SOL    HW266853   1.980  10.845  12.889
88341SOL     OW66854   0.943   9.225   2.133
88341SOL    HW166855   0.878   9.293   2.146
88341SOL    HW266856   0.893   9.146   2.118
88342SOL     OW66857  11.559   6.178   8.851
88342SOL    HW166858  11.620   6.105   8.846
88342SOL    HW266859  11.480   6.148   8.806
88343SOL     OW66860   6.550  10.405   2.040
88343SOL    HW166861   6.640  10.397   2.008
88343SOL    HW266862   6.552  10.369   2.128
88344SOL     OW66863   2.120  12.269  14.296
88344SOL    HW166864   2.171  12.333  14.345
88344SOL    HW266865   2.036  12.313  14.279
88345SOL     OW66866   4.384  11.594   3.413
88345SOL    HW166867   4.357  11.533   3.344
88345SOL    HW266868   4.479  11.598   3.406
88346SOL     OW66869   4.105   3.168  14.015
88346SOL    HW166870   4.112   3.151  14.109
88346SOL    HW266871   4.154   3.249  14.001
88347SOL     OW66872  11.421   2.314   6.422
88347SOL    HW166873  11.469   2.339   6.343
88347SOL    HW266874  11.395   2.397   6.463
88348SOL     OW66875  12.956  10.820   6.007
88348SOL    HW166876  12.990  10.786   6.089
88348SOL    HW266877  13.014  10.785   5.940
88349SOL     OW66878  11.785   2.054   9.844
88349SOL    HW166879  11.754   1.988   9.783
88349SOL    HW266880  11.820   2.124   9.789
88350SOL     OW66881  10.302   5.703   7.796
88350SOL    HW166882  10.395   5.699   7.818
88350SOL    HW266883  10.290   5.790   7.758
88351SOL     OW66884   7.561  14.122   9.615
88351SOL    HW166885   7.559  14.198   9.673
88351SOL    HW266886   7.649  14.086   9.625
88352SOL     OW66887   2.330   5.003  10.432
88352SOL    HW166888   2.306   5.038  10.519
88352SOL    HW266889   2.321   4.909  10.441
88353SOL     OW66890  10.265  11.652   0.221
88353SOL    HW166891  10.233  11.620   0.136
88353SOL    HW266892  10.289  11.743   0.205
88354SOL     OW66893  11.514   0.422   1.228
88354SOL    HW166894  11.596   0.382   1.198
88354SOL    HW266895  11.446   0.378   1.177
88355SOL     OW66896  11.143   8.853   0.751
88355SOL    HW166897  11.157   8.835   0.658
88355SOL    HW266898  11.214   8.913   0.774
88356SOL     OW66899   7.958   0.539   6.625
88356SOL    HW166900   7.976   0.546   6.719
88356SOL    HW266901   7.870   0.503   6.620
88357SOL     OW66902   5.565   5.735   5.515
88357SOL    HW166903   5.495   5.793   5.543
88357SOL    HW266904   5.643   5.769   5.558
88358SOL     OW66905   7.919   7.694   7.378
88358SOL    HW166906   7.959   7.700   7.292
88358SOL    HW266907   7.969   7.626   7.424
88359SOL     OW66908   5.818   0.812   5.680
88359SOL    HW166909   5.766   0.881   5.638
88359SOL    HW266910   5.818   0.835   5.773
88360SOL     OW66911   6.236   7.703   2.147
88360SOL    HW166912   6.147   7.683   2.120
88360SOL    HW266913   6.287   7.701   2.065
88361SOL     OW66914   8.035   8.352   5.066
88361SOL    HW166915   8.085   8.306   4.999
88361SOL    HW266916   8.034   8.293   5.141
88362SOL     OW66917   6.749  12.393   6.795
88362SOL    HW166918   6.740  12.306   6.834
88362SOL    HW266919   6.789  12.377   6.710
88363SOL     OW66920   8.071   7.974  14.657
88363SOL    HW166921   8.021   8.028  14.596
88363SOL    HW266922   8.028   7.888  14.654
88364SOL     OW66923   1.043   6.257   0.139
88364SOL    HW166924   1.091   6.212   0.070
88364SOL    HW266925   0.953   6.263   0.107
88365SOL     OW66926   1.850   5.879  14.163
88365SOL    HW166927   1.784   5.903  14.227
88365SOL    HW266928   1.933   5.891  14.209
88366SOL     OW66929   3.089  11.931   8.347
88366SOL    HW166930   3.021  11.955   8.284
88366SOL    HW266931   3.128  11.851   8.312
88367SOL     OW66932   2.509  13.796   7.806
88367SOL    HW166933   2.433  13.850   7.785
88367SOL    HW266934   2.481  13.707   7.786
88368SOL     OW66935   3.066   1.988  14.538
88368SOL    HW166936   3.103   1.965  14.623
88368SOL    HW266937   3.066   2.083  14.537
88369SOL     OW66938   1.993   4.292  14.699
88369SOL    HW166939   2.024   4.246  14.621
88369SOL    HW266940   2.037   4.377  14.696
88370SOL     OW66941   1.671   9.379   9.695
88370SOL    HW166942   1.711   9.332   9.768
88370SOL    HW266943   1.585   9.406   9.728
88371SOL     OW66944   2.257   5.909   4.247
88371SOL    HW166945   2.336   5.873   4.206
88371SOL    HW266946   2.197   5.835   4.253
88372SOL     OW66947   2.202   3.051   7.236
88372SOL    HW166948   2.155   3.001   7.169
88372SOL    HW266949   2.174   3.012   7.319
88373SOL     OW66950   1.028   4.557  10.752
88373SOL    HW166951   1.025   4.486  10.817
88373SOL    HW266952   1.031   4.637  10.804
88374SOL     OW66953  13.955  14.500  12.304
88374SOL    HW166954  13.986  14.591  12.312
88374SOL    HW266955  14.001  14.453  12.374
88375SOL     OW66956   3.665   0.562   1.921
88375SOL    HW166957   3.737   0.511   1.883
88375SOL    HW266958   3.651   0.633   1.858
88376SOL     OW66959   6.075  13.835  14.444
88376SOL    HW166960   5.994  13.833  14.495
88376SOL    HW266961   6.067  13.761  14.384
88377SOL     OW66962   5.201  12.491  10.770
88377SOL    HW166963   5.217  12.559  10.704
88377SOL    HW266964   5.163  12.418  10.721
88378SOL     OW66965   9.603   8.378   5.653
88378SOL    HW166966   9.526   8.349   5.703
88378SOL    HW266967   9.635   8.455   5.701
88379SOL     OW66968   8.195   4.051   7.376
88379SOL    HW166969   8.210   3.997   7.454
88379SOL    HW266970   8.174   4.137   7.411
88380SOL     OW66971   2.598   4.894   8.401
88380SOL    HW166972   2.626   4.948   8.475
88380SOL    HW266973   2.502   4.897   8.405
88381SOL     OW66974  14.578   9.934   6.367
88381SOL    HW166975  14.618   9.859   6.322
88381SOL    HW266976  14.651   9.978   6.411
88382SOL     OW66977  14.112  12.306  13.014
88382SOL    HW166978  14.016  12.299  13.007
88382SOL    HW266979  14.142  12.216  13.023
88383SOL     OW66980   5.084   7.717   9.905
88383SOL    HW166981   5.025   7.701   9.978
88383SOL    HW266982   5.171   7.717   9.944
88384SOL     OW66983   7.268   5.263  12.760
88384SOL    HW166984   7.190   5.236  12.712
88384SOL    HW266985   7.289   5.350  12.725
88385SOL     OW66986  10.614  10.203   0.537
88385SOL    HW166987  10.554  10.277   0.529
88385SOL    HW266988  10.700  10.243   0.548
88386SOL     OW66989   5.183   8.100  13.937
88386SOL    HW166990   5.209   8.192  13.931
88386SOL    HW266991   5.207   8.063  13.852
88387SOL     OW66992   3.249   7.324   9.376
88387SOL    HW166993   3.317   7.377   9.335
88387SOL    HW266994   3.287   7.295   9.458
88388SOL     OW66995   0.213   5.717   9.876
88388SOL    HW166996   0.168   5.634   9.859
88388SOL    HW266997   0.257   5.738   9.794
88389SOL     OW66998   0.263   7.351   1.607
88389SOL    HW166999   0.223   7.313   1.529
88389SOL    HW267000   0.238   7.291   1.678
88390SOL     OW67001   9.298   2.540   3.361
88390SOL    HW167002   9.238   2.497   3.422
88390SOL    HW267003   9.383   2.539   3.406
88391SOL     OW67004   5.130  14.814   3.165
88391SOL    HW167005   5.210  14.829   3.216
88391SOL    HW267006   5.105  14.724   3.185
88392SOL     OW67007   8.551  11.308  14.406
88392SOL    HW167008   8.584  11.323  14.318
88392SOL    HW267009   8.458  11.289  14.394
88393SOL     OW67010   3.914   1.165   6.629
88393SOL    HW167011   3.975   1.178   6.557
88393SOL    HW267012   3.962   1.112   6.693
88394SOL     OW67013  13.773  14.317   8.523
88394SOL    HW167014  13.690  14.274   8.543
88394SOL    HW267015  13.828  14.300   8.599
88395SOL     OW67016  12.130   7.722   2.057
88395SOL    HW167017  12.074   7.787   2.018
88395SOL    HW267018  12.162   7.669   1.984
88396SOL     OW67019  11.068  11.965   3.326
88396SOL    HW167020  11.072  12.060   3.332
88396SOL    HW267021  11.131  11.934   3.392
88397SOL     OW67022  12.622   5.911   3.428
88397SOL    HW167023  12.672   5.901   3.347
88397SOL    HW267024  12.627   6.005   3.448
88398SOL     OW67025   6.380   1.565   4.806
88398SOL    HW167026   6.288   1.585   4.825
88398SOL    HW267027   6.399   1.487   4.858
88399SOL     OW67028   7.182  14.207  12.617
88399SOL    HW167029   7.221  14.268  12.680
88399SOL    HW267030   7.088  14.213  12.634
88400SOL     OW67031  13.005   6.472   6.147
88400SOL    HW167032  12.938   6.483   6.215
88400SOL    HW267033  13.039   6.560   6.133
88401SOL     OW67034  11.070   8.168  14.005
88401SOL    HW167035  11.092   8.095  14.064
88401SOL    HW267036  11.138   8.165  13.938
88402SOL     OW67037  13.566   0.034   4.914
88402SOL    HW167038  13.533  14.818   4.897
88402SOL    HW267039  13.644   0.041   4.859
88403SOL     OW67040  11.827   6.424  12.491
88403SOL    HW167041  11.762   6.400  12.556
88403SOL    HW267042  11.794   6.504  12.452
88404SOL     OW67043   0.259  12.625  11.715
88404SOL    HW167044   0.170  12.597  11.734
88404SOL    HW267045   0.314  12.564  11.766
88405SOL     OW67046   8.432   5.655   9.133
88405SOL    HW167047   8.374   5.692   9.066
88405SOL    HW267048   8.479   5.731   9.167
88406SOL     OW67049   4.553   9.005   5.439
88406SOL    HW167050   4.641   8.981   5.470
88406SOL    HW267051   4.520   9.064   5.506
88407SOL     OW67052  11.294   1.643  12.884
88407SOL    HW167053  11.254   1.589  12.953
88407SOL    HW267054  11.230   1.712  12.868
88408SOL     OW67055   8.384   7.003   0.037
88408SOL    HW167056   8.345   6.985  14.823
88408SOL    HW267057   8.309   7.018   0.094
88409SOL     OW67058   7.406  12.965  10.158
88409SOL    HW167059   7.342  12.941  10.091
88409SOL    HW267060   7.423  12.884  10.205
88410SOL     OW67061  13.368   5.955  13.619
88410SOL    HW167062  13.387   5.874  13.666
88410SOL    HW267063  13.273   5.967  13.627
88411SOL     OW67064   0.113  11.800   7.094
88411SOL    HW167065   0.180  11.838   7.151
88411SOL    HW267066   0.122  11.848   7.012
88412SOL     OW67067   4.403   7.785   8.028
88412SOL    HW167068   4.333   7.736   8.072
88412SOL    HW267069   4.427   7.730   7.953
88413SOL     OW67070   7.733  12.870   4.177
88413SOL    HW167071   7.693  12.852   4.262
88413SOL    HW267072   7.684  12.816   4.115
88414SOL     OW67073  12.387   9.223  14.225
88414SOL    HW167074  12.399   9.278  14.147
88414SOL    HW267075  12.436   9.143  14.206
88415SOL     OW67076   8.774   5.668   3.115
88415SOL    HW167077   8.859   5.652   3.075
88415SOL    HW267078   8.792   5.717   3.194
88416SOL     OW67079   7.937   4.633   5.121
88416SOL    HW167080   7.894   4.686   5.189
88416SOL    HW267081   8.002   4.693   5.083
88417SOL     OW67082   9.498   9.707  12.094
88417SOL    HW167083   9.586   9.726  12.061
88417SOL    HW267084   9.507   9.625  12.141
88418SOL     OW67085  13.230   1.338   9.236
88418SOL    HW167086  13.167   1.273   9.203
88418SOL    HW267087  13.177   1.415   9.256
88419SOL     OW67088   6.432  10.536   2.340
88419SOL    HW167089   6.401  10.564   2.253
88419SOL    HW267090   6.367  10.571   2.401
88420SOL     OW67091  11.718   8.813   0.286
88420SOL    HW167092  11.732   8.759   0.208
88420SOL    HW267093  11.788   8.788   0.346
88421SOL     OW67094   9.243  11.807   4.076
88421SOL    HW167095   9.333  11.776   4.085
88421SOL    HW267096   9.193  11.751   4.136
88422SOL     OW67097   5.431   4.001  14.564
88422SOL    HW167098   5.396   3.983  14.477
88422SOL    HW267099   5.516   4.042  14.547
88423SOL     OW67100   0.444   7.426   2.356
88423SOL    HW167101   0.432   7.518   2.382
88423SOL    HW267102   0.357   7.387   2.369
88424SOL     OW67103   4.698   8.034   2.198
88424SOL    HW167104   4.790   8.014   2.178
88424SOL    HW267105   4.699   8.125   2.227
88425SOL     OW67106   2.913   6.007   7.154
88425SOL    HW167107   2.835   6.059   7.133
88425SOL    HW267108   2.984   6.071   7.161
88426SOL     OW67109   0.819   0.437  12.023
88426SOL    HW167110   0.796   0.344  12.027
88426SOL    HW267111   0.852   0.457  12.110
88427SOL     OW67112   4.518   7.602  13.458
88427SOL    HW167113   4.548   7.634  13.373
88427SOL    HW267114   4.466   7.674  13.494
88428SOL     OW67115  14.518   6.691   8.481
88428SOL    HW167116  14.561   6.768   8.519
88428SOL    HW267117  14.548   6.618   8.535
88429SOL     OW67118   9.089   5.054   4.516
88429SOL    HW167119   9.177   5.029   4.547
88429SOL    HW267120   9.030   5.001   4.569
88430SOL     OW67121  10.018   1.525  14.044
88430SOL    HW167122   9.974   1.505  14.127
88430SOL    HW267123  10.068   1.446  14.024
88431SOL     OW67124   9.843   0.216   1.929
88431SOL    HW167125   9.839   0.182   2.018
88431SOL    HW267126   9.755   0.203   1.894
88432SOL     OW67127   1.284   5.267   1.642
88432SOL    HW167128   1.216   5.327   1.614
88432SOL    HW267129   1.356   5.323   1.671
88433SOL     OW67130   0.379  14.284  11.693
88433SOL    HW167131   0.403  14.233  11.771
88433SOL    HW267132   0.373  14.219  11.624
88434SOL     OW67133  13.772   1.790   2.994
88434SOL    HW167134  13.770   1.695   2.987
88434SOL    HW267135  13.731   1.821   2.913
88435SOL     OW67136   7.546   9.383  13.178
88435SOL    HW167137   7.624   9.328  13.165
88435SOL    HW267138   7.479   9.341  13.124
88436SOL     OW67139  13.956   4.222   2.189
88436SOL    HW167140  13.868   4.200   2.161
88436SOL    HW267141  13.945   4.295   2.251
88437SOL     OW67142   5.114   7.073   5.471
88437SOL    HW167143   5.100   7.167   5.484
88437SOL    HW267144   5.043   7.046   5.413
88438SOL     OW67145   2.305  10.400   5.922
88438SOL    HW167146   2.276  10.329   5.866
88438SOL    HW267147   2.328  10.471   5.862
88439SOL     OW67148   2.507   0.222  13.309
88439SOL    HW167149   2.465   0.230  13.395
88439SOL    HW267150   2.514   0.127  13.295
88440SOL     OW67151  13.363   1.342   9.713
88440SOL    HW167152  13.405   1.294   9.642
88440SOL    HW267153  13.270   1.344   9.690
88441SOL     OW67154   4.231   6.129   2.603
88441SOL    HW167155   4.325   6.120   2.620
88441SOL    HW267156   4.225   6.139   2.508
88442SOL     OW67157   1.518   1.183  12.858
88442SOL    HW167158   1.590   1.160  12.800
88442SOL    HW267159   1.481   1.099  12.885
88443SOL     OW67160   5.687   1.631   8.641
88443SOL    HW167161   5.642   1.656   8.561
88443SOL    HW267162   5.686   1.535   8.640
88444SOL     OW67163   0.940   2.230   6.646
88444SOL    HW167164   0.930   2.203   6.737
88444SOL    HW267165   0.921   2.324   6.647
88445SOL     OW67166  10.963   4.195   9.260
88445SOL    HW167167  10.891   4.227   9.315
88445SOL    HW267168  10.930   4.113   9.223
88446SOL     OW67169   4.116   9.734  10.076
88446SOL    HW167170   4.074   9.712  10.159
88446SOL    HW267171   4.206   9.755  10.098
88447SOL     OW67172   2.410   5.298   2.450
88447SOL    HW167173   2.442   5.353   2.521
88447SOL    HW267174   2.485   5.245   2.425
88448SOL     OW67175  11.274  13.193  14.650
88448SOL    HW167176  11.363  13.186  14.617
88448SOL    HW267177  11.232  13.110  14.626
88449SOL     OW67178   0.098  13.961   9.990
88449SOL    HW167179   0.040  13.889   9.966
88449SOL    HW267180   0.161  13.967   9.918
88450SOL     OW67181   0.182   2.716  10.427
88450SOL    HW167182   0.243   2.728  10.354
88450SOL    HW267183   0.116   2.656  10.394
88451SOL     OW67184   2.938   4.817   3.694
88451SOL    HW167185   3.019   4.798   3.646
88451SOL    HW267186   2.869   4.775   3.642
88452SOL     OW67187   7.420  12.426  11.044
88452SOL    HW167188   7.470  12.493  11.092
88452SOL    HW267189   7.343  12.410  11.098
88453SOL     OW67190   2.863   6.814   0.684
88453SOL    HW167191   2.839   6.722   0.686
88453SOL    HW267192   2.959   6.814   0.691
88454SOL     OW67193   5.128  10.780   6.400
88454SOL    HW167194   5.134  10.800   6.306
88454SOL    HW267195   5.069  10.705   6.405
88455SOL     OW67196   5.001   4.738   8.627
88455SOL    HW167197   5.019   4.646   8.646
88455SOL    HW267198   4.917   4.755   8.669
88456SOL     OW67199   6.964   4.169  10.622
88456SOL    HW167200   7.031   4.108  10.652
88456SOL    HW267201   6.976   4.247  10.675
88457SOL     OW67202   5.497   3.313   1.479
88457SOL    HW167203   5.504   3.360   1.562
88457SOL    HW267204   5.567   3.247   1.483
88458SOL     OW67205  14.790  11.409   7.143
88458SOL    HW167206  14.815  11.422   7.051
88458SOL    HW267207  14.862  11.357   7.180
88459SOL     OW67208   6.720   3.804   2.168
88459SOL    HW167209   6.746   3.849   2.248
88459SOL    HW267210   6.741   3.712   2.184
88460SOL     OW67211   5.278   3.737   3.992
88460SOL    HW167212   5.185   3.716   4.007
88460SOL    HW267213   5.284   3.751   3.898
88461SOL     OW67214   4.843  10.421  14.484
88461SOL    HW167215   4.790  10.433  14.405
88461SOL    HW267216   4.790  10.457  14.555
88462SOL     OW67217   6.185   1.401   0.170
88462SOL    HW167218   6.265   1.348   0.164
88462SOL    HW267219   6.183   1.451   0.088
88463SOL     OW67220   0.072   5.259   2.381
88463SOL    HW167221   0.157   5.262   2.338
88463SOL    HW267222   0.056   5.166   2.396
88464SOL     OW67223   2.982   8.787   2.480
88464SOL    HW167224   2.955   8.752   2.565
88464SOL    HW267225   2.900   8.797   2.432
88465SOL     OW67226   5.290   1.639  11.937
88465SOL    HW167227   5.222   1.592  11.890
88465SOL    HW267228   5.356   1.573  11.958
88466SOL     OW67229   2.575   4.966   3.232
88466SOL    HW167230   2.555   5.057   3.211
88466SOL    HW267231   2.638   4.971   3.304
88467SOL     OW67232   2.934   5.290   0.846
88467SOL    HW167233   2.881   5.311   0.770
88467SOL    HW267234   2.874   5.297   0.920
88468SOL     OW67235   6.177   5.466   8.380
88468SOL    HW167236   6.201   5.488   8.290
88468SOL    HW267237   6.249   5.412   8.412
88469SOL     OW67238   1.498   7.509  10.949
88469SOL    HW167239   1.576   7.563  10.936
88469SOL    HW267240   1.489   7.502  11.044
88470SOL     OW67241   9.696  14.755   8.868
88470SOL    HW167242   9.632  14.729   8.934
88470SOL    HW267243   9.646  14.808   8.806
88471SOL     OW67244   9.045   0.975   7.996
88471SOL    HW167245   9.020   0.890   7.960
88471SOL    HW267246   9.121   1.002   7.944
88472SOL     OW67247  12.809   0.725  10.535
88472SOL    HW167248  12.798   0.810  10.578
88472SOL    HW267249  12.760   0.664  10.590
88473SOL     OW67250  11.784  14.574   5.491
88473SOL    HW167251  11.824  14.559   5.576
88473SOL    HW267252  11.849  14.627   5.444
88474SOL     OW67253  10.762   3.157   3.074
88474SOL    HW167254  10.721   3.071   3.081
88474SOL    HW267255  10.699   3.217   3.113
88475SOL     OW67256   7.468   4.555   8.687
88475SOL    HW167257   7.543   4.498   8.702
88475SOL    HW267258   7.498   4.642   8.711
88476SOL     OW67259   6.389  10.408  10.784
88476SOL    HW167260   6.474  10.418  10.741
88476SOL    HW267261   6.394  10.464  10.861
88477SOL     OW67262   8.899   7.984   1.717
88477SOL    HW167263   8.850   7.969   1.798
88477SOL    HW267264   8.943   7.900   1.701
88478SOL     OW67265   4.392   0.486   3.039
88478SOL    HW167266   4.366   0.451   3.124
88478SOL    HW267267   4.337   0.439   2.976
88479SOL     OW67268  13.271  10.612   0.096
88479SOL    HW167269  13.272  10.595   0.001
88479SOL    HW267270  13.362  10.602   0.123
88480SOL     OW67271   4.084   7.403   2.760
88480SOL    HW167272   4.060   7.432   2.848
88480SOL    HW267273   4.011   7.348   2.732
88481SOL     OW67274  11.100  11.121   0.671
88481SOL    HW167275  11.058  11.125   0.585
88481SOL    HW267276  11.190  11.093   0.653
88482SOL     OW67277   2.612  10.160   0.888
88482SOL    HW167278   2.560  10.168   0.808
88482SOL    HW267279   2.584  10.076   0.926
88483SOL     OW67280  14.758   2.722  11.908
88483SOL    HW167281  14.736   2.782  11.980
88483SOL    HW267282  14.762   2.777  11.831
88484SOL     OW67283   8.019  14.418   0.680
88484SOL    HW167284   7.967  14.476   0.737
88484SOL    HW267285   8.082  14.377   0.739
88485SOL     OW67286  12.977  13.706  12.177
88485SOL    HW167287  12.990  13.617  12.210
88485SOL    HW267288  12.885  13.709  12.150
88486SOL     OW67289   5.118   3.551   2.366
88486SOL    HW167290   5.026   3.579   2.365
88486SOL    HW267291   5.141   3.544   2.273
88487SOL     OW67292   9.331   6.716   0.809
88487SOL    HW167293   9.296   6.650   0.869
88487SOL    HW267294   9.325   6.798   0.858
88488SOL     OW67295   8.981   4.360   7.630
88488SOL    HW167296   8.950   4.297   7.695
88488SOL    HW267297   9.015   4.433   7.682
88489SOL     OW67298   5.683  10.533  11.041
88489SOL    HW167299   5.770  10.519  11.080
88489SOL    HW267300   5.623  10.530  11.115
88490SOL     OW67301   9.371  10.181   3.548
88490SOL    HW167302   9.422  10.152   3.623
88490SOL    HW267303   9.379  10.110   3.484
88491SOL     OW67304  10.556   9.473   5.841
88491SOL    HW167305  10.628   9.471   5.905
88491SOL    HW267306  10.577   9.403   5.779
88492SOL     OW67307   1.833   6.712  11.943
88492SOL    HW167308   1.871   6.774  11.880
88492SOL    HW267309   1.801   6.768  12.014
88493SOL     OW67310   9.467   9.917  10.024
88493SOL    HW167311   9.400   9.973   9.983
88493SOL    HW267312   9.432   9.900  10.112
88494SOL     OW67313  11.778   6.266   5.257
88494SOL    HW167314  11.691   6.280   5.293
88494SOL    HW267315  11.768   6.191   5.198
88495SOL     OW67316   6.617  12.720  13.331
88495SOL    HW167317   6.651  12.756  13.249
88495SOL    HW267318   6.643  12.627  13.328
88496SOL     OW67319   5.010  12.365  13.236
88496SOL    HW167320   5.037  12.453  13.262
88496SOL    HW267321   5.076  12.308  13.276
88497SOL     OW67322   6.741  14.494   5.607
88497SOL    HW167323   6.654  14.512   5.571
88497SOL    HW267324   6.798  14.558   5.565
88498SOL     OW67325   6.449   7.074  12.525
88498SOL    HW167326   6.534   7.104  12.555
88498SOL    HW267327   6.391   7.149  12.540
88499SOL     OW67328  14.593  11.442   3.976
88499SOL    HW167329  14.613  11.399   4.058
88499SOL    HW267330  14.498  11.453   3.976
88500SOL     OW67331  14.776  10.074   6.479
88500SOL    HW167332  14.864  10.075   6.442
88500SOL    HW267333  14.791  10.085   6.573
88501SOL     OW67334   8.111   9.991   3.941
88501SOL    HW167335   8.153   9.907   3.920
88501SOL    HW267336   8.157  10.023   4.018
88502SOL     OW67337   3.744   5.088   6.351
88502SOL    HW167338   3.718   5.067   6.440
88502SOL    HW267339   3.717   5.179   6.339
88503SOL     OW67340  10.445   5.430  14.042
88503SOL    HW167341  10.444   5.419  13.947
88503SOL    HW267342  10.382   5.500  14.059
88504SOL     OW67343   2.039  14.445  10.596
88504SOL    HW167344   1.956  14.401  10.576
88504SOL    HW267345   2.014  14.532  10.627
88505SOL     OW67346   5.915  11.794  13.718
88505SOL    HW167347   6.007  11.772  13.732
88505SOL    HW267348   5.899  11.871  13.773
88506SOL     OW67349  13.979   2.201  11.739
88506SOL    HW167350  13.982   2.163  11.827
88506SOL    HW267351  13.886   2.218  11.723
88507SOL     OW67352  10.983  14.650  10.468
88507SOL    HW167353  10.973  14.706  10.545
88507SOL    HW267354  11.041  14.699  10.410
88508SOL     OW67355   8.595  10.711   5.514
88508SOL    HW167356   8.584  10.744   5.603
88508SOL    HW267357   8.679  10.666   5.516
88509SOL     OW67358  10.921   2.058  10.006
88509SOL    HW167359  10.869   2.102  10.072
88509SOL    HW267360  10.857   2.019   9.946
88510SOL     OW67361   3.872   3.955   6.617
88510SOL    HW167362   3.797   3.956   6.677
88510SOL    HW267363   3.853   4.025   6.554
88511SOL     OW67364   6.216   2.958   4.349
88511SOL    HW167365   6.244   2.927   4.262
88511SOL    HW267366   6.136   3.008   4.332
88512SOL     OW67367   4.144   4.052   0.628
88512SOL    HW167368   4.218   4.007   0.669
88512SOL    HW267369   4.070   4.035   0.686
88513SOL     OW67370   6.565   1.349   5.795
88513SOL    HW167371   6.558   1.335   5.701
88513SOL    HW267372   6.659   1.356   5.811
88514SOL     OW67373   2.765   8.476   4.181
88514SOL    HW167374   2.779   8.428   4.100
88514SOL    HW267375   2.777   8.568   4.158
88515SOL     OW67376   8.527   4.721  14.559
88515SOL    HW167377   8.483   4.770  14.490
88515SOL    HW267378   8.614   4.761  14.564
88516SOL     OW67379  11.110   6.022   6.971
88516SOL    HW167380  11.155   5.974   7.041
88516SOL    HW267381  11.068   6.096   7.016
88517SOL     OW67382   2.214   8.326   3.660
88517SOL    HW167383   2.156   8.395   3.628
88517SOL    HW267384   2.160   8.247   3.658
88518SOL     OW67385   0.063   4.422   9.591
88518SOL    HW167386  14.840   4.426   9.599
88518SOL    HW267387   0.078   4.378   9.507
88519SOL     OW67388   7.823   7.082   1.067
88519SOL    HW167389   7.866   7.012   1.018
88519SOL    HW267390   7.755   7.114   1.007
88520SOL     OW67391  13.710   9.282  11.495
88520SOL    HW167392  13.786   9.270  11.438
88520SOL    HW267393  13.637   9.294  11.435
88521SOL     OW67394  10.050   5.967   6.998
88521SOL    HW167395  10.032   5.914   7.075
88521SOL    HW267396   9.964   5.985   6.960
88522SOL     OW67397   5.393   2.988  12.365
88522SOL    HW167398   5.352   2.933  12.432
88522SOL    HW267399   5.437   3.058  12.413
88523SOL     OW67400   5.911   2.001  10.531
88523SOL    HW167401   5.989   2.054  10.512
88523SOL    HW267402   5.908   1.938  10.459
88524SOL     OW67403  12.803  13.795  11.844
88524SOL    HW167404  12.840  13.714  11.810
88524SOL    HW267405  12.781  13.775  11.935
88525SOL     OW67406   6.656   8.433   8.644
88525SOL    HW167407   6.574   8.406   8.602
88525SOL    HW267408   6.690   8.503   8.589
88526SOL     OW67409   9.244   1.996   6.247
88526SOL    HW167410   9.165   2.014   6.196
88526SOL    HW267411   9.303   2.069   6.226
88527SOL     OW67412  12.472   2.335   7.006
88527SOL    HW167413  12.435   2.351   7.092
88527SOL    HW267414  12.414   2.270   6.966
88528SOL     OW67415   9.610   6.705   7.908
88528SOL    HW167416   9.625   6.759   7.830
88528SOL    HW267417   9.659   6.749   7.977
88529SOL     OW67418  13.605   0.190   4.393
88529SOL    HW167419  13.671   0.142   4.342
88529SOL    HW267420  13.548   0.229   4.327
88530SOL     OW67421   6.137  11.235  13.449
88530SOL    HW167422   6.199  11.257  13.380
88530SOL    HW267423   6.178  11.162  13.495
88531SOL     OW67424  10.335  12.885   4.591
88531SOL    HW167425  10.273  12.859   4.660
88531SOL    HW267426  10.357  12.976   4.613
88532SOL     OW67427  12.790  13.545   9.630
88532SOL    HW167428  12.825  13.595   9.557
88532SOL    HW267429  12.862  13.489   9.657
88533SOL     OW67430   2.389   5.233   3.974
88533SOL    HW167431   2.411   5.140   3.963
88533SOL    HW267432   2.321   5.249   3.909
88534SOL     OW67433  14.117   3.539   7.334
88534SOL    HW167434  14.171   3.528   7.255
88534SOL    HW267435  14.094   3.632   7.334
88535SOL     OW67436   5.063  13.781   2.218
88535SOL    HW167437   5.145  13.784   2.267
88535SOL    HW267438   4.995  13.788   2.285
88536SOL     OW67439  13.232   8.003  13.277
88536SOL    HW167440  13.297   8.061  13.317
88536SOL    HW267441  13.282   7.945  13.220
88537SOL     OW67442   1.424   7.184   9.380
88537SOL    HW167443   1.345   7.236   9.395
88537SOL    HW267444   1.415   7.109   9.439
88538SOL     OW67445  12.724   5.999   5.851
88538SOL    HW167446  12.775   5.945   5.790
88538SOL    HW267447  12.669   5.937   5.899
88539SOL     OW67448   6.337   6.755  12.561
88539SOL    HW167449   6.289   6.674  12.575
88539SOL    HW267450   6.286   6.802  12.495
88540SOL     OW67451   3.506   8.114   5.017
88540SOL    HW167452   3.427   8.084   4.971
88540SOL    HW267453   3.541   8.183   4.961
88541SOL     OW67454   9.813   4.194  14.414
88541SOL    HW167455   9.838   4.158  14.499
88541SOL    HW267456   9.733   4.146  14.391
88542SOL     OW67457   3.771   0.499   4.348
88542SOL    HW167458   3.777   0.563   4.419
88542SOL    HW267459   3.680   0.471   4.347
88543SOL     OW67460   0.996   6.032  13.427
88543SOL    HW167461   1.020   6.125  13.431
88543SOL    HW267462   0.900   6.033  13.422
88544SOL     OW67463  13.140   5.948  12.245
88544SOL    HW167464  13.147   5.893  12.167
88544SOL    HW267465  13.051   5.935  12.276
88545SOL     OW67466  11.726   3.706   6.401
88545SOL    HW167467  11.714   3.792   6.442
88545SOL    HW267468  11.685   3.644   6.462
88546SOL     OW67469   6.014   0.693   9.168
88546SOL    HW167470   5.974   0.660   9.249
88546SOL    HW267471   5.951   0.757   9.134
88547SOL     OW67472   8.133   2.250  12.700
88547SOL    HW167473   8.070   2.225  12.767
88547SOL    HW267474   8.188   2.317  12.742
88548SOL     OW67475  12.941   1.326   1.976
88548SOL    HW167476  13.012   1.309   2.038
88548SOL    HW267477  12.925   1.242   1.934
88549SOL     OW67478  11.205  14.247   9.973
88549SOL    HW167479  11.141  14.278  10.037
88549SOL    HW267480  11.219  14.155   9.995
88550SOL     OW67481   0.076   1.898  14.677
88550SOL    HW167482   0.112   1.982  14.703
88550SOL    HW267483   0.001   1.920  14.621
88551SOL     OW67484   2.973   0.197   2.263
88551SOL    HW167485   2.938   0.134   2.200
88551SOL    HW267486   2.953   0.283   2.226
88552SOL     OW67487  12.971   2.337  13.908
88552SOL    HW167488  12.937   2.426  13.922
88552SOL    HW267489  12.960   2.295  13.993
88553SOL     OW67490   0.188   7.055  10.822
88553SOL    HW167491   0.159   6.993  10.756
88553SOL    HW267492   0.224   7.000  10.892
88554SOL     OW67493  11.320   2.767   2.021
88554SOL    HW167494  11.278   2.842   1.980
88554SOL    HW267495  11.375   2.730   1.952
88555SOL     OW67496   9.667  11.916   8.723
88555SOL    HW167497   9.709  11.988   8.771
88555SOL    HW267498   9.736  11.880   8.668
88556SOL     OW67499   6.427  10.880   9.846
88556SOL    HW167500   6.433  10.785   9.832
88556SOL    HW267501   6.518  10.909   9.852
88557SOL     OW67502  11.521  13.916   0.719
88557SOL    HW167503  11.487  13.997   0.680
88557SOL    HW267504  11.602  13.942   0.762
88558SOL     OW67505  11.388   2.488   9.788
88558SOL    HW167506  11.394   2.393   9.799
88558SOL    HW267507  11.298   2.510   9.812
88559SOL     OW67508   6.923   8.122   8.389
88559SOL    HW167509   6.995   8.062   8.409
88559SOL    HW267510   6.942   8.200   8.440
88560SOL     OW67511   4.137   8.718  13.712
88560SOL    HW167512   4.059   8.712  13.767
88560SOL    HW267513   4.196   8.650  13.745
88561SOL     OW67514   3.760   2.130  13.590
88561SOL    HW167515   3.765   2.119  13.496
88561SOL    HW267516   3.733   2.045  13.624
88562SOL     OW67517  12.032   3.195   1.101
88562SOL    HW167518  12.063   3.188   1.011
88562SOL    HW267519  12.001   3.285   1.109
88563SOL     OW67520  13.074   5.499   1.554
88563SOL    HW167521  13.147   5.519   1.612
88563SOL    HW267522  13.011   5.569   1.569
88564SOL     OW67523   5.203  13.275   6.511
88564SOL    HW167524   5.216  13.226   6.430
88564SOL    HW267525   5.277  13.335   6.515
88565SOL     OW67526   6.724  10.894  10.168
88565SOL    HW167527   6.810  10.881  10.209
88565SOL    HW267528   6.733  10.854  10.081
88566SOL     OW67529   1.449   4.763  14.510
88566SOL    HW167530   1.510   4.793  14.578
88566SOL    HW267531   1.440   4.669  14.527
88567SOL     OW67532   7.911  14.433   7.374
88567SOL    HW167533   7.845  14.365   7.368
88567SOL    HW267534   7.979  14.406   7.312
88568SOL     OW67535   3.282  14.154   6.118
88568SOL    HW167536   3.246  14.237   6.150
88568SOL    HW267537   3.373  14.154   6.149
88569SOL     OW67538   2.800  14.597   1.153
88569SOL    HW167539   2.713  14.616   1.188
88569SOL    HW267540   2.801  14.640   1.068
88570SOL     OW67541  13.271   9.571  10.195
88570SOL    HW167542  13.332   9.578  10.268
88570SOL    HW267543  13.316   9.515  10.132
88571SOL     OW67544   2.827   8.728  13.857
88571SOL    HW167545   2.864   8.644  13.884
88571SOL    HW267546   2.894   8.793  13.881
88572SOL     OW67547   4.181  14.794   2.160
88572SOL    HW167548   4.097  14.812   2.119
88572SOL    HW267549   4.239  14.862   2.125
88573SOL     OW67550   4.865  12.567   1.902
88573SOL    HW167551   4.795  12.605   1.848
88573SOL    HW267552   4.826  12.488   1.939
88574SOL     OW67553   5.886   1.083  14.640
88574SOL    HW167554   5.843   1.085  14.725
88574SOL    HW267555   5.850   1.158  14.593
88575SOL     OW67556   8.648  13.175   9.165
88575SOL    HW167557   8.691  13.094   9.140
88575SOL    HW267558   8.596  13.152   9.242
88576SOL     OW67559   0.697   7.470  12.874
88576SOL    HW167560   0.772   7.469  12.932
88576SOL    HW267561   0.728   7.515  12.795
88577SOL     OW67562  11.805   5.447   1.949
88577SOL    HW167563  11.872   5.466   2.015
88577SOL    HW267564  11.771   5.533   1.924
88578SOL     OW67565   8.916  14.004  11.976
88578SOL    HW167566   8.982  14.074  11.975
88578SOL    HW267567   8.967  13.923  11.976
88579SOL     OW67568   6.057  11.054   9.995
88579SOL    HW167569   6.051  11.078   9.902
88579SOL    HW267570   6.035  11.134  10.042
88580SOL     OW67571   8.302  14.600   5.889
88580SOL    HW167572   8.208  14.610   5.898
88580SOL    HW267573   8.313  14.528   5.826
88581SOL     OW67574  14.345   4.572   1.246
88581SOL    HW167575  14.411   4.546   1.182
88581SOL    HW267576  14.380   4.653   1.284
88582SOL     OW67577  14.742  11.947  10.818
88582SOL    HW167578  14.791  11.992  10.749
88582SOL    HW267579  14.804  11.942  10.891
88583SOL     OW67580   1.816   2.663   5.271
88583SOL    HW167581   1.770   2.732   5.223
88583SOL    HW267582   1.746   2.604   5.300
88584SOL     OW67583  11.613   3.850  13.926
88584SOL    HW167584  11.629   3.928  13.872
88584SOL    HW267585  11.651   3.778  13.875
88585SOL     OW67586   7.255   1.297   7.511
88585SOL    HW167587   7.174   1.249   7.491
88585SOL    HW267588   7.305   1.294   7.429
88586SOL     OW67589  11.006  12.322  11.179
88586SOL    HW167590  10.967  12.234  11.178
88586SOL    HW267591  11.095  12.309  11.211
88587SOL     OW67592   5.082  13.750   6.884
88587SOL    HW167593   5.056  13.722   6.796
88587SOL    HW267594   5.009  13.722   6.940
88588SOL     OW67595  13.264  14.299   5.107
88588SOL    HW167596  13.229  14.216   5.074
88588SOL    HW267597  13.190  14.338   5.154
88589SOL     OW67598   3.302   0.033  12.897
88589SOL    HW167599   3.292  14.847  12.822
88589SOL    HW267600   3.250   0.110  12.874
88590SOL     OW67601   7.539   7.962   5.329
88590SOL    HW167602   7.538   7.867   5.340
88590SOL    HW267603   7.461   7.993   5.374
88591SOL     OW67604   7.800  10.340   3.132
88591SOL    HW167605   7.862  10.306   3.066
88591SOL    HW267606   7.743  10.265   3.150
88592SOL     OW67607   9.102  12.751   0.184
88592SOL    HW167608   9.054  12.827   0.150
88592SOL    HW267609   9.040  12.679   0.177
88593SOL     OW67610   9.877   0.588   0.814
88593SOL    HW167611   9.826   0.668   0.824
88593SOL    HW267612   9.968   0.616   0.821
88594SOL     OW67613   0.685  10.649   8.412
88594SOL    HW167614   0.718  10.682   8.496
88594SOL    HW267615   0.762  10.615   8.368
88595SOL     OW67616   8.215   4.893   7.483
88595SOL    HW167617   8.283   4.913   7.420
88595SOL    HW267618   8.214   4.797   7.488
88596SOL     OW67619   0.940   3.611   5.497
88596SOL    HW167620   0.857   3.648   5.525
88596SOL    HW267621   1.003   3.643   5.562
88597SOL     OW67622  10.561  13.760   4.550
88597SOL    HW167623  10.656  13.770   4.543
88597SOL    HW267624  10.543  13.762   4.644
88598SOL     OW67625   5.728   7.368  12.810
88598SOL    HW167626   5.777   7.357  12.891
88598SOL    HW267627   5.765   7.447  12.770
88599SOL     OW67628   2.318   6.322   3.318
88599SOL    HW167629   2.293   6.230   3.307
88599SOL    HW267630   2.260   6.369   3.257
88600SOL     OW67631   2.045  10.270   6.655
88600SOL    HW167632   2.126  10.270   6.604
88600SOL    HW267633   2.067  10.316   6.736
88601SOL     OW67634   7.506   9.055   1.609
88601SOL    HW167635   7.536   9.088   1.524
88601SOL    HW267636   7.469   8.969   1.589
88602SOL     OW67637   1.404   6.972   5.392
88602SOL    HW167638   1.308   6.970   5.397
88602SOL    HW267639   1.431   6.998   5.480
88603SOL     OW67640   4.605   9.821   8.358
88603SOL    HW167641   4.577   9.796   8.446
88603SOL    HW267642   4.524   9.826   8.307
88604SOL     OW67643   7.105   4.526   5.745
88604SOL    HW167644   7.024   4.574   5.764
88604SOL    HW267645   7.109   4.458   5.812
88605SOL     OW67646  10.127  14.239   3.007
88605SOL    HW167647  10.036  14.259   3.029
88605SOL    HW267648  10.172  14.236   3.092
88606SOL     OW67649  10.442   4.941   3.727
88606SOL    HW167650  10.384   4.990   3.669
88606SOL    HW267651  10.428   4.849   3.703
88607SOL     OW67652   0.349  14.478   2.836
88607SOL    HW167653   0.327  14.426   2.759
88607SOL    HW267654   0.369  14.413   2.904
88608SOL     OW67655   4.772   4.413   0.946
88608SOL    HW167656   4.714   4.338   0.929
88608SOL    HW267657   4.729   4.461   1.016
88609SOL     OW67658   4.461  14.329   3.864
88609SOL    HW167659   4.411  14.411   3.863
88609SOL    HW267660   4.414  14.272   3.804
88610SOL     OW67661   0.372   1.863   0.557
88610SOL    HW167662   0.322   1.810   0.495
88610SOL    HW267663   0.358   1.821   0.642
88611SOL     OW67664  12.273   2.627   9.483
88611SOL    HW167665  12.266   2.715   9.521
88611SOL    HW267666  12.294   2.643   9.391
88612SOL     OW67667   8.526   5.492  10.144
88612SOL    HW167668   8.552   5.561  10.082
88612SOL    HW267669   8.553   5.525  10.230
88613SOL     OW67670   9.142   7.908   4.879
88613SOL    HW167671   9.192   7.983   4.911
88613SOL    HW267672   9.077   7.892   4.947
88614SOL     OW67673  11.725   1.440   1.021
88614SOL    HW167674  11.669   1.394   0.959
88614SOL    HW267675  11.669   1.508   1.059
88615SOL     OW67676   1.196   4.568   3.468
88615SOL    HW167677   1.262   4.516   3.513
88615SOL    HW267678   1.121   4.570   3.528
88616SOL     OW67679   7.418   0.625  12.924
88616SOL    HW167680   7.403   0.532  12.908
88616SOL    HW267681   7.508   0.629  12.956
88617SOL     OW67682   6.057   3.051  14.307
88617SOL    HW167683   6.062   2.969  14.356
88617SOL    HW267684   6.148   3.072  14.286
88618SOL     OW67685  12.342   0.711  11.171
88618SOL    HW167686  12.297   0.650  11.230
88618SOL    HW267687  12.435   0.686  11.177
88619SOL     OW67688   4.609   3.073  12.229
88619SOL    HW167689   4.699   3.056  12.199
88619SOL    HW267690   4.566   3.112  12.153
88620SOL     OW67691   4.230  14.099   2.210
88620SOL    HW167692   4.206  14.036   2.278
88620SOL    HW267693   4.165  14.169   2.218
88621SOL     OW67694   3.236   0.740   3.838
88621SOL    HW167695   3.218   0.718   3.929
88621SOL    HW267696   3.319   0.697   3.818
88622SOL     OW67697   8.381   8.445  13.138
88622SOL    HW167698   8.407   8.418  13.050
88622SOL    HW267699   8.287   8.460  13.132
88623SOL     OW67700  11.968  11.655  11.621
88623SOL    HW167701  11.912  11.731  11.638
88623SOL    HW267702  12.041  11.666  11.683
88624SOL     OW67703   1.862  13.881   9.715
88624SOL    HW167704   1.862  13.915   9.804
88624SOL    HW267705   1.784  13.825   9.711
88625SOL     OW67706   5.483   1.818   8.376
88625SOL    HW167707   5.482   1.726   8.347
88625SOL    HW267708   5.419   1.821   8.447
88626SOL     OW67709  11.697   3.536  10.977
88626SOL    HW167710  11.608   3.544  10.942
88626SOL    HW267711  11.705   3.444  11.003
88627SOL     OW67712  14.298  11.646   6.792
88627SOL    HW167713  14.354  11.645   6.869
88627SOL    HW267714  14.293  11.554   6.765
88628SOL     OW67715   2.720   8.998   1.875
88628SOL    HW167716   2.692   9.039   1.792
88628SOL    HW267717   2.673   8.915   1.878
88629SOL     OW67718  14.790   7.272   1.708
88629SOL    HW167719  14.710   7.224   1.729
88629SOL    HW267720  14.854   7.242   1.772
88630SOL     OW67721   7.157   6.149   9.653
88630SOL    HW167722   7.108   6.196   9.721
88630SOL    HW267723   7.166   6.213   9.582
88631SOL     OW67724  11.221   4.194  10.313
88631SOL    HW167725  11.287   4.147  10.364
88631SOL    HW267726  11.216   4.280  10.356
88632SOL     OW67727   4.675  10.002   3.402
88632SOL    HW167728   4.696   9.949   3.479
88632SOL    HW267729   4.708   9.951   3.328
88633SOL     OW67730  12.494  11.115  12.516
88633SOL    HW167731  12.479  11.083  12.605
88633SOL    HW267732  12.539  11.043  12.472
88634SOL     OW67733   2.487   7.771   5.190
88634SOL    HW167734   2.436   7.737   5.264
88634SOL    HW267735   2.578   7.767   5.220
88635SOL     OW67736   1.549   0.993  11.091
88635SOL    HW167737   1.629   1.043  11.109
88635SOL    HW267738   1.528   0.950  11.174
88636SOL     OW67739   2.469   7.834   2.707
88636SOL    HW167740   2.392   7.832   2.763
88636SOL    HW267741   2.499   7.924   2.710
88637SOL     OW67742   1.496  13.282  11.906
88637SOL    HW167743   1.523  13.369  11.874
88637SOL    HW267744   1.410  13.297  11.945
88638SOL     OW67745   2.428   4.708   4.977
88638SOL    HW167746   2.443   4.736   5.067
88638SOL    HW267747   2.506   4.657   4.954
88639SOL     OW67748   5.336   3.651   5.772
88639SOL    HW167749   5.430   3.631   5.771
88639SOL    HW267750   5.332   3.745   5.788
88640SOL     OW67751   3.457   7.918   5.392
88640SOL    HW167752   3.501   7.834   5.379
88640SOL    HW267753   3.363   7.896   5.391
88641SOL     OW67754  13.545  11.354   9.740
88641SOL    HW167755  13.569  11.280   9.796
88641SOL    HW267756  13.628  11.383   9.702
88642SOL     OW67757  10.108  11.764   3.309
88642SOL    HW167758  10.043  11.798   3.248
88642SOL    HW267759  10.072  11.680   3.338
88643SOL     OW67760   0.955   5.458  14.423
88643SOL    HW167761   1.046   5.454  14.392
88643SOL    HW267762   0.903   5.440  14.345
88644SOL     OW67763   5.147  11.899  10.155
88644SOL    HW167764   5.173  11.977  10.105
88644SOL    HW267765   5.126  11.834  10.089
88645SOL     OW67766   9.640   9.122   5.606
88645SOL    HW167767   9.730   9.103   5.579
88645SOL    HW267768   9.594   9.039   5.596
88646SOL     OW67769  11.971   0.547   3.005
88646SOL    HW167770  11.933   0.460   2.993
88646SOL    HW267771  11.948   0.594   2.925
88647SOL     OW67772   6.408  12.384   0.726
88647SOL    HW167773   6.313  12.382   0.727
88647SOL    HW267774   6.435  12.295   0.749
88648SOL     OW67775   5.594   4.158  13.921
88648SOL    HW167776   5.677   4.138  13.965
88648SOL    HW267777   5.575   4.079  13.869
88649SOL     OW67778   5.318  12.770   5.701
88649SOL    HW167779   5.341  12.858   5.730
88649SOL    HW267780   5.331  12.771   5.606
88650SOL     OW67781   1.537   5.163   7.859
88650SOL    HW167782   1.521   5.128   7.946
88650SOL    HW267783   1.629   5.188   7.858
88651SOL     OW67784   3.399   5.480   5.213
88651SOL    HW167785   3.338   5.408   5.231
88651SOL    HW267786   3.452   5.448   5.139
88652SOL     OW67787  12.681   3.522  13.240
88652SOL    HW167788  12.615   3.587  13.215
88652SOL    HW267789  12.699   3.474  13.159
88653SOL     OW67790   9.512   6.258   1.107
88653SOL    HW167791   9.481   6.212   1.185
88653SOL    HW267792   9.580   6.318   1.139
88654SOL     OW67793   9.932   0.053  10.829
88654SOL    HW167794   9.846   0.091  10.814
88654SOL    HW267795   9.955   0.079  10.918
88655SOL     OW67796   2.678   7.662   4.812
88655SOL    HW167797   2.765   7.630   4.789
88655SOL    HW267798   2.695   7.742   4.863
88656SOL     OW67799   2.268   4.023   1.598
88656SOL    HW167800   2.308   3.967   1.664
88656SOL    HW267801   2.294   4.111   1.622
88657SOL     OW67802   5.637  10.338   2.044
88657SOL    HW167803   5.704  10.271   2.035
88657SOL    HW267804   5.555  10.295   2.021
88658SOL     OW67805   8.054  14.235   3.837
88658SOL    HW167806   8.045  14.259   3.929
88658SOL    HW267807   7.974  14.269   3.795
88659SOL     OW67808   5.977   9.413  12.914
88659SOL    HW167809   6.000   9.470  12.988
88659SOL    HW267810   6.000   9.325  12.944
88660SOL     OW67811   6.700   7.509   6.470
88660SOL    HW167812   6.772   7.570   6.486
88660SOL    HW267813   6.705   7.447   6.543
88661SOL     OW67814   4.416   8.504  10.908
88661SOL    HW167815   4.481   8.445  10.873
88661SOL    HW267816   4.374   8.455  10.979
88662SOL     OW67817  13.697   7.721   9.448
88662SOL    HW167818  13.697   7.782   9.374
88662SOL    HW267819  13.752   7.764   9.514
88663SOL     OW67820   6.844  10.616   7.232
88663SOL    HW167821   6.779  10.547   7.246
88663SOL    HW267822   6.854  10.657   7.318
88664SOL     OW67823   6.924   8.314   8.611
88664SOL    HW167824   6.921   8.234   8.663
88664SOL    HW267825   6.835   8.349   8.615
88665SOL     OW67826  13.620   5.733   0.942
88665SOL    HW167827  13.534   5.700   0.966
88665SOL    HW267828  13.657   5.765   1.024
88666SOL     OW67829   8.960  14.143   3.769
88666SOL    HW167830   9.051  14.170   3.764
88666SOL    HW267831   8.957  14.059   3.724
88667SOL     OW67832  11.242   5.898   0.082
88667SOL    HW167833  11.264   5.814   0.041
88667SOL    HW267834  11.324   5.947   0.079
88668SOL     OW67835   1.786  10.764   1.667
88668SOL    HW167836   1.845  10.689   1.660
88668SOL    HW267837   1.843  10.837   1.692
88669SOL     OW67838  13.305   6.728   3.061
88669SOL    HW167839  13.209   6.725   3.065
88669SOL    HW267840  13.329   6.648   3.013
88670SOL     OW67841   1.561   2.258   5.576
88670SOL    HW167842   1.547   2.194   5.506
88670SOL    HW267843   1.477   2.263   5.620
88671SOL     OW67844   4.442  12.266  10.862
88671SOL    HW167845   4.491  12.332  10.813
88671SOL    HW267846   4.466  12.282  10.954
88672SOL     OW67847  11.656   9.341   1.581
88672SOL    HW167848  11.601   9.418   1.567
88672SOL    HW267849  11.653   9.327   1.676
88673SOL     OW67850   8.177   4.969   1.524
88673SOL    HW167851   8.237   4.979   1.450
88673SOL    HW267852   8.233   4.964   1.601
88674SOL     OW67853  11.364   2.340   3.468
88674SOL    HW167854  11.437   2.362   3.526
88674SOL    HW267855  11.406   2.322   3.383
88675SOL     OW67856  11.921   3.982   7.320
88675SOL    HW167857  11.975   4.061   7.319
88675SOL    HW267858  11.971   3.918   7.269
88676SOL     OW67859  10.458   5.974   6.586
88676SOL    HW167860  10.411   5.947   6.508
88676SOL    HW267861  10.543   6.005   6.553
88677SOL     OW67862   5.638   1.939   2.802
88677SOL    HW167863   5.668   2.027   2.822
88677SOL    HW267864   5.583   1.949   2.725
88678SOL     OW67865   8.964  11.246   2.068
88678SOL    HW167866   8.909  11.186   2.016
88678SOL    HW267867   8.973  11.323   2.013
88679SOL     OW67868   4.789  11.976   3.129
88679SOL    HW167869   4.783  11.975   3.225
88679SOL    HW267870   4.851  11.906   3.109
88680SOL     OW67871   9.487  13.300   3.021
88680SOL    HW167872   9.529  13.328   3.102
88680SOL    HW267873   9.558  13.298   2.956
88681SOL     OW67874  12.343  10.472  11.012
88681SOL    HW167875  12.403  10.546  11.009
88681SOL    HW267876  12.343  10.444  11.103
88682SOL     OW67877   8.325   0.343  13.242
88682SOL    HW167878   8.348   0.253  13.220
88682SOL    HW267879   8.405   0.381  13.279
88683SOL     OW67880   4.239  10.234   5.547
88683SOL    HW167881   4.157  10.246   5.595
88683SOL    HW267882   4.251  10.139   5.543
88684SOL     OW67883   0.227   0.696  12.361
88684SOL    HW167884   0.209   0.707  12.454
88684SOL    HW267885   0.257   0.782  12.332
88685SOL     OW67886   4.468   6.523   2.243
88685SOL    HW167887   4.503   6.455   2.186
88685SOL    HW267888   4.541   6.547   2.299
88686SOL     OW67889  13.179   6.546   3.583
88686SOL    HW167890  13.168   6.599   3.662
88686SOL    HW267891  13.244   6.593   3.531
88687SOL     OW67892  11.535  13.833   9.469
88687SOL    HW167893  11.625  13.836   9.437
88687SOL    HW267894  11.539  13.774   9.545
88688SOL     OW67895   6.809  14.161  13.067
88688SOL    HW167896   6.801  14.111  12.986
88688SOL    HW267897   6.764  14.108  13.133
88689SOL     OW67898   4.514  10.203   9.010
88689SOL    HW167899   4.577  10.232   8.944
88689SOL    HW267900   4.497  10.281   9.063
88690SOL     OW67901   3.351   3.782  14.807
88690SOL    HW167902   3.353   3.851   0.001
88690SOL    HW267903   3.401   3.818  14.734
88691SOL     OW67904   9.974   9.978  13.895
88691SOL    HW167905   9.900   9.920  13.912
88691SOL    HW267906   9.992   9.967  13.802
88692SOL     OW67907   2.845   8.013   9.581
88692SOL    HW167908   2.900   7.935   9.573
88692SOL    HW267909   2.900   8.084   9.545
88693SOL     OW67910   4.320   8.016  13.274
88693SOL    HW167911   4.259   8.047  13.341
88693SOL    HW267912   4.372   7.949  13.318
88694SOL     OW67913   2.582   3.115   4.976
88694SOL    HW167914   2.540   3.082   5.055
88694SOL    HW267915   2.597   3.208   4.993
88695SOL     OW67916   7.184  12.800   2.033
88695SOL    HW167917   7.274  12.773   2.049
88695SOL    HW267918   7.139  12.720   2.005
88696SOL     OW67919   8.850   0.622  14.626
88696SOL    HW167920   8.930   0.624  14.677
88696SOL    HW267921   8.797   0.552  14.665
88697SOL     OW67922   8.444   9.054   8.723
88697SOL    HW167923   8.484   9.127   8.676
88697SOL    HW267924   8.516   8.994   8.740
88698SOL     OW67925   0.880   5.975   6.060
88698SOL    HW167926   0.895   6.028   6.138
88698SOL    HW267927   0.822   6.029   6.005
88699SOL     OW67928   2.659  11.638   9.276
88699SOL    HW167929   2.614  11.685   9.207
88699SOL    HW267930   2.638  11.546   9.260
88700SOL     OW67931   8.850  12.248  11.931
88700SOL    HW167932   8.934  12.271  11.971
88700SOL    HW267933   8.784  12.288  11.988
88701SOL     OW67934   3.132   4.516   0.946
88701SOL    HW167935   3.203   4.528   0.882
88701SOL    HW267936   3.177   4.513   1.031
88702SOL     OW67937  11.570  13.160  12.510
88702SOL    HW167938  11.633  13.231  12.498
88702SOL    HW267939  11.616  13.082  12.481
88703SOL     OW67940   8.963   8.991  10.151
88703SOL    HW167941   9.051   8.972  10.118
88703SOL    HW267942   8.965   9.084  10.174
88704SOL     OW67943   4.849  11.519   3.043
88704SOL    HW167944   4.756  11.534   3.026
88704SOL    HW267945   4.850  11.444   3.103
88705SOL     OW67946  11.003  13.824   6.475
88705SOL    HW167947  10.923  13.836   6.424
88705SOL    HW267948  11.055  13.902   6.457
88706SOL     OW67949  14.710   8.823  10.049
88706SOL    HW167950  14.722   8.917  10.062
88706SOL    HW267951  14.735   8.784  10.133
88707SOL     OW67952   6.410   9.505  13.330
88707SOL    HW167953   6.399   9.555  13.411
88707SOL    HW267954   6.466   9.432  13.355
88708SOL     OW67955  10.104  10.895   2.621
88708SOL    HW167956  10.047  10.932   2.553
88708SOL    HW267957  10.115  10.804   2.596
88709SOL     OW67958   2.360   0.992   9.720
88709SOL    HW167959   2.278   1.003   9.768
88709SOL    HW267960   2.355   0.904   9.682
88710SOL     OW67961  11.391   9.747   3.323
88710SOL    HW167962  11.387   9.830   3.276
88710SOL    HW267963  11.430   9.686   3.261
88711SOL     OW67964   8.563   7.407   6.014
88711SOL    HW167965   8.482   7.449   5.986
88711SOL    HW267966   8.627   7.478   6.017
88712SOL     OW67967   3.367  12.757  10.629
88712SOL    HW167968   3.367  12.848  10.600
88712SOL    HW267969   3.392  12.761  10.721
88713SOL     OW67970   8.154  14.409   4.387
88713SOL    HW167971   8.178  14.356   4.311
88713SOL    HW267972   8.175  14.355   4.463
88714SOL     OW67973  10.509  11.365   5.581
88714SOL    HW167974  10.482  11.274   5.583
88714SOL    HW267975  10.543  11.379   5.493
88715SOL     OW67976   9.413   8.472   5.212
88715SOL    HW167977   9.508   8.479   5.205
88715SOL    HW267978   9.396   8.378   5.216
88716SOL     OW67979   1.309   6.051   5.666
88716SOL    HW167980   1.229   6.047   5.718
88716SOL    HW267981   1.282   6.090   5.583
88717SOL     OW67982   1.115   4.439   1.757
88717SOL    HW167983   1.113   4.388   1.676
88717SOL    HW267984   1.034   4.413   1.803
88718SOL     OW67985   6.233  10.203   0.513
88718SOL    HW167986   6.268  10.286   0.545
88718SOL    HW267987   6.296  10.137   0.542
88719SOL     OW67988  12.856   7.257  14.726
88719SOL    HW167989  12.790   7.189  14.711
88719SOL    HW267990  12.934   7.225  14.682
88720SOL     OW67991  11.201   9.256   6.485
88720SOL    HW167992  11.136   9.326   6.498
88720SOL    HW267993  11.189   9.231   6.393
88721SOL     OW67994   0.183   7.317   0.994
88721SOL    HW167995   0.126   7.241   0.983
88721SOL    HW267996   0.264   7.282   1.031
88722SOL     OW67997   5.378   1.856  12.731
88722SOL    HW167998   5.376   1.948  12.707
88722SOL    HW267999   5.469   1.839  12.752
88723SOL     OW68000   2.184   6.443  12.493
88723SOL    HW168001   2.143   6.467  12.410
88723SOL    HW268002   2.149   6.356  12.512
88724SOL     OW68003   7.462   7.494   7.394
88724SOL    HW168004   7.385   7.520   7.445
88724SOL    HW268005   7.499   7.577   7.364
88725SOL     OW68006  12.035  10.151  13.245
88725SOL    HW168007  12.050  10.069  13.291
88725SOL    HW268008  11.945  10.146  13.215
88726SOL     OW68009  14.523  12.905   3.157
88726SOL    HW168010  14.435  12.945   3.159
88726SOL    HW268011  14.512  12.821   3.201
88727SOL     OW68012  14.399   7.698   5.146
88727SOL    HW168013  14.439   7.785   5.152
88727SOL    HW268014  14.415   7.671   5.055
88728SOL     OW68015  14.252  12.700  12.175
88728SOL    HW168016  14.225  12.674  12.087
88728SOL    HW268017  14.226  12.628  12.231
88729SOL     OW68018   8.488  11.662   0.981
88729SOL    HW168019   8.481  11.594   1.049
88729SOL    HW268020   8.484  11.613   0.898
88730SOL     OW68021  11.713  13.155   2.827
88730SOL    HW168022  11.784  13.210   2.860
88730SOL    HW268023  11.634  13.208   2.841
88731SOL     OW68024  12.874   7.258   7.654
88731SOL    HW168025  12.788   7.285   7.685
88731SOL    HW268026  12.917   7.340   7.628
88732SOL     OW68027   8.522  13.888   4.709
88732SOL    HW168028   8.496  13.979   4.721
88732SOL    HW268029   8.597  13.876   4.768
88733SOL     OW68030   8.247   9.018   6.432
88733SOL    HW168031   8.226   9.048   6.344
88733SOL    HW268032   8.190   8.942   6.446
88734SOL     OW68033   7.807   7.970   3.989
88734SOL    HW168034   7.857   7.889   4.000
88734SOL    HW268035   7.822   8.020   4.069
88735SOL     OW68036  10.095   3.631   0.081
88735SOL    HW168037  10.057   3.608   0.166
88735SOL    HW268038  10.077   3.555   0.025
88736SOL     OW68039  10.884   0.635   4.158
88736SOL    HW168040  10.836   0.698   4.103
88736SOL    HW268041  10.972   0.634   4.122
88737SOL     OW68042  12.687   5.247   1.977
88737SOL    HW168043  12.631   5.242   1.900
88737SOL    HW268044  12.679   5.161   2.018
88738SOL     OW68045   0.822   4.119   6.740
88738SOL    HW168046   0.773   4.037   6.747
88738SOL    HW268047   0.781   4.176   6.805
88739SOL     OW68048  10.558  11.882   9.538
88739SOL    HW168049  10.592  11.920   9.619
88739SOL    HW268050  10.635  11.869   9.483
88740SOL     OW68051   8.358   4.689   2.093
88740SOL    HW168052   8.334   4.653   2.007
88740SOL    HW268053   8.300   4.644   2.155
88741SOL     OW68054   6.540   7.388  11.594
88741SOL    HW168055   6.506   7.298  11.590
88741SOL    HW268056   6.524   7.423  11.506
88742SOL     OW68057   6.078  11.533   4.791
88742SOL    HW168058   6.144  11.481   4.836
88742SOL    HW268059   6.112  11.622   4.790
88743SOL     OW68060   0.211   8.018  10.707
88743SOL    HW168061   0.152   8.093  10.702
88743SOL    HW268062   0.205   7.989  10.798
88744SOL     OW68063  12.621   8.389   5.699
88744SOL    HW168064  12.682   8.421   5.765
88744SOL    HW268065  12.676   8.345   5.634
88745SOL     OW68066   3.754   0.696  12.541
88745SOL    HW168067   3.818   0.682  12.471
88745SOL    HW268068   3.763   0.619  12.597
88746SOL     OW68069   0.073   5.755   5.863
88746SOL    HW168070  14.867   5.796   5.900
88746SOL    HW268071   0.043   5.671   5.830
88747SOL     OW68072   6.275   2.440   4.259
88747SOL    HW168073   6.339   2.500   4.298
88747SOL    HW268074   6.248   2.384   4.332
88748SOL     OW68075  13.165   8.964   2.116
88748SOL    HW168076  13.134   9.019   2.044
88748SOL    HW268077  13.239   9.012   2.153
88749SOL     OW68078   2.151   5.956  12.114
88749SOL    HW168079   2.078   5.903  12.146
88749SOL    HW268080   2.229   5.902  12.127
88750SOL     OW68081  10.571   4.751   8.826
88750SOL    HW168082  10.600   4.661   8.814
88750SOL    HW268083  10.499   4.745   8.889
88751SOL     OW68084   0.363  10.170  11.006
88751SOL    HW168085   0.300  10.235  10.974
88751SOL    HW268086   0.309  10.107  11.055
88752SOL     OW68087  10.385   4.595   2.754
88752SOL    HW168088  10.375   4.592   2.849
88752SOL    HW268089  10.468   4.549   2.738
88753SOL     OW68090   4.718   8.910   8.377
88753SOL    HW168091   4.799   8.881   8.418
88753SOL    HW268092   4.695   8.839   8.318
88754SOL     OW68093  11.016  12.172   8.208
88754SOL    HW168094  10.999  12.149   8.299
88754SOL    HW268095  10.932  12.155   8.164
88755SOL     OW68096   4.770  10.957   1.861
88755SOL    HW168097   4.841  10.951   1.796
88755SOL    HW268098   4.762  11.051   1.879
88756SOL     OW68099  12.593   7.116  13.848
88756SOL    HW168100  12.669   7.118  13.905
88756SOL    HW268101  12.518   7.126  13.907
88757SOL     OW68102  13.361   2.412  11.482
88757SOL    HW168103  13.390   2.421  11.391
88757SOL    HW268104  13.296   2.482  11.493
88758SOL     OW68105  12.669   9.319   2.977
88758SOL    HW168106  12.619   9.243   3.005
88758SOL    HW268107  12.619   9.354   2.903
88759SOL     OW68108  14.109   6.429  12.799
88759SOL    HW168109  14.094   6.356  12.738
88759SOL    HW268110  14.023   6.448  12.836
88760SOL     OW68111   2.702   0.650   5.340
88760SOL    HW168112   2.745   0.729   5.373
88760SOL    HW268113   2.683   0.668   5.248
88761SOL     OW68114   3.768   2.339   0.199
88761SOL    HW168115   3.722   2.263   0.235
88761SOL    HW268116   3.772   2.323   0.105
88762SOL     OW68117  12.003  11.717   1.003
88762SOL    HW168118  12.097  11.702   1.016
88762SOL    HW268119  11.961  11.641   1.043
88763SOL     OW68120   3.567   4.464   3.239
88763SOL    HW168121   3.655   4.446   3.205
88763SOL    HW268122   3.578   4.544   3.291
88764SOL     OW68123   2.722  11.258   2.447
88764SOL    HW168124   2.778  11.206   2.504
88764SOL    HW268125   2.687  11.195   2.384
88765SOL     OW68126  12.146  12.500   8.396
88765SOL    HW168127  12.183  12.441   8.331
88765SOL    HW268128  12.115  12.443   8.465
88766SOL     OW68129   2.426   4.662  13.642
88766SOL    HW168130   2.343   4.681  13.597
88766SOL    HW268131   2.411   4.691  13.732
88767SOL     OW68132   2.812  12.503  12.802
88767SOL    HW168133   2.905  12.502  12.822
88767SOL    HW268134   2.771  12.465  12.880
88768SOL     OW68135   9.245   1.708  14.033
88768SOL    HW168136   9.239   1.703  13.937
88768SOL    HW268137   9.188   1.782  14.057
88769SOL     OW68138   6.298   4.476  12.774
88769SOL    HW168139   6.377   4.471  12.722
88769SOL    HW268140   6.233   4.424  12.725
88770SOL     OW68141   2.177  13.359   2.728
88770SOL    HW168142   2.099  13.305   2.711
88770SOL    HW268143   2.251  13.300   2.712
88771SOL     OW68144  13.974  13.042  14.693
88771SOL    HW168145  13.937  12.954  14.700
88771SOL    HW268146  13.947  13.087  14.773
88772SOL     OW68147   5.537  10.740   7.158
88772SOL    HW168148   5.622  10.698   7.141
88772SOL    HW268149   5.540  10.820   7.106
88773SOL     OW68150   0.890  14.215   0.047
88773SOL    HW168151   0.811  14.238  14.871
88773SOL    HW268152   0.957  14.203  14.851
88774SOL     OW68153   9.611   0.883   8.586
88774SOL    HW168154   9.630   0.799   8.545
88774SOL    HW268155   9.696   0.923   8.600
88775SOL     OW68156   3.314   9.255  11.488
88775SOL    HW168157   3.264   9.289  11.562
88775SOL    HW268158   3.276   9.300  11.412
88776SOL     OW68159   9.197  11.992   9.426
88776SOL    HW168160   9.271  11.931   9.422
88776SOL    HW268161   9.120  11.936   9.436
88777SOL     OW68162  11.689   3.178   1.202
88777SOL    HW168163  11.728   3.118   1.138
88777SOL    HW268164  11.754   3.183   1.272
88778SOL     OW68165   4.938  13.196   4.983
88778SOL    HW168166   5.023  13.157   4.960
88778SOL    HW268167   4.874  13.142   4.938
88779SOL     OW68168  12.605   9.849  11.142
88779SOL    HW168169  12.682   9.876  11.190
88779SOL    HW268170  12.600   9.909  11.068
88780SOL     OW68171   1.511   4.259   9.984
88780SOL    HW168172   1.476   4.238  10.071
88780SOL    HW268173   1.440   4.239   9.924
88781SOL     OW68174  11.857  10.947  10.543
88781SOL    HW168175  11.791  10.894  10.587
88781SOL    HW268176  11.875  11.019  10.603
88782SOL     OW68177   3.687   3.034   4.068
88782SOL    HW168178   3.632   2.958   4.086
88782SOL    HW268179   3.683   3.086   4.148
88783SOL     OW68180   8.047   4.626  14.812
88783SOL    HW168181   7.995   4.696  14.851
88783SOL    HW268182   7.983   4.558  14.791
88784SOL     OW68183  10.118  14.319  13.847
88784SOL    HW168184  10.090  14.293  13.759
88784SOL    HW268185  10.043  14.364  13.884
88785SOL     OW68186  14.504   9.338   0.620
88785SOL    HW168187  14.531   9.357   0.709
88785SOL    HW268188  14.550   9.403   0.566
88786SOL     OW68189  10.909   9.088  10.926
88786SOL    HW168190  11.002   9.065  10.926
88786SOL    HW268191  10.881   9.073  10.836
88787SOL     OW68192   7.737  14.277   2.182
88787SOL    HW168193   7.670  14.345   2.181
88787SOL    HW268194   7.817  14.322   2.209
88788SOL     OW68195   9.270  14.684   4.501
88788SOL    HW168196   9.249  14.705   4.410
88788SOL    HW268197   9.227  14.600   4.516
88789SOL     OW68198  10.757   5.816  14.710
88789SOL    HW168199  10.831   5.809  14.649
88789SOL    HW268200  10.763   5.905  14.744
88790SOL     OW68201  10.920   0.124   4.245
88790SOL    HW168202  10.915   0.137   4.150
88790SOL    HW268203  10.838   0.159   4.279
88791SOL     OW68204   0.141   9.369  12.869
88791SOL    HW168205   0.198   9.370  12.793
88791SOL    HW268206   0.102   9.456  12.871
88792SOL     OW68207   4.512   5.956   3.436
88792SOL    HW168208   4.566   6.030   3.407
88792SOL    HW268209   4.571   5.903   3.489
88793SOL     OW68210   7.749  14.663   7.073
88793SOL    HW168211   7.843  14.657   7.090
88793SOL    HW268212   7.739  14.639   6.981
88794SOL     OW68213   5.673   7.040   4.906
88794SOL    HW168214   5.730   7.029   4.982
88794SOL    HW268215   5.715   6.988   4.837
88795SOL     OW68216   6.753   4.631  13.960
88795SOL    HW168217   6.762   4.579  14.041
88795SOL    HW268218   6.755   4.566  13.890
88796SOL     OW68219   6.642   0.556   5.093
88796SOL    HW168220   6.574   0.496   5.062
88796SOL    HW268221   6.633   0.555   5.188
88797SOL     OW68222  13.725   0.233  12.185
88797SOL    HW168223  13.743   0.147  12.223
88797SOL    HW268224  13.670   0.214  12.108
88798SOL     OW68225  11.914   6.543   1.208
88798SOL    HW168226  11.837   6.537   1.151
88798SOL    HW268227  11.899   6.475   1.275
88799SOL     OW68228   9.993   5.101   6.763
88799SOL    HW168229  10.015   5.010   6.743
88799SOL    HW268230  10.077   5.145   6.770
88800SOL     OW68231   8.919   8.858  13.554
88800SOL    HW168232   8.926   8.925  13.621
88800SOL    HW268233   8.905   8.777  13.602
88801SOL     OW68234  12.851   4.491   4.082
88801SOL    HW168235  12.760   4.521   4.080
88801SOL    HW268236  12.845   4.400   4.110
88802SOL     OW68237   4.371  11.439   7.854
88802SOL    HW168238   4.357  11.518   7.802
88802SOL    HW268239   4.310  11.447   7.927
88803SOL     OW68240  12.504  11.488  11.690
88803SOL    HW168241  12.473  11.567  11.735
88803SOL    HW268242  12.599  11.489  11.702
88804SOL     OW68243   9.788   7.272  11.506
88804SOL    HW168244   9.769   7.366  11.515
88804SOL    HW268245   9.842   7.266  11.427
88805SOL     OW68246  13.556   9.495   9.367
88805SOL    HW168247  13.472   9.542   9.363
88805SOL    HW268248  13.573   9.469   9.276
88806SOL     OW68249   9.044   3.187   7.961
88806SOL    HW168250   9.054   3.279   7.983
88806SOL    HW268251   8.957   3.164   7.993
88807SOL     OW68252  11.646  10.994   0.661
88807SOL    HW168253  11.614  11.047   0.734
88807SOL    HW268254  11.711  11.049   0.618
88808SOL     OW68255   7.307   0.686  10.223
88808SOL    HW168256   7.287   0.779  10.207
88808SOL    HW268257   7.344   0.684  10.311
88809SOL     OW68258  14.209  10.444   2.055
88809SOL    HW168259  14.299  10.409   2.059
88809SOL    HW268260  14.173  10.407   1.975
88810SOL     OW68261  12.515   7.950   0.792
88810SOL    HW168262  12.549   7.957   0.881
88810SOL    HW268263  12.565   7.877   0.753
88811SOL     OW68264   8.735   7.680   3.513
88811SOL    HW168265   8.683   7.620   3.567
88811SOL    HW268266   8.821   7.681   3.554
88812SOL     OW68267   5.379  10.436   2.341
88812SOL    HW168268   5.306  10.426   2.402
88812SOL    HW268269   5.338  10.437   2.254
88813SOL     OW68270  13.134   8.326   1.302
88813SOL    HW168271  13.117   8.351   1.392
88813SOL    HW268272  13.192   8.394   1.268
88814SOL     OW68273   9.571   7.159  11.265
88814SOL    HW168274   9.561   7.115  11.181
88814SOL    HW268275   9.616   7.095  11.321
88815SOL     OW68276  13.150   8.260  14.392
88815SOL    HW168277  13.232   8.299  14.424
88815SOL    HW268278  13.092   8.335  14.377
88816SOL     OW68279   1.731   9.446  13.434
88816SOL    HW168280   1.682   9.364  13.431
88816SOL    HW268281   1.704   9.492  13.354
88817SOL     OW68282  11.307   4.559   3.716
88817SOL    HW168283  11.339   4.522   3.799
88817SOL    HW268284  11.253   4.634   3.743
88818SOL     OW68285   3.083  12.705   8.390
88818SOL    HW168286   3.011  12.735   8.445
88818SOL    HW268287   3.162  12.727   8.440
88819SOL     OW68288  11.561  10.451  11.991
88819SOL    HW168289  11.594  10.499  12.067
88819SOL    HW268290  11.562  10.359  12.020
88820SOL     OW68291   5.935  10.693  12.566
88820SOL    HW168292   5.965  10.779  12.596
88820SOL    HW268293   5.883  10.712  12.488
88821SOL     OW68294   4.000   9.631   1.246
88821SOL    HW168295   4.089   9.631   1.210
88821SOL    HW268296   3.987   9.542   1.278
88822SOL     OW68297   1.739   1.387  13.056
88822SOL    HW168298   1.825   1.421  13.033
88822SOL    HW268299   1.713   1.334  12.980
88823SOL     OW68300   2.618   1.157   2.904
88823SOL    HW168301   2.537   1.158   2.955
88823SOL    HW268302   2.678   1.214   2.952
88824SOL     OW68303   2.860   9.180   2.554
88824SOL    HW168304   2.856   9.117   2.482
88824SOL    HW268305   2.796   9.148   2.618
88825SOL     OW68306   5.445  12.699   7.288
88825SOL    HW168307   5.496  12.630   7.330
88825SOL    HW268308   5.389  12.733   7.358
88826SOL     OW68309  14.553   3.576   0.554
88826SOL    HW168310  14.465   3.611   0.541
88826SOL    HW268311  14.584   3.618   0.634
88827SOL     OW68312   6.843  13.881   7.773
88827SOL    HW168313   6.803  13.966   7.753
88827SOL    HW268314   6.882  13.893   7.860
88828SOL     OW68315  12.953   1.397   7.793
88828SOL    HW168316  12.962   1.302   7.794
88828SOL    HW268317  12.866   1.413   7.756
88829SOL     OW68318   6.337  10.127  12.368
88829SOL    HW168319   6.289  10.163  12.443
88829SOL    HW268320   6.298  10.040  12.354
88830SOL     OW68321  10.806  10.513  12.771
88830SOL    HW168322  10.842  10.584  12.824
88830SOL    HW268323  10.788  10.554  12.686
88831SOL     OW68324   8.536   4.408   9.643
88831SOL    HW168325   8.561   4.450   9.726
88831SOL    HW268326   8.504   4.480   9.589
88832SOL     OW68327   0.683   7.564   7.531
88832SOL    HW168328   0.613   7.571   7.465
88832SOL    HW268329   0.637   7.547   7.613
88833SOL     OW68330   3.831   3.097   5.584
88833SOL    HW168331   3.866   3.036   5.649
88833SOL    HW268332   3.741   3.112   5.613
88834SOL     OW68333  13.211   9.683   1.941
88834SOL    HW168334  13.252   9.658   2.023
88834SOL    HW268335  13.284   9.698   1.881
88835SOL     OW68336   1.254  13.309  10.174
88835SOL    HW168337   1.345  13.293  10.201
88835SOL    HW268338   1.202  13.279  10.248
88836SOL     OW68339   8.539   5.927   8.922
88836SOL    HW168340   8.600   5.930   8.848
88836SOL    HW268341   8.463   5.880   8.888
88837SOL     OW68342   5.856  12.659   1.011
88837SOL    HW168343   5.923  12.647   1.078
88837SOL    HW268344   5.796  12.586   1.024
88838SOL     OW68345  11.113   3.783  14.257
88838SOL    HW168346  11.078   3.831  14.332
88838SOL    HW268347  11.054   3.805  14.185
88839SOL     OW68348   9.900   5.687   5.851
88839SOL    HW168349   9.941   5.619   5.904
88839SOL    HW268350   9.809   5.659   5.840
88840SOL     OW68351  12.779   6.663   8.212
88840SOL    HW168352  12.754   6.611   8.136
88840SOL    HW268353  12.789   6.599   8.282
88841SOL     OW68354  13.788   7.134   8.757
88841SOL    HW168355  13.858   7.075   8.728
88841SOL    HW268356  13.833   7.217   8.774
88842SOL     OW68357   7.959   7.168   3.852
88842SOL    HW168358   7.883   7.117   3.878
88842SOL    HW268359   8.013   7.107   3.801
88843SOL     OW68360   2.579  13.709   8.407
88843SOL    HW168361   2.563  13.615   8.399
88843SOL    HW268362   2.575  13.741   8.316
88844SOL     OW68363   6.827   0.939   6.510
88844SOL    HW168364   6.804   0.864   6.456
88844SOL    HW268365   6.819   0.907   6.600
88845SOL     OW68366   3.314   5.915   0.620
88845SOL    HW168367   3.238   5.904   0.677
88845SOL    HW268368   3.369   5.839   0.639
88846SOL     OW68369  13.025   0.402  13.552
88846SOL    HW168370  12.965   0.328  13.545
88846SOL    HW268371  12.975   0.478  13.523
88847SOL     OW68372   1.458   1.488   8.332
88847SOL    HW168373   1.382   1.545   8.348
88847SOL    HW268374   1.504   1.486   8.416
88848SOL     OW68375   8.870  14.556  11.032
88848SOL    HW168376   8.799  14.581  10.973
88848SOL    HW268377   8.905  14.639  11.065
88849SOL     OW68378   5.017  13.042  14.600
88849SOL    HW168379   5.024  12.971  14.536
88849SOL    HW268380   4.935  13.026  14.645
88850SOL     OW68381  10.152   7.081   8.154
88850SOL    HW168382  10.058   7.099   8.157
88850SOL    HW268383  10.191   7.167   8.135
88851SOL     OW68384  12.446   4.165   6.554
88851SOL    HW168385  12.496   4.106   6.611
88851SOL    HW268386  12.513   4.223   6.516
88852SOL     OW68387   3.216   8.444  12.243
88852SOL    HW168388   3.172   8.528  12.256
88852SOL    HW268389   3.179   8.410  12.161
88853SOL     OW68390  13.948  11.255  12.294
88853SOL    HW168391  14.040  11.279  12.285
88853SOL    HW268392  13.907  11.331  12.335
88854SOL     OW68393   2.712   6.444   6.201
88854SOL    HW168394   2.688   6.450   6.293
88854SOL    HW268395   2.796   6.489   6.194
88855SOL     OW68396  14.427  14.216   2.595
88855SOL    HW168397  14.425  14.146   2.660
88855SOL    HW268398  14.468  14.176   2.518
88856SOL     OW68399   7.596   8.858  13.321
88856SOL    HW168400   7.681   8.865  13.366
88856SOL    HW268401   7.549   8.937  13.348
88857SOL     OW68402  11.675   4.375  12.912
88857SOL    HW168403  11.589   4.343  12.883
88857SOL    HW268404  11.718   4.297  12.947
88858SOL     OW68405  13.590   2.892  13.642
88858SOL    HW168406  13.604   2.899  13.737
88858SOL    HW268407  13.541   2.970  13.619
88859SOL     OW68408  11.476  11.268  11.277
88859SOL    HW168409  11.464  11.195  11.338
88859SOL    HW268410  11.402  11.264  11.218
88860SOL     OW68411   4.622   4.670   8.588
88860SOL    HW168412   4.612   4.594   8.530
88860SOL    HW268413   4.580   4.741   8.540
88861SOL     OW68414  11.248   2.654   7.971
88861SOL    HW168415  11.155   2.675   7.977
88861SOL    HW268416  11.261   2.628   7.879
88862SOL     OW68417  11.707  14.328  11.045
88862SOL    HW168418  11.673  14.417  11.050
88862SOL    HW268419  11.666  14.290  10.967
88863SOL     OW68420  12.771   1.171  14.780
88863SOL    HW168421  12.819   1.253  14.788
88863SOL    HW268422  12.746   1.149  14.870
88864SOL     OW68423   3.818   6.500  13.945
88864SOL    HW168424   3.889   6.551  13.985
88864SOL    HW268425   3.765   6.565  13.899
88865SOL     OW68426   8.268   6.013  11.955
88865SOL    HW168427   8.257   6.108  11.959
88865SOL    HW268428   8.360   5.999  11.978
88866SOL     OW68429   7.977   0.030   6.019
88866SOL    HW168430   7.895  14.854   6.013
88866SOL    HW268431   8.007   0.038   5.928
88867SOL     OW68432   3.184  11.287   6.671
88867SOL    HW168433   3.139  11.209   6.702
88867SOL    HW268434   3.140  11.309   6.589
88868SOL     OW68435   3.108  13.031  13.464
88868SOL    HW168436   3.178  13.079  13.508
88868SOL    HW268437   3.125  13.043  13.370
88869SOL     OW68438  13.216   0.553   9.784
88869SOL    HW168439  13.295   0.574   9.834
88869SOL    HW268440  13.170   0.636   9.775
88870SOL     OW68441  13.632   8.252   4.981
88870SOL    HW168442  13.644   8.224   4.890
88870SOL    HW268443  13.569   8.189   5.017
88871SOL     OW68444   4.630   3.363   9.306
88871SOL    HW168445   4.602   3.277   9.272
88871SOL    HW268446   4.636   3.351   9.400
88872SOL     OW68447  11.554   6.016   7.152
88872SOL    HW168448  11.648   6.031   7.168
88872SOL    HW268449  11.514   6.019   7.239
88873SOL     OW68450   7.593  11.559  14.773
88873SOL    HW168451   7.547  11.484  14.809
88873SOL    HW268452   7.554  11.635  14.816
88874SOL     OW68453   9.995  13.091   9.143
88874SOL    HW168454   9.903  13.073   9.125
88874SOL    HW268455  10.022  13.152   9.075
88875SOL     OW68456   1.909   7.639  10.808
88875SOL    HW168457   1.877   7.598  10.727
88875SOL    HW268458   1.976   7.700  10.778
88876SOL     OW68459  12.122   7.910   4.327
88876SOL    HW168460  12.061   7.979   4.352
88876SOL    HW268461  12.150   7.933   4.238
88877SOL     OW68462   9.453  10.227   1.101
88877SOL    HW168463   9.417  10.165   1.038
88877SOL    HW268464   9.535  10.256   1.061
88878SOL     OW68465  13.979   2.333   4.122
88878SOL    HW168466  13.921   2.408   4.105
88878SOL    HW268467  14.064   2.360   4.088
88879SOL     OW68468   8.804   4.328   4.517
88879SOL    HW168469   8.730   4.375   4.557
88879SOL    HW268470   8.847   4.394   4.463
88880SOL     OW68471   4.326  11.386   1.540
88880SOL    HW168472   4.256  11.442   1.573
88880SOL    HW268473   4.407  11.430   1.567
88881SOL     OW68474   1.980   6.764   0.691
88881SOL    HW168475   1.959   6.705   0.619
88881SOL    HW268476   1.973   6.709   0.770
88882SOL     OW68477   7.075  12.657   6.773
88882SOL    HW168478   7.013  12.619   6.711
88882SOL    HW268479   7.021  12.689   6.845
88883SOL     OW68480   6.237   1.417   2.432
88883SOL    HW168481   6.177   1.343   2.424
88883SOL    HW268482   6.254   1.444   2.341
88884SOL     OW68483   3.623   9.491  14.335
88884SOL    HW168484   3.621   9.564  14.395
88884SOL    HW268485   3.563   9.515  14.264
88885SOL     OW68486  12.012   1.494  14.472
88885SOL    HW168487  12.006   1.402  14.445
88885SOL    HW268488  12.005   1.544  14.391
88886SOL     OW68489   4.796   5.245   2.297
88886SOL    HW168490   4.814   5.320   2.241
88886SOL    HW268491   4.815   5.169   2.243
88887SOL     OW68492  10.077   8.713   4.358
88887SOL    HW168493  10.147   8.732   4.421
88887SOL    HW268494   9.999   8.753   4.396
88888SOL     OW68495  12.211   6.961   5.596
88888SOL    HW168496  12.122   6.928   5.586
88888SOL    HW268497  12.204   7.055   5.578
88889SOL     OW68498  12.079  11.700   5.370
88889SOL    HW168499  11.998  11.675   5.413
88889SOL    HW268500  12.148  11.655   5.419
88890SOL     OW68501   0.846   7.903   1.270
88890SOL    HW168502   0.777   7.969   1.266
88890SOL    HW268503   0.924   7.952   1.299
88891SOL     OW68504   0.211  11.593   0.076
88891SOL    HW168505   0.292  11.637   0.102
88891SOL    HW268506   0.198  11.619  14.857
88892SOL     OW68507   7.752   2.823   1.849
88892SOL    HW168508   7.713   2.805   1.763
88892SOL    HW268509   7.842   2.792   1.841
88893SOL     OW68510  10.691  11.074   0.815
88893SOL    HW168511  10.775  11.050   0.853
88893SOL    HW268512  10.706  11.161   0.777
88894SOL     OW68513   7.405   7.434  10.291
88894SOL    HW168514   7.488   7.453  10.337
88894SOL    HW268515   7.374   7.520  10.263
88895SOL     OW68516   0.748   2.315  10.770
88895SOL    HW168517   0.821   2.273  10.816
88895SOL    HW268518   0.716   2.248  10.710
88896SOL     OW68519   0.416   7.896  11.213
88896SOL    HW168520   0.412   7.848  11.295
88896SOL    HW268521   0.332   7.941  11.207
88897SOL     OW68522  14.020   0.417   5.175
88897SOL    HW168523  14.013   0.323   5.193
88897SOL    HW268524  14.098   0.444   5.223
88898SOL     OW68525  10.141   5.722   0.365
88898SOL    HW168526  10.065   5.781   0.368
88898SOL    HW268527  10.120   5.660   0.295
88899SOL     OW68528  11.067   8.406   2.941
88899SOL    HW168529  11.112   8.407   2.856
88899SOL    HW268530  11.014   8.326   2.939
88900SOL     OW68531   4.901   5.948   7.789
88900SOL    HW168532   4.841   5.972   7.859
88900SOL    HW268533   4.976   6.006   7.800
88901SOL     OW68534   5.751   4.070   0.089
88901SOL    HW168535   5.817   4.052   0.156
88901SOL    HW268536   5.718   3.984   0.064
88902SOL     OW68537   4.878   6.918   0.913
88902SOL    HW168538   4.800   6.935   0.965
88902SOL    HW268539   4.878   6.823   0.900
88903SOL     OW68540  14.187   2.693   6.224
88903SOL    HW168541  14.223   2.608   6.249
88903SOL    HW268542  14.232   2.756   6.280
88904SOL     OW68543   4.832   1.584   8.554
88904SOL    HW168544   4.889   1.510   8.531
88904SOL    HW268545   4.744   1.548   8.550
88905SOL     OW68546   1.705   5.430   0.350
88905SOL    HW168547   1.762   5.507   0.358
88905SOL    HW268548   1.733   5.372   0.420
88906SOL     OW68549   7.091   9.279   2.618
88906SOL    HW168550   7.034   9.300   2.692
88906SOL    HW268551   7.050   9.321   2.543
88907SOL     OW68552  10.399   0.632   8.484
88907SOL    HW168553  10.479   0.643   8.433
88907SOL    HW268554  10.330   0.623   8.419
88908SOL     OW68555  12.412   2.432  11.962
88908SOL    HW168556  12.431   2.525  11.951
88908SOL    HW268557  12.385   2.403  11.875
88909SOL     OW68558  11.339   2.753  11.970
88909SOL    HW168559  11.382   2.832  11.936
88909SOL    HW268560  11.271   2.787  12.028
88910SOL     OW68561  13.784   4.383  14.333
88910SOL    HW168562  13.839   4.314  14.296
88910SOL    HW268563  13.840   4.426  14.397
88911SOL     OW68564   1.076  10.384   3.502
88911SOL    HW168565   1.107  10.305   3.459
88911SOL    HW268566   0.992  10.359   3.541
88912SOL     OW68567   4.211   8.480  12.166
88912SOL    HW168568   4.258   8.477  12.250
88912SOL    HW268569   4.149   8.552  12.176
88913SOL     OW68570   6.587  12.172   7.571
88913SOL    HW168571   6.647  12.119   7.625
88913SOL    HW268572   6.640  12.245   7.541
88914SOL     OW68573   5.275   9.471   9.995
88914SOL    HW168574   5.294   9.547   9.940
88914SOL    HW268575   5.347   9.410   9.979
88915SOL     OW68576   1.814   3.590  12.647
88915SOL    HW168577   1.751   3.662  12.648
88915SOL    HW268578   1.785   3.532  12.717
88916SOL     OW68579   4.423   4.725  13.325
88916SOL    HW168580   4.410   4.652  13.264
88916SOL    HW268581   4.518   4.737  13.329
88917SOL     OW68582   5.140   8.220   9.226
88917SOL    HW168583   5.140   8.260   9.313
88917SOL    HW268584   5.067   8.159   9.227
88918SOL     OW68585   0.588  12.567   7.888
88918SOL    HW168586   0.667  12.578   7.940
88918SOL    HW268587   0.563  12.656   7.865
88919SOL     OW68588  13.717   2.938   4.331
88919SOL    HW168589  13.664   2.957   4.409
88919SOL    HW268590  13.763   2.857   4.352
88920SOL     OW68591  10.187   6.909   5.950
88920SOL    HW168592  10.207   7.002   5.941
88920SOL    HW268593  10.093   6.902   5.933
88921SOL     OW68594   2.851   0.748   8.733
88921SOL    HW168595   2.922   0.698   8.693
88921SOL    HW268596   2.787   0.682   8.760
88922SOL     OW68597   8.753   4.093   0.878
88922SOL    HW168598   8.691   4.021   0.863
88922SOL    HW268599   8.825   4.076   0.817
88923SOL     OW68600   5.255   4.294  10.930
88923SOL    HW168601   5.279   4.369  10.876
88923SOL    HW268602   5.235   4.331  11.016
88924SOL     OW68603   6.145   7.316   1.832
88924SOL    HW168604   6.135   7.408   1.810
88924SOL    HW268605   6.111   7.309   1.921
88925SOL     OW68606  12.023   2.201   8.393
88925SOL    HW168607  11.944   2.148   8.406
88925SOL    HW268608  11.998   2.264   8.325
88926SOL     OW68609   5.263   2.844  11.201
88926SOL    HW168610   5.318   2.800  11.266
88926SOL    HW268611   5.174   2.837  11.235
88927SOL     OW68612   8.462   7.051  10.446
88927SOL    HW168613   8.398   7.083  10.510
88927SOL    HW268614   8.538   7.108  10.459
88928SOL     OW68615  12.331  13.464   5.857
88928SOL    HW168616  12.311  13.376   5.890
88928SOL    HW268617  12.418  13.455   5.817
88929SOL     OW68618   2.808  12.362  13.056
88929SOL    HW168619   2.830  12.410  13.135
88929SOL    HW268620   2.858  12.281  13.062
88930SOL     OW68621   5.828  11.662   2.035
88930SOL    HW168622   5.890  11.687   2.103
88930SOL    HW268623   5.790  11.745   2.006
88931SOL     OW68624  12.674  14.715   2.404
88931SOL    HW168625  12.600  14.741   2.458
88931SOL    HW268626  12.711  14.797   2.373
88932SOL     OW68627   0.613   2.120   4.527
88932SOL    HW168628   0.585   2.118   4.619
88932SOL    HW268629   0.557   2.055   4.484
88933SOL     OW68630   4.164   4.075  13.675
88933SOL    HW168631   4.076   4.071  13.637
88933SOL    HW268632   4.168   4.000  13.734
88934SOL     OW68633  12.279   1.158  10.768
88934SOL    HW168634  12.274   1.093  10.838
88934SOL    HW268635  12.356   1.132  10.716
88935SOL     OW68636  10.345  12.190   0.700
88935SOL    HW168637  10.434  12.166   0.676
88935SOL    HW268638  10.311  12.236   0.623
88936SOL     OW68639  10.572   3.847  10.881
88936SOL    HW168640  10.479   3.846  10.904
88936SOL    HW268641  10.576   3.897  10.799
88937SOL     OW68642   2.376   0.123   1.200
88937SOL    HW168643   2.440   0.090   1.263
88937SOL    HW268644   2.293   0.086   1.229
88938SOL     OW68645  14.783   5.258   1.867
88938SOL    HW168646  14.820   5.277   1.953
88938SOL    HW268647  14.860   5.245   1.811
88939SOL     OW68648  11.960   5.464   5.758
88939SOL    HW168649  11.976   5.486   5.849
88939SOL    HW268650  11.940   5.371   5.758
88940SOL     OW68651   6.758  13.202   9.851
88940SOL    HW168652   6.847  13.225   9.876
88940SOL    HW268653   6.730  13.273   9.793
88941SOL     OW68654   5.478   7.373   2.065
88941SOL    HW168655   5.446   7.348   2.152
88941SOL    HW268656   5.493   7.467   2.072
88942SOL     OW68657   7.666   6.742  11.674
88942SOL    HW168658   7.653   6.682  11.600
88942SOL    HW268659   7.578   6.754  11.710
88943SOL     OW68660   7.011   5.953  11.529
88943SOL    HW168661   7.102   5.985  11.532
88943SOL    HW268662   6.991   5.930  11.619
88944SOL     OW68663  13.131   4.582  13.265
88944SOL    HW168664  13.052   4.603  13.215
88944SOL    HW268665  13.186   4.533  13.203
88945SOL     OW68666  13.594   6.417   0.965
88945SOL    HW168667  13.606   6.426   0.871
88945SOL    HW268668  13.640   6.337   0.988
88946SOL     OW68669  10.580   6.073   9.232
88946SOL    HW168670  10.557   6.158   9.196
88946SOL    HW268671  10.544   6.074   9.321
88947SOL     OW68672   4.273   9.690   1.148
88947SOL    HW168673   4.312   9.770   1.111
88947SOL    HW268674   4.336   9.621   1.127
88948SOL     OW68675   8.801   1.726   7.777
88948SOL    HW168676   8.768   1.806   7.819
88948SOL    HW268677   8.722   1.684   7.741
88949SOL     OW68678   5.479   2.230   9.879
88949SOL    HW168679   5.544   2.256   9.813
88949SOL    HW268680   5.513   2.147   9.913
88950SOL     OW68681  14.650  11.785  13.512
88950SOL    HW168682  14.653  11.785  13.608
88950SOL    HW268683  14.562  11.817  13.491
88951SOL     OW68684   7.505  12.913   0.865
88951SOL    HW168685   7.484  12.822   0.886
88951SOL    HW268686   7.439  12.964   0.913
88952SOL     OW68687   3.908   6.896   2.880
88952SOL    HW168688   3.850   6.884   2.955
88952SOL    HW268689   3.881   6.829   2.817
88953SOL     OW68690   1.531   1.123   0.724
88953SOL    HW168691   1.452   1.145   0.674
88953SOL    HW268692   1.517   1.033   0.752
88954SOL     OW68693   1.060   6.098   9.416
88954SOL    HW168694   1.027   6.077   9.329
88954SOL    HW268695   1.053   6.017   9.465
88955SOL     OW68696  10.421   3.063   9.120
88955SOL    HW168697  10.342   3.089   9.167
88955SOL    HW268698  10.429   2.969   9.136
88956SOL     OW68699   0.726   8.260   8.767
88956SOL    HW168700   0.779   8.330   8.805
88956SOL    HW268701   0.738   8.186   8.826
88957SOL     OW68702  13.770   7.504  14.420
88957SOL    HW168703  13.727   7.587  14.443
88957SOL    HW268704  13.792   7.464  14.504
88958SOL     OW68705   7.805   0.035   7.657
88958SOL    HW168706   7.836  14.830   7.611
88958SOL    HW268707   7.880   0.064   7.708
88959SOL     OW68708  13.831   3.426   0.361
88959SOL    HW168709  13.839   3.368   0.285
88959SOL    HW268710  13.922   3.449   0.382
88960SOL     OW68711   3.101   9.257  10.959
88960SOL    HW168712   3.073   9.166  10.962
88960SOL    HW268713   3.021   9.306  10.941
88961SOL     OW68714   6.502   2.643   3.476
88961SOL    HW168715   6.465   2.716   3.426
88961SOL    HW268716   6.552   2.593   3.411
88962SOL     OW68717  13.757   7.346   6.212
88962SOL    HW168718  13.680   7.367   6.265
88962SOL    HW268719  13.741   7.257   6.180
88963SOL     OW68720   4.266   5.655  13.246
88963SOL    HW168721   4.353   5.623  13.221
88963SOL    HW268722   4.266   5.747  13.220
88964SOL     OW68723  11.544  14.581  11.419
88964SOL    HW168724  11.546  14.566  11.514
88964SOL    HW268725  11.635  14.595  11.395
88965SOL     OW68726  10.320   6.655   1.557
88965SOL    HW168727  10.416   6.656   1.560
88965SOL    HW268728  10.293   6.707   1.633
88966SOL     OW68729   8.727   8.967   7.939
88966SOL    HW168730   8.822   8.971   7.951
88966SOL    HW268731   8.713   8.898   7.874
88967SOL     OW68732   2.525   1.521   6.893
88967SOL    HW168733   2.577   1.596   6.866
88967SOL    HW268734   2.550   1.450   6.834
88968SOL     OW68735  12.813   2.378  10.042
88968SOL    HW168736  12.727   2.384  10.000
88968SOL    HW268737  12.865   2.324   9.983
88969SOL     OW68738  11.922   6.737   8.078
88969SOL    HW168739  11.974   6.801   8.127
88969SOL    HW268740  11.835   6.741   8.117
88970SOL     OW68741   5.166   7.660  13.031
88970SOL    HW168742   5.185   7.595  12.964
88970SOL    HW268743   5.233   7.727  13.019
88971SOL     OW68744   3.709   8.605   9.290
88971SOL    HW168745   3.754   8.520   9.290
88971SOL    HW268746   3.775   8.666   9.256
88972SOL     OW68747   1.344   4.464   9.357
88972SOL    HW168748   1.329   4.408   9.281
88972SOL    HW268749   1.418   4.520   9.332
88973SOL     OW68750   3.578  10.468   6.480
88973SOL    HW168751   3.485  10.488   6.466
88973SOL    HW268752   3.622  10.505   6.404
88974SOL     OW68753   3.553  14.851  12.041
88974SOL    HW168754   3.591  14.804  11.966
88974SOL    HW268755   3.567  14.792  12.115
88975SOL     OW68756  11.288   0.222   7.288
88975SOL    HW168757  11.223   0.234   7.358
88975SOL    HW268758  11.367   0.194   7.334
88976SOL     OW68759   7.956   9.673  14.265
88976SOL    HW168760   8.044   9.712  14.266
88976SOL    HW268761   7.904   9.735  14.214
88977SOL     OW68762   7.980  14.377  13.375
88977SOL    HW168763   7.902  14.410  13.419
88977SOL    HW268764   7.993  14.436  13.301
88978SOL     OW68765   0.534   0.270   0.254
88978SOL    HW168766   0.456   0.215   0.260
88978SOL    HW268767   0.545   0.306   0.342
88979SOL     OW68768  14.380   8.545  10.003
88979SOL    HW168769  14.474   8.564   9.998
88979SOL    HW268770  14.357   8.514   9.916
88980SOL     OW68771   1.928   4.631   6.079
88980SOL    HW168772   1.970   4.551   6.112
88980SOL    HW268773   1.836   4.606   6.066
88981SOL     OW68774  13.808  11.314   0.492
88981SOL    HW168775  13.891  11.285   0.454
88981SOL    HW268776  13.748  11.241   0.480
88982SOL     OW68777  14.495   4.203  10.932
88982SOL    HW168778  14.408   4.171  10.956
88982SOL    HW268779  14.550   4.184  11.009
88983SOL     OW68780   6.435   7.060   8.910
88983SOL    HW168781   6.519   7.036   8.948
88983SOL    HW268782   6.458   7.120   8.839
88984SOL     OW68783  11.337  12.279   8.024
88984SOL    HW168784  11.283  12.310   8.097
88984SOL    HW268785  11.363  12.358   7.977
88985SOL     OW68786   0.722   7.303   3.391
88985SOL    HW168787   0.801   7.333   3.436
88985SOL    HW268788   0.660   7.286   3.461
88986SOL     OW68789   2.374   1.075  10.688
88986SOL    HW168790   2.425   1.083  10.607
88986SOL    HW268791   2.404   1.149  10.742
88987SOL     OW68792  10.762   1.403  10.317
88987SOL    HW168793  10.741   1.438  10.404
88987SOL    HW268794  10.679   1.403  10.270
88988SOL     OW68795  11.185   9.047   2.157
88988SOL    HW168796  11.178   9.114   2.089
88988SOL    HW268797  11.167   8.965   2.111
88989SOL     OW68798   3.333   5.137   5.181
88989SOL    HW168799   3.251   5.131   5.133
88989SOL    HW268800   3.400   5.116   5.116
88990SOL     OW68801   5.337   8.322  12.182
88990SOL    HW168802   5.318   8.400  12.130
88990SOL    HW268803   5.330   8.250  12.121
88991SOL     OW68804   7.966  10.212  13.441
88991SOL    HW168805   7.962  10.122  13.475
88991SOL    HW268806   7.982  10.201  13.347
88992SOL     OW68807   6.794   3.193   4.071
88992SOL    HW168808   6.829   3.249   4.141
88992SOL    HW268809   6.791   3.250   3.994
88993SOL     OW68810   6.432  13.576  13.480
88993SOL    HW168811   6.363  13.584  13.546
88993SOL    HW268812   6.396  13.616  13.401
88994SOL     OW68813  11.193  14.048   1.683
88994SOL    HW168814  11.210  13.990   1.757
88994SOL    HW268815  11.275  14.097   1.671
88995SOL     OW68816   6.866   6.496  13.701
88995SOL    HW168817   6.844   6.585  13.674
88995SOL    HW268818   6.892   6.451  13.621
88996SOL     OW68819  10.898   1.679   4.224
88996SOL    HW168820  10.857   1.593   4.211
88996SOL    HW268821  10.978   1.659   4.273
88997SOL     OW68822   6.064  11.089  10.349
88997SOL    HW168823   5.981  11.106  10.394
88997SOL    HW268824   6.088  11.173  10.310
88998SOL     OW68825   6.043  11.724   0.982
88998SOL    HW168826   6.041  11.807   0.934
88998SOL    HW268827   5.996  11.662   0.925
88999SOL     OW68828  12.049  12.909   9.691
88999SOL    HW168829  12.036  12.949   9.777
88999SOL    HW268830  11.964  12.917   9.648
89000SOL     OW68831   0.195  11.974   8.388
89000SOL    HW168832   0.252  12.040   8.349
89000SOL    HW268833   0.204  11.898   8.330
89001SOL     OW68834   9.171   8.622   3.437
89001SOL    HW168835   9.197   8.591   3.524
89001SOL    HW268836   9.254   8.633   3.390
89002SOL     OW68837   1.951  14.612   7.884
89002SOL    HW168838   1.907  14.638   7.965
89002SOL    HW268839   1.937  14.686   7.825
89003SOL     OW68840   2.548   5.155   5.141
89003SOL    HW168841   2.516   5.154   5.231
89003SOL    HW268842   2.580   5.245   5.127
89004SOL     OW68843   5.427  10.734   3.217
89004SOL    HW168844   5.375  10.656   3.238
89004SOL    HW268845   5.515  10.713   3.249
89005SOL     OW68846   8.382   3.286  10.753
89005SOL    HW168847   8.344   3.342  10.821
89005SOL    HW268848   8.468   3.261  10.787
89006SOL     OW68849   9.719   5.403  10.352
89006SOL    HW168850   9.770   5.453  10.416
89006SOL    HW268851   9.698   5.465  10.283
89007SOL     OW68852   8.486   6.039   4.846
89007SOL    HW168853   8.505   6.132   4.859
89007SOL    HW268854   8.406   6.038   4.793
89008SOL     OW68855   3.228   2.519  13.910
89008SOL    HW168856   3.162   2.547  13.973
89008SOL    HW268857   3.193   2.548  13.825
89009SOL     OW68858   6.910  14.483  13.577
89009SOL    HW168859   6.877  14.404  13.533
89009SOL    HW268860   7.003  14.486  13.553
89010SOL     OW68861   4.425  11.238  11.597
89010SOL    HW168862   4.486  11.303  11.631
89010SOL    HW268863   4.401  11.184  11.673
89011SOL     OW68864   8.370   7.395  11.543
89011SOL    HW168865   8.412   7.476  11.573
89011SOL    HW268866   8.353   7.410  11.450
89012SOL     OW68867   6.100   4.223  13.326
89012SOL    HW168868   6.056   4.158  13.380
89012SOL    HW268869   6.179   4.246  13.376
89013SOL     OW68870   5.671  12.526  10.957
89013SOL    HW168871   5.638  12.598  11.012
89013SOL    HW268872   5.719  12.570  10.887
89014SOL     OW68873  12.731  11.809   5.093
89014SOL    HW168874  12.820  11.808   5.058
89014SOL    HW268875  12.676  11.841   5.021
89015SOL     OW68876  12.512  12.527   5.982
89015SOL    HW168877  12.427  12.490   6.007
89015SOL    HW268878  12.517  12.513   5.887
89016SOL     OW68879   5.966  11.651  14.429
89016SOL    HW168880   5.991  11.681  14.517
89016SOL    HW268881   5.911  11.721  14.394
89017SOL     OW68882   0.842  13.622   1.548
89017SOL    HW168883   0.771  13.592   1.605
89017SOL    HW268884   0.892  13.683   1.601
89018SOL     OW68885   9.645   3.015  14.734
89018SOL    HW168886   9.695   3.046  14.810
89018SOL    HW268887   9.619   2.926  14.757
89019SOL     OW68888   1.023   4.697   8.368
89019SOL    HW168889   1.025   4.788   8.338
89019SOL    HW268890   1.029   4.645   8.288
89020SOL     OW68891  12.489   8.902   8.826
89020SOL    HW168892  12.583   8.885   8.824
89020SOL    HW268893  12.462   8.901   8.734
89021SOL     OW68894   8.549  12.344   0.575
89021SOL    HW168895   8.547  12.280   0.504
89021SOL    HW268896   8.563  12.428   0.533
89022SOL     OW68897   4.795   2.031   2.995
89022SOL    HW168898   4.706   2.003   2.977
89022SOL    HW268899   4.832   1.961   3.049
89023SOL     OW68900   5.504   9.470   4.872
89023SOL    HW168901   5.531   9.481   4.963
89023SOL    HW268902   5.480   9.377   4.865
89024SOL     OW68903  14.298  11.329  12.636
89024SOL    HW168904  14.309  11.237  12.659
89024SOL    HW268905  14.314  11.377  12.718
89025SOL     OW68906   5.567   6.799  13.831
89025SOL    HW168907   5.553   6.782  13.738
89025SOL    HW268908   5.578   6.712  13.870
89026SOL     OW68909   3.730   9.098  13.755
89026SOL    HW168910   3.770   9.175  13.714
89026SOL    HW268911   3.659   9.133  13.809
89027SOL     OW68912   0.457   5.630  11.609
89027SOL    HW168913   0.454   5.725  11.624
89027SOL    HW268914   0.402   5.593  11.678
89028SOL     OW68915  10.698  10.801   5.128
89028SOL    HW168916  10.793  10.807   5.119
89028SOL    HW268917  10.682  10.807   5.222
89029SOL     OW68918  10.576   8.811   6.731
89029SOL    HW168919  10.613   8.723   6.722
89029SOL    HW268920  10.593   8.835   6.823
89030SOL     OW68921   5.082   7.724   9.165
89030SOL    HW168922   5.082   7.631   9.146
89030SOL    HW268923   5.061   7.730   9.258
89031SOL     OW68924   6.178   7.806  10.804
89031SOL    HW168925   6.211   7.717  10.789
89031SOL    HW268926   6.119   7.822  10.730
89032SOL     OW68927  12.974   1.947  10.118
89032SOL    HW168928  12.949   1.978  10.206
89032SOL    HW268929  12.896   1.900  10.087
89033SOL     OW68930   1.283  10.391   9.651
89033SOL    HW168931   1.308  10.300   9.667
89033SOL    HW268932   1.196  10.385   9.612
89034SOL     OW68933   7.415   9.899   1.887
89034SOL    HW168934   7.498   9.866   1.921
89034SOL    HW268935   7.420   9.884   1.792
89035SOL     OW68936   6.200   4.966   0.958
89035SOL    HW168937   6.162   4.938   1.041
89035SOL    HW268938   6.294   4.968   0.975
89036SOL     OW68939   9.524  14.267  13.164
89036SOL    HW168940   9.610  14.237  13.135
89036SOL    HW268941   9.466  14.249  13.091
89037SOL     OW68942   5.970   3.128   7.691
89037SOL    HW168943   6.002   3.074   7.763
89037SOL    HW268944   6.043   3.186   7.670
89038SOL     OW68945  14.626  10.295  14.319
89038SOL    HW168946  14.682  10.233  14.273
89038SOL    HW268947  14.637  10.275  14.412
89039SOL     OW68948   7.119   7.708   8.804
89039SOL    HW168949   7.212   7.709   8.830
89039SOL    HW268950   7.114   7.768   8.730
89040SOL     OW68951  13.787   7.345   2.843
89040SOL    HW168952  13.837   7.368   2.921
89040SOL    HW268953  13.803   7.251   2.831
89041SOL     OW68954   5.424   6.219   2.025
89041SOL    HW168955   5.334   6.214   2.055
89041SOL    HW268956   5.445   6.130   1.996
89042SOL     OW68957   2.792  10.715  12.993
89042SOL    HW168958   2.739  10.718  12.913
89042SOL    HW268959   2.873  10.760  12.970
89043SOL     OW68960   3.388   8.240   5.260
89043SOL    HW168961   3.437   8.158   5.274
89043SOL    HW268962   3.309   8.213   5.213
89044SOL     OW68963   9.584   8.049  10.753
89044SOL    HW168964   9.491   8.042  10.731
89044SOL    HW268965   9.616   8.120  10.697
89045SOL     OW68966   1.883   5.399   4.181
89045SOL    HW168967   1.858   5.483   4.220
89045SOL    HW268968   1.876   5.336   4.254
89046SOL     OW68969   9.193   7.445   4.131
89046SOL    HW168970   9.132   7.465   4.060
89046SOL    HW268971   9.280   7.456   4.093
89047SOL     OW68972   4.199  12.930  10.113
89047SOL    HW168973   4.264  12.861  10.125
89047SOL    HW268974   4.198  12.977  10.196
89048SOL     OW68975   8.492   8.260   0.316
89048SOL    HW168976   8.549   8.247   0.240
89048SOL    HW268977   8.403   8.261   0.278
89049SOL     OW68978   0.796  14.104  13.149
89049SOL    HW168979   0.830  14.193  13.156
89049SOL    HW268980   0.817  14.077  13.059
89050SOL     OW68981   4.781   0.416   8.002
89050SOL    HW168982   4.750   0.420   7.911
89050SOL    HW268983   4.772   0.324   8.026
89051SOL     OW68984   8.196   3.879  14.823
89051SOL    HW168985   8.172   3.916  14.738
89051SOL    HW268986   8.290   3.895  14.830
89052SOL     OW68987   0.316  10.878  10.844
89052SOL    HW168988   0.221  10.887  10.853
89052SOL    HW268989   0.330  10.786  10.823
89053SOL     OW68990   4.174  13.510  10.767
89053SOL    HW168991   4.255  13.559  10.754
89053SOL    HW268992   4.202  13.418  10.765
89054SOL     OW68993   5.443   4.576  13.092
89054SOL    HW168994   5.381   4.534  13.033
89054SOL    HW268995   5.396   4.651  13.127
89055SOL     OW68996   2.325   9.185  12.462
89055SOL    HW168997   2.254   9.139  12.508
89055SOL    HW268998   2.333   9.268  12.509
89056SOL     OW68999   3.897   4.384   5.996
89056SOL    HW169000   3.887   4.473   6.028
89056SOL    HW269001   3.885   4.391   5.901
89057SOL     OW69002   8.498  14.815   9.390
89057SOL    HW169003   8.457  14.843   9.308
89057SOL    HW269004   8.451  14.863   9.458
89058SOL     OW69005  13.107   3.218   1.546
89058SOL    HW169006  13.190   3.259   1.523
89058SOL    HW269007  13.108   3.213   1.641
89059SOL     OW69008  11.876  13.744   4.236
89059SOL    HW169009  11.780  13.738   4.239
89059SOL    HW269010  11.894  13.838   4.229
89060SOL     OW69011   9.379   2.742   8.312
89060SOL    HW169012   9.308   2.790   8.355
89060SOL    HW269013   9.341   2.657   8.289
89061SOL     OW69014   6.233   5.013  14.379
89061SOL    HW169015   6.149   4.972  14.359
89061SOL    HW269016   6.261   4.971  14.461
89062SOL     OW69017   7.938  10.085   8.585
89062SOL    HW169018   8.006  10.146   8.615
89062SOL    HW269019   7.944  10.011   8.645
89063SOL     OW69020   9.404   3.447  12.682
89063SOL    HW169021   9.457   3.379  12.723
89063SOL    HW269022   9.427   3.527  12.728
89064SOL     OW69023   3.222   9.623   9.931
89064SOL    HW169024   3.173   9.559   9.881
89064SOL    HW269025   3.175   9.630  10.014
89065SOL     OW69026   8.478  12.218   6.874
89065SOL    HW169027   8.499  12.311   6.861
89065SOL    HW269028   8.431  12.193   6.794
89066SOL     OW69029  10.999   8.229  13.481
89066SOL    HW169030  10.954   8.187  13.555
89066SOL    HW269031  11.008   8.159  13.417
89067SOL     OW69032   5.332   0.907   6.562
89067SOL    HW169033   5.368   0.857   6.635
89067SOL    HW269034   5.313   0.840   6.495
89068SOL     OW69035  10.402   7.442  13.294
89068SOL    HW169036  10.474   7.379  13.291
89068SOL    HW269037  10.395   7.475  13.204
89069SOL     OW69038  14.054   2.421   6.615
89069SOL    HW169039  14.011   2.499   6.651
89069SOL    HW269040  14.065   2.363   6.690
89070SOL     OW69041   0.841  13.419   2.521
89070SOL    HW169042   0.776  13.484   2.549
89070SOL    HW269043   0.844  13.356   2.593
89071SOL     OW69044  14.793   7.905  10.861
89071SOL    HW169045  14.798   7.998  10.886
89071SOL    HW269046  14.868   7.892  10.803
89072SOL     OW69047   3.674   8.964   3.016
89072SOL    HW169048   3.580   8.953   3.004
89072SOL    HW269049   3.687   9.059   3.020
89073SOL     OW69050  10.817   4.056   6.316
89073SOL    HW169051  10.871   4.099   6.383
89073SOL    HW269052  10.876   4.046   6.241
89074SOL     OW69053  10.396  10.794   0.329
89074SOL    HW169054  10.452  10.771   0.404
89074SOL    HW269055  10.347  10.871   0.359
89075SOL     OW69056  10.310   8.610   6.957
89075SOL    HW169057  10.217   8.599   6.936
89075SOL    HW269058  10.356   8.565   6.886
89076SOL     OW69059  11.455  14.273   4.727
89076SOL    HW169060  11.360  14.283   4.721
89076SOL    HW269061  11.476  14.202   4.666
89077SOL     OW69062   8.326   3.329   8.297
89077SOL    HW169063   8.284   3.338   8.382
89077SOL    HW269064   8.253   3.320   8.235
89078SOL     OW69065   1.395   0.503  10.704
89078SOL    HW169066   1.446   0.531  10.780
89078SOL    HW269067   1.399   0.408  10.706
89079SOL     OW69068  13.709   4.497   0.526
89079SOL    HW169069  13.795   4.460   0.546
89079SOL    HW269070  13.647   4.444   0.576
89080SOL     OW69071   7.705   9.508  12.891
89080SOL    HW169072   7.755   9.576  12.937
89080SOL    HW269073   7.614   9.534  12.901
89081SOL     OW69074   5.436   6.028   7.986
89081SOL    HW169075   5.395   6.003   8.068
89081SOL    HW269076   5.488   6.106   8.008
89082SOL     OW69077   6.994  14.253   5.007
89082SOL    HW169078   6.957  14.188   4.947
89082SOL    HW269079   6.922  14.275   5.066
89083SOL     OW69080  13.759  10.570   4.136
89083SOL    HW169081  13.839  10.618   4.115
89083SOL    HW269082  13.761  10.560   4.231
89084SOL     OW69083   3.521   6.426   4.713
89084SOL    HW169084   3.504   6.511   4.753
89084SOL    HW269085   3.602   6.438   4.663
89085SOL     OW69086   7.011   7.311   8.297
89085SOL    HW169087   7.049   7.224   8.311
89085SOL    HW269088   7.084   7.363   8.262
89086SOL     OW69089  13.628  14.803  13.756
89086SOL    HW169090  13.538  14.774  13.746
89086SOL    HW269091  13.645  14.857  13.679
89087SOL     OW69092   6.960   0.086   1.207
89087SOL    HW169093   6.947   0.030   1.131
89087SOL    HW269094   6.964   0.175   1.171
89088SOL     OW69095  11.206   2.064   6.378
89088SOL    HW169096  11.269   2.135   6.388
89088SOL    HW269097  11.190   2.034   6.468
89089SOL     OW69098   8.058   8.763   0.417
89089SOL    HW169099   8.108   8.822   0.360
89089SOL    HW269100   8.017   8.700   0.357
89090SOL     OW69101  14.583   4.831   0.817
89090SOL    HW169102  14.580   4.762   0.750
89090SOL    HW269103  14.496   4.872   0.812
89091SOL     OW69104   1.625  12.396   8.208
89091SOL    HW169105   1.626  12.304   8.235
89091SOL    HW269106   1.596  12.394   8.117
89092SOL     OW69107   6.719   9.286  13.899
89092SOL    HW169108   6.700   9.377  13.919
89092SOL    HW269109   6.633   9.244  13.895
89093SOL     OW69110   0.445   2.627   7.671
89093SOL    HW169111   0.378   2.575   7.626
89093SOL    HW269112   0.441   2.713   7.629
89094SOL     OW69113   8.722   5.124   4.326
89094SOL    HW169114   8.759   5.037   4.308
89094SOL    HW269115   8.798   5.178   4.349
89095SOL     OW69116  12.600   7.080  11.241
89095SOL    HW169117  12.643   7.073  11.156
89095SOL    HW269118  12.671   7.102  11.302
89096SOL     OW69119   0.812   8.784   2.966
89096SOL    HW169120   0.717   8.780   2.956
89096SOL    HW269121   0.826   8.844   3.039
89097SOL     OW69122   2.877   4.069  14.794
89097SOL    HW169123   2.876   3.980  14.759
89097SOL    HW269124   2.901   4.124  14.720
89098SOL     OW69125  12.560   7.593  14.669
89098SOL    HW169126  12.628   7.653  14.639
89098SOL    HW269127  12.570   7.515  14.614
89099SOL     OW69128   4.087  13.678  12.376
89099SOL    HW169129   4.111  13.750  12.435
89099SOL    HW269130   4.146  13.688  12.301
89100SOL     OW69131  11.472   2.261  12.070
89100SOL    HW169132  11.483   2.231  12.160
89100SOL    HW269133  11.427   2.345  12.078
89101SOL     OW69134   6.915   6.082   0.478
89101SOL    HW169135   6.956   6.020   0.419
89101SOL    HW269136   6.883   6.029   0.551
89102SOL     OW69137   0.683   9.948  11.732
89102SOL    HW169138   0.768   9.917  11.764
89102SOL    HW269139   0.665   9.894  11.655
89103SOL     OW69140   7.988   9.973   1.184
89103SOL    HW169141   8.013  10.036   1.116
89103SOL    HW269142   8.070   9.954   1.230
89104SOL     OW69143  13.260  12.437   8.319
89104SOL    HW169144  13.200  12.499   8.361
89104SOL    HW269145  13.263  12.466   8.227
89105SOL     OW69146  10.300  13.958   4.420
89105SOL    HW169147  10.255  14.041   4.432
89105SOL    HW269148  10.392  13.981   4.414
89106SOL     OW69149  14.003   1.241   2.786
89106SOL    HW169150  14.065   1.207   2.722
89106SOL    HW269151  14.001   1.336   2.769
89107SOL     OW69152  13.447   0.812  11.071
89107SOL    HW169153  13.481   0.833  11.157
89107SOL    HW269154  13.520   0.770  11.025
89108SOL     OW69155   2.217   8.719   5.263
89108SOL    HW169156   2.132   8.677   5.252
89108SOL    HW269157   2.252   8.726   5.174
89109SOL     OW69158   7.504  10.045   0.954
89109SOL    HW169159   7.594  10.029   0.982
89109SOL    HW269160   7.484   9.972   0.895
89110SOL     OW69161   8.247   3.489  14.087
89110SOL    HW169162   8.169   3.535  14.117
89110SOL    HW269163   8.320   3.546  14.112
89111SOL     OW69164  13.091   0.147  10.397
89111SOL    HW169165  13.095   0.237  10.428
89111SOL    HW269166  13.050   0.098  10.469
89112SOL     OW69167   6.995   0.340   1.095
89112SOL    HW169168   6.904   0.342   1.066
89112SOL    HW269169   7.002   0.412   1.158
89113SOL     OW69170  12.946   7.390   9.987
89113SOL    HW169171  12.975   7.478  10.009
89113SOL    HW269172  12.964   7.380   9.894
89114SOL     OW69173   9.002   3.039   9.386
89114SOL    HW169174   8.945   3.101   9.341
89114SOL    HW269175   9.027   2.976   9.318
89115SOL     OW69176   2.697  11.323  10.101
89115SOL    HW169177   2.605  11.348  10.106
89115SOL    HW269178   2.696  11.235  10.064
89116SOL     OW69179   2.883  10.644  12.583
89116SOL    HW169180   2.966  10.604  12.607
89116SOL    HW269181   2.901  10.689  12.500
89117SOL     OW69182   3.629   4.594   1.439
89117SOL    HW169183   3.609   4.688   1.441
89117SOL    HW269184   3.546   4.551   1.458
89118SOL     OW69185   7.232   1.270  12.814
89118SOL    HW169186   7.269   1.253  12.901
89118SOL    HW269187   7.174   1.345  12.827
89119SOL     OW69188   6.373   3.665   7.134
89119SOL    HW169189   6.350   3.621   7.217
89119SOL    HW269190   6.316   3.742   7.131
89120SOL     OW69191   3.812   3.187   4.884
89120SOL    HW169192   3.773   3.113   4.837
89120SOL    HW269193   3.755   3.200   4.959
89121SOL     OW69194   9.432  11.912  13.867
89121SOL    HW169195   9.382  11.988  13.896
89121SOL    HW269196   9.522  11.932  13.892
89122SOL     OW69197  10.936  10.554   8.273
89122SOL    HW169198  10.922  10.461   8.290
89122SOL    HW269199  10.909  10.597   8.353
89123SOL     OW69200   2.919   3.711   2.901
89123SOL    HW169201   2.923   3.788   2.845
89123SOL    HW269202   2.870   3.646   2.849
89124SOL     OW69203  13.980  13.382  14.871
89124SOL    HW169204  13.970  13.354  14.780
89124SOL    HW269205  13.896  13.423   0.021
89125SOL     OW69206   8.777  12.669  13.468
89125SOL    HW169207   8.692  12.646  13.430
89125SOL    HW269208   8.824  12.713  13.397
89126SOL     OW69209   5.942   9.780   9.536
89126SOL    HW169210   5.955   9.688   9.556
89126SOL    HW269211   5.851   9.798   9.560
89127SOL     OW69212   1.874   4.677   3.456
89127SOL    HW169213   1.894   4.602   3.512
89127SOL    HW269214   1.902   4.650   3.369
89128SOL     OW69215   5.126   7.642   3.486
89128SOL    HW169216   5.137   7.729   3.525
89128SOL    HW269217   5.061   7.654   3.418
89129SOL     OW69218   8.845   0.935   1.991
89129SOL    HW169219   8.796   0.874   2.046
89129SOL    HW269220   8.894   0.990   2.052
89130SOL     OW69221   2.928   0.808  12.359
89130SOL    HW169222   2.857   0.752  12.389
89130SOL    HW269223   3.003   0.749  12.349
89131SOL     OW69224   1.641   4.493   8.911
89131SOL    HW169225   1.578   4.458   8.848
89131SOL    HW269226   1.703   4.422   8.926
89132SOL     OW69227   9.413   6.458   9.789
89132SOL    HW169228   9.458   6.395   9.733
89132SOL    HW269229   9.446   6.543   9.761
89133SOL     OW69230   4.768   6.499   2.123
89133SOL    HW169231   4.860   6.477   2.105
89133SOL    HW269232   4.746   6.562   2.054
89134SOL     OW69233   5.862   1.779  11.912
89134SOL    HW169234   5.914   1.700  11.896
89134SOL    HW269235   5.771   1.750  11.901
89135SOL     OW69236  12.937   9.258  14.017
89135SOL    HW169237  12.907   9.339  13.975
89135SOL    HW269238  13.005   9.224  13.958
89136SOL     OW69239   9.473   2.339   2.001
89136SOL    HW169240   9.443   2.388   1.924
89136SOL    HW269241   9.509   2.406   2.059
89137SOL     OW69242   1.107   2.914  10.855
89137SOL    HW169243   1.176   2.977  10.878
89137SOL    HW269244   1.043   2.923  10.925
89138SOL     OW69245   1.520   6.292  12.896
89138SOL    HW169246   1.536   6.370  12.842
89138SOL    HW269247   1.435   6.308  12.937
89139SOL     OW69248   9.767   6.494   5.840
89139SOL    HW169249   9.796   6.433   5.907
89139SOL    HW269250   9.848   6.528   5.801
89140SOL     OW69251  13.975   8.175   8.586
89140SOL    HW169252  14.017   8.111   8.644
89140SOL    HW269253  13.884   8.147   8.581
89141SOL     OW69254  13.145   1.862   8.018
89141SOL    HW169255  13.115   1.787   7.966
89141SOL    HW269256  13.180   1.823   8.098
89142SOL     OW69257  11.844  10.932   2.602
89142SOL    HW169258  11.826  10.842   2.628
89142SOL    HW269259  11.854  10.980   2.684
89143SOL     OW69260  12.524  12.465   5.715
89143SOL    HW169261  12.603  12.415   5.697
89143SOL    HW269262  12.467  12.447   5.640
89144SOL     OW69263   8.617   4.329  13.010
89144SOL    HW169264   8.648   4.411  12.972
89144SOL    HW269265   8.554   4.295  12.946
89145SOL     OW69266  10.160   4.098   8.204
89145SOL    HW169267  10.246   4.119   8.239
89145SOL    HW269268  10.157   4.002   8.203
89146SOL     OW69269  14.147  14.402  13.860
89146SOL    HW169270  14.064  14.412  13.813
89146SOL    HW269271  14.122  14.379  13.949
89147SOL     OW69272  14.043  11.588  14.454
89147SOL    HW169273  14.017  11.566  14.544
89147SOL    HW269274  14.012  11.678  14.441
89148SOL     OW69275   4.500  12.082  10.337
89148SOL    HW169276   4.521  12.007  10.281
89148SOL    HW269277   4.580  12.135  10.337
89149SOL     OW69278   8.412  14.473   9.699
89149SOL    HW169279   8.394  14.499   9.608
89149SOL    HW269280   8.328  14.484   9.744
89150SOL     OW69281   4.303  14.316  11.888
89150SOL    HW169282   4.278  14.263  11.964
89150SOL    HW269283   4.241  14.291  11.819
89151SOL     OW69284   5.907   2.612   4.438
89151SOL    HW169285   5.833   2.567   4.477
89151SOL    HW269286   5.981   2.593   4.496
89152SOL     OW69287   4.496  11.793  12.568
89152SOL    HW169288   4.412  11.789  12.614
89152SOL    HW269289   4.561  11.788  12.638
89153SOL     OW69290   0.139  13.705   9.607
89153SOL    HW169291   0.085  13.724   9.530
89153SOL    HW269292   0.142  13.787   9.655
89154SOL     OW69293   0.619   2.783  10.258
89154SOL    HW169294   0.621   2.694  10.224
89154SOL    HW269295   0.707   2.799  10.290
89155SOL     OW69296   9.870  14.157   9.113
89155SOL    HW169297   9.937  14.183   9.049
89155SOL    HW269298   9.919  14.113   9.182
89156SOL     OW69299  14.789   4.201   3.819
89156SOL    HW169300   0.004   4.206   3.857
89156SOL    HW269301  14.803   4.199   3.724
89157SOL     OW69302  14.454  11.146  11.696
89157SOL    HW169303  14.371  11.108  11.670
89157SOL    HW269304  14.520  11.093  11.652
89158SOL     OW69305  10.097  12.819   7.700
89158SOL    HW169306  10.174  12.777   7.737
89158SOL    HW269307  10.077  12.891   7.760
89159SOL     OW69308   8.532   3.015  10.201
89159SOL    HW169309   8.564   2.965  10.276
89159SOL    HW269310   8.514   2.949  10.134
89160SOL     OW69311   2.491   2.868   1.164
89160SOL    HW169312   2.464   2.946   1.117
89160SOL    HW269313   2.494   2.894   1.256
89161SOL     OW69314  14.011   5.717   5.674
89161SOL    HW169315  14.072   5.787   5.649
89161SOL    HW269316  13.961   5.698   5.595
89162SOL     OW69317   7.684   9.819   0.787
89162SOL    HW169318   7.693   9.736   0.741
89162SOL    HW269319   7.693   9.796   0.880
89163SOL     OW69320   4.087   3.771  12.852
89163SOL    HW169321   4.137   3.711  12.907
89163SOL    HW269322   4.030   3.818  12.913
89164SOL     OW69323   8.570   9.133   1.296
89164SOL    HW169324   8.614   9.203   1.345
89164SOL    HW269325   8.519   9.086   1.362
89165SOL     OW69326   3.096  12.057   3.226
89165SOL    HW169327   3.165  12.120   3.208
89165SOL    HW269328   3.141  11.973   3.232
89166SOL     OW69329   9.825  13.501  11.919
89166SOL    HW169330   9.763  13.559  11.875
89166SOL    HW269331   9.870  13.557  11.983
89167SOL     OW69332  14.166   4.941   1.127
89167SOL    HW169333  14.230   4.875   1.102
89167SOL    HW269334  14.175   4.948   1.222
89168SOL     OW69335   1.293   4.929   7.936
89168SOL    HW169336   1.217   4.982   7.957
89168SOL    HW269337   1.352   4.941   8.011
89169SOL     OW69338   8.956   2.307   9.772
89169SOL    HW169339   8.985   2.265   9.691
89169SOL    HW269340   8.892   2.246   9.808
89170SOL     OW69341   3.821  13.593  10.530
89170SOL    HW169342   3.880  13.641  10.589
89170SOL    HW269343   3.749  13.654  10.514
89171SOL     OW69344   8.196   5.290  11.902
89171SOL    HW169345   8.248   5.370  11.893
89171SOL    HW269346   8.153   5.280  11.817
89172SOL     OW69347   1.843   3.184  13.168
89172SOL    HW169348   1.888   3.189  13.083
89172SOL    HW269349   1.815   3.092  13.174
89173SOL     OW69350  14.682   5.229  10.314
89173SOL    HW169351  14.722   5.151  10.351
89173SOL    HW269352  14.589   5.221  10.334
89174SOL     OW69353   4.133   0.459   8.633
89174SOL    HW169354   4.127   0.531   8.696
89174SOL    HW269355   4.162   0.500   8.552
89175SOL     OW69356  14.686  12.564   7.681
89175SOL    HW169357  14.717  12.629   7.744
89175SOL    HW269358  14.654  12.616   7.607
89176SOL     OW69359  13.731  14.773   7.946
89176SOL    HW169360  13.752  14.866   7.960
89176SOL    HW269361  13.816  14.732   7.926
89177SOL     OW69362   9.315   1.046  11.728
89177SOL    HW169363   9.271   1.012  11.650
89177SOL    HW269364   9.321   1.140  11.712
89178SOL     OW69365   5.737   6.014  13.779
89178SOL    HW169366   5.676   5.947  13.807
89178SOL    HW269367   5.731   6.082  13.847
89179SOL     OW69368   5.815   8.126   3.599
89179SOL    HW169369   5.721   8.114   3.613
89179SOL    HW269370   5.821   8.200   3.539
89180SOL     OW69371   4.828   0.356  10.027
89180SOL    HW169372   4.756   0.399   9.981
89180SOL    HW269373   4.822   0.389  10.117
89181SOL     OW69374  13.589  13.520   2.753
89181SOL    HW169375  13.548  13.561   2.829
89181SOL    HW269376  13.651  13.586   2.721
89182SOL     OW69377   8.929   6.516  13.687
89182SOL    HW169378   8.989   6.575  13.641
89182SOL    HW269379   8.950   6.527  13.779
89183SOL     OW69380   1.882   2.227  13.906
89183SOL    HW169381   1.854   2.138  13.887
89183SOL    HW269382   1.911   2.262  13.821
89184SOL     OW69383   0.609   0.160   8.848
89184SOL    HW169384   0.650   0.239   8.814
89184SOL    HW269385   0.682   0.109   8.885
89185SOL     OW69386   8.375   8.615   9.439
89185SOL    HW169387   8.446   8.637   9.498
89185SOL    HW269388   8.298   8.606   9.496
89186SOL     OW69389  12.076   3.381  11.221
89186SOL    HW169390  11.999   3.418  11.263
89186SOL    HW269391  12.139   3.453  11.216
89187SOL     OW69392   9.269   7.733  12.638
89187SOL    HW169393   9.234   7.819  12.618
89187SOL    HW269394   9.279   7.691  12.553
89188SOL     OW69395   3.555   5.075   9.728
89188SOL    HW169396   3.643   5.037   9.740
89188SOL    HW269397   3.538   5.122   9.810
89189SOL     OW69398   9.163   0.349  14.035
89189SOL    HW169399   9.075   0.371  14.006
89189SOL    HW269400   9.154   0.328  14.128
89190SOL     OW69401   8.218   7.054   5.167
89190SOL    HW169402   8.291   6.996   5.145
89190SOL    HW269403   8.144   7.018   5.118
89191SOL     OW69404  12.941  10.800  12.879
89191SOL    HW169405  13.023  10.756  12.857
89191SOL    HW269406  12.964  10.857  12.953
89192SOL     OW69407   0.279  10.717  11.326
89192SOL    HW169408   0.339  10.644  11.346
89192SOL    HW269409   0.230  10.730  11.408
89193SOL     OW69410   8.967   5.075   3.113
89193SOL    HW169411   8.971   5.064   3.208
89193SOL    HW269412   9.001   4.993   3.078
89194SOL     OW69413   7.422   5.022   6.598
89194SOL    HW169414   7.439   5.088   6.530
89194SOL    HW269415   7.328   5.026   6.612
89195SOL     OW69416   4.272  14.281   0.296
89195SOL    HW169417   4.179  14.305   0.296
89195SOL    HW269418   4.279  14.217   0.368
89196SOL     OW69419   7.756   1.146   7.042
89196SOL    HW169420   7.737   1.132   6.949
89196SOL    HW269421   7.830   1.208   7.042
89197SOL     OW69422  13.055   0.446  10.934
89197SOL    HW169423  13.130   0.421  10.880
89197SOL    HW269424  12.980   0.405  10.890
89198SOL     OW69425  13.657   7.987  11.539
89198SOL    HW169426  13.736   7.946  11.574
89198SOL    HW269427  13.677   8.002  11.446
89199SOL     OW69428   8.228   9.208   3.923
89199SOL    HW169429   8.315   9.192   3.957
89199SOL    HW269430   8.196   9.284   3.972
89200SOL     OW69431   3.818   6.557  10.217
89200SOL    HW169432   3.867   6.524  10.141
89200SOL    HW269433   3.726   6.545  10.194
89201SOL     OW69434   8.993  14.299   9.558
89201SOL    HW169435   9.031  14.362   9.496
89201SOL    HW269436   9.067  14.249   9.590
89202SOL     OW69437  12.271  14.292  10.592
89202SOL    HW169438  12.195  14.275  10.537
89202SOL    HW269439  12.304  14.377  10.561
89203SOL     OW69440   3.151   3.446  12.065
89203SOL    HW169441   3.230   3.487  12.030
89203SOL    HW269442   3.179   3.358  12.091
89204SOL     OW69443   4.156   6.719   8.539
89204SOL    HW169444   4.238   6.720   8.489
89204SOL    HW269445   4.089   6.693   8.476
89205SOL     OW69446   9.075  12.428   4.629
89205SOL    HW169447   9.040  12.516   4.613
89205SOL    HW269448   9.147  12.442   4.690
89206SOL     OW69449   1.254  13.936   5.507
89206SOL    HW169450   1.299  13.908   5.427
89206SOL    HW269451   1.170  13.971   5.477
89207SOL     OW69452  14.174  12.022   3.134
89207SOL    HW169453  14.242  12.085   3.155
89207SOL    HW269454  14.172  12.019   3.039
89208SOL     OW69455   5.269   2.184  13.891
89208SOL    HW169456   5.263   2.276  13.867
89208SOL    HW269457   5.234   2.136  13.816
89209SOL     OW69458   9.416  13.984   9.982
89209SOL    HW169459   9.388  13.940   9.902
89209SOL    HW269460   9.334  14.006  10.028
89210SOL     OW69461   9.868  12.231  12.576
89210SOL    HW169462   9.827  12.314  12.552
89210SOL    HW269463   9.927  12.211  12.503
89211SOL     OW69464  10.722   1.528   6.338
89211SOL    HW169465  10.758   1.467   6.274
89211SOL    HW269466  10.791   1.538   6.403
89212SOL     OW69467  10.199   7.045  13.148
89212SOL    HW169468  10.148   7.004  13.218
89212SOL    HW269469  10.146   7.032  13.070
89213SOL     OW69470   1.209   1.751   2.237
89213SOL    HW169471   1.237   1.821   2.178
89213SOL    HW269472   1.220   1.787   2.325
89214SOL     OW69473  11.884   3.249  11.877
89214SOL    HW169474  11.913   3.196  11.950
89214SOL    HW269475  11.788   3.251  11.885
89215SOL     OW69476   8.475  11.267  12.211
89215SOL    HW169477   8.515  11.276  12.124
89215SOL    HW269478   8.548  11.247  12.269
89216SOL     OW69479   4.192   1.744   2.891
89216SOL    HW169480   4.277   1.737   2.935
89216SOL    HW269481   4.169   1.654   2.867
89217SOL     OW69482   4.112   6.983   5.901
89217SOL    HW169483   4.051   7.057   5.896
89217SOL    HW269484   4.197   7.023   5.920
89218SOL     OW69485   3.982   3.210   3.106
89218SOL    HW169486   3.925   3.285   3.121
89218SOL    HW269487   3.990   3.205   3.011
89219SOL     OW69488  14.206   5.888   2.469
89219SOL    HW169489  14.198   5.893   2.374
89219SOL    HW269490  14.211   5.979   2.497
89220SOL     OW69491  11.712   4.755   1.695
89220SOL    HW169492  11.768   4.695   1.743
89220SOL    HW269493  11.667   4.701   1.630
89221SOL     OW69494   9.621  13.562  13.701
89221SOL    HW169495   9.666  13.505  13.638
89221SOL    HW269496   9.691  13.607  13.748
89222SOL     OW69497   6.325   4.009   3.547
89222SOL    HW169498   6.288   4.045   3.466
89222SOL    HW269499   6.334   3.915   3.530
89223SOL     OW69500   4.843  11.766  11.844
89223SOL    HW169501   4.882  11.809  11.767
89223SOL    HW269502   4.889  11.682  11.850
89224SOL     OW69503   9.640  11.201   1.324
89224SOL    HW169504   9.624  11.122   1.273
89224SOL    HW269505   9.602  11.272   1.272
89225SOL     OW69506   0.687   3.203  14.708
89225SOL    HW169507   0.617   3.148  14.744
89225SOL    HW269508   0.685   3.187  14.614
89226SOL     OW69509   8.910   1.867   5.814
89226SOL    HW169510   8.999   1.898   5.796
89226SOL    HW269511   8.897   1.883   5.907
89227SOL     OW69512   5.190   6.036   6.540
89227SOL    HW169513   5.140   5.967   6.584
89227SOL    HW269514   5.124   6.098   6.508
89228SOL     OW69515   5.617  11.917   5.572
89228SOL    HW169516   5.582  11.964   5.496
89228SOL    HW269517   5.550  11.928   5.640
89229SOL     OW69518   2.223   8.335   8.820
89229SOL    HW169519   2.199   8.244   8.842
89229SOL    HW269520   2.196   8.385   8.897
89230SOL     OW69521   0.714   0.324   1.697
89230SOL    HW169522   0.717   0.341   1.791
89230SOL    HW269523   0.712   0.228   1.690
89231SOL     OW69524   7.526  12.085   1.240
89231SOL    HW169525   7.540  12.172   1.277
89231SOL    HW269526   7.460  12.045   1.296
89232SOL     OW69527  11.691   1.526   6.743
89232SOL    HW169528  11.653   1.562   6.663
89232SOL    HW269529  11.786   1.525   6.727
89233SOL     OW69530   4.885   5.953   1.415
89233SOL    HW169531   4.856   5.916   1.332
89233SOL    HW269532   4.809   6.003   1.446
89234SOL     OW69533   5.087   5.343   7.465
89234SOL    HW169534   5.147   5.290   7.414
89234SOL    HW269535   5.000   5.321   7.431
89235SOL     OW69536   7.537   9.423  11.105
89235SOL    HW169537   7.571   9.444  11.018
89235SOL    HW269538   7.533   9.507  11.151
89236SOL     OW69539   9.428  10.350   5.577
89236SOL    HW169540   9.340  10.364   5.542
89236SOL    HW269541   9.466  10.438   5.583
89237SOL     OW69542   3.517   7.712   2.319
89237SOL    HW169543   3.607   7.682   2.317
89237SOL    HW269544   3.509   7.769   2.242
89238SOL     OW69545   4.825  12.553  13.402
89238SOL    HW169546   4.885  12.623  13.427
89238SOL    HW269547   4.777  12.589  13.328
89239SOL     OW69548  11.864   3.794  14.729
89239SOL    HW169549  11.783   3.790  14.678
89239SOL    HW269550  11.932   3.809  14.664
89240SOL     OW69551   3.288   5.091   5.586
89240SOL    HW169552   3.351   5.134   5.528
89240SOL    HW269553   3.241   5.030   5.529
89241SOL     OW69554   4.785   2.233   5.464
89241SOL    HW169555   4.850   2.280   5.516
89241SOL    HW269556   4.779   2.282   5.382
89242SOL     OW69557  10.903   7.951   4.243
89242SOL    HW169558  10.912   7.950   4.147
89242SOL    HW269559  10.932   8.039   4.268
89243SOL     OW69560  12.214   2.312   7.521
89243SOL    HW169561  12.244   2.233   7.566
89243SOL    HW269562  12.292   2.366   7.513
89244SOL     OW69563   3.618   6.210  12.107
89244SOL    HW169564   3.632   6.118  12.130
89244SOL    HW269565   3.523   6.220  12.106
89245SOL     OW69566  11.324   2.019   6.656
89245SOL    HW169567  11.397   2.034   6.595
89245SOL    HW269568  11.363   1.972   6.729
89246SOL     OW69569  11.635   3.125  14.302
89246SOL    HW169570  11.666   3.040  14.271
89246SOL    HW269571  11.580   3.158  14.231
89247SOL     OW69572   8.210   0.427   4.551
89247SOL    HW169573   8.279   0.481   4.511
89247SOL    HW269574   8.135   0.486   4.556
89248SOL     OW69575  14.446  13.397   5.537
89248SOL    HW169576  14.415  13.450   5.611
89248SOL    HW269577  14.401  13.434   5.461
89249SOL     OW69578   2.715  13.613  11.443
89249SOL    HW169579   2.742  13.655  11.362
89249SOL    HW269580   2.781  13.545  11.457
89250SOL     OW69581  11.104   8.462  12.094
89250SOL    HW169582  11.141   8.550  12.094
89250SOL    HW269583  11.175   8.406  12.063
89251SOL     OW69584  13.628  13.207  12.464
89251SOL    HW169585  13.572  13.144  12.509
89251SOL    HW269586  13.708  13.210  12.516
89252SOL     OW69587   1.050   0.852   1.129
89252SOL    HW169588   1.093   0.788   1.072
89252SOL    HW269589   0.983   0.892   1.074
89253SOL     OW69590   5.932   7.892  12.446
89253SOL    HW169591   5.977   7.855  12.523
89253SOL    HW269592   6.003   7.923  12.390
89254SOL     OW69593  14.329  10.882  10.045
89254SOL    HW169594  14.344  10.790  10.068
89254SOL    HW269595  14.367  10.892   9.958
89255SOL     OW69596  12.476   8.328   3.149
89255SOL    HW169597  12.552   8.279   3.179
89255SOL    HW269598  12.506   8.375   3.072
89256SOL     OW69599   5.789   4.221   0.811
89256SOL    HW169600   5.758   4.171   0.736
89256SOL    HW269601   5.812   4.155   0.876
89257SOL     OW69602   7.408  12.688   3.098
89257SOL    HW169603   7.418  12.759   3.034
89257SOL    HW269604   7.391  12.732   3.181
89258SOL     OW69605  10.781   9.664  13.300
89258SOL    HW169606  10.844   9.659  13.228
89258SOL    HW269607  10.723   9.589  13.287
89259SOL     OW69608  12.218   8.382  10.930
89259SOL    HW169609  12.126   8.382  10.955
89259SOL    HW269610  12.220   8.422  10.843
89260SOL     OW69611  12.217   1.775  12.260
89260SOL    HW169612  12.218   1.691  12.308
89260SOL    HW269613  12.124   1.799  12.258
89261SOL     OW69614  10.743   0.579   6.563
89261SOL    HW169615  10.755   0.494   6.605
89261SOL    HW269616  10.819   0.630   6.591
89262SOL     OW69617   8.679   0.808  10.179
89262SOL    HW169618   8.599   0.759  10.160
89262SOL    HW269619   8.747   0.766  10.126
89263SOL     OW69620   9.774   5.734   2.594
89263SOL    HW169621   9.827   5.766   2.666
89263SOL    HW269622   9.683   5.748   2.623
89264SOL     OW69623  11.216   0.585   5.836
89264SOL    HW169624  11.211   0.557   5.927
89264SOL    HW269625  11.165   0.520   5.788
89265SOL     OW69626   3.116   4.636  10.925
89265SOL    HW169627   3.149   4.702  10.864
89265SOL    HW269628   3.056   4.684  10.982
89266SOL     OW69629  13.281   0.808   9.141
89266SOL    HW169630  13.342   0.864   9.188
89266SOL    HW269631  13.197   0.853   9.146
89267SOL     OW69632   7.186   6.280   0.187
89267SOL    HW169633   7.237   6.293   0.266
89267SOL    HW269634   7.246   6.301   0.115
89268SOL     OW69635  13.584  12.344   2.983
89268SOL    HW169636  13.591  12.266   2.928
89268SOL    HW269637  13.672  12.355   3.019
89269SOL     OW69638   8.531   8.187   5.838
89269SOL    HW169639   8.560   8.106   5.796
89269SOL    HW269640   8.536   8.253   5.769
89270SOL     OW69641  10.007   7.455   1.599
89270SOL    HW169642  10.042   7.373   1.633
89270SOL    HW269643  10.073   7.485   1.537
89271SOL     OW69644   0.857   3.368   8.222
89271SOL    HW169645   0.911   3.421   8.163
89271SOL    HW269646   0.767   3.392   8.200
89272SOL     OW69647   5.040  14.698  11.213
89272SOL    HW169648   5.086  14.757  11.153
89272SOL    HW269649   4.947  14.720  11.202
89273SOL     OW69650   8.803  14.187  11.814
89273SOL    HW169651   8.813  14.108  11.867
89273SOL    HW269652   8.888  14.230  11.818
89274SOL     OW69653   6.967  10.260   5.695
89274SOL    HW169654   6.891  10.306   5.661
89274SOL    HW269655   7.042  10.301   5.652
89275SOL     OW69656   8.416   4.999   0.651
89275SOL    HW169657   8.331   4.988   0.693
89275SOL    HW269658   8.471   4.929   0.688
89276SOL     OW69659  10.414  13.254   9.385
89276SOL    HW169660  10.434  13.226   9.474
89276SOL    HW269661  10.382  13.175   9.342
89277SOL     OW69662   9.368  10.421   9.219
89277SOL    HW169663   9.436  10.368   9.177
89277SOL    HW269664   9.317  10.456   9.146
89278SOL     OW69665   9.186   5.027  13.905
89278SOL    HW169666   9.229   4.962  13.849
89278SOL    HW269667   9.149   5.090  13.843
89279SOL     OW69668   4.073   1.555  12.707
89279SOL    HW169669   4.157   1.586  12.741
89279SOL    HW269670   4.014   1.630  12.717
89280SOL     OW69671   2.151   0.597   2.693
89280SOL    HW169672   2.141   0.638   2.779
89280SOL    HW269673   2.061   0.588   2.660
89281SOL     OW69674   0.620  11.826   4.055
89281SOL    HW169675   0.538  11.852   4.096
89281SOL    HW269676   0.617  11.864   3.967
89282SOL     OW69677   8.988   2.927   6.627
89282SOL    HW169678   8.944   3.001   6.585
89282SOL    HW269679   9.024   2.963   6.708
89283SOL     OW69680   5.387   4.553   9.522
89283SOL    HW169681   5.308   4.573   9.471
89283SOL    HW269682   5.411   4.465   9.493
89284SOL     OW69683  14.513  14.218   2.297
89284SOL    HW169684  14.591  14.246   2.249
89284SOL    HW269685  14.531  14.127   2.320
89285SOL     OW69686   4.280  14.839  12.186
89285SOL    HW169687   4.186  14.833  12.203
89285SOL    HW269688   4.322  14.813  12.268
89286SOL     OW69689   2.444   6.446  12.786
89286SOL    HW169690   2.443   6.351  12.777
89286SOL    HW269691   2.435   6.479  12.696
89287SOL     OW69692  11.913   1.542   0.256
89287SOL    HW169693  11.980   1.556   0.189
89287SOL    HW269694  11.838   1.592   0.226
89288SOL     OW69695   1.555   5.732  14.051
89288SOL    HW169696   1.648   5.758  14.053
89288SOL    HW269697   1.516   5.788  13.985
89289SOL     OW69698   0.449   1.791   3.869
89289SOL    HW169699   0.490   1.704   3.862
89289SOL    HW269700   0.435   1.817   3.778
89290SOL     OW69701   3.021   9.010   0.924
89290SOL    HW169702   2.929   9.009   0.952
89290SOL    HW269703   3.071   9.003   1.006
89291SOL     OW69704   8.333   4.366   1.028
89291SOL    HW169705   8.370   4.280   1.051
89291SOL    HW269706   8.272   4.385   1.100
89292SOL     OW69707   5.886   9.170   2.995
89292SOL    HW169708   5.807   9.125   2.965
89292SOL    HW269709   5.946   9.099   3.017
89293SOL     OW69710   9.636   5.915  10.330
89293SOL    HW169711   9.634   5.932  10.236
89293SOL    HW269712   9.723   5.879  10.346
89294SOL     OW69713  12.636   8.616  13.094
89294SOL    HW169714  12.612   8.632  13.003
89294SOL    HW269715  12.668   8.526  13.095
89295SOL     OW69716  10.940   7.074   9.264
89295SOL    HW169717  10.943   6.986   9.227
89295SOL    HW269718  11.029   7.108   9.251
89296SOL     OW69719  11.730  12.011   7.545
89296SOL    HW169720  11.645  12.040   7.578
89296SOL    HW269721  11.790  12.082   7.568
89297SOL     OW69722   7.770  14.061   2.362
89297SOL    HW169723   7.784  14.134   2.301
89297SOL    HW269724   7.689  14.021   2.334
89298SOL     OW69725   3.572  14.778  12.715
89298SOL    HW169726   3.559  14.685  12.734
89298SOL    HW269727   3.484  14.815  12.713
89299SOL     OW69728  13.766  12.281   8.771
89299SOL    HW169729  13.703  12.264   8.841
89299SOL    HW269730  13.805  12.365   8.794
89300SOL     OW69731  10.581  14.368   6.959
89300SOL    HW169732  10.523  14.315   6.904
89300SOL    HW269733  10.666  14.362   6.916
89301SOL     OW69734   9.388  13.651   9.873
89301SOL    HW169735   9.447  13.597   9.925
89301SOL    HW269736   9.421  13.643   9.783
89302SOL     OW69737  10.946   7.581   3.962
89302SOL    HW169738  11.018   7.519   3.947
89302SOL    HW269739  10.988   7.666   3.966
89303SOL     OW69740   2.066   8.810   3.596
89303SOL    HW169741   2.106   8.824   3.510
89303SOL    HW269742   1.978   8.845   3.589
89304SOL     OW69743   7.974  12.707   0.580
89304SOL    HW169744   7.920  12.778   0.616
89304SOL    HW269745   7.961  12.634   0.641
89305SOL     OW69746   4.876   2.612  13.153
89305SOL    HW169747   4.925   2.693  13.167
89305SOL    HW269748   4.924   2.546  13.203
89306SOL     OW69749  14.790   8.214  11.576
89306SOL    HW169750  14.774   8.259  11.659
89306SOL    HW269751  14.711   8.161  11.562
89307SOL     OW69752  10.227  13.230   6.768
89307SOL    HW169753  10.170  13.187   6.831
89307SOL    HW269754  10.227  13.172   6.692
89308SOL     OW69755   5.539  10.274   8.543
89308SOL    HW169756   5.479  10.210   8.580
89308SOL    HW269757   5.482  10.344   8.511
89309SOL     OW69758   5.666   4.832   3.639
89309SOL    HW169759   5.649   4.756   3.694
89309SOL    HW269760   5.761   4.843   3.641
89310SOL     OW69761   8.700   9.606  14.390
89310SOL    HW169762   8.780   9.561  14.362
89310SOL    HW269763   8.689   9.677  14.327
89311SOL     OW69764   2.612   4.456   0.374
89311SOL    HW169765   2.665   4.532   0.399
89311SOL    HW269766   2.652   4.382   0.420
89312SOL     OW69767  12.448  13.541  10.125
89312SOL    HW169768  12.354  13.537  10.140
89312SOL    HW269769  12.458  13.530  10.030
89313SOL     OW69770   9.546  14.509  11.347
89313SOL    HW169771   9.575  14.530  11.258
89313SOL    HW269772   9.497  14.587  11.375
89314SOL     OW69773   8.725   8.582  13.375
89314SOL    HW169774   8.650   8.546  13.422
89314SOL    HW269775   8.740   8.667  13.415
89315SOL     OW69776  13.111  13.930  12.288
89315SOL    HW169777  13.064  13.861  12.241
89315SOL    HW269778  13.202  13.920  12.261
89316SOL     OW69779   9.375   3.497   2.027
89316SOL    HW169780   9.345   3.426   1.970
89316SOL    HW269781   9.300   3.518   2.082
89317SOL     OW69782   0.593   7.891   0.731
89317SOL    HW169783   0.548   7.908   0.814
89317SOL    HW269784   0.594   7.796   0.723
89318SOL     OW69785   2.793   7.400   9.457
89318SOL    HW169786   2.850   7.335   9.499
89318SOL    HW269787   2.772   7.362   9.372
89319SOL     OW69788   0.929  14.734   2.885
89319SOL    HW169789   0.965  14.748   2.973
89319SOL    HW269790   0.850  14.787   2.883
89320SOL     OW69791  11.652   6.448   3.392
89320SOL    HW169792  11.668   6.448   3.487
89320SOL    HW269793  11.565   6.409   3.383
89321SOL     OW69794   1.788  12.530  14.047
89321SOL    HW169795   1.809  12.460  14.109
89321SOL    HW269796   1.847  12.601  14.071
89322SOL     OW69797  13.247   3.356  11.792
89322SOL    HW169798  13.335   3.380  11.823
89322SOL    HW269799  13.263   3.291  11.723
89323SOL     OW69800   0.905  12.049  11.788
89323SOL    HW169801   0.871  12.137  11.771
89323SOL    HW269802   0.992  12.064  11.826
89324SOL     OW69803   2.756   2.185   1.542
89324SOL    HW169804   2.761   2.141   1.456
89324SOL    HW269805   2.824   2.143   1.594
89325SOL     OW69806   7.225   2.510   1.749
89325SOL    HW169807   7.146   2.491   1.798
89325SOL    HW269808   7.293   2.520   1.816
89326SOL     OW69809   5.745   8.238  13.731
89326SOL    HW169810   5.835   8.256  13.759
89326SOL    HW269811   5.754   8.183  13.653
89327SOL     OW69812   9.557  11.953   0.883
89327SOL    HW169813   9.633  11.904   0.914
89327SOL    HW269814   9.562  12.037   0.930
89328SOL     OW69815  10.885   6.943   7.002
89328SOL    HW169816  10.943   6.961   7.076
89328SOL    HW269817  10.876   7.027   6.957
89329SOL     OW69818  11.465   2.897   4.897
89329SOL    HW169819  11.499   2.870   4.982
89329SOL    HW269820  11.371   2.903   4.909
89330SOL     OW69821   4.791   4.009   4.904
89330SOL    HW169822   4.863   3.948   4.888
89330SOL    HW269823   4.713   3.961   4.875
89331SOL     OW69824   9.581   7.915   8.300
89331SOL    HW169825   9.554   7.920   8.392
89331SOL    HW269826   9.676   7.929   8.302
89332SOL     OW69827  11.915   4.376   4.654
89332SOL    HW169828  11.932   4.449   4.714
89332SOL    HW269829  11.968   4.396   4.576
89333SOL     OW69830   4.916   4.081  12.321
89333SOL    HW169831   4.829   4.058  12.354
89333SOL    HW269832   4.976   4.023  12.368
89334SOL     OW69833   9.403   4.977   4.447
89334SOL    HW169834   9.345   5.009   4.379
89334SOL    HW269835   9.394   4.882   4.444
89335SOL     OW69836   2.717   0.982   6.902
89335SOL    HW169837   2.689   0.891   6.891
89335SOL    HW269838   2.642   1.025   6.945
89336SOL     OW69839  12.983   3.383  14.758
89336SOL    HW169840  12.991   3.439  14.680
89336SOL    HW269841  12.907   3.418  14.804
89337SOL     OW69842   7.910  11.479   8.900
89337SOL    HW169843   7.883  11.387   8.891
89337SOL    HW269844   7.884  11.502   8.990
89338SOL     OW69845  14.273  11.335   8.943
89338SOL    HW169846  14.211  11.396   8.983
89338SOL    HW269847  14.228  11.251   8.944
89339SOL     OW69848   8.784  12.951   8.218
89339SOL    HW169849   8.834  12.907   8.149
89339SOL    HW269850   8.735  12.880   8.260
89340SOL     OW69851   7.551  14.491   0.148
89340SOL    HW169852   7.545  14.559   0.081
89340SOL    HW269853   7.512  14.531   0.226
89341SOL     OW69854   8.258   5.548   4.116
89341SOL    HW169855   8.197   5.489   4.073
89341SOL    HW269856   8.334   5.550   4.058
89342SOL     OW69857  12.146   3.665   5.383
89342SOL    HW169858  12.107   3.593   5.432
89342SOL    HW269859  12.221   3.693   5.437
89343SOL     OW69860   9.208   1.829   0.241
89343SOL    HW169861   9.158   1.758   0.282
89343SOL    HW269862   9.240   1.792   0.159
89344SOL     OW69863   6.726   7.825   2.139
89344SOL    HW169864   6.683   7.909   2.130
89344SOL    HW269865   6.820   7.845   2.136
89345SOL     OW69866   4.272   5.364  13.811
89345SOL    HW169867   4.247   5.272  13.800
89345SOL    HW269868   4.245   5.386  13.900
89346SOL     OW69869   1.145  11.054   6.442
89346SOL    HW169870   1.086  11.097   6.503
89346SOL    HW269871   1.206  11.123   6.414
89347SOL     OW69872   8.349  11.738   4.787
89347SOL    HW169873   8.279  11.674   4.774
89347SOL    HW269874   8.314  11.819   4.751
89348SOL     OW69875   8.395  13.155   5.900
89348SOL    HW169876   8.315  13.206   5.888
89348SOL    HW269877   8.375  13.094   5.971
89349SOL     OW69878   0.434  12.320   0.082
89349SOL    HW169879   0.401  12.322  14.864
89349SOL    HW269880   0.413  12.407   0.116
89350SOL     OW69881  11.453   1.134   3.768
89350SOL    HW169882  11.533   1.134   3.821
89350SOL    HW269883  11.416   1.046   3.780
89351SOL     OW69884   1.417   9.251   6.378
89351SOL    HW169885   1.351   9.319   6.387
89351SOL    HW269886   1.389   9.181   6.438
89352SOL     OW69887   4.969   0.439   3.860
89352SOL    HW169888   4.934   0.435   3.949
89352SOL    HW269889   5.026   0.516   3.859
89353SOL     OW69890   3.299  10.305   5.774
89353SOL    HW169891   3.253  10.221   5.782
89353SOL    HW269892   3.368  10.288   5.710
89354SOL     OW69893  12.668  14.565  13.642
89354SOL    HW169894  12.620  14.553  13.724
89354SOL    HW269895  12.603  14.601  13.581
89355SOL     OW69896  12.163  14.280  13.387
89355SOL    HW169897  12.194  14.227  13.460
89355SOL    HW269898  12.232  14.345  13.374
89356SOL     OW69899   2.675  14.068   6.051
89356SOL    HW169900   2.698  13.978   6.072
89356SOL    HW269901   2.616  14.061   5.976
89357SOL     OW69902  13.243   3.961   5.485
89357SOL    HW169903  13.252   4.029   5.552
89357SOL    HW269904  13.178   3.996   5.424
89358SOL     OW69905   9.029  14.116   5.398
89358SOL    HW169906   8.960  14.050   5.392
89358SOL    HW269907   8.994  14.192   5.352
89359SOL     OW69908   1.875   9.676   8.902
89359SOL    HW169909   1.860   9.770   8.893
89359SOL    HW269910   1.834   9.638   8.824
89360SOL     OW69911   2.176   7.292   2.717
89360SOL    HW169912   2.087   7.326   2.725
89360SOL    HW269913   2.179   7.219   2.779
89361SOL     OW69914  14.862   5.210   5.796
89361SOL    HW169915   0.058   5.180   5.736
89361SOL    HW269916   0.022   5.188   5.883
89362SOL     OW69917   6.864   3.643   1.927
89362SOL    HW169918   6.827   3.614   2.011
89362SOL    HW269919   6.788   3.649   1.869
89363SOL     OW69920   7.216   8.117  10.676
89363SOL    HW169921   7.230   8.177  10.603
89363SOL    HW269922   7.124   8.090  10.667
89364SOL     OW69923  11.094  12.843   7.055
89364SOL    HW169924  11.161  12.776   7.072
89364SOL    HW269925  11.112  12.911   7.120
89365SOL     OW69926   2.924  14.472   8.308
89365SOL    HW169927   2.997  14.529   8.332
89365SOL    HW269928   2.846  14.518   8.337
89366SOL     OW69929   2.516  14.483   6.756
89366SOL    HW169930   2.483  14.412   6.700
89366SOL    HW269931   2.592  14.517   6.708
89367SOL     OW69932   8.444   8.637   8.376
89367SOL    HW169933   8.452   8.719   8.326
89367SOL    HW269934   8.483   8.571   8.319
89368SOL     OW69935  11.150   5.212   8.405
89368SOL    HW169936  11.210   5.141   8.385
89368SOL    HW269937  11.139   5.208   8.500
89369SOL     OW69938  13.037   4.263   6.175
89369SOL    HW169939  12.950   4.257   6.214
89369SOL    HW269940  13.092   4.208   6.230
89370SOL     OW69941   0.857   5.595  10.011
89370SOL    HW169942   0.879   5.502   9.999
89370SOL    HW269943   0.838   5.603  10.105
89371SOL     OW69944   3.497  10.846   3.025
89371SOL    HW169945   3.550  10.824   3.101
89371SOL    HW269946   3.536  10.796   2.953
89372SOL     OW69947   6.296   1.499   1.395
89372SOL    HW169948   6.203   1.483   1.413
89372SOL    HW269949   6.297   1.540   1.309
89373SOL     OW69950   7.680   2.089   3.986
89373SOL    HW169951   7.728   2.034   3.923
89373SOL    HW269952   7.635   2.153   3.932
89374SOL     OW69953  11.614  11.480  11.430
89374SOL    HW169954  11.676  11.445  11.494
89374SOL    HW269955  11.583  11.403  11.382
89375SOL     OW69956  13.923  14.491  11.845
89375SOL    HW169957  13.872  14.430  11.897
89375SOL    HW269958  13.858  14.543  11.798
89376SOL     OW69959  12.469   1.540   5.058
89376SOL    HW169960  12.473   1.604   5.129
89376SOL    HW269961  12.497   1.458   5.099
89377SOL     OW69962   0.950   2.014   3.318
89377SOL    HW169963   0.928   1.939   3.262
89377SOL    HW269964   0.932   2.091   3.264
89378SOL     OW69965   0.769   1.376  12.403
89378SOL    HW169966   0.732   1.370  12.315
89378SOL    HW269967   0.818   1.458  12.403
89379SOL     OW69968   5.893   1.483   5.168
89379SOL    HW169969   5.858   1.561   5.210
89379SOL    HW269970   5.818   1.423   5.162
89380SOL     OW69971  13.689   5.187  14.539
89380SOL    HW169972  13.695   5.137  14.621
89380SOL    HW269973  13.677   5.120  14.471
89381SOL     OW69974   4.392   6.253   6.849
89381SOL    HW169975   4.304   6.279   6.875
89381SOL    HW269976   4.449   6.294   6.915
89382SOL     OW69977   3.824   8.410   6.463
89382SOL    HW169978   3.854   8.499   6.442
89382SOL    HW269979   3.770   8.384   6.389
89383SOL     OW69980   9.924   5.210  11.777
89383SOL    HW169981   9.993   5.239  11.838
89383SOL    HW269982   9.920   5.280  11.711
89384SOL     OW69983  14.627   5.753   0.872
89384SOL    HW169984  14.595   5.663   0.870
89384SOL    HW269985  14.552   5.806   0.843
89385SOL     OW69986  11.820   9.780   7.304
89385SOL    HW169987  11.808   9.819   7.390
89385SOL    HW269988  11.772   9.697   7.308
89386SOL     OW69989   9.927   4.042   7.497
89386SOL    HW169990   9.832   4.047   7.510
89386SOL    HW269991   9.937   4.019   7.404
89387SOL     OW69992   3.391  12.942   2.682
89387SOL    HW169993   3.404  13.003   2.755
89387SOL    HW269994   3.467  12.884   2.686
89388SOL     OW69995  13.954   3.509  12.340
89388SOL    HW169996  14.002   3.442  12.388
89388SOL    HW269997  14.009   3.587  12.345
89389SOL     OW69998   3.084   1.886   3.344
89389SOL    HW169999   3.075   1.791   3.346
89389SOL    HW270000   3.172   1.903   3.378
89390SOL     OW70001  13.936   0.920   4.136
89390SOL    HW170002  14.012   0.868   4.163
89390SOL    HW270003  13.969   1.010   4.132
89391SOL     OW70004   4.999   8.246   1.396
89391SOL    HW170005   5.032   8.169   1.350
89391SOL    HW270006   4.991   8.218   1.487
89392SOL     OW70007   3.399  12.879   2.378
89392SOL    HW170008   3.330  12.908   2.438
89392SOL    HW270009   3.378  12.922   2.295
89393SOL     OW70010   5.213   0.020  10.264
89393SOL    HW170011   5.307  14.870  10.270
89393SOL    HW270012   5.210   0.094  10.204
89394SOL     OW70013   5.107   1.796  10.967
89394SOL    HW170014   5.106   1.744  11.047
89394SOL    HW270015   5.180   1.856  10.979
89395SOL     OW70016   4.711   4.211   6.652
89395SOL    HW170017   4.741   4.300   6.638
89395SOL    HW270018   4.754   4.160   6.583
89396SOL     OW70019  11.146  14.171   7.360
89396SOL    HW170020  11.054  14.150   7.376
89396SOL    HW270021  11.187  14.168   7.446
89397SOL     OW70022   7.542   7.545   8.357
89397SOL    HW170023   7.636   7.536   8.370
89397SOL    HW270024   7.525   7.499   8.274
89398SOL     OW70025  11.751   2.520   6.695
89398SOL    HW170026  11.787   2.498   6.609
89398SOL    HW270027  11.801   2.597   6.722
89399SOL     OW70028   7.376   4.365   6.128
89399SOL    HW170029   7.305   4.302   6.142
89399SOL    HW270030   7.456   4.312   6.132
89400SOL     OW70031  13.761   2.420  14.107
89400SOL    HW170032  13.790   2.340  14.063
89400SOL    HW270033  13.772   2.402  14.200
89401SOL     OW70034   8.255   2.633   0.052
89401SOL    HW170035   8.232   2.666   0.139
89401SOL    HW270036   8.258   2.538   0.062
89402SOL     OW70037   8.637   6.968   7.273
89402SOL    HW170038   8.728   6.994   7.284
89402SOL    HW270039   8.608   6.943   7.361
89403SOL     OW70040   8.438   5.400   3.264
89403SOL    HW170041   8.393   5.453   3.199
89403SOL    HW270042   8.500   5.460   3.306
89404SOL     OW70043  11.963   6.873   6.363
89404SOL    HW170044  11.953   6.779   6.353
89404SOL    HW270045  11.911   6.911   6.293
89405SOL     OW70046   4.048   1.714   6.884
89405SOL    HW170047   4.100   1.635   6.871
89405SOL    HW270048   3.978   1.709   6.818
89406SOL     OW70049   0.617   1.425  14.312
89406SOL    HW170050   0.668   1.504  14.331
89406SOL    HW270051   0.527   1.449  14.335
89407SOL     OW70052  12.891   6.351   2.732
89407SOL    HW170053  12.809   6.363   2.683
89407SOL    HW270054  12.950   6.310   2.669
89408SOL     OW70055   1.097   7.023   3.900
89408SOL    HW170056   1.188   7.050   3.903
89408SOL    HW270057   1.100   6.927   3.907
89409SOL     OW70058   1.713   4.672  11.759
89409SOL    HW170059   1.661   4.748  11.787
89409SOL    HW270060   1.759   4.645  11.838
89410SOL     OW70061   1.245   5.723   8.619
89410SOL    HW170062   1.317   5.743   8.680
89410SOL    HW270063   1.166   5.729   8.673
89411SOL     OW70064   1.331   5.555  11.388
89411SOL    HW170065   1.396   5.543  11.458
89411SOL    HW270066   1.360   5.496  11.319
89412SOL     OW70067   2.481   3.957  14.365
89412SOL    HW170068   2.400   3.934  14.319
89412SOL    HW270069   2.548   3.901  14.325
89413SOL     OW70070   5.564  14.669  12.667
89413SOL    HW170071   5.490  14.729  12.663
89413SOL    HW270072   5.551  14.620  12.748
89414SOL     OW70073   1.669   0.549   4.578
89414SOL    HW170074   1.738   0.488   4.601
89414SOL    HW270075   1.714   0.629   4.552
89415SOL     OW70076   0.004  12.280   0.060
89415SOL    HW170077   0.059  12.331  14.872
89415SOL    HW270078  14.826  12.222   0.003
89416SOL     OW70079   3.548   1.227   9.853
89416SOL    HW170080   3.616   1.174   9.811
89416SOL    HW270081   3.586   1.315   9.857
89417SOL     OW70082   4.493   1.892   2.967
89417SOL    HW170083   4.468   1.889   3.059
89417SOL    HW270084   4.530   1.805   2.949
89418SOL     OW70085   5.263   4.183  13.929
89418SOL    HW170086   5.336   4.138  13.887
89418SOL    HW270087   5.220   4.115  13.981
89419SOL     OW70088   6.487   7.383   6.759
89419SOL    HW170089   6.407   7.375   6.811
89419SOL    HW270090   6.471   7.330   6.681
89420SOL     OW70091   3.196   6.646   8.876
89420SOL    HW170092   3.145   6.600   8.943
89420SOL    HW270093   3.130   6.692   8.824
89421SOL     OW70094   4.978   3.123  10.646
89421SOL    HW170095   4.969   3.176  10.567
89421SOL    HW270096   4.939   3.175  10.716
89422SOL     OW70097  13.643   0.352  14.085
89422SOL    HW170098  13.646   0.261  14.056
89422SOL    HW270099  13.572   0.392  14.034
89423SOL     OW70100   5.292  10.992  12.524
89423SOL    HW170101   5.211  10.952  12.491
89423SOL    HW270102   5.349  10.997  12.447
89424SOL     OW70103  12.944   0.458  11.432
89424SOL    HW170104  12.962   0.530  11.492
89424SOL    HW270105  12.972   0.491  11.346
89425SOL     OW70106  13.253  12.695   7.785
89425SOL    HW170107  13.172  12.693   7.735
89425SOL    HW270108  13.295  12.611   7.765
89426SOL     OW70109   6.219   9.663   2.645
89426SOL    HW170110   6.260   9.587   2.604
89426SOL    HW270111   6.257   9.667   2.733
89427SOL     OW70112   4.309  13.101   4.882
89427SOL    HW170113   4.402  13.123   4.872
89427SOL    HW270114   4.263  13.169   4.833
89428SOL     OW70115   3.075  13.098   2.864
89428SOL    HW170116   3.133  13.049   2.923
89428SOL    HW270117   3.047  13.032   2.800
89429SOL     OW70118  12.932   5.236   1.831
89429SOL    HW170119  12.964   5.224   1.921
89429SOL    HW270120  12.839   5.256   1.841
89430SOL     OW70121   8.142   4.492   5.485
89430SOL    HW170122   8.173   4.572   5.526
89430SOL    HW270123   8.058   4.473   5.527
89431SOL     OW70124   6.436   5.418   6.985
89431SOL    HW170125   6.459   5.383   7.072
89431SOL    HW270126   6.417   5.510   7.000
89432SOL     OW70127   9.020   2.588   1.616
89432SOL    HW170128   9.112   2.611   1.625
89432SOL    HW270129   9.004   2.526   1.688
89433SOL     OW70130   7.153   0.721   4.784
89433SOL    HW170131   7.108   0.770   4.853
89433SOL    HW270132   7.133   0.630   4.803
89434SOL     OW70133  10.703   5.190   0.369
89434SOL    HW170134  10.732   5.226   0.285
89434SOL    HW270135  10.757   5.235   0.434
89435SOL     OW70136   2.127   6.797   8.293
89435SOL    HW170137   2.083   6.713   8.292
89435SOL    HW270138   2.220   6.775   8.289
89436SOL     OW70139   5.049   5.692   7.446
89436SOL    HW170140   5.056   5.702   7.541
89436SOL    HW270141   4.968   5.642   7.433
89437SOL     OW70142   2.034   3.322   3.861
89437SOL    HW170143   1.985   3.398   3.890
89437SOL    HW270144   1.969   3.264   3.822
89438SOL     OW70145  11.845   0.363   2.277
89438SOL    HW170146  11.818   0.385   2.366
89438SOL    HW270147  11.795   0.423   2.221
89439SOL     OW70148   2.336  11.822   9.672
89439SOL    HW170149   2.416  11.858   9.635
89439SOL    HW270150   2.332  11.859   9.760
89440SOL     OW70151   0.251   1.243   4.293
89440SOL    HW170152   0.260   1.337   4.308
89440SOL    HW270153   0.306   1.225   4.217
89441SOL     OW70154  11.595   3.372  10.033
89441SOL    HW170155  11.669   3.331   9.987
89441SOL    HW270156  11.587   3.458   9.992
89442SOL     OW70157   7.108   1.755   0.141
89442SOL    HW170158   7.139   1.771   0.230
89442SOL    HW270159   7.043   1.823   0.125
89443SOL     OW70160   4.457   0.432   1.245
89443SOL    HW170161   4.498   0.416   1.160
89443SOL    HW270162   4.483   0.358   1.299
89444SOL     OW70163   4.704   2.611   4.558
89444SOL    HW170164   4.733   2.602   4.467
89444SOL    HW270165   4.613   2.581   4.556
89445SOL     OW70166   0.444   5.590   7.260
89445SOL    HW170167   0.391   5.544   7.325
89445SOL    HW270168   0.403   5.569   7.176
89446SOL     OW70169   2.898   0.255   1.615
89446SOL    HW170170   2.953   0.217   1.547
89446SOL    HW270171   2.853   0.328   1.572
89447SOL     OW70172   6.250  12.488   1.020
89447SOL    HW170173   6.184  12.545   1.059
89447SOL    HW270174   6.207  12.448   0.945
89448SOL     OW70175   6.528   8.287  12.252
89448SOL    HW170176   6.533   8.243  12.168
89448SOL    HW270177   6.619   8.295  12.281
89449SOL     OW70178  11.136   0.567  11.086
89449SOL    HW170179  11.181   0.651  11.099
89449SOL    HW270180  11.044   0.590  11.076
89450SOL     OW70181   6.787   7.453  13.711
89450SOL    HW170182   6.851   7.465  13.781
89450SOL    HW270183   6.837   7.464  13.630
89451SOL     OW70184  14.055  14.759   2.614
89451SOL    HW170185  14.034  14.735   2.705
89451SOL    HW270186  13.986  14.821   2.589
89452SOL     OW70187   7.932   1.558   9.701
89452SOL    HW170188   7.948   1.603   9.619
89452SOL    HW270189   7.916   1.467   9.676
89453SOL     OW70190   6.866   6.124  14.821
89453SOL    HW170191   6.861   6.071  14.741
89453SOL    HW270192   6.850   6.213  14.791
89454SOL     OW70193  14.590  10.995   4.647
89454SOL    HW170194  14.516  10.942   4.616
89454SOL    HW270195  14.565  11.022   4.735
89455SOL     OW70196   7.651   5.599  13.249
89455SOL    HW170197   7.556   5.593  13.257
89455SOL    HW270198   7.666   5.682  13.204
89456SOL     OW70199   9.984   5.965  11.506
89456SOL    HW170200  10.041   5.954  11.582
89456SOL    HW270201   9.964   5.876  11.477
89457SOL     OW70202   8.979  13.752  12.776
89457SOL    HW170203   8.943  13.664  12.765
89457SOL    HW270204   8.936  13.804  12.709
89458SOL     OW70205   4.136  11.755   9.791
89458SOL    HW170206   4.106  11.842   9.766
89458SOL    HW270207   4.216  11.771   9.841
89459SOL     OW70208   6.125   4.261   8.966
89459SOL    HW170209   6.065   4.257   9.041
89459SOL    HW270210   6.200   4.210   8.994
89460SOL     OW70211   3.593   1.491  11.611
89460SOL    HW170212   3.632   1.404  11.603
89460SOL    HW270213   3.546   1.489  11.695
89461SOL     OW70214  14.405  14.597  11.660
89461SOL    HW170215  14.341  14.654  11.617
89461SOL    HW270216  14.425  14.642  11.742
89462SOL     OW70217  12.514   8.596   9.086
89462SOL    HW170218  12.572   8.600   9.010
89462SOL    HW270219  12.434   8.555   9.053
89463SOL     OW70220   1.670   5.516   1.413
89463SOL    HW170221   1.712   5.590   1.370
89463SOL    HW270222   1.620   5.473   1.344
89464SOL     OW70223  14.120  14.357  11.460
89464SOL    HW170224  14.144  14.350  11.552
89464SOL    HW270225  14.117  14.451  11.443
89465SOL     OW70226   0.794  13.115   9.978
89465SOL    HW170227   0.832  13.092  10.063
89465SOL    HW270228   0.843  13.062   9.915
89466SOL     OW70229   1.420   9.893  12.900
89466SOL    HW170230   1.354   9.884  12.832
89466SOL    HW270231   1.370   9.897  12.982
89467SOL     OW70232   4.499   8.058   0.381
89467SOL    HW170233   4.412   8.094   0.366
89467SOL    HW270234   4.553   8.132   0.407
89468SOL     OW70235   2.123  13.345  10.268
89468SOL    HW170236   2.031  13.372  10.275
89468SOL    HW270237   2.130  13.309  10.179
89469SOL     OW70238   7.568   7.264   5.010
89469SOL    HW170239   7.513   7.208   5.064
89469SOL    HW270240   7.517   7.344   4.998
89470SOL     OW70241   9.422  11.254   0.190
89470SOL    HW170242   9.452  11.345   0.183
89470SOL    HW270243   9.501  11.204   0.210
89471SOL     OW70244   3.348  10.333   7.835
89471SOL    HW170245   3.303  10.347   7.918
89471SOL    HW270246   3.310  10.253   7.800
89472SOL     OW70247   6.363   0.756  12.713
89472SOL    HW170248   6.442   0.808  12.696
89472SOL    HW270249   6.298   0.820  12.743
89473SOL     OW70250   8.242   5.177   6.310
89473SOL    HW170251   8.219   5.219   6.393
89473SOL    HW270252   8.208   5.237   6.243
89474SOL     OW70253   4.205   5.534   8.067
89474SOL    HW170254   4.282   5.508   8.016
89474SOL    HW270255   4.209   5.479   8.146
89475SOL     OW70256  10.149  11.753   5.391
89475SOL    HW170257  10.134  11.709   5.474
89475SOL    HW270258  10.243  11.746   5.376
89476SOL     OW70259   0.181   2.065   0.957
89476SOL    HW170260   0.144   2.102   1.037
89476SOL    HW270261   0.212   2.141   0.908
89477SOL     OW70262   9.607   0.903   9.525
89477SOL    HW170263   9.648   0.878   9.607
89477SOL    HW270264   9.518   0.929   9.550
89478SOL     OW70265   2.358   8.226  14.443
89478SOL    HW170266   2.273   8.185  14.462
89478SOL    HW270267   2.380   8.194  14.356
89479SOL     OW70268   0.894   6.353   9.575
89479SOL    HW170269   0.942   6.430   9.545
89479SOL    HW270270   0.850   6.381   9.655
89480SOL     OW70271   2.886   2.412   0.833
89480SOL    HW170272   2.951   2.348   0.860
89480SOL    HW270273   2.887   2.478   0.903
89481SOL     OW70274   7.528  13.422   6.354
89481SOL    HW170275   7.515  13.403   6.262
89481SOL    HW270276   7.517  13.337   6.398
89482SOL     OW70277   2.919   9.008  11.592
89482SOL    HW170278   2.979   9.054  11.652
89482SOL    HW270279   2.973   8.987  11.516
89483SOL     OW70280   9.305  13.831  11.763
89483SOL    HW170281   9.372  13.773  11.727
89483SOL    HW270282   9.347  13.917  11.766
89484SOL     OW70283   0.367   3.485   6.303
89484SOL    HW170284   0.321   3.402   6.310
89484SOL    HW270285   0.409   3.482   6.216
89485SOL     OW70286   0.385   7.556   3.055
89485SOL    HW170287   0.424   7.577   3.141
89485SOL    HW270288   0.455   7.511   3.008
89486SOL     OW70289   7.680   7.826   1.784
89486SOL    HW170290   7.668   7.895   1.719
89486SOL    HW270291   7.649   7.746   1.741
89487SOL     OW70292   3.561  14.035  13.835
89487SOL    HW170293   3.515  13.998  13.760
89487SOL    HW270294   3.650  14.048  13.804
89488SOL     OW70295   8.422   4.640   6.663
89488SOL    HW170296   8.357   4.600   6.605
89488SOL    HW270297   8.441   4.725   6.623
89489SOL     OW70298  10.141  12.332  11.575
89489SOL    HW170299  10.213  12.341  11.637
89489SOL    HW270300  10.156  12.400  11.510
89490SOL     OW70301   8.004   5.124   4.452
89490SOL    HW170302   8.035   5.210   4.481
89490SOL    HW270303   8.046   5.111   4.367
89491SOL     OW70304  11.449  10.127  14.830
89491SOL    HW170305  11.516  10.196  14.825
89491SOL    HW270306  11.480  10.058  14.772
89492SOL     OW70307   9.780   7.214   6.122
89492SOL    HW170308   9.726   7.244   6.049
89492SOL    HW270309   9.818   7.132   6.092
89493SOL     OW70310   5.980   9.850   8.712
89493SOL    HW170311   6.062   9.885   8.747
89493SOL    HW270312   5.914   9.876   8.776
89494SOL     OW70313   7.397  12.964  12.170
89494SOL    HW170314   7.420  13.037  12.228
89494SOL    HW270315   7.314  12.990  12.130
89495SOL     OW70316   3.767   5.088   4.445
89495SOL    HW170317   3.711   5.117   4.373
89495SOL    HW270318   3.795   5.168   4.488
89496SOL     OW70319  14.820   3.578  11.833
89496SOL    HW170320  14.861   3.587  11.919
89496SOL    HW270321  14.727   3.568  11.852
89497SOL     OW70322   3.405   0.734   5.548
89497SOL    HW170323   3.355   0.786   5.610
89497SOL    HW270324   3.459   0.798   5.501
89498SOL     OW70325   6.366  11.133   0.931
89498SOL    HW170326   6.343  11.048   0.894
89498SOL    HW270327   6.437  11.114   0.993
89499SOL     OW70328  11.761   3.641  13.820
89499SOL    HW170329  11.850   3.660  13.791
89499SOL    HW270330  11.757   3.546  13.826
89500SOL     OW70331   6.644   1.187  10.222
89500SOL    HW170332   6.682   1.136  10.151
89500SOL    HW270333   6.714   1.194  10.287
89501SOL     OW70334   0.401   1.370   6.865
89501SOL    HW170335   0.452   1.409   6.794
89501SOL    HW270336   0.329   1.430   6.879
89502SOL     OW70337  13.837  12.607  11.333
89502SOL    HW170338  13.769  12.606  11.266
89502SOL    HW270339  13.847  12.699  11.356
89503SOL     OW70340  14.387   3.672   7.932
89503SOL    HW170341  14.426   3.742   7.986
89503SOL    HW270342  14.462   3.622   7.901
89504SOL     OW70343   1.376   6.494  14.265
89504SOL    HW170344   1.459   6.461  14.230
89504SOL    HW270345   1.400   6.539  14.346
89505SOL     OW70346   2.402   8.818  10.168
89505SOL    HW170347   2.433   8.728  10.171
89505SOL    HW270348   2.358   8.831  10.252
89506SOL     OW70349  10.706   8.904  12.466
89506SOL    HW170350  10.672   8.852  12.538
89506SOL    HW270351  10.632   8.915  12.407
89507SOL     OW70352   8.812  10.613   4.099
89507SOL    HW170353   8.875  10.676   4.064
89507SOL    HW270354   8.846  10.591   4.186
89508SOL     OW70355   5.338   6.654   9.861
89508SOL    HW170356   5.340   6.678   9.954
89508SOL    HW270357   5.247   6.667   9.835
89509SOL     OW70358   1.121  14.456   4.833
89509SOL    HW170359   1.176  14.412   4.897
89509SOL    HW270360   1.081  14.528   4.883
89510SOL     OW70361  12.576   7.648  10.451
89510SOL    HW170362  12.567   7.742  10.433
89510SOL    HW270363  12.653   7.621  10.401
89511SOL     OW70364  14.143   7.472   2.207
89511SOL    HW170365  14.111   7.407   2.144
89511SOL    HW270366  14.066   7.493   2.260
89512SOL     OW70367   5.414  13.259   3.521
89512SOL    HW170368   5.396  13.341   3.475
89512SOL    HW270369   5.509  13.253   3.524
89513SOL     OW70370  10.939   9.789  12.380
89513SOL    HW170371  10.873   9.858  12.387
89513SOL    HW270372  10.940   9.748  12.467
89514SOL     OW70373  11.269   3.005   1.858
89514SOL    HW170374  11.286   2.992   1.765
89514SOL    HW270375  11.337   3.066   1.887
89515SOL     OW70376   1.484   8.703   2.464
89515SOL    HW170377   1.560   8.668   2.510
89515SOL    HW270378   1.409   8.674   2.516
89516SOL     OW70379   7.906   6.959   9.466
89516SOL    HW170380   7.836   7.024   9.462
89516SOL    HW270381   7.969   6.987   9.400
89517SOL     OW70382   0.025  12.075  10.635
89517SOL    HW170383  14.827  12.088  10.572
89517SOL    HW270384   0.070  11.996  10.604
89518SOL     OW70385   1.700   2.142  11.110
89518SOL    HW170386   1.776   2.131  11.053
89518SOL    HW270387   1.695   2.236  11.125
89519SOL     OW70388   0.718  12.771   8.381
89519SOL    HW170389   0.789  12.712   8.357
89519SOL    HW270390   0.667  12.723   8.446
89520SOL     OW70391  10.082   9.852   4.199
89520SOL    HW170392  10.145   9.924   4.202
89520SOL    HW270393  10.126   9.785   4.146
89521SOL     OW70394  11.265  12.802  11.758
89521SOL    HW170395  11.201  12.757  11.702
89521SOL    HW270396  11.212  12.860  11.813
89522SOL     OW70397   0.207   0.055   8.896
89522SOL    HW170398   0.278   0.049   8.961
89522SOL    HW270399   0.250   0.042   8.812
89523SOL     OW70400   6.564   2.058   0.826
89523SOL    HW170401   6.512   2.016   0.757
89523SOL    HW270402   6.625   2.114   0.778
89524SOL     OW70403   0.816   9.002   7.561
89524SOL    HW170404   0.738   9.017   7.615
89524SOL    HW270405   0.788   9.027   7.473
89525SOL     OW70406   2.522  13.397   0.711
89525SOL    HW170407   2.601  13.404   0.657
89525SOL    HW270408   2.550  13.350   0.789
89526SOL     OW70409  14.765  10.492   8.248
89526SOL    HW170410  14.720  10.542   8.315
89526SOL    HW270411  14.856  10.487   8.278
89527SOL     OW70412   7.301   0.619   6.983
89527SOL    HW170413   7.262   0.537   7.013
89527SOL    HW270414   7.396   0.604   6.988
89528SOL     OW70415  10.999   3.903   9.003
89528SOL    HW170416  10.918   3.867   9.040
89528SOL    HW270417  11.067   3.842   9.030
89529SOL     OW70418   1.969   8.106  11.936
89529SOL    HW170419   2.041   8.159  11.901
89529SOL    HW270420   1.979   8.113  12.031
89530SOL     OW70421  13.235   5.144  12.736
89530SOL    HW170422  13.164   5.095  12.776
89530SOL    HW270423  13.196   5.229  12.713
89531SOL     OW70424  14.003  14.052   6.933
89531SOL    HW170425  14.039  14.109   6.865
89531SOL    HW270426  14.056  14.070   7.010
89532SOL     OW70427   5.474   2.014   4.059
89532SOL    HW170428   5.447   2.061   3.980
89532SOL    HW270429   5.446   1.924   4.044
89533SOL     OW70430  11.875   7.316   6.720
89533SOL    HW170431  11.797   7.295   6.670
89533SOL    HW270432  11.908   7.231   6.750
89534SOL     OW70433   5.357  14.581  11.575
89534SOL    HW170434   5.412  14.644  11.527
89534SOL    HW270435   5.268  14.615  11.565
89535SOL     OW70436   4.006   5.088   9.416
89535SOL    HW170437   3.932   5.148   9.403
89535SOL    HW270438   3.971   5.019   9.472
89536SOL     OW70439   2.713   5.925   3.828
89536SOL    HW170440   2.738   5.972   3.748
89536SOL    HW270441   2.625   5.892   3.810
89537SOL     OW70442   0.471   2.104   2.597
89537SOL    HW170443   0.496   2.083   2.687
89537SOL    HW270444   0.533   2.173   2.572
89538SOL     OW70445   3.443  12.220   0.339
89538SOL    HW170446   3.516  12.205   0.279
89538SOL    HW270447   3.462  12.166   0.415
89539SOL     OW70448   4.687   5.291   9.014
89539SOL    HW170449   4.718   5.209   8.975
89539SOL    HW270450   4.604   5.308   8.970
89540SOL     OW70451   0.217   9.196  11.339
89540SOL    HW170452   0.191   9.163  11.425
89540SOL    HW270453   0.261   9.123  11.297
89541SOL     OW70454   3.368   8.991  11.512
89541SOL    HW170455   3.463   8.994  11.501
89541SOL    HW270456   3.339   9.082  11.498
89542SOL     OW70457   6.703  10.478   9.328
89542SOL    HW170458   6.633  10.414   9.319
89542SOL    HW270459   6.728  10.474   9.421
89543SOL     OW70460   7.968   0.760  10.500
89543SOL    HW170461   7.918   0.753  10.419
89543SOL    HW270462   7.986   0.854  10.509
89544SOL     OW70463  12.822  11.256   8.179
89544SOL    HW170464  12.729  11.234   8.174
89544SOL    HW270465  12.867  11.172   8.170
89545SOL     OW70466   9.627  14.349   1.023
89545SOL    HW170467   9.586  14.431   0.996
89545SOL    HW270468   9.576  14.322   1.100
89546SOL     OW70469   6.446   4.832  12.057
89546SOL    HW170470   6.478   4.895  11.992
89546SOL    HW270471   6.516   4.827  12.122
89547SOL     OW70472   9.030   7.774   2.781
89547SOL    HW170473   9.051   7.683   2.762
89547SOL    HW270474   9.083   7.825   2.720
89548SOL     OW70475   7.935   9.429  11.761
89548SOL    HW170476   7.965   9.344  11.727
89548SOL    HW270477   7.997   9.449  11.832
89549SOL     OW70478   9.552  11.104  14.099
89549SOL    HW170479   9.630  11.079  14.050
89549SOL    HW270480   9.528  11.190  14.063
89550SOL     OW70481   0.795   4.392   7.411
89550SOL    HW170482   0.826   4.481   7.425
89550SOL    HW270483   0.868   4.348   7.366
89551SOL     OW70484   7.882  12.456   6.436
89551SOL    HW170485   7.855  12.388   6.498
89551SOL    HW270486   7.817  12.450   6.365
89552SOL     OW70487   8.327   2.155   3.383
89552SOL    HW170488   8.394   2.158   3.316
89552SOL    HW270489   8.248   2.189   3.341
89553SOL     OW70490   9.889   0.675   8.712
89553SOL    HW170491   9.916   0.592   8.674
89553SOL    HW270492   9.890   0.736   8.638
89554SOL     OW70493  14.139  11.507  13.740
89554SOL    HW170494  14.181  11.589  13.767
89554SOL    HW270495  14.210  11.454  13.705
89555SOL     OW70496   8.706  10.661   3.074
89555SOL    HW170497   8.613  10.679   3.068
89555SOL    HW270498   8.748  10.736   3.032
89556SOL     OW70499   3.021   9.994   4.117
89556SOL    HW170500   2.935  10.035   4.128
89556SOL    HW270501   3.003   9.916   4.065
89557SOL     OW70502  13.142   4.265   0.299
89557SOL    HW170503  13.064   4.303   0.338
89557SOL    HW270504  13.125   4.171   0.300
89558SOL     OW70505  12.235   6.642  12.892
89558SOL    HW170506  12.257   6.624  12.801
89558SOL    HW270507  12.180   6.721  12.889
89559SOL     OW70508  14.838   1.724   4.505
89559SOL    HW170509   0.000   1.735   4.594
89559SOL    HW270510  14.827   1.630   4.495
89560SOL     OW70511   7.955  14.515   8.138
89560SOL    HW170512   8.042  14.478   8.152
89560SOL    HW270513   7.969  14.609   8.128
89561SOL     OW70514  13.168   7.735  12.765
89561SOL    HW170515  13.194   7.788  12.840
89561SOL    HW270516  13.132   7.797  12.702
89562SOL     OW70517  14.097   3.069  10.547
89562SOL    HW170518  14.128   3.035  10.631
89562SOL    HW270519  14.096   3.164  10.559
89563SOL     OW70520  10.277   5.282   7.671
89563SOL    HW170521  10.264   5.302   7.763
89563SOL    HW270522  10.201   5.228   7.647
89564SOL     OW70523   3.660   8.087   5.400
89564SOL    HW170524   3.690   8.086   5.491
89564SOL    HW270525   3.587   8.026   5.399
89565SOL     OW70526   8.847   5.715   1.204
89565SOL    HW170527   8.873   5.652   1.137
89565SOL    HW270528   8.864   5.671   1.287
89566SOL     OW70529   9.797   4.367   3.434
89566SOL    HW170530   9.716   4.317   3.420
89566SOL    HW270531   9.779   4.420   3.511
89567SOL     OW70532   2.915  14.732   6.869
89567SOL    HW170533   2.949  14.797   6.932
89567SOL    HW270534   2.953  14.649   6.898
89568SOL     OW70535   9.375  11.408  12.745
89568SOL    HW170536   9.464  11.423  12.778
89568SOL    HW270537   9.364  11.473  12.676
89569SOL     OW70538  10.236   8.401   0.377
89569SOL    HW170539  10.289   8.337   0.329
89569SOL    HW270540  10.155   8.408   0.327
89570SOL     OW70541   9.986   6.638   6.141
89570SOL    HW170542  10.004   6.708   6.203
89570SOL    HW270543   9.958   6.564   6.195
89571SOL     OW70544   2.768   3.986  13.067
89571SOL    HW170545   2.681   3.958  13.097
89571SOL    HW270546   2.805   4.032  13.143
89572SOL     OW70547   0.278   6.194  12.933
89572SOL    HW170548   0.303   6.104  12.911
89572SOL    HW270549   0.328   6.248  12.871
89573SOL     OW70550   2.437  10.125   9.447
89573SOL    HW170551   2.378  10.168   9.385
89573SOL    HW270552   2.381  10.101   9.521
89574SOL     OW70553   5.130   9.482   7.770
89574SOL    HW170554   5.179   9.450   7.694
89574SOL    HW270555   5.044   9.441   7.763
89575SOL     OW70556   2.232  10.966  10.048
89575SOL    HW170557   2.214  10.872  10.039
89575SOL    HW270558   2.265  10.992   9.962
89576SOL     OW70559   0.200   6.162   0.107
89576SOL    HW170560   0.188   6.257   0.115
89576SOL    HW270561   0.258   6.153   0.031
89577SOL     OW70562   1.749   3.698   6.851
89577SOL    HW170563   1.717   3.750   6.778
89577SOL    HW270564   1.713   3.741   6.929
89578SOL     OW70565   5.860   1.161   3.670
89578SOL    HW170566   5.852   1.104   3.746
89578SOL    HW270567   5.888   1.246   3.705
89579SOL     OW70568   9.835   3.656   0.765
89579SOL    HW170569   9.762   3.621   0.714
89579SOL    HW270570   9.798   3.668   0.853
89580SOL     OW70571   0.191   3.273   0.151
89580SOL    HW170572   0.251   3.262   0.077
89580SOL    HW270573   0.151   3.187   0.163
89581SOL     OW70574  14.645   0.182   8.451
89581SOL    HW170575  14.717   0.234   8.487
89581SOL    HW270576  14.688   0.104   8.415
89582SOL     OW70577  11.828   8.674   2.338
89582SOL    HW170578  11.750   8.728   2.350
89582SOL    HW270579  11.858   8.694   2.250
89583SOL     OW70580   9.132  14.561   2.662
89583SOL    HW170581   9.224  14.536   2.672
89583SOL    HW270582   9.117  14.558   2.567
89584SOL     OW70583  14.511   8.695   0.267
89584SOL    HW170584  14.518   8.790   0.273
89584SOL    HW270585  14.487   8.679   0.176
89585SOL     OW70586   1.305  11.296   9.111
89585SOL    HW170587   1.332  11.322   9.022
89585SOL    HW270588   1.332  11.204   9.117
89586SOL     OW70589  14.366  13.095  10.775
89586SOL    HW170590  14.454  13.058  10.771
89586SOL    HW270591  14.372  13.165  10.840
89587SOL     OW70592   4.998   1.408  13.936
89587SOL    HW170593   5.035   1.336  13.885
89587SOL    HW270594   4.934   1.448  13.877
89588SOL     OW70595   8.522   4.897  14.353
89588SOL    HW170596   8.457   4.907  14.284
89588SOL    HW270597   8.606   4.908  14.308
89589SOL     OW70598   2.637   1.704   9.718
89589SOL    HW170599   2.580   1.680   9.790
89589SOL    HW270600   2.583   1.691   9.639
89590SOL     OW70601  11.972   7.507   7.618
89590SOL    HW170602  11.911   7.450   7.572
89590SOL    HW270603  12.033   7.536   7.551
89591SOL     OW70604   7.073   5.570  11.410
89591SOL    HW170605   7.134   5.612  11.471
89591SOL    HW270606   6.986   5.597  11.440
89592SOL     OW70607   8.475  11.613   2.527
89592SOL    HW170608   8.463  11.533   2.578
89592SOL    HW270609   8.556  11.599   2.478
89593SOL     OW70610   7.920  13.326   4.207
89593SOL    HW170611   7.995  13.379   4.182
89593SOL    HW270612   7.955  13.264   4.271
89594SOL     OW70613   1.686  12.880   4.007
89594SOL    HW170614   1.781  12.883   3.999
89594SOL    HW270615   1.668  12.790   4.034
89595SOL     OW70616   9.060  13.987   3.004
89595SOL    HW170617   9.132  14.050   3.003
89595SOL    HW270618   8.988  14.032   3.047
89596SOL     OW70619   9.426   8.880   2.691
89596SOL    HW170620   9.499   8.939   2.710
89596SOL    HW270621   9.458   8.793   2.713
89597SOL     OW70622   8.940  11.802   3.588
89597SOL    HW170623   8.955  11.759   3.672
89597SOL    HW270624   8.899  11.734   3.534
89598SOL     OW70625   6.612   6.649   4.439
89598SOL    HW170626   6.634   6.561   4.409
89598SOL    HW270627   6.577   6.693   4.362
89599SOL     OW70628  10.194  13.897   8.132
89599SOL    HW170629  10.184  13.806   8.105
89599SOL    HW270630  10.284  13.920   8.106
89600SOL     OW70631  13.129  13.183   2.842
89600SOL    HW170632  13.149  13.276   2.830
89600SOL    HW270633  13.211  13.144   2.873
89601SOL     OW70634   0.955   3.136   3.486
89601SOL    HW170635   1.032   3.117   3.432
89601SOL    HW270636   0.927   3.223   3.458
89602SOL     OW70637   0.286  11.986  10.804
89602SOL    HW170638   0.240  11.990  10.888
89602SOL    HW270639   0.311  12.076  10.785
89603SOL     OW70640  14.663   9.539   4.428
89603SOL    HW170641  14.587   9.485   4.406
89603SOL    HW270642  14.655   9.554   4.523
89604SOL     OW70643   5.049  11.065   6.115
89604SOL    HW170644   5.092  11.031   6.037
89604SOL    HW270645   5.117  11.112   6.163
89605SOL     OW70646   9.532   3.099  13.870
89605SOL    HW170647   9.582   3.064  13.944
89605SOL    HW270648   9.459   3.145  13.911
89606SOL     OW70649   7.040   0.813  11.866
89606SOL    HW170650   7.054   0.720  11.885
89606SOL    HW270651   7.126   0.853  11.881
89607SOL     OW70652   1.742  10.480   8.124
89607SOL    HW170653   1.835  10.489   8.141
89607SOL    HW270654   1.736  10.463   8.030
89608SOL     OW70655   9.869  12.991   2.521
89608SOL    HW170656   9.781  12.960   2.504
89608SOL    HW270657   9.926  12.933   2.471
89609SOL     OW70658   0.156   2.254  11.595
89609SOL    HW170659   0.243   2.218  11.609
89609SOL    HW270660   0.168   2.349  11.595
89610SOL     OW70661  12.535  11.895   1.115
89610SOL    HW170662  12.554  11.808   1.149
89610SOL    HW270663  12.615  11.922   1.070
89611SOL     OW70664   4.598   4.035   9.495
89611SOL    HW170665   4.556   4.059   9.412
89611SOL    HW270666   4.636   3.949   9.477
89612SOL     OW70667   7.456   2.930   1.831
89612SOL    HW170668   7.540   2.966   1.860
89612SOL    HW270669   7.450   2.955   1.739
89613SOL     OW70670  12.869  13.924   5.287
89613SOL    HW170671  12.818  13.963   5.358
89613SOL    HW270672  12.876  13.994   5.221
89614SOL     OW70673  14.163  11.955   6.020
89614SOL    HW170674  14.191  11.879   5.968
89614SOL    HW270675  14.094  11.921   6.076
89615SOL     OW70676   9.396   5.247   0.073
89615SOL    HW170677   9.453   5.316   0.109
89615SOL    HW270678   9.346   5.291   0.005
89616SOL     OW70679  13.169  14.314   2.184
89616SOL    HW170680  13.144  14.331   2.275
89616SOL    HW270681  13.093  14.339   2.132
89617SOL     OW70682  10.678   4.198   7.168
89617SOL    HW170683  10.653   4.283   7.132
89617SOL    HW270684  10.596   4.148   7.171
89618SOL     OW70685   7.035   3.169  10.399
89618SOL    HW170686   6.992   3.099  10.350
89618SOL    HW270687   7.118   3.130  10.428
89619SOL     OW70688  12.098  11.267   7.774
89619SOL    HW170689  12.108  11.278   7.869
89619SOL    HW270690  12.148  11.189   7.753
89620SOL     OW70691   6.600   4.821  11.613
89620SOL    HW170692   6.627   4.864  11.532
89620SOL    HW270693   6.521   4.867  11.640
89621SOL     OW70694   4.820  11.427   8.293
89621SOL    HW170695   4.746  11.403   8.349
89621SOL    HW270696   4.878  11.351   8.296
89622SOL     OW70697  13.354   7.831   7.971
89622SOL    HW170698  13.352   7.844   8.066
89622SOL    HW270699  13.297   7.899   7.937
89623SOL     OW70700   8.146  10.833   9.914
89623SOL    HW170701   8.180  10.757   9.962
89623SOL    HW270702   8.158  10.810   9.822
89624SOL     OW70703   8.645   0.857   1.555
89624SOL    HW170704   8.705   0.803   1.504
89624SOL    HW270705   8.700   0.906   1.615
89625SOL     OW70706   5.306  14.297   3.050
89625SOL    HW170707   5.325  14.365   2.985
89625SOL    HW270708   5.279  14.221   2.999
89626SOL     OW70709   6.261   1.628   9.660
89626SOL    HW170710   6.346   1.621   9.705
89626SOL    HW270711   6.264   1.559   9.594
89627SOL     OW70712  11.771   1.024   1.264
89627SOL    HW170713  11.746   1.113   1.290
89627SOL    HW270714  11.822   0.991   1.338
89628SOL     OW70715  10.370   1.815  13.560
89628SOL    HW170716  10.357   1.868  13.639
89628SOL    HW270717  10.373   1.878  13.489
89629SOL     OW70718   6.335   5.977   9.343
89629SOL    HW170719   6.331   5.885   9.320
89629SOL    HW270720   6.325   6.023   9.259
89630SOL     OW70721  10.418   9.331  13.507
89630SOL    HW170722  10.464   9.270  13.565
89630SOL    HW270723  10.326   9.313  13.522
89631SOL     OW70724   5.578  11.750   9.614
89631SOL    HW170725   5.647  11.810   9.586
89631SOL    HW270726   5.536  11.723   9.533
89632SOL     OW70727   4.483   2.191   1.544
89632SOL    HW170728   4.424   2.117   1.541
89632SOL    HW270729   4.439   2.259   1.493
89633SOL     OW70730  13.213   5.006   2.231
89633SOL    HW170731  13.241   4.996   2.322
89633SOL    HW270732  13.273   5.071   2.195
89634SOL     OW70733  10.840   3.361   2.376
89634SOL    HW170734  10.909   3.300   2.399
89634SOL    HW270735  10.851   3.377   2.282
89635SOL     OW70736   8.026   4.330   0.981
89635SOL    HW170737   8.033   4.415   0.938
89635SOL    HW270738   8.007   4.352   1.073
89636SOL     OW70739   1.110   9.042   9.461
89636SOL    HW170740   1.188   9.063   9.409
89636SOL    HW270741   1.062   9.125   9.467
89637SOL     OW70742   6.510   3.896   5.276
89637SOL    HW170743   6.466   3.846   5.345
89637SOL    HW270744   6.546   3.973   5.322
89638SOL     OW70745   8.261   2.019   9.837
89638SOL    HW170746   8.204   1.956   9.882
89638SOL    HW270747   8.244   2.004   9.744
89639SOL     OW70748   5.718   2.881  11.246
89639SOL    HW170749   5.631   2.871  11.286
89639SOL    HW270750   5.708   2.845  11.158
89640SOL     OW70751  12.118   3.456  12.585
89640SOL    HW170752  12.115   3.398  12.509
89640SOL    HW270753  12.058   3.528  12.563
89641SOL     OW70754   7.902   8.301  10.493
89641SOL    HW170755   7.837   8.255  10.547
89641SOL    HW270756   7.916   8.384  10.538
89642SOL     OW70757   7.214   5.836  13.089
89642SOL    HW170758   7.121   5.814  13.093
89642SOL    HW270759   7.233   5.839  12.995
89643SOL     OW70760   8.500  14.704  12.560
89643SOL    HW170761   8.525  14.740  12.475
89643SOL    HW270762   8.437  14.634  12.539
89644SOL     OW70763   9.558  14.243   6.898
89644SOL    HW170764   9.477  14.264   6.853
89644SOL    HW270765   9.594  14.168   6.850
89645SOL     OW70766   6.158   3.686   0.742
89645SOL    HW170767   6.207   3.713   0.820
89645SOL    HW270768   6.090   3.628   0.776
89646SOL     OW70769   4.201  12.622   2.452
89646SOL    HW170770   4.108  12.609   2.435
89646SOL    HW270771   4.242  12.624   2.366
89647SOL     OW70772   4.028   4.359   1.256
89647SOL    HW170773   3.993   4.424   1.195
89647SOL    HW270774   3.951   4.319   1.296
89648SOL     OW70775   4.328  14.307   2.638
89648SOL    HW170776   4.417  14.338   2.654
89648SOL    HW270777   4.307  14.255   2.716
89649SOL     OW70778   0.403   9.516  10.057
89649SOL    HW170779   0.475   9.548  10.004
89649SOL    HW270780   0.445   9.474  10.132
89650SOL     OW70781   3.799   1.430   5.163
89650SOL    HW170782   3.829   1.428   5.072
89650SOL    HW270783   3.818   1.343   5.197
89651SOL     OW70784  11.360   4.358  14.003
89651SOL    HW170785  11.435   4.339  13.946
89651SOL    HW270786  11.353   4.280  14.059
89652SOL     OW70787  14.370   5.550   8.851
89652SOL    HW170788  14.289   5.597   8.871
89652SOL    HW270789  14.428   5.573   8.923
89653SOL     OW70790   1.343   7.436   9.797
89653SOL    HW170791   1.309   7.475   9.716
89653SOL    HW270792   1.425   7.395   9.771
89654SOL     OW70793   4.105   5.022   2.768
89654SOL    HW170794   4.053   5.078   2.711
89654SOL    HW270795   4.080   5.047   2.856
89655SOL     OW70796   1.330  13.463   5.742
89655SOL    HW170797   1.265  13.532   5.734
89655SOL    HW270798   1.394  13.481   5.673
89656SOL     OW70799  10.888  10.022  12.015
89656SOL    HW170800  10.873  10.086  11.946
89656SOL    HW270801  10.854   9.940  11.980
89657SOL     OW70802   9.717   3.548  14.689
89657SOL    HW170803   9.764   3.587  14.763
89657SOL    HW270804   9.682   3.466  14.723
89658SOL     OW70805  12.756   2.730   9.898
89658SOL    HW170806  12.709   2.685   9.827
89658SOL    HW270807  12.689   2.745   9.965
89659SOL     OW70808  12.997   5.226   6.178
89659SOL    HW170809  13.051   5.177   6.240
89659SOL    HW270810  12.972   5.306   6.225
89660SOL     OW70811  12.524   7.910  10.329
89660SOL    HW170812  12.579   7.969  10.278
89660SOL    HW270813  12.483   7.852  10.264
89661SOL     OW70814  11.528   0.033  13.827
89661SOL    HW170815  11.533   0.034  13.731
89661SOL    HW270816  11.616   0.012  13.856
89662SOL     OW70817   6.058   8.876   3.543
89662SOL    HW170818   6.130   8.841   3.595
89662SOL    HW270819   6.042   8.808   3.477
89663SOL     OW70820  10.463  10.461   0.524
89663SOL    HW170821  10.449  10.506   0.607
89663SOL    HW270822  10.389  10.488   0.470
89664SOL     OW70823  13.533   3.744   5.865
89664SOL    HW170824  13.605   3.744   5.802
89664SOL    HW270825  13.574   3.725   5.949
89665SOL     OW70826   1.620   9.526  13.209
89665SOL    HW170827   1.544   9.478  13.175
89665SOL    HW270828   1.621   9.608  13.159
89666SOL     OW70829   5.955   2.737   5.210
89666SOL    HW170830   5.943   2.749   5.304
89666SOL    HW270831   6.039   2.779   5.191
89667SOL     OW70832   5.655  13.038   6.139
89667SOL    HW170833   5.583  13.095   6.113
89667SOL    HW270834   5.637  12.954   6.095
89668SOL     OW70835  14.251   3.048  10.268
89668SOL    HW170836  14.175   3.017  10.316
89668SOL    HW270837  14.310   3.083  10.336
89669SOL     OW70838  14.121  14.801  14.853
89669SOL    HW170839  14.155  14.848  14.777
89669SOL    HW270840  14.055  14.741  14.818
89670SOL     OW70841  13.397   6.368   9.540
89670SOL    HW170842  13.375   6.282   9.573
89670SOL    HW270843  13.481   6.356   9.495
89671SOL     OW70844   0.687   2.025  10.653
89671SOL    HW170845   0.681   2.038  10.748
89671SOL    HW270846   0.612   2.073  10.618
89672SOL     OW70847   5.227   1.480  14.071
89672SOL    HW170848   5.150   1.454  14.021
89672SOL    HW270849   5.215   1.573  14.087
89673SOL     OW70850  13.906   0.780  11.569
89673SOL    HW170851  13.950   0.863  11.551
89673SOL    HW270852  13.933   0.723  11.497
89674SOL     OW70853  10.454  10.426   3.456
89674SOL    HW170854  10.498  10.341   3.449
89674SOL    HW270855  10.523  10.487   3.483
89675SOL     OW70856   6.706   2.973   0.699
89675SOL    HW170857   6.787   2.925   0.719
89675SOL    HW270858   6.662   2.983   0.784
89676SOL     OW70859   1.879   4.122  10.463
89676SOL    HW170860   1.839   4.110  10.549
89676SOL    HW270861   1.833   4.060  10.407
89677SOL     OW70862  13.919   0.165   7.169
89677SOL    HW170863  13.856   0.101   7.137
89677SOL    HW270864  13.979   0.115   7.225
89678SOL     OW70865   2.187  11.487   6.674
89678SOL    HW170866   2.126  11.519   6.741
89678SOL    HW270867   2.168  11.540   6.597
89679SOL     OW70868   5.417  12.266  10.554
89679SOL    HW170869   5.348  12.200  10.566
89679SOL    HW270870   5.444  12.288  10.643
89680SOL     OW70871  10.653  10.827   6.832
89680SOL    HW170872  10.589  10.826   6.903
89680SOL    HW270873  10.641  10.911   6.789
89681SOL     OW70874  11.271   1.601   2.737
89681SOL    HW170875  11.362   1.600   2.766
89681SOL    HW270876  11.227   1.660   2.798
89682SOL     OW70877   4.205   6.338   4.043
89682SOL    HW170878   4.271   6.348   3.974
89682SOL    HW270879   4.225   6.407   4.106
89683SOL     OW70880  12.705  12.675   3.517
89683SOL    HW170881  12.676  12.624   3.593
89683SOL    HW270882  12.772  12.733   3.551
89684SOL     OW70883   9.776  14.834   5.462
89684SOL    HW170884   9.831  14.755   5.463
89684SOL    HW270885   9.774  14.863   5.553
89685SOL     OW70886   1.051   7.088  14.420
89685SOL    HW170887   1.101   7.024  14.471
89685SOL    HW270888   1.116   7.153  14.394
89686SOL     OW70889  10.170  12.270  14.759
89686SOL    HW170890  10.077  12.280  14.776
89686SOL    HW270891  10.178  12.275  14.664
89687SOL     OW70892   4.860  14.273  10.214
89687SOL    HW170893   4.807  14.329  10.272
89687SOL    HW270894   4.849  14.312  10.127
89688SOL     OW70895  12.792   1.677   0.155
89688SOL    HW170896  12.858   1.666   0.085
89688SOL    HW270897  12.740   1.596   0.151
89689SOL     OW70898  14.699   1.205   7.293
89689SOL    HW170899  14.686   1.140   7.362
89689SOL    HW270900  14.717   1.287   7.340
89690SOL     OW70901   9.739  13.335  11.729
89690SOL    HW170902   9.793  13.372  11.799
89690SOL    HW270903   9.757  13.241  11.733
89691SOL     OW70904  11.689  13.493   5.442
89691SOL    HW170905  11.658  13.470   5.530
89691SOL    HW270906  11.630  13.563   5.414
89692SOL     OW70907   1.314   7.148   1.968
89692SOL    HW170908   1.405   7.175   1.956
89692SOL    HW270909   1.317   7.081   2.036
89693SOL     OW70910  13.928   6.399   3.019
89693SOL    HW170911  13.922   6.310   3.054
89693SOL    HW270912  13.838   6.431   3.016
89694SOL     OW70913   1.718  13.263   9.177
89694SOL    HW170914   1.708  13.267   9.272
89694SOL    HW270915   1.718  13.355   9.149
89695SOL     OW70916   4.620   2.636  10.513
89695SOL    HW170917   4.540   2.618  10.561
89695SOL    HW270918   4.634   2.558  10.459
89696SOL     OW70919   3.971   2.443  10.056
89696SOL    HW170920   3.962   2.430  10.150
89696SOL    HW270921   3.889   2.485  10.030
89697SOL     OW70922  11.262   9.821  11.530
89697SOL    HW170923  11.314   9.798  11.453
89697SOL    HW270924  11.306   9.897  11.567
89698SOL     OW70925   4.785   9.949  11.633
89698SOL    HW170926   4.851   9.982  11.572
89698SOL    HW270927   4.830   9.945  11.717
89699SOL     OW70928  14.112  11.576  11.193
89699SOL    HW170929  14.031  11.623  11.172
89699SOL    HW270930  14.097  11.542  11.282
89700SOL     OW70931  14.798   9.151   4.840
89700SOL    HW170932  14.816   9.057   4.840
89700SOL    HW270933   0.004   9.191   4.876
89701SOL     OW70934  10.991  14.812   1.544
89701SOL    HW170935  10.937   0.018   1.560
89701SOL    HW270936  11.051  14.839   1.475
89702SOL     OW70937   2.765   9.730   9.425
89702SOL    HW170938   2.853   9.767   9.427
89702SOL    HW270939   2.709   9.803   9.397
89703SOL     OW70940   9.877   6.691  10.677
89703SOL    HW170941   9.905   6.658  10.591
89703SOL    HW270942   9.925   6.636  10.740
89704SOL     OW70943   4.529  12.244  12.269
89704SOL    HW170944   4.581  12.168  12.295
89704SOL    HW270945   4.518  12.295  12.349
89705SOL     OW70946   9.405   9.058   7.738
89705SOL    HW170947   9.370   8.995   7.801
89705SOL    HW270948   9.475   9.010   7.694
89706SOL     OW70949   5.260   5.621  11.224
89706SOL    HW170950   5.218   5.690  11.275
89706SOL    HW270951   5.339   5.599  11.273
89707SOL     OW70952   4.202   7.543  13.678
89707SOL    HW170953   4.139   7.614  13.688
89707SOL    HW270954   4.287   7.584  13.696
89708SOL     OW70955   5.446  10.930  11.946
89708SOL    HW170956   5.517  10.994  11.955
89708SOL    HW270957   5.371  10.982  11.917
89709SOL     OW70958   7.014   2.603  10.998
89709SOL    HW170959   6.929   2.626  10.961
89709SOL    HW270960   7.061   2.560  10.926
89710SOL     OW70961   0.938   3.575   2.419
89710SOL    HW170962   0.889   3.600   2.497
89710SOL    HW270963   0.974   3.489   2.440
89711SOL     OW70964   0.820   7.523  13.134
89711SOL    HW170965   0.851   7.544  13.222
89711SOL    HW270966   0.731   7.490  13.147
89712SOL     OW70967   7.204   3.982  11.499
89712SOL    HW170968   7.121   3.945  11.468
89712SOL    HW270969   7.198   3.978  11.594
89713SOL     OW70970  12.607  11.806   7.978
89713SOL    HW170971  12.685  11.774   8.022
89713SOL    HW270972  12.584  11.739   7.915
89714SOL     OW70973  13.536   7.455   6.342
89714SOL    HW170974  13.446   7.433   6.321
89714SOL    HW270975  13.531   7.509   6.420
89715SOL     OW70976  13.549   8.928  10.117
89715SOL    HW170977  13.489   8.934  10.044
89715SOL    HW270978  13.537   8.840  10.152
89716SOL     OW70979   9.657   8.876   3.680
89716SOL    HW170980   9.677   8.792   3.723
89716SOL    HW270981   9.647   8.853   3.587
89717SOL     OW70982   5.350  13.294   1.987
89717SOL    HW170983   5.261  13.277   2.016
89717SOL    HW270984   5.344  13.297   1.891
89718SOL     OW70985  13.287   9.542  13.459
89718SOL    HW170986  13.216   9.484  13.431
89718SOL    HW270987  13.285   9.615  13.397
89719SOL     OW70988   8.092   0.322   7.013
89719SOL    HW170989   8.099   0.372   7.095
89719SOL    HW270990   8.048   0.241   7.039
89720SOL     OW70991   9.709   0.365  14.835
89720SOL    HW170992   9.689   0.442   0.016
89720SOL    HW270993   9.695   0.393  14.745
89721SOL     OW70994   7.587   9.738   6.952
89721SOL    HW170995   7.640   9.815   6.974
89721SOL    HW270996   7.603   9.724   6.859
89722SOL     OW70997   4.720  11.338  11.386
89722SOL    HW170998   4.701  11.362  11.476
89722SOL    HW270999   4.771  11.412  11.352
89723SOL     OW71000   4.783   1.760   8.335
89723SOL    HW171001   4.796   1.733   8.426
89723SOL    HW271002   4.857   1.723   8.288
89724SOL     OW71003   1.164   9.282   4.398
89724SOL    HW171004   1.151   9.294   4.492
89724SOL    HW271005   1.109   9.350   4.358
89725SOL     OW71006  14.140   5.407   1.866
89725SOL    HW171007  14.175   5.376   1.782
89725SOL    HW271008  14.175   5.496   1.875
89726SOL     OW71009   5.896  13.032  10.095
89726SOL    HW171010   5.971  12.973  10.088
89726SOL    HW271011   5.935  13.119  10.102
89727SOL     OW71012   5.981   8.877   0.224
89727SOL    HW171013   5.897   8.877   0.178
89727SOL    HW271014   6.006   8.969   0.229
89728SOL     OW71015   6.129   5.818  11.587
89728SOL    HW171016   6.091   5.898  11.551
89728SOL    HW271017   6.190   5.787  11.520
89729SOL     OW71018   7.472  12.209   0.804
89729SOL    HW171019   7.377  12.221   0.814
89729SOL    HW271020   7.481  12.139   0.740
89730SOL     OW71021  11.302   8.515   3.057
89730SOL    HW171022  11.269   8.537   3.144
89730SOL    HW271023  11.248   8.441   3.029
89731SOL     OW71024   0.024  12.214   6.930
89731SOL    HW171025   0.023  12.232   6.836
89731SOL    HW271026  14.847  12.132   6.939
89732SOL     OW71027  13.467  13.224   5.200
89732SOL    HW171028  13.537  13.244   5.137
89732SOL    HW271029  13.511  13.222   5.285
89733SOL     OW71030   2.464  12.163   2.692
89733SOL    HW171031   2.387  12.221   2.697
89733SOL    HW271032   2.451  12.114   2.611
89734SOL     OW71033   7.668   6.926   0.254
89734SOL    HW171034   7.723   6.999   0.223
89734SOL    HW271035   7.648   6.876   0.175
89735SOL     OW71036  11.157   5.849   8.691
89735SOL    HW171037  11.082   5.881   8.740
89735SOL    HW271038  11.131   5.855   8.600
89736SOL     OW71039  10.123  14.687  11.431
89736SOL    HW171040  10.191  14.621  11.441
89736SOL    HW271041  10.094  14.679  11.341
89737SOL     OW71042  12.735   7.286   3.553
89737SOL    HW171043  12.677   7.293   3.628
89737SOL    HW271044  12.816   7.330   3.581
89738SOL     OW71045   9.965   1.990  10.032
89738SOL    HW171046   9.964   1.937   9.952
89738SOL    HW271047   9.968   2.081  10.001
89739SOL     OW71048   5.021  11.936   4.847
89739SOL    HW171049   4.986  12.023   4.865
89739SOL    HW271050   4.988  11.881   4.918
89740SOL     OW71051  12.335   6.967   6.751
89740SOL    HW171052  12.248   7.004   6.738
89740SOL    HW271053  12.327   6.915   6.831
89741SOL     OW71054  12.771  13.479   8.903
89741SOL    HW171055  12.848  13.472   8.848
89741SOL    HW271056  12.746  13.571   8.899
89742SOL     OW71057   6.690   8.809  10.026
89742SOL    HW171058   6.692   8.794  10.120
89742SOL    HW271059   6.714   8.725   9.988
89743SOL     OW71060   7.807  12.025  13.148
89743SOL    HW171061   7.803  12.012  13.243
89743SOL    HW271062   7.834  11.940  13.113
89744SOL     OW71063   5.128  10.216   9.835
89744SOL    HW171064   5.127  10.311   9.826
89744SOL    HW271065   5.079  10.184   9.760
89745SOL     OW71066   3.525   7.001   5.816
89745SOL    HW171067   3.539   6.978   5.724
89745SOL    HW271068   3.570   7.085   5.827
89746SOL     OW71069   4.530   9.745   8.617
89746SOL    HW171070   4.592   9.671   8.618
89746SOL    HW271071   4.451   9.710   8.658
89747SOL     OW71072   0.488   0.916   9.961
89747SOL    HW171073   0.546   0.924   9.885
89747SOL    HW271074   0.417   0.859   9.929
89748SOL     OW71075   0.072   2.946  14.668
89748SOL    HW171076   0.145   2.897  14.631
89748SOL    HW271077   0.046   2.896  14.745
89749SOL     OW71078  13.935   6.698  13.147
89749SOL    HW171079  13.924   6.770  13.084
89749SOL    HW271080  14.016   6.655  13.120
89750SOL     OW71081   6.096  11.913  11.670
89750SOL    HW171082   6.002  11.917  11.654
89750SOL    HW271083   6.104  11.925  11.765
89751SOL     OW71084  13.468   1.015  14.191
89751SOL    HW171085  13.540   1.077  14.185
89751SOL    HW271086  13.439   1.001  14.101
89752SOL     OW71087  11.505   1.824   3.536
89752SOL    HW171088  11.577   1.886   3.547
89752SOL    HW271089  11.432   1.878   3.505
89753SOL     OW71090  10.813   7.052   1.477
89753SOL    HW171091  10.811   7.079   1.568
89753SOL    HW271092  10.852   6.965   1.478
89754SOL     OW71093   5.758   6.847   8.489
89754SOL    HW171094   5.813   6.769   8.500
89754SOL    HW271095   5.742   6.852   8.395
89755SOL     OW71096   5.545   6.694  13.578
89755SOL    HW171097   5.633   6.659  13.591
89755SOL    HW271098   5.490   6.617  13.562
89756SOL     OW71099   5.460   6.266  11.206
89756SOL    HW171100   5.555   6.267  11.195
89756SOL    HW271101   5.434   6.358  11.207
89757SOL     OW71102   5.360   1.228   7.253
89757SOL    HW171103   5.340   1.283   7.176
89757SOL    HW271104   5.315   1.146   7.236
89758SOL     OW71105  10.283   2.998  14.610
89758SOL    HW171106  10.324   2.996  14.524
89758SOL    HW271107  10.190   2.984  14.593
89759SOL     OW71108   0.612  11.226  14.805
89759SOL    HW171109   0.560  11.273  14.741
89759SOL    HW271110   0.553  11.211   0.006
89760SOL     OW71111   8.678   6.482   8.175
89760SOL    HW171112   8.653   6.528   8.255
89760SOL    HW271113   8.617   6.513   8.109
89761SOL     OW71114  14.102   3.722   3.630
89761SOL    HW171115  14.155   3.763   3.698
89761SOL    HW271116  14.162   3.708   3.557
89762SOL     OW71117   8.114   1.540   1.226
89762SOL    HW171118   8.046   1.477   1.200
89762SOL    HW271119   8.162   1.558   1.145
89763SOL     OW71120  10.542  10.437   1.531
89763SOL    HW171121  10.612  10.462   1.470
89763SOL    HW271122  10.515  10.350   1.501
89764SOL     OW71123   9.703  14.412  12.938
89764SOL    HW171124   9.725  14.340  12.997
89764SOL    HW271125   9.783  14.427  12.887
89765SOL     OW71126   9.144   4.258   9.893
89765SOL    HW171127   9.094   4.214   9.825
89765SOL    HW271128   9.109   4.224   9.975
89766SOL     OW71129   4.030   3.788   3.031
89766SOL    HW171130   3.961   3.733   2.993
89766SOL    HW271131   4.049   3.853   2.963
89767SOL     OW71132   6.954  11.836  14.458
89767SOL    HW171133   6.941  11.742  14.441
89767SOL    HW271134   7.012  11.865  14.387
89768SOL     OW71135   0.087   2.620  12.224
89768SOL    HW171136   0.035   2.683  12.175
89768SOL    HW271137   0.140   2.674  12.283
89769SOL     OW71138  14.661  12.365   6.614
89769SOL    HW171139  14.609  12.317   6.550
89769SOL    HW271140  14.660  12.456   6.584
89770SOL     OW71141   6.586   7.671  14.238
89770SOL    HW171142   6.546   7.717  14.312
89770SOL    HW271143   6.678   7.661  14.263
89771SOL     OW71144  11.821   9.290   7.738
89771SOL    HW171145  11.786   9.301   7.826
89771SOL    HW271146  11.757   9.332   7.681
89772SOL     OW71147  11.836   7.843   7.025
89772SOL    HW171148  11.788   7.782   7.082
89772SOL    HW271149  11.789   7.839   6.942
89773SOL     OW71150   1.456   0.788   8.235
89773SOL    HW171151   1.536   0.813   8.189
89773SOL    HW271152   1.475   0.804   8.327
89774SOL     OW71153   9.915   8.544   4.170
89774SOL    HW171154   9.980   8.566   4.236
89774SOL    HW271155   9.851   8.490   4.216
89775SOL     OW71156   3.657   5.588   6.288
89775SOL    HW171157   3.703   5.612   6.207
89775SOL    HW271158   3.712   5.521   6.328
89776SOL     OW71159   9.507  13.197   2.023
89776SOL    HW171160   9.526  13.202   2.117
89776SOL    HW271161   9.528  13.284   1.989
89777SOL     OW71162  10.603   5.955   2.989
89777SOL    HW171163  10.618   6.049   2.992
89777SOL    HW271164  10.690   5.917   3.000
89778SOL     OW71165   3.399  12.689   8.882
89778SOL    HW171166   3.412  12.755   8.815
89778SOL    HW271167   3.362  12.737   8.956
89779SOL     OW71168  14.803   0.184  13.797
89779SOL    HW171169  14.816   0.093  13.824
89779SOL    HW271170  14.867   0.198  13.727
89780SOL     OW71171   0.584   7.733   1.358
89780SOL    HW171172   0.501   7.717   1.313
89780SOL    HW271173   0.561   7.791   1.431
89781SOL     OW71174   9.434  10.820   6.099
89781SOL    HW171175   9.437  10.842   6.006
89781SOL    HW271176   9.486  10.739   6.106
89782SOL     OW71177  10.594  12.872   6.957
89782SOL    HW171178  10.589  12.955   6.909
89782SOL    HW271179  10.619  12.897   7.046
89783SOL     OW71180   5.094  12.474  12.684
89783SOL    HW171181   5.073  12.559  12.645
89783SOL    HW271182   5.009  12.438  12.708
89784SOL     OW71183   4.422   8.972   8.126
89784SOL    HW171184   4.370   9.046   8.159
89784SOL    HW271185   4.365   8.930   8.062
89785SOL     OW71186   7.185   8.699   9.641
89785SOL    HW171187   7.182   8.787   9.604
89785SOL    HW271188   7.166   8.642   9.567
89786SOL     OW71189   7.435  14.262   2.316
89786SOL    HW171190   7.427  14.325   2.244
89786SOL    HW271191   7.489  14.192   2.280
89787SOL     OW71192   1.164   0.172   0.080
89787SOL    HW171193   1.207   0.143  14.872
89787SOL    HW271194   1.148   0.091   0.129
89788SOL     OW71195   7.897  14.178   4.378
89788SOL    HW171196   7.837  14.245   4.346
89788SOL    HW271197   7.909  14.198   4.471
89789SOL     OW71198   9.519   0.303   2.094
89789SOL    HW171199   9.536   0.213   2.065
89789SOL    HW271200   9.423   0.312   2.089
89790SOL     OW71201   5.039   3.115  11.575
89790SOL    HW171202   5.110   3.175  11.601
89790SOL    HW271203   5.035   3.052  11.647
89791SOL     OW71204   2.832   1.007   7.489
89791SOL    HW171205   2.835   1.102   7.503
89791SOL    HW271206   2.751   0.993   7.441
89792SOL     OW71207  10.593  13.706  10.294
89792SOL    HW171208  10.599  13.630  10.351
89792SOL    HW271209  10.661  13.693  10.229
89793SOL     OW71210   0.970   0.840   8.000
89793SOL    HW171211   1.051   0.876   8.037
89793SOL    HW271212   0.907   0.845   8.071
89794SOL     OW71213  11.447  11.763   3.007
89794SOL    HW171214  11.425  11.825   3.076
89794SOL    HW271215  11.542  11.749   3.016
89795SOL     OW71216  14.861   5.388   0.538
89795SOL    HW171217   0.056   5.435   0.488
89795SOL    HW271218   0.037   5.319   0.583
89796SOL     OW71219   6.204   0.117   9.095
89796SOL    HW171220   6.110   0.111   9.115
89796SOL    HW271221   6.213   0.199   9.047
89797SOL     OW71222   2.399   1.097   0.127
89797SOL    HW171223   2.398   1.089   0.032
89797SOL    HW271224   2.491   1.112   0.150
89798SOL     OW71225   5.300  12.620  14.122
89798SOL    HW171226   5.220  12.663  14.092
89798SOL    HW271227   5.360  12.628  14.048
89799SOL     OW71228  14.765   6.124  13.411
89799SOL    HW171229  14.745   6.184  13.483
89799SOL    HW271230  14.738   6.172  13.332
89800SOL     OW71231  10.361  11.280  13.014
89800SOL    HW171232  10.410  11.326  13.082
89800SOL    HW271233  10.395  11.191  13.016
89801SOL     OW71234  11.518  10.583   2.759
89801SOL    HW171235  11.481  10.495   2.762
89801SOL    HW271236  11.452  10.639   2.800
89802SOL     OW71237  11.998  13.529  11.184
89802SOL    HW171238  12.038  13.467  11.245
89802SOL    HW271239  12.034  13.614  11.210
89803SOL     OW71240   2.781  12.627  10.890
89803SOL    HW171241   2.739  12.571  10.955
89803SOL    HW271242   2.752  12.594  10.806
89804SOL     OW71243   1.877   9.176  11.267
89804SOL    HW171244   1.911   9.130  11.344
89804SOL    HW271245   1.871   9.268  11.295
89805SOL     OW71246   2.793   6.009  13.484
89805SOL    HW171247   2.767   6.086  13.433
89805SOL    HW271248   2.858   5.965  13.430
89806SOL     OW71249   7.066   3.293  13.379
89806SOL    HW171250   7.120   3.363  13.343
89806SOL    HW271251   7.044   3.237  13.304
89807SOL     OW71252   2.163   4.546  10.430
89807SOL    HW171253   2.098   4.492  10.474
89807SOL    HW271254   2.165   4.515  10.340
89808SOL     OW71255   5.115   1.544  11.580
89808SOL    HW171256   5.154   1.610  11.638
89808SOL    HW271257   5.156   1.462  11.606
89809SOL     OW71258  12.059   1.573  10.380
89809SOL    HW171259  11.978   1.613  10.411
89809SOL    HW271260  12.080   1.618  10.299
89810SOL     OW71261   7.978   5.558  13.987
89810SOL    HW171262   7.894   5.554  14.033
89810SOL    HW271263   8.038   5.598  14.050
89811SOL     OW71264  10.055  12.482  11.349
89811SOL    HW171265  10.088  12.428  11.278
89811SOL    HW271266   9.963  12.496  11.329
89812SOL     OW71267   3.411   0.661  12.330
89812SOL    HW171268   3.430   0.656  12.423
89812SOL    HW271269   3.466   0.732  12.298
89813SOL     OW71270   8.036   7.992  11.083
89813SOL    HW171271   8.017   8.068  11.138
89813SOL    HW271272   8.104   8.023  11.023
89814SOL     OW71273   3.006   9.115   6.408
89814SOL    HW171274   2.989   9.038   6.353
89814SOL    HW271275   3.049   9.177   6.350
89815SOL     OW71276   5.936  14.571   5.630
89815SOL    HW171277   5.878  14.534   5.564
89815SOL    HW271278   5.976  14.495   5.673
89816SOL     OW71279   2.944   7.950   1.568
89816SOL    HW171280   3.009   8.015   1.542
89816SOL    HW271281   2.993   7.884   1.616
89817SOL     OW71282   0.634  14.668   3.668
89817SOL    HW171283   0.577  14.744   3.677
89817SOL    HW271284   0.630  14.644   3.576
89818SOL     OW71285   1.085   2.165   3.732
89818SOL    HW171286   1.028   2.242   3.738
89818SOL    HW271287   1.172   2.201   3.717
89819SOL     OW71288  14.659  14.448   6.701
89819SOL    HW171289  14.646  14.367   6.652
89819SOL    HW271290  14.737  14.488   6.662
89820SOL     OW71291   2.718   8.347   1.373
89820SOL    HW171292   2.714   8.331   1.278
89820SOL    HW271293   2.681   8.267   1.412
89821SOL     OW71294   6.195   6.018   2.324
89821SOL    HW171295   6.165   6.104   2.354
89821SOL    HW271296   6.199   6.027   2.229
89822SOL     OW71297  10.284   9.839   0.179
89822SOL    HW171298  10.287   9.933   0.161
89822SOL    HW271299  10.335   9.828   0.259
89823SOL     OW71300   5.675   7.193  12.122
89823SOL    HW171301   5.721   7.139  12.187
89823SOL    HW271302   5.743   7.247  12.083
89824SOL     OW71303   9.411   7.252   1.188
89824SOL    HW171304   9.493   7.300   1.174
89824SOL    HW271305   9.346   7.302   1.138
89825SOL     OW71306   3.924  12.188   1.721
89825SOL    HW171307   3.920  12.256   1.654
89825SOL    HW271308   3.853  12.210   1.782
89826SOL     OW71309   1.185  13.489   2.883
89826SOL    HW171310   1.238  13.501   2.805
89826SOL    HW271311   1.167  13.395   2.886
89827SOL     OW71312  14.159  14.081   4.508
89827SOL    HW171313  14.251  14.072   4.484
89827SOL    HW271314  14.140  14.002   4.559
89828SOL     OW71315  14.222   6.867   9.930
89828SOL    HW171316  14.240   6.773   9.932
89828SOL    HW271317  14.189   6.887  10.017
89829SOL     OW71318  10.314  11.093   6.628
89829SOL    HW171319  10.329  11.027   6.560
89829SOL    HW271320  10.232  11.135   6.604
89830SOL     OW71321   7.230   3.402  13.723
89830SOL    HW171322   7.239   3.492  13.755
89830SOL    HW271323   7.303   3.390  13.663
89831SOL     OW71324   9.371   5.693  13.813
89831SOL    HW171325   9.400   5.655  13.731
89831SOL    HW271326   9.283   5.728  13.794
89832SOL     OW71327   6.779  12.394   4.054
89832SOL    HW171328   6.795  12.486   4.077
89832SOL    HW271329   6.865  12.352   4.063
89833SOL     OW71330   0.073  12.390   6.337
89833SOL    HW171331  14.872  12.427   6.385
89833SOL    HW271332   0.140  12.459   6.339
89834SOL     OW71333   9.765   2.123   3.024
89834SOL    HW171334   9.682   2.157   2.991
89834SOL    HW271335   9.832   2.170   2.974
89835SOL     OW71336  11.198  12.048   4.787
89835SOL    HW171337  11.104  12.063   4.781
89835SOL    HW271338  11.218  11.991   4.713
89836SOL     OW71339   7.902   6.741  11.795
89836SOL    HW171340   7.840   6.724  11.724
89836SOL    HW271341   7.955   6.815  11.763
89837SOL     OW71342  11.962   6.516  10.480
89837SOL    HW171343  11.940   6.443  10.423
89837SOL    HW271344  11.921   6.494  10.564
89838SOL     OW71345   8.237  11.834   7.598
89838SOL    HW171346   8.241  11.739   7.612
89838SOL    HW271347   8.320  11.867   7.634
89839SOL     OW71348  11.474   9.786   7.292
89839SOL    HW171349  11.430   9.807   7.375
89839SOL    HW271350  11.526   9.708   7.312
89840SOL     OW71351   4.730   2.817  10.861
89840SOL    HW171352   4.752   2.908  10.880
89840SOL    HW271353   4.725   2.813  10.766
89841SOL     OW71354  11.290   0.937   0.015
89841SOL    HW171355  11.281   1.016  14.834
89841SOL    HW271356  11.206   0.893   0.007
89842SOL     OW71357  10.351   1.086   7.311
89842SOL    HW171358  10.281   1.086   7.377
89842SOL    HW271359  10.392   1.172   7.318
89843SOL     OW71360  11.995   6.215   5.865
89843SOL    HW171361  11.967   6.153   5.933
89843SOL    HW271362  12.041   6.160   5.801
89844SOL     OW71363   2.870  14.600   5.274
89844SOL    HW171364   2.945  14.565   5.225
89844SOL    HW271365   2.805  14.530   5.272
89845SOL     OW71366  14.647  11.753  12.859
89845SOL    HW171367  14.591  11.739  12.935
89845SOL    HW271368  14.670  11.665  12.829
89846SOL     OW71369  10.817   4.462   7.989
89846SOL    HW171370  10.899   4.492   7.948
89846SOL    HW271371  10.823   4.494   8.079
89847SOL     OW71372   3.811   4.631   8.102
89847SOL    HW171373   3.748   4.572   8.143
89847SOL    HW271374   3.844   4.685   8.174
89848SOL     OW71375   2.420   1.653  12.768
89848SOL    HW171376   2.479   1.711  12.721
89848SOL    HW271377   2.405   1.580  12.708
89849SOL     OW71378   4.654   6.199  10.992
89849SOL    HW171379   4.573   6.161  11.028
89849SOL    HW271380   4.628   6.285  10.960
89850SOL     OW71381   1.013   9.320  13.210
89850SOL    HW171382   0.955   9.244  13.203
89850SOL    HW271383   1.014   9.357  13.122
89851SOL     OW71384   2.067   2.903  11.305
89851SOL    HW171385   2.158   2.919  11.282
89851SOL    HW271386   2.060   2.808  11.311
89852SOL     OW71387  12.270   1.533  11.898
89852SOL    HW171388  12.255   1.500  11.987
89852SOL    HW271389  12.183   1.535  11.858
89853SOL     OW71390  12.814   5.097   0.411
89853SOL    HW171391  12.874   5.167   0.434
89853SOL    HW271392  12.803   5.047   0.492
89854SOL     OW71393   4.674  14.741   0.051
89854SOL    HW171394   4.758  14.703   0.078
89854SOL    HW271395   4.676  14.737  14.828
89855SOL     OW71396   9.021   8.037   2.065
89855SOL    HW171397   8.989   8.078   2.146
89855SOL    HW271398   8.995   7.945   2.072
89856SOL     OW71399   8.703   8.718   9.154
89856SOL    HW171400   8.787   8.685   9.184
89856SOL    HW271401   8.717   8.739   9.061
89857SOL     OW71402  12.855   3.281   6.302
89857SOL    HW171403  12.855   3.193   6.264
89857SOL    HW271404  12.866   3.339   6.227
89858SOL     OW71405   3.570   2.166   2.800
89858SOL    HW171406   3.538   2.085   2.760
89858SOL    HW271407   3.493   2.203   2.844
89859SOL     OW71408   3.602   1.407   5.686
89859SOL    HW171409   3.529   1.414   5.625
89859SOL    HW271410   3.596   1.318   5.721
89860SOL     OW71411  12.758   2.701   6.796
89860SOL    HW171412  12.807   2.663   6.870
89860SOL    HW271413  12.717   2.779   6.832
89861SOL     OW71414  14.626  11.982   3.632
89861SOL    HW171415  14.594  11.908   3.683
89861SOL    HW271416  14.575  12.057   3.664
89862SOL     OW71417  10.617  12.447  10.237
89862SOL    HW171418  10.629  12.540  10.218
89862SOL    HW271419  10.523  12.433  10.234
89863SOL     OW71420   4.040   0.943  14.777
89863SOL    HW171421   4.082   0.910  14.856
89863SOL    HW271422   3.962   0.990  14.808
89864SOL     OW71423   6.564   7.562   8.252
89864SOL    HW171424   6.595   7.515   8.175
89864SOL    HW271425   6.623   7.535   8.322
89865SOL     OW71426   8.531   4.948   8.410
89865SOL    HW171427   8.620   4.927   8.380
89865SOL    HW271428   8.532   5.042   8.424
89866SOL     OW71429   0.420   0.505  11.978
89866SOL    HW171430   0.464   0.587  12.000
89866SOL    HW271431   0.488   0.452  11.936
89867SOL     OW71432   7.302  12.852   3.287
89867SOL    HW171433   7.209  12.832   3.293
89867SOL    HW271434   7.336  12.836   3.375
89868SOL     OW71435  11.043   7.848   2.603
89868SOL    HW171436  11.050   7.878   2.512
89868SOL    HW271437  10.968   7.789   2.603
89869SOL     OW71438  11.336   9.968   3.968
89869SOL    HW171439  11.376   9.896   4.017
89869SOL    HW271440  11.373  10.047   4.006
89870SOL     OW71441  10.815   7.023   3.670
89870SOL    HW171442  10.898   7.036   3.717
89870SOL    HW271443  10.751   7.072   3.722
89871SOL     OW71444   0.561   6.613   3.095
89871SOL    HW171445   0.480   6.636   3.141
89871SOL    HW271446   0.630   6.628   3.160
89872SOL     OW71447   5.883   6.267   4.185
89872SOL    HW171448   5.859   6.359   4.193
89872SOL    HW271449   5.814   6.220   4.232
89873SOL     OW71450   6.260   2.621   2.998
89873SOL    HW171451   6.202   2.670   2.940
89873SOL    HW271452   6.340   2.674   3.002
89874SOL     OW71453  14.651   6.008   9.050
89874SOL    HW171454  14.606   5.937   9.004
89874SOL    HW271455  14.662   6.076   8.983
89875SOL     OW71456   5.236   6.018   3.621
89875SOL    HW171457   5.244   5.975   3.536
89875SOL    HW271458   5.326   6.037   3.646
89876SOL     OW71459  13.893   4.719  11.403
89876SOL    HW171460  13.878   4.688  11.492
89876SOL    HW271461  13.880   4.642  11.348
89877SOL     OW71462   6.308   5.698  12.488
89877SOL    HW171463   6.348   5.642  12.555
89877SOL    HW271464   6.315   5.647  12.407
89878SOL     OW71465   7.773   8.258  13.377
89878SOL    HW171466   7.783   8.163  13.368
89878SOL    HW271467   7.833   8.282  13.447
89879SOL     OW71468  14.375  12.019  13.840
89879SOL    HW171469  14.468  12.020  13.863
89879SOL    HW271470  14.329  12.034  13.922
89880SOL     OW71471  10.420  11.293   1.275
89880SOL    HW171472  10.425  11.204   1.239
89880SOL    HW271473  10.351  11.335   1.223
89881SOL     OW71474  11.831  14.223  12.619
89881SOL    HW171475  11.863  14.278  12.690
89881SOL    HW271476  11.910  14.190  12.576
89882SOL     OW71477   3.461   4.593  10.836
89882SOL    HW171478   3.440   4.580  10.929
89882SOL    HW271479   3.554   4.617  10.836
89883SOL     OW71480   6.653   7.464   9.422
89883SOL    HW171481   6.573   7.423   9.390
89883SOL    HW271482   6.718   7.393   9.422
89884SOL     OW71483  11.562   5.560  11.580
89884SOL    HW171484  11.615   5.624  11.533
89884SOL    HW271485  11.619   5.484  11.590
89885SOL     OW71486  12.829   8.583   9.484
89885SOL    HW171487  12.817   8.488   9.483
89885SOL    HW271488  12.754   8.618   9.436
89886SOL     OW71489  10.749   9.311   2.140
89886SOL    HW171490  10.820   9.361   2.181
89886SOL    HW271491  10.793   9.252   2.080
89887SOL     OW71492   1.438   4.776   2.687
89887SOL    HW171493   1.461   4.827   2.610
89887SOL    HW271494   1.445   4.838   2.760
89888SOL     OW71495   6.336   4.850   9.682
89888SOL    HW171496   6.307   4.882   9.768
89888SOL    HW271497   6.257   4.854   9.627
89889SOL     OW71498  10.785   5.091   8.077
89889SOL    HW171499  10.752   5.120   8.162
89889SOL    HW271500  10.802   5.172   8.029
89890SOL     OW71501  12.019   5.073  12.284
89890SOL    HW171502  11.978   5.002  12.235
89890SOL    HW271503  12.017   5.148  12.224
89891SOL     OW71504  10.398  13.237  12.525
89891SOL    HW171505  10.370  13.198  12.608
89891SOL    HW271506  10.490  13.260  12.540
89892SOL     OW71507   1.952   1.958   5.526
89892SOL    HW171508   1.996   1.963   5.611
89892SOL    HW271509   1.980   1.873   5.490
89893SOL     OW71510  11.175  12.968   2.378
89893SOL    HW171511  11.250  12.914   2.358
89893SOL    HW271512  11.101  12.923   2.337
89894SOL     OW71513   6.762  11.124  13.122
89894SOL    HW171514   6.815  11.048  13.100
89894SOL    HW271515   6.675  11.104  13.087
89895SOL     OW71516  14.836  13.604  12.235
89895SOL    HW171517  14.826  13.656  12.156
89895SOL    HW271518  14.759  13.624  12.287
89896SOL     OW71519  14.362   3.421   6.303
89896SOL    HW171520  14.330   3.501   6.261
89896SOL    HW271521  14.389   3.450   6.390
89897SOL     OW71522   2.796   8.574  11.140
89897SOL    HW171523   2.854   8.535  11.074
89897SOL    HW271524   2.827   8.665  11.148
89898SOL     OW71525   9.194  12.398   6.429
89898SOL    HW171526   9.198  12.492   6.447
89898SOL    HW271527   9.177  12.358   6.514
89899SOL     OW71528   1.281   1.979   2.121
89899SOL    HW171529   1.264   2.016   2.208
89899SOL    HW271530   1.285   2.055   2.063
89900SOL     OW71531   0.290  11.055   4.571
89900SOL    HW171532   0.219  11.077   4.510
89900SOL    HW271533   0.275  11.112   4.646
89901SOL     OW71534  14.258   4.456  14.487
89901SOL    HW171535  14.162   4.461  14.483
89901SOL    HW271536  14.276   4.426  14.576
89902SOL     OW71537   3.437   8.222   5.623
89902SOL    HW171538   3.343   8.216   5.608
89902SOL    HW271539   3.476   8.216   5.536
89903SOL     OW71540  12.313   5.559  12.458
89903SOL    HW171541  12.288   5.593  12.543
89903SOL    HW271542  12.282   5.624  12.395
89904SOL     OW71543  14.154  10.939  10.392
89904SOL    HW171544  14.104  10.987  10.457
89904SOL    HW271545  14.239  10.924  10.433
89905SOL     OW71546  13.440   6.977   8.038
89905SOL    HW171547  13.433   6.983   7.943
89905SOL    HW271548  13.363   6.929   8.065
89906SOL     OW71549   8.866   1.227  10.802
89906SOL    HW171550   8.854   1.154  10.741
89906SOL    HW271551   8.789   1.225  10.858
89907SOL     OW71552   5.365   9.954   0.559
89907SOL    HW171553   5.293   9.988   0.612
89907SOL    HW271554   5.426   9.916   0.621
89908SOL     OW71555   9.574  10.566   6.150
89908SOL    HW171556   9.557  10.484   6.103
89908SOL    HW271557   9.634  10.614   6.093
89909SOL     OW71558   6.934   0.717   5.191
89909SOL    HW171559   6.856   0.771   5.207
89909SOL    HW271560   6.908   0.657   5.121
89910SOL     OW71561  12.273  13.913  10.201
89910SOL    HW171562  12.347  13.885  10.145
89910SOL    HW271563  12.274  14.009  10.195
89911SOL     OW71564   0.251  12.632   7.820
89911SOL    HW171565   0.234  12.713   7.870
89911SOL    HW271566   0.217  12.562   7.876
89912SOL     OW71567  11.396   7.404   7.296
89912SOL    HW171568  11.385   7.418   7.202
89912SOL    HW271569  11.318   7.443   7.336
89913SOL     OW71570  13.433   4.570  12.255
89913SOL    HW171571  13.442   4.475  12.265
89913SOL    HW271572  13.486   4.607  12.326
89914SOL     OW71573   0.500   7.038   4.492
89914SOL    HW171574   0.526   7.087   4.414
89914SOL    HW271575   0.537   6.951   4.479
89915SOL     OW71576  12.693   2.628   3.505
89915SOL    HW171577  12.663   2.708   3.463
89915SOL    HW271578  12.692   2.563   3.436
89916SOL     OW71579   6.437   2.636   8.696
89916SOL    HW171580   6.362   2.644   8.636
89916SOL    HW271581   6.413   2.690   8.771
89917SOL     OW71582   6.566   2.331   3.715
89917SOL    HW171583   6.486   2.285   3.738
89917SOL    HW271584   6.637   2.272   3.740
89918SOL     OW71585   9.060  14.471   4.388
89918SOL    HW171586   9.147  14.453   4.352
89918SOL    HW271587   9.053  14.412   4.463
89919SOL     OW71588   7.543  10.583  14.810
89919SOL    HW171589   7.593  10.611  14.734
89919SOL    HW271590   7.490  10.510  14.778
89920SOL     OW71591   6.827   5.676  14.752
89920SOL    HW171592   6.794   5.589  14.727
89920SOL    HW271593   6.879   5.704  14.677
89921SOL     OW71594   7.386   6.433   9.714
89921SOL    HW171595   7.447   6.409   9.645
89921SOL    HW271596   7.300   6.426   9.673
89922SOL     OW71597   1.884   0.422   1.743
89922SOL    HW171598   1.966   0.395   1.784
89922SOL    HW271599   1.817   0.399   1.808
89923SOL     OW71600   5.179   8.981   0.409
89923SOL    HW171601   5.197   8.953   0.498
89923SOL    HW271602   5.216   8.911   0.354
89924SOL     OW71603  10.561   3.556   0.950
89924SOL    HW171604  10.563   3.570   1.045
89924SOL    HW271605  10.556   3.644   0.912
89925SOL     OW71606   7.628   3.358  11.178
89925SOL    HW171607   7.705   3.330  11.129
89925SOL    HW271608   7.562   3.377  11.111
89926SOL     OW71609   6.145   8.975  12.092
89926SOL    HW171610   6.053   8.990  12.113
89926SOL    HW271611   6.171   8.903  12.150
89927SOL     OW71612   4.036   4.419   3.045
89927SOL    HW171613   4.041   4.484   2.974
89927SOL    HW271614   3.981   4.349   3.009
89928SOL     OW71615   5.600   3.525   2.190
89928SOL    HW171616   5.628   3.592   2.252
89928SOL    HW271617   5.514   3.555   2.160
89929SOL     OW71618  13.152  13.688   1.171
89929SOL    HW171619  13.130  13.630   1.244
89929SOL    HW271620  13.184  13.630   1.103
89930SOL     OW71621   7.918   3.930  11.625
89930SOL    HW171622   7.945   4.012  11.667
89930SOL    HW271623   7.984   3.866  11.652
89931SOL     OW71624   3.067  12.490  12.452
89931SOL    HW171625   3.058  12.487  12.357
89931SOL    HW271626   3.132  12.559  12.467
89932SOL     OW71627  12.519   3.960   3.992
89932SOL    HW171628  12.436   4.005   3.977
89932SOL    HW271629  12.568   4.019   4.049
89933SOL     OW71630   1.997   6.013   2.423
89933SOL    HW171631   1.965   5.923   2.409
89933SOL    HW271632   1.946   6.066   2.362
89934SOL     OW71633  13.120   2.174   8.722
89934SOL    HW171634  13.181   2.113   8.681
89934SOL    HW271635  13.033   2.137   8.704
89935SOL     OW71636   4.873  13.010   5.536
89935SOL    HW171637   4.783  13.028   5.511
89935SOL    HW271638   4.867  12.975   5.624
89936SOL     OW71639   1.782  10.096   4.389
89936SOL    HW171640   1.867  10.139   4.389
89936SOL    HW271641   1.800  10.008   4.423
89937SOL     OW71642   8.343   5.787   7.173
89937SOL    HW171643   8.358   5.752   7.085
89937SOL    HW271644   8.420   5.842   7.190
89938SOL     OW71645   6.063   1.333  12.828
89938SOL    HW171646   6.022   1.246  12.824
89938SOL    HW271647   6.009   1.382  12.890
89939SOL     OW71648   8.283   0.859  12.529
89939SOL    HW171649   8.228   0.878  12.453
89939SOL    HW271650   8.278   0.938  12.583
89940SOL     OW71651   4.623  14.074  14.574
89940SOL    HW171652   4.573  14.050  14.652
89940SOL    HW271653   4.671  14.153  14.599
89941SOL     OW71654  13.196  13.263   5.274
89941SOL    HW171655  13.267  13.213   5.233
89941SOL    HW271656  13.207  13.352   5.241
89942SOL     OW71657  12.381   3.198   2.325
89942SOL    HW171658  12.446   3.160   2.266
89942SOL    HW271659  12.331   3.122   2.357
89943SOL     OW71660   2.252   0.558   9.323
89943SOL    HW171661   2.167   0.602   9.323
89943SOL    HW271662   2.313   0.626   9.352
89944SOL     OW71663   8.355   6.423   4.636
89944SOL    HW171664   8.320   6.468   4.713
89944SOL    HW271665   8.394   6.492   4.583
89945SOL     OW71666  14.361   1.053   9.104
89945SOL    HW171667  14.345   0.972   9.153
89945SOL    HW271668  14.293   1.053   9.036
89946SOL     OW71669   9.253  12.288  10.452
89946SOL    HW171670   9.268  12.264  10.543
89946SOL    HW271671   9.336  12.268  10.408
89947SOL     OW71672  13.524   7.468   7.400
89947SOL    HW171673  13.462   7.451   7.471
89947SOL    HW271674  13.482   7.535   7.347
89948SOL     OW71675  12.861  11.726   6.016
89948SOL    HW171676  12.918  11.727   5.939
89948SOL    HW271677  12.863  11.816   6.049
89949SOL     OW71678  10.591  13.451  10.114
89949SOL    HW171679  10.520  13.502  10.075
89949SOL    HW271680  10.669  13.503  10.101
89950SOL     OW71681  12.015   7.106   2.315
89950SOL    HW171682  12.043   7.017   2.296
89950SOL    HW271683  12.026   7.154   2.233
89951SOL     OW71684  14.542  14.391   6.948
89951SOL    HW171685  14.520  14.313   6.897
89951SOL    HW271686  14.600  14.442   6.891
89952SOL     OW71687   0.900   3.547   4.172
89952SOL    HW171688   0.810   3.579   4.168
89952SOL    HW271689   0.891   3.452   4.166
89953SOL     OW71690   5.204   2.098  11.743
89953SOL    HW171691   5.160   2.027  11.789
89953SOL    HW271692   5.186   2.176  11.796
89954SOL     OW71693   0.058   5.282   8.120
89954SOL    HW171694   0.007   5.201   8.110
89954SOL    HW271695   0.075   5.287   8.214
89955SOL     OW71696  13.946   1.710   2.192
89955SOL    HW171697  13.987   1.656   2.125
89955SOL    HW271698  13.903   1.781   2.144
89956SOL     OW71699   7.127  12.239   8.894
89956SOL    HW171700   7.069  12.198   8.958
89956SOL    HW271701   7.179  12.167   8.859
89957SOL     OW71702  10.286   5.557   8.666
89957SOL    HW171703  10.246   5.501   8.732
89957SOL    HW271704  10.264   5.646   8.693
89958SOL     OW71705   1.763  13.570   8.341
89958SOL    HW171706   1.831  13.579   8.408
89958SOL    HW271707   1.809  13.589   8.259
89959SOL     OW71708   7.561   4.367   6.434
89959SOL    HW171709   7.568   4.408   6.520
89959SOL    HW271710   7.487   4.307   6.442
89960SOL     OW71711   0.775  11.809   9.566
89960SOL    HW171712   0.849  11.819   9.506
89960SOL    HW271713   0.807  11.843   9.649
89961SOL     OW71714   6.200   5.532   6.170
89961SOL    HW171715   6.241   5.475   6.105
89961SOL    HW271716   6.249   5.515   6.251
89962SOL     OW71717   5.793  13.418   2.511
89962SOL    HW171718   5.743  13.340   2.535
89962SOL    HW271719   5.852  13.432   2.586
89963SOL     OW71720   7.555   5.734   3.657
89963SOL    HW171721   7.559   5.827   3.679
89963SOL    HW271722   7.462   5.712   3.661
89964SOL     OW71723   9.073   9.073  11.925
89964SOL    HW171724   9.138   9.003  11.917
89964SOL    HW271725   9.097   9.119  12.006
89965SOL     OW71726   3.914   4.074   7.743
89965SOL    HW171727   4.003   4.048   7.719
89965SOL    HW271728   3.901   4.038   7.831
89966SOL     OW71729   2.228   6.839   8.553
89966SOL    HW171730   2.174   6.831   8.474
89966SOL    HW271731   2.233   6.750   8.588
89967SOL     OW71732   6.776  14.124  10.741
89967SOL    HW171733   6.762  14.038  10.781
89967SOL    HW271734   6.706  14.179  10.776
89968SOL     OW71735   3.038   6.423  11.060
89968SOL    HW171736   3.027   6.336  11.096
89968SOL    HW271737   2.957   6.469  11.084
89969SOL     OW71738  13.899  11.452  13.155
89969SOL    HW171739  13.824  11.512  13.163
89969SOL    HW271740  13.910  11.417  13.244
89970SOL     OW71741   2.056  11.147   3.578
89970SOL    HW171742   2.103  11.164   3.660
89970SOL    HW271743   1.977  11.201   3.585
89971SOL     OW71744   1.663  11.764   4.661
89971SOL    HW171745   1.683  11.671   4.670
89971SOL    HW271746   1.739  11.809   4.700
89972SOL     OW71747   2.369   8.301   2.101
89972SOL    HW171748   2.292   8.275   2.049
89972SOL    HW271749   2.361   8.396   2.110
89973SOL     OW71750  11.175  14.759  11.173
89973SOL    HW171751  11.245  14.821  11.194
89973SOL    HW271752  11.175  14.698  11.247
89974SOL     OW71753   7.545   8.582   1.885
89974SOL    HW171754   7.531   8.487   1.890
89974SOL    HW271755   7.585   8.604   1.969
89975SOL     OW71756   6.456   1.682   5.654
89975SOL    HW171757   6.402   1.614   5.695
89975SOL    HW271758   6.485   1.736   5.727
89976SOL     OW71759   2.571   6.036   1.710
89976SOL    HW171760   2.646   5.998   1.665
89976SOL    HW271761   2.513   5.962   1.727
89977SOL     OW71762   2.928   2.026   1.673
89977SOL    HW171763   2.916   1.952   1.732
89977SOL    HW271764   3.019   2.020   1.644
89978SOL     OW71765  11.830  11.641   9.629
89978SOL    HW171766  11.848  11.698   9.554
89978SOL    HW271767  11.736  11.653   9.645
89979SOL     OW71768  11.799   2.946  11.781
89979SOL    HW171769  11.858   3.018  11.762
89979SOL    HW271770  11.763   2.965  11.867
89980SOL     OW71771   0.660   8.027   7.014
89980SOL    HW171772   0.754   8.027   7.032
89980SOL    HW271773   0.623   8.084   7.082
89981SOL     OW71774  12.392   8.491   5.828
89981SOL    HW171775  12.472   8.473   5.779
89981SOL    HW271776  12.421   8.502   5.918
89982SOL     OW71777   3.706  12.048   2.817
89982SOL    HW171778   3.658  12.091   2.888
89982SOL    HW271779   3.678  12.093   2.738
89983SOL     OW71780  14.781  11.777  14.574
89983SOL    HW171781  14.703  11.726  14.552
89983SOL    HW271782  14.796  11.833  14.499
89984SOL     OW71783  11.256   7.848  13.680
89984SOL    HW171784  11.164   7.871  13.672
89984SOL    HW271785  11.260   7.789  13.755
89985SOL     OW71786  14.474  11.444   7.069
89985SOL    HW171787  14.553  11.397   7.097
89985SOL    HW271788  14.506  11.530   7.041
89986SOL     OW71789  12.399   0.962   1.024
89986SOL    HW171790  12.472   1.021   1.044
89986SOL    HW271791  12.375   0.984   0.933
89987SOL     OW71792   8.638   6.737  10.956
89987SOL    HW171793   8.559   6.768  10.911
89987SOL    HW271794   8.693   6.701  10.887
89988SOL     OW71795   6.510   4.600   3.329
89988SOL    HW171796   6.516   4.611   3.234
89988SOL    HW271797   6.416   4.606   3.348
89989SOL     OW71798  11.883   9.952   6.043
89989SOL    HW171799  11.801   9.979   6.001
89989SOL    HW271800  11.869   9.860   6.066
89990SOL     OW71801   5.703   4.425   8.026
89990SOL    HW171802   5.776   4.377   7.987
89990SOL    HW271803   5.667   4.476   7.953
89991SOL     OW71804   4.166   4.791   8.612
89991SOL    HW171805   4.104   4.782   8.540
89991SOL    HW271806   4.125   4.748   8.686
89992SOL     OW71807   6.920   6.339   4.768
89992SOL    HW171808   6.992   6.300   4.818
89992SOL    HW271809   6.848   6.344   4.830
89993SOL     OW71810   5.294   0.447   2.526
89993SOL    HW171811   5.231   0.480   2.462
89993SOL    HW271812   5.361   0.404   2.473
89994SOL     OW71813  10.698   6.410  12.823
89994SOL    HW171814  10.697   6.410  12.728
89994SOL    HW271815  10.785   6.378  12.846
89995SOL     OW71816   0.224  13.411  10.622
89995SOL    HW171817   0.185  13.325  10.603
89995SOL    HW271818   0.167  13.450  10.688
89996SOL     OW71819   9.032   7.885   5.958
89996SOL    HW171820   9.033   7.800   5.913
89996SOL    HW271821   8.973   7.940   5.906
89997SOL     OW71822  14.854   6.502   0.304
89997SOL    HW171823   0.055   6.496   0.365
89997SOL    HW271824  14.793   6.433   0.332
89998SOL     OW71825  14.618   2.884   4.151
89998SOL    HW171826  14.682   2.855   4.087
89998SOL    HW271827  14.534   2.856   4.115
89999SOL     OW71828   5.169   1.644   2.351
89999SOL    HW171829   5.171   1.730   2.394
89999SOL    HW271830   5.150   1.582   2.422
90000SOL     OW71831  12.354   1.469   4.044
90000SOL    HW171832  12.415   1.414   3.994
90000SOL    HW271833  12.408   1.541   4.077
90001SOL     OW71834   8.386   7.588   4.695
90001SOL    HW171835   8.436   7.522   4.646
90001SOL    HW271836   8.407   7.671   4.652
90002SOL     OW71837   9.704   3.799   6.904
90002SOL    HW171838   9.643   3.735   6.942
90002SOL    HW271839   9.717   3.864   6.973
90003SOL     OW71840  10.118  12.044   5.604
90003SOL    HW171841  10.057  11.977   5.635
90003SOL    HW271842  10.086  12.125   5.645
90004SOL     OW71843   9.619  10.059   2.333
90004SOL    HW171844   9.569   9.999   2.278
90004SOL    HW271845   9.675  10.106   2.271
90005SOL     OW71846   1.352  10.741   4.065
90005SOL    HW171847   1.330  10.786   4.146
90005SOL    HW271848   1.274  10.688   4.045
90006SOL     OW71849  11.670  11.880  11.214
90006SOL    HW171850  11.607  11.862  11.284
90006SOL    HW271851  11.693  11.972  11.225
90007SOL     OW71852   3.314   8.344   4.700
90007SOL    HW171853   3.261   8.361   4.622
90007SOL    HW271854   3.254   8.357   4.773
90008SOL     OW71855  14.362   0.529   6.793
90008SOL    HW171856  14.341   0.587   6.866
90008SOL    HW271857  14.307   0.559   6.721
90009SOL     OW71858   0.963   3.722  10.980
90009SOL    HW171859   0.992   3.812  10.993
90009SOL    HW271860   0.876   3.719  11.018
90010SOL     OW71861   4.584   7.953  12.206
90010SOL    HW171862   4.555   8.043  12.219
90010SOL    HW271863   4.566   7.935  12.114
90011SOL     OW71864   2.370   8.828   6.863
90011SOL    HW171865   2.375   8.808   6.956
90011SOL    HW271866   2.458   8.812   6.830
90012SOL     OW71867   0.109   3.982   0.114
90012SOL    HW171868   0.093   3.910   0.174
90012SOL    HW271869   0.191   4.021   0.144
90013SOL     OW71870   6.302  13.572   1.667
90013SOL    HW171871   6.213  13.605   1.657
90013SOL    HW271872   6.292  13.477   1.673
90014SOL     OW71873   8.538   6.638   9.015
90014SOL    HW171874   8.528   6.543   9.022
90014SOL    HW271875   8.632   6.653   9.023
90015SOL     OW71876   3.511  14.627   1.929
90015SOL    HW171877   3.446  14.677   1.976
90015SOL    HW271878   3.590  14.682   1.931
90016SOL     OW71879  12.674   7.252  10.691
90016SOL    HW171880  12.660   7.288  10.779
90016SOL    HW271881  12.721   7.170  10.706
90017SOL     OW71882   5.635   0.838   0.654
90017SOL    HW171883   5.613   0.750   0.625
90017SOL    HW271884   5.556   0.889   0.639
90018SOL     OW71885  13.285  10.556   7.154
90018SOL    HW171886  13.343  10.560   7.229
90018SOL    HW271887  13.208  10.607   7.180
90019SOL     OW71888   7.758   3.042   7.688
90019SOL    HW171889   7.673   3.087   7.694
90019SOL    HW271890   7.805   3.088   7.618
90020SOL     OW71891   6.944   9.425  11.754
90020SOL    HW171892   7.034   9.394  11.747
90020SOL    HW271893   6.930   9.437  11.848
90021SOL     OW71894  11.972   4.826  10.812
90021SOL    HW171895  12.056   4.810  10.857
90021SOL    HW271896  11.996   4.834  10.720
90022SOL     OW71897   0.914   4.412  10.975
90022SOL    HW171898   0.851   4.474  11.011
90022SOL    HW271899   0.861   4.337  10.948
90023SOL     OW71900  13.968   6.559  13.409
90023SOL    HW171901  13.936   6.603  13.330
90023SOL    HW271902  13.966   6.466  13.388
90024SOL     OW71903  14.816  14.399   4.676
90024SOL    HW171904  14.818  14.455   4.598
90024SOL    HW271905  14.723  14.394   4.699
90025SOL     OW71906   3.668   9.884   3.836
90025SOL    HW171907   3.680   9.969   3.880
90025SOL    HW271908   3.626   9.906   3.753
90026SOL     OW71909   6.945   3.533   6.533
90026SOL    HW171910   6.877   3.600   6.537
90026SOL    HW271911   6.946   3.506   6.441
90027SOL     OW71912   2.660   9.049   8.477
90027SOL    HW171913   2.683   9.140   8.455
90027SOL    HW271914   2.655   9.049   8.573
90028SOL     OW71915   4.833   9.564   2.779
90028SOL    HW171916   4.896   9.532   2.844
90028SOL    HW271917   4.885   9.619   2.721
90029SOL     OW71918   8.645   9.817  14.223
90029SOL    HW171919   8.666   9.901  14.183
90029SOL    HW271920   8.571   9.836  14.281
90030SOL     OW71921   7.627  14.824   1.322
90030SOL    HW171922   7.631  14.730   1.310
90030SOL    HW271923   7.686  14.842   1.394
90031SOL     OW71924   6.620  13.551   1.717
90031SOL    HW171925   6.593  13.594   1.636
90031SOL    HW271926   6.642  13.462   1.690
90032SOL     OW71927   2.967   6.707  12.117
90032SOL    HW171928   2.975   6.802  12.108
90032SOL    HW271929   2.985   6.672  12.030
90033SOL     OW71930   2.381  10.412   7.750
90033SOL    HW171931   2.399  10.318   7.758
90033SOL    HW271932   2.442  10.443   7.683
90034SOL     OW71933   5.018   4.712  10.917
90034SOL    HW171934   5.095   4.751  10.877
90034SOL    HW271935   5.046   4.690  11.006
90035SOL     OW71936   7.560   8.170  12.493
90035SOL    HW171937   7.543   8.076  12.502
90035SOL    HW271938   7.578   8.183  12.400
90036SOL     OW71939   7.533   2.797   6.530
90036SOL    HW171940   7.597   2.796   6.601
90036SOL    HW271941   7.582   2.765   6.454
90037SOL     OW71942   1.157  10.735   6.248
90037SOL    HW171943   1.063  10.717   6.248
90037SOL    HW271944   1.198  10.648   6.241
90038SOL     OW71945  10.681  12.217  11.335
90038SOL    HW171946  10.725  12.231  11.419
90038SOL    HW271947  10.687  12.302  11.290
90039SOL     OW71948   6.122   9.158  13.018
90039SOL    HW171949   6.168   9.169  13.101
90039SOL    HW271950   6.191   9.151  12.953
90040SOL     OW71951  14.040  11.468   1.668
90040SOL    HW171952  14.050  11.467   1.763
90040SOL    HW271953  14.056  11.378   1.640
90041SOL     OW71954   6.951   2.652   3.657
90041SOL    HW171955   6.886   2.582   3.646
90041SOL    HW271956   6.899   2.732   3.657
90042SOL     OW71957   2.890   3.542   3.295
90042SOL    HW171958   2.870   3.458   3.252
90042SOL    HW271959   2.909   3.518   3.386
90043SOL     OW71960   4.688   6.421   6.618
90043SOL    HW171961   4.712   6.421   6.711
90043SOL    HW271962   4.772   6.417   6.572
90044SOL     OW71963  12.615   3.804   2.222
90044SOL    HW171964  12.636   3.711   2.235
90044SOL    HW271965  12.520   3.809   2.226
90045SOL     OW71966   5.060   2.264   8.213
90045SOL    HW171967   5.039   2.311   8.133
90045SOL    HW271968   5.122   2.197   8.186
90046SOL     OW71969   3.643   7.405   3.644
90046SOL    HW171970   3.563   7.448   3.615
90046SOL    HW271971   3.639   7.318   3.603
90047SOL     OW71972   4.708  10.523  11.498
90047SOL    HW171973   4.724  10.482  11.413
90047SOL    HW271974   4.676  10.451  11.553
90048SOL     OW71975   1.860   1.154   1.917
90048SOL    HW171976   1.929   1.215   1.943
90048SOL    HW271977   1.790   1.210   1.884
90049SOL     OW71978   4.302   0.340   1.538
90049SOL    HW171979   4.306   0.280   1.463
90049SOL    HW271980   4.393   0.358   1.559
90050SOL     OW71981  14.817   8.912  11.166
90050SOL    HW171982  14.811   8.941  11.257
90050SOL    HW271983  14.783   8.822  11.167
90051SOL     OW71984  12.886   3.421  14.150
90051SOL    HW171985  12.907   3.512  14.172
90051SOL    HW271986  12.899   3.373  14.232
90052SOL     OW71987  14.710  10.351   7.465
90052SOL    HW171988  14.761  10.272   7.448
90052SOL    HW271989  14.773  10.414   7.501
90053SOL     OW71990  13.693   7.596  13.170
90053SOL    HW171991  13.600   7.572  13.175
90053SOL    HW271992  13.694   7.672  13.111
90054SOL     OW71993   7.567  11.630  10.992
90054SOL    HW171994   7.661  11.627  11.008
90054SOL    HW271995   7.544  11.541  10.966
90055SOL     OW71996  10.476   8.308  13.838
90055SOL    HW171997  10.509   8.384  13.788
90055SOL    HW271998  10.385   8.299  13.811
90056SOL     OW71999   4.607   7.563   3.441
90056SOL    HW172000   4.613   7.520   3.356
90056SOL    HW272001   4.645   7.650   3.426
90057SOL     OW72002   4.607   7.577   5.894
90057SOL    HW172003   4.602   7.672   5.901
90057SOL    HW272004   4.604   7.545   5.984
90058SOL     OW72005   3.860   8.802   6.672
90058SOL    HW172006   3.923   8.874   6.664
90058SOL    HW272007   3.816   8.817   6.756
90059SOL     OW72008  12.106  11.977   6.873
90059SOL    HW172009  12.088  11.945   6.785
90059SOL    HW272010  12.097  12.072   6.867
90060SOL     OW72011  13.266  12.064   1.381
90060SOL    HW172012  13.352  12.069   1.423
90060SOL    HW272013  13.208  12.112   1.440
90061SOL     OW72014   7.577   5.458  13.680
90061SOL    HW172015   7.615   5.537  13.719
90061SOL    HW272016   7.566   5.481  13.587
90062SOL     OW72017   7.413  13.699   1.667
90062SOL    HW172018   7.319  13.713   1.672
90062SOL    HW272019   7.424  13.632   1.599
90063SOL     OW72020   1.550   7.284   9.670
90063SOL    HW172021   1.586   7.242   9.748
90063SOL    HW272022   1.494   7.217   9.631
90064SOL     OW72023   9.852   1.133   1.813
90064SOL    HW172024   9.905   1.136   1.893
90064SOL    HW272025   9.886   1.204   1.759
90065SOL     OW72026   8.432   7.753   1.287
90065SOL    HW172027   8.406   7.690   1.221
90065SOL    HW272028   8.442   7.836   1.239
90066SOL     OW72029  11.910   1.028  14.797
90066SOL    HW172030  11.967   0.952  14.787
90066SOL    HW272031  11.881   1.048  14.708
90067SOL     OW72032  11.336   1.731   8.949
90067SOL    HW172033  11.400   1.717   8.879
90067SOL    HW272034  11.255   1.752   8.903
90068SOL     OW72035  12.428   5.002   8.722
90068SOL    HW172036  12.370   4.926   8.732
90068SOL    HW272037  12.443   5.033   8.812
90069SOL     OW72038   3.221  10.226  13.120
90069SOL    HW172039   3.236  10.258  13.208
90069SOL    HW272040   3.148  10.278  13.087
90070SOL     OW72041  12.572  11.302  11.303
90070SOL    HW172042  12.497  11.242  11.310
90070SOL    HW272043  12.533  11.389  11.312
90071SOL     OW72044   1.771   7.677   5.047
90071SOL    HW172045   1.733   7.603   5.094
90071SOL    HW272046   1.863   7.678   5.074
90072SOL     OW72047  10.399   2.320   7.050
90072SOL    HW172048  10.395   2.412   7.077
90072SOL    HW272049  10.435   2.324   6.961
90073SOL     OW72050  11.583   6.818   9.416
90073SOL    HW172051  11.539   6.867   9.486
90073SOL    HW272052  11.542   6.848   9.335
90074SOL     OW72053   0.453  11.761   4.639
90074SOL    HW172054   0.482  11.762   4.548
90074SOL    HW272055   0.526  11.720   4.686
90075SOL     OW72056  14.119   3.452   0.654
90075SOL    HW172057  14.071   3.502   0.721
90075SOL    HW272058  14.151   3.375   0.701
90076SOL     OW72059  13.333   7.194  13.168
90076SOL    HW172060  13.398   7.173  13.235
90076SOL    HW272061  13.367   7.154  13.088
90077SOL     OW72062   4.552  12.998   2.951
90077SOL    HW172063   4.556  13.094   2.946
90077SOL    HW272064   4.643  12.970   2.939
90078SOL     OW72065   6.098  10.188   9.606
90078SOL    HW172066   6.093  10.218   9.515
90078SOL    HW272067   6.183  10.219   9.636
90079SOL     OW72068   1.197   9.141   7.086
90079SOL    HW172069   1.271   9.202   7.087
90079SOL    HW272070   1.170   9.137   6.995
90080SOL     OW72071   6.903   1.516   4.259
90080SOL    HW172072   6.945   1.439   4.299
90080SOL    HW272073   6.933   1.590   4.312
90081SOL     OW72074  14.708   1.761  11.803
90081SOL    HW172075  14.728   1.693  11.868
90081SOL    HW272076  14.701   1.841  11.854
90082SOL     OW72077  14.229  13.266  10.945
90082SOL    HW172078  14.205  13.174  10.956
90082SOL    HW272079  14.278  13.288  11.024
90083SOL     OW72080  13.540  10.043   6.347
90083SOL    HW172081  13.589  10.095   6.283
90083SOL    HW272082  13.600  10.032   6.421
90084SOL     OW72083   9.938  11.165   2.047
90084SOL    HW172084  10.010  11.110   2.016
90084SOL    HW272085   9.980  11.247   2.073
90085SOL     OW72086  13.918  11.044  14.661
90085SOL    HW172087  13.941  11.134  14.685
90085SOL    HW272088  13.863  11.054  14.583
90086SOL     OW72089  12.332  10.170   3.686
90086SOL    HW172090  12.278  10.183   3.764
90086SOL    HW272091  12.332  10.255   3.642
90087SOL     OW72092   1.859   2.749   0.736
90087SOL    HW172093   1.831   2.682   0.674
90087SOL    HW272094   1.822   2.721   0.820
90088SOL     OW72095   0.680  10.792   5.470
90088SOL    HW172096   0.754  10.742   5.505
90088SOL    HW272097   0.676  10.870   5.525
90089SOL     OW72098   3.002   7.918   7.508
90089SOL    HW172099   2.930   7.855   7.510
90089SOL    HW272100   3.059   7.891   7.581
90090SOL     OW72101   6.777   7.501   7.341
90090SOL    HW172102   6.852   7.520   7.397
90090SOL    HW272103   6.725   7.439   7.391
90091SOL     OW72104   3.762   9.032   7.697
90091SOL    HW172105   3.703   9.107   7.693
90091SOL    HW272106   3.804   9.039   7.783
90092SOL     OW72107   8.220   9.168   4.993
90092SOL    HW172108   8.160   9.200   5.060
90092SOL    HW272109   8.274   9.103   5.038
90093SOL     OW72110   5.830   5.376   4.761
90093SOL    HW172111   5.915   5.363   4.802
90093SOL    HW272112   5.767   5.370   4.834
90094SOL     OW72113   5.842   5.806   1.479
90094SOL    HW172114   5.775   5.869   1.452
90094SOL    HW272115   5.840   5.809   1.575
90095SOL     OW72116  13.905   6.356   8.292
90095SOL    HW172117  13.891   6.375   8.385
90095SOL    HW272118  13.893   6.441   8.249
90096SOL     OW72119   2.619   8.416  13.983
90096SOL    HW172120   2.582   8.434  14.069
90096SOL    HW272121   2.699   8.469  13.979
90097SOL     OW72122   8.124   1.991  10.593
90097SOL    HW172123   8.142   2.040  10.513
90097SOL    HW272124   8.114   1.900  10.564
90098SOL     OW72125   5.255   5.801   6.068
90098SOL    HW172126   5.199   5.809   6.145
90098SOL    HW272127   5.327   5.745   6.097
90099SOL     OW72128   2.225   2.151   7.991
90099SOL    HW172129   2.250   2.182   8.078
90099SOL    HW272130   2.133   2.177   7.982
90100SOL     OW72131   5.828   9.944   6.184
90100SOL    HW172132   5.748   9.922   6.134
90100SOL    HW272133   5.801   9.938   6.275
90101SOL     OW72134   3.041   5.420   4.029
90101SOL    HW172135   3.055   5.515   4.033
90101SOL    HW272136   2.990   5.406   3.950
90102SOL     OW72137   7.695   9.058  10.544
90102SOL    HW172138   7.710   9.143  10.585
90102SOL    HW272139   7.780   9.014  10.548
90103SOL     OW72140   7.041  13.579   1.568
90103SOL    HW172141   7.059  13.486   1.579
90103SOL    HW272142   6.998  13.585   1.483
90104SOL     OW72143   4.235   8.145   8.927
90104SOL    HW172144   4.156   8.197   8.911
90104SOL    HW272145   4.306   8.208   8.922
90105SOL     OW72146  12.427   6.038  13.858
90105SOL    HW172147  12.344   6.038  13.905
90105SOL    HW272148  12.434   6.125  13.820
90106SOL     OW72149  13.079  12.440   9.686
90106SOL    HW172150  13.173  12.426   9.684
90106SOL    HW272151  13.057  12.443   9.779
90107SOL     OW72152   0.989   8.365  12.810
90107SOL    HW172153   1.062   8.341  12.753
90107SOL    HW272154   1.007   8.455  12.835
90108SOL     OW72155   7.600   1.986  13.172
90108SOL    HW172156   7.576   1.899  13.203
90108SOL    HW272157   7.526   2.041  13.196
90109SOL     OW72158   2.412  14.720   2.929
90109SOL    HW172159   2.405  14.815   2.921
90109SOL    HW272160   2.388  14.701   3.019
90110SOL     OW72161  11.348  13.969  14.018
90110SOL    HW172162  11.377  13.885  14.054
90110SOL    HW272163  11.311  14.015  14.093
90111SOL     OW72164   7.261  13.800   6.392
90111SOL    HW172165   7.356  13.797   6.408
90111SOL    HW272166   7.246  13.736   6.323
90112SOL     OW72167   1.866  14.509   9.897
90112SOL    HW172168   1.825  14.554   9.971
90112SOL    HW272169   1.959  14.507   9.919
90113SOL     OW72170  13.287  11.242   5.532
90113SOL    HW172171  13.254  11.167   5.483
90113SOL    HW272172  13.231  11.315   5.506
90114SOL     OW72173  10.705  10.276   9.331
90114SOL    HW172174  10.773  10.208   9.331
90114SOL    HW272175  10.657  10.261   9.412
90115SOL     OW72176   2.710  10.761   4.824
90115SOL    HW172177   2.741  10.708   4.898
90115SOL    HW272178   2.666  10.836   4.865
90116SOL     OW72179  14.087   1.148   1.131
90116SOL    HW172180  14.104   1.239   1.154
90116SOL    HW272181  14.170   1.103   1.150
90117SOL     OW72182  13.878   9.340  10.298
90117SOL    HW172183  13.830   9.300  10.370
90117SOL    HW272184  13.927   9.412  10.339
90118SOL     OW72185  13.435   1.088   8.320
90118SOL    HW172186  13.394   1.109   8.236
90118SOL    HW272187  13.362   1.082   8.382
90119SOL     OW72188   4.979   4.645  13.407
90119SOL    HW172189   5.023   4.709  13.463
90119SOL    HW272190   5.005   4.669  13.318
90120SOL     OW72191  13.784  14.622   7.598
90120SOL    HW172192  13.712  14.559   7.609
90120SOL    HW272193  13.835  14.614   7.678
90121SOL     OW72194   5.368   1.075  12.524
90121SOL    HW172195   5.437   1.010  12.514
90121SOL    HW272196   5.394   1.126  12.600
90122SOL     OW72197  10.675  14.793   2.309
90122SOL    HW172198  10.694  14.703   2.334
90122SOL    HW272199  10.712  14.801   2.221
90123SOL     OW72200   0.235   9.382  14.406
90123SOL    HW172201   0.198   9.397  14.493
90123SOL    HW272202   0.324   9.350  14.423
90124SOL     OW72203  11.960   6.802   5.613
90124SOL    HW172204  11.925   6.715   5.633
90124SOL    HW272205  11.899   6.862   5.654
90125SOL     OW72206   2.204   7.428  12.070
90125SOL    HW172207   2.267   7.450  12.002
90125SOL    HW272208   2.118   7.439  12.029
90126SOL     OW72209   8.828   9.055   6.695
90126SOL    HW172210   8.922   9.051   6.680
90126SOL    HW272211   8.812   8.993   6.766
90127SOL     OW72212   1.890  14.004   8.647
90127SOL    HW172213   1.810  14.055   8.653
90127SOL    HW272214   1.864  13.925   8.600
90128SOL     OW72215   0.528   2.849   7.246
90128SOL    HW172216   0.574   2.868   7.164
90128SOL    HW272217   0.449   2.903   7.242
90129SOL     OW72218   6.731   7.746   3.316
90129SOL    HW172219   6.786   7.710   3.246
90129SOL    HW272220   6.657   7.786   3.270
90130SOL     OW72221  13.741   3.025   9.719
90130SOL    HW172222  13.825   2.980   9.717
90130SOL    HW272223  13.728   3.055   9.628
90131SOL     OW72224   4.289   9.890   3.558
90131SOL    HW172225   4.364   9.872   3.615
90131SOL    HW272226   4.314   9.968   3.509
90132SOL     OW72227   4.197  12.871   6.629
90132SOL    HW172228   4.266  12.929   6.659
90132SOL    HW272229   4.214  12.858   6.536
90133SOL     OW72230   4.106   0.982   7.337
90133SOL    HW172231   4.014   1.004   7.326
90133SOL    HW272232   4.109   0.930   7.417
90134SOL     OW72233   5.333   3.823   2.859
90134SOL    HW172234   5.422   3.790   2.844
90134SOL    HW272235   5.309   3.786   2.944
90135SOL     OW72236  12.500  12.877   3.509
90135SOL    HW172237  12.427  12.836   3.556
90135SOL    HW272238  12.568  12.808   3.506
90136SOL     OW72239   8.487  10.676   4.305
90136SOL    HW172240   8.493  10.612   4.235
90136SOL    HW272241   8.568  10.664   4.355
90137SOL     OW72242   6.938   1.726  13.688
90137SOL    HW172243   6.944   1.633  13.669
90137SOL    HW272244   6.901   1.730  13.776
90138SOL     OW72245   0.871   3.657   5.219
90138SOL    HW172246   0.905   3.623   5.302
90138SOL    HW272247   0.777   3.639   5.223
90139SOL     OW72248   6.521   4.479   4.795
90139SOL    HW172249   6.448   4.538   4.810
90139SOL    HW272250   6.588   4.534   4.755
90140SOL     OW72251   2.349  14.676  10.261
90140SOL    HW172252   2.264  14.636  10.282
90140SOL    HW272253   2.396  14.678  10.344
90141SOL     OW72254  12.315   1.725  14.474
90141SOL    HW172255  12.301   1.698  14.565
90141SOL    HW272256  12.363   1.652  14.434
90142SOL     OW72257   9.095   5.529  13.886
90142SOL    HW172258   9.021   5.469  13.870
90142SOL    HW272259   9.069   5.610  13.843
90143SOL     OW72260   2.341   1.910   6.637
90143SOL    HW172261   2.353   1.821   6.670
90143SOL    HW272262   2.413   1.922   6.575
90144SOL     OW72263   5.657   9.930   5.489
90144SOL    HW172264   5.641  10.015   5.448
90144SOL    HW272265   5.688   9.951   5.577
90145SOL     OW72266   2.990  12.145   0.042
90145SOL    HW172267   3.082  12.131   0.067
90145SOL    HW272268   2.988  12.129  14.820
90146SOL     OW72269  14.128   2.892   1.719
90146SOL    HW172270  14.038   2.883   1.690
90146SOL    HW272271  14.121   2.927   1.808
90147SOL     OW72272   5.073   0.482   6.446
90147SOL    HW172273   5.029   0.481   6.531
90147SOL    HW272274   5.161   0.451   6.464
90148SOL     OW72275  10.871   3.387   6.290
90148SOL    HW172276  10.805   3.435   6.339
90148SOL    HW272277  10.939   3.366   6.354
90149SOL     OW72278   0.770  14.053   9.861
90149SOL    HW172279   0.818  13.974   9.837
90149SOL    HW272280   0.688  14.021   9.898
90150SOL     OW72281   6.653   5.337   8.485
90150SOL    HW172282   6.692   5.305   8.403
90150SOL    HW272283   6.728   5.365   8.538
90151SOL     OW72284  13.074   4.088   5.327
90151SOL    HW172285  13.112   4.162   5.279
90151SOL    HW272286  12.993   4.068   5.280
90152SOL     OW72287  10.203  13.086  10.400
90152SOL    HW172288  10.149  13.066  10.476
90152SOL    HW272289  10.168  13.169  10.366
90153SOL     OW72290  13.797   5.682   1.511
90153SOL    HW172291  13.808   5.623   1.585
90153SOL    HW272292  13.707   5.713   1.517
90154SOL     OW72293   9.372   8.163  10.102
90154SOL    HW172294   9.442   8.114  10.145
90154SOL    HW272295   9.319   8.096  10.058
90155SOL     OW72296  11.716  11.808  10.126
90155SOL    HW172297  11.699  11.834  10.217
90155SOL    HW272298  11.811  11.814  10.117
90156SOL     OW72299   8.473  13.375   8.682
90156SOL    HW172300   8.401  13.312   8.674
90156SOL    HW272301   8.523  13.345   8.758
90157SOL     OW72302   3.357   8.372  13.708
90157SOL    HW172303   3.357   8.466  13.689
90157SOL    HW272304   3.273   8.341  13.674
90158SOL     OW72305  11.031  13.018  12.763
90158SOL    HW172306  11.102  13.047  12.706
90158SOL    HW272307  11.069  13.014  12.851
90159SOL     OW72308   4.596   4.450   2.291
90159SOL    HW172309   4.580   4.512   2.220
90159SOL    HW272310   4.686   4.421   2.278
90160SOL     OW72311   9.499   8.289   3.530
90160SOL    HW172312   9.577   8.234   3.526
90160SOL    HW272313   9.447   8.253   3.601
90161SOL     OW72314   8.202   8.709  14.678
90161SOL    HW172315   8.294   8.689  14.659
90161SOL    HW272316   8.199   8.804  14.687
90162SOL     OW72317   3.987  11.236   3.712
90162SOL    HW172318   3.972  11.251   3.806
90162SOL    HW272319   4.056  11.298   3.689
90163SOL     OW72320   4.850  12.937   2.969
90163SOL    HW172321   4.933  12.938   2.922
90163SOL    HW272322   4.869  12.980   3.052
90164SOL     OW72323   7.849   2.932   3.483
90164SOL    HW172324   7.756   2.935   3.457
90164SOL    HW272325   7.876   3.023   3.485
90165SOL     OW72326  13.279  11.891   3.279
90165SOL    HW172327  13.223  11.909   3.203
90165SOL    HW272328  13.360  11.856   3.241
90166SOL     OW72329   1.367  11.276   2.059
90166SOL    HW172330   1.341  11.183   2.058
90166SOL    HW272331   1.287  11.323   2.035
90167SOL     OW72332   5.301   2.983   6.722
90167SOL    HW172333   5.286   3.054   6.660
90167SOL    HW272334   5.379   3.010   6.771
90168SOL     OW72335  14.752   0.221  11.140
90168SOL    HW172336  14.724   0.242  11.229
90168SOL    HW272337  14.699   0.146  11.115
90169SOL     OW72338   8.841  11.200  13.149
90169SOL    HW172339   8.907  11.232  13.211
90169SOL    HW272340   8.804  11.122  13.191
90170SOL     OW72341   5.229   6.181   5.971
90170SOL    HW172342   5.217   6.133   6.053
90170SOL    HW272343   5.258   6.268   5.998
90171SOL     OW72344  11.931  13.446  11.880
90171SOL    HW172345  11.930  13.537  11.851
90171SOL    HW272346  11.987  13.446  11.957
90172SOL     OW72347   8.805   9.405   3.901
90172SOL    HW172348   8.858   9.383   3.825
90172SOL    HW272349   8.718   9.425   3.865
90173SOL     OW72350  10.314   8.482   5.529
90173SOL    HW172351  10.343   8.395   5.556
90173SOL    HW272352  10.275   8.469   5.443
90174SOL     OW72353   9.153   4.517   4.452
90174SOL    HW172354   9.155   4.462   4.373
90174SOL    HW272355   9.062   4.514   4.481
90175SOL     OW72356   1.570   8.063  12.312
90175SOL    HW172357   1.568   8.092  12.221
90175SOL    HW272358   1.565   8.144  12.363
90176SOL     OW72359   8.417  14.393  13.995
90176SOL    HW172360   8.504  14.411  13.959
90176SOL    HW272361   8.393  14.308  13.961
90177SOL     OW72362  13.954   6.490  13.670
90177SOL    HW172363  13.964   6.529  13.583
90177SOL    HW272364  14.002   6.407  13.665
90178SOL     OW72365   3.441  10.744   1.225
90178SOL    HW172366   3.422  10.819   1.282
90178SOL    HW272367   3.369  10.743   1.162
90179SOL     OW72368   7.593   8.268   8.307
90179SOL    HW172369   7.605   8.180   8.343
90179SOL    HW272370   7.529   8.257   8.237
90180SOL     OW72371   1.117   6.501   0.010
90180SOL    HW172372   1.159   6.587   0.001
90180SOL    HW272373   1.084   6.481  14.795
90181SOL     OW72374  12.636   7.104   7.093
90181SOL    HW172375  12.553   7.135   7.131
90181SOL    HW272376  12.690   7.080   7.168
90182SOL     OW72377   6.222  11.633   1.515
90182SOL    HW172378   6.265  11.718   1.511
90182SOL    HW272379   6.294  11.571   1.533
90183SOL     OW72380  13.736   5.253   0.412
90183SOL    HW172381  13.727   5.175   0.467
90183SOL    HW272382  13.830   5.267   0.406
90184SOL     OW72383  13.684   8.504  13.078
90184SOL    HW172384  13.694   8.592  13.112
90184SOL    HW272385  13.764   8.459  13.105
90185SOL     OW72386   8.760   6.662   6.968
90185SOL    HW172387   8.765   6.655   7.063
90185SOL    HW272388   8.722   6.749   6.952
90186SOL     OW72389   3.387   9.809   6.683
90186SOL    HW172390   3.465   9.863   6.666
90186SOL    HW272391   3.373   9.762   6.601
90187SOL     OW72392   6.824   6.888  12.678
90187SOL    HW172393   6.768   6.811  12.668
90187SOL    HW272394   6.793   6.930  12.759
90188SOL     OW72395   5.161   9.470   9.398
90188SOL    HW172396   5.231   9.528   9.431
90188SOL    HW272397   5.208   9.400   9.353
90189SOL     OW72398   4.330  13.370  12.414
90189SOL    HW172399   4.243  13.405  12.431
90189SOL    HW272400   4.382  13.399  12.490
90190SOL     OW72401   7.092  13.587  12.663
90190SOL    HW172402   7.139  13.505  12.651
90190SOL    HW272403   7.157  13.655  12.644
90191SOL     OW72404  10.679   5.812   7.109
90191SOL    HW172405  10.611   5.766   7.158
90191SOL    HW272406  10.632   5.872   7.052
90192SOL     OW72407  13.557  12.543   7.537
90192SOL    HW172408  13.487  12.531   7.474
90192SOL    HW272409  13.543  12.631   7.572
90193SOL     OW72410   9.220  13.138  10.553
90193SOL    HW172411   9.199  13.228  10.578
90193SOL    HW272412   9.288  13.112  10.614
90194SOL     OW72413  11.269   4.049   2.824
90194SOL    HW172414  11.351   4.027   2.780
90194SOL    HW272415  11.291   4.124   2.879
90195SOL     OW72416  12.761   6.811   6.501
90195SOL    HW172417  12.696   6.748   6.534
90195SOL    HW272418  12.844   6.764   6.505
90196SOL     OW72419   1.270   6.415   8.299
90196SOL    HW172420   1.261   6.444   8.208
90196SOL    HW272421   1.195   6.357   8.313
90197SOL     OW72422   8.610  11.796   4.709
90197SOL    HW172423   8.531  11.742   4.715
90197SOL    HW272424   8.592  11.871   4.767
90198SOL     OW72425   7.029   4.566  12.209
90198SOL    HW172426   7.102   4.604  12.257
90198SOL    HW272427   6.965   4.542  12.276
90199SOL     OW72428  14.776   5.218   5.219
90199SOL    HW172429  14.686   5.210   5.187
90199SOL    HW272430  14.816   5.285   5.164
90200SOL     OW72431  14.245   8.867   4.453
90200SOL    HW172432  14.311   8.818   4.404
90200SOL    HW272433  14.213   8.932   4.391
90201SOL     OW72434  12.017   4.505  13.389
90201SOL    HW172435  12.003   4.459  13.471
90201SOL    HW272436  12.003   4.439  13.321
90202SOL     OW72437   5.252  10.763   6.930
90202SOL    HW172438   5.208  10.805   6.857
90202SOL    HW272439   5.275  10.835   6.989
90203SOL     OW72440   4.755   9.489  11.344
90203SOL    HW172441   4.688   9.458  11.282
90203SOL    HW272442   4.705   9.536  11.411
90204SOL     OW72443  11.186  10.351  11.119
90204SOL    HW172444  11.113  10.347  11.058
90204SOL    HW272445  11.255  10.299  11.078
90205SOL     OW72446  14.763   6.991   8.138
90205SOL    HW172447  14.722   7.067   8.099
90205SOL    HW272448  14.799   6.941   8.064
90206SOL     OW72449  11.996  11.319   8.991
90206SOL    HW172450  12.079  11.272   8.985
90206SOL    HW272451  11.982  11.333   9.084
90207SOL     OW72452   0.765   8.251   6.062
90207SOL    HW172453   0.839   8.192   6.082
90207SOL    HW272454   0.725   8.269   6.147
90208SOL     OW72455   1.643   4.064   2.752
90208SOL    HW172456   1.606   4.084   2.666
90208SOL    HW272457   1.568   4.070   2.812
90209SOL     OW72458  13.873  12.959  10.276
90209SOL    HW172459  13.811  13.028  10.301
90209SOL    HW272460  13.918  12.994  10.199
90210SOL     OW72461  12.437   3.733  14.538
90210SOL    HW172462  12.374   3.784  14.488
90210SOL    HW272463  12.519   3.781  14.529
90211SOL     OW72464  13.177   1.997  11.235
90211SOL    HW172465  13.123   1.962  11.305
90211SOL    HW272466  13.127   1.979  11.155
90212SOL     OW72467   7.075  12.462  12.437
90212SOL    HW172468   7.162  12.434  12.466
90212SOL    HW272469   7.049  12.530  12.499
90213SOL     OW72470   9.127  11.756  12.309
90213SOL    HW172471   9.156  11.665  12.318
90213SOL    HW272472   9.082  11.757  12.224
90214SOL     OW72473   9.358  11.674   0.335
90214SOL    HW172474   9.340  11.669   0.428
90214SOL    HW272475   9.291  11.733   0.300
90215SOL     OW72476   0.313  12.717   4.126
90215SOL    HW172477   0.229  12.689   4.163
90215SOL    HW272478   0.305  12.813   4.120
90216SOL     OW72479   9.478  14.490  12.803
90216SOL    HW172480   9.559  14.456  12.840
90216SOL    HW272481   9.446  14.552  12.869
90217SOL     OW72482   3.033   4.784   1.372
90217SOL    HW172483   2.960   4.844   1.384
90217SOL    HW272484   3.048   4.783   1.277
90218SOL     OW72485  10.044  11.008   7.083
90218SOL    HW172486  10.117  11.023   7.024
90218SOL    HW272487  10.020  10.917   7.068
90219SOL     OW72488   7.353   5.198  14.668
90219SOL    HW172489   7.438   5.236  14.689
90219SOL    HW272490   7.303   5.202  14.750
90220SOL     OW72491   3.285   2.350  11.876
90220SOL    HW172492   3.281   2.444  11.858
90220SOL    HW272493   3.360   2.340  11.934
90221SOL     OW72494   2.492  13.098   0.238
90221SOL    HW172495   2.545  13.019   0.234
90221SOL    HW272496   2.432  13.091   0.163
90222SOL     OW72497  12.746   8.449   6.279
90222SOL    HW172498  12.832   8.433   6.317
90222SOL    HW272499  12.685   8.432   6.351
90223SOL     OW72500   2.087  12.604  10.461
90223SOL    HW172501   2.131  12.685  10.488
90223SOL    HW272502   2.041  12.574  10.539
90224SOL     OW72503  11.467   6.352   4.640
90224SOL    HW172504  11.436   6.443   4.650
90224SOL    HW272505  11.469   6.318   4.729
90225SOL     OW72506   6.162   7.289  13.289
90225SOL    HW172507   6.108   7.349  13.238
90225SOL    HW272508   6.169   7.330  13.375
90226SOL     OW72509   5.970   1.386  14.297
90226SOL    HW172510   5.886   1.398  14.341
90226SOL    HW272511   6.036   1.402  14.365
90227SOL     OW72512   5.153  13.863   3.133
90227SOL    HW172513   5.176  13.869   3.040
90227SOL    HW272514   5.123  13.951   3.156
90228SOL     OW72515  13.649   6.430   9.425
90228SOL    HW172516  13.681   6.418   9.514
90228SOL    HW272517  13.633   6.524   9.417
90229SOL     OW72518   8.036   8.912   5.734
90229SOL    HW172519   8.016   8.883   5.823
90229SOL    HW272520   7.974   8.864   5.678
90230SOL     OW72521   8.344   3.204   4.001
90230SOL    HW172522   8.277   3.271   4.005
90230SOL    HW272523   8.418   3.240   4.050
90231SOL     OW72524  11.228   5.062   5.128
90231SOL    HW172525  11.236   5.150   5.162
90231SOL    HW272526  11.134   5.048   5.118
90232SOL     OW72527  14.034  14.030   2.155
90232SOL    HW172528  14.018  13.950   2.206
90232SOL    HW272529  14.128  14.044   2.162
90233SOL     OW72530  11.637   6.686   7.146
90233SOL    HW172531  11.724   6.663   7.114
90233SOL    HW272532  11.591   6.602   7.153
90234SOL     OW72533   0.981   0.130  11.075
90234SOL    HW172534   0.997   0.100  11.164
90234SOL    HW272535   0.933   0.212  11.085
90235SOL     OW72536   3.330   5.966   6.339
90235SOL    HW172537   3.422   5.943   6.352
90235SOL    HW272538   3.316   6.041   6.397
90236SOL     OW72539   9.109   5.246   9.172
90236SOL    HW172540   9.029   5.248   9.120
90236SOL    HW272541   9.179   5.267   9.109
90237SOL     OW72542   2.108   7.404  14.864
90237SOL    HW172543   2.041   7.438   0.051
90237SOL    HW272544   2.132   7.319   0.030
90238SOL     OW72545  12.991   9.051   6.435
90238SOL    HW172546  13.080   9.023   6.456
90238SOL    HW272547  12.973   9.122   6.497
90239SOL     OW72548  10.994   2.877   0.484
90239SOL    HW172549  11.072   2.871   0.428
90239SOL    HW272550  10.940   2.943   0.443
90240SOL     OW72551   1.741   2.312   5.182
90240SOL    HW172552   1.765   2.257   5.257
90240SOL    HW272553   1.736   2.251   5.108
90241SOL     OW72554   6.071  13.809   9.391
90241SOL    HW172555   6.004  13.827   9.457
90241SOL    HW272556   6.151  13.844   9.429
90242SOL     OW72557   2.988   8.090  11.579
90242SOL    HW172558   2.905   8.121  11.617
90242SOL    HW272559   3.035   8.170  11.556
90243SOL     OW72560   0.199  10.716  14.739
90243SOL    HW172561   0.125  10.718  14.799
90243SOL    HW272562   0.263  10.775  14.778
90244SOL     OW72563   5.958   8.180   9.022
90244SOL    HW172564   5.960   8.249   8.956
90244SOL    HW272565   6.042   8.134   9.012
90245SOL     OW72566   2.978   4.951   0.117
90245SOL    HW172567   3.033   4.958   0.039
90245SOL    HW272568   3.013   5.017   0.177
90246SOL     OW72569   7.806   8.425   4.270
90246SOL    HW172570   7.865   8.390   4.337
90246SOL    HW272571   7.847   8.403   4.187
90247SOL     OW72572   7.649   8.656  10.584
90247SOL    HW172573   7.744   8.650  10.596
90247SOL    HW272574   7.637   8.721  10.515
90248SOL     OW72575   6.196   6.893   9.500
90248SOL    HW172576   6.181   6.983   9.530
90248SOL    HW272577   6.253   6.855   9.567
90249SOL     OW72578   9.550  11.213  12.069
90249SOL    HW172579   9.522  11.225  12.160
90249SOL    HW272580   9.592  11.127  12.068
90250SOL     OW72581  14.216   4.333   3.031
90250SOL    HW172582  14.256   4.417   3.055
90250SOL    HW272583  14.198   4.291   3.115
90251SOL     OW72584   1.025   1.012   6.020
90251SOL    HW172585   0.949   0.987   6.073
90251SOL    HW272586   1.093   1.035   6.084
90252SOL     OW72587   1.375  13.449  12.131
90252SOL    HW172588   1.346  13.413  12.215
90252SOL    HW272589   1.469  13.432  12.129
90253SOL     OW72590  14.808   2.745   3.337
90253SOL    HW172591  14.809   2.803   3.261
90253SOL    HW272592   0.028   2.733   3.359
90254SOL     OW72593   2.834   5.163   9.883
90254SOL    HW172594   2.824   5.094   9.948
90254SOL    HW272595   2.773   5.231   9.911
90255SOL     OW72596   6.453   2.388   2.536
90255SOL    HW172597   6.485   2.464   2.585
90255SOL    HW272598   6.499   2.394   2.452
90256SOL     OW72599  10.744  11.570  13.946
90256SOL    HW172600  10.759  11.638  14.012
90256SOL    HW272601  10.688  11.506  13.990
90257SOL     OW72602  12.509   9.004   2.753
90257SOL    HW172603  12.572   9.065   2.713
90257SOL    HW272604  12.502   9.033   2.843
90258SOL     OW72605  10.015   4.515   3.793
90258SOL    HW172606  10.089   4.467   3.832
90258SOL    HW272607   9.999   4.587   3.854
90259SOL     OW72608   9.775   6.301   3.368
90259SOL    HW172609   9.803   6.242   3.439
90259SOL    HW272610   9.679   6.299   3.371
90260SOL     OW72611  12.479   3.000   8.134
90260SOL    HW172612  12.407   2.998   8.197
90260SOL    HW272613  12.547   3.052   8.178
90261SOL     OW72614   1.956  13.094  10.960
90261SOL    HW172615   2.019  13.054  11.020
90261SOL    HW272616   1.872  13.085  11.004
90262SOL     OW72617   9.906   8.663   6.726
90262SOL    HW172618   9.929   8.675   6.634
90262SOL    HW272619   9.840   8.594   6.726
90263SOL     OW72620  12.579  11.874   0.708
90263SOL    HW172621  12.535  11.940   0.654
90263SOL    HW272622  12.627  11.925   0.773
90264SOL     OW72623  10.158   1.783   8.107
90264SOL    HW172624  10.076   1.819   8.141
90264SOL    HW272625  10.169   1.700   8.152
90265SOL     OW72626   7.996  13.926  13.514
90265SOL    HW172627   8.078  13.880  13.496
90265SOL    HW272628   7.928  13.866  13.484
90266SOL     OW72629  13.051  10.728   7.224
90266SOL    HW172630  12.984  10.795   7.214
90266SOL    HW272631  13.032  10.687   7.309
90267SOL     OW72632  14.202   2.280   9.902
90267SOL    HW172633  14.146   2.349   9.866
90267SOL    HW272634  14.261   2.326   9.962
90268SOL     OW72635   8.678   0.667  10.696
90268SOL    HW172636   8.637   0.586  10.727
90268SOL    HW272637   8.737   0.639  10.626
90269SOL     OW72638   0.018  10.604   6.843
90269SOL    HW172639  14.809  10.652   6.857
90269SOL    HW272640   0.028  10.601   6.747
90270SOL     OW72641   1.799  13.096  10.691
90270SOL    HW172642   1.829  13.054  10.771
90270SOL    HW272643   1.866  13.161  10.671
90271SOL     OW72644   8.309  14.242   5.185
90271SOL    HW172645   8.305  14.288   5.269
90271SOL    HW272646   8.357  14.302   5.127
90272SOL     OW72647   5.867  12.468   7.281
90272SOL    HW172648   5.796  12.456   7.218
90272SOL    HW272649   5.895  12.379   7.303
90273SOL     OW72650   4.627   2.404  13.017
90273SOL    HW172651   4.549   2.376  13.064
90273SOL    HW272652   4.682   2.446  13.083
90274SOL     OW72653  13.943  10.391   9.910
90274SOL    HW172654  13.854  10.426   9.908
90274SOL    HW272655  13.994  10.453   9.857
90275SOL     OW72656   1.468  11.924  10.007
90275SOL    HW172657   1.547  11.974  10.026
90275SOL    HW272658   1.427  11.909  10.092
90276SOL     OW72659  10.554  13.195   8.651
90276SOL    HW172660  10.573  13.209   8.559
90276SOL    HW272661  10.473  13.243   8.668
90277SOL     OW72662  12.901   2.976   2.446
90277SOL    HW172663  12.867   2.941   2.364
90277SOL    HW272664  12.991   2.946   2.450
90278SOL     OW72665  11.951  13.395   5.958
90278SOL    HW172666  11.944  13.433   6.046
90278SOL    HW272667  11.997  13.312   5.971
90279SOL     OW72668   3.253   8.301   4.212
90279SOL    HW172669   3.172   8.344   4.239
90279SOL    HW272670   3.266   8.328   4.121
90280SOL     OW72671   9.256   2.167   1.482
90280SOL    HW172672   9.244   2.126   1.396
90280SOL    HW272673   9.283   2.257   1.462
90281SOL     OW72674   7.640   4.766   9.441
90281SOL    HW172675   7.693   4.843   9.462
90281SOL    HW272676   7.675   4.734   9.358
90282SOL     OW72677  12.129   9.996   2.060
90282SOL    HW172678  12.179   9.916   2.076
90282SOL    HW272679  12.194  10.066   2.067
90283SOL     OW72680   8.665   1.127   9.112
90283SOL    HW172681   8.584   1.124   9.164
90283SOL    HW272682   8.735   1.110   9.176
90284SOL     OW72683   7.843  11.046   8.252
90284SOL    HW172684   7.787  11.121   8.270
90284SOL    HW272685   7.817  10.980   8.316
90285SOL     OW72686   5.060  10.018  14.463
90285SOL    HW172687   5.148   9.982  14.476
90285SOL    HW272688   5.014  10.001  14.545
90286SOL     OW72689  13.167   0.463   8.553
90286SOL    HW172690  13.183   0.449   8.647
90286SOL    HW272691  13.156   0.558   8.544
90287SOL     OW72692  13.357   5.904   2.758
90287SOL    HW172693  13.303   5.833   2.723
90287SOL    HW272694  13.347   5.897   2.853
90288SOL     OW72695  14.169  13.907   5.143
90288SOL    HW172696  14.080  13.929   5.118
90288SOL    HW272697  14.224  13.954   5.080
90289SOL     OW72698  13.900   2.388   9.350
90289SOL    HW172699  13.844   2.403   9.273
90289SOL    HW272700  13.947   2.307   9.330
90290SOL     OW72701  12.957  14.015   0.575
90290SOL    HW172702  12.887  13.990   0.515
90290SOL    HW272703  13.028  13.954   0.555
90291SOL     OW72704   7.495  10.175   6.733
90291SOL    HW172705   7.506  10.084   6.703
90291SOL    HW272706   7.465  10.166   6.824
90292SOL     OW72707   1.804   9.647   0.486
90292SOL    HW172708   1.851   9.722   0.450
90292SOL    HW272709   1.813   9.578   0.420
90293SOL     OW72710  14.803   5.591   1.591
90293SOL    HW172711  14.712   5.619   1.579
90293SOL    HW272712  14.818   5.527   1.521
90294SOL     OW72713   1.463  13.448  11.319
90294SOL    HW172714   1.383  13.500  11.327
90294SOL    HW272715   1.508  13.486  11.243
90295SOL     OW72716   9.918   8.474  10.349
90295SOL    HW172717   9.909   8.436  10.261
90295SOL    HW272718   9.878   8.561  10.341
90296SOL     OW72719  12.323  10.410   7.051
90296SOL    HW172720  12.341  10.479   6.987
90296SOL    HW272721  12.350  10.447   7.135
90297SOL     OW72722   4.183  14.253   7.171
90297SOL    HW172723   4.121  14.231   7.102
90297SOL    HW272724   4.258  14.195   7.155
90298SOL     OW72725   2.287   3.321   6.862
90298SOL    HW172726   2.248   3.308   6.775
90298SOL    HW272727   2.215   3.308   6.923
90299SOL     OW72728   5.041   6.187   5.443
90299SOL    HW172729   4.978   6.124   5.407
90299SOL    HW272730   5.126   6.154   5.415
90300SOL     OW72731   5.191   3.879   9.621
90300SOL    HW172732   5.111   3.931   9.612
90300SOL    HW272733   5.185   3.811   9.554
90301SOL     OW72734  10.658  10.259  13.752
90301SOL    HW172735  10.719  10.193  13.719
90301SOL    HW272736  10.592  10.209  13.801
90302SOL     OW72737   9.543   2.696   6.757
90302SOL    HW172738   9.544   2.602   6.739
90302SOL    HW272739   9.604   2.707   6.830
90303SOL     OW72740   3.083  14.547   9.318
90303SOL    HW172741   3.092  14.605   9.243
90303SOL    HW272742   3.079  14.459   9.281
90304SOL     OW72743  10.915  10.052   1.213
90304SOL    HW172744  10.950  10.092   1.133
90304SOL    HW272745  10.926  10.120   1.280
90305SOL     OW72746   1.206   7.389   4.560
90305SOL    HW172747   1.162   7.378   4.476
90305SOL    HW272748   1.298   7.366   4.542
90306SOL     OW72749   2.822   7.537  12.880
90306SOL    HW172750   2.767   7.515  12.805
90306SOL    HW272751   2.911   7.513  12.853
90307SOL     OW72752   8.564   3.749  11.265
90307SOL    HW172753   8.470   3.736  11.281
90307SOL    HW272754   8.584   3.693  11.191
90308SOL     OW72755  13.673   1.606   4.436
90308SOL    HW172756  13.615   1.682   4.440
90308SOL    HW272757  13.742   1.625   4.500
90309SOL     OW72758   3.429  12.389  11.019
90309SOL    HW172759   3.516  12.349  11.018
90309SOL    HW272760   3.370  12.318  10.992
90310SOL     OW72761   9.656   4.610   6.899
90310SOL    HW172762   9.655   4.671   6.973
90310SOL    HW272763   9.728   4.551   6.916
90311SOL     OW72764   1.767   3.453   3.898
90311SOL    HW172765   1.746   3.525   3.957
90311SOL    HW272766   1.734   3.480   3.813
90312SOL     OW72767   2.712  12.681   8.530
90312SOL    HW172768   2.629  12.673   8.576
90312SOL    HW272769   2.708  12.767   8.487
90313SOL     OW72770   8.435  10.696   3.032
90313SOL    HW172771   8.380  10.726   2.960
90313SOL    HW272772   8.373  10.671   3.100
90314SOL     OW72773  10.027   1.179  13.235
90314SOL    HW172774  10.036   1.108  13.300
90314SOL    HW272775  10.075   1.252  13.273
90315SOL     OW72776  10.714   3.066   4.196
90315SOL    HW172777  10.703   3.161   4.205
90315SOL    HW272778  10.794   3.056   4.145
90316SOL     OW72779  12.336  10.677   8.205
90316SOL    HW172780  12.391  10.604   8.234
90316SOL    HW272781  12.281  10.641   8.136
90317SOL     OW72782   7.580   1.557   4.097
90317SOL    HW172783   7.569   1.648   4.124
90317SOL    HW272784   7.618   1.562   4.009
90318SOL     OW72785   6.053   8.880   0.808
90318SOL    HW172786   6.056   8.904   0.901
90318SOL    HW272787   6.117   8.938   0.766
90319SOL     OW72788  11.639  13.082   4.493
90319SOL    HW172789  11.549  13.108   4.512
90319SOL    HW272790  11.631  13.006   4.435
90320SOL     OW72791   0.014   5.177   4.216
90320SOL    HW172792   0.075   5.171   4.289
90320SOL    HW272793  14.799   5.174   4.256
90321SOL     OW72794   1.638   3.960   1.287
90321SOL    HW172795   1.655   4.037   1.232
90321SOL    HW272796   1.725   3.926   1.307
90322SOL     OW72797  14.445  12.692  13.566
90322SOL    HW172798  14.467  12.726  13.480
90322SOL    HW272799  14.496  12.612  13.575
90323SOL     OW72800  10.260   9.180   3.055
90323SOL    HW172801  10.314   9.259   3.059
90323SOL    HW272802  10.287   9.129   3.131
90324SOL     OW72803  10.671   1.636   1.358
90324SOL    HW172804  10.646   1.567   1.297
90324SOL    HW272805  10.702   1.707   1.303
90325SOL     OW72806   5.059  10.580   2.197
90325SOL    HW172807   5.073  10.639   2.123
90325SOL    HW272808   5.040  10.495   2.157
90326SOL     OW72809   5.655   2.661   0.290
90326SOL    HW172810   5.713   2.690   0.359
90326SOL    HW272811   5.587   2.728   0.286
90327SOL     OW72812   7.224   3.539   5.932
90327SOL    HW172813   7.140   3.492   5.926
90327SOL    HW272814   7.228   3.590   5.851
90328SOL     OW72815   7.516  10.071  12.355
90328SOL    HW172816   7.544  10.079  12.264
90328SOL    HW272817   7.583  10.118  12.405
90329SOL     OW72818   7.212  13.870  11.163
90329SOL    HW172819   7.166  13.952  11.184
90329SOL    HW272820   7.255  13.846  11.245
90330SOL     OW72821   9.477  13.324  14.478
90330SOL    HW172822   9.512  13.411  14.498
90330SOL    HW272823   9.394  13.341  14.435
90331SOL     OW72824   3.020   9.651   7.713
90331SOL    HW172825   3.006   9.647   7.618
90331SOL    HW272826   2.941   9.615   7.751
90332SOL     OW72827  14.244   6.249   0.345
90332SOL    HW172828  14.222   6.216   0.258
90332SOL    HW272829  14.338   6.267   0.341
90333SOL     OW72830   4.750   5.577  10.088
90333SOL    HW172831   4.788   5.593  10.175
90333SOL    HW272832   4.731   5.483  10.088
90334SOL     OW72833   7.683  14.688   1.816
90334SOL    HW172834   7.749  14.624   1.791
90334SOL    HW272835   7.725  14.773   1.802
90335SOL     OW72836   9.971  10.887  11.944
90335SOL    HW172837   9.958  10.802  11.986
90335SOL    HW272838  10.011  10.941  12.011
90336SOL     OW72839   9.246   1.170   1.455
90336SOL    HW172840   9.301   1.221   1.395
90336SOL    HW272841   9.169   1.225   1.469
90337SOL     OW72842   8.008  14.148  13.836
90337SOL    HW172843   8.033  14.057  13.850
90337SOL    HW272844   7.992  14.155  13.742
90338SOL     OW72845  12.933   7.540   6.520
90338SOL    HW172846  12.902   7.594   6.592
90338SOL    HW272847  12.854   7.521   6.468
90339SOL     OW72848   8.761   4.735   5.368
90339SOL    HW172849   8.770   4.787   5.448
90339SOL    HW272850   8.793   4.793   5.299
90340SOL     OW72851   1.660   1.227   3.196
90340SOL    HW172852   1.750   1.195   3.199
90340SOL    HW272853   1.656   1.295   3.264
90341SOL     OW72854   8.512  11.322   4.736
90341SOL    HW172855   8.430  11.346   4.780
90341SOL    HW272856   8.525  11.231   4.760
90342SOL     OW72857   9.816  10.816   0.405
90342SOL    HW172858   9.742  10.800   0.463
90342SOL    HW272859   9.781  10.874   0.337
90343SOL     OW72860  14.315   3.987   5.866
90343SOL    HW172861  14.331   4.081   5.864
90343SOL    HW272862  14.306   3.966   5.959
90344SOL     OW72863   9.556  12.820   3.687
90344SOL    HW172864   9.649  12.841   3.673
90344SOL    HW272865   9.522  12.895   3.736
90345SOL     OW72866  12.793  13.060  13.177
90345SOL    HW172867  12.763  13.072  13.267
90345SOL    HW272868  12.814  13.148  13.147
90346SOL     OW72869  10.709  14.778   4.299
90346SOL    HW172870  10.668  14.854   4.257
90346SOL    HW272871  10.803  14.795   4.293
90347SOL     OW72872  11.848   3.626   5.165
90347SOL    HW172873  11.890   3.566   5.104
90347SOL    HW272874  11.900   3.706   5.160
90348SOL     OW72875   9.296  12.531  13.824
90348SOL    HW172876   9.259  12.463  13.769
90348SOL    HW272877   9.226  12.595  13.836
90349SOL     OW72878   3.961  10.762   5.558
90349SOL    HW172879   3.928  10.833   5.613
90349SOL    HW272880   4.044  10.795   5.523
90350SOL     OW72881  11.020   3.558   1.244
90350SOL    HW172882  11.039   3.580   1.153
90350SOL    HW272883  11.039   3.638   1.293
90351SOL     OW72884   5.254  10.397   0.061
90351SOL    HW172885   5.297  10.453  14.869
90351SOL    HW272886   5.175  10.365   0.015
90352SOL     OW72887   6.394   0.835  14.718
90352SOL    HW172888   6.323   0.897  14.697
90352SOL    HW272889   6.473   0.879  14.686
90353SOL     OW72890   3.912   4.241   2.887
90353SOL    HW172891   3.851   4.228   2.960
90353SOL    HW272892   3.862   4.215   2.809
90354SOL     OW72893   5.288  13.596   8.012
90354SOL    HW172894   5.374  13.614   7.975
90354SOL    HW272895   5.306  13.568   8.102
90355SOL     OW72896  10.746  14.196   4.853
90355SOL    HW172897  10.673  14.258   4.865
90355SOL    HW272898  10.750  14.183   4.758
90356SOL     OW72899  11.189  11.174   8.766
90356SOL    HW172900  11.241  11.230   8.824
90356SOL    HW272901  11.254  11.120   8.721
90357SOL     OW72902  13.085   7.658  10.283
90357SOL    HW172903  13.047   7.658  10.195
90357SOL    HW272904  13.010   7.663  10.341
90358SOL     OW72905   5.651   0.807   9.395
90358SOL    HW172906   5.572   0.832   9.348
90358SOL    HW272907   5.723   0.840   9.341
90359SOL     OW72908   7.895  11.628   8.658
90359SOL    HW172909   7.933  11.587   8.736
90359SOL    HW272910   7.962  11.688   8.627
90360SOL     OW72911   9.475  14.408   5.738
90360SOL    HW172912   9.540  14.338   5.731
90360SOL    HW272913   9.509  14.478   5.683
90361SOL     OW72914   4.253   8.279   4.218
90361SOL    HW172915   4.207   8.195   4.216
90361SOL    HW272916   4.253   8.304   4.311
90362SOL     OW72917  12.608  10.857   9.576
90362SOL    HW172918  12.576  10.777   9.619
90362SOL    HW272919  12.690  10.877   9.621
90363SOL     OW72920   3.845   8.399  14.042
90363SOL    HW172921   3.904   8.367  14.111
90363SOL    HW272922   3.887   8.479  14.011
90364SOL     OW72923   0.132   5.216   4.505
90364SOL    HW172924   0.158   5.275   4.575
90364SOL    HW272925   0.069   5.157   4.545
90365SOL     OW72926   8.015  10.167   6.395
90365SOL    HW172927   8.012  10.160   6.491
90365SOL    HW272928   8.059  10.086   6.367
90366SOL     OW72929   1.839  13.694   3.469
90366SOL    HW172930   1.933  13.714   3.478
90366SOL    HW272931   1.808  13.684   3.559
90367SOL     OW72932   4.942  10.078  12.284
90367SOL    HW172933   5.030  10.062  12.316
90367SOL    HW272934   4.905   9.990  12.272
90368SOL     OW72935   2.713   3.566   4.835
90368SOL    HW172936   2.643   3.626   4.810
90368SOL    HW272937   2.739   3.594   4.923
90369SOL     OW72938  11.359   8.797  11.303
90369SOL    HW172939  11.275   8.801  11.348
90369SOL    HW272940  11.350   8.725  11.241
90370SOL     OW72941  13.288  13.599  11.270
90370SOL    HW172942  13.230  13.673  11.250
90370SOL    HW272943  13.364  13.612  11.212
90371SOL     OW72944   9.811   2.426  11.063
90371SOL    HW172945   9.769   2.340  11.068
90371SOL    HW272946   9.739   2.489  11.067
90372SOL     OW72947   5.135  10.502  13.523
90372SOL    HW172948   5.094  10.579  13.562
90372SOL    HW272949   5.062  10.443  13.505
90373SOL     OW72950  13.550   0.402   4.939
90373SOL    HW172951  13.569   0.492   4.911
90373SOL    HW272952  13.464   0.383   4.902
90374SOL     OW72953   9.972  14.246   4.002
90374SOL    HW172954   9.960  14.294   4.084
90374SOL    HW272955   9.939  14.158   4.020
90375SOL     OW72956   2.773   7.078   5.335
90375SOL    HW172957   2.681   7.106   5.327
90375SOL    HW272958   2.819   7.127   5.268
90376SOL     OW72959  10.391   6.806  11.811
90376SOL    HW172960  10.352   6.844  11.732
90376SOL    HW272961  10.416   6.717  11.786
90377SOL     OW72962   9.855   1.156   3.757
90377SOL    HW172963   9.781   1.162   3.697
90377SOL    HW272964   9.910   1.231   3.734
90378SOL     OW72965   4.334  11.246   1.313
90378SOL    HW172966   4.281  11.294   1.250
90378SOL    HW272967   4.328  11.296   1.394
90379SOL     OW72968   8.357   0.404  14.166
90379SOL    HW172969   8.281   0.346  14.173
90379SOL    HW272970   8.347   0.465  14.240
90380SOL     OW72971   4.038  14.728  11.291
90380SOL    HW172972   4.064  14.645  11.250
90380SOL    HW272973   3.965  14.704  11.348
90381SOL     OW72974   5.060  13.620   7.271
90381SOL    HW172975   4.994  13.630   7.201
90381SOL    HW272976   5.071  13.708   7.307
90382SOL     OW72977   2.309   8.755   4.645
90382SOL    HW172978   2.243   8.808   4.600
90382SOL    HW272979   2.262   8.719   4.721
90383SOL     OW72980   3.180   2.155   8.140
90383SOL    HW172981   3.143   2.100   8.209
90383SOL    HW272982   3.254   2.199   8.182
90384SOL     OW72983   0.384   8.915  12.270
90384SOL    HW172984   0.459   8.870  12.229
90384SOL    HW272985   0.318   8.846  12.280
90385SOL     OW72986   4.567   0.687   1.268
90385SOL    HW172987   4.595   0.694   1.176
90385SOL    HW272988   4.543   0.595   1.280
90386SOL     OW72989   7.452   6.578   6.470
90386SOL    HW172990   7.462   6.484   6.479
90386SOL    HW272991   7.372   6.589   6.419
90387SOL     OW72992   7.096   1.189  14.776
90387SOL    HW172993   7.039   1.166  14.703
90387SOL    HW272994   7.120   1.104  14.815
90388SOL     OW72995   5.835   1.327   9.195
90388SOL    HW172996   5.787   1.410   9.194
90388SOL    HW272997   5.922   1.350   9.164
90389SOL     OW72998   2.406   5.193   4.894
90389SOL    HW172999   2.342   5.122   4.888
90389SOL    HW273000   2.458   5.171   4.972
90390SOL     OW73001   1.013  13.317   2.058
90390SOL    HW173002   1.065  13.265   2.119
90390SOL    HW273003   1.032  13.280   1.972
90391SOL     OW73004  12.709   6.171  14.418
90391SOL    HW173005  12.747   6.084  14.431
90391SOL    HW273006  12.701   6.207  14.507
90392SOL     OW73007  12.654   2.424   3.688
90392SOL    HW173008  12.657   2.495   3.624
90392SOL    HW273009  12.730   2.438   3.744
90393SOL     OW73010   7.784   1.458   8.745
90393SOL    HW173011   7.809   1.410   8.666
90393SOL    HW273012   7.849   1.528   8.753
90394SOL     OW73013   2.366   6.339  13.753
90394SOL    HW173014   2.439   6.351  13.692
90394SOL    HW273015   2.294   6.388  13.715
90395SOL     OW73016  12.813   6.610   3.690
90395SOL    HW173017  12.845   6.698   3.674
90395SOL    HW273018  12.875   6.573   3.753
90396SOL     OW73019  13.648   8.570  12.681
90396SOL    HW173020  13.719   8.510  12.659
90396SOL    HW273021  13.577   8.547  12.621
90397SOL     OW73022   7.513   5.430   7.213
90397SOL    HW173023   7.461   5.351   7.206
90397SOL    HW273024   7.602   5.399   7.229
90398SOL     OW73025   0.684   5.877  12.798
90398SOL    HW173026   0.768   5.841  12.827
90398SOL    HW273027   0.646   5.916  12.876
90399SOL     OW73028   8.538  12.398   5.013
90399SOL    HW173029   8.539  12.467   4.946
90399SOL    HW273030   8.625  12.400   5.051
90400SOL     OW73031   6.652   6.629   5.912
90400SOL    HW173032   6.639   6.535   5.904
90400SOL    HW273033   6.746   6.642   5.900
90401SOL     OW73034   1.281   2.235  13.239
90401SOL    HW173035   1.189   2.234  13.262
90401SOL    HW273036   1.288   2.302  13.171
90402SOL     OW73037   6.058   4.513   5.245
90402SOL    HW173038   6.143   4.523   5.203
90402SOL    HW273039   6.020   4.435   5.204
90403SOL     OW73040   8.972   2.004   5.142
90403SOL    HW173041   8.994   2.096   5.125
90403SOL    HW273042   8.987   1.993   5.235
90404SOL     OW73043   1.646   9.213   2.318
90404SOL    HW173044   1.623   9.249   2.232
90404SOL    HW273045   1.586   9.257   2.379
90405SOL     OW73046   0.964  12.233   2.023
90405SOL    HW173047   0.907  12.180   1.967
90405SOL    HW273048   1.043  12.181   2.033
90406SOL     OW73049  13.435   4.209   2.492
90406SOL    HW173050  13.392   4.222   2.576
90406SOL    HW273051  13.419   4.117   2.471
90407SOL     OW73052  13.425   4.743   8.480
90407SOL    HW173053  13.513   4.751   8.443
90407SOL    HW273054  13.368   4.778   8.411
90408SOL     OW73055   6.819   3.470   7.172
90408SOL    HW173056   6.832   3.562   7.152
90408SOL    HW273057   6.876   3.453   7.247
90409SOL     OW73058   5.291  10.883  13.617
90409SOL    HW173059   5.289  10.794  13.652
90409SOL    HW273060   5.322  10.874  13.527
90410SOL     OW73061   5.400   9.349   0.493
90410SOL    HW173062   5.420   9.257   0.514
90410SOL    HW273063   5.438   9.399   0.565
90411SOL     OW73064   9.990   0.614   6.557
90411SOL    HW173065   9.963   0.706   6.559
90411SOL    HW273066   9.914   0.568   6.521
90412SOL     OW73067  12.962   1.413   1.397
90412SOL    HW173068  12.915   1.454   1.324
90412SOL    HW273069  13.019   1.348   1.355
90413SOL     OW73070  13.910   5.006  12.492
90413SOL    HW173071  13.883   5.073  12.429
90413SOL    HW273072  13.896   5.047  12.578
90414SOL     OW73073   2.406   4.790  14.228
90414SOL    HW173074   2.406   4.810  14.321
90414SOL    HW273075   2.429   4.872  14.185
90415SOL     OW73076   7.045   8.051   7.790
90415SOL    HW173077   7.083   8.124   7.743
90415SOL    HW273078   6.982   8.091   7.851
90416SOL     OW73079   4.331  11.934   8.557
90416SOL    HW173080   4.348  12.028   8.564
90416SOL    HW273081   4.277  11.913   8.632
90417SOL     OW73082   4.166  14.238  14.739
90417SOL    HW173083   4.252  14.277  14.724
90417SOL    HW273084   4.169  14.156  14.689
90418SOL     OW73085   8.013   7.204   5.753
90418SOL    HW173086   7.974   7.291   5.756
90418SOL    HW273087   8.085   7.213   5.690
90419SOL     OW73088  13.916   7.429   4.333
90419SOL    HW173089  13.891   7.415   4.241
90419SOL    HW273090  13.913   7.524   4.344
90420SOL     OW73091   3.144   7.886   5.198
90420SOL    HW173092   3.111   7.849   5.116
90420SOL    HW273093   3.187   7.812   5.242
90421SOL     OW73094  13.706   3.202   2.837
90421SOL    HW173095  13.701   3.125   2.893
90421SOL    HW273096  13.649   3.266   2.879
90422SOL     OW73097  12.588   8.220   1.990
90422SOL    HW173098  12.512   8.188   2.038
90422SOL    HW273099  12.581   8.178   1.904
90423SOL     OW73100  11.126   2.743   7.346
90423SOL    HW173101  11.222   2.742   7.348
90423SOL    HW273102  11.103   2.824   7.301
90424SOL     OW73103   1.512  10.809   8.297
90424SOL    HW173104   1.511  10.874   8.227
90424SOL    HW273105   1.484  10.728   8.255
90425SOL     OW73106  11.401   4.195   0.413
90425SOL    HW173107  11.337   4.231   0.474
90425SOL    HW273108  11.355   4.192   0.329
90426SOL     OW73109   7.726   7.350  14.567
90426SOL    HW173110   7.729   7.391  14.654
90426SOL    HW273111   7.770   7.266  14.578
90427SOL     OW73112   9.717   8.436   6.741
90427SOL    HW173113   9.755   8.359   6.698
90427SOL    HW273114   9.733   8.421   6.834
90428SOL     OW73115   6.958  12.346   5.806
90428SOL    HW173116   7.030  12.330   5.746
90428SOL    HW273117   6.971  12.283   5.877
90429SOL     OW73118   4.037  14.066   3.252
90429SOL    HW173119   4.057  14.099   3.164
90429SOL    HW273120   3.954  14.107   3.276
90430SOL     OW73121   4.730  11.380   1.605
90430SOL    HW173122   4.713  11.423   1.688
90430SOL    HW273123   4.825  11.370   1.601
90431SOL     OW73124   1.402   7.626   6.831
90431SOL    HW173125   1.329   7.627   6.892
90431SOL    HW273126   1.415   7.533   6.811
90432SOL     OW73127  13.392   9.577  10.790
90432SOL    HW173128  13.409   9.649  10.851
90432SOL    HW273129  13.311   9.602  10.745
90433SOL     OW73130   6.183   7.286   7.781
90433SOL    HW173131   6.174   7.200   7.822
90433SOL    HW273132   6.274   7.312   7.797
90434SOL     OW73133   0.559  12.764   7.518
90434SOL    HW173134   0.581  12.767   7.611
90434SOL    HW273135   0.492  12.696   7.511
90435SOL     OW73136   3.311   7.212   3.845
90435SOL    HW173137   3.385   7.192   3.902
90435SOL    HW273138   3.325   7.158   3.768
90436SOL     OW73139  12.320   4.421   9.223
90436SOL    HW173140  12.348   4.378   9.304
90436SOL    HW273141  12.239   4.467   9.247
90437SOL     OW73142  13.612  10.495  11.215
90437SOL    HW173143  13.624  10.409  11.257
90437SOL    HW273144  13.525  10.523  11.243
90438SOL     OW73145   1.726  12.175  11.937
90438SOL    HW173146   1.807  12.125  11.938
90438SOL    HW273147   1.662  12.120  11.981
90439SOL     OW73148   3.065   8.602  13.600
90439SOL    HW173149   3.056   8.670  13.667
90439SOL    HW273150   2.996   8.623  13.537
90440SOL     OW73151   4.020  14.567  13.415
90440SOL    HW173152   3.970  14.621  13.353
90440SOL    HW273153   3.959  14.498  13.441
90441SOL     OW73154  10.402  14.833  10.888
90441SOL    HW173155  10.409  14.789  10.972
90441SOL    HW273156  10.414   0.054  10.909
90442SOL     OW73157   9.820   1.295   3.411
90442SOL    HW173158   9.774   1.223   3.455
90442SOL    HW273159   9.767   1.373   3.432
90443SOL     OW73160   9.061  14.866  14.736
90443SOL    HW173161   9.124  14.825  14.795
90443SOL    HW273162   8.975  14.837  14.767
90444SOL     OW73163   3.550   5.670   3.655
90444SOL    HW173164   3.633   5.706   3.686
90444SOL    HW273165   3.526   5.726   3.581
90445SOL     OW73166   5.226  14.339   8.185
90445SOL    HW173167   5.157  14.298   8.133
90445SOL    HW273168   5.242  14.278   8.257
90446SOL     OW73169  11.400   7.320   5.898
90446SOL    HW173170  11.317   7.306   5.944
90446SOL    HW273171  11.374   7.362   5.816
90447SOL     OW73172   2.705   1.705   6.824
90447SOL    HW173173   2.771   1.766   6.792
90447SOL    HW273174   2.744   1.667   6.903
90448SOL     OW73175   6.661   3.644   1.752
90448SOL    HW173176   6.607   3.700   1.696
90448SOL    HW273177   6.680   3.567   1.699
90449SOL     OW73178  12.067  10.058   1.445
90449SOL    HW173179  12.146  10.005   1.449
90449SOL    HW273180  12.018  10.023   1.370
90450SOL     OW73181  12.289  11.065   3.135
90450SOL    HW173182  12.379  11.032   3.127
90450SOL    HW273183  12.298  11.160   3.136
90451SOL     OW73184   7.831  12.417   1.555
90451SOL    HW173185   7.844  12.328   1.589
90451SOL    HW273186   7.919  12.453   1.549
90452SOL     OW73187   7.158   8.830   5.057
90452SOL    HW173188   7.237   8.868   5.018
90452SOL    HW273189   7.161   8.737   5.034
90453SOL     OW73190   0.499  13.004  10.281
90453SOL    HW173191   0.429  13.063  10.309
90453SOL    HW273192   0.517  13.029  10.190
90454SOL     OW73193  12.422   7.318   1.714
90454SOL    HW173194  12.500   7.295   1.664
90454SOL    HW273195  12.379   7.385   1.661
90455SOL     OW73196  13.392   0.983   6.899
90455SOL    HW173197  13.452   1.031   6.843
90455SOL    HW273198  13.447   0.919   6.945
90456SOL     OW73199  11.486   9.247   7.247
90456SOL    HW173200  11.536   9.201   7.179
90456SOL    HW273201  11.402   9.201   7.249
90457SOL     OW73202  14.648   0.685   1.112
90457SOL    HW173203  14.628   0.622   1.181
90457SOL    HW273204  14.573   0.683   1.054
90458SOL     OW73205  14.819  12.766   1.058
90458SOL    HW173206   0.037  12.759   1.026
90458SOL    HW273207  14.772  12.810   0.987
90459SOL     OW73208  10.320  12.325   4.738
90459SOL    HW173209  10.331  12.373   4.656
90459SOL    HW273210  10.250  12.371   4.783
90460SOL     OW73211  13.662  13.357   5.991
90460SOL    HW173212  13.607  13.349   6.069
90460SOL    HW273213  13.748  13.325   6.020
90461SOL     OW73214   1.542   1.323  12.476
90461SOL    HW173215   1.459   1.360  12.508
90461SOL    HW273216   1.539   1.336  12.382
90462SOL     OW73217   4.412  13.367   4.551
90462SOL    HW173218   4.328  13.325   4.567
90462SOL    HW273219   4.393  13.438   4.489
90463SOL     OW73220  12.244   2.153   2.832
90463SOL    HW173221  12.173   2.210   2.861
90463SOL    HW273222  12.241   2.078   2.892
90464SOL     OW73223   0.235   2.291   9.627
90464SOL    HW173224   0.147   2.295   9.664
90464SOL    HW273225   0.291   2.333   9.692
90465SOL     OW73226  11.535   2.530  14.800
90465SOL    HW173227  11.527   2.625  14.793
90465SOL    HW273228  11.486   2.508   0.007
90466SOL     OW73229   7.177   3.870   2.975
90466SOL    HW173230   7.160   3.779   2.952
90466SOL    HW273231   7.180   3.871   3.070
90467SOL     OW73232  13.054  14.392   3.504
90467SOL    HW173233  13.052  14.325   3.435
90467SOL    HW273234  13.146  14.396   3.530
90468SOL     OW73235  10.490  11.205  14.340
90468SOL    HW173236  10.514  11.211  14.247
90468SOL    HW273237  10.533  11.281  14.380
90469SOL     OW73238  12.880  14.836  10.539
90469SOL    HW173239  12.839   0.030  10.595
90469SOL    HW273240  12.817  14.764  10.537
90470SOL     OW73241   6.541  14.733  12.221
90470SOL    HW173242   6.476  14.668  12.247
90470SOL    HW273243   6.521  14.809  12.276
90471SOL     OW73244   5.343   6.529  14.674
90471SOL    HW173245   5.358   6.582  14.752
90471SOL    HW273246   5.399   6.568  14.607
90472SOL     OW73247  12.079   5.730   4.159
90472SOL    HW173248  12.151   5.732   4.222
90472SOL    HW273249  12.017   5.795   4.192
90473SOL     OW73250  10.539   7.991   0.626
90473SOL    HW173251  10.594   8.059   0.665
90473SOL    HW273252  10.455   7.998   0.672
90474SOL     OW73253  14.662  11.385   0.083
90474SOL    HW173254  14.642  11.395  14.862
90474SOL    HW273255  14.578  11.360   0.123
90475SOL     OW73256   4.993   8.416   8.282
90475SOL    HW173257   4.937   8.489   8.254
90475SOL    HW273258   5.082   8.451   8.275
90476SOL     OW73259  13.377   7.986  10.243
90476SOL    HW173260  13.426   7.944  10.173
90476SOL    HW273261  13.444   8.011  10.308
90477SOL     OW73262   1.557   9.255  13.699
90477SOL    HW173263   1.584   9.347  13.696
90477SOL    HW273264   1.468   9.258  13.733
90478SOL     OW73265   9.697   3.777   3.970
90478SOL    HW173266   9.780   3.803   4.009
90478SOL    HW273267   9.632   3.832   4.014
90479SOL     OW73268   8.193   7.458  13.422
90479SOL    HW173269   8.177   7.373  13.464
90479SOL    HW273270   8.120   7.469  13.361
90480SOL     OW73271   0.812   8.902   0.195
90480SOL    HW173272   0.819   8.830   0.258
90480SOL    HW273273   0.858   8.870   0.117
90481SOL     OW73274   8.964   9.837   9.808
90481SOL    HW173275   8.911   9.889   9.869
90481SOL    HW273276   8.910   9.832   9.729
90482SOL     OW73277   7.065   6.040   0.103
90482SOL    HW173278   7.115   6.116   0.131
90482SOL    HW273279   6.994   6.076   0.050
90483SOL     OW73280   6.416   9.701   2.300
90483SOL    HW173281   6.360   9.656   2.237
90483SOL    HW273282   6.432   9.787   2.262
90484SOL     OW73283  14.718  14.140   9.326
90484SOL    HW173284  14.660  14.203   9.369
90484SOL    HW273285  14.805  14.180   9.334
90485SOL     OW73286  13.548   7.572   2.740
90485SOL    HW173287  13.555   7.493   2.687
90485SOL    HW273288  13.507   7.543   2.821
90486SOL     OW73289  11.715   5.282  13.387
90486SOL    HW173290  11.755   5.246  13.308
90486SOL    HW273291  11.681   5.367  13.359
90487SOL     OW73292   9.265   7.494   8.160
90487SOL    HW173293   9.197   7.427   8.158
90487SOL    HW273294   9.225   7.567   8.207
90488SOL     OW73295   7.849   5.570  11.976
90488SOL    HW173296   7.918   5.626  11.941
90488SOL    HW273297   7.896   5.505  12.028
90489SOL     OW73298   6.732  12.765   4.670
90489SOL    HW173299   6.659  12.825   4.684
90489SOL    HW273300   6.731  12.707   4.746
90490SOL     OW73301  14.260   3.596  10.521
90490SOL    HW173302  14.207   3.650  10.580
90490SOL    HW273303  14.350   3.615  10.546
90491SOL     OW73304   0.232  10.530   4.405
90491SOL    HW173305   0.166  10.543   4.338
90491SOL    HW273306   0.189  10.475   4.471
90492SOL     OW73307   7.061   9.931   9.962
90492SOL    HW173308   7.031   9.913   9.872
90492SOL    HW273309   7.156   9.933   9.955
90493SOL     OW73310   9.503   2.439   8.807
90493SOL    HW173311   9.410   2.414   8.808
90493SOL    HW273312   9.526   2.439   8.714
90494SOL     OW73313   8.436   2.442   6.932
90494SOL    HW173314   8.420   2.484   7.017
90494SOL    HW273315   8.524   2.404   6.940
90495SOL     OW73316   0.797  13.103   4.576
90495SOL    HW173317   0.807  13.193   4.546
90495SOL    HW273318   0.711  13.076   4.545
90496SOL     OW73319   0.945   5.134   0.715
90496SOL    HW173320   0.850   5.134   0.727
90496SOL    HW273321   0.974   5.055   0.762
90497SOL     OW73322   6.380   7.272   6.493
90497SOL    HW173323   6.329   7.209   6.441
90497SOL    HW273324   6.349   7.358   6.464
90498SOL     OW73325  11.889  14.009   1.862
90498SOL    HW173326  11.799  14.037   1.877
90498SOL    HW273327  11.881  13.918   1.832
90499SOL     OW73328   7.185  11.444  12.282
90499SOL    HW173329   7.155  11.533  12.298
90499SOL    HW273330   7.140  11.391  12.347
90500SOL     OW73331   6.506   9.729  10.884
90500SOL    HW173332   6.430   9.676  10.859
90500SOL    HW273333   6.565   9.723  10.809
90501SOL     OW73334   7.502   1.799  14.810
90501SOL    HW173335   7.436   1.850  14.858
90501SOL    HW273336   7.468   1.710  14.808
90502SOL     OW73337  13.282   0.466   1.250
90502SOL    HW173338  13.256   0.376   1.270
90502SOL    HW273339  13.240   0.486   1.166
90503SOL     OW73340  11.418  12.807   1.512
90503SOL    HW173341  11.496  12.772   1.555
90503SOL    HW273342  11.346  12.753   1.545
90504SOL     OW73343   3.283  10.911   0.748
90504SOL    HW173344   3.373  10.941   0.766
90504SOL    HW273345   3.245  10.981   0.696
90505SOL     OW73346  12.742  10.089  10.179
90505SOL    HW173347  12.695  10.065  10.259
90505SOL    HW273348  12.674  10.119  10.119
90506SOL     OW73349   3.974   8.087   4.332
90506SOL    HW173350   4.028   8.024   4.285
90506SOL    HW273351   4.013   8.093   4.419
90507SOL     OW73352   7.708   6.708  13.330
90507SOL    HW173353   7.776   6.774  13.317
90507SOL    HW273354   7.756   6.629  13.354
90508SOL     OW73355   5.421   7.924   3.278
90508SOL    HW173356   5.428   8.018   3.296
90508SOL    HW273357   5.495   7.885   3.325
90509SOL     OW73358   6.795   4.675   4.735
90509SOL    HW173359   6.838   4.734   4.673
90509SOL    HW273360   6.742   4.618   4.680
90510SOL     OW73361  11.431  11.511  14.532
90510SOL    HW173362  11.381  11.459  14.469
90510SOL    HW273363  11.522  11.501  14.504
90511SOL     OW73364   8.842  10.716   9.016
90511SOL    HW173365   8.884  10.631   9.027
90511SOL    HW273366   8.896  10.776   9.067
90512SOL     OW73367   1.750   8.835  12.958
90512SOL    HW173368   1.814   8.794  13.016
90512SOL    HW273369   1.754   8.928  12.980
90513SOL     OW73370   9.811   3.407  13.917
90513SOL    HW173371   9.845   3.405  13.828
90513SOL    HW273372   9.717   3.420  13.906
90514SOL     OW73373  14.074   5.695  11.084
90514SOL    HW173374  14.009   5.631  11.053
90514SOL    HW273375  14.158   5.653  11.068
90515SOL     OW73376  10.114   7.422   4.181
90515SOL    HW173377  10.054   7.365   4.134
90515SOL    HW273378  10.200   7.400   4.145
90516SOL     OW73379   7.218   7.605   7.488
90516SOL    HW173380   7.171   7.669   7.541
90516SOL    HW273381   7.155   7.577   7.422
90517SOL     OW73382  13.589   5.973   4.275
90517SOL    HW173383  13.637   6.040   4.323
90517SOL    HW273384  13.627   5.974   4.187
90518SOL     OW73385   1.921   1.979   2.702
90518SOL    HW173386   1.955   2.060   2.664
90518SOL    HW273387   1.829   1.977   2.674
90519SOL     OW73388  11.838   0.528  12.813
90519SOL    HW173389  11.895   0.500  12.885
90519SOL    HW273390  11.820   0.620  12.832
90520SOL     OW73391  10.949  12.505  10.422
90520SOL    HW173392  10.992  12.461  10.496
90520SOL    HW273393  10.857  12.511  10.448
90521SOL     OW73394   6.429  13.004  13.887
90521SOL    HW173395   6.493  13.046  13.829
90521SOL    HW273396   6.464  13.020  13.975
90522SOL     OW73397   9.424  14.279   7.563
90522SOL    HW173398   9.366  14.247   7.494
90522SOL    HW273399   9.484  14.339   7.518
90523SOL     OW73400   5.596   1.571  14.495
90523SOL    HW173401   5.612   1.536  14.582
90523SOL    HW273402   5.502   1.591  14.495
90524SOL     OW73403   4.420   8.564  14.260
90524SOL    HW173404   4.367   8.517  14.325
90524SOL    HW273405   4.367   8.640  14.236
90525SOL     OW73406  11.734   5.139   2.445
90525SOL    HW173407  11.642   5.159   2.423
90525SOL    HW273408  11.783   5.168   2.368
90526SOL     OW73409   7.218  10.882   5.535
90526SOL    HW173410   7.257  10.915   5.454
90526SOL    HW273411   7.284  10.898   5.602
90527SOL     OW73412   4.061  10.755  11.051
90527SOL    HW173413   4.048  10.775  10.958
90527SOL    HW273414   4.142  10.704  11.054
90528SOL     OW73415   4.687   1.630  14.202
90528SOL    HW173416   4.724   1.715  14.177
90528SOL    HW273417   4.760   1.582  14.240
90529SOL     OW73418  14.422   6.598  11.539
90529SOL    HW173419  14.468   6.631  11.616
90529SOL    HW273420  14.354   6.664  11.522
90530SOL     OW73421   5.343   1.599   3.797
90530SOL    HW173422   5.389   1.645   3.867
90530SOL    HW273423   5.403   1.602   3.722
90531SOL     OW73424   7.031  10.389   6.968
90531SOL    HW173425   7.041  10.468   6.915
90531SOL    HW273426   7.063  10.415   7.055
90532SOL     OW73427   4.316  10.269   3.001
90532SOL    HW173428   4.248  10.332   2.975
90532SOL    HW273429   4.277  10.184   2.981
90533SOL     OW73430   0.185   0.137  11.132
90533SOL    HW173431   0.164   0.059  11.184
90533SOL    HW273432   0.100   0.172  11.107
90534SOL     OW73433  11.603  13.666  13.038
90534SOL    HW173434  11.641  13.591  13.082
90534SOL    HW273435  11.669  13.735  13.046
90535SOL     OW73436   3.603   5.536  13.909
90535SOL    HW173437   3.522   5.491  13.933
90535SOL    HW273438   3.576   5.602  13.845
90536SOL     OW73439   3.885   2.385   6.926
90536SOL    HW173440   3.869   2.453   6.992
90536SOL    HW273441   3.880   2.303   6.975
90537SOL     OW73442   0.233  12.603   6.374
90537SOL    HW173443   0.214  12.690   6.339
90537SOL    HW273444   0.310  12.615   6.429
90538SOL     OW73445  11.513   8.087   8.449
90538SOL    HW173446  11.440   8.074   8.509
90538SOL    HW273447  11.578   8.021   8.475
90539SOL     OW73448   2.783   6.779   3.822
90539SOL    HW173449   2.852   6.760   3.886
90539SOL    HW273450   2.722   6.836   3.869
90540SOL     OW73451   5.989   6.293   9.510
90540SOL    HW173452   6.060   6.354   9.490
90540SOL    HW273453   6.027   6.206   9.498
90541SOL     OW73454   3.445   7.869   1.803
90541SOL    HW173455   3.388   7.919   1.745
90541SOL    HW273456   3.446   7.780   1.766
90542SOL     OW73457   8.591  14.435   3.899
90542SOL    HW173458   8.566  14.412   3.989
90542SOL    HW273459   8.569  14.528   3.892
90543SOL     OW73460  14.507  14.155   3.279
90543SOL    HW173461  14.464  14.086   3.330
90543SOL    HW273462  14.475  14.143   3.189
90544SOL     OW73463   9.531  12.447  10.174
90544SOL    HW173464   9.605  12.493  10.135
90544SOL    HW273465   9.477  12.517  10.211
90545SOL     OW73466   0.823  11.525  14.578
90545SOL    HW173467   0.801  11.573  14.498
90545SOL    HW273468   0.910  11.558  14.603
90546SOL     OW73469   9.083  11.626  13.842
90546SOL    HW173470   9.178  11.633  13.844
90546SOL    HW273471   9.053  11.714  13.821
90547SOL     OW73472   6.276  11.952   4.406
90547SOL    HW173473   6.258  11.953   4.312
90547SOL    HW273474   6.329  12.031   4.421
90548SOL     OW73475   5.590   9.025   6.671
90548SOL    HW173476   5.519   9.062   6.724
90548SOL    HW273477   5.568   9.049   6.581
90549SOL     OW73478  11.624   4.165   1.937
90549SOL    HW173479  11.657   4.089   1.889
90549SOL    HW273480  11.695   4.229   1.932
90550SOL     OW73481  13.941   0.238  12.482
90550SOL    HW173482  13.883   0.203  12.550
90550SOL    HW273483  13.952   0.166  12.420
90551SOL     OW73484  10.703   4.949   7.685
90551SOL    HW173485  10.617   4.975   7.717
90551SOL    HW273486  10.685   4.893   7.609
90552SOL     OW73487  12.049  12.250   2.333
90552SOL    HW173488  12.125  12.308   2.335
90552SOL    HW273489  11.975  12.308   2.352
90553SOL     OW73490   9.886   0.132   2.962
90553SOL    HW173491   9.809   0.133   2.905
90553SOL    HW273492   9.959   0.111   2.902
90554SOL     OW73493   6.962   3.125   5.510
90554SOL    HW173494   7.038   3.184   5.507
90554SOL    HW273495   7.000   3.039   5.530
90555SOL     OW73496   8.954   4.664   4.772
90555SOL    HW173497   8.917   4.660   4.860
90555SOL    HW273498   8.890   4.618   4.717
90556SOL     OW73499   4.514   4.876  14.486
90556SOL    HW173500   4.598   4.900  14.447
90556SOL    HW273501   4.467   4.831  14.416
90557SOL     OW73502   6.628   5.002   2.211
90557SOL    HW173503   6.595   4.920   2.247
90557SOL    HW273504   6.666   5.048   2.287
90558SOL     OW73505  14.130   6.282  11.229
90558SOL    HW173506  14.056   6.291  11.169
90558SOL    HW273507  14.113   6.347  11.298
90559SOL     OW73508   4.693   4.621  10.263
90559SOL    HW173509   4.750   4.573  10.322
90559SOL    HW273510   4.665   4.556  10.198
90560SOL     OW73511   4.227   2.388   7.731
90560SOL    HW173512   4.286   2.350   7.666
90560SOL    HW273513   4.218   2.321   7.798
90561SOL     OW73514  10.123   4.260  13.706
90561SOL    HW173515  10.140   4.201  13.780
90561SOL    HW273516  10.199   4.318  13.705
90562SOL     OW73517  12.824   8.867   4.073
90562SOL    HW173518  12.857   8.792   4.122
90562SOL    HW273519  12.738   8.885   4.111
90563SOL     OW73520   3.049   0.581   3.038
90563SOL    HW173521   3.127   0.529   3.018
90563SOL    HW273522   2.978   0.536   2.993
90564SOL     OW73523   6.245  13.001  10.492
90564SOL    HW173524   6.157  13.003  10.529
90564SOL    HW273525   6.252  13.082  10.442
90565SOL     OW73526  14.168   2.456  12.523
90565SOL    HW173527  14.196   2.364  12.530
90565SOL    HW273528  14.073   2.453  12.530
90566SOL     OW73529   3.424   0.920   9.683
90566SOL    HW173530   3.457   0.979   9.615
90566SOL    HW273531   3.465   0.836   9.663
90567SOL     OW73532   4.865   1.925  13.693
90567SOL    HW173533   4.864   2.021  13.691
90567SOL    HW273534   4.875   1.904  13.786
90568SOL     OW73535   8.840   7.151  12.035
90568SOL    HW173536   8.879   7.110  11.957
90568SOL    HW273537   8.860   7.244  12.025
90569SOL     OW73538   5.937  12.505   5.228
90569SOL    HW173539   5.884  12.491   5.307
90569SOL    HW273540   5.875  12.541   5.164
90570SOL     OW73541   2.680   7.702   9.225
90570SOL    HW173542   2.594   7.710   9.184
90570SOL    HW273543   2.707   7.793   9.241
90571SOL     OW73544   6.614   5.983   9.156
90571SOL    HW173545   6.662   5.932   9.222
90571SOL    HW273546   6.572   6.053   9.206
90572SOL     OW73547   2.650  12.101   3.153
90572SOL    HW173548   2.620  12.062   3.071
90572SOL    HW273549   2.728  12.150   3.128
90573SOL     OW73550  12.400   1.309   8.216
90573SOL    HW173551  12.439   1.256   8.147
90573SOL    HW273552  12.307   1.285   8.215
90574SOL     OW73553   4.444   3.795   8.858
90574SOL    HW173554   4.358   3.835   8.869
90574SOL    HW273555   4.445   3.722   8.920
90575SOL     OW73556   9.821   0.212   8.450
90575SOL    HW173557   9.758   0.142   8.431
90575SOL    HW273558   9.901   0.185   8.406
90576SOL     OW73559  10.653  11.957   6.144
90576SOL    HW173560  10.623  11.952   6.053
90576SOL    HW273561  10.731  12.012   6.141
90577SOL     OW73562   9.080   3.967  13.294
90577SOL    HW173563   9.110   3.906  13.227
90577SOL    HW273564   8.984   3.956  13.295
90578SOL     OW73565   3.128   6.219   0.824
90578SOL    HW173566   3.041   6.242   0.855
90578SOL    HW273567   3.124   6.125   0.807
90579SOL     OW73568   6.583   5.932   0.846
90579SOL    HW173569   6.677   5.932   0.827
90579SOL    HW273570   6.545   5.990   0.780
90580SOL     OW73571   1.006  14.706   0.810
90580SOL    HW173572   0.914  14.680   0.819
90580SOL    HW273573   1.011  14.745   0.723
90581SOL     OW73574   3.584   3.597   4.715
90581SOL    HW173575   3.554   3.507   4.705
90581SOL    HW273576   3.526   3.634   4.782
90582SOL     OW73577   1.720   3.927   5.326
90582SOL    HW173578   1.706   3.870   5.251
90582SOL    HW273579   1.804   3.969   5.309
90583SOL     OW73580   0.668   3.390  13.806
90583SOL    HW173581   0.753   3.380  13.762
90583SOL    HW273582   0.679   3.468  13.861
90584SOL     OW73583   5.355   8.575   3.102
90584SOL    HW173584   5.369   8.566   3.007
90584SOL    HW273585   5.435   8.616   3.134
90585SOL     OW73586   9.999  10.126   7.781
90585SOL    HW173587   9.904  10.130   7.786
90585SOL    HW273588  10.018  10.117   7.687
90586SOL     OW73589   0.779   4.677  13.165
90586SOL    HW173590   0.816   4.604  13.114
90586SOL    HW273591   0.821   4.670  13.251
90587SOL     OW73592  14.837   7.147  11.045
90587SOL    HW173593  14.765   7.124  10.986
90587SOL    HW273594  14.865   7.063  11.083
90588SOL     OW73595   4.889   1.752  10.171
90588SOL    HW173596   4.826   1.681  10.159
90588SOL    HW273597   4.884   1.773  10.264
90589SOL     OW73598   3.937   3.993  11.891
90589SOL    HW173599   3.950   4.042  11.810
90589SOL    HW273600   3.852   4.023  11.924
90590SOL     OW73601   1.724  12.037   3.632
90590SOL    HW173602   1.807  12.000   3.663
90590SOL    HW273603   1.721  12.124   3.671
90591SOL     OW73604   1.836   3.032   1.274
90591SOL    HW173605   1.900   3.077   1.218
90591SOL    HW273606   1.755   3.081   1.262
90592SOL     OW73607   3.915   4.369  14.817
90592SOL    HW173608   3.884   4.279  14.819
90592SOL    HW273609   4.010   4.362  14.813
90593SOL     OW73610   8.484   5.138   3.227
90593SOL    HW173611   8.444   5.221   3.251
90593SOL    HW273612   8.576   5.148   3.250
90594SOL     OW73613   6.596  12.743   0.281
90594SOL    HW173614   6.557  12.670   0.234
90594SOL    HW273615   6.622  12.805   0.213
90595SOL     OW73616   6.453   0.729  13.722
90595SOL    HW173617   6.424   0.817  13.746
90595SOL    HW273618   6.484   0.690  13.804
90596SOL     OW73619  13.129   0.414   3.777
90596SOL    HW173620  13.091   0.343   3.829
90596SOL    HW273621  13.083   0.492   3.806
90597SOL     OW73622  12.293   2.952   2.412
90597SOL    HW173623  12.281   2.956   2.507
90597SOL    HW273624  12.338   2.869   2.398
90598SOL     OW73625   6.255   3.826  14.818
90598SOL    HW173626   6.290   3.739  14.801
90598SOL    HW273627   6.310   3.885  14.767
90599SOL     OW73628  13.445   9.869  13.462
90599SOL    HW173629  13.441   9.965  13.467
90599SOL    HW273630  13.533   9.851  13.429
90600SOL     OW73631  10.486  13.328   4.792
90600SOL    HW173632  10.407  13.382   4.784
90600SOL    HW273633  10.485  13.273   4.713
90601SOL     OW73634  13.667  10.894  13.773
90601SOL    HW173635  13.744  10.950  13.777
90601SOL    HW273636  13.645  10.889  13.680
90602SOL     OW73637   9.322  11.769   1.730
90602SOL    HW173638   9.368  11.836   1.781
90602SOL    HW273639   9.380  11.694   1.730
90603SOL     OW73640   6.881  14.320   8.455
90603SOL    HW173641   6.945  14.373   8.408
90603SOL    HW273642   6.806  14.314   8.395
90604SOL     OW73643   1.709   2.974   7.990
90604SOL    HW173644   1.681   2.942   7.905
90604SOL    HW273645   1.800   3.001   7.978
90605SOL     OW73646   9.570   6.307   5.781
90605SOL    HW173647   9.595   6.393   5.814
90605SOL    HW273648   9.643   6.250   5.805
90606SOL     OW73649   8.239   2.992   2.720
90606SOL    HW173650   8.246   3.070   2.774
90606SOL    HW273651   8.301   3.006   2.649
90607SOL     OW73652   2.045   0.750  12.954
90607SOL    HW173653   2.101   0.808  12.903
90607SOL    HW273654   1.957   0.762  12.917
90608SOL     OW73655  14.597   0.552  13.503
90608SOL    HW173656  14.681   0.515  13.530
90608SOL    HW273657  14.556   0.483  13.451
90609SOL     OW73658   2.430  14.284  11.868
90609SOL    HW173659   2.353  14.326  11.830
90609SOL    HW273660   2.484  14.260  11.792
90610SOL     OW73661  12.556   2.798   5.434
90610SOL    HW173662  12.579   2.790   5.527
90610SOL    HW273663  12.472   2.753   5.427
90611SOL     OW73664   9.047   0.868  14.457
90611SOL    HW173665   9.052   0.964  14.461
90611SOL    HW273666   8.955   0.848  14.474
90612SOL     OW73667  10.787  14.400   3.952
90612SOL    HW173668  10.750  14.485   3.927
90612SOL    HW273669  10.738  14.337   3.898
90613SOL     OW73670  13.325   5.124  13.940
90613SOL    HW173671  13.248   5.082  13.978
90613SOL    HW273672  13.307   5.127  13.846
90614SOL     OW73673   0.807   4.786   3.363
90614SOL    HW173674   0.870   4.777   3.291
90614SOL    HW273675   0.800   4.698   3.399
90615SOL     OW73676   4.087   1.672  13.541
90615SOL    HW173677   4.070   1.675  13.447
90615SOL    HW273678   4.180   1.650  13.546
90616SOL     OW73679   7.181  10.140   2.599
90616SOL    HW173680   7.097  10.145   2.643
90616SOL    HW273681   7.246  10.145   2.669
90617SOL     OW73682  14.676  11.813   4.194
90617SOL    HW173683  14.676  11.760   4.274
90617SOL    HW273684  14.732  11.764   4.134
90618SOL     OW73685   1.274   0.858   5.669
90618SOL    HW173686   1.199   0.910   5.640
90618SOL    HW273687   1.334   0.859   5.595
90619SOL     OW73688   1.386   7.244  13.430
90619SOL    HW173689   1.370   7.207  13.344
90619SOL    HW273690   1.477   7.275  13.427
90620SOL     OW73691   4.040   9.561   3.532
90620SOL    HW173692   4.093   9.524   3.603
90620SOL    HW273693   4.091   9.545   3.453
90621SOL     OW73694  11.724   3.740  11.578
90621SOL    HW173695  11.776   3.742  11.498
90621SOL    HW273696  11.764   3.670  11.630
90622SOL     OW73697  10.572   6.008   5.040
90622SOL    HW173698  10.577   6.093   5.084
90622SOL    HW273699  10.548   6.029   4.950
90623SOL     OW73700   2.322   9.829   4.503
90623SOL    HW173701   2.384   9.866   4.566
90623SOL    HW273702   2.280   9.904   4.463
90624SOL     OW73703   4.388  11.142   4.581
90624SOL    HW173704   4.362  11.053   4.561
90624SOL    HW273705   4.436  11.172   4.503
90625SOL     OW73706  11.318  14.423   4.239
90625SOL    HW173707  11.357  14.505   4.270
90625SOL    HW273708  11.228  14.425   4.271
90626SOL     OW73709  13.044  10.851   0.887
90626SOL    HW173710  13.098  10.928   0.869
90626SOL    HW273711  13.096  10.777   0.856
90627SOL     OW73712   6.324   1.746   7.371
90627SOL    HW173713   6.377   1.702   7.305
90627SOL    HW273714   6.265   1.678   7.404
90628SOL     OW73715   8.447   7.722   7.661
90628SOL    HW173716   8.512   7.791   7.650
90628SOL    HW273717   8.497   7.641   7.660
90629SOL     OW73718   8.814   8.481   3.088
90629SOL    HW173719   8.813   8.430   3.006
90629SOL    HW273720   8.750   8.437   3.144
90630SOL     OW73721   4.333  13.847  13.866
90630SOL    HW173722   4.332  13.769  13.810
90630SOL    HW273723   4.242  13.860  13.891
90631SOL     OW73724   6.809   0.326   3.987
90631SOL    HW173725   6.896   0.309   3.950
90631SOL    HW273726   6.802   0.421   3.986
90632SOL     OW73727   8.334   4.665   8.873
90632SOL    HW173728   8.285   4.586   8.896
90632SOL    HW273729   8.344   4.712   8.955
90633SOL     OW73730   4.918   1.352  14.192
90633SOL    HW173731   4.955   1.371  14.106
90633SOL    HW273732   4.826   1.332  14.175
90634SOL     OW73733  13.525   8.360   5.331
90634SOL    HW173734  13.539   8.448   5.367
90634SOL    HW273735  13.587   8.305   5.378
90635SOL     OW73736  14.771   2.307  14.632
90635SOL    HW173737  14.707   2.244  14.662
90635SOL    HW273738  14.732   2.392  14.651
90636SOL     OW73739   9.753  11.821   2.084
90636SOL    HW173740   9.745  11.786   2.173
90636SOL    HW273741   9.745  11.916   2.095
90637SOL     OW73742   7.427   3.158   1.100
90637SOL    HW173743   7.513   3.136   1.137
90637SOL    HW273744   7.397   3.233   1.152
90638SOL     OW73745  12.303  13.181   3.640
90638SOL    HW173746  12.211  13.203   3.655
90638SOL    HW273747  12.338  13.163   3.727
90639SOL     OW73748   0.774   3.096   6.734
90639SOL    HW173749   0.866   3.083   6.713
90639SOL    HW273750   0.770   3.184   6.771
90640SOL     OW73751   9.784   8.130   2.641
90640SOL    HW173752   9.736   8.076   2.578
90640SOL    HW273753   9.748   8.105   2.726
90641SOL     OW73754   0.668  11.928  12.755
90641SOL    HW173755   0.619  11.903  12.677
90641SOL    HW273756   0.600  11.956  12.818
90642SOL     OW73757   4.181  10.667   9.354
90642SOL    HW173758   4.092  10.648   9.325
90642SOL    HW273759   4.235  10.601   9.310
90643SOL     OW73760   8.517   7.502  12.558
90643SOL    HW173761   8.431   7.461  12.549
90643SOL    HW273762   8.501   7.595  12.543
90644SOL     OW73763   7.703   9.799   7.399
90644SOL    HW173764   7.763   9.797   7.473
90644SOL    HW273765   7.727   9.878   7.350
90645SOL     OW73766  10.872   0.676   7.999
90645SOL    HW173767  10.786   0.670   7.957
90645SOL    HW273768  10.901   0.585   8.006
90646SOL     OW73769   7.800   2.978   3.000
90646SOL    HW173770   7.718   2.999   2.956
90646SOL    HW273771   7.806   3.039   3.073
90647SOL     OW73772   8.913   1.019   6.813
90647SOL    HW173773   8.920   0.928   6.784
90647SOL    HW273774   8.848   1.057   6.755
90648SOL     OW73775  10.633  13.337  12.610
90648SOL    HW173776  10.713  13.294  12.642
90648SOL    HW273777  10.598  13.382  12.687
90649SOL     OW73778  14.815   7.480   3.946
90649SOL    HW173779  14.721   7.463   3.955
90649SOL    HW273780  14.846   7.414   3.885
90650SOL     OW73781  14.679   6.729  12.476
90650SOL    HW173782  14.760   6.716  12.426
90650SOL    HW273783  14.630   6.647  12.464
90651SOL     OW73784   0.729   3.128  10.258
90651SOL    HW173785   0.783   3.092  10.328
90651SOL    HW273786   0.640   3.122  10.291
90652SOL     OW73787   2.303   4.932   2.506
90652SOL    HW173788   2.263   4.976   2.431
90652SOL    HW273789   2.232   4.922   2.569
90653SOL     OW73790  12.841  13.127   5.095
90653SOL    HW173791  12.873  13.037   5.101
90653SOL    HW273792  12.902  13.171   5.036
90654SOL     OW73793   4.861  10.631   8.698
90654SOL    HW173794   4.847  10.638   8.792
90654SOL    HW273795   4.941  10.580   8.689
90655SOL     OW73796   9.442   4.678   1.449
90655SOL    HW173797   9.473   4.690   1.539
90655SOL    HW273798   9.513   4.714   1.395
90656SOL     OW73799   1.531   0.905   4.285
90656SOL    HW173800   1.625   0.887   4.283
90656SOL    HW273801   1.524   0.992   4.325
90657SOL     OW73802  14.732  11.241  10.559
90657SOL    HW173803  14.810  11.293  10.539
90657SOL    HW273804  14.714  11.258  10.652
90658SOL     OW73805   1.577   0.106   1.028
90658SOL    HW173806   1.485   0.127   1.013
90658SOL    HW273807   1.625   0.184   1.000
90659SOL     OW73808   4.116   7.994  10.985
90659SOL    HW173809   4.097   8.084  10.956
90659SOL    HW273810   4.211   7.992  10.996
90660SOL     OW73811   5.889  13.549   4.443
90660SOL    HW173812   5.855  13.598   4.518
90660SOL    HW273813   5.849  13.591   4.367
90661SOL     OW73814   7.239   2.866   5.165
90661SOL    HW173815   7.253   2.864   5.071
90661SOL    HW273816   7.180   2.940   5.179
90662SOL     OW73817  12.706   6.265   5.934
90662SOL    HW173818  12.727   6.350   5.897
90662SOL    HW273819  12.702   6.206   5.859
90663SOL     OW73820   3.838   8.172   2.649
90663SOL    HW173821   3.746   8.192   2.634
90663SOL    HW273822   3.849   8.082   2.619
90664SOL     OW73823  14.723   3.149  14.678
90664SOL    HW173824  14.762   3.224  14.724
90664SOL    HW273825  14.795   3.086  14.671
90665SOL     OW73826   1.024  14.408   2.969
90665SOL    HW173827   0.985  14.495   2.954
90665SOL    HW273828   1.111  14.415   2.930
90666SOL     OW73829   7.237   5.140   7.423
90666SOL    HW173830   7.198   5.225   7.404
90666SOL    HW273831   7.291   5.121   7.346
90667SOL     OW73832   4.404  13.255   3.905
90667SOL    HW173833   4.377  13.345   3.887
90667SOL    HW273834   4.435  13.257   3.995
90668SOL     OW73835   0.917   8.385   7.014
90668SOL    HW173836   0.849   8.368   7.080
90668SOL    HW273837   0.999   8.385   7.064
90669SOL     OW73838   3.535   6.065   3.513
90669SOL    HW173839   3.525   5.970   3.499
90669SOL    HW273840   3.501   6.105   3.433
90670SOL     OW73841   1.051  10.841   9.309
90670SOL    HW173842   1.096  10.879   9.233
90670SOL    HW273843   0.979  10.902   9.328
90671SOL     OW73844  12.574   5.794  12.803
90671SOL    HW173845  12.502   5.758  12.854
90671SOL    HW273846  12.628   5.718  12.780
90672SOL     OW73847   3.862   6.256   3.487
90672SOL    HW173848   3.942   6.305   3.505
90672SOL    HW273849   3.795   6.303   3.538
90673SOL     OW73850  13.402   7.550  14.566
90673SOL    HW173851  13.444   7.466  14.551
90673SOL    HW273852  13.474   7.613  14.572
90674SOL     OW73853   7.197   0.466  13.899
90674SOL    HW173854   7.155   0.428  13.976
90674SOL    HW273855   7.142   0.436  13.826
90675SOL     OW73856   1.538   6.088   7.093
90675SOL    HW173857   1.475   6.067   7.161
90675SOL    HW273858   1.530   6.182   7.080
90676SOL     OW73859   3.846  12.104  10.262
90676SOL    HW173860   3.928  12.074  10.223
90676SOL    HW273861   3.866  12.116  10.355
90677SOL     OW73862  13.132   7.083   9.009
90677SOL    HW173863  13.170   7.037   9.084
90677SOL    HW273864  13.183   7.164   9.003
90678SOL     OW73865  13.178  10.456   6.589
90678SOL    HW173866  13.267  10.431   6.614
90678SOL    HW273867  13.124  10.383   6.619
90679SOL     OW73868   0.078   1.237   2.760
90679SOL    HW173869   0.055   1.330   2.767
90679SOL    HW273870   0.076   1.220   2.666
90680SOL     OW73871   8.370  14.328  10.000
90680SOL    HW173872   8.309  14.400   9.981
90680SOL    HW273873   8.333  14.286  10.078
90681SOL     OW73874  13.104   3.728  13.774
90681SOL    HW173875  13.070   3.803  13.725
90681SOL    HW273876  13.060   3.652  13.735
90682SOL     OW73877   4.172   1.030   2.498
90682SOL    HW173878   4.196   0.963   2.433
90682SOL    HW273879   4.229   1.104   2.477
90683SOL     OW73880   0.004  13.043   1.405
90683SOL    HW173881  14.810  13.034   1.337
90683SOL    HW273882  14.831  13.021   1.487
90684SOL     OW73883  11.697  10.548   1.194
90684SOL    HW173884  11.725  10.493   1.267
90684SOL    HW273885  11.733  10.634   1.214
90685SOL     OW73886   4.693  13.662   6.334
90685SOL    HW173887   4.716  13.716   6.259
90685SOL    HW273888   4.605  13.692   6.359
90686SOL     OW73889   7.085   7.861   7.268
90686SOL    HW173890   7.168   7.899   7.297
90686SOL    HW273891   7.100   7.767   7.267
90687SOL     OW73892   6.427   4.150  13.377
90687SOL    HW173893   6.403   4.106  13.295
90687SOL    HW273894   6.501   4.099  13.411
90688SOL     OW73895  12.092   7.380   8.070
90688SOL    HW173896  12.106   7.385   7.976
90688SOL    HW273897  12.137   7.457   8.105
90689SOL     OW73898   0.134   8.896   9.149
90689SOL    HW173899   0.047   8.859   9.161
90689SOL    HW273900   0.158   8.929   9.236
90690SOL     OW73901  13.254   7.476  12.951
90690SOL    HW173902  13.174   7.439  12.988
90690SOL    HW273903  13.224   7.535  12.882
90691SOL     OW73904  10.820   1.364   2.761
90691SOL    HW173905  10.774   1.314   2.828
90691SOL    HW273906  10.767   1.443   2.749
90692SOL     OW73907   4.099   9.589   7.639
90692SOL    HW173908   4.026   9.526   7.633
90692SOL    HW273909   4.134   9.576   7.727
90693SOL     OW73910  14.551   5.254   2.254
90693SOL    HW173911  14.566   5.314   2.182
90693SOL    HW273912  14.579   5.302   2.332
90694SOL     OW73913   6.239   5.441  14.122
90694SOL    HW173914   6.318   5.395  14.151
90694SOL    HW273915   6.167   5.387  14.153
90695SOL     OW73916  14.605   4.593   4.484
90695SOL    HW173917  14.527   4.571   4.434
90695SOL    HW273918  14.678   4.578   4.423
90696SOL     OW73919   0.679   5.915   0.781
90696SOL    HW173920   0.755   5.970   0.800
90696SOL    HW273921   0.705   5.863   0.705
90697SOL     OW73922   4.404   5.482   9.412
90697SOL    HW173923   4.491   5.443   9.401
90697SOL    HW273924   4.357   5.421   9.468
90698SOL     OW73925   9.198  11.661  13.507
90698SOL    HW173926   9.106  11.663  13.532
90698SOL    HW273927   9.235  11.740  13.547
90699SOL     OW73928  14.233  12.772   5.746
90699SOL    HW173929  14.316  12.811   5.773
90699SOL    HW273930  14.256  12.683   5.717
90700SOL     OW73931   9.356   4.692   4.508
90700SOL    HW173932   9.335   4.682   4.601
90700SOL    HW273933   9.299   4.628   4.465
90701SOL     OW73934   3.444   2.525   6.423
90701SOL    HW173935   3.438   2.602   6.366
90701SOL    HW273936   3.458   2.561   6.511
90702SOL     OW73937  14.054   4.420   2.742
90702SOL    HW173938  14.066   4.515   2.734
90702SOL    HW273939  14.142   4.387   2.760
90703SOL     OW73940   5.096   0.306   5.836
90703SOL    HW173941   5.066   0.330   5.748
90703SOL    HW273942   5.190   0.323   5.835
90704SOL     OW73943   0.670  13.806   2.468
90704SOL    HW173944   0.672  13.710   2.477
90704SOL    HW273945   0.750  13.835   2.511
90705SOL     OW73946   8.867   4.548   0.119
90705SOL    HW173947   8.893   4.532   0.210
90705SOL    HW273948   8.785   4.500   0.109
90706SOL     OW73949   4.154   1.103  13.667
90706SOL    HW173950   4.112   1.039  13.610
90706SOL    HW273951   4.231   1.132  13.618
90707SOL     OW73952   2.551   3.924  13.683
90707SOL    HW173953   2.468   3.883  13.661
90707SOL    HW273954   2.575   3.885  13.767
90708SOL     OW73955  13.729  12.971  13.841
90708SOL    HW173956  13.724  13.018  13.758
90708SOL    HW273957  13.760  12.884  13.817
90709SOL     OW73958   2.015   3.536   2.165
90709SOL    HW173959   2.098   3.538   2.116
90709SOL    HW273960   1.962   3.471   2.119
90710SOL     OW73961  12.902  10.229   7.289
90710SOL    HW173962  12.977  10.211   7.232
90710SOL    HW273963  12.826  10.206   7.237
90711SOL     OW73964   9.314   5.321   9.342
90711SOL    HW173965   9.373   5.396   9.334
90711SOL    HW273966   9.251   5.332   9.271
90712SOL     OW73967  13.735   5.565  11.469
90712SOL    HW173968  13.812   5.508  11.475
90712SOL    HW273969  13.766   5.650  11.500
90713SOL     OW73970  12.517  10.717   4.277
90713SOL    HW173971  12.454  10.716   4.349
90713SOL    HW273972  12.517  10.807   4.246
90714SOL     OW73973  14.408  14.710  14.864
90714SOL    HW173974  14.430  14.647  14.794
90714SOL    HW273975  14.313  14.710  14.868
90715SOL     OW73976  12.869   4.201  13.198
90715SOL    HW173977  12.784   4.231  13.230
90715SOL    HW273978  12.902   4.144  13.267
90716SOL     OW73979   4.039   0.364  12.795
90716SOL    HW173980   4.100   0.318  12.854
90716SOL    HW273981   4.077   0.452  12.788
90717SOL     OW73982  14.242   3.655  13.579
90717SOL    HW173983  14.228   3.681  13.670
90717SOL    HW273984  14.159   3.616  13.552
90718SOL     OW73985  12.842   5.169   3.248
90718SOL    HW173986  12.767   5.200   3.298
90718SOL    HW273987  12.909   5.236   3.259
90719SOL     OW73988   7.597   6.571  11.491
90719SOL    HW173989   7.517   6.518  11.495
90719SOL    HW273990   7.600   6.604  11.401
90720SOL     OW73991   0.417   2.202   6.718
90720SOL    HW173992   0.478   2.133   6.692
90720SOL    HW273993   0.339   2.187   6.664
90721SOL     OW73994   8.908   5.476  13.572
90721SOL    HW173995   8.994   5.508  13.545
90721SOL    HW273996   8.850   5.552  13.563
90722SOL     OW73997   8.519  14.808   8.347
90722SOL    HW173998   8.454  14.840   8.409
90722SOL    HW273999   8.470  14.750   8.288
90723SOL     OW74000   1.734   0.947   0.375
90723SOL    HW174001   1.645   0.966   0.346
90723SOL    HW274002   1.736   0.851   0.384
90724SOL     OW74003   7.703   9.734   0.346
90724SOL    HW174004   7.640   9.668   0.318
90724SOL    HW274005   7.650   9.804   0.384
90725SOL     OW74006  12.235   8.391   4.016
90725SOL    HW174007  12.174   8.362   3.949
90725SOL    HW274008  12.312   8.336   4.003
90726SOL     OW74009   8.268   8.359  11.600
90726SOL    HW174010   8.300   8.419  11.533
90726SOL    HW274011   8.192   8.317  11.560
90727SOL     OW74012   8.205   4.462   9.899
90727SOL    HW174013   8.112   4.444   9.913
90727SOL    HW274014   8.244   4.454   9.986
90728SOL     OW74015  10.304   0.957   3.439
90728SOL    HW174016  10.371   1.018   3.468
90728SOL    HW274017  10.323   0.943   3.346
90729SOL     OW74018   4.986   9.191  13.302
90729SOL    HW174019   4.950   9.104  13.314
90729SOL    HW274020   4.959   9.216  13.213
90730SOL     OW74021   4.879  13.653   7.074
90730SOL    HW174022   4.828  13.582   7.033
90730SOL    HW274023   4.820  13.728   7.074
90731SOL     OW74024  13.306   5.396   6.648
90731SOL    HW174025  13.334   5.392   6.740
90731SOL    HW274026  13.245   5.470   6.645
90732SOL     OW74027  11.177   5.669   1.675
90732SOL    HW174028  11.230   5.677   1.596
90732SOL    HW274029  11.227   5.610   1.732
90733SOL     OW74030   4.724  12.645   0.431
90733SOL    HW174031   4.781  12.670   0.358
90733SOL    HW274032   4.737  12.714   0.497
90734SOL     OW74033  12.855   0.863   3.585
90734SOL    HW174034  12.900   0.947   3.577
90734SOL    HW274035  12.834   0.839   3.495
90735SOL     OW74036  12.223   3.328  10.080
90735SOL    HW174037  12.275   3.304  10.157
90735SOL    HW274038  12.184   3.246  10.050
90736SOL     OW74039  13.110  14.605   2.391
90736SOL    HW174040  13.106  14.677   2.453
90736SOL    HW274041  13.141  14.645   2.310
90737SOL     OW74042   2.792   2.313  10.752
90737SOL    HW174043   2.742   2.332  10.672
90737SOL    HW274044   2.831   2.397  10.777
90738SOL     OW74045  12.598   0.248  13.137
90738SOL    HW174046  12.634   0.169  13.175
90738SOL    HW274047  12.559   0.295  13.210
90739SOL     OW74048   9.923   9.438   6.866
90739SOL    HW174049   9.864   9.436   6.942
90739SOL    HW274050   9.865   9.450   6.791
90740SOL     OW74051   3.695   4.186   1.981
90740SOL    HW174052   3.656   4.222   1.902
90740SOL    HW274053   3.750   4.257   2.015
90741SOL     OW74054   8.277   2.287   9.859
90741SOL    HW174055   8.243   2.202   9.830
90741SOL    HW274056   8.372   2.275   9.861
90742SOL     OW74057   5.507   2.245   0.717
90742SOL    HW174058   5.552   2.245   0.802
90742SOL    HW274059   5.572   2.208   0.657
90743SOL     OW74060   7.607   6.965  11.540
90743SOL    HW174061   7.686   7.015  11.562
90743SOL    HW274062   7.614   6.885  11.592
90744SOL     OW74063  12.646   3.569   9.839
90744SOL    HW174064  12.708   3.637   9.811
90744SOL    HW274065  12.560   3.607   9.824
90745SOL     OW74066  13.793  13.726  14.860
90745SOL    HW174067  13.745  13.646  14.841
90745SOL    HW274068  13.833  13.752  14.777
90746SOL     OW74069  11.073  14.325   1.893
90746SOL    HW174070  11.113  14.369   1.818
90746SOL    HW274071  11.140  14.266   1.926
90747SOL     OW74072  11.629  14.012   7.059
90747SOL    HW174073  11.669  13.978   6.979
90747SOL    HW274074  11.536  13.994   7.049
90748SOL     OW74075   5.008   9.014   5.945
90748SOL    HW174076   4.917   9.021   5.915
90748SOL    HW274077   5.010   8.933   5.997
90749SOL     OW74078   6.095   9.139   0.238
90749SOL    HW174079   6.180   9.111   0.204
90749SOL    HW274080   6.059   9.195   0.169
90750SOL     OW74081  10.540   5.330   6.150
90750SOL    HW174082  10.541   5.382   6.070
90750SOL    HW274083  10.509   5.391   6.218
90751SOL     OW74084  12.959   0.621   2.629
90751SOL    HW174085  13.053   0.603   2.635
90751SOL    HW274086  12.940   0.674   2.706
90752SOL     OW74087  11.651   7.246   4.530
90752SOL    HW174088  11.617   7.192   4.601
90752SOL    HW274089  11.745   7.249   4.546
90753SOL     OW74090   3.638   6.262   1.418
90753SOL    HW174091   3.601   6.321   1.352
90753SOL    HW274092   3.730   6.253   1.394
90754SOL     OW74093   7.131   0.484  14.509
90754SOL    HW174094   7.123   0.480  14.604
90754SOL    HW274095   7.073   0.416  14.477
90755SOL     OW74096  10.403   6.587   6.192
90755SOL    HW174097  10.366   6.591   6.103
90755SOL    HW274098  10.496   6.609   6.180
90756SOL     OW74099   3.924   2.785   2.924
90756SOL    HW174100   3.840   2.803   2.967
90756SOL    HW274101   3.938   2.861   2.867
90757SOL     OW74102   3.637  12.154   4.262
90757SOL    HW174103   3.629  12.190   4.350
90757SOL    HW274104   3.617  12.061   4.273
90758SOL     OW74105   0.389   2.850  12.160
90758SOL    HW174106   0.304   2.862  12.118
90758SOL    HW274107   0.450   2.836  12.088
90759SOL     OW74108   5.022   4.759   0.492
90759SOL    HW174109   4.928   4.752   0.510
90759SOL    HW274110   5.027   4.810   0.411
90760SOL     OW74111  14.477  10.793   3.114
90760SOL    HW174112  14.425  10.847   3.054
90760SOL    HW274113  14.568  10.819   3.097
90761SOL     OW74114   9.295   7.260   7.511
90761SOL    HW174115   9.265   7.187   7.566
90761SOL    HW274116   9.215   7.307   7.488
90762SOL     OW74117   8.278   6.796   8.138
90762SOL    HW174118   8.292   6.779   8.231
90762SOL    HW274119   8.243   6.885   8.134
90763SOL     OW74120  10.176   2.586   9.232
90763SOL    HW174121  10.133   2.501   9.231
90763SOL    HW274122  10.244   2.578   9.299
90764SOL     OW74123   1.620  13.998   8.334
90764SOL    HW174124   1.668  14.080   8.346
90764SOL    HW274125   1.529  14.024   8.327
90765SOL     OW74126  11.316  11.293   6.731
90765SOL    HW174127  11.243  11.257   6.680
90765SOL    HW274128  11.276  11.325   6.812
90766SOL     OW74129   0.531  14.553  13.392
90766SOL    HW174130   0.557  14.486  13.328
90766SOL    HW274131   0.446  14.583  13.360
90767SOL     OW74132   9.813   6.567   3.422
90767SOL    HW174133   9.888   6.614   3.384
90767SOL    HW274134   9.824   6.477   3.392
90768SOL     OW74135   7.738  11.096  10.291
90768SOL    HW174136   7.693  11.114  10.374
90768SOL    HW274137   7.696  11.155  10.228
90769SOL     OW74138   1.054   5.584   4.229
90769SOL    HW174139   1.073   5.512   4.289
90769SOL    HW274140   1.019   5.541   4.151
90770SOL     OW74141   9.463  12.634   4.929
90770SOL    HW174142   9.472  12.637   5.024
90770SOL    HW274143   9.441  12.723   4.904
90771SOL     OW74144  13.247   9.993  10.716
90771SOL    HW174145  13.279   9.994  10.626
90771SOL    HW274146  13.156  10.022  10.710
90772SOL     OW74147  12.706   0.315  11.365
90772SOL    HW174148  12.715   0.252  11.436
90772SOL    HW274149  12.790   0.361  11.364
90773SOL     OW74150   0.044   2.091   1.853
90773SOL    HW174151   0.065   2.138   1.934
90773SOL    HW274152   0.116   2.113   1.793
90774SOL     OW74153  10.718   2.327   2.726
90774SOL    HW174154  10.764   2.248   2.698
90774SOL    HW274155  10.759   2.398   2.677
90775SOL     OW74156   1.597   1.512   9.674
90775SOL    HW174157   1.563   1.599   9.694
90775SOL    HW274158   1.554   1.455   9.737
90776SOL     OW74159   7.027  12.753  12.077
90776SOL    HW174160   6.934  12.746  12.099
90776SOL    HW274161   7.035  12.710  11.992
90777SOL     OW74162   7.065  11.853  14.734
90777SOL    HW174163   7.013  11.859  14.654
90777SOL    HW274164   7.140  11.911  14.718
90778SOL     OW74165   5.206   7.787  14.363
90778SOL    HW174166   5.286   7.756  14.406
90778SOL    HW274167   5.233   7.866  14.316
90779SOL     OW74168  13.202   1.910   8.862
90779SOL    HW174169  13.278   1.960   8.894
90779SOL    HW274170  13.239   1.847   8.801
90780SOL     OW74171   5.983   8.099  11.654
90780SOL    HW174172   6.008   8.108  11.562
90780SOL    HW274173   6.057   8.136  11.702
90781SOL     OW74174  12.821   1.597   9.465
90781SOL    HW174175  12.906   1.577   9.504
90781SOL    HW274176  12.823   1.555   9.379
90782SOL     OW74177   1.618  12.078   4.269
90782SOL    HW174178   1.650  12.129   4.194
90782SOL    HW274179   1.631  11.987   4.243
90783SOL     OW74180   9.217   4.479  11.412
90783SOL    HW174181   9.181   4.478  11.323
90783SOL    HW274182   9.301   4.433  11.404
90784SOL     OW74183   6.729   2.748  12.286
90784SOL    HW174184   6.817   2.758  12.250
90784SOL    HW274185   6.739   2.758  12.380
90785SOL     OW74186   6.260   9.376   5.473
90785SOL    HW174187   6.270   9.457   5.424
90785SOL    HW274188   6.172   9.346   5.452
90786SOL     OW74189   5.680   2.911   2.287
90786SOL    HW174190   5.652   2.936   2.375
90786SOL    HW274191   5.751   2.849   2.301
90787SOL     OW74192  14.857  13.880  10.485
90787SOL    HW174193   0.052  13.812  10.486
90787SOL    HW274194   0.004  13.931  10.406
90788SOL     OW74195   4.995   7.820   5.583
90788SOL    HW174196   5.079   7.786   5.551
90788SOL    HW274197   5.018   7.900   5.630
90789SOL     OW74198   5.562   8.895   5.377
90789SOL    HW174199   5.560   8.971   5.320
90789SOL    HW274200   5.519   8.825   5.327
90790SOL     OW74201   9.921   3.926   8.093
90790SOL    HW174202   9.943   3.841   8.131
90790SOL    HW274203   9.841   3.953   8.138
90791SOL     OW74204   1.769   1.884  12.015
90791SOL    HW174205   1.757   1.898  12.109
90791SOL    HW274206   1.829   1.810  12.009
90792SOL     OW74207   1.782  11.655   9.509
90792SOL    HW174208   1.752  11.667   9.599
90792SOL    HW274209   1.703  11.659   9.456
90793SOL     OW74210   1.062   9.734  13.788
90793SOL    HW174211   1.086   9.752  13.697
90793SOL    HW274212   0.970   9.711  13.785
90794SOL     OW74213   4.546   5.847   3.204
90794SOL    HW174214   4.500   5.922   3.166
90794SOL    HW274215   4.539   5.861   3.299
90795SOL     OW74216   8.066   3.356   6.702
90795SOL    HW174217   8.022   3.291   6.648
90795SOL    HW274218   8.159   3.347   6.680
90796SOL     OW74219  12.474  11.199   9.070
90796SOL    HW174220  12.537  11.232   9.006
90796SOL    HW274221  12.402  11.164   9.016
90797SOL     OW74222  11.446   1.728   4.694
90797SOL    HW174223  11.419   1.815   4.662
90797SOL    HW274224  11.364   1.681   4.707
90798SOL     OW74225  14.724  13.430   5.719
90798SOL    HW174226  14.748  13.344   5.686
90798SOL    HW274227  14.785  13.446   5.791
90799SOL     OW74228   7.070  13.861   3.126
90799SOL    HW174229   7.140  13.917   3.160
90799SOL    HW274230   7.112  13.776   3.112
90800SOL     OW74231   4.158   1.704  11.974
90800SOL    HW174232   4.236   1.702  12.029
90800SOL    HW274233   4.125   1.614  11.977
90801SOL     OW74234   0.037   2.062  14.151
90801SOL    HW174235   0.050   2.040  14.059
90801SOL    HW274236   0.084   1.993  14.199
90802SOL     OW74237   5.013   3.969  14.571
90802SOL    HW174238   5.078   3.913  14.528
90802SOL    HW274239   4.976   3.914  14.640
90803SOL     OW74240  10.979   6.332   0.385
90803SOL    HW174241  10.891   6.337   0.346
90803SOL    HW274242  11.037   6.317   0.311
90804SOL     OW74243   2.595   4.120   2.940
90804SOL    HW174244   2.609   4.214   2.948
90804SOL    HW274245   2.550   4.095   3.020
90805SOL     OW74246  14.464  10.592  10.569
90805SOL    HW174247  14.418  10.578  10.652
90805SOL    HW274248  14.445  10.512  10.518
90806SOL     OW74249   3.179  14.172  10.783
90806SOL    HW174250   3.151  14.191  10.693
90806SOL    HW274251   3.148  14.247  10.834
90807SOL     OW74252   6.117   8.756  11.300
90807SOL    HW174253   6.195   8.705  11.321
90807SOL    HW274254   6.140   8.802  11.219
90808SOL     OW74255   4.444   8.299  11.603
90808SOL    HW174256   4.361   8.270  11.641
90808SOL    HW274257   4.497   8.325  11.678
90809SOL     OW74258   9.689   1.347   1.341
90809SOL    HW174259   9.721   1.431   1.373
90809SOL    HW274260   9.750   1.322   1.273
90810SOL     OW74261  14.184  12.270  14.376
90810SOL    HW174262  14.263  12.294  14.327
90810SOL    HW274263  14.113  12.315  14.330
90811SOL     OW74264   6.379  14.325   4.672
90811SOL    HW174265   6.440  14.395   4.648
90811SOL    HW274266   6.410  14.248   4.624
90812SOL     OW74267   1.025   0.144  14.248
90812SOL    HW174268   0.975   0.083  14.194
90812SOL    HW274269   1.009   0.229  14.209
90813SOL     OW74270  14.864   8.425  10.840
90813SOL    HW174271  14.776   8.459  10.859
90813SOL    HW274272  14.872   8.434  10.745
90814SOL     OW74273   1.244   6.512  11.178
90814SOL    HW174274   1.162   6.480  11.216
90814SOL    HW274275   1.257   6.597  11.220
90815SOL     OW74276   2.479   6.736   3.697
90815SOL    HW174277   2.460   6.751   3.790
90815SOL    HW274278   2.403   6.689   3.664
90816SOL     OW74279   8.688  13.073   1.179
90816SOL    HW174280   8.782  13.059   1.184
90816SOL    HW274281   8.677  13.148   1.119
90817SOL     OW74282  14.415  11.212   3.751
90817SOL    HW174283  14.356  11.229   3.677
90817SOL    HW274284  14.358  11.206   3.827
90818SOL     OW74285  11.708  14.476   1.094
90818SOL    HW174286  11.630  14.490   1.040
90818SOL    HW274287  11.725  14.562   1.133
90819SOL     OW74288   8.506   1.828   8.828
90819SOL    HW174289   8.440   1.759   8.827
90819SOL    HW274290   8.456   1.908   8.808
90820SOL     OW74291   1.836  14.469  12.939
90820SOL    HW174292   1.826  14.499  13.029
90820SOL    HW274293   1.751  14.489  12.898
90821SOL     OW74294   5.184   3.709   9.438
90821SOL    HW174295   5.196   3.642   9.371
90821SOL    HW274296   5.208   3.791   9.394
90822SOL     OW74297  10.619  11.912   4.044
90822SOL    HW174298  10.639  11.927   3.952
90822SOL    HW274299  10.694  11.861   4.076
90823SOL     OW74300   3.665   6.042   3.239
90823SOL    HW174301   3.722   6.119   3.233
90823SOL    HW274302   3.634   6.029   3.150
90824SOL     OW74303   6.017   2.085   8.148
90824SOL    HW174304   6.026   2.120   8.237
90824SOL    HW274305   5.922   2.074   8.136
90825SOL     OW74306   3.143   3.976  13.171
90825SOL    HW174307   3.148   4.070  13.152
90825SOL    HW274308   3.072   3.967  13.235
90826SOL     OW74309   3.150  12.090   7.240
90826SOL    HW174310   3.227  12.033   7.247
90826SOL    HW274311   3.105  12.080   7.324
90827SOL     OW74312   4.130   7.412  10.516
90827SOL    HW174313   4.061   7.479  10.515
90827SOL    HW274314   4.162   7.409  10.426
90828SOL     OW74315  11.433   0.911   2.699
90828SOL    HW174316  11.518   0.886   2.735
90828SOL    HW274317  11.454   0.977   2.633
90829SOL     OW74318  10.802   4.758   3.144
90829SOL    HW174319  10.717   4.756   3.188
90829SOL    HW274320  10.860   4.709   3.202
90830SOL     OW74321   9.327   9.948  12.707
90830SOL    HW174322   9.402   9.998  12.677
90830SOL    HW274323   9.292   9.907  12.628
90831SOL     OW74324  13.165   9.218   2.369
90831SOL    HW174325  13.230   9.230   2.437
90831SOL    HW274326  13.214   9.191   2.292
90832SOL     OW74327  10.699  14.655   3.932
90832SOL    HW174328  10.691  14.661   3.837
90832SOL    HW274329  10.678  14.743   3.963
90833SOL     OW74330  11.951   2.893   3.487
90833SOL    HW174331  11.993   2.978   3.489
90833SOL    HW274332  12.021   2.831   3.510
90834SOL     OW74333  14.095  14.487   4.926
90834SOL    HW174334  14.094  14.546   4.851
90834SOL    HW274335  14.002  14.466   4.941
90835SOL     OW74336  14.291  12.501   9.181
90835SOL    HW174337  14.279  12.406   9.183
90835SOL    HW274338  14.254  12.532   9.263
90836SOL     OW74339   2.560  14.505  12.452
90836SOL    HW174340   2.577  14.478  12.542
90836SOL    HW274341   2.540  14.599  12.459
90837SOL     OW74342  12.940  13.950   7.142
90837SOL    HW174343  12.921  13.874   7.086
90837SOL    HW274344  13.035  13.959   7.138
90838SOL     OW74345   9.629   7.157  12.429
90838SOL    HW174346   9.614   7.068  12.396
90838SOL    HW274347   9.609   7.152  12.522
90839SOL     OW74348   8.062   1.456   9.348
90839SOL    HW174349   8.007   1.378   9.345
90839SOL    HW274350   8.141   1.428   9.394
90840SOL     OW74351   0.606   3.704   7.108
90840SOL    HW174352   0.649   3.766   7.050
90840SOL    HW274353   0.567   3.639   7.049
90841SOL     OW74354  13.919   4.620   0.233
90841SOL    HW174355  13.865   4.541   0.234
90841SOL    HW274356  13.994   4.598   0.289
90842SOL     OW74357  14.107  12.388   1.159
90842SOL    HW174358  14.145  12.449   1.096
90842SOL    HW274359  14.183  12.340   1.194
90843SOL     OW74360   7.391   9.481   6.410
90843SOL    HW174361   7.327   9.417   6.378
90843SOL    HW274362   7.389   9.470   6.505
90844SOL     OW74363  11.596  11.022   5.257
90844SOL    HW174364  11.692  11.022   5.263
90844SOL    HW274365  11.579  11.024   5.163
90845SOL     OW74366   2.495   8.690  14.299
90845SOL    HW174367   2.508   8.595  14.290
90845SOL    HW274368   2.570   8.729  14.254
90846SOL     OW74369   0.327   3.723   7.420
90846SOL    HW174370   0.264   3.791   7.441
90846SOL    HW274371   0.274   3.650   7.389
90847SOL     OW74372   4.628  12.067   5.304
90847SOL    HW174373   4.714  12.107   5.307
90847SOL    HW274374   4.620  12.020   5.387
90848SOL     OW74375   4.641  13.550   7.395
90848SOL    HW174376   4.668  13.474   7.345
90848SOL    HW274377   4.648  13.523   7.487
90849SOL     OW74378   4.680   9.635   1.935
90849SOL    HW174379   4.637   9.719   1.915
90849SOL    HW274380   4.691   9.637   2.030
90850SOL     OW74381   4.355   0.639   4.127
90850SOL    HW174382   4.305   0.668   4.051
90850SOL    HW274383   4.302   0.666   4.202
90851SOL     OW74384   2.166   4.190   4.698
90851SOL    HW174385   2.237   4.219   4.755
90851SOL    HW274386   2.088   4.235   4.732
90852SOL     OW74387  10.379   5.763   5.038
90852SOL    HW174388  10.383   5.745   5.131
90852SOL    HW274389  10.443   5.832   5.024
90853SOL     OW74390   0.189   8.489  13.940
90853SOL    HW174391   0.275   8.514  13.976
90853SOL    HW274392   0.142   8.572  13.930
90854SOL     OW74393   0.568   4.527   2.550
90854SOL    HW174394   0.636   4.533   2.617
90854SOL    HW274395   0.486   4.539   2.598
90855SOL     OW74396   3.637   2.414  10.086
90855SOL    HW174397   3.589   2.382  10.010
90855SOL    HW274398   3.679   2.494  10.056
90856SOL     OW74399  13.391   6.945   0.461
90856SOL    HW174400  13.362   7.032   0.434
90856SOL    HW274401  13.313   6.890   0.450
90857SOL     OW74402  12.509   3.399   5.862
90857SOL    HW174403  12.484   3.476   5.913
90857SOL    HW274404  12.429   3.370   5.820
90858SOL     OW74405  12.039   4.460   9.267
90858SOL    HW174406  12.030   4.527   9.199
90858SOL    HW274407  11.970   4.482   9.330
90859SOL     OW74408   4.623  13.524   7.658
90859SOL    HW174409   4.613  13.614   7.688
90859SOL    HW274410   4.599  13.470   7.734
90860SOL     OW74411  11.255   7.953  11.732
90860SOL    HW174412  11.264   7.861  11.708
90860SOL    HW274413  11.344   7.984  11.745
90861SOL     OW74414  13.292   6.158   9.673
90861SOL    HW174415  13.321   6.084   9.726
90861SOL    HW274416  13.200   6.171   9.699
90862SOL     OW74417   2.452  10.951  11.126
90862SOL    HW174418   2.431  11.003  11.203
90862SOL    HW274419   2.368  10.921  11.093
90863SOL     OW74420  10.053  12.946   4.925
90863SOL    HW174421  10.102  12.897   4.860
90863SOL    HW274422  10.005  12.880   4.974
90864SOL     OW74423   5.330   3.705  11.491
90864SOL    HW174424   5.348   3.621  11.532
90864SOL    HW274425   5.392   3.710  11.418
90865SOL     OW74426   2.500   8.011  13.819
90865SOL    HW174427   2.430   7.947  13.833
90865SOL    HW274428   2.556   7.971  13.752
90866SOL     OW74429  10.770   5.093   6.134
90866SOL    HW174430  10.691   5.047   6.105
90866SOL    HW274431  10.749   5.186   6.120
90867SOL     OW74432  12.760   1.723   4.855
90867SOL    HW174433  12.776   1.810   4.819
90867SOL    HW274434  12.836   1.706   4.911
90868SOL     OW74435  10.588   4.398  14.167
90868SOL    HW174436  10.672   4.365  14.198
90868SOL    HW274437  10.610   4.472  14.110
90869SOL     OW74438   9.995   8.153  13.490
90869SOL    HW174439  10.091   8.145  13.485
90869SOL    HW274440   9.963   8.079  13.437
90870SOL     OW74441  12.084  13.442   0.844
90870SOL    HW174442  12.169  13.483   0.861
90870SOL    HW274443  12.020  13.512   0.856
90871SOL     OW74444   6.268   4.912  10.730
90871SOL    HW174445   6.359   4.922  10.703
90871SOL    HW274446   6.268   4.835  10.788
90872SOL     OW74447   0.508   9.503   0.773
90872SOL    HW174448   0.603   9.504   0.759
90872SOL    HW274449   0.489   9.415   0.803
90873SOL     OW74450   1.078   7.590   9.787
90873SOL    HW174451   1.135   7.624   9.717
90873SOL    HW274452   1.114   7.627   9.867
90874SOL     OW74453   0.974   1.646   0.458
90874SOL    HW174454   0.979   1.737   0.490
90874SOL    HW274455   1.038   1.599   0.511
90875SOL     OW74456   0.269   9.560   4.270
90875SOL    HW174457   0.277   9.607   4.353
90875SOL    HW274458   0.261   9.628   4.203
90876SOL     OW74459   6.997   9.831   8.820
90876SOL    HW174460   7.060   9.865   8.756
90876SOL    HW274461   6.928   9.792   8.766
90877SOL     OW74462   1.267   4.495   8.192
90877SOL    HW174463   1.172   4.506   8.185
90877SOL    HW274464   1.278   4.432   8.263
90878SOL     OW74465   7.045  12.673  11.593
90878SOL    HW174466   6.965  12.699  11.548
90878SOL    HW274467   7.030  12.696  11.684
90879SOL     OW74468   9.404   8.539   0.872
90879SOL    HW174469   9.414   8.633   0.855
90879SOL    HW274470   9.491   8.511   0.900
90880SOL     OW74471   6.044   1.811   6.067
90880SOL    HW174472   6.137   1.806   6.048
90880SOL    HW274473   6.038   1.798   6.162
90881SOL     OW74474   1.316   6.913   4.501
90881SOL    HW174475   1.344   6.977   4.566
90881SOL    HW274476   1.223   6.932   4.487
90882SOL     OW74477   5.555  14.054   6.432
90882SOL    HW174478   5.519  14.023   6.515
90882SOL    HW274479   5.630  13.997   6.415
90883SOL     OW74480  11.431   0.831   6.336
90883SOL    HW174481  11.375   0.897   6.293
90883SOL    HW274482  11.516   0.842   6.295
90884SOL     OW74483   3.848  13.571   7.419
90884SOL    HW174484   3.903  13.505   7.461
90884SOL    HW274485   3.795  13.607   7.490
90885SOL     OW74486   3.858   9.761   7.070
90885SOL    HW174487   3.813   9.791   7.149
90885SOL    HW274488   3.917   9.693   7.101
90886SOL     OW74489   6.509  12.494   3.041
90886SOL    HW174490   6.558  12.419   3.072
90886SOL    HW274491   6.457  12.461   2.967
90887SOL     OW74492   5.747   0.124   3.605
90887SOL    HW174493   5.741   0.205   3.554
90887SOL    HW274494   5.663   0.081   3.593
90888SOL     OW74495   3.727  12.399   6.816
90888SOL    HW174496   3.797  12.346   6.854
90888SOL    HW274497   3.663  12.408   6.887
90889SOL     OW74498  11.885   8.774  11.345
90889SOL    HW174499  11.799   8.776  11.386
90889SOL    HW274500  11.902   8.681  11.329
90890SOL     OW74501   2.091  11.331   2.200
90890SOL    HW174502   2.153  11.259   2.210
90890SOL    HW274503   2.006  11.289   2.189
90891SOL     OW74504   9.691  12.961   4.904
90891SOL    HW174505   9.682  13.055   4.918
90891SOL    HW274506   9.601  12.929   4.895
90892SOL     OW74507  11.464  10.595  11.072
90892SOL    HW174508  11.461  10.566  10.981
90892SOL    HW274509  11.511  10.526  11.118
90893SOL     OW74510   0.970  12.553  11.297
90893SOL    HW174511   1.060  12.584  11.301
90893SOL    HW274512   0.941  12.574  11.208
90894SOL     OW74513   6.750   5.884   7.477
90894SOL    HW174514   6.696   5.876   7.555
90894SOL    HW274515   6.832   5.839   7.499
90895SOL     OW74516   5.251  14.602  13.296
90895SOL    HW174517   5.282  14.643  13.215
90895SOL    HW274518   5.222  14.675  13.350
90896SOL     OW74519   6.268   9.204   5.002
90896SOL    HW174520   6.193   9.143   5.003
90896SOL    HW274521   6.228   9.290   5.010
90897SOL     OW74522   1.462   9.442   3.071
90897SOL    HW174523   1.527   9.507   3.047
90897SOL    HW274524   1.394   9.450   3.004
90898SOL     OW74525   5.085  14.807   2.517
90898SOL    HW174526   5.013  14.771   2.465
90898SOL    HW274527   5.108   0.016   2.472
90899SOL     OW74528   0.090   1.579   7.804
90899SOL    HW174529   0.025   1.627   7.855
90899SOL    HW274530   0.092   1.624   7.719
90900SOL     OW74531   6.278   7.170   9.159
90900SOL    HW174532   6.272   7.163   9.064
90900SOL    HW274533   6.344   7.106   9.183
90901SOL     OW74534  10.522  12.189   7.804
90901SOL    HW174535  10.526  12.211   7.897
90901SOL    HW274536  10.519  12.274   7.760
90902SOL     OW74537  11.579  13.670   0.593
90902SOL    HW174538  11.569  13.752   0.643
90902SOL    HW274539  11.498  13.665   0.541
90903SOL     OW74540   6.617   4.265   0.373
90903SOL    HW174541   6.599   4.262   0.467
90903SOL    HW274542   6.556   4.202   0.335
90904SOL     OW74543   6.374   4.496   9.043
90904SOL    HW174544   6.368   4.587   9.014
90904SOL    HW274545   6.462   4.468   9.018
90905SOL     OW74546   5.363  12.410  14.272
90905SOL    HW174547   5.316  12.343  14.222
90905SOL    HW274548   5.373  12.483  14.211
90906SOL     OW74549   3.683   9.617   4.510
90906SOL    HW174550   3.667   9.653   4.597
90906SOL    HW274551   3.778   9.609   4.504
90907SOL     OW74552   8.645  13.834   6.577
90907SOL    HW174553   8.551  13.816   6.568
90907SOL    HW274554   8.650  13.899   6.647
90908SOL     OW74555   2.962  10.263  13.671
90908SOL    HW174556   2.874  10.293  13.695
90908SOL    HW274557   2.958  10.168  13.682
90909SOL     OW74558   8.931  11.530  10.043
90909SOL    HW174559   8.864  11.522   9.976
90909SOL    HW274560   8.884  11.523  10.126
90910SOL     OW74561   5.843   6.915  10.547
90910SOL    HW174562   5.807   6.827  10.544
90910SOL    HW274563   5.871   6.927  10.638
90911SOL     OW74564   9.395   2.208  13.099
90911SOL    HW174565   9.466   2.163  13.052
90911SOL    HW274566   9.315   2.181  13.054
90912SOL     OW74567   9.640   7.560   8.014
90912SOL    HW174568   9.555   7.603   8.004
90912SOL    HW274569   9.670   7.587   8.100
90913SOL     OW74570  14.086   6.101  14.243
90913SOL    HW174571  14.026   6.160  14.197
90913SOL    HW274572  14.102   6.030  14.181
90914SOL     OW74573  13.421   8.092   3.664
90914SOL    HW174574  13.345   8.137   3.626
90914SOL    HW274575  13.387   8.005   3.688
90915SOL     OW74576  13.904  10.512  11.374
90915SOL    HW174577  13.811  10.531  11.362
90915SOL    HW274578  13.909  10.465  11.457
90916SOL     OW74579   6.143   4.191   3.863
90916SOL    HW174580   6.169   4.243   3.786
90916SOL    HW274581   6.206   4.119   3.865
90917SOL     OW74582  13.137   6.826   0.413
90917SOL    HW174583  13.096   6.741   0.427
90917SOL    HW274584  13.064   6.889   0.415
90918SOL     OW74585   1.755  10.020   5.001
90918SOL    HW174586   1.780   9.932   4.972
90918SOL    HW274587   1.736  10.068   4.920
90919SOL     OW74588  12.363   5.596   0.448
90919SOL    HW174589  12.398   5.516   0.488
90919SOL    HW274590  12.434   5.628   0.393
90920SOL     OW74591   0.194   1.545   0.904
90920SOL    HW174592   0.258   1.531   0.834
90920SOL    HW274593   0.178   1.639   0.903
90921SOL     OW74594  12.560   0.782   1.503
90921SOL    HW174595  12.564   0.744   1.416
90921SOL    HW274596  12.482   0.838   1.501
90922SOL     OW74597   7.908   6.562   6.987
90922SOL    HW174598   7.961   6.482   6.993
90922SOL    HW274599   7.966   6.631   7.018
90923SOL     OW74600   3.605  11.255   5.890
90923SOL    HW174601   3.659  11.212   5.824
90923SOL    HW274602   3.584  11.341   5.853
90924SOL     OW74603   2.685   3.622   7.870
90924SOL    HW174604   2.609   3.615   7.928
90924SOL    HW274605   2.737   3.694   7.907
90925SOL     OW74606  11.799  10.411   4.745
90925SOL    HW174607  11.881  10.400   4.698
90925SOL    HW274608  11.745  10.465   4.687
90926SOL     OW74609  13.969  11.214  14.368
90926SOL    HW174610  14.043  11.166  14.331
90926SOL    HW274611  13.980  11.304  14.335
90927SOL     OW74612   9.662  10.720   3.643
90927SOL    HW174613   9.675  10.781   3.716
90927SOL    HW274614   9.710  10.641   3.670
90928SOL     OW74615   7.455   3.768  10.995
90928SOL    HW174616   7.462   3.739  11.086
90928SOL    HW274617   7.520   3.716  10.948
90929SOL     OW74618   3.608   3.960   2.066
90929SOL    HW174619   3.535   3.923   2.016
90929SOL    HW274620   3.632   4.039   2.018
90930SOL     OW74621   0.987   1.823   3.091
90930SOL    HW174622   1.069   1.802   3.136
90930SOL    HW274623   0.958   1.740   3.054
90931SOL     OW74624  12.379  10.898  10.500
90931SOL    HW174625  12.378  10.859  10.587
90931SOL    HW274626  12.319  10.972  10.506
90932SOL     OW74627  10.428   5.854  11.071
90932SOL    HW174628  10.485   5.889  11.002
90932SOL    HW274629  10.476   5.778  11.106
90933SOL     OW74630  11.488   8.879   5.170
90933SOL    HW174631  11.517   8.795   5.204
90933SOL    HW274632  11.559   8.907   5.112
90934SOL     OW74633  14.541   5.376   3.421
90934SOL    HW174634  14.560   5.314   3.491
90934SOL    HW274635  14.549   5.324   3.341
90935SOL     OW74636   0.476   5.994   8.008
90935SOL    HW174637   0.386   6.028   8.009
90935SOL    HW274638   0.499   5.993   7.915
90936SOL     OW74639  12.193  14.462  14.318
90936SOL    HW174640  12.225  14.388  14.267
90936SOL    HW274641  12.272  14.504  14.351
90937SOL     OW74642   5.366   5.551   0.213
90937SOL    HW174643   5.409   5.599   0.142
90937SOL    HW274644   5.272   5.561   0.195
90938SOL     OW74645   2.825  12.019   9.205
90938SOL    HW174646   2.882  11.949   9.173
90938SOL    HW274647   2.820  12.080   9.131
90939SOL     OW74648  12.421   9.847  12.647
90939SOL    HW174649  12.353   9.779  12.645
90939SOL    HW274650  12.479   9.820  12.717
90940SOL     OW74651   1.493   2.195  14.147
90940SOL    HW174652   1.520   2.144  14.071
90940SOL    HW274653   1.565   2.185  14.209
90941SOL     OW74654   3.743   3.142   2.029
90941SOL    HW174655   3.760   3.049   2.012
90941SOL    HW274656   3.814   3.188   1.984
90942SOL     OW74657   8.851   3.395   7.094
90942SOL    HW174658   8.847   3.385   6.999
90942SOL    HW274659   8.944   3.381   7.116
90943SOL     OW74660   5.941  14.261   6.589
90943SOL    HW174661   5.984  14.346   6.594
90943SOL    HW274662   5.891  14.254   6.670
90944SOL     OW74663   0.559   1.876   5.905
90944SOL    HW174664   0.631   1.897   5.965
90944SOL    HW274665   0.598   1.881   5.818
90945SOL     OW74666  13.635   2.768  14.596
90945SOL    HW174667  13.671   2.680  14.584
90945SOL    HW274668  13.541   2.755  14.609
90946SOL     OW74669   6.385  14.151   3.132
90946SOL    HW174670   6.426  14.228   3.170
90946SOL    HW274671   6.390  14.084   3.199
90947SOL     OW74672   4.804   7.743   5.405
90947SOL    HW174673   4.842   7.779   5.486
90947SOL    HW274674   4.877   7.744   5.343
90948SOL     OW74675  12.318   6.366   8.257
90948SOL    HW174676  12.362   6.445   8.226
90948SOL    HW274677  12.261   6.397   8.327
90949SOL     OW74678   2.056  11.825  11.428
90949SOL    HW174679   1.976  11.781  11.458
90949SOL    HW274680   2.085  11.772  11.354
90950SOL     OW74681   8.333   7.547   8.852
90950SOL    HW174682   8.360   7.638   8.868
90950SOL    HW274683   8.413   7.502   8.826
90951SOL     OW74684   4.398  13.054   3.295
90951SOL    HW174685   4.383  13.004   3.376
90951SOL    HW274686   4.414  13.143   3.324
90952SOL     OW74687   2.089   6.204   6.350
90952SOL    HW174688   2.176   6.229   6.320
90952SOL    HW274689   2.031   6.227   6.278
90953SOL     OW74690   7.270  13.144   6.177
90953SOL    HW174691   7.335  13.074   6.168
90953SOL    HW274692   7.210  13.131   6.104
90954SOL     OW74693  12.164  12.316   9.327
90954SOL    HW174694  12.160  12.306   9.232
90954SOL    HW274695  12.158  12.227   9.361
90955SOL     OW74696  13.229  13.380   7.657
90955SOL    HW174697  13.239  13.331   7.738
90955SOL    HW274698  13.145  13.424   7.666
90956SOL     OW74699  10.323   8.488   2.222
90956SOL    HW174700  10.232   8.458   2.215
90956SOL    HW274701  10.368   8.446   2.149
90957SOL     OW74702   8.739   7.262   8.679
90957SOL    HW174703   8.704   7.178   8.708
90957SOL    HW274704   8.688   7.327   8.727
90958SOL     OW74705   5.393   4.430  14.296
90958SOL    HW174706   5.410   4.376  14.373
90958SOL    HW274707   5.472   4.420  14.242
90959SOL     OW74708   9.984   4.634   8.688
90959SOL    HW174709   9.947   4.721   8.674
90959SOL    HW274710   9.996   4.598   8.600
90960SOL     OW74711   1.831   5.857  11.447
90960SOL    HW174712   1.777   5.913  11.503
90960SOL    HW274713   1.773   5.785  11.422
90961SOL     OW74714   6.816  12.915   4.294
90961SOL    HW174715   6.838  13.006   4.272
90961SOL    HW274716   6.894  12.882   4.338
90962SOL     OW74717  14.131   2.573  13.970
90962SOL    HW174718  14.124   2.524  14.052
90962SOL    HW274719  14.186   2.648  13.991
90963SOL     OW74720  10.191   0.425  11.255
90963SOL    HW174721  10.214   0.353  11.196
90963SOL    HW274722  10.099   0.443  11.235
90964SOL     OW74723  13.644   8.465   6.053
90964SOL    HW174724  13.683   8.379   6.036
90964SOL    HW274725  13.629   8.501   5.966
90965SOL     OW74726   2.772   4.258  13.697
90965SOL    HW174727   2.822   4.326  13.741
90965SOL    HW274728   2.685   4.295  13.687
90966SOL     OW74729  12.295   8.884  10.344
90966SOL    HW174730  12.325   8.880  10.435
90966SOL    HW274731  12.366   8.927  10.297
90967SOL     OW74732  13.751   7.653   5.825
90967SOL    HW174733  13.795   7.594   5.887
90967SOL    HW274734  13.740   7.600   5.746
90968SOL     OW74735   5.092  10.902  12.358
90968SOL    HW174736   5.083  10.913  12.263
90968SOL    HW274737   5.124  10.812  12.368
90969SOL     OW74738   1.474   0.350  12.405
90969SOL    HW174739   1.471   0.255  12.415
90969SOL    HW274740   1.384   0.379  12.419
90970SOL     OW74741   7.473   3.349  12.459
90970SOL    HW174742   7.428   3.356  12.375
90970SOL    HW274743   7.407   3.371  12.524
90971SOL     OW74744   7.542  12.821   4.532
90971SOL    HW174745   7.528  12.809   4.438
90971SOL    HW274746   7.507  12.741   4.572
90972SOL     OW74747   9.706  13.032   9.100
90972SOL    HW174748   9.621  12.996   9.123
90972SOL    HW274749   9.687  13.117   9.061
90973SOL     OW74750   9.387   9.073   4.220
90973SOL    HW174751   9.368   9.024   4.300
90973SOL    HW274752   9.308   9.124   4.203
90974SOL     OW74753   0.218   8.627   2.172
90974SOL    HW174754   0.229   8.672   2.088
90974SOL    HW274755   0.307   8.610   2.203
90975SOL     OW74756   7.778  13.367  14.869
90975SOL    HW174757   7.786  13.395  14.777
90975SOL    HW274758   7.821  13.282  14.872
90976SOL     OW74759  12.965   7.221   0.442
90976SOL    HW174760  13.006   7.173   0.370
90976SOL    HW274761  12.967   7.312   0.414
90977SOL     OW74762   7.701  11.373   3.950
90977SOL    HW174763   7.705  11.401   4.042
90977SOL    HW274764   7.792  11.369   3.922
90978SOL     OW74765   5.890  13.196   0.044
90978SOL    HW174766   5.984  13.190   0.060
90978SOL    HW274767   5.856  13.243   0.120
90979SOL     OW74768   7.507  12.372   4.761
90979SOL    HW174769   7.538  12.284   4.781
90979SOL    HW274770   7.563  12.401   4.689
90980SOL     OW74771   2.867   0.839  14.153
90980SOL    HW174772   2.838   0.764  14.102
90980SOL    HW274773   2.811   0.912  14.125
90981SOL     OW74774  12.252   3.247   8.131
90981SOL    HW174775  12.251   3.185   8.058
90981SOL    HW274776  12.195   3.207   8.197
90982SOL     OW74777  12.486   8.345   3.772
90982SOL    HW174778  12.462   8.434   3.797
90982SOL    HW274779  12.546   8.357   3.697
90983SOL     OW74780   4.783   5.809   9.333
90983SOL    HW174781   4.748   5.864   9.403
90983SOL    HW274782   4.710   5.801   9.271
90984SOL     OW74783   6.393   8.626   9.281
90984SOL    HW174784   6.354   8.682   9.348
90984SOL    HW274785   6.356   8.540   9.298
90985SOL     OW74786  13.091   1.988   4.985
90985SOL    HW174787  13.029   2.061   4.983
90985SOL    HW274788  13.090   1.953   4.896
90986SOL     OW74789   4.793  12.755   3.586
90986SOL    HW174790   4.742  12.820   3.538
90986SOL    HW274791   4.817  12.690   3.520
90987SOL     OW74792   9.028   5.350   6.943
90987SOL    HW174793   9.013   5.280   7.007
90987SOL    HW274794   9.091   5.408   6.985
90988SOL     OW74795  13.067   5.124   5.581
90988SOL    HW174796  13.052   5.199   5.639
90988SOL    HW274797  12.982   5.107   5.540
90989SOL     OW74798   8.211  13.676   7.406
90989SOL    HW174799   8.300  13.673   7.442
90989SOL    HW274800   8.172  13.593   7.431
90990SOL     OW74801   2.040   5.209   4.954
90990SOL    HW174802   2.000   5.123   4.960
90990SOL    HW274803   2.025   5.236   4.863
90991SOL     OW74804  12.022  12.377   0.909
90991SOL    HW174805  12.008  12.298   0.961
90991SOL    HW274806  12.037  12.345   0.820
90992SOL     OW74807  11.738  14.199  10.209
90992SOL    HW174808  11.825  14.161  10.204
90992SOL    HW274809  11.752  14.287  10.245
90993SOL     OW74810   1.603  10.784   7.827
90993SOL    HW174811   1.519  10.770   7.783
90993SOL    HW274812   1.582  10.841   7.901
90994SOL     OW74813   8.801   3.758   9.234
90994SOL    HW174814   8.866   3.688   9.244
90994SOL    HW274815   8.852   3.839   9.230
90995SOL     OW74816   1.956   5.850   4.834
90995SOL    HW174817   1.992   5.783   4.775
90995SOL    HW274818   2.033   5.891   4.873
90996SOL     OW74819   6.361  11.150   8.460
90996SOL    HW174820   6.357  11.192   8.374
90996SOL    HW274821   6.408  11.068   8.445
90997SOL     OW74822   6.534   1.391   3.480
90997SOL    HW174823   6.602   1.424   3.421
90997SOL    HW274824   6.452   1.414   3.438
90998SOL     OW74825  10.373   4.300   6.150
90998SOL    HW174826  10.377   4.230   6.215
90998SOL    HW274827  10.376   4.380   6.201
90999SOL     OW74828   7.570   8.133   0.815
90999SOL    HW174829   7.591   8.065   0.752
90999SOL    HW274830   7.566   8.087   0.899
91000SOL     OW74831   8.501  11.149  11.460
91000SOL    HW174832   8.589  11.165  11.425
91000SOL    HW274833   8.511  11.156  11.555
91001SOL     OW74834   6.752   6.060   3.512
91001SOL    HW174835   6.788   5.973   3.532
91001SOL    HW274836   6.823   6.121   3.533
91002SOL     OW74837   4.249   8.647   9.317
91002SOL    HW174838   4.286   8.598   9.244
91002SOL    HW274839   4.222   8.580   9.380
91003SOL     OW74840   9.981   9.185   1.296
91003SOL    HW174841  10.027   9.105   1.320
91003SOL    HW274842  10.033   9.223   1.225
91004SOL     OW74843  10.148   0.107  11.508
91004SOL    HW174844  10.202   0.089  11.585
91004SOL    HW274845  10.131   0.021  11.470
91005SOL     OW74846   9.372   0.424  12.015
91005SOL    HW174847   9.439   0.394  11.954
91005SOL    HW274848   9.308   0.469  11.960
91006SOL     OW74849   9.576   1.543   4.443
91006SOL    HW174850   9.651   1.549   4.384
91006SOL    HW274851   9.500   1.554   4.385
91007SOL     OW74852   0.927   1.883  10.603
91007SOL    HW174853   0.849   1.923  10.642
91007SOL    HW274854   0.904   1.791  10.592
91008SOL     OW74855   4.561  11.658   9.803
91008SOL    HW174856   4.568  11.730   9.740
91008SOL    HW274857   4.502  11.595   9.761
91009SOL     OW74858   2.015   8.967   6.527
91009SOL    HW174859   1.995   8.877   6.551
91009SOL    HW274860   1.952   8.988   6.457
91010SOL     OW74861   0.172  12.652   9.142
91010SOL    HW174862   0.252  12.640   9.091
91010SOL    HW274863   0.196  12.625   9.231
91011SOL     OW74864   4.135  10.023   1.380
91011SOL    HW174865   4.188  10.077   1.438
91011SOL    HW274866   4.103   9.952   1.436
91012SOL     OW74867   3.605   2.470   3.655
91012SOL    HW174868   3.549   2.393   3.653
91012SOL    HW274869   3.620   2.491   3.563
91013SOL     OW74870   1.198  10.766   7.430
91013SOL    HW174871   1.194  10.719   7.346
91013SOL    HW274872   1.131  10.724   7.484
91014SOL     OW74873   4.718  13.982  13.803
91014SOL    HW174874   4.796  13.955  13.754
91014SOL    HW274875   4.720  13.929  13.882
91015SOL     OW74876  10.703   7.788   2.387
91015SOL    HW174877  10.767   7.728   2.427
91015SOL    HW274878  10.618   7.748   2.404
91016SOL     OW74879   9.540  13.750   3.370
91016SOL    HW174880   9.607  13.755   3.438
91016SOL    HW274881   9.464  13.713   3.414
91017SOL     OW74882   4.373  12.923   7.990
91017SOL    HW174883   4.449  12.965   7.949
91017SOL    HW274884   4.391  12.829   7.982
91018SOL     OW74885   8.552   9.838  12.320
91018SOL    HW174886   8.551   9.909  12.257
91018SOL    HW274887   8.464   9.802  12.318
91019SOL     OW74888   2.900   8.705  11.859
91019SOL    HW174889   2.897   8.651  11.938
91019SOL    HW274890   2.844   8.780  11.878
91020SOL     OW74891   2.972   3.291   4.259
91020SOL    HW174892   2.882   3.266   4.282
91020SOL    HW274893   2.968   3.386   4.249
91021SOL     OW74894   3.357  11.683   2.643
91021SOL    HW174895   3.434  11.720   2.686
91021SOL    HW274896   3.308  11.642   2.715
91022SOL     OW74897   0.583  10.313   5.757
91022SOL    HW174898   0.545  10.273   5.679
91022SOL    HW274899   0.519  10.378   5.785
91023SOL     OW74900   2.519   4.102   9.038
91023SOL    HW174901   2.432   4.123   9.003
91023SOL    HW274902   2.569   4.183   9.027
91024SOL     OW74903   7.368   4.651   0.250
91024SOL    HW174904   7.324   4.696   0.178
91024SOL    HW274905   7.303   4.648   0.320
91025SOL     OW74906  13.353   8.338   8.549
91025SOL    HW174907  13.425   8.395   8.577
91025SOL    HW274908  13.308   8.388   8.480
91026SOL     OW74909   0.249  11.195  10.918
91026SOL    HW174910   0.220  11.274  10.965
91026SOL    HW274911   0.320  11.160  10.972
91027SOL     OW74912   6.319   3.658   1.239
91027SOL    HW174913   6.277   3.575   1.260
91027SOL    HW274914   6.275   3.722   1.296
91028SOL     OW74915  11.351   9.972   1.446
91028SOL    HW174916  11.303   9.890   1.431
91028SOL    HW274917  11.305  10.037   1.395
91029SOL     OW74918   8.387  14.425   8.028
91029SOL    HW174919   8.319  14.397   7.967
91029SOL    HW274920   8.370  14.373   8.107
91030SOL     OW74921   0.174  11.746   2.657
91030SOL    HW174922   0.171  11.651   2.648
91030SOL    HW274923   0.149  11.780   2.571
91031SOL     OW74924  12.418   2.134   7.817
91031SOL    HW174925  12.468   2.216   7.808
91031SOL    HW274926  12.452   2.077   7.748
91032SOL     OW74927  11.648   4.957  11.003
91032SOL    HW174928  11.710   4.890  11.032
91032SOL    HW274929  11.643   5.018  11.077
91033SOL     OW74930   2.058   4.225  14.443
91033SOL    HW174931   1.988   4.247  14.382
91033SOL    HW274932   2.128   4.287  14.423
91034SOL     OW74933   0.063   6.414   2.062
91034SOL    HW174934   0.088   6.382   1.975
91034SOL    HW274935   0.145   6.442   2.103
91035SOL     OW74936  12.511  12.401  12.426
91035SOL    HW174937  12.457  12.460  12.479
91035SOL    HW274938  12.521  12.447  12.342
91036SOL     OW74939  14.024   8.531   9.939
91036SOL    HW174940  14.012   8.560  10.029
91036SOL    HW274941  14.063   8.444   9.947
91037SOL     OW74942   9.793  10.256   4.073
91037SOL    HW174943   9.867  10.227   4.020
91037SOL    HW274944   9.756  10.331   4.025
91038SOL     OW74945   4.599   5.876  11.464
91038SOL    HW174946   4.550   5.802  11.501
91038SOL    HW274947   4.583   5.948  11.524
91039SOL     OW74948  10.230   5.180   0.484
91039SOL    HW174949  10.183   5.263   0.491
91039SOL    HW274950  10.302   5.198   0.424
91040SOL     OW74951  11.543   8.170   7.572
91040SOL    HW174952  11.520   8.238   7.635
91040SOL    HW274953  11.483   8.097   7.592
91041SOL     OW74954   6.675   8.097   1.201
91041SOL    HW174955   6.681   8.052   1.286
91041SOL    HW274956   6.662   8.189   1.223
91042SOL     OW74957  14.142   2.275   3.863
91042SOL    HW174958  14.069   2.216   3.882
91042SOL    HW274959  14.121   2.314   3.778
91043SOL     OW74960  13.218   1.828  14.348
91043SOL    HW174961  13.254   1.913  14.376
91043SOL    HW274962  13.147   1.850  14.288
91044SOL     OW74963   2.011  12.340   4.059
91044SOL    HW174964   2.065  12.283   4.113
91044SOL    HW274965   2.041  12.325   3.969
91045SOL     OW74966   9.043   5.168   5.253
91045SOL    HW174967   9.138   5.173   5.253
91045SOL    HW274968   9.014   5.258   5.241
91046SOL     OW74969  12.755  14.076   6.898
91046SOL    HW174970  12.722  13.986   6.897
91046SOL    HW274971  12.746  14.104   6.989
91047SOL     OW74972  12.685   1.408   1.495
91047SOL    HW174973  12.716   1.356   1.421
91047SOL    HW274974  12.759   1.464   1.519
91048SOL     OW74975   9.600  10.988   2.810
91048SOL    HW174976   9.640  10.985   2.723
91048SOL    HW274977   9.640  10.915   2.857
91049SOL     OW74978   7.928   6.424   0.538
91049SOL    HW174979   8.018   6.440   0.568
91049SOL    HW274980   7.875   6.429   0.617
91050SOL     OW74981   9.244   1.835   6.466
91050SOL    HW174982   9.170   1.844   6.526
91050SOL    HW274983   9.220   1.889   6.390
91051SOL     OW74984  10.184   4.534  10.106
91051SOL    HW174985  10.279   4.540  10.096
91051SOL    HW274986  10.171   4.524  10.200
91052SOL     OW74987   9.227   1.049   2.325
91052SOL    HW174988   9.209   0.961   2.358
91052SOL    HW274989   9.244   1.101   2.404
91053SOL     OW74990   7.759   4.529  11.993
91053SOL    HW174991   7.715   4.506  12.075
91053SOL    HW274992   7.747   4.452  11.937
91054SOL     OW74993   4.999   6.150  13.674
91054SOL    HW174994   4.958   6.065  13.688
91054SOL    HW274995   4.950   6.211  13.729
91055SOL     OW74996   6.794   1.974   5.016
91055SOL    HW174997   6.779   2.068   5.015
91055SOL    HW274998   6.746   1.942   4.940
91056SOL     OW74999   4.579   8.535   4.549
91056SOL    HW175000   4.494   8.579   4.549
91056SOL    HW275001   4.640   8.601   4.581
91057SOL     OW75002   0.860   0.439  13.449
91057SOL    HW175003   0.934   0.499  13.449
91057SOL    HW275004   0.892   0.361  13.403
91058SOL     OW75005   4.372   6.744  12.754
91058SOL    HW175006   4.324   6.732  12.672
91058SOL    HW275007   4.360   6.661  12.801
91059SOL     OW75008   2.393   4.773   4.489
91059SOL    HW175009   2.386   4.686   4.452
91059SOL    HW275010   2.333   4.773   4.563
91060SOL     OW75011   4.190   3.535   1.960
91060SOL    HW175012   4.278   3.521   1.925
91060SOL    HW275013   4.194   3.622   2.000
91061SOL     OW75014   4.560   6.969  12.919
91061SOL    HW175015   4.484   7.004  12.872
91061SOL    HW275016   4.574   7.030  12.991
91062SOL     OW75017  14.689  13.094   3.607
91062SOL    HW175018  14.776  13.081   3.645
91062SOL    HW275019  14.680  13.024   3.542
91063SOL     OW75020  11.087   9.553   2.452
91063SOL    HW175021  11.064   9.545   2.544
91063SOL    HW275022  11.175   9.591   2.452
91064SOL     OW75023   6.771   9.300   0.937
91064SOL    HW175024   6.727   9.215   0.931
91064SOL    HW275025   6.848   9.284   0.992
91065SOL     OW75026   1.299   3.230   0.901
91065SOL    HW175027   1.320   3.271   0.817
91065SOL    HW275028   1.272   3.302   0.958
91066SOL     OW75029   1.577  11.137   7.573
91066SOL    HW175030   1.526  11.097   7.503
91066SOL    HW275031   1.665  11.146   7.536
91067SOL     OW75032   5.734   9.152  12.576
91067SOL    HW175033   5.719   9.065  12.537
91067SOL    HW275034   5.746   9.134  12.669
91068SOL     OW75035   9.811  10.135  14.101
91068SOL    HW175036   9.785  10.073  14.033
91068SOL    HW275037   9.906  10.143  14.092
91069SOL     OW75038   9.473   7.790   5.868
91069SOL    HW175039   9.488   7.793   5.962
91069SOL    HW275040   9.478   7.881   5.839
91070SOL     OW75041   4.849  11.233   0.114
91070SOL    HW175042   4.831  11.139   0.104
91070SOL    HW275043   4.850  11.247   0.209
91071SOL     OW75044   8.475   5.463   0.223
91071SOL    HW175045   8.463   5.507   0.139
91071SOL    HW275046   8.387   5.442   0.252
91072SOL     OW75047   6.901   8.476   6.376
91072SOL    HW175048   6.851   8.556   6.392
91072SOL    HW275049   6.913   8.475   6.281
91073SOL     OW75050   9.852  13.743   9.635
91073SOL    HW175051   9.946  13.730   9.619
91073SOL    HW275052   9.847  13.762   9.729
91074SOL     OW75053   6.025   2.949   8.811
91074SOL    HW175054   5.987   2.883   8.753
91074SOL    HW275055   6.089   2.901   8.863
91075SOL     OW75056   6.071  11.884   5.268
91075SOL    HW175057   6.151  11.934   5.253
91075SOL    HW275058   6.064  11.877   5.363
91076SOL     OW75059   9.055   9.400   3.085
91076SOL    HW175060   9.134   9.346   3.076
91076SOL    HW275061   8.988   9.340   3.119
91077SOL     OW75062  14.442   4.346  12.375
91077SOL    HW175063  14.381   4.404  12.328
91077SOL    HW275064  14.387   4.297  12.436
91078SOL     OW75065   7.963   3.427  13.463
91078SOL    HW175066   7.882   3.378  13.470
91078SOL    HW275067   7.965   3.482  13.542
91079SOL     OW75068   2.678  10.622   9.512
91079SOL    HW175069   2.688  10.661   9.598
91079SOL    HW275070   2.765  10.631   9.472
91080SOL     OW75071  13.786  11.128   0.239
91080SOL    HW175072  13.767  11.138   0.146
91080SOL    HW275073  13.701  11.134   0.281
91081SOL     OW75074   1.524  13.151   8.670
91081SOL    HW175075   1.509  13.060   8.696
91081SOL    HW275076   1.438  13.192   8.674
91082SOL     OW75077   1.714   4.844  13.568
91082SOL    HW175078   1.752   4.773  13.516
91082SOL    HW275079   1.669   4.800  13.640
91083SOL     OW75080   8.807  10.357   1.725
91083SOL    HW175081   8.797  10.379   1.817
91083SOL    HW275082   8.862  10.278   1.725
91084SOL     OW75083   8.485   2.126  13.185
91084SOL    HW175084   8.492   2.038  13.221
91084SOL    HW275085   8.542   2.179  13.241
91085SOL     OW75086   0.076   9.100   7.370
91085SOL    HW175087   0.160   9.054   7.374
91085SOL    HW275088   0.077   9.145   7.286
91086SOL     OW75089   5.107   6.143  10.530
91086SOL    HW175090   5.071   6.096  10.605
91086SOL    HW275091   5.164   6.079  10.487
91087SOL     OW75092   2.159   6.681  10.352
91087SOL    HW175093   2.252   6.659  10.354
91087SOL    HW275094   2.144   6.731  10.432
91088SOL     OW75095   3.768   9.429  13.104
91088SOL    HW175096   3.758   9.483  13.026
91088SOL    HW275097   3.760   9.339  13.072
91089SOL     OW75098   4.137   0.628   2.747
91089SOL    HW175099   4.182   0.555   2.706
91089SOL    HW275100   4.187   0.705   2.720
91090SOL     OW75101   8.206   4.555   7.447
91090SOL    HW175102   8.279   4.563   7.508
91090SOL    HW275103   8.241   4.589   7.364
91091SOL     OW75104   9.763  11.368   0.930
91091SOL    HW175105   9.782  11.280   0.898
91091SOL    HW275106   9.846  11.415   0.919
91092SOL     OW75107  11.974  12.078   2.866
91092SOL    HW175108  11.928  12.072   2.950
91092SOL    HW275109  12.067  12.075   2.889
91093SOL     OW75110   3.273   0.689   8.496
91093SOL    HW175111   3.289   0.599   8.469
91093SOL    HW275112   3.320   0.698   8.579
91094SOL     OW75113   4.381   7.882   4.740
91094SOL    HW175114   4.313   7.847   4.683
91094SOL    HW275115   4.386   7.975   4.718
91095SOL     OW75116  14.620  13.724   7.273
91095SOL    HW175117  14.660  13.771   7.200
91095SOL    HW275118  14.691  13.710   7.335
91096SOL     OW75119   1.007   6.427   1.891
91096SOL    HW175120   1.067   6.465   1.826
91096SOL    HW275121   0.920   6.443   1.856
91097SOL     OW75122   6.535  11.213   4.902
91097SOL    HW175123   6.559  11.201   4.810
91097SOL    HW275124   6.565  11.133   4.945
91098SOL     OW75125   8.180   0.960   7.984
91098SOL    HW175126   8.134   0.956   8.068
91098SOL    HW275127   8.217   0.872   7.973
91099SOL     OW75128   3.340  13.424  13.383
91099SOL    HW175129   3.265  13.431  13.442
91099SOL    HW275130   3.416  13.442  13.439
91100SOL     OW75131   2.624   8.002   3.728
91100SOL    HW175132   2.618   7.938   3.798
91100SOL    HW275133   2.691   7.967   3.669
91101SOL     OW75134  13.411   7.287   9.284
91101SOL    HW175135  13.455   7.365   9.318
91101SOL    HW275136  13.347   7.265   9.351
91102SOL     OW75137   5.095   7.253  10.961
91102SOL    HW175138   5.033   7.256  11.034
91102SOL    HW275139   5.169   7.203  10.994
91103SOL     OW75140  13.416  10.762   5.819
91103SOL    HW175141  13.489  10.792   5.874
91103SOL    HW275142  13.370  10.842   5.795
91104SOL     OW75143  12.644   0.428   9.359
91104SOL    HW175144  12.699   0.504   9.374
91104SOL    HW275145  12.696   0.354   9.390
91105SOL     OW75146  12.194  14.463  10.235
91105SOL    HW175147  12.272  14.516  10.250
91105SOL    HW275148  12.219  14.375  10.264
91106SOL     OW75149  11.089  12.036  11.422
91106SOL    HW175150  11.002  12.003  11.444
91106SOL    HW275151  11.112  12.094  11.495
91107SOL     OW75152   1.971  12.784  11.122
91107SOL    HW175153   1.894  12.744  11.081
91107SOL    HW275154   1.935  12.843  11.188
91108SOL     OW75155   6.604   5.061   6.570
91108SOL    HW175156   6.616   4.966   6.561
91108SOL    HW275157   6.540   5.071   6.640
91109SOL     OW75158   0.907  10.127  11.519
91109SOL    HW175159   0.969  10.059  11.548
91109SOL    HW275160   0.919  10.131  11.424
91110SOL     OW75161   6.922  14.517   4.983
91110SOL    HW175162   6.925  14.596   5.037
91110SOL    HW275163   7.013  14.503   4.957
91111SOL     OW75164  12.994   8.008   7.507
91111SOL    HW175165  13.066   7.946   7.514
91111SOL    HW275166  12.921   7.957   7.472
91112SOL     OW75167  13.372   7.006   9.387
91112SOL    HW175168  13.418   6.974   9.310
91112SOL    HW275169  13.327   6.929   9.422
91113SOL     OW75170  11.320   1.809  14.284
91113SOL    HW175171  11.304   1.871  14.212
91113SOL    HW275172  11.254   1.832  14.349
91114SOL     OW75173   5.586   6.850  10.241
91114SOL    HW175174   5.511   6.910  10.238
91114SOL    HW275175   5.553   6.772  10.284
91115SOL     OW75176   0.455  12.602   1.902
91115SOL    HW175177   0.364  12.632   1.905
91115SOL    HW275178   0.461  12.532   1.966
91116SOL     OW75179   6.433  11.739   7.910
91116SOL    HW175180   6.343  11.728   7.878
91116SOL    HW275181   6.437  11.830   7.939
91117SOL     OW75182   7.748   2.043   9.934
91117SOL    HW175183   7.747   1.997  10.018
91117SOL    HW275184   7.841   2.057   9.916
91118SOL     OW75185  13.101   4.852   6.593
91118SOL    HW175186  13.032   4.890   6.539
91118SOL    HW275187  13.095   4.899   6.676
91119SOL     OW75188   3.782   6.840   7.560
91119SOL    HW175189   3.816   6.754   7.586
91119SOL    HW275190   3.821   6.857   7.475
91120SOL     OW75191   8.562   4.731  12.663
91120SOL    HW175192   8.554   4.749  12.569
91120SOL    HW275193   8.595   4.641  12.667
91121SOL     OW75194  13.201   2.255   0.095
91121SOL    HW175195  13.119   2.205   0.092
91121SOL    HW275196  13.229   2.260   0.004
91122SOL     OW75197   3.720   7.998  12.507
91122SOL    HW175198   3.793   7.976  12.564
91122SOL    HW275199   3.694   8.086  12.535
91123SOL     OW75200  12.599  11.528   9.777
91123SOL    HW175201  12.587  11.614   9.738
91123SOL    HW275202  12.516  11.483   9.761
91124SOL     OW75203   9.691  14.133   5.764
91124SOL    HW175204   9.627  14.070   5.733
91124SOL    HW275205   9.776  14.095   5.741
91125SOL     OW75206   3.276  14.732   0.947
91125SOL    HW175207   3.335  14.759   1.017
91125SOL    HW275208   3.192  14.773   0.969
91126SOL     OW75209   7.214   5.222   9.721
91126SOL    HW175210   7.299   5.253   9.751
91126SOL    HW275211   7.228   5.131   9.698
91127SOL     OW75212  11.624  10.530  10.197
91127SOL    HW175213  11.625  10.452  10.253
91127SOL    HW275214  11.607  10.602  10.257
91128SOL     OW75215   8.412   7.348   4.072
91128SOL    HW175216   8.383   7.320   3.985
91128SOL    HW275217   8.394   7.442   4.074
91129SOL     OW75218   0.823   7.745  14.277
91129SOL    HW175219   0.826   7.744  14.181
91129SOL    HW275220   0.754   7.808  14.298
91130SOL     OW75221   2.331   7.778   3.958
91130SOL    HW175222   2.389   7.822   4.020
91130SOL    HW275223   2.246   7.778   4.002
91131SOL     OW75224  12.701   7.026  12.950
91131SOL    HW175225  12.752   7.102  12.977
91131SOL    HW275226  12.764   6.967  12.908
91132SOL     OW75227  11.110  12.166   1.960
91132SOL    HW175228  11.164  12.225   2.012
91132SOL    HW275229  11.127  12.079   1.995
91133SOL     OW75230   6.173   7.965  10.249
91133SOL    HW175231   6.105   8.000  10.192
91133SOL    HW275232   6.246   8.026  10.241
91134SOL     OW75233  11.835  12.450  10.700
91134SOL    HW175234  11.874  12.470  10.785
91134SOL    HW275235  11.780  12.526  10.681
91135SOL     OW75236   0.898   6.327  13.613
91135SOL    HW175237   0.928   6.277  13.689
91135SOL    HW275238   0.804   6.335  13.625
91136SOL     OW75239  14.409   2.376  12.805
91136SOL    HW175240  14.474   2.341  12.866
91136SOL    HW275241  14.411   2.316  12.731
91137SOL     OW75242  14.686   4.362   9.651
91137SOL    HW175243  14.719   4.357   9.741
91137SOL    HW275244  14.607   4.308   9.653
91138SOL     OW75245  11.327   2.985   4.670
91138SOL    HW175246  11.290   2.911   4.622
91138SOL    HW275247  11.367   2.945   4.748
91139SOL     OW75248   9.798   2.980  12.131
91139SOL    HW175249   9.861   2.932  12.079
91139SOL    HW275250   9.807   2.943  12.219
91140SOL     OW75251   0.205  11.536   8.831
91140SOL    HW175252   0.279  11.477   8.845
91140SOL    HW275253   0.198  11.585   8.913
91141SOL     OW75254   6.148  13.895   1.716
91141SOL    HW175255   6.083  13.925   1.653
91141SOL    HW275256   6.103  13.829   1.768
91142SOL     OW75257   7.165  11.789  11.265
91142SOL    HW175258   7.168  11.718  11.200
91142SOL    HW275259   7.254  11.796  11.299
91143SOL     OW75260  12.088   3.319   3.691
91143SOL    HW175261  12.012   3.368   3.722
91143SOL    HW275262  12.162   3.379   3.702
91144SOL     OW75263   7.282   9.653   4.742
91144SOL    HW175264   7.321   9.717   4.683
91144SOL    HW275265   7.342   9.578   4.740
91145SOL     OW75266   5.337   7.483  14.434
91145SOL    HW175267   5.297   7.570  14.437
91145SOL    HW275268   5.430   7.498  14.452
91146SOL     OW75269   5.375   1.747   4.032
91146SOL    HW175270   5.312   1.802   3.984
91146SOL    HW275271   5.328   1.719   4.110
91147SOL     OW75272   3.532   6.551  10.678
91147SOL    HW175273   3.504   6.460  10.692
91147SOL    HW275274   3.505   6.597  10.757
91148SOL     OW75275   3.013   1.476   0.000
91148SOL    HW175276   3.043   1.481  14.782
91148SOL    HW275277   2.981   1.565   0.019
91149SOL     OW75278  11.762  14.327   9.747
91149SOL    HW175279  11.720  14.275   9.816
91149SOL    HW275280  11.750  14.276   9.667
91150SOL     OW75281   2.687  14.351  12.645
91150SOL    HW175282   2.624  14.281  12.633
91150SOL    HW275283   2.667  14.387  12.731
91151SOL     OW75284  13.860  11.011  11.207
91151SOL    HW175285  13.904  10.941  11.158
91151SOL    HW275286  13.920  11.030  11.280
91152SOL     OW75287   0.642  14.412   9.400
91152SOL    HW175288   0.580  14.369   9.459
91152SOL    HW275289   0.627  14.505   9.414
91153SOL     OW75290   4.700  12.000  13.405
91153SOL    HW175291   4.752  11.925  13.433
91153SOL    HW275292   4.701  12.060  13.480
91154SOL     OW75293   0.776  10.664   6.841
91154SOL    HW175294   0.730  10.674   6.925
91154SOL    HW275295   0.821  10.748   6.829
91155SOL     OW75296   7.989   7.535   0.040
91155SOL    HW175297   8.000   7.628   0.022
91155SOL    HW275298   7.921   7.506  14.850
91156SOL     OW75299   1.100  12.491   0.385
91156SOL    HW175300   1.121  12.520   0.473
91156SOL    HW275301   1.016  12.533   0.365
91157SOL     OW75302   1.059   6.176   8.145
91157SOL    HW175303   1.002   6.100   8.139
91157SOL    HW275304   1.074   6.187   8.239
91158SOL     OW75305  10.547   8.264   4.255
91158SOL    HW175306  10.603   8.302   4.323
91158SOL    HW275307  10.515   8.182   4.293
91159SOL     OW75308  11.451  10.795   2.221
91159SOL    HW175309  11.357  10.805   2.211
91159SOL    HW275310  11.463  10.768   2.312
91160SOL     OW75311  14.495   7.593   7.129
91160SOL    HW175312  14.559   7.660   7.154
91160SOL    HW275313  14.538   7.543   7.059
91161SOL     OW75314  12.996  11.658  11.752
91161SOL    HW175315  12.996  11.751  11.778
91161SOL    HW275316  13.086  11.629  11.767
91162SOL     OW75317   7.958   7.948   7.748
91162SOL    HW175318   7.887   7.940   7.812
91162SOL    HW275319   8.028   7.893   7.782
91163SOL     OW75320   1.314  12.983   6.202
91163SOL    HW175321   1.361  13.052   6.155
91163SOL    HW275322   1.308  12.911   6.140
91164SOL     OW75323  12.418   0.893   4.965
91164SOL    HW175324  12.367   0.973   4.965
91164SOL    HW275325  12.362   0.828   5.007
91165SOL     OW75326  11.445   9.654  14.726
91165SOL    HW175327  11.377   9.674  14.661
91165SOL    HW275328  11.517   9.618  14.676
91166SOL     OW75329   2.745   2.448   8.109
91166SOL    HW175330   2.821   2.393   8.128
91166SOL    HW275331   2.768   2.494   8.029
91167SOL     OW75332   9.598   5.374   6.826
91167SOL    HW175333   9.681   5.422   6.830
91167SOL    HW275334   9.623   5.285   6.800
91168SOL     OW75335   1.076   3.731  11.920
91168SOL    HW175336   1.117   3.652  11.886
91168SOL    HW275337   1.024   3.702  11.994
91169SOL     OW75338   4.969  11.104  10.638
91169SOL    HW175339   5.033  11.166  10.674
91169SOL    HW275340   4.900  11.099  10.704
91170SOL     OW75341   6.337  14.655  14.730
91170SOL    HW175342   6.382  14.712  14.792
91170SOL    HW275343   6.405  14.597  14.697
91171SOL     OW75344  11.919   9.275   1.427
91171SOL    HW175345  11.970   9.236   1.498
91171SOL    HW275346  11.833   9.291   1.466
91172SOL     OW75347   4.479  11.089  14.742
91172SOL    HW175348   4.426  11.081  14.663
91172SOL    HW275349   4.569  11.074  14.713
91173SOL     OW75350   8.285   5.460  11.483
91173SOL    HW175351   8.279   5.493  11.393
91173SOL    HW275352   8.377   5.435  11.493
91174SOL     OW75353  11.168   3.453   7.138
91174SOL    HW175354  11.215   3.413   7.210
91174SOL    HW275355  11.087   3.402   7.130
91175SOL     OW75356   0.282   9.940  11.710
91175SOL    HW175357   0.239   9.991  11.779
91175SOL    HW275358   0.210   9.901  11.660
91176SOL     OW75359   3.139   7.928  11.111
91176SOL    HW175360   3.193   7.972  11.176
91176SOL    HW275361   3.189   7.849  11.087
91177SOL     OW75362   9.892  10.895   3.418
91177SOL    HW175363   9.892  10.947   3.337
91177SOL    HW275364   9.847  10.814   3.394
91178SOL     OW75365   8.912  11.313   3.469
91178SOL    HW175366   8.823  11.279   3.464
91178SOL    HW275367   8.967  11.236   3.482
91179SOL     OW75368   7.691   4.510  11.264
91179SOL    HW175369   7.626   4.549  11.205
91179SOL    HW275370   7.678   4.557  11.347
91180SOL     OW75371   0.155   5.135   4.986
91180SOL    HW175372   0.082   5.191   4.960
91180SOL    HW275373   0.232   5.192   4.984
91181SOL     OW75374   2.050   2.189   9.784
91181SOL    HW175375   2.021   2.214   9.696
91181SOL    HW275376   2.002   2.249   9.842
91182SOL     OW75377   6.151   0.189   7.433
91182SOL    HW175378   6.214   0.252   7.398
91182SOL    HW275379   6.160   0.112   7.378
91183SOL     OW75380  13.680   0.944   9.442
91183SOL    HW175381  13.747   0.890   9.485
91183SOL    HW275382  13.683   1.027   9.489
91184SOL     OW75383   8.947  10.891  13.245
91184SOL    HW175384   8.954  10.907  13.151
91184SOL    HW275385   8.883  10.819  13.252
91185SOL     OW75386  11.732  10.771   9.088
91185SOL    HW175387  11.722  10.823   9.008
91185SOL    HW275388  11.789  10.824   9.144
91186SOL     OW75389  14.371   9.936   4.298
91186SOL    HW175390  14.390   9.944   4.392
91186SOL    HW275391  14.275   9.936   4.294
91187SOL     OW75392  14.098  10.425  14.552
91187SOL    HW175393  14.049  10.494  14.507
91187SOL    HW275394  14.181  10.467  14.574
91188SOL     OW75395   6.110   2.554   0.191
91188SOL    HW175396   6.163   2.633   0.202
91188SOL    HW275397   6.145   2.512   0.113
91189SOL     OW75398   0.852  13.383   0.688
91189SOL    HW175399   0.895  13.298   0.677
91189SOL    HW275400   0.813  13.379   0.776
91190SOL     OW75401  12.907  14.785  11.527
91190SOL    HW175402  12.991  14.768  11.571
91190SOL    HW275403  12.928  14.850  11.459
91191SOL     OW75404   1.458   9.014  11.617
91191SOL    HW175405   1.409   8.956  11.559
91191SOL    HW275406   1.451   8.973  11.703
91192SOL     OW75407  11.902   5.657   1.359
91192SOL    HW175408  11.907   5.731   1.419
91192SOL    HW275409  11.967   5.595   1.391
91193SOL     OW75410  11.367  11.290  12.244
91193SOL    HW175411  11.285  11.320  12.284
91193SOL    HW275412  11.340  11.223  12.182
91194SOL     OW75413  14.766   3.533   2.629
91194SOL    HW175414  14.739   3.620   2.596
91194SOL    HW275415  14.743   3.473   2.558
91195SOL     OW75416  11.535  11.879   0.729
91195SOL    HW175417  11.455  11.901   0.681
91195SOL    HW275418  11.548  11.952   0.789
91196SOL     OW75419   9.403  11.400   6.628
91196SOL    HW175420   9.439  11.421   6.542
91196SOL    HW275421   9.346  11.324   6.612
91197SOL     OW75422   8.714  11.532   4.972
91197SOL    HW175423   8.624  11.557   4.989
91197SOL    HW275424   8.754  11.609   4.931
91198SOL     OW75425   0.106  10.778   3.001
91198SOL    HW175426   0.104  10.779   2.905
91198SOL    HW275427   0.154  10.698   3.023
91199SOL     OW75428   1.670   5.589   5.829
91199SOL    HW175429   1.681   5.667   5.775
91199SOL    HW275430   1.685   5.516   5.770
91200SOL     OW75431  11.630  12.546  10.377
91200SOL    HW175432  11.664  12.462  10.346
91200SOL    HW275433  11.541  12.525  10.408
91201SOL     OW75434   3.656   3.443   7.319
91201SOL    HW175435   3.567   3.416   7.299
91201SOL    HW275436   3.674   3.404   7.405
91202SOL     OW75437   0.205  11.590  10.941
91202SOL    HW175438   0.164  11.511  10.977
91202SOL    HW275439   0.158  11.662  10.983
91203SOL     OW75440  13.139   7.997   9.074
91203SOL    HW175441  13.047   8.004   9.098
91203SOL    HW275442  13.139   7.950   8.991
91204SOL     OW75443   1.329  13.263   4.193
91204SOL    HW175444   1.280  13.241   4.272
91204SOL    HW275445   1.410  13.301   4.225
91205SOL     OW75446   0.056   4.850   2.813
91205SOL    HW175447   0.086   4.760   2.807
91205SOL    HW275448   0.097   4.883   2.893
91206SOL     OW75449  13.506   9.958   3.418
91206SOL    HW175450  13.562   9.940   3.343
91206SOL    HW275451  13.439   9.890   3.415
91207SOL     OW75452   0.001  11.048  12.028
91207SOL    HW175453  14.823  11.109  12.082
91207SOL    HW275454   0.077  11.026  12.081
91208SOL     OW75455  11.793  10.400   2.590
91208SOL    HW175456  11.768  10.376   2.501
91208SOL    HW275457  11.712  10.429   2.631
91209SOL     OW75458   7.338   3.330   6.097
91209SOL    HW175459   7.297   3.379   6.026
91209SOL    HW275460   7.419   3.378   6.116
91210SOL     OW75461  11.028   4.184   7.661
91210SOL    HW175462  10.981   4.232   7.730
91210SOL    HW275463  10.961   4.167   7.594
91211SOL     OW75464  11.329   6.391   8.754
91211SOL    HW175465  11.307   6.303   8.786
91211SOL    HW275466  11.323   6.446   8.832
91212SOL     OW75467   4.604   6.840   7.205
91212SOL    HW175468   4.595   6.750   7.236
91212SOL    HW275469   4.555   6.892   7.268
91213SOL     OW75470  12.208   4.625   6.946
91213SOL    HW175471  12.169   4.567   7.011
91213SOL    HW275472  12.216   4.709   6.991
91214SOL     OW75473   0.521  10.693  12.079
91214SOL    HW175474   0.567  10.685  12.163
91214SOL    HW275475   0.562  10.627  12.023
91215SOL     OW75476   3.157   0.841   7.428
91215SOL    HW175477   3.145   0.832   7.334
91215SOL    HW275478   3.072   0.818   7.465
91216SOL     OW75479   1.853   8.837   2.052
91216SOL    HW175480   1.902   8.800   2.125
91216SOL    HW275481   1.833   8.926   2.079
91217SOL     OW75482  11.508  13.694   4.438
91217SOL    HW175483  11.588  13.744   4.456
91217SOL    HW275484  11.443  13.760   4.413
91218SOL     OW75485  12.885   4.220   9.891
91218SOL    HW175486  12.920   4.239   9.804
91218SOL    HW275487  12.820   4.288   9.906
91219SOL     OW75488  12.636   6.611   4.022
91219SOL    HW175489  12.679   6.533   3.986
91219SOL    HW275490  12.614   6.587   4.112
91220SOL     OW75491   9.198  14.272   2.230
91220SOL    HW175492   9.242  14.267   2.315
91220SOL    HW275493   9.268  14.264   2.166
91221SOL     OW75494  14.508   6.452  13.280
91221SOL    HW175495  14.418   6.424  13.265
91221SOL    HW275496  14.519   6.529  13.224
91222SOL     OW75497   5.121   4.011   1.360
91222SOL    HW175498   5.095   3.923   1.386
91222SOL    HW275499   5.216   4.014   1.377
91223SOL     OW75500   6.696  10.027   6.719
91223SOL    HW175501   6.738   9.984   6.645
91223SOL    HW275502   6.714  10.120   6.706
91224SOL     OW75503   0.003   9.917  13.692
91224SOL    HW175504  14.827   9.862  13.630
91224SOL    HW275505   0.092   9.920  13.658
91225SOL     OW75506  11.258   3.860   8.312
91225SOL    HW175507  11.329   3.805   8.281
91225SOL    HW275508  11.227   3.906   8.234
91226SOL     OW75509  12.864  12.020  12.104
91226SOL    HW175510  12.837  11.958  12.035
91226SOL    HW275511  12.921  12.083  12.059
91227SOL     OW75512   9.945  11.005   2.419
91227SOL    HW175513  10.020  10.995   2.360
91227SOL    HW275514   9.882  11.056   2.369
91228SOL     OW75515   6.352   4.460   8.426
91228SOL    HW175516   6.259   4.439   8.424
91228SOL    HW275517   6.361   4.522   8.498
91229SOL     OW75518   2.243  12.254   7.480
91229SOL    HW175519   2.266  12.237   7.389
91229SOL    HW275520   2.252  12.349   7.490
91230SOL     OW75521   8.964  11.698   5.341
91230SOL    HW175522   8.893  11.726   5.283
91230SOL    HW275523   8.942  11.736   5.426
91231SOL     OW75524  12.524   2.914   7.886
91231SOL    HW175525  12.488   2.947   7.969
91231SOL    HW275526  12.615   2.945   7.886
91232SOL     OW75527  14.463  12.328   7.908
91232SOL    HW175528  14.437  12.418   7.885
91232SOL    HW275529  14.438  12.318   8.000
91233SOL     OW75530   6.575  11.901  10.494
91233SOL    HW175531   6.650  11.876  10.548
91233SOL    HW275532   6.546  11.819  10.454
91234SOL     OW75533  11.744  11.029   6.595
91234SOL    HW175534  11.817  11.062   6.647
91234SOL    HW275535  11.667  11.046   6.649
91235SOL     OW75536  12.343   5.633   4.345
91235SOL    HW175537  12.309   5.549   4.378
91235SOL    HW275538  12.416   5.608   4.289
91236SOL     OW75539  14.054   2.894   3.027
91236SOL    HW175540  14.130   2.937   3.065
91236SOL    HW275541  14.057   2.804   3.060
91237SOL     OW75542  13.493  10.187   8.191
91237SOL    HW175543  13.467  10.131   8.265
91237SOL    HW275544  13.551  10.252   8.229
91238SOL     OW75545   9.648  13.289   7.534
91238SOL    HW175546   9.638  13.194   7.535
91238SOL    HW275547   9.707  13.307   7.607
91239SOL     OW75548  14.049   6.775   0.697
91239SOL    HW175549  13.985   6.782   0.626
91239SOL    HW275550  14.005   6.719   0.762
91240SOL     OW75551   9.266   0.841   6.898
91240SOL    HW175552   9.326   0.876   6.963
91240SOL    HW275553   9.256   0.912   6.834
91241SOL     OW75554   5.076   7.567   9.674
91241SOL    HW175555   5.112   7.480   9.657
91241SOL    HW275556   5.116   7.594   9.756
91242SOL     OW75557   0.676  11.697  11.200
91242SOL    HW175558   0.761  11.714  11.161
91242SOL    HW275559   0.631  11.640  11.138
91243SOL     OW75560   2.281   0.812   2.342
91243SOL    HW175561   2.276   0.802   2.437
91243SOL    HW275562   2.263   0.905   2.327
91244SOL     OW75563  13.223   6.716  13.682
91244SOL    HW175564  13.207   6.643  13.623
91244SOL    HW275565  13.144   6.722  13.736
91245SOL     OW75566   6.771  10.468   0.525
91245SOL    HW175567   6.833  10.397   0.506
91245SOL    HW275568   6.823  10.533   0.573
91246SOL     OW75569   5.425   8.891   2.063
91246SOL    HW175570   5.362   8.904   1.992
91246SOL    HW275571   5.376   8.847   2.132
91247SOL     OW75572   6.223  13.486  12.014
91247SOL    HW175573   6.201  13.420  11.948
91247SOL    HW275574   6.312  13.512  11.992
91248SOL     OW75575   6.734   5.373   7.472
91248SOL    HW175576   6.726   5.467   7.455
91248SOL    HW275577   6.725   5.365   7.567
91249SOL     OW75578  13.095   9.739   6.471
91249SOL    HW175579  13.097   9.674   6.541
91249SOL    HW275580  13.184   9.741   6.438
91250SOL     OW75581   2.085  14.323  13.453
91250SOL    HW175582   2.021  14.268  13.497
91250SOL    HW275583   2.138  14.359  13.524
91251SOL     OW75584  14.759   1.294   1.827
91251SOL    HW175585  14.716   1.247   1.898
91251SOL    HW275586  14.758   1.232   1.753
91252SOL     OW75587   6.982  10.652   9.368
91252SOL    HW175588   6.973  10.747   9.370
91252SOL    HW275589   6.927  10.623   9.296
91253SOL     OW75590   4.607   6.674   4.474
91253SOL    HW175591   4.582   6.730   4.401
91253SOL    HW275592   4.656   6.602   4.433
91254SOL     OW75593   5.612  12.332   4.938
91254SOL    HW175594   5.698  12.366   4.916
91254SOL    HW275595   5.591  12.269   4.869
91255SOL     OW75596  14.469   0.006   5.548
91255SOL    HW175597  14.530   0.071   5.584
91255SOL    HW275598  14.455   0.034   5.457
91256SOL     OW75599   5.168   7.042  12.749
91256SOL    HW175600   5.111   6.970  12.777
91256SOL    HW275601   5.257   7.013  12.770
91257SOL     OW75602  10.345   2.400  11.380
91257SOL    HW175603  10.406   2.440  11.319
91257SOL    HW275604  10.398   2.341  11.434
91258SOL     OW75605   4.891   8.822   9.611
91258SOL    HW175606   4.944   8.769   9.671
91258SOL    HW275607   4.803   8.821   9.648
91259SOL     OW75608  13.679  14.594   5.171
91259SOL    HW175609  13.627  14.674   5.181
91259SOL    HW275610  13.664  14.545   5.252
91260SOL     OW75611   8.288  11.246   1.398
91260SOL    HW175612   8.254  11.205   1.318
91260SOL    HW275613   8.255  11.190   1.469
91261SOL     OW75614   6.905  12.009   1.893
91261SOL    HW175615   6.842  11.947   1.931
91261SOL    HW275616   6.860  12.046   1.818
91262SOL     OW75617   9.326  11.713   6.329
91262SOL    HW175618   9.355  11.772   6.398
91262SOL    HW275619   9.257  11.660   6.369
91263SOL     OW75620   5.456  13.321   8.180
91263SOL    HW175621   5.388  13.386   8.199
91263SOL    HW275622   5.492  13.299   8.266
91264SOL     OW75623   2.026   7.564  10.564
91264SOL    HW175624   2.105   7.510  10.572
91264SOL    HW275625   2.056   7.643  10.519
91265SOL     OW75626   5.932   7.961   3.416
91265SOL    HW175627   5.889   8.012   3.485
91265SOL    HW275628   5.878   7.976   3.338
91266SOL     OW75629   5.158   9.095   4.294
91266SOL    HW175630   5.066   9.082   4.316
91266SOL    HW275631   5.163   9.184   4.262
91267SOL     OW75632   7.818   6.966  10.476
91267SOL    HW175633   7.847   6.907  10.544
91267SOL    HW275634   7.729   6.991  10.502
91268SOL     OW75635   1.481   6.243  14.461
91268SOL    HW175636   1.452   6.319  14.512
91268SOL    HW275637   1.523   6.281  14.383
91269SOL     OW75638   6.930   2.602   1.510
91269SOL    HW175639   6.913   2.510   1.532
91269SOL    HW275640   6.936   2.646   1.595
91270SOL     OW75641   5.805  14.248  11.012
91270SOL    HW175642   5.727  14.278  10.964
91270SOL    HW275643   5.830  14.322  11.066
91271SOL     OW75644  10.324  11.563   2.608
91271SOL    HW175645  10.334  11.506   2.684
91271SOL    HW275646  10.297  11.647   2.646
91272SOL     OW75647   6.279   7.284  10.757
91272SOL    HW175648   6.250   7.216  10.696
91272SOL    HW275649   6.336   7.238  10.819
91273SOL     OW75650   4.128   5.310  12.388
91273SOL    HW175651   4.057   5.360  12.348
91273SOL    HW275652   4.191   5.375  12.418
91274SOL     OW75653   9.564   0.280   9.198
91274SOL    HW175654   9.548   0.354   9.139
91274SOL    HW275655   9.655   0.257   9.184
91275SOL     OW75656   1.472   2.412   6.904
91275SOL    HW175657   1.567   2.409   6.891
91275SOL    HW275658   1.439   2.335   6.857
91276SOL     OW75659   4.327  12.406   6.694
91276SOL    HW175660   4.298  12.361   6.773
91276SOL    HW275661   4.359  12.336   6.637
91277SOL     OW75662  13.055   5.790  13.586
91277SOL    HW175663  13.065   5.833  13.501
91277SOL    HW275664  13.046   5.861  13.649
91278SOL     OW75665  10.738   8.754  14.414
91278SOL    HW175666  10.735   8.793  14.502
91278SOL    HW275667  10.809   8.690  14.419
91279SOL     OW75668   5.174   3.866   6.789
91279SOL    HW175669   5.261   3.831   6.769
91279SOL    HW275670   5.189   3.928   6.860
91280SOL     OW75671   9.575   8.504  13.370
91280SOL    HW175672   9.597   8.587  13.327
91280SOL    HW275673   9.660   8.463  13.386
91281SOL     OW75674   3.553   6.926   6.955
91281SOL    HW175675   3.481   6.879   6.998
91281SOL    HW275676   3.586   6.986   7.023
91282SOL     OW75677   0.984  13.658   2.447
91282SOL    HW175678   1.065  13.613   2.471
91282SOL    HW275679   0.917  13.589   2.448
91283SOL     OW75680   4.215  12.741   1.370
91283SOL    HW175681   4.297  12.791   1.369
91283SOL    HW275682   4.240  12.653   1.343
91284SOL     OW75683   1.610   7.657   5.477
91284SOL    HW175684   1.534   7.706   5.446
91284SOL    HW275685   1.686   7.709   5.449
91285SOL     OW75686   4.881   5.861   9.057
91285SOL    HW175687   4.949   5.799   9.085
91285SOL    HW275688   4.825   5.871   9.134
91286SOL     OW75689  12.416   2.392   0.312
91286SOL    HW175690  12.367   2.363   0.389
91286SOL    HW275691  12.443   2.311   0.269
91287SOL     OW75692   8.642   0.393   9.674
91287SOL    HW175693   8.686   0.409   9.758
91287SOL    HW275694   8.550   0.413   9.691
91288SOL     OW75695   0.802   6.888   2.852
91288SOL    HW175696   0.807   6.983   2.850
91288SOL    HW275697   0.868   6.860   2.788
91289SOL     OW75698  10.501   6.253   6.494
91289SOL    HW175699  10.435   6.244   6.426
91289SOL    HW275700  10.580   6.282   6.448
91290SOL     OW75701   3.219   3.188  12.123
91290SOL    HW175702   3.151   3.125  12.146
91290SOL    HW275703   3.294   3.164  12.178
91291SOL     OW75704   1.841   0.525  14.490
91291SOL    HW175705   1.896   0.484  14.557
91291SOL    HW275706   1.836   0.617  14.515
91292SOL     OW75707  14.348   2.310   6.256
91292SOL    HW175708  14.372   2.353   6.174
91292SOL    HW275709  14.272   2.359   6.287
91293SOL     OW75710   0.602  12.579  12.917
91293SOL    HW175711   0.654  12.499  12.905
91293SOL    HW275712   0.547  12.583  12.839
91294SOL     OW75713  11.769   5.671   2.901
91294SOL    HW175714  11.799   5.704   2.817
91294SOL    HW275715  11.673   5.681   2.898
91295SOL     OW75716   4.757   9.164   9.103
91295SOL    HW175717   4.786   9.139   9.190
91295SOL    HW275718   4.692   9.233   9.118
91296SOL     OW75719  11.507   0.821   5.840
91296SOL    HW175720  11.421   0.845   5.874
91296SOL    HW275721  11.519   0.729   5.867
91297SOL     OW75722   4.191   8.870   0.976
91297SOL    HW175723   4.178   8.963   0.958
91297SOL    HW275724   4.274   8.849   0.934
91298SOL     OW75725   8.809   0.531   7.014
91298SOL    HW175726   8.856   0.591   7.071
91298SOL    HW275727   8.831   0.560   6.925
91299SOL     OW75728   9.236   6.657   9.121
91299SOL    HW175729   9.287   6.730   9.155
91299SOL    HW275730   9.249   6.587   9.185
91300SOL     OW75731   7.565   3.569   9.434
91300SOL    HW175732   7.617   3.492   9.455
91300SOL    HW275733   7.520   3.547   9.353
91301SOL     OW75734   4.465   8.560   8.730
91301SOL    HW175735   4.445   8.622   8.659
91301SOL    HW275736   4.534   8.604   8.780
91302SOL     OW75737   7.143   4.338  10.064
91302SOL    HW175738   7.153   4.426  10.027
91302SOL    HW275739   7.142   4.280   9.988
91303SOL     OW75740   8.004  10.564   6.474
91303SOL    HW175741   8.097  10.577   6.489
91303SOL    HW275742   7.997  10.482   6.426
91304SOL     OW75743  11.425   5.728   3.238
91304SOL    HW175744  11.363   5.657   3.222
91304SOL    HW275745  11.511   5.687   3.231
91305SOL     OW75746  12.001   4.861   0.771
91305SOL    HW175747  11.965   4.949   0.782
91305SOL    HW275748  12.085   4.864   0.815
91306SOL     OW75749  12.736   1.380   2.241
91306SOL    HW175750  12.720   1.471   2.265
91306SOL    HW275751  12.722   1.377   2.147
91307SOL     OW75752   6.644   9.615   4.827
91307SOL    HW175753   6.652   9.577   4.914
91307SOL    HW275754   6.721   9.583   4.780
91308SOL     OW75755   9.006  10.953   9.379
91308SOL    HW175756   9.044  10.875   9.339
91308SOL    HW275757   8.933  10.920   9.431
91309SOL     OW75758   2.934  10.065   0.247
91309SOL    HW175759   2.886  10.123   0.187
91309SOL    HW275760   3.024  10.096   0.245
91310SOL     OW75761   6.429  12.879   6.590
91310SOL    HW175762   6.485  12.814   6.548
91310SOL    HW275763   6.343  12.865   6.552
91311SOL     OW75764   7.268   0.799   2.654
91311SOL    HW175765   7.308   0.886   2.657
91311SOL    HW275766   7.330   0.747   2.603
91312SOL     OW75767   9.367  12.128   3.646
91312SOL    HW175768   9.296  12.181   3.681
91312SOL    HW275769   9.393  12.071   3.719
91313SOL     OW75770  12.473  11.927   5.593
91313SOL    HW175771  12.382  11.924   5.562
91313SOL    HW275772  12.510  11.842   5.567
91314SOL     OW75773   1.110  11.583   6.407
91314SOL    HW175774   1.018  11.609   6.403
91314SOL    HW275775   1.109  11.489   6.386
91315SOL     OW75776   3.182   0.136   9.189
91315SOL    HW175777   3.207   0.134   9.282
91315SOL    HW275778   3.182   0.228   9.166
91316SOL     OW75779   1.017  12.306   8.261
91316SOL    HW175780   0.945  12.323   8.201
91316SOL    HW275781   0.979  12.317   8.348
91317SOL     OW75782   4.828   6.703  11.465
91317SOL    HW175783   4.773   6.750  11.528
91317SOL    HW275784   4.767   6.677  11.396
91318SOL     OW75785   7.577   9.412  10.145
91318SOL    HW175786   7.512   9.346  10.120
91318SOL    HW275787   7.660   9.377  10.114
91319SOL     OW75788  12.224   1.813   9.208
91319SOL    HW175789  12.281   1.814   9.131
91319SOL    HW275790  12.250   1.734   9.256
91320SOL     OW75791   8.139   3.814  13.222
91320SOL    HW175792   8.152   3.820  13.127
91320SOL    HW275793   8.143   3.721  13.241
91321SOL     OW75794   8.847   7.845   2.548
91321SOL    HW175795   8.798   7.763   2.550
91321SOL    HW275796   8.938   7.819   2.561
91322SOL     OW75797  13.351  12.604   9.303
91322SOL    HW175798  13.345  12.620   9.209
91322SOL    HW275799  13.273  12.553   9.324
91323SOL     OW75800   2.032   5.961  11.829
91323SOL    HW175801   2.017   5.990  11.919
91323SOL    HW275802   2.125   5.977  11.814
91324SOL     OW75803  14.634   6.959  12.871
91324SOL    HW175804  14.615   6.933  12.781
91324SOL    HW275805  14.645   6.877  12.919
91325SOL     OW75806   6.034   7.446   9.253
91325SOL    HW175807   6.078   7.410   9.176
91325SOL    HW275808   6.028   7.371   9.313
91326SOL     OW75809   0.945   6.487   6.250
91326SOL    HW175810   0.923   6.460   6.161
91326SOL    HW275811   0.885   6.436   6.306
91327SOL     OW75812  14.469   8.516   3.902
91327SOL    HW175813  14.472   8.446   3.968
91327SOL    HW275814  14.406   8.485   3.837
91328SOL     OW75815   0.436  12.618  13.730
91328SOL    HW175816   0.422  12.711  13.746
91328SOL    HW275817   0.356  12.589  13.686
91329SOL     OW75818  12.418   4.303  14.132
91329SOL    HW175819  12.434   4.304  14.227
91329SOL    HW275820  12.405   4.395  14.110
91330SOL     OW75821  11.131  12.174  14.276
91330SOL    HW175822  11.139  12.250  14.334
91330SOL    HW275823  11.094  12.209  14.196
91331SOL     OW75824   7.440  14.470   2.127
91331SOL    HW175825   7.530  14.500   2.111
91331SOL    HW275826   7.385  14.534   2.080
91332SOL     OW75827  11.148   5.648   5.275
91332SOL    HW175828  11.116   5.735   5.251
91332SOL    HW275829  11.242   5.651   5.258
91333SOL     OW75830   1.671   2.905   5.450
91333SOL    HW175831   1.589   2.865   5.480
91333SOL    HW275832   1.675   2.883   5.357
91334SOL     OW75833  13.362   2.241   8.080
91334SOL    HW175834  13.270   2.268   8.088
91334SOL    HW275835  13.390   2.280   7.997
91335SOL     OW75836  14.815   5.041   8.103
91335SOL    HW175837  14.870   5.002   8.170
91335SOL    HW275838  14.729   5.049   8.143
91336SOL     OW75839  12.233  12.624   8.951
91336SOL    HW175840  12.174  12.639   9.024
91336SOL    HW275841  12.176  12.627   8.874
91337SOL     OW75842   8.197  11.031   4.109
91337SOL    HW175843   8.211  11.082   4.189
91337SOL    HW275844   8.269  10.967   4.108
91338SOL     OW75845   7.341  11.095   3.712
91338SOL    HW175846   7.357  11.003   3.732
91338SOL    HW275847   7.370  11.105   3.621
91339SOL     OW75848  14.631   0.293  13.086
91339SOL    HW175849  14.676   0.314  13.168
91339SOL    HW275850  14.654   0.202  13.069
91340SOL     OW75851  14.205   3.583   2.737
91340SOL    HW175852  14.288   3.604   2.695
91340SOL    HW275853  14.154   3.540   2.669
91341SOL     OW75854   6.657  10.197  10.113
91341SOL    HW175855   6.735  10.153  10.079
91341SOL    HW275856   6.642  10.157  10.198
91342SOL     OW75857   4.340  10.214  10.462
91342SOL    HW175858   4.285  10.156  10.410
91342SOL    HW275859   4.315  10.197  10.553
91343SOL     OW75860  14.302  14.543   4.339
91343SOL    HW175861  14.255  14.626   4.344
91343SOL    HW275862  14.327  14.524   4.429
91344SOL     OW75863  11.584  14.179  10.873
91344SOL    HW175864  11.572  14.086  10.889
91344SOL    HW275865  11.563  14.191  10.780
91345SOL     OW75866   0.428   5.990   7.734
91345SOL    HW175867   0.495   6.047   7.696
91345SOL    HW275868   0.346   6.035   7.718
91346SOL     OW75869   4.153  11.500   0.763
91346SOL    HW175870   4.214  11.518   0.691
91346SOL    HW275871   4.066  11.506   0.723
91347SOL     OW75872  10.668   6.981   7.434
91347SOL    HW175873  10.722   7.048   7.392
91347SOL    HW275874  10.587   6.980   7.383
91348SOL     OW75875   1.327   3.676  10.789
91348SOL    HW175876   1.389   3.639  10.725
91348SOL    HW275877   1.241   3.665  10.747
91349SOL     OW75878   7.432   1.235   5.824
91349SOL    HW175879   7.370   1.164   5.841
91349SOL    HW275880   7.386   1.294   5.765
91350SOL     OW75881   2.072   4.038  13.963
91350SOL    HW175882   2.038   4.127  13.961
91350SOL    HW275883   2.006   3.987  14.010
91351SOL     OW75884   7.668   3.945  12.815
91351SOL    HW175885   7.597   3.890  12.849
91351SOL    HW275886   7.625   4.025  12.786
91352SOL     OW75887   2.683  10.429   5.115
91352SOL    HW175888   2.776  10.438   5.139
91352SOL    HW275889   2.674  10.336   5.091
91353SOL     OW75890  13.126  10.685   5.843
91353SOL    HW175891  13.195  10.619   5.835
91353SOL    HW275892  13.104  10.707   5.752
91354SOL     OW75893   2.442  13.397  14.672
91354SOL    HW175894   2.509  13.374  14.737
91354SOL    HW275895   2.360  13.401  14.721
91355SOL     OW75896  12.950  14.503   1.118
91355SOL    HW175897  12.982  14.413   1.131
91355SOL    HW275898  12.890  14.496   1.044
91356SOL     OW75899   7.880   3.296   1.906
91356SOL    HW175900   7.859   3.282   1.999
91356SOL    HW275901   7.972   3.322   1.906
91357SOL     OW75902   6.581   0.230   4.104
91357SOL    HW175903   6.514   0.256   4.041
91357SOL    HW275904   6.663   0.262   4.067
91358SOL     OW75905  14.516   0.349  10.799
91358SOL    HW175906  14.572   0.273  10.785
91358SOL    HW275907  14.434   0.326  10.754
91359SOL     OW75908   7.873   7.769  12.440
91359SOL    HW175909   7.880   7.674  12.428
91359SOL    HW275910   7.956   7.793  12.481
91360SOL     OW75911  13.903  13.653   3.494
91360SOL    HW175912  13.893  13.728   3.552
91360SOL    HW275913  13.974  13.601   3.533
91361SOL     OW75914  10.998   6.395   8.354
91361SOL    HW175915  11.064   6.383   8.423
91361SOL    HW275916  11.044   6.370   8.274
91362SOL     OW75917  11.727   3.165   2.137
91362SOL    HW175918  11.634   3.169   2.113
91362SOL    HW275919  11.736   3.229   2.208
91363SOL     OW75920   5.291   4.519  12.324
91363SOL    HW175921   5.340   4.500  12.404
91363SOL    HW275922   5.248   4.436  12.301
91364SOL     OW75923   6.207   0.310   9.347
91364SOL    HW175924   6.168   0.365   9.279
91364SOL    HW275925   6.215   0.223   9.306
91365SOL     OW75926   3.047  13.092  14.491
91365SOL    HW175927   3.055  13.055  14.579
91365SOL    HW275928   3.057  13.016  14.433
91366SOL     OW75929   7.996  12.097   1.216
91366SOL    HW175930   7.940  12.058   1.283
91366SOL    HW275931   7.969  12.055   1.134
91367SOL     OW75932   5.223  10.317   2.702
91367SOL    HW175933   5.231  10.398   2.653
91367SOL    HW275934   5.283  10.327   2.776
91368SOL     OW75935   4.694   9.731  11.051
91368SOL    HW175936   4.658   9.785  11.121
91368SOL    HW275937   4.788   9.747  11.054
91369SOL     OW75938  13.900   2.016   2.767
91369SOL    HW175939  13.834   2.033   2.700
91369SOL    HW275940  13.858   1.953   2.826
91370SOL     OW75941   6.895   4.965  12.240
91370SOL    HW175942   6.967   4.957  12.303
91370SOL    HW275943   6.910   5.048  12.196
91371SOL     OW75944   0.812   6.987   5.796
91371SOL    HW175945   0.801   7.078   5.822
91371SOL    HW275946   0.836   6.942   5.877
91372SOL     OW75947   7.387   5.903   1.103
91372SOL    HW175948   7.379   5.809   1.087
91372SOL    HW275949   7.305   5.940   1.070
91373SOL     OW75950   3.556   3.951  12.405
91373SOL    HW175951   3.649   3.972  12.405
91373SOL    HW275952   3.553   3.856  12.390
91374SOL     OW75953   9.747  13.640   1.243
91374SOL    HW175954   9.813  13.707   1.225
91374SOL    HW275955   9.791  13.557   1.225
91375SOL     OW75956   2.233  13.870   6.838
91375SOL    HW175957   2.237  13.805   6.907
91375SOL    HW275958   2.241  13.820   6.757
91376SOL     OW75959   4.857   8.342   3.514
91376SOL    HW175960   4.808   8.263   3.537
91376SOL    HW275961   4.945   8.311   3.491
91377SOL     OW75962   3.638   4.300  10.791
91377SOL    HW175963   3.600   4.239  10.728
91377SOL    HW275964   3.607   4.386  10.763
91378SOL     OW75965   9.718   9.162   3.250
91378SOL    HW175966   9.688   9.249   3.279
91378SOL    HW275967   9.811   9.175   3.230
91379SOL     OW75968   0.757  11.687  14.359
91379SOL    HW175969   0.674  11.712  14.318
91379SOL    HW275970   0.815  11.761  14.343
91380SOL     OW75971   3.709   4.282  14.234
91380SOL    HW175972   3.721   4.365  14.188
91380SOL    HW275973   3.797   4.245  14.240
91381SOL     OW75974   5.195   8.758  14.192
91381SOL    HW175975   5.120   8.813  14.216
91381SOL    HW275976   5.159   8.670  14.184
91382SOL     OW75977   7.195   0.859   6.965
91382SOL    HW175978   7.114   0.832   7.009
91382SOL    HW275979   7.253   0.783   6.972
91383SOL     OW75980   4.849  12.490   7.801
91383SOL    HW175981   4.890  12.415   7.758
91383SOL    HW275982   4.757  12.485   7.774
91384SOL     OW75983   6.635  14.826   5.986
91384SOL    HW175984   6.592  14.788   6.064
91384SOL    HW275985   6.587  14.788   5.912
91385SOL     OW75986   4.117   4.877   1.804
91385SOL    HW175987   4.102   4.864   1.897
91385SOL    HW275988   4.033   4.855   1.763
91386SOL     OW75989   1.286   6.318  13.018
91386SOL    HW175990   1.236   6.269  13.083
91386SOL    HW275991   1.225   6.386  12.987
91387SOL     OW75992   7.054   0.178   6.353
91387SOL    HW175993   7.007   0.262   6.354
91387SOL    HW275994   7.014   0.129   6.282
91388SOL     OW75995   4.671   8.115   9.459
91388SOL    HW175996   4.657   8.209   9.470
91388SOL    HW275997   4.603   8.087   9.398
91389SOL     OW75998   1.761  11.099   2.897
91389SOL    HW175999   1.736  11.017   2.854
91389SOL    HW276000   1.856  11.093   2.907
91390SOL     OW76001   7.790   0.350   9.577
91390SOL    HW176002   7.771   0.429   9.525
91390SOL    HW276003   7.722   0.287   9.550
91391SOL     OW76004   0.099  14.199  12.545
91391SOL    HW176005   0.036  14.269  12.560
91391SOL    HW276006   0.101  14.189  12.450
91392SOL     OW76007   5.676  11.788   8.186
91392SOL    HW176008   5.675  11.853   8.115
91392SOL    HW276009   5.596  11.737   8.171
91393SOL     OW76010   3.755  12.411   2.587
91393SOL    HW176011   3.693  12.338   2.600
91393SOL    HW276012   3.805  12.413   2.668
91394SOL     OW76013   0.683   6.828   0.211
91394SOL    HW176014   0.666   6.811   0.118
91394SOL    HW276015   0.772   6.794   0.226
91395SOL     OW76016   8.507  10.102   5.020
91395SOL    HW176017   8.513  10.031   5.083
91395SOL    HW276018   8.598  10.128   5.006
91396SOL     OW76019  13.696   6.875   9.184
91396SOL    HW176020  13.616   6.925   9.168
91396SOL    HW276021  13.758   6.940   9.218
91397SOL     OW76022  12.756   6.704   5.368
91397SOL    HW176023  12.682   6.669   5.418
91397SOL    HW276024  12.778   6.786   5.411
91398SOL     OW76025   2.826   3.422   7.756
91398SOL    HW176026   2.772   3.494   7.788
91398SOL    HW276027   2.847   3.370   7.834
91399SOL     OW76028   3.196   8.560   8.410
91399SOL    HW176029   3.235   8.622   8.348
91399SOL    HW276030   3.229   8.475   8.382
91400SOL     OW76031  13.224   8.924   5.025
91400SOL    HW176032  13.136   8.916   5.062
91400SOL    HW276033  13.221   9.002   4.970
91401SOL     OW76034   9.154  14.662  13.001
91401SOL    HW176035   9.149  14.697  13.090
91401SOL    HW276036   9.084  14.706  12.954
91402SOL     OW76037   8.046   6.209   0.700
91402SOL    HW176038   8.053   6.279   0.764
91402SOL    HW276039   8.062   6.129   0.750
91403SOL     OW76040  14.104   7.650   6.543
91403SOL    HW176041  14.011   7.639   6.526
91403SOL    HW276042  14.129   7.571   6.592
91404SOL     OW76043   6.958   8.650   3.372
91404SOL    HW176044   6.922   8.732   3.337
91404SOL    HW276045   7.052   8.654   3.351
91405SOL     OW76046   2.572   5.380   4.296
91405SOL    HW176047   2.562   5.439   4.370
91405SOL    HW276048   2.562   5.436   4.219
91406SOL     OW76049   0.674   9.486   8.277
91406SOL    HW176050   0.683   9.576   8.310
91406SOL    HW276051   0.586   9.484   8.239
91407SOL     OW76052  12.844   2.035  13.603
91407SOL    HW176053  12.849   2.122  13.642
91407SOL    HW276054  12.755   2.030  13.567
91408SOL     OW76055   6.895  10.220  13.526
91408SOL    HW176056   6.936  10.133  13.524
91408SOL    HW276057   6.937  10.264  13.600
91409SOL     OW76058  11.888   9.740  14.349
91409SOL    HW176059  11.924   9.817  14.393
91409SOL    HW276060  11.926   9.665  14.395
91410SOL     OW76061   6.669   8.587   5.239
91410SOL    HW176062   6.713   8.660   5.282
91410SOL    HW276063   6.639   8.622   5.155
91411SOL     OW76064  10.317   0.952  12.027
91411SOL    HW176065  10.260   0.955  12.103
91411SOL    HW276066  10.277   0.885  11.970
91412SOL     OW76067  10.110   7.876   4.379
91412SOL    HW176068  10.117   7.796   4.430
91412SOL    HW276069  10.072   7.849   4.295
91413SOL     OW76070   1.353  13.629   9.978
91413SOL    HW176071   1.307  13.552  10.010
91413SOL    HW276072   1.287  13.698   9.979
91414SOL     OW76073   8.748   8.624  12.755
91414SOL    HW176074   8.663   8.621  12.799
91414SOL    HW276075   8.731   8.672  12.674
91415SOL     OW76076   3.897   5.178  11.296
91415SOL    HW176077   3.843   5.246  11.337
91415SOL    HW276078   3.979   5.222  11.275
91416SOL     OW76079  13.635   8.884   2.012
91416SOL    HW176080  13.595   8.799   2.033
91416SOL    HW276081  13.689   8.867   1.935
91417SOL     OW76082   6.974   4.306  14.579
91417SOL    HW176083   7.060   4.271  14.554
91417SOL    HW276084   6.912   4.239  14.551
91418SOL     OW76085   5.928   3.878   5.455
91418SOL    HW176086   5.964   3.899   5.369
91418SOL    HW276087   5.933   3.782   5.460
91419SOL     OW76088   9.102   4.668   7.050
91419SOL    HW176089   9.188   4.672   7.093
91419SOL    HW276090   9.046   4.625   7.114
91420SOL     OW76091   5.566  10.910   0.658
91420SOL    HW176092   5.630  10.840   0.661
91420SOL    HW276093   5.618  10.990   0.665
91421SOL     OW76094  13.870   0.156   8.034
91421SOL    HW176095  13.787   0.195   8.011
91421SOL    HW276096  13.891   0.192   8.121
91422SOL     OW76097  13.048   7.974   1.900
91422SOL    HW176098  12.994   8.017   1.967
91422SOL    HW276099  13.027   7.881   1.908
91423SOL     OW76100   0.216  14.390   3.223
91423SOL    HW176101   0.226  14.409   3.317
91423SOL    HW276102   0.145  14.449   3.195
91424SOL     OW76103   4.842   1.956  10.684
91424SOL    HW176104   4.757   1.988  10.715
91424SOL    HW276105   4.905   2.017  10.721
91425SOL     OW76106   2.089   2.086   1.854
91425SOL    HW176107   2.154   2.019   1.832
91425SOL    HW276108   2.130   2.168   1.826
91426SOL     OW76109   7.292   8.426   7.585
91426SOL    HW176110   7.282   8.373   7.664
91426SOL    HW276111   7.234   8.501   7.600
91427SOL     OW76112  10.672  13.311   7.629
91427SOL    HW176113  10.583  13.302   7.596
91427SOL    HW276114  10.663  13.362   7.710
91428SOL     OW76115   3.613  13.748  14.250
91428SOL    HW176116   3.590  13.655  14.245
91428SOL    HW276117   3.557  13.790  14.185
91429SOL     OW76118  12.854   9.542   2.882
91429SOL    HW176119  12.786   9.580   2.827
91429SOL    HW276120  12.819   9.457   2.909
91430SOL     OW76121  14.694  11.979   3.139
91430SOL    HW176122  14.663  11.894   3.108
91430SOL    HW276123  14.788  11.979   3.121
91431SOL     OW76124  11.710   3.326   2.581
91431SOL    HW176125  11.744   3.355   2.666
91431SOL    HW276126  11.621   3.360   2.578
91432SOL     OW76127   8.077   7.595   4.719
91432SOL    HW176128   8.168   7.574   4.702
91432SOL    HW276129   8.036   7.597   4.633
91433SOL     OW76130   4.568  14.412  11.916
91433SOL    HW176131   4.476  14.391  11.930
91433SOL    HW276132   4.613  14.328  11.915
91434SOL     OW76133  14.754   6.267   7.208
91434SOL    HW176134  14.759   6.210   7.131
91434SOL    HW276135  14.718   6.210   7.276
91435SOL     OW76136   3.965  10.425   6.792
91435SOL    HW176137   3.906  10.426   6.868
91435SOL    HW276138   3.908  10.403   6.718
91436SOL     OW76139   5.689  14.543   8.598
91436SOL    HW176140   5.601  14.552   8.636
91436SOL    HW276141   5.711  14.451   8.613
91437SOL     OW76142   2.699   5.494   7.657
91437SOL    HW176143   2.636   5.554   7.618
91437SOL    HW276144   2.655   5.409   7.655
91438SOL     OW76145  13.472   4.767  13.712
91438SOL    HW176146  13.413   4.765  13.788
91438SOL    HW276147  13.541   4.705  13.734
91439SOL     OW76148  12.412  11.021   4.596
91439SOL    HW176149  12.431  11.100   4.546
91439SOL    HW276150  12.457  11.034   4.679
91440SOL     OW76151   1.982  14.648   5.622
91440SOL    HW176152   1.961  14.715   5.557
91440SOL    HW276153   2.045  14.590   5.579
91441SOL     OW76154   4.639   5.465  14.575
91441SOL    HW176155   4.560   5.519  14.583
91441SOL    HW276156   4.710   5.529  14.567
91442SOL     OW76157  13.598   4.964  13.012
91442SOL    HW176158  13.690   4.977  13.033
91442SOL    HW276159  13.569   4.895  13.071
91443SOL     OW76160   3.257   0.144   8.827
91443SOL    HW176161   3.237   0.092   8.905
91443SOL    HW276162   3.175   0.189   8.807
91444SOL     OW76163   9.803  10.435   9.675
91444SOL    HW176164   9.717  10.475   9.687
91444SOL    HW276165   9.784  10.348   9.640
91445SOL     OW76166   9.225   7.470   2.191
91445SOL    HW176167   9.208   7.554   2.148
91445SOL    HW276168   9.182   7.405   2.136
91446SOL     OW76169  14.088   4.329  11.635
91446SOL    HW176170  14.111   4.236  11.636
91446SOL    HW276171  14.138   4.367  11.708
91447SOL     OW76172  12.836   0.771   8.319
91447SOL    HW176173  12.876   0.684   8.321
91447SOL    HW276174  12.816   0.786   8.227
91448SOL     OW76175  10.296   2.248   0.506
91448SOL    HW176176  10.279   2.332   0.464
91448SOL    HW276177  10.213   2.200   0.501
91449SOL     OW76178   1.909   0.309  14.687
91449SOL    HW176179   1.983   0.272  14.735
91449SOL    HW276180   1.886   0.388  14.735
91450SOL     OW76181   7.273  11.292   9.139
91450SOL    HW176182   7.194  11.313   9.088
91450SOL    HW276183   7.338  11.267   9.072
91451SOL     OW76184   8.586   1.138  13.027
91451SOL    HW176185   8.615   1.131  12.936
91451SOL    HW276186   8.620   1.222  13.057
91452SOL     OW76187  13.377   3.829   8.570
91452SOL    HW176188  13.377   3.925   8.578
91452SOL    HW276189  13.302   3.800   8.622
91453SOL     OW76190   8.852  12.408   3.212
91453SOL    HW176191   8.763  12.439   3.198
91453SOL    HW276192   8.903  12.449   3.142
91454SOL     OW76193  14.772  14.839   4.713
91454SOL    HW176194  14.734   0.037   4.660
91454SOL    HW276195  14.704  14.820   4.779
91455SOL     OW76196   3.709   4.304  11.522
91455SOL    HW176197   3.661   4.320  11.442
91455SOL    HW276198   3.657   4.240  11.570
91456SOL     OW76199  13.713   1.048   3.649
91456SOL    HW176200  13.697   1.108   3.722
91456SOL    HW276201  13.745   1.104   3.579
91457SOL     OW76202   3.233  13.809   8.700
91457SOL    HW176203   3.281  13.777   8.777
91457SOL    HW276204   3.141  13.812   8.729
91458SOL     OW76205  12.316   3.000   8.350
91458SOL    HW176206  12.227   3.034   8.358
91458SOL    HW276207  12.346   2.989   8.440
91459SOL     OW76208  13.954  13.883  13.624
91459SOL    HW176209  13.890  13.937  13.671
91459SOL    HW276210  13.994  13.830  13.693
91460SOL     OW76211  14.598  10.376  10.215
91460SOL    HW176212  14.533  10.390  10.145
91460SOL    HW276213  14.550  10.329  10.283
91461SOL     OW76214   6.602  14.830   1.394
91461SOL    HW176215   6.653  14.872   1.325
91461SOL    HW276216   6.529  14.789   1.348
91462SOL     OW76217   1.451   4.350   4.785
91462SOL    HW176218   1.492   4.330   4.869
91462SOL    HW276219   1.398   4.428   4.802
91463SOL     OW76220   8.733   8.723   3.215
91463SOL    HW176221   8.808   8.727   3.274
91463SOL    HW276222   8.764   8.674   3.139
91464SOL     OW76223   9.899   3.252   1.236
91464SOL    HW176224   9.849   3.304   1.174
91464SOL    HW276225   9.871   3.283   1.322
91465SOL     OW76226   2.330   8.320   1.507
91465SOL    HW176227   2.335   8.268   1.586
91465SOL    HW276228   2.260   8.383   1.524
91466SOL     OW76229   9.522   0.350   2.913
91466SOL    HW176230   9.467   0.413   2.866
91466SOL    HW276231   9.464   0.275   2.928
91467SOL     OW76232   6.696   9.084  14.336
91467SOL    HW176233   6.728   9.149  14.273
91467SOL    HW276234   6.719   9.000  14.296
91468SOL     OW76235   1.650   2.094  13.105
91468SOL    HW176236   1.690   2.008  13.116
91468SOL    HW276237   1.718   2.156  13.132
91469SOL     OW76238   1.047   6.735   3.916
91469SOL    HW176239   0.977   6.727   3.980
91469SOL    HW276240   1.125   6.702   3.961
91470SOL     OW76241   6.370  11.272   5.505
91470SOL    HW176242   6.278  11.251   5.523
91470SOL    HW276243   6.374  11.286   5.411
91471SOL     OW76244   0.949  13.944   6.187
91471SOL    HW176245   1.011  14.014   6.167
91471SOL    HW276246   0.999  13.883   6.241
91472SOL     OW76247  12.700   0.346   6.291
91472SOL    HW176248  12.726   0.302   6.210
91472SOL    HW276249  12.608   0.322   6.303
91473SOL     OW76250   2.804   5.936   1.591
91473SOL    HW176251   2.795   5.878   1.665
91473SOL    HW276252   2.899   5.951   1.583
91474SOL     OW76253   1.588   8.215  13.266
91474SOL    HW176254   1.499   8.236  13.240
91474SOL    HW276255   1.642   8.239  13.190
91475SOL     OW76256   6.642   8.971   0.654
91475SOL    HW176257   6.619   9.018   0.735
91475SOL    HW276258   6.623   9.033   0.584
91476SOL     OW76259  12.440   4.486   0.483
91476SOL    HW176260  12.373   4.417   0.481
91476SOL    HW276261  12.465   4.496   0.392
91477SOL     OW76262  10.220  12.081   3.076
91477SOL    HW176263  10.215  11.988   3.053
91477SOL    HW276264  10.263  12.083   3.162
91478SOL     OW76265  12.038   2.784   1.030
91478SOL    HW176266  11.980   2.837   0.974
91478SOL    HW276267  11.984   2.760   1.105
91479SOL     OW76268   5.713  10.354   4.352
91479SOL    HW176269   5.787  10.409   4.378
91479SOL    HW276270   5.721  10.275   4.406
91480SOL     OW76271   7.237   1.275  14.103
91480SOL    HW176272   7.288   1.248  14.026
91480SOL    HW276273   7.233   1.371  14.096
91481SOL     OW76274  11.651  10.686   3.218
91481SOL    HW176275  11.641  10.620   3.286
91481SOL    HW276276  11.743  10.682   3.193
91482SOL     OW76277   8.182  12.156   7.783
91482SOL    HW176278   8.156  12.071   7.747
91482SOL    HW276279   8.260  12.138   7.835
91483SOL     OW76280  12.934   4.375   8.138
91483SOL    HW176281  12.869   4.305   8.146
91483SOL    HW276282  12.882   4.455   8.128
91484SOL     OW76283  11.558   8.209  11.905
91484SOL    HW176284  11.632   8.222  11.964
91484SOL    HW276285  11.564   8.281  11.843
91485SOL     OW76286   0.574   5.022   6.172
91485SOL    HW176287   0.549   4.975   6.251
91485SOL    HW276288   0.667   5.000   6.160
91486SOL     OW76289   4.822   9.317   4.999
91486SOL    HW176290   4.902   9.283   5.039
91486SOL    HW276291   4.751   9.278   5.051
91487SOL     OW76292  13.602  14.377   2.803
91487SOL    HW176293  13.686  14.381   2.850
91487SOL    HW276294  13.607  14.449   2.740
91488SOL     OW76295   1.179   5.196   0.325
91488SOL    HW176296   1.093   5.174   0.288
91488SOL    HW276297   1.169   5.286   0.357
91489SOL     OW76298   7.125  11.703   9.566
91489SOL    HW176299   7.187  11.774   9.550
91489SOL    HW276300   7.122  11.695   9.661
91490SOL     OW76301  12.168  10.482  10.573
91490SOL    HW176302  12.123  10.562  10.545
91490SOL    HW276303  12.176  10.430  10.492
91491SOL     OW76304   7.970   4.535   0.779
91491SOL    HW176305   8.003   4.605   0.723
91491SOL    HW276306   7.951   4.463   0.719
91492SOL     OW76307   3.946   8.936   3.643
91492SOL    HW176308   3.881   8.942   3.712
91492SOL    HW276309   3.940   8.845   3.613
91493SOL     OW76310  13.071  10.057   1.939
91493SOL    HW176311  13.037   9.995   2.004
91493SOL    HW276312  13.014  10.045   1.863
91494SOL     OW76313   0.686  14.300   9.145
91494SOL    HW176314   0.648  14.355   9.213
91494SOL    HW276315   0.717  14.222   9.191
91495SOL     OW76316   9.251  12.054  10.144
91495SOL    HW176317   9.178  12.004  10.180
91495SOL    HW276318   9.317  12.053  10.213
91496SOL     OW76319  10.141   9.377   5.407
91496SOL    HW176320  10.198   9.432   5.354
91496SOL    HW276321  10.192   9.356   5.485
91497SOL     OW76322   9.863   5.061  11.066
91497SOL    HW176323   9.956   5.072  11.049
91497SOL    HW276324   9.841   5.133  11.125
91498SOL     OW76325   1.818  12.540   4.439
91498SOL    HW176326   1.865  12.540   4.355
91498SOL    HW276327   1.786  12.451   4.449
91499SOL     OW76328   0.859   2.537  14.410
91499SOL    HW176329   0.826   2.562  14.496
91499SOL    HW276330   0.847   2.442  14.406
91500SOL     OW76331   2.773   2.446   2.744
91500SOL    HW176332   2.731   2.532   2.754
91500SOL    HW276333   2.704   2.390   2.708
91501SOL     OW76334  11.037  10.637   3.427
91501SOL    HW176335  10.985  10.687   3.365
91501SOL    HW276336  11.086  10.574   3.374
91502SOL     OW76337   6.854   7.335   1.487
91502SOL    HW176338   6.949   7.344   1.483
91502SOL    HW276339   6.825   7.334   1.396
91503SOL     OW76340  12.272   4.164  13.050
91503SOL    HW176341  12.225   4.119  13.120
91503SOL    HW276342  12.255   4.257  13.066
91504SOL     OW76343   0.187   7.275   2.352
91504SOL    HW176344   0.115   7.271   2.290
91504SOL    HW276345   0.224   7.186   2.352
91505SOL     OW76346   5.180   2.315   9.465
91505SOL    HW176347   5.136   2.283   9.544
91505SOL    HW276348   5.140   2.400   9.448
91506SOL     OW76349   4.790   8.003  10.419
91506SOL    HW176350   4.801   8.049  10.336
91506SOL    HW276351   4.701   8.026  10.446
91507SOL     OW76352  10.005   6.715  13.163
91507SOL    HW176353   9.980   6.678  13.078
91507SOL    HW276354  10.075   6.659  13.195
91508SOL     OW76355   4.789  12.631   9.024
91508SOL    HW176356   4.738  12.664   8.951
91508SOL    HW276357   4.880  12.644   8.998
91509SOL     OW76358  11.088  13.130   4.671
91509SOL    HW176359  11.180  13.148   4.690
91509SOL    HW276360  11.055  13.089   4.750
91510SOL     OW76361   1.921   4.951   4.975
91510SOL    HW176362   2.000   4.901   4.955
91510SOL    HW276363   1.881   4.904   5.048
91511SOL     OW76364   1.048   4.505   7.055
91511SOL    HW176365   1.108   4.468   6.991
91511SOL    HW276366   1.102   4.526   7.130
91512SOL     OW76367   9.904   8.836  14.659
91512SOL    HW176368   9.927   8.771  14.593
91512SOL    HW276369   9.932   8.798  14.742
91513SOL     OW76370   1.989   5.320   8.007
91513SOL    HW176371   1.932   5.277   8.072
91513SOL    HW276372   2.051   5.252   7.981
91514SOL     OW76373  12.860   9.331   1.970
91514SOL    HW176374  12.887   9.414   1.931
91514SOL    HW276375  12.804   9.355   2.043
91515SOL     OW76376  13.039   2.631   3.810
91515SOL    HW176377  12.966   2.680   3.771
91515SOL    HW276378  13.104   2.626   3.740
91516SOL     OW76379   1.983   1.788   1.101
91516SOL    HW176380   1.893   1.806   1.075
91516SOL    HW276381   2.033   1.794   1.019
91517SOL     OW76382   4.029   7.403  11.935
91517SOL    HW176383   4.066   7.355  11.861
91517SOL    HW276384   4.067   7.491  11.927
91518SOL     OW76385   2.601   0.943   3.765
91518SOL    HW176386   2.609   0.852   3.736
91518SOL    HW276387   2.626   0.995   3.689
91519SOL     OW76388   4.043  11.301   1.525
91519SOL    HW176389   4.113  11.256   1.572
91519SOL    HW276390   4.010  11.365   1.589
91520SOL     OW76391  14.714   8.986  11.392
91520SOL    HW176392  14.626   8.950  11.386
91520SOL    HW276393  14.708   9.055  11.457
91521SOL     OW76394  13.413   4.941  13.342
91521SOL    HW176395  13.395   4.883  13.416
91521SOL    HW276396  13.394   4.888  13.265
91522SOL     OW76397   6.786   7.684   8.741
91522SOL    HW176398   6.857   7.625   8.715
91522SOL    HW276399   6.774   7.667   8.834
91523SOL     OW76400   4.837  14.289   0.109
91523SOL    HW176401   4.765  14.299   0.047
91523SOL    HW276402   4.831  14.366   0.166
91524SOL     OW76403  13.678  10.371   0.076
91524SOL    HW176404  13.695  10.459   0.042
91524SOL    HW276405  13.583  10.361   0.069
91525SOL     OW76406   4.358  10.153  13.417
91525SOL    HW176407   4.322  10.132  13.330
91525SOL    HW276408   4.427  10.217  13.399
91526SOL     OW76409  11.027   0.583  14.283
91526SOL    HW176410  10.993   0.672  14.285
91526SOL    HW276411  11.043   0.566  14.190
91527SOL     OW76412   8.286   3.235   9.883
91527SOL    HW176413   8.224   3.169   9.853
91527SOL    HW276414   8.235   3.291   9.942
91528SOL     OW76415   6.804   9.984   5.594
91528SOL    HW176416   6.811  10.015   5.684
91528SOL    HW276417   6.893   9.991   5.560
91529SOL     OW76418  10.113   9.413  14.498
91529SOL    HW176419  10.175   9.476  14.460
91529SOL    HW276420  10.169   9.345  14.537
91530SOL     OW76421  14.068  13.784  10.579
91530SOL    HW176422  13.989  13.833  10.555
91530SOL    HW276423  14.067  13.782  10.675
91531SOL     OW76424   2.911   7.535   4.770
91531SOL    HW176425   2.923   7.578   4.685
91531SOL    HW276426   2.948   7.447   4.757
91532SOL     OW76427   4.061   4.727  11.773
91532SOL    HW176428   4.102   4.801  11.727
91532SOL    HW276429   4.045   4.662  11.705
91533SOL     OW76430  13.886  12.514   4.686
91533SOL    HW176431  13.833  12.566   4.626
91533SOL    HW276432  13.937  12.578   4.735
91534SOL     OW76433   1.848   3.339   5.938
91534SOL    HW176434   1.914   3.358   5.871
91534SOL    HW276435   1.777   3.297   5.890
91535SOL     OW76436   0.111   5.073  13.662
91535SOL    HW176437   0.079   5.016  13.732
91535SOL    HW276438   0.037   5.128  13.640
91536SOL     OW76439   3.279   3.101   7.603
91536SOL    HW176440   3.309   3.161   7.535
91536SOL    HW276441   3.193   3.071   7.573
91537SOL     OW76442   4.624   5.586   3.213
91537SOL    HW176443   4.680   5.588   3.291
91537SOL    HW276444   4.583   5.673   3.211
91538SOL     OW76445   0.411  11.133   2.434
91538SOL    HW176446   0.488  11.188   2.451
91538SOL    HW276447   0.446  11.044   2.430
91539SOL     OW76448   0.123  13.627   8.586
91539SOL    HW176449   0.092  13.575   8.660
91539SOL    HW276450   0.212  13.653   8.610
91540SOL     OW76451   0.853   3.485  12.473
91540SOL    HW176452   0.874   3.577  12.453
91540SOL    HW276453   0.767   3.471  12.433
91541SOL     OW76454  14.457   9.068   9.182
91541SOL    HW176455  14.501   9.152   9.173
91541SOL    HW276456  14.446   9.037   9.092
91542SOL     OW76457   7.592   2.974   2.834
91542SOL    HW176458   7.518   3.026   2.803
91542SOL    HW276459   7.586   2.892   2.785
91543SOL     OW76460   6.844  11.109  13.531
91543SOL    HW176461   6.814  11.190  13.572
91543SOL    HW276462   6.774  11.085  13.470
91544SOL     OW76463   2.524   1.587   9.940
91544SOL    HW176464   2.461   1.524   9.905
91544SOL    HW276465   2.579   1.536   9.999
91545SOL     OW76466  11.561   7.968  13.160
91545SOL    HW176467  11.622   7.994  13.229
91545SOL    HW276468  11.617   7.945  13.085
91546SOL     OW76469   0.751   1.531   7.079
91546SOL    HW176470   0.745   1.450   7.129
91546SOL    HW276471   0.773   1.598   7.144
91547SOL     OW76472   0.106   1.799   1.272
91547SOL    HW176473   0.074   1.710   1.258
91547SOL    HW276474   0.031   1.846   1.309
91548SOL     OW76475  12.525   4.276  10.849
91548SOL    HW176476  12.460   4.335  10.810
91548SOL    HW276477  12.472   4.212  10.898
91549SOL     OW76478  10.798   1.401  13.604
91549SOL    HW176479  10.856   1.378  13.677
91549SOL    HW276480  10.808   1.330  13.541
91550SOL     OW76481   7.048   3.027   8.712
91550SOL    HW176482   7.135   3.023   8.751
91550SOL    HW276483   7.003   2.949   8.746
91551SOL     OW76484   1.019   9.146  14.857
91551SOL    HW176485   1.085   9.076  14.854
91551SOL    HW276486   1.061   9.221  14.816
91552SOL     OW76487   7.823   8.680  10.022
91552SOL    HW176488   7.845   8.717  10.108
91552SOL    HW276489   7.780   8.597  10.042
91553SOL     OW76490   2.291   9.327   0.085
91553SOL    HW176491   2.275   9.277   0.165
91553SOL    HW276492   2.385   9.316   0.070
91554SOL     OW76493   1.348   2.779   2.693
91554SOL    HW176494   1.338   2.780   2.788
91554SOL    HW276495   1.259   2.789   2.660
91555SOL     OW76496   7.718   4.839   0.214
91555SOL    HW176497   7.778   4.842   0.288
91555SOL    HW276498   7.663   4.917   0.224
91556SOL     OW76499  13.506   5.344  11.560
91556SOL    HW176500  13.540   5.433  11.561
91556SOL    HW276501  13.458   5.336  11.478
91557SOL     OW76502   8.238   1.944   0.101
91557SOL    HW176503   8.162   1.914   0.151
91557SOL    HW276504   8.267   1.866   0.054
91558SOL     OW76505  11.220  10.678  13.025
91558SOL    HW176506  11.133  10.644  13.044
91558SOL    HW276507  11.218  10.700  12.932
91559SOL     OW76508   7.680  10.595  14.269
91559SOL    HW176509   7.699  10.613  14.177
91559SOL    HW276510   7.679  10.499  14.275
91560SOL     OW76511  14.641   8.658   5.115
91560SOL    HW176512  14.552   8.638   5.145
91560SOL    HW276513  14.669   8.730   5.170
91561SOL     OW76514  14.760  12.464  14.258
91561SOL    HW176515  14.668  12.462  14.284
91561SOL    HW276516  14.775  12.378  14.218
91562SOL     OW76517   4.359   1.762   2.133
91562SOL    HW176518   4.425   1.827   2.109
91562SOL    HW276519   4.284   1.782   2.077
91563SOL     OW76520   8.251   6.630   6.199
91563SOL    HW176521   8.292   6.676   6.125
91563SOL    HW276522   8.191   6.694   6.235
91564SOL     OW76523   3.708   0.297  13.436
91564SOL    HW176524   3.676   0.207  13.439
91564SOL    HW276525   3.727   0.313  13.344
91565SOL     OW76526  13.560  12.282  10.281
91565SOL    HW176527  13.535  12.298  10.372
91565SOL    HW276528  13.565  12.187  10.273
91566SOL     OW76529   8.523   1.002   5.437
91566SOL    HW176530   8.528   0.953   5.355
91566SOL    HW276531   8.579   0.953   5.497
91567SOL     OW76532   7.602   1.194  11.177
91567SOL    HW176533   7.687   1.221  11.213
91567SOL    HW276534   7.581   1.262  11.113
91568SOL     OW76535  12.073  10.349   9.322
91568SOL    HW176536  12.102  10.436   9.295
91568SOL    HW276537  12.148  10.292   9.306
91569SOL     OW76538   1.826   8.110   0.007
91569SOL    HW176539   1.808   8.179   0.071
91569SOL    HW276540   1.814   8.029   0.055
91570SOL     OW76541   5.416   8.722  13.438
91570SOL    HW176542   5.350   8.755  13.376
91570SOL    HW276543   5.367   8.703  13.518
91571SOL     OW76544   2.036   1.204   1.312
91571SOL    HW176545   2.004   1.277   1.366
91571SOL    HW276546   2.088   1.246   1.244
91572SOL     OW76547   7.360   4.347   2.883
91572SOL    HW176548   7.399   4.385   2.804
91572SOL    HW276549   7.290   4.407   2.907
91573SOL     OW76550  11.889   0.658   2.138
91573SOL    HW176551  11.821   0.639   2.073
91573SOL    HW276552  11.884   0.752   2.151
91574SOL     OW76553   2.827   1.581   3.246
91574SOL    HW176554   2.737   1.607   3.266
91574SOL    HW276555   2.824   1.560   3.152
91575SOL     OW76556  11.766  10.307   5.004
91575SOL    HW176557  11.793  10.216   4.993
91575SOL    HW276558  11.779  10.347   4.918
91576SOL     OW76559   5.831   8.952  13.889
91576SOL    HW176560   5.793   8.952  13.977
91576SOL    HW276561   5.776   9.013  13.839
91577SOL     OW76562   5.612   3.096   8.639
91577SOL    HW176563   5.567   3.096   8.555
91577SOL    HW276564   5.691   3.043   8.624
91578SOL     OW76565  11.968   2.598   2.060
91578SOL    HW176566  11.933   2.568   1.976
91578SOL    HW276567  12.015   2.679   2.038
91579SOL     OW76568   1.023  13.506   0.088
91579SOL    HW176569   1.038  13.452   0.166
91579SOL    HW276570   0.947  13.559   0.110
91580SOL     OW76571  11.145   5.765   1.213
91580SOL    HW176572  11.081   5.776   1.143
91580SOL    HW276573  11.112   5.821   1.284
91581SOL     OW76574  10.586   2.812   6.741
91581SOL    HW176575  10.667   2.832   6.693
91581SOL    HW276576  10.573   2.888   6.797
91582SOL     OW76577   8.057   9.006   7.941
91582SOL    HW176578   8.073   8.949   8.017
91582SOL    HW276579   7.989   8.961   7.891
91583SOL     OW76580   6.228  12.335  12.528
91583SOL    HW176581   6.159  12.323  12.464
91583SOL    HW276582   6.227  12.254  12.580
91584SOL     OW76583   4.008   5.487  10.780
91584SOL    HW176584   4.013   5.403  10.827
91584SOL    HW276585   3.918   5.516  10.793
91585SOL     OW76586   7.401   4.758   5.623
91585SOL    HW176587   7.412   4.783   5.714
91585SOL    HW276588   7.338   4.687   5.625
91586SOL     OW76589  13.580   5.576  12.766
91586SOL    HW176590  13.509   5.593  12.829
91586SOL    HW276591  13.629   5.659  12.762
91587SOL     OW76592   6.638   3.759   9.234
91587SOL    HW176593   6.596   3.844   9.251
91587SOL    HW276594   6.611   3.737   9.144
91588SOL     OW76595   4.488   6.139  11.894
91588SOL    HW176596   4.563   6.170  11.944
91588SOL    HW276597   4.419   6.205  11.909
91589SOL     OW76598   9.372  12.383   5.289
91589SOL    HW176599   9.430  12.336   5.350
91589SOL    HW276600   9.372  12.473   5.322
91590SOL     OW76601  10.790   5.914   7.912
91590SOL    HW176602  10.847   5.886   7.983
91590SOL    HW276603  10.843   5.975   7.860
91591SOL     OW76604   4.496   9.723   8.994
91591SOL    HW176605   4.569   9.746   8.937
91591SOL    HW276606   4.535   9.669   9.063
91592SOL     OW76607   2.869   6.206   0.913
91592SOL    HW176608   2.855   6.192   1.007
91592SOL    HW276609   2.811   6.142   0.871
91593SOL     OW76610  11.868   5.186   5.633
91593SOL    HW176611  11.828   5.103   5.659
91593SOL    HW276612  11.798   5.232   5.587
91594SOL     OW76613   4.131   8.941  12.917
91594SOL    HW176614   4.158   8.959  12.827
91594SOL    HW276615   4.142   8.846  12.927
91595SOL     OW76616  13.286  12.213  11.824
91595SOL    HW176617  13.250  12.251  11.744
91595SOL    HW276618  13.378  12.196  11.803
91596SOL     OW76619  12.782  14.368   7.325
91596SOL    HW176620  12.725  14.415   7.386
91596SOL    HW276621  12.819  14.296   7.376
91597SOL     OW76622  13.737  14.043   6.628
91597SOL    HW176623  13.824  14.021   6.592
91597SOL    HW276624  13.753  14.119   6.683
91598SOL     OW76625   1.795   0.896   4.234
91598SOL    HW176626   1.833   0.863   4.315
91598SOL    HW276627   1.864   0.884   4.168
91599SOL     OW76628  12.673  14.791  10.226
91599SOL    HW176629  12.739  14.726  10.250
91599SOL    HW276630  12.614  14.795  10.301
91600SOL     OW76631  11.181   3.129  11.848
91600SOL    HW176632  11.172   3.211  11.799
91600SOL    HW276633  11.189   3.062  11.780
91601SOL     OW76634   0.847   2.963   7.272
91601SOL    HW176635   0.793   2.965   7.192
91601SOL    HW276636   0.925   2.913   7.247
91602SOL     OW76637   3.270  12.033  12.467
91602SOL    HW176638   3.305  12.064  12.551
91602SOL    HW276639   3.202  12.097  12.444
91603SOL     OW76640  11.283   5.140  13.853
91603SOL    HW176641  11.359   5.095  13.888
91603SOL    HW276642  11.303   5.153  13.761
91604SOL     OW76643   6.305   3.186   1.898
91604SOL    HW176644   6.275   3.205   1.987
91604SOL    HW276645   6.393   3.150   1.911
91605SOL     OW76646  10.409  10.877   7.888
91605SOL    HW176647  10.328  10.928   7.886
91605SOL    HW276648  10.477  10.939   7.861
91606SOL     OW76649  13.352  12.864   3.622
91606SOL    HW176650  13.376  12.797   3.686
91606SOL    HW276651  13.417  12.855   3.553
91607SOL     OW76652   4.605  12.614   3.195
91607SOL    HW176653   4.516  12.649   3.187
91607SOL    HW276654   4.623  12.614   3.289
91608SOL     OW76655   5.910   0.536   4.616
91608SOL    HW176656   5.976   0.605   4.628
91608SOL    HW276657   5.835   0.580   4.577
91609SOL     OW76658  14.411   5.805   3.741
91609SOL    HW176659  14.471   5.880   3.734
91609SOL    HW276660  14.444   5.742   3.678
91610SOL     OW76661  12.876   7.732   0.884
91610SOL    HW176662  12.784   7.705   0.892
91610SOL    HW276663  12.881   7.773   0.797
91611SOL     OW76664   4.808   9.539   5.701
91611SOL    HW176665   4.767   9.504   5.780
91611SOL    HW276666   4.851   9.464   5.660
91612SOL     OW76667  11.478   8.022  14.084
91612SOL    HW176668  11.423   8.069  14.021
91612SOL    HW276669  11.567   8.044  14.058
91613SOL     OW76670   6.283  12.222  11.603
91613SOL    HW176671   6.354  12.164  11.576
91613SOL    HW276672   6.255  12.266  11.522
91614SOL     OW76673   4.748   5.499  13.064
91614SOL    HW176674   4.711   5.422  13.020
91614SOL    HW276675   4.796   5.463  13.138
91615SOL     OW76676   5.039   7.856   1.734
91615SOL    HW176677   4.992   7.778   1.763
91615SOL    HW276678   4.983   7.894   1.667
91616SOL     OW76679  14.489   1.779   4.596
91616SOL    HW176680  14.532   1.708   4.644
91616SOL    HW276681  14.504   1.757   4.504
91617SOL     OW76682   4.897  12.729   0.229
91617SOL    HW176683   4.900  12.721   0.133
91617SOL    HW276684   4.933  12.816   0.246
91618SOL     OW76685   6.848   3.246   3.038
91618SOL    HW176686   6.865   3.246   3.133
91618SOL    HW276687   6.842   3.338   3.015
91619SOL     OW76688   4.730   2.846   7.340
91619SOL    HW176689   4.762   2.931   7.312
91619SOL    HW276690   4.677   2.815   7.266
91620SOL     OW76691   4.148   2.347   4.935
91620SOL    HW176692   4.172   2.255   4.933
91620SOL    HW276693   4.215   2.388   4.990
91621SOL     OW76694   6.151   8.223  14.533
91621SOL    HW176695   6.176   8.288  14.467
91621SOL    HW276696   6.222   8.159  14.532
91622SOL     OW76697  14.119   1.516   9.003
91622SOL    HW176698  14.154   1.532   8.916
91622SOL    HW276699  14.166   1.439   9.035
91623SOL     OW76700   8.196   6.765   4.577
91623SOL    HW176701   8.177   6.789   4.667
91623SOL    HW276702   8.145   6.826   4.524
91624SOL     OW76703   9.318  13.002   3.771
91624SOL    HW176704   9.311  13.007   3.676
91624SOL    HW276705   9.314  13.092   3.801
91625SOL     OW76706   7.989  12.586   5.046
91625SOL    HW176707   8.050  12.640   4.994
91625SOL    HW276708   8.045  12.531   5.100
91626SOL     OW76709   6.487   5.461   9.156
91626SOL    HW176710   6.549   5.515   9.106
91626SOL    HW276711   6.435   5.416   9.090
91627SOL     OW76712   9.442   2.802   0.487
91627SOL    HW176713   9.446   2.893   0.457
91627SOL    HW276714   9.390   2.806   0.567
91628SOL     OW76715   7.384   8.060   6.132
91628SOL    HW176716   7.466   8.108   6.123
91628SOL    HW276717   7.347   8.090   6.215
91629SOL     OW76718   9.672   5.242  14.665
91629SOL    HW176719   9.622   5.172  14.624
91629SOL    HW276720   9.692   5.210  14.753
91630SOL     OW76721   6.807   9.968  14.263
91630SOL    HW176722   6.839   9.999  14.348
91630SOL    HW276723   6.884   9.971  14.206
91631SOL     OW76724   5.356   3.754  10.015
91631SOL    HW176725   5.391   3.805  10.089
91631SOL    HW276726   5.411   3.676  10.012
91632SOL     OW76727   5.785  12.702   4.740
91632SOL    HW176728   5.803  12.739   4.653
91632SOL    HW276729   5.759  12.777   4.793
91633SOL     OW76730   5.078   6.561   5.079
91633SOL    HW176731   5.128   6.565   4.997
91633SOL    HW276732   5.134   6.512   5.139
91634SOL     OW76733  12.824  11.168   6.766
91634SOL    HW176734  12.829  11.074   6.782
91634SOL    HW276735  12.765  11.177   6.691
91635SOL     OW76736   9.394   8.079  12.102
91635SOL    HW176737   9.382   8.081  12.197
91635SOL    HW276738   9.306   8.093  12.066
91636SOL     OW76739   2.773  11.795   2.258
91636SOL    HW176740   2.713  11.782   2.331
91636SOL    HW276741   2.857  11.760   2.290
91637SOL     OW76742   2.269   2.863  13.483
91637SOL    HW176743   2.185   2.829  13.514
91637SOL    HW276744   2.335   2.811  13.529
91638SOL     OW76745   9.619   1.850   1.996
91638SOL    HW176746   9.684   1.891   2.052
91638SOL    HW276747   9.547   1.828   2.055
91639SOL     OW76748   9.221  11.561   8.098
91639SOL    HW176749   9.212  11.517   8.014
91639SOL    HW276750   9.130  11.580   8.124
91640SOL     OW76751   4.602   6.632  13.027
91640SOL    HW176752   4.509   6.612  13.015
91640SOL    HW276753   4.629   6.669  12.943
91641SOL     OW76754  13.528   9.447   9.100
91641SOL    HW176755  13.513   9.354   9.115
91641SOL    HW276756  13.443   9.480   9.068
91642SOL     OW76757   9.507   9.670   2.497
91642SOL    HW176758   9.560   9.723   2.556
91642SOL    HW276759   9.424   9.659   2.543
91643SOL     OW76760   7.044   1.673   4.693
91643SOL    HW176761   7.058   1.762   4.724
91643SOL    HW276762   7.110   1.620   4.738
91644SOL     OW76763   1.196  14.466   0.045
91644SOL    HW176764   1.151  14.437  14.838
91644SOL    HW276765   1.126  14.504   0.099
91645SOL     OW76766   0.606   6.092   2.865
91645SOL    HW176767   0.681   6.099   2.807
91645SOL    HW276768   0.562   6.177   2.857
91646SOL     OW76769   2.335   8.897  11.516
91646SOL    HW176770   2.342   8.926  11.425
91646SOL    HW276771   2.398   8.825  11.523
91647SOL     OW76772   0.462   0.032   7.767
91647SOL    HW176773   0.471   0.074   7.852
91647SOL    HW276774   0.403   0.089   7.718
91648SOL     OW76775   5.964   3.576   7.346
91648SOL    HW176776   5.924   3.655   7.382
91648SOL    HW276777   5.891   3.527   7.308
91649SOL     OW76778  11.918   5.492   0.598
91649SOL    HW176779  11.986   5.428   0.620
91649SOL    HW276780  11.854   5.442   0.547
91650SOL     OW76781  11.001   1.596   9.297
91650SOL    HW176782  11.011   1.595   9.393
91650SOL    HW276783  11.090   1.599   9.264
91651SOL     OW76784   2.433   8.844   8.103
91651SOL    HW176785   2.393   8.760   8.080
91651SOL    HW276786   2.482   8.827   8.184
91652SOL     OW76787   9.041   3.395  11.998
91652SOL    HW176788   9.087   3.441  12.069
91652SOL    HW276789   8.960   3.365  12.038
91653SOL     OW76790   7.540  14.079  12.854
91653SOL    HW176791   7.518  14.109  12.766
91653SOL    HW276792   7.578  14.156  12.897
91654SOL     OW76793   9.293  10.998  11.376
91654SOL    HW176794   9.323  11.080  11.415
91654SOL    HW276795   9.373  10.948  11.361
91655SOL     OW76796   6.711  14.285   7.016
91655SOL    HW176797   6.616  14.292   7.012
91655SOL    HW276798   6.730  14.195   6.990
91656SOL     OW76799  14.676   0.735   9.889
91656SOL    HW176800  14.713   0.792   9.822
91656SOL    HW276801  14.680   0.647   9.851
91657SOL     OW76802   5.077   3.066   6.061
91657SOL    HW176803   5.055   3.079   6.153
91657SOL    HW276804   5.005   3.108   6.014
91658SOL     OW76805   8.176   5.688   7.840
91658SOL    HW176806   8.234   5.760   7.864
91658SOL    HW276807   8.128   5.721   7.764
91659SOL     OW76808   3.698   4.624   0.707
91659SOL    HW176809   3.755   4.547   0.702
91659SOL    HW276810   3.636   4.603   0.776
91660SOL     OW76811   8.151   3.133  11.133
91660SOL    HW176812   8.148   3.136  11.037
91660SOL    HW276813   8.244   3.126  11.154
91661SOL     OW76814   2.784   5.861   4.814
91661SOL    HW176815   2.755   5.832   4.900
91661SOL    HW276816   2.806   5.954   4.826
91662SOL     OW76817   7.482   2.301  13.503
91662SOL    HW176818   7.419   2.369  13.527
91662SOL    HW276819   7.435   2.246  13.440
91663SOL     OW76820   2.724  10.953   8.355
91663SOL    HW176821   2.694  10.903   8.431
91663SOL    HW276822   2.711  11.044   8.380
91664SOL     OW76823  13.173  14.141   7.176
91664SOL    HW176824  13.126  14.220   7.147
91664SOL    HW276825  13.194  14.095   7.095
91665SOL     OW76826   4.367   8.013  10.204
91665SOL    HW176827   4.411   8.033  10.286
91665SOL    HW276828   4.363   8.096  10.157
91666SOL     OW76829  12.721   4.420  12.699
91666SOL    HW176830  12.677   4.339  12.723
91666SOL    HW276831  12.651   4.484  12.690
91667SOL     OW76832  12.833   7.356  13.355
91667SOL    HW176833  12.842   7.374  13.261
91667SOL    HW276834  12.914   7.389  13.394
91668SOL     OW76835   6.832   0.321   0.435
91668SOL    HW176836   6.791   0.403   0.463
91668SOL    HW276837   6.795   0.255   0.493
91669SOL     OW76838  11.399   0.282  10.656
91669SOL    HW176839  11.313   0.302  10.691
91669SOL    HW276840  11.449   0.250  10.731
91670SOL     OW76841   0.625  12.714   3.484
91670SOL    HW176842   0.566  12.764   3.428
91670SOL    HW276843   0.613  12.752   3.571
91671SOL     OW76844  13.409   6.871   5.487
91671SOL    HW176845  13.481   6.813   5.462
91671SOL    HW276846  13.358   6.820   5.550
91672SOL     OW76847   6.801  12.174   1.664
91672SOL    HW176848   6.862  12.205   1.597
91672SOL    HW276849   6.773  12.254   1.709
91673SOL     OW76850   6.764   2.092  14.239
91673SOL    HW176851   6.834   2.030  14.216
91673SOL    HW276852   6.785   2.171  14.189
91674SOL     OW76853  14.609  14.309   4.168
91674SOL    HW176854  14.663  14.379   4.132
91674SOL    HW276855  14.540  14.296   4.103
91675SOL     OW76856  11.730   3.676   0.843
91675SOL    HW176857  11.682   3.631   0.912
91675SOL    HW276858  11.784   3.607   0.802
91676SOL     OW76859  14.839   5.615  13.054
91676SOL    HW176860  14.778   5.544  13.076
91676SOL    HW276861  14.849   5.609  12.959
91677SOL     OW76862  11.368   9.144   5.427
91677SOL    HW176863  11.412   9.084   5.488
91677SOL    HW276864  11.440   9.190   5.383
91678SOL     OW76865  12.673   8.665  11.046
91678SOL    HW176866  12.747   8.654  11.106
91678SOL    HW276867  12.696   8.742  10.994
91679SOL     OW76868   3.550  13.438  11.894
91679SOL    HW176869   3.604  13.499  11.945
91679SOL    HW276870   3.606  13.362  11.882
91680SOL     OW76871  11.261   6.684   8.625
91680SOL    HW176872  11.174   6.646   8.632
91680SOL    HW276873  11.311   6.620   8.574
91681SOL     OW76874   1.964   8.907   8.190
91681SOL    HW176875   1.984   9.000   8.203
91681SOL    HW276876   1.874   8.906   8.158
91682SOL     OW76877   5.612   3.666   8.310
91682SOL    HW176878   5.682   3.665   8.245
91682SOL    HW276879   5.626   3.746   8.360
91683SOL     OW76880   2.081   5.794   1.573
91683SOL    HW176881   2.109   5.876   1.615
91683SOL    HW276882   2.003   5.819   1.523
91684SOL     OW76883   6.579   2.682   1.485
91684SOL    HW176884   6.579   2.712   1.394
91684SOL    HW276885   6.489   2.654   1.501
91685SOL     OW76886   3.483   5.545  10.562
91685SOL    HW176887   3.553   5.510  10.507
91685SOL    HW276888   3.527   5.568  10.644
91686SOL     OW76889   3.739   9.832   8.883
91686SOL    HW176890   3.816   9.888   8.885
91686SOL    HW276891   3.752   9.774   8.808
91687SOL     OW76892   9.588   7.610   2.347
91687SOL    HW176893   9.648   7.671   2.389
91687SOL    HW276894   9.610   7.614   2.254
91688SOL     OW76895   6.026   8.919  13.706
91688SOL    HW176896   6.007   8.859  13.634
91688SOL    HW276897   5.958   8.901  13.771
91689SOL     OW76898   8.392   0.435   0.199
91689SOL    HW176899   8.479   0.403   0.177
91689SOL    HW276900   8.358   0.371   0.261
91690SOL     OW76901  13.587   0.174  12.759
91690SOL    HW176902  13.495   0.164  12.737
91690SOL    HW276903  13.598   0.123  12.840
91691SOL     OW76904   0.575  13.975   4.560
91691SOL    HW176905   0.573  14.003   4.652
91691SOL    HW276906   0.613  14.048   4.513
91692SOL     OW76907   2.403   0.433   6.483
91692SOL    HW176908   2.324   0.395   6.443
91692SOL    HW276909   2.373   0.464   6.569
91693SOL     OW76910   6.294   8.260   3.478
91693SOL    HW176911   6.280   8.166   3.479
91693SOL    HW276912   6.360   8.274   3.411
91694SOL     OW76913   0.187  13.755   3.966
91694SOL    HW176914   0.237  13.834   3.984
91694SOL    HW276915   0.248  13.698   3.919
91695SOL     OW76916  11.145  14.032   0.781
91695SOL    HW176917  11.184  14.073   0.858
91695SOL    HW276918  11.124  14.106   0.723
91696SOL     OW76919   0.110   0.221   4.716
91696SOL    HW176920   0.197   0.204   4.751
91696SOL    HW276921   0.106   0.170   4.635
91697SOL     OW76922  14.449   3.627  13.988
91697SOL    HW176923  14.426   3.534  13.984
91697SOL    HW276924  14.391   3.668  13.924
91698SOL     OW76925   2.743   5.002   3.441
91698SOL    HW176926   2.835   4.976   3.436
91698SOL    HW276927   2.703   4.939   3.501
91699SOL     OW76928   0.164  13.037  12.602
91699SOL    HW176929   0.187  12.967  12.663
91699SOL    HW276930   0.202  13.116  12.640
91700SOL     OW76931  14.119   9.692  13.992
91700SOL    HW176932  14.166   9.609  13.999
91700SOL    HW276933  14.033   9.674  14.030
91701SOL     OW76934   8.456   9.002   1.515
91701SOL    HW176935   8.479   8.919   1.557
91701SOL    HW276936   8.361   9.002   1.512
91702SOL     OW76937   4.280   5.955  13.201
91702SOL    HW176938   4.241   6.017  13.139
91702SOL    HW276939   4.350   6.004  13.243
91703SOL     OW76940   1.762   1.425   5.538
91703SOL    HW176941   1.746   1.436   5.632
91703SOL    HW276942   1.725   1.504   5.498
91704SOL     OW76943   6.799  14.673  11.564
91704SOL    HW176944   6.859  14.729  11.514
91704SOL    HW276945   6.805  14.705  11.654
91705SOL     OW76946   5.432  13.519   4.431
91705SOL    HW176947   5.497  13.566   4.484
91705SOL    HW276948   5.420  13.575   4.354
91706SOL     OW76949   9.596  13.034  11.587
91706SOL    HW176950   9.569  12.949  11.553
91706SOL    HW276951   9.678  13.016  11.634
91707SOL     OW76952   8.219  10.566  10.922
91707SOL    HW176953   8.283  10.605  10.982
91707SOL    HW276954   8.201  10.480  10.960
91708SOL     OW76955  14.177  12.929   9.905
91708SOL    HW176956  14.161  12.854   9.963
91708SOL    HW276957  14.158  13.006   9.959
91709SOL     OW76958   3.053   3.028   0.067
91709SOL    HW176959   3.123   3.032   0.132
91709SOL    HW276960   3.078   3.091  14.872
91710SOL     OW76961   0.298   0.794  10.400
91710SOL    HW176962   0.365   0.779  10.466
91710SOL    HW276963   0.314   0.883  10.369
91711SOL     OW76964  10.931  12.566  14.821
91711SOL    HW176965  10.846  12.600  14.791
91711SOL    HW276966  10.985  12.644  14.834
91712SOL     OW76967   6.149   6.341  12.019
91712SOL    HW176968   6.244   6.343  12.036
91712SOL    HW276969   6.138   6.266  11.960
91713SOL     OW76970   7.174  10.735  11.205
91713SOL    HW176971   7.120  10.658  11.189
91713SOL    HW276972   7.204  10.761  11.118
91714SOL     OW76973  12.696   4.090   5.518
91714SOL    HW176974  12.686   4.135   5.602
91714SOL    HW276975  12.642   4.140   5.457
91715SOL     OW76976   8.414   7.817   5.590
91715SOL    HW176977   8.390   7.785   5.504
91715SOL    HW276978   8.342   7.875   5.615
91716SOL     OW76979   7.502   0.545   8.364
91716SOL    HW176980   7.514   0.452   8.342
91716SOL    HW276981   7.524   0.550   8.457
91717SOL     OW76982   0.384  11.123  12.072
91717SOL    HW176983   0.380  11.183  11.997
91717SOL    HW276984   0.368  11.037  12.034
91718SOL     OW76985  13.597  10.968  11.105
91718SOL    HW176986  13.541  10.947  11.180
91718SOL    HW276987  13.662  11.029  11.141
91719SOL     OW76988   7.314  13.943   3.809
91719SOL    HW176989   7.405  13.942   3.840
91719SOL    HW276990   7.301  14.032   3.776
91720SOL     OW76991  14.152   6.022   8.104
91720SOL    HW176992  14.200   5.978   8.174
91720SOL    HW276993  14.197   5.995   8.024
91721SOL     OW76994   2.454   8.789  12.905
91721SOL    HW176995   2.546   8.813  12.918
91721SOL    HW276996   2.441   8.713  12.961
91722SOL     OW76997   0.279   4.081  13.649
91722SOL    HW176998   0.276   3.995  13.689
91722SOL    HW276999   0.187   4.105  13.636
91723SOL     OW77000   3.920   6.435   1.704
91723SOL    HW177001   3.985   6.422   1.773
91723SOL    HW277002   3.838   6.454   1.750
91724SOL     OW77003   9.599   4.832  12.139
91724SOL    HW177004   9.634   4.810  12.052
91724SOL    HW277005   9.539   4.760  12.160
91725SOL     OW77006   6.011   1.540   9.451
91725SOL    HW177007   5.965   1.606   9.502
91725SOL    HW277008   6.030   1.470   9.514
91726SOL     OW77009   5.209   0.522   8.287
91726SOL    HW177010   5.133   0.545   8.234
91726SOL    HW277011   5.263   0.601   8.287
91727SOL     OW77012  10.669   7.031   2.222
91727SOL    HW177013  10.703   6.943   2.239
91727SOL    HW277014  10.639   7.028   2.131
91728SOL     OW77015   3.839   0.101   8.109
91728SOL    HW177016   3.773   0.117   8.042
91728SOL    HW277017   3.879   0.018   8.085
91729SOL     OW77018   9.803   4.067   4.902
91729SOL    HW177019   9.879   4.119   4.876
91729SOL    HW277020   9.768   4.033   4.819
91730SOL     OW77021  13.436   2.722   0.850
91730SOL    HW177022  13.442   2.758   0.761
91730SOL    HW277023  13.524   2.733   0.886
91731SOL     OW77024   6.212   1.653   8.626
91731SOL    HW177025   6.199   1.618   8.538
91731SOL    HW277026   6.306   1.671   8.630
91732SOL     OW77027   9.446   5.544   8.881
91732SOL    HW177028   9.416   5.619   8.830
91732SOL    HW277029   9.532   5.570   8.912
91733SOL     OW77030  10.307   9.966   3.424
91733SOL    HW177031  10.386   9.931   3.384
91733SOL    HW277032  10.287  10.045   3.372
91734SOL     OW77033   7.223   6.409   1.075
91734SOL    HW177034   7.225   6.502   1.056
91734SOL    HW277035   7.303   6.392   1.124
91735SOL     OW77036   0.722   0.381   1.970
91735SOL    HW177037   0.811   0.416   1.981
91735SOL    HW277038   0.668   0.430   2.032
91736SOL     OW77039   3.681   6.542  14.659
91736SOL    HW177040   3.682   6.447  14.658
91736SOL    HW277041   3.644   6.565  14.745
91737SOL     OW77042   8.895   2.658   0.010
91737SOL    HW177043   8.981   2.651   0.051
91737SOL    HW277044   8.838   2.603   0.064
91738SOL     OW77045  13.516   1.983  10.548
91738SOL    HW177046  13.490   1.995  10.640
91738SOL    HW277047  13.436   1.953  10.505
91739SOL     OW77048   3.617   3.440   3.382
91739SOL    HW177049   3.624   3.528   3.419
91739SOL    HW277050   3.692   3.393   3.420
91740SOL     OW77051   1.094  14.335  12.210
91740SOL    HW177052   1.149  14.400  12.254
91740SOL    HW277053   1.058  14.282  12.280
91741SOL     OW77054  11.824  12.331   5.412
91741SOL    HW177055  11.906  12.298   5.374
91741SOL    HW277056  11.795  12.398   5.351
91742SOL     OW77057   0.934   7.590   5.774
91742SOL    HW177058   0.920   7.635   5.691
91742SOL    HW277059   0.850   7.599   5.821
91743SOL     OW77060   8.992   0.600  13.097
91743SOL    HW177061   8.968   0.642  13.015
91743SOL    HW277062   9.081   0.628  13.114
91744SOL     OW77063   3.684   2.391   4.563
91744SOL    HW177064   3.615   2.415   4.625
91744SOL    HW277065   3.731   2.472   4.546
91745SOL     OW77066   1.737   7.033   4.566
91745SOL    HW177067   1.718   7.091   4.492
91745SOL    HW277068   1.705   6.948   4.538
91746SOL     OW77069  10.443  13.305  11.898
91746SOL    HW177070  10.404  13.288  11.812
91746SOL    HW277071  10.423  13.396  11.917
91747SOL     OW77072   2.743   5.888   5.612
91747SOL    HW177073   2.724   5.904   5.520
91747SOL    HW277074   2.689   5.951   5.659
91748SOL     OW77075  14.391   9.966  12.913
91748SOL    HW177076  14.376  10.001  13.000
91748SOL    HW277077  14.449  10.030  12.871
91749SOL     OW77078  11.246   4.777  13.305
91749SOL    HW177079  11.314   4.821  13.357
91749SOL    HW277080  11.279   4.689  13.291
91750SOL     OW77081   0.379   9.497   3.961
91750SOL    HW177082   0.393   9.405   3.937
91750SOL    HW277083   0.340   9.536   3.883
91751SOL     OW77084  14.817   8.930   3.532
91751SOL    HW177085  14.758   8.880   3.588
91751SOL    HW277086  14.833   8.873   3.457
91752SOL     OW77087   5.687  12.683  12.231
91752SOL    HW177088   5.618  12.749  12.242
91752SOL    HW277089   5.768  12.729  12.252
91753SOL     OW77090   0.133  14.060   2.166
91753SOL    HW177091   0.204  14.105   2.121
91753SOL    HW277092   0.156  14.065   2.258
91754SOL     OW77093  11.621   5.902   0.294
91754SOL    HW177094  11.632   5.991   0.262
91754SOL    HW277095  11.595   5.912   0.385
91755SOL     OW77096  12.503   6.859   1.058
91755SOL    HW177097  12.502   6.774   1.015
91755SOL    HW277098  12.537   6.842   1.146
91756SOL     OW77099   0.731  13.307   9.615
91756SOL    HW177100   0.764  13.363   9.545
91756SOL    HW277101   0.796  13.314   9.685
91757SOL     OW77102  10.779  14.109   1.868
91757SOL    HW177103  10.869  14.140   1.874
91757SOL    HW277104  10.756  14.120   1.775
91758SOL     OW77105  12.002  12.719  11.461
91758SOL    HW177106  11.980  12.809  11.438
91758SOL    HW277107  12.093  12.723  11.491
91759SOL     OW77108   0.638  13.123   5.991
91759SOL    HW177109   0.580  13.073   5.934
91759SOL    HW277110   0.679  13.057   6.048
91760SOL     OW77111  10.605  11.687   5.168
91760SOL    HW177112  10.569  11.742   5.098
91760SOL    HW277113  10.580  11.598   5.143
91761SOL     OW77114   5.819   4.126  14.085
91761SOL    HW177115   5.888   4.070  14.121
91761SOL    HW277116   5.867   4.198  14.043
91762SOL     OW77117   9.248  13.492   2.159
91762SOL    HW177118   9.280  13.408   2.126
91762SOL    HW277119   9.299  13.507   2.239
91763SOL     OW77120   7.157   4.824   6.628
91763SOL    HW177121   7.146   4.761   6.699
91763SOL    HW277122   7.195   4.773   6.556
91764SOL     OW77123   5.382   6.262  14.719
91764SOL    HW177124   5.343   6.253  14.632
91764SOL    HW277125   5.346   6.344  14.753
91765SOL     OW77126   7.304   3.376   4.746
91765SOL    HW177127   7.291   3.348   4.837
91765SOL    HW277128   7.381   3.433   4.749
91766SOL     OW77129  13.108  13.915   1.616
91766SOL    HW177130  13.104  14.011   1.621
91766SOL    HW277131  13.054  13.893   1.540
91767SOL     OW77132   3.519   9.059   3.980
91767SOL    HW177133   3.614   9.067   3.981
91767SOL    HW277134   3.490   9.098   4.063
91768SOL     OW77135   6.689   2.092  10.000
91768SOL    HW177136   6.739   2.054  10.071
91768SOL    HW277137   6.747   2.155   9.959
91769SOL     OW77138   1.087  13.201   1.802
91769SOL    HW177139   1.167  13.149   1.810
91769SOL    HW277140   1.022  13.141   1.765
91770SOL     OW77141   2.894   0.036   3.326
91770SOL    HW177142   2.860  14.842   3.386
91770SOL    HW277143   2.970  14.866   3.285
91771SOL     OW77144  12.442  13.289   2.105
91771SOL    HW177145  12.491  13.218   2.064
91771SOL    HW277146  12.412  13.252   2.189
91772SOL     OW77147  14.042   6.807  10.996
91772SOL    HW177148  14.125   6.838  10.961
91772SOL    HW277149  14.026   6.725  10.949
91773SOL     OW77150   4.264  13.742  12.139
91773SOL    HW177151   4.342  13.688  12.145
91773SOL    HW277152   4.295  13.826  12.106
91774SOL     OW77153   9.316   8.307  13.344
91774SOL    HW177154   9.367   8.229  13.322
91774SOL    HW277155   9.357   8.340  13.424
91775SOL     OW77156   3.181  12.163  11.694
91775SOL    HW177157   3.114  12.195  11.634
91775SOL    HW277158   3.210  12.080  11.656
91776SOL     OW77159   2.246  10.946  11.432
91776SOL    HW177160   2.328  10.916  11.472
91776SOL    HW277161   2.189  10.870  11.434
91777SOL     OW77162   3.032   0.103   8.589
91777SOL    HW177163   3.001   0.033   8.647
91777SOL    HW277164   3.029   0.182   8.643
91778SOL     OW77165  11.351   8.209   0.265
91778SOL    HW177166  11.396   8.166   0.192
91778SOL    HW277167  11.412   8.201   0.339
91779SOL     OW77168   3.032   3.739   4.685
91779SOL    HW177169   2.942   3.769   4.676
91779SOL    HW277170   3.026   3.646   4.706
91780SOL     OW77171  11.648   2.491  10.311
91780SOL    HW177172  11.622   2.577  10.278
91780SOL    HW277173  11.720   2.464  10.255
91781SOL     OW77174  10.318  13.929   9.394
91781SOL    HW177175  10.365  13.928   9.311
91781SOL    HW277176  10.370  13.986   9.451
91782SOL     OW77177   9.471  13.883   2.037
91782SOL    HW177178   9.560  13.848   2.026
91782SOL    HW277179   9.445  13.856   2.124
91783SOL     OW77180   3.588  13.745   1.467
91783SOL    HW177181   3.533  13.668   1.476
91783SOL    HW277182   3.665  13.715   1.419
91784SOL     OW77183  14.051  13.844   2.352
91784SOL    HW177184  14.013  13.776   2.407
91784SOL    HW277185  14.085  13.798   2.275
91785SOL     OW77186   3.195  10.641  12.848
91785SOL    HW177187   3.132  10.698  12.892
91785SOL    HW277188   3.158  10.627  12.761
91786SOL     OW77189  11.191  11.408   6.961
91786SOL    HW177190  11.240  11.485   6.934
91786SOL    HW277191  11.102  11.439   6.975
91787SOL     OW77192  12.153   7.583   2.332
91787SOL    HW177193  12.166   7.579   2.237
91787SOL    HW277194  12.240   7.603   2.367
91788SOL     OW77195  11.787   3.143   4.382
91788SOL    HW177196  11.752   3.181   4.462
91788SOL    HW277197  11.829   3.062   4.410
91789SOL     OW77198   1.009   4.735  11.418
91789SOL    HW177199   0.954   4.812  11.401
91789SOL    HW277200   1.097   4.771  11.431
91790SOL     OW77201   1.818   1.905   7.897
91790SOL    HW177202   1.836   1.814   7.874
91790SOL    HW277203   1.887   1.955   7.854
91791SOL     OW77204   1.726   4.477   4.031
91791SOL    HW177205   1.793   4.414   4.005
91791SOL    HW277206   1.745   4.556   3.981
91792SOL     OW77207  10.977   5.664   2.255
91792SOL    HW177208  10.986   5.665   2.350
91792SOL    HW277209  10.944   5.577   2.235
91793SOL     OW77210   2.724  12.383  11.373
91793SOL    HW177211   2.678  12.464  11.395
91793SOL    HW277212   2.686  12.356  11.289
91794SOL     OW77213   1.871   3.019  10.897
91794SOL    HW177214   1.813   2.995  10.969
91794SOL    HW277215   1.957   2.986  10.922
91795SOL     OW77216   3.757   8.492   3.576
91795SOL    HW177217   3.683   8.501   3.516
91795SOL    HW277218   3.763   8.397   3.593
91796SOL     OW77219  13.989   8.885   3.470
91796SOL    HW177220  13.988   8.933   3.388
91796SOL    HW277221  13.945   8.943   3.532
91797SOL     OW77222   0.616   3.259   0.997
91797SOL    HW177223   0.625   3.164   0.989
91797SOL    HW277224   0.607   3.274   1.091
91798SOL     OW77225  14.741   4.101  14.197
91798SOL    HW177226  14.688   4.176  14.170
91798SOL    HW277227  14.744   4.107  14.292
91799SOL     OW77228   5.453   9.870   7.061
91799SOL    HW177229   5.389   9.927   7.105
91799SOL    HW277230   5.411   9.846   6.979
91800SOL     OW77231   8.129   8.039   7.222
91800SOL    HW177232   8.175   8.116   7.188
91800SOL    HW277233   8.198   7.985   7.261
91801SOL     OW77234  10.566   5.893   5.643
91801SOL    HW177235  10.501   5.829   5.614
91801SOL    HW277236  10.530   5.977   5.614
91802SOL     OW77237  11.941   9.768  11.291
91802SOL    HW177238  11.926   9.733  11.203
91802SOL    HW277239  12.033   9.794  11.291
91803SOL     OW77240   2.136   5.877  14.185
91803SOL    HW177241   2.211   5.935  14.166
91803SOL    HW277242   2.172   5.789  14.177
91804SOL     OW77243   7.208   9.668   1.063
91804SOL    HW177244   7.223   9.642   1.153
91804SOL    HW277245   7.137   9.733   1.068
91805SOL     OW77246   9.992   2.236   0.294
91805SOL    HW177247   9.997   2.331   0.285
91805SOL    HW277248  10.042   2.216   0.374
91806SOL     OW77249  10.458   1.466   0.923
91806SOL    HW177250  10.403   1.388   0.933
91806SOL    HW277251  10.426   1.508   0.843
91807SOL     OW77252   4.982   0.035   7.563
91807SOL    HW177253   5.035  14.855   7.623
91807SOL    HW277254   4.898   0.045   7.608
91808SOL     OW77255  11.412  12.726   6.085
91808SOL    HW177256  11.476  12.686   6.027
91808SOL    HW277257  11.385  12.806   6.041
91809SOL     OW77258   3.243   1.308  12.302
91809SOL    HW177259   3.253   1.396  12.266
91809SOL    HW277260   3.252   1.320  12.396
91810SOL     OW77261  12.457  12.759   6.168
91810SOL    HW177262  12.517  12.701   6.122
91810SOL    HW277263  12.456  12.726   6.258
91811SOL     OW77264   4.130   2.975  10.073
91811SOL    HW177265   4.062   3.037  10.099
91811SOL    HW277266   4.187   3.024  10.014
91812SOL     OW77267  10.834  13.423   6.683
91812SOL    HW177268  10.767  13.377   6.733
91812SOL    HW277269  10.885  13.354   6.641
91813SOL     OW77270  10.015   7.891   2.001
91813SOL    HW177271  10.016   7.916   1.908
91813SOL    HW277272  10.103   7.856   2.017
91814SOL     OW77273   2.124  12.998  14.674
91814SOL    HW177274   2.138  13.073  14.617
91814SOL    HW277275   2.173  12.927  14.632
91815SOL     OW77276   1.604  10.693   6.461
91815SOL    HW177277   1.676  10.711   6.400
91815SOL    HW277278   1.526  10.692   6.407
91816SOL     OW77279   3.239   1.486   1.382
91816SOL    HW177280   3.240   1.553   1.449
91816SOL    HW277281   3.209   1.531   1.303
91817SOL     OW77282   0.358   9.283  11.090
91817SOL    HW177283   0.267   9.255  11.081
91817SOL    HW277284   0.387   9.248  11.174
91818SOL     OW77285  12.360  12.013   7.713
91818SOL    HW177286  12.319  11.975   7.791
91818SOL    HW277287  12.309  11.977   7.640
91819SOL     OW77288   2.985   7.986   3.263
91819SOL    HW177289   2.974   7.963   3.171
91819SOL    HW277290   3.011   7.904   3.305
91820SOL     OW77291   8.974   1.067   0.356
91820SOL    HW177292   9.046   1.029   0.306
91820SOL    HW277293   9.007   1.070   0.446
91821SOL     OW77294  12.849  10.719   8.731
91821SOL    HW177295  12.940  10.696   8.715
91821SOL    HW277296  12.835  10.699   8.824
91822SOL     OW77297   0.874  11.287   2.548
91822SOL    HW177298   0.909  11.273   2.636
91822SOL    HW277299   0.822  11.367   2.555
91823SOL     OW77300  10.511   4.486  14.830
91823SOL    HW177301  10.499   4.417  14.765
91823SOL    HW277302  10.540   4.562  14.779
91824SOL     OW77303  14.027   6.588   2.093
91824SOL    HW177304  14.096   6.543   2.045
91824SOL    HW277305  13.949   6.575   2.040
91825SOL     OW77306   5.774  10.785   8.694
91825SOL    HW177307   5.829  10.842   8.641
91825SOL    HW277308   5.763  10.706   8.640
91826SOL     OW77309  14.799  12.843  11.171
91826SOL    HW177310  14.746  12.914  11.207
91826SOL    HW277311  14.808  12.780  11.243
91827SOL     OW77312   0.363   6.148   4.400
91827SOL    HW177313   0.417   6.201   4.458
91827SOL    HW277314   0.359   6.199   4.318
91828SOL     OW77315   8.672   8.411   4.996
91828SOL    HW177316   8.658   8.401   5.090
91828SOL    HW277317   8.634   8.333   4.958
91829SOL     OW77318   0.193   4.091   7.386
91829SOL    HW177319   0.151   4.042   7.316
91829SOL    HW277320   0.179   4.038   7.465
91830SOL     OW77321   6.564  11.564   5.245
91830SOL    HW177322   6.553  11.469   5.248
91830SOL    HW277323   6.544  11.587   5.154
91831SOL     OW77324   3.012   5.815   0.024
91831SOL    HW177325   3.059   5.856  14.824
91831SOL    HW277326   2.933   5.779  14.855
91832SOL     OW77327  14.431  12.468  10.330
91832SOL    HW177328  14.357  12.465  10.390
91832SOL    HW277329  14.508  12.477  10.386
91833SOL     OW77330   0.276  14.309   4.762
91833SOL    HW177331   0.290  14.373   4.691
91833SOL    HW277332   0.209  14.249   4.727
91834SOL     OW77333  14.211   2.882  10.752
91834SOL    HW177334  14.130   2.837  10.729
91834SOL    HW277335  14.268   2.814  10.786
91835SOL     OW77336   9.012   1.188   6.135
91835SOL    HW177337   9.100   1.219   6.157
91835SOL    HW277338   9.015   1.094   6.156
91836SOL     OW77339   6.578   2.342   7.242
91836SOL    HW177340   6.599   2.426   7.201
91836SOL    HW277341   6.578   2.361   7.336
91837SOL     OW77342   9.533   8.373   4.345
91837SOL    HW177343   9.479   8.303   4.383
91837SOL    HW277344   9.622   8.352   4.371
91838SOL     OW77345   2.055  12.974   2.592
91838SOL    HW177346   1.968  12.967   2.632
91838SOL    HW277347   2.076  13.067   2.598
91839SOL     OW77348   7.057   1.726   4.421
91839SOL    HW177349   7.141   1.699   4.384
91839SOL    HW277350   7.069   1.717   4.516
91840SOL     OW77351  14.721   8.343   4.014
91840SOL    HW177352  14.741   8.254   3.984
91840SOL    HW277353  14.806   8.379   4.041
91841SOL     OW77354  12.743   2.821  12.737
91841SOL    HW177355  12.756   2.748  12.798
91841SOL    HW277356  12.730   2.897  12.792
91842SOL     OW77357   2.008  14.679   7.061
91842SOL    HW177358   2.097  14.647   7.048
91842SOL    HW277359   2.004  14.704   7.153
91843SOL     OW77360   0.108   2.319  12.290
91843SOL    HW177361   0.203   2.322  12.276
91843SOL    HW277362   0.077   2.405  12.263
91844SOL     OW77363   7.056   8.279   7.655
91844SOL    HW177364   7.041   8.368   7.687
91844SOL    HW277365   7.053   8.287   7.560
91845SOL     OW77366   1.752   0.216  14.136
91845SOL    HW177367   1.745   0.133  14.182
91845SOL    HW277368   1.839   0.249  14.158
91846SOL     OW77369   4.544  10.121   6.587
91846SOL    HW177370   4.486  10.175   6.639
91846SOL    HW277371   4.489  10.091   6.514
91847SOL     OW77372   1.599  13.851  13.114
91847SOL    HW177373   1.586  13.938  13.078
91847SOL    HW277374   1.669  13.813  13.062
91848SOL     OW77375   0.004   8.114   0.157
91848SOL    HW177376   0.066   8.059   0.204
91848SOL    HW277377   0.028   8.104   0.065
91849SOL     OW77378  14.073   1.503   6.947
91849SOL    HW177379  14.131   1.443   6.900
91849SOL    HW277380  14.025   1.549   6.879
91850SOL     OW77381   8.755   5.169   0.865
91850SOL    HW177382   8.680   5.220   0.837
91850SOL    HW277383   8.826   5.197   0.807
91851SOL     OW77384   1.864   5.132   2.882
91851SOL    HW177385   1.890   5.057   2.935
91851SOL    HW277386   1.908   5.117   2.798
91852SOL     OW77387  13.906   2.591   4.025
91852SOL    HW177388  13.924   2.589   3.931
91852SOL    HW277389  13.834   2.653   4.035
91853SOL     OW77390   2.858   2.607   7.305
91853SOL    HW177391   2.841   2.516   7.329
91853SOL    HW277392   2.951   2.620   7.321
91854SOL     OW77393   9.544   9.645   6.497
91854SOL    HW177394   9.525   9.561   6.539
91854SOL    HW277395   9.547   9.626   6.403
91855SOL     OW77396  13.264  10.183   8.052
91855SOL    HW177397  13.343  10.188   8.106
91855SOL    HW277398  13.264  10.094   8.018
91856SOL     OW77399   1.365   1.269   3.970
91856SOL    HW177400   1.373   1.305   4.058
91856SOL    HW277401   1.307   1.193   3.980
91857SOL     OW77402  13.912   6.024   2.854
91857SOL    HW177403  13.971   5.951   2.870
91857SOL    HW277404  13.911   6.073   2.935
91858SOL     OW77405   4.222   3.015   6.019
91858SOL    HW177406   4.205   3.005   6.113
91858SOL    HW277407   4.185   2.937   5.980
91859SOL     OW77408  12.387  12.896   3.022
91859SOL    HW177409  12.391  12.989   2.999
91859SOL    HW277410  12.342  12.856   2.947
91860SOL     OW77411   3.528   6.554  11.724
91860SOL    HW177412   3.517   6.478  11.781
91860SOL    HW277413   3.621   6.555  11.703
91861SOL     OW77414   9.772  14.306  14.164
91861SOL    HW177415   9.827  14.367  14.114
91861SOL    HW277416   9.715  14.362  14.215
91862SOL     OW77417   0.094   0.528  13.966
91862SOL    HW177418   0.131   0.609  13.930
91862SOL    HW277419   0.081   0.547  14.059
91863SOL     OW77420   1.746  13.123  14.679
91863SOL    HW177421   1.803  13.150  14.750
91863SOL    HW277422   1.658  13.142  14.711
91864SOL     OW77423   2.288  11.475   8.438
91864SOL    HW177424   2.220  11.539   8.415
91864SOL    HW277425   2.240  11.407   8.485
91865SOL     OW77426   0.114   0.087  12.900
91865SOL    HW177427   0.154   0.136  12.828
91865SOL    HW277428   0.174   0.014  12.916
91866SOL     OW77429   7.253   1.573   1.775
91866SOL    HW177430   7.226   1.594   1.686
91866SOL    HW277431   7.172   1.570   1.826
91867SOL     OW77432  14.296  11.495  14.370
91867SOL    HW177433  14.204  11.518  14.382
91867SOL    HW277434  14.328  11.477  14.458
91868SOL     OW77435   6.798  14.479   3.402
91868SOL    HW177436   6.822  14.406   3.345
91868SOL    HW277437   6.800  14.556   3.345
91869SOL     OW77438   1.476   8.458   9.565
91869SOL    HW177439   1.556   8.488   9.609
91869SOL    HW277440   1.410   8.456   9.635
91870SOL     OW77441  12.897   9.515   1.143
91870SOL    HW177442  12.961   9.457   1.185
91870SOL    HW277443  12.940   9.543   1.062
91871SOL     OW77444   4.700  10.709   1.368
91871SOL    HW177445   4.654  10.760   1.301
91871SOL    HW277446   4.745  10.641   1.318
91872SOL     OW77447   0.816  13.538   5.802
91872SOL    HW177448   0.883  13.509   5.864
91872SOL    HW277449   0.738  13.486   5.825
91873SOL     OW77450   2.571   9.493   4.184
91873SOL    HW177451   2.535   9.409   4.157
91873SOL    HW277452   2.527   9.513   4.267
91874SOL     OW77453   4.791   3.916   1.847
91874SOL    HW177454   4.837   3.988   1.804
91874SOL    HW277455   4.701   3.947   1.858
91875SOL     OW77456   4.507  11.657   2.088
91875SOL    HW177457   4.515  11.634   2.180
91875SOL    HW277458   4.417  11.690   2.079
91876SOL     OW77459   9.231   4.543   1.328
91876SOL    HW177460   9.143   4.580   1.342
91876SOL    HW277461   9.291   4.608   1.364
91877SOL     OW77462   2.590   9.156   9.537
91877SOL    HW177463   2.622   9.202   9.460
91877SOL    HW277464   2.504   9.123   9.511
91878SOL     OW77465   2.607   8.437   4.696
91878SOL    HW177466   2.647   8.355   4.725
91878SOL    HW277467   2.531   8.408   4.644
91879SOL     OW77468   7.062  13.752   8.403
91879SOL    HW177469   7.115  13.680   8.436
91879SOL    HW277470   6.991  13.760   8.467
91880SOL     OW77471   9.686   2.719  13.775
91880SOL    HW177472   9.608   2.682  13.734
91880SOL    HW277473   9.683   2.812  13.752
91881SOL     OW77474  10.196  13.754   9.177
91881SOL    HW177475  10.220  13.661   9.172
91881SOL    HW277476  10.239  13.785   9.256
91882SOL     OW77477   7.810   8.203  12.999
91882SOL    HW177478   7.723   8.171  12.977
91882SOL    HW277479   7.795   8.290  13.036
91883SOL     OW77480   4.937   0.871   3.009
91883SOL    HW177481   5.026   0.841   3.029
91883SOL    HW277482   4.898   0.800   2.959
91884SOL     OW77483   1.799   4.490   9.530
91884SOL    HW177484   1.875   4.434   9.516
91884SOL    HW277485   1.773   4.474   9.620
91885SOL     OW77486   9.864  12.852   3.692
91885SOL    HW177487   9.922  12.910   3.740
91885SOL    HW277488   9.922  12.807   3.630
91886SOL     OW77489   3.791  14.245   7.164
91886SOL    HW177490   3.848  14.219   7.091
91886SOL    HW277491   3.762  14.333   7.141
91887SOL     OW77492   7.854   2.173  10.399
91887SOL    HW177493   7.871   2.177  10.493
91887SOL    HW277494   7.773   2.223  10.387
91888SOL     OW77495   3.214  13.324   3.536
91888SOL    HW177496   3.231  13.409   3.578
91888SOL    HW277497   3.247  13.334   3.447
91889SOL     OW77498   6.051  14.315  13.448
91889SOL    HW177499   6.015  14.334  13.534
91889SOL    HW277500   6.010  14.232  13.423
91890SOL     OW77501   5.991   4.990   9.247
91890SOL    HW177502   5.919   4.989   9.183
91890SOL    HW277503   5.993   4.902   9.283
91891SOL     OW77504   9.835   1.607  14.263
91891SOL    HW177505   9.823   1.528  14.315
91891SOL    HW277506   9.756   1.613  14.209
91892SOL     OW77507   8.078   6.727   1.030
91892SOL    HW177508   8.172   6.720   1.012
91892SOL    HW277509   8.071   6.714   1.124
91893SOL     OW77510   1.652  12.238   6.961
91893SOL    HW177511   1.566  12.195   6.964
91893SOL    HW277512   1.709  12.173   6.918
91894SOL     OW77513  11.175  11.102   5.031
91894SOL    HW177514  11.215  11.037   5.088
91894SOL    HW277515  11.113  11.149   5.088
91895SOL     OW77516  12.377   0.691   6.972
91895SOL    HW177517  12.300   0.715   7.024
91895SOL    HW277518  12.451   0.703   7.032
91896SOL     OW77519   6.240   5.584   7.813
91896SOL    HW177520   6.174   5.652   7.806
91896SOL    HW277521   6.191   5.502   7.814
91897SOL     OW77522  13.026  10.440  13.479
91897SOL    HW177523  12.990  10.523  13.511
91897SOL    HW277524  12.950  10.392  13.446
91898SOL     OW77525   1.670  13.789   2.475
91898SOL    HW177526   1.606  13.835   2.529
91898SOL    HW277527   1.742  13.852   2.464
91899SOL     OW77528  14.642   8.625   9.130
91899SOL    HW177529  14.559   8.617   9.083
91899SOL    HW277530  14.636   8.711   9.172
91900SOL     OW77531  13.977   3.710  11.597
91900SOL    HW177532  13.925   3.774  11.645
91900SOL    HW277533  13.918   3.675  11.530
91901SOL     OW77534   6.299   4.214  13.619
91901SOL    HW177535   6.238   4.140  13.622
91901SOL    HW277536   6.349   4.199  13.538
91902SOL     OW77537   5.570   9.599  11.354
91902SOL    HW177538   5.518   9.653  11.414
91902SOL    HW277539   5.505   9.559  11.297
91903SOL     OW77540   8.839   5.840   3.417
91903SOL    HW177541   8.889   5.895   3.477
91903SOL    HW277542   8.855   5.877   3.330
91904SOL     OW77543   4.111   0.281  11.891
91904SOL    HW177544   4.184   0.343  11.889
91904SOL    HW277545   4.056   0.307  11.817
91905SOL     OW77546   3.518   4.942  11.578
91905SOL    HW177547   3.511   4.928  11.483
91905SOL    HW277548   3.611   4.962  11.592
91906SOL     OW77549  14.671  12.048   6.968
91906SOL    HW177550  14.659  12.009   6.882
91906SOL    HW277551  14.594  12.104   6.979
91907SOL     OW77552   9.220  10.428   5.180
91907SOL    HW177553   9.312  10.418   5.207
91907SOL    HW277554   9.211  10.371   5.104
91908SOL     OW77555   3.539   4.117  10.613
91908SOL    HW177556   3.513   4.122  10.521
91908SOL    HW277557   3.458   4.097  10.660
91909SOL     OW77558   4.985   0.988   6.655
91909SOL    HW177559   5.011   0.930   6.584
91909SOL    HW277560   5.068   1.009   6.699
91910SOL     OW77561  11.950   9.423   1.763
91910SOL    HW177562  11.964   9.482   1.689
91910SOL    HW277563  11.964   9.336   1.726
91911SOL     OW77564   6.715  14.010  14.686
91911SOL    HW177565   6.807  13.990  14.700
91911SOL    HW277566   6.671  13.925  14.688
91912SOL     OW77567   4.986  14.412   3.377
91912SOL    HW177568   4.924  14.467   3.425
91912SOL    HW277569   4.938  14.331   3.361
91913SOL     OW77570  14.067   3.261   9.755
91913SOL    HW177571  14.052   3.187   9.814
91913SOL    HW277572  14.035   3.337   9.804
91914SOL     OW77573  11.388   5.051   7.479
91914SOL    HW177574  11.325   5.012   7.419
91914SOL    HW277575  11.449   5.098   7.423
91915SOL     OW77576   2.753  11.339   1.007
91915SOL    HW177577   2.815  11.401   0.968
91915SOL    HW277578   2.669  11.384   1.004
91916SOL     OW77579   3.066   6.843  12.993
91916SOL    HW177580   3.153   6.830  12.954
91916SOL    HW277581   3.034   6.923  12.953
91917SOL     OW77582   7.038  12.538  14.597
91917SOL    HW177583   7.097  12.614  14.591
91917SOL    HW277584   7.031  12.520  14.691
91918SOL     OW77585  12.539   9.045   3.301
91918SOL    HW177586  12.588   8.979   3.351
91918SOL    HW277587  12.475   9.080   3.362
91919SOL     OW77588  11.075   5.792   8.426
91919SOL    HW177589  11.074   5.704   8.463
91919SOL    HW277590  11.045   5.781   8.336
91920SOL     OW77591   9.995   0.636  13.552
91920SOL    HW177592   9.965   0.583  13.625
91920SOL    HW277593   9.924   0.632  13.488
91921SOL     OW77594   7.431  10.348   1.465
91921SOL    HW177595   7.513  10.331   1.511
91921SOL    HW277596   7.365  10.298   1.513
91922SOL     OW77597  14.026   7.658  14.355
91922SOL    HW177598  13.992   7.721  14.292
91922SOL    HW277599  13.953   7.598  14.370
91923SOL     OW77600   9.281   3.236   9.307
91923SOL    HW177601   9.232   3.190   9.239
91923SOL    HW277602   9.356   3.179   9.325
91924SOL     OW77603   3.518  13.108  13.176
91924SOL    HW177604   3.483  13.067  13.097
91924SOL    HW277605   3.602  13.145  13.149
91925SOL     OW77606  14.570   0.775   3.072
91925SOL    HW177607  14.618   0.845   3.117
91925SOL    HW277608  14.638   0.720   3.034
91926SOL     OW77609   9.362   6.596   4.344
91926SOL    HW177610   9.273   6.564   4.361
91926SOL    HW277611   9.419   6.535   4.392
91927SOL     OW77612  10.334   9.160   4.254
91927SOL    HW177613  10.278   9.238   4.253
91927SOL    HW277614  10.284   9.094   4.207
91928SOL     OW77615  10.622   3.892  13.695
91928SOL    HW177616  10.713   3.872  13.673
91928SOL    HW277617  10.581   3.807  13.707
91929SOL     OW77618  13.312   5.509   3.599
91929SOL    HW177619  13.375   5.452   3.643
91929SOL    HW277620  13.356   5.538   3.520
91930SOL     OW77621   6.849  10.586   9.124
91930SOL    HW177622   6.801  10.549   9.198
91930SOL    HW277623   6.782  10.628   9.070
91931SOL     OW77624   5.002   9.451   3.011
91931SOL    HW177625   4.912   9.419   3.020
91931SOL    HW277626   5.055   9.372   3.010
91932SOL     OW77627   0.125   3.265  11.850
91932SOL    HW177628   0.056   3.252  11.915
91932SOL    HW277629   0.088   3.231  11.768
91933SOL     OW77630   0.921  10.217   8.186
91933SOL    HW177631   0.910  10.157   8.259
91933SOL    HW277632   0.891  10.169   8.110
91934SOL     OW77633   6.849   1.829   7.443
91934SOL    HW177634   6.793   1.790   7.510
91934SOL    HW277635   6.788   1.864   7.378
91935SOL     OW77636  12.775   6.046   6.446
91935SOL    HW177637  12.853   5.997   6.419
91935SOL    HW277638  12.701   5.990   6.421
91936SOL     OW77639   3.968  14.798   9.775
91936SOL    HW177640   3.909  14.826   9.706
91936SOL    HW277641   3.910  14.769   9.846
91937SOL     OW77642   5.994   5.253   7.504
91937SOL    HW177643   6.030   5.177   7.458
91937SOL    HW277644   5.900   5.247   7.491
91938SOL     OW77645   7.630   3.037   0.273
91938SOL    HW177646   7.562   3.034   0.205
91938SOL    HW277647   7.693   2.970   0.246
91939SOL     OW77648  14.764   8.709   9.547
91939SOL    HW177649  14.713   8.778   9.505
91939SOL    HW277650  14.854   8.739   9.543
91940SOL     OW77651  13.930   8.968   5.779
91940SOL    HW177652  13.884   9.034   5.727
91940SOL    HW277653  13.955   8.900   5.716
91941SOL     OW77654   5.446   5.870  12.223
91941SOL    HW177655   5.382   5.894  12.156
91941SOL    HW277656   5.530   5.873  12.178
91942SOL     OW77657   3.673  12.165  11.750
91942SOL    HW177658   3.627  12.193  11.829
91942SOL    HW277659   3.701  12.075  11.769
91943SOL     OW77660  10.475   2.193   1.831
91943SOL    HW177661  10.381   2.180   1.848
91943SOL    HW277662  10.479   2.230   1.743
91944SOL     OW77663   8.580  12.793  14.741
91944SOL    HW177664   8.548  12.703  14.748
91944SOL    HW277665   8.574  12.827  14.830
91945SOL     OW77666   0.248   5.835  11.219
91945SOL    HW177667   0.340   5.848  11.194
91945SOL    HW277668   0.234   5.898  11.290
91946SOL     OW77669  10.217   7.703   0.680
91946SOL    HW177670  10.173   7.625   0.646
91946SOL    HW277671  10.155   7.740   0.743
91947SOL     OW77672  13.298   9.885   9.333
91947SOL    HW177673  13.253   9.961   9.372
91947SOL    HW277674  13.391   9.906   9.342
91948SOL     OW77675  14.762   8.857  12.385
91948SOL    HW177676  14.676   8.829  12.354
91948SOL    HW277677  14.746   8.940  12.429
91949SOL     OW77678   5.585   8.028   2.879
91949SOL    HW177679   5.665   8.055   2.834
91949SOL    HW277680   5.609   7.945   2.922
91950SOL     OW77681   6.689   0.244   1.556
91950SOL    HW177682   6.776   0.278   1.533
91950SOL    HW277683   6.690   0.153   1.526
91951SOL     OW77684   7.326   3.319   9.716
91951SOL    HW177685   7.390   3.308   9.786
91951SOL    HW277686   7.330   3.238   9.666
91952SOL     OW77687   6.624  12.041   3.559
91952SOL    HW177688   6.648  11.988   3.635
91952SOL    HW277689   6.529  12.032   3.552
91953SOL     OW77690  12.870   3.027   5.158
91953SOL    HW177691  12.904   2.969   5.091
91953SOL    HW277692  12.944   3.043   5.216
91954SOL     OW77693  12.002  13.614  14.664
91954SOL    HW177694  12.050  13.547  14.614
91954SOL    HW277695  12.013  13.694  14.613
91955SOL     OW77696   8.963   7.824   1.093
91955SOL    HW177697   8.875   7.798   1.120
91955SOL    HW277698   8.966   7.918   1.109
91956SOL     OW77699  12.454  13.606   3.096
91956SOL    HW177700  12.522  13.540   3.080
91956SOL    HW277701  12.487  13.658   3.169
91957SOL     OW77702  14.552   2.232   6.617
91957SOL    HW177703  14.533   2.325   6.610
91957SOL    HW277704  14.639   2.221   6.580
91958SOL     OW77705   7.186   4.771  13.436
91958SOL    HW177706   7.117   4.722  13.479
91958SOL    HW277707   7.260   4.769  13.498
91959SOL     OW77708  10.450   3.878   5.192
91959SOL    HW177709  10.432   3.900   5.283
91959SOL    HW277710  10.364   3.864   5.152
91960SOL     OW77711   5.825   8.095   2.576
91960SOL    HW177712   5.775   8.132   2.503
91960SOL    HW277713   5.830   8.002   2.557
91961SOL     OW77714  10.680   7.337   4.072
91961SOL    HW177715  10.728   7.345   4.155
91961SOL    HW277716  10.675   7.427   4.040
91962SOL     OW77717   4.706  11.758  12.721
91962SOL    HW177718   4.797  11.729  12.719
91962SOL    HW277719   4.677  11.740  12.811
91963SOL     OW77720   8.733   4.179  11.735
91963SOL    HW177721   8.720   4.164  11.642
91963SOL    HW277722   8.826   4.196  11.744
91964SOL     OW77723  14.400  14.278  10.670
91964SOL    HW177724  14.324  14.274  10.613
91964SOL    HW277725  14.419  14.187  10.692
91965SOL     OW77726   3.055   1.535  12.013
91965SOL    HW177727   3.139   1.566  12.047
91965SOL    HW277728   3.060   1.440  12.022
91966SOL     OW77729   7.931   4.319   0.327
91966SOL    HW177730   7.913   4.318   0.421
91966SOL    HW277731   8.021   4.288   0.320
91967SOL     OW77732   6.659  11.459   3.077
91967SOL    HW177733   6.706  11.376   3.068
91967SOL    HW277734   6.603  11.463   3.000
91968SOL     OW77735   3.610   7.078   0.910
91968SOL    HW177736   3.522   7.078   0.873
91968SOL    HW277737   3.603   7.131   0.989
91969SOL     OW77738   5.311   6.497  12.249
91969SOL    HW177739   5.299   6.550  12.328
91969SOL    HW277740   5.248   6.532  12.186
91970SOL     OW77741   8.184  11.289  12.172
91970SOL    HW177742   8.276  11.272  12.154
91970SOL    HW277743   8.185  11.372  12.221
91971SOL     OW77744   2.831  12.838  13.058
91971SOL    HW177745   2.810  12.752  13.094
91971SOL    HW277746   2.763  12.896  13.093
91972SOL     OW77747   7.339   7.977  13.445
91972SOL    HW177748   7.407   7.910  13.435
91972SOL    HW277749   7.386   8.060  13.443
91973SOL     OW77750  10.131   1.025   8.606
91973SOL    HW177751  10.142   1.119   8.591
91973SOL    HW277752  10.213   0.998   8.648
91974SOL     OW77753  14.438  13.798   7.492
91974SOL    HW177754  14.460  13.705   7.486
91974SOL    HW277755  14.497  13.841   7.429
91975SOL     OW77756  13.149   9.384   6.895
91975SOL    HW177757  13.198   9.434   6.961
91975SOL    HW277758  13.195   9.301   6.889
91976SOL     OW77759   2.142  13.299  10.937
91976SOL    HW177760   2.211  13.233  10.925
91976SOL    HW277761   2.060  13.251  10.925
91977SOL     OW77762  14.386   3.901  12.917
91977SOL    HW177763  14.478   3.893  12.892
91977SOL    HW277764  14.337   3.873  12.840
91978SOL     OW77765  14.348   5.524   9.774
91978SOL    HW177766  14.428   5.474   9.759
91978SOL    HW277767  14.366   5.610   9.738
91979SOL     OW77768   8.411   2.658   9.378
91979SOL    HW177769   8.357   2.632   9.453
91979SOL    HW277770   8.408   2.582   9.319
91980SOL     OW77771   0.397   9.789   8.152
91980SOL    HW177772   0.392   9.702   8.114
91980SOL    HW277773   0.417   9.846   8.078
91981SOL     OW77774   3.325   6.026  10.802
91981SOL    HW177775   3.375   5.993  10.877
91981SOL    HW277776   3.249   6.070  10.842
91982SOL     OW77777  13.322   3.264   2.873
91982SOL    HW177778  13.407   3.306   2.889
91982SOL    HW277779  13.333   3.174   2.905
91983SOL     OW77780   8.921  14.636  13.918
91983SOL    HW177781   8.906  14.610  13.827
91983SOL    HW277782   8.972  14.717  13.912
91984SOL     OW77783   4.003   0.231   5.885
91984SOL    HW177784   3.972   0.252   5.796
91984SOL    HW277785   4.016   0.317   5.926
91985SOL     OW77786   8.754  10.672  13.564
91985SOL    HW177787   8.714  10.599  13.611
91985SOL    HW277788   8.698  10.686  13.488
91986SOL     OW77789   6.957   2.737   0.245
91986SOL    HW177790   6.926   2.825   0.265
91986SOL    HW277791   7.052   2.747   0.237
91987SOL     OW77792   5.828   8.962   3.887
91987SOL    HW177793   5.735   8.945   3.900
91987SOL    HW277794   5.843   9.048   3.925
91988SOL     OW77795   4.000   9.894   6.231
91988SOL    HW177796   4.007   9.958   6.302
91988SOL    HW277797   4.063   9.826   6.254
91989SOL     OW77798  10.689   6.470   4.962
91989SOL    HW177799  10.740   6.551   4.957
91989SOL    HW277800  10.605   6.497   4.999
91990SOL     OW77801   5.718  10.887  12.664
91990SOL    HW177802   5.760  10.906  12.748
91990SOL    HW277803   5.625  10.877  12.686
91991SOL     OW77804   1.710  12.649  10.145
91991SOL    HW177805   1.798  12.672  10.115
91991SOL    HW277806   1.657  12.646  10.065
91992SOL     OW77807   0.763  13.863  10.197
91992SOL    HW177808   0.752  13.768  10.197
91992SOL    HW277809   0.835  13.879  10.258
91993SOL     OW77810   7.935  14.067  10.846
91993SOL    HW177811   7.946  14.094  10.755
91993SOL    HW277812   7.842  14.042  10.852
91994SOL     OW77813  13.729   6.156   9.009
91994SOL    HW177814  13.633   6.154   9.000
91994SOL    HW277815  13.746   6.236   9.058
91995SOL     OW77816   8.224   9.055   7.587
91995SOL    HW177817   8.180   9.136   7.563
91995SOL    HW277818   8.157   9.003   7.631
91996SOL     OW77819   1.842   5.592   3.653
91996SOL    HW177820   1.934   5.593   3.680
91996SOL    HW277821   1.846   5.588   3.557
91997SOL     OW77822   5.188  11.088   0.532
91997SOL    HW177823   5.158  11.135   0.610
91997SOL    HW277824   5.268  11.044   0.559
91998SOL     OW77825   4.162   7.806   5.696
91998SOL    HW177826   4.205   7.746   5.757
91998SOL    HW277827   4.215   7.885   5.699
91999SOL     OW77828  11.361  14.103  14.294
91999SOL    HW177829  11.426  14.151  14.242
91999SOL    HW277830  11.309  14.172  14.336
92000SOL     OW77831   0.488  13.563   4.246
92000SOL    HW177832   0.399  13.526   4.249
92000SOL    HW277833   0.521  13.556   4.335
92001SOL     OW77834  11.105  14.787  10.269
92001SOL    HW177835  11.186  14.829  10.297
92001SOL    HW277836  11.115  14.777  10.175
92002SOL     OW77837  13.992   8.920   6.428
92002SOL    HW177838  13.907   8.953   6.457
92002SOL    HW277839  14.042   8.999   6.406
92003SOL     OW77840   6.820   4.831   4.038
92003SOL    HW177841   6.878   4.905   4.055
92003SOL    HW277842   6.872   4.770   3.986
92004SOL     OW77843   9.951   2.256   3.619
92004SOL    HW177844   9.947   2.320   3.690
92004SOL    HW277845  10.014   2.191   3.649
92005SOL     OW77846   1.329   9.604  14.759
92005SOL    HW177847   1.315   9.686  14.712
92005SOL    HW277848   1.414   9.616  14.801
92006SOL     OW77849  10.994   7.090  12.960
92006SOL    HW177850  10.960   7.133  12.882
92006SOL    HW277851  10.916   7.059  13.006
92007SOL     OW77852   4.055  14.775   1.788
92007SOL    HW177853   4.078  14.694   1.743
92007SOL    HW277854   4.126  14.836   1.765
92008SOL     OW77855   1.285  12.176  10.704
92008SOL    HW177856   1.378  12.156  10.697
92008SOL    HW277857   1.251  12.113  10.767
92009SOL     OW77858  12.900   5.665   5.443
92009SOL    HW177859  12.882   5.638   5.353
92009SOL    HW277860  12.898   5.760   5.441
92010SOL     OW77861  13.354   4.135  10.971
92010SOL    HW177862  13.413   4.185  10.914
92010SOL    HW277863  13.382   4.044  10.962
92011SOL     OW77864   4.280  11.129   2.188
92011SOL    HW177865   4.347  11.121   2.119
92011SOL    HW277866   4.218  11.193   2.153
92012SOL     OW77867   7.200   5.054   1.878
92012SOL    HW177868   7.178   5.116   1.947
92012SOL    HW277869   7.149   4.976   1.898
92013SOL     OW77870   1.187  10.847  13.043
92013SOL    HW177871   1.121  10.868  12.978
92013SOL    HW277872   1.186  10.921  13.103
92014SOL     OW77873  13.841   2.353  13.139
92014SOL    HW177874  13.900   2.347  13.063
92014SOL    HW277875  13.863   2.436  13.180
92015SOL     OW77876   7.580  10.750   6.575
92015SOL    HW177877   7.661  10.743   6.524
92015SOL    HW277878   7.610  10.762   6.665
92016SOL     OW77879   7.216  12.779   8.859
92016SOL    HW177880   7.223  12.843   8.788
92016SOL    HW277881   7.223  12.694   8.815
92017SOL     OW77882   8.604   9.777   0.860
92017SOL    HW177883   8.596   9.808   0.770
92017SOL    HW277884   8.519   9.740   0.881
92018SOL     OW77885   4.209   9.891  14.815
92018SOL    HW177886   4.184   9.831   0.014
92018SOL    HW277887   4.300   9.914  14.834
92019SOL     OW77888   5.373   6.454  12.786
92019SOL    HW177889   5.374   6.532  12.731
92019SOL    HW277890   5.307   6.471  12.853
92020SOL     OW77891   6.932   7.342   0.474
92020SOL    HW177892   6.879   7.288   0.533
92020SOL    HW277893   6.883   7.424   0.467
92021SOL     OW77894   2.210   2.604   7.838
92021SOL    HW177895   2.209   2.519   7.792
92021SOL    HW277896   2.302   2.630   7.836
92022SOL     OW77897   8.737   8.928  14.261
92022SOL    HW177898   8.709   8.960  14.176
92022SOL    HW277899   8.767   9.007  14.308
92023SOL     OW77900   4.461  13.752   0.721
92023SOL    HW177901   4.462  13.659   0.745
92023SOL    HW277902   4.427  13.796   0.799
92024SOL     OW77903  11.456   9.446   2.160
92024SOL    HW177904  11.376   9.484   2.196
92024SOL    HW277905  11.470   9.494   2.078
92025SOL     OW77906  14.129  12.215  11.977
92025SOL    HW177907  14.165  12.128  11.963
92025SOL    HW277908  14.182  12.273  11.922
92026SOL     OW77909  11.642   9.034   0.079
92026SOL    HW177910  11.570   9.043   0.141
92026SOL    HW277911  11.721   9.046   0.131
92027SOL     OW77912   7.984  10.939  10.711
92027SOL    HW177913   7.989  10.947  10.806
92027SOL    HW277914   8.075  10.931  10.683
92028SOL     OW77915   9.400   3.211   3.200
92028SOL    HW177916   9.432   3.289   3.154
92028SOL    HW277917   9.307   3.206   3.175
92029SOL     OW77918  13.217  13.929   6.507
92029SOL    HW177919  13.210  13.943   6.602
92029SOL    HW277920  13.292  13.980   6.480
92030SOL     OW77921  12.963   9.656  14.372
92030SOL    HW177922  12.899   9.692  14.310
92030SOL    HW277923  12.931   9.683  14.458
92031SOL     OW77924   0.013   6.175  11.461
92031SOL    HW177925  14.795   6.162  11.430
92031SOL    HW277926   0.045   6.251  11.413
92032SOL     OW77927  13.104   2.685   9.493
92032SOL    HW177928  13.061   2.609   9.534
92032SOL    HW277929  13.110   2.750   9.563
92033SOL     OW77930   8.209   9.043   8.331
92033SOL    HW177931   8.195   9.135   8.309
92033SOL    HW277932   8.140   9.022   8.394
92034SOL     OW77933   8.388   5.668   8.373
92034SOL    HW177934   8.345   5.647   8.291
92034SOL    HW277935   8.434   5.750   8.355
92035SOL     OW77936  11.714   2.674  12.653
92035SOL    HW177937  11.636   2.641  12.697
92035SOL    HW277938  11.776   2.690  12.724
92036SOL     OW77939  13.995   2.253  14.487
92036SOL    HW177940  14.012   2.167  14.527
92036SOL    HW277941  13.930   2.236  14.419
92037SOL     OW77942   1.471  10.438  10.660
92037SOL    HW177943   1.417  10.508  10.623
92037SOL    HW277944   1.560  10.471  10.653
92038SOL     OW77945  11.984   0.869   1.399
92038SOL    HW177946  11.996   0.784   1.442
92038SOL    HW277947  12.044   0.928   1.446
92039SOL     OW77948  13.197   0.119   5.292
92039SOL    HW177949  13.275   0.152   5.247
92039SOL    HW277950  13.161   0.195   5.338
92040SOL     OW77951   9.846  11.791   8.544
92040SOL    HW177952   9.867  11.791   8.450
92040SOL    HW277953   9.827  11.699   8.564
92041SOL     OW77954  13.613  11.392   7.686
92041SOL    HW177955  13.674  11.321   7.671
92041SOL    HW277956  13.577  11.377   7.773
92042SOL     OW77957  14.570   6.012   8.629
92042SOL    HW177958  14.638   6.033   8.693
92042SOL    HW277959  14.511   5.952   8.675
92043SOL     OW77960   4.374  13.758   1.352
92043SOL    HW177961   4.422  13.838   1.372
92043SOL    HW277962   4.420  13.719   1.278
92044SOL     OW77963  13.550   7.257   2.708
92044SOL    HW177964  13.472   7.246   2.764
92044SOL    HW277965  13.623   7.254   2.769
92045SOL     OW77966   0.708  13.474  12.929
92045SOL    HW177967   0.799  13.450  12.945
92045SOL    HW277968   0.697  13.464  12.835
92046SOL     OW77969  14.531   6.017   1.042
92046SOL    HW177970  14.590   6.031   1.116
92046SOL    HW277971  14.572   5.947   0.992
92047SOL     OW77972  13.008   4.453   3.395
92047SOL    HW177973  12.913   4.442   3.401
92047SOL    HW277974  13.030   4.513   3.465
92048SOL     OW77975   1.305   2.626   0.512
92048SOL    HW177976   1.314   2.721   0.513
92048SOL    HW277977   1.242   2.607   0.581
92049SOL     OW77978   6.760   8.714  12.628
92049SOL    HW177979   6.675   8.755  12.645
92049SOL    HW277980   6.817   8.749  12.696
92050SOL     OW77981   2.245   8.590   8.507
92050SOL    HW177982   2.179   8.639   8.458
92050SOL    HW277983   2.308   8.656   8.535
92051SOL     OW77984  14.855   8.362   0.616
92051SOL    HW177985   0.030   8.355   0.533
92051SOL    HW277986  14.863   8.276   0.657
92052SOL     OW77987  10.433   7.278   8.932
92052SOL    HW177988  10.463   7.278   8.841
92052SOL    HW277989  10.416   7.370   8.951
92053SOL     OW77990   9.474   3.885   4.056
92053SOL    HW177991   9.417   3.844   4.121
92053SOL    HW277992   9.428   3.874   3.973
92054SOL     OW77993  11.061  12.367  14.035
92054SOL    HW177994  10.991  12.357  14.100
92054SOL    HW277995  11.092  12.457  14.047
92055SOL     OW77996  13.771   6.800  12.600
92055SOL    HW177997  13.715   6.844  12.536
92055SOL    HW277998  13.850   6.777  12.550
92056SOL     OW77999   6.993  11.088   9.552
92056SOL    HW178000   7.034  11.106   9.467
92056SOL    HW278001   7.062  11.108   9.616
92057SOL     OW78002   5.467  10.169   1.931
92057SOL    HW178003   5.423  10.088   1.956
92057SOL    HW278004   5.418  10.199   1.854
92058SOL     OW78005  12.482   4.415   9.709
92058SOL    HW178006  12.492   4.491   9.652
92058SOL    HW278007  12.555   4.420   9.770
92059SOL     OW78008   4.742   2.466  10.263
92059SOL    HW178009   4.777   2.454  10.175
92059SOL    HW278010   4.730   2.561  10.272
92060SOL     OW78011   7.132   7.958  14.414
92060SOL    HW178012   7.056   8.008  14.445
92060SOL    HW278013   7.112   7.939  14.322
92061SOL     OW78014   6.704  11.034  12.709
92061SOL    HW178015   6.771  11.042  12.642
92061SOL    HW278016   6.662  11.120  12.712
92062SOL     OW78017  11.456  10.922  13.975
92062SOL    HW178018  11.406  10.899  13.896
92062SOL    HW278019  11.477  11.015  13.963
92063SOL     OW78020  12.190  10.030   8.743
92063SOL    HW178021  12.105   9.995   8.714
92063SOL    HW278022  12.233  10.056   8.662
92064SOL     OW78023   4.164  12.787   6.367
92064SOL    HW178024   4.073  12.799   6.341
92064SOL    HW278025   4.167  12.699   6.405
92065SOL     OW78026   2.829   2.913   1.020
92065SOL    HW178027   2.906   2.866   1.054
92065SOL    HW278028   2.864   2.971   0.953
92066SOL     OW78029   1.943   1.781  14.056
92066SOL    HW178030   1.852   1.751  14.049
92066SOL    HW278031   1.937   1.868  14.094
92067SOL     OW78032   6.988   6.118  12.776
92067SOL    HW178033   7.070   6.114  12.727
92067SOL    HW278034   6.968   6.211  12.782
92068SOL     OW78035   9.557   9.099  10.503
92068SOL    HW178036   9.541   9.174  10.446
92068SOL    HW278037   9.471   9.079  10.540
92069SOL     OW78038  12.796   1.401   4.255
92069SOL    HW178039  12.760   1.320   4.220
92069SOL    HW278040  12.876   1.415   4.205
92070SOL     OW78041   1.747   7.463  14.143
92070SOL    HW178042   1.816   7.506  14.194
92070SOL    HW278043   1.793   7.393  14.096
92071SOL     OW78044   7.320   3.359  11.575
92071SOL    HW178045   7.308   3.390  11.665
92071SOL    HW278046   7.415   3.357  11.563
92072SOL     OW78047  12.715   2.572  10.935
92072SOL    HW178048  12.750   2.624  10.863
92072SOL    HW278049  12.789   2.516  10.961
92073SOL     OW78050   8.995  12.793   6.849
92073SOL    HW178051   9.036  12.768   6.932
92073SOL    HW278052   8.955  12.878   6.868
92074SOL     OW78053   1.362   4.578  12.747
92074SOL    HW178054   1.346   4.627  12.827
92074SOL    HW278055   1.281   4.589  12.696
92075SOL     OW78056   1.875   7.410   8.005
92075SOL    HW178057   1.948   7.390   7.947
92075SOL    HW278058   1.879   7.342   8.073
92076SOL     OW78059   3.852   8.860   0.841
92076SOL    HW178060   3.910   8.920   0.793
92076SOL    HW278061   3.767   8.904   0.842
92077SOL     OW78062   4.423   4.528   4.121
92077SOL    HW178063   4.503   4.553   4.075
92077SOL    HW278064   4.384   4.611   4.148
92078SOL     OW78065   5.108   9.088  11.893
92078SOL    HW178066   5.061   9.171  11.903
92078SOL    HW278067   5.070   9.048  11.816
92079SOL     OW78068   3.822   2.669  11.234
92079SOL    HW178069   3.829   2.741  11.172
92079SOL    HW278070   3.873   2.598  11.194
92080SOL     OW78071   7.946   1.172   4.679
92080SOL    HW178072   7.999   1.113   4.732
92080SOL    HW278073   7.931   1.248   4.735
92081SOL     OW78074   9.332   3.304  11.608
92081SOL    HW178075   9.357   3.395  11.591
92081SOL    HW278076   9.329   3.298  11.704
92082SOL     OW78077  12.343   9.392  12.171
92082SOL    HW178078  12.379   9.455  12.233
92082SOL    HW278079  12.271   9.439  12.128
92083SOL     OW78080  11.920   2.571  12.861
92083SOL    HW178081  11.990   2.581  12.926
92083SOL    HW278082  11.853   2.520  12.905
92084SOL     OW78083   9.496  14.195   4.167
92084SOL    HW178084   9.487  14.138   4.244
92084SOL    HW278085   9.521  14.280   4.204
92085SOL     OW78086   2.184   8.215  12.949
92085SOL    HW178087   2.243   8.286  12.927
92085SOL    HW278088   2.207   8.191  13.039
92086SOL     OW78089   3.303   5.000   8.578
92086SOL    HW178090   3.238   4.944   8.620
92086SOL    HW278091   3.338   5.053   8.649
92087SOL     OW78092   1.717  13.899  13.380
92087SOL    HW178093   1.705  13.864  13.292
92087SOL    HW278094   1.652  13.854  13.433
92088SOL     OW78095   3.052   2.188   0.951
92088SOL    HW178096   3.136   2.232   0.938
92088SOL    HW278097   3.005   2.244   1.012
92089SOL     OW78098  14.140  14.393   6.949
92089SOL    HW178099  14.059  14.435   6.919
92089SOL    HW278100  14.203  14.409   6.878
92090SOL     OW78101   0.209   4.558   8.907
92090SOL    HW178102   0.286   4.612   8.888
92090SOL    HW278103   0.201   4.500   8.831
92091SOL     OW78104   1.860  10.355   6.429
92091SOL    HW178105   1.774  10.340   6.469
92091SOL    HW278106   1.922  10.316   6.491
92092SOL     OW78107   8.965   6.182   3.080
92092SOL    HW178108   9.017   6.174   3.000
92092SOL    HW278109   8.976   6.274   3.106
92093SOL     OW78110   8.718  10.786   7.280
92093SOL    HW178111   8.693  10.875   7.304
92093SOL    HW278112   8.636  10.745   7.251
92094SOL     OW78113   0.109  10.913   4.219
92094SOL    HW178114   0.194  10.869   4.229
92094SOL    HW278115   0.068  10.870   4.144
92095SOL     OW78116   8.801  14.673   6.878
92095SOL    HW178117   8.809  14.768   6.879
92095SOL    HW278118   8.885  14.642   6.842
92096SOL     OW78119  12.193  11.150   8.938
92096SOL    HW178120  12.184  11.058   8.963
92096SOL    HW278121  12.196  11.149   8.843
92097SOL     OW78122  10.794   5.702   3.145
92097SOL    HW178123  10.801   5.691   3.240
92097SOL    HW278124  10.709   5.663   3.123
92098SOL     OW78125   8.009   5.835   6.341
92098SOL    HW178126   8.041   5.778   6.271
92098SOL    HW278127   7.923   5.800   6.363
92099SOL     OW78128   7.389  12.179  12.688
92099SOL    HW178129   7.475  12.216  12.670
92099SOL    HW278130   7.374  12.196  12.781
92100SOL     OW78131   3.647   0.621   2.337
92100SOL    HW178132   3.694   0.600   2.417
92100SOL    HW278133   3.653   0.716   2.329
92101SOL     OW78134   4.294  12.482   9.481
92101SOL    HW178135   4.254  12.400   9.507
92101SOL    HW278136   4.389  12.466   9.485
92102SOL     OW78137  11.730  10.851  12.201
92102SOL    HW178138  11.808  10.838  12.146
92102SOL    HW278139  11.676  10.913  12.152
92103SOL     OW78140   8.290   0.267   9.907
92103SOL    HW178141   8.280   0.317   9.826
92103SOL    HW278142   8.267   0.328   9.977
92104SOL     OW78143   1.498  13.147  14.738
92104SOL    HW178144   1.456  13.199  14.806
92104SOL    HW278145   1.461  13.181  14.656
92105SOL     OW78146   0.983   6.255   2.104
92105SOL    HW178147   0.994   6.307   2.024
92105SOL    HW278148   0.990   6.164   2.075
92106SOL     OW78149   3.524   3.629  11.506
92106SOL    HW178150   3.577   3.579  11.567
92106SOL    HW278151   3.560   3.608  11.420
92107SOL     OW78152   0.410   8.825  14.288
92107SOL    HW178153   0.451   8.797  14.370
92107SOL    HW278154   0.483   8.857  14.235
92108SOL     OW78155   1.127  11.246   1.448
92108SOL    HW178156   1.061  11.178   1.437
92108SOL    HW278157   1.077  11.325   1.468
92109SOL     OW78158   4.593  11.455   5.433
92109SOL    HW178159   4.628  11.528   5.382
92109SOL    HW278160   4.669  11.400   5.450
92110SOL     OW78161  10.308  12.381   5.691
92110SOL    HW178162  10.363  12.391   5.614
92110SOL    HW278163  10.308  12.467   5.732
92111SOL     OW78164   9.416   6.870  12.659
92111SOL    HW178165   9.360   6.918  12.720
92111SOL    HW278166   9.416   6.922  12.579
92112SOL     OW78167   0.907  12.456   8.930
92112SOL    HW178168   0.832  12.496   8.887
92112SOL    HW278169   0.876  12.434   9.018
92113SOL     OW78170   3.507  13.726   5.218
92113SOL    HW178171   3.530  13.750   5.307
92113SOL    HW278172   3.535  13.801   5.164
92114SOL     OW78173   0.002  12.214  14.373
92114SOL    HW178174   0.047  12.142  14.418
92114SOL    HW278175   0.005  12.189  14.281
92115SOL     OW78176  14.514   2.972   4.507
92115SOL    HW178177  14.455   3.010   4.572
92115SOL    HW278178  14.599   2.971   4.550
92116SOL     OW78179  13.968   4.357   8.982
92116SOL    HW178180  14.057   4.356   8.945
92116SOL    HW278181  13.933   4.443   8.957
92117SOL     OW78182  11.246   9.146  11.904
92117SOL    HW178183  11.284   9.058  11.915
92117SOL    HW278184  11.201   9.163  11.988
92118SOL     OW78185   3.064   0.378  11.672
92118SOL    HW178186   3.059   0.437  11.748
92118SOL    HW278187   3.150   0.337  11.680
92119SOL     OW78188   4.753   3.643   6.431
92119SOL    HW178189   4.747   3.646   6.526
92119SOL    HW278190   4.694   3.712   6.401
92120SOL     OW78191   1.913  11.737  11.847
92120SOL    HW178192   1.998  11.728  11.804
92120SOL    HW278193   1.850  11.738  11.776
92121SOL     OW78194  14.591   0.688   5.152
92121SOL    HW178195  14.587   0.611   5.209
92121SOL    HW278196  14.555   0.759   5.205
92122SOL     OW78197  14.488   0.425   6.007
92122SOL    HW178198  14.529   0.427   6.094
92122SOL    HW278199  14.496   0.333   5.979
92123SOL     OW78200   3.079  12.094  10.956
92123SOL    HW178201   3.104  12.184  10.935
92123SOL    HW278202   3.023  12.067  10.883
92124SOL     OW78203   5.011  11.805   5.295
92124SOL    HW178204   5.047  11.883   5.251
92124SOL    HW278205   5.002  11.831   5.386
92125SOL     OW78206   0.283  14.741  12.999
92125SOL    HW178207   0.262  14.668  12.941
92125SOL    HW278208   0.307  14.700  13.082
92126SOL     OW78209   0.732  13.134  12.855
92126SOL    HW178210   0.797  13.118  12.923
92126SOL    HW278211   0.770  13.097  12.776
92127SOL     OW78212   7.751  14.505   1.261
92127SOL    HW178213   7.672  14.494   1.209
92127SOL    HW278214   7.809  14.558   1.207
92128SOL     OW78215   8.561   5.900   7.311
92128SOL    HW178216   8.584   5.985   7.272
92128SOL    HW278217   8.640   5.847   7.301
92129SOL     OW78218   2.277   0.243   2.049
92129SOL    HW178219   2.216   0.305   2.089
92129SOL    HW278220   2.346   0.232   2.115
92130SOL     OW78221  12.123  10.494   1.033
92130SOL    HW178222  12.151  10.452   1.114
92130SOL    HW278223  12.204  10.527   0.994
92131SOL     OW78224   3.431   2.205   5.216
92131SOL    HW178225   3.523   2.201   5.241
92131SOL    HW278226   3.408   2.297   5.226
92132SOL     OW78227   3.454   0.553   3.611
92132SOL    HW178228   3.508   0.603   3.550
92132SOL    HW278229   3.472   0.461   3.590
92133SOL     OW78230  13.882  10.897  12.144
92133SOL    HW178231  13.916  10.985  12.129
92133SOL    HW278232  13.819  10.884  12.073
92134SOL     OW78233   7.629   3.971   0.570
92134SOL    HW178234   7.648   4.049   0.518
92134SOL    HW278235   7.604   3.905   0.506
92135SOL     OW78236  14.617  10.715   9.059
92135SOL    HW178237  14.606  10.633   9.010
92135SOL    HW278238  14.667  10.772   9.001
92136SOL     OW78239   7.661   1.662  12.331
92136SOL    HW178240   7.716   1.668  12.253
92136SOL    HW278241   7.644   1.753  12.356
92137SOL     OW78242   4.771  12.642   2.969
92137SOL    HW178243   4.717  12.645   3.049
92137SOL    HW278244   4.781  12.734   2.944
92138SOL     OW78245   8.871   2.381   6.294
92138SOL    HW178246   8.808   2.344   6.356
92138SOL    HW278247   8.836   2.468   6.274
92139SOL     OW78248   1.057   6.625   1.290
92139SOL    HW178249   1.041   6.719   1.303
92139SOL    HW278250   1.075   6.616   1.197
92140SOL     OW78251  13.074   2.248   7.465
92140SOL    HW178252  13.033   2.221   7.383
92140SOL    HW278253  13.149   2.189   7.475
92141SOL     OW78254   1.659   0.395   1.918
92141SOL    HW178255   1.576   0.443   1.913
92141SOL    HW278256   1.636   0.311   1.957
92142SOL     OW78257   2.958   5.440   3.649
92142SOL    HW178258   3.032   5.379   3.655
92142SOL    HW278259   2.904   5.405   3.579
92143SOL     OW78260  11.332  14.544  10.491
92143SOL    HW178261  11.259  14.483  10.483
92143SOL    HW278262  11.388  14.505  10.558
92144SOL     OW78263   4.267   8.207  14.550
92144SOL    HW178264   4.236   8.123  14.516
92144SOL    HW278265   4.229   8.213  14.638
92145SOL     OW78266   0.055  12.684   1.321
92145SOL    HW178267   0.021  12.729   1.243
92145SOL    HW278268   0.064  12.754   1.386
92146SOL     OW78269   5.847   8.467  14.363
92146SOL    HW178270   5.875   8.381  14.392
92146SOL    HW278271   5.810   8.452  14.276
92147SOL     OW78272   4.868  14.622   2.844
92147SOL    HW178273   4.861  14.586   2.932
92147SOL    HW278274   4.878  14.546   2.787
92148SOL     OW78275   3.865   3.438  11.597
92148SOL    HW178276   3.799   3.491  11.641
92148SOL    HW278277   3.949   3.468  11.633
92149SOL     OW78278  13.008   1.569   2.442
92149SOL    HW178279  13.071   1.512   2.397
92149SOL    HW278280  13.048   1.656   2.437
92150SOL     OW78281   2.738   0.861   3.009
92150SOL    HW178282   2.700   0.948   3.027
92150SOL    HW278283   2.823   0.863   3.054
92151SOL     OW78284   6.686   5.973  11.928
92151SOL    HW178285   6.775   5.959  11.960
92151SOL    HW278286   6.660   5.890  11.890
92152SOL     OW78287   4.716   9.347   1.010
92152SOL    HW178288   4.783   9.411   0.986
92152SOL    HW278289   4.758   9.293   1.076
92153SOL     OW78290   1.534   8.907   9.035
92153SOL    HW178291   1.624   8.933   9.053
92153SOL    HW278292   1.541   8.831   8.977
92154SOL     OW78293   4.110   8.992   6.125
92154SOL    HW178294   4.103   8.925   6.058
92154SOL    HW278295   4.044   9.057   6.101
92155SOL     OW78296   0.814   5.191  10.916
92155SOL    HW178297   0.746   5.197  10.983
92155SOL    HW278298   0.779   5.242  10.843
92156SOL     OW78299   7.794  11.553   9.833
92156SOL    HW178300   7.816  11.467   9.870
92156SOL    HW278301   7.879  11.592   9.812
92157SOL     OW78302   3.310   6.421   2.959
92157SOL    HW178303   3.405   6.407   2.953
92157SOL    HW278304   3.272   6.355   2.901
92158SOL     OW78305   3.793  10.821  14.662
92158SOL    HW178306   3.822  10.906  14.695
92158SOL    HW278307   3.874  10.771  14.650
92159SOL     OW78308   9.781  12.470   1.175
92159SOL    HW178309   9.822  12.443   1.257
92159SOL    HW278310   9.779  12.566   1.180
92160SOL     OW78311   1.637   2.167   6.127
92160SOL    HW178312   1.628   2.127   6.213
92160SOL    HW278313   1.715   2.222   6.134
92161SOL     OW78314  10.583   2.324   7.916
92161SOL    HW178315  10.558   2.343   7.826
92161SOL    HW278316  10.672   2.288   7.909
92162SOL     OW78317   4.282  12.106   0.384
92162SOL    HW178318   4.254  12.175   0.324
92162SOL    HW278319   4.223  12.113   0.458
92163SOL     OW78320   4.927  10.894  11.012
92163SOL    HW178321   4.998  10.887  10.947
92163SOL    HW278322   4.956  10.964  11.070
92164SOL     OW78323   7.155  11.671   2.849
92164SOL    HW178324   7.086  11.650   2.913
92164SOL    HW278325   7.156  11.596   2.790
92165SOL     OW78326   2.124   6.347  13.321
92165SOL    HW178327   2.049   6.296  13.289
92165SOL    HW278328   2.195   6.284  13.329
92166SOL     OW78329  13.005   0.699   1.453
92166SOL    HW178330  13.067   0.631   1.480
92166SOL    HW278331  12.929   0.650   1.420
92167SOL     OW78332   0.666   9.291   5.444
92167SOL    HW178333   0.688   9.241   5.523
92167SOL    HW278334   0.723   9.368   5.448
92168SOL     OW78335  12.676  10.686   7.079
92168SOL    HW178336  12.619  10.636   7.137
92168SOL    HW278337  12.627  10.694   6.998
92169SOL     OW78338   2.555  14.206   5.330
92169SOL    HW178339   2.577  14.176   5.418
92169SOL    HW278340   2.460  14.198   5.325
92170SOL     OW78341   0.118  12.296   9.861
92170SOL    HW178342   0.106  12.201   9.860
92170SOL    HW278343   0.192  12.310   9.920
92171SOL     OW78344   1.986   3.126   0.741
92171SOL    HW178345   1.897   3.098   0.763
92171SOL    HW278346   2.042   3.058   0.777
92172SOL     OW78347   7.593   0.887  12.730
92172SOL    HW178348   7.528   0.906  12.662
92172SOL    HW278349   7.575   0.952  12.798
92173SOL     OW78350   5.543  12.937   8.802
92173SOL    HW178351   5.520  12.868   8.865
92173SOL    HW278352   5.554  13.015   8.855
92174SOL     OW78353  10.658   2.063   0.353
92174SOL    HW178354  10.699   2.139   0.312
92174SOL    HW278355  10.577   2.097   0.392
92175SOL     OW78356  12.223   0.055   1.078
92175SOL    HW178357  12.201   0.107   1.001
92175SOL    HW278358  12.318   0.063   1.086
92176SOL     OW78359   2.181   4.857   6.281
92176SOL    HW178360   2.226   4.938   6.305
92176SOL    HW278361   2.110   4.886   6.224
92177SOL     OW78362  14.229   5.475   3.711
92177SOL    HW178363  14.302   5.454   3.770
92177SOL    HW278364  14.237   5.413   3.639
92178SOL     OW78365  12.364  11.560  12.118
92178SOL    HW178366  12.311  11.486  12.146
92178SOL    HW278367  12.312  11.637  12.140
92179SOL     OW78368  12.213   7.880  14.588
92179SOL    HW178369  12.135   7.866  14.535
92179SOL    HW278370  12.197   7.963  14.633
92180SOL     OW78371   7.646   6.028  13.820
92180SOL    HW178372   7.668   6.121  13.823
92180SOL    HW278373   7.669   6.000  13.732
92181SOL     OW78374   2.989   6.911   2.469
92181SOL    HW178375   2.918   6.886   2.528
92181SOL    HW278376   2.970   6.864   2.388
92182SOL     OW78377   8.234   5.135   4.704
92182SOL    HW178378   8.169   5.205   4.695
92182SOL    HW278379   8.293   5.147   4.629
92183SOL     OW78380  10.570   7.896   8.286
92183SOL    HW178381  10.623   7.877   8.362
92183SOL    HW278382  10.587   7.824   8.226
92184SOL     OW78383   3.069   3.897   1.112
92184SOL    HW178384   3.061   3.986   1.146
92184SOL    HW278385   3.000   3.849   1.157
92185SOL     OW78386  12.993   3.834   7.664
92185SOL    HW178387  12.908   3.864   7.631
92185SOL    HW278388  13.026   3.906   7.716
92186SOL     OW78389   5.679   4.348   8.275
92186SOL    HW178390   5.717   4.387   8.196
92186SOL    HW278391   5.700   4.255   8.268
92187SOL     OW78392   8.653  14.248   2.885
92187SOL    HW178393   8.642  14.257   2.790
92187SOL    HW278394   8.566  14.263   2.922
92188SOL     OW78395  12.513   8.494  13.940
92188SOL    HW178396  12.493   8.415  13.889
92188SOL    HW278397  12.502   8.565  13.877
92189SOL     OW78398  14.709  11.687   1.418
92189SOL    HW178399  14.786  11.689   1.474
92189SOL    HW278400  14.736  11.635   1.341
92190SOL     OW78401  13.625   3.902   9.511
92190SOL    HW178402  13.622   3.972   9.577
92190SOL    HW278403  13.535   3.872   9.504
92191SOL     OW78404  13.787   7.840   6.059
92191SOL    HW178405  13.736   7.766   6.093
92191SOL    HW278406  13.792   7.824   5.965
92192SOL     OW78407   7.188   2.614  10.605
92192SOL    HW178408   7.179   2.672  10.681
92192SOL    HW278409   7.115   2.552  10.614
92193SOL     OW78410   2.480   0.624   5.835
92193SOL    HW178411   2.384   0.627   5.825
92193SOL    HW278412   2.513   0.645   5.748
92194SOL     OW78413   0.098  11.679   3.473
92194SOL    HW178414   0.076  11.772   3.479
92194SOL    HW278415   0.190  11.674   3.499
92195SOL     OW78416   2.180  11.933   1.025
92195SOL    HW178417   2.100  11.908   1.072
92195SOL    HW278418   2.168  12.026   1.005
92196SOL     OW78419   1.944   8.715  13.102
92196SOL    HW178420   2.021   8.759  13.138
92196SOL    HW278421   1.962   8.621  13.113
92197SOL     OW78422   2.910  10.912   6.144
92197SOL    HW178423   2.878  10.889   6.231
92197SOL    HW278424   2.875  10.843   6.087
92198SOL     OW78425   5.453   1.346  13.652
92198SOL    HW178426   5.534   1.300  13.630
92198SOL    HW278427   5.443   1.333  13.746
92199SOL     OW78428  11.532   9.315   5.251
92199SOL    HW178429  11.627   9.322   5.243
92199SOL    HW278430  11.502   9.405   5.263
92200SOL     OW78431  10.548   8.063  12.965
92200SOL    HW178432  10.517   7.991  12.910
92200SOL    HW278433  10.642   8.068  12.948
92201SOL     OW78434   3.889   3.175  13.497
92201SOL    HW178435   3.833   3.219  13.433
92201SOL    HW278436   3.839   3.179  13.579
92202SOL     OW78437   2.144   4.517  12.200
92202SOL    HW178438   2.071   4.552  12.252
92202SOL    HW278439   2.204   4.591  12.192
92203SOL     OW78440   5.005   4.161   6.923
92203SOL    HW178441   4.954   4.085   6.893
92203SOL    HW278442   4.977   4.233   6.867
92204SOL     OW78443   0.614   7.506  11.472
92204SOL    HW178444   0.557   7.436  11.502
92204SOL    HW278445   0.557   7.566  11.426
92205SOL     OW78446   4.500   2.434   9.921
92205SOL    HW178447   4.455   2.401   9.999
92205SOL    HW278448   4.590   2.450   9.950
92206SOL     OW78449   4.139   2.604   4.188
92206SOL    HW178450   4.227   2.568   4.204
92206SOL    HW278451   4.108   2.631   4.275
92207SOL     OW78452   2.068   1.525   0.605
92207SOL    HW178453   2.019   1.446   0.583
92207SOL    HW278454   2.159   1.502   0.588
92208SOL     OW78455  14.596   4.728  14.176
92208SOL    HW178456  14.520   4.707  14.231
92208SOL    HW278457  14.667   4.743  14.238
92209SOL     OW78458   4.216   5.361   9.588
92209SOL    HW178459   4.245   5.270   9.596
92209SOL    HW278460   4.218   5.394   9.678
92210SOL     OW78461   0.850   7.326   2.341
92210SOL    HW178462   0.810   7.288   2.263
92210SOL    HW278463   0.879   7.251   2.393
92211SOL     OW78464   4.797  13.046   9.202
92211SOL    HW178465   4.720  13.102   9.218
92211SOL    HW278466   4.806  13.044   9.107
92212SOL     OW78467  12.026   4.453  12.109
92212SOL    HW178468  12.010   4.547  12.121
92212SOL    HW278469  12.100   4.434  12.166
92213SOL     OW78470   9.409  10.066   1.705
92213SOL    HW178471   9.396  10.161   1.710
92213SOL    HW278472   9.372  10.032   1.787
92214SOL     OW78473   4.083   4.982  11.525
92214SOL    HW178474   4.085   4.949  11.436
92214SOL    HW278475   4.107   5.074  11.517
92215SOL     OW78476  11.790   7.967   2.862
92215SOL    HW178477  11.862   8.012   2.817
92215SOL    HW278478  11.769   8.022   2.936
92216SOL     OW78479   5.426   5.441   6.778
92216SOL    HW178480   5.474   5.522   6.761
92216SOL    HW278481   5.479   5.373   6.737
92217SOL     OW78482   9.230   4.849  13.697
92217SOL    HW178483   9.196   4.830  13.609
92217SOL    HW278484   9.257   4.764  13.730
92218SOL     OW78485   9.354  13.911  14.157
92218SOL    HW178486   9.326  13.884  14.070
92218SOL    HW278487   9.338  14.006  14.159
92219SOL     OW78488  12.738  13.180   1.032
92219SOL    HW178489  12.812  13.123   1.050
92219SOL    HW278490  12.683  13.174   1.110
92220SOL     OW78491   3.012   2.885  11.250
92220SOL    HW178492   3.094   2.901  11.203
92220SOL    HW278493   2.950   2.856  11.183
92221SOL     OW78494   0.850  13.218   5.209
92221SOL    HW178495   0.937  13.206   5.170
92221SOL    HW278496   0.797  13.148   5.172
92222SOL     OW78497  10.613   8.725  14.759
92222SOL    HW178498  10.527   8.717  14.800
92222SOL    HW278499  10.649   8.636  14.759
92223SOL     OW78500   2.177  13.886   5.952
92223SOL    HW178501   2.141  13.797   5.962
92223SOL    HW278502   2.261  13.873   5.910
92224SOL     OW78503  13.098   2.229  12.113
92224SOL    HW178504  13.182   2.257  12.150
92224SOL    HW278505  13.042   2.306  12.121
92225SOL     OW78506  12.833  11.374   1.412
92225SOL    HW178507  12.805  11.407   1.498
92225SOL    HW278508  12.753  11.365   1.362
92226SOL     OW78509  14.614   9.004  13.702
92226SOL    HW178510  14.680   8.934  13.697
92226SOL    HW278511  14.645   9.071  13.641
92227SOL     OW78512   5.644  13.219   1.907
92227SOL    HW178513   5.590  13.269   1.845
92227SOL    HW278514   5.603  13.235   1.992
92228SOL     OW78515   9.476   5.313  10.254
92228SOL    HW178516   9.396   5.365  10.252
92228SOL    HW278517   9.535   5.361  10.312
92229SOL     OW78518  13.378   5.785   1.475
92229SOL    HW178519  13.288   5.813   1.462
92229SOL    HW278520  13.393   5.792   1.569
92230SOL     OW78521   9.057   0.827   3.774
92230SOL    HW178522   9.141   0.854   3.736
92230SOL    HW278523   9.000   0.902   3.762
92231SOL     OW78524  12.126   6.614   7.383
92231SOL    HW178525  12.133   6.519   7.391
92231SOL    HW278526  12.182   6.637   7.310
92232SOL     OW78527  12.467  10.487  10.391
92232SOL    HW178528  12.443  10.512  10.480
92232SOL    HW278529  12.384  10.465  10.349
92233SOL     OW78530   1.867   2.138   1.520
92233SOL    HW178531   1.917   2.058   1.538
92233SOL    HW278532   1.780   2.107   1.496
92234SOL     OW78533   1.870   6.090   8.786
92234SOL    HW178534   1.952   6.039   8.788
92234SOL    HW278535   1.810   6.037   8.734
92235SOL     OW78536   6.309  11.703  11.212
92235SOL    HW178537   6.277  11.719  11.301
92235SOL    HW278538   6.390  11.654  11.225
92236SOL     OW78539   0.409   8.764  13.380
92236SOL    HW178540   0.494   8.725  13.358
92236SOL    HW278541   0.379   8.803  13.298
92237SOL     OW78542  13.690  12.340   0.484
92237SOL    HW178543  13.686  12.322   0.578
92237SOL    HW278544  13.605  12.379   0.463
92238SOL     OW78545  11.265  12.468   4.945
92238SOL    HW178546  11.285  12.459   5.038
92238SOL    HW278547  11.176  12.504   4.942
92239SOL     OW78548   1.645  12.548   7.281
92239SOL    HW178549   1.710  12.480   7.266
92239SOL    HW278550   1.662  12.577   7.371
92240SOL     OW78551   3.771  12.528  13.341
92240SOL    HW178552   3.725  12.577  13.409
92240SOL    HW278553   3.859  12.567  13.340
92241SOL     OW78554   9.333  10.630   3.430
92241SOL    HW178555   9.380  10.661   3.352
92241SOL    HW278556   9.287  10.552   3.401
92242SOL     OW78557   7.417  10.142  14.002
92242SOL    HW178558   7.329  10.131  13.965
92242SOL    HW278559   7.414  10.097  14.086
92243SOL     OW78560   0.840  11.036  10.830
92243SOL    HW178561   0.752  11.006  10.850
92243SOL    HW278562   0.891  11.017  10.908
92244SOL     OW78563  10.320  10.730   5.211
92244SOL    HW178564  10.229  10.699   5.205
92244SOL    HW278565  10.355  10.687   5.288
92245SOL     OW78566   9.925   2.415   8.660
92245SOL    HW178567   9.864   2.488   8.654
92245SOL    HW278568  10.009   2.451   8.631
92246SOL     OW78569   1.982   3.254   1.128
92246SOL    HW178570   2.000   3.342   1.161
92246SOL    HW278571   1.947   3.269   1.040
92247SOL     OW78572   3.377   5.468  13.563
92247SOL    HW178573   3.458   5.458  13.511
92247SOL    HW278574   3.312   5.415  13.516
92248SOL     OW78575   2.107   2.850   3.571
92248SOL    HW178576   2.093   2.780   3.507
92248SOL    HW278577   2.021   2.860   3.613
92249SOL     OW78578  14.183   9.796   2.344
92249SOL    HW178579  14.222   9.883   2.339
92249SOL    HW278580  14.187   9.773   2.437
92250SOL     OW78581  10.955   9.508   0.403
92250SOL    HW178582  10.954   9.539   0.312
92250SOL    HW278583  10.966   9.413   0.396
92251SOL     OW78584  13.519   0.135   3.973
92251SOL    HW178585  13.470   0.197   3.919
92251SOL    HW278586  13.608   0.171   3.976
92252SOL     OW78587   5.045   6.288  10.887
92252SOL    HW178588   5.039   6.198  10.855
92252SOL    HW278589   5.086   6.280  10.973
92253SOL     OW78590   2.354  11.611  14.513
92253SOL    HW178591   2.417  11.540  14.500
92253SOL    HW278592   2.360  11.664  14.434
92254SOL     OW78593  10.035  14.179  10.126
92254SOL    HW178594  10.065  14.120  10.195
92254SOL    HW278595  10.039  14.126  10.046
92255SOL     OW78596   2.601   3.395   5.505
92255SOL    HW178597   2.583   3.378   5.412
92255SOL    HW278598   2.524   3.360   5.551
92256SOL     OW78599  12.808   7.878  12.447
92256SOL    HW178600  12.735   7.827  12.483
92256SOL    HW278601  12.848   7.821  12.382
92257SOL     OW78602   1.692   1.689   2.510
92257SOL    HW178603   1.728   1.644   2.586
92257SOL    HW278604   1.767   1.733   2.471
92258SOL     OW78605   1.481  14.838   2.379
92258SOL    HW178606   1.461   0.055   2.353
92258SOL    HW278607   1.569  14.842   2.415
92259SOL     OW78608   7.441   7.688   5.780
92259SOL    HW178609   7.509   7.723   5.837
92259SOL    HW278610   7.418   7.604   5.819
92260SOL     OW78611   7.064   7.450  10.755
92260SOL    HW178612   7.148   7.495  10.752
92260SOL    HW278613   7.084   7.359  10.735
92261SOL     OW78614   6.588   9.756   8.357
92261SOL    HW178615   6.563   9.708   8.277
92261SOL    HW278616   6.606   9.688   8.421
92262SOL     OW78617  11.841   0.176  14.417
92262SOL    HW178618  11.813   0.196  14.506
92262SOL    HW278619  11.802   0.091  14.397
92263SOL     OW78620   7.270  14.267  10.938
92263SOL    HW178621   7.326  14.342  10.916
92263SOL    HW278622   7.208  14.260  10.866
92264SOL     OW78623  10.090   3.839   7.887
92264SOL    HW178624  10.078   3.887   7.969
92264SOL    HW278625  10.056   3.898   7.820
92265SOL     OW78626   4.308  10.180   1.537
92265SOL    HW178627   4.366  10.188   1.613
92265SOL    HW278628   4.365  10.193   1.461
92266SOL     OW78629   7.111  13.233  10.403
92266SOL    HW178630   7.032  13.192  10.438
92266SOL    HW278631   7.088  13.325  10.391
92267SOL     OW78632   4.254   8.511  13.843
92267SOL    HW178633   4.287   8.534  13.930
92267SOL    HW278634   4.199   8.434  13.858
92268SOL     OW78635  12.701   6.984   8.376
92268SOL    HW178636  12.627   6.959   8.319
92268SOL    HW278637  12.700   6.918   8.445
92269SOL     OW78638   0.708   9.550   6.197
92269SOL    HW178639   0.732   9.514   6.111
92269SOL    HW278640   0.687   9.473   6.250
92270SOL     OW78641   7.600   4.190   6.105
92270SOL    HW178642   7.604   4.102   6.144
92270SOL    HW278643   7.685   4.202   6.064
92271SOL     OW78644  10.356   6.055   8.104
92271SOL    HW178645  10.274   6.087   8.067
92271SOL    HW278646  10.419   6.062   8.032
92272SOL     OW78647   6.243   1.025   0.608
92272SOL    HW178648   6.314   0.961   0.612
92272SOL    HW278649   6.243   1.054   0.517
92273SOL     OW78650  10.289   6.925  14.480
92273SOL    HW178651  10.355   6.926  14.549
92273SOL    HW278652  10.227   6.857  14.506
92274SOL     OW78653   3.690  14.145  11.423
92274SOL    HW178654   3.706  14.056  11.390
92274SOL    HW278655   3.606  14.140  11.467
92275SOL     OW78656   5.340   9.769   7.687
92275SOL    HW178657   5.346   9.846   7.630
92275SOL    HW278658   5.406   9.708   7.652
92276SOL     OW78659   0.307   3.249  12.857
92276SOL    HW178660   0.264   3.303  12.923
92276SOL    HW278661   0.241   3.237  12.789
92277SOL     OW78662  12.618   9.134   3.970
92277SOL    HW178663  12.531   9.165   3.997
92277SOL    HW278664  12.622   9.151   3.876
92278SOL     OW78665   5.979   3.117   9.891
92278SOL    HW178666   6.057   3.062   9.882
92278SOL    HW278667   5.906   3.055   9.892
92279SOL     OW78668   3.563   4.062  11.380
92279SOL    HW178669   3.519   3.989  11.424
92279SOL    HW278670   3.651   4.029  11.361
92280SOL     OW78671   3.001  13.812   9.854
92280SOL    HW178672   2.970  13.722   9.858
92280SOL    HW278673   2.957  13.857   9.926
92281SOL     OW78674   8.459   0.844   6.421
92281SOL    HW178675   8.445   0.791   6.342
92281SOL    HW278676   8.447   0.783   6.493
92282SOL     OW78677   3.301   8.026   0.363
92282SOL    HW178678   3.252   7.945   0.368
92282SOL    HW278679   3.314   8.041   0.269
92283SOL     OW78680   5.776   8.651   3.710
92283SOL    HW178681   5.764   8.631   3.803
92283SOL    HW278682   5.820   8.574   3.674
92284SOL     OW78683   4.368   9.547   3.526
92284SOL    HW178684   4.302   9.573   3.590
92284SOL    HW278685   4.334   9.580   3.443
92285SOL     OW78686  10.642  11.302   3.038
92285SOL    HW178687  10.584  11.227   3.053
92285SOL    HW278688  10.714  11.267   2.985
92286SOL     OW78689   7.901   1.370   4.869
92286SOL    HW178690   7.922   1.455   4.831
92286SOL    HW278691   7.966   1.358   4.939
92287SOL     OW78692   0.502  11.772  14.263
92287SOL    HW178693   0.471  11.683  14.244
92287SOL    HW278694   0.443  11.805  14.330
92288SOL     OW78695   8.381  13.943  12.316
92288SOL    HW178696   8.336  13.923  12.398
92288SOL    HW278697   8.474  13.939  12.338
92289SOL     OW78698   3.792  12.501  11.499
92289SOL    HW178699   3.740  12.534  11.573
92289SOL    HW278700   3.794  12.406  11.512
92290SOL     OW78701  13.340   8.478   4.428
92290SOL    HW178702  13.248   8.456   4.417
92290SOL    HW278703  13.362   8.448   4.516
92291SOL     OW78704  11.183  13.103   6.463
92291SOL    HW178705  11.221  13.154   6.535
92291SOL    HW278706  11.199  13.012   6.488
92292SOL     OW78707  10.240   5.402   9.274
92292SOL    HW178708  10.239   5.492   9.305
92292SOL    HW278709  10.240   5.409   9.178
92293SOL     OW78710   4.841   6.732   3.274
92293SOL    HW178711   4.773   6.792   3.244
92293SOL    HW278712   4.816   6.647   3.237
92294SOL     OW78713  14.089   8.781   0.655
92294SOL    HW178714  14.128   8.814   0.736
92294SOL    HW278715  14.154   8.800   0.587
92295SOL     OW78716   0.425   1.138   4.097
92295SOL    HW178717   0.379   1.125   4.014
92295SOL    HW278718   0.488   1.208   4.078
92296SOL     OW78719  13.948   1.114   7.749
92296SOL    HW178720  13.915   1.030   7.717
92296SOL    HW278721  13.910   1.122   7.837
92297SOL     OW78722   7.184   2.668  13.393
92297SOL    HW178723   7.126   2.616  13.448
92297SOL    HW278724   7.172   2.632  13.305
92298SOL     OW78725   1.408   5.827   8.816
92298SOL    HW178726   1.341   5.835   8.884
92298SOL    HW278727   1.475   5.770   8.855
92299SOL     OW78728   8.786   0.244   3.897
92299SOL    HW178729   8.728   0.205   3.833
92299SOL    HW278730   8.862   0.274   3.846
92300SOL     OW78731   3.205   4.888  14.746
92300SOL    HW178732   3.280   4.905  14.690
92300SOL    HW278733   3.142   4.845  14.688
92301SOL     OW78734   5.859  11.169   9.349
92301SOL    HW178735   5.870  11.085   9.393
92301SOL    HW278736   5.946  11.209   9.352
92302SOL     OW78737   0.902  13.582   1.165
92302SOL    HW178738   0.911  13.676   1.147
92302SOL    HW278739   0.972  13.563   1.227
92303SOL     OW78740   1.441   6.009   5.220
92303SOL    HW178741   1.504   6.019   5.292
92303SOL    HW278742   1.444   5.916   5.198
92304SOL     OW78743  13.796   5.374  12.400
92304SOL    HW178744  13.749   5.439  12.452
92304SOL    HW278745  13.867   5.424  12.359
92305SOL     OW78746  13.049   4.223   9.628
92305SOL    HW178747  13.116   4.188   9.687
92305SOL    HW278748  13.095   4.232   9.544
92306SOL     OW78749   4.847  10.416   7.269
92306SOL    HW178750   4.887  10.419   7.356
92306SOL    HW278751   4.913  10.453   7.211
92307SOL     OW78752   1.502   3.648   3.833
92307SOL    HW178753   1.407   3.661   3.836
92307SOL    HW278754   1.537   3.734   3.811
92308SOL     OW78755   4.109   6.424  11.575
92308SOL    HW178756   4.145   6.473  11.649
92308SOL    HW278757   4.158   6.342  11.575
92309SOL     OW78758  13.388   8.177   0.784
92309SOL    HW178759  13.412   8.115   0.714
92309SOL    HW278760  13.365   8.121   0.858
92310SOL     OW78761   9.458   9.504   5.997
92310SOL    HW178762   9.440   9.515   5.904
92310SOL    HW278763   9.372   9.487   6.036
92311SOL     OW78764  12.802   2.474   1.863
92311SOL    HW178765  12.831   2.526   1.939
92311SOL    HW278766  12.711   2.454   1.882
92312SOL     OW78767   1.156   6.688   8.918
92312SOL    HW178768   1.192   6.766   8.877
92312SOL    HW278769   1.068   6.679   8.882
92313SOL     OW78770   0.503  12.831   5.193
92313SOL    HW178771   0.567  12.889   5.150
92313SOL    HW278772   0.532  12.827   5.284
92314SOL     OW78773   8.300  14.229   3.466
92314SOL    HW178774   8.377  14.174   3.485
92314SOL    HW278775   8.305  14.299   3.530
92315SOL     OW78776  13.696   7.990   0.376
92315SOL    HW178777  13.748   7.910   0.388
92315SOL    HW278778  13.606   7.958   0.363
92316SOL     OW78779  11.054  11.117   0.375
92316SOL    HW178780  11.045  11.198   0.324
92316SOL    HW278781  11.148  11.111   0.393
92317SOL     OW78782  13.306   7.340  14.752
92317SOL    HW178783  13.289   7.427  14.788
92317SOL    HW278784  13.395   7.320  14.780
92318SOL     OW78785  14.790  13.677   1.191
92318SOL    HW178786  14.756  13.588   1.196
92318SOL    HW278787  14.713  13.733   1.197
92319SOL     OW78788  14.578  13.704   9.248
92319SOL    HW178789  14.598  13.622   9.292
92319SOL    HW278790  14.636  13.706   9.172
92320SOL     OW78791   1.132  12.200   1.706
92320SOL    HW178792   1.208  12.245   1.743
92320SOL    HW278793   1.058  12.227   1.761
92321SOL     OW78794   3.812  13.364  12.316
92321SOL    HW178795   3.895  13.351  12.361
92321SOL    HW278796   3.804  13.288  12.258
92322SOL     OW78797  14.171   9.754   4.259
92322SOL    HW178798  14.245   9.694   4.260
92322SOL    HW278799  14.158   9.774   4.167
92323SOL     OW78800  12.966   4.832  11.766
92323SOL    HW178801  13.034   4.766  11.755
92323SOL    HW278802  12.920   4.807  11.846
92324SOL     OW78803  13.006  12.631   4.815
92324SOL    HW178804  13.042  12.710   4.774
92324SOL    HW278805  12.912  12.645   4.816
92325SOL     OW78806  10.077   2.728   5.801
92325SOL    HW178807  10.046   2.817   5.786
92325SOL    HW278808  10.168   2.730   5.771
92326SOL     OW78809   0.555  11.771  13.205
92326SOL    HW178810   0.554  11.681  13.174
92326SOL    HW278811   0.648  11.789  13.223
92327SOL     OW78812   3.551   6.959   1.936
92327SOL    HW178813   3.597   6.913   2.007
92327SOL    HW278814   3.494   6.893   1.897
92328SOL     OW78815   4.503   8.680   9.076
92328SOL    HW178816   4.442   8.751   9.054
92328SOL    HW278817   4.577   8.725   9.116
92329SOL     OW78818   5.378   2.075   3.332
92329SOL    HW178819   5.462   2.094   3.291
92329SOL    HW278820   5.350   2.158   3.370
92330SOL     OW78821   9.309  10.052   0.940
92330SOL    HW178822   9.231  10.089   0.981
92330SOL    HW278823   9.303   9.958   0.959
92331SOL     OW78824   6.100  11.039   8.732
92331SOL    HW178825   6.038  10.992   8.787
92331SOL    HW278826   6.134  11.109   8.788
92332SOL     OW78827   6.352  13.572   1.018
92332SOL    HW178828   6.332  13.644   0.959
92332SOL    HW278829   6.448  13.566   1.018
92333SOL     OW78830   4.432   0.199  14.031
92333SOL    HW178831   4.508   0.180  13.976
92333SOL    HW278832   4.364   0.141  13.998
92334SOL     OW78833   5.979  14.464   3.640
92334SOL    HW178834   6.018  14.384   3.605
92334SOL    HW278835   6.025  14.479   3.723
92335SOL     OW78836  12.353  12.886  12.505
92335SOL    HW178837  12.372  12.866  12.597
92335SOL    HW278838  12.263  12.859  12.492
92336SOL     OW78839   2.096   9.841   0.424
92336SOL    HW178840   2.049   9.924   0.423
92336SOL    HW278841   2.135   9.835   0.337
92337SOL     OW78842   2.514   6.431  11.700
92337SOL    HW178843   2.538   6.349  11.657
92337SOL    HW278844   2.495   6.405  11.791
92338SOL     OW78845  12.741  12.326   7.823
92338SOL    HW178846  12.788  12.279   7.892
92338SOL    HW278847  12.673  12.265   7.794
92339SOL     OW78848  13.034   4.547   5.487
92339SOL    HW178849  13.024   4.452   5.495
92339SOL    HW278850  12.946   4.582   5.500
92340SOL     OW78851   8.320   3.906   3.984
92340SOL    HW178852   8.252   3.839   3.994
92340SOL    HW278853   8.273   3.984   3.954
92341SOL     OW78854  10.272   8.104  13.511
92341SOL    HW178855  10.333   8.166  13.472
92341SOL    HW278856  10.265   8.033  13.447
92342SOL     OW78857  10.216  12.309   1.042
92342SOL    HW178858  10.169  12.392   1.030
92342SOL    HW278859  10.308  12.332   1.031
92343SOL     OW78860   9.889   0.058   1.701
92343SOL    HW178861   9.833   0.098   1.634
92343SOL    HW278862   9.888   0.121   1.773
92344SOL     OW78863   1.470  14.137  10.778
92344SOL    HW178864   1.387  14.088  10.784
92344SOL    HW278865   1.520  14.091  10.711
92345SOL     OW78866   4.510  10.054  13.800
92345SOL    HW178867   4.437  10.017  13.750
92345SOL    HW278868   4.568  10.091  13.734
92346SOL     OW78869  11.325   9.370   3.837
92346SOL    HW178870  11.336   9.294   3.780
92346SOL    HW278871  11.230   9.380   3.845
92347SOL     OW78872   0.351   8.894  13.078
92347SOL    HW178873   0.343   8.920  12.986
92347SOL    HW278874   0.275   8.932  13.121
92348SOL     OW78875   4.614  11.251   0.864
92348SOL    HW178876   4.693  11.301   0.843
92348SOL    HW278877   4.569  11.303   0.931
92349SOL     OW78878   1.234  12.578   9.664
92349SOL    HW178879   1.284  12.649   9.623
92349SOL    HW278880   1.143  12.609   9.664
92350SOL     OW78881  11.614   5.021   2.171
92350SOL    HW178882  11.659   4.985   2.094
92350SOL    HW278883  11.653   4.974   2.245
92351SOL     OW78884  12.566  13.793   6.516
92351SOL    HW178885  12.513  13.717   6.543
92351SOL    HW278886  12.571  13.848   6.595
92352SOL     OW78887   6.917   5.726   8.725
92352SOL    HW178888   6.987   5.678   8.682
92352SOL    HW278889   6.938   5.720   8.819
92353SOL     OW78890   6.051  12.931   6.720
92353SOL    HW178891   6.094  12.898   6.800
92353SOL    HW278892   5.975  12.979   6.752
92354SOL     OW78893  12.998  13.978  11.730
92354SOL    HW178894  12.935  13.911  11.757
92354SOL    HW278895  13.083  13.946  11.761
92355SOL     OW78896   3.439  10.783   7.877
92355SOL    HW178897   3.460  10.704   7.828
92355SOL    HW278898   3.393  10.751   7.955
92356SOL     OW78899   3.427   9.960  12.052
92356SOL    HW178900   3.516   9.985  12.078
92356SOL    HW278901   3.408  10.016  11.977
92357SOL     OW78902  12.274   6.490   6.403
92357SOL    HW178903  12.301   6.581   6.391
92357SOL    HW278904  12.271   6.454   6.315
92358SOL     OW78905   2.796   5.563   2.076
92358SOL    HW178906   2.707   5.573   2.110
92358SOL    HW278907   2.788   5.577   1.982
92359SOL     OW78908   2.155   1.162   7.517
92359SOL    HW178909   2.200   1.132   7.438
92359SOL    HW278910   2.100   1.088   7.543
92360SOL     OW78911  10.712   7.096   4.943
92360SOL    HW178912  10.678   7.093   5.032
92360SOL    HW278913  10.772   7.023   4.937
92361SOL     OW78914  10.979   3.698   8.284
92361SOL    HW178915  11.058   3.709   8.337
92361SOL    HW278916  10.913   3.754   8.327
92362SOL     OW78917  13.166   4.246   1.291
92362SOL    HW178918  13.200   4.334   1.279
92362SOL    HW278919  13.072   4.258   1.306
92363SOL     OW78920   9.475   3.541  10.441
92363SOL    HW178921   9.414   3.595  10.392
92363SOL    HW278922   9.470   3.455  10.398
92364SOL     OW78923   3.845   4.102   0.687
92364SOL    HW178924   3.807   4.035   0.630
92364SOL    HW278925   3.871   4.053   0.766
92365SOL     OW78926  14.105   3.743  12.371
92365SOL    HW178927  14.039   3.808  12.347
92365SOL    HW278928  14.171   3.749  12.301
92366SOL     OW78929   9.580   8.067   4.198
92366SOL    HW178930   9.502   8.121   4.212
92366SOL    HW278931   9.642   8.124   4.154
92367SOL     OW78932  14.235   0.754   1.466
92367SOL    HW178933  14.261   0.708   1.386
92367SOL    HW278934  14.240   0.687   1.535
92368SOL     OW78935   6.497   1.918   1.256
92368SOL    HW178936   6.493   2.000   1.207
92368SOL    HW278937   6.484   1.945   1.347
92369SOL     OW78938   1.014  10.340   9.546
92369SOL    HW178939   0.993  10.326   9.639
92369SOL    HW278940   0.975  10.426   9.526
92370SOL     OW78941   2.858  13.108   5.888
92370SOL    HW178942   2.947  13.079   5.872
92370SOL    HW278943   2.818  13.039   5.940
92371SOL     OW78944   9.603   0.967   0.615
92371SOL    HW178945   9.652   0.989   0.695
92371SOL    HW278946   9.651   1.011   0.545
92372SOL     OW78947   5.584   2.129   4.296
92372SOL    HW178948   5.669   2.085   4.301
92372SOL    HW278949   5.541   2.089   4.221
92373SOL     OW78950  13.365   4.392  11.512
92373SOL    HW178951  13.324   4.331  11.573
92373SOL    HW278952  13.293   4.425  11.459
92374SOL     OW78953   1.670  13.719   5.897
92374SOL    HW178954   1.615  13.787   5.860
92374SOL    HW278955   1.682  13.744   5.988
92375SOL     OW78956   0.248   3.629  12.060
92375SOL    HW178957   0.310   3.628  12.133
92375SOL    HW278958   0.178   3.571  12.088
92376SOL     OW78959  14.282   6.802  10.866
92376SOL    HW178960  14.368   6.773  10.897
92376SOL    HW278961  14.261   6.742  10.794
92377SOL     OW78962  14.434  14.039  12.063
92377SOL    HW178963  14.448  14.133  12.051
92377SOL    HW278964  14.382  14.032  12.142
92378SOL     OW78965   9.046   6.422   3.136
92378SOL    HW178966   9.043   6.448   3.228
92378SOL    HW278967   9.110   6.481   3.097
92379SOL     OW78968   2.833   9.349  10.895
92379SOL    HW178969   2.803   9.291  10.824
92379SOL    HW278970   2.764   9.414  10.904
92380SOL     OW78971   2.226   3.032  10.597
92380SOL    HW178972   2.162   3.056  10.530
92380SOL    HW278973   2.206   2.940  10.616
92381SOL     OW78974  14.357   3.913   3.567
92381SOL    HW178975  14.288   3.891   3.629
92381SOL    HW278976  14.434   3.865   3.598
92382SOL     OW78977   0.922  11.412  11.150
92382SOL    HW178978   0.897  11.459  11.070
92382SOL    HW278979   0.989  11.350  11.122
92383SOL     OW78980   9.481  10.495  13.458
92383SOL    HW178981   9.470  10.580  13.502
92383SOL    HW278982   9.575  10.489  13.441
92384SOL     OW78983   6.260   6.558   7.467
92384SOL    HW178984   6.178   6.579   7.513
92384SOL    HW278985   6.272   6.464   7.482
92385SOL     OW78986   2.442   8.679   3.938
92385SOL    HW178987   2.461   8.649   3.849
92385SOL    HW278988   2.357   8.641   3.959
92386SOL     OW78989   3.209   9.933   4.786
92386SOL    HW178990   3.140   9.993   4.758
92386SOL    HW278991   3.277   9.991   4.821
92387SOL     OW78992   7.616   4.263   9.889
92387SOL    HW178993   7.706   4.231   9.888
92387SOL    HW278994   7.596   4.277   9.981
92388SOL     OW78995   6.980  14.715   6.109
92388SOL    HW178996   7.007  14.664   6.033
92388SOL    HW278997   6.908  14.665   6.147
92389SOL     OW78998   7.194  13.449  12.954
92389SOL    HW178999   7.199  13.381  12.887
92389SOL    HW279000   7.268  13.507  12.934
92390SOL     OW79001  10.744   4.137  10.789
92390SOL    HW179002  10.732   4.197  10.863
92390SOL    HW279003  10.836   4.148  10.764
92391SOL     OW79004   4.003  13.712   4.064
92391SOL    HW179005   4.017  13.806   4.073
92391SOL    HW279006   3.981  13.699   3.971
92392SOL     OW79007   7.955   7.241   5.361
92392SOL    HW179008   7.919   7.252   5.272
92392SOL    HW279009   7.942   7.326   5.402
92393SOL     OW79010  13.714   3.592  13.618
92393SOL    HW179011  13.664   3.521  13.578
92393SOL    HW279012  13.691   3.669  13.566
92394SOL     OW79013   9.594   0.771   8.882
92394SOL    HW179014   9.666   0.834   8.881
92394SOL    HW279015   9.592   0.737   8.792
92395SOL     OW79016   8.708  14.571   9.414
92395SOL    HW179017   8.747  14.643   9.366
92395SOL    HW279018   8.755  14.570   9.498
92396SOL     OW79019  10.334   2.480  14.053
92396SOL    HW179020  10.323   2.554  13.994
92396SOL    HW279021  10.383   2.415  14.003
92397SOL     OW79022   7.422  13.435   5.598
92397SOL    HW179023   7.392  13.526   5.595
92397SOL    HW279024   7.452  13.416   5.510
92398SOL     OW79025  11.240   5.349  11.100
92398SOL    HW179026  11.273   5.438  11.113
92398SOL    HW279027  11.146   5.355  11.117
92399SOL     OW79028   4.551   1.438  11.976
92399SOL    HW179029   4.493   1.426  11.902
92399SOL    HW279030   4.497   1.422  12.053
92400SOL     OW79031  10.572  12.037   1.861
92400SOL    HW179032  10.504  11.983   1.820
92400SOL    HW279033  10.591  11.993   1.944
92401SOL     OW79034  11.418   2.131  10.875
92401SOL    HW179035  11.512   2.121  10.859
92401SOL    HW279036  11.412   2.162  10.965
92402SOL     OW79037   6.239   7.870   9.143
92402SOL    HW179038   6.213   7.922   9.219
92402SOL    HW279039   6.171   7.887   9.078
92403SOL     OW79040  12.497   7.889  10.625
92403SOL    HW179041  12.501   7.908  10.531
92403SOL    HW279042  12.470   7.971  10.665
92404SOL     OW79043   5.463  11.772   0.024
92404SOL    HW179044   5.454  11.718   0.102
92404SOL    HW279045   5.374  11.801   0.004
92405SOL     OW79046   2.342   5.329  14.444
92405SOL    HW179047   2.301   5.343  14.530
92405SOL    HW279048   2.307   5.246  14.413
92406SOL     OW79049   0.853  14.691   4.738
92406SOL    HW179050   0.824  14.601   4.721
92406SOL    HW279051   0.907  14.685   4.817
92407SOL     OW79052   1.044   4.671  11.704
92407SOL    HW179053   1.006   4.639  11.622
92407SOL    HW279054   1.081   4.757  11.680
92408SOL     OW79055   9.041   3.341  14.357
92408SOL    HW179056   8.948   3.356  14.372
92408SOL    HW279057   9.044   3.275  14.287
92409SOL     OW79058   2.953  12.004  10.753
92409SOL    HW179059   2.914  11.925  10.717
92409SOL    HW279060   2.994  12.047  10.678
92410SOL     OW79061   6.202   2.524   2.157
92410SOL    HW179062   6.125   2.581   2.151
92410SOL    HW279063   6.249   2.539   2.075
92411SOL     OW79064  13.658  12.031   4.769
92411SOL    HW179065  13.633  12.090   4.698
92411SOL    HW279066  13.724  11.973   4.731
92412SOL     OW79067   4.621   9.877  11.286
92412SOL    HW179068   4.635   9.857  11.379
92412SOL    HW279069   4.527   9.898  11.281
92413SOL     OW79070   8.892   4.755   9.370
92413SOL    HW179071   8.822   4.771   9.433
92413SOL    HW279072   8.947   4.833   9.375
92414SOL     OW79073  13.571  10.234  10.953
92414SOL    HW179074  13.618  10.194  10.880
92414SOL    HW279075  13.601  10.325  10.954
92415SOL     OW79076  13.150  10.950  11.395
92415SOL    HW179077  13.181  10.866  11.428
92415SOL    HW279078  13.072  10.929  11.344
92416SOL     OW79079   8.577  14.575   8.504
92416SOL    HW179080   8.657  14.543   8.461
92416SOL    HW279081   8.558  14.658   8.462
92417SOL     OW79082   9.647   1.333   5.680
92417SOL    HW179083   9.612   1.349   5.767
92417SOL    HW279084   9.736   1.366   5.683
92418SOL     OW79085   5.050   0.179  13.477
92418SOL    HW179086   5.004   0.238  13.536
92418SOL    HW279087   5.142   0.205  13.483
92419SOL     OW79088  10.113   1.617   2.466
92419SOL    HW179089  10.027   1.658   2.475
92419SOL    HW279090  10.116   1.587   2.375
92420SOL     OW79091   7.116  14.418   8.871
92420SOL    HW179092   7.033  14.405   8.825
92420SOL    HW279093   7.180  14.372   8.817
92421SOL     OW79094   5.202   0.644   5.100
92421SOL    HW179095   5.241   0.567   5.059
92421SOL    HW279096   5.276   0.701   5.120
92422SOL     OW79097   0.360   7.889  12.605
92422SOL    HW179098   0.371   7.932  12.690
92422SOL    HW279099   0.343   7.797  12.626
92423SOL     OW79100  10.950  10.769   4.179
92423SOL    HW179101  10.979  10.758   4.269
92423SOL    HW279102  10.914  10.858   4.176
92424SOL     OW79103   7.615  13.129   2.114
92424SOL    HW179104   7.534  13.112   2.163
92424SOL    HW279105   7.597  13.209   2.065
92425SOL     OW79106   7.733   9.178  10.066
92425SOL    HW179107   7.665   9.169   9.998
92425SOL    HW279108   7.693   9.140  10.144
92426SOL     OW79109   2.316  12.320   6.702
92426SOL    HW179110   2.280  12.237   6.733
92426SOL    HW279111   2.271  12.387   6.755
92427SOL     OW79112  14.297   4.864  12.886
92427SOL    HW179113  14.247   4.946  12.895
92427SOL    HW279114  14.269   4.810  12.960
92428SOL     OW79115   1.403   4.767   0.835
92428SOL    HW179116   1.481   4.754   0.782
92428SOL    HW279117   1.432   4.822   0.907
92429SOL     OW79118  13.782   8.385   7.329
92429SOL    HW179119  13.866   8.341   7.321
92429SOL    HW279120  13.732   8.356   7.253
92430SOL     OW79121  10.192   0.329  14.743
92430SOL    HW179122  10.127   0.293  14.804
92430SOL    HW279123  10.157   0.416  14.720
92431SOL     OW79124  12.999   7.728   3.034
92431SOL    HW179125  12.957   7.721   2.948
92431SOL    HW279126  13.092   7.741   3.015
92432SOL     OW79127   1.578  12.295   3.345
92432SOL    HW179128   1.518  12.346   3.291
92432SOL    HW279129   1.633  12.360   3.388
92433SOL     OW79130  10.405   4.245  11.946
92433SOL    HW179131  10.358   4.169  11.911
92433SOL    HW279132  10.468   4.268  11.878
92434SOL     OW79133   9.279  14.445  12.228
92434SOL    HW179134   9.281  14.520  12.169
92434SOL    HW279135   9.353  14.391  12.201
92435SOL     OW79136   1.226   2.370  10.328
92435SOL    HW179137   1.192   2.368  10.238
92435SOL    HW279138   1.162   2.322  10.380
92436SOL     OW79139   4.648  13.908   6.877
92436SOL    HW179140   4.667  13.887   6.968
92436SOL    HW279141   4.724  13.959   6.848
92437SOL     OW79142  11.545   0.797  10.883
92437SOL    HW179143  11.605   0.754  10.942
92437SOL    HW279144  11.538   0.887  10.916
92438SOL     OW79145   7.903   1.021   1.873
92438SOL    HW179146   7.940   1.012   1.785
92438SOL    HW279147   7.846   0.945   1.883
92439SOL     OW79148  13.602  14.434   8.851
92439SOL    HW179149  13.540  14.362   8.849
92439SOL    HW279150  13.577  14.486   8.927
92440SOL     OW79151   7.655  12.183   7.030
92440SOL    HW179152   7.667  12.183   7.125
92440SOL    HW279153   7.743  12.199   6.995
92441SOL     OW79154   5.678  10.904   6.492
92441SOL    HW179155   5.724  10.924   6.411
92441SOL    HW279156   5.747  10.902   6.559
92442SOL     OW79157   2.738  10.367  13.766
92442SOL    HW179158   2.655  10.409  13.745
92442SOL    HW279159   2.716  10.298  13.828
92443SOL     OW79160   1.179   7.445   0.908
92443SOL    HW179161   1.194   7.366   0.959
92443SOL    HW279162   1.255   7.500   0.926
92444SOL     OW79163  12.559  13.908  10.740
92444SOL    HW179164  12.550  13.950  10.654
92444SOL    HW279165  12.480  13.855  10.749
92445SOL     OW79166   9.181   8.925   6.255
92445SOL    HW179167   9.099   8.926   6.305
92445SOL    HW279168   9.181   9.008   6.207
92446SOL     OW79169   9.539  14.327   0.341
92446SOL    HW179170   9.474  14.272   0.385
92446SOL    HW279171   9.493  14.410   0.325
92447SOL     OW79172  14.109   5.178   3.080
92447SOL    HW179173  14.202   5.192   3.066
92447SOL    HW279174  14.101   5.084   3.098
92448SOL     OW79175   9.396   0.082  11.721
92448SOL    HW179176   9.461   0.024  11.760
92448SOL    HW279177   9.446   0.159  11.694
92449SOL     OW79178  13.511   0.057   9.205
92449SOL    HW179179  13.479   0.088   9.120
92449SOL    HW279180  13.599   0.093   9.212
92450SOL     OW79181   3.844   8.800  11.707
92450SOL    HW179182   3.924   8.852  11.707
92450SOL    HW279183   3.849   8.747  11.787
92451SOL     OW79184  14.602  13.641  13.424
92451SOL    HW179185  14.590  13.575  13.356
92451SOL    HW279186  14.519  13.641  13.472
92452SOL     OW79187  11.006   3.511   8.934
92452SOL    HW179188  11.056   3.564   8.996
92452SOL    HW279189  10.976   3.436   8.985
92453SOL     OW79190   8.076   9.999   3.559
92453SOL    HW179191   8.042   9.912   3.540
92453SOL    HW279192   8.048  10.017   3.648
92454SOL     OW79193   3.243   2.876  12.312
92454SOL    HW179194   3.256   2.893  12.405
92454SOL    HW279195   3.245   2.780  12.304
92455SOL     OW79196  13.521   4.353  13.385
92455SOL    HW179197  13.610   4.343  13.350
92455SOL    HW279198  13.521   4.441  13.424
92456SOL     OW79199  14.326   5.770   3.987
92456SOL    HW179200  14.352   5.779   3.895
92456SOL    HW279201  14.354   5.852   4.028
92457SOL     OW79202   1.756   2.971  13.846
92457SOL    HW179203   1.771   2.985  13.753
92457SOL    HW279204   1.835   2.927  13.876
92458SOL     OW79205  14.271   1.806   1.941
92458SOL    HW179206  14.365   1.800   1.926
92458SOL    HW279207  14.235   1.832   1.856
92459SOL     OW79208   9.128  12.678   3.721
92459SOL    HW179209   9.153  12.606   3.663
92459SOL    HW279210   9.102  12.749   3.662
92460SOL     OW79211   4.572  11.830   8.501
92460SOL    HW179212   4.580  11.775   8.579
92460SOL    HW279213   4.487  11.873   8.510
92461SOL     OW79214   3.223  14.442   8.039
92461SOL    HW179215   3.135  14.478   8.050
92461SOL    HW279216   3.258  14.437   8.128
92462SOL     OW79217  13.489  12.005   9.703
92462SOL    HW179218  13.431  12.042   9.769
92462SOL    HW279219  13.435  11.942   9.655
92463SOL     OW79220  12.068  14.242  10.400
92463SOL    HW179221  11.983  14.230  10.442
92463SOL    HW279222  12.063  14.190  10.320
92464SOL     OW79223  12.414  14.381  11.602
92464SOL    HW179224  12.466  14.331  11.664
92464SOL    HW279225  12.394  14.319  11.532
92465SOL     OW79226   5.666   5.651  13.076
92465SOL    HW179227   5.750   5.604  13.073
92465SOL    HW279228   5.658   5.690  12.989
92466SOL     OW79229   0.724  10.394   8.624
92466SOL    HW179230   0.813  10.411   8.653
92466SOL    HW279231   0.686  10.339   8.693
92467SOL     OW79232   7.699   7.401   1.615
92467SOL    HW179233   7.743   7.404   1.700
92467SOL    HW279234   7.698   7.492   1.585
92468SOL     OW79235  13.507   4.150   4.241
92468SOL    HW179236  13.538   4.069   4.201
92468SOL    HW279237  13.492   4.209   4.167
92469SOL     OW79238  10.311   6.655  13.576
92469SOL    HW179239  10.391   6.699  13.605
92469SOL    HW279240  10.342   6.576  13.532
92470SOL     OW79241   9.556   9.941   0.829
92470SOL    HW179242   9.500  10.015   0.853
92470SOL    HW279243   9.495   9.869   0.815
92471SOL     OW79244   0.807  10.753   1.996
92471SOL    HW179245   0.839  10.737   1.907
92471SOL    HW279246   0.870  10.708   2.052
92472SOL     OW79247  11.175   9.867   4.621
92472SOL    HW179248  11.110   9.930   4.653
92472SOL    HW279249  11.124   9.802   4.573
92473SOL     OW79250   4.601   4.944   9.079
92473SOL    HW179251   4.527   4.997   9.108
92473SOL    HW279252   4.652   5.002   9.022
92474SOL     OW79253   6.238   9.223  13.256
92474SOL    HW179254   6.329   9.199  13.237
92474SOL    HW279255   6.225   9.197  13.347
92475SOL     OW79256  14.855   5.346   4.957
92475SOL    HW179257  14.811   5.333   4.873
92475SOL    HW279258   0.014   5.436   4.954
92476SOL     OW79259   9.473   7.186  11.816
92476SOL    HW179260   9.446   7.189  11.724
92476SOL    HW279261   9.395   7.157  11.863
92477SOL     OW79262   5.424  13.905   9.442
92477SOL    HW179263   5.431  14.000   9.447
92477SOL    HW279264   5.484  13.872   9.509
92478SOL     OW79265   7.323  13.601  13.573
92478SOL    HW179266   7.369  13.599  13.489
92478SOL    HW279267   7.386  13.565  13.636
92479SOL     OW79268   4.321  10.486   5.439
92479SOL    HW179269   4.291  10.410   5.489
92479SOL    HW279270   4.412  10.465   5.417
92480SOL     OW79271   7.351  13.420   6.625
92480SOL    HW179272   7.287  13.351   6.647
92480SOL    HW279273   7.334  13.439   6.533
92481SOL     OW79274   4.804  11.339   5.879
92481SOL    HW179275   4.709  11.330   5.887
92481SOL    HW279276   4.819  11.350   5.785
92482SOL     OW79277   1.010   0.839  14.226
92482SOL    HW179278   0.965   0.755  14.218
92482SOL    HW279279   1.064   0.829  14.305
92483SOL     OW79280   7.616  10.116  12.100
92483SOL    HW179281   7.698  10.162  12.120
92483SOL    HW279282   7.555  10.186  12.078
92484SOL     OW79283  11.381   9.935   3.688
92484SOL    HW179284  11.440   9.901   3.621
92484SOL    HW279285  11.432  10.003   3.732
92485SOL     OW79286   5.352  11.310  12.958
92485SOL    HW179287   5.416  11.248  12.923
92485SOL    HW279288   5.334  11.370  12.885
92486SOL     OW79289  12.675   9.066   1.938
92486SOL    HW179290  12.641   9.137   1.992
92486SOL    HW279291  12.725   9.111   1.869
92487SOL     OW79292   3.602   7.339   8.067
92487SOL    HW179293   3.533   7.383   8.116
92487SOL    HW279294   3.676   7.335   8.128
92488SOL     OW79295   3.525   6.932   7.588
92488SOL    HW179296   3.606   6.884   7.572
92488SOL    HW279297   3.528   6.955   7.681
92489SOL     OW79298   2.211  11.447   3.745
92489SOL    HW179299   2.202  11.509   3.818
92489SOL    HW279300   2.186  11.498   3.668
92490SOL     OW79301   2.678   0.204   0.133
92490SOL    HW179302   2.667   0.288   0.178
92490SOL    HW279303   2.686   0.228   0.040
92491SOL     OW79304   7.291   0.043   5.290
92491SOL    HW179305   7.367   0.083   5.333
92491SOL    HW279306   7.246   0.117   5.249
92492SOL     OW79307   9.996  13.585  14.769
92492SOL    HW179308   9.920  13.559  14.716
92492SOL    HW279309  10.040  13.652  14.716
92493SOL     OW79310   2.806  13.818   3.655
92493SOL    HW179311   2.740  13.841   3.720
92493SOL    HW279312   2.889  13.841   3.697
92494SOL     OW79313   9.410   3.339  11.113
92494SOL    HW179314   9.357   3.345  11.034
92494SOL    HW279315   9.500   3.352  11.083
92495SOL     OW79316   1.978   7.283  11.165
92495SOL    HW179317   1.929   7.290  11.247
92495SOL    HW279318   1.937   7.347  11.107
92496SOL     OW79319   2.642   6.585   6.903
92496SOL    HW179320   2.711   6.651   6.898
92496SOL    HW279321   2.650   6.547   6.990
92497SOL     OW79322  13.862   4.954   1.561
92497SOL    HW179323  13.858   5.049   1.568
92497SOL    HW279324  13.775   4.928   1.530
92498SOL     OW79325  12.692   2.514   9.753
92498SOL    HW179326  12.686   2.421   9.773
92498SOL    HW279327  12.603   2.540   9.730
92499SOL     OW79328  12.927   4.341  11.264
92499SOL    HW179329  12.971   4.332  11.179
92499SOL    HW279330  12.845   4.385  11.244
92500SOL     OW79331   6.004   1.772   9.602
92500SOL    HW179332   6.091   1.754   9.637
92500SOL    HW279333   5.973   1.848   9.652
92501SOL     OW79334  11.935   2.889   4.912
92501SOL    HW179335  11.957   2.796   4.915
92501SOL    HW279336  11.964   2.917   4.825
92502SOL     OW79337  12.001   6.487  12.694
92502SOL    HW179338  11.992   6.575  12.656
92502SOL    HW279339  11.963   6.429  12.628
92503SOL     OW79340   8.096   3.537   6.918
92503SOL    HW179341   8.136   3.624   6.918
92503SOL    HW279342   8.089   3.513   6.826
92504SOL     OW79343   1.947   4.123  12.058
92504SOL    HW179344   1.870   4.170  12.026
92504SOL    HW279345   1.991   4.185  12.116
92505SOL     OW79346   2.055   4.441  10.190
92505SOL    HW179347   2.097   4.367  10.147
92505SOL    HW279348   1.961   4.422  10.185
92506SOL     OW79349   3.744   9.974   3.217
92506SOL    HW179350   3.823   9.920   3.210
92506SOL    HW279351   3.693   9.953   3.139
92507SOL     OW79352   5.322   3.309   6.958
92507SOL    HW179353   5.365   3.303   6.873
92507SOL    HW279354   5.281   3.223   6.971
92508SOL     OW79355   0.277   7.934   6.176
92508SOL    HW179356   0.231   7.948   6.094
92508SOL    HW279357   0.326   7.852   6.163
92509SOL     OW79358   8.309  14.781   1.313
92509SOL    HW179359   8.263  14.725   1.376
92509SOL    HW279360   8.342  14.854   1.365
92510SOL     OW79361  10.956   0.353   5.017
92510SOL    HW179362  11.000   0.301   5.085
92510SOL    HW279363  11.027   0.403   4.976
92511SOL     OW79364  14.364   3.118  12.794
92511SOL    HW179365  14.409   3.197  12.825
92511SOL    HW279366  14.391   3.050  12.856
92512SOL     OW79367   4.780   4.823  11.801
92512SOL    HW179368   4.723   4.771  11.745
92512SOL    HW279369   4.770   4.785  11.888
92513SOL     OW79370  13.074   6.917   3.303
92513SOL    HW179371  12.989   6.945   3.269
92513SOL    HW279372  13.059   6.827   3.332
92514SOL     OW79373   9.356   7.537   6.122
92514SOL    HW179374   9.338   7.537   6.028
92514SOL    HW279375   9.431   7.595   6.132
92515SOL     OW79376  13.833   7.255   3.734
92515SOL    HW179377  13.793   7.273   3.649
92515SOL    HW279378  13.914   7.306   3.734
92516SOL     OW79379   6.421  13.332  11.834
92516SOL    HW179380   6.363  13.363  11.765
92516SOL    HW279381   6.465  13.410  11.866
92517SOL     OW79382   0.799  14.349  10.542
92517SOL    HW179383   0.737  14.418  10.567
92517SOL    HW279384   0.778  14.276  10.600
92518SOL     OW79385   4.746   9.863   3.616
92518SOL    HW179386   4.704   9.780   3.594
92518SOL    HW279387   4.779   9.851   3.705
92519SOL     OW79388  12.458   1.772  11.234
92519SOL    HW179389  12.408   1.693  11.254
92519SOL    HW279390  12.549   1.748  11.252
92520SOL     OW79391  13.297   9.772  14.001
92520SOL    HW179392  13.266   9.724  13.924
92520SOL    HW279393  13.368   9.719  14.036
92521SOL     OW79394   8.362   2.434   4.687
92521SOL    HW179395   8.423   2.408   4.756
92521SOL    HW279396   8.392   2.387   4.609
92522SOL     OW79397   7.472   3.590   4.327
92522SOL    HW179398   7.453   3.649   4.254
92522SOL    HW279399   7.416   3.622   4.398
92523SOL     OW79400  12.651  10.504  11.168
92523SOL    HW179401  12.572  10.496  11.221
92523SOL    HW279402  12.711  10.554  11.224
92524SOL     OW79403  12.005  14.263   6.113
92524SOL    HW179404  11.995  14.273   6.208
92524SOL    HW279405  11.937  14.319   6.076
92525SOL     OW79406   4.397  12.806   9.834
92525SOL    HW179407   4.342  12.746   9.885
92525SOL    HW279408   4.364  12.797   9.745
92526SOL     OW79409   5.390  12.063   0.363
92526SOL    HW179410   5.328  12.044   0.293
92526SOL    HW279411   5.476  12.059   0.321
92527SOL     OW79412  10.516   4.615   6.100
92527SOL    HW179413  10.597   4.600   6.149
92527SOL    HW279414  10.446   4.604   6.165
92528SOL     OW79415   3.896  14.215   9.527
92528SOL    HW179416   3.859  14.287   9.578
92528SOL    HW279417   3.865  14.231   9.438
92529SOL     OW79418   0.355  10.420   6.466
92529SOL    HW179419   0.341  10.459   6.552
92529SOL    HW279420   0.334  10.490   6.404
92530SOL     OW79421  14.475   7.244   4.130
92530SOL    HW179422  14.513   7.299   4.061
92530SOL    HW279423  14.418   7.182   4.084
92531SOL     OW79424   4.722   8.273   2.304
92531SOL    HW179425   4.781   8.348   2.307
92531SOL    HW279426   4.639   8.306   2.338
92532SOL     OW79427   8.068  13.115   3.701
92532SOL    HW179428   8.018  13.085   3.777
92532SOL    HW279429   8.039  13.058   3.630
92533SOL     OW79430   7.500  11.834   4.908
92533SOL    HW179431   7.425  11.807   4.961
92533SOL    HW279432   7.519  11.923   4.936
92534SOL     OW79433   1.379  14.531   6.294
92534SOL    HW179434   1.321  14.590   6.246
92534SOL    HW279435   1.441  14.590   6.338
92535SOL     OW79436   5.972  10.589   2.336
92535SOL    HW179437   5.904  10.575   2.402
92535SOL    HW279438   6.001  10.680   2.351
92536SOL     OW79439   2.160   7.350   8.898
92536SOL    HW179440   2.194   7.399   8.974
92536SOL    HW279441   2.159   7.414   8.827
92537SOL     OW79442   4.416   4.745  14.257
92537SOL    HW179443   4.340   4.803  14.257
92537SOL    HW279444   4.444   4.742  14.165
92538SOL     OW79445   0.945   2.734  10.698
92538SOL    HW179446   0.970   2.661  10.753
92538SOL    HW279447   0.973   2.812  10.747
92539SOL     OW79448  10.163  10.190  14.237
92539SOL    HW179449  10.188  10.273  14.278
92539SOL    HW279450  10.076  10.171  14.272
92540SOL     OW79451  12.696   7.596   0.175
92540SOL    HW179452  12.603   7.599   0.152
92540SOL    HW279453  12.720   7.504   0.165
92541SOL     OW79454   1.873  12.427   2.674
92541SOL    HW179455   1.858  12.358   2.609
92541SOL    HW279456   1.874  12.508   2.623
92542SOL     OW79457  10.977   7.954   0.300
92542SOL    HW179458  11.023   7.915   0.375
92542SOL    HW279459  10.912   8.012   0.339
92543SOL     OW79460  13.443  13.213  13.367
92543SOL    HW179461  13.496  13.222  13.288
92543SOL    HW279462  13.484  13.272  13.430
92544SOL     OW79463   3.232  12.072   1.812
92544SOL    HW179464   3.184  12.150   1.839
92544SOL    HW279465   3.294  12.104   1.747
92545SOL     OW79466   4.629   0.743   5.468
92545SOL    HW179467   4.671   0.711   5.548
92545SOL    HW279468   4.701   0.762   5.408
92546SOL     OW79469  13.484   8.552  12.896
92546SOL    HW179470  13.540   8.521  12.968
92546SOL    HW279471  13.546   8.573  12.825
92547SOL     OW79472  13.126   5.899   7.338
92547SOL    HW179473  13.156   5.828   7.281
92547SOL    HW279474  13.179   5.975   7.311
92548SOL     OW79475  12.405  12.619   2.188
92548SOL    HW179476  12.409  12.710   2.217
92548SOL    HW279477  12.475  12.611   2.123
92549SOL     OW79478   6.254   8.136   4.780
92549SOL    HW179479   6.338   8.092   4.791
92549SOL    HW279480   6.261   8.216   4.833
92550SOL     OW79481   0.294  11.174   9.827
92550SOL    HW179482   0.363  11.220   9.780
92550SOL    HW279483   0.325  11.084   9.833
92551SOL     OW79484  11.728  10.156  11.970
92551SOL    HW179485  11.758  10.173  12.060
92551SOL    HW279486  11.796  10.193  11.914
92552SOL     OW79487   6.339  14.759  10.758
92552SOL    HW179488   6.356  14.851  10.737
92552SOL    HW279489   6.247  14.757  10.784
92553SOL     OW79490  14.576   4.781   6.488
92553SOL    HW179491  14.520   4.844   6.442
92553SOL    HW279492  14.572   4.809   6.580
92554SOL     OW79493   0.632   5.096   7.693
92554SOL    HW179494   0.631   5.190   7.713
92554SOL    HW279495   0.569   5.058   7.754
92555SOL     OW79496   1.925   0.599   1.040
92555SOL    HW179497   1.883   0.558   0.964
92555SOL    HW279498   1.909   0.537   1.111
92556SOL     OW79499  10.795   0.290   3.073
92556SOL    HW179500  10.727   0.289   3.140
92556SOL    HW279501  10.797   0.381   3.043
92557SOL     OW79502   0.248   0.256   5.062
92557SOL    HW179503   0.292   0.323   5.010
92557SOL    HW279504   0.166   0.297   5.089
92558SOL     OW79505   9.022   6.200   8.142
92558SOL    HW179506   9.002   6.107   8.153
92558SOL    HW279507   9.095   6.202   8.080
92559SOL     OW79508   9.208   2.920   8.449
92559SOL    HW179509   9.128   2.870   8.432
92559SOL    HW279510   9.213   2.925   8.545
92560SOL     OW79511  11.029   1.779   3.499
92560SOL    HW179512  11.091   1.803   3.430
92560SOL    HW279513  11.022   1.683   3.492
92561SOL     OW79514  13.445   3.367   6.411
92561SOL    HW179515  13.380   3.414   6.462
92561SOL    HW279516  13.420   3.275   6.420
92562SOL     OW79517   0.396   1.602   0.324
92562SOL    HW179518   0.435   1.539   0.385
92562SOL    HW279519   0.305   1.575   0.317
92563SOL     OW79520  12.691  11.760  11.651
92563SOL    HW179521  12.618  11.780  11.592
92563SOL    HW279522  12.769  11.769  11.597
92564SOL     OW79523   4.364   0.923   3.591
92564SOL    HW179524   4.369   0.831   3.566
92564SOL    HW279525   4.451   0.943   3.628
92565SOL     OW79526  12.279   9.208   2.771
92565SOL    HW179527  12.313   9.140   2.712
92565SOL    HW279528  12.344   9.278   2.767
92566SOL     OW79529   5.112  14.150   4.166
92566SOL    HW179530   5.092  14.115   4.252
92566SOL    HW279531   5.042  14.116   4.109
92567SOL     OW79532   7.093   8.427   0.430
92567SOL    HW179533   7.058   8.485   0.497
92567SOL    HW279534   7.088   8.477   0.349
92568SOL     OW79535   0.565   8.734   4.033
92568SOL    HW179536   0.617   8.808   4.065
92568SOL    HW279537   0.600   8.658   4.080
92569SOL     OW79538   9.872   8.731  12.053
92569SOL    HW179539   9.899   8.680  12.129
92569SOL    HW279540   9.936   8.802  12.047
92570SOL     OW79541   8.081   7.509   9.467
92570SOL    HW179542   8.112   7.557   9.390
92570SOL    HW279543   8.154   7.450   9.489
92571SOL     OW79544   5.165   0.483   2.254
92571SOL    HW179545   5.235   0.452   2.197
92571SOL    HW279546   5.167   0.579   2.245
92572SOL     OW79547   6.908   4.555   3.529
92572SOL    HW179548   6.845   4.506   3.475
92572SOL    HW279549   6.869   4.642   3.539
92573SOL     OW79550  14.360   8.495  11.445
92573SOL    HW179551  14.422   8.541  11.502
92573SOL    HW279552  14.383   8.402  11.454
92574SOL     OW79553  11.135  11.905   2.040
92574SOL    HW179554  11.108  11.868   1.956
92574SOL    HW279555  11.150  11.829   2.097
92575SOL     OW79556   4.857   1.157   7.864
92575SOL    HW179557   4.865   1.069   7.826
92575SOL    HW279558   4.763   1.171   7.871
92576SOL     OW79559  13.607  13.058   7.377
92576SOL    HW179560  13.563  13.110   7.445
92576SOL    HW279561  13.693  13.098   7.369
92577SOL     OW79562   7.159   7.812  11.257
92577SOL    HW179563   7.158   7.738  11.317
92577SOL    HW279564   7.139   7.774  11.172
92578SOL     OW79565   9.848   9.587  10.176
92578SOL    HW179566   9.799   9.646  10.119
92578SOL    HW279567   9.795   9.507  10.180
92579SOL     OW79568   4.531   9.408   4.714
92579SOL    HW179569   4.622   9.438   4.724
92579SOL    HW279570   4.519   9.401   4.619
92580SOL     OW79571   9.465  12.044   5.065
92580SOL    HW179572   9.381  12.015   5.099
92580SOL    HW279573   9.511  11.964   5.041
92581SOL     OW79574   9.617   3.283  10.453
92581SOL    HW179575   9.639   3.275  10.545
92581SOL    HW279576   9.684   3.340  10.417
92582SOL     OW79577   9.524   3.578   9.561
92582SOL    HW179578   9.609   3.599   9.600
92582SOL    HW279579   9.546   3.541   9.475
92583SOL     OW79580  13.561  14.638   7.027
92583SOL    HW179581  13.517  14.615   7.109
92583SOL    HW279582  13.650  14.607   7.038
92584SOL     OW79583   0.784   2.344   7.524
92584SOL    HW179584   0.703   2.293   7.519
92584SOL    HW279585   0.854   2.280   7.513
92585SOL     OW79586   7.907   6.901  11.425
92585SOL    HW179587   7.918   6.988  11.386
92585SOL    HW279588   7.962   6.902  11.504
92586SOL     OW79589   8.150  10.474   8.184
92586SOL    HW179590   8.148  10.463   8.280
92586SOL    HW279591   8.241  10.454   8.160
92587SOL     OW79592  13.928  14.692   3.289
92587SOL    HW179593  13.854  14.643   3.326
92587SOL    HW279594  13.980  14.625   3.245
92588SOL     OW79595  11.193   8.521   5.058
92588SOL    HW179596  11.267   8.554   5.007
92588SOL    HW279597  11.231   8.493   5.141
92589SOL     OW79598   8.682   4.953   3.511
92589SOL    HW179599   8.588   4.941   3.527
92589SOL    HW279600   8.716   4.989   3.593
92590SOL     OW79601   8.935   1.917  14.310
92590SOL    HW179602   8.849   1.916  14.351
92590SOL    HW279603   8.977   1.996  14.345
92591SOL     OW79604  13.643  10.626  14.857
92591SOL    HW179605  13.616  10.583  14.776
92591SOL    HW279606  13.692  10.703  14.829
92592SOL     OW79607  10.500  11.643   6.958
92592SOL    HW179608  10.422  11.590   6.944
92592SOL    HW279609  10.478  11.729   6.922
92593SOL     OW79610   8.773   4.865  10.417
92593SOL    HW179611   8.686   4.858  10.376
92593SOL    HW279612   8.788   4.779  10.457
92594SOL     OW79613   9.038  10.450   1.038
92594SOL    HW179614   9.015  10.538   1.009
92594SOL    HW279615   9.132  10.454   1.056
92595SOL     OW79616   8.337  12.389   4.111
92595SOL    HW179617   8.312  12.469   4.158
92595SOL    HW279618   8.348  12.417   4.020
92596SOL     OW79619   8.681   7.266   9.291
92596SOL    HW179620   8.667   7.360   9.299
92596SOL    HW279621   8.643   7.243   9.206
92597SOL     OW79622  11.848  10.381   9.470
92597SOL    HW179623  11.775  10.364   9.411
92597SOL    HW279624  11.925  10.349   9.423
92598SOL     OW79625   3.198  11.359  14.088
92598SOL    HW179626   3.151  11.297  14.032
92598SOL    HW279627   3.238  11.421  14.027
92599SOL     OW79628   3.007  13.034   1.377
92599SOL    HW179629   3.098  13.052   1.403
92599SOL    HW279630   2.995  13.084   1.297
92600SOL     OW79631  12.238   2.980   6.577
92600SOL    HW179632  12.247   2.926   6.656
92600SOL    HW279633  12.150   2.963   6.545
92601SOL     OW79634   1.929  12.151  11.268
92601SOL    HW179635   1.898  12.239  11.248
92601SOL    HW279636   1.925  12.104  11.185
92602SOL     OW79637   6.204   3.010   7.429
92602SOL    HW179638   6.213   3.010   7.334
92602SOL    HW279639   6.110   3.013   7.445
92603SOL     OW79640   8.180  14.140  14.729
92603SOL    HW179641   8.094  14.181  14.720
92603SOL    HW279642   8.197  14.102  14.643
92604SOL     OW79643   3.800   2.115   6.353
92604SOL    HW179644   3.883   2.128   6.399
92604SOL    HW279645   3.820   2.136   6.261
92605SOL     OW79646  12.342   7.022   3.958
92605SOL    HW179647  12.406   6.951   3.948
92605SOL    HW279648  12.281   7.010   3.885
92606SOL     OW79649  14.434   2.584   2.950
92606SOL    HW179650  14.424   2.499   2.907
92606SOL    HW279651  14.412   2.568   3.041
92607SOL     OW79652   3.299   0.339  10.171
92607SOL    HW179653   3.363   0.386  10.116
92607SOL    HW279654   3.217   0.388  10.159
92608SOL     OW79655   8.679  11.188   3.364
92608SOL    HW179656   8.707  11.129   3.294
92608SOL    HW279657   8.622  11.251   3.320
92609SOL     OW79658  12.096   1.235   9.320
92609SOL    HW179659  12.173   1.189   9.354
92609SOL    HW279660  12.052   1.170   9.265
92610SOL     OW79661   8.203   0.623  12.669
92610SOL    HW179662   8.220   0.717  12.662
92610SOL    HW279663   8.230   0.588  12.584
92611SOL     OW79664  14.113   5.543  11.957
92611SOL    HW179665  14.023   5.568  11.935
92611SOL    HW279666  14.110   5.447  11.964
92612SOL     OW79667   0.427   3.439   5.742
92612SOL    HW179668   0.359   3.397   5.690
92612SOL    HW279669   0.380   3.499   5.799
92613SOL     OW79670  13.217  13.504   4.739
92613SOL    HW179671  13.224  13.417   4.699
92613SOL    HW279672  13.276  13.559   4.688
92614SOL     OW79673  11.671   5.312   7.489
92614SOL    HW179674  11.740   5.361   7.445
92614SOL    HW279675  11.611   5.287   7.419
92615SOL     OW79676  14.109   7.402  10.110
92615SOL    HW179677  14.020   7.408  10.075
92615SOL    HW279678  14.141   7.492  10.111
92616SOL     OW79679   3.129   1.414   9.228
92616SOL    HW179680   3.075   1.335   9.239
92616SOL    HW279681   3.206   1.398   9.282
92617SOL     OW79682   1.998  10.935   6.581
92617SOL    HW179683   1.966  10.849   6.610
92617SOL    HW279684   2.037  10.973   6.660
92618SOL     OW79685   7.992  11.067  13.303
92618SOL    HW179686   8.005  11.062  13.398
92618SOL    HW279687   7.897  11.066  13.291
92619SOL     OW79688  14.726   3.772   8.430
92619SOL    HW179689  14.672   3.708   8.382
92619SOL    HW279690  14.685   3.777   8.517
92620SOL     OW79691  12.030   8.597   7.259
92620SOL    HW179692  12.014   8.508   7.229
92620SOL    HW279693  12.006   8.596   7.352
92621SOL     OW79694  14.120   3.735   6.741
92621SOL    HW179695  14.051   3.739   6.808
92621SOL    HW279696  14.104   3.653   6.695
92622SOL     OW79697   2.503   6.291  10.358
92622SOL    HW179698   2.420   6.277  10.313
92622SOL    HW279699   2.566   6.308  10.288
92623SOL     OW79700   7.457  13.676  11.756
92623SOL    HW179701   7.481  13.675  11.849
92623SOL    HW279702   7.532  13.635  11.712
92624SOL     OW79703   4.647  10.928  13.907
92624SOL    HW179704   4.673  10.930  13.999
92624SOL    HW279705   4.561  10.886  13.907
92625SOL     OW79706   2.287   7.566   7.701
92625SOL    HW179707   2.276   7.636   7.765
92625SOL    HW279708   2.205   7.518   7.704
92626SOL     OW79709   6.880   7.918   8.964
92626SOL    HW179710   6.812   7.956   9.019
92626SOL    HW279711   6.837   7.844   8.921
92627SOL     OW79712   0.913   8.952   3.183
92627SOL    HW179713   0.886   9.020   3.245
92627SOL    HW279714   0.993   8.987   3.143
92628SOL     OW79715  14.343   9.340   1.632
92628SOL    HW179716  14.299   9.408   1.581
92628SOL    HW279717  14.276   9.275   1.651
92629SOL     OW79718   4.140   0.454  11.442
92629SOL    HW179719   4.092   0.426  11.364
92629SOL    HW279720   4.206   0.514  11.408
92630SOL     OW79721   6.880   1.997  13.873
92630SOL    HW179722   6.929   1.990  13.955
92630SOL    HW279723   6.944   2.030  13.810
92631SOL     OW79724   5.365  12.579   3.468
92631SOL    HW179725   5.342  12.661   3.424
92631SOL    HW279726   5.458  12.568   3.451
92632SOL     OW79727  13.710   9.865   2.354
92632SOL    HW179728  13.696   9.774   2.326
92632SOL    HW279729  13.758   9.858   2.436
92633SOL     OW79730   2.779   2.714   2.969
92633SOL    HW179731   2.732   2.785   3.012
92633SOL    HW279732   2.861   2.706   3.018
92634SOL     OW79733   7.508   2.028   9.798
92634SOL    HW179734   7.595   1.994   9.818
92634SOL    HW279735   7.490   2.092   9.867
92635SOL     OW79736   6.289  11.674   8.173
92635SOL    HW179737   6.204  11.666   8.130
92635SOL    HW279738   6.351  11.689   8.102
92636SOL     OW79739  11.612  14.054   7.833
92636SOL    HW179740  11.527  14.021   7.806
92636SOL    HW279741  11.673  14.018   7.768
92637SOL     OW79742   7.644   2.693   6.288
92637SOL    HW179743   7.628   2.603   6.318
92637SOL    HW279744   7.731   2.691   6.251
92638SOL     OW79745  12.697   8.726  10.362
92638SOL    HW179746  12.638   8.652  10.379
92638SOL    HW279747  12.782   8.697  10.397
92639SOL     OW79748  11.050   2.208   4.470
92639SOL    HW179749  10.980   2.242   4.414
92639SOL    HW279750  11.102   2.286   4.492
92640SOL     OW79751  11.301  11.921   4.558
92640SOL    HW179752  11.366  11.963   4.502
92640SOL    HW279753  11.347  11.847   4.598
92641SOL     OW79754  14.207  13.182   5.564
92641SOL    HW179755  14.196  13.172   5.659
92641SOL    HW279756  14.209  13.277   5.550
92642SOL     OW79757   9.225  11.402   7.854
92642SOL    HW179758   9.295  11.337   7.846
92642SOL    HW279759   9.207  11.431   7.765
92643SOL     OW79760  11.694   7.514   0.155
92643SOL    HW179761  11.705   7.538   0.063
92643SOL    HW279762  11.749   7.437   0.166
92644SOL     OW79763  11.135   9.983   1.860
92644SOL    HW179764  11.156   9.979   1.954
92644SOL    HW279765  11.155   9.896   1.827
92645SOL     OW79766   8.403   3.471  12.659
92645SOL    HW179767   8.353   3.457  12.579
92645SOL    HW279768   8.469   3.536  12.635
92646SOL     OW79769   8.832   4.256   8.672
92646SOL    HW179770   8.760   4.308   8.707
92646SOL    HW279771   8.901   4.263   8.739
92647SOL     OW79772   3.494   4.443   5.127
92647SOL    HW179773   3.552   4.417   5.199
92647SOL    HW279774   3.442   4.365   5.109
92648SOL     OW79775  10.483  13.602   2.995
92648SOL    HW179776  10.564  13.567   3.032
92648SOL    HW279777  10.503  13.613   2.902
92649SOL     OW79778  13.189   5.285   5.775
92649SOL    HW179779  13.120   5.276   5.841
92649SOL    HW279780  13.270   5.271   5.823
92650SOL     OW79781  12.698   8.337   4.506
92650SOL    HW179782  12.642   8.382   4.442
92650SOL    HW279783  12.785   8.376   4.494
92651SOL     OW79784   7.653   0.422   2.152
92651SOL    HW179785   7.738   0.393   2.119
92651SOL    HW279786   7.596   0.422   2.076
92652SOL     OW79787   3.494  13.775   0.184
92652SOL    HW179788   3.545  13.786   0.264
92652SOL    HW279789   3.438  13.699   0.201
92653SOL     OW79790   8.084   1.160   1.200
92653SOL    HW179791   8.122   1.102   1.266
92653SOL    HW279792   8.158   1.209   1.166
92654SOL     OW79793   9.647   5.828  12.972
92654SOL    HW179794   9.697   5.902  13.004
92654SOL    HW279795   9.679   5.753  13.022
92655SOL     OW79796   6.553   7.954  10.368
92655SOL    HW179797   6.643   7.974  10.394
92655SOL    HW279798   6.516   8.038  10.343
92656SOL     OW79799   6.231  14.826   7.331
92656SOL    HW179800   6.144  14.787   7.345
92656SOL    HW279801   6.243  14.822   7.236
92657SOL     OW79802  10.971   7.876   8.268
92657SOL    HW179803  11.044   7.888   8.328
92657SOL    HW279804  10.912   7.815   8.313
92658SOL     OW79805  10.556   1.964  11.543
92658SOL    HW179806  10.575   1.874  11.572
92658SOL    HW279807  10.630   2.016  11.576
92659SOL     OW79808  13.938   2.268  10.515
92659SOL    HW179809  13.870   2.216  10.557
92659SOL    HW279810  13.934   2.353  10.560
92660SOL     OW79811   4.291   9.563   6.021
92660SOL    HW179812   4.259   9.476   6.047
92660SOL    HW279813   4.262   9.573   5.931
92661SOL     OW79814   5.659   7.727  12.782
92661SOL    HW179815   5.635   7.798  12.722
92661SOL    HW279816   5.576   7.700  12.821
92662SOL     OW79817   0.443   5.320   4.176
92662SOL    HW179818   0.525   5.271   4.165
92662SOL    HW279819   0.397   5.274   4.246
92663SOL     OW79820   6.939  13.926  12.606
92663SOL    HW179821   7.025  13.885  12.602
92663SOL    HW279822   6.944  13.999  12.545
92664SOL     OW79823   0.785   7.082  13.636
92664SOL    HW179824   0.876   7.097  13.612
92664SOL    HW279825   0.769   7.144  13.708
92665SOL     OW79826   6.587   0.179   8.665
92665SOL    HW179827   6.576   0.193   8.571
92665SOL    HW279828   6.629   0.259   8.696
92666SOL     OW79829   2.951  11.229  12.749
92666SOL    HW179830   2.881  11.170  12.720
92666SOL    HW279831   2.920  11.316  12.724
92667SOL     OW79832   2.601   6.799  13.183
92667SOL    HW179833   2.676   6.844  13.222
92667SOL    HW279834   2.636   6.715  13.153
92668SOL     OW79835  11.458   6.877   5.187
92668SOL    HW179836  11.461   6.954   5.131
92668SOL    HW279837  11.546   6.841   5.184
92669SOL     OW79838   2.674  11.095   7.941
92669SOL    HW179839   2.673  11.021   7.881
92669SOL    HW279840   2.671  11.172   7.884
92670SOL     OW79841   8.555   5.416  11.561
92670SOL    HW179842   8.595   5.357  11.497
92670SOL    HW279843   8.581   5.381  11.646
92671SOL     OW79844   5.214  10.082   9.239
92671SOL    HW179845   5.249   9.997   9.214
92671SOL    HW279846   5.269  10.146   9.194
92672SOL     OW79847  11.381   9.223   3.311
92672SOL    HW179848  11.338   9.147   3.350
92672SOL    HW279849  11.449   9.186   3.255
92673SOL     OW79850   3.872  12.817   7.928
92673SOL    HW179851   3.860  12.897   7.877
92673SOL    HW279852   3.786  12.775   7.928
92674SOL     OW79853  12.033   9.099   2.764
92674SOL    HW179854  11.996   9.154   2.695
92674SOL    HW279855  12.125   9.125   2.768
92675SOL     OW79856  11.285   7.390   4.597
92675SOL    HW179857  11.348   7.459   4.578
92675SOL    HW279858  11.251   7.364   4.512
92676SOL     OW79859  10.514   6.930   1.752
92676SOL    HW179860  10.460   6.853   1.736
92676SOL    HW279861  10.536   6.963   1.665
92677SOL     OW79862  11.054  10.652   2.357
92677SOL    HW179863  10.990  10.697   2.411
92677SOL    HW279864  11.002  10.601   2.296
92678SOL     OW79865  14.796   4.387  13.697
92678SOL    HW179866   0.002   4.429  13.733
92678SOL    HW279867  14.776   4.317  13.758
92679SOL     OW79868   4.992   2.163  10.816
92679SOL    HW179869   5.079   2.134  10.844
92679SOL    HW279870   5.008   2.243  10.766
92680SOL     OW79871  13.246   4.721   4.459
92680SOL    HW179872  13.159   4.750   4.487
92680SOL    HW279873  13.234   4.689   4.370
92681SOL     OW79874   6.642   6.464   8.700
92681SOL    HW179875   6.629   6.538   8.759
92681SOL    HW279876   6.614   6.388   8.750
92682SOL     OW79877   5.428  13.005   5.844
92682SOL    HW179878   5.364  13.001   5.915
92682SOL    HW279879   5.413  13.090   5.803
92683SOL     OW79880   5.416  10.381   6.901
92683SOL    HW179881   5.440  10.472   6.882
92683SOL    HW279882   5.333  10.368   6.856
92684SOL     OW79883   5.258   3.635   3.692
92684SOL    HW179884   5.339   3.647   3.643
92684SOL    HW279885   5.226   3.549   3.665
92685SOL     OW79886   1.020  13.358   6.854
92685SOL    HW179887   1.059  13.394   6.933
92685SOL    HW279888   0.943  13.311   6.884
92686SOL     OW79889   1.954  14.359  12.148
92686SOL    HW179890   1.929  14.271  12.175
92686SOL    HW279891   2.033  14.347  12.095
92687SOL     OW79892   7.092   2.439   7.340
92687SOL    HW179893   7.153   2.406   7.405
92687SOL    HW279894   7.018   2.472   7.390
92688SOL     OW79895   1.046  11.415   0.842
92688SOL    HW179896   0.999  11.353   0.786
92688SOL    HW279897   0.998  11.497   0.833
92689SOL     OW79898  11.816   3.791  10.022
92689SOL    HW179899  11.793   3.714   9.971
92689SOL    HW279900  11.796   3.767  10.112
92690SOL     OW79901   4.559   9.279   9.437
92690SOL    HW179902   4.619   9.353   9.448
92690SOL    HW279903   4.475   9.311   9.472
92691SOL     OW79904   5.075   5.737   9.781
92691SOL    HW179905   5.061   5.649   9.814
92691SOL    HW279906   5.053   5.732   9.688
92692SOL     OW79907   6.021   1.065   0.757
92692SOL    HW179908   6.110   1.059   0.722
92692SOL    HW279909   5.965   1.068   0.679
92693SOL     OW79910   8.677  12.017   7.438
92693SOL    HW179911   8.716  11.941   7.394
92693SOL    HW279912   8.728  12.092   7.406
92694SOL     OW79913   1.563  11.705   7.339
92694SOL    HW179914   1.531  11.649   7.409
92694SOL    HW279915   1.602  11.780   7.384
92695SOL     OW79916   3.376   7.206   3.407
92695SOL    HW179917   3.442   7.259   3.361
92695SOL    HW279918   3.312   7.184   3.340
92696SOL     OW79919   7.270   4.101   7.395
92696SOL    HW179920   7.242   4.183   7.435
92696SOL    HW279921   7.347   4.074   7.446
92697SOL     OW79922   2.046   4.342   9.478
92697SOL    HW179923   2.119   4.298   9.522
92697SOL    HW279924   2.069   4.435   9.480
92698SOL     OW79925   9.469   8.870   1.492
92698SOL    HW179926   9.547   8.922   1.477
92698SOL    HW279927   9.401   8.912   1.438
92699SOL     OW79928  13.263   7.757   2.955
92699SOL    HW179929  13.265   7.735   2.862
92699SOL    HW279930  13.314   7.838   2.962
92700SOL     OW79931   4.762   6.233   3.002
92700SOL    HW179932   4.674   6.270   2.991
92700SOL    HW279933   4.778   6.184   2.922
92701SOL     OW79934   5.073   4.985  13.105
92701SOL    HW179935   5.136   4.966  13.175
92701SOL    HW279936   5.028   5.064  13.134
92702SOL     OW79937   9.703   8.053  13.082
92702SOL    HW179938   9.711   7.983  13.018
92702SOL    HW279939   9.652   8.121  13.038
92703SOL     OW79940  12.025  11.256   0.875
92703SOL    HW179941  11.982  11.171   0.884
92703SOL    HW279942  11.989  11.308   0.948
92704SOL     OW79943   2.289   9.797  14.265
92704SOL    HW179944   2.311   9.733  14.333
92704SOL    HW279945   2.354   9.783  14.196
92705SOL     OW79946   4.183  12.860   4.889
92705SOL    HW179947   4.250  12.928   4.883
92705SOL    HW279948   4.100  12.909   4.890
92706SOL     OW79949   3.343   5.988   8.664
92706SOL    HW179950   3.427   5.980   8.710
92706SOL    HW279951   3.322   6.081   8.671
92707SOL     OW79952  13.244  13.915   4.548
92707SOL    HW179953  13.278  13.825   4.548
92707SOL    HW279954  13.236  13.936   4.455
92708SOL     OW79955  14.626   1.761  12.474
92708SOL    HW179956  14.694   1.702  12.506
92708SOL    HW279957  14.662   1.799  12.394
92709SOL     OW79958  13.762  14.730   4.525
92709SOL    HW179959  13.747  14.663   4.592
92709SOL    HW279960  13.762  14.813   4.572
92710SOL     OW79961   4.836   6.437   5.707
92710SOL    HW179962   4.769   6.418   5.773
92710SOL    HW279963   4.917   6.406   5.746
92711SOL     OW79964   7.976   3.728   3.486
92711SOL    HW179965   8.024   3.810   3.494
92711SOL    HW279966   7.935   3.715   3.571
92712SOL     OW79967   8.600   3.417   9.288
92712SOL    HW179968   8.618   3.335   9.334
92712SOL    HW279969   8.588   3.481   9.358
92713SOL     OW79970   4.604  10.130   2.694
92713SOL    HW179971   4.682  10.185   2.688
92713SOL    HW279972   4.551  10.154   2.618
92714SOL     OW79973   2.770   9.617   7.786
92714SOL    HW179974   2.726   9.604   7.870
92714SOL    HW279975   2.711   9.673   7.736
92715SOL     OW79976   6.166  14.175   9.412
92715SOL    HW179977   6.076  14.204   9.398
92715SOL    HW279978   6.208  14.249   9.455
92716SOL     OW79979   4.150   9.599   9.829
92716SOL    HW179980   4.121   9.638   9.912
92716SOL    HW279981   4.232   9.555   9.850
92717SOL     OW79982  12.284   8.479  12.078
92717SOL    HW179983  12.246   8.514  12.158
92717SOL    HW279984  12.218   8.495  12.010
92718SOL     OW79985   6.181  13.515   5.820
92718SOL    HW179986   6.137  13.434   5.846
92718SOL    HW279987   6.232  13.491   5.743
92719SOL     OW79988   1.448   1.568   7.215
92719SOL    HW179989   1.399   1.645   7.245
92719SOL    HW279990   1.540   1.596   7.217
92720SOL     OW79991   8.949   8.461   6.750
92720SOL    HW179992   8.855   8.442   6.748
92720SOL    HW279993   8.991   8.375   6.751
92721SOL     OW79994  12.538   1.603   7.783
92721SOL    HW179995  12.466   1.606   7.847
92721SOL    HW279996  12.495   1.587   7.699
92722SOL     OW79997  10.989   5.467   4.575
92722SOL    HW179998  11.018   5.388   4.530
92722SOL    HW279999  11.040   5.538   4.537
92723SOL     OW80000  12.618   5.276   3.344
92723SOL    HW180001  12.617   5.333   3.267
92723SOL    HW280002  12.602   5.336   3.417
92724SOL     OW80003   4.218  11.927  13.198
92724SOL    HW180004   4.168  11.850  13.173
92724SOL    HW280005   4.273  11.898  13.271
92725SOL     OW80006   3.665   4.370   9.448
92725SOL    HW180007   3.670   4.276   9.433
92725SOL    HW280008   3.573   4.385   9.472
92726SOL     OW80009   6.759   8.819   4.941
92726SOL    HW180010   6.838   8.865   4.913
92726SOL    HW280011   6.730   8.866   5.019
92727SOL     OW80012  14.514  14.765   9.719
92727SOL    HW180013  14.446  14.832   9.713
92727SOL    HW280014  14.592  14.812   9.747
92728SOL     OW80015  13.424   0.067   2.636
92728SOL    HW180016  13.420   0.015   2.556
92728SOL    HW280017  13.394   0.008   2.705
92729SOL     OW80018  11.582   7.121  11.839
92729SOL    HW180019  11.669   7.136  11.875
92729SOL    HW280020  11.542   7.056  11.897
92730SOL     OW80021   3.891   3.564   2.909
92730SOL    HW180022   3.858   3.598   2.826
92730SOL    HW280023   3.945   3.489   2.884
92731SOL     OW80024   0.867   1.356   0.680
92731SOL    HW180025   0.832   1.407   0.606
92731SOL    HW280026   0.789   1.323   0.725
92732SOL     OW80027   3.011  11.901   8.611
92732SOL    HW180028   3.050  11.930   8.528
92732SOL    HW280029   3.074  11.928   8.677
92733SOL     OW80030   2.712   3.320   1.314
92733SOL    HW180031   2.764   3.241   1.304
92733SOL    HW280032   2.774   3.386   1.345
92734SOL     OW80033  12.408  13.718  12.059
92734SOL    HW180034  12.392  13.637  12.108
92734SOL    HW280035  12.357  13.708  11.979
92735SOL     OW80036   7.749  10.678  13.480
92735SOL    HW180037   7.734  10.698  13.388
92735SOL    HW280038   7.809  10.603  13.479
92736SOL     OW80039   4.953   8.565   0.413
92736SOL    HW180040   4.912   8.479   0.398
92736SOL    HW280041   4.903   8.625   0.358
92737SOL     OW80042   7.957   0.037   8.418
92737SOL    HW180043   7.873  14.867   8.398
92737SOL    HW280044   8.022  14.851   8.378
92738SOL     OW80045   5.366   1.366   8.211
92738SOL    HW180046   5.418   1.441   8.181
92738SOL    HW280047   5.304   1.404   8.274
92739SOL     OW80048  12.736   4.150   7.827
92739SOL    HW180049  12.757   4.066   7.786
92739SOL    HW280050  12.741   4.213   7.755
92740SOL     OW80051   2.626  11.465  14.577
92740SOL    HW180052   2.686  11.472  14.503
92740SOL    HW280053   2.626  11.553  14.615
92741SOL     OW80054   4.471   2.802  10.962
92741SOL    HW180055   4.552   2.810  10.911
92741SOL    HW280056   4.426   2.885  10.950
92742SOL     OW80057   6.584   8.506   3.158
92742SOL    HW180058   6.656   8.501   3.221
92742SOL    HW280059   6.627   8.507   3.072
92743SOL     OW80060  12.143   8.974   0.898
92743SOL    HW180061  12.226   8.969   0.946
92743SOL    HW280062  12.150   9.055   0.847
92744SOL     OW80063  14.656   2.050  13.165
92744SOL    HW180064  14.565   2.057  13.137
92744SOL    HW280065  14.671   2.130  13.216
92745SOL     OW80066  13.002   3.524   7.984
92745SOL    HW180067  13.070   3.546   7.920
92745SOL    HW280068  13.016   3.430   8.002
92746SOL     OW80069   2.722   4.692   0.418
92746SOL    HW180070   2.728   4.771   0.365
92746SOL    HW280071   2.812   4.657   0.420
92747SOL     OW80072   9.648   4.417  13.450
92747SOL    HW180073   9.592   4.489  13.420
92747SOL    HW280074   9.700   4.394  13.372
92748SOL     OW80075  14.395  11.809  10.896
92748SOL    HW180076  14.301  11.797  10.907
92748SOL    HW280077  14.414  11.771  10.811
92749SOL     OW80078  10.820  12.392   8.078
92749SOL    HW180079  10.813  12.306   8.119
92749SOL    HW280080  10.752  12.445   8.120
92750SOL     OW80081   9.689   9.022   4.616
92750SOL    HW180082   9.755   9.089   4.635
92750SOL    HW280083   9.625   9.030   4.687
92751SOL     OW80084  10.147   1.139   4.269
92751SOL    HW180085  10.064   1.127   4.314
92751SOL    HW280086  10.136   1.219   4.218
92752SOL     OW80087   1.039  12.493   2.042
92752SOL    HW180088   1.033  12.525   1.952
92752SOL    HW280089   1.008  12.403   2.037
92753SOL     OW80090  14.725  13.475   6.324
92753SOL    HW180091  14.755  13.449   6.411
92753SOL    HW280092  14.668  13.403   6.296
92754SOL     OW80093  10.837   1.570   5.950
92754SOL    HW180094  10.870   1.497   6.003
92754SOL    HW280095  10.742   1.556   5.948
92755SOL     OW80096  11.194   1.379   1.410
92755SOL    HW180097  11.287   1.367   1.431
92755SOL    HW280098  11.177   1.471   1.428
92756SOL     OW80099   1.323  10.630   0.552
92756SOL    HW180100   1.261  10.562   0.580
92756SOL    HW280101   1.408  10.600   0.586
92757SOL     OW80102  11.033  12.457  10.139
92757SOL    HW180103  10.999  12.473  10.226
92757SOL    HW280104  11.066  12.542  10.110
92758SOL     OW80105   4.784   2.172  10.991
92758SOL    HW180106   4.720   2.144  10.925
92758SOL    HW280107   4.868   2.170  10.945
92759SOL     OW80108  14.336   1.757   0.057
92759SOL    HW180109  14.368   1.679   0.102
92759SOL    HW280110  14.244   1.740   0.042
92760SOL     OW80111  10.773   0.304  10.900
92760SOL    HW180112  10.836   0.376  10.904
92760SOL    HW280113  10.804   0.248  10.829
92761SOL     OW80114   0.695  11.461   1.198
92761SOL    HW180115   0.689  11.498   1.286
92761SOL    HW280116   0.701  11.537   1.140
92762SOL     OW80117  10.397  10.427   5.897
92762SOL    HW180118  10.476  10.468   5.863
92762SOL    HW280119  10.382  10.352   5.839
92763SOL     OW80120  12.165   8.997   7.574
92763SOL    HW180121  12.175   8.910   7.613
92763SOL    HW280122  12.131   9.052   7.645
92764SOL     OW80123   8.681  11.224  12.001
92764SOL    HW180124   8.735  11.160  12.047
92764SOL    HW280125   8.737  11.301  11.993
92765SOL     OW80126   3.020   6.125   5.406
92765SOL    HW180127   3.002   6.121   5.500
92765SOL    HW280128   3.112   6.151   5.400
92766SOL     OW80129  12.314   3.471   6.737
92766SOL    HW180130  12.393   3.521   6.718
92766SOL    HW280131  12.309   3.406   6.667
92767SOL     OW80132   6.395   0.669   1.252
92767SOL    HW180133   6.423   0.664   1.343
92767SOL    HW280134   6.329   0.739   1.251
92768SOL     OW80135  11.601  12.459  12.428
92768SOL    HW180136  11.630  12.545  12.459
92768SOL    HW280137  11.529  12.435  12.486
92769SOL     OW80138  10.153   1.372   2.694
92769SOL    HW180139  10.075   1.405   2.739
92769SOL    HW280140  10.212   1.447   2.691
92770SOL     OW80141  13.765   0.874  13.893
92770SOL    HW180142  13.720   0.945  13.938
92770SOL    HW280143  13.745   0.796  13.946
92771SOL     OW80144   7.821   6.712  12.980
92771SOL    HW180145   7.829   6.665  12.897
92771SOL    HW280146   7.884   6.669  13.038
92772SOL     OW80147   6.704   9.637   2.407
92772SOL    HW180148   6.615   9.666   2.388
92772SOL    HW280149   6.742   9.708   2.460
92773SOL     OW80150   0.445   4.061   7.164
92773SOL    HW180151   0.399   4.037   7.244
92773SOL    HW280152   0.378   4.058   7.096
92774SOL     OW80153   8.631   4.382   5.247
92774SOL    HW180154   8.540   4.407   5.263
92774SOL    HW280155   8.634   4.362   5.153
92775SOL     OW80156   8.873  10.605   2.740
92775SOL    HW180157   8.850  10.516   2.767
92775SOL    HW280158   8.868  10.603   2.644
92776SOL     OW80159  12.677   9.340  13.339
92776SOL    HW180160  12.618   9.269  13.364
92776SOL    HW280161  12.712   9.314  13.254
92777SOL     OW80162  12.195   3.494   9.349
92777SOL    HW180163  12.226   3.528   9.265
92777SOL    HW280164  12.105   3.526   9.357
92778SOL     OW80165   8.707   0.067  11.773
92778SOL    HW180166   8.687   0.160  11.757
92778SOL    HW280167   8.778   0.069  11.836
92779SOL     OW80168   0.720   6.292   0.497
92779SOL    HW180169   0.667   6.302   0.418
92779SOL    HW280170   0.809   6.277   0.464
92780SOL     OW80171  14.504   6.086  14.679
92780SOL    HW180172  14.568   6.035  14.628
92780SOL    HW280173  14.447   6.126  14.613
92781SOL     OW80174  13.829   2.574   8.615
92781SOL    HW180175  13.753   2.562   8.557
92781SOL    HW280176  13.901   2.530   8.570
92782SOL     OW80177  10.909  10.726  12.934
92782SOL    HW180178  10.828  10.759  12.971
92782SOL    HW280179  10.972  10.798  12.947
92783SOL     OW80180   3.095   6.296  11.836
92783SOL    HW180181   3.097   6.232  11.764
92783SOL    HW280182   3.168   6.271  11.892
92784SOL     OW80183   3.304  11.740   4.677
92784SOL    HW180184   3.329  11.649   4.689
92784SOL    HW280185   3.245  11.759   4.750
92785SOL     OW80186   8.139   2.816  10.873
92785SOL    HW180187   8.173   2.783  10.957
92785SOL    HW280188   8.166   2.908  10.871
92786SOL     OW80189   3.249  13.316  13.058
92786SOL    HW180190   3.191  13.302  12.984
92786SOL    HW280191   3.337  13.301  13.023
92787SOL     OW80192  10.273   4.621   3.454
92787SOL    HW180193  10.244   4.609   3.364
92787SOL    HW280194  10.368   4.605   3.450
92788SOL     OW80195   4.294  14.379   4.547
92788SOL    HW180196   4.382  14.385   4.585
92788SOL    HW280197   4.285  14.460   4.496
92789SOL     OW80198  11.117   5.458   7.676
92789SOL    HW180199  11.076   5.424   7.596
92789SOL    HW280200  11.209   5.435   7.668
92790SOL     OW80201  14.693   7.306  14.672
92790SOL    HW180202  14.626   7.312  14.740
92790SOL    HW280203  14.738   7.223  14.690
92791SOL     OW80204   1.237  11.180  12.639
92791SOL    HW180205   1.283  11.263  12.643
92791SOL    HW280206   1.238  11.156  12.547
92792SOL     OW80207   2.221   6.145  10.577
92792SOL    HW180208   2.285   6.092  10.529
92792SOL    HW280209   2.198   6.091  10.653
92793SOL     OW80210   3.322   5.047   6.288
92793SOL    HW180211   3.381   4.971   6.284
92793SOL    HW280212   3.321   5.081   6.198
92794SOL     OW80213   0.482  11.172   5.260
92794SOL    HW180214   0.551  11.137   5.204
92794SOL    HW280215   0.473  11.107   5.330
92795SOL     OW80216   7.877   4.644  14.338
92795SOL    HW180217   7.814   4.625  14.269
92795SOL    HW280218   7.941   4.702  14.297
92796SOL     OW80219  14.268   1.163   3.855
92796SOL    HW180220  14.351   1.174   3.901
92796SOL    HW280221  14.248   1.250   3.821
92797SOL     OW80222   9.768   4.867   9.435
92797SOL    HW180223   9.713   4.841   9.361
92797SOL    HW280224   9.786   4.786   9.482
92798SOL     OW80225  12.171   1.812   3.828
92798SOL    HW180226  12.076   1.812   3.842
92798SOL    HW280227  12.204   1.880   3.887
92799SOL     OW80228   0.930  11.190   6.838
92799SOL    HW180229   0.995  11.245   6.882
92799SOL    HW280230   0.848  11.211   6.881
92800SOL     OW80231  10.234   4.651   5.507
92800SOL    HW180232  10.305   4.626   5.449
92800SOL    HW280233  10.250   4.744   5.526
92801SOL     OW80234   8.498  13.669  14.450
92801SOL    HW180235   8.468  13.644  14.538
92801SOL    HW280236   8.532  13.758  14.461
92802SOL     OW80237   0.181   1.172  13.545
92802SOL    HW180238   0.250   1.141  13.487
92802SOL    HW280239   0.210   1.145  13.632
92803SOL     OW80240   5.215   0.555   7.651
92803SOL    HW180241   5.172   0.499   7.587
92803SOL    HW280242   5.274   0.610   7.600
92804SOL     OW80243  13.781  12.825   8.328
92804SOL    HW180244  13.721  12.882   8.377
92804SOL    HW280245  13.804  12.875   8.250
92805SOL     OW80246   0.721   6.412   0.761
92805SOL    HW180247   0.773   6.492   0.769
92805SOL    HW280248   0.747   6.375   0.677
92806SOL     OW80249  13.512   2.855  10.834
92806SOL    HW180250  13.541   2.918  10.768
92806SOL    HW280251  13.438   2.809  10.793
92807SOL     OW80252   8.866  12.297   9.276
92807SOL    HW180253   8.896  12.385   9.300
92807SOL    HW280254   8.946  12.249   9.255
92808SOL     OW80255   1.556   7.601   8.763
92808SOL    HW180256   1.612   7.593   8.685
92808SOL    HW280257   1.537   7.511   8.788
92809SOL     OW80258   9.290  12.212   7.895
92809SOL    HW180259   9.204  12.241   7.926
92809SOL    HW280260   9.271  12.149   7.825
92810SOL     OW80261   9.886   4.302  11.321
92810SOL    HW180262   9.953   4.335  11.263
92810SOL    HW280263   9.934   4.259  11.392
92811SOL     OW80264   4.358  11.514   4.516
92811SOL    HW180265   4.287  11.455   4.489
92811SOL    HW280266   4.415  11.518   4.439
92812SOL     OW80267   6.494   2.360   8.594
92812SOL    HW180268   6.587   2.367   8.615
92812SOL    HW280269   6.452   2.431   8.642
92813SOL     OW80270   2.870   8.215   6.002
92813SOL    HW180271   2.934   8.212   6.073
92813SOL    HW280272   2.785   8.214   6.047
92814SOL     OW80273  10.109  12.173  12.411
92814SOL    HW180274  10.191  12.217  12.432
92814SOL    HW280275  10.124  12.081  12.435
92815SOL     OW80276   2.438  14.794   7.266
92815SOL    HW180277   2.417   0.015   7.270
92815SOL    HW280278   2.364  14.751   7.309
92816SOL     OW80279  13.127  13.390  11.328
92816SOL    HW180280  13.133  13.482  11.302
92816SOL    HW280281  13.077  13.349  11.257
92817SOL     OW80282   0.777   2.498  14.743
92817SOL    HW180283   0.819   2.569  14.791
92817SOL    HW280284   0.785   2.421  14.801
92818SOL     OW80285   4.356   6.783  13.999
92818SOL    HW180286   4.401   6.700  13.987
92818SOL    HW280287   4.321   6.804  13.912
92819SOL     OW80288   0.437  11.783   1.126
92819SOL    HW180289   0.493  11.810   1.199
92819SOL    HW280290   0.461  11.841   1.054
92820SOL     OW80291   7.794   6.134   5.320
92820SOL    HW180292   7.717   6.183   5.349
92820SOL    HW280293   7.775   6.043   5.346
92821SOL     OW80294   2.872   3.576   6.332
92821SOL    HW180295   2.819   3.524   6.272
92821SOL    HW280296   2.954   3.527   6.340
92822SOL     OW80297   8.401  11.477   1.185
92822SOL    HW180298   8.473  11.444   1.238
92822SOL    HW280299   8.323  11.437   1.223
92823SOL     OW80300   6.898   8.025  11.728
92823SOL    HW180301   6.871   7.967  11.656
92823SOL    HW280302   6.841   8.000  11.801
92824SOL     OW80303   9.643  13.533   7.864
92824SOL    HW180304   9.685  13.541   7.950
92824SOL    HW280305   9.683  13.455   7.825
92825SOL     OW80306  11.632   8.125  10.764
92825SOL    HW180307  11.726   8.106  10.753
92825SOL    HW280308  11.591   8.039  10.768
92826SOL     OW80309   4.725   6.854   1.433
92826SOL    HW180310   4.767   6.940   1.425
92826SOL    HW280311   4.641   6.865   1.389
92827SOL     OW80312   4.174   8.939  10.076
92827SOL    HW180313   4.196   8.853  10.112
92827SOL    HW280314   4.157   8.922   9.984
92828SOL     OW80315   6.948   1.494  14.624
92828SOL    HW180316   7.026   1.537  14.661
92828SOL    HW280317   6.975   1.466  14.537
92829SOL     OW80318   2.761   4.005   8.497
92829SOL    HW180319   2.823   3.940   8.530
92829SOL    HW280320   2.815   4.081   8.474
92830SOL     OW80321  10.685   3.195   0.897
92830SOL    HW180322  10.636   3.276   0.913
92830SOL    HW280323  10.775   3.216   0.923
92831SOL     OW80324   7.845   6.462   8.479
92831SOL    HW180325   7.926   6.488   8.523
92831SOL    HW280326   7.820   6.538   8.427
92832SOL     OW80327  10.496   2.491   0.441
92832SOL    HW180328  10.427   2.496   0.375
92832SOL    HW280329  10.510   2.397   0.454
92833SOL     OW80330   7.805   5.396   1.211
92833SOL    HW180331   7.882   5.346   1.237
92833SOL    HW280332   7.731   5.338   1.231
92834SOL     OW80333   3.994  12.163   0.418
92834SOL    HW180334   3.927  12.111   0.374
92834SOL    HW280335   4.042  12.206   0.347
92835SOL     OW80336   4.414   6.015   5.871
92835SOL    HW180337   4.359   6.074   5.924
92835SOL    HW280338   4.411   6.052   5.783
92836SOL     OW80339   3.812   3.080   5.184
92836SOL    HW180340   3.831   3.168   5.216
92836SOL    HW280341   3.717   3.072   5.191
92837SOL     OW80342   0.150   6.983  10.387
92837SOL    HW180343   0.061   6.966  10.418
92837SOL    HW280344   0.182   7.052  10.445
92838SOL     OW80345  14.230   6.231   6.166
92838SOL    HW180346  14.255   6.313   6.209
92838SOL    HW280347  14.182   6.182   6.232
92839SOL     OW80348   6.097  13.285   8.208
92839SOL    HW180349   6.165  13.252   8.266
92839SOL    HW280350   6.035  13.212   8.200
92840SOL     OW80351   2.371  12.531   2.385
92840SOL    HW180352   2.402  12.555   2.298
92840SOL    HW280353   2.368  12.614   2.433
92841SOL     OW80354   5.329   1.674  10.067
92841SOL    HW180355   5.322   1.692  10.160
92841SOL    HW280356   5.241   1.690  10.033
92842SOL     OW80357   8.068  12.350  11.493
92842SOL    HW180358   8.013  12.308  11.559
92842SOL    HW280359   8.107  12.425  11.539
92843SOL     OW80360   0.840   0.173   9.270
92843SOL    HW180361   0.873   0.084   9.283
92843SOL    HW280362   0.912   0.219   9.225
92844SOL     OW80363   1.727   4.060   4.146
92844SOL    HW180364   1.749   4.092   4.059
92844SOL    HW280365   1.690   4.135   4.191
92845SOL     OW80366   8.839   8.433   5.569
92845SOL    HW180367   8.848   8.484   5.488
92845SOL    HW280368   8.927   8.398   5.584
92846SOL     OW80369   4.677  12.733   8.808
92846SOL    HW180370   4.718  12.667   8.753
92846SOL    HW280371   4.657  12.806   8.749
92847SOL     OW80372   4.851   8.789   3.284
92847SOL    HW180373   4.802   8.722   3.332
92847SOL    HW280374   4.943   8.760   3.292
92848SOL     OW80375   7.259   4.796   0.043
92848SOL    HW180376   7.233   4.883   0.072
92848SOL    HW280377   7.185   4.766  14.862
92849SOL     OW80378  13.011   0.443   2.234
92849SOL    HW180379  12.941   0.465   2.295
92849SOL    HW280380  13.005   0.349   2.222
92850SOL     OW80381   2.827   8.941   3.435
92850SOL    HW180382   2.888   9.002   3.394
92850SOL    HW280383   2.883   8.883   3.487
92851SOL     OW80384  11.974   8.126  14.424
92851SOL    HW180385  12.060   8.130  14.381
92851SOL    HW280386  11.994   8.114  14.517
92852SOL     OW80387   1.815   6.758   6.377
92852SOL    HW180388   1.833   6.718   6.292
92852SOL    HW280389   1.760   6.833   6.357
92853SOL     OW80390   8.632   9.720   2.877
92853SOL    HW180391   8.632   9.775   2.798
92853SOL    HW280392   8.723   9.720   2.906
92854SOL     OW80393   6.949  12.396   8.780
92854SOL    HW180394   6.915  12.437   8.860
92854SOL    HW280395   7.017  12.336   8.811
92855SOL     OW80396   6.632   2.878  14.498
92855SOL    HW180397   6.693   2.950  14.513
92855SOL    HW280398   6.595   2.859  14.584
92856SOL     OW80399   0.950   1.585   2.428
92856SOL    HW180400   1.039   1.607   2.399
92856SOL    HW280401   0.896   1.598   2.350
92857SOL     OW80402   7.112  14.698   8.926
92857SOL    HW180403   7.205  14.719   8.918
92857SOL    HW280404   7.110  14.603   8.938
92858SOL     OW80405   5.816   1.986   4.300
92858SOL    HW180406   5.798   1.928   4.374
92858SOL    HW280407   5.895   1.950   4.261
92859SOL     OW80408  13.847   5.704  12.434
92859SOL    HW180409  13.766   5.690  12.385
92859SOL    HW280410  13.916   5.672  12.376
92860SOL     OW80411   6.910   2.468   2.248
92860SOL    HW180412   6.944   2.423   2.171
92860SOL    HW280413   6.957   2.551   2.250
92861SOL     OW80414  13.125   0.796   9.824
92861SOL    HW180415  13.068   0.762   9.893
92861SOL    HW280416  13.066   0.831   9.758
92862SOL     OW80417   6.989  13.997  11.286
92862SOL    HW180418   6.959  13.974  11.374
92862SOL    HW280419   6.930  14.066  11.258
92863SOL     OW80420   0.393   1.255   4.914
92863SOL    HW180421   0.300   1.248   4.892
92863SOL    HW280422   0.431   1.308   4.844
92864SOL     OW80423   5.622   8.379  14.575
92864SOL    HW180424   5.560   8.308  14.555
92864SOL    HW280425   5.619   8.436  14.499
92865SOL     OW80426  14.477   6.298   5.815
92865SOL    HW180427  14.412   6.333   5.876
92865SOL    HW280428  14.456   6.205   5.809
92866SOL     OW80429   3.154   3.880  11.699
92866SOL    HW180430   3.175   3.800  11.651
92866SOL    HW280431   3.063   3.898  11.675
92867SOL     OW80432   3.183  13.140  10.349
92867SOL    HW180433   3.158  13.214  10.295
92867SOL    HW280434   3.109  13.080  10.344
92868SOL     OW80435   6.912   9.502   7.915
92868SOL    HW180436   6.993   9.497   7.965
92868SOL    HW280437   6.933   9.557   7.840
92869SOL     OW80438  10.428   3.614   0.112
92869SOL    HW180439  10.392   3.685   0.167
92869SOL    HW280440  10.430   3.651   0.024
92870SOL     OW80441   1.763   4.194   4.739
92870SOL    HW180442   1.815   4.256   4.790
92870SOL    HW280443   1.677   4.237   4.730
92871SOL     OW80444   4.891  14.709  13.106
92871SOL    HW180445   4.802  14.708  13.140
92871SOL    HW280446   4.904  14.620  13.072
92872SOL     OW80447   7.666   0.672   8.210
92872SOL    HW180448   7.607   0.618   8.262
92872SOL    HW280449   7.712   0.610   8.153
92873SOL     OW80450  10.399   6.645   6.934
92873SOL    HW180451  10.426   6.558   6.904
92873SOL    HW280452  10.409   6.701   6.858
92874SOL     OW80453  11.221   3.649   8.785
92874SOL    HW180454  11.226   3.709   8.859
92874SOL    HW280455  11.157   3.583   8.812
92875SOL     OW80456  13.449   3.986   2.851
92875SOL    HW180457  13.404   4.058   2.806
92875SOL    HW280458  13.427   3.908   2.799
92876SOL     OW80459  12.840   6.323   5.097
92876SOL    HW180460  12.772   6.286   5.041
92876SOL    HW280461  12.818   6.291   5.185
92877SOL     OW80462   1.172   7.365   9.462
92877SOL    HW180463   1.135   7.281   9.434
92877SOL    HW280464   1.099   7.411   9.502
92878SOL     OW80465  13.582   0.875   8.110
92878SOL    HW180466  13.568   0.964   8.076
92878SOL    HW280467  13.597   0.888   8.204
92879SOL     OW80468   3.916   7.076   9.277
92879SOL    HW180469   3.823   7.054   9.269
92879SOL    HW280470   3.956   7.040   9.198
92880SOL     OW80471  14.625   2.164  13.819
92880SOL    HW180472  14.705   2.120  13.788
92880SOL    HW280473  14.574   2.094  13.859
92881SOL     OW80474   7.927   2.426   0.257
92881SOL    HW180475   7.925   2.348   0.314
92881SOL    HW280476   7.915   2.499   0.317
92882SOL     OW80477  13.619  13.308   2.537
92882SOL    HW180478  13.570  13.370   2.591
92882SOL    HW280479  13.707  13.309   2.573
92883SOL     OW80480   8.492  12.036   9.621
92883SOL    HW180481   8.431  12.002   9.555
92883SOL    HW280482   8.437  12.087   9.680
92884SOL     OW80483   8.142   4.623   3.379
92884SOL    HW180484   8.117   4.661   3.295
92884SOL    HW280485   8.167   4.533   3.358
92885SOL     OW80486  11.692  13.773  10.797
92885SOL    HW180487  11.770  13.829  10.799
92885SOL    HW280488  11.714  13.698  10.851
92886SOL     OW80489  13.973   4.322  10.622
92886SOL    HW180490  13.989   4.341  10.714
92886SOL    HW280491  13.931   4.401  10.588
92887SOL     OW80492   2.375  10.368   0.387
92887SOL    HW180493   2.327  10.420   0.323
92887SOL    HW280494   2.468  10.385   0.368
92888SOL     OW80495   7.372   2.160  13.205
92888SOL    HW180496   7.279   2.168  13.186
92888SOL    HW280497   7.414   2.226  13.150
92889SOL     OW80498  10.199   3.023   5.716
92889SOL    HW180499  10.237   3.022   5.805
92889SOL    HW280500  10.107   2.999   5.729
92890SOL     OW80501   6.799   8.753   4.124
92890SOL    HW180502   6.798   8.791   4.212
92890SOL    HW280503   6.862   8.805   4.076
92891SOL     OW80504   4.036  14.070   1.653
92891SOL    HW180505   3.949  14.093   1.622
92891SOL    HW280506   4.037  14.096   1.745
92892SOL     OW80507  13.874  11.499  12.438
92892SOL    HW180508  13.965  11.523  12.456
92892SOL    HW280509  13.829  11.513  12.521
92893SOL     OW80510   0.462  13.770   5.781
92893SOL    HW180511   0.369  13.781   5.761
92893SOL    HW280512   0.481  13.679   5.759
92894SOL     OW80513   5.957   9.603  12.325
92894SOL    HW180514   5.989   9.675  12.379
92894SOL    HW280515   5.994   9.524  12.365
92895SOL     OW80516   7.099  13.102   9.270
92895SOL    HW180517   7.112  13.012   9.241
92895SOL    HW280518   7.165  13.152   9.223
92896SOL     OW80519  13.778   2.419  11.026
92896SOL    HW180520  13.719   2.371  10.968
92896SOL    HW280521  13.856   2.434  10.973
92897SOL     OW80522  13.751   7.165  12.764
92897SOL    HW180523  13.722   7.167  12.672
92897SOL    HW280524  13.846   7.161  12.758
92898SOL     OW80525   6.366  13.192   4.287
92898SOL    HW180526   6.414  13.109   4.288
92898SOL    HW280527   6.336  13.201   4.196
92899SOL     OW80528  11.359  12.973   7.028
92899SOL    HW180529  11.380  13.018   6.946
92899SOL    HW280530  11.420  12.899   7.030
92900SOL     OW80531  10.583   5.531   0.279
92900SOL    HW180532  10.545   5.605   0.230
92900SOL    HW280533  10.592   5.462   0.214
92901SOL     OW80534   2.023   6.476   4.354
92901SOL    HW180535   2.010   6.517   4.269
92901SOL    HW280536   2.086   6.406   4.338
92902SOL     OW80537  12.803   3.202   3.655
92902SOL    HW180538  12.756   3.194   3.573
92902SOL    HW280539  12.735   3.192   3.723
92903SOL     OW80540   9.208  14.295  12.747
92903SOL    HW180541   9.191  14.202  12.734
92903SOL    HW280542   9.222  14.330  12.659
92904SOL     OW80543   1.129   7.073   6.052
92904SOL    HW180544   1.043   7.030   6.053
92904SOL    HW280545   1.190   7.004   6.080
92905SOL     OW80546   8.075   6.613  10.220
92905SOL    HW180547   8.123   6.575  10.147
92905SOL    HW280548   7.986   6.578  10.211
92906SOL     OW80549   7.101  13.192   0.714
92906SOL    HW180550   7.167  13.261   0.725
92906SOL    HW280551   7.149  13.110   0.726
92907SOL     OW80552  11.958   3.010   1.923
92907SOL    HW180553  11.909   2.937   1.961
92907SOL    HW280554  11.892   3.060   1.874
92908SOL     OW80555  11.141  11.564   4.590
92908SOL    HW180556  11.215  11.622   4.574
92908SOL    HW280557  11.176  11.476   4.577
92909SOL     OW80558   4.961  13.563   0.089
92909SOL    HW180559   4.915  13.622   0.029
92909SOL    HW280560   5.053  13.592   0.085
92910SOL     OW80561  14.466  12.617   1.254
92910SOL    HW180562  14.532  12.590   1.317
92910SOL    HW280563  14.390  12.640   1.307
92911SOL     OW80564   1.999   2.257  11.512
92911SOL    HW180565   2.017   2.184  11.572
92911SOL    HW280566   2.075   2.314  11.521
92912SOL     OW80567  10.468  11.102   1.012
92912SOL    HW180568  10.420  11.176   0.976
92912SOL    HW280569  10.533  11.081   0.944
92913SOL     OW80570   9.212   8.844  13.450
92913SOL    HW180571   9.201   8.777  13.518
92913SOL    HW280572   9.126   8.883  13.440
92914SOL     OW80573  11.019   2.662   2.300
92914SOL    HW180574  10.931   2.664   2.337
92914SOL    HW280575  11.007   2.687   2.208
92915SOL     OW80576  12.417   8.882   9.124
92915SOL    HW180577  12.461   8.799   9.141
92915SOL    HW280578  12.452   8.912   9.041
92916SOL     OW80579   2.716   2.653  12.382
92916SOL    HW180580   2.636   2.622  12.425
92916SOL    HW280581   2.687   2.681  12.295
92917SOL     OW80582   2.907  10.521  14.203
92917SOL    HW180583   2.953  10.535  14.286
92917SOL    HW280584   2.906  10.607  14.162
92918SOL     OW80585  12.595   5.239   0.345
92918SOL    HW180586  12.674   5.199   0.382
92918SOL    HW280587  12.615   5.332   0.339
92919SOL     OW80588  13.301  13.997   2.398
92919SOL    HW180589  13.351  14.052   2.458
92919SOL    HW280590  13.342  14.010   2.313
92920SOL     OW80591  13.755   8.783  14.354
92920SOL    HW180592  13.766   8.750  14.265
92920SOL    HW280593  13.842   8.776  14.393
92921SOL     OW80594   7.251   3.669   7.531
92921SOL    HW180595   7.250   3.694   7.623
92921SOL    HW280596   7.166   3.696   7.497
92922SOL     OW80597   4.900  14.466  13.601
92922SOL    HW180598   4.860  14.527  13.539
92922SOL    HW280599   4.826  14.411  13.631
92923SOL     OW80600   5.845  11.491  12.877
92923SOL    HW180601   5.841  11.542  12.796
92923SOL    HW280602   5.931  11.450  12.876
92924SOL     OW80603  13.483   7.240   4.408
92924SOL    HW180604  13.521   7.325   4.428
92924SOL    HW280605  13.403   7.260   4.359
92925SOL     OW80606   8.126   0.321   9.206
92925SOL    HW180607   8.119   0.238   9.253
92925SOL    HW280608   8.092   0.303   9.119
92926SOL     OW80609   0.211   7.427  14.027
92926SOL    HW180610   0.183   7.358  13.966
92926SOL    HW280611   0.288   7.466  13.986
92927SOL     OW80612   8.036  11.511   7.835
92927SOL    HW180613   8.002  11.422   7.830
92927SOL    HW280614   7.963  11.566   7.806
92928SOL     OW80615   5.843  11.182  12.633
92928SOL    HW180616   5.759  11.220  12.662
92928SOL    HW280617   5.877  11.246  12.570
92929SOL     OW80618   3.156   4.738   2.560
92929SOL    HW180619   3.152   4.726   2.655
92929SOL    HW280620   3.184   4.653   2.527
92930SOL     OW80621   6.630   8.660   8.827
92930SOL    HW180622   6.606   8.626   8.913
92930SOL    HW280623   6.641   8.582   8.772
92931SOL     OW80624   6.430   7.369   7.808
92931SOL    HW180625   6.487   7.420   7.865
92931SOL    HW280626   6.427   7.419   7.726
92932SOL     OW80627   6.903   0.492   2.462
92932SOL    HW180628   6.932   0.446   2.383
92932SOL    HW280629   6.965   0.463   2.530
92933SOL     OW80630  11.512  11.708  13.077
92933SOL    HW180631  11.573  11.726  13.005
92933SOL    HW280632  11.556  11.742  13.155
92934SOL     OW80633  12.189   9.743  14.786
92934SOL    HW180634  12.246   9.677  14.747
92934SOL    HW280635  12.188   9.722   0.007
92935SOL     OW80636  11.296   9.533  10.077
92935SOL    HW180637  11.365   9.492  10.025
92935SOL    HW280638  11.337   9.611  10.114
92936SOL     OW80639   4.964  11.905   2.630
92936SOL    HW180640   4.993  11.877   2.717
92936SOL    HW280641   5.042  11.942   2.589
92937SOL     OW80642   7.898   2.634   8.332
92937SOL    HW180643   7.909   2.664   8.242
92937SOL    HW280644   7.822   2.575   8.328
92938SOL     OW80645   9.501  12.624  14.103
92938SOL    HW180646   9.422  12.570  14.103
92938SOL    HW280647   9.533  12.618  14.013
92939SOL     OW80648   4.529  10.899  11.377
92939SOL    HW180649   4.536  10.986  11.337
92939SOL    HW280650   4.445  10.866  11.347
92940SOL     OW80651   9.394   0.134  12.573
92940SOL    HW180652   9.457   0.150  12.644
92940SOL    HW280653   9.331   0.072  12.611
92941SOL     OW80654  11.905  14.253   8.564
92941SOL    HW180655  11.853  14.173   8.564
92941SOL    HW280656  11.915  14.275   8.657
92942SOL     OW80657   8.916  10.375  14.746
92942SOL    HW180658   8.952  10.296  14.705
92942SOL    HW280659   8.967  10.447  14.709
92943SOL     OW80660  11.220   4.996   4.155
92943SOL    HW180661  11.190   5.006   4.065
92943SOL    HW280662  11.195   4.907   4.179
92944SOL     OW80663  10.906  14.748  10.015
92944SOL    HW180664  11.000  14.763  10.016
92944SOL    HW280665  10.893  14.669  10.067
92945SOL     OW80666   0.544   8.600   0.613
92945SOL    HW180667   0.485   8.674   0.630
92945SOL    HW280668   0.545   8.550   0.694
92946SOL     OW80669   6.760   7.538   0.437
92946SOL    HW180670   6.737   7.569   0.349
92946SOL    HW280671   6.688   7.480   0.461
92947SOL     OW80672   2.637   3.105  14.176
92947SOL    HW180673   2.634   3.009  14.183
92947SOL    HW280674   2.707   3.131  14.235
92948SOL     OW80675   3.068   2.945   2.358
92948SOL    HW180676   3.135   2.891   2.315
92948SOL    HW280677   3.045   2.895   2.437
92949SOL     OW80678   7.362  12.676  10.209
92949SOL    HW180679   7.317  12.672  10.125
92949SOL    HW280680   7.452  12.648  10.190
92950SOL     OW80681   7.877  10.859   9.074
92950SOL    HW180682   7.952  10.909   9.107
92950SOL    HW280683   7.903  10.829   8.988
92951SOL     OW80684  12.576  10.078   5.025
92951SOL    HW180685  12.537  10.166   5.025
92951SOL    HW280686  12.665  10.092   5.056
92952SOL     OW80687   7.265  13.461   9.702
92952SOL    HW180688   7.301  13.545   9.732
92952SOL    HW280689   7.294  13.398   9.767
92953SOL     OW80690  10.614  13.221  10.832
92953SOL    HW180691  10.527  13.186  10.850
92953SOL    HW280692  10.642  13.260  10.915
92954SOL     OW80693   9.601   2.985   9.742
92954SOL    HW180694   9.630   2.992   9.833
92954SOL    HW280695   9.645   3.058   9.698
92955SOL     OW80696   9.966   5.734   5.037
92955SOL    HW180697   9.919   5.724   5.120
92955SOL    HW280698  10.014   5.651   5.027
92956SOL     OW80699  12.844  11.940   5.730
92956SOL    HW180700  12.795  11.948   5.648
92956SOL    HW280701  12.778  11.955   5.798
92957SOL     OW80702   0.209   0.275  13.127
92957SOL    HW180703   0.142   0.340  13.149
92957SOL    HW280704   0.193   0.255  13.035
92958SOL     OW80705   0.592   9.826   9.323
92958SOL    HW180706   0.550   9.839   9.408
92958SOL    HW280707   0.524   9.785   9.269
92959SOL     OW80708  10.461   6.698   0.193
92959SOL    HW180709  10.513   6.634   0.241
92959SOL    HW280710  10.496   6.783   0.221
92960SOL     OW80711   0.489   2.981   2.253
92960SOL    HW180712   0.412   2.929   2.274
92960SOL    HW280713   0.488   2.988   2.158
92961SOL     OW80714  14.696   1.934   3.579
92961SOL    HW180715  14.790   1.953   3.569
92961SOL    HW280716  14.678   1.951   3.672
92962SOL     OW80717   2.673   2.038   0.577
92962SOL    HW180718   2.714   1.956   0.604
92962SOL    HW280719   2.734   2.077   0.515
92963SOL     OW80720   0.531   2.527   5.136
92963SOL    HW180721   0.529   2.477   5.054
92963SOL    HW280722   0.456   2.585   5.130
92964SOL     OW80723   8.783  13.761   0.736
92964SOL    HW180724   8.841  13.692   0.706
92964SOL    HW280725   8.696  13.722   0.737
92965SOL     OW80726  14.662  12.629   1.486
92965SOL    HW180727  14.597  12.699   1.493
92965SOL    HW280728  14.732  12.655   1.546
92966SOL     OW80729   2.700   3.259  10.490
92966SOL    HW180730   2.739   3.175  10.466
92966SOL    HW280731   2.606   3.245  10.478
92967SOL     OW80732   8.515   9.318   7.138
92967SOL    HW180733   8.600   9.361   7.139
92967SOL    HW280734   8.526   9.245   7.077
92968SOL     OW80735   2.910   5.549  11.862
92968SOL    HW180736   2.887   5.456  11.867
92968SOL    HW280737   2.936   5.563  11.771
92969SOL     OW80738  11.880  13.019   9.925
92969SOL    HW180739  11.908  13.107   9.901
92969SOL    HW280740  11.785  13.021   9.918
92970SOL     OW80741   9.199   8.109   7.022
92970SOL    HW180742   9.259   8.173   7.061
92970SOL    HW280743   9.168   8.151   6.942
92971SOL     OW80744   3.146  10.511   3.566
92971SOL    HW180745   3.115  10.440   3.622
92971SOL    HW280746   3.229  10.479   3.531
92972SOL     OW80747   6.301   4.390   7.659
92972SOL    HW180748   6.211   4.404   7.628
92972SOL    HW280749   6.314   4.457   7.726
92973SOL     OW80750   6.411  12.084  12.900
92973SOL    HW180751   6.431  12.036  12.819
92973SOL    HW280752   6.407  12.016  12.968
92974SOL     OW80753   3.849   4.174   6.451
92974SOL    HW180754   3.843   4.264   6.484
92974SOL    HW280755   3.857   4.184   6.356
92975SOL     OW80756  13.856  14.609   5.713
92975SOL    HW180757  13.764  14.633   5.705
92975SOL    HW280758  13.886  14.655   5.791
92976SOL     OW80759   2.427   5.991  14.871
92976SOL    HW180760   2.385   6.076   0.007
92976SOL    HW280761   2.355   5.930  14.857
92977SOL     OW80762  12.367   4.597   0.797
92977SOL    HW180763  12.323   4.526   0.751
92977SOL    HW280764  12.449   4.609   0.749
92978SOL     OW80765   1.704   6.941   1.820
92978SOL    HW180766   1.736   7.016   1.771
92978SOL    HW280767   1.771   6.924   1.886
92979SOL     OW80768   2.765   4.134   9.778
92979SOL    HW180769   2.807   4.123   9.692
92979SOL    HW280770   2.678   4.097   9.766
92980SOL     OW80771  11.062   7.388   4.297
92980SOL    HW180772  11.107   7.453   4.352
92980SOL    HW280773  11.105   7.396   4.211
92981SOL     OW80774   4.923   3.424  11.959
92981SOL    HW180775   5.005   3.404  12.003
92981SOL    HW280776   4.949   3.441  11.868
92982SOL     OW80777   9.562   3.093   9.387
92982SOL    HW180778   9.597   3.145   9.459
92982SOL    HW280779   9.634   3.085   9.325
92983SOL     OW80780   8.959   2.732  12.577
92983SOL    HW180781   8.963   2.663  12.643
92983SOL    HW280782   9.025   2.707  12.512
92984SOL     OW80783   3.605   8.976   6.424
92984SOL    HW180784   3.589   8.992   6.517
92984SOL    HW280785   3.699   8.990   6.413
92985SOL     OW80786   0.481   4.135   2.434
92985SOL    HW180787   0.434   4.054   2.453
92985SOL    HW280788   0.568   4.122   2.470
92986SOL     OW80789   8.560  11.039  12.514
92986SOL    HW180790   8.615  11.099  12.464
92986SOL    HW280791   8.516  10.986  12.447
92987SOL     OW80792  13.056  14.226  13.620
92987SOL    HW180793  13.094  14.152  13.573
92987SOL    HW280794  12.962  14.206  13.623
92988SOL     OW80795   9.688   8.410   5.361
92988SOL    HW180796   9.782   8.403   5.348
92988SOL    HW280797   9.668   8.341   5.425
92989SOL     OW80798   3.155  10.456   9.925
92989SOL    HW180799   3.109  10.398   9.986
92989SOL    HW280800   3.244  10.421   9.922
92990SOL     OW80801   4.680   5.278   7.845
92990SOL    HW180802   4.753   5.337   7.828
92990SOL    HW280803   4.658   5.242   7.759
92991SOL     OW80804   5.743   3.571   7.186
92991SOL    HW180805   5.722   3.662   7.164
92991SOL    HW280806   5.720   3.521   7.107
92992SOL     OW80807  12.674  10.385   1.222
92992SOL    HW180808  12.713  10.472   1.217
92992SOL    HW280809  12.632  10.382   1.308
92993SOL     OW80810  10.289  10.017   9.582
92993SOL    HW180811  10.363  10.018   9.521
92993SOL    HW280812  10.300  10.096   9.634
92994SOL     OW80813   9.062  11.028   2.574
92994SOL    HW180814   9.088  10.982   2.654
92994SOL    HW280815   9.034  11.115   2.605
92995SOL     OW80816   3.794  13.547   0.264
92995SOL    HW180817   3.838  13.622   0.223
92995SOL    HW280818   3.745  13.506   0.192
92996SOL     OW80819   9.035   6.998   9.179
92996SOL    HW180820   8.968   6.978   9.244
92996SOL    HW280821   9.087   6.918   9.172
92997SOL     OW80822   1.159  13.304   9.681
92997SOL    HW180823   1.172  13.227   9.625
92997SOL    HW280824   1.189  13.276   9.767
92998SOL     OW80825   2.792  11.210  12.346
92998SOL    HW180826   2.869  11.236  12.398
92998SOL    HW280827   2.786  11.277  12.278
92999SOL     OW80828  13.057   7.773   3.766
92999SOL    HW180829  13.008   7.744   3.843
92999SOL    HW280830  13.009   7.849   3.734
93000SOL     OW80831   8.029   8.159   5.249
93000SOL    HW180832   7.943   8.143   5.208
93000SOL    HW280833   8.073   8.075   5.247
93001SOL     OW80834   4.812   1.054   5.244
93001SOL    HW180835   4.722   1.087   5.250
93001SOL    HW280836   4.812   0.976   5.301
93002SOL     OW80837  10.121  11.660   5.637
93002SOL    HW180838  10.127  11.749   5.673
93002SOL    HW280839  10.076  11.610   5.704
93003SOL     OW80840   2.050  11.470   4.995
93003SOL    HW180841   2.116  11.529   5.032
93003SOL    HW280842   2.075  11.460   4.904
93004SOL     OW80843   3.480  11.230   2.836
93004SOL    HW180844   3.408  11.184   2.878
93004SOL    HW280845   3.558  11.199   2.881
93005SOL     OW80846   8.721   2.514   9.159
93005SOL    HW180847   8.753   2.589   9.208
93005SOL    HW280848   8.661   2.469   9.219
93006SOL     OW80849   8.301   7.228  12.314
93006SOL    HW180850   8.320   7.270  12.230
93006SOL    HW280851   8.381   7.180  12.335
93007SOL     OW80852  12.311  12.816  13.028
93007SOL    HW180853  12.229  12.864  13.041
93007SOL    HW280854  12.321  12.764  13.108
93008SOL     OW80855   8.186  13.440   0.936
93008SOL    HW180856   8.236  13.511   0.896
93008SOL    HW280857   8.096  13.454   0.907
93009SOL     OW80858   1.766  11.834   6.487
93009SOL    HW180859   1.824  11.758   6.473
93009SOL    HW280860   1.816  11.908   6.453
93010SOL     OW80861  11.257  10.475  12.601
93010SOL    HW180862  11.196  10.408  12.630
93010SOL    HW280863  11.257  10.469  12.505
93011SOL     OW80864   7.503   6.023   3.898
93011SOL    HW180865   7.410   5.999   3.905
93011SOL    HW280866   7.549   5.953   3.945
93012SOL     OW80867   5.653  12.164   3.506
93012SOL    HW180868   5.679  12.080   3.469
93012SOL    HW280869   5.668  12.154   3.601
93013SOL     OW80870   3.127   1.508   2.850
93013SOL    HW180871   3.076   1.581   2.816
93013SOL    HW280872   3.168   1.542   2.929
93014SOL     OW80873   4.960   2.205   9.275
93014SOL    HW180874   5.044   2.201   9.321
93014SOL    HW280875   4.959   2.127   9.220
93015SOL     OW80876  11.181   1.214  13.590
93015SOL    HW180877  11.227   1.150  13.535
93015SOL    HW280878  11.213   1.299  13.558
93016SOL     OW80879  14.548   4.285   3.977
93016SOL    HW180880  14.456   4.259   3.969
93016SOL    HW280881  14.585   4.264   3.891
93017SOL     OW80882   4.201   7.991   4.232
93017SOL    HW180883   4.282   8.025   4.192
93017SOL    HW280884   4.195   7.901   4.198
93018SOL     OW80885   9.046   1.343   1.457
93018SOL    HW180886   9.024   1.350   1.364
93018SOL    HW280887   9.057   1.434   1.485
93019SOL     OW80888   3.947   1.861   0.978
93019SOL    HW180889   3.967   1.774   1.012
93019SOL    HW280890   3.868   1.889   1.025
93020SOL     OW80891   3.118   1.154   9.644
93020SOL    HW180892   3.158   1.216   9.584
93020SOL    HW280893   3.124   1.070   9.599
93021SOL     OW80894   5.904  11.576   8.393
93021SOL    HW180895   5.906  11.484   8.364
93021SOL    HW280896   5.813  11.603   8.378
93022SOL     OW80897  11.476   2.820   8.759
93022SOL    HW180898  11.395   2.790   8.718
93022SOL    HW280899  11.538   2.830   8.687
93023SOL     OW80900   0.111  10.659   1.852
93023SOL    HW180901   0.110  10.576   1.901
93023SOL    HW280902   0.184  10.650   1.791
93024SOL     OW80903   3.070   9.096  14.869
93024SOL    HW180904   3.057   9.127   0.086
93024SOL    HW280905   3.065   9.175  14.815
93025SOL     OW80906  13.392  13.418   7.974
93025SOL    HW180907  13.357  13.438   8.061
93025SOL    HW280908  13.337  13.346   7.942
93026SOL     OW80909  12.207   1.912   2.970
93026SOL    HW180910  12.228   1.871   2.886
93026SOL    HW280911  12.232   1.846   3.035
93027SOL     OW80912  12.063   2.315   3.990
93027SOL    HW180913  12.009   2.370   4.047
93027SOL    HW280914  12.021   2.323   3.904
93028SOL     OW80915  13.298  10.474  12.967
93028SOL    HW180916  13.392  10.490  12.962
93028SOL    HW280917  13.284  10.444  13.057
93029SOL     OW80918   9.913  14.743  11.593
93029SOL    HW180919   9.989  14.736  11.535
93029SOL    HW280920   9.944  14.796  11.666
93030SOL     OW80921  13.738  13.707   8.063
93030SOL    HW180922  13.727  13.787   8.115
93030SOL    HW280923  13.800  13.732   7.994
93031SOL     OW80924   0.243   9.171  14.642
93031SOL    HW180925   0.264   9.112  14.570
93031SOL    HW280926   0.325   9.181  14.690
93032SOL     OW80927  14.357   9.348   1.239
93032SOL    HW180928  14.303   9.321   1.314
93032SOL    HW280929  14.432   9.391   1.279
93033SOL     OW80930  14.565   9.726   1.965
93033SOL    HW180931  14.546   9.633   1.967
93033SOL    HW280932  14.634   9.735   1.899
93034SOL     OW80933  11.389  13.706  14.598
93034SOL    HW180934  11.439  13.787  14.607
93034SOL    HW280935  11.433  13.644  14.656
93035SOL     OW80936   4.907   2.374   3.832
93035SOL    HW180937   4.951   2.394   3.749
93035SOL    HW280938   4.814   2.381   3.812
93036SOL     OW80939   4.893   5.673  12.681
93036SOL    HW180940   4.934   5.699  12.599
93036SOL    HW280941   4.887   5.577  12.675
93037SOL     OW80942  12.615   9.925   9.252
93037SOL    HW180943  12.597   9.919   9.345
93037SOL    HW280944  12.698   9.878   9.240
93038SOL     OW80945  12.112  14.456  12.362
93038SOL    HW180946  12.125  14.486  12.452
93038SOL    HW280947  12.201  14.438  12.330
93039SOL     OW80948   6.804  11.502   7.290
93039SOL    HW180949   6.899  11.510   7.298
93039SOL    HW280950   6.788  11.409   7.274
93040SOL     OW80951   3.973  13.553  14.046
93040SOL    HW180952   3.948  13.618  13.981
93040SOL    HW280953   4.058  13.521  14.015
93041SOL     OW80954   2.147   8.720  10.434
93041SOL    HW180955   2.103   8.782  10.492
93041SOL    HW280956   2.238   8.748  10.433
93042SOL     OW80957   2.846  13.294   9.704
93042SOL    HW180958   2.782  13.365   9.697
93042SOL    HW280959   2.930  13.337   9.694
93043SOL     OW80960   2.319  10.429   1.793
93043SOL    HW180961   2.227  10.440   1.816
93043SOL    HW280962   2.349  10.517   1.771
93044SOL     OW80963   0.238   1.105   7.807
93044SOL    HW180964   0.216   1.180   7.862
93044SOL    HW280965   0.320   1.131   7.763
93045SOL     OW80966  14.433   9.281  11.459
93045SOL    HW180967  14.488   9.346  11.417
93045SOL    HW280968  14.394   9.326  11.534
93046SOL     OW80969   7.680   2.581  10.992
93046SOL    HW180970   7.716   2.620  11.071
93046SOL    HW280971   7.744   2.515  10.966
93047SOL     OW80972  11.350  13.974   3.646
93047SOL    HW180973  11.421  13.942   3.590
93047SOL    HW280974  11.353  14.069   3.637
93048SOL     OW80975  14.064   1.548   7.241
93048SOL    HW180976  14.139   1.494   7.267
93048SOL    HW280977  14.060   1.539   7.146
93049SOL     OW80978   6.006   9.236   8.316
93049SOL    HW180979   5.951   9.298   8.365
93049SOL    HW280980   6.092   9.278   8.312
93050SOL     OW80981   7.003   4.380   3.993
93050SOL    HW180982   6.967   4.292   4.003
93050SOL    HW280983   7.098   4.366   3.987
93051SOL     OW80984   0.262   3.745   9.685
93051SOL    HW180985   0.323   3.738   9.612
93051SOL    HW280986   0.180   3.774   9.646
93052SOL     OW80987   7.419   3.208  14.351
93052SOL    HW180988   7.328   3.203  14.322
93052SOL    HW280989   7.437   3.122  14.389
93053SOL     OW80990   3.717  14.864  14.812
93053SOL    HW180991   3.635  14.828  14.779
93053SOL    HW280992   3.691   0.065  14.868
93054SOL     OW80993  11.354   6.565  12.605
93054SOL    HW180994  11.436   6.537  12.565
93054SOL    HW280995  11.379   6.636  12.664
93055SOL     OW80996   3.862   7.509   9.565
93055SOL    HW180997   3.788   7.503   9.504
93055SOL    HW280998   3.939   7.488   9.512
93056SOL     OW80999   7.470   9.096  13.392
93056SOL    HW181000   7.425   9.106  13.308
93056SOL    HW281001   7.437   9.168  13.446
93057SOL     OW81002   9.310   9.512  14.534
93057SOL    HW181003   9.298   9.551  14.448
93057SOL    HW281004   9.405   9.504  14.545
93058SOL     OW81005   0.509   3.619   7.619
93058SOL    HW181006   0.475   3.603   7.707
93058SOL    HW281007   0.436   3.659   7.572
93059SOL     OW81008   4.050   6.205   9.668
93059SOL    HW181009   3.959   6.231   9.655
93059SOL    HW281010   4.047   6.109   9.671
93060SOL     OW81011   5.410   5.555   4.320
93060SOL    HW181012   5.464   5.605   4.259
93060SOL    HW281013   5.471   5.493   4.361
93061SOL     OW81014   4.575   9.450   3.794
93061SOL    HW181015   4.624   9.498   3.727
93061SOL    HW281016   4.550   9.368   3.752
93062SOL     OW81017   3.273   2.331   3.501
93062SOL    HW181018   3.342   2.280   3.459
93062SOL    HW281019   3.220   2.267   3.548
93063SOL     OW81020   4.780   2.389  13.500
93063SOL    HW181021   4.703   2.431  13.462
93063SOL    HW281022   4.763   2.386  13.594
93064SOL     OW81023  10.338   4.272   0.058
93064SOL    HW181024  10.266   4.308   0.109
93064SOL    HW281025  10.416   4.288   0.112
93065SOL     OW81026   9.131   3.108  10.853
93065SOL    HW181027   9.193   3.042  10.821
93065SOL    HW281028   9.158   3.189  10.810
93066SOL     OW81029   0.083   2.603  13.542
93066SOL    HW181030   0.099   2.650  13.460
93066SOL    HW281031   0.130   2.653  13.608
93067SOL     OW81032   2.773  13.433  14.036
93067SOL    HW181033   2.712  13.360  14.040
93067SOL    HW281034   2.719  13.509  14.013
93068SOL     OW81035   7.089   4.107   3.158
93068SOL    HW181036   7.101   4.039   3.092
93068SOL    HW281037   7.096   4.189   3.110
93069SOL     OW81038  12.961   0.030   7.437
93069SOL    HW181039  13.052   0.021   7.465
93069SOL    HW281040  12.949  14.834   7.372
93070SOL     OW81041  13.222   9.699  13.220
93070SOL    HW181042  13.277   9.638  13.170
93070SOL    HW281043  13.133   9.666  13.208
93071SOL     OW81044   6.486   0.434   2.725
93071SOL    HW181045   6.487   0.338   2.735
93071SOL    HW281046   6.569   0.462   2.762
93072SOL     OW81047  11.498  12.771   0.840
93072SOL    HW181048  11.592  12.773   0.858
93072SOL    HW281049  11.493  12.763   0.745
93073SOL     OW81050   1.270  12.739   3.043
93073SOL    HW181051   1.352  12.787   3.052
93073SOL    HW281052   1.275  12.671   3.110
93074SOL     OW81053   2.571  13.989  11.665
93074SOL    HW181054   2.643  14.015  11.608
93074SOL    HW281055   2.529  13.916  11.619
93075SOL     OW81056  13.250   7.869  14.330
93075SOL    HW181057  13.251   7.940  14.266
93075SOL    HW281058  13.275   7.911  14.412
93076SOL     OW81059   5.720   1.256   2.261
93076SOL    HW181060   5.657   1.307   2.209
93076SOL    HW281061   5.682   1.253   2.349
93077SOL     OW81062   7.429   4.947   8.751
93077SOL    HW181063   7.449   4.976   8.839
93077SOL    HW281064   7.362   5.008   8.720
93078SOL     OW81065   8.932  10.899   3.726
93078SOL    HW181066   8.861  10.904   3.662
93078SOL    HW281067   9.012  10.890   3.673
93079SOL     OW81068   4.635  12.456  13.883
93079SOL    HW181069   4.571  12.402  13.836
93079SOL    HW281070   4.669  12.516  13.816
93080SOL     OW81071   4.218  12.865  11.477
93080SOL    HW181072   4.260  12.822  11.552
93080SOL    HW281073   4.258  12.824  11.400
93081SOL     OW81074   8.174  11.372   6.429
93081SOL    HW181075   8.154  11.394   6.519
93081SOL    HW281076   8.238  11.438   6.401
93082SOL     OW81077   5.647   0.651   0.013
93082SOL    HW181078   5.624   0.569  14.841
93082SOL    HW281079   5.646   0.629   0.106
93083SOL     OW81080   7.028  13.254   0.378
93083SOL    HW181081   7.103  13.224   0.326
93083SOL    HW281082   7.000  13.176   0.426
93084SOL     OW81083   2.127   4.137   5.006
93084SOL    HW181084   2.105   4.182   5.087
93084SOL    HW281085   2.200   4.080   5.029
93085SOL     OW81086   5.332   0.670   2.660
93085SOL    HW181087   5.333   0.585   2.617
93085SOL    HW281088   5.269   0.722   2.610
93086SOL     OW81089   4.944   1.234   2.845
93086SOL    HW181090   4.876   1.301   2.851
93086SOL    HW281091   5.026   1.282   2.850
93087SOL     OW81092  14.858   5.563   9.339
93087SOL    HW181093   0.008   5.655   9.330
93087SOL    HW281094   0.042   5.518   9.276
93088SOL     OW81095   7.617   8.423   7.171
93088SOL    HW181096   7.656   8.339   7.145
93088SOL    HW281097   7.689   8.485   7.165
93089SOL     OW81098  10.337   3.210   9.756
93089SOL    HW181099  10.252   3.168   9.747
93089SOL    HW281100  10.324   3.275   9.825
93090SOL     OW81101   4.011   0.510   5.419
93090SOL    HW181102   4.028   0.563   5.342
93090SOL    HW281103   4.094   0.506   5.465
93091SOL     OW81104   3.002   7.082   4.903
93091SOL    HW181105   2.946   7.126   4.968
93091SOL    HW281106   2.973   6.991   4.904
93092SOL     OW81107  13.189  10.028  14.382
93092SOL    HW181108  13.113  10.058  14.332
93092SOL    HW281109  13.213   9.945  14.342
93093SOL     OW81110  11.897   3.726   4.369
93093SOL    HW181111  11.956   3.682   4.431
93093SOL    HW281112  11.897   3.818   4.397
93094SOL     OW81113  10.096   0.634   3.871
93094SOL    HW181114  10.165   0.634   3.937
93094SOL    HW281115  10.025   0.584   3.911
93095SOL     OW81116  13.154   9.871   5.613
93095SOL    HW181117  13.217   9.925   5.661
93095SOL    HW281118  13.208   9.808   5.565
93096SOL     OW81119   6.712   9.445   6.342
93096SOL    HW181120   6.733   9.534   6.314
93096SOL    HW281121   6.645   9.416   6.279
93097SOL     OW81122   7.411   1.099   3.627
93097SOL    HW181123   7.494   1.140   3.653
93097SOL    HW281124   7.352   1.115   3.701
93098SOL     OW81125   8.055  10.521   8.479
93098SOL    HW181126   8.135  10.565   8.506
93098SOL    HW281127   8.050  10.443   8.535
93099SOL     OW81128   7.001  11.966  13.474
93099SOL    HW181129   6.953  11.928  13.400
93099SOL    HW281130   7.083  11.997  13.436
93100SOL     OW81131  11.506   5.228   3.654
93100SOL    HW181132  11.518   5.180   3.735
93100SOL    HW281133  11.431   5.285   3.670
93101SOL     OW81134   9.308   2.725   4.739
93101SOL    HW181135   9.221   2.724   4.699
93101SOL    HW281136   9.292   2.721   4.833
93102SOL     OW81137   1.304  12.580   1.535
93102SOL    HW181138   1.225  12.609   1.489
93102SOL    HW281139   1.297  12.485   1.536
93103SOL     OW81140   1.419  10.800   2.848
93103SOL    HW181141   1.383  10.879   2.890
93103SOL    HW281142   1.385  10.728   2.900
93104SOL     OW81143  14.279   9.441   8.119
93104SOL    HW181144  14.224   9.447   8.197
93104SOL    HW281145  14.269   9.526   8.076
93105SOL     OW81146  14.752   9.319  14.034
93105SOL    HW181147  14.672   9.278  14.068
93105SOL    HW281148  14.722   9.400  13.993
93106SOL     OW81149  14.678  13.246   0.593
93106SOL    HW181150  14.627  13.323   0.618
93106SOL    HW281151  14.723  13.221   0.673
93107SOL     OW81152   1.119  10.019  11.852
93107SOL    HW181153   1.147  10.095  11.800
93107SOL    HW281154   1.186  10.012  11.921
93108SOL     OW81155  11.558  10.811  13.323
93108SOL    HW181156  11.471  10.780  13.298
93108SOL    HW281157  11.589  10.748  13.388
93109SOL     OW81158   6.423   7.165   4.247
93109SOL    HW181159   6.338   7.124   4.233
93109SOL    HW281160   6.466   7.162   4.162
93110SOL     OW81161   8.140   7.823  10.547
93110SOL    HW181162   8.189   7.879  10.486
93110SOL    HW281163   8.110   7.750  10.493
93111SOL     OW81164  13.171   4.319   5.173
93111SOL    HW181165  13.162   4.342   5.080
93111SOL    HW281166  13.115   4.382   5.219
93112SOL     OW81167  10.216   4.875   4.556
93112SOL    HW181168  10.280   4.818   4.599
93112SOL    HW281169  10.164   4.816   4.502
93113SOL     OW81170   2.012  14.538   2.544
93113SOL    HW181171   1.992  14.461   2.597
93113SOL    HW281172   1.980  14.612   2.595
93114SOL     OW81173  10.159   6.808   5.131
93114SOL    HW181174  10.151   6.872   5.059
93114SOL    HW281175  10.172   6.724   5.086
93115SOL     OW81176  12.542   7.208   5.950
93115SOL    HW181177  12.590   7.150   5.890
93115SOL    HW281178  12.483   7.258   5.893
93116SOL     OW81179   9.792   6.518  13.652
93116SOL    HW181180   9.840   6.488  13.730
93116SOL    HW281181   9.761   6.606  13.675
93117SOL     OW81182  11.156   8.087   4.580
93117SOL    HW181183  11.164   7.993   4.591
93117SOL    HW281184  11.228   8.124   4.632
93118SOL     OW81185   5.188   1.330   2.375
93118SOL    HW181186   5.158   1.352   2.463
93118SOL    HW281187   5.281   1.353   2.374
93119SOL     OW81188  12.712   8.212   0.451
93119SOL    HW181189  12.710   8.307   0.438
93119SOL    HW281190  12.708   8.201   0.546
93120SOL     OW81191   1.727  10.117   6.311
93120SOL    HW181192   1.698  10.136   6.401
93120SOL    HW281193   1.700  10.194   6.261
93121SOL     OW81194   8.910  11.253  14.207
93121SOL    HW181195   8.949  11.305  14.278
93121SOL    HW281196   8.958  11.278  14.129
93122SOL     OW81197   8.208   8.998  11.585
93122SOL    HW181198   8.123   9.010  11.627
93122SOL    HW281199   8.208   8.907  11.555
93123SOL     OW81200   0.870   5.603   8.353
93123SOL    HW181201   0.873   5.508   8.361
93123SOL    HW281202   0.959   5.632   8.373
93124SOL     OW81203   0.981   7.687  11.119
93124SOL    HW181204   0.929   7.677  11.199
93124SOL    HW281205   0.960   7.775  11.088
93125SOL     OW81206  13.584  10.321  12.965
93125SOL    HW181207  13.596  10.227  12.977
93125SOL    HW281208  13.637  10.361  13.034
93126SOL     OW81209   3.599  10.067   7.161
93126SOL    HW181210   3.540  10.143   7.168
93126SOL    HW281211   3.643  10.063   7.246
93127SOL     OW81212   6.396   3.464   0.789
93127SOL    HW181213   6.336   3.464   0.714
93127SOL    HW281214   6.364   3.537   0.844
93128SOL     OW81215   5.020  10.319   9.180
93128SOL    HW181216   5.062  10.237   9.206
93128SOL    HW281217   5.083  10.360   9.120
93129SOL     OW81218  12.162  13.748  14.107
93129SOL    HW181219  12.233  13.693  14.141
93129SOL    HW281220  12.191  13.837  14.125
93130SOL     OW81221  13.346   3.526   2.576
93130SOL    HW181222  13.304   3.441   2.577
93130SOL    HW281223  13.302   3.575   2.506
93131SOL     OW81224   6.875  13.584   3.597
93131SOL    HW181225   6.792  13.570   3.643
93131SOL    HW281226   6.935  13.520   3.635
93132SOL     OW81227  14.483   9.627   5.304
93132SOL    HW181228  14.392   9.620   5.273
93132SOL    HW281229  14.530   9.560   5.255
93133SOL     OW81230   7.535  10.401  12.450
93133SOL    HW181231   7.439  10.406  12.454
93133SOL    HW281232   7.562  10.482  12.406
93134SOL     OW81233   2.572  11.228   4.565
93134SOL    HW181234   2.653  11.202   4.522
93134SOL    HW281235   2.539  11.148   4.605
93135SOL     OW81236  14.453   3.377   2.807
93135SOL    HW181237  14.462   3.469   2.781
93135SOL    HW281238  14.458   3.328   2.726
93136SOL     OW81239   9.342   2.877   1.263
93136SOL    HW181240   9.321   2.792   1.302
93136SOL    HW281241   9.391   2.855   1.184
93137SOL     OW81242   3.781  13.529   9.176
93137SOL    HW181243   3.838  13.569   9.241
93137SOL    HW281244   3.782  13.590   9.102
93138SOL     OW81245   6.474  10.016  13.549
93138SOL    HW181246   6.519  10.072  13.612
93138SOL    HW281247   6.543   9.957  13.516
93139SOL     OW81248   3.362  13.187  12.284
93139SOL    HW181249   3.372  13.268  12.234
93139SOL    HW281250   3.423  13.196  12.357
93140SOL     OW81251   2.692   7.524   2.461
93140SOL    HW181252   2.703   7.431   2.439
93140SOL    HW281253   2.733   7.533   2.547
93141SOL     OW81254   8.590   6.549   8.428
93141SOL    HW181255   8.613   6.576   8.517
93141SOL    HW281256   8.541   6.468   8.440
93142SOL     OW81257  13.229   5.527   5.666
93142SOL    HW181258  13.145   5.555   5.700
93142SOL    HW281259  13.233   5.433   5.687
93143SOL     OW81260   5.273   9.640   0.098
93143SOL    HW181261   5.190   9.603   0.129
93143SOL    HW281262   5.311   9.571   0.044
93144SOL     OW81263   8.944   8.081  11.106
93144SOL    HW181264   8.880   8.151  11.116
93144SOL    HW281265   8.892   8.005  11.081
93145SOL     OW81266   3.036  12.809  14.377
93145SOL    HW181267   3.081  12.729  14.402
93145SOL    HW281268   3.054  12.818  14.283
93146SOL     OW81269   8.757   2.134   4.996
93146SOL    HW181270   8.822   2.162   5.061
93146SOL    HW281271   8.808   2.116   4.917
93147SOL     OW81272   1.673  13.345  13.312
93147SOL    HW181273   1.697  13.263  13.267
93147SOL    HW281274   1.610  13.386  13.253
93148SOL     OW81275  13.623  11.511   6.286
93148SOL    HW181276  13.568  11.570   6.234
93148SOL    HW281277  13.561  11.448   6.324
93149SOL     OW81278   6.811   5.965   8.955
93149SOL    HW181279   6.750   5.976   9.028
93149SOL    HW281280   6.782   5.886   8.911
93150SOL     OW81281  13.417  12.703   8.848
93150SOL    HW181282  13.416  12.621   8.797
93150SOL    HW281283  13.492  12.751   8.814
93151SOL     OW81284  13.279   7.986  12.909
93151SOL    HW181285  13.292   7.938  12.990
93151SOL    HW281286  13.338   8.062  12.916
93152SOL     OW81287   0.543  13.688  11.599
93152SOL    HW181288   0.570  13.611  11.549
93152SOL    HW281289   0.459  13.664  11.637
93153SOL     OW81290   4.618   5.686   7.262
93153SOL    HW181291   4.549   5.698   7.326
93153SOL    HW281292   4.595   5.744   7.190
93154SOL     OW81293   5.532   3.422   2.498
93154SOL    HW181294   5.475   3.499   2.496
93154SOL    HW281295   5.591   3.437   2.571
93155SOL     OW81296   3.275  11.968  14.526
93155SOL    HW181297   3.301  11.956  14.435
93155SOL    HW281298   3.197  11.913  14.535
93156SOL     OW81299  13.731  11.165   4.294
93156SOL    HW181300  13.715  11.218   4.215
93156SOL    HW281301  13.673  11.203   4.360
93157SOL     OW81302  13.306  11.838  13.252
93157SOL    HW181303  13.265  11.907  13.305
93157SOL    HW281304  13.270  11.851  13.165
93158SOL     OW81305   3.350  13.929  10.266
93158SOL    HW181306   3.310  13.903  10.349
93158SOL    HW281307   3.348  14.025  10.268
93159SOL     OW81308   6.603   7.626   2.309
93159SOL    HW181309   6.613   7.703   2.254
93159SOL    HW281310   6.545   7.654   2.380
93160SOL     OW81311   3.683   9.491  11.828
93160SOL    HW181312   3.724   9.412  11.791
93160SOL    HW281313   3.620   9.458  11.891
93161SOL     OW81314   3.684   3.832  10.763
93161SOL    HW181315   3.725   3.757  10.720
93161SOL    HW281316   3.735   3.907  10.734
93162SOL     OW81317   0.852   0.633   7.522
93162SOL    HW181318   0.782   0.621   7.457
93162SOL    HW281319   0.903   0.552   7.518
93163SOL     OW81320  11.086   9.772   8.825
93163SOL    HW181321  11.100   9.775   8.731
93163SOL    HW281322  11.012   9.712   8.836
93164SOL     OW81323   4.573   8.037  11.667
93164SOL    HW181324   4.607   7.959  11.622
93164SOL    HW281325   4.540   8.093  11.596
93165SOL     OW81326  13.044   7.111   5.943
93165SOL    HW181327  13.087   7.196   5.942
93165SOL    HW281328  12.964   7.125   5.993
93166SOL     OW81329   1.819   9.524   9.531
93166SOL    HW181330   1.781   9.611   9.519
93166SOL    HW281331   1.778   9.490   9.611
93167SOL     OW81332   3.226   9.366   3.614
93167SOL    HW181333   3.305   9.414   3.639
93167SOL    HW281334   3.234   9.281   3.658
93168SOL     OW81335   5.754  10.467  12.981
93168SOL    HW181336   5.743  10.464  13.076
93168SOL    HW281337   5.701  10.542  12.953
93169SOL     OW81338   0.576   6.717  13.724
93169SOL    HW181339   0.644   6.650  13.730
93169SOL    HW281340   0.515   6.683  13.658
93170SOL     OW81341  11.526  10.511  14.202
93170SOL    HW181342  11.582  10.435  14.193
93170SOL    HW281343  11.565  10.562  14.273
93171SOL     OW81344  11.778   2.055   1.366
93171SOL    HW181345  11.730   1.989   1.415
93171SOL    HW281346  11.734   2.138   1.385
93172SOL     OW81347  12.740   2.687  13.498
93172SOL    HW181348  12.697   2.655  13.577
93172SOL    HW281349  12.702   2.774  13.484
93173SOL     OW81350  11.701   3.608   8.384
93173SOL    HW181351  11.629   3.555   8.419
93173SOL    HW281352  11.657   3.670   8.325
93174SOL     OW81353   2.244  11.722   7.697
93174SOL    HW181354   2.215  11.756   7.613
93174SOL    HW281355   2.191  11.643   7.711
93175SOL     OW81356  11.835  10.761   1.892
93175SOL    HW181357  11.838  10.853   1.919
93175SOL    HW281358  11.820  10.713   1.973
93176SOL     OW81359   8.091   5.783   0.741
93176SOL    HW181360   8.035   5.766   0.816
93176SOL    HW281361   8.138   5.863   0.764
93177SOL     OW81362   8.245   8.023   1.374
93177SOL    HW181363   8.299   7.973   1.436
93177SOL    HW281364   8.197   7.957   1.325
93178SOL     OW81365  11.890  10.319   7.921
93178SOL    HW181366  11.903  10.338   7.828
93178SOL    HW281367  11.978  10.297   7.954
93179SOL     OW81368  13.677   6.473   0.410
93179SOL    HW181369  13.635   6.525   0.341
93179SOL    HW281370  13.769   6.472   0.386
93180SOL     OW81371   6.911  11.479  11.928
93180SOL    HW181372   6.973  11.430  11.874
93180SOL    HW281373   6.833  11.486  11.873
93181SOL     OW81374  14.854   2.651   5.874
93181SOL    HW181375  14.851   2.564   5.914
93181SOL    HW281376  14.848   2.712   5.948
93182SOL     OW81377  13.204   4.308   2.977
93182SOL    HW181378  13.272   4.372   2.998
93182SOL    HW281379  13.125   4.344   3.018
93183SOL     OW81380   0.316   3.925   5.557
93183SOL    HW181381   0.268   3.980   5.495
93183SOL    HW281382   0.332   3.844   5.509
93184SOL     OW81383   3.988  11.188   9.153
93184SOL    HW181384   3.976  11.283   9.151
93184SOL    HW281385   4.060  11.174   9.214
93185SOL     OW81386   7.647   9.542   9.175
93185SOL    HW181387   7.599   9.596   9.112
93185SOL    HW281388   7.739   9.564   9.160
93186SOL     OW81389  14.707   1.899  10.338
93186SOL    HW181390  14.700   1.922  10.246
93186SOL    HW281391  14.617   1.899  10.370
93187SOL     OW81392  14.623   8.854   8.566
93187SOL    HW181393  14.618   8.850   8.471
93187SOL    HW281394  14.584   8.938   8.589
93188SOL     OW81395   8.874   6.958   2.390
93188SOL    HW181396   8.966   6.975   2.410
93188SOL    HW281397   8.826   7.019   2.445
93189SOL     OW81398  14.104  14.729  13.737
93189SOL    HW181399  14.155  14.742  13.658
93189SOL    HW281400  14.062  14.814  13.753
93190SOL     OW81401  10.452   9.872  13.680
93190SOL    HW181402  10.400   9.811  13.733
93190SOL    HW281403  10.510   9.816  13.629
93191SOL     OW81404   0.499   0.704   7.848
93191SOL    HW181405   0.515   0.610   7.836
93191SOL    HW281406   0.440   0.728   7.777
93192SOL     OW81407   0.965  13.895   4.509
93192SOL    HW181408   0.906  13.826   4.481
93192SOL    HW281409   1.052  13.863   4.489
93193SOL     OW81410   9.356   5.754   8.723
93193SOL    HW181411   9.330   5.820   8.787
93193SOL    HW281412   9.280   5.746   8.665
93194SOL     OW81413   3.204   7.285   0.227
93194SOL    HW181414   3.202   7.190   0.223
93194SOL    HW281415   3.235   7.305   0.315
93195SOL     OW81416  13.834   5.085   9.628
93195SOL    HW181417  13.741   5.106   9.617
93195SOL    HW281418  13.848   5.085   9.722
93196SOL     OW81419  11.238   0.103   4.036
93196SOL    HW181420  11.282   0.185   4.012
93196SOL    HW281421  11.149   0.113   4.002
93197SOL     OW81422   3.374   1.821   4.508
93197SOL    HW181423   3.440   1.791   4.570
93197SOL    HW281424   3.383   1.762   4.433
93198SOL     OW81425   1.169  14.669   8.549
93198SOL    HW181426   1.192  14.729   8.478
93198SOL    HW281427   1.125  14.724   8.614
93199SOL     OW81428   1.536  10.980   0.833
93199SOL    HW181429   1.512  11.011   0.746
93199SOL    HW281430   1.488  10.898   0.843
93200SOL     OW81431   6.931   4.130   4.369
93200SOL    HW181432   6.934   4.148   4.274
93200SOL    HW281433   6.867   4.059   4.378
93201SOL     OW81434   5.533   9.876   0.155
93201SOL    HW181435   5.443   9.889   0.182
93201SOL    HW281436   5.528   9.861   0.060
93202SOL     OW81437   6.256   9.711  11.097
93202SOL    HW181438   6.255   9.702  11.002
93202SOL    HW281439   6.166   9.735  11.120
93203SOL     OW81440   0.557  10.056   6.998
93203SOL    HW181441   0.621  10.104   6.945
93203SOL    HW281442   0.533   9.980   6.945
93204SOL     OW81443   9.124   0.908   5.493
93204SOL    HW181444   9.096   0.886   5.581
93204SOL    HW281445   9.184   0.982   5.504
93205SOL     OW81446  12.529   6.468   5.666
93205SOL    HW181447  12.613   6.459   5.710
93205SOL    HW281448  12.476   6.521   5.725
93206SOL     OW81449   9.613  11.557   2.462
93206SOL    HW181450   9.648  11.617   2.528
93206SOL    HW281451   9.680  11.488   2.455
93207SOL     OW81452  11.128  10.206   2.954
93207SOL    HW181453  11.154  10.268   3.022
93207SOL    HW281454  11.211  10.178   2.914
93208SOL     OW81455   7.480   9.503  13.763
93208SOL    HW181456   7.551   9.535  13.818
93208SOL    HW281457   7.425   9.580  13.747
93209SOL     OW81458   0.337   0.615   8.770
93209SOL    HW181459   0.275   0.552   8.807
93209SOL    HW281460   0.390   0.564   8.709
93210SOL     OW81461   6.628   8.331   4.296
93210SOL    HW181462   6.677   8.259   4.337
93210SOL    HW281463   6.581   8.289   4.224
93211SOL     OW81464  10.672   4.506  12.160
93211SOL    HW181465  10.620   4.520  12.081
93211SOL    HW281466  10.757   4.476  12.128
93212SOL     OW81467  12.038   9.784   4.947
93212SOL    HW181468  12.110   9.768   5.009
93212SOL    HW281469  11.960   9.756   4.994
93213SOL     OW81470   9.968   4.935  13.548
93213SOL    HW181471   9.941   4.911  13.637
93213SOL    HW281472   9.968   4.851  13.500
93214SOL     OW81473  13.201   4.211   5.957
93214SOL    HW181474  13.150   4.236   6.033
93214SOL    HW281475  13.263   4.283   5.944
93215SOL     OW81476   1.392   9.424   1.448
93215SOL    HW181477   1.371   9.426   1.354
93215SOL    HW281478   1.459   9.356   1.455
93216SOL     OW81479   0.440  12.935   4.713
93216SOL    HW181480   0.453  12.947   4.619
93216SOL    HW281481   0.378  12.862   4.720
93217SOL     OW81482   0.397   5.537   9.322
93217SOL    HW181483   0.364   5.613   9.370
93217SOL    HW281484   0.418   5.472   9.390
93218SOL     OW81485  12.534   9.303   8.686
93218SOL    HW181486  12.499   9.380   8.731
93218SOL    HW281487  12.512   9.318   8.594
93219SOL     OW81488   5.566  14.447   2.859
93219SOL    HW181489   5.544  14.471   2.769
93219SOL    HW281490   5.515  14.507   2.913
93220SOL     OW81491  11.969   8.130   2.789
93220SOL    HW181492  12.065   8.125   2.784
93220SOL    HW281493  11.947   8.212   2.746
93221SOL     OW81494   1.082  10.657  13.441
93221SOL    HW181495   1.153  10.715  13.470
93221SOL    HW281496   1.123  10.602  13.374
93222SOL     OW81497  13.001  14.316   9.593
93222SOL    HW181498  13.050  14.241   9.626
93222SOL    HW281499  13.056  14.392   9.614
93223SOL     OW81500   7.915   2.924   6.316
93223SOL    HW181501   8.000   2.887   6.293
93223SOL    HW281502   7.903   2.997   6.256
93224SOL     OW81503  12.927  10.612   7.014
93224SOL    HW181504  12.839  10.640   7.038
93224SOL    HW281505  12.982  10.635   7.089
93225SOL     OW81506   2.385   4.177   4.250
93225SOL    HW181507   2.421   4.090   4.264
93225SOL    HW281508   2.291   4.167   4.267
93226SOL     OW81509  11.003   7.555   5.522
93226SOL    HW181510  11.074   7.565   5.586
93226SOL    HW281511  11.040   7.499   5.454
93227SOL     OW81512  10.780   6.011   8.525
93227SOL    HW181513  10.795   6.094   8.480
93227SOL    HW281514  10.828   5.946   8.473
93228SOL     OW81515   8.222   3.151   8.933
93228SOL    HW181516   8.161   3.209   8.978
93228SOL    HW281517   8.308   3.186   8.953
93229SOL     OW81518  14.664  10.868   2.438
93229SOL    HW181519  14.656  10.777   2.408
93229SOL    HW281520  14.759  10.883   2.442
93230SOL     OW81521  11.387   9.479  13.409
93230SOL    HW181522  11.471   9.522  13.395
93230SOL    HW281523  11.333   9.545  13.452
93231SOL     OW81524   7.440   8.429  11.836
93231SOL    HW181525   7.428   8.335  11.851
93231SOL    HW281526   7.352   8.461  11.818
93232SOL     OW81527   6.100   9.892  10.146
93232SOL    HW181528   6.094   9.947  10.067
93232SOL    HW281529   6.025   9.833  10.139
93233SOL     OW81530  13.255   7.594  12.511
93233SOL    HW181531  13.220   7.642  12.585
93233SOL    HW281532  13.185   7.534  12.485
93234SOL     OW81533   6.440   2.047  14.588
93234SOL    HW181534   6.480   1.986  14.526
93234SOL    HW281535   6.505   2.118  14.597
93235SOL     OW81536   0.147   9.205   4.493
93235SOL    HW181537   0.165   9.295   4.467
93235SOL    HW281538   0.057   9.206   4.526
93236SOL     OW81539   1.904   8.130   0.464
93236SOL    HW181540   1.860   8.052   0.429
93236SOL    HW281541   1.981   8.141   0.409
93237SOL     OW81542   6.740   9.237   3.601
93237SOL    HW181543   6.742   9.147   3.634
93237SOL    HW281544   6.653   9.245   3.560
93238SOL     OW81545   8.985  10.704   1.265
93238SOL    HW181546   8.902  10.682   1.223
93238SOL    HW281547   9.007  10.628   1.319
93239SOL     OW81548   2.517   4.678   2.116
93239SOL    HW181549   2.430   4.681   2.155
93239SOL    HW281550   2.519   4.752   2.056
93240SOL     OW81551   7.605   1.913   7.524
93240SOL    HW181552   7.618   1.850   7.452
93240SOL    HW281553   7.621   1.861   7.603
93241SOL     OW81554   0.715   3.089   9.457
93241SOL    HW181555   0.758   3.122   9.536
93241SOL    HW281556   0.626   3.068   9.486
93242SOL     OW81557  13.004  14.269   2.960
93242SOL    HW181558  13.019  14.270   2.866
93242SOL    HW281559  13.048  14.190   2.991
93243SOL     OW81560   5.558   0.916   9.838
93243SOL    HW181561   5.520   0.983   9.894
93243SOL    HW281562   5.545   0.948   9.749
93244SOL     OW81563   3.074   3.814   5.597
93244SOL    HW181564   3.028   3.857   5.669
93244SOL    HW281565   3.120   3.741   5.639
93245SOL     OW81566   2.624  10.747   0.396
93245SOL    HW181567   2.572  10.684   0.445
93245SOL    HW281568   2.564  10.821   0.381
93246SOL     OW81569  12.184   1.664   7.060
93246SOL    HW181570  12.218   1.645   6.973
93246SOL    HW281571  12.235   1.739   7.090
93247SOL     OW81572   2.940   2.479  13.703
93247SOL    HW181573   2.928   2.554  13.645
93247SOL    HW281574   2.852   2.450  13.725
93248SOL     OW81575   8.087  13.356  11.360
93248SOL    HW181576   8.115  13.440  11.322
93248SOL    HW281577   8.151  13.293  11.328
93249SOL     OW81578   2.842  14.540  11.466
93249SOL    HW181579   2.801  14.611  11.516
93249SOL    HW281580   2.896  14.584  11.401
93250SOL     OW81581  10.701   8.583  12.686
93250SOL    HW181582  10.696   8.516  12.755
93250SOL    HW281583  10.773   8.554  12.630
93251SOL     OW81584   1.300  12.457   4.413
93251SOL    HW181585   1.288  12.363   4.400
93251SOL    HW281586   1.292  12.470   4.507
93252SOL     OW81587   9.267   7.252   0.601
93252SOL    HW181588   9.312   7.232   0.683
93252SOL    HW281589   9.206   7.322   0.622
93253SOL     OW81590  12.862   4.182   2.671
93253SOL    HW181591  12.858   4.226   2.586
93253SOL    HW281592  12.807   4.104   2.660
93254SOL     OW81593   2.074   6.071  12.975
93254SOL    HW181594   2.149   6.089  13.031
93254SOL    HW281595   2.055   6.154  12.932
93255SOL     OW81596   3.877  11.911   5.622
93255SOL    HW181597   3.804  11.912   5.683
93255SOL    HW281598   3.852  11.850   5.553
93256SOL     OW81599   9.613  11.558  11.150
93256SOL    HW181600   9.634  11.542  11.242
93256SOL    HW281601   9.611  11.470  11.110
93257SOL     OW81602   4.686   7.535  14.833
93257SOL    HW181603   4.758   7.502   0.016
93257SOL    HW281604   4.728   7.596  14.772
93258SOL     OW81605  12.019   9.502   2.688
93258SOL    HW181606  12.054   9.416   2.666
93258SOL    HW281607  11.925   9.488   2.699
93259SOL     OW81608   4.998   3.265  14.272
93259SOL    HW181609   5.042   3.197  14.322
93259SOL    HW281610   5.006   3.238  14.181
93260SOL     OW81611   9.630   3.228   5.409
93260SOL    HW181612   9.570   3.292   5.446
93260SOL    HW281613   9.576   3.151   5.390
93261SOL     OW81614   2.946   4.530  11.639
93261SOL    HW181615   3.039   4.548  11.653
93261SOL    HW281616   2.936   4.527  11.544
93262SOL     OW81617  10.688   5.972   4.049
93262SOL    HW181618  10.720   5.914   3.980
93262SOL    HW281619  10.758   5.975   4.114
93263SOL     OW81620   9.315   0.344  10.013
93263SOL    HW181621   9.339   0.254  10.033
93263SOL    HW281622   9.227   0.355  10.049
93264SOL     OW81623   6.519  10.802   4.516
93264SOL    HW181624   6.540  10.711   4.534
93264SOL    HW281625   6.488  10.837   4.599
93265SOL     OW81626   6.884  14.847   0.419
93265SOL    HW181627   6.854  14.788   0.350
93265SOL    HW281628   6.885   0.062   0.378
93266SOL     OW81629  13.859   1.082   8.636
93266SOL    HW181630  13.892   1.129   8.713
93266SOL    HW281631  13.798   1.017   8.672
93267SOL     OW81632  13.605  12.154   3.538
93267SOL    HW181633  13.530  12.110   3.498
93267SOL    HW281634  13.675  12.146   3.473
93268SOL     OW81635   3.628  11.743   5.042
93268SOL    HW181636   3.699  11.678   5.034
93268SOL    HW281637   3.642  11.802   4.968
93269SOL     OW81638   5.976   0.679   7.671
93269SOL    HW181639   6.023   0.605   7.631
93269SOL    HW281640   6.018   0.691   7.756
93270SOL     OW81641   7.854  12.731   1.673
93270SOL    HW181642   7.821  12.679   1.747
93270SOL    HW281643   7.916  12.672   1.629
93271SOL     OW81644   2.399   9.579  11.300
93271SOL    HW181645   2.412   9.499  11.248
93271SOL    HW281646   2.327   9.624  11.257
93272SOL     OW81647   7.397   6.400  11.593
93272SOL    HW181648   7.426   6.358  11.511
93272SOL    HW281649   7.312   6.439  11.571
93273SOL     OW81650  14.114   7.915   6.670
93273SOL    HW181651  14.075   7.844   6.619
93273SOL    HW281652  14.039   7.964   6.704
93274SOL     OW81653   5.486  11.570   7.733
93274SOL    HW181654   5.450  11.522   7.808
93274SOL    HW281655   5.571  11.602   7.764
93275SOL     OW81656   8.658   2.467   0.505
93275SOL    HW181657   8.686   2.515   0.583
93275SOL    HW281658   8.739   2.449   0.457
93276SOL     OW81659   1.735   4.114   8.256
93276SOL    HW181660   1.649   4.072   8.245
93276SOL    HW281661   1.768   4.081   8.339
93277SOL     OW81662  14.431   3.422   3.898
93277SOL    HW181663  14.432   3.480   3.822
93277SOL    HW281664  14.343   3.384   3.898
93278SOL     OW81665   3.517  14.002   2.390
93278SOL    HW181666   3.511  14.017   2.484
93278SOL    HW281667   3.515  14.089   2.351
93279SOL     OW81668  14.390   1.895   3.719
93279SOL    HW181669  14.378   1.813   3.767
93279SOL    HW281670  14.478   1.924   3.743
93280SOL     OW81671   0.001   9.120   4.203
93280SOL    HW181672  14.831   9.164   4.276
93280SOL    HW281673   0.068   9.182   4.173
93281SOL     OW81674   8.312   3.230   5.756
93281SOL    HW181675   8.305   3.311   5.704
93281SOL    HW281676   8.290   3.160   5.695
93282SOL     OW81677  13.546  12.368   8.312
93282SOL    HW181678  13.555  12.304   8.382
93282SOL    HW281679  13.458  12.404   8.324
93283SOL     OW81680   1.760   3.506  10.818
93283SOL    HW181681   1.797   3.564  10.884
93283SOL    HW281682   1.804   3.422  10.832
93284SOL     OW81683   6.807  14.189   3.288
93284SOL    HW181684   6.796  14.100   3.255
93284SOL    HW281685   6.883  14.183   3.347
93285SOL     OW81686  11.146  12.891   9.650
93285SOL    HW181687  11.081  12.850   9.708
93285SOL    HW281688  11.137  12.985   9.666
93286SOL     OW81689   7.447   1.854   3.054
93286SOL    HW181690   7.414   1.821   3.137
93286SOL    HW281691   7.463   1.947   3.071
93287SOL     OW81692   0.762   4.964  10.236
93287SOL    HW181693   0.670   4.989  10.230
93287SOL    HW281694   0.771   4.924  10.322
93288SOL     OW81695  14.408  12.857   8.156
93288SOL    HW181696  14.495  12.887   8.182
93288SOL    HW281697  14.371  12.931   8.108
93289SOL     OW81698   3.693   5.284  14.326
93289SOL    HW181699   3.781   5.248  14.335
93289SOL    HW281700   3.635   5.207  14.321
93290SOL     OW81701   4.860   4.463  10.380
93290SOL    HW181702   4.922   4.411  10.329
93290SOL    HW281703   4.905   4.480  10.463
93291SOL     OW81704  11.997   4.483   6.824
93291SOL    HW181705  12.000   4.427   6.746
93291SOL    HW281706  12.062   4.552   6.806
93292SOL     OW81707   1.427   4.688   6.992
93292SOL    HW181708   1.353   4.744   6.970
93292SOL    HW281709   1.477   4.738   7.057
93293SOL     OW81710   6.870   0.961  10.786
93293SOL    HW181711   6.942   0.963  10.723
93293SOL    HW281712   6.911   0.935  10.868
93294SOL     OW81713   4.528   2.919   5.379
93294SOL    HW181714   4.559   3.000   5.338
93294SOL    HW281715   4.434   2.917   5.361
93295SOL     OW81716   5.331  13.476   1.020
93295SOL    HW181717   5.336  13.555   0.966
93295SOL    HW281718   5.325  13.404   0.957
93296SOL     OW81719   0.886  11.847   7.099
93296SOL    HW181720   0.919  11.783   7.037
93296SOL    HW281721   0.793  11.856   7.078
93297SOL     OW81722  11.041   7.420   2.529
93297SOL    HW181723  11.124   7.457   2.501
93297SOL    HW281724  11.038   7.437   2.623
93298SOL     OW81725   1.037   4.140   0.912
93298SOL    HW181726   1.040   4.060   0.964
93298SOL    HW281727   0.989   4.203   0.966
93299SOL     OW81728   5.798   2.523   0.927
93299SOL    HW181729   5.723   2.582   0.931
93299SOL    HW281730   5.784   2.471   0.849
93300SOL     OW81731   4.099   3.753   1.700
93300SOL    HW181732   4.022   3.787   1.745
93300SOL    HW281733   4.173   3.787   1.750
93301SOL     OW81734   5.014   1.685   7.023
93301SOL    HW181735   4.972   1.669   6.938
93301SOL    HW281736   4.944   1.722   7.077
93302SOL     OW81737   4.008   2.977   2.754
93302SOL    HW181738   4.061   2.915   2.704
93302SOL    HW281739   3.993   3.050   2.694
93303SOL     OW81740   6.298  12.988  10.206
93303SOL    HW181741   6.241  12.942  10.144
93303SOL    HW281742   6.275  12.950  10.291
93304SOL     OW81743  13.721   2.771  10.541
93304SOL    HW181744  13.725   2.729  10.454
93304SOL    HW281745  13.651   2.724  10.586
93305SOL     OW81746   4.816   7.491  13.728
93305SOL    HW181747   4.784   7.547  13.799
93305SOL    HW281748   4.805   7.401  13.761
93306SOL     OW81749   2.662   1.466   3.515
93306SOL    HW181750   2.605   1.535   3.548
93306SOL    HW281751   2.707   1.433   3.593
93307SOL     OW81752   4.566   2.490  12.147
93307SOL    HW181753   4.560   2.457  12.237
93307SOL    HW281754   4.517   2.572  12.148
93308SOL     OW81755  10.407  13.300  12.238
93308SOL    HW181756  10.429  13.292  12.331
93308SOL    HW281757  10.373  13.214  12.214
93309SOL     OW81758   9.483  13.324   3.670
93309SOL    HW181759   9.566  13.304   3.713
93309SOL    HW281760   9.429  13.362   3.739
93310SOL     OW81761   4.838  11.211   2.472
93310SOL    HW181762   4.842  11.188   2.379
93310SOL    HW281763   4.897  11.286   2.481
93311SOL     OW81764   3.527   9.575   6.887
93311SOL    HW181765   3.613   9.603   6.855
93311SOL    HW281766   3.471   9.575   6.809
93312SOL     OW81767  14.434  12.080   1.503
93312SOL    HW181768  14.483  12.052   1.427
93312SOL    HW281769  14.467  12.027   1.575
93313SOL     OW81770   1.828  14.269   1.368
93313SOL    HW181771   1.772  14.239   1.439
93313SOL    HW281772   1.780  14.342   1.328
93314SOL     OW81773   9.785   3.468   7.028
93314SOL    HW181774   9.764   3.441   6.938
93314SOL    HW281775   9.881   3.473   7.029
93315SOL     OW81776  11.981  12.641   0.973
93315SOL    HW181777  12.030  12.561   0.954
93315SOL    HW281778  11.925  12.617   1.048
93316SOL     OW81779   4.451   2.867   1.417
93316SOL    HW181780   4.373   2.843   1.367
93316SOL    HW281781   4.509   2.791   1.411
93317SOL     OW81782   7.991   5.954   6.594
93317SOL    HW181783   7.985   5.949   6.499
93317SOL    HW281784   8.026   6.042   6.611
93318SOL     OW81785   5.629   2.278  11.542
93318SOL    HW181786   5.545   2.240  11.516
93318SOL    HW281787   5.666   2.214  11.602
93319SOL     OW81788   1.936   6.049  10.678
93319SOL    HW181789   1.847   6.053  10.714
93319SOL    HW281790   1.949   6.136  10.639
93320SOL     OW81791   3.683  10.734  11.517
93320SOL    HW181792   3.607  10.711  11.463
93320SOL    HW281793   3.738  10.656  11.516
93321SOL     OW81794   3.706  14.795   0.953
93321SOL    HW181795   3.665  14.771   0.870
93321SOL    HW281796   3.689   0.016   0.962
93322SOL     OW81797   4.965  12.919   6.587
93322SOL    HW181798   4.891  12.859   6.575
93322SOL    HW281799   5.037  12.878   6.541
93323SOL     OW81800  12.405  13.918   9.155
93323SOL    HW181801  12.352  13.969   9.217
93323SOL    HW281802  12.448  13.983   9.101
93324SOL     OW81803   8.651  14.409  11.325
93324SOL    HW181804   8.726  14.466  11.343
93324SOL    HW281805   8.675  14.324  11.363
93325SOL     OW81806  13.889   1.156  12.369
93325SOL    HW181807  13.929   1.218  12.308
93325SOL    HW281808  13.850   1.089  12.312
93326SOL     OW81809   2.564   6.081  14.268
93326SOL    HW181810   2.622   6.042  14.201
93326SOL    HW281811   2.599   6.048  14.351
93327SOL     OW81812   5.185  12.567  11.805
93327SOL    HW181813   5.274  12.537  11.823
93327SOL    HW281814   5.164  12.529  11.719
93328SOL     OW81815   8.456   6.348   0.143
93328SOL    HW181816   8.444   6.321   0.052
93328SOL    HW281817   8.449   6.443   0.141
93329SOL     OW81818  11.421   0.010   6.410
93329SOL    HW181819  11.403  14.793   6.379
93329SOL    HW281820  11.382   0.014   6.497
93330SOL     OW81821   6.415   8.769  10.025
93330SOL    HW181822   6.494   8.793   9.976
93330SOL    HW281823   6.448   8.722  10.102
93331SOL     OW81824   2.406   3.320   5.703
93331SOL    HW181825   2.458   3.270   5.766
93331SOL    HW281826   2.345   3.371   5.756
93332SOL     OW81827  10.452  12.151   4.410
93332SOL    HW181828  10.365  12.153   4.370
93332SOL    HW281829  10.445  12.083   4.477
93333SOL     OW81830  14.731  12.354   2.199
93333SOL    HW181831  14.648  12.317   2.170
93333SOL    HW281832  14.768  12.288   2.257
93334SOL     OW81833   1.519   1.320   9.855
93334SOL    HW181834   1.461   1.246   9.873
93334SOL    HW281835   1.594   1.281   9.810
93335SOL     OW81836   7.208   9.942   6.451
93335SOL    HW181837   7.235  10.030   6.423
93335SOL    HW281838   7.183   9.953   6.543
93336SOL     OW81839  12.936   9.590   1.871
93336SOL    HW181840  12.949   9.663   1.809
93336SOL    HW281841  13.003   9.604   1.938
93337SOL     OW81842   0.877   2.158   9.219
93337SOL    HW181843   0.848   2.245   9.191
93337SOL    HW281844   0.882   2.108   9.137
93338SOL     OW81845   3.720  13.236  11.123
93338SOL    HW181846   3.743  13.239  11.030
93338SOL    HW281847   3.797  13.270  11.168
93339SOL     OW81848   4.045   5.693  10.329
93339SOL    HW181849   4.122   5.718  10.278
93339SOL    HW281850   4.052   5.745  10.409
93340SOL     OW81851   9.006  14.412  12.139
93340SOL    HW181852   8.962  14.497  12.140
93340SOL    HW281853   9.089  14.427  12.184
93341SOL     OW81854   8.568  13.623   0.770
93341SOL    HW181855   8.489  13.649   0.817
93341SOL    HW281856   8.538  13.600   0.682
93342SOL     OW81857   7.858  13.945   7.726
93342SOL    HW181858   7.808  13.864   7.735
93342SOL    HW281859   7.900  13.939   7.641
93343SOL     OW81860   0.814  12.056   9.130
93343SOL    HW181861   0.814  12.092   9.219
93343SOL    HW281862   0.872  11.979   9.135
93344SOL     OW81863  12.155  11.947  11.950
93344SOL    HW181864  12.111  11.935  11.866
93344SOL    HW281865  12.248  11.933  11.931
93345SOL     OW81866   8.096  12.963   8.477
93345SOL    HW181867   8.055  13.021   8.412
93345SOL    HW281868   8.170  12.924   8.430
93346SOL     OW81869  14.347   8.733   3.304
93346SOL    HW181870  14.284   8.699   3.240
93346SOL    HW281871  14.422   8.760   3.251
93347SOL     OW81872   9.391   7.655   5.537
93347SOL    HW181873   9.392   7.726   5.601
93347SOL    HW281874   9.317   7.676   5.480
93348SOL     OW81875  14.015   8.134   1.583
93348SOL    HW181876  14.052   8.139   1.671
93348SOL    HW281877  14.070   8.071   1.537
93349SOL     OW81878   3.411   6.558   4.390
93349SOL    HW181879   3.460   6.476   4.392
93349SOL    HW281880   3.409   6.583   4.297
93350SOL     OW81881   7.668  12.724  14.066
93350SOL    HW181882   7.652  12.689  13.979
93350SOL    HW281883   7.626  12.662  14.125
93351SOL     OW81884   2.996   5.920   6.883
93351SOL    HW181885   2.928   5.870   6.838
93351SOL    HW281886   2.950   5.962   6.956
93352SOL     OW81887   5.572   7.348   1.011
93352SOL    HW181888   5.490   7.396   1.019
93352SOL    HW281889   5.605   7.343   1.101
93353SOL     OW81890   0.413   1.918   4.715
93353SOL    HW181891   0.385   1.945   4.627
93353SOL    HW281892   0.340   1.943   4.772
93354SOL     OW81893   2.442   4.541   9.034
93354SOL    HW181894   2.440   4.532   8.939
93354SOL    HW281895   2.495   4.618   9.050
93355SOL     OW81896   4.698   8.823   0.445
93355SOL    HW181897   4.669   8.853   0.531
93355SOL    HW281898   4.765   8.886   0.418
93356SOL     OW81899   2.288   6.450   0.708
93356SOL    HW181900   2.303   6.380   0.644
93356SOL    HW281901   2.222   6.414   0.767
93357SOL     OW81902  10.030  13.479   7.946
93357SOL    HW181903   9.965  13.532   7.991
93357SOL    HW281904  10.064  13.420   8.014
93358SOL     OW81905  14.754   8.364  13.484
93358SOL    HW181906  14.718   8.310  13.554
93358SOL    HW281907  14.683   8.426  13.463
93359SOL     OW81908   8.191   2.961   9.301
93359SOL    HW181909   8.279   2.948   9.265
93359SOL    HW281910   8.192   2.916   9.385
93360SOL     OW81911  12.346   7.056  14.711
93360SOL    HW181912  12.400   7.110  14.653
93360SOL    HW281913  12.407   6.994  14.750
93361SOL     OW81914   8.497   2.282   9.049
93361SOL    HW181915   8.510   2.206   8.992
93361SOL    HW281916   8.585   2.319   9.059
93362SOL     OW81917   6.405   4.475   1.045
93362SOL    HW181918   6.348   4.517   0.980
93362SOL    HW281919   6.360   4.488   1.128
93363SOL     OW81920   8.286   7.759  14.416
93363SOL    HW181921   8.283   7.693  14.346
93363SOL    HW281922   8.202   7.804  14.410
93364SOL     OW81923  14.715  10.242   2.733
93364SOL    HW181924  14.694  10.321   2.685
93364SOL    HW281925  14.785  10.268   2.793
93365SOL     OW81926  11.341   8.133  14.450
93365SOL    HW181927  11.406   8.196  14.419
93365SOL    HW281928  11.357   8.054  14.399
93366SOL     OW81929  11.396   4.476   7.714
93366SOL    HW181930  11.360   4.452   7.799
93366SOL    HW281931  11.475   4.526   7.735
93367SOL     OW81932   9.014   3.575   3.712
93367SOL    HW181933   8.967   3.607   3.790
93367SOL    HW281934   9.100   3.549   3.745
93368SOL     OW81935   4.883   5.277   4.032
93368SOL    HW181936   4.811   5.317   3.983
93368SOL    HW281937   4.856   5.185   4.043
93369SOL     OW81938   6.671   6.011  12.939
93369SOL    HW181939   6.712   6.032  12.855
93369SOL    HW281940   6.682   5.916  12.948
93370SOL     OW81941   5.382   2.520   4.531
93370SOL    HW181942   5.316   2.452   4.549
93370SOL    HW281943   5.446   2.476   4.475
93371SOL     OW81944  11.445   8.914  11.060
93371SOL    HW181945  11.453   8.828  11.019
93371SOL    HW281946  11.423   8.895  11.151
93372SOL     OW81947   5.831   0.587   2.427
93372SOL    HW181948   5.823   0.629   2.341
93372SOL    HW281949   5.814   0.657   2.490
93373SOL     OW81950   5.983   1.766   6.643
93373SOL    HW181951   6.067   1.722   6.641
93373SOL    HW281952   5.951   1.752   6.732
93374SOL     OW81953   4.121  10.178   7.066
93374SOL    HW181954   4.049  10.151   7.010
93374SOL    HW281955   4.123  10.113   7.136
93375SOL     OW81956   2.175   5.208   1.964
93375SOL    HW181957   2.257   5.160   1.951
93375SOL    HW281958   2.195   5.272   2.032
93376SOL     OW81959   5.113  14.730   1.871
93376SOL    HW181960   5.197  14.771   1.888
93376SOL    HW281961   5.134  14.638   1.851
93377SOL     OW81962  14.379  11.308   3.379
93377SOL    HW181963  14.374  11.403   3.369
93377SOL    HW281964  14.470  11.291   3.401
93378SOL     OW81965   9.972   0.920  10.796
93378SOL    HW181966  10.055   0.913  10.748
93378SOL    HW281967   9.910   0.870  10.743
93379SOL     OW81968   7.130  13.123   1.248
93379SOL    HW181969   7.058  13.138   1.188
93379SOL    HW281970   7.202  13.092   1.193
93380SOL     OW81971  10.733  14.579   0.928
93380SOL    HW181972  10.645  14.582   0.966
93380SOL    HW281973  10.790  14.607   1.000
93381SOL     OW81974   0.951   0.212  13.337
93381SOL    HW181975   0.890   0.171  13.275
93381SOL    HW281976   1.017   0.145  13.354
93382SOL     OW81977   5.694   3.633   0.359
93382SOL    HW181978   5.740   3.571   0.416
93382SOL    HW281979   5.627   3.581   0.316
93383SOL     OW81980   4.847  11.858   1.220
93383SOL    HW181981   4.838  11.941   1.173
93383SOL    HW281982   4.788  11.798   1.174
93384SOL     OW81983   3.706  10.285  12.618
93384SOL    HW181984   3.762  10.210  12.635
93384SOL    HW281985   3.641  10.283  12.688
93385SOL     OW81986   6.855   9.058  11.610
93385SOL    HW181987   6.808   9.053  11.694
93385SOL    HW281988   6.792   9.027  11.545
93386SOL     OW81989   1.328   8.598  12.700
93386SOL    HW181990   1.382   8.631  12.771
93386SOL    HW281991   1.348   8.504  12.696
93387SOL     OW81992   4.145   9.467  12.961
93387SOL    HW181993   4.151   9.374  12.941
93387SOL    HW281994   4.088   9.471  13.038
93388SOL     OW81995   6.748   6.801   4.856
93388SOL    HW181996   6.792   6.780   4.773
93388SOL    HW281997   6.697   6.722   4.875
93389SOL     OW81998   9.882  10.875  12.284
93389SOL    HW181999   9.968  10.869  12.243
93389SOL    HW282000   9.893  10.940  12.354
93390SOL     OW82001  12.091   7.371   4.854
93390SOL    HW182002  12.108   7.465   4.845
93390SOL    HW282003  12.167   7.329   4.815
93391SOL     OW82004  10.712  10.899   9.542
93391SOL    HW182005  10.708  10.913   9.448
93391SOL    HW282006  10.623  10.870   9.565
93392SOL     OW82007  13.313   5.256   4.109
93392SOL    HW182008  13.223   5.280   4.086
93392SOL    HW282009  13.335   5.186   4.047
93393SOL     OW82010   4.641  14.338  10.020
93393SOL    HW182011   4.594  14.420  10.038
93393SOL    HW282012   4.579  14.284   9.971
93394SOL     OW82013   8.840   0.120   5.112
93394SOL    HW182014   8.923   0.131   5.067
93394SOL    HW282015   8.853   0.043   5.167
93395SOL     OW82016   4.199  10.822   5.394
93395SOL    HW182017   4.249  10.902   5.376
93395SOL    HW282018   4.256  10.771   5.451
93396SOL     OW82019   8.069   7.017   8.181
93396SOL    HW182020   7.984   7.054   8.206
93396SOL    HW282021   8.120   7.016   8.262
93397SOL     OW82022   3.515   2.127   0.132
93397SOL    HW182023   3.560   2.044   0.149
93397SOL    HW282024   3.465   2.111   0.052
93398SOL     OW82025   4.924   0.441   0.613
93398SOL    HW182026   5.006   0.486   0.635
93398SOL    HW282027   4.911   0.461   0.520
93399SOL     OW82028  11.004  13.820   2.952
93399SOL    HW182029  10.944  13.873   2.900
93399SOL    HW282030  10.975  13.835   3.043
93400SOL     OW82031   0.459   6.937   6.015
93400SOL    HW182032   0.470   6.858   6.067
93400SOL    HW282033   0.489   7.008   6.072
93401SOL     OW82034   1.625   3.593   4.909
93401SOL    HW182035   1.625   3.531   4.836
93401SOL    HW282036   1.582   3.671   4.874
93402SOL     OW82037   2.911  12.891   8.544
93402SOL    HW182038   2.983  12.955   8.541
93402SOL    HW282039   2.881  12.893   8.635
93403SOL     OW82040   2.749   5.478   9.661
93403SOL    HW182041   2.712   5.420   9.729
93403SOL    HW282042   2.816   5.424   9.619
93404SOL     OW82043   0.933  13.356   7.382
93404SOL    HW182044   0.984  13.434   7.404
93404SOL    HW282045   0.979  13.284   7.426
93405SOL     OW82046   5.548   4.319   1.491
93405SOL    HW182047   5.604   4.326   1.568
93405SOL    HW282048   5.587   4.379   1.428
93406SOL     OW82049  11.425   4.027   5.348
93406SOL    HW182050  11.510   3.983   5.335
93406SOL    HW282051  11.375   3.965   5.401
93407SOL     OW82052   2.853   2.922  14.721
93407SOL    HW182053   2.901   2.980  14.781
93407SOL    HW282054   2.890   2.942  14.635
93408SOL     OW82055   6.683  14.199  11.440
93408SOL    HW182056   6.593  14.214  11.412
93408SOL    HW282057   6.706  14.276  11.491
93409SOL     OW82058   4.322  10.546   0.112
93409SOL    HW182059   4.356  10.477   0.170
93409SOL    HW282060   4.230  10.555   0.136
93410SOL     OW82061   0.355   1.409  14.758
93410SOL    HW182062   0.269   1.426  14.795
93410SOL    HW282063   0.416   1.439  14.826
93411SOL     OW82064   1.869   2.303   6.133
93411SOL    HW182065   1.878   2.333   6.043
93411SOL    HW282066   1.955   2.268   6.156
93412SOL     OW82067   4.936   3.162   9.252
93412SOL    HW182068   4.871   3.107   9.296
93412SOL    HW282069   4.993   3.193   9.323
93413SOL     OW82070   8.159  10.270   9.543
93413SOL    HW182071   8.082  10.234   9.500
93413SOL    HW282072   8.151  10.364   9.532
93414SOL     OW82073   7.220   4.980  12.579
93414SOL    HW182074   7.196   5.020  12.495
93414SOL    HW282075   7.220   4.886  12.562
93415SOL     OW82076   9.175   0.253   2.437
93415SOL    HW182077   9.156   0.202   2.358
93415SOL    HW282078   9.101   0.236   2.495
93416SOL     OW82079  10.579   6.616   4.612
93416SOL    HW182080  10.561   6.556   4.540
93416SOL    HW282081  10.664   6.589   4.646
93417SOL     OW82082  14.159   5.377   3.443
93417SOL    HW182083  14.197   5.443   3.385
93417SOL    HW282084  14.083   5.420   3.481
93418SOL     OW82085   3.972   1.760   2.248
93418SOL    HW182086   3.971   1.676   2.202
93418SOL    HW282087   4.059   1.766   2.287
93419SOL     OW82088   4.475   3.625   0.590
93419SOL    HW182089   4.567   3.648   0.603
93419SOL    HW282090   4.468   3.536   0.625
93420SOL     OW82091  10.302   0.351  12.929
93420SOL    HW182092  10.232   0.413  12.909
93420SOL    HW282093  10.323   0.310  12.845
93421SOL     OW82094   5.034  11.305   4.728
93421SOL    HW182095   5.057  11.339   4.641
93421SOL    HW282096   4.993  11.220   4.710
93422SOL     OW82097   2.039   4.808  11.708
93422SOL    HW182098   2.106   4.799  11.776
93422SOL    HW282099   2.031   4.720  11.670
93423SOL     OW82100   5.204  14.125  11.307
93423SOL    HW182101   5.255  14.204  11.298
93423SOL    HW282102   5.216  14.097  11.398
93424SOL     OW82103   7.871   4.325  13.779
93424SOL    HW182104   7.871   4.380  13.857
93424SOL    HW282105   7.927   4.371  13.716
93425SOL     OW82106  12.165   4.131   4.929
93425SOL    HW182107  12.109   4.163   4.858
93425SOL    HW282108  12.189   4.042   4.902
93426SOL     OW82109  12.188   4.187   9.097
93426SOL    HW182110  12.210   4.259   9.155
93426SOL    HW282111  12.101   4.159   9.125
93427SOL     OW82112  12.414   8.408   8.756
93427SOL    HW182113  12.493   8.461   8.765
93427SOL    HW282114  12.349   8.466   8.717
93428SOL     OW82115   4.104   7.325   1.684
93428SOL    HW182116   4.029   7.380   1.708
93428SOL    HW282117   4.072   7.235   1.695
93429SOL     OW82118   7.302   6.251   9.170
93429SOL    HW182119   7.256   6.315   9.116
93429SOL    HW282120   7.352   6.199   9.108
93430SOL     OW82121   1.295  13.554   6.529
93430SOL    HW182122   1.318  13.555   6.436
93430SOL    HW282123   1.219  13.496   6.534
93431SOL     OW82124   4.701   4.105  13.795
93431SOL    HW182125   4.657   4.028  13.758
93431SOL    HW282126   4.710   4.084  13.888
93432SOL     OW82127   8.344  12.834  14.435
93432SOL    HW182128   8.330  12.919  14.394
93432SOL    HW282129   8.269  12.822  14.493
93433SOL     OW82130  12.176  13.597   9.438
93433SOL    HW182131  12.177  13.691   9.450
93433SOL    HW282132  12.268  13.570   9.442
93434SOL     OW82133  13.766   2.604  11.563
93434SOL    HW182134  13.854   2.636  11.543
93434SOL    HW282135  13.776   2.554  11.644
93435SOL     OW82136   4.917   1.429   3.702
93435SOL    HW182137   5.013   1.431   3.705
93435SOL    HW282138   4.896   1.452   3.611
93436SOL     OW82139   0.017   6.134   2.167
93436SOL    HW182140   0.096   6.109   2.120
93436SOL    HW282141  14.870   6.223   2.137
93437SOL     OW82142   6.271   1.400   0.685
93437SOL    HW182143   6.250   1.484   0.725
93437SOL    HW282144   6.338   1.363   0.741
93438SOL     OW82145   1.053   7.157   9.357
93438SOL    HW182146   1.024   7.086   9.414
93438SOL    HW282147   1.038   7.124   9.268
93439SOL     OW82148  10.481  13.231  13.413
93439SOL    HW182149  10.554  13.197  13.464
93439SOL    HW282150  10.410  13.168  13.428
93440SOL     OW82151   8.970   4.206   1.339
93440SOL    HW182152   9.045   4.174   1.289
93440SOL    HW282153   8.997   4.199   1.431
93441SOL     OW82154   1.841   5.708  10.401
93441SOL    HW182155   1.930   5.717  10.434
93441SOL    HW282156   1.829   5.782  10.341
93442SOL     OW82157   2.888   8.106   0.115
93442SOL    HW182158   2.899   8.124   0.021
93442SOL    HW282159   2.883   8.011   0.120
93443SOL     OW82160  11.389  10.065   6.991
93443SOL    HW182161  11.477  10.101   6.983
93443SOL    HW282162  11.401   9.970   6.993
93444SOL     OW82163  13.908  13.494   4.287
93444SOL    HW182164  13.871  13.554   4.222
93444SOL    HW282165  13.899  13.408   4.247
93445SOL     OW82166   4.295  11.193  13.131
93445SOL    HW182167   4.343  11.141  13.195
93445SOL    HW282168   4.225  11.235  13.180
93446SOL     OW82169   0.381   0.305   3.731
93446SOL    HW182170   0.401   0.370   3.799
93446SOL    HW282171   0.374   0.222   3.778
93447SOL     OW82172  14.299  11.333   9.277
93447SOL    HW182173  14.286  11.338   9.372
93447SOL    HW282174  14.227  11.278   9.246
93448SOL     OW82175   7.406  14.616   1.772
93448SOL    HW182176   7.493  14.641   1.742
93448SOL    HW282177   7.354  14.610   1.692
93449SOL     OW82178  11.819   6.410  11.585
93449SOL    HW182179  11.739   6.454  11.557
93449SOL    HW282180  11.788   6.340  11.644
93450SOL     OW82181  10.727  14.628  13.473
93450SOL    HW182182  10.651  14.624  13.532
93450SOL    HW282183  10.692  14.600  13.388
93451SOL     OW82184  11.680   5.650   5.428
93451SOL    HW182185  11.762   5.610   5.398
93451SOL    HW282186  11.692   5.744   5.411
93452SOL     OW82187   6.867  10.484   5.556
93452SOL    HW182188   6.944  10.541   5.562
93452SOL    HW282189   6.812  10.524   5.489
93453SOL     OW82190   9.761  13.871   4.768
93453SOL    HW182191   9.691  13.823   4.812
93453SOL    HW282192   9.716  13.924   4.702
93454SOL     OW82193   5.137  11.997   7.153
93454SOL    HW182194   5.083  11.972   7.078
93454SOL    HW282195   5.208  11.933   7.154
93455SOL     OW82196   4.923   1.358   8.446
93455SOL    HW182197   4.843   1.356   8.394
93455SOL    HW282198   4.936   1.267   8.474
93456SOL     OW82199   3.014  11.592   1.144
93456SOL    HW182200   3.009  11.656   1.073
93456SOL    HW282201   3.052  11.514   1.104
93457SOL     OW82202   7.743  10.692  14.000
93457SOL    HW182203   7.837  10.705  14.015
93457SOL    HW282204   7.737  10.671  13.907
93458SOL     OW82205  14.014   9.370   5.463
93458SOL    HW182206  13.943   9.379   5.400
93458SOL    HW282207  14.036   9.459   5.488
93459SOL     OW82208   1.303   0.756   6.191
93459SOL    HW182209   1.225   0.800   6.226
93459SOL    HW282210   1.377   0.803   6.229
93460SOL     OW82211   3.589   9.202   8.546
93460SOL    HW182212   3.663   9.178   8.490
93460SOL    HW282213   3.552   9.118   8.574
93461SOL     OW82214   3.519  10.902  14.243
93461SOL    HW182215   3.477  10.986  14.264
93461SOL    HW282216   3.448  10.849  14.207
93462SOL     OW82217   5.822   0.282  12.427
93462SOL    HW182218   5.831   0.229  12.506
93462SOL    HW282219   5.751   0.343  12.446
93463SOL     OW82220   9.391  13.849  12.176
93463SOL    HW182221   9.333  13.800  12.235
93463SOL    HW282222   9.437  13.782  12.125
93464SOL     OW82223  10.013   3.413   9.951
93464SOL    HW182224  10.053   3.409  10.038
93464SOL    HW282225   9.924   3.379   9.964
93465SOL     OW82226   5.289  11.471   2.294
93465SOL    HW182227   5.208  11.478   2.244
93465SOL    HW282228   5.288  11.548   2.352
93466SOL     OW82229   1.803   6.743   3.263
93466SOL    HW182230   1.752   6.768   3.339
93466SOL    HW282231   1.741   6.699   3.206
93467SOL     OW82232   3.513   6.444   1.209
93467SOL    HW182233   3.493   6.524   1.257
93467SOL    HW282234   3.571   6.472   1.138
93468SOL     OW82235  12.769   1.168   9.591
93468SOL    HW182236  12.694   1.184   9.534
93468SOL    HW282237  12.768   1.240   9.653
93469SOL     OW82238   7.034   8.635   0.623
93469SOL    HW182239   6.969   8.699   0.595
93469SOL    HW282240   7.082   8.678   0.694
93470SOL     OW82241   9.818   8.092   4.611
93470SOL    HW182242   9.895   8.125   4.565
93470SOL    HW282243   9.774   8.171   4.642
93471SOL     OW82244   5.427  10.324  13.972
93471SOL    HW182245   5.368  10.249  13.966
93471SOL    HW282246   5.433  10.343  14.066
93472SOL     OW82247  10.993   4.733   5.125
93472SOL    HW182248  10.952   4.734   5.038
93472SOL    HW282249  10.983   4.823   5.156
93473SOL     OW82250  10.468   8.671  13.160
93473SOL    HW182251  10.406   8.717  13.218
93473SOL    HW282252  10.536   8.735  13.142
93474SOL     OW82253  14.015   6.016   2.063
93474SOL    HW182254  13.966   5.997   2.144
93474SOL    HW282255  13.975   6.096   2.029
93475SOL     OW82256  12.582   5.832  13.139
93475SOL    HW182257  12.672   5.822  13.169
93475SOL    HW282258  12.587   5.896  13.069
93476SOL     OW82259   0.646   9.559   0.355
93476SOL    HW182260   0.633   9.570   0.261
93476SOL    HW282261   0.565   9.590   0.395
93477SOL     OW82262   1.227   1.419   6.590
93477SOL    HW182263   1.242   1.335   6.633
93477SOL    HW282264   1.134   1.438   6.608
93478SOL     OW82265   5.036  14.234   8.889
93478SOL    HW182266   5.070  14.146   8.874
93478SOL    HW282267   5.102  14.292   8.851
93479SOL     OW82268  12.261   2.609  12.713
93479SOL    HW182269  12.186   2.667  12.714
93479SOL    HW282270  12.306   2.628  12.631
93480SOL     OW82271  13.915   6.406   7.265
93480SOL    HW182272  13.864   6.450   7.196
93480SOL    HW282273  13.991   6.370   7.219
93481SOL     OW82274   5.501   5.161   1.860
93481SOL    HW182275   5.416   5.130   1.892
93481SOL    HW282276   5.532   5.219   1.930
93482SOL     OW82277   2.030   5.040  14.051
93482SOL    HW182278   2.051   4.976  14.119
93482SOL    HW282279   1.940   5.020  14.027
93483SOL     OW82280   4.469  14.363  10.351
93483SOL    HW182281   4.441  14.453  10.365
93483SOL    HW282282   4.565  14.367  10.350
93484SOL     OW82283  11.554  11.329  11.796
93484SOL    HW182284  11.464  11.353  11.815
93484SOL    HW282285  11.607  11.397  11.838
93485SOL     OW82286   9.841  13.042   2.002
93485SOL    HW182287   9.821  13.020   1.911
93485SOL    HW282288   9.830  13.137   2.008
93486SOL     OW82289  13.382  10.708   1.511
93486SOL    HW182290  13.322  10.687   1.440
93486SOL    HW282291  13.419  10.623   1.537
93487SOL     OW82292   5.341   6.218   4.512
93487SOL    HW182293   5.363   6.216   4.419
93487SOL    HW282294   5.382   6.298   4.545
93488SOL     OW82295   9.941  11.640   2.011
93488SOL    HW182296   9.877  11.676   2.072
93488SOL    HW282297   9.969  11.715   1.959
93489SOL     OW82298  12.720  13.986   8.831
93489SOL    HW182299  12.795  13.927   8.826
93489SOL    HW282300  12.747  14.064   8.782
93490SOL     OW82301   1.948   4.335   4.886
93490SOL    HW182302   1.988   4.253   4.915
93490SOL    HW282303   1.984   4.402   4.944
93491SOL     OW82304   8.470   7.488   6.549
93491SOL    HW182305   8.439   7.477   6.639
93491SOL    HW282306   8.505   7.402   6.525
93492SOL     OW82307   2.664   4.843  10.871
93492SOL    HW182308   2.570   4.825  10.860
93492SOL    HW282309   2.708   4.771  10.825
93493SOL     OW82310  12.130  10.666   9.252
93493SOL    HW182311  12.200  10.673   9.316
93493SOL    HW282312  12.115  10.756   9.222
93494SOL     OW82313   4.323  14.803   6.088
93494SOL    HW182314   4.335  14.782   5.995
93494SOL    HW282315   4.408  14.786   6.128
93495SOL     OW82316   1.617  13.315  11.086
93495SOL    HW182317   1.712  13.310  11.099
93495SOL    HW282318   1.580  13.269  11.162
93496SOL     OW82319  12.776  10.651  11.365
93496SOL    HW182320  12.851  10.609  11.406
93496SOL    HW282321  12.794  10.745  11.373
93497SOL     OW82322   9.634   0.198   7.388
93497SOL    HW182323   9.709   0.251   7.363
93497SOL    HW282324   9.572   0.207   7.316
93498SOL     OW82325  14.117  10.387  10.106
93498SOL    HW182326  14.058  10.369  10.032
93498SOL    HW282327  14.103  10.480  10.126
93499SOL     OW82328   8.478  11.359   9.955
93499SOL    HW182329   8.384  11.343   9.965
93499SOL    HW282330   8.496  11.434  10.013
93500SOL     OW82331   5.048  13.409  14.415
93500SOL    HW182332   5.067  13.347  14.486
93500SOL    HW282333   5.068  13.495  14.453
93501SOL     OW82334   9.678   4.298   7.317
93501SOL    HW182335   9.688   4.205   7.341
93501SOL    HW282336   9.629   4.336   7.391
93502SOL     OW82337   0.483   2.153  10.110
93502SOL    HW182338   0.455   2.216  10.043
93502SOL    HW282339   0.574   2.133  10.088
93503SOL     OW82340   7.843   9.036   1.646
93503SOL    HW182341   7.751   9.013   1.660
93503SOL    HW282342   7.879   9.046   1.734
93504SOL     OW82343   1.109   1.561   1.847
93504SOL    HW182344   1.189   1.592   1.888
93504SOL    HW282345   1.128   1.559   1.754
93505SOL     OW82346  11.346  10.528   0.732
93505SOL    HW182347  11.345  10.595   0.800
93505SOL    HW282348  11.432  10.488   0.739
93506SOL     OW82349  12.322  13.928   3.176
93506SOL    HW182350  12.398  13.885   3.137
93506SOL    HW282351  12.359  13.997   3.231
93507SOL     OW82352   7.665   5.251   3.363
93507SOL    HW182353   7.669   5.228   3.456
93507SOL    HW282354   7.728   5.192   3.321
93508SOL     OW82355   0.709   2.902   2.494
93508SOL    HW182356   0.693   2.815   2.458
93508SOL    HW282357   0.629   2.951   2.474
93509SOL     OW82358   6.439   5.765  13.583
93509SOL    HW182359   6.347   5.791  13.590
93509SOL    HW282360   6.482   5.813  13.654
93510SOL     OW82361   8.016  10.942   4.966
93510SOL    HW182362   8.005  10.909   4.877
93510SOL    HW282363   7.931  10.929   5.008
93511SOL     OW82364   4.540  14.336  12.391
93511SOL    HW182365   4.472  14.276  12.361
93511SOL    HW282366   4.621  14.302  12.354
93512SOL     OW82367   9.711   5.648   4.062
93512SOL    HW182368   9.617   5.661   4.048
93512SOL    HW282369   9.718   5.559   4.095
93513SOL     OW82370   6.753  13.316  11.941
93513SOL    HW182371   6.686  13.378  11.969
93513SOL    HW282372   6.746  13.243  12.003
93514SOL     OW82373  10.760   6.916   1.055
93514SOL    HW182374  10.769   7.006   1.085
93514SOL    HW282375  10.703   6.874   1.120
93515SOL     OW82376   6.762  10.014   3.008
93515SOL    HW182377   6.848   9.996   2.971
93515SOL    HW282378   6.715   9.931   2.999
93516SOL     OW82379   7.662  14.272   4.776
93516SOL    HW182380   7.718  14.348   4.756
93516SOL    HW282381   7.599  14.270   4.703
93517SOL     OW82382   4.765   5.685   0.733
93517SOL    HW182383   4.806   5.662   0.650
93517SOL    HW282384   4.762   5.781   0.733
93518SOL     OW82385  13.457  12.166  12.129
93518SOL    HW182386  13.468  12.206  12.042
93518SOL    HW282387  13.365  12.181  12.151
93519SOL     OW82388  11.188   9.854  10.812
93519SOL    HW182389  11.113   9.824  10.863
93519SOL    HW282390  11.237   9.774  10.791
93520SOL     OW82391   0.474   1.623   1.570
93520SOL    HW182392   0.466   1.615   1.665
93520SOL    HW282393   0.447   1.712   1.551
93521SOL     OW82394   3.922  13.032   7.748
93521SOL    HW182395   3.984  13.009   7.680
93521SOL    HW282396   3.860  13.091   7.705
93522SOL     OW82397   2.123   5.211   8.439
93522SOL    HW182398   2.208   5.219   8.483
93522SOL    HW282399   2.066   5.170   8.504
93523SOL     OW82400   1.033   7.686   2.704
93523SOL    HW182401   0.956   7.703   2.758
93523SOL    HW282402   1.098   7.651   2.765
93524SOL     OW82403   8.642   9.638   6.208
93524SOL    HW182404   8.717   9.673   6.256
93524SOL    HW282405   8.575   9.624   6.275
93525SOL     OW82406  14.865  12.016   4.486
93525SOL    HW182407  14.851  11.934   4.534
93525SOL    HW282408   0.065  12.059   4.532
93526SOL     OW82409   9.916  12.366   6.914
93526SOL    HW182410   9.901  12.384   7.007
93526SOL    HW282411   9.992  12.418   6.891
93527SOL     OW82412  13.644  11.182   2.172
93527SOL    HW182413  13.628  11.190   2.077
93527SOL    HW282414  13.567  11.137   2.206
93528SOL     OW82415   4.326  12.972   4.565
93528SOL    HW182416   4.295  12.912   4.497
93528SOL    HW282417   4.296  12.933   4.647
93529SOL     OW82418   7.576   1.721  12.754
93529SOL    HW182419   7.582   1.814  12.779
93529SOL    HW282420   7.486   1.697  12.772
93530SOL     OW82421   4.060   5.181  12.050
93530SOL    HW182422   4.136   5.230  12.082
93530SOL    HW282423   4.048   5.112  12.115
93531SOL     OW82424  14.238   8.072  12.365
93531SOL    HW182425  14.328   8.086  12.394
93531SOL    HW282426  14.185   8.125  12.425
93532SOL     OW82427   0.844   8.683   6.515
93532SOL    HW182428   0.811   8.601   6.478
93532SOL    HW282429   0.855   8.740   6.439
93533SOL     OW82430   0.674  14.054   0.685
93533SOL    HW182431   0.593  14.010   0.661
93533SOL    HW282432   0.669  14.140   0.645
93534SOL     OW82433   1.157  11.323   4.395
93534SOL    HW182434   1.110  11.407   4.394
93534SOL    HW282435   1.088  11.257   4.386
93535SOL     OW82436  10.375  11.790   2.836
93535SOL    HW182437  10.455  11.837   2.858
93535SOL    HW282438  10.365  11.804   2.741
93536SOL     OW82439   5.249  14.814  12.110
93536SOL    HW182440   5.313  14.776  12.048
93536SOL    HW282441   5.285  14.794  12.196
93537SOL     OW82442   8.619   3.240   0.861
93537SOL    HW182443   8.668   3.172   0.816
93537SOL    HW282444   8.677   3.271   0.930
93538SOL     OW82445  12.730   6.846   1.988
93538SOL    HW182446  12.723   6.935   2.023
93538SOL    HW282447  12.783   6.855   1.909
93539SOL     OW82448   7.741  12.892  12.252
93539SOL    HW182449   7.682  12.929  12.186
93539SOL    HW282450   7.724  12.798  12.249
93540SOL     OW82451   7.932  14.191  11.113
93540SOL    HW182452   7.928  14.150  11.027
93540SOL    HW282453   7.877  14.269  11.106
93541SOL     OW82454  12.341  13.366   9.736
93541SOL    HW182455  12.364  13.355   9.828
93541SOL    HW282456  12.310  13.280   9.708
93542SOL     OW82457   2.089   4.933   7.011
93542SOL    HW182458   2.073   4.981   7.092
93542SOL    HW282459   2.162   4.979   6.969
93543SOL     OW82460  11.364   6.426  13.519
93543SOL    HW182461  11.388   6.354  13.578
93543SOL    HW282462  11.431   6.424  13.451
93544SOL     OW82463  13.072   4.214  13.430
93544SOL    HW182464  13.164   4.192  13.413
93544SOL    HW282465  13.076   4.305  13.459
93545SOL     OW82466  14.131   5.611   5.926
93545SOL    HW182467  14.220   5.625   5.893
93545SOL    HW282468  14.075   5.630   5.851
93546SOL     OW82469   8.122  10.727   7.484
93546SOL    HW182470   8.169  10.745   7.566
93546SOL    HW282471   8.121  10.811   7.438
93547SOL     OW82472  11.804  10.535  13.361
93547SOL    HW182473  11.892  10.513  13.330
93547SOL    HW282474  11.764  10.581  13.287
93548SOL     OW82475  13.497  12.882   0.116
93548SOL    HW182476  13.581  12.839   0.098
93548SOL    HW282477  13.512  12.974   0.096
93549SOL     OW82478  10.934   5.015  13.608
93549SOL    HW182479  10.863   5.055  13.557
93549SOL    HW282480  10.917   5.042  13.698
93550SOL     OW82481   4.446   0.168   0.330
93550SOL    HW182482   4.484   0.088   0.296
93550SOL    HW282483   4.467   0.235   0.265
93551SOL     OW82484   5.807   8.217   4.395
93551SOL    HW182485   5.786   8.204   4.303
93551SOL    HW282486   5.786   8.134   4.437
93552SOL     OW82487  12.481   8.525   6.970
93552SOL    HW182488  12.444   8.442   6.939
93552SOL    HW282489  12.516   8.505   7.056
93553SOL     OW82490   8.903   4.193   7.818
93553SOL    HW182491   8.810   4.197   7.838
93553SOL    HW282492   8.947   4.200   7.903
93554SOL     OW82493  10.370   8.173   3.799
93554SOL    HW182494  10.443   8.184   3.738
93554SOL    HW282495  10.410   8.184   3.885
93555SOL     OW82496   0.009  14.624   8.345
93555SOL    HW182497  14.853  14.533   8.353
93555SOL    HW282498   0.073  14.635   8.415
93556SOL     OW82499   6.320  13.694  13.264
93556SOL    HW182500   6.269  13.627  13.218
93556SOL    HW282501   6.388  13.719  13.202
93557SOL     OW82502  11.928   0.056   5.327
93557SOL    HW182503  11.959   0.042   5.238
93557SOL    HW282504  11.833   0.046   5.322
93558SOL     OW82505   1.720   3.297  13.990
93558SOL    HW182506   1.813   3.309  14.009
93558SOL    HW282507   1.710   3.203  13.975
93559SOL     OW82508  12.487   8.309   4.686
93559SOL    HW182509  12.436   8.244   4.637
93559SOL    HW282510  12.570   8.316   4.638
93560SOL     OW82511   2.562   1.576  10.669
93560SOL    HW182512   2.599   1.495  10.635
93560SOL    HW282513   2.472   1.578  10.635
93561SOL     OW82514  11.663  13.327   5.222
93561SOL    HW182515  11.569  13.313   5.229
93561SOL    HW282516  11.688  13.362   5.308
93562SOL     OW82517   1.590   6.117   3.797
93562SOL    HW182518   1.673   6.069   3.798
93562SOL    HW282519   1.527   6.054   3.762
93563SOL     OW82520  11.851   3.092   6.049
93563SOL    HW182521  11.906   3.112   5.973
93563SOL    HW282522  11.906   3.113   6.125
93564SOL     OW82523  14.562   6.768  11.776
93564SOL    HW182524  14.507   6.793  11.850
93564SOL    HW282525  14.617   6.845  11.761
93565SOL     OW82526   7.031   4.483   7.531
93565SOL    HW182527   7.118   4.471   7.493
93565SOL    HW282528   7.043   4.551   7.597
93566SOL     OW82529   8.453   0.468   9.412
93566SOL    HW182530   8.493   0.515   9.485
93566SOL    HW282531   8.376   0.425   9.450
93567SOL     OW82532   2.867  10.446   1.331
93567SOL    HW182533   2.870  10.375   1.267
93567SOL    HW282534   2.870  10.402   1.416
93568SOL     OW82535  13.114   4.112  12.585
93568SOL    HW182536  13.037   4.168  12.577
93568SOL    HW282537  13.161   4.146  12.661
93569SOL     OW82538   1.340   2.819   1.670
93569SOL    HW182539   1.364   2.730   1.694
93569SOL    HW282540   1.405   2.846   1.606
93570SOL     OW82541  13.728   0.392   0.594
93570SOL    HW182542  13.776   0.317   0.630
93570SOL    HW282543  13.637   0.374   0.616
93571SOL     OW82544   3.316   0.498  13.947
93571SOL    HW182545   3.267   0.426  13.908
93571SOL    HW282546   3.249   0.555  13.985
93572SOL     OW82547   8.366  11.240  10.218
93572SOL    HW182548   8.461  11.250  10.210
93572SOL    HW282549   8.343  11.182  10.146
93573SOL     OW82550   3.131   2.391   9.812
93573SOL    HW182551   3.047   2.438   9.816
93573SOL    HW282552   3.177   2.417   9.891
93574SOL     OW82553   5.052  13.855   0.368
93574SOL    HW182554   5.035  13.775   0.418
93574SOL    HW282555   5.110  13.906   0.423
93575SOL     OW82556   8.763  12.410   1.126
93575SOL    HW182557   8.795  12.498   1.147
93575SOL    HW282558   8.718  12.420   1.042
93576SOL     OW82559   4.707   1.318   4.796
93576SOL    HW182560   4.777   1.303   4.859
93576SOL    HW282561   4.724   1.256   4.725
93577SOL     OW82562   0.885  13.790  10.659
93577SOL    HW182563   0.864  13.812  10.750
93577SOL    HW282564   0.929  13.868  10.625
93578SOL     OW82565  10.124   5.979   9.848
93578SOL    HW182566  10.176   5.952   9.924
93578SOL    HW282567  10.175   5.949   9.773
93579SOL     OW82568  12.511  14.840  10.420
93579SOL    HW182569  12.495   0.062  10.413
93579SOL    HW282570  12.547  14.828  10.508
93580SOL     OW82571   6.790  14.285   5.234
93580SOL    HW182572   6.827  14.223   5.297
93580SOL    HW282573   6.727  14.233   5.184
93581SOL     OW82574  10.950   7.136  11.125
93581SOL    HW182575  10.928   7.044  11.138
93581SOL    HW282576  10.990   7.139  11.038
93582SOL     OW82577  11.191  10.413  13.358
93582SOL    HW182578  11.172  10.505  13.379
93582SOL    HW282579  11.235  10.380  13.435
93583SOL     OW82580   0.592   5.033  14.603
93583SOL    HW182581   0.569   4.940  14.606
93583SOL    HW282582   0.530   5.075  14.663
93584SOL     OW82583   7.712   9.752   1.602
93584SOL    HW182584   7.745   9.839   1.625
93584SOL    HW282585   7.784   9.712   1.552
93585SOL     OW82586   0.865   9.912   2.817
93585SOL    HW182587   0.899   9.833   2.775
93585SOL    HW282588   0.934   9.977   2.806
93586SOL     OW82589   4.120   7.573  13.149
93586SOL    HW182590   4.215   7.578  13.162
93586SOL    HW282591   4.106   7.613  13.063
93587SOL     OW82592   3.401  14.238   1.828
93587SOL    HW182593   3.362  14.320   1.799
93587SOL    HW282594   3.437  14.258   1.915
93588SOL     OW82595  11.993   5.052  12.749
93588SOL    HW182596  12.036   5.107  12.684
93588SOL    HW282597  11.917   5.016  12.703
93589SOL     OW82598   2.906  11.621   7.797
93589SOL    HW182599   2.842  11.602   7.866
93589SOL    HW282600   2.990  11.598   7.835
93590SOL     OW82601   2.253   4.372   7.643
93590SOL    HW182602   2.161   4.368   7.671
93590SOL    HW282603   2.301   4.329   7.713
93591SOL     OW82604  14.236  13.257   8.489
93591SOL    HW182605  14.260  13.179   8.437
93591SOL    HW282606  14.270  13.239   8.576
93592SOL     OW82607   4.749   8.028  14.572
93592SOL    HW182608   4.716   8.072  14.650
93592SOL    HW282609   4.840   8.006  14.593
93593SOL     OW82610   2.190   2.152  11.271
93593SOL    HW182611   2.115   2.207  11.251
93593SOL    HW282612   2.221   2.121  11.186
93594SOL     OW82613   4.943   0.113  14.243
93594SOL    HW182614   4.958   0.110  14.148
93594SOL    HW282615   5.015   0.167  14.277
93595SOL     OW82616   4.715  12.618  13.654
93595SOL    HW182617   4.790  12.675  13.670
93595SOL    HW282618   4.741  12.565  13.578
93596SOL     OW82619  11.370   3.163   2.932
93596SOL    HW182620  11.384   3.086   2.876
93596SOL    HW282621  11.346   3.127   3.017
93597SOL     OW82622  12.669   1.437  13.606
93597SOL    HW182623  12.748   1.484  13.580
93597SOL    HW282624  12.694   1.392  13.687
93598SOL     OW82625   6.200   7.151  11.963
93598SOL    HW182626   6.200   7.217  12.032
93598SOL    HW282627   6.220   7.200  11.883
93599SOL     OW82628   8.401   4.659  14.817
93599SOL    HW182629   8.375   4.748  14.840
93599SOL    HW282630   8.424   4.664  14.724
93600SOL     OW82631   9.401  12.571   8.725
93600SOL    HW182632   9.319  12.569   8.775
93600SOL    HW282633   9.393  12.498   8.665
93601SOL     OW82634  11.258   7.959  14.693
93601SOL    HW182635  11.325   7.950  14.625
93601SOL    HW282636  11.299   8.014  14.760
93602SOL     OW82637   9.400   1.297   3.232
93602SOL    HW182638   9.450   1.372   3.202
93602SOL    HW282639   9.308   1.321   3.216
93603SOL     OW82640   9.620   6.608   0.842
93603SOL    HW182641   9.561   6.676   0.809
93603SOL    HW282642   9.610   6.611   0.937
93604SOL     OW82643   7.607  10.873  14.599
93604SOL    HW182644   7.681  10.933  14.611
93604SOL    HW282645   7.530  10.925  14.622
93605SOL     OW82646  10.621  13.426  10.388
93605SOL    HW182647  10.606  13.414  10.295
93605SOL    HW282648  10.714  13.448  10.395
93606SOL     OW82649   9.205   7.349   3.338
93606SOL    HW182650   9.231   7.329   3.248
93606SOL    HW282651   9.119   7.390   3.329
93607SOL     OW82652   8.370   4.688   7.906
93607SOL    HW182653   8.324   4.744   7.968
93607SOL    HW282654   8.460   4.685   7.938
93608SOL     OW82655   3.382  11.185   7.449
93608SOL    HW182656   3.290  11.174   7.472
93608SOL    HW282657   3.416  11.096   7.443
93609SOL     OW82658  10.703   8.625  10.272
93609SOL    HW182659  10.711   8.714  10.238
93609SOL    HW282660  10.789   8.604  10.307
93610SOL     OW82661   5.128   5.999   9.147
93610SOL    HW182662   5.057   6.006   9.083
93610SOL    HW282663   5.085   6.014   9.232
93611SOL     OW82664   8.765   7.732  13.792
93611SOL    HW182665   8.679   7.749  13.754
93611SOL    HW282666   8.786   7.642  13.765
93612SOL     OW82667   0.184  11.089  10.299
93612SOL    HW182668   0.156  11.000  10.278
93612SOL    HW282669   0.120  11.146  10.256
93613SOL     OW82670  11.222  14.641   7.667
93613SOL    HW182671  11.308  14.684   7.673
93613SOL    HW282672  11.201  14.643   7.574
93614SOL     OW82673   8.358   9.647   9.661
93614SOL    HW182674   8.317   9.663   9.576
93614SOL    HW282675   8.286   9.650   9.724
93615SOL     OW82676   0.695   0.740   9.827
93615SOL    HW182677   0.683   0.802   9.755
93615SOL    HW282678   0.669   0.656   9.791
93616SOL     OW82679   1.846   6.457   1.336
93616SOL    HW182680   1.912   6.432   1.401
93616SOL    HW282681   1.848   6.552   1.334
93617SOL     OW82682   3.010   5.201  10.985
93617SOL    HW182683   3.078   5.185  11.050
93617SOL    HW282684   3.042   5.156  10.906
93618SOL     OW82685   6.322   7.173   0.272
93618SOL    HW182686   6.318   7.080   0.295
93618SOL    HW282687   6.406   7.203   0.308
93619SOL     OW82688   1.986   8.440   7.750
93619SOL    HW182689   1.979   8.533   7.729
93619SOL    HW282690   2.068   8.432   7.798
93620SOL     OW82691  10.573  11.135   0.074
93620SOL    HW182692  10.594  11.050   0.111
93620SOL    HW282693  10.477  11.138   0.075
93621SOL     OW82694   6.115  14.609   8.049
93621SOL    HW182695   6.092  14.654   8.130
93621SOL    HW282696   6.134  14.519   8.075
93622SOL     OW82697  12.266  14.749   5.456
93622SOL    HW182698  12.361  14.762   5.452
93622SOL    HW282699  12.255  14.669   5.509
93623SOL     OW82700  10.791  14.454  10.554
93623SOL    HW182701  10.856  14.516  10.523
93623SOL    HW282702  10.779  14.393  10.482
93624SOL     OW82703   8.936   0.396   4.933
93624SOL    HW182704   8.956   0.328   4.869
93624SOL    HW282705   9.008   0.391   4.996
93625SOL     OW82706   2.501   2.490  12.873
93625SOL    HW182707   2.585   2.498  12.829
93625SOL    HW282708   2.509   2.545  12.951
93626SOL     OW82709   1.053   2.825   0.926
93626SOL    HW182710   0.969   2.851   0.888
93626SOL    HW282711   1.119   2.872   0.874
93627SOL     OW82712   4.835   0.168  12.336
93627SOL    HW182713   4.776   0.151  12.263
93627SOL    HW282714   4.779   0.168  12.413
93628SOL     OW82715  12.720   9.089   6.273
93628SOL    HW182716  12.812   9.080   6.249
93628SOL    HW282717  12.672   9.044   6.204
93629SOL     OW82718  11.616   1.298   5.867
93629SOL    HW182719  11.535   1.267   5.827
93629SOL    HW282720  11.611   1.393   5.860
93630SOL     OW82721   3.005   1.982   0.183
93630SOL    HW182722   3.005   1.936   0.099
93630SOL    HW282723   3.002   1.912   0.248
93631SOL     OW82724   6.391   9.572   7.630
93631SOL    HW182725   6.465   9.617   7.673
93631SOL    HW282726   6.433   9.509   7.572
93632SOL     OW82727   8.185   5.949  10.707
93632SOL    HW182728   8.105   5.915  10.746
93632SOL    HW282729   8.169   5.944  10.613
93633SOL     OW82730  11.838   0.705   4.741
93633SOL    HW182731  11.759   0.757   4.756
93633SOL    HW282732  11.821   0.622   4.785
93634SOL     OW82733   1.115  11.384   5.045
93634SOL    HW182734   1.184  11.340   4.996
93634SOL    HW282735   1.160  11.426   5.118
93635SOL     OW82736   2.443  14.024   1.100
93635SOL    HW182737   2.415  14.060   1.016
93635SOL    HW282738   2.534  14.051   1.108
93636SOL     OW82739   8.919   9.510   0.022
93636SOL    HW182740   8.985   9.451  14.857
93636SOL    HW282741   8.837   9.482  14.853
93637SOL     OW82742  11.306   9.989   6.572
93637SOL    HW182743  11.228  10.014   6.522
93637SOL    HW282744  11.340  10.071   6.605
93638SOL     OW82745   7.391   6.146   9.969
93638SOL    HW182746   7.299   6.147   9.994
93638SOL    HW282747   7.404   6.229   9.922
93639SOL     OW82748   6.700   6.890   2.219
93639SOL    HW182749   6.657   6.959   2.169
93639SOL    HW282750   6.644   6.814   2.210
93640SOL     OW82751   5.814  12.695   9.091
93640SOL    HW182752   5.729  12.739   9.092
93640SOL    HW282753   5.861  12.733   9.017
93641SOL     OW82754   8.113  13.878  11.601
93641SOL    HW182755   8.126  13.964  11.561
93641SOL    HW282756   8.105  13.896  11.695
93642SOL     OW82757   3.417   3.303  13.648
93642SOL    HW182758   3.430   3.243  13.575
93642SOL    HW282759   3.443   3.389  13.613
93643SOL     OW82760  12.697   4.151  14.157
93643SOL    HW182761  12.698   4.097  14.078
93643SOL    HW282762  12.657   4.233  14.130
93644SOL     OW82763  12.939  14.611   5.428
93644SOL    HW182764  12.943  14.523   5.391
93644SOL    HW282765  12.849  14.640   5.410
93645SOL     OW82766  11.397   6.048  12.127
93645SOL    HW182767  11.306   6.026  12.146
93645SOL    HW282768  11.413   6.128  12.177
93646SOL     OW82769   4.950   9.686   5.397
93646SOL    HW182770   4.987   9.600   5.378
93646SOL    HW282771   5.003   9.720   5.468
93647SOL     OW82772   5.378  12.798   2.524
93647SOL    HW182773   5.457  12.760   2.562
93647SOL    HW282774   5.376  12.765   2.434
93648SOL     OW82775  10.074   2.732   2.816
93648SOL    HW182776  10.139   2.662   2.825
93648SOL    HW282777  10.007   2.696   2.758
93649SOL     OW82778   3.431  11.212   5.018
93649SOL    HW182779   3.401  11.145   4.956
93649SOL    HW282780   3.371  11.285   5.005
93650SOL     OW82781  11.224   2.992   3.976
93650SOL    HW182782  11.237   2.904   4.013
93650SOL    HW282783  11.281   2.993   3.898
93651SOL     OW82784   3.175   8.817   9.977
93651SOL    HW182785   3.235   8.750  10.009
93651SOL    HW282786   3.224   8.899   9.982
93652SOL     OW82787   5.063   0.705   5.807
93652SOL    HW182788   5.146   0.679   5.769
93652SOL    HW282789   5.058   0.659   5.891
93653SOL     OW82790   4.278   2.750  12.117
93653SOL    HW182791   4.247   2.667  12.080
93653SOL    HW282792   4.214   2.772  12.185
93654SOL     OW82793   3.349   2.651   2.646
93654SOL    HW182794   3.392   2.594   2.583
93654SOL    HW282795   3.406   2.728   2.652
93655SOL     OW82796  12.861  14.208   0.944
93655SOL    HW182797  12.860  14.295   0.905
93655SOL    HW282798  12.859  14.148   0.869
93656SOL     OW82799   9.766  11.946  11.246
93656SOL    HW182800   9.811  12.019  11.288
93656SOL    HW282801   9.682  11.983  11.218
93657SOL     OW82802   4.328  10.805  14.659
93657SOL    HW182803   4.386  10.763  14.722
93657SOL    HW282804   4.385  10.830  14.586
93658SOL     OW82805   8.632   1.069   6.370
93658SOL    HW182806   8.574   1.124   6.423
93658SOL    HW282807   8.583   0.987   6.359
93659SOL     OW82808  12.832   5.498   0.233
93659SOL    HW182809  12.837   5.472   0.141
93659SOL    HW282810  12.923   5.509   0.260
93660SOL     OW82811   0.470   3.722   9.448
93660SOL    HW182812   0.542   3.779   9.473
93660SOL    HW282813   0.424   3.771   9.379
93661SOL     OW82814   5.705  13.396   9.823
93661SOL    HW182815   5.746  13.317   9.787
93661SOL    HW282816   5.617  13.368   9.849
93662SOL     OW82817  11.994  13.165  13.020
93662SOL    HW182818  11.930  13.094  13.024
93662SOL    HW282819  11.976  13.208  12.936
93663SOL     OW82820   9.799   4.353   6.122
93663SOL    HW182821   9.878   4.316   6.084
93663SOL    HW282822   9.802   4.329   6.214
93664SOL     OW82823   2.840   8.407  11.739
93664SOL    HW182824   2.756   8.393  11.695
93664SOL    HW282825   2.830   8.364  11.824
93665SOL     OW82826   3.303   1.262   8.770
93665SOL    HW182827   3.312   1.179   8.723
93665SOL    HW282828   3.254   1.318   8.710
93666SOL     OW82829   4.095   6.600   6.691
93666SOL    HW182830   4.189   6.588   6.696
93666SOL    HW282831   4.071   6.641   6.774
93667SOL     OW82832   6.524   5.314   7.713
93667SOL    HW182833   6.523   5.279   7.802
93667SOL    HW282834   6.432   5.310   7.685
93668SOL     OW82835  10.824   0.213  10.162
93668SOL    HW182836  10.766   0.256  10.224
93668SOL    HW282837  10.858   0.137  10.209
93669SOL     OW82838   2.385   9.254   2.762
93669SOL    HW182839   2.346   9.342   2.771
93669SOL    HW282840   2.391   9.240   2.668
93670SOL     OW82841   1.250   1.419   9.890
93670SOL    HW182842   1.334   1.385   9.858
93670SOL    HW282843   1.185   1.384   9.829
93671SOL     OW82844   9.481   7.149   3.679
93671SOL    HW182845   9.491   7.192   3.593
93671SOL    HW282846   9.391   7.116   3.679
93672SOL     OW82847   0.612  12.774   4.009
93672SOL    HW182848   0.596  12.705   4.073
93672SOL    HW282849   0.687  12.822   4.044
93673SOL     OW82850   3.201  14.865   2.590
93673SOL    HW182851   3.286   0.009   2.549
93673SOL    HW282852   3.142   0.053   2.545
93674SOL     OW82853   4.597   8.624   1.517
93674SOL    HW182854   4.683   8.642   1.556
93674SOL    HW282855   4.590   8.687   1.446
93675SOL     OW82856  13.810   7.866  14.713
93675SOL    HW182857  13.804   7.957  14.687
93675SOL    HW282858  13.845   7.868  14.802
93676SOL     OW82859   2.441  11.142   1.616
93676SOL    HW182860   2.500  11.149   1.541
93676SOL    HW282861   2.489  11.184   1.687
93677SOL     OW82862  14.313  11.413   7.666
93677SOL    HW182863  14.267  11.484   7.621
93677SOL    HW282864  14.269  11.334   7.637
93678SOL     OW82865  12.092  10.684   4.311
93678SOL    HW182866  12.160  10.721   4.367
93678SOL    HW282867  12.018  10.668   4.371
93679SOL     OW82868   7.918  12.399   7.921
93679SOL    HW182869   7.928  12.377   8.014
93679SOL    HW282870   7.864  12.329   7.885
93680SOL     OW82871  12.405  10.817   6.325
93680SOL    HW182872  12.425  10.753   6.258
93680SOL    HW282873  12.313  10.840   6.311
93681SOL     OW82874  14.013   4.526   8.049
93681SOL    HW182875  14.080   4.532   7.981
93681SOL    HW282876  14.024   4.438   8.086
93682SOL     OW82877  13.665   2.763   1.990
93682SOL    HW182878  13.613   2.809   1.925
93682SOL    HW282879  13.740   2.729   1.941
93683SOL     OW82880   2.889   6.811   7.124
93683SOL    HW182881   2.798   6.818   7.152
93683SOL    HW282882   2.926   6.898   7.140
93684SOL     OW82883   0.300   3.331   2.669
93684SOL    HW182884   0.273   3.240   2.656
93684SOL    HW282885   0.276   3.375   2.587
93685SOL     OW82886   0.589  12.949   9.168
93685SOL    HW182887   0.655  12.885   9.193
93685SOL    HW282888   0.515  12.931   9.226
93686SOL     OW82889  12.041   0.838   5.594
93686SOL    HW182890  12.057   0.744   5.588
93686SOL    HW282891  11.992   0.849   5.675
93687SOL     OW82892  10.471   3.772   9.533
93687SOL    HW182893  10.478   3.708   9.462
93687SOL    HW282894  10.377   3.781   9.549
93688SOL     OW82895   9.929  14.498   4.142
93688SOL    HW182896  10.015  14.539   4.128
93688SOL    HW282897   9.867  14.570   4.133
93689SOL     OW82898   1.532   7.004   2.624
93689SOL    HW182899   1.561   6.964   2.705
93689SOL    HW282900   1.564   6.946   2.555
93690SOL     OW82901   9.266  12.271   2.164
93690SOL    HW182902   9.220  12.215   2.101
93690SOL    HW282903   9.343  12.221   2.188
93691SOL     OW82904   2.369   2.420   6.925
93691SOL    HW182905   2.395   2.328   6.915
93691SOL    HW282906   2.425   2.467   6.864
93692SOL     OW82907   6.802   7.199   7.876
93692SOL    HW182908   6.722   7.159   7.843
93692SOL    HW282909   6.783   7.220   7.968
93693SOL     OW82910   0.901   8.326   7.969
93693SOL    HW182911   0.866   8.252   8.019
93693SOL    HW282912   0.989   8.341   8.006
93694SOL     OW82913   1.406   0.235   7.507
93694SOL    HW182914   1.450   0.304   7.556
93694SOL    HW282915   1.422   0.258   7.415
93695SOL     OW82916   0.636   0.565   2.192
93695SOL    HW182917   0.697   0.620   2.242
93695SOL    HW282918   0.564   0.548   2.254
93696SOL     OW82919   1.319  14.375  10.633
93696SOL    HW182920   1.368  14.299  10.665
93696SOL    HW282921   1.227  14.349  10.638
93697SOL     OW82922  10.321  12.207  10.954
93697SOL    HW182923  10.246  12.238  10.902
93697SOL    HW282924  10.312  12.112  10.955
93698SOL     OW82925   4.425   1.226  12.699
93698SOL    HW182926   4.351   1.270  12.658
93698SOL    HW282927   4.386   1.155  12.749
93699SOL     OW82928   3.290   4.940   2.431
93699SOL    HW182929   3.235   5.014   2.407
93699SOL    HW282930   3.228   4.875   2.465
93700SOL     OW82931   0.697   1.134  13.538
93700SOL    HW182932   0.629   1.200  13.552
93700SOL    HW282933   0.651   1.059  13.500
93701SOL     OW82934   5.714   7.784  10.987
93701SOL    HW182935   5.684   7.846  11.053
93701SOL    HW282936   5.694   7.826  10.903
93702SOL     OW82937   7.009   8.559   5.660
93702SOL    HW182938   7.035   8.650   5.645
93702SOL    HW282939   7.015   8.548   5.755
93703SOL     OW82940   1.456  14.583  11.580
93703SOL    HW182941   1.462  14.518  11.510
93703SOL    HW282942   1.538  14.633  11.573
93704SOL     OW82943   8.909   6.556   8.018
93704SOL    HW182944   8.902   6.482   7.958
93704SOL    HW282945   8.867   6.526   8.098
93705SOL     OW82946   6.785   6.743   7.313
93705SOL    HW182947   6.814   6.779   7.396
93705SOL    HW282948   6.857   6.687   7.284
93706SOL     OW82949   7.260   6.472  14.191
93706SOL    HW182950   7.302   6.552  14.160
93706SOL    HW282951   7.285   6.466  14.283
93707SOL     OW82952   3.280   5.055  11.387
93707SOL    HW182953   3.259   5.015  11.471
93707SOL    HW282954   3.348   4.999  11.350
93708SOL     OW82955   1.611   2.779  10.128
93708SOL    HW182956   1.663   2.779  10.208
93708SOL    HW282957   1.645   2.704  10.078
93709SOL     OW82958   9.829  12.740   9.489
93709SOL    HW182959   9.905  12.798   9.488
93709SOL    HW282960   9.836  12.689   9.409
93710SOL     OW82961   3.829   1.537  14.377
93710SOL    HW182962   3.834   1.521  14.282
93710SOL    HW282963   3.843   1.451  14.417
93711SOL     OW82964   6.086   2.197  12.045
93711SOL    HW182965   6.141   2.193  12.124
93711SOL    HW282966   6.122   2.270  11.995
93712SOL     OW82967   5.094   3.879   5.502
93712SOL    HW182968   5.067   3.797   5.462
93712SOL    HW282969   5.108   3.938   5.428
93713SOL     OW82970   0.547  10.333   8.919
93713SOL    HW182971   0.512  10.286   8.996
93713SOL    HW282972   0.593  10.266   8.869
93714SOL     OW82973  12.367   4.512   8.571
93714SOL    HW182974  12.417   4.554   8.640
93714SOL    HW282975  12.308   4.580   8.538
93715SOL     OW82976   7.181  11.392  12.960
93715SOL    HW182977   7.123  11.345  12.901
93715SOL    HW282978   7.249  11.328  12.983
93716SOL     OW82979   6.035   5.657  10.333
93716SOL    HW182980   6.066   5.582  10.385
93716SOL    HW282981   5.944   5.636  10.313
93717SOL     OW82982   4.845   6.635   8.315
93717SOL    HW182983   4.826   6.578   8.389
93717SOL    HW282984   4.898   6.705   8.351
93718SOL     OW82985   8.536   4.378   7.136
93718SOL    HW182986   8.512   4.291   7.166
93718SOL    HW282987   8.631   4.374   7.123
93719SOL     OW82988  13.369   6.170   2.340
93719SOL    HW182989  13.410   6.227   2.275
93719SOL    HW282990  13.362   6.224   2.419
93720SOL     OW82991  10.162   7.850  11.646
93720SOL    HW182992  10.124   7.879  11.729
93720SOL    HW282993  10.256   7.865  11.657
93721SOL     OW82994  11.657  12.131   1.338
93721SOL    HW182995  11.684  12.192   1.269
93721SOL    HW282996  11.738  12.084   1.360
93722SOL     OW82997  10.269   0.968  11.505
93722SOL    HW182998  10.298   1.043  11.557
93722SOL    HW282999  10.315   0.977  11.421
93723SOL     OW83000   4.893   3.201  10.035
93723SOL    HW183001   4.971   3.147  10.024
93723SOL    HW283002   4.922   3.276  10.086
93724SOL     OW83003   2.504  10.784   3.365
93724SOL    HW183004   2.444  10.817   3.432
93724SOL    HW283005   2.562  10.858   3.346
93725SOL     OW83006   8.730   7.413   0.047
93725SOL    HW183007   8.680   7.450   0.120
93725SOL    HW283008   8.671   7.420  14.844
93726SOL     OW83009   9.133   5.821  10.583
93726SOL    HW183010   9.208   5.874  10.609
93726SOL    HW283011   9.170   5.746  10.536
93727SOL     OW83012   2.310  10.150   7.437
93727SOL    HW183013   2.290  10.056   7.436
93727SOL    HW283014   2.369  10.161   7.512
93728SOL     OW83015  13.599  10.179   6.938
93728SOL    HW183016  13.647  10.241   6.993
93728SOL    HW283017  13.560  10.118   7.001
93729SOL     OW83018   6.490   7.574  14.842
93729SOL    HW183019   6.522   7.662  14.861
93729SOL    HW283020   6.442   7.548   0.049
93730SOL     OW83021  10.893   8.512  14.412
93730SOL    HW183022  10.969   8.484  14.361
93730SOL    HW283023  10.898   8.461  14.493
93731SOL     OW83024   4.838   7.912   4.329
93731SOL    HW183025   4.862   7.826   4.296
93731SOL    HW283026   4.771   7.943   4.268
93732SOL     OW83027   5.886  11.324  12.398
93732SOL    HW183028   5.807  11.313  12.345
93732SOL    HW283029   5.881  11.414  12.430
93733SOL     OW83030   7.227   2.821   1.335
93733SOL    HW183031   7.229   2.833   1.430
93733SOL    HW283032   7.252   2.729   1.322
93734SOL     OW83033   1.102  10.766   5.653
93734SOL    HW183034   1.009  10.751   5.667
93734SOL    HW283035   1.106  10.821   5.575
93735SOL     OW83036   4.746   6.308   9.520
93735SOL    HW183037   4.739   6.245   9.449
93735SOL    HW283038   4.690   6.272   9.589
93736SOL     OW83039  11.449   3.041  12.360
93736SOL    HW183040  11.536   3.074  12.338
93736SOL    HW283041  11.465   2.955  12.398
93737SOL     OW83042   1.285  12.901  10.196
93737SOL    HW183043   1.342  12.825  10.214
93737SOL    HW283044   1.214  12.893  10.259
93738SOL     OW83045   5.541   5.474   2.533
93738SOL    HW183046   5.475   5.438   2.474
93738SOL    HW283047   5.504   5.558   2.561
93739SOL     OW83048   3.568   7.189   8.532
93739SOL    HW183049   3.526   7.239   8.602
93739SOL    HW283050   3.626   7.252   8.490
93740SOL     OW83051  10.289  13.381  13.249
93740SOL    HW183052  10.381  13.369  13.274
93740SOL    HW283053  10.249  13.421  13.326
93741SOL     OW83054   2.043  10.585   9.285
93741SOL    HW183055   2.041  10.503   9.334
93741SOL    HW283056   2.137  10.603   9.273
93742SOL     OW83057  10.293   4.573  12.008
93742SOL    HW183058  10.325   4.581  12.098
93742SOL    HW283059  10.198   4.566  12.017
93743SOL     OW83060   8.415   8.242   4.969
93743SOL    HW183061   8.386   8.187   5.042
93743SOL    HW283062   8.334   8.280   4.934
93744SOL     OW83063   0.141  10.417  11.186
93744SOL    HW183064   0.098  10.500  11.205
93744SOL    HW283065   0.205  10.438  11.118
93745SOL     OW83066   1.859  14.323   2.725
93745SOL    HW183067   1.846  14.400   2.781
93745SOL    HW283068   1.826  14.250   2.777
93746SOL     OW83069  12.636  10.682   9.098
93746SOL    HW183070  12.615  10.701   9.189
93746SOL    HW283071  12.638  10.767   9.055
93747SOL     OW83072  14.867  13.106  12.386
93747SOL    HW183073   0.049  13.078  12.459
93747SOL    HW283074   0.044  13.080  12.308
93748SOL     OW83075  10.346   0.787  14.154
93748SOL    HW183076  10.329   0.870  14.109
93748SOL    HW283077  10.275   0.780  14.218
93749SOL     OW83078   1.660   1.054   5.638
93749SOL    HW183079   1.596   1.067   5.567
93749SOL    HW283080   1.631   0.973   5.680
93750SOL     OW83081   2.628   6.158   6.494
93750SOL    HW183082   2.686   6.232   6.507
93750SOL    HW283083   2.686   6.085   6.475
93751SOL     OW83084   3.092   2.253   4.622
93751SOL    HW183085   3.069   2.286   4.535
93751SOL    HW283086   3.041   2.172   4.631
93752SOL     OW83087   3.651   3.963   3.886
93752SOL    HW183088   3.564   4.003   3.875
93752SOL    HW283089   3.643   3.912   3.967
93753SOL     OW83090   0.778   4.085   6.453
93753SOL    HW183091   0.859   4.034   6.448
93753SOL    HW283092   0.776   4.119   6.543
93754SOL     OW83093   1.039   8.185   8.781
93754SOL    HW183094   0.990   8.246   8.836
93754SOL    HW283095   1.099   8.241   8.731
93755SOL     OW83096  10.156   4.904   7.362
93755SOL    HW183097  10.092   4.836   7.383
93755SOL    HW283098  10.179   4.942   7.447
93756SOL     OW83099   8.880   2.217  10.124
93756SOL    HW183100   8.863   2.311  10.115
93756SOL    HW283101   8.867   2.182  10.036
93757SOL     OW83102  11.920  14.750   6.013
93757SOL    HW183103  11.928  14.669   5.963
93757SOL    HW283104  11.881  14.812   5.951
93758SOL     OW83105   3.092   0.485  10.088
93758SOL    HW183106   3.066   0.408  10.037
93758SOL    HW283107   3.058   0.559  10.038
93759SOL     OW83108  14.695   2.970   8.402
93759SOL    HW183109  14.674   3.054   8.361
93759SOL    HW283110  14.616   2.947   8.451
93760SOL     OW83111  13.072   3.640   2.589
93760SOL    HW183112  13.036   3.680   2.667
93760SOL    HW283113  13.118   3.562   2.620
93761SOL     OW83114  12.212  10.790   0.438
93761SOL    HW183115  12.303  10.815   0.421
93761SOL    HW283116  12.203  10.795   0.533
93762SOL     OW83117  12.365   0.077  13.440
93762SOL    HW183118  12.397   0.161  13.406
93762SOL    HW283119  12.327   0.033  13.364
93763SOL     OW83120  13.290   1.369  11.946
93763SOL    HW183121  13.264   1.397  12.034
93763SOL    HW283122  13.244   1.286  11.932
93764SOL     OW83123   0.912  11.937   6.647
93764SOL    HW183124   0.934  11.963   6.558
93764SOL    HW283125   0.980  11.978   6.701
93765SOL     OW83126   8.472   0.529  11.822
93765SOL    HW183127   8.454   0.619  11.795
93765SOL    HW283128   8.456   0.529  11.916
93766SOL     OW83129  14.808  11.460   2.018
93766SOL    HW183130  14.810  11.376   2.063
93766SOL    HW283131  14.816  11.438   1.925
93767SOL     OW83132   2.001  14.339   5.758
93767SOL    HW183133   2.026  14.262   5.707
93767SOL    HW283134   2.000  14.411   5.695
93768SOL     OW83135  11.413   3.381   8.903
93768SOL    HW183136  11.456   3.400   8.986
93768SOL    HW283137  11.382   3.466   8.873
93769SOL     OW83138   5.000   6.560   2.847
93769SOL    HW183139   5.025   6.621   2.778
93769SOL    HW283140   4.986   6.477   2.802
93770SOL     OW83141   3.749   6.335   5.241
93770SOL    HW183142   3.785   6.295   5.320
93770SOL    HW283143   3.801   6.298   5.170
93771SOL     OW83144   6.702   3.821   6.954
93771SOL    HW183145   6.668   3.883   6.889
93771SOL    HW283146   6.705   3.871   7.035
93772SOL     OW83147   8.217   7.559   9.967
93772SOL    HW183148   8.175   7.488  10.015
93772SOL    HW283149   8.215   7.633  10.028
93773SOL     OW83150   0.949   4.971  14.487
93773SOL    HW183151   0.929   4.917  14.563
93773SOL    HW283152   1.015   4.921  14.439
93774SOL     OW83153   7.480  13.539   5.278
93774SOL    HW183154   7.400  13.591   5.275
93774SOL    HW283155   7.518  13.548   5.191
93775SOL     OW83156   1.395  11.460   0.806
93775SOL    HW183157   1.363  11.474   0.895
93775SOL    HW283158   1.318  11.436   0.755
93776SOL     OW83159   2.163   0.549   7.609
93776SOL    HW183160   2.175   0.633   7.565
93776SOL    HW283161   2.111   0.497   7.548
93777SOL     OW83162   1.854   5.488   6.194
93777SOL    HW183163   1.892   5.443   6.270
93777SOL    HW283164   1.768   5.516   6.224
93778SOL     OW83165  10.478   4.254  10.149
93778SOL    HW183166  10.472   4.347  10.173
93778SOL    HW283167  10.519   4.254  10.063
93779SOL     OW83168   5.118   3.268   1.530
93779SOL    HW183169   5.127   3.347   1.477
93779SOL    HW283170   5.167   3.201   1.482
93780SOL     OW83171   8.846   9.685   2.631
93780SOL    HW183172   8.883   9.673   2.544
93780SOL    HW283173   8.771   9.743   2.618
93781SOL     OW83174  11.015  10.958   9.423
93781SOL    HW183175  11.029  11.051   9.407
93781SOL    HW283176  10.921  10.951   9.443
93782SOL     OW83177  12.295  13.911   3.986
93782SOL    HW183178  12.305  13.936   3.894
93782SOL    HW283179  12.278  13.994   4.031
93783SOL     OW83180   2.960  13.534   2.464
93783SOL    HW183181   2.924  13.613   2.505
93783SOL    HW283182   2.890  13.502   2.408
93784SOL     OW83183   7.767  13.825  14.630
93784SOL    HW183184   7.782  13.903  14.684
93784SOL    HW283185   7.696  13.849  14.570
93785SOL     OW83186   1.817   2.377   3.002
93785SOL    HW183187   1.772   2.312   3.056
93785SOL    HW283188   1.765   2.383   2.922
93786SOL     OW83189   1.364   9.406  11.023
93786SOL    HW183190   1.368   9.457  11.104
93786SOL    HW283191   1.302   9.335  11.042
93787SOL     OW83192   4.979  10.363  10.370
93787SOL    HW183193   4.987  10.269  10.384
93787SOL    HW283194   5.060  10.388  10.326
93788SOL     OW83195   6.492  12.482   5.026
93788SOL    HW183196   6.408  12.529   5.024
93788SOL    HW283197   6.509  12.467   5.119
93789SOL     OW83198   5.407   4.894  12.420
93789SOL    HW183199   5.495   4.858  12.423
93789SOL    HW283200   5.405   4.958  12.491
93790SOL     OW83201   7.184   7.802  10.832
93790SOL    HW183202   7.231   7.870  10.784
93790SOL    HW283203   7.246   7.729  10.836
93791SOL     OW83204  13.087  13.978   0.937
93791SOL    HW183205  13.014  13.919   0.957
93791SOL    HW283206  13.144  13.928   0.879
93792SOL     OW83207   4.917   6.473  10.722
93792SOL    HW183208   4.925   6.412  10.795
93792SOL    HW283209   4.932   6.419  10.644
93793SOL     OW83210   6.260   9.587   4.246
93793SOL    HW183211   6.262   9.493   4.261
93793SOL    HW283212   6.331   9.621   4.301
93794SOL     OW83213   4.868   4.838  12.666
93794SOL    HW183214   4.890   4.748  12.644
93794SOL    HW283215   4.815   4.832  12.745
93795SOL     OW83216   6.523  11.181   9.945
93795SOL    HW183217   6.460  11.146  10.008
93795SOL    HW283218   6.472  11.197   9.866
93796SOL     OW83219   7.163   7.177  13.744
93796SOL    HW183220   7.178   7.213  13.657
93796SOL    HW283221   7.197   7.088  13.739
93797SOL     OW83222  14.845   5.952   3.065
93797SOL    HW183223   0.009   5.866   3.083
93797SOL    HW283224  14.784   5.938   2.992
93798SOL     OW83225   1.283   6.437  10.274
93798SOL    HW183226   1.310   6.355  10.315
93798SOL    HW283227   1.366   6.481  10.251
93799SOL     OW83228   7.460  11.435   0.278
93799SOL    HW183229   7.483  11.527   0.263
93799SOL    HW283230   7.529  11.402   0.335
93800SOL     OW83231   8.589  11.294   3.129
93800SOL    HW183232   8.631  11.289   3.043
93800SOL    HW283233   8.499  11.266   3.113
93801SOL     OW83234  12.464  11.550   2.282
93801SOL    HW183235  12.531  11.554   2.350
93801SOL    HW283236  12.388  11.512   2.325
93802SOL     OW83237  10.922   3.635   0.806
93802SOL    HW183238  10.939   3.685   0.727
93802SOL    HW283239  10.826   3.629   0.810
93803SOL     OW83240   3.839   6.708   9.140
93803SOL    HW183241   3.924   6.669   9.160
93803SOL    HW283242   3.829   6.698   9.045
93804SOL     OW83243  13.677   4.981  10.604
93804SOL    HW183244  13.707   5.021  10.523
93804SOL    HW283245  13.723   5.027  10.673
93805SOL     OW83246   7.667   6.208   4.643
93805SOL    HW183247   7.694   6.195   4.553
93805SOL    HW283248   7.708   6.290   4.669
93806SOL     OW83249  12.420   8.141   0.624
93806SOL    HW183250  12.456   8.074   0.681
93806SOL    HW283251  12.360   8.094   0.566
93807SOL     OW83252   3.864   2.565   1.954
93807SOL    HW183253   3.923   2.575   2.029
93807SOL    HW283254   3.920   2.577   1.878
93808SOL     OW83255   7.226   6.205  13.057
93808SOL    HW183256   7.146   6.153  13.052
93808SOL    HW283257   7.203   6.288  13.014
93809SOL     OW83258  10.568  13.734   7.407
93809SOL    HW183259  10.654  13.762   7.439
93809SOL    HW283260  10.525  13.696   7.483
93810SOL     OW83261   5.731   9.725  10.390
93810SOL    HW183262   5.752   9.781  10.464
93810SOL    HW283263   5.660   9.771  10.344
93811SOL     OW83264   3.559   1.878   8.850
93811SOL    HW183265   3.609   1.820   8.793
93811SOL    HW283266   3.625   1.929   8.897
93812SOL     OW83267   9.495  11.473  13.014
93812SOL    HW183268   9.564  11.421  13.056
93812SOL    HW283269   9.442  11.505  13.087
93813SOL     OW83270  13.748   9.786   5.925
93813SOL    HW183271  13.792   9.858   5.969
93813SOL    HW283272  13.812   9.753   5.862
93814SOL     OW83273   9.020   8.265   6.110
93814SOL    HW183274   9.034   8.266   6.204
93814SOL    HW283275   8.939   8.215   6.097
93815SOL     OW83276   2.945   8.495  10.927
93815SOL    HW183277   3.004   8.554  10.880
93815SOL    HW283278   3.001   8.422  10.954
93816SOL     OW83279   9.352   4.951   8.695
93816SOL    HW183280   9.365   5.033   8.742
93816SOL    HW283281   9.343   4.885   8.765
93817SOL     OW83282  12.796  11.390   7.214
93817SOL    HW183283  12.705  11.361   7.214
93817SOL    HW283284  12.829  11.366   7.301
93818SOL     OW83285  12.973   3.213   5.993
93818SOL    HW183286  13.026   3.147   5.950
93818SOL    HW283287  12.911   3.242   5.926
93819SOL     OW83288   9.788  12.667   6.892
93819SOL    HW183289   9.737  12.720   6.953
93819SOL    HW283290   9.876  12.668   6.927
93820SOL     OW83291  13.103  12.256   6.284
93820SOL    HW183292  13.132  12.223   6.198
93820SOL    HW283293  13.142  12.194   6.347
93821SOL     OW83294  12.061   8.205   8.454
93821SOL    HW183295  12.054   8.216   8.549
93821SOL    HW283296  12.008   8.128   8.435
93822SOL     OW83297   7.323   6.486   5.081
93822SOL    HW183298   7.326   6.527   5.167
93822SOL    HW283299   7.415   6.485   5.051
93823SOL     OW83300  13.082   7.506   4.795
93823SOL    HW183301  13.014   7.475   4.736
93823SOL    HW283302  13.043   7.500   4.882
93824SOL     OW83303   8.570   0.445  10.778
93824SOL    HW183304   8.531   0.392  10.709
93824SOL    HW283305   8.644   0.393  10.810
93825SOL     OW83306   6.251   6.042  14.708
93825SOL    HW183307   6.165   6.002  14.693
93825SOL    HW283308   6.239   6.094  14.788
93826SOL     OW83309   9.291   5.543   7.734
93826SOL    HW183310   9.281   5.562   7.641
93826SOL    HW283311   9.386   5.536   7.747
93827SOL     OW83312   6.714   2.161   0.628
93827SOL    HW183313   6.728   2.073   0.593
93827SOL    HW283314   6.764   2.218   0.569
93828SOL     OW83315   7.914  12.109  11.628
93828SOL    HW183316   7.975  12.047  11.667
93828SOL    HW283317   7.848  12.055  11.585
93829SOL     OW83318  12.474  12.052  10.546
93829SOL    HW183319  12.450  12.106  10.621
93829SOL    HW283320  12.465  11.962  10.577
93830SOL     OW83321   9.101   9.185   0.331
93830SOL    HW183322   9.159   9.252   0.294
93830SOL    HW283323   9.158   9.129   0.383
93831SOL     OW83324   0.965  10.675   3.372
93831SOL    HW183325   1.058  10.659   3.383
93831SOL    HW283326   0.924  10.621   3.440
93832SOL     OW83327  14.765  11.227  14.013
93832SOL    HW183328  14.728  11.166  13.949
93832SOL    HW283329  14.783  11.306  13.963
93833SOL     OW83330   7.000   5.842  11.797
93833SOL    HW183331   6.935   5.845  11.867
93833SOL    HW283332   7.080   5.873  11.838
93834SOL     OW83333   2.089   6.608  11.913
93834SOL    HW183334   1.999   6.641  11.915
93834SOL    HW283335   2.084   6.526  11.864
93835SOL     OW83336   2.539   4.665   6.123
93835SOL    HW183337   2.630   4.635   6.131
93835SOL    HW283338   2.518   4.701   6.208
93836SOL     OW83339   4.775  10.228  11.882
93836SOL    HW183340   4.843  10.293  11.899
93836SOL    HW283341   4.815  10.145  11.909
93837SOL     OW83342   0.991   0.886   1.973
93837SOL    HW183343   1.051   0.955   1.945
93837SOL    HW283344   0.969   0.840   1.892
93838SOL     OW83345   4.324   6.113  12.702
93838SOL    HW183346   4.409   6.144  12.733
93838SOL    HW283347   4.331   6.018  12.705
93839SOL     OW83348   6.530  11.835   7.437
93839SOL    HW183349   6.557  11.890   7.364
93839SOL    HW283350   6.445  11.869   7.463
93840SOL     OW83351   6.102   6.707   1.955
93840SOL    HW183352   6.086   6.635   2.016
93840SOL    HW283353   6.029   6.704   1.894
93841SOL     OW83354   6.617   5.762   4.213
93841SOL    HW183355   6.685   5.736   4.151
93841SOL    HW283356   6.646   5.847   4.246
93842SOL     OW83357   5.141  11.766   2.883
93842SOL    HW183358   5.231  11.734   2.872
93842SOL    HW283359   5.150  11.843   2.939
93843SOL     OW83360   7.579   8.318  11.427
93843SOL    HW183361   7.648   8.378  11.455
93843SOL    HW283362   7.498   8.360  11.453
93844SOL     OW83363   4.253   4.982   2.510
93844SOL    HW183364   4.308   4.905   2.525
93844SOL    HW283365   4.220   5.005   2.597
93845SOL     OW83366  13.882   3.460   1.920
93845SOL    HW183367  13.949   3.395   1.942
93845SOL    HW283368  13.865   3.445   1.827
93846SOL     OW83369   3.980   8.214   8.324
93846SOL    HW183370   4.031   8.224   8.243
93846SOL    HW283371   3.934   8.297   8.334
93847SOL     OW83372   7.564   3.763  13.419
93847SOL    HW183373   7.546   3.807  13.502
93847SOL    HW283374   7.609   3.682  13.444
93848SOL     OW83375  14.546   0.025   6.803
93848SOL    HW183376  14.557  14.848   6.885
93848SOL    HW283377  14.636   0.040   6.773
93849SOL     OW83378   1.484   5.369  13.898
93849SOL    HW183379   1.521   5.293  13.942
93849SOL    HW283380   1.414   5.399  13.957
93850SOL     OW83381   8.838   0.291   6.637
93850SOL    HW183382   8.800   0.259   6.555
93850SOL    HW283383   8.881   0.215   6.675
93851SOL     OW83384   2.328   7.042   4.499
93851SOL    HW183385   2.343   6.990   4.421
93851SOL    HW283386   2.233   7.043   4.511
93852SOL     OW83387   4.861  12.027  14.541
93852SOL    HW183388   4.817  12.098  14.588
93852SOL    HW283389   4.804  11.951  14.553
93853SOL     OW83390  11.507   3.282   3.632
93853SOL    HW183391  11.570   3.334   3.584
93853SOL    HW283392  11.503   3.322   3.719
93854SOL     OW83393  14.826   1.011   8.093
93854SOL    HW183394  14.841   0.966   8.177
93854SOL    HW283395  14.731   1.008   8.081
93855SOL     OW83396  14.264   5.328   2.302
93855SOL    HW183397  14.332   5.267   2.274
93855SOL    HW283398  14.203   5.331   2.228
93856SOL     OW83399   1.255   5.077   1.842
93856SOL    HW183400   1.204   5.012   1.792
93856SOL    HW283401   1.242   5.159   1.795
93857SOL     OW83402  13.449   7.325  13.746
93857SOL    HW183403  13.459   7.244  13.696
93857SOL    HW283404  13.374   7.369  13.705
93858SOL     OW83405   0.248   8.843   1.950
93858SOL    HW183406   0.295   8.799   1.879
93858SOL    HW283407   0.162   8.862   1.913
93859SOL     OW83408   2.601   7.312  11.405
93859SOL    HW183409   2.596   7.285  11.313
93859SOL    HW283410   2.605   7.230  11.454
93860SOL     OW83411   4.590   4.901   4.853
93860SOL    HW183412   4.518   4.949   4.813
93860SOL    HW283413   4.589   4.815   4.811
93861SOL     OW83414   5.835   0.453  14.319
93861SOL    HW183415   5.797   0.384  14.374
93861SOL    HW283416   5.856   0.523  14.381
93862SOL     OW83417   7.270  13.533   8.206
93862SOL    HW183418   7.325  13.540   8.285
93862SOL    HW283419   7.202  13.470   8.230
93863SOL     OW83420   4.578   9.306   3.316
93863SOL    HW183421   4.566   9.401   3.328
93863SOL    HW283422   4.644   9.298   3.248
93864SOL     OW83423  11.755   7.639  13.120
93864SOL    HW183424  11.783   7.548  13.105
93864SOL    HW283425  11.695   7.633  13.195
93865SOL     OW83426   6.484   7.086   6.004
93865SOL    HW183427   6.502   6.999   6.040
93865SOL    HW283428   6.396   7.080   5.968
93866SOL     OW83429   6.130   9.203  11.273
93866SOL    HW183430   6.184   9.144  11.326
93866SOL    HW283431   6.040   9.187  11.303
93867SOL     OW83432  13.897   9.834   4.829
93867SOL    HW183433  13.817   9.880   4.853
93867SOL    HW283434  13.936   9.888   4.760
93868SOL     OW83435  10.948   0.876   6.295
93868SOL    HW183436  10.963   0.971   6.298
93868SOL    HW283437  10.937   0.857   6.202
93869SOL     OW83438  12.590   5.072  14.491
93869SOL    HW183439  12.539   5.078  14.410
93869SOL    HW283440  12.597   5.163  14.522
93870SOL     OW83441   6.330  12.882   0.503
93870SOL    HW183442   6.308  12.808   0.560
93870SOL    HW283443   6.425  12.879   0.496
93871SOL     OW83444  14.833  13.319   4.156
93871SOL    HW183445   0.033  13.356   4.207
93871SOL    HW283446  14.761  13.312   4.219
93872SOL     OW83447   8.209   7.035  14.197
93872SOL    HW183448   8.223   6.981  14.118
93872SOL    HW283449   8.296   7.065  14.221
93873SOL     OW83450   5.617  10.627   8.208
93873SOL    HW183451   5.618  10.550   8.151
93873SOL    HW283452   5.557  10.688   8.164
93874SOL     OW83453  13.783   6.084   4.448
93874SOL    HW183454  13.835   6.161   4.472
93874SOL    HW283455  13.845   6.012   4.448
93875SOL     OW83456  12.193   3.107  10.744
93875SOL    HW183457  12.146   3.119  10.826
93875SOL    HW283458  12.172   3.185  10.693
93876SOL     OW83459  13.291  10.029   6.095
93876SOL    HW183460  13.247  10.064   6.173
93876SOL    HW283461  13.344   9.957   6.127
93877SOL     OW83462   7.557   9.179  12.734
93877SOL    HW183463   7.492   9.206  12.799
93877SOL    HW283464   7.505   9.147  12.660
93878SOL     OW83465   6.586   3.791   4.658
93878SOL    HW183466   6.572   3.705   4.697
93878SOL    HW283467   6.678   3.811   4.677
93879SOL     OW83468  13.888   4.710   2.254
93879SOL    HW183469  13.878   4.805   2.244
93879SOL    HW283470  13.807   4.673   2.219
93880SOL     OW83471   8.991  10.767   3.973
93880SOL    HW183472   8.979  10.838   4.037
93880SOL    HW283473   8.982  10.811   3.888
93881SOL     OW83474   0.779   2.527   7.747
93881SOL    HW183475   0.770   2.484   7.662
93881SOL    HW283476   0.829   2.466   7.800
93882SOL     OW83477   5.623   9.921  11.845
93882SOL    HW183478   5.627  10.006  11.888
93882SOL    HW283479   5.543   9.925  11.792
93883SOL     OW83480   8.462  13.964   9.153
93883SOL    HW183481   8.524  14.036   9.154
93883SOL    HW283482   8.490  13.907   9.224
93884SOL     OW83483   4.944  10.597   4.759
93884SOL    HW183484   4.915  10.510   4.730
93884SOL    HW283485   4.999  10.628   4.687
93885SOL     OW83486  12.438   3.742   4.564
93885SOL    HW183487  12.452   3.836   4.564
93885SOL    HW283488  12.343   3.731   4.559
93886SOL     OW83489   0.146   7.028   6.879
93886SOL    HW183490   0.074   7.047   6.818
93886SOL    HW283491   0.203   7.104   6.872
93887SOL     OW83492   7.951  14.023   0.120
93887SOL    HW183493   7.862  14.046   0.147
93887SOL    HW283494   7.940  13.946   0.064
93888SOL     OW83495   5.595  13.157  10.054
93888SOL    HW183496   5.571  13.244  10.087
93888SOL    HW283497   5.623  13.109  10.131
93889SOL     OW83498   6.354   4.270   4.870
93889SOL    HW183499   6.427   4.330   4.856
93889SOL    HW283500   6.335   4.234   4.784
93890SOL     OW83501  11.358   8.563   1.495
93890SOL    HW183502  11.385   8.506   1.424
93890SOL    HW283503  11.422   8.635   1.494
93891SOL     OW83504  12.789   4.816   6.237
93891SOL    HW183505  12.717   4.878   6.243
93891SOL    HW283506  12.868   4.869   6.248
93892SOL     OW83507   2.928   8.299   6.279
93892SOL    HW183508   2.867   8.324   6.348
93892SOL    HW283509   2.927   8.373   6.218
93893SOL     OW83510   7.488   3.533  12.751
93893SOL    HW183511   7.549   3.524  12.678
93893SOL    HW283512   7.419   3.468  12.733
93894SOL     OW83513   9.952   0.869   2.459
93894SOL    HW183514   9.972   0.912   2.542
93894SOL    HW283515   9.857   0.866   2.456
93895SOL     OW83516   0.404   8.358   3.693
93895SOL    HW183517   0.488   8.318   3.714
93895SOL    HW283518   0.353   8.288   3.653
93896SOL     OW83519   7.185  14.115   8.554
93896SOL    HW183520   7.249  14.071   8.610
93896SOL    HW283521   7.101  14.095   8.594
93897SOL     OW83522   2.501  12.738   5.449
93897SOL    HW183523   2.424  12.787   5.478
93897SOL    HW283524   2.555  12.802   5.403
93898SOL     OW83525   7.039   1.880   1.104
93898SOL    HW183526   6.955   1.912   1.072
93898SOL    HW283527   7.094   1.958   1.113
93899SOL     OW83528   7.292   2.507   9.192
93899SOL    HW183529   7.337   2.543   9.116
93899SOL    HW283530   7.301   2.412   9.183
93900SOL     OW83531  11.753   8.426   5.508
93900SOL    HW183532  11.660   8.446   5.516
93900SOL    HW283533  11.786   8.425   5.599
93901SOL     OW83534   4.548   6.428   3.614
93901SOL    HW183535   4.616   6.364   3.592
93901SOL    HW283536   4.570   6.505   3.561
93902SOL     OW83537   9.118  12.603   5.533
93902SOL    HW183538   9.046  12.547   5.505
93902SOL    HW283539   9.185  12.542   5.564
93903SOL     OW83540  13.488   0.176  10.843
93903SOL    HW183541  13.508   0.259  10.799
93903SOL    HW283542  13.482   0.112  10.772
93904SOL     OW83543  10.254   7.534   5.321
93904SOL    HW183544  10.292   7.578   5.397
93904SOL    HW283545  10.194   7.469   5.358
93905SOL     OW83546   4.120   0.502   9.453
93905SOL    HW183547   4.144   0.574   9.394
93905SOL    HW283548   4.203   0.464   9.479
93906SOL     OW83549  13.096  11.862  10.471
93906SOL    HW183550  13.099  11.828  10.561
93906SOL    HW283551  13.007  11.842  10.441
93907SOL     OW83552   7.680  13.211  10.329
93907SOL    HW183553   7.676  13.159  10.248
93907SOL    HW283554   7.589  13.216  10.358
93908SOL     OW83555  11.421  14.387   6.070
93908SOL    HW183556  11.403  14.472   6.029
93908SOL    HW283557  11.499  14.355   6.024
93909SOL     OW83558   8.437   3.888  10.660
93909SOL    HW183559   8.493   3.860  10.587
93909SOL    HW283560   8.493   3.945  10.713
93910SOL     OW83561  12.852  11.864   9.115
93910SOL    HW183562  12.932  11.813   9.128
93910SOL    HW283563  12.785  11.815   9.162
93911SOL     OW83564   8.032   8.013   8.799
93911SOL    HW183565   8.086   8.087   8.823
93911SOL    HW283566   7.985   8.042   8.721
93912SOL     OW83567   6.718   7.783   8.016
93912SOL    HW183568   6.625   7.809   8.016
93912SOL    HW283569   6.765   7.864   8.033
93913SOL     OW83570   1.787   9.283   1.019
93913SOL    HW183571   1.777   9.353   1.083
93913SOL    HW283572   1.850   9.223   1.058
93914SOL     OW83573   4.970  11.213  11.011
93914SOL    HW183574   5.030  11.218  10.937
93914SOL    HW283575   4.887  11.184  10.973
93915SOL     OW83576  13.327   8.152   0.491
93915SOL    HW183577  13.312   8.195   0.406
93915SOL    HW283578  13.309   8.220   0.555
93916SOL     OW83579   7.107  11.396   3.320
93916SOL    HW183580   7.069  11.484   3.326
93916SOL    HW283581   7.163  11.399   3.243
93917SOL     OW83582   3.298   9.239  14.356
93917SOL    HW183583   3.235   9.284  14.413
93917SOL    HW283584   3.266   9.258  14.267
93918SOL     OW83585   1.321   1.980   7.514
93918SOL    HW183586   1.398   2.034   7.498
93918SOL    HW283587   1.276   2.023   7.586
93919SOL     OW83588   1.345   6.573   0.255
93919SOL    HW183589   1.345   6.478   0.267
93919SOL    HW283590   1.294   6.606   0.329
93920SOL     OW83591   8.928  14.576   2.863
93920SOL    HW183592   8.974  14.587   2.780
93920SOL    HW283593   8.945  14.657   2.911
93921SOL     OW83594   0.782  14.632   3.897
93921SOL    HW183595   0.712  14.645   3.962
93921SOL    HW283596   0.739  14.645   3.813
93922SOL     OW83597   3.181  10.794   1.121
93922SOL    HW183598   3.112  10.858   1.105
93922SOL    HW283599   3.149  10.714   1.080
93923SOL     OW83600   8.808   2.071   8.991
93923SOL    HW183601   8.773   2.048   8.904
93923SOL    HW283602   8.806   1.988   9.039
93924SOL     OW83603  10.786   9.997  14.664
93924SOL    HW183604  10.844  10.073  14.662
93924SOL    HW283605  10.765   9.980  14.572
93925SOL     OW83606   6.201   9.013   5.548
93925SOL    HW183607   6.227   9.068   5.473
93925SOL    HW283608   6.261   9.038   5.618
93926SOL     OW83609  10.759   6.595   4.246
93926SOL    HW183610  10.679   6.642   4.220
93926SOL    HW283611  10.787   6.638   4.327
93927SOL     OW83612  14.693   3.257   8.285
93927SOL    HW183613  14.782   3.249   8.251
93927SOL    HW283614  14.638   3.264   8.207
93928SOL     OW83615   3.258   1.014   6.477
93928SOL    HW183616   3.249   1.099   6.434
93928SOL    HW283617   3.269   1.034   6.570
93929SOL     OW83618   1.829   3.317   5.353
93929SOL    HW183619   1.906   3.261   5.342
93929SOL    HW283620   1.817   3.357   5.267
93930SOL     OW83621   2.777   8.597   8.104
93930SOL    HW183622   2.816   8.671   8.057
93930SOL    HW283623   2.801   8.611   8.196
93931SOL     OW83624   0.096   9.176   9.740
93931SOL    HW183625   0.114   9.139   9.826
93931SOL    HW283626   0.132   9.265   9.744
93932SOL     OW83627  11.679   5.314  10.714
93932SOL    HW183628  11.634   5.337  10.633
93932SOL    HW283629  11.673   5.219  10.718
93933SOL     OW83630  13.013   0.898  10.821
93933SOL    HW183631  12.994   0.971  10.880
93933SOL    HW283632  12.929   0.853  10.810
93934SOL     OW83633   9.905   1.359   6.547
93934SOL    HW183634   9.833   1.413   6.513
93934SOL    HW283635   9.861   1.289   6.595
93935SOL     OW83636   1.810   4.254   8.897
93935SOL    HW183637   1.829   4.176   8.845
93935SOL    HW283638   1.762   4.221   8.973
93936SOL     OW83639  13.032  11.015   9.323
93936SOL    HW183640  13.022  10.955   9.397
93936SOL    HW283641  12.952  11.003   9.271
93937SOL     OW83642  13.771   4.897   9.242
93937SOL    HW183643  13.786   4.913   9.149
93937SOL    HW283644  13.835   4.953   9.286
93938SOL     OW83645   2.949   6.640  12.462
93938SOL    HW183646   2.952   6.656  12.556
93938SOL    HW283647   2.879   6.697  12.430
93939SOL     OW83648  12.695   1.942   9.894
93939SOL    HW183649  12.650   2.003   9.952
93939SOL    HW283650  12.712   1.865   9.948
93940SOL     OW83651  13.044   4.472  12.792
93940SOL    HW183652  12.962   4.507  12.757
93940SOL    HW283653  13.018   4.394  12.841
93941SOL     OW83654   1.874  14.496   7.451
93941SOL    HW183655   1.898  14.575   7.402
93941SOL    HW283656   1.809  14.526   7.514
93942SOL     OW83657   1.909  11.168   5.412
93942SOL    HW183658   1.930  11.235   5.347
93942SOL    HW283659   1.835  11.204   5.460
93943SOL     OW83660  14.722   9.584   2.200
93943SOL    HW183661  14.799   9.541   2.162
93943SOL    HW283662  14.649   9.556   2.145
93944SOL     OW83663   9.952   9.072   0.680
93944SOL    HW183664  10.031   9.020   0.667
93944SOL    HW283665   9.952   9.094   0.773
93945SOL     OW83666   3.557   8.852  10.259
93945SOL    HW183667   3.477   8.800  10.258
93945SOL    HW283668   3.560   8.890  10.347
93946SOL     OW83669   6.374   7.070  11.585
93946SOL    HW183670   6.304   7.109  11.637
93946SOL    HW283671   6.335   7.060  11.498
93947SOL     OW83672   3.763   8.035   1.483
93947SOL    HW183673   3.763   8.129   1.465
93947SOL    HW283674   3.736   8.028   1.574
93948SOL     OW83675  13.626   6.692   6.891
93948SOL    HW183676  13.539   6.655   6.900
93948SOL    HW283677  13.644   6.691   6.797
93949SOL     OW83678   7.578  13.830   4.385
93949SOL    HW183679   7.498  13.848   4.434
93949SOL    HW283680   7.649  13.837   4.449
93950SOL     OW83681   7.661   6.293  12.650
93950SOL    HW183682   7.744   6.283  12.698
93950SOL    HW283683   7.687   6.309  12.560
93951SOL     OW83684   9.547   0.113  14.849
93951SOL    HW183685   9.573   0.196  14.809
93951SOL    HW283686   9.523   0.137   0.067
93952SOL     OW83687   4.665  14.529   6.400
93952SOL    HW183688   4.685  14.534   6.306
93952SOL    HW283689   4.576  14.563   6.408
93953SOL     OW83690  10.233   6.561  11.096
93953SOL    HW183691  10.270   6.587  11.181
93953SOL    HW283692  10.247   6.638  11.040
93954SOL     OW83693  13.890   4.492  14.766
93954SOL    HW183694  13.907   4.477  14.859
93954SOL    HW283695  13.810   4.442  14.748
93955SOL     OW83696   2.156   1.998   1.180
93955SOL    HW183697   2.237   1.967   1.140
93955SOL    HW283698   2.094   1.927   1.168
93956SOL     OW83699  12.195   4.579  10.925
93956SOL    HW183700  12.213   4.671  10.941
93956SOL    HW283701  12.155   4.548  11.007
93957SOL     OW83702   2.051   2.696   3.824
93957SOL    HW183703   2.114   2.761   3.855
93957SOL    HW283704   2.093   2.612   3.842
93958SOL     OW83705   0.821   9.013  13.509
93958SOL    HW183706   0.768   8.989  13.584
93958SOL    HW283707   0.911   8.992  13.535
93959SOL     OW83708   9.775  12.829   2.247
93959SOL    HW183709   9.800  12.903   2.192
93959SOL    HW283710   9.723  12.773   2.189
93960SOL     OW83711   7.398  11.005  13.917
93960SOL    HW183712   7.457  11.010  13.992
93960SOL    HW283713   7.318  10.965  13.951
93961SOL     OW83714   8.035   4.369   5.242
93961SOL    HW183715   8.061   4.408   5.325
93961SOL    HW283716   7.965   4.425   5.210
93962SOL     OW83717  13.178   5.651   8.521
93962SOL    HW183718  13.109   5.714   8.499
93962SOL    HW283719  13.131   5.573   8.549
93963SOL     OW83720   8.997   8.079   3.895
93963SOL    HW183721   9.050   8.148   3.935
93963SOL    HW283722   8.920   8.125   3.861
93964SOL     OW83723   3.368   2.281   0.411
93964SOL    HW183724   3.340   2.298   0.321
93964SOL    HW283725   3.415   2.197   0.406
93965SOL     OW83726  14.522   7.325  13.174
93965SOL    HW183727  14.559   7.276  13.248
93965SOL    HW283728  14.597   7.373  13.138
93966SOL     OW83729  11.238   5.747   5.630
93966SOL    HW183730  11.326   5.761   5.665
93966SOL    HW283731  11.249   5.753   5.535
93967SOL     OW83732  13.650   8.016  11.249
93967SOL    HW183733  13.671   7.925  11.269
93967SOL    HW283734  13.721   8.046  11.192
93968SOL     OW83735   5.160   4.916   9.444
93968SOL    HW183736   5.137   5.004   9.413
93968SOL    HW283737   5.076   4.874   9.462
93969SOL     OW83738   5.279   3.949   7.566
93969SOL    HW183739   5.283   3.889   7.493
93969SOL    HW283740   5.207   4.008   7.545
93970SOL     OW83741  11.080   1.243   2.922
93970SOL    HW183742  11.172   1.258   2.940
93970SOL    HW283743  11.056   1.310   2.859
93971SOL     OW83744   4.035   6.589  13.632
93971SOL    HW183745   3.995   6.562  13.714
93971SOL    HW283746   4.055   6.507  13.587
93972SOL     OW83747  10.509   6.050   4.770
93972SOL    HW183748  10.503   6.142   4.743
93972SOL    HW283749  10.601   6.026   4.753
93973SOL     OW83750   7.452   3.735   3.685
93973SOL    HW183751   7.519   3.677   3.722
93973SOL    HW283752   7.384   3.739   3.753
93974SOL     OW83753  14.411  12.848   6.625
93974SOL    HW183754  14.347  12.812   6.686
93974SOL    HW283755  14.496  12.819   6.659
93975SOL     OW83756   0.737   8.525   2.376
93975SOL    HW183757   0.760   8.434   2.356
93975SOL    HW283758   0.668   8.518   2.442
93976SOL     OW83759   6.964   2.587   6.735
93976SOL    HW183760   7.057   2.587   6.756
93976SOL    HW283761   6.943   2.678   6.715
93977SOL     OW83762   0.491  13.792   9.020
93977SOL    HW183763   0.420  13.805   8.956
93977SOL    HW283764   0.546  13.869   9.010
93978SOL     OW83765  10.474  13.693   3.271
93978SOL    HW183766  10.444  13.673   3.182
93978SOL    HW283767  10.463  13.610   3.318
93979SOL     OW83768  10.737  11.146   2.015
93979SOL    HW183769  10.752  11.183   1.928
93979SOL    HW283770  10.805  11.184   2.070
93980SOL     OW83771   3.683  12.263  11.274
93980SOL    HW183772   3.596  12.288  11.305
93980SOL    HW283773   3.704  12.326  11.206
93981SOL     OW83774  13.233   0.266   7.482
93981SOL    HW183775  13.171   0.292   7.414
93981SOL    HW283776  13.241   0.344   7.538
93982SOL     OW83777   4.530   6.808  14.449
93982SOL    HW183778   4.513   6.815  14.355
93982SOL    HW283779   4.625   6.795  14.456
93983SOL     OW83780   4.407   2.491  10.326
93983SOL    HW183781   4.385   2.463  10.237
93983SOL    HW283782   4.384   2.584  10.328
93984SOL     OW83783  14.017  12.038   9.596
93984SOL    HW183784  14.082  12.017   9.663
93984SOL    HW283785  13.993  12.129   9.615
93985SOL     OW83786   7.936   5.131  12.534
93985SOL    HW183787   7.860   5.188  12.529
93985SOL    HW283788   7.984   5.161  12.612
93986SOL     OW83789   6.502   2.016  12.468
93986SOL    HW183790   6.503   1.920  12.475
93986SOL    HW283791   6.585   2.038  12.426
93987SOL     OW83792   9.860   1.139   5.912
93987SOL    HW183793   9.925   1.206   5.888
93987SOL    HW283794   9.820   1.172   5.992
93988SOL     OW83795   2.329   4.004   4.582
93988SOL    HW183796   2.282   3.981   4.502
93988SOL    HW283797   2.270   4.061   4.631
93989SOL     OW83798  13.703   9.023  14.478
93989SOL    HW183799  13.729   8.963  14.408
93989SOL    HW283800  13.610   9.039  14.463
93990SOL     OW83801   9.329   8.706  12.194
93990SOL    HW183802   9.414   8.665  12.178
93990SOL    HW283803   9.308   8.685  12.285
93991SOL     OW83804   7.550   2.548   7.761
93991SOL    HW183805   7.594   2.632   7.774
93991SOL    HW283806   7.458   2.571   7.748
93992SOL     OW83807  11.677   4.247   4.610
93992SOL    HW183808  11.609   4.300   4.569
93992SOL    HW283809  11.748   4.309   4.629
93993SOL     OW83810   1.310   2.967   0.835
93993SOL    HW183811   1.378   2.911   0.872
93993SOL    HW283812   1.320   3.051   0.880
93994SOL     OW83813  12.745   6.947  12.033
93994SOL    HW183814  12.750   6.979  12.123
93994SOL    HW283815  12.794   6.864  12.034
93995SOL     OW83816   6.958  13.628   0.787
93995SOL    HW183817   6.956  13.551   0.844
93995SOL    HW283818   6.975  13.593   0.699
93996SOL     OW83819  12.881  14.370  14.347
93996SOL    HW183820  12.950  14.433  14.368
93996SOL    HW283821  12.858  14.331  14.431
93997SOL     OW83822   5.518  10.878  13.453
93997SOL    HW183823   5.542  10.875  13.361
93997SOL    HW283824   5.597  10.849  13.499
93998SOL     OW83825   7.192   8.627   2.336
93998SOL    HW183826   7.215   8.702   2.391
93998SOL    HW283827   7.194   8.553   2.396
93999SOL     OW83828   3.818   3.570  10.744
93999SOL    HW183829   3.851   3.496  10.691
93999SOL    HW283830   3.800   3.531  10.829
94000SOL     OW83831   5.127   9.156   3.825
94000SOL    HW183832   5.184   9.182   3.752
94000SOL    HW283833   5.168   9.078   3.861
94001SOL     OW83834   7.527   3.304   3.779
94001SOL    HW183835   7.493   3.261   3.858
94001SOL    HW283836   7.566   3.385   3.811
94002SOL     OW83837  10.889  11.406   0.480
94002SOL    HW183838  10.809  11.384   0.433
94002SOL    HW283839  10.959  11.371   0.426
94003SOL     OW83840   2.758   1.082   6.033
94003SOL    HW183841   2.825   1.013   6.029
94003SOL    HW283842   2.759   1.122   5.946
94004SOL     OW83843  11.856   8.878   5.182
94004SOL    HW183844  11.815   8.890   5.096
94004SOL    HW283845  11.845   8.785   5.201
94005SOL     OW83846   2.900   9.145   4.952
94005SOL    HW183847   2.861   9.228   4.980
94005SOL    HW283848   2.980   9.137   5.003
94006SOL     OW83849   3.758  10.093   8.588
94006SOL    HW183850   3.726  10.003   8.584
94006SOL    HW283851   3.738  10.130   8.502
94007SOL     OW83852   9.036  13.714   4.134
94007SOL    HW183853   9.128  13.720   4.156
94007SOL    HW283854   9.005  13.805   4.133
94008SOL     OW83855   9.598  12.758   3.251
94008SOL    HW183856   9.677  12.709   3.272
94008SOL    HW283857   9.553  12.706   3.185
94009SOL     OW83858  11.113  12.758  12.075
94009SOL    HW183859  11.028  12.762  12.118
94009SOL    HW283860  11.126  12.845  12.038
94010SOL     OW83861   7.067  13.420   5.899
94010SOL    HW183862   7.039  13.511   5.898
94010SOL    HW283863   7.009  13.376   5.837
94011SOL     OW83864   8.035  11.863  10.147
94011SOL    HW183865   7.957  11.817  10.179
94011SOL    HW283866   8.088  11.877  10.225
94012SOL     OW83867  12.471  12.881   5.649
94012SOL    HW183868  12.449  12.932   5.727
94012SOL    HW283869  12.510  12.944   5.589
94013SOL     OW83870   0.054   5.818  11.540
94013SOL    HW183871  14.849   5.870  11.518
94013SOL    HW283872   0.127   5.879  11.532
94014SOL     OW83873   8.032  12.684   0.317
94014SOL    HW183874   8.080  12.607   0.286
94014SOL    HW283875   8.043  12.681   0.413
94015SOL     OW83876   7.696  11.683   4.703
94015SOL    HW183877   7.754  11.748   4.664
94015SOL    HW283878   7.739  11.599   4.687
94016SOL     OW83879  12.409   6.734   8.648
94016SOL    HW183880  12.328   6.683   8.654
94016SOL    HW283881  12.468   6.679   8.597
94017SOL     OW83882   5.661  14.239   1.934
94017SOL    HW183883   5.655  14.190   2.016
94017SOL    HW283884   5.572  14.241   1.901
94018SOL     OW83885   2.836   5.186  10.416
94018SOL    HW183886   2.920   5.171  10.373
94018SOL    HW283887   2.859   5.210  10.506
94019SOL     OW83888   9.931   0.004   4.605
94019SOL    HW183889  10.005  14.824   4.574
94019SOL    HW283890   9.877  14.813   4.654
94020SOL     OW83891   2.871   1.310   7.178
94020SOL    HW183892   2.898   1.221   7.152
94020SOL    HW283893   2.783   1.299   7.214
94021SOL     OW83894   8.581   2.278   9.898
94021SOL    HW183895   8.583   2.351   9.961
94021SOL    HW283896   8.593   2.200   9.952
94022SOL     OW83897  12.395   9.590  11.878
94022SOL    HW183898  12.302   9.569  11.873
94022SOL    HW283899  12.397   9.676  11.921
94023SOL     OW83900  10.698  11.571   7.187
94023SOL    HW183901  10.694  11.634   7.259
94023SOL    HW283902  10.660  11.617   7.112
94024SOL     OW83903   0.896   1.714   6.632
94024SOL    HW183904   0.935   1.788   6.587
94024SOL    HW283905   0.813   1.748   6.667
94025SOL     OW83906   2.096   9.862   4.207
94025SOL    HW183907   2.178   9.817   4.184
94025SOL    HW283908   2.028   9.796   4.194
94026SOL     OW83909   6.561   9.272  13.390
94026SOL    HW183910   6.516   9.189  13.374
94026SOL    HW283911   6.627   9.252  13.456
94027SOL     OW83912   7.887   8.279   4.763
94027SOL    HW183913   7.821   8.279   4.695
94027SOL    HW283914   7.840   8.303   4.843
94028SOL     OW83915   4.513   9.213   5.615
94028SOL    HW183916   4.479   9.299   5.589
94028SOL    HW283917   4.523   9.219   5.710
94029SOL     OW83918   1.969   7.407  10.909
94029SOL    HW183919   1.948   7.498  10.886
94029SOL    HW283920   1.920   7.354  10.846
94030SOL     OW83921  11.582   0.245   0.786
94030SOL    HW183922  11.559   0.266   0.696
94030SOL    HW283923  11.512   0.186   0.815
94031SOL     OW83924   4.487   3.050   9.659
94031SOL    HW183925   4.581   3.032   9.664
94031SOL    HW283926   4.481   3.133   9.612
94032SOL     OW83927   7.710   2.374  13.329
94032SOL    HW183928   7.631   2.371  13.383
94032SOL    HW283929   7.744   2.463  13.339
94033SOL     OW83930   9.225   7.307  13.424
94033SOL    HW183931   9.133   7.283  13.433
94033SOL    HW283932   9.231   7.348  13.338
94034SOL     OW83933   2.916  10.878  14.414
94034SOL    HW183934   2.903  10.925  14.497
94034SOL    HW283935   2.968  10.802  14.438
94035SOL     OW83936   9.682  13.736   7.679
94035SOL    HW183937   9.656  13.657   7.727
94035SOL    HW283938   9.608  13.795   7.687
94036SOL     OW83939   0.549  14.085  12.626
94036SOL    HW183940   0.588  14.117  12.544
94036SOL    HW283941   0.558  13.990  12.621
94037SOL     OW83942   3.912   9.247   0.500
94037SOL    HW183943   3.817   9.253   0.504
94037SOL    HW283944   3.940   9.333   0.468
94038SOL     OW83945   9.646  11.676   1.099
94038SOL    HW183946   9.703  11.725   1.040
94038SOL    HW283947   9.558  11.710   1.081
94039SOL     OW83948  13.341  14.307   9.641
94039SOL    HW183949  13.304  14.244   9.703
94039SOL    HW283950  13.294  14.388   9.658
94040SOL     OW83951   7.877  12.693   9.677
94040SOL    HW183952   7.922  12.623   9.630
94040SOL    HW283953   7.788  12.692   9.643
94041SOL     OW83954  13.283  10.298   4.037
94041SOL    HW183955  13.344  10.300   4.110
94041SOL    HW283956  13.229  10.377   4.048
94042SOL     OW83957  10.228   1.209   4.973
94042SOL    HW183958  10.221   1.168   4.886
94042SOL    HW283959  10.180   1.291   4.965
94043SOL     OW83960  13.224  13.216  13.050
94043SOL    HW183961  13.306  13.265  13.056
94043SOL    HW283962  13.228  13.173  12.965
94044SOL     OW83963  14.857   0.290  10.696
94044SOL    HW183964  14.795   0.226  10.731
94044SOL    HW283965   0.055   0.238  10.658
94045SOL     OW83966   5.334   1.304  14.755
94045SOL    HW183967   5.395   1.376  14.737
94045SOL    HW283968   5.281   1.336  14.829
94046SOL     OW83969   6.913   8.670  10.305
94046SOL    HW183970   6.897   8.592  10.252
94046SOL    HW283971   6.827   8.709  10.317
94047SOL     OW83972  14.654   0.510   0.328
94047SOL    HW183973  14.642   0.576   0.259
94047SOL    HW283974  14.636   0.557   0.409
94048SOL     OW83975  11.569   5.890   5.769
94048SOL    HW183976  11.663   5.883   5.757
94048SOL    HW283977  11.535   5.913   5.682
94049SOL     OW83978  12.079   9.637  11.033
94049SOL    HW183979  12.014   9.567  11.028
94049SOL    HW283980  12.154   9.604  10.985
94050SOL     OW83981   1.849   0.406  12.699
94050SOL    HW183982   1.879   0.315  12.693
94050SOL    HW283983   1.831   0.430  12.608
94051SOL     OW83984   7.469   6.291   3.514
94051SOL    HW183985   7.408   6.288   3.441
94051SOL    HW283986   7.525   6.367   3.495
94052SOL     OW83987   9.763   2.636   8.615
94052SOL    HW183988   9.697   2.629   8.546
94052SOL    HW283989   9.715   2.668   8.691
94053SOL     OW83990  12.135  13.529  11.623
94053SOL    HW183991  12.197  13.518  11.551
94053SOL    HW283992  12.078  13.602  11.595
94054SOL     OW83993  13.212   9.208   0.438
94054SOL    HW183994  13.255   9.176   0.359
94054SOL    HW283995  13.242   9.298   0.447
94055SOL     OW83996   5.378   4.891   4.161
94055SOL    HW183997   5.361   4.813   4.109
94055SOL    HW283998   5.295   4.938   4.163
94056SOL     OW83999  10.528  14.596   8.997
94056SOL    HW184000  10.451  14.549   8.966
94056SOL    HW284001  10.552  14.552   9.079
94057SOL     OW84002  12.430   2.275   0.761
94057SOL    HW184003  12.509   2.329   0.758
94057SOL    HW284004  12.405   2.275   0.854
94058SOL     OW84005   8.969   8.314   6.371
94058SOL    HW184006   8.885   8.316   6.418
94058SOL    HW284007   8.978   8.402   6.335
94059SOL     OW84008   0.747  14.514   6.209
94059SOL    HW184009   0.830  14.491   6.252
94059SOL    HW284010   0.774  14.551   6.125
94060SOL     OW84011  10.557   6.271  11.980
94060SOL    HW184012  10.546   6.176  11.983
94060SOL    HW284013  10.486   6.301  11.922
94061SOL     OW84014   3.091   5.539   9.182
94061SOL    HW184015   3.068   5.559   9.092
94061SOL    HW284016   3.185   5.558   9.187
94062SOL     OW84017  12.585   6.429   7.570
94062SOL    HW184018  12.672   6.393   7.584
94062SOL    HW284019  12.548   6.376   7.499
94063SOL     OW84020  13.885   3.466  11.896
94063SOL    HW184021  13.975   3.439  11.876
94063SOL    HW284022  13.837   3.452  11.814
94064SOL     OW84023   0.689   6.133   1.691
94064SOL    HW184024   0.610   6.175   1.658
94064SOL    HW284025   0.687   6.148   1.786
94065SOL     OW84026   1.004   4.079   0.624
94065SOL    HW184027   1.098   4.069   0.634
94065SOL    HW284028   0.984   4.165   0.661
94066SOL     OW84029   1.287   5.215  12.815
94066SOL    HW184030   1.227   5.155  12.771
94066SOL    HW284031   1.374   5.176  12.801
94067SOL     OW84032   7.203  13.801   8.171
94067SOL    HW184033   7.238  13.713   8.153
94067SOL    HW284034   7.138  13.787   8.240
94068SOL     OW84035   8.661   5.284   0.000
94068SOL    HW184036   8.704   5.299   0.084
94068SOL    HW284037   8.717   5.221  14.827
94069SOL     OW84038   2.445   4.253  13.036
94069SOL    HW184039   2.496   4.256  13.117
94069SOL    HW284040   2.363   4.210  13.062
94070SOL     OW84041   0.588   4.245  14.495
94070SOL    HW184042   0.593   4.184  14.421
94070SOL    HW284043   0.666   4.299  14.487
94071SOL     OW84044  10.966   7.492  14.700
94071SOL    HW184045  10.895   7.456  14.753
94071SOL    HW284046  11.043   7.483  14.756
94072SOL     OW84047   1.869  13.063  14.454
94072SOL    HW184048   1.861  12.968  14.464
94072SOL    HW284049   1.840  13.097  14.539
94073SOL     OW84050   2.879   9.946   0.827
94073SOL    HW184051   2.805   9.996   0.793
94073SOL    HW284052   2.875   9.863   0.780
94074SOL     OW84053   0.978   7.328   3.574
94074SOL    HW184054   1.041   7.387   3.617
94074SOL    HW284055   0.983   7.247   3.624
94075SOL     OW84056   8.687  11.132  10.000
94075SOL    HW184057   8.677  11.175  10.085
94075SOL    HW284058   8.776  11.098  10.002
94076SOL     OW84059  11.120  11.982   9.855
94076SOL    HW184060  11.061  11.971   9.930
94076SOL    HW284061  11.061  11.989   9.779
94077SOL     OW84062   3.411  10.261   7.184
94077SOL    HW184063   3.381  10.293   7.099
94077SOL    HW284064   3.351  10.190   7.206
94078SOL     OW84065  11.898  11.028   1.972
94078SOL    HW184066  11.820  11.083   1.960
94078SOL    HW284067  11.971  11.085   1.951
94079SOL     OW84068  12.850  11.983   0.348
94079SOL    HW184069  12.942  11.989   0.371
94079SOL    HW284070  12.845  11.910   0.287
94080SOL     OW84071   3.624   0.444   5.276
94080SOL    HW184072   3.625   0.363   5.327
94080SOL    HW284073   3.575   0.421   5.197
94081SOL     OW84074   2.567   7.690  14.777
94081SOL    HW184075   2.566   7.678  14.682
94081SOL    HW284076   2.475   7.701  14.801
94082SOL     OW84077  10.265   5.680   9.345
94082SOL    HW184078  10.267   5.731   9.264
94082SOL    HW284079  10.190   5.715   9.393
94083SOL     OW84080   6.009  11.005  11.066
94083SOL    HW184081   5.997  10.919  11.028
94083SOL    HW284082   5.936  11.057  11.032
94084SOL     OW84083   0.219   3.281  11.187
94084SOL    HW184084   0.170   3.296  11.268
94084SOL    HW284085   0.158   3.307  11.117
94085SOL     OW84086   0.456  13.825   4.205
94085SOL    HW184087   0.434  13.737   4.235
94085SOL    HW284088   0.552  13.830   4.213
94086SOL     OW84089   7.685   1.352   5.870
94086SOL    HW184090   7.676   1.416   5.940
94086SOL    HW284091   7.597   1.316   5.858
94087SOL     OW84092  12.856  10.975   9.687
94087SOL    HW184093  12.949  10.996   9.679
94087SOL    HW284094  12.819  11.050   9.734
94088SOL     OW84095   9.804  14.862  14.805
94088SOL    HW184096   9.778  14.777  14.770
94088SOL    HW284097   9.740   0.008   0.001
94089SOL     OW84098   9.869   2.664  10.345
94089SOL    HW184099   9.952   2.620  10.325
94089SOL    HW284100   9.875   2.683  10.439
94090SOL     OW84101   0.220   6.287   4.086
94090SOL    HW184102   0.301   6.320   4.124
94090SOL    HW284103   0.212   6.198   4.121
94091SOL     OW84104  12.357  12.615  13.586
94091SOL    HW184105  12.399  12.653  13.509
94091SOL    HW284106  12.427  12.566  13.629
94092SOL     OW84107  13.680  11.861   8.500
94092SOL    HW184108  13.673  11.843   8.594
94092SOL    HW284109  13.676  11.774   8.460
94093SOL     OW84110   4.279   1.975  10.761
94093SOL    HW184111   4.278   1.901  10.700
94093SOL    HW284112   4.197   1.968  10.809
94094SOL     OW84113  10.417  12.964  12.944
94094SOL    HW184114  10.425  13.027  13.015
94094SOL    HW284115  10.439  12.880  12.984
94095SOL     OW84116   0.663   2.613   2.438
94095SOL    HW184117   0.741   2.585   2.486
94095SOL    HW284118   0.674   2.574   2.351
94096SOL     OW84119   3.331   1.336   6.507
94096SOL    HW184120   3.360   1.425   6.487
94096SOL    HW284121   3.399   1.301   6.564
94097SOL     OW84122   8.079   6.567  11.256
94097SOL    HW184123   8.137   6.493  11.276
94097SOL    HW284124   8.127   6.617  11.190
94098SOL     OW84125   7.584  12.580  11.798
94098SOL    HW184126   7.575  12.574  11.894
94098SOL    HW284127   7.645  12.652  11.784
94099SOL     OW84128   6.130   5.833   7.146
94099SOL    HW184129   6.090   5.887   7.077
94099SOL    HW284130   6.055   5.792   7.190
94100SOL     OW84131   1.922   3.013   4.902
94100SOL    HW184132   1.904   3.057   4.818
94100SOL    HW284133   1.932   2.921   4.879
94101SOL     OW84134   6.413   6.840  10.729
94101SOL    HW184135   6.447   6.879  10.810
94101SOL    HW284136   6.421   6.745  10.742
94102SOL     OW84137   6.194   6.960   2.013
94102SOL    HW184138   6.142   6.880   2.020
94102SOL    HW284139   6.156   7.020   2.077
94103SOL     OW84140  12.123   3.596  12.052
94103SOL    HW184141  12.034   3.605  12.019
94103SOL    HW284142  12.172   3.558  11.980
94104SOL     OW84143   1.180  13.026   1.186
94104SOL    HW184144   1.164  13.001   1.278
94104SOL    HW284145   1.270  13.059   1.186
94105SOL     OW84146  10.212   7.996  14.243
94105SOL    HW184147  10.182   7.924  14.187
94105SOL    HW284148  10.157   8.071  14.218
94106SOL     OW84149   1.655   3.539   6.227
94106SOL    HW184150   1.681   3.625   6.262
94106SOL    HW284151   1.560   3.537   6.237
94107SOL     OW84152  13.900   5.544  12.181
94107SOL    HW184153  13.979   5.598  12.180
94107SOL    HW284154  13.855   5.565  12.099
94108SOL     OW84155  13.896  10.546   6.866
94108SOL    HW184156  13.951  10.617   6.898
94108SOL    HW284157  13.947  10.467   6.884
94109SOL     OW84158  14.106  14.016   1.541
94109SOL    HW184159  14.110  14.028   1.446
94109SOL    HW284160  14.057  13.935   1.553
94110SOL     OW84161   3.154   2.807   8.708
94110SOL    HW184162   3.199   2.811   8.624
94110SOL    HW284163   3.157   2.898   8.741
94111SOL     OW84164   5.837  10.569   0.387
94111SOL    HW184165   5.828  10.493   0.444
94111SOL    HW284166   5.924  10.559   0.348
94112SOL     OW84167   5.511   8.053  11.695
94112SOL    HW184168   5.514   8.006  11.778
94112SOL    HW284169   5.463   8.134  11.716
94113SOL     OW84170  13.798  13.816  11.674
94113SOL    HW184171  13.799  13.905  11.639
94113SOL    HW284172  13.890  13.792  11.682
94114SOL     OW84173   7.181   9.515  13.588
94114SOL    HW184174   7.191   9.587  13.651
94114SOL    HW284175   7.098   9.474  13.611
94115SOL     OW84176   6.602  14.138   2.360
94115SOL    HW184177   6.523  14.093   2.332
94115SOL    HW284178   6.657  14.070   2.399
94116SOL     OW84179  12.157   5.635   5.336
94116SOL    HW184180  12.126   5.700   5.399
94116SOL    HW284181  12.180   5.559   5.390
94117SOL     OW84182   6.250  13.446   8.006
94117SOL    HW184183   6.175  13.413   8.055
94117SOL    HW284184   6.216  13.460   7.918
94118SOL     OW84185  12.632   2.520  12.753
94118SOL    HW184186  12.602   2.602  12.712
94118SOL    HW284187  12.553   2.467  12.761
94119SOL     OW84188   2.981   4.756   2.161
94119SOL    HW184189   2.975   4.717   2.249
94119SOL    HW284190   3.007   4.846   2.177
94120SOL     OW84191   7.680   5.006   0.510
94120SOL    HW184192   7.765   4.985   0.548
94120SOL    HW284193   7.676   5.102   0.512
94121SOL     OW84194   7.545  10.019   2.590
94121SOL    HW184195   7.569  10.016   2.683
94121SOL    HW284196   7.620   9.981   2.545
94122SOL     OW84197   5.952   7.748   8.453
94122SOL    HW184198   5.867   7.788   8.469
94122SOL    HW284199   5.967   7.761   8.359
94123SOL     OW84200   5.306  10.336   8.027
94123SOL    HW184201   5.292  10.356   7.934
94123SOL    HW284202   5.220  10.311   8.059
94124SOL     OW84203  12.603  12.731   5.132
94124SOL    HW184204  12.651  12.752   5.053
94124SOL    HW284205  12.569  12.815   5.164
94125SOL     OW84206  13.051  14.204  11.857
94125SOL    HW184207  13.028  14.198  11.949
94125SOL    HW284208  13.000  14.134  11.815
94126SOL     OW84209   0.943  14.328   6.951
94126SOL    HW184210   0.874  14.261   6.955
94126SOL    HW284211   0.935  14.375   7.034
94127SOL     OW84212   8.767  14.311   2.357
94127SOL    HW184213   8.789  14.218   2.347
94127SOL    HW284214   8.843  14.357   2.323
94128SOL     OW84215   9.220   9.935  10.959
94128SOL    HW184216   9.215   9.965  10.869
94128SOL    HW284217   9.152   9.868  10.967
94129SOL     OW84218   9.612   7.208   8.876
94129SOL    HW184219   9.528   7.213   8.921
94129SOL    HW284220   9.609   7.125   8.829
94130SOL     OW84221   1.154   5.320   9.324
94130SOL    HW184222   1.068   5.288   9.350
94130SOL    HW284223   1.216   5.260   9.366
94131SOL     OW84224  12.184   4.654   1.120
94131SOL    HW184225  12.213   4.563   1.113
94131SOL    HW284226  12.262   4.701   1.150
94132SOL     OW84227  11.133  11.165  10.382
94132SOL    HW184228  11.204  11.138  10.325
94132SOL    HW284229  11.094  11.240  10.338
94133SOL     OW84230  14.385   8.236   1.935
94133SOL    HW184231  14.355   8.230   2.025
94133SOL    HW284232  14.480   8.237   1.941
94134SOL     OW84233   1.624   6.493  10.216
94134SOL    HW184234   1.661   6.422  10.164
94134SOL    HW284235   1.628   6.570  10.159
94135SOL     OW84236   3.690   2.301   2.214
94135SOL    HW184237   3.623   2.279   2.149
94135SOL    HW284238   3.651   2.276   2.298
94136SOL     OW84239  13.595   5.859   8.127
94136SOL    HW184240  13.573   5.875   8.219
94136SOL    HW284241  13.577   5.767   8.113
94137SOL     OW84242  12.915   8.640   6.057
94137SOL    HW184243  12.894   8.703   6.125
94137SOL    HW284244  12.987   8.588   6.093
94138SOL     OW84245  11.499  10.678   9.841
94138SOL    HW184246  11.547  10.596   9.835
94138SOL    HW284247  11.423  10.659   9.896
94139SOL     OW84248   0.325   3.250  14.787
94139SOL    HW184249   0.350   3.317  14.725
94139SOL    HW284250   0.314   3.170  14.734
94140SOL     OW84251   3.695   0.684   8.348
94140SOL    HW184252   3.677   0.739   8.424
94140SOL    HW284253   3.677   0.595   8.378
94141SOL     OW84254   6.217  12.228   9.389
94141SOL    HW184255   6.232  12.318   9.361
94141SOL    HW284256   6.122  12.217   9.383
94142SOL     OW84257   0.792   0.418   1.154
94142SOL    HW184258   0.728   0.393   1.087
94142SOL    HW284259   0.746   0.480   1.210
94143SOL     OW84260   9.875  14.040  13.782
94143SOL    HW184261   9.925  14.044  13.864
94143SOL    HW284262   9.826  14.122  13.779
94144SOL     OW84263  10.862   8.190   3.357
94144SOL    HW184264  10.846   8.136   3.280
94144SOL    HW284265  10.827   8.140   3.430
94145SOL     OW84266  14.703  12.803  14.185
94145SOL    HW184267  14.726  12.774  14.097
94145SOL    HW284268  14.742  12.737  14.243
94146SOL     OW84269   1.056  12.434   7.641
94146SOL    HW184270   1.104  12.406   7.563
94146SOL    HW284271   0.998  12.361   7.660
94147SOL     OW84272   2.776   0.568  12.553
94147SOL    HW184273   2.813   0.481  12.541
94147SOL    HW284274   2.703   0.572  12.490
94148SOL     OW84275   2.508  11.751   4.051
94148SOL    HW184276   2.537  11.709   4.131
94148SOL    HW284277   2.521  11.845   4.067
94149SOL     OW84278  13.907   1.210   6.098
94149SOL    HW184279  13.836   1.271   6.079
94149SOL    HW284280  13.984   1.265   6.109
94150SOL     OW84281   9.669   6.306  14.840
94150SOL    HW184282   9.745   6.326  14.786
94150SOL    HW284283   9.596   6.347  14.794
94151SOL     OW84284   4.457  13.907  13.378
94151SOL    HW184285   4.459  13.982  13.318
94151SOL    HW284286   4.364  13.889  13.389
94152SOL     OW84287   9.997  10.288   6.252
94152SOL    HW184288   9.902  10.281   6.237
94152SOL    HW284289  10.007  10.274   6.346
94153SOL     OW84290   7.350   4.525   9.032
94153SOL    HW184291   7.284   4.457   9.025
94153SOL    HW284292   7.332   4.568   9.116
94154SOL     OW84293   3.072   6.210   7.230
94154SOL    HW184294   3.103   6.295   7.200
94154SOL    HW284295   3.037   6.226   7.318
94155SOL     OW84296  12.450  10.216  14.329
94155SOL    HW184297  12.438  10.293  14.273
94155SOL    HW284298  12.439  10.141  14.270
94156SOL     OW84299   5.782   1.867   4.587
94156SOL    HW184300   5.817   1.937   4.642
94156SOL    HW284301   5.828   1.788   4.617
94157SOL     OW84302  12.841   8.624  13.579
94157SOL    HW184303  12.925   8.593  13.613
94157SOL    HW284304  12.856   8.634  13.485
94158SOL     OW84305   7.168   9.252   8.799
94158SOL    HW184306   7.208   9.166   8.815
94158SOL    HW284307   7.091   9.253   8.855
94159SOL     OW84308  11.904   2.782  12.480
94159SOL    HW184309  11.986   2.789  12.528
94159SOL    HW284310  11.839   2.760  12.546
94160SOL     OW84311   1.496   0.530  13.963
94160SOL    HW184312   1.411   0.485  13.972
94160SOL    HW284313   1.486   0.610  14.013
94161SOL     OW84314   1.063  10.536   0.893
94161SOL    HW184315   1.080  10.630   0.883
94161SOL    HW284316   1.018  10.529   0.977
94162SOL     OW84317  13.362   4.968   6.906
94162SOL    HW184318  13.293   4.995   6.846
94162SOL    HW284319  13.388   5.049   6.950
94163SOL     OW84320  11.008   5.668   2.542
94163SOL    HW184321  11.071   5.738   2.560
94163SOL    HW284322  11.041   5.593   2.590
94164SOL     OW84323  14.134   3.147   5.675
94164SOL    HW184324  14.116   3.201   5.598
94164SOL    HW284325  14.111   3.058   5.648
94165SOL     OW84326   8.205   2.603   8.026
94165SOL    HW184327   8.236   2.543   8.094
94165SOL    HW284328   8.206   2.550   7.946
94166SOL     OW84329  10.936   5.364   2.198
94166SOL    HW184330  10.992   5.316   2.137
94166SOL    HW284331  10.870   5.406   2.143
94167SOL     OW84332   3.889   7.085   1.999
94167SOL    HW184333   3.974   7.109   2.035
94167SOL    HW284334   3.892   6.989   1.995
94168SOL     OW84335  10.045  10.600   5.184
94168SOL    HW184336  10.035  10.507   5.166
94168SOL    HW284337   9.971  10.642   5.141
94169SOL     OW84338  12.468   5.318   8.727
94169SOL    HW184339  12.516   5.245   8.766
94169SOL    HW284340  12.534   5.367   8.679
94170SOL     OW84341  13.026   2.480   0.013
94170SOL    HW184342  12.966   2.476   0.087
94170SOL    HW284343  13.091   2.545   0.039
94171SOL     OW84344   2.383   6.342   3.617
94171SOL    HW184345   2.342   6.358   3.532
94171SOL    HW284346   2.442   6.417   3.630
94172SOL     OW84347  13.531  14.061   0.859
94172SOL    HW184348  13.471  14.097   0.923
94172SOL    HW284349  13.617  14.095   0.884
94173SOL     OW84350   2.381   4.127  11.179
94173SOL    HW184351   2.399   4.220  11.165
94173SOL    HW284352   2.287   4.118  11.162
94174SOL     OW84353   9.535  13.664   7.289
94174SOL    HW184354   9.515  13.576   7.322
94174SOL    HW284355   9.573  13.650   7.203
94175SOL     OW84356  10.823   0.566   3.000
94175SOL    HW184357  10.837   0.636   2.937
94175SOL    HW284358  10.772   0.606   3.070
94176SOL     OW84359  10.591   0.974   2.489
94176SOL    HW184360  10.610   0.973   2.583
94176SOL    HW284361  10.525   0.906   2.477
94177SOL     OW84362  10.879   6.583   5.814
94177SOL    HW184363  10.936   6.629   5.752
94177SOL    HW284364  10.919   6.597   5.899
94178SOL     OW84365  10.157   3.674  14.418
94178SOL    HW184366  10.162   3.703  14.327
94178SOL    HW284367  10.230   3.718  14.462
94179SOL     OW84368   6.972   8.830   5.964
94179SOL    HW184369   7.066   8.822   5.948
94179SOL    HW284370   6.965   8.882   6.044
94180SOL     OW84371   0.271   9.904   3.753
94180SOL    HW184372   0.313   9.926   3.669
94180SOL    HW284373   0.209   9.975   3.768
94181SOL     OW84374   4.581   1.906   9.720
94181SOL    HW184375   4.662   1.888   9.768
94181SOL    HW284376   4.593   1.995   9.685
94182SOL     OW84377   0.723   6.759  14.588
94182SOL    HW184378   0.726   6.851  14.560
94182SOL    HW284379   0.784   6.754  14.661
94183SOL     OW84380  13.421   2.779   8.057
94183SOL    HW184381  13.396   2.708   7.998
94183SOL    HW284382  13.516   2.784   8.050
94184SOL     OW84383   8.427  12.819  10.325
94184SOL    HW184384   8.502  12.809  10.267
94184SOL    HW284385   8.351  12.802  10.269
94185SOL     OW84386   4.284   7.653   0.540
94185SOL    HW184387   4.350   7.606   0.590
94185SOL    HW284388   4.249   7.718   0.601
94186SOL     OW84389   2.459  10.212   1.103
94186SOL    HW184390   2.542  10.246   1.136
94186SOL    HW284391   2.465  10.223   1.008
94187SOL     OW84392   6.334  13.634   6.025
94187SOL    HW184393   6.402  13.567   6.028
94187SOL    HW284394   6.271  13.601   5.961
94188SOL     OW84395   8.608   9.652   3.167
94188SOL    HW184396   8.565   9.737   3.174
94188SOL    HW284397   8.677   9.665   3.103
94189SOL     OW84398   3.489  10.387  10.217
94189SOL    HW184399   3.423  10.370  10.285
94189SOL    HW284400   3.563  10.425  10.265
94190SOL     OW84401  13.268  11.330   8.614
94190SOL    HW184402  13.361  11.323   8.593
94190SOL    HW284403  13.260  11.413   8.661
94191SOL     OW84404   7.398  14.214   4.249
94191SOL    HW184405   7.426  14.305   4.238
94191SOL    HW284406   7.364  14.210   4.339
94192SOL     OW84407   4.768   8.220  13.031
94192SOL    HW184408   4.680   8.228  12.995
94192SOL    HW284409   4.822   8.194  12.957
94193SOL     OW84410  10.376   4.436   8.939
94193SOL    HW184411  10.382   4.528   8.965
94193SOL    HW284412  10.289   4.429   8.899
94194SOL     OW84413   1.715  13.976   3.553
94194SOL    HW184414   1.775  13.965   3.479
94194SOL    HW284415   1.771  14.007   3.625
94195SOL     OW84416   2.454  11.214  12.695
94195SOL    HW184417   2.517  11.286  12.697
94195SOL    HW284418   2.503  11.138  12.726
94196SOL     OW84419  13.727   7.080   0.636
94196SOL    HW184420  13.705   7.008   0.696
94196SOL    HW284421  13.738   7.037   0.551
94197SOL     OW84422   9.905   3.114   6.366
94197SOL    HW184423   9.956   3.067   6.432
94197SOL    HW284424   9.961   3.185   6.338
94198SOL     OW84425   8.877   7.527   2.152
94198SOL    HW184426   8.787   7.550   2.176
94198SOL    HW284427   8.890   7.440   2.190
94199SOL     OW84428  11.727  14.201   3.673
94199SOL    HW184429  11.649  14.229   3.721
94199SOL    HW284430  11.719  14.244   3.588
94200SOL     OW84431   7.891   5.481   7.394
94200SOL    HW184432   7.981   5.472   7.427
94200SOL    HW284433   7.881   5.574   7.377
94201SOL     OW84434   3.277   7.380   6.808
94201SOL    HW184435   3.327   7.450   6.851
94201SOL    HW284436   3.344   7.322   6.772
94202SOL     OW84437   4.769   8.265   5.410
94202SOL    HW184438   4.780   8.322   5.334
94202SOL    HW284439   4.856   8.227   5.425
94203SOL     OW84440  12.472   3.022  12.052
94203SOL    HW184441  12.557   3.003  12.014
94203SOL    HW284442  12.434   3.089  11.995
94204SOL     OW84443  12.827   7.383  11.890
94204SOL    HW184444  12.746   7.363  11.936
94204SOL    HW284445  12.816   7.343  11.804
94205SOL     OW84446   6.689   9.738   2.978
94205SOL    HW184447   6.629   9.725   2.904
94205SOL    HW284448   6.647   9.692   3.051
94206SOL     OW84449   9.529   8.834  10.577
94206SOL    HW184450   9.538   8.914  10.525
94206SOL    HW284451   9.446   8.796  10.548
94207SOL     OW84452   2.269  13.758   7.988
94207SOL    HW184453   2.259  13.851   8.008
94207SOL    HW284454   2.214  13.713   8.052
94208SOL     OW84455   3.907   2.439  11.121
94208SOL    HW184456   3.830   2.385  11.137
94208SOL    HW284457   3.979   2.390  11.162
94209SOL     OW84458  11.689   1.840   0.520
94209SOL    HW184459  11.643   1.904   0.575
94209SOL    HW284460  11.726   1.892   0.449
94210SOL     OW84461  14.796  10.553  10.012
94210SOL    HW184462  14.779  10.645  10.031
94210SOL    HW284463  14.749  10.535   9.931
94211SOL     OW84464  12.181   3.593   3.732
94211SOL    HW184465  12.184   3.565   3.640
94211SOL    HW284466  12.253   3.656   3.740
94212SOL     OW84467   3.666  13.760   1.033
94212SOL    HW184468   3.673  13.803   1.118
94212SOL    HW284469   3.598  13.809   0.987
94213SOL     OW84470   7.075   2.426   0.876
94213SOL    HW184471   7.124   2.347   0.857
94213SOL    HW284472   7.141   2.496   0.878
94214SOL     OW84473   5.793  13.774  11.841
94214SOL    HW184474   5.794  13.679  11.830
94214SOL    HW284475   5.854  13.791  11.913
94215SOL     OW84476  12.504  10.907   8.245
94215SOL    HW184477  12.459  10.823   8.256
94215SOL    HW284478  12.466  10.964   8.312
94216SOL     OW84479   2.644   5.292   7.407
94216SOL    HW184480   2.694   5.272   7.486
94216SOL    HW284481   2.566   5.237   7.414
94217SOL     OW84482   2.442   0.440  10.543
94217SOL    HW184483   2.492   0.519  10.522
94217SOL    HW284484   2.420   0.402  10.458
94218SOL     OW84485   1.831   3.451   6.615
94218SOL    HW184486   1.765   3.491   6.672
94218SOL    HW284487   1.905   3.434   6.673
94219SOL     OW84488   8.822   5.800   7.323
94219SOL    HW184489   8.869   5.826   7.403
94219SOL    HW284490   8.815   5.705   7.330
94220SOL     OW84491  14.828   3.046   3.957
94220SOL    HW184492  14.774   3.097   3.897
94220SOL    HW284493  14.810   2.955   3.934
94221SOL     OW84494  12.241  11.338   8.425
94221SOL    HW184495  12.164  11.289   8.397
94221SOL    HW284496  12.210  11.428   8.436
94222SOL     OW84497  11.501   5.455   0.360
94222SOL    HW184498  11.417   5.500   0.367
94222SOL    HW284499  11.561   5.521   0.325
94223SOL     OW84500  12.037   9.055   4.268
94223SOL    HW184501  11.995   9.140   4.268
94223SOL    HW284502  12.131   9.074   4.274
94224SOL     OW84503   2.356   7.510   6.569
94224SOL    HW184504   2.263   7.533   6.568
94224SOL    HW284505   2.368   7.457   6.490
94225SOL     OW84506   0.277  11.469   7.016
94225SOL    HW184507   0.247  11.400   7.075
94225SOL    HW284508   0.198  11.501   6.973
94226SOL     OW84509   6.718   7.027   5.019
94226SOL    HW184510   6.745   6.949   4.971
94226SOL    HW284511   6.625   7.038   4.997
94227SOL     OW84512  14.579  12.197   8.453
94227SOL    HW184513  14.591  12.105   8.477
94227SOL    HW284514  14.614  12.203   8.364
94228SOL     OW84515   9.656   3.633  11.866
94228SOL    HW184516   9.682   3.616  11.776
94228SOL    HW284517   9.735   3.667  11.908
94229SOL     OW84518   8.071  14.763   4.712
94229SOL    HW184519   8.084  14.804   4.798
94229SOL    HW284520   8.017  14.826   4.664
94230SOL     OW84521   4.134  10.535  10.673
94230SOL    HW184522   4.215  10.587  10.674
94230SOL    HW284523   4.128  10.502  10.583
94231SOL     OW84524  14.228   5.194   9.073
94231SOL    HW184525  14.172   5.149   9.136
94231SOL    HW284526  14.169   5.254   9.027
94232SOL     OW84527   9.896   0.292   7.283
94232SOL    HW184528   9.933   0.214   7.243
94232SOL    HW284529   9.887   0.355   7.212
94233SOL     OW84530   9.712  10.548  12.136
94233SOL    HW184531   9.644  10.597  12.183
94233SOL    HW284532   9.794  10.572  12.181
94234SOL     OW84533   5.751  11.105   3.000
94234SOL    HW184534   5.810  11.057   2.943
94234SOL    HW284535   5.755  11.195   2.968
94235SOL     OW84536  11.536   0.370  11.180
94235SOL    HW184537  11.442   0.370  11.196
94235SOL    HW284538  11.567   0.452  11.218
94236SOL     OW84539   5.957  12.708   6.541
94236SOL    HW184540   5.916  12.625   6.519
94236SOL    HW284541   5.900  12.747   6.607
94237SOL     OW84542   0.732   2.887   2.791
94237SOL    HW184543   0.826   2.877   2.778
94237SOL    HW284544   0.694   2.873   2.704
94238SOL     OW84545  13.950   9.269   9.027
94238SOL    HW184546  13.943   9.267   9.122
94238SOL    HW284547  14.041   9.247   9.009
94239SOL     OW84548  13.153   1.059   2.214
94239SOL    HW184549  13.113   0.974   2.193
94239SOL    HW284550  13.080   1.120   2.213
94240SOL     OW84551   4.144   9.288   2.797
94240SOL    HW184552   4.057   9.321   2.822
94240SOL    HW284553   4.126   9.202   2.761
94241SOL     OW84554   0.978  14.429   6.329
94241SOL    HW184555   1.036  14.357   6.353
94241SOL    HW284556   1.033  14.507   6.331
94242SOL     OW84557   6.768   3.509  11.609
94242SOL    HW184558   6.817   3.589  11.593
94242SOL    HW284559   6.827   3.454  11.660
94243SOL     OW84560   9.652   8.272  14.150
94243SOL    HW184561   9.668   8.364  14.174
94243SOL    HW284562   9.683   8.265  14.060
94244SOL     OW84563   2.372   6.041   6.598
94244SOL    HW184564   2.455   6.086   6.579
94244SOL    HW284565   2.314   6.110   6.631
94245SOL     OW84566   1.774  11.031   4.434
94245SOL    HW184567   1.697  11.034   4.378
94245SOL    HW284568   1.756  10.961   4.496
94246SOL     OW84569   0.077   7.648   4.107
94246SOL    HW184570   0.049   7.632   4.017
94246SOL    HW284571   0.075   7.562   4.149
94247SOL     OW84572   1.633   6.112   4.870
94247SOL    HW184573   1.689   6.165   4.927
94247SOL    HW284574   1.660   6.134   4.781
94248SOL     OW84575   9.139   8.192  10.813
94248SOL    HW184576   9.052   8.178  10.850
94248SOL    HW284577   9.132   8.274  10.764
94249SOL     OW84578  11.592  11.327   3.732
94249SOL    HW184579  11.671  11.273   3.737
94249SOL    HW284580  11.522  11.265   3.709
94250SOL     OW84581   4.061   7.385  12.834
94250SOL    HW184582   4.006   7.379  12.912
94250SOL    HW284583   4.148   7.359  12.863
94251SOL     OW84584   1.165  14.218   0.866
94251SOL    HW184585   1.182  14.233   0.773
94251SOL    HW284586   1.088  14.161   0.868
94252SOL     OW84587  10.025   8.558   5.478
94252SOL    HW184588  10.083   8.497   5.523
94252SOL    HW284589  10.082   8.604   5.416
94253SOL     OW84590   7.986  13.654  13.749
94253SOL    HW184591   8.018  13.648  13.659
94253SOL    HW284592   7.892  13.641  13.742
94254SOL     OW84593   2.621   7.733  10.805
94254SOL    HW184594   2.657   7.653  10.843
94254SOL    HW284595   2.635   7.724  10.711
94255SOL     OW84596   3.039  10.291   1.994
94255SOL    HW184597   3.059  10.385   2.002
94255SOL    HW284598   3.124  10.248   2.003
94256SOL     OW84599  12.025   6.433   6.478
94256SOL    HW184600  12.114   6.469   6.480
94256SOL    HW284601  12.032   6.355   6.423
94257SOL     OW84602   0.031   7.157   8.835
94257SOL    HW184603   0.002   7.232   8.886
94257SOL    HW284604   0.048   7.193   8.747
94258SOL     OW84605   1.856   3.345   6.200
94258SOL    HW184606   1.872   3.326   6.107
94258SOL    HW284607   1.775   3.396   6.200
94259SOL     OW84608  10.499   3.815   7.828
94259SOL    HW184609  10.564   3.877   7.859
94259SOL    HW284610  10.539   3.772   7.753
94260SOL     OW84611   4.333  11.371  11.186
94260SOL    HW184612   4.245  11.335  11.191
94260SOL    HW284613   4.382  11.324  11.254
94261SOL     OW84614   5.872  12.226   2.133
94261SOL    HW184615   5.852  12.280   2.057
94261SOL    HW284616   5.897  12.141   2.096
94262SOL     OW84617   2.918   7.275   5.821
94262SOL    HW184618   2.871   7.217   5.760
94262SOL    HW284619   2.966   7.215   5.879
94263SOL     OW84620   9.175   6.130   5.695
94263SOL    HW184621   9.126   6.093   5.622
94263SOL    HW284622   9.176   6.061   5.761
94264SOL     OW84623   1.165   9.661   7.355
94264SOL    HW184624   1.140   9.688   7.443
94264SOL    HW284625   1.232   9.594   7.369
94265SOL     OW84626   9.719   3.176  12.527
94265SOL    HW184627   9.690   3.246  12.468
94265SOL    HW284628   9.794   3.137  12.482
94266SOL     OW84629   1.649   6.208  11.925
94266SOL    HW184630   1.653   6.302  11.943
94266SOL    HW284631   1.708   6.195  11.852
94267SOL     OW84632   5.734  10.622   8.461
94267SOL    HW184633   5.759  10.535   8.492
94267SOL    HW284634   5.691  10.606   8.377
94268SOL     OW84635   5.970   0.282   3.256
94268SOL    HW184636   6.015   0.215   3.307
94268SOL    HW284637   6.040   0.325   3.207
94269SOL     OW84638   0.792   0.432   3.743
94269SOL    HW184639   0.705   0.396   3.763
94269SOL    HW284640   0.853   0.365   3.773
94270SOL     OW84641  14.741   6.444   8.988
94270SOL    HW184642  14.740   6.522   8.931
94270SOL    HW284643  14.809   6.463   9.053
94271SOL     OW84644   4.821   0.433  12.249
94271SOL    HW184645   4.755   0.365  12.240
94271SOL    HW284646   4.798   0.498  12.182
94272SOL     OW84647   7.728  11.034   3.724
94272SOL    HW184648   7.708  11.065   3.812
94272SOL    HW284649   7.822  11.045   3.714
94273SOL     OW84650   9.775   9.581  13.760
94273SOL    HW184651   9.770   9.625  13.845
94273SOL    HW284652   9.698   9.524  13.758
94274SOL     OW84653   6.004   2.958  11.777
94274SOL    HW184654   6.009   3.021  11.849
94274SOL    HW284655   6.010   2.872  11.819
94275SOL     OW84656  13.945   2.318   3.641
94275SOL    HW184657  13.903   2.275   3.715
94275SOL    HW284658  13.902   2.280   3.564
94276SOL     OW84659   9.173  11.404   7.565
94276SOL    HW184660   9.136  11.444   7.486
94276SOL    HW284661   9.226  11.330   7.533
94277SOL     OW84662  13.224   3.302  14.823
94277SOL    HW184663  13.167   3.242  14.872
94277SOL    HW284664  13.165   3.343  14.759
94278SOL     OW84665  12.989  14.763   1.526
94278SOL    HW184666  12.981  14.806   1.441
94278SOL    HW284667  13.020  14.675   1.506
94279SOL     OW84668   3.276  14.021   8.512
94279SOL    HW184669   3.258  13.964   8.587
94279SOL    HW284670   3.265  14.110   8.547
94280SOL     OW84671   8.579   3.859   3.970
94280SOL    HW184672   8.599   3.794   3.903
94280SOL    HW284673   8.484   3.871   3.965
94281SOL     OW84674   0.735   1.182   8.241
94281SOL    HW184675   0.656   1.150   8.285
94281SOL    HW284676   0.718   1.166   8.148
94282SOL     OW84677   8.733  11.240   9.505
94282SOL    HW184678   8.647  11.252   9.546
94282SOL    HW284679   8.776  11.172   9.557
94283SOL     OW84680  10.737  12.602   5.983
94283SOL    HW184681  10.783  12.677   6.021
94283SOL    HW284682  10.795  12.571   5.913
94284SOL     OW84683   5.397   0.899   0.874
94284SOL    HW184684   5.324   0.941   0.829
94284SOL    HW284685   5.461   0.969   0.885
94285SOL     OW84686  13.012  14.204   1.603
94285SOL    HW184687  13.032  14.213   1.510
94285SOL    HW284688  12.928  14.157   1.605
94286SOL     OW84689   6.562   1.174   1.212
94286SOL    HW184690   6.579   1.258   1.255
94286SOL    HW284691   6.471   1.180   1.182
94287SOL     OW84692   3.489   0.273   7.269
94287SOL    HW184693   3.475   0.296   7.361
94287SOL    HW284694   3.440   0.191   7.258
94288SOL     OW84695  11.652  12.243   7.909
94288SOL    HW184696  11.594  12.317   7.893
94288SOL    HW284697  11.724  12.280   7.960
94289SOL     OW84698   9.414   5.866   2.184
94289SOL    HW184699   9.390   5.774   2.183
94289SOL    HW284700   9.391   5.896   2.272
94290SOL     OW84701  12.698  10.192   9.178
94290SOL    HW184702  12.650  10.255   9.232
94290SOL    HW284703  12.665  10.107   9.206
94291SOL     OW84704   6.999  10.548  13.360
94291SOL    HW184705   6.912  10.577  13.386
94291SOL    HW284706   6.984  10.464  13.315
94292SOL     OW84707   3.546  14.703  11.495
94292SOL    HW184708   3.507  14.616  11.500
94292SOL    HW284709   3.586  14.717  11.581
94293SOL     OW84710   6.820  14.056   9.360
94293SOL    HW184711   6.860  13.991   9.417
94293SOL    HW284712   6.818  14.014   9.274
94294SOL     OW84713   3.118  12.950  14.731
94294SOL    HW184714   3.209  12.924  14.715
94294SOL    HW284715   3.122  13.002  14.812
94295SOL     OW84716  14.370   3.739  13.122
94295SOL    HW184717  14.362   3.809  13.058
94295SOL    HW284718  14.288   3.690  13.114
94296SOL     OW84719  12.462   5.089   1.440
94296SOL    HW184720  12.531   5.111   1.378
94296SOL    HW284721  12.381   5.094   1.388
94297SOL     OW84722   0.391  12.603  12.375
94297SOL    HW184723   0.334  12.680  12.371
94297SOL    HW284724   0.479  12.639  12.366
94298SOL     OW84725   6.115   5.006  12.803
94298SOL    HW184726   6.044   4.942  12.802
94298SOL    HW284727   6.195   4.954  12.803
94299SOL     OW84728  11.358   3.921   5.047
94299SOL    HW184729  11.371   4.000   5.099
94299SOL    HW284730  11.371   3.849   5.109
94300SOL     OW84731  10.693   2.037   7.844
94300SOL    HW184732  10.745   1.957   7.856
94300SOL    HW284733  10.602   2.008   7.857
94301SOL     OW84734  10.919   4.138   6.554
94301SOL    HW184735  10.979   4.187   6.609
94301SOL    HW284736  10.916   4.051   6.593
94302SOL     OW84737  13.105  12.500  14.003
94302SOL    HW184738  13.014  12.520  13.979
94302SOL    HW284739  13.137  12.582  14.042
94303SOL     OW84740  14.603   5.683   5.268
94303SOL    HW184741  14.641   5.650   5.350
94303SOL    HW284742  14.663   5.652   5.200
94304SOL     OW84743   9.613   2.609  14.457
94304SOL    HW184744   9.533   2.644  14.496
94304SOL    HW284745   9.583   2.543  14.394
94305SOL     OW84746   0.387   4.628   4.459
94305SOL    HW184747   0.461   4.629   4.520
94305SOL    HW284748   0.309   4.624   4.514
94306SOL     OW84749  13.964   3.595   5.641
94306SOL    HW184750  13.964   3.597   5.546
94306SOL    HW284751  14.056   3.585   5.666
94307SOL     OW84752  13.125   8.350   5.506
94307SOL    HW184753  13.189   8.421   5.515
94307SOL    HW284754  13.155   8.301   5.429
94308SOL     OW84755   7.390  12.967   1.900
94308SOL    HW184756   7.478  12.945   1.934
94308SOL    HW284757   7.330  12.930   1.965
94309SOL     OW84758   8.503  13.296   0.995
94309SOL    HW184759   8.455  13.306   1.077
94309SOL    HW284760   8.543  13.381   0.980
94310SOL     OW84761   5.735  11.015  14.352
94310SOL    HW184762   5.816  10.972  14.379
94310SOL    HW284763   5.714  11.075  14.424
94311SOL     OW84764   6.048   8.600   1.607
94311SOL    HW184765   6.003   8.591   1.691
94311SOL    HW284766   5.978   8.612   1.543
94312SOL     OW84767   8.351  13.452  11.180
94312SOL    HW184768   8.292  13.511  11.227
94312SOL    HW284769   8.356  13.489  11.092
94313SOL     OW84770   5.269  10.645   5.950
94313SOL    HW184771   5.181  10.667   5.920
94313SOL    HW284772   5.282  10.700   6.027
94314SOL     OW84773   6.273   0.017   3.611
94314SOL    HW184774   6.187   0.026   3.652
94314SOL    HW284775   6.335   0.040   3.680
94315SOL     OW84776  12.242  12.661  14.102
94315SOL    HW184777  12.251  12.581  14.154
94315SOL    HW284778  12.228  12.730  14.167
94316SOL     OW84779  13.450  14.421   0.697
94316SOL    HW184780  13.358  14.418   0.674
94316SOL    HW284781  13.454  14.385   0.785
94317SOL     OW84782  12.704  11.622   5.845
94317SOL    HW184783  12.726  11.654   5.933
94317SOL    HW284784  12.614  11.651   5.831
94318SOL     OW84785   6.541   6.017  11.661
94318SOL    HW184786   6.480   6.027  11.588
94318SOL    HW284787   6.627   6.006  11.619
94319SOL     OW84788   6.898  10.289   4.072
94319SOL    HW184789   6.873  10.361   4.015
94319SOL    HW284790   6.909  10.329   4.158
94320SOL     OW84791  10.986   3.087   1.567
94320SOL    HW184792  11.069   3.064   1.527
94320SOL    HW284793  10.990   3.182   1.577
94321SOL     OW84794  11.859  12.227   8.121
94321SOL    HW184795  11.840  12.310   8.079
94321SOL    HW284796  11.826  12.237   8.211
94322SOL     OW84797  11.530   1.175   8.429
94322SOL    HW184798  11.553   1.196   8.520
94322SOL    HW284799  11.455   1.230   8.410
94323SOL     OW84800  14.458  14.157   6.800
94323SOL    HW184801  14.386  14.101   6.773
94323SOL    HW284802  14.521  14.153   6.728
94324SOL     OW84803  13.488  12.841  11.106
94324SOL    HW184804  13.444  12.840  11.191
94324SOL    HW284805  13.461  12.923  11.066
94325SOL     OW84806   0.848   7.215   3.130
94325SOL    HW184807   0.940   7.238   3.146
94325SOL    HW284808   0.805   7.231   3.214
94326SOL     OW84809  13.346   2.959   9.672
94326SOL    HW184810  13.258   2.977   9.705
94326SOL    HW284811  13.380   3.045   9.648
94327SOL     OW84812  13.075   4.448   8.867
94327SOL    HW184813  13.082   4.521   8.805
94327SOL    HW284814  13.146   4.464   8.929
94328SOL     OW84815   1.316  11.022   1.169
94328SOL    HW184816   1.329  10.931   1.193
94328SOL    HW284817   1.403  11.052   1.141
94329SOL     OW84818   7.060  13.310   1.650
94329SOL    HW184819   7.135  13.269   1.693
94329SOL    HW284820   7.015  13.237   1.607
94330SOL     OW84821   8.191   3.714  11.070
94330SOL    HW184822   8.250   3.749  11.002
94330SOL    HW284823   8.134   3.653  11.023
94331SOL     OW84824  14.544   6.048  10.917
94331SOL    HW184825  14.623   6.044  10.862
94331SOL    HW284826  14.574   6.021  11.004
94332SOL     OW84827   1.610   9.473  11.548
94332SOL    HW184828   1.611   9.432  11.635
94332SOL    HW284829   1.528   9.442  11.508
94333SOL     OW84830   7.589  11.523  13.823
94333SOL    HW184831   7.505  11.512  13.868
94333SOL    HW284832   7.583  11.610  13.782
94334SOL     OW84833   5.574  14.481  13.214
94334SOL    HW184834   5.496  14.432  13.242
94334SOL    HW284835   5.620  14.501  13.296
94335SOL     OW84836  13.196   7.167   6.909
94335SOL    HW184837  13.111   7.146   6.947
94335SOL    HW284838  13.258   7.116   6.962
94336SOL     OW84839   1.621  12.725  11.886
94336SOL    HW184840   1.555  12.674  11.932
94336SOL    HW284841   1.579  12.753  11.805
94337SOL     OW84842   7.790   4.915   2.565
94337SOL    HW184843   7.800   4.976   2.638
94337SOL    HW284844   7.776   4.830   2.606
94338SOL     OW84845  13.534   8.236  12.822
94338SOL    HW184846  13.511   8.192  12.740
94338SOL    HW284847  13.530   8.329  12.801
94339SOL     OW84848   6.920   3.464   3.297
94339SOL    HW184849   6.981   3.392   3.311
94339SOL    HW284850   6.969   3.527   3.244
94340SOL     OW84851  12.043   5.593   9.093
94340SOL    HW184852  12.004   5.601   9.180
94340SOL    HW284853  12.005   5.665   9.043
94341SOL     OW84854   8.769   2.586  14.203
94341SOL    HW184855   8.809   2.610  14.287
94341SOL    HW284856   8.705   2.655  14.187
94342SOL     OW84857   9.224   5.526   1.170
94342SOL    HW184858   9.144   5.576   1.158
94342SOL    HW284859   9.292   5.592   1.181
94343SOL     OW84860  12.568  13.064   5.850
94343SOL    HW184861  12.520  13.027   5.924
94343SOL    HW284862  12.660  13.041   5.867
94344SOL     OW84863   7.998  13.475   3.247
94344SOL    HW184864   7.909  13.497   3.275
94344SOL    HW284865   8.000  13.499   3.154
94345SOL     OW84866  13.169   7.058  13.532
94345SOL    HW184867  13.146   7.041  13.623
94345SOL    HW284868  13.136   7.146  13.514
94346SOL     OW84869   2.817  14.406   2.917
94346SOL    HW184870   2.835  14.417   3.010
94346SOL    HW284871   2.753  14.474   2.896
94347SOL     OW84872   8.226   7.856  11.389
94347SOL    HW184873   8.308   7.905  11.395
94347SOL    HW284874   8.248   7.778  11.339
94348SOL     OW84875   6.531  14.501   5.968
94348SOL    HW184876   6.511  14.572   5.907
94348SOL    HW284877   6.542  14.545   6.052
94349SOL     OW84878   5.355   7.079   5.795
94349SOL    HW184879   5.317   7.071   5.882
94349SOL    HW284880   5.389   7.168   5.792
94350SOL     OW84881   1.478   3.266  13.908
94350SOL    HW184882   1.568   3.282  13.936
94350SOL    HW284883   1.428   3.262  13.989
94351SOL     OW84884  12.347  11.702   1.454
94351SOL    HW184885  12.326  11.609   1.462
94351SOL    HW284886  12.415  11.717   1.519
94352SOL     OW84887   1.171   6.147   7.043
94352SOL    HW184888   1.238   6.129   7.109
94352SOL    HW284889   1.215   6.136   6.959
94353SOL     OW84890   3.493   5.381  12.461
94353SOL    HW184891   3.531   5.467  12.443
94353SOL    HW284892   3.569   5.323  12.470
94354SOL     OW84893  11.403   2.577   0.911
94354SOL    HW184894  11.315   2.612   0.898
94354SOL    HW284895  11.410   2.506   0.847
94355SOL     OW84896  13.680   6.653  13.982
94355SOL    HW184897  13.630   6.606  14.048
94355SOL    HW284898  13.619   6.721  13.950
94356SOL     OW84899  12.338   1.325  14.683
94356SOL    HW184900  12.403   1.341  14.751
94356SOL    HW284901  12.273   1.268  14.724
94357SOL     OW84902   3.565   0.806  10.709
94357SOL    HW184903   3.554   0.888  10.661
94357SOL    HW284904   3.612   0.749  10.649
94358SOL     OW84905  11.270   5.026   4.458
94358SOL    HW184906  11.325   4.974   4.517
94358SOL    HW284907  11.332   5.076   4.406
94359SOL     OW84908  14.863   3.239   2.026
94359SOL    HW184909   0.006   3.211   1.936
94359SOL    HW284910   0.069   3.287   2.051
94360SOL     OW84911  12.520  11.339  13.119
94360SOL    HW184912  12.596  11.341  13.061
94360SOL    HW284913  12.447  11.314  13.063
94361SOL     OW84914  13.229   4.266  12.773
94361SOL    HW184915  13.194   4.270  12.861
94361SOL    HW284916  13.198   4.346  12.730
94362SOL     OW84917  12.164   1.495   5.173
94362SOL    HW184918  12.132   1.487   5.263
94362SOL    HW284919  12.173   1.590   5.160
94363SOL     OW84920   8.274   9.507  11.723
94363SOL    HW184921   8.282   9.441  11.654
94363SOL    HW284922   8.307   9.463  11.801
94364SOL     OW84923  13.288   6.828   8.912
94364SOL    HW184924  13.260   6.915   8.882
94364SOL    HW284925  13.231   6.809   8.986
94365SOL     OW84926   0.902  14.351  13.183
94365SOL    HW184927   0.876  14.442  13.193
94365SOL    HW284928   0.960  14.351  13.106
94366SOL     OW84929   5.110  11.065   3.785
94366SOL    HW184930   5.138  11.013   3.710
94366SOL    HW284931   5.099  11.001   3.855
94367SOL     OW84932   8.606  14.489   0.549
94367SOL    HW184933   8.697  14.497   0.577
94367SOL    HW284934   8.562  14.442   0.620
94368SOL     OW84935  10.657   2.940  13.553
94368SOL    HW184936  10.706   3.023  13.556
94368SOL    HW284937  10.565   2.967  13.554
94369SOL     OW84938   2.522   0.611  12.891
94369SOL    HW184939   2.435   0.573  12.900
94369SOL    HW284940   2.579   0.537  12.873
94370SOL     OW84941   7.068   8.944  10.392
94370SOL    HW184942   7.112   8.948  10.477
94370SOL    HW284943   7.011   8.868  10.397
94371SOL     OW84944  14.367   6.866  11.326
94371SOL    HW184945  14.389   6.793  11.268
94371SOL    HW284946  14.422   6.938  11.297
94372SOL     OW84947   5.083   6.023   3.832
94372SOL    HW184948   5.125   6.021   3.746
94372SOL    HW284949   5.047   5.935   3.844
94373SOL     OW84950  14.187  12.595   6.161
94373SOL    HW184951  14.219  12.531   6.225
94373SOL    HW284952  14.189  12.549   6.077
94374SOL     OW84953   0.379  14.685   4.001
94374SOL    HW184954   0.306  14.635   4.037
94374SOL    HW284955   0.338  14.746   3.939
94375SOL     OW84956   7.025   1.406   5.362
94375SOL    HW184957   6.984   1.486   5.327
94375SOL    HW284958   7.027   1.346   5.288
94376SOL     OW84959   9.842   7.082   3.884
94376SOL    HW184960   9.758   7.056   3.847
94376SOL    HW284961   9.896   7.104   3.808
94377SOL     OW84962   8.708   7.849   7.631
94377SOL    HW184963   8.756   7.800   7.563
94377SOL    HW284964   8.677   7.928   7.586
94378SOL     OW84965   2.641   7.481  12.240
94378SOL    HW184966   2.560   7.526  12.216
94378SOL    HW284967   2.657   7.420  12.169
94379SOL     OW84968  14.629   9.482   2.703
94379SOL    HW184969  14.684   9.515   2.632
94379SOL    HW284970  14.551   9.538   2.700
94380SOL     OW84971   7.599   4.382  10.127
94380SOL    HW184972   7.592   4.373  10.222
94380SOL    HW284973   7.576   4.473  10.109
94381SOL     OW84974   4.364  10.728  10.688
94381SOL    HW184975   4.391  10.783  10.762
94381SOL    HW284976   4.419  10.758  10.615
94382SOL     OW84977   6.891   1.136   1.222
94382SOL    HW184978   6.983   1.144   1.196
94382SOL    HW284979   6.841   1.165   1.145
94383SOL     OW84980   2.311  11.211   5.093
94383SOL    HW184981   2.222  11.198   5.062
94383SOL    HW284982   2.331  11.133   5.144
94384SOL     OW84983   5.960  12.577  13.915
94384SOL    HW184984   5.975  12.500  13.969
94384SOL    HW284985   5.937  12.542  13.829
94385SOL     OW84986   7.894  13.613   4.410
94385SOL    HW184987   7.878  13.522   4.435
94385SOL    HW284988   7.863  13.664   4.484
94386SOL     OW84989   8.403   8.634   1.762
94386SOL    HW184990   8.335   8.655   1.698
94386SOL    HW284991   8.445   8.719   1.781
94387SOL     OW84992  13.491   5.604   9.234
94387SOL    HW184993  13.494   5.682   9.290
94387SOL    HW284994  13.397   5.588   9.221
94388SOL     OW84995   8.775   1.080  14.463
94388SOL    HW184996   8.780   0.986  14.446
94388SOL    HW284997   8.839   1.119  14.404
94389SOL     OW84998   1.122   5.653   2.172
94389SOL    HW184999   1.114   5.747   2.192
94389SOL    HW285000   1.142   5.651   2.079
94390SOL     OW85001  13.145   7.553   8.980
94390SOL    HW185002  13.080   7.577   9.046
94390SOL    HW285003  13.116   7.598   8.900
94391SOL     OW85004   3.433   7.828   4.481
94391SOL    HW185005   3.405   7.781   4.402
94391SOL    HW285006   3.376   7.905   4.485
94392SOL     OW85007   8.646   9.555  13.915
94392SOL    HW185008   8.726   9.602  13.935
94392SOL    HW285009   8.643   9.554  13.819
94393SOL     OW85010  14.494  11.416   0.785
94393SOL    HW185011  14.570  11.414   0.726
94393SOL    HW285012  14.515  11.483   0.850
94394SOL     OW85013  14.356  14.018  13.824
94394SOL    HW185014  14.306  13.953  13.872
94394SOL    HW285015  14.290  14.077  13.787
94395SOL     OW85016   5.072   8.744   5.187
94395SOL    HW185017   5.068   8.650   5.167
94395SOL    HW285018   5.121   8.749   5.269
94396SOL     OW85019   3.459   3.027  14.101
94396SOL    HW185020   3.408   3.097  14.061
94396SOL    HW285021   3.491   2.975  14.028
94397SOL     OW85022   8.191   5.284   4.290
94397SOL    HW185023   8.266   5.324   4.333
94397SOL    HW285024   8.152   5.355   4.240
94398SOL     OW85025   7.226   0.894   8.858
94398SOL    HW185026   7.138   0.926   8.835
94398SOL    HW285027   7.263   0.866   8.775
94399SOL     OW85028   8.016   2.647   5.545
94399SOL    HW185029   8.082   2.709   5.513
94399SOL    HW285030   7.934   2.695   5.541
94400SOL     OW85031   8.410   8.007  14.817
94400SOL    HW185032   8.344   8.073  14.835
94400SOL    HW285033   8.409   7.950   0.022
94401SOL     OW85034   0.011  10.807  14.525
94401SOL    HW185035   0.002  10.724  14.479
94401SOL    HW285036   0.081  10.792  14.588
94402SOL     OW85037  14.076   6.036   7.739
94402SOL    HW185038  14.033   5.993   7.665
94402SOL    HW285039  14.013   6.026   7.811
94403SOL     OW85040   1.701   1.472   5.827
94403SOL    HW185041   1.606   1.458   5.822
94403SOL    HW285042   1.717   1.493   5.919
94404SOL     OW85043  13.028   4.556   6.082
94404SOL    HW185044  12.999   4.465   6.080
94404SOL    HW285045  13.047   4.573   6.174
94405SOL     OW85046   0.184   6.863   1.029
94405SOL    HW185047   0.272   6.870   0.992
94405SOL    HW285048   0.126   6.859   0.953
94406SOL     OW85049  14.120   6.839   5.552
94406SOL    HW185050  14.087   6.749   5.558
94406SOL    HW285051  14.105   6.863   5.461
94407SOL     OW85052   3.417  13.345  14.713
94407SOL    HW185053   3.512  13.335  14.711
94407SOL    HW285054   3.386  13.289  14.642
94408SOL     OW85055   1.559  13.388   4.204
94408SOL    HW185056   1.557  13.482   4.224
94408SOL    HW285057   1.573  13.384   4.109
94409SOL     OW85058  12.741   7.610   1.927
94409SOL    HW185059  12.657   7.597   1.882
94409SOL    HW285060  12.792   7.664   1.867
94410SOL     OW85061  11.094   9.682   5.311
94410SOL    HW185062  11.148   9.762   5.312
94410SOL    HW285063  11.035   9.695   5.236
94411SOL     OW85064   9.341  13.955  11.440
94411SOL    HW185065   9.263  13.903  11.458
94411SOL    HW285066   9.327  14.037  11.488
94412SOL     OW85067   5.770   4.515  13.560
94412SOL    HW185068   5.768   4.420  13.557
94412SOL    HW285069   5.847   4.536  13.613
94413SOL     OW85070   7.214   6.656   3.977
94413SOL    HW185071   7.222   6.657   4.072
94413SOL    HW285072   7.297   6.693   3.946
94414SOL     OW85073   0.757   2.681  14.174
94414SOL    HW185074   0.769   2.776  14.177
94414SOL    HW285075   0.781   2.652  14.262
94415SOL     OW85076  11.861  13.220   6.399
94415SOL    HW185077  11.813  13.144   6.431
94415SOL    HW285078  11.918  13.245   6.472
94416SOL     OW85079  11.646  13.245   9.762
94416SOL    HW185080  11.638  13.161   9.808
94416SOL    HW285081  11.711  13.229   9.693
94417SOL     OW85082   1.990  14.607   6.436
94417SOL    HW185083   1.976  14.513   6.425
94417SOL    HW285084   2.017  14.638   6.350
94418SOL     OW85085   6.670   4.340  14.693
94418SOL    HW185086   6.682   4.418  14.747
94418SOL    HW285087   6.723   4.273  14.735
94419SOL     OW85088  13.251  11.076   0.003
94419SOL    HW185089  13.180  11.137   0.026
94419SOL    HW285090  13.207  10.999  14.842
94420SOL     OW85091  11.026   6.433   6.260
94420SOL    HW185092  11.088   6.361   6.262
94420SOL    HW285093  11.026   6.464   6.170
94421SOL     OW85094   9.200   3.480   2.307
94421SOL    HW185095   9.132   3.428   2.351
94421SOL    HW285096   9.278   3.425   2.309
94422SOL     OW85097  10.892   2.241  11.022
94422SOL    HW185098  10.874   2.186  10.945
94422SOL    HW285099  10.807   2.275  11.048
94423SOL     OW85100  11.265  11.796   4.145
94423SOL    HW185101  11.214  11.871   4.176
94423SOL    HW285102  11.308  11.828   4.065
94424SOL     OW85103   5.432  11.040  14.130
94424SOL    HW185104   5.434  11.110  14.065
94424SOL    HW285105   5.432  11.086  14.214
94425SOL     OW85106   5.246   2.848  14.614
94425SOL    HW185107   5.310   2.809  14.674
94425SOL    HW285108   5.179   2.884  14.671
94426SOL     OW85109  12.204  10.361  10.314
94426SOL    HW185110  12.215  10.272  10.281
94426SOL    HW285111  12.129  10.396  10.265
94427SOL     OW85112   8.943   9.497  14.310
94427SOL    HW185113   8.945   9.466  14.401
94427SOL    HW285114   9.034   9.499  14.283
94428SOL     OW85115  12.619   6.362  11.729
94428SOL    HW185116  12.673   6.409  11.664
94428SOL    HW285117  12.665   6.376  11.812
94429SOL     OW85118   5.458  13.426   8.882
94429SOL    HW185119   5.511  13.403   8.959
94429SOL    HW285120   5.395  13.355   8.874
94430SOL     OW85121  10.832   8.678  10.812
94430SOL    HW185122  10.770   8.744  10.843
94430SOL    HW285123  10.845   8.700  10.720
94431SOL     OW85124  12.109   4.261  10.741
94431SOL    HW185125  12.047   4.236  10.810
94431SOL    HW285126  12.118   4.183  10.687
94432SOL     OW85127   9.150   7.212  12.372
94432SOL    HW185128   9.084   7.150  12.341
94432SOL    HW285129   9.139   7.288  12.315
94433SOL     OW85130   2.620   6.663   9.742
94433SOL    HW185131   2.698   6.652   9.796
94433SOL    HW285132   2.596   6.755   9.753
94434SOL     OW85133   9.378   5.072   3.697
94434SOL    HW185134   9.421   5.142   3.648
94434SOL    HW285135   9.399   5.091   3.789
94435SOL     OW85136   4.448   6.567  13.507
94435SOL    HW185137   4.458   6.654  13.546
94435SOL    HW285138   4.467   6.506  13.578
94436SOL     OW85139   4.053   7.062  12.314
94436SOL    HW185140   4.053   7.146  12.359
94436SOL    HW285141   4.043   6.997  12.383
94437SOL     OW85142   7.528  13.209  11.256
94437SOL    HW185143   7.487  13.231  11.340
94437SOL    HW285144   7.518  13.114  11.248
94438SOL     OW85145  13.949  10.307   0.270
94438SOL    HW185146  13.918  10.397   0.278
94438SOL    HW285147  13.869  10.254   0.269
94439SOL     OW85148   2.214   2.025  11.008
94439SOL    HW185149   2.247   1.943  11.047
94439SOL    HW285150   2.291   2.081  11.003
94440SOL     OW85151   5.136   1.979   5.772
94440SOL    HW185152   5.136   1.883   5.781
94440SOL    HW285153   5.156   1.995   5.680
94441SOL     OW85154   6.947   8.584   1.453
94441SOL    HW185155   6.866   8.635   1.445
94441SOL    HW285156   6.971   8.592   1.545
94442SOL     OW85157   1.955  12.197   9.255
94442SOL    HW185158   2.043  12.235   9.262
94442SOL    HW285159   1.908  12.256   9.195
94443SOL     OW85160   1.257  12.858   9.898
94443SOL    HW185161   1.265  12.765   9.880
94443SOL    HW285162   1.259  12.864   9.994
94444SOL     OW85163   3.213  11.293   7.734
94444SOL    HW185164   3.187  11.201   7.739
94444SOL    HW285165   3.190  11.320   7.645
94445SOL     OW85166   3.982   8.137   8.632
94445SOL    HW185167   3.971   8.213   8.576
94445SOL    HW285168   3.945   8.064   8.582
94446SOL     OW85169   0.244   0.093  13.411
94446SOL    HW185170   0.328   0.060  13.444
94446SOL    HW285171   0.257   0.100  13.316
94447SOL     OW85172   9.728   6.091   2.310
94447SOL    HW185173   9.672   6.159   2.349
94447SOL    HW285174   9.801   6.083   2.371
94448SOL     OW85175   8.155  14.399  12.409
94448SOL    HW185176   8.147  14.311  12.372
94448SOL    HW285177   8.108  14.455  12.347
94449SOL     OW85178   1.712   1.806   1.458
94449SOL    HW185179   1.729   1.741   1.389
94449SOL    HW285180   1.790   1.804   1.513
94450SOL     OW85181   8.682  10.114   3.083
94450SOL    HW185182   8.694  10.202   3.119
94450SOL    HW285183   8.769  10.074   3.088
94451SOL     OW85184  14.715   0.958   7.497
94451SOL    HW185185  14.762   0.939   7.578
94451SOL    HW285186  14.623   0.945   7.520
94452SOL     OW85187  12.569   4.594  13.297
94452SOL    HW185188  12.601   4.675  13.257
94452SOL    HW285189  12.506   4.559  13.233
94453SOL     OW85190   9.517   7.824   0.628
94453SOL    HW185191   9.447   7.780   0.677
94453SOL    HW285192   9.472   7.892   0.578
94454SOL     OW85193   1.585   6.092   0.660
94454SOL    HW185194   1.560   6.082   0.752
94454SOL    HW285195   1.654   6.027   0.648
94455SOL     OW85196   4.718  13.941   2.526
94455SOL    HW185197   4.764  13.951   2.442
94455SOL    HW285198   4.633  13.981   2.512
94456SOL     OW85199   2.593  10.789   1.621
94456SOL    HW185200   2.508  10.766   1.659
94456SOL    HW285201   2.574  10.861   1.561
94457SOL     OW85202  11.880   7.373  13.696
94457SOL    HW185203  11.898   7.391  13.788
94457SOL    HW285204  11.966   7.352  13.658
94458SOL     OW85205   3.002   7.029   4.211
94458SOL    HW185206   2.988   7.086   4.135
94458SOL    HW285207   2.913   7.003   4.237
94459SOL     OW85208   4.765   9.519   0.388
94459SOL    HW185209   4.785   9.605   0.425
94459SOL    HW285210   4.747   9.464   0.463
94460SOL     OW85211   6.458  10.053   3.972
94460SOL    HW185212   6.489   9.969   3.938
94460SOL    HW285213   6.490  10.117   3.909
94461SOL     OW85214  11.050   8.963   3.866
94461SOL    HW185215  11.111   8.937   3.935
94461SOL    HW285216  10.965   8.969   3.910
94462SOL     OW85217   3.021   8.886  14.724
94462SOL    HW185218   3.037   8.960  14.783
94462SOL    HW285219   3.056   8.914  14.640
94463SOL     OW85220   7.151  12.662   3.636
94463SOL    HW185221   7.070  12.633   3.594
94463SOL    HW285222   7.202  12.582   3.648
94464SOL     OW85223   6.946   2.871  14.164
94464SOL    HW185224   6.936   2.945  14.225
94464SOL    HW285225   7.038   2.872  14.139
94465SOL     OW85226   6.393   2.640  10.490
94465SOL    HW185227   6.395   2.609  10.581
94465SOL    HW285228   6.436   2.571  10.440
94466SOL     OW85229   7.623   9.203  10.905
94466SOL    HW185230   7.693   9.142  10.927
94466SOL    HW285231   7.563   9.199  10.979
94467SOL     OW85232   6.037  10.412   4.758
94467SOL    HW185233   6.055  10.480   4.823
94467SOL    HW285234   6.115  10.409   4.703
94468SOL     OW85235  13.275   9.406   6.286
94468SOL    HW185236  13.266   9.360   6.203
94468SOL    HW285237  13.347   9.361   6.331
94469SOL     OW85238  10.196  13.838  13.744
94469SOL    HW185239  10.165  13.752  13.771
94469SOL    HW285240  10.116  13.891  13.734
94470SOL     OW85241  11.153   8.115  11.925
94470SOL    HW185242  11.068   8.144  11.893
94470SOL    HW285243  11.196   8.076  11.849
94471SOL     OW85244   0.838   3.938   4.458
94471SOL    HW185245   0.825   4.025   4.418
94471SOL    HW285246   0.930   3.918   4.442
94472SOL     OW85247   3.977  11.203   2.826
94472SOL    HW185248   3.977  11.109   2.848
94472SOL    HW285249   3.913  11.211   2.755
94473SOL     OW85250   6.864   8.609  12.373
94473SOL    HW185251   6.950   8.642  12.348
94473SOL    HW285252   6.852   8.640  12.463
94474SOL     OW85253   3.962   4.395   5.448
94474SOL    HW185254   4.012   4.475   5.464
94474SOL    HW285255   3.998   4.359   5.367
94475SOL     OW85256   6.964   8.378   1.050
94475SOL    HW185257   7.028   8.358   0.983
94475SOL    HW285258   6.898   8.431   1.006
94476SOL     OW85259   6.719  14.862   4.322
94476SOL    HW185260   6.702   0.022   4.233
94476SOL    HW285261   6.797   0.039   4.350
94477SOL     OW85262   9.269  14.274  10.655
94477SOL    HW185263   9.266  14.347  10.715
94477SOL    HW285264   9.361  14.247  10.654
94478SOL     OW85265   1.463  10.151   9.876
94478SOL    HW185266   1.420  10.178   9.795
94478SOL    HW285267   1.394  10.152   9.942
94479SOL     OW85268   8.857  11.050   4.529
94479SOL    HW185269   8.765  11.039   4.552
94479SOL    HW285270   8.899  11.073   4.612
94480SOL     OW85271  12.727   3.511   3.387
94480SOL    HW185272  12.713   3.551   3.472
94480SOL    HW285273  12.675   3.564   3.326
94481SOL     OW85274  13.619   3.903   4.123
94481SOL    HW185275  13.528   3.884   4.100
94481SOL    HW285276  13.670   3.872   4.049
94482SOL     OW85277   8.015   8.810   0.986
94482SOL    HW185278   8.049   8.740   0.931
94482SOL    HW285279   8.062   8.801   1.068
94483SOL     OW85280   1.863   5.538  10.981
94483SOL    HW185281   1.792   5.602  10.987
94483SOL    HW285282   1.943   5.590  10.985
94484SOL     OW85283   1.147  13.302   6.066
94484SOL    HW185284   1.129  13.395   6.053
94484SOL    HW285285   1.238  13.291   6.036
94485SOL     OW85286   6.516   3.913  14.759
94485SOL    HW185287   6.534   3.821  14.782
94485SOL    HW285288   6.603   3.951  14.745
94486SOL     OW85289   5.200  10.485  12.794
94486SOL    HW185290   5.134  10.425  12.759
94486SOL    HW285291   5.271  10.481  12.730
94487SOL     OW85292   2.987   2.199   7.951
94487SOL    HW185293   3.064   2.168   7.999
94487SOL    HW285294   2.915   2.189   8.012
94488SOL     OW85295   2.224   6.612   8.700
94488SOL    HW185296   2.168   6.585   8.772
94488SOL    HW285297   2.192   6.563   8.625
94489SOL     OW85298   8.148   9.711   7.630
94489SOL    HW185299   8.108   9.633   7.592
94489SOL    HW285300   8.218   9.734   7.569
94490SOL     OW85301  14.761   2.904   3.584
94490SOL    HW185302  14.773   2.858   3.501
94490SOL    HW285303  14.724   2.837   3.642
94491SOL     OW85304  13.540   7.985   5.302
94491SOL    HW185305  13.456   7.966   5.343
94491SOL    HW285306  13.517   8.018   5.215
94492SOL     OW85307   2.879   6.434  10.755
94492SOL    HW185308   2.818   6.430  10.682
94492SOL    HW285309   2.827   6.410  10.832
94493SOL     OW85310   3.445   4.974  12.496
94493SOL    HW185311   3.511   5.029  12.538
94493SOL    HW285312   3.485   4.948  12.413
94494SOL     OW85313   1.531   9.810  13.978
94494SOL    HW185314   1.605   9.810  14.039
94494SOL    HW285315   1.488   9.726  13.994
94495SOL     OW85316   4.909  13.156   9.442
94495SOL    HW185317   4.883  13.111   9.361
94495SOL    HW285318   5.004  13.168   9.433
94496SOL     OW85319  11.786   0.888   0.524
94496SOL    HW185320  11.777   0.798   0.553
94496SOL    HW285321  11.718   0.936   0.572
94497SOL     OW85322   3.635   9.468   0.385
94497SOL    HW185323   3.668   9.392   0.433
94497SOL    HW285324   3.714   9.509   0.349
94498SOL     OW85325  13.872  12.497   7.572
94498SOL    HW185326  13.812  12.442   7.622
94498SOL    HW285327  13.951  12.444   7.562
94499SOL     OW85328   7.253   5.416   8.132
94499SOL    HW185329   7.341   5.379   8.130
94499SOL    HW285330   7.206   5.363   8.197
94500SOL     OW85331   2.843  14.311   1.357
94500SOL    HW185332   2.810  14.361   1.432
94500SOL    HW285333   2.877  14.378   1.297
94501SOL     OW85334   6.831  10.856  13.173
94501SOL    HW185335   6.742  10.884  13.151
94501SOL    HW285336   6.881  10.870  13.093
94502SOL     OW85337   7.667  12.878   1.982
94502SOL    HW185338   7.665  12.957   2.036
94502SOL    HW285339   7.744  12.887   1.927
94503SOL     OW85340  13.617   8.565   1.787
94503SOL    HW185341  13.676   8.490   1.797
94503SOL    HW285342  13.529   8.528   1.793
94504SOL     OW85343  14.793   8.223   5.576
94504SOL    HW185344  14.738   8.291   5.538
94504SOL    HW285345  14.769   8.144   5.528
94505SOL     OW85346   3.129   1.665  10.255
94505SOL    HW185347   3.178   1.666  10.337
94505SOL    HW285348   3.072   1.742  10.261
94506SOL     OW85349  13.689  11.582   3.714
94506SOL    HW185350  13.627  11.512   3.695
94506SOL    HW285351  13.765  11.538   3.752
94507SOL     OW85352   2.951  13.020  10.286
94507SOL    HW185353   2.941  12.994  10.195
94507SOL    HW285354   2.862  13.029  10.319
94508SOL     OW85355   6.947   8.975  12.195
94508SOL    HW185356   7.009   8.909  12.225
94508SOL    HW285357   6.862   8.932  12.199
94509SOL     OW85358  14.035   8.308   8.965
94509SOL    HW185359  14.012   8.232   9.019
94509SOL    HW285360  13.958   8.323   8.910
94510SOL     OW85361   7.773   2.776   5.523
94510SOL    HW185362   7.693   2.821   5.549
94510SOL    HW285363   7.752   2.739   5.437
94511SOL     OW85364   8.818  10.034   9.997
94511SOL    HW185365   8.766  10.008  10.073
94511SOL    HW285366   8.754  10.047   9.927
94512SOL     OW85367   5.356   9.922   5.520
94512SOL    HW185368   5.353   9.876   5.436
94512SOL    HW285369   5.447   9.911   5.549
94513SOL     OW85370   9.871   5.108  13.917
94513SOL    HW185371   9.787   5.108  13.962
94513SOL    HW285372   9.883   5.018  13.886
94514SOL     OW85373   6.249  13.862   1.358
94514SOL    HW185374   6.161  13.857   1.395
94514SOL    HW285375   6.308  13.850   1.433
94515SOL     OW85376  11.083   2.316  11.387
94515SOL    HW185377  11.087   2.250  11.318
94515SOL    HW285378  11.011   2.374  11.361
94516SOL     OW85379   6.185   0.045   5.307
94516SOL    HW185380   6.224  14.833   5.328
94516SOL    HW285381   6.235   0.077   5.232
94517SOL     OW85382   1.491  12.749  10.274
94517SOL    HW185383   1.503  12.724  10.365
94517SOL    HW285384   1.568  12.713  10.229
94518SOL     OW85385   8.704   6.106  11.757
94518SOL    HW185386   8.766   6.149  11.817
94518SOL    HW285387   8.759   6.075  11.685
94519SOL     OW85388   7.226   0.702   5.905
94519SOL    HW185389   7.295   0.639   5.926
94519SOL    HW285390   7.203   0.683   5.814
94520SOL     OW85391   7.128   0.144   0.875
94520SOL    HW185392   7.054   0.185   0.832
94520SOL    HW285393   7.091   0.107   0.956
94521SOL     OW85394  13.406  12.252   0.930
94521SOL    HW185395  13.368  12.326   0.977
94521SOL    HW285396  13.392  12.177   0.988
94522SOL     OW85397  11.767  14.440   6.116
94522SOL    HW185398  11.759  14.494   6.194
94522SOL    HW285399  11.708  14.365   6.132
94523SOL     OW85400  14.312   0.972   1.233
94523SOL    HW185401  14.405   0.959   1.252
94523SOL    HW285402  14.271   0.887   1.251
94524SOL     OW85403   1.066   1.431   7.261
94524SOL    HW185404   1.118   1.451   7.184
94524SOL    HW285405   1.002   1.367   7.231
94525SOL     OW85406   3.294  11.821   7.816
94525SOL    HW185407   3.379  11.808   7.773
94525SOL    HW285408   3.296  11.913   7.842
94526SOL     OW85409   9.566   1.070   9.262
94526SOL    HW185410   9.564   1.159   9.299
94526SOL    HW285411   9.500   1.022   9.312
94527SOL     OW85412  12.911   7.138   8.070
94527SOL    HW185413  12.907   7.054   8.115
94527SOL    HW285414  13.005   7.159   8.066
94528SOL     OW85415  14.736   9.997   9.251
94528SOL    HW185416  14.740  10.082   9.208
94528SOL    HW285417  14.737   9.934   9.178
94529SOL     OW85418   9.485   7.936  14.283
94529SOL    HW185419   9.473   7.864  14.220
94529SOL    HW285420   9.437   8.009  14.245
94530SOL     OW85421  11.716   2.258  14.541
94530SOL    HW185422  11.659   2.298  14.476
94530SOL    HW285423  11.748   2.178  14.499
94531SOL     OW85424  13.665  10.440   2.401
94531SOL    HW185425  13.718  10.420   2.323
94531SOL    HW285426  13.726  10.431   2.474
94532SOL     OW85427   6.183   1.605   5.003
94532SOL    HW185428   6.262   1.652   5.029
94532SOL    HW285429   6.119   1.674   4.984
94533SOL     OW85430   3.639  14.461  11.034
94533SOL    HW185431   3.703  14.432  11.099
94533SOL    HW285432   3.648  14.557  11.033
94534SOL     OW85433   1.793   0.632  13.768
94534SOL    HW185434   1.741   0.583  13.705
94534SOL    HW285435   1.751   0.718  13.772
94535SOL     OW85436  11.663   7.643   3.118
94535SOL    HW185437  11.579   7.637   3.072
94535SOL    HW285438  11.728   7.650   3.049
94536SOL     OW85439   9.536   2.966   3.772
94536SOL    HW185440   9.539   3.059   3.750
94536SOL    HW285441   9.541   2.964   3.868
94537SOL     OW85442  12.690   9.196   0.992
94537SOL    HW185443  12.648   9.259   1.051
94537SOL    HW285444  12.774   9.177   1.033
94538SOL     OW85445   6.907   1.628   3.858
94538SOL    HW185446   6.845   1.578   3.804
94538SOL    HW285447   6.993   1.607   3.821
94539SOL     OW85448  13.934   8.325  10.488
94539SOL    HW185449  13.920   8.256  10.553
94539SOL    HW285450  13.972   8.398  10.538
94540SOL     OW85451   8.418   1.199   2.641
94540SOL    HW185452   8.467   1.143   2.702
94540SOL    HW285453   8.352   1.141   2.603
94541SOL     OW85454   3.592  14.258   2.415
94541SOL    HW185455   3.684  14.257   2.441
94541SOL    HW285456   3.544  14.258   2.498
94542SOL     OW85457   5.998   7.602   0.395
94542SOL    HW185458   6.045   7.519   0.396
94542SOL    HW285459   6.065   7.668   0.375
94543SOL     OW85460   2.152   1.978  10.732
94543SOL    HW185461   2.136   2.060  10.779
94543SOL    HW285462   2.246   1.980  10.713
94544SOL     OW85463  11.887  10.152   2.739
94544SOL    HW185464  11.950  10.188   2.801
94544SOL    HW285465  11.855  10.227   2.690
94545SOL     OW85466   6.102  10.857  11.382
94545SOL    HW185467   6.035  10.805  11.426
94545SOL    HW285468   6.175  10.859  11.444
94546SOL     OW85469   8.557   6.553  12.769
94546SOL    HW185470   8.585   6.645  12.771
94546SOL    HW285471   8.633   6.504  12.738
94547SOL     OW85472   9.884   1.416   5.600
94547SOL    HW185473   9.939   1.473   5.546
94547SOL    HW285474   9.945   1.377   5.662
94548SOL     OW85475  11.461   8.864   2.676
94548SOL    HW185476  11.455   8.816   2.759
94548SOL    HW285477  11.413   8.945   2.692
94549SOL     OW85478   7.167   6.796  10.540
94549SOL    HW185479   7.125   6.881  10.530
94549SOL    HW285480   7.100   6.733  10.510
94550SOL     OW85481   6.642   5.612   7.395
94550SOL    HW185482   6.681   5.693   7.428
94550SOL    HW285483   6.648   5.619   7.300
94551SOL     OW85484   7.797   6.058   0.246
94551SOL    HW185485   7.882   6.090   0.276
94551SOL    HW285486   7.798   5.964   0.266
94552SOL     OW85487   8.659   3.890  12.466
94552SOL    HW185488   8.635   3.799  12.486
94552SOL    HW285489   8.649   3.936  12.548
94553SOL     OW85490   5.092   2.494   2.497
94553SOL    HW185491   5.082   2.551   2.421
94553SOL    HW285492   5.109   2.408   2.460
94554SOL     OW85493  11.813   9.135  11.021
94554SOL    HW185494  11.801   9.042  11.043
94554SOL    HW285495  11.884   9.136  10.958
94555SOL     OW85496   5.590   0.537   5.370
94555SOL    HW185497   5.555   0.598   5.305
94555SOL    HW285498   5.576   0.580   5.454
94556SOL     OW85499   0.681   4.664   8.093
94556SOL    HW185500   0.671   4.622   8.178
94556SOL    HW285501   0.715   4.595   8.036
94557SOL     OW85502   4.776   0.411   2.007
94557SOL    HW185503   4.760   0.479   1.942
94557SOL    HW285504   4.818   0.340   1.958
94558SOL     OW85505   2.760  14.122   0.014
94558SOL    HW185506   2.676  14.125  14.842
94558SOL    HW285507   2.769  14.032   0.046
94559SOL     OW85508  14.872   3.688   2.855
94559SOL    HW185509  14.776   3.687   2.858
94559SOL    HW285510   0.021   3.645   2.772
94560SOL     OW85511   5.444   9.092   2.374
94560SOL    HW185512   5.515   9.038   2.337
94560SOL    HW285513   5.419   9.047   2.454
94561SOL     OW85514  14.783  13.336   1.273
94561SOL    HW185515  14.831  13.309   1.352
94561SOL    HW285516  14.839  13.310   1.200
94562SOL     OW85517  13.654   9.453   3.627
94562SOL    HW185518  13.566   9.484   3.608
94562SOL    HW285519  13.659   9.451   3.723
94563SOL     OW85520  14.696   9.100   8.873
94563SOL    HW185521  14.715   9.007   8.861
94563SOL    HW285522  14.765   9.146   8.824
94564SOL     OW85523  11.706   6.435  13.068
94564SOL    HW185524  11.728   6.513  13.016
94564SOL    HW285525  11.791   6.393  13.084
94565SOL     OW85526   5.343  14.331   4.288
94565SOL    HW185527   5.272  14.291   4.238
94565SOL    HW285528   5.306  14.346   4.375
94566SOL     OW85529  13.589   8.437  11.355
94566SOL    HW185530  13.601   8.458  11.263
94566SOL    HW285531  13.516   8.375  11.357
94567SOL     OW85532   0.037  14.073   7.730
94567SOL    HW185533  14.826  14.117   7.717
94567SOL    HW285534   0.056  14.086   7.823
94568SOL     OW85535   0.305   7.741   7.773
94568SOL    HW185536   0.240   7.809   7.756
94568SOL    HW285537   0.381   7.767   7.722
94569SOL     OW85538   8.550   3.669   6.370
94569SOL    HW185539   8.632   3.689   6.324
94569SOL    HW285540   8.515   3.754   6.395
94570SOL     OW85541   7.113   9.395   7.051
94570SOL    HW185542   7.143   9.384   7.141
94570SOL    HW285543   7.118   9.490   7.036
94571SOL     OW85544   1.630   9.910  13.762
94571SOL    HW185545   1.553   9.900  13.706
94571SOL    HW285546   1.598   9.890  13.850
94572SOL     OW85547   9.648  12.374   6.171
94572SOL    HW185548   9.643  12.448   6.231
94572SOL    HW285549   9.740  12.347   6.174
94573SOL     OW85550   8.592   4.719   8.739
94573SOL    HW185551   8.580   4.681   8.652
94573SOL    HW285552   8.515   4.691   8.788
94574SOL     OW85553   8.899  14.532  13.632
94574SOL    HW185554   8.867  14.442  13.633
94574SOL    HW285555   8.993  14.524  13.649
94575SOL     OW85556   0.796  12.641  10.791
94575SOL    HW185557   0.811  12.736  10.788
94575SOL    HW285558   0.819  12.610  10.704
94576SOL     OW85559  13.917   6.636   0.272
94576SOL    HW185560  13.884   6.677   0.192
94576SOL    HW285561  14.012   6.636   0.261
94577SOL     OW85562   3.572  11.211  13.665
94577SOL    HW185563   3.620  11.172  13.592
94577SOL    HW285564   3.566  11.140  13.730
94578SOL     OW85565  13.575   1.843  12.862
94578SOL    HW185566  13.528   1.798  12.792
94578SOL    HW285567  13.642   1.780  12.890
94579SOL     OW85568  13.927   2.732   6.144
94579SOL    HW185569  13.937   2.825   6.166
94579SOL    HW285570  14.008   2.692   6.173
94580SOL     OW85571   5.043   1.644   7.763
94580SOL    HW185572   5.031   1.559   7.806
94580SOL    HW285573   5.024   1.628   7.671
94581SOL     OW85574   2.992  14.639   2.469
94581SOL    HW185575   2.990  14.544   2.484
94581SOL    HW285576   2.903  14.661   2.442
94582SOL     OW85577   3.354   5.293   7.163
94582SOL    HW185578   3.436   5.278   7.116
94582SOL    HW285579   3.335   5.209   7.206
94583SOL     OW85580   6.355   9.722  13.517
94583SOL    HW185581   6.409   9.801  13.523
94583SOL    HW285582   6.267   9.756  13.500
94584SOL     OW85583   9.826  12.366  13.229
94584SOL    HW185584   9.903  12.374  13.286
94584SOL    HW285585   9.756  12.411  13.277
94585SOL     OW85586  11.042  14.250   1.538
94585SOL    HW185587  11.037  14.346   1.538
94585SOL    HW285588  11.097  14.228   1.614
94586SOL     OW85589   8.492  13.069   0.850
94586SOL    HW185590   8.545  13.087   0.771
94586SOL    HW285591   8.497  13.150   0.900
94587SOL     OW85592   9.774  10.142  12.738
94587SOL    HW185593   9.743  10.119  12.826
94587SOL    HW285594   9.869  10.149  12.747
94588SOL     OW85595  10.773  12.269  14.778
94588SOL    HW185596  10.765  12.196  14.839
94588SOL    HW285597  10.859  12.307  14.797
94589SOL     OW85598  14.544  12.938   9.532
94589SOL    HW185599  14.516  12.888   9.609
94589SOL    HW285600  14.519  13.028   9.552
94590SOL     OW85601   1.779   9.900   3.994
94590SOL    HW185602   1.847   9.966   3.978
94590SOL    HW285603   1.702   9.951   4.018
94591SOL     OW85604   4.485   0.675  11.603
94591SOL    HW185605   4.536   0.622  11.541
94591SOL    HW285606   4.447   0.744  11.548
94592SOL     OW85607   4.073   1.139   2.712
94592SOL    HW185608   4.113   1.099   2.790
94592SOL    HW285609   4.105   1.086   2.639
94593SOL     OW85610  13.816   6.097   0.616
94593SOL    HW185611  13.758   6.171   0.634
94593SOL    HW285612  13.899   6.138   0.590
94594SOL     OW85613  14.028   5.381   6.006
94594SOL    HW185614  14.107   5.427   5.977
94594SOL    HW285615  13.956   5.425   5.960
94595SOL     OW85616   8.122   9.150  13.345
94595SOL    HW185617   8.149   9.217  13.408
94595SOL    HW285618   8.180   9.163  13.270
94596SOL     OW85619   4.254   3.349   3.069
94596SOL    HW185620   4.203   3.309   2.999
94596SOL    HW285621   4.190   3.369   3.137
94597SOL     OW85622  11.671   4.368   7.096
94597SOL    HW185623  11.713   4.433   7.039
94597SOL    HW285624  11.594   4.413   7.131
94598SOL     OW85625   3.724  14.247   8.687
94598SOL    HW185626   3.777  14.326   8.677
94598SOL    HW285627   3.634  14.278   8.684
94599SOL     OW85628   4.617   5.298  13.613
94599SOL    HW185629   4.561   5.352  13.558
94599SOL    HW285630   4.706   5.326  13.592
94600SOL     OW85631   4.151   5.238   6.030
94600SOL    HW185632   4.208   5.315   6.031
94600SOL    HW285633   4.155   5.205   5.940
94601SOL     OW85634   6.430   5.537  12.673
94601SOL    HW185635   6.458   5.624  12.703
94601SOL    HW285636   6.392   5.496  12.750
94602SOL     OW85637  10.085  10.293   7.174
94602SOL    HW185638  10.176  10.315   7.194
94602SOL    HW285639  10.090  10.215   7.120
94603SOL     OW85640   1.209  13.742   4.070
94603SOL    HW185641   1.205  13.836   4.086
94603SOL    HW285642   1.119  13.712   4.084
94604SOL     OW85643   6.266  13.715   8.114
94604SOL    HW185644   6.282  13.623   8.098
94604SOL    HW285645   6.258  13.722   8.209
94605SOL     OW85646   4.417  10.568  14.344
94605SOL    HW185647   4.459  10.487  14.371
94605SOL    HW285648   4.351  10.540  14.280
94606SOL     OW85649  12.877  11.887   1.546
94606SOL    HW185650  12.921  11.805   1.568
94606SOL    HW285651  12.891  11.898   1.452
94607SOL     OW85652  12.910   4.806   8.411
94607SOL    HW185653  12.831   4.755   8.394
94607SOL    HW285654  12.982   4.744   8.399
94608SOL     OW85655  10.387   5.449   1.367
94608SOL    HW185656  10.397   5.409   1.454
94608SOL    HW285657  10.465   5.420   1.319
94609SOL     OW85658   3.731   8.476   6.075
94609SOL    HW185659   3.713   8.410   6.142
94609SOL    HW285660   3.672   8.455   6.003
94610SOL     OW85661   9.184  14.143   4.725
94610SOL    HW185662   9.147  14.123   4.811
94610SOL    HW285663   9.177  14.238   4.718
94611SOL     OW85664   8.216   7.207   5.534
94611SOL    HW185665   8.279   7.279   5.525
94611SOL    HW285666   8.270   7.128   5.530
94612SOL     OW85667   0.712   2.301   7.032
94612SOL    HW185668   0.740   2.386   6.998
94612SOL    HW285669   0.722   2.307   7.127
94613SOL     OW85670   9.511   7.371   2.675
94613SOL    HW185671   9.448   7.413   2.616
94613SOL    HW285672   9.587   7.430   2.674
94614SOL     OW85673  13.174  10.302   8.883
94614SOL    HW185674  13.154  10.367   8.950
94614SOL    HW285675  13.089  10.281   8.844
94615SOL     OW85676  11.921   7.984   8.355
94615SOL    HW185677  11.867   8.001   8.278
94615SOL    HW285678  11.864   7.931   8.412
94616SOL     OW85679   1.547   3.275  10.985
94616SOL    HW185680   1.485   3.343  10.958
94616SOL    HW285681   1.572   3.232  10.903
94617SOL     OW85682   4.844   5.836   1.819
94617SOL    HW185683   4.769   5.892   1.839
94617SOL    HW285684   4.912   5.897   1.789
94618SOL     OW85685  11.593   1.231   9.448
94618SOL    HW185686  11.613   1.319   9.418
94618SOL    HW285687  11.574   1.241   9.541
94619SOL     OW85688   8.118   7.317  10.066
94619SOL    HW185689   8.100   7.259   9.992
94619SOL    HW285690   8.197   7.282  10.105
94620SOL     OW85691   3.898   8.843  13.275
94620SOL    HW185692   3.844   8.807  13.204
94620SOL    HW285693   3.919   8.768  13.330
94621SOL     OW85694   7.379   2.142  14.336
94621SOL    HW185695   7.425   2.192  14.403
94621SOL    HW285696   7.413   2.053  14.345
94622SOL     OW85697   6.565   6.749  14.456
94622SOL    HW185698   6.538   6.841  14.467
94622SOL    HW285699   6.497   6.699  14.501
94623SOL     OW85700  13.370   0.922   7.898
94623SOL    HW185701  13.375   0.920   7.803
94623SOL    HW285702  13.458   0.900   7.928
94624SOL     OW85703  14.034   8.372   3.412
94624SOL    HW185704  14.094   8.314   3.364
94624SOL    HW285705  13.956   8.377   3.356
94625SOL     OW85706  12.029   8.972   4.592
94625SOL    HW185707  12.070   9.017   4.666
94625SOL    HW285708  12.067   8.884   4.593
94626SOL     OW85709  14.772   3.397  12.376
94626SOL    HW185710  14.839   3.428  12.437
94626SOL    HW285711  14.690   3.401  12.426
94627SOL     OW85712  13.855   8.550  12.422
94627SOL    HW185713  13.830   8.484  12.487
94627SOL    HW285714  13.895   8.500  12.351
94628SOL     OW85715  13.285  14.212   4.477
94628SOL    HW185716  13.355  14.149   4.493
94628SOL    HW285717  13.307  14.286   4.533
94629SOL     OW85718   2.160  11.015   3.143
94629SOL    HW185719   2.131  10.935   3.187
94629SOL    HW285720   2.254  11.019   3.160
94630SOL     OW85721   1.150   0.637   9.599
94630SOL    HW185722   1.118   0.690   9.672
94630SOL    HW285723   1.175   0.700   9.532
94631SOL     OW85724   9.562   4.009   6.220
94631SOL    HW185725   9.612   3.977   6.296
94631SOL    HW285726   9.625   4.061   6.170
94632SOL     OW85727  12.532   9.917  14.600
94632SOL    HW185728  12.462   9.964  14.646
94632SOL    HW285729  12.612   9.961  14.628
94633SOL     OW85730   8.931   2.175  12.842
94633SOL    HW185731   8.928   2.158  12.748
94633SOL    HW285732   8.847   2.141  12.875
94634SOL     OW85733   6.488  14.000   7.640
94634SOL    HW185734   6.563  14.013   7.698
94634SOL    HW285735   6.485  13.905   7.625
94635SOL     OW85736  13.889   3.867   4.771
94635SOL    HW185737  13.804   3.887   4.732
94635SOL    HW285738  13.949   3.928   4.728
94636SOL     OW85739   7.193  10.541   2.177
94636SOL    HW185740   7.233  10.553   2.091
94636SOL    HW285741   7.148  10.623   2.194
94637SOL     OW85742  11.207   5.368   7.959
94637SOL    HW185743  11.196   5.347   7.866
94637SOL    HW285744  11.202   5.463   7.963
94638SOL     OW85745  11.389  14.652   0.171
94638SOL    HW185746  11.449  14.600   0.119
94638SOL    HW285747  11.399  14.618   0.260
94639SOL     OW85748   0.321   9.958   1.479
94639SOL    HW185749   0.394   9.914   1.435
94639SOL    HW285750   0.251   9.893   1.479
94640SOL     OW85751  10.907   8.720   7.181
94640SOL    HW185752  10.895   8.651   7.247
94640SOL    HW285753  10.871   8.799   7.223
94641SOL     OW85754  12.534   8.578   3.933
94641SOL    HW185755  12.470   8.601   4.001
94641SOL    HW285756  12.605   8.535   3.981
94642SOL     OW85757   4.196  14.286   8.800
94642SOL    HW185758   4.270  14.315   8.853
94642SOL    HW285759   4.119  14.305   8.854
94643SOL     OW85760   7.598   2.538   9.126
94643SOL    HW185761   7.574   2.479   9.197
94643SOL    HW285762   7.671   2.495   9.082
94644SOL     OW85763  11.972   4.503   5.280
94644SOL    HW185764  11.926   4.553   5.212
94644SOL    HW285765  12.007   4.427   5.234
94645SOL     OW85766   3.737   2.438  12.884
94645SOL    HW185767   3.745   2.530  12.910
94645SOL    HW285768   3.827   2.405  12.886
94646SOL     OW85769   1.104  10.647   4.094
94646SOL    HW185770   1.082  10.580   4.159
94646SOL    HW285771   1.061  10.726   4.127
94647SOL     OW85772   7.482   5.605   4.239
94647SOL    HW185773   7.557   5.601   4.298
94647SOL    HW285774   7.406   5.594   4.297
94648SOL     OW85775   3.157   8.604   3.647
94648SOL    HW185776   3.231   8.657   3.619
94648SOL    HW285777   3.112   8.658   3.712
94649SOL     OW85778  10.529   8.601  12.478
94649SOL    HW185779  10.575   8.601  12.562
94649SOL    HW285780  10.591   8.641  12.417
94650SOL     OW85781   5.808  11.999   9.281
94650SOL    HW185782   5.842  11.987   9.192
94650SOL    HW285783   5.735  11.939   9.288
94651SOL     OW85784  12.414   7.272   8.620
94651SOL    HW185785  12.423   7.234   8.707
94651SOL    HW285786  12.328   7.315   8.621
94652SOL     OW85787   5.245  14.726   6.008
94652SOL    HW185788   5.176  14.664   6.031
94652SOL    HW285789   5.313  14.712   6.074
94653SOL     OW85790   0.985   7.030   3.497
94653SOL    HW185791   0.922   7.033   3.569
94653SOL    HW285792   0.933   7.006   3.420
94654SOL     OW85793   3.883   6.893   3.694
94654SOL    HW185794   3.937   6.966   3.664
94654SOL    HW285795   3.837   6.863   3.616
94655SOL     OW85796   4.863   5.173  13.183
94655SOL    HW185797   4.798   5.183  13.114
94655SOL    HW285798   4.875   5.261  13.218
94656SOL     OW85799   3.253   9.045  14.095
94656SOL    HW185800   3.327   9.082  14.046
94656SOL    HW285801   3.291   8.971  14.143
94657SOL     OW85802  12.031   2.993   7.157
94657SOL    HW185803  11.956   3.002   7.216
94657SOL    HW285804  12.055   3.083   7.135
94658SOL     OW85805  12.594   6.178   2.222
94658SOL    HW185806  12.641   6.095   2.217
94658SOL    HW285807  12.599   6.202   2.315
94659SOL     OW85808   6.507   8.585   3.807
94659SOL    HW185809   6.484   8.502   3.765
94659SOL    HW285810   6.545   8.559   3.891
94660SOL     OW85811   6.540  10.790   8.145
94660SOL    HW185812   6.567  10.709   8.190
94660SOL    HW285813   6.614  10.849   8.157
94661SOL     OW85814  11.226   4.472   4.655
94661SOL    HW185815  11.229   4.391   4.706
94661SOL    HW285816  11.145   4.466   4.605
94662SOL     OW85817   4.317   0.948  14.197
94662SOL    HW185818   4.355   1.004  14.130
94662SOL    HW285819   4.265   0.884  14.149
94663SOL     OW85820   7.592  14.229   2.956
94663SOL    HW185821   7.640  14.148   2.970
94663SOL    HW285822   7.501  14.202   2.944
94664SOL     OW85823   3.906   0.855  12.096
94664SOL    HW185824   3.996   0.829  12.075
94664SOL    HW285825   3.899   0.946  12.066
94665SOL     OW85826   4.948   9.913   6.747
94665SOL    HW185827   5.039   9.937   6.727
94665SOL    HW285828   4.897   9.954   6.677
94666SOL     OW85829   5.458   8.513   2.562
94666SOL    HW185830   5.424   8.436   2.514
94666SOL    HW285831   5.446   8.586   2.501
94667SOL     OW85832  10.155  14.498   7.627
94667SOL    HW185833  10.198  14.426   7.580
94667SOL    HW285834  10.226  14.547   7.666
94668SOL     OW85835   6.461   5.927   2.732
94668SOL    HW185836   6.422   5.905   2.647
94668SOL    HW285837   6.542   5.877   2.735
94669SOL     OW85838  13.953   6.297   4.479
94669SOL    HW185839  13.986   6.366   4.537
94669SOL    HW285840  14.030   6.266   4.432
94670SOL     OW85841   2.450   2.610  14.621
94670SOL    HW185842   2.449   2.533  14.678
94670SOL    HW285843   2.510   2.670  14.665
94671SOL     OW85844  10.653  14.289  10.134
94671SOL    HW185845  10.616  14.290  10.046
94671SOL    HW285846  10.578  14.273  10.192
94672SOL     OW85847   7.896   7.882   2.311
94672SOL    HW185848   7.872   7.852   2.399
94672SOL    HW285849   7.985   7.916   2.321
94673SOL     OW85850   4.159  11.591   1.581
94673SOL    HW185851   4.118  11.614   1.498
94673SOL    HW285852   4.183  11.675   1.620
94674SOL     OW85853  12.638   9.324   1.498
94674SOL    HW185854  12.699   9.298   1.567
94674SOL    HW285855  12.612   9.241   1.457
94675SOL     OW85856   0.914   1.674   8.450
94675SOL    HW185857   0.876   1.756   8.482
94675SOL    HW285858   0.929   1.690   8.357
94676SOL     OW85859   3.526   0.991   1.517
94676SOL    HW185860   3.594   1.024   1.576
94676SOL    HW285861   3.564   0.911   1.479
94677SOL     OW85862   8.170   9.827   1.718
94677SOL    HW185863   8.075   9.835   1.722
94677SOL    HW285864   8.186   9.768   1.644
94678SOL     OW85865   5.767  13.164   4.778
94678SOL    HW185866   5.809  13.175   4.692
94678SOL    HW285867   5.791  13.243   4.827
94679SOL     OW85868   3.823   2.708  12.520
94679SOL    HW185869   3.885   2.644  12.486
94679SOL    HW285870   3.764   2.658  12.575
94680SOL     OW85871  12.386   6.250  12.600
94680SOL    HW185872  12.367   6.342  12.581
94680SOL    HW285873  12.319   6.201  12.552
94681SOL     OW85874   7.721   5.552  11.169
94681SOL    HW185875   7.789   5.537  11.104
94681SOL    HW285876   7.735   5.642  11.199
94682SOL     OW85877   0.988   1.335  14.787
94682SOL    HW185878   0.906   1.353  14.833
94682SOL    HW285879   0.985   1.391  14.710
94683SOL     OW85880   2.266   9.080   2.975
94683SOL    HW185881   2.299   9.145   2.913
94683SOL    HW285882   2.335   9.074   3.041
94684SOL     OW85883  12.353  12.955   7.577
94684SOL    HW185884  12.298  12.971   7.653
94684SOL    HW285885  12.294  12.917   7.512
94685SOL     OW85886   8.462   7.998   0.813
94685SOL    HW185887   8.370   8.014   0.793
94685SOL    HW285888   8.508   8.014   0.731
94686SOL     OW85889   6.588   5.719   6.451
94686SOL    HW185890   6.529   5.774   6.503
94686SOL    HW285891   6.630   5.780   6.390
94687SOL     OW85892   3.330   6.944   9.988
94687SOL    HW185893   3.392   6.985   9.928
94687SOL    HW285894   3.382   6.881  10.038
94688SOL     OW85895   8.190   7.314  14.413
94688SOL    HW185896   8.273   7.337  14.372
94688SOL    HW285897   8.126   7.324  14.342
94689SOL     OW85898  11.370  10.155  14.450
94689SOL    HW185899  11.284  10.160  14.492
94689SOL    HW285900  11.418  10.230  14.485
94690SOL     OW85901   1.332  12.260   6.134
94690SOL    HW185902   1.316  12.355   6.130
94690SOL    HW285903   1.369  12.246   6.221
94691SOL     OW85904   0.607  12.562   4.216
94691SOL    HW185905   0.514  12.568   4.237
94691SOL    HW285906   0.629  12.470   4.233
94692SOL     OW85907  13.015  14.047  11.196
94692SOL    HW185908  13.026  14.138  11.169
94692SOL    HW285909  13.026  14.050  11.292
94693SOL     OW85910   8.166   6.795  10.642
94693SOL    HW185911   8.075   6.807  10.669
94693SOL    HW285912   8.160   6.764  10.552
94694SOL     OW85913   0.267   0.531   6.523
94694SOL    HW185914   0.263   0.454   6.467
94694SOL    HW285915   0.357   0.561   6.517
94695SOL     OW85916  12.595   5.002   6.297
94695SOL    HW185917  12.636   5.087   6.316
94695SOL    HW285918  12.501   5.019   6.308
94696SOL     OW85919   3.199   4.771  10.039
94696SOL    HW185920   3.126   4.709  10.042
94696SOL    HW285921   3.170   4.845  10.092
94697SOL     OW85922  10.450   0.590   1.772
94697SOL    HW185923  10.546   0.592   1.776
94697SOL    HW285924  10.426   0.680   1.749
94698SOL     OW85925   4.162  13.928  12.528
94698SOL    HW185926   4.137  13.933  12.620
94698SOL    HW285927   4.257  13.915  12.530
94699SOL     OW85928   0.099   4.319  11.248
94699SOL    HW185929   0.045   4.280  11.179
94699SOL    HW285930   0.155   4.247  11.278
94700SOL     OW85931  13.075   7.777   4.813
94700SOL    HW185932  13.024   7.839   4.761
94700SOL    HW285933  13.039   7.691   4.791
94701SOL     OW85934  13.859  12.322  13.575
94701SOL    HW185935  13.816  12.293  13.495
94701SOL    HW285936  13.870  12.416  13.564
94702SOL     OW85937   0.235  11.530   4.046
94702SOL    HW185938   0.172  11.481   4.098
94702SOL    HW285939   0.200  11.528   3.957
94703SOL     OW85940   5.042   2.125  10.254
94703SOL    HW185941   4.972   2.169  10.302
94703SOL    HW285942   5.000   2.093  10.174
94704SOL     OW85943  12.786   4.052  10.930
94704SOL    HW185944  12.809   4.142  10.909
94704SOL    HW285945  12.765   4.012  10.845
94705SOL     OW85946  13.368   0.597  12.674
94705SOL    HW185947  13.374   0.517  12.623
94705SOL    HW285948  13.458   0.618  12.699
94706SOL     OW85949  11.840  10.834   6.447
94706SOL    HW185950  11.861  10.772   6.517
94706SOL    HW285951  11.790  10.903   6.490
94707SOL     OW85952   4.382   5.287   1.139
94707SOL    HW185953   4.413   5.366   1.093
94707SOL    HW285954   4.315   5.319   1.199
94708SOL     OW85955   2.564   9.328  10.412
94708SOL    HW185956   2.489   9.340  10.469
94708SOL    HW285957   2.624   9.399  10.435
94709SOL     OW85958   6.153   1.562   7.484
94709SOL    HW185959   6.184   1.471   7.482
94709SOL    HW285960   6.077   1.561   7.542
94710SOL     OW85961   9.428   4.015   8.757
94710SOL    HW185962   9.401   3.975   8.840
94710SOL    HW285963   9.349   4.059   8.725
94711SOL     OW85964   1.859  14.222   5.973
94711SOL    HW185965   1.897  14.135   5.981
94711SOL    HW285966   1.903  14.261   5.897
94712SOL     OW85967   5.450   0.971  12.099
94712SOL    HW185968   5.486   1.013  12.177
94712SOL    HW285969   5.520   0.914  12.067
94713SOL     OW85970  10.483  10.006  11.753
94713SOL    HW185971  10.543   9.932  11.747
94713SOL    HW285972  10.445  10.013  11.666
94714SOL     OW85973   1.593   0.797   1.792
94714SOL    HW185974   1.615   0.877   1.743
94714SOL    HW285975   1.658   0.733   1.762
94715SOL     OW85976   7.416   8.221   2.849
94715SOL    HW185977   7.459   8.193   2.768
94715SOL    HW285978   7.465   8.299   2.875
94716SOL     OW85979   7.925   2.017  14.625
94716SOL    HW185980   7.860   1.974  14.680
94716SOL    HW285981   7.882   2.024  14.539
94717SOL     OW85982   5.441   9.368   0.968
94717SOL    HW185983   5.359   9.325   0.993
94717SOL    HW285984   5.481   9.396   1.050
94718SOL     OW85985  11.102   5.909  11.546
94718SOL    HW185986  11.121   5.996  11.510
94718SOL    HW285987  11.021   5.921  11.596
94719SOL     OW85988   2.969   8.018  13.289
94719SOL    HW185989   2.910   7.945  13.272
94719SOL    HW285990   2.974   8.024  13.384
94720SOL     OW85991   1.113   7.981   4.269
94720SOL    HW185992   1.125   7.936   4.353
94720SOL    HW285993   1.120   8.074   4.291
94721SOL     OW85994   8.517   2.188   2.176
94721SOL    HW185995   8.541   2.098   2.153
94721SOL    HW285996   8.421   2.190   2.167
94722SOL     OW85997   8.541  12.796  13.063
94722SOL    HW185998   8.467  12.855  13.051
94722SOL    HW285999   8.572  12.812  13.152
94723SOL     OW86000  11.916   5.205   3.945
94723SOL    HW186001  11.829   5.202   3.985
94723SOL    HW286002  11.975   5.173   4.014
94724SOL     OW86003   8.117   5.860  14.394
94724SOL    HW186004   8.122   5.934  14.454
94724SOL    HW286005   8.068   5.793  14.443
94725SOL     OW86006  10.496  13.523   5.319
94725SOL    HW186007  10.468  13.606   5.359
94725SOL    HW286008  10.449  13.521   5.235
94726SOL     OW86009   9.458   0.417   4.846
94726SOL    HW186010   9.461   0.322   4.844
94726SOL    HW286011   9.373   0.438   4.885
94727SOL     OW86012   7.915  12.333   8.885
94727SOL    HW186013   7.864  12.273   8.939
94727SOL    HW286014   7.902  12.419   8.926
94728SOL     OW86015   5.622   1.815   7.187
94728SOL    HW186016   5.550   1.755   7.207
94728SOL    HW286017   5.693   1.788   7.246
94729SOL     OW86018  11.426   0.232  10.945
94729SOL    HW186019  11.420   0.252  11.038
94729SOL    HW286020  11.348   0.179  10.926
94730SOL     OW86021   8.330  14.146   8.654
94730SOL    HW186022   8.242  14.180   8.671
94730SOL    HW286023   8.348  14.089   8.729
94731SOL     OW86024   8.821   3.919   2.373
94731SOL    HW186025   8.903   3.946   2.332
94731SOL    HW286026   8.848   3.884   2.459
94732SOL     OW86027   3.771   5.872   5.463
94732SOL    HW186028   3.745   5.962   5.443
94732SOL    HW286029   3.710   5.844   5.531
94733SOL     OW86030  11.634   2.173   6.811
94733SOL    HW186031  11.603   2.143   6.726
94733SOL    HW286032  11.610   2.266   6.814
94734SOL     OW86033   4.153  10.177   8.441
94734SOL    HW186034   4.117  10.151   8.356
94734SOL    HW286035   4.247  10.181   8.427
94735SOL     OW86036  11.416   1.544   6.062
94735SOL    HW186037  11.345   1.482   6.046
94735SOL    HW286038  11.383   1.628   6.028
94736SOL     OW86039  10.818  13.087   7.972
94736SOL    HW186040  10.751  13.047   8.028
94736SOL    HW286041  10.843  13.167   8.017
94737SOL     OW86042   9.550  10.603  14.210
94737SOL    HW186043   9.631  10.633  14.251
94737SOL    HW286044   9.499  10.683  14.196
94738SOL     OW86045   8.978  10.024   4.625
94738SOL    HW186046   8.918  10.015   4.699
94738SOL    HW286047   9.052   9.968   4.647
94739SOL     OW86048  10.343   9.685  13.081
94739SOL    HW186049  10.391   9.621  13.029
94739SOL    HW286050  10.405   9.712  13.149
94740SOL     OW86051   0.069  13.084  11.096
94740SOL    HW186052   0.017  13.155  11.134
94740SOL    HW286053   0.029  13.004  11.130
94741SOL     OW86054   6.104  13.259   5.811
94741SOL    HW186055   6.015  13.240   5.781
94741SOL    HW286056   6.159  13.196   5.764
94742SOL     OW86057   8.586   5.241  12.722
94742SOL    HW186058   8.518   5.193  12.770
94742SOL    HW286059   8.582   5.206  12.633
94743SOL     OW86060  13.945  12.852  10.556
94743SOL    HW186061  13.941  12.942  10.525
94743SOL    HW286062  13.892  12.851  10.636
94744SOL     OW86063   2.050   1.986   6.071
94744SOL    HW186064   2.127   1.973   6.126
94744SOL    HW286065   2.056   2.077   6.042
94745SOL     OW86066   2.599   8.356  11.588
94745SOL    HW186067   2.617   8.398  11.504
94745SOL    HW286068   2.619   8.264  11.574
94746SOL     OW86069   2.660   9.754   4.117
94746SOL    HW186070   2.660   9.659   4.119
94746SOL    HW286071   2.628   9.777   4.030
94747SOL     OW86072   3.311   2.410  13.241
94747SOL    HW186073   3.391   2.387  13.193
94747SOL    HW286074   3.245   2.425  13.174
94748SOL     OW86075   9.980  13.882   6.309
94748SOL    HW186076   9.961  13.974   6.291
94748SOL    HW286077   9.969  13.838   6.225
94749SOL     OW86078   1.920   6.446   3.912
94749SOL    HW186079   1.990   6.424   3.849
94749SOL    HW286080   1.890   6.361   3.944
94750SOL     OW86081  14.313   8.525   2.724
94750SOL    HW186082  14.385   8.580   2.754
94750SOL    HW286083  14.300   8.551   2.633
94751SOL     OW86084   2.031   9.956   5.508
94751SOL    HW186085   2.035   9.975   5.602
94751SOL    HW286086   1.965  10.017   5.475
94752SOL     OW86087   4.639  13.801  10.151
94752SOL    HW186088   4.632  13.893  10.123
94752SOL    HW286089   4.652  13.806  10.246
94753SOL     OW86090  11.597  12.392  12.167
94753SOL    HW186091  11.612  12.409  12.260
94753SOL    HW286092  11.603  12.297  12.159
94754SOL     OW86093   0.862   4.969  11.957
94754SOL    HW186094   0.931   4.903  11.959
94754SOL    HW286095   0.834   4.971  11.865
94755SOL     OW86096  10.825   6.066   5.619
94755SOL    HW186097  10.857   6.036   5.704
94755SOL    HW286098  10.746   6.014   5.604
94756SOL     OW86099   2.322   5.268  12.079
94756SOL    HW186100   2.346   5.175  12.087
94756SOL    HW286101   2.405   5.314  12.090
94757SOL     OW86102  14.152   7.164  12.456
94757SOL    HW186103  14.232   7.152  12.405
94757SOL    HW286104  14.082   7.135  12.397
94758SOL     OW86105  10.938   5.597   5.445
94758SOL    HW186106  11.006   5.620   5.380
94758SOL    HW286107  10.858   5.590   5.394
94759SOL     OW86108   0.787   1.232   4.927
94759SOL    HW186109   0.835   1.239   5.010
94759SOL    HW286110   0.828   1.297   4.870
94760SOL     OW86111   6.892   6.834   0.686
94760SOL    HW186112   6.894   6.878   0.601
94760SOL    HW286113   6.962   6.875   0.737
94761SOL     OW86114   1.189   4.851  13.479
94761SOL    HW186115   1.095   4.855  13.461
94761SOL    HW286116   1.222   4.938  13.457
94762SOL     OW86117   1.941   1.362  11.377
94762SOL    HW186118   1.962   1.308  11.301
94762SOL    HW286119   1.959   1.451  11.349
94763SOL     OW86120   1.789  13.088  13.548
94763SOL    HW186121   1.781  13.157  13.615
94763SOL    HW286122   1.762  13.131  13.467
94764SOL     OW86123  12.454  14.376   1.715
94764SOL    HW186124  12.508  14.360   1.638
94764SOL    HW286125  12.445  14.471   1.720
94765SOL     OW86126   9.691  13.456   6.716
94765SOL    HW186127   9.608  13.428   6.755
94765SOL    HW286128   9.755  13.392   6.748
94766SOL     OW86129   1.029   5.110   8.556
94766SOL    HW186130   0.964   5.116   8.626
94766SOL    HW286131   1.080   5.032   8.578
94767SOL     OW86132   5.629  11.404   3.222
94767SOL    HW186133   5.701  11.381   3.281
94767SOL    HW286134   5.558  11.345   3.248
94768SOL     OW86135   6.995  11.144   5.154
94768SOL    HW186136   7.007  11.238   5.141
94768SOL    HW286137   6.900  11.133   5.164
94769SOL     OW86138   7.022   9.599   2.269
94769SOL    HW186139   7.073   9.676   2.246
94769SOL    HW286140   6.956   9.593   2.200
94770SOL     OW86141   1.822   5.405   9.700
94770SOL    HW186142   1.859   5.379   9.616
94770SOL    HW286143   1.838   5.329   9.758
94771SOL     OW86144   4.861   4.352   3.745
94771SOL    HW186145   4.883   4.314   3.830
94771SOL    HW286146   4.824   4.279   3.696
94772SOL     OW86147   3.945  14.094   8.018
94772SOL    HW186148   3.970  14.048   8.098
94772SOL    HW286149   3.853  14.071   8.004
94773SOL     OW86150   0.732  10.517  10.555
94773SOL    HW186151   0.755  10.503  10.463
94773SOL    HW286152   0.801  10.574  10.589
94774SOL     OW86153   5.637   0.560   3.334
94774SOL    HW186154   5.584   0.481   3.319
94774SOL    HW286155   5.664   0.587   3.246
94775SOL     OW86156   3.611   7.252   1.123
94775SOL    HW186157   3.598   7.339   1.085
94775SOL    HW286158   3.703   7.250   1.147
94776SOL     OW86159   8.138   0.780   3.214
94776SOL    HW186160   8.182   0.795   3.130
94776SOL    HW286161   8.170   0.850   3.271
94777SOL     OW86162  14.713   0.792   3.349
94777SOL    HW186163  14.771   0.740   3.404
94777SOL    HW286164  14.768   0.822   3.277
94778SOL     OW86165   5.294   6.956   4.038
94778SOL    HW186166   5.274   6.918   3.952
94778SOL    HW286167   5.214   7.004   4.062
94779SOL     OW86168   1.739  13.433   4.772
94779SOL    HW186169   1.774  13.371   4.708
94779SOL    HW286170   1.731  13.382   4.853
94780SOL     OW86171   3.578   0.916   6.698
94780SOL    HW186172   3.589   0.835   6.747
94780SOL    HW286173   3.574   0.985   6.764
94781SOL     OW86174  13.285   8.712   0.093
94781SOL    HW186175  13.298   8.807   0.097
94781SOL    HW286176  13.193   8.701   0.071
94782SOL     OW86177   3.690   4.376  13.215
94782SOL    HW186178   3.607   4.398  13.173
94782SOL    HW286179   3.696   4.437  13.289
94783SOL     OW86180   7.668  10.817   8.485
94783SOL    HW186181   7.600  10.832   8.420
94783SOL    HW286182   7.623  10.778   8.559
94784SOL     OW86183   8.643   3.472   5.679
94784SOL    HW186184   8.651   3.544   5.617
94784SOL    HW286185   8.655   3.513   5.765
94785SOL     OW86186   6.307   3.568  10.569
94785SOL    HW186187   6.328   3.543  10.479
94785SOL    HW286188   6.235   3.630  10.560
94786SOL     OW86189  13.939   0.135   5.534
94786SOL    HW186190  13.924   0.133   5.629
94786SOL    HW286191  14.004   0.066   5.519
94787SOL     OW86192   2.619   2.488   8.476
94787SOL    HW186193   2.614   2.561   8.415
94787SOL    HW286194   2.603   2.528   8.562
94788SOL     OW86195   4.045   2.223   3.581
94788SOL    HW186196   4.029   2.253   3.671
94788SOL    HW286197   3.976   2.263   3.529
94789SOL     OW86198   3.063  10.555   1.186
94789SOL    HW186199   3.143  10.536   1.236
94789SOL    HW286200   2.993  10.512   1.236
94790SOL     OW86201   3.349  14.644   2.818
94790SOL    HW186202   3.261  14.674   2.795
94790SOL    HW286203   3.375  14.588   2.745
94791SOL     OW86204  10.235   2.543   9.747
94791SOL    HW186205  10.252   2.589   9.829
94791SOL    HW286206  10.157   2.586   9.711
94792SOL     OW86207  10.953   8.551  10.383
94792SOL    HW186208  10.980   8.510  10.465
94792SOL    HW286209  11.006   8.509  10.316
94793SOL     OW86210   1.357   3.268   6.578
94793SOL    HW186211   1.378   3.257   6.670
94793SOL    HW286212   1.348   3.362   6.565
94794SOL     OW86213   0.776   6.556   5.779
94794SOL    HW186214   0.782   6.637   5.728
94794SOL    HW286215   0.682   6.538   5.783
94795SOL     OW86216  12.260   6.059   2.759
94795SOL    HW186217  12.260   5.986   2.697
94795SOL    HW286218  12.210   6.128   2.715
94796SOL     OW86219   5.304   4.161   8.938
94796SOL    HW186220   5.280   4.221   9.009
94796SOL    HW286221   5.370   4.104   8.977
94797SOL     OW86222   4.504   1.828   1.015
94797SOL    HW186223   4.421   1.789   0.991
94797SOL    HW286224   4.489   1.867   1.102
94798SOL     OW86225  12.121  11.889   4.547
94798SOL    HW186226  12.036  11.846   4.558
94798SOL    HW286227  12.184  11.829   4.587
94799SOL     OW86228   3.386   2.439   2.019
94799SOL    HW186229   3.414   2.529   2.007
94799SOL    HW286230   3.301   2.445   2.062
94800SOL     OW86231   8.355   6.934   5.751
94800SOL    HW186232   8.335   6.841   5.746
94800SOL    HW286233   8.366   6.961   5.659
94801SOL     OW86234   6.537  10.702  10.217
94801SOL    HW186235   6.589  10.762  10.164
94801SOL    HW286236   6.547  10.734  10.306
94802SOL     OW86237   7.095   3.177  12.471
94802SOL    HW186238   7.131   3.143  12.390
94802SOL    HW286239   7.038   3.249  12.445
94803SOL     OW86240  14.335   1.165   8.630
94803SOL    HW186241  14.285   1.209   8.561
94803SOL    HW286242  14.270   1.112   8.677
94804SOL     OW86243  13.997  14.662  10.925
94804SOL    HW186244  13.935  14.726  10.891
94804SOL    HW286245  14.017  14.606  10.850
94805SOL     OW86246   6.571   3.512  10.665
94805SOL    HW186247   6.619   3.548  10.590
94805SOL    HW286248   6.479   3.516  10.639
94806SOL     OW86249   3.248  11.905   5.700
94806SOL    HW186250   3.195  11.863   5.631
94806SOL    HW286251   3.298  11.834   5.739
94807SOL     OW86252   6.339  12.403  10.081
94807SOL    HW186253   6.350  12.319  10.126
94807SOL    HW286254   6.255  12.396  10.036
94808SOL     OW86255   8.341  14.785  13.911
94808SOL    HW186256   8.355   0.002  13.878
94808SOL    HW286257   8.421  14.764  13.958
94809SOL     OW86258   3.100   6.243  14.577
94809SOL    HW186259   3.149   6.177  14.527
94809SOL    HW286260   3.154   6.322  14.572
94810SOL     OW86261  13.856   8.119   2.423
94810SOL    HW186262  13.903   8.126   2.505
94810SOL    HW286263  13.858   8.207   2.386
94811SOL     OW86264   7.279  14.290   9.577
94811SOL    HW186265   7.206  14.296   9.515
94811SOL    HW286266   7.330  14.214   9.547
94812SOL     OW86267   3.629  12.447   1.442
94812SOL    HW186268   3.688  12.383   1.403
94812SOL    HW286269   3.660  12.456   1.533
94813SOL     OW86270   8.868   9.230   0.489
94813SOL    HW186271   8.799   9.296   0.479
94813SOL    HW286272   8.945   9.271   0.451
94814SOL     OW86273  13.344   6.077   4.325
94814SOL    HW186274  13.351   6.172   4.312
94814SOL    HW286275  13.432   6.044   4.307
94815SOL     OW86276   1.611  11.519   0.198
94815SOL    HW186277   1.554  11.537   0.272
94815SOL    HW286278   1.559  11.542   0.121
94816SOL     OW86279   8.710   7.273   5.832
94816SOL    HW186280   8.653   7.241   5.762
94816SOL    HW286281   8.651   7.309   5.898
94817SOL     OW86282   2.679   4.650   5.878
94817SOL    HW186283   2.587   4.658   5.902
94817SOL    HW286284   2.726   4.693   5.949
94818SOL     OW86285  13.660   4.207  11.575
94818SOL    HW186286  13.679   4.273  11.642
94818SOL    HW286287  13.586   4.158  11.609
94819SOL     OW86288  13.920  10.621  12.913
94819SOL    HW186289  13.895  10.709  12.943
94819SOL    HW286290  13.879  10.612  12.827
94820SOL     OW86291   6.795   2.008  11.611
94820SOL    HW186292   6.713   2.009  11.660
94820SOL    HW286293   6.845   2.083  11.644
94821SOL     OW86294   3.086   3.515   3.541
94821SOL    HW186295   3.177   3.486   3.555
94821SOL    HW286296   3.095   3.591   3.484
94822SOL     OW86297  14.472   4.573   2.575
94822SOL    HW186298  14.526   4.618   2.509
94822SOL    HW286299  14.384   4.608   2.562
94823SOL     OW86300  12.743  11.149   9.865
94823SOL    HW186301  12.712  11.105   9.944
94823SOL    HW286302  12.704  11.236   9.869
94824SOL     OW86303   7.194   9.172   6.915
94824SOL    HW186304   7.177   9.255   6.960
94824SOL    HW286305   7.242   9.120   6.979
94825SOL     OW86306   4.378   2.938   6.996
94825SOL    HW186307   4.466   2.961   7.026
94825SOL    HW286308   4.355   2.860   7.045
94826SOL     OW86309   0.461   4.161  13.469
94826SOL    HW186310   0.514   4.082  13.482
94826SOL    HW286311   0.395   4.158  13.538
94827SOL     OW86312   9.416  11.200   8.291
94827SOL    HW186313   9.451  11.233   8.208
94827SOL    HW286314   9.417  11.276   8.349
94828SOL     OW86315   4.108  11.099  11.817
94828SOL    HW186316   4.054  11.156  11.763
94828SOL    HW286317   4.128  11.024  11.760
94829SOL     OW86318   4.863   7.567   1.255
94829SOL    HW186319   4.773   7.578   1.223
94829SOL    HW286320   4.917   7.579   1.177
94830SOL     OW86321   7.390  13.073   2.952
94830SOL    HW186322   7.400  13.114   3.037
94830SOL    HW286323   7.479  13.074   2.915
94831SOL     OW86324   9.829   8.271   0.662
94831SOL    HW186325   9.804   8.363   0.663
94831SOL    HW286326   9.874   8.257   0.746
94832SOL     OW86327   6.272   6.940   5.547
94832SOL    HW186328   6.289   7.032   5.528
94832SOL    HW286329   6.340   6.893   5.498
94833SOL     OW86330   1.823  13.077   9.432
94833SOL    HW186331   1.740  13.063   9.479
94833SOL    HW286332   1.875  12.999   9.451
94834SOL     OW86333  11.857  11.041   8.169
94834SOL    HW186334  11.927  10.976   8.177
94834SOL    HW286335  11.849  11.057   8.075
94835SOL     OW86336   9.254   3.456   5.015
94835SOL    HW186337   9.219   3.515   4.949
94835SOL    HW286338   9.267   3.512   5.092
94836SOL     OW86339  11.852   2.825   6.482
94836SOL    HW186340  11.764   2.831   6.445
94836SOL    HW286341  11.851   2.885   6.557
94837SOL     OW86342  10.310   4.757   2.521
94837SOL    HW186343  10.336   4.708   2.599
94837SOL    HW286344  10.362   4.837   2.525
94838SOL     OW86345   4.860  11.298   8.018
94838SOL    HW186346   4.929  11.364   8.013
94838SOL    HW286347   4.778  11.347   8.010
94839SOL     OW86348   7.193  12.444   9.126
94839SOL    HW186349   7.269  12.480   9.171
94839SOL    HW286350   7.230  12.404   9.047
94840SOL     OW86351  14.143   5.029  12.263
94840SOL    HW186352  14.053   5.043  12.289
94840SOL    HW286353  14.187   4.998  12.342
94841SOL     OW86354   4.233   3.783  11.597
94841SOL    HW186355   4.139   3.781  11.614
94841SOL    HW286356   4.271   3.815  11.679
94842SOL     OW86357  13.435  11.314   1.256
94842SOL    HW186358  13.440  11.369   1.178
94842SOL    HW286359  13.523  11.278   1.266
94843SOL     OW86360  13.632   8.119   1.121
94843SOL    HW186361  13.587   8.162   1.194
94843SOL    HW286362  13.713   8.086   1.160
94844SOL     OW86363   7.026   4.873   1.946
94844SOL    HW186364   7.028   4.801   1.883
94844SOL    HW286365   6.939   4.868   1.986
94845SOL     OW86366   8.308  10.175  13.658
94845SOL    HW186367   8.265  10.258  13.640
94845SOL    HW286368   8.364  10.160  13.582
94846SOL     OW86369   5.136  13.389   9.487
94846SOL    HW186370   5.106  13.395   9.578
94846SOL    HW286371   5.068  13.433   9.436
94847SOL     OW86372   4.648  14.150  11.881
94847SOL    HW186373   4.696  14.150  11.799
94847SOL    HW286374   4.663  14.062  11.917
94848SOL     OW86375   8.777   4.941  14.249
94848SOL    HW186376   8.791   5.035  14.255
94848SOL    HW286377   8.847   4.910  14.191
94849SOL     OW86378   0.187   0.449   8.940
94849SOL    HW186379   0.112   0.398   8.910
94849SOL    HW286380   0.149   0.519   8.994
94850SOL     OW86381  13.669   4.571   2.000
94850SOL    HW186382  13.764   4.562   2.001
94850SOL    HW286383  13.641   4.514   1.929
94851SOL     OW86384  13.735   1.481   9.687
94851SOL    HW186385  13.766   1.571   9.681
94851SOL    HW286386  13.651   1.487   9.734
94852SOL     OW86387  10.150  12.394   1.827
94852SOL    HW186388  10.141  12.373   1.920
94852SOL    HW286389  10.217  12.462   1.824
94853SOL     OW86390   9.690  12.714  11.861
94853SOL    HW186391   9.700  12.626  11.896
94853SOL    HW286392   9.690  12.702  11.766
94854SOL     OW86393   4.862   8.842  12.268
94854SOL    HW186394   4.879   8.801  12.183
94854SOL    HW286395   4.855   8.935  12.248
94855SOL     OW86396   6.798   3.909   7.241
94855SOL    HW186397   6.723   3.852   7.257
94855SOL    HW286398   6.844   3.914   7.325
94856SOL     OW86399   4.415  14.269   5.551
94856SOL    HW186400   4.510  14.281   5.540
94856SOL    HW286401   4.377  14.309   5.472
94857SOL     OW86402   7.439  13.300  11.507
94857SOL    HW186403   7.441  13.357  11.584
94857SOL    HW286404   7.370  13.237  11.526
94858SOL     OW86405  12.997  12.650   8.832
94858SOL    HW186406  13.056  12.574   8.832
94858SOL    HW286407  12.923  12.623   8.887
94859SOL     OW86408  13.253   4.798   7.103
94859SOL    HW186409  13.224   4.740   7.032
94859SOL    HW286410  13.313   4.860   7.060
94860SOL     OW86411  13.996   0.496   1.739
94860SOL    HW186412  13.937   0.506   1.814
94860SOL    HW286413  14.018   0.403   1.738
94861SOL     OW86414   7.419   2.972  12.523
94861SOL    HW186415   7.467   2.889  12.526
94861SOL    HW286416   7.477   3.035  12.565
94862SOL     OW86417   1.674  11.946  10.483
94862SOL    HW186418   1.620  11.898  10.420
94862SOL    HW286419   1.755  11.895  10.489
94863SOL     OW86420   6.762   5.819  13.613
94863SOL    HW186421   6.812   5.901  13.613
94863SOL    HW286422   6.724   5.814  13.701
94864SOL     OW86423   2.192  10.370   0.583
94864SOL    HW186424   2.255  10.344   0.517
94864SOL    HW286425   2.130  10.297   0.588
94865SOL     OW86426  14.353   5.640   1.249
94865SOL    HW186427  14.266   5.624   1.285
94865SOL    HW286428  14.387   5.715   1.298
94866SOL     OW86429   7.351   1.896   3.603
94866SOL    HW186430   7.394   1.829   3.655
94866SOL    HW286431   7.288   1.936   3.662
94867SOL     OW86432   7.832   4.920   4.457
94867SOL    HW186433   7.889   4.996   4.469
94867SOL    HW286434   7.891   4.849   4.433
94868SOL     OW86435   0.939  11.304  13.608
94868SOL    HW186436   0.970  11.388  13.642
94868SOL    HW286437   0.878  11.273  13.675
94869SOL     OW86438   8.504   8.935   2.694
94869SOL    HW186439   8.432   8.872   2.685
94869SOL    HW286440   8.550   8.906   2.773
94870SOL     OW86441   9.374  14.269   6.171
94870SOL    HW186442   9.440  14.250   6.105
94870SOL    HW286443   9.378  14.196   6.232
94871SOL     OW86444   1.135   3.806   7.611
94871SOL    HW186445   1.042   3.822   7.628
94871SOL    HW286446   1.179   3.887   7.638
94872SOL     OW86447   8.602  13.142   6.261
94872SOL    HW186448   8.534  13.088   6.221
94872SOL    HW286449   8.664  13.159   6.190
94873SOL     OW86450  14.373   7.909   8.714
94873SOL    HW186451  14.384   7.814   8.714
94873SOL    HW286452  14.462   7.944   8.718
94874SOL     OW86453   3.302   4.984   1.912
94874SOL    HW186454   3.260   4.901   1.931
94874SOL    HW286455   3.385   4.981   1.959
94875SOL     OW86456   6.654   1.001   4.954
94875SOL    HW186457   6.689   0.952   4.879
94875SOL    HW286458   6.599   1.069   4.914
94876SOL     OW86459   2.937   9.401   1.208
94876SOL    HW186460   2.966   9.460   1.138
94876SOL    HW286461   3.018   9.373   1.251
94877SOL     OW86462   2.391  11.947   5.908
94877SOL    HW186463   2.409  11.926   6.000
94877SOL    HW286464   2.381  12.042   5.906
94878SOL     OW86465  14.776   7.651   1.878
94878SOL    HW186466  14.844   7.663   1.945
94878SOL    HW286467  14.714   7.589   1.918
94879SOL     OW86468  11.424   1.996  11.348
94879SOL    HW186469  11.481   1.923  11.328
94879SOL    HW286470  11.336   1.964  11.326
94880SOL     OW86471  12.477  11.409   6.450
94880SOL    HW186472  12.477  11.501   6.477
94880SOL    HW286473  12.564  11.395   6.414
94881SOL     OW86474  10.062   0.939   2.712
94881SOL    HW186475  10.058   0.850   2.747
94881SOL    HW286476  10.020   0.993   2.780
94882SOL     OW86477  10.846   3.685   5.253
94882SOL    HW186478  10.886   3.629   5.187
94882SOL    HW286479  10.881   3.773   5.235
94883SOL     OW86480   0.366  13.662   4.995
94883SOL    HW186481   0.342  13.733   4.936
94883SOL    HW286482   0.451  13.688   5.031
94884SOL     OW86483  10.693   1.623  13.301
94884SOL    HW186484  10.633   1.696  13.288
94884SOL    HW286485  10.771   1.663  13.340
94885SOL     OW86486   6.900  11.455   1.692
94885SOL    HW186487   6.918  11.546   1.716
94885SOL    HW286488   6.970  11.405   1.733
94886SOL     OW86489  11.814   1.243   2.037
94886SOL    HW186490  11.728   1.208   2.060
94886SOL    HW286491  11.800   1.287   1.953
94887SOL     OW86492   4.308   7.290   9.508
94887SOL    HW186493   4.294   7.353   9.436
94887SOL    HW286494   4.289   7.205   9.469
94888SOL     OW86495   8.037   8.402  14.116
94888SOL    HW186496   7.989   8.358  14.046
94888SOL    HW286497   8.070   8.331  14.171
94889SOL     OW86498   9.245   9.930  11.432
94889SOL    HW186499   9.282   9.901  11.349
94889SOL    HW286500   9.154   9.902  11.430
94890SOL     OW86501   1.092  11.026   7.938
94890SOL    HW186502   1.074  10.987   7.852
94890SOL    HW286503   1.129  10.955   7.990
94891SOL     OW86504  14.738  13.048   6.104
94891SOL    HW186505  14.726  12.965   6.058
94891SOL    HW286506  14.800  13.097   6.050
94892SOL     OW86507  12.565   1.976   3.050
94892SOL    HW186508  12.615   2.053   3.076
94892SOL    HW286509  12.481   1.985   3.094
94893SOL     OW86510   6.004   1.416   1.160
94893SOL    HW186511   5.977   1.401   1.070
94893SOL    HW286512   6.007   1.511   1.169
94894SOL     OW86513  10.016   2.759   7.459
94894SOL    HW186514  10.007   2.705   7.380
94894SOL    HW286515  10.042   2.697   7.527
94895SOL     OW86516  12.514  11.866   8.567
94895SOL    HW186517  12.491  11.779   8.602
94895SOL    HW286518  12.542  11.849   8.478
94896SOL     OW86519  10.912   6.632   2.225
94896SOL    HW186520  10.947   6.545   2.203
94896SOL    HW286521  10.977   6.693   2.192
94897SOL     OW86522   5.928   8.409  13.329
94897SOL    HW186523   5.887   8.323  13.322
94897SOL    HW286524   5.868   8.469  13.285
94898SOL     OW86525   6.232   1.848   4.642
94898SOL    HW186526   6.163   1.786   4.663
94898SOL    HW286527   6.283   1.805   4.573
94899SOL     OW86528   7.755   8.974   9.664
94899SOL    HW186529   7.807   9.018   9.596
94899SOL    HW286530   7.757   8.881   9.639
94900SOL     OW86531  12.094   3.762   3.421
94900SOL    HW186532  12.149   3.828   3.463
94900SOL    HW286533  12.144   3.681   3.428
94901SOL     OW86534  14.146   3.651  11.182
94901SOL    HW186535  14.113   3.721  11.237
94901SOL    HW286536  14.208   3.603  11.238
94902SOL     OW86537   7.036   1.521  12.505
94902SOL    HW186538   7.024   1.431  12.474
94902SOL    HW286539   7.025   1.574  12.427
94903SOL     OW86540   7.105   6.759   5.892
94903SOL    HW186541   7.123   6.749   5.798
94903SOL    HW286542   7.171   6.705   5.935
94904SOL     OW86543  10.558   8.322   3.972
94904SOL    HW186544  10.558   8.303   4.065
94904SOL    HW286545  10.481   8.376   3.958
94905SOL     OW86546   7.742   6.239   7.428
94905SOL    HW186547   7.689   6.303   7.381
94905SOL    HW286548   7.706   6.238   7.516
94906SOL     OW86549   1.920   8.447  11.676
94906SOL    HW186550   1.890   8.532  11.709
94906SOL    HW286551   1.983   8.417  11.741
94907SOL     OW86552   5.304  11.364  10.312
94907SOL    HW186553   5.274  11.451  10.288
94907SOL    HW286554   5.360  11.379  10.389
94908SOL     OW86555   7.284   5.324  13.246
94908SOL    HW186556   7.283   5.248  13.304
94908SOL    HW286557   7.360   5.310  13.189
94909SOL     OW86558   8.978   9.267   4.420
94909SOL    HW186559   9.033   9.332   4.463
94909SOL    HW286560   9.012   9.263   4.330
94910SOL     OW86561   3.334  11.054  12.712
94910SOL    HW186562   3.369  10.967  12.733
94910SOL    HW286563   3.253  11.035  12.664
94911SOL     OW86564   1.573  13.449   5.884
94911SOL    HW186565   1.572  13.540   5.913
94911SOL    HW286566   1.502  13.444   5.820
94912SOL     OW86567   0.447   5.393   7.035
94912SOL    HW186568   0.452   5.327   6.966
94912SOL    HW286569   0.425   5.474   6.990
94913SOL     OW86570   1.635  14.486   8.833
94913SOL    HW186571   1.561  14.426   8.826
94913SOL    HW286572   1.702  14.449   8.776
94914SOL     OW86573   9.217   4.729  10.956
94914SOL    HW186574   9.302   4.685  10.946
94914SOL    HW286575   9.236   4.822  10.942
94915SOL     OW86576   2.172   7.584  12.692
94915SOL    HW186577   2.115   7.512  12.720
94915SOL    HW286578   2.198   7.561  12.603
94916SOL     OW86579   1.247   8.053   0.645
94916SOL    HW186580   1.218   7.963   0.659
94916SOL    HW286581   1.177   8.092   0.591
94917SOL     OW86582   2.808  12.454   0.919
94917SOL    HW186583   2.754  12.499   0.853
94917SOL    HW286584   2.890  12.504   0.921
94918SOL     OW86585   8.882  13.525  10.747
94918SOL    HW186586   8.866  13.611  10.709
94918SOL    HW286587   8.933  13.478  10.681
94919SOL     OW86588   2.789  11.043  12.616
94919SOL    HW186589   2.734  11.029  12.693
94919SOL    HW286590   2.736  11.014  12.542
94920SOL     OW86591   1.894  13.411   7.253
94920SOL    HW186592   1.928  13.392   7.340
94920SOL    HW286593   1.848  13.494   7.263
94921SOL     OW86594   2.778   9.881  12.290
94921SOL    HW186595   2.699   9.863  12.239
94921SOL    HW286596   2.769   9.827  12.368
94922SOL     OW86597   2.918   5.876   9.562
94922SOL    HW186598   2.962   5.808   9.512
94922SOL    HW286599   2.825   5.854   9.556
94923SOL     OW86600   1.147   2.120   0.834
94923SOL    HW186601   1.242   2.107   0.841
94923SOL    HW286602   1.135   2.169   0.753
94924SOL     OW86603   4.882   2.408   8.386
94924SOL    HW186604   4.957   2.377   8.336
94924SOL    HW286605   4.916   2.481   8.438
94925SOL     OW86606  11.567   9.269   9.465
94925SOL    HW186607  11.604   9.245   9.380
94925SOL    HW286608  11.487   9.317   9.444
94926SOL     OW86609   2.650   6.526  14.332
94926SOL    HW186610   2.736   6.483  14.323
94926SOL    HW286611   2.623   6.508  14.422
94927SOL     OW86612   1.230   7.491   5.796
94927SOL    HW186613   1.151   7.543   5.809
94927SOL    HW286614   1.276   7.535   5.724
94928SOL     OW86615   8.856  13.282   9.546
94928SOL    HW186616   8.840  13.205   9.491
94928SOL    HW286617   8.789  13.344   9.520
94929SOL     OW86618   3.738   7.031  14.274
94929SOL    HW186619   3.832   7.047  14.271
94929SOL    HW286620   3.722   6.968  14.204
94930SOL     OW86621   0.643   6.658  11.324
94930SOL    HW186622   0.548   6.664  11.324
94930SOL    HW286623   0.672   6.722  11.259
94931SOL     OW86624   5.217   0.228  10.033
94931SOL    HW186625   5.203   0.297  10.098
94931SOL    HW286626   5.243   0.275   9.954
94932SOL     OW86627   2.860   8.011   0.687
94932SOL    HW186628   2.924   7.950   0.650
94932SOL    HW286629   2.775   7.974   0.663
94933SOL     OW86630   5.952   6.495   9.761
94933SOL    HW186631   5.982   6.445   9.686
94933SOL    HW286632   5.994   6.453   9.836
94934SOL     OW86633   2.507  12.051  12.254
94934SOL    HW186634   2.421  12.015  12.232
94934SOL    HW286635   2.553  12.056  12.171
94935SOL     OW86636   9.791   9.922  11.501
94935SOL    HW186637   9.763   9.846  11.553
94935SOL    HW286638   9.711   9.974  11.492
94936SOL     OW86639  12.815   9.643   8.798
94936SOL    HW186640  12.850   9.723   8.837
94936SOL    HW286641  12.755   9.674   8.730
94937SOL     OW86642   9.979  14.161   2.033
94937SOL    HW186643  10.037  14.204   1.970
94937SOL    HW286644  10.036  14.104   2.083
94938SOL     OW86645   7.484   0.820   8.109
94938SOL    HW186646   7.499   0.912   8.130
94938SOL    HW286647   7.542   0.772   8.169
94939SOL     OW86648   1.480   4.739   4.856
94939SOL    HW186649   1.486   4.806   4.924
94939SOL    HW286650   1.515   4.781   4.777
94940SOL     OW86651   0.352  13.539  11.044
94940SOL    HW186652   0.375  13.481  11.117
94940SOL    HW286653   0.353  13.627  11.082
94941SOL     OW86654   9.608   6.007   8.468
94941SOL    HW186655   9.558   6.073   8.420
94941SOL    HW286656   9.687   6.052   8.497
94942SOL     OW86657   3.882   9.725   9.223
94942SOL    HW186658   3.976   9.725   9.241
94942SOL    HW286659   3.857   9.817   9.224
94943SOL     OW86660   8.481  14.609   4.776
94943SOL    HW186661   8.426  14.624   4.698
94943SOL    HW286662   8.455  14.678   4.837
94944SOL     OW86663   4.599  13.336  14.657
94944SOL    HW186664   4.539  13.263  14.645
94944SOL    HW286665   4.544  13.408  14.689
94945SOL     OW86666   2.556   5.200   8.282
94945SOL    HW186667   2.634   5.176   8.332
94945SOL    HW286668   2.560   5.295   8.276
94946SOL     OW86669   8.980  12.640   2.066
94946SOL    HW186670   8.905  12.582   2.060
94946SOL    HW286671   9.052  12.591   2.026
94947SOL     OW86672   8.632  12.515   7.209
94947SOL    HW186673   8.578  12.472   7.276
94947SOL    HW286674   8.585  12.596   7.188
94948SOL     OW86675   8.251   6.435   0.309
94948SOL    HW186676   8.274   6.516   0.263
94948SOL    HW286677   8.333   6.386   0.314
94949SOL     OW86678   5.938   3.991   7.255
94949SOL    HW186679   5.967   4.047   7.327
94949SOL    HW286680   5.912   4.053   7.187
94950SOL     OW86681   5.002   4.242  14.102
94950SOL    HW186682   4.942   4.313  14.125
94950SOL    HW286683   5.089   4.277  14.118
94951SOL     OW86684   5.096   0.704   6.941
94951SOL    HW186685   5.057   0.661   7.018
94951SOL    HW286686   5.032   0.688   6.871
94952SOL     OW86687   3.349   4.067   9.274
94952SOL    HW186688   3.380   4.056   9.184
94952SOL    HW286689   3.423   4.038   9.329
94953SOL     OW86690   0.551   2.834   4.767
94953SOL    HW186691   0.637   2.876   4.768
94953SOL    HW286692   0.516   2.850   4.855
94954SOL     OW86693  11.099  11.889  11.057
94954SOL    HW186694  11.145  11.846  11.129
94954SOL    HW286695  11.006  11.877  11.079
94955SOL     OW86696   2.193   1.143  14.134
94955SOL    HW186697   2.251   1.145  14.210
94955SOL    HW286698   2.211   1.224  14.087
94956SOL     OW86699  12.270  13.429   7.120
94956SOL    HW186700  12.311  13.431   7.207
94956SOL    HW286701  12.290  13.342   7.086
94957SOL     OW86702  10.294   5.469   4.588
94957SOL    HW186703  10.323   5.513   4.668
94957SOL    HW286704  10.373   5.462   4.535
94958SOL     OW86705   4.008   1.558  14.795
94958SOL    HW186706   4.062   1.517  14.727
94958SOL    HW286707   3.957   1.624  14.748
94959SOL     OW86708   6.199  12.816  10.729
94959SOL    HW186709   6.170  12.726  10.715
94959SOL    HW286710   6.250  12.837  10.650
94960SOL     OW86711   6.895   4.986  10.757
94960SOL    HW186712   6.961   4.972  10.825
94960SOL    HW286713   6.934   4.946  10.678
94961SOL     OW86714  10.208  10.188  11.309
94961SOL    HW186715  10.291  10.206  11.265
94961SOL    HW286716  10.170  10.274  11.326
94962SOL     OW86717  10.113  11.154   0.732
94962SOL    HW186718  10.082  11.242   0.710
94962SOL    HW286719  10.205  11.166   0.758
94963SOL     OW86720   0.515  12.576   6.846
94963SOL    HW186721   0.430  12.552   6.882
94963SOL    HW286722   0.502  12.574   6.751
94964SOL     OW86723  13.969   0.536  12.373
94964SOL    HW186724  13.972   0.459  12.315
94964SOL    HW286725  13.875   0.555  12.383
94965SOL     OW86726  12.860   6.448   8.716
94965SOL    HW186727  12.801   6.497   8.773
94965SOL    HW286728  12.915   6.514   8.675
94966SOL     OW86729  11.530   9.063   6.932
94966SOL    HW186730  11.443   9.102   6.939
94966SOL    HW286731  11.536   9.033   6.841
94967SOL     OW86732   9.524  12.330   9.146
94967SOL    HW186733   9.619  12.337   9.161
94967SOL    HW286734   9.517  12.306   9.054
94968SOL     OW86735   2.894   0.082   4.987
94968SOL    HW186736   2.918  14.871   4.946
94968SOL    HW286737   2.814   0.062   5.036
94969SOL     OW86738   7.591   0.258   0.752
94969SOL    HW186739   7.521   0.201   0.719
94969SOL    HW286740   7.553   0.298   0.831
94970SOL     OW86741   2.614  10.803   9.186
94970SOL    HW186742   2.687  10.864   9.173
94970SOL    HW286743   2.654  10.725   9.224
94971SOL     OW86744  10.699   4.958   0.924
94971SOL    HW186745  10.774   4.926   0.973
94971SOL    HW286746  10.720   5.049   0.904
94972SOL     OW86747  13.344   8.533   1.879
94972SOL    HW186748  13.283   8.564   1.812
94972SOL    HW286749  13.310   8.569   1.961
94973SOL     OW86750   3.465  10.988   1.025
94973SOL    HW186751   3.515  11.028   1.096
94973SOL    HW286752   3.503  10.900   1.016
94974SOL     OW86753  10.149  13.250   5.988
94974SOL    HW186754  10.224  13.237   6.045
94974SOL    HW286755  10.106  13.328   6.023
94975SOL     OW86756  13.307  10.548   9.691
94975SOL    HW186757  13.219  10.581   9.708
94975SOL    HW286758  13.356  10.623   9.658
94976SOL     OW86759  11.031   3.652   8.008
94976SOL    HW186760  11.025   3.686   8.098
94976SOL    HW286761  11.042   3.730   7.954
94977SOL     OW86762   0.274  11.579   4.878
94977SOL    HW186763   0.351  11.530   4.906
94977SOL    HW286764   0.292  11.669   4.906
94978SOL     OW86765   8.909  13.261  13.136
94978SOL    HW186766   8.825  13.306  13.121
94978SOL    HW286767   8.971  13.331  13.154
94979SOL     OW86768   6.030  12.805  13.345
94979SOL    HW186769   5.943  12.769  13.361
94979SOL    HW286770   6.031  12.888  13.392
94980SOL     OW86771   5.771   2.709   6.732
94980SOL    HW186772   5.702   2.730   6.795
94980SOL    HW286773   5.841   2.770   6.752
94981SOL     OW86774  12.137   2.413   2.465
94981SOL    HW186775  12.078   2.486   2.448
94981SOL    HW286776  12.080   2.337   2.479
94982SOL     OW86777   0.596  10.676  11.521
94982SOL    HW186778   0.581  10.770  11.512
94982SOL    HW286779   0.618  10.646  11.432
94983SOL     OW86780  13.395  14.487   2.470
94983SOL    HW186781  13.313  14.470   2.424
94983SOL    HW286782  13.396  14.423   2.542
94984SOL     OW86783  10.514  11.830  11.684
94984SOL    HW186784  10.553  11.792  11.605
94984SOL    HW286785  10.450  11.766  11.713
94985SOL     OW86786  13.548   8.833  12.742
94985SOL    HW186787  13.627   8.878  12.772
94985SOL    HW286788  13.580   8.755  12.698
94986SOL     OW86789   4.345   1.964  11.915
94986SOL    HW186790   4.403   2.029  11.955
94986SOL    HW286791   4.304   1.920  11.990
94987SOL     OW86792  13.512   3.757   1.395
94987SOL    HW186793  13.599   3.763   1.433
94987SOL    HW286794  13.468   3.838   1.422
94988SOL     OW86795   1.446   1.405  13.602
94988SOL    HW186796   1.540   1.409  13.615
94988SOL    HW286797   1.425   1.311  13.603
94989SOL     OW86798   1.255   4.715   1.469
94989SOL    HW186799   1.329   4.685   1.522
94989SOL    HW286800   1.203   4.769   1.529
94990SOL     OW86801   3.495   6.188   2.431
94990SOL    HW186802   3.518   6.275   2.399
94990SOL    HW286803   3.522   6.129   2.360
94991SOL     OW86804   2.569  12.659   3.897
94991SOL    HW186805   2.599  12.617   3.816
94991SOL    HW286806   2.515  12.593   3.940
94992SOL     OW86807   8.656   5.905   9.453
94992SOL    HW186808   8.584   5.843   9.447
94992SOL    HW286809   8.696   5.903   9.365
94993SOL     OW86810  10.447  14.757  14.094
94993SOL    HW186811  10.464  14.786  14.004
94993SOL    HW286812  10.352  14.747  14.098
94994SOL     OW86813  12.670  10.249  13.977
94994SOL    HW186814  12.656  10.343  13.967
94994SOL    HW286815  12.662  10.233  14.071
94995SOL     OW86816   3.500   9.331   9.028
94995SOL    HW186817   3.577   9.287   8.990
94995SOL    HW286818   3.435   9.262   9.036
94996SOL     OW86819   9.710  12.471  12.037
94996SOL    HW186820   9.783  12.410  12.023
94996SOL    HW286821   9.640  12.417  12.074
94997SOL     OW86822   9.228   8.758   5.619
94997SOL    HW186823   9.276   8.731   5.541
94997SOL    HW286824   9.137   8.765   5.590
94998SOL     OW86825   7.045   4.169  13.429
94998SOL    HW186826   7.064   4.256  13.464
94998SOL    HW286827   6.981   4.131  13.489
94999SOL     OW86828  10.518   5.500   1.903
94999SOL    HW186829  10.555   5.539   1.823
94999SOL    HW286830  10.440   5.454   1.872
95000SOL     OW86831   5.078   7.812   8.415
95000SOL    HW186832   5.056   7.898   8.450
95000SOL    HW286833   5.069   7.823   8.320
95001SOL     OW86834   1.208  11.273  14.021
95001SOL    HW186835   1.118  11.302  14.031
95001SOL    HW286836   1.205  11.209  13.950
95002SOL     OW86837   6.890   7.319   9.300
95002SOL    HW186838   6.980   7.320   9.266
95002SOL    HW286839   6.835   7.322   9.222
95003SOL     OW86840   7.106   7.908   8.292
95003SOL    HW186841   7.180   7.966   8.275
95003SOL    HW286842   7.137   7.821   8.268
95004SOL     OW86843   5.208  10.530  10.359
95004SOL    HW186844   5.150  10.583  10.413
95004SOL    HW286845   5.236  10.589  10.289
95005SOL     OW86846   3.614   6.542  12.663
95005SOL    HW186847   3.622   6.625  12.709
95005SOL    HW286848   3.704   6.514  12.647
95006SOL     OW86849   3.461  13.619   6.553
95006SOL    HW186850   3.546  13.628   6.510
95006SOL    HW286851   3.480  13.629   6.646
95007SOL     OW86852   6.307  12.277   3.192
95007SOL    HW186853   6.290  12.211   3.259
95007SOL    HW286854   6.360  12.343   3.236
95008SOL     OW86855  11.545   9.162   3.067
95008SOL    HW186856  11.580   9.074   3.085
95008SOL    HW286857  11.590   9.190   2.988
95009SOL     OW86858  12.013   3.935   8.068
95009SOL    HW186859  11.969   3.853   8.087
95009SOL    HW286860  12.105   3.910   8.054
95010SOL     OW86861   2.118   3.451   2.956
95010SOL    HW186862   2.131   3.497   2.872
95010SOL    HW286863   2.178   3.494   3.016
95011SOL     OW86864  14.005  10.393   6.133
95011SOL    HW186865  13.954  10.471   6.113
95011SOL    HW286866  13.949  10.342   6.191
95012SOL     OW86867   8.822  10.153  12.597
95012SOL    HW186868   8.912  10.123  12.583
95012SOL    HW286869   8.806  10.140  12.690
95013SOL     OW86870   7.691  12.172  11.128
95013SOL    HW186871   7.645  12.105  11.077
95013SOL    HW286872   7.763  12.124  11.170
95014SOL     OW86873   4.425  11.533  13.837
95014SOL    HW186874   4.478  11.529  13.917
95014SOL    HW286875   4.453  11.457  13.786
95015SOL     OW86876   8.162   7.997   4.373
95015SOL    HW186877   8.075   8.014   4.336
95015SOL    HW286878   8.180   7.906   4.350
95016SOL     OW86879   6.141  14.578  10.419
95016SOL    HW186880   6.056  14.536  10.434
95016SOL    HW286881   6.176  14.534  10.341
95017SOL     OW86882  10.616   0.797   1.472
95017SOL    HW186883  10.646   0.871   1.524
95017SOL    HW286884  10.692   0.771   1.422
95018SOL     OW86885   9.925   5.194   4.650
95018SOL    HW186886  10.002   5.252   4.652
95018SOL    HW286887   9.938   5.141   4.571
95019SOL     OW86888   9.262   2.828  13.767
95019SOL    HW186889   9.201   2.758  13.746
95019SOL    HW286890   9.269   2.879  13.686
95020SOL     OW86891  10.990   8.881  11.717
95020SOL    HW186892  10.969   8.845  11.803
95020SOL    HW286893  10.936   8.831  11.655
95021SOL     OW86894  11.799   3.639   2.334
95021SOL    HW186895  11.814   3.664   2.243
95021SOL    HW286896  11.873   3.678   2.381
95022SOL     OW86897   6.411   0.275   3.207
95022SOL    HW186898   6.452   0.337   3.147
95022SOL    HW286899   6.395   0.326   3.287
95023SOL     OW86900   2.412  13.192   3.391
95023SOL    HW186901   2.506  13.186   3.409
95023SOL    HW286902   2.397  13.284   3.371
95024SOL     OW86903   6.632   1.303   2.920
95024SOL    HW186904   6.724   1.303   2.945
95024SOL    HW286905   6.607   1.396   2.920
95025SOL     OW86906   2.624  12.660   7.394
95025SOL    HW186907   2.653  12.750   7.378
95025SOL    HW286908   2.632  12.616   7.309
95026SOL     OW86909   3.263   6.972   2.502
95026SOL    HW186910   3.177   6.954   2.539
95026SOL    HW286911   3.254   6.953   2.409
95027SOL     OW86912   9.063   0.379   7.633
95027SOL    HW186913   9.102   0.295   7.610
95027SOL    HW286914   9.104   0.442   7.574
95028SOL     OW86915   7.086   3.013   3.538
95028SOL    HW186916   7.148   3.049   3.601
95028SOL    HW286917   7.013   2.980   3.591
95029SOL     OW86918   3.882   3.089   1.324
95029SOL    HW186919   3.870   3.181   1.301
95029SOL    HW286920   3.816   3.071   1.391
95030SOL     OW86921  13.871   9.823   1.090
95030SOL    HW186922  13.918   9.889   1.039
95030SOL    HW286923  13.880   9.743   1.038
95031SOL     OW86924   5.429   3.007   7.523
95031SOL    HW186925   5.416   3.093   7.484
95031SOL    HW286926   5.341   2.971   7.532
95032SOL     OW86927   7.668   7.647   9.334
95032SOL    HW186928   7.600   7.704   9.298
95032SOL    HW286929   7.750   7.684   9.301
95033SOL     OW86930   8.946  14.542   6.685
95033SOL    HW186931   9.038  14.565   6.677
95033SOL    HW286932   8.919  14.516   6.597
95034SOL     OW86933  14.451  13.349  12.793
95034SOL    HW186934  14.383  13.392  12.742
95034SOL    HW286935  14.453  13.259  12.759
95035SOL     OW86936   9.882   9.011  10.000
95035SOL    HW186937   9.804   9.018   9.944
95035SOL    HW286938   9.955   9.034   9.943
95036SOL     OW86939   1.921  14.297   0.920
95036SOL    HW186940   1.859  14.362   0.954
95036SOL    HW286941   1.883  14.213   0.943
95037SOL     OW86942  11.050  14.305   4.033
95037SOL    HW186943  10.959  14.303   4.004
95037SOL    HW286944  11.100  14.314   3.951
95038SOL     OW86945   9.651   3.113   9.964
95038SOL    HW186946   9.664   3.207   9.957
95038SOL    HW286947   9.600   3.101  10.044
95039SOL     OW86948  11.677   4.244   3.057
95039SOL    HW186949  11.631   4.181   3.001
95039SOL    HW286950  11.704   4.193   3.133
95040SOL     OW86951   7.374   9.536   4.127
95040SOL    HW186952   7.336   9.475   4.190
95040SOL    HW286953   7.301   9.592   4.101
95041SOL     OW86954   8.689   0.988   3.059
95041SOL    HW186955   8.662   1.080   3.061
95041SOL    HW286956   8.751   0.980   3.131
95042SOL     OW86957   1.066   9.031   9.063
95042SOL    HW186958   1.122   8.977   9.119
95042SOL    HW286959   1.127   9.081   9.010
95043SOL     OW86960   8.281  14.270   4.591
95043SOL    HW186961   8.225  14.200   4.558
95043SOL    HW286962   8.370  14.244   4.566
95044SOL     OW86963   9.427   3.845  10.668
95044SOL    HW186964   9.345   3.804  10.639
95044SOL    HW286965   9.411   3.939  10.660
95045SOL     OW86966   3.218   0.280   8.211
95045SOL    HW186967   3.248   0.190   8.199
95045SOL    HW286968   3.210   0.314   8.122
95046SOL     OW86969  11.926   7.006   6.841
95046SOL    HW186970  11.974   6.926   6.863
95046SOL    HW286971  11.927   7.057   6.922
95047SOL     OW86972  13.525  11.534   2.047
95047SOL    HW186973  13.589  11.598   2.014
95047SOL    HW286974  13.532  11.460   1.987
95048SOL     OW86975   0.948   8.477  14.741
95048SOL    HW186976   0.971   8.387  14.764
95048SOL    HW286977   0.990   8.491  14.656
95049SOL     OW86978   1.014   6.255   8.943
95049SOL    HW186979   1.089   6.196   8.950
95049SOL    HW286980   1.038   6.330   8.999
95050SOL     OW86981   2.928   6.976  10.198
95050SOL    HW186982   2.854   6.926  10.234
95050SOL    HW286983   2.888   7.032  10.132
95051SOL     OW86984   2.737   0.106  10.213
95051SOL    HW186985   2.676   0.148  10.273
95051SOL    HW286986   2.682   0.064  10.147
95052SOL     OW86987  13.260   7.866   7.542
95052SOL    HW186988  13.295   7.918   7.615
95052SOL    HW286989  13.292   7.911   7.464
95053SOL     OW86990   8.441   0.611  12.076
95053SOL    HW186991   8.367   0.640  12.130
95053SOL    HW286992   8.515   0.665  12.106
95054SOL     OW86993   7.450  11.249   7.489
95054SOL    HW186994   7.487  11.336   7.483
95054SOL    HW286995   7.504  11.195   7.431
95055SOL     OW86996  10.562   9.359   6.838
95055SOL    HW186997  10.633   9.362   6.903
95055SOL    HW286998  10.605   9.337   6.756
95056SOL     OW86999  13.774   3.432  11.012
95056SOL    HW187000  13.755   3.420  10.919
95056SOL    HW287001  13.870   3.432  11.017
95057SOL     OW87002   5.202  12.072  10.604
95057SOL    HW187003   5.258  12.019  10.660
95057SOL    HW287004   5.154  12.009  10.550
95058SOL     OW87005  12.705  11.184  10.275
95058SOL    HW187006  12.711  11.125  10.200
95058SOL    HW287007  12.671  11.130  10.346
95059SOL     OW87008   6.661   5.193  12.178
95059SOL    HW187009   6.741   5.237  12.208
95059SOL    HW287010   6.621   5.158  12.257
95060SOL     OW87011   2.457   3.870   3.806
95060SOL    HW187012   2.383   3.926   3.824
95060SOL    HW287013   2.510   3.919   3.743
95061SOL     OW87014  12.353   6.388   1.958
95061SOL    HW187015  12.354   6.380   1.862
95061SOL    HW287016  12.445   6.402   1.980
95062SOL     OW87017   2.099   4.625   8.945
95062SOL    HW187018   2.192   4.626   8.969
95062SOL    HW287019   2.063   4.705   8.983
95063SOL     OW87020   1.111   2.676   2.204
95063SOL    HW187021   1.061   2.633   2.134
95063SOL    HW287022   1.061   2.754   2.224
95064SOL     OW87023  10.824   5.900   0.572
95064SOL    HW187024  10.790   5.820   0.532
95064SOL    HW287025  10.860   5.950   0.499
95065SOL     OW87026   6.329   8.160   9.554
95065SOL    HW187027   6.394   8.230   9.546
95065SOL    HW287028   6.289   8.155   9.467
95066SOL     OW87029   4.175   6.917   6.569
95066SOL    HW187030   4.109   6.975   6.533
95066SOL    HW287031   4.129   6.865   6.635
95067SOL     OW87032  10.216   6.916   8.376
95067SOL    HW187033  10.289   6.884   8.322
95067SOL    HW287034  10.190   6.998   8.334
95068SOL     OW87035   7.633  11.855   7.251
95068SOL    HW187036   7.600  11.775   7.210
95068SOL    HW287037   7.604  11.850   7.342
95069SOL     OW87038   1.274   7.864  11.710
95069SOL    HW187039   1.198   7.873  11.767
95069SOL    HW287040   1.283   7.770  11.696
95070SOL     OW87041  10.603  12.666   1.204
95070SOL    HW187042  10.687  12.680   1.159
95070SOL    HW287043  10.595  12.571   1.209
95071SOL     OW87044   5.567  13.789   8.910
95071SOL    HW187045   5.621  13.775   8.988
95071SOL    HW287046   5.630  13.812   8.842
95072SOL     OW87047  10.599  10.204   7.459
95072SOL    HW187048  10.623  10.155   7.380
95072SOL    HW287049  10.565  10.287   7.426
95073SOL     OW87050   6.332   5.763   4.224
95073SOL    HW187051   6.307   5.851   4.195
95073SOL    HW287052   6.427   5.767   4.233
95074SOL     OW87053  13.758  13.508  12.387
95074SOL    HW187054  13.759  13.509  12.291
95074SOL    HW287055  13.733  13.419  12.410
95075SOL     OW87056   5.713  13.990   4.786
95075SOL    HW187057   5.715  13.940   4.868
95075SOL    HW287058   5.676  14.075   4.811
95076SOL     OW87059   2.505   4.292   2.523
95076SOL    HW187060   2.563   4.229   2.480
95076SOL    HW287061   2.463   4.243   2.593
95077SOL     OW87062   9.611   5.082   5.263
95077SOL    HW187063   9.671   5.010   5.284
95077SOL    HW287064   9.564   5.098   5.346
95078SOL     OW87065  10.710  12.244   2.087
95078SOL    HW187066  10.780  12.179   2.095
95078SOL    HW287067  10.682  12.237   1.996
95079SOL     OW87068  12.078   7.942   8.682
95079SOL    HW187069  12.065   8.034   8.705
95079SOL    HW287070  12.160   7.942   8.633
95080SOL     OW87071   2.403  10.983   8.319
95080SOL    HW187072   2.476  11.000   8.259
95080SOL    HW287073   2.340  11.052   8.301
95081SOL     OW87074   4.638   0.787   1.824
95081SOL    HW187075   4.644   0.699   1.786
95081SOL    HW287076   4.710   0.791   1.887
95082SOL     OW87077  10.236   0.216   0.662
95082SOL    HW187078  10.248   0.305   0.695
95082SOL    HW287079  10.250   0.223   0.567
95083SOL     OW87080   5.216   9.422   6.507
95083SOL    HW187081   5.169   9.368   6.443
95083SOL    HW287082   5.274   9.477   6.454
95084SOL     OW87083  14.275   0.652   2.751
95084SOL    HW187084  14.255   0.680   2.661
95084SOL    HW287085  14.305   0.732   2.794
95085SOL     OW87086  13.040   8.192   8.865
95085SOL    HW187087  13.110   8.130   8.847
95085SOL    HW287088  12.994   8.201   8.782
95086SOL     OW87089  12.515   0.024   6.673
95086SOL    HW187090  12.488  14.819   6.723
95086SOL    HW287091  12.441   0.085   6.681
95087SOL     OW87092   9.433   6.890   8.074
95087SOL    HW187093   9.483   6.921   7.998
95087SOL    HW287094   9.370   6.960   8.092
95088SOL     OW87095  10.766   8.733  10.535
95088SOL    HW187096  10.825   8.699  10.468
95088SOL    HW287097  10.694   8.771  10.486
95089SOL     OW87098  14.429  11.922   4.177
95089SOL    HW187099  14.374  11.847   4.153
95089SOL    HW287100  14.518  11.888   4.173
95090SOL     OW87101   0.943   9.644   1.242
95090SOL    HW187102   0.966   9.726   1.284
95090SOL    HW287103   0.987   9.647   1.157
95091SOL     OW87104   7.832   2.835  11.608
95091SOL    HW187105   7.764   2.851  11.542
95091SOL    HW287106   7.885   2.765  11.572
95092SOL     OW87107   4.090  11.467  14.001
95092SOL    HW187108   4.102  11.547  13.949
95092SOL    HW287109   4.163  11.468  14.063
95093SOL     OW87110   8.858   8.157  10.816
95093SOL    HW187111   8.799   8.156  10.892
95093SOL    HW287112   8.849   8.069  10.779
95094SOL     OW87113  14.468   9.365   4.375
95094SOL    HW187114  14.446   9.281   4.334
95094SOL    HW287115  14.454   9.350   4.468
95095SOL     OW87116   6.503  12.819   7.467
95095SOL    HW187117   6.464  12.895   7.425
95095SOL    HW287118   6.528  12.761   7.395
95096SOL     OW87119   2.382   4.699   8.139
95096SOL    HW187120   2.432   4.739   8.068
95096SOL    HW287121   2.323   4.637   8.096
95097SOL     OW87122   6.340   6.551   5.714
95097SOL    HW187123   6.280   6.563   5.641
95097SOL    HW287124   6.409   6.494   5.680
95098SOL     OW87125   8.022   3.097   5.956
95098SOL    HW187126   8.111   3.127   5.974
95098SOL    HW287127   8.029   3.001   5.957
95099SOL     OW87128   0.702   1.549   0.550
95099SOL    HW187129   0.677   1.577   0.638
95099SOL    HW287130   0.772   1.609   0.524
95100SOL     OW87131   3.610  10.294   9.532
95100SOL    HW187132   3.573  10.318   9.447
95100SOL    HW287133   3.680  10.232   9.511
95101SOL     OW87134   6.542  10.708   3.363
95101SOL    HW187135   6.486  10.632   3.373
95101SOL    HW287136   6.502  10.759   3.293
95102SOL     OW87137   3.114   3.310   5.163
95102SOL    HW187138   3.163   3.352   5.234
95102SOL    HW287139   3.167   3.232   5.140
95103SOL     OW87140  13.427   0.645   9.940
95103SOL    HW187141  13.494   0.700   9.900
95103SOL    HW287142  13.472   0.600  10.011
95104SOL     OW87143   9.552   1.307   9.402
95104SOL    HW187144   9.479   1.284   9.459
95104SOL    HW287145   9.574   1.397   9.427
95105SOL     OW87146  14.450   4.835   9.153
95105SOL    HW187147  14.489   4.923   9.152
95105SOL    HW287148  14.378   4.840   9.090
95106SOL     OW87149   2.698   3.285   4.137
95106SOL    HW187150   2.682   3.272   4.230
95106SOL    HW287151   2.621   3.332   4.105
95107SOL     OW87152   6.695   7.407  14.760
95107SOL    HW187153   6.652   7.330  14.798
95107SOL    HW287154   6.632   7.477  14.770
95108SOL     OW87155   0.037   3.643   1.996
95108SOL    HW187156   0.020   3.632   1.902
95108SOL    HW287157   0.030   3.555   2.033
95109SOL     OW87158   9.488   4.497  10.575
95109SOL    HW187159   9.409   4.447  10.552
95109SOL    HW287160   9.473   4.584  10.537
95110SOL     OW87161   6.620   9.724   1.609
95110SOL    HW187162   6.708   9.747   1.579
95110SOL    HW287163   6.564   9.740   1.533
95111SOL     OW87164   5.165   9.851  11.839
95111SOL    HW187165   5.131   9.774  11.793
95111SOL    HW287166   5.224   9.892  11.776
95112SOL     OW87167  10.654   4.962   3.421
95112SOL    HW187168  10.735   4.983   3.373
95112SOL    HW287169  10.667   4.871   3.449
95113SOL     OW87170   6.974   7.102   1.583
95113SOL    HW187171   6.921   7.181   1.597
95113SOL    HW287172   7.018   7.117   1.500
95114SOL     OW87173  13.673   5.539   0.759
95114SOL    HW187174  13.653   5.617   0.812
95114SOL    HW287175  13.595   5.484   0.767
95115SOL     OW87176   9.457  10.930  13.480
95115SOL    HW187177   9.373  10.938  13.435
95115SOL    HW287178   9.509  11.002  13.447
95116SOL     OW87179  14.025  13.861   8.833
95116SOL    HW187180  14.065  13.928   8.889
95116SOL    HW287181  13.944  13.838   8.877
95117SOL     OW87182  14.457   1.115   9.649
95117SOL    HW187183  14.513   1.193   9.652
95117SOL    HW287184  14.467   1.083   9.560
95118SOL     OW87185   7.372   6.623   5.864
95118SOL    HW187186   7.389   6.716   5.847
95118SOL    HW287187   7.459   6.582   5.861
95119SOL     OW87188   6.373  12.304   0.032
95119SOL    HW187189   6.409  12.279  14.819
95119SOL    HW287190   6.304  12.240   0.049
95120SOL     OW87191   3.221   1.882   6.757
95120SOL    HW187192   3.279   1.948   6.720
95120SOL    HW287193   3.248   1.800   6.717
95121SOL     OW87194   8.726   6.990   9.018
95121SOL    HW187195   8.746   6.897   9.033
95121SOL    HW287196   8.810   7.034   9.028
95122SOL     OW87197   7.085   1.454   1.075
95122SOL    HW187198   7.164   1.502   1.049
95122SOL    HW287199   7.025   1.522   1.105
95123SOL     OW87200  12.347   7.298   4.733
95123SOL    HW187201  12.389   7.228   4.782
95123SOL    HW287202  12.404   7.374   4.746
95124SOL     OW87203  14.068   5.879  13.244
95124SOL    HW187204  14.099   5.825  13.172
95124SOL    HW287205  14.107   5.841  13.322
95125SOL     OW87206   7.537  12.871  13.220
95125SOL    HW187207   7.576  12.921  13.148
95125SOL    HW287208   7.478  12.809  13.177
95126SOL     OW87209   6.943   2.558   6.144
95126SOL    HW187210   7.002   2.538   6.072
95126SOL    HW287211   7.000   2.582   6.216
95127SOL     OW87212   8.904   5.774   4.245
95127SOL    HW187213   8.931   5.699   4.299
95127SOL    HW287214   8.956   5.847   4.279
95128SOL     OW87215  12.716   3.529  13.891
95128SOL    HW187216  12.644   3.471  13.865
95128SOL    HW287217  12.747   3.492  13.973
95129SOL     OW87218  12.800   8.335   3.825
95129SOL    HW187219  12.881   8.291   3.852
95129SOL    HW287220  12.759   8.362   3.908
95130SOL     OW87221  12.455  11.036  13.458
95130SOL    HW187222  12.422  11.120  13.426
95130SOL    HW287223  12.378  10.993  13.497
95131SOL     OW87224  10.734   0.446   4.744
95131SOL    HW187225  10.691   0.529   4.728
95131SOL    HW287226  10.699   0.416   4.828
95132SOL     OW87227  11.124   7.618   6.606
95132SOL    HW187228  11.055   7.682   6.590
95132SOL    HW287229  11.078   7.535   6.614
95133SOL     OW87230   0.890   3.451   9.312
95133SOL    HW187231   0.928   3.407   9.388
95133SOL    HW287232   0.819   3.393   9.284
95134SOL     OW87233  14.168   1.794   7.250
95134SOL    HW187234  14.184   1.784   7.156
95134SOL    HW287235  14.118   1.715   7.273
95135SOL     OW87236  14.077   0.922   8.092
95135SOL    HW187237  14.107   0.833   8.070
95135SOL    HW287238  14.138   0.951   8.159
95136SOL     OW87239   0.693   2.361   1.312
95136SOL    HW187240   0.651   2.369   1.398
95136SOL    HW287241   0.640   2.295   1.266
95137SOL     OW87242   8.615  13.195  11.450
95137SOL    HW187243   8.561  13.116  11.456
95137SOL    HW287244   8.648  13.195  11.361
95138SOL     OW87245  12.671  11.445  12.108
95138SOL    HW187246  12.591  11.411  12.148
95138SOL    HW287247  12.684  11.390  12.031
95139SOL     OW87248   2.519  13.380   3.098
95139SOL    HW187249   2.541  13.473   3.087
95139SOL    HW287250   2.453  13.379   3.167
95140SOL     OW87251   0.952   0.822   5.800
95140SOL    HW187252   0.981   0.878   5.729
95140SOL    HW287253   0.987   0.864   5.879
95141SOL     OW87254   7.413   5.256  10.234
95141SOL    HW187255   7.353   5.222  10.168
95141SOL    HW287256   7.491   5.201  10.227
95142SOL     OW87257   9.760   8.241   0.279
95142SOL    HW187258   9.785   8.159   0.236
95142SOL    HW287259   9.749   8.217   0.371
95143SOL     OW87260   7.083   1.420   8.530
95143SOL    HW187261   7.110   1.508   8.556
95143SOL    HW287262   6.999   1.407   8.574
95144SOL     OW87263   2.565   7.254   4.276
95144SOL    HW187264   2.633   7.309   4.316
95144SOL    HW287265   2.557   7.179   4.336
95145SOL     OW87266   2.543   2.695  10.118
95145SOL    HW187267   2.466   2.738  10.080
95145SOL    HW287268   2.603   2.684  10.044
95146SOL     OW87269   6.634   7.106   8.174
95146SOL    HW187270   6.577   7.064   8.109
95146SOL    HW287271   6.603   7.073   8.258
95147SOL     OW87272   9.123  11.320   8.195
95147SOL    HW187273   9.157  11.263   8.126
95147SOL    HW287274   9.187  11.390   8.202
95148SOL     OW87275   9.208   7.404  14.310
95148SOL    HW187276   9.153   7.438  14.380
95148SOL    HW287277   9.155   7.414  14.230
95149SOL     OW87278   1.404   2.053   0.789
95149SOL    HW187279   1.450   1.969   0.782
95149SOL    HW287280   1.441   2.094   0.868
95150SOL     OW87281  11.743   4.982   3.031
95150SOL    HW187282  11.752   5.038   3.109
95150SOL    HW287283  11.802   5.021   2.967
95151SOL     OW87284   4.638  11.468   6.882
95151SOL    HW187285   4.545  11.485   6.871
95151SOL    HW287286   4.642  11.389   6.936
95152SOL     OW87287   3.953   8.866   3.020
95152SOL    HW187288   3.873   8.919   3.031
95152SOL    HW287289   3.970   8.868   2.925
95153SOL     OW87290  10.873   0.614   9.216
95153SOL    HW187291  10.786   0.579   9.194
95153SOL    HW287292  10.886   0.685   9.153
95154SOL     OW87293   2.108   1.978   3.675
95154SOL    HW187294   2.121   1.980   3.769
95154SOL    HW287295   2.057   1.899   3.659
95155SOL     OW87296   6.435   1.628   2.241
95155SOL    HW187297   6.510   1.579   2.207
95155SOL    HW287298   6.359   1.586   2.202
95156SOL     OW87299   1.023   7.353   6.054
95156SOL    HW187300   1.063   7.266   6.057
95156SOL    HW287301   1.086   7.406   6.005
95157SOL     OW87302  14.324  14.143  11.080
95157SOL    HW187303  14.399  14.097  11.041
95157SOL    HW287304  14.363  14.200  11.146
95158SOL     OW87305  10.322  14.643   1.352
95158SOL    HW187306  10.317  14.734   1.381
95158SOL    HW287307  10.285  14.593   1.425
95159SOL     OW87308   0.443   7.019  12.645
95159SOL    HW187309   0.469   6.928  12.638
95159SOL    HW287310   0.354   7.022  12.609
95160SOL     OW87311   0.625  14.443   0.961
95160SOL    HW187312   0.579  14.361   0.941
95160SOL    HW287313   0.710  14.415   0.996
95161SOL     OW87314  12.334   0.917   9.629
95161SOL    HW187315  12.363   0.844   9.685
95161SOL    HW287316  12.261   0.956   9.678
95162SOL     OW87317  12.468  13.161   8.714
95162SOL    HW187318  12.475  13.246   8.670
95162SOL    HW287319  12.552  13.150   8.758
95163SOL     OW87320  13.639   3.541   9.749
95163SOL    HW187321  13.690   3.543   9.668
95163SOL    HW287322  13.615   3.449   9.760
95164SOL     OW87323   4.770   9.647   7.927
95164SOL    HW187324   4.704   9.715   7.936
95164SOL    HW287325   4.849   9.694   7.902
95165SOL     OW87326   5.092  12.737   8.209
95165SOL    HW187327   5.140  12.786   8.276
95165SOL    HW287328   5.158  12.678   8.171
95166SOL     OW87329   6.944  11.795  12.315
95166SOL    HW187330   7.013  11.735  12.343
95166SOL    HW287331   6.991  11.872  12.282
95167SOL     OW87332   0.941   9.582  10.302
95167SOL    HW187333   0.918   9.673  10.282
95167SOL    HW287334   1.028   9.571  10.264
95168SOL     OW87335   0.323   6.284   6.485
95168SOL    HW187336   0.232   6.255   6.490
95168SOL    HW287337   0.374   6.203   6.484
95169SOL     OW87338   2.816  12.953   7.970
95169SOL    HW187339   2.729  12.964   7.931
95169SOL    HW287340   2.819  12.861   7.996
95170SOL     OW87341   0.645   1.127   0.556
95170SOL    HW187342   0.656   1.191   0.627
95170SOL    HW287343   0.706   1.056   0.579
95171SOL     OW87344   5.379   7.927   6.534
95171SOL    HW187345   5.408   8.018   6.523
95171SOL    HW287346   5.317   7.913   6.463
95172SOL     OW87347   2.318  13.748  11.051
95172SOL    HW187348   2.278  13.663  11.066
95172SOL    HW287349   2.377  13.734  10.976
95173SOL     OW87350  14.730   1.595  12.208
95173SOL    HW187351  14.746   1.559  12.295
95173SOL    HW287352  14.751   1.688  12.216
95174SOL     OW87353  12.800   7.796   0.627
95174SOL    HW187354  12.775   7.706   0.607
95174SOL    HW287355  12.790   7.843   0.544
95175SOL     OW87356  11.060   2.772   4.355
95175SOL    HW187357  11.030   2.862   4.370
95175SOL    HW287358  11.154   2.781   4.339
95176SOL     OW87359   4.283  14.619   7.500
95176SOL    HW187360   4.360  14.563   7.493
95176SOL    HW287361   4.212  14.569   7.459
95177SOL     OW87362  12.173   1.447  11.564
95177SOL    HW187363  12.247   1.408  11.518
95177SOL    HW287364  12.111   1.376  11.574
95178SOL     OW87365  11.518   7.353   9.109
95178SOL    HW187366  11.549   7.276   9.156
95178SOL    HW287367  11.523   7.328   9.016
95179SOL     OW87368   2.627   9.084   0.554
95179SOL    HW187369   2.661   9.171   0.533
95179SOL    HW287370   2.662   9.027   0.485
95180SOL     OW87371  12.196   7.878  11.603
95180SOL    HW187372  12.139   7.801  11.612
95180SOL    HW287373  12.137   7.953  11.612
95181SOL     OW87374   8.985   6.118   7.293
95181SOL    HW187375   8.900   6.129   7.336
95181SOL    HW287376   8.972   6.154   7.205
95182SOL     OW87377  13.418   9.996   7.106
95182SOL    HW187378  13.333   9.955   7.125
95182SOL    HW287379  13.427  10.065   7.171
95183SOL     OW87380  14.576   9.775   7.296
95183SOL    HW187381  14.671   9.784   7.287
95183SOL    HW287382  14.541   9.857   7.261
95184SOL     OW87383  13.765   7.669  13.770
95184SOL    HW187384  13.736   7.632  13.687
95184SOL    HW287385  13.778   7.762  13.753
95185SOL     OW87386   1.627   1.068   1.704
95185SOL    HW187387   1.539   1.071   1.666
95185SOL    HW287388   1.669   1.148   1.675
95186SOL     OW87389  12.025   2.698  10.172
95186SOL    HW187390  12.052   2.615  10.134
95186SOL    HW287391  11.944   2.721  10.126
95187SOL     OW87392   9.137  12.347   6.014
95187SOL    HW187393   9.061  12.382   5.968
95187SOL    HW287394   9.174  12.282   5.954
95188SOL     OW87395   7.556  13.660   7.350
95188SOL    HW187396   7.552  13.684   7.258
95188SOL    HW287397   7.467  13.675   7.383
95189SOL     OW87398   2.264   3.812   9.218
95189SOL    HW187399   2.306   3.807   9.304
95189SOL    HW287400   2.191   3.872   9.230
95190SOL     OW87401   1.284   5.157   7.590
95190SOL    HW187402   1.195   5.127   7.608
95190SOL    HW287403   1.340   5.099   7.642
95191SOL     OW87404  11.805  12.669   5.339
95191SOL    HW187405  11.787  12.594   5.283
95191SOL    HW287406  11.802  12.634   5.428
95192SOL     OW87407   3.663  10.187   1.637
95192SOL    HW187408   3.723  10.255   1.608
95192SOL    HW287409   3.585  10.234   1.668
95193SOL     OW87410   0.949   3.373   4.999
95193SOL    HW187411   1.017   3.440   5.007
95193SOL    HW287412   0.868   3.422   4.983
95194SOL     OW87413   9.779   9.784  10.897
95194SOL    HW187414   9.705   9.823  10.850
95194SOL    HW287415   9.856   9.810  10.847
95195SOL     OW87416   2.887  12.232   6.865
95195SOL    HW187417   2.938  12.301   6.907
95195SOL    HW287418   2.797  12.262   6.870
95196SOL     OW87419  12.501   2.852   4.387
95196SOL    HW187420  12.532   2.858   4.477
95196SOL    HW287421  12.412   2.818   4.395
95197SOL     OW87422   4.134   3.066   3.285
95197SOL    HW187423   4.172   3.036   3.203
95197SOL    HW287424   4.074   3.136   3.260
95198SOL     OW87425   1.668   6.876  11.277
95198SOL    HW187426   1.710   6.895  11.194
95198SOL    HW287427   1.621   6.957  11.299
95199SOL     OW87428   6.039   3.255   8.241
95199SOL    HW187429   6.072   3.304   8.317
95199SOL    HW287430   5.954   3.223   8.269
95200SOL     OW87431  11.974   1.729  12.594
95200SOL    HW187432  11.898   1.702  12.645
95200SOL    HW287433  12.044   1.737  12.658
95201SOL     OW87434   9.924   5.958   3.197
95201SOL    HW187435   9.926   5.978   3.290
95201SOL    HW287436   9.879   6.033   3.157
95202SOL     OW87437   9.084   1.568  13.111
95202SOL    HW187438   9.147   1.630  13.147
95202SOL    HW287439   9.130   1.526  13.038
95203SOL     OW87440   5.115  14.217  13.892
95203SOL    HW187441   5.028  14.219  13.930
95203SOL    HW287442   5.154  14.136  13.926
95204SOL     OW87443   9.759   7.759  11.804
95204SOL    HW187444   9.677   7.732  11.846
95204SOL    HW287445   9.733   7.829  11.744
95205SOL     OW87446   6.889   8.042   9.502
95205SOL    HW187447   6.832   7.968   9.523
95205SOL    HW287448   6.842   8.118   9.537
95206SOL     OW87449  13.161   0.486   1.685
95206SOL    HW187450  13.092   0.446   1.633
95206SOL    HW287451  13.186   0.418   1.748
95207SOL     OW87452  10.579   8.326   4.563
95207SOL    HW187453  10.674   8.329   4.560
95207SOL    HW287454  10.553   8.411   4.599
95208SOL     OW87455   6.726  11.722   0.563
95208SOL    HW187456   6.730  11.742   0.469
95208SOL    HW287457   6.659  11.654   0.570
95209SOL     OW87458  10.707   7.588   5.568
95209SOL    HW187459  10.695   7.556   5.658
95209SOL    HW287460  10.780   7.537   5.534
95210SOL     OW87461   1.763  11.741   5.789
95210SOL    HW187462   1.825  11.785   5.732
95210SOL    HW287463   1.715  11.812   5.832
95211SOL     OW87464  14.315   6.314   4.151
95211SOL    HW187465  14.398   6.332   4.196
95211SOL    HW287466  14.263   6.394   4.164
95212SOL     OW87467   4.241  10.767   7.856
95212SOL    HW187468   4.314  10.822   7.884
95212SOL    HW287469   4.189  10.753   7.935
95213SOL     OW87470   7.458   0.800   9.573
95213SOL    HW187471   7.438   0.888   9.605
95213SOL    HW287472   7.378   0.772   9.528
95214SOL     OW87473   8.452   6.172   6.911
95214SOL    HW187474   8.451   6.221   6.830
95214SOL    HW287475   8.540   6.133   6.915
95215SOL     OW87476   0.223   5.506  14.135
95215SOL    HW187477   0.139   5.486  14.176
95215SOL    HW287478   0.263   5.571  14.193
95216SOL     OW87479  12.571   4.311   5.639
95216SOL    HW187480  12.542   4.281   5.725
95216SOL    HW287481  12.493   4.304   5.584
95217SOL     OW87482  10.642   9.949   8.602
95217SOL    HW187483  10.575   9.925   8.538
95217SOL    HW287484  10.706  10.000   8.550
95218SOL     OW87485   8.375  10.792  14.363
95218SOL    HW187486   8.438  10.726  14.393
95218SOL    HW287487   8.335  10.825  14.444
95219SOL     OW87488   1.937  14.556  13.913
95219SOL    HW187489   1.994  14.583  13.841
95219SOL    HW287490   1.848  14.565  13.878
95220SOL     OW87491  12.410   8.606   2.585
95220SOL    HW187492  12.499   8.625   2.552
95220SOL    HW287493  12.423   8.538   2.650
95221SOL     OW87494   5.908   2.830   8.278
95221SOL    HW187495   5.859   2.865   8.203
95221SOL    HW287496   5.998   2.824   8.247
95222SOL     OW87497   8.769  13.545  12.666
95222SOL    HW187498   8.712  13.521  12.739
95222SOL    HW287499   8.820  13.466  12.647
95223SOL     OW87500  14.686   8.278   2.023
95223SOL    HW187501  14.766   8.239   1.986
95223SOL    HW287502  14.716   8.324   2.102
95224SOL     OW87503   3.826  11.752   7.644
95224SOL    HW187504   3.746  11.701   7.660
95224SOL    HW287505   3.890  11.688   7.613
95225SOL     OW87506  12.100   7.593  13.670
95225SOL    HW187507  12.008   7.591  13.697
95225SOL    HW287508  12.120   7.503  13.644
95226SOL     OW87509  14.276   1.241   7.038
95226SOL    HW187510  14.299   1.150   7.020
95226SOL    HW287511  14.213   1.264   6.971
95227SOL     OW87512   8.270  11.063   8.438
95227SOL    HW187513   8.294  10.987   8.384
95227SOL    HW287514   8.324  11.054   8.517
95228SOL     OW87515   1.097   4.336   9.410
95228SOL    HW187516   1.152   4.413   9.397
95228SOL    HW287517   1.016   4.356   9.364
95229SOL     OW87518  12.316  14.250  12.192
95229SOL    HW187519  12.323  14.283  12.102
95229SOL    HW287520  12.284  14.161  12.182
95230SOL     OW87521   3.462  14.284   7.474
95230SOL    HW187522   3.510  14.265   7.393
95230SOL    HW287523   3.522  14.257   7.544
95231SOL     OW87524   9.571   3.566   7.667
95231SOL    HW187525   9.625   3.641   7.640
95231SOL    HW287526   9.519   3.545   7.589
95232SOL     OW87527   6.621   3.748  14.425
95232SOL    HW187528   6.559   3.820  14.428
95232SOL    HW287529   6.615   3.713  14.337
95233SOL     OW87530   1.642   4.296   6.457
95233SOL    HW187531   1.671   4.268   6.544
95233SOL    HW287532   1.566   4.241   6.439
95234SOL     OW87533  13.785   5.249   7.356
95234SOL    HW187534  13.820   5.276   7.271
95234SOL    HW287535  13.822   5.162   7.370
95235SOL     OW87536  11.502   1.335   9.719
95235SOL    HW187537  11.407   1.325   9.726
95235SOL    HW287538  11.515   1.425   9.689
95236SOL     OW87539   8.400   9.330  12.818
95236SOL    HW187540   8.469   9.278  12.860
95236SOL    HW287541   8.431   9.420  12.825
95237SOL     OW87542   3.618   3.296   9.797
95237SOL    HW187543   3.659   3.213   9.775
95237SOL    HW287544   3.537   3.271   9.842
95238SOL     OW87545   7.447   4.386   1.126
95238SOL    HW187546   7.496   4.468   1.129
95238SOL    HW287547   7.443   4.357   1.217
95239SOL     OW87548  10.624   2.270  13.675
95239SOL    HW187549  10.609   2.274  13.580
95239SOL    HW287550  10.708   2.313  13.688
95240SOL     OW87551   2.844  10.014   6.059
95240SOL    HW187552   2.814  10.075   6.127
95240SOL    HW287553   2.832   9.928   6.097
95241SOL     OW87554   2.183  10.007   2.694
95241SOL    HW187555   2.196  10.074   2.628
95241SOL    HW287556   2.150  10.054   2.771
95242SOL     OW87557   3.430   7.196   2.790
95242SOL    HW187558   3.339   7.215   2.812
95242SOL    HW287559   3.463   7.278   2.754
95243SOL     OW87560  10.023   3.193  10.610
95243SOL    HW187561  10.063   3.166  10.527
95243SOL    HW287562  10.002   3.111  10.655
95244SOL     OW87563   9.127  12.758   7.091
95244SOL    HW187564   9.152  12.817   7.161
95244SOL    HW287565   9.046  12.716   7.121
95245SOL     OW87566   9.551   5.121  11.268
95245SOL    HW187567   9.611   5.047  11.278
95245SOL    HW287568   9.537   5.128  11.174
95246SOL     OW87569   6.553   4.121   3.299
95246SOL    HW187570   6.598   4.042   3.329
95246SOL    HW287571   6.532   4.170   3.379
95247SOL     OW87572  13.270  14.464  14.854
95247SOL    HW187573  13.255  14.490  14.763
95247SOL    HW287574  13.365  14.474  14.866
95248SOL     OW87575  10.074   6.799  11.570
95248SOL    HW187576  10.073   6.760  11.482
95248SOL    HW287577  10.159   6.841  11.577
95249SOL     OW87578   3.914  10.130   5.941
95249SOL    HW187579   3.934  10.052   5.890
95249SOL    HW287580   3.856  10.100   6.011
95250SOL     OW87581   5.424   6.593   9.633
95250SOL    HW187582   5.424   6.677   9.587
95250SOL    HW287583   5.395   6.615   9.722
95251SOL     OW87584   9.560   4.536   6.643
95251SOL    HW187585   9.470   4.547   6.611
95251SOL    HW287586   9.560   4.582   6.727
95252SOL     OW87587   9.315   5.480  12.692
95252SOL    HW187588   9.405   5.514  12.694
95252SOL    HW287589   9.273   5.528  12.621
95253SOL     OW87590   8.786  11.800   7.297
95253SOL    HW187591   8.741  11.720   7.324
95253SOL    HW287592   8.875  11.790   7.331
95254SOL     OW87593  13.345   2.193   9.570
95254SOL    HW187594  13.420   2.251   9.582
95254SOL    HW287595  13.306   2.221   9.487
95255SOL     OW87596   9.676   9.967   6.283
95255SOL    HW187597   9.584   9.976   6.257
95255SOL    HW287598   9.703   9.882   6.248
95256SOL     OW87599   4.493  11.066   6.908
95256SOL    HW187600   4.580  11.027   6.912
95256SOL    HW287601   4.438  10.999   6.867
95257SOL     OW87602  10.817   0.634  10.572
95257SOL    HW187603  10.799   0.652  10.480
95257SOL    HW287604  10.863   0.713  10.602
95258SOL     OW87605   1.636  14.471   1.298
95258SOL    HW187606   1.639  14.427   1.213
95258SOL    HW287607   1.682  14.554   1.283
95259SOL     OW87608  10.115   8.373   2.912
95259SOL    HW187609  10.113   8.352   2.818
95259SOL    HW287610  10.023   8.376   2.937
95260SOL     OW87611   6.115   1.906   7.589
95260SOL    HW187612   6.131   1.909   7.494
95260SOL    HW287613   6.169   1.976   7.625
95261SOL     OW87614   9.540   6.743   6.068
95261SOL    HW187615   9.453   6.710   6.046
95261SOL    HW287616   9.525   6.829   6.107
95262SOL     OW87617  10.853  10.471   0.788
95262SOL    HW187618  10.947  10.478   0.775
95262SOL    HW287619  10.843  10.457   0.882
95263SOL     OW87620   5.576   9.572  13.836
95263SOL    HW187621   5.519   9.534  13.770
95263SOL    HW287622   5.542   9.541  13.919
95264SOL     OW87623   5.064  13.926   2.737
95264SOL    HW187624   5.141  13.881   2.773
95264SOL    HW287625   5.087  14.019   2.742
95265SOL     OW87626   1.595   2.417  13.229
95265SOL    HW187627   1.551   2.439  13.146
95265SOL    HW287628   1.555   2.334  13.256
95266SOL     OW87629   1.094  13.235   5.484
95266SOL    HW187630   1.003  13.209   5.496
95266SOL    HW287631   1.140  13.155   5.459
95267SOL     OW87632   0.395  14.744   8.071
95267SOL    HW187633   0.307  14.709   8.060
95267SOL    HW287634   0.430  14.700   8.148
95268SOL     OW87635  12.562   7.902   5.237
95268SOL    HW187636  12.541   7.984   5.193
95268SOL    HW287637  12.585   7.842   5.165
95269SOL     OW87638   6.912   6.935   8.556
95269SOL    HW187639   6.898   6.853   8.604
95269SOL    HW287640   6.877   7.003   8.613
95270SOL     OW87641  12.334   1.686   0.443
95270SOL    HW187642  12.324   1.725   0.356
95270SOL    HW287643  12.427   1.694   0.462
95271SOL     OW87644   4.997   6.821   2.618
95271SOL    HW187645   5.086   6.792   2.637
95271SOL    HW287646   4.995   6.833   2.523
95272SOL     OW87647   7.150   1.919   8.594
95272SOL    HW187648   7.116   1.829   8.595
95272SOL    HW287649   7.160   1.942   8.687
95273SOL     OW87650   6.796  12.159  14.164
95273SOL    HW187651   6.724  12.105  14.196
95273SOL    HW287652   6.761  12.203  14.087
95274SOL     OW87653  11.879   3.819   5.949
95274SOL    HW187654  11.877   3.883   5.878
95274SOL    HW287655  11.787   3.807   5.973
95275SOL     OW87656   4.128   6.886   9.567
95275SOL    HW187657   4.167   6.925   9.489
95275SOL    HW287658   4.064   6.950   9.597
95276SOL     OW87659   7.067   7.426   4.127
95276SOL    HW187660   7.006   7.394   4.193
95276SOL    HW287661   7.020   7.497   4.083
95277SOL     OW87662   2.322   4.376   3.597
95277SOL    HW187663   2.413   4.374   3.628
95277SOL    HW287664   2.298   4.468   3.598
95278SOL     OW87665  14.670   4.316   2.992
95278SOL    HW187666  14.758   4.347   2.974
95278SOL    HW287667  14.621   4.395   3.018
95279SOL     OW87668   8.504  10.594   7.259
95279SOL    HW187669   8.437  10.575   7.194
95279SOL    HW287670   8.584  10.556   7.223
95280SOL     OW87671   4.575   8.910  11.806
95280SOL    HW187672   4.545   8.869  11.887
95280SOL    HW287673   4.586   8.838  11.745
95281SOL     OW87674   7.134   9.371  12.606
95281SOL    HW187675   7.115   9.403  12.518
95281SOL    HW287676   7.089   9.286  12.611
95282SOL     OW87677  11.773   8.180  11.055
95282SOL    HW187678  11.838   8.194  11.124
95282SOL    HW287679  11.738   8.267  11.038
95283SOL     OW87680  12.890  11.173   7.033
95283SOL    HW187681  12.844  11.247   7.073
95283SOL    HW287682  12.875  11.183   6.939
95284SOL     OW87683   3.856  11.192   8.159
95284SOL    HW187684   3.867  11.142   8.078
95284SOL    HW287685   3.839  11.281   8.130
95285SOL     OW87686   1.009  10.082  10.488
95285SOL    HW187687   1.016  10.060  10.396
95285SOL    HW287688   0.940  10.025  10.522
95286SOL     OW87689   6.665   3.341   4.883
95286SOL    HW187690   6.598   3.273   4.872
95286SOL    HW287691   6.633   3.415   4.832
95287SOL     OW87692   6.807  10.949   0.353
95287SOL    HW187693   6.796  11.026   0.297
95287SOL    HW287694   6.789  10.874   0.295
95288SOL     OW87695   2.644   6.420   8.961
95288SOL    HW187696   2.695   6.350   9.002
95288SOL    HW287697   2.666   6.415   8.869
95289SOL     OW87698   5.095   7.178  11.443
95289SOL    HW187699   5.159   7.234  11.486
95289SOL    HW287700   5.134   7.091  11.444
95290SOL     OW87701   2.697   8.427   0.255
95290SOL    HW187702   2.732   8.454   0.170
95290SOL    HW287703   2.736   8.489   0.317
95291SOL     OW87704  12.677   4.313   8.551
95291SOL    HW187705  12.620   4.341   8.479
95291SOL    HW287706  12.701   4.395   8.595
95292SOL     OW87707   4.890   7.625   0.616
95292SOL    HW187708   4.852   7.710   0.640
95292SOL    HW287709   4.979   7.628   0.649
95293SOL     OW87710   9.608   8.349   2.336
95293SOL    HW187711   9.532   8.295   2.315
95293SOL    HW287712   9.606   8.356   2.431
95294SOL     OW87713   2.244   0.822   8.199
95294SOL    HW187714   2.329   0.853   8.230
95294SOL    HW287715   2.200   0.789   8.277
95295SOL     OW87716   4.167   0.621  13.591
95295SOL    HW187717   4.171   0.538  13.543
95295SOL    HW287718   4.229   0.610  13.662
95296SOL     OW87719   7.752  14.826  11.355
95296SOL    HW187720   7.672  14.853  11.400
95296SOL    HW287721   7.811  14.796  11.424
95297SOL     OW87722  11.836   7.577   6.797
95297SOL    HW187723  11.834   7.482   6.788
95297SOL    HW287724  11.758   7.598   6.848
95298SOL     OW87725   1.361   7.040  11.145
95298SOL    HW187726   1.321   6.983  11.079
95298SOL    HW287727   1.287   7.087  11.184
95299SOL     OW87728   3.303   2.200   1.159
95299SOL    HW187729   3.333   2.284   1.194
95299SOL    HW287730   3.250   2.163   1.229
95300SOL     OW87731   7.433   1.696   2.820
95300SOL    HW187732   7.422   1.737   2.906
95300SOL    HW287733   7.350   1.714   2.775
95301SOL     OW87734   2.738   9.363   1.594
95301SOL    HW187735   2.739   9.276   1.554
95301SOL    HW287736   2.784   9.352   1.677
95302SOL     OW87737  12.462   9.416   6.780
95302SOL    HW187738  12.551   9.411   6.746
95302SOL    HW287739  12.471   9.411   6.875
95303SOL     OW87740   5.064   9.517   7.362
95303SOL    HW187741   4.984   9.484   7.402
95303SOL    HW287742   5.055   9.497   7.269
95304SOL     OW87743  11.594   2.961   6.496
95304SOL    HW187744  11.499   2.957   6.509
95304SOL    HW287745  11.606   2.976   6.403
95305SOL     OW87746   0.802   8.056  11.539
95305SOL    HW187747   0.829   8.147  11.545
95305SOL    HW287748   0.842   8.025  11.457
95306SOL     OW87749   6.386  11.217   9.712
95306SOL    HW187750   6.304  11.169   9.698
95306SOL    HW287751   6.422  11.229   9.624
95307SOL     OW87752  13.704   8.875   4.260
95307SOL    HW187753  13.656   8.823   4.195
95307SOL    HW287754  13.650   8.868   4.339
95308SOL     OW87755   2.874   4.118   4.188
95308SOL    HW187756   2.921   4.066   4.123
95308SOL    HW287757   2.838   4.054   4.249
95309SOL     OW87758  10.228  10.317   9.532
95309SOL    HW187759  10.135  10.338   9.539
95309SOL    HW287760  10.273  10.394   9.568
95310SOL     OW87761   3.411   2.329  10.692
95310SOL    HW187762   3.498   2.314  10.730
95310SOL    HW287763   3.390   2.246  10.649
95311SOL     OW87764  14.296   5.683   5.500
95311SOL    HW187765  14.254   5.765   5.527
95311SOL    HW287766  14.352   5.660   5.574
95312SOL     OW87767  12.818   2.249   9.569
95312SOL    HW187768  12.749   2.239   9.635
95312SOL    HW287769  12.790   2.322   9.515
95313SOL     OW87770   4.491   3.337  11.173
95313SOL    HW187771   4.489   3.254  11.221
95313SOL    HW287772   4.405   3.376  11.189
95314SOL     OW87773   1.632   9.824   4.542
95314SOL    HW187774   1.616   9.804   4.634
95314SOL    HW287775   1.560   9.783   4.495
95315SOL     OW87776   9.850   0.486  12.027
95315SOL    HW187777   9.894   0.569  12.045
95315SOL    HW287778   9.765   0.512  11.992
95316SOL     OW87779   7.018   9.558   6.369
95316SOL    HW187780   7.090   9.599   6.321
95316SOL    HW287781   7.015   9.604   6.453
95317SOL     OW87782   2.549   2.629  13.910
95317SOL    HW187783   2.464   2.625  13.865
95317SOL    HW287784   2.610   2.661  13.844
95318SOL     OW87785  12.641  12.869   4.710
95318SOL    HW187786  12.721  12.915   4.737
95318SOL    HW287787  12.572  12.906   4.764
95319SOL     OW87788   1.144   5.462  12.301
95319SOL    HW187789   1.189   5.392  12.255
95319SOL    HW287790   1.181   5.543  12.264
95320SOL     OW87791   3.999   8.760   8.298
95320SOL    HW187792   3.965   8.747   8.386
95320SOL    HW287793   4.094   8.762   8.308
95321SOL     OW87794   0.487   9.006   8.576
95321SOL    HW187795   0.579   8.985   8.558
95321SOL    HW287796   0.453   8.930   8.623
95322SOL     OW87797   7.932  14.814  13.374
95322SOL    HW187798   8.005  14.752  13.368
95322SOL    HW287799   7.896  14.818  13.286
95323SOL     OW87800  12.741   4.598   7.480
95323SOL    HW187801  12.778   4.684   7.498
95323SOL    HW287802  12.817   4.543   7.460
95324SOL     OW87803   7.150  13.780   3.458
95324SOL    HW187804   7.238  13.816   3.449
95324SOL    HW287805   7.160  13.687   3.440
95325SOL     OW87806   0.875   1.353   5.710
95325SOL    HW187807   0.945   1.322   5.767
95325SOL    HW287808   0.809   1.284   5.712
95326SOL     OW87809  10.676   0.514  12.526
95326SOL    HW187810  10.654   0.590  12.579
95326SOL    HW287811  10.771   0.514  12.520
95327SOL     OW87812  10.719  13.684  13.468
95327SOL    HW187813  10.688  13.596  13.487
95327SOL    HW287814  10.797  13.694  13.523
95328SOL     OW87815  13.657  13.907   1.515
95328SOL    HW187816  13.642  13.825   1.562
95328SOL    HW287817  13.732  13.889   1.458
95329SOL     OW87818  14.564   6.751  14.499
95329SOL    HW187819  14.493   6.782  14.442
95329SOL    HW287820  14.630   6.718  14.439
95330SOL     OW87821  14.522   5.061   9.354
95330SOL    HW187822  14.438   5.034   9.390
95330SOL    HW287823  14.586   5.005   9.399
95331SOL     OW87824  12.278   8.507  11.176
95331SOL    HW187825  12.278   8.453  11.098
95331SOL    HW287826  12.211   8.468  11.233
95332SOL     OW87827   8.772   0.361   9.111
95332SOL    HW187828   8.840   0.401   9.055
95332SOL    HW287829   8.797   0.385   9.200
95333SOL     OW87830   8.256  10.707   2.451
95333SOL    HW187831   8.165  10.688   2.429
95333SOL    HW287832   8.255  10.799   2.478
95334SOL     OW87833   6.388  13.815   4.970
95334SOL    HW187834   6.339  13.751   4.919
95334SOL    HW287835   6.387  13.895   4.916
95335SOL     OW87836   4.098  11.124   8.923
95335SOL    HW187837   4.081  11.195   8.861
95335SOL    HW287838   4.031  11.136   8.991
95336SOL     OW87839  14.227   4.978  11.991
95336SOL    HW187840  14.198   5.031  11.918
95336SOL    HW287841  14.187   5.019  12.068
95337SOL     OW87842   9.907   0.763   5.294
95337SOL    HW187843   9.991   0.765   5.340
95337SOL    HW287844   9.921   0.703   5.221
95338SOL     OW87845   0.742  12.375   0.314
95338SOL    HW187846   0.666  12.432   0.313
95338SOL    HW287847   0.815  12.431   0.287
95339SOL     OW87848  12.717  10.121  11.359
95339SOL    HW187849  12.758  10.035  11.351
95339SOL    HW287850  12.748  10.170  11.284
95340SOL     OW87851   0.336  13.905   0.326
95340SOL    HW187852   0.404  13.877   0.265
95340SOL    HW287853   0.325  13.831   0.386
95341SOL     OW87854   2.795  11.676   9.764
95341SOL    HW187855   2.750  11.752   9.727
95341SOL    HW287856   2.759  11.601   9.715
95342SOL     OW87857   5.523  13.914   4.599
95342SOL    HW187858   5.590  13.950   4.658
95342SOL    HW287859   5.569  13.901   4.516
95343SOL     OW87860  11.745   9.594   2.141
95343SOL    HW187861  11.831   9.636   2.137
95343SOL    HW287862  11.711   9.602   2.052
95344SOL     OW87863   7.618   6.872   1.364
95344SOL    HW187864   7.707   6.891   1.336
95344SOL    HW287865   7.617   6.895   1.457
95345SOL     OW87866   3.392  10.868  11.802
95345SOL    HW187867   3.332  10.929  11.846
95345SOL    HW287868   3.455  10.844  11.870
95346SOL     OW87869   0.743   3.035   5.976
95346SOL    HW187870   0.723   3.008   5.886
95346SOL    HW287871   0.829   3.076   5.970
95347SOL     OW87872  12.433  10.253   4.382
95347SOL    HW187873  12.386  10.244   4.465
95347SOL    HW287874  12.498  10.321   4.398
95348SOL     OW87875   7.655   2.578  10.435
95348SOL    HW187876   7.596   2.611  10.503
95348SOL    HW287877   7.625   2.622  10.355
95349SOL     OW87878   4.885  10.062   9.297
95349SOL    HW187879   4.806  10.057   9.244
95349SOL    HW287880   4.859  10.115   9.373
95350SOL     OW87881   1.219  11.579   2.060
95350SOL    HW187882   1.210  11.553   2.152
95350SOL    HW287883   1.276  11.656   2.062
95351SOL     OW87884  11.940   2.534   8.536
95351SOL    HW187885  11.966   2.453   8.580
95351SOL    HW287886  11.849   2.548   8.562
95352SOL     OW87887   4.674   2.088   6.482
95352SOL    HW187888   4.642   2.054   6.399
95352SOL    HW287889   4.750   2.142   6.459
95353SOL     OW87890  10.728   2.595   9.251
95353SOL    HW187891  10.785   2.665   9.218
95353SOL    HW287892  10.729   2.529   9.182
95354SOL     OW87893   1.092   3.308   9.957
95354SOL    HW187894   1.079   3.262   9.874
95354SOL    HW287895   1.126   3.241  10.017
95355SOL     OW87896   7.555   4.159   8.530
95355SOL    HW187897   7.521   4.188   8.445
95355SOL    HW287898   7.624   4.097   8.509
95356SOL     OW87899  10.499   1.375  12.883
95356SOL    HW187900  10.551   1.439  12.932
95356SOL    HW287901  10.452   1.428  12.818
95357SOL     OW87902   1.200   6.355   5.688
95357SOL    HW187903   1.106   6.344   5.694
95357SOL    HW287904   1.224   6.315   5.604
95358SOL     OW87905   2.891  13.582   9.928
95358SOL    HW187906   2.917  13.495   9.957
95358SOL    HW287907   2.836  13.567   9.850
95359SOL     OW87908  13.824   3.845   3.925
95359SOL    HW187909  13.835   3.844   3.830
95359SOL    HW287910  13.851   3.758   3.953
95360SOL     OW87911   1.672  14.320   5.212
95360SOL    HW187912   1.649  14.260   5.141
95360SOL    HW287913   1.659  14.407   5.174
95361SOL     OW87914  11.861   9.687   0.976
95361SOL    HW187915  11.852   9.631   0.899
95361SOL    HW287916  11.776   9.684   1.019
95362SOL     OW87917   4.631   4.411   0.001
95362SOL    HW187918   4.631   4.440  14.782
95362SOL    HW287919   4.714   4.364   0.011
95363SOL     OW87920   6.543   7.360   0.754
95363SOL    HW187921   6.510   7.443   0.720
95363SOL    HW287922   6.500   7.350   0.839
95364SOL     OW87923   7.103   0.350   7.657
95364SOL    HW187924   7.076   0.334   7.567
95364SOL    HW287925   7.172   0.416   7.650
95365SOL     OW87926  10.526   2.897   8.868
95365SOL    HW187927  10.594   2.897   8.935
95365SOL    HW287928  10.558   2.958   8.802
95366SOL     OW87929  13.102   7.693   4.476
95366SOL    HW187930  13.110   7.601   4.501
95366SOL    HW287931  13.173   7.737   4.522
95367SOL     OW87932   1.692   4.914   7.892
95367SOL    HW187933   1.674   4.832   7.846
95367SOL    HW287934   1.718   4.975   7.823
95368SOL     OW87935   3.334  11.847   7.298
95368SOL    HW187936   3.285  11.783   7.245
95368SOL    HW287937   3.398  11.884   7.238
95369SOL     OW87938   8.143  13.603  11.243
95369SOL    HW187939   8.162  13.693  11.270
95369SOL    HW287940   8.052  13.607  11.211
95370SOL     OW87941   6.535  14.267  12.947
95370SOL    HW187942   6.615  14.289  12.995
95370SOL    HW287943   6.484  14.349  12.945
95371SOL     OW87944  11.262   7.155   7.084
95371SOL    HW187945  11.188   7.216   7.089
95371SOL    HW287946  11.276   7.141   6.991
95372SOL     OW87947   4.721  13.051   0.461
95372SOL    HW187948   4.810  13.038   0.492
95372SOL    HW287949   4.672  12.975   0.494
95373SOL     OW87950   4.870   9.058   4.856
95373SOL    HW187951   4.912   9.000   4.919
95373SOL    HW287952   4.858   9.140   4.902
95374SOL     OW87953   0.453  10.878  14.518
95374SOL    HW187954   0.459  10.967  14.551
95374SOL    HW287955   0.395  10.883  14.443
95375SOL     OW87956   7.471  14.198   8.805
95375SOL    HW187957   7.450  14.266   8.742
95375SOL    HW287958   7.477  14.118   8.754
95376SOL     OW87959   8.757  12.206  13.398
95376SOL    HW187960   8.822  12.266  13.433
95376SOL    HW287961   8.734  12.149  13.471
95377SOL     OW87962   4.781   9.237  13.097
95377SOL    HW187963   4.780   9.144  13.072
95377SOL    HW287964   4.700   9.272  13.058
95378SOL     OW87965   8.563   5.460   4.882
95378SOL    HW187966   8.638   5.485   4.936
95378SOL    HW287967   8.571   5.365   4.873
95379SOL     OW87968  10.802   5.179   8.345
95379SOL    HW187969  10.868   5.133   8.397
95379SOL    HW287970  10.720   5.164   8.393
95380SOL     OW87971   0.972   9.670   9.165
95380SOL    HW187972   0.918   9.593   9.146
95380SOL    HW287973   1.059   9.647   9.133
95381SOL     OW87974  12.731  10.685   1.158
95381SOL    HW187975  12.789  10.761   1.157
95381SOL    HW287976  12.676  10.697   1.236
95382SOL     OW87977   6.981  11.381  14.235
95382SOL    HW187978   6.910  11.369  14.172
95382SOL    HW287979   7.056  11.410  14.182
95383SOL     OW87980  12.748   5.499   4.199
95383SOL    HW187981  12.828   5.527   4.244
95383SOL    HW287982  12.778   5.440   4.130
95384SOL     OW87983   5.414  14.191   9.802
95384SOL    HW187984   5.325  14.211   9.830
95384SOL    HW287985   5.446  14.273   9.763
95385SOL     OW87986   4.255  13.247   5.240
95385SOL    HW187987   4.188  13.183   5.261
95385SOL    HW287988   4.328  13.226   5.299
95386SOL     OW87989   4.770  14.671   7.001
95386SOL    HW187990   4.742  14.688   6.911
95386SOL    HW287991   4.807  14.583   6.999
95387SOL     OW87992  10.148   2.386   2.059
95387SOL    HW187993  10.143   2.450   2.130
95387SOL    HW287994  10.240   2.386   2.034
95388SOL     OW87995  14.778   2.453   8.546
95388SOL    HW187996  14.811   2.532   8.589
95388SOL    HW287997  14.683   2.464   8.545
95389SOL     OW87998  10.926  10.840  12.662
95389SOL    HW187999  10.982  10.918  12.661
95389SOL    HW288000  10.964  10.783  12.729
95390SOL     OW88001  10.333   0.519   2.637
95390SOL    HW188002  10.381   0.455   2.584
95390SOL    HW288003  10.249   0.529   2.591
95391SOL     OW88004   5.430  14.667   8.431
95391SOL    HW188005   5.455  14.635   8.344
95391SOL    HW288006   5.513  14.698   8.469
95392SOL     OW88007  11.223   4.156   7.855
95392SOL    HW188008  11.314   4.134   7.832
95392SOL    HW288009  11.173   4.136   7.776
95393SOL     OW88010   2.178  13.316  13.279
95393SOL    HW188011   2.100  13.371  13.274
95393SOL    HW288012   2.144  13.226  13.274
95394SOL     OW88013  14.600   7.099  12.319
95394SOL    HW188014  14.601   7.195  12.324
95394SOL    HW288015  14.692   7.075  12.306
95395SOL     OW88016   5.699   4.111  14.506
95395SOL    HW188017   5.741   4.157  14.433
95395SOL    HW288018   5.771   4.069  14.553
95396SOL     OW88019  14.017  11.876   7.782
95396SOL    HW188020  14.093  11.893   7.837
95396SOL    HW288021  14.053  11.841   7.700
95397SOL     OW88022   7.610   3.262   7.579
95397SOL    HW188023   7.637   3.305   7.498
95397SOL    HW288024   7.580   3.334   7.635
95398SOL     OW88025  11.774   8.097  13.304
95398SOL    HW188026  11.806   8.159  13.369
95398SOL    HW288027  11.787   8.011  13.344
95399SOL     OW88028   4.428   7.119   3.628
95399SOL    HW188029   4.447   7.213   3.630
95399SOL    HW288030   4.486   7.084   3.560
95400SOL     OW88031   8.622   1.204   8.034
95400SOL    HW188032   8.606   1.264   7.961
95400SOL    HW288033   8.675   1.134   7.997
95401SOL     OW88034   2.713  14.115   4.588
95401SOL    HW188035   2.752  14.049   4.644
95401SOL    HW288036   2.619  14.093   4.587
95402SOL     OW88037   1.243  10.375   7.651
95402SOL    HW188038   1.339  10.369   7.652
95402SOL    HW288039   1.215  10.314   7.719
95403SOL     OW88040  13.593   5.380   7.936
95403SOL    HW188041  13.672   5.327   7.947
95403SOL    HW288042  13.521   5.320   7.955
95404SOL     OW88043  12.657   5.199  13.962
95404SOL    HW188044  12.679   5.286  13.929
95404SOL    HW288045  12.606   5.216  14.042
95405SOL     OW88046   1.247   9.860   4.002
95405SOL    HW188047   1.267   9.775   4.040
95405SOL    HW288048   1.263   9.922   4.074
95406SOL     OW88049   3.862   4.402  11.722
95406SOL    HW188050   3.888   4.310  11.728
95406SOL    HW288051   3.793   4.403  11.656
95407SOL     OW88052  11.280   8.412   2.137
95407SOL    HW188053  11.203   8.437   2.085
95407SOL    HW288054  11.295   8.487   2.194
95408SOL     OW88055  13.216   0.747  11.396
95408SOL    HW188056  13.243   0.829  11.356
95408SOL    HW288057  13.168   0.701  11.327
95409SOL     OW88058   4.076  13.990  12.845
95409SOL    HW188059   3.982  13.998  12.825
95409SOL    HW288060   4.086  13.901  12.879
95410SOL     OW88061  14.536  11.011   8.512
95410SOL    HW188062  14.521  10.940   8.574
95410SOL    HW288063  14.462  11.005   8.451
95411SOL     OW88064   8.357   7.769   3.434
95411SOL    HW188065   8.302   7.847   3.421
95411SOL    HW288066   8.299   7.696   3.413
95412SOL     OW88067   8.147   3.580   7.923
95412SOL    HW188068   8.139   3.585   7.828
95412SOL    HW288069   8.149   3.672   7.952
95413SOL     OW88070   3.768   3.394   6.000
95413SOL    HW188071   3.820   3.444   5.937
95413SOL    HW288072   3.757   3.453   6.075
95414SOL     OW88073   7.984   2.616  10.098
95414SOL    HW188074   8.074   2.641  10.118
95414SOL    HW288075   7.935   2.640  10.177
95415SOL     OW88076  11.731   7.682   6.037
95415SOL    HW188077  11.701   7.594   6.017
95415SOL    HW288078  11.777   7.711   5.958
95416SOL     OW88079  11.180   6.604  13.546
95416SOL    HW188080  11.240   6.532  13.528
95416SOL    HW288081  11.118   6.568  13.610
95417SOL     OW88082   8.169  10.076   5.414
95417SOL    HW188083   8.183   9.998   5.360
95417SOL    HW288084   8.202  10.052   5.500
95418SOL     OW88085  11.181   3.218   8.075
95418SOL    HW188086  11.166   3.124   8.087
95418SOL    HW288087  11.093   3.256   8.075
95419SOL     OW88088   7.373   3.265   8.316
95419SOL    HW188089   7.299   3.319   8.290
95419SOL    HW288090   7.378   3.197   8.249
95420SOL     OW88091   1.816   7.877   4.552
95420SOL    HW188092   1.772   7.903   4.471
95420SOL    HW288093   1.862   7.955   4.581
95421SOL     OW88094   8.947  10.732  12.183
95421SOL    HW188095   8.915  10.692  12.264
95421SOL    HW288096   8.871  10.732  12.124
95422SOL     OW88097  10.430   7.661   6.810
95422SOL    HW188098  10.505   7.694   6.859
95422SOL    HW288099  10.361   7.652   6.875
95423SOL     OW88100   1.429   3.202  12.582
95423SOL    HW188101   1.417   3.118  12.626
95423SOL    HW288102   1.448   3.264  12.653
95424SOL     OW88103   3.689  13.537  13.267
95424SOL    HW188104   3.735  13.482  13.331
95424SOL    HW288105   3.689  13.485  13.187
95425SOL     OW88106   2.914  11.356   0.334
95425SOL    HW188107   2.866  11.434   0.361
95425SOL    HW288108   2.852  11.284   0.349
95426SOL     OW88109   0.914   5.236   9.388
95426SOL    HW188110   0.851   5.306   9.370
95426SOL    HW288111   0.871   5.182   9.455
95427SOL     OW88112  14.056   6.181  10.259
95427SOL    HW188113  13.962   6.185  10.237
95427SOL    HW288114  14.068   6.093  10.296
95428SOL     OW88115   0.103  10.756  12.294
95428SOL    HW188116   0.162  10.830  12.285
95428SOL    HW288117   0.056  10.752  12.211
95429SOL     OW88118  13.837   6.923   1.555
95429SOL    HW188119  13.900   6.972   1.501
95429SOL    HW288120  13.769   6.987   1.577
95430SOL     OW88121  12.752  14.453  11.542
95430SOL    HW188122  12.740  14.359  11.524
95430SOL    HW288123  12.794  14.456  11.627
95431SOL     OW88124   2.356  14.546   5.363
95431SOL    HW188125   2.303  14.614   5.321
95431SOL    HW288126   2.325  14.464   5.324
95432SOL     OW88127  10.691   3.475   5.341
95432SOL    HW188128  10.738   3.549   5.304
95432SOL    HW288129  10.759   3.418   5.376
95433SOL     OW88130   7.395  11.688   2.471
95433SOL    HW188131   7.452  11.764   2.482
95433SOL    HW288132   7.316  11.710   2.520
95434SOL     OW88133   1.274  14.693   0.879
95434SOL    HW188134   1.297  14.694   0.971
95434SOL    HW288135   1.181  14.712   0.877
95435SOL     OW88136   4.237  12.000  14.494
95435SOL    HW188137   4.310  11.941  14.473
95435SOL    HW288138   4.162  11.942  14.505
95436SOL     OW88139  11.439  12.090  14.270
95436SOL    HW188140  11.354  12.116  14.305
95436SOL    HW288141  11.454  12.003  14.307
95437SOL     OW88142   3.957   5.166   0.174
95437SOL    HW188143   3.915   5.109   0.239
95437SOL    HW288144   4.028   5.208   0.222
95438SOL     OW88145  14.580   6.383  14.406
95438SOL    HW188146  14.668   6.348  14.407
95438SOL    HW288147  14.545   6.359  14.320
95439SOL     OW88148   3.078  13.081   0.960
95439SOL    HW188149   3.150  13.024   0.933
95439SOL    HW288150   3.094  13.163   0.914
95440SOL     OW88151   7.221   6.102   1.891
95440SOL    HW188152   7.194   6.148   1.971
95440SOL    HW288153   7.315   6.088   1.902
95441SOL     OW88154  14.057   7.982   9.690
95441SOL    HW188155  14.111   7.904   9.679
95441SOL    HW288156  14.061   8.026   9.605
95442SOL     OW88157   6.439  13.214  12.098
95442SOL    HW188158   6.422  13.287  12.157
95442SOL    HW288159   6.428  13.250  12.010
95443SOL     OW88160  14.798   9.434   4.208
95443SOL    HW188161  14.728   9.450   4.272
95443SOL    HW288162  14.751   9.417   4.126
95444SOL     OW88163   7.178  10.778   3.024
95444SOL    HW188164   7.218  10.864   3.039
95444SOL    HW288165   7.160  10.776   2.930
95445SOL     OW88166  10.846  14.269   0.136
95445SOL    HW188167  10.801  14.335   0.188
95445SOL    HW288168  10.858  14.195   0.196
95446SOL     OW88169  14.461   6.715  13.158
95446SOL    HW188170  14.472   6.792  13.214
95446SOL    HW288171  14.528   6.724  13.091
95447SOL     OW88172   6.513   4.968   7.482
95447SOL    HW188173   6.482   4.967   7.572
95447SOL    HW288174   6.602   5.003   7.488
95448SOL     OW88175   2.378  10.824   6.795
95448SOL    HW188176   2.348  10.888   6.860
95448SOL    HW288177   2.363  10.867   6.711
95449SOL     OW88178   7.716   9.492  10.888
95449SOL    HW188179   7.802   9.485  10.929
95449SOL    HW288180   7.719   9.431  10.814
95450SOL     OW88181   0.980  11.145  13.367
95450SOL    HW188182   0.922  11.073  13.393
95450SOL    HW288183   0.985  11.200  13.445
95451SOL     OW88184   1.081   8.673   9.742
95451SOL    HW188185   1.040   8.695   9.826
95451SOL    HW288186   1.030   8.722   9.677
95452SOL     OW88187   3.657  14.053   5.238
95452SOL    HW188188   3.656  14.068   5.144
95452SOL    HW288189   3.615  14.129   5.276
95453SOL     OW88190  12.669  10.214   8.315
95453SOL    HW188191  12.705  10.129   8.290
95453SOL    HW288192  12.680  10.269   8.237
95454SOL     OW88193   0.724  14.346  11.538
95454SOL    HW188194   0.767  14.270  11.499
95454SOL    HW288195   0.632  14.321  11.543
95455SOL     OW88196   2.426   5.626   1.476
95455SOL    HW188197   2.359   5.570   1.516
95455SOL    HW288198   2.508   5.598   1.516
95456SOL     OW88199   9.037   9.401   5.123
95456SOL    HW188200   9.132   9.397   5.113
95456SOL    HW288201   9.023   9.456   5.200
95457SOL     OW88202   3.684  14.484   0.247
95457SOL    HW188203   3.760  14.538   0.225
95457SOL    HW288204   3.615  14.514   0.188
95458SOL     OW88205   7.583   8.395   1.469
95458SOL    HW188206   7.642   8.467   1.489
95458SOL    HW288207   7.522   8.432   1.405
95459SOL     OW88208  10.566   5.936   8.990
95459SOL    HW188209  10.592   6.010   8.935
95459SOL    HW288210  10.569   5.970   9.079
95460SOL     OW88211  10.622   5.892   6.188
95460SOL    HW188212  10.598   5.857   6.103
95460SOL    HW288213  10.714   5.917   6.179
95461SOL     OW88214   9.032  10.182  11.150
95461SOL    HW188215   8.982  10.107  11.119
95461SOL    HW288216   9.062  10.226  11.071
95462SOL     OW88217  11.160   4.027   0.409
95462SOL    HW188218  11.253   4.015   0.393
95462SOL    HW288219  11.137   3.957   0.470
95463SOL     OW88220   9.926   0.928  13.701
95463SOL    HW188221  10.016   0.896  13.711
95463SOL    HW288222   9.877   0.852  13.667
95464SOL     OW88223  13.365  11.964   4.871
95464SOL    HW188224  13.457  11.985   4.858
95464SOL    HW288225  13.318  12.041   4.838
95465SOL     OW88226  13.288   9.189  14.732
95465SOL    HW188227  13.315   9.246  14.659
95465SOL    HW288228  13.258   9.250  14.799
95466SOL     OW88229   7.089   6.698  10.153
95466SOL    HW188230   7.092   6.791  10.175
95466SOL    HW288231   7.169   6.682  10.102
95467SOL     OW88232   1.621  13.441  13.559
95467SOL    HW188233   1.595  13.533  13.555
95467SOL    HW288234   1.652  13.421  13.470
95468SOL     OW88235   2.737   6.378   8.708
95468SOL    HW188236   2.706   6.326   8.634
95468SOL    HW288237   2.736   6.468   8.677
95469SOL     OW88238  11.153  14.612   0.902
95469SOL    HW188239  11.156  14.703   0.871
95469SOL    HW288240  11.127  14.618   0.994
95470SOL     OW88241  13.525   0.890   8.663
95470SOL    HW188242  13.549   0.849   8.746
95470SOL    HW288243  13.429   0.886   8.661
95471SOL     OW88244  13.637  10.185   3.093
95471SOL    HW188245  13.555  10.162   3.050
95471SOL    HW288246  13.659  10.272   3.058
95472SOL     OW88247  13.898   7.710   9.874
95472SOL    HW188248  13.986   7.678   9.852
95472SOL    HW288249  13.894   7.706   9.969
95473SOL     OW88250   4.192   3.670   0.792
95473SOL    HW188251   4.120   3.684   0.731
95473SOL    HW288252   4.249   3.746   0.780
95474SOL     OW88253  13.397   8.947   9.873
95474SOL    HW188254  13.405   9.038   9.843
95474SOL    HW288255  13.334   8.907   9.814
95475SOL     OW88256   5.936   6.863   6.204
95475SOL    HW188257   5.931   6.775   6.167
95475SOL    HW288258   5.853   6.874   6.251
95476SOL     OW88259  11.443  12.912   5.560
95476SOL    HW188260  11.454  12.921   5.655
95476SOL    HW288261  11.363  12.960   5.541
95477SOL     OW88262   8.796  13.760   6.352
95477SOL    HW188263   8.758  13.800   6.430
95477SOL    HW288264   8.750  13.801   6.279
95478SOL     OW88265   3.271   1.648  12.569
95478SOL    HW188266   3.194   1.671  12.622
95478SOL    HW288267   3.332   1.720  12.583
95479SOL     OW88268   2.261   4.960   4.996
95479SOL    HW188269   2.289   4.873   4.969
95479SOL    HW288270   2.272   4.960   5.092
95480SOL     OW88271  12.023   7.302   3.825
95480SOL    HW188272  12.051   7.351   3.749
95480SOL    HW288273  12.035   7.210   3.801
95481SOL     OW88274   1.899   6.570  10.385
95481SOL    HW188275   1.992   6.546  10.384
95481SOL    HW288276   1.865   6.539  10.302
95482SOL     OW88277   3.983  13.203   9.682
95482SOL    HW188278   3.990  13.113   9.717
95482SOL    HW288279   3.945  13.192   9.595
95483SOL     OW88280   6.323  11.408   3.252
95483SOL    HW188281   6.349  11.492   3.216
95483SOL    HW288282   6.378  11.397   3.329
95484SOL     OW88283   4.291   1.340  11.283
95484SOL    HW188284   4.226   1.273  11.306
95484SOL    HW288285   4.307   1.386  11.365
95485SOL     OW88286   2.523  14.299   7.547
95485SOL    HW188287   2.552  14.243   7.618
95485SOL    HW288288   2.552  14.387   7.572
95486SOL     OW88289  10.939  10.726   6.507
95486SOL    HW188290  10.934  10.633   6.483
95486SOL    HW288291  10.857  10.743   6.552
95487SOL     OW88292   2.446   0.373   3.705
95487SOL    HW188293   2.437   0.462   3.672
95487SOL    HW288294   2.533   0.345   3.675
95488SOL     OW88295  10.670   4.941  10.122
95488SOL    HW188296  10.594   4.999  10.134
95488SOL    HW288297  10.634   4.853  10.126
95489SOL     OW88298  13.859   7.127   1.969
95489SOL    HW188299  13.910   7.058   2.011
95489SOL    HW288300  13.847   7.193   2.038
95490SOL     OW88301   5.546  14.105  13.300
95490SOL    HW188302   5.519  14.043  13.232
95490SOL    HW288303   5.465  14.146  13.330
95491SOL     OW88304  13.081  11.574   8.220
95491SOL    HW188305  13.104  11.654   8.267
95491SOL    HW288306  13.165  11.538   8.192
95492SOL     OW88307   4.825   8.508  13.612
95492SOL    HW188308   4.742   8.543  13.644
95492SOL    HW288309   4.846   8.562  13.535
95493SOL     OW88310  14.290  13.256  12.420
95493SOL    HW188311  14.317  13.299  12.339
95493SOL    HW288312  14.282  13.327  12.483
95494SOL     OW88313   2.517   7.783   3.494
95494SOL    HW188314   2.554   7.716   3.437
95494SOL    HW288315   2.527   7.747   3.582
95495SOL     OW88316   5.914   8.544  10.855
95495SOL    HW188317   5.972   8.478  10.892
95495SOL    HW288318   5.907   8.611  10.923
95496SOL     OW88319   0.354   7.632   1.222
95496SOL    HW188320   0.304   7.714   1.215
95496SOL    HW288321   0.396   7.622   1.137
95497SOL     OW88322  11.564   9.700   5.923
95497SOL    HW188323  11.627   9.671   5.858
95497SOL    HW288324  11.612   9.700   6.005
95498SOL     OW88325   6.451  14.186   6.922
95498SOL    HW188326   6.398  14.232   6.856
95498SOL    HW288327   6.388  14.160   6.989
95499SOL     OW88328  12.164   0.340   2.722
95499SOL    HW188329  12.252   0.347   2.757
95499SOL    HW288330  12.174   0.358   2.628
95500SOL     OW88331   8.050   0.842   1.717
95500SOL    HW188332   8.036   0.799   1.632
95500SOL    HW288333   8.129   0.802   1.752
95501SOL     OW88334  11.463  12.272   1.819
95501SOL    HW188335  11.392  12.316   1.866
95501SOL    HW288336  11.430  12.264   1.729
95502SOL     OW88337  10.255   8.997   7.364
95502SOL    HW188338  10.198   9.054   7.415
95502SOL    HW288339  10.196   8.953   7.303
95503SOL     OW88340   7.997   4.586   2.373
95503SOL    HW188341   7.906   4.556   2.371
95503SOL    HW288342   7.991   4.678   2.396
95504SOL     OW88343  12.748   9.830   1.156
95504SOL    HW188344  12.665   9.808   1.198
95504SOL    HW288345  12.731   9.819   1.062
95505SOL     OW88346  12.375   0.385   0.264
95505SOL    HW188347  12.300   0.373   0.206
95505SOL    HW288348  12.340   0.373   0.352
95506SOL     OW88349   9.110   2.142  14.062
95506SOL    HW188350   9.198   2.132  14.097
95506SOL    HW288351   9.082   2.053  14.042
95507SOL     OW88352   2.250   0.045   9.200
95507SOL    HW188353   2.255   0.091   9.284
95507SOL    HW288354   2.235  14.826   9.224
95508SOL     OW88355   3.050   6.982  11.007
95508SOL    HW188356   3.014   6.896  11.024
95508SOL    HW288357   3.020   7.006  10.920
95509SOL     OW88358   4.931   1.456  10.364
95509SOL    HW188359   4.913   1.462  10.270
95509SOL    HW288360   4.963   1.543  10.388
95510SOL     OW88361   8.432  13.606   0.523
95510SOL    HW188362   8.340  13.632   0.525
95510SOL    HW288363   8.430  13.511   0.515
95511SOL     OW88364  10.348  11.385   9.533
95511SOL    HW188365  10.274  11.390   9.472
95511SOL    HW288366  10.366  11.475   9.557
95512SOL     OW88367   7.042   8.401   2.821
95512SOL    HW188368   7.040   8.411   2.726
95512SOL    HW288369   7.111   8.460   2.850
95513SOL     OW88370   5.655  11.881  12.378
95513SOL    HW188371   5.599  11.804  12.384
95513SOL    HW288372   5.594  11.954  12.370
95514SOL     OW88373   3.061   9.177   2.921
95514SOL    HW188374   3.013   9.235   2.981
95514SOL    HW288375   3.017   9.092   2.931
95515SOL     OW88376   9.466   8.557   6.699
95515SOL    HW188377   9.447   8.629   6.759
95515SOL    HW288378   9.550   8.523   6.729
95516SOL     OW88379   3.307   2.086   1.700
95516SOL    HW188380   3.253   2.097   1.778
95516SOL    HW288381   3.376   2.151   1.709
95517SOL     OW88382  10.897  10.017   1.991
95517SOL    HW188383  10.984  10.050   1.966
95517SOL    HW288384  10.903  10.003   2.085
95518SOL     OW88385   4.169  12.333   9.706
95518SOL    HW188386   4.241  12.381   9.748
95518SOL    HW288387   4.129  12.283   9.777
95519SOL     OW88388  11.124  13.046   6.834
95519SOL    HW188389  11.143  13.120   6.892
95519SOL    HW288390  11.136  12.968   6.888
95520SOL     OW88391  14.313   5.681   8.426
95520SOL    HW188392  14.317   5.594   8.387
95520SOL    HW288393  14.256   5.671   8.502
95521SOL     OW88394   6.916   2.106   0.815
95521SOL    HW188395   6.868   2.062   0.884
95521SOL    HW288396   6.927   2.040   0.747
95522SOL     OW88397   6.021   7.411   3.703
95522SOL    HW188398   5.968   7.469   3.757
95522SOL    HW288399   6.093   7.384   3.760
95523SOL     OW88400  12.586   7.639  13.751
95523SOL    HW188401  12.571   7.643  13.656
95523SOL    HW288402  12.620   7.551  13.766
95524SOL     OW88403   2.054   0.173   2.588
95524SOL    HW188404   2.119   0.106   2.607
95524SOL    HW288405   1.970   0.127   2.591
95525SOL     OW88406  14.688   1.727   5.266
95525SOL    HW188407  14.762   1.718   5.206
95525SOL    HW288408  14.680   1.641   5.308
95526SOL     OW88409   8.501   1.405  13.797
95526SOL    HW188410   8.572   1.430  13.737
95526SOL    HW288411   8.428   1.462  13.773
95527SOL     OW88412   3.444   7.592   7.229
95527SOL    HW188413   3.401   7.507   7.239
95527SOL    HW288414   3.442   7.609   7.135
95528SOL     OW88415  10.247  12.398   6.414
95528SOL    HW188416  10.331  12.403   6.459
95528SOL    HW288417  10.264  12.441   6.329
95529SOL     OW88418  14.045  10.834   1.257
95529SOL    HW188419  14.100  10.865   1.186
95529SOL    HW288420  13.997  10.760   1.220
95530SOL     OW88421   2.798   9.675  13.884
95530SOL    HW188422   2.750   9.754  13.859
95530SOL    HW288423   2.749   9.604  13.844
95531SOL     OW88424   1.940   1.584   9.073
95531SOL    HW188425   1.896   1.660   9.112
95531SOL    HW288426   2.033   1.607   9.077
95532SOL     OW88427  13.319   5.196   1.140
95532SOL    HW188428  13.264   5.180   1.063
95532SOL    HW288429  13.273   5.267   1.187
95533SOL     OW88430  12.957   6.228  12.119
95533SOL    HW188431  12.979   6.274  12.200
95533SOL    HW288432  12.930   6.140  12.148
95534SOL     OW88433   8.066   3.897   3.760
95534SOL    HW188434   8.136   3.954   3.792
95534SOL    HW288435   8.110   3.816   3.735
95535SOL     OW88436   8.311   7.080  10.199
95535SOL    HW188437   8.285   6.996  10.160
95535SOL    HW288438   8.340   7.057  10.287
95536SOL     OW88439  12.823  10.178   6.048
95536SOL    HW188440  12.907  10.224   6.054
95536SOL    HW288441  12.757  10.247   6.051
95537SOL     OW88442  10.249  14.238   3.261
95537SOL    HW188443  10.287  14.324   3.244
95537SOL    HW288444  10.315  14.193   3.314
95538SOL     OW88445   8.963   0.380   7.312
95538SOL    HW188446   8.998   0.441   7.247
95538SOL    HW288447   8.981   0.421   7.396
95539SOL     OW88448   2.532   6.710   0.971
95539SOL    HW188449   2.493   6.693   0.885
95539SOL    HW288450   2.614   6.661   0.970
95540SOL     OW88451   4.994   7.437   3.031
95540SOL    HW188452   5.054   7.485   3.088
95540SOL    HW288453   5.047   7.414   2.954
95541SOL     OW88454   9.335  11.522  11.089
95541SOL    HW188455   9.422  11.506  11.124
95541SOL    HW288456   9.333  11.615  11.069
95542SOL     OW88457   0.470   5.652  12.644
95542SOL    HW188458   0.563   5.631  12.657
95542SOL    HW288459   0.470   5.713  12.571
95543SOL     OW88460  10.546   2.329  14.726
95543SOL    HW188461  10.604   2.307  14.653
95543SOL    HW288462  10.544   2.425  14.726
95544SOL     OW88463  11.239   9.436   6.170
95544SOL    HW188464  11.159   9.465   6.212
95544SOL    HW288465  11.245   9.489   6.090
95545SOL     OW88466   9.651   7.889   0.367
95545SOL    HW188467   9.656   7.981   0.391
95545SOL    HW288468   9.632   7.843   0.449
95546SOL     OW88469   2.424   8.491   0.605
95546SOL    HW188470   2.506   8.448   0.631
95546SOL    HW288471   2.370   8.490   0.684
95547SOL     OW88472   9.356   8.932   0.738
95547SOL    HW188473   9.320   8.887   0.815
95547SOL    HW288474   9.447   8.949   0.761
95548SOL     OW88475   5.906  10.915   9.498
95548SOL    HW188476   5.839  10.944   9.559
95548SOL    HW288477   5.961  10.856   9.549
95549SOL     OW88478   0.397   1.692  14.169
95549SOL    HW188479   0.487   1.690  14.201
95549SOL    HW288480   0.350   1.745  14.234
95550SOL     OW88481  11.062   6.679   3.280
95550SOL    HW188482  11.037   6.753   3.224
95550SOL    HW288483  10.998   6.679   3.351
95551SOL     OW88484  12.375   7.196  10.579
95551SOL    HW188485  12.292   7.196  10.531
95551SOL    HW288486  12.398   7.288  10.587
95552SOL     OW88487  13.040   7.427   1.771
95552SOL    HW188488  13.059   7.520   1.778
95552SOL    HW288489  13.018   7.400   1.861
95553SOL     OW88490   1.182   0.786   3.558
95553SOL    HW188491   1.219   0.768   3.471
95553SOL    HW288492   1.258   0.800   3.614
95554SOL     OW88493  14.856   0.408   0.849
95554SOL    HW188494   0.013   0.418   0.939
95554SOL    HW288495   0.030   0.476   0.800
95555SOL     OW88496   5.509   8.325  11.360
95555SOL    HW188497   5.551   8.315  11.446
95555SOL    HW288498   5.429   8.273  11.366
95556SOL     OW88499   6.378  10.512  13.879
95556SOL    HW188500   6.407  10.513  13.788
95556SOL    HW288501   6.458  10.499  13.930
95557SOL     OW88502   6.464  12.314  13.660
95557SOL    HW188503   6.386  12.348  13.705
95557SOL    HW288504   6.447  12.330  13.567
95558SOL     OW88505   6.894   8.716   7.041
95558SOL    HW188506   6.870   8.682   7.127
95558SOL    HW288507   6.826   8.780   7.021
95559SOL     OW88508   5.356   8.862   3.028
95559SOL    HW188509   5.438   8.844   2.982
95559SOL    HW288510   5.300   8.787   3.006
95560SOL     OW88511   5.822   0.206   1.378
95560SOL    HW188512   5.827   0.301   1.374
95560SOL    HW288513   5.830   0.185   1.471
95561SOL     OW88514   7.306   1.481   2.161
95561SOL    HW188515   7.379   1.465   2.101
95561SOL    HW288516   7.227   1.464   2.110
95562SOL     OW88517   6.305  11.432   6.015
95562SOL    HW188518   6.212  11.454   6.016
95562SOL    HW288519   6.327  11.425   5.922
95563SOL     OW88520   8.848   9.621  11.589
95563SOL    HW188521   8.781   9.619  11.520
95563SOL    HW288522   8.799   9.638  11.669
95564SOL     OW88523   6.105  13.273   2.669
95564SOL    HW188524   6.104  13.270   2.573
95564SOL    HW288525   6.022  13.233   2.696
95565SOL     OW88526   2.694   1.641   1.341
95565SOL    HW188527   2.617   1.690   1.312
95565SOL    HW288528   2.742   1.704   1.396
95566SOL     OW88529   6.092  13.989  13.318
95566SOL    HW188530   6.135  14.059  13.268
95566SOL    HW288531   6.005  13.981  13.279
95567SOL     OW88532   6.247   0.571   8.046
95567SOL    HW188533   6.293   0.488   8.051
95567SOL    HW288534   6.158   0.551   8.077
95568SOL     OW88535   2.348  14.024   8.053
95568SOL    HW188536   2.364  14.103   8.001
95568SOL    HW288537   2.428  14.012   8.104
95569SOL     OW88538  10.612  11.373   1.961
95569SOL    HW188539  10.599  11.293   2.012
95569SOL    HW288540  10.584  11.444   2.019
95570SOL     OW88541  14.059  13.442   5.888
95570SOL    HW188542  14.026  13.518   5.937
95570SOL    HW288543  14.032  13.459   5.797
95571SOL     OW88544   4.570  13.649   4.467
95571SOL    HW188545   4.541  13.567   4.506
95571SOL    HW288546   4.524  13.653   4.383
95572SOL     OW88547   3.891   6.184   1.990
95572SOL    HW188548   3.835   6.145   2.058
95572SOL    HW288549   3.887   6.122   1.917
95573SOL     OW88550  12.880   0.290   6.843
95573SOL    HW188551  12.817   0.357   6.870
95573SOL    HW288552  12.965   0.335   6.846
95574SOL     OW88553   0.699   2.166   3.667
95574SOL    HW188554   0.623   2.111   3.687
95574SOL    HW288555   0.772   2.105   3.662
95575SOL     OW88556   4.400   8.312  13.112
95575SOL    HW188557   4.444   8.271  13.187
95575SOL    HW288558   4.426   8.259  13.037
95576SOL     OW88559   4.277  13.135   4.212
95576SOL    HW188560   4.224  13.166   4.139
95576SOL    HW288561   4.345  13.201   4.223
95577SOL     OW88562  11.874   1.668  11.085
95577SOL    HW188563  11.914   1.750  11.058
95577SOL    HW288564  11.861   1.619  11.004
95578SOL     OW88565   5.587  14.706   3.725
95578SOL    HW188566   5.677  14.740   3.729
95578SOL    HW288567   5.594  14.625   3.675
95579SOL     OW88568   5.115  14.629   6.402
95579SOL    HW188569   5.205  14.655   6.421
95579SOL    HW288570   5.066  14.711   6.402
95580SOL     OW88571   0.777  10.188   7.673
95580SOL    HW188572   0.822  10.135   7.607
95580SOL    HW288573   0.723  10.126   7.721
95581SOL     OW88574  12.215   2.963  11.828
95581SOL    HW188575  12.162   2.962  11.908
95581SOL    HW288576  12.215   2.872  11.799
95582SOL     OW88577  14.767   4.552   9.238
95582SOL    HW188578  14.723   4.535   9.321
95582SOL    HW288579  14.697   4.585   9.180
95583SOL     OW88580   0.821   6.116   5.662
95583SOL    HW188581   0.777   6.105   5.746
95583SOL    HW288582   0.826   6.211   5.650
95584SOL     OW88583   5.794  13.039   6.383
95584SOL    HW188584   5.743  13.060   6.461
95584SOL    HW288585   5.730  13.036   6.312
95585SOL     OW88586   6.045  11.514  11.630
95585SOL    HW188587   5.964  11.562  11.652
95585SOL    HW288588   6.078  11.483  11.714
95586SOL     OW88589   3.023   9.983   2.203
95586SOL    HW188590   3.029  10.069   2.244
95586SOL    HW288591   2.971   9.931   2.263
95587SOL     OW88592   8.708   9.228   9.777
95587SOL    HW188593   8.616   9.254   9.763
95587SOL    HW288594   8.737   9.198   9.691
95588SOL     OW88595  10.240   2.946   3.241
95588SOL    HW188596  10.263   2.894   3.318
95588SOL    HW288597  10.178   2.891   3.193
95589SOL     OW88598  14.419  11.381  10.242
95589SOL    HW188599  14.436  11.307  10.300
95589SOL    HW288600  14.504  11.399  10.201
95590SOL     OW88601  11.806   9.869   8.556
95590SOL    HW188602  11.841   9.781   8.542
95590SOL    HW288603  11.861   9.907   8.625
95591SOL     OW88604  12.108   3.888  10.247
95591SOL    HW188605  12.028   3.911  10.294
95591SOL    HW288606  12.135   3.805  10.286
95592SOL     OW88607   0.207   3.474   2.437
95592SOL    HW188608   0.233   3.517   2.356
95592SOL    HW288609   0.126   3.517   2.463
95593SOL     OW88610   7.518  13.044   7.568
95593SOL    HW188611   7.528  13.064   7.661
95593SOL    HW288612   7.588  12.981   7.549
95594SOL     OW88613  10.315   3.781   2.494
95594SOL    HW188614  10.338   3.733   2.573
95594SOL    HW288615  10.225   3.811   2.509
95595SOL     OW88616  13.717   0.723  10.863
95595SOL    HW188617  13.699   0.777  10.787
95595SOL    HW288618  13.772   0.652  10.830
95596SOL     OW88619   9.768  11.471   9.631
95596SOL    HW188620   9.841  11.534   9.635
95596SOL    HW288621   9.700  11.509   9.687
95597SOL     OW88622   2.504   0.672   3.063
95597SOL    HW188623   2.539   0.750   3.021
95597SOL    HW288624   2.454   0.628   2.995
95598SOL     OW88625   2.422  10.128   4.268
95598SOL    HW188626   2.445  10.219   4.289
95598SOL    HW288627   2.506  10.086   4.250
95599SOL     OW88628   4.850  13.820  10.445
95599SOL    HW188629   4.864  13.874  10.367
95599SOL    HW288630   4.929  13.832  10.497
95600SOL     OW88631  10.714   6.367   8.894
95600SOL    HW188632  10.803   6.374   8.860
95600SOL    HW288633  10.667   6.441   8.855
95601SOL     OW88634   1.161  12.942  13.802
95601SOL    HW188635   1.166  13.000  13.725
95601SOL    HW288636   1.085  12.886  13.785
95602SOL     OW88637  10.102   7.983   4.835
95602SOL    HW188638  10.147   7.945   4.911
95602SOL    HW288639  10.013   7.950   4.841
95603SOL     OW88640  10.075   1.679   6.437
95603SOL    HW188641  10.141   1.671   6.506
95603SOL    HW288642  10.021   1.753   6.465
95604SOL     OW88643  12.669  13.235   3.281
95604SOL    HW188644  12.576  13.221   3.298
95604SOL    HW288645  12.711  13.153   3.304
95605SOL     OW88646   1.802   3.860   9.504
95605SOL    HW188647   1.734   3.841   9.570
95605SOL    HW288648   1.802   3.955   9.497
95606SOL     OW88649  11.229  10.824   3.234
95606SOL    HW188650  11.287  10.806   3.308
95606SOL    HW288651  11.251  10.913   3.207
95607SOL     OW88652  13.524   9.556   6.893
95607SOL    HW188653  13.485   9.511   6.967
95607SOL    HW288654  13.493   9.646   6.900
95608SOL     OW88655   5.039   3.072   1.909
95608SOL    HW188656   5.007   3.005   1.848
95608SOL    HW288657   4.968   3.082   1.972
95609SOL     OW88658   5.690   5.728  10.073
95609SOL    HW188659   5.766   5.732  10.014
95609SOL    HW288660   5.631   5.667  10.029
95610SOL     OW88661  12.593  10.138   9.747
95610SOL    HW188662  12.546  10.142   9.664
95610SOL    HW288663  12.555  10.063   9.793
95611SOL     OW88664  13.613   1.106   5.099
95611SOL    HW188665  13.658   1.059   5.169
95611SOL    HW288666  13.668   1.181   5.081
95612SOL     OW88667  11.758   4.735   2.508
95612SOL    HW188668  11.770   4.644   2.482
95612SOL    HW288669  11.671   4.736   2.550
95613SOL     OW88670  11.826   0.358   8.613
95613SOL    HW188671  11.752   0.332   8.667
95613SOL    HW288672  11.791   0.364   8.525
95614SOL     OW88673   0.545  10.072   5.282
95614SOL    HW188674   0.640  10.072   5.288
95614SOL    HW288675   0.521   9.979   5.281
95615SOL     OW88676   0.375  12.916   9.316
95615SOL    HW188677   0.392  12.968   9.395
95615SOL    HW288678   0.329  12.838   9.349
95616SOL     OW88679   7.005   7.811   1.860
95616SOL    HW188680   6.999   7.899   1.823
95616SOL    HW288681   6.918   7.774   1.849
95617SOL     OW88682   0.666  11.276   0.663
95617SOL    HW188683   0.593  11.250   0.608
95617SOL    HW288684   0.641  11.248   0.751
95618SOL     OW88685  13.067  10.008   8.931
95618SOL    HW188686  13.123  10.064   8.984
95618SOL    HW288687  12.989   9.994   8.985
95619SOL     OW88688   5.362   9.975   1.601
95619SOL    HW188689   5.302  10.040   1.636
95619SOL    HW288690   5.448  10.016   1.606
95620SOL     OW88691   7.905   5.106   3.778
95620SOL    HW188692   7.957   5.038   3.735
95620SOL    HW288693   7.955   5.187   3.764
95621SOL     OW88694   4.163   2.659  11.053
95621SOL    HW188695   4.197   2.681  11.140
95621SOL    HW288696   4.165   2.563  11.050
95622SOL     OW88697   2.629   0.954  13.311
95622SOL    HW188698   2.588   1.015  13.250
95622SOL    HW288699   2.609   0.990  13.398
95623SOL     OW88700   1.938  12.335   5.346
95623SOL    HW188701   1.883  12.301   5.276
95623SOL    HW288702   1.988  12.259   5.376
95624SOL     OW88703   0.921  12.375   8.554
95624SOL    HW188704   0.861  12.363   8.628
95624SOL    HW288705   0.959  12.461   8.568
95625SOL     OW88706   2.710   0.414  12.913
95625SOL    HW188707   2.791   0.440  12.869
95625SOL    HW288708   2.737   0.395  13.003
95626SOL     OW88709   2.093   5.674  10.542
95626SOL    HW188710   2.111   5.750  10.597
95626SOL    HW288711   2.111   5.599  10.599
95627SOL     OW88712   1.824   8.570   5.508
95627SOL    HW188713   1.906   8.534   5.542
95627SOL    HW288714   1.756   8.522   5.554
95628SOL     OW88715   5.734   9.659  12.964
95628SOL    HW188716   5.828   9.653  12.984
95628SOL    HW288717   5.691   9.612  13.035
95629SOL     OW88718   4.753   1.768   6.821
95629SOL    HW188719   4.842   1.757   6.790
95629SOL    HW288720   4.710   1.821   6.754
95630SOL     OW88721   7.368   9.060   3.191
95630SOL    HW188722   7.419   9.047   3.111
95630SOL    HW288723   7.386   9.151   3.216
95631SOL     OW88724   4.533   1.626   9.281
95631SOL    HW188725   4.607   1.685   9.264
95631SOL    HW288726   4.514   1.639   9.374
95632SOL     OW88727   4.486   9.143   1.141
95632SOL    HW188728   4.402   9.119   1.179
95632SOL    HW288729   4.475   9.234   1.113
95633SOL     OW88730   9.982   8.602  10.604
95633SOL    HW188731   9.912   8.652  10.562
95633SOL    HW288732   9.943   8.517  10.623
95634SOL     OW88733  14.214   6.925   7.079
95634SOL    HW188734  14.216   6.958   6.989
95634SOL    HW288735  14.269   6.847   7.077
95635SOL     OW88736   8.292   0.860   7.690
95635SOL    HW188737   8.352   0.804   7.641
95635SOL    HW288738   8.321   0.852   7.781
95636SOL     OW88739  12.502  10.593  11.794
95636SOL    HW188740  12.482  10.511  11.749
95636SOL    HW288741  12.443  10.594  11.869
95637SOL     OW88742  11.670  11.591   7.939
95637SOL    HW188743  11.582  11.586   7.903
95637SOL    HW288744  11.687  11.503   7.974
95638SOL     OW88745   6.460   4.613   0.273
95638SOL    HW188746   6.454   4.702   0.308
95638SOL    HW288747   6.481   4.559   0.349
95639SOL     OW88748  14.521  14.535   0.848
95639SOL    HW188749  14.484  14.622   0.850
95639SOL    HW288750  14.545  14.517   0.939
95640SOL     OW88751   2.558   8.499   1.546
95640SOL    HW188752   2.606   8.468   1.470
95640SOL    HW288753   2.483   8.439   1.553
95641SOL     OW88754   7.559  14.515   4.063
95641SOL    HW188755   7.480  14.566   4.083
95641SOL    HW288756   7.602  14.565   3.994
95642SOL     OW88757   4.553   5.100   8.407
95642SOL    HW188758   4.641   5.105   8.445
95642SOL    HW288759   4.516   5.019   8.442
95643SOL     OW88760  13.818   9.398   8.365
95643SOL    HW188761  13.779   9.312   8.381
95643SOL    HW288762  13.802   9.447   8.446
95644SOL     OW88763  13.158   2.854   2.486
95644SOL    HW188764  13.228   2.916   2.505
95644SOL    HW288765  13.193   2.800   2.414
95645SOL     OW88766   0.722   0.443   5.291
95645SOL    HW188767   0.707   0.363   5.242
95645SOL    HW288768   0.732   0.415   5.382
95646SOL     OW88769   2.319   1.962   5.449
95646SOL    HW188770   2.336   1.871   5.476
95646SOL    HW288771   2.255   1.954   5.378
95647SOL     OW88772   2.424   7.188   8.107
95647SOL    HW188773   2.454   7.106   8.146
95647SOL    HW288774   2.492   7.251   8.130
95648SOL     OW88775   8.100   5.613   1.792
95648SOL    HW188776   8.046   5.562   1.732
95648SOL    HW288777   8.147   5.547   1.844
95649SOL     OW88778  13.665   9.219  13.490
95649SOL    HW188779  13.709   9.299  13.462
95649SOL    HW288780  13.572   9.240  13.489
95650SOL     OW88781   9.177  14.816   0.157
95650SOL    HW188782   9.186  14.743   0.218
95650SOL    HW288783   9.124   0.009   0.205
95651SOL     OW88784   5.496  11.536   6.416
95651SOL    HW188785   5.494  11.530   6.321
95651SOL    HW288786   5.406  11.520   6.444
95652SOL     OW88787  11.282   1.176   9.857
95652SOL    HW188788  11.250   1.255   9.813
95652SOL    HW288789  11.255   1.104   9.800
95653SOL     OW88790  14.029   5.629  10.556
95653SOL    HW188791  14.055   5.700  10.614
95653SOL    HW288792  13.936   5.642  10.541
95654SOL     OW88793   0.923   5.816   4.265
95654SOL    HW188794   0.980   5.879   4.220
95654SOL    HW288795   0.976   5.736   4.272
95655SOL     OW88796   2.046   9.220   0.022
95655SOL    HW188797   1.996   9.264   0.091
95655SOL    HW288798   2.136   9.248   0.036
95656SOL     OW88799   5.426  10.588   6.335
95656SOL    HW188800   5.469  10.508   6.365
95656SOL    HW288801   5.345  10.557   6.294
95657SOL     OW88802  13.314  10.084   8.389
95657SOL    HW188803  13.261  10.118   8.461
95657SOL    HW288804  13.252  10.035   8.335
95658SOL     OW88805  14.464  10.973   2.659
95658SOL    HW188806  14.518  10.913   2.608
95658SOL    HW288807  14.525  11.014   2.721
95659SOL     OW88808   8.016   0.158  10.840
95659SOL    HW188809   8.065   0.148  10.758
95659SOL    HW288810   7.930   0.189  10.812
95660SOL     OW88811  11.873  13.954   8.417
95660SOL    HW188812  11.967  13.954   8.400
95660SOL    HW288813  11.866  13.968   8.512
95661SOL     OW88814   0.510   8.755  14.854
95661SOL    HW188815   0.434   8.697  14.866
95661SOL    HW288816   0.585   8.699   0.002
95662SOL     OW88817   4.915  12.868  13.272
95662SOL    HW188818   4.984  12.835  13.215
95662SOL    HW288819   4.958  12.881  13.357
95663SOL     OW88820   9.607   9.443   2.295
95663SOL    HW188821   9.600   9.390   2.215
95663SOL    HW288822   9.540   9.511   2.284
95664SOL     OW88823  13.956   3.944   3.160
95664SOL    HW188824  14.003   3.861   3.174
95664SOL    HW288825  13.864   3.917   3.148
95665SOL     OW88826   8.122   0.485   7.242
95665SOL    HW188827   8.117   0.571   7.200
95665SOL    HW288828   8.205   0.486   7.289
95666SOL     OW88829   6.816  13.032   7.051
95666SOL    HW188830   6.863  13.090   7.111
95666SOL    HW288831   6.791  13.089   6.978
95667SOL     OW88832   6.096   5.356   4.507
95667SOL    HW188833   6.033   5.312   4.451
95667SOL    HW288834   6.142   5.416   4.448
95668SOL     OW88835   8.492   4.602   1.036
95668SOL    HW188836   8.487   4.633   0.945
95668SOL    HW288837   8.431   4.528   1.039
95669SOL     OW88838   6.207   4.386   8.737
95669SOL    HW188839   6.200   4.329   8.814
95669SOL    HW288840   6.258   4.460   8.767
95670SOL     OW88841  13.075   3.827   9.506
95670SOL    HW188842  13.004   3.766   9.486
95670SOL    HW288843  13.032   3.912   9.515
95671SOL     OW88844   8.135   8.675   3.681
95671SOL    HW188845   8.087   8.754   3.705
95671SOL    HW288846   8.225   8.705   3.666
95672SOL     OW88847   6.570  13.943   6.726
95672SOL    HW188848   6.566  13.961   6.820
95672SOL    HW288849   6.607  14.023   6.688
95673SOL     OW88850   3.502   5.921   1.320
95673SOL    HW188851   3.589   5.928   1.358
95673SOL    HW288852   3.447   5.976   1.375
95674SOL     OW88853   6.631   9.654   4.364
95674SOL    HW188854   6.544   9.653   4.403
95674SOL    HW288855   6.642   9.567   4.325
95675SOL     OW88856   4.542   0.611   2.285
95675SOL    HW188857   4.511   0.692   2.245
95675SOL    HW288858   4.533   0.545   2.216
95676SOL     OW88859   7.778  13.521   2.634
95676SOL    HW188860   7.785  13.548   2.542
95676SOL    HW288861   7.814  13.595   2.684
95677SOL     OW88862   4.498  13.033   7.745
95677SOL    HW188863   4.445  13.112   7.731
95677SOL    HW288864   4.561  13.058   7.812
95678SOL     OW88865   9.494   7.345   2.254
95678SOL    HW188866   9.403   7.374   2.245
95678SOL    HW288867   9.544   7.426   2.267
95679SOL     OW88868   8.702   2.482  12.783
95679SOL    HW188869   8.652   2.562  12.768
95679SOL    HW288870   8.688   2.463  12.876
95680SOL     OW88871   9.564   9.138   3.021
95680SOL    HW188872   9.613   9.118   3.101
95680SOL    HW288873   9.563   9.055   2.972
95681SOL     OW88874  13.662   2.270   3.957
95681SOL    HW188875  13.597   2.256   3.887
95681SOL    HW288876  13.745   2.245   3.917
95682SOL     OW88877  11.640   3.708   5.557
95682SOL    HW188878  11.546   3.725   5.562
95682SOL    HW288879  11.662   3.668   5.641
95683SOL     OW88880   4.641  11.566   3.346
95683SOL    HW188881   4.692  11.489   3.371
95683SOL    HW288882   4.617  11.550   3.254
95684SOL     OW88883  13.332  10.532   9.289
95684SOL    HW188884  13.302  10.609   9.338
95684SOL    HW288885  13.334  10.461   9.354
95685SOL     OW88886   0.611  11.541   5.504
95685SOL    HW188887   0.614  11.625   5.458
95685SOL    HW288888   0.530  11.500   5.475
95686SOL     OW88889  12.706  10.448   3.821
95686SOL    HW188890  12.743  10.474   3.905
95686SOL    HW288891  12.656  10.524   3.791
95687SOL     OW88892   0.831   1.062  10.028
95687SOL    HW188893   0.861   1.093   9.942
95687SOL    HW288894   0.737   1.047  10.015
95688SOL     OW88895   2.114   4.847   2.697
95688SOL    HW188896   2.068   4.792   2.633
95688SOL    HW288897   2.109   4.797   2.779
95689SOL     OW88898   6.586   4.062   9.723
95689SOL    HW188899   6.492   4.043   9.717
95689SOL    HW288900   6.602   4.073   9.817
95690SOL     OW88901  11.039   9.213   4.932
95690SOL    HW188902  11.122   9.238   4.891
95690SOL    HW288903  11.005   9.295   4.968
95691SOL     OW88904   8.741  11.190  11.326
95691SOL    HW188905   8.779  11.104  11.309
95691SOL    HW288906   8.815  11.251  11.319
95692SOL     OW88907   1.054   3.090  12.332
95692SOL    HW188908   1.117   3.152  12.369
95692SOL    HW288909   0.974   3.105  12.382
95693SOL     OW88910  13.855  14.123   4.698
95693SOL    HW188911  13.880  14.089   4.612
95693SOL    HW288912  13.795  14.195   4.678
95694SOL     OW88913   0.415   9.408  13.819
95694SOL    HW188914   0.395   9.324  13.779
95694SOL    HW288915   0.331   9.442  13.848
95695SOL     OW88916  11.054  14.583   5.357
95695SOL    HW188917  10.971  14.549   5.325
95695SOL    HW288918  11.093  14.511   5.406
95696SOL     OW88919   1.444   6.339   9.967
95696SOL    HW188920   1.387   6.414   9.948
95696SOL    HW288921   1.532   6.376   9.971
95697SOL     OW88922   0.624   4.544  13.657
95697SOL    HW188923   0.674   4.466  13.635
95697SOL    HW288924   0.538   4.511  13.683
95698SOL     OW88925   0.626   9.112   2.857
95698SOL    HW188926   0.653   9.171   2.928
95698SOL    HW288927   0.706   9.097   2.807
95699SOL     OW88928  12.151  11.468   8.149
95699SOL    HW188929  12.120  11.397   8.206
95699SOL    HW288930  12.083  11.477   8.083
95700SOL     OW88931  14.627   9.480   5.130
95700SOL    HW188932  14.613   9.390   5.099
95700SOL    HW288933  14.644   9.530   5.051
95701SOL     OW88934  13.936   5.566   6.712
95701SOL    HW188935  13.958   5.491   6.767
95701SOL    HW288936  13.870   5.614   6.764
95702SOL     OW88937   5.117   1.530   9.712
95702SOL    HW188938   5.182   1.600   9.716
95702SOL    HW288939   5.169   1.449   9.708
95703SOL     OW88940   7.055  11.313   2.934
95703SOL    HW188941   7.032  11.390   2.985
95703SOL    HW288942   7.081  11.347   2.849
95704SOL     OW88943   1.670   8.341   4.182
95704SOL    HW188944   1.642   8.420   4.229
95704SOL    HW288945   1.589   8.306   4.144
95705SOL     OW88946   8.265  13.878   0.318
95705SOL    HW188947   8.187  13.822   0.314
95705SOL    HW288948   8.230  13.967   0.314
95706SOL     OW88949   6.683  11.423  14.380
95706SOL    HW188950   6.627  11.349  14.358
95706SOL    HW288951   6.704  11.465  14.296
95707SOL     OW88952   6.772   7.514   8.411
95707SOL    HW188953   6.842   7.579   8.423
95707SOL    HW288954   6.816   7.437   8.375
95708SOL     OW88955   8.297  13.143  10.952
95708SOL    HW188956   8.219  13.163  10.900
95708SOL    HW288957   8.268  13.154  11.043
95709SOL     OW88958   7.460   0.770   6.376
95709SOL    HW188959   7.531   0.705   6.373
95709SOL    HW288960   7.486   0.831   6.445
95710SOL     OW88961   7.977   2.363   6.527
95710SOL    HW188962   7.912   2.304   6.565
95710SOL    HW288963   8.061   2.327   6.556
95711SOL     OW88964   5.557   6.821   7.436
95711SOL    HW188965   5.589   6.771   7.361
95711SOL    HW288966   5.489   6.765   7.474
95712SOL     OW88967  14.584   9.116   7.948
95712SOL    HW188968  14.538   9.104   8.031
95712SOL    HW288969  14.549   9.048   7.891
95713SOL     OW88970  11.270   1.265   6.821
95713SOL    HW188971  11.340   1.252   6.885
95713SOL    HW288972  11.194   1.220   6.859
95714SOL     OW88973  13.121   1.782   3.554
95714SOL    HW188974  13.059   1.726   3.600
95714SOL    HW288975  13.196   1.788   3.613
95715SOL     OW88976   8.547   5.211  10.870
95715SOL    HW188977   8.625   5.259  10.897
95715SOL    HW288978   8.567   5.181  10.781
95716SOL     OW88979  13.024  11.227  14.115
95716SOL    HW188980  12.933  11.198  14.109
95716SOL    HW288981  13.040  11.274  14.032
95717SOL     OW88982   4.804   4.449   6.531
95717SOL    HW188983   4.876   4.402   6.487
95717SOL    HW288984   4.839   4.537   6.545
95718SOL     OW88985   1.501   1.920   1.611
95718SOL    HW188986   1.585   1.890   1.575
95718SOL    HW288987   1.439   1.909   1.539
95719SOL     OW88988   0.221   3.563   1.548
95719SOL    HW188989   0.245   3.483   1.501
95719SOL    HW288990   0.128   3.574   1.531
95720SOL     OW88991   8.773   5.219   2.260
95720SOL    HW188992   8.766   5.274   2.182
95720SOL    HW288993   8.724   5.267   2.327
95721SOL     OW88994   5.807   6.337  13.309
95721SOL    HW188995   5.716   6.368  13.307
95721SOL    HW288996   5.801   6.247  13.339
95722SOL     OW88997   2.779  13.563   8.978
95722SOL    HW188998   2.740  13.477   8.960
95722SOL    HW288999   2.739  13.622   8.914
95723SOL     OW89000   7.891   0.230   5.283
95723SOL    HW189001   7.917   0.182   5.362
95723SOL    HW289002   7.823   0.177   5.243
95724SOL     OW89003   2.405   5.830  10.778
95724SOL    HW189004   2.317   5.848  10.746
95724SOL    HW289005   2.405   5.736  10.798
95725SOL     OW89006   2.871   3.715   8.911
95725SOL    HW189007   2.913   3.658   8.975
95725SOL    HW289008   2.944   3.755   8.864
95726SOL     OW89009   8.314  10.528   7.073
95726SOL    HW189010   8.229  10.548   7.112
95726SOL    HW289011   8.294  10.502   6.984
95727SOL     OW89012  12.009   0.533   5.533
95727SOL    HW189013  12.056   0.495   5.459
95727SOL    HW289014  11.925   0.562   5.496
95728SOL     OW89015  11.425   8.740  12.761
95728SOL    HW189016  11.358   8.751  12.828
95728SOL    HW289017  11.508   8.754  12.807
95729SOL     OW89018   5.934   3.367  13.869
95729SOL    HW189019   5.949   3.356  13.962
95729SOL    HW289020   5.872   3.298  13.846
95730SOL     OW89021   7.748  14.466   7.709
95730SOL    HW189022   7.837  14.435   7.690
95730SOL    HW289023   7.692  14.391   7.692
95731SOL     OW89024   4.673   4.883  12.844
95731SOL    HW189025   4.700   4.949  12.909
95731SOL    HW289026   4.674   4.801  12.892
95732SOL     OW89027   6.793   4.813   2.048
95732SOL    HW189028   6.736   4.759   1.994
95732SOL    HW289029   6.743   4.892   2.066
95733SOL     OW89030   8.754  13.752  11.908
95733SOL    HW189031   8.784  13.841  11.926
95733SOL    HW289032   8.682  13.738  11.968
95734SOL     OW89033   6.364  11.419   5.760
95734SOL    HW189034   6.354  11.344   5.701
95734SOL    HW289035   6.459  11.431   5.767
95735SOL     OW89036   1.131   9.659   5.867
95735SOL    HW189037   1.107   9.690   5.955
95735SOL    HW289038   1.047   9.639   5.825
95736SOL     OW89039   2.225   9.795   6.639
95736SOL    HW189040   2.259   9.712   6.674
95736SOL    HW289041   2.199   9.845   6.717
95737SOL     OW89042  14.506  12.095   0.122
95737SOL    HW189043  14.504  12.156   0.196
95737SOL    HW289044  14.597  12.098   0.091
95738SOL     OW89045   1.392   3.885  10.978
95738SOL    HW189046   1.481   3.876  10.945
95738SOL    HW289047   1.344   3.813  10.936
95739SOL     OW89048   7.672   1.896   3.684
95739SOL    HW189049   7.595   1.849   3.718
95739SOL    HW289050   7.688   1.857   3.598
95740SOL     OW89051  13.544  12.873   1.113
95740SOL    HW189052  13.566  12.782   1.090
95740SOL    HW289053  13.620  12.904   1.162
95741SOL     OW89054   2.825   6.521  11.542
95741SOL    HW189055   2.781   6.605  11.555
95741SOL    HW289056   2.788   6.463  11.607
95742SOL     OW89057   8.785  14.022   7.701
95742SOL    HW189058   8.696  14.005   7.671
95742SOL    HW289059   8.794  13.970   7.781
95743SOL     OW89060  11.827   5.272  11.009
95743SOL    HW189061  11.851   5.255  10.918
95743SOL    HW289062  11.747   5.220  11.023
95744SOL     OW89063  14.222   7.376   3.821
95744SOL    HW189064  14.273   7.312   3.771
95744SOL    HW289065  14.165   7.417   3.756
95745SOL     OW89066   1.208  13.397   9.000
95745SOL    HW189067   1.209  13.486   8.966
95745SOL    HW289068   1.292  13.360   8.975
95746SOL     OW89069   7.267   3.341  12.246
95746SOL    HW189070   7.258   3.435  12.259
95746SOL    HW289071   7.193   3.317  12.192
95747SOL     OW89072   8.614   0.310  13.258
95747SOL    HW189073   8.664   0.392  13.269
95747SOL    HW289074   8.646   0.275  13.175
95748SOL     OW89075   9.712   6.639   4.154
95748SOL    HW189076   9.682   6.718   4.110
95748SOL    HW289077   9.658   6.569   4.117
95749SOL     OW89078   6.030   7.088   3.299
95749SOL    HW189079   6.085   7.162   3.273
95749SOL    HW289080   5.993   7.114   3.383
95750SOL     OW89081   5.947  14.789  12.938
95750SOL    HW189082   5.862  14.833  12.948
95750SOL    HW289083   6.011  14.858  12.955
95751SOL     OW89084   4.797   6.868   0.135
95751SOL    HW189085   4.788   6.894   0.044
95751SOL    HW289086   4.753   6.938   0.184
95752SOL     OW89087  12.073   6.415   4.630
95752SOL    HW189088  12.100   6.356   4.700
95752SOL    HW289089  12.073   6.361   4.552
95753SOL     OW89090   7.226   0.988   3.031
95753SOL    HW189091   7.258   0.903   3.003
95753SOL    HW289092   7.233   1.044   2.953
95754SOL     OW89093   5.098  12.812  12.345
95754SOL    HW189094   5.125  12.758  12.270
95754SOL    HW289095   5.180  12.845  12.381
95755SOL     OW89096   4.024  10.680   4.225
95755SOL    HW189097   4.058  10.680   4.136
95755SOL    HW289098   3.999  10.589   4.242
95756SOL     OW89099   1.969  10.729  10.920
95756SOL    HW189100   1.935  10.802  10.868
95756SOL    HW289101   1.978  10.657  10.857
95757SOL     OW89102   9.585   2.940   7.596
95757SOL    HW189103   9.602   2.976   7.683
95757SOL    HW289104   9.577   3.017   7.539
95758SOL     OW89105  13.412   8.458   2.446
95758SOL    HW189106  13.488   8.411   2.411
95758SOL    HW289107  13.427   8.462   2.540
95759SOL     OW89108   5.629  12.407  11.976
95759SOL    HW189109   5.552  12.366  11.938
95759SOL    HW289110   5.699  12.391  11.913
95760SOL     OW89111  13.061   9.443  13.347
95760SOL    HW189112  13.036   9.356  13.317
95760SOL    HW289113  13.013   9.503  13.289
95761SOL     OW89114   5.953  10.549   4.162
95761SOL    HW189115   5.947  10.566   4.256
95761SOL    HW289116   6.045  10.525   4.148
95762SOL     OW89117   2.760   8.292   2.165
95762SOL    HW189118   2.838   8.336   2.198
95762SOL    HW289119   2.793   8.210   2.128
95763SOL     OW89120   7.884   2.225   0.456
95763SOL    HW189121   7.884   2.141   0.503
95763SOL    HW289122   7.812   2.218   0.395
95764SOL     OW89123   7.203   7.682   8.207
95764SOL    HW189124   7.168   7.688   8.118
95764SOL    HW289125   7.214   7.588   8.222
95765SOL     OW89126   7.079   2.346   1.320
95765SOL    HW189127   7.074   2.361   1.414
95765SOL    HW289128   7.075   2.251   1.311
95766SOL     OW89129  10.834   4.841   8.479
95766SOL    HW189130  10.739   4.838   8.488
95766SOL    HW289131  10.860   4.919   8.527
95767SOL     OW89132  14.753  13.100   4.566
95767SOL    HW189133  14.669  13.059   4.588
95767SOL    HW289134  14.732  13.164   4.498
95768SOL     OW89135  13.726  14.807   2.604
95768SOL    HW189136  13.692  14.751   2.673
95768SOL    HW289137  13.722   0.023   2.641
95769SOL     OW89138   9.126   4.866   2.998
95769SOL    HW189139   9.084   4.798   2.945
95769SOL    HW289140   9.183   4.818   3.059
95770SOL     OW89141   2.008   5.459  10.068
95770SOL    HW189142   2.085   5.427  10.115
95770SOL    HW289143   1.958   5.380  10.049
95771SOL     OW89144  13.791   4.879  12.755
95771SOL    HW189145  13.795   4.888  12.851
95771SOL    HW289146  13.882   4.874  12.727
95772SOL     OW89147   2.069   0.435   8.222
95772SOL    HW189148   1.995   0.383   8.256
95772SOL    HW289149   2.027   0.510   8.179
95773SOL     OW89150  10.425   2.127  10.065
95773SOL    HW189151  10.370   2.180  10.007
95773SOL    HW289152  10.486   2.083  10.007
95774SOL     OW89153   1.914   0.963   1.324
95774SOL    HW189154   1.909   0.924   1.236
95774SOL    HW289155   1.965   1.043   1.313
95775SOL     OW89156   7.922   0.296  10.206
95775SOL    HW189157   7.919   0.338  10.292
95775SOL    HW289158   7.849   0.334  10.158
95776SOL     OW89159   6.032   1.522  13.336
95776SOL    HW189160   6.062   1.450  13.280
95776SOL    HW289161   6.113   1.562  13.369
95777SOL     OW89162   2.272   1.421   6.160
95777SOL    HW189163   2.271   1.398   6.253
95777SOL    HW289164   2.281   1.516   6.159
95778SOL     OW89165   9.246   7.976   1.935
95778SOL    HW189166   9.172   8.020   1.977
95778SOL    HW289167   9.297   8.047   1.896
95779SOL     OW89168   8.852   3.009   7.367
95779SOL    HW189169   8.816   3.086   7.411
95779SOL    HW289170   8.789   2.939   7.384
95780SOL     OW89171  12.290   6.447  10.490
95780SOL    HW189172  12.219   6.442  10.553
95780SOL    HW289173  12.341   6.367  10.504
95781SOL     OW89174  11.971   9.533   8.221
95781SOL    HW189175  11.978   9.440   8.199
95781SOL    HW289176  11.878   9.554   8.209
95782SOL     OW89177  14.134   7.345  13.340
95782SOL    HW189178  14.130   7.380  13.429
95782SOL    HW289179  14.191   7.269  13.347
95783SOL     OW89180   1.063   4.226  11.106
95783SOL    HW189181   1.139   4.280  11.087
95783SOL    HW289182   0.988   4.282  11.089
95784SOL     OW89183  12.685   9.717   6.896
95784SOL    HW189184  12.595   9.728   6.866
95784SOL    HW289185  12.688   9.761   6.981
95785SOL     OW89186  10.768   3.999  14.278
95785SOL    HW189187  10.824   4.038  14.211
95785SOL    HW289188  10.683   3.990  14.235
95786SOL     OW89189   4.837  10.836   0.906
95786SOL    HW189190   4.903  10.858   0.840
95786SOL    HW289191   4.754  10.862   0.867
95787SOL     OW89192   2.722  14.869  13.771
95787SOL    HW189193   2.664  14.856  13.696
95787SOL    HW289194   2.666   0.033  13.839
95788SOL     OW89195  14.496   3.760   9.240
95788SOL    HW189196  14.425   3.735   9.181
95788SOL    HW289197  14.550   3.681   9.247
95789SOL     OW89198   0.735  13.433   6.223
95789SOL    HW189199   0.766  13.523   6.210
95789SOL    HW289200   0.656  13.426   6.169
95790SOL     OW89201  12.904   4.647  13.119
95790SOL    HW189202  12.821   4.626  13.162
95790SOL    HW289203  12.879   4.676  13.032
95791SOL     OW89204   5.694   5.531  12.527
95791SOL    HW189205   5.783   5.525  12.562
95791SOL    HW289206   5.698   5.602  12.463
95792SOL     OW89207   6.375  10.517   4.241
95792SOL    HW189208   6.468  10.526   4.224
95792SOL    HW289209   6.354  10.588   4.303
95793SOL     OW89210   8.417  14.649   0.398
95793SOL    HW189211   8.360  14.575   0.376
95793SOL    HW289212   8.483  14.612   0.457
95794SOL     OW89213   3.691  12.415   4.901
95794SOL    HW189214   3.694  12.468   4.822
95794SOL    HW289215   3.768  12.358   4.895
95795SOL     OW89216   0.673   1.990  11.937
95795SOL    HW189217   0.658   1.904  11.977
95795SOL    HW289218   0.612   1.993  11.864
95796SOL     OW89219   9.342   3.460   6.994
95796SOL    HW189220   9.360   3.377   6.951
95796SOL    HW289221   9.337   3.438   7.087
95797SOL     OW89222   1.869   0.642   7.423
95797SOL    HW189223   1.797   0.703   7.435
95797SOL    HW289224   1.860   0.611   7.333
95798SOL     OW89225   1.859  14.049   5.035
95798SOL    HW189226   1.806  14.033   4.957
95798SOL    HW289227   1.902  14.133   5.018
95799SOL     OW89228   3.993   3.933   0.874
95799SOL    HW189229   4.040   3.905   0.953
95799SOL    HW289230   3.986   3.853   0.821
95800SOL     OW89231   7.713  11.330   3.227
95800SOL    HW189232   7.712  11.282   3.310
95800SOL    HW289233   7.802  11.317   3.193
95801SOL     OW89234   3.447   0.194   4.714
95801SOL    HW189235   3.374   0.181   4.774
95801SOL    HW289236   3.439   0.286   4.687
95802SOL     OW89237   7.468   9.447   2.370
95802SOL    HW189238   7.549   9.456   2.421
95802SOL    HW289239   7.433   9.536   2.367
95803SOL     OW89240   2.768  10.070   7.268
95803SOL    HW189241   2.841  10.126   7.295
95803SOL    HW289242   2.690  10.124   7.282
95804SOL     OW89243   8.475  11.424   6.588
95804SOL    HW189244   8.517  11.509   6.593
95804SOL    HW289245   8.514  11.373   6.659
95805SOL     OW89246   4.813  12.320  10.812
95805SOL    HW189247   4.890  12.319  10.756
95805SOL    HW289248   4.846  12.343  10.899
95806SOL     OW89249  13.355   5.340  14.777
95806SOL    HW189250  13.324   5.411  14.833
95806SOL    HW289251  13.340   5.260  14.828
95807SOL     OW89252   0.334   3.784   5.170
95807SOL    HW189253   0.320   3.833   5.089
95807SOL    HW289254   0.263   3.719   5.171
95808SOL     OW89255   4.707  13.673   9.256
95808SOL    HW189256   4.646  13.722   9.312
95808SOL    HW289257   4.792  13.687   9.297
95809SOL     OW89258   6.732   8.696   1.522
95809SOL    HW189259   6.662   8.631   1.521
95809SOL    HW289260   6.756   8.704   1.615
95810SOL     OW89261   2.061   4.795   9.242
95810SOL    HW189262   1.970   4.826   9.249
95810SOL    HW289263   2.107   4.866   9.197
95811SOL     OW89264  12.638  14.026   0.913
95811SOL    HW189265  12.703  14.073   0.965
95811SOL    HW289266  12.582  13.984   0.977
95812SOL     OW89267   0.308  12.511   3.966
95812SOL    HW189268   0.216  12.492   3.983
95812SOL    HW289269   0.329  12.584   4.024
95813SOL     OW89270   4.670  11.004   4.137
95813SOL    HW189271   4.732  11.060   4.090
95813SOL    HW289272   4.629  10.952   4.068
95814SOL     OW89273  13.018   9.896  11.509
95814SOL    HW189274  13.072   9.845  11.449
95814SOL    HW289275  13.077   9.960  11.548
95815SOL     OW89276  11.753   9.180   4.767
95815SOL    HW189277  11.668   9.225   4.775
95815SOL    HW289278  11.731   9.094   4.731
95816SOL     OW89279  14.425  10.289   7.311
95816SOL    HW189280  14.461  10.376   7.332
95816SOL    HW289281  14.441  10.238   7.391
95817SOL     OW89282  10.150  12.838   6.904
95817SOL    HW189283  10.119  12.772   6.965
95817SOL    HW289284  10.245  12.839   6.915
95818SOL     OW89285   4.533  13.031   1.428
95818SOL    HW189286   4.603  13.020   1.493
95818SOL    HW289287   4.495  13.116   1.449
95819SOL     OW89288  13.976  10.587   9.327
95819SOL    HW189289  13.927  10.655   9.373
95819SOL    HW289290  14.006  10.528   9.396
95820SOL     OW89291   8.361   2.037  12.189
95820SOL    HW189292   8.348   1.975  12.262
95820SOL    HW289293   8.431   2.095  12.220
95821SOL     OW89294   0.615  13.371   8.077
95821SOL    HW189295   0.678  13.340   8.142
95821SOL    HW289296   0.655  13.449   8.039
95822SOL     OW89297   2.007  12.110  14.648
95822SOL    HW189298   2.019  12.146  14.560
95822SOL    HW289299   1.965  12.180  14.698
95823SOL     OW89300   4.306   8.812  14.074
95823SOL    HW189301   4.394   8.817  14.111
95823SOL    HW289302   4.312   8.864  13.994
95824SOL     OW89303  10.192   2.308   6.745
95824SOL    HW189304  10.126   2.314   6.814
95824SOL    HW289305  10.236   2.393   6.747
95825SOL     OW89306  11.679   7.296  12.957
95825SOL    HW189307  11.623   7.286  13.034
95825SOL    HW289308  11.640   7.368  12.908
95826SOL     OW89309   7.667   3.115   5.952
95826SOL    HW189310   7.690   3.123   6.045
95826SOL    HW289311   7.658   3.021   5.938
95827SOL     OW89312   9.405  11.556   5.090
95827SOL    HW189313   9.329  11.577   5.144
95827SOL    HW289314   9.371  11.553   5.001
95828SOL     OW89315   0.884   0.430  10.616
95828SOL    HW189316   0.929   0.346  10.605
95828SOL    HW289317   0.953   0.493  10.634
95829SOL     OW89318   6.718   6.066   4.299
95829SOL    HW189319   6.697   6.097   4.211
95829SOL    HW289320   6.655   6.110   4.356
95830SOL     OW89321  13.345   7.998   7.327
95830SOL    HW189322  13.423   8.052   7.310
95830SOL    HW289323  13.301   7.992   7.242
95831SOL     OW89324   5.950   5.172  10.427
95831SOL    HW189325   5.935   5.098  10.486
95831SOL    HW289326   6.025   5.218  10.465
95832SOL     OW89327   9.547   3.848   3.328
95832SOL    HW189328   9.623   3.890   3.290
95832SOL    HW289329   9.583   3.778   3.382
95833SOL     OW89330   2.799   9.271   1.008
95833SOL    HW189331   2.830   9.315   1.088
95833SOL    HW289332   2.824   9.179   1.021
95834SOL     OW89333   9.555  12.118   2.437
95834SOL    HW189334   9.502  12.081   2.507
95834SOL    HW289335   9.636  12.068   2.438
95835SOL     OW89336   1.259   4.291   2.569
95835SOL    HW189337   1.294   4.380   2.567
95835SOL    HW289338   1.336   4.235   2.571
95836SOL     OW89339   6.214   6.075   2.059
95836SOL    HW189340   6.235   6.059   1.967
95836SOL    HW289341   6.208   6.170   2.067
95837SOL     OW89342   0.676   2.910   7.025
95837SOL    HW189343   0.740   2.862   6.973
95837SOL    HW289344   0.594   2.903   6.976
95838SOL     OW89345   4.159   9.094   4.066
95838SOL    HW189346   4.155   9.008   4.108
95838SOL    HW289347   4.076   9.135   4.088
95839SOL     OW89348   0.285  12.345  12.339
95839SOL    HW189349   0.334  12.422  12.369
95839SOL    HW289350   0.209  12.382  12.294
95840SOL     OW89351   0.218   3.989   1.694
95840SOL    HW189352   0.146   3.999   1.756
95840SOL    HW289353   0.257   3.905   1.717
95841SOL     OW89354   3.817  14.380   5.986
95841SOL    HW189355   3.727  14.354   5.966
95841SOL    HW289356   3.865  14.365   5.904
95842SOL     OW89357   4.647   7.596  13.941
95842SOL    HW189358   4.626   7.589  14.034
95842SOL    HW289359   4.640   7.689  13.922
95843SOL     OW89360   1.217   7.188   7.884
95843SOL    HW189361   1.177   7.105   7.910
95843SOL    HW289362   1.306   7.184   7.920
95844SOL     OW89363   3.634   9.972   4.339
95844SOL    HW189364   3.707   9.921   4.304
95844SOL    HW289365   3.668  10.061   4.345
95845SOL     OW89366   6.066  12.045   4.743
95845SOL    HW189367   6.023  12.093   4.813
95845SOL    HW289368   6.000  12.040   4.673
95846SOL     OW89369   9.966   1.952  13.666
95846SOL    HW189370  10.025   2.017  13.704
95846SOL    HW289371  10.019   1.873  13.659
95847SOL     OW89372   5.587   0.208  11.391
95847SOL    HW189373   5.595   0.254  11.307
95847SOL    HW289374   5.652   0.138  11.386
95848SOL     OW89375   6.054   4.199  12.303
95848SOL    HW189376   5.964   4.217  12.329
95848SOL    HW289377   6.079   4.122  12.353
95849SOL     OW89378   8.357   1.747   2.576
95849SOL    HW189379   8.298   1.813   2.541
95849SOL    HW289380   8.310   1.709   2.650
95850SOL     OW89381  14.456  10.826   6.560
95850SOL    HW189382  14.484  10.863   6.477
95850SOL    HW289383  14.361  10.820   6.553
95851SOL     OW89384   0.148   8.882   8.807
95851SOL    HW189385   0.188   8.814   8.861
95851SOL    HW289386   0.054   8.862   8.810
95852SOL     OW89387  12.689   2.056   4.566
95852SOL    HW189388  12.721   2.056   4.476
95852SOL    HW289389  12.605   2.009   4.562
95853SOL     OW89390   4.751  11.186  11.974
95853SOL    HW189391   4.746  11.142  12.059
95853SOL    HW289392   4.753  11.279  11.994
95854SOL     OW89393  12.291   9.553  13.287
95854SOL    HW189394  12.323   9.612  13.355
95854SOL    HW289395  12.241   9.486  13.334
95855SOL     OW89396   6.222  13.776  11.824
95855SOL    HW189397   6.303  13.746  11.783
95855SOL    HW289398   6.248  13.804  11.912
95856SOL     OW89399  13.064   7.377  10.434
95856SOL    HW189400  12.970   7.377  10.450
95856SOL    HW289401  13.076   7.319  10.359
95857SOL     OW89402   0.407   0.782   1.278
95857SOL    HW189403   0.443   0.746   1.359
95857SOL    HW289404   0.480   0.777   1.215
95858SOL     OW89405  14.107  11.792   7.561
95858SOL    HW189406  14.186  11.746   7.533
95858SOL    HW289407  14.035  11.734   7.535
95859SOL     OW89408   2.582   9.441   5.642
95859SOL    HW189409   2.604   9.353   5.612
95859SOL    HW289410   2.522   9.428   5.715
95860SOL     OW89411   0.031   3.813  11.705
95860SOL    HW189412   0.025   3.724  11.738
95860SOL    HW289413   0.099   3.854  11.759
95861SOL     OW89414   9.692   7.763   5.077
95861SOL    HW189415   9.678   7.848   5.118
95861SOL    HW289416   9.627   7.760   5.006
95862SOL     OW89417   6.187  13.761   7.870
95862SOL    HW189418   6.210  13.772   7.962
95862SOL    HW289419   6.268  13.777   7.823
95863SOL     OW89420  14.853   1.488  12.797
95863SOL    HW189421   0.040   1.414  12.783
95863SOL    HW289422  14.782   1.452  12.850
95864SOL     OW89423   9.513   7.904  14.556
95864SOL    HW189424   9.590   7.852  14.534
95864SOL    HW289425   9.474   7.928  14.471
95865SOL     OW89426   1.352   1.304   0.224
95865SOL    HW189427   1.425   1.365   0.238
95865SOL    HW289428   1.311   1.335   0.143
95866SOL     OW89429   5.455   1.645   2.710
95866SOL    HW189430   5.398   1.649   2.787
95866SOL    HW289431   5.536   1.606   2.743
95867SOL     OW89432   0.324  11.870  11.133
95867SOL    HW189433   0.361  11.833  11.214
95867SOL    HW289434   0.389  11.849  11.066
95868SOL     OW89435   6.299   2.494   1.910
95868SOL    HW189436   6.291   2.402   1.882
95868SOL    HW289437   6.367   2.530   1.854
95869SOL     OW89438   6.307   4.468  10.154
95869SOL    HW189439   6.333   4.536  10.092
95869SOL    HW289440   6.378   4.403  10.150
95870SOL     OW89441   9.679  11.128   5.717
95870SOL    HW189442   9.596  11.139   5.670
95870SOL    HW289443   9.737  11.194   5.678
95871SOL     OW89444   7.981   7.510  11.163
95871SOL    HW189445   7.917   7.442  11.138
95871SOL    HW289446   8.052   7.499  11.100
95872SOL     OW89447   6.920   5.924  10.349
95872SOL    HW189448   6.861   5.947  10.277
95872SOL    HW289449   6.991   5.875  10.307
95873SOL     OW89450   1.798   4.763  12.751
95873SOL    HW189451   1.783   4.769  12.846
95873SOL    HW289452   1.751   4.684  12.725
95874SOL     OW89453  13.020   9.271   7.436
95874SOL    HW189454  12.965   9.301   7.364
95874SOL    HW289455  12.958   9.233   7.498
95875SOL     OW89456  14.657   2.496   9.244
95875SOL    HW189457  14.685   2.531   9.159
95875SOL    HW289458  14.635   2.404   9.226
95876SOL     OW89459  14.432   6.642  11.181
95876SOL    HW189460  14.484   6.656  11.102
95876SOL    HW289461  14.455   6.553  11.209
95877SOL     OW89462   3.801   1.540   3.634
95877SOL    HW189463   3.889   1.578   3.642
95877SOL    HW289464   3.798   1.473   3.703
95878SOL     OW89465  11.709  10.838  13.964
95878SOL    HW189466  11.619  10.865  13.982
95878SOL    HW289467  11.708  10.743  13.975
95879SOL     OW89468   5.859   9.152  14.269
95879SOL    HW189469   5.766   9.145  14.290
95879SOL    HW289470   5.901   9.173  14.352
95880SOL     OW89471   9.230  13.118  12.526
95880SOL    HW189472   9.217  13.114  12.431
95880SOL    HW289473   9.212  13.209  12.549
95881SOL     OW89474   5.789  14.780   8.689
95881SOL    HW189475   5.875  14.756   8.722
95881SOL    HW289476   5.760  14.703   8.640
95882SOL     OW89477   4.537   6.174  13.912
95882SOL    HW189478   4.574   6.249  13.865
95882SOL    HW289479   4.565   6.187  14.002
95883SOL     OW89480   4.060   3.613  10.354
95883SOL    HW189481   4.106   3.690  10.321
95883SOL    HW289482   4.126   3.544  10.357
95884SOL     OW89483   9.818   3.408   5.267
95884SOL    HW189484   9.832   3.481   5.326
95884SOL    HW289485   9.744   3.360   5.305
95885SOL     OW89486   1.266   1.447   4.857
95885SOL    HW189487   1.346   1.499   4.847
95885SOL    HW289488   1.255   1.440   4.952
95886SOL     OW89489   6.574   2.568   2.809
95886SOL    HW189490   6.523   2.571   2.890
95886SOL    HW289491   6.525   2.624   2.748
95887SOL     OW89492   5.260   8.458   3.331
95887SOL    HW189493   5.259   8.504   3.247
95887SOL    HW289494   5.352   8.455   3.356
95888SOL     OW89495   7.508   2.366   5.679
95888SOL    HW189496   7.470   2.428   5.740
95888SOL    HW289497   7.580   2.414   5.637
95889SOL     OW89498   0.087   9.012  13.931
95889SOL    HW189499   0.179   8.990  13.918
95889SOL    HW289500   0.087   9.071  14.006
95890SOL     OW89501   9.177   2.971   0.154
95890SOL    HW189502   9.183   2.879   0.126
95890SOL    HW289503   9.096   2.975   0.205
95891SOL     OW89504  11.431  13.060  11.750
95891SOL    HW189505  11.477  13.005  11.813
95891SOL    HW289506  11.373  13.000  11.704
95892SOL     OW89507   9.674  11.115   2.156
95892SOL    HW189508   9.671  11.027   2.118
95892SOL    HW289509   9.756  11.152   2.123
95893SOL     OW89510   8.194   1.764   8.078
95893SOL    HW189511   8.193   1.696   8.010
95893SOL    HW289512   8.279   1.754   8.120
95894SOL     OW89513   8.039   5.208   2.564
95894SOL    HW189514   7.989   5.182   2.487
95894SOL    HW289515   8.128   5.178   2.547
95895SOL     OW89516   0.995  11.037   3.570
95895SOL    HW189517   1.064  11.085   3.617
95895SOL    HW289518   1.004  10.946   3.598
95896SOL     OW89519  14.043   0.008   2.293
95896SOL    HW189520  13.973  14.814   2.299
95896SOL    HW289521  14.024   0.069   2.364
95897SOL     OW89522   0.176   0.128   0.699
95897SOL    HW189523   0.233   0.119   0.776
95897SOL    HW289524   0.095   0.084   0.724
95898SOL     OW89525   7.775  10.331   1.893
95898SOL    HW189526   7.835  10.298   1.960
95898SOL    HW289527   7.688  10.323   1.932
95899SOL     OW89528  11.016  12.291   6.370
95899SOL    HW189529  11.001  12.351   6.297
95899SOL    HW289530  11.055  12.213   6.329
95900SOL     OW89531   0.148  11.991  14.835
95900SOL    HW189532   0.109  12.079  14.838
95900SOL    HW289533   0.237  12.003  14.868
95901SOL     OW89534   5.218  10.703   3.903
95901SOL    HW189535   5.276  10.701   3.827
95901SOL    HW289536   5.264  10.654   3.971
95902SOL     OW89537   5.890   6.599   8.088
95902SOL    HW189538   5.836   6.663   8.041
95902SOL    HW289539   5.865   6.610   8.179
95903SOL     OW89540  10.221   1.743  11.242
95903SOL    HW189541  10.186   1.690  11.313
95903SOL    HW289542  10.182   1.830  11.255
95904SOL     OW89543   0.601  11.330   2.882
95904SOL    HW189544   0.685  11.285   2.881
95904SOL    HW289545   0.601  11.384   2.803
95905SOL     OW89546   6.420   8.819   9.081
95905SOL    HW189547   6.368   8.746   9.048
95905SOL    HW289548   6.464   8.784   9.158
95906SOL     OW89549  14.579   9.458  10.293
95906SOL    HW189550  14.662   9.434  10.334
95906SOL    HW289551  14.556   9.382  10.240
95907SOL     OW89552  13.161   6.692   3.802
95907SOL    HW189553  13.087   6.749   3.821
95907SOL    HW289554  13.208   6.686   3.886
95908SOL     OW89555   5.913  10.466   9.088
95908SOL    HW189556   5.861  10.459   9.169
95908SOL    HW289557   5.945  10.377   9.074
95909SOL     OW89558   9.693   5.701   2.157
95909SOL    HW189559   9.605   5.665   2.147
95909SOL    HW289560   9.685   5.792   2.129
95910SOL     OW89561   4.853  14.696   9.342
95910SOL    HW189562   4.857  14.615   9.392
95910SOL    HW289563   4.800  14.674   9.265
95911SOL     OW89564   8.684   5.079  13.724
95911SOL    HW189565   8.716   5.150  13.780
95911SOL    HW289566   8.661   5.122  13.642
95912SOL     OW89567  12.177  11.155   3.446
95912SOL    HW189568  12.099  11.159   3.391
95912SOL    HW289569  12.181  11.065   3.477
95913SOL     OW89570  14.774   7.014   4.394
95913SOL    HW189571  14.865   6.998   4.369
95913SOL    HW289572  14.773   7.003   4.489
95914SOL     OW89573   7.464  11.012   0.336
95914SOL    HW189574   7.482  10.921   0.362
95914SOL    HW289575   7.486  11.064   0.413
95915SOL     OW89576   6.046  11.154   1.820
95915SOL    HW189577   5.964  11.109   1.802
95915SOL    HW289578   6.103  11.131   1.747
95916SOL     OW89579   5.277   9.944   5.195
95916SOL    HW189580   5.253  10.000   5.121
95916SOL    HW289581   5.202   9.884   5.205
95917SOL     OW89582  13.845  12.190  13.017
95917SOL    HW189583  13.832  12.112  13.070
95917SOL    HW289584  13.852  12.158  12.927
95918SOL     OW89585  10.800   8.029  12.205
95918SOL    HW189586  10.872   8.087  12.181
95918SOL    HW289587  10.840   7.941  12.204
95919SOL     OW89588   9.401   7.689   8.438
95919SOL    HW189589   9.431   7.662   8.525
95919SOL    HW289590   9.396   7.785   8.444
95920SOL     OW89591  14.860   5.565  11.452
95920SOL    HW189592   0.025   5.646  11.488
95920SOL    HW289593   0.006   5.571  11.358
95921SOL     OW89594  10.956  10.601  13.392
95921SOL    HW189595  10.964  10.560  13.478
95921SOL    HW289596  10.901  10.678  13.406
95922SOL     OW89597   2.914   7.115  11.244
95922SOL    HW189598   2.971   7.059  11.191
95922SOL    HW289599   2.876   7.176  11.180
95923SOL     OW89600   2.479   1.860   1.316
95923SOL    HW189601   2.531   1.930   1.355
95923SOL    HW289602   2.454   1.893   1.230
95924SOL     OW89603   3.247   1.648   6.563
95924SOL    HW189604   3.163   1.638   6.608
95924SOL    HW289605   3.228   1.624   6.472
95925SOL     OW89606  14.842  10.175  13.448
95925SOL    HW189607  14.755  10.136  13.444
95925SOL    HW289608   0.029  10.100  13.449
95926SOL     OW89609  11.757   6.877  11.178
95926SOL    HW189610  11.678   6.868  11.125
95926SOL    HW289611  11.759   6.969  11.203
95927SOL     OW89612   0.287   5.384  12.453
95927SOL    HW189613   0.311   5.476  12.438
95927SOL    HW289614   0.371   5.341  12.471
95928SOL     OW89615   1.773   4.950  14.163
95928SOL    HW189616   1.830   4.944  14.239
95928SOL    HW289617   1.686   4.928  14.196
95929SOL     OW89618  11.265   0.366   6.928
95929SOL    HW189619  11.242   0.283   6.971
95929SOL    HW289620  11.247   0.433   6.994
95930SOL     OW89621   2.307  13.029  14.158
95930SOL    HW189622   2.382  13.057  14.211
95930SOL    HW289623   2.343  13.018  14.070
95931SOL     OW89624   0.332   3.618   6.785
95931SOL    HW189625   0.371   3.536   6.754
95931SOL    HW289626   0.238   3.604   6.775
95932SOL     OW89627   5.554   7.833   6.311
95932SOL    HW189628   5.489   7.779   6.266
95932SOL    HW289629   5.512   7.858   6.393
95933SOL     OW89630  12.151   6.407  10.723
95933SOL    HW189631  12.062   6.439  10.737
95933SOL    HW289632  12.208   6.476  10.758
95934SOL     OW89633   4.472  10.910   7.898
95934SOL    HW189634   4.556  10.921   7.852
95934SOL    HW289635   4.460  10.993   7.945
95935SOL     OW89636   3.145   2.307  13.649
95935SOL    HW189637   3.092   2.386  13.644
95935SOL    HW289638   3.232   2.334  13.621
95936SOL     OW89639  14.109   9.483  12.645
95936SOL    HW189640  14.087   9.571  12.675
95936SOL    HW289641  14.197   9.468  12.678
95937SOL     OW89642   5.654   7.050   7.891
95937SOL    HW189643   5.644   7.021   7.800
95937SOL    HW289644   5.584   7.005   7.938
95938SOL     OW89645   9.608  11.352  12.320
95938SOL    HW189646   9.614  11.436  12.364
95938SOL    HW289647   9.639  11.289  12.385
95939SOL     OW89648   0.081   6.843   3.735
95939SOL    HW189649   0.103   6.818   3.825
95939SOL    HW289650  14.860   6.864   3.739
95940SOL     OW89651   0.472   8.450   5.941
95940SOL    HW189652   0.467   8.475   5.849
95940SOL    HW289653   0.458   8.532   5.989
95941SOL     OW89654   9.427   2.524  13.698
95941SOL    HW189655   9.424   2.517  13.793
95941SOL    HW289656   9.364   2.459  13.666
95942SOL     OW89657   9.743   5.154  10.487
95942SOL    HW189658   9.699   5.214  10.427
95942SOL    HW289659   9.722   5.187  10.574
95943SOL     OW89660   7.644   9.502   6.275
95943SOL    HW189661   7.558   9.493   6.315
95943SOL    HW289662   7.702   9.530   6.346
95944SOL     OW89663   3.987  12.965   0.724
95944SOL    HW189664   4.010  13.048   0.765
95944SOL    HW289665   3.983  12.902   0.796
95945SOL     OW89666   2.188   3.605   7.686
95945SOL    HW189667   2.231   3.541   7.742
95945SOL    HW289668   2.110   3.632   7.735
95946SOL     OW89669  12.642   1.061   1.845
95946SOL    HW189670  12.736   1.072   1.832
95946SOL    HW289671  12.634   1.026   1.934
95947SOL     OW89672   1.681   5.924   0.326
95947SOL    HW189673   1.683   5.840   0.372
95947SOL    HW289674   1.773   5.944   0.309
95948SOL     OW89675   2.942   9.762   3.959
95948SOL    HW189676   2.928   9.753   3.864
95948SOL    HW289677   2.895   9.688   3.997
95949SOL     OW89678   2.694  11.997  10.054
95949SOL    HW189679   2.604  12.026  10.042
95949SOL    HW289680   2.747  12.077  10.049
95950SOL     OW89681  13.135   2.061   5.456
95950SOL    HW189682  13.139   1.970   5.428
95950SOL    HW289683  13.220   2.076   5.499
95951SOL     OW89684  14.328   0.325   7.792
95951SOL    HW189685  14.254   0.305   7.850
95951SOL    HW289686  14.392   0.367   7.848
95952SOL     OW89687  12.596   3.710   3.191
95952SOL    HW189688  12.682   3.752   3.194
95952SOL    HW289689  12.591   3.673   3.103
95953SOL     OW89690   3.778   5.576   5.683
95953SOL    HW189691   3.712   5.643   5.668
95953SOL    HW289692   3.859   5.626   5.700
95954SOL     OW89693   5.127   9.640   0.688
95954SOL    HW189694   5.199   9.667   0.744
95954SOL    HW289695   5.163   9.642   0.599
95955SOL     OW89696  14.318   7.178   1.929
95955SOL    HW189697  14.369   7.141   2.001
95955SOL    HW289698  14.271   7.104   1.892
95956SOL     OW89699   9.389   4.932   2.952
95956SOL    HW189700   9.387   4.900   2.862
95956SOL    HW289701   9.297   4.941   2.977
95957SOL     OW89702  14.680  11.647  13.994
95957SOL    HW189703  14.658  11.708  14.065
95957SOL    HW289704  14.608  11.584  13.994
95958SOL     OW89705   4.838   7.494   5.562
95958SOL    HW189706   4.818   7.577   5.519
95958SOL    HW289707   4.755   7.448   5.567
95959SOL     OW89708  11.441   5.214   7.846
95959SOL    HW189709  11.419   5.233   7.938
95959SOL    HW289710  11.368   5.162   7.814
95960SOL     OW89711   1.283   6.115   8.974
95960SOL    HW189712   1.323   6.183   8.921
95960SOL    HW289713   1.337   6.111   9.053
95961SOL     OW89714   7.644  14.598   9.212
95961SOL    HW189715   7.605  14.526   9.261
95961SOL    HW289716   7.574  14.663   9.206
95962SOL     OW89717  10.024   2.926   7.780
95962SOL    HW189718  10.063   2.839   7.778
95962SOL    HW289719   9.931   2.912   7.764
95963SOL     OW89720  14.781   7.090   6.264
95963SOL    HW189721  14.758   7.182   6.271
95963SOL    HW289722  14.710   7.044   6.309
95964SOL     OW89723   8.755  14.380   4.612
95964SOL    HW189724   8.736  14.412   4.700
95964SOL    HW289725   8.699  14.302   4.603
95965SOL     OW89726  10.410   6.218   9.728
95965SOL    HW189727  10.318   6.218   9.699
95965SOL    HW289728  10.453   6.280   9.669
95966SOL     OW89729  10.475  12.467  10.892
95966SOL    HW189730  10.421  12.396  10.929
95966SOL    HW289731  10.560  12.426  10.875
95967SOL     OW89732   2.321   0.293   1.629
95967SOL    HW189733   2.234   0.264   1.600
95967SOL    HW289734   2.355   0.344   1.556
95968SOL     OW89735   1.995  10.622  14.371
95968SOL    HW189736   2.047  10.589  14.445
95968SOL    HW289737   2.002  10.553  14.304
95969SOL     OW89738  14.635   5.323   0.128
95969SOL    HW189739  14.698   5.272   0.077
95969SOL    HW289740  14.603   5.390   0.067
95970SOL     OW89741   3.064  10.403   0.013
95970SOL    HW189742   3.089  10.475   0.072
95970SOL    HW289743   3.115  10.419  14.806
95971SOL     OW89744   5.372   5.917   7.686
95971SOL    HW189745   5.360   5.946   7.776
95971SOL    HW289746   5.287   5.882   7.660
95972SOL     OW89747  14.675  13.439   2.329
95972SOL    HW189748  14.681  13.382   2.253
95972SOL    HW289749  14.725  13.517   2.305
95973SOL     OW89750   2.866   9.900   2.974
95973SOL    HW189751   2.881   9.854   2.892
95973SOL    HW289752   2.945   9.952   2.987
95974SOL     OW89753  10.599   7.875  10.332
95974SOL    HW189754  10.566   7.821  10.402
95974SOL    HW289755  10.642   7.814  10.272
95975SOL     OW89756   3.047  13.190   9.202
95975SOL    HW189757   3.002  13.121   9.250
95975SOL    HW289758   3.099  13.235   9.269
95976SOL     OW89759   5.627   7.824   3.087
95976SOL    HW189760   5.639   7.731   3.104
95976SOL    HW289761   5.557   7.851   3.147
95977SOL     OW89762   6.193   5.104   4.605
95977SOL    HW189763   6.178   5.197   4.618
95977SOL    HW289764   6.261   5.100   4.537
95978SOL     OW89765   6.087  12.738  11.376
95978SOL    HW189766   6.018  12.695  11.426
95978SOL    HW289767   6.128  12.798  11.438
95979SOL     OW89768  12.794  13.529  12.726
95979SOL    HW189769  12.855  13.516  12.653
95979SOL    HW289770  12.779  13.623  12.729
95980SOL     OW89771   7.812   1.449   6.919
95980SOL    HW189772   7.789   1.524   6.974
95980SOL    HW289773   7.868   1.395   6.975
95981SOL     OW89774   6.511   0.974   7.474
95981SOL    HW189775   6.491   0.917   7.548
95981SOL    HW289776   6.484   1.061   7.502
95982SOL     OW89777   0.155  10.717   5.922
95982SOL    HW189778   0.178  10.636   5.968
95982SOL    HW289779   0.083  10.692   5.864
95983SOL     OW89780   3.884   4.762  14.738
95983SOL    HW189781   3.915   4.738  14.825
95983SOL    HW289782   3.892   4.857  14.735
95984SOL     OW89783   1.364   9.187   3.642
95984SOL    HW189784   1.446   9.230   3.617
95984SOL    HW289785   1.329   9.152   3.560
95985SOL     OW89786   1.168   6.757   9.362
95985SOL    HW189787   1.185   6.784   9.271
95985SOL    HW289788   1.208   6.826   9.415
95986SOL     OW89789   1.602   0.180  14.710
95986SOL    HW189790   1.668   0.155  14.646
95986SOL    HW289791   1.587   0.273  14.694
95987SOL     OW89792   0.677   2.982   9.999
95987SOL    HW189793   0.659   3.070   9.967
95987SOL    HW289794   0.689   2.992  10.093
95988SOL     OW89795   3.208   2.189   0.172
95988SOL    HW189796   3.143   2.120   0.185
95988SOL    HW289797   3.287   2.143   0.145
95989SOL     OW89798   8.913   6.072   0.953
95989SOL    HW189799   8.868   6.133   1.011
95989SOL    HW289800   8.846   6.007   0.931
95990SOL     OW89801   9.174   3.367   5.306
95990SOL    HW189802   9.157   3.308   5.233
95990SOL    HW289803   9.253   3.415   5.279
95991SOL     OW89804   6.023   9.308   4.577
95991SOL    HW189805   6.096   9.250   4.555
95991SOL    HW289806   6.005   9.289   4.669
95992SOL     OW89807   4.151  11.117  10.987
95992SOL    HW189808   4.188  11.184  10.929
95992SOL    HW289809   4.069  11.092  10.945
95993SOL     OW89810  12.947   9.861   5.119
95993SOL    HW189811  13.013   9.901   5.062
95993SOL    HW289812  12.899   9.935   5.156
95994SOL     OW89813  10.818  13.707   4.330
95994SOL    HW189814  10.816  13.784   4.273
95994SOL    HW289815  10.866  13.734   4.407
95995SOL     OW89816  12.171   5.075  10.087
95995SOL    HW189817  12.190   4.992  10.044
95995SOL    HW289818  12.208   5.141  10.028
95996SOL     OW89819   8.517   0.135   6.478
95996SOL    HW189820   8.520   0.040   6.476
95996SOL    HW289821   8.534   0.158   6.570
95997SOL     OW89822  10.621   9.962   2.171
95997SOL    HW189823  10.574   9.934   2.249
95997SOL    HW289824  10.554  10.005   2.117
95998SOL     OW89825   3.927   2.206   1.213
95998SOL    HW189826   3.846   2.183   1.258
95998SOL    HW289827   3.946   2.295   1.244
95999SOL     OW89828   1.039   0.967   2.978
95999SOL    HW189829   1.086   1.048   2.961
95999SOL    HW289830   1.027   0.927   2.892
96000SOL     OW89831   6.723   6.662   1.480
96000SOL    HW189832   6.651   6.617   1.525
96000SOL    HW289833   6.767   6.710   1.549
96001SOL     OW89834   8.573   2.638  11.356
96001SOL    HW189835   8.542   2.587  11.431
96001SOL    HW289836   8.609   2.572  11.296
96002SOL     OW89837  14.668  13.270   4.379
96002SOL    HW189838  14.658  13.363   4.401
96002SOL    HW289839  14.587  13.249   4.331
96003SOL     OW89840   0.829   5.968   4.034
96003SOL    HW189841   0.818   5.911   4.111
96003SOL    HW289842   0.895   6.031   4.060
96004SOL     OW89843   0.554  14.237   6.712
96004SOL    HW189844   0.600  14.168   6.664
96004SOL    HW289845   0.611  14.313   6.707
96005SOL     OW89846  13.032  11.334   6.637
96005SOL    HW189847  12.960  11.346   6.699
96005SOL    HW289848  12.992  11.289   6.562
96006SOL     OW89849   6.160   2.754   7.923
96006SOL    HW189850   6.067   2.745   7.905
96006SOL    HW289851   6.174   2.704   8.004
96007SOL     OW89852  12.791   4.334   3.737
96007SOL    HW189853  12.803   4.428   3.743
96007SOL    HW289854  12.878   4.300   3.713
96008SOL     OW89855  10.016  14.734   3.885
96008SOL    HW189856   9.964  14.664   3.845
96008SOL    HW289857  10.022  14.801   3.817
96009SOL     OW89858  12.216  12.718   2.822
96009SOL    HW189859  12.178  12.667   2.751
96009SOL    HW289860  12.143  12.733   2.883
96010SOL     OW89861   9.354   7.148   8.378
96010SOL    HW189862   9.338   7.223   8.436
96010SOL    HW289863   9.396   7.187   8.301
96011SOL     OW89864  11.300  13.422   5.701
96011SOL    HW189865  11.293  13.436   5.796
96011SOL    HW289866  11.210  13.407   5.673
96012SOL     OW89867  14.320   7.045  12.271
96012SOL    HW189868  14.328   6.954  12.242
96012SOL    HW289869  14.411   7.074  12.283
96013SOL     OW89870   0.430   2.341   9.889
96013SOL    HW189871   0.354   2.310   9.938
96013SOL    HW289872   0.403   2.425   9.852
96014SOL     OW89873  13.357   1.554   7.624
96014SOL    HW189874  13.368   1.460   7.641
96014SOL    HW289875  13.269   1.574   7.654
96015SOL     OW89876   1.866   2.383   9.862
96015SOL    HW189877   1.859   2.460   9.918
96015SOL    HW289878   1.861   2.417   9.773
96016SOL     OW89879   8.959  12.323  10.447
96016SOL    HW189880   8.943  12.229  10.459
96016SOL    HW289881   9.055  12.331  10.442
96017SOL     OW89882   2.078   6.955  11.655
96017SOL    HW189883   2.029   6.996  11.584
96017SOL    HW289884   2.023   6.882  11.683
96018SOL     OW89885  13.298  11.344  14.146
96018SOL    HW189886  13.208  11.311  14.148
96018SOL    HW289887  13.336  11.304  14.068
96019SOL     OW89888  14.339   6.718   2.363
96019SOL    HW189889  14.264   6.660   2.380
96019SOL    HW289890  14.301   6.805   2.352
96020SOL     OW89891  13.194   7.170  10.277
96020SOL    HW189892  13.184   7.152  10.184
96020SOL    HW289893  13.281   7.210  10.285
96021SOL     OW89894   2.654   1.745  10.257
96021SOL    HW189895   2.613   1.768  10.174
96021SOL    HW289896   2.634   1.652  10.269
96022SOL     OW89897   9.818   2.926   0.492
96022SOL    HW189898   9.910   2.911   0.468
96022SOL    HW289899   9.812   3.021   0.506
96023SOL     OW89900  11.981  13.815   7.025
96023SOL    HW189901  11.997  13.722   7.039
96023SOL    HW289902  11.962  13.850   7.112
96024SOL     OW89903   9.515   9.231   0.366
96024SOL    HW189904   9.553   9.187   0.290
96024SOL    HW289905   9.449   9.170   0.399
96025SOL     OW89906   6.377  14.722  14.406
96025SOL    HW189907   6.452  14.761  14.450
96025SOL    HW289908   6.303  14.741  14.464
96026SOL     OW89909   7.259  10.421   0.477
96026SOL    HW189910   7.288  10.511   0.491
96026SOL    HW289911   7.338  10.368   0.488
96027SOL     OW89912  12.927   7.784  14.605
96027SOL    HW189913  12.864   7.788  14.677
96027SOL    HW289914  12.971   7.700  14.615
96028SOL     OW89915  11.450  10.198  13.769
96028SOL    HW189916  11.387  10.159  13.830
96028SOL    HW289917  11.489  10.123  13.724
96029SOL     OW89918  12.101   7.442  11.032
96029SOL    HW189919  12.043   7.406  11.099
96029SOL    HW289920  12.111   7.371  10.968
96030SOL     OW89921   9.997   3.619  11.706
96030SOL    HW189922   9.919   3.610  11.652
96030SOL    HW289923   9.992   3.708  11.741
96031SOL     OW89924  10.189   1.135   8.056
96031SOL    HW189925  10.212   1.154   7.965
96031SOL    HW289926  10.097   1.108   8.052
96032SOL     OW89927   3.650  11.923  12.786
96032SOL    HW189928   3.720  11.858  12.795
96032SOL    HW289929   3.578  11.874  12.747
96033SOL     OW89930   4.513   6.933   4.873
96033SOL    HW189931   4.452   6.871   4.913
96033SOL    HW289932   4.561   6.880   4.809
96034SOL     OW89933  12.432  10.449   2.251
96034SOL    HW189934  12.467  10.415   2.334
96034SOL    HW289935  12.358  10.504   2.277
96035SOL     OW89936   3.021   4.458   4.563
96035SOL    HW189937   2.970   4.423   4.636
96035SOL    HW289938   3.073   4.384   4.532
96036SOL     OW89939  10.578   0.822   9.501
96036SOL    HW189940  10.491   0.863   9.501
96036SOL    HW289941  10.638   0.896   9.507
96037SOL     OW89942   6.856   0.302   4.932
96037SOL    HW189943   6.880   0.300   4.839
96037SOL    HW289944   6.841   0.210   4.954
96038SOL     OW89945   3.810   8.412   9.870
96038SOL    HW189946   3.836   8.355   9.943
96038SOL    HW289947   3.761   8.483   9.912
96039SOL     OW89948  14.717   8.714  14.385
96039SOL    HW189949  14.747   8.734  14.297
96039SOL    HW289950  14.777   8.761  14.443
96040SOL     OW89951   1.505   7.717   2.520
96040SOL    HW189952   1.434   7.772   2.553
96040SOL    HW289953   1.502   7.729   2.425
96041SOL     OW89954   5.397  14.706  11.902
96041SOL    HW189955   5.461  14.666  11.961
96041SOL    HW289956   5.408  14.659  11.819
96042SOL     OW89957  10.150   5.924  11.727
96042SOL    HW189958  10.242   5.946  11.715
96042SOL    HW289959  10.150   5.841  11.774
96043SOL     OW89960   0.692  14.027  11.790
96043SOL    HW189961   0.773  14.071  11.814
96043SOL    HW289962   0.625  14.067  11.846
96044SOL     OW89963   7.857  11.038   1.948
96044SOL    HW189964   7.862  10.959   2.002
96044SOL    HW289965   7.763  11.060   1.947
96045SOL     OW89966  14.051  13.100  12.401
96045SOL    HW189967  14.136  13.142  12.412
96045SOL    HW289968  14.071  13.009  12.381
96046SOL     OW89969   0.871  14.247   7.423
96046SOL    HW189970   0.853  14.174   7.482
96046SOL    HW289971   0.808  14.236   7.352
96047SOL     OW89972  13.525   8.613   6.821
96047SOL    HW189973  13.505   8.520   6.831
96047SOL    HW289974  13.446   8.658   6.853
96048SOL     OW89975   9.768   7.040  10.049
96048SOL    HW189976   9.752   7.023  10.141
96048SOL    HW289977   9.719   7.121  10.030
96049SOL     OW89978   6.626  14.770   9.530
96049SOL    HW189979   6.635  14.675   9.537
96049SOL    HW289980   6.584  14.797   9.612
96050SOL     OW89981   1.758   7.785   8.897
96050SOL    HW189982   1.672   7.828   8.899
96050SOL    HW289983   1.740   7.696   8.868
96051SOL     OW89984  12.235   7.502   4.172
96051SOL    HW189985  12.236   7.452   4.254
96051SOL    HW289986  12.181   7.578   4.191
96052SOL     OW89987   7.218   5.990   7.405
96052SOL    HW189988   7.262   6.074   7.392
96052SOL    HW289989   7.248   5.961   7.491
96053SOL     OW89990   4.226   1.427  11.557
96053SOL    HW189991   4.216   1.517  11.588
96053SOL    HW289992   4.144   1.384  11.583
96054SOL     OW89993   5.106   5.726   2.258
96054SOL    HW189994   5.042   5.678   2.206
96054SOL    HW289995   5.189   5.709   2.215
96055SOL     OW89996   8.907  13.501   4.493
96055SOL    HW189997   8.957  13.574   4.530
96055SOL    HW289998   8.862  13.539   4.417
96056SOL     OW89999   4.637   7.316  13.912
96056SOL    HW190000   4.638   7.412  13.915
96056SOL    HW290001   4.573   7.290  13.977
96057SOL     OW90002  11.416   6.411   7.065
96057SOL    HW190003  11.494   6.375   7.107
96057SOL    HW290004  11.353   6.422   7.137
96058SOL     OW90005   9.669   7.655   1.488
96058SOL    HW190006   9.756   7.644   1.527
96058SOL    HW290007   9.686   7.676   1.396
96059SOL     OW90008  12.261  10.531   3.967
96059SOL    HW190009  12.310  10.551   3.887
96059SOL    HW290010  12.172  10.512   3.937
96060SOL     OW90011  13.693  10.484   1.370
96060SOL    HW190012  13.686  10.456   1.278
96060SOL    HW290013  13.604  10.507   1.395
96061SOL     OW90014   7.772  12.964   2.557
96061SOL    HW190015   7.832  13.018   2.504
96061SOL    HW290016   7.759  12.885   2.504
96062SOL     OW90017   2.167   8.950   8.820
96062SOL    HW190018   2.184   8.856   8.830
96062SOL    HW290019   2.185   8.967   8.728
96063SOL     OW90020  14.332  13.054   1.321
96063SOL    HW190021  14.366  13.112   1.254
96063SOL    HW290022  14.237  13.058   1.310
96064SOL     OW90023   7.974   0.535   6.902
96064SOL    HW190024   7.912   0.555   6.972
96064SOL    HW290025   8.031   0.466   6.938
96065SOL     OW90026   3.688   6.902  11.478
96065SOL    HW190027   3.754   6.861  11.534
96065SOL    HW290028   3.615   6.840  11.478
96066SOL     OW90029  12.653  13.334   0.259
96066SOL    HW190030  12.623  13.264   0.318
96066SOL    HW290031  12.660  13.292   0.173
96067SOL     OW90032  12.916   4.322   7.320
96067SOL    HW190033  12.948   4.387   7.382
96067SOL    HW290034  12.824   4.346   7.305
96068SOL     OW90035   4.953  11.728  12.839
96068SOL    HW190036   4.973  11.808  12.887
96068SOL    HW290037   5.038  11.690  12.818
96069SOL     OW90038  14.188   4.746   6.215
96069SOL    HW190039  14.194   4.669   6.159
96069SOL    HW290040  14.199   4.820   6.156
96070SOL     OW90041   1.150  13.046   1.494
96070SOL    HW190042   1.203  13.123   1.512
96070SOL    HW290043   1.210  12.972   1.502
96071SOL     OW90044  14.220   2.815   4.968
96071SOL    HW190045  14.181   2.798   5.054
96071SOL    HW290046  14.146   2.825   4.909
96072SOL     OW90047  13.602   2.111   4.188
96072SOL    HW190048  13.618   2.150   4.102
96072SOL    HW290049  13.581   2.020   4.169
96073SOL     OW90050  14.767   9.453   2.942
96073SOL    HW190051  14.796   9.540   2.916
96073SOL    HW290052  14.713   9.423   2.869
96074SOL     OW90053   4.993   9.219   2.105
96074SOL    HW190054   5.040   9.302   2.120
96074SOL    HW290055   4.931   9.239   2.035
96075SOL     OW90056   5.349  12.187   9.039
96075SOL    HW190057   5.373  12.132   9.114
96075SOL    HW290058   5.256  12.205   9.051
96076SOL     OW90059   8.544  14.523   3.309
96076SOL    HW190060   8.567  14.486   3.394
96076SOL    HW290061   8.448  14.523   3.308
96077SOL     OW90062   3.561   1.062  10.647
96077SOL    HW190063   3.653   1.078  10.626
96077SOL    HW290064   3.548   1.106  10.731
96078SOL     OW90065   5.091   3.740  11.688
96078SOL    HW190066   5.014   3.796  11.673
96078SOL    HW290067   5.154   3.769  11.622
96079SOL     OW90068   6.595   3.376   5.172
96079SOL    HW190069   6.554   3.293   5.194
96079SOL    HW290070   6.646   3.358   5.093
96080SOL     OW90071   2.632   7.924  11.789
96080SOL    HW190072   2.640   7.829  11.797
96080SOL    HW290073   2.717   7.958  11.818
96081SOL     OW90074   2.586  10.916  14.563
96081SOL    HW190075   2.624  11.004  14.562
96081SOL    HW290076   2.610  10.879  14.478
96082SOL     OW90077  13.371   1.183   4.946
96082SOL    HW190078  13.434   1.149   5.009
96082SOL    HW290079  13.416   1.180   4.862
96083SOL     OW90080   6.337   4.672   4.885
96083SOL    HW190081   6.291   4.733   4.828
96083SOL    HW290082   6.409   4.723   4.922
96084SOL     OW90083   2.858   1.555   1.124
96084SOL    HW190084   2.795   1.600   1.180
96084SOL    HW290085   2.869   1.469   1.164
96085SOL     OW90086   0.072   4.989  14.020
96085SOL    HW190087   0.164   4.963  14.026
96085SOL    HW290088   0.041   4.989  14.110
96086SOL     OW90089  14.623   8.129  14.617
96086SOL    HW190090  14.701   8.152  14.667
96086SOL    HW290091  14.605   8.038  14.641
96087SOL     OW90092   1.982   5.653  11.679
96087SOL    HW190093   2.021   5.731  11.639
96087SOL    HW290094   1.983   5.672  11.773
96088SOL     OW90095   7.141  13.061   5.149
96088SOL    HW190096   7.229  13.097   5.145
96088SOL    HW290097   7.147  12.984   5.205
96089SOL     OW90098  13.069   2.325   0.894
96089SOL    HW190099  13.019   2.397   0.855
96089SOL    HW290100  13.157   2.360   0.906
96090SOL     OW90101   6.012   7.589  14.157
96090SOL    HW190102   5.945   7.543  14.106
96090SOL    HW290103   6.034   7.666  14.105
96091SOL     OW90104   3.296   1.782  11.811
96091SOL    HW190105   3.347   1.862  11.822
96091SOL    HW290106   3.276   1.754  11.900
96092SOL     OW90107   6.220  14.105   9.137
96092SOL    HW190108   6.309  14.070   9.133
96092SOL    HW290109   6.210  14.135   9.228
96093SOL     OW90110  12.976  11.859   1.959
96093SOL    HW190111  13.036  11.856   2.033
96093SOL    HW290112  13.020  11.809   1.890
96094SOL     OW90113   4.628   0.098   8.623
96094SOL    HW190114   4.690   0.029   8.646
96094SOL    HW290115   4.616   0.089   8.529
96095SOL     OW90116  11.218   0.136  10.426
96095SOL    HW190117  11.184   0.182  10.502
96095SOL    HW290118  11.177   0.179  10.351
96096SOL     OW90119  14.007   4.267   3.923
96096SOL    HW190120  13.950   4.273   3.999
96096SOL    HW290121  13.950   4.239   3.852
96097SOL     OW90122   8.412   4.299   0.770
96097SOL    HW190123   8.394   4.367   0.836
96097SOL    HW290124   8.348   4.230   0.789
96098SOL     OW90125   5.910   5.739   0.315
96098SOL    HW190126   5.831   5.686   0.305
96098SOL    HW290127   5.941   5.720   0.403
96099SOL     OW90128   5.251  11.536   9.634
96099SOL    HW190129   5.273  11.451   9.673
96099SOL    HW290130   5.197  11.514   9.558
96100SOL     OW90131  11.956   6.089   2.088
96100SOL    HW190132  12.040   6.121   2.121
96100SOL    HW290133  11.950   5.999   2.120
96101SOL     OW90134   7.391  13.955  14.822
96101SOL    HW190135   7.421  14.039  14.858
96101SOL    HW290136   7.361  13.976  14.734
96102SOL     OW90137   6.191  12.366   2.974
96102SOL    HW190138   6.142  12.288   2.948
96102SOL    HW290139   6.262  12.333   3.028
96103SOL     OW90140   3.833   9.074   0.182
96103SOL    HW190141   3.822   9.136   0.254
96103SOL    HW290142   3.749   9.029   0.176
96104SOL     OW90143  11.712  13.970   5.820
96104SOL    HW190144  11.618  13.985   5.830
96104SOL    HW290145  11.719  13.886   5.775
96105SOL     OW90146   2.841   0.471   5.526
96105SOL    HW190147   2.799   0.534   5.468
96105SOL    HW290148   2.929   0.460   5.489
96106SOL     OW90149   1.419  12.861   1.305
96106SOL    HW190150   1.441  12.946   1.266
96106SOL    HW290151   1.415  12.878   1.399
96107SOL     OW90152   9.953  13.218   4.306
96107SOL    HW190153   9.906  13.156   4.362
96107SOL    HW290154   9.886  13.281   4.280
96108SOL     OW90155  13.842   3.323  12.768
96108SOL    HW190156  13.806   3.279  12.692
96108SOL    HW290157  13.787   3.295  12.841
96109SOL     OW90158  12.563   8.395  11.036
96109SOL    HW190159  12.570   8.490  11.028
96109SOL    HW290160  12.626   8.372  11.104
96110SOL     OW90161   4.121  14.499   5.584
96110SOL    HW190162   4.185  14.444   5.539
96110SOL    HW290163   4.169  14.578   5.609
96111SOL     OW90164   9.524   8.490  11.438
96111SOL    HW190165   9.528   8.506  11.532
96111SOL    HW290166   9.539   8.396  11.430
96112SOL     OW90167  13.909  14.650  14.765
96112SOL    HW190168  13.882  14.562  14.737
96112SOL    HW290169  13.877  14.658  14.855
96113SOL     OW90170  13.858  12.389   3.083
96113SOL    HW190171  13.930  12.407   3.143
96113SOL    HW290172  13.868  12.297   3.061
96114SOL     OW90173   8.060  10.300   4.771
96114SOL    HW190174   8.151  10.286   4.797
96114SOL    HW290175   8.063  10.373   4.709
96115SOL     OW90176  12.579  11.836  11.400
96115SOL    HW190177  12.599  11.810  11.310
96115SOL    HW290178  12.497  11.791  11.420
96116SOL     OW90179  14.522  13.093   7.111
96116SOL    HW190180  14.447  13.087   7.053
96116SOL    HW290181  14.588  13.036   7.071
96117SOL     OW90182   1.022   1.606   4.542
96117SOL    HW190183   0.977   1.586   4.460
96117SOL    HW290184   0.956   1.651   4.595
96118SOL     OW90185  11.656   0.369   6.669
96118SOL    HW190186  11.642   0.294   6.727
96118SOL    HW290187  11.726   0.340   6.611
96119SOL     OW90188   2.742   0.589  11.325
96119SOL    HW190189   2.683   0.572  11.398
96119SOL    HW290190   2.814   0.640  11.363
96120SOL     OW90191   0.797  13.937   5.061
96120SOL    HW190192   0.881  13.891   5.072
96120SOL    HW290193   0.816  14.027   5.088
96121SOL     OW90194   2.726   4.053  14.100
96121SOL    HW190195   2.720   3.997  14.022
96121SOL    HW290196   2.711   4.141  14.067
96122SOL     OW90197  11.996   4.844   2.651
96122SOL    HW190198  11.916   4.838   2.600
96122SOL    HW290199  12.010   4.756   2.684
96123SOL     OW90200   5.589   2.812   8.268
96123SOL    HW190201   5.661   2.814   8.331
96123SOL    HW290202   5.512   2.838   8.319
96124SOL     OW90203  12.789   9.496   3.166
96124SOL    HW190204  12.731   9.435   3.120
96124SOL    HW290205  12.794   9.460   3.255
96125SOL     OW90206   5.972   1.591   6.341
96125SOL    HW190207   6.006   1.675   6.373
96125SOL    HW290208   5.920   1.557   6.414
96126SOL     OW90209  13.849  10.501   9.108
96126SOL    HW190210  13.908  10.519   9.181
96126SOL    HW290211  13.764  10.536   9.137
96127SOL     OW90212   5.014  10.383   3.235
96127SOL    HW190213   4.941  10.321   3.227
96127SOL    HW290214   4.986  10.445   3.302
96128SOL     OW90215  11.014   1.528  14.772
96128SOL    HW190216  10.957   1.499  14.843
96128SOL    HW290217  10.955   1.570  14.709
96129SOL     OW90218   0.284   5.448   7.452
96129SOL    HW190219   0.289   5.406   7.538
96129SOL    HW290220   0.281   5.375   7.390
96130SOL     OW90221  11.836  11.298   3.502
96130SOL    HW190222  11.796  11.370   3.452
96130SOL    HW290223  11.891  11.252   3.439
96131SOL     OW90224   8.366   2.905  14.644
96131SOL    HW190225   8.426   2.830  14.637
96131SOL    HW290226   8.425   2.981  14.649
96132SOL     OW90227   6.949   8.298  11.986
96132SOL    HW190228   7.038   8.269  11.965
96132SOL    HW290229   6.920   8.237  12.054
96133SOL     OW90230  14.241   3.395   9.531
96133SOL    HW190231  14.203   3.445   9.459
96133SOL    HW290232  14.171   3.336   9.558
96134SOL     OW90233  12.739  10.926   1.875
96134SOL    HW190234  12.721  10.919   1.969
96134SOL    HW290235  12.784  11.009   1.866
96135SOL     OW90236   3.788  13.227  12.669
96135SOL    HW190237   3.817  13.147  12.625
96135SOL    HW290238   3.693  13.221  12.669
96136SOL     OW90239  14.181   1.826   2.792
96136SOL    HW190240  14.137   1.884   2.854
96136SOL    HW290241  14.141   1.740   2.807
96137SOL     OW90242  13.771   9.254  11.913
96137SOL    HW190243  13.857   9.218  11.936
96137SOL    HW290244  13.712   9.178  11.919
96138SOL     OW90245   8.759  13.343   5.212
96138SOL    HW190246   8.679  13.339   5.159
96138SOL    HW290247   8.780  13.251   5.230
96139SOL     OW90248   8.831  10.889   0.477
96139SOL    HW190249   8.839  10.843   0.393
96139SOL    HW290250   8.865  10.976   0.460
96140SOL     OW90251  13.152   0.705  13.069
96140SOL    HW190252  13.144   0.756  13.149
96140SOL    HW290253  13.062   0.697  13.037
96141SOL     OW90254   1.532  11.334   5.378
96141SOL    HW190255   1.607  11.332   5.438
96141SOL    HW290256   1.505  11.425   5.377
96142SOL     OW90257  14.022   5.087   8.809
96142SOL    HW190258  13.999   5.046   8.726
96142SOL    HW290259  14.062   5.170   8.785
96143SOL     OW90260   8.627  14.566   2.722
96143SOL    HW190261   8.686  14.550   2.795
96143SOL    HW290262   8.552  14.610   2.762
96144SOL     OW90263   9.959   6.989   3.091
96144SOL    HW190264  10.012   6.924   3.045
96144SOL    HW290265   9.869   6.969   3.065
96145SOL     OW90266  13.166   4.701   1.551
96145SOL    HW190267  13.115   4.634   1.505
96145SOL    HW290268  13.139   4.783   1.512
96146SOL     OW90269   5.015  12.690   1.463
96146SOL    HW190270   5.038  12.633   1.536
96146SOL    HW290271   5.085  12.675   1.399
96147SOL     OW90272  12.580   4.274  12.450
96147SOL    HW190273  12.632   4.352  12.430
96147SOL    HW290274  12.575   4.226  12.368
96148SOL     OW90275   9.072   0.296  10.887
96148SOL    HW190276   8.998   0.337  10.930
96148SOL    HW290277   9.037   0.213  10.855
96149SOL     OW90278   7.582   4.296   0.491
96149SOL    HW190279   7.493   4.265   0.508
96149SOL    HW290280   7.613   4.241   0.419
96150SOL     OW90281   7.481   5.103   2.070
96150SOL    HW190282   7.388   5.104   2.049
96150SOL    HW290283   7.489   5.159   2.148
96151SOL     OW90284   0.360   8.323   2.926
96151SOL    HW190285   0.430   8.291   2.982
96151SOL    HW290286   0.342   8.252   2.865
96152SOL     OW90287  12.402  13.177   9.389
96152SOL    HW190288  12.348  13.185   9.469
96152SOL    HW290289  12.479  13.128   9.417
96153SOL     OW90290  11.177  10.581  13.817
96153SOL    HW190291  11.266  10.552  13.797
96153SOL    HW290292  11.145  10.518  13.882
96154SOL     OW90293   7.120   7.252   7.332
96154SOL    HW190294   7.144   7.254   7.425
96154SOL    HW290295   7.050   7.316   7.324
96155SOL     OW90296   4.242  10.735   4.797
96155SOL    HW190297   4.222  10.722   4.705
96155SOL    HW290298   4.337  10.745   4.801
96156SOL     OW90299  12.450   7.399  13.289
96156SOL    HW190300  12.474   7.322  13.341
96156SOL    HW290301  12.355   7.407  13.300
96157SOL     OW90302   4.850  10.327   2.439
96157SOL    HW190303   4.860  10.307   2.532
96157SOL    HW290304   4.935  10.361   2.413
96158SOL     OW90305  14.021  14.802  13.997
96158SOL    HW190306  13.974   0.006  13.963
96158SOL    HW290307  14.100  14.796  13.944
96159SOL     OW90308   5.904  11.839   4.553
96159SOL    HW190309   5.929  11.755   4.515
96159SOL    HW290310   5.814  11.826   4.584
96160SOL     OW90311   7.353  12.965   4.661
96160SOL    HW190312   7.396  12.885   4.633
96160SOL    HW290313   7.358  12.962   4.757
96161SOL     OW90314   1.649  14.487   0.568
96161SOL    HW190315   1.676  14.395   0.574
96161SOL    HW290316   1.559  14.487   0.602
96162SOL     OW90317   9.648   5.940   3.379
96162SOL    HW190318   9.569   5.991   3.358
96162SOL    HW290319   9.658   5.881   3.305
96163SOL     OW90320   8.379  11.211  13.218
96163SOL    HW190321   8.330  11.284  13.255
96163SOL    HW290322   8.446  11.251  13.163
96164SOL     OW90323   1.878   8.705   9.893
96164SOL    HW190324   1.878   8.628   9.951
96164SOL    HW290325   1.887   8.780   9.952
96165SOL     OW90326   1.473  11.126  10.251
96165SOL    HW190327   1.480  11.124  10.156
96165SOL    HW290328   1.379  11.117  10.268
96166SOL     OW90329  14.626   9.957  11.471
96166SOL    HW190330  14.688  10.023  11.440
96166SOL    HW290331  14.637   9.884  11.411
96167SOL     OW90332   0.507   7.023   3.220
96167SOL    HW190333   0.534   7.057   3.134
96167SOL    HW290334   0.418   7.056   3.232
96168SOL     OW90335   1.093  14.749  12.967
96168SOL    HW190336   1.088  14.774  12.874
96168SOL    HW290337   1.006  14.712  12.985
96169SOL     OW90338  10.452   0.888  13.642
96169SOL    HW190339  10.441   0.982  13.657
96169SOL    HW290340  10.508   0.858  13.713
96170SOL     OW90341   6.679   5.673   1.439
96170SOL    HW190342   6.695   5.747   1.379
96170SOL    HW290343   6.652   5.714   1.521
96171SOL     OW90344  10.221   2.411   7.347
96171SOL    HW190345  10.301   2.439   7.304
96171SOL    HW290346  10.250   2.351   7.416
96172SOL     OW90347   4.652   6.989   4.007
96172SOL    HW190348   4.700   6.913   3.973
96172SOL    HW290349   4.568   6.987   3.960
96173SOL     OW90350   5.762  12.987   1.862
96173SOL    HW190351   5.737  13.078   1.876
96173SOL    HW290352   5.692  12.950   1.809
96174SOL     OW90353   1.137  11.973  14.560
96174SOL    HW190354   1.080  11.988  14.636
96174SOL    HW290355   1.226  11.984  14.594
96175SOL     OW90356   0.065   3.263   0.917
96175SOL    HW190357   0.127   3.335   0.914
96175SOL    HW290358   0.084   3.219   1.000
96176SOL     OW90359  11.563   1.309  11.182
96176SOL    HW190360  11.654   1.334  11.169
96176SOL    HW290361  11.533   1.365  11.254
96177SOL     OW90362   9.737   3.295   6.724
96177SOL    HW190363   9.646   3.304   6.696
96177SOL    HW290364   9.757   3.202   6.710
96178SOL     OW90365  11.383   9.093  10.242
96178SOL    HW190366  11.402   9.110  10.335
96178SOL    HW290367  11.329   9.167  10.214
96179SOL     OW90368   6.178  13.123   8.469
96179SOL    HW190369   6.198  13.029   8.478
96179SOL    HW290370   6.222  13.163   8.544
96180SOL     OW90371  13.021   8.312  10.532
96180SOL    HW190372  13.033   8.268  10.448
96180SOL    HW290373  13.103   8.298  10.578
96181SOL     OW90374   0.830  10.735   8.629
96181SOL    HW190375   0.921  10.713   8.610
96181SOL    HW290376   0.835  10.803   8.696
96182SOL     OW90377  14.743  11.513  12.426
96182SOL    HW190378  14.661  11.466  12.409
96182SOL    HW290379  14.777  11.472  12.505
96183SOL     OW90380   6.100  11.578   0.104
96183SOL    HW190381   6.108  11.567   0.199
96183SOL    HW290382   6.190  11.576   0.072
96184SOL     OW90383   0.930   2.178   5.406
96184SOL    HW190384   0.855   2.122   5.422
96184SOL    HW290385   0.922   2.248   5.471
96185SOL     OW90386  13.566   5.776  11.308
96185SOL    HW190387  13.501   5.805  11.371
96185SOL    HW290388  13.633   5.732  11.360
96186SOL     OW90389   7.975   0.119   9.557
96186SOL    HW190390   7.971   0.194   9.616
96186SOL    HW290391   7.926   0.147   9.480
96187SOL     OW90392  12.049  11.376  13.097
96187SOL    HW190393  11.989  11.422  13.156
96187SOL    HW290394  12.122  11.437  13.084
96188SOL     OW90395  13.744   7.687   8.386
96188SOL    HW190396  13.785   7.679   8.300
96188SOL    HW290397  13.701   7.603   8.401
96189SOL     OW90398  12.477   0.684   3.887
96189SOL    HW190399  12.565   0.720   3.877
96189SOL    HW290400  12.454   0.702   3.978
96190SOL     OW90401   0.348  11.490   5.619
96190SOL    HW190402   0.315  11.508   5.707
96190SOL    HW290403   0.284  11.531   5.561
96191SOL     OW90404   9.254  12.591   1.509
96191SOL    HW190405   9.241  12.686   1.500
96191SOL    HW290406   9.174  12.560   1.553
96192SOL     OW90407   2.084  13.835   4.008
96192SOL    HW190408   2.054  13.925   4.018
96192SOL    HW290409   2.163  13.830   4.062
96193SOL     OW90410   8.843  13.049   5.176
96193SOL    HW190411   8.829  12.955   5.185
96193SOL    HW290412   8.918  13.068   5.232
96194SOL     OW90413   7.800   6.542  12.745
96194SOL    HW190414   7.847   6.578  12.670
96194SOL    HW290415   7.708   6.558  12.726
96195SOL     OW90416  10.272   0.833   9.715
96195SOL    HW190417  10.335   0.761   9.721
96195SOL    HW290418  10.189   0.791   9.691
96196SOL     OW90419  14.166   2.828   5.900
96196SOL    HW190420  14.261   2.829   5.905
96196SOL    HW290421  14.138   2.773   5.974
96197SOL     OW90422   1.160   2.494   8.738
96197SOL    HW190423   1.079   2.481   8.688
96197SOL    HW290424   1.227   2.511   8.671
96198SOL     OW90425   5.452  12.665   9.374
96198SOL    HW190426   5.509  12.663   9.451
96198SOL    HW290427   5.370  12.701   9.407
96199SOL     OW90428   3.830  11.182   9.461
96199SOL    HW190429   3.785  11.194   9.378
96199SOL    HW290430   3.918  11.152   9.437
96200SOL     OW90431  13.454  13.864  14.339
96200SOL    HW190432  13.456  13.779  14.383
96200SOL    HW290433  13.539  13.903  14.359
96201SOL     OW90434   4.189   7.647   0.056
96201SOL    HW190435   4.222   7.728   0.095
96201SOL    HW290436   4.189   7.584   0.128
96202SOL     OW90437   6.108  10.813   9.893
96202SOL    HW190438   6.161  10.744   9.932
96202SOL    HW290439   6.091  10.874   9.965
96203SOL     OW90440  11.116   9.224   4.082
96203SOL    HW190441  11.123   9.297   4.020
96203SOL    HW290442  11.022   9.204   4.085
96204SOL     OW90443  11.192   0.058   2.484
96204SOL    HW190444  11.119   0.052   2.422
96204SOL    HW290445  11.170  14.867   2.552
96205SOL     OW90446   8.761  10.672   0.630
96205SOL    HW190447   8.791  10.733   0.562
96205SOL    HW290448   8.830  10.674   0.697
96206SOL     OW90449   3.706  12.192   9.488
96206SOL    HW190450   3.730  12.157   9.402
96206SOL    HW290451   3.672  12.117   9.536
96207SOL     OW90452   1.691   0.989   3.990
96207SOL    HW190453   1.697   0.971   4.084
96207SOL    HW290454   1.715   0.907   3.948
96208SOL     OW90455  11.055  13.722   7.027
96208SOL    HW190456  10.960  13.711   7.040
96208SOL    HW290457  11.087  13.751   7.112
96209SOL     OW90458   4.709   4.724  11.167
96209SOL    HW190459   4.736   4.746  11.078
96209SOL    HW290460   4.691   4.630  11.163
96210SOL     OW90461   8.734  11.567  12.705
96210SOL    HW190462   8.815  11.578  12.656
96210SOL    HW290463   8.716  11.473  12.700
96211SOL     OW90464   3.922  10.193   0.497
96211SOL    HW190465   3.850  10.139   0.464
96211SOL    HW290466   4.001  10.146   0.469
96212SOL     OW90467  10.636   4.475   3.810
96212SOL    HW190468  10.610   4.476   3.902
96212SOL    HW290469  10.598   4.394   3.775
96213SOL     OW90470  12.014   3.512   7.456
96213SOL    HW190471  12.085   3.455   7.485
96213SOL    HW290472  12.044   3.600   7.475
96214SOL     OW90473  11.238   9.677  13.525
96214SOL    HW190474  11.268   9.765  13.547
96214SOL    HW290475  11.149   9.690  13.491
96215SOL     OW90476   4.844  10.714   7.013
96215SOL    HW190477   4.782  10.785   6.998
96215SOL    HW290478   4.790  10.637   7.029
96216SOL     OW90479   8.216  12.596   1.302
96216SOL    HW190480   8.299  12.618   1.344
96216SOL    HW290481   8.217  12.643   1.219
96217SOL     OW90482   3.857   1.641  13.676
96217SOL    HW190483   3.938   1.646  13.626
96217SOL    HW290484   3.832   1.732  13.691
96218SOL     OW90485   9.409   3.048   9.052
96218SOL    HW190486   9.318   3.073   9.069
96218SOL    HW290487   9.425   3.075   8.961
96219SOL     OW90488   6.790  10.306  11.825
96219SOL    HW190489   6.711  10.348  11.860
96219SOL    HW290490   6.847  10.295  11.901
96220SOL     OW90491  11.024  12.474   7.411
96220SOL    HW190492  11.035  12.407   7.344
96220SOL    HW290493  10.929  12.481   7.422
96221SOL     OW90494   9.212  14.209  14.355
96221SOL    HW190495   9.118  14.213  14.336
96221SOL    HW290496   9.253  14.193  14.269
96222SOL     OW90497   9.298   3.674   8.735
96222SOL    HW190498   9.381   3.628   8.750
96222SOL    HW290499   9.282   3.721   8.816
96223SOL     OW90500   9.520  12.942   2.954
96223SOL    HW190501   9.564  13.023   2.927
96223SOL    HW290502   9.489  12.960   3.043
96224SOL     OW90503   8.176   0.894   5.906
96224SOL    HW190504   8.093   0.852   5.882
96224SOL    HW290505   8.194   0.955   5.834
96225SOL     OW90506   3.524   4.655   0.967
96225SOL    HW190507   3.439   4.619   0.944
96225SOL    HW290508   3.574   4.580   1.000
96226SOL     OW90509   3.545   6.470   6.368
96226SOL    HW190510   3.596   6.518   6.302
96226SOL    HW290511   3.603   6.464   6.444
96227SOL     OW90512  11.354   7.430  11.631
96227SOL    HW190513  11.373   7.370  11.703
96227SOL    HW290514  11.315   7.374  11.563
96228SOL     OW90515   9.179   7.569   9.558
96228SOL    HW190516   9.100   7.514   9.556
96228SOL    HW290517   9.232   7.536   9.486
96229SOL     OW90518   5.063   5.381   5.600
96229SOL    HW190519   5.033   5.335   5.678
96229SOL    HW290520   5.057   5.317   5.530
96230SOL     OW90521   7.314   5.845   8.194
96230SOL    HW190522   7.328   5.939   8.191
96230SOL    HW290523   7.383   5.812   8.252
96231SOL     OW90524   6.352   3.928   9.709
96231SOL    HW190525   6.393   3.842   9.697
96231SOL    HW290526   6.304   3.943   9.627
96232SOL     OW90527   3.066   5.362   3.079
96232SOL    HW190528   3.141   5.401   3.125
96232SOL    HW290529   3.106   5.307   3.011
96233SOL     OW90530  11.148   3.886   6.255
96233SOL    HW190531  11.156   3.962   6.197
96233SOL    HW290532  11.056   3.860   6.248
96234SOL     OW90533   9.395  10.349  14.296
96234SOL    HW190534   9.451  10.422  14.270
96234SOL    HW290535   9.306  10.383  14.289
96235SOL     OW90536   3.006   1.896   4.396
96235SOL    HW190537   2.958   1.847   4.462
96235SOL    HW290538   2.988   1.988   4.417
96236SOL     OW90539  14.810  12.875   9.458
96236SOL    HW190540  14.725  12.902   9.492
96236SOL    HW290541  14.793  12.852   9.367
96237SOL     OW90542   6.543  10.938   4.762
96237SOL    HW190543   6.450  10.943   4.781
96237SOL    HW290544   6.567  11.028   4.740
96238SOL     OW90545   3.471   1.789  10.274
96238SOL    HW190546   3.548   1.843  10.294
96238SOL    HW290547   3.430   1.833  10.200
96239SOL     OW90548   4.391   4.336   2.128
96239SOL    HW190549   4.457   4.406   2.124
96239SOL    HW290550   4.442   4.255   2.134
96240SOL     OW90551   0.008   0.472  13.483
96240SOL    HW190552   0.089   0.514  13.455
96240SOL    HW290553   0.036   0.401  13.540
96241SOL     OW90554  14.552   3.566  13.274
96241SOL    HW190555  14.614   3.606  13.335
96241SOL    HW290556  14.512   3.640  13.228
96242SOL     OW90557   9.482   1.294   7.367
96242SOL    HW190558   9.536   1.217   7.385
96242SOL    HW290559   9.529   1.341   7.299
96243SOL     OW90560   8.157  12.647   7.280
96243SOL    HW190561   8.130  12.557   7.265
96243SOL    HW290562   8.098  12.699   7.226
96244SOL     OW90563   3.938   3.734   0.644
96244SOL    HW190564   3.853   3.777   0.637
96244SOL    HW290565   3.923   3.644   0.618
96245SOL     OW90566   9.223   8.185  14.694
96245SOL    HW190567   9.304   8.206  14.646
96245SOL    HW290568   9.205   8.094  14.672
96246SOL     OW90569   5.344   2.567   8.999
96246SOL    HW190570   5.357   2.493   9.058
96246SOL    HW290571   5.362   2.644   9.052
96247SOL     OW90572   1.706   6.359   3.045
96247SOL    HW190573   1.789   6.382   3.004
96247SOL    HW290574   1.728   6.334   3.134
96248SOL     OW90575  14.659  11.761   2.673
96248SOL    HW190576  14.711  11.798   2.744
96248SOL    HW290577  14.575  11.739   2.713
96249SOL     OW90578   7.079   5.985   4.617
96249SOL    HW190579   7.054   5.911   4.672
96249SOL    HW290580   7.168   6.007   4.645
96250SOL     OW90581   7.239  10.371  14.795
96250SOL    HW190582   7.195  10.393   0.005
96250SOL    HW290583   7.266  10.280  14.806
96251SOL     OW90584   5.184   3.700  14.799
96251SOL    HW190585   5.141   3.651  14.869
96251SOL    HW290586   5.162   3.651  14.719
96252SOL     OW90587   2.223  13.318   6.603
96252SOL    HW190588   2.161  13.289   6.669
96252SOL    HW290589   2.172  13.325   6.522
96253SOL     OW90590   6.751  10.678  13.387
96253SOL    HW190591   6.769  10.723  13.305
96253SOL    HW290592   6.661  10.702  13.409
96254SOL     OW90593   1.527   3.064   3.205
96254SOL    HW190594   1.524   3.122   3.128
96254SOL    HW290595   1.602   3.007   3.188
96255SOL     OW90596  11.769  14.181   4.403
96255SOL    HW190597  11.752  14.170   4.496
96255SOL    HW290598  11.802  14.271   4.395
96256SOL     OW90599  11.848  13.685  11.781
96256SOL    HW190600  11.867  13.767  11.826
96256SOL    HW290601  11.777  13.707  11.720
96257SOL     OW90602  13.374   3.075   2.184
96257SOL    HW190603  13.356   3.006   2.120
96257SOL    HW290604  13.425   3.031   2.252
96258SOL     OW90605   5.702   1.244   3.142
96258SOL    HW190606   5.712   1.162   3.191
96258SOL    HW290607   5.749   1.309   3.194
96259SOL     OW90608   8.306  13.959  10.622
96259SOL    HW190609   8.311  14.036  10.680
96259SOL    HW290610   8.236  13.980  10.561
96260SOL     OW90611   2.603   1.831   6.562
96260SOL    HW190612   2.632   1.773   6.632
96260SOL    HW290613   2.595   1.774   6.485
96261SOL     OW90614   5.967  12.364  13.248
96261SOL    HW190615   5.881  12.403  13.235
96261SOL    HW290616   6.025  12.412  13.189
96262SOL     OW90617  14.501   3.940  14.332
96262SOL    HW190618  14.489   3.922  14.425
96262SOL    HW290619  14.510   3.853  14.292
96263SOL     OW90620   2.592   5.694   4.133
96263SOL    HW190621   2.538   5.622   4.100
96263SOL    HW290622   2.669   5.694   4.076
96264SOL     OW90623  12.669   8.132   6.560
96264SOL    HW190624  12.633   8.049   6.529
96264SOL    HW290625  12.667   8.190   6.483
96265SOL     OW90626   1.856   8.161   8.250
96265SOL    HW190627   1.924   8.205   8.199
96265SOL    HW290628   1.824   8.229   8.310
96266SOL     OW90629  10.692  10.708   4.086
96266SOL    HW190630  10.723  10.623   4.053
96266SOL    HW290631  10.764  10.741   4.139
96267SOL     OW90632  10.817   8.789   6.414
96267SOL    HW190633  10.859   8.774   6.498
96267SOL    HW290634  10.834   8.710   6.364
96268SOL     OW90635   2.083   3.221   2.843
96268SOL    HW190636   2.146   3.251   2.777
96268SOL    HW290637   2.088   3.288   2.912
96269SOL     OW90638   8.165   7.531   2.888
96269SOL    HW190639   8.112   7.459   2.855
96269SOL    HW290640   8.139   7.607   2.836
96270SOL     OW90641  12.065   4.412   3.952
96270SOL    HW190642  12.046   4.352   3.880
96270SOL    HW290643  12.160   4.415   3.956
96271SOL     OW90644   0.546   6.355   1.614
96271SOL    HW190645   0.525   6.416   1.543
96271SOL    HW290646   0.541   6.408   1.694
96272SOL     OW90647   9.366   4.168  13.616
96272SOL    HW190648   9.437   4.169  13.552
96272SOL    HW290649   9.346   4.261  13.631
96273SOL     OW90650  14.714   8.404   8.141
96273SOL    HW190651  14.686   8.325   8.096
96273SOL    HW290652  14.716   8.379   8.234
96274SOL     OW90653  10.018   2.248  13.300
96274SOL    HW190654   9.983   2.322  13.349
96274SOL    HW290655   9.955   2.177  13.316
96275SOL     OW90656   1.317   1.058   0.100
96275SOL    HW190657   1.327   1.141   0.145
96275SOL    HW290658   1.231   1.062   0.060
96276SOL     OW90659  10.607  13.281   3.248
96276SOL    HW190660  10.673  13.212   3.242
96276SOL    HW290661  10.650  13.359   3.212
96277SOL     OW90662   1.598   6.481   9.772
96277SOL    HW190663   1.691   6.463   9.791
96277SOL    HW290664   1.561   6.395   9.752
96278SOL     OW90665  10.330   3.081   3.594
96278SOL    HW190666  10.326   3.007   3.533
96278SOL    HW290667  10.243   3.085   3.633
96279SOL     OW90668   3.708   8.671   4.397
96279SOL    HW190669   3.624   8.627   4.393
96279SOL    HW290670   3.773   8.600   4.391
96280SOL     OW90671   2.636   1.753   0.037
96280SOL    HW190672   2.680   1.706  14.838
96280SOL    HW290673   2.603   1.833  14.869
96281SOL     OW90674   5.947  12.751   1.933
96281SOL    HW190675   5.886  12.822   1.953
96281SOL    HW290676   5.891  12.677   1.911
96282SOL     OW90677   6.026   5.464   5.287
96282SOL    HW190678   5.998   5.372   5.286
96282SOL    HW290679   5.945   5.514   5.280
96283SOL     OW90680   4.840   9.725   6.114
96283SOL    HW190681   4.874   9.736   6.025
96283SOL    HW290682   4.912   9.684   6.162
96284SOL     OW90683   1.716  10.830   5.915
96284SOL    HW190684   1.787  10.870   5.966
96284SOL    HW290685   1.654  10.901   5.900
96285SOL     OW90686   4.011   1.271  10.817
96285SOL    HW190687   3.975   1.282  10.906
96285SOL    HW290688   3.973   1.342  10.767
96286SOL     OW90689  13.118   3.719   6.085
96286SOL    HW190690  13.110   3.645   6.025
96286SOL    HW290691  13.075   3.792   6.040
96287SOL     OW90692   6.363   7.462  14.624
96287SOL    HW190693   6.312   7.524  14.573
96287SOL    HW290694   6.408   7.516  14.689
96288SOL     OW90695   6.866   3.825  11.980
96288SOL    HW190696   6.790   3.802  12.033
96288SOL    HW290697   6.898   3.907  12.018
96289SOL     OW90698  14.555   3.975   9.396
96289SOL    HW190699  14.548   3.898   9.341
96289SOL    HW290700  14.464   3.997   9.418
96290SOL     OW90701   9.288   3.758  11.753
96290SOL    HW190702   9.304   3.729  11.843
96290SOL    HW290703   9.216   3.704  11.722
96291SOL     OW90704   7.569  14.872   3.472
96291SOL    HW190705   7.581   0.052   3.551
96291SOL    HW290706   7.622   0.044   3.405
96292SOL     OW90707  14.669  11.343  10.083
96292SOL    HW190708  14.635  11.256  10.064
96292SOL    HW290709  14.757  11.328  10.116
96293SOL     OW90710   4.387   7.449  13.083
96293SOL    HW190711   4.351   7.387  13.020
96293SOL    HW290712   4.480   7.429  13.085
96294SOL     OW90713   9.449   4.364  11.389
96294SOL    HW190714   9.537   4.402  11.386
96294SOL    HW290715   9.462   4.275  11.421
96295SOL     OW90716   1.114  12.944  11.571
96295SOL    HW190717   1.107  12.855  11.606
96295SOL    HW290718   1.136  12.931  11.479
96296SOL     OW90719   4.825   5.808   8.182
96296SOL    HW190720   4.900   5.841   8.231
96296SOL    HW290721   4.847   5.716   8.165
96297SOL     OW90722   8.195  13.208  11.577
96297SOL    HW190723   8.260  13.252  11.521
96297SOL    HW290724   8.111  13.239  11.543
96298SOL     OW90725  10.051   4.847  11.927
96298SOL    HW190726  10.007   4.864  11.843
96298SOL    HW290727  10.025   4.758  11.950
96299SOL     OW90728  14.738   9.665   9.262
96299SOL    HW190729  14.829   9.679   9.288
96299SOL    HW290730  14.687   9.704   9.332
96300SOL     OW90731   9.602   9.337   8.627
96300SOL    HW190732   9.658   9.403   8.668
96300SOL    HW290733   9.551   9.386   8.563
96301SOL     OW90734   8.726  12.053   3.924
96301SOL    HW190735   8.678  11.971   3.912
96301SOL    HW290736   8.663  12.121   3.902
96302SOL     OW90737   3.124  12.175   1.496
96302SOL    HW190738   3.126  12.246   1.431
96302SOL    HW290739   3.166  12.212   1.573
96303SOL     OW90740   2.495  14.072  12.997
96303SOL    HW190741   2.501  14.108  13.085
96303SOL    HW290742   2.586  14.066  12.967
96304SOL     OW90743  14.698   8.347   1.328
96304SOL    HW190744  14.773   8.406   1.322
96304SOL    HW290745  14.663   8.344   1.239
96305SOL     OW90746  12.587   3.388   4.189
96305SOL    HW190747  12.500   3.348   4.196
96305SOL    HW290748  12.614   3.401   4.280
96306SOL     OW90749  11.632   6.740   9.804
96306SOL    HW190750  11.662   6.695   9.725
96306SOL    HW290751  11.712   6.764   9.851
96307SOL     OW90752   4.015   2.313   4.194
96307SOL    HW190753   4.096   2.264   4.181
96307SOL    HW290754   4.040   2.404   4.179
96308SOL     OW90755   4.238   7.853   3.772
96308SOL    HW190756   4.209   7.813   3.691
96308SOL    HW290757   4.169   7.914   3.795
96309SOL     OW90758   5.055   2.826  11.654
96309SOL    HW190759   5.092   2.861  11.735
96309SOL    HW290760   5.054   2.732  11.666
96310SOL     OW90761   3.153  11.771  12.323
96310SOL    HW190762   3.062  11.798  12.306
96310SOL    HW290763   3.203  11.814  12.254
96311SOL     OW90764   9.370  14.135   5.311
96311SOL    HW190765   9.336  14.205   5.255
96311SOL    HW290766   9.462  14.126   5.286
96312SOL     OW90767   2.597   3.351   0.876
96312SOL    HW190768   2.509   3.334   0.844
96312SOL    HW290769   2.654   3.298   0.820
96313SOL     OW90770   5.144  14.654   4.312
96313SOL    HW190771   5.079  14.723   4.298
96313SOL    HW290772   5.099  14.573   4.286
96314SOL     OW90773   8.189  12.529  13.365
96314SOL    HW190774   8.244  12.556  13.438
96314SOL    HW290775   8.251  12.499  13.298
96315SOL     OW90776   8.937   5.657   8.928
96315SOL    HW190777   8.922   5.750   8.915
96315SOL    HW290778   8.849   5.618   8.925
96316SOL     OW90779   3.841  14.790  11.922
96316SOL    HW190780   3.870  14.766  11.834
96316SOL    HW290781   3.815  14.707  11.963
96317SOL     OW90782   4.692  10.232   7.717
96317SOL    HW190783   4.729  10.275   7.794
96317SOL    HW290784   4.761  10.173   7.687
96318SOL     OW90785  12.040   9.134   5.714
96318SOL    HW190786  11.974   9.159   5.779
96318SOL    HW290787  12.010   9.174   5.632
96319SOL     OW90788  12.441   1.252   6.966
96319SOL    HW190789  12.446   1.341   7.000
96319SOL    HW290790  12.410   1.200   7.040
96320SOL     OW90791  13.105   4.439   3.938
96320SOL    HW190792  13.032   4.474   3.990
96320SOL    HW290793  13.091   4.475   3.851
96321SOL     OW90794  12.755  14.415   0.379
96321SOL    HW190795  12.671  14.404   0.423
96321SOL    HW290796  12.797  14.487   0.426
96322SOL     OW90797  11.194   0.463   3.619
96322SOL    HW190798  11.134   0.457   3.545
96322SOL    HW290799  11.241   0.380   3.619
96323SOL     OW90800  11.338   5.720   6.116
96323SOL    HW190801  11.364   5.737   6.207
96323SOL    HW290802  11.337   5.625   6.108
96324SOL     OW90803   0.978  13.760  10.942
96324SOL    HW190804   0.971  13.821  11.015
96324SOL    HW290805   1.067  13.771  10.909
96325SOL     OW90806   7.752   7.161   5.633
96325SOL    HW190807   7.721   7.189   5.719
96325SOL    HW290808   7.847   7.152   5.644
96326SOL     OW90809   1.031   0.697  13.944
96326SOL    HW190810   0.937   0.683  13.933
96326SOL    HW290811   1.049   0.779  13.898
96327SOL     OW90812   6.068   0.587   2.618
96327SOL    HW190813   6.061   0.680   2.596
96327SOL    HW290814   6.073   0.542   2.534
96328SOL     OW90815  10.854  13.453   8.109
96328SOL    HW190816  10.908  13.398   8.053
96328SOL    HW290817  10.855  13.410   8.194
96329SOL     OW90818  12.072   7.836   2.585
96329SOL    HW190819  12.046   7.801   2.670
96329SOL    HW290820  12.140   7.900   2.606
96330SOL     OW90821   1.445   2.472  14.147
96330SOL    HW190822   1.502   2.502  14.076
96330SOL    HW290823   1.432   2.379  14.130
96331SOL     OW90824  13.808  12.709   0.091
96331SOL    HW190825  13.844  12.649   0.026
96331SOL    HW290826  13.860  12.694   0.170
96332SOL     OW90827  12.773  14.570   9.972
96332SOL    HW190828  12.783  14.478   9.996
96332SOL    HW290829  12.678  14.582   9.963
96333SOL     OW90830   6.223  13.136   9.549
96333SOL    HW190831   6.275  13.209   9.582
96333SOL    HW290832   6.276  13.098   9.479
96334SOL     OW90833   4.368   2.244  14.597
96334SOL    HW190834   4.441   2.191  14.566
96334SOL    HW290835   4.325   2.275  14.517
96335SOL     OW90836   9.742   9.354  13.028
96335SOL    HW190837   9.736   9.354  12.933
96335SOL    HW290838   9.701   9.436  13.055
96336SOL     OW90839   3.951   1.261   4.170
96336SOL    HW190840   4.010   1.205   4.120
96336SOL    HW290841   3.865   1.245   4.131
96337SOL     OW90842  12.889   2.992   1.084
96337SOL    HW190843  12.942   2.990   1.164
96337SOL    HW290844  12.939   3.045   1.023
96338SOL     OW90845   7.516   5.730   4.706
96338SOL    HW190846   7.507   5.825   4.692
96338SOL    HW290847   7.542   5.722   4.798
96339SOL     OW90848   8.255  14.810  13.153
96339SOL    HW190849   8.213  14.861  13.084
96339SOL    HW290850   8.308   0.002  13.201
96340SOL     OW90851  14.512   8.994   2.267
96340SOL    HW190852  14.459   9.045   2.206
96340SOL    HW290853  14.577   9.056   2.300
96341SOL     OW90854   3.059  10.730   5.639
96341SOL    HW190855   3.144  10.731   5.683
96341SOL    HW290856   3.079  10.742   5.547
96342SOL     OW90857   1.703   1.871  10.895
96342SOL    HW190858   1.645   1.945  10.880
96342SOL    HW290859   1.655   1.815  10.956
96343SOL     OW90860   1.258   8.623   1.794
96343SOL    HW190861   1.221   8.536   1.780
96343SOL    HW290862   1.343   8.607   1.834
96344SOL     OW90863   5.169   2.670   2.117
96344SOL    HW190864   5.100   2.718   2.163
96344SOL    HW290865   5.201   2.731   2.051
96345SOL     OW90866   8.289  10.227   4.434
96345SOL    HW190867   8.196  10.233   4.411
96345SOL    HW290868   8.334  10.277   4.366
96346SOL     OW90869   0.164  10.539  13.718
96346SOL    HW190870   0.190  10.460  13.764
96346SOL    HW290871   0.098  10.510  13.655
96347SOL     OW90872   0.916   1.894  11.035
96347SOL    HW190873   0.994   1.871  10.984
96347SOL    HW290874   0.892   1.813  11.080
96348SOL     OW90875   7.079   3.827   9.264
96348SOL    HW190876   7.126   3.768   9.324
96348SOL    HW290877   6.994   3.842   9.307
96349SOL     OW90878   1.023   9.670   5.097
96349SOL    HW190879   0.996   9.759   5.119
96349SOL    HW290880   0.951   9.615   5.128
96350SOL     OW90881   6.168   7.404  12.099
96350SOL    HW190882   6.097   7.421  12.038
96350SOL    HW290883   6.155   7.468  12.169
96351SOL     OW90884   1.795   9.424   5.845
96351SOL    HW190885   1.773   9.517   5.850
96351SOL    HW290886   1.844   9.406   5.926
96352SOL     OW90887   1.033   6.362  11.332
96352SOL    HW190888   1.047   6.268  11.340
96352SOL    HW290889   0.941   6.371  11.308
96353SOL     OW90890   9.068   0.794   1.398
96353SOL    HW190891   9.117   0.864   1.355
96353SOL    HW290892   9.092   0.715   1.349
96354SOL     OW90893   3.976   7.075   9.627
96354SOL    HW190894   4.050   7.112   9.674
96354SOL    HW290895   3.989   7.104   9.536
96355SOL     OW90896  12.345  11.730   0.825
96355SOL    HW190897  12.435  11.758   0.805
96355SOL    HW290898  12.320  11.676   0.751
96356SOL     OW90899   4.722  11.799  14.608
96356SOL    HW190900   4.669  11.770  14.533
96356SOL    HW290901   4.722  11.725  14.667
96357SOL     OW90902   7.054  14.605  12.222
96357SOL    HW190903   7.100  14.684  12.192
96357SOL    HW290904   6.970  14.638  12.256
96358SOL     OW90905  11.274  14.630   8.452
96358SOL    HW190906  11.192  14.672   8.476
96358SOL    HW290907  11.300  14.672   8.370
96359SOL     OW90908  10.459   6.551  14.328
96359SOL    HW190909  10.499   6.613  14.390
96359SOL    HW290910  10.366   6.551  14.351
96360SOL     OW90911  14.232   1.183   3.013
96360SOL    HW190912  14.171   1.254   2.991
96360SOL    HW290913  14.182   1.103   2.999
96361SOL     OW90914  12.418   4.007   4.614
96361SOL    HW190915  12.353   4.076   4.598
96361SOL    HW290916  12.500   4.043   4.583
96362SOL     OW90917   5.646  12.957  10.939
96362SOL    HW190918   5.741  12.971  10.934
96362SOL    HW290919   5.608  13.038  10.904
96363SOL     OW90920   1.294   4.707   6.124
96363SOL    HW190921   1.258   4.629   6.165
96363SOL    HW290922   1.386   4.707   6.149
96364SOL     OW90923   5.920   3.094   9.043
96364SOL    HW190924   5.938   3.024   8.980
96364SOL    HW290925   5.830   3.078   9.070
96365SOL     OW90926   6.348  10.154   3.104
96365SOL    HW190927   6.265  10.121   3.069
96365SOL    HW290928   6.347  10.247   3.084
96366SOL     OW90929   1.151  14.226   6.826
96366SOL    HW190930   1.072  14.239   6.878
96366SOL    HW290931   1.182  14.314   6.806
96367SOL     OW90932   2.447   0.087  12.070
96367SOL    HW190933   2.466   0.033  12.147
96367SOL    HW290934   2.352   0.084  12.061
96368SOL     OW90935   2.727   6.301  10.135
96368SOL    HW190936   2.693   6.322  10.048
96368SOL    HW290937   2.802   6.360  10.147
96369SOL     OW90938  10.833  12.135  11.007
96369SOL    HW190939  10.788  12.096  10.932
96369SOL    HW290940  10.762  12.163  11.065
96370SOL     OW90941   5.984   6.894   4.992
96370SOL    HW190942   5.967   6.968   5.050
96370SOL    HW290943   6.005   6.933   4.908
96371SOL     OW90944   1.004   9.144   1.621
96371SOL    HW190945   1.001   9.136   1.716
96371SOL    HW290946   0.912   9.152   1.595
96372SOL     OW90947   4.098   7.673   6.917
96372SOL    HW190948   4.015   7.650   6.875
96372SOL    HW290949   4.088   7.764   6.943
96373SOL     OW90950   7.114  14.034   7.997
96373SOL    HW190951   7.076  14.082   8.071
96373SOL    HW290952   7.155  13.957   8.037
96374SOL     OW90953   8.903   0.330  14.380
96374SOL    HW190954   8.812   0.358  14.389
96374SOL    HW290955   8.901   0.237  14.404
96375SOL     OW90956   1.086   4.630   1.033
96375SOL    HW190957   1.057   4.709   1.078
96375SOL    HW290958   1.169   4.607   1.074
96376SOL     OW90959   6.694   4.327  14.001
96376SOL    HW190960   6.698   4.287  14.088
96376SOL    HW290961   6.785   4.342  13.978
96377SOL     OW90962   0.168   0.401  10.888
96377SOL    HW190963   0.135   0.348  10.816
96377SOL    HW290964   0.089   0.432  10.933
96378SOL     OW90965  14.256  11.361   6.819
96378SOL    HW190966  14.331  11.364   6.878
96378SOL    HW290967  14.272  11.284   6.764
96379SOL     OW90968   0.065  10.532   3.515
96379SOL    HW190969   0.131  10.474   3.553
96379SOL    HW290970   0.103  10.620   3.521
96380SOL     OW90971  11.186   0.295   4.773
96380SOL    HW190972  11.106   0.294   4.721
96380SOL    HW290973  11.175   0.224   4.836
96381SOL     OW90974  14.573   1.274   4.455
96381SOL    HW190975  14.504   1.214   4.484
96381SOL    HW290976  14.593   1.247   4.366
96382SOL     OW90977  14.201   3.802   8.793
96382SOL    HW190978  14.208   3.795   8.697
96382SOL    HW290979  14.291   3.816   8.822
96383SOL     OW90980   8.349  10.309   3.914
96383SOL    HW190981   8.366  10.216   3.904
96383SOL    HW290982   8.424  10.352   3.872
96384SOL     OW90983   6.528   8.188   4.091
96384SOL    HW190984   6.607   8.188   4.036
96384SOL    HW290985   6.529   8.101   4.132
96385SOL     OW90986   3.798  13.633   1.332
96385SOL    HW190987   3.775  13.593   1.248
96385SOL    HW290988   3.832  13.561   1.384
96386SOL     OW90989   0.425  12.032   4.356
96386SOL    HW190990   0.514  12.057   4.334
96386SOL    HW290991   0.377  12.038   4.273
96387SOL     OW90992   6.528   1.768  13.294
96387SOL    HW190993   6.468   1.842  13.285
96387SOL    HW290994   6.608   1.796  13.249
96388SOL     OW90995   6.539   6.130   1.081
96388SOL    HW190996   6.567   6.124   0.990
96388SOL    HW290997   6.577   6.052   1.123
96389SOL     OW90998  13.410   1.526  13.633
96389SOL    HW190999  13.331   1.533  13.686
96389SOL    HW291000  13.379   1.507  13.545
96390SOL     OW91001   2.362  12.476   9.039
96390SOL    HW191002   2.454  12.456   9.056
96390SOL    HW291003   2.348  12.562   9.079
96391SOL     OW91004   0.704  14.241   2.491
96391SOL    HW191005   0.644  14.300   2.446
96391SOL    HW291006   0.663  14.155   2.484
96392SOL     OW91007   5.891   9.623  11.637
96392SOL    HW191008   5.915   9.591  11.724
96392SOL    HW291009   5.881   9.718  11.649
96393SOL     OW91010   4.570  11.190   0.281
96393SOL    HW191011   4.595  11.118   0.222
96393SOL    HW291012   4.567  11.149   0.368
96394SOL     OW91013  10.945   2.290  12.042
96394SOL    HW191014  10.871   2.248  11.999
96394SOL    HW291015  10.915   2.306  12.131
96395SOL     OW91016   0.510   2.476   0.038
96395SOL    HW191017   0.519   2.455   0.131
96395SOL    HW291018   0.551   2.402  14.865
96396SOL     OW91019  14.027   6.636   3.544
96396SOL    HW191020  14.051   6.723   3.513
96396SOL    HW291021  13.970   6.653   3.619
96397SOL     OW91022   5.580   1.390   1.872
96397SOL    HW191023   5.656   1.448   1.869
96397SOL    HW291024   5.519   1.427   1.808
96398SOL     OW91025  14.381  14.549  13.275
96398SOL    HW191026  14.425  14.464  13.279
96398SOL    HW291027  14.300  14.536  13.325
96399SOL     OW91028   9.072   1.576   5.086
96399SOL    HW191029   9.034   1.534   5.009
96399SOL    HW291030   9.145   1.519   5.111
96400SOL     OW91031   0.236   0.196  10.599
96400SOL    HW191032   0.247   0.222  10.508
96400SOL    HW291033   0.325   0.181  10.631
96401SOL     OW91034   2.991   7.098   9.241
96401SOL    HW191035   3.003   7.016   9.193
96401SOL    HW291036   3.007   7.074   9.332
96402SOL     OW91037  10.115   4.090   5.202
96402SOL    HW191038  10.041   4.108   5.260
96402SOL    HW291039  10.186   4.142   5.238
96403SOL     OW91040  13.814   7.185   5.058
96403SOL    HW191041  13.777   7.270   5.079
96403SOL    HW291042  13.868   7.200   4.981
96404SOL     OW91043   5.543  14.350  13.948
96404SOL    HW191044   5.448  14.336  13.944
96404SOL    HW291045   5.554  14.444  13.930
96405SOL     OW91046  13.673   7.808   4.715
96405SOL    HW191047  13.637   7.778   4.631
96405SOL    HW291048  13.768   7.799   4.705
96406SOL     OW91049  12.342   2.675   3.983
96406SOL    HW191050  12.335   2.624   3.903
96406SOL    HW291051  12.290   2.626   4.047
96407SOL     OW91052   2.025  11.118   5.042
96407SOL    HW191053   1.966  11.102   5.116
96407SOL    HW291054   2.026  11.035   4.994
96408SOL     OW91055   2.955   5.762   1.278
96408SOL    HW191056   2.870   5.734   1.246
96408SOL    HW291057   2.985   5.826   1.214
96409SOL     OW91058  12.186   2.871   5.312
96409SOL    HW191059  12.093   2.846   5.315
96409SOL    HW291060  12.219   2.852   5.399
96410SOL     OW91061   3.945  12.901   5.164
96410SOL    HW191062   3.947  12.922   5.070
96410SOL    HW291063   3.880  12.831   5.171
96411SOL     OW91064   2.082   2.617   8.634
96411SOL    HW191065   2.099   2.560   8.559
96411SOL    HW291066   2.141   2.584   8.702
96412SOL     OW91067   1.258   8.091   1.544
96412SOL    HW191068   1.271   7.996   1.543
96412SOL    HW291069   1.305   8.122   1.621
96413SOL     OW91070   1.580   5.485   0.744
96413SOL    HW191071   1.669   5.498   0.710
96413SOL    HW291072   1.524   5.485   0.666
96414SOL     OW91073   4.281  13.770   2.582
96414SOL    HW191074   4.244  13.769   2.494
96414SOL    HW291075   4.308  13.861   2.596
96415SOL     OW91076   3.532  10.380  14.700
96415SOL    HW191077   3.548  10.287  14.681
96415SOL    HW291078   3.605  10.406  14.757
96416SOL     OW91079  10.321   1.129   2.835
96416SOL    HW191080  10.383   1.202   2.828
96416SOL    HW291081  10.283   1.138   2.922
96417SOL     OW91082   5.597   2.879  14.226
96417SOL    HW191083   5.651   2.933  14.169
96417SOL    HW291084   5.529   2.938  14.258
96418SOL     OW91085  10.023   3.329   1.939
96418SOL    HW191086  10.039   3.285   2.022
96418SOL    HW291087  10.092   3.395   1.932
96419SOL     OW91088  10.566   1.301   2.039
96419SOL    HW191089  10.628   1.315   1.967
96419SOL    HW291090  10.480   1.307   1.999
96420SOL     OW91091   0.292   5.155   3.263
96420SOL    HW191092   0.278   5.202   3.346
96420SOL    HW291093   0.317   5.067   3.289
96421SOL     OW91094   6.422   3.238   8.377
96421SOL    HW191095   6.360   3.260   8.447
96421SOL    HW291096   6.382   3.273   8.298
96422SOL     OW91097   9.088   8.403   4.554
96422SOL    HW191098   9.003   8.369   4.583
96422SOL    HW291099   9.152   8.355   4.607
96423SOL     OW91100  13.603   6.579   9.025
96423SOL    HW191101  13.551   6.627   9.089
96423SOL    HW291102  13.639   6.647   8.968
96424SOL     OW91103   2.315  12.431   1.453
96424SOL    HW191104   2.304  12.404   1.362
96424SOL    HW291105   2.394  12.484   1.452
96425SOL     OW91106   4.998   0.980   4.520
96425SOL    HW191107   5.040   0.933   4.593
96425SOL    HW291108   5.070   1.025   4.476
96426SOL     OW91109   9.577   6.892   7.381
96426SOL    HW191110   9.509   6.842   7.427
96426SOL    HW291111   9.630   6.826   7.338
96427SOL     OW91112  11.033   3.890  10.065
96427SOL    HW191113  11.021   3.985  10.067
96427SOL    HW291114  10.960   3.855  10.117
96428SOL     OW91115  12.954   4.515  10.023
96428SOL    HW191116  12.936   4.487  10.113
96428SOL    HW291117  13.030   4.573  10.030
96429SOL     OW91118   7.985   1.339   7.077
96429SOL    HW191119   7.977   1.310   7.167
96429SOL    HW291120   8.079   1.339   7.059
96430SOL     OW91121   0.724   8.288  14.159
96430SOL    HW191122   0.780   8.290  14.082
96430SOL    HW291123   0.636   8.306  14.125
96431SOL     OW91124   8.858   0.970  10.646
96431SOL    HW191125   8.803   0.955  10.569
96431SOL    HW291126   8.932   0.911  10.634
96432SOL     OW91127   3.384  14.870   7.279
96432SOL    HW191128   3.461  14.821   7.307
96432SOL    HW291129   3.310  14.822   7.317
96433SOL     OW91130  13.262   4.778  14.549
96433SOL    HW191131  13.356   4.794  14.549
96433SOL    HW291132  13.224   4.855  14.591
96434SOL     OW91133   1.795   8.943   3.560
96434SOL    HW191134   1.758   8.878   3.620
96434SOL    HW291135   1.769   9.027   3.599
96435SOL     OW91136   0.235   7.234   9.572
96435SOL    HW191137   0.155   7.220   9.622
96435SOL    HW291138   0.239   7.329   9.560
96436SOL     OW91139  11.587   2.223   4.454
96436SOL    HW191140  11.506   2.192   4.413
96436SOL    HW291141  11.654   2.159   4.427
96437SOL     OW91142   6.344   8.497   4.073
96437SOL    HW191143   6.333   8.402   4.072
96437SOL    HW291144   6.435   8.511   4.049
96438SOL     OW91145  12.393   7.441   9.664
96438SOL    HW191146  12.312   7.400   9.633
96438SOL    HW291147  12.430   7.482   9.585
96439SOL     OW91148   0.692   7.776   7.199
96439SOL    HW191149   0.747   7.771   7.121
96439SOL    HW291150   0.676   7.870   7.211
96440SOL     OW91151  14.859   6.397  14.707
96440SOL    HW191152   0.053   6.421  14.773
96440SOL    HW291153  14.798   6.341  14.754
96441SOL     OW91154   2.972   0.271   0.012
96441SOL    HW191155   3.040   0.210  14.856
96441SOL    HW291156   2.972   0.264   0.108
96442SOL     OW91157   8.489  13.624   9.572
96442SOL    HW191158   8.506  13.685   9.643
96442SOL    HW291159   8.409  13.578   9.599
96443SOL     OW91160   2.654  11.757   7.206
96443SOL    HW191161   2.746  11.769   7.229
96443SOL    HW291162   2.617  11.845   7.207
96444SOL     OW91163   0.695  10.342   4.092
96444SOL    HW191164   0.632  10.412   4.075
96444SOL    HW291165   0.674  10.275   4.027
96445SOL     OW91166   8.448   3.398   1.565
96445SOL    HW191167   8.494   3.391   1.481
96445SOL    HW291168   8.517   3.388   1.631
96446SOL     OW91169   1.128   6.457   1.050
96446SOL    HW191170   1.147   6.410   1.131
96446SOL    HW291171   1.055   6.410   1.011
96447SOL     OW91172  10.617   8.089  13.478
96447SOL    HW191173  10.612   7.993  13.470
96447SOL    HW291174  10.596   8.121  13.390
96448SOL     OW91175   5.881   1.718   9.128
96448SOL    HW191176   5.936   1.705   9.204
96448SOL    HW291177   5.921   1.790   9.080
96449SOL     OW91178   9.467  11.508  10.298
96449SOL    HW191179   9.421  11.587  10.269
96449SOL    HW291180   9.463  11.449  10.222
96450SOL     OW91181   1.895   0.985   8.149
96450SOL    HW191182   1.809   0.951   8.124
96450SOL    HW291183   1.952   0.962   8.077
96451SOL     OW91184  14.239  14.869  11.382
96451SOL    HW191185  14.197   0.050  11.315
96451SOL    HW291186  14.231   0.048  11.462
96452SOL     OW91187   4.592   0.650   7.478
96452SOL    HW191188   4.614   0.717   7.414
96452SOL    HW291189   4.498   0.636   7.468
96453SOL     OW91190   8.083   2.737   3.732
96453SOL    HW191191   8.165   2.756   3.687
96453SOL    HW291192   8.019   2.725   3.662
96454SOL     OW91193   1.211   0.478  13.622
96454SOL    HW191194   1.148   0.512  13.559
96454SOL    HW291195   1.280   0.545  13.626
96455SOL     OW91196   4.938  13.831   7.925
96455SOL    HW191197   4.907  13.916   7.958
96455SOL    HW291198   4.952  13.779   8.004
96456SOL     OW91199  12.164  10.627  11.288
96456SOL    HW191200  12.100  10.557  11.303
96456SOL    HW291201  12.112  10.700  11.253
96457SOL     OW91202   6.278   3.906   2.595
96457SOL    HW191203   6.189   3.935   2.578
96457SOL    HW291204   6.272   3.810   2.601
96458SOL     OW91205  13.896  12.244  12.556
96458SOL    HW191206  13.919  12.189  12.631
96458SOL    HW291207  13.809  12.213  12.530
96459SOL     OW91208  14.284   0.191   2.752
96459SOL    HW191209  14.321   0.235   2.675
96459SOL    HW291210  14.237   0.260   2.798
96460SOL     OW91211   5.827  11.059  14.049
96460SOL    HW191212   5.743  11.060  14.003
96460SOL    HW291213   5.803  11.063  14.142
96461SOL     OW91214   8.137  10.978   9.202
96461SOL    HW191215   8.114  10.949   9.290
96461SOL    HW291216   8.160  10.898   9.155
96462SOL     OW91217   9.275  10.958   4.487
96462SOL    HW191218   9.305  10.945   4.396
96462SOL    HW291219   9.344  10.918   4.540
96463SOL     OW91220   3.680   0.803  12.794
96463SOL    HW191221   3.745   0.855  12.842
96463SOL    HW291222   3.708   0.809  12.703
96464SOL     OW91223   6.896   1.006  11.962
96464SOL    HW191224   6.935   0.919  11.955
96464SOL    HW291225   6.897   1.025  12.056
96465SOL     OW91226   1.870   4.881   4.184
96465SOL    HW191227   1.893   4.791   4.159
96465SOL    HW291228   1.929   4.901   4.256
96466SOL     OW91229   0.781   9.444  10.082
96466SOL    HW191230   0.827   9.384  10.023
96466SOL    HW291231   0.850   9.498  10.120
96467SOL     OW91232   0.966  10.979   1.002
96467SOL    HW191233   0.922  11.009   0.922
96467SOL    HW291234   0.998  11.059   1.044
96468SOL     OW91235  11.440   9.580   9.210
96468SOL    HW191236  11.465   9.649   9.148
96468SOL    HW291237  11.346   9.568   9.197
96469SOL     OW91238   3.891   7.397   9.884
96469SOL    HW191239   3.802   7.377   9.915
96469SOL    HW291240   3.883   7.403   9.789
96470SOL     OW91241  12.399   4.894  13.086
96470SOL    HW191242  12.342   4.920  13.014
96470SOL    HW291243  12.340   4.880  13.160
96471SOL     OW91244   5.475  12.204   3.926
96471SOL    HW191245   5.502  12.290   3.956
96471SOL    HW291246   5.406  12.177   3.986
96472SOL     OW91247   1.562   2.679   6.494
96472SOL    HW191248   1.485   2.724   6.460
96472SOL    HW291249   1.623   2.677   6.420
96473SOL     OW91250   1.945   3.023   7.911
96473SOL    HW191251   2.007   2.973   7.858
96473SOL    HW291252   1.943   3.110   7.870
96474SOL     OW91253  12.282   4.792  14.715
96474SOL    HW191254  12.216   4.737  14.759
96474SOL    HW291255  12.336   4.826  14.787
96475SOL     OW91256   6.410  11.545   6.556
96475SOL    HW191257   6.346  11.480   6.525
96475SOL    HW291258   6.495  11.510   6.528
96476SOL     OW91259   6.041  14.342  14.379
96476SOL    HW191260   6.001  14.315  14.461
96476SOL    HW291261   6.013  14.276  14.316
96477SOL     OW91262   8.622   3.612  12.586
96477SOL    HW191263   8.675   3.543  12.547
96477SOL    HW291264   8.642   3.608  12.680
96478SOL     OW91265  12.931  10.682   2.215
96478SOL    HW191266  12.986  10.612   2.250
96478SOL    HW291267  12.967  10.698   2.128
96479SOL     OW91268   7.672   9.781   4.532
96479SOL    HW191269   7.662   9.876   4.532
96479SOL    HW291270   7.610   9.750   4.598
96480SOL     OW91271   3.358  14.083   1.145
96480SOL    HW191272   3.409  14.100   1.224
96480SOL    HW291273   3.330  14.170   1.116
96481SOL     OW91274  13.159   0.753   0.932
96481SOL    HW191275  13.185   0.817   0.866
96481SOL    HW291276  13.179   0.796   1.015
96482SOL     OW91277   0.077  13.066  13.934
96482SOL    HW191278   0.150  13.005  13.928
96482SOL    HW291279   0.058  13.073  14.027
96483SOL     OW91280   5.641   7.804  13.980
96483SOL    HW191281   5.550   7.827  14.002
96483SOL    HW291282   5.690   7.884  13.997
96484SOL     OW91283  12.585   7.291   2.458
96484SOL    HW191284  12.661   7.251   2.417
96484SOL    HW291285  12.571   7.373   2.410
96485SOL     OW91286   9.300   1.271   6.162
96485SOL    HW191287   9.336   1.215   6.093
96485SOL    HW291288   9.285   1.355   6.118
96486SOL     OW91289   7.669  10.619   3.446
96486SOL    HW191290   7.669  10.698   3.500
96486SOL    HW291291   7.670  10.547   3.508
96487SOL     OW91292   1.845   1.800   9.233
96487SOL    HW191293   1.861   1.772   9.323
96487SOL    HW291294   1.904   1.874   9.221
96488SOL     OW91295   9.523   6.561  12.079
96488SOL    HW191296   9.581   6.619  12.129
96488SOL    HW291297   9.567   6.476  12.082
96489SOL     OW91298   8.466   8.258   2.193
96489SOL    HW191299   8.546   8.296   2.229
96489SOL    HW291300   8.434   8.323   2.131
96490SOL     OW91301   4.061   4.956  10.088
96490SOL    HW191302   4.024   4.891  10.147
96490SOL    HW291303   4.139   4.915  10.053
96491SOL     OW91304  12.931   0.809   2.251
96491SOL    HW191305  12.902   0.727   2.290
96491SOL    HW291306  13.024   0.796   2.232
96492SOL     OW91307   3.634   4.713   8.707
96492SOL    HW191308   3.649   4.755   8.622
96492SOL    HW291309   3.689   4.760   8.768
96493SOL     OW91310   0.023   4.406   7.139
96493SOL    HW191311   0.036   4.478   7.077
96493SOL    HW291312   0.111   4.380   7.165
96494SOL     OW91313   5.238   9.082   1.725
96494SOL    HW191314   5.328   9.074   1.694
96494SOL    HW291315   5.184   9.062   1.648
96495SOL     OW91316   4.261   5.513   3.285
96495SOL    HW191317   4.316   5.484   3.212
96495SOL    HW291318   4.240   5.605   3.264
96496SOL     OW91319  10.312   0.166   9.363
96496SOL    HW191320  10.353   0.230   9.304
96496SOL    HW291321  10.269   0.103   9.305
96497SOL     OW91322   8.581  14.737   9.055
96497SOL    HW191323   8.641  14.807   9.083
96497SOL    HW291324   8.607  14.662   9.108
96498SOL     OW91325   5.079   3.745   8.800
96498SOL    HW191326   5.152   3.709   8.849
96498SOL    HW291327   5.113   3.757   8.711
96499SOL     OW91328  12.177   4.244  10.037
96499SOL    HW191329  12.186   4.293   9.955
96499SOL    HW291330  12.109   4.178  10.018
96500SOL     OW91331   4.569   7.085   0.737
96500SOL    HW191332   4.548   7.119   0.650
96500SOL    HW291333   4.579   6.991   0.725
96501SOL     OW91334   6.811  11.093   5.646
96501SOL    HW191335   6.857  11.021   5.689
96501SOL    HW291336   6.853  11.100   5.560
96502SOL     OW91337  11.741   8.036   9.674
96502SOL    HW191338  11.669   7.990   9.716
96502SOL    HW291339  11.801   8.056   9.746
96503SOL     OW91340   2.064   1.871   9.681
96503SOL    HW191341   2.159   1.873   9.686
96503SOL    HW291342   2.041   1.953   9.636
96504SOL     OW91343   6.681   1.013   2.807
96504SOL    HW191344   6.673   1.001   2.902
96504SOL    HW291345   6.712   1.103   2.797
96505SOL     OW91346   4.851  11.980  10.587
96505SOL    HW191347   4.939  11.977  10.551
96505SOL    HW291348   4.805  12.044  10.534
96506SOL     OW91349   9.969   5.271   2.821
96506SOL    HW191350  10.048   5.296   2.773
96506SOL    HW291351   9.919   5.352   2.831
96507SOL     OW91352   5.002   0.863   8.801
96507SOL    HW191353   4.992   0.776   8.763
96507SOL    HW291354   4.921   0.876   8.851
96508SOL     OW91355   8.602  14.143  11.223
96508SOL    HW191356   8.641  14.078  11.281
96508SOL    HW291357   8.578  14.095  11.144
96509SOL     OW91358   5.585  14.602  11.065
96509SOL    HW191359   5.510  14.637  11.112
96509SOL    HW291360   5.656  14.603  11.130
96510SOL     OW91361   4.347  11.509   6.328
96510SOL    HW191362   4.403  11.435   6.306
96510SOL    HW291363   4.398  11.560   6.391
96511SOL     OW91364   1.859  14.658   4.291
96511SOL    HW191365   1.902  14.616   4.366
96511SOL    HW291366   1.914  14.635   4.216
96512SOL     OW91367   7.893   6.118   8.674
96512SOL    HW191368   7.925   6.123   8.764
96512SOL    HW291369   7.823   6.183   8.670
96513SOL     OW91370   7.760   1.801   1.086
96513SOL    HW191371   7.770   1.733   1.018
96513SOL    HW291372   7.749   1.751   1.167
96514SOL     OW91373   5.798  10.575   1.671
96514SOL    HW191374   5.780  10.481   1.676
96514SOL    HW291375   5.762  10.609   1.753
96515SOL     OW91376   2.698   7.466   6.317
96515SOL    HW191377   2.738   7.415   6.387
96515SOL    HW291378   2.772   7.505   6.271
96516SOL     OW91379  13.401  10.992   8.205
96516SOL    HW191380  13.454  10.992   8.126
96516SOL    HW291381  13.379  11.084   8.221
96517SOL     OW91382   7.104  11.352   1.859
96517SOL    HW191383   7.156  11.273   1.842
96517SOL    HW291384   7.040  11.325   1.924
96518SOL     OW91385   7.119  14.848  10.643
96518SOL    HW191386   7.097  14.756  10.626
96518SOL    HW291387   7.205  14.860  10.602
96519SOL     OW91388   4.589   3.442  12.798
96519SOL    HW191389   4.583   3.355  12.758
96519SOL    HW291390   4.517   3.445  12.861
96520SOL     OW91391  11.993   6.093   3.939
96520SOL    HW191392  11.941   6.161   3.981
96520SOL    HW291393  12.084   6.120   3.954
96521SOL     OW91394   0.489  14.856   9.061
96521SOL    HW191395   0.530   0.031   8.988
96521SOL    HW291396   0.523   0.026   9.139
96522SOL     OW91397   7.095  10.664   9.043
96522SOL    HW191398   7.111  10.755   9.019
96522SOL    HW291399   7.008  10.664   9.082
96523SOL     OW91400  10.332   4.964   8.632
96523SOL    HW191401  10.268   5.035   8.627
96523SOL    HW291402  10.281   4.887   8.658
96524SOL     OW91403   1.797   2.408   3.854
96524SOL    HW191404   1.866   2.431   3.791
96524SOL    HW291405   1.740   2.485   3.855
96525SOL     OW91406   2.503   9.033   1.644
96525SOL    HW191407   2.408   9.020   1.638
96525SOL    HW291408   2.540   8.949   1.616
96526SOL     OW91409   3.194   3.712   5.367
96526SOL    HW191410   3.290   3.706   5.361
96526SOL    HW291411   3.178   3.758   5.449
96527SOL     OW91412  14.054   1.330   0.687
96527SOL    HW191413  14.031   1.263   0.752
96527SOL    HW291414  14.014   1.299   0.605
96528SOL     OW91415   8.900   5.294  13.799
96528SOL    HW191416   8.850   5.350  13.739
96528SOL    HW291417   8.984   5.280  13.755
96529SOL     OW91418   8.962  10.161   5.731
96529SOL    HW191419   9.009  10.239   5.702
96529SOL    HW291420   8.991  10.148   5.821
96530SOL     OW91421   4.079   2.837   6.522
96530SOL    HW191422   3.988   2.848   6.549
96530SOL    HW291423   4.127   2.820   6.603
96531SOL     OW91424   2.738   0.510   9.395
96531SOL    HW191425   2.758   0.464   9.477
96531SOL    HW291426   2.822   0.548   9.368
96532SOL     OW91427  13.547   1.768   6.556
96532SOL    HW191428  13.610   1.695   6.561
96532SOL    HW291429  13.600   1.846   6.572
96533SOL     OW91430  11.469  11.311   9.790
96533SOL    HW191431  11.398  11.373   9.777
96533SOL    HW291432  11.502  11.293   9.702
96534SOL     OW91433   1.857   4.019   8.478
96534SOL    HW191434   1.819   3.932   8.467
96534SOL    HW291435   1.943   4.003   8.516
96535SOL     OW91436   1.658  10.000   2.555
96535SOL    HW191437   1.651   9.925   2.496
96535SOL    HW291438   1.749  10.030   2.545
96536SOL     OW91439   3.252  12.075   7.969
96536SOL    HW191440   3.159  12.075   7.949
96536SOL    HW291441   3.263  12.002   8.030
96537SOL     OW91442   8.661   8.493  14.188
96537SOL    HW191443   8.604   8.416  14.187
96537SOL    HW291444   8.741   8.464  14.145
96538SOL     OW91445   6.033  11.824   5.539
96538SOL    HW191446   5.990  11.900   5.579
96538SOL    HW291447   6.050  11.766   5.613
96539SOL     OW91448   3.477  11.839   5.285
96539SOL    HW191449   3.417  11.765   5.291
96539SOL    HW291450   3.511  11.835   5.196
96540SOL     OW91451   0.283  14.009   4.623
96540SOL    HW191452   0.206  14.065   4.617
96540SOL    HW291453   0.326  14.018   4.538
96541SOL     OW91454   1.476   9.134   9.409
96541SOL    HW191455   1.563   9.174   9.409
96541SOL    HW291456   1.472   9.084   9.491
96542SOL     OW91457   7.025   1.794   9.028
96542SOL    HW191458   6.971   1.873   9.024
96542SOL    HW291459   6.973   1.732   9.079
96543SOL     OW91460   3.311  10.860   0.199
96543SOL    HW191461   3.406  10.868   0.198
96543SOL    HW291462   3.279  10.949   0.183
96544SOL     OW91463  10.579   8.520  10.694
96544SOL    HW191464  10.525   8.540  10.618
96544SOL    HW291465  10.625   8.602  10.713
96545SOL     OW91466  13.540   3.230   1.846
96545SOL    HW191467  13.621   3.206   1.891
96545SOL    HW291468  13.560   3.314   1.803
96546SOL     OW91469   3.997   5.148   4.214
96546SOL    HW191470   4.069   5.196   4.256
96546SOL    HW291471   3.936   5.216   4.187
96547SOL     OW91472   9.279  14.195   8.156
96547SOL    HW191473   9.199  14.154   8.188
96547SOL    HW291474   9.315  14.241   8.232
96548SOL     OW91475   6.801   4.278   5.703
96548SOL    HW191476   6.876   4.227   5.672
96548SOL    HW291477   6.792   4.348   5.638
96549SOL     OW91478   9.256   1.059  14.192
96549SOL    HW191479   9.319   1.004  14.237
96549SOL    HW291480   9.170   1.021  14.213
96550SOL     OW91481   3.222   7.821   7.738
96550SOL    HW191482   3.317   7.812   7.733
96550SOL    HW291483   3.194   7.747   7.791
96551SOL     OW91484   2.200   6.229   6.755
96551SOL    HW191485   2.189   6.209   6.848
96551SOL    HW291486   2.246   6.313   6.753
96552SOL     OW91487  14.238   6.986   4.348
96552SOL    HW191488  14.315   7.039   4.369
96552SOL    HW291489  14.165   7.048   4.354
96553SOL     OW91490   6.190  10.732   5.349
96553SOL    HW191491   6.207  10.824   5.331
96553SOL    HW291492   6.275  10.695   5.372
96554SOL     OW91493   4.805   1.529  13.786
96554SOL    HW191494   4.771   1.451  13.742
96554SOL    HW291495   4.745   1.544  13.859
96555SOL     OW91496  13.028   6.925   5.016
96555SOL    HW191497  13.065   7.004   5.056
96555SOL    HW291498  13.104   6.869   5.001
96556SOL     OW91499   3.898  11.872   1.700
96556SOL    HW191500   3.909  11.965   1.720
96556SOL    HW291501   3.804  11.863   1.683
96557SOL     OW91502   8.934   8.744  11.834
96557SOL    HW191503   8.933   8.799  11.756
96557SOL    HW291504   8.923   8.655  11.801
96558SOL     OW91505  10.022   4.289   7.532
96558SOL    HW191506   9.954   4.325   7.589
96558SOL    HW291507  10.001   4.195   7.527
96559SOL     OW91508   9.750  14.303  11.789
96559SOL    HW191509   9.720  14.364  11.721
96559SOL    HW291510   9.808  14.243  11.742
96560SOL     OW91511   3.441   3.024  12.203
96560SOL    HW191512   3.364   2.981  12.241
96560SOL    HW291513   3.435   3.006  12.109
96561SOL     OW91514  10.965  14.447   2.533
96561SOL    HW191515  10.925  14.400   2.607
96561SOL    HW291516  10.982  14.378   2.468
96562SOL     OW91517   9.483  10.838   7.781
96562SOL    HW191518   9.537  10.890   7.840
96562SOL    HW291519   9.517  10.859   7.694
96563SOL     OW91520   1.442  12.939   7.323
96563SOL    HW191521   1.408  12.973   7.406
96563SOL    HW291522   1.537  12.939   7.334
96564SOL     OW91523   0.216   4.472  14.125
96564SOL    HW191524   0.133   4.481  14.173
96564SOL    HW291525   0.238   4.380  14.133
96565SOL     OW91526   6.571   8.319   5.172
96565SOL    HW191527   6.614   8.394   5.215
96565SOL    HW291528   6.482   8.319   5.206
96566SOL     OW91529  10.025   1.194   1.321
96566SOL    HW191530   9.972   1.176   1.398
96566SOL    HW291531  10.116   1.190   1.352
96567SOL     OW91532   2.331   0.088   4.856
96567SOL    HW191533   2.292   0.054   4.936
96567SOL    HW291534   2.415   0.043   4.849
96568SOL     OW91535   5.918  14.084  11.314
96568SOL    HW191536   5.828  14.099  11.283
96568SOL    HW291537   5.962  14.168  11.299
96569SOL     OW91538   1.664   3.992   2.476
96569SOL    HW191539   1.756   3.986   2.450
96569SOL    HW291540   1.637   3.901   2.489
96570SOL     OW91541   6.033   7.769   7.319
96570SOL    HW191542   6.050   7.675   7.319
96570SOL    HW291543   6.084   7.803   7.393
96571SOL     OW91544  11.533  11.067   6.362
96571SOL    HW191545  11.564  11.037   6.277
96571SOL    HW291546  11.612  11.077   6.415
96572SOL     OW91547   4.868   6.342   1.648
96572SOL    HW191548   4.828   6.372   1.566
96572SOL    HW291549   4.939   6.404   1.664
96573SOL     OW91550  11.533   9.812   4.762
96573SOL    HW191551  11.523   9.893   4.812
96573SOL    HW291552  11.627   9.807   4.743
96574SOL     OW91553  11.979   4.066   9.956
96574SOL    HW191554  12.045   4.015   9.910
96574SOL    HW291555  11.896   4.025   9.932
96575SOL     OW91556  10.620   4.775   5.932
96575SOL    HW191557  10.545   4.811   5.886
96575SOL    HW291558  10.585   4.701   5.982
96576SOL     OW91559   8.125   3.215  11.727
96576SOL    HW191560   8.036   3.180  11.731
96576SOL    HW291561   8.177   3.143  11.693
96577SOL     OW91562  11.798   6.869   3.832
96577SOL    HW191563  11.764   6.890   3.745
96577SOL    HW291564  11.889   6.843   3.817
96578SOL     OW91565   4.677   6.468  10.851
96578SOL    HW191566   4.593   6.485  10.808
96578SOL    HW291567   4.741   6.466  10.780
96579SOL     OW91568   2.874   6.832   3.556
96579SOL    HW191569   2.839   6.821   3.644
96579SOL    HW291570   2.968   6.847   3.568
96580SOL     OW91571  12.761  13.518  11.103
96580SOL    HW191572  12.805  13.572  11.038
96580SOL    HW291573  12.669  13.542  11.097
96581SOL     OW91574  14.117  13.547   6.854
96581SOL    HW191575  14.096  13.600   6.931
96581SOL    HW291576  14.089  13.601   6.780
96582SOL     OW91577   4.240   9.612  13.743
96582SOL    HW191578   4.334   9.625  13.748
96582SOL    HW291579   4.227   9.520  13.767
96583SOL     OW91580  10.529  12.888   6.527
96583SOL    HW191581  10.522  12.806   6.577
96583SOL    HW291582  10.567  12.950   6.589
96584SOL     OW91583   2.211   3.446   5.897
96584SOL    HW191584   2.183   3.460   5.987
96584SOL    HW291585   2.231   3.534   5.864
96585SOL     OW91586   3.184   7.416   8.191
96585SOL    HW191587   3.124   7.394   8.262
96585SOL    HW291588   3.131   7.471   8.132
96586SOL     OW91589  14.230   4.957   8.132
96586SOL    HW191590  14.225   4.886   8.069
96586SOL    HW291591  14.270   5.029   8.083
96587SOL     OW91592   4.102   8.215   7.520
96587SOL    HW191593   4.028   8.179   7.570
96587SOL    HW291594   4.061   8.253   7.442
96588SOL     OW91595  12.505   2.760   5.704
96588SOL    HW191596  12.569   2.702   5.746
96588SOL    HW291597  12.511   2.842   5.754
96589SOL     OW91598   8.562  14.374   9.323
96589SOL    HW191599   8.627  14.440   9.345
96589SOL    HW291600   8.479  14.412   9.351
96590SOL     OW91601   0.465  11.431   8.555
96590SOL    HW191602   0.375  11.450   8.528
96590SOL    HW291603   0.510  11.406   8.474
96591SOL     OW91604   1.680  13.377  12.946
96591SOL    HW191605   1.692  13.283  12.931
96591SOL    HW291606   1.768  13.411  12.959
96592SOL     OW91607   0.486   4.717   3.186
96592SOL    HW191608   0.487   4.804   3.226
96592SOL    HW291609   0.496   4.656   3.259
96593SOL     OW91610   8.442   2.119   0.099
96593SOL    HW191611   8.368   2.058   0.105
96593SOL    HW291612   8.502   2.077   0.037
96594SOL     OW91613  12.918  10.305  13.845
96594SOL    HW191614  12.855  10.263  13.904
96594SOL    HW291615  12.991  10.329  13.902
96595SOL     OW91616  13.224   6.993  11.497
96595SOL    HW191617  13.288   7.008  11.428
96595SOL    HW291618  13.170   7.072  11.499
96596SOL     OW91619   5.884   4.545   8.511
96596SOL    HW191620   5.954   4.480   8.514
96596SOL    HW291621   5.820   4.509   8.450
96597SOL     OW91622   5.387  12.193   6.113
96597SOL    HW191623   5.325  12.167   6.182
96597SOL    HW291624   5.472  12.162   6.144
96598SOL     OW91625   7.800  11.176   8.563
96598SOL    HW191626   7.772  11.098   8.612
96598SOL    HW291627   7.743  11.245   8.595
96599SOL     OW91628  12.271   1.002  11.042
96599SOL    HW191629  12.237   0.930  10.989
96599SOL    HW291630  12.255   0.976  11.133
96600SOL     OW91631   3.029  11.700   2.324
96600SOL    HW191632   3.019  11.635   2.394
96600SOL    HW291633   3.095  11.662   2.266
96601SOL     OW91634  10.469   8.702   5.307
96601SOL    HW191635  10.415   8.778   5.330
96601SOL    HW291636  10.416   8.653   5.244
96602SOL     OW91637   0.036  11.995  13.412
96602SOL    HW191638  14.844  12.064  13.433
96602SOL    HW291639   0.053  11.952  13.496
96603SOL     OW91640   8.168   7.379  10.453
96603SOL    HW191641   8.133   7.453  10.404
96603SOL    HW291642   8.102   7.311  10.445
96604SOL     OW91643   6.629   3.786   9.925
96604SOL    HW191644   6.583   3.742   9.853
96604SOL    HW291645   6.567   3.785   9.998
96605SOL     OW91646   0.594   8.550  12.459
96605SOL    HW191647   0.510   8.529  12.500
96605SOL    HW291648   0.660   8.527  12.524
96606SOL     OW91649  10.965   1.370   7.449
96606SOL    HW191650  11.031   1.438   7.435
96606SOL    HW291651  11.008   1.289   7.419
96607SOL     OW91652  14.574   2.343   3.543
96607SOL    HW191653  14.561   2.257   3.503
96607SOL    HW291654  14.556   2.330   3.636
96608SOL     OW91655   6.805  10.734   0.199
96608SOL    HW191656   6.800  10.639   0.198
96608SOL    HW291657   6.819  10.758   0.107
96609SOL     OW91658  11.625   7.858   0.119
96609SOL    HW191659  11.611   7.765   0.100
96609SOL    HW291660  11.617   7.901   0.035
96610SOL     OW91661   8.439   2.481  11.530
96610SOL    HW191662   8.392   2.402  11.504
96610SOL    HW291663   8.478   2.459  11.615
96611SOL     OW91664   5.944   2.610   1.269
96611SOL    HW191665   5.914   2.680   1.327
96611SOL    HW291666   5.948   2.651   1.182
96612SOL     OW91667  13.286   2.592   5.020
96612SOL    HW191668  13.247   2.654   5.082
96612SOL    HW291669  13.211   2.551   4.977
96613SOL     OW91670  12.107   3.149   5.551
96613SOL    HW191671  12.050   3.172   5.478
96613SOL    HW291672  12.193   3.135   5.512
96614SOL     OW91673   6.250  10.707  12.780
96614SOL    HW191674   6.327  10.653  12.799
96614SOL    HW291675   6.183  10.675  12.841
96615SOL     OW91676  13.436   7.342   4.974
96615SOL    HW191677  13.497   7.294   5.030
96615SOL    HW291678  13.358   7.285   4.970
96616SOL     OW91679  10.533   7.871   7.754
96616SOL    HW191680  10.576   7.907   7.832
96616SOL    HW291681  10.520   7.946   7.697
96617SOL     OW91682  13.886   1.900   1.412
96617SOL    HW191683  13.980   1.883   1.413
96617SOL    HW291684  13.866   1.926   1.322
96618SOL     OW91685   9.921   0.387   5.809
96618SOL    HW191686   9.999   0.391   5.864
96618SOL    HW291687   9.908   0.477   5.780
96619SOL     OW91688  11.583  11.567   2.092
96619SOL    HW191689  11.626  11.528   2.169
96619SOL    HW291690  11.521  11.500   2.063
96620SOL     OW91691  14.537   7.437   3.925
96620SOL    HW191692  14.487   7.489   3.987
96620SOL    HW291693  14.494   7.452   3.841
96621SOL     OW91694   3.607   8.509  13.824
96621SOL    HW191695   3.553   8.431  13.814
96621SOL    HW291696   3.695   8.480  13.803
96622SOL     OW91697  11.881   9.120   7.022
96622SOL    HW191698  11.859   9.200   6.974
96622SOL    HW291699  11.936   9.070   6.961
96623SOL     OW91700   4.445   7.990   8.350
96623SOL    HW191701   4.373   8.047   8.323
96623SOL    HW291702   4.414   7.902   8.332
96624SOL     OW91703   4.391   3.810   1.699
96624SOL    HW191704   4.434   3.845   1.621
96624SOL    HW291705   4.450   3.741   1.730
96625SOL     OW91706   1.965   0.235   9.207
96625SOL    HW191707   1.890   0.175   9.210
96625SOL    HW291708   2.033   0.191   9.259
96626SOL     OW91709   2.226   1.512   2.743
96626SOL    HW191710   2.195   1.422   2.756
96626SOL    HW291711   2.146   1.565   2.742
96627SOL     OW91712   9.318   5.528   8.404
96627SOL    HW191713   9.392   5.500   8.458
96627SOL    HW291714   9.358   5.576   8.332
96628SOL     OW91715   4.428  14.077  12.304
96628SOL    HW191716   4.480  14.001  12.276
96628SOL    HW291717   4.468  14.104  12.386
96629SOL     OW91718   4.326  10.306   4.875
96629SOL    HW191719   4.306  10.213   4.865
96629SOL    HW291720   4.247  10.351   4.846
96630SOL     OW91721   3.671  13.270   6.033
96630SOL    HW191722   3.625  13.197   5.990
96630SOL    HW291723   3.763  13.243   6.033
96631SOL     OW91724   2.251  14.797   5.289
96631SOL    HW191725   2.335  14.814   5.247
96631SOL    HW291726   2.255  14.845   5.371
96632SOL     OW91727   4.774   6.410   1.051
96632SOL    HW191728   4.791   6.317   1.068
96632SOL    HW291729   4.686   6.425   1.086
96633SOL     OW91730   4.155   2.716  13.207
96633SOL    HW191731   4.124   2.680  13.124
96633SOL    HW291732   4.079   2.760  13.245
96634SOL     OW91733   5.664  10.522  10.172
96634SOL    HW191734   5.612  10.559  10.244
96634SOL    HW291735   5.679  10.596  10.113
96635SOL     OW91736   3.971  11.990   0.722
96635SOL    HW191737   3.921  11.935   0.783
96635SOL    HW291738   3.912  12.062   0.702
96636SOL     OW91739   1.827   0.730  11.493
96636SOL    HW191740   1.807   0.650  11.543
96636SOL    HW291741   1.910   0.711  11.450
96637SOL     OW91742   3.342  12.262   3.563
96637SOL    HW191743   3.331  12.167   3.564
96637SOL    HW291744   3.271  12.294   3.508
96638SOL     OW91745   9.545   8.069   5.811
96638SOL    HW191746   9.508   8.157   5.809
96638SOL    HW291747   9.636   8.081   5.781
96639SOL     OW91748   7.333   0.768  14.104
96639SOL    HW191749   7.337   0.764  14.199
96639SOL    HW291750   7.410   0.720  14.074
96640SOL     OW91751   2.483   7.654   1.980
96640SOL    HW191752   2.506   7.569   1.944
96640SOL    HW291753   2.479   7.640   2.075
96641SOL     OW91754  10.762  14.237  13.355
96641SOL    HW191755  10.815  14.185  13.295
96641SOL    HW291756  10.786  14.328  13.335
96642SOL     OW91757   4.669   4.448   0.467
96642SOL    HW191758   4.657   4.392   0.543
96642SOL    HW291759   4.623   4.529   0.488
96643SOL     OW91760  10.489   2.535  12.851
96643SOL    HW191761  10.556   2.515  12.916
96643SOL    HW291762  10.536   2.577  12.779
96644SOL     OW91763   0.302   2.051   1.368
96644SOL    HW191764   0.278   1.984   1.305
96644SOL    HW291765   0.227   2.111   1.368
96645SOL     OW91766   5.058   5.749  11.767
96645SOL    HW191767   5.146   5.717  11.747
96645SOL    HW291768   5.073   5.832  11.812
96646SOL     OW91769   4.348   1.776   5.852
96646SOL    HW191770   4.387   1.724   5.781
96646SOL    HW291771   4.295   1.713   5.901
96647SOL     OW91772  13.679   7.842   9.214
96647SOL    HW191773  13.658   7.931   9.184
96647SOL    HW291774  13.659   7.786   9.139
96648SOL     OW91775   2.789  13.313   7.441
96648SOL    HW191776   2.703  13.354   7.442
96648SOL    HW291777   2.797  13.276   7.353
96649SOL     OW91778   8.310  10.022  11.698
96649SOL    HW191779   8.259   9.951  11.734
96649SOL    HW291780   8.400   9.989  11.698
96650SOL     OW91781  14.613  11.900   9.231
96650SOL    HW191782  14.596  11.901   9.137
96650SOL    HW291783  14.708  11.913   9.238
96651SOL     OW91784   2.549   5.162  14.591
96651SOL    HW191785   2.598   5.227  14.540
96651SOL    HW291786   2.459   5.196  14.591
96652SOL     OW91787   0.515  12.586   0.887
96652SOL    HW191788   0.453  12.642   0.841
96652SOL    HW291789   0.540  12.637   0.964
96653SOL     OW91790  12.829  12.993   5.370
96653SOL    HW191791  12.801  13.012   5.281
96653SOL    HW291792  12.919  13.027   5.374
96654SOL     OW91793  11.833   7.167   0.699
96654SOL    HW191794  11.740   7.161   0.679
96654SOL    HW291795  11.877   7.160   0.614
96655SOL     OW91796  10.738   5.299   0.112
96655SOL    HW191797  10.667   5.295   0.047
96655SOL    HW291798  10.817   5.315   0.060
96656SOL     OW91799   1.733   6.575   3.756
96656SOL    HW191800   1.818   6.538   3.781
96656SOL    HW291801   1.682   6.501   3.724
96657SOL     OW91802  14.687   8.100   7.458
96657SOL    HW191803  14.671   8.092   7.364
96657SOL    HW291804  14.724   8.188   7.468
96658SOL     OW91805  10.157   7.525   7.763
96658SOL    HW191806  10.133   7.579   7.688
96658SOL    HW291807  10.245   7.555   7.787
96659SOL     OW91808   3.667  10.504  10.883
96659SOL    HW191809   3.592  10.533  10.935
96659SOL    HW291810   3.658  10.409  10.878
96660SOL     OW91811   5.604  10.175   8.265
96660SOL    HW191812   5.578  10.169   8.357
96660SOL    HW291813   5.666  10.103   8.252
96661SOL     OW91814   9.744   2.953  12.750
96661SOL    HW191815   9.751   3.022  12.684
96661SOL    HW291816   9.835   2.934  12.775
96662SOL     OW91817  11.869   6.097   6.989
96662SOL    HW191818  11.778   6.069   6.997
96662SOL    HW291819  11.890   6.087   6.897
96663SOL     OW91820   2.416   0.653  11.341
96663SOL    HW191821   2.485   0.691  11.287
96663SOL    HW291822   2.418   0.560  11.322
96664SOL     OW91823   9.442   2.102   1.672
96664SOL    HW191824   9.524   2.141   1.642
96664SOL    HW291825   9.379   2.123   1.603
96665SOL     OW91826  14.089   5.767   7.191
96665SOL    HW191827  14.183   5.747   7.190
96665SOL    HW291828  14.063   5.753   7.282
96666SOL     OW91829  11.734   8.278   0.366
96666SOL    HW191830  11.783   8.242   0.440
96666SOL    HW291831  11.758   8.222   0.292
96667SOL     OW91832   6.555   3.523   8.479
96667SOL    HW191833   6.507   3.595   8.518
96667SOL    HW291834   6.496   3.448   8.484
96668SOL     OW91835  13.221   7.598   7.505
96668SOL    HW191836  13.240   7.690   7.525
96668SOL    HW291837  13.192   7.598   7.414
96669SOL     OW91838   5.175   4.923   9.045
96669SOL    HW191839   5.209   4.962   8.964
96669SOL    HW291840   5.250   4.921   9.104
96670SOL     OW91841   7.589   9.119   1.357
96670SOL    HW191842   7.530   9.099   1.285
96670SOL    HW291843   7.676   9.096   1.323
96671SOL     OW91844   6.254  13.014  12.018
96671SOL    HW191845   6.289  12.981  11.935
96671SOL    HW291846   6.321  13.074  12.050
96672SOL     OW91847   8.078   2.335   2.364
96672SOL    HW191848   8.017   2.275   2.407
96672SOL    HW291849   8.093   2.404   2.428
96673SOL     OW91850  14.295   8.033   4.545
96673SOL    HW191851  14.345   8.034   4.463
96673SOL    HW291852  14.362   8.026   4.613
96674SOL     OW91853   7.109  13.123   7.416
96674SOL    HW191854   7.152  13.164   7.341
96674SOL    HW291855   7.106  13.030   7.395
96675SOL     OW91856   7.054   1.224   6.151
96675SOL    HW191857   7.113   1.204   6.224
96675SOL    HW291858   6.972   1.252   6.194
96676SOL     OW91859  13.567   9.970   9.331
96676SOL    HW191860  13.610  10.042   9.284
96676SOL    HW291861  13.637   9.906   9.344
96677SOL     OW91862  14.809  12.172   1.490
96677SOL    HW191863  14.780  12.094   1.443
96677SOL    HW291864  14.841  12.139   1.574
96678SOL     OW91865  11.430  13.634   8.039
96678SOL    HW191866  11.471  13.711   7.999
96678SOL    HW291867  11.475  13.623   8.123
96679SOL     OW91868  11.956   2.210   2.595
96679SOL    HW191869  11.919   2.201   2.683
96679SOL    HW291870  12.026   2.146   2.591
96680SOL     OW91871  13.025   5.048  10.660
96680SOL    HW191872  13.051   4.963  10.625
96680SOL    HW291873  12.955   5.029  10.722
96681SOL     OW91874   8.201   2.247   6.252
96681SOL    HW191875   8.246   2.329   6.270
96681SOL    HW291876   8.197   2.202   6.336
96682SOL     OW91877  14.123   2.181   5.549
96682SOL    HW191878  14.079   2.172   5.465
96682SOL    HW291879  14.182   2.256   5.537
96683SOL     OW91880   5.409   8.027   1.107
96683SOL    HW191881   5.492   8.075   1.103
96683SOL    HW291882   5.385   8.013   1.015
96684SOL     OW91883   9.961   9.821  12.230
96684SOL    HW191884   9.930   9.866  12.151
96684SOL    HW291885   9.881   9.792  12.274
96685SOL     OW91886  14.550   7.698  10.110
96685SOL    HW191887  14.575   7.783  10.074
96685SOL    HW291888  14.633   7.650  10.118
96686SOL     OW91889   4.613   5.628   1.421
96686SOL    HW191890   4.703   5.658   1.434
96686SOL    HW291891   4.564   5.708   1.400
96687SOL     OW91892   1.994   6.785   7.149
96687SOL    HW191893   1.946   6.830   7.079
96687SOL    HW291894   2.061   6.848   7.177
96688SOL     OW91895   5.521  11.310   5.012
96688SOL    HW191896   5.467  11.389   5.007
96688SOL    HW291897   5.599  11.331   4.961
96689SOL     OW91898   1.247  12.185   3.631
96689SOL    HW191899   1.325  12.146   3.593
96689SOL    HW291900   1.265  12.279   3.632
96690SOL     OW91901   0.483   6.719   6.436
96690SOL    HW191902   0.504   6.773   6.511
96690SOL    HW291903   0.416   6.769   6.389
96691SOL     OW91904   6.445   2.694   5.553
96691SOL    HW191905   6.409   2.774   5.592
96691SOL    HW291906   6.369   2.640   5.534
96692SOL     OW91907  10.259   8.381   4.286
96692SOL    HW191908  10.329   8.320   4.308
96692SOL    HW291909  10.237   8.424   4.368
96693SOL     OW91910  14.301  11.682  12.299
96693SOL    HW191911  14.379  11.627  12.309
96693SOL    HW291912  14.277  11.673  12.207
96694SOL     OW91913  14.101  13.542   4.759
96694SOL    HW191914  14.115  13.496   4.843
96694SOL    HW291915  14.113  13.474   4.693
96695SOL     OW91916   2.474  10.570   6.875
96695SOL    HW191917   2.393  10.599   6.918
96695SOL    HW291918   2.485  10.631   6.802
96696SOL     OW91919   4.444   6.391   5.806
96696SOL    HW191920   4.397   6.343   5.874
96696SOL    HW291921   4.382   6.398   5.734
96697SOL     OW91922   2.923  14.031   9.210
96697SOL    HW191923   3.012  14.050   9.240
96697SOL    HW291924   2.891  14.114   9.176
96698SOL     OW91925  14.343  13.632   5.015
96698SOL    HW191926  14.314  13.541   5.014
96698SOL    HW291927  14.277  13.678   5.067
96699SOL     OW91928   1.501   8.363   9.308
96699SOL    HW191929   1.491   8.420   9.385
96699SOL    HW291930   1.412   8.354   9.274
96700SOL     OW91931   0.324   2.544   4.028
96700SOL    HW191932   0.372   2.623   4.053
96700SOL    HW291933   0.329   2.542   3.933
96701SOL     OW91934   0.062  12.409   3.986
96701SOL    HW191935  14.863  12.419   3.923
96701SOL    HW291936   0.022  12.365   4.061
96702SOL     OW91937   8.668  13.688   2.608
96702SOL    HW191938   8.698  13.607   2.648
96702SOL    HW291939   8.585  13.708   2.653
96703SOL     OW91940   4.871   4.037   6.489
96703SOL    HW191941   4.792   4.026   6.436
96703SOL    HW291942   4.938   4.066   6.426
96704SOL     OW91943   3.688   1.758   1.506
96704SOL    HW191944   3.772   1.745   1.462
96704SOL    HW291945   3.680   1.853   1.514
96705SOL     OW91946   3.780   1.609   4.904
96705SOL    HW191947   3.800   1.681   4.844
96705SOL    HW291948   3.828   1.534   4.869
96706SOL     OW91949   4.341  13.734   7.759
96706SOL    HW191950   4.332  13.658   7.816
96706SOL    HW291951   4.368  13.698   7.674
96707SOL     OW91952   0.750  12.658  13.606
96707SOL    HW191953   0.747  12.628  13.515
96707SOL    HW291954   0.725  12.582  13.657
96708SOL     OW91955   8.023   6.769  10.412
96708SOL    HW191956   7.992   6.854  10.380
96708SOL    HW291957   8.029   6.715  10.333
96709SOL     OW91958   8.595   2.894   1.231
96709SOL    HW191959   8.552   2.957   1.172
96709SOL    HW291960   8.592   2.936   1.317
96710SOL     OW91961   9.824  12.574   2.659
96710SOL    HW191962   9.788  12.598   2.744
96710SOL    HW291963   9.757  12.520   2.618
96711SOL     OW91964   5.251   3.331   2.131
96711SOL    HW191965   5.264   3.315   2.037
96711SOL    HW291966   5.273   3.424   2.142
96712SOL     OW91967  11.686   2.917   4.740
96712SOL    HW191968  11.610   2.916   4.798
96712SOL    HW291969  11.761   2.924   4.799
96713SOL     OW91970   0.497   7.238  13.957
96713SOL    HW191971   0.429   7.171  13.953
96713SOL    HW291972   0.577   7.192  13.929
96714SOL     OW91973   5.401   3.111   4.863
96714SOL    HW191974   5.356   3.155   4.935
96714SOL    HW291975   5.374   3.158   4.785
96715SOL     OW91976  14.387  12.713   9.026
96715SOL    HW191977  14.437  12.727   9.106
96715SOL    HW291978  14.328  12.641   9.046
96716SOL     OW91979   0.639  10.769   5.203
96716SOL    HW191980   0.637  10.763   5.298
96716SOL    HW291981   0.551  10.742   5.176
96717SOL     OW91982   7.317   8.438   9.376
96717SOL    HW191983   7.411   8.417   9.378
96717SOL    HW291984   7.306   8.491   9.298
96718SOL     OW91985   4.611   1.131  10.977
96718SOL    HW191986   4.667   1.084  10.915
96718SOL    HW291987   4.579   1.207  10.927
96719SOL     OW91988   5.462   5.306  13.140
96719SOL    HW191989   5.429   5.393  13.161
96719SOL    HW291990   5.547   5.300  13.183
96720SOL     OW91991   1.965  13.409   8.891
96720SOL    HW191992   1.977  13.316   8.906
96720SOL    HW291993   1.951  13.417   8.797
96721SOL     OW91994   2.889   9.395   5.362
96721SOL    HW191995   2.872   9.329   5.429
96721SOL    HW291996   2.961   9.447   5.397
96722SOL     OW91997  12.528  14.249   8.282
96722SOL    HW191998  12.594  14.186   8.308
96722SOL    HW291999  12.561  14.287   8.200
96723SOL     OW92000   0.088   5.718   4.152
96723SOL    HW192001   0.129   5.709   4.238
96723SOL    HW292002   0.086   5.629   4.117
96724SOL     OW92003  13.713  11.912  12.401
96724SOL    HW192004  13.727  11.886  12.492
96724SOL    HW292005  13.793  11.887  12.356
96725SOL     OW92006  11.112   5.862   7.980
96725SOL    HW192007  11.175   5.812   7.929
96725SOL    HW292008  11.071   5.921   7.916
96726SOL     OW92009   1.756   7.023  14.845
96726SOL    HW192010   1.730   6.939   0.012
96726SOL    HW292011   1.805   6.998  14.767
96727SOL     OW92012  14.308   4.530  14.007
96727SOL    HW192013  14.242   4.471  13.972
96727SOL    HW292014  14.277   4.618  13.983
96728SOL     OW92015  11.923  12.437  13.828
96728SOL    HW192016  12.000  12.481  13.862
96728SOL    HW292017  11.855  12.453  13.894
96729SOL     OW92018  11.658   7.181   6.578
96729SOL    HW192019  11.672   7.088   6.564
96729SOL    HW292020  11.605   7.208   6.502
96730SOL     OW92021   5.383  12.115   9.327
96730SOL    HW192022   5.431  12.182   9.375
96730SOL    HW292023   5.293  12.147   9.323
96731SOL     OW92024  14.272   4.094   6.660
96731SOL    HW192025  14.259   4.160   6.591
96731SOL    HW292026  14.268   4.145   6.741
96732SOL     OW92027  13.617   1.668  11.004
96732SOL    HW192028  13.576   1.740  10.954
96732SOL    HW292029  13.665   1.712  11.074
96733SOL     OW92030   0.536  12.810   1.760
96733SOL    HW192031   0.450  12.847   1.737
96733SOL    HW292032   0.515  12.726   1.801
96734SOL     OW92033   0.317   3.984  13.158
96734SOL    HW192034   0.259   4.013  13.228
96734SOL    HW292035   0.322   3.889  13.169
96735SOL     OW92036   1.526   2.072   5.108
96735SOL    HW192037   1.601   2.108   5.061
96735SOL    HW292038   1.520   1.981   5.078
96736SOL     OW92039  14.080  13.136  13.876
96736SOL    HW192040  14.018  13.147  13.947
96736SOL    HW292041  14.165  13.157  13.915
96737SOL     OW92042   5.547   2.818  13.592
96737SOL    HW192043   5.525   2.761  13.519
96737SOL    HW292044   5.637   2.792  13.616
96738SOL     OW92045   6.935   4.906   0.781
96738SOL    HW192046   6.985   4.831   0.748
96738SOL    HW292047   6.971   4.921   0.868
96739SOL     OW92048   1.773   3.499  10.028
96739SOL    HW192049   1.745   3.451  10.107
96739SOL    HW292050   1.694   3.542   9.997
96740SOL     OW92051  12.395   0.619  12.244
96740SOL    HW192052  12.319   0.576  12.284
96740SOL    HW292053  12.434   0.550  12.189
96741SOL     OW92054   4.741  13.543  10.280
96741SOL    HW192055   4.710  13.570  10.194
96741SOL    HW292056   4.833  13.520  10.266
96742SOL     OW92057   1.810   5.023  13.300
96742SOL    HW192058   1.796   4.931  13.324
96742SOL    HW292059   1.904   5.037  13.312
96743SOL     OW92060  13.049  14.150  12.467
96743SOL    HW192061  13.131  14.116  12.504
96743SOL    HW292062  13.043  14.109  12.381
96744SOL     OW92063   4.861   5.988  13.857
96744SOL    HW192064   4.803   6.041  13.801
96744SOL    HW292065   4.803   5.926  13.900
96745SOL     OW92066   4.848   3.978  10.300
96745SOL    HW192067   4.895   4.019  10.227
96745SOL    HW292068   4.859   4.039  10.373
96746SOL     OW92069  11.089   8.451   7.855
96746SOL    HW192070  11.052   8.464   7.942
96746SOL    HW292071  11.171   8.500   7.856
96747SOL     OW92072  12.926   6.146  13.336
96747SOL    HW192073  12.975   6.160  13.255
96747SOL    HW292074  12.876   6.226  13.348
96748SOL     OW92075   3.214  12.756   9.909
96748SOL    HW192076   3.212  12.661   9.894
96748SOL    HW292077   3.158  12.792   9.841
96749SOL     OW92078   7.463   6.461   4.715
96749SOL    HW192079   7.406   6.503   4.779
96749SOL    HW292080   7.426   6.486   4.630
96750SOL     OW92081  13.689   1.681  11.582
96750SOL    HW192082  13.649   1.685  11.669
96750SOL    HW292083  13.676   1.591  11.553
96751SOL     OW92084   0.652   5.247  13.098
96751SOL    HW192085   0.709   5.318  13.068
96751SOL    HW292086   0.589   5.235  13.027
96752SOL     OW92087   7.561   8.459   2.874
96752SOL    HW192088   7.591   8.518   2.944
96752SOL    HW292089   7.639   8.443   2.822
96753SOL     OW92090   8.593   0.020   3.198
96753SOL    HW192091   8.653   0.003   3.271
96753SOL    HW292092   8.593  14.810   3.148
96754SOL     OW92093   7.086   4.895   9.662
96754SOL    HW192094   7.180   4.885   9.648
96754SOL    HW292095   7.047   4.883   9.575
96755SOL     OW92096  10.415  12.221   0.308
96755SOL    HW192097  10.369  12.165   0.369
96755SOL    HW292098  10.379  12.199   0.222
96756SOL     OW92099   1.121  14.307   3.630
96756SOL    HW192100   1.106  14.213   3.620
96756SOL    HW292101   1.044  14.348   3.591
96757SOL     OW92102   8.198  12.155   0.393
96757SOL    HW192103   8.205  12.242   0.431
96757SOL    HW292104   8.200  12.096   0.469
96758SOL     OW92105   0.789  13.425  13.961
96758SOL    HW192106   0.698  13.405  13.982
96758SOL    HW292107   0.840  13.371  14.021
96759SOL     OW92108  10.445   8.193   2.847
96759SOL    HW192109  10.513   8.152   2.794
96759SOL    HW292110  10.431   8.133   2.920
96760SOL     OW92111  10.914  10.193   6.554
96760SOL    HW192112  10.826  10.178   6.520
96760SOL    HW292113  10.907  10.173   6.648
96761SOL     OW92114  13.721  13.711   0.438
96761SOL    HW192115  13.747  13.802   0.447
96761SOL    HW292116  13.626  13.714   0.428
96762SOL     OW92117   8.480   2.265   4.515
96762SOL    HW192118   8.494   2.320   4.438
96762SOL    HW292119   8.412   2.203   4.490
96763SOL     OW92120   1.705   7.560  10.608
96763SOL    HW192121   1.610   7.573  10.611
96763SOL    HW292122   1.716   7.479  10.558
96764SOL     OW92123  13.504  11.133   6.694
96764SOL    HW192124  13.523  11.219   6.730
96764SOL    HW292125  13.409  11.127   6.694
96765SOL     OW92126   0.957   3.015   1.396
96765SOL    HW192127   0.956   3.080   1.466
96765SOL    HW292128   0.984   2.934   1.439
96766SOL     OW92129   5.972   8.109  13.113
96766SOL    HW192130   6.056   8.134  13.074
96766SOL    HW292131   5.917   8.085  13.038
96767SOL     OW92132   6.220   0.693   1.526
96767SOL    HW192133   6.204   0.600   1.540
96767SOL    HW292134   6.278   0.719   1.597
96768SOL     OW92135   7.841   7.677   4.090
96768SOL    HW192136   7.816   7.691   4.182
96768SOL    HW292137   7.800   7.594   4.067
96769SOL     OW92138   9.525   8.630   2.667
96769SOL    HW192139   9.458   8.562   2.673
96769SOL    HW292140   9.608   8.583   2.678
96770SOL     OW92141  12.864   8.921  10.655
96770SOL    HW192142  12.821   8.976  10.721
96770SOL    HW292143  12.875   8.978  10.579
96771SOL     OW92144  13.339  14.617  12.843
96771SOL    HW192145  13.304  14.635  12.756
96771SOL    HW292146  13.340  14.701  12.887
96772SOL     OW92147   3.657   0.551   7.871
96772SOL    HW192148   3.687   0.638   7.897
96772SOL    HW292149   3.684   0.494   7.943
96773SOL     OW92150   3.015   1.588   6.719
96773SOL    HW192151   2.941   1.548   6.673
96773SOL    HW292152   2.994   1.681   6.722
96774SOL     OW92153   0.444  11.563   7.722
96774SOL    HW192154   0.429  11.479   7.679
96774SOL    HW292155   0.512  11.546   7.786
96775SOL     OW92156  12.904  11.316   4.539
96775SOL    HW192157  12.964  11.327   4.613
96775SOL    HW292158  12.848  11.393   4.542
96776SOL     OW92159  14.073   3.434   3.434
96776SOL    HW192160  14.007   3.364   3.440
96776SOL    HW292161  14.156   3.388   3.446
96777SOL     OW92162   4.554   3.595   9.392
96777SOL    HW192163   4.469   3.558   9.416
96777SOL    HW292164   4.592   3.530   9.333
96778SOL     OW92165   1.541   4.878  11.891
96778SOL    HW192166   1.561   4.924  11.972
96778SOL    HW292167   1.488   4.803  11.918
96779SOL     OW92168   5.029  12.435   8.322
96779SOL    HW192169   5.002  12.462   8.410
96779SOL    HW292170   4.962  12.469   8.264
96780SOL     OW92171   0.345   1.034   3.801
96780SOL    HW192172   0.263   0.985   3.806
96780SOL    HW292173   0.402   0.979   3.747
96781SOL     OW92174  10.533   8.887   6.472
96781SOL    HW192175  10.592   8.827   6.426
96781SOL    HW292176  10.545   8.866   6.565
96782SOL     OW92177  12.689  12.402   2.647
96782SOL    HW192178  12.665  12.408   2.555
96782SOL    HW292179  12.619  12.450   2.692
96783SOL     OW92180  12.831  11.980   6.639
96783SOL    HW192181  12.892  11.956   6.569
96783SOL    HW292182  12.744  11.964   6.601
96784SOL     OW92183   0.704  11.337   6.104
96784SOL    HW192184   0.651  11.416   6.114
96784SOL    HW292185   0.771  11.361   6.039
96785SOL     OW92186   0.333   9.534   1.677
96785SOL    HW192187   0.380   9.478   1.615
96785SOL    HW292188   0.286   9.597   1.621
96786SOL     OW92189   3.106  12.691   8.094
96786SOL    HW192190   3.073  12.657   8.177
96786SOL    HW292191   3.201  12.680   8.099
96787SOL     OW92192   5.569   1.675  10.894
96787SOL    HW192193   5.659   1.677  10.927
96787SOL    HW292194   5.578   1.688  10.800
96788SOL     OW92195   4.766   8.578   3.865
96788SOL    HW192196   4.824   8.571   3.940
96788SOL    HW292197   4.823   8.608   3.794
96789SOL     OW92198  13.334   6.058   0.529
96789SOL    HW192199  13.310   6.106   0.608
96789SOL    HW292200  13.421   6.092   0.506
96790SOL     OW92201   5.564  14.104   8.375
96790SOL    HW192202   5.625  14.032   8.360
96790SOL    HW292203   5.574  14.124   8.468
96791SOL     OW92204   0.148   5.359   1.508
96791SOL    HW192205   0.219   5.347   1.445
96791SOL    HW292206   0.069   5.363   1.454
96792SOL     OW92207  11.859   3.314   3.312
96792SOL    HW192208  11.869   3.258   3.235
96792SOL    HW292209  11.913   3.391   3.292
96793SOL     OW92210   2.253   1.849  10.276
96793SOL    HW192211   2.335   1.892  10.301
96793SOL    HW292212   2.234   1.791  10.350
96794SOL     OW92213   6.057  14.656   0.138
96794SOL    HW192214   5.980  14.647   0.194
96794SOL    HW292215   6.087  14.746   0.152
96795SOL     OW92216  14.790   7.534   7.670
96795SOL    HW192217  14.779   7.498   7.582
96795SOL    HW292218  14.704   7.522   7.711
96796SOL     OW92219  13.419  11.328   3.850
96796SOL    HW192220  13.449  11.392   3.914
96796SOL    HW292221  13.326  11.314   3.872
96797SOL     OW92222   3.433   4.217   7.775
96797SOL    HW192223   3.515   4.210   7.726
96797SOL    HW292224   3.373   4.262   7.715
96798SOL     OW92225   9.539  13.812   4.571
96798SOL    HW192226   9.507  13.722   4.564
96798SOL    HW292227   9.492  13.849   4.646
96799SOL     OW92228   1.238   0.127  10.876
96799SOL    HW192229   1.240   0.117  10.971
96799SOL    HW292230   1.183   0.055  10.846
96800SOL     OW92231   4.061   3.236   5.947
96800SOL    HW192232   4.130   3.171   5.963
96800SOL    HW292233   3.980   3.190   5.966
96801SOL     OW92234   9.963   8.792   3.571
96801SOL    HW192235   9.960   8.742   3.653
96801SOL    HW292236  10.016   8.739   3.512
96802SOL     OW92237   0.902   1.209   9.219
96802SOL    HW192238   0.916   1.276   9.151
96802SOL    HW292239   0.863   1.136   9.172
96803SOL     OW92240  12.500   9.554   0.916
96803SOL    HW192241  12.457   9.625   0.963
96803SOL    HW292242  12.453   9.475   0.943
96804SOL     OW92243  12.569   1.476   3.156
96804SOL    HW192244  12.497   1.540   3.159
96804SOL    HW292245  12.638   1.520   3.108
96805SOL     OW92246   9.052  13.241   9.773
96805SOL    HW192247   8.967  13.271   9.741
96805SOL    HW292248   9.048  13.145   9.765
96806SOL     OW92249   7.274   0.330   0.391
96806SOL    HW192250   7.205   0.335   0.457
96806SOL    HW292251   7.343   0.388   0.424
96807SOL     OW92252   7.354   9.017   9.779
96807SOL    HW192253   7.370   8.932   9.739
96807SOL    HW292254   7.433   9.068   9.761
96808SOL     OW92255  13.322   1.980  12.935
96808SOL    HW192256  13.357   2.064  12.965
96808SOL    HW292257  13.359   1.968  12.847
96809SOL     OW92258   5.851   6.756   3.737
96809SOL    HW192259   5.792   6.705   3.791
96809SOL    HW292260   5.870   6.834   3.789
96810SOL     OW92261  11.383  11.684   0.444
96810SOL    HW192262  11.416  11.684   0.534
96810SOL    HW292263  11.435  11.617   0.400
96811SOL     OW92264   5.173  11.128   9.599
96811SOL    HW192265   5.220  11.193   9.651
96811SOL    HW292266   5.236  11.057   9.585
96812SOL     OW92267   8.338  12.377  10.687
96812SOL    HW192268   8.390  12.457  10.683
96812SOL    HW292269   8.277  12.391  10.759
96813SOL     OW92270   6.109   0.214  13.906
96813SOL    HW192271   6.082   0.141  13.851
96813SOL    HW292272   6.203   0.223  13.890
96814SOL     OW92273   5.147  11.134   2.064
96814SOL    HW192274   5.075  11.163   2.119
96814SOL    HW292275   5.223  11.133   2.123
96815SOL     OW92276  13.671   4.305   7.112
96815SOL    HW192277  13.626   4.333   7.192
96815SOL    HW292278  13.710   4.221   7.134
96816SOL     OW92279  13.969   2.732  11.421
96816SOL    HW192280  14.040   2.738  11.356
96816SOL    HW292281  14.011   2.757  11.503
96817SOL     OW92282   2.409   0.355  12.387
96817SOL    HW192283   2.387   0.427  12.446
96817SOL    HW292284   2.345   0.361  12.316
96818SOL     OW92285   4.905   3.304  10.847
96818SOL    HW192286   4.980   3.320  10.904
96818SOL    HW292287   4.852   3.384  10.853
96819SOL     OW92288   3.289  14.084   1.516
96819SOL    HW192289   3.234  14.107   1.441
96819SOL    HW292290   3.251  14.003   1.549
96820SOL     OW92291   3.486   7.301   9.160
96820SOL    HW192292   3.434   7.240   9.107
96820SOL    HW292293   3.553   7.247   9.201
96821SOL     OW92294   6.499  11.313   5.236
96821SOL    HW192295   6.410  11.294   5.206
96821SOL    HW292296   6.556  11.262   5.178
96822SOL     OW92297   1.237   6.146  14.314
96822SOL    HW192298   1.187   6.191  14.381
96822SOL    HW292299   1.326   6.181  14.322
96823SOL     OW92300  10.015  10.475   4.731
96823SOL    HW192301  10.051  10.389   4.711
96823SOL    HW292302  10.059  10.500   4.812
96824SOL     OW92303   1.685   7.669   6.775
96824SOL    HW192304   1.741   7.591   6.775
96824SOL    HW292305   1.598   7.635   6.797
96825SOL     OW92306  11.540  12.722  14.280
96825SOL    HW192307  11.633  12.725  14.301
96825SOL    HW292308  11.527  12.795  14.220
96826SOL     OW92309   8.798   9.768   0.625
96826SOL    HW192310   8.712   9.739   0.594
96826SOL    HW292311   8.783   9.795   0.716
96827SOL     OW92312   9.090   5.702   0.423
96827SOL    HW192313   9.002   5.690   0.460
96827SOL    HW292314   9.089   5.652   0.342
96828SOL     OW92315  13.589   9.580  13.423
96828SOL    HW192316  13.642   9.544  13.495
96828SOL    HW292317  13.505   9.602  13.463
96829SOL     OW92318   5.076  13.620  12.057
96829SOL    HW192319   5.140  13.672  12.106
96829SOL    HW292320   5.086  13.531  12.093
96830SOL     OW92321  11.724  12.897   7.115
96830SOL    HW192322  11.698  12.810   7.145
96830SOL    HW292323  11.819  12.895   7.114
96831SOL     OW92324  12.795   1.789   5.316
96831SOL    HW192325  12.749   1.811   5.235
96831SOL    HW292326  12.757   1.705   5.343
96832SOL     OW92327  12.280  13.507   3.377
96832SOL    HW192328  12.243  13.492   3.464
96832SOL    HW292329  12.258  13.598   3.358
96833SOL     OW92330   2.113  12.871   1.717
96833SOL    HW192331   2.056  12.843   1.789
96833SOL    HW292332   2.195  12.824   1.732
96834SOL     OW92333   5.823  14.138   3.022
96834SOL    HW192334   5.813  14.069   3.089
96834SOL    HW292335   5.917  14.153   3.018
96835SOL     OW92336   1.760   2.328  11.984
96835SOL    HW192337   1.755   2.301  12.076
96835SOL    HW292338   1.745   2.247  11.935
96836SOL     OW92339   9.961   0.796  12.465
96836SOL    HW192340   9.973   0.890  12.448
96836SOL    HW292341  10.049   0.764  12.485
96837SOL     OW92342  11.727   8.925   2.759
96837SOL    HW192343  11.738   9.010   2.715
96837SOL    HW292344  11.636   8.901   2.743
96838SOL     OW92345  13.463  12.923  13.486
96838SOL    HW192346  13.457  12.879  13.401
96838SOL    HW292347  13.372  12.946  13.507
96839SOL     OW92348  10.514   1.837   9.135
96839SOL    HW192349  10.438   1.880   9.176
96839SOL    HW292350  10.552   1.904   9.079
96840SOL     OW92351   5.781   2.161   4.655
96840SOL    HW192352   5.803   2.246   4.693
96840SOL    HW292353   5.854   2.140   4.598
96841SOL     OW92354   1.490   5.040  13.255
96841SOL    HW192355   1.442   5.060  13.335
96841SOL    HW292356   1.455   5.100  13.190
96842SOL     OW92357  11.656   2.957  12.023
96842SOL    HW192358  11.668   2.934  12.115
96842SOL    HW292359  11.562   2.975  12.015
96843SOL     OW92360   0.529   7.946   4.584
96843SOL    HW192361   0.503   8.029   4.624
96843SOL    HW292362   0.453   7.888   4.597
96844SOL     OW92363   0.751   8.232  13.200
96844SOL    HW192364   0.759   8.320  13.165
96844SOL    HW292365   0.660   8.208  13.186
96845SOL     OW92366  13.802   8.027  10.979
96845SOL    HW192367  13.786   7.970  10.904
96845SOL    HW292368  13.801   8.116  10.943
96846SOL     OW92369   4.388   6.044   3.031
96846SOL    HW192370   4.434   6.127   3.039
96846SOL    HW292371   4.309   6.064   2.981
96847SOL     OW92372   5.639   3.465   7.623
96847SOL    HW192373   5.617   3.489   7.533
96847SOL    HW292374   5.727   3.428   7.617
96848SOL     OW92375  13.132   1.086  12.030
96848SOL    HW192376  13.094   1.028  11.963
96848SOL    HW292377  13.058   1.109  12.086
96849SOL     OW92378   4.794   0.083  12.860
96849SOL    HW192379   4.774  14.861  12.859
96849SOL    HW292380   4.715   0.124  12.827
96850SOL     OW92381  12.274   6.007   9.163
96850SOL    HW192382  12.225   5.952   9.224
96850SOL    HW292383  12.361   6.014   9.202
96851SOL     OW92384  13.312   3.593   9.400
96851SOL    HW192385  13.218   3.581   9.396
96851SOL    HW292386  13.324   3.684   9.426
96852SOL     OW92387   5.523   9.276  10.467
96852SOL    HW192388   5.535   9.359  10.422
96852SOL    HW292389   5.430   9.255  10.454
96853SOL     OW92390   0.242   8.611  12.104
96853SOL    HW192391   0.210   8.643  12.188
96853SOL    HW292392   0.313   8.551  12.127
96854SOL     OW92393   8.531   4.863  13.798
96854SOL    HW192394   8.563   4.820  13.877
96854SOL    HW292395   8.588   4.939  13.787
96855SOL     OW92396   8.302   0.458   2.670
96855SOL    HW192397   8.243   0.383   2.684
96855SOL    HW292398   8.377   0.440   2.727
96856SOL     OW92399   2.897   7.885   0.926
96856SOL    HW192400   2.895   7.924   0.839
96856SOL    HW292401   2.987   7.854   0.937
96857SOL     OW92402  11.791   7.967   4.037
96857SOL    HW192403  11.833   7.881   4.044
96857SOL    HW292404  11.746   7.979   4.120
96858SOL     OW92405   8.958   7.549   9.192
96858SOL    HW192406   8.927   7.595   9.270
96858SOL    HW292407   9.042   7.589   9.171
96859SOL     OW92408   2.561   0.063  14.095
96859SOL    HW192409   2.509  14.867  14.054
96859SOL    HW292410   2.555   0.137  14.035
96860SOL     OW92411  11.263  14.326  13.356
96860SOL    HW192412  11.230  14.285  13.276
96860SOL    HW292413  11.314  14.257  13.399
96861SOL     OW92414  12.563  14.395   4.622
96861SOL    HW192415  12.580  14.394   4.528
96861SOL    HW292416  12.481  14.444   4.632
96862SOL     OW92417   9.763   1.612   0.920
96862SOL    HW192418   9.755   1.667   0.841
96862SOL    HW292419   9.847   1.567   0.909
96863SOL     OW92420   5.302   9.935   0.275
96863SOL    HW192421   5.274  10.023   0.249
96863SOL    HW292422   5.331   9.944   0.366
96864SOL     OW92423  12.611   6.370   4.960
96864SOL    HW192424  12.562   6.397   5.037
96864SOL    HW292425  12.579   6.282   4.941
96865SOL     OW92426  12.783  11.455   7.985
96865SOL    HW192427  12.774  11.392   8.056
96865SOL    HW292428  12.786  11.540   8.028
96866SOL     OW92429  13.787   6.022  13.908
96866SOL    HW192430  13.744   6.049  13.988
96866SOL    HW292431  13.768   6.091  13.845
96867SOL     OW92432   7.493   1.175   9.352
96867SOL    HW192433   7.566   1.236   9.361
96867SOL    HW292434   7.535   1.091   9.329
96868SOL     OW92435   5.643   8.961  11.736
96868SOL    HW192436   5.679   8.995  11.654
96868SOL    HW292437   5.550   8.948  11.717
96869SOL     OW92438  12.634  10.100   1.667
96869SOL    HW192439  12.678  10.125   1.748
96869SOL    HW292440  12.541  10.114   1.684
96870SOL     OW92441   9.765   7.627  14.246
96870SOL    HW192442   9.753   7.722  14.239
96870SOL    HW292443   9.685   7.596  14.289
96871SOL     OW92444   9.100  10.981   9.759
96871SOL    HW192445   9.154  10.918   9.806
96871SOL    HW292446   9.162  11.029   9.703
96872SOL     OW92447   4.384  14.696   1.831
96872SOL    HW192448   4.462  14.640   1.837
96872SOL    HW292449   4.346  14.674   1.745
96873SOL     OW92450  10.399   6.258   3.481
96873SOL    HW192451  10.320   6.300   3.447
96873SOL    HW292452  10.372   6.221   3.565
96874SOL     OW92453   2.587   9.242  12.640
96874SOL    HW192454   2.571   9.148  12.634
96874SOL    HW292455   2.584   9.262  12.733
96875SOL     OW92456   7.820  14.415   8.724
96875SOL    HW192457   7.823  14.424   8.819
96875SOL    HW292458   7.891  14.471   8.692
96876SOL     OW92459   7.274   0.193   8.863
96876SOL    HW192460   7.325   0.268   8.830
96876SOL    HW292461   7.276   0.204   8.958
96877SOL     OW92462   5.362  10.917   2.538
96877SOL    HW192463   5.277  10.929   2.496
96877SOL    HW292464   5.412  10.995   2.514
96878SOL     OW92465   7.024   6.920  11.222
96878SOL    HW192466   7.064   6.867  11.153
96878SOL    HW292467   7.057   7.009  11.206
96879SOL     OW92468   2.588   7.707   1.106
96879SOL    HW192469   2.651   7.637   1.124
96879SOL    HW292470   2.578   7.752   1.190
96880SOL     OW92471   3.760  11.512   4.045
96880SOL    HW192472   3.696  11.452   4.084
96880SOL    HW292473   3.717  11.598   4.048
96881SOL     OW92474  14.518   4.007  11.548
96881SOL    HW192475  14.442   3.971  11.594
96881SOL    HW292476  14.504   4.101  11.547
96882SOL     OW92477   5.659  11.113  11.973
96882SOL    HW192478   5.651  11.132  11.880
96882SOL    HW292479   5.689  11.195  12.011
96883SOL     OW92480  11.474   9.649  14.297
96883SOL    HW192481  11.545   9.649  14.233
96883SOL    HW292482  11.440   9.738  14.296
96884SOL     OW92483  14.540  11.309   9.023
96884SOL    HW192484  14.549  11.229   8.972
96884SOL    HW292485  14.447  11.332   9.015
96885SOL     OW92486   4.181   3.364  11.209
96885SOL    HW192487   4.154   3.404  11.127
96885SOL    HW292488   4.100   3.333  11.249
96886SOL     OW92489   4.811   8.912   7.838
96886SOL    HW192490   4.719   8.914   7.814
96886SOL    HW292491   4.814   8.859   7.918
96887SOL     OW92492   8.617   4.590   9.022
96887SOL    HW192493   8.711   4.596   9.001
96887SOL    HW292494   8.596   4.677   9.056
96888SOL     OW92495  12.121  10.632   8.890
96888SOL    HW192496  12.136  10.723   8.914
96888SOL    HW292497  12.036  10.610   8.928
96889SOL     OW92498   6.517   6.859   4.261
96889SOL    HW192499   6.592   6.896   4.216
96889SOL    HW292500   6.462   6.822   4.192
96890SOL     OW92501   4.217  14.475  10.149
96890SOL    HW192502   4.308  14.457  10.122
96890SOL    HW292503   4.226  14.534  10.224
96891SOL     OW92504   1.792  11.789   7.632
96891SOL    HW192505   1.843  11.708   7.623
96891SOL    HW292506   1.828  11.847   7.564
96892SOL     OW92507   2.018  14.030   6.898
96892SOL    HW192508   1.981  13.985   6.974
96892SOL    HW292509   2.095  13.977   6.874
96893SOL     OW92510  13.401  10.103   0.169
96893SOL    HW192511  13.370  10.017   0.198
96893SOL    HW292512  13.490  10.109   0.205
96894SOL     OW92513   1.481  14.558   3.387
96894SOL    HW192514   1.505  14.475   3.429
96894SOL    HW292515   1.564  14.604   3.377
96895SOL     OW92516   5.025   2.661   0.586
96895SOL    HW192517   5.048   2.754   0.585
96895SOL    HW292518   5.107   2.616   0.606
96896SOL     OW92519   1.124   7.021   5.767
96896SOL    HW192520   1.129   7.048   5.859
96896SOL    HW292521   1.125   7.103   5.718
96897SOL     OW92522  11.205  11.600   1.301
96897SOL    HW192523  11.211  11.695   1.309
96897SOL    HW292524  11.197  11.584   1.207
96898SOL     OW92525   8.476   7.070   9.820
96898SOL    HW192526   8.472   6.987   9.772
96898SOL    HW292527   8.563   7.071   9.860
96899SOL     OW92528   4.162  11.239   7.708
96899SOL    HW192529   4.251  11.274   7.712
96899SOL    HW292530   4.162  11.167   7.772
96900SOL     OW92531   7.344   3.163   1.472
96900SOL    HW192532   7.404   3.089   1.484
96900SOL    HW292533   7.336   3.202   1.559
96901SOL     OW92534  12.783  11.397   5.449
96901SOL    HW192535  12.764  11.334   5.518
96901SOL    HW292536  12.846  11.458   5.488
96902SOL     OW92537  11.130   9.533   4.575
96902SOL    HW192538  11.208   9.501   4.531
96902SOL    HW292539  11.095   9.600   4.516
96903SOL     OW92540   5.754   6.669  10.512
96903SOL    HW192541   5.699   6.615  10.569
96903SOL    HW292542   5.785   6.608  10.445
96904SOL     OW92543   6.797   2.538   5.537
96904SOL    HW192544   6.886   2.560   5.509
96904SOL    HW292545   6.755   2.507   5.456
96905SOL     OW92546   0.249   8.768  13.606
96905SOL    HW192547   0.196   8.689  13.594
96905SOL    HW292548   0.310   8.767  13.532
96906SOL     OW92549  13.004   1.354   0.007
96906SOL    HW192550  13.030   1.439  14.844
96906SOL    HW292551  12.996   1.368   0.102
96907SOL     OW92552   6.721   2.988   5.761
96907SOL    HW192553   6.709   2.912   5.704
96907SOL    HW292554   6.816   2.998   5.768
96908SOL     OW92555   1.728   5.954   8.609
96908SOL    HW192556   1.788   5.993   8.545
96908SOL    HW292557   1.694   5.876   8.565
96909SOL     OW92558  10.453  11.816   2.422
96909SOL    HW192559  10.524  11.820   2.357
96909SOL    HW292560  10.397  11.745   2.392
96910SOL     OW92561   6.825   5.518   1.785
96910SOL    HW192562   6.811   5.574   1.709
96910SOL    HW292563   6.752   5.539   1.843
96911SOL     OW92564   7.659  14.137  12.180
96911SOL    HW192565   7.639  14.150  12.087
96911SOL    HW292566   7.622  14.214  12.224
96912SOL     OW92567   1.582   4.810   4.604
96912SOL    HW192568   1.574   4.831   4.511
96912SOL    HW292569   1.656   4.863   4.634
96913SOL     OW92570   7.597   2.262   4.946
96913SOL    HW192571   7.625   2.349   4.974
96913SOL    HW292572   7.677   2.210   4.948
96914SOL     OW92573  13.632   0.688  14.072
96914SOL    HW192574  13.657   0.598  14.050
96914SOL    HW292575  13.569   0.678  14.144
96915SOL     OW92576  13.868   0.330   1.448
96915SOL    HW192577  13.933   0.396   1.423
96915SOL    HW292578  13.885   0.256   1.389
96916SOL     OW92579  13.843   4.697  14.212
96916SOL    HW192580  13.748   4.689  14.217
96916SOL    HW292581  13.866   4.757  14.284
96917SOL     OW92582   8.851   2.313  10.416
96917SOL    HW192583   8.798   2.289  10.340
96917SOL    HW292584   8.845   2.236  10.474
96918SOL     OW92585   1.646   4.577   5.964
96918SOL    HW192586   1.595   4.577   6.045
96918SOL    HW292587   1.674   4.486   5.953
96919SOL     OW92588   3.511   2.203   7.003
96919SOL    HW192589   3.566   2.267   6.959
96919SOL    HW292590   3.495   2.136   6.937
96920SOL     OW92591   8.608   3.913   9.695
96920SOL    HW192592   8.657   3.995   9.697
96920SOL    HW292593   8.644   3.862   9.768
96921SOL     OW92594   4.792   0.199   0.615
96921SOL    HW192595   4.711   0.220   0.568
96921SOL    HW292596   4.844   0.279   0.611
96922SOL     OW92597   6.283   6.532   6.713
96922SOL    HW192598   6.280   6.474   6.789
96922SOL    HW292599   6.366   6.513   6.670
96923SOL     OW92600   3.221   3.717  13.074
96923SOL    HW192601   3.272   3.658  13.130
96923SOL    HW292602   3.194   3.788  13.132
96924SOL     OW92603   8.262   8.700   4.182
96924SOL    HW192604   8.218   8.785   4.194
96924SOL    HW292605   8.272   8.666   4.271
96925SOL     OW92606   2.641   2.611   6.928
96925SOL    HW192607   2.684   2.693   6.904
96925SOL    HW292608   2.641   2.611   7.024
96926SOL     OW92609   4.597   5.874  14.080
96926SOL    HW192610   4.541   5.947  14.109
96926SOL    HW292611   4.606   5.819  14.158
96927SOL     OW92612   0.209  13.596   0.154
96927SOL    HW192613   0.290  13.547   0.171
96927SOL    HW292614   0.170  13.607   0.240
96928SOL     OW92615   5.566   8.821   9.135
96928SOL    HW192616   5.519   8.737   9.141
96928SOL    HW292617   5.532   8.872   9.209
96929SOL     OW92618   6.998   2.672   2.503
96929SOL    HW192619   7.037   2.626   2.578
96929SOL    HW292620   7.035   2.760   2.507
96930SOL     OW92621   6.259   0.175  11.445
96930SOL    HW192622   6.318   0.245  11.419
96930SOL    HW292623   6.301   0.095  11.412
96931SOL     OW92624   9.583   2.604  11.950
96931SOL    HW192625   9.558   2.667  11.882
96931SOL    HW292626   9.660   2.643  11.991
96932SOL     OW92627  12.676  14.634   5.396
96932SOL    HW192628  12.650  14.711   5.445
96932SOL    HW292629  12.622  14.636   5.317
96933SOL     OW92630   7.931  14.229   4.659
96933SOL    HW192631   7.866  14.299   4.653
96933SOL    HW292632   7.973  14.242   4.744
96934SOL     OW92633  12.515   6.916   0.760
96934SOL    HW192634  12.524   6.947   0.850
96934SOL    HW292635  12.438   6.961   0.727
96935SOL     OW92636   3.912   1.318   0.025
96935SOL    HW192637   3.973   1.292  14.827
96935SOL    HW292638   3.898   1.412   0.010
96936SOL     OW92639   8.915   0.336   1.060
96936SOL    HW192640   8.844   0.279   1.090
96936SOL    HW292641   8.995   0.286   1.078
96937SOL     OW92642  10.531   4.931   0.660
96937SOL    HW192643  10.441   4.960   0.677
96937SOL    HW292644  10.572   4.928   0.746
96938SOL     OW92645   9.242   0.676  14.459
96938SOL    HW192646   9.158   0.721  14.450
96938SOL    HW292647   9.221   0.590  14.494
96939SOL     OW92648  13.735  13.302   7.330
96939SOL    HW192649  13.652  13.276   7.290
96939SOL    HW292650  13.722  13.394   7.354
96940SOL     OW92651   1.082  10.603   7.633
96940SOL    HW192652   1.143  10.537   7.666
96940SOL    HW292653   1.016  10.552   7.586
96941SOL     OW92654   4.694   5.773  13.380
96941SOL    HW192655   4.731   5.837  13.318
96941SOL    HW292656   4.767   5.752  13.439
96942SOL     OW92657   3.118   1.345   0.245
96942SOL    HW192658   3.051   1.282   0.270
96942SOL    HW292659   3.091   1.376   0.159
96943SOL     OW92660   4.103  12.060   4.932
96943SOL    HW192661   4.071  11.970   4.935
96943SOL    HW292662   4.196  12.053   4.951
96944SOL     OW92663   3.227   9.001   5.587
96944SOL    HW192664   3.321   8.991   5.572
96944SOL    HW292665   3.196   8.914   5.610
96945SOL     OW92666  14.722   9.211   1.484
96945SOL    HW192667  14.703   9.156   1.560
96945SOL    HW292668  14.817   9.211   1.477
96946SOL     OW92669   8.629  12.205  12.811
96946SOL    HW192670   8.675  12.122  12.804
96946SOL    HW292671   8.572  12.194  12.887
96947SOL     OW92672   8.508   5.062  14.671
96947SOL    HW192673   8.586   5.049  14.725
96947SOL    HW292674   8.448   4.992  14.696
96948SOL     OW92675  10.198   1.038  13.901
96948SOL    HW192676  10.286   1.039  13.939
96948SOL    HW292677  10.211   1.015  13.809
96949SOL     OW92678   8.185  13.405   5.513
96949SOL    HW192679   8.140  13.350   5.578
96949SOL    HW292680   8.128  13.482   5.504
96950SOL     OW92681   0.113   2.555  11.533
96950SOL    HW192682   0.072   2.640  11.549
96950SOL    HW292683   0.063   2.517  11.461
96951SOL     OW92684   5.465   1.016   3.142
96951SOL    HW192685   5.474   1.012   3.046
96951SOL    HW292686   5.553   0.998   3.175
96952SOL     OW92687   9.046  13.623   7.115
96952SOL    HW192688   9.054  13.617   7.210
96952SOL    HW292689   9.136  13.633   7.083
96953SOL     OW92690  11.155  14.006   9.658
96953SOL    HW192691  11.194  14.091   9.681
96953SOL    HW292692  11.061  14.025   9.650
96954SOL     OW92693   5.467  12.338   0.130
96954SOL    HW192694   5.432  12.427   0.124
96954SOL    HW292695   5.548  12.347   0.181
96955SOL     OW92696   0.871   9.789  10.736
96955SOL    HW192697   0.960   9.793  10.700
96955SOL    HW292698   0.872   9.711  10.792
96956SOL     OW92699  13.511   6.446   5.421
96956SOL    HW192700  13.512   6.395   5.340
96956SOL    HW292701  13.561   6.525   5.401
96957SOL     OW92702   9.852   6.272   6.683
96957SOL    HW192703   9.920   6.252   6.619
96957SOL    HW292704   9.771   6.239   6.643
96958SOL     OW92705  14.793  13.321   7.158
96958SOL    HW192706  14.713  13.308   7.207
96958SOL    HW292707  14.789  13.259   7.086
96959SOL     OW92708   2.535  14.850   6.942
96959SOL    HW192709   2.484  14.788   6.994
96959SOL    HW292710   2.508  14.832   6.852
96960SOL     OW92711  14.204  13.184   0.465
96960SOL    HW192712  14.281  13.137   0.430
96960SOL    HW292713  14.140  13.181   0.394
96961SOL     OW92714   4.509   6.348   8.302
96961SOL    HW192715   4.527   6.368   8.394
96961SOL    HW292716   4.583   6.295   8.273
96962SOL     OW92717   1.758   5.777   5.386
96962SOL    HW192718   1.820   5.708   5.409
96962SOL    HW292719   1.764   5.784   5.290
96963SOL     OW92720   4.198   5.897  10.196
96963SOL    HW192721   4.242   5.855  10.122
96963SOL    HW292722   4.265   5.953  10.235
96964SOL     OW92723   0.310   2.084   0.164
96964SOL    HW192724   0.371   2.011   0.158
96964SOL    HW292725   0.325   2.134   0.083
96965SOL     OW92726   6.423  13.143  13.495
96965SOL    HW192727   6.494  13.207  13.489
96965SOL    HW292728   6.467  13.062  13.522
96966SOL     OW92729   9.655   4.404  10.357
96966SOL    HW192730   9.565   4.389  10.387
96966SOL    HW292731   9.670   4.497  10.374
96967SOL     OW92732  14.609   5.301   6.802
96967SOL    HW192733  14.629   5.318   6.710
96967SOL    HW292734  14.692   5.268   6.838
96968SOL     OW92735   3.548   5.810   3.383
96968SOL    HW192736   3.482   5.752   3.345
96968SOL    HW292737   3.574   5.868   3.311
96969SOL     OW92738   5.681  10.006   2.174
96969SOL    HW192739   5.745  10.042   2.235
96969SOL    HW292740   5.710  10.036   2.088
96970SOL     OW92741   9.079   2.104   5.554
96970SOL    HW192742   9.111   2.036   5.495
96970SOL    HW292743   9.012   2.149   5.504
96971SOL     OW92744   0.407   9.713   9.166
96971SOL    HW192745   0.367   9.789   9.124
96971SOL    HW292746   0.399   9.642   9.102
96972SOL     OW92747  11.578   4.934   8.254
96972SOL    HW192748  11.629   5.010   8.225
96972SOL    HW292749  11.633   4.893   8.321
96973SOL     OW92750  11.307   0.199  11.960
96973SOL    HW192751  11.248   0.125  11.944
96973SOL    HW292752  11.360   0.206  11.881
96974SOL     OW92753  12.457   0.354   9.992
96974SOL    HW192754  12.435   0.355   9.899
96974SOL    HW292755  12.439   0.265  10.021
96975SOL     OW92756  11.518   0.125  10.345
96975SOL    HW192757  11.428   0.155  10.354
96975SOL    HW292758  11.547   0.109  10.434
96976SOL     OW92759   5.612  11.899  12.824
96976SOL    HW192760   5.605  11.958  12.899
96976SOL    HW292761   5.581  11.951  12.750
96977SOL     OW92762  12.480  14.853  13.173
96977SOL    HW192763  12.393  14.812  13.175
96977SOL    HW292764  12.485   0.022  13.087
96978SOL     OW92765  11.076   6.382   3.815
96978SOL    HW192766  11.089   6.419   3.727
96978SOL    HW292767  11.024   6.303   3.800
96979SOL     OW92768   9.349   8.681   5.373
96979SOL    HW192769   9.303   8.749   5.322
96979SOL    HW292770   9.363   8.610   5.310
96980SOL     OW92771   4.174   0.804   5.814
96980SOL    HW192772   4.179   0.883   5.868
96980SOL    HW292773   4.243   0.814   5.749
96981SOL     OW92774  14.184   5.386   4.195
96981SOL    HW192775  14.244   5.443   4.242
96981SOL    HW292776  14.119   5.445   4.157
96982SOL     OW92777   6.424   9.575  13.761
96982SOL    HW192778   6.405   9.484  13.737
96982SOL    HW292779   6.414   9.624  13.679
96983SOL     OW92780  12.412   0.217  14.055
96983SOL    HW192781  12.440   0.246  14.142
96983SOL    HW292782  12.368   0.293  14.018
96984SOL     OW92783   1.048   1.846   5.887
96984SOL    HW192784   1.050   1.751   5.872
96984SOL    HW292785   1.003   1.881   5.811
96985SOL     OW92786   0.112   9.446  11.321
96985SOL    HW192787   0.162   9.365  11.334
96985SOL    HW292788   0.154   9.510  11.379
96986SOL     OW92789  13.294   5.790   6.294
96986SOL    HW192790  13.349   5.749   6.360
96986SOL    HW292791  13.205   5.783   6.328
96987SOL     OW92792   2.530   2.859   3.941
96987SOL    HW192793   2.577   2.842   4.023
96987SOL    HW292794   2.597   2.888   3.880
96988SOL     OW92795   5.109  10.520  10.076
96988SOL    HW192796   5.203  10.514  10.056
96988SOL    HW292797   5.066  10.488   9.997
96989SOL     OW92798   2.244   5.565   4.016
96989SOL    HW192799   2.316   5.506   3.993
96989SOL    HW292800   2.167   5.525   3.976
96990SOL     OW92801  14.776  13.095   5.103
96990SOL    HW192802  14.724  13.107   5.182
96990SOL    HW292803  14.772  13.001   5.086
96991SOL     OW92804   8.154  11.676   1.207
96991SOL    HW192805   8.217  11.618   1.163
96991SOL    HW292806   8.140  11.636   1.293
96992SOL     OW92807  11.103  14.692  14.451
96992SOL    HW192808  11.198  14.690  14.440
96992SOL    HW292809  11.070  14.622  14.394
96993SOL     OW92810  13.711   3.244  12.991
96993SOL    HW192811  13.641   3.293  13.034
96993SOL    HW292812  13.685   3.152  13.001
96994SOL     OW92813   0.040  12.929   7.629
96994SOL    HW192814   0.018  12.905   7.720
96994SOL    HW292815   0.123  12.976   7.636
96995SOL     OW92816   4.688   1.021   8.156
96995SOL    HW192817   4.775   1.056   8.175
96995SOL    HW292818   4.700   0.926   8.155
96996SOL     OW92819   6.921  11.620   9.911
96996SOL    HW192820   6.926  11.584   9.822
96996SOL    HW292821   6.892  11.710   9.899
96997SOL     OW92822  10.669  10.354   4.257
96997SOL    HW192823  10.717  10.343   4.339
96997SOL    HW292824  10.681  10.271   4.211
96998SOL     OW92825  14.070   1.416   6.131
96998SOL    HW192826  14.065   1.482   6.199
96998SOL    HW292827  14.098   1.463   6.052
96999SOL     OW92828   6.005   3.501  11.001
96999SOL    HW192829   6.059   3.520  11.077
96999SOL    HW292830   6.046   3.551  10.930
97000SOL     OW92831   4.917   4.455   5.663
97000SOL    HW192832   4.850   4.522   5.650
97000SOL    HW292833   4.906   4.427   5.754
97001SOL     OW92834   2.702   0.155   0.818
97001SOL    HW192835   2.734   0.217   0.752
97001SOL    HW292836   2.717   0.069   0.779
97002SOL     OW92837   8.093   4.290   7.156
97002SOL    HW192838   8.053   4.374   7.132
97002SOL    HW292839   8.045   4.261   7.233
97003SOL     OW92840   7.769   3.894   9.110
97003SOL    HW192841   7.741   3.809   9.078
97003SOL    HW292842   7.798   3.877   9.200
97004SOL     OW92843   4.045   9.154   1.097
97004SOL    HW192844   3.990   9.078   1.113
97004SOL    HW292845   4.010   9.193   1.016
97005SOL     OW92846  14.612  11.106  11.923
97005SOL    HW192847  14.545  11.109  11.855
97005SOL    HW292848  14.681  11.050  11.887
97006SOL     OW92849   8.461   9.471  10.440
97006SOL    HW192850   8.383   9.418  10.457
97006SOL    HW292851   8.522   9.448  10.510
97007SOL     OW92852   4.136   5.929   9.830
97007SOL    HW192853   4.213   5.983   9.851
97007SOL    HW292854   4.134   5.862   9.899
97008SOL     OW92855   9.680  12.521   1.661
97008SOL    HW192856   9.664  12.427   1.666
97008SOL    HW292857   9.776  12.529   1.661
97009SOL     OW92858   8.354   0.621   6.286
97009SOL    HW192859   8.419   0.582   6.344
97009SOL    HW292860   8.271   0.609   6.332
97010SOL     OW92861   7.382   5.688  12.310
97010SOL    HW192862   7.419   5.769  12.345
97010SOL    HW292863   7.446   5.658  12.246
97011SOL     OW92864   4.743   9.986  10.276
97011SOL    HW192865   4.704  10.013  10.359
97011SOL    HW292866   4.744  10.066  10.222
97012SOL     OW92867  12.485   4.652   7.347
97012SOL    HW192868  12.399   4.683   7.318
97012SOL    HW292869  12.533   4.731   7.371
97013SOL     OW92870   1.458   6.718   4.627
97013SOL    HW192871   1.456   6.645   4.566
97013SOL    HW292872   1.396   6.781   4.590
97014SOL     OW92873   4.867   8.760  14.396
97014SOL    HW192874   4.815   8.774  14.475
97014SOL    HW292875   4.929   8.833  14.395
97015SOL     OW92876   8.639   1.373   2.086
97015SOL    HW192877   8.640   1.292   2.035
97015SOL    HW292878   8.576   1.429   2.041
97016SOL     OW92879   1.821  10.952   8.271
97016SOL    HW192880   1.734  10.940   8.307
97016SOL    HW292881   1.881  10.934   8.344
97017SOL     OW92882   6.035   8.824   3.811
97017SOL    HW192883   6.009   8.798   3.722
97017SOL    HW292884   5.957   8.866   3.847
97018SOL     OW92885  13.340  14.813   0.923
97018SOL    HW192886  13.418  14.761   0.940
97018SOL    HW292887  13.372   0.020   0.880
97019SOL     OW92888   7.945   8.571   0.226
97019SOL    HW192889   7.959   8.496   0.283
97019SOL    HW292890   7.999   8.554   0.149
97020SOL     OW92891   6.999   4.393  14.847
97020SOL    HW192892   6.966   4.369  14.761
97020SOL    HW292893   6.927   4.373   0.035
97021SOL     OW92894  13.916   1.482   9.329
97021SOL    HW192895  13.823   1.459   9.321
97021SOL    HW292896  13.953   1.414   9.385
97022SOL     OW92897   2.787  14.487  14.490
97022SOL    HW192898   2.737  14.405  14.490
97022SOL    HW292899   2.783  14.517  14.399
97023SOL     OW92900  11.603   4.213   9.807
97023SOL    HW192901  11.691   4.248   9.791
97023SOL    HW292902  11.614   4.155   9.883
97024SOL     OW92903  10.345   2.940   3.996
97024SOL    HW192904  10.297   2.907   3.921
97024SOL    HW292905  10.414   2.995   3.959
97025SOL     OW92906   6.331   3.074  14.464
97025SOL    HW192907   6.408   3.127  14.486
97025SOL    HW292908   6.365   3.003  14.410
97026SOL     OW92909   8.864   7.358   6.325
97026SOL    HW192910   8.926   7.299   6.367
97026SOL    HW292911   8.861   7.329   6.234
97027SOL     OW92912  12.563   6.526   2.144
97027SOL    HW192913  12.478   6.541   2.185
97027SOL    HW292914  12.626   6.541   2.214
97028SOL     OW92915   0.492   8.070   5.320
97028SOL    HW192916   0.426   8.088   5.387
97028SOL    HW292917   0.451   8.097   5.238
97029SOL     OW92918   0.600   1.991   7.877
97029SOL    HW192919   0.647   2.073   7.892
97029SOL    HW292920   0.652   1.944   7.812
97030SOL     OW92921   9.869   8.009   7.307
97030SOL    HW192922   9.821   7.997   7.390
97030SOL    HW292923   9.906   7.923   7.288
97031SOL     OW92924   6.433   4.190  12.254
97031SOL    HW192925   6.429   4.280  12.222
97031SOL    HW292926   6.411   4.197  12.347
97032SOL     OW92927   1.834   3.785   8.953
97032SOL    HW192928   1.812   3.833   9.033
97032SOL    HW292929   1.812   3.694   8.973
97033SOL     OW92930   9.831  10.581  13.633
97033SOL    HW192931   9.830  10.493  13.669
97033SOL    HW292932   9.741  10.611  13.638
97034SOL     OW92933   9.710   5.765   8.886
97034SOL    HW192934   9.692   5.848   8.929
97034SOL    HW292935   9.673   5.774   8.798
97035SOL     OW92936  11.971   1.714   4.733
97035SOL    HW192937  12.006   1.758   4.811
97035SOL    HW292938  12.047   1.675   4.691
97036SOL     OW92939   0.682  11.515   1.991
97036SOL    HW192940   0.750  11.447   1.991
97036SOL    HW292941   0.721  11.587   2.041
97037SOL     OW92942  11.934   4.864  10.413
97037SOL    HW192943  12.023   4.829  10.407
97037SOL    HW292944  11.888   4.801  10.469
97038SOL     OW92945   9.868   3.069   3.666
97038SOL    HW192946   9.934   3.010   3.628
97038SOL    HW292947   9.805   3.010   3.708
97039SOL     OW92948   7.737   5.327  12.501
97039SOL    HW192949   7.663   5.385  12.517
97039SOL    HW292950   7.765   5.347  12.412
97040SOL     OW92951   0.163   1.988   2.199
97040SOL    HW192952   0.072   2.018   2.202
97040SOL    HW292953   0.187   1.975   2.291
97041SOL     OW92954   5.391   6.191   4.958
97041SOL    HW192955   5.462   6.133   4.986
97041SOL    HW292956   5.410   6.275   5.001
97042SOL     OW92957   5.255  13.431  11.781
97042SOL    HW192958   5.286  13.363  11.721
97042SOL    HW292959   5.167  13.451  11.751
97043SOL     OW92960  10.369   6.188   7.703
97043SOL    HW192961  10.308   6.233   7.761
97043SOL    HW292962  10.327   6.104   7.684
97044SOL     OW92963  14.500   1.514   6.104
97044SOL    HW192964  14.434   1.577   6.131
97044SOL    HW292965  14.549   1.496   6.184
97045SOL     OW92966  10.420  14.653   0.877
97045SOL    HW192967  10.386  14.565   0.858
97045SOL    HW292968  10.360  14.712   0.832
97046SOL     OW92969   9.727   5.398   9.421
97046SOL    HW192970   9.808   5.447   9.429
97046SOL    HW292971   9.712   5.361   9.508
97047SOL     OW92972  12.337  10.025  14.175
97047SOL    HW192973  12.251  10.060  14.153
97047SOL    HW292974  12.321   9.957  14.239
97048SOL     OW92975   1.670  14.777   2.749
97048SOL    HW192976   1.697  14.829   2.673
97048SOL    HW292977   1.575  14.787   2.753
97049SOL     OW92978   1.391  12.737   5.467
97049SOL    HW192979   1.447  12.814   5.478
97049SOL    HW292980   1.365  12.713   5.556
97050SOL     OW92981  13.472   7.390  12.772
97050SOL    HW192982  13.562   7.397  12.803
97050SOL    HW292983  13.431   7.473  12.797
97051SOL     OW92984   9.612   4.024  14.329
97051SOL    HW192985   9.628   3.930  14.333
97051SOL    HW292986   9.539   4.033  14.267
97052SOL     OW92987   6.234   4.635  10.368
97052SOL    HW192988   6.319   4.663  10.402
97052SOL    HW292989   6.251   4.549  10.330
97053SOL     OW92990   6.657  13.691   2.498
97053SOL    HW192991   6.669  13.758   2.565
97053SOL    HW292992   6.689  13.732   2.417
97054SOL     OW92993  14.191   5.102  14.051
97054SOL    HW192994  14.101   5.070  14.058
97054SOL    HW292995  14.243   5.037  14.098
97055SOL     OW92996   3.658   3.431   4.381
97055SOL    HW192997   3.709   3.486   4.440
97055SOL    HW292998   3.580   3.482   4.361
97056SOL     OW92999   7.311  10.309   7.706
97056SOL    HW193000   7.398  10.283   7.735
97056SOL    HW293001   7.254  10.290   7.780
97057SOL     OW93002  10.725  13.880  13.768
97057SOL    HW193003  10.772  13.846  13.692
97057SOL    HW293004  10.784  13.944  13.807
97058SOL     OW93005   3.069   7.192   4.449
97058SOL    HW193006   3.047   7.120   4.390
97058SOL    HW293007   3.156   7.220   4.422
97059SOL     OW93008   6.921  14.299  10.544
97059SOL    HW193009   6.972  14.224  10.515
97059SOL    HW293010   6.880  14.270  10.626
97060SOL     OW93011   8.555   9.443  13.278
97060SOL    HW193012   8.555   9.534  13.306
97060SOL    HW293013   8.600   9.444  13.193
97061SOL     OW93014  12.281   1.074   8.872
97061SOL    HW193015  12.277   1.010   8.801
97061SOL    HW293016  12.319   1.153   8.831
97062SOL     OW93017   0.763   1.922   6.105
97062SOL    HW193018   0.817   1.999   6.088
97062SOL    HW293019   0.823   1.859   6.144
97063SOL     OW93020   0.753   0.889   4.425
97063SOL    HW193021   0.684   0.942   4.385
97063SOL    HW293022   0.813   0.953   4.464
97064SOL     OW93023  10.919  12.499   1.270
97064SOL    HW193024  10.886  12.526   1.355
97064SOL    HW293025  10.901  12.574   1.212
97065SOL     OW93026   1.452   8.367   0.825
97065SOL    HW193027   1.497   8.451   0.826
97065SOL    HW293028   1.444   8.344   0.733
97066SOL     OW93029   4.277   7.212  13.261
97066SOL    HW193030   4.260   7.273  13.333
97066SOL    HW293031   4.323   7.264  13.195
97067SOL     OW93032   7.178  10.445   2.808
97067SOL    HW193033   7.249  10.461   2.870
97067SOL    HW293034   7.221  10.450   2.722
97068SOL     OW93035   3.391   6.490  11.494
97068SOL    HW193036   3.463   6.467  11.434
97068SOL    HW293037   3.435   6.508  11.577
97069SOL     OW93038   0.390   3.888  12.354
97069SOL    HW193039   0.303   3.919  12.376
97069SOL    HW293040   0.424   3.952  12.291
97070SOL     OW93041  10.514   2.416  12.511
97070SOL    HW193042  10.436   2.365  12.532
97070SOL    HW293043  10.513   2.489  12.573
97071SOL     OW93044   7.231   4.675   7.576
97071SOL    HW193045   7.220   4.740   7.645
97071SOL    HW293046   7.320   4.641   7.590
97072SOL     OW93047   7.511  13.471   8.012
97072SOL    HW193048   7.417  13.472   8.028
97072SOL    HW293049   7.542  13.556   8.041
97073SOL     OW93050  10.189  11.652  14.806
97073SOL    HW193051  10.125  11.583  14.820
97073SOL    HW293052  10.137  11.731  14.788
97074SOL     OW93053   9.373   4.809   5.484
97074SOL    HW193054   9.425   4.889   5.495
97074SOL    HW293055   9.348   4.808   5.392
97075SOL     OW93056   4.220  14.039   0.100
97075SOL    HW193057   4.227  14.130   0.130
97075SOL    HW293058   4.129  14.030   0.071
97076SOL     OW93059  12.097  13.869   1.171
97076SOL    HW193060  12.142  13.899   1.093
97076SOL    HW293061  12.051  13.946   1.204
97077SOL     OW93062  14.868   4.175   2.346
97077SOL    HW193063  14.776   4.152   2.332
97077SOL    HW293064   0.024   4.117   2.416
97078SOL     OW93065  13.163  10.107   3.273
97078SOL    HW193066  13.101  10.067   3.333
97078SOL    HW293067  13.247  10.064   3.293
97079SOL     OW93068   8.462   6.361  10.187
97079SOL    HW193069   8.448   6.309  10.266
97079SOL    HW293070   8.554   6.385  10.191
97080SOL     OW93071  11.988  12.955   5.965
97080SOL    HW193072  12.022  12.994   6.046
97080SOL    HW293073  12.020  13.012   5.895
97081SOL     OW93074   8.454   2.034  11.646
97081SOL    HW193075   8.427   2.018  11.737
97081SOL    HW293076   8.372   2.037  11.597
97082SOL     OW93077  13.252   1.032   3.476
97082SOL    HW193078  13.203   0.950   3.473
97082SOL    HW293079  13.328   1.016   3.419
97083SOL     OW93080  12.644   1.874   9.453
97083SOL    HW193081  12.599   1.790   9.461
97083SOL    HW293082  12.704   1.877   9.527
97084SOL     OW93083   2.938  13.685   7.342
97084SOL    HW193084   2.914  13.719   7.256
97084SOL    HW293085   2.954  13.592   7.328
97085SOL     OW93086   8.958   8.086   3.361
97085SOL    HW193087   8.909   8.073   3.442
97085SOL    HW293088   8.949   8.180   3.343
97086SOL     OW93089   3.778   3.853  11.466
97086SOL    HW193090   3.737   3.785  11.413
97086SOL    HW293091   3.793   3.925  11.405
97087SOL     OW93092   4.424  12.210  11.595
97087SOL    HW193093   4.358  12.142  11.581
97087SOL    HW293094   4.478  12.177  11.668
97088SOL     OW93095  10.468   5.748  11.933
97088SOL    HW193096  10.518   5.773  11.856
97088SOL    HW293097  10.470   5.652  11.934
97089SOL     OW93098   5.726   8.495  14.823
97089SOL    HW193099   5.680   8.457  14.748
97089SOL    HW293100   5.777   8.568  14.786
97090SOL     OW93101   7.344   6.969  11.595
97090SOL    HW193102   7.382   6.923  11.669
97090SOL    HW293103   7.417   7.019  11.558
97091SOL     OW93104  12.979  12.685   7.693
97091SOL    HW193105  12.888  12.686   7.664
97091SOL    HW293106  13.030  12.699   7.614
97092SOL     OW93107  10.332   8.440   1.670
97092SOL    HW193108  10.357   8.355   1.632
97092SOL    HW293109  10.410   8.468   1.718
97093SOL     OW93110   2.770  12.666   2.993
97093SOL    HW193111   2.763  12.717   3.073
97093SOL    HW293112   2.741  12.578   3.017
97094SOL     OW93113   1.554   8.398   0.197
97094SOL    HW193114   1.645   8.385   0.169
97094SOL    HW293115   1.561   8.416   0.291
97095SOL     OW93116  10.325   1.897  12.049
97095SOL    HW193117  10.238   1.857  12.052
97095SOL    HW293118  10.372   1.847  11.982
97096SOL     OW93119  11.738  13.756   1.841
97096SOL    HW193120  11.749  13.741   1.935
97096SOL    HW293121  11.766  13.675   1.800
97097SOL     OW93122   6.057  13.284   9.885
97097SOL    HW193123   6.059  13.277   9.980
97097SOL    HW293124   5.991  13.352   9.867
97098SOL     OW93125   1.444   9.065   0.281
97098SOL    HW193126   1.455   9.022   0.366
97098SOL    HW293127   1.525   9.047   0.234
97099SOL     OW93128   7.431   5.764   1.710
97099SOL    HW193129   7.428   5.790   1.618
97099SOL    HW293130   7.343   5.733   1.729
97100SOL     OW93131   6.165   3.634  13.405
97100SOL    HW193132   6.115   3.652  13.485
97100SOL    HW293133   6.255   3.623  13.436
97101SOL     OW93134   4.469   3.123   8.102
97101SOL    HW193135   4.546   3.082   8.061
97101SOL    HW293136   4.473   3.214   8.074
97102SOL     OW93137   2.425   0.874  10.261
97102SOL    HW193138   2.361   0.805  10.281
97102SOL    HW293139   2.402   0.903  10.173
97103SOL     OW93140   5.023   5.447   5.943
97103SOL    HW193141   4.977   5.364   5.931
97103SOL    HW293142   5.104   5.437   5.892
97104SOL     OW93143   3.122   7.989   8.988
97104SOL    HW193144   3.104   7.970   8.896
97104SOL    HW293145   3.049   7.949   9.036
97105SOL     OW93146  14.072   7.535   2.724
97105SOL    HW193147  14.164   7.561   2.726
97105SOL    HW293148  14.074   7.442   2.700
97106SOL     OW93149   6.687   7.377  10.414
97106SOL    HW193150   6.691   7.414  10.502
97106SOL    HW293151   6.608   7.322  10.415
97107SOL     OW93152   5.925   3.909   3.654
97107SOL    HW193153   5.980   3.985   3.639
97107SOL    HW293154   5.942   3.884   3.745
97108SOL     OW93155   4.430  12.024  11.028
97108SOL    HW193156   4.366  11.972  10.979
97108SOL    HW293157   4.469  12.082  10.962
97109SOL     OW93158   7.894  14.733   5.010
97109SOL    HW193159   7.813  14.681   5.013
97109SOL    HW293160   7.865  14.820   4.981
97110SOL     OW93161   9.851  10.214   2.223
97110SOL    HW193162   9.909  10.176   2.289
97110SOL    HW293163   9.901  10.210   2.142
97111SOL     OW93164   4.846  12.489   5.433
97111SOL    HW193165   4.831  12.579   5.463
97111SOL    HW293166   4.831  12.491   5.339
97112SOL     OW93167  11.398  13.907   6.363
97112SOL    HW193168  11.406  13.823   6.318
97112SOL    HW293169  11.392  13.885   6.456
97113SOL     OW93170  14.432  12.234   7.582
97113SOL    HW193171  14.505  12.293   7.600
97113SOL    HW293172  14.404  12.255   7.493
97114SOL     OW93173   7.354   9.280  10.017
97114SOL    HW193174   7.342   9.189   9.991
97114SOL    HW293175   7.276   9.300  10.068
97115SOL     OW93176   9.549   0.074   4.439
97115SOL    HW193177   9.614   0.033   4.381
97115SOL    HW293178   9.520   0.152   4.391
97116SOL     OW93179   8.067  11.099   1.775
97116SOL    HW193180   8.124  11.122   1.848
97116SOL    HW293181   7.986  11.068   1.816
97117SOL     OW93182   8.263   7.703  11.164
97117SOL    HW193183   8.223   7.643  11.101
97117SOL    HW293184   8.357   7.697  11.146
97118SOL     OW93185   8.999  14.871   7.180
97118SOL    HW193186   9.008  14.778   7.160
97118SOL    HW293187   9.079   0.021   7.227
97119SOL     OW93188  14.311  11.174   1.685
97119SOL    HW193189  14.237  11.113   1.676
97119SOL    HW293190  14.370  11.150   1.613
97120SOL     OW93191  10.410  13.671   3.619
97120SOL    HW193192  10.487  13.676   3.676
97120SOL    HW293193  10.427  13.595   3.563
97121SOL     OW93194  10.134   0.694   0.749
97121SOL    HW193195  10.176   0.696   0.836
97121SOL    HW293196  10.145   0.783   0.716
97122SOL     OW93197   4.101   4.832   2.088
97122SOL    HW193198   4.133   4.901   2.145
97122SOL    HW293199   4.166   4.762   2.096
97123SOL     OW93200   0.045   1.646   0.540
97123SOL    HW193201   0.003   1.718   0.494
97123SOL    HW293202  14.846   1.584   0.558
97124SOL     OW93203   8.781   5.167   1.608
97124SOL    HW193204   8.842   5.150   1.536
97124SOL    HW293205   8.711   5.220   1.569
97125SOL     OW93206   7.581   4.027  11.716
97125SOL    HW193207   7.570   3.966  11.789
97125SOL    HW293208   7.622   3.975  11.647
97126SOL     OW93209   7.849   8.887   7.811
97126SOL    HW193210   7.796   8.955   7.853
97126SOL    HW293211   7.790   8.846   7.748
97127SOL     OW93212   4.770   5.035   6.620
97127SOL    HW193213   4.765   5.053   6.526
97127SOL    HW293214   4.849   4.982   6.630
97128SOL     OW93215   9.359   8.530   4.906
97128SOL    HW193216   9.336   8.503   4.995
97128SOL    HW293217   9.281   8.574   4.873
97129SOL     OW93218   4.158   3.685   3.549
97129SOL    HW193219   4.110   3.674   3.466
97129SOL    HW293220   4.129   3.611   3.603
97130SOL     OW93221   4.253  14.636   1.592
97130SOL    HW193222   4.212  14.558   1.553
97130SOL    HW293223   4.200  14.709   1.561
97131SOL     OW93224  10.977  12.322  13.711
97131SOL    HW193225  10.924  12.242  13.715
97131SOL    HW293226  10.979  12.354  13.801
97132SOL     OW93227  10.099  11.238   6.500
97132SOL    HW193228  10.072  11.220   6.590
97132SOL    HW293229  10.019  11.232   6.449
97133SOL     OW93230   5.629   0.024   2.514
97133SOL    HW193231   5.705   0.025   2.455
97133SOL    HW293232   5.665  14.871   2.599
97134SOL     OW93233  11.947   3.196  12.492
97134SOL    HW193234  11.903   3.174  12.574
97134SOL    HW293235  11.887   3.164  12.424
97135SOL     OW93236   9.957   3.917   9.464
97135SOL    HW193237   9.897   3.953   9.399
97135SOL    HW293238   9.916   3.937   9.549
97136SOL     OW93239   3.683  14.132  12.912
97136SOL    HW193240   3.650  14.219  12.887
97136SOL    HW293241   3.751  14.151  12.977
97137SOL     OW93242  12.236  12.023  12.189
97137SOL    HW193243  12.226  11.967  12.112
97137SOL    HW293244  12.280  12.101  12.156
97138SOL     OW93245  10.877  13.568  13.148
97138SOL    HW193246  10.940  13.614  13.093
97138SOL    HW293247  10.878  13.614  13.231
97139SOL     OW93248   3.155  10.268   9.346
97139SOL    HW193249   3.120  10.228   9.425
97139SOL    HW293250   3.196  10.349   9.376
97140SOL     OW93251  10.319   4.749   9.608
97140SOL    HW193252  10.382   4.815   9.638
97140SOL    HW293253  10.275   4.790   9.534
97141SOL     OW93254   8.917   9.592   7.734
97141SOL    HW193255   8.961   9.621   7.814
97141SOL    HW293256   8.827   9.573   7.762
97142SOL     OW93257   9.804  11.701   3.169
97142SOL    HW193258   9.747  11.706   3.246
97142SOL    HW293259   9.760  11.638   3.112
97143SOL     OW93260  11.736   7.267  11.368
97143SOL    HW193261  11.720   7.199  11.434
97143SOL    HW293262  11.650   7.308  11.355
97144SOL     OW93263   6.250   2.494   6.013
97144SOL    HW193264   6.332   2.471   5.969
97144SOL    HW293265   6.182   2.458   5.957
97145SOL     OW93266  10.342   5.869   7.050
97145SOL    HW193267  10.251   5.899   7.040
97145SOL    HW293268  10.342   5.780   7.015
97146SOL     OW93269  10.889   5.490   4.138
97146SOL    HW193270  10.940   5.409   4.144
97146SOL    HW293271  10.831   5.487   4.213
97147SOL     OW93272  13.805  13.415   0.358
97147SOL    HW193273  13.880  13.470   0.336
97147SOL    HW293274  13.735  13.445   0.300
97148SOL     OW93275   6.401   9.139  12.199
97148SOL    HW193276   6.344   9.081  12.149
97148SOL    HW293277   6.417   9.214  12.142
97149SOL     OW93278   5.437   7.763   4.383
97149SOL    HW193279   5.402   7.832   4.327
97149SOL    HW293280   5.361   7.707   4.403
97150SOL     OW93281   1.512   1.802  13.734
97150SOL    HW193282   1.443   1.773  13.793
97150SOL    HW293283   1.474   1.794  13.647
97151SOL     OW93284  13.543  10.822  12.242
97151SOL    HW193285  13.452  10.826  12.212
97151SOL    HW293286  13.559  10.730  12.260
97152SOL     OW93287  11.106   0.103   8.177
97152SOL    HW193288  11.011   0.090   8.179
97152SOL    HW293289  11.128   0.137   8.264
97153SOL     OW93290  12.827  11.666  13.241
97153SOL    HW193291  12.787  11.657  13.155
97153SOL    HW293292  12.894  11.597  13.244
97154SOL     OW93293   5.044   1.688  10.457
97154SOL    HW193294   4.973   1.750  10.470
97154SOL    HW293295   5.073   1.665  10.545
97155SOL     OW93296  10.762  14.450   1.597
97155SOL    HW193297  10.856  14.460   1.609
97155SOL    HW293298  10.724  14.485   1.678
97156SOL     OW93299  12.976   2.820   6.048
97156SOL    HW193300  12.967   2.907   6.085
97156SOL    HW293301  12.893   2.804   6.003
97157SOL     OW93302   3.905  11.852   9.496
97157SOL    HW193303   3.857  11.789   9.442
97157SOL    HW293304   3.950  11.797   9.561
97158SOL     OW93305   1.613  13.558   6.539
97158SOL    HW193306   1.573  13.548   6.625
97158SOL    HW293307   1.587  13.480   6.491
97159SOL     OW93308  11.021  11.781   6.438
97159SOL    HW193309  11.022  11.871   6.472
97159SOL    HW293310  11.100  11.774   6.386
97160SOL     OW93311  14.433   0.519   2.536
97160SOL    HW193312  14.498   0.586   2.514
97160SOL    HW293313  14.395   0.550   2.618
97161SOL     OW93314   4.453  11.253   2.981
97161SOL    HW193315   4.439  11.193   3.054
97161SOL    HW293316   4.524  11.214   2.930
97162SOL     OW93317   5.182   3.553  10.468
97162SOL    HW193318   5.200   3.463  10.495
97162SOL    HW293319   5.106   3.546  10.409
97163SOL     OW93320  10.775  11.038   6.489
97163SOL    HW193321  10.699  11.060   6.544
97163SOL    HW293322  10.844  11.015   6.552
97164SOL     OW93323  13.546   9.733  10.466
97164SOL    HW193324  13.501   9.651  10.485
97164SOL    HW293325  13.595   9.753  10.545
97165SOL     OW93326   7.086   5.019  11.187
97165SOL    HW193327   7.054   4.985  11.271
97165SOL    HW293328   7.029   5.093  11.168
97166SOL     OW93329   8.750   8.523  11.331
97166SOL    HW193330   8.686   8.465  11.373
97166SOL    HW293331   8.787   8.471  11.260
97167SOL     OW93332   6.023   5.298  12.988
97167SOL    HW193333   6.040   5.274  13.079
97167SOL    HW293334   6.107   5.287  12.944
97168SOL     OW93335   3.393   0.172   3.412
97168SOL    HW193336   3.397   0.142   3.321
97168SOL    HW293337   3.321   0.235   3.414
97169SOL     OW93338   5.732   0.520   7.794
97169SOL    HW193339   5.792   0.590   7.767
97169SOL    HW293340   5.726   0.529   7.889
97170SOL     OW93341   5.614   4.935  13.763
97170SOL    HW193342   5.521   4.943  13.785
97170SOL    HW293343   5.623   4.846  13.730
97171SOL     OW93344  11.562   4.216  12.222
97171SOL    HW193345  11.521   4.244  12.140
97171SOL    HW293346  11.649   4.255  12.220
97172SOL     OW93347  12.557  14.227   8.577
97172SOL    HW193348  12.649  14.215   8.600
97172SOL    HW293349  12.551  14.199   8.486
97173SOL     OW93350  11.666   1.157  11.400
97173SOL    HW193351  11.734   1.196  11.456
97173SOL    HW293352  11.616   1.232  11.367
97174SOL     OW93353   9.272  10.970  13.702
97174SOL    HW193354   9.349  10.967  13.644
97174SOL    HW293355   9.200  10.997  13.644
97175SOL     OW93356  10.505  11.038   3.337
97175SOL    HW193357  10.584  10.994   3.369
97175SOL    HW293358  10.438  11.020   3.403
97176SOL     OW93359  13.720  13.394   4.067
97176SOL    HW193360  13.678  13.463   4.118
97176SOL    HW293361  13.722  13.428   3.977
97177SOL     OW93362   7.565   6.202   9.290
97177SOL    HW193363   7.478   6.241   9.278
97177SOL    HW293364   7.605   6.255   9.360
97178SOL     OW93365   6.739   4.609  11.530
97178SOL    HW193366   6.699   4.581  11.448
97178SOL    HW293367   6.683   4.679  11.562
97179SOL     OW93368  11.085   2.660   6.776
97179SOL    HW193369  11.043   2.736   6.736
97179SOL    HW293370  11.027   2.636   6.848
97180SOL     OW93371  11.181  11.416   3.651
97180SOL    HW193372  11.087  11.403   3.664
97180SOL    HW293373  11.222  11.343   3.697
97181SOL     OW93374   8.709   1.036   6.084
97181SOL    HW193375   8.674   1.077   6.163
97181SOL    HW293376   8.799   1.067   6.078
97182SOL     OW93377   6.870  12.436   1.082
97182SOL    HW193378   6.942  12.374   1.086
97182SOL    HW293379   6.862  12.469   1.172
97183SOL     OW93380   1.789  13.733   6.691
97183SOL    HW193381   1.795  13.721   6.786
97183SOL    HW293382   1.702  13.699   6.668
97184SOL     OW93383  14.268   4.280   2.129
97184SOL    HW193384  14.174   4.276   2.110
97184SOL    HW293385  14.273   4.304   2.222
97185SOL     OW93386  14.276  13.012  11.055
97185SOL    HW193387  14.317  12.929  11.032
97185SOL    HW293388  14.337  13.053  11.116
97186SOL     OW93389   8.666   1.373   9.545
97186SOL    HW193390   8.628   1.361   9.632
97186SOL    HW293391   8.736   1.437   9.558
97187SOL     OW93392   2.336   4.434   9.271
97187SOL    HW193393   2.392   4.447   9.194
97187SOL    HW293394   2.354   4.509   9.328
97188SOL     OW93395  10.363   1.734  10.537
97188SOL    HW193396  10.303   1.782  10.595
97188SOL    HW293397  10.440   1.719  10.592
97189SOL     OW93398  11.564  11.229  10.346
97189SOL    HW193399  11.582  11.136  10.332
97189SOL    HW293400  11.544  11.263  10.258
97190SOL     OW93401   8.026  13.346   2.930
97190SOL    HW193402   7.938  13.328   2.897
97190SOL    HW293403   8.038  13.285   3.002
97191SOL     OW93404   5.071   8.982   7.324
97191SOL    HW193405   5.033   9.053   7.375
97191SOL    HW293406   5.012   8.970   7.250
97192SOL     OW93407   3.323   0.439  12.812
97192SOL    HW193408   3.396   0.449  12.873
97192SOL    HW293409   3.258   0.388  12.861
97193SOL     OW93410  12.645  14.362   3.040
97193SOL    HW193411  12.700  14.330   3.112
97193SOL    HW293412  12.672  14.310   2.965
97194SOL     OW93413  12.095   2.847   2.209
97194SOL    HW193414  12.003   2.872   2.210
97194SOL    HW293415  12.127   2.869   2.297
97195SOL     OW93416   3.007  11.627   7.465
97195SOL    HW193417   3.101  11.626   7.483
97195SOL    HW293418   2.995  11.697   7.401
97196SOL     OW93419  11.513   2.901   5.195
97196SOL    HW193420  11.591   2.955   5.208
97196SOL    HW293421  11.441   2.964   5.189
97197SOL     OW93422   6.593   5.861   7.688
97197SOL    HW193423   6.666   5.871   7.749
97197SOL    HW293424   6.522   5.913   7.727
97198SOL     OW93425  13.022   6.092  12.843
97198SOL    HW193426  13.008   6.122  12.753
97198SOL    HW293427  13.117   6.086  12.851
97199SOL     OW93428  14.297   0.549   1.632
97199SOL    HW193429  14.228   0.483   1.642
97199SOL    HW293430  14.378   0.502   1.653
97200SOL     OW93431   4.910   8.269   9.561
97200SOL    HW193432   5.003   8.273   9.537
97200SOL    HW293433   4.903   8.191   9.616
97201SOL     OW93434  14.689  12.756  12.293
97201SOL    HW193435  14.595  12.751  12.278
97201SOL    HW293436  14.700  12.746  12.387
97202SOL     OW93437  13.920   5.660   1.073
97202SOL    HW193438  13.878   5.744   1.092
97202SOL    HW293439  13.922   5.655   0.978
97203SOL     OW93440   6.650   7.798   9.768
97203SOL    HW193441   6.564   7.820   9.731
97203SOL    HW293442   6.650   7.703   9.774
97204SOL     OW93443   2.857  12.715  13.690
97204SOL    HW193444   2.850  12.622  13.665
97204SOL    HW293445   2.942  12.742  13.657
97205SOL     OW93446   9.354   9.597  10.387
97205SOL    HW193447   9.426   9.609  10.450
97205SOL    HW293448   9.393   9.546  10.316
97206SOL     OW93449   3.942   9.585  10.292
97206SOL    HW193450   3.873   9.560  10.231
97206SOL    HW293451   3.929   9.678  10.307
97207SOL     OW93452   7.948  10.978   2.801
97207SOL    HW193453   7.986  10.937   2.880
97207SOL    HW293454   7.855  10.958   2.807
97208SOL     OW93455   4.663   4.813   0.256
97208SOL    HW193456   4.597   4.754   0.221
97208SOL    HW293457   4.746   4.765   0.246
97209SOL     OW93458   6.779   0.473  12.308
97209SOL    HW193459   6.733   0.482  12.225
97209SOL    HW293460   6.766   0.556  12.352
97210SOL     OW93461   3.920   3.362   7.720
97210SOL    HW193462   3.901   3.392   7.809
97210SOL    HW293463   3.997   3.412   7.694
97211SOL     OW93464   3.455  14.070   0.411
97211SOL    HW193465   3.453  14.144   0.472
97211SOL    HW293466   3.540  14.076   0.368
97212SOL     OW93467   1.205   3.283  14.263
97212SOL    HW193468   1.216   3.198  14.218
97212SOL    HW293469   1.291   3.301  14.301
97213SOL     OW93470   8.639  11.823  13.124
97213SOL    HW193471   8.677  11.911  13.128
97213SOL    HW293472   8.699  11.774  13.068
97214SOL     OW93473   2.239   6.817   4.174
97214SOL    HW193474   2.297   6.795   4.247
97214SOL    HW293475   2.187   6.891   4.207
97215SOL     OW93476  11.734   8.548   7.297
97215SOL    HW193477  11.687   8.583   7.222
97215SOL    HW293478  11.679   8.475   7.328
97216SOL     OW93479   5.055   8.398  11.936
97216SOL    HW193480   5.126   8.337  11.952
97216SOL    HW293481   4.975   8.350  11.959
97217SOL     OW93482   5.600   7.048   5.290
97217SOL    HW193483   5.516   7.092   5.304
97217SOL    HW293484   5.624   7.014   5.377
97218SOL     OW93485  11.045   4.879   8.194
97218SOL    HW193486  11.083   4.799   8.156
97218SOL    HW293487  10.957   4.853   8.221
97219SOL     OW93488   4.179   8.128   6.839
97219SOL    HW193489   4.158   8.214   6.875
97219SOL    HW293490   4.179   8.141   6.744
97220SOL     OW93491   6.690  12.234   8.367
97220SOL    HW193492   6.735  12.201   8.445
97220SOL    HW293493   6.602  12.197   8.373
97221SOL     OW93494  12.335  14.556   4.635
97221SOL    HW193495  12.283  14.485   4.671
97221SOL    HW293496  12.362  14.607   4.712
97222SOL     OW93497   9.536   0.492   7.890
97222SOL    HW193498   9.539   0.584   7.917
97222SOL    HW293499   9.621   0.477   7.848
97223SOL     OW93500  12.226   9.659   9.992
97223SOL    HW193501  12.255   9.627   9.906
97223SOL    HW293502  12.307   9.684  10.036
97224SOL     OW93503  13.424   6.312   3.952
97224SOL    HW193504  13.392   6.224   3.935
97224SOL    HW293505  13.418   6.322   4.048
97225SOL     OW93506  10.900   3.654   2.270
97225SOL    HW193507  10.935   3.574   2.311
97225SOL    HW293508  10.923   3.645   2.178
97226SOL     OW93509   2.711   6.745   3.014
97226SOL    HW193510   2.671   6.804   2.950
97226SOL    HW293511   2.653   6.750   3.090
97227SOL     OW93512  14.439   5.901   1.317
97227SOL    HW193513  14.414   5.993   1.306
97227SOL    HW293514  14.499   5.902   1.391
97228SOL     OW93515  14.353   7.098   3.147
97228SOL    HW193516  14.426   7.038   3.162
97228SOL    HW293517  14.381   7.180   3.188
97229SOL     OW93518   4.473   2.315  13.283
97229SOL    HW193519   4.485   2.227  13.318
97229SOL    HW293520   4.416   2.303  13.207
97230SOL     OW93521   6.150   4.863   8.909
97230SOL    HW193522   6.216   4.846   8.976
97230SOL    HW293523   6.196   4.849   8.826
97231SOL     OW93524  14.243  14.813  13.532
97231SOL    HW193525  14.242   0.033  13.507
97231SOL    HW293526  14.313  14.775  13.480
97232SOL     OW93527  10.388   9.884   8.493
97232SOL    HW193528  10.429   9.832   8.423
97232SOL    HW293529  10.325   9.940   8.447
97233SOL     OW93530   3.496  14.567  12.950
97233SOL    HW193531   3.401  14.550  12.949
97233SOL    HW293532   3.509  14.622  13.027
97234SOL     OW93533   9.864  10.370   2.908
97234SOL    HW193534   9.952  10.353   2.943
97234SOL    HW293535   9.828  10.438   2.964
97235SOL     OW93536   6.307  14.495   2.572
97235SOL    HW193537   6.340  14.473   2.485
97235SOL    HW293538   6.382  14.483   2.630
97236SOL     OW93539  12.642   6.468   2.655
97236SOL    HW193540  12.628   6.529   2.583
97236SOL    HW293541  12.606   6.512   2.732
97237SOL     OW93542   4.084  10.783  12.185
97237SOL    HW193543   4.032  10.776  12.265
97237SOL    HW293544   4.035  10.735  12.119
97238SOL     OW93545   3.784   8.172  11.765
97238SOL    HW193546   3.708   8.231  11.758
97238SOL    HW293547   3.859   8.231  11.774
97239SOL     OW93548   7.248   3.290   9.320
97239SOL    HW193549   7.180   3.229   9.293
97239SOL    HW293550   7.315   3.235   9.362
97240SOL     OW93551  14.004   3.877  11.250
97240SOL    HW193552  14.031   3.895  11.341
97240SOL    HW293553  13.908   3.879  11.253
97241SOL     OW93554   5.400   1.521   4.494
97241SOL    HW193555   5.392   1.601   4.546
97241SOL    HW293556   5.480   1.480   4.526
97242SOL     OW93557   4.231   8.512   9.773
97242SOL    HW193558   4.149   8.461   9.767
97242SOL    HW293559   4.298   8.446   9.790
97243SOL     OW93560   3.956   7.247   4.046
97243SOL    HW193561   4.035   7.192   4.038
97243SOL    HW293562   3.988   7.337   4.034
97244SOL     OW93563   6.312   3.649   4.809
97244SOL    HW193564   6.319   3.669   4.903
97244SOL    HW293565   6.225   3.611   4.800
97245SOL     OW93566   7.173  14.351  14.742
97245SOL    HW193567   7.252  14.304  14.716
97245SOL    HW293568   7.204  14.428  14.789
97246SOL     OW93569   8.663   7.591  12.924
97246SOL    HW193570   8.589   7.538  12.953
97246SOL    HW293571   8.739   7.534  12.933
97247SOL     OW93572  13.581  14.356   9.499
97247SOL    HW193573  13.502  14.356   9.553
97247SOL    HW293574  13.592  14.264   9.472
97248SOL     OW93575   5.697  13.757  14.695
97248SOL    HW193576   5.636  13.726  14.628
97248SOL    HW293577   5.680  13.699  14.770
97249SOL     OW93578   4.101   3.593   7.589
97249SOL    HW193579   4.191   3.572   7.563
97249SOL    HW293580   4.050   3.579   7.509
97250SOL     OW93581   6.972   4.498   4.425
97250SOL    HW193582   6.913   4.538   4.361
97250SOL    HW293583   6.917   4.432   4.469
97251SOL     OW93584  11.843  13.087   7.534
97251SOL    HW193585  11.773  13.049   7.587
97251SOL    HW293586  11.813  13.175   7.513
97252SOL     OW93587  11.857   7.652   2.244
97252SOL    HW193588  11.919   7.590   2.283
97252SOL    HW293589  11.906   7.734   2.237
97253SOL     OW93590   3.814   6.783   9.410
97253SOL    HW193591   3.817   6.714   9.344
97253SOL    HW293592   3.895   6.832   9.396
97254SOL     OW93593   6.741  10.313   2.976
97254SOL    HW193594   6.701  10.377   3.034
97254SOL    HW293595   6.792  10.257   3.034
97255SOL     OW93596   2.051   8.384   6.240
97255SOL    HW193597   1.992   8.449   6.280
97255SOL    HW293598   2.071   8.420   6.154
97256SOL     OW93599   3.192   9.065   2.669
97256SOL    HW193600   3.111   9.096   2.711
97256SOL    HW293601   3.185   9.095   2.578
97257SOL     OW93602   9.026   1.411   6.802
97257SOL    HW193603   8.973   1.415   6.722
97257SOL    HW293604   8.985   1.474   6.861
97258SOL     OW93605   3.858  14.339   7.741
97258SOL    HW193606   3.799  14.384   7.802
97258SOL    HW293607   3.829  14.367   7.655
97259SOL     OW93608   6.599   4.423  13.301
97259SOL    HW193609   6.610   4.508  13.345
97259SOL    HW293610   6.590   4.360  13.373
97260SOL     OW93611   7.216   4.781  10.372
97260SOL    HW193612   7.170   4.820  10.297
97260SOL    HW293613   7.205   4.844  10.443
97261SOL     OW93614   8.728   2.180  11.316
97261SOL    HW193615   8.707   2.268  11.286
97261SOL    HW293616   8.646   2.131  11.307
97262SOL     OW93617   8.095   3.789   2.349
97262SOL    HW193618   8.007   3.798   2.386
97262SOL    HW293619   8.122   3.878   2.330
97263SOL     OW93620   1.082   4.183  14.632
97263SOL    HW193621   1.021   4.112  14.615
97263SOL    HW293622   1.145   4.178  14.560
97264SOL     OW93623   2.834   4.615   4.232
97264SOL    HW193624   2.782   4.535   4.238
97264SOL    HW293625   2.796   4.673   4.299
97265SOL     OW93626   4.108  11.064  12.103
97265SOL    HW193627   4.103  11.064  12.007
97265SOL    HW293628   4.102  10.972  12.127
97266SOL     OW93629   7.616   7.850  12.431
97266SOL    HW193630   7.706   7.821  12.447
97266SOL    HW293631   7.611   7.859  12.335
97267SOL     OW93632   6.623   0.150   5.591
97267SOL    HW193633   6.588   0.178   5.675
97267SOL    HW293634   6.549   0.108   5.547
97268SOL     OW93635   0.754  10.828   2.325
97268SOL    HW193636   0.758  10.919   2.296
97268SOL    HW293637   0.719  10.781   2.250
97269SOL     OW93638   0.219   9.364  12.603
97269SOL    HW193639   0.310   9.392  12.596
97269SOL    HW293640   0.200   9.323  12.519
97270SOL     OW93641   6.542   2.060  11.694
97270SOL    HW193642   6.531   2.119  11.769
97270SOL    HW293643   6.453   2.033  11.671
97271SOL     OW93644   2.679  10.206   4.531
97271SOL    HW193645   2.642  10.279   4.482
97271SOL    HW293646   2.604  10.148   4.548
97272SOL     OW93647  14.627  13.047  10.376
97272SOL    HW193648  14.704  13.036  10.432
97272SOL    HW293649  14.557  13.074  10.436
97273SOL     OW93650   2.104  13.015  13.260
97273SOL    HW193651   2.075  13.072  13.188
97273SOL    HW293652   2.089  12.927  13.227
97274SOL     OW93653   2.295  14.300   5.266
97274SOL    HW193654   2.339  14.326   5.185
97274SOL    HW293655   2.233  14.232   5.239
97275SOL     OW93656  14.472   1.282   1.061
97275SOL    HW193657  14.516   1.288   0.977
97275SOL    HW293658  14.527   1.224   1.113
97276SOL     OW93659  11.952  12.153   1.729
97276SOL    HW193660  11.915  12.161   1.817
97276SOL    HW293661  11.877  12.160   1.671
97277SOL     OW93662  10.955   7.100   6.077
97277SOL    HW193663  11.009   7.021   6.070
97277SOL    HW293664  10.910   7.106   5.993
97278SOL     OW93665   2.683   2.025   7.268
97278SOL    HW193666   2.642   2.066   7.191
97278SOL    HW293667   2.638   2.064   7.343
97279SOL     OW93668  10.971   2.567   7.234
97279SOL    HW193669  11.007   2.648   7.269
97279SOL    HW293670  11.028   2.498   7.269
97280SOL     OW93671   8.728   5.641   2.444
97280SOL    HW193672   8.712   5.735   2.446
97280SOL    HW293673   8.680   5.606   2.518
97281SOL     OW93674   4.943   9.757  11.287
97281SOL    HW193675   4.947   9.804  11.203
97281SOL    HW293676   4.888   9.681  11.269
97282SOL     OW93677   8.606   3.323  12.098
97282SOL    HW193678   8.562   3.238  12.104
97282SOL    HW293679   8.685   3.313  12.150
97283SOL     OW93680   2.178  12.768   2.959
97283SOL    HW193681   2.261  12.759   2.912
97283SOL    HW293682   2.192  12.724   3.043
97284SOL     OW93683  14.118  11.066   9.546
97284SOL    HW193684  14.041  11.091   9.494
97284SOL    HW293685  14.083  11.011   9.615
97285SOL     OW93686   3.951   2.466   4.800
97285SOL    HW193687   4.005   2.494   4.725
97285SOL    HW293688   4.015   2.441   4.867
97286SOL     OW93689  11.309   9.903   0.321
97286SOL    HW193690  11.354   9.887   0.238
97286SOL    HW293691  11.275   9.818   0.347
97287SOL     OW93692   9.030   0.662   9.891
97287SOL    HW193693   9.090   0.678   9.964
97287SOL    HW293694   9.083   0.676   9.813
97288SOL     OW93695  14.617   2.726  12.319
97288SOL    HW193696  14.649   2.682  12.398
97288SOL    HW293697  14.559   2.662  12.278
97289SOL     OW93698  14.501   3.668  11.341
97289SOL    HW193699  14.540   3.616  11.271
97289SOL    HW293700  14.576   3.701  11.391
97290SOL     OW93701   9.408  12.017   7.423
97290SOL    HW193702   9.491  12.058   7.398
97290SOL    HW293703   9.422  11.923   7.405
97291SOL     OW93704   7.982   7.862  12.017
97291SOL    HW193705   8.021   7.910  12.090
97291SOL    HW293706   7.903   7.911  11.996
97292SOL     OW93707  13.621   6.805   0.793
97292SOL    HW193708  13.634   6.717   0.828
97292SOL    HW293709  13.558   6.846   0.853
97293SOL     OW93710   1.400  11.263   1.412
97293SOL    HW193711   1.312  11.292   1.435
97293SOL    HW293712   1.442  11.339   1.373
97294SOL     OW93713   7.966  10.149  13.184
97294SOL    HW193714   8.003  10.229  13.146
97294SOL    HW293715   7.966  10.086  13.111
97295SOL     OW93716   5.225   8.321  13.784
97295SOL    HW193717   5.207   8.293  13.695
97295SOL    HW293718   5.153   8.379  13.807
97296SOL     OW93719  14.338  11.777  13.202
97296SOL    HW193720  14.245  11.769  13.181
97296SOL    HW293721  14.372  11.838  13.137
97297SOL     OW93722   9.946   5.806  12.643
97297SOL    HW193723  10.026   5.789  12.694
97297SOL    HW293724   9.970   5.784  12.553
97298SOL     OW93725  13.165   9.400  11.102
97298SOL    HW193726  13.104   9.444  11.043
97298SOL    HW293727  13.233   9.465  11.119
97299SOL     OW93728   3.556   3.215   5.399
97299SOL    HW193729   3.529   3.132   5.359
97299SOL    HW293730   3.565   3.195   5.492
97300SOL     OW93731   7.617   2.315  10.372
97300SOL    HW193732   7.626   2.397  10.421
97300SOL    HW293733   7.625   2.341  10.280
97301SOL     OW93734  11.969   4.173   8.186
97301SOL    HW193735  11.967   4.089   8.139
97301SOL    HW293736  11.915   4.232   8.133
97302SOL     OW93737   3.308   5.294  12.022
97302SOL    HW193738   3.401   5.299  12.000
97302SOL    HW293739   3.282   5.206  11.998
97303SOL     OW93740   0.201  10.781   5.367
97303SOL    HW193741   0.121  10.811   5.323
97303SOL    HW293742   0.228  10.703   5.318
97304SOL     OW93743   0.768   8.849  14.209
97304SOL    HW193744   0.810   8.810  14.286
97304SOL    HW293745   0.741   8.773  14.156
97305SOL     OW93746  14.859   1.623  10.666
97305SOL    HW193747   0.022   1.534  10.672
97305SOL    HW293748   0.059   1.675  10.631
97306SOL     OW93749   4.117   3.316  13.422
97306SOL    HW193750   4.042   3.258  13.436
97306SOL    HW293751   4.111   3.343  13.331
97307SOL     OW93752   2.150   6.477   8.464
97307SOL    HW193753   2.137   6.477   8.369
97307SOL    HW293754   2.075   6.427   8.498
97308SOL     OW93755  10.060  13.926   8.353
97308SOL    HW193756  10.101  14.005   8.389
97308SOL    HW293757  10.103  13.913   8.268
97309SOL     OW93758  10.612   4.463   8.823
97309SOL    HW193759  10.606   4.398   8.753
97309SOL    HW293760  10.536   4.445   8.878
97310SOL     OW93761   7.720  13.390   2.869
97310SOL    HW193762   7.651  13.333   2.834
97310SOL    HW293763   7.739  13.450   2.797
97311SOL     OW93764   8.619   1.979   3.458
97311SOL    HW193765   8.703   1.962   3.501
97311SOL    HW293766   8.608   1.906   3.397
97312SOL     OW93767   4.042  12.208   8.256
97312SOL    HW193768   3.947  12.202   8.258
97312SOL    HW293769   4.072  12.122   8.287
97313SOL     OW93770   2.723  13.384   6.889
97313SOL    HW193771   2.630  13.401   6.906
97313SOL    HW293772   2.740  13.428   6.805
97314SOL     OW93773  13.485   8.026   4.287
97314SOL    HW193774  13.550   8.023   4.217
97314SOL    HW293775  13.445   7.939   4.286
97315SOL     OW93776  10.529   4.507   4.859
97315SOL    HW193777  10.562   4.597   4.853
97315SOL    HW293778  10.435   4.516   4.874
97316SOL     OW93779   6.615   8.965   0.196
97316SOL    HW193780   6.636   8.888   0.248
97316SOL    HW293781   6.602   9.035   0.261
97317SOL     OW93782   2.513   2.606   2.550
97317SOL    HW193783   2.576   2.649   2.608
97317SOL    HW293784   2.434   2.597   2.603
97318SOL     OW93785  14.847   9.060   6.896
97318SOL    HW193786  14.790   9.105   6.833
97318SOL    HW293787  14.848   8.970   6.866
97319SOL     OW93788   2.983   4.419   1.340
97319SOL    HW193789   3.052   4.394   1.279
97319SOL    HW293790   2.934   4.339   1.356
97320SOL     OW93791   6.884  11.659  12.725
97320SOL    HW193792   6.940  11.688  12.797
97320SOL    HW293793   6.813  11.611  12.768
97321SOL     OW93794   2.728   1.234  11.712
97321SOL    HW193795   2.648   1.234  11.764
97321SOL    HW293796   2.793   1.277  11.767
97322SOL     OW93797   6.320   3.060   7.964
97322SOL    HW193798   6.413   3.055   7.942
97322SOL    HW293799   6.315   3.022   8.052
97323SOL     OW93800  11.533   0.207   7.479
97323SOL    HW193801  11.627   0.210   7.459
97323SOL    HW293802  11.514   0.113   7.490
97324SOL     OW93803  11.508   9.604   1.469
97324SOL    HW193804  11.561   9.680   1.493
97324SOL    HW293805  11.503   9.608   1.373
97325SOL     OW93806   7.195   6.694   4.246
97325SOL    HW193807   7.203   6.784   4.277
97325SOL    HW293808   7.210   6.641   4.325
97326SOL     OW93809   0.716   3.221  13.431
97326SOL    HW193810   0.760   3.258  13.354
97326SOL    HW293811   0.739   3.128  13.429
97327SOL     OW93812  12.885   5.702  11.426
97327SOL    HW193813  12.789   5.698  11.428
97327SOL    HW293814  12.908   5.683  11.335
97328SOL     OW93815   4.405   5.431   6.758
97328SOL    HW193816   4.362   5.350   6.730
97328SOL    HW293817   4.337   5.480   6.804
97329SOL     OW93818   0.522  12.396   9.817
97329SOL    HW193819   0.500  12.346   9.895
97329SOL    HW293820   0.498  12.486   9.840
97330SOL     OW93821   3.922   7.495  13.745
97330SOL    HW193822   3.930   7.487  13.840
97330SOL    HW293823   3.883   7.581  13.731
97331SOL     OW93824   6.508  14.781   0.035
97331SOL    HW193825   6.602  14.789   0.018
97331SOL    HW293826   6.503  14.727   0.114
97332SOL     OW93827   0.973   8.400  12.268
97332SOL    HW193828   1.018   8.391  12.352
97332SOL    HW293829   1.034   8.450  12.213
97333SOL     OW93830   2.288   8.744  12.364
97333SOL    HW193831   2.215   8.783  12.316
97333SOL    HW293832   2.333   8.818  12.403
97334SOL     OW93833   6.123  10.002   3.542
97334SOL    HW193834   6.051  10.062   3.521
97334SOL    HW293835   6.188  10.018   3.474
97335SOL     OW93836   4.711  11.327   8.890
97335SOL    HW193837   4.724  11.257   8.825
97335SOL    HW293838   4.703  11.281   8.974
97336SOL     OW93839   7.972   7.436  11.441
97336SOL    HW193840   7.990   7.496  11.369
97336SOL    HW293841   7.897   7.474  11.487
97337SOL     OW93842  11.541   0.528   8.286
97337SOL    HW193843  11.600   0.590   8.330
97337SOL    HW293844  11.482   0.584   8.235
97338SOL     OW93845   6.617   9.445  10.010
97338SOL    HW193846   6.532   9.488  10.007
97338SOL    HW293847   6.627   9.419  10.101
97339SOL     OW93848   2.262   8.770   9.916
97339SOL    HW193849   2.334   8.772   9.979
97339SOL    HW293850   2.218   8.686   9.931
97340SOL     OW93851   2.575   3.565   8.192
97340SOL    HW193852   2.641   3.516   8.143
97340SOL    HW293853   2.624   3.611   8.260
97341SOL     OW93854   1.536   4.213   3.163
97341SOL    HW193855   1.619   4.204   3.210
97341SOL    HW293856   1.478   4.256   3.226
97342SOL     OW93857   0.573  13.632   1.152
97342SOL    HW193858   0.585  13.648   1.058
97342SOL    HW293859   0.640  13.686   1.194
97343SOL     OW93860   1.431   8.208   0.066
97343SOL    HW193861   1.434   8.289   0.116
97343SOL    HW293862   1.520   8.173   0.071
97344SOL     OW93863   9.941   9.187   4.226
97344SOL    HW193864   9.857   9.163   4.266
97344SOL    HW293865   9.964   9.112   4.172
97345SOL     OW93866   5.286  11.012  12.989
97345SOL    HW193867   5.246  11.065  13.058
97345SOL    HW293868   5.277  10.922  13.019
97346SOL     OW93869  14.407   1.545  14.744
97346SOL    HW193870  14.422   1.470  14.803
97346SOL    HW293871  14.342   1.598  14.790
97347SOL     OW93872  12.342   0.914   5.610
97347SOL    HW193873  12.320   0.855   5.682
97347SOL    HW293874  12.258   0.934   5.568
97348SOL     OW93875  10.006   1.833   2.077
97348SOL    HW193876  10.079   1.784   2.113
97348SOL    HW293877   9.988   1.902   2.141
97349SOL     OW93878   5.835  11.998   4.340
97349SOL    HW193879   5.918  12.044   4.324
97349SOL    HW293880   5.852  11.944   4.417
97350SOL     OW93881  11.376  13.346   3.200
97350SOL    HW193882  11.382  13.361   3.294
97350SOL    HW293883  11.409  13.257   3.187
97351SOL     OW93884  11.672   6.481   4.456
97351SOL    HW193885  11.630   6.533   4.387
97351SOL    HW293886  11.600   6.451   4.511
97352SOL     OW93887  11.555  13.654   2.641
97352SOL    HW193888  11.481  13.597   2.618
97352SOL    HW293889  11.554  13.723   2.575
97353SOL     OW93890   3.839   0.577   2.546
97353SOL    HW193891   3.762   0.579   2.602
97353SOL    HW293892   3.889   0.502   2.578
97354SOL     OW93893   4.511  14.162   8.400
97354SOL    HW193894   4.471  14.215   8.470
97354SOL    HW293895   4.441  14.150   8.336
97355SOL     OW93896   8.547   0.670  13.756
97355SOL    HW193897   8.614   0.739  13.750
97355SOL    HW293898   8.473   0.704  13.707
97356SOL     OW93899   5.275  12.611   8.050
97356SOL    HW193900   5.294  12.519   8.068
97356SOL    HW293901   5.359  12.655   8.062
97357SOL     OW93902   0.680   5.177   1.377
97357SOL    HW193903   0.647   5.248   1.322
97357SOL    HW293904   0.737   5.126   1.320
97358SOL     OW93905   4.313   1.456   2.825
97358SOL    HW193906   4.346   1.367   2.839
97358SOL    HW293907   4.315   1.496   2.912
97359SOL     OW93908   5.613   1.823   2.060
97359SOL    HW193909   5.613   1.752   2.124
97359SOL    HW293910   5.524   1.858   2.061
97360SOL     OW93911   3.345  13.679   8.905
97360SOL    HW193912   3.293  13.696   8.984
97360SOL    HW293913   3.354  13.584   8.902
97361SOL     OW93914  14.600   2.372   5.882
97361SOL    HW193915  14.567   2.284   5.867
97361SOL    HW293916  14.681   2.376   5.832
97362SOL     OW93917   5.012   8.758   0.642
97362SOL    HW193918   4.933   8.741   0.693
97362SOL    HW293919   5.004   8.701   0.565
97363SOL     OW93920   5.561   1.530   6.840
97363SOL    HW193921   5.542   1.512   6.748
97363SOL    HW293922   5.486   1.579   6.872
97364SOL     OW93923  11.539  11.376   8.671
97364SOL    HW193924  11.536  11.467   8.702
97364SOL    HW293925  11.476  11.373   8.599
97365SOL     OW93926  14.764  13.086   0.057
97365SOL    HW193927  14.761  13.011   0.116
97365SOL    HW293928  14.683  13.134   0.075
97366SOL     OW93929   2.137   7.346   9.886
97366SOL    HW193930   2.219   7.372   9.844
97366SOL    HW293931   2.070   7.400   9.845
97367SOL     OW93932   5.139   2.310  14.150
97367SOL    HW193933   5.203   2.258  14.199
97367SOL    HW293934   5.141   2.274  14.062
97368SOL     OW93935   9.209   8.459  12.839
97368SOL    HW193936   9.143   8.524  12.863
97368SOL    HW293937   9.250   8.435  12.922
97369SOL     OW93938   0.207   3.559  10.712
97369SOL    HW193939   0.297   3.562  10.744
97369SOL    HW293940   0.203   3.482  10.656
97370SOL     OW93941   9.472  12.311   2.829
97370SOL    HW193942   9.416  12.298   2.906
97370SOL    HW293943   9.447  12.397   2.795
97371SOL     OW93944  14.252   1.207  12.394
97371SOL    HW193945  14.228   1.293  12.359
97371SOL    HW293946  14.286   1.159  12.318
97372SOL     OW93947  10.074   3.550  12.043
97372SOL    HW193948  10.031   3.529  12.126
97372SOL    HW293949  10.093   3.464  12.005
97373SOL     OW93950   6.100   7.384   9.008
97373SOL    HW193951   6.114   7.296   8.973
97373SOL    HW293952   6.157   7.440   8.955
97374SOL     OW93953   2.608   9.718  11.428
97374SOL    HW193954   2.561   9.634  11.434
97374SOL    HW293955   2.680   9.700  11.369
97375SOL     OW93956   0.480   0.572   2.437
97375SOL    HW193957   0.393   0.594   2.471
97375SOL    HW293958   0.489   0.478   2.451
97376SOL     OW93959   9.922   0.407   0.239
97376SOL    HW193960   9.957   0.337   0.295
97376SOL    HW293961   9.828   0.404   0.254
97377SOL     OW93962  12.731  13.871   6.322
97377SOL    HW193963  12.667  13.896   6.255
97377SOL    HW293964  12.679  13.852   6.400
97378SOL     OW93965   7.004  14.753  14.123
97378SOL    HW193966   6.968  14.711  14.201
97378SOL    HW293967   7.021  14.843  14.150
97379SOL     OW93968   7.320   4.132   1.039
97379SOL    HW193969   7.363   4.194   1.098
97379SOL    HW293970   7.372   4.134   0.959
97380SOL     OW93971  10.240  10.914  11.789
97380SOL    HW193972  10.311  10.862  11.751
97380SOL    HW293973  10.162  10.858  11.777
97381SOL     OW93974   6.906   2.570   7.768
97381SOL    HW193975   6.910   2.488   7.718
97381SOL    HW293976   6.991   2.575   7.812
97382SOL     OW93977   7.510   3.414   6.652
97382SOL    HW193978   7.554   3.332   6.672
97382SOL    HW293979   7.578   3.481   6.660
97383SOL     OW93980  14.213   5.049   1.777
97383SOL    HW193981  14.155   4.975   1.797
97383SOL    HW293982  14.228   5.091   1.862
97384SOL     OW93983   2.773   1.692   8.903
97384SOL    HW193984   2.738   1.721   8.818
97384SOL    HW293985   2.722   1.614   8.924
97385SOL     OW93986   4.269   3.759  13.428
97385SOL    HW193987   4.266   3.822  13.500
97385SOL    HW293988   4.212   3.688  13.457
97386SOL     OW93989   6.526  12.108  11.509
97386SOL    HW193990   6.509  12.138  11.420
97386SOL    HW293991   6.621  12.092  11.511
97387SOL     OW93992   1.027  12.101   4.924
97387SOL    HW193993   1.068  12.018   4.903
97387SOL    HW293994   0.943  12.099   4.879
97388SOL     OW93995  12.771   5.370  10.476
97388SOL    HW193996  12.747   5.370  10.384
97388SOL    HW293997  12.709   5.429  10.518
97389SOL     OW93998   1.302  12.609  14.271
97389SOL    HW193999   1.390  12.590  14.305
97389SOL    HW294000   1.317  12.670  14.199
97390SOL     OW94001   1.350   0.602  12.764
97390SOL    HW194002   1.263   0.643  12.768
97390SOL    HW294003   1.409   0.673  12.740
97391SOL     OW94004   9.046   5.120   1.922
97391SOL    HW194005   9.081   5.185   1.984
97391SOL    HW294006   8.956   5.150   1.905
97392SOL     OW94007   4.261   6.449  13.289
97392SOL    HW194008   4.305   6.504  13.354
97392SOL    HW294009   4.178   6.425  13.330
97393SOL     OW94010  14.358  11.253   6.314
97393SOL    HW194011  14.315  11.253   6.228
97393SOL    HW294012  14.451  11.248   6.295
97394SOL     OW94013   8.334   8.192   6.780
97394SOL    HW194014   8.371   8.218   6.696
97394SOL    HW294015   8.299   8.273   6.817
97395SOL     OW94016   4.626   9.183  14.487
97395SOL    HW194017   4.553   9.130  14.455
97395SOL    HW294018   4.595   9.221  14.569
97396SOL     OW94019   5.075  12.893  13.551
97396SOL    HW194020   5.034  12.832  13.613
97396SOL    HW294021   5.153  12.846  13.521
97397SOL     OW94022   4.818  12.307   9.880
97397SOL    HW194023   4.785  12.378   9.825
97397SOL    HW294024   4.909  12.295   9.853
97398SOL     OW94025   2.746  14.034  13.695
97398SOL    HW194026   2.800  14.067  13.623
97398SOL    HW294027   2.722  13.945  13.669
97399SOL     OW94028   2.174   3.743   6.315
97399SOL    HW194029   2.251   3.694   6.346
97399SOL    HW294030   2.178   3.826   6.361
97400SOL     OW94031   5.542   9.179   8.743
97400SOL    HW194032   5.605   9.159   8.812
97400SOL    HW294033   5.559   9.114   8.674
97401SOL     OW94034   5.423   1.966  10.745
97401SOL    HW194035   5.390   1.892  10.693
97401SOL    HW294036   5.518   1.957  10.742
97402SOL     OW94037   7.721   7.269   6.873
97402SOL    HW194038   7.636   7.278   6.917
97402SOL    HW294039   7.759   7.357   6.876
97403SOL     OW94040   6.552  13.140   0.508
97403SOL    HW194041   6.457  13.147   0.506
97403SOL    HW294042   6.569  13.047   0.520
97404SOL     OW94043   7.677   0.738   5.791
97404SOL    HW194044   7.639   0.816   5.751
97404SOL    HW294045   7.670   0.753   5.885
97405SOL     OW94046   5.691   9.822   0.352
97405SOL    HW194047   5.627   9.847   0.285
97405SOL    HW294048   5.659   9.737   0.383
97406SOL     OW94049   4.971  12.005   6.162
97406SOL    HW194050   4.884  12.028   6.131
97406SOL    HW294051   5.014  11.964   6.087
97407SOL     OW94052   6.623   8.931   1.696
97407SOL    HW194053   6.563   8.976   1.757
97407SOL    HW294054   6.684   8.999   1.669
97408SOL     OW94055  10.512   3.987   1.616
97408SOL    HW194056  10.584   4.051   1.620
97408SOL    HW294057  10.466   4.008   1.535
97409SOL     OW94058   4.052   6.639  14.048
97409SOL    HW194059   4.101   6.715  14.078
97409SOL    HW294060   4.117   6.568  14.046
97410SOL     OW94061  10.542   8.997  12.896
97410SOL    HW194062  10.609   8.936  12.927
97410SOL    HW294063  10.486   9.013  12.972
97411SOL     OW94064   2.567  11.985  14.511
97411SOL    HW194065   2.487  12.031  14.487
97411SOL    HW294066   2.617  11.982  14.429
97412SOL     OW94067  12.091   2.997   8.712
97412SOL    HW194068  12.049   2.956   8.788
97412SOL    HW294069  12.064   2.944   8.638
97413SOL     OW94070   7.511   8.135   0.016
97413SOL    HW194071   7.602   8.119   0.041
97413SOL    HW294072   7.465   8.149   0.098
97414SOL     OW94073   3.609   5.773   8.190
97414SOL    HW194074   3.680   5.779   8.254
97414SOL    HW294075   3.655   5.763   8.106
97415SOL     OW94076   1.135  14.082   4.925
97415SOL    HW194077   1.118  14.038   4.841
97415SOL    HW294078   1.089  14.165   4.918
97416SOL     OW94079  12.874   6.857   1.749
97416SOL    HW194080  12.876   6.765   1.725
97416SOL    HW294081  12.949   6.895   1.703
97417SOL     OW94082  10.584  10.769   3.721
97417SOL    HW194083  10.623  10.685   3.744
97417SOL    HW294084  10.624  10.832   3.781
97418SOL     OW94085   0.062  14.647  13.262
97418SOL    HW194086   0.016  14.594  13.197
97418SOL    HW294087  14.870  14.661  13.332
97419SOL     OW94088   6.949   8.477  11.570
97419SOL    HW194089   6.981   8.429  11.494
97419SOL    HW294090   6.882   8.420  11.608
97420SOL     OW94091   1.943   3.278   2.598
97420SOL    HW194092   1.905   3.364   2.585
97420SOL    HW294093   1.999   3.288   2.675
97421SOL     OW94094   0.637   0.417   7.430
97421SOL    HW194095   0.573   0.358   7.390
97421SOL    HW294096   0.586   0.495   7.453
97422SOL     OW94097   8.150  11.732  10.583
97422SOL    HW194098   8.115  11.668  10.645
97422SOL    HW294099   8.078  11.751  10.523
97423SOL     OW94100   1.187   2.233   6.420
97423SOL    HW194101   1.179   2.157   6.477
97423SOL    HW294102   1.218   2.303   6.477
97424SOL     OW94103   6.390  12.400   1.672
97424SOL    HW194104   6.322  12.374   1.609
97424SOL    HW294105   6.364  12.488   1.700
97425SOL     OW94106   1.002   9.393   7.663
97425SOL    HW194107   1.010   9.460   7.732
97425SOL    HW294108   1.085   9.345   7.668
97426SOL     OW94109  10.050   6.238   6.516
97426SOL    HW194110  10.043   6.322   6.470
97426SOL    HW294111  10.084   6.178   6.450
97427SOL     OW94112  11.118  11.864   8.718
97427SOL    HW194113  11.026  11.874   8.744
97427SOL    HW294114  11.167  11.901   8.792
97428SOL     OW94115  13.342   5.937   3.035
97428SOL    HW194116  13.344   6.022   3.080
97428SOL    HW294117  13.398   5.880   3.088
97429SOL     OW94118  14.340  12.618   8.042
97429SOL    HW194119  14.348  12.605   7.948
97429SOL    HW294120  14.425  12.654   8.068
97430SOL     OW94121   3.775   7.694   2.339
97430SOL    HW194122   3.845   7.633   2.318
97430SOL    HW294123   3.808   7.779   2.309
97431SOL     OW94124   8.796   1.036   9.333
97431SOL    HW194125   8.851   1.003   9.404
97431SOL    HW294126   8.758   0.957   9.295
97432SOL     OW94127   9.542   6.733   3.821
97432SOL    HW194128   9.590   6.652   3.804
97432SOL    HW294129   9.473   6.708   3.883
97433SOL     OW94130  12.648  12.150   2.318
97433SOL    HW194131  12.598  12.200   2.254
97433SOL    HW294132  12.702  12.091   2.267
97434SOL     OW94133   8.457  11.706   1.393
97434SOL    HW194134   8.392  11.641   1.367
97434SOL    HW294135   8.541  11.661   1.380
97435SOL     OW94136   4.398  11.424   3.836
97435SOL    HW194137   4.462  11.494   3.817
97435SOL    HW294138   4.391  11.424   3.932
97436SOL     OW94139   8.090   1.104  11.728
97436SOL    HW194140   8.060   1.194  11.738
97436SOL    HW294141   8.184   1.112  11.711
97437SOL     OW94142   5.772  10.088  13.789
97437SOL    HW194143   5.766   9.996  13.814
97437SOL    HW294144   5.784  10.134  13.872
97438SOL     OW94145   2.322   1.820  14.391
97438SOL    HW194146   2.292   1.884  14.326
97438SOL    HW294147   2.320   1.868  14.474
97439SOL     OW94148   7.037   2.123   6.686
97439SOL    HW194149   6.975   2.132   6.759
97439SOL    HW294150   7.042   2.029   6.670
97440SOL     OW94151   2.743  11.246   8.424
97440SOL    HW194152   2.658  11.282   8.450
97440SOL    HW294153   2.800  11.323   8.418
97441SOL     OW94154   9.369   6.179   8.689
97441SOL    HW194155   9.379   6.270   8.717
97441SOL    HW294156   9.302   6.182   8.621
97442SOL     OW94157  10.423   1.946   1.119
97442SOL    HW194158  10.515   1.959   1.095
97442SOL    HW294159  10.379   2.023   1.082
97443SOL     OW94160  13.293   1.353   9.992
97443SOL    HW194161  13.314   1.324   9.903
97443SOL    HW294162  13.335   1.439  10.000
97444SOL     OW94163  12.673   2.221   3.110
97444SOL    HW194164  12.638   2.245   3.024
97444SOL    HW294165  12.768   2.227   3.101
97445SOL     OW94166   1.314   8.183   5.665
97445SOL    HW194167   1.242   8.227   5.710
97445SOL    HW294168   1.302   8.090   5.685
97446SOL     OW94169  11.270   7.215   0.732
97446SOL    HW194170  11.219   7.156   0.677
97446SOL    HW294171  11.275   7.170   0.817
97447SOL     OW94172   6.445  11.492  12.578
97447SOL    HW194173   6.476  11.582  12.588
97447SOL    HW294174   6.428  11.483  12.484
97448SOL     OW94175  13.326   0.014  14.674
97448SOL    HW194176  13.377  14.819  14.718
97448SOL    HW294177  13.303  14.848  14.589
97449SOL     OW94178  13.865   5.626   4.815
97449SOL    HW194179  13.806   5.700   4.825
97449SOL    HW294180  13.837   5.564   4.882
97450SOL     OW94181   4.386   1.486   9.097
97450SOL    HW194182   4.461   1.536   9.129
97450SOL    HW294183   4.330   1.551   9.055
97451SOL     OW94184  12.513  12.528  12.177
97451SOL    HW194185  12.422  12.559  12.184
97451SOL    HW294186  12.537  12.543  12.086
97452SOL     OW94187  10.008  11.299   8.593
97452SOL    HW194188  10.086  11.245   8.585
97452SOL    HW294189   9.935  11.237   8.590
97453SOL     OW94190   1.665   4.908   2.510
97453SOL    HW194191   1.734   4.974   2.522
97453SOL    HW294192   1.584   4.960   2.505
97454SOL     OW94193   0.523   8.169   2.692
97454SOL    HW194194   0.459   8.136   2.629
97454SOL    HW294195   0.502   8.122   2.773
97455SOL     OW94196  13.686  10.954   9.482
97455SOL    HW194197  13.598  10.980   9.510
97455SOL    HW294198  13.696  10.864   9.514
97456SOL     OW94199   1.349   0.991   5.094
97456SOL    HW194200   1.273   1.014   5.041
97456SOL    HW294201   1.317   0.927   5.157
97457SOL     OW94202  11.484  14.491   4.880
97457SOL    HW194203  11.522  14.465   4.964
97457SOL    HW294204  11.500  14.416   4.823
97458SOL     OW94205   5.857   0.872   5.980
97458SOL    HW194206   5.952   0.885   5.986
97458SOL    HW294207   5.838   0.804   6.045
97459SOL     OW94208   2.534  13.620  10.137
97459SOL    HW194209   2.455  13.614  10.084
97459SOL    HW294210   2.541  13.534  10.179
97460SOL     OW94211  10.703   1.100   4.687
97460SOL    HW194212  10.778   1.041   4.679
97460SOL    HW294213  10.639   1.064   4.625
97461SOL     OW94214   0.082   6.704   1.633
97461SOL    HW194215   0.104   6.673   1.545
97461SOL    HW294216   0.082   6.799   1.625
97462SOL     OW94217  11.344   4.926   0.675
97462SOL    HW194218  11.422   4.979   0.693
97462SOL    HW294219  11.373   4.863   0.610
97463SOL     OW94220   9.092   6.721  11.652
97463SOL    HW194221   9.154   6.718  11.724
97463SOL    HW294222   9.140   6.684  11.578
97464SOL     OW94223   2.980   1.744  14.860
97464SOL    HW194224   3.054   1.734  14.801
97464SOL    HW294225   2.905   1.764  14.803
97465SOL     OW94226   9.430   1.146   5.667
97465SOL    HW194227   9.470   1.233   5.667
97465SOL    HW294228   9.384   1.141   5.583
97466SOL     OW94229   3.812   4.014  11.251
97466SOL    HW194230   3.859   3.960  11.187
97466SOL    HW294231   3.740   4.053  11.201
97467SOL     OW94232   6.078  12.733   1.150
97467SOL    HW194233   6.140  12.731   1.223
97467SOL    HW294234   6.047  12.824   1.148
97468SOL     OW94235  12.423  12.222  13.426
97468SOL    HW194236  12.495  12.276  13.458
97468SOL    HW294237  12.448  12.198  13.337
97469SOL     OW94238   1.577   4.302   2.169
97469SOL    HW194239   1.649   4.340   2.220
97469SOL    HW294240   1.509   4.369   2.169
97470SOL     OW94241   3.814  14.199   6.424
97470SOL    HW194242   3.879  14.157   6.366
97470SOL    HW294243   3.834  14.165   6.511
97471SOL     OW94244   1.914  13.650   8.123
97471SOL    HW194245   1.893  13.725   8.068
97471SOL    HW294246   1.996  13.674   8.166
97472SOL     OW94247   8.170  13.277   7.896
97472SOL    HW194248   8.122  13.351   7.932
97472SOL    HW294249   8.255  13.279   7.941
97473SOL     OW94250   2.160   3.007   8.071
97473SOL    HW194251   2.156   3.102   8.083
97473SOL    HW294252   2.074   2.983   8.036
97474SOL     OW94253   0.364   2.247   6.996
97474SOL    HW194254   0.425   2.201   7.053
97474SOL    HW294255   0.393   2.228   6.907
97475SOL     OW94256  14.609  11.342  14.679
97475SOL    HW194257  14.644  11.254  14.691
97475SOL    HW294258  14.666  11.381  14.612
97476SOL     OW94259  13.988  11.301   5.118
97476SOL    HW194260  13.969  11.384   5.074
97476SOL    HW294261  14.046  11.324   5.190
97477SOL     OW94262  11.923  10.667   3.160
97477SOL    HW194263  11.961  10.690   3.076
97477SOL    HW294264  11.914  10.751   3.206
97478SOL     OW94265   2.952  14.787   7.238
97478SOL    HW194266   2.937   0.008   7.227
97478SOL    HW294267   2.864  14.748   7.238
97479SOL     OW94268   4.682   5.484  12.436
97479SOL    HW194269   4.694   5.511  12.345
97479SOL    HW294270   4.588   5.491  12.451
97480SOL     OW94271   4.148   5.491   6.893
97480SOL    HW194272   4.114   5.471   6.805
97480SOL    HW294273   4.105   5.572   6.917
97481SOL     OW94274   4.880   2.064  10.004
97481SOL    HW194275   4.846   2.117   9.932
97481SOL    HW294276   4.838   1.978   9.993
97482SOL     OW94277  11.578  11.855  12.075
97482SOL    HW194278  11.559  11.787  12.140
97482SOL    HW294279  11.597  11.933  12.127
97483SOL     OW94280  13.656   0.895  10.641
97483SOL    HW194281  13.584   0.909  10.579
97483SOL    HW294282  13.733   0.883  10.586
97484SOL     OW94283   8.520  13.337  12.102
97484SOL    HW194284   8.527  13.383  12.018
97484SOL    HW294285   8.524  13.244  12.079
97485SOL     OW94286  11.378  11.051  11.407
97485SOL    HW194287  11.285  11.061  11.431
97485SOL    HW294288  11.380  10.975  11.350
97486SOL     OW94289   5.622  13.320  13.595
97486SOL    HW194290   5.682  13.329  13.521
97486SOL    HW294291   5.641  13.234  13.632
97487SOL     OW94292   9.773  13.816   1.714
97487SOL    HW194293   9.738  13.733   1.682
97487SOL    HW294294   9.749  13.880   1.647
97488SOL     OW94295  10.301   3.404   9.951
97488SOL    HW194296  10.212   3.436   9.965
97488SOL    HW294297  10.352   3.483   9.933
97489SOL     OW94298   0.714   2.316  11.843
97489SOL    HW194299   0.667   2.288  11.765
97489SOL    HW294300   0.761   2.395  11.816
97490SOL     OW94301   9.183  12.560   7.357
97490SOL    HW194302   9.201  12.650   7.383
97490SOL    HW294303   9.269  12.522   7.336
97491SOL     OW94304   5.275  13.763   2.867
97491SOL    HW194305   5.350  13.756   2.808
97491SOL    HW294306   5.260  13.674   2.897
97492SOL     OW94307  11.439  12.613  11.844
97492SOL    HW194308  11.404  12.699  11.823
97492SOL    HW294309  11.386  12.583  11.918
97493SOL     OW94310  10.341   2.153   2.615
97493SOL    HW194311  10.362   2.240   2.581
97493SOL    HW294312  10.414   2.098   2.588
97494SOL     OW94313   5.898  13.304  11.778
97494SOL    HW194314   5.924  13.394  11.756
97494SOL    HW294315   5.847  13.314  11.858
97495SOL     OW94316  11.491   7.571   8.526
97495SOL    HW194317  11.477   7.479   8.502
97495SOL    HW294318  11.548   7.567   8.603
97496SOL     OW94319   0.721   0.774  10.360
97496SOL    HW194320   0.677   0.827  10.293
97496SOL    HW294321   0.662   0.700  10.374
97497SOL     OW94322   4.847   4.656  11.527
97497SOL    HW194323   4.792   4.724  11.566
97497SOL    HW294324   4.785   4.598  11.484
97498SOL     OW94325   2.658   4.411   0.866
97498SOL    HW194326   2.727   4.476   0.851
97498SOL    HW294327   2.578   4.453   0.836
97499SOL     OW94328  13.251  14.835   4.249
97499SOL    HW194329  13.209  14.808   4.168
97499SOL    HW294330  13.206   0.043   4.275
97500SOL     OW94331   5.181   7.452  12.582
97500SOL    HW194332   5.189   7.545  12.562
97500SOL    HW294333   5.182   7.409  12.497
97501SOL     OW94334   0.199  14.615  12.559
97501SOL    HW194335   0.112  14.642  12.588
97501SOL    HW294336   0.252  14.695  12.564
97502SOL     OW94337   9.380   8.025   3.059
97502SOL    HW194338   9.376   8.032   3.154
97502SOL    HW294339   9.333   7.944   3.039
97503SOL     OW94340   8.036  10.943   3.633
97503SOL    HW194341   8.030  10.933   3.728
97503SOL    HW294342   8.121  10.986   3.619
97504SOL     OW94343  12.527  12.470   0.931
97504SOL    HW194344  12.501  12.386   0.969
97504SOL    HW294345  12.555  12.448   0.842
97505SOL     OW94346  12.397  14.520   0.994
97505SOL    HW194347  12.434  14.444   0.949
97505SOL    HW294348  12.342  14.483   1.063
97506SOL     OW94349   7.331  10.008   9.243
97506SOL    HW194350   7.358  10.100   9.251
97506SOL    HW294351   7.307   9.998   9.151
97507SOL     OW94352   0.668   3.083  13.786
97507SOL    HW194353   0.648   3.176  13.778
97507SOL    HW294354   0.642   3.061  13.876
97508SOL     OW94355   5.938   9.897   7.826
97508SOL    HW194356   5.870   9.830   7.824
97508SOL    HW294357   6.017   9.851   7.856
97509SOL     OW94358   6.804   8.958  10.822
97509SOL    HW194359   6.838   9.035  10.867
97509SOL    HW294360   6.712   8.955  10.847
97510SOL     OW94361   6.562   7.164   6.313
97510SOL    HW194362   6.524   7.136   6.229
97510SOL    HW294363   6.489   7.158   6.375
97511SOL     OW94364   3.541   5.202  10.491
97511SOL    HW194365   3.611   5.260  10.460
97511SOL    HW294366   3.586   5.121  10.514
97512SOL     OW94367  13.478   0.263   9.444
97512SOL    HW194368  13.395   0.288   9.485
97512SOL    HW294369  13.466   0.279   9.351
97513SOL     OW94370   1.610  10.529   2.649
97513SOL    HW194371   1.620  10.477   2.569
97513SOL    HW294372   1.526  10.574   2.638
97514SOL     OW94373   8.316  14.655   9.066
97514SOL    HW194374   8.283  14.588   9.007
97514SOL    HW294375   8.408  14.631   9.081
97515SOL     OW94376   1.988  14.390   6.695
97515SOL    HW194377   1.987  14.353   6.783
97515SOL    HW294378   2.080  14.411   6.679
97516SOL     OW94379   4.395   2.894   2.101
97516SOL    HW194380   4.366   2.865   2.188
97516SOL    HW294381   4.374   2.987   2.099
97517SOL     OW94382   5.997  13.310   5.126
97517SOL    HW194383   5.941  13.233   5.140
97517SOL    HW294384   5.998  13.354   5.211
97518SOL     OW94385  10.195  11.672  14.401
97518SOL    HW194386  10.199  11.672  14.306
97518SOL    HW294387  10.155  11.756  14.424
97519SOL     OW94388   0.378  10.305   2.939
97519SOL    HW194389   0.351  10.259   2.860
97519SOL    HW294390   0.371  10.240   3.008
97520SOL     OW94391  11.356   0.366   5.650
97520SOL    HW194392  11.352   0.446   5.597
97520SOL    HW294393  11.265   0.340   5.661
97521SOL     OW94394  13.963   7.566   5.159
97521SOL    HW194395  14.038   7.509   5.175
97521SOL    HW294396  14.001   7.649   5.130
97522SOL     OW94397  12.818  11.280   9.273
97522SOL    HW194398  12.841  11.341   9.343
97522SOL    HW294399  12.744  11.230   9.308
97523SOL     OW94400  11.895   1.002   2.760
97523SOL    HW194401  11.963   1.022   2.825
97523SOL    HW294402  11.813   1.006   2.809
97524SOL     OW94403  14.139   8.812   0.933
97524SOL    HW194404  14.196   8.873   0.979
97524SOL    HW294405  14.184   8.728   0.937
97525SOL     OW94406  10.087   6.931   3.953
97525SOL    HW194407  10.047   6.949   4.039
97525SOL    HW294408  10.141   7.007   3.935
97526SOL     OW94409   8.174   6.522  13.434
97526SOL    HW194410   8.245   6.516  13.369
97526SOL    HW294411   8.119   6.445  13.417
97527SOL     OW94412   2.025   7.941   0.235
97527SOL    HW194413   2.100   7.881   0.234
97527SOL    HW294414   2.065   8.027   0.251
97528SOL     OW94415   5.891  13.508   7.444
97528SOL    HW194416   5.978  13.481   7.474
97528SOL    HW294417   5.867  13.444   7.377
97529SOL     OW94418   2.647   4.746   4.387
97529SOL    HW194419   2.583   4.760   4.457
97529SOL    HW294420   2.595   4.752   4.307
97530SOL     OW94421   8.319   6.405   8.808
97530SOL    HW194422   8.413   6.422   8.815
97530SOL    HW294423   8.298   6.352   8.885
97531SOL     OW94424  12.761   4.711   2.454
97531SOL    HW194425  12.695   4.732   2.521
97531SOL    HW294426  12.807   4.794   2.439
97532SOL     OW94427  11.584  11.367   4.408
97532SOL    HW194428  11.515  11.349   4.343
97532SOL    HW294429  11.662  11.385   4.355
97533SOL     OW94430  14.469  12.850  13.331
97533SOL    HW194431  14.530  12.865  13.259
97533SOL    HW294432  14.387  12.824  13.288
97534SOL     OW94433  13.207   8.160  11.063
97534SOL    HW194434  13.164   8.236  11.102
97534SOL    HW294435  13.204   8.175  10.969
97535SOL     OW94436   6.983   6.396  14.218
97535SOL    HW194437   7.071   6.427  14.199
97535SOL    HW294438   6.925   6.467  14.190
97536SOL     OW94439  14.025  10.161   1.639
97536SOL    HW194440  14.005  10.179   1.547
97536SOL    HW294441  14.120  10.149   1.642
97537SOL     OW94442   2.225   4.168  13.420
97537SOL    HW194443   2.159   4.123  13.473
97537SOL    HW294444   2.307   4.157  13.469
97538SOL     OW94445   9.292   9.031   2.495
97538SOL    HW194446   9.319   8.980   2.418
97538SOL    HW294447   9.323   8.979   2.569
97539SOL     OW94448   5.000   6.519   6.126
97539SOL    HW194449   4.964   6.472   6.051
97539SOL    HW294450   5.092   6.535   6.102
97540SOL     OW94451  13.555   8.360   7.121
97540SOL    HW194452  13.603   8.352   7.039
97540SOL    HW294453  13.463   8.366   7.095
97541SOL     OW94454   1.030  11.216  10.488
97541SOL    HW194455   1.086  11.292  10.478
97541SOL    HW294456   0.959  11.229  10.425
97542SOL     OW94457   1.220   5.486   1.865
97542SOL    HW194458   1.212   5.581   1.871
97542SOL    HW294459   1.299   5.472   1.812
97543SOL     OW94460   6.687  10.735   4.861
97543SOL    HW194461   6.640  10.810   4.825
97543SOL    HW294462   6.779  10.761   4.857
97544SOL     OW94463   3.853   0.660   5.737
97544SOL    HW194464   3.825   0.646   5.647
97544SOL    HW294465   3.773   0.684   5.784
97545SOL     OW94466  11.694   3.910   8.559
97545SOL    HW194467  11.772   3.882   8.607
97545SOL    HW294468  11.711   3.883   8.469
97546SOL     OW94469   2.144   3.508   0.598
97546SOL    HW194470   2.091   3.521   0.519
97546SOL    HW294471   2.080   3.492   0.667
97547SOL     OW94472  11.152   1.454  14.282
97547SOL    HW194473  11.182   1.416  14.365
97547SOL    HW294474  11.211   1.527  14.266
97548SOL     OW94475   3.023  13.375  11.237
97548SOL    HW194476   3.088  13.438  11.269
97548SOL    HW294477   3.073  13.313  11.184
97549SOL     OW94478   1.988  11.878   7.028
97549SOL    HW194479   1.974  11.921   6.944
97549SOL    HW294480   1.902  11.878   7.070
97550SOL     OW94481  13.152   8.074   4.627
97550SOL    HW194482  13.089   8.003   4.619
97550SOL    HW294483  13.098   8.153   4.636
97551SOL     OW94484   7.306   2.638   6.522
97551SOL    HW194485   7.280   2.628   6.613
97551SOL    HW294486   7.387   2.688   6.525
97552SOL     OW94487  14.418  13.720  13.644
97552SOL    HW194488  14.482  13.782  13.679
97552SOL    HW294489  14.374  13.685  13.721
97553SOL     OW94490   6.918   4.773   2.844
97553SOL    HW194491   6.928   4.688   2.802
97553SOL    HW294492   6.830   4.801   2.820
97554SOL     OW94493  10.158  10.939  14.547
97554SOL    HW194494  10.180  10.968  14.635
97554SOL    HW294495  10.067  10.908  14.553
97555SOL     OW94496   4.845  13.124   4.557
97555SOL    HW194497   4.770  13.066   4.565
97555SOL    HW294498   4.869  13.118   4.464
97556SOL     OW94499  12.730   1.259   4.776
97556SOL    HW194500  12.744   1.253   4.682
97556SOL    HW294501  12.817   1.276   4.812
97557SOL     OW94502  10.120   7.398   3.428
97557SOL    HW194503  10.133   7.377   3.335
97557SOL    HW294504  10.103   7.492   3.428
97558SOL     OW94505   8.914   7.403  11.062
97558SOL    HW194506   9.000   7.433  11.030
97558SOL    HW294507   8.869   7.371  10.984
97559SOL     OW94508  14.266   0.173   0.250
97559SOL    HW194509  14.178   0.136   0.239
97559SOL    HW294510  14.295   0.193   0.161
97560SOL     OW94511   4.530   8.353  13.806
97560SOL    HW194512   4.436   8.360  13.823
97560SOL    HW294513   4.559   8.443  13.796
97561SOL     OW94514   8.313  14.182  10.809
97561SOL    HW194515   8.402  14.209  10.831
97561SOL    HW294516   8.274  14.159  10.893
97562SOL     OW94517   2.858   0.547  14.310
97562SOL    HW194518   2.827   0.462  14.341
97562SOL    HW294519   2.817   0.558  14.224
97563SOL     OW94520   1.612   6.474  11.067
97563SOL    HW194521   1.694   6.523  11.072
97563SOL    HW294522   1.544   6.541  11.054
97564SOL     OW94523   2.930   0.095   5.770
97564SOL    HW194524   2.883   0.178   5.783
97564SOL    HW294525   2.870   0.042   5.717
97565SOL     OW94526  14.706   4.047   2.727
97565SOL    HW194527  14.631   4.037   2.786
97565SOL    HW294528  14.697   4.135   2.692
97566SOL     OW94529   1.600   2.262   8.483
97566SOL    HW194530   1.605   2.334   8.546
97566SOL    HW294531   1.667   2.282   8.418
97567SOL     OW94532   1.095   4.492   0.602
97567SOL    HW194533   1.163   4.491   0.669
97567SOL    HW294534   1.138   4.456   0.524
97568SOL     OW94535   2.921   2.538  14.749
97568SOL    HW194536   2.952   2.473  14.812
97568SOL    HW294537   2.925   2.621  14.795
97569SOL     OW94538   4.708   3.812   9.431
97569SOL    HW194539   4.733   3.845   9.344
97569SOL    HW294540   4.663   3.730   9.414
97570SOL     OW94541   5.342   0.607  11.117
97570SOL    HW194542   5.417   0.641  11.165
97570SOL    HW294543   5.281   0.578  11.186
97571SOL     OW94544  14.372  11.012   6.809
97571SOL    HW194545  14.412  10.971   6.733
97571SOL    HW294546  14.444  11.057   6.853
97572SOL     OW94547   6.959   7.030  12.090
97572SOL    HW194548   6.871   7.043  12.056
97572SOL    HW294549   7.011   7.099  12.048
97573SOL     OW94550   0.886  10.162  13.743
97573SOL    HW194551   0.953  10.218  13.784
97573SOL    HW294552   0.854  10.107  13.814
97574SOL     OW94553   8.089  11.840   4.444
97574SOL    HW194554   8.132  11.926   4.442
97574SOL    HW294555   8.134  11.789   4.377
97575SOL     OW94556   9.781   5.238   9.167
97575SOL    HW194557   9.718   5.169   9.146
97575SOL    HW294558   9.732   5.298   9.224
97576SOL     OW94559   1.576   5.429  11.496
97576SOL    HW194560   1.549   5.338  11.490
97576SOL    HW294561   1.630   5.433  11.576
97577SOL     OW94562   6.480   2.225  11.902
97577SOL    HW194563   6.460   2.315  11.876
97577SOL    HW294564   6.488   2.229  11.998
97578SOL     OW94565   9.069   4.367   3.334
97578SOL    HW194566   9.022   4.285   3.315
97578SOL    HW294567   9.006   4.436   3.312
97579SOL     OW94568   8.886   8.825  10.791
97579SOL    HW194569   8.921   8.888  10.853
97579SOL    HW294570   8.930   8.743  10.813
97580SOL     OW94571  14.512   3.372   1.497
97580SOL    HW194572  14.470   3.458   1.492
97580SOL    HW294573  14.476   3.324   1.423
97581SOL     OW94574   5.624  13.411   7.610
97581SOL    HW194575   5.640  13.433   7.518
97581SOL    HW294576   5.571  13.331   7.606
97582SOL     OW94577   9.844   3.839   4.652
97582SOL    HW194578   9.859   3.792   4.570
97582SOL    HW294579   9.903   3.914   4.648
97583SOL     OW94580   4.248  13.407   0.151
97583SOL    HW194581   4.228  13.474   0.215
97583SOL    HW294582   4.177  13.343   0.160
97584SOL     OW94583   2.393   1.205   6.056
97584SOL    HW194584   2.477   1.194   6.101
97584SOL    HW294585   2.360   1.289   6.088
97585SOL     OW94586   6.413   8.410   0.759
97585SOL    HW194587   6.363   8.373   0.832
97585SOL    HW294588   6.370   8.493   0.740
97586SOL     OW94589  12.868  12.426   2.143
97586SOL    HW194590  12.937  12.426   2.208
97586SOL    HW294591  12.801  12.485   2.178
97587SOL     OW94592   5.992   6.906   4.058
97587SOL    HW194593   5.944   6.949   3.987
97587SOL    HW294594   5.928   6.899   4.129
97588SOL     OW94595   7.677   8.726   1.242
97588SOL    HW194596   7.649   8.709   1.332
97588SOL    HW294597   7.728   8.807   1.247
97589SOL     OW94598  12.494   9.937   6.292
97589SOL    HW194599  12.539  10.008   6.339
97589SOL    HW294600  12.458   9.979   6.214
97590SOL     OW94601  14.211   4.764  13.938
97590SOL    HW194602  14.208   4.774  13.843
97590SOL    HW294603  14.229   4.852  13.971
97591SOL     OW94604  11.534   1.738  14.079
97591SOL    HW194605  11.595   1.776  14.015
97591SOL    HW294606  11.471   1.808  14.096
97592SOL     OW94607   5.052   1.365   0.067
97592SOL    HW194608   5.060   1.292   0.128
97592SOL    HW294609   5.096   1.438   0.111
97593SOL     OW94610  14.470  14.199   7.327
97593SOL    HW194611  14.401  14.133   7.330
97593SOL    HW294612  14.437  14.266   7.267
97594SOL     OW94613   7.792  13.750   6.271
97594SOL    HW194614   7.805  13.824   6.330
97594SOL    HW294615   7.831  13.676   6.317
97595SOL     OW94616   2.160   9.411  14.583
97595SOL    HW194617   2.222   9.431  14.653
97595SOL    HW294618   2.173   9.318  14.565
97596SOL     OW94619   0.941  13.071  10.215
97596SOL    HW194620   0.989  13.079  10.298
97596SOL    HW294621   0.945  12.977  10.194
97597SOL     OW94622  10.505   8.646  11.256
97597SOL    HW194623  10.410   8.645  11.267
97597SOL    HW294624  10.521   8.588  11.182
97598SOL     OW94625   3.558   3.313   9.167
97598SOL    HW194626   3.571   3.256   9.243
97598SOL    HW294627   3.534   3.253   9.096
97599SOL     OW94628  11.116   1.290  12.979
97599SOL    HW194629  11.074   1.289  12.893
97599SOL    HW294630  11.074   1.219  13.028
97600SOL     OW94631   5.793  11.008   3.245
97600SOL    HW194632   5.764  11.067   3.314
97600SOL    HW294633   5.771  11.054   3.164
97601SOL     OW94634   3.738   3.817  10.450
97601SOL    HW194635   3.642   3.812  10.442
97601SOL    HW294636   3.768   3.847  10.364
97602SOL     OW94637  11.656   0.832   7.329
97602SOL    HW194638  11.600   0.777   7.384
97602SOL    HW294639  11.744   0.819   7.364
97603SOL     OW94640  12.529  12.395   8.443
97603SOL    HW194641  12.486  12.467   8.397
97603SOL    HW294642  12.572  12.344   8.375
97604SOL     OW94643   1.833   2.708   8.550
97604SOL    HW194644   1.917   2.694   8.594
97604SOL    HW294645   1.853   2.769   8.479
97605SOL     OW94646   0.247   2.445   5.680
97605SOL    HW194647   0.204   2.477   5.601
97605SOL    HW294648   0.329   2.406   5.649
97606SOL     OW94649   5.338  11.624   2.816
97606SOL    HW194650   5.266  11.561   2.812
97606SOL    HW294651   5.407  11.577   2.864
97607SOL     OW94652   7.055  13.264  14.296
97607SOL    HW194653   7.114  13.233  14.366
97607SOL    HW294654   6.990  13.194  14.287
97608SOL     OW94655   2.942  14.591   3.428
97608SOL    HW194656   2.969  14.654   3.495
97608SOL    HW294657   3.003  14.518   3.437
97609SOL     OW94658   0.419   6.104  12.422
97609SOL    HW194659   0.373   6.043  12.364
97609SOL    HW294660   0.361   6.180  12.427
97610SOL     OW94661   6.862   2.879   2.716
97610SOL    HW194662   6.807   2.955   2.737
97610SOL    HW294663   6.808   2.827   2.657
97611SOL     OW94664   7.086  10.753   2.751
97611SOL    HW194665   7.131  10.741   2.667
97611SOL    HW294666   7.023  10.681   2.755
97612SOL     OW94667   7.111   6.198   9.987
97612SOL    HW194668   7.086   6.244  10.067
97612SOL    HW294669   7.082   6.257   9.917
97613SOL     OW94670   7.338   1.150   4.737
97613SOL    HW194671   7.401   1.110   4.796
97613SOL    HW294672   7.291   1.214   4.791
97614SOL     OW94673   6.308   0.432   6.911
97614SOL    HW194674   6.299   0.481   6.829
97614SOL    HW294675   6.395   0.455   6.943
97615SOL     OW94676   6.994   4.588   7.955
97615SOL    HW194677   6.919   4.629   7.914
97615SOL    HW294678   7.060   4.583   7.886
97616SOL     OW94679   4.025   4.949  12.190
97616SOL    HW194680   4.076   4.887  12.139
97616SOL    HW294681   4.001   4.901  12.269
97617SOL     OW94682   4.866  10.063   6.495
97617SOL    HW194683   4.903  10.041   6.410
97617SOL    HW294684   4.773  10.039   6.488
97618SOL     OW94685   0.521   0.666   7.451
97618SOL    HW194686   0.446   0.705   7.496
97618SOL    HW294687   0.580   0.739   7.434
97619SOL     OW94688  13.693   5.591   8.364
97619SOL    HW194689  13.661   5.627   8.447
97619SOL    HW294690  13.788   5.592   8.372
97620SOL     OW94691   2.335   5.510   8.941
97620SOL    HW194692   2.276   5.451   8.892
97620SOL    HW294693   2.363   5.458   9.016
97621SOL     OW94694   1.226   8.111   1.857
97621SOL    HW194695   1.174   8.176   1.905
97621SOL    HW294696   1.165   8.039   1.842
97622SOL     OW94697  11.665  11.806   1.601
97622SOL    HW194698  11.755  11.830   1.578
97622SOL    HW294699  11.674  11.724   1.651
97623SOL     OW94700   6.326   4.471  14.229
97623SOL    HW194701   6.337   4.532  14.157
97623SOL    HW294702   6.399   4.492  14.289
97624SOL     OW94703  14.551   7.027   8.326
97624SOL    HW194704  14.636   6.989   8.306
97624SOL    HW294705  14.508   7.034   8.240
97625SOL     OW94706  14.668  12.956  12.014
97625SOL    HW194707  14.591  12.997  11.975
97625SOL    HW294708  14.650  12.953  12.108
97626SOL     OW94709   4.197   3.203   5.258
97626SOL    HW194710   4.118   3.184   5.308
97626SOL    HW294711   4.182   3.290   5.222
97627SOL     OW94712   8.120   6.065   8.211
97627SOL    HW194713   8.210   6.065   8.244
97627SOL    HW294714   8.068   6.103   8.281
97628SOL     OW94715  10.436   2.088  14.121
97628SOL    HW194716  10.379   2.051  14.188
97628SOL    HW294717  10.507   2.130  14.171
97629SOL     OW94718   4.856   4.661   2.201
97629SOL    HW194719   4.824   4.575   2.226
97629SOL    HW294720   4.949   4.648   2.184
97630SOL     OW94721   9.411  13.211  10.300
97630SOL    HW194722   9.417  13.299  10.336
97630SOL    HW294723   9.342  13.169  10.352
97631SOL     OW94724  12.383   0.866   7.733
97631SOL    HW194725  12.328   0.800   7.690
97631SOL    HW294726  12.374   0.848   7.826
97632SOL     OW94727  12.512   4.881   7.814
97632SOL    HW194728  12.458   4.928   7.878
97632SOL    HW294729  12.600   4.883   7.852
97633SOL     OW94730   7.145  12.654  13.261
97633SOL    HW194731   7.141  12.743  13.296
97633SOL    HW294732   7.111  12.662  13.172
97634SOL     OW94733   9.554  10.366   3.459
97634SOL    HW194734   9.550  10.450   3.505
97634SOL    HW294735   9.487  10.312   3.501
97635SOL     OW94736  13.791  13.897   4.190
97635SOL    HW194737  13.817  13.847   4.267
97635SOL    HW294738  13.709  13.939   4.215
97636SOL     OW94739   6.798  14.657  12.274
97636SOL    HW194740   6.832  14.735  12.317
97636SOL    HW294741   6.707  14.679  12.251
97637SOL     OW94742  11.656  12.909   6.855
97637SOL    HW194743  11.714  12.984   6.869
97637SOL    HW294744  11.649  12.868   6.941
97638SOL     OW94745  10.315   2.637  12.632
97638SOL    HW194746  10.324   2.732  12.625
97638SOL    HW294747  10.315   2.620  12.726
97639SOL     OW94748   5.207   1.282   2.941
97639SOL    HW194749   5.297   1.299   2.969
97639SOL    HW294750   5.189   1.193   2.972
97640SOL     OW94751   0.458  11.031  14.248
97640SOL    HW194752   0.406  10.951  14.249
97640SOL    HW294753   0.545  11.005  14.279
97641SOL     OW94754  10.448  14.868   7.179
97641SOL    HW194755  10.458  14.773   7.182
97641SOL    HW294756  10.516   0.029   7.237
97642SOL     OW94757   5.943  11.058  14.675
97642SOL    HW194758   5.878  11.027  14.739
97642SOL    HW294759   5.935  11.153  14.677
97643SOL     OW94760   1.522   2.754  13.181
97643SOL    HW194761   1.445   2.737  13.236
97643SOL    HW294762   1.592   2.770  13.244
97644SOL     OW94763  13.745  11.877   4.488
97644SOL    HW194764  13.818  11.834   4.531
97644SOL    HW294765  13.772  11.887   4.397
97645SOL     OW94766   5.200   9.766  11.063
97645SOL    HW194767   5.290   9.795  11.046
97645SOL    HW294768   5.179   9.801  11.149
97646SOL     OW94769  10.908   1.601   7.161
97646SOL    HW194770  10.980   1.626   7.220
97646SOL    HW294771  10.833   1.591   7.219
97647SOL     OW94772   5.582   1.358   7.684
97647SOL    HW194773   5.499   1.363   7.733
97647SOL    HW294774   5.555   1.344   7.594
97648SOL     OW94775   5.833   6.642  10.136
97648SOL    HW194776   5.785   6.708  10.185
97648SOL    HW294777   5.816   6.560  10.183
97649SOL     OW94778  11.191   0.055  14.852
97649SOL    HW194779  11.267   0.033  14.799
97649SOL    HW294780  11.117   0.049  14.792
97650SOL     OW94781   2.210   5.316   0.826
97650SOL    HW194782   2.167   5.368   0.893
97650SOL    HW294783   2.146   5.309   0.756
97651SOL     OW94784  13.444  11.264   0.231
97651SOL    HW194785  13.351  11.250   0.244
97651SOL    HW294786  13.454  11.280   0.137
97652SOL     OW94787   0.047   5.206   6.659
97652SOL    HW194788  14.862   5.162   6.722
97652SOL    HW294789   0.015   5.177   6.574
97653SOL     OW94790   9.827   2.377  11.358
97653SOL    HW194791   9.871   2.380  11.273
97653SOL    HW294792   9.754   2.316  11.344
97654SOL     OW94793   5.428   7.058   6.379
97654SOL    HW194794   5.399   7.047   6.288
97654SOL    HW294795   5.396   7.145   6.404
97655SOL     OW94796   4.403  13.162   2.655
97655SOL    HW194797   4.474  13.119   2.609
97655SOL    HW294798   4.418  13.255   2.642
97656SOL     OW94799   7.401  14.326  11.965
97656SOL    HW194800   7.416  14.365  12.051
97656SOL    HW294801   7.319  14.367  11.935
97657SOL     OW94802   2.595   2.109   5.481
97657SOL    HW194803   2.657   2.175   5.513
97657SOL    HW294804   2.515   2.158   5.463
97658SOL     OW94805   8.812  10.248   3.313
97658SOL    HW194806   8.839  10.276   3.400
97658SOL    HW294807   8.878  10.286   3.254
97659SOL     OW94808   2.043   3.403   8.761
97659SOL    HW194809   1.982   3.342   8.802
97659SOL    HW294810   2.072   3.459   8.833
97660SOL     OW94811   5.133  12.248  11.189
97660SOL    HW194812   5.068  12.295  11.137
97660SOL    HW294813   5.120  12.156  11.165
97661SOL     OW94814   8.891   8.287   1.204
97661SOL    HW194815   8.848   8.206   1.177
97661SOL    HW294816   8.820   8.352   1.208
97662SOL     OW94817   1.434   6.660   8.613
97662SOL    HW194818   1.429   6.566   8.595
97662SOL    HW294819   1.388   6.701   8.540
97663SOL     OW94820   6.703   2.702   9.220
97663SOL    HW194821   6.755   2.782   9.219
97663SOL    HW294822   6.661   2.701   9.306
97664SOL     OW94823  12.311  13.922   6.332
97664SOL    HW194824  12.230  13.940   6.284
97664SOL    HW294825  12.380  13.927   6.266
97665SOL     OW94826   2.546  13.155  10.580
97665SOL    HW194827   2.545  13.134  10.673
97665SOL    HW294828   2.549  13.251  10.576
97666SOL     OW94829   4.204   3.906   9.584
97666SOL    HW194830   4.233   3.931   9.496
97666SOL    HW294831   4.233   3.978   9.640
97667SOL     OW94832   8.254   9.757   3.917
97667SOL    HW194833   8.192   9.712   3.859
97667SOL    HW294834   8.337   9.711   3.905
97668SOL     OW94835   6.571   1.354   2.299
97668SOL    HW194836   6.617   1.404   2.231
97668SOL    HW294837   6.595   1.396   2.381
97669SOL     OW94838   8.593   1.749   5.359
97669SOL    HW194839   8.685   1.747   5.333
97669SOL    HW294840   8.593   1.788   5.446
97670SOL     OW94841  10.363   8.260  11.496
97670SOL    HW194842  10.407   8.185  11.454
97670SOL    HW294843  10.428   8.330  11.494
97671SOL     OW94844   0.442   2.909   2.008
97671SOL    HW194845   0.448   2.820   1.974
97671SOL    HW294846   0.355   2.939   1.981
97672SOL     OW94847  14.453   0.262   4.293
97672SOL    HW194848  14.538   0.238   4.329
97672SOL    HW294849  14.424   0.185   4.245
97673SOL     OW94850   7.423   5.554   6.526
97673SOL    HW194851   7.330   5.572   6.516
97673SOL    HW294852   7.438   5.557   6.621
97674SOL     OW94853  13.554  12.374   5.278
97674SOL    HW194854  13.517  12.412   5.358
97674SOL    HW294855  13.532  12.437   5.209
97675SOL     OW94856   7.751  11.344  13.659
97675SOL    HW194857   7.688  11.399  13.706
97675SOL    HW294858   7.796  11.404  13.600
97676SOL     OW94859  13.842   1.474  10.605
97676SOL    HW194860  13.797   1.410  10.551
97676SOL    HW294861  13.812   1.456  10.694
97677SOL     OW94862  11.354  14.481  14.145
97677SOL    HW194863  11.347  14.566  14.188
97677SOL    HW294864  11.313  14.494  14.060
97678SOL     OW94865  13.118   8.937   8.041
97678SOL    HW194866  13.164   8.879   7.980
97678SOL    HW294867  13.029   8.943   8.005
97679SOL     OW94868   2.909   4.120   9.992
97679SOL    HW194869   2.958   4.201   9.979
97679SOL    HW294870   2.840   4.124   9.925
97680SOL     OW94871   1.915   9.233  13.777
97680SOL    HW194872   1.840   9.289  13.796
97680SOL    HW294873   1.878   9.147  13.760
97681SOL     OW94874   5.208  12.936  13.922
97681SOL    HW194875   5.253  12.861  13.882
97681SOL    HW294876   5.258  13.012  13.892
97682SOL     OW94877  12.787   2.972  11.424
97682SOL    HW194878  12.708   2.919  11.414
97682SOL    HW294879  12.856   2.909  11.445
97683SOL     OW94880  11.674   1.134  12.282
97683SOL    HW194881  11.739   1.151  12.213
97683SOL    HW294882  11.643   1.045  12.264
97684SOL     OW94883   1.212   5.918   5.423
97684SOL    HW194884   1.262   5.937   5.502
97684SOL    HW294885   1.202   6.004   5.381
97685SOL     OW94886   4.636  14.012   4.891
97685SOL    HW194887   4.629  14.103   4.863
97685SOL    HW294888   4.611  13.961   4.814
97686SOL     OW94889   4.902   2.536  12.845
97686SOL    HW194890   4.838   2.598  12.879
97686SOL    HW294891   4.850   2.467  12.805
97687SOL     OW94892  14.538   2.335  10.590
97687SOL    HW194893  14.496   2.408  10.545
97687SOL    HW294894  14.467   2.272  10.605
97688SOL     OW94895   7.573   1.399   0.583
97688SOL    HW194896   7.657   1.430   0.618
97688SOL    HW294897   7.507   1.449   0.630
97689SOL     OW94898   1.619   8.928   4.580
97689SOL    HW194899   1.604   8.988   4.653
97689SOL    HW294900   1.548   8.945   4.519
97690SOL     OW94901   8.399   0.126  11.956
97690SOL    HW194902   8.493   0.127  11.938
97690SOL    HW294903   8.359   0.163  11.877
97691SOL     OW94904   4.021  13.406   1.126
97691SOL    HW194905   3.955  13.474   1.111
97691SOL    HW294906   4.103  13.445   1.097
97692SOL     OW94907   1.552   3.684   8.282
97692SOL    HW194908   1.533   3.749   8.214
97692SOL    HW294909   1.467   3.658   8.316
97693SOL     OW94910   8.978   0.629   2.719
97693SOL    HW194911   9.071   0.643   2.705
97693SOL    HW294912   8.963   0.654   2.810
97694SOL     OW94913  11.798   8.179   1.599
97694SOL    HW194914  11.829   8.217   1.681
97694SOL    HW294915  11.808   8.084   1.611
97695SOL     OW94916   7.182   0.428   5.812
97695SOL    HW194917   7.094   0.421   5.774
97695SOL    HW294918   7.236   0.370   5.759
97696SOL     OW94919   3.186   4.884  13.269
97696SOL    HW194920   3.209   4.824  13.198
97696SOL    HW294921   3.119   4.942  13.232
97697SOL     OW94922   1.251  10.563   5.775
97697SOL    HW194923   1.202  10.645   5.765
97697SOL    HW294924   1.329  10.576   5.722
97698SOL     OW94925  11.794   8.634  13.697
97698SOL    HW194926  11.789   8.637  13.793
97698SOL    HW294927  11.850   8.559  13.678
97699SOL     OW94928   5.687  10.263  13.478
97699SOL    HW194929   5.711  10.261  13.386
97699SOL    HW294930   5.591  10.257  13.478
97700SOL     OW94931   0.138   5.192   9.032
97700SOL    HW194932   0.079   5.136   9.083
97700SOL    HW294933   0.223   5.147   9.036
97701SOL     OW94934   0.861   4.811   1.406
97701SOL    HW194935   0.852   4.868   1.482
97701SOL    HW294936   0.899   4.730   1.440
97702SOL     OW94937  13.488  14.733   2.472
97702SOL    HW194938  13.471  14.643   2.499
97702SOL    HW294939  13.571  14.755   2.513
97703SOL     OW94940   5.296  14.146   8.375
97703SOL    HW194941   5.389  14.124   8.362
97703SOL    HW294942   5.277  14.116   8.464
97704SOL     OW94943   2.090  13.910  11.062
97704SOL    HW194944   2.076  13.910  11.157
97704SOL    HW294945   2.172  13.861  11.049
97705SOL     OW94946  11.243   5.102   9.959
97705SOL    HW194947  11.281   5.108   9.871
97705SOL    HW294948  11.217   5.010   9.968
97706SOL     OW94949  14.179   9.113   7.225
97706SOL    HW194950  14.121   9.042   7.251
97706SOL    HW294951  14.253   9.070   7.183
97707SOL     OW94952   7.344   6.939   1.485
97707SOL    HW194953   7.386   7.016   1.523
97707SOL    HW294954   7.408   6.869   1.494
97708SOL     OW94955   3.372   7.318   5.438
97708SOL    HW194956   3.454   7.275   5.414
97708SOL    HW294957   3.344   7.275   5.519
97709SOL     OW94958   9.475  10.281   6.240
97709SOL    HW194959   9.412  10.296   6.170
97709SOL    HW294960   9.454  10.194   6.274
97710SOL     OW94961  13.749   5.660   6.222
97710SOL    HW194962  13.757   5.696   6.134
97710SOL    HW294963  13.785   5.728   6.280
97711SOL     OW94964  12.096   0.854   8.150
97711SOL    HW194965  12.156   0.881   8.220
97711SOL    HW294966  12.050   0.779   8.186
97712SOL     OW94967   6.051   4.075   0.193
97712SOL    HW194968   6.064   4.059   0.100
97712SOL    HW294969   6.092   4.160   0.210
97713SOL     OW94970   1.355   1.280   6.904
97713SOL    HW194971   1.375   1.205   6.960
97713SOL    HW294972   1.379   1.252   6.816
97714SOL     OW94973   5.260  14.305   2.185
97714SOL    HW194974   5.272  14.283   2.092
97714SOL    HW294975   5.346  14.336   2.214
97715SOL     OW94976   6.600   3.722   4.267
97715SOL    HW194977   6.542   3.672   4.209
97715SOL    HW294978   6.559   3.808   4.272
97716SOL     OW94979   6.735   0.487   7.750
97716SOL    HW194980   6.793   0.535   7.691
97716SOL    HW294981   6.774   0.400   7.757
97717SOL     OW94982   4.555   6.798   0.705
97717SOL    HW194983   4.611   6.747   0.764
97717SOL    HW294984   4.466   6.781   0.736
97718SOL     OW94985  13.030  12.070  14.484
97718SOL    HW194986  12.981  12.065  14.566
97718SOL    HW294987  12.972  12.030  14.418
97719SOL     OW94988   7.784   7.572  14.372
97719SOL    HW194989   7.749   7.487  14.347
97719SOL    HW294990   7.719   7.635  14.343
97720SOL     OW94991  14.285   3.538  14.677
97720SOL    HW194992  14.280   3.625  14.718
97720SOL    HW294993  14.342   3.488  14.736
97721SOL     OW94994  14.412   3.210  10.430
97721SOL    HW194995  14.482   3.271  10.451
97721SOL    HW294996  14.424   3.137  10.490
97722SOL     OW94997   1.550  13.138   2.039
97722SOL    HW194998   1.607  13.190   2.095
97722SOL    HW294999   1.525  13.063   2.091
97723SOL     OW95000   8.533  10.661   1.833
97723SOL    HW195001   8.476  10.584   1.824
97723SOL    HW295002   8.569  10.674   1.746
97724SOL     OW95003   6.245   2.687  13.923
97724SOL    HW195004   6.278   2.621  13.863
97724SOL    HW295005   6.181   2.641  13.977
97725SOL     OW95006  13.868   2.797   5.379
97725SOL    HW195007  13.829   2.815   5.294
97725SOL    HW295008  13.922   2.875   5.397
97726SOL     OW95009   9.555   2.238   2.894
97726SOL    HW195010   9.492   2.245   2.822
97726SOL    HW295011   9.543   2.319   2.944
97727SOL     OW95012   4.449   7.872  10.630
97727SOL    HW195013   4.485   7.815  10.562
97727SOL    HW295014   4.507   7.861  10.705
97728SOL     OW95015  14.615   7.280  11.910
97728SOL    HW195016  14.670   7.210  11.945
97728SOL    HW295017  14.529   7.265  11.949
97729SOL     OW95018  12.411  14.578  10.348
97729SOL    HW195019  12.499  14.540  10.355
97729SOL    HW295020  12.424  14.671  10.364
97730SOL     OW95021   8.466   8.512   5.958
97730SOL    HW195022   8.458   8.598   6.000
97730SOL    HW295023   8.536   8.523   5.894
97731SOL     OW95024   5.059  12.747   3.677
97731SOL    HW195025   5.092  12.665   3.716
97731SOL    HW295026   4.969  12.726   3.651
97732SOL     OW95027  11.390  11.374   2.304
97732SOL    HW195028  11.321  11.314   2.331
97732SOL    HW295029  11.440  11.325   2.239
97733SOL     OW95030   2.307  14.649   0.541
97733SOL    HW195031   2.287  14.597   0.619
97733SOL    HW295032   2.233  14.709   0.532
97734SOL     OW95033  10.209   0.642   1.356
97734SOL    HW195034  10.165   0.571   1.404
97734SOL    HW295035  10.241   0.600   1.276
97735SOL     OW95036   0.218  13.020   4.424
97735SOL    HW195037   0.192  13.051   4.511
97735SOL    HW295038   0.250  12.931   4.440
97736SOL     OW95039   3.482  12.469   3.753
97736SOL    HW195040   3.428  12.403   3.711
97736SOL    HW295041   3.501  12.533   3.684
97737SOL     OW95042   0.242   2.758   7.042
97737SOL    HW195043   0.268   2.848   7.061
97737SOL    HW295044   0.305   2.728   6.977
97738SOL     OW95045   9.708   9.953   3.182
97738SOL    HW195046   9.776   9.989   3.240
97738SOL    HW295047   9.634  10.013   3.192
97739SOL     OW95048   2.608   3.596  12.874
97739SOL    HW195049   2.690   3.552  12.898
97739SOL    HW295050   2.541   3.550  12.924
97740SOL     OW95051   1.441   3.303  11.826
97740SOL    HW195052   1.479   3.223  11.863
97740SOL    HW295053   1.348   3.282  11.815
97741SOL     OW95054  11.813   2.023   8.455
97741SOL    HW195055  11.790   1.990   8.541
97741SOL    HW295056  11.728   2.036   8.411
97742SOL     OW95057   1.326   5.392   2.166
97742SOL    HW195058   1.268   5.441   2.224
97742SOL    HW295059   1.312   5.430   2.079
97743SOL     OW95060   2.577   4.370   4.309
97743SOL    HW195061   2.526   4.290   4.292
97743SOL    HW295062   2.516   4.428   4.354
97744SOL     OW95063   3.881   2.793   2.527
97744SOL    HW195064   3.813   2.804   2.594
97744SOL    HW295065   3.877   2.874   2.477
97745SOL     OW95066  11.194   8.253   3.298
97745SOL    HW195067  11.158   8.190   3.360
97745SOL    HW295068  11.149   8.234   3.216
97746SOL     OW95069   3.825  13.109  12.181
97746SOL    HW195070   3.897  13.048  12.198
97746SOL    HW295071   3.746  13.059  12.204
97747SOL     OW95072  10.254  12.152   3.735
97747SOL    HW195073  10.211  12.075   3.698
97747SOL    HW295074  10.252  12.217   3.665
97748SOL     OW95075   5.882  14.271  12.231
97748SOL    HW195076   5.948  14.339  12.225
97748SOL    HW295077   5.811  14.310  12.282
97749SOL     OW95078   8.777   3.203   8.089
97749SOL    HW195079   8.686   3.195   8.060
97749SOL    HW295080   8.775   3.174   8.181
97750SOL     OW95081   7.934   2.182   4.922
97750SOL    HW195082   8.025   2.158   4.933
97750SOL    HW295083   7.907   2.215   5.008
97751SOL     OW95084  13.954  10.267   2.928
97751SOL    HW195085  13.952  10.179   2.966
97751SOL    HW295086  13.870  10.305   2.953
97752SOL     OW95087   4.944  10.707  10.627
97752SOL    HW195088   5.039  10.702  10.626
97752SOL    HW295089   4.922  10.748  10.543
97753SOL     OW95090  13.144   5.604   1.999
97753SOL    HW195091  13.105   5.603   1.912
97753SOL    HW295092  13.184   5.691   2.007
97754SOL     OW95093   1.291   2.147   5.579
97754SOL    HW195094   1.267   2.223   5.633
97754SOL    HW295095   1.252   2.166   5.494
97755SOL     OW95096  11.381   6.254   2.407
97755SOL    HW195097  11.313   6.292   2.463
97755SOL    HW295098  11.459   6.252   2.462
97756SOL     OW95099  12.079  13.519  12.752
97756SOL    HW195100  12.156  13.530  12.809
97756SOL    HW295101  12.015  13.581  12.786
97757SOL     OW95102  10.957  11.052   3.268
97757SOL    HW195103  10.884  11.111   3.289
97757SOL    HW295104  11.029  11.110   3.246
97758SOL     OW95105  11.621   1.292  10.079
97758SOL    HW195106  11.600   1.382  10.054
97758SOL    HW295107  11.671   1.301  10.161
97759SOL     OW95108  10.313   9.359   1.186
97759SOL    HW195109  10.383   9.359   1.250
97759SOL    HW295110  10.357   9.372   1.102
97760SOL     OW95111   1.655   5.424   7.801
97760SOL    HW195112   1.645   5.388   7.889
97760SOL    HW295113   1.695   5.510   7.814
97761SOL     OW95114   7.014   7.617  13.005
97761SOL    HW195115   7.024   7.547  12.940
97761SOL    HW295116   7.026   7.698  12.956
97762SOL     OW95117   1.132  13.941  14.251
97762SOL    HW195118   1.046  13.900  14.243
97762SOL    HW295119   1.125  13.996  14.329
97763SOL     OW95120   4.371   9.858   6.093
97763SOL    HW195121   4.289   9.850   6.044
97763SOL    HW295122   4.379   9.776   6.142
97764SOL     OW95123   6.560   3.729  11.430
97764SOL    HW195124   6.478   3.745  11.384
97764SOL    HW295125   6.538   3.666  11.499
97765SOL     OW95126   2.942  12.727   5.343
97765SOL    HW195127   2.960  12.759   5.431
97765SOL    HW295128   3.022  12.748   5.293
97766SOL     OW95129   9.186  11.478   3.763
97766SOL    HW195130   9.214  11.441   3.679
97766SOL    HW295131   9.253  11.448   3.825
97767SOL     OW95132   9.089   9.316  12.120
97767SOL    HW195133   9.014   9.367  12.088
97767SOL    HW295134   9.162   9.377  12.119
97768SOL     OW95135   4.703   9.319  13.382
97768SOL    HW195136   4.617   9.329  13.342
97768SOL    HW295137   4.764   9.337  13.310
97769SOL     OW95138   0.101   7.647   5.475
97769SOL    HW195139   0.065   7.565   5.440
97769SOL    HW295140   0.162   7.619   5.544
97770SOL     OW95141   3.089   4.714   9.545
97770SOL    HW195142   3.061   4.689   9.456
97770SOL    HW295143   3.023   4.776   9.574
97771SOL     OW95144  12.944  10.531   5.109
97771SOL    HW195145  13.007  10.482   5.161
97771SOL    HW295146  12.863  10.529   5.161
97772SOL     OW95147   4.933  12.540   3.512
97772SOL    HW195148   5.012  12.493   3.485
97772SOL    HW295149   4.861  12.480   3.490
97773SOL     OW95150   2.501  14.251   0.176
97773SOL    HW195151   2.522  14.331   0.225
97773SOL    HW295152   2.473  14.281   0.090
97774SOL     OW95153  12.384   1.571   8.167
97774SOL    HW195154  12.391   1.482   8.200
97774SOL    HW295155  12.446   1.622   8.219
97775SOL     OW95156  14.678  11.641   4.417
97775SOL    HW195157  14.696  11.719   4.470
97775SOL    HW295158  14.727  11.571   4.460
97776SOL     OW95159   3.760   4.099   9.497
97776SOL    HW195160   3.842   4.065   9.531
97776SOL    HW295161   3.699   4.095   9.571
97777SOL     OW95162   4.083  13.253   9.223
97777SOL    HW195163   4.164  13.219   9.261
97777SOL    HW295164   4.035  13.288   9.298
97778SOL     OW95165   4.061   7.081   5.143
97778SOL    HW195166   4.043   7.142   5.214
97778SOL    HW295167   3.995   7.102   5.076
97779SOL     OW95168  11.292   0.581   8.116
97779SOL    HW195169  11.220   0.619   8.065
97779SOL    HW295170  11.355   0.653   8.125
97780SOL     OW95171   7.669   1.593  10.233
97780SOL    HW195172   7.692   1.512  10.279
97780SOL    HW295173   7.708   1.584  10.146
97781SOL     OW95174   3.223   1.860  11.547
97781SOL    HW195175   3.191   1.948  11.566
97781SOL    HW295176   3.241   1.822  11.634
97782SOL     OW95177   1.192  10.382   8.182
97782SOL    HW195178   1.194  10.437   8.260
97782SOL    HW295179   1.106  10.341   8.184
97783SOL     OW95180   9.623   5.593  14.370
97783SOL    HW195181   9.530   5.601  14.390
97783SOL    HW295182   9.636   5.649  14.293
97784SOL     OW95183   0.940  12.213  14.413
97784SOL    HW195184   0.962  12.188  14.503
97784SOL    HW295185   0.939  12.308  14.414
97785SOL     OW95186  11.027  13.355  13.792
97785SOL    HW195187  11.012  13.424  13.727
97785SOL    HW295188  11.121  13.359  13.809
97786SOL     OW95189   0.939  12.763   5.704
97786SOL    HW195190   0.928  12.777   5.798
97786SOL    HW295191   0.950  12.668   5.695
97787SOL     OW95192   9.888  11.178  14.803
97787SOL    HW195193   9.930  11.214  14.725
97787SOL    HW295194   9.906  11.084  14.799
97788SOL     OW95195   4.014   0.445   6.625
97788SOL    HW195196   4.024   0.393   6.704
97788SOL    HW295197   3.997   0.534   6.656
97789SOL     OW95198   6.932  14.865   9.036
97789SOL    HW195199   7.003  14.817   8.994
97789SOL    HW295200   6.886  14.800   9.089
97790SOL     OW95201   7.146   3.634   4.946
97790SOL    HW195202   7.192   3.694   4.887
97790SOL    HW295203   7.077   3.596   4.892
97791SOL     OW95204   8.707   6.953   1.250
97791SOL    HW195205   8.743   6.951   1.161
97791SOL    HW295206   8.771   7.003   1.301
97792SOL     OW95207   7.848   6.802  14.685
97792SOL    HW195208   7.817   6.774  14.771
97792SOL    HW295209   7.777   6.855  14.650
97793SOL     OW95210  11.183   1.368   6.086
97793SOL    HW195211  11.106   1.320   6.053
97793SOL    HW295212  11.147   1.433   6.147
97794SOL     OW95213   4.391   1.144  13.532
97794SOL    HW195214   4.448   1.069  13.551
97794SOL    HW295215   4.429   1.183  13.453
97795SOL     OW95216   7.613   1.305   9.044
97795SOL    HW195217   7.545   1.258   8.996
97795SOL    HW295218   7.679   1.326   8.978
97796SOL     OW95219   0.659   7.662   2.049
97796SOL    HW195220   0.574   7.687   2.085
97796SOL    HW295221   0.709   7.631   2.124
97797SOL     OW95222  12.599   4.885   3.646
97797SOL    HW195223  12.504   4.884   3.657
97797SOL    HW295224  12.628   4.964   3.691
97798SOL     OW95225   2.074   4.406   6.859
97798SOL    HW195226   2.068   4.500   6.841
97798SOL    HW295227   2.167   4.387   6.861
97799SOL     OW95228   8.787   3.758   1.985
97799SOL    HW195229   8.812   3.694   2.052
97799SOL    HW295230   8.859   3.757   1.923
97800SOL     OW95231   9.557   0.314  10.255
97800SOL    HW195232   9.614   0.295  10.181
97800SOL    HW295233   9.606   0.378  10.306
97801SOL     OW95234   4.056  12.876   5.565
97801SOL    HW195235   4.018  12.794   5.534
97801SOL    HW295236   4.145  12.853   5.592
97802SOL     OW95237   8.076   3.371   7.238
97802SOL    HW195238   8.065   3.376   7.143
97802SOL    HW295239   8.074   3.277   7.257
97803SOL     OW95240   5.226   0.892   0.122
97803SOL    HW195241   5.266   0.881   0.035
97803SOL    HW295242   5.183   0.808   0.138
97804SOL     OW95243   6.968   3.048  13.576
97804SOL    HW195244   6.951   3.137  13.544
97804SOL    HW295245   7.058   3.029  13.549
97805SOL     OW95246   2.968  13.098  11.389
97805SOL    HW195247   3.024  13.117  11.464
97805SOL    HW295248   3.029  13.070  11.320
97806SOL     OW95249   6.076   3.580  13.744
97806SOL    HW195250   6.047   3.503  13.793
97806SOL    HW295251   6.159   3.604  13.786
97807SOL     OW95252   6.707   4.574   9.637
97807SOL    HW195253   6.622   4.532   9.645
97807SOL    HW295254   6.696   4.660   9.679
97808SOL     OW95255  14.565   4.134  11.235
97808SOL    HW195256  14.553   4.069  11.304
97808SOL    HW295257  14.636   4.098  11.181
97809SOL     OW95258   4.787   0.327  11.166
97809SOL    HW195259   4.702   0.298  11.200
97809SOL    HW295260   4.850   0.269  11.209
97810SOL     OW95261   1.869   5.046   6.309
97810SOL    HW195262   1.814   5.108   6.356
97810SOL    HW295263   1.857   4.963   6.357
97811SOL     OW95264   0.476  11.637   0.468
97811SOL    HW195265   0.398  11.644   0.524
97811SOL    HW295266   0.482  11.723   0.426
97812SOL     OW95267   8.695   0.790  12.130
97812SOL    HW195268   8.770   0.801  12.189
97812SOL    HW295269   8.733   0.788  12.043
97813SOL     OW95270   5.905   8.081   2.834
97813SOL    HW195271   5.916   8.174   2.857
97813SOL    HW295272   5.905   8.080   2.738
97814SOL     OW95273  10.739   8.444   2.889
97814SOL    HW195274  10.804   8.494   2.938
97814SOL    HW295275  10.790   8.376   2.845
97815SOL     OW95276  12.376  13.421  11.366
97815SOL    HW195277  12.448  13.411  11.304
97815SOL    HW295278  12.415  13.466  11.441
97816SOL     OW95279   6.303   8.384  12.315
97816SOL    HW195280   6.388   8.351  12.286
97816SOL    HW295281   6.239   8.329  12.271
97817SOL     OW95282   1.792  13.620   5.679
97817SOL    HW195283   1.850  13.693   5.657
97817SOL    HW295284   1.759  13.641   5.766
97818SOL     OW95285  14.274   5.065   1.511
97818SOL    HW195286  14.233   5.145   1.475
97818SOL    HW295287  14.282   5.083   1.604
97819SOL     OW95288   9.663   5.554   9.043
97819SOL    HW195289   9.745   5.509   9.064
97819SOL    HW295290   9.690   5.637   9.005
97820SOL     OW95291   5.011   8.864   4.436
97820SOL    HW195292   4.958   8.918   4.377
97820SOL    HW295293   5.019   8.917   4.515
97821SOL     OW95294   8.222   3.128  14.823
97821SOL    HW195295   8.126   3.128  14.830
97821SOL    HW295296   8.240   3.093  14.736
97822SOL     OW95297   3.159   2.832   7.111
97822SOL    HW195298   3.065   2.840   7.096
97822SOL    HW295299   3.181   2.905   7.168
97823SOL     OW95300  11.304   4.987   8.417
97823SOL    HW195301  11.258   4.961   8.496
97823SOL    HW295302  11.360   4.913   8.395
97824SOL     OW95303   1.866   2.388  10.478
97824SOL    HW195304   1.835   2.327  10.544
97824SOL    HW295305   1.928   2.444  10.524
97825SOL     OW95306   7.245   2.112   2.517
97825SOL    HW195307   7.192   2.191   2.508
97825SOL    HW295308   7.193   2.055   2.574
97826SOL     OW95309   3.953   5.992  12.521
97826SOL    HW195310   3.935   6.079  12.486
97826SOL    HW295311   4.010   6.009  12.596
97827SOL     OW95312  14.739  11.689   5.627
97827SOL    HW195313  14.745  11.752   5.698
97827SOL    HW295314  14.827  11.686   5.588
97828SOL     OW95315   8.976   3.337  13.922
97828SOL    HW195316   8.911   3.277  13.885
97828SOL    HW295317   9.040   3.348  13.852
97829SOL     OW95318  10.274   4.086   4.965
97829SOL    HW195319  10.195   4.082   5.019
97829SOL    HW295320  10.258   4.023   4.895
97830SOL     OW95321   4.834   8.884  13.682
97830SOL    HW195322   4.842   8.954  13.617
97830SOL    HW295323   4.763   8.912  13.740
97831SOL     OW95324   4.218  13.400   1.588
97831SOL    HW195325   4.197  13.360   1.672
97831SOL    HW295326   4.248  13.488   1.611
97832SOL     OW95327  11.195   9.184  12.412
97832SOL    HW195328  11.192   9.204  12.505
97832SOL    HW295329  11.111   9.142  12.394
97833SOL     OW95330   7.479   7.856   6.629
97833SOL    HW195331   7.456   7.855   6.536
97833SOL    HW295332   7.492   7.764   6.651
97834SOL     OW95333   2.129   4.289   1.256
97834SOL    HW195334   2.182   4.282   1.177
97834SOL    HW295335   2.055   4.344   1.230
97835SOL     OW95336  12.402  12.521   3.456
97835SOL    HW195337  12.404  12.571   3.374
97835SOL    HW295338  12.422  12.585   3.524
97836SOL     OW95339   0.058   4.892  12.634
97836SOL    HW195340   0.003   4.855  12.703
97836SOL    HW295341   0.022   4.858  12.552
97837SOL     OW95342   3.862  12.357   0.049
97837SOL    HW195343   3.788  12.404   0.088
97837SOL    HW295344   3.821  12.292  14.864
97838SOL     OW95345   1.721   6.568   5.164
97838SOL    HW195346   1.712   6.658   5.195
97838SOL    HW295347   1.747   6.518   5.242
97839SOL     OW95348   1.962   4.570   3.237
97839SOL    HW195349   1.931   4.571   3.147
97839SOL    HW295350   2.024   4.497   3.240
97840SOL     OW95351   5.972   2.259   9.202
97840SOL    HW195352   5.969   2.354   9.211
97840SOL    HW295353   6.055   2.242   9.157
97841SOL     OW95354   9.092  14.415   9.314
97841SOL    HW195355   9.068  14.323   9.318
97841SOL    HW295356   9.157  14.420   9.244
97842SOL     OW95357   4.562  10.682  13.114
97842SOL    HW195358   4.611  10.758  13.083
97842SOL    HW295359   4.513  10.652  13.037
97843SOL     OW95360   9.816  11.981  14.214
97843SOL    HW195361   9.861  11.899  14.198
97843SOL    HW295362   9.861  12.019  14.290
97844SOL     OW95363   8.793   4.820   9.662
97844SOL    HW195364   8.813   4.830   9.755
97844SOL    HW295365   8.772   4.908   9.632
97845SOL     OW95366  14.183   3.504   3.176
97845SOL    HW195367  14.092   3.475   3.168
97845SOL    HW295368  14.199   3.507   3.271
97846SOL     OW95369   7.886   2.008  11.074
97846SOL    HW195370   7.904   2.038  10.985
97846SOL    HW295371   7.816   1.944  11.064
97847SOL     OW95372   4.697   7.187   8.038
97847SOL    HW195373   4.771   7.141   7.997
97847SOL    HW295374   4.621   7.134   8.016
97848SOL     OW95375  11.097   3.860   1.086
97848SOL    HW195376  11.162   3.908   1.138
97848SOL    HW295377  11.148   3.792   1.041
97849SOL     OW95378   0.701   4.141   0.822
97849SOL    HW195379   0.767   4.149   0.754
97849SOL    HW295380   0.701   4.048   0.844
97850SOL     OW95381  10.285   1.137   5.853
97850SOL    HW195382  10.229   1.133   5.930
97850SOL    HW295383  10.372   1.112   5.884
97851SOL     OW95384   4.779   3.722   2.581
97851SOL    HW195385   4.684   3.735   2.575
97851SOL    HW295386   4.816   3.793   2.530
97852SOL     OW95387   0.071   2.656   7.716
97852SOL    HW195388   0.029   2.604   7.785
97852SOL    HW295389   0.143   2.601   7.685
97853SOL     OW95390   0.810   2.654   4.769
97853SOL    HW195391   0.829   2.747   4.781
97853SOL    HW295392   0.773   2.649   4.681
97854SOL     OW95393   9.226   1.782  11.645
97854SOL    HW195394   9.225   1.834  11.565
97854SOL    HW295395   9.307   1.731  11.640
97855SOL     OW95396  13.952   1.793   6.493
97855SOL    HW195397  13.918   1.882   6.485
97855SOL    HW295398  14.003   1.794   6.573
97856SOL     OW95399   6.680   8.792  11.221
97856SOL    HW195400   6.642   8.709  11.249
97856SOL    HW295401   6.762   8.799  11.271
97857SOL     OW95402   7.960   4.628   5.759
97857SOL    HW195403   7.933   4.554   5.705
97857SOL    HW295404   7.880   4.656   5.803
97858SOL     OW95405   1.132  11.741   4.115
97858SOL    HW195406   1.118  11.649   4.094
97858SOL    HW295407   1.226  11.754   4.104
97859SOL     OW95408   1.281   9.788  14.135
97859SOL    HW195409   1.365   9.778  14.179
97859SOL    HW295410   1.219   9.804  14.206
97860SOL     OW95411  14.485   5.833  11.682
97860SOL    HW195412  14.553   5.770  11.656
97860SOL    HW295413  14.429   5.784  11.743
97861SOL     OW95414   2.319   0.144   8.447
97861SOL    HW195415   2.269   0.220   8.476
97861SOL    HW295416   2.291   0.130   8.357
97862SOL     OW95417   8.380   3.709   5.088
97862SOL    HW195418   8.374   3.638   5.152
97862SOL    HW295419   8.302   3.763   5.104
97863SOL     OW95420  14.725  12.112   4.292
97863SOL    HW195421  14.708  12.029   4.248
97863SOL    HW295422  14.773  12.089   4.371
97864SOL     OW95423   5.562  13.801   6.153
97864SOL    HW195424   5.521  13.734   6.099
97864SOL    HW295425   5.642  13.826   6.105
97865SOL     OW95426   7.854   7.459  13.369
97865SOL    HW195427   7.912   7.384  13.385
97865SOL    HW295428   7.823   7.447  13.280
97866SOL     OW95429   3.486  11.621   7.090
97866SOL    HW195430   3.458  11.680   7.021
97866SOL    HW295431   3.576  11.646   7.109
97867SOL     OW95432  10.304   5.307   6.450
97867SOL    HW195433  10.283   5.395   6.482
97867SOL    HW295434  10.361   5.270   6.518
97868SOL     OW95435  14.314   6.675   2.001
97868SOL    HW195436  14.325   6.735   2.075
97868SOL    HW295437  14.299   6.733   1.926
97869SOL     OW95438   7.260  12.721   5.765
97869SOL    HW195439   7.339  12.732   5.712
97869SOL    HW295440   7.271  12.637   5.809
97870SOL     OW95441  10.338  12.142  12.052
97870SOL    HW195442  10.404  12.205  12.083
97870SOL    HW295443  10.385  12.060  12.044
97871SOL     OW95444   4.307   9.700   5.375
97871SOL    HW195445   4.307   9.605   5.381
97871SOL    HW295446   4.358   9.720   5.297
97872SOL     OW95447   0.294  10.549  12.025
97872SOL    HW195448   0.348  10.606  12.079
97872SOL    HW295449   0.324  10.460  12.045
97873SOL     OW95450   9.220   6.612   2.584
97873SOL    HW195451   9.300   6.560   2.577
97873SOL    HW295452   9.241   6.695   2.542
97874SOL     OW95453   2.338  10.526   3.400
97874SOL    HW195454   2.387  10.608   3.399
97874SOL    HW295455   2.297  10.523   3.487
97875SOL     OW95456   8.541   1.106   9.426
97875SOL    HW195457   8.562   1.191   9.464
97875SOL    HW295458   8.627   1.066   9.409
97876SOL     OW95459   2.694  11.159  10.705
97876SOL    HW195460   2.609  11.126  10.676
97876SOL    HW295461   2.744  11.080  10.726
97877SOL     OW95462   3.083   7.533   7.390
97877SOL    HW195463   3.099   7.466   7.324
97877SOL    HW295464   3.114   7.614   7.351
97878SOL     OW95465   8.722   4.418  11.285
97878SOL    HW195466   8.655   4.476  11.321
97878SOL    HW295467   8.804   4.446  11.326
97879SOL     OW95468   0.880  10.487   1.726
97879SOL    HW195469   0.814  10.428   1.688
97879SOL    HW295470   0.917  10.437   1.799
97880SOL     OW95471   6.653   5.877   6.241
97880SOL    HW195472   6.580   5.936   6.220
97880SOL    HW295473   6.732   5.929   6.223
97881SOL     OW95474  13.026   8.359  13.440
97881SOL    HW195475  12.981   8.359  13.356
97881SOL    HW295476  12.990   8.285  13.487
97882SOL     OW95477   8.915   2.648   6.064
97882SOL    HW195478   8.904   2.607   5.978
97882SOL    HW295479   8.954   2.734   6.044
97883SOL     OW95480  11.336  12.595   8.392
97883SOL    HW195481  11.290  12.522   8.350
97883SOL    HW295482  11.277  12.669   8.382
97884SOL     OW95483   0.832  14.706   8.422
97884SOL    HW195484   0.895  14.658   8.368
97884SOL    HW295485   0.843  14.669   8.509
97885SOL     OW95486   6.226  10.234   3.981
97885SOL    HW195487   6.292  10.165   3.978
97885SOL    HW295488   6.158  10.205   3.920
97886SOL     OW95489   3.305   8.159   2.646
97886SOL    HW195490   3.365   8.088   2.622
97886SOL    HW295491   3.326   8.178   2.738
97887SOL     OW95492   5.306  14.003   2.501
97887SOL    HW195493   5.315  14.090   2.542
97887SOL    HW295494   5.395  13.976   2.482
97888SOL     OW95495   5.650   9.217   4.783
97888SOL    HW195496   5.565   9.176   4.795
97888SOL    HW295497   5.703   9.151   4.738
97889SOL     OW95498   9.123   7.937  13.238
97889SOL    HW195499   9.084   7.901  13.318
97889SOL    HW295500   9.142   7.860  13.184
97890SOL     OW95501   7.145  13.082   3.646
97890SOL    HW195502   7.232  13.120   3.636
97890SOL    HW295503   7.109  13.083   3.557
97891SOL     OW95504   9.518   7.077   5.081
97891SOL    HW195505   9.483   7.083   4.993
97891SOL    HW295506   9.540   7.167   5.105
97892SOL     OW95507  14.408   4.431  13.234
97892SOL    HW195508  14.342   4.412  13.300
97892SOL    HW295509  14.409   4.354  13.177
97893SOL     OW95510  13.401   9.430   0.354
97893SOL    HW195511  13.477   9.453   0.407
97893SOL    HW295512  13.407   9.487   0.277
97894SOL     OW95513  10.501  14.053   1.957
97894SOL    HW195514  10.595  14.073   1.957
97894SOL    HW295515  10.458  14.136   1.939
97895SOL     OW95516  10.844   5.346   6.004
97895SOL    HW195517  10.766   5.402   5.997
97895SOL    HW295518  10.894   5.383   6.077
97896SOL     OW95519  10.488   7.283   4.954
97896SOL    HW195520  10.437   7.312   4.878
97896SOL    HW295521  10.556   7.227   4.917
97897SOL     OW95522   2.194   2.484   3.027
97897SOL    HW195523   2.161   2.571   3.052
97897SOL    HW295524   2.134   2.454   2.959
97898SOL     OW95525   6.973   9.638  10.794
97898SOL    HW195526   6.930   9.677  10.717
97898SOL    HW295527   7.014   9.712  10.838
97899SOL     OW95528   4.569   5.871   2.917
97899SOL    HW195529   4.508   5.941   2.941
97899SOL    HW295530   4.513   5.795   2.903
97900SOL     OW95531   6.170  14.512   0.461
97900SOL    HW195532   6.259  14.486   0.482
97900SOL    HW295533   6.172  14.608   0.459
97901SOL     OW95534  14.589   8.981  14.691
97901SOL    HW195535  14.648   8.907  14.674
97901SOL    HW295536  14.647   9.057  14.695
97902SOL     OW95537   8.989   3.682  13.687
97902SOL    HW195538   8.977   3.639  13.602
97902SOL    HW295539   9.002   3.774  13.666
97903SOL     OW95540   7.192   7.229   5.573
97903SOL    HW195541   7.124   7.272   5.521
97903SOL    HW295542   7.161   7.139   5.582
97904SOL     OW95543  12.176  12.715   7.996
97904SOL    HW195544  12.221  12.687   8.075
97904SOL    HW295545  12.186  12.642   7.935
97905SOL     OW95546   4.047   4.521  13.505
97905SOL    HW195547   4.115   4.465  13.543
97905SOL    HW295548   4.090   4.606  13.493
97906SOL     OW95549  10.424   9.829  14.677
97906SOL    HW195550  10.471   9.803  14.598
97906SOL    HW295551  10.375   9.907  14.651
97907SOL     OW95552   3.126   3.196  10.493
97907SOL    HW195553   3.111   3.112  10.450
97907SOL    HW295554   3.219   3.194  10.517
97908SOL     OW95555   9.531   0.395   7.615
97908SOL    HW195556   9.538   0.301   7.603
97908SOL    HW295557   9.472   0.405   7.690
97909SOL     OW95558   6.650   9.715  10.601
97909SOL    HW195559   6.625   9.624  10.586
97909SOL    HW295560   6.727   9.728  10.545
97910SOL     OW95561   7.805   9.289  12.779
97910SOL    HW195562   7.771   9.360  12.833
97910SOL    HW295563   7.728   9.254  12.735
97911SOL     OW95564  13.208   2.481   9.016
97911SOL    HW195565  13.184   2.388   9.014
97911SOL    HW295566  13.142   2.524   8.962
97912SOL     OW95567   8.764   3.681   7.154
97912SOL    HW195568   8.809   3.676   7.238
97912SOL    HW295569   8.777   3.596   7.113
97913SOL     OW95570   4.841  13.015   7.099
97913SOL    HW195571   4.881  12.937   7.139
97913SOL    HW295572   4.899  13.036   7.026
97914SOL     OW95573   5.675   7.376   1.829
97914SOL    HW195574   5.597   7.379   1.884
97914SOL    HW295575   5.673   7.457   1.779
97915SOL     OW95576   5.135  14.379   0.472
97915SOL    HW195577   5.123  14.289   0.502
97915SOL    HW295578   5.051  14.402   0.431
97916SOL     OW95579   3.413  14.161  12.656
97916SOL    HW195580   3.469  14.086  12.676
97916SOL    HW295581   3.329  14.123  12.629
97917SOL     OW95582  10.341  12.325   8.996
97917SOL    HW195583  10.384  12.386   9.056
97917SOL    HW295584  10.359  12.360   8.909
97918SOL     OW95585   1.971   2.479  14.622
97918SOL    HW195586   1.946   2.568  14.646
97918SOL    HW295587   1.916   2.423  14.676
97919SOL     OW95588   4.616   1.390   7.125
97919SOL    HW195589   4.618   1.302   7.163
97919SOL    HW295590   4.532   1.394   7.080
97920SOL     OW95591   5.149  11.089  11.613
97920SOL    HW195592   5.116  11.009  11.654
97920SOL    HW295593   5.086  11.156  11.638
97921SOL     OW95594   3.459  10.875   6.911
97921SOL    HW195595   3.542  10.914   6.883
97921SOL    HW295596   3.440  10.919   6.995
97922SOL     OW95597   7.212  11.635   0.581
97922SOL    HW195598   7.145  11.596   0.637
97922SOL    HW295599   7.184  11.725   0.568
97923SOL     OW95600   1.591   9.713  14.863
97923SOL    HW195601   1.576   9.807   0.005
97923SOL    HW295602   1.593   9.704  14.768
97924SOL     OW95603   1.303   2.877   2.935
97924SOL    HW195604   1.301   2.973   2.928
97924SOL    HW295605   1.304   2.859   3.029
97925SOL     OW95606   7.544   4.971   9.829
97925SOL    HW195607   7.607   5.042   9.841
97925SOL    HW295608   7.596   4.897   9.798
97926SOL     OW95609  12.858   3.169   6.604
97926SOL    HW195610  12.880   3.091   6.655
97926SOL    HW295611  12.780   3.143   6.554
97927SOL     OW95612  12.720   1.595  11.938
97927SOL    HW195613  12.629   1.616  11.962
97927SOL    HW295614  12.749   1.671  11.887
97928SOL     OW95615   5.939  12.976   5.360
97928SOL    HW195616   5.940  13.062   5.403
97928SOL    HW295617   6.030  12.948   5.360
97929SOL     OW95618  13.113  12.913   9.298
97929SOL    HW195619  13.101  12.885   9.208
97929SOL    HW295620  13.196  12.872   9.325
97930SOL     OW95621  13.537   8.429  13.479
97930SOL    HW195622  13.494   8.448  13.562
97930SOL    HW295623  13.556   8.515  13.442
97931SOL     OW95624   5.928   0.588   5.181
97931SOL    HW195625   6.014   0.620   5.154
97931SOL    HW295626   5.871   0.665   5.173
97932SOL     OW95627   6.313  10.776  14.372
97932SOL    HW195628   6.228  10.751  14.336
97932SOL    HW295629   6.328  10.866  14.342
97933SOL     OW95630   7.941   8.476   2.040
97933SOL    HW195631   8.009   8.427   2.086
97933SOL    HW295632   7.861   8.424   2.051
97934SOL     OW95633  13.860  11.629   6.325
97934SOL    HW195634  13.776  11.593   6.296
97934SOL    HW295635  13.837  11.690   6.396
97935SOL     OW95636  14.120   6.927   3.699
97935SOL    HW195637  14.167   6.915   3.616
97935SOL    HW295638  14.189   6.926   3.766
97936SOL     OW95639  10.043   2.082   2.551
97936SOL    HW195640  10.128   2.120   2.575
97936SOL    HW295641  10.047   2.075   2.456
97937SOL     OW95642   1.300  13.657   3.828
97937SOL    HW195643   1.395  13.658   3.830
97937SOL    HW295644   1.274  13.672   3.919
97938SOL     OW95645   4.662  12.317   3.698
97938SOL    HW195646   4.723  12.350   3.632
97938SOL    HW295647   4.688  12.226   3.711
97939SOL     OW95648   3.102   8.715   6.032
97939SOL    HW195649   3.149   8.762   6.101
97939SOL    HW295650   3.163   8.714   5.958
97940SOL     OW95651  11.976  13.707  14.388
97940SOL    HW195652  11.885  13.677  14.386
97940SOL    HW295653  12.004  13.701  14.296
97941SOL     OW95654  14.684   2.782  14.096
97941SOL    HW195655  14.637   2.814  14.173
97941SOL    HW295656  14.713   2.694  14.120
97942SOL     OW95657  14.071   3.351   8.788
97942SOL    HW195658  14.076   3.272   8.841
97942SOL    HW295659  13.979   3.356   8.762
97943SOL     OW95660   0.282   2.334   0.846
97943SOL    HW195661   0.366   2.311   0.887
97943SOL    HW295662   0.270   2.426   0.868
97944SOL     OW95663   0.712  14.410  14.176
97944SOL    HW195664   0.617  14.406  14.170
97944SOL    HW295665   0.739  14.464  14.102
97945SOL     OW95666  10.969  13.414  12.874
97945SOL    HW195667  10.926  13.357  12.811
97945SOL    HW295668  11.061  13.416  12.845
97946SOL     OW95669   2.694  12.753  14.799
97946SOL    HW195670   2.704  12.677  14.857
97946SOL    HW295671   2.771  12.749  14.742
97947SOL     OW95672   3.622   7.372   7.135
97947SOL    HW195673   3.591   7.452   7.177
97947SOL    HW295674   3.690   7.402   7.074
97948SOL     OW95675   2.729   7.825  12.670
97948SOL    HW195676   2.720   7.918  12.651
97948SOL    HW295677   2.645   7.800  12.710
97949SOL     OW95678  10.068   9.783   5.193
97949SOL    HW195679   9.974   9.798   5.182
97949SOL    HW295680  10.089   9.717   5.127
97950SOL     OW95681   9.025   5.232  14.048
97950SOL    HW195682   8.955   5.255  13.987
97950SOL    HW295683   9.072   5.161  14.005
97951SOL     OW95684   8.840  12.511   8.829
97951SOL    HW195685   8.822  12.561   8.908
97951SOL    HW295686   8.878  12.429   8.860
97952SOL     OW95687   4.610   7.386   6.206
97952SOL    HW195688   4.641   7.475   6.187
97952SOL    HW295689   4.689   7.337   6.226
97953SOL     OW95690  11.025   1.308   2.320
97953SOL    HW195691  11.090   1.252   2.277
97953SOL    HW295692  10.973   1.343   2.247
97954SOL     OW95693   5.547  11.375   3.660
97954SOL    HW195694   5.509  11.346   3.743
97954SOL    HW295695   5.590  11.458   3.681
97955SOL     OW95696   8.032   8.669   2.591
97955SOL    HW195697   8.018   8.574   2.593
97955SOL    HW295698   8.118   8.679   2.549
97956SOL     OW95699  10.575  14.117   7.767
97956SOL    HW195700  10.589  14.076   7.682
97956SOL    HW295701  10.632  14.194   7.767
97957SOL     OW95702   9.122  12.864  11.301
97957SOL    HW195703   9.097  12.883  11.210
97957SOL    HW295704   9.175  12.784  11.295
97958SOL     OW95705  13.282   0.577   7.756
97958SOL    HW195706  13.238   0.621   7.829
97958SOL    HW295707  13.358   0.534   7.795
97959SOL     OW95708  13.815   7.239  13.106
97959SOL    HW195709  13.836   7.276  13.192
97959SOL    HW295710  13.891   7.185  13.084
97960SOL     OW95711   8.707   6.269   2.199
97960SOL    HW195712   8.668   6.261   2.286
97960SOL    HW295713   8.736   6.181   2.176
97961SOL     OW95714   4.551  14.816   1.235
97961SOL    HW195715   4.525  14.797   1.325
97961SOL    HW295716   4.492  14.762   1.181
97962SOL     OW95717   3.926  10.356  13.385
97962SOL    HW195718   4.006  10.333  13.432
97962SOL    HW295719   3.856  10.339  13.449
97963SOL     OW95720  13.900   7.044   4.642
97963SOL    HW195721  13.920   7.049   4.549
97963SOL    HW295722  13.808   7.070   4.648
97964SOL     OW95723   3.346  12.799  13.435
97964SOL    HW195724   3.334  12.777  13.343
97964SOL    HW295725   3.346  12.894  13.438
97965SOL     OW95726   8.187   9.139   5.290
97965SOL    HW195727   8.216   9.052   5.319
97965SOL    HW295728   8.111   9.121   5.235
97966SOL     OW95729  11.535   6.029   1.546
97966SOL    HW195730  11.490   6.108   1.517
97966SOL    HW295731  11.536   5.972   1.469
97967SOL     OW95732   5.325   4.213   2.521
97967SOL    HW195733   5.296   4.300   2.495
97967SOL    HW295734   5.290   4.201   2.609
97968SOL     OW95735   7.162   2.329   0.029
97968SOL    HW195736   7.099   2.262   0.056
97968SOL    HW295737   7.221   2.339   0.104
97969SOL     OW95738  12.847   4.317  10.244
97969SOL    HW195739  12.845   4.225  10.218
97969SOL    HW295740  12.854   4.314  10.339
97970SOL     OW95741   0.223   4.009  12.552
97970SOL    HW195742   0.200   4.066  12.479
97970SOL    HW295743   0.163   4.035  12.623
97971SOL     OW95744   1.273  12.145  14.341
97971SOL    HW195745   1.184  12.115  14.358
97971SOL    HW295746   1.301  12.093  14.266
97972SOL     OW95747   1.601   2.039  10.186
97972SOL    HW195748   1.548   2.111  10.151
97972SOL    HW295749   1.575   2.031  10.277
97973SOL     OW95750   1.613   2.122   0.583
97973SOL    HW195751   1.529   2.158   0.609
97973SOL    HW295752   1.594   2.031   0.559
97974SOL     OW95753   9.279   4.858  10.592
97974SOL    HW195754   9.334   4.921  10.545
97974SOL    HW295755   9.279   4.780  10.536
97975SOL     OW95756   5.767   3.777  10.519
97975SOL    HW195757   5.734   3.817  10.600
97975SOL    HW295758   5.809   3.696  10.548
97976SOL     OW95759   9.879  12.436  10.303
97976SOL    HW195760   9.957  12.472  10.346
97976SOL    HW295761   9.824  12.512  10.287
97977SOL     OW95762  14.068   9.870   8.841
97977SOL    HW195763  14.106   9.797   8.792
97977SOL    HW295764  13.999   9.830   8.894
97978SOL     OW95765  13.972   6.855  13.815
97978SOL    HW195766  14.013   6.934  13.778
97978SOL    HW295767  13.935   6.810  13.739
97979SOL     OW95768  13.861   5.992   7.270
97979SOL    HW195769  13.929   5.977   7.205
97979SOL    HW295770  13.867   6.086   7.290
97980SOL     OW95771   8.172   5.338   0.544
97980SOL    HW195772   8.134   5.251   0.532
97980SOL    HW295773   8.262   5.321   0.571
97981SOL     OW95774   5.698   8.949   7.705
97981SOL    HW195775   5.622   8.972   7.651
97981SOL    HW295776   5.731   9.033   7.738
97982SOL     OW95777   2.048   0.288  11.973
97982SOL    HW195778   1.957   0.276  12.003
97982SOL    HW295779   2.039   0.313  11.881
97983SOL     OW95780   7.661   4.605   1.246
97983SOL    HW195781   7.655   4.663   1.170
97983SOL    HW295782   7.747   4.565   1.239
97984SOL     OW95783   4.473  14.399  12.999
97984SOL    HW195784   4.489  14.334  12.930
97984SOL    HW295785   4.382  14.383  13.025
97985SOL     OW95786   8.386   4.640   7.632
97985SOL    HW195787   8.476   4.662   7.610
97985SOL    HW295788   8.374   4.672   7.721
97986SOL     OW95789  10.189   2.883   9.706
97986SOL    HW195790  10.126   2.816   9.733
97986SOL    HW295791  10.254   2.884   9.775
97987SOL     OW95792   1.430   4.641  11.990
97987SOL    HW195793   1.407   4.604  12.076
97987SOL    HW295794   1.376   4.592  11.928
97988SOL     OW95795   9.606   1.445  12.691
97988SOL    HW195796   9.533   1.386  12.668
97988SOL    HW295797   9.655   1.396  12.757
97989SOL     OW95798   8.850   8.933  13.308
97989SOL    HW195799   8.934   8.947  13.264
97989SOL    HW295800   8.874   8.908  13.397
97990SOL     OW95801   3.927   1.940   9.628
97990SOL    HW195802   3.937   2.023   9.674
97990SOL    HW295803   3.839   1.943   9.590
97991SOL     OW95804  14.086   2.750   9.528
97991SOL    HW195805  14.111   2.662   9.556
97991SOL    HW295806  14.167   2.801   9.534
97992SOL     OW95807   4.397  11.036  13.377
97992SOL    HW195808   4.382  11.067  13.466
97992SOL    HW295809   4.416  10.942  13.387
97993SOL     OW95810   3.902   8.558  13.114
97993SOL    HW195811   3.891   8.479  13.061
97993SOL    HW295812   3.898   8.528  13.204
97994SOL     OW95813  12.507   8.984   7.938
97994SOL    HW195814  12.568   9.024   8.001
97994SOL    HW295815  12.424   8.978   7.986
97995SOL     OW95816   6.386   6.810  13.811
97995SOL    HW195817   6.434   6.821  13.729
97995SOL    HW295818   6.303   6.770  13.785
97996SOL     OW95819   1.555  10.487  14.208
97996SOL    HW195820   1.559  10.452  14.297
97996SOL    HW295821   1.646  10.495  14.181
97997SOL     OW95822  12.343  12.009  14.469
97997SOL    HW195823  12.273  12.045  14.525
97997SOL    HW295824  12.306  12.012  14.381
97998SOL     OW95825   6.524   5.600  10.509
97998SOL    HW195826   6.588   5.580  10.440
97998SOL    HW295827   6.442   5.563  10.477
97999SOL     OW95828   2.641  12.421   7.568
97999SOL    HW195829   2.613  12.393   7.655
97999SOL    HW295830   2.618  12.514   7.564
98000SOL     OW95831   1.815   8.878   7.667
98000SOL    HW195832   1.882   8.887   7.735
98000SOL    HW295833   1.747   8.940   7.691
98001SOL     OW95834   2.779  11.778  14.532
98001SOL    HW195835   2.693  11.811  14.555
98001SOL    HW295836   2.802  11.825  14.452
98002SOL     OW95837  14.397   0.070   9.381
98002SOL    HW195838  14.447   0.022   9.315
98002SOL    HW295839  14.320   0.016   9.397
98003SOL     OW95840   3.372  11.567  14.571
98003SOL    HW195841   3.309  11.632  14.541
98003SOL    HW295842   3.379  11.504  14.499
98004SOL     OW95843  10.641   6.433   5.969
98004SOL    HW195844  10.721   6.380   5.961
98004SOL    HW295845  10.581   6.378   6.019
98005SOL     OW95846   7.958  14.409   5.446
98005SOL    HW195847   8.048  14.388   5.473
98005SOL    HW295848   7.944  14.357   5.367
98006SOL     OW95849   6.078   7.137   9.885
98006SOL    HW195850   6.002   7.080   9.880
98006SOL    HW295851   6.116   7.119   9.971
98007SOL     OW95852   8.427  12.056   6.392
98007SOL    HW195853   8.498  12.002   6.360
98007SOL    HW295854   8.405  12.113   6.318
98008SOL     OW95855  14.660   2.263   2.895
98008SOL    HW195856  14.655   2.262   2.800
98008SOL    HW295857  14.587   2.209   2.924
98009SOL     OW95858   2.224  13.773  13.393
98009SOL    HW195859   2.266  13.848  13.435
98009SOL    HW295860   2.137  13.768  13.434
98010SOL     OW95861  10.578  10.896   6.367
98010SOL    HW195862  10.627  10.825   6.325
98010SOL    HW295863  10.645  10.958   6.395
98011SOL     OW95864   3.479   0.250  10.955
98011SOL    HW195865   3.548   0.316  10.964
98011SOL    HW295866   3.446   0.261  10.866
98012SOL     OW95867   2.385   8.134  10.982
98012SOL    HW195868   2.302   8.174  11.007
98012SOL    HW295869   2.363   8.042  10.965
98013SOL     OW95870   8.413   8.593   5.149
98013SOL    HW195871   8.478   8.558   5.210
98013SOL    HW295872   8.329   8.567   5.186
98014SOL     OW95873  12.792  12.416   9.538
98014SOL    HW195874  12.838  12.452   9.462
98014SOL    HW295875  12.846  12.440   9.613
98015SOL     OW95876   3.406   3.483   9.624
98015SOL    HW195877   3.384   3.458   9.534
98015SOL    HW295878   3.467   3.416   9.653
98016SOL     OW95879   3.020  12.551  11.070
98016SOL    HW195880   2.986  12.463  11.086
98016SOL    HW295881   2.945  12.600  11.036
98017SOL     OW95882   7.166   0.875   8.064
98017SOL    HW195883   7.251   0.840   8.090
98017SOL    HW295884   7.123   0.802   8.020
98018SOL     OW95885   8.613  12.681   4.008
98018SOL    HW195886   8.532  12.729   4.026
98018SOL    HW295887   8.683  12.744   4.026
98019SOL     OW95888   7.517  11.764  13.508
98019SOL    HW195889   7.546  11.675  13.493
98019SOL    HW295890   7.476  11.791  13.426
98020SOL     OW95891   5.580  14.818   6.833
98020SOL    HW195892   5.655  14.850   6.882
98020SOL    HW295893   5.610  14.735   6.795
98021SOL     OW95894   0.997   2.706   9.050
98021SOL    HW195895   0.972   2.720   8.959
98021SOL    HW295896   0.921   2.735   9.100
98022SOL     OW95897  12.714   4.502   3.286
98022SOL    HW195898  12.770   4.572   3.254
98022SOL    HW295899  12.669   4.470   3.207
98023SOL     OW95900   9.916   5.050   8.336
98023SOL    HW195901   9.841   5.108   8.323
98023SOL    HW295902   9.931   5.010   8.251
98024SOL     OW95903   2.919   6.595   2.573
98024SOL    HW195904   2.886   6.646   2.647
98024SOL    HW295905   2.880   6.508   2.584
98025SOL     OW95906  11.511   9.034  14.661
98025SOL    HW195907  11.536   9.126  14.674
98025SOL    HW295908  11.486   9.029  14.569
98026SOL     OW95909   5.123   0.042   0.973
98026SOL    HW195910   5.119   0.066   0.880
98026SOL    HW295911   5.078   0.114   1.018
98027SOL     OW95912   3.910  11.778   7.173
98027SOL    HW195913   3.889  11.836   7.100
98027SOL    HW295914   4.005  11.777   7.177
98028SOL     OW95915   6.407  11.536   9.665
98028SOL    HW195916   6.340  11.603   9.678
98028SOL    HW295917   6.358  11.458   9.639
98029SOL     OW95918  13.903   4.200   9.519
98029SOL    HW195919  13.918   4.106   9.521
98029SOL    HW295920  13.820   4.210   9.474
98030SOL     OW95921   0.187  14.321  14.386
98030SOL    HW195922   0.266  14.367  14.415
98030SOL    HW295923   0.138  14.305  14.466
98031SOL     OW95924   5.303   1.322   2.669
98031SOL    HW195925   5.262   1.346   2.752
98031SOL    HW295926   5.343   1.403   2.638
98032SOL     OW95927   4.186   8.080   6.567
98032SOL    HW195928   4.147   8.143   6.506
98032SOL    HW295929   4.187   7.997   6.519
98033SOL     OW95930  14.670   9.421   3.962
98033SOL    HW195931  14.599   9.480   3.937
98033SOL    HW295932  14.645   9.336   3.928
98034SOL     OW95933   5.069  10.726   4.530
98034SOL    HW195934   5.027  10.642   4.511
98034SOL    HW295935   5.001  10.791   4.509
98035SOL     OW95936   2.556   0.296  10.119
98035SOL    HW195937   2.596   0.359  10.180
98035SOL    HW295938   2.491   0.250  10.171
98036SOL     OW95939   8.166   2.127  10.327
98036SOL    HW195940   8.144   2.142  10.234
98036SOL    HW295941   8.224   2.200  10.350
98037SOL     OW95942   2.185   9.330  11.530
98037SOL    HW195943   2.270   9.370  11.548
98037SOL    HW295944   2.131   9.352  11.607
98038SOL     OW95945   8.282   5.127   2.524
98038SOL    HW195946   8.359   5.089   2.566
98038SOL    HW295947   8.317   5.198   2.470
98039SOL     OW95948   8.274   4.191   9.739
98039SOL    HW195949   8.348   4.249   9.725
98039SOL    HW295950   8.198   4.243   9.714
98040SOL     OW95951  10.277   8.519  10.919
98040SOL    HW195952  10.251   8.444  10.866
98040SOL    HW295953  10.351   8.487  10.971
98041SOL     OW95954  12.302   2.288   9.894
98041SOL    HW195955  12.347   2.214   9.852
98041SOL    HW295956  12.217   2.291   9.849
98042SOL     OW95957  10.915   5.734  12.782
98042SOL    HW195958  10.975   5.660  12.792
98042SOL    HW295959  10.845   5.700  12.727
98043SOL     OW95960  10.481   1.739   8.379
98043SOL    HW195961  10.405   1.681   8.374
98043SOL    HW295962  10.469   1.801   8.307
98044SOL     OW95963   9.711   2.871  10.590
98044SOL    HW195964   9.782   2.806  10.596
98044SOL    HW295965   9.671   2.870  10.678
98045SOL     OW95966   4.169   3.671   2.463
98045SOL    HW195967   4.140   3.645   2.551
98045SOL    HW295968   4.099   3.726   2.430
98046SOL     OW95969   0.209   9.426   9.103
98046SOL    HW195970   0.160   9.346   9.085
98046SOL    HW295971   0.203   9.436   9.198
98047SOL     OW95972   5.784   8.948  11.413
98047SOL    HW195973   5.725   8.882  11.451
98047SOL    HW295974   5.758   8.952  11.321
98048SOL     OW95975   8.695   0.971   2.612
98048SOL    HW195976   8.701   0.876   2.623
98048SOL    HW295977   8.657   0.982   2.524
98049SOL     OW95978   6.321   4.113   5.627
98049SOL    HW195979   6.228   4.097   5.646
98049SOL    HW295980   6.366   4.035   5.660
98050SOL     OW95981  10.884  13.202   0.161
98050SOL    HW195982  10.914  13.208   0.252
98050SOL    HW295983  10.836  13.283   0.145
98051SOL     OW95984   9.897   2.298  10.311
98051SOL    HW195985   9.982   2.267  10.282
98051SOL    HW295986   9.872   2.364  10.246
98052SOL     OW95987   7.600  12.544  10.144
98052SOL    HW195988   7.596  12.526  10.050
98052SOL    HW295989   7.664  12.481  10.178
98053SOL     OW95990   6.960   2.705   4.089
98053SOL    HW195991   6.982   2.624   4.042
98053SOL    HW295992   6.972   2.683   4.181
98054SOL     OW95993   8.001   6.108   6.171
98054SOL    HW195994   7.952   6.035   6.208
98054SOL    HW295995   7.991   6.178   6.235
98055SOL     OW95996  11.594   5.978   2.098
98055SOL    HW195997  11.655   5.960   2.026
98055SOL    HW295998  11.542   5.898   2.106
98056SOL     OW95999   1.038   2.183   0.265
98056SOL    HW196000   1.051   2.103   0.316
98056SOL    HW296001   0.949   2.211   0.287
98057SOL     OW96002  10.315   9.474  14.161
98057SOL    HW196003  10.313   9.400  14.221
98057SOL    HW296004  10.304   9.551  14.218
98058SOL     OW96005   7.565   1.601   0.288
98058SOL    HW196006   7.484   1.552   0.269
98058SOL    HW296007   7.619   1.589   0.210
98059SOL     OW96008  10.597  11.335   5.310
98059SOL    HW196009  10.564  11.343   5.221
98059SOL    HW296010  10.630  11.245   5.316
98060SOL     OW96011   8.234  12.808   0.573
98060SOL    HW196012   8.196  12.896   0.583
98060SOL    HW296013   8.164  12.749   0.597
98061SOL     OW96014   0.089   1.456   9.988
98061SOL    HW196015   0.049   1.437  10.073
98061SOL    HW296016   0.028   1.517   9.946
98062SOL     OW96017   5.076  13.837   7.489
98062SOL    HW196018   4.985  13.810   7.477
98062SOL    HW296019   5.110  13.777   7.555
98063SOL     OW96020  14.082   7.226  14.570
98063SOL    HW196021  14.123   7.311  14.589
98063SOL    HW296022  14.014   7.247  14.506
98064SOL     OW96023  12.575  10.832   5.206
98064SOL    HW196024  12.592  10.924   5.225
98064SOL    HW296025  12.586  10.789   5.291
98065SOL     OW96026   8.660   3.691   6.649
98065SOL    HW196027   8.739   3.743   6.662
98065SOL    HW296028   8.651   3.684   6.554
98066SOL     OW96029   0.730   8.679  10.442
98066SOL    HW196030   0.653   8.651  10.393
98066SOL    HW296031   0.766   8.598  10.478
98067SOL     OW96032   5.249  10.984   1.864
98067SOL    HW196033   5.323  11.038   1.835
98067SOL    HW296034   5.202  11.038   1.926
98068SOL     OW96035   8.771   7.928   1.953
98068SOL    HW196036   8.695   7.871   1.966
98068SOL    HW296037   8.835   7.899   2.018
98069SOL     OW96038   1.123  14.524   0.579
98069SOL    HW196039   1.134  14.435   0.544
98069SOL    HW296040   1.069  14.513   0.657
98070SOL     OW96041   2.945  11.885   1.793
98070SOL    HW196042   3.040  11.873   1.791
98070SOL    HW296043   2.915  11.823   1.860
98071SOL     OW96044  10.124   4.659   2.756
98071SOL    HW196045  10.216   4.634   2.746
98071SOL    HW296046  10.115   4.680   2.849
98072SOL     OW96047   3.646  11.180   0.139
98072SOL    HW196048   3.616  11.147   0.055
98072SOL    HW296049   3.578  11.242   0.167
98073SOL     OW96050   2.331   1.384   9.234
98073SOL    HW196051   2.356   1.324   9.164
98073SOL    HW296052   2.359   1.340   9.315
98074SOL     OW96053  11.534   2.086   5.598
98074SOL    HW196054  11.500   2.169   5.566
98074SOL    HW296055  11.623   2.106   5.628
98075SOL     OW96056   1.376   0.946   1.430
98075SOL    HW196057   1.382   0.853   1.407
98075SOL    HW296058   1.464   0.980   1.413
98076SOL     OW96059  13.098   0.189   9.139
98076SOL    HW196060  13.080   0.215   9.229
98076SOL    HW296061  13.171   0.127   9.147
98077SOL     OW96062   2.866  10.870   6.691
98077SOL    HW196063   2.817  10.789   6.702
98077SOL    HW296064   2.811  10.924   6.635
98078SOL     OW96065   1.501  13.487   9.808
98078SOL    HW196066   1.444  13.453   9.738
98078SOL    HW296067   1.443  13.538   9.864
98079SOL     OW96068   7.223   3.506   3.419
98079SOL    HW196069   7.172   3.427   3.407
98079SOL    HW296070   7.271   3.493   3.500
98080SOL     OW96071   1.698   0.575  10.509
98080SOL    HW196072   1.604   0.591  10.494
98080SOL    HW296073   1.718   0.623  10.589
98081SOL     OW96074   1.355   2.588   5.968
98081SOL    HW196075   1.293   2.548   6.029
98081SOL    HW296076   1.427   2.524   5.963
98082SOL     OW96077  10.365   9.736   7.196
98082SOL    HW196078  10.334   9.688   7.119
98082SOL    HW296079  10.453   9.700   7.212
98083SOL     OW96080   4.369  11.264  12.410
98083SOL    HW196081   4.457  11.270  12.447
98083SOL    HW296082   4.378  11.301  12.322
98084SOL     OW96083   2.266   3.838  14.251
98084SOL    HW196084   2.260   3.752  14.292
98084SOL    HW296085   2.181   3.879  14.268
98085SOL     OW96086   3.870  13.398  14.235
98085SOL    HW196087   3.794  13.359  14.193
98085SOL    HW296088   3.912  13.450  14.166
98086SOL     OW96089  12.852  12.893  10.838
98086SOL    HW196090  12.756  12.891  10.837
98086SOL    HW296091  12.876  12.813  10.885
98087SOL     OW96092  12.257  12.967   0.474
98087SOL    HW196093  12.332  13.016   0.439
98087SOL    HW296094  12.221  13.024   0.542
98088SOL     OW96095   8.940  14.387  12.441
98088SOL    HW196096   8.877  14.454  12.416
98088SOL    HW296097   8.917  14.311  12.387
98089SOL     OW96098   7.515   8.129  11.651
98089SOL    HW196099   7.535   8.182  11.574
98089SOL    HW296100   7.515   8.039  11.618
98090SOL     OW96101   0.873   2.414   7.257
98090SOL    HW196102   0.877   2.386   7.348
98090SOL    HW296103   0.818   2.493   7.259
98091SOL     OW96104   0.541  13.947   3.351
98091SOL    HW196105   0.584  13.872   3.393
98091SOL    HW296106   0.589  14.023   3.383
98092SOL     OW96107  13.900  11.777   9.554
98092SOL    HW196108  13.833  11.812   9.494
98092SOL    HW296109  13.949  11.854   9.582
98093SOL     OW96110   6.818   1.286   6.277
98093SOL    HW196111   6.753   1.266   6.345
98093SOL    HW296112   6.773   1.348   6.219
98094SOL     OW96113  12.878   5.083  10.149
98094SOL    HW196114  12.946   5.027  10.188
98094SOL    HW296115  12.874   5.160  10.205
98095SOL     OW96116   4.953   1.838   2.263
98095SOL    HW196117   4.908   1.778   2.322
98095SOL    HW296118   5.009   1.782   2.209
98096SOL     OW96119   4.989  12.506   9.547
98096SOL    HW196120   4.959  12.506   9.456
98096SOL    HW296121   5.054  12.436   9.551
98097SOL     OW96122   7.101   0.942   6.454
98097SOL    HW196123   7.021   0.901   6.485
98097SOL    HW296124   7.129   0.888   6.380
98098SOL     OW96125  13.661   8.960   9.097
98098SOL    HW196126  13.621   8.900   9.034
98098SOL    HW296127  13.713   8.903   9.153
98099SOL     OW96128  11.757   6.785  10.081
98099SOL    HW196129  11.800   6.766  10.164
98099SOL    HW296130  11.664   6.773  10.099
98100SOL     OW96131   4.907   0.945   1.437
98100SOL    HW196132   4.820   0.983   1.451
98100SOL    HW296133   4.900   0.901   1.352
98101SOL     OW96134  11.604   9.970   1.193
98101SOL    HW196135  11.545   9.928   1.130
98101SOL    HW296136  11.589  10.064   1.180
98102SOL     OW96137  13.947  14.516   6.825
98102SOL    HW196138  13.909  14.601   6.846
98102SOL    HW296139  13.873  14.455   6.826
98103SOL     OW96140   5.233  13.521   5.844
98103SOL    HW196141   5.163  13.546   5.784
98103SOL    HW296142   5.286  13.600   5.854
98104SOL     OW96143   9.069   3.370  13.473
98104SOL    HW196144   9.146   3.404  13.427
98104SOL    HW296145   8.995   3.396  13.418
98105SOL     OW96146  14.308   1.600  14.195
98105SOL    HW196147  14.309   1.589  14.100
98105SOL    HW296148  14.268   1.519  14.228
98106SOL     OW96149   2.437   1.933  13.627
98106SOL    HW196150   2.424   1.992  13.553
98106SOL    HW296151   2.532   1.921  13.632
98107SOL     OW96152  14.164   6.876   3.434
98107SOL    HW196153  14.244   6.861   3.384
98107SOL    HW296154  14.108   6.927   3.376
98108SOL     OW96155   9.079  13.720  14.554
98108SOL    HW196156   8.985  13.705  14.556
98108SOL    HW296157   9.093  13.795  14.611
98109SOL     OW96158  11.002   8.118   2.130
98109SOL    HW196159  11.024   8.205   2.097
98109SOL    HW296160  10.971   8.071   2.053
98110SOL     OW96161   3.713   9.215  11.029
98110SOL    HW196162   3.724   9.264  11.111
98110SOL    HW296163   3.636   9.254  10.988
98111SOL     OW96164   7.265   6.955   4.038
98111SOL    HW196165   7.291   6.876   3.989
98111SOL    HW296166   7.190   6.989   3.989
98112SOL     OW96167  10.443  12.196   2.914
98112SOL    HW196168  10.387  12.120   2.900
98112SOL    HW296169  10.394  12.252   2.974
98113SOL     OW96170   7.222   3.650   8.177
98113SOL    HW196171   7.307   3.651   8.220
98113SOL    HW296172   7.214   3.737   8.137
98114SOL     OW96173   4.709   8.448   2.734
98114SOL    HW196174   4.621   8.412   2.748
98114SOL    HW296175   4.767   8.372   2.741
98115SOL     OW96176  12.112  13.858   6.783
98115SOL    HW196177  12.186  13.805   6.814
98115SOL    HW296178  12.050  13.856   6.856
98116SOL     OW96179  11.106   8.287   0.149
98116SOL    HW196180  11.184   8.272   0.202
98116SOL    HW296181  11.089   8.203   0.106
98117SOL     OW96182   0.258   8.827   8.126
98117SOL    HW196183   0.333   8.802   8.072
98117SOL    HW296184   0.269   8.777   8.207
98118SOL     OW96185   4.878   7.646   6.106
98118SOL    HW196186   4.914   7.699   6.035
98118SOL    HW296187   4.850   7.565   6.063
98119SOL     OW96188   1.955   6.745   1.659
98119SOL    HW196189   1.978   6.834   1.687
98119SOL    HW296190   1.888   6.717   1.721
98120SOL     OW96191   8.018   4.967  13.919
98120SOL    HW196192   7.993   5.057  13.941
98120SOL    HW296193   8.098   4.976  13.868
98121SOL     OW96194   1.830   6.272   5.762
98121SOL    HW196195   1.856   6.183   5.738
98121SOL    HW296196   1.734   6.270   5.762
98122SOL     OW96197   6.737   5.532   4.343
98122SOL    HW196198   6.789   5.542   4.423
98122SOL    HW296199   6.692   5.615   4.332
98123SOL     OW96200   0.843  12.202   7.503
98123SOL    HW196201   0.875  12.185   7.591
98123SOL    HW296202   0.903  12.154   7.446
98124SOL     OW96203   2.447   8.812   5.716
98124SOL    HW196204   2.468   8.904   5.734
98124SOL    HW296205   2.389   8.787   5.787
98125SOL     OW96206   3.987   5.230   1.801
98125SOL    HW196207   4.011   5.318   1.828
98125SOL    HW296208   3.899   5.217   1.835
98126SOL     OW96209   1.771  11.531  10.700
98126SOL    HW196210   1.798  11.445  10.669
98126SOL    HW296211   1.746  11.518  10.791
98127SOL     OW96212   4.257  13.150  11.251
98127SOL    HW196213   4.270  13.164  11.345
98127SOL    HW296214   4.234  13.236  11.217
98128SOL     OW96215   3.528   5.447   3.413
98128SOL    HW196216   3.593   5.496   3.465
98128SOL    HW296217   3.562   5.449   3.324
98129SOL     OW96218   1.147   1.177  12.593
98129SOL    HW196219   1.165   1.140  12.506
98129SOL    HW296220   1.197   1.121  12.653
98130SOL     OW96221   5.194   6.852   7.176
98130SOL    HW196222   5.176   6.883   7.087
98130SOL    HW296223   5.255   6.779   7.164
98131SOL     OW96224   2.807   2.820   6.529
98131SOL    HW196225   2.850   2.810   6.614
98131SOL    HW296226   2.720   2.853   6.550
98132SOL     OW96227   5.138   0.652   9.642
98132SOL    HW196228   5.114   0.744   9.649
98132SOL    HW296229   5.193   0.647   9.564
98133SOL     OW96230   2.166   1.386   2.229
98133SOL    HW196231   2.175   1.481   2.235
98133SOL    HW296232   2.251   1.356   2.199
98134SOL     OW96233  11.333  11.486   7.959
98134SOL    HW196234  11.366  11.404   7.922
98134SOL    HW296235  11.329  11.546   7.884
98135SOL     OW96236  14.311   7.851   3.585
98135SOL    HW196237  14.242   7.891   3.533
98135SOL    HW296238  14.392   7.879   3.544
98136SOL     OW96239   8.097   5.206   0.969
98136SOL    HW196240   8.129   5.136   1.026
98136SOL    HW296241   8.021   5.168   0.924
98137SOL     OW96242   9.500  13.836  13.551
98137SOL    HW196243   9.486  13.928  13.571
98137SOL    HW296244   9.553  13.803  13.624
98138SOL     OW96245   8.125  12.029   0.016
98138SOL    HW196246   8.104  11.937  14.870
98138SOL    HW296247   8.064  12.079  14.834
98139SOL     OW96248   2.523   0.683   5.569
98139SOL    HW196249   2.515   0.775   5.544
98139SOL    HW296250   2.568   0.643   5.495
98140SOL     OW96251  14.597   0.276   2.619
98140SOL    HW196252  14.550   0.345   2.573
98140SOL    HW296253  14.631   0.318   2.698
98141SOL     OW96254   8.417   8.851   1.060
98141SOL    HW196255   8.427   8.866   0.966
98141SOL    HW296256   8.441   8.935   1.100
98142SOL     OW96257  12.585   8.572   0.367
98142SOL    HW196258  12.532   8.562   0.446
98142SOL    HW296259  12.676   8.570   0.398
98143SOL     OW96260   6.964  12.235  11.016
98143SOL    HW196261   6.910  12.244  11.094
98143SOL    HW296262   6.996  12.323  10.998
98144SOL     OW96263  11.434  10.487   9.040
98144SOL    HW196264  11.477  10.527   8.964
98144SOL    HW296265  11.504  10.443   9.087
98145SOL     OW96266   4.244   5.994   0.974
98145SOL    HW196267   4.213   5.920   0.923
98145SOL    HW296268   4.194   6.069   0.941
98146SOL     OW96269   9.052   9.902   2.380
98146SOL    HW196270   9.010   9.816   2.370
98146SOL    HW296271   8.992   9.963   2.338
98147SOL     OW96272   0.498  12.830  12.809
98147SOL    HW196273   0.511  12.810  12.901
98147SOL    HW296274   0.551  12.909  12.794
98148SOL     OW96275   3.060   3.589  12.470
98148SOL    HW196276   3.141   3.537  12.470
98148SOL    HW296277   3.089   3.677  12.493
98149SOL     OW96278   2.287   1.768  11.715
98149SOL    HW196279   2.353   1.746  11.648
98149SOL    HW296280   2.331   1.751  11.798
98150SOL     OW96281   0.498   7.123   1.608
98150SOL    HW196282   0.585   7.084   1.599
98150SOL    HW296283   0.449   7.089   1.534
98151SOL     OW96284   6.585   2.554   0.428
98151SOL    HW196285   6.510   2.540   0.485
98151SOL    HW296286   6.562   2.508   0.347
98152SOL     OW96287   4.353   4.830   9.290
98152SOL    HW196288   4.272   4.788   9.316
98152SOL    HW296289   4.422   4.778   9.332
98153SOL     OW96290   4.328  12.382  14.131
98153SOL    HW196291   4.273  12.454  14.160
98153SOL    HW296292   4.289  12.304  14.171
98154SOL     OW96293  11.097  13.901  13.412
98154SOL    HW196294  11.183  13.860  13.422
98154SOL    HW296295  11.115  13.995  13.418
98155SOL     OW96296   3.366   1.647   2.727
98155SOL    HW196297   3.272   1.632   2.726
98155SOL    HW296298   3.403   1.570   2.770
98156SOL     OW96299   7.276  11.634  10.543
98156SOL    HW196300   7.301  11.611  10.632
98156SOL    HW296301   7.222  11.712  10.552
98157SOL     OW96302  13.249   7.793  10.499
98157SOL    HW196303  13.235   7.704  10.531
98157SOL    HW296304  13.192   7.799  10.422
98158SOL     OW96305   1.502   8.682  14.269
98158SOL    HW196306   1.588   8.662  14.305
98158SOL    HW296307   1.500   8.638  14.184
98159SOL     OW96308   9.205   8.343  11.231
98159SOL    HW196309   9.224   8.275  11.166
98159SOL    HW296310   9.196   8.295  11.313
98160SOL     OW96311   3.705   9.430   3.884
98160SOL    HW196312   3.705   9.380   3.803
98160SOL    HW296313   3.615   9.428   3.914
98161SOL     OW96314   4.795   1.065   1.155
98161SOL    HW196315   4.780   1.149   1.111
98161SOL    HW296316   4.740   1.068   1.233
98162SOL     OW96317   4.853   2.199   3.480
98162SOL    HW196318   4.873   2.106   3.493
98162SOL    HW296319   4.774   2.198   3.426
98163SOL     OW96320   6.651   9.123   0.414
98163SOL    HW196321   6.745   9.106   0.410
98163SOL    HW296322   6.642   9.217   0.398
98164SOL     OW96323   9.919   6.376  14.729
98164SOL    HW196324   9.984   6.382  14.659
98164SOL    HW296325   9.930   6.457  14.779
98165SOL     OW96326  13.374  11.992   8.730
98165SOL    HW196327  13.376  12.087   8.740
98165SOL    HW296328  13.282  11.969   8.742
98166SOL     OW96329   3.328   9.720  11.917
98166SOL    HW196330   3.298   9.693  12.003
98166SOL    HW296331   3.396   9.786  11.935
98167SOL     OW96332   2.952  12.344   6.341
98167SOL    HW196333   3.027  12.400   6.321
98167SOL    HW296334   2.877  12.389   6.303
98168SOL     OW96335   7.450   8.638   6.847
98168SOL    HW196336   7.482   8.671   6.762
98168SOL    HW296337   7.417   8.550   6.827
98169SOL     OW96338  10.659   5.780   5.914
98169SOL    HW196339  10.568   5.809   5.906
98169SOL    HW296340  10.709   5.844   5.862
98170SOL     OW96341   9.269  10.620   0.569
98170SOL    HW196342   9.250  10.654   0.481
98170SOL    HW296343   9.346  10.565   0.556
98171SOL     OW96344   8.381  12.978  11.495
98171SOL    HW196345   8.393  12.962  11.401
98171SOL    HW296346   8.287  12.992  11.505
98172SOL     OW96347  11.933  14.176   3.282
98172SOL    HW196348  11.841  14.153   3.294
98172SOL    HW296349  11.951  14.154   3.190
98173SOL     OW96350   8.408   7.206   8.542
98173SOL    HW196351   8.441   7.296   8.542
98173SOL    HW296352   8.426   7.173   8.454
98174SOL     OW96353   2.136  11.850   4.861
98174SOL    HW196354   2.182  11.915   4.915
98174SOL    HW296355   2.206  11.806   4.813
98175SOL     OW96356   7.229   7.021   5.000
98175SOL    HW196357   7.214   7.072   4.921
98175SOL    HW296358   7.141   7.000   5.032
98176SOL     OW96359  10.216   8.570   8.022
98176SOL    HW196360  10.168   8.536   8.099
98176SOL    HW296361  10.185   8.516   7.949
98177SOL     OW96362  10.108  10.878   3.895
98177SOL    HW196363  10.108  10.882   3.799
98177SOL    HW296364  10.194  10.844   3.917
98178SOL     OW96365  13.215   9.750  14.308
98178SOL    HW196366  13.140   9.719  14.360
98178SOL    HW296367  13.205   9.707  14.223
98179SOL     OW96368   5.430  12.271  13.974
98179SOL    HW196369   5.391  12.288  13.888
98179SOL    HW296370   5.356  12.264  14.034
98180SOL     OW96371  13.237  11.222   3.137
98180SOL    HW196372  13.244  11.218   3.042
98180SOL    HW296373  13.301  11.159   3.169
98181SOL     OW96374   3.813   8.524  11.536
98181SOL    HW196375   3.848   8.593  11.592
98181SOL    HW296376   3.741   8.565  11.489
98182SOL     OW96377   3.815   6.059   3.828
98182SOL    HW196378   3.886   6.105   3.873
98182SOL    HW296379   3.756   6.129   3.799
98183SOL     OW96380   4.855  11.546   5.652
98183SOL    HW196381   4.875  11.620   5.594
98183SOL    HW296382   4.838  11.587   5.737
98184SOL     OW96383  13.753  11.245  11.369
98184SOL    HW196384  13.691  11.310  11.335
98184SOL    HW296385  13.755  11.176  11.303
98185SOL     OW96386  14.766   3.561   1.737
98185SOL    HW196387  14.680   3.601   1.727
98185SOL    HW296388  14.754   3.470   1.709
98186SOL     OW96389   7.826  13.571  12.831
98186SOL    HW196390   7.768  13.646  12.818
98186SOL    HW296391   7.838  13.567  12.926
98187SOL     OW96392   0.039   0.374  14.550
98187SOL    HW196393  14.865   0.312  14.494
98187SOL    HW296394  14.849   0.444  14.566
98188SOL     OW96395   1.357  13.585   2.695
98188SOL    HW196396   1.332  13.660   2.640
98188SOL    HW296397   1.421  13.537   2.641
98189SOL     OW96398   1.273  10.626   2.473
98189SOL    HW196399   1.237  10.675   2.399
98189SOL    HW296400   1.310  10.546   2.434
98190SOL     OW96401   2.144   7.949  14.090
98190SOL    HW196402   2.136   7.887  14.162
98190SOL    HW296403   2.111   8.031  14.125
98191SOL     OW96404  13.549  14.819   1.249
98191SOL    HW196405  13.481  14.853   1.307
98191SOL    HW296406  13.558  14.727   1.272
98192SOL     OW96407  14.823   9.621  12.875
98192SOL    HW196408  14.732   9.649  12.873
98192SOL    HW296409  14.853   9.629  12.784
98193SOL     OW96410   4.711  12.061  10.090
98193SOL    HW196411   4.659  12.119  10.035
98193SOL    HW296412   4.696  11.973  10.055
98194SOL     OW96413   4.194   2.472  13.647
98194SOL    HW196414   4.166   2.480  13.738
98194SOL    HW296415   4.180   2.559  13.610
98195SOL     OW96416  13.898   6.134   3.107
98195SOL    HW196417  13.982   6.153   3.149
98195SOL    HW296418  13.842   6.105   3.179
98196SOL     OW96419   8.398  11.474   5.468
98196SOL    HW196420   8.390  11.484   5.374
98196SOL    HW296421   8.371  11.383   5.485
98197SOL     OW96422   6.810  13.755   2.244
98197SOL    HW196423   6.720  13.744   2.212
98197SOL    HW296424   6.849  13.820   2.186
98198SOL     OW96425   5.366  10.224   0.534
98198SOL    HW196426   5.356  10.129   0.535
98198SOL    HW296427   5.418  10.241   0.455
98199SOL     OW96428   7.782   8.050  12.041
98199SOL    HW196429   7.852   8.115  12.032
98199SOL    HW296430   7.727   8.064  11.963
98200SOL     OW96431   5.195   2.204  14.818
98200SOL    HW196432   5.139   2.166   0.013
98200SOL    HW296433   5.160   2.292  14.804
98201SOL     OW96434   2.745   1.206  13.137
98201SOL    HW196435   2.745   1.259  13.217
98201SOL    HW296436   2.702   1.261  13.072
98202SOL     OW96437  12.309   1.917   0.857
98202SOL    HW196438  12.250   1.866   0.912
98202SOL    HW296439  12.258   1.995   0.834
98203SOL     OW96440   9.259   6.468  12.618
98203SOL    HW196441   9.277   6.558  12.646
98203SOL    HW296442   9.319   6.415  12.670
98204SOL     OW96443  13.623   5.814   4.498
98204SOL    HW196444  13.602   5.840   4.408
98204SOL    HW296445  13.565   5.869   4.552
98205SOL     OW96446   3.494   8.334   6.697
98205SOL    HW196447   3.539   8.256   6.729
98205SOL    HW296448   3.565   8.392   6.670
98206SOL     OW96449   1.479   5.794   9.377
98206SOL    HW196450   1.435   5.709   9.378
98206SOL    HW296451   1.418   5.853   9.421
98207SOL     OW96452   6.939   2.902  11.702
98207SOL    HW196453   6.910   2.900  11.793
98207SOL    HW296454   6.927   2.993  11.675
98208SOL     OW96455  13.264  13.341   2.266
98208SOL    HW196456  13.260  13.320   2.173
98208SOL    HW296457  13.290  13.433   2.270
98209SOL     OW96458   1.093   3.661   9.262
98209SOL    HW196459   1.155   3.641   9.192
98209SOL    HW296460   1.022   3.597   9.251
98210SOL     OW96461   6.991   4.780   5.428
98210SOL    HW196462   6.975   4.875   5.433
98210SOL    HW296463   6.978   4.748   5.517
98211SOL     OW96464  14.593  10.845  12.620
98211SOL    HW196465  14.571  10.754  12.639
98211SOL    HW296466  14.509  10.886  12.599
98212SOL     OW96467  13.203  11.547  10.613
98212SOL    HW196468  13.167  11.534  10.525
98212SOL    HW296469  13.141  11.502  10.670
98213SOL     OW96470   2.835   3.495  10.503
98213SOL    HW196471   2.787   3.415  10.481
98213SOL    HW296472   2.855   3.535  10.419
98214SOL     OW96473   2.682   9.989  14.612
98214SOL    HW196474   2.637  10.068  14.583
98214SOL    HW296475   2.744   9.969  14.542
98215SOL     OW96476  11.025   6.296   3.431
98215SOL    HW196477  11.050   6.369   3.488
98215SOL    HW296478  10.943   6.325   3.391
98216SOL     OW96479  12.871   6.950  12.718
98216SOL    HW196480  12.924   6.934  12.796
98216SOL    HW296481  12.900   6.885  12.654
98217SOL     OW96482   7.292   5.109  14.305
98217SOL    HW196483   7.292   5.016  14.328
98217SOL    HW296484   7.227   5.148  14.363
98218SOL     OW96485   3.930   4.381   3.494
98218SOL    HW196486   3.893   4.347   3.575
98218SOL    HW296487   3.986   4.310   3.461
98219SOL     OW96488   7.469   7.704   1.157
98219SOL    HW196489   7.514   7.783   1.186
98219SOL    HW296490   7.522   7.632   1.191
98220SOL     OW96491   6.790  12.084  11.231
98220SOL    HW196492   6.783  12.176  11.258
98220SOL    HW296493   6.883  12.063  11.241
98221SOL     OW96494   7.942   9.398   1.250
98221SOL    HW196495   7.877   9.413   1.181
98221SOL    HW296496   8.011   9.347   1.207
98222SOL     OW96497   8.667  13.448   9.474
98222SOL    HW196498   8.618  13.515   9.522
98222SOL    HW296499   8.678  13.484   9.386
98223SOL     OW96500   8.274   2.097   4.492
98223SOL    HW196501   8.198   2.111   4.436
98223SOL    HW296502   8.248   2.028   4.553
98224SOL     OW96503   9.815   3.670   8.782
98224SOL    HW196504   9.819   3.744   8.842
98224SOL    HW296505   9.827   3.593   8.838
98225SOL     OW96506   2.998   8.014   7.014
98225SOL    HW196507   2.933   7.948   7.039
98225SOL    HW296508   2.986   8.084   7.077
98226SOL     OW96509   1.964  11.866   1.157
98226SOL    HW196510   2.008  11.815   1.226
98226SOL    HW296511   1.883  11.895   1.198
98227SOL     OW96512   4.716   3.735  13.891
98227SOL    HW196513   4.809   3.724  13.869
98227SOL    HW296514   4.709   3.826  13.917
98228SOL     OW96515  10.010   7.066   1.119
98228SOL    HW196516   9.998   7.009   1.043
98228SOL    HW296517  10.101   7.093   1.115
98229SOL     OW96518   1.618   4.585  12.624
98229SOL    HW196519   1.531   4.567  12.660
98229SOL    HW296520   1.620   4.536  12.542
98230SOL     OW96521   5.046   4.243   5.534
98230SOL    HW196522   4.992   4.216   5.459
98230SOL    HW296523   4.995   4.313   5.575
98231SOL     OW96524  10.301   4.813   1.239
98231SOL    HW196525  10.234   4.782   1.178
98231SOL    HW296526  10.251   4.850   1.312
98232SOL     OW96527  13.063   1.778   3.111
98232SOL    HW196528  13.112   1.753   3.033
98232SOL    HW296529  13.023   1.862   3.088
98233SOL     OW96530   5.006   1.225  14.675
98233SOL    HW196531   5.012   1.130  14.678
98233SOL    HW296532   5.038   1.254  14.760
98234SOL     OW96533  12.142  12.898   8.362
98234SOL    HW196534  12.221  12.845   8.371
98234SOL    HW296535  12.145  12.931   8.273
98235SOL     OW96536   9.324   4.118   0.509
98235SOL    HW196537   9.269   4.128   0.432
98235SOL    HW296538   9.278   4.053   0.563
98236SOL     OW96539   1.799  12.144  10.174
98236SOL    HW196540   1.738  12.208  10.139
98236SOL    HW296541   1.885  12.182  10.161
98237SOL     OW96542   0.423   3.504  14.517
98237SOL    HW196543   0.419   3.572  14.584
98237SOL    HW296544   0.332   3.490  14.491
98238SOL     OW96545   1.775   1.542  12.372
98238SOL    HW196546   1.862   1.545  12.333
98238SOL    HW296547   1.721   1.495  12.309
98239SOL     OW96548  12.174  10.277   4.910
98239SOL    HW196549  12.091  10.233   4.926
98239SOL    HW296550  12.179  10.345   4.976
98240SOL     OW96551   9.830   5.508   5.511
98240SOL    HW196552   9.805   5.458   5.589
98240SOL    HW296553   9.839   5.442   5.442
98241SOL     OW96554  11.530  10.952  14.756
98241SOL    HW196555  11.526  10.856  14.751
98241SOL    HW296556  11.442  10.981  14.733
98242SOL     OW96557   3.956  13.621   6.679
98242SOL    HW196558   3.902  13.593   6.605
98242SOL    HW296559   3.897  13.673   6.734
98243SOL     OW96560   6.029   7.502  13.202
98243SOL    HW196561   6.097   7.543  13.149
98243SOL    HW296562   5.947   7.543  13.173
98244SOL     OW96563  14.583  14.557   7.501
98244SOL    HW196564  14.577  14.586   7.410
98244SOL    HW296565  14.584  14.639   7.551
98245SOL     OW96566  12.695  12.706  10.655
98245SOL    HW196567  12.690  12.786  10.707
98245SOL    HW296568  12.610  12.665  10.666
98246SOL     OW96569  10.594   7.525  13.848
98246SOL    HW196570  10.514   7.566  13.815
98246SOL    HW296571  10.626   7.586  13.915
98247SOL     OW96572  11.244   2.073  12.974
98247SOL    HW196573  11.155   2.071  13.011
98247SOL    HW296574  11.302   2.071  13.050
98248SOL     OW96575   6.314   3.931  10.749
98248SOL    HW196576   6.279   4.008  10.705
98248SOL    HW296577   6.408   3.934  10.732
98249SOL     OW96578   4.067  11.051   3.133
98249SOL    HW196579   4.109  11.135   3.111
98249SOL    HW296580   4.019  11.069   3.214
98250SOL     OW96581   5.558   8.741   9.773
98250SOL    HW196582   5.647   8.776   9.769
98250SOL    HW296583   5.560   8.679   9.847
98251SOL     OW96584  10.760   2.678  10.034
98251SOL    HW196585  10.681   2.627  10.013
98251SOL    HW296586  10.729   2.768  10.039
98252SOL     OW96587   5.769   3.096  10.565
98252SOL    HW196588   5.832   3.023  10.560
98252SOL    HW296589   5.683   3.053  10.567
98253SOL     OW96590   5.289   4.110   6.990
98253SOL    HW196591   5.235   4.184   6.961
98253SOL    HW296592   5.368   4.151   7.026
98254SOL     OW96593   5.516   8.849   4.273
98254SOL    HW196594   5.453   8.889   4.333
98254SOL    HW296595   5.598   8.848   4.323
98255SOL     OW96596  14.024   2.554   0.772
98255SOL    HW196597  14.096   2.495   0.751
98255SOL    HW296598  14.066   2.629   0.814
98256SOL     OW96599   5.935  14.780   1.057
98256SOL    HW196600   5.981  14.822   1.130
98256SOL    HW296601   5.957  14.687   1.066
98257SOL     OW96602  13.307  13.468   9.407
98257SOL    HW196603  13.389  13.435   9.445
98257SOL    HW296604  13.253  13.390   9.397
98258SOL     OW96605   1.428   9.843   1.239
98258SOL    HW196606   1.435   9.823   1.145
98258SOL    HW296607   1.370   9.919   1.242
98259SOL     OW96608   0.644   8.396  11.550
98259SOL    HW196609   0.736   8.369  11.548
98259SOL    HW296610   0.623   8.416  11.459
98260SOL     OW96611   5.539   9.711  12.172
98260SOL    HW196612   5.459   9.761  12.155
98260SOL    HW296613   5.576   9.694  12.086
98261SOL     OW96614   1.085   2.312   1.110
98261SOL    HW196615   1.060   2.294   1.019
98261SOL    HW296616   1.035   2.248   1.161
98262SOL     OW96617   1.999   2.462   0.111
98262SOL    HW196618   1.945   2.388   0.083
98262SOL    HW296619   1.960   2.490   0.194
98263SOL     OW96620  14.194  11.145   0.117
98263SOL    HW196621  14.120  11.165   0.175
98263SOL    HW296622  14.189  11.051   0.103
98264SOL     OW96623   4.076   1.908  10.928
98264SOL    HW196624   4.015   1.929  10.999
98264SOL    HW296625   4.067   1.813  10.916
98265SOL     OW96626   6.315   5.578  11.064
98265SOL    HW196627   6.347   5.488  11.069
98265SOL    HW296628   6.220   5.571  11.076
98266SOL     OW96629   2.371   3.201   8.750
98266SOL    HW196630   2.393   3.294   8.743
98266SOL    HW296631   2.451   3.161   8.785
98267SOL     OW96632   5.133   1.679   2.083
98267SOL    HW196633   5.153   1.660   2.175
98267SOL    HW296634   5.177   1.609   2.034
98268SOL     OW96635  10.986   1.871   9.023
98268SOL    HW196636  11.000   1.933   8.953
98268SOL    HW296637  10.911   1.906   9.071
98269SOL     OW96638   6.810  13.250   9.273
98269SOL    HW196639   6.835  13.164   9.307
98269SOL    HW296640   6.734  13.233   9.217
98270SOL     OW96641   2.566   0.260  13.872
98270SOL    HW196642   2.517   0.287  13.795
98270SOL    HW296643   2.548   0.328  13.938
98271SOL     OW96644   8.369   9.117   6.138
98271SOL    HW196645   8.402   9.192   6.188
98271SOL    HW296646   8.417   9.121   6.055
98272SOL     OW96647   5.868   8.894   0.593
98272SOL    HW196648   5.952   8.914   0.551
98272SOL    HW296649   5.892   8.845   0.671
98273SOL     OW96650   6.798   1.973   1.023
98273SOL    HW196651   6.714   1.952   0.981
98273SOL    HW296652   6.775   2.036   1.092
98274SOL     OW96653   3.071  14.433   5.184
98274SOL    HW196654   3.051  14.349   5.143
98274SOL    HW296655   3.122  14.480   5.118
98275SOL     OW96656   3.042  12.887   9.734
98275SOL    HW196657   2.955  12.848   9.733
98275SOL    HW296658   3.082  12.861   9.652
98276SOL     OW96659   4.026   1.420   9.183
98276SOL    HW196660   4.070   1.351   9.134
98276SOL    HW296661   4.059   1.501   9.144
98277SOL     OW96662   8.241   4.818  11.696
98277SOL    HW196663   8.158   4.840  11.737
98277SOL    HW296664   8.302   4.806  11.769
98278SOL     OW96665   3.348   2.582  12.958
98278SOL    HW196666   3.304   2.580  12.872
98278SOL    HW296667   3.297   2.645  13.009
98279SOL     OW96668  13.884   6.131   5.217
98279SOL    HW196669  13.793   6.102   5.209
98279SOL    HW296670  13.911   6.150   5.127
98280SOL     OW96671   4.238  12.063  14.233
98280SOL    HW196672   4.144  12.071  14.220
98280SOL    HW296673   4.248  12.042  14.326
98281SOL     OW96674  12.362  14.471  13.362
98281SOL    HW196675  12.383  14.521  13.442
98281SOL    HW296676  12.422  14.506  13.296
98282SOL     OW96677   7.846   4.013  13.745
98282SOL    HW196678   7.772   3.996  13.803
98282SOL    HW296679   7.879   4.098  13.773
98283SOL     OW96680   9.166   5.557  13.541
98283SOL    HW196681   9.139   5.638  13.498
98283SOL    HW296682   9.169   5.578  13.634
98284SOL     OW96683   2.458   7.231   3.124
98284SOL    HW196684   2.550   7.256   3.117
98284SOL    HW296685   2.410   7.313   3.117
98285SOL     OW96686   5.908   2.641   7.852
98285SOL    HW196687   5.894   2.548   7.867
98285SOL    HW296688   5.835   2.684   7.896
98286SOL     OW96689   2.138  13.533   9.667
98286SOL    HW196690   2.156  13.448   9.625
98286SOL    HW296691   2.135  13.595   9.595
98287SOL     OW96692   0.657   9.272   5.122
98287SOL    HW196693   0.674   9.225   5.040
98287SOL    HW296694   0.689   9.214   5.190
98288SOL     OW96695  12.015   3.809  11.770
98288SOL    HW196696  12.096   3.771  11.735
98288SOL    HW296697  11.968   3.734  11.807
98289SOL     OW96698  13.794  13.599  12.102
98289SOL    HW196699  13.878  13.586  12.058
98289SOL    HW296700  13.736  13.634  12.034
98290SOL     OW96701   7.557   8.024  12.909
98290SOL    HW196702   7.558   7.935  12.873
98290SOL    HW296703   7.482   8.024  12.969
98291SOL     OW96704   9.176   0.216   2.730
98291SOL    HW196705   9.150   0.134   2.688
98291SOL    HW296706   9.236   0.190   2.799
98292SOL     OW96707   7.063   4.160   5.651
98292SOL    HW196708   7.094   4.225   5.589
98292SOL    HW296709   7.142   4.111   5.676
98293SOL     OW96710   8.390   9.021  11.369
98293SOL    HW196711   8.303   9.013  11.410
98293SOL    HW296712   8.432   8.937  11.386
98294SOL     OW96713   4.516   0.047   6.807
98294SOL    HW196714   4.603   0.087   6.814
98294SOL    HW296715   4.482   0.080   6.723
98295SOL     OW96716   2.457   4.752   0.487
98295SOL    HW196717   2.412   4.669   0.503
98295SOL    HW296718   2.548   4.728   0.471
98296SOL     OW96719   4.560  11.668   5.700
98296SOL    HW196720   4.628  11.692   5.763
98296SOL    HW296721   4.566  11.573   5.691
98297SOL     OW96722   5.272   6.917  13.154
98297SOL    HW196723   5.270   7.011  13.168
98297SOL    HW296724   5.189   6.897  13.110
98298SOL     OW96725   5.153   6.727  13.346
98298SOL    HW196726   5.202   6.790  13.292
98298SOL    HW296727   5.063   6.734  13.313
98299SOL     OW96728   5.837   5.648   7.142
98299SOL    HW196729   5.796   5.586   7.202
98299SOL    HW296730   5.783   5.726   7.147
98300SOL     OW96731   2.358   2.333  13.429
98300SOL    HW196732   2.416   2.314  13.503
98300SOL    HW296733   2.327   2.246  13.400
98301SOL     OW96734   6.401  12.202  14.648
98301SOL    HW196735   6.318  12.162  14.625
98301SOL    HW296736   6.426  12.253  14.570
98302SOL     OW96737   2.081  10.779   3.764
98302SOL    HW196738   1.997  10.824   3.767
98302SOL    HW296739   2.133  10.820   3.834
98303SOL     OW96740  10.932   7.720  10.155
98303SOL    HW196741  11.001   7.673  10.202
98303SOL    HW296742  10.976   7.798  10.121
98304SOL     OW96743   7.175   1.272   2.330
98304SOL    HW196744   7.217   1.351   2.296
98304SOL    HW296745   7.148   1.223   2.252
98305SOL     OW96746  14.210  13.551   7.481
98305SOL    HW196747  14.156  13.477   7.454
98305SOL    HW296748  14.220  13.541   7.575
98306SOL     OW96749   9.861   9.210   9.500
98306SOL    HW196750   9.921   9.187   9.429
98306SOL    HW296751   9.813   9.129   9.518
98307SOL     OW96752  11.934   3.719   1.534
98307SOL    HW196753  12.020   3.677   1.525
98307SOL    HW296754  11.900   3.687   1.617
98308SOL     OW96755  11.690  13.130  12.003
98308SOL    HW196756  11.678  13.051  11.952
98308SOL    HW296757  11.611  13.182  11.987
98309SOL     OW96758   6.574  13.313   5.069
98309SOL    HW196759   6.603  13.395   5.109
98309SOL    HW296760   6.579  13.329   4.975
98310SOL     OW96761   8.754  14.460  14.143
98310SOL    HW196762   8.825  14.522  14.125
98310SOL    HW296763   8.713  14.446  14.058
98311SOL     OW96764   8.549   1.344  14.482
98311SOL    HW196765   8.607   1.377  14.414
98311SOL    HW296766   8.470   1.396  14.475
98312SOL     OW96767  13.720  14.630  13.420
98312SOL    HW196768  13.734  14.555  13.362
98312SOL    HW296769  13.632  14.617  13.455
98313SOL     OW96770  14.405  13.021   2.847
98313SOL    HW196771  14.495  13.053   2.854
98313SOL    HW296772  14.415  12.928   2.823
98314SOL     OW96773  10.769   0.364   2.008
98314SOL    HW196774  10.758   0.443   1.955
98314SOL    HW296775  10.833   0.389   2.075
98315SOL     OW96776   4.202  13.693   8.352
98315SOL    HW196777   4.293  13.692   8.325
98315SOL    HW296778   4.205  13.701   8.447
98316SOL     OW96779   9.356  13.312  13.372
98316SOL    HW196780   9.452  13.318  13.376
98316SOL    HW296781   9.325  13.367  13.445
98317SOL     OW96782   9.774   4.417   5.486
98317SOL    HW196783   9.793   4.408   5.393
98317SOL    HW296784   9.767   4.327   5.518
98318SOL     OW96785  13.729   6.311   7.030
98318SOL    HW196786  13.796   6.378   7.043
98318SOL    HW296787  13.737   6.285   6.939
98319SOL     OW96788  13.127   4.710   4.770
98319SOL    HW196789  13.079   4.759   4.703
98319SOL    HW296790  13.160   4.633   4.723
98320SOL     OW96791   4.812   0.956  12.783
98320SOL    HW196792   4.813   0.997  12.870
98320SOL    HW296793   4.719   0.951  12.761
98321SOL     OW96794   2.316   3.396   2.348
98321SOL    HW196795   2.239   3.436   2.388
98321SOL    HW296796   2.292   3.304   2.334
98322SOL     OW96797  12.937  10.606   6.592
98322SOL    HW196798  13.019  10.562   6.570
98322SOL    HW296799  12.899  10.551   6.660
98323SOL     OW96800  14.132   1.322   5.730
98323SOL    HW196801  14.063   1.374   5.771
98323SOL    HW296802  14.102   1.231   5.737
98324SOL     OW96803  12.451  12.427   7.876
98324SOL    HW196804  12.537  12.461   7.848
98324SOL    HW296805  12.466  12.334   7.892
98325SOL     OW96806  10.494  14.377  12.331
98325SOL    HW196807  10.590  14.374  12.332
98325SOL    HW296808  10.473  14.435  12.257
98326SOL     OW96809  12.042   7.114   8.751
98326SOL    HW196810  12.099   7.043   8.783
98326SOL    HW296811  12.022   7.091   8.661
98327SOL     OW96812   3.679   8.646   7.905
98327SOL    HW196813   3.703   8.600   7.824
98327SOL    HW296814   3.584   8.636   7.910
98328SOL     OW96815   2.839   0.324   0.592
98328SOL    HW196816   2.798   0.342   0.507
98328SOL    HW296817   2.929   0.356   0.582
98329SOL     OW96818   2.554  14.100   3.289
98329SOL    HW196819   2.589  14.186   3.267
98329SOL    HW296820   2.506  14.073   3.211
98330SOL     OW96821   9.289   5.916   5.421
98330SOL    HW196822   9.288   5.860   5.499
98330SOL    HW296823   9.227   5.874   5.361
98331SOL     OW96824   0.267   3.878   6.747
98331SOL    HW196825   0.301   3.796   6.782
98331SOL    HW296826   0.223   3.853   6.665
98332SOL     OW96827   7.911   7.906   8.243
98332SOL    HW196828   7.970   7.951   8.182
98332SOL    HW296829   7.823   7.931   8.214
98333SOL     OW96830  11.548  14.646   7.691
98333SOL    HW196831  11.630  14.694   7.703
98333SOL    HW296832  11.574  14.554   7.691
98334SOL     OW96833  14.463   7.950  12.749
98334SOL    HW196834  14.517   8.000  12.811
98334SOL    HW296835  14.444   7.868  12.795
98335SOL     OW96836  12.415   1.853   8.980
98335SOL    HW196837  12.413   1.816   8.892
98335SOL    HW296838  12.467   1.933   8.972
98336SOL     OW96839   1.123  14.435  10.029
98336SOL    HW196840   1.203  14.456   9.981
98336SOL    HW296841   1.085  14.362   9.980
98337SOL     OW96842   6.185   7.191   1.098
98337SOL    HW196843   6.152   7.262   1.044
98337SOL    HW296844   6.106   7.151   1.135
98338SOL     OW96845   3.216   6.116  10.386
98338SOL    HW196846   3.149   6.073  10.439
98338SOL    HW296847   3.231   6.200  10.429
98339SOL     OW96848  13.676  13.757  11.899
98339SOL    HW196849  13.718  13.781  11.816
98339SOL    HW296850  13.592  13.719  11.873
98340SOL     OW96851  12.865   0.322   8.124
98340SOL    HW196852  12.796   0.276   8.077
98340SOL    HW296853  12.931   0.255   8.142
98341SOL     OW96854   6.528   4.026   9.308
98341SOL    HW196855   6.612   4.059   9.339
98341SOL    HW296856   6.493   4.095   9.252
98342SOL     OW96857  12.157   5.404   5.488
98342SOL    HW196858  12.121   5.347   5.420
98342SOL    HW296859  12.085   5.417   5.549
98343SOL     OW96860  10.809   8.803   1.285
98343SOL    HW196861  10.816   8.884   1.235
98343SOL    HW296862  10.888   8.754   1.261
98344SOL     OW96863  12.947  14.800   2.018
98344SOL    HW196864  13.016  14.749   2.061
98344SOL    HW296865  12.947   0.012   2.064
98345SOL     OW96866   3.696   2.008   7.415
98345SOL    HW196867   3.681   1.991   7.508
98345SOL    HW296868   3.612   2.039   7.382
98346SOL     OW96869   4.135  11.831  13.531
98346SOL    HW196870   4.111  11.754  13.582
98346SOL    HW296871   4.230  11.827  13.525
98347SOL     OW96872  11.279   6.379   6.021
98347SOL    HW196873  11.356   6.325   5.998
98347SOL    HW296874  11.254   6.349   6.108
98348SOL     OW96875  12.253  13.301  13.895
98348SOL    HW196876  12.166  13.339  13.911
98348SOL    HW296877  12.235  13.225  13.840
98349SOL     OW96878   2.550   8.731  13.547
98349SOL    HW196879   2.532   8.767  13.634
98349SOL    HW296880   2.587   8.645  13.564
98350SOL     OW96881   7.916   3.494   8.067
98350SOL    HW196882   7.932   3.430   8.136
98350SOL    HW296883   8.002   3.510   8.028
98351SOL     OW96884   3.287   9.313   4.785
98351SOL    HW196885   3.321   9.275   4.704
98351SOL    HW296886   3.247   9.396   4.758
98352SOL     OW96887   0.334   2.037   7.975
98352SOL    HW196888   0.281   2.057   7.898
98352SOL    HW296889   0.423   2.058   7.949
98353SOL     OW96890   6.207   3.682   5.727
98353SOL    HW196891   6.209   3.678   5.823
98353SOL    HW296892   6.282   3.737   5.703
98354SOL     OW96893  13.850   9.948   2.885
98354SOL    HW196894  13.860   9.979   2.975
98354SOL    HW296895  13.889   9.860   2.886
98355SOL     OW96896   8.539  11.096   2.022
98355SOL    HW196897   8.567  11.161   2.086
98355SOL    HW296898   8.613  11.089   1.961
98356SOL     OW96899   6.976   1.631   1.837
98356SOL    HW196900   6.952   1.590   1.753
98356SOL    HW296901   6.905   1.692   1.855
98357SOL     OW96902  14.322  13.369   9.261
98357SOL    HW196903  14.415  13.368   9.237
98357SOL    HW296904  14.322  13.386   9.355
98358SOL     OW96905   6.521   4.948  10.658
98358SOL    HW196906   6.604   4.901  10.645
98358SOL    HW296907   6.544   5.040  10.645
98359SOL     OW96908   0.525   6.208   1.142
98359SOL    HW196909   0.520   6.273   1.072
98359SOL    HW296910   0.600   6.154   1.119
98360SOL     OW96911  13.884  10.383  10.870
98360SOL    HW196912  13.808  10.426  10.908
98360SOL    HW296913  13.943  10.367  10.944
98361SOL     OW96914   8.854  12.644   7.126
98361SOL    HW196915   8.819  12.728   7.157
98361SOL    HW296916   8.786  12.580   7.149
98362SOL     OW96917   8.733   9.553   5.303
98362SOL    HW196918   8.728   9.459   5.321
98362SOL    HW296919   8.802   9.585   5.361
98363SOL     OW96920  11.280   1.427  13.479
98363SOL    HW196921  11.335   1.464  13.549
98363SOL    HW296922  11.342   1.388  13.417
98364SOL     OW96923  11.599   1.400   2.202
98364SOL    HW196924  11.585   1.310   2.230
98364SOL    HW296925  11.530   1.450   2.243
98365SOL     OW96926  11.840   7.828   9.511
98365SOL    HW196927  11.824   7.920   9.535
98365SOL    HW296928  11.758   7.799   9.471
98366SOL     OW96929   2.488  12.845   2.373
98366SOL    HW196930   2.511  12.912   2.308
98366SOL    HW296931   2.393  12.843   2.374
98367SOL     OW96932   5.827  10.630   7.971
98367SOL    HW196933   5.852  10.593   8.055
98367SOL    HW296934   5.895  10.695   7.952
98368SOL     OW96935   2.729   6.204  13.314
98368SOL    HW196936   2.792   6.244  13.253
98368SOL    HW296937   2.653   6.185  13.259
98369SOL     OW96938  14.861   8.183   7.010
98369SOL    HW196939   0.069   8.142   6.978
98369SOL    HW296940   0.018   8.254   7.067
98370SOL     OW96941  14.579   0.148   9.570
98370SOL    HW196942  14.584   0.242   9.553
98370SOL    HW296943  14.503   0.118   9.519
98371SOL     OW96944  13.693   4.340   7.457
98371SOL    HW196945  13.772   4.380   7.494
98371SOL    HW296946  13.726   4.272   7.398
98372SOL     OW96947   1.103   3.688  10.551
98372SOL    HW196948   1.039   3.664  10.619
98372SOL    HW296949   1.054   3.685  10.469
98373SOL     OW96950  12.914   4.390   5.872
98373SOL    HW196951  12.871   4.430   5.797
98373SOL    HW296952  12.876   4.435   5.948
98374SOL     OW96953   3.532   7.934   9.744
98374SOL    HW196954   3.626   7.937   9.726
98374SOL    HW296955   3.490   7.960   9.662
98375SOL     OW96956  11.300   5.605  11.167
98375SOL    HW196957  11.226   5.643  11.120
98375SOL    HW296958  11.284   5.627  11.258
98376SOL     OW96959  13.549  13.449   0.282
98376SOL    HW196960  13.484  13.386   0.249
98376SOL    HW296961  13.509  13.485   0.361
98377SOL     OW96962   7.231   4.817   5.166
98377SOL    HW196963   7.269   4.833   5.080
98377SOL    HW296964   7.226   4.903   5.207
98378SOL     OW96965   1.353   8.551   9.014
98378SOL    HW196966   1.408   8.618   9.055
98378SOL    HW296967   1.412   8.506   8.953
98379SOL     OW96968   3.298  13.902   9.850
98379SOL    HW196969   3.348  13.854   9.916
98379SOL    HW296970   3.247  13.835   9.804
98380SOL     OW96971  14.189   4.499   7.836
98380SOL    HW196972  14.284   4.493   7.839
98380SOL    HW296973  14.169   4.507   7.743
98381SOL     OW96974  11.549  12.885   9.605
98381SOL    HW196975  11.463  12.869   9.567
98381SOL    HW296976  11.540  12.860   9.697
98382SOL     OW96977   1.647   7.436   4.768
98382SOL    HW196978   1.710   7.507   4.774
98382SOL    HW296979   1.572   7.474   4.722
98383SOL     OW96980   3.367   6.098  14.143
98383SOL    HW196981   3.379   6.004  14.131
98383SOL    HW296982   3.455   6.135  14.129
98384SOL     OW96983  10.105  12.682   2.159
98384SOL    HW196984  10.193  12.712   2.139
98384SOL    HW296985  10.080  12.729   2.238
98385SOL     OW96986   4.495   4.664   0.427
98385SOL    HW196987   4.439   4.602   0.379
98385SOL    HW296988   4.451   4.749   0.416
98386SOL     OW96989  10.432  12.277   2.332
98386SOL    HW196990  10.487  12.355   2.342
98386SOL    HW296991  10.403  12.257   2.421
98387SOL     OW96992  11.555   7.344   7.989
98387SOL    HW196993  11.537   7.433   7.960
98387SOL    HW296994  11.540   7.290   7.911
98388SOL     OW96995   8.602   9.800   7.854
98388SOL    HW196996   8.515   9.796   7.896
98388SOL    HW296997   8.595   9.742   7.779
98389SOL     OW96998   2.865  14.805   9.344
98389SOL    HW196999   2.907  14.866   9.404
98389SOL    HW297000   2.814  14.746   9.400
98390SOL     OW97001   8.616  13.215   7.908
98390SOL    HW197002   8.568  13.283   7.954
98390SOL    HW297003   8.550  13.147   7.890
98391SOL     OW97004   1.449   2.139   1.756
98391SOL    HW197005   1.483   2.055   1.724
98391SOL    HW297006   1.497   2.155   1.838
98392SOL     OW97007  13.694   1.995   1.182
98392SOL    HW197008  13.769   1.957   1.136
98392SOL    HW297009  13.621   1.936   1.163
98393SOL     OW97010  14.041  10.236   5.314
98393SOL    HW197011  14.132  10.265   5.308
98393SOL    HW297012  14.047  10.140   5.320
98394SOL     OW97013  10.470   3.644   6.016
98394SOL    HW197014  10.470   3.553   6.045
98394SOL    HW297015  10.562   3.670   6.020
98395SOL     OW97016   8.223   1.213  12.252
98395SOL    HW197017   8.141   1.164  12.262
98395SOL    HW297018   8.279   1.181  12.324
98396SOL     OW97019   4.223   9.833   9.702
98396SOL    HW197020   4.138   9.788   9.696
98396SOL    HW297021   4.268   9.789   9.775
98397SOL     OW97022   2.239   7.302   5.872
98397SOL    HW197023   2.148   7.327   5.887
98397SOL    HW297024   2.234   7.210   5.844
98398SOL     OW97025   2.087  14.216   2.342
98398SOL    HW197026   2.170  14.170   2.351
98398SOL    HW297027   2.040  14.196   2.423
98399SOL     OW97028   7.290   1.288   2.560
98399SOL    HW197029   7.361   1.225   2.569
98399SOL    HW297030   7.260   1.277   2.470
98400SOL     OW97031   2.097  11.720  13.342
98400SOL    HW197032   2.074  11.767  13.422
98400SOL    HW297033   2.039  11.757  13.275
98401SOL     OW97034  11.235   6.792   7.853
98401SOL    HW197035  11.322   6.753   7.863
98401SOL    HW297036  11.175   6.727   7.890
98402SOL     OW97037   0.638   2.055  12.251
98402SOL    HW197038   0.600   2.008  12.177
98402SOL    HW297039   0.655   2.143  12.218
98403SOL     OW97040   5.527   6.878  11.008
98403SOL    HW197041   5.590   6.948  10.990
98403SOL    HW297042   5.502   6.845  10.922
98404SOL     OW97043   6.975   0.653   7.990
98404SOL    HW197044   6.987   0.674   7.897
98404SOL    HW297045   7.048   0.594   8.010
98405SOL     OW97046  11.996   1.878   9.361
98405SOL    HW197047  11.926   1.878   9.296
98405SOL    HW297048  12.077   1.868   9.310
98406SOL     OW97049   3.708   3.666  13.302
98406SOL    HW197050   3.691   3.640  13.393
98406SOL    HW297051   3.709   3.762  13.305
98407SOL     OW97052   5.457   1.227   4.196
98407SOL    HW197053   5.431   1.301   4.251
98407SOL    HW297054   5.553   1.235   4.189
98408SOL     OW97055   7.184   0.369   6.080
98408SOL    HW197056   7.137   0.286   6.080
98408SOL    HW297057   7.173   0.404   5.992
98409SOL     OW97058   1.678   6.020  12.219
98409SOL    HW197059   1.695   5.947  12.159
98409SOL    HW297060   1.750   6.081  12.203
98410SOL     OW97061  14.248  14.786   8.118
98410SOL    HW197062  14.193  14.807   8.042
98410SOL    HW297063  14.258  14.691   8.113
98411SOL     OW97064   4.269   0.113   4.204
98411SOL    HW197065   4.288   0.068   4.122
98411SOL    HW297066   4.308   0.200   4.193
98412SOL     OW97067   4.414  13.163  14.800
98412SOL    HW197068   4.459  13.095  14.749
98412SOL    HW297069   4.473  13.182   0.000
98413SOL     OW97070   6.187   8.312   9.166
98413SOL    HW197071   6.242   8.327   9.090
98413SOL    HW297072   6.142   8.395   9.180
98414SOL     OW97073   0.920   6.104   9.665
98414SOL    HW197074   0.920   6.181   9.608
98414SOL    HW297075   0.994   6.119   9.725
98415SOL     OW97076   1.363   4.943   5.536
98415SOL    HW197077   1.318   5.025   5.515
98415SOL    HW297078   1.446   4.972   5.575
98416SOL     OW97079   7.426   6.010  10.633
98416SOL    HW197080   7.450   6.069  10.563
98416SOL    HW297081   7.332   6.021  10.643
98417SOL     OW97082  10.267  11.310   9.186
98417SOL    HW197083  10.226  11.238   9.139
98417SOL    HW297084  10.323  11.353   9.121
98418SOL     OW97085   5.929   5.784  13.033
98418SOL    HW197086   5.923   5.721  12.961
98418SOL    HW297087   5.917   5.869  12.991
98419SOL     OW97088   5.518   5.178  11.473
98419SOL    HW197089   5.437   5.133  11.495
98419SOL    HW297090   5.490   5.255  11.424
98420SOL     OW97091  14.635   5.634  11.099
98420SOL    HW197092  14.628   5.594  11.186
98420SOL    HW297093  14.692   5.710  11.112
98421SOL     OW97094   7.754   4.811  11.677
98421SOL    HW197095   7.806   4.847  11.748
98421SOL    HW297096   7.801   4.732  11.649
98422SOL     OW97097   0.955   0.688   9.421
98422SOL    HW197098   0.875   0.643   9.450
98422SOL    HW297099   1.021   0.661   9.485
98423SOL     OW97100   7.807  14.860   2.546
98423SOL    HW197101   7.737  14.796   2.529
98423SOL    HW297102   7.762   0.062   2.587
98424SOL     OW97103  14.706   9.288   9.110
98424SOL    HW197104  14.766   9.363   9.116
98424SOL    HW297105  14.733   9.242   9.031
98425SOL     OW97106   9.302   9.955  13.712
98425SOL    HW197107   9.381  10.005  13.733
98425SOL    HW297108   9.293   9.894  13.785
98426SOL     OW97109  13.702  14.063   3.390
98426SOL    HW197110  13.767  14.058   3.461
98426SOL    HW297111  13.747  14.026   3.314
98427SOL     OW97112  14.052   0.981   2.542
98427SOL    HW197113  14.130   0.926   2.546
98427SOL    HW297114  13.985   0.931   2.589
98428SOL     OW97115   1.682   4.787   8.766
98428SOL    HW197116   1.774   4.799   8.744
98428SOL    HW297117   1.644   4.746   8.688
98429SOL     OW97118   8.830  14.242   5.016
98429SOL    HW197119   8.837  14.286   5.101
98429SOL    HW297120   8.873  14.302   4.955
98430SOL     OW97121   5.340  12.942   9.376
98430SOL    HW197122   5.246  12.937   9.360
98430SOL    HW297123   5.380  12.944   9.289
98431SOL     OW97124  11.868   3.095   7.609
98431SOL    HW197125  11.885   3.002   7.622
98431SOL    HW297126  11.819   3.122   7.687
98432SOL     OW97127   0.740  10.584   7.596
98432SOL    HW197128   0.781  10.613   7.515
98432SOL    HW297129   0.669  10.646   7.611
98433SOL     OW97130   3.546   2.784   4.069
98433SOL    HW197131   3.464   2.734   4.066
98433SOL    HW297132   3.598   2.749   3.997
98434SOL     OW97133  11.836   8.874   0.782
98434SOL    HW197134  11.765   8.814   0.807
98434SOL    HW297135  11.908   8.816   0.755
98435SOL     OW97136   7.764  13.317  13.471
98435SOL    HW197137   7.698  13.252  13.445
98435SOL    HW297138   7.814  13.275  13.541
98436SOL     OW97139  14.803   7.893  10.490
98436SOL    HW197140  14.806   7.988  10.494
98436SOL    HW297141  14.863   7.864  10.559
98437SOL     OW97142   3.104   2.406   5.638
98437SOL    HW197143   3.079   2.494   5.612
98437SOL    HW297144   3.129   2.363   5.557
98438SOL     OW97145   9.451   1.542  11.181
98438SOL    HW197146   9.428   1.472  11.120
98438SOL    HW297147   9.406   1.619  11.146
98439SOL     OW97148  12.243   3.849   8.661
98439SOL    HW197149  12.191   3.897   8.597
98439SOL    HW297150  12.181   3.826   8.730
98440SOL     OW97151   9.671   3.946  14.864
98440SOL    HW197152   9.638   4.031   0.022
98440SOL    HW297153   9.745   3.926   0.050
98441SOL     OW97154  13.354   3.325   1.514
98441SOL    HW197155  13.362   3.373   1.431
98441SOL    HW297156  13.432   3.270   1.517
98442SOL     OW97157   1.568   2.902  12.189
98442SOL    HW197158   1.475   2.886  12.207
98442SOL    HW297159   1.610   2.903  12.275
98443SOL     OW97160  13.701  10.447   5.495
98443SOL    HW197161  13.674  10.527   5.450
98443SOL    HW297162  13.623  10.419   5.543
98444SOL     OW97163   7.585   0.613   4.195
98444SOL    HW197164   7.585   0.587   4.103
98444SOL    HW297165   7.493   0.633   4.213
98445SOL     OW97166   1.545   7.457   5.023
98445SOL    HW197167   1.608   7.435   5.091
98445SOL    HW297168   1.594   7.447   4.941
98446SOL     OW97169   0.234   7.082   5.233
98446SOL    HW197170   0.282   7.153   5.192
98446SOL    HW297171   0.301   7.020   5.262
98447SOL     OW97172   4.517  10.325  14.411
98447SOL    HW197173   4.467  10.284  14.481
98447SOL    HW297174   4.496  10.274  14.333
98448SOL     OW97175   4.770   3.494   3.052
98448SOL    HW197176   4.848   3.444   3.074
98448SOL    HW297177   4.800   3.585   3.045
98449SOL     OW97178   6.103   2.481   5.776
98449SOL    HW197179   6.072   2.390   5.779
98449SOL    HW297180   6.023   2.533   5.780
98450SOL     OW97181   3.558  14.790  13.523
98450SOL    HW197182   3.535  14.844  13.599
98450SOL    HW297183   3.631  14.837  13.483
98451SOL     OW97184   7.398   3.321   1.716
98451SOL    HW197185   7.489   3.300   1.735
98451SOL    HW297186   7.402   3.389   1.649
98452SOL     OW97187   7.981  11.256   3.195
98452SOL    HW197188   8.011  11.210   3.273
98452SOL    HW297189   8.026  11.213   3.122
98453SOL     OW97190   0.306  11.991   2.073
98453SOL    HW197191   0.321  11.907   2.029
98453SOL    HW297192   0.388  12.039   2.062
98454SOL     OW97193  12.668   0.806   5.394
98454SOL    HW197194  12.758   0.779   5.416
98454SOL    HW297195  12.649   0.877   5.455
98455SOL     OW97196  12.633   6.779   7.021
98455SOL    HW197197  12.654   6.815   7.107
98455SOL    HW297198  12.716   6.779   6.974
98456SOL     OW97199   2.225  13.213   5.077
98456SOL    HW197200   2.132  13.227   5.057
98456SOL    HW297201   2.239  13.259   5.159
98457SOL     OW97202  13.659  11.064   3.669
98457SOL    HW197203  13.654  11.157   3.647
98457SOL    HW297204  13.683  11.063   3.761
98458SOL     OW97205   5.038   1.392   7.842
98458SOL    HW197206   5.007   1.453   7.909
98458SOL    HW297207   4.969   1.327   7.835
98459SOL     OW97208  11.461   4.538   1.901
98459SOL    HW197209  11.490   4.595   1.972
98459SOL    HW297210  11.392   4.484   1.941
98460SOL     OW97211   0.277   7.096   2.695
98460SOL    HW197212   0.218   7.044   2.641
98460SOL    HW297213   0.353   7.112   2.639
98461SOL     OW97214   8.021   8.403   2.565
98461SOL    HW197215   8.040   8.354   2.485
98461SOL    HW297216   8.077   8.363   2.631
98462SOL     OW97217   7.852  12.055   9.921
98462SOL    HW197218   7.892  11.987   9.976
98462SOL    HW297219   7.758  12.042   9.931
98463SOL     OW97220  14.071   4.493   8.659
98463SOL    HW197221  14.090   4.584   8.680
98463SOL    HW297222  14.139   4.443   8.703
98464SOL     OW97223   4.899   1.260   9.101
98464SOL    HW197224   4.935   1.250   9.013
98464SOL    HW297225   4.910   1.174   9.141
98465SOL     OW97226  13.827   0.062  12.686
98465SOL    HW197227  13.733   0.077  12.694
98465SOL    HW297228  13.859   0.058  12.776
98466SOL     OW97229   7.728   8.192   9.634
98466SOL    HW197230   7.813   8.222   9.667
98466SOL    HW297231   7.748   8.110   9.588
98467SOL     OW97232   6.593   2.537   5.222
98467SOL    HW197233   6.606   2.452   5.264
98467SOL    HW297234   6.663   2.542   5.157
98468SOL     OW97235  10.092   5.915  13.702
98468SOL    HW197236  10.181   5.900  13.668
98468SOL    HW297237  10.103   5.984  13.767
98469SOL     OW97238  12.473   6.598   8.178
98469SOL    HW197239  12.534   6.652   8.228
98469SOL    HW297240  12.441   6.655   8.108
98470SOL     OW97241   5.334   9.722  11.449
98470SOL    HW197242   5.283   9.643  11.466
98470SOL    HW297243   5.284   9.768  11.381
98471SOL     OW97244   8.207  13.590  14.592
98471SOL    HW197245   8.131  13.546  14.630
98471SOL    HW297246   8.282  13.554  14.640
98472SOL     OW97247  14.482   2.978  10.039
98472SOL    HW197248  14.509   2.941  10.123
98472SOL    HW297249  14.393   3.010  10.055
98473SOL     OW97250  11.089   1.119   8.910
98473SOL    HW197251  11.024   1.126   8.839
98473SOL    HW297252  11.165   1.078   8.869
98474SOL     OW97253   3.431   2.337   1.757
98474SOL    HW197254   3.400   2.372   1.841
98474SOL    HW297255   3.512   2.384   1.739
98475SOL     OW97256   5.902   3.975   0.896
98475SOL    HW197257   5.860   3.891   0.877
98475SOL    HW297258   5.966   3.955   0.964
98476SOL     OW97259  12.746   5.738   6.331
98476SOL    HW197260  12.762   5.693   6.414
98476SOL    HW297261  12.666   5.787   6.344
98477SOL     OW97262   9.148   7.543   3.572
98477SOL    HW197263   9.090   7.466   3.566
98477SOL    HW297264   9.187   7.550   3.485
98478SOL     OW97265   3.555   5.103  13.520
98478SOL    HW197266   3.485   5.097  13.586
98478SOL    HW297267   3.635   5.111  13.571
98479SOL     OW97268   6.734   6.337  14.644
98479SOL    HW197269   6.717   6.369  14.555
98479SOL    HW297270   6.686   6.254  14.648
98480SOL     OW97271   9.098   4.347  13.102
98480SOL    HW197272   9.126   4.308  13.184
98480SOL    HW297273   9.076   4.272  13.046
98481SOL     OW97274   7.632   0.467   3.962
98481SOL    HW197275   7.706   0.516   3.924
98481SOL    HW297276   7.665   0.433   4.045
98482SOL     OW97277   6.518  13.517   6.230
98482SOL    HW197278   6.594  13.461   6.211
98482SOL    HW297279   6.544  13.565   6.308
98483SOL     OW97280   8.073  13.651   3.458
98483SOL    HW197281   8.057  13.602   3.377
98483SOL    HW297282   8.064  13.742   3.433
98484SOL     OW97283   1.734   9.424  13.839
98484SOL    HW197284   1.646   9.459  13.854
98484SOL    HW297285   1.779   9.436  13.922
98485SOL     OW97286  13.517   7.303   0.910
98485SOL    HW197287  13.463   7.286   0.987
98485SOL    HW297288  13.605   7.275   0.936
98486SOL     OW97289   7.855   7.094   7.481
98486SOL    HW197290   7.937   7.113   7.436
98486SOL    HW297291   7.809   7.178   7.483
98487SOL     OW97292   9.103  11.100   5.827
98487SOL    HW197293   9.094  11.075   5.919
98487SOL    HW297294   9.062  11.187   5.822
98488SOL     OW97295  13.771   2.289   2.821
98488SOL    HW197296  13.792   2.277   2.729
98488SOL    HW297297  13.772   2.384   2.834
98489SOL     OW97298  13.470   4.388   5.891
98489SOL    HW197299  13.429   4.472   5.910
98489SOL    HW297300  13.529   4.372   5.965
98490SOL     OW97301   6.691   9.374  11.065
98490SOL    HW197302   6.739   9.436  11.120
98490SOL    HW297303   6.599   9.399  11.075
98491SOL     OW97304  10.193   3.036   1.346
98491SOL    HW197305  10.192   3.095   1.421
98491SOL    HW297306  10.103   3.006   1.337
98492SOL     OW97307   1.303   6.182   2.114
98492SOL    HW197308   1.300   6.203   2.207
98492SOL    HW297309   1.214   6.155   2.093
98493SOL     OW97310  10.731  12.747   8.572
98493SOL    HW197311  10.758  12.751   8.663
98493SOL    HW297312  10.790  12.683   8.532
98494SOL     OW97313   5.193  12.960   4.731
98494SOL    HW197314   5.199  12.939   4.638
98494SOL    HW297315   5.214  13.053   4.736
98495SOL     OW97316  11.634   5.827   4.080
98495SOL    HW197317  11.673   5.879   4.010
98495SOL    HW297318  11.620   5.741   4.042
98496SOL     OW97319   7.141   3.098   1.296
98496SOL    HW197320   7.193   3.131   1.370
98496SOL    HW297321   7.180   3.013   1.275
98497SOL     OW97322   7.779  11.938  13.408
98497SOL    HW197323   7.851  11.940  13.471
98497SOL    HW297324   7.707  11.982  13.452
98498SOL     OW97325   5.606   3.812   0.594
98498SOL    HW197326   5.635   3.804   0.503
98498SOL    HW297327   5.515   3.783   0.593
98499SOL     OW97328  14.526   2.600  11.633
98499SOL    HW197329  14.481   2.535  11.579
98499SOL    HW297330  14.570   2.658  11.570
98500SOL     OW97331   9.059  11.251   7.099
98500SOL    HW197332   8.986  11.244   7.038
98500SOL    HW297333   9.126  11.193   7.063
98501SOL     OW97334  14.490   8.459  10.336
98501SOL    HW197335  14.547   8.438  10.263
98501SOL    HW297336  14.407   8.485  10.295
98502SOL     OW97337   9.395   1.041   6.614
98502SOL    HW197338   9.472   1.023   6.668
98502SOL    HW297339   9.330   1.075   6.676
98503SOL     OW97340  13.919   2.561  12.946
98503SOL    HW197341  13.971   2.570  13.026
98503SOL    HW297342  13.838   2.609  12.965
98504SOL     OW97343   8.130   5.815  13.415
98504SOL    HW197344   8.105   5.731  13.452
98504SOL    HW297345   8.087   5.818  13.329
98505SOL     OW97346   3.986   3.705   9.295
98505SOL    HW197347   3.992   3.619   9.254
98505SOL    HW297348   3.918   3.694   9.362
98506SOL     OW97349   0.838   7.970   0.118
98506SOL    HW197350   0.891   7.894   0.095
98506SOL    HW297351   0.894   8.022   0.175
98507SOL     OW97352   3.295   9.133   7.841
98507SOL    HW197353   3.289   9.121   7.746
98507SOL    HW297354   3.237   9.207   7.860
98508SOL     OW97355   4.198   4.366  14.812
98508SOL    HW197356   4.250   4.436  14.851
98508SOL    HW297357   4.217   4.369  14.719
98509SOL     OW97358   6.334  14.855   9.327
98509SOL    HW197359   6.406   0.046   9.327
98509SOL    HW297360   6.285   0.003   9.248
98510SOL     OW97361   7.449   2.727   9.698
98510SOL    HW197362   7.444   2.755   9.606
98510SOL    HW297363   7.359   2.704   9.720
98511SOL     OW97364   2.390   8.989   0.674
98511SOL    HW197365   2.470   9.039   0.655
98511SOL    HW297366   2.415   8.898   0.659
98512SOL     OW97367   3.752  12.957   9.677
98512SOL    HW197368   3.813  12.985   9.610
98512SOL    HW297369   3.668  12.995   9.651
98513SOL     OW97370   2.871   2.877   0.309
98513SOL    HW197371   2.907   2.848   0.393
98513SOL    HW297372   2.916   2.822   0.245
98514SOL     OW97373   0.659   6.707   7.282
98514SOL    HW197374   0.626   6.762   7.211
98514SOL    HW297375   0.744   6.746   7.305
98515SOL     OW97376  10.768   7.857  11.482
98515SOL    HW197377  10.722   7.940  11.476
98515SOL    HW297378  10.855   7.874  11.445
98516SOL     OW97379   2.743   9.535  10.424
98516SOL    HW197380   2.760   9.525  10.331
98516SOL    HW297381   2.828   9.517  10.466
98517SOL     OW97382  10.618  10.883   0.173
98517SOL    HW197383  10.689  10.916   0.227
98517SOL    HW297384  10.571  10.821   0.229
98518SOL     OW97385   7.754   8.125  10.663
98518SOL    HW197386   7.664   8.126  10.696
98518SOL    HW297387   7.780   8.033  10.667
98519SOL     OW97388  10.988   0.894  13.846
98519SOL    HW197389  10.996   0.942  13.763
98519SOL    HW297390  11.008   0.804  13.823
98520SOL     OW97391   4.731  13.286  12.443
98520SOL    HW197392   4.799  13.220  12.454
98520SOL    HW297393   4.649  13.238  12.456
98521SOL     OW97394   3.823  12.809   0.502
98521SOL    HW197395   3.858  12.823   0.590
98521SOL    HW297396   3.850  12.720   0.479
98522SOL     OW97397   1.487   8.671   2.196
98522SOL    HW197398   1.470   8.684   2.289
98522SOL    HW297399   1.533   8.587   2.191
98523SOL     OW97400   8.876   3.258  12.192
98523SOL    HW197401   8.933   3.264  12.269
98523SOL    HW297402   8.846   3.167  12.192
98524SOL     OW97403   3.796  12.452   9.390
98524SOL    HW197404   3.863  12.413   9.334
98524SOL    HW297405   3.768  12.381   9.448
98525SOL     OW97406  10.904   4.875   7.874
98525SOL    HW197407  10.847   4.923   7.814
98525SOL    HW297408  10.847   4.854   7.948
98526SOL     OW97409  11.961   3.845   7.712
98526SOL    HW197410  12.019   3.815   7.643
98526SOL    HW297411  11.898   3.902   7.668
98527SOL     OW97412  14.661  13.212  12.522
98527SOL    HW197413  14.700  13.198  12.608
98527SOL    HW297414  14.726  13.177  12.460
98528SOL     OW97415   9.252   3.569   5.695
98528SOL    HW197416   9.212   3.593   5.779
98528SOL    HW297417   9.182   3.524   5.647
98529SOL     OW97418  10.408   4.282   2.591
98529SOL    HW197419  10.490   4.303   2.636
98529SOL    HW297420  10.434   4.256   2.503
98530SOL     OW97421   8.741   6.096   6.906
98530SOL    HW197422   8.806   6.120   6.840
98530SOL    HW297423   8.774   6.014   6.944
98531SOL     OW97424   3.339  13.574   0.237
98531SOL    HW197425   3.380  13.514   0.299
98531SOL    HW297426   3.269  13.616   0.287
98532SOL     OW97427   3.439   2.095  13.645
98532SOL    HW197428   3.410   2.112  13.555
98532SOL    HW297429   3.504   2.162  13.663
98533SOL     OW97430  10.798   0.953   7.918
98533SOL    HW197431  10.806   0.979   8.010
98533SOL    HW297432  10.820   0.860   7.918
98534SOL     OW97433   4.454   6.421  10.692
98534SOL    HW197434   4.498   6.340  10.670
98534SOL    HW297435   4.361   6.399  10.690
98535SOL     OW97436  13.420  11.526  11.424
98535SOL    HW197437  13.429  11.432  11.433
98535SOL    HW297438  13.509  11.560  11.433
98536SOL     OW97439  13.516   0.675   9.612
98536SOL    HW197440  13.486   0.626   9.689
98536SOL    HW297441  13.534   0.763   9.644
98537SOL     OW97442   1.807  14.349   9.120
98537SOL    HW197443   1.848  14.286   9.179
98537SOL    HW297444   1.835  14.323   9.033
98538SOL     OW97445   1.054   0.616  13.467
98538SOL    HW197446   1.072   0.661  13.384
98538SOL    HW297447   1.031   0.686  13.528
98539SOL     OW97448   8.135   0.027   3.707
98539SOL    HW197449   8.226   0.000   3.718
98539SOL    HW297450   8.111   0.067   3.790
98540SOL     OW97451   1.000   7.926   3.528
98540SOL    HW197452   0.959   7.841   3.545
98540SOL    HW297453   1.085   7.904   3.492
98541SOL     OW97454  12.849   8.053   0.010
98541SOL    HW197455  12.760   8.073  14.852
98541SOL    HW297456  12.846   7.961   0.034
98542SOL     OW97457   4.935  12.877  13.907
98542SOL    HW197458   4.870  12.908  13.970
98542SOL    HW297459   5.017  12.916  13.936
98543SOL     OW97460  11.655   1.298   4.986
98543SOL    HW197461  11.728   1.358   4.974
98543SOL    HW297462  11.579   1.346   4.952
98544SOL     OW97463   4.165  13.275   4.665
98544SOL    HW197464   4.094  13.311   4.718
98544SOL    HW297465   4.125  13.201   4.619
98545SOL     OW97466  11.118   2.957   0.713
98545SOL    HW197467  11.060   2.919   0.646
98545SOL    HW297468  11.204   2.956   0.673
98546SOL     OW97469   4.326   9.691   7.055
98546SOL    HW197470   4.340   9.605   7.014
98546SOL    HW297471   4.365   9.683   7.142
98547SOL     OW97472   8.294   4.406  14.753
98547SOL    HW197473   8.208   4.401  14.796
98547SOL    HW297474   8.319   4.498  14.759
98548SOL     OW97475  12.200   3.898  14.843
98548SOL    HW197476  12.142   3.919  14.769
98548SOL    HW297477  12.241   3.815  14.818
98549SOL     OW97478   0.074  14.490   6.887
98549SOL    HW197479   0.028  14.410   6.912
98549SOL    HW297480   0.166  14.471   6.904
98550SOL     OW97481   1.016  14.510   2.358
98550SOL    HW197482   1.078  14.528   2.287
98550SOL    HW297483   0.953  14.449   2.321
98551SOL     OW97484   9.338   0.313   3.465
98551SOL    HW197485   9.378   0.287   3.383
98551SOL    HW297486   9.385   0.262   3.532
98552SOL     OW97487   9.221  12.721   2.627
98552SOL    HW197488   9.240  12.777   2.703
98552SOL    HW297489   9.158  12.771   2.575
98553SOL     OW97490   5.916  10.708   6.247
98553SOL    HW197491   5.835  10.657   6.251
98553SOL    HW297492   5.934  10.718   6.153
98554SOL     OW97493   7.376  10.653   1.485
98554SOL    HW197494   7.446  10.646   1.550
98554SOL    HW297495   7.393  10.581   1.424
98555SOL     OW97496   3.618  13.887   5.444
98555SOL    HW197497   3.679  13.925   5.506
98555SOL    HW297498   3.632  13.936   5.363
98556SOL     OW97499   7.665   3.285   1.750
98556SOL    HW197500   7.748   3.284   1.798
98556SOL    HW297501   7.687   3.328   1.667
98557SOL     OW97502  14.673   6.718  12.998
98557SOL    HW197503  14.728   6.641  12.986
98557SOL    HW297504  14.727   6.780  13.046
98558SOL     OW97505   1.793   0.465   3.782
98558SOL    HW197506   1.761   0.444   3.870
98558SOL    HW297507   1.715   0.491   3.734
98559SOL     OW97508   6.577  13.050   9.631
98559SOL    HW197509   6.605  13.126   9.682
98559SOL    HW297510   6.524  12.998   9.692
98560SOL     OW97511   3.139  13.679  13.235
98560SOL    HW197512   3.108  13.731  13.161
98560SOL    HW297513   3.133  13.737  13.310
98561SOL     OW97514   1.677   0.226   3.305
98561SOL    HW197515   1.618   0.183   3.368
98561SOL    HW297516   1.665   0.177   3.224
98562SOL     OW97517  10.208   4.343  12.687
98562SOL    HW197518  10.226   4.361  12.780
98562SOL    HW297519  10.146   4.411  12.661
98563SOL     OW97520   1.370   5.089  12.142
98563SOL    HW197521   1.292   5.098  12.197
98563SOL    HW297522   1.439   5.134  12.190
98564SOL     OW97523   4.134   3.490   0.378
98564SOL    HW197524   4.154   3.406   0.420
98564SOL    HW297525   4.218   3.535   0.374
98565SOL     OW97526   6.819   1.634   2.843
98565SOL    HW197527   6.749   1.594   2.894
98565SOL    HW297528   6.796   1.727   2.838
98566SOL     OW97529  10.348  12.068   4.840
98566SOL    HW197530  10.341  12.157   4.804
98566SOL    HW297531  10.269  12.057   4.893
98567SOL     OW97532  12.158   9.342   2.140
98567SOL    HW197533  12.164   9.281   2.066
98567SOL    HW297534  12.135   9.426   2.101
98568SOL     OW97535   3.387   9.553  10.718
98568SOL    HW197536   3.333   9.630  10.707
98568SOL    HW297537   3.467   9.585  10.759
98569SOL     OW97538   2.798   8.201  14.099
98569SOL    HW197539   2.861   8.271  14.116
98569SOL    HW297540   2.734   8.240  14.040
98570SOL     OW97541   6.999   7.081   8.932
98570SOL    HW197542   7.032   7.073   8.842
98570SOL    HW297543   6.982   6.991   8.959
98571SOL     OW97544   2.677   5.752   9.564
98571SOL    HW197545   2.595   5.768   9.612
98571SOL    HW297546   2.704   5.664   9.591
98572SOL     OW97547  13.930   4.629   1.975
98572SOL    HW197548  13.959   4.687   2.046
98572SOL    HW297549  13.991   4.645   1.904
98573SOL     OW97550   7.080  11.706   6.967
98573SOL    HW197551   7.131  11.728   6.889
98573SOL    HW297552   7.059  11.613   6.956
98574SOL     OW97553   9.312   3.239   2.841
98574SOL    HW197554   9.371   3.293   2.894
98574SOL    HW297555   9.239   3.296   2.819
98575SOL     OW97556   3.533  11.400   7.536
98575SOL    HW197557   3.475  11.325   7.524
98575SOL    HW297558   3.619  11.370   7.507
98576SOL     OW97559   6.744  13.686   6.751
98576SOL    HW197560   6.681  13.758   6.759
98576SOL    HW297561   6.755  13.654   6.840
98577SOL     OW97562  10.590   2.672   9.670
98577SOL    HW197563  10.564   2.595   9.720
98577SOL    HW297564  10.661   2.711   9.720
98578SOL     OW97565   6.305   8.279   8.170
98578SOL    HW197566   6.266   8.366   8.171
98578SOL    HW297567   6.390   8.290   8.212
98579SOL     OW97568   3.672  12.250   2.180
98579SOL    HW197569   3.623  12.185   2.231
98579SOL    HW297570   3.672  12.329   2.235
98580SOL     OW97571   4.910   1.550   4.141
98580SOL    HW197572   4.865   1.483   4.090
98580SOL    HW297573   4.982   1.503   4.183
98581SOL     OW97574   6.134   6.741   6.377
98581SOL    HW197575   6.097   6.653   6.384
98581SOL    HW297576   6.069   6.791   6.328
98582SOL     OW97577  11.313   0.205  12.464
98582SOL    HW197578  11.383   0.247  12.414
98582SOL    HW297579  11.320   0.241  12.552
98583SOL     OW97580  11.582   6.342   8.452
98583SOL    HW197581  11.564   6.251   8.427
98583SOL    HW297582  11.624   6.336   8.537
98584SOL     OW97583   1.195   1.909   9.768
98584SOL    HW197584   1.165   1.896   9.678
98584SOL    HW297585   1.236   1.995   9.767
98585SOL     OW97586   2.053   7.385  12.839
98585SOL    HW197587   2.040   7.302  12.794
98585SOL    HW297588   2.127   7.370  12.898
98586SOL     OW97589   7.581  12.588   8.063
98586SOL    HW197590   7.667  12.602   8.023
98586SOL    HW297591   7.545  12.512   8.018
98587SOL     OW97592   3.974   0.089   7.003
98587SOL    HW197593   3.990  14.868   7.015
98587SOL    HW297594   3.925   0.115   7.081
98588SOL     OW97595  13.918  11.349   9.399
98588SOL    HW197596  13.871  11.371   9.319
98588SOL    HW297597  13.970  11.428   9.419
98589SOL     OW97598   3.467   2.359   0.661
98589SOL    HW197599   3.460   2.270   0.695
98589SOL    HW297600   3.456   2.349   0.566
98590SOL     OW97601   5.223  12.445   6.330
98590SOL    HW197602   5.304  12.495   6.342
98590SOL    HW297603   5.244  12.357   6.362
98591SOL     OW97604  11.787   4.237   6.406
98591SOL    HW197605  11.774   4.310   6.346
98591SOL    HW297606  11.708   4.183   6.396
98592SOL     OW97607  11.334   2.047   2.490
98592SOL    HW197608  11.416   2.067   2.445
98592SOL    HW297609  11.267   2.095   2.441
98593SOL     OW97610  12.273   7.728  14.205
98593SOL    HW197611  12.348   7.693  14.156
98593SOL    HW297612  12.297   7.819  14.225
98594SOL     OW97613   9.830  14.674   8.346
98594SOL    HW197614   9.840  14.704   8.256
98594SOL    HW297615   9.918  14.680   8.383
98595SOL     OW97616   5.113   9.606  14.081
98595SOL    HW197617   5.054   9.543  14.039
98595SOL    HW297618   5.119   9.576  14.172
98596SOL     OW97619  13.375   3.189  13.880
98596SOL    HW197620  13.351   3.257  13.943
98596SOL    HW297621  13.471   3.194  13.875
98597SOL     OW97622  13.945  10.040   3.131
98597SOL    HW197623  13.993   9.958   3.142
98597SOL    HW297624  13.875  10.036   3.197
98598SOL     OW97625   7.570   7.555   2.093
98598SOL    HW197626   7.649   7.609   2.097
98598SOL    HW297627   7.597   7.470   2.127
98599SOL     OW97628  11.376  11.006   1.857
98599SOL    HW197629  11.433  11.050   1.794
98599SOL    HW297630  11.388  10.913   1.839
98600SOL     OW97631   5.951   4.773   4.691
98600SOL    HW197632   5.877   4.741   4.638
98600SOL    HW297633   6.026   4.768   4.632
98601SOL     OW97634   4.123   2.667   3.916
98601SOL    HW197635   4.123   2.648   4.010
98601SOL    HW297636   4.152   2.585   3.875
98602SOL     OW97637  13.076  13.759  11.551
98602SOL    HW197638  13.058  13.842  11.595
98602SOL    HW297639  13.163  13.770  11.513
98603SOL     OW97640   9.867  13.198  10.286
98603SOL    HW197641   9.958  13.227  10.279
98603SOL    HW297642   9.834  13.239  10.366
98604SOL     OW97643   4.795   3.534  10.947
98604SOL    HW197644   4.883   3.566  10.969
98604SOL    HW297645   4.750   3.527  11.031
98605SOL     OW97646   9.431  13.205   0.329
98605SOL    HW197647   9.429  13.242   0.241
98605SOL    HW297648   9.385  13.269   0.383
98606SOL     OW97649  10.770  10.949  11.284
98606SOL    HW197650  10.684  10.906  11.281
98606SOL    HW297651  10.819  10.900  11.350
98607SOL     OW97652   7.286   0.542   7.575
98607SOL    HW197653   7.292   0.534   7.479
98607SOL    HW297654   7.291   0.636   7.591
98608SOL     OW97655   7.060  12.588   1.935
98608SOL    HW197656   7.046  12.514   1.994
98608SOL    HW297657   7.063  12.549   1.848
98609SOL     OW97658   3.473  12.654   7.626
98609SOL    HW197659   3.470  12.673   7.532
98609SOL    HW297660   3.395  12.697   7.662
98610SOL     OW97661   2.348  14.787   3.946
98610SOL    HW197662   2.343  14.701   3.906
98610SOL    HW297663   2.258  14.819   3.945
98611SOL     OW97664   1.440  12.248   8.422
98611SOL    HW197665   1.462  12.326   8.472
98611SOL    HW297666   1.386  12.280   8.349
98612SOL     OW97667   2.107  10.423   6.882
98612SOL    HW197668   2.066  10.395   6.964
98612SOL    HW297669   2.183  10.475   6.910
98613SOL     OW97670  10.748  13.909  13.343
98613SOL    HW197671  10.755  13.820  13.376
98613SOL    HW297672  10.835  13.947  13.358
98614SOL     OW97673   4.493   7.260   4.459
98614SOL    HW197674   4.434   7.196   4.420
98614SOL    HW297675   4.435   7.323   4.501
98615SOL     OW97676  11.171   8.157   3.645
98615SOL    HW197677  11.163   8.080   3.701
98615SOL    HW297678  11.095   8.211   3.668
98616SOL     OW97679  12.826   4.941  10.503
98616SOL    HW197680  12.741   4.965  10.464
98616SOL    HW297681  12.886   5.009  10.473
98617SOL     OW97682  12.805   7.415  10.503
98617SOL    HW197683  12.778   7.354  10.572
98617SOL    HW297684  12.741   7.403  10.433
98618SOL     OW97685   5.312  13.210   5.423
98618SOL    HW197686   5.228  13.179   5.391
98618SOL    HW297687   5.299  13.220   5.518
98619SOL     OW97688  10.493  10.744  13.811
98619SOL    HW197689  10.451  10.705  13.734
98619SOL    HW297690  10.510  10.669  13.869
98620SOL     OW97691   3.387  12.565   9.620
98620SOL    HW197692   3.403  12.499   9.553
98620SOL    HW297693   3.473  12.582   9.659
98621SOL     OW97694   4.176  11.158   0.551
98621SOL    HW197695   4.139  11.240   0.520
98621SOL    HW297696   4.201  11.175   0.641
98622SOL     OW97697   6.230   3.630  11.537
98622SOL    HW197698   6.303   3.619  11.477
98622SOL    HW297699   6.269   3.665  11.617
98623SOL     OW97700  14.635   0.421   4.573
98623SOL    HW197701  14.630   0.326   4.569
98623SOL    HW297702  14.594   0.444   4.656
98624SOL     OW97703  13.298   9.295   3.721
98624SOL    HW197704  13.345   9.215   3.696
98624SOL    HW297705  13.262   9.275   3.808
98625SOL     OW97706   1.274   8.309   5.249
98625SOL    HW197707   1.245   8.220   5.228
98625SOL    HW297708   1.268   8.315   5.344
98626SOL     OW97709   1.135   7.204  13.323
98626SOL    HW197710   1.057   7.216  13.376
98626SOL    HW297711   1.208   7.207  13.386
98627SOL     OW97712   1.469   2.364   0.872
98627SOL    HW197713   1.391   2.369   0.928
98627SOL    HW297714   1.440   2.402   0.788
98628SOL     OW97715   5.999   6.448  11.116
98628SOL    HW197716   6.072   6.425  11.174
98628SOL    HW297717   5.931   6.383  11.137
98629SOL     OW97718  14.465   2.707  10.778
98629SOL    HW197719  14.512   2.662  10.708
98629SOL    HW297720  14.407   2.640  10.815
98630SOL     OW97721   6.157   0.520   2.037
98630SOL    HW197722   6.190   0.504   2.125
98630SOL    HW297723   6.177   0.440   1.988
98631SOL     OW97724   0.348  13.482   8.188
98631SOL    HW197725   0.406  13.539   8.239
98631SOL    HW297726   0.399  13.401   8.176
98632SOL     OW97727  12.678   4.382   6.825
98632SOL    HW197728  12.639   4.414   6.906
98632SOL    HW297729  12.608   4.334   6.782
98633SOL     OW97730  10.418   2.112   8.040
98633SOL    HW197731  10.471   2.184   8.007
98633SOL    HW297732  10.402   2.057   7.964
98634SOL     OW97733  13.592  13.135  14.432
98634SOL    HW197734  13.683  13.160  14.448
98634SOL    HW297735  13.569  13.080  14.508
98635SOL     OW97736  13.932   7.709  12.984
98635SOL    HW197737  13.990   7.719  12.908
98635SOL    HW297738  13.967   7.634  13.031
98636SOL     OW97739   5.738  14.419   7.023
98636SOL    HW197740   5.823  14.385   7.052
98636SOL    HW297741   5.709  14.358   6.955
98637SOL     OW97742  11.535   6.811  11.018
98637SOL    HW197743  11.485   6.746  11.068
98637SOL    HW297744  11.479   6.889  11.018
98638SOL     OW97745   3.467   9.984   0.444
98638SOL    HW197746   3.442   9.912   0.501
98638SOL    HW297747   3.410  10.056   0.468
98639SOL     OW97748   3.250  13.346   7.674
98639SOL    HW197749   3.244  13.256   7.706
98639SOL    HW297750   3.165  13.364   7.635
98640SOL     OW97751   6.350   5.051  10.095
98640SOL    HW197752   6.260   5.020  10.094
98640SOL    HW297753   6.377   5.046  10.187
98641SOL     OW97754  12.655   7.121   3.363
98641SOL    HW197755  12.701   7.177   3.425
98641SOL    HW297756  12.647   7.173   3.283
98642SOL     OW97757  13.352  12.749   9.532
98642SOL    HW197758  13.432  12.797   9.510
98642SOL    HW297759  13.340  12.687   9.460
98643SOL     OW97760  12.971  13.285   3.070
98643SOL    HW197761  12.883  13.247   3.078
98643SOL    HW297762  13.005  13.248   2.988
98644SOL     OW97763   1.547   1.811   4.951
98644SOL    HW197764   1.563   1.785   4.860
98644SOL    HW297765   1.488   1.743   4.985
98645SOL     OW97766   4.303   6.023  13.933
98645SOL    HW197767   4.246   6.078  13.878
98645SOL    HW297768   4.389   6.065  13.929
98646SOL     OW97769   1.720   0.503   2.180
98646SOL    HW197770   1.781   0.569   2.146
98646SOL    HW297771   1.669   0.476   2.103
98647SOL     OW97772  14.691   2.699  13.495
98647SOL    HW197773  14.763   2.636  13.489
98647SOL    HW297774  14.631   2.660  13.558
98648SOL     OW97775   7.425   3.060  10.846
98648SOL    HW197776   7.501   3.116  10.862
98648SOL    HW297777   7.453   2.973  10.875
98649SOL     OW97778   2.186  10.039   4.379
98649SOL    HW197779   2.150   9.977   4.315
98649SOL    HW297780   2.257  10.083   4.333
98650SOL     OW97781   6.299  12.141   5.555
98650SOL    HW197782   6.256  12.194   5.488
98650SOL    HW297783   6.284  12.051   5.527
98651SOL     OW97784   1.607  14.357   2.910
98651SOL    HW197785   1.629  14.443   2.873
98651SOL    HW297786   1.535  14.375   2.970
98652SOL     OW97787  11.480   1.899  14.505
98652SOL    HW197788  11.535   1.963  14.461
98652SOL    HW297789  11.437   1.850  14.434
98653SOL     OW97790  11.446   7.436   3.047
98653SOL    HW197791  11.427   7.455   2.955
98653SOL    HW297792  11.506   7.361   3.044
98654SOL     OW97793   5.982   9.555   6.081
98654SOL    HW197794   6.054   9.500   6.052
98654SOL    HW297795   6.012   9.645   6.064
98655SOL     OW97796   8.668   9.465  13.034
98655SOL    HW197797   8.689   9.401  12.966
98655SOL    HW297798   8.725   9.540  13.015
98656SOL     OW97799  11.050   8.649   5.822
98656SOL    HW197800  11.020   8.597   5.896
98656SOL    HW297801  10.999   8.618   5.747
98657SOL     OW97802   5.812  13.036   8.093
98657SOL    HW197803   5.851  12.963   8.141
98657SOL    HW297804   5.779  13.095   8.162
98658SOL     OW97805  13.448  13.864   7.243
98658SOL    HW197806  13.519  13.800   7.249
98658SOL    HW297807  13.470  13.931   7.308
98659SOL     OW97808   3.554   0.128   5.089
98659SOL    HW197809   3.461   0.146   5.075
98659SOL    HW297810   3.599   0.174   5.018
98660SOL     OW97811  10.856   2.818  10.762
98660SOL    HW197812  10.925   2.866  10.809
98660SOL    HW297813  10.775   2.844  10.805
98661SOL     OW97814  10.951   4.755   2.122
98661SOL    HW197815  10.949   4.837   2.072
98661SOL    HW297816  10.988   4.779   2.206
98662SOL     OW97817  13.949  11.756  13.006
98662SOL    HW197818  13.884  11.819  12.975
98662SOL    HW297819  13.926  11.742  13.098
98663SOL     OW97820   6.804  12.806   3.622
98663SOL    HW197821   6.714  12.777   3.632
98663SOL    HW297822   6.845  12.789   3.706
98664SOL     OW97823  13.122   7.035  13.804
98664SOL    HW197824  13.193   6.982  13.838
98664SOL    HW297825  13.119   7.112  13.861
98665SOL     OW97826  11.937  10.953   9.103
98665SOL    HW197827  11.932  11.047   9.120
98665SOL    HW297828  12.015  10.942   9.049
98666SOL     OW97829   0.120  10.996   4.897
98666SOL    HW197830   0.120  10.901   4.896
98666SOL    HW297831   0.034  11.021   4.863
98667SOL     OW97832   8.910  13.469   6.319
98667SOL    HW197833   8.846  13.421   6.373
98667SOL    HW297834   8.861  13.544   6.285
98668SOL     OW97835  14.179   7.348   4.118
98668SOL    HW197836  14.214   7.260   4.102
98668SOL    HW297837  14.178   7.389   4.032
98669SOL     OW97838   1.552   8.378   8.799
98669SOL    HW197839   1.554   8.439   8.725
98669SOL    HW297840   1.643   8.350   8.810
98670SOL     OW97841   7.563   1.454  12.078
98670SOL    HW197842   7.575   1.404  11.997
98670SOL    HW297843   7.636   1.516  12.079
98671SOL     OW97844   8.484  14.381   0.747
98671SOL    HW197845   8.537  14.356   0.823
98671SOL    HW297846   8.436  14.302   0.724
98672SOL     OW97847   3.691  13.397  13.016
98672SOL    HW197848   3.602  13.368  12.995
98672SOL    HW297849   3.746  13.322  12.994
98673SOL     OW97850   1.600  13.203   9.620
98673SOL    HW197851   1.660  13.248   9.679
98673SOL    HW297852   1.538  13.158   9.678
98674SOL     OW97853  14.607   9.890   3.018
98674SOL    HW197854  14.584   9.837   3.095
98674SOL    HW297855  14.566   9.975   3.034
98675SOL     OW97856   7.779   0.983   8.116
98675SOL    HW197857   7.869   0.975   8.149
98675SOL    HW297858   7.750   0.893   8.104
98676SOL     OW97859  13.599   5.345   4.818
98676SOL    HW197860  13.571   5.427   4.776
98676SOL    HW297861  13.571   5.354   4.909
98677SOL     OW97862   8.599   7.482   7.628
98677SOL    HW197863   8.592   7.389   7.605
98677SOL    HW297864   8.664   7.517   7.567
98678SOL     OW97865   7.061   9.025  14.312
98678SOL    HW197866   7.111   8.947  14.338
98678SOL    HW297867   7.003   9.042  14.387
98679SOL     OW97868   3.431  13.462  10.336
98679SOL    HW197869   3.364  13.415  10.286
98679SOL    HW297870   3.406  13.554  10.328
98680SOL     OW97871  11.196  10.072   7.764
98680SOL    HW197872  11.232  10.159   7.775
98680SOL    HW297873  11.246  10.034   7.692
98681SOL     OW97874   5.530  12.232   8.818
98681SOL    HW197875   5.591  12.163   8.843
98681SOL    HW297876   5.449  12.210   8.864
98682SOL     OW97877   1.095   5.291   9.751
98682SOL    HW197878   1.061   5.257   9.669
98682SOL    HW297879   1.159   5.358   9.725
98683SOL     OW97880  10.916  10.775   3.232
98683SOL    HW197881  10.964  10.728   3.164
98683SOL    HW297882  10.916  10.866   3.201
98684SOL     OW97883   0.207  13.781   2.147
98684SOL    HW197884   0.163  13.866   2.148
98684SOL    HW297885   0.288  13.797   2.097
98685SOL     OW97886   0.737   0.644  10.734
98685SOL    HW197887   0.822   0.684  10.717
98685SOL    HW297888   0.744   0.556  10.697
98686SOL     OW97889   9.840  14.389   8.384
98686SOL    HW197890   9.818  14.476   8.352
98686SOL    HW297891   9.771  14.369   8.448
98687SOL     OW97892  11.951   6.147   2.863
98687SOL    HW197893  11.871   6.105   2.833
98687SOL    HW297894  12.007   6.150   2.786
98688SOL     OW97895  14.699  12.312   7.140
98688SOL    HW197896  14.748  12.240   7.099
98688SOL    HW297897  14.624  12.326   7.081
98689SOL     OW97898   0.596   3.744   6.551
98689SOL    HW197899   0.664   3.733   6.485
98689SOL    HW297900   0.514   3.735   6.503
98690SOL     OW97901   0.983   3.631   7.128
98690SOL    HW197902   0.949   3.563   7.187
98690SOL    HW297903   1.016   3.698   7.187
98691SOL     OW97904   5.267   2.189   4.335
98691SOL    HW197905   5.229   2.171   4.248
98691SOL    HW297906   5.312   2.273   4.324
98692SOL     OW97907   5.155   8.061   6.719
98692SOL    HW197908   5.201   8.144   6.706
98692SOL    HW297909   5.143   8.055   6.814
98693SOL     OW97910  14.515   0.368   9.919
98693SOL    HW197911  14.602   0.360   9.959
98693SOL    HW297912  14.472   0.285   9.939
98694SOL     OW97913  14.829   0.763   9.640
98694SOL    HW197914   0.020   0.836   9.644
98694SOL    HW297915  14.772   0.785   9.567
98695SOL     OW97916   9.102  10.794   5.843
98695SOL    HW197917   9.128  10.880   5.810
98695SOL    HW297918   9.010  10.786   5.819
98696SOL     OW97919   2.941   7.196   0.296
98696SOL    HW197920   3.034   7.192   0.276
98696SOL    HW297921   2.929   7.131   0.365
98697SOL     OW97922   5.239  14.758  13.089
98697SOL    HW197923   5.272  14.756  12.999
98697SOL    HW297924   5.160  14.812  13.085
98698SOL     OW97925   5.320  12.431   8.470
98698SOL    HW197926   5.311  12.411   8.377
98698SOL    HW297927   5.234  12.413   8.507
98699SOL     OW97928   7.208   9.017   7.967
98699SOL    HW197929   7.198   8.974   7.882
98699SOL    HW297930   7.268   9.090   7.950
98700SOL     OW97931   0.348   1.667   7.921
98700SOL    HW197932   0.263   1.634   7.893
98700SOL    HW297933   0.361   1.747   7.870
98701SOL     OW97934   4.191   7.845   0.739
98701SOL    HW197935   4.169   7.786   0.811
98701SOL    HW297936   4.258   7.903   0.775
98702SOL     OW97937   3.900  13.610   5.482
98702SOL    HW197938   3.816  13.614   5.527
98702SOL    HW297939   3.898  13.527   5.435
98703SOL     OW97940   8.610   0.767  13.159
98703SOL    HW197941   8.578   0.787  13.071
98703SOL    HW297942   8.654   0.848  13.187
98704SOL     OW97943  10.693   3.661   4.699
98704SOL    HW197944  10.741   3.731   4.656
98704SOL    HW297945  10.657   3.701   4.778
98705SOL     OW97946   2.847   8.219   8.078
98705SOL    HW197947   2.770   8.211   8.134
98705SOL    HW297948   2.899   8.141   8.098
98706SOL     OW97949   7.602  12.622  13.842
98706SOL    HW197950   7.643  12.638  13.757
98706SOL    HW297951   7.554  12.540  13.831
98707SOL     OW97952   6.834   5.916   1.126
98707SOL    HW197953   6.822   6.010   1.116
98707SOL    HW297954   6.896   5.892   1.057
98708SOL     OW97955   9.756  11.755  10.522
98708SOL    HW197956   9.735  11.669  10.560
98708SOL    HW297957   9.673  11.787  10.488
98709SOL     OW97958   3.916   1.538   9.573
98709SOL    HW197959   3.837   1.556   9.624
98709SOL    HW297960   3.894   1.567   9.485
98710SOL     OW97961  10.745   1.109  11.737
98710SOL    HW197962  10.821   1.060  11.769
98710SOL    HW297963  10.670   1.056  11.762
98711SOL     OW97964  11.939  10.636   6.611
98711SOL    HW197965  11.988  10.612   6.690
98711SOL    HW297966  11.884  10.560   6.592
98712SOL     OW97967  12.273   6.644   0.815
98712SOL    HW197968  12.180   6.649   0.839
98712SOL    HW297969  12.286   6.715   0.753
98713SOL     OW97970   9.978   6.352  12.501
98713SOL    HW197971   9.911   6.391  12.557
98713SOL    HW297972  10.029   6.426  12.469
98714SOL     OW97973   2.546   0.141   7.602
98714SOL    HW197974   2.542   0.067   7.541
98714SOL    HW297975   2.592   0.107   7.678
98715SOL     OW97976   4.195  13.934   9.308
98715SOL    HW197977   4.212  13.881   9.386
98715SOL    HW297978   4.181  14.022   9.342
98716SOL     OW97979   0.679  13.333   0.291
98716SOL    HW197980   0.769  13.364   0.300
98716SOL    HW297981   0.635  13.402   0.242
98717SOL     OW97982  13.268  13.730  14.144
98717SOL    HW197983  13.249  13.785  14.221
98717SOL    HW297984  13.286  13.792  14.074
98718SOL     OW97985  13.807  10.738   1.825
98718SOL    HW197986  13.815  10.723   1.731
98718SOL    HW297987  13.826  10.653   1.865
98719SOL     OW97988   3.798  13.208  13.195
98719SOL    HW197989   3.852  13.204  13.274
98719SOL    HW297990   3.859  13.196  13.123
98720SOL     OW97991  13.131   5.293   9.146
98720SOL    HW197992  13.143   5.239   9.224
98720SOL    HW297993  13.070   5.244   9.092
98721SOL     OW97994  13.796  10.726   1.535
98721SOL    HW197995  13.703  10.747   1.545
98721SOL    HW297996  13.801  10.673   1.455
98722SOL     OW97997   0.289   5.773   6.053
98722SOL    HW197998   0.223   5.783   5.984
98722SOL    HW297999   0.342   5.853   6.047
98723SOL     OW98000   5.546   7.484   5.506
98723SOL    HW198001   5.570   7.393   5.522
98723SOL    HW298002   5.621   7.520   5.459
98724SOL     OW98003   4.237   6.230  11.389
98724SOL    HW198004   4.174   6.206  11.321
98724SOL    HW298005   4.221   6.167  11.459
98725SOL     OW98006   3.945   5.827  10.836
98725SOL    HW198007   3.973   5.806  10.925
98725SOL    HW298008   3.919   5.919  10.841
98726SOL     OW98009   6.593  14.640  14.170
98726SOL    HW198010   6.543  14.571  14.213
98726SOL    HW298011   6.530  14.710  14.155
98727SOL     OW98012   8.437  11.825  14.166
98727SOL    HW198013   8.395  11.741  14.185
98727SOL    HW298014   8.500  11.805  14.096
98728SOL     OW98015   8.417   7.274   6.941
98728SOL    HW198016   8.453   7.270   7.030
98728SOL    HW298017   8.490   7.307   6.888
98729SOL     OW98018   6.182   2.584   8.589
98729SOL    HW198019   6.173   2.678   8.573
98729SOL    HW298020   6.134   2.569   8.671
98730SOL     OW98021   8.767   8.861   1.845
98730SOL    HW198022   8.814   8.778   1.839
98730SOL    HW298023   8.806   8.905   1.921
98731SOL     OW98024   3.521   6.480  13.654
98731SOL    HW198025   3.519   6.564  13.699
98731SOL    HW298026   3.614   6.463  13.639
98732SOL     OW98027   5.648  13.336   4.152
98732SOL    HW198028   5.644  13.314   4.245
98732SOL    HW298029   5.635  13.431   4.150
98733SOL     OW98030   6.092   6.490   2.116
98733SOL    HW198031   6.049   6.434   2.180
98733SOL    HW298032   6.149   6.431   2.067
98734SOL     OW98033  10.351  10.027  13.202
98734SOL    HW198034  10.405   9.949  13.190
98734SOL    HW298035  10.402  10.084  13.259
98735SOL     OW98036   1.154  14.770   7.683
98735SOL    HW198037   1.207  14.815   7.748
98735SOL    HW298038   1.158  14.678   7.708
98736SOL     OW98039  11.829  14.533   0.595
98736SOL    HW198040  11.880  14.532   0.675
98736SOL    HW298041  11.894  14.534   0.524
98737SOL     OW98042   6.256   6.054   4.153
98737SOL    HW198043   6.296   6.105   4.083
98737SOL    HW298044   6.239   6.118   4.222
98738SOL     OW98045   5.168   4.860   4.361
98738SOL    HW198046   5.253   4.886   4.397
98738SOL    HW298047   5.104   4.898   4.421
98739SOL     OW98048  14.365   3.855   6.721
98739SOL    HW198049  14.354   3.948   6.702
98739SOL    HW298050  14.278   3.825   6.746
98740SOL     OW98051   1.090   0.239   6.061
98740SOL    HW198052   1.059   0.247   5.971
98740SOL    HW298053   1.030   0.177   6.102
98741SOL     OW98054   6.290   8.268   9.996
98741SOL    HW198055   6.339   8.346   9.970
98741SOL    HW298056   6.333   8.237  10.076
98742SOL     OW98057  11.827   4.756   6.325
98742SOL    HW198058  11.914   4.764   6.285
98742SOL    HW298059  11.845   4.754   6.419
98743SOL     OW98060   8.309   5.623   2.531
98743SOL    HW198061   8.345   5.614   2.443
98743SOL    HW298062   8.223   5.581   2.526
98744SOL     OW98063   4.966   6.627  11.737
98744SOL    HW198064   5.057   6.616  11.765
98744SOL    HW298065   4.951   6.721  11.741
98745SOL     OW98066   7.700  12.497   6.895
98745SOL    HW198067   7.650  12.528   6.819
98745SOL    HW298068   7.645  12.516   6.970
98746SOL     OW98069   9.176  12.324  10.091
98746SOL    HW198070   9.212  12.237  10.074
98746SOL    HW298071   9.230  12.358  10.163
98747SOL     OW98072   4.652   2.454   1.142
98747SOL    HW198073   4.611   2.531   1.182
98747SOL    HW298074   4.579   2.406   1.103
98748SOL     OW98075  12.776  13.282   9.336
98748SOL    HW198076  12.728  13.287   9.418
98748SOL    HW298077  12.846  13.219   9.352
98749SOL     OW98078   3.519  10.385   8.104
98749SOL    HW198079   3.503  10.471   8.144
98749SOL    HW298080   3.530  10.403   8.011
98750SOL     OW98081   9.159   3.945  14.829
98750SOL    HW198082   9.155   3.979  14.739
98750SOL    HW298083   9.244   3.900  14.834
98751SOL     OW98084  11.619   9.552   0.297
98751SOL    HW198085  11.566   9.490   0.347
98751SOL    HW298086  11.565   9.574   0.221
98752SOL     OW98087  12.530   3.115   9.681
98752SOL    HW198088  12.530   3.021   9.664
98752SOL    HW298089  12.515   3.122   9.775
98753SOL     OW98090   0.095   2.122   4.553
98753SOL    HW198091   0.005   2.150   4.569
98753SOL    HW298092   0.086   2.045   4.496
98754SOL     OW98093   5.215   9.225  10.868
98754SOL    HW198094   5.195   9.158  10.934
98754SOL    HW298095   5.305   9.207  10.842
98755SOL     OW98096   0.892  12.001  14.267
98755SOL    HW198097   0.977  11.963  14.286
98755SOL    HW298098   0.901  12.093  14.292
98756SOL     OW98099  10.368  13.016  11.958
98756SOL    HW198100  10.386  13.110  11.956
98756SOL    HW298101  10.427  12.979  11.892
98757SOL     OW98102  14.480   1.287  14.602
98757SOL    HW198103  14.474   1.382  14.594
98757SOL    HW298104  14.535   1.260  14.528
98758SOL     OW98105   6.163  13.756   5.658
98758SOL    HW198106   6.172  13.667   5.692
98758SOL    HW298107   6.097  13.749   5.589
98759SOL     OW98108  14.611   7.979  10.293
98759SOL    HW198109  14.648   7.905  10.343
98759SOL    HW298110  14.541   7.940  10.241
98760SOL     OW98111   4.054   3.993   2.865
98760SOL    HW198112   4.036   4.068   2.922
98760SOL    HW298113   4.074   4.031   2.780
98761SOL     OW98114   9.733  11.464   3.028
98761SOL    HW198115   9.712  11.409   3.104
98761SOL    HW298116   9.660  11.451   2.968
98762SOL     OW98117   0.725   6.572   3.831
98762SOL    HW198118   0.802   6.599   3.881
98762SOL    HW298119   0.760   6.531   3.752
98763SOL     OW98120   0.221   1.650  12.169
98763SOL    HW198121   0.149   1.695  12.125
98763SOL    HW298122   0.290   1.645  12.103
98764SOL     OW98123  12.818   4.796   9.950
98764SOL    HW198124  12.888   4.857   9.927
98764SOL    HW298125  12.808   4.805  10.044
98765SOL     OW98126  11.832   1.412   8.516
98765SOL    HW198127  11.876   1.457   8.588
98765SOL    HW298128  11.750   1.461   8.504
98766SOL     OW98129   0.478  13.363   8.517
98766SOL    HW198130   0.463  13.269   8.515
98766SOL    HW298131   0.573  13.373   8.510
98767SOL     OW98132  14.331   7.695  10.751
98767SOL    HW198133  14.296   7.780  10.778
98767SOL    HW298134  14.392   7.671  10.822
98768SOL     OW98135   4.590   5.672  14.306
98768SOL    HW198136   4.639   5.596  14.277
98768SOL    HW298137   4.564   5.652  14.396
98769SOL     OW98138   3.277  12.362  11.873
98769SOL    HW198139   3.349  12.313  11.913
98769SOL    HW298140   3.245  12.306  11.803
98770SOL     OW98141   2.509   3.393   8.548
98770SOL    HW198142   2.480   3.393   8.457
98770SOL    HW298143   2.537   3.483   8.565
98771SOL     OW98144  13.531   8.122   8.079
98771SOL    HW198145  13.550   8.216   8.083
98771SOL    HW298146  13.548   8.098   7.988
98772SOL     OW98147  13.428   1.305   9.438
98772SOL    HW198148  13.513   1.293   9.397
98772SOL    HW298149  13.366   1.310   9.365
98773SOL     OW98150   9.160   5.351   5.484
98773SOL    HW198151   9.210   5.374   5.405
98773SOL    HW298152   9.070   5.340   5.452
98774SOL     OW98153   2.531   1.932  10.405
98774SOL    HW198154   2.580   1.869  10.351
98774SOL    HW298155   2.591   2.006  10.416
98775SOL     OW98156   3.631  10.009   0.673
98775SOL    HW198157   3.605  10.074   0.608
98775SOL    HW298158   3.705   9.964   0.633
98776SOL     OW98159   7.222  14.618  13.139
98776SOL    HW198160   7.136  14.622  13.182
98776SOL    HW298161   7.285  14.631  13.210
98777SOL     OW98162  14.622  12.088   9.572
98777SOL    HW198163  14.641  12.024   9.640
98777SOL    HW298164  14.704  12.135   9.559
98778SOL     OW98165  14.124   3.358   2.898
98778SOL    HW198166  14.133   3.426   2.831
98778SOL    HW298167  14.210   3.354   2.940
98779SOL     OW98168   3.136  13.404  12.047
98779SOL    HW198169   3.162  13.493  12.069
98779SOL    HW298170   3.054  13.390  12.094
98780SOL     OW98171   8.998   5.185   2.876
98780SOL    HW198172   8.964   5.160   2.962
98780SOL    HW298173   8.982   5.109   2.820
98781SOL     OW98174  11.088  10.462   6.320
98781SOL    HW198175  11.093  10.554   6.293
98781SOL    HW298176  11.162  10.451   6.379
98782SOL     OW98177  12.082   5.015   3.547
98782SOL    HW198178  12.015   4.987   3.485
98782SOL    HW298179  12.039   5.011   3.632
98783SOL     OW98180   4.668  13.198   0.166
98783SOL    HW198181   4.656  13.108   0.134
98783SOL    HW298182   4.631  13.197   0.254
98784SOL     OW98183   8.551   0.059   5.339
98784SOL    HW198184   8.639   0.086   5.363
98784SOL    HW298185   8.494   0.123   5.382
98785SOL     OW98186   3.521   5.984   5.027
98785SOL    HW198187   3.494   5.916   5.088
98785SOL    HW298188   3.499   6.066   5.071
98786SOL     OW98189   7.152  12.043   1.656
98786SOL    HW198190   7.120  12.088   1.578
98786SOL    HW298191   7.247  12.051   1.651
98787SOL     OW98192   0.049  10.322   1.638
98787SOL    HW198193  14.845  10.354   1.686
98787SOL    HW298194   0.116  10.309   1.705
98788SOL     OW98195  12.130   1.004   1.999
98788SOL    HW198196  12.078   0.923   1.995
98788SOL    HW298197  12.137   1.031   1.907
98789SOL     OW98198  10.953   0.672   4.702
98789SOL    HW198199  10.881   0.610   4.712
98789SOL    HW298200  10.992   0.678   4.789
98790SOL     OW98201   4.444  13.961   5.926
98790SOL    HW198202   4.485  14.021   5.987
98790SOL    HW298203   4.382  14.015   5.877
98791SOL     OW98204  12.622   8.150   4.875
98791SOL    HW198205  12.601   8.227   4.822
98791SOL    HW298206  12.576   8.078   4.832
98792SOL     OW98207   2.307   3.612   8.608
98792SOL    HW198208   2.291   3.539   8.549
98792SOL    HW298209   2.331   3.570   8.691
98793SOL     OW98210   7.631  13.652   9.501
98793SOL    HW198211   7.699  13.704   9.458
98793SOL    HW298212   7.595  13.710   9.569
98794SOL     OW98213  10.839  14.781   5.808
98794SOL    HW198214  10.850  14.868   5.768
98794SOL    HW298215  10.877  14.720   5.745
98795SOL     OW98216   8.800  12.423   6.498
98795SOL    HW198217   8.870  12.398   6.438
98795SOL    HW298218   8.845  12.462   6.573
98796SOL     OW98219   2.884   6.722   4.982
98796SOL    HW198220   2.825   6.655   5.014
98796SOL    HW298221   2.838   6.805   4.997
98797SOL     OW98222   5.963  10.554   2.949
98797SOL    HW198223   6.017  10.496   2.895
98797SOL    HW298224   5.924  10.616   2.886
98798SOL     OW98225   5.821   0.130   1.627
98798SOL    HW198226   5.912   0.133   1.656
98798SOL    HW298227   5.770   0.159   1.703
98799SOL     OW98228   6.780   7.975   4.142
98799SOL    HW198229   6.836   8.052   4.134
98799SOL    HW298230   6.771   7.942   4.053
98800SOL     OW98231   2.844   1.120  13.661
98800SOL    HW198232   2.753   1.094  13.642
98800SOL    HW298233   2.848   1.125  13.756
98801SOL     OW98234  12.406   3.298  13.020
98801SOL    HW198235  12.357   3.215  13.027
98801SOL    HW298236  12.360   3.347  12.952
98802SOL     OW98237   4.268   6.380   4.539
98802SOL    HW198238   4.317   6.306   4.576
98802SOL    HW298239   4.281   6.450   4.603
98803SOL     OW98240   8.652  10.403   5.136
98803SOL    HW198241   8.557  10.408   5.153
98803SOL    HW298242   8.664  10.320   5.090
98804SOL     OW98243   3.578   6.981   4.547
98804SOL    HW198244   3.629   6.903   4.525
98804SOL    HW298245   3.634   7.029   4.608
98805SOL     OW98246  13.298  13.336   7.398
98805SOL    HW198247  13.357  13.310   7.468
98805SOL    HW298248  13.236  13.396   7.440
98806SOL     OW98249   4.628   6.974   2.078
98806SOL    HW198250   4.694   7.002   2.141
98806SOL    HW298251   4.610   7.053   2.025
98807SOL     OW98252   6.849   9.633  11.947
98807SOL    HW198253   6.904   9.660  12.020
98807SOL    HW298254   6.898   9.661  11.869
98808SOL     OW98255  10.820   6.807   8.660
98808SOL    HW198256  10.756   6.871   8.689
98808SOL    HW298257  10.768   6.732   8.630
98809SOL     OW98258  12.684  12.263   4.202
98809SOL    HW198259  12.610  12.308   4.243
98809SOL    HW298260  12.757  12.280   4.261
98810SOL     OW98261   7.195   0.711   9.715
98810SOL    HW198262   7.243   0.644   9.666
98810SOL    HW298263   7.206   0.686   9.807
98811SOL     OW98264   2.841   5.367   5.422
98811SOL    HW198265   2.793   5.368   5.505
98811SOL    HW298266   2.796   5.431   5.367
98812SOL     OW98267   7.842   3.537   5.587
98812SOL    HW198268   7.834   3.492   5.671
98812SOL    HW298269   7.860   3.628   5.610
98813SOL     OW98270  14.431  13.981   8.685
98813SOL    HW198271  14.338  13.995   8.701
98813SOL    HW298272  14.475  14.031   8.753
98814SOL     OW98273  10.326   7.080   6.607
98814SOL    HW198274  10.254   7.116   6.554
98814SOL    HW298275  10.294   7.085   6.697
98815SOL     OW98276   6.449   5.021   1.989
98815SOL    HW198277   6.451   4.929   1.960
98815SOL    HW298278   6.501   5.022   2.070
98816SOL     OW98279  10.709  12.894  13.378
98816SOL    HW198280  10.724  12.806  13.410
98816SOL    HW298281  10.741  12.893  13.288
98817SOL     OW98282   1.481  10.202   4.862
98817SOL    HW198283   1.446  10.113   4.851
98817SOL    HW298284   1.565  10.200   4.815
98818SOL     OW98285   0.791  12.412   9.869
98818SOL    HW198286   0.704  12.417   9.829
98818SOL    HW298287   0.836  12.343   9.820
98819SOL     OW98288   1.844   1.729  10.708
98819SOL    HW198289   1.913   1.719  10.774
98819SOL    HW298290   1.781   1.789  10.748
98820SOL     OW98291   3.348  12.142   3.090
98820SOL    HW198292   3.351  12.060   3.041
98820SOL    HW298293   3.420  12.134   3.153
98821SOL     OW98294   5.194   5.191   2.305
98821SOL    HW198295   5.164   5.124   2.367
98821SOL    HW298296   5.140   5.179   2.228
98822SOL     OW98297  12.439   2.481   8.059
98822SOL    HW198298  12.483   2.512   7.980
98822SOL    HW298299  12.346   2.479   8.036
98823SOL     OW98300   9.064   4.624  10.534
98823SOL    HW198301   8.998   4.575  10.484
98823SOL    HW298302   9.100   4.686  10.470
98824SOL     OW98303   5.694   1.593   0.118
98824SOL    HW198304   5.781   1.561   0.143
98824SOL    HW298305   5.651   1.613   0.201
98825SOL     OW98306   7.835   5.633   9.622
98825SOL    HW198307   7.770   5.580   9.577
98825SOL    HW298308   7.784   5.701   9.667
98826SOL     OW98309   8.995  14.563   3.423
98826SOL    HW198310   8.960  14.541   3.336
98826SOL    HW298311   9.072  14.507   3.433
98827SOL     OW98312  10.283   1.009  12.703
98827SOL    HW198313  10.330   1.000  12.786
98827SOL    HW298314  10.351   1.030  12.639
98828SOL     OW98315  11.168   1.811   8.307
98828SOL    HW198316  11.207   1.886   8.262
98828SOL    HW298317  11.080   1.840   8.330
98829SOL     OW98318   6.318   2.429   5.237
98829SOL    HW198319   6.362   2.361   5.185
98829SOL    HW298320   6.386   2.463   5.294
98830SOL     OW98321  13.110  13.889   5.427
98830SOL    HW198322  13.115  13.801   5.465
98830SOL    HW298323  13.022  13.893   5.388
98831SOL     OW98324   3.523   2.155   9.846
98831SOL    HW198325   3.471   2.234   9.831
98831SOL    HW298326   3.464   2.083   9.825
98832SOL     OW98327   9.907   7.600  13.898
98832SOL    HW198328   9.840   7.601  13.966
98832SOL    HW298329   9.898   7.684  13.853
98833SOL     OW98330  10.931   5.094   8.960
98833SOL    HW198331  10.867   5.072   9.028
98833SOL    HW298332  10.958   5.009   8.925
98834SOL     OW98333  14.570   5.361   5.757
98834SOL    HW198334  14.614   5.296   5.812
98834SOL    HW298335  14.571   5.324   5.669
98835SOL     OW98336   0.680   6.094   8.921
98835SOL    HW198337   0.703   6.181   8.955
98835SOL    HW298338   0.587   6.084   8.943
98836SOL     OW98339  14.747  13.736   0.597
98836SOL    HW198340  14.736  13.757   0.690
98836SOL    HW298341  14.658  13.737   0.562
98837SOL     OW98342   9.981   7.617   1.182
98837SOL    HW198343   9.969   7.638   1.275
98837SOL    HW298344  10.075   7.608   1.171
98838SOL     OW98345   6.025   9.810   5.966
98838SOL    HW198346   6.091   9.879   5.969
98838SOL    HW298347   5.945   9.853   5.998
98839SOL     OW98348   4.958   0.443   0.105
98839SOL    HW198349   5.049   0.421   0.123
98839SOL    HW298350   4.918   0.451   0.192
98840SOL     OW98351  10.392   8.288   8.664
98840SOL    HW198352  10.321   8.233   8.696
98840SOL    HW298353  10.379   8.373   8.707
98841SOL     OW98354  11.690   2.116   3.903
98841SOL    HW198355  11.753   2.108   3.832
98841SOL    HW298356  11.653   2.204   3.893
98842SOL     OW98357   7.369   3.732  13.997
98842SOL    HW198358   7.455   3.700  13.970
98842SOL    HW298359   7.314   3.720  13.921
98843SOL     OW98360   0.569  13.617   9.701
98843SOL    HW198361   0.542  13.612   9.793
98843SOL    HW298362   0.663  13.598   9.702
98844SOL     OW98363  12.750  10.173   1.937
98844SOL    HW198364  12.771  10.120   2.014
98844SOL    HW298365  12.811  10.246   1.940
98845SOL     OW98366  13.742   0.600   5.114
98845SOL    HW198367  13.714   0.612   5.023
98845SOL    HW298368  13.666   0.625   5.166
98846SOL     OW98369  13.263  13.061   8.873
98846SOL    HW198370  13.183  13.027   8.833
98846SOL    HW298371  13.301  13.118   8.805
98847SOL     OW98372  12.929   5.848  12.978
98847SOL    HW198373  13.005   5.890  12.938
98847SOL    HW298374  12.855   5.904  12.955
98848SOL     OW98375  12.716   0.831   7.384
98848SOL    HW198376  12.673   0.810   7.466
98848SOL    HW298377  12.810   0.823   7.403
98849SOL     OW98378   0.410  13.343   6.544
98849SOL    HW198379   0.385  13.429   6.577
98849SOL    HW298380   0.347  13.324   6.474
98850SOL     OW98381   6.101  14.227   3.002
98850SOL    HW198382   6.170  14.170   3.036
98850SOL    HW298383   6.123  14.314   3.036
98851SOL     OW98384  14.668   0.694   1.987
98851SOL    HW198385  14.659   0.607   2.026
98851SOL    HW298386  14.609   0.750   2.038
98852SOL     OW98387   1.314   8.744  14.761
98852SOL    HW198388   1.293   8.672  14.821
98852SOL    HW298389   1.281   8.822  14.805
98853SOL     OW98390  10.436   4.439  12.457
98853SOL    HW198391  10.399   4.383  12.526
98853SOL    HW298392  10.469   4.377  12.392
98854SOL     OW98393  11.500   0.595  13.805
98854SOL    HW198394  11.456   0.658  13.748
98854SOL    HW298395  11.577   0.567  13.755
98855SOL     OW98396   5.696   1.097   9.211
98855SOL    HW198397   5.742   1.179   9.228
98855SOL    HW298398   5.747   1.055   9.142
98856SOL     OW98399  11.365   3.876   7.296
98856SOL    HW198400  11.434   3.900   7.357
98856SOL    HW298401  11.319   3.957   7.278
98857SOL     OW98402   0.419   4.513   5.641
98857SOL    HW198403   0.501   4.495   5.594
98857SOL    HW298404   0.358   4.446   5.609
98858SOL     OW98405  11.739   4.840   9.164
98858SOL    HW198406  11.753   4.768   9.102
98858SOL    HW298407  11.813   4.833   9.224
98859SOL     OW98408  13.623   5.242  13.409
98859SOL    HW198409  13.598   5.154  13.380
98859SOL    HW298410  13.600   5.244  13.502
98860SOL     OW98411   8.945   2.580   8.428
98860SOL    HW198412   8.894   2.501   8.448
98860SOL    HW298413   9.005   2.553   8.358
98861SOL     OW98414  10.456  12.884   0.512
98861SOL    HW198415  10.525  12.931   0.465
98861SOL    HW298416  10.449  12.801   0.467
98862SOL     OW98417  12.781   5.892  13.365
98862SOL    HW198418  12.821   5.978  13.376
98862SOL    HW298419  12.708   5.891  13.427
98863SOL     OW98420   4.339   1.647  12.783
98863SOL    HW198421   4.319   1.695  12.864
98863SOL    HW298422   4.398   1.577  12.811
98864SOL     OW98423   1.684  12.066  10.903
98864SOL    HW198424   1.694  11.971  10.891
98864SOL    HW298425   1.648  12.075  10.991
98865SOL     OW98426   9.489   2.300   3.597
98865SOL    HW198427   9.479   2.251   3.679
98865SOL    HW298428   9.411   2.356   3.593
98866SOL     OW98429  12.300   7.662   3.304
98866SOL    HW198430  12.368   7.705   3.355
98866SOL    HW298431  12.218   7.681   3.351
98867SOL     OW98432  13.487   5.598   3.295
98867SOL    HW198433  13.486   5.685   3.335
98867SOL    HW298434  13.579   5.572   3.297
98868SOL     OW98435  13.812   8.063   9.930
98868SOL    HW198436  13.861   8.119   9.871
98868SOL    HW298437  13.873   7.992   9.952
98869SOL     OW98438  13.731   3.305   2.197
98869SOL    HW198439  13.694   3.378   2.147
98869SOL    HW298440  13.734   3.232   2.134
98870SOL     OW98441   3.121   8.988  11.401
98870SOL    HW198442   3.165   9.006  11.318
98870SOL    HW298443   3.192   8.972  11.463
98871SOL     OW98444  14.496   3.424  14.815
98871SOL    HW198445  14.453   3.345  14.848
98871SOL    HW298446  14.579   3.393  14.780
98872SOL     OW98447   8.382   1.378   5.062
98872SOL    HW198448   8.402   1.447   5.125
98872SOL    HW298449   8.415   1.411   4.978
98873SOL     OW98450   8.693   4.232   6.883
98873SOL    HW198451   8.603   4.252   6.857
98873SOL    HW298452   8.695   4.136   6.888
98874SOL     OW98453   7.596   3.489   1.046
98874SOL    HW198454   7.563   3.495   1.135
98874SOL    HW298455   7.683   3.450   1.055
98875SOL     OW98456   5.331  12.385   1.948
98875SOL    HW198457   5.403  12.333   1.984
98875SOL    HW298458   5.256  12.364   2.004
98876SOL     OW98459   7.793  14.297   0.120
98876SOL    HW198460   7.789  14.345   0.203
98876SOL    HW298461   7.779  14.363   0.053
98877SOL     OW98462   6.367  13.686   0.361
98877SOL    HW198463   6.427  13.647   0.424
98877SOL    HW298464   6.403  13.773   0.342
98878SOL     OW98465   4.507   9.641   0.721
98878SOL    HW198466   4.539   9.551   0.726
98878SOL    HW298467   4.446   9.640   0.647
98879SOL     OW98468   2.664  13.832   5.192
98879SOL    HW198469   2.596  13.856   5.254
98879SOL    HW298470   2.743  13.873   5.226
98880SOL     OW98471   0.802   3.576   1.204
98880SOL    HW198472   0.741   3.616   1.265
98880SOL    HW298473   0.779   3.612   1.119
98881SOL     OW98474  11.186  13.842  12.496
98881SOL    HW198475  11.163  13.786  12.421
98881SOL    HW298476  11.104  13.852  12.544
98882SOL     OW98477   6.318   0.207   5.132
98882SOL    HW198478   6.294   0.292   5.094
98882SOL    HW298479   6.402   0.186   5.092
98883SOL     OW98480   0.979   7.328  10.821
98883SOL    HW198481   0.888   7.340  10.795
98883SOL    HW298482   0.984   7.363  10.910
98884SOL     OW98483   4.997   0.157  11.599
98884SOL    HW198484   4.902   0.148  11.596
98884SOL    HW298485   5.024   0.104  11.674
98885SOL     OW98486   3.873   4.413   3.809
98885SOL    HW198487   3.809   4.377   3.871
98885SOL    HW298488   3.919   4.480   3.860
98886SOL     OW98489   3.008   6.819  13.424
98886SOL    HW198490   3.098   6.795  13.402
98886SOL    HW298491   2.995   6.904  13.383
98887SOL     OW98492   3.147   0.007   5.919
98887SOL    HW198493   3.186   0.088   5.953
98887SOL    HW298494   3.064   0.035   5.880
98888SOL     OW98495  11.920   0.802   3.366
98888SOL    HW198496  11.989   0.809   3.431
98888SOL    HW298497  11.861   0.875   3.386
98889SOL     OW98498   9.464  12.425   0.656
98889SOL    HW198499   9.475  12.400   0.748
98889SOL    HW298500   9.411  12.355   0.619
98890SOL     OW98501   8.236   9.698  14.248
98890SOL    HW198502   8.287   9.619  14.267
98890SOL    HW298503   8.289   9.770  14.283
98891SOL     OW98504   5.949  13.076   2.055
98891SOL    HW198505   5.893  13.025   1.997
98891SOL    HW298506   6.038  13.048   2.034
98892SOL     OW98507  11.308   7.104   6.809
98892SOL    HW198508  11.353   7.166   6.752
98892SOL    HW298509  11.225   7.087   6.765
98893SOL     OW98510   0.849   9.946   6.922
98893SOL    HW198511   0.885   9.887   6.856
98893SOL    HW298512   0.890  10.030   6.904
98894SOL     OW98513  11.866   8.987   3.921
98894SOL    HW198514  11.773   9.009   3.916
98894SOL    HW298515  11.909   9.070   3.943
98895SOL     OW98516   8.813   3.881   1.682
98895SOL    HW198517   8.866   3.912   1.609
98895SOL    HW298518   8.739   3.837   1.641
98896SOL     OW98519   7.981   3.578   4.271
98896SOL    HW198520   7.894   3.618   4.276
98896SOL    HW298521   8.038   3.637   4.319
98897SOL     OW98522  12.092   4.980  11.481
98897SOL    HW198523  12.024   4.915  11.493
98897SOL    HW298524  12.066   5.027  11.402
98898SOL     OW98525   5.012   8.768   4.829
98898SOL    HW198526   5.076   8.698   4.816
98898SOL    HW298527   5.058   8.848   4.807
98899SOL     OW98528  12.476  12.196   5.180
98899SOL    HW198529  12.558  12.173   5.137
98899SOL    HW298530  12.502  12.229   5.265
98900SOL     OW98531  14.528   8.337   9.497
98900SOL    HW198532  14.608   8.314   9.451
98900SOL    HW298533  14.521   8.272   9.567
98901SOL     OW98534   8.944   1.241   9.248
98901SOL    HW198535   8.892   1.172   9.287
98901SOL    HW298536   9.035   1.211   9.257
98902SOL     OW98537   9.656  14.861   5.725
98902SOL    HW198538   9.669   0.084   5.730
98902SOL    HW298539   9.664  14.832   5.816
98903SOL     OW98540   7.639   9.829   8.757
98903SOL    HW198541   7.673   9.871   8.837
98903SOL    HW298542   7.709   9.769   8.730
98904SOL     OW98543   6.944   4.911   7.759
98904SOL    HW198544   6.888   4.962   7.818
98904SOL    HW298545   6.952   4.964   7.680
98905SOL     OW98546  14.076   5.034   4.579
98905SOL    HW198547  14.077   4.939   4.584
98905SOL    HW298548  14.001   5.060   4.633
98906SOL     OW98549   6.874   0.500  13.334
98906SOL    HW198550   6.970   0.494  13.333
98906SOL    HW298551   6.845   0.422  13.381
98907SOL     OW98552   5.270   4.536   5.775
98907SOL    HW198553   5.215   4.614   5.784
98907SOL    HW298554   5.209   4.465   5.757
98908SOL     OW98555  12.941   0.061  12.310
98908SOL    HW198556  12.960   0.153  12.328
98908SOL    HW298557  12.945   0.054  12.214
98909SOL     OW98558   0.290   5.273   7.232
98909SOL    HW198559   0.346   5.304   7.161
98909SOL    HW298560   0.347   5.218   7.285
98910SOL     OW98561   1.868  13.183   7.814
98910SOL    HW198562   1.788  13.136   7.836
98910SOL    HW298563   1.917  13.186   7.896
98911SOL     OW98564   9.721  10.365  11.162
98911SOL    HW198565   9.708  10.452  11.198
98911SOL    HW298566   9.814  10.362  11.141
98912SOL     OW98567  14.644  12.573   4.315
98912SOL    HW198568  14.666  12.664   4.332
98912SOL    HW298569  14.576  12.552   4.379
98913SOL     OW98570  13.172   8.695   2.025
98913SOL    HW198571  13.172   8.788   2.047
98913SOL    HW298572  13.198   8.651   2.105
98914SOL     OW98573   3.930  14.683   3.864
98914SOL    HW198574   3.859  14.729   3.910
98914SOL    HW298575   3.992  14.660   3.933
98915SOL     OW98576   1.667   4.993  12.135
98915SOL    HW198577   1.731   5.011  12.066
98915SOL    HW298578   1.649   5.079  12.174
98916SOL     OW98579   2.238   3.479   5.296
98916SOL    HW198580   2.285   3.396   5.308
98916SOL    HW298581   2.307   3.542   5.276
98917SOL     OW98582   1.696   6.977   7.419
98917SOL    HW198583   1.787   7.009   7.416
98917SOL    HW298584   1.702   6.886   7.392
98918SOL     OW98585   4.630   2.071  10.425
98918SOL    HW198586   4.697   2.113  10.371
98918SOL    HW298587   4.643   2.109  10.512
98919SOL     OW98588   4.950  10.403   5.398
98919SOL    HW198589   5.015  10.421   5.331
98919SOL    HW298590   4.869  10.441   5.364
98920SOL     OW98591   6.141   6.052   0.925
98920SOL    HW198592   6.205   6.101   0.977
98920SOL    HW298593   6.096   6.119   0.873
98921SOL     OW98594   3.901   7.750   3.464
98921SOL    HW198595   3.946   7.813   3.407
98921SOL    HW298596   3.880   7.799   3.543
98922SOL     OW98597  10.112   2.283   6.086
98922SOL    HW198598  10.028   2.238   6.090
98922SOL    HW298599  10.158   2.256   6.165
98923SOL     OW98600   4.724  14.809   1.568
98923SOL    HW198601   4.667  14.744   1.526
98923SOL    HW298602   4.668  14.850   1.635
98924SOL     OW98603   4.020  14.525   8.489
98924SOL    HW198604   4.054  14.441   8.459
98924SOL    HW298605   4.019  14.579   8.410
98925SOL     OW98606   2.890   8.804   7.915
98925SOL    HW198607   2.983   8.784   7.901
98925SOL    HW298608   2.880   8.893   7.880
98926SOL     OW98609  10.142   9.094   4.564
98926SOL    HW198610  10.060   9.052   4.592
98926SOL    HW298611  10.207   9.023   4.568
98927SOL     OW98612   8.412   1.941  12.444
98927SOL    HW198613   8.503   1.918  12.462
98927SOL    HW298614   8.369   1.938  12.530
98928SOL     OW98615   7.875  12.262  14.153
98928SOL    HW198616   7.902  12.186  14.204
98928SOL    HW298617   7.953  12.285  14.102
98929SOL     OW98618   3.651   9.560  10.795
98929SOL    HW198619   3.727   9.594  10.747
98929SOL    HW298620   3.683   9.543  10.883
98930SOL     OW98621   8.012  14.017   4.214
98930SOL    HW198622   7.969  14.071   4.280
98930SOL    HW298623   7.963  13.935   4.214
98931SOL     OW98624   5.730   6.514   8.306
98931SOL    HW198625   5.725   6.419   8.314
98931SOL    HW298626   5.809   6.538   8.353
98932SOL     OW98627  12.592  14.868  14.833
98932SOL    HW198628  12.654  14.824   0.019
98932SOL    HW298629  12.613  14.836  14.746
98933SOL     OW98630  13.772   8.067   0.825
98933SOL    HW198631  13.752   8.153   0.863
98933SOL    HW298632  13.824   8.087   0.747
98934SOL     OW98633   3.971  12.647  12.501
98934SOL    HW198634   3.981  12.604  12.586
98934SOL    HW298635   4.055  12.689  12.485
98935SOL     OW98636  11.132  11.251  14.711
98935SOL    HW198637  11.037  11.253  14.720
98935SOL    HW298638  11.162  11.335  14.747
98936SOL     OW98639  10.925   0.834   7.349
98936SOL    HW198640  10.952   0.879   7.269
98936SOL    HW298641  10.941   0.898   7.419
98937SOL     OW98642   8.476   1.724  13.582
98937SOL    HW198643   8.510   1.728  13.671
98937SOL    HW298644   8.541   1.771  13.530
98938SOL     OW98645  11.253  10.523   2.555
98938SOL    HW198646  11.248  10.566   2.640
98938SOL    HW298647  11.202  10.579   2.496
98939SOL     OW98648   0.615   4.872  10.614
98939SOL    HW198649   0.612   4.780  10.588
98939SOL    HW298650   0.684   4.910  10.559
98940SOL     OW98651   1.039   5.412   2.260
98940SOL    HW198652   0.971   5.385   2.199
98940SOL    HW298653   1.076   5.492   2.223
98941SOL     OW98654   1.178   6.725   9.801
98941SOL    HW198655   1.209   6.657   9.741
98941SOL    HW298656   1.228   6.712   9.881
98942SOL     OW98657  12.101   0.172   6.130
98942SOL    HW198658  12.017   0.213   6.148
98942SOL    HW298659  12.090   0.132   6.043
98943SOL     OW98660   6.483   6.930   3.538
98943SOL    HW198661   6.436   6.854   3.504
98943SOL    HW298662   6.547   6.892   3.599
98944SOL     OW98663   9.999   5.083  13.266
98944SOL    HW198664  10.033   4.994  13.273
98944SOL    HW298665   9.963   5.088  13.177
98945SOL     OW98666   9.938   4.766  10.300
98945SOL    HW198667   9.989   4.845  10.283
98945SOL    HW298668   9.885   4.788  10.377
98946SOL     OW98669   7.615  11.318  14.094
98946SOL    HW198670   7.546  11.335  14.031
98946SOL    HW298671   7.603  11.227  14.121
98947SOL     OW98672   3.657   6.543   1.826
98947SOL    HW198673   3.610   6.463   1.801
98947SOL    HW298674   3.655   6.544   1.922
98948SOL     OW98675   2.663   1.046   0.261
98948SOL    HW198676   2.637   0.963   0.224
98948SOL    HW298677   2.607   1.058   0.338
98949SOL     OW98678   5.343  14.479   4.551
98949SOL    HW198679   5.275  14.517   4.606
98949SOL    HW298680   5.361  14.546   4.485
98950SOL     OW98681  10.443  10.275  10.915
98950SOL    HW198682  10.530  10.294  10.879
98950SOL    HW298683  10.384  10.330  10.863
98951SOL     OW98684  11.779   2.967   7.280
98951SOL    HW198685  11.786   3.052   7.324
98951SOL    HW298686  11.764   2.905   7.351
98952SOL     OW98687  11.606   8.670   1.221
98952SOL    HW198688  11.653   8.734   1.275
98952SOL    HW298689  11.583   8.718   1.142
98953SOL     OW98690   7.672  14.616   7.340
98953SOL    HW198691   7.753  14.646   7.381
98953SOL    HW298692   7.691  14.614   7.246
98954SOL     OW98693   1.969  12.761   9.110
98954SOL    HW198694   1.915  12.683   9.101
98954SOL    HW298695   1.910  12.827   9.147
98955SOL     OW98696   7.364  12.201  12.054
98955SOL    HW198697   7.417  12.158  11.986
98955SOL    HW298698   7.373  12.145  12.131
98956SOL     OW98699  10.636   1.749   6.631
98956SOL    HW198700  10.644   1.801   6.552
98956SOL    HW298701  10.549   1.771   6.665
98957SOL     OW98702   9.752   3.369   4.662
98957SOL    HW198703   9.817   3.420   4.709
98957SOL    HW298704   9.708   3.432   4.605
98958SOL     OW98705   6.573  10.071   7.095
98958SOL    HW198706   6.582  10.127   7.172
98958SOL    HW298707   6.648  10.094   7.039
98959SOL     OW98708   2.154   0.173  13.082
98959SOL    HW198709   2.218   0.244  13.094
98959SOL    HW298710   2.105   0.171  13.164
98960SOL     OW98711  14.395   1.233  10.362
98960SOL    HW198712  14.395   1.142  10.332
98960SOL    HW298713  14.307   1.248  10.396
98961SOL     OW98714   8.876  13.879  11.215
98961SOL    HW198715   8.843  13.879  11.304
98961SOL    HW298716   8.801  13.854  11.161
98962SOL     OW98717   5.708   8.108  12.046
98962SOL    HW198718   5.711   8.169  11.973
98962SOL    HW298719   5.793   8.118  12.089
98963SOL     OW98720  10.861  12.629   6.354
98963SOL    HW198721  10.935  12.594   6.404
98963SOL    HW298722  10.842  12.713   6.396
98964SOL     OW98723  11.026   5.606   8.786
98964SOL    HW198724  11.064   5.552   8.717
98964SOL    HW298725  11.057   5.694   8.768
98965SOL     OW98726  11.150   9.070   6.828
98965SOL    HW198727  11.211   9.126   6.876
98965SOL    HW298728  11.202   9.029   6.760
98966SOL     OW98729  14.169   0.884  10.901
98966SOL    HW198730  14.236   0.894  10.969
98966SOL    HW298731  14.110   0.958  10.916
98967SOL     OW98732   7.230  12.097  14.598
98967SOL    HW198733   7.250  12.156  14.525
98967SOL    HW298734   7.235  12.009  14.559
98968SOL     OW98735   9.596   2.616  11.057
98968SOL    HW198736   9.523   2.589  11.113
98968SOL    HW298737   9.627   2.698  11.096
98969SOL     OW98738   7.190   1.393   4.084
98969SOL    HW198739   7.136   1.430   4.014
98969SOL    HW298740   7.135   1.325   4.123
98970SOL     OW98741   3.971  13.625   6.995
98970SOL    HW198742   3.883  13.638   6.959
98970SOL    HW298743   3.961  13.551   7.055
98971SOL     OW98744   8.627   2.288  12.612
98971SOL    HW198745   8.671   2.357  12.662
98971SOL    HW298746   8.539   2.284  12.649
98972SOL     OW98747  10.695   8.541   1.860
98972SOL    HW198748  10.711   8.533   1.954
98972SOL    HW298749  10.773   8.585   1.825
98973SOL     OW98750  11.978   6.353   0.520
98973SOL    HW198751  11.954   6.275   0.469
98973SOL    HW298752  12.073   6.360   0.509
98974SOL     OW98753  10.689   0.860  10.893
98974SOL    HW198754  10.683   0.955  10.905
98974SOL    HW298755  10.757   0.848  10.828
98975SOL     OW98756   1.483  14.657  13.459
98975SOL    HW198757   1.501  14.737  13.409
98975SOL    HW298758   1.469  14.590  13.392
98976SOL     OW98759  13.830   1.947  11.374
98976SOL    HW198760  13.925   1.952  11.368
98976SOL    HW298761  13.803   2.031  11.410
98977SOL     OW98762   4.875   0.583  11.246
98977SOL    HW198763   4.815   0.519  11.206
98977SOL    HW298764   4.950   0.531  11.275
98978SOL     OW98765   9.158   3.668  11.445
98978SOL    HW198766   9.113   3.679  11.529
98978SOL    HW298767   9.172   3.758  11.415
98979SOL     OW98768   8.044  14.529  13.157
98979SOL    HW198769   8.012  14.468  13.091
98979SOL    HW298770   8.139  14.520  13.152
98980SOL     OW98771   9.127   6.396   6.930
98980SOL    HW198772   9.100   6.483   6.900
98980SOL    HW298773   9.202   6.413   6.987
98981SOL     OW98774  13.260   8.107   7.962
98981SOL    HW198775  13.304   8.125   8.045
98981SOL    HW298776  13.167   8.122   7.980
98982SOL     OW98777   4.241   3.697   6.507
98982SOL    HW198778   4.229   3.679   6.601
98982SOL    HW298779   4.253   3.611   6.467
98983SOL     OW98780  10.210   3.578   8.896
98983SOL    HW198781  10.157   3.534   8.829
98983SOL    HW298782  10.160   3.656   8.920
98984SOL     OW98783  13.879   5.179   3.350
98984SOL    HW198784  13.829   5.211   3.426
98984SOL    HW298785  13.970   5.197   3.372
98985SOL     OW98786   7.846  14.173   9.350
98985SOL    HW198787   7.884  14.151   9.435
98985SOL    HW298788   7.880  14.106   9.291
98986SOL     OW98789   9.751   5.845   8.291
98986SOL    HW198790   9.823   5.824   8.350
98986SOL    HW298791   9.694   5.904   8.341
98987SOL     OW98792   5.077   6.277   9.236
98987SOL    HW198793   5.059   6.223   9.313
98987SOL    HW298794   4.997   6.272   9.184
98988SOL     OW98795   5.078   8.810   5.709
98988SOL    HW198796   5.036   8.896   5.706
98988SOL    HW298797   5.053   8.774   5.795
98989SOL     OW98798   2.580  10.996  12.819
98989SOL    HW198799   2.595  10.907  12.786
98989SOL    HW298800   2.539  10.983  12.905
98990SOL     OW98801  12.652  13.756  12.819
98990SOL    HW198802  12.560  13.770  12.798
98990SOL    HW298803  12.690  13.843  12.822
98991SOL     OW98804   0.072   0.696   8.347
98991SOL    HW198805   0.099   0.781   8.380
98991SOL    HW298806   0.118   0.687   8.263
98992SOL     OW98807  14.336   6.651   4.581
98992SOL    HW198808  14.404   6.718   4.587
98992SOL    HW298809  14.384   6.568   4.591
98993SOL     OW98810   5.579   0.384  11.796
98993SOL    HW198811   5.503   0.414  11.844
98993SOL    HW298812   5.615   0.463  11.755
98994SOL     OW98813   4.415   0.311  13.364
98994SOL    HW198814   4.509   0.317  13.349
98994SOL    HW298815   4.408   0.287  13.457
98995SOL     OW98816   1.633  10.636   7.547
98995SOL    HW198817   1.615  10.673   7.634
98995SOL    HW298818   1.623  10.542   7.558
98996SOL     OW98819   7.894   8.821  10.583
98996SOL    HW198820   7.931   8.895  10.632
98996SOL    HW298821   7.951   8.747  10.604
98997SOL     OW98822   4.843   9.700   0.584
98997SOL    HW198823   4.847   9.794   0.601
98997SOL    HW298824   4.928   9.667   0.614
98998SOL     OW98825   2.090  10.611   2.587
98998SOL    HW198826   2.168  10.564   2.558
98998SOL    HW298827   2.119  10.658   2.666
98999SOL     OW98828   4.990   4.333   3.368
98999SOL    HW198829   4.951   4.248   3.346
98999SOL    HW298830   4.932   4.397   3.327
99000SOL     OW98831   9.949  14.257  10.462
99000SOL    HW198832   9.929  14.334  10.409
99000SOL    HW298833   9.865  14.213  10.474
99001SOL     OW98834  12.573   7.331   0.345
99001SOL    HW198835  12.586   7.272   0.419
99001SOL    HW298836  12.625   7.293   0.275
99002SOL     OW98837   0.116  10.947   2.280
99002SOL    HW198838   0.210  10.937   2.265
99002SOL    HW298839   0.102  10.914   2.369
99003SOL     OW98840   9.589   1.544  12.108
99003SOL    HW198841   9.540   1.485  12.165
99003SOL    HW298842   9.622   1.487  12.038
99004SOL     OW98843   3.327   8.693   9.076
99004SOL    HW198844   3.313   8.727   9.165
99004SOL    HW298845   3.282   8.609   9.075
99005SOL     OW98846   8.989   6.444   3.658
99005SOL    HW198847   8.949   6.369   3.702
99005SOL    HW298848   9.072   6.456   3.704
99006SOL     OW98849   0.795  11.754  14.774
99006SOL    HW198850   0.869  11.731  14.718
99006SOL    HW298851   0.721  11.705  14.738
99007SOL     OW98852  12.084   5.696   5.642
99007SOL    HW198853  12.058   5.630   5.706
99007SOL    HW298854  12.144   5.753   5.689
99008SOL     OW98855  12.677   1.369   7.312
99008SOL    HW198856  12.641   1.280   7.317
99008SOL    HW298857  12.618   1.414   7.252
99009SOL     OW98858   2.016   4.396   6.461
99009SOL    HW198859   1.979   4.346   6.534
99009SOL    HW298860   2.103   4.422   6.491
99010SOL     OW98861  13.965   0.566   2.297
99010SOL    HW198862  13.910   0.507   2.348
99010SOL    HW298863  14.052   0.556   2.336
99011SOL     OW98864   5.644  13.355   7.299
99011SOL    HW198865   5.551  13.354   7.274
99011SOL    HW298866   5.658  13.269   7.340
99012SOL     OW98867  11.347   5.260   4.253
99012SOL    HW198868  11.330   5.180   4.203
99012SOL    HW298869  11.346   5.330   4.188
99013SOL     OW98870   9.231  11.154  10.724
99013SOL    HW198871   9.291  11.129  10.654
99013SOL    HW298872   9.263  11.240  10.753
99014SOL     OW98873   1.098   6.957   7.662
99014SOL    HW198874   1.118   6.921   7.748
99014SOL    HW298875   1.158   6.913   7.602
99015SOL     OW98876  10.877   9.554  14.213
99015SOL    HW198877  10.946   9.614  14.185
99015SOL    HW298878  10.891   9.542  14.307
99016SOL     OW98879   8.485   4.089  13.629
99016SOL    HW198880   8.395   4.057  13.631
99016SOL    HW298881   8.514   4.085  13.720
99017SOL     OW98882   6.692   8.972   3.707
99017SOL    HW198883   6.635   8.939   3.638
99017SOL    HW298884   6.652   8.939   3.788
99018SOL     OW98885   2.949   3.474   4.691
99018SOL    HW198886   2.890   3.513   4.755
99018SOL    HW298887   2.913   3.387   4.675
99019SOL     OW98888   7.727   0.706   1.675
99019SOL    HW198889   7.756   0.690   1.765
99019SOL    HW298890   7.737   0.800   1.663
99020SOL     OW98891   7.960   8.985  12.883
99020SOL    HW198892   7.881   8.952  12.926
99020SOL    HW298893   7.943   8.971  12.790
99021SOL     OW98894   7.835  10.567  11.385
99021SOL    HW198895   7.923  10.600  11.404
99021SOL    HW298896   7.850  10.481  11.345
99022SOL     OW98897  12.924  14.097  14.217
99022SOL    HW198898  12.931  14.169  14.279
99022SOL    HW298899  12.931  14.138  14.131
99023SOL     OW98900  13.277  13.777  14.638
99023SOL    HW198901  13.351  13.729  14.601
99023SOL    HW298902  13.310  13.815  14.719
99024SOL     OW98903   4.095   8.823   2.752
99024SOL    HW198904   4.181   8.795   2.784
99024SOL    HW298905   4.085   8.776   2.669
99025SOL     OW98906   9.826   9.877  14.435
99025SOL    HW198907   9.837   9.944  14.503
99025SOL    HW298908   9.827   9.794  14.482
99026SOL     OW98909   1.040   6.983   6.814
99026SOL    HW198910   0.994   7.044   6.872
99026SOL    HW298911   1.110   6.946   6.869
99027SOL     OW98912   8.255  13.704   3.152
99027SOL    HW198913   8.183  13.686   3.091
99027SOL    HW298914   8.296  13.620   3.167
99028SOL     OW98915   9.100   5.109   0.016
99028SOL    HW198916   9.046   5.173   0.062
99028SOL    HW298917   9.176   5.159  14.858
99029SOL     OW98918   9.285  11.600  12.523
99029SOL    HW198919   9.232  11.542  12.469
99029SOL    HW298920   9.336  11.651  12.460
99030SOL     OW98921   0.112   5.640   3.664
99030SOL    HW198922   0.096   5.597   3.580
99030SOL    HW298923   0.122   5.732   3.642
99031SOL     OW98924   4.314   5.711  12.028
99031SOL    HW198925   4.337   5.635  12.081
99031SOL    HW298926   4.219   5.703  12.015
99032SOL     OW98927  12.517   0.296  14.797
99032SOL    HW198928  12.566   0.215  14.785
99032SOL    HW298929  12.426   0.273  14.775
99033SOL     OW98930  10.674   5.979   8.272
99033SOL    HW198931  10.753   6.017   8.233
99033SOL    HW298932  10.656   5.902   8.218
99034SOL     OW98933   2.670  13.831  14.207
99034SOL    HW198934   2.746  13.779  14.182
99034SOL    HW298935   2.606  13.767  14.240
99035SOL     OW98936   9.708   9.271   0.842
99035SOL    HW198937   9.646   9.269   0.769
99035SOL    HW298938   9.794   9.283   0.800
99036SOL     OW98939   4.535  13.082   1.872
99036SOL    HW198940   4.493  13.031   1.803
99036SOL    HW298941   4.467  13.092   1.939
99037SOL     OW98942   0.921   1.856   5.379
99037SOL    HW198943   0.976   1.903   5.316
99037SOL    HW298944   0.836   1.850   5.336
99038SOL     OW98945   0.511   9.938  12.880
99038SOL    HW198946   0.585   9.971  12.932
99038SOL    HW298947   0.433   9.969  12.927
99039SOL     OW98948   5.107  13.388  13.184
99039SOL    HW198949   5.111  13.472  13.229
99039SOL    HW298950   5.077  13.409  13.096
99040SOL     OW98951  14.869   6.216   9.708
99040SOL    HW198952   0.043   6.290   9.747
99040SOL    HW298953   0.060   6.177   9.648
99041SOL     OW98954  14.592  10.961   5.687
99041SOL    HW198955  14.561  10.876   5.718
99041SOL    HW298956  14.621  10.945   5.597
99042SOL     OW98957   0.703   4.208   8.121
99042SOL    HW198958   0.618   4.232   8.086
99042SOL    HW298959   0.765   4.230   8.052
99043SOL     OW98960   7.928   6.050   8.943
99043SOL    HW198961   7.848   6.079   8.988
99043SOL    HW298962   7.969   5.989   9.004
99044SOL     OW98963  12.742  12.796   7.356
99044SOL    HW198964  12.677  12.828   7.294
99044SOL    HW298965  12.798  12.872   7.374
99045SOL     OW98966   6.590   8.375   2.882
99045SOL    HW198967   6.669   8.424   2.904
99045SOL    HW298968   6.522   8.442   2.871
99046SOL     OW98969   6.539  11.705   8.567
99046SOL    HW198970   6.585  11.681   8.486
99046SOL    HW298971   6.600  11.684   8.637
99047SOL     OW98972  11.588  12.464   0.337
99047SOL    HW198973  11.602  12.557   0.353
99047SOL    HW298974  11.494  12.451   0.348
99048SOL     OW98975  13.028   3.588  11.742
99048SOL    HW198976  13.090   3.553  11.679
99048SOL    HW298977  13.079   3.600  11.822
99049SOL     OW98978   2.831   5.639   5.673
99049SOL    HW198979   2.799   5.727   5.654
99049SOL    HW298980   2.761   5.599   5.725
99050SOL     OW98981   0.874   0.225   0.017
99050SOL    HW198982   0.915   0.238  14.804
99050SOL    HW298983   0.940   0.256   0.080
99051SOL     OW98984  14.613  13.483   8.714
99051SOL    HW198985  14.521  13.495   8.738
99051SOL    HW298986  14.611  13.458   8.621
99052SOL     OW98987   5.108   0.041   8.828
99052SOL    HW198988   5.147   0.050   8.741
99052SOL    HW298989   5.083  14.821   8.834
99053SOL     OW98990   0.308   1.399   7.541
99053SOL    HW198991   0.368   1.407   7.616
99053SOL    HW298992   0.241   1.337   7.571
99054SOL     OW98993   4.995  13.733   5.993
99054SOL    HW198994   4.980  13.673   5.920
99054SOL    HW298995   5.052  13.801   5.958
99055SOL     OW98996   8.934   8.347  13.771
99055SOL    HW198997   8.940   8.347  13.675
99055SOL    HW298998   8.842   8.368  13.789
99056SOL     OW98999   2.290   5.550  11.806
99056SOL    HW199000   2.302   5.645  11.815
99056SOL    HW299001   2.246   5.539  11.722
99057SOL     OW99002   8.789  10.938   1.529
99057SOL    HW199003   8.794  10.993   1.451
99057SOL    HW299004   8.725  10.983   1.585
99058SOL     OW99005   8.667   8.040  14.757
99058SOL    HW199006   8.696   7.992  14.679
99058SOL    HW299007   8.572   8.029  14.757
99059SOL     OW99008   0.689  13.454   5.197
99059SOL    HW199009   0.739  13.382   5.235
99059SOL    HW299010   0.722  13.463   5.108
99060SOL     OW99011   4.126   4.328   2.579
99060SOL    HW199012   4.067   4.260   2.546
99060SOL    HW299013   4.214   4.296   2.559
99061SOL     OW99014   2.073   5.088  13.138
99061SOL    HW199015   2.138   5.039  13.087
99061SOL    HW299016   2.112   5.097  13.225
99062SOL     OW99017  13.800   5.993  14.198
99062SOL    HW199018  13.842   5.962  14.278
99062SOL    HW299019  13.767   6.080  14.221
99063SOL     OW99020  13.108   1.291   9.646
99063SOL    HW199021  13.093   1.236   9.569
99063SOL    HW299022  13.064   1.245   9.718
99064SOL     OW99023   6.214  13.315   8.955
99064SOL    HW199024   6.226  13.310   9.050
99064SOL    HW299025   6.124  13.344   8.944
99065SOL     OW99026   5.620   6.370  13.749
99065SOL    HW199027   5.547   6.366  13.687
99065SOL    HW299028   5.689   6.417  13.702
99066SOL     OW99029  14.524   8.935   3.711
99066SOL    HW199030  14.469   8.917   3.635
99066SOL    HW299031  14.579   8.858   3.720
99067SOL     OW99032  13.935   9.828   1.722
99067SOL    HW199033  13.973   9.866   1.801
99067SOL    HW299034  13.860   9.884   1.702
99068SOL     OW99035  13.837   0.719   8.613
99068SOL    HW199036  13.868   0.765   8.535
99068SOL    HW299037  13.808   0.788   8.672
99069SOL     OW99038   0.830  12.097   4.689
99069SOL    HW199039   0.864  12.025   4.636
99069SOL    HW299040   0.735  12.083   4.690
99070SOL     OW99041   3.459  10.351   2.420
99070SOL    HW199042   3.364  10.353   2.410
99070SOL    HW299043   3.492  10.367   2.331
99071SOL     OW99044   0.057   4.227   3.569
99071SOL    HW199045   0.092   4.304   3.524
99071SOL    HW299046  14.852   4.203   3.518
99072SOL     OW99047  10.295  11.269  14.056
99072SOL    HW199048  10.354  11.195  14.072
99072SOL    HW299049  10.209  11.228  14.041
99073SOL     OW99050   6.374   0.950   7.021
99073SOL    HW199051   6.388   0.901   7.103
99073SOL    HW299052   6.399   0.889   6.952
99074SOL     OW99053  12.033   3.737   9.114
99074SOL    HW199054  11.974   3.735   9.189
99074SOL    HW299055  12.088   3.814   9.130
99075SOL     OW99056   5.115   3.656   3.357
99075SOL    HW199057   5.051   3.659   3.428
99075SOL    HW299058   5.189   3.609   3.395
99076SOL     OW99059  10.704   1.898  10.583
99076SOL    HW199060  10.631   1.943  10.540
99076SOL    HW299061  10.662   1.843  10.649
99077SOL     OW99062   1.290   6.311   0.312
99077SOL    HW199063   1.196   6.298   0.298
99077SOL    HW299064   1.331   6.237   0.268
99078SOL     OW99065   7.174  13.386   2.415
99078SOL    HW199066   7.110  13.456   2.402
99078SOL    HW299067   7.128  13.306   2.393
99079SOL     OW99068  12.995   1.073   0.148
99079SOL    HW199069  12.988   1.108   0.060
99079SOL    HW299070  13.084   1.038   0.154
99080SOL     OW99071  14.546  12.121   2.547
99080SOL    HW199072  14.468  12.075   2.579
99080SOL    HW299073  14.548  12.102   2.453
99081SOL     OW99074   7.487  14.529   3.335
99081SOL    HW199075   7.499  14.531   3.240
99081SOL    HW299076   7.576  14.518   3.369
99082SOL     OW99077   6.047  14.296   5.945
99082SOL    HW199078   5.987  14.243   5.997
99082SOL    HW299079   6.110  14.234   5.910
99083SOL     OW99080  10.827   1.260   0.172
99083SOL    HW199081  10.770   1.195   0.213
99083SOL    HW299082  10.915   1.231   0.193
99084SOL     OW99083  10.470   0.097   0.114
99084SOL    HW199084  10.456   0.090   0.020
99084SOL    HW299085  10.485   0.190   0.129
99085SOL     OW99086   6.926   7.050  13.608
99085SOL    HW199087   6.915   7.113  13.538
99085SOL    HW299088   7.020   7.052  13.628
99086SOL     OW99089   6.926   5.701   6.447
99086SOL    HW199090   6.838   5.713   6.483
99086SOL    HW299091   6.947   5.786   6.407
99087SOL     OW99092  10.510   0.393   8.657
99087SOL    HW199093  10.605   0.395   8.671
99087SOL    HW299094  10.494   0.465   8.596
99088SOL     OW99095   7.100  14.704  11.732
99088SOL    HW199096   7.183  14.694  11.685
99088SOL    HW299097   7.074  14.795  11.717
99089SOL     OW99098   5.595   6.672   6.391
99089SOL    HW199099   5.555   6.595   6.430
99089SOL    HW299100   5.589   6.657   6.296
99090SOL     OW99101  11.595   0.871   5.152
99090SOL    HW199102  11.648   0.916   5.086
99090SOL    HW299103  11.650   0.872   5.231
99091SOL     OW99104   6.439  12.908   7.974
99091SOL    HW199105   6.466  12.816   7.974
99091SOL    HW299106   6.494  12.950   7.909
99092SOL     OW99107   1.063   3.860  11.681
99092SOL    HW199108   1.105   3.811  11.610
99092SOL    HW299109   1.082   3.810  11.760
99093SOL     OW99110  10.455   6.063   1.710
99093SOL    HW199111  10.396   5.990   1.692
99093SOL    HW299112  10.458   6.112   1.628
99094SOL     OW99113   4.174   8.713   8.669
99094SOL    HW199114   4.180   8.677   8.758
99094SOL    HW299115   4.171   8.807   8.681
99095SOL     OW99116  12.107   1.026   6.389
99095SOL    HW199117  12.175   0.996   6.329
99095SOL    HW299118  12.040   0.959   6.386
99096SOL     OW99119   5.201   4.842  13.473
99096SOL    HW199120   5.247   4.788  13.536
99096SOL    HW299121   5.259   4.916  13.457
99097SOL     OW99122   1.370   7.671   4.999
99097SOL    HW199123   1.414   7.588   5.015
99097SOL    HW299124   1.293   7.648   4.947
99098SOL     OW99125   8.373   2.858   6.032
99098SOL    HW199126   8.448   2.859   6.092
99098SOL    HW299127   8.343   2.949   6.031
99099SOL     OW99128   8.369   7.803   8.581
99099SOL    HW199129   8.305   7.735   8.604
99099SOL    HW299130   8.317   7.876   8.549
99100SOL     OW99131   2.399   5.841   5.789
99100SOL    HW199132   2.412   5.855   5.883
99100SOL    HW299133   2.304   5.836   5.779
99101SOL     OW99134   7.693  11.640   1.432
99101SOL    HW199135   7.739  11.693   1.367
99101SOL    HW299136   7.743  11.653   1.513
99102SOL     OW99137   1.965  14.434   1.580
99102SOL    HW199138   2.055  14.412   1.606
99102SOL    HW299139   1.946  14.373   1.509
99103SOL     OW99140  10.053  14.790   6.846
99103SOL    HW199141   9.986  14.838   6.798
99103SOL    HW299142  10.130  14.847   6.844
99104SOL     OW99143   1.714  12.843   9.174
99104SOL    HW199144   1.649  12.775   9.158
99104SOL    HW299145   1.665  12.925   9.171
99105SOL     OW99146  14.393   1.705   7.504
99105SOL    HW199147  14.299   1.718   7.516
99105SOL    HW299148  14.417   1.766   7.434
99106SOL     OW99149   4.551   7.095   3.348
99106SOL    HW199150   4.598   7.020   3.311
99106SOL    HW299151   4.620   7.154   3.378
99107SOL     OW99152  10.950  10.556   4.770
99107SOL    HW199153  10.949  10.636   4.717
99107SOL    HW299154  10.866  10.558   4.816
99108SOL     OW99155   7.017  11.132   5.439
99108SOL    HW199156   7.053  11.173   5.361
99108SOL    HW299157   7.020  11.038   5.420
99109SOL     OW99158   4.453   0.081   2.423
99109SOL    HW199159   4.508   0.032   2.484
99109SOL    HW299160   4.475   0.047   2.337
99110SOL     OW99161  12.501   5.772   4.505
99110SOL    HW199162  12.541   5.846   4.458
99110SOL    HW299163  12.438   5.736   4.443
99111SOL     OW99164   4.218   5.571  11.467
99111SOL    HW199165   4.314   5.565  11.471
99111SOL    HW299166   4.199   5.590  11.375
99112SOL     OW99167  10.497  14.398  13.905
99112SOL    HW199168  10.462  14.344  13.833
99112SOL    HW299169  10.420  14.443  13.941
99113SOL     OW99170   4.328   7.256   3.365
99113SOL    HW199171   4.267   7.255   3.291
99113SOL    HW299172   4.383   7.179   3.351
99114SOL     OW99173   0.126  11.590   6.192
99114SOL    HW199174   0.182  11.635   6.129
99114SOL    HW299175   0.044  11.639   6.190
99115SOL     OW99176   0.968  14.831   6.498
99115SOL    HW199177   1.003   0.023   6.437
99115SOL    HW299178   0.873  14.841   6.491
99116SOL     OW99179  10.829   8.348   4.811
99116SOL    HW199180  10.920   8.346   4.838
99116SOL    HW299181  10.817   8.436   4.774
99117SOL     OW99182   9.784   8.884  10.740
99117SOL    HW199183   9.701   8.924  10.713
99117SOL    HW299184   9.848   8.955  10.734
99118SOL     OW99185  13.927   9.619   1.390
99118SOL    HW199186  13.970   9.600   1.306
99118SOL    HW299187  13.879   9.701   1.375
99119SOL     OW99188  11.557   4.367  10.602
99119SOL    HW199189  11.627   4.302  10.612
99119SOL    HW299190  11.545   4.404  10.689
99120SOL     OW99191   8.137  12.690   1.040
99120SOL    HW199192   8.042  12.693   1.031
99120SOL    HW299193   8.164  12.782   1.036
99121SOL     OW99194   4.703  13.651   9.945
99121SOL    HW199195   4.752  13.716   9.894
99121SOL    HW299196   4.665  13.701  10.018
99122SOL     OW99197  13.686   9.789   4.511
99122SOL    HW199198  13.730   9.860   4.559
99122SOL    HW299199  13.611   9.831   4.469
99123SOL     OW99200   4.145   0.659   1.799
99123SOL    HW199201   4.095   0.610   1.864
99123SOL    HW299202   4.232   0.620   1.801
99124SOL     OW99203   7.678  10.727  10.609
99124SOL    HW199204   7.585  10.728  10.630
99124SOL    HW299205   7.717  10.671  10.676
99125SOL     OW99206   1.290   3.111   7.526
99125SOL    HW199207   1.267   3.047   7.594
99125SOL    HW299208   1.380   3.137   7.546
99126SOL     OW99209   8.165   7.353   8.944
99126SOL    HW199210   8.219   7.432   8.941
99126SOL    HW299211   8.150   7.331   8.852
99127SOL     OW99212   7.078   3.039   0.586
99127SOL    HW199213   7.008   3.057   0.648
99127SOL    HW299214   7.139   2.983   0.634
99128SOL     OW99215   6.970   2.107   3.279
99128SOL    HW199216   6.923   2.054   3.343
99128SOL    HW299217   6.914   2.107   3.202
99129SOL     OW99218  12.236  11.690  11.766
99129SOL    HW199219  12.262  11.750  11.836
99129SOL    HW299220  12.233  11.604  11.808
99130SOL     OW99221   9.920   1.457  12.262
99130SOL    HW199222   9.836   1.472  12.218
99130SOL    HW299223   9.898   1.398  12.335
99131SOL     OW99224   0.558   8.718  13.725
99131SOL    HW199225   0.466   8.716  13.700
99131SOL    HW299226   0.598   8.649  13.672
99132SOL     OW99227  10.004   4.268   3.134
99132SOL    HW199228   9.950   4.287   3.211
99132SOL    HW299229   9.942   4.273   3.061
99133SOL     OW99230   8.862   1.275   8.624
99133SOL    HW199231   8.803   1.270   8.699
99133SOL    HW299232   8.867   1.368   8.604
99134SOL     OW99233   8.647   9.732   6.516
99134SOL    HW199234   8.601   9.722   6.600
99134SOL    HW299235   8.713   9.663   6.516
99135SOL     OW99236   7.002   8.392  14.545
99135SOL    HW199237   7.091   8.425  14.537
99135SOL    HW299238   6.948   8.470  14.553
99136SOL     OW99239   6.626  10.422   8.873
99136SOL    HW199240   6.602  10.382   8.789
99136SOL    HW299241   6.556  10.485   8.890
99137SOL     OW99242   0.053   8.542   1.387
99137SOL    HW199243   0.048   8.620   1.442
99137SOL    HW299244   0.101   8.478   1.439
99138SOL     OW99245  13.421   0.974   3.243
99138SOL    HW199246  13.456   1.050   3.196
99138SOL    HW299247  13.497   0.921   3.265
99139SOL     OW99248   4.699  14.519   0.269
99139SOL    HW199249   4.669  14.606   0.297
99139SOL    HW299250   4.625  14.483   0.220
99140SOL     OW99251  11.049   9.584   2.723
99140SOL    HW199252  10.957   9.576   2.747
99140SOL    HW299253  11.072   9.674   2.745
99141SOL     OW99254   8.020   5.907  12.041
99141SOL    HW199255   8.029   5.844  11.969
99141SOL    HW299256   8.096   5.964  12.033
99142SOL     OW99257   8.402  11.969   7.395
99142SOL    HW199258   8.489  12.007   7.409
99142SOL    HW299259   8.364  11.963   7.482
99143SOL     OW99260   2.437  10.373   2.043
99143SOL    HW199261   2.447  10.439   2.111
99143SOL    HW299262   2.382  10.415   1.976
99144SOL     OW99263   4.812   8.068   3.568
99144SOL    HW199264   4.732   8.027   3.602
99144SOL    HW299265   4.834   8.017   3.490
99145SOL     OW99266   2.466   1.057   0.454
99145SOL    HW199267   2.371   1.053   0.443
99145SOL    HW299268   2.482   1.029   0.544
99146SOL     OW99269   1.289   9.948  13.375
99146SOL    HW199270   1.378   9.917  13.395
99146SOL    HW299271   1.272   9.914  13.287
99147SOL     OW99272   6.191   1.108   3.829
99147SOL    HW199273   6.267   1.132   3.776
99147SOL    HW299274   6.165   1.022   3.798
99148SOL     OW99275   1.159  10.310  11.199
99148SOL    HW199276   1.141  10.263  11.118
99148SOL    HW299277   1.230  10.370  11.177
99149SOL     OW99278   0.063  13.185  10.738
99149SOL    HW199279   0.140  13.139  10.770
99149SOL    HW299280   0.010  13.117  10.696
99150SOL     OW99281   7.696   5.752   4.935
99150SOL    HW199282   7.642   5.782   5.008
99150SOL    HW299283   7.697   5.657   4.942
99151SOL     OW99284   9.709  13.943   1.074
99151SOL    HW199285   9.631  13.917   1.123
99151SOL    HW299286   9.774  13.963   1.141
99152SOL     OW99287  14.162   9.059  13.550
99152SOL    HW199288  14.242   9.019  13.515
99152SOL    HW299289  14.193   9.115  13.621
99153SOL     OW99290  12.074   7.180  14.329
99153SOL    HW199291  12.028   7.239  14.388
99153SOL    HW299292  12.034   7.196  14.243
99154SOL     OW99293   0.278  13.698   5.280
99154SOL    HW199294   0.290  13.694   5.185
99154SOL    HW299295   0.216  13.629   5.300
99155SOL     OW99296   6.712   5.572   9.012
99155SOL    HW199297   6.674   5.632   8.947
99155SOL    HW299298   6.742   5.630   9.083
99156SOL     OW99299  12.650   5.182   7.795
99156SOL    HW199300  12.630   5.270   7.828
99156SOL    HW299301  12.652   5.127   7.873
99157SOL     OW99302   1.581   1.939   7.246
99157SOL    HW199303   1.646   1.955   7.314
99157SOL    HW299304   1.631   1.929   7.166
99158SOL     OW99305   8.710   5.110   1.150
99158SOL    HW199306   8.762   5.091   1.072
99158SOL    HW299307   8.697   5.024   1.191
99159SOL     OW99308   7.236  11.221  14.124
99159SOL    HW199309   7.310  11.182  14.170
99159SOL    HW299310   7.256  11.315  14.122
99160SOL     OW99311   2.775   6.377   6.539
99160SOL    HW199312   2.844   6.433   6.502
99160SOL    HW299313   2.718   6.438   6.586
99161SOL     OW99314  14.322   5.498  12.514
99161SOL    HW199315  14.358   5.415  12.482
99161SOL    HW299316  14.371   5.516  12.594
99162SOL     OW99317  14.353   2.589  12.343
99162SOL    HW199318  14.404   2.512  12.318
99162SOL    HW299319  14.275   2.553  12.386
99163SOL     OW99320  12.984   4.935   1.292
99163SOL    HW199321  12.984   4.971   1.203
99163SOL    HW299322  13.009   4.843   1.282
99164SOL     OW99323   3.505  11.295   2.387
99164SOL    HW199324   3.461  11.282   2.471
99164SOL    HW299325   3.459  11.368   2.346
99165SOL     OW99326  14.290   9.624   2.167
99165SOL    HW199327  14.376   9.642   2.204
99165SOL    HW299328  14.229   9.672   2.222
99166SOL     OW99329   1.546  12.956   7.675
99166SOL    HW199330   1.630  12.923   7.645
99166SOL    HW299331   1.569  13.016   7.747
99167SOL     OW99332   1.364   5.075   6.164
99167SOL    HW199333   1.456   5.066   6.138
99167SOL    HW299334   1.315   5.072   6.081
99168SOL     OW99335   6.133  10.945  13.791
99168SOL    HW199336   6.180  10.869  13.757
99168SOL    HW299337   6.054  10.951  13.737
99169SOL     OW99338  14.558   0.911   1.311
99169SOL    HW199339  14.604   0.849   1.253
99169SOL    HW299340  14.607   0.908   1.393
99170SOL     OW99341  10.606  11.656  11.908
99170SOL    HW199342  10.667  11.701  11.851
99170SOL    HW299343  10.660  11.594  11.957
99171SOL     OW99344   2.144  11.965   7.581
99171SOL    HW199345   2.234  11.944   7.556
99171SOL    HW299346   2.139  12.061   7.575
99172SOL     OW99347   1.269  10.985   5.122
99172SOL    HW199348   1.300  11.009   5.209
99172SOL    HW299349   1.321  10.908   5.099
99173SOL     OW99350   6.706   4.404   3.416
99173SOL    HW199351   6.635   4.469   3.412
99173SOL    HW299352   6.663   4.322   3.440
99174SOL     OW99353   0.602   1.031  13.131
99174SOL    HW199354   0.634   1.015  13.042
99174SOL    HW299355   0.591   1.126  13.136
99175SOL     OW99356   8.593   8.384  12.541
99175SOL    HW199357   8.673   8.416  12.584
99175SOL    HW299358   8.569   8.306  12.590
99176SOL     OW99359   7.605   0.922  11.099
99176SOL    HW199360   7.596   1.017  11.109
99176SOL    HW299361   7.689   0.910  11.056
99177SOL     OW99362  12.649   7.441  10.905
99177SOL    HW199363  12.679   7.525  10.871
99177SOL    HW299364  12.554   7.449  10.910
99178SOL     OW99365   9.321  10.924  11.939
99178SOL    HW199366   9.232  10.897  11.965
99178SOL    HW299367   9.379  10.876  11.998
99179SOL     OW99368  14.594   0.827  14.128
99179SOL    HW199369  14.541   0.764  14.078
99179SOL    HW299370  14.647   0.871  14.062
99180SOL     OW99371  10.550   8.690   6.146
99180SOL    HW199372  10.584   8.618   6.093
99180SOL    HW299373  10.459   8.700   6.117
99181SOL     OW99374   0.135   7.554  10.733
99181SOL    HW199375   0.084   7.473  10.734
99181SOL    HW299376   0.117   7.593  10.648
99182SOL     OW99377  14.705   1.563   5.937
99182SOL    HW199378  14.638   1.535   6.000
99182SOL    HW299379  14.786   1.523   5.968
99183SOL     OW99380   9.277   1.128   3.802
99183SOL    HW199381   9.334   1.199   3.773
99183SOL    HW299382   9.189   1.164   3.797
99184SOL     OW99383   1.128  14.768   3.415
99184SOL    HW199384   1.177  14.695   3.376
99184SOL    HW299385   1.037  14.750   3.391
99185SOL     OW99386   8.374   4.250   9.295
99185SOL    HW199387   8.438   4.227   9.362
99185SOL    HW299388   8.418   4.317   9.242
99186SOL     OW99389  11.331  13.093   5.302
99186SOL    HW199390  11.356  13.151   5.374
99186SOL    HW299391  11.248  13.054   5.332
99187SOL     OW99392   5.055   5.818  14.569
99187SOL    HW199393   5.049   5.913  14.560
99187SOL    HW299394   5.148   5.800  14.578
99188SOL     OW99395   8.258   6.543  10.029
99188SOL    HW199396   8.218   6.547   9.942
99188SOL    HW299397   8.314   6.465  10.026
99189SOL     OW99398   0.284  11.784   0.648
99189SOL    HW199399   0.263  11.863   0.599
99189SOL    HW299400   0.244  11.797   0.734
99190SOL     OW99401   6.021   1.622   4.705
99190SOL    HW199402   5.985   1.679   4.773
99190SOL    HW299403   5.951   1.561   4.685
99191SOL     OW99404  14.572   9.557   6.567
99191SOL    HW199405  14.534   9.499   6.633
99191SOL    HW299406  14.533   9.528   6.484
99192SOL     OW99407  12.247  13.217   6.761
99192SOL    HW199408  12.293  13.152   6.708
99192SOL    HW299409  12.227  13.288   6.701
99193SOL     OW99410  10.834  12.949   5.112
99193SOL    HW199411  10.822  12.978   5.021
99193SOL    HW299412  10.813  13.026   5.165
99194SOL     OW99413   2.311  14.427   9.096
99194SOL    HW199414   2.379  14.410   9.161
99194SOL    HW299415   2.358  14.438   9.014
99195SOL     OW99416   1.816  13.292   2.427
99195SOL    HW199417   1.808  13.197   2.429
99195SOL    HW299418   1.741  13.322   2.375
99196SOL     OW99419   2.185   7.873   1.574
99196SOL    HW199420   2.189   7.778   1.578
99196SOL    HW299421   2.117   7.891   1.508
99197SOL     OW99422   9.137  14.059  10.741
99197SOL    HW199423   9.221  14.030  10.777
99197SOL    HW299424   9.160  14.130  10.681
99198SOL     OW99425   5.995  13.584  12.616
99198SOL    HW199426   6.030  13.527  12.547
99198SOL    HW299427   5.958  13.524  12.681
99199SOL     OW99428   3.510   7.075   8.830
99199SOL    HW199429   3.431   7.038   8.790
99199SOL    HW299430   3.505   7.168   8.811
99200SOL     OW99431  12.815  13.806   2.403
99200SOL    HW199432  12.876  13.773   2.469
99200SOL    HW299433  12.869  13.855   2.342
99201SOL     OW99434  11.813  11.138   9.525
99201SOL    HW199435  11.791  11.131   9.618
99201SOL    HW299436  11.728  11.133   9.480
99202SOL     OW99437   1.282   6.103   8.475
99202SOL    HW199438   1.344   6.096   8.548
99202SOL    HW299439   1.337   6.107   8.397
99203SOL     OW99440  10.439   1.909   5.819
99203SOL    HW199441  10.468   1.882   5.732
99203SOL    HW299442  10.515   1.897   5.875
99204SOL     OW99443  13.135  12.133   8.095
99204SOL    HW199444  13.222  12.151   8.131
99204SOL    HW299445  13.111  12.048   8.132
99205SOL     OW99446   2.693   0.944  11.501
99205SOL    HW199447   2.768   1.001  11.486
99205SOL    HW299448   2.668   0.913  11.414
99206SOL     OW99449   5.080   3.038  11.314
99206SOL    HW199450   5.174   3.052  11.304
99206SOL    HW299451   5.062   3.057  11.406
99207SOL     OW99452   2.984   0.206   2.531
99207SOL    HW199453   3.063   0.260   2.538
99207SOL    HW299454   2.974   0.190   2.437
99208SOL     OW99455   5.914   7.001  13.866
99208SOL    HW199456   5.984   7.061  13.892
99208SOL    HW299457   5.930   6.985  13.773
99209SOL     OW99458   8.976   3.330   9.010
99209SOL    HW199459   9.007   3.420   9.013
99209SOL    HW299460   8.885   3.335   9.039
99210SOL     OW99461   9.777   7.870   1.200
99210SOL    HW199462   9.720   7.885   1.124
99210SOL    HW299463   9.849   7.817   1.166
99211SOL     OW99464  10.607   7.883   1.106
99211SOL    HW199465  10.605   7.789   1.086
99211SOL    HW299466  10.692   7.912   1.072
99212SOL     OW99467   9.506   6.118   1.685
99212SOL    HW199468   9.445   6.080   1.749
99212SOL    HW299469   9.584   6.137   1.736
99213SOL     OW99470   4.001   5.851   7.660
99213SOL    HW199471   3.923   5.906   7.658
99213SOL    HW299472   4.044   5.872   7.743
99214SOL     OW99473   1.990   6.774  13.870
99214SOL    HW199474   2.058   6.716  13.837
99214SOL    HW299475   1.937   6.795  13.793
99215SOL     OW99476  13.737   2.642  13.955
99215SOL    HW199477  13.726   2.566  13.899
99215SOL    HW299478  13.786   2.610  14.031
99216SOL     OW99479  11.728  12.722  10.175
99216SOL    HW199480  11.662  12.788  10.194
99216SOL    HW299481  11.704  12.648  10.230
99217SOL     OW99482  10.925  13.825  14.618
99217SOL    HW199483  10.867  13.816  14.694
99217SOL    HW299484  11.011  13.794  14.650
99218SOL     OW99485   4.637   1.162   2.921
99218SOL    HW199486   4.673   1.251   2.923
99218SOL    HW299487   4.544   1.174   2.904
99219SOL     OW99488   5.103   7.877  10.950
99219SOL    HW199489   5.184   7.876  11.002
99219SOL    HW299490   5.130   7.847  10.863
99220SOL     OW99491   9.007   5.110   2.331
99220SOL    HW199492   8.919   5.124   2.298
99220SOL    HW299493   9.039   5.197   2.354
99221SOL     OW99494   7.046   9.150   5.010
99221SOL    HW199495   6.995   9.215   4.963
99221SOL    HW299496   7.034   9.172   5.103
99222SOL     OW99497   3.572  11.611   0.501
99222SOL    HW199498   3.495  11.656   0.538
99222SOL    HW299499   3.647  11.658   0.537
99223SOL     OW99500  13.345   7.910   2.337
99223SOL    HW199501  13.371   7.971   2.268
99223SOL    HW299502  13.251   7.922   2.345
99224SOL     OW99503   1.622   0.852  12.597
99224SOL    HW199504   1.630   0.807  12.681
99224SOL    HW299505   1.637   0.784  12.532
99225SOL     OW99506  14.242   6.595   9.976
99225SOL    HW199507  14.318   6.612  10.032
99225SOL    HW299508  14.239   6.499   9.968
99226SOL     OW99509   6.431   3.638  13.476
99226SOL    HW199510   6.485   3.645  13.397
99226SOL    HW299511   6.478   3.576  13.531
99227SOL     OW99512   4.562   9.937   0.704
99227SOL    HW199513   4.496   9.989   0.750
99227SOL    HW299514   4.567   9.855   0.752
99228SOL     OW99515   7.166   7.966  14.762
99228SOL    HW199516   7.233   8.034  14.753
99228SOL    HW299517   7.168   7.919  14.679
99229SOL     OW99518   3.269  12.590   9.201
99229SOL    HW199519   3.322  12.631   9.134
99229SOL    HW299520   3.323  12.517   9.233
99230SOL     OW99521   5.789  13.506   3.848
99230SOL    HW199522   5.742  13.589   3.844
99230SOL    HW299523   5.848  13.515   3.923
99231SOL     OW99524   0.699   4.477  12.819
99231SOL    HW199525   0.637   4.437  12.758
99231SOL    HW299526   0.671   4.445  12.905
99232SOL     OW99527  14.822  12.595  11.354
99232SOL    HW199528  14.779  12.619  11.437
99232SOL    HW299529  14.787  12.509  11.332
99233SOL     OW99530  11.721   4.679  13.332
99233SOL    HW199531  11.764   4.622  13.269
99233SOL    HW299532  11.737   4.638  13.417
99234SOL     OW99533   8.260  12.376   0.583
99234SOL    HW199534   8.253  12.403   0.675
99234SOL    HW299535   8.349  12.345   0.574
99235SOL     OW99536   6.973   1.167  14.044
99235SOL    HW199537   7.046   1.228  14.040
99235SOL    HW299538   7.014   1.081  14.053
99236SOL     OW99539   6.777  10.142   1.806
99236SOL    HW199540   6.692  10.132   1.764
99236SOL    HW299541   6.809  10.053   1.819
99237SOL     OW99542  11.873   2.466  14.644
99237SOL    HW199543  11.907   2.492  14.559
99237SOL    HW299544  11.841   2.377  14.631
99238SOL     OW99545   0.687   8.878   1.025
99238SOL    HW199546   0.723   8.808   0.971
99238SOL    HW299547   0.676   8.839   1.111
99239SOL     OW99548  10.822   0.464  12.819
99239SOL    HW199549  10.856   0.382  12.854
99239SOL    HW299550  10.832   0.456  12.724
99240SOL     OW99551   5.444   1.639   0.345
99240SOL    HW199552   5.416   1.728   0.367
99240SOL    HW299553   5.512   1.619   0.409
99241SOL     OW99554   4.939  11.662  11.429
99241SOL    HW199555   5.016  11.656  11.373
99241SOL    HW299556   4.974  11.675  11.517
99242SOL     OW99557  10.908   8.932   1.506
99242SOL    HW199558  10.914   9.027   1.501
99242SOL    HW299559  10.846   8.908   1.437
99243SOL     OW99560  10.700   2.320   3.008
99243SOL    HW199561  10.680   2.226   3.018
99243SOL    HW299562  10.721   2.330   2.915
99244SOL     OW99563   9.719   9.781   5.282
99244SOL    HW199564   9.740   9.803   5.191
99244SOL    HW299565   9.625   9.764   5.282
99245SOL     OW99566   6.284   2.368   8.434
99245SOL    HW199567   6.349   2.364   8.505
99245SOL    HW299568   6.227   2.440   8.458
99246SOL     OW99569  11.983   8.683   1.785
99246SOL    HW199570  11.921   8.639   1.728
99246SOL    HW299571  12.069   8.651   1.757
99247SOL     OW99572   4.023  10.037   8.643
99247SOL    HW199573   3.929  10.050   8.634
99247SOL    HW299574   4.062  10.092   8.576
99248SOL     OW99575  12.981   8.672   7.393
99248SOL    HW199576  13.065   8.624   7.396
99248SOL    HW299577  12.982   8.716   7.308
99249SOL     OW99578   3.827   8.988   9.916
99249SOL    HW199579   3.907   8.976   9.865
99249SOL    HW299580   3.852   8.970  10.006
99250SOL     OW99581   0.851  11.488  13.384
99250SOL    HW199582   0.876  11.422  13.449
99250SOL    HW299583   0.817  11.561  13.436
99251SOL     OW99584  10.061   2.757  14.488
99251SOL    HW199585   9.987   2.724  14.540
99251SOL    HW299586  10.049   2.718  14.401
99252SOL     OW99587  12.482   6.810  14.777
99252SOL    HW199588  12.448   6.802  14.866
99252SOL    HW299589  12.458   6.727  14.735
99253SOL     OW99590  10.758  13.055   0.924
99253SOL    HW199591  10.751  12.969   0.966
99253SOL    HW299592  10.850  13.079   0.935
99254SOL     OW99593   7.911   8.603   9.763
99254SOL    HW199594   7.891   8.629   9.852
99254SOL    HW299595   7.827   8.601   9.718
99255SOL     OW99596  14.620   1.288  11.683
99255SOL    HW199597  14.707   1.262  11.651
99255SOL    HW299598  14.626   1.383  11.694
99256SOL     OW99599  12.221  14.051   0.650
99256SOL    HW199600  12.171  14.117   0.698
99256SOL    HW299601  12.157  14.009   0.592
99257SOL     OW99602   0.226  10.120   9.240
99257SOL    HW199603   0.263  10.056   9.301
99257SOL    HW299604   0.159  10.165   9.292
99258SOL     OW99605   1.297  11.225   0.600
99258SOL    HW199606   1.248  11.160   0.551
99258SOL    HW299607   1.265  11.217   0.690
99259SOL     OW99608  14.700   9.580  10.077
99259SOL    HW199609  14.674   9.531  10.154
99259SOL    HW299610  14.624   9.635  10.056
99260SOL     OW99611  10.038  11.527   0.876
99260SOL    HW199612  10.103  11.505   0.810
99260SOL    HW299613  10.056  11.618   0.900
99261SOL     OW99614   6.635   7.326   6.046
99261SOL    HW199615   6.583   7.248   6.028
99261SOL    HW299616   6.617   7.346   6.138
99262SOL     OW99617   3.259   0.435   5.983
99262SOL    HW199618   3.306   0.352   5.987
99262SOL    HW299619   3.220   0.445   6.069
99263SOL     OW99620   2.213   0.210   5.192
99263SOL    HW199621   2.234   0.279   5.128
99263SOL    HW299622   2.198   0.133   5.138
99264SOL     OW99623  12.728   4.927   7.968
99264SOL    HW199624  12.778   4.990   8.020
99264SOL    HW299625  12.793   4.864   7.936
99265SOL     OW99626  11.983  11.209  14.601
99265SOL    HW199627  11.919  11.240  14.538
99265SOL    HW299628  11.932  11.157  14.664
99266SOL     OW99629   7.703   7.376  14.853
99266SOL    HW199630   7.678   7.288   0.010
99266SOL    HW299631   7.647   7.435   0.032
99267SOL     OW99632  11.118  10.073   6.394
99267SOL    HW199633  11.053  10.133   6.430
99267SOL    HW299634  11.094  10.064   6.302
99268SOL     OW99635   2.758   1.402   0.755
99268SOL    HW199636   2.762   1.338   0.683
99268SOL    HW299637   2.845   1.442   0.756
99269SOL     OW99638   7.247   5.999   0.446
99269SOL    HW199639   7.300   5.934   0.492
99269SOL    HW299640   7.282   6.000   0.357
99270SOL     OW99641   2.804   5.283   3.458
99270SOL    HW199642   2.882   5.264   3.405
99270SOL    HW299643   2.753   5.203   3.455
99271SOL     OW99644   9.597   9.821   4.139
99271SOL    HW199645   9.524   9.883   4.136
99271SOL    HW299646   9.646   9.847   4.217
99272SOL     OW99647   9.756  14.173  13.109
99272SOL    HW199648   9.766  14.113  13.182
99272SOL    HW299649   9.845  14.188  13.077
99273SOL     OW99650  13.267   9.212   1.576
99273SOL    HW199651  13.237   9.121   1.572
99273SOL    HW299652  13.346   9.214   1.523
99274SOL     OW99653   4.390  13.092   5.443
99274SOL    HW199654   4.372  13.080   5.536
99274SOL    HW299655   4.328  13.034   5.399
99275SOL     OW99656  14.254  10.314  11.395
99275SOL    HW199657  14.248  10.408  11.416
99275SOL    HW299658  14.331  10.307  11.338
99276SOL     OW99659   3.673   1.294   8.603
99276SOL    HW199660   3.655   1.348   8.526
99276SOL    HW299661   3.697   1.357   8.671
99277SOL     OW99662   8.315  11.284  11.037
99277SOL    HW199663   8.404  11.263  11.064
99277SOL    HW299664   8.264  11.281  11.118
99278SOL     OW99665   2.629   5.530   1.664
99278SOL    HW199666   2.724   5.534   1.673
99278SOL    HW299667   2.597   5.591   1.731
99279SOL     OW99668   2.540   3.538   4.129
99279SOL    HW199669   2.480   3.600   4.171
99279SOL    HW299670   2.577   3.587   4.056
99280SOL     OW99671   1.690  11.588   4.364
99280SOL    HW199672   1.700  11.678   4.331
99280SOL    HW299673   1.597  11.581   4.384
99281SOL     OW99674  12.585   3.106   6.421
99281SOL    HW199675  12.652   3.041   6.401
99281SOL    HW299676  12.536   3.115   6.339
99282SOL     OW99677  11.711   2.926   7.808
99282SOL    HW199678  11.671   2.845   7.840
99282SOL    HW299679  11.797   2.899   7.775
99283SOL     OW99680  14.606  11.179   5.433
99283SOL    HW199681  14.645  11.172   5.346
99283SOL    HW299682  14.532  11.119   5.432
99284SOL     OW99683   5.277   9.675   2.010
99284SOL    HW199684   5.297   9.768   2.023
99284SOL    HW299685   5.237   9.671   1.923
99285SOL     OW99686   8.973  12.539   3.456
99285SOL    HW199687   9.068  12.527   3.459
99285SOL    HW299688   8.952  12.539   3.363
99286SOL     OW99689   4.577  11.819   7.817
99286SOL    HW199690   4.662  11.783   7.793
99286SOL    HW299691   4.585  11.914   7.803
99287SOL     OW99692   7.127   8.288  12.718
99287SOL    HW199693   7.158   8.285  12.628
99287SOL    HW299694   7.205   8.272  12.771
99288SOL     OW99695   1.457   7.508  13.978
99288SOL    HW199696   1.496   7.595  13.982
99288SOL    HW299697   1.528   7.450  13.952
99289SOL     OW99698  10.650   2.232  13.004
99289SOL    HW199699  10.557   2.252  12.991
99289SOL    HW299700  10.694   2.316  12.996
99290SOL     OW99701   7.214   1.558  11.786
99290SOL    HW199702   7.133   1.518  11.817
99290SOL    HW299703   7.209   1.649  11.817
99291SOL     OW99704  13.527   1.163   4.714
99291SOL    HW199705  13.550   1.076   4.682
99291SOL    HW299706  13.612   1.205   4.730
99292SOL     OW99707  10.316   4.127   3.995
99292SOL    HW199708  10.281   4.084   4.073
99292SOL    HW299709  10.409   4.137   4.013
99293SOL     OW99710   5.194   3.361   3.622
99293SOL    HW199711   5.269   3.313   3.655
99293SOL    HW299712   5.118   3.317   3.660
99294SOL     OW99713   7.343   0.048   6.703
99294SOL    HW199714   7.339  14.837   6.656
99294SOL    HW299715   7.384   0.108   6.641
99295SOL     OW99716   3.316   2.674   3.961
99295SOL    HW199717   3.345   2.597   3.912
99295SOL    HW299718   3.240   2.645   4.010
99296SOL     OW99719  11.137   8.521   7.360
99296SOL    HW199720  11.167   8.550   7.447
99296SOL    HW299721  11.043   8.507   7.372
99297SOL     OW99722   8.973  10.543  13.897
99297SOL    HW199723   9.028  10.617  13.870
99297SOL    HW299724   9.035  10.479  13.931
99298SOL     OW99725  10.192   9.399   0.757
99298SOL    HW199726  10.147   9.483   0.765
99298SOL    HW299727  10.264   9.403   0.820
99299SOL     OW99728   7.301   4.138  13.528
99299SOL    HW199729   7.308   4.234  13.536
99299SOL    HW299730   7.212   4.124  13.497
99300SOL     OW99731  10.200  13.671   2.974
99300SOL    HW199732  10.295  13.665   2.961
99300SOL    HW299733  10.190  13.687   3.068
99301SOL     OW99734   7.259   1.253   9.210
99301SOL    HW199735   7.294   1.229   9.124
99301SOL    HW299736   7.319   1.212   9.272
99302SOL     OW99737   0.219  10.398   6.953
99302SOL    HW199738   0.192  10.306   6.954
99302SOL    HW299739   0.164  10.440   7.019
99303SOL     OW99740  12.335   2.915   4.130
99303SOL    HW199741  12.388   2.888   4.205
99303SOL    HW299742  12.314   2.833   4.085
99304SOL     OW99743  14.090   6.468   4.685
99304SOL    HW199744  14.032   6.523   4.738
99304SOL    HW299745  14.115   6.524   4.611
99305SOL     OW99746   8.577   3.363  14.658
99305SOL    HW199747   8.531   3.433  14.704
99305SOL    HW299748   8.570   3.386  14.566
99306SOL     OW99749   0.496   4.510   8.353
99306SOL    HW199750   0.592   4.506   8.351
99306SOL    HW299751   0.471   4.467   8.434
99307SOL     OW99752   5.743   7.488   5.805
99307SOL    HW199753   5.779   7.426   5.869
99307SOL    HW299754   5.719   7.565   5.858
99308SOL     OW99755   4.395   6.940   6.313
99308SOL    HW199756   4.402   6.845   6.306
99308SOL    HW299757   4.427   6.961   6.400
99309SOL     OW99758   1.590   4.525   6.245
99309SOL    HW199759   1.541   4.492   6.321
99309SOL    HW299760   1.604   4.618   6.264
99310SOL     OW99761   8.498   3.250  10.070
99310SOL    HW199762   8.517   3.164  10.107
99310SOL    HW299763   8.430   3.234  10.004
99311SOL     OW99764   9.514   5.301   0.817
99311SOL    HW199765   9.514   5.214   0.777
99311SOL    HW299766   9.601   5.310   0.855
99312SOL     OW99767   7.228   2.815   8.442
99312SOL    HW199768   7.298   2.845   8.499
99312SOL    HW299769   7.148   2.827   8.494
99313SOL     OW99770  12.268  10.405   8.908
99313SOL    HW199771  12.346  10.423   8.856
99313SOL    HW299772  12.216  10.485   8.903
99314SOL     OW99773  14.610  14.781   5.979
99314SOL    HW199774  14.579  14.691   5.974
99314SOL    HW299775  14.685  14.785   5.920
99315SOL     OW99776   6.870  12.576  12.276
99315SOL    HW199777   6.949  12.530  12.302
99315SOL    HW299778   6.800  12.536  12.328
99316SOL     OW99779   2.654   4.166  12.848
99316SOL    HW199780   2.577   4.191  12.900
99316SOL    HW299781   2.669   4.075  12.871
99317SOL     OW99782  14.028   9.248  13.000
99317SOL    HW199783  14.033   9.157  13.029
99317SOL    HW299784  14.025   9.244  12.905
99318SOL     OW99785  10.539   6.124   7.057
99318SOL    HW199786  10.543   6.072   6.977
99318SOL    HW299787  10.446   6.140   7.072
99319SOL     OW99788   6.432  10.363  11.715
99319SOL    HW199789   6.444  10.448  11.758
99319SOL    HW299790   6.461  10.377  11.625
99320SOL     OW99791  10.972  10.355   8.586
99320SOL    HW199792  11.044  10.344   8.648
99320SOL    HW299793  10.908  10.409   8.632
99321SOL     OW99794   7.995   3.006   1.111
99321SOL    HW199795   7.971   3.021   1.020
99321SOL    HW299796   7.923   2.954   1.147
99322SOL     OW99797  13.407   7.835  13.598
99322SOL    HW199798  13.407   7.753  13.648
99322SOL    HW299799  13.413   7.807  13.507
99323SOL     OW99800  10.306   1.597  12.796
99323SOL    HW199801  10.359   1.659  12.846
99323SOL    HW299802  10.245   1.560  12.861
99324SOL     OW99803   3.961   6.212   4.610
99324SOL    HW199804   3.929   6.137   4.662
99324SOL    HW299805   4.033   6.248   4.662
99325SOL     OW99806   4.182   4.483  12.923
99325SOL    HW199807   4.131   4.490  12.842
99325SOL    HW299808   4.168   4.393  12.953
99326SOL     OW99809   7.712   1.122   8.379
99326SOL    HW199810   7.740   1.073   8.301
99326SOL    HW299811   7.617   1.114   8.379
99327SOL     OW99812   9.932   9.717   6.654
99327SOL    HW199813   9.849   9.710   6.701
99327SOL    HW299814   9.911   9.765   6.574
99328SOL     OW99815   9.598   0.401   3.343
99328SOL    HW199816   9.557   0.381   3.259
99328SOL    HW299817   9.667   0.464   3.321
99329SOL     OW99818   2.019   5.851  14.477
99329SOL    HW199819   2.065   5.772  14.505
99329SOL    HW299820   1.929   5.838  14.506
99330SOL     OW99821   5.019   9.725  12.129
99330SOL    HW199822   5.098   9.756  12.086
99330SOL    HW299823   5.046   9.643  12.172
99331SOL     OW99824   9.977   6.914  13.339
99331SOL    HW199825   9.932   6.983  13.289
99331SOL    HW299826   9.980   6.839  13.279
99332SOL     OW99827   9.831  13.461   3.844
99332SOL    HW199828   9.913  13.412   3.854
99332SOL    HW299829   9.842  13.536   3.903
99333SOL     OW99830   8.406  12.797   8.972
99333SOL    HW199831   8.434  12.801   9.064
99333SOL    HW299832   8.452  12.722   8.936
99334SOL     OW99833   0.590  10.790   3.565
99334SOL    HW199834   0.616  10.869   3.612
99334SOL    HW299835   0.567  10.820   3.477
99335SOL     OW99836  14.822   6.362   5.130
99335SOL    HW199837  14.826   6.394   5.040
99335SOL    HW299838   0.001   6.425   5.181
99336SOL     OW99839   3.489   8.494   2.026
99336SOL    HW199840   3.508   8.407   2.061
99336SOL    HW299841   3.489   8.483   1.931
99337SOL     OW99842  14.173   9.599   5.538
99337SOL    HW199843  14.252   9.555   5.569
99337SOL    HW299844  14.167   9.679   5.590
99338SOL     OW99845   9.657  13.010  12.669
99338SOL    HW199846   9.728  12.968  12.621
99338SOL    HW299847   9.689  13.015  12.759
99339SOL     OW99848  13.371   4.789  13.104
99339SOL    HW199849  13.277   4.802  13.108
99339SOL    HW299850  13.391   4.787  13.011
99340SOL     OW99851   3.923   0.311  14.657
99340SOL    HW199852   3.931   0.347  14.569
99340SOL    HW299853   3.921   0.389  14.714
99341SOL     OW99854  10.077   4.035   6.964
99341SOL    HW199855  10.141   4.094   7.002
99341SOL    HW299856   9.996   4.086   6.959
99342SOL     OW99857   0.588   1.169   9.184
99342SOL    HW199858   0.516   1.106   9.192
99342SOL    HW299859   0.656   1.120   9.138
99343SOL     OW99860   6.580   6.826  13.301
99343SOL    HW199861   6.487   6.846  13.290
99343SOL    HW299862   6.604   6.780  13.221
99344SOL     OW99863  14.759  14.600  10.023
99344SOL    HW199864  14.708  14.681  10.029
99344SOL    HW299865  14.802  14.605   9.937
99345SOL     OW99866   5.586  11.000  10.794
99345SOL    HW199867   5.643  11.000  10.718
99345SOL    HW299868   5.574  10.908  10.816
99346SOL     OW99869   9.867   6.825  14.094
99346SOL    HW199870   9.935   6.855  14.034
99346SOL    HW299871   9.799   6.892  14.090
99347SOL     OW99872   3.077   8.668  12.262
99347SOL    HW199873   3.010   8.611  12.223
99347SOL    HW299874   3.027   8.740  12.301
99348SOL     OW99875   3.038  14.039  14.329
99348SOL    HW199876   3.052  14.080  14.414
99348SOL    HW299877   3.118  13.989  14.313
99349SOL     OW99878   5.675   2.150  14.661
99349SOL    HW199879   5.581   2.133  14.665
99349SOL    HW299880   5.695   2.199  14.740
99350SOL     OW99881  12.190  11.064   2.610
99350SOL    HW199882  12.116  11.003   2.608
99350SOL    HW299883  12.267  11.009   2.623
99351SOL     OW99884   2.065   1.321   5.415
99351SOL    HW199885   2.004   1.253   5.446
99351SOL    HW299886   2.034   1.401   5.458
99352SOL     OW99887  12.066   3.103   0.837
99352SOL    HW199888  12.122   3.029   0.814
99352SOL    HW299889  11.977   3.070   0.825
99353SOL     OW99890   2.966  11.967   4.915
99353SOL    HW199891   2.923  12.039   4.960
99353SOL    HW299892   2.970  11.896   4.979
99354SOL     OW99893   9.943   3.286   1.695
99354SOL    HW199894   9.967   3.313   1.783
99354SOL    HW299895   9.891   3.207   1.707
99355SOL     OW99896   4.469   5.243  10.052
99355SOL    HW199897   4.450   5.249  10.146
99355SOL    HW299898   4.558   5.277  10.043
99356SOL     OW99899  14.555   8.007  13.084
99356SOL    HW199900  14.542   7.925  13.131
99356SOL    HW299901  14.553   8.074  13.152
99357SOL     OW99902  11.315   8.928   6.284
99357SOL    HW199903  11.273   9.013   6.276
99357SOL    HW299904  11.242   8.866   6.289
99358SOL     OW99905   1.840  11.903   8.602
99358SOL    HW199906   1.844  11.816   8.562
99358SOL    HW299907   1.850  11.963   8.528
99359SOL     OW99908   9.226  14.656  12.087
99359SOL    HW199909   9.166  14.657  12.012
99359SOL    HW299910   9.198  14.731  12.140
99360SOL     OW99911   0.250   1.078   2.972
99360SOL    HW199912   0.344   1.064   2.983
99360SOL    HW299913   0.244   1.137   2.897
99361SOL     OW99914   9.687   6.949   3.694
99361SOL    HW199915   9.654   6.872   3.741
99361SOL    HW299916   9.615   7.012   3.699
99362SOL     OW99917   4.135   3.558   2.751
99362SOL    HW199918   4.075   3.628   2.776
99362SOL    HW299919   4.221   3.591   2.774
99363SOL     OW99920   1.516   6.429   9.098
99363SOL    HW199921   1.466   6.460   9.022
99363SOL    HW299922   1.608   6.445   9.074
99364SOL     OW99923   0.711   6.314   2.209
99364SOL    HW199924   0.736   6.260   2.284
99364SOL    HW299925   0.778   6.382   2.204
99365SOL     OW99926   0.444   5.363   2.300
99365SOL    HW199927   0.444   5.431   2.368
99365SOL    HW299928   0.470   5.283   2.345
99366SOL     OW99929  10.139  11.412   4.616
99366SOL    HW199930  10.169  11.321   4.610
99366SOL    HW299931  10.106  11.432   4.528
99367SOL     OW99932  13.692   7.118   0.997
99367SOL    HW199933  13.652   7.039   0.961
99367SOL    HW299934  13.684   7.109   1.091
99368SOL     OW99935   9.771   8.331   8.015
99368SOL    HW199936   9.797   8.378   8.094
99368SOL    HW299937   9.781   8.395   7.944
99369SOL     OW99938   3.254   7.884  13.041
99369SOL    HW199939   3.292   7.933  13.113
99369SOL    HW299940   3.207   7.950  12.989
99370SOL     OW99941   9.605   0.025  14.049
99370SOL    HW199942   9.521  14.871  14.086
99370SOL    HW299943   9.586   0.103  13.997
99371SOL     OW99944   7.980  12.458   7.163
99371SOL    HW199945   8.047  12.451   7.095
99371SOL    HW299946   7.949  12.368   7.174
99372SOL     OW99947  11.778   5.148  11.563
99372SOL    HW199948  11.766   5.222  11.622
99372SOL    HW299949  11.844   5.094  11.606
99373SOL     OW99950   0.869   9.392   6.544
99373SOL    HW199951   0.918   9.334   6.484
99373SOL    HW299952   0.783   9.351   6.552
99374SOL     OW99953   5.778   1.157   7.034
99374SOL    HW199954   5.871   1.140   7.020
99374SOL    HW299955   5.768   1.251   7.023
99375SOL     OW99956   7.074   4.116   8.521
99375SOL    HW199957   6.991   4.159   8.500
99375SOL    HW299958   7.118   4.176   8.580
99376SOL     OW99959  13.398   7.396   9.599
99376SOL    HW199960  13.304   7.409   9.613
99376SOL    HW299961  13.422   7.327   9.661
99377SOL     OW99962   7.878   7.432   5.795
99377SOL    HW199963   7.793   7.400   5.826
99377SOL    HW299964   7.896   7.509   5.849
99378SOL     OW99965  10.588   7.028   6.907
99378SOL    HW199966  10.558   7.092   6.842
99378SOL    HW299967  10.565   6.943   6.868
99379SOL     OW99968   7.810   3.831   5.158
99379SOL    HW199969   7.748   3.780   5.106
99379SOL    HW299970   7.811   3.918   5.116
99380SOL     OW99971   6.798   7.220   4.024
99380SOL    HW199972   6.799   7.157   4.096
99380SOL    HW299973   6.766   7.301   4.063
99381SOL     OW99974  13.127  13.047   7.548
99381SOL    HW199975  13.210  13.071   7.507
99381SOL    HW299976  13.152  12.993   7.623
99382SOL     OW99977  10.715   3.868   2.464
99382SOL    HW199978  10.665   3.849   2.544
99382SOL    HW299979  10.687   3.801   2.402
99383SOL     OW99980  14.657  14.566   3.459
99383SOL    HW199981  14.659  14.529   3.547
99383SOL    HW299982  14.600  14.643   3.467
99384SOL     OW99983   9.061   5.167   1.210
99384SOL    HW199984   9.146   5.137   1.244
99384SOL    HW299985   9.080   5.197   1.121
99385SOL     OW99986  13.944  13.798   1.671
99385SOL    HW199987  13.904  13.711   1.662
99385SOL    HW299988  13.902  13.835   1.749
99386SOL     OW99989  10.798  12.862  14.589
99386SOL    HW199990  10.892  12.876  14.597
99386SOL    HW299991  10.769  12.844  14.678
99387SOL     OW99992   9.830  12.819   4.686
99387SOL    HW199993   9.840  12.871   4.765
99387SOL    HW299994   9.756  12.860   4.640
99388SOL     OW99995   4.846  11.221  11.703
99388SOL    HW199996   4.794  11.212  11.782
99388SOL    HW299997   4.802  11.165  11.639
99389SOL     OW99998   3.918  12.161  10.629
99389SOL    HW199999   3.983  12.227  10.604
99389SOL    HW2    0   3.963  12.077  10.616
99390SOL     OW    1   5.931  10.178   8.097
99390SOL    HW1    2   5.887  10.195   8.014
99390SOL    HW2    3   5.880  10.107   8.137
99391SOL     OW    4   3.178   6.112  12.603
99391SOL    HW1    5   3.104   6.070  12.561
99391SOL    HW2    6   3.244   6.120  12.534
99392SOL     OW    7   4.216   5.450   7.153
99392SOL    HW1    8   4.183   5.537   7.176
99392SOL    HW2    9   4.197   5.441   7.060
99393SOL     OW   10  14.743   1.448   2.752
99393SOL    HW1   11  14.701   1.447   2.838
99393SOL    HW2   12  14.827   1.490   2.766
99394SOL     OW   13   6.024   7.027   6.733
99394SOL    HW1   14   6.075   6.946   6.731
99394SOL    HW2   15   6.057   7.079   6.660
99395SOL     OW   16   2.389  13.748   9.597
99395SOL    HW1   17   2.471  13.721   9.556
99395SOL    HW2   18   2.321  13.717   9.537
99396SOL     OW   19   1.115   5.910   2.969
99396SOL    HW1   20   1.120   6.000   3.000
99396SOL    HW2   21   1.048   5.869   3.024
99397SOL     OW   22   1.646   3.192   2.498
99397SOL    HW1   23   1.724   3.176   2.552
99397SOL    HW2   24   1.650   3.123   2.431
99398SOL     OW   25  10.203  13.442   1.234
99398SOL    HW1   26  10.177  13.491   1.312
99398SOL    HW2   27  10.262  13.502   1.187
99399SOL     OW   28   5.217   3.238  13.955
99399SOL    HW1   29   5.177   3.264  13.872
99399SOL    HW2   30   5.248   3.149  13.940
99400SOL     OW   31  14.654   2.446   8.237
99400SOL    HW1   32  14.629   2.354   8.228
99400SOL    HW2   33  14.748   2.444   8.255
99401SOL     OW   34   5.423  13.592  10.494
99401SOL    HW1   35   5.513  13.561  10.505
99401SOL    HW2   36   5.400  13.630  10.579
99402SOL     OW   37  11.178   4.786   2.304
99402SOL    HW1   38  11.224   4.870   2.300
99402SOL    HW2   39  11.241   4.722   2.272
99403SOL     OW   40  11.832   4.693  10.588
99403SOL    HW1   41  11.868   4.607  10.568
99403SOL    HW2   42  11.789   4.681  10.673
99404SOL     OW   43   8.140   3.120   7.651
99404SOL    HW1   44   8.137   3.039   7.600
99404SOL    HW2   45   8.061   3.167   7.625
99405SOL     OW   46   2.212   4.163   6.636
99405SOL    HW1   47   2.235   4.252   6.611
99405SOL    HW2   48   2.258   4.148   6.718
99406SOL     OW   49  11.365   7.216   7.536
99406SOL    HW1   50  11.403   7.274   7.471
99406SOL    HW2   51  11.374   7.128   7.499
99407SOL     OW   52  13.483   3.419  14.558
99407SOL    HW1   53  13.436   3.450  14.480
99407SOL    HW2   54  13.572   3.403  14.528
99408SOL     OW   55   1.219   8.722  13.092
99408SOL    HW1   56   1.206   8.686  13.004
99408SOL    HW2   57   1.304   8.766  13.087
99409SOL     OW   58   5.368   2.116   8.991
99409SOL    HW1   59   5.401   2.134   9.079
99409SOL    HW2   60   5.404   2.186   8.937
99410SOL     OW   61  13.896  12.220   6.836
99410SOL    HW1   62  13.979  12.210   6.790
99410SOL    HW2   63  13.910  12.178   6.921
99411SOL     OW   64   9.878   2.267  10.792
99411SOL    HW1   65   9.840   2.345  10.831
99411SOL    HW2   66   9.829   2.255  10.711
99412SOL     OW   67  11.950  12.422  12.273
99412SOL    HW1   68  11.939  12.470  12.190
99412SOL    HW2   69  12.044  12.427  12.291
99413SOL     OW   70  12.444  13.502   9.465
99413SOL    HW1   71  12.444  13.423   9.519
99413SOL    HW2   72  12.536  13.515   9.442
99414SOL     OW   73   3.297  10.375  11.153
99414SOL    HW1   74   3.299  10.321  11.232
99414SOL    HW2   75   3.388  10.376  11.123
99415SOL     OW   76   8.490   6.162   2.703
99415SOL    HW1   77   8.498   6.176   2.798
99415SOL    HW2   78   8.470   6.069   2.694
99416SOL     OW   79  11.813   3.099   4.064
99416SOL    HW1   80  11.747   3.081   3.996
99416SOL    HW2   81  11.891   3.126   4.016
99417SOL     OW   82   3.409  12.072  11.081
99417SOL    HW1   83   3.492  12.083  11.035
99417SOL    HW2   84   3.425  12.109  11.168
99418SOL     OW   85  10.477  14.643  12.846
99418SOL    HW1   86  10.446  14.729  12.818
99418SOL    HW2   87  10.544  14.619  12.782
99419SOL     OW   88   1.074   9.423   6.932
99419SOL    HW1   89   1.053   9.444   7.023
99419SOL    HW2   90   1.147   9.482   6.911
99420SOL     OW   91  10.937   5.674   6.867
99420SOL    HW1   92  11.032   5.680   6.854
99420SOL    HW2   93  10.925   5.689   6.960
99421SOL     OW   94  10.123  11.847   8.583
99421SOL    HW1   95  10.150  11.783   8.649
99421SOL    HW2   96  10.039  11.814   8.551
99422SOL     OW   97   3.028  10.745  10.402
99422SOL    HW1   98   3.103  10.693  10.374
99422SOL    HW2   99   3.066  10.822  10.444
99423SOL     OW  100  10.105  12.663  14.067
99423SOL    HW1  101  10.023  12.682  14.113
99423SOL    HW2  102  10.113  12.568  14.070
99424SOL     OW  103   8.207   9.885   9.923
99424SOL    HW1  104   8.117   9.914   9.933
99424SOL    HW2  105   8.224   9.891   9.829
99425SOL     OW  106  13.677  11.413  10.155
99425SOL    HW1  107  13.765  11.382  10.175
99425SOL    HW2  108  13.683  11.449  10.067
99426SOL     OW  109   2.542   5.914  13.904
99426SOL    HW1  110   2.601   5.958  13.964
99426SOL    HW2  111   2.521   5.831  13.948
99427SOL     OW  112  12.509   8.300   2.263
99427SOL    HW1  113  12.421   8.271   2.239
99427SOL    HW2  114  12.558   8.299   2.180
99428SOL     OW  115   1.051   4.646  14.220
99428SOL    HW1  116   0.991   4.648  14.294
99428SOL    HW2  117   0.995   4.625  14.145
99429SOL     OW  118   3.740   2.890   7.018
99429SOL    HW1  119   3.704   2.805   6.992
99429SOL    HW2  120   3.833   2.884   6.995
99430SOL     OW  121  12.585   8.517   7.218
99430SOL    HW1  122  12.655   8.480   7.272
99430SOL    HW2  123  12.510   8.460   7.234
99431SOL     OW  124   0.280  11.224  14.153
99431SOL    HW1  125   0.336  11.292  14.116
99431SOL    HW2  126   0.338  11.175  14.211
99432SOL     OW  127   5.086   2.290   8.615
99432SOL    HW1  128   5.020   2.323   8.675
99432SOL    HW2  129   5.092   2.197   8.633
99433SOL     OW  130   4.086  13.726   0.836
99433SOL    HW1  131   4.084  13.650   0.777
99433SOL    HW2  132   4.144  13.700   0.907
99434SOL     OW  133  11.914   1.676  11.884
99434SOL    HW1  134  11.958   1.754  11.920
99434SOL    HW2  135  11.935   1.678  11.791
99435SOL     OW  136   7.123  12.747   4.688
99435SOL    HW1  137   7.120  12.768   4.781
99435SOL    HW2  138   7.216  12.736   4.669
99436SOL     OW  139  14.355  14.865   5.995
99436SOL    HW1  140  14.318   0.025   6.078
99436SOL    HW2  141  14.446  14.842   6.017
99437SOL     OW  142   9.414   5.026  10.403
99437SOL    HW1  143   9.455   4.988  10.326
99437SOL    HW2  144   9.430   5.120  10.394
99438SOL     OW  145   6.388   5.290   5.801
99438SOL    HW1  146   6.382   5.349   5.876
99438SOL    HW2  147   6.352   5.207   5.833
99439SOL     OW  148   3.473   4.019   8.770
99439SOL    HW1  149   3.439   4.054   8.687
99439SOL    HW2  150   3.556   3.979   8.747
99440SOL     OW  151  13.541   2.590   7.800
99440SOL    HW1  152  13.462   2.543   7.827
99440SOL    HW2  153  13.517   2.633   7.719
99441SOL     OW  154   9.634   9.184   2.466
99441SOL    HW1  155   9.594   9.159   2.383
99441SOL    HW2  156   9.590   9.265   2.492
99442SOL     OW  157   9.810   8.087   7.029
99442SOL    HW1  158   9.779   8.176   7.019
99442SOL    HW2  159   9.841   8.082   7.120
99443SOL     OW  160  11.320   5.596  12.939
99443SOL    HW1  161  11.387   5.605  12.871
99443SOL    HW2  162  11.261   5.529  12.905
99444SOL     OW  163   0.484   4.514   8.668
99444SOL    HW1  164   0.486   4.578   8.739
99444SOL    HW2  165   0.453   4.433   8.708
99445SOL     OW  166   3.362  11.049   0.427
99445SOL    HW1  167   3.281  11.065   0.474
99445SOL    HW2  168   3.345  11.081   0.338
99446SOL     OW  169  14.866  13.977   1.093
99446SOL    HW1  170  14.792  13.918   1.109
99446SOL    HW2  171   0.002  14.028   1.174
99447SOL     OW  172  14.839   1.706  13.260
99447SOL    HW1  173  14.827   1.726  13.168
99447SOL    HW2  174  14.774   1.637  13.279
99448SOL     OW  175   5.970   6.644  13.357
99448SOL    HW1  176   6.047   6.587  13.358
99448SOL    HW2  177   6.000   6.725  13.316
99449SOL     OW  178   4.844  10.980   0.066
99449SOL    HW1  179   4.812  10.899   0.106
99449SOL    HW2  180   4.930  10.956   0.029
99450SOL     OW  181   9.504  11.774  11.023
99450SOL    HW1  182   9.554  11.697  11.050
99450SOL    HW2  183   9.478  11.816  11.105
99451SOL     OW  184  14.741  11.791  12.295
99451SOL    HW1  185  14.790  11.788  12.376
99451SOL    HW2  186  14.708  11.702  12.284
99452SOL     OW  187   6.860   4.511   8.820
99452SOL    HW1  188   6.839   4.541   8.732
99452SOL    HW2  189   6.943   4.553   8.841
99453SOL     OW  190   9.194  11.167  10.100
99453SOL    HW1  191   9.231  11.197  10.017
99453SOL    HW2  192   9.100  11.163  10.084
99454SOL     OW  193  10.615  13.451  13.493
99454SOL    HW1  194  10.621  13.413  13.580
99454SOL    HW2  195  10.563  13.388  13.443
99455SOL     OW  196   1.451   9.635   4.400
99455SOL    HW1  197   1.524   9.581   4.428
99455SOL    HW2  198   1.409   9.584   4.331
99456SOL     OW  199   0.891   1.204   4.071
99456SOL    HW1  200   0.875   1.111   4.051
99456SOL    HW2  201   0.984   1.217   4.053
99457SOL     OW  202   9.256   5.885   2.850
99457SOL    HW1  203   9.222   5.935   2.775
99457SOL    HW2  204   9.295   5.807   2.810
99458SOL     OW  205  13.603   0.899   0.075
99458SOL    HW1  206  13.602   0.984   0.030
99458SOL    HW2  207  13.535   0.848   0.032
99459SOL     OW  208   2.492   4.518   3.329
99459SOL    HW1  209   2.417   4.574   3.349
99459SOL    HW2  210   2.487   4.503   3.235
99460SOL     OW  211   6.610   0.472  11.534
99460SOL    HW1  212   6.690   0.525  11.536
99460SOL    HW2  213   6.639   0.385  11.562
99461SOL     OW  214   7.832  14.552  11.870
99461SOL    HW1  215   7.820  14.628  11.926
99461SOL    HW2  216   7.744  14.530  11.839
99462SOL     OW  217  10.219   3.705   4.218
99462SOL    HW1  218  10.214   3.792   4.180
99462SOL    HW2  219  10.231   3.720   4.312
99463SOL     OW  220   5.061   4.480  13.893
99463SOL    HW1  221   4.986   4.423  13.878
99463SOL    HW2  222   5.030   4.568  13.871
99464SOL     OW  223   3.613   4.597   7.341
99464SOL    HW1  224   3.568   4.630   7.264
99464SOL    HW2  225   3.544   4.579   7.404
99465SOL     OW  226   5.937   9.094  10.503
99465SOL    HW1  227   6.015   9.145  10.524
99465SOL    HW2  228   5.940   9.019  10.562
99466SOL     OW  229   4.149   3.444  10.052
99466SOL    HW1  230   4.212   3.424   9.983
99466SOL    HW2  231   4.201   3.486  10.121
99467SOL     OW  232   6.263  14.101   0.573
99467SOL    HW1  233   6.236  14.184   0.614
99467SOL    HW2  234   6.197  14.086   0.505
99468SOL     OW  235  13.413   4.617   4.962
99468SOL    HW1  236  13.347   4.556   4.930
99468SOL    HW2  237  13.377   4.650   5.044
99469SOL     OW  238   5.046   6.794  11.293
99469SOL    HW1  239   5.115   6.818  11.354
99469SOL    HW2  240   4.978   6.755  11.347
99470SOL     OW  241   2.233  10.040  14.871
99470SOL    HW1  242   2.285  10.081   0.068
99470SOL    HW2  243   2.227  10.106  14.803
99471SOL     OW  244   1.939   6.797   4.393
99471SOL    HW1  245   1.847   6.792   4.420
99471SOL    HW2  246   1.957   6.711   4.354
99472SOL     OW  247  13.023   8.741  10.902
99472SOL    HW1  248  13.032   8.650  10.874
99472SOL    HW2  249  13.076   8.790  10.839
99473SOL     OW  250   9.689   7.001   4.242
99473SOL    HW1  251   9.613   6.977   4.295
99473SOL    HW2  252   9.665   7.085   4.202
99474SOL     OW  253   4.212   2.977   0.822
99474SOL    HW1  254   4.133   3.029   0.808
99474SOL    HW2  255   4.180   2.890   0.846
99475SOL     OW  256   8.367  13.269   8.052
99475SOL    HW1  257   8.376  13.207   8.124
99475SOL    HW2  258   8.373  13.355   8.092
99476SOL     OW  259   8.290   2.019   9.540
99476SOL    HW1  260   8.337   2.082   9.486
99476SOL    HW2  261   8.262   1.950   9.479
99477SOL     OW  262   3.960   8.725   9.614
99477SOL    HW1  263   3.889   8.788   9.605
99477SOL    HW2  264   4.030   8.774   9.656
99478SOL     OW  265   1.661   6.987   6.295
99478SOL    HW1  266   1.595   6.970   6.227
99478SOL    HW2  267   1.686   7.078   6.281
99479SOL     OW  268   8.263   8.803   0.585
99479SOL    HW1  269   8.335   8.795   0.522
99479SOL    HW2  270   8.186   8.775   0.536
99480SOL     OW  271   5.778   8.450   1.463
99480SOL    HW1  272   5.745   8.366   1.433
99480SOL    HW2  273   5.853   8.469   1.407
99481SOL     OW  274   4.009   2.093  14.458
99481SOL    HW1  275   3.939   2.080  14.393
99481SOL    HW2  276   3.999   2.019  14.519
99482SOL     OW  277  14.550   9.916   8.369
99482SOL    HW1  278  14.625   9.973   8.352
99482SOL    HW2  279  14.487   9.938   8.301
99483SOL     OW  280   5.461   3.172  13.368
99483SOL    HW1  281   5.474   3.084  13.334
99483SOL    HW2  282   5.502   3.229  13.304
99484SOL     OW  283   1.694   2.875   5.183
99484SOL    HW1  284   1.664   2.859   5.094
99484SOL    HW2  285   1.719   2.967   5.184
99485SOL     OW  286  14.382   2.528   8.973
99485SOL    HW1  287  14.444   2.600   8.957
99485SOL    HW2  288  14.301   2.572   9.000
99486SOL     OW  289  11.760  12.384  12.775
99486SOL    HW1  290  11.729  12.378  12.685
99486SOL    HW2  291  11.809  12.302  12.789
99487SOL     OW  292   7.856   6.220   6.406
99487SOL    HW1  293   7.817   6.233   6.493
99487SOL    HW2  294   7.812   6.143   6.371
99488SOL     OW  295   4.690   5.435   8.695
99488SOL    HW1  296   4.747   5.482   8.634
99488SOL    HW2  297   4.614   5.411   8.643
99489SOL     OW  298   0.378   1.149  14.620
99489SOL    HW1  299   0.358   1.237  14.651
99489SOL    HW2  300   0.324   1.092  14.675
99490SOL     OW  301  10.964   2.521   3.555
99490SOL    HW1  302  10.973   2.610   3.590
99490SOL    HW2  303  11.030   2.516   3.486
99491SOL     OW  304   4.365   4.771  11.411
99491SOL    HW1  305   4.415   4.810  11.340
99491SOL    HW2  306   4.296   4.835  11.430
99492SOL     OW  307   9.531   7.685  11.946
99492SOL    HW1  308   9.457   7.746  11.951
99492SOL    HW2  309   9.498   7.611  11.896
99493SOL     OW  310   5.681  13.403  12.938
99493SOL    HW1  311   5.687  13.466  12.866
99493SOL    HW2  312   5.620  13.444  13.000
99494SOL     OW  313  13.188  11.489  10.355
99494SOL    HW1  314  13.274  11.525  10.331
99494SOL    HW2  315  13.143  11.478  10.271
99495SOL     OW  316   5.907   5.581  12.827
99495SOL    HW1  317   5.927   5.583  12.733
99495SOL    HW2  318   5.920   5.489  12.852
99496SOL     OW  319   8.838   3.137   2.572
99496SOL    HW1  320   8.797   3.189   2.641
99496SOL    HW2  321   8.909   3.090   2.615
99497SOL     OW  322   3.546   4.955   2.055
99497SOL    HW1  323   3.640   4.945   2.068
99497SOL    HW2  324   3.507   4.931   2.139
99498SOL     OW  325   5.775   2.370   5.388
99498SOL    HW1  326   5.751   2.325   5.307
99498SOL    HW2  327   5.841   2.313   5.428
99499SOL     OW  328   2.097  12.260   6.936
99499SOL    HW1  329   2.019  12.237   6.985
99499SOL    HW2  330   2.124  12.179   6.893
99500SOL     OW  331  10.977   8.591   6.584
99500SOL    HW1  332  10.955   8.500   6.606
99500SOL    HW2  333  11.018   8.625   6.664
99501SOL     OW  334   0.455  10.187   4.524
99501SOL    HW1  335   0.406  10.267   4.542
99501SOL    HW2  336   0.546  10.216   4.518
99502SOL     OW  337   4.978  10.783   6.118
99502SOL    HW1  338   4.990  10.756   6.028
99502SOL    HW2  339   4.974  10.879   6.114
99503SOL     OW  340   7.200   7.683   5.593
99503SOL    HW1  341   7.273   7.638   5.551
99503SOL    HW2  342   7.227   7.692   5.685
99504SOL     OW  343  14.354  13.085   2.426
99504SOL    HW1  344  14.415  13.082   2.353
99504SOL    HW2  345  14.350  12.995   2.458
99505SOL     OW  346  11.236   4.804   9.235
99505SOL    HW1  347  11.241   4.898   9.256
99505SOL    HW2  348  11.203   4.763   9.314
99506SOL     OW  349  10.337   0.256   3.235
99506SOL    HW1  350  10.417   0.300   3.206
99506SOL    HW2  351  10.274   0.327   3.249
99507SOL     OW  352  10.461   5.042   1.260
99507SOL    HW1  353  10.495   5.071   1.175
99507SOL    HW2  354  10.413   4.962   1.241
99508SOL     OW  355   3.690   7.359  13.350
99508SOL    HW1  356   3.661   7.444  13.383
99508SOL    HW2  357   3.786   7.366  13.347
99509SOL     OW  358   2.750   1.166  12.575
99509SOL    HW1  359   2.780   1.092  12.627
99509SOL    HW2  360   2.817   1.177  12.507
99510SOL     OW  361   8.151   0.720   4.237
99510SOL    HW1  362   8.164   0.723   4.142
99510SOL    HW2  363   8.058   0.699   4.247
99511SOL     OW  364  13.342   8.891  11.290
99511SOL    HW1  365  13.349   8.860  11.380
99511SOL    HW2  366  13.387   8.976  11.291
99512SOL     OW  367   4.730  13.899  11.968
99512SOL    HW1  368   4.733  13.886  12.063
99512SOL    HW2  369   4.818  13.878  11.938
99513SOL     OW  370   9.199  14.402   0.545
99513SOL    HW1  371   9.116  14.364   0.572
99513SOL    HW2  372   9.262  14.330   0.551
99514SOL     OW  373   9.367   5.948  10.683
99514SOL    HW1  374   9.422   6.014  10.641
99514SOL    HW2  375   9.427   5.901  10.741
99515SOL     OW  376  12.124   2.923  11.077
99515SOL    HW1  377  12.217   2.932  11.096
99515SOL    HW2  378  12.080   2.948  11.158
99516SOL     OW  379   9.148   9.021   5.128
99516SOL    HW1  380   9.095   9.080   5.182
99516SOL    HW2  381   9.194   9.079   5.068
99517SOL     OW  382   4.692   5.155   7.530
99517SOL    HW1  383   4.603   5.129   7.504
99517SOL    HW2  384   4.724   5.082   7.583
99518SOL     OW  385   5.484   5.362  10.248
99518SOL    HW1  386   5.554   5.366  10.314
99518SOL    HW2  387   5.509   5.428  10.183
99519SOL     OW  388   9.817  10.692   2.477
99519SOL    HW1  389   9.884  10.637   2.436
99519SOL    HW2  390   9.862  10.731   2.553
99520SOL     OW  391   9.750   9.703  14.249
99520SOL    HW1  392   9.742   9.625  14.305
99520SOL    HW2  393   9.769   9.774  14.310
99521SOL     OW  394   7.691   3.427  14.583
99521SOL    HW1  395   7.686   3.473  14.667
99521SOL    HW2  396   7.741   3.348  14.603
99522SOL     OW  397   2.009  14.542  13.269
99522SOL    HW1  398   1.988  14.488  13.345
99522SOL    HW2  399   1.926  14.555  13.224
99523SOL     OW  400   7.808   3.656   8.446
99523SOL    HW1  401   7.880   3.594   8.432
99523SOL    HW2  402   7.786   3.687   8.358
99524SOL     OW  403   2.219   2.262  10.805
99524SOL    HW1  404   2.307   2.286  10.835
99524SOL    HW2  405   2.190   2.337  10.753
99525SOL     OW  406   3.268   6.777   7.476
99525SOL    HW1  407   3.205   6.810   7.541
99525SOL    HW2  408   3.354   6.797   7.514
99526SOL     OW  409   6.201   6.796   6.670
99526SOL    HW1  410   6.177   6.803   6.578
99526SOL    HW2  411   6.239   6.708   6.678
99527SOL     OW  412   9.286   2.689  12.008
99527SOL    HW1  413   9.300   2.633  11.931
99527SOL    HW2  414   9.190   2.699  12.012
99528SOL     OW  415  11.781   2.082  10.451
99528SOL    HW1  416  11.689   2.090  10.427
99528SOL    HW2  417  11.829   2.088  10.368
99529SOL     OW  418   5.168  14.361   9.100
99529SOL    HW1  419   5.085  14.329   9.064
99529SOL    HW2  420   5.222  14.283   9.108
99530SOL     OW  421   7.334   9.219  12.858
99530SOL    HW1  422   7.315   9.270  12.936
99530SOL    HW2  423   7.272   9.250  12.793
99531SOL     OW  424   5.154   0.372  11.632
99531SOL    HW1  425   5.089   0.302  11.634
99531SOL    HW2  426   5.225   0.337  11.578
99532SOL     OW  427  12.617  14.061   7.407
99532SOL    HW1  428  12.647  14.060   7.316
99532SOL    HW2  429  12.692  14.031   7.457
99533SOL     OW  430   2.632   9.925  13.881
99533SOL    HW1  431   2.600   9.983  13.951
99533SOL    HW2  432   2.557   9.916  13.821
99534SOL     OW  433   0.338   5.956   1.195
99534SOL    HW1  434   0.389   6.034   1.176
99534SOL    HW2  435   0.323   5.915   1.110
99535SOL     OW  436   0.865   2.237   3.179
99535SOL    HW1  437   0.796   2.219   3.115
99535SOL    HW2  438   0.833   2.312   3.229
99536SOL     OW  439  11.945   3.482   4.971
99536SOL    HW1  440  12.039   3.469   4.965
99536SOL    HW2  441  11.907   3.417   4.912
99537SOL     OW  442   7.598   7.297   0.442
99537SOL    HW1  443   7.603   7.247   0.523
99537SOL    HW2  444   7.505   7.314   0.430
99538SOL     OW  445   9.899   2.267   4.997
99538SOL    HW1  446   9.863   2.185   5.030
99538SOL    HW2  447   9.987   2.272   5.036
99539SOL     OW  448   2.207   0.624   0.724
99539SOL    HW1  449   2.232   0.649   0.635
99539SOL    HW2  450   2.199   0.529   0.721
99540SOL     OW  451   8.230   9.137   3.650
99540SOL    HW1  452   8.319   9.150   3.617
99540SOL    HW2  453   8.238   9.141   3.745
99541SOL     OW  454   8.698  10.969   9.231
99541SOL    HW1  455   8.765  11.008   9.174
99541SOL    HW2  456   8.619  10.966   9.177
99542SOL     OW  457  10.682   6.444  11.128
99542SOL    HW1  458  10.748   6.399  11.075
99542SOL    HW2  459  10.616   6.473  11.066
99543SOL     OW  460   6.453   7.478   7.566
99543SOL    HW1  461   6.525   7.533   7.598
99543SOL    HW2  462   6.416   7.528   7.493
99544SOL     OW  463   5.453   2.145   1.325
99544SOL    HW1  464   5.540   2.150   1.365
99544SOL    HW2  465   5.434   2.236   1.300
99545SOL     OW  466   3.292   0.101   5.609
99545SOL    HW1  467   3.292   0.197   5.604
99545SOL    HW2  468   3.212   0.080   5.658
99546SOL     OW  469  13.869  13.341  10.211
99546SOL    HW1  470  13.886  13.408  10.145
99546SOL    HW2  471  13.872  13.387  10.295
99547SOL     OW  472  10.662   0.692   5.913
99547SOL    HW1  473  10.568   0.683   5.926
99547SOL    HW2  474  10.674   0.785   5.891
99548SOL     OW  475  11.072  14.703   7.873
99548SOL    HW1  476  11.123  14.658   7.940
99548SOL    HW2  477  11.124  14.696   7.793
99549SOL     OW  478  12.521   8.697  12.203
99549SOL    HW1  479  12.561   8.614  12.230
99549SOL    HW2  480  12.499   8.741  12.285
99550SOL     OW  481   4.097   3.534  11.697
99550SOL    HW1  482   4.066   3.623  11.716
99550SOL    HW2  483   4.170   3.547  11.636
99551SOL     OW  484   6.887   7.323  12.767
99551SOL    HW1  485   6.954   7.296  12.830
99551SOL    HW2  486   6.804   7.301  12.809
99552SOL     OW  487   2.138   5.169   7.511
99552SOL    HW1  488   2.074   5.149   7.443
99552SOL    HW2  489   2.094   5.232   7.568
99553SOL     OW  490   0.683  10.712   7.086
99553SOL    HW1  491   0.614  10.778   7.080
99553SOL    HW2  492   0.637  10.629   7.097
99554SOL     OW  493   6.159   1.156   6.600
99554SOL    HW1  494   6.146   1.062   6.586
99554SOL    HW2  495   6.252   1.170   6.581
99555SOL     OW  496  10.434  12.271  13.559
99555SOL    HW1  497  10.454  12.187  13.517
99555SOL    HW2  498  10.498  12.279  13.629
99556SOL     OW  499   3.862   2.207  14.194
99556SOL    HW1  500   3.795   2.274  14.181
99556SOL    HW2  501   3.939   2.242  14.149
99557SOL     OW  502   7.119  11.201   2.287
99557SOL    HW1  503   7.199  11.250   2.268
99557SOL    HW2  504   7.053  11.269   2.301
99558SOL     OW  505   0.218   1.154   9.515
99558SOL    HW1  506   0.301   1.197   9.495
99558SOL    HW2  507   0.155   1.227   9.520
99559SOL     OW  508  13.678   3.699   5.356
99559SOL    HW1  509  13.643   3.780   5.392
99559SOL    HW2  510  13.770   3.718   5.337
99560SOL     OW  511   8.304  14.466  11.720
99560SOL    HW1  512   8.341  14.554  11.728
99560SOL    HW2  513   8.345  14.429  11.642
99561SOL     OW  514  13.621  13.033  11.338
99561SOL    HW1  515  13.679  12.971  11.294
99561SOL    HW2  516  13.567  13.070  11.268
99562SOL     OW  517   3.408   6.681  14.535
99562SOL    HW1  518   3.455   6.661  14.454
99562SOL    HW2  519   3.461   6.748  14.577
99563SOL     OW  520   8.675   5.378   9.644
99563SOL    HW1  521   8.752   5.435   9.644
99563SOL    HW2  522   8.679   5.333   9.728
99564SOL     OW  523   1.105   5.373   3.384
99564SOL    HW1  524   1.191   5.409   3.404
99564SOL    HW2  525   1.091   5.396   3.292
99565SOL     OW  526  10.729   7.719  11.092
99565SOL    HW1  527  10.822   7.737  11.106
99565SOL    HW2  528  10.726   7.630  11.057
99566SOL     OW  529  10.050   5.783   6.798
99566SOL    HW1  530  10.032   5.826   6.882
99566SOL    HW2  531  10.117   5.718   6.819
99567SOL     OW  532   5.889   1.035  14.226
99567SOL    HW1  533   5.812   1.039  14.170
99567SOL    HW2  534   5.872   1.098  14.295
99568SOL     OW  535   7.341   8.950   2.312
99568SOL    HW1  536   7.384   8.865   2.324
99568SOL    HW2  537   7.304   8.946   2.224
99569SOL     OW  538   7.516  14.808  13.598
99569SOL    HW1  539   7.596  14.851  13.570
99569SOL    HW2  540   7.533  14.782  13.689
99570SOL     OW  541   0.306  10.417   3.565
99570SOL    HW1  542   0.364  10.477   3.613
99570SOL    HW2  543   0.345  10.331   3.579
99571SOL     OW  544   0.207  13.061   6.142
99571SOL    HW1  545   0.143  13.124   6.108
99571SOL    HW2  546   0.229  13.006   6.067
99572SOL     OW  547   4.158   4.128   4.415
99572SOL    HW1  548   4.125   4.064   4.478
99572SOL    HW2  549   4.171   4.208   4.466
99573SOL     OW  550   1.926  13.313   1.299
99573SOL    HW1  551   1.926  13.218   1.286
99573SOL    HW2  552   1.834  13.337   1.299
99574SOL     OW  553   8.470   7.972  11.991
99574SOL    HW1  554   8.518   7.901  12.033
99574SOL    HW2  555   8.527   8.049  12.003
99575SOL     OW  556   1.065   6.385  10.101
99575SOL    HW1  557   1.047   6.451  10.034
99575SOL    HW2  558   1.122   6.429  10.163
99576SOL     OW  559   5.221  14.287   7.558
99576SOL    HW1  560   5.301  14.235   7.547
99576SOL    HW2  561   5.252  14.377   7.565
99577SOL     OW  562   2.927   9.633   7.449
99577SOL    HW1  563   2.869   9.709   7.456
99577SOL    HW2  564   2.880   9.573   7.392
99578SOL     OW  565   5.045   0.393   5.592
99578SOL    HW1  566   5.042   0.489   5.594
99578SOL    HW2  567   5.099   0.372   5.516
99579SOL     OW  568  11.054   6.773   6.841
99579SOL    HW1  569  11.025   6.686   6.815
99579SOL    HW2  570  10.980   6.809   6.890
99580SOL     OW  571  13.185   7.343   8.376
99580SOL    HW1  572  13.093   7.363   8.359
99580SOL    HW2  573  13.200   7.377   8.465
99581SOL     OW  574  11.159   5.176   2.946
99581SOL    HW1  575  11.232   5.232   2.921
99581SOL    HW2  576  11.097   5.184   2.873
99582SOL     OW  577   8.519  10.466  12.603
99582SOL    HW1  578   8.485  10.509  12.525
99582SOL    HW2  579   8.603  10.510  12.621
99583SOL     OW  580  12.517   1.129  12.663
99583SOL    HW1  581  12.464   1.072  12.719
99583SOL    HW2  582  12.607   1.105  12.685
99584SOL     OW  583  11.460  10.768   6.175
99584SOL    HW1  584  11.484  10.860   6.163
99584SOL    HW2  585  11.539  10.728   6.211
99585SOL     OW  586   5.776   5.973   6.197
99585SOL    HW1  587   5.851   5.931   6.238
99585SOL    HW2  588   5.706   5.965   6.261
99586SOL     OW  589   2.915   7.877   9.202
99586SOL    HW1  590   2.972   7.932   9.256
99586SOL    HW2  591   2.922   7.790   9.242
99587SOL     OW  592   9.871   3.659   9.215
99587SOL    HW1  593   9.946   3.599   9.212
99587SOL    HW2  594   9.892   3.727   9.150
99588SOL     OW  595   8.851  11.788   4.867
99588SOL    HW1  596   8.904  11.868   4.867
99588SOL    HW2  597   8.767  11.814   4.830
99589SOL     OW  598  14.289   2.338   0.878
99589SOL    HW1  599  14.239   2.329   0.796
99589SOL    HW2  600  14.379   2.316   0.854
99590SOL     OW  601  11.377   3.369   8.190
99590SOL    HW1  602  11.409   3.331   8.272
99590SOL    HW2  603  11.316   3.304   8.155
99591SOL     OW  604  10.244  11.911   0.122
99591SOL    HW1  605  10.189  11.915   0.200
99591SOL    HW2  606  10.182  11.919   0.049
99592SOL     OW  607   1.192  14.104   9.652
99592SOL    HW1  608   1.256  14.085   9.584
99592SOL    HW2  609   1.123  14.039   9.638
99593SOL     OW  610   5.498   2.511  10.886
99593SOL    HW1  611   5.525   2.459  10.810
99593SOL    HW2  612   5.407   2.535  10.868
99594SOL     OW  613   7.683   3.864   9.729
99594SOL    HW1  614   7.660   3.819   9.811
99594SOL    HW2  615   7.601   3.902   9.699
99595SOL     OW  616   0.802   1.701   7.290
99595SOL    HW1  617   0.796   1.791   7.320
99595SOL    HW2  618   0.896   1.684   7.283
99596SOL     OW  619  12.538   0.484   6.704
99596SOL    HW1  620  12.589   0.502   6.782
99596SOL    HW2  621  12.596   0.506   6.631
99597SOL     OW  622   5.775  14.575  11.578
99597SOL    HW1  623   5.783  14.658  11.625
99597SOL    HW2  624   5.730  14.517  11.639
99598SOL     OW  625   7.340  12.917  14.232
99598SOL    HW1  626   7.317  12.874  14.149
99598SOL    HW2  627   7.272  12.888  14.292
99599SOL     OW  628   7.260   8.045   8.057
99599SOL    HW1  629   7.172   8.049   8.020
99599SOL    HW2  630   7.297   7.964   8.022
99600SOL     OW  631   1.680  12.654   1.605
99600SOL    HW1  632   1.749  12.719   1.589
99600SOL    HW2  633   1.630  12.653   1.523
99601SOL     OW  634   9.466   1.867   6.989
99601SOL    HW1  635   9.379   1.846   6.957
99601SOL    HW2  636   9.463   1.961   7.006
99602SOL     OW  637  10.009   2.121   2.275
99602SOL    HW1  638   9.969   2.189   2.221
99602SOL    HW2  639  10.099   2.115   2.244
99603SOL     OW  640  12.004   7.217   5.862
99603SOL    HW1  641  12.047   7.300   5.883
99603SOL    HW2  642  11.937   7.241   5.798
99604SOL     OW  643  13.017  10.837   9.893
99604SOL    HW1  644  13.045  10.853   9.984
99604SOL    HW2  645  12.938  10.889   9.882
99605SOL     OW  646   6.600   0.811   6.024
99605SOL    HW1  647   6.586   0.877   6.092
99605SOL    HW2  648   6.656   0.855   5.960
99606SOL     OW  649   2.077   8.599   6.810
99606SOL    HW1  650   2.070   8.545   6.889
99606SOL    HW2  651   2.061   8.688   6.841
99607SOL     OW  652   6.766   0.084  13.632
99607SOL    HW1  653   6.816   0.097  13.552
99607SOL    HW2  654   6.824   0.034  13.689
99608SOL     OW  655   4.635  14.157   4.443
99608SOL    HW1  656   4.577  14.083   4.426
99608SOL    HW2  657   4.720  14.117   4.463
99609SOL     OW  658   5.779   6.691   3.273
99609SOL    HW1  659   5.831   6.723   3.199
99609SOL    HW2  660   5.838   6.699   3.348
99610SOL     OW  661   9.729   7.307  11.788
99610SOL    HW1  662   9.658   7.243  11.795
99610SOL    HW2  663   9.792   7.266  11.729
99611SOL     OW  664  13.194  13.129  14.313
99611SOL    HW1  665  13.188  13.086  14.398
99611SOL    HW2  666  13.269  13.087  14.270
99612SOL     OW  667   7.821   1.074  12.994
99612SOL    HW1  668   7.833   1.107  12.905
99612SOL    HW2  669   7.901   1.099  13.040
99613SOL     OW  670  10.986   7.529  14.061
99613SOL    HW1  671  11.039   7.449  14.071
99613SOL    HW2  672  11.001   7.556  13.970
99614SOL     OW  673  13.202  13.967  10.465
99614SOL    HW1  674  13.115  13.947  10.430
99614SOL    HW2  675  13.259  13.900  10.429
99615SOL     OW  676   9.956  10.886   4.588
99615SOL    HW1  677   9.994  10.840   4.513
99615SOL    HW2  678  10.023  10.884   4.655
99616SOL     OW  679   7.867  13.174  14.460
99616SOL    HW1  680   7.779  13.183  14.497
99616SOL    HW2  681   7.919  13.135  14.531
99617SOL     OW  682  10.181   1.853   5.919
99617SOL    HW1  683  10.272   1.874   5.895
99617SOL    HW2  684  10.189   1.805   6.002
99618SOL     OW  685  12.746   1.853   5.677
99618SOL    HW1  686  12.809   1.919   5.649
99618SOL    HW2  687  12.792   1.802   5.743
99619SOL     OW  688  10.528   3.144   3.898
99619SOL    HW1  689  10.522   3.231   3.939
99619SOL    HW2  690  10.604   3.150   3.840
99620SOL     OW  691  14.359  10.721   6.132
99620SOL    HW1  692  14.295  10.750   6.067
99620SOL    HW2  693  14.324  10.637   6.163
99621SOL     OW  694  10.281  12.648   3.190
99621SOL    HW1  695  10.194  12.679   3.166
99621SOL    HW2  696  10.304  12.584   3.122
99622SOL     OW  697   1.561   0.343  14.285
99622SOL    HW1  698   1.609   0.275  14.237
99622SOL    HW2  699   1.553   0.415  14.223
99623SOL     OW  700   6.383  13.824   1.572
99623SOL    HW1  701   6.398  13.734   1.600
99623SOL    HW2  702   6.300  13.848   1.613
99624SOL     OW  703   8.602   0.475   5.308
99624SOL    HW1  704   8.673   0.498   5.368
99624SOL    HW2  705   8.544   0.552   5.309
99625SOL     OW  706  10.954  12.944   6.410
99625SOL    HW1  707  10.930  12.898   6.491
99625SOL    HW2  708  11.044  12.918   6.393
99626SOL     OW  709  12.750   2.606   8.323
99626SOL    HW1  710  12.704   2.634   8.402
99626SOL    HW2  711  12.707   2.524   8.298
99627SOL     OW  712   4.676   2.144   7.739
99627SOL    HW1  713   4.728   2.168   7.815
99627SOL    HW2  714   4.740   2.115   7.674
99628SOL     OW  715   0.981   3.416   9.590
99628SOL    HW1  716   0.992   3.482   9.658
99628SOL    HW2  717   0.927   3.348   9.631
99629SOL     OW  718  13.115   3.273  12.919
99629SOL    HW1  719  13.063   3.196  12.896
99629SOL    HW2  720  13.058   3.347  12.901
99630SOL     OW  721  12.500   5.163  10.911
99630SOL    HW1  722  12.458   5.206  10.986
99630SOL    HW2  723  12.427   5.132  10.857
99631SOL     OW  724   0.028   5.986   5.050
99631SOL    HW1  725  14.822   5.940   5.079
99631SOL    HW2  726   0.009   6.078   5.069
99632SOL     OW  727   9.619   9.924  12.654
99632SOL    HW1  728   9.565   9.950  12.579
99632SOL    HW2  729   9.687   9.991  12.660
99633SOL     OW  730   2.446  13.354   9.784
99633SOL    HW1  731   2.477  13.314   9.865
99633SOL    HW2  732   2.395  13.430   9.812
99634SOL     OW  733   5.735   8.040   6.270
99634SOL    HW1  734   5.822   8.028   6.308
99634SOL    HW2  735   5.687   7.961   6.294
99635SOL     OW  736  13.368   4.301   3.324
99635SOL    HW1  737  13.313   4.261   3.257
99635SOL    HW2  738  13.421   4.228   3.358
99636SOL     OW  739   5.932  12.740   7.442
99636SOL    HW1  740   5.919  12.646   7.429
99636SOL    HW2  741   5.859  12.781   7.396
99637SOL     OW  742  14.757   4.770   1.151
99637SOL    HW1  743  14.715   4.838   1.204
99637SOL    HW2  744  14.781   4.702   1.214
99638SOL     OW  745   1.354   6.528   3.805
99638SOL    HW1  746   1.272   6.545   3.759
99638SOL    HW2  747   1.413   6.495   3.737
99639SOL     OW  748   5.245   1.644   1.250
99639SOL    HW1  749   5.255   1.561   1.203
99639SOL    HW2  750   5.247   1.711   1.181
99640SOL     OW  751   5.619  12.792   6.417
99640SOL    HW1  752   5.660  12.816   6.500
99640SOL    HW2  753   5.692  12.791   6.354
99641SOL     OW  754  14.184   1.730   5.190
99641SOL    HW1  755  14.236   1.658   5.153
99641SOL    HW2  756  14.249   1.796   5.213
99642SOL     OW  757   1.889  12.310   6.293
99642SOL    HW1  758   1.836  12.384   6.263
99642SOL    HW2  759   1.969  12.315   6.240
99643SOL     OW  760   2.851  10.555  14.639
99643SOL    HW1  761   2.917  10.568  14.571
99643SOL    HW2  762   2.840  10.460  14.645
99644SOL     OW  763  13.384   9.329   1.872
99644SOL    HW1  764  13.357   9.350   1.783
99644SOL    HW2  765  13.407   9.236   1.868
99645SOL     OW  766   8.666   1.648   6.905
99645SOL    HW1  767   8.646   1.609   6.820
99645SOL    HW2  768   8.662   1.742   6.889
99646SOL     OW  769   6.125  12.591   4.232
99646SOL    HW1  770   6.060  12.619   4.167
99646SOL    HW2  771   6.176  12.523   4.187
99647SOL     OW  772  13.363   7.916   7.054
99647SOL    HW1  773  13.368   7.822   7.037
99647SOL    HW2  774  13.270   7.937   7.044
99648SOL     OW  775   6.440  14.255  11.360
99648SOL    HW1  776   6.408  14.217  11.278
99648SOL    HW2  777   6.384  14.331  11.375
99649SOL     OW  778   5.673   1.516  12.864
99649SOL    HW1  779   5.588   1.551  12.888
99649SOL    HW2  780   5.654   1.429  12.828
99650SOL     OW  781   3.034  10.963   4.894
99650SOL    HW1  782   3.023  10.901   4.965
99650SOL    HW2  783   3.127  10.985   4.895
99651SOL     OW  784   3.654  13.601  12.300
99651SOL    HW1  785   3.723  13.543  12.332
99651SOL    HW2  786   3.680  13.689  12.328
99652SOL     OW  787   6.783   6.088  11.511
99652SOL    HW1  788   6.843   6.013  11.515
99652SOL    HW2  789   6.803   6.129  11.427
99653SOL     OW  790  12.155   6.077   6.469
99653SOL    HW1  791  12.187   5.991   6.442
99653SOL    HW2  792  12.125   6.118   6.388
99654SOL     OW  793  10.619   5.288  12.661
99654SOL    HW1  794  10.705   5.293  12.701
99654SOL    HW2  795  10.583   5.204  12.689
99655SOL     OW  796   5.084  10.532  14.421
99655SOL    HW1  797   5.017  10.473  14.456
99655SOL    HW2  798   5.039  10.616  14.411
99656SOL     OW  799   4.895   4.113   7.742
99656SOL    HW1  800   4.852   4.185   7.696
99656SOL    HW2  801   4.935   4.154   7.820
99657SOL     OW  802   2.836   5.158  14.339
99657SOL    HW1  803   2.885   5.128  14.415
99657SOL    HW2  804   2.882   5.118  14.264
99658SOL     OW  805   1.826   8.492  11.067
99658SOL    HW1  806   1.762   8.423  11.047
99658SOL    HW2  807   1.788   8.539  11.141
99659SOL     OW  808  10.259   5.494   7.031
99659SOL    HW1  809  10.206   5.449   7.097
99659SOL    HW2  810  10.348   5.463   7.047
99660SOL     OW  811   6.043   1.064  10.701
99660SOL    HW1  812   6.085   1.093  10.620
99660SOL    HW2  813   5.968   1.123  10.711
99661SOL     OW  814   1.291   8.358   1.245
99661SOL    HW1  815   1.279   8.412   1.323
99661SOL    HW2  816   1.226   8.391   1.183
99662SOL     OW  817  13.850   4.405   1.386
99662SOL    HW1  818  13.784   4.365   1.329
99662SOL    HW2  819  13.920   4.433   1.326
99663SOL     OW  820   0.622   2.332  11.027
99663SOL    HW1  821   0.537   2.354  10.991
99663SOL    HW2  822   0.677   2.314  10.951
99664SOL     OW  823  10.232   7.804   2.123
99664SOL    HW1  824  10.324   7.814   2.097
99664SOL    HW2  825  10.231   7.828   2.216
99665SOL     OW  826  12.855   1.083   6.450
99665SOL    HW1  827  12.864   1.074   6.545
99665SOL    HW2  828  12.943   1.069   6.416
99666SOL     OW  829   5.678   8.794  10.303
99666SOL    HW1  830   5.763   8.762  10.336
99666SOL    HW2  831   5.675   8.885  10.331
99667SOL     OW  832   0.612   7.685   5.853
99667SOL    HW1  833   0.589   7.695   5.761
99667SOL    HW2  834   0.667   7.761   5.873
99668SOL     OW  835  11.443   7.026   3.437
99668SOL    HW1  836  11.381   7.097   3.454
99668SOL    HW2  837  11.528   7.070   3.425
99669SOL     OW  838   4.576   6.303   7.383
99669SOL    HW1  839   4.519   6.236   7.421
99669SOL    HW2  840   4.565   6.293   7.289
99670SOL     OW  841   8.077   6.235  11.915
99670SOL    HW1  842   8.044   6.292  11.845
99670SOL    HW2  843   8.052   6.147  11.888
99671SOL     OW  844   7.183  13.673   6.818
99671SOL    HW1  845   7.213  13.755   6.779
99671SOL    HW2  846   7.139  13.700   6.899
99672SOL     OW  847   6.991   4.629   1.788
99672SOL    HW1  848   6.991   4.562   1.857
99672SOL    HW2  849   7.010   4.581   1.708
99673SOL     OW  850   5.773   9.929  10.570
99673SOL    HW1  851   5.755  10.015  10.607
99673SOL    HW2  852   5.868   9.920  10.575
99674SOL     OW  853   0.524   8.346   8.598
99674SOL    HW1  854   0.574   8.301   8.665
99674SOL    HW2  855   0.500   8.277   8.536
99675SOL     OW  856   7.157   3.119  11.851
99675SOL    HW1  857   7.249   3.143  11.848
99675SOL    HW2  858   7.132   3.109  11.759
99676SOL     OW  859   9.800   1.215   4.508
99676SOL    HW1  860   9.734   1.153   4.537
99676SOL    HW2  861   9.830   1.181   4.424
99677SOL     OW  862  11.469   3.702   6.510
99677SOL    HW1  863  11.451   3.749   6.429
99677SOL    HW2  864  11.506   3.768   6.569
99678SOL     OW  865  14.681  14.173  13.729
99678SOL    HW1  866  14.646  14.261  13.710
99678SOL    HW2  867  14.657  14.157  13.820
99679SOL     OW  868   8.987   0.524   0.069
99679SOL    HW1  869   9.062   0.471   0.095
99679SOL    HW2  870   8.990   0.600   0.127
99680SOL     OW  871   3.586  10.146   7.698
99680SOL    HW1  872   3.629  10.228   7.719
99680SOL    HW2  873   3.635  10.079   7.746
99681SOL     OW  874   6.303  14.527   8.601
99681SOL    HW1  875   6.212  14.555   8.587
99681SOL    HW2  876   6.356  14.594   8.559
99682SOL     OW  877  10.242   9.366   2.399
99682SOL    HW1  878  10.149   9.382   2.414
99682SOL    HW2  879  10.257   9.279   2.436
99683SOL     OW  880  13.647  12.533  10.854
99683SOL    HW1  881  13.685  12.508  10.770
99683SOL    HW2  882  13.554  12.511  10.846
99684SOL     OW  883  14.142   0.794   9.898
99684SOL    HW1  884  14.232   0.823   9.888
99684SOL    HW2  885  14.147   0.698   9.895
99685SOL     OW  886   7.540   0.776  12.323
99685SOL    HW1  887   7.546   0.861  12.367
99685SOL    HW2  888   7.589   0.788  12.241
99686SOL     OW  889   3.680   6.378   7.480
99686SOL    HW1  890   3.587   6.398   7.478
99686SOL    HW2  891   3.712   6.400   7.393
99687SOL     OW  892   5.959   2.595  12.100
99687SOL    HW1  893   5.891   2.641  12.149
99687SOL    HW2  894   5.995   2.532  12.162
99688SOL     OW  895   9.834   6.992   7.928
99688SOL    HW1  896   9.914   6.962   7.884
99688SOL    HW2  897   9.763   6.961   7.871
99689SOL     OW  898   2.708   0.446   4.365
99689SOL    HW1  899   2.680   0.537   4.352
99689SOL    HW2  900   2.680   0.425   4.454
99690SOL     OW  901   2.008   2.967   3.073
99690SOL    HW1  902   2.045   2.879   3.079
99690SOL    HW2  903   2.037   2.999   2.988
99691SOL     OW  904   9.844   2.237   8.239
99691SOL    HW1  905   9.930   2.212   8.203
99691SOL    HW2  906   9.852   2.222   8.333
99692SOL     OW  907   7.065   7.419   8.833
99692SOL    HW1  908   7.151   7.394   8.865
99692SOL    HW2  909   7.076   7.508   8.800
99693SOL     OW  910   6.154  12.141  13.256
99693SOL    HW1  911   6.080  12.188  13.294
99693SOL    HW2  912   6.161  12.176  13.167
99694SOL     OW  913   7.485   6.511   8.468
99694SOL    HW1  914   7.551   6.547   8.528
99694SOL    HW2  915   7.451   6.434   8.513
99695SOL     OW  916  14.787  11.482   5.834
99695SOL    HW1  917  14.786  11.563   5.784
99695SOL    HW2  918  14.797  11.413   5.768
99696SOL     OW  919   9.230  14.500   9.730
99696SOL    HW1  920   9.211  14.406   9.736
99696SOL    HW2  921   9.260  14.512   9.640
99697SOL     OW  922   1.542   8.615   5.252
99697SOL    HW1  923   1.616   8.642   5.307
99697SOL    HW2  924   1.563   8.525   5.228
99698SOL     OW  925   6.974   3.038  11.308
99698SOL    HW1  926   6.971   3.096  11.232
99698SOL    HW2  927   7.046   3.071  11.361
99699SOL     OW  928  14.574   8.950   4.825
99699SOL    HW1  929  14.567   8.913   4.737
99699SOL    HW2  930  14.509   8.902   4.876
99700SOL     OW  931  13.704   4.476   6.463
99700SOL    HW1  932  13.722   4.569   6.481
99700SOL    HW2  933  13.619   4.475   6.421
99701SOL     OW  934   6.231   7.010   0.656
99701SOL    HW1  935   6.174   6.938   0.683
99701SOL    HW2  936   6.318   6.969   0.647
99702SOL     OW  937  13.408   5.714   5.678
99702SOL    HW1  938  13.412   5.737   5.771
99702SOL    HW2  939  13.341   5.646   5.673
99703SOL     OW  940   9.626   5.363   0.462
99703SOL    HW1  941   9.596   5.402   0.380
99703SOL    HW2  942   9.714   5.399   0.473
99704SOL     OW  943  10.782   7.136   0.321
99704SOL    HW1  944  10.817   7.188   0.249
99704SOL    HW2  945  10.728   7.197   0.371
99705SOL     OW  946   2.594   9.294  12.017
99705SOL    HW1  947   2.501   9.286  12.039
99705SOL    HW2  948   2.601   9.378  11.971
99706SOL     OW  949  11.193   6.088   9.032
99706SOL    HW1  950  11.206   6.062   9.123
99706SOL    HW2  951  11.147   6.172   9.037
99707SOL     OW  952   2.978   8.403  14.210
99707SOL    HW1  953   2.955   8.455  14.286
99707SOL    HW2  954   3.050   8.346  14.241
99708SOL     OW  955   1.332   6.700   9.124
99708SOL    HW1  956   1.267   6.708   9.054
99708SOL    HW2  957   1.337   6.788   9.162
99709SOL     OW  958   2.207  11.355   9.953
99709SOL    HW1  959   2.199  11.270   9.908
99709SOL    HW2  960   2.222  11.418   9.883
99710SOL     OW  961   0.501   1.318   5.161
99710SOL    HW1  962   0.473   1.295   5.073
99710SOL    HW2  963   0.483   1.240   5.213
99711SOL     OW  964   6.310  14.442  13.914
99711SOL    HW1  965   6.401  14.469  13.924
99711SOL    HW2  966   6.299  14.373  13.978
99712SOL     OW  967  13.373   8.097   7.710
99712SOL    HW1  968  13.456   8.143   7.716
99712SOL    HW2  969  13.337   8.102   7.799
99713SOL     OW  970   9.190   7.784   0.064
99713SOL    HW1  971   9.276   7.763   0.101
99713SOL    HW2  972   9.176   7.876   0.086
99714SOL     OW  973   0.413   6.582   1.062
99714SOL    HW1  974   0.485   6.635   1.095
99714SOL    HW2  975   0.453   6.497   1.040
99715SOL     OW  976   2.476   2.375   9.064
99715SOL    HW1  977   2.446   2.309   9.126
99715SOL    HW2  978   2.525   2.437   9.118
99716SOL     OW  979   4.251   9.627   8.676
99716SOL    HW1  980   4.191   9.653   8.746
99716SOL    HW2  981   4.273   9.536   8.695
99717SOL     OW  982  12.542   3.836  10.012
99717SOL    HW1  983  12.480   3.783   9.962
99717SOL    HW2  984  12.493   3.914  10.037
99718SOL     OW  985   5.703  10.388   5.056
99718SOL    HW1  986   5.699  10.384   4.961
99718SOL    HW2  987   5.619  10.354   5.086
99719SOL     OW  988   4.930   3.181  12.712
99719SOL    HW1  989   4.987   3.189  12.789
99719SOL    HW2  990   4.971   3.237  12.646
99720SOL     OW  991  14.709  14.598  13.421
99720SOL    HW1  992  14.660  14.640  13.492
99720SOL    HW2  993  14.642  14.566  13.361
99721SOL     OW  994   4.167  10.187  11.056
99721SOL    HW1  995   4.242  10.197  11.115
99721SOL    HW2  996   4.166  10.268  11.005
99722SOL     OW  997  11.523  11.589   6.352
99722SOL    HW1  998  11.458  11.524   6.327
99722SOL    HW2  999  11.550  11.563   6.440
99723SOL     OW 1000   5.169   9.453   0.358
99723SOL    HW1 1001   5.246   9.416   0.403
99723SOL    HW2 1002   5.171   9.546   0.381
99724SOL     OW 1003   1.720   7.667   2.250
99724SOL    HW1 1004   1.717   7.698   2.341
99724SOL    HW2 1005   1.732   7.747   2.198
99725SOL     OW 1006   6.740   4.378  10.117
99725SOL    HW1 1007   6.752   4.438  10.043
99725SOL    HW2 1008   6.830   4.358  10.146
99726SOL     OW 1009  14.514   4.230   0.485
99726SOL    HW1 1010  14.595   4.225   0.435
99726SOL    HW2 1011  14.490   4.139   0.502
99727SOL     OW 1012  13.161   6.111   9.171
99727SOL    HW1 1013  13.085   6.095   9.227
99727SOL    HW2 1014  13.140   6.191   9.123
99728SOL     OW 1015   6.356  13.264   2.847
99728SOL    HW1 1016   6.279  13.292   2.797
99728SOL    HW2 1017   6.338  13.172   2.868
99729SOL     OW 1018   7.329   1.882   7.970
99729SOL    HW1 1019   7.235   1.901   7.978
99729SOL    HW2 1020   7.333   1.808   7.909
99730SOL     OW 1021  12.694  12.200   5.030
99730SOL    HW1 1022  12.719  12.292   5.025
99730SOL    HW2 1023  12.757  12.161   5.089
99731SOL     OW 1024   1.220   4.521  12.167
99731SOL    HW1 1025   1.218   4.469  12.247
99731SOL    HW2 1026   1.190   4.461  12.099
99732SOL     OW 1027   6.876  10.091   6.119
99732SOL    HW1 1028   6.915  10.176   6.098
99732SOL    HW2 1029   6.942  10.046   6.172
99733SOL     OW 1030   9.951  14.021   8.081
99733SOL    HW1 1031   9.938  14.020   7.986
99733SOL    HW2 1032  10.037  13.982   8.093
99734SOL     OW 1033   2.067  14.124   2.038
99734SOL    HW1 1034   2.156  14.090   2.027
99734SOL    HW2 1035   2.058  14.137   2.133
99735SOL     OW 1036   5.788   8.722   5.590
99735SOL    HW1 1037   5.762   8.760   5.506
99735SOL    HW2 1038   5.706   8.697   5.632
99736SOL     OW 1039   2.422  11.378  10.150
99736SOL    HW1 1040   2.337  11.385  10.107
99736SOL    HW2 1041   2.406  11.322  10.226
99737SOL     OW 1042  12.486   9.646  11.574
99737SOL    HW1 1043  12.439   9.623  11.654
99737SOL    HW2 1044  12.515   9.736  11.587
99738SOL     OW 1045   8.958   8.399   3.344
99738SOL    HW1 1046   8.990   8.486   3.368
99738SOL    HW2 1047   8.866   8.411   3.323
99739SOL     OW 1048   6.066  10.168   3.297
99739SOL    HW1 1049   6.058  10.190   3.204
99739SOL    HW2 1050   5.997  10.103   3.312
99740SOL     OW 1051   3.206   2.394   6.330
99740SOL    HW1 1052   3.267   2.467   6.341
99740SOL    HW2 1053   3.185   2.366   6.419
99741SOL     OW 1054  14.193   8.604  10.940
99741SOL    HW1 1055  14.234   8.588  11.026
99741SOL    HW2 1056  14.262   8.583  10.877
99742SOL     OW 1057   4.762   7.162   4.593
99742SOL    HW1 1058   4.668   7.161   4.576
99742SOL    HW2 1059   4.793   7.076   4.566
99743SOL     OW 1060  11.626   2.939   5.498
99743SOL    HW1 1061  11.634   3.021   5.450
99743SOL    HW2 1062  11.532   2.920   5.496
99744SOL     OW 1063  11.575   6.594   2.428
99744SOL    HW1 1064  11.611   6.548   2.352
99744SOL    HW2 1065  11.491   6.628   2.398
99745SOL     OW 1066   8.089  12.321   3.311
99745SOL    HW1 1067   8.174  12.340   3.272
99745SOL    HW2 1068   8.105  12.244   3.367
99746SOL     OW 1069   8.173   8.130   2.059
99746SOL    HW1 1070   8.184   8.202   2.120
99746SOL    HW2 1071   8.157   8.172   1.974
99747SOL     OW 1072   2.591   3.223   7.557
99747SOL    HW1 1073   2.602   3.286   7.628
99747SOL    HW2 1074   2.565   3.275   7.481
99748SOL     OW 1075  10.696  12.875   9.678
99748SOL    HW1 1076  10.700  12.911   9.589
99748SOL    HW2 1077  10.759  12.928   9.727
99749SOL     OW 1078   7.629   6.901   0.829
99749SOL    HW1 1079   7.722   6.884   0.846
99749SOL    HW2 1080   7.602   6.830   0.771
99750SOL     OW 1081   8.608   7.959   2.512
99750SOL    HW1 1082   8.640   8.040   2.472
99750SOL    HW2 1083   8.688   7.911   2.534
99751SOL     OW 1084   6.960   0.675  10.632
99751SOL    HW1 1085   7.010   0.756  10.643
99751SOL    HW2 1086   6.983   0.622  10.708
99752SOL     OW 1087  11.695  10.998  12.700
99752SOL    HW1 1088  11.639  10.948  12.760
99752SOL    HW2 1089  11.700  10.944  12.621
99753SOL     OW 1090  13.963  12.660  10.343
99753SOL    HW1 1091  14.055  12.633  10.335
99753SOL    HW2 1092  13.966  12.740  10.395
99754SOL     OW 1093  11.546   6.780   0.283
99754SOL    HW1 1094  11.557   6.708   0.220
99754SOL    HW2 1095  11.453   6.780   0.303
99755SOL     OW 1096  14.503   2.452   8.555
99755SOL    HW1 1097  14.441   2.511   8.513
99755SOL    HW2 1098  14.510   2.377   8.496
99756SOL     OW 1099   3.287  13.063   7.825
99756SOL    HW1 1100   3.315  13.064   7.917
99756SOL    HW2 1101   3.206  13.013   7.825
99757SOL     OW 1102   1.017  13.855   2.084
99757SOL    HW1 1103   0.993  13.763   2.094
99757SOL    HW2 1104   0.948  13.903   2.128
99758SOL     OW 1105   6.292   7.207   1.610
99758SOL    HW1 1106   6.231   7.234   1.679
99758SOL    HW2 1107   6.315   7.289   1.565
99759SOL     OW 1108  13.414  11.693   1.727
99759SOL    HW1 1109  13.448  11.638   1.656
99759SOL    HW2 1110  13.490  11.711   1.783
99760SOL     OW 1111   3.528  12.434   6.987
99760SOL    HW1 1112   3.466  12.504   6.968
99760SOL    HW2 1113   3.478  12.353   6.972
99761SOL     OW 1114  11.238   4.935   7.290
99761SOL    HW1 1115  11.148   4.906   7.273
99761SOL    HW2 1116  11.289   4.854   7.290
99762SOL     OW 1117  14.659   0.586  10.843
99762SOL    HW1 1118  14.602   0.510  10.827
99762SOL    HW2 1119  14.729   0.577  10.778
99763SOL     OW 1120  11.065  14.255   5.220
99763SOL    HW1 1121  11.126  14.271   5.149
99763SOL    HW2 1122  11.120  14.234   5.296
99764SOL     OW 1123   3.729   2.694  13.004
99764SOL    HW1 1124   3.667   2.760  13.034
99764SOL    HW2 1125   3.799   2.744  12.961
99765SOL     OW 1126  10.630  13.048   0.699
99765SOL    HW1 1127  10.687  13.075   0.771
99765SOL    HW2 1128  10.679  12.978   0.655
99766SOL     OW 1129  12.106  14.083   2.993
99766SOL    HW1 1130  12.161  14.036   3.055
99766SOL    HW2 1131  12.157  14.086   2.912
99767SOL     OW 1132   3.703  11.222   7.775
99767SOL    HW1 1133   3.610  11.221   7.750
99767SOL    HW2 1134   3.747  11.267   7.703
99768SOL     OW 1135   9.993  13.309  11.964
99768SOL    HW1 1136   9.925  13.372  11.940
99768SOL    HW2 1137  10.041  13.351  12.035
99769SOL     OW 1138   9.870   6.890  11.411
99769SOL    HW1 1139   9.899   6.907  11.322
99769SOL    HW2 1140   9.951   6.884  11.463
99770SOL     OW 1141   3.782   9.786   0.335
99770SOL    HW1 1142   3.798   9.791   0.240
99770SOL    HW2 1143   3.799   9.874   0.367
99771SOL     OW 1144  11.525   5.057   3.880
99771SOL    HW1 1145  11.448   5.003   3.895
99771SOL    HW2 1146  11.595   5.015   3.930
99772SOL     OW 1147  12.787   1.309  11.377
99772SOL    HW1 1148  12.733   1.234  11.400
99772SOL    HW2 1149  12.795   1.358  11.459
99773SOL     OW 1150   9.109  12.195  10.887
99773SOL    HW1 1151   9.169  12.176  10.816
99773SOL    HW2 1152   9.108  12.290  10.894
99774SOL     OW 1153  12.056  13.763  10.231
99774SOL    HW1 1154  12.029  13.729  10.146
99774SOL    HW2 1155  12.131  13.819  10.212
99775SOL     OW 1156   9.806  14.165  14.765
99775SOL    HW1 1157   9.788  14.193  14.854
99775SOL    HW2 1158   9.901  14.154  14.762
99776SOL     OW 1159   4.911   2.588  10.564
99776SOL    HW1 1160   4.996   2.559  10.599
99776SOL    HW2 1161   4.930   2.673  10.524
99777SOL     OW 1162   2.415   7.097  12.373
99777SOL    HW1 1163   2.323   7.118  12.388
99777SOL    HW2 1164   2.414   7.013  12.327
99778SOL     OW 1165   7.415  10.495  11.601
99778SOL    HW1 1166   7.480  10.557  11.569
99778SOL    HW2 1167   7.458  10.409  11.596
99779SOL     OW 1168  13.726   3.359   4.477
99779SOL    HW1 1169  13.684   3.321   4.554
99779SOL    HW2 1170  13.713   3.293   4.408
99780SOL     OW 1171   0.442  10.537   8.387
99780SOL    HW1 1172   0.529  10.577   8.394
99780SOL    HW2 1173   0.407  10.571   8.305
99781SOL     OW 1174  13.420  10.426   6.303
99781SOL    HW1 1175  13.445  10.416   6.394
99781SOL    HW2 1176  13.336  10.472   6.306
99782SOL     OW 1177   3.007   0.278   8.786
99782SOL    HW1 1178   3.006   0.325   8.869
99782SOL    HW2 1179   2.918   0.245   8.776
99783SOL     OW 1180  13.626   1.606   2.525
99783SOL    HW1 1181  13.621   1.510   2.520
99783SOL    HW2 1182  13.534   1.634   2.530
99784SOL     OW 1183   8.581   3.272  12.760
99784SOL    HW1 1184   8.668   3.292  12.725
99784SOL    HW2 1185   8.529   3.350  12.741
99785SOL     OW 1186   6.883   4.094  10.902
99785SOL    HW1 1187   6.965   4.093  10.854
99785SOL    HW2 1188   6.815   4.091  10.834
99786SOL     OW 1189   3.229   2.365  11.320
99786SOL    HW1 1190   3.297   2.308  11.283
99786SOL    HW2 1191   3.181   2.397  11.244
99787SOL     OW 1192  11.446   1.737   6.680
99787SOL    HW1 1193  11.462   1.707   6.770
99787SOL    HW2 1194  11.420   1.658   6.633
99788SOL     OW 1195  11.328  11.871   9.130
99788SOL    HW1 1196  11.261  11.867   9.199
99788SOL    HW2 1197  11.390  11.802   9.153
99789SOL     OW 1198   2.534   5.837   6.454
99789SOL    HW1 1199   2.550   5.901   6.385
99789SOL    HW2 1200   2.483   5.884   6.520
99790SOL     OW 1201   7.579   4.570   0.487
99790SOL    HW1 1202   7.554   4.550   0.397
99790SOL    HW2 1203   7.608   4.487   0.524
99791SOL     OW 1204   8.344  13.621  14.218
99791SOL    HW1 1205   8.249  13.627  14.223
99791SOL    HW2 1206   8.373  13.626  14.309
99792SOL     OW 1207   9.704   1.227   3.042
99792SOL    HW1 1208   9.631   1.239   2.981
99792SOL    HW2 1209   9.664   1.232   3.129
99793SOL     OW 1210   4.134   6.300   6.904
99793SOL    HW1 1211   4.059   6.293   6.964
99793SOL    HW2 1212   4.098   6.279   6.818
99794SOL     OW 1213  13.676  14.780   5.976
99794SOL    HW1 1214  13.597  14.835   5.972
99794SOL    HW2 1215  13.744  14.834   5.936
99795SOL     OW 1216   8.504   4.190   1.403
99795SOL    HW1 1217   8.505   4.107   1.355
99795SOL    HW2 1218   8.589   4.195   1.445
99796SOL     OW 1219   0.665   7.875   1.860
99796SOL    HW1 1220   0.687   7.808   1.924
99796SOL    HW2 1221   0.706   7.955   1.893
99797SOL     OW 1222   1.853   1.636  11.337
99797SOL    HW1 1223   1.867   1.694  11.412
99797SOL    HW2 1224   1.907   1.673  11.267
99798SOL     OW 1225   4.778   0.017   6.552
99798SOL    HW1 1226   4.847   0.052   6.496
99798SOL    HW2 1227   4.757   0.089   6.611
99799SOL     OW 1228   2.224   5.846   9.532
99799SOL    HW1 1229   2.238   5.752   9.520
99799SOL    HW2 1230   2.134   5.861   9.502
99800SOL     OW 1231   6.786  12.060   6.520
99800SOL    HW1 1232   6.753  12.082   6.433
99800SOL    HW2 1233   6.711  12.074   6.579
99801SOL     OW 1234   0.097   5.020   8.336
99801SOL    HW1 1235   0.061   4.951   8.392
99801SOL    HW2 1236   0.139   5.081   8.397
99802SOL     OW 1237  12.050   9.814  12.130
99802SOL    HW1 1238  12.059   9.908  12.139
99802SOL    HW2 1239  11.969   9.793  12.178
99803SOL     OW 1240   6.469   4.069   6.489
99803SOL    HW1 1241   6.455   3.980   6.456
99803SOL    HW2 1242   6.383   4.097   6.522
99804SOL     OW 1243  13.946   8.390  13.077
99804SOL    HW1 1244  13.936   8.330  13.151
99804SOL    HW2 1245  13.916   8.340  13.001
99805SOL     OW 1246  11.182   0.165   9.802
99805SOL    HW1 1247  11.138   0.213   9.873
99805SOL    HW2 1248  11.110   0.126   9.752
99806SOL     OW 1249  14.345  10.622   4.045
99806SOL    HW1 1250  14.331  10.715   4.030
99806SOL    HW2 1251  14.440  10.612   4.047
99807SOL     OW 1252   6.754   3.160   7.289
99807SOL    HW1 1253   6.726   3.085   7.237
99807SOL    HW2 1254   6.839   3.184   7.252
99808SOL     OW 1255   8.181   2.717   7.236
99808SOL    HW1 1256   8.108   2.746   7.290
99808SOL    HW2 1257   8.141   2.691   7.153
99809SOL     OW 1258  14.571   0.888   6.506
99809SOL    HW1 1259  14.507   0.925   6.445
99809SOL    HW2 1260  14.538   0.800   6.524
99810SOL     OW 1261  12.645   4.154   1.973
99810SOL    HW1 1262  12.594   4.193   2.044
99810SOL    HW2 1263  12.736   4.171   1.997
99811SOL     OW 1264   6.947   2.084   5.376
99811SOL    HW1 1265   6.869   2.034   5.401
99811SOL    HW2 1266   7.012   2.017   5.352
99812SOL     OW 1267   3.343  11.688   5.035
99812SOL    HW1 1268   3.299  11.766   5.001
99812SOL    HW2 1269   3.436  11.711   5.036
99813SOL     OW 1270   7.454   0.473   5.483
99813SOL    HW1 1271   7.511   0.461   5.407
99813SOL    HW2 1272   7.407   0.555   5.465
99814SOL     OW 1273  12.221  10.191   7.353
99814SOL    HW1 1274  12.253  10.181   7.264
99814SOL    HW2 1275  12.210  10.102   7.385
99815SOL     OW 1276   0.610   8.812  10.874
99815SOL    HW1 1277   0.701   8.817  10.902
99815SOL    HW2 1278   0.563   8.786  10.953
99816SOL     OW 1279   7.057   2.437   3.003
99816SOL    HW1 1280   6.975   2.471   2.967
99816SOL    HW2 1281   7.050   2.451   3.098
99817SOL     OW 1282  13.218   6.954   6.442
99817SOL    HW1 1283  13.293   6.896   6.429
99817SOL    HW2 1284  13.217   7.010   6.364
99818SOL     OW 1285   7.292   0.263   7.108
99818SOL    HW1 1286   7.216   0.304   7.149
99818SOL    HW2 1287   7.270   0.170   7.101
99819SOL     OW 1288  10.094   8.320   2.188
99819SOL    HW1 1289  10.007   8.339   2.224
99819SOL    HW2 1290  10.076   8.286   2.100
99820SOL     OW 1291   9.263   9.907  14.781
99820SOL    HW1 1292   9.255   9.903   0.004
99820SOL    HW2 1293   9.239   9.819  14.751
99821SOL     OW 1294  14.106   5.882   6.934
99821SOL    HW1 1295  14.011   5.886   6.927
99821SOL    HW2 1296  14.123   5.850   7.023
99822SOL     OW 1297   9.017   9.110   8.286
99822SOL    HW1 1298   8.925   9.085   8.295
99822SOL    HW2 1299   9.028   9.183   8.347
99823SOL     OW 1300   2.458   2.823  10.406
99823SOL    HW1 1301   2.528   2.758  10.411
99823SOL    HW2 1302   2.379   2.771  10.389
99824SOL     OW 1303   9.811   2.927   2.405
99824SOL    HW1 1304   9.721   2.903   2.428
99824SOL    HW2 1305   9.844   2.972   2.483
99825SOL     OW 1306   3.521   4.230   0.039
99825SOL    HW1 1307   3.510   4.212   0.132
99825SOL    HW2 1308   3.544   4.146  14.872
99826SOL     OW 1309   7.296   0.639   8.988
99826SOL    HW1 1310   7.233   0.589   9.040
99826SOL    HW2 1311   7.262   0.728   8.988
99827SOL     OW 1312   5.445   8.059   1.767
99827SOL    HW1 1313   5.436   8.110   1.686
99827SOL    HW2 1314   5.419   7.970   1.741
99828SOL     OW 1315   2.973  14.071   1.014
99828SOL    HW1 1316   3.033  14.143   1.031
99828SOL    HW2 1317   3.009  14.026   0.937
99829SOL     OW 1318  12.169   9.703   8.791
99829SOL    HW1 1319  12.078   9.716   8.818
99829SOL    HW2 1320  12.219   9.760   8.849
99830SOL     OW 1321   8.357  12.174   0.815
99830SOL    HW1 1322   8.292  12.159   0.883
99830SOL    HW2 1323   8.423  12.230   0.857
99831SOL     OW 1324  10.899   5.257   6.592
99831SOL    HW1 1325  10.837   5.184   6.592
99831SOL    HW2 1326  10.959   5.238   6.520
99832SOL     OW 1327   8.929  13.054   0.382
99832SOL    HW1 1328   9.011  13.004   0.384
99832SOL    HW2 1329   8.860  12.987   0.385
99833SOL     OW 1330   0.608   0.807  14.856
99833SOL    HW1 1331   0.608   0.901   0.003
99833SOL    HW2 1332   0.601   0.765   0.069
99834SOL     OW 1333   1.269  12.736  12.046
99834SOL    HW1 1334   1.175  12.741  12.061
99834SOL    HW2 1335   1.304  12.813  12.090
99835SOL     OW 1336  14.835  12.389   1.753
99835SOL    HW1 1337  14.754  12.340   1.766
99835SOL    HW2 1338  14.832  12.419   1.662
99836SOL     OW 1339  12.398   3.251  10.281
99836SOL    HW1 1340  12.453   3.328  10.296
99836SOL    HW2 1341  12.460   3.181  10.260
99837SOL     OW 1342  12.549   6.723  14.246
99837SOL    HW1 1343  12.484   6.738  14.315
99837SOL    HW2 1344  12.536   6.797  14.186
99838SOL     OW 1345  10.172   4.845  13.247
99838SOL    HW1 1346  10.214   4.825  13.164
99838SOL    HW2 1347  10.237   4.823  13.313
99839SOL     OW 1348  12.938  11.994  13.830
99839SOL    HW1 1349  12.992  11.915  13.840
99839SOL    HW2 1350  12.984  12.046  13.764
99840SOL     OW 1351   0.678   4.628   4.604
99840SOL    HW1 1352   0.771   4.638   4.625
99840SOL    HW2 1353   0.656   4.541   4.636
99841SOL     OW 1354  11.251   6.359   0.495
99841SOL    HW1 1355  11.280   6.449   0.482
99841SOL    HW2 1356  11.169   6.353   0.445
99842SOL     OW 1357   7.295   2.296   6.287
99842SOL    HW1 1358   7.262   2.221   6.337
99842SOL    HW2 1359   7.274   2.372   6.341
99843SOL     OW 1360  14.353   4.809  11.000
99843SOL    HW1 1361  14.366   4.878  11.065
99843SOL    HW2 1362  14.371   4.852  10.916
99844SOL     OW 1363   1.170   3.774   2.143
99844SOL    HW1 1364   1.095   3.805   2.193
99844SOL    HW2 1365   1.179   3.682   2.168
99845SOL     OW 1366   3.465   7.006  11.919
99845SOL    HW1 1367   3.407   7.071  11.880
99845SOL    HW2 1368   3.407   6.933  11.940
99846SOL     OW 1369   9.899   3.999  12.320
99846SOL    HW1 1370   9.897   3.906  12.345
99846SOL    HW2 1371   9.991   4.022  12.319
99847SOL     OW 1372   9.596   0.325   9.457
99847SOL    HW1 1373   9.507   0.344   9.489
99847SOL    HW2 1374   9.584   0.302   9.365
99848SOL     OW 1375   5.639  11.063  12.452
99848SOL    HW1 1376   5.568  11.005  12.423
99848SOL    HW2 1377   5.675  11.020  12.530
99849SOL     OW 1378   6.251   8.711   3.054
99849SOL    HW1 1379   6.336   8.748   3.079
99849SOL    HW2 1380   6.260   8.617   3.069
99850SOL     OW 1381   9.852  11.303   4.437
99850SOL    HW1 1382   9.920  11.363   4.406
99850SOL    HW2 1383   9.865  11.223   4.386
99851SOL     OW 1384  11.230  13.615  13.625
99851SOL    HW1 1385  11.171  13.567  13.566
99851SOL    HW2 1386  11.297  13.652  13.567
99852SOL     OW 1387   9.202   8.685   7.621
99852SOL    HW1 1388   9.287   8.697   7.578
99852SOL    HW2 1389   9.138   8.688   7.551
99853SOL     OW 1390   9.269  14.596  10.465
99853SOL    HW1 1391   9.352  14.552  10.485
99853SOL    HW2 1392   9.294  14.687  10.448
99854SOL     OW 1393  11.586   3.912   7.626
99854SOL    HW1 1394  11.585   3.923   7.531
99854SOL    HW2 1395  11.662   3.964   7.654
99855SOL     OW 1396   2.188  14.622   4.899
99855SOL    HW1 1397   2.188  14.701   4.845
99855SOL    HW2 1398   2.170  14.551   4.837
99856SOL     OW 1399   1.710  10.134  11.326
99856SOL    HW1 1400   1.674  10.159  11.411
99856SOL    HW2 1401   1.658  10.186  11.263
99857SOL     OW 1402   3.118   8.097   4.642
99857SOL    HW1 1403   3.097   8.005   4.625
99857SOL    HW2 1404   3.210   8.106   4.615
99858SOL     OW 1405   0.471   5.476  10.015
99858SOL    HW1 1406   0.390   5.524  10.029
99858SOL    HW2 1407   0.519   5.528   9.951
99859SOL     OW 1408   1.108  13.113  13.604
99859SOL    HW1 1409   1.021  13.077  13.590
99859SOL    HW2 1410   1.100  13.206  13.582
99860SOL     OW 1411   0.193  10.908   0.082
99860SOL    HW1 1412   0.277  10.952   0.096
99860SOL    HW2 1413   0.140  10.973   0.036
99861SOL     OW 1414   7.138  10.976   9.061
99861SOL    HW1 1415   7.161  10.980   9.154
99861SOL    HW2 1416   7.219  11.003   9.016
99862SOL     OW 1417   1.524   3.394   0.544
99862SOL    HW1 1418   1.579   3.459   0.501
99862SOL    HW2 1419   1.504   3.330   0.475
99863SOL     OW 1420   1.020   2.187  13.310
99863SOL    HW1 1421   0.969   2.149  13.239
99863SOL    HW2 1422   0.955   2.210  13.377
99864SOL     OW 1423   6.393   7.259  14.196
99864SOL    HW1 1424   6.322   7.308  14.237
99864SOL    HW2 1425   6.355   7.222  14.117
99865SOL     OW 1426  11.304  14.673   9.017
99865SOL    HW1 1427  11.227  14.718   8.982
99865SOL    HW2 1428  11.268  14.596   9.061
99866SOL     OW 1429  10.326   8.993   6.258
99866SOL    HW1 1430  10.375   8.930   6.309
99866SOL    HW2 1431  10.318   9.070   6.315
99867SOL     OW 1432   1.905  11.727  11.063
99867SOL    HW1 1433   1.866  11.645  11.032
99867SOL    HW2 1434   1.835  11.771  11.110
99868SOL     OW 1435  13.711  10.361   4.577
99868SOL    HW1 1436  13.675  10.290   4.524
99868SOL    HW2 1437  13.731  10.320   4.661
99869SOL     OW 1438   3.752  10.424   0.056
99869SOL    HW1 1439   3.719  10.508   0.027
99869SOL    HW2 1440   3.755  10.431   0.151
99870SOL     OW 1441   9.684   8.708   7.401
99870SOL    HW1 1442   9.743   8.726   7.474
99870SOL    HW2 1443   9.694   8.784   7.344
99871SOL     OW 1444  12.637   1.567   3.694
99871SOL    HW1 1445  12.602   1.656   3.687
99871SOL    HW2 1446  12.628   1.545   3.787
99872SOL     OW 1447  12.401   8.791   6.947
99872SOL    HW1 1448  12.329   8.805   7.009
99872SOL    HW2 1449  12.439   8.707   6.973
99873SOL     OW 1450   7.209   3.621  14.528
99873SOL    HW1 1451   7.285   3.571  14.498
99873SOL    HW2 1452   7.144   3.554  14.549
99874SOL     OW 1453   7.560   6.760  13.051
99874SOL    HW1 1454   7.498   6.711  13.105
99874SOL    HW2 1455   7.642   6.711  13.057
99875SOL     OW 1456   0.437   7.875  13.057
99875SOL    HW1 1457   0.392   7.802  13.015
99875SOL    HW2 1458   0.491   7.835  13.125
99876SOL     OW 1459   1.195   4.347   7.508
99876SOL    HW1 1460   1.143   4.345   7.428
99876SOL    HW2 1461   1.134   4.375   7.577
99877SOL     OW 1462  13.966   6.950   4.165
99877SOL    HW1 1463  13.997   7.001   4.240
99877SOL    HW2 1464  13.930   7.015   4.105
99878SOL     OW 1465  11.423   2.634  10.989
99878SOL    HW1 1466  11.464   2.576  10.924
99878SOL    HW2 1467  11.463   2.607  11.072
99879SOL     OW 1468   7.678  10.959  12.019
99879SOL    HW1 1469   7.719  10.923  11.940
99879SOL    HW2 1470   7.638  11.040  11.989
99880SOL     OW 1471   1.378   4.200   0.572
99880SOL    HW1 1472   1.471   4.221   0.574
99880SOL    HW2 1473   1.353   4.194   0.664
99881SOL     OW 1474   8.071   6.280   3.822
99881SOL    HW1 1475   8.024   6.209   3.866
99881SOL    HW2 1476   8.143   6.236   3.776
99882SOL     OW 1477   0.589   3.939   2.692
99882SOL    HW1 1478   0.531   3.862   2.697
99882SOL    HW2 1479   0.626   3.947   2.780
99883SOL     OW 1480   6.850   3.753   4.158
99883SOL    HW1 1481   6.759   3.735   4.182
99883SOL    HW2 1482   6.870   3.687   4.092
99884SOL     OW 1483  12.545   8.018   3.247
99884SOL    HW1 1484  12.591   7.939   3.274
99884SOL    HW2 1485  12.612   8.086   3.245
99885SOL     OW 1486   2.863   8.595  10.026
99885SOL    HW1 1487   2.817   8.669  10.065
99885SOL    HW2 1488   2.829   8.591   9.936
99886SOL     OW 1489   1.802  10.373   0.697
99886SOL    HW1 1490   1.828  10.396   0.786
99886SOL    HW2 1491   1.753  10.291   0.708
99887SOL     OW 1492   8.659   9.605   1.350
99887SOL    HW1 1493   8.732   9.585   1.409
99887SOL    HW2 1494   8.684   9.687   1.308
99888SOL     OW 1495  13.678  10.400  10.555
99888SOL    HW1 1496  13.653  10.449  10.634
99888SOL    HW2 1497  13.601  10.401  10.500
99889SOL     OW 1498   7.250   4.656   9.235
99889SOL    HW1 1499   7.213   4.585   9.287
99889SOL    HW2 1500   7.175   4.695   9.191
99890SOL     OW 1501  14.032   4.696   9.663
99890SOL    HW1 1502  14.021   4.608   9.627
99890SOL    HW2 1503  14.102   4.735   9.610
99891SOL     OW 1504  12.371  12.923   7.928
99891SOL    HW1 1505  12.454  12.876   7.927
99891SOL    HW2 1506  12.311  12.868   7.877
99892SOL     OW 1507   1.392   1.373   8.061
99892SOL    HW1 1508   1.412   1.351   8.152
99892SOL    HW2 1509   1.471   1.419   8.030
99893SOL     OW 1510  13.596   5.528   8.701
99893SOL    HW1 1511  13.660   5.590   8.666
99893SOL    HW2 1512  13.607   5.532   8.796
99894SOL     OW 1513   5.871   8.858   1.714
99894SOL    HW1 1514   5.853   8.840   1.622
99894SOL    HW2 1515   5.887   8.952   1.718
99895SOL     OW 1516   3.582  11.377  11.438
99895SOL    HW1 1517   3.648  11.429  11.392
99895SOL    HW2 1518   3.537  11.329  11.368
99896SOL     OW 1519   7.856  14.041   0.690
99896SOL    HW1 1520   7.817  13.968   0.642
99896SOL    HW2 1521   7.804  14.049   0.769
99897SOL     OW 1522   4.442   5.793  13.020
99897SOL    HW1 1523   4.431   5.855  13.093
99897SOL    HW2 1524   4.508   5.731  13.052
99898SOL     OW 1525   2.317  11.597   0.356
99898SOL    HW1 1526   2.251  11.644   0.305
99898SOL    HW2 1527   2.334  11.517   0.307
99899SOL     OW 1528   0.139   4.789  11.196
99899SOL    HW1 1529   0.196   4.826  11.263
99899SOL    HW2 1530   0.119   4.701  11.227
99900SOL     OW 1531   5.847  11.228   8.274
99900SOL    HW1 1532   5.832  11.223   8.180
99900SOL    HW2 1533   5.937  11.197   8.285
99901SOL     OW 1534   2.278  14.791   0.963
99901SOL    HW1 1535   2.345  14.729   0.992
99901SOL    HW2 1536   2.250  14.835   1.044
99902SOL     OW 1537   1.022   4.007  14.270
99902SOL    HW1 1538   0.988   4.066  14.203
99902SOL    HW2 1539   0.964   3.931  14.267
99903SOL     OW 1540   6.707   9.603   1.994
99903SOL    HW1 1541   6.689   9.668   2.062
99903SOL    HW2 1542   6.748   9.530   2.039
99904SOL     OW 1543   7.173   6.382   5.455
99904SOL    HW1 1544   7.106   6.395   5.388
99904SOL    HW2 1545   7.144   6.435   5.529
99905SOL     OW 1546  10.361   9.325   5.587
99905SOL    HW1 1547  10.430   9.390   5.573
99905SOL    HW2 1548  10.393   9.269   5.657
99906SOL     OW 1549   5.286  11.674   2.462
99906SOL    HW1 1550   5.353  11.691   2.529
99906SOL    HW2 1551   5.266  11.761   2.427
99907SOL     OW 1552  10.057   9.673   0.231
99907SOL    HW1 1553  10.004   9.644   0.306
99907SOL    HW2 1554  10.142   9.696   0.269
99908SOL     OW 1555  13.861   6.791   4.989
99908SOL    HW1 1556  13.879   6.784   4.895
99908SOL    HW2 1557  13.776   6.834   4.994
99909SOL     OW 1558  10.420   1.194   2.509
99909SOL    HW1 1559  10.446   1.104   2.490
99909SOL    HW2 1560  10.461   1.246   2.440
99910SOL     OW 1561   2.451  13.356   0.990
99910SOL    HW1 1562   2.502  13.298   1.047
99910SOL    HW2 1563   2.405  13.297   0.931
99911SOL     OW 1564  10.613   3.678   4.145
99911SOL    HW1 1565  10.601   3.721   4.061
99911SOL    HW2 1566  10.699   3.635   4.138
99912SOL     OW 1567   8.902   8.505   7.785
99912SOL    HW1 1568   8.824   8.527   7.834
99912SOL    HW2 1569   8.870   8.483   7.697
99913SOL     OW 1570   6.188   5.085   7.946
99913SOL    HW1 1571   6.167   4.997   7.978
99913SOL    HW2 1572   6.103   5.126   7.930
99914SOL     OW 1573   0.657   2.919   7.591
99914SOL    HW1 1574   0.711   2.882   7.521
99914SOL    HW2 1575   0.568   2.889   7.571
99915SOL     OW 1576   4.460   0.984   7.953
99915SOL    HW1 1577   4.491   0.914   7.896
99915SOL    HW2 1578   4.537   1.008   8.005
99916SOL     OW 1579   8.127   6.516   8.569
99916SOL    HW1 1580   8.105   6.606   8.595
99916SOL    HW2 1581   8.180   6.483   8.642
99917SOL     OW 1582   8.191   4.732   5.823
99917SOL    HW1 1583   8.166   4.715   5.913
99917SOL    HW2 1584   8.110   4.727   5.773
99918SOL     OW 1585   3.855   9.771  12.537
99918SOL    HW1 1586   3.834   9.682  12.565
99918SOL    HW2 1587   3.946   9.767  12.509
99919SOL     OW 1588   2.544  11.611  12.290
99919SOL    HW1 1589   2.492  11.676  12.244
99919SOL    HW2 1590   2.629  11.612  12.245
99920SOL     OW 1591  11.092   4.678   1.624
99920SOL    HW1 1592  11.054   4.601   1.667
99920SOL    HW2 1593  11.184   4.678   1.651
99921SOL     OW 1594  11.465   0.550   3.584
99921SOL    HW1 1595  11.438   0.639   3.559
99921SOL    HW2 1596  11.383   0.506   3.606
99922SOL     OW 1597   5.838  14.008   5.375
99922SOL    HW1 1598   5.759  14.058   5.396
99922SOL    HW2 1599   5.900  14.031   5.443
99923SOL     OW 1600   9.541   3.750  11.373
99923SOL    HW1 1601   9.560   3.829  11.322
99923SOL    HW2 1602   9.488   3.696  11.314
99924SOL     OW 1603  10.134   1.055   7.480
99924SOL    HW1 1604  10.082   1.017   7.409
99924SOL    HW2 1605  10.104   1.145   7.485
99925SOL     OW 1606   0.571  14.195   1.213
99925SOL    HW1 1607   0.567  14.134   1.287
99925SOL    HW2 1608   0.660  14.185   1.180
99926SOL     OW 1609   9.857  13.864   6.711
99926SOL    HW1 1610   9.841  13.775   6.680
99926SOL    HW2 1611   9.953  13.871   6.716
99927SOL     OW 1612   3.545  13.171   5.540
99927SOL    HW1 1613   3.613  13.223   5.583
99927SOL    HW2 1614   3.512  13.228   5.470
99928SOL     OW 1615  12.458   3.557  13.081
99928SOL    HW1 1616  12.486   3.602  13.002
99928SOL    HW2 1617  12.455   3.465  13.057
99929SOL     OW 1618   7.261   5.811  14.048
99929SOL    HW1 1619   7.315   5.787  14.123
99929SOL    HW2 1620   7.312   5.786  13.972
99930SOL     OW 1621   6.434   9.761   5.495
99930SOL    HW1 1622   6.456   9.838   5.441
99930SOL    HW2 1623   6.346   9.778   5.527
99931SOL     OW 1624   4.966   2.468   8.033
99931SOL    HW1 1625   4.899   2.517   7.985
99931SOL    HW2 1626   5.035   2.452   7.968
99932SOL     OW 1627   8.191   5.700  12.138
99932SOL    HW1 1628   8.201   5.606  12.155
99932SOL    HW2 1629   8.144   5.704  12.055
99933SOL     OW 1630  13.977  14.178  10.546
99933SOL    HW1 1631  13.962  14.150  10.636
99933SOL    HW2 1632  13.941  14.107  10.492
99934SOL     OW 1633   6.498  14.572   9.280
99934SOL    HW1 1634   6.581  14.611   9.308
99934SOL    HW2 1635   6.432  14.609   9.339
99935SOL     OW 1636   8.518   5.608  10.699
99935SOL    HW1 1637   8.596   5.613  10.754
99935SOL    HW2 1638   8.446   5.591  10.759
99936SOL     OW 1639  13.092   0.078   2.953
99936SOL    HW1 1640  13.133   0.160   2.978
99936SOL    HW2 1641  13.018   0.069   3.013
99937SOL     OW 1642   4.581  12.711  11.464
99937SOL    HW1 1643   4.580  12.728  11.370
99937SOL    HW2 1644   4.606  12.794  11.503
99938SOL     OW 1645  14.429   6.337   3.751
99938SOL    HW1 1646  14.464   6.256   3.715
99938SOL    HW2 1647  14.335   6.321   3.759
99939SOL     OW 1648   8.346   5.138  12.195
99939SOL    HW1 1649   8.257   5.109  12.213
99939SOL    HW2 1650   8.368   5.098  12.112
99940SOL     OW 1651   3.437   3.145  13.403
99940SOL    HW1 1652   3.381   3.206  13.355
99940SOL    HW2 1653   3.524   3.157  13.365
99941SOL     OW 1654   1.344   1.376   4.440
99941SOL    HW1 1655   1.309   1.345   4.523
99941SOL    HW2 1656   1.338   1.471   4.445
99942SOL     OW 1657   5.258  13.527   7.040
99942SOL    HW1 1658   5.278  13.498   6.952
99942SOL    HW2 1659   5.192  13.596   7.029
99943SOL     OW 1660  12.709   2.926   4.241
99943SOL    HW1 1661  12.641   2.918   4.309
99943SOL    HW2 1662  12.661   2.912   4.159
99944SOL     OW 1663  10.073   0.981   8.324
99944SOL    HW1 1664  10.061   0.992   8.418
99944SOL    HW2 1665   9.984   0.976   8.289
99945SOL     OW 1666  14.542   7.702   6.282
99945SOL    HW1 1667  14.527   7.769   6.349
99945SOL    HW2 1668  14.598   7.745   6.217
99946SOL     OW 1669  11.089   5.353  12.319
99946SOL    HW1 1670  11.044   5.430  12.284
99946SOL    HW2 1671  11.067   5.352  12.412
99947SOL     OW 1672  12.955  10.697   5.574
99947SOL    HW1 1673  12.979  10.722   5.484
99947SOL    HW2 1674  12.958  10.779   5.623
99948SOL     OW 1675   1.223  10.980   2.382
99948SOL    HW1 1676   1.242  11.007   2.292
99948SOL    HW2 1677   1.164  10.906   2.373
99949SOL     OW 1678   9.131   3.209   2.544
99949SOL    HW1 1679   9.159   3.237   2.631
99949SOL    HW2 1680   9.081   3.284   2.510
99950SOL     OW 1681   0.020   5.743  14.414
99950SOL    HW1 1682   0.016   5.768  14.506
99950SOL    HW2 1683  14.810   5.696  14.398
99951SOL     OW 1684   0.698   6.369   8.691
99951SOL    HW1 1685   0.768   6.305   8.673
99951SOL    HW2 1686   0.621   6.333   8.648
99952SOL     OW 1687  11.833   2.388   4.539
99952SOL    HW1 1688  11.778   2.320   4.578
99952SOL    HW2 1689  11.887   2.419   4.612
99953SOL     OW 1690   5.546  12.362   9.140
99953SOL    HW1 1691   5.463  12.374   9.187
99953SOL    HW2 1692   5.527  12.298   9.072
99954SOL     OW 1693   1.673   5.236  12.944
99954SOL    HW1 1694   1.635   5.311  12.899
99954SOL    HW2 1695   1.697   5.268  13.030
99955SOL     OW 1696  14.322   6.791   4.164
99955SOL    HW1 1697  14.278   6.838   4.235
99955SOL    HW2 1698  14.405   6.836   4.152
99956SOL     OW 1699   1.390   7.502   3.348
99956SOL    HW1 1700   1.395   7.409   3.370
99956SOL    HW2 1701   1.471   7.519   3.299
99957SOL     OW 1702   1.806   8.194  13.918
99957SOL    HW1 1703   1.782   8.278  13.880
99957SOL    HW2 1704   1.891   8.173  13.878
99958SOL     OW 1705   9.638   5.789  14.611
99958SOL    HW1 1706   9.573   5.859  14.625
99958SOL    HW2 1707   9.586   5.714  14.581
99959SOL     OW 1708   8.999   3.955  13.641
99959SOL    HW1 1709   9.006   4.020  13.711
99959SOL    HW2 1710   8.909   3.965  13.609
99960SOL     OW 1711   7.774   2.921   3.816
99960SOL    HW1 1712   7.760   3.002   3.865
99960SOL    HW2 1713   7.726   2.934   3.734
99961SOL     OW 1714   4.228   9.404  13.908
99961SOL    HW1 1715   4.175   9.332  13.875
99961SOL    HW2 1716   4.318   9.370  13.907
99962SOL     OW 1717  14.425   6.693   0.370
99962SOL    HW1 1718  14.520   6.709   0.371
99962SOL    HW2 1719  14.397   6.713   0.459
99963SOL     OW 1720  10.327   4.027  10.613
99963SOL    HW1 1721  10.290   4.111  10.586
99963SOL    HW2 1722  10.348   3.983  10.531
99964SOL     OW 1723   2.702   6.917   5.015
99964SOL    HW1 1724   2.608   6.901   5.018
99964SOL    HW2 1725   2.717   6.988   5.077
99965SOL     OW 1726  10.351  10.536   0.257
99965SOL    HW1 1727  10.378  10.628   0.255
99965SOL    HW2 1728  10.431  10.488   0.238
99966SOL     OW 1729   7.336   7.491  12.195
99966SOL    HW1 1730   7.407   7.504  12.258
99966SOL    HW2 1731   7.282   7.422  12.233
99967SOL     OW 1732   8.950   9.156  10.744
99967SOL    HW1 1733   9.032   9.160  10.795
99967SOL    HW2 1734   8.918   9.246  10.743
99968SOL     OW 1735   7.498   7.293  12.697
99968SOL    HW1 1736   7.422   7.328  12.742
99968SOL    HW2 1737   7.473   7.205  12.671
99969SOL     OW 1738   4.965   1.295  13.315
99969SOL    HW1 1739   4.921   1.210  13.320
99969SOL    HW2 1740   4.915   1.344  13.250
99970SOL     OW 1741   1.397   5.795  11.986
99970SOL    HW1 1742   1.369   5.742  12.061
99970SOL    HW2 1743   1.390   5.885  12.017
99971SOL     OW 1744  10.108  11.238   3.405
99971SOL    HW1 1745  10.060  11.215   3.484
99971SOL    HW2 1746  10.200  11.226   3.427
99972SOL     OW 1747  13.890  10.651  14.545
99972SOL    HW1 1748  13.880  10.662  14.450
99972SOL    HW2 1749  13.965  10.707  14.567
99973SOL     OW 1750  10.138   0.760   3.639
99973SOL    HW1 1751  10.124   0.709   3.719
99973SOL    HW2 1752  10.186   0.837   3.669
99974SOL     OW 1753   2.115  11.162   0.096
99974SOL    HW1 1754   2.117  11.130   0.186
99974SOL    HW2 1755   2.072  11.248   0.102
99975SOL     OW 1756   2.038   9.144   1.132
99975SOL    HW1 1757   2.062   9.099   1.212
99975SOL    HW2 1758   2.085   9.098   1.062
99976SOL     OW 1759   4.904  10.527   4.066
99976SOL    HW1 1760   4.946  10.571   4.140
99976SOL    HW2 1761   4.946  10.441   4.063
99977SOL     OW 1762   9.748   8.269  14.801
99977SOL    HW1 1763   9.684   8.337  14.822
99977SOL    HW2 1764   9.719   8.193  14.851
99978SOL     OW 1765   1.063  14.246  13.996
99978SOL    HW1 1766   1.063  14.277  14.086
99978SOL    HW2 1767   0.971  14.250  13.968
99979SOL     OW 1768   6.321   0.452   6.594
99979SOL    HW1 1769   6.261   0.381   6.571
99979SOL    HW2 1770   6.408   0.413   6.585
99980SOL     OW 1771   7.137   8.037   5.087
99980SOL    HW1 1772   7.215   8.035   5.033
99980SOL    HW2 1773   7.065   8.017   5.027
99981SOL     OW 1774   0.034   1.361   3.450
99981SOL    HW1 1775  14.866   1.431   3.501
99981SOL    HW2 1776  14.836   1.298   3.435
99982SOL     OW 1777  13.705   8.793  13.111
99982SOL    HW1 1778  13.733   8.882  13.133
99982SOL    HW2 1779  13.718   8.787  13.016
99983SOL     OW 1780   8.537   8.823   6.905
99983SOL    HW1 1781   8.596   8.897   6.889
99983SOL    HW2 1782   8.496   8.843   6.989
99984SOL     OW 1783   1.664   7.635   6.521
99984SOL    HW1 1784   1.679   7.648   6.615
99984SOL    HW2 1785   1.663   7.724   6.484
99985SOL     OW 1786  10.888  13.453   3.740
99985SOL    HW1 1787  10.865  13.511   3.667
99985SOL    HW2 1788  10.833  13.376   3.727
99986SOL     OW 1789   3.891   6.224  12.312
99986SOL    HW1 1790   3.886   6.313  12.277
99986SOL    HW2 1791   3.965   6.184  12.266
99987SOL     OW 1792   4.536   5.495  13.933
99987SOL    HW1 1793   4.494   5.579  13.950
99987SOL    HW2 1794   4.501   5.467  13.848
99988SOL     OW 1795   4.972   2.697   8.195
99988SOL    HW1 1796   4.891   2.733   8.159
99988SOL    HW2 1797   4.980   2.610   8.155
99989SOL     OW 1798  11.043   5.029   0.231
99989SOL    HW1 1799  11.076   5.089   0.298
99989SOL    HW2 1800  11.053   5.077   0.149
99990SOL     OW 1801  10.757  12.611   9.636
99990SOL    HW1 1802  10.687  12.556   9.672
99990SOL    HW2 1803  10.721  12.700   9.638
99991SOL     OW 1804   9.738   3.168   0.794
99991SOL    HW1 1805   9.800   3.241   0.781
99991SOL    HW2 1806   9.782   3.110   0.856
99992SOL     OW 1807   8.374   3.987   3.644
99992SOL    HW1 1808   8.377   3.897   3.612
99992SOL    HW2 1809   8.458   4.025   3.617
99993SOL     OW 1810  13.177   0.547   9.050
99993SOL    HW1 1811  13.202   0.497   9.127
99993SOL    HW2 1812  13.212   0.634   9.065
99994SOL     OW 1813   1.150   8.376   9.071
99994SOL    HW1 1814   1.198   8.301   9.037
99994SOL    HW2 1815   1.209   8.451   9.057
99995SOL     OW 1816   1.478   7.307   8.701
99995SOL    HW1 1817   1.382   7.312   8.693
99995SOL    HW2 1818   1.500   7.222   8.663
99996SOL     OW 1819   8.723   1.010  14.720
99996SOL    HW1 1820   8.754   1.031  14.632
99996SOL    HW2 1821   8.655   1.076  14.738
99997SOL     OW 1822   1.075   8.539   6.832
99997SOL    HW1 1823   1.163   8.500   6.837
99997SOL    HW2 1824   1.017   8.468   6.858
99998SOL     OW 1825   4.091   5.349   2.475
99998SOL    HW1 1826   4.150   5.312   2.540
99998SOL    HW2 1827   4.144   5.415   2.429
99999SOL     OW 1828   2.707   7.652  10.333
99999SOL    HW1 1829   2.626   7.608  10.359
99999SOL    HW2 1830   2.748   7.678  10.415
    0SOL     OW 1831   1.669  11.646   3.559
    0SOL    HW1 1832   1.656  11.583   3.488
    0SOL    HW2 1833   1.709  11.722   3.517
    1SOL     OW 1834   6.091   6.923   7.356
    1SOL    HW1 1835   6.169   6.953   7.403
    1SOL    HW2 1836   6.018   6.960   7.405
    2SOL     OW 1837  10.922   7.143   7.364
    2SOL    HW1 1838  10.890   7.215   7.311
    2SOL    HW2 1839  10.980   7.184   7.428
    3SOL     OW 1840   8.835   3.709  10.814
    3SOL    HW1 1841   8.919   3.736  10.777
    3SOL    HW2 1842   8.785   3.676  10.739
    4SOL     OW 1843  10.511   7.249   5.481
    4SOL    HW1 1844  10.470   7.288   5.558
    4SOL    HW2 1845  10.499   7.313   5.412
    5SOL     OW 1846  10.175   3.250   6.551
    5SOL    HW1 1847  10.243   3.309   6.585
    5SOL    HW2 1848  10.162   3.278   6.460
    6SOL     OW 1849   9.528   9.688  14.053
    6SOL    HW1 1850   9.603   9.709  14.109
    6SOL    HW2 1851   9.502   9.600  14.079
    7SOL     OW 1852  13.710  14.176   1.301
    7SOL    HW1 1853  13.762  14.170   1.381
    7SOL    HW2 1854  13.630  14.127   1.321
    8SOL     OW 1855  11.650   7.814   8.161
    8SOL    HW1 1856  11.694   7.890   8.124
    8SOL    HW2 1857  11.716   7.744   8.159
    9SOL     OW 1858   6.431  11.876   3.895
    9SOL    HW1 1859   6.485  11.883   3.975
    9SOL    HW2 1860   6.494  11.853   3.826
   10SOL     OW 1861  14.014   8.552   6.062
   10SOL    HW1 1862  13.959   8.508   6.126
   10SOL    HW2 1863  14.059   8.481   6.016
   11SOL     OW 1864  12.909  12.927   3.555
   11SOL    HW1 1865  12.858  12.974   3.489
   11SOL    HW2 1866  12.999  12.958   3.542
   12SOL     OW 1867  11.396  12.935   2.725
   12SOL    HW1 1868  11.444  12.972   2.651
   12SOL    HW2 1869  11.463  12.920   2.791
   13SOL     OW 1870   3.355  13.245  11.875
   13SOL    HW1 1871   3.404  13.322  11.905
   13SOL    HW2 1872   3.263  13.267  11.894
   14SOL     OW 1873  10.134  11.773   2.616
   14SOL    HW1 1874  10.056  11.778   2.672
   14SOL    HW2 1875  10.111  11.708   2.550
   15SOL     OW 1876   8.528   1.267   1.388
   15SOL    HW1 1877   8.612   1.299   1.420
   15SOL    HW2 1878   8.506   1.326   1.315
   16SOL     OW 1879   8.943   2.354   3.850
   16SOL    HW1 1880   8.901   2.332   3.933
   16SOL    HW2 1881   8.875   2.339   3.784
   17SOL     OW 1882   7.597   1.113   4.259
   17SOL    HW1 1883   7.599   1.208   4.270
   17SOL    HW2 1884   7.633   1.097   4.172
   18SOL     OW 1885   4.455  10.952  14.206
   18SOL    HW1 1886   4.398  10.918  14.137
   18SOL    HW2 1887   4.524  11.000  14.159
   19SOL     OW 1888   7.428   2.444   8.809
   19SOL    HW1 1889   7.362   2.410   8.749
   19SOL    HW2 1890   7.391   2.525   8.844
   20SOL     OW 1891   0.675  10.108   6.670
   20SOL    HW1 1892   0.667  10.026   6.622
   20SOL    HW2 1893   0.618  10.169   6.624
   21SOL     OW 1894   5.429  14.502   8.185
   21SOL    HW1 1895   5.484  14.432   8.149
   21SOL    HW2 1896   5.340  14.466   8.185
   22SOL     OW 1897   8.595  10.066   3.357
   22SOL    HW1 1898   8.654  10.139   3.376
   22SOL    HW2 1899   8.620  10.039   3.268
   23SOL     OW 1900   6.488   3.530  12.611
   23SOL    HW1 1901   6.444   3.452  12.578
   23SOL    HW2 1902   6.423   3.600  12.604
   24SOL     OW 1903   6.287   7.363   2.235
   24SOL    HW1 1904   6.381   7.345   2.231
   24SOL    HW2 1905   6.278   7.451   2.196
   25SOL     OW 1906  12.274   4.921  10.654
   25SOL    HW1 1907  12.213   4.995  10.656
   25SOL    HW2 1908  12.254   4.871  10.733
   26SOL     OW 1909   7.171   5.099   4.223
   26SOL    HW1 1910   7.153   5.044   4.147
   26SOL    HW2 1911   7.239   5.052   4.271
   27SOL     OW 1912   1.088  13.682   3.159
   27SOL    HW1 1913   1.056  13.634   3.235
   27SOL    HW2 1914   1.136  13.617   3.107
   28SOL     OW 1915   4.441  14.094  10.214
   28SOL    HW1 1916   4.488  14.119  10.135
   28SOL    HW2 1917   4.438  14.174  10.267
   29SOL     OW 1918   7.221   0.263   1.966
   29SOL    HW1 1919   7.195   0.327   1.899
   29SOL    HW2 1920   7.163   0.280   2.040
   30SOL     OW 1921   3.248   0.089  14.174
   30SOL    HW1 1922   3.254  14.871  14.207
   30SOL    HW2 1923   3.155   0.102  14.157
   31SOL     OW 1924  14.362   6.058   3.991
   31SOL    HW1 1925  14.286   6.054   3.933
   31SOL    HW2 1926  14.351   6.139   4.040
   32SOL     OW 1927  12.382   2.464   4.548
   32SOL    HW1 1928  12.423   2.509   4.622
   32SOL    HW2 1929  12.410   2.373   4.557
   33SOL     OW 1930   1.789   0.933   9.851
   33SOL    HW1 1931   1.861   0.973   9.802
   33SOL    HW2 1932   1.781   0.988   9.930
   34SOL     OW 1933   4.396   7.346   2.818
   34SOL    HW1 1934   4.307   7.322   2.791
   34SOL    HW2 1935   4.400   7.320   2.910
   35SOL     OW 1936   9.509   5.977  12.378
   35SOL    HW1 1937   9.542   6.041  12.314
   35SOL    HW2 1938   9.585   5.923  12.399
   36SOL     OW 1939   9.574   1.636   1.642
   36SOL    HW1 1940   9.597   1.717   1.688
   36SOL    HW2 1941   9.612   1.646   1.555
   37SOL     OW 1942  14.582   2.280   5.175
   37SOL    HW1 1943  14.626   2.321   5.249
   37SOL    HW2 1944  14.536   2.352   5.131
   38SOL     OW 1945   5.602   1.472  14.753
   38SOL    HW1 1946   5.636   1.534  14.817
   38SOL    HW2 1947   5.617   1.386  14.793
   39SOL     OW 1948   9.139   2.454   5.374
   39SOL    HW1 1949   9.225   2.497   5.371
   39SOL    HW2 1950   9.153   2.371   5.328
   40SOL     OW 1951   0.037   3.996   8.047
   40SOL    HW1 1952   0.039   3.921   7.988
   40SOL    HW2 1953   0.068   3.962   8.131
   41SOL     OW 1954   9.273   9.822   0.512
   41SOL    HW1 1955   9.206   9.889   0.495
   41SOL    HW2 1956   9.355   9.861   0.481
   42SOL     OW 1957   0.107   5.753   7.628
   42SOL    HW1 1958   0.053   5.799   7.692
   42SOL    HW2 1959   0.097   5.803   7.547
   43SOL     OW 1960  11.244   0.175   1.650
   43SOL    HW1 1961  11.330   0.216   1.644
   43SOL    HW2 1962  11.195   0.230   1.711
   44SOL     OW 1963  12.673   2.618  13.795
   44SOL    HW1 1964  12.578   2.606  13.804
   44SOL    HW2 1965  12.710   2.571  13.870
   45SOL     OW 1966   6.148   8.665   0.260
   45SOL    HW1 1967   6.101   8.748   0.249
   45SOL    HW2 1968   6.101   8.603   0.204
   46SOL     OW 1969  10.470  14.204  10.331
   46SOL    HW1 1970  10.439  14.123  10.288
   46SOL    HW2 1971  10.393  14.238  10.375
   47SOL     OW 1972   8.532   5.054   5.054
   47SOL    HW1 1973   8.453   5.064   5.107
   47SOL    HW2 1974   8.604   5.074   5.113
   48SOL     OW 1975   4.345  11.030   9.471
   48SOL    HW1 1976   4.292  11.007   9.547
   48SOL    HW2 1977   4.303  10.985   9.398
   49SOL     OW 1978   0.542  10.371   9.686
   49SOL    HW1 1979   0.459  10.370   9.639
   49SOL    HW2 1980   0.550  10.283   9.723
   50SOL     OW 1981   7.218   5.172  14.018
   50SOL    HW1 1982   7.242   5.136  14.104
   50SOL    HW2 1983   7.123   5.178  14.020
   51SOL     OW 1984   4.747   4.880   8.703
   51SOL    HW1 1985   4.687   4.946   8.737
   51SOL    HW2 1986   4.691   4.806   8.680
   52SOL     OW 1987  14.302   2.949  14.790
   52SOL    HW1 1988  14.222   2.902  14.770
   52SOL    HW2 1989  14.319   3.002  14.712
   53SOL     OW 1990  13.200  11.327   2.375
   53SOL    HW1 1991  13.188  11.235   2.353
   53SOL    HW2 1992  13.295  11.340   2.377
   54SOL     OW 1993   5.288   3.257   0.961
   54SOL    HW1 1994   5.379   3.277   0.985
   54SOL    HW2 1995   5.238   3.332   0.993
   55SOL     OW 1996   7.910  12.460  13.351
   55SOL    HW1 1997   7.856  12.539  13.348
   55SOL    HW2 1998   8.000  12.493  13.359
   56SOL     OW 1999   6.025  13.872   6.289
   56SOL    HW1 2000   6.054  13.905   6.374
   56SOL    HW2 2001   6.106  13.856   6.241
   57SOL     OW 2002   9.118   8.496   3.141
   57SOL    HW1 2003   9.142   8.447   3.220
   57SOL    HW2 2004   9.024   8.508   3.148
   58SOL     OW 2005   1.113  13.196   7.550
   58SOL    HW1 2006   1.185  13.134   7.537
   58SOL    HW2 2007   1.093  13.189   7.644
   59SOL     OW 2008   0.086   9.704   6.444
   59SOL    HW1 2009   0.040   9.690   6.526
   59SOL    HW2 2010   0.168   9.655   6.454
   60SOL     OW 2011  10.483   2.605  13.829
   60SOL    HW1 2012  10.554   2.666  13.807
   60SOL    HW2 2013  10.528   2.523  13.848
   61SOL     OW 2014  14.010   3.863  12.702
   61SOL    HW1 2015  14.007   3.777  12.742
   61SOL    HW2 2016  13.931   3.867  12.648
   62SOL     OW 2017   4.297   5.711   4.090
   62SOL    HW1 2018   4.281   5.779   4.155
   62SOL    HW2 2019   4.320   5.758   4.011
   63SOL     OW 2020  10.046   0.368   8.288
   63SOL    HW1 2021   9.961   0.362   8.244
   63SOL    HW2 2022  10.074   0.278   8.299
   64SOL     OW 2023   3.050   8.367   8.221
   64SOL    HW1 2024   3.023   8.360   8.313
   64SOL    HW2 2025   2.971   8.348   8.171
   65SOL     OW 2026   4.710  14.525   6.099
   65SOL    HW1 2027   4.654  14.502   6.025
   65SOL    HW2 2028   4.760  14.445   6.116
   66SOL     OW 2029   2.880  13.119   0.083
   66SOL    HW1 2030   2.935  13.068   0.143
   66SOL    HW2 2031   2.919  13.206   0.084
   67SOL     OW 2032  12.165   2.105   3.219
   67SOL    HW1 2033  12.137   2.191   3.187
   67SOL    HW2 2034  12.147   2.045   3.147
   68SOL     OW 2035   9.610   6.146   4.025
   68SOL    HW1 2036   9.642   6.161   3.936
   68SOL    HW2 2037   9.688   6.129   4.077
   69SOL     OW 2038  12.053   0.953   7.314
   69SOL    HW1 2039  12.036   1.027   7.256
   69SOL    HW2 2040  12.102   0.990   7.387
   70SOL     OW 2041   3.931  14.244   1.095
   70SOL    HW1 2042   3.922  14.218   1.187
   70SOL    HW2 2043   3.884  14.176   1.047
   71SOL     OW 2044   7.042  14.288   9.415
   71SOL    HW1 2045   7.053  14.333   9.331
   71SOL    HW2 2046   6.959  14.241   9.406
   72SOL     OW 2047   7.006   7.196   6.947
   72SOL    HW1 2048   6.930   7.217   6.892
   72SOL    HW2 2049   7.079   7.195   6.886
   73SOL     OW 2050  14.784   2.390  12.537
   73SOL    HW1 2051  14.778   2.376  12.442
   73SOL    HW2 2052   0.002   2.369  12.559
   74SOL     OW 2053   1.208   3.110   2.273
   74SOL    HW1 2054   1.213   3.131   2.180
   74SOL    HW2 2055   1.130   3.054   2.281
   75SOL     OW 2056   7.425   7.658   3.240
   75SOL    HW1 2057   7.426   7.754   3.247
   75SOL    HW2 2058   7.364   7.630   3.309
   76SOL     OW 2059   0.313   8.486   4.568
   76SOL    HW1 2060   0.390   8.515   4.617
   76SOL    HW2 2061   0.239   8.528   4.613
   77SOL     OW 2062   6.743   4.061  11.153
   77SOL    HW1 2063   6.711   3.972  11.139
   77SOL    HW2 2064   6.799   4.079  11.078
   78SOL     OW 2065  13.436  10.526   8.178
   78SOL    HW1 2066  13.480  10.604   8.146
   78SOL    HW2 2067  13.506  10.470   8.212
   79SOL     OW 2068   4.698  11.068   9.788
   79SOL    HW1 2069   4.743  11.113   9.860
   79SOL    HW2 2070   4.750  11.089   9.711
   80SOL     OW 2071  12.595   2.767   3.964
   80SOL    HW1 2072  12.504   2.738   3.963
   80SOL    HW2 2073  12.645   2.689   3.989
   81SOL     OW 2074  11.740   5.277   4.700
   81SOL    HW1 2075  11.664   5.291   4.644
   81SOL    HW2 2076  11.751   5.182   4.703
   82SOL     OW 2077  12.136   3.473   8.326
   82SOL    HW1 2078  12.102   3.403   8.271
   82SOL    HW2 2079  12.226   3.487   8.295
   83SOL     OW 2080   9.429   4.239   7.678
   83SOL    HW1 2081   9.431   4.229   7.583
   83SOL    HW2 2082   9.345   4.281   7.695
   84SOL     OW 2083   0.390   0.735  13.936
   84SOL    HW1 2084   0.321   0.713  13.874
   84SOL    HW2 2085   0.423   0.820  13.907
   85SOL     OW 2086   3.543   0.258   3.641
   85SOL    HW1 2087   3.539   0.208   3.723
   85SOL    HW2 2088   3.490   0.208   3.580
   86SOL     OW 2089  12.384   1.556   5.669
   86SOL    HW1 2090  12.459   1.527   5.721
   86SOL    HW2 2091  12.319   1.486   5.680
   87SOL     OW 2092  13.095  10.396   1.172
   87SOL    HW1 2093  13.175  10.343   1.175
   87SOL    HW2 2094  13.025  10.333   1.186
   88SOL     OW 2095  12.975  13.952   3.243
   88SOL    HW1 2096  12.938  13.878   3.292
   88SOL    HW2 2097  12.902  13.986   3.192
   89SOL     OW 2098  10.772   2.602  11.128
   89SOL    HW1 2099  10.814   2.575  11.210
   89SOL    HW2 2100  10.841   2.592  11.062
   90SOL     OW 2101   9.880   9.695   0.003
   90SOL    HW1 2102   9.941   9.650  14.818
   90SOL    HW2 2103   9.919   9.689   0.090
   91SOL     OW 2104  11.655   0.442   9.945
   91SOL    HW1 2105  11.623   0.357   9.915
   91SOL    HW2 2106  11.587   0.473  10.004
   92SOL     OW 2107   4.766   6.069   7.174
   92SOL    HW1 2108   4.789   6.015   7.249
   92SOL    HW2 2109   4.849   6.087   7.131
   93SOL     OW 2110   2.614   1.817  12.227
   93SOL    HW1 2111   2.587   1.859  12.146
   93SOL    HW2 2112   2.693   1.768  12.203
   94SOL     OW 2113   4.148   1.139   9.091
   94SOL    HW1 2114   4.124   1.048   9.076
   94SOL    HW2 2115   4.181   1.141   9.181
   95SOL     OW 2116   4.188   9.723   8.387
   95SOL    HW1 2117   4.229   9.722   8.474
   95SOL    HW2 2118   4.096   9.744   8.404
   96SOL     OW 2119  10.801   2.080   4.655
   96SOL    HW1 2120  10.874   2.109   4.599
   96SOL    HW2 2121  10.760   2.009   4.605
   97SOL     OW 2122   0.524   2.183   9.103
   97SOL    HW1 2123   0.441   2.161   9.146
   97SOL    HW2 2124   0.563   2.250   9.159
   98SOL     OW 2125   6.068  13.292   2.395
   98SOL    HW1 2126   5.988  13.305   2.345
   98SOL    HW2 2127   6.108  13.214   2.358
   99SOL     OW 2128   0.528   1.598   7.276
   99SOL    HW1 2129   0.615   1.637   7.289
   99SOL    HW2 2130   0.547   1.508   7.251
  100SOL     OW 2131  14.499   3.834   8.142
  100SOL    HW1 2132  14.578   3.787   8.171
  100SOL    HW2 2133  14.510   3.922   8.176
  101SOL     OW 2134  10.896   1.323   5.515
  101SOL    HW1 2135  10.963   1.306   5.448
  101SOL    HW2 2136  10.936   1.389   5.571
  102SOL     OW 2137   0.137   3.596   7.299
  102SOL    HW1 2138   0.067   3.538   7.328
  102SOL    HW2 2139   0.161   3.563   7.212
  103SOL     OW 2140   6.660   0.493  11.146
  103SOL    HW1 2141   6.740   0.501  11.197
  103SOL    HW2 2142   6.637   0.400  11.151
  104SOL     OW 2143  10.304   1.056   5.539
  104SOL    HW1 2144  10.378   1.113   5.560
  104SOL    HW2 2145  10.257   1.046   5.621
  105SOL     OW 2146   0.698   1.413   7.804
  105SOL    HW1 2147   0.755   1.481   7.839
  105SOL    HW2 2148   0.751   1.333   7.806
  106SOL     OW 2149   0.545  10.496   7.027
  106SOL    HW1 2150   0.484  10.451   6.968
  106SOL    HW2 2151   0.499  10.499   7.111
  107SOL     OW 2152   1.202   5.469  13.938
  107SOL    HW1 2153   1.230   5.399  13.998
  107SOL    HW2 2154   1.121   5.437  13.900
  108SOL     OW 2155  13.682  13.470   3.814
  108SOL    HW1 2156  13.665  13.560   3.844
  108SOL    HW2 2157  13.704  13.480   3.722
  109SOL     OW 2158  10.591   4.092   2.797
  109SOL    HW1 2159  10.501   4.078   2.765
  109SOL    HW2 2160  10.635   4.137   2.725
  110SOL     OW 2161  14.515   8.611  13.741
  110SOL    HW1 2162  14.427   8.575  13.752
  110SOL    HW2 2163  14.566   8.572  13.812
  111SOL     OW 2164  12.590   6.696   5.958
  111SOL    HW1 2165  12.593   6.788   5.981
  111SOL    HW2 2166  12.506   6.684   5.913
  112SOL     OW 2167   2.907  10.396  12.023
  112SOL    HW1 2168   2.879  10.484  12.050
  112SOL    HW2 2169   2.982  10.376  12.079
  113SOL     OW 2170   6.826   4.484  14.202
  113SOL    HW1 2171   6.803   4.393  14.222
  113SOL    HW2 2172   6.858   4.520  14.285
  114SOL     OW 2173   4.180   7.624  11.970
  114SOL    HW1 2174   4.131   7.695  11.929
  114SOL    HW2 2175   4.217   7.663  12.049
  115SOL     OW 2176   7.069  12.885   7.251
  115SOL    HW1 2177   7.145  12.830   7.233
  115SOL    HW2 2178   6.994  12.833   7.219
  116SOL     OW 2179   9.175   3.983   6.553
  116SOL    HW1 2180   9.194   3.903   6.602
  116SOL    HW2 2181   9.248   3.993   6.492
  117SOL     OW 2182   0.278  14.715   7.787
  117SOL    HW1 2183   0.360  14.763   7.773
  117SOL    HW2 2184   0.237  14.758   7.862
  118SOL     OW 2185   0.048  10.540   7.952
  118SOL    HW1 2186   0.137  10.555   7.919
  118SOL    HW2 2187   0.059  10.487   8.031
  119SOL     OW 2188  12.459   4.858  10.101
  119SOL    HW1 2189  12.485   4.949  10.089
  119SOL    HW2 2190  12.501   4.832  10.183
  120SOL     OW 2191   1.596  14.796  10.300
  120SOL    HW1 2192   1.578  14.850  10.376
  120SOL    HW2 2193   1.656  14.729  10.332
  121SOL     OW 2194   6.504   3.655   9.684
  121SOL    HW1 2195   6.560   3.639   9.608
  121SOL    HW2 2196   6.444   3.581   9.687
  122SOL     OW 2197  11.909   9.152   8.603
  122SOL    HW1 2198  11.953   9.226   8.560
  122SOL    HW2 2199  11.964   9.132   8.679
  123SOL     OW 2200  12.571   5.435  14.177
  123SOL    HW1 2201  12.666   5.424  14.175
  123SOL    HW2 2202  12.556   5.521  14.137
  124SOL     OW 2203   9.915  12.652  12.609
  124SOL    HW1 2204   9.873  12.719  12.556
  124SOL    HW2 2205   9.958  12.594  12.546
  125SOL     OW 2206   0.275  13.759   2.467
  125SOL    HW1 2207   0.334  13.772   2.541
  125SOL    HW2 2208   0.249  13.667   2.473
  126SOL     OW 2209   5.995  11.461   3.043
  126SOL    HW1 2210   5.964  11.398   2.978
  126SOL    HW2 2211   5.918  11.482   3.095
  127SOL     OW 2212   2.445   8.049   6.485
  127SOL    HW1 2213   2.512   8.008   6.430
  127SOL    HW2 2214   2.382   7.979   6.503
  128SOL     OW 2215   4.908  10.576   7.653
  128SOL    HW1 2216   4.952  10.657   7.626
  128SOL    HW2 2217   4.971  10.507   7.633
  129SOL     OW 2218  13.591   7.840   3.028
  129SOL    HW1 2219  13.574   7.930   3.001
  129SOL    HW2 2220  13.600   7.792   2.946
  130SOL     OW 2221   3.281  10.364  10.412
  130SOL    HW1 2222   3.198  10.346  10.455
  130SOL    HW2 2223   3.283  10.459  10.401
  131SOL     OW 2224  13.633  13.374   1.154
  131SOL    HW1 2225  13.601  13.288   1.129
  131SOL    HW2 2226  13.559  13.433   1.139
  132SOL     OW 2227  10.238  11.035   9.092
  132SOL    HW1 2228  10.167  10.975   9.068
  132SOL    HW2 2229  10.254  11.017   9.184
  133SOL     OW 2230  11.139  10.387   4.823
  133SOL    HW1 2231  11.096  10.472   4.826
  133SOL    HW2 2232  11.204  10.396   4.753
  134SOL     OW 2233   0.456  10.763   0.023
  134SOL    HW1 2234   0.527  10.806   0.072
  134SOL    HW2 2235   0.486  10.763  14.804
  135SOL     OW 2236   6.452  10.092  14.513
  135SOL    HW1 2237   6.447  10.164  14.450
  135SOL    HW2 2238   6.374  10.040  14.495
  136SOL     OW 2239   1.187  10.976   9.139
  136SOL    HW1 2240   1.160  10.984   9.048
  136SOL    HW2 2241   1.282  10.982   9.137
  137SOL     OW 2242   3.432  11.881   1.772
  137SOL    HW1 2243   3.470  11.867   1.858
  137SOL    HW2 2244   3.372  11.955   1.784
  138SOL     OW 2245  11.949   5.946   6.023
  138SOL    HW1 2246  11.905   5.875   5.977
  138SOL    HW2 2247  11.883   5.979   6.085
  139SOL     OW 2248   6.812  14.209   5.612
  139SOL    HW1 2249   6.753  14.179   5.681
  139SOL    HW2 2250   6.790  14.302   5.600
  140SOL     OW 2251   8.513   3.416  11.499
  140SOL    HW1 2252   8.499   3.477  11.571
  140SOL    HW2 2253   8.542   3.335  11.540
  141SOL     OW 2254   2.883  12.581   0.619
  141SOL    HW1 2255   2.800  12.626   0.635
  141SOL    HW2 2256   2.934  12.642   0.566
  142SOL     OW 2257   3.295   7.960   1.597
  142SOL    HW1 2258   3.227   8.009   1.551
  142SOL    HW2 2259   3.373   7.972   1.543
  143SOL     OW 2260   1.971   8.130  12.209
  143SOL    HW1 2261   1.923   8.087  12.280
  143SOL    HW2 2262   2.063   8.124  12.234
  144SOL     OW 2263   8.045   6.748   8.717
  144SOL    HW1 2264   8.083   6.770   8.802
  144SOL    HW2 2265   7.953   6.773   8.724
  145SOL     OW 2266   7.976   3.137  10.573
  145SOL    HW1 2267   8.070   3.119  10.567
  145SOL    HW2 2268   7.935   3.063  10.528
  146SOL     OW 2269   3.985  12.985   3.141
  146SOL    HW1 2270   3.959  13.073   3.167
  146SOL    HW2 2271   4.069  12.970   3.183
  147SOL     OW 2272  13.585   5.175   0.959
  147SOL    HW1 2273  13.553   5.203   1.044
  147SOL    HW2 2274  13.555   5.085   0.950
  148SOL     OW 2275  13.351   8.415  11.046
  148SOL    HW1 2276  13.349   8.387  11.137
  148SOL    HW2 2277  13.329   8.508  11.049
  149SOL     OW 2278   2.617  14.634   9.845
  149SOL    HW1 2279   2.667  14.560   9.808
  149SOL    HW2 2280   2.614  14.698   9.773
  150SOL     OW 2281   8.503   7.744   8.917
  150SOL    HW1 2282   8.588   7.736   8.961
  150SOL    HW2 2283   8.474   7.833   8.938
  151SOL     OW 2284   4.157   5.737   0.315
  151SOL    HW1 2285   4.062   5.741   0.324
  151SOL    HW2 2286   4.172   5.694   0.231
  152SOL     OW 2287   3.949   1.891  11.934
  152SOL    HW1 2288   3.874   1.834  11.948
  152SOL    HW2 2289   4.024   1.831  11.928
  153SOL     OW 2290   0.515   9.568   8.005
  153SOL    HW1 2291   0.513   9.476   8.032
  153SOL    HW2 2292   0.607   9.592   8.010
  154SOL     OW 2293   9.224  14.865  10.751
  154SOL    HW1 2294   9.220  14.797  10.819
  154SOL    HW2 2295   9.137   0.032  10.751
  155SOL     OW 2296  10.733   3.621  14.735
  155SOL    HW1 2297  10.753   3.640  14.644
  155SOL    HW2 2298  10.638   3.630  14.741
  156SOL     OW 2299   0.843   7.378   4.772
  156SOL    HW1 2300   0.936   7.362   4.788
  156SOL    HW2 2301   0.840   7.416   4.684
  157SOL     OW 2302  12.928   2.876   7.504
  157SOL    HW1 2303  12.881   2.918   7.577
  157SOL    HW2 2304  13.021   2.888   7.526
  158SOL     OW 2305   6.622   8.842  12.989
  158SOL    HW1 2306   6.544   8.839  12.934
  158SOL    HW2 2307   6.675   8.913  12.952
  159SOL     OW 2308  13.133   9.485   5.865
  159SOL    HW1 2309  13.043   9.468   5.837
  159SOL    HW2 2310  13.140   9.580   5.863
  160SOL     OW 2311   2.702   2.091   6.544
  160SOL    HW1 2312   2.662   2.004   6.547
  160SOL    HW2 2313   2.796   2.073   6.533
  161SOL     OW 2314  11.740   7.589   9.737
  161SOL    HW1 2315  11.654   7.571   9.700
  161SOL    HW2 2316  11.794   7.616   9.663
  162SOL     OW 2317   5.671   7.637  14.564
  162SOL    HW1 2318   5.692   7.614  14.655
  162SOL    HW2 2319   5.755   7.630  14.518
  163SOL     OW 2320   6.070   4.458   6.031
  163SOL    HW1 2321   6.078   4.405   6.111
  163SOL    HW2 2322   5.977   4.479   6.026
  164SOL     OW 2323   8.997   2.330   1.741
  164SOL    HW1 2324   8.947   2.269   1.795
  164SOL    HW2 2325   8.959   2.324   1.654
  165SOL     OW 2326   0.499   3.650  12.650
  165SOL    HW1 2327   0.519   3.737  12.616
  165SOL    HW2 2328   0.553   3.641  12.728
  166SOL     OW 2329   1.663   2.006   3.035
  166SOL    HW1 2330   1.700   2.058   3.106
  166SOL    HW2 2331   1.738   1.984   2.979
  167SOL     OW 2332   6.624   7.962   7.686
  167SOL    HW1 2333   6.601   8.019   7.613
  167SOL    HW2 2334   6.662   8.021   7.751
  168SOL     OW 2335   3.301  10.165   2.052
  168SOL    HW1 2336   3.319  10.154   2.145
  168SOL    HW2 2337   3.287  10.076   2.020
  169SOL     OW 2338  12.636   0.330  13.578
  169SOL    HW1 2339  12.717   0.296  13.538
  169SOL    HW2 2340  12.644   0.307  13.670
  170SOL     OW 2341  12.756  14.868   7.617
  170SOL    HW1 2342  12.679   0.016   7.565
  170SOL    HW2 2343  12.829   0.002   7.555
  171SOL     OW 2344  12.758   6.498   1.314
  171SOL    HW1 2345  12.815   6.433   1.273
  171SOL    HW2 2346  12.677   6.451   1.332
  172SOL     OW 2347   2.860  11.213   7.301
  172SOL    HW1 2348   2.845  11.226   7.395
  172SOL    HW2 2349   2.878  11.301   7.267
  173SOL     OW 2350   2.417   6.875   4.914
  173SOL    HW1 2351   2.422   6.961   4.872
  173SOL    HW2 2352   2.422   6.813   4.841
  174SOL     OW 2353   8.879  13.041   8.799
  174SOL    HW1 2354   8.841  13.043   8.711
  174SOL    HW2 2355   8.952  12.979   8.791
  175SOL     OW 2356  14.814  10.148  11.408
  175SOL    HW1 2357  14.863  10.078  11.363
  175SOL    HW2 2358  14.868  10.168  11.485
  176SOL     OW 2359   1.660   7.952   8.284
  176SOL    HW1 2360   1.729   8.019   8.283
  176SOL    HW2 2361   1.706   7.870   8.265
  177SOL     OW 2362  13.411   9.301   4.755
  177SOL    HW1 2363  13.402   9.396   4.767
  177SOL    HW2 2364  13.501   9.282   4.784
  178SOL     OW 2365   1.965  12.097   4.593
  178SOL    HW1 2366   1.972  12.011   4.635
  178SOL    HW2 2367   1.871  12.114   4.589
  179SOL     OW 2368   3.658   1.864   8.075
  179SOL    HW1 2369   3.717   1.806   8.028
  179SOL    HW2 2370   3.577   1.814   8.085
  180SOL     OW 2371   8.720   7.382   2.878
  180SOL    HW1 2372   8.799   7.342   2.914
  180SOL    HW2 2373   8.739   7.476   2.878
  181SOL     OW 2374  10.464   2.516   1.739
  181SOL    HW1 2375  10.412   2.505   1.659
  181SOL    HW2 2376  10.445   2.604   1.769
  182SOL     OW 2377   4.574   7.504   1.002
  182SOL    HW1 2378   4.510   7.575   1.001
  182SOL    HW2 2379   4.560   7.460   1.086
  183SOL     OW 2380   6.475  13.138   8.171
  183SOL    HW1 2381   6.544  13.079   8.140
  183SOL    HW2 2382   6.394  13.097   8.142
  184SOL     OW 2383   6.210   9.992  14.464
  184SOL    HW1 2384   6.141  10.044  14.505
  184SOL    HW2 2385   6.173   9.963  14.381
  185SOL     OW 2386   9.328   6.539   1.746
  185SOL    HW1 2387   9.247   6.590   1.739
  185SOL    HW2 2388   9.332   6.513   1.838
  186SOL     OW 2389   2.865   6.358   2.143
  186SOL    HW1 2390   2.881   6.272   2.103
  186SOL    HW2 2391   2.937   6.370   2.205
  187SOL     OW 2392   2.378   6.886  13.042
  187SOL    HW1 2393   2.384   6.839  12.959
  187SOL    HW2 2394   2.452   6.854  13.094
  188SOL     OW 2395   9.190  13.189   8.612
  188SOL    HW1 2396   9.098  13.164   8.601
  188SOL    HW2 2397   9.219  13.214   8.524
  189SOL     OW 2398   0.402  10.765   6.859
  189SOL    HW1 2399   0.445  10.819   6.926
  189SOL    HW2 2400   0.400  10.820   6.781
  190SOL     OW 2401   5.359   9.480  12.572
  190SOL    HW1 2402   5.453   9.488  12.592
  190SOL    HW2 2403   5.322   9.562  12.604
  191SOL     OW 2404   2.312   2.133   1.635
  191SOL    HW1 2405   2.293   2.217   1.594
  191SOL    HW2 2406   2.289   2.068   1.568
  192SOL     OW 2407   5.238   4.132   9.539
  192SOL    HW1 2408   5.185   4.172   9.608
  192SOL    HW2 2409   5.272   4.051   9.579
  193SOL     OW 2410   5.693  10.041   7.710
  193SOL    HW1 2411   5.771   9.998   7.747
  193SOL    HW2 2412   5.678   9.996   7.627
  194SOL     OW 2413   4.240  12.343   2.891
  194SOL    HW1 2414   4.276  12.397   2.820
  194SOL    HW2 2415   4.269  12.254   2.870
  195SOL     OW 2416   2.491  11.958   5.340
  195SOL    HW1 2417   2.531  12.040   5.368
  195SOL    HW2 2418   2.412  11.951   5.394
  196SOL     OW 2419   2.712  11.824   5.293
  196SOL    HW1 2420   2.633  11.851   5.340
  196SOL    HW2 2421   2.716  11.729   5.306
  197SOL     OW 2422  13.421   7.473   1.841
  197SOL    HW1 2423  13.366   7.548   1.817
  197SOL    HW2 2424  13.487   7.510   1.900
  198SOL     OW 2425   1.917   5.793   8.327
  198SOL    HW1 2426   1.909   5.887   8.345
  198SOL    HW2 2427   2.003   5.769   8.360
  199SOL     OW 2428   7.720   7.335   7.458
  199SOL    HW1 2429   7.630   7.353   7.433
  199SOL    HW2 2430   7.773   7.391   7.402
  200SOL     OW 2431   3.154   1.022   5.046
  200SOL    HW1 2432   3.156   1.098   5.104
  200SOL    HW2 2433   3.137   0.948   5.105
  201SOL     OW 2434  13.285   8.035  10.631
  201SOL    HW1 2435  13.189   8.038  10.632
  201SOL    HW2 2436  13.306   7.948  10.596
  202SOL     OW 2437   0.330  13.808  11.101
  202SOL    HW1 2438   0.264  13.845  11.042
  202SOL    HW2 2439   0.399  13.874  11.104
  203SOL     OW 2440   0.394   1.399   9.966
  203SOL    HW1 2441   0.360   1.311   9.952
  203SOL    HW2 2442   0.332   1.456   9.921
  204SOL     OW 2443   0.671   6.747  12.305
  204SOL    HW1 2444   0.655   6.653  12.308
  204SOL    HW2 2445   0.721   6.761  12.224
  205SOL     OW 2446   0.413  13.204  11.174
  205SOL    HW1 2447   0.455  13.200  11.089
  205SOL    HW2 2448   0.414  13.114  11.206
  206SOL     OW 2449   9.670   7.115   0.842
  206SOL    HW1 2450   9.712   7.067   0.771
  206SOL    HW2 2451   9.709   7.202   0.839
  207SOL     OW 2452   4.483   4.248   3.680
  207SOL    HW1 2453   4.455   4.297   3.603
  207SOL    HW2 2454   4.510   4.315   3.743
  208SOL     OW 2455   0.228   6.872   7.618
  208SOL    HW1 2456   0.265   6.891   7.704
  208SOL    HW2 2457   0.293   6.816   7.576
  209SOL     OW 2458   4.490  11.242   5.280
  209SOL    HW1 2459   4.525  11.251   5.192
  209SOL    HW2 2460   4.492  11.330   5.317
  210SOL     OW 2461   7.649  12.486   5.933
  210SOL    HW1 2462   7.739  12.518   5.933
  210SOL    HW2 2463   7.630  12.467   5.841
  211SOL     OW 2464  14.022   4.837   3.827
  211SOL    HW1 2465  14.012   4.749   3.790
  211SOL    HW2 2466  13.975   4.894   3.767
  212SOL     OW 2467   0.009  13.261   6.035
  212SOL    HW1 2468  14.794  13.291   6.007
  212SOL    HW2 2469   0.069  13.329   6.005
  213SOL     OW 2470   2.787   3.204  13.376
  213SOL    HW1 2471   2.791   3.272  13.443
  213SOL    HW2 2472   2.727   3.238  13.310
  214SOL     OW 2473  10.011   2.407   6.902
  214SOL    HW1 2474  10.001   2.441   6.813
  214SOL    HW2 2475  10.059   2.476   6.948
  215SOL     OW 2476   2.702   0.136   5.399
  215SOL    HW1 2477   2.621   0.185   5.389
  215SOL    HW2 2478   2.674   0.050   5.432
  216SOL     OW 2479  10.151  14.098   1.017
  216SOL    HW1 2480  10.163  14.051   1.100
  216SOL    HW2 2481  10.125  14.030   0.955
  217SOL     OW 2482  12.645   1.461   9.146
  217SOL    HW1 2483  12.730   1.433   9.181
  217SOL    HW2 2484  12.642   1.422   9.058
  218SOL     OW 2485  13.345   7.518   8.190
  218SOL    HW1 2486  13.264   7.562   8.163
  218SOL    HW2 2487  13.316   7.445   8.245
  219SOL     OW 2488   8.212  11.596   2.499
  219SOL    HW1 2489   8.307  11.597   2.502
  219SOL    HW2 2490   8.191  11.536   2.427
  220SOL     OW 2491   1.272   4.155   9.496
  220SOL    HW1 2492   1.197   4.208   9.469
  220SOL    HW2 2493   1.246   4.065   9.474
  221SOL     OW 2494  13.473   9.029   0.889
  221SOL    HW1 2495  13.473   9.120   0.860
  221SOL    HW2 2496  13.405   9.026   0.957
  222SOL     OW 2497   7.504   3.176   5.363
  222SOL    HW1 2498   7.495   3.193   5.269
  222SOL    HW2 2499   7.559   3.248   5.394
  223SOL     OW 2500   4.121   9.255   1.884
  223SOL    HW1 2501   4.215   9.274   1.875
  223SOL    HW2 2502   4.096   9.219   1.799
  224SOL     OW 2503   2.373   7.552   2.932
  224SOL    HW1 2504   2.292   7.602   2.920
  224SOL    HW2 2505   2.350   7.481   2.991
  225SOL     OW 2506   4.601   4.329   4.923
  225SOL    HW1 2507   4.563   4.278   4.852
  225SOL    HW2 2508   4.679   4.370   4.885
  226SOL     OW 2509   4.671  10.446   5.304
  226SOL    HW1 2510   4.650  10.466   5.212
  226SOL    HW2 2511   4.629  10.362   5.321
  227SOL     OW 2512  14.750   1.288  10.631
  227SOL    HW1 2513  14.765   1.310  10.723
  227SOL    HW2 2514  14.740   1.193  10.631
  228SOL     OW 2515   8.014  14.508   5.875
  228SOL    HW1 2516   7.995  14.529   5.783
  228SOL    HW2 2517   7.930  14.518   5.920
  229SOL     OW 2518   3.090  10.921   8.533
  229SOL    HW1 2519   3.121  10.961   8.451
  229SOL    HW2 2520   3.023  10.982   8.565
  230SOL     OW 2521   5.973  11.609  10.880
  230SOL    HW1 2522   6.016  11.553  10.945
  230SOL    HW2 2523   6.044  11.653  10.834
  231SOL     OW 2524  10.650   7.057  14.217
  231SOL    HW1 2525  10.741   7.045  14.243
  231SOL    HW2 2526  10.636   7.151  14.223
  232SOL     OW 2527   5.726  10.989   2.011
  232SOL    HW1 2528   5.689  11.057   2.068
  232SOL    HW2 2529   5.699  10.907   2.052
  233SOL     OW 2530   1.210   1.467   3.625
  233SOL    HW1 2531   1.272   1.394   3.624
  233SOL    HW2 2532   1.140   1.440   3.566
  234SOL     OW 2533   4.485   4.413   6.023
  234SOL    HW1 2534   4.406   4.372   6.059
  234SOL    HW2 2535   4.553   4.347   6.032
  235SOL     OW 2536  10.616   0.808  13.842
  235SOL    HW1 2537  10.670   0.842  13.914
  235SOL    HW2 2538  10.670   0.738  13.804
  236SOL     OW 2539   7.204   4.891   7.737
  236SOL    HW1 2540   7.109   4.906   7.737
  236SOL    HW2 2541   7.242   4.979   7.734
  237SOL     OW 2542   1.103   7.855   0.833
  237SOL    HW1 2543   1.026   7.908   0.811
  237SOL    HW2 2544   1.067   7.768   0.850
  238SOL     OW 2545  13.419  11.002   9.569
  238SOL    HW1 2546  13.366  10.993   9.490
  238SOL    HW2 2547  13.424  11.097   9.583
  239SOL     OW 2548   5.519   4.876  11.166
  239SOL    HW1 2549   5.479   4.887  11.252
  239SOL    HW2 2550   5.460   4.817  11.119
  240SOL     OW 2551  10.110   2.769   3.105
  240SOL    HW1 2552  10.055   2.727   3.039
  240SOL    HW2 2553  10.114   2.706   3.177
  241SOL     OW 2554  13.343  11.055   8.658
  241SOL    HW1 2555  13.320  11.148   8.654
  241SOL    HW2 2556  13.316  11.027   8.745
  242SOL     OW 2557  12.166  13.501   3.627
  242SOL    HW1 2558  12.087  13.554   3.633
  242SOL    HW2 2559  12.162  13.444   3.704
  243SOL     OW 2560  14.812   9.005   0.435
  243SOL    HW1 2561   0.009   8.957   0.390
  243SOL    HW2 2562  14.835   8.999   0.528
  244SOL     OW 2563  12.729   4.004  13.535
  244SOL    HW1 2564  12.636   3.982  13.546
  244SOL    HW2 2565  12.752   3.967  13.450
  245SOL     OW 2566  13.449   8.416   4.683
  245SOL    HW1 2567  13.541   8.398   4.665
  245SOL    HW2 2568  13.447   8.444   4.775
  246SOL     OW 2569   8.874   9.433  10.517
  246SOL    HW1 2570   8.794   9.396  10.554
  246SOL    HW2 2571   8.885   9.388  10.433
  247SOL     OW 2572  11.087   7.833  12.337
  247SOL    HW1 2573  11.025   7.828  12.265
  247SOL    HW2 2574  11.156   7.892  12.306
  248SOL     OW 2575   5.147  12.901   3.892
  248SOL    HW1 2576   5.109  12.989   3.885
  248SOL    HW2 2577   5.116  12.856   3.814
  249SOL     OW 2578   4.142   5.886   5.814
  249SOL    HW1 2579   4.063   5.895   5.868
  249SOL    HW2 2580   4.212   5.924   5.867
  250SOL     OW 2581   5.249   1.063   5.028
  250SOL    HW1 2582   5.312   1.048   5.098
  250SOL    HW2 2583   5.177   1.110   5.070
  251SOL     OW 2584   8.806  10.343   7.589
  251SOL    HW1 2585   8.711  10.336   7.580
  251SOL    HW2 2586   8.831  10.268   7.642
  252SOL     OW 2587   8.567  12.450  11.724
  252SOL    HW1 2588   8.506  12.522  11.741
  252SOL    HW2 2589   8.512  12.373  11.713
  253SOL     OW 2590   0.713  11.256   7.005
  253SOL    HW1 2591   0.711  11.195   7.079
  253SOL    HW2 2592   0.625  11.253   6.969
  254SOL     OW 2593   4.072   3.088  14.350
  254SOL    HW1 2594   4.097   3.162  14.406
  254SOL    HW2 2595   4.153   3.061  14.308
  255SOL     OW 2596   7.720   6.023  11.015
  255SOL    HW1 2597   7.692   5.966  10.943
  255SOL    HW2 2598   7.787   5.973  11.061
  256SOL     OW 2599  11.955   3.022  10.135
  256SOL    HW1 2600  12.038   2.985  10.166
  256SOL    HW2 2601  11.981   3.081  10.064
  257SOL     OW 2602  14.663   0.382   3.214
  257SOL    HW1 2603  14.675   0.297   3.174
  257SOL    HW2 2604  14.748   0.426   3.205
  258SOL     OW 2605   5.987  13.324  14.444
  258SOL    HW1 2606   5.927  13.373  14.500
  258SOL    HW2 2607   5.939  13.312  14.362
  259SOL     OW 2608   5.992  12.369  14.106
  259SOL    HW1 2609   5.973  12.353  14.198
  259SOL    HW2 2610   6.058  12.304  14.083
  260SOL     OW 2611   3.369   8.462   3.451
  260SOL    HW1 2612   3.422   8.497   3.380
  260SOL    HW2 2613   3.286   8.510   3.446
  261SOL     OW 2614   9.190  12.124   5.519
  261SOL    HW1 2615   9.102  12.121   5.556
  261SOL    HW2 2616   9.176  12.127   5.424
  262SOL     OW 2617   3.547   0.777  10.375
  262SOL    HW1 2618   3.592   0.843  10.323
  262SOL    HW2 2619   3.608   0.704  10.380
  263SOL     OW 2620   8.263   9.085   8.919
  263SOL    HW1 2621   8.332   9.075   8.854
  263SOL    HW2 2622   8.236   8.995   8.941
  264SOL     OW 2623  13.837  11.601  11.152
  264SOL    HW1 2624  13.816  11.665  11.220
  264SOL    HW2 2625  13.751  11.566  11.126
  265SOL     OW 2626   5.005   6.343   2.666
  265SOL    HW1 2627   5.099   6.329   2.675
  265SOL    HW2 2628   4.993   6.370   2.575
  266SOL     OW 2629   0.052  14.496   4.354
  266SOL    HW1 2630  14.845  14.533   4.393
  266SOL    HW2 2631   0.032  14.403   4.342
  267SOL     OW 2632   8.777   9.791   9.109
  267SOL    HW1 2633   8.855   9.740   9.131
  267SOL    HW2 2634   8.704   9.740   9.143
  268SOL     OW 2635  11.558  12.628   5.887
  268SOL    HW1 2636  11.654  12.623   5.894
  268SOL    HW2 2637  11.531  12.539   5.866
  269SOL     OW 2638   1.430   0.971  13.778
  269SOL    HW1 2639   1.409   1.031  13.706
  269SOL    HW2 2640   1.357   0.981  13.839
  270SOL     OW 2641   2.869  10.239  14.218
  270SOL    HW1 2642   2.852  10.329  14.190
  270SOL    HW2 2643   2.946  10.213  14.167
  271SOL     OW 2644   3.247  10.768   6.227
  271SOL    HW1 2645   3.316  10.788   6.289
  271SOL    HW2 2646   3.190  10.845   6.228
  272SOL     OW 2647  11.476   6.852   3.648
  272SOL    HW1 2648  11.401   6.890   3.694
  272SOL    HW2 2649  11.493   6.912   3.576
  273SOL     OW 2650   8.363  13.596   1.846
  273SOL    HW1 2651   8.397  13.550   1.922
  273SOL    HW2 2652   8.357  13.528   1.778
  274SOL     OW 2653   7.899   7.840  10.666
  274SOL    HW1 2654   7.993   7.834  10.647
  274SOL    HW2 2655   7.857   7.825  10.581
  275SOL     OW 2656   2.661   1.312  10.612
  275SOL    HW1 2657   2.671   1.220  10.638
  275SOL    HW2 2658   2.689   1.314  10.520
  276SOL     OW 2659   6.089   9.871   8.394
  276SOL    HW1 2660   6.133   9.899   8.474
  276SOL    HW2 2661   6.109   9.940   8.330
  277SOL     OW 2662   4.511   3.293   5.468
  277SOL    HW1 2663   4.557   3.257   5.543
  277SOL    HW2 2664   4.490   3.383   5.493
  278SOL     OW 2665   5.641   9.668  11.903
  278SOL    HW1 2666   5.638   9.759  11.875
  278SOL    HW2 2667   5.733   9.644  11.898
  279SOL     OW 2668   3.682  10.109   9.136
  279SOL    HW1 2669   3.647  10.020   9.128
  279SOL    HW2 2670   3.689  10.140   9.045
  280SOL     OW 2671  12.596   5.066  11.259
  280SOL    HW1 2672  12.568   5.148  11.217
  280SOL    HW2 2673  12.515   5.029  11.294
  281SOL     OW 2674   7.071   3.191   6.954
  281SOL    HW1 2675   6.997   3.131   6.946
  281SOL    HW2 2676   7.070   3.242   6.873
  282SOL     OW 2677   4.394   2.055   7.992
  282SOL    HW1 2678   4.351   2.030   8.074
  282SOL    HW2 2679   4.460   1.986   7.978
  283SOL     OW 2680   7.111   7.828   5.253
  283SOL    HW1 2681   7.136   7.909   5.207
  283SOL    HW2 2682   7.187   7.771   5.243
  284SOL     OW 2683  10.332  11.732   1.996
  284SOL    HW1 2684  10.244  11.766   1.987
  284SOL    HW2 2685  10.327  11.671   2.070
  285SOL     OW 2686   1.410   2.810  12.899
  285SOL    HW1 2687   1.482   2.787  12.839
  285SOL    HW2 2688   1.429   2.762  12.979
  286SOL     OW 2689   1.544   4.280  10.995
  286SOL    HW1 2690   1.480   4.220  11.034
  286SOL    HW2 2691   1.534   4.268  10.901
  287SOL     OW 2692   5.985   5.699   8.194
  287SOL    HW1 2693   5.895   5.690   8.225
  287SOL    HW2 2694   6.013   5.610   8.174
  288SOL     OW 2695   6.202   0.923  13.142
  288SOL    HW1 2696   6.125   0.867  13.136
  288SOL    HW2 2697   6.270   0.868  13.181
  289SOL     OW 2698   5.646  12.826   7.593
  289SOL    HW1 2699   5.711  12.893   7.616
  289SOL    HW2 2700   5.647  12.824   7.498
  290SOL     OW 2701   6.582  14.019  11.893
  290SOL    HW1 2702   6.635  13.942  11.912
  290SOL    HW2 2703   6.621  14.057  11.814
  291SOL     OW 2704  12.589   0.240   7.767
  291SOL    HW1 2705  12.608   0.327   7.803
  291SOL    HW2 2706  12.646   0.181   7.816
  292SOL     OW 2707  12.620   2.061  13.440
  292SOL    HW1 2708  12.531   2.063  13.475
  292SOL    HW2 2709  12.617   2.119  13.364
  293SOL     OW 2710   0.641   2.075   6.801
  293SOL    HW1 2711   0.586   2.092   6.877
  293SOL    HW2 2712   0.730   2.097   6.831
  294SOL     OW 2713  11.818   8.754  14.525
  294SOL    HW1 2714  11.894   8.724  14.575
  294SOL    HW2 2715  11.748   8.761  14.590
  295SOL     OW 2716   2.385   7.673  14.069
  295SOL    HW1 2717   2.461   7.704  14.119
  295SOL    HW2 2718   2.405   7.581  14.051
  296SOL     OW 2719   1.712  12.951   5.248
  296SOL    HW1 2720   1.689  13.015   5.180
  296SOL    HW2 2721   1.646  12.882   5.239
  297SOL     OW 2722  11.804   2.660   5.464
  297SOL    HW1 2723  11.735   2.634   5.403
  297SOL    HW2 2724  11.864   2.713   5.410
  298SOL     OW 2725  12.716   1.277   5.723
  298SOL    HW1 2726  12.795   1.225   5.706
  298SOL    HW2 2727  12.679   1.238   5.803
  299SOL     OW 2728  13.573   2.846   0.356
  299SOL    HW1 2729  13.625   2.766   0.344
  299SOL    HW2 2730  13.557   2.878   0.267
  300SOL     OW 2731  13.124   2.839  14.756
  300SOL    HW1 2732  13.049   2.807  14.707
  300SOL    HW2 2733  13.129   2.781  14.833
  301SOL     OW 2734   6.248  10.173   6.413
  301SOL    HW1 2735   6.249  10.098   6.355
  301SOL    HW2 2736   6.185  10.150   6.482
  302SOL     OW 2737   5.088  10.318   4.039
  302SOL    HW1 2738   5.079  10.287   4.129
  302SOL    HW2 2739   5.109  10.240   3.989
  303SOL     OW 2740  10.265  13.193   8.750
  303SOL    HW1 2741  10.301  13.211   8.836
  303SOL    HW2 2742  10.268  13.277   8.704
  304SOL     OW 2743   2.260   2.430   7.171
  304SOL    HW1 2744   2.262   2.525   7.168
  304SOL    HW2 2745   2.287   2.402   7.083
  305SOL     OW 2746  11.698  12.704   9.061
  305SOL    HW1 2747  11.763  12.770   9.083
  305SOL    HW2 2748  11.614  12.749   9.072
  306SOL     OW 2749   0.496  14.212   8.734
  306SOL    HW1 2750   0.587  14.213   8.763
  306SOL    HW2 2751   0.483  14.123   8.700
  307SOL     OW 2752   2.600   0.238   3.982
  307SOL    HW1 2753   2.556   0.323   3.975
  307SOL    HW2 2754   2.577   0.207   4.070
  308SOL     OW 2755  11.285  12.877  12.498
  308SOL    HW1 2756  11.282  12.953  12.556
  308SOL    HW2 2757  11.193  12.859  12.477
  309SOL     OW 2758   0.090  11.032   1.569
  309SOL    HW1 2759   0.039  11.084   1.630
  309SOL    HW2 2760   0.025  10.985   1.517
  310SOL     OW 2761   5.603   1.799   3.558
  310SOL    HW1 2762   5.669   1.781   3.626
  310SOL    HW2 2763   5.564   1.714   3.539
  311SOL     OW 2764   3.087  12.749  10.882
  311SOL    HW1 2765   3.161  12.769  10.825
  311SOL    HW2 2766   3.105  12.660  10.913
  312SOL     OW 2767   0.467   9.775   5.866
  312SOL    HW1 2768   0.448   9.688   5.831
  312SOL    HW2 2769   0.388   9.799   5.915
  313SOL     OW 2770  12.773   1.012  10.612
  313SOL    HW1 2771  12.713   1.033  10.684
  313SOL    HW2 2772  12.855   1.056  10.635
  314SOL     OW 2773   0.971   8.064  14.711
  314SOL    HW1 2774   0.953   8.129  14.644
  314SOL    HW2 2775   0.885   8.026  14.732
  315SOL     OW 2776   7.579   2.236   0.010
  315SOL    HW1 2777   7.658   2.226  14.828
  315SOL    HW2 2778   7.540   2.319  14.854
  316SOL     OW 2779  14.038  13.287   6.938
  316SOL    HW1 2780  14.044  13.248   6.851
  316SOL    HW2 2781  14.063  13.378   6.926
  317SOL     OW 2782   8.009   1.922   4.576
  317SOL    HW1 2783   7.956   1.887   4.504
  317SOL    HW2 2784   8.003   2.017   4.567
  318SOL     OW 2785  10.113   1.470   7.967
  318SOL    HW1 2786  10.090   1.447   8.057
  318SOL    HW2 2787  10.089   1.392   7.916
  319SOL     OW 2788   4.674   6.110   1.477
  319SOL    HW1 2789   4.602   6.134   1.534
  319SOL    HW2 2790   4.694   6.190   1.428
  320SOL     OW 2791  13.229   0.344  10.769
  320SOL    HW1 2792  13.299   0.401  10.737
  320SOL    HW2 2793  13.260   0.255  10.751
  321SOL     OW 2794  12.254   0.574   6.712
  321SOL    HW1 2795  12.278   0.614   6.795
  321SOL    HW2 2796  12.332   0.527   6.683
  322SOL     OW 2797  12.337   3.829   3.721
  322SOL    HW1 2798  12.432   3.834   3.712
  322SOL    HW2 2799  12.303   3.878   3.646
  323SOL     OW 2800   9.369  13.516   2.639
  323SOL    HW1 2801   9.386  13.564   2.719
  323SOL    HW2 2802   9.429  13.442   2.641
  324SOL     OW 2803  14.678   1.010  13.916
  324SOL    HW1 2804  14.689   1.072  13.843
  324SOL    HW2 2805  14.603   1.045  13.965
  325SOL     OW 2806   1.259   6.676  10.790
  325SOL    HW1 2807   1.308   6.729  10.728
  325SOL    HW2 2808   1.169   6.677  10.757
  326SOL     OW 2809   3.565   3.950   4.738
  326SOL    HW1 2810   3.566   3.917   4.828
  326SOL    HW2 2811   3.544   4.043   4.746
  327SOL     OW 2812  13.644   8.757   7.248
  327SOL    HW1 2813  13.622   8.814   7.175
  327SOL    HW2 2814  13.645   8.814   7.324
  328SOL     OW 2815  13.093   5.804   5.197
  328SOL    HW1 2816  13.136   5.748   5.262
  328SOL    HW2 2817  13.103   5.893   5.231
  329SOL     OW 2818   3.803   4.894  14.489
  329SOL    HW1 2819   3.880   4.853  14.450
  329SOL    HW2 2820   3.770   4.830  14.551
  330SOL     OW 2821   6.144   4.955   6.437
  330SOL    HW1 2822   6.105   4.868   6.443
  330SOL    HW2 2823   6.136   4.991   6.525
  331SOL     OW 2824   3.869  12.947  12.877
  331SOL    HW1 2825   3.873  13.042  12.870
  331SOL    HW2 2826   3.788  12.930  12.925
  332SOL     OW 2827  12.612  12.881  12.385
  332SOL    HW1 2828  12.596  12.975  12.382
  332SOL    HW2 2829  12.535  12.845  12.428
  333SOL     OW 2830  14.001   5.156   5.235
  333SOL    HW1 2831  13.917   5.129   5.198
  333SOL    HW2 2832  14.038   5.215   5.169
  334SOL     OW 2833   3.084   3.786   3.488
  334SOL    HW1 2834   3.131   3.850   3.541
  334SOL    HW2 2835   2.992   3.800   3.510
  335SOL     OW 2836  13.369   4.272  14.181
  335SOL    HW1 2837  13.277   4.280  14.206
  335SOL    HW2 2838  13.404   4.205  14.239
  336SOL     OW 2839   6.895   9.320   7.232
  336SOL    HW1 2840   6.828   9.348   7.169
  336SOL    HW2 2841   6.959   9.272   7.179
  337SOL     OW 2842   3.407   1.920   9.756
  337SOL    HW1 2843   3.499   1.898   9.769
  337SOL    HW2 2844   3.360   1.847   9.797
  338SOL     OW 2845   7.744   9.506   7.141
  338SOL    HW1 2846   7.738   9.601   7.143
  338SOL    HW2 2847   7.709   9.477   7.225
  339SOL     OW 2848   6.123  10.863   1.090
  339SOL    HW1 2849   6.117  10.880   0.995
  339SOL    HW2 2850   6.082  10.940   1.130
  340SOL     OW 2851  14.150   4.037   2.201
  340SOL    HW1 2852  14.176   4.007   2.288
  340SOL    HW2 2853  14.070   4.088   2.216
  341SOL     OW 2854   9.020  10.895   4.409
  341SOL    HW1 2855   9.104  10.922   4.447
  341SOL    HW2 2856   8.956  10.952   4.451
  342SOL     OW 2857  14.500   0.417  14.574
  342SOL    HW1 2858  14.517   0.510  14.594
  342SOL    HW2 2859  14.471   0.380  14.658
  343SOL     OW 2860  14.438   1.945   9.371
  343SOL    HW1 2861  14.377   2.014   9.345
  343SOL    HW2 2862  14.392   1.863   9.352
  344SOL     OW 2863  12.655   0.712   7.124
  344SOL    HW1 2864  12.691   0.643   7.181
  344SOL    HW2 2865  12.719   0.783   7.131
  345SOL     OW 2866  13.652  10.989  13.054
  345SOL    HW1 2867  13.557  10.989  13.063
  345SOL    HW2 2868  13.680  11.074  13.090
  346SOL     OW 2869   9.546  12.299   1.382
  346SOL    HW1 2870   9.498  12.357   1.323
  346SOL    HW2 2871   9.622  12.350   1.409
  347SOL     OW 2872  14.157   2.191  11.355
  347SOL    HW1 2873  14.238   2.234  11.379
  347SOL    HW2 2874  14.089   2.257  11.368
  348SOL     OW 2875   6.045   0.693   0.991
  348SOL    HW1 2876   6.013   0.617   1.039
  348SOL    HW2 2877   5.971   0.722   0.938
  349SOL     OW 2878   9.612   3.649  10.653
  349SOL    HW1 2879   9.557   3.605  10.588
  349SOL    HW2 2880   9.557   3.721  10.685
  350SOL     OW 2881  11.436   4.125   6.151
  350SOL    HW1 2882  11.455   4.203   6.100
  350SOL    HW2 2883  11.360   4.149   6.204
  351SOL     OW 2884   4.216   6.335   9.472
  351SOL    HW1 2885   4.183   6.292   9.551
  351SOL    HW2 2886   4.264   6.412   9.504
  352SOL     OW 2887   0.736   8.026   3.507
  352SOL    HW1 2888   0.724   7.932   3.519
  352SOL    HW2 2889   0.831   8.038   3.508
  353SOL     OW 2890   6.126   4.239  12.052
  353SOL    HW1 2891   6.193   4.307  12.060
  353SOL    HW2 2892   6.107   4.214  12.143
  354SOL     OW 2893  12.427  12.224   2.179
  354SOL    HW1 2894  12.367  12.278   2.230
  354SOL    HW2 2895  12.377  12.146   2.157
  355SOL     OW 2896   9.507  12.171   8.902
  355SOL    HW1 2897   9.413  12.167   8.882
  355SOL    HW2 2898   9.547  12.202   8.820
  356SOL     OW 2899   2.539  13.275  14.132
  356SOL    HW1 2900   2.487  13.260  14.211
  356SOL    HW2 2901   2.524  13.198  14.078
  357SOL     OW 2902  14.330   8.096   7.883
  357SOL    HW1 2903  14.281   8.095   7.802
  357SOL    HW2 2904  14.302   8.176   7.928
  358SOL     OW 2905   6.822   9.509   5.503
  358SOL    HW1 2906   6.885   9.463   5.448
  358SOL    HW2 2907   6.863   9.594   5.520
  359SOL     OW 2908   5.903   2.836  13.642
  359SOL    HW1 2909   5.980   2.808  13.594
  359SOL    HW2 2910   5.856   2.892  13.581
  360SOL     OW 2911   1.368   3.628   6.236
  360SOL    HW1 2912   1.365   3.722   6.219
  360SOL    HW2 2913   1.322   3.588   6.162
  361SOL     OW 2914   8.775   7.064   4.149
  361SOL    HW1 2915   8.775   7.142   4.095
  361SOL    HW2 2916   8.830   7.002   4.102
  362SOL     OW 2917   8.049   1.637   7.751
  362SOL    HW1 2918   8.007   1.552   7.758
  362SOL    HW2 2919   7.984   1.699   7.782
  363SOL     OW 2920   9.178   8.623  13.631
  363SOL    HW1 2921   9.135   8.631  13.716
  363SOL    HW2 2922   9.214   8.535  13.631
  364SOL     OW 2923   0.559  11.753   5.912
  364SOL    HW1 2924   0.595  11.821   5.856
  364SOL    HW2 2925   0.584  11.671   5.870
  365SOL     OW 2926   7.252   8.793  10.789
  365SOL    HW1 2927   7.290   8.727  10.730
  365SOL    HW2 2928   7.181   8.831  10.738
  366SOL     OW 2929   9.187   2.936  12.329
  366SOL    HW1 2930   9.209   3.021  12.368
  366SOL    HW2 2931   9.264   2.912  12.279
  367SOL     OW 2932  12.968   0.033   2.689
  367SOL    HW1 2933  13.013   0.045   2.772
  367SOL    HW2 2934  12.977   0.117   2.644
  368SOL     OW 2935  13.621   1.215   3.840
  368SOL    HW1 2936  13.565   1.190   3.914
  368SOL    HW2 2937  13.704   1.240   3.880
  369SOL     OW 2938   6.676   0.159  10.110
  369SOL    HW1 2939   6.697   0.249  10.137
  369SOL    HW2 2940   6.673   0.162  10.015
  370SOL     OW 2941   5.541   0.582  12.156
  370SOL    HW1 2942   5.462   0.552  12.201
  370SOL    HW2 2943   5.592   0.501  12.142
  371SOL     OW 2944   0.900   0.807   3.606
  371SOL    HW1 2945   0.988   0.774   3.589
  371SOL    HW2 2946   0.855   0.799   3.521
  372SOL     OW 2947   1.816   7.989   4.964
  372SOL    HW1 2948   1.759   7.997   5.041
  372SOL    HW2 2949   1.820   8.078   4.929
  373SOL     OW 2950   1.359   6.988   0.007
  373SOL    HW1 2951   1.365   7.030   0.093
  373SOL    HW2 2952   1.393   7.054  14.818
  374SOL     OW 2953   3.410  10.800  12.453
  374SOL    HW1 2954   3.428  10.792  12.547
  374SOL    HW2 2955   3.321  10.768  12.443
  375SOL     OW 2956   5.861  14.317   4.791
  375SOL    HW1 2957   5.957  14.317   4.792
  375SOL    HW2 2958   5.837  14.407   4.810
  376SOL     OW 2959   4.836  11.529  11.200
  376SOL    HW1 2960   4.774  11.576  11.144
  376SOL    HW2 2961   4.901  11.594  11.225
  377SOL     OW 2962   9.685   9.957   1.846
  377SOL    HW1 2963   9.727  10.043   1.842
  377SOL    HW2 2964   9.598   9.971   1.807
  378SOL     OW 2965   3.717   1.303   6.792
  378SOL    HW1 2966   3.784   1.268   6.733
  378SOL    HW2 2967   3.634   1.271   6.756
  379SOL     OW 2968   8.871   4.438   2.979
  379SOL    HW1 2969   8.825   4.403   3.056
  379SOL    HW2 2970   8.887   4.362   2.924
  380SOL     OW 2971   3.343   1.086  12.830
  380SOL    HW1 2972   3.276   1.082  12.899
  380SOL    HW2 2973   3.376   0.997  12.825
  381SOL     OW 2974  10.682  11.526  10.319
  381SOL    HW1 2975  10.760  11.492  10.362
  381SOL    HW2 2976  10.642  11.583  10.384
  382SOL     OW 2977  12.998   0.231   3.418
  382SOL    HW1 2978  12.912   0.251   3.382
  382SOL    HW2 2979  13.041   0.317   3.425
  383SOL     OW 2980  11.337   4.878   5.904
  383SOL    HW1 2981  11.378   4.791   5.909
  383SOL    HW2 2982  11.243   4.861   5.909
  384SOL     OW 2983   5.093   9.680   0.996
  384SOL    HW1 2984   5.039   9.757   0.979
  384SOL    HW2 2985   5.183   9.711   0.985
  385SOL     OW 2986   3.780   5.630   9.508
  385SOL    HW1 2987   3.837   5.670   9.573
  385SOL    HW2 2988   3.817   5.543   9.494
  386SOL     OW 2989   9.230  12.714   9.240
  386SOL    HW1 2990   9.186  12.725   9.324
  386SOL    HW2 2991   9.267  12.625   9.243
  387SOL     OW 2992  13.064  12.773   0.194
  387SOL    HW1 2993  13.021  12.817   0.267
  387SOL    HW2 2994  13.096  12.690   0.231
  388SOL     OW 2995   2.493   0.684   9.367
  388SOL    HW1 2996   2.536   0.763   9.399
  388SOL    HW2 2997   2.552   0.648   9.301
  389SOL     OW 2998   2.497   5.486   3.992
  389SOL    HW1 2999   2.461   5.397   3.986
  389SOL    HW2 3000   2.573   5.485   3.934
  390SOL     OW 3001   7.527  10.089   8.186
  390SOL    HW1 3002   7.553  10.070   8.276
  390SOL    HW2 3003   7.599  10.055   8.132
  391SOL     OW 3004  13.478   9.120   3.606
  391SOL    HW1 3005  13.429   9.051   3.562
  391SOL    HW2 3006  13.526   9.164   3.536
  392SOL     OW 3007  12.647  10.828  11.825
  392SOL    HW1 3008  12.740  10.805  11.826
  392SOL    HW2 3009  12.602  10.744  11.825
  393SOL     OW 3010   0.908   9.272   9.921
  393SOL    HW1 3011   0.885   9.244   9.832
  393SOL    HW2 3012   0.953   9.196   9.959
  394SOL     OW 3013  10.844  14.095   1.413
  394SOL    HW1 3014  10.889  14.176   1.438
  394SOL    HW2 3015  10.901  14.025   1.446
  395SOL     OW 3016  10.722   9.948   5.548
  395SOL    HW1 3017  10.630   9.955   5.525
  395SOL    HW2 3018  10.723   9.906   5.634
  396SOL     OW 3019   4.189   6.145   1.484
  396SOL    HW1 3020   4.228   6.149   1.572
  396SOL    HW2 3021   4.205   6.232   1.447
  397SOL     OW 3022  10.071   0.808  14.296
  397SOL    HW1 3023  10.028   0.887  14.265
  397SOL    HW2 3024  10.122   0.837  14.372
  398SOL     OW 3025  10.295   3.735   4.475
  398SOL    HW1 3026  10.356   3.797   4.515
  398SOL    HW2 3027  10.244   3.701   4.549
  399SOL     OW 3028   5.642  11.980   7.988
  399SOL    HW1 3029   5.554  12.010   8.009
  399SOL    HW2 3030   5.644  11.976   7.892
  400SOL     OW 3031   5.952  14.159   1.568
  400SOL    HW1 3032   6.039  14.196   1.586
  400SOL    HW2 3033   5.916  14.140   1.654
  401SOL     OW 3034   9.391   0.621  10.123
  401SOL    HW1 3035   9.375   0.546  10.066
  401SOL    HW2 3036   9.484   0.641  10.112
  402SOL     OW 3037  14.859   0.056  11.988
  402SOL    HW1 3038  14.845   0.134  12.042
  402SOL    HW2 3039   0.055   0.007  12.034
  403SOL     OW 3040   8.832   0.575   5.430
  403SOL    HW1 3041   8.869   0.488   5.413
  403SOL    HW2 3042   8.871   0.631   5.363
  404SOL     OW 3043   5.023   1.964   9.144
  404SOL    HW1 3044   5.080   1.910   9.200
  404SOL    HW2 3045   5.065   1.960   9.057
  405SOL     OW 3046   0.133  14.702  12.134
  405SOL    HW1 3047   0.159  14.646  12.061
  405SOL    HW2 3048   0.182  14.670  12.209
  406SOL     OW 3049   9.130   6.691  13.635
  406SOL    HW1 3050   9.121   6.739  13.717
  406SOL    HW2 3051   9.198   6.737  13.587
  407SOL     OW 3052  11.669   2.711   2.063
  407SOL    HW1 3053  11.698   2.624   2.033
  407SOL    HW2 3054  11.636   2.696   2.152
  408SOL     OW 3055  12.795   9.365  10.693
  408SOL    HW1 3056  12.890   9.353  10.691
  408SOL    HW2 3057  12.780   9.446  10.644
  409SOL     OW 3058   4.847  10.229   4.450
  409SOL    HW1 3059   4.760  10.235   4.489
  409SOL    HW2 3060   4.906  10.211   4.523
  410SOL     OW 3061   5.943   5.830   2.437
  410SOL    HW1 3062   6.036   5.850   2.442
  410SOL    HW2 3063   5.930   5.792   2.350
  411SOL     OW 3064   8.212   6.847  10.110
  411SOL    HW1 3065   8.222   6.754  10.133
  411SOL    HW2 3066   8.122   6.867  10.134
  412SOL     OW 3067   0.379  11.130   7.194
  412SOL    HW1 3068   0.435  11.163   7.263
  412SOL    HW2 3069   0.333  11.056   7.234
  413SOL     OW 3070   6.206   8.507  11.510
  413SOL    HW1 3071   6.232   8.417  11.490
  413SOL    HW2 3072   6.288   8.555  11.517
  414SOL     OW 3073  11.740   0.216   7.706
  414SOL    HW1 3074  11.647   0.206   7.690
  414SOL    HW2 3075  11.777   0.241   7.621
  415SOL     OW 3076   1.194   2.470   6.824
  415SOL    HW1 3077   1.121   2.452   6.884
  415SOL    HW2 3078   1.272   2.455   6.878
  416SOL     OW 3079   8.428   3.307   3.072
  416SOL    HW1 3080   8.517   3.274   3.065
  416SOL    HW2 3081   8.383   3.244   3.128
  417SOL     OW 3082   2.001   3.609   5.247
  417SOL    HW1 3083   1.948   3.552   5.191
  417SOL    HW2 3084   2.082   3.560   5.260
  418SOL     OW 3085   7.878  10.795   4.017
  418SOL    HW1 3086   7.823  10.719   3.996
  418SOL    HW2 3087   7.830  10.841   4.086
  419SOL     OW 3088   1.315   0.800  14.005
  419SOL    HW1 3089   1.241   0.741  13.992
  419SOL    HW2 3090   1.323   0.808  14.100
  420SOL     OW 3091  14.681   2.926  10.682
  420SOL    HW1 3092  14.731   2.971  10.615
  420SOL    HW2 3093  14.680   2.834  10.653
  421SOL     OW 3094  12.389   4.278   4.240
  421SOL    HW1 3095  12.431   4.222   4.305
  421SOL    HW2 3096  12.385   4.225   4.161
  422SOL     OW 3097   9.231  13.074   6.418
  422SOL    HW1 3098   9.259  13.122   6.496
  422SOL    HW2 3099   9.152  13.028   6.445
  423SOL     OW 3100  13.563   2.382  10.315
  423SOL    HW1 3101  13.605   2.305  10.277
  423SOL    HW2 3102  13.498   2.408  10.250
  424SOL     OW 3103   5.857   2.018  12.324
  424SOL    HW1 3104   5.948   2.010  12.296
  424SOL    HW2 3105   5.807   2.028  12.243
  425SOL     OW 3106   5.273  11.933   1.876
  425SOL    HW1 3107   5.227  11.945   1.959
  425SOL    HW2 3108   5.212  11.966   1.810
  426SOL     OW 3109  12.049   6.792   9.590
  426SOL    HW1 3110  11.988   6.832   9.528
  426SOL    HW2 3111  12.006   6.711   9.618
  427SOL     OW 3112   8.750  14.832   0.463
  427SOL    HW1 3113   8.736  14.862   0.553
  427SOL    HW2 3114   8.666  14.850   0.419
  428SOL     OW 3115   7.985   1.227  12.443
  428SOL    HW1 3116   7.962   1.319  12.459
  428SOL    HW2 3117   8.008   1.192  12.529
  429SOL     OW 3118   6.117   4.098   4.153
  429SOL    HW1 3119   6.071   4.014   4.146
  429SOL    HW2 3120   6.094   4.145   4.073
  430SOL     OW 3121  10.582  11.427  14.482
  430SOL    HW1 3122  10.529  11.503  14.508
  430SOL    HW2 3123  10.654  11.424  14.545
  431SOL     OW 3124   5.175  10.190  11.314
  431SOL    HW1 3125   5.231  10.193  11.236
  431SOL    HW2 3126   5.151  10.281  11.330
  432SOL     OW 3127   5.521  10.070  14.226
  432SOL    HW1 3128   5.460  10.144  14.224
  432SOL    HW2 3129   5.513  10.030  14.140
  433SOL     OW 3130   8.310   1.103   1.663
  433SOL    HW1 3131   8.259   1.166   1.612
  433SOL    HW2 3132   8.320   1.027   1.605
  434SOL     OW 3133  10.517  13.502  12.822
  434SOL    HW1 3134  10.547  13.527  12.910
  434SOL    HW2 3135  10.437  13.553  12.809
  435SOL     OW 3136   9.911   9.156  11.144
  435SOL    HW1 3137   9.949   9.187  11.062
  435SOL    HW2 3138   9.896   9.063  11.129
  436SOL     OW 3139   9.849   5.483  14.439
  436SOL    HW1 3140   9.766   5.512  14.400
  436SOL    HW2 3141   9.889   5.428  14.371
  437SOL     OW 3142   0.909  12.214   3.855
  437SOL    HW1 3143   0.834  12.177   3.809
  437SOL    HW2 3144   0.973  12.143   3.860
  438SOL     OW 3145  12.323   8.669   2.297
  438SOL    HW1 3146  12.345   8.639   2.385
  438SOL    HW2 3147  12.302   8.762   2.308
  439SOL     OW 3148   3.238  10.411  11.764
  439SOL    HW1 3149   3.183  10.467  11.709
  439SOL    HW2 3150   3.183  10.335  11.784
  440SOL     OW 3151   2.310   4.083   5.568
  440SOL    HW1 3152   2.215   4.075   5.562
  440SOL    HW2 3153   2.339   3.998   5.602
  441SOL     OW 3154   6.958   5.857   3.843
  441SOL    HW1 3155   6.988   5.944   3.867
  441SOL    HW2 3156   6.950   5.810   3.926
  442SOL     OW 3157   2.178   5.360   8.768
  442SOL    HW1 3158   2.218   5.378   8.683
  442SOL    HW2 3159   2.201   5.269   8.787
  443SOL     OW 3160   9.718   7.550  13.043
  443SOL    HW1 3161   9.650   7.507  12.992
  443SOL    HW2 3162   9.752   7.618  12.986
  444SOL     OW 3163   7.809   2.182  11.812
  444SOL    HW1 3164   7.884   2.224  11.855
  444SOL    HW2 3165   7.733   2.219  11.856
  445SOL     OW 3166   6.742  11.661   8.072
  445SOL    HW1 3167   6.729  11.754   8.088
  445SOL    HW2 3168   6.695  11.643   7.991
  446SOL     OW 3169   4.063  10.579   0.217
  446SOL    HW1 3170   4.022  10.658   0.183
  446SOL    HW2 3171   4.001  10.509   0.197
  447SOL     OW 3172   4.906   5.609   8.459
  447SOL    HW1 3173   4.868   5.588   8.374
  447SOL    HW2 3174   4.941   5.526   8.491
  448SOL     OW 3175  12.174   5.539  12.167
  448SOL    HW1 3176  12.142   5.450  12.154
  448SOL    HW2 3177  12.100   5.585  12.206
  449SOL     OW 3178   6.469   1.939   2.080
  449SOL    HW1 3179   6.394   1.963   2.134
  449SOL    HW2 3180   6.445   1.855   2.041
  450SOL     OW 3181   5.325  12.323  12.214
  450SOL    HW1 3182   5.343  12.339  12.121
  450SOL    HW2 3183   5.230  12.316  12.219
  451SOL     OW 3184  13.444   8.019  12.396
  451SOL    HW1 3185  13.484   7.934  12.378
  451SOL    HW2 3186  13.382   8.032  12.324
  452SOL     OW 3187   8.990   6.858   6.072
  452SOL    HW1 3188   9.004   6.816   5.987
  452SOL    HW2 3189   8.895   6.858   6.083
  453SOL     OW 3190   4.436   2.861  12.314
  453SOL    HW1 3191   4.406   2.837  12.227
  453SOL    HW2 3192   4.496   2.934  12.299
  454SOL     OW 3193   7.371   0.543   5.219
  454SOL    HW1 3194   7.310   0.493   5.166
  454SOL    HW2 3195   7.456   0.501   5.203
  455SOL     OW 3196   1.342   4.004   6.714
  455SOL    HW1 3197   1.279   4.076   6.721
  455SOL    HW2 3198   1.288   3.929   6.689
  456SOL     OW 3199   2.304  12.701  13.170
  456SOL    HW1 3200   2.370  12.718  13.237
  456SOL    HW2 3201   2.222  12.696  13.219
  457SOL     OW 3202   8.845   2.872   5.081
  457SOL    HW1 3203   8.760   2.831   5.098
  457SOL    HW2 3204   8.867   2.916   5.163
  458SOL     OW 3205   4.977   9.262   0.743
  458SOL    HW1 3206   4.959   9.355   0.756
  458SOL    HW2 3207   5.015   9.258   0.655
  459SOL     OW 3208   5.155  13.344  12.058
  459SOL    HW1 3209   5.216  13.298  12.117
  459SOL    HW2 3210   5.208  13.363  11.980
  460SOL     OW 3211   8.804   4.622   5.077
  460SOL    HW1 3212   8.798   4.600   5.170
  460SOL    HW2 3213   8.730   4.681   5.061
  461SOL     OW 3214   1.713   7.248   3.986
  461SOL    HW1 3215   1.702   7.162   4.027
  461SOL    HW2 3216   1.769   7.296   4.047
  462SOL     OW 3217   6.057   4.081   5.620
  462SOL    HW1 3218   6.009   4.011   5.575
  462SOL    HW2 3219   6.043   4.159   5.566
  463SOL     OW 3220  12.014   0.345  12.186
  463SOL    HW1 3221  12.031   0.260  12.145
  463SOL    HW2 3222  12.045   0.409  12.122
  464SOL     OW 3223   0.340  13.560   1.266
  464SOL    HW1 3224   0.358  13.565   1.360
  464SOL    HW2 3225   0.423  13.581   1.224
  465SOL     OW 3226   5.936   1.346   0.218
  465SOL    HW1 3227   6.022   1.387   0.220
  465SOL    HW2 3228   5.951   1.256   0.248
  466SOL     OW 3229  11.324  10.186   3.443
  466SOL    HW1 3230  11.281  10.235   3.513
  466SOL    HW2 3231  11.287  10.098   3.449
  467SOL     OW 3232  14.103  12.077   8.880
  467SOL    HW1 3233  14.029  12.017   8.891
  467SOL    HW2 3234  14.094  12.111   8.791
  468SOL     OW 3235   8.073  12.282   8.156
  468SOL    HW1 3236   8.046  12.192   8.137
  468SOL    HW2 3237   8.126  12.307   8.080
  469SOL     OW 3238  13.573   4.523   1.209
  469SOL    HW1 3239  13.614   4.438   1.191
  469SOL    HW2 3240  13.601   4.544   1.298
  470SOL     OW 3241   9.003   3.755   1.821
  470SOL    HW1 3242   9.061   3.692   1.776
  470SOL    HW2 3243   8.939   3.780   1.754
  471SOL     OW 3244  12.428  11.235   4.399
  471SOL    HW1 3245  12.374  11.198   4.329
  471SOL    HW2 3246  12.508  11.265   4.356
  472SOL     OW 3247   6.550  13.315  11.216
  472SOL    HW1 3248   6.528  13.378  11.284
  472SOL    HW2 3249   6.553  13.366  11.135
  473SOL     OW 3250   6.161  11.170   8.959
  473SOL    HW1 3251   6.235  11.196   8.904
  473SOL    HW2 3252   6.156  11.238   9.026
  474SOL     OW 3253   5.847  13.219   9.111
  474SOL    HW1 3254   5.833  13.132   9.150
  474SOL    HW2 3255   5.802  13.279   9.170
  475SOL     OW 3256  14.320  10.696   4.378
  475SOL    HW1 3257  14.405  10.652   4.382
  475SOL    HW2 3258  14.328  10.768   4.441
  476SOL     OW 3259  11.755  11.632  10.829
  476SOL    HW1 3260  11.678  11.609  10.881
  476SOL    HW2 3261  11.731  11.608  10.739
  477SOL     OW 3262  10.225   1.806   6.226
  477SOL    HW1 3263  10.202   1.713   6.224
  477SOL    HW2 3264  10.270   1.817   6.310
  478SOL     OW 3265   9.732   4.873   5.066
  478SOL    HW1 3266   9.683   4.816   5.126
  478SOL    HW2 3267   9.823   4.862   5.091
  479SOL     OW 3268   8.696   2.622  10.320
  479SOL    HW1 3269   8.789   2.644  10.316
  479SOL    HW2 3270   8.681   2.595  10.411
  480SOL     OW 3271   4.621   7.876  13.901
  480SOL    HW1 3272   4.674   7.873  13.821
  480SOL    HW2 3273   4.637   7.963  13.937
  481SOL     OW 3274   9.572  11.337   4.468
  481SOL    HW1 3275   9.667  11.347   4.459
  481SOL    HW2 3276   9.541  11.423   4.496
  482SOL     OW 3277   0.038   4.237  13.507
  482SOL    HW1 3278  14.834   4.294  13.511
  482SOL    HW2 3279   0.112   4.296  13.521
  483SOL     OW 3280  10.105   6.801  14.631
  483SOL    HW1 3281  10.014   6.776  14.644
  483SOL    HW2 3282  10.120   6.872  14.693
  484SOL     OW 3283   6.961  10.560  14.544
  484SOL    HW1 3284   6.954  10.615  14.622
  484SOL    HW2 3285   7.001  10.617  14.478
  485SOL     OW 3286   9.899   5.774   0.728
  485SOL    HW1 3287   9.956   5.849   0.715
  485SOL    HW2 3288   9.857   5.761   0.642
  486SOL     OW 3289   2.846   0.110  12.894
  486SOL    HW1 3290   2.823   0.117  12.801
  486SOL    HW2 3291   2.805   0.187  12.934
  487SOL     OW 3292   3.140   6.972  10.645
  487SOL    HW1 3293   3.178   6.896  10.689
  487SOL    HW2 3294   3.084   7.013  10.711
  488SOL     OW 3295  14.367   6.943   0.251
  488SOL    HW1 3296  14.278   6.921   0.224
  488SOL    HW2 3297  14.392   6.873   0.311
  489SOL     OW 3298   3.367  14.209   0.838
  489SOL    HW1 3299   3.361  14.302   0.862
  489SOL    HW2 3300   3.405  14.210   0.750
  490SOL     OW 3301  10.341  11.610   8.429
  490SOL    HW1 3302  10.301  11.617   8.342
  490SOL    HW2 3303  10.409  11.544   8.419
  491SOL     OW 3304  13.693   2.090  12.775
  491SOL    HW1 3305  13.623   2.136  12.729
  491SOL    HW2 3306  13.656   2.005  12.797
  492SOL     OW 3307   4.606   8.891   1.117
  492SOL    HW1 3308   4.544   8.965   1.114
  492SOL    HW2 3309   4.692   8.931   1.104
  493SOL     OW 3310   3.115  12.778   2.454
  493SOL    HW1 3311   3.151  12.700   2.496
  493SOL    HW2 3312   3.089  12.749   2.367
  494SOL     OW 3313  10.084   7.053  12.238
  494SOL    HW1 3314  10.176   7.058  12.263
  494SOL    HW2 3315  10.084   7.058  12.142
  495SOL     OW 3316   3.914   7.000   7.783
  495SOL    HW1 3317   3.987   6.939   7.795
  495SOL    HW2 3318   3.858   6.958   7.718
  496SOL     OW 3319   3.836  13.972  10.371
  496SOL    HW1 3320   3.837  13.957  10.466
  496SOL    HW2 3321   3.917  13.934  10.339
  497SOL     OW 3322  11.474  14.860   2.334
  497SOL    HW1 3323  11.568  14.841   2.330
  497SOL    HW2 3324  11.467   0.065   2.390
  498SOL     OW 3325   7.334  10.089   5.419
  498SOL    HW1 3326   7.413  10.142   5.423
  498SOL    HW2 3327   7.268  10.148   5.381
  499SOL     OW 3328  13.258   5.376   9.498
  499SOL    HW1 3329  13.263   5.427   9.417
  499SOL    HW2 3330  13.205   5.429   9.557
  500SOL     OW 3331   8.089   2.808  10.382
  500SOL    HW1 3332   8.101   2.887  10.328
  500SOL    HW2 3333   8.177   2.788  10.415
  501SOL     OW 3334   4.687  13.202  10.221
  501SOL    HW1 3335   4.623  13.136  10.248
  501SOL    HW2 3336   4.756  13.198  10.287
  502SOL     OW 3337   7.315   6.005  14.498
  502SOL    HW1 3338   7.268   6.078  14.457
  502SOL    HW2 3339   7.260   5.928  14.481
  503SOL     OW 3340  12.387   3.832  11.021
  503SOL    HW1 3341  12.441   3.782  10.960
  503SOL    HW2 3342  12.360   3.767  11.087
  504SOL     OW 3343  12.757  14.039   3.490
  504SOL    HW1 3344  12.727  13.965   3.438
  504SOL    HW2 3345  12.739  14.116   3.435
  505SOL     OW 3346   8.088   1.314   5.043
  505SOL    HW1 3347   8.098   1.261   5.121
  505SOL    HW2 3348   8.171   1.361   5.034
  506SOL     OW 3349   1.434  12.421   7.631
  506SOL    HW1 3350   1.376  12.494   7.652
  506SOL    HW2 3351   1.507  12.461   7.585
  507SOL     OW 3352   5.926   7.658  13.511
  507SOL    HW1 3353   5.882   7.743  13.519
  507SOL    HW2 3354   6.003   7.676  13.457
  508SOL     OW 3355  11.821   7.525  14.162
  508SOL    HW1 3356  11.734   7.561  14.148
  508SOL    HW2 3357  11.881   7.595  14.134
  509SOL     OW 3358   9.168  12.053   6.171
  509SOL    HW1 3359   9.159  12.078   6.263
  509SOL    HW2 3360   9.105  12.109   6.125
  510SOL     OW 3361   9.435   7.589   1.880
  510SOL    HW1 3362   9.482   7.650   1.823
  510SOL    HW2 3363   9.492   7.577   1.956
  511SOL     OW 3364   1.427  14.389   7.926
  511SOL    HW1 3365   1.456  14.307   7.888
  511SOL    HW2 3366   1.441  14.454   7.857
  512SOL     OW 3367   4.857  14.154   9.086
  512SOL    HW1 3368   4.883  14.062   9.078
  512SOL    HW2 3369   4.879  14.192   9.001
  513SOL     OW 3370  13.324  10.542   8.842
  513SOL    HW1 3371  13.292  10.470   8.787
  513SOL    HW2 3372  13.253  10.558   8.904
  514SOL     OW 3373   5.804   2.886   8.010
  514SOL    HW1 3374   5.757   2.970   8.013
  514SOL    HW2 3375   5.737   2.822   7.986
  515SOL     OW 3376   5.504   7.224  10.600
  515SOL    HW1 3377   5.417   7.236  10.638
  515SOL    HW2 3378   5.511   7.129  10.587
  516SOL     OW 3379   7.561  13.188   6.516
  516SOL    HW1 3380   7.528  13.139   6.591
  516SOL    HW2 3381   7.653  13.163   6.509
  517SOL     OW 3382  13.658  12.434  11.764
  517SOL    HW1 3383  13.666  12.405  11.673
  517SOL    HW2 3384  13.747  12.459  11.788
  518SOL     OW 3385  11.715  10.362   6.145
  518SOL    HW1 3386  11.776  10.432   6.168
  518SOL    HW2 3387  11.629  10.396   6.169
  519SOL     OW 3388   6.104   4.655  12.619
  519SOL    HW1 3389   6.135   4.565  12.628
  519SOL    HW2 3390   6.064   4.658  12.532
  520SOL     OW 3391   9.609   2.673  13.314
  520SOL    HW1 3392   9.543   2.718  13.367
  520SOL    HW2 3393   9.564   2.596  13.280
  521SOL     OW 3394  14.781   4.609   8.540
  521SOL    HW1 3395  14.714   4.560   8.494
  521SOL    HW2 3396  14.745   4.698   8.548
  522SOL     OW 3397   4.130   4.254  14.534
  522SOL    HW1 3398   4.079   4.191  14.584
  522SOL    HW2 3399   4.193   4.201  14.485
  523SOL     OW 3400  13.759  10.896   7.023
  523SOL    HW1 3401  13.797  10.828   7.079
  523SOL    HW2 3402  13.780  10.868   6.934
  524SOL     OW 3403   5.841  12.454   8.884
  524SOL    HW1 3404   5.766  12.506   8.854
  524SOL    HW2 3405   5.808  12.407   8.961
  525SOL     OW 3406   9.528  13.562   9.165
  525SOL    HW1 3407   9.601  13.537   9.222
  525SOL    HW2 3408   9.549  13.650   9.135
  526SOL     OW 3409   7.635  12.317   1.883
  526SOL    HW1 3410   7.689  12.238   1.872
  526SOL    HW2 3411   7.619  12.347   1.793
  527SOL     OW 3412   5.881   1.693   4.107
  527SOL    HW1 3413   5.919   1.780   4.091
  527SOL    HW2 3414   5.838   1.701   4.192
  528SOL     OW 3415  13.556  12.309   7.084
  528SOL    HW1 3416  13.532  12.246   7.016
  528SOL    HW2 3417  13.592  12.257   7.155
  529SOL     OW 3418  10.131   2.927   1.968
  529SOL    HW1 3419  10.119   2.872   1.890
  529SOL    HW2 3420  10.198   2.990   1.943
  530SOL     OW 3421   7.843   0.723   7.237
  530SOL    HW1 3422   7.770   0.775   7.271
  530SOL    HW2 3423   7.801   0.654   7.186
  531SOL     OW 3424   0.490  10.232   5.506
  531SOL    HW1 3425   0.508  10.161   5.444
  531SOL    HW2 3426   0.562  10.293   5.494
  532SOL     OW 3427   4.100  14.792   5.078
  532SOL    HW1 3428   4.188  14.780   5.112
  532SOL    HW2 3429   4.045  14.804   5.156
  533SOL     OW 3430   9.375   1.829   0.484
  533SOL    HW1 3431   9.322   1.827   0.405
  533SOL    HW2 3432   9.463   1.847   0.454
  534SOL     OW 3433  14.075   0.301   7.920
  534SOL    HW1 3434  14.010   0.242   7.957
  534SOL    HW2 3435  14.109   0.349   7.996
  535SOL     OW 3436  12.747   1.290  12.407
  535SOL    HW1 3437  12.813   1.234  12.448
  535SOL    HW2 3438  12.724   1.353  12.476
  536SOL     OW 3439   5.842   7.077   5.148
  536SOL    HW1 3440   5.756   7.059   5.186
  536SOL    HW2 3441   5.876   7.150   5.200
  537SOL     OW 3442   9.567   8.114   1.961
  537SOL    HW1 3443   9.496   8.171   1.992
  537SOL    HW2 3444   9.646   8.166   1.973
  538SOL     OW 3445   8.978  11.874   2.951
  538SOL    HW1 3446   8.929  11.945   2.908
  538SOL    HW2 3447   8.927  11.855   3.030
  539SOL     OW 3448   2.570   8.989  12.168
  539SOL    HW1 3449   2.571   8.894  12.158
  539SOL    HW2 3450   2.658   9.017  12.141
  540SOL     OW 3451   5.819   3.866   4.981
  540SOL    HW1 3452   5.732   3.882   5.018
  540SOL    HW2 3453   5.848   3.785   5.022
  541SOL     OW 3454   2.074   8.559   3.672
  541SOL    HW1 3455   2.034   8.570   3.758
  541SOL    HW2 3456   2.072   8.646   3.633
  542SOL     OW 3457   8.959   1.038   2.670
  542SOL    HW1 3458   8.866   1.015   2.684
  542SOL    HW2 3459   8.959   1.087   2.588
  543SOL     OW 3460   1.245   6.683   4.070
  543SOL    HW1 3461   1.290   6.725   4.143
  543SOL    HW2 3462   1.315   6.657   4.010
  544SOL     OW 3463   6.561   0.461   5.619
  544SOL    HW1 3464   6.546   0.377   5.663
  544SOL    HW2 3465   6.648   0.488   5.650
  545SOL     OW 3466  11.311   4.343   9.859
  545SOL    HW1 3467  11.334   4.256   9.892
  545SOL    HW2 3468  11.388   4.372   9.811
  546SOL     OW 3469   3.634   6.518   3.828
  546SOL    HW1 3470   3.566   6.578   3.797
  546SOL    HW2 3471   3.706   6.530   3.766
  547SOL     OW 3472  12.210  13.865   7.526
  547SOL    HW1 3473  12.266  13.937   7.496
  547SOL    HW2 3474  12.258  13.786   7.502
  548SOL     OW 3475   1.863  11.192   7.602
  548SOL    HW1 3476   1.894  11.165   7.689
  548SOL    HW2 3477   1.931  11.162   7.542
  549SOL     OW 3478   4.713   1.841   3.737
  549SOL    HW1 3479   4.787   1.814   3.791
  549SOL    HW2 3480   4.678   1.919   3.781
  550SOL     OW 3481   5.921   0.831  12.634
  550SOL    HW1 3482   5.847   0.782  12.596
  550SOL    HW2 3483   5.994   0.814  12.574
  551SOL     OW 3484  12.472  13.694  13.923
  551SOL    HW1 3485  12.445  13.655  14.006
  551SOL    HW2 3486  12.506  13.621  13.872
  552SOL     OW 3487   2.089   8.180  10.413
  552SOL    HW1 3488   2.034   8.251  10.446
  552SOL    HW2 3489   2.179   8.212  10.423
  553SOL     OW 3490   2.559  14.621   1.338
  553SOL    HW1 3491   2.471  14.652   1.316
  553SOL    HW2 3492   2.546  14.531   1.368
  554SOL     OW 3493  11.695   2.135   9.328
  554SOL    HW1 3494  11.769   2.178   9.371
  554SOL    HW2 3495  11.723   2.124   9.237
  555SOL     OW 3496   4.664   3.210  12.648
  555SOL    HW1 3497   4.676   3.207  12.554
  555SOL    HW2 3498   4.752   3.199  12.684
  556SOL     OW 3499  13.900   9.016   4.116
  556SOL    HW1 3500  13.850   9.000   4.196
  556SOL    HW2 3501  13.848   8.977   4.046
  557SOL     OW 3502   7.400  13.231   0.655
  557SOL    HW1 3503   7.353  13.167   0.601
  557SOL    HW2 3504   7.419  13.303   0.594
  558SOL     OW 3505   1.302  12.657  11.616
  558SOL    HW1 3506   1.375  12.703  11.657
  558SOL    HW2 3507   1.290  12.578  11.668
  559SOL     OW 3508  14.219  11.485  10.857
  559SOL    HW1 3509  14.208  11.410  10.914
  559SOL    HW2 3510  14.130  11.519  10.845
  560SOL     OW 3511   8.797   0.339   7.654
  560SOL    HW1 3512   8.891   0.350   7.638
  560SOL    HW2 3513   8.783   0.244   7.644
  561SOL     OW 3514   5.318   3.427   8.043
  561SOL    HW1 3515   5.326   3.467   8.130
  561SOL    HW2 3516   5.395   3.458   7.995
  562SOL     OW 3517   6.642  11.913  14.462
  562SOL    HW1 3518   6.734  11.889  14.458
  562SOL    HW2 3519   6.626  11.960  14.380
  563SOL     OW 3520   5.633   5.976   4.931
  563SOL    HW1 3521   5.702   5.909   4.928
  563SOL    HW2 3522   5.595   5.974   4.844
  564SOL     OW 3523  10.212   7.480  10.038
  564SOL    HW1 3524  10.206   7.393  10.078
  564SOL    HW2 3525  10.305   7.502  10.043
  565SOL     OW 3526   0.018   5.627   2.204
  565SOL    HW1 3527   0.045   5.646   2.294
  565SOL    HW2 3528   0.082   5.672   2.150
  566SOL     OW 3529   7.489   6.642  12.714
  566SOL    HW1 3530   7.478   6.737  12.719
  566SOL    HW2 3531   7.402   6.607  12.736
  567SOL     OW 3532  12.250  14.441   7.277
  567SOL    HW1 3533  12.222  14.437   7.368
  567SOL    HW2 3534  12.182  14.493   7.234
  568SOL     OW 3535   8.842   6.051  12.623
  568SOL    HW1 3536   8.838   5.986  12.553
  568SOL    HW2 3537   8.842   6.135  12.578
  569SOL     OW 3538   1.352   1.140  13.554
  569SOL    HW1 3539   1.309   1.098  13.480
  569SOL    HW2 3540   1.283   1.149  13.620
  570SOL     OW 3541  10.195  11.836  12.158
  570SOL    HW1 3542  10.267  11.848  12.096
  570SOL    HW2 3543  10.118  11.825  12.103
  571SOL     OW 3544  13.864   7.463   5.973
  571SOL    HW1 3545  13.851   7.419   6.057
  571SOL    HW2 3546  13.932   7.411   5.930
  572SOL     OW 3547   0.716   6.774   9.330
  572SOL    HW1 3548   0.622   6.791   9.324
  572SOL    HW2 3549   0.725   6.680   9.315
  573SOL     OW 3550   5.527   8.471   8.051
  573SOL    HW1 3551   5.550   8.400   7.990
  573SOL    HW2 3552   5.452   8.514   8.009
  574SOL     OW 3553   5.964   0.975   4.847
  574SOL    HW1 3554   5.976   1.030   4.924
  574SOL    HW2 3555   5.919   0.897   4.880
  575SOL     OW 3556  12.281   3.047   2.717
  575SOL    HW1 3557  12.351   2.996   2.756
  575SOL    HW2 3558  12.325   3.122   2.676
  576SOL     OW 3559   4.578   0.235   1.396
  576SOL    HW1 3560   4.598   0.294   1.469
  576SOL    HW2 3561   4.625   0.155   1.416
  577SOL     OW 3562  13.041   4.901  14.320
  577SOL    HW1 3563  13.000   4.985  14.296
  577SOL    HW2 3564  13.002   4.880  14.405
  578SOL     OW 3565  12.794   7.449   9.343
  578SOL    HW1 3566  12.800   7.456   9.438
  578SOL    HW2 3567  12.884   7.459   9.312
  579SOL     OW 3568   3.207   1.014  14.045
  579SOL    HW1 3569   3.169   0.940  13.997
  579SOL    HW2 3570   3.270   1.052  13.983
  580SOL     OW 3571  14.483   7.639  11.006
  580SOL    HW1 3572  14.405   7.583  11.000
  580SOL    HW2 3573  14.541   7.592  11.066
  581SOL     OW 3574   9.771   1.779   5.436
  581SOL    HW1 3575   9.760   1.685   5.424
  581SOL    HW2 3576   9.794   1.789   5.529
  582SOL     OW 3577   0.229  11.013  13.995
  582SOL    HW1 3578   0.228  11.099  14.036
  582SOL    HW2 3579   0.184  10.956  14.057
  583SOL     OW 3580   9.603  10.648   7.390
  583SOL    HW1 3581   9.604  10.743   7.377
  583SOL    HW2 3582   9.665  10.633   7.461
  584SOL     OW 3583   0.828   6.232  14.859
  584SOL    HW1 3584   0.759   6.165  14.859
  584SOL    HW2 3585   0.791   6.303  14.806
  585SOL     OW 3586  13.988   4.868   6.925
  585SOL    HW1 3587  13.917   4.926   6.951
  585SOL    HW2 3588  14.018   4.828   7.007
  586SOL     OW 3589  11.373   9.327   0.799
  586SOL    HW1 3590  11.292   9.347   0.752
  586SOL    HW2 3591  11.441   9.371   0.748
  587SOL     OW 3592  11.076  11.618   5.035
  587SOL    HW1 3593  11.143  11.645   4.972
  587SOL    HW2 3594  11.123  11.571   5.103
  588SOL     OW 3595   8.191  10.304   2.687
  588SOL    HW1 3596   8.219  10.396   2.691
  588SOL    HW2 3597   8.114  10.300   2.744
  589SOL     OW 3598   8.774  13.247   4.438
  589SOL    HW1 3599   8.780  13.241   4.534
  589SOL    HW2 3600   8.813  13.332   4.417
  590SOL     OW 3601  10.465   7.560  11.194
  590SOL    HW1 3602  10.529   7.624  11.162
  590SOL    HW2 3603  10.429   7.521  11.115
  591SOL     OW 3604   0.043   7.784  14.497
  591SOL    HW1 3605  14.851   7.849  14.525
  591SOL    HW2 3606   0.003   7.700  14.518
  592SOL     OW 3607  14.667   8.312   4.348
  592SOL    HW1 3608  14.613   8.299   4.426
  592SOL    HW2 3609  14.642   8.399   4.316
  593SOL     OW 3610   7.827   7.953   9.547
  593SOL    HW1 3611   7.912   7.985   9.516
  593SOL    HW2 3612   7.842   7.860   9.567
  594SOL     OW 3613  10.160   0.389   7.652
  594SOL    HW1 3614  10.238   0.394   7.596
  594SOL    HW2 3615  10.163   0.469   7.704
  595SOL     OW 3616   7.066   0.247  14.757
  595SOL    HW1 3617   6.982   0.283  14.785
  595SOL    HW2 3618   7.079   0.171  14.813
  596SOL     OW 3619   1.543  13.764  13.551
  596SOL    HW1 3620   1.548  13.849  13.594
  596SOL    HW2 3621   1.450  13.750  13.535
  597SOL     OW 3622   7.059   1.851  12.377
  597SOL    HW1 3623   7.055   1.884  12.287
  597SOL    HW2 3624   6.973   1.812  12.392
  598SOL     OW 3625  11.020   1.940   1.929
  598SOL    HW1 3626  10.980   2.017   1.969
  598SOL    HW2 3627  10.947   1.892   1.891
  599SOL     OW 3628   9.890  10.245   6.885
  599SOL    HW1 3629   9.893  10.191   6.806
  599SOL    HW2 3630   9.930  10.190   6.952
  600SOL     OW 3631   5.801   7.300   4.964
  600SOL    HW1 3632   5.807   7.317   5.058
  600SOL    HW2 3633   5.719   7.253   4.953
  601SOL     OW 3634   4.200  12.032   0.874
  601SOL    HW1 3635   4.187  12.034   0.969
  601SOL    HW2 3636   4.113  12.015   0.838
  602SOL     OW 3637   1.544   0.375   6.174
  602SOL    HW1 3638   1.558   0.443   6.240
  602SOL    HW2 3639   1.509   0.423   6.098
  603SOL     OW 3640  12.558   2.611   1.525
  603SOL    HW1 3641  12.476   2.614   1.575
  603SOL    HW2 3642  12.579   2.517   1.521
  604SOL     OW 3643   5.771  11.395   7.935
  604SOL    HW1 3644   5.769  11.302   7.910
  604SOL    HW2 3645   5.695  11.406   7.992
  605SOL     OW 3646  10.873  14.750   6.542
  605SOL    HW1 3647  10.824  14.676   6.579
  605SOL    HW2 3648  10.805  14.810   6.511
  606SOL     OW 3649   5.655   4.843  14.726
  606SOL    HW1 3650   5.623   4.893  14.801
  606SOL    HW2 3651   5.700   4.768  14.765
  607SOL     OW 3652   0.141  13.985  13.237
  607SOL    HW1 3653   0.172  13.983  13.327
  607SOL    HW2 3654   0.099  13.900  13.224
  608SOL     OW 3655   9.696  13.201   8.862
  608SOL    HW1 3656   9.613  13.188   8.814
  608SOL    HW2 3657   9.749  13.126   8.836
  609SOL     OW 3658   3.858   1.071   4.843
  609SOL    HW1 3659   3.820   1.010   4.781
  609SOL    HW2 3660   3.893   1.016   4.913
  610SOL     OW 3661   3.391   4.626  13.177
  610SOL    HW1 3662   3.459   4.683  13.140
  610SOL    HW2 3663   3.359   4.576  13.103
  611SOL     OW 3664   5.639  12.214   4.392
  611SOL    HW1 3665   5.694  12.145   4.356
  611SOL    HW2 3666   5.643  12.285   4.328
  612SOL     OW 3667  10.500  12.383   6.543
  612SOL    HW1 3668  10.456  12.459   6.581
  612SOL    HW2 3669  10.530  12.414   6.457
  613SOL     OW 3670   9.844   2.794   1.066
  613SOL    HW1 3671   9.860   2.888   1.060
  613SOL    HW2 3672   9.925   2.754   1.033
  614SOL     OW 3673   6.862   0.001  13.353
  614SOL    HW1 3674   6.942   0.042  13.321
  614SOL    HW2 3675   6.810  14.858  13.274
  615SOL     OW 3676  11.086   3.108   4.723
  615SOL    HW1 3677  11.102   3.186   4.671
  615SOL    HW2 3678  11.168   3.059   4.719
  616SOL     OW 3679  10.026   0.970  10.275
  616SOL    HW1 3680  10.024   0.874  10.270
  616SOL    HW2 3681  10.116   0.993  10.251
  617SOL     OW 3682   3.906   0.031  10.981
  617SOL    HW1 3683   3.992  14.870  10.953
  617SOL    HW2 3684   3.917   0.051  11.074
  618SOL     OW 3685   2.237   8.552  11.186
  618SOL    HW1 3686   2.312   8.500  11.212
  618SOL    HW2 3687   2.179   8.490  11.141
  619SOL     OW 3688   5.759   0.635  11.712
  619SOL    HW1 3689   5.837   0.646  11.766
  619SOL    HW2 3690   5.747   0.719  11.669
  620SOL     OW 3691   1.662   5.246   7.572
  620SOL    HW1 3692   1.582   5.282   7.611
  620SOL    HW2 3693   1.719   5.322   7.561
  621SOL     OW 3694   1.801  11.899  12.652
  621SOL    HW1 3695   1.729  11.890  12.590
  621SOL    HW2 3696   1.765  11.869  12.736
  622SOL     OW 3697   8.913   5.012   9.199
  622SOL    HW1 3698   8.921   5.101   9.164
  622SOL    HW2 3699   8.990   5.002   9.254
  623SOL     OW 3700  10.238   8.947   1.866
  623SOL    HW1 3701  10.297   8.920   1.796
  623SOL    HW2 3702  10.287   8.934   1.947
  624SOL     OW 3703   1.340   8.864  14.356
  624SOL    HW1 3704   1.388   8.796  14.310
  624SOL    HW2 3705   1.251   8.858  14.322
  625SOL     OW 3706   8.558   9.198   4.081
  625SOL    HW1 3707   8.528   9.287   4.063
  625SOL    HW2 3708   8.590   9.166   3.997
  626SOL     OW 3709   7.070  13.590   5.443
  626SOL    HW1 3710   7.142  13.526   5.443
  626SOL    HW2 3711   6.992  13.538   5.424
  627SOL     OW 3712   1.192   1.423  13.003
  627SOL    HW1 3713   1.283   1.451  12.991
  627SOL    HW2 3714   1.152   1.494  13.053
  628SOL     OW 3715   8.836  13.809  11.648
  628SOL    HW1 3716   8.883  13.726  11.639
  628SOL    HW2 3717   8.802  13.807  11.738
  629SOL     OW 3718   4.050   2.769   0.962
  629SOL    HW1 3719   3.958   2.743   0.971
  629SOL    HW2 3720   4.060   2.844   1.020
  630SOL     OW 3721  10.132  14.819  13.008
  630SOL    HW1 3722  10.128  14.753  13.078
  630SOL    HW2 3723  10.188   0.016  13.045
  631SOL     OW 3724   1.862   6.400   9.781
  631SOL    HW1 3725   1.902   6.483   9.807
  631SOL    HW2 3726   1.927   6.334   9.806
  632SOL     OW 3727  14.548  12.952   8.688
  632SOL    HW1 3728  14.602  13.001   8.750
  632SOL    HW2 3729  14.541  12.864   8.725
  633SOL     OW 3730  10.158   4.092  13.912
  633SOL    HW1 3731  10.182   4.165  13.969
  633SOL    HW2 3732  10.229   4.028  13.924
  634SOL     OW 3733   7.563   5.756   9.024
  634SOL    HW1 3734   7.583   5.663   9.039
  634SOL    HW2 3735   7.592   5.800   9.103
  635SOL     OW 3736   9.457   3.844  10.957
  635SOL    HW1 3737   9.546   3.810  10.954
  635SOL    HW2 3738   9.427   3.840  10.866
  636SOL     OW 3739  11.271   8.262  13.555
  636SOL    HW1 3740  11.315   8.186  13.517
  636SOL    HW2 3741  11.179   8.251  13.530
  637SOL     OW 3742   0.476   1.725  10.183
  637SOL    HW1 3743   0.413   1.687  10.244
  637SOL    HW2 3744   0.423   1.756  10.110
  638SOL     OW 3745  11.093   0.559   4.452
  638SOL    HW1 3746  11.177   0.604   4.451
  638SOL    HW2 3747  11.051   0.587   4.533
  639SOL     OW 3748  10.089   3.411  12.842
  639SOL    HW1 3749  10.139   3.480  12.799
  639SOL    HW2 3750  10.062   3.449  12.925
  640SOL     OW 3751  13.565   2.448  14.302
  640SOL    HW1 3752  13.598   2.427  14.389
  640SOL    HW2 3753  13.542   2.363  14.263
  641SOL     OW 3754   4.279  10.894   4.575
  641SOL    HW1 3755   4.294  10.897   4.481
  641SOL    HW2 3756   4.217  10.822   4.587
  642SOL     OW 3757   5.734   5.964   0.503
  642SOL    HW1 3758   5.741   6.001   0.591
  642SOL    HW2 3759   5.815   5.915   0.491
  643SOL     OW 3760   7.596   2.685  10.199
  643SOL    HW1 3761   7.502   2.703  10.201
  643SOL    HW2 3762   7.630   2.741  10.129
  644SOL     OW 3763  13.505   1.188  13.111
  644SOL    HW1 3764  13.414   1.160  13.110
  644SOL    HW2 3765  13.548   1.134  13.045
  645SOL     OW 3766   7.560   2.000  10.987
  645SOL    HW1 3767   7.602   1.966  11.066
  645SOL    HW2 3768   7.574   2.095  10.991
  646SOL     OW 3769   4.223   5.147   3.607
  646SOL    HW1 3770   4.168   5.068   3.603
  646SOL    HW2 3771   4.164   5.218   3.580
  647SOL     OW 3772   6.329   1.503   5.807
  647SOL    HW1 3773   6.257   1.441   5.811
  647SOL    HW2 3774   6.407   1.452   5.829
  648SOL     OW 3775   9.095  10.376  10.333
  648SOL    HW1 3776   9.092  10.422  10.249
  648SOL    HW2 3777   9.186  10.385  10.362
  649SOL     OW 3778   6.700   9.310   6.864
  649SOL    HW1 3779   6.794   9.307   6.849
  649SOL    HW2 3780   6.666   9.371   6.799
  650SOL     OW 3781   6.891   4.011   0.790
  650SOL    HW1 3782   6.968   4.024   0.735
  650SOL    HW2 3783   6.897   3.919   0.818
  651SOL     OW 3784  11.867   4.730   3.259
  651SOL    HW1 3785  11.943   4.787   3.249
  651SOL    HW2 3786  11.863   4.682   3.177
  652SOL     OW 3787  13.686   6.623   7.462
  652SOL    HW1 3788  13.668   6.575   7.542
  652SOL    HW2 3789  13.781   6.619   7.452
  653SOL     OW 3790   6.290  14.634   7.858
  653SOL    HW1 3791   6.264  14.573   7.789
  653SOL    HW2 3792   6.220  14.630   7.922
  654SOL     OW 3793   0.497   7.872   7.614
  654SOL    HW1 3794   0.451   7.952   7.590
  654SOL    HW2 3795   0.517   7.830   7.530
  655SOL     OW 3796   9.594   1.764   2.558
  655SOL    HW1 3797   9.689   1.768   2.557
  655SOL    HW2 3798   9.566   1.841   2.607
  656SOL     OW 3799  10.526  11.209   9.934
  656SOL    HW1 3800  10.505  11.115   9.936
  656SOL    HW2 3801  10.602  11.218   9.992
  657SOL     OW 3802  11.133  13.009  11.945
  657SOL    HW1 3803  11.179  13.090  11.967
  657SOL    HW2 3804  11.059  13.037  11.891
  658SOL     OW 3805   7.737   8.619   8.669
  658SOL    HW1 3806   7.767   8.667   8.747
  658SOL    HW2 3807   7.691   8.543   8.704
  659SOL     OW 3808  11.770   4.394  12.151
  659SOL    HW1 3809  11.862   4.404  12.125
  659SOL    HW2 3810  11.737   4.483  12.158
  660SOL     OW 3811   8.243   2.557   1.922
  660SOL    HW1 3812   8.321   2.553   1.865
  660SOL    HW2 3813   8.278   2.578   2.008
  661SOL     OW 3814   1.293   1.164   0.553
  661SOL    HW1 3815   1.223   1.138   0.612
  661SOL    HW2 3816   1.251   1.225   0.492
  662SOL     OW 3817   5.534  10.217  11.916
  662SOL    HW1 3818   5.528  10.255  11.828
  662SOL    HW2 3819   5.507  10.288  11.974
  663SOL     OW 3820   8.867   7.737   3.144
  663SOL    HW1 3821   8.788   7.771   3.186
  663SOL    HW2 3822   8.918   7.816   3.123
  664SOL     OW 3823   9.081  14.111  11.144
  664SOL    HW1 3824   9.100  14.164  11.221
  664SOL    HW2 3825   9.024  14.041  11.177
  665SOL     OW 3826  14.518   0.151   7.664
  665SOL    HW1 3827  14.462   0.202   7.723
  665SOL    HW2 3828  14.526   0.204   7.585
  666SOL     OW 3829   9.582  13.547  14.577
  666SOL    HW1 3830   9.571  13.627  14.525
  666SOL    HW2 3831   9.675  13.546  14.599
  667SOL     OW 3832   0.383   4.340  10.864
  667SOL    HW1 3833   0.446   4.314  10.932
  667SOL    HW2 3834   0.305   4.366  10.912
  668SOL     OW 3835   8.587  14.326   6.739
  668SOL    HW1 3836   8.655  14.276   6.785
  668SOL    HW2 3837   8.591  14.293   6.649
  669SOL     OW 3838   1.646   3.023   2.300
  669SOL    HW1 3839   1.635   3.017   2.205
  669SOL    HW2 3840   1.662   2.933   2.328
  670SOL     OW 3841  10.542  13.599   6.294
  670SOL    HW1 3842  10.629  13.562   6.276
  670SOL    HW2 3843  10.482  13.542   6.246
  671SOL     OW 3844   8.864   4.508  10.934
  671SOL    HW1 3845   8.885   4.593  10.897
  671SOL    HW2 3846   8.948   4.472  10.963
  672SOL     OW 3847  14.860   0.377   9.207
  672SOL    HW1 3848  14.770   0.403   9.184
  672SOL    HW2 3849   0.006   0.303   9.149
  673SOL     OW 3850   5.468   7.203   0.779
  673SOL    HW1 3851   5.509   7.227   0.862
  673SOL    HW2 3852   5.397   7.144   0.804
  674SOL     OW 3853  10.212  13.208   5.717
  674SOL    HW1 3854  10.192  13.282   5.659
  674SOL    HW2 3855  10.184  13.238   5.804
  675SOL     OW 3856   8.937   3.560  12.701
  675SOL    HW1 3857   9.009   3.563  12.639
  675SOL    HW2 3858   8.978   3.571  12.787
  676SOL     OW 3859   0.939  11.604   8.393
  676SOL    HW1 3860   0.954  11.509   8.397
  676SOL    HW2 3861   1.026  11.642   8.402
  677SOL     OW 3862  14.441   8.682  13.229
  677SOL    HW1 3863  14.379   8.616  13.199
  677SOL    HW2 3864  14.468   8.728  13.150
  678SOL     OW 3865  11.189   7.895   8.452
  678SOL    HW1 3866  11.199   7.923   8.544
  678SOL    HW2 3867  11.275   7.859   8.429
  679SOL     OW 3868   8.217  13.641  12.435
  679SOL    HW1 3869   8.287  13.699  12.466
  679SOL    HW2 3870   8.242  13.620  12.345
  680SOL     OW 3871  10.769  14.653  14.019
  680SOL    HW1 3872  10.690  14.611  13.985
  680SOL    HW2 3873  10.737  14.713  14.086
  681SOL     OW 3874   9.531   7.309  10.152
  681SOL    HW1 3875   9.465   7.311  10.221
  681SOL    HW2 3876   9.595   7.375  10.178
  682SOL     OW 3877   4.824   6.143   1.822
  682SOL    HW1 3878   4.830   6.213   1.757
  682SOL    HW2 3879   4.738   6.104   1.808
  683SOL     OW 3880   2.935  12.294   7.579
  683SOL    HW1 3881   3.008  12.339   7.536
  683SOL    HW2 3882   2.859  12.347   7.557
  684SOL     OW 3883   2.365  14.603  11.546
  684SOL    HW1 3884   2.271  14.617  11.542
  684SOL    HW2 3885   2.403  14.679  11.502
  685SOL     OW 3886  11.427   6.582  13.827
  685SOL    HW1 3887  11.361   6.520  13.858
  685SOL    HW2 3888  11.385   6.668  13.837
  686SOL     OW 3889   9.615   9.876  10.699
  686SOL    HW1 3890   9.698   9.923  10.696
  686SOL    HW2 3891   9.549   9.945  10.705
  687SOL     OW 3892   6.815   1.341   5.912
  687SOL    HW1 3893   6.812   1.437   5.916
  687SOL    HW2 3894   6.900   1.322   5.872
  688SOL     OW 3895   6.703   6.286  10.129
  688SOL    HW1 3896   6.756   6.218  10.087
  688SOL    HW2 3897   6.638   6.310  10.063
  689SOL     OW 3898   1.207  14.278   1.429
  689SOL    HW1 3899   1.295  14.312   1.420
  689SOL    HW2 3900   1.216  14.200   1.484
  690SOL     OW 3901  12.714  13.297  12.819
  690SOL    HW1 3902  12.779  13.231  12.845
  690SOL    HW2 3903  12.764  13.378  12.813
  691SOL     OW 3904   2.199  11.983  14.527
  691SOL    HW1 3905   2.151  12.017  14.603
  691SOL    HW2 3906   2.177  11.889  14.526
  692SOL     OW 3907   6.072   2.536   9.267
  692SOL    HW1 3908   6.129   2.556   9.192
  692SOL    HW2 3909   6.133   2.511   9.337
  693SOL     OW 3910   1.363  10.974   5.406
  693SOL    HW1 3911   1.312  11.054   5.418
  693SOL    HW2 3912   1.450  10.996   5.442
  694SOL     OW 3913  12.493   9.709  10.552
  694SOL    HW1 3914  12.533   9.645  10.493
  694SOL    HW2 3915  12.552   9.712  10.628
  695SOL     OW 3916  13.263  14.640   8.302
  695SOL    HW1 3917  13.280  14.704   8.233
  695SOL    HW2 3918  13.193  14.678   8.354
  696SOL     OW 3919  12.742   1.797   8.827
  696SOL    HW1 3920  12.699   1.790   8.912
  696SOL    HW2 3921  12.834   1.775   8.844
  697SOL     OW 3922  12.098   8.507   6.650
  697SOL    HW1 3923  12.165   8.545   6.707
  697SOL    HW2 3924  12.083   8.573   6.583
  698SOL     OW 3925   4.287   4.418   9.927
  698SOL    HW1 3926   4.289   4.327   9.956
  698SOL    HW2 3927   4.298   4.468  10.008
  699SOL     OW 3928   7.826  12.236   7.463
  699SOL    HW1 3929   7.903  12.289   7.483
  699SOL    HW2 3930   7.753  12.297   7.468
  700SOL     OW 3931   3.032   4.186   8.245
  700SOL    HW1 3932   3.017   4.261   8.187
  700SOL    HW2 3933   2.987   4.209   8.326
  701SOL     OW 3934  13.921   7.565   1.292
  701SOL    HW1 3935  13.915   7.575   1.387
  701SOL    HW2 3936  13.900   7.473   1.276
  702SOL     OW 3937   0.074  12.750   5.491
  702SOL    HW1 3938   0.041  12.801   5.565
  702SOL    HW2 3939   0.051  12.802   5.414
  703SOL     OW 3940   6.664  13.882   3.982
  703SOL    HW1 3941   6.756  13.855   3.984
  703SOL    HW2 3942   6.659  13.955   4.044
  704SOL     OW 3943  10.979  14.365   7.706
  704SOL    HW1 3944  10.932  14.302   7.651
  704SOL    HW2 3945  10.950  14.451   7.675
  705SOL     OW 3946  12.701  14.670   3.926
  705SOL    HW1 3947  12.785  14.693   3.886
  705SOL    HW2 3948  12.703  14.575   3.934
  706SOL     OW 3949   0.448   5.534   8.634
  706SOL    HW1 3950   0.361   5.556   8.601
  706SOL    HW2 3951   0.498   5.509   8.556
  707SOL     OW 3952   5.601   8.635   9.531
  707SOL    HW1 3953   5.605   8.651   9.625
  707SOL    HW2 3954   5.676   8.577   9.514
  708SOL     OW 3955   1.317  13.314   9.332
  708SOL    HW1 3956   1.282  13.360   9.408
  708SOL    HW2 3957   1.412  13.324   9.339
  709SOL     OW 3958   2.626   6.056   9.534
  709SOL    HW1 3959   2.687   6.090   9.468
  709SOL    HW2 3960   2.681   6.042   9.611
  710SOL     OW 3961  13.619   6.708   5.374
  710SOL    HW1 3962  13.610   6.717   5.279
  710SOL    HW2 3963  13.711   6.686   5.387
  711SOL     OW 3964   4.852  11.799   8.456
  711SOL    HW1 3965   4.907  11.738   8.505
  711SOL    HW2 3966   4.785  11.826   8.518
  712SOL     OW 3967   5.656  14.547   0.868
  712SOL    HW1 3968   5.629  14.480   0.806
  712SOL    HW2 3969   5.751  14.539   0.873
  713SOL     OW 3970  11.631   9.592   3.832
  713SOL    HW1 3971  11.537   9.581   3.819
  713SOL    HW2 3972  11.669   9.581   3.744
  714SOL     OW 3973  13.727  12.916  14.801
  714SOL    HW1 3974  13.759  12.999  14.836
  714SOL    HW2 3975  13.757  12.851  14.864
  715SOL     OW 3976   2.907   5.363  11.322
  715SOL    HW1 3977   2.844   5.311  11.274
  715SOL    HW2 3978   2.992   5.327  11.298
  716SOL     OW 3979   6.521  10.014   2.444
  716SOL    HW1 3980   6.609  10.045   2.467
  716SOL    HW2 3981   6.512   9.930   2.488
  717SOL     OW 3982   2.831  12.284   5.432
  717SOL    HW1 3983   2.841  12.318   5.521
  717SOL    HW2 3984   2.836  12.189   5.442
  718SOL     OW 3985   3.739  12.025  13.353
  718SOL    HW1 3986   3.732  12.099  13.413
  718SOL    HW2 3987   3.667  12.038  13.291
  719SOL     OW 3988   0.429   6.070   3.087
  719SOL    HW1 3989   0.476   6.060   3.004
  719SOL    HW2 3990   0.341   6.098   3.062
  720SOL     OW 3991  12.538   9.036   5.050
  720SOL    HW1 3992  12.472   8.967   5.049
  720SOL    HW2 3993  12.543   9.063   5.142
  721SOL     OW 3994   4.946  10.009  11.954
  721SOL    HW1 3995   4.979   9.919  11.949
  721SOL    HW2 3996   4.994  10.047  12.028
  722SOL     OW 3997  13.757   7.334   7.433
  722SOL    HW1 3998  13.726   7.294   7.515
  722SOL    HW2 3999  13.679   7.378   7.398
  723SOL     OW 4000   3.869   0.540   9.829
  723SOL    HW1 4001   3.880   0.445   9.831
  723SOL    HW2 4002   3.821   0.557   9.748
  724SOL     OW 4003   5.095   9.684   8.970
  724SOL    HW1 4004   5.073   9.759   9.026
  724SOL    HW2 4005   5.042   9.612   9.005
  725SOL     OW 4006   8.444   8.714  10.517
  725SOL    HW1 4007   8.403   8.757  10.442
  725SOL    HW2 4008   8.503   8.649  10.477
  726SOL     OW 4009   8.232   5.138  11.006
  726SOL    HW1 4010   8.297   5.078  10.970
  726SOL    HW2 4011   8.216   5.106  11.095
  727SOL     OW 4012   0.438   1.080  12.030
  727SOL    HW1 4013   0.393   1.162  12.009
  727SOL    HW2 4014   0.474   1.051  11.946
  728SOL     OW 4015   5.880  13.881  10.074
  728SOL    HW1 4016   5.829  13.833  10.008
  728SOL    HW2 4017   5.876  13.825  10.152
  729SOL     OW 4018  12.666  10.181   0.858
  729SOL    HW1 4019  12.650  10.087   0.864
  729SOL    HW2 4020  12.760  10.188   0.843
  730SOL     OW 4021   9.578   7.323   0.244
  730SOL    HW1 4022   9.597   7.405   0.198
  730SOL    HW2 4023   9.658   7.271   0.237
  731SOL     OW 4024   2.676   2.884  14.456
  731SOL    HW1 4025   2.601   2.827  14.436
  731SOL    HW2 4026   2.640   2.973  14.451
  732SOL     OW 4027   0.839   4.075  13.176
  732SOL    HW1 4028   0.765   4.070  13.116
  732SOL    HW2 4029   0.858   3.984  13.199
  733SOL     OW 4030  11.486  11.632   9.038
  733SOL    HW1 4031  11.484  11.685   8.958
  733SOL    HW2 4032  11.570  11.587   9.036
  734SOL     OW 4033   9.026  12.946   5.616
  734SOL    HW1 4034   9.102  12.916   5.566
  734SOL    HW2 4035   8.951  12.916   5.565
  735SOL     OW 4036  13.494   9.098  11.347
  735SOL    HW1 4037  13.463   9.188  11.339
  735SOL    HW2 4038  13.511   9.086  11.441
  736SOL     OW 4039   8.977   7.331   4.476
  736SOL    HW1 4040   8.963   7.336   4.570
  736SOL    HW2 4041   8.949   7.242   4.453
  737SOL     OW 4042  10.189  12.982  14.621
  737SOL    HW1 4043  10.147  12.967  14.706
  737SOL    HW2 4044  10.209  13.075  14.620
  738SOL     OW 4045   0.111  11.141  13.365
  738SOL    HW1 4046   0.205  11.140  13.346
  738SOL    HW2 4047   0.090  11.049  13.384
  739SOL     OW 4048   1.555  12.526  14.234
  739SOL    HW1 4049   1.529  12.490  14.149
  739SOL    HW2 4050   1.591  12.451  14.281
  740SOL     OW 4051   1.414  13.963   9.545
  740SOL    HW1 4052   1.496  14.003   9.514
  740SOL    HW2 4053   1.429  13.869   9.537
  741SOL     OW 4054  12.738   6.605  10.809
  741SOL    HW1 4055  12.768   6.550  10.881
  741SOL    HW2 4056  12.716   6.544  10.739
  742SOL     OW 4057  12.980   0.580   8.809
  742SOL    HW1 4058  12.936   0.495   8.811
  742SOL    HW2 4059  13.032   0.583   8.889
  743SOL     OW 4060   8.055  13.222   5.763
  743SOL    HW1 4061   7.969  13.215   5.721
  743SOL    HW2 4062   8.110  13.160   5.715
  744SOL     OW 4063   2.564  12.706   2.600
  744SOL    HW1 4064   2.521  12.764   2.537
  744SOL    HW2 4065   2.655  12.734   2.600
  745SOL     OW 4066   1.425  13.760  14.757
  745SOL    HW1 4067   1.388  13.693  14.815
  745SOL    HW2 4068   1.361  13.831  14.757
  746SOL     OW 4069   3.623   6.998  14.724
  746SOL    HW1 4070   3.645   6.946  14.647
  746SOL    HW2 4071   3.638   7.089  14.696
  747SOL     OW 4072   6.296   3.815  13.904
  747SOL    HW1 4073   6.286   3.766  13.986
  747SOL    HW2 4074   6.210   3.854  13.888
  748SOL     OW 4075   6.936  14.242  11.163
  748SOL    HW1 4076   7.030  14.225  11.158
  748SOL    HW2 4077   6.921  14.309  11.096
  749SOL     OW 4078   8.571   5.027   9.672
  749SOL    HW1 4079   8.598   5.002   9.584
  749SOL    HW2 4080   8.530   4.948   9.708
  750SOL     OW 4081  14.729  10.819   2.940
  750SOL    HW1 4082  14.817  10.810   2.979
  750SOL    HW2 4083  14.706  10.729   2.915
  751SOL     OW 4084  13.051   1.216  14.226
  751SOL    HW1 4085  13.045   1.295  14.280
  751SOL    HW2 4086  13.099   1.153  14.281
  752SOL     OW 4087   9.219  10.013  10.691
  752SOL    HW1 4088   9.165  10.071  10.637
  752SOL    HW2 4089   9.297  10.065  10.710
  753SOL     OW 4090   1.254   6.289   2.994
  753SOL    HW1 4091   1.344   6.256   3.002
  753SOL    HW2 4092   1.245   6.312   2.902
  754SOL     OW 4093  10.348  10.745   5.725
  754SOL    HW1 4094  10.428  10.693   5.736
  754SOL    HW2 4095  10.359  10.820   5.783
  755SOL     OW 4096  14.586  10.544   4.383
  755SOL    HW1 4097  14.589  10.587   4.469
  755SOL    HW2 4098  14.601  10.451   4.402
  756SOL     OW 4099  10.889   7.257  12.775
  756SOL    HW1 4100  10.823   7.271  12.843
  756SOL    HW2 4101  10.924   7.345  12.757
  757SOL     OW 4102  13.498   4.878   5.501
  757SOL    HW1 4103  13.572   4.817   5.503
  757SOL    HW2 4104  13.530   4.956   5.548
  758SOL     OW 4105  13.281   3.967  14.260
  758SOL    HW1 4106  13.261   3.954  14.168
  758SOL    HW2 4107  13.219   4.033  14.289
  759SOL     OW 4108  14.466  10.343   1.813
  759SOL    HW1 4109  14.396  10.407   1.830
  759SOL    HW2 4110  14.426  10.278   1.755
  760SOL     OW 4111   7.527  12.640   0.884
  760SOL    HW1 4112   7.618  12.671   0.884
  760SOL    HW2 4113   7.528  12.563   0.829
  761SOL     OW 4114  12.809   3.710   6.863
  761SOL    HW1 4115  12.858   3.634   6.896
  761SOL    HW2 4116  12.812   3.701   6.768
  762SOL     OW 4117   4.110   0.993   8.353
  762SOL    HW1 4118   4.069   0.914   8.388
  762SOL    HW2 4119   4.192   0.963   8.315
  763SOL     OW 4120   1.480  10.620   5.962
  763SOL    HW1 4121   1.553  10.667   6.002
  763SOL    HW2 4122   1.423  10.688   5.928
  764SOL     OW 4123  12.603  14.591   7.757
  764SOL    HW1 4124  12.662  14.663   7.733
  764SOL    HW2 4125  12.536  14.633   7.812
  765SOL     OW 4126   2.487   5.737   7.216
  765SOL    HW1 4127   2.469   5.643   7.217
  765SOL    HW2 4128   2.581   5.743   7.237
  766SOL     OW 4129  14.643   3.596   5.026
  766SOL    HW1 4130  14.565   3.560   4.983
  766SOL    HW2 4131  14.611   3.674   5.072
  767SOL     OW 4132   6.004   8.279  13.655
  767SOL    HW1 4133   5.996   8.224  13.576
  767SOL    HW2 4134   6.097   8.276  13.677
  768SOL     OW 4135  14.106   5.937  14.506
  768SOL    HW1 4136  14.110   5.998  14.432
  768SOL    HW2 4137  14.196   5.908  14.518
  769SOL     OW 4138   5.703   9.955  10.182
  769SOL    HW1 4139   5.704  10.029  10.242
  769SOL    HW2 4140   5.624   9.968  10.129
  770SOL     OW 4141  10.342   6.421   1.791
  770SOL    HW1 4142  10.410   6.452   1.851
  770SOL    HW2 4143  10.382   6.426   1.704
  771SOL     OW 4144  10.905   3.860   6.634
  771SOL    HW1 4145  10.814   3.891   6.634
  771SOL    HW2 4146  10.904   3.783   6.691
  772SOL     OW 4147  13.464  10.131  13.546
  772SOL    HW1 4148  13.397  10.199  13.541
  772SOL    HW2 4149  13.544  10.174  13.515
  773SOL     OW 4150   1.219   8.528   1.478
  773SOL    HW1 4151   1.217   8.492   1.567
  773SOL    HW2 4152   1.128   8.551   1.459
  774SOL     OW 4153  10.495  12.711   2.680
  774SOL    HW1 4154  10.563  12.743   2.621
  774SOL    HW2 4155  10.531  12.722   2.768
  775SOL     OW 4156   5.287   3.180   5.095
  775SOL    HW1 4157   5.354   3.119   5.126
  775SOL    HW2 4158   5.301   3.259   5.146
  776SOL     OW 4159   0.119  14.334   7.567
  776SOL    HW1 4160   0.098  14.418   7.606
  776SOL    HW2 4161   0.075  14.270   7.623
  777SOL     OW 4162   0.029   0.040   9.227
  777SOL    HW1 4163   0.008   0.072   9.314
  777SOL    HW2 4164  14.825  14.861   9.200
  778SOL     OW 4165   3.233   9.916   0.057
  778SOL    HW1 4166   3.308   9.865   0.026
  778SOL    HW2 4167   3.255  10.006   0.036
  779SOL     OW 4168  13.841   1.223   6.815
  779SOL    HW1 4169  13.841   1.195   6.907
  779SOL    HW2 4170  13.870   1.314   6.817
  780SOL     OW 4171   5.419  14.359   5.891
  780SOL    HW1 4172   5.371  14.349   5.973
  780SOL    HW2 4173   5.384  14.440   5.853
  781SOL     OW 4174  12.365   9.111   3.480
  781SOL    HW1 4175  12.273   9.086   3.471
  781SOL    HW2 4176  12.392   9.074   3.564
  782SOL     OW 4177   0.113   1.178   7.572
  782SOL    HW1 4178   0.143   1.135   7.652
  782SOL    HW2 4179   0.036   1.128   7.545
  783SOL     OW 4180   6.389  10.645  10.614
  783SOL    HW1 4181   6.329  10.612  10.681
  783SOL    HW2 4182   6.469  10.594  10.626
  784SOL     OW 4183   1.450  11.869   2.799
  784SOL    HW1 4184   1.522  11.807   2.795
  784SOL    HW2 4185   1.475  11.931   2.868
  785SOL     OW 4186   8.395   6.745   1.068
  785SOL    HW1 4187   8.374   6.792   1.148
  785SOL    HW2 4188   8.459   6.800   1.023
  786SOL     OW 4189  12.927  14.818   9.256
  786SOL    HW1 4190  12.983  14.789   9.183
  786SOL    HW2 4191  12.840  14.825   9.218
  787SOL     OW 4192   3.300   1.153  11.406
  787SOL    HW1 4193   3.324   1.095  11.479
  787SOL    HW2 4194   3.215   1.188  11.430
  788SOL     OW 4195   2.106  11.707   1.306
  788SOL    HW1 4196   2.113  11.735   1.397
  788SOL    HW2 4197   2.196  11.694   1.278
  789SOL     OW 4198   8.608  12.784   8.660
  789SOL    HW1 4199   8.702  12.776   8.677
  789SOL    HW2 4200   8.570  12.705   8.699
  790SOL     OW 4201   0.874   4.271   9.254
  790SOL    HW1 4202   0.820   4.346   9.279
  790SOL    HW2 4203   0.819   4.220   9.195
  791SOL     OW 4204   4.241   7.234   0.723
  791SOL    HW1 4205   4.335   7.232   0.709
  791SOL    HW2 4206   4.203   7.242   0.636
  792SOL     OW 4207  14.134   9.216   6.416
  792SOL    HW1 4208  14.047   9.246   6.390
  792SOL    HW2 4209  14.150   9.259   6.500
  793SOL     OW 4210   7.180  10.220   6.781
  793SOL    HW1 4211   7.238  10.249   6.851
  793SOL    HW2 4212   7.095  10.206   6.824
  794SOL     OW 4213   9.913   7.568  10.403
  794SOL    HW1 4214   9.920   7.546  10.496
  794SOL    HW2 4215   9.975   7.640  10.390
  795SOL     OW 4216  14.700   0.705   8.221
  795SOL    HW1 4217  14.723   0.641   8.154
  795SOL    HW2 4218  14.780   0.719   8.271
  796SOL     OW 4219   2.791   8.417   9.124
  796SOL    HW1 4220   2.851   8.492   9.132
  796SOL    HW2 4221   2.837   8.345   9.166
  797SOL     OW 4222  13.784  11.284   1.747
  797SOL    HW1 4223  13.803  11.346   1.818
  797SOL    HW2 4224  13.840  11.209   1.765
  798SOL     OW 4225   5.336   4.653   4.031
  798SOL    HW1 4226   5.286   4.611   4.101
  798SOL    HW2 4227   5.283   4.641   3.952
  799SOL     OW 4228  13.318   4.013  10.590
  799SOL    HW1 4229  13.361   3.969  10.516
  799SOL    HW2 4230  13.342   3.961  10.666
  800SOL     OW 4231  13.225   3.083   9.400
  800SOL    HW1 4232  13.147   3.139   9.403
  800SOL    HW2 4233  13.190   2.995   9.386
  801SOL     OW 4234   8.041   6.519  12.354
  801SOL    HW1 4235   8.083   6.473  12.281
  801SOL    HW2 4236   8.055   6.462  12.430
  802SOL     OW 4237   1.909  12.474  12.812
  802SOL    HW1 4238   1.896  12.517  12.727
  802SOL    HW2 4239   1.939  12.544  12.870
  803SOL     OW 4240   9.735   5.152   3.096
  803SOL    HW1 4241   9.788   5.077   3.124
  803SOL    HW2 4242   9.763   5.224   3.152
  804SOL     OW 4243   9.278   1.735   7.689
  804SOL    HW1 4244   9.294   1.706   7.779
  804SOL    HW2 4245   9.297   1.658   7.636
  805SOL     OW 4246  14.561   5.441   6.534
  805SOL    HW1 4247  14.578   5.483   6.619
  805SOL    HW2 4248  14.584   5.508   6.470
  806SOL     OW 4249  14.266   6.909   6.301
  806SOL    HW1 4250  14.283   6.883   6.211
  806SOL    HW2 4251  14.215   6.990   6.293
  807SOL     OW 4252   1.465   7.815  14.349
  807SOL    HW1 4253   1.401   7.834  14.418
  807SOL    HW2 4254   1.428   7.856  14.271
  808SOL     OW 4255   4.701  14.811   5.591
  808SOL    HW1 4256   4.756  14.785   5.665
  808SOL    HW2 4257   4.642   0.006   5.628
  809SOL     OW 4258   8.829   3.276   6.800
  809SOL    HW1 4259   8.767   3.218   6.756
  809SOL    HW2 4260   8.787   3.362   6.799
  810SOL     OW 4261   0.112   2.695   9.009
  810SOL    HW1 4262   0.202   2.662   9.016
  810SOL    HW2 4263   0.059   2.617   8.991
  811SOL     OW 4264   7.040  11.322  13.400
  811SOL    HW1 4265   6.964  11.274  13.431
  811SOL    HW2 4266   7.102  11.254  13.372
  812SOL     OW 4267  14.332   2.866   9.528
  812SOL    HW1 4268  14.411   2.854   9.475
  812SOL    HW2 4269  14.325   2.961   9.539
  813SOL     OW 4270   7.115   9.832   6.927
  813SOL    HW1 4271   7.182   9.804   6.989
  813SOL    HW2 4272   7.032   9.823   6.975
  814SOL     OW 4273  10.207   6.462   0.386
  814SOL    HW1 4274  10.126   6.444   0.340
  814SOL    HW2 4275  10.186   6.535   0.444
  815SOL     OW 4276  14.031   2.862  11.874
  815SOL    HW1 4277  14.074   2.808  11.807
  815SOL    HW2 4278  13.943   2.826  11.881
  816SOL     OW 4279  14.570  13.190   8.500
  816SOL    HW1 4280  14.559  13.114   8.557
  816SOL    HW2 4281  14.498  13.184   8.438
  817SOL     OW 4282  13.487  11.340   3.388
  817SOL    HW1 4283  13.395  11.365   3.397
  817SOL    HW2 4284  13.531  11.421   3.362
  818SOL     OW 4285   4.802   8.944   6.467
  818SOL    HW1 4286   4.784   9.023   6.416
  818SOL    HW2 4287   4.838   8.977   6.550
  819SOL     OW 4288   2.059   0.485   3.702
  819SOL    HW1 4289   2.025   0.561   3.655
  819SOL    HW2 4290   1.990   0.464   3.766
  820SOL     OW 4291   0.680   3.988   9.853
  820SOL    HW1 4292   0.747   4.008   9.918
  820SOL    HW2 4293   0.602   3.966   9.905
  821SOL     OW 4294  10.506   6.003  11.971
  821SOL    HW1 4295  10.484   5.914  11.997
  821SOL    HW2 4296  10.481   6.008  11.879
  822SOL     OW 4297   2.524   5.464   8.180
  822SOL    HW1 4298   2.455   5.437   8.119
  822SOL    HW2 4299   2.575   5.529   8.132
  823SOL     OW 4300  13.233   5.503  11.021
  823SOL    HW1 4301  13.205   5.420  11.059
  823SOL    HW2 4302  13.198   5.503  10.932
  824SOL     OW 4303   8.895   0.610  13.762
  824SOL    HW1 4304   8.875   0.702  13.782
  824SOL    HW2 4305   8.851   0.594  13.679
  825SOL     OW 4306   3.788   8.568   1.406
  825SOL    HW1 4307   3.830   8.653   1.392
  825SOL    HW2 4308   3.739   8.579   1.488
  826SOL     OW 4309   7.586   5.189   9.462
  826SOL    HW1 4310   7.669   5.140   9.464
  826SOL    HW2 4311   7.609   5.276   9.492
  827SOL     OW 4312   1.286   9.385   4.641
  827SOL    HW1 4313   1.271   9.368   4.734
  827SOL    HW2 4314   1.299   9.480   4.636
  828SOL     OW 4315  12.561  10.364   1.457
  828SOL    HW1 4316  12.512  10.295   1.502
  828SOL    HW2 4317  12.606  10.411   1.527
  829SOL     OW 4318  10.195   0.111  11.215
  829SOL    HW1 4319  10.166   0.138  11.302
  829SOL    HW2 4320  10.289   0.092  11.227
  830SOL     OW 4321  12.440   6.397   7.931
  830SOL    HW1 4322  12.459   6.449   7.853
  830SOL    HW2 4323  12.412   6.462   7.996
  831SOL     OW 4324  14.687  13.040  13.444
  831SOL    HW1 4325  14.618  12.976  13.427
  831SOL    HW2 4326  14.757  12.989  13.486
  832SOL     OW 4327  13.497   2.101   6.579
  832SOL    HW1 4328  13.462   2.033   6.521
  832SOL    HW2 4329  13.431   2.171   6.576
  833SOL     OW 4330   6.151   4.669  14.829
  833SOL    HW1 4331   6.109   4.655  14.744
  833SOL    HW2 4332   6.197   4.752  14.819
  834SOL     OW 4333   8.783   4.584   4.047
  834SOL    HW1 4334   8.842   4.623   4.112
  834SOL    HW2 4335   8.738   4.658   4.007
  835SOL     OW 4336   1.223   0.006   2.043
  835SOL    HW1 4337   1.199   0.090   2.081
  835SOL    HW2 4338   1.215  14.816   2.115
  836SOL     OW 4339   9.187   9.605  10.898
  836SOL    HW1 4340   9.205   9.642  10.811
  836SOL    HW2 4341   9.123   9.536  10.881
  837SOL     OW 4342   1.265  10.693  11.709
  837SOL    HW1 4343   1.229  10.695  11.621
  837SOL    HW2 4344   1.189  10.700  11.767
  838SOL     OW 4345   4.823   4.641   0.780
  838SOL    HW1 4346   4.814   4.659   0.686
  838SOL    HW2 4347   4.845   4.548   0.784
  839SOL     OW 4348  11.508  13.306  12.995
  839SOL    HW1 4349  11.491  13.219  12.959
  839SOL    HW2 4350  11.425  13.334  13.032
  840SOL     OW 4351  10.406  11.999   2.649
  840SOL    HW1 4352  10.490  11.998   2.694
  840SOL    HW2 4353  10.422  11.947   2.569
  841SOL     OW 4354   7.526   1.127  14.652
  841SOL    HW1 4355   7.441   1.084  14.637
  841SOL    HW2 4356   7.588   1.075  14.600
  842SOL     OW 4357  12.916   3.963   5.671
  842SOL    HW1 4358  12.999   4.009   5.670
  842SOL    HW2 4359  12.862   4.007   5.606
  843SOL     OW 4360   3.361   2.425  11.057
  843SOL    HW1 4361   3.421   2.500  11.058
  843SOL    HW2 4362   3.408   2.356  11.104
  844SOL     OW 4363  12.699   7.786   8.767
  844SOL    HW1 4364  12.709   7.880   8.783
  844SOL    HW2 4365  12.698   7.777   8.672
  845SOL     OW 4366   3.280   9.439  11.781
  845SOL    HW1 4367   3.350   9.447  11.845
  845SOL    HW2 4368   3.221   9.512  11.800
  846SOL     OW 4369  14.696   6.149   0.668
  846SOL    HW1 4370  14.648   6.228   0.643
  846SOL    HW2 4371  14.629   6.091   0.704
  847SOL     OW 4372   0.053  11.663   2.116
  847SOL    HW1 4373   0.017  11.589   2.068
  847SOL    HW2 4374   0.002  11.667   2.197
  848SOL     OW 4375  13.164   9.717  11.022
  848SOL    HW1 4376  13.209   9.783  10.969
  848SOL    HW2 4377  13.140   9.764  11.103
  849SOL     OW 4378   4.131   1.629   1.615
  849SOL    HW1 4379   4.161   1.555   1.667
  849SOL    HW2 4380   4.211   1.675   1.590
  850SOL     OW 4381   3.449   4.916  13.824
  850SOL    HW1 4382   3.445   4.851  13.754
  850SOL    HW2 4383   3.370   4.969  13.812
  851SOL     OW 4384   1.484   6.539  11.531
  851SOL    HW1 4385   1.433   6.616  11.505
  851SOL    HW2 4386   1.464   6.474  11.464
  852SOL     OW 4387  13.872   4.391  12.853
  852SOL    HW1 4388  13.935   4.329  12.817
  852SOL    HW2 4389  13.919   4.474  12.855
  853SOL     OW 4390   7.566   9.588   8.146
  853SOL    HW1 4391   7.652   9.630   8.143
  853SOL    HW2 4392   7.504   9.661   8.150
  854SOL     OW 4393   2.172  10.960  13.659
  854SOL    HW1 4394   2.179  10.959  13.755
  854SOL    HW2 4395   2.079  10.973  13.642
  855SOL     OW 4396   1.471  10.741   4.450
  855SOL    HW1 4397   1.556  10.774   4.422
  855SOL    HW2 4398   1.483  10.718   4.542
  856SOL     OW 4399   2.354  13.710   3.722
  856SOL    HW1 4400   2.327  13.619   3.716
  856SOL    HW2 4401   2.446  13.706   3.748
  857SOL     OW 4402   5.852   2.365   1.871
  857SOL    HW1 4403   5.768   2.402   1.845
  857SOL    HW2 4404   5.916   2.431   1.846
  858SOL     OW 4405  11.053  12.515   2.567
  858SOL    HW1 4406  11.146  12.529   2.583
  858SOL    HW2 4407  11.009  12.543   2.647
  859SOL     OW 4408   3.064  11.031  14.065
  859SOL    HW1 4409   3.089  11.075  14.146
  859SOL    HW2 4410   3.051  11.101  14.002
  860SOL     OW 4411  13.920  12.766   3.140
  860SOL    HW1 4412  14.009  12.741   3.114
  860SOL    HW2 4413  13.864  12.723   3.076
  861SOL     OW 4414   8.795  13.233   4.725
  861SOL    HW1 4415   8.704  13.262   4.729
  861SOL    HW2 4416   8.799  13.158   4.784
  862SOL     OW 4417   8.736   0.623   1.735
  862SOL    HW1 4418   8.778   0.580   1.810
  862SOL    HW2 4419   8.753   0.716   1.749
  863SOL     OW 4420   5.113  11.111  13.526
  863SOL    HW1 4421   5.040  11.145  13.578
  863SOL    HW2 4422   5.152  11.043  13.580
  864SOL     OW 4423  11.195   8.573   1.899
  864SOL    HW1 4424  11.183   8.642   1.833
  864SOL    HW2 4425  11.239   8.503   1.851
  865SOL     OW 4426   9.192   2.128   1.220
  865SOL    HW1 4427   9.227   2.051   1.175
  865SOL    HW2 4428   9.105   2.139   1.183
  866SOL     OW 4429   4.671  11.190   4.651
  866SOL    HW1 4430   4.583  11.173   4.615
  866SOL    HW2 4431   4.698  11.272   4.611
  867SOL     OW 4432   1.338   8.104   7.972
  867SOL    HW1 4433   1.340   8.009   7.961
  867SOL    HW2 4434   1.331   8.117   8.067
  868SOL     OW 4435   9.288  14.737   1.643
  868SOL    HW1 4436   9.376  14.698   1.643
  868SOL    HW2 4437   9.246  14.698   1.720
  869SOL     OW 4438   6.030  13.614   1.626
  869SOL    HW1 4439   5.984  13.535   1.656
  869SOL    HW2 4440   5.977  13.646   1.553
  870SOL     OW 4441  10.774   7.284   1.340
  870SOL    HW1 4442  10.791   7.203   1.389
  870SOL    HW2 4443  10.855   7.333   1.346
  871SOL     OW 4444   2.588   2.927  10.636
  871SOL    HW1 4445   2.538   2.937  10.555
  871SOL    HW2 4446   2.528   2.882  10.695
  872SOL     OW 4447  13.156   8.058   3.454
  872SOL    HW1 4448  13.087   8.029   3.514
  872SOL    HW2 4449  13.155   8.153   3.461
  873SOL     OW 4450   8.272  12.418  14.595
  873SOL    HW1 4451   8.254  12.326  14.578
  873SOL    HW2 4452   8.222  12.466  14.529
  874SOL     OW 4453   8.498   5.626  14.184
  874SOL    HW1 4454   8.425   5.569  14.162
  874SOL    HW2 4455   8.574   5.567  14.187
  875SOL     OW 4456   9.983   3.581   4.178
  875SOL    HW1 4457  10.064   3.630   4.182
  875SOL    HW2 4458  10.001   3.511   4.115
  876SOL     OW 4459  11.686   1.670  14.504
  876SOL    HW1 4460  11.620   1.737  14.523
  876SOL    HW2 4461  11.763   1.697  14.555
  877SOL     OW 4462   5.688   7.420   9.849
  877SOL    HW1 4463   5.654   7.366   9.777
  877SOL    HW2 4464   5.668   7.371   9.928
  878SOL     OW 4465   0.133  10.927   3.226
  878SOL    HW1 4466   0.206  10.987   3.209
  878SOL    HW2 4467   0.123  10.878   3.144
  879SOL     OW 4468  13.429  13.429   2.038
  879SOL    HW1 4469  13.352  13.379   2.009
  879SOL    HW2 4470  13.455  13.479   1.961
  880SOL     OW 4471   5.077   0.836   4.738
  880SOL    HW1 4472   5.144   0.786   4.784
  880SOL    HW2 4473   5.066   0.915   4.791
  881SOL     OW 4474   6.946   5.871  13.879
  881SOL    HW1 4475   6.946   5.927  13.957
  881SOL    HW2 4476   6.862   5.825  13.881
  882SOL     OW 4477   3.612  11.038   9.506
  882SOL    HW1 4478   3.700  11.071   9.492
  882SOL    HW2 4479   3.610  10.955   9.459
  883SOL     OW 4480   4.422   8.024   2.216
  883SOL    HW1 4481   4.515   8.033   2.233
  883SOL    HW2 4482   4.395   8.111   2.185
  884SOL     OW 4483   2.401   7.577   9.653
  884SOL    HW1 4484   2.496   7.564   9.649
  884SOL    HW2 4485   2.365   7.503   9.604
  885SOL     OW 4486   8.186   1.628   6.985
  885SOL    HW1 4487   8.235   1.548   6.966
  885SOL    HW2 4488   8.144   1.610   7.069
  886SOL     OW 4489  12.625  11.056  14.293
  886SOL    HW1 4490  12.624  11.144  14.256
  886SOL    HW2 4491  12.708  11.018  14.264
  887SOL     OW 4492   8.400   0.047   9.155
  887SOL    HW1 4493   8.420   0.126   9.105
  887SOL    HW2 4494   8.409  14.848   9.092
  888SOL     OW 4495   2.394  11.959   7.056
  888SOL    HW1 4496   2.412  12.024   6.989
  888SOL    HW2 4497   2.467  11.966   7.117
  889SOL     OW 4498   3.886  13.594   1.772
  889SOL    HW1 4499   3.819  13.629   1.830
  889SOL    HW2 4500   3.937  13.670   1.744
  890SOL     OW 4501   6.645   9.684  11.521
  890SOL    HW1 4502   6.599   9.728  11.449
  890SOL    HW2 4503   6.633   9.741  11.596
  891SOL     OW 4504  11.242   1.191  10.404
  891SOL    HW1 4505  11.257   1.117  10.463
  891SOL    HW2 4506  11.278   1.163  10.320
  892SOL     OW 4507   3.627   1.475   6.054
  892SOL    HW1 4508   3.535   1.487   6.076
  892SOL    HW2 4509   3.655   1.399   6.106
  893SOL     OW 4510   4.668   9.620   9.848
  893SOL    HW1 4511   4.682   9.699   9.900
  893SOL    HW2 4512   4.730   9.556   9.883
  894SOL     OW 4513  10.774  10.076  13.610
  894SOL    HW1 4514  10.752   9.986  13.585
  894SOL    HW2 4515  10.833  10.107  13.541
  895SOL     OW 4516   6.298  14.497   9.818
  895SOL    HW1 4517   6.366  14.511   9.884
  895SOL    HW2 4518   6.232  14.565   9.837
  896SOL     OW 4519   9.701  10.703   9.164
  896SOL    HW1 4520   9.669  10.687   9.253
  896SOL    HW2 4521   9.654  10.781   9.135
  897SOL     OW 4522   5.475   7.105   8.167
  897SOL    HW1 4523   5.388   7.071   8.145
  897SOL    HW2 4524   5.472   7.196   8.138
  898SOL     OW 4525   2.025   5.138   1.332
  898SOL    HW1 4526   1.947   5.090   1.360
  898SOL    HW2 4527   2.083   5.134   1.408
  899SOL     OW 4528   3.988   3.431   9.755
  899SOL    HW1 4529   4.029   3.501   9.703
  899SOL    HW2 4530   3.976   3.470   9.842
  900SOL     OW 4531   1.851   0.543  14.809
  900SOL    HW1 4532   1.914   0.560   0.007
  900SOL    HW2 4533   1.840   0.628  14.766
  901SOL     OW 4534   1.373   5.279   3.350
  901SOL    HW1 4535   1.435   5.344   3.384
  901SOL    HW2 4536   1.360   5.305   3.259
  902SOL     OW 4537   4.918   1.844  12.842
  902SOL    HW1 4538   4.915   1.771  12.904
  902SOL    HW2 4539   5.003   1.835  12.798
  903SOL     OW 4540   2.401   5.680   5.542
  903SOL    HW1 4541   2.423   5.741   5.472
  903SOL    HW2 4542   2.413   5.731   5.622
  904SOL     OW 4543  14.275   2.904   6.992
  904SOL    HW1 4544  14.214   2.948   7.051
  904SOL    HW2 4545  14.219   2.849   6.937
  905SOL     OW 4546   8.693   9.267   2.602
  905SOL    HW1 4547   8.771   9.246   2.654
  905SOL    HW2 4548   8.717   9.244   2.512
  906SOL     OW 4549   1.056   7.904   9.874
  906SOL    HW1 4550   0.968   7.932   9.899
  906SOL    HW2 4551   1.048   7.873   9.784
  907SOL     OW 4552   4.644   6.154   5.987
  907SOL    HW1 4553   4.577   6.086   5.974
  907SOL    HW2 4554   4.661   6.187   5.899
  908SOL     OW 4555  14.058  11.983   0.053
  908SOL    HW1 4556  14.149  12.009   0.032
  908SOL    HW2 4557  14.039  11.912  14.865
  909SOL     OW 4558  13.957   3.219  13.608
  909SOL    HW1 4559  14.047   3.201  13.636
  909SOL    HW2 4560  13.903   3.177  13.675
  910SOL     OW 4561   7.998   6.336   9.101
  910SOL    HW1 4562   7.947   6.351   9.021
  910SOL    HW2 4563   8.083   6.307   9.069
  911SOL     OW 4564  11.616  10.212   6.602
  911SOL    HW1 4565  11.536  10.212   6.655
  911SOL    HW2 4566  11.657  10.128   6.622
  912SOL     OW 4567   8.908  13.033   2.610
  912SOL    HW1 4568   8.894  13.087   2.688
  912SOL    HW2 4569   8.901  13.095   2.537
  913SOL     OW 4570  12.079  11.373   5.311
  913SOL    HW1 4571  11.999  11.423   5.296
  913SOL    HW2 4572  12.071  11.340   5.401
  914SOL     OW 4573   8.243  10.850  14.837
  914SOL    HW1 4574   8.274  10.913   0.030
  914SOL    HW2 4575   8.235  10.768   0.013
  915SOL     OW 4576   1.796   9.363   8.944
  915SOL    HW1 4577   1.863   9.298   8.925
  915SOL    HW2 4578   1.845   9.445   8.954
  916SOL     OW 4579  12.985  14.635  14.351
  916SOL    HW1 4580  12.923  14.670  14.288
  916SOL    HW2 4581  12.962  14.678  14.434
  917SOL     OW 4582   6.371   0.142  10.660
  917SOL    HW1 4583   6.416   0.178  10.584
  917SOL    HW2 4584   6.278   0.143  10.636
  918SOL     OW 4585   7.280   9.748   7.840
  918SOL    HW1 4586   7.322   9.674   7.884
  918SOL    HW2 4587   7.348   9.782   7.782
  919SOL     OW 4588  11.791   3.809   2.126
  919SOL    HW1 4589  11.728   3.870   2.163
  919SOL    HW2 4590  11.804   3.839   2.036
  920SOL     OW 4591   6.153   6.747   0.651
  920SOL    HW1 4592   6.141   6.653   0.663
  920SOL    HW2 4593   6.205   6.755   0.571
  921SOL     OW 4594   5.601   8.054   6.952
  921SOL    HW1 4595   5.556   8.007   6.882
  921SOL    HW2 4596   5.572   8.009   7.032
  922SOL     OW 4597  11.145   8.600   9.094
  922SOL    HW1 4598  11.171   8.692   9.094
  922SOL    HW2 4599  11.221   8.553   9.127
  923SOL     OW 4600  13.657  14.288  14.362
  923SOL    HW1 4601  13.588  14.348  14.390
  923SOL    HW2 4602  13.725  14.296  14.429
  924SOL     OW 4603   4.592  10.420   1.958
  924SOL    HW1 4604   4.682  10.438   1.984
  924SOL    HW2 4605   4.540  10.436   2.037
  925SOL     OW 4606  13.342   4.618  10.567
  925SOL    HW1 4607  13.268   4.656  10.614
  925SOL    HW2 4608  13.329   4.524  10.575
  926SOL     OW 4609  13.480   8.687   0.372
  926SOL    HW1 4610  13.483   8.671   0.277
  926SOL    HW2 4611  13.522   8.772   0.383
  927SOL     OW 4612   3.833   0.156   2.419
  927SOL    HW1 4613   3.925   0.158   2.392
  927SOL    HW2 4614   3.790   0.101   2.354
  928SOL     OW 4615   1.148   8.698  10.480
  928SOL    HW1 4616   1.108   8.759  10.417
  928SOL    HW2 4617   1.196   8.636  10.425
  929SOL     OW 4618  11.177  11.949  10.627
  929SOL    HW1 4619  11.102  11.898  10.597
  929SOL    HW2 4620  11.146  11.993  10.705
  930SOL     OW 4621   7.579   7.486   4.316
  930SOL    HW1 4622   7.500   7.473   4.263
  930SOL    HW2 4623   7.634   7.411   4.295
  931SOL     OW 4624   4.269   1.429   9.944
  931SOL    HW1 4625   4.215   1.486   9.889
  931SOL    HW2 4626   4.261   1.342   9.904
  932SOL     OW 4627   0.871   5.809   7.243
  932SOL    HW1 4628   0.803   5.773   7.186
  932SOL    HW2 4629   0.846   5.900   7.256
  933SOL     OW 4630   0.663   9.156   1.686
  933SOL    HW1 4631   0.607   9.080   1.698
  933SOL    HW2 4632   0.635   9.218   1.753
  934SOL     OW 4633   5.776   1.032   1.928
  934SOL    HW1 4634   5.816   0.981   1.858
  934SOL    HW2 4635   5.693   1.062   1.892
  935SOL     OW 4636   7.232   4.641   1.061
  935SOL    HW1 4637   7.256   4.551   1.041
  935SOL    HW2 4638   7.137   4.638   1.077
  936SOL     OW 4639   2.531  10.477   3.616
  936SOL    HW1 4640   2.519  10.438   3.702
  936SOL    HW2 4641   2.490  10.414   3.556
  937SOL     OW 4642   0.848  11.591  12.537
  937SOL    HW1 4643   0.773  11.638  12.500
  937SOL    HW2 4644   0.838  11.603  12.632
  938SOL     OW 4645   2.703  12.004  11.563
  938SOL    HW1 4646   2.631  12.011  11.500
  938SOL    HW2 4647   2.681  12.067  11.631
  939SOL     OW 4648  13.005   1.026   8.150
  939SOL    HW1 4649  12.943   0.961   8.117
  939SOL    HW2 4650  12.957   1.109   8.146
  940SOL     OW 4651   8.006   4.709   9.472
  940SOL    HW1 4652   8.054   4.680   9.550
  940SOL    HW2 4653   8.014   4.636   9.410
  941SOL     OW 4654   3.115  11.829   9.417
  941SOL    HW1 4655   3.040  11.783   9.379
  941SOL    HW2 4656   3.113  11.808   9.510
  942SOL     OW 4657   1.720   0.892  12.982
  942SOL    HW1 4658   1.758   0.920  12.899
  942SOL    HW2 4659   1.779   0.928  13.048
  943SOL     OW 4660  10.608   2.809   7.129
  943SOL    HW1 4661  10.528   2.834   7.083
  943SOL    HW2 4662  10.679   2.848   7.077
  944SOL     OW 4663   0.422   5.028  12.590
  944SOL    HW1 4664   0.383   4.943  12.572
  944SOL    HW2 4665   0.347   5.088  12.593
  945SOL     OW 4666   3.891  13.830   3.425
  945SOL    HW1 4667   3.826  13.864   3.363
  945SOL    HW2 4668   3.959  13.792   3.370
  946SOL     OW 4669  14.142   0.885   3.160
  946SOL    HW1 4670  14.176   0.844   3.239
  946SOL    HW2 4671  14.207   0.865   3.093
  947SOL     OW 4672  13.918   2.184   1.538
  947SOL    HW1 4673  13.825   2.186   1.513
  947SOL    HW2 4674  13.960   2.135   1.468
  948SOL     OW 4675   1.157  14.558   4.562
  948SOL    HW1 4676   1.131  14.502   4.635
  948SOL    HW2 4677   1.249  14.535   4.546
  949SOL     OW 4678   6.750   8.409  12.873
  949SOL    HW1 4679   6.732   8.321  12.839
  949SOL    HW2 4680   6.804   8.450  12.806
  950SOL     OW 4681   1.098   4.685   3.809
  950SOL    HW1 4682   1.089   4.746   3.883
  950SOL    HW2 4683   1.185   4.648   3.819
  951SOL     OW 4684  11.494   3.154   8.389
  951SOL    HW1 4685  11.443   3.161   8.470
  951SOL    HW2 4686  11.575   3.203   8.407
  952SOL     OW 4687   3.047   8.174   9.534
  952SOL    HW1 4688   3.122   8.226   9.507
  952SOL    HW2 4689   3.025   8.205   9.621
  953SOL     OW 4690   5.877   6.272   6.287
  953SOL    HW1 4691   5.889   6.203   6.352
  953SOL    HW2 4692   5.782   6.274   6.272
  954SOL     OW 4693   3.261   5.394  12.281
  954SOL    HW1 4694   3.344   5.379  12.326
  954SOL    HW2 4695   3.282   5.380  12.188
  955SOL     OW 4696   6.581  13.483  10.956
  955SOL    HW1 4697   6.652  13.420  10.944
  955SOL    HW2 4698   6.527  13.472  10.878
  956SOL     OW 4699  14.352   4.610   2.833
  956SOL    HW1 4700  14.284   4.633   2.770
  956SOL    HW2 4701  14.408   4.548   2.786
  957SOL     OW 4702   0.208   7.633   0.343
  957SOL    HW1 4703   0.240   7.588   0.265
  957SOL    HW2 4704   0.277   7.697   0.364
  958SOL     OW 4705   3.578   9.918   3.009
  958SOL    HW1 4706   3.553   9.826   3.008
  958SOL    HW2 4707   3.532   9.957   2.934
  959SOL     OW 4708   1.557  13.495   2.553
  959SOL    HW1 4709   1.494  13.454   2.494
  959SOL    HW2 4710   1.586  13.573   2.505
  960SOL     OW 4711   6.883  14.312   6.596
  960SOL    HW1 4712   6.884  14.365   6.676
  960SOL    HW2 4713   6.904  14.223   6.626
  961SOL     OW 4714  13.941   0.460  13.475
  961SOL    HW1 4715  14.028   0.479  13.440
  961SOL    HW2 4716  13.881   0.488  13.406
  962SOL     OW 4717   7.880  14.361  12.951
  962SOL    HW1 4718   7.894  14.306  12.874
  962SOL    HW2 4719   7.868  14.449  12.916
  963SOL     OW 4720   3.221   0.148   2.049
  963SOL    HW1 4721   3.294   0.180   1.995
  963SOL    HW2 4722   3.150   0.133   1.987
  964SOL     OW 4723  14.051   4.376   7.306
  964SOL    HW1 4724  13.969   4.424   7.312
  964SOL    HW2 4725  14.116   4.443   7.284
  965SOL     OW 4726  10.749  11.641  13.649
  965SOL    HW1 4727  10.795  11.725  13.647
  965SOL    HW2 4728  10.724  11.629  13.740
  966SOL     OW 4729  13.913   9.145  12.209
  966SOL    HW1 4730  13.895   9.064  12.161
  966SOL    HW2 4731  14.001   9.131  12.245
  967SOL     OW 4732   9.151  12.703  12.777
  967SOL    HW1 4733   9.144  12.797  12.764
  967SOL    HW2 4734   9.245  12.685  12.770
  968SOL     OW 4735   9.512   3.135   7.426
  968SOL    HW1 4736   9.418   3.133   7.439
  968SOL    HW2 4737   9.525   3.201   7.357
  969SOL     OW 4738   3.909   0.471   1.141
  969SOL    HW1 4739   3.875   0.385   1.165
  969SOL    HW2 4740   3.975   0.490   1.207
  970SOL     OW 4741   8.669   1.167   1.920
  970SOL    HW1 4742   8.690   1.078   1.949
  970SOL    HW2 4743   8.586   1.158   1.875
  971SOL     OW 4744   9.521   5.794   2.697
  971SOL    HW1 4745   9.451   5.730   2.711
  971SOL    HW2 4746   9.543   5.825   2.785
  972SOL     OW 4747   3.074   4.648   6.319
  972SOL    HW1 4748   3.088   4.643   6.224
  972SOL    HW2 4749   2.996   4.703   6.329
  973SOL     OW 4750   3.730   3.650  11.287
  973SOL    HW1 4751   3.825   3.644  11.272
  973SOL    HW2 4752   3.692   3.630  11.201
  974SOL     OW 4753  10.254   8.799  12.847
  974SOL    HW1 4754  10.265   8.881  12.895
  974SOL    HW2 4755  10.312   8.737  12.892
  975SOL     OW 4756   5.966   8.415  11.444
  975SOL    HW1 4757   6.055   8.446  11.459
  975SOL    HW2 4758   5.948   8.435  11.352
  976SOL     OW 4759   7.394   5.228   8.909
  976SOL    HW1 4760   7.437   5.151   8.947
  976SOL    HW2 4761   7.466   5.289   8.891
  977SOL     OW 4762  10.927   5.296   3.052
  977SOL    HW1 4763  10.891   5.230   2.992
  977SOL    HW2 4764  10.995   5.249   3.099
  978SOL     OW 4765   6.535   7.836   5.045
  978SOL    HW1 4766   6.494   7.755   5.014
  978SOL    HW2 4767   6.607   7.806   5.101
  979SOL     OW 4768   8.057   1.703   9.475
  979SOL    HW1 4769   8.145   1.713   9.511
  979SOL    HW2 4770   8.059   1.619   9.429
  980SOL     OW 4771   5.221   7.760   9.444
  980SOL    HW1 4772   5.251   7.691   9.502
  980SOL    HW2 4773   5.296   7.779   9.388
  981SOL     OW 4774  10.454  11.858  12.309
  981SOL    HW1 4775  10.362  11.871  12.287
  981SOL    HW2 4776  10.491  11.947  12.308
  982SOL     OW 4777  11.081  12.733   8.557
  982SOL    HW1 4778  11.016  12.795   8.592
  982SOL    HW2 4779  11.117  12.690   8.635
  983SOL     OW 4780   5.809   3.685   6.473
  983SOL    HW1 4781   5.904   3.682   6.483
  983SOL    HW2 4782   5.795   3.698   6.380
  984SOL     OW 4783   6.475   8.843   3.570
  984SOL    HW1 4784   6.526   8.807   3.498
  984SOL    HW2 4785   6.420   8.769   3.600
  985SOL     OW 4786  13.948   0.348  13.158
  985SOL    HW1 4787  14.033   0.314  13.187
  985SOL    HW2 4788  13.884   0.292  13.201
  986SOL     OW 4789   4.509   4.612   1.812
  986SOL    HW1 4790   4.465   4.529   1.795
  986SOL    HW2 4791   4.544   4.638   1.726
  987SOL     OW 4792  10.635  14.864   7.593
  987SOL    HW1 4793  10.577   0.012   7.666
  987SOL    HW2 4794  10.664  14.774   7.610
  988SOL     OW 4795   3.822   4.727  11.450
  988SOL    HW1 4796   3.847   4.772  11.369
  988SOL    HW2 4797   3.769   4.653  11.421
  989SOL     OW 4798   0.235   6.610   1.872
  989SOL    HW1 4799   0.216   6.702   1.892
  989SOL    HW2 4800   0.201   6.597   1.784
  990SOL     OW 4801   1.223   2.722   8.093
  990SOL    HW1 4802   1.263   2.640   8.122
  990SOL    HW2 4803   1.295   2.771   8.052
  991SOL     OW 4804   9.715  13.700  10.769
  991SOL    HW1 4805   9.664  13.717  10.848
  991SOL    HW2 4806   9.750  13.612  10.781
  992SOL     OW 4807   0.721  10.045   2.582
  992SOL    HW1 4808   0.758  10.075   2.665
  992SOL    HW2 4809   0.674   9.964   2.604
  993SOL     OW 4810   5.706   2.644   5.370
  993SOL    HW1 4811   5.723   2.550   5.363
  993SOL    HW2 4812   5.793   2.683   5.377
  994SOL     OW 4813   3.418   9.204   6.738
  994SOL    HW1 4814   3.449   9.203   6.829
  994SOL    HW2 4815   3.415   9.112   6.712
  995SOL     OW 4816   3.761   5.768   7.963
  995SOL    HW1 4817   3.840   5.721   7.987
  995SOL    HW2 4818   3.730   5.725   7.883
  996SOL     OW 4819   9.510   2.573  10.162
  996SOL    HW1 4820   9.418   2.558  10.180
  996SOL    HW2 4821   9.548   2.597  10.247
  997SOL     OW 4822   3.766   5.221   3.558
  997SOL    HW1 4823   3.702   5.224   3.630
  997SOL    HW2 4824   3.746   5.140   3.511
  998SOL     OW 4825   1.074  13.004  10.976
  998SOL    HW1 4826   1.077  12.936  10.908
  998SOL    HW2 4827   1.100  13.084  10.930
  999SOL     OW 4828  11.118   0.348   1.870
  999SOL    HW1 4829  11.128   0.321   1.961
  999SOL    HW2 4830  11.075   0.433   1.874
 1000SOL     OW 4831  14.248  12.167  10.833
 1000SOL    HW1 4832  14.287  12.126  10.910
 1000SOL    HW2 4833  14.236  12.259  10.858
 1001SOL     OW 4834   7.923   2.806  13.703
 1001SOL    HW1 4835   8.004   2.814  13.653
 1001SOL    HW2 4836   7.950   2.804  13.795
 1002SOL     OW 4837   6.015   6.211  12.424
 1002SOL    HW1 4838   6.080   6.260  12.373
 1002SOL    HW2 4839   5.935   6.263  12.417
 1003SOL     OW 4840   1.450   6.066   4.040
 1003SOL    HW1 4841   1.492   6.098   4.120
 1003SOL    HW2 4842   1.505   6.099   3.969
 1004SOL     OW 4843  10.140  10.937   2.219
 1004SOL    HW1 4844  10.213  10.937   2.157
 1004SOL    HW2 4845  10.107  10.847   2.218
 1005SOL     OW 4846   3.194   8.986   2.013
 1005SOL    HW1 4847   3.183   9.036   2.094
 1005SOL    HW2 4848   3.119   9.011   1.960
 1006SOL     OW 4849   9.118   6.789  13.891
 1006SOL    HW1 4850   9.150   6.875  13.920
 1006SOL    HW2 4851   9.154   6.728  13.955
 1007SOL     OW 4852   2.095   5.054  11.617
 1007SOL    HW1 4853   2.139   5.100  11.690
 1007SOL    HW2 4854   2.048   4.982  11.659
 1008SOL     OW 4855   1.106  11.058   0.485
 1008SOL    HW1 4856   1.095  10.964   0.478
 1008SOL    HW2 4857   1.092  11.091   0.396
 1009SOL     OW 4858   4.625   3.430   4.452
 1009SOL    HW1 4859   4.542   3.429   4.500
 1009SOL    HW2 4860   4.650   3.338   4.446
 1010SOL     OW 4861   1.480  11.012   0.529
 1010SOL    HW1 4862   1.446  10.954   0.462
 1010SOL    HW2 4863   1.430  11.093   0.519
 1011SOL     OW 4864   2.152   3.097   8.884
 1011SOL    HW1 4865   2.143   3.010   8.845
 1011SOL    HW2 4866   2.232   3.133   8.845
 1012SOL     OW 4867   3.517   2.887   7.380
 1012SOL    HW1 4868   3.561   2.972   7.375
 1012SOL    HW2 4869   3.444   2.901   7.440
 1013SOL     OW 4870  12.590   4.023  11.109
 1013SOL    HW1 4871  12.534   3.950  11.082
 1013SOL    HW2 4872  12.659   4.026  11.043
 1014SOL     OW 4873   2.114   4.240  12.226
 1014SOL    HW1 4874   2.138   4.333  12.222
 1014SOL    HW2 4875   2.110   4.220  12.319
 1015SOL     OW 4876   3.663  10.840  10.284
 1015SOL    HW1 4877   3.674  10.884  10.199
 1015SOL    HW2 4878   3.575  10.801  10.279
 1016SOL     OW 4879   2.699   0.279   8.304
 1016SOL    HW1 4880   2.787   0.310   8.328
 1016SOL    HW2 4881   2.714   0.220   8.230
 1017SOL     OW 4882  12.972   1.169   9.850
 1017SOL    HW1 4883  12.994   1.140   9.938
 1017SOL    HW2 4884  12.881   1.142   9.838
 1018SOL     OW 4885   1.548  13.988   1.454
 1018SOL    HW1 4886   1.557  14.049   1.527
 1018SOL    HW2 4887   1.556  14.042   1.376
 1019SOL     OW 4888  10.707   8.953   4.879
 1019SOL    HW1 4889  10.730   9.016   4.811
 1019SOL    HW2 4890  10.772   8.883   4.870
 1020SOL     OW 4891   1.282  13.560   0.057
 1020SOL    HW1 4892   1.189  13.538   0.065
 1020SOL    HW2 4893   1.327  13.479   0.079
 1021SOL     OW 4894   6.890   8.629   9.666
 1021SOL    HW1 4895   6.857   8.709   9.624
 1021SOL    HW2 4896   6.970   8.657   9.710
 1022SOL     OW 4897   2.753  10.090   2.111
 1022SOL    HW1 4898   2.833  10.039   2.125
 1022SOL    HW2 4899   2.731  10.124   2.198
 1023SOL     OW 4900   2.186  14.256  12.025
 1023SOL    HW1 4901   2.227  14.170  12.016
 1023SOL    HW2 4902   2.216  14.306  11.949
 1024SOL     OW 4903   0.087  14.270   9.005
 1024SOL    HW1 4904   0.146  14.208   9.047
 1024SOL    HW2 4905   0.099  14.255   8.911
 1025SOL     OW 4906  12.073   0.192   9.108
 1025SOL    HW1 4907  12.018   0.236   9.044
 1025SOL    HW2 4908  12.095   0.108   9.069
 1026SOL     OW 4909   2.891  11.325   6.649
 1026SOL    HW1 4910   2.857  11.249   6.601
 1026SOL    HW2 4911   2.882  11.398   6.588
 1027SOL     OW 4912   4.390   3.506   5.887
 1027SOL    HW1 4913   4.348   3.550   5.813
 1027SOL    HW2 4914   4.484   3.510   5.866
 1028SOL     OW 4915  10.460  11.262  10.860
 1028SOL    HW1 4916  10.407  11.182  10.864
 1028SOL    HW2 4917  10.505  11.265  10.944
 1029SOL     OW 4918  10.486   7.526  12.361
 1029SOL    HW1 4919  10.418   7.546  12.297
 1029SOL    HW2 4920  10.557   7.487  12.310
 1030SOL     OW 4921   8.518   2.679  14.821
 1030SOL    HW1 4922   8.437   2.659  14.867
 1030SOL    HW2 4923   8.551   2.594  14.792
 1031SOL     OW 4924   1.422   5.943  10.608
 1031SOL    HW1 4925   1.421   5.907  10.697
 1031SOL    HW2 4926   1.352   5.897  10.563
 1032SOL     OW 4927   7.127  11.211   7.764
 1032SOL    HW1 4928   7.215  11.187   7.735
 1032SOL    HW2 4929   7.133  11.213   7.860
 1033SOL     OW 4930   6.395   1.203   3.649
 1033SOL    HW1 4931   6.411   1.124   3.598
 1033SOL    HW2 4932   6.421   1.275   3.590
 1034SOL     OW 4933   1.768   0.782  10.718
 1034SOL    HW1 4934   1.765   0.870  10.681
 1034SOL    HW2 4935   1.688   0.774  10.769
 1035SOL     OW 4936   5.153  11.350   3.438
 1035SOL    HW1 4937   5.182  11.320   3.524
 1035SOL    HW2 4938   5.209  11.425   3.418
 1036SOL     OW 4939   4.069   1.932   9.380
 1036SOL    HW1 4940   4.116   1.850   9.394
 1036SOL    HW2 4941   4.005   1.936   9.451
 1037SOL     OW 4942  14.865   5.738  11.198
 1037SOL    HW1 4943   0.084   5.768  11.199
 1037SOL    HW2 4944  14.870   5.644  11.181
 1038SOL     OW 4945   7.568   3.964   6.275
 1038SOL    HW1 4946   7.495   3.903   6.261
 1038SOL    HW2 4947   7.575   3.970   6.371
 1039SOL     OW 4948   3.111   6.400   2.314
 1039SOL    HW1 4949   3.181   6.391   2.249
 1039SOL    HW2 4950   3.119   6.490   2.344
 1040SOL     OW 4951   9.907   5.224  12.606
 1040SOL    HW1 4952   9.883   5.133  12.623
 1040SOL    HW2 4953   9.829   5.261  12.564
 1041SOL     OW 4954   9.116   4.990  11.790
 1041SOL    HW1 4955   9.094   4.998  11.697
 1041SOL    HW2 4956   9.181   4.919  11.793
 1042SOL     OW 4957  11.655   0.460   3.797
 1042SOL    HW1 4958  11.705   0.440   3.718
 1042SOL    HW2 4959  11.565   0.439   3.774
 1043SOL     OW 4960  13.476   5.088   5.067
 1043SOL    HW1 4961  13.477   5.028   4.991
 1043SOL    HW2 4962  13.460   5.031   5.142
 1044SOL     OW 4963  10.292  12.152  10.648
 1044SOL    HW1 4964  10.353  12.103  10.703
 1044SOL    HW2 4965  10.205  12.133  10.686
 1045SOL     OW 4966   0.823   0.280  11.752
 1045SOL    HW1 4967   0.739   0.269  11.795
 1045SOL    HW2 4968   0.854   0.366  11.780
 1046SOL     OW 4969   1.412   4.111  12.483
 1046SOL    HW1 4970   1.406   4.190  12.430
 1046SOL    HW2 4971   1.474   4.055  12.437
 1047SOL     OW 4972  13.303   6.911   7.198
 1047SOL    HW1 4973  13.346   6.915   7.113
 1047SOL    HW2 4974  13.369   6.875   7.257
 1048SOL     OW 4975   8.624  12.286   5.367
 1048SOL    HW1 4976   8.587  12.348   5.304
 1048SOL    HW2 4977   8.579  12.204   5.349
 1049SOL     OW 4978   3.474   8.827  12.480
 1049SOL    HW1 4979   3.528   8.857  12.554
 1049SOL    HW2 4980   3.531   8.834  12.404
 1050SOL     OW 4981   4.957   8.849  10.722
 1050SOL    HW1 4982   4.998   8.906  10.656
 1050SOL    HW2 4983   4.865   8.845  10.695
 1051SOL     OW 4984  10.781   2.387   9.036
 1051SOL    HW1 4985  10.738   2.307   9.004
 1051SOL    HW2 4986  10.859   2.396   8.982
 1052SOL     OW 4987  10.770   1.742   5.291
 1052SOL    HW1 4988  10.786   1.650   5.313
 1052SOL    HW2 4989  10.689   1.764   5.339
 1053SOL     OW 4990   7.555  11.930  12.779
 1053SOL    HW1 4991   7.488  11.874  12.819
 1053SOL    HW2 4992   7.579  11.992  12.848
 1054SOL     OW 4993   9.440  10.459   7.688
 1054SOL    HW1 4994   9.401  10.397   7.750
 1054SOL    HW2 4995   9.418  10.424   7.602
 1055SOL     OW 4996   0.169   7.464   2.019
 1055SOL    HW1 4997   0.234   7.403   2.054
 1055SOL    HW2 4998   0.091   7.411   2.006
 1056SOL     OW 4999   3.489  10.601  11.085
 1056SOL    HW1 5000   3.459  10.683  11.046
 1056SOL    HW2 5001   3.496  10.619  11.178
 1057SOL     OW 5002  11.480  11.732   6.645
 1057SOL    HW1 5003  11.528  11.651   6.664
 1057SOL    HW2 5004  11.388  11.706   6.649
 1058SOL     OW 5005   4.474   5.951   7.976
 1058SOL    HW1 5006   4.439   5.907   8.054
 1058SOL    HW2 5007   4.568   5.958   7.992
 1059SOL     OW 5008   9.634   8.809   7.767
 1059SOL    HW1 5009   9.640   8.832   7.859
 1059SOL    HW2 5010   9.693   8.870   7.722
 1060SOL     OW 5011   2.491   3.820  13.213
 1060SOL    HW1 5012   2.460   3.909  13.230
 1060SOL    HW2 5013   2.412   3.767  13.209
 1061SOL     OW 5014   6.809   0.255   3.585
 1061SOL    HW1 5015   6.752   0.219   3.516
 1061SOL    HW2 5016   6.785   0.347   3.590
 1062SOL     OW 5017   9.489  10.209   2.806
 1062SOL    HW1 5018   9.551  10.161   2.750
 1062SOL    HW2 5019   9.406  10.165   2.792
 1063SOL     OW 5020   9.437   6.844  14.107
 1063SOL    HW1 5021   9.515   6.829  14.160
 1063SOL    HW2 5022   9.436   6.938  14.093
 1064SOL     OW 5023  12.730   1.713  11.044
 1064SOL    HW1 5024  12.752   1.632  11.090
 1064SOL    HW2 5025  12.635   1.719  11.049
 1065SOL     OW 5026  12.077  11.406  12.787
 1065SOL    HW1 5027  12.098  11.379  12.877
 1065SOL    HW2 5028  12.126  11.346  12.732
 1066SOL     OW 5029   3.812   4.776   4.751
 1066SOL    HW1 5030   3.888   4.793   4.807
 1066SOL    HW2 5031   3.737   4.799   4.806
 1067SOL     OW 5032   8.327   4.249   2.044
 1067SOL    HW1 5033   8.330   4.153   2.041
 1067SOL    HW2 5034   8.373   4.277   1.965
 1068SOL     OW 5035   0.091   0.173   9.838
 1068SOL    HW1 5036   0.165   0.156   9.896
 1068SOL    HW2 5037   0.125   0.157   9.750
 1069SOL     OW 5038   6.582   4.926  13.938
 1069SOL    HW1 5039   6.542   4.926  13.851
 1069SOL    HW2 5040   6.580   4.834  13.965
 1070SOL     OW 5041   4.636   0.163   8.890
 1070SOL    HW1 5042   4.638   0.134   8.798
 1070SOL    HW2 5043   4.715   0.217   8.899
 1071SOL     OW 5044   5.108   2.984  13.439
 1071SOL    HW1 5045   5.145   2.980  13.528
 1071SOL    HW2 5046   5.016   3.006  13.453
 1072SOL     OW 5047  13.669   4.361   3.672
 1072SOL    HW1 5048  13.582   4.326   3.692
 1072SOL    HW2 5049  13.726   4.284   3.671
 1073SOL     OW 5050   2.641   7.173   3.728
 1073SOL    HW1 5051   2.663   7.110   3.660
 1073SOL    HW2 5052   2.709   7.241   3.721
 1074SOL     OW 5053   3.071   1.575   4.078
 1074SOL    HW1 5054   3.096   1.613   3.994
 1074SOL    HW2 5055   3.071   1.648   4.140
 1075SOL     OW 5056   0.033   4.864   5.690
 1075SOL    HW1 5057   0.114   4.823   5.661
 1075SOL    HW2 5058   0.013   4.929   5.623
 1076SOL     OW 5059  12.053   3.112   8.267
 1076SOL    HW1 5060  12.011   3.128   8.183
 1076SOL    HW2 5061  11.987   3.135   8.332
 1077SOL     OW 5062   8.092  10.154  13.888
 1077SOL    HW1 5063   8.130  10.080  13.935
 1077SOL    HW2 5064   8.157  10.176  13.821
 1078SOL     OW 5065   3.418  13.152  13.922
 1078SOL    HW1 5066   3.484  13.102  13.969
 1078SOL    HW2 5067   3.395  13.097  13.847
 1079SOL     OW 5068   1.345  10.415   3.878
 1079SOL    HW1 5069   1.262  10.459   3.859
 1079SOL    HW2 5070   1.348  10.341   3.817
 1080SOL     OW 5071  11.721   5.830   7.840
 1080SOL    HW1 5072  11.656   5.822   7.910
 1080SOL    HW2 5073  11.682   5.893   7.778
 1081SOL     OW 5074   1.431   1.398   2.021
 1081SOL    HW1 5075   1.355   1.389   2.078
 1081SOL    HW2 5076   1.450   1.309   1.992
 1082SOL     OW 5077  11.147  13.314   7.253
 1082SOL    HW1 5078  11.209  13.384   7.233
 1082SOL    HW2 5079  11.089  13.352   7.320
 1083SOL     OW 5080   5.002   8.025   5.073
 1083SOL    HW1 5081   5.086   7.985   5.054
 1083SOL    HW2 5082   4.985   8.082   4.999
 1084SOL     OW 5083   1.583   5.601   6.285
 1084SOL    HW1 5084   1.530   5.602   6.365
 1084SOL    HW2 5085   1.571   5.687   6.247
 1085SOL     OW 5086   0.470   2.159  12.450
 1085SOL    HW1 5087   0.405   2.207  12.399
 1085SOL    HW2 5088   0.533   2.128  12.385
 1086SOL     OW 5089   4.543   2.333  10.775
 1086SOL    HW1 5090   4.478   2.370  10.716
 1086SOL    HW2 5091   4.600   2.406  10.798
 1087SOL     OW 5092   8.148  10.287   8.634
 1087SOL    HW1 5093   8.131  10.334   8.715
 1087SOL    HW2 5094   8.243  10.287   8.624
 1088SOL     OW 5095  14.183   7.535   4.376
 1088SOL    HW1 5096  14.155   7.479   4.304
 1088SOL    HW2 5097  14.273   7.506   4.395
 1089SOL     OW 5098  10.621   0.741   0.680
 1089SOL    HW1 5099  10.708   0.759   0.644
 1089SOL    HW2 5100  10.621   0.648   0.699
 1090SOL     OW 5101   8.936   9.326   4.116
 1090SOL    HW1 5102   8.865   9.337   4.054
 1090SOL    HW2 5103   8.938   9.232   4.135
 1091SOL     OW 5104   6.683   5.581   9.522
 1091SOL    HW1 5105   6.726   5.658   9.558
 1091SOL    HW2 5106   6.621   5.553   9.590
 1092SOL     OW 5107   6.407  13.079   0.840
 1092SOL    HW1 5108   6.427  12.993   0.803
 1092SOL    HW2 5109   6.458  13.082   0.921
 1093SOL     OW 5110   9.076  13.653   0.420
 1093SOL    HW1 5111   9.081  13.686   0.331
 1093SOL    HW2 5112   8.984  13.665   0.445
 1094SOL     OW 5113   2.895  11.079   8.651
 1094SOL    HW1 5114   2.956  11.134   8.701
 1094SOL    HW2 5115   2.841  11.141   8.602
 1095SOL     OW 5116   5.385   2.230   7.890
 1095SOL    HW1 5117   5.422   2.208   7.804
 1095SOL    HW2 5118   5.460   2.229   7.949
 1096SOL     OW 5119  10.653   0.476  11.204
 1096SOL    HW1 5120  10.666   0.405  11.141
 1096SOL    HW2 5121  10.733   0.528  11.198
 1097SOL     OW 5122  13.428  14.147   5.891
 1097SOL    HW1 5123  13.333  14.148   5.893
 1097SOL    HW2 5124  13.453  14.238   5.909
 1098SOL     OW 5125   4.468   4.224  11.622
 1098SOL    HW1 5126   4.426   4.240  11.706
 1098SOL    HW2 5127   4.409   4.163  11.577
 1099SOL     OW 5128   0.317   1.848  11.818
 1099SOL    HW1 5129   0.310   1.809  11.732
 1099SOL    HW2 5130   0.238   1.820  11.865
 1100SOL     OW 5131   9.686   2.085   0.453
 1100SOL    HW1 5132   9.671   2.077   0.359
 1100SOL    HW2 5133   9.722   2.172   0.465
 1101SOL     OW 5134   4.423   6.969   3.867
 1101SOL    HW1 5135   4.365   6.893   3.867
 1101SOL    HW2 5136   4.419   7.002   3.778
 1102SOL     OW 5137   1.442   1.992  10.571
 1102SOL    HW1 5138   1.362   1.942  10.588
 1102SOL    HW2 5139   1.513   1.929  10.585
 1103SOL     OW 5140   6.990   4.074   9.158
 1103SOL    HW1 5141   7.058   4.118   9.107
 1103SOL    HW2 5142   7.029   3.989   9.181
 1104SOL     OW 5143   0.026   9.986   0.178
 1104SOL    HW1 5144  14.803   9.983   0.168
 1104SOL    HW2 5145   0.044  10.075   0.210
 1105SOL     OW 5146   8.259   1.748   6.664
 1105SOL    HW1 5147   8.165   1.751   6.681
 1105SOL    HW2 5148   8.266   1.729   6.570
 1106SOL     OW 5149  14.221   4.898   2.863
 1106SOL    HW1 5150  14.250   4.989   2.859
 1106SOL    HW2 5151  14.289   4.849   2.818
 1107SOL     OW 5152   6.725  11.592  11.751
 1107SOL    HW1 5153   6.643  11.546  11.766
 1107SOL    HW2 5154   6.699  11.669  11.699
 1108SOL     OW 5155  13.041   6.685   3.081
 1108SOL    HW1 5156  12.982   6.644   3.018
 1108SOL    HW2 5157  12.984   6.714   3.152
 1109SOL     OW 5158  13.122   5.373  12.695
 1109SOL    HW1 5159  13.027   5.379  12.688
 1109SOL    HW2 5160  13.142   5.415  12.779
 1110SOL     OW 5161   5.543   3.300   7.159
 1110SOL    HW1 5162   5.468   3.299   7.099
 1110SOL    HW2 5163   5.614   3.341   7.108
 1111SOL     OW 5164  12.587   7.444   4.384
 1111SOL    HW1 5165  12.570   7.537   4.371
 1111SOL    HW2 5166  12.502   7.402   4.374
 1112SOL     OW 5167  14.234   3.878  10.814
 1112SOL    HW1 5168  14.279   3.912  10.891
 1112SOL    HW2 5169  14.143   3.907  10.825
 1113SOL     OW 5170  10.886   3.304   3.609
 1113SOL    HW1 5171  10.873   3.236   3.543
 1113SOL    HW2 5172  10.976   3.289   3.640
 1114SOL     OW 5173   0.493   5.603   4.186
 1114SOL    HW1 5174   0.564   5.581   4.247
 1114SOL    HW2 5175   0.443   5.522   4.178
 1115SOL     OW 5176   3.002   7.046   1.297
 1115SOL    HW1 5177   2.959   7.039   1.382
 1115SOL    HW2 5178   3.087   7.086   1.317
 1116SOL     OW 5179   3.084  12.467  12.850
 1116SOL    HW1 5180   3.166  12.445  12.806
 1116SOL    HW2 5181   3.099  12.444  12.942
 1117SOL     OW 5182   2.840   4.580   8.725
 1117SOL    HW1 5183   2.879   4.600   8.640
 1117SOL    HW2 5184   2.881   4.497   8.751
 1118SOL     OW 5185   9.337   1.158   9.807
 1118SOL    HW1 5186   9.344   1.065   9.785
 1118SOL    HW2 5187   9.287   1.160   9.889
 1119SOL     OW 5188   0.547   3.402   6.956
 1119SOL    HW1 5189   0.465   3.361   6.929
 1119SOL    HW2 5190   0.543   3.406   7.051
 1120SOL     OW 5191   5.798   0.680  11.423
 1120SOL    HW1 5192   5.886   0.690  11.387
 1120SOL    HW2 5193   5.770   0.769  11.443
 1121SOL     OW 5194   1.397  13.286  13.468
 1121SOL    HW1 5195   1.474  13.337  13.490
 1121SOL    HW2 5196   1.331  13.311  13.533
 1122SOL     OW 5197   6.646   0.257   7.340
 1122SOL    HW1 5198   6.571   0.252   7.400
 1122SOL    HW2 5199   6.668   0.350   7.337
 1123SOL     OW 5200  10.348   4.595   0.130
 1123SOL    HW1 5201  10.417   4.566   0.071
 1123SOL    HW2 5202  10.365   4.547   0.212
 1124SOL     OW 5203   9.509  13.488   8.888
 1124SOL    HW1 5204   9.482  13.487   8.980
 1124SOL    HW2 5205   9.434  13.452   8.841
 1125SOL     OW 5206   1.147   0.937   9.644
 1125SOL    HW1 5207   1.092   0.972   9.574
 1125SOL    HW2 5208   1.226   0.992   9.642
 1126SOL     OW 5209   1.087   3.359  10.702
 1126SOL    HW1 5210   1.039   3.384  10.623
 1126SOL    HW2 5211   1.019   3.339  10.766
 1127SOL     OW 5212   6.823   2.069   3.017
 1127SOL    HW1 5213   6.871   2.009   2.960
 1127SOL    HW2 5214   6.789   2.013   3.087
 1128SOL     OW 5215   1.990   7.624  13.189
 1128SOL    HW1 5216   2.073   7.578  13.200
 1128SOL    HW2 5217   2.011   7.699  13.134
 1129SOL     OW 5218   5.038   3.739   6.194
 1129SOL    HW1 5219   5.042   3.737   6.099
 1129SOL    HW2 5220   4.967   3.800   6.215
 1130SOL     OW 5221  13.008   3.896   8.593
 1130SOL    HW1 5222  13.043   3.909   8.682
 1130SOL    HW2 5223  12.946   3.968   8.582
 1131SOL     OW 5224   8.849   8.031  12.303
 1131SOL    HW1 5225   8.927   7.975  12.300
 1131SOL    HW2 5226   8.802   8.003  12.381
 1132SOL     OW 5227  13.274  10.469  13.854
 1132SOL    HW1 5228  13.275  10.393  13.913
 1132SOL    HW2 5229  13.349  10.455  13.796
 1133SOL     OW 5230   6.082   2.541  11.392
 1133SOL    HW1 5231   6.146   2.486  11.438
 1133SOL    HW2 5232   6.010   2.551  11.455
 1134SOL     OW 5233   5.086   4.702   6.465
 1134SOL    HW1 5234   5.102   4.693   6.371
 1134SOL    HW2 5235   5.166   4.741   6.500
 1135SOL     OW 5236   8.060   8.160   4.100
 1135SOL    HW1 5237   8.010   8.230   4.058
 1135SOL    HW2 5238   7.994   8.106   4.143
 1136SOL     OW 5239   6.272   2.055   8.022
 1136SOL    HW1 5240   6.200   2.043   8.083
 1136SOL    HW2 5241   6.330   2.119   8.065
 1137SOL     OW 5242   4.734   9.901   2.522
 1137SOL    HW1 5243   4.798   9.833   2.546
 1137SOL    HW2 5244   4.727   9.955   2.601
 1138SOL     OW 5245   0.649   2.993   1.256
 1138SOL    HW1 5246   0.727   3.032   1.294
 1138SOL    HW2 5247   0.666   2.992   1.162
 1139SOL     OW 5248   6.492   7.427   2.665
 1139SOL    HW1 5249   6.469   7.354   2.722
 1139SOL    HW2 5250   6.414   7.483   2.665
 1140SOL     OW 5251   8.789   1.107   1.290
 1140SOL    HW1 5252   8.700   1.083   1.317
 1140SOL    HW2 5253   8.807   1.188   1.337
 1141SOL     OW 5254   4.834  10.118  12.541
 1141SOL    HW1 5255   4.876  10.107  12.456
 1141SOL    HW2 5256   4.837  10.030  12.580
 1142SOL     OW 5257   9.304   2.653  12.804
 1142SOL    HW1 5258   9.245   2.579  12.790
 1142SOL    HW2 5259   9.284   2.714  12.733
 1143SOL     OW 5260   4.978  10.418  10.646
 1143SOL    HW1 5261   4.886  10.431  10.623
 1143SOL    HW2 5262   5.020  10.390  10.565
 1144SOL     OW 5263  11.903  10.089   9.657
 1144SOL    HW1 5264  11.812  10.062   9.644
 1144SOL    HW2 5265  11.952  10.007   9.665
 1145SOL     OW 5266  14.422   5.596  10.038
 1145SOL    HW1 5267  14.335   5.613  10.075
 1145SOL    HW2 5268  14.411   5.611   9.944
 1146SOL     OW 5269   8.151   3.755  11.570
 1146SOL    HW1 5270   8.194   3.670  11.580
 1146SOL    HW2 5271   8.203   3.800  11.503
 1147SOL     OW 5272  10.595   3.083   2.423
 1147SOL    HW1 5273  10.507   3.087   2.384
 1147SOL    HW2 5274  10.639   3.012   2.375
 1148SOL     OW 5275   0.908   0.377   7.392
 1148SOL    HW1 5276   0.904   0.285   7.366
 1148SOL    HW2 5277   0.816   0.404   7.397
 1149SOL     OW 5278   3.869  14.775  10.511
 1149SOL    HW1 5279   3.825  14.715  10.571
 1149SOL    HW2 5280   3.798  14.814  10.460
 1150SOL     OW 5281   9.876   3.528   2.703
 1150SOL    HW1 5282   9.918   3.459   2.755
 1150SOL    HW2 5283   9.837   3.481   2.629
 1151SOL     OW 5284   9.655  10.482   3.962
 1151SOL    HW1 5285   9.562  10.462   3.964
 1151SOL    HW2 5286   9.660  10.577   3.963
 1152SOL     OW 5287  11.957   2.231  11.055
 1152SOL    HW1 5288  11.953   2.326  11.066
 1152SOL    HW2 5289  11.966   2.219  10.960
 1153SOL     OW 5290  12.438   6.097   3.130
 1153SOL    HW1 5291  12.485   6.015   3.114
 1153SOL    HW2 5292  12.479   6.134   3.208
 1154SOL     OW 5293   5.618   2.263   8.455
 1154SOL    HW1 5294   5.541   2.289   8.506
 1154SOL    HW2 5295   5.674   2.218   8.518
 1155SOL     OW 5296   7.615   9.889   4.820
 1155SOL    HW1 5297   7.623   9.798   4.848
 1155SOL    HW2 5298   7.690   9.933   4.860
 1156SOL     OW 5299   3.486   7.902  10.213
 1156SOL    HW1 5300   3.496   7.810  10.189
 1156SOL    HW2 5301   3.430   7.938  10.145
 1157SOL     OW 5302   3.713  12.495   7.740
 1157SOL    HW1 5303   3.803  12.524   7.753
 1157SOL    HW2 5304   3.664  12.575   7.721
 1158SOL     OW 5305   1.597  10.905   0.164
 1158SOL    HW1 5306   1.666  10.944   0.217
 1158SOL    HW2 5307   1.554  10.979   0.122
 1159SOL     OW 5308   5.008   0.909   6.047
 1159SOL    HW1 5309   4.963   0.848   6.106
 1159SOL    HW2 5310   4.945   0.927   5.978
 1160SOL     OW 5311  10.314   4.040   7.717
 1160SOL    HW1 5312  10.319   3.975   7.787
 1160SOL    HW2 5313  10.259   4.109   7.752
 1161SOL     OW 5314   1.589   2.747   4.343
 1161SOL    HW1 5315   1.519   2.682   4.350
 1161SOL    HW2 5316   1.620   2.759   4.433
 1162SOL     OW 5317   5.997   7.557   5.746
 1162SOL    HW1 5318   5.907   7.527   5.733
 1162SOL    HW2 5319   5.993   7.651   5.729
 1163SOL     OW 5320  12.128  14.683   2.733
 1163SOL    HW1 5321  12.152  14.774   2.751
 1163SOL    HW2 5322  12.211  14.635   2.736
 1164SOL     OW 5323   5.714   5.171   7.531
 1164SOL    HW1 5324   5.733   5.162   7.625
 1164SOL    HW2 5325   5.619   5.181   7.527
 1165SOL     OW 5326   6.608   8.568  11.896
 1165SOL    HW1 5327   6.523   8.577  11.940
 1165SOL    HW2 5328   6.661   8.517  11.958
 1166SOL     OW 5329   7.380  10.005   5.682
 1166SOL    HW1 5330   7.395  10.010   5.587
 1166SOL    HW2 5331   7.467   9.994   5.719
 1167SOL     OW 5332  11.774  13.513   5.773
 1167SOL    HW1 5333  11.718  13.444   5.736
 1167SOL    HW2 5334  11.827  13.469   5.839
 1168SOL     OW 5335   6.149   9.036   3.283
 1168SOL    HW1 5336   6.237   9.006   3.258
 1168SOL    HW2 5337   6.151   9.035   3.379
 1169SOL     OW 5338   4.659   9.501   2.512
 1169SOL    HW1 5339   4.709   9.545   2.580
 1169SOL    HW2 5340   4.720   9.439   2.473
 1170SOL     OW 5341   1.270  14.834   1.563
 1170SOL    HW1 5342   1.275   0.022   1.489
 1170SOL    HW2 5343   1.263  14.747   1.524
 1171SOL     OW 5344   8.171   5.447   5.904
 1171SOL    HW1 5345   8.175   5.542   5.894
 1171SOL    HW2 5346   8.145   5.415   5.818
 1172SOL     OW 5347   5.202  11.909   2.146
 1172SOL    HW1 5348   5.117  11.866   2.152
 1172SOL    HW2 5349   5.198  11.978   2.213
 1173SOL     OW 5350  12.417   0.775  11.502
 1173SOL    HW1 5351  12.388   0.769  11.411
 1173SOL    HW2 5352  12.486   0.709  11.510
 1174SOL     OW 5353   3.344   0.109  12.200
 1174SOL    HW1 5354   3.370   0.201  12.209
 1174SOL    HW2 5355   3.419   0.068  12.157
 1175SOL     OW 5356   3.416  14.267   2.625
 1175SOL    HW1 5357   3.437  14.200   2.691
 1175SOL    HW2 5358   3.337  14.234   2.582
 1176SOL     OW 5359   5.413  12.851   3.912
 1176SOL    HW1 5360   5.431  12.883   3.824
 1176SOL    HW2 5361   5.328  12.887   3.934
 1177SOL     OW 5362  12.348   8.518   9.961
 1177SOL    HW1 5363  12.305   8.553   9.883
 1177SOL    HW2 5364  12.321   8.576  10.031
 1178SOL     OW 5365   1.922  13.974   6.052
 1178SOL    HW1 5366   1.919  13.976   6.148
 1178SOL    HW2 5367   2.014  13.967   6.030
 1179SOL     OW 5368  12.089   8.581   6.249
 1179SOL    HW1 5369  12.013   8.569   6.192
 1179SOL    HW2 5370  12.147   8.507   6.227
 1180SOL     OW 5371   9.992   9.062   2.154
 1180SOL    HW1 5372   9.980   9.115   2.233
 1180SOL    HW2 5373   9.975   9.123   2.082
 1181SOL     OW 5374   1.318   0.927  10.741
 1181SOL    HW1 5375   1.297   1.002  10.797
 1181SOL    HW2 5376   1.245   0.923  10.679
 1182SOL     OW 5377  11.215   6.223   0.750
 1182SOL    HW1 5378  11.138   6.170   0.728
 1182SOL    HW2 5379  11.231   6.276   0.672
 1183SOL     OW 5380   9.467   3.448   5.555
 1183SOL    HW1 5381   9.410   3.512   5.597
 1183SOL    HW2 5382   9.495   3.390   5.626
 1184SOL     OW 5383  14.523   5.939   7.271
 1184SOL    HW1 5384  14.561   5.940   7.183
 1184SOL    HW2 5385  14.552   6.022   7.310
 1185SOL     OW 5386   6.871  12.070   9.568
 1185SOL    HW1 5387   6.959  12.056   9.604
 1185SOL    HW2 5388   6.875  12.034   9.479
 1186SOL     OW 5389  13.987   1.794   5.016
 1186SOL    HW1 5390  14.041   1.752   5.083
 1186SOL    HW2 5391  14.024   1.883   5.009
 1187SOL     OW 5392   1.219   4.676   1.878
 1187SOL    HW1 5393   1.155   4.619   1.836
 1187SOL    HW2 5394   1.250   4.734   1.808
 1188SOL     OW 5395   1.429   2.901   8.026
 1188SOL    HW1 5396   1.497   2.833   8.028
 1188SOL    HW2 5397   1.476   2.982   8.008
 1189SOL     OW 5398   5.546  11.326   0.452
 1189SOL    HW1 5399   5.463  11.356   0.413
 1189SOL    HW2 5400   5.526  11.238   0.485
 1190SOL     OW 5401   1.856  14.534   8.577
 1190SOL    HW1 5402   1.938  14.485   8.569
 1190SOL    HW2 5403   1.868  14.588   8.656
 1191SOL     OW 5404   2.472   1.353  13.392
 1191SOL    HW1 5405   2.457   1.441  13.426
 1191SOL    HW2 5406   2.420   1.296  13.449
 1192SOL     OW 5407  13.659   9.476   8.143
 1192SOL    HW1 5408  13.697   9.498   8.058
 1192SOL    HW2 5409  13.736   9.463   8.200
 1193SOL     OW 5410  12.433  10.751   8.615
 1193SOL    HW1 5411  12.491  10.675   8.613
 1193SOL    HW2 5412  12.346  10.714   8.629
 1194SOL     OW 5413   7.774   3.152   3.963
 1194SOL    HW1 5414   7.696   3.207   3.953
 1194SOL    HW2 5415   7.783   3.140   4.058
 1195SOL     OW 5416  14.838   1.008  11.049
 1195SOL    HW1 5417  14.857   1.033  11.140
 1195SOL    HW2 5418   0.050   1.014  11.005
 1196SOL     OW 5419   0.893   9.342   3.168
 1196SOL    HW1 5420   0.889   9.434   3.142
 1196SOL    HW2 5421   0.918   9.295   3.088
 1197SOL     OW 5422   0.942  10.575   9.694
 1197SOL    HW1 5423   0.864  10.609   9.737
 1197SOL    HW2 5424   0.995  10.540   9.765
 1198SOL     OW 5425   7.004  11.654   1.836
 1198SOL    HW1 5426   6.943  11.696   1.897
 1198SOL    HW2 5427   7.089  11.658   1.881
 1199SOL     OW 5428  12.105   7.346  13.515
 1199SOL    HW1 5429  12.103   7.250  13.513
 1199SOL    HW2 5430  12.073   7.372  13.429
 1200SOL     OW 5431   9.736  12.872  10.763
 1200SOL    HW1 5432   9.707  12.939  10.825
 1200SOL    HW2 5433   9.796  12.817  10.814
 1201SOL     OW 5434   5.483   3.364  14.388
 1201SOL    HW1 5435   5.417   3.370  14.318
 1201SOL    HW2 5436   5.559   3.411  14.354
 1202SOL     OW 5437  10.021   9.104  10.677
 1202SOL    HW1 5438  10.099   9.048  10.675
 1202SOL    HW2 5439   9.972   9.079  10.598
 1203SOL     OW 5440  14.153   8.305   9.934
 1203SOL    HW1 5441  14.240   8.341   9.914
 1203SOL    HW2 5442  14.145   8.315  10.029
 1204SOL     OW 5443   5.728   7.000   5.839
 1204SOL    HW1 5444   5.728   7.010   5.934
 1204SOL    HW2 5445   5.811   7.038   5.810
 1205SOL     OW 5446  11.373   6.781  13.037
 1205SOL    HW1 5447  11.369   6.851  13.102
 1205SOL    HW2 5448  11.289   6.735  13.046
 1206SOL     OW 5449   1.317  10.378   2.355
 1206SOL    HW1 5450   1.270  10.336   2.427
 1206SOL    HW2 5451   1.316  10.314   2.285
 1207SOL     OW 5452   5.809   9.692  10.775
 1207SOL    HW1 5453   5.715   9.701  10.759
 1207SOL    HW2 5454   5.849   9.759  10.719
 1208SOL     OW 5455   2.866   3.139  14.316
 1208SOL    HW1 5456   2.904   3.061  14.356
 1208SOL    HW2 5457   2.921   3.211  14.347
 1209SOL     OW 5458  10.570   3.006   5.118
 1209SOL    HW1 5459  10.527   2.927   5.087
 1209SOL    HW2 5460  10.567   3.000   5.213
 1210SOL     OW 5461   8.775   4.922   7.588
 1210SOL    HW1 5462   8.827   4.991   7.629
 1210SOL    HW2 5463   8.696   4.967   7.556
 1211SOL     OW 5464   1.162   0.397   5.683
 1211SOL    HW1 5465   1.102   0.330   5.716
 1211SOL    HW2 5466   1.106   0.457   5.633
 1212SOL     OW 5467   9.439  12.369   0.934
 1212SOL    HW1 5468   9.455  12.429   1.007
 1212SOL    HW2 5469   9.430  12.283   0.974
 1213SOL     OW 5470   9.698   7.991   2.860
 1213SOL    HW1 5471   9.657   8.033   2.935
 1213SOL    HW2 5472   9.777   7.951   2.894
 1214SOL     OW 5473   4.161   0.142   9.639
 1214SOL    HW1 5474   4.151   0.047   9.643
 1214SOL    HW2 5475   4.246   0.159   9.680
 1215SOL     OW 5476   6.879  13.626  13.937
 1215SOL    HW1 5477   6.838  13.632  14.024
 1215SOL    HW2 5478   6.960  13.675  13.945
 1216SOL     OW 5479   3.332   8.641  13.568
 1216SOL    HW1 5480   3.238   8.621  13.563
 1216SOL    HW2 5481   3.346   8.666  13.660
 1217SOL     OW 5482   8.050  13.274   7.023
 1217SOL    HW1 5483   8.134  13.308   6.992
 1217SOL    HW2 5484   8.013  13.230   6.947
 1218SOL     OW 5485   8.941  11.845  10.221
 1218SOL    HW1 5486   8.914  11.937  10.221
 1218SOL    HW2 5487   8.944  11.821  10.128
 1219SOL     OW 5488   6.828  11.184   2.984
 1219SOL    HW1 5489   6.896  11.246   2.956
 1219SOL    HW2 5490   6.857  11.099   2.952
 1220SOL     OW 5491   4.985   1.198   2.258
 1220SOL    HW1 5492   5.041   1.266   2.295
 1220SOL    HW2 5493   5.010   1.193   2.166
 1221SOL     OW 5494  13.641   4.430  13.963
 1221SOL    HW1 5495  13.608   4.467  13.881
 1221SOL    HW2 5496  13.611   4.339  13.963
 1222SOL     OW 5497   2.853   8.663   5.701
 1222SOL    HW1 5498   2.760   8.654   5.679
 1222SOL    HW2 5499   2.891   8.578   5.679
 1223SOL     OW 5500  13.936  12.494  14.805
 1223SOL    HW1 5501  13.864  12.432  14.796
 1223SOL    HW2 5502  14.004  12.461  14.746
 1224SOL     OW 5503  11.447  11.900  12.392
 1224SOL    HW1 5504  11.430  11.828  12.331
 1224SOL    HW2 5505  11.416  11.867  12.477
 1225SOL     OW 5506   7.939   7.225  11.647
 1225SOL    HW1 5507   7.918   7.284  11.720
 1225SOL    HW2 5508   7.947   7.283  11.572
 1226SOL     OW 5509   7.910  11.359   6.335
 1226SOL    HW1 5510   7.889  11.451   6.354
 1226SOL    HW2 5511   7.998  11.348   6.371
 1227SOL     OW 5512  14.786  13.321   2.542
 1227SOL    HW1 5513  14.747  13.379   2.477
 1227SOL    HW2 5514  14.857  13.276   2.494
 1228SOL     OW 5515  14.553   1.815  13.360
 1228SOL    HW1 5516  14.634   1.796  13.407
 1228SOL    HW2 5517  14.571   1.897  13.313
 1229SOL     OW 5518   1.313   1.359   6.302
 1229SOL    HW1 5519   1.265   1.381   6.382
 1229SOL    HW2 5520   1.396   1.322   6.332
 1230SOL     OW 5521  14.141   5.461  10.790
 1230SOL    HW1 5522  14.079   5.493  10.724
 1230SOL    HW2 5523  14.089   5.452  10.869
 1231SOL     OW 5524   3.869   3.671   0.033
 1231SOL    HW1 5525   3.917   3.711  14.832
 1231SOL    HW2 5526   3.921   3.694   0.110
 1232SOL     OW 5527   2.963   4.021   3.718
 1232SOL    HW1 5528   2.936   3.961   3.788
 1232SOL    HW2 5529   2.903   4.095   3.726
 1233SOL     OW 5530   3.113  11.688  14.415
 1233SOL    HW1 5531   3.049  11.620  14.433
 1233SOL    HW2 5532   3.089  11.724  14.330
 1234SOL     OW 5533  12.737   5.790   4.051
 1234SOL    HW1 5534  12.717   5.804   3.959
 1234SOL    HW2 5535  12.832   5.793   4.056
 1235SOL     OW 5536   9.763   5.873   4.209
 1235SOL    HW1 5537   9.816   5.936   4.161
 1235SOL    HW2 5538   9.764   5.794   4.155
 1236SOL     OW 5539   1.307   2.090  13.883
 1236SOL    HW1 5540   1.318   2.184  13.895
 1236SOL    HW2 5541   1.268   2.060  13.966
 1237SOL     OW 5542   2.360   1.379  12.892
 1237SOL    HW1 5543   2.349   1.321  12.968
 1237SOL    HW2 5544   2.274   1.419  12.880
 1238SOL     OW 5545   2.491   6.226   4.844
 1238SOL    HW1 5546   2.499   6.198   4.935
 1238SOL    HW2 5547   2.494   6.144   4.794
 1239SOL     OW 5548  10.028   7.046  11.978
 1239SOL    HW1 5549  10.070   6.960  11.971
 1239SOL    HW2 5550   9.979   7.056  11.896
 1240SOL     OW 5551   3.622   5.707   5.968
 1240SOL    HW1 5552   3.583   5.787   6.005
 1240SOL    HW2 5553   3.552   5.671   5.913
 1241SOL     OW 5554   3.068   2.193  14.067
 1241SOL    HW1 5555   3.087   2.129  14.137
 1241SOL    HW2 5556   3.148   2.195  14.015
 1242SOL     OW 5557   6.975  13.669  11.860
 1242SOL    HW1 5558   6.952  13.633  11.775
 1242SOL    HW2 5559   7.062  13.707  11.847
 1243SOL     OW 5560   9.787   1.157  10.715
 1243SOL    HW1 5561   9.811   1.119  10.630
 1243SOL    HW2 5562   9.769   1.081  10.770
 1244SOL     OW 5563   5.552   2.515   6.071
 1244SOL    HW1 5564   5.549   2.547   5.981
 1244SOL    HW2 5565   5.643   2.528   6.098
 1245SOL     OW 5566   0.295   4.267   4.900
 1245SOL    HW1 5567   0.263   4.264   4.990
 1245SOL    HW2 5568   0.248   4.197   4.856
 1246SOL     OW 5569  13.823   6.567   6.308
 1246SOL    HW1 5570  13.872   6.562   6.390
 1246SOL    HW2 5571  13.833   6.658   6.280
 1247SOL     OW 5572   8.491  13.223  11.188
 1247SOL    HW1 5573   8.577  13.240  11.147
 1247SOL    HW2 5574   8.441  13.303  11.171
 1248SOL     OW 5575   7.244   2.592   3.486
 1248SOL    HW1 5576   7.151   2.605   3.465
 1248SOL    HW2 5577   7.290   2.614   3.406
 1249SOL     OW 5578   1.875   2.102   5.327
 1249SOL    HW1 5579   1.928   2.051   5.266
 1249SOL    HW2 5580   1.890   2.061   5.413
 1250SOL     OW 5581  11.046   7.449  11.387
 1250SOL    HW1 5582  11.048   7.361  11.424
 1250SOL    HW2 5583  10.996   7.441  11.306
 1251SOL     OW 5584   7.752  10.197  12.395
 1251SOL    HW1 5585   7.751  10.186  12.490
 1251SOL    HW2 5586   7.771  10.290  12.382
 1252SOL     OW 5587  10.181  13.755  13.182
 1252SOL    HW1 5588  10.238  13.824  13.218
 1252SOL    HW2 5589  10.140  13.717  13.259
 1253SOL     OW 5590  10.601   1.474  10.544
 1253SOL    HW1 5591  10.567   1.385  10.530
 1253SOL    HW2 5592  10.584   1.492  10.636
 1254SOL     OW 5593   3.011  11.535   3.444
 1254SOL    HW1 5594   2.939  11.599   3.448
 1254SOL    HW2 5595   2.974  11.454   3.478
 1255SOL     OW 5596   5.763  10.959  12.936
 1255SOL    HW1 5597   5.815  10.893  12.983
 1255SOL    HW2 5598   5.827  11.024  12.907
 1256SOL     OW 5599   3.653  10.597   9.455
 1256SOL    HW1 5600   3.731  10.567   9.501
 1256SOL    HW2 5601   3.688  10.646   9.380
 1257SOL     OW 5602  10.836   3.531  12.174
 1257SOL    HW1 5603  10.861   3.462  12.113
 1257SOL    HW2 5604  10.904   3.599  12.162
 1258SOL     OW 5605   3.315  11.539   9.435
 1258SOL    HW1 5606   3.256  11.500   9.500
 1258SOL    HW2 5607   3.402  11.515   9.465
 1259SOL     OW 5608  11.462   7.645  14.351
 1259SOL    HW1 5609  11.395   7.614  14.413
 1259SOL    HW2 5610  11.503   7.564  14.320
 1260SOL     OW 5611   4.751   9.131  11.817
 1260SOL    HW1 5612   4.814   9.108  11.749
 1260SOL    HW2 5613   4.677   9.072  11.802
 1261SOL     OW 5614  14.058   9.656  11.880
 1261SOL    HW1 5615  14.068   9.606  11.799
 1261SOL    HW2 5616  14.087   9.744  11.857
 1262SOL     OW 5617  13.774   1.075   2.831
 1262SOL    HW1 5618  13.847   1.136   2.825
 1262SOL    HW2 5619  13.759   1.047   2.740
 1263SOL     OW 5620  13.602   0.123  13.564
 1263SOL    HW1 5621  13.593   0.214  13.591
 1263SOL    HW2 5622  13.513   0.094  13.543
 1264SOL     OW 5623   6.742   3.449  12.022
 1264SOL    HW1 5624   6.684   3.381  11.987
 1264SOL    HW2 5625   6.730   3.443  12.117
 1265SOL     OW 5626  13.780   9.058   0.744
 1265SOL    HW1 5627  13.811   9.008   0.820
 1265SOL    HW2 5628  13.757   8.991   0.680
 1266SOL     OW 5629  13.199   9.338   4.278
 1266SOL    HW1 5630  13.181   9.329   4.372
 1266SOL    HW2 5631  13.163   9.258   4.240
 1267SOL     OW 5632   6.310   1.909   7.080
 1267SOL    HW1 5633   6.251   1.841   7.113
 1267SOL    HW2 5634   6.374   1.862   7.026
 1268SOL     OW 5635   1.951   1.816  11.148
 1268SOL    HW1 5636   1.866   1.850  11.177
 1268SOL    HW2 5637   2.013   1.849  11.213
 1269SOL     OW 5638   1.104  12.284   8.813
 1269SOL    HW1 5639   1.179  12.314   8.865
 1269SOL    HW2 5640   1.036  12.349   8.830
 1270SOL     OW 5641   7.015   8.637   2.071
 1270SOL    HW1 5642   7.040   8.678   2.154
 1270SOL    HW2 5643   6.983   8.709   2.017
 1271SOL     OW 5644  13.329  11.703   8.107
 1271SOL    HW1 5645  13.250  11.753   8.126
 1271SOL    HW2 5646  13.336  11.706   8.011
 1272SOL     OW 5647  10.711  13.166  14.294
 1272SOL    HW1 5648  10.663  13.108  14.353
 1272SOL    HW2 5649  10.718  13.117  14.212
 1273SOL     OW 5650   9.616   3.583   2.079
 1273SOL    HW1 5651   9.664   3.502   2.065
 1273SOL    HW2 5652   9.524   3.559   2.069
 1274SOL     OW 5653   9.691  10.557   5.365
 1274SOL    HW1 5654   9.622  10.616   5.395
 1274SOL    HW2 5655   9.759  10.562   5.432
 1275SOL     OW 5656  13.857   9.462   9.796
 1275SOL    HW1 5657  13.898   9.407   9.863
 1275SOL    HW2 5658  13.789   9.510   9.843
 1276SOL     OW 5659   5.954  10.715   8.229
 1276SOL    HW1 5660   5.908  10.632   8.244
 1276SOL    HW2 5661   6.040  10.702   8.270
 1277SOL     OW 5662   0.216   9.448   7.867
 1277SOL    HW1 5663   0.258   9.372   7.906
 1277SOL    HW2 5664   0.211   9.512   7.938
 1278SOL     OW 5665  13.946   3.996  14.318
 1278SOL    HW1 5666  13.850   3.999  14.320
 1278SOL    HW2 5667  13.968   3.979  14.227
 1279SOL     OW 5668   1.015   7.543   6.264
 1279SOL    HW1 5669   0.938   7.588   6.228
 1279SOL    HW2 5670   1.031   7.471   6.204
 1280SOL     OW 5671  12.080   0.017   8.373
 1280SOL    HW1 5672  12.009   0.028   8.435
 1280SOL    HW2 5673  12.041  14.844   8.298
 1281SOL     OW 5674   0.605   8.593   1.307
 1281SOL    HW1 5675   0.624   8.523   1.369
 1281SOL    HW2 5676   0.671   8.660   1.325
 1282SOL     OW 5677  14.052   6.521   1.703
 1282SOL    HW1 5678  14.083   6.600   1.658
 1282SOL    HW2 5679  13.985   6.553   1.763
 1283SOL     OW 5680  13.771   6.739   0.039
 1283SOL    HW1 5681  13.800   6.783  14.832
 1283SOL    HW2 5682  13.725   6.661   0.007
 1284SOL     OW 5683  13.439   4.284   2.034
 1284SOL    HW1 5684  13.417   4.335   2.112
 1284SOL    HW2 5685  13.455   4.349   1.966
 1285SOL     OW 5686  14.053   8.503   8.618
 1285SOL    HW1 5687  14.124   8.473   8.674
 1285SOL    HW2 5688  14.011   8.423   8.587
 1286SOL     OW 5689  14.269   4.858   7.318
 1286SOL    HW1 5690  14.331   4.796   7.358
 1286SOL    HW2 5691  14.275   4.839   7.224
 1287SOL     OW 5692  11.112   7.389   1.513
 1287SOL    HW1 5693  11.118   7.297   1.542
 1287SOL    HW2 5694  11.144   7.388   1.423
 1288SOL     OW 5695   4.224   2.246   0.596
 1288SOL    HW1 5696   4.311   2.223   0.627
 1288SOL    HW2 5697   4.212   2.337   0.621
 1289SOL     OW 5698  10.492   6.129   4.169
 1289SOL    HW1 5699  10.459   6.098   4.253
 1289SOL    HW2 5700  10.574   6.082   4.156
 1290SOL     OW 5701  14.643   4.679   7.693
 1290SOL    HW1 5702  14.683   4.746   7.748
 1290SOL    HW2 5703  14.680   4.694   7.606
 1291SOL     OW 5704   7.629   0.539   2.755
 1291SOL    HW1 5705   7.709   0.537   2.703
 1291SOL    HW2 5706   7.561   0.505   2.696
 1292SOL     OW 5707  14.580   6.596   2.359
 1292SOL    HW1 5708  14.498   6.639   2.383
 1292SOL    HW2 5709  14.581   6.516   2.412
 1293SOL     OW 5710   9.088   5.452   8.803
 1293SOL    HW1 5711   9.008   5.442   8.751
 1293SOL    HW2 5712   9.066   5.518   8.869
 1294SOL     OW 5713   7.288   3.313   0.871
 1294SOL    HW1 5714   7.338   3.388   0.838
 1294SOL    HW2 5715   7.221   3.352   0.927
 1295SOL     OW 5716   1.714  14.826   5.117
 1295SOL    HW1 5717   1.730   0.046   5.139
 1295SOL    HW2 5718   1.633  14.805   5.162
 1296SOL     OW 5719   3.390   3.140  13.089
 1296SOL    HW1 5720   3.349   3.197  13.154
 1296SOL    HW2 5721   3.387   3.190  13.008
 1297SOL     OW 5722  10.634  11.386   0.283
 1297SOL    HW1 5723  10.651  11.458   0.222
 1297SOL    HW2 5724  10.595  11.317   0.229
 1298SOL     OW 5725   7.531   6.093   5.940
 1298SOL    HW1 5726   7.526   6.133   5.853
 1298SOL    HW2 5727   7.592   6.149   5.988
 1299SOL     OW 5728   0.784   0.767  13.911
 1299SOL    HW1 5729   0.807   0.841  13.967
 1299SOL    HW2 5730   0.688   0.771  13.905
 1300SOL     OW 5731  14.181   0.265  10.918
 1300SOL    HW1 5732  14.206   0.292  10.830
 1300SOL    HW2 5733  14.087   0.250  10.912
 1301SOL     OW 5734   7.089   2.365  11.802
 1301SOL    HW1 5735   7.077   2.396  11.892
 1301SOL    HW2 5736   7.116   2.444  11.754
 1302SOL     OW 5737   1.888  14.772  12.838
 1302SOL    HW1 5738   1.888  14.740  12.928
 1302SOL    HW2 5739   1.811  14.731  12.798
 1303SOL     OW 5740   1.877  12.699   5.811
 1303SOL    HW1 5741   1.845  12.786   5.836
 1303SOL    HW2 5742   1.932  12.671   5.885
 1304SOL     OW 5743   4.500  10.041  13.013
 1304SOL    HW1 5744   4.591  10.070  13.020
 1304SOL    HW2 5745   4.449  10.121  13.020
 1305SOL     OW 5746   5.893   6.740   9.887
 1305SOL    HW1 5747   5.891   6.715   9.979
 1305SOL    HW2 5748   5.898   6.657   9.839
 1306SOL     OW 5749   4.527   0.307   3.437
 1306SOL    HW1 5750   4.467   0.371   3.399
 1306SOL    HW2 5751   4.601   0.359   3.468
 1307SOL     OW 5752  14.145   7.343   9.068
 1307SOL    HW1 5753  14.226   7.363   9.022
 1307SOL    HW2 5754  14.141   7.248   9.071
 1308SOL     OW 5755   4.222  13.685   5.754
 1308SOL    HW1 5756   4.241  13.602   5.712
 1308SOL    HW2 5757   4.130  13.678   5.780
 1309SOL     OW 5758   4.572   1.307  14.384
 1309SOL    HW1 5759   4.615   1.345  14.460
 1309SOL    HW2 5760   4.479   1.310  14.404
 1310SOL     OW 5761   1.557   7.361   2.119
 1310SOL    HW1 5762   1.576   7.269   2.098
 1310SOL    HW2 5763   1.539   7.402   2.034
 1311SOL     OW 5764  10.677  14.384   7.741
 1311SOL    HW1 5765  10.641  14.447   7.678
 1311SOL    HW2 5766  10.727  14.438   7.803
 1312SOL     OW 5767   1.052  10.461   4.864
 1312SOL    HW1 5768   1.095  10.533   4.910
 1312SOL    HW2 5769   0.988  10.427   4.927
 1313SOL     OW 5770   1.744   9.689   5.878
 1313SOL    HW1 5771   1.654   9.723   5.871
 1313SOL    HW2 5772   1.797   9.754   5.832
 1314SOL     OW 5773  13.028  12.671   6.033
 1314SOL    HW1 5774  13.064  12.618   6.104
 1314SOL    HW2 5775  12.974  12.737   6.077
 1315SOL     OW 5776   4.038  13.306   3.246
 1315SOL    HW1 5777   3.976  13.376   3.222
 1315SOL    HW2 5778   4.084  13.287   3.164
 1316SOL     OW 5779  10.255   5.323  14.528
 1316SOL    HW1 5780  10.287   5.256  14.467
 1316SOL    HW2 5781  10.204   5.383  14.473
 1317SOL     OW 5782  11.378   9.206  11.237
 1317SOL    HW1 5783  11.428   9.263  11.178
 1317SOL    HW2 5784  11.287   9.217  11.209
 1318SOL     OW 5785  10.321  14.301   7.518
 1318SOL    HW1 5786  10.385  14.368   7.496
 1318SOL    HW2 5787  10.357  14.220   7.482
 1319SOL     OW 5788  14.343   5.746   7.189
 1319SOL    HW1 5789  14.379   5.738   7.101
 1319SOL    HW2 5790  14.410   5.795   7.238
 1320SOL     OW 5791   8.468   5.426  14.778
 1320SOL    HW1 5792   8.394   5.366  14.766
 1320SOL    HW2 5793   8.537   5.371  14.815
 1321SOL     OW 5794   3.250   8.965   4.259
 1321SOL    HW1 5795   3.234   8.874   4.280
 1321SOL    HW2 5796   3.187   9.014   4.312
 1322SOL     OW 5797   8.433   2.863   4.553
 1322SOL    HW1 5798   8.402   2.837   4.467
 1322SOL    HW2 5799   8.390   2.802   4.613
 1323SOL     OW 5800   0.655  11.595   8.294
 1323SOL    HW1 5801   0.718  11.598   8.366
 1323SOL    HW2 5802   0.570  11.610   8.335
 1324SOL     OW 5803  13.100  10.920  12.236
 1324SOL    HW1 5804  13.024  10.884  12.282
 1324SOL    HW2 5805  13.062  10.975  12.167
 1325SOL     OW 5806   3.466  13.057  14.858
 1325SOL    HW1 5807   3.424  12.981   0.027
 1325SOL    HW2 5808   3.501  13.108   0.060
 1326SOL     OW 5809   7.119   6.184  10.305
 1326SOL    HW1 5810   7.119   6.266  10.257
 1326SOL    HW2 5811   7.030   6.176  10.339
 1327SOL     OW 5812   8.506   4.792   0.352
 1327SOL    HW1 5813   8.446   4.717   0.343
 1327SOL    HW2 5814   8.519   4.801   0.447
 1328SOL     OW 5815   4.337  11.264  13.553
 1328SOL    HW1 5816   4.340  11.341  13.497
 1328SOL    HW2 5817   4.250  11.227  13.539
 1329SOL     OW 5818   4.036   8.681   7.638
 1329SOL    HW1 5819   4.023   8.606   7.696
 1329SOL    HW2 5820   3.948   8.710   7.615
 1330SOL     OW 5821   9.959   1.890   3.755
 1330SOL    HW1 5822   9.865   1.881   3.740
 1330SOL    HW2 5823   9.977   1.838   3.833
 1331SOL     OW 5824   7.102   7.923   6.305
 1331SOL    HW1 5825   7.141   8.010   6.298
 1331SOL    HW2 5826   7.038   7.919   6.234
 1332SOL     OW 5827   3.822   5.054   0.364
 1332SOL    HW1 5828   3.884   5.053   0.437
 1332SOL    HW2 5829   3.752   4.995   0.391
 1333SOL     OW 5830   8.675   5.717   4.086
 1333SOL    HW1 5831   8.665   5.795   4.031
 1333SOL    HW2 5832   8.768   5.718   4.112
 1334SOL     OW 5833   4.142  11.365  11.545
 1334SOL    HW1 5834   4.119  11.371  11.453
 1334SOL    HW2 5835   4.236  11.345  11.545
 1335SOL     OW 5836   8.262   4.382   3.920
 1335SOL    HW1 5837   8.252   4.289   3.899
 1335SOL    HW2 5838   8.354   4.391   3.944
 1336SOL     OW 5839   5.258  14.602   9.005
 1336SOL    HW1 5840   5.225  14.517   9.034
 1336SOL    HW2 5841   5.230  14.663   9.073
 1337SOL     OW 5842   1.963  14.049   5.705
 1337SOL    HW1 5843   1.979  14.020   5.615
 1337SOL    HW2 5844   1.987  13.974   5.759
 1338SOL     OW 5845   8.999   5.132   3.389
 1338SOL    HW1 5846   9.005   5.193   3.463
 1338SOL    HW2 5847   9.087   5.097   3.379
 1339SOL     OW 5848  11.784  13.199  11.698
 1339SOL    HW1 5849  11.733  13.214  11.778
 1339SOL    HW2 5850  11.719  13.169  11.634
 1340SOL     OW 5851   6.435  12.373   3.442
 1340SOL    HW1 5852   6.388  12.291   3.459
 1340SOL    HW2 5853   6.521  12.360   3.483
 1341SOL     OW 5854  13.041  12.437   2.358
 1341SOL    HW1 5855  13.008  12.375   2.423
 1341SOL    HW2 5856  13.135  12.443   2.376
 1342SOL     OW 5857   3.672   1.834   9.814
 1342SOL    HW1 5858   3.695   1.855   9.723
 1342SOL    HW2 5859   3.756   1.838   9.861
 1343SOL     OW 5860   0.943  14.279   2.232
 1343SOL    HW1 5861   1.037  14.283   2.218
 1343SOL    HW2 5862   0.905  14.279   2.144
 1344SOL     OW 5863  11.180  14.617  10.837
 1344SOL    HW1 5864  11.245  14.561  10.879
 1344SOL    HW2 5865  11.187  14.596  10.744
 1345SOL     OW 5866  11.563  14.056   2.108
 1345SOL    HW1 5867  11.523  13.969   2.101
 1345SOL    HW2 5868  11.497  14.110   2.150
 1346SOL     OW 5869   8.015  13.730  14.469
 1346SOL    HW1 5870   8.099  13.691  14.494
 1346SOL    HW2 5871   8.035  13.823  14.455
 1347SOL     OW 5872   2.142   9.634   0.805
 1347SOL    HW1 5873   2.106   9.712   0.849
 1347SOL    HW2 5874   2.164   9.575   0.877
 1348SOL     OW 5875  12.960   9.363  14.508
 1348SOL    HW1 5876  12.970   9.340  14.601
 1348SOL    HW2 5877  12.978   9.457  14.505
 1349SOL     OW 5878  11.149  13.266   1.391
 1349SOL    HW1 5879  11.077  13.259   1.454
 1349SOL    HW2 5880  11.206  13.192   1.412
 1350SOL     OW 5881   3.968  13.686   6.314
 1350SOL    HW1 5882   4.022  13.608   6.300
 1350SOL    HW2 5883   4.031  13.755   6.337
 1351SOL     OW 5884   9.775   6.057   6.933
 1351SOL    HW1 5885   9.792   6.111   7.011
 1351SOL    HW2 5886   9.680   6.060   6.922
 1352SOL     OW 5887  14.265  12.588   7.088
 1352SOL    HW1 5888  14.277  12.678   7.060
 1352SOL    HW2 5889  14.330  12.575   7.157
 1353SOL     OW 5890   1.809  14.612   9.178
 1353SOL    HW1 5891   1.799  14.517   9.172
 1353SOL    HW2 5892   1.777  14.645   9.094
 1354SOL     OW 5893  11.479  12.094   4.455
 1354SOL    HW1 5894  11.556  12.145   4.481
 1354SOL    HW2 5895  11.498  12.065   4.366
 1355SOL     OW 5896   7.783   3.540   5.979
 1355SOL    HW1 5897   7.805   3.520   6.070
 1355SOL    HW2 5898   7.851   3.498   5.927
 1356SOL     OW 5899  12.699   1.042   8.388
 1356SOL    HW1 5900  12.664   1.033   8.476
 1356SOL    HW2 5901  12.729   0.954   8.365
 1357SOL     OW 5902   2.411  10.960   5.125
 1357SOL    HW1 5903   2.420  10.958   5.030
 1357SOL    HW2 5904   2.448  10.876   5.154
 1358SOL     OW 5905  11.083  14.703   6.342
 1358SOL    HW1 5906  11.103  14.796   6.333
 1358SOL    HW2 5907  11.008  14.700   6.402
 1359SOL     OW 5908   1.653   5.995   1.641
 1359SOL    HW1 5909   1.581   6.038   1.594
 1359SOL    HW2 5910   1.657   5.907   1.604
 1360SOL     OW 5911   6.285  13.534  11.211
 1360SOL    HW1 5912   6.213  13.509  11.269
 1360SOL    HW2 5913   6.292  13.461  11.149
 1361SOL     OW 5914   8.860  14.614   8.080
 1361SOL    HW1 5915   8.811  14.535   8.054
 1361SOL    HW2 5916   8.799  14.663   8.135
 1362SOL     OW 5917  13.687   7.869   6.352
 1362SOL    HW1 5918  13.731   7.837   6.273
 1362SOL    HW2 5919  13.594   7.852   6.335
 1363SOL     OW 5920  12.323   3.269   1.834
 1363SOL    HW1 5921  12.284   3.356   1.819
 1363SOL    HW2 5922  12.402   3.268   1.780
 1364SOL     OW 5923   2.413   0.152   2.607
 1364SOL    HW1 5924   2.402   0.240   2.569
 1364SOL    HW2 5925   2.505   0.149   2.632
 1365SOL     OW 5926  10.797   1.951   7.049
 1365SOL    HW1 5927  10.846   1.882   7.003
 1365SOL    HW2 5928  10.769   1.910   7.130
 1366SOL     OW 5929   6.240   7.057  13.473
 1366SOL    HW1 5930   6.287   7.129  13.516
 1366SOL    HW2 5931   6.190   7.098  13.404
 1367SOL     OW 5932  11.092   5.001  13.279
 1367SOL    HW1 5933  11.130   4.915  13.294
 1367SOL    HW2 5934  11.046   4.993  13.195
 1368SOL     OW 5935  10.537   2.971  12.227
 1368SOL    HW1 5936  10.557   3.018  12.146
 1368SOL    HW2 5937  10.453   2.930  12.211
 1369SOL     OW 5938   4.710   4.443   9.377
 1369SOL    HW1 5939   4.738   4.401   9.296
 1369SOL    HW2 5940   4.753   4.394   9.447
 1370SOL     OW 5941   0.787   4.363  14.142
 1370SOL    HW1 5942   0.789   4.453  14.111
 1370SOL    HW2 5943   0.757   4.369  14.233
 1371SOL     OW 5944   9.588   9.438  12.140
 1371SOL    HW1 5945   9.526   9.366  12.146
 1371SOL    HW2 5946   9.663   9.410  12.193
 1372SOL     OW 5947   5.203  10.704   9.365
 1372SOL    HW1 5948   5.110  10.687   9.380
 1372SOL    HW2 5949   5.238  10.724   9.452
 1373SOL     OW 5950   6.820   7.298   7.604
 1373SOL    HW1 5951   6.853   7.239   7.671
 1373SOL    HW2 5952   6.864   7.381   7.622
 1374SOL     OW 5953  11.375  14.158   7.579
 1374SOL    HW1 5954  11.418  14.234   7.619
 1374SOL    HW2 5955  11.315  14.127   7.646
 1375SOL     OW 5956   2.527   9.765  14.674
 1375SOL    HW1 5957   2.593   9.700  14.650
 1375SOL    HW2 5958   2.575   9.848  14.676
 1376SOL     OW 5959   9.776   0.309  13.376
 1376SOL    HW1 5960   9.763   0.397  13.341
 1376SOL    HW2 5961   9.857   0.279  13.334
 1377SOL     OW 5962  10.973   1.252   4.264
 1377SOL    HW1 5963  10.985   1.306   4.186
 1377SOL    HW2 5964  11.062   1.236   4.296
 1378SOL     OW 5965  10.531   1.599   9.497
 1378SOL    HW1 5966  10.608   1.543   9.508
 1378SOL    HW2 5967  10.485   1.562   9.421
 1379SOL     OW 5968   3.575   2.553   8.644
 1379SOL    HW1 5969   3.488   2.559   8.682
 1379SOL    HW2 5970   3.625   2.622   8.687
 1380SOL     OW 5971  11.903   4.766  14.326
 1380SOL    HW1 5972  11.974   4.807  14.376
 1380SOL    HW2 5973  11.937   4.762  14.236
 1381SOL     OW 5974   1.204   9.093   1.429
 1381SOL    HW1 5975   1.179   9.029   1.362
 1381SOL    HW2 5976   1.154   9.067   1.506
 1382SOL     OW 5977   2.998  12.920  11.649
 1382SOL    HW1 5978   3.034  12.898  11.563
 1382SOL    HW2 5979   3.030  13.009  11.665
 1383SOL     OW 5980   4.727  11.770  10.409
 1383SOL    HW1 5981   4.760  11.838  10.467
 1383SOL    HW2 5982   4.769  11.787  10.325
 1384SOL     OW 5983   0.923   6.049   6.609
 1384SOL    HW1 5984   0.874   6.044   6.691
 1384SOL    HW2 5985   0.974   6.131   6.616
 1385SOL     OW 5986   5.473   4.222  11.186
 1385SOL    HW1 5987   5.550   4.239  11.131
 1385SOL    HW2 5988   5.448   4.132  11.164
 1386SOL     OW 5989  13.061  14.033   8.052
 1386SOL    HW1 5990  13.099  14.017   7.966
 1386SOL    HW2 5991  13.013  13.953   8.073
 1387SOL     OW 5992  12.944   0.618   9.292
 1387SOL    HW1 5993  13.015   0.588   9.235
 1387SOL    HW2 5994  12.942   0.555   9.363
 1388SOL     OW 5995  13.153   3.739   1.395
 1388SOL    HW1 5996  13.233   3.722   1.345
 1388SOL    HW2 5997  13.086   3.687   1.351
 1389SOL     OW 5998   2.765   1.989   6.916
 1389SOL    HW1 5999   2.844   1.960   6.961
 1389SOL    HW2 6000   2.694   1.942   6.960
 1390SOL     OW 6001  14.409   9.415   6.346
 1390SOL    HW1 6002  14.360   9.338   6.318
 1390SOL    HW2 6003  14.478   9.425   6.280
 1391SOL     OW 6004   4.582  13.316  11.582
 1391SOL    HW1 6005   4.553  13.353  11.499
 1391SOL    HW2 6006   4.550  13.377  11.648
 1392SOL     OW 6007   0.286   9.288   2.110
 1392SOL    HW1 6008   0.338   9.300   2.030
 1392SOL    HW2 6009   0.289   9.194   2.126
 1393SOL     OW 6010   3.373  14.468   3.415
 1393SOL    HW1 6011   3.439  14.481   3.347
 1393SOL    HW2 6012   3.371  14.551   3.464
 1394SOL     OW 6013   3.798   1.072   3.414
 1394SOL    HW1 6014   3.879   1.085   3.365
 1394SOL    HW2 6015   3.769   1.161   3.435
 1395SOL     OW 6016   0.871   6.187  14.177
 1395SOL    HW1 6017   0.885   6.093  14.170
 1395SOL    HW2 6018   0.949   6.226  14.137
 1396SOL     OW 6019   2.245  12.086   7.932
 1396SOL    HW1 6020   2.259  12.137   7.852
 1396SOL    HW2 6021   2.266  12.147   8.003
 1397SOL     OW 6022  14.472   4.660   5.507
 1397SOL    HW1 6023  14.377   4.658   5.498
 1397SOL    HW2 6024  14.487   4.707   5.589
 1398SOL     OW 6025  14.620   0.429   1.780
 1398SOL    HW1 6026  14.585   0.341   1.767
 1398SOL    HW2 6027  14.675   0.421   1.859
 1399SOL     OW 6028  13.612   3.816   7.378
 1399SOL    HW1 6029  13.619   3.745   7.315
 1399SOL    HW2 6030  13.640   3.777   7.461
 1400SOL     OW 6031   3.324  13.762   2.495
 1400SOL    HW1 6032   3.388  13.691   2.486
 1400SOL    HW2 6033   3.251  13.735   2.440
 1401SOL     OW 6034  12.333  14.452   7.564
 1401SOL    HW1 6035  12.350  14.432   7.656
 1401SOL    HW2 6036  12.249  14.412   7.546
 1402SOL     OW 6037  13.228   6.648  12.668
 1402SOL    HW1 6038  13.321   6.663  12.649
 1402SOL    HW2 6039  13.189   6.735  12.665
 1403SOL     OW 6040   3.066   7.792   6.344
 1403SOL    HW1 6041   3.103   7.780   6.431
 1403SOL    HW2 6042   3.068   7.886   6.330
 1404SOL     OW 6043   7.439  14.867  10.236
 1404SOL    HW1 6044   7.382  14.811  10.184
 1404SOL    HW2 6045   7.507   0.023  10.175
 1405SOL     OW 6046   5.674   9.911   8.595
 1405SOL    HW1 6047   5.729   9.900   8.518
 1405SOL    HW2 6048   5.703   9.843   8.656
 1406SOL     OW 6049   7.688  12.517  14.326
 1406SOL    HW1 6050   7.645  12.436  14.352
 1406SOL    HW2 6051   7.768  12.489  14.281
 1407SOL     OW 6052   2.383   1.821   0.815
 1407SOL    HW1 6053   2.392   1.883   0.887
 1407SOL    HW2 6054   2.460   1.764   0.821
 1408SOL     OW 6055   4.505   6.041  13.333
 1408SOL    HW1 6056   4.465   6.111  13.384
 1408SOL    HW2 6057   4.592   6.073  13.311
 1409SOL     OW 6058  13.388   3.816   4.058
 1409SOL    HW1 6059  13.314   3.874   4.079
 1409SOL    HW2 6060  13.391   3.815   3.962
 1410SOL     OW 6061   7.530   7.095   1.037
 1410SOL    HW1 6062   7.578   7.018   1.005
 1410SOL    HW2 6063   7.441   7.062   1.054
 1411SOL     OW 6064   0.603  11.269   2.167
 1411SOL    HW1 6065   0.514  11.234   2.167
 1411SOL    HW2 6066   0.635  11.253   2.078
 1412SOL     OW 6067   6.891   6.625  11.300
 1412SOL    HW1 6068   6.932   6.710  11.284
 1412SOL    HW2 6069   6.862   6.629  11.391
 1413SOL     OW 6070   9.749  13.946  10.272
 1413SOL    HW1 6071   9.672  13.896  10.245
 1413SOL    HW2 6072   9.719  14.036  10.279
 1414SOL     OW 6073   1.177   1.803  13.332
 1414SOL    HW1 6074   1.100   1.807  13.390
 1414SOL    HW2 6075   1.149   1.749  13.259
 1415SOL     OW 6076   0.857   0.989  14.091
 1415SOL    HW1 6077   0.906   0.927  14.144
 1415SOL    HW2 6078   0.846   1.066  14.147
 1416SOL     OW 6079  11.608   7.695   5.057
 1416SOL    HW1 6080  11.656   7.714   4.977
 1416SOL    HW2 6081  11.516   7.694   5.030
 1417SOL     OW 6082  13.017   3.055   3.892
 1417SOL    HW1 6083  12.924   3.057   3.870
 1417SOL    HW2 6084  13.023   2.993   3.964
 1418SOL     OW 6085  10.295  13.627   4.542
 1418SOL    HW1 6086  10.320  13.571   4.469
 1418SOL    HW2 6087  10.360  13.697   4.542
 1419SOL     OW 6088  10.105  12.924   9.502
 1419SOL    HW1 6089  10.113  12.831   9.521
 1419SOL    HW2 6090  10.128  12.931   9.409
 1420SOL     OW 6091   1.279   3.384   0.675
 1420SOL    HW1 6092   1.345   3.453   0.687
 1420SOL    HW2 6093   1.280   3.367   0.581
 1421SOL     OW 6094   3.577  12.076  10.262
 1421SOL    HW1 6095   3.665  12.112  10.256
 1421SOL    HW2 6096   3.557  12.046  10.174
 1422SOL     OW 6097  13.296   5.269   2.862
 1422SOL    HW1 6098  13.348   5.344   2.893
 1422SOL    HW2 6099  13.207   5.289   2.890
 1423SOL     OW 6100  12.480   4.696   2.439
 1423SOL    HW1 6101  12.532   4.638   2.384
 1423SOL    HW2 6102  12.461   4.644   2.517
 1424SOL     OW 6103   6.728   7.956   4.653
 1424SOL    HW1 6104   6.673   7.934   4.728
 1424SOL    HW2 6105   6.807   7.904   4.665
 1425SOL     OW 6106  14.596   4.667   2.361
 1425SOL    HW1 6107  14.567   4.691   2.273
 1425SOL    HW2 6108  14.681   4.625   2.348
 1426SOL     OW 6109  11.629   2.335  11.386
 1426SOL    HW1 6110  11.533   2.328  11.385
 1426SOL    HW2 6111  11.658   2.282  11.312
 1427SOL     OW 6112   6.087  14.427  10.716
 1427SOL    HW1 6113   6.159  14.401  10.659
 1427SOL    HW2 6114   6.023  14.356  10.707
 1428SOL     OW 6115   0.337   2.911  10.909
 1428SOL    HW1 6116   0.282   2.844  10.870
 1428SOL    HW2 6117   0.426   2.883  10.889
 1429SOL     OW 6118   4.595  10.014  11.992
 1429SOL    HW1 6119   4.564   9.937  11.944
 1429SOL    HW2 6120   4.596  10.084  11.926
 1430SOL     OW 6121   6.076   5.124   8.552
 1430SOL    HW1 6122   6.012   5.069   8.506
 1430SOL    HW2 6123   6.057   5.109   8.645
 1431SOL     OW 6124   3.361   8.776   3.613
 1431SOL    HW1 6125   3.413   8.770   3.693
 1431SOL    HW2 6126   3.393   8.855   3.569
 1432SOL     OW 6127   4.917  14.866   9.549
 1432SOL    HW1 6128   5.008  14.849   9.572
 1432SOL    HW2 6129   4.898  14.806   9.477
 1433SOL     OW 6130  13.361   6.144   0.979
 1433SOL    HW1 6131  13.447   6.122   0.942
 1433SOL    HW2 6132  13.368   6.120   1.072
 1434SOL     OW 6133   8.273  12.043   4.273
 1434SOL    HW1 6134   8.351  12.075   4.227
 1434SOL    HW2 6135   8.256  11.958   4.235
 1435SOL     OW 6136   6.677  13.123   1.504
 1435SOL    HW1 6137   6.633  13.186   1.562
 1435SOL    HW2 6138   6.629  13.041   1.517
 1436SOL     OW 6139   8.601  10.079   7.367
 1436SOL    HW1 6140   8.640  10.153   7.320
 1436SOL    HW2 6141   8.675  10.025   7.392
 1437SOL     OW 6142  13.146   5.725   0.445
 1437SOL    HW1 6143  13.131   5.787   0.517
 1437SOL    HW2 6144  13.217   5.764   0.395
 1438SOL     OW 6145  13.770   2.492  12.088
 1438SOL    HW1 6146  13.846   2.440  12.113
 1438SOL    HW2 6147  13.800   2.583  12.092
 1439SOL     OW 6148   6.931   0.737   2.885
 1439SOL    HW1 6149   6.956   0.806   2.947
 1439SOL    HW2 6150   6.984   0.662   2.910
 1440SOL     OW 6151   0.034   8.391   2.160
 1440SOL    HW1 6152   0.084   8.356   2.087
 1440SOL    HW2 6153   0.067   8.480   2.171
 1441SOL     OW 6154  11.116   3.324   0.494
 1441SOL    HW1 6155  11.091   3.287   0.410
 1441SOL    HW2 6156  11.033   3.351   0.535
 1442SOL     OW 6157   4.851   7.283   6.247
 1442SOL    HW1 6158   4.914   7.338   6.293
 1442SOL    HW2 6159   4.864   7.196   6.284
 1443SOL     OW 6160   0.588   9.648   8.534
 1443SOL    HW1 6161   0.493   9.660   8.531
 1443SOL    HW2 6162   0.600   9.566   8.582
 1444SOL     OW 6163   5.851   8.568   8.729
 1444SOL    HW1 6164   5.788   8.640   8.724
 1444SOL    HW2 6165   5.803   8.497   8.770
 1445SOL     OW 6166  13.420  14.444   3.438
 1445SOL    HW1 6167  13.359  14.425   3.367
 1445SOL    HW2 6168  13.446  14.535   3.424
 1446SOL     OW 6169   0.185   3.528   3.314
 1446SOL    HW1 6170   0.139   3.493   3.391
 1446SOL    HW2 6171   0.117   3.568   3.261
 1447SOL     OW 6172   7.129   6.113   3.472
 1447SOL    HW1 6173   7.136   6.147   3.383
 1447SOL    HW2 6174   7.096   6.024   3.460
 1448SOL     OW 6175   2.494   5.649   9.943
 1448SOL    HW1 6176   2.500   5.665  10.038
 1448SOL    HW2 6177   2.506   5.555   9.934
 1449SOL     OW 6178   6.827   0.831   8.794
 1449SOL    HW1 6179   6.896   0.772   8.764
 1449SOL    HW2 6180   6.873   0.908   8.827
 1450SOL     OW 6181  10.245   8.267   8.114
 1450SOL    HW1 6182  10.258   8.172   8.117
 1450SOL    HW2 6183  10.193   8.282   8.035
 1451SOL     OW 6184  10.329   7.242   0.018
 1451SOL    HW1 6185  10.408   7.296   0.021
 1451SOL    HW2 6186  10.266   7.294  14.841
 1452SOL     OW 6187   9.935  12.465   6.033
 1452SOL    HW1 6188   9.913  12.469   5.940
 1452SOL    HW2 6189   9.902  12.548   6.068
 1453SOL     OW 6190   8.076   9.411   9.275
 1453SOL    HW1 6191   8.079   9.364   9.192
 1453SOL    HW2 6192   8.162   9.453   9.282
 1454SOL     OW 6193  13.432   5.741   7.878
 1454SOL    HW1 6194  13.444   5.660   7.929
 1454SOL    HW2 6195  13.509   5.794   7.899
 1455SOL     OW 6196   6.085   8.031   6.081
 1455SOL    HW1 6197   6.141   7.957   6.104
 1455SOL    HW2 6198   6.063   8.071   6.165
 1456SOL     OW 6199  11.908  11.254   2.361
 1456SOL    HW1 6200  11.947  11.276   2.446
 1456SOL    HW2 6201  11.949  11.170   2.338
 1457SOL     OW 6202   0.088  13.443   4.578
 1457SOL    HW1 6203   0.082  13.409   4.668
 1457SOL    HW2 6204  14.870  13.441   4.545
 1458SOL     OW 6205   8.705  12.260  13.910
 1458SOL    HW1 6206   8.687  12.315  13.986
 1458SOL    HW2 6207   8.620  12.224  13.885
 1459SOL     OW 6208  12.614   9.235   4.359
 1459SOL    HW1 6209  12.659   9.240   4.444
 1459SOL    HW2 6210  12.544   9.299   4.364
 1460SOL     OW 6211   6.800   0.707   6.362
 1460SOL    HW1 6212   6.816   0.673   6.274
 1460SOL    HW2 6213   6.727   0.655   6.395
 1461SOL     OW 6214  10.463  14.581  14.601
 1461SOL    HW1 6215  10.548  14.613  14.631
 1461SOL    HW2 6216  10.433  14.525  14.672
 1462SOL     OW 6217   7.316   7.054   6.810
 1462SOL    HW1 6218   7.275   6.968   6.814
 1462SOL    HW2 6219   7.410   7.036   6.815
 1463SOL     OW 6220  11.742  14.694  13.248
 1463SOL    HW1 6221  11.753  14.603  13.276
 1463SOL    HW2 6222  11.648  14.705  13.238
 1464SOL     OW 6223  14.303  12.552   8.644
 1464SOL    HW1 6224  14.306  12.577   8.552
 1464SOL    HW2 6225  14.359  12.616   8.688
 1465SOL     OW 6226   1.008   6.792   5.667
 1465SOL    HW1 6227   1.049   6.857   5.723
 1465SOL    HW2 6228   0.914   6.813   5.670
 1466SOL     OW 6229   8.716   3.111   0.442
 1466SOL    HW1 6230   8.700   3.020   0.416
 1466SOL    HW2 6231   8.674   3.164   0.374
 1467SOL     OW 6232   4.863   6.196  10.171
 1467SOL    HW1 6233   4.933   6.261  10.180
 1467SOL    HW2 6234   4.898   6.133  10.107
 1468SOL     OW 6235   7.944   1.887   6.568
 1468SOL    HW1 6236   7.849   1.883   6.558
 1468SOL    HW2 6237   7.966   1.809   6.620
 1469SOL     OW 6238   0.082   6.558   9.118
 1469SOL    HW1 6239   0.121   6.632   9.071
 1469SOL    HW2 6240   0.145   6.487   9.108
 1470SOL     OW 6241   7.627  13.939   1.770
 1470SOL    HW1 6242   7.666  13.852   1.768
 1470SOL    HW2 6243   7.690  13.995   1.723
 1471SOL     OW 6244  11.152   0.630   4.891
 1471SOL    HW1 6245  11.244   0.657   4.887
 1471SOL    HW2 6246  11.120   0.663   4.975
 1472SOL     OW 6247  10.309  10.933  10.239
 1472SOL    HW1 6248  10.309  10.969  10.327
 1472SOL    HW2 6249  10.217  10.925  10.216
 1473SOL     OW 6250  11.258   7.589  12.772
 1473SOL    HW1 6251  11.167   7.566  12.793
 1473SOL    HW2 6252  11.254   7.628  12.685
 1474SOL     OW 6253   3.517   2.634   7.311
 1474SOL    HW1 6254   3.518   2.728   7.325
 1474SOL    HW2 6255   3.606   2.612   7.286
 1475SOL     OW 6256   6.064  12.819  13.764
 1475SOL    HW1 6257   6.053  12.733  13.805
 1475SOL    HW2 6258   6.140  12.857  13.807
 1476SOL     OW 6259   3.998   7.431   1.036
 1476SOL    HW1 6260   3.940   7.357   1.056
 1476SOL    HW2 6261   3.960   7.504   1.084
 1477SOL     OW 6262   9.469  11.737   6.855
 1477SOL    HW1 6263   9.519  11.760   6.777
 1477SOL    HW2 6264   9.535  11.714   6.920
 1478SOL     OW 6265   5.440   3.468   0.482
 1478SOL    HW1 6266   5.479   3.497   0.564
 1478SOL    HW2 6267   5.500   3.402   0.448
 1479SOL     OW 6268  12.869   4.022   9.558
 1479SOL    HW1 6269  12.909   4.091   9.610
 1479SOL    HW2 6270  12.784   4.057   9.531
 1480SOL     OW 6271   1.237   1.469  10.390
 1480SOL    HW1 6272   1.208   1.469  10.299
 1480SOL    HW2 6273   1.171   1.418  10.437
 1481SOL     OW 6274  11.920   5.673   0.226
 1481SOL    HW1 6275  11.996   5.616   0.236
 1481SOL    HW2 6276  11.956   5.757   0.197
 1482SOL     OW 6277  11.226   8.419   6.895
 1482SOL    HW1 6278  11.281   8.434   6.818
 1482SOL    HW2 6279  11.285   8.431   6.969
 1483SOL     OW 6280   8.852  13.111  11.756
 1483SOL    HW1 6281   8.798  13.190  11.752
 1483SOL    HW2 6282   8.830  13.063  11.676
 1484SOL     OW 6283  11.689  13.607   2.123
 1484SOL    HW1 6284  11.681  13.544   2.194
 1484SOL    HW2 6285  11.783  13.613   2.106
 1485SOL     OW 6286   7.493   2.503   3.997
 1485SOL    HW1 6287   7.486   2.534   3.906
 1485SOL    HW2 6288   7.445   2.421   3.999
 1486SOL     OW 6289   6.378   8.141   4.426
 1486SOL    HW1 6290   6.458   8.117   4.380
 1486SOL    HW2 6291   6.378   8.085   4.504
 1487SOL     OW 6292  10.651   8.045   7.949
 1487SOL    HW1 6293  10.571   8.097   7.942
 1487SOL    HW2 6294  10.675   8.050   8.041
 1488SOL     OW 6295   7.109   6.290   6.730
 1488SOL    HW1 6296   7.166   6.231   6.780
 1488SOL    HW2 6297   7.157   6.307   6.649
 1489SOL     OW 6298   3.231   3.159  11.361
 1489SOL    HW1 6299   3.136   3.150  11.372
 1489SOL    HW2 6300   3.267   3.150  11.449
 1490SOL     OW 6301  13.795  14.376   6.545
 1490SOL    HW1 6302  13.769  14.417   6.628
 1490SOL    HW2 6303  13.854  14.305   6.571
 1491SOL     OW 6304  12.612  11.530  10.475
 1491SOL    HW1 6305  12.594  11.619  10.444
 1491SOL    HW2 6306  12.696  11.508  10.436
 1492SOL     OW 6307   9.965   1.277   7.749
 1492SOL    HW1 6308   9.952   1.319   7.664
 1492SOL    HW2 6309   9.877   1.276   7.789
 1493SOL     OW 6310  11.947   3.413   0.651
 1493SOL    HW1 6311  12.033   3.456   0.642
 1493SOL    HW2 6312  11.893   3.454   0.583
 1494SOL     OW 6313   3.843  12.302  13.248
 1494SOL    HW1 6314   3.894  12.290  13.328
 1494SOL    HW2 6315   3.799  12.386  13.261
 1495SOL     OW 6316  10.666  13.573  11.668
 1495SOL    HW1 6317  10.623  13.613  11.593
 1495SOL    HW2 6318  10.754  13.552  11.638
 1496SOL     OW 6319   6.251   7.511  11.754
 1496SOL    HW1 6320   6.247   7.580  11.821
 1496SOL    HW2 6321   6.293   7.553  11.679
 1497SOL     OW 6322   0.939   9.967   5.401
 1497SOL    HW1 6323   0.934   9.991   5.493
 1497SOL    HW2 6324   1.026   9.929   5.391
 1498SOL     OW 6325   9.088   6.783   3.722
 1498SOL    HW1 6326   9.152   6.715   3.739
 1498SOL    HW2 6327   9.014   6.761   3.778
 1499SOL     OW 6328   9.860  12.308   2.334
 1499SOL    HW1 6329   9.793  12.351   2.386
 1499SOL    HW2 6330   9.942  12.327   2.381
 1500SOL     OW 6331   0.394   6.674   8.065
 1500SOL    HW1 6332   0.480   6.715   8.071
 1500SOL    HW2 6333   0.396   6.604   8.130
 1501SOL     OW 6334  14.079   6.375   0.891
 1501SOL    HW1 6335  14.166   6.391   0.854
 1501SOL    HW2 6336  14.096   6.356   0.983
 1502SOL     OW 6337  11.528   0.199   9.901
 1502SOL    HW1 6338  11.488   0.174   9.817
 1502SOL    HW2 6339  11.472   0.269   9.934
 1503SOL     OW 6340   9.726  14.193   0.842
 1503SOL    HW1 6341   9.733  14.108   0.887
 1503SOL    HW2 6342   9.684  14.250   0.906
 1504SOL     OW 6343  11.316  10.232  11.898
 1504SOL    HW1 6344  11.230  10.268  11.920
 1504SOL    HW2 6345  11.320  10.235  11.803
 1505SOL     OW 6346  13.245   5.416  11.764
 1505SOL    HW1 6347  13.172   5.434  11.823
 1505SOL    HW2 6348  13.216   5.450  11.680
 1506SOL     OW 6349  10.934   1.560   3.340
 1506SOL    HW1 6350  10.993   1.497   3.297
 1506SOL    HW2 6351  10.862   1.507   3.372
 1507SOL     OW 6352  13.002  12.234  11.981
 1507SOL    HW1 6353  13.061  12.261  12.052
 1507SOL    HW2 6354  12.989  12.312  11.928
 1508SOL     OW 6355   2.495   1.675  12.516
 1508SOL    HW1 6356   2.482   1.737  12.444
 1508SOL    HW2 6357   2.587   1.651  12.510
 1509SOL     OW 6358  11.185   8.289   5.969
 1509SOL    HW1 6359  11.221   8.204   5.993
 1509SOL    HW2 6360  11.203   8.345   6.044
 1510SOL     OW 6361   6.668   7.345   4.447
 1510SOL    HW1 6362   6.577   7.373   4.461
 1510SOL    HW2 6363   6.668   7.252   4.470
 1511SOL     OW 6364  10.782  14.057   3.142
 1511SOL    HW1 6365  10.859  14.039   3.196
 1511SOL    HW2 6366  10.714  14.001   3.178
 1512SOL     OW 6367  11.075   1.247   2.000
 1512SOL    HW1 6368  11.116   1.232   1.915
 1512SOL    HW2 6369  10.997   1.191   2.000
 1513SOL     OW 6370  13.488   3.081   0.168
 1513SOL    HW1 6371  13.397   3.102   0.186
 1513SOL    HW2 6372  13.523   3.161   0.127
 1514SOL     OW 6373  11.021  14.412   6.360
 1514SOL    HW1 6374  11.048  14.489   6.310
 1514SOL    HW2 6375  10.969  14.360   6.298
 1515SOL     OW 6376   1.338   9.927   1.609
 1515SOL    HW1 6377   1.429   9.925   1.638
 1515SOL    HW2 6378   1.298   9.850   1.649
 1516SOL     OW 6379   1.306   0.885  11.301
 1516SOL    HW1 6380   1.293   0.964  11.354
 1516SOL    HW2 6381   1.393   0.853  11.327
 1517SOL     OW 6382   1.146  14.004   4.041
 1517SOL    HW1 6383   1.162  14.090   4.001
 1517SOL    HW2 6384   1.072  14.019   4.099
 1518SOL     OW 6385  12.894   9.062   1.157
 1518SOL    HW1 6386  12.863   8.983   1.113
 1518SOL    HW2 6387  12.874   9.048   1.249
 1519SOL     OW 6388   5.689  11.042   0.397
 1519SOL    HW1 6389   5.754  10.972   0.397
 1519SOL    HW2 6390   5.639  11.029   0.316
 1520SOL     OW 6391   1.833   5.940   6.629
 1520SOL    HW1 6392   1.899   5.957   6.561
 1520SOL    HW2 6393   1.852   6.005   6.696
 1521SOL     OW 6394   2.403   9.957  12.028
 1521SOL    HW1 6395   2.382  10.018  12.099
 1521SOL    HW2 6396   2.445  10.012  11.961
 1522SOL     OW 6397   0.707  11.308   5.428
 1522SOL    HW1 6398   0.625  11.295   5.379
 1522SOL    HW2 6399   0.705  11.400   5.454
 1523SOL     OW 6400  12.665   7.984  10.116
 1523SOL    HW1 6401  12.602   7.964  10.047
 1523SOL    HW2 6402  12.696   8.072  10.095
 1524SOL     OW 6403   2.806  10.940   3.856
 1524SOL    HW1 6404   2.815  10.880   3.930
 1524SOL    HW2 6405   2.754  10.892   3.792
 1525SOL     OW 6406   3.917  14.005  10.651
 1525SOL    HW1 6407   3.837  14.055  10.638
 1525SOL    HW2 6408   3.893  13.937  10.713
 1526SOL     OW 6409   2.599   2.164   1.777
 1526SOL    HW1 6410   2.664   2.195   1.714
 1526SOL    HW2 6411   2.583   2.073   1.753
 1527SOL     OW 6412  11.696   5.836  12.086
 1527SOL    HW1 6413  11.690   5.931  12.089
 1527SOL    HW2 6414  11.605   5.806  12.087
 1528SOL     OW 6415   3.515  11.153   2.149
 1528SOL    HW1 6416   3.607  11.130   2.142
 1528SOL    HW2 6417   3.504  11.185   2.239
 1529SOL     OW 6418   8.967   4.590   1.127
 1529SOL    HW1 6419   8.905   4.530   1.167
 1529SOL    HW2 6420   8.978   4.557   1.038
 1530SOL     OW 6421   1.418   5.970   1.874
 1530SOL    HW1 6422   1.380   6.037   1.930
 1530SOL    HW2 6423   1.436   6.014   1.791
 1531SOL     OW 6424   1.133   3.282   4.594
 1531SOL    HW1 6425   1.079   3.355   4.564
 1531SOL    HW2 6426   1.117   3.213   4.530
 1532SOL     OW 6427   3.293   6.018   3.658
 1532SOL    HW1 6428   3.367   6.038   3.601
 1532SOL    HW2 6429   3.323   6.040   3.745
 1533SOL     OW 6430  12.892  12.336   4.369
 1533SOL    HW1 6431  12.926  12.248   4.387
 1533SOL    HW2 6432  12.837  12.356   4.444
 1534SOL     OW 6433   5.153   3.869  13.555
 1534SOL    HW1 6434   5.150   3.965  13.556
 1534SOL    HW2 6435   5.246   3.848  13.569
 1535SOL     OW 6436   5.686  10.187  10.622
 1535SOL    HW1 6437   5.704  10.280  10.638
 1535SOL    HW2 6438   5.618  10.164  10.685
 1536SOL     OW 6439   3.879   4.176  10.412
 1536SOL    HW1 6440   3.939   4.251  10.410
 1536SOL    HW2 6441   3.795   4.212  10.439
 1537SOL     OW 6442   1.400   7.832  10.789
 1537SOL    HW1 6443   1.312   7.851  10.822
 1537SOL    HW2 6444   1.419   7.743  10.818
 1538SOL     OW 6445   9.248   0.312   2.141
 1538SOL    HW1 6446   9.167   0.302   2.191
 1538SOL    HW2 6447   9.220   0.308   2.049
 1539SOL     OW 6448   6.152   5.752   1.840
 1539SOL    HW1 6449   6.195   5.835   1.819
 1539SOL    HW2 6450   6.151   5.703   1.758
 1540SOL     OW 6451  12.716   1.807  13.397
 1540SOL    HW1 6452  12.705   1.902  13.401
 1540SOL    HW2 6453  12.676   1.775  13.478
 1541SOL     OW 6454   8.737  10.404  11.669
 1541SOL    HW1 6455   8.782  10.449  11.597
 1541SOL    HW2 6456   8.663  10.462  11.690
 1542SOL     OW 6457   1.061  13.513   9.246
 1542SOL    HW1 6458   1.127  13.487   9.182
 1542SOL    HW2 6459   1.012  13.583   9.203
 1543SOL     OW 6460  14.496   7.176  10.771
 1543SOL    HW1 6461  14.549   7.253  10.748
 1543SOL    HW2 6462  14.464   7.144  10.687
 1544SOL     OW 6463  11.760   8.654   3.833
 1544SOL    HW1 6464  11.706   8.605   3.771
 1544SOL    HW2 6465  11.781   8.736   3.787
 1545SOL     OW 6466   0.561   5.167   9.165
 1545SOL    HW1 6467   0.599   5.163   9.253
 1545SOL    HW2 6468   0.564   5.260   9.142
 1546SOL     OW 6469   9.432  12.823   0.215
 1546SOL    HW1 6470   9.476  12.862   0.291
 1546SOL    HW2 6471   9.343  12.858   0.219
 1547SOL     OW 6472   4.894   4.459  14.507
 1547SOL    HW1 6473   4.962   4.466  14.440
 1547SOL    HW2 6474   4.912   4.376  14.551
 1548SOL     OW 6475  10.551   3.405   4.565
 1548SOL    HW1 6476  10.541   3.405   4.660
 1548SOL    HW2 6477  10.579   3.494   4.543
 1549SOL     OW 6478   3.750   7.307   3.097
 1549SOL    HW1 6479   3.809   7.350   3.159
 1549SOL    HW2 6480   3.760   7.357   3.016
 1550SOL     OW 6481  11.030   7.355  12.071
 1550SOL    HW1 6482  11.013   7.265  12.098
 1550SOL    HW2 6483  10.988   7.363  11.985
 1551SOL     OW 6484  10.872   6.548   3.916
 1551SOL    HW1 6485  10.884   6.610   3.987
 1551SOL    HW2 6486  10.955   6.499   3.913
 1552SOL     OW 6487   2.891   5.115   7.259
 1552SOL    HW1 6488   2.967   5.162   7.223
 1552SOL    HW2 6489   2.892   5.031   7.213
 1553SOL     OW 6490  10.143  13.796   9.864
 1553SOL    HW1 6491  10.131  13.873   9.809
 1553SOL    HW2 6492  10.171  13.831   9.949
 1554SOL     OW 6493   7.851   3.258   5.227
 1554SOL    HW1 6494   7.863   3.164   5.213
 1554SOL    HW2 6495   7.929   3.286   5.274
 1555SOL     OW 6496   4.572   4.749   4.145
 1555SOL    HW1 6497   4.604   4.786   4.063
 1555SOL    HW2 6498   4.484   4.785   4.154
 1556SOL     OW 6499  10.258   5.592   6.523
 1556SOL    HW1 6500  10.344   5.629   6.542
 1556SOL    HW2 6501  10.202   5.668   6.506
 1557SOL     OW 6502   7.586  11.675  12.639
 1557SOL    HW1 6503   7.588  11.748  12.701
 1557SOL    HW2 6504   7.506  11.689  12.588
 1558SOL     OW 6505   5.033  12.314   5.349
 1558SOL    HW1 6506   4.957  12.371   5.358
 1558SOL    HW2 6507   5.007  12.250   5.282
 1559SOL     OW 6508  14.431   0.484   2.057
 1559SOL    HW1 6509  14.371   0.553   2.087
 1559SOL    HW2 6510  14.377   0.405   2.056
 1560SOL     OW 6511   9.007   8.865   4.344
 1560SOL    HW1 6512   9.044   8.781   4.371
 1560SOL    HW2 6513   8.934   8.880   4.403
 1561SOL     OW 6514   0.811  13.583   9.914
 1561SOL    HW1 6515   0.775  13.577  10.002
 1561SOL    HW2 6516   0.810  13.493   9.882
 1562SOL     OW 6517  11.286   1.066   8.635
 1562SOL    HW1 6518  11.335   1.047   8.715
 1562SOL    HW2 6519  11.313   1.155   8.611
 1563SOL     OW 6520   7.969  14.142  10.054
 1563SOL    HW1 6521   7.939  14.083   9.985
 1563SOL    HW2 6522   7.889  14.181  10.089
 1564SOL     OW 6523  13.057   1.500  12.766
 1564SOL    HW1 6524  13.148   1.513  12.793
 1564SOL    HW2 6525  13.048   1.555  12.688
 1565SOL     OW 6526   2.105   9.084   2.204
 1565SOL    HW1 6527   2.173   9.022   2.229
 1565SOL    HW2 6528   2.092   9.069   2.110
 1566SOL     OW 6529  12.543   5.407   4.606
 1566SOL    HW1 6530  12.610   5.471   4.580
 1566SOL    HW2 6531  12.476   5.459   4.650
 1567SOL     OW 6532   0.197  12.383  14.506
 1567SOL    HW1 6533   0.174  12.464  14.460
 1567SOL    HW2 6534   0.147  12.315  14.460
 1568SOL     OW 6535   5.479   0.526   8.619
 1568SOL    HW1 6536   5.392   0.488   8.605
 1568SOL    HW2 6537   5.471   0.616   8.588
 1569SOL     OW 6538   4.336  11.743   5.824
 1569SOL    HW1 6539   4.336  11.835   5.798
 1569SOL    HW2 6540   4.420  11.709   5.792
 1570SOL     OW 6541   6.832  13.425  12.675
 1570SOL    HW1 6542   6.899  13.357  12.688
 1570SOL    HW2 6543   6.878  13.507  12.691
 1571SOL     OW 6544   5.055  11.330  11.249
 1571SOL    HW1 6545   5.008  11.294  11.173
 1571SOL    HW2 6546   5.020  11.419  11.258
 1572SOL     OW 6547  11.015   7.422   3.557
 1572SOL    HW1 6548  10.984   7.507   3.588
 1572SOL    HW2 6549  11.034   7.435   3.464
 1573SOL     OW 6550   5.681   7.250  11.414
 1573SOL    HW1 6551   5.638   7.179  11.463
 1573SOL    HW2 6552   5.608   7.304  11.382
 1574SOL     OW 6553  13.395  11.313  11.675
 1574SOL    HW1 6554  13.416  11.293  11.584
 1574SOL    HW2 6555  13.385  11.228  11.717
 1575SOL     OW 6556   8.641   9.300   8.297
 1575SOL    HW1 6557   8.552   9.333   8.311
 1575SOL    HW2 6558   8.697   9.376   8.306
 1576SOL     OW 6559   8.595   4.029  13.868
 1576SOL    HW1 6560   8.594   3.934  13.853
 1576SOL    HW2 6561   8.657   4.041  13.939
 1577SOL     OW 6562  14.620   5.685   2.001
 1577SOL    HW1 6563  14.591   5.622   1.935
 1577SOL    HW2 6564  14.706   5.653   2.029
 1578SOL     OW 6565   4.022  12.882   2.844
 1578SOL    HW1 6566   4.077  12.960   2.841
 1578SOL    HW2 6567   3.963  12.897   2.918
 1579SOL     OW 6568   7.788   1.286   7.370
 1579SOL    HW1 6569   7.867   1.327   7.406
 1579SOL    HW2 6570   7.816   1.198   7.345
 1580SOL     OW 6571   0.656  10.778  14.663
 1580SOL    HW1 6572   0.719  10.849  14.676
 1580SOL    HW2 6573   0.584  10.818  14.615
 1581SOL     OW 6574   0.802  12.933   8.572
 1581SOL    HW1 6575   0.836  12.873   8.638
 1581SOL    HW2 6576   0.771  12.875   8.502
 1582SOL     OW 6577   3.703   7.836   7.840
 1582SOL    HW1 6578   3.733   7.841   7.931
 1582SOL    HW2 6579   3.783   7.849   7.788
 1583SOL     OW 6580   3.825   4.954  11.611
 1583SOL    HW1 6581   3.920   4.961  11.597
 1583SOL    HW2 6582   3.803   4.866  11.583
 1584SOL     OW 6583  12.015   7.058  12.190
 1584SOL    HW1 6584  12.052   7.134  12.145
 1584SOL    HW2 6585  12.069   6.985  12.162
 1585SOL     OW 6586  13.292  12.779   0.840
 1585SOL    HW1 6587  13.287  12.742   0.928
 1585SOL    HW2 6588  13.230  12.852   0.840
 1586SOL     OW 6589  12.531   5.671   3.485
 1586SOL    HW1 6590  12.454   5.673   3.543
 1586SOL    HW2 6591  12.573   5.756   3.499
 1587SOL     OW 6592   2.636  10.784  11.259
 1587SOL    HW1 6593   2.699  10.833  11.206
 1587SOL    HW2 6594   2.567  10.760  11.198
 1588SOL     OW 6595   0.627   0.923   5.440
 1588SOL    HW1 6596   0.665   0.861   5.502
 1588SOL    HW2 6597   0.614   0.873   5.359
 1589SOL     OW 6598   3.954   4.095   7.372
 1589SOL    HW1 6599   3.889   4.087   7.302
 1589SOL    HW2 6600   3.958   4.008   7.411
 1590SOL     OW 6601  10.096   1.580   6.015
 1590SOL    HW1 6602  10.189   1.566   6.032
 1590SOL    HW2 6603  10.053   1.567   6.099
 1591SOL     OW 6604   1.580   8.940   1.491
 1591SOL    HW1 6605   1.515   8.875   1.465
 1591SOL    HW2 6606   1.664   8.896   1.481
 1592SOL     OW 6607  11.258   0.325  11.139
 1592SOL    HW1 6608  11.227   0.408  11.175
 1592SOL    HW2 6609  11.186   0.292  11.086
 1593SOL     OW 6610   2.658   0.436   0.281
 1593SOL    HW1 6611   2.686   0.524   0.256
 1593SOL    HW2 6612   2.563   0.442   0.292
 1594SOL     OW 6613   4.251  11.557  10.650
 1594SOL    HW1 6614   4.330  11.610  10.641
 1594SOL    HW2 6615   4.216  11.551  10.561
 1595SOL     OW 6616   8.440   7.124   4.753
 1595SOL    HW1 6617   8.454   7.041   4.708
 1595SOL    HW2 6618   8.510   7.180   4.721
 1596SOL     OW 6619  10.276   9.000  13.027
 1596SOL    HW1 6620  10.303   8.955  13.108
 1596SOL    HW2 6621  10.181   8.986  13.023
 1597SOL     OW 6622  10.054  11.191   3.146
 1597SOL    HW1 6623  10.055  11.192   3.242
 1597SOL    HW2 6624  10.130  11.245   3.121
 1598SOL     OW 6625   4.905   5.724   4.302
 1598SOL    HW1 6626   4.994   5.690   4.306
 1598SOL    HW2 6627   4.853   5.663   4.355
 1599SOL     OW 6628   8.279   8.255   7.832
 1599SOL    HW1 6629   8.190   8.260   7.866
 1599SOL    HW2 6630   8.270   8.268   7.738
 1600SOL     OW 6631   9.430   6.582   5.154
 1600SOL    HW1 6632   9.339   6.553   5.141
 1600SOL    HW2 6633   9.442   6.652   5.091
 1601SOL     OW 6634  10.057   2.125  11.521
 1601SOL    HW1 6635  10.033   2.216  11.542
 1601SOL    HW2 6636  10.106   2.096  11.598
 1602SOL     OW 6637   2.772  10.156   5.716
 1602SOL    HW1 6638   2.856  10.126   5.751
 1602SOL    HW2 6639   2.737  10.214   5.783
 1603SOL     OW 6640   4.324   0.739   7.390
 1603SOL    HW1 6641   4.356   0.790   7.315
 1603SOL    HW2 6642   4.304   0.653   7.353
 1604SOL     OW 6643  11.013  13.481  10.144
 1604SOL    HW1 6644  11.106  13.491  10.125
 1604SOL    HW2 6645  11.001  13.386  10.153
 1605SOL     OW 6646   7.464   5.152  12.501
 1605SOL    HW1 6647   7.414   5.086  12.549
 1605SOL    HW2 6648   7.555   5.135  12.524
 1606SOL     OW 6649  14.853  14.677  12.689
 1606SOL    HW1 6650  14.844  14.749  12.751
 1606SOL    HW2 6651  14.769  14.673  12.644
 1607SOL     OW 6652  11.026  14.057   4.600
 1607SOL    HW1 6653  11.105  14.103   4.627
 1607SOL    HW2 6654  10.966  14.126   4.573
 1608SOL     OW 6655  12.724   2.202   1.309
 1608SOL    HW1 6656  12.777   2.269   1.266
 1608SOL    HW2 6657  12.786   2.133   1.332
 1609SOL     OW 6658  13.676   2.553   4.601
 1609SOL    HW1 6659  13.585   2.536   4.579
 1609SOL    HW2 6660  13.694   2.497   4.676
 1610SOL     OW 6661   0.354   6.582  11.938
 1610SOL    HW1 6662   0.397   6.520  11.997
 1610SOL    HW2 6663   0.261   6.557  11.941
 1611SOL     OW 6664   4.822   4.274  13.052
 1611SOL    HW1 6665   4.730   4.245  13.050
 1611SOL    HW2 6666   4.819   4.359  13.095
 1612SOL     OW 6667   6.488   1.098   4.787
 1612SOL    HW1 6668   6.453   1.122   4.701
 1612SOL    HW2 6669   6.470   1.005   4.795
 1613SOL     OW 6670   4.540   8.068   1.272
 1613SOL    HW1 6671   4.561   8.132   1.204
 1613SOL    HW2 6672   4.561   8.112   1.354
 1614SOL     OW 6673  12.640   4.971   1.846
 1614SOL    HW1 6674  12.582   5.031   1.798
 1614SOL    HW2 6675  12.717   4.962   1.789
 1615SOL     OW 6676  12.782   8.573   0.700
 1615SOL    HW1 6677  12.757   8.484   0.723
 1615SOL    HW2 6678  12.869   8.584   0.738
 1616SOL     OW 6679   2.741   1.609  11.531
 1616SOL    HW1 6680   2.747   1.518  11.503
 1616SOL    HW2 6681   2.832   1.639  11.535
 1617SOL     OW 6682   7.264   9.225   4.552
 1617SOL    HW1 6683   7.301   9.138   4.540
 1617SOL    HW2 6684   7.264   9.239   4.647
 1618SOL     OW 6685  14.600   0.327  11.748
 1618SOL    HW1 6686  14.551   0.374  11.815
 1618SOL    HW2 6687  14.678   0.381  11.734
 1619SOL     OW 6688  11.306   6.032   1.084
 1619SOL    HW1 6689  11.229   6.063   1.132
 1619SOL    HW2 6690  11.270   5.981   1.012
 1620SOL     OW 6691   8.583   8.191   1.845
 1620SOL    HW1 6692   8.676   8.185   1.870
 1620SOL    HW2 6693   8.536   8.150   1.918
 1621SOL     OW 6694   4.478   3.848   3.116
 1621SOL    HW1 6695   4.564   3.876   3.086
 1621SOL    HW2 6696   4.481   3.752   3.112
 1622SOL     OW 6697  11.493  11.176  10.650
 1622SOL    HW1 6698  11.435  11.194  10.576
 1622SOL    HW2 6699  11.580  11.199  10.618
 1623SOL     OW 6700  11.456   7.491  12.182
 1623SOL    HW1 6701  11.413   7.441  12.252
 1623SOL    HW2 6702  11.387   7.544  12.144
 1624SOL     OW 6703  12.136  10.305   1.528
 1624SOL    HW1 6704  12.099  10.219   1.543
 1624SOL    HW2 6705  12.095  10.336   1.447
 1625SOL     OW 6706   2.236   9.755  13.902
 1625SOL    HW1 6707   2.182   9.758  13.823
 1625SOL    HW2 6708   2.203   9.828  13.956
 1626SOL     OW 6709  14.812   0.040   6.677
 1626SOL    HW1 6710   0.031   0.020   6.694
 1626SOL    HW2 6711  14.814   0.101   6.603
 1627SOL     OW 6712  13.024  10.720  10.686
 1627SOL    HW1 6713  13.077  10.659  10.634
 1627SOL    HW2 6714  12.934  10.701  10.661
 1628SOL     OW 6715   0.301   8.696   4.255
 1628SOL    HW1 6716   0.285   8.603   4.237
 1628SOL    HW2 6717   0.215   8.737   4.246
 1629SOL     OW 6718  14.295   0.762   6.274
 1629SOL    HW1 6719  14.213   0.736   6.232
 1629SOL    HW2 6720  14.267   0.810   6.352
 1630SOL     OW 6721  11.570   5.064   5.305
 1630SOL    HW1 6722  11.656   5.035   5.276
 1630SOL    HW2 6723  11.534   5.112   5.230
 1631SOL     OW 6724   5.880   0.492   6.397
 1631SOL    HW1 6725   5.868   0.544   6.476
 1631SOL    HW2 6726   5.959   0.440   6.413
 1632SOL     OW 6727  14.748  10.250  12.779
 1632SOL    HW1 6728  14.814  10.284  12.839
 1632SOL    HW2 6729  14.770  10.291  12.695
 1633SOL     OW 6730   2.519   5.545   6.489
 1633SOL    HW1 6731   2.551   5.632   6.513
 1633SOL    HW2 6732   2.574   5.519   6.415
 1634SOL     OW 6733   5.483   2.433   3.174
 1634SOL    HW1 6734   5.553   2.493   3.197
 1634SOL    HW2 6735   5.407   2.489   3.159
 1635SOL     OW 6736  10.850  11.424  12.409
 1635SOL    HW1 6737  10.861  11.438  12.503
 1635SOL    HW2 6738  10.761  11.390  12.400
 1636SOL     OW 6739   9.948  12.478   8.867
 1636SOL    HW1 6740   9.995  12.467   8.784
 1636SOL    HW2 6741   9.976  12.403   8.920
 1637SOL     OW 6742   0.862  10.616   0.334
 1637SOL    HW1 6743   0.952  10.588   0.317
 1637SOL    HW2 6744   0.823  10.625   0.247
 1638SOL     OW 6745   6.185   6.177  11.837
 1638SOL    HW1 6746   6.128   6.163  11.762
 1638SOL    HW2 6747   6.247   6.104  11.835
 1639SOL     OW 6748   5.318   8.316   6.223
 1639SOL    HW1 6749   5.401   8.275   6.199
 1639SOL    HW2 6750   5.252   8.263   6.177
 1640SOL     OW 6751   7.324   7.203  13.024
 1640SOL    HW1 6752   7.368   7.226  13.107
 1640SOL    HW2 6753   7.330   7.108  13.020
 1641SOL     OW 6754   1.493   4.525  11.311
 1641SOL    HW1 6755   1.426   4.458  11.323
 1641SOL    HW2 6756   1.450   4.606  11.339
 1642SOL     OW 6757   1.069   8.969   8.143
 1642SOL    HW1 6758   1.152   8.954   8.097
 1642SOL    HW2 6759   1.002   8.948   8.079
 1643SOL     OW 6760   5.042   4.903   2.936
 1643SOL    HW1 6761   5.016   4.813   2.915
 1643SOL    HW2 6762   5.014   4.954   2.860
 1644SOL     OW 6763   1.405   8.328  13.890
 1644SOL    HW1 6764   1.490   8.368  13.873
 1644SOL    HW2 6765   1.426   8.238  13.916
 1645SOL     OW 6766   4.880   8.906  11.054
 1645SOL    HW1 6767   4.918   8.820  11.036
 1645SOL    HW2 6768   4.856   8.939  10.968
 1646SOL     OW 6769   5.431   5.590  13.565
 1646SOL    HW1 6770   5.450   5.497  13.579
 1646SOL    HW2 6771   5.409   5.623  13.652
 1647SOL     OW 6772   5.841   1.724   7.919
 1647SOL    HW1 6773   5.817   1.633   7.902
 1647SOL    HW2 6774   5.763   1.774   7.897
 1648SOL     OW 6775  10.615  12.972   1.153
 1648SOL    HW1 6776  10.549  13.023   1.106
 1648SOL    HW2 6777  10.580  12.883   1.154
 1649SOL     OW 6778   6.003   7.228   1.322
 1649SOL    HW1 6779   5.992   7.237   1.417
 1649SOL    HW2 6780   5.978   7.313   1.286
 1650SOL     OW 6781   4.393   4.983   4.405
 1650SOL    HW1 6782   4.329   4.936   4.351
 1650SOL    HW2 6783   4.403   5.068   4.362
 1651SOL     OW 6784   7.137   1.626   1.533
 1651SOL    HW1 6785   7.084   1.566   1.482
 1651SOL    HW2 6786   7.083   1.704   1.543
 1652SOL     OW 6787   1.798  12.869  12.872
 1652SOL    HW1 6788   1.879  12.920  12.882
 1652SOL    HW2 6789   1.732  12.932  12.845
 1653SOL     OW 6790  12.352   6.003   9.537
 1653SOL    HW1 6791  12.258   6.021   9.530
 1653SOL    HW2 6792  12.381   5.995   9.446
 1654SOL     OW 6793   1.347   8.957  11.927
 1654SOL    HW1 6794   1.253   8.951  11.940
 1654SOL    HW2 6795   1.384   8.951  12.015
 1655SOL     OW 6796  12.794  12.024   8.598
 1655SOL    HW1 6797  12.879  12.021   8.641
 1655SOL    HW2 6798  12.735  11.981   8.660
 1656SOL     OW 6799   0.576   8.536   0.354
 1656SOL    HW1 6800   0.593   8.574   0.440
 1656SOL    HW2 6801   0.662   8.532   0.312
 1657SOL     OW 6802   1.338  10.361   6.979
 1657SOL    HW1 6803   1.315  10.275   7.014
 1657SOL    HW2 6804   1.260  10.390   6.933
 1658SOL     OW 6805   5.877   6.001  12.876
 1658SOL    HW1 6806   5.915   6.062  12.812
 1658SOL    HW2 6807   5.807   6.051  12.917
 1659SOL     OW 6808  14.801   0.836   5.811
 1659SOL    HW1 6809  14.731   0.772   5.823
 1659SOL    HW2 6810  14.817   0.836   5.717
 1660SOL     OW 6811   9.475   9.109   9.685
 1660SOL    HW1 6812   9.512   9.175   9.627
 1660SOL    HW2 6813   9.400   9.074   9.636
 1661SOL     OW 6814  14.173  11.941  11.699
 1661SOL    HW1 6815  14.183  11.884  11.623
 1661SOL    HW2 6816  14.103  11.901  11.750
 1662SOL     OW 6817   9.737  14.350  12.554
 1662SOL    HW1 6818   9.778  14.264  12.544
 1662SOL    HW2 6819   9.645  14.330  12.572
 1663SOL     OW 6820   6.014   7.809   6.344
 1663SOL    HW1 6821   5.928   7.800   6.384
 1663SOL    HW2 6822   6.007   7.762   6.260
 1664SOL     OW 6823  11.320   8.111   2.054
 1664SOL    HW1 6824  11.326   8.065   2.137
 1664SOL    HW2 6825  11.335   8.203   2.076
 1665SOL     OW 6826   6.859   1.095   3.274
 1665SOL    HW1 6827   6.765   1.083   3.267
 1665SOL    HW2 6828   6.892   1.082   3.185
 1666SOL     OW 6829   0.773  14.240   1.600
 1666SOL    HW1 6830   0.725  14.304   1.652
 1666SOL    HW2 6831   0.797  14.286   1.520
 1667SOL     OW 6832   2.799   2.286   2.269
 1667SOL    HW1 6833   2.837   2.282   2.182
 1667SOL    HW2 6834   2.860   2.339   2.320
 1668SOL     OW 6835  11.518   2.990   4.272
 1668SOL    HW1 6836  11.555   2.972   4.359
 1668SOL    HW2 6837  11.580   2.950   4.211
 1669SOL     OW 6838   6.712  11.132   8.389
 1669SOL    HW1 6839   6.717  11.200   8.456
 1669SOL    HW2 6840   6.643  11.074   8.418
 1670SOL     OW 6841  12.934  13.688   3.288
 1670SOL    HW1 6842  12.914  13.675   3.196
 1670SOL    HW2 6843  12.908  13.606   3.331
 1671SOL     OW 6844  10.748   8.107   1.546
 1671SOL    HW1 6845  10.756   8.151   1.462
 1671SOL    HW2 6846  10.712   8.174   1.604
 1672SOL     OW 6847   7.688  14.860  10.954
 1672SOL    HW1 6848   7.598  14.861  10.987
 1672SOL    HW2 6849   7.702   0.076  10.918
 1673SOL     OW 6850  10.988   0.018   2.225
 1673SOL    HW1 6851  10.922  14.851   2.168
 1673SOL    HW2 6852  10.950   0.102   2.252
 1674SOL     OW 6853   6.717   6.092  10.540
 1674SOL    HW1 6854   6.653   6.055  10.480
 1674SOL    HW2 6855   6.762   6.159  10.489
 1675SOL     OW 6856   9.096   8.620  13.289
 1675SOL    HW1 6857   9.141   8.704  13.284
 1675SOL    HW2 6858   9.084   8.605  13.383
 1676SOL     OW 6859   2.022   7.651   5.152
 1676SOL    HW1 6860   2.036   7.692   5.237
 1676SOL    HW2 6861   2.066   7.567   5.158
 1677SOL     OW 6862   9.549  11.494   4.144
 1677SOL    HW1 6863   9.601  11.535   4.214
 1677SOL    HW2 6864   9.609  11.431   4.104
 1678SOL     OW 6865  14.870   9.890  11.293
 1678SOL    HW1 6866   0.084   9.871  11.256
 1678SOL    HW2 6867  14.809   9.838  11.240
 1679SOL     OW 6868  12.595  14.643   2.130
 1679SOL    HW1 6869  12.609  14.680   2.217
 1679SOL    HW2 6870  12.637  14.557   2.132
 1680SOL     OW 6871   6.313   4.020  13.168
 1680SOL    HW1 6872   6.235   4.037  13.221
 1680SOL    HW2 6873   6.326   3.925  13.176
 1681SOL     OW 6874   1.538  10.048  12.205
 1681SOL    HW1 6875   1.596  10.035  12.281
 1681SOL    HW2 6876   1.567  10.131  12.167
 1682SOL     OW 6877  14.803   0.503  11.817
 1682SOL    HW1 6878   0.021   0.484  11.840
 1682SOL    HW2 6879  14.758   0.515  11.901
 1683SOL     OW 6880   2.245   5.488   4.657
 1683SOL    HW1 6881   2.277   5.426   4.592
 1683SOL    HW2 6882   2.318   5.497   4.719
 1684SOL     OW 6883  10.655   9.758  10.452
 1684SOL    HW1 6884  10.649   9.687  10.388
 1684SOL    HW2 6885  10.580   9.745  10.510
 1685SOL     OW 6886   3.529   5.969  11.551
 1685SOL    HW1 6887   3.611   5.922  11.539
 1685SOL    HW2 6888   3.514   5.968  11.646
 1686SOL     OW 6889  10.307   6.452   9.290
 1686SOL    HW1 6890  10.351   6.466   9.206
 1686SOL    HW2 6891  10.231   6.397   9.268
 1687SOL     OW 6892   5.638  13.650   1.622
 1687SOL    HW1 6893   5.661  13.609   1.705
 1687SOL    HW2 6894   5.588  13.728   1.646
 1688SOL     OW 6895   1.269   7.721   3.636
 1688SOL    HW1 6896   1.260   7.747   3.728
 1688SOL    HW2 6897   1.226   7.635   3.631
 1689SOL     OW 6898  12.557   5.559  10.951
 1689SOL    HW1 6899  12.534   5.574  10.859
 1689SOL    HW2 6900  12.547   5.465  10.963
 1690SOL     OW 6901   4.211  11.567  13.660
 1690SOL    HW1 6902   4.279  11.541  13.723
 1690SOL    HW2 6903   4.242  11.533  13.576
 1691SOL     OW 6904  13.669   3.444   8.901
 1691SOL    HW1 6905  13.727   3.414   8.831
 1691SOL    HW2 6906  13.616   3.512   8.861
 1692SOL     OW 6907   9.112   1.190  12.886
 1692SOL    HW1 6908   9.035   1.179  12.942
 1692SOL    HW2 6909   9.141   1.279  12.902
 1693SOL     OW 6910   4.565  12.197   0.618
 1693SOL    HW1 6911   4.512  12.269   0.584
 1693SOL    HW2 6912   4.503  12.126   0.632
 1694SOL     OW 6913  14.188   5.713   3.425
 1694SOL    HW1 6914  14.237   5.794   3.439
 1694SOL    HW2 6915  14.123   5.712   3.496
 1695SOL     OW 6916  10.105   9.323   4.424
 1695SOL    HW1 6917  10.063   9.292   4.343
 1695SOL    HW2 6918  10.128   9.243   4.471
 1696SOL     OW 6919   2.445   7.098   2.733
 1696SOL    HW1 6920   2.372   7.156   2.713
 1696SOL    HW2 6921   2.498   7.097   2.653
 1697SOL     OW 6922  11.309  10.152   9.797
 1697SOL    HW1 6923  11.322  10.099   9.876
 1697SOL    HW2 6924  11.380  10.217   9.800
 1698SOL     OW 6925   3.865   4.425   9.227
 1698SOL    HW1 6926   3.813   4.503   9.249
 1698SOL    HW2 6927   3.880   4.382   9.311
 1699SOL     OW 6928   4.030  10.318  14.250
 1699SOL    HW1 6929   4.017  10.224  14.237
 1699SOL    HW2 6930   3.987  10.359  14.175
 1700SOL     OW 6931   0.872   9.467  13.897
 1700SOL    HW1 6932   0.883   9.538  13.834
 1700SOL    HW2 6933   0.780   9.471  13.921
 1701SOL     OW 6934   4.878   3.227   6.398
 1701SOL    HW1 6935   4.789   3.213   6.364
 1701SOL    HW2 6936   4.895   3.320   6.383
 1702SOL     OW 6937   7.618   4.299   1.793
 1702SOL    HW1 6938   7.592   4.380   1.749
 1702SOL    HW2 6939   7.538   4.269   1.836
 1703SOL     OW 6940   3.790  11.853   0.875
 1703SOL    HW1 6941   3.717  11.904   0.908
 1703SOL    HW2 6942   3.768  11.762   0.895
 1704SOL     OW 6943   6.172  10.203  12.587
 1704SOL    HW1 6944   6.142  10.164  12.669
 1704SOL    HW2 6945   6.187  10.295  12.609
 1705SOL     OW 6946   6.826   9.882   2.652
 1705SOL    HW1 6947   6.731   9.895   2.658
 1705SOL    HW2 6948   6.845   9.886   2.559
 1706SOL     OW 6949   9.708   6.139   6.483
 1706SOL    HW1 6950   9.619   6.140   6.448
 1706SOL    HW2 6951   9.723   6.048   6.508
 1707SOL     OW 6952   0.522   1.233   1.879
 1707SOL    HW1 6953   0.499   1.260   1.790
 1707SOL    HW2 6954   0.610   1.195   1.870
 1708SOL     OW 6955  10.478  14.274   9.248
 1708SOL    HW1 6956  10.495  14.180   9.235
 1708SOL    HW2 6957  10.396  14.290   9.200
 1709SOL     OW 6958  12.769  11.084   5.627
 1709SOL    HW1 6959  12.714  11.159   5.650
 1709SOL    HW2 6960  12.775  11.033   5.707
 1710SOL     OW 6961   8.618  12.769   3.337
 1710SOL    HW1 6962   8.645  12.803   3.422
 1710SOL    HW2 6963   8.669  12.689   3.326
 1711SOL     OW 6964   8.871   5.977   9.293
 1711SOL    HW1 6965   8.944   6.036   9.310
 1711SOL    HW2 6966   8.890   5.900   9.346
 1712SOL     OW 6967   7.384   8.779   1.330
 1712SOL    HW1 6968   7.459   8.815   1.282
 1712SOL    HW2 6969   7.396   8.684   1.325
 1713SOL     OW 6970   8.300  10.788   3.321
 1713SOL    HW1 6971   8.251  10.843   3.259
 1713SOL    HW2 6972   8.362  10.848   3.362
 1714SOL     OW 6973   4.958  11.601   7.752
 1714SOL    HW1 6974   4.888  11.625   7.691
 1714SOL    HW2 6975   4.976  11.509   7.732
 1715SOL     OW 6976   2.666   8.802   6.902
 1715SOL    HW1 6977   2.745   8.758   6.871
 1715SOL    HW2 6978   2.695   8.890   6.928
 1716SOL     OW 6979   1.864   7.899   2.188
 1716SOL    HW1 6980   1.846   7.947   2.269
 1716SOL    HW2 6981   1.951   7.928   2.161
 1717SOL     OW 6982   3.602   2.310   4.946
 1717SOL    HW1 6983   3.654   2.235   4.972
 1717SOL    HW2 6984   3.514   2.292   4.981
 1718SOL     OW 6985   1.883  13.475  10.877
 1718SOL    HW1 6986   1.889  13.571  10.876
 1718SOL    HW2 6987   1.853  13.454  10.965
 1719SOL     OW 6988  14.691   5.338  12.797
 1719SOL    HW1 6989  14.676   5.247  12.774
 1719SOL    HW2 6990  14.777   5.359  12.762
 1720SOL     OW 6991   0.909  12.386   7.969
 1720SOL    HW1 6992   0.866  12.470   7.988
 1720SOL    HW2 6993   0.837  12.328   7.946
 1721SOL     OW 6994   3.156  11.850  13.755
 1721SOL    HW1 6995   3.104  11.808  13.823
 1721SOL    HW2 6996   3.158  11.943  13.779
 1722SOL     OW 6997   1.231   0.362   1.221
 1722SOL    HW1 6998   1.217   0.274   1.255
 1722SOL    HW2 6999   1.284   0.405   1.288
 1723SOL     OW 7000   9.319   7.604  13.322
 1723SOL    HW1 7001   9.373   7.533  13.288
 1723SOL    HW2 7002   9.298   7.578  13.412
 1724SOL     OW 7003  10.708   6.077   1.849
 1724SOL    HW1 7004  10.621   6.081   1.809
 1724SOL    HW2 7005  10.711   5.990   1.889
 1725SOL     OW 7006   6.640  11.676   7.756
 1725SOL    HW1 7007   6.615  11.584   7.748
 1725SOL    HW2 7008   6.568  11.716   7.804
 1726SOL     OW 7009  14.863   3.832  12.944
 1726SOL    HW1 7010   0.058   3.782  12.991
 1726SOL    HW2 7011   0.002   3.806  12.853
 1727SOL     OW 7012  11.706   8.184   0.796
 1727SOL    HW1 7013  11.745   8.207   0.880
 1727SOL    HW2 7014  11.619   8.152   0.818
 1728SOL     OW 7015   0.073   4.411  12.333
 1728SOL    HW1 7016   0.150   4.454  12.370
 1728SOL    HW2 7017   0.036   4.475  12.272
 1729SOL     OW 7018   9.696  13.184  14.340
 1729SOL    HW1 7019   9.605  13.212  14.353
 1729SOL    HW2 7020   9.737  13.258  14.295
 1730SOL     OW 7021   6.295   9.997  13.831
 1730SOL    HW1 7022   6.293   9.913  13.876
 1730SOL    HW2 7023   6.307   9.975  13.738
 1731SOL     OW 7024   3.706  14.740   1.293
 1731SOL    HW1 7025   3.728  14.698   1.376
 1731SOL    HW2 7026   3.784  14.792   1.271
 1732SOL     OW 7027  12.078   5.791  11.073
 1732SOL    HW1 7028  12.014   5.742  11.022
 1732SOL    HW2 7029  12.154   5.797  11.015
 1733SOL     OW 7030  11.928  12.120   0.318
 1733SOL    HW1 7031  11.833  12.133   0.312
 1733SOL    HW2 7032  11.951  12.070   0.240
 1734SOL     OW 7033   9.748  12.867   0.164
 1734SOL    HW1 7034   9.712  12.947   0.202
 1734SOL    HW2 7035   9.843  12.878   0.170
 1735SOL     OW 7036  10.276   2.988   8.841
 1735SOL    HW1 7037  10.370   2.987   8.861
 1735SOL    HW2 7038  10.237   3.038   8.913
 1736SOL     OW 7039  12.332   0.974   2.303
 1736SOL    HW1 7040  12.312   0.897   2.250
 1736SOL    HW2 7041  12.280   1.044   2.263
 1737SOL     OW 7042   4.760   6.734   8.077
 1737SOL    HW1 7043   4.789   6.698   8.161
 1737SOL    HW2 7044   4.818   6.693   8.012
 1738SOL     OW 7045  13.976   2.625  10.993
 1738SOL    HW1 7046  13.886   2.657  10.981
 1738SOL    HW2 7047  13.988   2.624  11.088
 1739SOL     OW 7048   2.342   4.963   8.593
 1739SOL    HW1 7049   2.437   4.953   8.600
 1739SOL    HW2 7050   2.318   4.913   8.515
 1740SOL     OW 7051   8.172   8.793   4.602
 1740SOL    HW1 7052   8.209   8.814   4.517
 1740SOL    HW2 7053   8.232   8.833   4.665
 1741SOL     OW 7054   4.932   5.079  11.430
 1741SOL    HW1 7055   4.935   5.079  11.526
 1741SOL    HW2 7056   4.995   5.012  11.405
 1742SOL     OW 7057  12.530   6.579   3.307
 1742SOL    HW1 7058  12.623   6.566   3.288
 1742SOL    HW2 7059  12.499   6.636   3.236
 1743SOL     OW 7060   4.443   2.462  14.771
 1743SOL    HW1 7061   4.399   2.398  14.716
 1743SOL    HW2 7062   4.535   2.457  14.745
 1744SOL     OW 7063   6.606   0.094   2.520
 1744SOL    HW1 7064   6.585   0.120   2.609
 1744SOL    HW2 7065   6.699   0.071   2.523
 1745SOL     OW 7066   9.745   6.210   4.435
 1745SOL    HW1 7067   9.699   6.132   4.403
 1745SOL    HW2 7068   9.803   6.234   4.362
 1746SOL     OW 7069   8.252   7.593  14.210
 1746SOL    HW1 7070   8.229   7.617  14.120
 1746SOL    HW2 7071   8.315   7.522  14.201
 1747SOL     OW 7072  12.364   5.075   9.690
 1747SOL    HW1 7073  12.372   4.984   9.719
 1747SOL    HW2 7074  12.272   5.084   9.664
 1748SOL     OW 7075  12.664   9.555   4.586
 1748SOL    HW1 7076  12.719   9.618   4.539
 1748SOL    HW2 7077  12.712   9.472   4.580
 1749SOL     OW 7078   4.507   6.312   8.854
 1749SOL    HW1 7079   4.517   6.362   8.936
 1749SOL    HW2 7080   4.433   6.354   8.810
 1750SOL     OW 7081  10.300  10.884   8.585
 1750SOL    HW1 7082  10.207  10.886   8.558
 1750SOL    HW2 7083  10.314  10.794   8.615
 1751SOL     OW 7084   0.836   1.985   4.555
 1751SOL    HW1 7085   0.808   1.904   4.514
 1751SOL    HW2 7086   0.758   2.040   4.558
 1752SOL     OW 7087   1.653   8.907   8.072
 1752SOL    HW1 7088   1.580   8.852   8.101
 1752SOL    HW2 7089   1.682   8.866   7.990
 1753SOL     OW 7090  13.572   6.077   7.528
 1753SOL    HW1 7091  13.640   6.143   7.511
 1753SOL    HW2 7092  13.615   6.013   7.584
 1754SOL     OW 7093   0.026  13.607  13.051
 1754SOL    HW1 7094  14.856  13.609  12.965
 1754SOL    HW2 7095   0.075  13.524  13.051
 1755SOL     OW 7096  10.963  11.538   7.054
 1755SOL    HW1 7097  10.916  11.527   6.971
 1755SOL    HW2 7098  10.894  11.553   7.119
 1756SOL     OW 7099  12.556   1.462   5.870
 1756SOL    HW1 7100  12.605   1.496   5.945
 1756SOL    HW2 7101  12.623   1.425   5.812
 1757SOL     OW 7102  12.461   5.817  14.381
 1757SOL    HW1 7103  12.485   5.906  14.356
 1757SOL    HW2 7104  12.401   5.788  14.313
 1758SOL     OW 7105   2.274  10.493   4.135
 1758SOL    HW1 7106   2.325  10.565   4.097
 1758SOL    HW2 7107   2.340  10.434   4.171
 1759SOL     OW 7108   8.612   5.581  13.790
 1759SOL    HW1 7109   8.648   5.582  13.702
 1759SOL    HW2 7110   8.548   5.652  13.791
 1760SOL     OW 7111  11.987   1.002   6.739
 1760SOL    HW1 7112  11.991   1.096   6.719
 1760SOL    HW2 7113  12.033   0.994   6.823
 1761SOL     OW 7114  13.640   5.175   4.432
 1761SOL    HW1 7115  13.604   5.250   4.384
 1761SOL    HW2 7116  13.731   5.198   4.449
 1762SOL     OW 7117   7.026   9.561  12.427
 1762SOL    HW1 7118   7.005   9.653  12.444
 1762SOL    HW2 7119   6.945   9.525  12.390
 1763SOL     OW 7120  11.572   7.965  14.768
 1763SOL    HW1 7121  11.557   8.059  14.765
 1763SOL    HW2 7122  11.624   7.946  14.690
 1764SOL     OW 7123   6.913   6.574   6.554
 1764SOL    HW1 7124   6.882   6.504   6.612
 1764SOL    HW2 7125   6.939   6.529   6.474
 1765SOL     OW 7126  12.342   0.588  13.381
 1765SOL    HW1 7127  12.340   0.667  13.327
 1765SOL    HW2 7128  12.352   0.620  13.471
 1766SOL     OW 7129   6.576  11.718   2.607
 1766SOL    HW1 7130   6.532  11.776   2.545
 1766SOL    HW2 7131   6.635  11.775   2.656
 1767SOL     OW 7132   1.154  13.470   7.056
 1767SOL    HW1 7133   1.213  13.540   7.025
 1767SOL    HW2 7134   1.195  13.438   7.136
 1768SOL     OW 7135   2.570   7.045  11.993
 1768SOL    HW1 7136   2.636   7.035  11.925
 1768SOL    HW2 7137   2.573   7.139  12.015
 1769SOL     OW 7138  14.788  12.401   4.689
 1769SOL    HW1 7139  14.746  12.322   4.655
 1769SOL    HW2 7140  14.717  12.449   4.731
 1770SOL     OW 7141  14.482  11.874   4.674
 1770SOL    HW1 7142  14.556  11.844   4.622
 1770SOL    HW2 7143  14.416  11.901   4.610
 1771SOL     OW 7144   8.051   3.646   3.226
 1771SOL    HW1 7145   7.995   3.679   3.156
 1771SOL    HW2 7146   8.038   3.706   3.299
 1772SOL     OW 7147   8.519   4.447   4.013
 1772SOL    HW1 7148   8.609   4.468   3.988
 1772SOL    HW2 7149   8.511   4.480   4.102
 1773SOL     OW 7150   7.157   5.538  10.096
 1773SOL    HW1 7151   7.151   5.591  10.176
 1773SOL    HW2 7152   7.249   5.545  10.070
 1774SOL     OW 7153   4.822   6.204  14.376
 1774SOL    HW1 7154   4.888   6.208  14.445
 1774SOL    HW2 7155   4.827   6.115  14.342
 1775SOL     OW 7156   9.314  13.666   0.609
 1775SOL    HW1 7157   9.291  13.652   0.700
 1775SOL    HW2 7158   9.230  13.669   0.563
 1776SOL     OW 7159   4.095  14.476  11.172
 1776SOL    HW1 7160   4.156  14.417  11.215
 1776SOL    HW2 7161   4.048  14.420  11.110
 1777SOL     OW 7162   0.552   5.628   3.904
 1777SOL    HW1 7163   0.457   5.623   3.895
 1777SOL    HW2 7164   0.567   5.626   3.999
 1778SOL     OW 7165   6.110  13.593  10.085
 1778SOL    HW1 7166   6.054  13.622  10.014
 1778SOL    HW2 7167   6.074  13.636  10.163
 1779SOL     OW 7168  11.931   5.752   6.807
 1779SOL    HW1 7169  11.919   5.770   6.900
 1779SOL    HW2 7170  11.871   5.679   6.789
 1780SOL     OW 7171   1.362   3.048   5.032
 1780SOL    HW1 7172   1.387   3.108   5.102
 1780SOL    HW2 7173   1.306   3.100   4.975
 1781SOL     OW 7174  10.252   4.273   4.521
 1781SOL    HW1 7175  10.278   4.262   4.613
 1781SOL    HW2 7176  10.157   4.283   4.524
 1782SOL     OW 7177  14.400   7.439  12.833
 1782SOL    HW1 7178  14.417   7.529  12.860
 1782SOL    HW2 7179  14.383   7.445  12.739
 1783SOL     OW 7180   1.695  10.355   9.315
 1783SOL    HW1 7181   1.676  10.440   9.277
 1783SOL    HW2 7182   1.617  10.303   9.298
 1784SOL     OW 7183   9.847  11.460  12.915
 1784SOL    HW1 7184   9.933  11.473  12.875
 1784SOL    HW2 7185   9.785  11.473  12.843
 1785SOL     OW 7186   8.323   4.666  14.167
 1785SOL    HW1 7187   8.241   4.644  14.122
 1785SOL    HW2 7188   8.387   4.605  14.131
 1786SOL     OW 7189  12.508  10.371   1.974
 1786SOL    HW1 7190  12.598  10.338   1.971
 1786SOL    HW2 7191  12.499  10.408   2.062
 1787SOL     OW 7192   4.181   5.553   4.457
 1787SOL    HW1 7193   4.111   5.600   4.411
 1787SOL    HW2 7194   4.218   5.495   4.390
 1788SOL     OW 7195  10.143   9.253   5.802
 1788SOL    HW1 7196  10.151   9.301   5.719
 1788SOL    HW2 7197  10.171   9.316   5.869
 1789SOL     OW 7198   6.494   5.607  13.848
 1789SOL    HW1 7199   6.400   5.624  13.859
 1789SOL    HW2 7200   6.500   5.512  13.841
 1790SOL     OW 7201   5.515   1.138  11.891
 1790SOL    HW1 7202   5.597   1.096  11.863
 1790SOL    HW2 7203   5.496   1.097  11.976
 1791SOL     OW 7204   8.763   2.805   6.245
 1791SOL    HW1 7205   8.820   2.757   6.185
 1791SOL    HW2 7206   8.728   2.877   6.193
 1792SOL     OW 7207  12.060  13.057   5.696
 1792SOL    HW1 7208  12.145  13.023   5.669
 1792SOL    HW2 7209  12.064  13.150   5.674
 1793SOL     OW 7210   0.773  13.942  14.629
 1793SOL    HW1 7211   0.799  13.877  14.694
 1793SOL    HW2 7212   0.724  13.893  14.563
 1794SOL     OW 7213   3.992   7.474   4.553
 1794SOL    HW1 7214   3.902   7.441   4.549
 1794SOL    HW2 7215   4.005   7.496   4.645
 1795SOL     OW 7216  11.358   8.006   2.735
 1795SOL    HW1 7217  11.372   8.069   2.665
 1795SOL    HW2 7218  11.443   7.964   2.748
 1796SOL     OW 7219   8.359   2.865   8.427
 1796SOL    HW1 7220   8.366   2.806   8.502
 1796SOL    HW2 7221   8.285   2.922   8.448
 1797SOL     OW 7222   3.178   1.540  14.673
 1797SOL    HW1 7223   3.180   1.635  14.661
 1797SOL    HW2 7224   3.268   1.517  14.695
 1798SOL     OW 7225   3.251   6.722   6.749
 1798SOL    HW1 7226   3.179   6.777   6.720
 1798SOL    HW2 7227   3.297   6.698   6.669
 1799SOL     OW 7228   7.034   6.016   1.694
 1799SOL    HW1 7229   6.990   6.101   1.694
 1799SOL    HW2 7230   7.090   6.018   1.772
 1800SOL     OW 7231   0.756   6.202   9.913
 1800SOL    HW1 7232   0.669   6.170   9.938
 1800SOL    HW2 7233   0.787   6.137   9.849
 1801SOL     OW 7234  14.038   0.437  12.636
 1801SOL    HW1 7235  14.009   0.363  12.583
 1801SOL    HW2 7236  13.988   0.511  12.603
 1802SOL     OW 7237   4.284   0.712   8.660
 1802SOL    HW1 7238   4.370   0.747   8.685
 1802SOL    HW2 7239   4.302   0.654   8.586
 1803SOL     OW 7240   7.452   3.862  12.580
 1803SOL    HW1 7241   7.409   3.801  12.640
 1803SOL    HW2 7242   7.456   3.944  12.629
 1804SOL     OW 7243   9.778   0.520   9.502
 1804SOL    HW1 7244   9.732   0.462   9.442
 1804SOL    HW2 7245   9.825   0.581   9.444
 1805SOL     OW 7246   9.589   3.292  14.790
 1805SOL    HW1 7247   9.627   3.206  14.773
 1805SOL    HW2 7248   9.498   3.284  14.762
 1806SOL     OW 7249   9.774   4.709   0.862
 1806SOL    HW1 7250   9.833   4.651   0.814
 1806SOL    HW2 7251   9.799   4.797   0.833
 1807SOL     OW 7252   4.115   8.404   2.276
 1807SOL    HW1 7253   4.131   8.492   2.245
 1807SOL    HW2 7254   4.054   8.415   2.350
 1808SOL     OW 7255  11.433   7.905   0.301
 1808SOL    HW1 7256  11.385   7.829   0.266
 1808SOL    HW2 7257  11.508   7.915   0.242
 1809SOL     OW 7258   9.406   9.411   3.252
 1809SOL    HW1 7259   9.415   9.433   3.344
 1809SOL    HW2 7260   9.378   9.492   3.210
 1810SOL     OW 7261   1.951  12.624   7.536
 1810SOL    HW1 7262   2.028  12.649   7.587
 1810SOL    HW2 7263   1.941  12.694   7.471
 1811SOL     OW 7264  11.921  10.609   9.058
 1811SOL    HW1 7265  11.962  10.626   9.143
 1811SOL    HW2 7266  11.834  10.647   9.065
 1812SOL     OW 7267   8.969  11.253  12.406
 1812SOL    HW1 7268   8.924  11.172  12.428
 1812SOL    HW2 7269   9.043  11.257  12.465
 1813SOL     OW 7270   7.989   1.067   8.291
 1813SOL    HW1 7271   8.081   1.088   8.308
 1813SOL    HW2 7272   7.962   1.014   8.366
 1814SOL     OW 7273   2.441   1.451   1.885
 1814SOL    HW1 7274   2.362   1.438   1.832
 1814SOL    HW2 7275   2.499   1.379   1.860
 1815SOL     OW 7276   9.008   9.592   0.882
 1815SOL    HW1 7277   8.986   9.637   0.800
 1815SOL    HW2 7278   8.927   9.593   0.932
 1816SOL     OW 7279  11.428  14.017   8.260
 1816SOL    HW1 7280  11.346  13.969   8.276
 1816SOL    HW2 7281  11.403  14.085   8.197
 1817SOL     OW 7282   1.521   5.648   8.237
 1817SOL    HW1 7283   1.487   5.560   8.223
 1817SOL    HW2 7284   1.491   5.697   8.160
 1818SOL     OW 7285   1.951   4.849   8.724
 1818SOL    HW1 7286   2.013   4.894   8.782
 1818SOL    HW2 7287   2.005   4.788   8.674
 1819SOL     OW 7288   5.118  13.553   4.738
 1819SOL    HW1 7289   5.140  13.499   4.662
 1819SOL    HW2 7290   5.166  13.635   4.724
 1820SOL     OW 7291  12.718  12.312   8.659
 1820SOL    HW1 7292  12.666  12.232   8.670
 1820SOL    HW2 7293  12.657  12.375   8.620
 1821SOL     OW 7294   6.232   5.028   8.244
 1821SOL    HW1 7295   6.296   5.064   8.306
 1821SOL    HW2 7296   6.184   5.105   8.213
 1822SOL     OW 7297  11.268   7.674  13.870
 1822SOL    HW1 7298  11.174   7.670  13.851
 1822SOL    HW2 7299  11.277   7.632  13.956
 1823SOL     OW 7300  12.619   3.041   5.273
 1823SOL    HW1 7301  12.703   3.012   5.238
 1823SOL    HW2 7302  12.596   2.975   5.338
 1824SOL     OW 7303   9.877  12.114  14.465
 1824SOL    HW1 7304   9.824  12.097  14.543
 1824SOL    HW2 7305   9.877  12.210  14.457
 1825SOL     OW 7306  11.457   4.344   5.881
 1825SOL    HW1 7307  11.425   4.432   5.899
 1825SOL    HW2 7308  11.377   4.293   5.864
 1826SOL     OW 7309  14.310   2.831  12.500
 1826SOL    HW1 7310  14.369   2.820  12.574
 1826SOL    HW2 7311  14.337   2.763  12.438
 1827SOL     OW 7312  10.437  12.657   8.246
 1827SOL    HW1 7313  10.411  12.705   8.324
 1827SOL    HW2 7314  10.359  12.658   8.190
 1828SOL     OW 7315   7.446   6.729   3.880
 1828SOL    HW1 7316   7.516   6.666   3.895
 1828SOL    HW2 7317   7.491   6.812   3.868
 1829SOL     OW 7318  13.912   4.138   5.831
 1829SOL    HW1 7319  13.935   4.146   5.923
 1829SOL    HW2 7320  13.990   4.099   5.790
 1830SOL     OW 7321   8.988   3.495   0.738
 1830SOL    HW1 7322   8.961   3.563   0.800
 1830SOL    HW2 7323   9.050   3.539   0.680
 1831SOL     OW 7324   4.149  14.189   7.459
 1831SOL    HW1 7325   4.107  14.133   7.525
 1831SOL    HW2 7326   4.100  14.172   7.378
 1832SOL     OW 7327   5.625   7.669   1.386
 1832SOL    HW1 7328   5.557   7.618   1.430
 1832SOL    HW2 7329   5.588   7.689   1.300
 1833SOL     OW 7330   1.141   3.005   2.595
 1833SOL    HW1 7331   1.230   3.030   2.623
 1833SOL    HW2 7332   1.085   3.033   2.667
 1834SOL     OW 7333   1.501   6.349   7.060
 1834SOL    HW1 7334   1.561   6.400   7.114
 1834SOL    HW2 7335   1.415   6.386   7.078
 1835SOL     OW 7336   5.860   0.805   0.819
 1835SOL    HW1 7337   5.909   0.878   0.779
 1835SOL    HW2 7338   5.770   0.819   0.789
 1836SOL     OW 7339   4.161   4.042   5.402
 1836SOL    HW1 7340   4.160   4.096   5.480
 1836SOL    HW2 7341   4.207   4.094   5.336
 1837SOL     OW 7342   4.498   2.076   2.107
 1837SOL    HW1 7343   4.525   1.986   2.124
 1837SOL    HW2 7344   4.575   2.117   2.068
 1838SOL     OW 7345   5.905   6.273   8.281
 1838SOL    HW1 7346   5.950   6.353   8.255
 1838SOL    HW2 7347   5.944   6.250   8.366
 1839SOL     OW 7348   2.412   2.117   6.044
 1839SOL    HW1 7349   2.457   2.162   5.972
 1839SOL    HW2 7350   2.319   2.125   6.023
 1840SOL     OW 7351   3.332   7.368  13.787
 1840SOL    HW1 7352   3.309   7.338  13.875
 1840SOL    HW2 7353   3.418   7.330  13.771
 1841SOL     OW 7354   0.535   1.322  13.293
 1841SOL    HW1 7355   0.597   1.330  13.221
 1841SOL    HW2 7356   0.572   1.378  13.362
 1842SOL     OW 7357   1.146   0.164   3.484
 1842SOL    HW1 7358   1.088   0.140   3.557
 1842SOL    HW2 7359   1.152   0.084   3.432
 1843SOL     OW 7360   4.763   9.068  12.835
 1843SOL    HW1 7361   4.819   8.990  12.830
 1843SOL    HW2 7362   4.810   9.134  12.785
 1844SOL     OW 7363   3.687  11.620   8.075
 1844SOL    HW1 7364   3.724  11.550   8.021
 1844SOL    HW2 7365   3.593  11.616   8.058
 1845SOL     OW 7366  13.736  10.107   5.941
 1845SOL    HW1 7367  13.786  10.062   6.009
 1845SOL    HW2 7368  13.656  10.136   5.985
 1846SOL     OW 7369   9.709   0.738   5.497
 1846SOL    HW1 7370   9.789   0.722   5.447
 1846SOL    HW2 7371   9.694   0.832   5.487
 1847SOL     OW 7372   0.149   9.827   3.399
 1847SOL    HW1 7373   0.062   9.867   3.403
 1847SOL    HW2 7374   0.141   9.745   3.447
 1848SOL     OW 7375  13.813  12.801  10.776
 1848SOL    HW1 7376  13.776  12.766  10.857
 1848SOL    HW2 7377  13.811  12.728  10.714
 1849SOL     OW 7378   9.743   4.411   3.837
 1849SOL    HW1 7379   9.746   4.501   3.807
 1849SOL    HW2 7380   9.830   4.394   3.873
 1850SOL     OW 7381   4.067   1.966   1.268
 1850SOL    HW1 7382   4.017   1.906   1.212
 1850SOL    HW2 7383   4.026   2.052   1.253
 1851SOL     OW 7384   5.065  13.758   4.302
 1851SOL    HW1 7385   4.992  13.738   4.361
 1851SOL    HW2 7386   5.094  13.845   4.329
 1852SOL     OW 7387  12.928   2.567  14.288
 1852SOL    HW1 7388  13.023   2.575  14.291
 1852SOL    HW2 7389  12.897   2.611  14.367
 1853SOL     OW 7390   1.482   5.191  11.461
 1853SOL    HW1 7391   1.498   5.130  11.533
 1853SOL    HW2 7392   1.533   5.157  11.388
 1854SOL     OW 7393   1.855  14.238  10.648
 1854SOL    HW1 7394   1.824  14.306  10.588
 1854SOL    HW2 7395   1.791  14.168  10.640
 1855SOL     OW 7396   5.998   8.645   7.085
 1855SOL    HW1 7397   5.924   8.690   7.125
 1855SOL    HW2 7398   6.050   8.716   7.045
 1856SOL     OW 7399  10.138   7.393   0.888
 1856SOL    HW1 7400  10.052   7.432   0.903
 1856SOL    HW2 7401  10.121   7.319   0.829
 1857SOL     OW 7402   1.079  12.057  12.908
 1857SOL    HW1 7403   1.133  11.978  12.904
 1857SOL    HW2 7404   1.032  12.057  12.824
 1858SOL     OW 7405  12.998   9.982   8.071
 1858SOL    HW1 7406  12.969   9.899   8.033
 1858SOL    HW2 7407  12.929  10.045   8.047
 1859SOL     OW 7408   9.112   2.143  10.223
 1859SOL    HW1 7409   9.147   2.142  10.133
 1859SOL    HW2 7410   9.018   2.130  10.212
 1860SOL     OW 7411  14.167  10.850  10.763
 1860SOL    HW1 7412  14.262  10.852  10.773
 1860SOL    HW2 7413  14.143  10.942  10.751
 1861SOL     OW 7414  13.397  11.876  14.308
 1861SOL    HW1 7415  13.339  11.810  14.269
 1861SOL    HW2 7416  13.349  11.907  14.384
 1862SOL     OW 7417   2.187   3.291   6.610
 1862SOL    HW1 7418   2.220   3.205   6.582
 1862SOL    HW2 7419   2.149   3.329   6.531
 1863SOL     OW 7420  11.312  13.453  13.821
 1863SOL    HW1 7421  11.313  13.493  13.908
 1863SOL    HW2 7422  11.290  13.525  13.761
 1864SOL     OW 7423   9.141   8.583  10.048
 1864SOL    HW1 7424   9.233   8.608  10.054
 1864SOL    HW2 7425   9.140   8.490  10.072
 1865SOL     OW 7426   5.849  14.437   1.557
 1865SOL    HW1 7427   5.921  14.374   1.553
 1865SOL    HW2 7428   5.864  14.486   1.638
 1866SOL     OW 7429  14.118  11.523   9.064
 1866SOL    HW1 7430  14.071  11.537   9.146
 1866SOL    HW2 7431  14.079  11.585   9.003
 1867SOL     OW 7432   1.891   1.900  14.509
 1867SOL    HW1 7433   1.800   1.930  14.514
 1867SOL    HW2 7434   1.926   1.914  14.597
 1868SOL     OW 7435   5.524  12.702  13.972
 1868SOL    HW1 7436   5.464  12.750  13.914
 1868SOL    HW2 7437   5.573  12.644  13.912
 1869SOL     OW 7438  10.981  13.370   0.746
 1869SOL    HW1 7439  10.939  13.440   0.796
 1869SOL    HW2 7440  11.002  13.410   0.662
 1870SOL     OW 7441  11.641   2.953   6.218
 1870SOL    HW1 7442  11.693   2.992   6.149
 1870SOL    HW2 7443  11.658   2.859   6.210
 1871SOL     OW 7444   4.912   2.433  10.991
 1871SOL    HW1 7445   4.860   2.355  11.015
 1871SOL    HW2 7446   4.997   2.419  11.032
 1872SOL     OW 7447   5.867   1.308  11.951
 1872SOL    HW1 7448   5.794   1.299  12.012
 1872SOL    HW2 7449   5.927   1.369  11.994
 1873SOL     OW 7450  13.225   4.924   9.513
 1873SOL    HW1 7451  13.314   4.931   9.478
 1873SOL    HW2 7452  13.233   4.863   9.586
 1874SOL     OW 7453   4.297   1.612   1.866
 1874SOL    HW1 7454   4.371   1.553   1.851
 1874SOL    HW2 7455   4.335   1.700   1.859
 1875SOL     OW 7456  12.338   0.902   0.478
 1875SOL    HW1 7457  12.300   0.825   0.436
 1875SOL    HW2 7458  12.284   0.975   0.448
 1876SOL     OW 7459  10.114   6.813  11.902
 1876SOL    HW1 7460  10.207   6.792  11.914
 1876SOL    HW2 7461  10.084   6.753  11.834
 1877SOL     OW 7462  12.624   0.682  13.104
 1877SOL    HW1 7463  12.659   0.769  13.123
 1877SOL    HW2 7464  12.540   0.699  13.062
 1878SOL     OW 7465   5.091  11.999  12.124
 1878SOL    HW1 7466   5.010  12.034  12.088
 1878SOL    HW2 7467   5.149  11.990  12.049
 1879SOL     OW 7468   1.326   6.568   0.894
 1879SOL    HW1 7469   1.349   6.493   0.840
 1879SOL    HW2 7470   1.248   6.540   0.943
 1880SOL     OW 7471   4.468   4.797   2.535
 1880SOL    HW1 7472   4.535   4.839   2.481
 1880SOL    HW2 7473   4.515   4.731   2.585
 1881SOL     OW 7474   2.211  14.568   6.881
 1881SOL    HW1 7475   2.286  14.599   6.932
 1881SOL    HW2 7476   2.237  14.480   6.852
 1882SOL     OW 7477  11.647   9.636  14.528
 1882SOL    HW1 7478  11.730   9.625  14.482
 1882SOL    HW2 7479  11.581   9.623  14.461
 1883SOL     OW 7480  14.765  13.504  11.334
 1883SOL    HW1 7481  14.743  13.558  11.409
 1883SOL    HW2 7482  14.837  13.550  11.291
 1884SOL     OW 7483   6.444   0.395   0.837
 1884SOL    HW1 7484   6.403   0.471   0.796
 1884SOL    HW2 7485   6.428   0.408   0.931
 1885SOL     OW 7486  10.527   6.450   0.276
 1885SOL    HW1 7487  10.438   6.419   0.291
 1885SOL    HW2 7488  10.549   6.418   0.188
 1886SOL     OW 7489   1.681   7.934  13.175
 1886SOL    HW1 7490   1.763   7.970  13.209
 1886SOL    HW2 7491   1.619   8.008  13.180
 1887SOL     OW 7492   6.864   6.366   6.715
 1887SOL    HW1 7493   6.824   6.303   6.654
 1887SOL    HW2 7494   6.956   6.338   6.721
 1888SOL     OW 7495   9.422  10.012   9.192
 1888SOL    HW1 7496   9.400   9.928   9.232
 1888SOL    HW2 7497   9.472   9.989   9.114
 1889SOL     OW 7498   3.176   7.613   2.182
 1889SOL    HW1 7499   3.227   7.691   2.202
 1889SOL    HW2 7500   3.096   7.623   2.234
 1890SOL     OW 7501   1.382   0.139  11.280
 1890SOL    HW1 7502   1.332   0.195  11.340
 1890SOL    HW2 7503   1.464   0.186  11.267
 1891SOL     OW 7504  11.113   3.147   3.245
 1891SOL    HW1 7505  11.122   3.234   3.282
 1891SOL    HW2 7506  11.185   3.139   3.183
 1892SOL     OW 7507   8.423   9.900   9.330
 1892SOL    HW1 7508   8.516   9.913   9.350
 1892SOL    HW2 7509   8.378   9.973   9.372
 1893SOL     OW 7510   7.830  14.657  11.139
 1893SOL    HW1 7511   7.789  14.697  11.216
 1893SOL    HW2 7512   7.853  14.730  11.082
 1894SOL     OW 7513   2.327   6.660   5.630
 1894SOL    HW1 7514   2.405   6.606   5.644
 1894SOL    HW2 7515   2.254   6.605   5.658
 1895SOL     OW 7516   2.676  13.823  10.523
 1895SOL    HW1 7517   2.667  13.868  10.607
 1895SOL    HW2 7518   2.587  13.798  10.499
 1896SOL     OW 7519   5.262  14.547   5.778
 1896SOL    HW1 7520   5.255  14.592   5.693
 1896SOL    HW2 7521   5.254  14.617   5.843
 1897SOL     OW 7522  14.145   2.073   2.665
 1897SOL    HW1 7523  14.162   2.010   2.594
 1897SOL    HW2 7524  14.057   2.052   2.694
 1898SOL     OW 7525   3.451  12.368   2.889
 1898SOL    HW1 7526   3.377  12.327   2.933
 1898SOL    HW2 7527   3.440  12.347   2.796
 1899SOL     OW 7528   1.453   9.008   3.182
 1899SOL    HW1 7529   1.526   8.948   3.192
 1899SOL    HW2 7530   1.467   9.051   3.098
 1900SOL     OW 7531   5.867   2.121   6.491
 1900SOL    HW1 7532   5.787   2.073   6.470
 1900SOL    HW2 7533   5.889   2.094   6.581
 1901SOL     OW 7534   0.426   2.479   7.166
 1901SOL    HW1 7535   0.406   2.394   7.126
 1901SOL    HW2 7536   0.345   2.529   7.158
 1902SOL     OW 7537   8.744   3.956  13.573
 1902SOL    HW1 7538   8.716   3.990  13.489
 1902SOL    HW2 7539   8.679   3.987  13.635
 1903SOL     OW 7540   1.067   6.545  14.388
 1903SOL    HW1 7541   1.084   6.555  14.295
 1903SOL    HW2 7542   0.972   6.551  14.396
 1904SOL     OW 7543   9.234   2.992   5.828
 1904SOL    HW1 7544   9.221   2.932   5.755
 1904SOL    HW2 7545   9.172   2.963   5.894
 1905SOL     OW 7546   3.803   2.799  13.718
 1905SOL    HW1 7547   3.719   2.837  13.695
 1905SOL    HW2 7548   3.865   2.839  13.657
 1906SOL     OW 7549  12.036  12.222   7.002
 1906SOL    HW1 7550  12.130  12.218   7.016
 1906SOL    HW2 7551  11.998  12.173   7.075
 1907SOL     OW 7552   8.530   3.862   2.736
 1907SOL    HW1 7553   8.489   3.933   2.785
 1907SOL    HW2 7554   8.511   3.882   2.645
 1908SOL     OW 7555   1.876  12.745  10.660
 1908SOL    HW1 7556   1.921  12.770  10.741
 1908SOL    HW2 7557   1.785  12.771  10.674
 1909SOL     OW 7558   5.556  10.503  10.586
 1909SOL    HW1 7559   5.646  10.478  10.610
 1909SOL    HW2 7560   5.501  10.454  10.647
 1910SOL     OW 7561   0.444   6.552   3.930
 1910SOL    HW1 7562   0.525   6.564   3.880
 1910SOL    HW2 7563   0.417   6.463   3.910
 1911SOL     OW 7564   6.574  13.606  12.431
 1911SOL    HW1 7565   6.616  13.685  12.467
 1911SOL    HW2 7566   6.583  13.541  12.500
 1912SOL     OW 7567   4.889   7.976  10.673
 1912SOL    HW1 7568   4.873   7.985  10.579
 1912SOL    HW2 7569   4.971   7.928  10.678
 1913SOL     OW 7570   7.110   5.578   5.375
 1913SOL    HW1 7571   7.127   5.586   5.469
 1913SOL    HW2 7572   7.019   5.605   5.365
 1914SOL     OW 7573  14.784  10.349  11.989
 1914SOL    HW1 7574  14.774  10.276  11.928
 1914SOL    HW2 7575  14.854  10.322  12.049
 1915SOL     OW 7576   2.551   9.325   6.822
 1915SOL    HW1 7577   2.496   9.269   6.767
 1915SOL    HW2 7578   2.539   9.413   6.787
 1916SOL     OW 7579   6.362  11.467  12.301
 1916SOL    HW1 7580   6.276  11.451  12.262
 1916SOL    HW2 7581   6.421  11.406  12.256
 1917SOL     OW 7582   9.889   1.332   1.129
 1917SOL    HW1 7583   9.931   1.416   1.107
 1917SOL    HW2 7584   9.942   1.297   1.201
 1918SOL     OW 7585   6.218   9.189  14.160
 1918SOL    HW1 7586   6.201   9.104  14.119
 1918SOL    HW2 7587   6.227   9.170  14.253
 1919SOL     OW 7588   1.945   7.907   8.777
 1919SOL    HW1 7589   1.908   7.963   8.709
 1919SOL    HW2 7590   1.870   7.878   8.829
 1920SOL     OW 7591  13.752   0.796  13.419
 1920SOL    HW1 7592  13.803   0.767  13.495
 1920SOL    HW2 7593  13.801   0.764  13.343
 1921SOL     OW 7594   5.293   5.440   2.382
 1921SOL    HW1 7595   5.315   5.469   2.294
 1921SOL    HW2 7596   5.247   5.357   2.369
 1922SOL     OW 7597   4.044   4.150  11.069
 1922SOL    HW1 7598   4.034   4.055  11.077
 1922SOL    HW2 7599   3.958   4.180  11.039
 1923SOL     OW 7600  13.517   7.828  12.117
 1923SOL    HW1 7601  13.433   7.874  12.126
 1923SOL    HW2 7602  13.509   7.752  12.175
 1924SOL     OW 7603   1.507  13.999   4.414
 1924SOL    HW1 7604   1.512  14.077   4.358
 1924SOL    HW2 7605   1.495  14.034   4.502
 1925SOL     OW 7606   5.959   6.784   7.630
 1925SOL    HW1 7607   5.962   6.713   7.566
 1925SOL    HW2 7608   6.033   6.840   7.608
 1926SOL     OW 7609   7.969   5.681   2.733
 1926SOL    HW1 7610   8.002   5.762   2.695
 1926SOL    HW2 7611   7.876   5.699   2.751
 1927SOL     OW 7612   3.594   9.214   7.870
 1927SOL    HW1 7613   3.623   9.168   7.949
 1927SOL    HW2 7614   3.498   9.206   7.871
 1928SOL     OW 7615   3.632   2.778   5.409
 1928SOL    HW1 7616   3.703   2.808   5.353
 1928SOL    HW2 7617   3.610   2.691   5.375
 1929SOL     OW 7618  14.817   4.784  14.363
 1929SOL    HW1 7619  14.865   4.715  14.318
 1929SOL    HW2 7620  14.853   4.865  14.326
 1930SOL     OW 7621  10.439   8.591  12.889
 1930SOL    HW1 7622  10.442   8.499  12.861
 1930SOL    HW2 7623  10.496   8.595  12.965
 1931SOL     OW 7624  10.275   0.225   0.329
 1931SOL    HW1 7625  10.192   0.253   0.367
 1931SOL    HW2 7626  10.317   0.306   0.299
 1932SOL     OW 7627   6.501   9.407   3.743
 1932SOL    HW1 7628   6.416   9.451   3.747
 1932SOL    HW2 7629   6.497   9.354   3.664
 1933SOL     OW 7630   5.267  10.319  13.683
 1933SOL    HW1 7631   5.246  10.304  13.775
 1933SOL    HW2 7632   5.222  10.400  13.661
 1934SOL     OW 7633   4.190  12.374   1.948
 1934SOL    HW1 7634   4.121  12.439   1.933
 1934SOL    HW2 7635   4.165  12.332   2.030
 1935SOL     OW 7636   1.725   3.910  13.045
 1935SOL    HW1 7637   1.643   3.959  13.044
 1935SOL    HW2 7638   1.750   3.903  12.953
 1936SOL     OW 7639  11.788  10.431   7.106
 1936SOL    HW1 7640  11.799  10.494   7.035
 1936SOL    HW2 7641  11.694  10.436   7.127
 1937SOL     OW 7642   7.721   2.839   7.132
 1937SOL    HW1 7643   7.685   2.911   7.183
 1937SOL    HW2 7644   7.660   2.766   7.145
 1938SOL     OW 7645  14.246   1.387   1.152
 1938SOL    HW1 7646  14.329   1.359   1.115
 1938SOL    HW2 7647  14.251   1.483   1.155
 1939SOL     OW 7648  14.510   8.618   5.765
 1939SOL    HW1 7649  14.440   8.639   5.703
 1939SOL    HW2 7650  14.468   8.614   5.850
 1940SOL     OW 7651  12.788   4.615   6.464
 1940SOL    HW1 7652  12.875   4.574   6.460
 1940SOL    HW2 7653  12.780   4.660   6.380
 1941SOL     OW 7654   1.943   5.518  14.748
 1941SOL    HW1 7655   1.890   5.474  14.681
 1941SOL    HW2 7656   1.942   5.458  14.823
 1942SOL     OW 7657   1.146   8.176   4.060
 1942SOL    HW1 7658   1.149   8.205   3.969
 1942SOL    HW2 7659   1.121   8.084   4.055
 1943SOL     OW 7660  12.265   1.345  13.526
 1943SOL    HW1 7661  12.311   1.292  13.591
 1943SOL    HW2 7662  12.251   1.429  13.570
 1944SOL     OW 7663  10.237   9.909  10.042
 1944SOL    HW1 7664  10.205   9.821  10.063
 1944SOL    HW2 7665  10.332   9.898  10.033
 1945SOL     OW 7666   6.277   0.376  13.054
 1945SOL    HW1 7667   6.255   0.287  13.082
 1945SOL    HW2 7668   6.358   0.396  13.102
 1946SOL     OW 7669   4.164   3.896   0.409
 1946SOL    HW1 7670   4.146   3.949   0.487
 1946SOL    HW2 7671   4.207   3.955   0.348
 1947SOL     OW 7672   1.631   8.068   1.208
 1947SOL    HW1 7673   1.637   8.087   1.301
 1947SOL    HW2 7674   1.685   7.991   1.195
 1948SOL     OW 7675   5.552  13.081   6.996
 1948SOL    HW1 7676   5.492  13.058   7.067
 1948SOL    HW2 7677   5.639  13.056   7.028
 1949SOL     OW 7678   6.757   8.716  11.581
 1949SOL    HW1 7679   6.822   8.761  11.527
 1949SOL    HW2 7680   6.791   8.628  11.592
 1950SOL     OW 7681   1.483   6.093  10.086
 1950SOL    HW1 7682   1.496   6.113  10.179
 1950SOL    HW2 7683   1.466   6.178  10.045
 1951SOL     OW 7684   2.948  13.076  13.944
 1951SOL    HW1 7685   3.013  13.101  14.010
 1951SOL    HW2 7686   2.999  13.053  13.867
 1952SOL     OW 7687   0.050  12.133   8.842
 1952SOL    HW1 7688  14.863  12.188   8.893
 1952SOL    HW2 7689   0.079  12.188   8.769
 1953SOL     OW 7690   8.283   9.616   2.464
 1953SOL    HW1 7691   8.329   9.544   2.509
 1953SOL    HW2 7692   8.337   9.635   2.388
 1954SOL     OW 7693   4.393   6.374   4.868
 1954SOL    HW1 7694   4.470   6.342   4.822
 1954SOL    HW2 7695   4.417   6.371   4.961
 1955SOL     OW 7696  12.701   0.846   6.392
 1955SOL    HW1 7697  12.618   0.884   6.420
 1955SOL    HW2 7698  12.767   0.912   6.415
 1956SOL     OW 7699   6.231   1.093   1.757
 1956SOL    HW1 7700   6.289   1.166   1.778
 1956SOL    HW2 7701   6.263   1.020   1.810
 1957SOL     OW 7702   1.262   4.136  13.686
 1957SOL    HW1 7703   1.273   4.063  13.747
 1957SOL    HW2 7704   1.175   4.122  13.649
 1958SOL     OW 7705   4.884   3.298   5.234
 1958SOL    HW1 7706   4.888   3.279   5.328
 1958SOL    HW2 7707   4.948   3.239   5.195
 1959SOL     OW 7708  11.997  10.322   4.603
 1959SOL    HW1 7709  12.085  10.356   4.588
 1959SOL    HW2 7710  12.006  10.227   4.599
 1960SOL     OW 7711   5.655   0.770   3.929
 1960SOL    HW1 7712   5.706   0.751   3.850
 1960SOL    HW2 7713   5.619   0.685   3.955
 1961SOL     OW 7714   0.211  10.706   9.006
 1961SOL    HW1 7715   0.178  10.783   8.959
 1961SOL    HW2 7716   0.294  10.735   9.044
 1962SOL     OW 7717   0.205   7.578  10.080
 1962SOL    HW1 7718   0.274   7.607  10.140
 1962SOL    HW2 7719   0.140   7.648  10.083
 1963SOL     OW 7720  10.829   3.938   9.323
 1963SOL    HW1 7721  10.908   3.907   9.366
 1963SOL    HW2 7722  10.778   3.980   9.393
 1964SOL     OW 7723  11.493   1.184   6.509
 1964SOL    HW1 7724  11.407   1.142   6.498
 1964SOL    HW2 7725  11.530   1.185   6.421
 1965SOL     OW 7726   5.376   1.376  12.030
 1965SOL    HW1 7727   5.438   1.332  11.972
 1965SOL    HW2 7728   5.375   1.323  12.109
 1966SOL     OW 7729   8.144   5.386   4.594
 1966SOL    HW1 7730   8.176   5.412   4.680
 1966SOL    HW2 7731   8.143   5.466   4.543
 1967SOL     OW 7732  12.651   3.457  14.667
 1967SOL    HW1 7733  12.565   3.468  14.627
 1967SOL    HW2 7734  12.643   3.501  14.752
 1968SOL     OW 7735   3.246   4.615   4.616
 1968SOL    HW1 7736   3.168   4.560   4.605
 1968SOL    HW2 7737   3.211   4.702   4.634
 1969SOL     OW 7738  10.815  12.478   2.142
 1969SOL    HW1 7739  10.808  12.554   2.084
 1969SOL    HW2 7740  10.767  12.409   2.097
 1970SOL     OW 7741   4.831  12.609  10.764
 1970SOL    HW1 7742   4.875  12.605  10.849
 1970SOL    HW2 7743   4.785  12.526  10.756
 1971SOL     OW 7744   6.500   5.806   9.990
 1971SOL    HW1 7745   6.470   5.847   9.909
 1971SOL    HW2 7746   6.442   5.731  10.002
 1972SOL     OW 7747   6.812   1.830   2.193
 1972SOL    HW1 7748   6.882   1.766   2.194
 1972SOL    HW2 7749   6.767   1.818   2.277
 1973SOL     OW 7750  11.839   0.262  13.919
 1973SOL    HW1 7751  11.785   0.241  13.843
 1973SOL    HW2 7752  11.847   0.357  13.919
 1974SOL     OW 7753   6.017   6.236   3.970
 1974SOL    HW1 7754   5.952   6.254   4.038
 1974SOL    HW2 7755   6.076   6.312   3.973
 1975SOL     OW 7756   1.417   8.763   8.800
 1975SOL    HW1 7757   1.357   8.836   8.813
 1975SOL    HW2 7758   1.370   8.704   8.740
 1976SOL     OW 7759   2.129  10.097   1.750
 1976SOL    HW1 7760   2.170  10.011   1.749
 1976SOL    HW2 7761   2.167  10.143   1.675
 1977SOL     OW 7762  12.031   8.256  12.203
 1977SOL    HW1 7763  11.995   8.216  12.282
 1977SOL    HW2 7764  12.094   8.321  12.235
 1978SOL     OW 7765   7.809   9.337   5.226
 1978SOL    HW1 7766   7.809   9.375   5.138
 1978SOL    HW2 7767   7.849   9.405   5.281
 1979SOL     OW 7768   9.558   5.928  12.047
 1979SOL    HW1 7769   9.482   5.981  12.070
 1979SOL    HW2 7770   9.588   5.892  12.131
 1980SOL     OW 7771   2.283   2.183  10.234
 1980SOL    HW1 7772   2.265   2.155  10.144
 1980SOL    HW2 7773   2.212   2.146  10.286
 1981SOL     OW 7774  13.513  10.750   0.582
 1981SOL    HW1 7775  13.450  10.822   0.589
 1981SOL    HW2 7776  13.556  10.764   0.498
 1982SOL     OW 7777   1.383  12.096  12.084
 1982SOL    HW1 7778   1.434  12.176  12.098
 1982SOL    HW2 7779   1.445  12.035  12.043
 1983SOL     OW 7780  13.112  12.776   2.742
 1983SOL    HW1 7781  13.159  12.852   2.708
 1983SOL    HW2 7782  13.109  12.789   2.837
 1984SOL     OW 7783   8.483   8.034   7.355
 1984SOL    HW1 7784   8.482   8.105   7.290
 1984SOL    HW2 7785   8.573   8.030   7.385
 1985SOL     OW 7786   6.071   5.146   3.877
 1985SOL    HW1 7787   5.987   5.112   3.846
 1985SOL    HW2 7788   6.099   5.085   3.945
 1986SOL     OW 7789   3.194   9.869   2.429
 1986SOL    HW1 7790   3.257   9.882   2.500
 1986SOL    HW2 7791   3.208   9.944   2.371
 1987SOL     OW 7792   5.134  12.135  12.380
 1987SOL    HW1 7793   5.158  12.048  12.410
 1987SOL    HW2 7794   5.117  12.125  12.286
 1988SOL     OW 7795   8.665   1.607  11.218
 1988SOL    HW1 7796   8.662   1.512  11.231
 1988SOL    HW2 7797   8.730   1.639  11.280
 1989SOL     OW 7798   5.969  14.370   2.092
 1989SOL    HW1 7799   5.992  14.280   2.067
 1989SOL    HW2 7800   5.941  14.411   2.011
 1990SOL     OW 7801   7.861   1.837   5.208
 1990SOL    HW1 7802   7.927   1.895   5.245
 1990SOL    HW2 7803   7.832   1.784   5.283
 1991SOL     OW 7804  10.500   2.495   2.689
 1991SOL    HW1 7805  10.567   2.433   2.716
 1991SOL    HW2 7806  10.482   2.474   2.598
 1992SOL     OW 7807   2.965   9.947   6.644
 1992SOL    HW1 7808   2.990   9.859   6.670
 1992SOL    HW2 7809   3.000  10.003   6.713
 1993SOL     OW 7810   8.776   7.706   2.881
 1993SOL    HW1 7811   8.845   7.725   2.818
 1993SOL    HW2 7812   8.816   7.725   2.966
 1994SOL     OW 7813   2.082   7.432   8.326
 1994SOL    HW1 7814   2.100   7.374   8.400
 1994SOL    HW2 7815   2.043   7.374   8.260
 1995SOL     OW 7816  12.919   8.860  12.064
 1995SOL    HW1 7817  12.924   8.850  12.159
 1995SOL    HW2 7818  12.832   8.828  12.041
 1996SOL     OW 7819  12.453   1.707  11.931
 1996SOL    HW1 7820  12.389   1.638  11.918
 1996SOL    HW2 7821  12.412   1.785  11.893
 1997SOL     OW 7822   9.256  11.188   9.558
 1997SOL    HW1 7823   9.225  11.274   9.528
 1997SOL    HW2 7824   9.348  11.203   9.581
 1998SOL     OW 7825   3.074   4.919   5.847
 1998SOL    HW1 7826   3.166   4.945   5.854
 1998SOL    HW2 7827   3.027   5.002   5.844
 1999SOL     OW 7828   0.682   2.323   4.339
 1999SOL    HW1 7829   0.590   2.328   4.310
 1999SOL    HW2 7830   0.679   2.268   4.417
 2000SOL     OW 7831   8.391   6.900   6.052
 2000SOL    HW1 7832   8.333   6.904   5.976
 2000SOL    HW2 7833   8.434   6.986   6.055
 2001SOL     OW 7834   3.063   4.250  11.508
 2001SOL    HW1 7835   3.034   4.180  11.450
 2001SOL    HW2 7836   2.991   4.262  11.570
 2002SOL     OW 7837  14.193   3.530   5.870
 2002SOL    HW1 7838  14.278   3.575   5.867
 2002SOL    HW2 7839  14.183   3.491   5.784
 2003SOL     OW 7840   4.859  10.966   6.452
 2003SOL    HW1 7841   4.948  10.997   6.468
 2003SOL    HW2 7842   4.834  11.006   6.368
 2004SOL     OW 7843   3.861   0.023   6.241
 2004SOL    HW1 7844   3.816  14.860   6.317
 2004SOL    HW2 7845   3.954   0.011   6.260
 2005SOL     OW 7846   9.915   7.596   4.251
 2005SOL    HW1 7847   9.987   7.534   4.239
 2005SOL    HW2 7848   9.865   7.561   4.324
 2006SOL     OW 7849   3.300   8.520   2.670
 2006SOL    HW1 7850   3.272   8.581   2.602
 2006SOL    HW2 7851   3.331   8.575   2.742
 2007SOL     OW 7852   3.675  12.643   8.618
 2007SOL    HW1 7853   3.733  12.639   8.694
 2007SOL    HW2 7854   3.649  12.551   8.603
 2008SOL     OW 7855  14.832  14.167   4.833
 2008SOL    HW1 7856  14.842  14.248   4.783
 2008SOL    HW2 7857   0.040  14.160   4.884
 2009SOL     OW 7858   7.581   4.906   5.862
 2009SOL    HW1 7859   7.609   4.945   5.944
 2009SOL    HW2 7860   7.486   4.919   5.860
 2010SOL     OW 7861   3.926   1.785  14.450
 2010SOL    HW1 7862   3.929   1.833  14.367
 2010SOL    HW2 7863   3.895   1.698  14.426
 2011SOL     OW 7864  14.144   6.095   1.073
 2011SOL    HW1 7865  14.175   6.006   1.089
 2011SOL    HW2 7866  14.208   6.132   1.012
 2012SOL     OW 7867   4.377   4.889   0.131
 2012SOL    HW1 7868   4.415   4.803   0.112
 2012SOL    HW2 7869   4.290   4.886   0.092
 2013SOL     OW 7870  14.640  13.914   7.836
 2013SOL    HW1 7871  14.728  13.881   7.821
 2013SOL    HW2 7872  14.586  13.835   7.845
 2014SOL     OW 7873  12.738  12.800   0.222
 2014SOL    HW1 7874  12.651  12.768   0.197
 2014SOL    HW2 7875  12.744  12.780   0.315
 2015SOL     OW 7876  12.611   8.219   6.816
 2015SOL    HW1 7877  12.628   8.184   6.729
 2015SOL    HW2 7878  12.519   8.246   6.813
 2016SOL     OW 7879   6.060   4.830   2.248
 2016SOL    HW1 7880   5.985   4.890   2.253
 2016SOL    HW2 7881   6.123   4.877   2.193
 2017SOL     OW 7882   3.587   5.857   6.369
 2017SOL    HW1 7883   3.566   5.847   6.461
 2017SOL    HW2 7884   3.607   5.768   6.339
 2018SOL     OW 7885  14.129   7.461  13.576
 2018SOL    HW1 7886  14.085   7.542  13.549
 2018SOL    HW2 7887  14.186   7.488  13.648
 2019SOL     OW 7888   7.022   9.823   4.983
 2019SOL    HW1 7889   6.962   9.854   4.916
 2019SOL    HW2 7890   6.983   9.741   5.014
 2020SOL     OW 7891  13.357   2.769  14.287
 2020SOL    HW1 7892  13.359   2.673  14.283
 2020SOL    HW2 7893  13.448   2.796  14.272
 2021SOL     OW 7894  12.867  10.795   4.262
 2021SOL    HW1 7895  12.856  10.888   4.281
 2021SOL    HW2 7896  12.961  10.781   4.262
 2022SOL     OW 7897   4.568   8.154  13.237
 2022SOL    HW1 7898   4.616   8.075  13.212
 2022SOL    HW2 7899   4.509   8.125  13.306
 2023SOL     OW 7900   5.478   1.560   3.157
 2023SOL    HW1 7901   5.421   1.563   3.080
 2023SOL    HW2 7902   5.482   1.651   3.188
 2024SOL     OW 7903   5.138   3.617   5.138
 2024SOL    HW1 7904   5.097   3.605   5.224
 2024SOL    HW2 7905   5.083   3.565   5.078
 2025SOL     OW 7906  12.489   3.897  12.932
 2025SOL    HW1 7907  12.510   3.807  12.908
 2025SOL    HW2 7908  12.397   3.908  12.909
 2026SOL     OW 7909   3.272  10.846  14.090
 2026SOL    HW1 7910   3.267  10.762  14.136
 2026SOL    HW2 7911   3.185  10.859  14.053
 2027SOL     OW 7912   8.313   8.997   0.768
 2027SOL    HW1 7913   8.308   8.923   0.707
 2027SOL    HW2 7914   8.405   8.998   0.796
 2028SOL     OW 7915   3.427   5.882   6.080
 2028SOL    HW1 7916   3.401   5.857   6.169
 2028SOL    HW2 7917   3.372   5.958   6.060
 2029SOL     OW 7918   8.614   6.985   1.930
 2029SOL    HW1 7919   8.640   7.072   1.898
 2029SOL    HW2 7920   8.673   6.968   2.004
 2030SOL     OW 7921  11.098   5.603   9.036
 2030SOL    HW1 7922  11.051   5.676   9.077
 2030SOL    HW2 7923  11.064   5.602   8.946
 2031SOL     OW 7924   7.766  10.984   8.756
 2031SOL    HW1 7925   7.691  10.925   8.761
 2031SOL    HW2 7926   7.839  10.928   8.733
 2032SOL     OW 7927   0.874   1.834  14.667
 2032SOL    HW1 7928   0.881   1.798  14.756
 2032SOL    HW2 7929   0.836   1.762  14.616
 2033SOL     OW 7930   0.795   2.764  13.208
 2033SOL    HW1 7931   0.760   2.839  13.160
 2033SOL    HW2 7932   0.719   2.708  13.222
 2034SOL     OW 7933  10.991   9.987   3.547
 2034SOL    HW1 7934  11.070   9.978   3.599
 2034SOL    HW2 7935  10.978   9.901   3.507
 2035SOL     OW 7936  11.558  14.111   9.313
 2035SOL    HW1 7937  11.580  14.116   9.220
 2035SOL    HW2 7938  11.620  14.046   9.348
 2036SOL     OW 7939  10.143   1.131  10.552
 2036SOL    HW1 7940  10.061   1.113  10.505
 2036SOL    HW2 7941  10.183   1.045  10.565
 2037SOL     OW 7942  13.871   9.794   2.609
 2037SOL    HW1 7943  13.890   9.701   2.600
 2037SOL    HW2 7944  13.785   9.797   2.651
 2038SOL     OW 7945   9.710   8.019   7.536
 2038SOL    HW1 7946   9.727   7.964   7.613
 2038SOL    HW2 7947   9.630   8.066   7.558
 2039SOL     OW 7948   0.155   9.321   4.184
 2039SOL    HW1 7949   0.235   9.368   4.209
 2039SOL    HW2 7950   0.084   9.381   4.208
 2040SOL     OW 7951   3.227   1.059   0.092
 2040SOL    HW1 7952   3.195   1.019   0.011
 2040SOL    HW2 7953   3.214   1.153   0.079
 2041SOL     OW 7954  11.122   9.715   3.427
 2041SOL    HW1 7955  11.218   9.720   3.425
 2041SOL    HW2 7956  11.096   9.719   3.335
 2042SOL     OW 7957  13.161   3.697  11.961
 2042SOL    HW1 7958  13.256   3.694  11.957
 2042SOL    HW2 7959  13.142   3.715  12.054
 2043SOL     OW 7960  10.679   0.615   2.486
 2043SOL    HW1 7961  10.601   0.633   2.435
 2043SOL    HW2 7962  10.718   0.538   2.445
 2044SOL     OW 7963  13.955   3.110  11.126
 2044SOL    HW1 7964  13.971   3.161  11.206
 2044SOL    HW2 7965  14.039   3.112  11.080
 2045SOL     OW 7966   4.943   1.867   0.988
 2045SOL    HW1 7967   5.013   1.919   1.028
 2045SOL    HW2 7968   4.871   1.928   0.978
 2046SOL     OW 7969   0.507  14.412   2.407
 2046SOL    HW1 7970   0.526  14.486   2.465
 2046SOL    HW2 7971   0.516  14.447   2.319
 2047SOL     OW 7972  10.253  14.804  12.128
 2047SOL    HW1 7973  10.274   0.020  12.160
 2047SOL    HW2 7974  10.174  14.780  12.176
 2048SOL     OW 7975   1.545   3.335   1.538
 2048SOL    HW1 7976   1.610   3.291   1.484
 2048SOL    HW2 7977   1.597   3.390   1.598
 2049SOL     OW 7978  14.496   9.973   5.870
 2049SOL    HW1 7979  14.503   9.988   5.965
 2049SOL    HW2 7980  14.404   9.993   5.850
 2050SOL     OW 7981   2.262  10.572   4.918
 2050SOL    HW1 7982   2.276  10.477   4.921
 2050SOL    HW2 7983   2.301  10.604   4.999
 2051SOL     OW 7984  12.205   4.366   9.797
 2051SOL    HW1 7985  12.298   4.380   9.779
 2051SOL    HW2 7986  12.161   4.397   9.718
 2052SOL     OW 7987   2.610   9.514   6.605
 2052SOL    HW1 7988   2.683   9.576   6.613
 2052SOL    HW2 7989   2.634   9.459   6.531
 2053SOL     OW 7990   3.679   5.302   0.319
 2053SOL    HW1 7991   3.759   5.353   0.309
 2053SOL    HW2 7992   3.708   5.216   0.349
 2054SOL     OW 7993   5.898  11.298   9.988
 2054SOL    HW1 7994   5.818  11.256   9.957
 2054SOL    HW2 7995   5.924  11.355   9.916
 2055SOL     OW 7996   2.028  14.211   3.252
 2055SOL    HW1 7997   1.985  14.147   3.309
 2055SOL    HW2 7998   2.028  14.170   3.166
 2056SOL     OW 7999  12.621   2.173   1.714
 2056SOL    HW1 8000  12.538   2.186   1.759
 2056SOL    HW2 8001  12.656   2.092   1.751
 2057SOL     OW 8002  10.675  14.681   2.911
 2057SOL    HW1 8003  10.737  14.619   2.948
 2057SOL    HW2 8004  10.729  14.747   2.868
 2058SOL     OW 8005   9.048   9.874  13.970
 2058SOL    HW1 8006   9.014   9.961  13.990
 2058SOL    HW2 8007   9.142   9.880  13.986
 2059SOL     OW 8008   5.715  13.887   8.387
 2059SOL    HW1 8009   5.757  13.834   8.320
 2059SOL    HW2 8010   5.765  13.870   8.466
 2060SOL     OW 8011   0.180   9.345   8.189
 2060SOL    HW1 8012   0.177   9.249   8.188
 2060SOL    HW2 8013   0.088   9.371   8.191
 2061SOL     OW 8014   1.540   5.483   4.380
 2061SOL    HW1 8015   1.491   5.486   4.298
 2061SOL    HW2 8016   1.502   5.554   4.433
 2062SOL     OW 8017   8.786   6.300   5.071
 2062SOL    HW1 8018   8.734   6.331   4.998
 2062SOL    HW2 8019   8.851   6.368   5.085
 2063SOL     OW 8020   6.709  13.527  10.047
 2063SOL    HW1 8021   6.747  13.604  10.004
 2063SOL    HW2 8022   6.669  13.478   9.975
 2064SOL     OW 8023   0.874  10.502   8.248
 2064SOL    HW1 8024   0.840  10.418   8.216
 2064SOL    HW2 8025   0.878  10.557   8.169
 2065SOL     OW 8026   2.033   9.578   5.171
 2065SOL    HW1 8027   2.030   9.584   5.266
 2065SOL    HW2 8028   2.042   9.669   5.142
 2066SOL     OW 8029  13.044   3.942   5.902
 2066SOL    HW1 8030  13.136   3.956   5.880
 2066SOL    HW2 8031  13.001   3.928   5.818
 2067SOL     OW 8032   5.626  14.463  10.099
 2067SOL    HW1 8033   5.530  14.459  10.099
 2067SOL    HW2 8034   5.654  14.373  10.116
 2068SOL     OW 8035   1.191  11.059   8.630
 2068SOL    HW1 8036   1.206  10.990   8.565
 2068SOL    HW2 8037   1.268  11.116   8.623
 2069SOL     OW 8038  10.647  13.491   7.859
 2069SOL    HW1 8039  10.579  13.555   7.836
 2069SOL    HW2 8040  10.710  13.540   7.911
 2070SOL     OW 8041   0.728   5.938   2.157
 2070SOL    HW1 8042   0.683   6.012   2.116
 2070SOL    HW2 8043   0.726   5.957   2.250
 2071SOL     OW 8044   8.194   5.044   3.613
 2071SOL    HW1 8045   8.247   5.124   3.614
 2071SOL    HW2 8046   8.250   4.979   3.570
 2072SOL     OW 8047   8.732   6.095   0.707
 2072SOL    HW1 8048   8.693   6.145   0.635
 2072SOL    HW2 8049   8.819   6.071   0.675
 2073SOL     OW 8050   0.180   7.815   3.462
 2073SOL    HW1 8051   0.186   7.809   3.367
 2073SOL    HW2 8052   0.271   7.815   3.492
 2074SOL     OW 8053   0.503  11.765   4.376
 2074SOL    HW1 8054   0.463  11.844   4.411
 2074SOL    HW2 8055   0.449  11.742   4.300
 2075SOL     OW 8056   1.002   1.729  12.097
 2075SOL    HW1 8057   1.063   1.777  12.041
 2075SOL    HW2 8058   1.015   1.766  12.184
 2076SOL     OW 8059   6.416  14.293   7.533
 2076SOL    HW1 8060   6.343  14.344   7.567
 2076SOL    HW2 8061   6.401  14.204   7.566
 2077SOL     OW 8062   9.843  13.968  10.898
 2077SOL    HW1 8063   9.923  13.921  10.875
 2077SOL    HW2 8064   9.871  14.032  10.964
 2078SOL     OW 8065  11.810  10.037  13.785
 2078SOL    HW1 8066  11.904  10.051  13.774
 2078SOL    HW2 8067  11.800   9.942  13.789
 2079SOL     OW 8068   3.278   1.812   9.404
 2079SOL    HW1 8069   3.244   1.868   9.473
 2079SOL    HW2 8070   3.284   1.869   9.327
 2080SOL     OW 8071   3.266  12.499   5.049
 2080SOL    HW1 8072   3.188  12.471   5.096
 2080SOL    HW2 8073   3.312  12.418   5.027
 2081SOL     OW 8074  11.447  11.332  12.868
 2081SOL    HW1 8075  11.506  11.299  12.936
 2081SOL    HW2 8076  11.448  11.427  12.880
 2082SOL     OW 8077   5.918   3.046   1.217
 2082SOL    HW1 8078   5.847   3.092   1.262
 2082SOL    HW2 8079   5.906   3.066   1.124
 2083SOL     OW 8080   6.810  12.682   1.830
 2083SOL    HW1 8081   6.805  12.778   1.821
 2083SOL    HW2 8082   6.895  12.666   1.870
 2084SOL     OW 8083   9.744   7.585   7.558
 2084SOL    HW1 8084   9.654   7.551   7.565
 2084SOL    HW2 8085   9.764   7.617   7.646
 2085SOL     OW 8086   9.020  13.889   7.309
 2085SOL    HW1 8087   9.109  13.888   7.274
 2085SOL    HW2 8088   9.014  13.973   7.355
 2086SOL     OW 8089   7.895  10.053   3.778
 2086SOL    HW1 8090   7.962  10.032   3.843
 2086SOL    HW2 8091   7.894  10.148   3.775
 2087SOL     OW 8092   6.197  10.977   4.463
 2087SOL    HW1 8093   6.211  10.899   4.409
 2087SOL    HW2 8094   6.124  11.023   4.422
 2088SOL     OW 8095   0.469   3.784  13.497
 2088SOL    HW1 8096   0.511   3.714  13.548
 2088SOL    HW2 8097   0.499   3.865  13.538
 2089SOL     OW 8098   9.890  14.770  12.860
 2089SOL    HW1 8099   9.974  14.795  12.898
 2089SOL    HW2 8100   9.845  14.722  12.929
 2090SOL     OW 8101   2.105   0.079  11.442
 2090SOL    HW1 8102   2.055   0.019  11.497
 2090SOL    HW2 8103   2.141   0.023  11.373
 2091SOL     OW 8104   4.422   9.962   2.789
 2091SOL    HW1 8105   4.494  10.017   2.757
 2091SOL    HW2 8106   4.465   9.880   2.814
 2092SOL     OW 8107  11.339   3.446   5.820
 2092SOL    HW1 8108  11.260   3.481   5.861
 2092SOL    HW2 8109  11.312   3.420   5.732
 2093SOL     OW 8110   2.151   0.598  14.221
 2093SOL    HW1 8111   2.229   0.646  14.193
 2093SOL    HW2 8112   2.184   0.538  14.289
 2094SOL     OW 8113  11.328  10.840  14.200
 2094SOL    HW1 8114  11.252  10.813  14.150
 2094SOL    HW2 8115  11.388  10.879  14.136
 2095SOL     OW 8116   8.953   4.047   9.896
 2095SOL    HW1 8117   9.032   4.002   9.867
 2095SOL    HW2 8118   8.905   3.982   9.947
 2096SOL     OW 8119  12.522  11.692   1.660
 2096SOL    HW1 8120  12.452  11.643   1.703
 2096SOL    HW2 8121  12.529  11.773   1.710
 2097SOL     OW 8122  14.705   6.837   7.217
 2097SOL    HW1 8123  14.648   6.870   7.147
 2097SOL    HW2 8124  14.777   6.794   7.171
 2098SOL     OW 8125  11.684   3.317   1.859
 2098SOL    HW1 8126  11.768   3.293   1.900
 2098SOL    HW2 8127  11.706   3.332   1.767
 2099SOL     OW 8128   0.971  12.895   2.072
 2099SOL    HW1 8129   1.019  12.848   2.004
 2099SOL    HW2 8130   0.895  12.933   2.026
 2100SOL     OW 8131   4.072   7.765  13.489
 2100SOL    HW1 8132   4.009   7.762  13.561
 2100SOL    HW2 8133   4.018   7.758  13.410
 2101SOL     OW 8134   2.550   2.814  13.665
 2101SOL    HW1 8135   2.550   2.889  13.606
 2101SOL    HW2 8136   2.516   2.849  13.748
 2102SOL     OW 8137   7.923   8.251  10.830
 2102SOL    HW1 8138   7.924   8.314  10.759
 2102SOL    HW2 8139   7.875   8.176  10.796
 2103SOL     OW 8140  13.128   4.274  12.229
 2103SOL    HW1 8141  13.122   4.367  12.252
 2103SOL    HW2 8142  13.205   4.269  12.172
 2104SOL     OW 8143   2.562   8.079  13.164
 2104SOL    HW1 8144   2.627   8.081  13.094
 2104SOL    HW2 8145   2.541   8.171  13.181
 2105SOL     OW 8146   8.713   0.808   5.532
 2105SOL    HW1 8147   8.755   0.722   5.530
 2105SOL    HW2 8148   8.732   0.842   5.620
 2106SOL     OW 8149   4.764   5.324   7.053
 2106SOL    HW1 8150   4.676   5.313   7.016
 2106SOL    HW2 8151   4.787   5.238   7.086
 2107SOL     OW 8152  11.097   8.660  14.124
 2107SOL    HW1 8153  11.107   8.573  14.160
 2107SOL    HW2 8154  11.008   8.663  14.090
 2108SOL     OW 8155   4.432   0.729  11.861
 2108SOL    HW1 8156   4.422   0.819  11.830
 2108SOL    HW2 8157   4.478   0.684  11.790
 2109SOL     OW 8158   8.723   0.910   7.967
 2109SOL    HW1 8159   8.812   0.879   7.953
 2109SOL    HW2 8160   8.687   0.921   7.879
 2110SOL     OW 8161   4.176  12.762   5.219
 2110SOL    HW1 8162   4.099  12.817   5.203
 2110SOL    HW2 8163   4.241  12.793   5.156
 2111SOL     OW 8164  10.965   2.854  12.815
 2111SOL    HW1 8165  10.923   2.785  12.865
 2111SOL    HW2 8166  11.042   2.813  12.777
 2112SOL     OW 8167  13.870  13.575   7.672
 2112SOL    HW1 8168  13.803  13.514   7.703
 2112SOL    HW2 8169  13.950  13.523   7.668
 2113SOL     OW 8170   2.180   8.786  11.744
 2113SOL    HW1 8171   2.229   8.795  11.662
 2113SOL    HW2 8172   2.133   8.869  11.754
 2114SOL     OW 8173  14.588   8.869  12.126
 2114SOL    HW1 8174  14.529   8.835  12.193
 2114SOL    HW2 8175  14.531   8.902  12.057
 2115SOL     OW 8176   2.686   3.119   0.720
 2115SOL    HW1 8177   2.634   3.053   0.766
 2115SOL    HW2 8178   2.681   3.092   0.628
 2116SOL     OW 8179  14.826  12.212   3.745
 2116SOL    HW1 8180  14.737  12.217   3.779
 2116SOL    HW2 8181  14.837  12.120   3.719
 2117SOL     OW 8182  10.240   1.534   1.810
 2117SOL    HW1 8183  10.303   1.605   1.819
 2117SOL    HW2 8184  10.157   1.570   1.843
 2118SOL     OW 8185   3.590   1.392  12.978
 2118SOL    HW1 8186   3.684   1.399  12.988
 2118SOL    HW2 8187   3.562   1.335  13.050
 2119SOL     OW 8188   9.015   9.592   1.300
 2119SOL    HW1 8189   8.949   9.588   1.369
 2119SOL    HW2 8190   9.058   9.677   1.311
 2120SOL     OW 8191   6.186   1.706  11.594
 2120SOL    HW1 8192   6.232   1.622  11.585
 2120SOL    HW2 8193   6.130   1.711  11.516
 2121SOL     OW 8194   4.620   5.803   6.435
 2121SOL    HW1 8195   4.632   5.726   6.380
 2121SOL    HW2 8196   4.567   5.771   6.509
 2122SOL     OW 8197   6.583   2.520  13.796
 2122SOL    HW1 8198   6.586   2.531  13.891
 2122SOL    HW2 8199   6.674   2.503  13.772
 2123SOL     OW 8200   9.079   3.858   4.904
 2123SOL    HW1 8201   9.053   3.899   4.986
 2123SOL    HW2 8202   9.113   3.930   4.851
 2124SOL     OW 8203   5.438   1.898   0.113
 2124SOL    HW1 8204   5.353   1.921   0.077
 2124SOL    HW2 8205   5.443   1.946   0.196
 2125SOL     OW 8206  10.459  10.397   9.217
 2125SOL    HW1 8207  10.388  10.351   9.263
 2125SOL    HW2 8208  10.537  10.345   9.235
 2126SOL     OW 8209   2.341   5.341   5.307
 2126SOL    HW1 8210   2.397   5.376   5.238
 2126SOL    HW2 8211   2.403   5.306   5.372
 2127SOL     OW 8212  10.152   0.496  11.536
 2127SOL    HW1 8213  10.171   0.454  11.452
 2127SOL    HW2 8214  10.169   0.427  11.601
 2128SOL     OW 8215   7.564   3.863   6.851
 2128SOL    HW1 8216   7.609   3.871   6.935
 2128SOL    HW2 8217   7.483   3.816   6.870
 2129SOL     OW 8218   7.626  13.183   1.229
 2129SOL    HW1 8219   7.717  13.158   1.236
 2129SOL    HW2 8220   7.627  13.266   1.181
 2130SOL     OW 8221   8.197  14.133   5.717
 2130SOL    HW1 8222   8.283  14.109   5.751
 2130SOL    HW2 8223   8.152  14.170   5.792
 2131SOL     OW 8224   4.153  10.150   7.682
 2131SOL    HW1 8225   4.220  10.153   7.614
 2131SOL    HW2 8226   4.183  10.212   7.748
 2132SOL     OW 8227   6.583   1.611   4.607
 2132SOL    HW1 8228   6.599   1.517   4.617
 2132SOL    HW2 8229   6.511   1.629   4.667
 2133SOL     OW 8230   3.177   2.862  11.746
 2133SOL    HW1 8231   3.242   2.839  11.680
 2133SOL    HW2 8232   3.128   2.934  11.707
 2134SOL     OW 8233  11.282   0.976   6.168
 2134SOL    HW1 8234  11.244   0.919   6.101
 2134SOL    HW2 8235  11.325   1.045   6.118
 2135SOL     OW 8236   6.080   7.557   8.602
 2135SOL    HW1 8237   6.048   7.604   8.526
 2135SOL    HW2 8238   6.154   7.609   8.634
 2136SOL     OW 8239  14.312   7.033  13.936
 2136SOL    HW1 8240  14.366   7.102  13.897
 2136SOL    HW2 8241  14.223   7.053  13.907
 2137SOL     OW 8242  11.438   9.860   0.085
 2137SOL    HW1 8243  11.463   9.948   0.056
 2137SOL    HW2 8244  11.478   9.802   0.020
 2138SOL     OW 8245   5.943   4.717   8.961
 2138SOL    HW1 8246   6.022   4.765   8.935
 2138SOL    HW2 8247   5.942   4.641   8.904
 2139SOL     OW 8248   3.522  14.722  11.199
 2139SOL    HW1 8249   3.572  14.793  11.239
 2139SOL    HW2 8250   3.512  14.658  11.269
 2140SOL     OW 8251   4.493  11.707   8.082
 2140SOL    HW1 8252   4.426  11.730   8.019
 2140SOL    HW2 8253   4.563  11.667   8.030
 2141SOL     OW 8254   3.017  13.833  14.037
 2141SOL    HW1 8255   3.044  13.813  13.947
 2141SOL    HW2 8256   3.043  13.924  14.050
 2142SOL     OW 8257   5.539  13.907   5.512
 2142SOL    HW1 8258   5.585  13.906   5.596
 2142SOL    HW2 8259   5.554  13.995   5.478
 2143SOL     OW 8260   0.720   4.678  11.651
 2143SOL    HW1 8261   0.680   4.738  11.713
 2143SOL    HW2 8262   0.751   4.604  11.705
 2144SOL     OW 8263  12.416   3.813   5.487
 2144SOL    HW1 8264  12.506   3.838   5.507
 2144SOL    HW2 8265  12.371   3.818   5.571
 2145SOL     OW 8266  14.694   7.268   4.299
 2145SOL    HW1 8267  14.706   7.179   4.332
 2145SOL    HW2 8268  14.657   7.256   4.212
 2146SOL     OW 8269   0.082   6.898   2.562
 2146SOL    HW1 8270   0.012   6.954   2.595
 2146SOL    HW2 8271   0.074   6.817   2.613
 2147SOL     OW 8272   3.184  14.018  13.642
 2147SOL    HW1 8273   3.133  13.955  13.693
 2147SOL    HW2 8274   3.161  14.103  13.679
 2148SOL     OW 8275  14.699   9.135  12.178
 2148SOL    HW1 8276  14.609   9.145  12.147
 2148SOL    HW2 8277  14.717   9.042  12.167
 2149SOL     OW 8278  14.502   0.371   7.489
 2149SOL    HW1 8279  14.493   0.455   7.534
 2149SOL    HW2 8280  14.569   0.386   7.422
 2150SOL     OW 8281  10.714   9.286  13.226
 2150SOL    HW1 8282  10.723   9.366  13.175
 2150SOL    HW2 8283  10.788   9.288  13.287
 2151SOL     OW 8284   9.394  13.915   8.326
 2151SOL    HW1 8285   9.456  13.909   8.253
 2151SOL    HW2 8286   9.409  13.835   8.377
 2152SOL     OW 8287  12.951  13.277   7.127
 2152SOL    HW1 8288  13.019  13.312   7.070
 2152SOL    HW2 8289  12.933  13.189   7.093
 2153SOL     OW 8290   1.348   7.281   6.728
 2153SOL    HW1 8291   1.362   7.263   6.635
 2153SOL    HW2 8292   1.275   7.342   6.730
 2154SOL     OW 8293  10.465  14.465   0.445
 2154SOL    HW1 8294  10.377  14.478   0.479
 2154SOL    HW2 8295  10.519  14.529   0.491
 2155SOL     OW 8296  14.414   0.030  12.524
 2155SOL    HW1 8297  14.462   0.058  12.446
 2155SOL    HW2 8298  14.368   0.109  12.553
 2156SOL     OW 8299   5.272  13.735   8.994
 2156SOL    HW1 8300   5.361  13.747   8.961
 2156SOL    HW2 8301   5.248  13.646   8.966
 2157SOL     OW 8302  12.238   8.036   2.620
 2157SOL    HW1 8303  12.299   7.998   2.556
 2157SOL    HW2 8304  12.261   8.129   2.622
 2158SOL     OW 8305   5.283   8.498   8.256
 2158SOL    HW1 8306   5.259   8.456   8.173
 2158SOL    HW2 8307   5.349   8.440   8.294
 2159SOL     OW 8308   7.248  11.315   1.518
 2159SOL    HW1 8309   7.275  11.402   1.489
 2159SOL    HW2 8310   7.232  11.266   1.437
 2160SOL     OW 8311   2.946   3.635  11.556
 2160SOL    HW1 8312   2.910   3.659  11.641
 2160SOL    HW2 8313   3.021   3.579  11.576
 2161SOL     OW 8314   3.291   4.037   0.649
 2161SOL    HW1 8315   3.300   4.118   0.700
 2161SOL    HW2 8316   3.248   4.065   0.569
 2162SOL     OW 8317   2.451   5.587  10.821
 2162SOL    HW1 8318   2.493   5.543  10.894
 2162SOL    HW2 8319   2.478   5.536  10.744
 2163SOL     OW 8320   9.877  10.190  11.380
 2163SOL    HW1 8321   9.920  10.154  11.458
 2163SOL    HW2 8322   9.867  10.114  11.322
 2164SOL     OW 8323   8.215   4.286   7.530
 2164SOL    HW1 8324   8.310   4.274   7.540
 2164SOL    HW2 8325   8.205   4.381   7.520
 2165SOL     OW 8326  11.615  14.181   6.120
 2165SOL    HW1 8327  11.538  14.156   6.169
 2165SOL    HW2 8328  11.603  14.140   6.034
 2166SOL     OW 8329  12.686   9.617   1.547
 2166SOL    HW1 8330  12.775   9.651   1.548
 2166SOL    HW2 8331  12.696   9.524   1.524
 2167SOL     OW 8332   8.453  12.210   9.106
 2167SOL    HW1 8333   8.380  12.267   9.128
 2167SOL    HW2 8334   8.511  12.215   9.182
 2168SOL     OW 8335  12.980   5.823   8.419
 2168SOL    HW1 8336  13.045   5.874   8.371
 2168SOL    HW2 8337  12.899   5.873   8.409
 2169SOL     OW 8338   5.763  11.334  10.260
 2169SOL    HW1 8339   5.713  11.411  10.231
 2169SOL    HW2 8340   5.821  11.314  10.187
 2170SOL     OW 8341  14.837   8.866   5.915
 2170SOL    HW1 8342  14.827   8.922   5.838
 2170SOL    HW2 8343   0.007   8.786   5.882
 2171SOL     OW 8344  14.288  13.119   6.956
 2171SOL    HW1 8345  14.337  13.125   6.874
 2171SOL    HW2 8346  14.208  13.168   6.940
 2172SOL     OW 8347   8.616   6.088  12.343
 2172SOL    HW1 8348   8.669   6.013  12.318
 2172SOL    HW2 8349   8.659   6.163  12.303
 2173SOL     OW 8350   1.995   6.335  10.604
 2173SOL    HW1 8351   2.075   6.291  10.578
 2173SOL    HW2 8352   2.024   6.406  10.662
 2174SOL     OW 8353  10.308  11.320  12.517
 2174SOL    HW1 8354  10.287  11.359  12.432
 2174SOL    HW2 8355  10.392  11.359  12.542
 2175SOL     OW 8356   8.687  12.591   5.432
 2175SOL    HW1 8357   8.646  12.567   5.515
 2175SOL    HW2 8358   8.762  12.532   5.424
 2176SOL     OW 8359   3.239  10.038   1.794
 2176SOL    HW1 8360   3.193  10.085   1.725
 2176SOL    HW2 8361   3.184   9.961   1.811
 2177SOL     OW 8362   4.837   0.740  13.646
 2177SOL    HW1 8363   4.836   0.652  13.608
 2177SOL    HW2 8364   4.853   0.725  13.739
 2178SOL     OW 8365   4.089  12.645   8.631
 2178SOL    HW1 8366   4.176  12.657   8.592
 2178SOL    HW2 8367   4.093  12.689   8.716
 2179SOL     OW 8368   5.697   5.467   3.688
 2179SOL    HW1 8369   5.640   5.443   3.761
 2179SOL    HW2 8370   5.688   5.395   3.626
 2180SOL     OW 8371   1.751  14.792   6.199
 2180SOL    HW1 8372   1.743  14.862   6.135
 2180SOL    HW2 8373   1.821  14.736   6.166
 2181SOL     OW 8374   7.705  10.364   3.602
 2181SOL    HW1 8375   7.706  10.309   3.680
 2181SOL    HW2 8376   7.627  10.335   3.553
 2182SOL     OW 8377   2.493   9.664  10.479
 2182SOL    HW1 8378   2.578   9.621  10.483
 2182SOL    HW2 8379   2.435   9.600  10.439
 2183SOL     OW 8380   6.788  13.930   3.157
 2183SOL    HW1 8381   6.851  13.864   3.128
 2183SOL    HW2 8382   6.730  13.942   3.081
 2184SOL     OW 8383   9.469   2.090   3.802
 2184SOL    HW1 8384   9.551   2.042   3.815
 2184SOL    HW2 8385   9.401   2.025   3.817
 2185SOL     OW 8386  14.821   9.052   2.269
 2185SOL    HW1 8387  14.842   8.959   2.280
 2185SOL    HW2 8388  14.853   9.074   2.182
 2186SOL     OW 8389  10.249  11.173   8.668
 2186SOL    HW1 8390  10.265  11.152   8.760
 2186SOL    HW2 8391  10.269  11.093   8.621
 2187SOL     OW 8392   6.908   1.502  11.644
 2187SOL    HW1 8393   6.935   1.592  11.630
 2187SOL    HW2 8394   6.939   1.455  11.567
 2188SOL     OW 8395  13.084   5.426  13.935
 2188SOL    HW1 8396  13.081   5.330  13.941
 2188SOL    HW2 8397  13.178   5.446  13.931
 2189SOL     OW 8398   0.026  10.197  14.815
 2189SOL    HW1 8399   0.043  10.114  14.771
 2189SOL    HW2 8400   0.111  10.222  14.853
 2190SOL     OW 8401   8.143  12.197  14.432
 2190SOL    HW1 8402   8.083  12.155  14.370
 2190SOL    HW2 8403   8.230  12.173  14.400
 2191SOL     OW 8404   5.846  12.081  10.454
 2191SOL    HW1 8405   5.924  12.086  10.398
 2191SOL    HW2 8406   5.880  12.056  10.540
 2192SOL     OW 8407  10.741   6.290   0.251
 2192SOL    HW1 8408  10.669   6.353   0.258
 2192SOL    HW2 8409  10.700   6.206   0.270
 2193SOL     OW 8410  14.597  14.339  13.268
 2193SOL    HW1 8411  14.561  14.316  13.182
 2193SOL    HW2 8412  14.642  14.260  13.297
 2194SOL     OW 8413   8.100  12.551  14.414
 2194SOL    HW1 8414   8.156  12.540  14.338
 2194SOL    HW2 8415   8.024  12.599  14.380
 2195SOL     OW 8416   4.863  14.634   3.725
 2195SOL    HW1 8417   4.774  14.616   3.755
 2195SOL    HW2 8418   4.919  14.586   3.786
 2196SOL     OW 8419   8.822   3.027   8.313
 2196SOL    HW1 8420   8.828   3.046   8.407
 2196SOL    HW2 8421   8.828   2.932   8.308
 2197SOL     OW 8422   3.286   9.944   6.040
 2197SOL    HW1 8423   3.271  10.016   6.101
 2197SOL    HW2 8424   3.267   9.981   5.954
 2198SOL     OW 8425   3.411   4.566   3.050
 2198SOL    HW1 8426   3.350   4.594   3.118
 2198SOL    HW2 8427   3.485   4.528   3.098
 2199SOL     OW 8428   6.824   5.897   4.494
 2199SOL    HW1 8429   6.811   5.963   4.425
 2199SOL    HW2 8430   6.855   5.946   4.569
 2200SOL     OW 8431  10.648   1.865  14.064
 2200SOL    HW1 8432  10.673   1.913  13.985
 2200SOL    HW2 8433  10.575   1.916  14.101
 2201SOL     OW 8434  14.012   0.069   3.353
 2201SOL    HW1 8435  14.003   0.112   3.268
 2201SOL    HW2 8436  13.967  14.857   3.341
 2202SOL     OW 8437   3.030   6.836   6.058
 2202SOL    HW1 8438   3.037   6.928   6.031
 2202SOL    HW2 8439   3.055   6.836   6.150
 2203SOL     OW 8440   6.223   1.293  13.840
 2203SOL    HW1 8441   6.194   1.316  13.929
 2203SOL    HW2 8442   6.184   1.207  13.824
 2204SOL     OW 8443   0.796   7.311   0.513
 2204SOL    HW1 8444   0.826   7.260   0.588
 2204SOL    HW2 8445   0.758   7.247   0.453
 2205SOL     OW 8446   1.558   3.158   3.788
 2205SOL    HW1 8447   1.535   3.221   3.719
 2205SOL    HW2 8448   1.549   3.207   3.870
 2206SOL     OW 8449   6.173  13.948   4.740
 2206SOL    HW1 8450   6.095  13.896   4.757
 2206SOL    HW2 8451   6.214  13.905   4.664
 2207SOL     OW 8452   9.167   0.469   5.096
 2207SOL    HW1 8453   9.155   0.558   5.132
 2207SOL    HW2 8454   9.257   0.445   5.122
 2208SOL     OW 8455  11.485   1.226  12.463
 2208SOL    HW1 8456  11.480   1.310  12.418
 2208SOL    HW2 8457  11.536   1.170  12.405
 2209SOL     OW 8458  11.560  13.167   1.818
 2209SOL    HW1 8459  11.532  13.237   1.759
 2209SOL    HW2 8460  11.533  13.196   1.905
 2210SOL     OW 8461   8.549   7.215  10.201
 2210SOL    HW1 8462   8.522   7.282  10.264
 2210SOL    HW2 8463   8.477   7.153  10.199
 2211SOL     OW 8464   0.205  11.495   8.544
 2211SOL    HW1 8465   0.186  11.581   8.507
 2211SOL    HW2 8466   0.159  11.494   8.628
 2212SOL     OW 8467  11.110  10.458   7.865
 2212SOL    HW1 8468  11.051  10.394   7.905
 2212SOL    HW2 8469  11.176  10.406   7.821
 2213SOL     OW 8470   1.319   8.734  13.851
 2213SOL    HW1 8471   1.412   8.713  13.840
 2213SOL    HW2 8472   1.310   8.822  13.815
 2214SOL     OW 8473  13.667   6.394   9.969
 2214SOL    HW1 8474  13.635   6.305   9.988
 2214SOL    HW2 8475  13.589   6.442   9.943
 2215SOL     OW 8476  11.616   7.040   0.174
 2215SOL    HW1 8477  11.701   7.014   0.208
 2215SOL    HW2 8478  11.558   6.967   0.195
 2216SOL     OW 8479   7.847   4.610   3.809
 2216SOL    HW1 8480   7.806   4.683   3.856
 2216SOL    HW2 8481   7.899   4.653   3.741
 2217SOL     OW 8482   6.427  12.241   2.779
 2217SOL    HW1 8483   6.350  12.275   2.734
 2217SOL    HW2 8484   6.419  12.146   2.770
 2218SOL     OW 8485   2.243   8.972   3.719
 2218SOL    HW1 8486   2.173   8.927   3.672
 2218SOL    HW2 8487   2.262   9.050   3.665
 2219SOL     OW 8488  11.059   7.034   6.748
 2219SOL    HW1 8489  11.051   6.947   6.788
 2219SOL    HW2 8490  11.039   7.020   6.656
 2220SOL     OW 8491   3.362  13.089   1.856
 2220SOL    HW1 8492   3.426  13.113   1.788
 2220SOL    HW2 8493   3.293  13.042   1.809
 2221SOL     OW 8494   5.795   0.093   0.135
 2221SOL    HW1 8495   5.761   0.182   0.122
 2221SOL    HW2 8496   5.787   0.079   0.230
 2222SOL     OW 8497  10.287  13.568   9.587
 2222SOL    HW1 8498  10.331  13.504   9.531
 2222SOL    HW2 8499  10.344  13.575   9.664
 2223SOL     OW 8500   9.532  14.501   3.438
 2223SOL    HW1 8501   9.602  14.449   3.476
 2223SOL    HW2 8502   9.453  14.449   3.450
 2224SOL     OW 8503  10.885  12.770   6.599
 2224SOL    HW1 8504  10.917  12.780   6.689
 2224SOL    HW2 8505  10.838  12.687   6.601
 2225SOL     OW 8506   2.594   6.124   5.695
 2225SOL    HW1 8507   2.527   6.156   5.755
 2225SOL    HW2 8508   2.642   6.202   5.667
 2226SOL     OW 8509  14.459   0.252   3.857
 2226SOL    HW1 8510  14.432   0.161   3.845
 2226SOL    HW2 8511  14.549   0.247   3.888
 2227SOL     OW 8512  10.161   3.212   1.556
 2227SOL    HW1 8513  10.087   3.242   1.609
 2227SOL    HW2 8514  10.228   3.188   1.620
 2228SOL     OW 8515  12.407   1.683   3.189
 2228SOL    HW1 8516  12.426   1.772   3.218
 2228SOL    HW2 8517  12.312   1.673   3.199
 2229SOL     OW 8518   8.742  10.078  13.378
 2229SOL    HW1 8519   8.793  10.025  13.440
 2229SOL    HW2 8520   8.751  10.033  13.294
 2230SOL     OW 8521   7.966   7.171  13.874
 2230SOL    HW1 8522   7.921   7.160  13.958
 2230SOL    HW2 8523   7.931   7.252  13.838
 2231SOL     OW 8524   2.306   1.791   7.354
 2231SOL    HW1 8525   2.310   1.825   7.443
 2231SOL    HW2 8526   2.245   1.849   7.309
 2232SOL     OW 8527   9.270  14.018   7.932
 2232SOL    HW1 8528   9.265  14.081   7.860
 2232SOL    HW2 8529   9.297  14.071   8.008
 2233SOL     OW 8530  11.703   4.453  12.637
 2233SOL    HW1 8531  11.694   4.424  12.728
 2233SOL    HW2 8532  11.639   4.400  12.589
 2234SOL     OW 8533   7.162  11.786   2.590
 2234SOL    HW1 8534   7.165  11.771   2.684
 2234SOL    HW2 8535   7.106  11.863   2.580
 2235SOL     OW 8536   5.475  14.643   9.792
 2235SOL    HW1 8537   5.563  14.632   9.829
 2235SOL    HW2 8538   5.421  14.580   9.840
 2236SOL     OW 8539  14.039   0.952   6.833
 2236SOL    HW1 8540  14.033   0.972   6.926
 2236SOL    HW2 8541  14.132   0.962   6.812
 2237SOL     OW 8542  10.537  12.106  12.397
 2237SOL    HW1 8543  10.613  12.141  12.444
 2237SOL    HW2 8544  10.463  12.157  12.429
 2238SOL     OW 8545   9.383  13.552  10.673
 2238SOL    HW1 8546   9.364  13.643  10.697
 2238SOL    HW2 8547   9.470  13.536  10.707
 2239SOL     OW 8548   2.431   0.538   4.479
 2239SOL    HW1 8549   2.364   0.498   4.534
 2239SOL    HW2 8550   2.403   0.521   4.389
 2240SOL     OW 8551  11.257  10.497   3.583
 2240SOL    HW1 8552  11.343  10.481   3.623
 2240SOL    HW2 8553  11.195  10.472   3.651
 2241SOL     OW 8554   1.378   4.310   8.365
 2241SOL    HW1 8555   1.344   4.221   8.366
 2241SOL    HW2 8556   1.370   4.341   8.455
 2242SOL     OW 8557   2.586   4.878   1.865
 2242SOL    HW1 8558   2.650   4.917   1.925
 2242SOL    HW2 8559   2.632   4.802   1.828
 2243SOL     OW 8560   4.703  14.847   7.670
 2243SOL    HW1 8561   4.688  14.753   7.681
 2243SOL    HW2 8562   4.649   0.015   7.738
 2244SOL     OW 8563  10.696   5.541   8.761
 2244SOL    HW1 8564  10.780   5.580   8.782
 2244SOL    HW2 8565  10.631   5.596   8.806
 2245SOL     OW 8566  11.918  12.047   1.381
 2245SOL    HW1 8567  11.980  11.976   1.398
 2245SOL    HW2 8568  11.956  12.123   1.425
 2246SOL     OW 8569   0.810   6.448   1.704
 2246SOL    HW1 8570   0.792   6.361   1.668
 2246SOL    HW2 8571   0.826   6.503   1.627
 2247SOL     OW 8572   3.411   1.392   2.832
 2247SOL    HW1 8573   3.344   1.325   2.823
 2247SOL    HW2 8574   3.451   1.375   2.917
 2248SOL     OW 8575   1.820  13.554   9.158
 2248SOL    HW1 8576   1.899  13.500   9.157
 2248SOL    HW2 8577   1.817  13.590   9.247
 2249SOL     OW 8578   6.830  11.082  12.334
 2249SOL    HW1 8579   6.872  11.118  12.256
 2249SOL    HW2 8580   6.787  11.157  12.375
 2250SOL     OW 8581  10.347  14.836   8.291
 2250SOL    HW1 8582  10.383  14.801   8.373
 2250SOL    HW2 8583  10.321   0.053   8.313
 2251SOL     OW 8584   0.815   3.756   6.712
 2251SOL    HW1 8585   0.729   3.722   6.689
 2251SOL    HW2 8586   0.876   3.687   6.687
 2252SOL     OW 8587  13.875  14.189  12.908
 2252SOL    HW1 8588  13.964  14.185  12.875
 2252SOL    HW2 8589  13.884  14.213  13.000
 2253SOL     OW 8590  13.602   5.860   1.364
 2253SOL    HW1 8591  13.641   5.914   1.433
 2253SOL    HW2 8592  13.520   5.829   1.401
 2254SOL     OW 8593   7.714   5.190   2.976
 2254SOL    HW1 8594   7.642   5.139   2.938
 2254SOL    HW2 8595   7.715   5.165   3.068
 2255SOL     OW 8596  13.952   2.014   4.115
 2255SOL    HW1 8597  13.941   2.103   4.149
 2255SOL    HW2 8598  13.914   1.958   4.184
 2256SOL     OW 8599   5.767   0.177   7.047
 2256SOL    HW1 8600   5.816   0.220   7.117
 2256SOL    HW2 8601   5.726   0.101   7.088
 2257SOL     OW 8602  10.783  11.863  12.628
 2257SOL    HW1 8603  10.790  11.903  12.542
 2257SOL    HW2 8604  10.744  11.931  12.683
 2258SOL     OW 8605   5.558   8.081   3.668
 2258SOL    HW1 8606   5.504   8.004   3.682
 2258SOL    HW2 8607   5.501   8.144   3.623
 2259SOL     OW 8608   0.988   4.496   8.146
 2259SOL    HW1 8609   0.928   4.461   8.211
 2259SOL    HW2 8610   0.988   4.430   8.076
 2260SOL     OW 8611  11.052  13.424   6.293
 2260SOL    HW1 8612  11.087  13.336   6.304
 2260SOL    HW2 8613  11.128  13.481   6.303
 2261SOL     OW 8614  13.263   4.750  13.465
 2261SOL    HW1 8615  13.209   4.800  13.526
 2261SOL    HW2 8616  13.200   4.709  13.406
 2262SOL     OW 8617   3.615   2.854   3.450
 2262SOL    HW1 8618   3.557   2.814   3.515
 2262SOL    HW2 8619   3.603   2.948   3.461
 2263SOL     OW 8620  14.748   0.121  14.538
 2263SOL    HW1 8621  14.690   0.086  14.606
 2263SOL    HW2 8622  14.689   0.137  14.464
 2264SOL     OW 8623  10.577   0.837   4.312
 2264SOL    HW1 8624  10.529   0.890   4.248
 2264SOL    HW2 8625  10.666   0.872   4.310
 2265SOL     OW 8626  11.683  13.174   7.176
 2265SOL    HW1 8627  11.678  13.079   7.178
 2265SOL    HW2 8628  11.776  13.194   7.182
 2266SOL     OW 8629   0.498  14.274  12.823
 2266SOL    HW1 8630   0.522  14.216  12.751
 2266SOL    HW2 8631   0.403  14.285  12.813
 2267SOL     OW 8632   8.558   6.583   7.416
 2267SOL    HW1 8633   8.640   6.592   7.368
 2267SOL    HW2 8634   8.496   6.639   7.370
 2268SOL     OW 8635   3.164  12.097   5.456
 2268SOL    HW1 8636   3.193  12.120   5.544
 2268SOL    HW2 8637   3.122  12.012   5.465
 2269SOL     OW 8638  10.167   3.142   7.136
 2269SOL    HW1 8639  10.074   3.127   7.122
 2269SOL    HW2 8640  10.191   3.081   7.206
 2270SOL     OW 8641   7.930  10.273   5.849
 2270SOL    HW1 8642   7.944  10.342   5.913
 2270SOL    HW2 8643   7.988  10.202   5.877
 2271SOL     OW 8644   0.854   6.964   9.477
 2271SOL    HW1 8645   0.796   6.914   9.420
 2271SOL    HW2 8646   0.912   6.898   9.516
 2272SOL     OW 8647   5.930   7.082   9.251
 2272SOL    HW1 8648   5.870   7.008   9.238
 2272SOL    HW2 8649   5.891   7.153   9.201
 2273SOL     OW 8650   2.070  11.797   6.631
 2273SOL    HW1 8651   2.081  11.754   6.716
 2273SOL    HW2 8652   2.002  11.746   6.587
 2274SOL     OW 8653   6.711  13.634   5.852
 2274SOL    HW1 8654   6.740  13.626   5.761
 2274SOL    HW2 8655   6.641  13.699   5.850
 2275SOL     OW 8656   7.718  10.068   2.193
 2275SOL    HW1 8657   7.804  10.079   2.233
 2275SOL    HW2 8658   7.734  10.018   2.114
 2276SOL     OW 8659   0.035   8.071  14.730
 2276SOL    HW1 8660   0.016   8.165  14.736
 2276SOL    HW2 8661   0.108   8.066  14.669
 2277SOL     OW 8662  10.568   1.764   4.232
 2277SOL    HW1 8663  10.549   1.853   4.262
 2277SOL    HW2 8664  10.587   1.714   4.311
 2278SOL     OW 8665   9.049  13.034   7.533
 2278SOL    HW1 8666   9.062  12.989   7.616
 2278SOL    HW2 8667   9.099  13.115   7.542
 2279SOL     OW 8668   4.709  14.123  11.110
 2279SOL    HW1 8669   4.770  14.142  11.181
 2279SOL    HW2 8670   4.687  14.209  11.074
 2280SOL     OW 8671   7.232  12.684   0.044
 2280SOL    HW1 8672   7.216  12.599   0.003
 2280SOL    HW2 8673   7.147  12.728   0.041
 2281SOL     OW 8674  10.056   5.956  12.019
 2281SOL    HW1 8675  10.034   6.039  11.976
 2281SOL    HW2 8676  10.075   5.896  11.947
 2282SOL     OW 8677   7.861   4.631   0.370
 2282SOL    HW1 8678   7.770   4.628   0.399
 2282SOL    HW2 8679   7.887   4.539   0.364
 2283SOL     OW 8680   7.970   9.798  12.006
 2283SOL    HW1 8681   7.910   9.748  11.951
 2283SOL    HW2 8682   7.913   9.842  12.070
 2284SOL     OW 8683  10.207   2.406   0.961
 2284SOL    HW1 8684  10.295   2.419   0.926
 2284SOL    HW2 8685  10.192   2.483   1.016
 2285SOL     OW 8686   1.914   0.227   1.085
 2285SOL    HW1 8687   1.940   0.218   1.176
 2285SOL    HW2 8688   1.832   0.276   1.088
 2286SOL     OW 8689  14.189  13.301   4.025
 2286SOL    HW1 8690  14.224  13.388   4.005
 2286SOL    HW2 8691  14.108  13.318   4.073
 2287SOL     OW 8692   7.426   1.488   5.990
 2287SOL    HW1 8693   7.415   1.408   6.042
 2287SOL    HW2 8694   7.472   1.548   6.048
 2288SOL     OW 8695   0.762   4.304   5.401
 2288SOL    HW1 8696   0.679   4.351   5.411
 2288SOL    HW2 8697   0.737   4.211   5.400
 2289SOL     OW 8698  12.959  13.995  13.865
 2289SOL    HW1 8699  12.982  13.921  13.807
 2289SOL    HW2 8700  13.002  13.975  13.948
 2290SOL     OW 8701  12.216  10.601   5.405
 2290SOL    HW1 8702  12.215  10.687   5.363
 2290SOL    HW2 8703  12.300  10.563   5.379
 2291SOL     OW 8704   5.152  12.090   5.465
 2291SOL    HW1 8705   5.112  12.174   5.441
 2291SOL    HW2 8706   5.125  12.076   5.556
 2292SOL     OW 8707  10.653  11.527   3.208
 2292SOL    HW1 8708  10.602  11.473   3.148
 2292SOL    HW2 8709  10.596  11.602   3.227
 2293SOL     OW 8710   6.529   4.919   4.664
 2293SOL    HW1 8711   6.551   4.870   4.744
 2293SOL    HW2 8712   6.442   4.889   4.640
 2294SOL     OW 8713   2.969   0.267   8.373
 2294SOL    HW1 8714   3.012   0.222   8.446
 2294SOL    HW2 8715   3.037   0.275   8.307
 2295SOL     OW 8716  14.193   9.702  11.014
 2295SOL    HW1 8717  14.103   9.679  10.989
 2295SOL    HW2 8718  14.225   9.625  11.061
 2296SOL     OW 8719  12.049  13.641   1.624
 2296SOL    HW1 8720  12.096  13.688   1.554
 2296SOL    HW2 8721  11.971  13.694   1.640
 2297SOL     OW 8722   2.395   6.638   6.404
 2297SOL    HW1 8723   2.463   6.571   6.411
 2297SOL    HW2 8724   2.394   6.661   6.311
 2298SOL     OW 8725   9.546   5.174   1.211
 2298SOL    HW1 8726   9.482   5.210   1.149
 2298SOL    HW2 8727   9.592   5.106   1.162
 2299SOL     OW 8728   4.206   0.963  14.454
 2299SOL    HW1 8729   4.256   0.975  14.373
 2299SOL    HW2 8730   4.143   0.894  14.432
 2300SOL     OW 8731  11.804  11.389   8.525
 2300SOL    HW1 8732  11.846  11.386   8.611
 2300SOL    HW2 8733  11.710  11.386   8.544
 2301SOL     OW 8734   6.327  10.422  13.136
 2301SOL    HW1 8735   6.288  10.358  13.195
 2301SOL    HW2 8736   6.325  10.504  13.185
 2302SOL     OW 8737   3.360   6.874   8.706
 2302SOL    HW1 8738   3.337   6.788   8.741
 2302SOL    HW2 8739   3.354   6.865   8.611
 2303SOL     OW 8740   9.821  14.551   3.783
 2303SOL    HW1 8741   9.822  14.488   3.855
 2303SOL    HW2 8742   9.773  14.506   3.713
 2304SOL     OW 8743   5.938  13.416  13.805
 2304SOL    HW1 8744   5.987  13.339  13.776
 2304SOL    HW2 8745   5.935  13.473  13.728
 2305SOL     OW 8746   6.154   1.691   0.488
 2305SOL    HW1 8747   6.152   1.667   0.581
 2305SOL    HW2 8748   6.124   1.782   0.486
 2306SOL     OW 8749   3.314   1.281   8.376
 2306SOL    HW1 8750   3.302   1.266   8.469
 2306SOL    HW2 8751   3.397   1.238   8.355
 2307SOL     OW 8752  11.265  13.790  14.352
 2307SOL    HW1 8753  11.320  13.794  14.430
 2307SOL    HW2 8754  11.234  13.700  14.350
 2308SOL     OW 8755   8.562   1.869   5.609
 2308SOL    HW1 8756   8.597   1.958   5.604
 2308SOL    HW2 8757   8.600   1.833   5.689
 2309SOL     OW 8758  11.179  13.771   1.352
 2309SOL    HW1 8759  11.217  13.705   1.409
 2309SOL    HW2 8760  11.179  13.851   1.405
 2310SOL     OW 8761  12.915   8.909  13.262
 2310SOL    HW1 8762  12.857   8.895  13.337
 2310SOL    HW2 8763  12.929   8.822  13.225
 2311SOL     OW 8764  10.960   1.669  12.804
 2311SOL    HW1 8765  11.047   1.709  12.793
 2311SOL    HW2 8766  10.965   1.627  12.890
 2312SOL     OW 8767   0.556   9.527   7.420
 2312SOL    HW1 8768   0.630   9.579   7.390
 2312SOL    HW2 8769   0.566   9.443   7.376
 2313SOL     OW 8770   4.329  10.499   8.000
 2313SOL    HW1 8771   4.373  10.431   7.950
 2313SOL    HW2 8772   4.399  10.561   8.023
 2314SOL     OW 8773   9.085  12.165   9.219
 2314SOL    HW1 8774   9.134  12.148   9.300
 2314SOL    HW2 8775   9.117  12.098   9.158
 2315SOL     OW 8776   7.535   5.578   9.752
 2315SOL    HW1 8777   7.470   5.587   9.821
 2315SOL    HW2 8778   7.560   5.668   9.730
 2316SOL     OW 8779  10.185   0.851  13.645
 2316SOL    HW1 8780  10.146   0.763  13.651
 2316SOL    HW2 8781  10.280   0.835  13.640
 2317SOL     OW 8782   0.856   5.427   1.496
 2317SOL    HW1 8783   0.788   5.484   1.532
 2317SOL    HW2 8784   0.812   5.343   1.481
 2318SOL     OW 8785   6.579   3.570   9.433
 2318SOL    HW1 8786   6.658   3.516   9.438
 2318SOL    HW2 8787   6.597   3.633   9.364
 2319SOL     OW 8788  12.773  10.301   9.620
 2319SOL    HW1 8789  12.710  10.265   9.682
 2319SOL    HW2 8790  12.858  10.273   9.655
 2320SOL     OW 8791  10.510   9.558  12.863
 2320SOL    HW1 8792  10.561   9.626  12.818
 2320SOL    HW2 8793  10.477   9.502  12.793
 2321SOL     OW 8794  13.658  13.718  11.481
 2321SOL    HW1 8795  13.712  13.760  11.548
 2321SOL    HW2 8796  13.590  13.672  11.531
 2322SOL     OW 8797  12.263   6.767   7.612
 2322SOL    HW1 8798  12.224   6.723   7.536
 2322SOL    HW2 8799  12.198   6.833   7.637
 2323SOL     OW 8800  11.529  13.246  13.498
 2323SOL    HW1 8801  11.505  13.295  13.420
 2323SOL    HW2 8802  11.621  13.223  13.485
 2324SOL     OW 8803   6.463   5.842   4.668
 2324SOL    HW1 8804   6.379   5.799   4.683
 2324SOL    HW2 8805   6.450   5.932   4.700
 2325SOL     OW 8806   7.364   9.479  10.353
 2325SOL    HW1 8807   7.307   9.416  10.311
 2325SOL    HW2 8808   7.439   9.488  10.294
 2326SOL     OW 8809   9.345  12.849   8.655
 2326SOL    HW1 8810   9.438  12.867   8.667
 2326SOL    HW2 8811   9.339  12.801   8.573
 2327SOL     OW 8812   9.794   3.960   3.224
 2327SOL    HW1 8813   9.873   3.928   3.180
 2327SOL    HW2 8814   9.790   4.053   3.200
 2328SOL     OW 8815   6.987  13.648   0.279
 2328SOL    HW1 8816   6.973  13.708   0.206
 2328SOL    HW2 8817   6.940  13.568   0.255
 2329SOL     OW 8818  12.997   5.957  14.268
 2329SOL    HW1 8819  12.968   5.948  14.359
 2329SOL    HW2 8820  12.989   5.869  14.231
 2330SOL     OW 8821   9.089   3.743   3.516
 2330SOL    HW1 8822   9.135   3.694   3.447
 2330SOL    HW2 8823   9.062   3.676   3.579
 2331SOL     OW 8824   2.696  11.521   9.573
 2331SOL    HW1 8825   2.670  11.431   9.552
 2331SOL    HW2 8826   2.679  11.570   9.492
 2332SOL     OW 8827   9.294  11.391  14.524
 2332SOL    HW1 8828   9.345  11.320  14.484
 2332SOL    HW2 8829   9.210  11.389  14.478
 2333SOL     OW 8830   3.110   4.541   6.608
 2333SOL    HW1 8831   3.097   4.559   6.515
 2333SOL    HW2 8832   3.037   4.485   6.632
 2334SOL     OW 8833  14.578   9.631  14.273
 2334SOL    HW1 8834  14.582   9.725  14.254
 2334SOL    HW2 8835  14.503   9.600  14.222
 2335SOL     OW 8836  12.414   5.703   7.332
 2335SOL    HW1 8837  12.466   5.775   7.368
 2335SOL    HW2 8838  12.436   5.628   7.387
 2336SOL     OW 8839   4.415   9.521  10.148
 2336SOL    HW1 8840   4.509   9.509  10.167
 2336SOL    HW2 8841   4.375   9.438  10.175
 2337SOL     OW 8842   8.218   6.567   3.449
 2337SOL    HW1 8843   8.164   6.536   3.522
 2337SOL    HW2 8844   8.224   6.662   3.461
 2338SOL     OW 8845   7.093  11.087   1.083
 2338SOL    HW1 8846   7.165  11.085   1.020
 2338SOL    HW2 8847   7.019  11.119   1.033
 2339SOL     OW 8848   5.332   5.053  13.184
 2339SOL    HW1 8849   5.356   5.067  13.276
 2339SOL    HW2 8850   5.382   5.120  13.137
 2340SOL     OW 8851   8.608   4.303  14.717
 2340SOL    HW1 8852   8.650   4.227  14.677
 2340SOL    HW2 8853   8.548   4.336  14.650
 2341SOL     OW 8854   4.017   7.529  11.080
 2341SOL    HW1 8855   3.940   7.478  11.058
 2341SOL    HW2 8856   4.065   7.474  11.142
 2342SOL     OW 8857   4.305   3.650   1.241
 2342SOL    HW1 8858   4.238   3.684   1.182
 2342SOL    HW2 8859   4.264   3.651   1.328
 2343SOL     OW 8860   3.922  11.215  12.688
 2343SOL    HW1 8861   3.914  11.120  12.691
 2343SOL    HW2 8862   3.905  11.237  12.596
 2344SOL     OW 8863  13.562   2.207   1.811
 2344SOL    HW1 8864  13.554   2.293   1.854
 2344SOL    HW2 8865  13.482   2.198   1.759
 2345SOL     OW 8866   1.307   0.108   3.893
 2345SOL    HW1 8867   1.277   0.098   3.983
 2345SOL    HW2 8868   1.299   0.021   3.855
 2346SOL     OW 8869   0.829   3.075  12.564
 2346SOL    HW1 8870   0.865   2.989  12.587
 2346SOL    HW2 8871   0.739   3.057  12.538
 2347SOL     OW 8872  11.316   3.219  14.819
 2347SOL    HW1 8873  11.296   3.268  14.739
 2347SOL    HW2 8874  11.273   3.135  14.807
 2348SOL     OW 8875  13.227   9.025   7.316
 2348SOL    HW1 8876  13.141   9.044   7.278
 2348SOL    HW2 8877  13.267   9.111   7.328
 2349SOL     OW 8878  14.547   1.963   7.712
 2349SOL    HW1 8879  14.452   1.955   7.716
 2349SOL    HW2 8880  14.563   2.031   7.647
 2350SOL     OW 8881   2.933   0.943   6.778
 2350SOL    HW1 8882   2.983   1.022   6.794
 2350SOL    HW2 8883   2.842   0.967   6.799
 2351SOL     OW 8884  14.760   6.550   1.003
 2351SOL    HW1 8885  14.759   6.455   1.002
 2351SOL    HW2 8886  14.845   6.574   1.039
 2352SOL     OW 8887  11.775  12.996  12.995
 2352SOL    HW1 8888  11.691  12.989  12.949
 2352SOL    HW2 8889  11.752  12.988  13.088
 2353SOL     OW 8890   0.578   0.296   4.807
 2353SOL    HW1 8891   0.574   0.265   4.716
 2353SOL    HW2 8892   0.620   0.224   4.855
 2354SOL     OW 8893   7.739   6.864   7.145
 2354SOL    HW1 8894   7.817   6.866   7.200
 2354SOL    HW2 8895   7.690   6.942   7.170
 2355SOL     OW 8896   2.697  10.615   3.456
 2355SOL    HW1 8897   2.642  10.581   3.526
 2355SOL    HW2 8898   2.638  10.667   3.402
 2356SOL     OW 8899  11.751  10.573   7.666
 2356SOL    HW1 8900  11.697  10.651   7.678
 2356SOL    HW2 8901  11.738  10.548   7.575
 2357SOL     OW 8902   4.379   4.558  10.160
 2357SOL    HW1 8903   4.375   4.533  10.252
 2357SOL    HW2 8904   4.446   4.501  10.122
 2358SOL     OW 8905   3.899   8.330  12.136
 2358SOL    HW1 8906   3.835   8.401  12.127
 2358SOL    HW2 8907   3.877   8.289  12.220
 2359SOL     OW 8908  11.559   9.295   1.819
 2359SOL    HW1 8909  11.575   9.228   1.886
 2359SOL    HW2 8910  11.473   9.272   1.783
 2360SOL     OW 8911   9.349  12.228  13.443
 2360SOL    HW1 8912   9.302  12.157  13.400
 2360SOL    HW2 8913   9.440  12.198  13.447
 2361SOL     OW 8914  13.413  13.931  10.250
 2361SOL    HW1 8915  13.374  14.014  10.224
 2361SOL    HW2 8916  13.354  13.865  10.214
 2362SOL     OW 8917   0.077   7.164  13.222
 2362SOL    HW1 8918   0.100   7.257  13.223
 2362SOL    HW2 8919   0.150   7.122  13.176
 2363SOL     OW 8920   4.532  11.204   3.814
 2363SOL    HW1 8921   4.478  11.156   3.751
 2363SOL    HW2 8922   4.488  11.288   3.826
 2364SOL     OW 8923  12.327   3.432  10.809
 2364SOL    HW1 8924  12.382   3.356  10.789
 2364SOL    HW2 8925  12.384   3.491  10.859
 2365SOL     OW 8926   9.028   8.153   8.714
 2365SOL    HW1 8927   8.942   8.126   8.682
 2365SOL    HW2 8928   9.090   8.102   8.663
 2366SOL     OW 8929   9.671   5.625   7.562
 2366SOL    HW1 8930   9.656   5.531   7.559
 2366SOL    HW2 8931   9.723   5.643   7.484
 2367SOL     OW 8932   1.510  14.868   5.361
 2367SOL    HW1 8933   1.445  14.869   5.431
 2367SOL    HW2 8934   1.593   0.013   5.405
 2368SOL     OW 8935   2.108   2.612  11.278
 2368SOL    HW1 8936   2.203   2.617  11.268
 2368SOL    HW2 8937   2.078   2.571  11.197
 2369SOL     OW 8938   6.951   6.584   9.463
 2369SOL    HW1 8939   6.976   6.676   9.472
 2369SOL    HW2 8940   6.859   6.587   9.435
 2370SOL     OW 8941   0.159   0.777   6.959
 2370SOL    HW1 8942   0.089   0.728   6.915
 2370SOL    HW2 8943   0.113   0.849   7.002
 2371SOL     OW 8944  13.789   5.898   1.144
 2371SOL    HW1 8945  13.831   5.977   1.179
 2371SOL    HW2 8946  13.708   5.890   1.193
 2372SOL     OW 8947  10.996   6.954   6.488
 2372SOL    HW1 8948  10.960   6.875   6.529
 2372SOL    HW2 8949  11.053   6.920   6.418
 2373SOL     OW 8950  12.938   5.484   8.916
 2373SOL    HW1 8951  13.007   5.529   8.963
 2373SOL    HW2 8952  12.891   5.553   8.870
 2374SOL     OW 8953   4.413  10.238  11.218
 2374SOL    HW1 8954   4.503  10.236  11.186
 2374SOL    HW2 8955   4.421  10.259  11.311
 2375SOL     OW 8956  13.815  11.499   8.462
 2375SOL    HW1 8957  13.824  11.406   8.481
 2375SOL    HW2 8958  13.898  11.524   8.421
 2376SOL     OW 8959   8.757   3.026   3.518
 2376SOL    HW1 8960   8.743   2.946   3.569
 2376SOL    HW2 8961   8.803   3.084   3.579
 2377SOL     OW 8962   2.130  14.842   0.135
 2377SOL    HW1 8963   2.216  14.807   0.113
 2377SOL    HW2 8964   2.069  14.777   0.100
 2378SOL     OW 8965   2.395   7.717  10.402
 2378SOL    HW1 8966   2.387   7.648  10.468
 2378SOL    HW2 8967   2.359   7.795  10.445
 2379SOL     OW 8968   0.788   1.972   9.589
 2379SOL    HW1 8969   0.793   1.881   9.618
 2379SOL    HW2 8970   0.737   1.968   9.508
 2380SOL     OW 8971   6.672   4.466   3.854
 2380SOL    HW1 8972   6.740   4.527   3.825
 2380SOL    HW2 8973   6.691   4.451   3.946
 2381SOL     OW 8974   3.284   0.276   7.933
 2381SOL    HW1 8975   3.323   0.211   7.874
 2381SOL    HW2 8976   3.307   0.360   7.894
 2382SOL     OW 8977   7.880   9.836   8.183
 2382SOL    HW1 8978   7.917   9.903   8.240
 2382SOL    HW2 8979   7.945   9.824   8.114
 2383SOL     OW 8980   2.017   0.257   0.161
 2383SOL    HW1 8981   1.990   0.166   0.149
 2383SOL    HW2 8982   2.077   0.274   0.088
 2384SOL     OW 8983   7.126   2.011   3.737
 2384SOL    HW1 8984   7.036   1.982   3.750
 2384SOL    HW2 8985   7.123   2.064   3.657
 2385SOL     OW 8986  10.831   9.921   7.074
 2385SOL    HW1 8987  10.838   9.872   7.156
 2385SOL    HW2 8988  10.921   9.927   7.042
 2386SOL     OW 8989   2.263   7.625   9.354
 2386SOL    HW1 8990   2.262   7.559   9.424
 2386SOL    HW2 8991   2.326   7.691   9.384
 2387SOL     OW 8992   2.509   1.165   5.339
 2387SOL    HW1 8993   2.600   1.180   5.363
 2387SOL    HW2 8994   2.513   1.122   5.254
 2388SOL     OW 8995   8.872   9.911   7.256
 2388SOL    HW1 8996   8.850  10.004   7.263
 2388SOL    HW2 8997   8.847   9.874   7.341
 2389SOL     OW 8998   8.074   7.332  12.427
 2389SOL    HW1 8999   8.144   7.306  12.366
 2389SOL    HW2 9000   8.032   7.249  12.451
 2390SOL     OW 9001  11.274   0.288  13.344
 2390SOL    HW1 9002  11.266   0.374  13.304
 2390SOL    HW2 9003  11.262   0.227  13.272
 2391SOL     OW 9004   2.155   2.572   5.438
 2391SOL    HW1 9005   2.103   2.495   5.463
 2391SOL    HW2 9006   2.090   2.638   5.413
 2392SOL     OW 9007   0.511   6.035   7.301
 2392SOL    HW1 9008   0.430   6.057   7.255
 2392SOL    HW2 9009   0.495   5.948   7.338
 2393SOL     OW 9010   0.838   6.811   9.060
 2393SOL    HW1 9011   0.829   6.822   9.155
 2393SOL    HW2 9012   0.875   6.723   9.050
 2394SOL     OW 9013   5.527   8.476  13.361
 2394SOL    HW1 9014   5.490   8.562  13.381
 2394SOL    HW2 9015   5.519   8.427  13.444
 2395SOL     OW 9016  13.621   3.275  14.867
 2395SOL    HW1 9017  13.563   3.350  14.851
 2395SOL    HW2 9018  13.624   3.228  14.784
 2396SOL     OW 9019   3.639   0.768   1.751
 2396SOL    HW1 9020   3.664   0.812   1.670
 2396SOL    HW2 9021   3.543   0.767   1.749
 2397SOL     OW 9022   8.500   8.810   3.140
 2397SOL    HW1 9023   8.443   8.740   3.172
 2397SOL    HW2 9024   8.587   8.785   3.171
 2398SOL     OW 9025  11.929   5.773   4.542
 2398SOL    HW1 9026  11.877   5.744   4.466
 2398SOL    HW2 9027  11.985   5.842   4.507
 2399SOL     OW 9028  12.911   2.685  11.359
 2399SOL    HW1 9029  12.975   2.737  11.407
 2399SOL    HW2 9030  12.960   2.648  11.286
 2400SOL     OW 9031   8.371  12.275  14.214
 2400SOL    HW1 9032   8.390  12.244  14.303
 2400SOL    HW2 9033   8.449  12.324  14.188
 2401SOL     OW 9034   3.431  12.149  13.451
 2401SOL    HW1 9035   3.354  12.129  13.505
 2401SOL    HW2 9036   3.411  12.112  13.366
 2402SOL     OW 9037  13.185  10.433  13.243
 2402SOL    HW1 9038  13.228  10.348  13.252
 2402SOL    HW2 9039  13.114  10.431  13.308
 2403SOL     OW 9040   7.630   9.629   4.904
 2403SOL    HW1 9041   7.567   9.569   4.863
 2403SOL    HW2 9042   7.596   9.641   4.992
 2404SOL     OW 9043  11.219  10.047   7.389
 2404SOL    HW1 9044  11.285  10.115   7.380
 2404SOL    HW2 9045  11.266   9.973   7.429
 2405SOL     OW 9046   0.416   5.763   0.813
 2405SOL    HW1 9047   0.497   5.743   0.860
 2405SOL    HW2 9048   0.368   5.821   0.871
 2406SOL     OW 9049  14.122   3.219   0.817
 2406SOL    HW1 9050  14.118   3.135   0.862
 2406SOL    HW2 9051  14.192   3.209   0.753
 2407SOL     OW 9052  10.319   2.026  13.766
 2407SOL    HW1 9053  10.402   2.028  13.813
 2407SOL    HW2 9054  10.286   2.116  13.772
 2408SOL     OW 9055   7.299   0.740   5.462
 2408SOL    HW1 9056   7.319   0.810   5.523
 2408SOL    HW2 9057   7.318   0.777   5.376
 2409SOL     OW 9058  12.212  13.610   8.114
 2409SOL    HW1 9059  12.126  13.633   8.077
 2409SOL    HW2 9060  12.193  13.582   8.203
 2410SOL     OW 9061  10.665  12.542   4.646
 2410SOL    HW1 9062  10.724  12.519   4.574
 2410SOL    HW2 9063  10.627  12.625   4.619
 2411SOL     OW 9064   9.278  12.483   2.350
 2411SOL    HW1 9065   9.189  12.486   2.387
 2411SOL    HW2 9066   9.276  12.408   2.290
 2412SOL     OW 9067   6.145   7.150   8.892
 2412SOL    HW1 9068   6.136   7.136   8.798
 2412SOL    HW2 9069   6.070   7.106   8.930
 2413SOL     OW 9070   5.297   6.075  11.572
 2413SOL    HW1 9071   5.254   6.006  11.622
 2413SOL    HW2 9072   5.351   6.121  11.636
 2414SOL     OW 9073  10.328   5.149   9.369
 2414SOL    HW1 9074  10.295   5.232   9.334
 2414SOL    HW2 9075  10.380   5.112   9.297
 2415SOL     OW 9076  14.062   8.783   0.299
 2415SOL    HW1 9077  14.134   8.833   0.261
 2415SOL    HW2 9078  14.104   8.711   0.345
 2416SOL     OW 9079   9.029   8.487  10.831
 2416SOL    HW1 9080   9.052   8.459  10.742
 2416SOL    HW2 9081   8.934   8.481  10.834
 2417SOL     OW 9082   8.327   0.868  10.858
 2417SOL    HW1 9083   8.241   0.889  10.894
 2417SOL    HW2 9084   8.335   0.773  10.867
 2418SOL     OW 9085   4.375   9.856   7.500
 2418SOL    HW1 9086   4.282   9.842   7.519
 2418SOL    HW2 9087   4.420   9.790   7.553
 2419SOL     OW 9088  11.438   5.662   8.407
 2419SOL    HW1 9089  11.380   5.695   8.475
 2419SOL    HW2 9090  11.472   5.579   8.442
 2420SOL     OW 9091  10.036   5.388   5.295
 2420SOL    HW1 9092   9.950   5.405   5.257
 2420SOL    HW2 9093  10.066   5.309   5.252
 2421SOL     OW 9094   0.468   5.289   1.598
 2421SOL    HW1 9095   0.446   5.382   1.593
 2421SOL    HW2 9096   0.462   5.258   1.508
 2422SOL     OW 9097   7.293   1.796  14.164
 2422SOL    HW1 9098   7.296   1.720  14.106
 2422SOL    HW2 9099   7.205   1.795  14.201
 2423SOL     OW 9100   8.083   0.927  10.951
 2423SOL    HW1 9101   8.070   1.002  10.892
 2423SOL    HW2 9102   7.995   0.890  10.962
 2424SOL     OW 9103  11.744   6.853   5.946
 2424SOL    HW1 9104  11.766   6.916   5.876
 2424SOL    HW2 9105  11.766   6.899   6.027
 2425SOL     OW 9106  13.283   9.965  10.984
 2425SOL    HW1 9107  13.203  10.012  11.007
 2425SOL    HW2 9108  13.287   9.969  10.889
 2426SOL     OW 9109   5.881   5.774   1.741
 2426SOL    HW1 9110   5.949   5.799   1.804
 2426SOL    HW2 9111   5.897   5.681   1.723
 2427SOL     OW 9112   0.123   1.456  10.937
 2427SOL    HW1 9113   0.035   1.424  10.916
 2427SOL    HW2 9114   0.173   1.444  10.857
 2428SOL     OW 9115   2.929   7.768   2.286
 2428SOL    HW1 9116   2.911   7.841   2.226
 2428SOL    HW2 9117   2.884   7.694   2.247
 2429SOL     OW 9118   8.243   7.237  13.585
 2429SOL    HW1 9119   8.209   7.148  13.601
 2429SOL    HW2 9120   8.337   7.229  13.602
 2430SOL     OW 9121   6.551   6.428   5.579
 2430SOL    HW1 9122   6.636   6.389   5.558
 2430SOL    HW2 9123   6.531   6.482   5.503
 2431SOL     OW 9124   0.190   7.497   9.652
 2431SOL    HW1 9125   0.210   7.536   9.737
 2431SOL    HW2 9126   0.186   7.571   9.591
 2432SOL     OW 9127   4.279   7.864  14.311
 2432SOL    HW1 9128   4.362   7.910  14.303
 2432SOL    HW2 9129   4.269   7.817  14.228
 2433SOL     OW 9130  14.273   8.304   5.431
 2433SOL    HW1 9131  14.243   8.220   5.465
 2433SOL    HW2 9132  14.296   8.355   5.509
 2434SOL     OW 9133  10.727   9.827  13.532
 2434SOL    HW1 9134  10.758   9.783  13.453
 2434SOL    HW2 9135  10.713   9.756  13.595
 2435SOL     OW 9136   2.409   6.332   6.483
 2435SOL    HW1 9137   2.347   6.323   6.410
 2435SOL    HW2 9138   2.468   6.258   6.473
 2436SOL     OW 9139   7.293   0.881  11.968
 2436SOL    HW1 9140   7.302   0.971  12.001
 2436SOL    HW2 9141   7.261   0.831  12.042
 2437SOL     OW 9142  14.302   8.104  14.785
 2437SOL    HW1 9143  14.332   8.191  14.760
 2437SOL    HW2 9144  14.320   8.098   0.006
 2438SOL     OW 9145   1.860   9.293   7.022
 2438SOL    HW1 9146   1.872   9.198   7.032
 2438SOL    HW2 9147   1.765   9.303   7.010
 2439SOL     OW 9148   3.690   4.437   6.423
 2439SOL    HW1 9149   3.640   4.475   6.351
 2439SOL    HW2 9150   3.753   4.506   6.448
 2440SOL     OW 9151  12.314   2.117  10.808
 2440SOL    HW1 9152  12.327   2.059  10.883
 2440SOL    HW2 9153  12.302   2.204  10.846
 2441SOL     OW 9154   8.757   7.132  12.685
 2441SOL    HW1 9155   8.827   7.115  12.748
 2441SOL    HW2 9156   8.749   7.227  12.684
 2442SOL     OW 9157   3.089  12.576   5.810
 2442SOL    HW1 9158   3.045  12.661   5.798
 2442SOL    HW2 9159   3.180  12.593   5.785
 2443SOL     OW 9160  11.744   9.975   6.568
 2443SOL    HW1 9161  11.772   9.907   6.508
 2443SOL    HW2 9162  11.718   9.927   6.647
 2444SOL     OW 9163  12.958   3.449   6.556
 2444SOL    HW1 9164  12.940   3.356   6.541
 2444SOL    HW2 9165  13.004   3.477   6.477
 2445SOL     OW 9166  11.164  12.391  10.630
 2445SOL    HW1 9167  11.123  12.378  10.715
 2445SOL    HW2 9168  11.225  12.318  10.620
 2446SOL     OW 9169   1.917  12.415   7.713
 2446SOL    HW1 9170   1.936  12.504   7.685
 2446SOL    HW2 9171   1.925  12.362   7.634
 2447SOL     OW 9172   3.376  10.110  11.835
 2447SOL    HW1 9173   3.443  10.178  11.842
 2447SOL    HW2 9174   3.294  10.158  11.821
 2448SOL     OW 9175   4.662   0.416  13.034
 2448SOL    HW1 9176   4.758   0.425  13.034
 2448SOL    HW2 9177   4.633   0.474  12.963
 2449SOL     OW 9178  12.030   4.523   4.849
 2449SOL    HW1 9179  12.061   4.459   4.913
 2449SOL    HW2 9180  12.108   4.549   4.801
 2450SOL     OW 9181   1.269   4.023  11.451
 2450SOL    HW1 9182   1.186   4.022  11.402
 2450SOL    HW2 9183   1.243   4.046  11.540
 2451SOL     OW 9184   2.101  13.008   7.110
 2451SOL    HW1 9185   2.024  13.057   7.079
 2451SOL    HW2 9186   2.171  13.034   7.051
 2452SOL     OW 9187  13.663   1.387   7.228
 2452SOL    HW1 9188  13.576   1.420   7.250
 2452SOL    HW2 9189  13.717   1.410   7.304
 2453SOL     OW 9190   6.473  10.010   1.565
 2453SOL    HW1 9191   6.429   9.954   1.501
 2453SOL    HW2 9192   6.511  10.080   1.513
 2454SOL     OW 9193   0.074  12.449   7.538
 2454SOL    HW1 9194   0.008  12.471   7.604
 2454SOL    HW2 9195   0.083  12.354   7.543
 2455SOL     OW 9196   7.962   7.455   4.991
 2455SOL    HW1 9197   7.975   7.525   4.928
 2455SOL    HW2 9198   8.034   7.465   5.053
 2456SOL     OW 9199   6.433   8.773   6.347
 2456SOL    HW1 9200   6.351   8.817   6.329
 2456SOL    HW2 9201   6.437   8.701   6.284
 2457SOL     OW 9202   3.215   3.093   7.259
 2457SOL    HW1 9203   3.264   3.167   7.295
 2457SOL    HW2 9204   3.127   3.102   7.295
 2458SOL     OW 9205   2.457  12.151   9.958
 2458SOL    HW1 9206   2.442  12.072   9.906
 2458SOL    HW2 9207   2.479  12.218   9.894
 2459SOL     OW 9208   9.517   2.476  11.382
 2459SOL    HW1 9209   9.470   2.467  11.465
 2459SOL    HW2 9210   9.457   2.522  11.324
 2460SOL     OW 9211   3.698   2.177   5.291
 2460SOL    HW1 9212   3.758   2.249   5.310
 2460SOL    HW2 9213   3.733   2.103   5.342
 2461SOL     OW 9214   9.335   7.280   6.248
 2461SOL    HW1 9215   9.413   7.234   6.280
 2461SOL    HW2 9216   9.370   7.354   6.199
 2462SOL     OW 9217  14.145  10.955  11.080
 2462SOL    HW1 9218  14.088  11.009  11.026
 2462SOL    HW2 9219  14.150  10.871  11.034
 2463SOL     OW 9220   1.193  11.719  13.320
 2463SOL    HW1 9221   1.174  11.806  13.356
 2463SOL    HW2 9222   1.108  11.686  13.291
 2464SOL     OW 9223   3.327   9.511   8.081
 2464SOL    HW1 9224   3.405   9.506   8.025
 2464SOL    HW2 9225   3.257   9.471   8.029
 2465SOL     OW 9226   9.450  11.376   6.905
 2465SOL    HW1 9227   9.429  11.328   6.825
 2465SOL    HW2 9228   9.546  11.377   6.909
 2466SOL     OW 9229   4.090   8.033  10.151
 2466SOL    HW1 9230   4.036   7.957  10.126
 2466SOL    HW2 9231   4.172   7.995  10.182
 2467SOL     OW 9232  11.332   2.416   1.192
 2467SOL    HW1 9233  11.351   2.508   1.210
 2467SOL    HW2 9234  11.310   2.414   1.099
 2468SOL     OW 9235   0.296   2.607  11.054
 2468SOL    HW1 9236   0.202   2.598  11.072
 2468SOL    HW2 9237   0.334   2.629  11.139
 2469SOL     OW 9238   2.237   9.839  12.612
 2469SOL    HW1 9239   2.309   9.902  12.603
 2469SOL    HW2 9240   2.159   9.887  12.583
 2470SOL     OW 9241   2.998   8.973   0.257
 2470SOL    HW1 9242   2.914   8.951   0.297
 2470SOL    HW2 9243   3.022   8.895   0.206
 2471SOL     OW 9244  12.199   7.503  11.884
 2471SOL    HW1 9245  12.165   7.538  11.967
 2471SOL    HW2 9246  12.183   7.409  11.889
 2472SOL     OW 9247  13.284   0.658   7.242
 2472SOL    HW1 9248  13.219   0.618   7.185
 2472SOL    HW2 9249  13.363   0.604   7.232
 2473SOL     OW 9250  14.262  11.235   1.148
 2473SOL    HW1 9251  14.243  11.271   1.061
 2473SOL    HW2 9252  14.186  11.258   1.201
 2474SOL     OW 9253   2.624  11.991   4.140
 2474SOL    HW1 9254   2.575  12.044   4.202
 2474SOL    HW2 9255   2.682  11.937   4.194
 2475SOL     OW 9256   8.118  13.844  10.992
 2475SOL    HW1 9257   8.143  13.936  10.983
 2475SOL    HW2 9258   8.036  13.846  11.041
 2476SOL     OW 9259   8.085   1.962  12.274
 2476SOL    HW1 9260   8.069   1.984  12.182
 2476SOL    HW2 9261   8.164   2.011  12.297
 2477SOL     OW 9262  10.660  12.171   4.949
 2477SOL    HW1 9263  10.642  12.170   4.855
 2477SOL    HW2 9264  10.573  12.169   4.990
 2478SOL     OW 9265   3.915   1.293   7.023
 2478SOL    HW1 9266   3.890   1.367   7.078
 2478SOL    HW2 9267   3.870   1.308   6.940
 2479SOL     OW 9268   3.651  10.426   3.617
 2479SOL    HW1 9269   3.565  10.460   3.592
 2479SOL    HW2 9270   3.632  10.355   3.678
 2480SOL     OW 9271   3.437   9.671   3.091
 2480SOL    HW1 9272   3.492   9.594   3.110
 2480SOL    HW2 9273   3.378   9.642   3.021
 2481SOL     OW 9274  12.856   5.930  12.163
 2481SOL    HW1 9275  12.786   5.865  12.165
 2481SOL    HW2 9276  12.859   5.959  12.072
 2482SOL     OW 9277  12.395   7.350  14.428
 2482SOL    HW1 9278  12.355   7.437  14.434
 2482SOL    HW2 9279  12.485   7.362  14.459
 2483SOL     OW 9280  13.660   9.805   7.140
 2483SOL    HW1 9281  13.582   9.857   7.120
 2483SOL    HW2 9282  13.627   9.733   7.194
 2484SOL     OW 9283  10.905   5.881   7.251
 2484SOL    HW1 9284  10.927   5.974   7.266
 2484SOL    HW2 9285  10.822   5.883   7.204
 2485SOL     OW 9286   1.379   6.802  11.476
 2485SOL    HW1 9287   1.449   6.862  11.501
 2485SOL    HW2 9288   1.305   6.827  11.530
 2486SOL     OW 9289   1.994   9.919   6.081
 2486SOL    HW1 9290   1.959   9.834   6.108
 2486SOL    HW2 9291   2.066   9.935   6.141
 2487SOL     OW 9292   3.885  11.423   0.011
 2487SOL    HW1 9293   3.915  11.336   0.040
 2487SOL    HW2 9294   3.833  11.405  14.805
 2488SOL     OW 9295   0.293   0.902  11.686
 2488SOL    HW1 9296   0.205   0.906  11.725
 2488SOL    HW2 9297   0.286   0.957  11.608
 2489SOL     OW 9298   9.218  13.951   5.147
 2489SOL    HW1 9299   9.232  13.983   5.236
 2489SOL    HW2 9300   9.139  13.898   5.152
 2490SOL     OW 9301   2.713   7.899   5.885
 2490SOL    HW1 9302   2.791   7.904   5.940
 2490SOL    HW2 9303   2.640   7.903   5.946
 2491SOL     OW 9304   2.796   6.263   3.407
 2491SOL    HW1 9305   2.796   6.358   3.398
 2491SOL    HW2 9306   2.746   6.245   3.487
 2492SOL     OW 9307   2.829   4.374   3.419
 2492SOL    HW1 9308   2.919   4.349   3.399
 2492SOL    HW2 9309   2.825   4.467   3.399
 2493SOL     OW 9310   8.043   6.441   0.852
 2493SOL    HW1 9311   8.095   6.518   0.872
 2493SOL    HW2 9312   7.956   6.475   0.832
 2494SOL     OW 9313   4.554  14.116  10.579
 2494SOL    HW1 9314   4.646  14.141  10.584
 2494SOL    HW2 9315   4.510  14.191  10.539
 2495SOL     OW 9316   4.520  10.824   3.955
 2495SOL    HW1 9317   4.459  10.793   4.022
 2495SOL    HW2 9318   4.464  10.844   3.880
 2496SOL     OW 9319   6.269  11.786   1.942
 2496SOL    HW1 9320   6.340  11.816   1.886
 2496SOL    HW2 9321   6.297  11.700   1.973
 2497SOL     OW 9322  13.147  14.362   3.983
 2497SOL    HW1 9323  13.087  14.288   3.993
 2497SOL    HW2 9324  13.226  14.336   4.030
 2498SOL     OW 9325   0.985  12.315   0.020
 2498SOL    HW1 9326   1.073  12.351   0.008
 2498SOL    HW2 9327   0.931  12.392   0.038
 2499SOL     OW 9328   3.861  13.929   7.184
 2499SOL    HW1 9329   3.822  13.980   7.113
 2499SOL    HW2 9330   3.953  13.921   7.160
 2500SOL     OW 9331   6.018   9.154  12.537
 2500SOL    HW1 9332   6.062   9.238  12.526
 2500SOL    HW2 9333   5.924   9.175  12.536
 2501SOL     OW 9334   5.049   2.297   0.283
 2501SOL    HW1 9335   4.995   2.218   0.282
 2501SOL    HW2 9336   4.989   2.365   0.315
 2502SOL     OW 9337   4.143  14.353   0.981
 2502SOL    HW1 9338   4.062  14.308   1.003
 2502SOL    HW2 9339   4.211  14.309   1.033
 2503SOL     OW 9340   3.831   7.876  11.954
 2503SOL    HW1 9341   3.919   7.914  11.948
 2503SOL    HW2 9342   3.774   7.951  11.971
 2504SOL     OW 9343  10.777   1.872   1.819
 2504SOL    HW1 9344  10.817   1.951   1.782
 2504SOL    HW2 9345  10.700   1.904   1.865
 2505SOL     OW 9346   3.864   0.809  14.634
 2505SOL    HW1 9347   3.862   0.876  14.565
 2505SOL    HW2 9348   3.919   0.847  14.702
 2506SOL     OW 9349   9.321   0.953   0.910
 2506SOL    HW1 9350   9.285   0.864   0.912
 2506SOL    HW2 9351   9.330   0.973   0.817
 2507SOL     OW 9352   4.156   6.071   2.898
 2507SOL    HW1 9353   4.172   6.065   2.804
 2507SOL    HW2 9354   4.065   6.097   2.905
 2508SOL     OW 9355   7.836  10.764   6.503
 2508SOL    HW1 9356   7.885  10.685   6.481
 2508SOL    HW2 9357   7.897  10.815   6.556
 2509SOL     OW 9358   5.653  13.681   6.370
 2509SOL    HW1 9359   5.608  13.719   6.294
 2509SOL    HW2 9360   5.663  13.588   6.348
 2510SOL     OW 9361   2.484   4.822   3.821
 2510SOL    HW1 9362   2.542   4.896   3.842
 2510SOL    HW2 9363   2.542   4.746   3.817
 2511SOL     OW 9364  14.742   4.157  14.453
 2511SOL    HW1 9365  14.689   4.227  14.490
 2511SOL    HW2 9366  14.768   4.104  14.528
 2512SOL     OW 9367   7.955  12.811   2.033
 2512SOL    HW1 9368   7.894  12.855   2.092
 2512SOL    HW2 9369   7.914  12.727   2.014
 2513SOL     OW 9370   3.031   9.924   9.368
 2513SOL    HW1 9371   2.996   9.918   9.457
 2513SOL    HW2 9372   3.005  10.012   9.338
 2514SOL     OW 9373   9.072  12.856   8.397
 2514SOL    HW1 9374   9.045  12.946   8.382
 2514SOL    HW2 9375   9.061  12.842   8.491
 2515SOL     OW 9376  14.359   1.558   3.538
 2515SOL    HW1 9377  14.349   1.467   3.567
 2515SOL    HW2 9378  14.348   1.554   3.443
 2516SOL     OW 9379   3.979  12.112   7.194
 2516SOL    HW1 9380   4.062  12.076   7.223
 2516SOL    HW2 9381   3.953  12.059   7.119
 2517SOL     OW 9382   3.306   2.097  10.504
 2517SOL    HW1 9383   3.386   2.099  10.452
 2517SOL    HW2 9384   3.316   2.021  10.561
 2518SOL     OW 9385   7.466   2.902  14.153
 2518SOL    HW1 9386   7.496   2.983  14.112
 2518SOL    HW2 9387   7.370   2.907  14.149
 2519SOL     OW 9388   5.686   5.810   5.991
 2519SOL    HW1 9389   5.605   5.777   6.030
 2519SOL    HW2 9390   5.715   5.879   6.051
 2520SOL     OW 9391  12.210   2.250  12.140
 2520SOL    HW1 9392  12.220   2.233  12.047
 2520SOL    HW2 9393  12.241   2.171  12.183
 2521SOL     OW 9394  12.367   1.874  13.282
 2521SOL    HW1 9395  12.327   1.848  13.365
 2521SOL    HW2 9396  12.321   1.954  13.257
 2522SOL     OW 9397   1.442  13.190   6.074
 2522SOL    HW1 9398   1.533  13.178   6.099
 2522SOL    HW2 9399   1.446  13.218   5.983
 2523SOL     OW 9400   1.049   5.605   8.902
 2523SOL    HW1 9401   1.106   5.669   8.944
 2523SOL    HW2 9402   0.970   5.604   8.957
 2524SOL     OW 9403   5.403   5.249   7.782
 2524SOL    HW1 9404   5.430   5.336   7.751
 2524SOL    HW2 9405   5.368   5.266   7.870
 2525SOL     OW 9406   5.099  10.963   3.072
 2525SOL    HW1 9407   5.165  10.961   3.141
 2525SOL    HW2 9408   5.145  10.996   2.995
 2526SOL     OW 9409   9.300   8.010  10.668
 2526SOL    HW1 9410   9.264   7.928  10.632
 2526SOL    HW2 9411   9.226   8.050  10.714
 2527SOL     OW 9412   5.425   2.227   0.119
 2527SOL    HW1 9413   5.510   2.190   0.094
 2527SOL    HW2 9414   5.370   2.214   0.041
 2528SOL     OW 9415   9.248   1.628  10.286
 2528SOL    HW1 9416   9.230   1.631  10.380
 2528SOL    HW2 9417   9.178   1.680  10.246
 2529SOL     OW 9418  14.611   4.931  10.624
 2529SOL    HW1 9419  14.648   4.926  10.712
 2529SOL    HW2 9420  14.684   4.908  10.566
 2530SOL     OW 9421  13.437  12.210  10.551
 2530SOL    HW1 9422  13.453  12.136  10.610
 2530SOL    HW2 9423  13.396  12.277  10.606
 2531SOL     OW 9424  11.372   1.008   1.900
 2531SOL    HW1 9425  11.391   0.940   1.836
 2531SOL    HW2 9426  11.312   1.067   1.856
 2532SOL     OW 9427   6.050  10.371   3.704
 2532SOL    HW1 9428   6.031  10.283   3.735
 2532SOL    HW2 9429   6.018  10.429   3.773
 2533SOL     OW 9430   1.834  10.399  11.543
 2533SOL    HW1 9431   1.862  10.390  11.452
 2533SOL    HW2 9432   1.910  10.436  11.589
 2534SOL     OW 9433  12.136   9.785   5.375
 2534SOL    HW1 9434  12.165   9.827   5.293
 2534SOL    HW2 9435  12.217   9.770   5.424
 2535SOL     OW 9436  13.671   6.370   1.661
 2535SOL    HW1 9437  13.583   6.404   1.644
 2535SOL    HW2 9438  13.700   6.417   1.739
 2536SOL     OW 9439   9.712   9.292   9.867
 2536SOL    HW1 9440   9.662   9.373   9.859
 2536SOL    HW2 9441   9.648   9.223   9.848
 2537SOL     OW 9442   3.796  14.212   1.585
 2537SOL    HW1 9443   3.736  14.200   1.658
 2537SOL    HW2 9444   3.739  14.221   1.508
 2538SOL     OW 9445   8.857  10.622   2.191
 2538SOL    HW1 9446   8.820  10.582   2.112
 2538SOL    HW2 9447   8.949  10.636   2.170
 2539SOL     OW 9448   8.616   6.801  14.452
 2539SOL    HW1 9449   8.708   6.827  14.457
 2539SOL    HW2 9450   8.604   6.743  14.527
 2540SOL     OW 9451   3.485   2.044   1.287
 2540SOL    HW1 9452   3.440   2.085   1.213
 2540SOL    HW2 9453   3.531   1.969   1.248
 2541SOL     OW 9454   4.188  13.816   6.424
 2541SOL    HW1 9455   4.178  13.736   6.474
 2541SOL    HW2 9456   4.185  13.886   6.490
 2542SOL     OW 9457  11.772  11.306   3.989
 2542SOL    HW1 9458  11.785  11.375   3.925
 2542SOL    HW2 9459  11.854  11.257   3.990
 2543SOL     OW 9460   1.093   2.478   8.262
 2543SOL    HW1 9461   1.100   2.538   8.335
 2543SOL    HW2 9462   1.177   2.486   8.217
 2544SOL     OW 9463  11.128   5.640   9.831
 2544SOL    HW1 9464  11.122   5.735   9.837
 2544SOL    HW2 9465  11.054   5.615   9.775
 2545SOL     OW 9466  12.850   6.542   9.471
 2545SOL    HW1 9467  12.799   6.614   9.435
 2545SOL    HW2 9468  12.787   6.490   9.521
 2546SOL     OW 9469   0.482   4.852   1.876
 2546SOL    HW1 9470   0.404   4.802   1.901
 2546SOL    HW2 9471   0.447   4.932   1.835
 2547SOL     OW 9472   0.986  11.432  14.142
 2547SOL    HW1 9473   0.890  11.434  14.144
 2547SOL    HW2 9474   1.012  11.437  14.234
 2548SOL     OW 9475   9.891   1.851  12.961
 2548SOL    HW1 9476   9.861   1.941  12.951
 2548SOL    HW2 9477   9.886   1.834  13.055
 2549SOL     OW 9478   4.469   5.941  10.309
 2549SOL    HW1 9479   4.562   5.951  10.331
 2549SOL    HW2 9480   4.424   5.948  10.393
 2550SOL     OW 9481   3.081   8.184   9.819
 2550SOL    HW1 9482   3.119   8.256   9.869
 2550SOL    HW2 9483   3.155   8.146   9.772
 2551SOL     OW 9484   7.199   9.602   3.299
 2551SOL    HW1 9485   7.228   9.511   3.302
 2551SOL    HW2 9486   7.114   9.599   3.257
 2552SOL     OW 9487  13.051   7.730   0.467
 2552SOL    HW1 9488  13.053   7.710   0.561
 2552SOL    HW2 9489  13.056   7.825   0.462
 2553SOL     OW 9490   2.651   1.882   6.213
 2553SOL    HW1 9491   2.714   1.944   6.176
 2553SOL    HW2 9492   2.603   1.849   6.137
 2554SOL     OW 9493  13.676   5.703   2.839
 2554SOL    HW1 9494  13.721   5.696   2.923
 2554SOL    HW2 9495  13.693   5.620   2.796
 2555SOL     OW 9496   1.846   8.566   9.092
 2555SOL    HW1 9497   1.888   8.597   9.173
 2555SOL    HW2 9498   1.897   8.490   9.065
 2556SOL     OW 9499   3.600   8.180   9.890
 2556SOL    HW1 9500   3.553   8.098   9.876
 2556SOL    HW2 9501   3.592   8.227   9.807
 2557SOL     OW 9502   2.079  12.319   1.773
 2557SOL    HW1 9503   2.164  12.317   1.728
 2557SOL    HW2 9504   2.101  12.327   1.865
 2558SOL     OW 9505   7.987   0.660   4.860
 2558SOL    HW1 9506   7.951   0.612   4.934
 2558SOL    HW2 9507   8.037   0.732   4.899
 2559SOL     OW 9508  11.116   9.446   7.267
 2559SOL    HW1 9509  11.050   9.395   7.220
 2559SOL    HW2 9510  11.066   9.495   7.333
 2560SOL     OW 9511   6.188  14.200  11.136
 2560SOL    HW1 9512   6.148  14.260  11.199
 2560SOL    HW2 9513   6.245  14.256  11.083
 2561SOL     OW 9514  14.853  10.442   2.863
 2561SOL    HW1 9515  14.782  10.475   2.918
 2561SOL    HW2 9516   0.055  10.432   2.922
 2562SOL     OW 9517   8.838   5.473   6.338
 2562SOL    HW1 9518   8.843   5.397   6.396
 2562SOL    HW2 9519   8.906   5.533   6.370
 2563SOL     OW 9520  13.591   9.865   7.875
 2563SOL    HW1 9521  13.676   9.859   7.919
 2563SOL    HW2 9522  13.575   9.777   7.842
 2564SOL     OW 9523   8.950   8.765   8.015
 2564SOL    HW1 9524   8.979   8.680   7.983
 2564SOL    HW2 9525   8.996   8.828   7.960
 2565SOL     OW 9526   7.484   6.731   9.207
 2565SOL    HW1 9527   7.568   6.772   9.187
 2565SOL    HW2 9528   7.473   6.664   9.139
 2566SOL     OW 9529  14.799   5.474  14.167
 2566SOL    HW1 9530  14.780   5.395  14.217
 2566SOL    HW2 9531  14.767   5.546  14.222
 2567SOL     OW 9532   6.272  11.094   6.463
 2567SOL    HW1 9533   6.287  11.187   6.480
 2567SOL    HW2 9534   6.204  11.093   6.396
 2568SOL     OW 9535   1.817   2.972   6.658
 2568SOL    HW1 9536   1.887   2.993   6.720
 2568SOL    HW2 9537   1.838   3.024   6.580
 2569SOL     OW 9538  12.793   5.533   0.883
 2569SOL    HW1 9539  12.854   5.602   0.909
 2569SOL    HW2 9540  12.712   5.553   0.929
 2570SOL     OW 9541   4.335   7.704   1.642
 2570SOL    HW1 9542   4.254   7.680   1.688
 2570SOL    HW2 9543   4.358   7.790   1.677
 2571SOL     OW 9544   2.544  12.039   4.901
 2571SOL    HW1 9545   2.489  12.089   4.961
 2571SOL    HW2 9546   2.633  12.053   4.933
 2572SOL     OW 9547   0.843  12.542  10.129
 2572SOL    HW1 9548   0.834  12.503  10.042
 2572SOL    HW2 9549   0.836  12.469  10.190
 2573SOL     OW 9550  11.432   5.488   7.357
 2573SOL    HW1 9551  11.425   5.444   7.442
 2573SOL    HW2 9552  11.447   5.417   7.294
 2574SOL     OW 9553   9.612   2.152   5.302
 2574SOL    HW1 9554   9.683   2.178   5.361
 2574SOL    HW2 9555   9.618   2.056   5.298
 2575SOL     OW 9556  13.052  14.675   5.685
 2575SOL    HW1 9557  12.999  14.623   5.746
 2575SOL    HW2 9558  13.036  14.636   5.599
 2576SOL     OW 9559  10.799  12.903  11.859
 2576SOL    HW1 9560  10.798  12.808  11.863
 2576SOL    HW2 9561  10.799  12.932  11.950
 2577SOL     OW 9562   3.890  13.266   6.890
 2577SOL    HW1 9563   3.805  13.306   6.872
 2577SOL    HW2 9564   3.871  13.197   6.953
 2578SOL     OW 9565   8.794  13.780   4.536
 2578SOL    HW1 9566   8.868  13.839   4.552
 2578SOL    HW2 9567   8.729  13.835   4.492
 2579SOL     OW 9568   7.635   1.852  10.151
 2579SOL    HW1 9569   7.565   1.901  10.195
 2579SOL    HW2 9570   7.657   1.782  10.213
 2580SOL     OW 9571  11.426   5.889   3.487
 2580SOL    HW1 9572  11.493   5.833   3.448
 2580SOL    HW2 9573  11.376   5.921   3.412
 2581SOL     OW 9574   4.948   2.682   9.982
 2581SOL    HW1 9575   4.967   2.686  10.076
 2581SOL    HW2 9576   4.944   2.588   9.963
 2582SOL     OW 9577   8.184   4.530   0.436
 2582SOL    HW1 9578   8.215   4.527   0.346
 2582SOL    HW2 9579   8.235   4.462   0.481
 2583SOL     OW 9580   5.665  11.717  14.434
 2583SOL    HW1 9581   5.616  11.643  14.398
 2583SOL    HW2 9582   5.683  11.692  14.525
 2584SOL     OW 9583   6.184  12.799   5.131
 2584SOL    HW1 9584   6.231  12.881   5.119
 2584SOL    HW2 9585   6.156  12.799   5.222
 2585SOL     OW 9586   6.467   0.038  13.596
 2585SOL    HW1 9587   6.431  14.827  13.626
 2585SOL    HW2 9588   6.546   0.013  13.548
 2586SOL     OW 9589   2.762   2.273   5.603
 2586SOL    HW1 9590   2.745   2.366   5.614
 2586SOL    HW2 9591   2.822   2.251   5.673
 2587SOL     OW 9592   4.746   8.172   8.005
 2587SOL    HW1 9593   4.798   8.110   7.953
 2587SOL    HW2 9594   4.802   8.195   8.079
 2588SOL     OW 9595   2.062  13.298   6.822
 2588SOL    HW1 9596   2.081  13.392   6.827
 2588SOL    HW2 9597   1.974  13.289   6.858
 2589SOL     OW 9598   4.445  12.958  10.854
 2589SOL    HW1 9599   4.517  12.969  10.792
 2589SOL    HW2 9600   4.442  12.863  10.870
 2590SOL     OW 9601   5.401   7.736   2.577
 2590SOL    HW1 9602   5.345   7.731   2.654
 2590SOL    HW2 9603   5.440   7.823   2.580
 2591SOL     OW 9604  11.752   1.319   4.552
 2591SOL    HW1 9605  11.752   1.414   4.560
 2591SOL    HW2 9606  11.797   1.288   4.630
 2592SOL     OW 9607   5.508   9.480   4.490
 2592SOL    HW1 9608   5.510   9.459   4.396
 2592SOL    HW2 9609   5.587   9.440   4.525
 2593SOL     OW 9610   6.809   2.081  12.597
 2593SOL    HW1 9611   6.804   2.119  12.684
 2593SOL    HW2 9612   6.775   2.149  12.538
 2594SOL     OW 9613   9.969   9.490   3.642
 2594SOL    HW1 9614   9.983   9.467   3.550
 2594SOL    HW2 9615   9.960   9.586   3.642
 2595SOL     OW 9616   1.380   9.495   5.774
 2595SOL    HW1 9617   1.420   9.530   5.695
 2595SOL    HW2 9618   1.405   9.556   5.843
 2596SOL     OW 9619   5.515   4.126   7.256
 2596SOL    HW1 9620   5.494   4.034   7.241
 2596SOL    HW2 9621   5.450   4.155   7.321
 2597SOL     OW 9622  12.039   0.599   6.501
 2597SOL    HW1 9623  12.106   0.601   6.570
 2597SOL    HW2 9624  11.972   0.661   6.530
 2598SOL     OW 9625   1.092   6.457   3.439
 2598SOL    HW1 9626   1.024   6.436   3.503
 2598SOL    HW2 9627   1.073   6.546   3.411
 2599SOL     OW 9628   2.360  12.882   7.335
 2599SOL    HW1 9629   2.431  12.922   7.385
 2599SOL    HW2 9630   2.402  12.845   7.258
 2600SOL     OW 9631   2.306  12.687   0.429
 2600SOL    HW1 9632   2.398  12.692   0.403
 2600SOL    HW2 9633   2.284  12.594   0.426
 2601SOL     OW 9634   0.613   3.065   3.543
 2601SOL    HW1 9635   0.622   3.112   3.461
 2601SOL    HW2 9636   0.652   2.979   3.527
 2602SOL     OW 9637  11.951   2.603   2.409
 2602SOL    HW1 9638  11.901   2.676   2.448
 2602SOL    HW2 9639  11.941   2.614   2.315
 2603SOL     OW 9640   1.774  11.460   7.674
 2603SOL    HW1 9641   1.774  11.369   7.642
 2603SOL    HW2 9642   1.682  11.487   7.668
 2604SOL     OW 9643  10.416   7.762   7.386
 2604SOL    HW1 9644  10.408   7.698   7.315
 2604SOL    HW2 9645  10.507   7.754   7.414
 2605SOL     OW 9646   9.420   0.117   3.284
 2605SOL    HW1 9647   9.370   0.036   3.287
 2605SOL    HW2 9648   9.380   0.168   3.213
 2606SOL     OW 9649   7.696   7.149   9.486
 2606SOL    HW1 9650   7.749   7.229   9.484
 2606SOL    HW2 9651   7.669   7.140   9.577
 2607SOL     OW 9652   0.279  12.044   1.589
 2607SOL    HW1 9653   0.293  12.135   1.562
 2607SOL    HW2 9654   0.338  12.032   1.663
 2608SOL     OW 9655   0.290  14.665   4.920
 2608SOL    HW1 9656   0.290  14.678   5.015
 2608SOL    HW2 9657   0.226  14.596   4.905
 2609SOL     OW 9658   1.684   6.083   9.883
 2609SOL    HW1 9659   1.621   6.067   9.953
 2609SOL    HW2 9660   1.722   5.997   9.864
 2610SOL     OW 9661   3.142   5.800  14.314
 2610SOL    HW1 9662   3.193   5.737  14.365
 2610SOL    HW2 9663   3.051   5.778  14.332
 2611SOL     OW 9664  14.255   0.781   2.500
 2611SOL    HW1 9665  14.333   0.831   2.477
 2611SOL    HW2 9666  14.234   0.732   2.421
 2612SOL     OW 9667  10.205   7.915   0.236
 2612SOL    HW1 9668  10.198   7.919   0.331
 2612SOL    HW2 9669  10.161   7.834   0.212
 2613SOL     OW 9670   9.695   2.734   7.466
 2613SOL    HW1 9671   9.787   2.719   7.486
 2613SOL    HW2 9672   9.656   2.761   7.549
 2614SOL     OW 9673  12.023   9.191   0.308
 2614SOL    HW1 9674  12.041   9.261   0.245
 2614SOL    HW2 9675  11.979   9.123   0.256
 2615SOL     OW 9676   6.408   0.040   6.687
 2615SOL    HW1 9677   6.317   0.015   6.701
 2615SOL    HW2 9678   6.449  14.835   6.648
 2616SOL     OW 9679  13.842  13.852   1.318
 2616SOL    HW1 9680  13.801  13.843   1.232
 2616SOL    HW2 9681  13.935  13.846   1.301
 2617SOL     OW 9682  10.587  12.728  10.229
 2617SOL    HW1 9683  10.617  12.807  10.274
 2617SOL    HW2 9684  10.495  12.719  10.256
 2618SOL     OW 9685   3.621   3.329  11.534
 2618SOL    HW1 9686   3.643   3.240  11.504
 2618SOL    HW2 9687   3.706   3.369  11.552
 2619SOL     OW 9688   0.019  12.552   2.606
 2619SOL    HW1 9689  14.802  12.519   2.592
 2619SOL    HW2 9690   0.014  12.645   2.584
 2620SOL     OW 9691  10.473   3.072   6.552
 2620SOL    HW1 9692  10.457   3.166   6.559
 2620SOL    HW2 9693  10.385   3.033   6.552
 2621SOL     OW 9694   4.674   4.020   8.493
 2621SOL    HW1 9695   4.679   4.085   8.564
 2621SOL    HW2 9696   4.608   3.958   8.522
 2622SOL     OW 9697   1.112   0.887   7.739
 2622SOL    HW1 9698   1.067   0.807   7.712
 2622SOL    HW2 9699   1.095   0.894   7.833
 2623SOL     OW 9700   3.522  14.630   7.817
 2623SOL    HW1 9701   3.555  14.680   7.742
 2623SOL    HW2 9702   3.435  14.601   7.789
 2624SOL     OW 9703   4.126   9.730   9.400
 2624SOL    HW1 9704   4.086   9.733   9.487
 2624SOL    HW2 9705   4.212   9.770   9.411
 2625SOL     OW 9706   7.853   4.879   4.978
 2625SOL    HW1 9707   7.883   4.944   5.041
 2625SOL    HW2 9708   7.774   4.842   5.016
 2626SOL     OW 9709   6.415   1.459   7.215
 2626SOL    HW1 9710   6.375   1.499   7.138
 2626SOL    HW2 9711   6.370   1.374   7.223
 2627SOL     OW 9712  10.286   1.405   2.251
 2627SOL    HW1 9713  10.316   1.455   2.175
 2627SOL    HW2 9714  10.363   1.398   2.307
 2628SOL     OW 9715   5.495   2.785  11.362
 2628SOL    HW1 9716   5.481   2.810  11.454
 2628SOL    HW2 9717   5.516   2.692  11.366
 2629SOL     OW 9718   1.582   6.583   0.986
 2629SOL    HW1 9719   1.487   6.587   1.000
 2629SOL    HW2 9720   1.596   6.501   0.939
 2630SOL     OW 9721   0.765   3.655   9.203
 2630SOL    HW1 9722   0.801   3.575   9.239
 2630SOL    HW2 9723   0.753   3.636   9.110
 2631SOL     OW 9724  11.777   3.439   2.813
 2631SOL    HW1 9725  11.865   3.407   2.830
 2631SOL    HW2 9726  11.754   3.489   2.892
 2632SOL     OW 9727  13.508   5.129   1.304
 2632SOL    HW1 9728  13.430   5.151   1.253
 2632SOL    HW2 9729  13.557   5.069   1.248
 2633SOL     OW 9730   8.402  13.368  11.465
 2633SOL    HW1 9731   8.382  13.376  11.372
 2633SOL    HW2 9732   8.480  13.313  11.468
 2634SOL     OW 9733   1.441   9.024  12.828
 2634SOL    HW1 9734   1.488   9.005  12.747
 2634SOL    HW2 9735   1.489   9.097  12.867
 2635SOL     OW 9736   6.167   8.991   5.850
 2635SOL    HW1 9737   6.169   8.985   5.946
 2635SOL    HW2 9738   6.225   8.921   5.820
 2636SOL     OW 9739  14.358  12.764   2.090
 2636SOL    HW1 9740  14.390  12.793   2.004
 2636SOL    HW2 9741  14.289  12.701   2.070
 2637SOL     OW 9742  12.988  14.142   3.665
 2637SOL    HW1 9743  12.968  14.214   3.606
 2637SOL    HW2 9744  12.905  14.095   3.675
 2638SOL     OW 9745   1.316   4.644   5.651
 2638SOL    HW1 9746   1.246   4.640   5.715
 2638SOL    HW2 9747   1.334   4.737   5.640
 2639SOL     OW 9748   4.703   9.178   3.517
 2639SOL    HW1 9749   4.652   9.234   3.458
 2639SOL    HW2 9750   4.644   9.105   3.537
 2640SOL     OW 9751  11.675   9.929  10.831
 2640SOL    HW1 9752  11.673   9.986  10.754
 2640SOL    HW2 9753  11.767   9.928  10.858
 2641SOL     OW 9754   8.055  13.886   3.301
 2641SOL    HW1 9755   8.092  13.968   3.333
 2641SOL    HW2 9756   8.130  13.836   3.269
 2642SOL     OW 9757  10.904   5.940   6.159
 2642SOL    HW1 9758  10.937   5.876   6.222
 2642SOL    HW2 9759  10.976   6.003   6.149
 2643SOL     OW 9760   2.224   8.021  13.484
 2643SOL    HW1 9761   2.173   7.940  13.480
 2643SOL    HW2 9762   2.222   8.046  13.576
 2644SOL     OW 9763   8.282  10.465  12.724
 2644SOL    HW1 9764   8.373  10.456  12.696
 2644SOL    HW2 9765   8.231  10.437  12.648
 2645SOL     OW 9766   2.496  13.301  13.497
 2645SOL    HW1 9767   2.438  13.277  13.569
 2645SOL    HW2 9768   2.472  13.391  13.475
 2646SOL     OW 9769  11.159   7.512   3.083
 2646SOL    HW1 9770  11.124   7.425   3.102
 2646SOL    HW2 9771  11.254   7.503   3.089
 2647SOL     OW 9772   1.757   7.661  11.938
 2647SOL    HW1 9773   1.756   7.676  11.843
 2647SOL    HW2 9774   1.690   7.595  11.952
 2648SOL     OW 9775   6.856  11.805  13.276
 2648SOL    HW1 9776   6.887  11.716  13.257
 2648SOL    HW2 9777   6.767  11.793  13.308
 2649SOL     OW 9778   0.119   9.223   1.632
 2649SOL    HW1 9779   0.196   9.275   1.609
 2649SOL    HW2 9780   0.125   9.145   1.576
 2650SOL     OW 9781  12.627   5.783   9.495
 2650SOL    HW1 9782  12.546   5.782   9.444
 2650SOL    HW2 9783  12.691   5.738   9.440
 2651SOL     OW 9784  11.769   7.188   2.360
 2651SOL    HW1 9785  11.863   7.170   2.362
 2651SOL    HW2 9786  11.730   7.120   2.415
 2652SOL     OW 9787  11.047  12.345   5.889
 2652SOL    HW1 9788  11.105  12.346   5.965
 2652SOL    HW2 9789  11.057  12.257   5.852
 2653SOL     OW 9790   5.483   4.499  12.540
 2653SOL    HW1 9791   5.442   4.531  12.621
 2653SOL    HW2 9792   5.515   4.577  12.496
 2654SOL     OW 9793   0.547   5.118   0.341
 2654SOL    HW1 9794   0.484   5.079   0.401
 2654SOL    HW2 9795   0.613   5.050   0.328
 2655SOL     OW 9796   0.398   2.349  12.237
 2655SOL    HW1 9797   0.430   2.438  12.220
 2655SOL    HW2 9798   0.438   2.297  12.167
 2656SOL     OW 9799   5.765   9.951  12.102
 2656SOL    HW1 9800   5.733   9.915  12.019
 2656SOL    HW2 9801   5.859   9.964  12.088
 2657SOL     OW 9802   5.080   0.907  12.946
 2657SOL    HW1 9803   5.105   0.997  12.968
 2657SOL    HW2 9804   5.047   0.912  12.857
 2658SOL     OW 9805   1.718   2.407   4.188
 2658SOL    HW1 9806   1.773   2.333   4.162
 2658SOL    HW2 9807   1.739   2.421   4.281
 2659SOL     OW 9808   1.015   7.403   9.174
 2659SOL    HW1 9809   1.041   7.356   9.253
 2659SOL    HW2 9810   1.052   7.491   9.186
 2660SOL     OW 9811   2.484   2.658  13.088
 2660SOL    HW1 9812   2.505   2.632  13.178
 2660SOL    HW2 9813   2.413   2.722  13.098
 2661SOL     OW 9814   2.785   2.615   4.475
 2661SOL    HW1 9815   2.801   2.632   4.382
 2661SOL    HW2 9816   2.814   2.695   4.519
 2662SOL     OW 9817   2.116   0.963   6.530
 2662SOL    HW1 9818   2.053   0.906   6.573
 2662SOL    HW2 9819   2.193   0.962   6.587
 2663SOL     OW 9820   7.434   4.080  14.302
 2663SOL    HW1 9821   7.380   4.006  14.329
 2663SOL    HW2 9822   7.498   4.090  14.373
 2664SOL     OW 9823   8.238  10.987  13.162
 2664SOL    HW1 9824   8.292  11.065  13.171
 2664SOL    HW2 9825   8.159  11.006  13.213
 2665SOL     OW 9826   5.265  13.002   6.726
 2665SOL    HW1 9827   5.225  12.915   6.729
 2665SOL    HW2 9828   5.253  13.030   6.635
 2666SOL     OW 9829   8.043   5.140  14.714
 2666SOL    HW1 9830   8.017   5.119  14.803
 2666SOL    HW2 9831   7.996   5.076  14.660
 2667SOL     OW 9832   7.747   0.560   7.054
 2667SOL    HW1 9833   7.742   0.483   7.110
 2667SOL    HW2 9834   7.669   0.555   6.998
 2668SOL     OW 9835  11.709   9.642   9.880
 2668SOL    HW1 9836  11.790   9.651   9.930
 2668SOL    HW2 9837  11.738   9.607   9.795
 2669SOL     OW 9838   2.674   6.860   4.674
 2669SOL    HW1 9839   2.698   6.902   4.756
 2669SOL    HW2 9840   2.621   6.784   4.700
 2670SOL     OW 9841  12.313   0.020   1.627
 2670SOL    HW1 9842  12.284  14.801   1.631
 2670SOL    HW2 9843  12.366   0.025   1.548
 2671SOL     OW 9844  11.627  12.056   3.578
 2671SOL    HW1 9845  11.628  12.064   3.673
 2671SOL    HW2 9846  11.719  12.039   3.554
 2672SOL     OW 9847   1.150   1.245   2.498
 2672SOL    HW1 9848   1.156   1.150   2.488
 2672SOL    HW2 9849   1.074   1.270   2.445
 2673SOL     OW 9850  11.172   9.382   0.114
 2673SOL    HW1 9851  11.225   9.457   0.142
 2673SOL    HW2 9852  11.232   9.327   0.064
 2674SOL     OW 9853   3.283   3.964   7.557
 2674SOL    HW1 9854   3.231   3.967   7.477
 2674SOL    HW2 9855   3.220   3.951   7.627
 2675SOL     OW 9856   7.585   9.760  10.801
 2675SOL    HW1 9857   7.642   9.803  10.737
 2675SOL    HW2 9858   7.633   9.681  10.826
 2676SOL     OW 9859   3.869   3.836   6.263
 2676SOL    HW1 9860   3.930   3.870   6.328
 2676SOL    HW2 9861   3.806   3.785   6.314
 2677SOL     OW 9862   2.844  14.283   4.368
 2677SOL    HW1 9863   2.825  14.229   4.445
 2677SOL    HW2 9864   2.791  14.244   4.298
 2678SOL     OW 9865  10.456   0.576   7.672
 2678SOL    HW1 9866  10.472   0.632   7.596
 2678SOL    HW2 9867  10.367   0.598   7.700
 2679SOL     OW 9868   6.324  12.683  13.560
 2679SOL    HW1 9869   6.281  12.766  13.538
 2679SOL    HW2 9870   6.302  12.625  13.486
 2680SOL     OW 9871  11.311   4.337   2.858
 2680SOL    HW1 9872  11.362   4.332   2.939
 2680SOL    HW2 9873  11.221   4.317   2.885
 2681SOL     OW 9874  14.598  11.408   7.619
 2681SOL    HW1 9875  14.504  11.423   7.632
 2681SOL    HW2 9876  14.621  11.457   7.541
 2682SOL     OW 9877  10.433   5.170  13.524
 2682SOL    HW1 9878  10.420   5.225  13.447
 2682SOL    HW2 9879  10.355   5.114  13.526
 2683SOL     OW 9880  10.140   8.972   5.885
 2683SOL    HW1 9881  10.108   9.061   5.870
 2683SOL    HW2 9882  10.062   8.917   5.876
 2684SOL     OW 9883   6.801   3.283   9.151
 2684SOL    HW1 9884   6.881   3.271   9.101
 2684SOL    HW2 9885   6.826   3.265   9.242
 2685SOL     OW 9886   9.330   1.999  11.783
 2685SOL    HW1 9887   9.286   1.916  11.766
 2685SOL    HW2 9888   9.268   2.065  11.751
 2686SOL     OW 9889  11.270   2.720   4.575
 2686SOL    HW1 9890  11.356   2.680   4.582
 2686SOL    HW2 9891  11.252   2.724   4.481
 2687SOL     OW 9892   3.595   4.714   7.061
 2687SOL    HW1 9893   3.663   4.782   7.064
 2687SOL    HW2 9894   3.612   4.667   6.980
 2688SOL     OW 9895   4.122   8.211  11.626
 2688SOL    HW1 9896   4.134   8.299  11.662
 2688SOL    HW2 9897   4.042   8.217  11.575
 2689SOL     OW 9898   9.400  14.521  11.683
 2689SOL    HW1 9899   9.353  14.600  11.657
 2689SOL    HW2 9900   9.485  14.528  11.638
 2690SOL     OW 9901   5.033   0.008  12.602
 2690SOL    HW1 9902   5.005   0.096  12.627
 2690SOL    HW2 9903   4.992  14.866  12.516
 2691SOL     OW 9904  11.133   8.715   7.594
 2691SOL    HW1 9905  11.039   8.716   7.616
 2691SOL    HW2 9906  11.176   8.691   7.675
 2692SOL     OW 9907   8.512   8.359  12.911
 2692SOL    HW1 9908   8.607   8.354  12.921
 2692SOL    HW2 9909   8.494   8.308  12.832
 2693SOL     OW 9910   0.289  11.381  13.056
 2693SOL    HW1 9911   0.275  11.454  13.116
 2693SOL    HW2 9912   0.371  11.341  13.085
 2694SOL     OW 9913   1.652  12.641  12.928
 2694SOL    HW1 9914   1.590  12.601  12.865
 2694SOL    HW2 9915   1.682  12.720  12.884
 2695SOL     OW 9916  10.606  10.476   8.921
 2695SOL    HW1 9917  10.600  10.390   8.960
 2695SOL    HW2 9918  10.698  10.485   8.894
 2696SOL     OW 9919   1.235   3.652   4.405
 2696SOL    HW1 9920   1.254   3.564   4.438
 2696SOL    HW2 9921   1.320   3.697   4.409
 2697SOL     OW 9922   4.229   6.848   1.476
 2697SOL    HW1 9923   4.195   6.759   1.481
 2697SOL    HW2 9924   4.152   6.904   1.482
 2698SOL     OW 9925   6.770  11.574   1.482
 2698SOL    HW1 9926   6.834  11.536   1.543
 2698SOL    HW2 9927   6.741  11.655   1.525
 2699SOL     OW 9928  13.685   3.694  13.262
 2699SOL    HW1 9929  13.591   3.707  13.273
 2699SOL    HW2 9930  13.700   3.602  13.284
 2700SOL     OW 9931   2.780   7.329  11.110
 2700SOL    HW1 9932   2.687   7.348  11.119
 2700SOL    HW2 9933   2.820   7.414  11.091
 2701SOL     OW 9934   0.462   4.880   4.050
 2701SOL    HW1 9935   0.540   4.829   4.073
 2701SOL    HW2 9936   0.418   4.895   4.134
 2702SOL     OW 9937   7.365  11.169  13.003
 2702SOL    HW1 9938   7.388  11.104  13.070
 2702SOL    HW2 9939   7.449  11.192  12.962
 2703SOL     OW 9940   5.787   9.674  11.212
 2703SOL    HW1 9941   5.720   9.626  11.261
 2703SOL    HW2 9942   5.836   9.606  11.165
 2704SOL     OW 9943   9.117   6.844   8.090
 2704SOL    HW1 9944   9.141   6.885   8.173
 2704SOL    HW2 9945   9.186   6.780   8.074
 2705SOL     OW 9946  12.354   9.384  14.449
 2705SOL    HW1 9947  12.390   9.330  14.379
 2705SOL    HW2 9948  12.293   9.443  14.405
 2706SOL     OW 9949  10.265   8.126   2.322
 2706SOL    HW1 9950  10.199   8.164   2.264
 2706SOL    HW2 9951  10.317   8.201   2.351
 2707SOL     OW 9952  11.048  11.043   3.955
 2707SOL    HW1 9953  10.987  11.037   3.882
 2707SOL    HW2 9954  11.132  11.017   3.918
 2708SOL     OW 9955   9.679   9.699   7.104
 2708SOL    HW1 9956   9.639   9.727   7.187
 2708SOL    HW2 9957   9.621   9.735   7.037
 2709SOL     OW 9958   1.656   0.428   9.566
 2709SOL    HW1 9959   1.706   0.496   9.612
 2709SOL    HW2 9960   1.565   0.456   9.575
 2710SOL     OW 9961   6.133   5.708   5.265
 2710SOL    HW1 9962   6.214   5.718   5.316
 2710SOL    HW2 9963   6.108   5.616   5.277
 2711SOL     OW 9964   8.045   4.285   2.121
 2711SOL    HW1 9965   7.992   4.273   2.042
 2711SOL    HW2 9966   8.133   4.262   2.094
 2712SOL     OW 9967  13.633   3.384   3.312
 2712SOL    HW1 9968  13.659   3.475   3.328
 2712SOL    HW2 9969  13.542   3.380   3.342
 2713SOL     OW 9970  13.964   1.846   8.686
 2713SOL    HW1 9971  13.995   1.798   8.609
 2713SOL    HW2 9972  14.012   1.928   8.683
 2714SOL     OW 9973  13.195  13.326   1.955
 2714SOL    HW1 9974  13.129  13.375   1.905
 2714SOL    HW2 9975  13.148  13.250   1.988
 2715SOL     OW 9976   4.564   2.101  13.737
 2715SOL    HW1 9977   4.581   2.195  13.740
 2715SOL    HW2 9978   4.573   2.078  13.644
 2716SOL     OW 9979  11.984   2.194   4.424
 2716SOL    HW1 9980  11.943   2.271   4.463
 2716SOL    HW2 9981  11.917   2.127   4.428
 2717SOL     OW 9982   5.823   8.123   7.735
 2717SOL    HW1 9983   5.877   8.104   7.812
 2717SOL    HW2 9984   5.821   8.041   7.686
 2718SOL     OW 9985  10.279   8.963   3.951
 2718SOL    HW1 9986  10.195   9.008   3.958
 2718SOL    HW2 9987  10.280   8.901   4.024
 2719SOL     OW 9988   6.083   4.700   2.469
 2719SOL    HW1 9989   6.091   4.769   2.535
 2719SOL    HW2 9990   6.075   4.747   2.386
 2720SOL     OW 9991   0.641   1.719  11.761
 2720SOL    HW1 9992   0.681   1.771  11.691
 2720SOL    HW2 9993   0.630   1.632  11.723
 2721SOL     OW 9994   6.018   9.705   4.337
 2721SOL    HW1 9995   5.951   9.637   4.340
 2721SOL    HW2 9996   6.095   9.661   4.299
 2722SOL     OW 9997   7.278  13.627  12.385
 2722SOL    HW1 9998   7.366  13.630  12.347
 2722SOL    HW2 9999   7.219  13.636  12.310
 2723SOL     OW10000  12.941  10.284   3.250
 2723SOL    HW110001  13.025  10.251   3.282
 2723SOL    HW210002  12.905  10.212   3.200
 2724SOL     OW10003   0.271   8.010   9.737
 2724SOL    HW110004   0.323   7.951   9.791
 2724SOL    HW210005   0.268   8.092   9.786
 2725SOL     OW10006   5.592  13.075  12.049
 2725SOL    HW110007   5.658  13.143  12.034
 2725SOL    HW210008   5.590  13.026  11.967
 2726SOL     OW10009  10.228   1.596  14.679
 2726SOL    HW110010  10.215   1.690  14.694
 2726SOL    HW210011  10.200   1.555  14.761
 2727SOL     OW10012   8.123   7.770  13.344
 2727SOL    HW110013   8.203   7.778  13.292
 2727SOL    HW210014   8.052   7.770  13.279
 2728SOL     OW10015   8.634  11.332   0.460
 2728SOL    HW110016   8.638  11.376   0.545
 2728SOL    HW210017   8.708  11.368   0.411
 2729SOL     OW10018  13.621  14.135   1.708
 2729SOL    HW110019  13.632  14.069   1.640
 2729SOL    HW210020  13.706  14.180   1.711
 2730SOL     OW10021  10.296   1.701  13.893
 2730SOL    HW110022  10.254   1.747  13.966
 2730SOL    HW210023  10.282   1.759  13.818
 2731SOL     OW10024   4.516  14.085  13.596
 2731SOL    HW110025   4.595  14.039  13.624
 2731SOL    HW210026   4.478  14.028  13.529
 2732SOL     OW10027   3.667  12.127   8.763
 2732SOL    HW110028   3.734  12.191   8.789
 2732SOL    HW210029   3.701  12.043   8.795
 2733SOL     OW10030   3.504   5.903   2.191
 2733SOL    HW110031   3.458   5.976   2.148
 2733SOL    HW210032   3.439   5.833   2.194
 2734SOL     OW10033   7.754  11.739   3.913
 2734SOL    HW110034   7.726  11.685   3.839
 2734SOL    HW210035   7.717  11.695   3.990
 2735SOL     OW10036  14.166   2.148  14.831
 2735SOL    HW110037  14.071   2.150  14.844
 2735SOL    HW210038  14.180   2.085  14.760
 2736SOL     OW10039   5.164   4.286   7.651
 2736SOL    HW110040   5.145   4.376   7.625
 2736SOL    HW210041   5.115   4.232   7.589
 2737SOL     OW10042   5.848  12.122   5.869
 2737SOL    HW110043   5.765  12.169   5.865
 2737SOL    HW210044   5.877  12.115   5.778
 2738SOL     OW10045   8.591  11.939  12.055
 2738SOL    HW110046   8.678  11.919  12.088
 2738SOL    HW210047   8.602  11.947  11.960
 2739SOL     OW10048   9.311  12.933   2.762
 2739SOL    HW110049   9.387  12.946   2.819
 2739SOL    HW210050   9.348  12.935   2.673
 2740SOL     OW10051   3.803   6.765   1.761
 2740SOL    HW110052   3.737   6.706   1.797
 2740SOL    HW210053   3.754   6.845   1.741
 2741SOL     OW10054   4.924  10.610  11.625
 2741SOL    HW110055   4.915  10.562  11.707
 2741SOL    HW210056   4.846  10.586  11.575
 2742SOL     OW10057   2.234  11.085   7.847
 2742SOL    HW110058   2.295  11.046   7.784
 2742SOL    HW210059   2.244  11.032   7.926
 2743SOL     OW10060   8.353   6.513  13.219
 2743SOL    HW110061   8.418   6.451  13.187
 2743SOL    HW210062   8.365   6.590  13.163
 2744SOL     OW10063   8.913   5.591   1.469
 2744SOL    HW110064   8.822   5.590   1.499
 2744SOL    HW210065   8.919   5.516   1.409
 2745SOL     OW10066   7.055  12.035  11.273
 2745SOL    HW110067   7.096  12.085  11.343
 2745SOL    HW210068   7.083  11.944  11.289
 2746SOL     OW10069  11.305  11.356   8.943
 2746SOL    HW110070  11.323  11.311   9.025
 2746SOL    HW210071  11.366  11.429   8.941
 2747SOL     OW10072  10.460  13.249  13.797
 2747SOL    HW110073  10.538  13.215  13.841
 2747SOL    HW210074  10.395  13.180  13.807
 2748SOL     OW10075   8.738   8.555   5.791
 2748SOL    HW110076   8.768   8.646   5.784
 2748SOL    HW210077   8.763   8.514   5.709
 2749SOL     OW10078  11.128  11.344   6.008
 2749SOL    HW110079  11.143  11.335   6.102
 2749SOL    HW210080  11.110  11.255   5.977
 2750SOL     OW10081   8.337   4.305   0.500
 2750SOL    HW110082   8.364   4.295   0.591
 2750SOL    HW210083   8.412   4.347   0.457
 2751SOL     OW10084  10.925   2.374   5.759
 2751SOL    HW110085  10.940   2.287   5.722
 2751SOL    HW210086  10.834   2.394   5.736
 2752SOL     OW10087   2.127   2.370   8.477
 2752SOL    HW110088   2.222   2.357   8.476
 2752SOL    HW210089   2.108   2.417   8.395
 2753SOL     OW10090  14.104  14.375  12.518
 2753SOL    HW110091  14.195  14.404  12.526
 2753SOL    HW210092  14.058  14.424  12.586
 2754SOL     OW10093   1.445   7.271   2.359
 2754SOL    HW110094   1.487   7.324   2.427
 2754SOL    HW210095   1.474   7.309   2.277
 2755SOL     OW10096  14.831   3.891   5.920
 2755SOL    HW110097  14.754   3.940   5.947
 2755SOL    HW210098   0.011   3.881   5.999
 2756SOL     OW10099   0.501   9.865   1.807
 2756SOL    HW110100   0.561   9.938   1.790
 2756SOL    HW210101   0.414   9.901   1.788
 2757SOL     OW10102   9.145   5.929   7.395
 2757SOL    HW110103   9.079   5.978   7.346
 2757SOL    HW210104   9.226   5.978   7.384
 2758SOL     OW10105  11.328   3.502   1.737
 2758SOL    HW110106  11.348   3.509   1.830
 2758SOL    HW210107  11.246   3.551   1.726
 2759SOL     OW10108  10.393   8.334   5.208
 2759SOL    HW110109  10.456   8.285   5.261
 2759SOL    HW210110  10.340   8.268   5.165
 2760SOL     OW10111   7.517   6.381   7.029
 2760SOL    HW110112   7.568   6.459   7.003
 2760SOL    HW210113   7.518   6.383   7.124
 2761SOL     OW10114   1.799   4.013   7.990
 2761SOL    HW110115   1.750   4.073   7.934
 2761SOL    HW210116   1.797   4.054   8.076
 2762SOL     OW10117   8.430   7.379  10.372
 2762SOL    HW110118   8.443   7.463  10.328
 2762SOL    HW210119   8.339   7.382  10.402
 2763SOL     OW10120   7.907   1.110  12.083
 2763SOL    HW110121   7.907   1.035  12.024
 2763SOL    HW210122   7.997   1.113  12.117
 2764SOL     OW10123   4.086   7.680  10.106
 2764SOL    HW110124   4.104   7.594  10.069
 2764SOL    HW210125   4.172   7.713  10.132
 2765SOL     OW10126   4.039   0.738  11.102
 2765SOL    HW110127   4.022   0.825  11.065
 2765SOL    HW210128   4.130   0.721  11.080
 2766SOL     OW10129  12.347   7.131   1.099
 2766SOL    HW110130  12.256   7.153   1.116
 2766SOL    HW210131  12.376   7.195   1.034
 2767SOL     OW10132   3.120   8.140   6.817
 2767SOL    HW110133   3.069   8.114   6.894
 2767SOL    HW210134   3.202   8.174   6.852
 2768SOL     OW10135   7.893   3.614   8.780
 2768SOL    HW110136   7.878   3.619   8.686
 2768SOL    HW210137   7.916   3.704   8.805
 2769SOL     OW10138   0.575   0.462   7.746
 2769SOL    HW110139   0.511   0.455   7.675
 2769SOL    HW210140   0.627   0.382   7.739
 2770SOL     OW10141   1.592  11.419   6.612
 2770SOL    HW110142   1.529  11.375   6.669
 2770SOL    HW210143   1.667  11.436   6.669
 2771SOL     OW10144  11.043   4.681  14.147
 2771SOL    HW110145  10.996   4.702  14.066
 2771SOL    HW210146  11.099   4.758  14.162
 2772SOL     OW10147  12.050  11.619   1.367
 2772SOL    HW110148  12.047  11.661   1.453
 2772SOL    HW210149  12.119  11.666   1.320
 2773SOL     OW10150  13.107  11.535   7.515
 2773SOL    HW110151  13.178  11.498   7.462
 2773SOL    HW210152  13.071  11.460   7.563
 2774SOL     OW10153   2.608  11.264  11.194
 2774SOL    HW110154   2.655  11.195  11.241
 2774SOL    HW210155   2.526  11.275  11.242
 2775SOL     OW10156   5.704  12.463   8.059
 2775SOL    HW110157   5.734  12.508   7.979
 2775SOL    HW210158   5.742  12.375   8.053
 2776SOL     OW10159   1.708   7.508  12.309
 2776SOL    HW110160   1.723   7.593  12.350
 2776SOL    HW210161   1.792   7.484  12.271
 2777SOL     OW10162  14.588  14.153  11.571
 2777SOL    HW110163  14.590  14.248  11.557
 2777SOL    HW210164  14.542  14.143  11.654
 2778SOL     OW10165  14.712  11.394  11.249
 2778SOL    HW110166  14.695  11.462  11.315
 2778SOL    HW210167  14.724  11.314  11.301
 2779SOL     OW10168   4.237  13.000  10.417
 2779SOL    HW110169   4.236  13.026  10.509
 2779SOL    HW210170   4.173  12.929  10.411
 2780SOL     OW10171   7.822   0.880   2.241
 2780SOL    HW110172   7.770   0.802   2.258
 2780SOL    HW210173   7.887   0.852   2.176
 2781SOL     OW10174   7.445   3.635   9.706
 2781SOL    HW110175   7.469   3.571   9.639
 2781SOL    HW210176   7.439   3.718   9.659
 2782SOL     OW10177   5.099   6.767   9.411
 2782SOL    HW110178   5.141   6.778   9.497
 2782SOL    HW210179   5.089   6.673   9.401
 2783SOL     OW10180   0.996  10.421   2.786
 2783SOL    HW110181   0.903  10.425   2.763
 2783SOL    HW210182   1.008  10.490   2.852
 2784SOL     OW10183   1.563  11.942  11.940
 2784SOL    HW110184   1.619  11.905  12.007
 2784SOL    HW210185   1.513  11.868  11.906
 2785SOL     OW10186   1.201  12.998  12.548
 2785SOL    HW110187   1.214  13.083  12.506
 2785SOL    HW210188   1.107  12.983  12.543
 2786SOL     OW10189   7.369  12.810   3.549
 2786SOL    HW110190   7.409  12.821   3.635
 2786SOL    HW210191   7.285  12.769   3.567
 2787SOL     OW10192  13.515  13.607   3.018
 2787SOL    HW110193  13.489  13.686   3.065
 2787SOL    HW210194  13.505  13.536   3.081
 2788SOL     OW10195   3.123   6.024  11.591
 2788SOL    HW110196   3.184   6.094  11.615
 2788SOL    HW210197   3.109   6.036  11.497
 2789SOL     OW10198  11.724   6.187  13.827
 2789SOL    HW110199  11.673   6.264  13.802
 2789SOL    HW210200  11.668   6.139  13.888
 2790SOL     OW10201   7.947  12.273   3.911
 2790SOL    HW110202   7.987  12.319   3.837
 2790SOL    HW210203   7.864  12.318   3.926
 2791SOL     OW10204   2.446   5.810   1.248
 2791SOL    HW110205   2.508   5.878   1.273
 2791SOL    HW210206   2.434   5.758   1.328
 2792SOL     OW10207   5.973  13.807   8.878
 2792SOL    HW110208   6.008  13.834   8.963
 2792SOL    HW210209   6.008  13.719   8.865
 2793SOL     OW10210   4.447   9.284  11.551
 2793SOL    HW110211   4.467   9.251  11.463
 2793SOL    HW210212   4.421   9.206  11.600
 2794SOL     OW10213   0.640   4.578  12.067
 2794SOL    HW110214   0.633   4.636  11.990
 2794SOL    HW210215   0.666   4.636  12.138
 2795SOL     OW10216   9.641   9.364  10.348
 2795SOL    HW110217   9.735   9.353  10.363
 2795SOL    HW210218   9.631   9.349  10.254
 2796SOL     OW10219  13.096  11.488  11.417
 2796SOL    HW110220  13.161  11.551  11.450
 2796SOL    HW210221  13.028  11.543  11.379
 2797SOL     OW10222  12.514   7.762   9.733
 2797SOL    HW110223  12.526   7.699   9.661
 2797SOL    HW210224  12.512   7.708   9.812
 2798SOL     OW10225   0.578   2.089  13.190
 2798SOL    HW110226   0.653   2.044  13.151
 2798SOL    HW210227   0.608   2.179  13.202
 2799SOL     OW10228  14.563  10.796   1.795
 2799SOL    HW110229  14.547  10.737   1.721
 2799SOL    HW210230  14.658  10.810   1.795
 2800SOL     OW10231  11.352   2.265  11.410
 2800SOL    HW110232  11.257   2.258  11.419
 2800SOL    HW210233  11.381   2.175  11.392
 2801SOL     OW10234   0.844   2.510   0.226
 2801SOL    HW110235   0.865   2.570   0.298
 2801SOL    HW210236   0.883   2.427   0.251
 2802SOL     OW10237   5.516   7.233   7.482
 2802SOL    HW110238   5.460   7.166   7.443
 2802SOL    HW210239   5.599   7.188   7.497
 2803SOL     OW10240   9.367  12.205  13.859
 2803SOL    HW110241   9.455  12.241  13.869
 2803SOL    HW210242   9.330  12.253  13.785
 2804SOL     OW10243   7.203  11.006   5.065
 2804SOL    HW110244   7.220  11.022   4.972
 2804SOL    HW210245   7.140  11.073   5.090
 2805SOL     OW10246   0.229   7.057   5.937
 2805SOL    HW110247   0.256   7.101   5.857
 2805SOL    HW210248   0.300   6.995   5.956
 2806SOL     OW10249   9.042   1.611   9.356
 2806SOL    HW110250   9.059   1.705   9.350
 2806SOL    HW210251   9.124   1.574   9.388
 2807SOL     OW10252  14.783   3.495  14.103
 2807SOL    HW110253  14.772   3.534  14.016
 2807SOL    HW210254   0.000   3.517  14.128
 2808SOL     OW10255   9.191   3.689   7.917
 2808SOL    HW110256   9.198   3.593   7.919
 2808SOL    HW210257   9.141   3.707   7.838
 2809SOL     OW10258   6.254   2.493   6.737
 2809SOL    HW110259   6.202   2.452   6.668
 2809SOL    HW210260   6.274   2.422   6.798
 2810SOL     OW10261   0.170   0.119   4.225
 2810SOL    HW110262   0.174   0.213   4.241
 2810SOL    HW210263   0.247   0.083   4.268
 2811SOL     OW10264   6.758   8.334   7.410
 2811SOL    HW110265   6.673   8.345   7.451
 2811SOL    HW210266   6.744   8.357   7.318
 2812SOL     OW10267   4.563   5.895   7.035
 2812SOL    HW110268   4.575   5.985   7.063
 2812SOL    HW210269   4.569   5.898   6.939
 2813SOL     OW10270   9.177  13.309   2.434
 2813SOL    HW110271   9.195  13.316   2.528
 2813SOL    HW210272   9.088  13.272   2.430
 2814SOL     OW10273  14.005   7.394  13.914
 2814SOL    HW110274  14.019   7.312  13.866
 2814SOL    HW210275  14.076   7.452  13.884
 2815SOL     OW10276   8.366  11.767  12.148
 2815SOL    HW110277   8.447  11.798  12.108
 2815SOL    HW210278   8.303  11.837  12.132
 2816SOL     OW10279   2.428  11.061   3.807
 2816SOL    HW110280   2.495  11.058   3.875
 2816SOL    HW210281   2.345  11.062   3.855
 2817SOL     OW10282   3.708  10.010  12.083
 2817SOL    HW110283   3.768  10.004  12.008
 2817SOL    HW210284   3.754  10.067  12.145
 2818SOL     OW10285  12.056  14.663   7.402
 2818SOL    HW110286  12.098  14.674   7.316
 2818SOL    HW210287  12.106  14.719   7.460
 2819SOL     OW10288  12.981   8.062  13.216
 2819SOL    HW110289  12.937   7.994  13.267
 2819SOL    HW210290  13.073   8.055  13.241
 2820SOL     OW10291   5.402   0.354  13.114
 2820SOL    HW110292   5.358   0.327  13.033
 2820SOL    HW210293   5.398   0.276  13.170
 2821SOL     OW10294   0.769   4.892   7.949
 2821SOL    HW110295   0.734   4.820   8.002
 2821SOL    HW210296   0.722   4.969   7.979
 2822SOL     OW10297   9.557   9.325   2.053
 2822SOL    HW110298   9.517   9.303   1.969
 2822SOL    HW210299   9.628   9.385   2.031
 2823SOL     OW10300   6.577   5.651   6.082
 2823SOL    HW110301   6.583   5.727   6.140
 2823SOL    HW210302   6.536   5.685   6.002
 2824SOL     OW10303   6.200   4.342   6.608
 2824SOL    HW110304   6.224   4.373   6.521
 2824SOL    HW210305   6.234   4.410   6.667
 2825SOL     OW10306   3.466   8.940   2.561
 2825SOL    HW110307   3.461   8.966   2.469
 2825SOL    HW210308   3.385   8.973   2.600
 2826SOL     OW10309   6.150   8.883   2.834
 2826SOL    HW110310   6.133   8.790   2.846
 2826SOL    HW210311   6.245   8.889   2.822
 2827SOL     OW10312   9.995  10.918  12.670
 2827SOL    HW110313   9.995  10.979  12.596
 2827SOL    HW210314   9.904  10.889  12.676
 2828SOL     OW10315   3.786  13.966   5.644
 2828SOL    HW110316   3.877  13.969   5.614
 2828SOL    HW210317   3.793  13.962   5.739
 2829SOL     OW10318   4.553  13.227   4.907
 2829SOL    HW110319   4.585  13.314   4.886
 2829SOL    HW210320   4.628  13.170   4.894
 2830SOL     OW10321   0.545   2.443   6.282
 2830SOL    HW110322   0.616   2.449   6.345
 2830SOL    HW210323   0.580   2.483   6.202
 2831SOL     OW10324   8.912   6.226   9.579
 2831SOL    HW110325   8.961   6.196   9.503
 2831SOL    HW210326   8.933   6.319   9.587
 2832SOL     OW10327   4.704  12.441   1.245
 2832SOL    HW110328   4.629  12.413   1.193
 2832SOL    HW210329   4.751  12.360   1.266
 2833SOL     OW10330   0.814  13.702  14.780
 2833SOL    HW110331   0.901  13.678  14.749
 2833SOL    HW210332   0.758  13.629  14.753
 2834SOL     OW10333  14.510  13.111  10.146
 2834SOL    HW110334  14.568  13.078  10.215
 2834SOL    HW210335  14.474  13.032  10.106
 2835SOL     OW10336   1.786   7.970  10.288
 2835SOL    HW110337   1.866   8.014  10.261
 2835SOL    HW210338   1.797   7.879  10.259
 2836SOL     OW10339   1.616   7.853  12.703
 2836SOL    HW110340   1.616   7.949  12.706
 2836SOL    HW210341   1.606   7.827  12.795
 2837SOL     OW10342  11.863  13.975   8.712
 2837SOL    HW110343  11.835  13.904   8.769
 2837SOL    HW210344  11.909  14.036   8.770
 2838SOL     OW10345   8.444   1.443   3.194
 2838SOL    HW110346   8.363   1.494   3.199
 2838SOL    HW210347   8.484   1.453   3.281
 2839SOL     OW10348   9.611   9.467   5.425
 2839SOL    HW110349   9.671   9.483   5.497
 2839SOL    HW210350   9.599   9.553   5.384
 2840SOL     OW10351   9.913  11.953  11.525
 2840SOL    HW110352   9.911  11.987  11.436
 2840SOL    HW210353   9.992  11.991  11.564
 2841SOL     OW10354   6.505   8.094  12.028
 2841SOL    HW110355   6.457   8.031  12.081
 2841SOL    HW210356   6.582   8.047  11.998
 2842SOL     OW10357   4.922   0.825   0.320
 2842SOL    HW110358   4.943   0.898   0.379
 2842SOL    HW210359   4.898   0.867   0.238
 2843SOL     OW10360   6.669   4.933  14.835
 2843SOL    HW110361   6.748   4.986  14.848
 2843SOL    HW210362   6.607   4.967   0.028
 2844SOL     OW10363   7.319   2.754   8.188
 2844SOL    HW110364   7.308   2.756   8.283
 2844SOL    HW210365   7.230   2.749   8.154
 2845SOL     OW10366   1.575  10.140  13.377
 2845SOL    HW110367   1.509  10.117  13.442
 2845SOL    HW210368   1.525  10.179  13.305
 2846SOL     OW10369   6.973   7.022   8.056
 2846SOL    HW110370   6.889   6.981   8.077
 2846SOL    HW210371   7.038   6.963   8.094
 2847SOL     OW10372   7.291   4.365  14.742
 2847SOL    HW110373   7.279   4.452  14.705
 2847SOL    HW210374   7.202   4.332  14.756
 2848SOL     OW10375   7.437   8.504   8.592
 2848SOL    HW110376   7.389   8.557   8.656
 2848SOL    HW210377   7.426   8.414   8.623
 2849SOL     OW10378   7.152   5.431   0.828
 2849SOL    HW110379   7.131   5.501   0.889
 2849SOL    HW210380   7.185   5.360   0.883
 2850SOL     OW10381  11.172   8.312  11.188
 2850SOL    HW110382  11.217   8.396  11.180
 2850SOL    HW210383  11.242   8.247  11.180
 2851SOL     OW10384   4.139  10.471   1.030
 2851SOL    HW110385   4.076  10.537   1.060
 2851SOL    HW210386   4.124  10.466   0.935
 2852SOL     OW10387  10.112   7.291   5.427
 2852SOL    HW110388  10.083   7.218   5.372
 2852SOL    HW210389  10.139   7.250   5.509
 2853SOL     OW10390  14.140  12.523   8.970
 2853SOL    HW110391  14.177  12.509   9.057
 2853SOL    HW210392  14.166  12.445   8.920
 2854SOL     OW10393   3.437   7.220  11.374
 2854SOL    HW110394   3.445   7.272  11.454
 2854SOL    HW210395   3.387   7.143  11.400
 2855SOL     OW10396   4.490  11.434   7.526
 2855SOL    HW110397   4.403  11.468   7.548
 2855SOL    HW210398   4.478  11.394   7.440
 2856SOL     OW10399   0.994  11.077  12.258
 2856SOL    HW110400   0.939  11.016  12.210
 2856SOL    HW210401   0.932  11.137  12.300
 2857SOL     OW10402  11.767  14.683  10.021
 2857SOL    HW110403  11.723  14.759  10.061
 2857SOL    HW210404  11.818  14.645  10.093
 2858SOL     OW10405  10.949  10.628   9.561
 2858SOL    HW110406  11.005  10.628   9.483
 2858SOL    HW210407  10.871  10.579   9.534
 2859SOL     OW10408  11.433   7.031  13.780
 2859SOL    HW110409  11.465   7.118  13.755
 2859SOL    HW210410  11.506   6.973  13.760
 2860SOL     OW10411  14.184  10.491   5.841
 2860SOL    HW110412  14.174  10.457   5.930
 2860SOL    HW210413  14.278  10.507   5.831
 2861SOL     OW10414   1.019  10.217  13.449
 2861SOL    HW110415   0.956  10.211  13.377
 2861SOL    HW210416   0.973  10.178  13.524
 2862SOL     OW10417  11.114   4.582  10.161
 2862SOL    HW110418  11.117   4.587  10.256
 2862SOL    HW210419  11.030   4.622  10.138
 2863SOL     OW10420   7.002   2.014   2.633
 2863SOL    HW110421   6.929   1.961   2.663
 2863SOL    HW210422   6.983   2.102   2.666
 2864SOL     OW10423   9.908   8.526   2.006
 2864SOL    HW110424   9.978   8.515   1.942
 2864SOL    HW210425   9.908   8.620   2.025
 2865SOL     OW10426   1.982  13.940   6.310
 2865SOL    HW110427   1.970  13.979   6.397
 2865SOL    HW210428   1.999  13.847   6.328
 2866SOL     OW10429   2.149   6.238  12.164
 2866SOL    HW110430   2.082   6.202  12.222
 2866SOL    HW210431   2.178   6.164  12.111
 2867SOL     OW10432   4.149   8.875   4.222
 2867SOL    HW110433   4.201   8.806   4.263
 2867SOL    HW210434   4.072   8.884   4.278
 2868SOL     OW10435   2.001  13.676   1.279
 2868SOL    HW110436   2.078  13.672   1.336
 2868SOL    HW210437   1.970  13.766   1.286
 2869SOL     OW10438   4.172  12.463   1.280
 2869SOL    HW110439   4.137  12.384   1.321
 2869SOL    HW210440   4.213  12.432   1.199
 2870SOL     OW10441   6.527   7.734  11.162
 2870SOL    HW110442   6.523   7.754  11.069
 2870SOL    HW210443   6.437   7.712  11.186
 2871SOL     OW10444  13.157  12.171  12.853
 2871SOL    HW110445  13.194  12.256  12.830
 2871SOL    HW210446  13.075  12.167  12.803
 2872SOL     OW10447  12.856  12.223  13.370
 2872SOL    HW110448  12.911  12.302  13.370
 2872SOL    HW210449  12.767  12.256  13.383
 2873SOL     OW10450   5.133  12.287   0.663
 2873SOL    HW110451   5.163  12.203   0.628
 2873SOL    HW210452   5.078  12.263   0.737
 2874SOL     OW10453  14.525  10.244   2.394
 2874SOL    HW110454  14.589  10.194   2.445
 2874SOL    HW210455  14.444  10.236   2.444
 2875SOL     OW10456  13.233   6.916   3.532
 2875SOL    HW110457  13.295   6.850   3.503
 2875SOL    HW210458  13.187   6.943   3.453
 2876SOL     OW10459   5.480   7.483   0.588
 2876SOL    HW110460   5.436   7.400   0.609
 2876SOL    HW210461   5.566   7.456   0.555
 2877SOL     OW10462  13.731   6.355   4.239
 2877SOL    HW110463  13.712   6.449   4.235
 2877SOL    HW210464  13.805   6.349   4.300
 2878SOL     OW10465  13.777  13.724   2.706
 2878SOL    HW110466  13.842  13.782   2.666
 2878SOL    HW210467  13.814  13.705   2.793
 2879SOL     OW10468   7.546   7.016   4.431
 2879SOL    HW110469   7.543   7.039   4.338
 2879SOL    HW210470   7.639   7.006   4.450
 2880SOL     OW10471   0.859  14.609  13.297
 2880SOL    HW110472   0.894  14.561  13.372
 2880SOL    HW210473   0.866  14.701  13.323
 2881SOL     OW10474   7.134   9.723  11.204
 2881SOL    HW110475   7.198   9.739  11.135
 2881SOL    HW210476   7.149   9.632  11.230
 2882SOL     OW10477   6.298   0.563  13.586
 2882SOL    HW110478   6.354   0.621  13.637
 2882SOL    HW210479   6.356   0.491  13.560
 2883SOL     OW10480  12.446   8.801  10.568
 2883SOL    HW110481  12.427   8.720  10.520
 2883SOL    HW210482  12.538   8.820  10.547
 2884SOL     OW10483  13.082   5.428   4.116
 2884SOL    HW110484  13.039   5.401   4.197
 2884SOL    HW210485  13.014   5.422   4.049
 2885SOL     OW10486  10.332  14.096   5.381
 2885SOL    HW110487  10.265  14.116   5.446
 2885SOL    HW210488  10.291  14.032   5.323
 2886SOL     OW10489   3.066  12.290   1.875
 2886SOL    HW110490   3.048  12.340   1.955
 2886SOL    HW210491   3.077  12.356   1.807
 2887SOL     OW10492   2.917   4.735   6.801
 2887SOL    HW110493   2.942   4.675   6.870
 2887SOL    HW210494   2.949   4.820   6.830
 2888SOL     OW10495  14.245   8.024   6.435
 2888SOL    HW110496  14.186   8.046   6.508
 2888SOL    HW210497  14.202   7.951   6.392
 2889SOL     OW10498   1.344   9.144   5.454
 2889SOL    HW110499   1.367   9.054   5.433
 2889SOL    HW210500   1.360   9.152   5.548
 2890SOL     OW10501  11.019   3.209   6.578
 2890SOL    HW110502  10.984   3.297   6.575
 2890SOL    HW210503  11.113   3.221   6.593
 2891SOL     OW10504  13.768  11.497   8.914
 2891SOL    HW110505  13.834  11.564   8.893
 2891SOL    HW210506  13.803  11.416   8.876
 2892SOL     OW10507  11.984   8.956   1.795
 2892SOL    HW110508  11.906   8.968   1.849
 2892SOL    HW210509  11.982   8.863   1.770
 2893SOL     OW10510   9.207   4.176  10.438
 2893SOL    HW110511   9.229   4.266  10.411
 2893SOL    HW210512   9.287   4.143  10.478
 2894SOL     OW10513   9.862   5.711   5.282
 2894SOL    HW110514   9.863   5.785   5.343
 2894SOL    HW210515   9.855   5.634   5.339
 2895SOL     OW10516   5.653   9.479  10.305
 2895SOL    HW110517   5.714   9.523  10.364
 2895SOL    HW210518   5.588   9.545  10.283
 2896SOL     OW10519  10.050  14.427   3.591
 2896SOL    HW110520  10.004  14.345   3.604
 2896SOL    HW210521  10.100  14.440   3.671
 2897SOL     OW10522   8.896   0.415  13.939
 2897SOL    HW110523   8.866   0.451  14.022
 2897SOL    HW210524   8.892   0.489  13.878
 2898SOL     OW10525   9.152   4.032   9.673
 2898SOL    HW110526   9.244   4.012   9.657
 2898SOL    HW210527   9.115   4.048   9.586
 2899SOL     OW10528   4.305   8.911   5.627
 2899SOL    HW110529   4.239   8.900   5.558
 2899SOL    HW210530   4.271   8.860   5.700
 2900SOL     OW10531   8.533   2.794   9.773
 2900SOL    HW110532   8.438   2.792   9.762
 2900SOL    HW210533   8.546   2.823   9.863
 2901SOL     OW10534  14.166  14.566   0.575
 2901SOL    HW110535  14.208  14.643   0.612
 2901SOL    HW210536  14.201  14.558   0.487
 2902SOL     OW10537   9.994   1.796  13.927
 2902SOL    HW110538  10.015   1.790  13.834
 2902SOL    HW210539   9.975   1.706  13.954
 2903SOL     OW10540  13.423   7.112  11.336
 2903SOL    HW110541  13.500   7.056  11.324
 2903SOL    HW210542  13.389   7.126  11.248
 2904SOL     OW10543   6.063   3.974  12.435
 2904SOL    HW110544   5.969   3.974  12.453
 2904SOL    HW210545   6.102   4.014  12.512
 2905SOL     OW10546   4.677   5.397  11.524
 2905SOL    HW110547   4.644   5.319  11.569
 2905SOL    HW210548   4.770   5.400  11.547
 2906SOL     OW10549   0.585  11.167   3.281
 2906SOL    HW110550   0.573  11.072   3.290
 2906SOL    HW210551   0.637  11.191   3.357
 2907SOL     OW10552   8.558  12.239   4.582
 2907SOL    HW110553   8.620  12.303   4.546
 2907SOL    HW210554   8.550  12.173   4.514
 2908SOL     OW10555   3.166   7.859   0.952
 2908SOL    HW110556   3.232   7.812   1.003
 2908SOL    HW210557   3.215   7.899   0.880
 2909SOL     OW10558   3.409   8.539  10.941
 2909SOL    HW110559   3.341   8.476  10.966
 2909SOL    HW210560   3.470   8.488  10.887
 2910SOL     OW10561   9.011   0.748   0.594
 2910SOL    HW110562   8.976   0.836   0.609
 2910SOL    HW210563   8.940   0.689   0.622
 2911SOL     OW10564  12.265   8.495   4.757
 2911SOL    HW110565  12.257   8.527   4.847
 2911SOL    HW210566  12.345   8.442   4.757
 2912SOL     OW10567  13.044   2.601  11.127
 2912SOL    HW110568  13.097   2.581  11.050
 2912SOL    HW210569  13.075   2.687  11.156
 2913SOL     OW10570  14.569   1.315  12.408
 2913SOL    HW110571  14.663   1.315  12.429
 2913SOL    HW210572  14.558   1.241  12.348
 2914SOL     OW10573  12.979   8.664   7.696
 2914SOL    HW110574  12.948   8.574   7.706
 2914SOL    HW210575  12.991   8.675   7.602
 2915SOL     OW10576   5.416   6.522   3.679
 2915SOL    HW110577   5.334   6.484   3.648
 2915SOL    HW210578   5.455   6.562   3.602
 2916SOL     OW10579   4.419  12.184   5.125
 2916SOL    HW110580   4.492  12.154   5.178
 2916SOL    HW210581   4.347  12.198   5.187
 2917SOL     OW10582   1.460  13.337  14.516
 2917SOL    HW110583   1.490  13.257  14.472
 2917SOL    HW210584   1.533  13.361  14.573
 2918SOL     OW10585   8.152   9.178   2.604
 2918SOL    HW110586   8.105   9.246   2.653
 2918SOL    HW210587   8.244   9.204   2.610
 2919SOL     OW10588   8.714   1.100   6.646
 2919SOL    HW110589   8.735   1.173   6.589
 2919SOL    HW210590   8.678   1.033   6.588
 2920SOL     OW10591   5.222   3.017  12.133
 2920SOL    HW110592   5.144   2.985  12.178
 2920SOL    HW210593   5.280   3.045  12.204
 2921SOL     OW10594   3.515   3.051   6.996
 2921SOL    HW110595   3.603   3.015   6.985
 2921SOL    HW210596   3.486   3.020   7.082
 2922SOL     OW10597  12.589  11.169   8.102
 2922SOL    HW110598  12.553  11.149   8.015
 2922SOL    HW210599  12.529  11.125   8.163
 2923SOL     OW10600   3.461   1.141   1.940
 2923SOL    HW110601   3.470   1.079   2.012
 2923SOL    HW210602   3.534   1.122   1.881
 2924SOL     OW10603   4.367  11.683   7.713
 2924SOL    HW110604   4.328  11.696   7.627
 2924SOL    HW210605   4.439  11.745   7.716
 2925SOL     OW10606   0.248   6.151   8.035
 2925SOL    HW110607   0.187   6.183   7.969
 2925SOL    HW210608   0.255   6.223   8.098
 2926SOL     OW10609   9.435   6.930   6.255
 2926SOL    HW110610   9.473   6.846   6.283
 2926SOL    HW210611   9.504   6.994   6.270
 2927SOL     OW10612   5.469   9.442   7.990
 2927SOL    HW110613   5.540   9.417   8.049
 2927SOL    HW210614   5.431   9.359   7.961
 2928SOL     OW10615  13.970   6.010  12.425
 2928SOL    HW110616  13.981   6.081  12.489
 2928SOL    HW210617  13.882   5.976  12.443
 2929SOL     OW10618   4.852   3.826  10.651
 2929SOL    HW110619   4.943   3.805  10.630
 2929SOL    HW210620   4.855   3.864  10.739
 2930SOL     OW10621  10.733   6.111  12.501
 2930SOL    HW110622  10.725   6.072  12.588
 2930SOL    HW210623  10.651   6.090  12.458
 2931SOL     OW10624   8.785  12.944  11.567
 2931SOL    HW110625   8.787  12.848  11.559
 2931SOL    HW210626   8.811  12.975  11.480
 2932SOL     OW10627  10.206   1.957  13.187
 2932SOL    HW110628  10.284   2.003  13.155
 2932SOL    HW210629  10.218   1.951  13.282
 2933SOL     OW10630   6.365  13.618  14.191
 2933SOL    HW110631   6.420  13.692  14.163
 2933SOL    HW210632   6.415  13.575  14.260
 2934SOL     OW10633  12.265  13.985   3.681
 2934SOL    HW110634  12.287  13.892   3.677
 2934SOL    HW210635  12.191  13.995   3.621
 2935SOL     OW10636  12.138   8.673   7.911
 2935SOL    HW110637  12.129   8.735   7.839
 2935SOL    HW210638  12.227   8.640   7.904
 2936SOL     OW10639   8.953   3.333   4.633
 2936SOL    HW110640   8.990   3.314   4.546
 2936SOL    HW210641   8.868   3.288   4.633
 2937SOL     OW10642  13.303   1.904   9.199
 2937SOL    HW110643  13.351   1.897   9.281
 2937SOL    HW210644  13.211   1.899   9.225
 2938SOL     OW10645   8.085   3.678   0.559
 2938SOL    HW110646   8.007   3.627   0.582
 2938SOL    HW210647   8.085   3.680   0.463
 2939SOL     OW10648   3.570   9.870   0.896
 2939SOL    HW110649   3.612   9.904   0.974
 2939SOL    HW210650   3.607   9.921   0.824
 2940SOL     OW10651   7.197  10.603   1.896
 2940SOL    HW110652   7.209  10.651   1.814
 2940SOL    HW210653   7.204  10.511   1.871
 2941SOL     OW10654   6.707   9.874  11.161
 2941SOL    HW110655   6.666   9.798  11.118
 2941SOL    HW210656   6.666   9.877  11.248
 2942SOL     OW10657  14.398  11.555   4.466
 2942SOL    HW110658  14.475  11.582   4.416
 2942SOL    HW210659  14.431  11.534   4.553
 2943SOL     OW10660   0.379  14.268  11.281
 2943SOL    HW110661   0.417  14.226  11.204
 2943SOL    HW210662   0.386  14.362  11.264
 2944SOL     OW10663  11.306  10.498  11.441
 2944SOL    HW110664  11.235  10.499  11.377
 2944SOL    HW210665  11.386  10.503  11.388
 2945SOL     OW10666   7.649  12.700   9.518
 2945SOL    HW110667   7.682  12.657   9.439
 2945SOL    HW210668   7.564  12.736   9.492
 2946SOL     OW10669  13.613   1.473  13.821
 2946SOL    HW110670  13.534   1.455  13.770
 2946SOL    HW210671  13.590   1.546  13.878
 2947SOL     OW10672   3.605  10.957  11.243
 2947SOL    HW110673   3.589  10.997  11.329
 2947SOL    HW210674   3.686  10.908  11.255
 2948SOL     OW10675   2.031   0.198   6.618
 2948SOL    HW110676   1.936   0.190   6.617
 2948SOL    HW210677   2.063   0.109   6.634
 2949SOL     OW10678   4.334  10.479   6.308
 2949SOL    HW110679   4.323  10.436   6.223
 2949SOL    HW210680   4.342  10.572   6.288
 2950SOL     OW10681   3.631  10.673   4.690
 2950SOL    HW110682   3.598  10.762   4.703
 2950SOL    HW210683   3.554  10.621   4.669
 2951SOL     OW10684   5.691   7.112   2.833
 2951SOL    HW110685   5.665   7.152   2.916
 2951SOL    HW210686   5.779   7.146   2.817
 2952SOL     OW10687  12.134   2.022   9.033
 2952SOL    HW110688  12.205   1.982   9.083
 2952SOL    HW210689  12.174   2.096   8.988
 2953SOL     OW10690   3.292   1.015   1.644
 2953SOL    HW110691   3.331   1.080   1.704
 2953SOL    HW210692   3.366   0.986   1.591
 2954SOL     OW10693   9.219  13.958   0.958
 2954SOL    HW110694   9.230  14.023   0.889
 2954SOL    HW210695   9.124  13.943   0.960
 2955SOL     OW10696   0.481   7.838   4.878
 2955SOL    HW110697   0.482   7.814   4.785
 2955SOL    HW210698   0.524   7.764   4.922
 2956SOL     OW10699  14.200  13.547   5.280
 2956SOL    HW110700  14.171  13.477   5.339
 2956SOL    HW210701  14.209  13.623   5.337
 2957SOL     OW10702  14.102   3.244   5.219
 2957SOL    HW110703  14.136   3.295   5.145
 2957SOL    HW210704  14.013   3.220   5.193
 2958SOL     OW10705   4.649   3.381   9.945
 2958SOL    HW110706   4.623   3.305   9.996
 2958SOL    HW210707   4.744   3.370   9.932
 2959SOL     OW10708   3.319   7.457  14.065
 2959SOL    HW110709   3.243   7.399  14.056
 2959SOL    HW210710   3.390   7.399  14.092
 2960SOL     OW10711  14.756   1.172   5.253
 2960SOL    HW110712  14.720   1.143   5.337
 2960SOL    HW210713  14.846   1.197   5.273
 2961SOL     OW10714   3.316   5.315   0.608
 2961SOL    HW110715   3.404   5.318   0.645
 2961SOL    HW210716   3.259   5.347   0.678
 2962SOL     OW10717   5.087  14.121  11.636
 2962SOL    HW110718   5.087  14.214  11.614
 2962SOL    HW210719   5.178  14.102  11.658
 2963SOL     OW10720   8.136   3.912   3.049
 2963SOL    HW110721   8.043   3.889   3.051
 2963SOL    HW210722   8.170   3.868   2.970
 2964SOL     OW10723   0.845  12.072   3.062
 2964SOL    HW110724   0.881  12.156   3.034
 2964SOL    HW210725   0.750  12.085   3.059
 2965SOL     OW10726  12.548  11.353  12.673
 2965SOL    HW110727  12.602  11.405  12.614
 2965SOL    HW210728  12.503  11.290  12.617
 2966SOL     OW10729   6.839  10.527  12.541
 2966SOL    HW110730   6.798  10.482  12.467
 2966SOL    HW210731   6.911  10.469  12.567
 2967SOL     OW10732   5.416   7.546  13.942
 2967SOL    HW110733   5.383   7.636  13.950
 2967SOL    HW210734   5.387   7.502  14.022
 2968SOL     OW10735  14.444   2.789   6.019
 2968SOL    HW110736  14.463   2.801   6.112
 2968SOL    HW210737  14.518   2.829   5.974
 2969SOL     OW10738  12.079   0.995   4.029
 2969SOL    HW110739  12.074   1.090   4.030
 2969SOL    HW210740  12.132   0.974   3.953
 2970SOL     OW10741  13.234   4.663  12.708
 2970SOL    HW110742  13.216   4.637  12.618
 2970SOL    HW210743  13.153   4.644  12.755
 2971SOL     OW10744   9.526  11.147   4.242
 2971SOL    HW110745   9.522  11.201   4.321
 2971SOL    HW210746   9.557  11.206   4.174
 2972SOL     OW10747   3.105   1.130   9.176
 2972SOL    HW110748   3.024   1.094   9.210
 2972SOL    HW210749   3.080   1.174   9.095
 2973SOL     OW10750  10.162   5.096   0.251
 2973SOL    HW110751  10.196   5.120   0.337
 2973SOL    HW210752  10.088   5.155   0.236
 2974SOL     OW10753   5.456   0.044   5.870
 2974SOL    HW110754   5.477   0.130   5.906
 2974SOL    HW210755   5.374   0.019   5.912
 2975SOL     OW10756   7.454   5.342   0.988
 2975SOL    HW110757   7.455   5.277   0.917
 2975SOL    HW210758   7.367   5.335   1.026
 2976SOL     OW10759   1.703   4.669  10.061
 2976SOL    HW110760   1.672   4.715   9.983
 2976SOL    HW210761   1.664   4.717  10.134
 2977SOL     OW10762  12.851   9.534  11.648
 2977SOL    HW110763  12.761   9.505  11.633
 2977SOL    HW210764  12.905   9.463  11.614
 2978SOL     OW10765  11.042   7.400   5.015
 2978SOL    HW110766  10.955   7.425   5.044
 2978SOL    HW210767  11.069   7.469   4.955
 2979SOL     OW10768   1.668  10.361  12.844
 2979SOL    HW110769   1.605  10.291  12.859
 2979SOL    HW210770   1.747  10.317  12.812
 2980SOL     OW10771   7.550   9.667   7.761
 2980SOL    HW110772   7.634   9.710   7.745
 2980SOL    HW210773   7.553   9.641   7.853
 2981SOL     OW10774  11.586   6.264   1.943
 2981SOL    HW110775  11.668   6.305   1.968
 2981SOL    HW210776  11.533   6.265   2.023
 2982SOL     OW10777   0.058   4.670   5.987
 2982SOL    HW110778   0.144   4.652   5.947
 2982SOL    HW210779   0.079   4.694   6.077
 2983SOL     OW10780   1.436  13.602   1.613
 2983SOL    HW110781   1.438  13.521   1.663
 2983SOL    HW210782   1.412  13.669   1.677
 2984SOL     OW10783   1.355   6.038   9.452
 2984SOL    HW110784   1.277   6.086   9.482
 2984SOL    HW210785   1.371   6.072   9.364
 2985SOL     OW10786  14.127   9.585   3.863
 2985SOL    HW110787  14.060   9.612   3.927
 2985SOL    HW210788  14.077   9.542   3.794
 2986SOL     OW10789   6.036   7.361   0.957
 2986SOL    HW110790   5.969   7.374   1.023
 2986SOL    HW210791   6.021   7.431   0.893
 2987SOL     OW10792  11.273  12.240   1.252
 2987SOL    HW110793  11.241  12.317   1.206
 2987SOL    HW210794  11.286  12.174   1.184
 2988SOL     OW10795   1.365  10.714   7.729
 2988SOL    HW110796   1.339  10.675   7.812
 2988SOL    HW210797   1.290  10.699   7.671
 2989SOL     OW10798   8.893   5.698   3.810
 2989SOL    HW110799   8.955   5.746   3.865
 2989SOL    HW210800   8.811   5.746   3.819
 2990SOL     OW10801   3.866   8.245   2.970
 2990SOL    HW110802   3.794   8.303   2.995
 2990SOL    HW210803   3.942   8.281   3.014
 2991SOL     OW10804   1.853  10.491   0.463
 2991SOL    HW110805   1.927  10.444   0.426
 2991SOL    HW210806   1.844  10.456   0.551
 2992SOL     OW10807   8.177   0.291  12.272
 2992SOL    HW110808   8.230   0.225  12.316
 2992SOL    HW210809   8.150   0.249  12.190
 2993SOL     OW10810   2.584   3.920   1.466
 2993SOL    HW110811   2.494   3.953   1.466
 2993SOL    HW210812   2.585   3.853   1.398
 2994SOL     OW10813   5.026  12.388   6.567
 2994SOL    HW110814   4.957  12.353   6.510
 2994SOL    HW210815   5.089  12.427   6.506
 2995SOL     OW10816  12.687   4.161  11.880
 2995SOL    HW110817  12.651   4.209  11.955
 2995SOL    HW210818  12.657   4.071  11.892
 2996SOL     OW10819  14.591  11.196   9.253
 2996SOL    HW110820  14.564  11.240   9.172
 2996SOL    HW210821  14.544  11.243   9.322
 2997SOL     OW10822   3.368   5.733  12.137
 2997SOL    HW110823   3.306   5.701  12.202
 2997SOL    HW210824   3.370   5.665  12.070
 2998SOL     OW10825   9.884   6.174   7.153
 2998SOL    HW110826   9.962   6.130   7.186
 2998SOL    HW210827   9.883   6.258   7.198
 2999SOL     OW10828  10.848   7.072  11.832
 2999SOL    HW110829  10.767   7.026  11.854
 2999SOL    HW210830  10.910   7.002  11.813
 3000SOL     OW10831  10.681   4.287   6.035
 3000SOL    HW110832  10.630   4.207   6.042
 3000SOL    HW210833  10.635   4.350   6.090
 3001SOL     OW10834   4.327  14.131   4.763
 3001SOL    HW110835   4.364  14.193   4.826
 3001SOL    HW210836   4.322  14.048   4.810
 3002SOL     OW10837  13.237   9.210  12.576
 3002SOL    HW110838  13.180   9.144  12.537
 3002SOL    HW210839  13.313   9.214  12.518
 3003SOL     OW10840  12.690   9.420   3.494
 3003SOL    HW110841  12.688   9.510   3.526
 3003SOL    HW210842  12.599   9.401   3.471
 3004SOL     OW10843  14.124   6.907  11.811
 3004SOL    HW110844  14.043   6.957  11.798
 3004SOL    HW210845  14.190   6.957  11.762
 3005SOL     OW10846  11.267   7.480   0.634
 3005SOL    HW110847  11.361   7.493   0.628
 3005SOL    HW210848  11.257   7.390   0.666
 3006SOL     OW10849   2.139  12.353   5.693
 3006SOL    HW110850   2.075  12.303   5.743
 3006SOL    HW210851   2.104  12.355   5.604
 3007SOL     OW10852   3.056   8.370   1.654
 3007SOL    HW110853   3.045   8.335   1.743
 3007SOL    HW210854   3.125   8.435   1.663
 3008SOL     OW10855   5.457   3.534   0.900
 3008SOL    HW110856   5.408   3.615   0.912
 3008SOL    HW210857   5.475   3.504   0.989
 3009SOL     OW10858   7.031   1.412  10.923
 3009SOL    HW110859   6.954   1.468  10.922
 3009SOL    HW210860   7.003   1.333  10.970
 3010SOL     OW10861  12.737   6.353  11.282
 3010SOL    HW110862  12.813   6.298  11.300
 3010SOL    HW210863  12.664   6.291  11.276
 3011SOL     OW10864   4.869   5.891   4.635
 3011SOL    HW110865   4.898   5.800   4.622
 3011SOL    HW210866   4.894   5.936   4.554
 3012SOL     OW10867   9.703   3.654  10.919
 3012SOL    HW110868   9.799   3.661  10.919
 3012SOL    HW210869   9.682   3.623  10.831
 3013SOL     OW10870  14.263  13.487  14.735
 3013SOL    HW110871  14.188  13.471  14.678
 3013SOL    HW210872  14.337  13.449  14.687
 3014SOL     OW10873   9.769   1.312  12.426
 3014SOL    HW110874   9.781   1.285  12.516
 3014SOL    HW210875   9.676   1.333  12.419
 3015SOL     OW10876   0.852   6.388   1.068
 3015SOL    HW110877   0.867   6.475   1.031
 3015SOL    HW210878   0.798   6.405   1.145
 3016SOL     OW10879  10.335  14.434   5.088
 3016SOL    HW110880  10.339  14.491   5.165
 3016SOL    HW210881  10.263  14.470   5.036
 3017SOL     OW10882   5.506  13.906   9.963
 3017SOL    HW110883   5.518  13.920  10.057
 3017SOL    HW210884   5.539  13.985   9.922
 3018SOL     OW10885   2.002   7.689   5.838
 3018SOL    HW110886   2.018   7.641   5.756
 3018SOL    HW210887   2.021   7.625   5.906
 3019SOL     OW10888  12.176   6.817  10.977
 3019SOL    HW110889  12.262   6.782  10.955
 3019SOL    HW210890  12.193   6.879  11.049
 3020SOL     OW10891   9.978   3.228   0.220
 3020SOL    HW110892   9.941   3.174   0.290
 3020SOL    HW210893  10.031   3.293   0.266
 3021SOL     OW10894   0.151  13.115   2.753
 3021SOL    HW110895   0.232  13.120   2.804
 3021SOL    HW210896   0.084  13.150   2.811
 3022SOL     OW10897   4.315  12.509   2.678
 3022SOL    HW110898   4.265  12.545   2.604
 3022SOL    HW210899   4.383  12.573   2.695
 3023SOL     OW10900  10.539   6.393   4.135
 3023SOL    HW110901  10.629   6.365   4.151
 3023SOL    HW210902  10.490   6.311   4.126
 3024SOL     OW10903   6.932   6.292   1.731
 3024SOL    HW110904   6.899   6.345   1.658
 3024SOL    HW210905   6.903   6.339   1.809
 3025SOL     OW10906   6.432   2.248  10.780
 3025SOL    HW110907   6.427   2.167  10.830
 3025SOL    HW210908   6.473   2.223  10.697
 3026SOL     OW10909   2.456  12.778  10.622
 3026SOL    HW110910   2.398  12.703  10.633
 3026SOL    HW210911   2.534  12.742  10.580
 3027SOL     OW10912  10.235   9.694   4.017
 3027SOL    HW110913  10.315   9.739   3.989
 3027SOL    HW210914  10.231   9.616   3.961
 3028SOL     OW10915   3.886   1.747  10.365
 3028SOL    HW110916   3.946   1.804  10.317
 3028SOL    HW210917   3.846   1.692  10.298
 3029SOL     OW10918   2.757   9.410  12.204
 3029SOL    HW110919   2.700   9.349  12.157
 3029SOL    HW210920   2.711   9.428  12.286
 3030SOL     OW10921  10.629   1.946   0.751
 3030SOL    HW110922  10.633   1.858   0.788
 3030SOL    HW210923  10.720   1.969   0.733
 3031SOL     OW10924   2.456   9.597   7.497
 3031SOL    HW110925   2.479   9.512   7.459
 3031SOL    HW210926   2.521   9.611   7.565
 3032SOL     OW10927   0.698   8.261  10.303
 3032SOL    HW110928   0.788   8.276  10.276
 3032SOL    HW210929   0.648   8.260  10.222
 3033SOL     OW10930   4.076  14.177  11.866
 3033SOL    HW110931   4.080  14.163  11.960
 3033SOL    HW210932   4.044  14.094  11.830
 3034SOL     OW10933   2.791   2.744   3.809
 3034SOL    HW110934   2.884   2.762   3.818
 3034SOL    HW210935   2.755   2.823   3.769
 3035SOL     OW10936   4.754  12.630  11.891
 3035SOL    HW110937   4.670  12.605  11.929
 3035SOL    HW210938   4.732  12.700  11.829
 3036SOL     OW10939  10.550   1.292  12.358
 3036SOL    HW110940  10.485   1.335  12.303
 3036SOL    HW210941  10.620   1.356  12.368
 3037SOL     OW10942  10.332   5.211  10.958
 3037SOL    HW110943  10.362   5.242  11.043
 3037SOL    HW210944  10.406   5.228  10.899
 3038SOL     OW10945   3.197   9.630   8.457
 3038SOL    HW110946   3.118   9.577   8.452
 3038SOL    HW210947   3.172   9.705   8.511
 3039SOL     OW10948   3.667  13.691  12.631
 3039SOL    HW110949   3.638  13.773  12.671
 3039SOL    HW210950   3.705  13.717  12.547
 3040SOL     OW10951  13.759   8.135   4.489
 3040SOL    HW110952  13.844   8.157   4.527
 3040SOL    HW210953  13.777   8.062   4.431
 3041SOL     OW10954   2.808  12.892  11.261
 3041SOL    HW110955   2.859  12.812  11.276
 3041SOL    HW210956   2.830  12.948  11.336
 3042SOL     OW10957  12.274   2.291   8.365
 3042SOL    HW110958  12.182   2.272   8.345
 3042SOL    HW210959  12.322   2.214   8.334
 3043SOL     OW10960  12.874  11.807   8.384
 3043SOL    HW110961  12.969  11.810   8.389
 3043SOL    HW210962  12.845  11.883   8.435
 3044SOL     OW10963  12.555  13.509   4.956
 3044SOL    HW110964  12.465  13.479   4.965
 3044SOL    HW210965  12.550  13.585   4.898
 3045SOL     OW10966   9.743   6.223  11.898
 3045SOL    HW110967   9.760   6.280  11.973
 3045SOL    HW210968   9.829   6.190  11.872
 3046SOL     OW10969   4.075   4.450   7.742
 3046SOL    HW110970   4.138   4.503   7.791
 3046SOL    HW210971   4.122   4.425   7.662
 3047SOL     OW10972  13.673  13.551  13.331
 3047SOL    HW110973  13.712  13.628  13.371
 3047SOL    HW210974  13.736  13.526  13.263
 3048SOL     OW10975   3.838  14.151   9.938
 3048SOL    HW110976   3.760  14.191   9.975
 3048SOL    HW210977   3.808  14.107   9.859
 3049SOL     OW10978   8.819  11.843  11.581
 3049SOL    HW110979   8.843  11.912  11.643
 3049SOL    HW210980   8.898  11.789  11.573
 3050SOL     OW10981  10.343   2.999   2.222
 3050SOL    HW110982  10.366   3.033   2.136
 3050SOL    HW210983  10.263   2.949   2.207
 3051SOL     OW10984   2.663   7.015   8.959
 3051SOL    HW110985   2.684   7.108   8.950
 3051SOL    HW210986   2.571   7.009   8.933
 3052SOL     OW10987   7.994  14.260   5.204
 3052SOL    HW110988   8.031  14.340   5.166
 3052SOL    HW210989   7.915  14.243   5.152
 3053SOL     OW10990   7.728   8.585   0.041
 3053SOL    HW110991   7.809   8.576   0.090
 3053SOL    HW210992   7.667   8.624   0.104
 3054SOL     OW10993  14.467   8.502   2.077
 3054SOL    HW110994  14.450   8.527   1.986
 3054SOL    HW210995  14.386   8.461   2.107
 3055SOL     OW10996   7.656   9.468   8.442
 3055SOL    HW110997   7.727   9.427   8.490
 3055SOL    HW210998   7.595   9.498   8.509
 3056SOL     OW10999   4.088   9.769  10.749
 3056SOL    HW111000   4.066   9.847  10.799
 3056SOL    HW211001   4.004   9.729  10.729
 3057SOL     OW11002  11.883   1.808   8.250
 3057SOL    HW111003  11.873   1.880   8.313
 3057SOL    HW211004  11.977   1.790   8.249
 3058SOL     OW11005   5.921   1.132  11.385
 3058SOL    HW111006   5.981   1.073  11.430
 3058SOL    HW211007   5.902   1.088  11.302
 3059SOL     OW11008   3.633  11.097  10.392
 3059SOL    HW111009   3.717  11.051  10.388
 3059SOL    HW211010   3.570  11.034  10.356
 3060SOL     OW11011   6.440   3.827   5.638
 3060SOL    HW111012   6.468   3.752   5.584
 3060SOL    HW211013   6.518   3.850   5.688
 3061SOL     OW11014   8.463  11.852   0.442
 3061SOL    HW111015   8.431  11.783   0.500
 3061SOL    HW211016   8.465  11.812   0.355
 3062SOL     OW11017  11.003   8.761   2.719
 3062SOL    HW111018  11.031   8.771   2.810
 3062SOL    HW211019  10.908   8.748   2.724
 3063SOL     OW11020  13.412   8.519   3.516
 3063SOL    HW111021  13.476   8.476   3.573
 3063SOL    HW211022  13.381   8.594   3.568
 3064SOL     OW11023   0.979   5.226  11.931
 3064SOL    HW111024   1.068   5.198  11.953
 3064SOL    HW211025   0.925   5.149  11.945
 3065SOL     OW11026  13.100   1.485  14.364
 3065SOL    HW111027  13.120   1.461  14.454
 3065SOL    HW211028  13.012   1.523  14.368
 3066SOL     OW11029  12.722   3.258  10.986
 3066SOL    HW111030  12.809   3.220  10.998
 3066SOL    HW211031  12.672   3.227  11.061
 3067SOL     OW11032  12.728   6.232  10.416
 3067SOL    HW111033  12.724   6.231  10.320
 3067SOL    HW211034  12.785   6.158  10.438
 3068SOL     OW11035   6.179   4.865   5.766
 3068SOL    HW111036   6.112   4.821   5.714
 3068SOL    HW211037   6.209   4.798   5.827
 3069SOL     OW11038  13.718  12.527   1.414
 3069SOL    HW111039  13.642  12.584   1.423
 3069SOL    HW211040  13.684  12.439   1.428
 3070SOL     OW11041   0.587   4.952   5.602
 3070SOL    HW111042   0.602   5.045   5.586
 3070SOL    HW211043   0.581   4.912   5.515
 3071SOL     OW11044  13.384   9.569   0.132
 3071SOL    HW111045  13.471   9.550   0.096
 3071SOL    HW211046  13.324   9.518   0.077
 3072SOL     OW11047   9.137   3.524  12.909
 3072SOL    HW111048   9.192   3.460  12.864
 3072SOL    HW211049   9.188   3.549  12.986
 3073SOL     OW11050  13.268  12.113   5.684
 3073SOL    HW111051  13.194  12.095   5.742
 3073SOL    HW211052  13.234  12.096   5.596
 3074SOL     OW11053   1.625   3.935   6.693
 3074SOL    HW111054   1.533   3.948   6.717
 3074SOL    HW211055   1.623   3.923   6.598
 3075SOL     OW11056  10.510   5.319   1.562
 3075SOL    HW111057  10.457   5.282   1.633
 3075SOL    HW211058  10.552   5.243   1.521
 3076SOL     OW11059   8.059   5.836   5.886
 3076SOL    HW111060   8.009   5.913   5.912
 3076SOL    HW211061   8.149   5.854   5.914
 3077SOL     OW11062   8.460   2.404   0.673
 3077SOL    HW111063   8.502   2.463   0.736
 3077SOL    HW211064   8.517   2.407   0.596
 3078SOL     OW11065   8.897  10.584  10.195
 3078SOL    HW111066   8.955  10.532  10.139
 3078SOL    HW211067   8.809  10.552  10.175
 3079SOL     OW11068   3.887   8.441   9.078
 3079SOL    HW111069   3.903   8.425   8.985
 3079SOL    HW211070   3.906   8.534   9.090
 3080SOL     OW11071  13.147   8.075  14.156
 3080SOL    HW111072  13.059   8.060  14.123
 3080SOL    HW211073  13.134   8.129  14.234
 3081SOL     OW11074   6.323   6.957  11.306
 3081SOL    HW111075   6.237   6.984  11.337
 3081SOL    HW211076   6.310   6.869  11.272
 3082SOL     OW11077   9.120   9.416   0.716
 3082SOL    HW111078   9.116   9.489   0.778
 3082SOL    HW211079   9.140   9.457   0.632
 3083SOL     OW11080   0.416   9.144  13.663
 3083SOL    HW111081   0.359   9.078  13.623
 3083SOL    HW211082   0.486   9.157  13.599
 3084SOL     OW11083  10.786   2.106  10.234
 3084SOL    HW111084  10.696   2.138  10.245
 3084SOL    HW211085  10.832   2.138  10.311
 3085SOL     OW11086   1.292  13.266   3.865
 3085SOL    HW111087   1.354  13.328   3.903
 3085SOL    HW211088   1.306  13.184   3.913
 3086SOL     OW11089   0.309   1.679   9.828
 3086SOL    HW111090   0.214   1.671   9.816
 3086SOL    HW211091   0.319   1.719   9.914
 3087SOL     OW11092   6.467  11.477   8.836
 3087SOL    HW111093   6.412  11.431   8.772
 3087SOL    HW211094   6.418  11.473   8.918
 3088SOL     OW11095   5.825  12.179   8.579
 3088SOL    HW111096   5.874  12.109   8.536
 3088SOL    HW211097   5.870  12.193   8.662
 3089SOL     OW11098   5.433   5.957  14.232
 3089SOL    HW111099   5.446   5.964  14.326
 3089SOL    HW211100   5.341   5.979  14.218
 3090SOL     OW11101  13.872   4.923   4.366
 3090SOL    HW111102  13.948   4.980   4.354
 3090SOL    HW211103  13.907   4.834   4.358
 3091SOL     OW11104   9.702   5.756  13.269
 3091SOL    HW111105   9.738   5.670  13.292
 3091SOL    HW211106   9.779   5.813  13.265
 3092SOL     OW11107  14.305   8.253  10.420
 3092SOL    HW111108  14.380   8.309  10.397
 3092SOL    HW211109  14.345   8.177  10.461
 3093SOL     OW11110   4.144  10.466   0.751
 3093SOL    HW111111   4.150  10.561   0.746
 3093SOL    HW211112   4.160  10.436   0.661
 3094SOL     OW11113   6.058  12.539   8.626
 3094SOL    HW111114   5.984  12.514   8.680
 3094SOL    HW211115   6.030  12.619   8.581
 3095SOL     OW11116  14.799   3.343   2.849
 3095SOL    HW111117  14.708   3.314   2.856
 3095SOL    HW211118  14.801   3.396   2.769
 3096SOL     OW11119   3.952   5.184  10.817
 3096SOL    HW111120   3.947   5.140  10.732
 3096SOL    HW211121   4.010   5.129  10.869
 3097SOL     OW11122   8.201   7.244   4.698
 3097SOL    HW111123   8.238   7.298   4.628
 3097SOL    HW211124   8.275   7.196   4.733
 3098SOL     OW11125   5.032  11.942   9.606
 3098SOL    HW111126   5.116  11.940   9.559
 3098SOL    HW211127   4.968  11.967   9.539
 3099SOL     OW11128  10.804  13.706   0.799
 3099SOL    HW111129  10.878  13.751   0.759
 3099SOL    HW211130  10.844  13.636   0.850
 3100SOL     OW11131   6.930   2.692  13.922
 3100SOL    HW111132   6.910   2.687  14.015
 3100SOL    HW211133   6.896   2.778  13.895
 3101SOL     OW11134   3.171   6.743   2.642
 3101SOL    HW111135   3.084   6.744   2.601
 3101SOL    HW211136   3.154   6.718   2.733
 3102SOL     OW11137   1.556  10.035   3.853
 3102SOL    HW111138   1.613  10.087   3.797
 3102SOL    HW211139   1.568  10.072   3.940
 3103SOL     OW11140  10.739   1.890   9.843
 3103SOL    HW111141  10.782   1.858   9.764
 3103SOL    HW211142  10.747   1.817   9.905
 3104SOL     OW11143   1.027   4.905   7.565
 3104SOL    HW111144   1.026   4.947   7.479
 3104SOL    HW211145   1.033   4.978   7.627
 3105SOL     OW11146  13.669  11.157  11.644
 3105SOL    HW111147  13.667  11.200  11.558
 3105SOL    HW211148  13.720  11.216  11.699
 3106SOL     OW11149  12.382  11.738   9.305
 3106SOL    HW111150  12.438  11.764   9.232
 3106SOL    HW211151  12.393  11.643   9.311
 3107SOL     OW11152   9.936   8.893   3.132
 3107SOL    HW111153   9.982   8.938   3.061
 3107SOL    HW211154   9.976   8.928   3.212
 3108SOL     OW11155   1.008   7.635  10.582
 3108SOL    HW111156   0.969   7.550  10.563
 3108SOL    HW211157   0.940   7.698  10.560
 3109SOL     OW11158  14.695  13.736   6.182
 3109SOL    HW111159  14.727  13.672   6.246
 3109SOL    HW211160  14.692  13.689   6.099
 3110SOL     OW11161   2.936   2.884   6.283
 3110SOL    HW111162   3.023   2.919   6.304
 3110SOL    HW211163   2.906   2.844   6.365
 3111SOL     OW11164   0.720  10.695  12.265
 3111SOL    HW111165   0.790  10.633  12.286
 3111SOL    HW211166   0.733  10.767  12.326
 3112SOL     OW11167  13.217   5.133  11.495
 3112SOL    HW111168  13.205   5.187  11.574
 3112SOL    HW211169  13.286   5.178  11.446
 3113SOL     OW11170  13.370   3.747   5.481
 3113SOL    HW111171  13.319   3.826   5.499
 3113SOL    HW211172  13.350   3.726   5.390
 3114SOL     OW11173  14.764  10.374   6.893
 3114SOL    HW111174  14.675  10.383   6.859
 3114SOL    HW211175  14.808  10.455   6.866
 3115SOL     OW11176   5.910  10.733   5.401
 3115SOL    HW111177   5.908  10.807   5.462
 3115SOL    HW211178   6.002  10.709   5.395
 3116SOL     OW11179   9.384   9.088   8.107
 3116SOL    HW111180   9.469   9.068   8.069
 3116SOL    HW211181   9.321   9.054   8.043
 3117SOL     OW11182   5.219   1.652   4.247
 3117SOL    HW111183   5.201   1.740   4.281
 3117SOL    HW211184   5.201   1.594   4.321
 3118SOL     OW11185  13.243   3.434   3.654
 3118SOL    HW111186  13.160   3.389   3.664
 3118SOL    HW211187  13.220   3.526   3.646
 3119SOL     OW11188   7.620   4.506   3.008
 3119SOL    HW111189   7.662   4.426   2.978
 3119SOL    HW211190   7.601   4.555   2.928
 3120SOL     OW11191   3.927   2.715   1.266
 3120SOL    HW111192   3.853   2.717   1.205
 3120SOL    HW211193   3.896   2.766   1.341
 3121SOL     OW11194  11.751   0.967   6.350
 3121SOL    HW111195  11.830   0.917   6.328
 3121SOL    HW211196  11.710   0.917   6.420
 3122SOL     OW11197   2.633   6.366   0.617
 3122SOL    HW111198   2.609   6.292   0.672
 3122SOL    HW211199   2.621   6.335   0.528
 3123SOL     OW11200   0.445   5.248  10.636
 3123SOL    HW111201   0.388   5.313  10.594
 3123SOL    HW211202   0.511   5.300  10.682
 3124SOL     OW11203   4.183   9.924   5.175
 3124SOL    HW111204   4.183  10.014   5.209
 3124SOL    HW211205   4.276   9.904   5.160
 3125SOL     OW11206  10.525  12.498  11.975
 3125SOL    HW111207  10.518  12.429  12.041
 3125SOL    HW211208  10.435  12.528  11.962
 3126SOL     OW11209   2.280   8.557   2.126
 3126SOL    HW111210   2.330   8.638   2.113
 3126SOL    HW211211   2.197   8.573   2.082
 3127SOL     OW11212   2.575   6.781  12.563
 3127SOL    HW111213   2.605   6.696  12.596
 3127SOL    HW211214   2.605   6.783  12.472
 3128SOL     OW11215   4.610   0.353   4.833
 3128SOL    HW111216   4.639   0.388   4.918
 3128SOL    HW211217   4.683   0.298   4.804
 3129SOL     OW11218  14.421   9.627   5.899
 3129SOL    HW111219  14.425   9.575   5.818
 3129SOL    HW211220  14.357   9.696   5.880
 3130SOL     OW11221   4.469  12.155  14.521
 3130SOL    HW111222   4.449  12.249  14.525
 3130SOL    HW211223   4.393  12.114  14.562
 3131SOL     OW11224   4.718   3.719   1.286
 3131SOL    HW111225   4.729   3.664   1.364
 3131SOL    HW211226   4.791   3.694   1.229
 3132SOL     OW11227  14.614  11.933   8.513
 3132SOL    HW111228  14.561  11.863   8.551
 3132SOL    HW211229  14.672  11.888   8.452
 3133SOL     OW11230   6.058   8.684   5.603
 3133SOL    HW111231   5.966   8.704   5.614
 3133SOL    HW211232   6.081   8.723   5.519
 3134SOL     OW11233   6.584  13.190   1.799
 3134SOL    HW111234   6.570  13.258   1.865
 3134SOL    HW211235   6.496  13.156   1.780
 3135SOL     OW11236   9.515  12.340   5.052
 3135SOL    HW111237   9.490  12.254   5.020
 3135SOL    HW211238   9.459  12.354   5.129
 3136SOL     OW11239   2.127   4.728   5.695
 3136SOL    HW111240   2.142   4.779   5.775
 3136SOL    HW211241   2.157   4.640   5.716
 3137SOL     OW11242  11.178   7.173   1.876
 3137SOL    HW111243  11.182   7.114   1.952
 3137SOL    HW211244  11.247   7.142   1.818
 3138SOL     OW11245  12.518   0.021   9.704
 3138SOL    HW111246  12.451   0.083   9.676
 3138SOL    HW211247  12.529   0.039   9.798
 3139SOL     OW11248   6.671   3.924   1.096
 3139SOL    HW111249   6.752   3.949   1.139
 3139SOL    HW211250   6.637   3.851   1.147
 3140SOL     OW11251   6.284   5.342   4.071
 3140SOL    HW111252   6.287   5.306   3.983
 3140SOL    HW211253   6.375   5.340   4.102
 3141SOL     OW11254   5.628  11.027  10.461
 3141SOL    HW111255   5.686  11.095  10.494
 3141SOL    HW211256   5.687  10.957  10.432
 3142SOL     OW11257   5.498   9.163   7.944
 3142SOL    HW111258   5.545   9.097   7.894
 3142SOL    HW211259   5.529   9.151   8.034
 3143SOL     OW11260  12.340  10.157   2.019
 3143SOL    HW111261  12.378  10.240   1.990
 3143SOL    HW211262  12.414  10.106   2.050
 3144SOL     OW11263   0.825   8.062   2.023
 3144SOL    HW111264   0.910   8.080   2.063
 3144SOL    HW211265   0.766   8.045   2.097
 3145SOL     OW11266   2.033   8.534   4.382
 3145SOL    HW111267   1.959   8.570   4.430
 3145SOL    HW211268   2.074   8.610   4.341
 3146SOL     OW11269   3.296   8.270  11.504
 3146SOL    HW111270   3.270   8.360  11.483
 3146SOL    HW211271   3.391   8.268  11.490
 3147SOL     OW11272  10.219   3.474   2.943
 3147SOL    HW111273  10.168   3.498   3.021
 3147SOL    HW211274  10.265   3.394   2.969
 3148SOL     OW11275   3.822  12.254  13.810
 3148SOL    HW111276   3.732  12.226  13.826
 3148SOL    HW211277   3.816  12.350  13.803
 3149SOL     OW11278   4.375   9.441   9.861
 3149SOL    HW111279   4.390   9.354   9.824
 3149SOL    HW211280   4.455   9.460   9.911
 3150SOL     OW11281  14.635   1.141   2.030
 3150SOL    HW111282  14.590   1.184   2.103
 3150SOL    HW211283  14.588   1.058   2.020
 3151SOL     OW11284   4.386  11.111   3.218
 3151SOL    HW111285   4.322  11.157   3.272
 3151SOL    HW211286   4.412  11.035   3.270
 3152SOL     OW11287   9.563   0.201   4.691
 3152SOL    HW111288   9.654   0.230   4.700
 3152SOL    HW211289   9.555   0.173   4.600
 3153SOL     OW11290  13.683  13.609   1.378
 3153SOL    HW111291  13.686  13.618   1.473
 3153SOL    HW211292  13.767  13.645   1.348
 3154SOL     OW11293  14.551  12.485   0.002
 3154SOL    HW111294  14.639  12.508   0.031
 3154SOL    HW211295  14.514  12.435   0.075
 3155SOL     OW11296  14.207   4.482  13.469
 3155SOL    HW111297  14.130   4.495  13.414
 3155SOL    HW211298  14.197   4.546  13.540
 3156SOL     OW11299  14.477  10.081   0.803
 3156SOL    HW111300  14.552  10.081   0.862
 3156SOL    HW211301  14.479   9.995   0.762
 3157SOL     OW11302   0.890   8.716   3.752
 3157SOL    HW111303   0.949   8.716   3.678
 3157SOL    HW211304   0.857   8.806   3.758
 3158SOL     OW11305   9.219   5.502   3.852
 3158SOL    HW111306   9.129   5.471   3.843
 3158SOL    HW211307   9.264   5.470   3.773
 3159SOL     OW11308   0.604   9.856   2.241
 3159SOL    HW111309   0.649   9.785   2.195
 3159SOL    HW211310   0.513   9.827   2.247
 3160SOL     OW11311  11.376   6.280   1.780
 3160SOL    HW111312  11.356   6.370   1.805
 3160SOL    HW211313  11.448   6.254   1.837
 3161SOL     OW11314  13.393   3.870  10.349
 3161SOL    HW111315  13.449   3.812  10.400
 3161SOL    HW211316  13.304   3.838  10.363
 3162SOL     OW11317  11.993   1.989  12.530
 3162SOL    HW111318  12.023   1.902  12.558
 3162SOL    HW211319  11.975   2.036  12.612
 3163SOL     OW11320   1.478   4.608  13.117
 3163SOL    HW111321   1.475   4.578  13.026
 3163SOL    HW211322   1.413   4.677  13.121
 3164SOL     OW11323  12.408   7.576   6.551
 3164SOL    HW111324  12.317   7.589   6.581
 3164SOL    HW211325  12.459   7.638   6.602
 3165SOL     OW11326   8.224  11.115  10.418
 3165SOL    HW111327   8.276  11.158  10.350
 3165SOL    HW211328   8.208  11.184  10.483
 3166SOL     OW11329  13.070   4.997   2.703
 3166SOL    HW111330  12.988   5.041   2.723
 3166SOL    HW211331  13.062   4.910   2.743
 3167SOL     OW11332   7.161   2.200   3.525
 3167SOL    HW111333   7.221   2.239   3.461
 3167SOL    HW211334   7.083   2.178   3.475
 3168SOL     OW11335   1.413   0.701  10.540
 3168SOL    HW111336   1.388   0.639  10.608
 3168SOL    HW211337   1.407   0.787  10.582
 3169SOL     OW11338  12.766   0.522   5.269
 3169SOL    HW111339  12.818   0.574   5.331
 3169SOL    HW211340  12.681   0.564   5.268
 3170SOL     OW11341  13.654  14.420   8.197
 3170SOL    HW111342  13.641  14.358   8.269
 3170SOL    HW211343  13.743  14.404   8.167
 3171SOL     OW11344   1.223  12.434  14.829
 3171SOL    HW111345   1.287  12.401  14.766
 3171SOL    HW211346   1.246  12.390   0.039
 3172SOL     OW11347   2.870  13.615   8.019
 3172SOL    HW111348   2.882  13.542   8.080
 3172SOL    HW211349   2.915  13.587   7.939
 3173SOL     OW11350   2.619   0.828   1.570
 3173SOL    HW111351   2.697   0.868   1.609
 3173SOL    HW211352   2.650   0.793   1.486
 3174SOL     OW11353   7.763   8.447   1.215
 3174SOL    HW111354   7.746   8.417   1.305
 3174SOL    HW211355   7.753   8.542   1.220
 3175SOL     OW11356  12.874   9.365   7.754
 3175SOL    HW111357  12.923   9.413   7.688
 3175SOL    HW211358  12.854   9.281   7.712
 3176SOL     OW11359  13.358   8.189   1.232
 3176SOL    HW111360  13.263   8.181   1.226
 3176SOL    HW211361  13.378   8.271   1.187
 3177SOL     OW11362   5.446   6.715   5.653
 3177SOL    HW111363   5.391   6.787   5.623
 3177SOL    HW211364   5.433   6.646   5.588
 3178SOL     OW11365   8.193   9.035   0.434
 3178SOL    HW111366   8.188   9.004   0.525
 3178SOL    HW211367   8.114   9.087   0.422
 3179SOL     OW11368   6.756   0.912   5.194
 3179SOL    HW111369   6.757   0.998   5.237
 3179SOL    HW211370   6.732   0.931   5.104
 3180SOL     OW11371  13.402   9.220   7.424
 3180SOL    HW111372  13.446   9.246   7.504
 3180SOL    HW211373  13.439   9.276   7.356
 3181SOL     OW11374   5.152  11.573  13.934
 3181SOL    HW111375   5.238  11.606  13.907
 3181SOL    HW211376   5.090  11.620  13.878
 3182SOL     OW11377   6.820   7.324  11.230
 3182SOL    HW111378   6.823   7.309  11.324
 3182SOL    HW211379   6.896   7.378  11.211
 3183SOL     OW11380   6.569   7.683  12.765
 3183SOL    HW111381   6.578   7.753  12.700
 3183SOL    HW211382   6.571   7.602  12.714
 3184SOL     OW11383   9.745   0.036  13.159
 3184SOL    HW111384   9.827   0.035  13.209
 3184SOL    HW211385   9.742  14.823  13.116
 3185SOL     OW11386   0.341   9.703  14.517
 3185SOL    HW111387   0.253   9.734  14.496
 3185SOL    HW211388   0.329   9.650  14.596
 3186SOL     OW11389   0.234   5.574   1.129
 3186SOL    HW111390   0.187   5.531   1.058
 3186SOL    HW211391   0.166   5.598   1.192
 3187SOL     OW11392   3.419   3.894  11.532
 3187SOL    HW111393   3.327   3.878  11.554
 3187SOL    HW211394   3.461   3.809  11.539
 3188SOL     OW11395   4.002   6.716   1.938
 3188SOL    HW111396   3.935   6.756   1.883
 3188SOL    HW211397   3.963   6.713   2.025
 3189SOL     OW11398   5.395  10.249  14.494
 3189SOL    HW111399   5.486  10.259  14.466
 3189SOL    HW211400   5.347  10.317  14.447
 3190SOL     OW11401   4.922   7.447  14.616
 3190SOL    HW111402   4.906   7.538  14.643
 3190SOL    HW211403   5.014   7.432  14.639
 3191SOL     OW11404  10.656   9.836  10.910
 3191SOL    HW111405  10.693   9.921  10.931
 3191SOL    HW211406  10.627   9.801  10.995
 3192SOL     OW11407   3.162  11.562  10.066
 3192SOL    HW111408   3.214  11.620  10.122
 3192SOL    HW211409   3.078  11.607  10.055
 3193SOL     OW11410   8.478  14.864   7.013
 3193SOL    HW111411   8.437  14.798   6.957
 3193SOL    HW211412   8.505   0.061   6.953
 3194SOL     OW11413  14.832   2.650   8.130
 3194SOL    HW111414   0.004   2.596   8.195
 3194SOL    HW211415  14.749   2.605   8.115
 3195SOL     OW11416   8.731   0.997  13.238
 3195SOL    HW111417   8.755   0.969  13.326
 3195SOL    HW211418   8.644   1.035  13.248
 3196SOL     OW11419   2.488   3.146   5.896
 3196SOL    HW111420   2.464   3.058   5.868
 3196SOL    HW211421   2.420   3.170   5.959
 3197SOL     OW11422  13.899   6.310   9.432
 3197SOL    HW111423  13.880   6.325   9.524
 3197SOL    HW211424  13.813   6.300   9.391
 3198SOL     OW11425   1.132  13.054   7.087
 3198SOL    HW111426   1.089  13.062   7.172
 3198SOL    HW211427   1.075  12.995   7.037
 3199SOL     OW11428  14.045   3.534   9.001
 3199SOL    HW111429  13.960   3.510   9.039
 3199SOL    HW211430  14.066   3.460   8.943
 3200SOL     OW11431   3.017   2.868   1.881
 3200SOL    HW111432   2.982   2.939   1.934
 3200SOL    HW211433   2.941   2.817   1.854
 3201SOL     OW11434   9.998  11.854  14.482
 3201SOL    HW111435   9.921  11.797  14.486
 3201SOL    HW211436   9.962  11.943  14.481
 3202SOL     OW11437  12.985   1.250  13.617
 3202SOL    HW111438  12.966   1.320  13.554
 3202SOL    HW211439  12.913   1.254  13.680
 3203SOL     OW11440   9.601   0.948   6.793
 3203SOL    HW111441   9.583   0.930   6.886
 3203SOL    HW211442   9.602   0.861   6.752
 3204SOL     OW11443   4.522   0.280  11.405
 3204SOL    HW111444   4.433   0.267  11.440
 3204SOL    HW211445   4.519   0.241  11.318
 3205SOL     OW11446   3.738   1.975   0.239
 3205SOL    HW111447   3.804   1.918   0.199
 3205SOL    HW211448   3.785   2.021   0.308
 3206SOL     OW11449   8.169   7.702   4.349
 3206SOL    HW111450   8.116   7.668   4.422
 3206SOL    HW211451   8.242   7.640   4.342
 3207SOL     OW11452  13.360  14.085   2.150
 3207SOL    HW111453  13.283  14.130   2.185
 3207SOL    HW211454  13.394  14.145   2.083
 3208SOL     OW11455   2.956   8.461   1.113
 3208SOL    HW111456   3.032   8.428   1.066
 3208SOL    HW211457   2.963   8.422   1.200
 3209SOL     OW11458   6.601   8.289  10.174
 3209SOL    HW111459   6.695   8.296  10.188
 3209SOL    HW211460   6.579   8.364  10.119
 3210SOL     OW11461   8.386   0.128   5.972
 3210SOL    HW111462   8.390   0.190   5.900
 3210SOL    HW211463   8.405   0.043   5.932
 3211SOL     OW11464   8.211   7.102  10.585
 3211SOL    HW111465   8.174   7.019  10.618
 3211SOL    HW211466   8.135   7.148  10.549
 3212SOL     OW11467   8.669   2.055  12.901
 3212SOL    HW111468   8.591   2.094  12.862
 3212SOL    HW211469   8.663   1.962  12.882
 3213SOL     OW11470   6.891   6.504   6.281
 3213SOL    HW111471   6.964   6.553   6.244
 3213SOL    HW211472   6.814   6.540   6.236
 3214SOL     OW11473   5.691   5.721   8.596
 3214SOL    HW111474   5.703   5.815   8.612
 3214SOL    HW211475   5.604   5.701   8.632
 3215SOL     OW11476   9.780   0.758   7.322
 3215SOL    HW111477   9.793   0.675   7.368
 3215SOL    HW211478   9.698   0.792   7.357
 3216SOL     OW11479   7.109  10.572   4.716
 3216SOL    HW111480   7.078  10.650   4.671
 3216SOL    HW211481   7.034  10.512   4.714
 3217SOL     OW11482   1.946  12.760  13.827
 3217SOL    HW111483   1.925  12.816  13.902
 3217SOL    HW211484   1.874  12.698  13.821
 3218SOL     OW11485  11.854   2.253   5.431
 3218SOL    HW111486  11.908   2.331   5.445
 3218SOL    HW211487  11.827   2.226   5.519
 3219SOL     OW11488   3.986   4.191   9.806
 3219SOL    HW111489   3.965   4.106   9.765
 3219SOL    HW211490   3.964   4.256   9.739
 3220SOL     OW11491   7.160   7.313  12.289
 3220SOL    HW111492   7.145   7.316  12.383
 3220SOL    HW211493   7.196   7.226  12.273
 3221SOL     OW11494  10.890   7.565  11.629
 3221SOL    HW111495  10.961   7.545  11.567
 3221SOL    HW211496  10.813   7.580  11.574
 3222SOL     OW11497   3.630   3.239   2.726
 3222SOL    HW111498   3.701   3.262   2.666
 3222SOL    HW211499   3.564   3.308   2.712
 3223SOL     OW11500   6.269   6.852   4.362
 3223SOL    HW111501   6.229   6.910   4.296
 3223SOL    HW211502   6.363   6.864   4.350
 3224SOL     OW11503  10.488  10.173   2.464
 3224SOL    HW111504  10.477  10.191   2.557
 3224SOL    HW211505  10.507  10.079   2.460
 3225SOL     OW11506   4.514   4.053   2.357
 3225SOL    HW111507   4.510   3.959   2.376
 3225SOL    HW211508   4.516   4.059   2.262
 3226SOL     OW11509   0.843   8.312   4.018
 3226SOL    HW111510   0.889   8.379   3.967
 3226SOL    HW211511   0.898   8.299   4.095
 3227SOL     OW11512   6.698   3.075   2.133
 3227SOL    HW111513   6.770   3.059   2.194
 3227SOL    HW211514   6.631   3.117   2.186
 3228SOL     OW11515  14.869   4.463   2.531
 3228SOL    HW111516  14.858   4.500   2.444
 3228SOL    HW211517  14.782   4.429   2.554
 3229SOL     OW11518  12.249   7.754  13.882
 3229SOL    HW111519  12.231   7.690  13.813
 3229SOL    HW211520  12.301   7.706  13.946
 3230SOL     OW11521  10.074  13.163  13.903
 3230SOL    HW111522  10.151  13.132  13.855
 3230SOL    HW211523  10.108  13.233  13.959
 3231SOL     OW11524   7.586  11.571   1.940
 3231SOL    HW111525   7.573  11.662   1.915
 3231SOL    HW211526   7.521  11.522   1.889
 3232SOL     OW11527  10.513  11.705  10.551
 3232SOL    HW111528  10.421  11.699  10.576
 3232SOL    HW211529  10.561  11.695  10.633
 3233SOL     OW11530  12.202   3.395   5.204
 3233SOL    HW111531  12.129   3.341   5.235
 3233SOL    HW211532  12.205   3.469   5.265
 3234SOL     OW11533   1.170   1.082   4.005
 3234SOL    HW111534   1.161   1.047   3.916
 3234SOL    HW211535   1.148   1.008   4.062
 3235SOL     OW11536  14.761   9.263   0.444
 3235SOL    HW111537  14.785   9.170   0.439
 3235SOL    HW211538  14.696   9.268   0.514
 3236SOL     OW11539  11.105   6.411  12.282
 3236SOL    HW111540  11.080   6.354  12.210
 3236SOL    HW211541  11.106   6.353  12.359
 3237SOL     OW11542  14.830   7.399   9.557
 3237SOL    HW111543  14.794   7.488   9.551
 3237SOL    HW211544   0.049   7.412   9.584
 3238SOL     OW11545   1.580   9.533  12.765
 3238SOL    HW111546   1.573   9.554  12.858
 3238SOL    HW211547   1.529   9.453  12.755
 3239SOL     OW11548   3.812   4.342   7.785
 3239SOL    HW111549   3.819   4.247   7.774
 3239SOL    HW211550   3.902   4.374   7.771
 3240SOL     OW11551   3.489   8.503  12.230
 3240SOL    HW111552   3.399   8.473  12.244
 3240SOL    HW211553   3.481   8.598  12.222
 3241SOL     OW11554   2.244   9.163  10.219
 3241SOL    HW111555   2.301   9.105  10.168
 3241SOL    HW211556   2.288   9.170  10.304
 3242SOL     OW11557  11.276   9.373   9.439
 3242SOL    HW111558  11.289   9.455   9.488
 3242SOL    HW211559  11.240   9.401   9.355
 3243SOL     OW11560  14.421   6.225  12.691
 3243SOL    HW111561  14.358   6.268  12.633
 3243SOL    HW211562  14.473   6.170  12.632
 3244SOL     OW11563   8.265  13.265  11.842
 3244SOL    HW111564   8.358  13.285  11.832
 3244SOL    HW211565   8.237  13.236  11.755
 3245SOL     OW11566   9.144   3.785   1.470
 3245SOL    HW111567   9.174   3.828   1.550
 3245SOL    HW211568   9.210   3.717   1.454
 3246SOL     OW11569  11.528   5.382  12.830
 3246SOL    HW111570  11.572   5.312  12.877
 3246SOL    HW211571  11.560   5.375  12.740
 3247SOL     OW11572  14.579   7.583  14.744
 3247SOL    HW111573  14.506   7.533  14.706
 3247SOL    HW211574  14.657   7.548  14.701
 3248SOL     OW11575  13.294   7.716   1.735
 3248SOL    HW111576  13.320   7.789   1.791
 3248SOL    HW211577  13.316   7.745   1.646
 3249SOL     OW11578   7.690  12.460   4.579
 3249SOL    HW111579   7.726  12.516   4.648
 3249SOL    HW211580   7.674  12.520   4.505
 3250SOL     OW11581   3.597   3.877   1.749
 3250SOL    HW111582   3.552   3.892   1.666
 3250SOL    HW211583   3.528   3.853   1.810
 3251SOL     OW11584   0.293  12.224  14.015
 3251SOL    HW111585   0.300  12.281  14.091
 3251SOL    HW211586   0.340  12.145  14.039
 3252SOL     OW11587   7.200  12.256   0.737
 3252SOL    HW111588   7.171  12.254   0.646
 3252SOL    HW211589   7.196  12.349   0.761
 3253SOL     OW11590  12.773   4.241  10.532
 3253SOL    HW111591  12.739   4.161  10.571
 3253SOL    HW211592  12.860   4.251  10.570
 3254SOL     OW11593   0.271   6.145  11.966
 3254SOL    HW111594   0.230   6.085  11.902
 3254SOL    HW211595   0.199   6.170  12.024
 3255SOL     OW11596  11.572   8.863  11.466
 3255SOL    HW111597  11.614   8.926  11.408
 3255SOL    HW211598  11.499   8.828  11.415
 3256SOL     OW11599   3.351   2.791  11.283
 3256SOL    HW111600   3.280   2.855  11.283
 3256SOL    HW211601   3.362   2.767  11.191
 3257SOL     OW11602   2.478   3.918  12.934
 3257SOL    HW111603   2.385   3.937  12.947
 3257SOL    HW211604   2.497   3.846  12.993
 3258SOL     OW11605   2.727   7.398   4.938
 3258SOL    HW111606   2.647   7.449   4.950
 3258SOL    HW211607   2.788   7.460   4.896
 3259SOL     OW11608   3.303  14.022   7.661
 3259SOL    HW111609   3.221  14.027   7.711
 3259SOL    HW211610   3.275  14.016   7.570
 3260SOL     OW11611   5.532   0.373   2.729
 3260SOL    HW111612   5.608   0.386   2.672
 3260SOL    HW211613   5.466   0.434   2.694
 3261SOL     OW11614  11.793  11.938   4.221
 3261SOL    HW111615  11.830  12.012   4.173
 3261SOL    HW211616  11.794  11.866   4.158
 3262SOL     OW11617   9.474  14.698   9.073
 3262SOL    HW111618   9.443  14.776   9.119
 3262SOL    HW211619   9.414  14.688   8.999
 3263SOL     OW11620  10.092   2.963   5.034
 3263SOL    HW111621  10.172   3.013   5.019
 3263SOL    HW211622  10.088   2.952   5.129
 3264SOL     OW11623   1.976  13.086   5.081
 3264SOL    HW111624   1.902  13.062   5.026
 3264SOL    HW211625   1.965  13.181   5.095
 3265SOL     OW11626   9.475  14.233  14.552
 3265SOL    HW111627   9.479  14.326  14.571
 3265SOL    HW211628   9.385  14.218  14.521
 3266SOL     OW11629  13.574  10.916  13.440
 3266SOL    HW111630  13.524  10.862  13.502
 3266SOL    HW211631  13.648  10.861  13.415
 3267SOL     OW11632   4.731  14.276   4.827
 3267SOL    HW111633   4.727  14.313   4.915
 3267SOL    HW211634   4.824  14.255   4.814
 3268SOL     OW11635  11.948   1.598   1.396
 3268SOL    HW111636  12.015   1.576   1.332
 3268SOL    HW211637  11.986   1.572   1.480
 3269SOL     OW11638  11.287   8.959   9.616
 3269SOL    HW111639  11.272   9.002   9.531
 3269SOL    HW211640  11.229   8.883   9.615
 3270SOL     OW11641  10.921  10.355  10.029
 3270SOL    HW111642  10.831  10.323  10.023
 3270SOL    HW211643  10.931  10.412   9.953
 3271SOL     OW11644  10.577  11.623   9.908
 3271SOL    HW111645  10.543  11.578   9.985
 3271SOL    HW211646  10.566  11.560   9.837
 3272SOL     OW11647  10.742  10.026  12.386
 3272SOL    HW111648  10.688  10.089  12.434
 3272SOL    HW211649  10.678   9.970  12.342
 3273SOL     OW11650   3.451   1.668   5.643
 3273SOL    HW111651   3.446   1.578   5.611
 3273SOL    HW211652   3.362   1.687   5.674
 3274SOL     OW11653   3.260   3.145  10.917
 3274SOL    HW111654   3.263   3.096  10.835
 3274SOL    HW211655   3.237   3.234  10.891
 3275SOL     OW11656   9.434  14.578   0.951
 3275SOL    HW111657   9.418  14.593   1.044
 3275SOL    HW211658   9.365  14.517   0.924
 3276SOL     OW11659   1.748   3.203  10.599
 3276SOL    HW111660   1.658   3.191  10.629
 3276SOL    HW211661   1.798   3.215  10.679
 3277SOL     OW11662   8.724  13.001   6.745
 3277SOL    HW111663   8.776  12.977   6.821
 3277SOL    HW211664   8.709  12.919   6.698
 3278SOL     OW11665  12.259   8.022  14.287
 3278SOL    HW111666  12.290   8.042  14.376
 3278SOL    HW211667  12.319   8.069  14.230
 3279SOL     OW11668  13.839   3.552  10.566
 3279SOL    HW111669  13.888   3.484  10.613
 3279SOL    HW211670  13.888   3.633  10.581
 3280SOL     OW11671  11.216   4.382   5.444
 3280SOL    HW111672  11.288   4.353   5.390
 3280SOL    HW211673  11.158   4.430   5.384
 3281SOL     OW11674  14.254  13.613   3.202
 3281SOL    HW111675  14.224  13.594   3.113
 3281SOL    HW211676  14.335  13.662   3.190
 3282SOL     OW11677   0.027   5.762  14.687
 3282SOL    HW111678   0.002   5.722  14.770
 3282SOL    HW211679   0.113   5.801  14.704
 3283SOL     OW11680   2.467   4.010   1.971
 3283SOL    HW111681   2.464   3.929   1.921
 3283SOL    HW211682   2.379   4.046   1.965
 3284SOL     OW11683  10.419   1.919   7.839
 3284SOL    HW111684  10.402   1.943   7.748
 3284SOL    HW211685  10.416   1.823   7.840
 3285SOL     OW11686  13.021   4.750   5.021
 3285SOL    HW111687  13.036   4.844   5.027
 3285SOL    HW211688  13.063   4.724   4.939
 3286SOL     OW11689  11.936   6.753  11.987
 3286SOL    HW111690  11.852   6.737  12.030
 3286SOL    HW211691  11.937   6.694  11.912
 3287SOL     OW11692   7.709  14.373   4.300
 3287SOL    HW111693   7.789  14.424   4.298
 3287SOL    HW211694   7.650  14.417   4.239
 3288SOL     OW11695  13.925  12.813   0.391
 3288SOL    HW111696  13.877  12.739   0.427
 3288SOL    HW211697  13.996  12.828   0.453
 3289SOL     OW11698  14.147  11.651   1.501
 3289SOL    HW111699  14.106  11.581   1.553
 3289SOL    HW211700  14.209  11.692   1.561
 3290SOL     OW11701   9.105   0.608  12.264
 3290SOL    HW111702   9.199   0.625  12.277
 3290SOL    HW211703   9.080   0.666  12.192
 3291SOL     OW11704   3.849   2.210   9.709
 3291SOL    HW111705   3.914   2.234   9.775
 3291SOL    HW211706   3.766   2.241   9.745
 3292SOL     OW11707   1.679  11.648   0.769
 3292SOL    HW111708   1.668  11.586   0.841
 3292SOL    HW211709   1.774  11.651   0.755
 3293SOL     OW11710   0.514   9.620  12.669
 3293SOL    HW111711   0.539   9.556  12.603
 3293SOL    HW211712   0.503   9.702  12.621
 3294SOL     OW11713  14.772  10.592   5.850
 3294SOL    HW111714  14.772  10.497   5.864
 3294SOL    HW211715  14.692  10.622   5.893
 3295SOL     OW11716   5.569   8.467  10.489
 3295SOL    HW111717   5.579   8.560  10.472
 3295SOL    HW211718   5.527   8.432  10.411
 3296SOL     OW11719   9.290  14.367  13.462
 3296SOL    HW111720   9.320  14.412  13.383
 3296SOL    HW211721   9.221  14.308  13.431
 3297SOL     OW11722   5.624  11.297   1.872
 3297SOL    HW111723   5.683  11.318   1.800
 3297SOL    HW211724   5.607  11.380   1.915
 3298SOL     OW11725   3.899  14.182  13.072
 3298SOL    HW111726   3.966  14.228  13.022
 3298SOL    HW211727   3.945  14.109  13.114
 3299SOL     OW11728  13.817   9.980   7.263
 3299SOL    HW111729  13.867   9.900   7.281
 3299SOL    HW211730  13.756   9.954   7.193
 3300SOL     OW11731   9.604  11.872  13.105
 3300SOL    HW111732   9.599  11.827  13.189
 3300SOL    HW211733   9.695  11.861  13.077
 3301SOL     OW11734  11.311   8.226   9.839
 3301SOL    HW111735  11.311   8.134   9.862
 3301SOL    HW211736  11.301   8.272   9.923
 3302SOL     OW11737   7.309   4.024   7.107
 3302SOL    HW111738   7.297   4.053   7.197
 3302SOL    HW211739   7.402   4.003   7.100
 3303SOL     OW11740   4.449   2.593  12.433
 3303SOL    HW111741   4.446   2.683  12.401
 3303SOL    HW211742   4.535   2.584  12.474
 3304SOL     OW11743   0.197   7.222   4.864
 3304SOL    HW111744   0.193   7.297   4.805
 3304SOL    HW211745   0.264   7.165   4.826
 3305SOL     OW11746   6.314  13.131   6.652
 3305SOL    HW111747   6.246  13.137   6.585
 3305SOL    HW211748   6.339  13.038   6.653
 3306SOL     OW11749  11.989   3.013  14.064
 3306SOL    HW111750  11.978   2.922  14.089
 3306SOL    HW211751  12.066   3.013  14.006
 3307SOL     OW11752   3.420   8.567   6.544
 3307SOL    HW111753   3.338   8.569   6.494
 3307SOL    HW211754   3.420   8.482   6.587
 3308SOL     OW11755  10.428  11.224  12.063
 3308SOL    HW111756  10.423  11.133  12.032
 3308SOL    HW211757  10.483  11.268  11.998
 3309SOL     OW11758   5.336   7.898   2.249
 3309SOL    HW111759   5.346   7.804   2.262
 3309SOL    HW211760   5.416   7.936   2.284
 3310SOL     OW11761   4.173   4.565  12.645
 3310SOL    HW111762   4.254   4.613  12.663
 3310SOL    HW211763   4.182   4.536  12.554
 3311SOL     OW11764  14.672   4.101   5.789
 3311SOL    HW111765  14.641   4.080   5.877
 3311SOL    HW211766  14.752   4.151   5.802
 3312SOL     OW11767   5.479   8.805  14.243
 3312SOL    HW111768   5.386   8.814  14.221
 3312SOL    HW211769   5.479   8.770  14.332
 3313SOL     OW11770  14.329  13.992  10.451
 3313SOL    HW111771  14.286  13.912  10.422
 3313SOL    HW211772  14.311  13.997  10.545
 3314SOL     OW11773   8.873  11.859  14.531
 3314SOL    HW111774   8.852  11.766  14.526
 3314SOL    HW211775   8.952  11.869  14.479
 3315SOL     OW11776   8.663  14.003   0.764
 3315SOL    HW111777   8.714  13.922   0.766
 3315SOL    HW211778   8.710  14.063   0.822
 3316SOL     OW11779   6.434   1.088   5.811
 3316SOL    HW111780   6.464   1.178   5.825
 3316SOL    HW211781   6.502   1.048   5.756
 3317SOL     OW11782  14.650  13.382   9.683
 3317SOL    HW111783  14.725  13.392   9.742
 3317SOL    HW211784  14.619  13.293   9.699
 3318SOL     OW11785   1.871   5.277   1.144
 3318SOL    HW111786   1.892   5.211   1.078
 3318SOL    HW211787   1.917   5.248   1.223
 3319SOL     OW11788  12.170   2.913  13.891
 3319SOL    HW111789  12.244   2.852  13.904
 3319SOL    HW211790  12.156   2.912  13.796
 3320SOL     OW11791   1.306   2.477   8.955
 3320SOL    HW111792   1.347   2.561   8.936
 3320SOL    HW211793   1.250   2.459   8.880
 3321SOL     OW11794  10.563  14.379   4.940
 3321SOL    HW111795  10.501  14.382   5.012
 3321SOL    HW211796  10.530  14.443   4.877
 3322SOL     OW11797   2.648   1.527   0.203
 3322SOL    HW111798   2.651   1.618   0.174
 3322SOL    HW211799   2.633   1.532   0.298
 3323SOL     OW11800   6.404   6.642  10.289
 3323SOL    HW111801   6.319   6.673  10.258
 3323SOL    HW211802   6.392   6.631  10.384
 3324SOL     OW11803   2.427  13.755   3.014
 3324SOL    HW111804   2.496  13.689   3.024
 3324SOL    HW211805   2.346  13.707   3.035
 3325SOL     OW11806  13.239  12.705  12.098
 3325SOL    HW111807  13.183  12.685  12.023
 3325SOL    HW211808  13.311  12.757  12.062
 3326SOL     OW11809   4.046  14.183   0.665
 3326SOL    HW111810   4.081  14.272   0.657
 3326SOL    HW211811   4.120  14.130   0.693
 3327SOL     OW11812   6.965   8.246   6.488
 3327SOL    HW111813   7.035   8.221   6.428
 3327SOL    HW211814   6.905   8.298   6.434
 3328SOL     OW11815   0.017   2.691   9.614
 3328SOL    HW111816  14.811   2.738   9.644
 3328SOL    HW211817  14.863   2.649   9.532
 3329SOL     OW11818  14.298   6.733   0.613
 3329SOL    HW111819  14.211   6.745   0.651
 3329SOL    HW211820  14.356   6.785   0.669
 3330SOL     OW11821   3.445   1.294  11.239
 3330SOL    HW111822   3.503   1.217  11.237
 3330SOL    HW211823   3.388   1.279  11.315
 3331SOL     OW11824   5.224  11.368   9.139
 3331SOL    HW111825   5.259  11.350   9.226
 3331SOL    HW211826   5.228  11.284   9.093
 3332SOL     OW11827   1.746   4.590   5.700
 3332SOL    HW111828   1.699   4.604   5.782
 3332SOL    HW211829   1.768   4.678   5.670
 3333SOL     OW11830   8.611   7.183   5.585
 3333SOL    HW111831   8.608   7.089   5.569
 3333SOL    HW211832   8.521   7.213   5.571
 3334SOL     OW11833  12.344   3.773   0.478
 3334SOL    HW111834  12.391   3.800   0.557
 3334SOL    HW211835  12.412   3.765   0.411
 3335SOL     OW11836  12.524  10.179   6.594
 3335SOL    HW111837  12.493  10.105   6.647
 3335SOL    HW211838  12.559  10.138   6.515
 3336SOL     OW11839   2.050  10.528  10.754
 3336SOL    HW111840   2.075  10.569  10.672
 3336SOL    HW211841   2.085  10.439  10.748
 3337SOL     OW11842  11.701   3.050  12.586
 3337SOL    HW111843  11.691   3.061  12.491
 3337SOL    HW211844  11.615   3.022  12.616
 3338SOL     OW11845  11.516   6.136  11.351
 3338SOL    HW111846  11.425   6.110  11.366
 3338SOL    HW211847  11.552   6.066  11.296
 3339SOL     OW11848   5.313  13.421   2.682
 3339SOL    HW111849   5.383  13.484   2.664
 3339SOL    HW211850   5.295  13.432   2.776
 3340SOL     OW11851   3.286   0.498  14.602
 3340SOL    HW111852   3.262   0.578  14.556
 3340SOL    HW211853   3.372   0.476  14.566
 3341SOL     OW11854  12.807   7.340   0.136
 3341SOL    HW111855  12.893   7.318   0.173
 3341SOL    HW211856  12.814   7.318   0.043
 3342SOL     OW11857   9.960  13.348   0.116
 3342SOL    HW111858  10.036  13.341   0.174
 3342SOL    HW211859   9.904  13.414   0.156
 3343SOL     OW11860   4.210   9.620  10.950
 3343SOL    HW111861   4.294   9.600  10.909
 3343SOL    HW211862   4.167   9.680  10.890
 3344SOL     OW11863   2.049   2.261   1.022
 3344SOL    HW111864   2.113   2.265   1.093
 3344SOL    HW211865   1.966   2.246   1.066
 3345SOL     OW11866   8.531   3.236  11.710
 3345SOL    HW111867   8.478   3.310  11.741
 3345SOL    HW211868   8.573   3.202  11.789
 3346SOL     OW11869   8.096   2.772  11.850
 3346SOL    HW111870   8.173   2.815  11.888
 3346SOL    HW211871   8.022   2.827  11.875
 3347SOL     OW11872   2.439   4.972   9.942
 3347SOL    HW111873   2.355   5.017   9.944
 3347SOL    HW211874   2.497   5.026   9.996
 3348SOL     OW11875  11.827   3.882   3.715
 3348SOL    HW111876  11.844   3.796   3.755
 3348SOL    HW211877  11.913   3.923   3.709
 3349SOL     OW11878  11.734   2.621   4.712
 3349SOL    HW111879  11.720   2.715   4.726
 3349SOL    HW211880  11.798   2.618   4.640
 3350SOL     OW11881   0.365  11.290   8.759
 3350SOL    HW111882   0.420  11.311   8.683
 3350SOL    HW211883   0.378  11.196   8.772
 3351SOL     OW11884   5.600   5.702   3.524
 3351SOL    HW111885   5.658   5.661   3.588
 3351SOL    HW211886   5.513   5.696   3.564
 3352SOL     OW11887  14.026   4.393  10.885
 3352SOL    HW111888  13.951   4.345  10.920
 3352SOL    HW211889  14.046   4.458  10.951
 3353SOL     OW11890  10.041  11.399   2.128
 3353SOL    HW111891  10.131  11.384   2.101
 3353SOL    HW211892  10.024  11.490   2.105
 3354SOL     OW11893   6.405   9.154   6.311
 3354SOL    HW111894   6.424   9.195   6.395
 3354SOL    HW211895   6.335   9.091   6.330
 3355SOL     OW11896   1.307   6.429  10.911
 3355SOL    HW111897   1.294   6.522  10.892
 3355SOL    HW211898   1.310   6.424  11.006
 3356SOL     OW11899   5.960   3.045   0.575
 3356SOL    HW111900   5.974   2.951   0.590
 3356SOL    HW211901   6.038   3.074   0.528
 3357SOL     OW11902   4.230   0.585  14.627
 3357SOL    HW111903   4.253   0.506  14.580
 3357SOL    HW211904   4.190   0.642  14.561
 3358SOL     OW11905  12.310  10.044   4.563
 3358SOL    HW111906  12.298  10.042   4.658
 3358SOL    HW211907  12.376   9.977   4.546
 3359SOL     OW11908  13.798   9.131  14.006
 3359SOL    HW111909  13.738   9.077  14.057
 3359SOL    HW211910  13.886   9.102  14.033
 3360SOL     OW11911  13.045  11.183   9.950
 3360SOL    HW111912  13.102  11.200   9.875
 3360SOL    HW211913  12.956  11.194   9.916
 3361SOL     OW11914   7.694   2.251   6.151
 3361SOL    HW111915   7.661   2.256   6.061
 3361SOL    HW211916   7.770   2.193   6.145
 3362SOL     OW11917   8.426   1.344  13.255
 3362SOL    HW111918   8.406   1.423  13.304
 3362SOL    HW211919   8.510   1.362  13.212
 3363SOL     OW11920  11.940   1.268  13.817
 3363SOL    HW111921  11.871   1.323  13.781
 3363SOL    HW211922  11.958   1.204  13.748
 3364SOL     OW11923   9.622  12.502   6.416
 3364SOL    HW111924   9.555  12.529   6.478
 3364SOL    HW211925   9.689  12.460   6.469
 3365SOL     OW11926   5.365   0.261  11.522
 3365SOL    HW111927   5.448   0.259  11.474
 3365SOL    HW211928   5.371   0.186  11.582
 3366SOL     OW11929  10.645  10.347   8.356
 3366SOL    HW111930  10.602  10.380   8.435
 3366SOL    HW211931  10.624  10.411   8.288
 3367SOL     OW11932  10.497   3.485   9.598
 3367SOL    HW111933  10.434   3.516   9.663
 3367SOL    HW211934  10.558   3.431   9.648
 3368SOL     OW11935  13.120  13.573  14.711
 3368SOL    HW111936  13.030  13.588  14.682
 3368SOL    HW211937  13.170  13.646  14.676
 3369SOL     OW11938   4.531   5.454   4.631
 3369SOL    HW111939   4.520   5.549   4.622
 3369SOL    HW211940   4.616   5.444   4.675
 3370SOL     OW11941   0.985   6.534   8.562
 3370SOL    HW111942   0.936   6.453   8.576
 3370SOL    HW211943   0.982   6.548   8.467
 3371SOL     OW11944   5.836  10.782  10.689
 3371SOL    HW111945   5.814  10.796  10.781
 3371SOL    HW211946   5.926  10.814  10.680
 3372SOL     OW11947  14.701   0.131   8.762
 3372SOL    HW111948  14.698   0.036   8.772
 3372SOL    HW211949  14.739   0.145   8.675
 3373SOL     OW11950  12.553   1.937  10.303
 3373SOL    HW111951  12.509   2.005  10.354
 3373SOL    HW211952  12.527   1.954  10.212
 3374SOL     OW11953   2.230  14.023  11.375
 3374SOL    HW111954   2.316  14.061  11.392
 3374SOL    HW211955   2.182  14.093  11.330
 3375SOL     OW11956   9.356  13.228  13.698
 3375SOL    HW111957   9.273  13.223  13.650
 3375SOL    HW211958   9.354  13.313  13.740
 3376SOL     OW11959   6.865   0.658   2.097
 3376SOL    HW111960   6.802   0.664   2.168
 3376SOL    HW211961   6.839   0.728   2.036
 3377SOL     OW11962   3.908  12.696  11.739
 3377SOL    HW111963   3.854  12.638  11.792
 3377SOL    HW211964   3.985  12.643  11.717
 3378SOL     OW11965   4.506   1.385   0.497
 3378SOL    HW111966   4.575   1.319   0.505
 3378SOL    HW211967   4.497   1.401   0.403
 3379SOL     OW11968   5.530  13.794   9.704
 3379SOL    HW111969   5.544  13.823   9.794
 3379SOL    HW211970   5.492  13.707   9.713
 3380SOL     OW11971   4.400   5.657   2.847
 3380SOL    HW111972   4.306   5.651   2.863
 3380SOL    HW211973   4.435   5.574   2.879
 3381SOL     OW11974   5.303   7.834   1.977
 3381SOL    HW111975   5.252   7.901   2.023
 3381SOL    HW211976   5.345   7.882   1.906
 3382SOL     OW11977   7.739  14.297   2.676
 3382SOL    HW111978   7.794  14.361   2.722
 3382SOL    HW211979   7.793  14.268   2.602
 3383SOL     OW11980  14.859   1.422   2.062
 3383SOL    HW111981  14.810   1.382   1.990
 3383SOL    HW211982   0.066   1.455   2.022
 3384SOL     OW11983  13.233   8.365  10.680
 3384SOL    HW111984  13.320   8.387  10.714
 3384SOL    HW211985  13.225   8.417  10.599
 3385SOL     OW11986   4.809  10.577  14.252
 3385SOL    HW111987   4.888  10.579  14.199
 3385SOL    HW211988   4.744  10.533  14.196
 3386SOL     OW11989   3.781  12.953   7.065
 3386SOL    HW111990   3.747  13.018   7.004
 3386SOL    HW211991   3.754  12.984   7.152
 3387SOL     OW11992   5.735   4.571  14.247
 3387SOL    HW111993   5.818   4.537  14.278
 3387SOL    HW211994   5.707   4.633  14.315
 3388SOL     OW11995   5.714  14.419   9.236
 3388SOL    HW111996   5.761  14.357   9.291
 3388SOL    HW211997   5.778  14.444   9.169
 3389SOL     OW11998   9.949  13.101   9.983
 3389SOL    HW111999   9.856  13.087   9.964
 3389SOL    HW212000   9.954  13.192  10.012
 3390SOL     OW12001  11.133  12.015  12.149
 3390SOL    HW112002  11.181  12.041  12.070
 3390SOL    HW212003  11.110  11.924  12.135
 3391SOL     OW12004   3.116   9.199   9.915
 3391SOL    HW112005   3.060   9.124   9.898
 3391SOL    HW212006   3.201   9.174   9.878
 3392SOL     OW12007   2.509  14.575   8.179
 3392SOL    HW112008   2.438  14.623   8.222
 3392SOL    HW212009   2.482  14.483   8.184
 3393SOL     OW12010   0.131   2.348   9.927
 3393SOL    HW112011   0.040   2.334   9.953
 3393SOL    HW212012   0.138   2.443   9.916
 3394SOL     OW12013   3.134   8.154   1.508
 3394SOL    HW112014   3.120   8.208   1.585
 3394SOL    HW212015   3.186   8.209   1.449
 3395SOL     OW12016   4.253   6.983   5.461
 3395SOL    HW112017   4.263   7.002   5.555
 3395SOL    HW212018   4.179   6.923   5.456
 3396SOL     OW12019  13.860   2.120  10.917
 3396SOL    HW112020  13.801   2.129  10.843
 3396SOL    HW212021  13.803   2.097  10.991
 3397SOL     OW12022   8.252   7.037   3.993
 3397SOL    HW112023   8.235   6.946   4.016
 3397SOL    HW212024   8.299   7.032   3.909
 3398SOL     OW12025   5.313  10.969   9.821
 3398SOL    HW112026   5.221  10.967   9.846
 3398SOL    HW212027   5.361  10.974   9.904
 3399SOL     OW12028  13.558  10.306   3.668
 3399SOL    HW112029  13.555  10.243   3.739
 3399SOL    HW212030  13.649  10.309   3.641
 3400SOL     OW12031   3.890   9.288  12.005
 3400SOL    HW112032   3.942   9.217  11.968
 3400SOL    HW212033   3.811   9.245  12.037
 3401SOL     OW12034  13.926   4.576   0.712
 3401SOL    HW112035  13.940   4.651   0.771
 3401SOL    HW212036  13.935   4.500   0.769
 3402SOL     OW12037   8.305  11.975  14.339
 3402SOL    HW112038   8.374  12.006  14.399
 3402SOL    HW212039   8.349  11.911  14.284
 3403SOL     OW12040  10.952   1.907   5.992
 3403SOL    HW112041  10.973   1.952   5.911
 3403SOL    HW212042  11.037   1.876   6.025
 3404SOL     OW12043   8.925   6.634  10.333
 3404SOL    HW112044   8.942   6.540  10.328
 3404SOL    HW212045   8.834   6.640  10.363
 3405SOL     OW12046  11.883   6.193   9.397
 3405SOL    HW112047  11.865   6.287   9.393
 3405SOL    HW212048  11.905   6.177   9.489
 3406SOL     OW12049  13.042   9.081   4.336
 3406SOL    HW112050  12.950   9.076   4.313
 3406SOL    HW212051  13.043   9.076   4.432
 3407SOL     OW12052   9.896   5.726  11.677
 3407SOL    HW112053   9.851   5.803  11.712
 3407SOL    HW212054   9.978   5.721  11.727
 3408SOL     OW12055   1.907   3.901  10.750
 3408SOL    HW112056   1.858   3.879  10.829
 3408SOL    HW212057   1.915   3.996  10.752
 3409SOL     OW12058  14.811   6.906  14.350
 3409SOL    HW112059  14.771   6.828  14.312
 3409SOL    HW212060  14.745   6.941  14.409
 3410SOL     OW12061   0.680   2.584   6.091
 3410SOL    HW112062   0.636   2.669   6.079
 3410SOL    HW212063   0.693   2.552   6.002
 3411SOL     OW12064   2.514   7.073   2.463
 3411SOL    HW112065   2.530   7.029   2.380
 3411SOL    HW212066   2.456   7.147   2.441
 3412SOL     OW12067   7.999  10.131   6.664
 3412SOL    HW112068   8.087  10.135   6.702
 3412SOL    HW212069   7.975  10.038   6.670
 3413SOL     OW12070   0.771   9.634   6.449
 3413SOL    HW112071   0.779   9.613   6.356
 3413SOL    HW212072   0.803   9.556   6.494
 3414SOL     OW12073  10.751   6.724   7.397
 3414SOL    HW112074  10.730   6.816   7.409
 3414SOL    HW212075  10.847   6.720   7.407
 3415SOL     OW12076   2.136  13.306  14.225
 3415SOL    HW112077   2.149  13.329  14.133
 3415SOL    HW212078   2.093  13.383  14.263
 3416SOL     OW12079  12.983   5.960   0.076
 3416SOL    HW112080  12.906   6.013   0.095
 3416SOL    HW212081  12.993   5.903   0.153
 3417SOL     OW12082  10.816   2.014   9.183
 3417SOL    HW112083  10.778   1.975   9.262
 3417SOL    HW212084  10.862   2.092   9.215
 3418SOL     OW12085   0.716  14.507   3.383
 3418SOL    HW112086   0.634  14.557   3.384
 3418SOL    HW212087   0.718  14.467   3.296
 3419SOL     OW12088   3.161   5.786  13.442
 3419SOL    HW112089   3.242   5.767  13.395
 3419SOL    HW212090   3.172   5.743  13.527
 3420SOL     OW12091   8.069   0.038  11.076
 3420SOL    HW112092   8.081  14.824  11.037
 3420SOL    HW212093   8.054   0.096  11.001
 3421SOL     OW12094  13.393   2.652  12.012
 3421SOL    HW112095  13.422   2.564  11.990
 3421SOL    HW212096  13.473   2.697  12.040
 3422SOL     OW12097  10.057  12.443   8.627
 3422SOL    HW112098  10.132  12.485   8.586
 3422SOL    HW212099  10.060  12.353   8.595
 3423SOL     OW12100  13.600   6.007   0.828
 3423SOL    HW112101  13.593   6.006   0.733
 3423SOL    HW212102  13.632   5.920   0.851
 3424SOL     OW12103  13.898  10.936   3.641
 3424SOL    HW112104  13.808  10.966   3.655
 3424SOL    HW212105  13.896  10.843   3.667
 3425SOL     OW12106   0.520   2.642   3.026
 3425SOL    HW112107   0.615   2.635   3.035
 3425SOL    HW212108   0.496   2.716   3.083
 3426SOL     OW12109  11.882   7.995  10.633
 3426SOL    HW112110  11.819   7.956  10.572
 3426SOL    HW212111  11.910   8.075  10.590
 3427SOL     OW12112   5.561  14.619   7.015
 3427SOL    HW112113   5.566  14.683   6.944
 3427SOL    HW212114   5.628  14.554   6.993
 3428SOL     OW12115   0.599   9.010   7.742
 3428SOL    HW112116   0.634   8.968   7.820
 3428SOL    HW212117   0.507   8.985   7.740
 3429SOL     OW12118   0.607  12.406  14.608
 3429SOL    HW112119   0.590  12.455  14.689
 3429SOL    HW212120   0.548  12.331  14.613
 3430SOL     OW12121   0.474   8.278  13.651
 3430SOL    HW112122   0.477   8.222  13.573
 3430SOL    HW212123   0.383   8.306  13.656
 3431SOL     OW12124   6.384  11.916   2.336
 3431SOL    HW112125   6.474  11.895   2.362
 3431SOL    HW212126   6.329  11.867   2.398
 3432SOL     OW12127   1.632  11.967   0.825
 3432SOL    HW112128   1.699  11.903   0.849
 3432SOL    HW212129   1.680  12.033   0.774
 3433SOL     OW12130   7.094   3.671   5.430
 3433SOL    HW112131   7.030   3.731   5.392
 3433SOL    HW212132   7.170   3.677   5.372
 3434SOL     OW12133  12.370   2.845   1.414
 3434SOL    HW112134  12.388   2.852   1.508
 3434SOL    HW212135  12.452   2.812   1.377
 3435SOL     OW12136   2.748   5.357   5.966
 3435SOL    HW112137   2.838   5.353   5.999
 3435SOL    HW212138   2.744   5.290   5.899
 3436SOL     OW12139   2.188   8.840  14.196
 3436SOL    HW112140   2.191   8.795  14.112
 3436SOL    HW212141   2.236   8.922  14.181
 3437SOL     OW12142   2.250   0.578   0.093
 3437SOL    HW112143   2.259   0.664   0.052
 3437SOL    HW212144   2.340   0.545   0.098
 3438SOL     OW12145   1.163  11.989  11.644
 3438SOL    HW112146   1.068  11.999  11.637
 3438SOL    HW212147   1.175  11.923  11.713
 3439SOL     OW12148   8.199   1.484  13.063
 3439SOL    HW112149   8.120   1.491  13.009
 3439SOL    HW212150   8.233   1.396  13.045
 3440SOL     OW12151   2.252   7.575   8.090
 3440SOL    HW112152   2.186   7.640   8.113
 3440SOL    HW212153   2.311   7.622   8.030
 3441SOL     OW12154  13.488  12.660   5.410
 3441SOL    HW112155  13.540  12.702   5.478
 3441SOL    HW212156  13.471  12.572   5.444
 3442SOL     OW12157  13.237   8.884   7.535
 3442SOL    HW112158  13.216   8.932   7.455
 3442SOL    HW212159  13.312   8.829   7.511
 3443SOL     OW12160   2.771   0.090   1.158
 3443SOL    HW112161   2.721   0.062   1.081
 3443SOL    HW212162   2.726   0.168   1.189
 3444SOL     OW12163  12.119   3.750  10.027
 3444SOL    HW112164  12.050   3.689  10.052
 3444SOL    HW212165  12.118   3.817  10.095
 3445SOL     OW12166   9.701  14.349   3.621
 3445SOL    HW112167   9.705  14.260   3.586
 3445SOL    HW212168   9.650  14.342   3.701
 3446SOL     OW12169  11.267  13.058  10.641
 3446SOL    HW112170  11.171  13.058  10.635
 3446SOL    HW212171  11.289  13.147  10.668
 3447SOL     OW12172   0.287   5.770   1.445
 3447SOL    HW112173   0.330   5.837   1.392
 3447SOL    HW212174   0.217   5.736   1.389
 3448SOL     OW12175   3.535   9.263   1.780
 3448SOL    HW112176   3.619   9.231   1.747
 3448SOL    HW212177   3.554   9.352   1.812
 3449SOL     OW12178   8.187  10.507  11.957
 3449SOL    HW112179   8.235  10.590  11.961
 3449SOL    HW212180   8.131  10.508  12.035
 3450SOL     OW12181   6.389   0.521   3.779
 3450SOL    HW112182   6.384   0.478   3.865
 3450SOL    HW212183   6.315   0.486   3.730
 3451SOL     OW12184  14.607   9.463  10.717
 3451SOL    HW112185  14.619   9.558  10.718
 3451SOL    HW212186  14.525   9.450  10.670
 3452SOL     OW12187  12.860   7.851   1.643
 3452SOL    HW112188  12.887   7.852   1.551
 3452SOL    HW212189  12.862   7.943   1.669
 3453SOL     OW12190   1.613   1.361   0.859
 3453SOL    HW112191   1.570   1.287   0.818
 3453SOL    HW212192   1.683   1.323   0.912
 3454SOL     OW12193  14.389  11.595   3.314
 3454SOL    HW112194  14.419  11.686   3.308
 3454SOL    HW212195  14.294  11.601   3.308
 3455SOL     OW12196   8.826   5.094   8.553
 3455SOL    HW112197   8.830   5.109   8.459
 3455SOL    HW212198   8.834   4.999   8.563
 3456SOL     OW12199  12.068  10.026   6.623
 3456SOL    HW112200  11.990   9.984   6.586
 3456SOL    HW212201  12.133  10.022   6.553
 3457SOL     OW12202  11.077   1.260  13.294
 3457SOL    HW112203  11.013   1.251  13.224
 3457SOL    HW212204  11.085   1.354  13.309
 3458SOL     OW12205   0.270   2.956   9.010
 3458SOL    HW112206   0.240   2.865   9.012
 3458SOL    HW212207   0.323   2.962   8.930
 3459SOL     OW12208  12.059   3.646   0.902
 3459SOL    HW112209  12.149   3.637   0.935
 3459SOL    HW212210  12.070   3.653   0.807
 3460SOL     OW12211  12.909   1.688   3.692
 3460SOL    HW112212  12.951   1.609   3.726
 3460SOL    HW212213  12.816   1.672   3.703
 3461SOL     OW12214  10.923   3.197   9.827
 3461SOL    HW112215  10.929   3.172   9.919
 3461SOL    HW212216  10.980   3.273   9.819
 3462SOL     OW12217   0.452  12.825   8.781
 3462SOL    HW112218   0.464  12.920   8.777
 3462SOL    HW212219   0.364  12.810   8.747
 3463SOL     OW12220   7.410   8.555   8.883
 3463SOL    HW112221   7.334   8.498   8.887
 3463SOL    HW212222   7.485   8.496   8.880
 3464SOL     OW12223   5.617   7.423  14.347
 3464SOL    HW112224   5.597   7.434  14.254
 3464SOL    HW212225   5.658   7.505  14.373
 3465SOL     OW12226   4.649   7.738  13.269
 3465SOL    HW112227   4.646   7.672  13.200
 3465SOL    HW212228   4.670   7.819  13.224
 3466SOL     OW12229   0.648  12.211   2.664
 3466SOL    HW112230   0.741  12.190   2.664
 3466SOL    HW212231   0.645  12.307   2.665
 3467SOL     OW12232   3.077   2.967  10.712
 3467SOL    HW112233   3.028   2.899  10.666
 3467SOL    HW212234   3.074   3.043  10.654
 3468SOL     OW12235   7.593   0.432   1.638
 3468SOL    HW112236   7.640   0.504   1.596
 3468SOL    HW212237   7.515   0.473   1.675
 3469SOL     OW12238  10.042   7.221  13.468
 3469SOL    HW112239  10.034   7.270  13.387
 3469SOL    HW212240  10.125   7.174  13.460
 3470SOL     OW12241   3.208   5.909   1.118
 3470SOL    HW112242   3.269   5.980   1.096
 3470SOL    HW212243   3.264   5.832   1.129
 3471SOL     OW12244  13.182   8.338   7.773
 3471SOL    HW112245  13.205   8.254   7.733
 3471SOL    HW212246  13.266   8.382   7.788
 3472SOL     OW12247   3.204   5.382  13.383
 3472SOL    HW112248   3.266   5.336  13.327
 3472SOL    HW212249   3.207   5.473  13.352
 3473SOL     OW12250  14.488   4.632   6.252
 3473SOL    HW112251  14.518   4.666   6.337
 3473SOL    HW212252  14.495   4.707   6.193
 3474SOL     OW12253  14.785   5.299  12.008
 3474SOL    HW112254  14.760   5.354  12.082
 3474SOL    HW212255  14.703   5.279  11.963
 3475SOL     OW12256   3.431   0.353   2.726
 3475SOL    HW112257   3.502   0.295   2.697
 3475SOL    HW212258   3.463   0.441   2.708
 3476SOL     OW12259   3.384   1.369   4.892
 3476SOL    HW112260   3.462   1.315   4.904
 3476SOL    HW212261   3.409   1.456   4.923
 3477SOL     OW12262   5.504   6.425   4.572
 3477SOL    HW112263   5.550   6.482   4.510
 3477SOL    HW212264   5.442   6.483   4.616
 3478SOL     OW12265  14.244   7.040   8.138
 3478SOL    HW112266  14.283   6.988   8.068
 3478SOL    HW212267  14.215   6.975   8.203
 3479SOL     OW12268   5.600   3.391   0.706
 3479SOL    HW112269   5.682   3.364   0.747
 3479SOL    HW212270   5.548   3.425   0.779
 3480SOL     OW12271   7.896   0.709   3.116
 3480SOL    HW112272   7.983   0.733   3.146
 3480SOL    HW212273   7.837   0.742   3.184
 3481SOL     OW12274   6.477  12.837   0.785
 3481SOL    HW112275   6.446  12.802   0.868
 3481SOL    HW212276   6.512  12.761   0.738
 3482SOL     OW12277   5.765   7.034   1.279
 3482SOL    HW112278   5.798   7.122   1.295
 3482SOL    HW212279   5.673   7.047   1.255
 3483SOL     OW12280   6.693  10.600   0.786
 3483SOL    HW112281   6.711  10.566   0.698
 3483SOL    HW212282   6.665  10.691   0.771
 3484SOL     OW12283   3.158  14.056  12.609
 3484SOL    HW112284   3.125  14.067  12.698
 3484SOL    HW212285   3.110  13.981  12.574
 3485SOL     OW12286   1.318   6.214   2.405
 3485SOL    HW112287   1.255   6.204   2.476
 3485SOL    HW212288   1.365   6.295   2.426
 3486SOL     OW12289   8.497  11.383   4.052
 3486SOL    HW112290   8.465  11.298   4.020
 3486SOL    HW212291   8.592  11.373   4.054
 3487SOL     OW12292   3.949  10.417   8.350
 3487SOL    HW112293   3.889  10.411   8.276
 3487SOL    HW212294   4.036  10.406   8.312
 3488SOL     OW12295   9.679   0.677  12.473
 3488SOL    HW112296   9.772   0.698  12.466
 3488SOL    HW212297   9.672   0.626  12.554
 3489SOL     OW12298   3.901  12.577   6.661
 3489SOL    HW112299   3.857  12.594   6.578
 3489SOL    HW212300   3.834  12.537   6.716
 3490SOL     OW12301   7.441   7.571   2.816
 3490SOL    HW112302   7.386   7.646   2.840
 3490SOL    HW212303   7.507   7.568   2.885
 3491SOL     OW12304  11.205  10.218   9.548
 3491SOL    HW112305  11.253  10.189   9.626
 3491SOL    HW212306  11.173  10.305   9.570
 3492SOL     OW12307   4.471   7.504   0.678
 3492SOL    HW112308   4.446   7.514   0.770
 3492SOL    HW212309   4.559   7.465   0.681
 3493SOL     OW12310   2.713   3.707  13.296
 3493SOL    HW112311   2.646   3.746  13.239
 3493SOL    HW212312   2.671   3.701  13.382
 3494SOL     OW12313   1.839   6.261   1.138
 3494SOL    HW112314   1.813   6.314   1.213
 3494SOL    HW212315   1.758   6.219   1.109
 3495SOL     OW12316  12.690   7.824   4.948
 3495SOL    HW112317  12.655   7.852   4.863
 3495SOL    HW212318  12.769   7.876   4.959
 3496SOL     OW12319   5.020  11.203  13.792
 3496SOL    HW112320   5.048  11.266  13.859
 3496SOL    HW212321   5.037  11.117  13.831
 3497SOL     OW12322   6.018   4.937  12.106
 3497SOL    HW112323   6.070   4.862  12.076
 3497SOL    HW212324   6.038   4.944  12.199
 3498SOL     OW12325   2.644   0.878  11.220
 3498SOL    HW112326   2.695   0.806  11.184
 3498SOL    HW212327   2.599   0.917  11.145
 3499SOL     OW12328  12.152   4.426  13.787
 3499SOL    HW112329  12.242   4.397  13.771
 3499SOL    HW212330  12.120   4.369  13.857
 3500SOL     OW12331   1.563   3.401   5.172
 3500SOL    HW112332   1.608   3.322   5.142
 3500SOL    HW212333   1.476   3.370   5.198
 3501SOL     OW12334   7.938   4.328  10.186
 3501SOL    HW112335   7.878   4.331  10.260
 3501SOL    HW212336   8.014   4.280  10.219
 3502SOL     OW12337   6.018  12.154   3.655
 3502SOL    HW112338   5.983  12.075   3.696
 3502SOL    HW212339   6.108  12.158   3.687
 3503SOL     OW12340   1.977   6.878  14.770
 3503SOL    HW112341   1.915   6.852  14.702
 3503SOL    HW212342   2.016   6.960  14.738
 3504SOL     OW12343   2.000   8.139   1.751
 3504SOL    HW112344   2.012   8.143   1.656
 3504SOL    HW212345   1.965   8.052   1.768
 3505SOL     OW12346   3.178   5.516  11.116
 3505SOL    HW112347   3.165   5.440  11.173
 3505SOL    HW212348   3.258   5.495  11.068
 3506SOL     OW12349   0.673  13.412  10.611
 3506SOL    HW112350   0.621  13.346  10.566
 3506SOL    HW212351   0.612  13.452  10.673
 3507SOL     OW12352   4.532   8.885   5.744
 3507SOL    HW112353   4.456   8.905   5.689
 3507SOL    HW212354   4.517   8.795   5.774
 3508SOL     OW12355  13.297   7.055   4.003
 3508SOL    HW112356  13.208   7.021   4.012
 3508SOL    HW212357  13.291   7.117   3.930
 3509SOL     OW12358   4.301   6.715   3.413
 3509SOL    HW112359   4.335   6.761   3.489
 3509SOL    HW212360   4.336   6.626   3.421
 3510SOL     OW12361  14.079   4.339   0.471
 3510SOL    HW112362  14.092   4.433   0.455
 3510SOL    HW212363  14.115   4.297   0.393
 3511SOL     OW12364  12.644   1.087   8.059
 3511SOL    HW112365  12.627   1.167   8.009
 3511SOL    HW212366  12.634   1.113   8.151
 3512SOL     OW12367  10.131  12.511   7.258
 3512SOL    HW112368  10.114  12.537   7.348
 3512SOL    HW212369  10.123  12.415   7.258
 3513SOL     OW12370   5.621   5.437   4.470
 3513SOL    HW112371   5.666   5.355   4.491
 3513SOL    HW212372   5.672   5.504   4.516
 3514SOL     OW12373  13.258   4.532   1.196
 3514SOL    HW112374  13.234   4.611   1.245
 3514SOL    HW212375  13.353   4.534   1.192
 3515SOL     OW12376  14.724  13.599   7.005
 3515SOL    HW112377  14.685  13.570   6.923
 3515SOL    HW212378  14.767  13.521   7.040
 3516SOL     OW12379   0.987   1.883  10.279
 3516SOL    HW112380   1.051   1.841  10.220
 3516SOL    HW212381   0.903   1.867  10.238
 3517SOL     OW12382  12.533   1.847   4.100
 3517SOL    HW112383  12.501   1.816   4.184
 3517SOL    HW212384  12.600   1.784   4.074
 3518SOL     OW12385  10.606   8.781   0.369
 3518SOL    HW112386  10.558   8.839   0.311
 3518SOL    HW212387  10.675   8.744   0.313
 3519SOL     OW12388  13.584   8.277  14.622
 3519SOL    HW112389  13.653   8.325  14.668
 3519SOL    HW212390  13.505   8.329  14.638
 3520SOL     OW12391  12.512  13.165   7.949
 3520SOL    HW112392  12.462  13.084   7.947
 3520SOL    HW212393  12.453  13.228   7.989
 3521SOL     OW12394   0.101  10.654  11.572
 3521SOL    HW112395   0.158  10.633  11.646
 3521SOL    HW212396   0.070  10.570  11.541
 3522SOL     OW12397   2.586  12.801   9.052
 3522SOL    HW112398   2.642  12.817   9.128
 3522SOL    HW212399   2.589  12.883   9.003
 3523SOL     OW12400  11.551   3.329   4.175
 3523SOL    HW112401  11.464   3.291   4.181
 3523SOL    HW212402  11.611   3.256   4.194
 3524SOL     OW12403   2.813   2.384   0.227
 3524SOL    HW112404   2.761   2.461   0.202
 3524SOL    HW212405   2.889   2.386   0.169
 3525SOL     OW12406   8.885   1.228  11.497
 3525SOL    HW112407   8.880   1.173  11.419
 3525SOL    HW212408   8.796   1.259  11.511
 3526SOL     OW12409  10.680  12.809   7.679
 3526SOL    HW112410  10.588  12.827   7.696
 3526SOL    HW212411  10.721  12.895   7.674
 3527SOL     OW12412   1.979   2.811   5.503
 3527SOL    HW112413   1.953   2.842   5.590
 3527SOL    HW212414   1.922   2.737   5.485
 3528SOL     OW12415  11.571   2.702   3.218
 3528SOL    HW112416  11.475   2.698   3.218
 3528SOL    HW212417  11.598   2.621   3.262
 3529SOL     OW12418   1.977   8.637  14.172
 3529SOL    HW112419   2.068   8.663  14.182
 3529SOL    HW212420   1.979   8.542  14.159
 3530SOL     OW12421   2.376   8.367   9.928
 3530SOL    HW112422   2.308   8.389   9.992
 3530SOL    HW212423   2.421   8.449   9.911
 3531SOL     OW12424   5.025  13.483   2.256
 3531SOL    HW112425   5.039  13.427   2.179
 3531SOL    HW212426   5.063  13.567   2.232
 3532SOL     OW12427   0.705   9.323  11.884
 3532SOL    HW112428   0.645   9.353  11.952
 3532SOL    HW212429   0.782   9.380  11.893
 3533SOL     OW12430  13.226   4.027   5.077
 3533SOL    HW112431  13.166   3.965   5.119
 3533SOL    HW212432  13.291   4.046   5.144
 3534SOL     OW12433   1.483   7.723  12.509
 3534SOL    HW112434   1.521   7.788  12.568
 3534SOL    HW212435   1.541   7.724  12.433
 3535SOL     OW12436   0.409   4.547   9.254
 3535SOL    HW112437   0.456   4.626   9.283
 3535SOL    HW212438   0.324   4.580   9.225
 3536SOL     OW12439  12.375   5.506   8.406
 3536SOL    HW112440  12.392   5.429   8.353
 3536SOL    HW212441  12.324   5.564   8.350
 3537SOL     OW12442   3.065   0.470   7.012
 3537SOL    HW112443   3.145   0.419   7.001
 3537SOL    HW212444   3.048   0.507   6.926
 3538SOL     OW12445   9.385   2.949   3.244
 3538SOL    HW112446   9.403   3.036   3.208
 3538SOL    HW212447   9.312   2.963   3.304
 3539SOL     OW12448  14.054   0.811   2.210
 3539SOL    HW112449  14.014   0.838   2.128
 3539SOL    HW212450  14.003   0.735   2.238
 3540SOL     OW12451  11.630   7.592   5.653
 3540SOL    HW112452  11.690   7.583   5.727
 3540SOL    HW212453  11.614   7.502   5.625
 3541SOL     OW12454  10.425   0.819  14.792
 3541SOL    HW112455  10.505   0.859  14.758
 3541SOL    HW212456  10.422   0.732  14.751
 3542SOL     OW12457   3.111  13.880   5.431
 3542SOL    HW112458   3.134  13.846   5.344
 3542SOL    HW212459   3.189  13.863   5.484
 3543SOL     OW12460   9.019   4.320   5.970
 3543SOL    HW112461   9.032   4.295   5.878
 3543SOL    HW212462   9.000   4.413   5.968
 3544SOL     OW12463   1.677   5.624   3.905
 3544SOL    HW112464   1.723   5.605   3.823
 3544SOL    HW212465   1.585   5.630   3.880
 3545SOL     OW12466   2.043   5.722  12.202
 3545SOL    HW112467   1.962   5.705  12.251
 3545SOL    HW212468   2.109   5.669  12.245
 3546SOL     OW12469   0.202   0.711  12.650
 3546SOL    HW112470   0.189   0.663  12.732
 3546SOL    HW212471   0.271   0.775  12.671
 3547SOL     OW12472  12.676  13.041   6.338
 3547SOL    HW112473  12.660  13.134   6.351
 3547SOL    HW212474  12.620  12.998   6.403
 3548SOL     OW12475   2.445  12.762   3.610
 3548SOL    HW112476   2.494  12.813   3.675
 3548SOL    HW212477   2.500  12.685   3.594
 3549SOL     OW12478   6.522   8.478  13.530
 3549SOL    HW112479   6.456   8.547  13.520
 3549SOL    HW212480   6.596   8.509  13.478
 3550SOL     OW12481  13.334  10.545   2.740
 3550SOL    HW112482  13.326  10.545   2.644
 3550SOL    HW212483  13.360  10.635   2.761
 3551SOL     OW12484   7.539  13.140  13.469
 3551SOL    HW112485   7.463  13.183  13.430
 3551SOL    HW212486   7.513  13.119  13.558
 3552SOL     OW12487   8.507   7.081   0.517
 3552SOL    HW112488   8.602   7.086   0.524
 3552SOL    HW212489   8.489   7.099   0.424
 3553SOL     OW12490  14.784  12.101   1.033
 3553SOL    HW112491   0.007  12.088   1.031
 3553SOL    HW212492  14.757  12.098   0.941
 3554SOL     OW12493  12.991  14.532   8.015
 3554SOL    HW112494  12.998  14.517   7.921
 3554SOL    HW212495  12.962  14.448   8.051
 3555SOL     OW12496  12.602   0.314   8.307
 3555SOL    HW112497  12.694   0.304   8.331
 3555SOL    HW212498  12.553   0.293   8.386
 3556SOL     OW12499   0.843   5.577  14.119
 3556SOL    HW112500   0.778   5.565  14.188
 3556SOL    HW212501   0.797   5.554  14.038
 3557SOL     OW12502  10.521   4.601   8.518
 3557SOL    HW112503  10.612   4.573   8.519
 3557SOL    HW212504  10.520   4.682   8.569
 3558SOL     OW12505  14.600   8.913   9.475
 3558SOL    HW112506  14.620   8.964   9.553
 3558SOL    HW212507  14.504   8.903   9.476
 3559SOL     OW12508  12.593   1.827  11.574
 3559SOL    HW112509  12.508   1.783  11.567
 3559SOL    HW212510  12.639   1.804  11.493
 3560SOL     OW12511   3.710   8.069  10.276
 3560SOL    HW112512   3.639   8.008  10.255
 3560SOL    HW212513   3.771   8.018  10.328
 3561SOL     OW12514  11.184   7.124   9.716
 3561SOL    HW112515  11.196   7.073   9.635
 3561SOL    HW212516  11.096   7.161   9.708
 3562SOL     OW12517   4.489   1.333  10.086
 3562SOL    HW112518   4.414   1.384  10.056
 3562SOL    HW212519   4.450   1.255  10.127
 3563SOL     OW12520  12.620  12.557  11.938
 3563SOL    HW112521  12.669  12.632  11.904
 3563SOL    HW212522  12.675  12.481  11.917
 3564SOL     OW12523  10.585   7.342  13.517
 3564SOL    HW112524  10.496   7.343  13.482
 3564SOL    HW212525  10.574   7.346  13.612
 3565SOL     OW12526  13.387  14.722   8.885
 3565SOL    HW112527  13.322  14.790   8.900
 3565SOL    HW212528  13.339  14.640   8.899
 3566SOL     OW12529  13.079   7.835   8.256
 3566SOL    HW112530  13.164   7.879   8.254
 3566SOL    HW212531  13.032   7.870   8.180
 3567SOL     OW12532   5.112  13.474   5.339
 3567SOL    HW112533   5.186  13.524   5.306
 3567SOL    HW212534   5.035  13.514   5.299
 3568SOL     OW12535  13.377  12.210   0.273
 3568SOL    HW112536  13.431  12.256   0.338
 3568SOL    HW212537  13.438  12.149   0.231
 3569SOL     OW12538   7.783   0.440   3.102
 3569SOL    HW112539   7.809   0.528   3.072
 3569SOL    HW212540   7.865   0.395   3.118
 3570SOL     OW12541   5.054  14.811   7.133
 3570SOL    HW112542   5.023   0.005   7.195
 3570SOL    HW212543   5.051  14.729   7.181
 3571SOL     OW12544   2.730   2.937   3.137
 3571SOL    HW112545   2.636   2.954   3.139
 3571SOL    HW212546   2.770   3.018   3.167
 3572SOL     OW12547  12.089  11.968  11.691
 3572SOL    HW112548  12.094  11.939  11.599
 3572SOL    HW212549  12.014  12.028  11.692
 3573SOL     OW12550  10.206  11.562   9.872
 3573SOL    HW112551  10.172  11.538   9.958
 3573SOL    HW212552  10.297  11.587   9.888
 3574SOL     OW12553  13.188  11.776   7.597
 3574SOL    HW112554  13.159  11.691   7.562
 3574SOL    HW212555  13.263  11.800   7.543
 3575SOL     OW12556  13.822  12.623   5.337
 3575SOL    HW112557  13.884  12.694   5.325
 3575SOL    HW212558  13.778  12.643   5.420
 3576SOL     OW12559   9.081   5.693  11.335
 3576SOL    HW112560   8.999   5.698  11.286
 3576SOL    HW212561   9.124   5.777  11.319
 3577SOL     OW12562   1.218   2.090   0.018
 3577SOL    HW112563   1.286   2.151  14.863
 3577SOL    HW212564   1.142   2.114  14.836
 3578SOL     OW12565  12.975   3.446   1.041
 3578SOL    HW112566  13.030   3.427   0.965
 3578SOL    HW212567  12.907   3.504   1.008
 3579SOL     OW12568   0.505   5.928   5.696
 3579SOL    HW112569   0.439   5.862   5.677
 3579SOL    HW212570   0.571   5.881   5.747
 3580SOL     OW12571  14.628  13.304  11.729
 3580SOL    HW112572  14.650  13.219  11.768
 3580SOL    HW212573  14.635  13.366  11.801
 3581SOL     OW12574   6.813  12.109   7.779
 3581SOL    HW112575   6.781  12.037   7.723
 3581SOL    HW212576   6.878  12.153   7.725
 3582SOL     OW12577   6.100   6.754   6.948
 3582SOL    HW112578   6.172   6.721   7.002
 3582SOL    HW212579   6.123   6.730   6.859
 3583SOL     OW12580   7.127   4.233   4.722
 3583SOL    HW112581   7.141   4.326   4.742
 3583SOL    HW212582   7.042   4.231   4.679
 3584SOL     OW12583   1.376  12.288   1.800
 3584SOL    HW112584   1.470  12.274   1.806
 3584SOL    HW212585   1.362  12.375   1.840
 3585SOL     OW12586   3.959   4.541  10.996
 3585SOL    HW112587   4.010   4.524  11.075
 3585SOL    HW212588   3.927   4.455  10.969
 3586SOL     OW12589   1.259   9.753   5.660
 3586SOL    HW112590   1.227   9.716   5.742
 3586SOL    HW212591   1.325   9.690   5.631
 3587SOL     OW12592   7.136   1.812   3.374
 3587SOL    HW112593   7.101   1.893   3.411
 3587SOL    HW212594   7.230   1.827   3.368
 3588SOL     OW12595   9.801   7.895   5.449
 3588SOL    HW112596   9.744   7.818   5.455
 3588SOL    HW212597   9.742   7.969   5.465
 3589SOL     OW12598   7.019  14.576   4.047
 3589SOL    HW112599   7.015  14.636   3.972
 3589SOL    HW212600   6.959  14.505   4.023
 3590SOL     OW12601   4.985   9.304   4.005
 3590SOL    HW112602   5.031   9.306   4.089
 3590SOL    HW212603   5.044   9.256   3.947
 3591SOL     OW12604   6.407  13.873   4.132
 3591SOL    HW112605   6.452  13.822   4.064
 3591SOL    HW212606   6.392  13.810   4.202
 3592SOL     OW12607   3.222   4.696   3.968
 3592SOL    HW112608   3.260   4.741   3.892
 3592SOL    HW212609   3.149   4.646   3.931
 3593SOL     OW12610   0.809   9.515  14.492
 3593SOL    HW112611   0.731   9.531  14.439
 3593SOL    HW212612   0.880   9.508  14.428
 3594SOL     OW12613   3.973   6.639   3.761
 3594SOL    HW112614   3.957   6.650   3.855
 3594SOL    HW212615   3.945   6.721   3.722
 3595SOL     OW12616   3.510   9.314  10.818
 3595SOL    HW112617   3.528   9.276  10.732
 3595SOL    HW212618   3.552   9.400  10.815
 3596SOL     OW12619   5.204   1.607  12.339
 3596SOL    HW112620   5.211   1.682  12.398
 3596SOL    HW212621   5.281   1.554  12.357
 3597SOL     OW12622   1.767   6.274  10.447
 3597SOL    HW112623   1.713   6.352  10.431
 3597SOL    HW212624   1.841   6.306  10.499
 3598SOL     OW12625   2.845   1.739   4.911
 3598SOL    HW112626   2.766   1.784   4.881
 3598SOL    HW212627   2.818   1.694   4.991
 3599SOL     OW12628   6.504   7.945   3.225
 3599SOL    HW112629   6.498   8.001   3.302
 3599SOL    HW212630   6.525   8.005   3.153
 3600SOL     OW12631   0.438  10.151  14.743
 3600SOL    HW112632   0.398  10.147  14.830
 3600SOL    HW212633   0.529  10.173  14.760
 3601SOL     OW12634   3.110   2.649   7.342
 3601SOL    HW112635   3.093   2.711   7.413
 3601SOL    HW212636   3.134   2.705   7.268
 3602SOL     OW12637   5.323   3.416   5.218
 3602SOL    HW112638   5.330   3.445   5.309
 3602SOL    HW212639   5.274   3.486   5.174
 3603SOL     OW12640   9.505   4.241   6.829
 3603SOL    HW112641   9.415   4.241   6.796
 3603SOL    HW212642   9.517   4.329   6.865
 3604SOL     OW12643   5.761  14.494   1.860
 3604SOL    HW112644   5.711  14.569   1.892
 3604SOL    HW212645   5.716  14.418   1.897
 3605SOL     OW12646   1.771  12.379   9.890
 3605SOL    HW112647   1.706  12.434   9.934
 3605SOL    HW212648   1.846  12.380   9.949
 3606SOL     OW12649   4.354  13.732   6.054
 3606SOL    HW112650   4.294  13.706   5.984
 3606SOL    HW212651   4.389  13.816   6.025
 3607SOL     OW12652   9.839  13.474  14.569
 3607SOL    HW112653   9.894  13.496  14.494
 3607SOL    HW212654   9.873  13.390  14.600
 3608SOL     OW12655  12.829   4.837   8.952
 3608SOL    HW112656  12.801   4.844   8.861
 3608SOL    HW212657  12.924   4.841   8.949
 3609SOL     OW12658   6.566   1.905   9.631
 3609SOL    HW112659   6.620   1.939   9.560
 3609SOL    HW212660   6.552   1.813   9.609
 3610SOL     OW12661   1.652  11.816  10.797
 3610SOL    HW112662   1.640  11.844  10.706
 3610SOL    HW212663   1.633  11.722  10.796
 3611SOL     OW12664   3.491   7.646  12.127
 3611SOL    HW112665   3.529   7.642  12.039
 3611SOL    HW212666   3.444   7.730  12.129
 3612SOL     OW12667   9.715  13.075   8.006
 3612SOL    HW112668   9.622  13.073   8.026
 3612SOL    HW212669   9.733  12.990   7.964
 3613SOL     OW12670   5.631  11.655  14.720
 3613SOL    HW112671   5.570  11.708  14.772
 3613SOL    HW212672   5.696  11.625  14.784
 3614SOL     OW12673  14.201   0.700  12.836
 3614SOL    HW112674  14.199   0.736  12.924
 3614SOL    HW212675  14.180   0.607  12.847
 3615SOL     OW12676   0.889  13.636  11.995
 3615SOL    HW112677   0.856  13.546  11.985
 3615SOL    HW212678   0.825  13.690  11.948
 3616SOL     OW12679   2.882   5.753  14.308
 3616SOL    HW112680   2.813   5.812  14.339
 3616SOL    HW212681   2.902   5.784  14.220
 3617SOL     OW12682   7.664   5.125  11.182
 3617SOL    HW112683   7.666   5.213  11.145
 3617SOL    HW212684   7.578   5.119  11.225
 3618SOL     OW12685   2.962   5.884  13.316
 3618SOL    HW112686   3.028   5.829  13.358
 3618SOL    HW212687   3.011   5.960  13.285
 3619SOL     OW12688   2.812   4.532  11.364
 3619SOL    HW112689   2.763   4.582  11.298
 3619SOL    HW212690   2.755   4.458  11.385
 3620SOL     OW12691  13.561  13.335  11.351
 3620SOL    HW112692  13.546  13.412  11.406
 3620SOL    HW212693  13.620  13.366  11.282
 3621SOL     OW12694   9.246   8.820   9.808
 3621SOL    HW112695   9.172   8.767   9.778
 3621SOL    HW212696   9.323   8.766   9.789
 3622SOL     OW12697  10.619   1.124   0.315
 3622SOL    HW112698  10.636   1.066   0.240
 3622SOL    HW212699  10.549   1.080   0.363
 3623SOL     OW12700   7.870   2.648   6.083
 3623SOL    HW112701   7.923   2.727   6.085
 3623SOL    HW212702   7.908   2.592   6.152
 3624SOL     OW12703  13.685  10.487  14.369
 3624SOL    HW112704  13.682  10.408  14.314
 3624SOL    HW212705  13.651  10.557  14.313
 3625SOL     OW12706  14.701   1.870  10.688
 3625SOL    HW112707  14.616   1.853  10.728
 3625SOL    HW212708  14.744   1.784  10.685
 3626SOL     OW12709   7.806  11.954   4.962
 3626SOL    HW112710   7.895  11.933   4.990
 3626SOL    HW212711   7.815  12.033   4.909
 3627SOL     OW12712   9.805  11.838  13.366
 3627SOL    HW112713   9.854  11.791  13.299
 3627SOL    HW212714   9.715  11.806  13.357
 3628SOL     OW12715   0.125   0.257  13.592
 3628SOL    HW112716   0.152   0.198  13.522
 3628SOL    HW212717   0.205   0.270  13.644
 3629SOL     OW12718  11.849  11.986   1.097
 3629SOL    HW112719  11.863  12.003   1.190
 3629SOL    HW212720  11.867  11.893   1.086
 3630SOL     OW12721   7.239   8.238  10.408
 3630SOL    HW112722   7.286   8.156  10.394
 3630SOL    HW212723   7.280   8.300  10.347
 3631SOL     OW12724   3.398  12.434   4.582
 3631SOL    HW112725   3.482  12.472   4.557
 3631SOL    HW212726   3.366  12.391   4.502
 3632SOL     OW12727   4.345   4.932  13.686
 3632SOL    HW112728   4.429   4.962  13.652
 3632SOL    HW212729   4.358   4.838  13.701
 3633SOL     OW12730   5.403   0.517  10.877
 3633SOL    HW112731   5.338   0.447  10.874
 3633SOL    HW212732   5.387   0.562  10.960
 3634SOL     OW12733   7.896   9.042   1.919
 3634SOL    HW112734   7.870   9.093   1.995
 3634SOL    HW212735   7.976   8.997   1.946
 3635SOL     OW12736   6.912   7.764   2.930
 3635SOL    HW112737   6.924   7.859   2.924
 3635SOL    HW212738   6.916   7.745   3.024
 3636SOL     OW12739   5.532   0.818   6.235
 3636SOL    HW112740   5.605   0.814   6.296
 3636SOL    HW212741   5.546   0.898   6.185
 3637SOL     OW12742   0.543  14.019  13.053
 3637SOL    HW112743   0.614  14.062  13.102
 3637SOL    HW212744   0.474  14.085  13.050
 3638SOL     OW12745   9.970   0.206  14.843
 3638SOL    HW112746   9.950   0.114  14.825
 3638SOL    HW212747   9.887   0.252  14.830
 3639SOL     OW12748  12.817  14.739   6.077
 3639SOL    HW112749  12.900  14.692   6.082
 3639SOL    HW212750  12.750  14.673   6.095
 3640SOL     OW12751   9.330  11.011   3.175
 3640SOL    HW112752   9.378  11.042   3.098
 3640SOL    HW212753   9.263  11.077   3.189
 3641SOL     OW12754   7.951   3.632   4.592
 3641SOL    HW112755   7.965   3.569   4.662
 3641SOL    HW212756   7.972   3.717   4.632
 3642SOL     OW12757   6.508   8.439   9.906
 3642SOL    HW112758   6.576   8.374   9.889
 3642SOL    HW212759   6.556   8.522   9.918
 3643SOL     OW12760  11.309   1.640   9.458
 3643SOL    HW112761  11.298   1.578   9.387
 3643SOL    HW212762  11.327   1.724   9.415
 3644SOL     OW12763   0.464   7.248   8.468
 3644SOL    HW112764   0.437   7.285   8.384
 3644SOL    HW212765   0.553   7.279   8.481
 3645SOL     OW12766  12.553   5.278   2.325
 3645SOL    HW112767  12.619   5.325   2.274
 3645SOL    HW212768  12.526   5.206   2.269
 3646SOL     OW12769   4.417   9.347   2.721
 3646SOL    HW112770   4.432   9.263   2.679
 3646SOL    HW212771   4.328   9.342   2.755
 3647SOL     OW12772  10.376  12.979  12.256
 3647SOL    HW112773  10.349  12.969  12.165
 3647SOL    HW212774  10.472  12.975  12.253
 3648SOL     OW12775   8.366   2.891   9.569
 3648SOL    HW112776   8.396   2.802   9.550
 3648SOL    HW212777   8.443   2.946   9.554
 3649SOL     OW12778   5.373  10.196   1.346
 3649SOL    HW112779   5.327  10.113   1.340
 3649SOL    HW212780   5.318  10.257   1.295
 3650SOL     OW12781   4.212   2.735   1.319
 3650SOL    HW112782   4.128   2.731   1.273
 3650SOL    HW212783   4.189   2.720   1.411
 3651SOL     OW12784   8.666   2.891  13.297
 3651SOL    HW112785   8.740   2.952  13.295
 3651SOL    HW212786   8.611   2.917  13.224
 3652SOL     OW12787  10.134   5.480  14.343
 3652SOL    HW112788  10.073   5.464  14.271
 3652SOL    HW212789  10.128   5.575  14.358
 3653SOL     OW12790   1.153   3.643  11.533
 3653SOL    HW112791   1.090   3.603  11.473
 3653SOL    HW212792   1.234   3.648  11.482
 3654SOL     OW12793   4.802   6.819   7.008
 3654SOL    HW112794   4.865   6.756   7.043
 3654SOL    HW212795   4.748   6.844   7.083
 3655SOL     OW12796   3.169   9.404  11.306
 3655SOL    HW112797   3.246   9.427  11.253
 3655SOL    HW212798   3.095   9.428  11.251
 3656SOL     OW12799  10.473   5.383   7.152
 3656SOL    HW112800  10.560   5.348   7.172
 3656SOL    HW212801  10.417   5.306   7.144
 3657SOL     OW12802   4.997   9.568   3.754
 3657SOL    HW112803   5.025   9.516   3.829
 3657SOL    HW212804   4.985   9.504   3.683
 3658SOL     OW12805  12.873  12.002   6.120
 3658SOL    HW112806  12.964  12.028   6.136
 3658SOL    HW212807  12.827  12.029   6.200
 3659SOL     OW12808   0.121   4.632   3.210
 3659SOL    HW112809   0.042   4.631   3.156
 3659SOL    HW212810   0.117   4.716   3.257
 3660SOL     OW12811  13.963   6.174  12.619
 3660SOL    HW112812  13.871   6.178  12.646
 3660SOL    HW212813  14.007   6.134  12.694
 3661SOL     OW12814   0.735   1.256  14.153
 3661SOL    HW112815   0.661   1.204  14.121
 3661SOL    HW212816   0.698   1.310  14.222
 3662SOL     OW12817   1.627  12.684   6.352
 3662SOL    HW112818   1.713  12.649   6.330
 3662SOL    HW212819   1.596  12.725   6.270
 3663SOL     OW12820  10.594   2.373   6.376
 3663SOL    HW112821  10.625   2.338   6.292
 3663SOL    HW212822  10.662   2.347   6.438
 3664SOL     OW12823   0.607   7.694   0.314
 3664SOL    HW112824   0.637   7.669   0.401
 3664SOL    HW212825   0.622   7.616   0.260
 3665SOL     OW12826   9.900  13.185   4.860
 3665SOL    HW112827   9.912  13.092   4.876
 3665SOL    HW212828   9.988  13.223   4.866
 3666SOL     OW12829   6.649   1.925   3.938
 3666SOL    HW112830   6.559   1.893   3.944
 3666SOL    HW212831   6.698   1.870   3.999
 3667SOL     OW12832   8.613   7.299   6.398
 3667SOL    HW112833   8.697   7.344   6.384
 3667SOL    HW212834   8.638   7.207   6.409
 3668SOL     OW12835   3.800  14.663  10.881
 3668SOL    HW112836   3.821  14.747  10.922
 3668SOL    HW212837   3.716  14.678  10.838
 3669SOL     OW12838   3.648   0.264  12.900
 3669SOL    HW112839   3.600   0.343  12.877
 3669SOL    HW212840   3.714   0.255  12.831
 3670SOL     OW12841   6.538  11.111   5.656
 3670SOL    HW112842   6.633  11.121   5.664
 3670SOL    HW212843   6.510  11.186   5.604
 3671SOL     OW12844  11.187   6.802   1.809
 3671SOL    HW112845  11.240   6.859   1.753
 3671SOL    HW212846  11.165   6.857   1.884
 3672SOL     OW12847  14.508  13.069   2.200
 3672SOL    HW112848  14.496  13.111   2.115
 3672SOL    HW212849  14.531  12.978   2.179
 3673SOL     OW12850   8.275   6.975  11.447
 3673SOL    HW112851   8.302   6.897  11.495
 3673SOL    HW212852   8.267   7.043  11.513
 3674SOL     OW12853  10.524   5.884   4.444
 3674SOL    HW112854  10.520   5.827   4.521
 3674SOL    HW212855  10.450   5.944   4.454
 3675SOL     OW12856   5.943   7.343  11.563
 3675SOL    HW112857   5.913   7.312  11.477
 3675SOL    HW212858   5.919   7.436  11.564
 3676SOL     OW12859  12.261   1.437   0.561
 3676SOL    HW112860  12.283   1.511   0.504
 3676SOL    HW212861  12.180   1.402   0.525
 3677SOL     OW12862  13.432   4.312  12.443
 3677SOL    HW112863  13.454   4.275  12.528
 3677SOL    HW212864  13.474   4.253  12.380
 3678SOL     OW12865   3.948   7.940   2.523
 3678SOL    HW112866   3.978   7.856   2.558
 3678SOL    HW212867   4.026   7.978   2.484
 3679SOL     OW12868   6.051   8.054   6.840
 3679SOL    HW112869   6.143   8.065   6.863
 3679SOL    HW212870   6.051   7.987   6.771
 3680SOL     OW12871   2.450   1.408   4.995
 3680SOL    HW112872   2.377   1.350   4.975
 3680SOL    HW212873   2.527   1.350   4.998
 3681SOL     OW12874  10.914   0.331   1.055
 3681SOL    HW112875  10.971   0.255   1.061
 3681SOL    HW212876  10.973   0.405   1.039
 3682SOL     OW12877  10.989   1.032  13.603
 3682SOL    HW112878  11.048   1.108  13.595
 3682SOL    HW212879  10.904   1.065  13.575
 3683SOL     OW12880  12.004   4.985   1.060
 3683SOL    HW112881  11.971   5.066   1.100
 3683SOL    HW212882  12.024   4.928   1.134
 3684SOL     OW12883  12.690   3.374  13.540
 3684SOL    HW112884  12.647   3.349  13.459
 3684SOL    HW212885  12.695   3.470  13.535
 3685SOL     OW12886   3.884   0.377   9.350
 3685SOL    HW112887   3.966   0.412   9.386
 3685SOL    HW212888   3.897   0.378   9.256
 3686SOL     OW12889   3.789   1.360  12.623
 3686SOL    HW112890   3.815   1.347  12.531
 3686SOL    HW212891   3.866   1.333  12.673
 3687SOL     OW12892   5.341  10.270   3.719
 3687SOL    HW112893   5.350  10.262   3.814
 3687SOL    HW212894   5.412  10.215   3.685
 3688SOL     OW12895   9.027  12.927  10.091
 3688SOL    HW112896   9.042  13.015  10.125
 3688SOL    HW212897   8.980  12.941  10.009
 3689SOL     OW12898   7.554   3.171   7.995
 3689SOL    HW112899   7.505   3.217   7.927
 3689SOL    HW212900   7.489   3.115   8.037
 3690SOL     OW12901   1.123  14.399   8.543
 3690SOL    HW112902   1.051  14.406   8.605
 3690SOL    HW212903   1.160  14.488   8.540
 3691SOL     OW12904  11.479  12.531   6.868
 3691SOL    HW112905  11.386  12.536   6.846
 3691SOL    HW212906  11.491  12.441   6.900
 3692SOL     OW12907   4.066   9.323  13.214
 3692SOL    HW112908   4.055   9.228  13.218
 3692SOL    HW212909   3.985   9.358  13.250
 3693SOL     OW12910  13.984   2.786   9.288
 3693SOL    HW112911  14.044   2.765   9.360
 3693SOL    HW212912  13.901   2.746   9.314
 3694SOL     OW12913   0.146  11.842  10.489
 3694SOL    HW112914   0.219  11.791  10.523
 3694SOL    HW212915   0.169  11.860  10.398
 3695SOL     OW12916  14.436  14.811   9.018
 3695SOL    HW112917  14.361  14.752   9.012
 3695SOL    HW212918  14.410   0.017   8.969
 3696SOL     OW12919  12.727   0.123   4.651
 3696SOL    HW112920  12.671   0.102   4.577
 3696SOL    HW212921  12.760   0.038   4.680
 3697SOL     OW12922   8.968   7.717   6.197
 3697SOL    HW112923   9.007   7.778   6.134
 3697SOL    HW212924   9.042   7.679   6.244
 3698SOL     OW12925  10.123   4.228   7.774
 3698SOL    HW112926  10.039   4.181   7.778
 3698SOL    HW212927  10.128   4.262   7.685
 3699SOL     OW12928   9.534   5.274   6.458
 3699SOL    HW112929   9.536   5.363   6.493
 3699SOL    HW212930   9.589   5.278   6.379
 3700SOL     OW12931  11.018   9.524   6.314
 3700SOL    HW112932  10.939   9.472   6.332
 3700SOL    HW212933  11.007   9.602   6.369
 3701SOL     OW12934   9.752   3.618   0.112
 3701SOL    HW112935   9.832   3.669   0.104
 3701SOL    HW212936   9.681   3.682   0.101
 3702SOL     OW12937   4.329  11.846   3.374
 3702SOL    HW112938   4.374  11.879   3.296
 3702SOL    HW212939   4.357  11.754   3.380
 3703SOL     OW12940   7.251   3.840   1.660
 3703SOL    HW112941   7.174   3.796   1.623
 3703SOL    HW212942   7.240   3.830   1.755
 3704SOL     OW12943  12.471  12.704   5.451
 3704SOL    HW112944  12.564  12.687   5.464
 3704SOL    HW212945  12.450  12.771   5.516
 3705SOL     OW12946   3.626   5.439   3.147
 3705SOL    HW112947   3.625   5.459   3.053
 3705SOL    HW212948   3.711   5.469   3.177
 3706SOL     OW12949   1.640  11.656  13.191
 3706SOL    HW112950   1.689  11.597  13.135
 3706SOL    HW212951   1.552  11.618  13.196
 3707SOL     OW12952  12.619   2.891  12.461
 3707SOL    HW112953  12.583   2.979  12.456
 3707SOL    HW212954  12.635   2.876  12.554
 3708SOL     OW12955  13.885   1.854  11.731
 3708SOL    HW112956  13.893   1.933  11.676
 3708SOL    HW212957  13.821   1.799  11.685
 3709SOL     OW12958  12.523  13.947   1.532
 3709SOL    HW112959  12.457  14.012   1.508
 3709SOL    HW212960  12.527  13.951   1.628
 3710SOL     OW12961   7.839   8.111   5.078
 3710SOL    HW112962   7.891   8.092   5.000
 3710SOL    HW212963   7.792   8.029   5.097
 3711SOL     OW12964  10.842   5.420  12.925
 3711SOL    HW112965  10.842   5.354  12.856
 3711SOL    HW212966  10.751   5.448  12.932
 3712SOL     OW12967   9.218   7.784   7.307
 3712SOL    HW112968   9.269   7.864   7.299
 3712SOL    HW212969   9.258   7.736   7.380
 3713SOL     OW12970   6.681   4.945   0.680
 3713SOL    HW112971   6.627   4.930   0.758
 3713SOL    HW212972   6.770   4.926   0.709
 3714SOL     OW12973   2.580  14.681   3.941
 3714SOL    HW112974   2.501  14.730   3.963
 3714SOL    HW212975   2.628  14.737   3.881
 3715SOL     OW12976   7.805  12.609   4.311
 3715SOL    HW112977   7.791  12.614   4.216
 3715SOL    HW212978   7.826  12.517   4.327
 3716SOL     OW12979   7.522  12.429   2.095
 3716SOL    HW112980   7.568  12.393   2.019
 3716SOL    HW212981   7.582  12.416   2.168
 3717SOL     OW12982   2.251  13.555   0.348
 3717SOL    HW112983   2.332  13.520   0.310
 3717SOL    HW212984   2.241  13.508   0.431
 3718SOL     OW12985   8.105  12.997  10.778
 3718SOL    HW112986   8.132  12.917  10.823
 3718SOL    HW212987   8.052  12.967  10.705
 3719SOL     OW12988   6.761   7.333   6.882
 3719SOL    HW112989   6.789   7.346   6.792
 3719SOL    HW212990   6.666   7.320   6.876
 3720SOL     OW12991  10.239   3.104  14.312
 3720SOL    HW112992  10.244   3.132  14.221
 3720SOL    HW212993  10.309   3.040  14.321
 3721SOL     OW12994   2.818   5.581  10.065
 3721SOL    HW112995   2.823   5.653  10.001
 3721SOL    HW212996   2.773   5.619  10.140
 3722SOL     OW12997   9.655   1.087   7.446
 3722SOL    HW112998   9.668   1.040   7.529
 3722SOL    HW212999   9.580   1.043   7.405
 3723SOL     OW13000  13.618   0.496  10.095
 3723SOL    HW113001  13.672   0.570  10.067
 3723SOL    HW213002  13.675   0.420  10.087
 3724SOL     OW13003   8.603   5.016   2.187
 3724SOL    HW113004   8.514   5.049   2.204
 3724SOL    HW213005   8.659   5.071   2.241
 3725SOL     OW13006  12.254  12.706   0.348
 3725SOL    HW113007  12.218  12.633   0.398
 3725SOL    HW213008  12.240  12.783   0.404
 3726SOL     OW13009  10.383  11.294  10.209
 3726SOL    HW113010  10.357  11.213  10.165
 3726SOL    HW213011  10.309  11.318  10.263
 3727SOL     OW13012   5.145  10.329   6.433
 3727SOL    HW113013   5.083  10.314   6.504
 3727SOL    HW213014   5.226  10.355   6.478
 3728SOL     OW13015   6.449   6.409   4.170
 3728SOL    HW113016   6.451   6.432   4.078
 3728SOL    HW213017   6.357   6.387   4.187
 3729SOL     OW13018   0.607  13.923   5.935
 3729SOL    HW113019   0.693  13.919   5.893
 3729SOL    HW213020   0.555  13.857   5.889
 3730SOL     OW13021  10.118  13.057  14.307
 3730SOL    HW113022  10.067  12.994  14.358
 3730SOL    HW213023  10.055  13.125  14.283
 3731SOL     OW13024   9.230  13.276   9.960
 3731SOL    HW113025   9.306  13.221   9.942
 3731SOL    HW213026   9.175  13.266   9.882
 3732SOL     OW13027   1.170   6.483   7.546
 3732SOL    HW113028   1.092   6.441   7.581
 3732SOL    HW213029   1.148   6.499   7.454
 3733SOL     OW13030  11.454   0.362   9.324
 3733SOL    HW113031  11.516   0.306   9.370
 3733SOL    HW213032  11.408   0.410   9.393
 3734SOL     OW13033  12.279   6.404   0.712
 3734SOL    HW113034  12.273   6.500   0.719
 3734SOL    HW213035  12.286   6.388   0.618
 3735SOL     OW13036  11.826   4.061  11.377
 3735SOL    HW113037  11.761   4.030  11.314
 3735SOL    HW213038  11.774   4.089  11.453
 3736SOL     OW13039  14.373   1.779   6.714
 3736SOL    HW113040  14.426   1.858   6.718
 3736SOL    HW213041  14.435   1.709   6.696
 3737SOL     OW13042   3.869   0.530  14.830
 3737SOL    HW113043   3.841   0.574   0.039
 3737SOL    HW213044   3.800   0.551  14.767
 3738SOL     OW13045  11.496   4.235   2.632
 3738SOL    HW113046  11.572   4.209   2.683
 3738SOL    HW213047  11.423   4.232   2.694
 3739SOL     OW13048  10.742   4.830   8.072
 3739SOL    HW113049  10.751   4.924   8.087
 3739SOL    HW213050  10.653   4.809   8.100
 3740SOL     OW13051  11.849  12.141  10.788
 3740SOL    HW113052  11.911  12.174  10.723
 3740SOL    HW213053  11.763  12.155  10.748
 3741SOL     OW13054  10.477   7.970   3.355
 3741SOL    HW113055  10.407   8.035   3.366
 3741SOL    HW213056  10.558   8.020   3.360
 3742SOL     OW13057   9.735   2.659   4.619
 3742SOL    HW113058   9.660   2.610   4.585
 3742SOL    HW213059   9.811   2.604   4.600
 3743SOL     OW13060   5.571   4.639   8.159
 3743SOL    HW113061   5.626   4.585   8.104
 3743SOL    HW213062   5.492   4.654   8.107
 3744SOL     OW13063   4.998   5.713   0.481
 3744SOL    HW113064   5.089   5.735   0.501
 3744SOL    HW213065   4.964   5.789   0.435
 3745SOL     OW13066   3.913   8.411  12.487
 3745SOL    HW113067   3.818   8.420  12.487
 3745SOL    HW213068   3.930   8.334  12.433
 3746SOL     OW13069   4.023   2.689   5.267
 3746SOL    HW113070   3.970   2.686   5.346
 3746SOL    HW213071   4.089   2.621   5.280
 3747SOL     OW13072   2.731   6.016  14.056
 3747SOL    HW113073   2.782   6.089  14.021
 3747SOL    HW213074   2.791   5.941  14.053
 3748SOL     OW13075  14.849  12.068  12.792
 3748SOL    HW113076  14.818  12.045  12.705
 3748SOL    HW213077  14.784  12.129  12.826
 3749SOL     OW13078   0.405   9.630   5.530
 3749SOL    HW113079   0.401   9.563   5.462
 3749SOL    HW213080   0.489   9.673   5.517
 3750SOL     OW13081  11.320   2.453  13.707
 3750SOL    HW113082  11.276   2.538  13.703
 3750SOL    HW213083  11.412   2.473  13.692
 3751SOL     OW13084   3.637   8.816   9.514
 3751SOL    HW113085   3.620   8.825   9.608
 3751SOL    HW213086   3.685   8.734   9.506
 3752SOL     OW13087  12.445   5.303  11.147
 3752SOL    HW113088  12.502   5.354  11.205
 3752SOL    HW213089  12.356   5.328  11.174
 3753SOL     OW13090   7.904   8.414   8.903
 3753SOL    HW113091   7.967   8.366   8.850
 3753SOL    HW213092   7.941   8.502   8.910
 3754SOL     OW13093   1.894  14.470   1.153
 3754SOL    HW113094   1.961  14.403   1.162
 3754SOL    HW213095   1.920  14.521   1.076
 3755SOL     OW13096   9.468   8.843  14.083
 3755SOL    HW113097   9.551   8.811  14.050
 3755SOL    HW213098   9.410   8.843  14.006
 3756SOL     OW13099   9.392  11.834  11.748
 3756SOL    HW113100   9.329  11.780  11.701
 3756SOL    HW213101   9.417  11.902  11.686
 3757SOL     OW13102   3.868   4.407  13.862
 3757SOL    HW113103   3.950   4.361  13.883
 3757SOL    HW213104   3.833   4.434  13.947
 3758SOL     OW13105  14.655   8.361   9.813
 3758SOL    HW113106  14.653   8.456   9.824
 3758SOL    HW213107  14.747   8.338   9.819
 3759SOL     OW13108   8.984   7.819   4.659
 3759SOL    HW113109   9.040   7.848   4.731
 3759SOL    HW213110   9.036   7.756   4.611
 3760SOL     OW13111   0.116  14.821   7.540
 3760SOL    HW113112   0.194  14.826   7.484
 3760SOL    HW213113   0.150  14.800   7.627
 3761SOL     OW13114   2.849  11.695  13.644
 3761SOL    HW113115   2.931  11.664  13.604
 3761SOL    HW213116   2.784  11.689  13.574
 3762SOL     OW13117   3.732  14.384  10.294
 3762SOL    HW113118   3.723  14.479  10.301
 3762SOL    HW213119   3.716  14.351  10.382
 3763SOL     OW13120   7.325   6.470   6.126
 3763SOL    HW113121   7.413   6.505   6.116
 3763SOL    HW213122   7.338   6.379   6.154
 3764SOL     OW13123   5.547   8.232   3.909
 3764SOL    HW113124   5.556   8.179   3.830
 3764SOL    HW213125   5.454   8.229   3.930
 3765SOL     OW13126   4.195  11.878   7.540
 3765SOL    HW113127   4.116  11.910   7.582
 3765SOL    HW213128   4.262  11.943   7.561
 3766SOL     OW13129   4.168  13.777   6.873
 3766SOL    HW113130   4.093  13.722   6.894
 3766SOL    HW213131   4.244  13.724   6.894
 3767SOL     OW13132   7.233  11.751   8.523
 3767SOL    HW113133   7.262  11.820   8.462
 3767SOL    HW213134   7.138  11.749   8.513
 3768SOL     OW13135   5.283   6.030   6.832
 3768SOL    HW113136   5.291   6.125   6.821
 3768SOL    HW213137   5.212   6.005   6.773
 3769SOL     OW13138   2.989   1.147   3.043
 3769SOL    HW113139   2.970   1.056   3.019
 3769SOL    HW213140   3.023   1.142   3.132
 3770SOL     OW13141   2.809   8.106   3.425
 3770SOL    HW113142   2.855   8.122   3.342
 3770SOL    HW213143   2.748   8.035   3.405
 3771SOL     OW13144  11.232  12.592   7.021
 3771SOL    HW113145  11.281  12.584   7.103
 3771SOL    HW213146  11.204  12.503   7.001
 3772SOL     OW13147   8.984   9.244  10.231
 3772SOL    HW113148   8.896   9.278  10.247
 3772SOL    HW213149   9.040   9.322  10.226
 3773SOL     OW13150   6.201  14.028  13.793
 3773SOL    HW113151   6.291  14.047  13.767
 3773SOL    HW213152   6.204  13.937  13.823
 3774SOL     OW13153   9.720   5.270   6.060
 3774SOL    HW113154   9.633   5.288   6.024
 3774SOL    HW213155   9.748   5.189   6.018
 3775SOL     OW13156   3.159  10.592  10.716
 3775SOL    HW113157   3.183  10.506  10.751
 3775SOL    HW213158   3.228  10.651  10.745
 3776SOL     OW13159   2.424  13.208   1.352
 3776SOL    HW113160   2.440  13.159   1.432
 3776SOL    HW213161   2.353  13.268   1.375
 3777SOL     OW13162  10.234  12.224   5.432
 3777SOL    HW113163  10.148  12.239   5.393
 3777SOL    HW213164  10.217  12.169   5.508
 3778SOL     OW13165   6.808   1.909  13.127
 3778SOL    HW113166   6.789   1.918  13.033
 3778SOL    HW213167   6.869   1.836  13.132
 3779SOL     OW13168   8.515   2.015   1.576
 3779SOL    HW113169   8.422   2.031   1.556
 3779SOL    HW213170   8.516   1.932   1.623
 3780SOL     OW13171  13.515   6.862  13.323
 3780SOL    HW113172  13.420   6.875  13.317
 3780SOL    HW213173  13.527   6.819  13.407
 3781SOL     OW13174  13.201   7.348   0.699
 3781SOL    HW113175  13.258   7.419   0.671
 3781SOL    HW213176  13.112   7.381   0.683
 3782SOL     OW13177  12.174   1.091   4.636
 3782SOL    HW113178  12.136   1.142   4.564
 3782SOL    HW213179  12.105   1.032   4.663
 3783SOL     OW13180   7.515   0.286  10.986
 3783SOL    HW113181   7.520   0.267  11.079
 3783SOL    HW213182   7.472   0.210  10.948
 3784SOL     OW13183   4.060  13.266   2.310
 3784SOL    HW113184   4.117  13.340   2.327
 3784SOL    HW213185   4.069  13.211   2.388
 3785SOL     OW13186  11.832   0.359   1.319
 3785SOL    HW113187  11.864   0.295   1.383
 3785SOL    HW213188  11.886   0.436   1.332
 3786SOL     OW13189   7.869  12.897  11.138
 3786SOL    HW113190   7.804  12.835  11.170
 3786SOL    HW213191   7.948  12.877  11.189
 3787SOL     OW13192   7.147   9.834   2.702
 3787SOL    HW113193   7.171   9.855   2.793
 3787SOL    HW213194   7.118   9.918   2.665
 3788SOL     OW13195  14.627   0.318  10.484
 3788SOL    HW113196  14.600   0.383  10.548
 3788SOL    HW213197  14.580   0.342  10.404
 3789SOL     OW13198   8.784   1.184  14.021
 3789SOL    HW113199   8.791   1.197  13.926
 3789SOL    HW213200   8.743   1.265  14.053
 3790SOL     OW13201  12.487   9.240  12.010
 3790SOL    HW113202  12.434   9.304  12.056
 3790SOL    HW213203  12.493   9.166  12.070
 3791SOL     OW13204   0.620   2.098  11.183
 3791SOL    HW113205   0.595   2.071  11.272
 3791SOL    HW213206   0.581   2.185  11.174
 3792SOL     OW13207   7.024   6.222   4.528
 3792SOL    HW113208   6.981   6.259   4.605
 3792SOL    HW213209   7.056   6.137   4.556
 3793SOL     OW13210   9.113   5.793   0.770
 3793SOL    HW113211   9.137   5.752   0.687
 3793SOL    HW213212   9.176   5.759   0.833
 3794SOL     OW13213   2.141  13.615   2.816
 3794SOL    HW113214   2.125  13.632   2.909
 3794SOL    HW213215   2.152  13.520   2.810
 3795SOL     OW13216   3.035  10.049   2.567
 3795SOL    HW113217   3.093   9.975   2.549
 3795SOL    HW213218   3.012  10.084   2.481
 3796SOL     OW13219   2.843   9.894  14.406
 3796SOL    HW113220   2.850   9.874  14.313
 3796SOL    HW213221   2.872   9.814  14.450
 3797SOL     OW13222  14.217  10.137   3.269
 3797SOL    HW113223  14.142  10.157   3.325
 3797SOL    HW213224  14.287  10.115   3.330
 3798SOL     OW13225   0.804  12.345   2.249
 3798SOL    HW113226   0.801  12.259   2.291
 3798SOL    HW213227   0.872  12.336   2.182
 3799SOL     OW13228   8.249   9.190   7.978
 3799SOL    HW113229   8.173   9.137   7.955
 3799SOL    HW213230   8.322   9.128   7.980
 3800SOL     OW13231   2.315   0.392  11.748
 3800SOL    HW113232   2.294   0.480  11.714
 3800SOL    HW213233   2.364   0.409  11.828
 3801SOL     OW13234  10.451   5.381   9.926
 3801SOL    HW113235  10.443   5.457   9.984
 3801SOL    HW213236  10.382   5.394   9.860
 3802SOL     OW13237  13.528   7.741  10.992
 3802SOL    HW113238  13.564   7.766  10.907
 3802SOL    HW213239  13.463   7.809  11.011
 3803SOL     OW13240   8.964  11.688   0.349
 3803SOL    HW113241   8.931  11.773   0.376
 3803SOL    HW213242   9.045  11.707   0.301
 3804SOL     OW13243   7.399   6.366   1.809
 3804SOL    HW113244   7.454   6.423   1.755
 3804SOL    HW213245   7.340   6.324   1.746
 3805SOL     OW13246   2.862  13.140   8.984
 3805SOL    HW113247   2.783  13.191   9.003
 3805SOL    HW213248   2.919  13.156   9.060
 3806SOL     OW13249   0.146  12.366   7.168
 3806SOL    HW113250   0.105  12.313   7.098
 3806SOL    HW213251   0.146  12.308   7.244
 3807SOL     OW13252   3.469   9.638   1.105
 3807SOL    HW113253   3.483   9.715   1.051
 3807SOL    HW213254   3.552   9.626   1.151
 3808SOL     OW13255   1.652   3.654  11.643
 3808SOL    HW113256   1.698   3.685  11.565
 3808SOL    HW213257   1.586   3.721  11.661
 3809SOL     OW13258   0.313  11.279   9.145
 3809SOL    HW113259   0.363  11.339   9.090
 3809SOL    HW213260   0.226  11.318   9.151
 3810SOL     OW13261  13.332   6.737   0.178
 3810SOL    HW113262  13.343   6.827   0.146
 3810SOL    HW213263  13.268   6.745   0.249
 3811SOL     OW13264  12.376   4.659   2.088
 3811SOL    HW113265  12.301   4.715   2.068
 3811SOL    HW213266  12.452   4.717   2.081
 3812SOL     OW13267  13.207   0.352  12.227
 3812SOL    HW113268  13.213   0.322  12.318
 3812SOL    HW213269  13.198   0.447  12.234
 3813SOL     OW13270   8.391  12.036   3.882
 3813SOL    HW113271   8.307  12.064   3.847
 3813SOL    HW213272   8.415  12.105   3.945
 3814SOL     OW13273  12.595   2.679  10.268
 3814SOL    HW113274  12.687   2.663  10.248
 3814SOL    HW213275  12.558   2.715  10.187
 3815SOL     OW13276   9.465   6.593  11.638
 3815SOL    HW113277   9.547   6.614  11.592
 3815SOL    HW213278   9.486   6.517  11.692
 3816SOL     OW13279  14.545   8.001   1.559
 3816SOL    HW113280  14.530   7.930   1.497
 3816SOL    HW213281  14.584   7.958   1.635
 3817SOL     OW13282   8.852   3.515  11.766
 3817SOL    HW113283   8.760   3.525  11.789
 3817SOL    HW213284   8.891   3.469  11.840
 3818SOL     OW13285   0.053   7.732   4.803
 3818SOL    HW113286   0.023   7.819   4.829
 3818SOL    HW213287   0.010   7.673   4.865
 3819SOL     OW13288   7.235   2.647   0.787
 3819SOL    HW113289   7.159   2.678   0.739
 3819SOL    HW213290   7.309   2.664   0.729
 3820SOL     OW13291   4.680   3.808   5.535
 3820SOL    HW113292   4.623   3.849   5.470
 3820SOL    HW213293   4.698   3.721   5.499
 3821SOL     OW13294   5.415   3.092  14.241
 3821SOL    HW113295   5.352   3.164  14.242
 3821SOL    HW213296   5.387   3.036  14.169
 3822SOL     OW13297  13.621   8.483   8.587
 3822SOL    HW113298  13.625   8.423   8.512
 3822SOL    HW213299  13.673   8.559   8.559
 3823SOL     OW13300   4.012   6.738  12.258
 3823SOL    HW113301   4.048   6.785  12.183
 3823SOL    HW213302   3.995   6.806  12.323
 3824SOL     OW13303   5.305   6.640   4.157
 3824SOL    HW113304   5.326   6.716   4.211
 3824SOL    HW213305   5.324   6.564   4.213
 3825SOL     OW13306   3.172   5.459   5.433
 3825SOL    HW113307   3.083   5.429   5.450
 3825SOL    HW213308   3.167   5.554   5.439
 3826SOL     OW13309   9.365   5.676  14.405
 3826SOL    HW113310   9.280   5.644  14.436
 3826SOL    HW213311   9.348   5.705  14.315
 3827SOL     OW13312   1.585  11.656   2.060
 3827SOL    HW113313   1.517  11.707   2.017
 3827SOL    HW213314   1.655  11.649   1.995
 3828SOL     OW13315   9.527  12.081   4.619
 3828SOL    HW113316   9.619  12.069   4.641
 3828SOL    HW213317   9.513  12.022   4.544
 3829SOL     OW13318   0.519   3.972   6.668
 3829SOL    HW113319   0.434   3.939   6.694
 3829SOL    HW213320   0.571   3.893   6.652
 3830SOL     OW13321   5.898   1.820   1.398
 3830SOL    HW113322   5.843   1.757   1.445
 3830SOL    HW213323   5.933   1.877   1.467
 3831SOL     OW13324   6.069   3.742   6.535
 3831SOL    HW113325   6.113   3.658   6.526
 3831SOL    HW213326   6.058   3.754   6.629
 3832SOL     OW13327   5.271   6.770   6.340
 3832SOL    HW113328   5.345   6.830   6.334
 3832SOL    HW213329   5.304   6.688   6.302
 3833SOL     OW13330   4.152   4.806  12.008
 3833SOL    HW113331   4.220   4.841  11.951
 3833SOL    HW213332   4.089   4.764  11.949
 3834SOL     OW13333   6.744   4.873   1.393
 3834SOL    HW113334   6.652   4.848   1.381
 3834SOL    HW213335   6.766   4.842   1.480
 3835SOL     OW13336  14.253   7.623   1.455
 3835SOL    HW113337  14.341   7.628   1.419
 3835SOL    HW213338  14.212   7.706   1.431
 3836SOL     OW13339  12.053   3.799   7.169
 3836SOL    HW113340  12.006   3.747   7.104
 3836SOL    HW213341  12.142   3.807   7.134
 3837SOL     OW13342   7.984  10.991   1.482
 3837SOL    HW113343   8.076  11.016   1.490
 3837SOL    HW213344   7.963  10.951   1.567
 3838SOL     OW13345  14.399   2.629   6.509
 3838SOL    HW113346  14.321   2.574   6.500
 3838SOL    HW213347  14.367   2.719   6.498
 3839SOL     OW13348   4.364   7.644   1.936
 3839SOL    HW113349   4.378   7.711   1.869
 3839SOL    HW213350   4.317   7.689   2.006
 3840SOL     OW13351   4.949  10.721  10.136
 3840SOL    HW113352   4.999  10.642  10.157
 3840SOL    HW213353   4.862  10.688  10.113
 3841SOL     OW13354   8.671   5.462   1.008
 3841SOL    HW113355   8.603   5.526   0.985
 3841SOL    HW213356   8.659   5.390   0.945
 3842SOL     OW13357   0.687   2.825   8.090
 3842SOL    HW113358   0.681   2.903   8.036
 3842SOL    HW213359   0.780   2.812   8.104
 3843SOL     OW13360  14.812  11.277   2.801
 3843SOL    HW113361  14.728  11.229   2.798
 3843SOL    HW213362   0.002  11.218   2.759
 3844SOL     OW13363  10.908   6.760   1.406
 3844SOL    HW113364  10.960   6.682   1.384
 3844SOL    HW213365  10.935   6.781   1.495
 3845SOL     OW13366   8.736   3.230   4.516
 3845SOL    HW113367   8.752   3.211   4.423
 3845SOL    HW213368   8.704   3.148   4.552
 3846SOL     OW13369   9.283   6.486   0.944
 3846SOL    HW113370   9.199   6.442   0.961
 3846SOL    HW213371   9.345   6.443   1.004
 3847SOL     OW13372  13.191  14.664   9.170
 3847SOL    HW113373  13.241  14.714   9.234
 3847SOL    HW213374  13.223  14.574   9.180
 3848SOL     OW13375   3.388  13.447  10.617
 3848SOL    HW113376   3.463  13.407  10.662
 3848SOL    HW213377   3.423  13.527  10.579
 3849SOL     OW13378  10.674   7.487   6.607
 3849SOL    HW113379  10.629   7.413   6.649
 3849SOL    HW213380  10.617   7.512   6.535
 3850SOL     OW13381   1.000  13.703  13.994
 3850SOL    HW113382   0.994  13.789  13.951
 3850SOL    HW213383   0.982  13.640  13.923
 3851SOL     OW13384   1.615   9.064   7.754
 3851SOL    HW113385   1.646   9.152   7.732
 3851SOL    HW213386   1.520   9.071   7.752
 3852SOL     OW13387   9.098   5.323   3.168
 3852SOL    HW113388   9.089   5.314   3.262
 3852SOL    HW213389   9.069   5.239   3.132
 3853SOL     OW13390   8.746   3.410   0.075
 3853SOL    HW113391   8.788   3.494   0.092
 3853SOL    HW213392   8.742   3.403  14.852
 3854SOL     OW13393  14.141   0.192  11.236
 3854SOL    HW113394  14.130   0.214  11.144
 3854SOL    HW213395  14.082   0.251  11.283
 3855SOL     OW13396   1.321  11.508  12.910
 3855SOL    HW113397   1.303  11.419  12.939
 3855SOL    HW213398   1.417  11.514  12.911
 3856SOL     OW13399   8.162   8.227   4.856
 3856SOL    HW113400   8.177   8.140   4.819
 3856SOL    HW213401   8.071   8.248   4.832
 3857SOL     OW13402  11.474   3.026   0.053
 3857SOL    HW113403  11.567   3.047   0.041
 3857SOL    HW213404  11.428   3.097   0.008
 3858SOL     OW13405   0.243   5.547  13.880
 3858SOL    HW113406   0.249   5.540  13.975
 3858SOL    HW213407   0.281   5.465  13.847
 3859SOL     OW13408   1.873   0.339  11.314
 3859SOL    HW113409   1.901   0.340  11.223
 3859SOL    HW213410   1.953   0.323  11.364
 3860SOL     OW13411   8.198  14.741   8.352
 3860SOL    HW113412   8.244  14.757   8.270
 3860SOL    HW213413   8.183  14.646   8.353
 3861SOL     OW13414   0.911   7.037   7.449
 3861SOL    HW113415   0.882   7.127   7.435
 3861SOL    HW213416   0.981   7.045   7.515
 3862SOL     OW13417  10.570   0.316   0.259
 3862SOL    HW113418  10.582   0.410   0.274
 3862SOL    HW213419  10.654   0.286   0.225
 3863SOL     OW13420   7.943   6.530   0.020
 3863SOL    HW113421   7.856   6.497  14.872
 3863SOL    HW213422   7.932   6.575   0.104
 3864SOL     OW13423  11.995   6.105   1.064
 3864SOL    HW113424  11.903   6.090   1.086
 3864SOL    HW213425  12.001   6.199   1.050
 3865SOL     OW13426  13.908   0.195   0.717
 3865SOL    HW113427  13.854   0.116   0.717
 3865SOL    HW213428  13.973   0.180   0.784
 3866SOL     OW13429  10.213  13.490  13.501
 3866SOL    HW113430  10.171  13.405  13.516
 3866SOL    HW213431  10.262  13.507  13.581
 3867SOL     OW13432   6.222   1.430   2.152
 3867SOL    HW113433   6.292   1.379   2.112
 3867SOL    HW213434   6.160   1.446   2.081
 3868SOL     OW13435   8.420   1.669   4.576
 3868SOL    HW113436   8.445   1.638   4.664
 3868SOL    HW213437   8.357   1.739   4.592
 3869SOL     OW13438  14.805   6.812   5.514
 3869SOL    HW113439  14.821   6.775   5.427
 3869SOL    HW213440  14.710   6.819   5.520
 3870SOL     OW13441  13.737   3.411  14.362
 3870SOL    HW113442  13.800   3.482  14.351
 3870SOL    HW213443  13.789   3.337  14.392
 3871SOL     OW13444   6.655   0.609   2.592
 3871SOL    HW113445   6.728   0.573   2.540
 3871SOL    HW213446   6.577   0.584   2.542
 3872SOL     OW13447   3.288   2.403  14.634
 3872SOL    HW113448   3.252   2.433  14.717
 3872SOL    HW213449   3.367   2.455  14.621
 3873SOL     OW13450   0.869  10.952   2.560
 3873SOL    HW113451   0.828  11.001   2.488
 3873SOL    HW213452   0.829  10.988   2.639
 3874SOL     OW13453  13.127  10.007   0.651
 3874SOL    HW113454  13.115   9.936   0.588
 3874SOL    HW213455  13.160  10.080   0.599
 3875SOL     OW13456  10.739   0.117   2.475
 3875SOL    HW113457  10.716   0.036   2.429
 3875SOL    HW213458  10.656   0.148   2.511
 3876SOL     OW13459  13.302   1.563  10.790
 3876SOL    HW113460  13.211   1.570  10.820
 3876SOL    HW213461  13.306   1.620  10.713
 3877SOL     OW13462   8.720   0.906  10.435
 3877SOL    HW113463   8.659   0.847  10.479
 3877SOL    HW213464   8.716   0.881  10.343
 3878SOL     OW13465   7.004   9.052   4.527
 3878SOL    HW113466   7.086   9.085   4.490
 3878SOL    HW213467   7.018   9.051   4.622
 3879SOL     OW13468   2.699  12.166   6.210
 3879SOL    HW113469   2.697  12.132   6.121
 3879SOL    HW213470   2.731  12.256   6.200
 3880SOL     OW13471  14.356  10.573   2.466
 3880SOL    HW113472  14.452  10.563   2.468
 3880SOL    HW213473  14.331  10.577   2.559
 3881SOL     OW13474   0.529   0.103  12.554
 3881SOL    HW113475   0.563   0.101  12.643
 3881SOL    HW213476   0.560   0.022  12.514
 3882SOL     OW13477   5.433   3.245   7.426
 3882SOL    HW113478   5.461   3.270   7.339
 3882SOL    HW213479   5.404   3.326   7.467
 3883SOL     OW13480  13.996  11.084  10.574
 3883SOL    HW113481  13.939  11.070  10.650
 3883SOL    HW213482  14.044  11.164  10.595
 3884SOL     OW13483  14.738   6.541  11.598
 3884SOL    HW113484  14.732   6.612  11.661
 3884SOL    HW213485  14.647   6.522  11.575
 3885SOL     OW13486  13.971  11.639   9.838
 3885SOL    HW113487  13.891  11.690   9.825
 3885SOL    HW213488  13.973  11.620   9.932
 3886SOL     OW13489   8.682   3.682  13.398
 3886SOL    HW113490   8.692   3.629  13.478
 3886SOL    HW213491   8.706   3.771  13.425
 3887SOL     OW13492   6.326   0.880   3.200
 3887SOL    HW113493   6.306   0.801   3.151
 3887SOL    HW213494   6.262   0.944   3.170
 3888SOL     OW13495  14.633   7.222   9.677
 3888SOL    HW113496  14.592   7.277   9.744
 3888SOL    HW213497  14.678   7.283   9.619
 3889SOL     OW13498  12.570   0.178   2.231
 3889SOL    HW113499  12.507   0.134   2.288
 3889SOL    HW213500  12.523   0.189   2.148
 3890SOL     OW13501   8.279  10.045   7.915
 3890SOL    HW113502   8.297  10.134   7.943
 3890SOL    HW213503   8.242  10.055   7.827
 3891SOL     OW13504   5.067   9.365  13.494
 3891SOL    HW113505   5.034   9.305  13.427
 3891SOL    HW213506   5.086   9.446  13.446
 3892SOL     OW13507   4.725   8.893  10.324
 3892SOL    HW113508   4.775   8.875  10.244
 3892SOL    HW213509   4.669   8.967  10.300
 3893SOL     OW13510   4.146   7.988   7.076
 3893SOL    HW113511   4.237   7.962   7.088
 3893SOL    HW213512   4.145   8.039   6.995
 3894SOL     OW13513   2.954   0.223   5.317
 3894SOL    HW113514   2.859   0.234   5.311
 3894SOL    HW213515   2.967   0.130   5.336
 3895SOL     OW13516   8.778  10.871  11.049
 3895SOL    HW113517   8.730  10.877  11.131
 3895SOL    HW213518   8.721  10.820  10.991
 3896SOL     OW13519   6.430   3.964  12.114
 3896SOL    HW113520   6.426   4.038  12.174
 3896SOL    HW213521   6.377   3.896  12.157
 3897SOL     OW13522   9.916  10.796   1.250
 3897SOL    HW113523   9.839  10.765   1.298
 3897SOL    HW213524   9.987  10.795   1.315
 3898SOL     OW13525   4.833  10.394   3.533
 3898SOL    HW113526   4.823  10.390   3.628
 3898SOL    HW213527   4.744  10.408   3.500
 3899SOL     OW13528   2.285   0.618   3.229
 3899SOL    HW113529   2.355   0.646   3.169
 3899SOL    HW213530   2.284   0.523   3.222
 3900SOL     OW13531   6.522   9.154   4.313
 3900SOL    HW113532   6.542   9.130   4.222
 3900SOL    HW213533   6.541   9.074   4.363
 3901SOL     OW13534  12.705   2.976  13.731
 3901SOL    HW113535  12.712   3.023  13.648
 3901SOL    HW213536  12.725   3.042  13.798
 3902SOL     OW13537  14.637   9.995  13.447
 3902SOL    HW113538  14.572  10.007  13.377
 3902SOL    HW213539  14.668   9.905  13.435
 3903SOL     OW13540   7.506   1.128   4.963
 3903SOL    HW113541   7.451   1.107   5.039
 3903SOL    HW213542   7.585   1.075   4.975
 3904SOL     OW13543  14.776   1.419   7.522
 3904SOL    HW113544  14.747   1.431   7.612
 3904SOL    HW213545  14.799   1.507   7.492
 3905SOL     OW13546   8.441  14.650   0.767
 3905SOL    HW113547   8.444  14.563   0.727
 3905SOL    HW213548   8.519  14.695   0.733
 3906SOL     OW13549   9.614   7.560   8.312
 3906SOL    HW113550   9.592   7.486   8.369
 3906SOL    HW213551   9.559   7.632   8.344
 3907SOL     OW13552  11.294  13.207   7.961
 3907SOL    HW113553  11.354  13.212   8.035
 3907SOL    HW213554  11.348  13.177   7.888
 3908SOL     OW13555   0.757   0.505   4.840
 3908SOL    HW113556   0.681   0.447   4.833
 3908SOL    HW213557   0.780   0.526   4.749
 3909SOL     OW13558   6.817   7.571  13.452
 3909SOL    HW113559   6.871   7.606  13.381
 3909SOL    HW213560   6.774   7.648  13.490
 3910SOL     OW13561   1.538   9.972  14.814
 3910SOL    HW113562   1.584  10.011  14.739
 3910SOL    HW213563   1.564  10.027   0.016
 3911SOL     OW13564  13.638  14.804   0.462
 3911SOL    HW113565  13.678   0.015   0.438
 3911SOL    HW213566  13.673  14.785   0.549
 3912SOL     OW13567   4.854   9.274  14.794
 3912SOL    HW113568   4.921   9.342  14.794
 3912SOL    HW213569   4.850   9.244   0.013
 3913SOL     OW13570  11.510  14.624   2.505
 3913SOL    HW113571  11.425  14.580   2.515
 3913SOL    HW213572  11.503  14.674   2.424
 3914SOL     OW13573  10.815   3.751   1.125
 3914SOL    HW113574  10.888   3.812   1.130
 3914SOL    HW213575  10.830   3.688   1.195
 3915SOL     OW13576  14.257   7.474   9.279
 3915SOL    HW113577  14.199   7.430   9.216
 3915SOL    HW213578  14.319   7.406   9.305
 3916SOL     OW13579   6.435  11.058   6.897
 3916SOL    HW113580   6.526  11.030   6.910
 3916SOL    HW213581   6.395  11.050   6.984
 3917SOL     OW13582   4.576   7.817   0.518
 3917SOL    HW113583   4.547   7.903   0.487
 3917SOL    HW213584   4.518   7.798   0.592
 3918SOL     OW13585   8.034  14.463   1.553
 3918SOL    HW113586   7.962  14.403   1.535
 3918SOL    HW213587   8.097  14.411   1.603
 3919SOL     OW13588   8.414   4.749   2.979
 3919SOL    HW113589   8.380   4.836   3.001
 3919SOL    HW213590   8.344   4.709   2.927
 3920SOL     OW13591  12.689   6.308  12.016
 3920SOL    HW113592  12.619   6.245  12.035
 3920SOL    HW213593  12.766   6.271  12.060
 3921SOL     OW13594   7.933   5.353  10.537
 3921SOL    HW113595   7.931   5.432  10.591
 3921SOL    HW213596   7.932   5.385  10.447
 3922SOL     OW13597   3.324   2.148   5.758
 3922SOL    HW113598   3.355   2.063   5.787
 3922SOL    HW213599   3.316   2.140   5.663
 3923SOL     OW13600   3.334   3.986   0.116
 3923SOL    HW113601   3.242   4.011   0.106
 3923SOL    HW213602   3.369   4.046   0.181
 3924SOL     OW13603   9.374  10.418   8.546
 3924SOL    HW113604   9.396  10.364   8.623
 3924SOL    HW213605   9.289  10.455   8.566
 3925SOL     OW13606   1.792   1.477   2.711
 3925SOL    HW113607   1.802   1.548   2.775
 3925SOL    HW213608   1.881   1.458   2.682
 3926SOL     OW13609   0.828  11.164   9.088
 3926SOL    HW113610   0.805  11.235   9.027
 3926SOL    HW213611   0.910  11.193   9.128
 3927SOL     OW13612  13.306   4.575  14.115
 3927SOL    HW113613  13.339   4.496  14.158
 3927SOL    HW213614  13.246   4.614  14.178
 3928SOL     OW13615   5.602   4.311   2.606
 3928SOL    HW113616   5.540   4.241   2.627
 3928SOL    HW213617   5.547   4.384   2.578
 3929SOL     OW13618   1.443  11.490  13.246
 3929SOL    HW113619   1.366  11.528  13.289
 3929SOL    HW213620   1.465  11.413  13.299
 3930SOL     OW13621  10.146   6.227   9.599
 3930SOL    HW113622  10.154   6.231   9.504
 3930SOL    HW213623  10.055   6.253   9.616
 3931SOL     OW13624   7.414   8.812   8.801
 3931SOL    HW113625   7.456   8.810   8.716
 3931SOL    HW213626   7.409   8.720   8.828
 3932SOL     OW13627   6.217  13.005   8.121
 3932SOL    HW113628   6.168  12.954   8.185
 3932SOL    HW213629   6.282  12.944   8.086
 3933SOL     OW13630   5.275   0.153   1.245
 3933SOL    HW113631   5.241   0.242   1.246
 3933SOL    HW213632   5.370   0.163   1.250
 3934SOL     OW13633   6.986   1.169   1.597
 3934SOL    HW113634   6.910   1.132   1.551
 3934SOL    HW213635   6.954   1.252   1.632
 3935SOL     OW13636  11.760  14.809  14.423
 3935SOL    HW113637  11.829  14.802  14.489
 3935SOL    HW213638  11.736  14.718  14.405
 3936SOL     OW13639   7.364   4.515  14.467
 3936SOL    HW113640   7.442   4.469  14.436
 3936SOL    HW213641   7.398   4.596  14.504
 3937SOL     OW13642   1.759  10.175  14.347
 3937SOL    HW113643   1.665  10.178  14.332
 3937SOL    HW213644   1.797  10.229  14.278
 3938SOL     OW13645   9.615  13.608  10.361
 3938SOL    HW113646   9.690  13.620  10.302
 3938SOL    HW213647   9.609  13.690  10.409
 3939SOL     OW13648   4.621   9.016   5.132
 3939SOL    HW113649   4.695   8.973   5.173
 3939SOL    HW213650   4.623   9.105   5.167
 3940SOL     OW13651  11.909   3.715   2.834
 3940SOL    HW113652  11.869   3.693   2.750
 3940SOL    HW213653  11.863   3.661   2.898
 3941SOL     OW13654   4.808   5.121   8.542
 3941SOL    HW113655   4.806   5.075   8.627
 3941SOL    HW213656   4.864   5.197   8.557
 3942SOL     OW13657   7.811  10.784   6.213
 3942SOL    HW113658   7.748  10.733   6.162
 3942SOL    HW213659   7.768  10.798   6.297
 3943SOL     OW13660   3.871   8.833   8.806
 3943SOL    HW113661   3.946   8.823   8.865
 3943SOL    HW213662   3.799   8.787   8.852
 3944SOL     OW13663   8.333   8.817   8.586
 3944SOL    HW113664   8.346   8.897   8.637
 3944SOL    HW213665   8.402   8.819   8.520
 3945SOL     OW13666   9.352   6.824   3.433
 3945SOL    HW113667   9.349   6.832   3.529
 3945SOL    HW213668   9.444   6.806   3.413
 3946SOL     OW13669   8.033   1.969   4.083
 3946SOL    HW113670   8.103   1.932   4.137
 3946SOL    HW213671   7.967   1.900   4.077
 3947SOL     OW13672   1.863   3.728   3.389
 3947SOL    HW113673   1.884   3.675   3.313
 3947SOL    HW213674   1.866   3.818   3.357
 3948SOL     OW13675   1.207  13.722  10.805
 3948SOL    HW113676   1.194  13.721  10.710
 3948SOL    HW213677   1.301  13.706  10.816
 3949SOL     OW13678   6.138   4.921   6.724
 3949SOL    HW113679   6.054   4.933   6.767
 3949SOL    HW213680   6.201   4.961   6.784
 3950SOL     OW13681   2.845  14.757  11.063
 3950SOL    HW113682   2.938  14.741  11.046
 3950SOL    HW213683   2.839  14.770  11.157
 3951SOL     OW13684  12.210   0.459   1.275
 3951SOL    HW113685  12.128   0.414   1.255
 3951SOL    HW213686  12.222   0.520   1.203
 3952SOL     OW13687  11.798   6.588  14.278
 3952SOL    HW113688  11.819   6.600  14.185
 3952SOL    HW213689  11.704   6.568  14.278
 3953SOL     OW13690   3.455   4.295   1.141
 3953SOL    HW113691   3.476   4.252   1.223
 3953SOL    HW213692   3.535   4.344   1.119
 3954SOL     OW13693   0.562   0.271   4.534
 3954SOL    HW113694   0.489   0.309   4.485
 3954SOL    HW213695   0.539   0.179   4.544
 3955SOL     OW13696   0.133   8.237   9.259
 3955SOL    HW113697   0.228   8.226   9.256
 3955SOL    HW213698   0.099   8.171   9.199
 3956SOL     OW13699   3.309  10.472  12.013
 3956SOL    HW113700   3.395  10.447  12.046
 3956SOL    HW213701   3.308  10.443  11.922
 3957SOL     OW13702   5.061   9.714   7.619
 3957SOL    HW113703   5.134   9.668   7.661
 3957SOL    HW213704   5.083   9.714   7.526
 3958SOL     OW13705   1.822   4.193   3.013
 3958SOL    HW113706   1.818   4.136   2.937
 3958SOL    HW213707   1.904   4.169   3.057
 3959SOL     OW13708  11.591   2.839  11.244
 3959SOL    HW113709  11.622   2.902  11.309
 3959SOL    HW213710  11.655   2.843  11.173
 3960SOL     OW13711   8.642  12.432   0.872
 3960SOL    HW113712   8.584  12.470   0.807
 3960SOL    HW213713   8.672  12.350   0.833
 3961SOL     OW13714   8.845   2.401   3.335
 3961SOL    HW113715   8.916   2.424   3.275
 3961SOL    HW213716   8.779   2.469   3.322
 3962SOL     OW13717   6.487  13.574   0.098
 3962SOL    HW113718   6.484  13.566   0.193
 3962SOL    HW213719   6.427  13.645   0.077
 3963SOL     OW13720  13.727   5.248   6.218
 3963SOL    HW113721  13.820   5.269   6.226
 3963SOL    HW213722  13.704   5.275   6.129
 3964SOL     OW13723   3.352  11.393  12.229
 3964SOL    HW113724   3.446  11.398  12.213
 3964SOL    HW213725   3.334  11.301  12.246
 3965SOL     OW13726   8.932  12.392  13.861
 3965SOL    HW113727   8.847  12.352  13.880
 3965SOL    HW213728   8.911  12.468  13.806
 3966SOL     OW13729   8.647   2.045   2.778
 3966SOL    HW113730   8.681   1.956   2.773
 3966SOL    HW213731   8.592   2.045   2.856
 3967SOL     OW13732   8.893   9.138  11.403
 3967SOL    HW113733   8.803   9.150  11.372
 3967SOL    HW213734   8.945   9.139  11.323
 3968SOL     OW13735   4.446   7.316  14.104
 3968SOL    HW113736   4.421   7.348  14.191
 3968SOL    HW213737   4.378   7.349  14.046
 3969SOL     OW13738  10.892   9.502   9.691
 3969SOL    HW113739  10.927   9.441   9.756
 3969SOL    HW213740  10.811   9.461   9.660
 3970SOL     OW13741   1.797   8.620   0.138
 3970SOL    HW113742   1.765   8.631   0.227
 3970SOL    HW213743   1.889   8.646   0.141
 3971SOL     OW13744   6.629   5.737  12.909
 3971SOL    HW113745   6.710   5.707  12.869
 3971SOL    HW213746   6.638   5.713  13.001
 3972SOL     OW13747  11.790   2.802  13.067
 3972SOL    HW113748  11.792   2.846  12.982
 3972SOL    HW213749  11.720   2.737  13.059
 3973SOL     OW13750   2.956   2.314   1.196
 3973SOL    HW113751   3.001   2.238   1.231
 3973SOL    HW213752   2.863   2.298   1.215
 3974SOL     OW13753   9.955  10.104   5.489
 3974SOL    HW113754   9.988  10.078   5.575
 3974SOL    HW213755   9.877  10.156   5.509
 3975SOL     OW13756  12.355   9.795   5.560
 3975SOL    HW113757  12.328   9.864   5.621
 3975SOL    HW213758  12.373   9.719   5.616
 3976SOL     OW13759   3.504   9.954  11.612
 3976SOL    HW113760   3.475   9.986  11.698
 3976SOL    HW213761   3.582  10.006  11.593
 3977SOL     OW13762   6.805   1.583  10.926
 3977SOL    HW113763   6.728   1.531  10.905
 3977SOL    HW213764   6.790   1.612  11.016
 3978SOL     OW13765   1.488   7.331   3.086
 3978SOL    HW113766   1.543   7.309   3.162
 3978SOL    HW213767   1.545   7.386   3.032
 3979SOL     OW13768   4.226   6.307  10.344
 3979SOL    HW113769   4.225   6.254  10.423
 3979SOL    HW213770   4.136   6.302  10.311
 3980SOL     OW13771   3.780  14.145  14.135
 3980SOL    HW113772   3.826  14.140  14.219
 3980SOL    HW213773   3.710  14.208  14.149
 3981SOL     OW13774  12.472   3.387   7.163
 3981SOL    HW113775  12.499   3.343   7.082
 3981SOL    HW213776  12.515   3.472   7.159
 3982SOL     OW13777  10.715   7.493  10.953
 3982SOL    HW113778  10.755   7.442  11.023
 3982SOL    HW213779  10.700   7.429  10.883
 3983SOL     OW13780   1.628   9.727  13.017
 3983SOL    HW113781   1.650   9.796  13.079
 3983SOL    HW213782   1.556   9.763  12.966
 3984SOL     OW13783  11.081  12.394   8.515
 3984SOL    HW113784  11.033  12.337   8.575
 3984SOL    HW213785  11.173  12.388   8.544
 3985SOL     OW13786   4.063  12.516   5.265
 3985SOL    HW113787   4.118  12.584   5.225
 3985SOL    HW213788   4.086  12.436   5.217
 3986SOL     OW13789   8.716   2.347  14.388
 3986SOL    HW113790   8.684   2.396  14.313
 3986SOL    HW213791   8.812   2.352  14.381
 3987SOL     OW13792  13.381   0.702   8.901
 3987SOL    HW113793  13.362   0.750   8.981
 3987SOL    HW213794  13.430   0.625   8.931
 3988SOL     OW13795  13.397   7.648   2.461
 3988SOL    HW113796  13.391   7.612   2.372
 3988SOL    HW213797  13.431   7.737   2.449
 3989SOL     OW13798   2.018  11.102   6.343
 3989SOL    HW113799   2.044  11.023   6.391
 3989SOL    HW213800   2.088  11.115   6.278
 3990SOL     OW13801  14.529   9.888  14.195
 3990SOL    HW113802  14.471   9.914  14.266
 3990SOL    HW213803  14.470   9.868  14.122
 3991SOL     OW13804  10.094  13.603   2.505
 3991SOL    HW113805  10.174  13.651   2.487
 3991SOL    HW213806  10.108  13.564   2.592
 3992SOL     OW13807   5.021   4.698   1.049
 3992SOL    HW113808   5.029   4.793   1.042
 3992SOL    HW213809   5.028   4.667   0.958
 3993SOL     OW13810   5.430   9.235  11.313
 3993SOL    HW113811   5.371   9.165  11.341
 3993SOL    HW213812   5.469   9.267  11.395
 3994SOL     OW13813   9.789   9.720   5.536
 3994SOL    HW113814   9.818   9.630   5.524
 3994SOL    HW213815   9.779   9.755   5.448
 3995SOL     OW13816   5.785   2.454   0.463
 3995SOL    HW113817   5.768   2.534   0.413
 3995SOL    HW213818   5.880   2.447   0.466
 3996SOL     OW13819   7.940   2.477  11.642
 3996SOL    HW113820   7.915   2.503  11.554
 3996SOL    HW213821   7.858   2.467  11.689
 3997SOL     OW13822  10.760  11.833   1.325
 3997SOL    HW113823  10.676  11.787   1.331
 3997SOL    HW213824  10.815  11.775   1.273
 3998SOL     OW13825   2.496  10.903   1.918
 3998SOL    HW113826   2.444  10.862   1.849
 3998SOL    HW213827   2.459  10.991   1.927
 3999SOL     OW13828  11.666   9.968   2.509
 3999SOL    HW113829  11.610  10.033   2.551
 3999SOL    HW213830  11.647   9.976   2.416
 4000SOL     OW13831  14.323  14.300   9.564
 4000SOL    HW113832  14.353  14.387   9.593
 4000SOL    HW213833  14.386  14.275   9.496
 4001SOL     OW13834   9.033   1.910  13.563
 4001SOL    HW113835   9.023   2.005  13.576
 4001SOL    HW213836   9.041   1.900  13.468
 4002SOL     OW13837   6.761  11.919   5.616
 4002SOL    HW113838   6.754  11.893   5.708
 4002SOL    HW213839   6.678  11.890   5.577
 4003SOL     OW13840   2.062   0.697   1.899
 4003SOL    HW113841   1.994   0.690   1.967
 4003SOL    HW213842   2.024   0.757   1.834
 4004SOL     OW13843   1.106   4.887   1.626
 4004SOL    HW113844   1.091   4.977   1.597
 4004SOL    HW213845   1.026   4.863   1.673
 4005SOL     OW13846   2.036   4.446  13.395
 4005SOL    HW113847   2.015   4.457  13.302
 4005SOL    HW213848   2.101   4.376  13.397
 4006SOL     OW13849   5.907   1.635  14.677
 4006SOL    HW113850   5.955   1.602  14.601
 4006SOL    HW213851   5.866   1.715  14.646
 4007SOL     OW13852   0.408   9.025   7.139
 4007SOL    HW113853   0.357   9.097   7.102
 4007SOL    HW213854   0.492   9.029   7.094
 4008SOL     OW13855   8.204   1.873   4.973
 4008SOL    HW113856   8.186   1.965   4.991
 4008SOL    HW213857   8.250   1.842   5.051
 4009SOL     OW13858  11.025   4.513   5.307
 4009SOL    HW113859  10.996   4.577   5.242
 4009SOL    HW213860  11.036   4.563   5.388
 4010SOL     OW13861  10.952  10.258   5.827
 4010SOL    HW113862  11.028  10.312   5.808
 4010SOL    HW213863  10.896  10.267   5.750
 4011SOL     OW13864   1.089   9.887  11.531
 4011SOL    HW113865   1.103   9.798  11.496
 4011SOL    HW213866   1.166   9.936  11.502
 4012SOL     OW13867   4.620  13.031   6.836
 4012SOL    HW113868   4.594  13.109   6.886
 4012SOL    HW213869   4.702  13.056   6.794
 4013SOL     OW13870   4.874   7.163  13.817
 4013SOL    HW113871   4.803   7.206  13.866
 4013SOL    HW213872   4.838   7.078  13.794
 4014SOL     OW13873   2.045   9.419   1.498
 4014SOL    HW113874   2.009   9.507   1.504
 4014SOL    HW213875   2.084   9.414   1.411
 4015SOL     OW13876   5.806  12.308  10.186
 4015SOL    HW113877   5.767  12.224  10.210
 4015SOL    HW213878   5.734  12.371  10.193
 4016SOL     OW13879   4.063  11.394   7.349
 4016SOL    HW113880   4.022  11.371   7.266
 4016SOL    HW213881   4.070  11.311   7.396
 4017SOL     OW13882   8.845  10.176   7.838
 4017SOL    HW113883   8.919  10.117   7.836
 4017SOL    HW213884   8.783  10.136   7.899
 4018SOL     OW13885   7.663   6.739   6.348
 4018SOL    HW113886   7.601   6.690   6.402
 4018SOL    HW213887   7.668   6.825   6.389
 4019SOL     OW13888   0.608   7.095   8.893
 4019SOL    HW113889   0.659   7.040   8.953
 4019SOL    HW213890   0.518   7.083   8.921
 4020SOL     OW13891   1.312   2.712  10.763
 4020SOL    HW113892   1.287   2.654  10.691
 4020SOL    HW213893   1.242   2.702  10.827
 4021SOL     OW13894  12.926  12.693   9.686
 4021SOL    HW113895  13.010  12.737   9.681
 4021SOL    HW213896  12.935  12.633   9.761
 4022SOL     OW13897   0.906  14.069  13.639
 4022SOL    HW113898   0.896  14.118  13.557
 4022SOL    HW213899   0.947  13.987  13.613
 4023SOL     OW13900   2.981  14.308   9.576
 4023SOL    HW113901   2.925  14.232   9.591
 4023SOL    HW213902   3.044  14.305   9.648
 4024SOL     OW13903   4.449   9.677  14.040
 4024SOL    HW113904   4.468   9.645  13.952
 4024SOL    HW213905   4.505   9.754  14.049
 4025SOL     OW13906   0.156  13.400   0.481
 4025SOL    HW113907   0.130  13.489   0.460
 4025SOL    HW213908   0.252  13.401   0.475
 4026SOL     OW13909   1.519  12.550  10.547
 4026SOL    HW113910   1.477  12.525  10.630
 4026SOL    HW213911   1.604  12.506  10.548
 4027SOL     OW13912  10.419   3.844   6.559
 4027SOL    HW113913  10.480   3.803   6.498
 4027SOL    HW213914  10.474   3.896   6.617
 4028SOL     OW13915  11.807   5.142   3.252
 4028SOL    HW113916  11.787   5.148   3.346
 4028SOL    HW213917  11.896   5.105   3.249
 4029SOL     OW13918   4.232  11.886  11.864
 4029SOL    HW113919   4.189  11.849  11.787
 4029SOL    HW213920   4.170  11.872  11.935
 4030SOL     OW13921   0.016  11.790   1.853
 4030SOL    HW113922   0.102  11.755   1.829
 4030SOL    HW213923   0.035  11.862   1.913
 4031SOL     OW13924  13.693   5.482   0.222
 4031SOL    HW113925  13.744   5.412   0.183
 4031SOL    HW213926  13.626   5.503   0.156
 4032SOL     OW13927   1.532  12.973   6.429
 4032SOL    HW113928   1.486  12.914   6.489
 4032SOL    HW213929   1.470  12.987   6.357
 4033SOL     OW13930   6.633   3.692   7.237
 4033SOL    HW113931   6.553   3.709   7.188
 4033SOL    HW213932   6.610   3.620   7.296
 4034SOL     OW13933   2.337   5.839   6.975
 4034SOL    HW113934   2.401   5.839   7.046
 4034SOL    HW213935   2.327   5.747   6.952
 4035SOL     OW13936   7.156  11.605   9.177
 4035SOL    HW113937   7.110  11.536   9.129
 4035SOL    HW213938   7.153  11.681   9.119
 4036SOL     OW13939   1.970   7.552  14.254
 4036SOL    HW113940   2.014   7.468  14.241
 4036SOL    HW213941   2.039   7.617  14.242
 4037SOL     OW13942   8.524  11.266   5.734
 4037SOL    HW113943   8.578  11.311   5.669
 4037SOL    HW213944   8.481  11.196   5.685
 4038SOL     OW13945  11.766   9.542   5.756
 4038SOL    HW113946  11.847   9.492   5.754
 4038SOL    HW213947  11.743   9.554   5.664
 4039SOL     OW13948   5.976  11.339   2.578
 4039SOL    HW113949   6.045  11.405   2.587
 4039SOL    HW213950   5.932  11.360   2.496
 4040SOL     OW13951  12.995  10.008  11.052
 4040SOL    HW113952  12.961  10.094  11.027
 4040SOL    HW213953  13.012  10.016  11.146
 4041SOL     OW13954   3.354   8.622  10.051
 4041SOL    HW113955   3.319   8.543  10.093
 4041SOL    HW213956   3.443   8.597  10.024
 4042SOL     OW13957   4.738   3.271   0.410
 4042SOL    HW113958   4.671   3.262   0.342
 4042SOL    HW213959   4.773   3.183   0.421
 4043SOL     OW13960   6.732   4.434  10.808
 4043SOL    HW113961   6.815   4.476  10.786
 4043SOL    HW213962   6.676   4.452  10.733
 4044SOL     OW13963   9.784  14.006  13.344
 4044SOL    HW113964   9.702  14.038  13.381
 4044SOL    HW213965   9.760  13.927  13.295
 4045SOL     OW13966   0.456  11.147  13.336
 4045SOL    HW113967   0.549  11.167  13.325
 4045SOL    HW213968   0.442  11.153  13.431
 4046SOL     OW13969   2.022  13.360   1.023
 4046SOL    HW113970   1.998  13.373   1.115
 4046SOL    HW213971   1.964  13.291   0.992
 4047SOL     OW13972   6.447  13.393   2.246
 4047SOL    HW113973   6.451  13.435   2.333
 4047SOL    HW213974   6.473  13.303   2.262
 4048SOL     OW13975  14.732   1.945   7.423
 4048SOL    HW113976  14.717   1.853   7.445
 4048SOL    HW213977  14.660   1.967   7.364
 4049SOL     OW13978  13.474   7.101  10.640
 4049SOL    HW113979  13.386   7.137  10.655
 4049SOL    HW213980  13.459   7.012  10.609
 4050SOL     OW13981   3.759   9.794   2.297
 4050SOL    HW113982   3.816   9.836   2.362
 4050SOL    HW213983   3.819   9.763   2.229
 4051SOL     OW13984   0.121   8.101   6.362
 4051SOL    HW113985   0.183   8.047   6.313
 4051SOL    HW213986   0.042   8.101   6.307
 4052SOL     OW13987   5.883  14.055   7.478
 4052SOL    HW113988   5.872  14.115   7.404
 4052SOL    HW213989   5.828  13.980   7.456
 4053SOL     OW13990   3.637  11.699   4.260
 4053SOL    HW113991   3.717  11.739   4.295
 4053SOL    HW213992   3.617  11.628   4.321
 4054SOL     OW13993   3.488   2.966  12.523
 4054SOL    HW113994   3.541   2.972  12.444
 4054SOL    HW213995   3.427   3.041  12.518
 4055SOL     OW13996   9.177   9.273  13.820
 4055SOL    HW113997   9.248   9.211  13.838
 4055SOL    HW213998   9.107   9.219  13.782
 4056SOL     OW13999  14.195   0.299   9.615
 4056SOL    HW114000  14.274   0.344   9.643
 4056SOL    HW214001  14.204   0.290   9.520
 4057SOL     OW14002   3.635  11.803   1.596
 4057SOL    HW114003   3.581  11.772   1.523
 4057SOL    HW214004   3.573  11.839   1.659
 4058SOL     OW14005   5.547   1.199   6.188
 4058SOL    HW114006   5.636   1.225   6.213
 4058SOL    HW214007   5.542   1.216   6.094
 4059SOL     OW14008   8.855   5.667   5.665
 4059SOL    HW114009   8.896   5.654   5.750
 4059SOL    HW214010   8.808   5.750   5.673
 4060SOL     OW14011  10.017  12.891   3.078
 4060SOL    HW114012   9.944  12.898   3.140
 4060SOL    HW214013  10.094  12.911   3.131
 4061SOL     OW14014   7.755  14.589   9.603
 4061SOL    HW114015   7.692  14.625   9.666
 4061SOL    HW214016   7.706  14.523   9.555
 4062SOL     OW14017   0.956   5.791   0.567
 4062SOL    HW114018   0.995   5.708   0.595
 4062SOL    HW214019   0.990   5.855   0.629
 4063SOL     OW14020  12.725  10.277   0.587
 4063SOL    HW114021  12.667  10.238   0.652
 4063SOL    HW214022  12.724  10.371   0.608
 4064SOL     OW14023   1.050  11.491   7.989
 4064SOL    HW114024   0.995  11.444   8.052
 4064SOL    HW214025   1.066  11.428   7.919
 4065SOL     OW14026   3.766   4.128   2.364
 4065SOL    HW114027   3.702   4.057   2.367
 4065SOL    HW214028   3.730   4.192   2.304
 4066SOL     OW14029   3.866   7.114   5.907
 4066SOL    HW114030   3.884   7.207   5.897
 4066SOL    HW214031   3.865   7.080   5.818
 4067SOL     OW14032   9.170  10.623   7.366
 4067SOL    HW114033   9.107  10.551   7.373
 4067SOL    HW214034   9.255  10.582   7.383
 4068SOL     OW14035  14.632   2.602   6.978
 4068SOL    HW114036  14.670   2.514   6.966
 4068SOL    HW214037  14.616   2.608   7.072
 4069SOL     OW14038   9.949   3.305   5.815
 4069SOL    HW114039   9.942   3.399   5.798
 4069SOL    HW214040   9.893   3.265   5.749
 4070SOL     OW14041   9.830   1.649  11.103
 4070SOL    HW114042   9.879   1.727  11.131
 4070SOL    HW214043   9.827   1.656  11.008
 4071SOL     OW14044   6.652   1.674  11.414
 4071SOL    HW114045   6.626   1.763  11.391
 4071SOL    HW214046   6.584   1.644  11.475
 4072SOL     OW14047   4.561   4.892   9.544
 4072SOL    HW114048   4.634   4.950   9.524
 4072SOL    HW214049   4.572   4.818   9.484
 4073SOL     OW14050  10.429   1.437  11.071
 4073SOL    HW114051  10.344   1.467  11.039
 4073SOL    HW214052  10.412   1.406  11.160
 4074SOL     OW14053   8.622   8.835  13.727
 4074SOL    HW114054   8.584   8.913  13.688
 4074SOL    HW214055   8.583   8.830  13.815
 4075SOL     OW14056  10.099  10.649  11.148
 4075SOL    HW114057  10.121  10.583  11.214
 4075SOL    HW214058  10.059  10.720  11.198
 4076SOL     OW14059  10.849   0.022  10.360
 4076SOL    HW114060  10.908  14.836  10.313
 4076SOL    HW214061  10.894   0.039  10.443
 4077SOL     OW14062   9.104  10.671   2.077
 4077SOL    HW114063   9.199  10.666   2.068
 4077SOL    HW214064   9.082  10.757   2.042
 4078SOL     OW14065   6.178   5.214  12.661
 4078SOL    HW114066   6.140   5.141  12.709
 4078SOL    HW214067   6.250   5.244  12.716
 4079SOL     OW14068  14.200   2.351   1.753
 4079SOL    HW114069  14.290   2.339   1.722
 4079SOL    HW214070  14.209   2.381   1.843
 4080SOL     OW14071   2.914   9.873  11.971
 4080SOL    HW114072   2.921   9.961  12.006
 4080SOL    HW214073   2.843   9.832  12.021
 4081SOL     OW14074   6.000   7.164  12.791
 4081SOL    HW114075   6.077   7.113  12.768
 4081SOL    HW214076   6.015   7.191  12.882
 4082SOL     OW14077   2.469  13.499  12.792
 4082SOL    HW114078   2.436  13.480  12.704
 4082SOL    HW214079   2.493  13.591  12.789
 4083SOL     OW14080  13.343   5.898   9.143
 4083SOL    HW114081  13.297   5.884   9.226
 4083SOL    HW214082  13.304   5.978   9.107
 4084SOL     OW14083   2.913   2.397  14.528
 4084SOL    HW114084   2.819   2.379  14.520
 4084SOL    HW214085   2.918   2.479  14.578
 4085SOL     OW14086   9.477   3.032   6.296
 4085SOL    HW114087   9.389   3.032   6.258
 4085SOL    HW214088   9.504   2.941   6.294
 4086SOL     OW14089   2.601   8.730  12.016
 4086SOL    HW114090   2.649   8.796  11.964
 4086SOL    HW214091   2.526   8.706  11.962
 4087SOL     OW14092   5.685   3.136   6.810
 4087SOL    HW114093   5.642   3.053   6.828
 4087SOL    HW214094   5.768   3.130   6.857
 4088SOL     OW14095   6.784   4.777  14.647
 4088SOL    HW114096   6.759   4.822  14.728
 4088SOL    HW214097   6.749   4.832  14.577
 4089SOL     OW14098  11.953  12.719   2.929
 4089SOL    HW114099  11.868  12.698   2.967
 4089SOL    HW214100  12.016  12.693   2.996
 4090SOL     OW14101   6.783  12.538   7.907
 4090SOL    HW114102   6.760  12.498   7.824
 4090SOL    HW214103   6.775  12.468   7.972
 4091SOL     OW14104   9.693   8.238   3.291
 4091SOL    HW114105   9.779   8.267   3.262
 4091SOL    HW214106   9.707   8.149   3.324
 4092SOL     OW14107  13.542   2.067  11.433
 4092SOL    HW114108  13.625   2.114  11.428
 4092SOL    HW214109  13.479   2.126  11.391
 4093SOL     OW14110   4.568  10.333   6.196
 4093SOL    HW114111   4.502  10.355   6.130
 4093SOL    HW214112   4.529  10.360   6.279
 4094SOL     OW14113   4.180   3.352   6.661
 4094SOL    HW114114   4.250   3.322   6.718
 4094SOL    HW214115   4.218   3.351   6.573
 4095SOL     OW14116  12.841   8.208  10.739
 4095SOL    HW114117  12.893   8.250  10.671
 4095SOL    HW214118  12.875   8.246  10.821
 4096SOL     OW14119   1.012   0.704  10.397
 4096SOL    HW114120   1.062   0.707  10.315
 4096SOL    HW214121   0.928   0.746  10.374
 4097SOL     OW14122   2.517   9.065  10.483
 4097SOL    HW114123   2.558   9.147  10.455
 4097SOL    HW214124   2.435   9.092  10.524
 4098SOL     OW14125  13.026  14.590   1.793
 4098SOL    HW114126  12.964  14.648   1.837
 4098SOL    HW214127  13.009  14.604   1.699
 4099SOL     OW14128   9.153   6.431   9.887
 4099SOL    HW114129   9.187   6.454   9.974
 4099SOL    HW214130   9.229   6.438   9.830
 4100SOL     OW14131   4.271   8.563   6.717
 4100SOL    HW114132   4.204   8.499   6.694
 4100SOL    HW214133   4.311   8.586   6.633
 4101SOL     OW14134   6.848   4.265   8.932
 4101SOL    HW114135   6.840   4.318   8.853
 4101SOL    HW214136   6.942   4.260   8.949
 4102SOL     OW14137   2.239   8.099  13.743
 4102SOL    HW114138   2.311   8.131  13.797
 4102SOL    HW214139   2.218   8.012  13.778
 4103SOL     OW14140   7.869   2.194   2.467
 4103SOL    HW114141   7.873   2.100   2.451
 4103SOL    HW214142   7.810   2.203   2.542
 4104SOL     OW14143   9.958   1.796   0.476
 4104SOL    HW114144   9.890   1.729   0.471
 4104SOL    HW214145   9.954   1.840   0.391
 4105SOL     OW14146   1.647   4.136  14.164
 4105SOL    HW114147   1.581   4.149  14.096
 4105SOL    HW214148   1.628   4.203  14.230
 4106SOL     OW14149   2.720   0.944   5.656
 4106SOL    HW114150   2.637   0.937   5.608
 4106SOL    HW214151   2.755   0.855   5.655
 4107SOL     OW14152  13.730   8.677  13.588
 4107SOL    HW114153  13.771   8.622  13.654
 4107SOL    HW214154  13.674   8.737  13.638
 4108SOL     OW14155   2.011   8.713   2.790
 4108SOL    HW114156   2.090   8.676   2.829
 4108SOL    HW214157   1.959   8.637   2.763
 4109SOL     OW14158   2.440  11.648  10.064
 4109SOL    HW114159   2.502  11.709  10.104
 4109SOL    HW214160   2.437  11.574  10.125
 4110SOL     OW14161  10.558   4.317   0.708
 4110SOL    HW114162  10.535   4.232   0.746
 4110SOL    HW214163  10.509   4.381   0.761
 4111SOL     OW14164   4.097  11.461  13.282
 4111SOL    HW114165   4.018  11.495  13.323
 4111SOL    HW214166   4.070  11.378  13.243
 4112SOL     OW14167   4.050   3.342   1.447
 4112SOL    HW114168   4.022   3.414   1.504
 4112SOL    HW214169   4.004   3.357   1.364
 4113SOL     OW14170   7.818   5.018  10.966
 4113SOL    HW114171   7.842   5.101  10.926
 4113SOL    HW214172   7.784   5.042  11.052
 4114SOL     OW14173   4.637   4.999   3.087
 4114SOL    HW114174   4.639   4.981   3.181
 4114SOL    HW214175   4.693   5.076   3.077
 4115SOL     OW14176   1.823   4.089   6.794
 4115SOL    HW114177   1.772   4.125   6.867
 4115SOL    HW214178   1.765   4.023   6.755
 4116SOL     OW14179   9.665   6.825  13.394
 4116SOL    HW114180   9.620   6.909  13.393
 4116SOL    HW214181   9.757   6.846  13.379
 4117SOL     OW14182  14.184   2.011   8.087
 4117SOL    HW114183  14.163   1.918   8.077
 4117SOL    HW214184  14.100   2.055   8.077
 4118SOL     OW14185   1.293   9.268  13.711
 4118SOL    HW114186   1.213   9.251  13.662
 4118SOL    HW214187   1.268   9.336  13.774
 4119SOL     OW14188   6.816   0.821   6.761
 4119SOL    HW114189   6.832   0.821   6.856
 4119SOL    HW214190   6.804   0.729   6.739
 4120SOL     OW14191  10.857  14.071  11.426
 4120SOL    HW114192  10.876  14.106  11.339
 4120SOL    HW214193  10.839  14.147  11.480
 4121SOL     OW14194  11.804  13.945   3.674
 4121SOL    HW114195  11.866  13.965   3.744
 4121SOL    HW214196  11.762  14.029   3.655
 4122SOL     OW14197  14.710   4.498  11.061
 4122SOL    HW114198  14.628   4.494  11.011
 4122SOL    HW214199  14.727   4.591  11.073
 4123SOL     OW14200   3.133  10.215  12.817
 4123SOL    HW114201   3.133  10.201  12.912
 4123SOL    HW214202   3.052  10.174  12.786
 4124SOL     OW14203   0.546  14.024   2.143
 4124SOL    HW114204   0.639  14.014   2.162
 4124SOL    HW214205   0.502  13.998   2.224
 4125SOL     OW14206   2.901  10.569  13.839
 4125SOL    HW114207   2.837  10.640  13.837
 4125SOL    HW214208   2.849  10.490  13.826
 4126SOL     OW14209   2.715   8.726   3.306
 4126SOL    HW114210   2.739   8.799   3.364
 4126SOL    HW214211   2.735   8.647   3.357
 4127SOL     OW14212   6.271  13.953   3.309
 4127SOL    HW114213   6.298  13.974   3.398
 4127SOL    HW214214   6.184  13.991   3.300
 4128SOL     OW14215   2.836   2.283   7.723
 4128SOL    HW114216   2.851   2.266   7.816
 4128SOL    HW214217   2.906   2.237   7.679
 4129SOL     OW14218  10.131   6.123   7.273
 4129SOL    HW114219  10.164   6.164   7.352
 4129SOL    HW214220  10.208   6.112   7.217
 4130SOL     OW14221   2.304   9.244  10.900
 4130SOL    HW114222   2.336   9.269  10.986
 4130SOL    HW214223   2.218   9.285  10.894
 4131SOL     OW14224   3.659   9.043   1.383
 4131SOL    HW114225   3.707   9.126   1.390
 4131SOL    HW214226   3.611   9.037   1.466
 4132SOL     OW14227  12.807   9.871  12.616
 4132SOL    HW114228  12.809   9.800  12.552
 4132SOL    HW214229  12.792   9.950  12.563
 4133SOL     OW14230   5.151   4.159  13.586
 4133SOL    HW114231   5.193   4.191  13.665
 4133SOL    HW214232   5.089   4.228  13.561
 4134SOL     OW14233   3.799   9.665   4.031
 4134SOL    HW114234   3.780   9.595   3.968
 4134SOL    HW214235   3.749   9.740   3.998
 4135SOL     OW14236   4.646   1.611   8.918
 4135SOL    HW114237   4.718   1.664   8.952
 4135SOL    HW214238   4.578   1.674   8.895
 4136SOL     OW14239   0.561   7.923   5.576
 4136SOL    HW114240   0.476   7.917   5.620
 4136SOL    HW214241   0.554   8.000   5.519
 4137SOL     OW14242   9.918   2.371   7.576
 4137SOL    HW114243   9.948   2.376   7.486
 4137SOL    HW214244   9.994   2.338   7.625
 4138SOL     OW14245  13.382  13.592  10.790
 4138SOL    HW114246  13.473  13.609  10.812
 4138SOL    HW214247  13.338  13.676  10.801
 4139SOL     OW14248  10.090   4.313   8.039
 4139SOL    HW114249  10.096   4.224   8.074
 4139SOL    HW214250  10.108   4.302   7.945
 4140SOL     OW14251  13.609  10.050  14.383
 4140SOL    HW114252  13.545   9.995  14.338
 4140SOL    HW214253  13.661  10.089  14.313
 4141SOL     OW14254  10.588  14.034   7.488
 4141SOL    HW114255  10.503  13.999   7.513
 4141SOL    HW214256  10.577  14.062   7.397
 4142SOL     OW14257  13.646  14.154  10.522
 4142SOL    HW114258  13.585  14.161  10.596
 4142SOL    HW214259  13.730  14.180  10.559
 4143SOL     OW14260  12.208   8.674  11.741
 4143SOL    HW114261  12.269   8.715  11.802
 4143SOL    HW214262  12.258   8.666  11.659
 4144SOL     OW14263   1.661   5.687   1.641
 4144SOL    HW114264   1.577   5.670   1.683
 4144SOL    HW214265   1.663   5.628   1.565
 4145SOL     OW14266  13.959   4.034   3.451
 4145SOL    HW114267  13.945   3.949   3.494
 4145SOL    HW214268  13.956   4.014   3.358
 4146SOL     OW14269   8.354   0.868   1.521
 4146SOL    HW114270   8.324   0.779   1.500
 4146SOL    HW214271   8.444   0.856   1.550
 4147SOL     OW14272   8.268  12.265   8.357
 4147SOL    HW114273   8.183  12.275   8.314
 4147SOL    HW214274   8.315  12.346   8.336
 4148SOL     OW14275   8.982   5.598   0.966
 4148SOL    HW114276   9.024   5.516   0.942
 4148SOL    HW214277   9.014   5.661   0.901
 4149SOL     OW14278   3.621  10.412   2.193
 4149SOL    HW114279   3.639  10.503   2.217
 4149SOL    HW214280   3.621  10.412   2.097
 4150SOL     OW14281   9.141   4.498  11.170
 4150SOL    HW114282   9.195   4.548  11.109
 4150SOL    HW214283   9.097   4.433  11.116
 4151SOL     OW14284   1.701  10.744   5.604
 4151SOL    HW114285   1.738  10.823   5.645
 4151SOL    HW214286   1.719  10.674   5.666
 4152SOL     OW14287  13.289   8.687  12.774
 4152SOL    HW114288  13.356   8.633  12.815
 4152SOL    HW214289  13.333   8.771  12.757
 4153SOL     OW14290   8.702   7.172  12.361
 4153SOL    HW114291   8.711   7.267  12.369
 4153SOL    HW214292   8.790   7.141  12.340
 4154SOL     OW14293   3.408   9.299   2.398
 4154SOL    HW114294   3.360   9.225   2.436
 4154SOL    HW214295   3.435   9.268   2.312
 4155SOL     OW14296   6.991  12.665  10.293
 4155SOL    HW114297   7.042  12.725  10.348
 4155SOL    HW214298   7.018  12.578  10.321
 4156SOL     OW14299   3.411   1.566   0.196
 4156SOL    HW114300   3.390   1.504   0.266
 4156SOL    HW214301   3.503   1.551   0.177
 4157SOL     OW14302  11.565  11.112   8.047
 4157SOL    HW114303  11.548  11.041   8.109
 4157SOL    HW214304  11.656  11.101   8.021
 4158SOL     OW14305  11.436   6.801   5.764
 4158SOL    HW114306  11.451   6.892   5.790
 4158SOL    HW214307  11.371   6.769   5.827
 4159SOL     OW14308   6.380   3.000   8.715
 4159SOL    HW114309   6.400   2.921   8.766
 4159SOL    HW214310   6.328   3.055   8.774
 4160SOL     OW14311   8.459  14.326  12.025
 4160SOL    HW114312   8.460  14.404  12.080
 4160SOL    HW214313   8.522  14.345  11.956
 4161SOL     OW14314   7.031   2.747   0.660
 4161SOL    HW114315   6.976   2.722   0.585
 4161SOL    HW214316   6.970   2.751   0.733
 4162SOL     OW14317   4.804   9.839  12.245
 4162SOL    HW114318   4.794   9.779  12.318
 4162SOL    HW214319   4.884   9.809  12.201
 4163SOL     OW14320   1.683   2.682   7.560
 4163SOL    HW114321   1.674   2.588   7.572
 4163SOL    HW214322   1.680   2.694   7.465
 4164SOL     OW14323   1.442   5.033   1.563
 4164SOL    HW114324   1.454   5.051   1.470
 4164SOL    HW214325   1.386   5.105   1.594
 4165SOL     OW14326   3.680   4.905  10.868
 4165SOL    HW114327   3.767   4.870  10.885
 4165SOL    HW214328   3.670   4.898  10.773
 4166SOL     OW14329   5.619   4.889   5.980
 4166SOL    HW114330   5.619   4.834   5.902
 4166SOL    HW214331   5.625   4.828   6.053
 4167SOL     OW14332   0.096  11.187  13.003
 4167SOL    HW114333   0.143  11.262  13.039
 4167SOL    HW214334   0.152  11.112  13.024
 4168SOL     OW14335   9.604   7.229  13.078
 4168SOL    HW114336   9.601   7.310  13.028
 4168SOL    HW214337   9.629   7.162  13.013
 4169SOL     OW14338  13.657  11.605  11.478
 4169SOL    HW114339  13.674  11.620  11.571
 4169SOL    HW214340  13.700  11.678  11.434
 4170SOL     OW14341   9.607   9.286   5.007
 4170SOL    HW114342   9.615   9.247   5.094
 4170SOL    HW214343   9.667   9.360   5.008
 4171SOL     OW14344  13.048   9.141   1.936
 4171SOL    HW114345  13.033   9.096   1.853
 4171SOL    HW214346  12.971   9.198   1.947
 4172SOL     OW14347   4.568   6.673   5.281
 4172SOL    HW114348   4.609   6.617   5.215
 4172SOL    HW214349   4.558   6.758   5.238
 4173SOL     OW14350   9.991  12.044   6.022
 4173SOL    HW114351  10.030  12.124   6.059
 4173SOL    HW214352   9.925  12.076   5.961
 4174SOL     OW14353  10.703   1.387   4.681
 4174SOL    HW114354  10.768   1.358   4.618
 4174SOL    HW214355  10.659   1.306   4.709
 4175SOL     OW14356  13.363   3.710   2.784
 4175SOL    HW114357  13.384   3.681   2.695
 4175SOL    HW214358  13.304   3.642   2.818
 4176SOL     OW14359   3.874  10.421   2.558
 4176SOL    HW114360   3.799  10.463   2.517
 4176SOL    HW214361   3.938  10.413   2.488
 4177SOL     OW14362   7.775   6.313  11.055
 4177SOL    HW114363   7.771   6.219  11.037
 4177SOL    HW214364   7.860   6.326  11.096
 4178SOL     OW14365   6.797  11.910   5.976
 4178SOL    HW114366   6.757  11.962   6.046
 4178SOL    HW214367   6.725  11.891   5.916
 4179SOL     OW14368  14.780   7.527   0.744
 4179SOL    HW114369  14.711   7.463   0.731
 4179SOL    HW214370  14.806   7.554   0.656
 4180SOL     OW14371  10.475  11.177  11.450
 4180SOL    HW114372  10.568  11.175  11.429
 4180SOL    HW214373  10.462  11.104  11.510
 4181SOL     OW14374   5.199   1.520   1.790
 4181SOL    HW114375   5.190   1.462   1.866
 4181SOL    HW214376   5.110   1.552   1.775
 4182SOL     OW14377   7.537   4.890  12.871
 4182SOL    HW114378   7.489   4.942  12.936
 4182SOL    HW214379   7.569   4.953  12.807
 4183SOL     OW14380   4.596   6.813  10.403
 4183SOL    HW114381   4.551   6.888  10.364
 4183SOL    HW214382   4.531   6.771  10.459
 4184SOL     OW14383   3.506  10.474   2.682
 4184SOL    HW114384   3.503  10.462   2.587
 4184SOL    HW214385   3.418  10.450   2.712
 4185SOL     OW14386   7.079   0.639  12.086
 4185SOL    HW114387   7.141   0.676  12.149
 4185SOL    HW214388   6.993   0.663  12.121
 4186SOL     OW14389   2.672   0.645   7.370
 4186SOL    HW114390   2.648   0.649   7.463
 4186SOL    HW214391   2.744   0.582   7.367
 4187SOL     OW14392   8.402   5.057  11.300
 4187SOL    HW114393   8.398   4.968  11.336
 4187SOL    HW214394   8.312   5.089  11.306
 4188SOL     OW14395   7.778   5.366  11.364
 4188SOL    HW114396   7.770   5.429  11.293
 4188SOL    HW214397   7.857   5.316  11.343
 4189SOL     OW14398   8.927   4.519  11.422
 4189SOL    HW114399   9.021   4.500  11.432
 4189SOL    HW214400   8.895   4.528  11.511
 4190SOL     OW14401  12.002   9.215   2.343
 4190SOL    HW114402  12.054   9.252   2.271
 4190SOL    HW214403  12.018   9.121   2.337
 4191SOL     OW14404   4.105   1.198  14.552
 4191SOL    HW114405   4.026   1.171  14.504
 4191SOL    HW214406   4.148   1.116  14.576
 4192SOL     OW14407   4.596   5.270  12.746
 4192SOL    HW114408   4.595   5.207  12.674
 4192SOL    HW214409   4.505   5.300  12.753
 4193SOL     OW14410   9.483   5.383  14.493
 4193SOL    HW114411   9.539   5.429  14.430
 4193SOL    HW214412   9.544   5.349  14.558
 4194SOL     OW14413  13.306   2.150   1.634
 4194SOL    HW114414  13.239   2.082   1.625
 4194SOL    HW214415  13.285   2.214   1.566
 4195SOL     OW14416  12.296   7.558  11.638
 4195SOL    HW114417  12.328   7.647  11.650
 4195SOL    HW214418  12.243   7.541  11.716
 4196SOL     OW14419   2.462  10.909   4.861
 4196SOL    HW114420   2.452  10.878   4.771
 4196SOL    HW214421   2.468  11.004   4.854
 4197SOL     OW14422  12.031   9.826   9.742
 4197SOL    HW114423  11.966   9.784   9.685
 4197SOL    HW214424  12.038   9.768   9.818
 4198SOL     OW14425   2.476   8.950   6.389
 4198SOL    HW114426   2.493   8.933   6.297
 4198SOL    HW214427   2.413   9.022   6.389
 4199SOL     OW14428   3.262   0.015  11.800
 4199SOL    HW114429   3.241  14.816  11.739
 4199SOL    HW214430   3.331  14.850  11.856
 4200SOL     OW14431  14.278   6.841   8.345
 4200SOL    HW114432  14.344   6.784   8.384
 4200SOL    HW214433  14.195   6.797   8.362
 4201SOL     OW14434  12.777  13.932  11.028
 4201SOL    HW114435  12.781  13.865  10.959
 4201SOL    HW214436  12.867  13.962  11.037
 4202SOL     OW14437   3.105   4.033  14.215
 4202SOL    HW114438   3.110   4.013  14.121
 4202SOL    HW214439   3.195   4.025  14.246
 4203SOL     OW14440   6.284  12.042   3.726
 4203SOL    HW114441   6.348  12.042   3.797
 4203SOL    HW214442   6.279  11.951   3.698
 4204SOL     OW14443   1.495   1.604   4.762
 4204SOL    HW114444   1.585   1.575   4.746
 4204SOL    HW214445   1.458   1.616   4.674
 4205SOL     OW14446  10.931   8.268  11.512
 4205SOL    HW114447  10.997   8.199  11.508
 4205SOL    HW214448  10.930   8.305  11.424
 4206SOL     OW14449  10.447  11.300   3.291
 4206SOL    HW114450  10.505  11.350   3.349
 4206SOL    HW214451  10.468  11.208   3.309
 4207SOL     OW14452   0.267   0.191   0.195
 4207SOL    HW114453   0.236   0.104   0.222
 4207SOL    HW214454   0.204   0.252   0.232
 4208SOL     OW14455  10.466  12.590  14.512
 4208SOL    HW114456  10.398  12.615  14.574
 4208SOL    HW214457  10.457  12.652  14.440
 4209SOL     OW14458   4.184   3.139   6.963
 4209SOL    HW114459   4.249   3.192   6.915
 4209SOL    HW214460   4.236   3.090   7.027
 4210SOL     OW14461   9.745   6.624  11.753
 4210SOL    HW114462   9.681   6.693  11.773
 4210SOL    HW214463   9.728   6.556  11.818
 4211SOL     OW14464   2.710  12.959  10.444
 4211SOL    HW114465   2.661  13.029  10.487
 4211SOL    HW214466   2.787  12.946  10.500
 4212SOL     OW14467   4.065   5.804  10.581
 4212SOL    HW114468   4.023   5.884  10.551
 4212SOL    HW214469   4.026   5.787  10.667
 4213SOL     OW14470   5.506   9.017   9.549
 4213SOL    HW114471   5.420   9.059   9.555
 4213SOL    HW214472   5.492   8.942   9.492
 4214SOL     OW14473   7.689  14.627  14.644
 4214SOL    HW114474   7.670  14.557  14.582
 4214SOL    HW214475   7.701  14.705  14.589
 4215SOL     OW14476  10.502  11.850  11.197
 4215SOL    HW114477  10.511  11.877  11.106
 4215SOL    HW214478  10.456  11.767  11.194
 4216SOL     OW14479  11.309   8.490   9.486
 4216SOL    HW114480  11.295   8.584   9.497
 4216SOL    HW214481  11.368   8.466   9.557
 4217SOL     OW14482   2.254   5.012  14.753
 4217SOL    HW114483   2.296   4.926  14.748
 4217SOL    HW214484   2.281   5.046  14.839
 4218SOL     OW14485  14.487  10.131   7.521
 4218SOL    HW114486  14.570  10.143   7.566
 4218SOL    HW214487  14.440  10.068   7.574
 4219SOL     OW14488   8.957   4.470  12.781
 4219SOL    HW114489   8.984   4.389  12.825
 4219SOL    HW214490   8.998   4.540  12.832
 4220SOL     OW14491  11.567   2.441  12.372
 4220SOL    HW114492  11.478   2.406  12.377
 4220SOL    HW214493  11.583   2.477  12.460
 4221SOL     OW14494   1.721  10.688  11.493
 4221SOL    HW114495   1.632  10.659  11.514
 4221SOL    HW214496   1.777  10.622  11.534
 4222SOL     OW14497   5.135  14.086   2.286
 4222SOL    HW114498   5.158  14.176   2.265
 4222SOL    HW214499   5.208  14.055   2.340
 4223SOL     OW14500   5.132   4.713  10.561
 4223SOL    HW114501   5.203   4.777  10.557
 4223SOL    HW214502   5.056   4.762  10.592
 4224SOL     OW14503   1.073   7.413   7.991
 4224SOL    HW114504   1.002   7.374   8.042
 4224SOL    HW214505   1.116   7.340   7.948
 4225SOL     OW14506   2.932   5.659  11.556
 4225SOL    HW114507   3.008   5.668  11.497
 4225SOL    HW214508   2.861   5.631  11.499
 4226SOL     OW14509  13.183  14.549   2.777
 4226SOL    HW114510  13.215  14.490   2.709
 4226SOL    HW214511  13.109  14.594   2.737
 4227SOL     OW14512  12.814   0.811   0.018
 4227SOL    HW114513  12.828   0.783  14.800
 4227SOL    HW214514  12.781   0.901   0.010
 4228SOL     OW14515  12.227   4.884  10.928
 4228SOL    HW114516  12.215   4.977  10.948
 4228SOL    HW214517  12.272   4.848  11.005
 4229SOL     OW14518  12.493   8.173   2.779
 4229SOL    HW114519  12.457   8.259   2.759
 4229SOL    HW214520  12.481   8.163   2.873
 4230SOL     OW14521   0.163   2.142   8.171
 4230SOL    HW114522   0.219   2.098   8.108
 4230SOL    HW214523   0.219   2.210   8.209
 4231SOL     OW14524  12.216  10.618   2.843
 4231SOL    HW114525  12.280  10.689   2.847
 4231SOL    HW214526  12.141  10.650   2.894
 4232SOL     OW14527   9.365   7.195   1.472
 4232SOL    HW114528   9.391   7.189   1.380
 4232SOL    HW214529   9.382   7.286   1.496
 4233SOL     OW14530   6.891  13.177   8.476
 4233SOL    HW114531   6.871  13.118   8.548
 4233SOL    HW214532   6.877  13.265   8.512
 4234SOL     OW14533   3.049   5.046   3.784
 4234SOL    HW114534   3.137   5.020   3.757
 4234SOL    HW214535   2.995   4.968   3.771
 4235SOL     OW14536  11.518  11.613   4.204
 4235SOL    HW114537  11.610  11.640   4.205
 4235SOL    HW214538  11.477  11.666   4.271
 4236SOL     OW14539   7.496   5.632   5.606
 4236SOL    HW114540   7.529   5.543   5.619
 4236SOL    HW214541   7.528   5.656   5.519
 4237SOL     OW14542   8.767   6.253   8.274
 4237SOL    HW114543   8.853   6.236   8.236
 4237SOL    HW214544   8.747   6.343   8.248
 4238SOL     OW14545   2.816   9.733  12.510
 4238SOL    HW114546   2.763   9.691  12.578
 4238SOL    HW214547   2.890   9.770  12.556
 4239SOL     OW14548   0.186   7.409   6.526
 4239SOL    HW114549   0.277   7.425   6.547
 4239SOL    HW214550   0.177   7.431   6.433
 4240SOL     OW14551  11.967  14.066   9.158
 4240SOL    HW114552  12.048  14.115   9.174
 4240SOL    HW214553  11.994  13.992   9.105
 4241SOL     OW14554   7.825   7.846   2.996
 4241SOL    HW114555   7.757   7.785   3.024
 4241SOL    HW214556   7.896   7.833   3.060
 4242SOL     OW14557   4.689   5.155   4.519
 4242SOL    HW114558   4.697   5.167   4.614
 4242SOL    HW214559   4.715   5.064   4.504
 4243SOL     OW14560   7.859   1.834  12.194
 4243SOL    HW114561   7.857   1.924  12.162
 4243SOL    HW214562   7.929   1.832  12.259
 4244SOL     OW14563  13.817   8.279  10.875
 4244SOL    HW114564  13.862   8.361  10.893
 4244SOL    HW214565  13.725   8.298  10.891
 4245SOL     OW14566   5.643   2.574   8.893
 4245SOL    HW114567   5.676   2.489   8.921
 4245SOL    HW214568   5.636   2.566   8.798
 4246SOL     OW14569   9.324   1.761   3.264
 4246SOL    HW114570   9.294   1.718   3.185
 4246SOL    HW214571   9.419   1.767   3.254
 4247SOL     OW14572  10.144   0.959   1.656
 4247SOL    HW114573  10.199   0.882   1.666
 4247SOL    HW214574  10.056   0.930   1.679
 4248SOL     OW14575  14.386   9.663   2.947
 4248SOL    HW114576  14.324   9.698   3.010
 4248SOL    HW214577  14.463   9.638   2.999
 4249SOL     OW14578  11.906  10.128  10.928
 4249SOL    HW114579  11.989  10.143  10.885
 4249SOL    HW214580  11.909  10.036  10.955
 4250SOL     OW14581   7.520  10.006  11.243
 4250SOL    HW114582   7.508   9.974  11.154
 4250SOL    HW214583   7.525  10.101  11.235
 4251SOL     OW14584  13.150  13.757  13.206
 4251SOL    HW114585  13.234  13.795  13.234
 4251SOL    HW214586  13.169  13.664  13.193
 4252SOL     OW14587  10.195  12.134   8.630
 4252SOL    HW114588  10.221  12.059   8.682
 4252SOL    HW214589  10.100  12.127   8.623
 4253SOL     OW14590   1.455   3.172   9.758
 4253SOL    HW114591   1.371   3.219   9.756
 4253SOL    HW214592   1.506   3.212   9.688
 4254SOL     OW14593  10.427   3.793  11.766
 4254SOL    HW114594  10.421   3.716  11.822
 4254SOL    HW214595  10.429   3.759  11.677
 4255SOL     OW14596  11.129   3.968   0.801
 4255SOL    HW114597  11.096   3.961   0.891
 4255SOL    HW214598  11.122   4.061   0.780
 4256SOL     OW14599   1.860   5.893   7.693
 4256SOL    HW114600   1.899   5.839   7.625
 4256SOL    HW214601   1.794   5.946   7.647
 4257SOL     OW14602   2.437  12.360  12.077
 4257SOL    HW114603   2.490  12.359  12.157
 4257SOL    HW214604   2.478  12.427  12.022
 4258SOL     OW14605  11.577   6.860   7.992
 4258SOL    HW114606  11.615   6.928   7.936
 4258SOL    HW214607  11.611   6.880   8.080
 4259SOL     OW14608   9.640  12.403   2.482
 4259SOL    HW114609   9.567  12.461   2.504
 4259SOL    HW214610   9.602  12.315   2.484
 4260SOL     OW14611  12.207  10.999  12.463
 4260SOL    HW114612  12.285  10.945  12.451
 4260SOL    HW214613  12.139  10.938  12.491
 4261SOL     OW14614   2.846   6.354  14.342
 4261SOL    HW114615   2.817   6.294  14.411
 4261SOL    HW214616   2.921   6.309  14.302
 4262SOL     OW14617   1.504   8.423   2.668
 4262SOL    HW114618   1.445   8.478   2.616
 4262SOL    HW214619   1.531   8.480   2.740
 4263SOL     OW14620   5.129  13.947   5.830
 4263SOL    HW114621   5.171  13.943   5.916
 4263SOL    HW214622   5.116  14.040   5.814
 4264SOL     OW14623   2.846   9.262   3.485
 4264SOL    HW114624   2.921   9.219   3.444
 4264SOL    HW214625   2.869   9.355   3.485
 4265SOL     OW14626   5.538   8.185   5.151
 4265SOL    HW114627   5.474   8.118   5.177
 4265SOL    HW214628   5.623   8.145   5.170
 4266SOL     OW14629   6.650   3.263  10.518
 4266SOL    HW114630   6.597   3.289  10.594
 4266SOL    HW214631   6.605   3.301  10.443
 4267SOL     OW14632  10.931   5.256   2.468
 4267SOL    HW114633  10.906   5.303   2.388
 4267SOL    HW214634  11.026   5.260   2.470
 4268SOL     OW14635   6.027   1.389   2.770
 4268SOL    HW114636   6.051   1.473   2.731
 4268SOL    HW214637   5.967   1.349   2.706
 4269SOL     OW14638   0.298  13.076   7.186
 4269SOL    HW114639   0.304  12.981   7.197
 4269SOL    HW214640   0.246  13.106   7.260
 4270SOL     OW14641   6.748   2.541   9.563
 4270SOL    HW114642   6.701   2.464   9.595
 4270SOL    HW214643   6.688   2.582   9.501
 4271SOL     OW14644   4.898   1.763   0.374
 4271SOL    HW114645   4.875   1.778   0.465
 4271SOL    HW214646   4.986   1.801   0.365
 4272SOL     OW14647   4.797   9.834   5.864
 4272SOL    HW114648   4.720   9.872   5.907
 4272SOL    HW214649   4.792   9.865   5.774
 4273SOL     OW14650  12.388  14.421  12.389
 4273SOL    HW114651  12.463  14.402  12.445
 4273SOL    HW214652  12.387  14.349  12.325
 4274SOL     OW14653  10.468   3.011   0.069
 4274SOL    HW114654  10.531   2.970   0.009
 4274SOL    HW214655  10.458   2.948   0.140
 4275SOL     OW14656   1.660   6.629   3.077
 4275SOL    HW114657   1.678   6.538   3.056
 4275SOL    HW214658   1.630   6.668   2.994
 4276SOL     OW14659  14.176   7.068   9.090
 4276SOL    HW114660  14.270   7.074   9.109
 4276SOL    HW214661  14.148   6.988   9.135
 4277SOL     OW14662   4.724   3.535   5.440
 4277SOL    HW114663   4.716   3.510   5.348
 4277SOL    HW214664   4.722   3.453   5.488
 4278SOL     OW14665   0.986  13.570  12.620
 4278SOL    HW114666   1.021  13.621  12.547
 4278SOL    HW214667   1.040  13.595  12.695
 4279SOL     OW14668   1.645   6.436   8.716
 4279SOL    HW114669   1.576   6.460   8.778
 4279SOL    HW214670   1.600   6.430   8.632
 4280SOL     OW14671   6.363   4.674   6.224
 4280SOL    HW114672   6.372   4.698   6.131
 4280SOL    HW214673   6.377   4.757   6.271
 4281SOL     OW14674   2.320   8.589   6.691
 4281SOL    HW114675   2.359   8.676   6.697
 4281SOL    HW214676   2.229   8.601   6.718
 4282SOL     OW14677   2.206  11.568   4.001
 4282SOL    HW114678   2.124  11.614   4.018
 4282SOL    HW214679   2.274  11.636   4.009
 4283SOL     OW14680   4.757  11.546   1.110
 4283SOL    HW114681   4.711  11.621   1.149
 4283SOL    HW214682   4.761  11.481   1.180
 4284SOL     OW14683   6.203   2.466  14.398
 4284SOL    HW114684   6.109   2.475  14.388
 4284SOL    HW214685   6.234   2.441  14.310
 4285SOL     OW14686   1.042  10.996  10.109
 4285SOL    HW114687   0.997  11.036  10.034
 4285SOL    HW214688   0.984  10.927  10.138
 4286SOL     OW14689   2.000  11.740  14.758
 4286SOL    HW114690   2.094  11.752  14.770
 4286SOL    HW214691   1.984  11.765  14.667
 4287SOL     OW14692  10.415  13.778   5.430
 4287SOL    HW114693  10.404  13.777   5.525
 4287SOL    HW214694  10.467  13.857   5.413
 4288SOL     OW14695  11.800  13.299   4.985
 4288SOL    HW114696  11.750  13.321   4.907
 4288SOL    HW214697  11.736  13.302   5.056
 4289SOL     OW14698   4.046  13.868  13.813
 4289SOL    HW114699   3.975  13.835  13.869
 4289SOL    HW214700   4.004  13.935  13.759
 4290SOL     OW14701   7.675   2.767   2.420
 4290SOL    HW114702   7.727   2.840   2.454
 4290SOL    HW214703   7.684   2.699   2.487
 4291SOL     OW14704   8.701   6.880   0.638
 4291SOL    HW114705   8.771   6.829   0.680
 4291SOL    HW214706   8.633   6.887   0.706
 4292SOL     OW14707   7.130  14.191   0.837
 4292SOL    HW114708   7.175  14.112   0.868
 4292SOL    HW214709   7.193  14.232   0.777
 4293SOL     OW14710   1.561   9.958   5.896
 4293SOL    HW114711   1.523  10.002   5.820
 4293SOL    HW214712   1.649   9.995   5.903
 4294SOL     OW14713   9.651   6.130   5.281
 4294SOL    HW114714   9.604   6.167   5.356
 4294SOL    HW214715   9.701   6.204   5.245
 4295SOL     OW14716   9.338   0.968   2.054
 4295SOL    HW114717   9.294   1.041   2.099
 4295SOL    HW214718   9.293   0.962   1.969
 4296SOL     OW14719  11.851   4.534  13.100
 4296SOL    HW114720  11.792   4.486  13.041
 4296SOL    HW214721  11.910   4.467  13.135
 4297SOL     OW14722   9.631   9.559   2.775
 4297SOL    HW114723   9.636   9.513   2.859
 4297SOL    HW214724   9.624   9.651   2.798
 4298SOL     OW14725  11.862   0.201   2.003
 4298SOL    HW114726  11.781   0.224   2.050
 4298SOL    HW214727  11.904   0.285   1.985
 4299SOL     OW14728  14.735  14.637   4.504
 4299SOL    HW114729  14.745  14.676   4.591
 4299SOL    HW214730  14.688  14.703   4.453
 4300SOL     OW14731   0.348  12.356   6.032
 4300SOL    HW114732   0.395  12.394   5.958
 4300SOL    HW214733   0.386  12.269   6.043
 4301SOL     OW14734   9.207   5.833  11.895
 4301SOL    HW114735   9.293   5.791  11.896
 4301SOL    HW214736   9.145   5.760  11.899
 4302SOL     OW14737   8.067   7.516   0.296
 4302SOL    HW114738   8.042   7.516   0.204
 4302SOL    HW214739   7.991   7.551   0.342
 4303SOL     OW14740   4.041   4.268  10.640
 4303SOL    HW114741   4.065   4.276  10.548
 4303SOL    HW214742   4.117   4.227  10.681
 4304SOL     OW14743   8.427   3.697   4.318
 4304SOL    HW114744   8.472   3.768   4.364
 4304SOL    HW214745   8.338   3.728   4.305
 4305SOL     OW14746   0.058  13.916   7.367
 4305SOL    HW114747  14.860  13.980   7.356
 4305SOL    HW214748   0.095  13.906   7.279
 4306SOL     OW14749   6.209   9.680   1.771
 4306SOL    HW114750   6.154   9.619   1.820
 4306SOL    HW214751   6.174   9.676   1.681
 4307SOL     OW14752   3.622  11.789   2.760
 4307SOL    HW114753   3.648  11.874   2.796
 4307SOL    HW214754   3.688  11.770   2.693
 4308SOL     OW14755   2.212  10.324   5.417
 4308SOL    HW114756   2.144  10.341   5.352
 4308SOL    HW214757   2.171  10.263   5.479
 4309SOL     OW14758   1.763   4.842   2.963
 4309SOL    HW114759   1.755   4.748   2.952
 4309SOL    HW214760   1.702   4.879   2.900
 4310SOL     OW14761   3.023   9.624   0.389
 4310SOL    HW114762   2.930   9.638   0.374
 4310SOL    HW214763   3.066   9.699   0.348
 4311SOL     OW14764   6.643  12.045   2.593
 4311SOL    HW114765   6.565  12.006   2.632
 4311SOL    HW214766   6.661  12.122   2.647
 4312SOL     OW14767  10.747   7.931  14.286
 4312SOL    HW114768  10.713   7.850  14.325
 4312SOL    HW214769  10.825   7.903  14.237
 4313SOL     OW14770  13.085   7.575   8.121
 4313SOL    HW114771  13.018   7.529   8.171
 4313SOL    HW214772  13.073   7.667   8.142
 4314SOL     OW14773  11.349   9.129  11.515
 4314SOL    HW114774  11.361   9.133  11.420
 4314SOL    HW214775  11.256   9.148  11.529
 4315SOL     OW14776   4.998   5.762   3.719
 4315SOL    HW114777   5.026   5.757   3.628
 4315SOL    HW214778   4.931   5.694   3.727
 4316SOL     OW14779   8.021   0.149   3.472
 4316SOL    HW114780   8.109   0.170   3.441
 4316SOL    HW214781   8.035   0.112   3.560
 4317SOL     OW14782  11.685  12.223   0.258
 4317SOL    HW114783  11.653  12.313   0.257
 4317SOL    HW214784  11.716  12.208   0.168
 4318SOL     OW14785   6.922   7.671   6.505
 4318SOL    HW114786   6.944   7.580   6.525
 4318SOL    HW214787   6.957   7.721   6.579
 4319SOL     OW14788   5.105   1.370   8.746
 4319SOL    HW114789   5.083   1.308   8.677
 4319SOL    HW214790   5.154   1.319   8.810
 4320SOL     OW14791  10.885  11.408  13.159
 4320SOL    HW114792  10.949  11.338  13.167
 4320SOL    HW214793  10.875  11.442  13.248
 4321SOL     OW14794   8.633   3.667   1.284
 4321SOL    HW114795   8.694   3.675   1.357
 4321SOL    HW214796   8.624   3.756   1.251
 4322SOL     OW14797   0.578  14.513  11.736
 4322SOL    HW114798   0.500  14.466  11.707
 4322SOL    HW214799   0.651  14.457  11.710
 4323SOL     OW14800   3.207   9.117   0.383
 4323SOL    HW114801   3.134   9.056   0.375
 4323SOL    HW214802   3.166   9.203   0.387
 4324SOL     OW14803  12.206  12.032   2.499
 4324SOL    HW114804  12.226  12.005   2.409
 4324SOL    HW214805  12.134  12.095   2.489
 4325SOL     OW14806   6.124   6.604   3.334
 4325SOL    HW114807   6.065   6.613   3.409
 4325SOL    HW214808   6.119   6.688   3.289
 4326SOL     OW14809   5.651   4.988   3.261
 4326SOL    HW114810   5.644   5.074   3.220
 4326SOL    HW214811   5.599   4.995   3.341
 4327SOL     OW14812   7.051   2.268   7.136
 4327SOL    HW114813   7.071   2.340   7.195
 4327SOL    HW214814   6.971   2.230   7.171
 4328SOL     OW14815   0.957   3.774  14.107
 4328SOL    HW114816   1.042   3.731  14.100
 4328SOL    HW214817   0.921   3.744  14.191
 4329SOL     OW14818  10.808   7.847   5.816
 4329SOL    HW114819  10.861   7.898   5.877
 4329SOL    HW214820  10.871   7.801   5.762
 4330SOL     OW14821  10.039  10.319  10.771
 4330SOL    HW114822  10.100  10.388  10.744
 4330SOL    HW214823  10.031  10.263  10.693
 4331SOL     OW14824  13.517   4.477  13.729
 4331SOL    HW114825  13.561   4.400  13.693
 4331SOL    HW214826  13.435   4.482  13.681
 4332SOL     OW14827   1.499   7.093   5.606
 4332SOL    HW114828   1.538   7.154   5.668
 4332SOL    HW214829   1.501   7.008   5.651
 4333SOL     OW14830  12.098  10.419   6.786
 4333SOL    HW114831  12.052  10.338   6.809
 4333SOL    HW214832  12.190  10.394   6.781
 4334SOL     OW14833   7.483   3.900  13.625
 4334SOL    HW114834   7.507   3.919  13.716
 4334SOL    HW214835   7.427   3.974  13.600
 4335SOL     OW14836  10.105   9.302  10.145
 4335SOL    HW114837  10.190   9.297  10.188
 4335SOL    HW214838  10.123   9.288  10.053
 4336SOL     OW14839   0.401   4.215   0.618
 4336SOL    HW114840   0.486   4.171   0.614
 4336SOL    HW214841   0.422   4.308   0.629
 4337SOL     OW14842  13.931   6.113   5.608
 4337SOL    HW114843  13.955   6.074   5.524
 4337SOL    HW214844  13.883   6.192   5.586
 4338SOL     OW14845   8.009   6.484   7.352
 4338SOL    HW114846   7.972   6.510   7.436
 4338SOL    HW214847   8.006   6.389   7.352
 4339SOL     OW14848   9.350  10.298   2.362
 4339SOL    HW114849   9.274  10.351   2.386
 4339SOL    HW214850   9.421  10.361   2.350
 4340SOL     OW14851   7.942   5.035   5.188
 4340SOL    HW114852   8.011   5.081   5.237
 4340SOL    HW214853   7.873   5.020   5.253
 4341SOL     OW14854   6.528   2.625  14.394
 4341SOL    HW114855   6.540   2.540  14.436
 4341SOL    HW214856   6.551   2.689  14.461
 4342SOL     OW14857  10.672   4.687   3.401
 4342SOL    HW114858  10.654   4.601   3.363
 4342SOL    HW214859  10.713   4.667   3.485
 4343SOL     OW14860   3.302  14.669   5.655
 4343SOL    HW114861   3.312  14.761   5.678
 4343SOL    HW214862   3.211  14.648   5.677
 4344SOL     OW14863   8.889   3.658   7.388
 4344SOL    HW114864   8.861   3.684   7.476
 4344SOL    HW214865   8.951   3.587   7.403
 4345SOL     OW14866   3.393   5.837  11.273
 4345SOL    HW114867   3.403   5.750  11.313
 4345SOL    HW214868   3.431   5.897  11.337
 4346SOL     OW14869   4.830   0.488   0.862
 4346SOL    HW114870   4.924   0.497   0.876
 4346SOL    HW214871   4.821   0.481   0.767
 4347SOL     OW14872   6.717   6.949   0.860
 4347SOL    HW114873   6.778   6.905   0.801
 4347SOL    HW214874   6.672   6.878   0.905
 4348SOL     OW14875  12.292  12.388   6.083
 4348SOL    HW114876  12.360  12.365   6.146
 4348SOL    HW214877  12.251  12.304   6.061
 4349SOL     OW14878   5.406   5.616  13.850
 4349SOL    HW114879   5.374   5.573  13.929
 4349SOL    HW214880   5.500   5.599  13.849
 4350SOL     OW14881   8.810  14.247  13.338
 4350SOL    HW114882   8.829  14.293  13.256
 4350SOL    HW214883   8.825  14.155  13.318
 4351SOL     OW14884   0.851   7.150   4.501
 4351SOL    HW114885   0.792   7.201   4.445
 4351SOL    HW214886   0.800   7.133   4.580
 4352SOL     OW14887   3.511  12.482  11.754
 4352SOL    HW114888   3.444  12.467  11.821
 4352SOL    HW214889   3.461  12.503  11.675
 4353SOL     OW14890  13.652   1.606   4.169
 4353SOL    HW114891  13.652   1.569   4.257
 4353SOL    HW214892  13.743   1.598   4.140
 4354SOL     OW14893   5.946   2.969   2.653
 4354SOL    HW114894   5.869   3.026   2.648
 4354SOL    HW214895   5.941   2.932   2.741
 4355SOL     OW14896  13.141   8.612   4.637
 4355SOL    HW114897  13.161   8.585   4.727
 4355SOL    HW214898  13.226   8.637   4.601
 4356SOL     OW14899   4.415   7.429  11.228
 4356SOL    HW114900   4.433   7.348  11.181
 4356SOL    HW214901   4.387   7.490  11.160
 4357SOL     OW14902   2.532  14.538  12.090
 4357SOL    HW114903   2.534  14.602  12.018
 4357SOL    HW214904   2.440  14.514  12.099
 4358SOL     OW14905   9.416   3.177   1.626
 4358SOL    HW114906   9.443   3.127   1.548
 4358SOL    HW214907   9.326   3.149   1.641
 4359SOL     OW14908  14.289   3.868   5.285
 4359SOL    HW114909  14.226   3.860   5.356
 4359SOL    HW214910  14.236   3.862   5.205
 4360SOL     OW14911   2.584   7.056  10.475
 4360SOL    HW114912   2.553   7.147  10.474
 4360SOL    HW214913   2.673   7.062  10.510
 4361SOL     OW14914   3.379   7.711   4.252
 4361SOL    HW114915   3.342   7.769   4.185
 4361SOL    HW214916   3.404   7.632   4.205
 4362SOL     OW14917   9.358  14.532   0.332
 4362SOL    HW114918   9.274  14.519   0.375
 4362SOL    HW214919   9.336  14.566   0.245
 4363SOL     OW14920   0.258  12.702   8.490
 4363SOL    HW114921   0.299  12.619   8.515
 4363SOL    HW214922   0.175  12.677   8.450
 4364SOL     OW14923  11.323   6.522  14.311
 4364SOL    HW114924  11.384   6.544  14.241
 4364SOL    HW214925  11.239   6.557  14.281
 4365SOL     OW14926   3.868   3.891  14.269
 4365SOL    HW114927   3.881   3.986  14.268
 4365SOL    HW214928   3.941   3.856  14.219
 4366SOL     OW14929   3.269   0.317   9.397
 4366SOL    HW114930   3.275   0.387   9.332
 4366SOL    HW214931   3.178   0.318   9.426
 4367SOL     OW14932   6.574   9.626  12.425
 4367SOL    HW114933   6.549   9.609  12.334
 4367SOL    HW214934   6.491   9.623  12.474
 4368SOL     OW14935   7.222   4.386   0.538
 4368SOL    HW114936   7.237   4.346   0.623
 4368SOL    HW214937   7.238   4.316   0.475
 4369SOL     OW14938   5.876   3.369   7.617
 4369SOL    HW114939   5.886   3.281   7.655
 4369SOL    HW214940   5.944   3.374   7.550
 4370SOL     OW14941   1.531   1.486  10.836
 4370SOL    HW114942   1.526   1.457  10.927
 4370SOL    HW214943   1.457   1.545  10.824
 4371SOL     OW14944   8.329   7.169   3.119
 4371SOL    HW114945   8.391   7.238   3.142
 4371SOL    HW214946   8.341   7.103   3.187
 4372SOL     OW14947   8.607   1.561   2.638
 4372SOL    HW114948   8.697   1.537   2.616
 4372SOL    HW214949   8.561   1.561   2.554
 4373SOL     OW14950   0.763  11.837  13.438
 4373SOL    HW114951   0.712  11.761  13.466
 4373SOL    HW214952   0.794  11.877  13.519
 4374SOL     OW14953   1.175   3.441   1.977
 4374SOL    HW114954   1.094   3.403   1.943
 4374SOL    HW214955   1.183   3.525   1.932
 4375SOL     OW14956  10.910   8.463   9.857
 4375SOL    HW114957  11.000   8.492   9.868
 4375SOL    HW214958  10.860   8.544   9.848
 4376SOL     OW14959   0.555   1.198   9.775
 4376SOL    HW114960   0.595   1.285   9.770
 4376SOL    HW214961   0.474   1.212   9.824
 4377SOL     OW14962   0.782   4.812   1.707
 4377SOL    HW114963   0.688   4.806   1.725
 4377SOL    HW214964   0.813   4.882   1.765
 4378SOL     OW14965   9.253   0.910  13.747
 4378SOL    HW114966   9.328   0.910  13.807
 4378SOL    HW214967   9.234   0.817  13.733
 4379SOL     OW14968   7.694  14.109   8.999
 4379SOL    HW114969   7.785  14.112   8.972
 4379SOL    HW214970   7.646  14.157   8.931
 4380SOL     OW14971   3.529   2.981  13.844
 4380SOL    HW114972   3.442   3.021  13.836
 4380SOL    HW214973   3.525   2.905  13.786
 4381SOL     OW14974  11.817  14.604   4.590
 4381SOL    HW114975  11.818  14.522   4.640
 4381SOL    HW214976  11.772  14.582   4.509
 4382SOL     OW14977  14.420   4.381   6.272
 4382SOL    HW114978  14.435   4.473   6.253
 4382SOL    HW214979  14.439   4.336   6.189
 4383SOL     OW14980   2.707   3.211   7.194
 4383SOL    HW114981   2.634   3.151   7.207
 4383SOL    HW214982   2.679   3.292   7.237
 4384SOL     OW14983   1.576   7.749  13.941
 4384SOL    HW114984   1.602   7.777  13.853
 4384SOL    HW214985   1.658   7.748  13.990
 4385SOL     OW14986  11.286   2.587  11.402
 4385SOL    HW114987  11.229   2.510  11.390
 4385SOL    HW214988  11.352   2.579  11.333
 4386SOL     OW14989   9.199   6.791  10.406
 4386SOL    HW114990   9.139   6.733  10.360
 4386SOL    HW214991   9.159   6.878  10.398
 4387SOL     OW14992   9.609   3.559   9.276
 4387SOL    HW114993   9.577   3.551   9.186
 4387SOL    HW214994   9.682   3.620   9.270
 4388SOL     OW14995   6.772   5.587   7.116
 4388SOL    HW114996   6.848   5.622   7.070
 4388SOL    HW214997   6.739   5.518   7.059
 4389SOL     OW14998   3.790   2.614   6.720
 4389SOL    HW114999   3.707   2.588   6.760
 4389SOL    HW215000   3.781   2.589   6.628
 4390SOL     OW15001  11.028  13.871   9.199
 4390SOL    HW115002  11.121  13.849   9.193
 4390SOL    HW215003  11.027  13.958   9.241
 4391SOL     OW15004   1.655   7.810  12.285
 4391SOL    HW115005   1.625   7.899  12.306
 4391SOL    HW215006   1.590   7.776  12.224
 4392SOL     OW15007   4.251   4.209   1.105
 4392SOL    HW115008   4.183   4.255   1.154
 4392SOL    HW215009   4.243   4.243   1.016
 4393SOL     OW15010  12.111   9.093  10.526
 4393SOL    HW115011  12.057   9.067  10.601
 4393SOL    HW215012  12.077   9.042  10.453
 4394SOL     OW15013  13.794  10.956  10.385
 4394SOL    HW115014  13.764  10.884  10.439
 4394SOL    HW215015  13.862  10.999  10.437
 4395SOL     OW15016   6.610   0.805  10.697
 4395SOL    HW115017   6.706   0.812  10.696
 4395SOL    HW215018   6.584   0.843  10.781
 4396SOL     OW15019   3.778   6.311  11.877
 4396SOL    HW115020   3.757   6.309  11.970
 4396SOL    HW215021   3.854   6.254  11.868
 4397SOL     OW15022   3.093   2.478   3.882
 4397SOL    HW115023   3.108   2.386   3.906
 4397SOL    HW215024   3.038   2.474   3.804
 4398SOL     OW15025   1.877  10.756   9.654
 4398SOL    HW115026   1.846  10.831   9.604
 4398SOL    HW215027   1.803  10.695   9.653
 4399SOL     OW15028  13.343   7.399   7.103
 4399SOL    HW115029  13.384   7.320   7.068
 4399SOL    HW215030  13.273   7.366   7.160
 4400SOL     OW15031  13.618   3.260   0.424
 4400SOL    HW115032  13.646   3.171   0.403
 4400SOL    HW215033  13.677   3.317   0.375
 4401SOL     OW15034   1.853   7.476   8.815
 4401SOL    HW115035   1.803   7.426   8.879
 4401SOL    HW215036   1.830   7.438   8.730
 4402SOL     OW15037  13.177   8.579  13.544
 4402SOL    HW115038  13.146   8.495  13.509
 4402SOL    HW215039  13.216   8.556  13.628
 4403SOL     OW15040  11.525   2.197  13.667
 4403SOL    HW115041  11.540   2.285  13.633
 4403SOL    HW215042  11.580   2.192  13.745
 4404SOL     OW15043   1.220  11.788  11.441
 4404SOL    HW115044   1.203  11.827  11.527
 4404SOL    HW215045   1.137  11.750  11.414
 4405SOL     OW15046   6.468  14.135   1.284
 4405SOL    HW115047   6.422  14.059   1.250
 4405SOL    HW215048   6.518  14.101   1.359
 4406SOL     OW15049   5.312   9.620   5.100
 4406SOL    HW115050   5.357   9.700   5.072
 4406SOL    HW215051   5.220   9.646   5.108
 4407SOL     OW15052   6.948   9.149   9.661
 4407SOL    HW115053   6.864   9.113   9.691
 4407SOL    HW215054   7.010   9.126   9.729
 4408SOL     OW15055  11.471   6.962  10.739
 4408SOL    HW115056  11.384   6.997  10.760
 4408SOL    HW215057  11.499   7.013  10.662
 4409SOL     OW15058  13.534   5.972   6.971
 4409SOL    HW115059  13.505   5.896   7.020
 4409SOL    HW215060  13.554   6.038   7.038
 4410SOL     OW15061   0.422  13.399   4.963
 4410SOL    HW115062   0.390  13.483   4.995
 4410SOL    HW215063   0.413  13.404   4.867
 4411SOL     OW15064   7.459   8.937   5.185
 4411SOL    HW115065   7.554   8.924   5.182
 4411SOL    HW215066   7.431   8.930   5.093
 4412SOL     OW15067   7.136   7.983   4.729
 4412SOL    HW115068   7.222   7.953   4.758
 4412SOL    HW215069   7.132   8.074   4.759
 4413SOL     OW15070   5.830   2.883   0.868
 4413SOL    HW115071   5.767   2.936   0.820
 4413SOL    HW215072   5.777   2.829   0.927
 4414SOL     OW15073   6.277   4.207   4.604
 4414SOL    HW115074   6.184   4.183   4.605
 4414SOL    HW215075   6.313   4.157   4.531
 4415SOL     OW15076  12.086  12.565   5.255
 4415SOL    HW115077  12.161  12.620   5.232
 4415SOL    HW215078  12.012  12.626   5.261
 4416SOL     OW15079  12.438   7.315   6.406
 4416SOL    HW115080  12.417   7.335   6.315
 4416SOL    HW215081  12.435   7.400   6.450
 4417SOL     OW15082   2.658  14.593   5.785
 4417SOL    HW115083   2.640  14.550   5.702
 4417SOL    HW215084   2.617  14.536   5.851
 4418SOL     OW15085  14.483   5.573   4.088
 4418SOL    HW115086  14.438   5.570   4.172
 4418SOL    HW215087  14.431   5.632   4.034
 4419SOL     OW15088   8.259  13.208  12.952
 4419SOL    HW115089   8.337  13.189  12.899
 4419SOL    HW215090   8.186  13.176  12.900
 4420SOL     OW15091   6.983   3.957   7.466
 4420SOL    HW115092   6.915   3.903   7.506
 4420SOL    HW215093   7.052   3.962   7.533
 4421SOL     OW15094   5.445   9.075  10.850
 4421SOL    HW115095   5.409   9.010  10.910
 4421SOL    HW215096   5.508   9.026  10.797
 4422SOL     OW15097   7.777   6.773   9.111
 4422SOL    HW115098   7.860   6.728   9.092
 4422SOL    HW215099   7.775   6.846   9.050
 4423SOL     OW15100   1.085   7.916  12.600
 4423SOL    HW115101   1.142   7.934  12.674
 4423SOL    HW215102   1.122   7.837  12.560
 4424SOL     OW15103  13.244   5.512   4.601
 4424SOL    HW115104  13.249   5.496   4.507
 4424SOL    HW215105  13.171   5.458   4.631
 4425SOL     OW15106  10.102  12.619   7.522
 4425SOL    HW115107  10.093  12.703   7.566
 4425SOL    HW215108  10.043  12.560   7.569
 4426SOL     OW15109  10.739  12.015  12.008
 4426SOL    HW115110  10.785  12.050  11.932
 4426SOL    HW215111  10.646  12.020  11.985
 4427SOL     OW15112   7.829  13.711   3.080
 4427SOL    HW115113   7.820  13.738   3.171
 4427SOL    HW215114   7.764  13.641   3.070
 4428SOL     OW15115   9.418   4.686  10.404
 4428SOL    HW115116   9.341   4.703  10.350
 4428SOL    HW215117   9.489   4.734  10.361
 4429SOL     OW15118  10.224  11.158  14.745
 4429SOL    HW115119  10.263  11.114  14.820
 4429SOL    HW215120  10.291  11.221  14.717
 4430SOL     OW15121   8.968   4.486   0.396
 4430SOL    HW115122   9.035   4.553   0.382
 4430SOL    HW215123   9.013   4.417   0.444
 4431SOL     OW15124   1.745  10.791  12.511
 4431SOL    HW115125   1.668  10.735  12.503
 4431SOL    HW215126   1.814  10.732  12.544
 4432SOL     OW15127   6.566   6.186   4.108
 4432SOL    HW115128   6.539   6.271   4.142
 4432SOL    HW215129   6.500   6.165   4.042
 4433SOL     OW15130   0.690   2.902  11.462
 4433SOL    HW115131   0.669   2.956  11.538
 4433SOL    HW215132   0.687   2.962  11.388
 4434SOL     OW15133   5.761  11.882   6.583
 4434SOL    HW115134   5.773  11.895   6.677
 4434SOL    HW215135   5.679  11.925   6.562
 4435SOL     OW15136  13.909   3.170   2.437
 4435SOL    HW115137  13.867   3.220   2.368
 4435SOL    HW215138  13.905   3.226   2.514
 4436SOL     OW15139   4.288   1.768   9.376
 4436SOL    HW115140   4.348   1.779   9.450
 4436SOL    HW215141   4.346   1.744   9.303
 4437SOL     OW15142   1.186   0.132  14.662
 4437SOL    HW115143   1.108   0.186  14.652
 4437SOL    HW215144   1.189   0.079  14.582
 4438SOL     OW15145  11.858  11.452  11.749
 4438SOL    HW115146  11.886  11.533  11.707
 4438SOL    HW215147  11.833  11.395  11.676
 4439SOL     OW15148   8.849   1.911   1.360
 4439SOL    HW115149   8.878   2.001   1.346
 4439SOL    HW215150   8.919   1.871   1.413
 4440SOL     OW15151  13.680   4.978   7.916
 4440SOL    HW115152  13.759   4.987   7.968
 4440SOL    HW215153  13.609   4.970   7.980
 4441SOL     OW15154   2.006   3.204  12.912
 4441SOL    HW115155   2.043   3.211  12.823
 4441SOL    HW215156   2.062   3.139  12.955
 4442SOL     OW15157  10.077   2.986  13.142
 4442SOL    HW115158  10.065   2.940  13.225
 4442SOL    HW215159  10.171   2.982  13.125
 4443SOL     OW15160  10.177   0.777  11.892
 4443SOL    HW115161  10.135   0.785  11.807
 4443SOL    HW215162  10.226   0.695  11.887
 4444SOL     OW15163  13.042   5.437   8.639
 4444SOL    HW115164  12.973   5.393   8.589
 4444SOL    HW215165  13.027   5.410   8.729
 4445SOL     OW15166   0.505  10.697   8.999
 4445SOL    HW115167   0.549  10.781   9.016
 4445SOL    HW215168   0.534  10.673   8.911
 4446SOL     OW15169   3.785  13.830   8.146
 4446SOL    HW115170   3.813  13.789   8.064
 4446SOL    HW215171   3.690  13.837   8.139
 4447SOL     OW15172   3.255   1.965   7.378
 4447SOL    HW115173   3.285   1.890   7.428
 4447SOL    HW215174   3.334   2.018   7.364
 4448SOL     OW15175  11.073   7.871   6.784
 4448SOL    HW115176  11.131   7.932   6.738
 4448SOL    HW215177  10.999   7.859   6.724
 4449SOL     OW15178  14.671  14.427   5.093
 4449SOL    HW115179  14.617  14.363   5.140
 4449SOL    HW215180  14.611  14.469   5.032
 4450SOL     OW15181  10.333   7.958   7.001
 4450SOL    HW115182  10.319   7.976   7.094
 4450SOL    HW215183  10.305   7.867   6.990
 4451SOL     OW15184   4.020   3.322   7.074
 4451SOL    HW115185   4.018   3.389   7.007
 4451SOL    HW215186   4.071   3.250   7.035
 4452SOL     OW15187   2.574   7.044   1.006
 4452SOL    HW115188   2.628   6.994   1.067
 4452SOL    HW215189   2.616   7.030   0.920
 4453SOL     OW15190   5.742   8.245   6.026
 4453SOL    HW115191   5.791   8.170   5.991
 4453SOL    HW215192   5.702   8.212   6.106
 4454SOL     OW15193   2.185   3.603  14.348
 4454SOL    HW115194   2.145   3.546  14.282
 4454SOL    HW215195   2.151   3.571  14.432
 4455SOL     OW15196  11.814  14.392   4.758
 4455SOL    HW115197  11.758  14.315   4.754
 4455SOL    HW215198  11.811  14.419   4.850
 4456SOL     OW15199   0.926  14.480   5.758
 4456SOL    HW115200   1.007  14.491   5.808
 4456SOL    HW215201   0.865  14.438   5.819
 4457SOL     OW15202   7.665   5.051   5.596
 4457SOL    HW115203   7.672   5.000   5.677
 4457SOL    HW215204   7.578   5.090   5.600
 4458SOL     OW15205   4.594   2.089  10.706
 4458SOL    HW115206   4.524   2.046  10.755
 4458SOL    HW215207   4.590   2.181  10.734
 4459SOL     OW15208   9.646  12.360  14.079
 4459SOL    HW115209   9.663  12.444  14.121
 4459SOL    HW215210   9.599  12.309  14.145
 4460SOL     OW15211   8.187  11.523  12.646
 4460SOL    HW115212   8.268  11.512  12.696
 4460SOL    HW215213   8.211  11.499  12.557
 4461SOL     OW15214  12.513   5.545  10.663
 4461SOL    HW115215  12.427   5.586  10.667
 4461SOL    HW215216  12.495   5.451  10.675
 4462SOL     OW15217   7.437   5.531   3.985
 4462SOL    HW115218   7.445   5.508   4.077
 4462SOL    HW215219   7.358   5.584   3.980
 4463SOL     OW15220   8.382   7.799  12.248
 4463SOL    HW115221   8.452   7.793  12.183
 4463SOL    HW215222   8.305   7.825  12.197
 4464SOL     OW15223   4.381   6.881   1.002
 4464SOL    HW115224   4.472   6.891   0.974
 4464SOL    HW215225   4.336   6.845   0.926
 4465SOL     OW15226  14.544   0.728   2.374
 4465SOL    HW115227  14.593   0.657   2.331
 4465SOL    HW215228  14.545   0.799   2.310
 4466SOL     OW15229  13.161  14.687   5.240
 4466SOL    HW115230  13.080  14.676   5.290
 4466SOL    HW215231  13.169  14.782   5.228
 4467SOL     OW15232   0.616   0.546   5.797
 4467SOL    HW115233   0.616   0.578   5.887
 4467SOL    HW215234   0.548   0.478   5.795
 4468SOL     OW15235   6.751  11.394  13.124
 4468SOL    HW115236   6.695  11.414  13.200
 4468SOL    HW215237   6.758  11.298  13.125
 4469SOL     OW15238  11.283   7.739   8.651
 4469SOL    HW115239  11.340   7.726   8.727
 4469SOL    HW215240  11.319   7.680   8.584
 4470SOL     OW15241  14.642   7.476   4.582
 4470SOL    HW115242  14.715   7.525   4.544
 4470SOL    HW215243  14.683   7.407   4.633
 4471SOL     OW15244  10.739   8.390  12.908
 4471SOL    HW115245  10.738   8.393  13.004
 4471SOL    HW215246  10.748   8.296  12.888
 4472SOL     OW15247  13.819  12.720  14.448
 4472SOL    HW115248  13.893  12.718  14.509
 4472SOL    HW215249  13.799  12.813  14.438
 4473SOL     OW15250  10.457   5.633  10.039
 4473SOL    HW115251  10.389   5.700  10.044
 4473SOL    HW215252  10.517   5.654  10.111
 4474SOL     OW15253   3.950   4.927   2.477
 4474SOL    HW115254   3.905   4.842   2.483
 4474SOL    HW215255   4.036   4.906   2.442
 4475SOL     OW15256  14.225   9.499  12.926
 4475SOL    HW115257  14.250   9.552  13.001
 4475SOL    HW215258  14.178   9.424  12.963
 4476SOL     OW15259  10.670  13.875   3.303
 4476SOL    HW115260  10.727  13.827   3.363
 4476SOL    HW215261  10.592  13.819   3.295
 4477SOL     OW15262   4.349   0.625   6.536
 4477SOL    HW115263   4.396   0.612   6.453
 4477SOL    HW215264   4.265   0.581   6.523
 4478SOL     OW15265   7.481  10.729   7.465
 4478SOL    HW115266   7.423  10.779   7.522
 4478SOL    HW215267   7.464  10.637   7.487
 4479SOL     OW15268   1.074   9.400   1.571
 4479SOL    HW115269   1.075   9.421   1.664
 4479SOL    HW215270   1.071   9.304   1.568
 4480SOL     OW15271   3.694  14.395   5.678
 4480SOL    HW115272   3.639  14.461   5.720
 4480SOL    HW215273   3.637  14.350   5.617
 4481SOL     OW15274   0.223   6.580   7.862
 4481SOL    HW115275   0.147   6.638   7.857
 4481SOL    HW215276   0.275   6.615   7.935
 4482SOL     OW15277   4.545   5.112   1.279
 4482SOL    HW115278   4.502   5.162   1.211
 4482SOL    HW215279   4.498   5.134   1.359
 4483SOL     OW15280   0.550   9.338   8.553
 4483SOL    HW115281   0.460   9.318   8.580
 4483SOL    HW215282   0.547   9.335   8.457
 4484SOL     OW15283   4.830  13.987   3.299
 4484SOL    HW115284   4.754  14.023   3.345
 4484SOL    HW215285   4.820  13.892   3.308
 4485SOL     OW15286   9.131   7.831   7.661
 4485SOL    HW115287   9.176   7.747   7.669
 4485SOL    HW215288   9.096   7.847   7.749
 4486SOL     OW15289   1.480   6.881   3.677
 4486SOL    HW115290   1.515   6.969   3.666
 4486SOL    HW215291   1.387   6.889   3.658
 4487SOL     OW15292  11.742   0.679   4.257
 4487SOL    HW115293  11.795   0.643   4.329
 4487SOL    HW215294  11.753   0.616   4.186
 4488SOL     OW15295   7.181   1.557   3.805
 4488SOL    HW115296   7.238   1.596   3.739
 4488SOL    HW215297   7.217   1.589   3.888
 4489SOL     OW15298   7.775  11.133   7.211
 4489SOL    HW115299   7.869  11.137   7.194
 4489SOL    HW215300   7.756  11.039   7.215
 4490SOL     OW15301  11.966   4.216   6.702
 4490SOL    HW115302  11.978   4.144   6.640
 4490SOL    HW215303  11.965   4.174   6.788
 4491SOL     OW15304   4.547   2.876   7.961
 4491SOL    HW115305   4.452   2.865   7.967
 4491SOL    HW215306   4.563   2.899   7.869
 4492SOL     OW15307  13.545   7.198   7.256
 4492SOL    HW115308  13.603   7.178   7.330
 4492SOL    HW215309  13.511   7.285   7.275
 4493SOL     OW15310   3.110   0.774  12.922
 4493SOL    HW115311   3.035   0.744  12.871
 4493SOL    HW215312   3.148   0.845  12.870
 4494SOL     OW15313   4.414  13.980   5.350
 4494SOL    HW115314   4.497  14.000   5.393
 4494SOL    HW215315   4.361  13.937   5.417
 4495SOL     OW15316  12.124   6.935  10.275
 4495SOL    HW115317  12.083   6.867  10.328
 4495SOL    HW215318  12.180   6.888  10.214
 4496SOL     OW15319  12.574  11.476   8.259
 4496SOL    HW115320  12.493  11.491   8.211
 4496SOL    HW215321  12.570  11.384   8.286
 4497SOL     OW15322  12.693   4.776   0.497
 4497SOL    HW115323  12.612   4.783   0.446
 4497SOL    HW215324  12.762   4.769   0.431
 4498SOL     OW15325   9.400  13.795   6.713
 4498SOL    HW115326   9.482  13.763   6.674
 4498SOL    HW215327   9.360  13.717   6.751
 4499SOL     OW15328  11.183   1.987   1.190
 4499SOL    HW115329  11.266   1.974   1.144
 4499SOL    HW215330  11.189   1.931   1.267
 4500SOL     OW15331  13.962   5.456   8.734
 4500SOL    HW115332  13.903   5.389   8.702
 4500SOL    HW215333  13.916   5.496   8.808
 4501SOL     OW15334  11.825   1.752   4.459
 4501SOL    HW115335  11.869   1.783   4.538
 4501SOL    HW215336  11.774   1.676   4.489
 4502SOL     OW15337   9.428   5.908   0.262
 4502SOL    HW115338   9.476   5.960   0.198
 4502SOL    HW215339   9.339   5.903   0.227
 4503SOL     OW15340  11.182   6.937   9.492
 4503SOL    HW115341  11.104   6.883   9.503
 4503SOL    HW215342  11.176   6.969   9.402
 4504SOL     OW15343  11.712   8.634   3.332
 4504SOL    HW115344  11.677   8.697   3.395
 4504SOL    HW215345  11.779   8.682   3.284
 4505SOL     OW15346  10.163  13.225  11.784
 4505SOL    HW115347  10.093  13.241  11.848
 4505SOL    HW215348  10.140  13.279  11.709
 4506SOL     OW15349   1.938   9.197  13.260
 4506SOL    HW115350   1.933   9.292  13.271
 4506SOL    HW215351   1.863   9.164  13.310
 4507SOL     OW15352  14.682  10.202  12.398
 4507SOL    HW115353  14.586  10.199  12.398
 4507SOL    HW215354  14.709  10.113  12.376
 4508SOL     OW15355   2.954   7.296  14.236
 4508SOL    HW115356   2.979   7.205  14.221
 4508SOL    HW215357   2.858   7.294  14.240
 4509SOL     OW15358   1.781   0.481   3.310
 4509SOL    HW115359   1.844   0.466   3.240
 4509SOL    HW215360   1.762   0.394   3.344
 4510SOL     OW15361  11.024   4.486   2.685
 4510SOL    HW115362  10.968   4.533   2.746
 4510SOL    HW215363  11.021   4.537   2.605
 4511SOL     OW15364   2.486   2.950   1.445
 4511SOL    HW115365   2.570   2.929   1.485
 4511SOL    HW215366   2.421   2.917   1.508
 4512SOL     OW15367   6.716   6.148   2.116
 4512SOL    HW115368   6.758   6.223   2.158
 4512SOL    HW215369   6.645   6.123   2.175
 4513SOL     OW15370   5.885  12.547  13.633
 4513SOL    HW115371   5.864  12.566  13.542
 4513SOL    HW215372   5.816  12.591  13.683
 4514SOL     OW15373   3.645   2.137  13.321
 4514SOL    HW115374   3.630   2.045  13.300
 4514SOL    HW215375   3.718   2.163  13.265
 4515SOL     OW15376   2.492   7.708   7.587
 4515SOL    HW115377   2.439   7.766   7.641
 4515SOL    HW215378   2.468   7.620   7.615
 4516SOL     OW15379   2.936   0.493  12.796
 4516SOL    HW115380   2.930   0.579  12.839
 4516SOL    HW215381   2.896   0.507  12.710
 4517SOL     OW15382   7.895   6.528   9.421
 4517SOL    HW115383   7.982   6.545   9.384
 4517SOL    HW215384   7.841   6.601   9.390
 4518SOL     OW15385  10.977  10.048  13.428
 4518SOL    HW115386  10.986   9.953  13.418
 4518SOL    HW215387  10.998  10.084  13.342
 4519SOL     OW15388   5.709   0.185   5.741
 4519SOL    HW115389   5.713   0.217   5.831
 4519SOL    HW215390   5.784   0.126   5.732
 4520SOL     OW15391   1.802   8.672  12.712
 4520SOL    HW115392   1.770   8.741  12.770
 4520SOL    HW215393   1.864   8.623  12.765
 4521SOL     OW15394   6.843   3.320  10.933
 4521SOL    HW115395   6.850   3.359  11.020
 4521SOL    HW215396   6.851   3.394  10.873
 4522SOL     OW15397   1.594   3.821   2.867
 4522SOL    HW115398   1.576   3.852   2.956
 4522SOL    HW215399   1.623   3.899   2.820
 4523SOL     OW15400   0.214   9.150   5.886
 4523SOL    HW115401   0.257   9.207   5.823
 4523SOL    HW215402   0.219   9.063   5.847
 4524SOL     OW15403  10.089   5.666  11.854
 4524SOL    HW115404  10.100   5.628  11.942
 4524SOL    HW215405  10.104   5.592  11.795
 4525SOL     OW15406   8.279   6.654  12.111
 4525SOL    HW115407   8.370   6.631  12.133
 4525SOL    HW215408   8.278   6.658  12.015
 4526SOL     OW15409  14.641   7.008  11.455
 4526SOL    HW115410  14.571   7.042  11.510
 4526SOL    HW215411  14.701   7.082  11.443
 4527SOL     OW15412  11.773  10.658  13.116
 4527SOL    HW115413  11.830  10.735  13.121
 4527SOL    HW215414  11.707  10.683  13.052
 4528SOL     OW15415   7.154   7.545   0.726
 4528SOL    HW115416   7.189   7.633   0.711
 4528SOL    HW215417   7.173   7.528   0.819
 4529SOL     OW15418  10.895   8.550   0.526
 4529SOL    HW115419  10.986   8.536   0.551
 4529SOL    HW215420  10.898   8.570   0.433
 4530SOL     OW15421  13.423   6.453  12.166
 4530SOL    HW115422  13.427   6.366  12.205
 4530SOL    HW215423  13.412   6.513  12.239
 4531SOL     OW15424  14.339   7.058  10.955
 4531SOL    HW115425  14.425   7.080  10.920
 4531SOL    HW215426  14.298   7.002  10.889
 4532SOL     OW15427   0.366   2.534   1.098
 4532SOL    HW115428   0.323   2.548   1.013
 4532SOL    HW215429   0.458   2.557   1.082
 4533SOL     OW15430   2.128  10.846  13.037
 4533SOL    HW115431   2.204  10.792  13.054
 4533SOL    HW215432   2.060  10.811  13.094
 4534SOL     OW15433   8.546   5.093   6.373
 4534SOL    HW115434   8.560   5.113   6.465
 4534SOL    HW215435   8.528   5.178   6.332
 4535SOL     OW15436  14.693   4.427  11.495
 4535SOL    HW115437  14.711   4.337  11.523
 4535SOL    HW215438  14.626   4.419  11.428
 4536SOL     OW15439   2.763   4.915   0.263
 4536SOL    HW115440   2.849   4.923   0.221
 4536SOL    HW215441   2.735   5.005   0.278
 4537SOL     OW15442  12.213   8.915   7.087
 4537SOL    HW115443  12.179   8.955   7.167
 4537SOL    HW215444  12.170   8.963   7.016
 4538SOL     OW15445   6.479   7.996   9.131
 4538SOL    HW115446   6.477   8.007   9.036
 4538SOL    HW215447   6.387   7.991   9.157
 4539SOL     OW15448   0.629   7.742  13.232
 4539SOL    HW115449   0.703   7.766  13.288
 4539SOL    HW215450   0.620   7.648  13.243
 4540SOL     OW15451   1.774  14.218  14.476
 4540SOL    HW115452   1.827  14.286  14.433
 4540SOL    HW215453   1.708  14.267  14.526
 4541SOL     OW15454  13.861   1.461   7.420
 4541SOL    HW115455  13.916   1.484   7.345
 4541SOL    HW215456  13.838   1.544   7.459
 4542SOL     OW15457   9.952  13.140  11.519
 4542SOL    HW115458   9.891  13.128  11.591
 4542SOL    HW215459   9.897  13.146  11.441
 4543SOL     OW15460  11.793  12.219  14.824
 4543SOL    HW115461  11.798  12.266  14.741
 4543SOL    HW215462  11.756  12.134  14.801
 4544SOL     OW15463   6.303   2.500  13.739
 4544SOL    HW115464   6.398   2.510  13.747
 4544SOL    HW215465   6.292   2.432  13.672
 4545SOL     OW15466  11.804   1.453   3.745
 4545SOL    HW115467  11.803   1.547   3.759
 4545SOL    HW215468  11.713   1.425   3.760
 4546SOL     OW15469  14.830   4.502   5.758
 4546SOL    HW115470  14.833   4.561   5.833
 4546SOL    HW215471  14.738   4.474   5.753
 4547SOL     OW15472  11.939  13.420   6.226
 4547SOL    HW115473  11.940  13.504   6.274
 4547SOL    HW215474  11.934  13.354   6.295
 4548SOL     OW15475  13.608   7.637   6.104
 4548SOL    HW115476  13.603   7.568   6.170
 4548SOL    HW215477  13.629   7.592   6.022
 4549SOL     OW15478  14.080  10.955  11.399
 4549SOL    HW115479  14.110  10.920  11.315
 4549SOL    HW215480  14.122  11.041  11.405
 4550SOL     OW15481  13.873   6.563   6.571
 4550SOL    HW115482  13.782   6.582   6.593
 4550SOL    HW215483  13.915   6.649   6.567
 4551SOL     OW15484   7.309  12.608  10.473
 4551SOL    HW115485   7.323  12.630  10.381
 4551SOL    HW215486   7.252  12.531  10.471
 4552SOL     OW15487  10.092   5.477   6.253
 4552SOL    HW115488  10.069   5.461   6.161
 4552SOL    HW215489  10.122   5.392   6.286
 4553SOL     OW15490   5.510  14.791  11.441
 4553SOL    HW115491   5.476  14.829  11.522
 4553SOL    HW215492   5.602  14.818  11.439
 4554SOL     OW15493  12.959   6.675   8.907
 4554SOL    HW115494  12.984   6.704   8.995
 4554SOL    HW215495  12.867   6.647   8.916
 4555SOL     OW15496   7.306   1.823   8.891
 4555SOL    HW115497   7.217   1.834   8.922
 4555SOL    HW215498   7.330   1.734   8.917
 4556SOL     OW15499  11.825  12.810   7.452
 4556SOL    HW115500  11.827  12.902   7.481
 4556SOL    HW215501  11.917  12.785   7.447
 4557SOL     OW15502  11.949   1.376   5.003
 4557SOL    HW115503  12.013   1.310   5.029
 4557SOL    HW215504  11.977   1.456   5.049
 4558SOL     OW15505   9.530  12.522  12.405
 4558SOL    HW115506   9.471  12.597  12.397
 4558SOL    HW215507   9.537  12.507  12.500
 4559SOL     OW15508  14.056   5.210  14.762
 4559SOL    HW115509  14.096   5.168  14.839
 4559SOL    HW215510  14.129   5.252  14.717
 4560SOL     OW15511  12.817   0.305   3.943
 4560SOL    HW115512  12.847   0.268   3.860
 4560SOL    HW215513  12.867   0.259   4.010
 4561SOL     OW15514  14.618   2.841   2.349
 4561SOL    HW115515  14.672   2.892   2.288
 4561SOL    HW215516  14.623   2.889   2.431
 4562SOL     OW15517   2.989   5.636   0.252
 4562SOL    HW115518   3.080   5.618   0.276
 4562SOL    HW215519   2.995   5.704   0.185
 4563SOL     OW15520   2.758  11.005   0.241
 4563SOL    HW115521   2.689  11.041   0.297
 4563SOL    HW215522   2.733  10.914   0.227
 4564SOL     OW15523   2.182  12.096   6.502
 4564SOL    HW115524   2.167  12.088   6.596
 4564SOL    HW215525   2.259  12.152   6.495
 4565SOL     OW15526   6.068   4.476  10.534
 4565SOL    HW115527   6.126   4.526  10.476
 4565SOL    HW215528   6.112   4.475  10.618
 4566SOL     OW15529  12.246  11.458   7.054
 4566SOL    HW115530  12.282  11.399   6.987
 4566SOL    HW215531  12.224  11.538   7.007
 4567SOL     OW15532  12.894   0.137  10.218
 4567SOL    HW115533  12.970   0.151  10.274
 4567SOL    HW215534  12.835   0.082  10.271
 4568SOL     OW15535   7.264   2.509  14.241
 4568SOL    HW115536   7.213   2.454  14.301
 4568SOL    HW215537   7.341   2.455  14.219
 4569SOL     OW15538   8.296   5.304   8.429
 4569SOL    HW115539   8.204   5.305   8.401
 4569SOL    HW215540   8.300   5.369   8.500
 4570SOL     OW15541   4.010   4.863   6.492
 4570SOL    HW115542   4.063   4.921   6.546
 4570SOL    HW215543   3.969   4.921   6.427
 4571SOL     OW15544   1.290   5.876   6.469
 4571SOL    HW115545   1.357   5.911   6.528
 4571SOL    HW215546   1.212   5.870   6.523
 4572SOL     OW15547   0.764  10.937  13.418
 4572SOL    HW115548   0.720  10.856  13.393
 4572SOL    HW215549   0.710  10.973  13.489
 4573SOL     OW15550  13.752  10.776   2.375
 4573SOL    HW115551  13.705  10.731   2.305
 4573SOL    HW215552  13.693  10.845   2.404
 4574SOL     OW15553   4.068  13.491  13.248
 4574SOL    HW115554   4.150  13.443  13.262
 4574SOL    HW215555   4.071  13.517  13.156
 4575SOL     OW15556   5.381   9.593   6.402
 4575SOL    HW115557   5.421   9.665   6.451
 4575SOL    HW215558   5.435   9.586   6.323
 4576SOL     OW15559  10.299   5.492  12.827
 4576SOL    HW115560  10.273   5.583  12.840
 4576SOL    HW215561  10.241   5.461  12.757
 4577SOL     OW15562   9.362  11.645  13.846
 4577SOL    HW115563   9.380  11.738  13.835
 4577SOL    HW215564   9.413  11.620  13.923
 4578SOL     OW15565  10.598   8.875  10.160
 4578SOL    HW115566  10.522   8.914  10.203
 4578SOL    HW215567  10.561   8.830  10.084
 4579SOL     OW15568  12.871  14.541   4.146
 4579SOL    HW115569  12.831  14.455   4.156
 4579SOL    HW215570  12.908  14.540   4.058
 4580SOL     OW15571   9.425  12.889   4.831
 4580SOL    HW115572   9.378  12.940   4.897
 4580SOL    HW215573   9.419  12.942   4.751
 4581SOL     OW15574   2.941   6.235   8.828
 4581SOL    HW115575   2.874   6.275   8.772
 4581SOL    HW215576   2.894   6.208   8.906
 4582SOL     OW15577  13.277  13.674   6.460
 4582SOL    HW115578  13.256  13.764   6.488
 4582SOL    HW215579  13.191  13.633   6.447
 4583SOL     OW15580  14.797  14.852   9.494
 4583SOL    HW115581  14.712   0.019   9.514
 4583SOL    HW215582  14.776  14.771   9.447
 4584SOL     OW15583  12.289   8.558   3.323
 4584SOL    HW115584  12.307   8.650   3.345
 4584SOL    HW215585  12.339   8.508   3.386
 4585SOL     OW15586   9.036   4.061   2.981
 4585SOL    HW115587   9.046   3.989   2.918
 4585SOL    HW215588   9.052   4.140   2.930
 4586SOL     OW15589   0.218   9.740   0.582
 4586SOL    HW115590   0.214   9.827   0.541
 4586SOL    HW215591   0.158   9.686   0.531
 4587SOL     OW15592   5.603   6.915   1.783
 4587SOL    HW115593   5.632   6.972   1.712
 4587SOL    HW215594   5.678   6.911   1.843
 4588SOL     OW15595  13.046   5.877   0.646
 4588SOL    HW115596  12.953   5.865   0.669
 4588SOL    HW215597  13.091   5.884   0.730
 4589SOL     OW15598   2.241   1.303   4.421
 4589SOL    HW115599   2.149   1.326   4.431
 4589SOL    HW215600   2.248   1.215   4.458
 4590SOL     OW15601   8.219  10.055   2.573
 4590SOL    HW115602   8.255  10.138   2.604
 4590SOL    HW215603   8.206  10.003   2.652
 4591SOL     OW15604   8.062   8.146   7.595
 4591SOL    HW115605   8.154   8.124   7.580
 4591SOL    HW215606   8.027   8.071   7.643
 4592SOL     OW15607  11.404  13.300   7.496
 4592SOL    HW115608  11.343  13.367   7.464
 4592SOL    HW215609  11.478  13.304   7.436
 4593SOL     OW15610  12.297   9.136   5.656
 4593SOL    HW115611  12.204   9.145   5.675
 4593SOL    HW215612  12.314   9.042   5.656
 4594SOL     OW15613   0.839  11.168  10.302
 4594SOL    HW115614   0.749  11.176  10.332
 4594SOL    HW215615   0.838  11.202  10.213
 4595SOL     OW15616   9.658   6.632   6.338
 4595SOL    HW115617   9.638   6.600   6.250
 4595SOL    HW215618   9.629   6.561   6.396
 4596SOL     OW15619   2.440   6.492   8.405
 4596SOL    HW115620   2.375   6.480   8.473
 4596SOL    HW215621   2.417   6.576   8.364
 4597SOL     OW15622  13.830   6.564   7.055
 4597SOL    HW115623  13.897   6.622   7.088
 4597SOL    HW215624  13.808   6.598   6.968
 4598SOL     OW15625  11.709   9.234   9.225
 4598SOL    HW115626  11.796   9.204   9.196
 4598SOL    HW215627  11.697   9.318   9.181
 4599SOL     OW15628  12.709  11.972  11.132
 4599SOL    HW115629  12.717  12.057  11.174
 4599SOL    HW215630  12.708  11.991  11.038
 4600SOL     OW15631  10.782   3.577  10.270
 4600SOL    HW115632  10.760   3.647  10.208
 4600SOL    HW215633  10.866   3.544  10.239
 4601SOL     OW15634  14.108   6.908   7.625
 4601SOL    HW115635  14.055   6.892   7.547
 4601SOL    HW215636  14.199   6.909   7.593
 4602SOL     OW15637   9.735   7.609   1.017
 4602SOL    HW115638   9.788   7.637   0.942
 4602SOL    HW215639   9.791   7.624   1.093
 4603SOL     OW15640   4.757  14.757  11.524
 4603SOL    HW115641   4.731  14.739  11.614
 4603SOL    HW215642   4.747  14.851  11.514
 4604SOL     OW15643   4.390   8.906   5.010
 4604SOL    HW115644   4.471   8.943   5.047
 4604SOL    HW215645   4.413   8.815   4.991
 4605SOL     OW15646   6.895   9.531  11.204
 4605SOL    HW115647   6.925   9.620  11.188
 4605SOL    HW215648   6.865   9.532  11.295
 4606SOL     OW15649  13.284  12.255   0.644
 4606SOL    HW115650  13.314  12.255   0.735
 4606SOL    HW215651  13.273  12.348   0.623
 4607SOL     OW15652   2.683   4.183  11.921
 4607SOL    HW115653   2.607   4.199  11.865
 4607SOL    HW215654   2.758   4.211  11.868
 4608SOL     OW15655   6.922   8.673   4.453
 4608SOL    HW115656   6.833   8.637   4.455
 4608SOL    HW215657   6.908   8.768   4.451
 4609SOL     OW15658   4.116  10.644   8.096
 4609SOL    HW115659   4.175  10.571   8.079
 4609SOL    HW215660   4.106  10.645   8.191
 4610SOL     OW15661  14.554   7.618  11.943
 4610SOL    HW115662  14.644   7.588  11.933
 4610SOL    HW215663  14.549   7.648  12.033
 4611SOL     OW15664  12.944   2.275   4.321
 4611SOL    HW115665  12.854   2.302   4.303
 4611SOL    HW215666  12.991   2.294   4.239
 4612SOL     OW15667   2.840  12.478   1.568
 4612SOL    HW115668   2.866  12.390   1.541
 4612SOL    HW215669   2.900  12.500   1.639
 4613SOL     OW15670   2.735   5.341   9.277
 4613SOL    HW115671   2.786   5.403   9.225
 4613SOL    HW215672   2.673   5.395   9.325
 4614SOL     OW15673   0.115   2.267   0.608
 4614SOL    HW115674   0.182   2.276   0.676
 4614SOL    HW215675   0.164   2.266   0.526
 4615SOL     OW15676  12.694   7.185  11.639
 4615SOL    HW115677  12.604   7.219  11.638
 4615SOL    HW215678  12.722   7.189  11.548
 4616SOL     OW15679   7.798  12.194   5.187
 4616SOL    HW115680   7.753  12.155   5.262
 4616SOL    HW215681   7.764  12.283   5.182
 4617SOL     OW15682  10.167  12.867   1.076
 4617SOL    HW115683  10.095  12.805   1.080
 4617SOL    HW215684  10.226  12.831   1.010
 4618SOL     OW15685   4.897   8.946   7.077
 4618SOL    HW115686   4.841   9.022   7.062
 4618SOL    HW215687   4.914   8.910   6.990
 4619SOL     OW15688   2.385   0.677   9.904
 4619SOL    HW115689   2.445   0.614   9.941
 4619SOL    HW215690   2.388   0.662   9.810
 4620SOL     OW15691   0.505  10.068  14.060
 4620SOL    HW115692   0.520  10.025  13.976
 4620SOL    HW215693   0.579  10.127  14.071
 4621SOL     OW15694   6.058   2.827  12.748
 4621SOL    HW115695   5.985   2.765  12.742
 4621SOL    HW215696   6.037   2.882  12.824
 4622SOL     OW15697   1.259   0.156   8.011
 4622SOL    HW115698   1.254   0.161   7.915
 4622SOL    HW215699   1.311   0.077   8.028
 4623SOL     OW15700   2.165   5.212   7.150
 4623SOL    HW115701   2.170   5.300   7.188
 4623SOL    HW215702   2.101   5.166   7.204
 4624SOL     OW15703  13.348   8.289  11.295
 4624SOL    HW115704  13.283   8.301  11.364
 4624SOL    HW215705  13.353   8.195  11.282
 4625SOL     OW15706  13.933   9.574  10.108
 4625SOL    HW115707  13.845   9.599  10.137
 4625SOL    HW215708  13.943   9.483  10.136
 4626SOL     OW15709   5.575   0.580   5.845
 4626SOL    HW115710   5.662   0.576   5.886
 4626SOL    HW215711   5.516   0.603   5.916
 4627SOL     OW15712   7.355   5.951   6.195
 4627SOL    HW115713   7.394   5.863   6.190
 4627SOL    HW215714   7.269   5.941   6.154
 4628SOL     OW15715   5.327  11.900  10.767
 4628SOL    HW115716   5.361  11.817  10.734
 4628SOL    HW215717   5.371  11.913  10.851
 4629SOL     OW15718   7.142   0.631   0.527
 4629SOL    HW115719   7.238   0.625   0.530
 4629SOL    HW215720   7.113   0.540   0.522
 4630SOL     OW15721  10.734   1.325   7.169
 4630SOL    HW115722  10.751   1.234   7.145
 4630SOL    HW215723  10.815   1.371   7.146
 4631SOL     OW15724   2.670  11.362   0.539
 4631SOL    HW115725   2.599  11.367   0.604
 4631SOL    HW215726   2.708  11.450   0.539
 4632SOL     OW15727  14.450  13.916   6.514
 4632SOL    HW115728  14.422  13.830   6.544
 4632SOL    HW215729  14.394  13.977   6.562
 4633SOL     OW15730  13.818   9.468   2.427
 4633SOL    HW115731  13.883   9.401   2.409
 4633SOL    HW215732  13.772   9.436   2.505
 4634SOL     OW15733  14.663  14.230  14.174
 4634SOL    HW115734  14.608  14.275  14.238
 4634SOL    HW215735  14.611  14.229  14.094
 4635SOL     OW15736   5.840   5.325  12.235
 4635SOL    HW115737   5.861   5.377  12.312
 4635SOL    HW215738   5.879   5.372  12.162
 4636SOL     OW15739   2.297   1.372  13.849
 4636SOL    HW115740   2.247   1.451  13.871
 4636SOL    HW215741   2.389   1.399  13.859
 4637SOL     OW15742   4.006  10.842   5.867
 4637SOL    HW115743   4.086  10.865   5.913
 4637SOL    HW215744   3.984  10.755   5.900
 4638SOL     OW15745   1.652  10.907  10.336
 4638SOL    HW115746   1.581  10.971  10.328
 4638SOL    HW215747   1.635  10.843  10.268
 4639SOL     OW15748   1.275  14.477   9.498
 4639SOL    HW115749   1.368  14.490   9.517
 4639SOL    HW215750   1.237  14.445   9.580
 4640SOL     OW15751   0.550   9.573  14.366
 4640SOL    HW115752   0.475   9.619  14.405
 4640SOL    HW215753   0.602   9.642  14.325
 4641SOL     OW15754  14.575  10.575  12.626
 4641SOL    HW115755  14.652  10.596  12.572
 4641SOL    HW215756  14.510  10.546  12.562
 4642SOL     OW15757   7.205  14.191   5.765
 4642SOL    HW115758   7.168  14.181   5.853
 4642SOL    HW215759   7.134  14.227   5.713
 4643SOL     OW15760   4.754  10.617   2.886
 4643SOL    HW115761   4.792  10.698   2.852
 4643SOL    HW215762   4.728  10.638   2.975
 4644SOL     OW15763  11.126   9.372   8.040
 4644SOL    HW115764  11.104   9.437   8.107
 4644SOL    HW215765  11.071   9.296   8.061
 4645SOL     OW15766   6.827  11.436   5.520
 4645SOL    HW115767   6.912  11.478   5.517
 4645SOL    HW215768   6.842  11.354   5.566
 4646SOL     OW15769   5.577  14.604  13.904
 4646SOL    HW115770   5.576  14.697  13.882
 4646SOL    HW215771   5.626  14.599  13.985
 4647SOL     OW15772   8.697   5.911  14.693
 4647SOL    HW115773   8.674   5.839  14.634
 4647SOL    HW215774   8.672   5.880  14.780
 4648SOL     OW15775   8.692  12.509   2.873
 4648SOL    HW115776   8.631  12.508   2.947
 4648SOL    HW215777   8.637  12.531   2.797
 4649SOL     OW15778   8.834   8.701   4.115
 4649SOL    HW115779   8.814   8.663   4.201
 4649SOL    HW215780   8.920   8.742   4.126
 4650SOL     OW15781   5.853  13.122  14.527
 4650SOL    HW115782   5.920  13.171  14.479
 4650SOL    HW215783   5.898  13.092  14.607
 4651SOL     OW15784   3.325   6.842  12.875
 4651SOL    HW115785   3.348   6.764  12.926
 4651SOL    HW215786   3.347   6.916  12.932
 4652SOL     OW15787   0.963  11.345  12.484
 4652SOL    HW115788   0.910  11.419  12.515
 4652SOL    HW215789   1.044  11.384  12.452
 4653SOL     OW15790   6.305   2.795  13.650
 4653SOL    HW115791   6.266   2.720  13.696
 4653SOL    HW215792   6.279   2.783  13.559
 4654SOL     OW15793   0.304   7.132  14.262
 4654SOL    HW115794   0.399   7.146  14.258
 4654SOL    HW215795   0.267   7.221  14.262
 4655SOL     OW15796  10.029   0.274  11.850
 4655SOL    HW115797  10.106   0.296  11.797
 4655SOL    HW215798  10.054   0.299  11.939
 4656SOL     OW15799   2.876   4.281  13.005
 4656SOL    HW115800   2.829   4.225  12.944
 4656SOL    HW215801   2.833   4.366  12.998
 4657SOL     OW15802   1.812   9.768  11.900
 4657SOL    HW115803   1.749   9.729  11.962
 4657SOL    HW215804   1.780   9.741  11.814
 4658SOL     OW15805   6.481   1.155  14.104
 4658SOL    HW115806   6.556   1.161  14.163
 4658SOL    HW215807   6.419   1.219  14.138
 4659SOL     OW15808  10.347   2.189   9.553
 4659SOL    HW115809  10.259   2.223   9.537
 4659SOL    HW215810  10.381   2.170   9.465
 4660SOL     OW15811   5.246  12.674   6.642
 4660SOL    HW115812   5.198  12.649   6.721
 4660SOL    HW215813   5.322  12.616   6.640
 4661SOL     OW15814   2.278   1.587   3.451
 4661SOL    HW115815   2.201   1.644   3.441
 4661SOL    HW215816   2.246   1.513   3.502
 4662SOL     OW15817  13.716   3.207   7.889
 4662SOL    HW115818  13.777   3.196   7.962
 4662SOL    HW215819  13.647   3.263   7.924
 4663SOL     OW15820   5.191   9.945   8.185
 4663SOL    HW115821   5.186   9.976   8.276
 4663SOL    HW215822   5.262   9.881   8.186
 4664SOL     OW15823   4.384  14.851  11.734
 4664SOL    HW115824   4.388  14.757  11.752
 4664SOL    HW215825   4.291  14.868  11.718
 4665SOL     OW15826   5.367  13.297  13.454
 4665SOL    HW115827   5.372  13.383  13.412
 4665SOL    HW215828   5.458  13.270  13.465
 4666SOL     OW15829  10.907   8.716   1.685
 4666SOL    HW115830  10.916   8.765   1.603
 4666SOL    HW215831  10.928   8.779   1.754
 4667SOL     OW15832   0.232   5.519  10.166
 4667SOL    HW115833   0.144   5.495  10.137
 4667SOL    HW215834   0.256   5.452  10.230
 4668SOL     OW15835   7.379  13.946   8.354
 4668SOL    HW115836   7.366  14.011   8.285
 4668SOL    HW215837   7.321  13.874   8.330
 4669SOL     OW15838   0.147   3.709   0.835
 4669SOL    HW115839   0.090   3.778   0.870
 4669SOL    HW215840   0.226   3.755   0.808
 4670SOL     OW15841  12.117   5.044   6.845
 4670SOL    HW115842  12.194   5.047   6.787
 4670SOL    HW215843  12.055   4.988   6.800
 4671SOL     OW15844  13.314   0.250  13.043
 4671SOL    HW115845  13.293   0.249  13.137
 4671SOL    HW215846  13.317   0.342  13.020
 4672SOL     OW15847   6.208  11.090   0.323
 4672SOL    HW115848   6.294  11.073   0.361
 4672SOL    HW215849   6.224  11.158   0.257
 4673SOL     OW15850   7.899   4.052   6.339
 4673SOL    HW115851   7.982   4.036   6.384
 4673SOL    HW215852   7.836   3.999   6.386
 4674SOL     OW15853  10.370  12.517   7.132
 4674SOL    HW115854  10.281  12.544   7.154
 4674SOL    HW215855  10.377  12.428   7.165
 4675SOL     OW15856   8.187  10.441   1.556
 4675SOL    HW115857   8.219  10.355   1.585
 4675SOL    HW215858   8.266  10.490   1.533
 4676SOL     OW15859   0.471   5.606   1.802
 4676SOL    HW115860   0.456   5.693   1.840
 4676SOL    HW215861   0.385   5.577   1.773
 4677SOL     OW15862   1.490   3.284   4.480
 4677SOL    HW115863   1.525   3.206   4.436
 4677SOL    HW215864   1.409   3.304   4.432
 4678SOL     OW15865  12.513   7.539  11.918
 4678SOL    HW115866  12.561   7.610  11.960
 4678SOL    HW215867  12.431   7.579  11.887
 4679SOL     OW15868   9.353   3.849  13.097
 4679SOL    HW115869   9.311   3.900  13.028
 4679SOL    HW215870   9.447   3.858  13.080
 4680SOL     OW15871   8.726  12.188   7.216
 4680SOL    HW115872   8.639  12.197   7.178
 4680SOL    HW215873   8.753  12.277   7.236
 4681SOL     OW15874   7.660   5.955  13.554
 4681SOL    HW115875   7.579   5.965  13.505
 4681SOL    HW215876   7.729   5.953  13.488
 4682SOL     OW15877   6.482   3.301   5.721
 4682SOL    HW115878   6.547   3.288   5.651
 4682SOL    HW215879   6.533   3.329   5.797
 4683SOL     OW15880  13.365   7.558   4.808
 4683SOL    HW115881  13.269   7.557   4.809
 4683SOL    HW215882  13.390   7.499   4.880
 4684SOL     OW15883  10.418   3.074   1.637
 4684SOL    HW115884  10.480   3.131   1.591
 4684SOL    HW215885  10.375   3.025   1.567
 4685SOL     OW15886   0.512  10.735   0.459
 4685SOL    HW115887   0.515  10.678   0.382
 4685SOL    HW215888   0.437  10.793   0.442
 4686SOL     OW15889   7.170  12.019   1.974
 4686SOL    HW115890   7.209  12.069   1.902
 4686SOL    HW215891   7.078  12.008   1.948
 4687SOL     OW15892   4.298   3.416  12.186
 4687SOL    HW115893   4.334   3.484  12.129
 4687SOL    HW215894   4.358   3.342  12.176
 4688SOL     OW15895  12.581  11.127   9.321
 4688SOL    HW115896  12.506  11.099   9.372
 4688SOL    HW215897  12.544  11.151   9.236
 4689SOL     OW15898  11.840   5.888   9.998
 4689SOL    HW115899  11.925   5.917   9.966
 4689SOL    HW215900  11.819   5.948  10.069
 4690SOL     OW15901   7.649  14.105   1.360
 4690SOL    HW115902   7.679  14.099   1.269
 4690SOL    HW215903   7.564  14.061   1.360
 4691SOL     OW15904  11.928   0.018  11.581
 4691SOL    HW115905  12.006   0.072  11.566
 4691SOL    HW215906  11.949  14.807  11.539
 4692SOL     OW15907   4.912   6.869   8.697
 4692SOL    HW115908   4.989   6.819   8.670
 4692SOL    HW215909   4.889   6.832   8.782
 4693SOL     OW15910   8.927  14.436   7.467
 4693SOL    HW115911   8.832  14.432   7.465
 4693SOL    HW215912   8.948  14.472   7.553
 4694SOL     OW15913   2.020  12.552  13.251
 4694SOL    HW115914   1.956  12.563  13.321
 4694SOL    HW215915   2.074  12.478  13.279
 4695SOL     OW15916   1.246   0.082   4.164
 4695SOL    HW115917   1.157   0.056   4.189
 4695SOL    HW215918   1.302   0.010   4.194
 4696SOL     OW15919  11.141   7.104   2.633
 4696SOL    HW115920  11.062   7.117   2.580
 4696SOL    HW215921  11.110   7.111   2.723
 4697SOL     OW15922   4.199   2.685   2.206
 4697SOL    HW115923   4.276   2.630   2.198
 4697SOL    HW215924   4.143   2.639   2.269
 4698SOL     OW15925   0.297  13.733  14.306
 4698SOL    HW115926   0.310  13.824  14.334
 4698SOL    HW215927   0.282  13.740  14.211
 4699SOL     OW15928   1.778   8.240   4.845
 4699SOL    HW115929   1.734   8.320   4.818
 4699SOL    HW215930   1.821   8.208   4.765
 4700SOL     OW15931  12.634   0.560  10.714
 4700SOL    HW115932  12.608   0.508  10.790
 4700SOL    HW215933  12.677   0.497  10.656
 4701SOL     OW15934   0.318  12.312   9.362
 4701SOL    HW115935   0.385  12.250   9.333
 4701SOL    HW215936   0.351  12.398   9.335
 4702SOL     OW15937   5.703   6.288   2.969
 4702SOL    HW115938   5.666   6.338   3.042
 4702SOL    HW215939   5.796   6.280   2.991
 4703SOL     OW15940  14.462   1.247  13.041
 4703SOL    HW115941  14.475   1.246  13.136
 4703SOL    HW215942  14.400   1.318  13.026
 4704SOL     OW15943   2.670   0.113   4.249
 4704SOL    HW115944   2.731   0.064   4.304
 4704SOL    HW215945   2.594   0.056   4.239
 4705SOL     OW15946  14.870   2.645   4.749
 4705SOL    HW115947  14.821   2.692   4.816
 4705SOL    HW215948   0.076   2.613   4.794
 4706SOL     OW15949  10.297  10.259   5.695
 4706SOL    HW115950  10.205  10.277   5.715
 4706SOL    HW215951  10.296  10.176   5.648
 4707SOL     OW15952  13.866   0.001   1.712
 4707SOL    HW115953  13.850  14.857   1.620
 4707SOL    HW215954  13.836   0.090   1.727
 4708SOL     OW15955   5.598   3.627  12.963
 4708SOL    HW115956   5.579   3.673  12.882
 4708SOL    HW215957   5.694   3.628  12.970
 4709SOL     OW15958   7.890   2.750  12.680
 4709SOL    HW115959   7.914   2.780  12.768
 4709SOL    HW215960   7.801   2.782  12.668
 4710SOL     OW15961  13.527  14.525  14.498
 4710SOL    HW115962  13.605  14.561  14.454
 4710SOL    HW215963  13.458  14.589  14.479
 4711SOL     OW15964   9.605   3.125   1.839
 4711SOL    HW115965   9.654   3.081   1.769
 4711SOL    HW215966   9.530   3.164   1.795
 4712SOL     OW15967   1.730   5.062   7.383
 4712SOL    HW115968   1.722   5.141   7.436
 4712SOL    HW215969   1.651   5.012   7.402
 4713SOL     OW15970   1.980  12.937   8.667
 4713SOL    HW115971   1.968  12.899   8.580
 4713SOL    HW215972   1.898  12.981   8.686
 4714SOL     OW15973   7.632   7.333   9.155
 4714SOL    HW115974   7.718   7.316   9.194
 4714SOL    HW215975   7.648   7.397   9.087
 4715SOL     OW15976   0.311  11.732  10.719
 4715SOL    HW115977   0.267  11.685  10.790
 4715SOL    HW215978   0.322  11.821  10.752
 4716SOL     OW15979   2.089  12.163   2.836
 4716SOL    HW115980   2.118  12.151   2.745
 4716SOL    HW215981   1.995  12.149   2.833
 4717SOL     OW15982   3.624   9.441  13.746
 4717SOL    HW115983   3.545   9.449  13.693
 4717SOL    HW215984   3.689   9.403  13.688
 4718SOL     OW15985   8.452  12.949   1.232
 4718SOL    HW115986   8.396  12.929   1.157
 4718SOL    HW215987   8.538  12.968   1.193
 4719SOL     OW15988  13.102   7.075   1.456
 4719SOL    HW115989  13.105   6.980   1.445
 4719SOL    HW215990  13.124   7.110   1.369
 4720SOL     OW15991  14.228  13.429  12.639
 4720SOL    HW115992  14.138  13.429  12.671
 4720SOL    HW215993  14.256  13.520  12.645
 4721SOL     OW15994   3.963  10.685   8.963
 4721SOL    HW115995   4.020  10.750   8.923
 4721SOL    HW215996   3.983  10.603   8.917
 4722SOL     OW15997   0.595   0.942  10.190
 4722SOL    HW115998   0.556   0.903  10.112
 4722SOL    HW215999   0.523   0.987  10.234
 4723SOL     OW16000   0.052   7.858   2.987
 4723SOL    HW116001   0.063   7.931   2.926
 4723SOL    HW216002  14.863   7.890   3.052
 4724SOL     OW16003  10.537  10.799  11.230
 4724SOL    HW116004  10.481  10.784  11.306
 4724SOL    HW216005  10.476  10.818  11.159
 4725SOL     OW16006   0.995   3.317   0.521
 4725SOL    HW116007   0.964   3.250   0.582
 4725SOL    HW216008   1.090   3.313   0.527
 4726SOL     OW16009   6.975  12.293   7.641
 4726SOL    HW116010   7.030  12.346   7.698
 4726SOL    HW216011   7.012  12.304   7.554
 4727SOL     OW16012  14.766   6.679   8.821
 4727SOL    HW116013  14.768   6.716   8.733
 4727SOL    HW216014  14.751   6.753   8.879
 4728SOL     OW16015  13.652   3.870  10.770
 4728SOL    HW116016  13.693   3.953  10.794
 4728SOL    HW216017  13.562   3.878  10.801
 4729SOL     OW16018  12.067   8.973   6.856
 4729SOL    HW116019  12.118   9.054   6.857
 4729SOL    HW216020  12.034   8.967   6.766
 4730SOL     OW16021   0.003   9.968   5.482
 4730SOL    HW116022  14.801   9.962   5.542
 4730SOL    HW216023   0.027   9.877   5.464
 4731SOL     OW16024   3.927   3.569   3.427
 4731SOL    HW116025   3.898   3.497   3.483
 4731SOL    HW216026   3.894   3.648   3.470
 4732SOL     OW16027   8.337  10.593   8.922
 4732SOL    HW116028   8.408  10.590   8.986
 4732SOL    HW216029   8.380  10.591   8.837
 4733SOL     OW16030   7.212   8.754   0.783
 4733SOL    HW116031   7.275   8.682   0.789
 4733SOL    HW216032   7.256   8.820   0.730
 4734SOL     OW16033  10.099   9.164  11.566
 4734SOL    HW116034  10.020   9.218  11.575
 4734SOL    HW216035  10.164   9.222  11.528
 4735SOL     OW16036   3.840  11.588  13.336
 4735SOL    HW116037   3.875  11.674  13.358
 4735SOL    HW216038   3.772  11.571  13.402
 4736SOL     OW16039   3.285   5.413  10.456
 4736SOL    HW116040   3.360   5.459  10.493
 4736SOL    HW216041   3.291   5.431  10.362
 4737SOL     OW16042   2.919   3.015   9.919
 4737SOL    HW116043   2.843   3.016   9.978
 4737SOL    HW216044   2.988   2.971   9.968
 4738SOL     OW16045  14.819  12.029   2.322
 4738SOL    HW116046  14.817  11.934   2.338
 4738SOL    HW216047   0.038  12.053   2.335
 4739SOL     OW16048   6.250   2.590   1.179
 4739SOL    HW116049   6.160   2.559   1.164
 4739SOL    HW216050   6.260   2.665   1.120
 4740SOL     OW16051  10.523  14.814  13.811
 4740SOL    HW116052  10.479  14.766  13.741
 4740SOL    HW216053  10.616  14.812  13.787
 4741SOL     OW16054   2.805   1.427  12.362
 4741SOL    HW116055   2.879   1.367  12.360
 4741SOL    HW216056   2.799   1.455  12.454
 4742SOL     OW16057   1.389   5.774   6.882
 4742SOL    HW116058   1.389   5.784   6.787
 4742SOL    HW216059   1.297   5.787   6.907
 4743SOL     OW16060   5.894  10.289   2.525
 4743SOL    HW116061   5.867  10.204   2.490
 4743SOL    HW216062   5.987  10.296   2.502
 4744SOL     OW16063   0.711  10.580  14.053
 4744SOL    HW116064   0.677  10.649  13.996
 4744SOL    HW216065   0.653  10.580  14.128
 4745SOL     OW16066   4.028  12.507   3.029
 4745SOL    HW116067   4.109  12.472   2.991
 4745SOL    HW216068   4.056  12.545   3.113
 4746SOL     OW16069   2.231   9.111   6.491
 4746SOL    HW116070   2.150   9.061   6.484
 4746SOL    HW216071   2.202   9.202   6.502
 4747SOL     OW16072   3.404   7.924   7.390
 4747SOL    HW116073   3.378   8.005   7.434
 4747SOL    HW216074   3.424   7.864   7.462
 4748SOL     OW16075   5.790   4.846   9.833
 4748SOL    HW116076   5.838   4.778   9.785
 4748SOL    HW216077   5.748   4.897   9.764
 4749SOL     OW16078  13.842   2.487   2.206
 4749SOL    HW116079  13.785   2.452   2.275
 4749SOL    HW216080  13.930   2.463   2.233
 4750SOL     OW16081  13.175  11.523   0.721
 4750SOL    HW116082  13.114  11.590   0.692
 4750SOL    HW216083  13.236  11.569   0.778
 4751SOL     OW16084   9.212   9.444  12.384
 4751SOL    HW116085   9.250   9.515  12.332
 4751SOL    HW216086   9.179   9.382  12.319
 4752SOL     OW16087   7.976  12.672  12.416
 4752SOL    HW116088   7.925  12.648  12.494
 4752SOL    HW216089   7.982  12.592  12.365
 4753SOL     OW16090  11.078   0.578  13.431
 4753SOL    HW116091  11.059   0.518  13.503
 4753SOL    HW216092  11.082   0.664  13.473
 4754SOL     OW16093   6.493   9.833   3.569
 4754SOL    HW116094   6.533   9.818   3.483
 4754SOL    HW216095   6.547   9.782   3.630
 4755SOL     OW16096  10.420   1.060   6.624
 4755SOL    HW116097  10.369   0.992   6.669
 4755SOL    HW216098  10.363   1.136   6.622
 4756SOL     OW16099   7.050  10.039  12.137
 4756SOL    HW116100   7.046  10.071  12.047
 4756SOL    HW216101   7.045   9.944  12.129
 4757SOL     OW16102   9.057   3.123   6.888
 4757SOL    HW116103   9.018   3.206   6.861
 4757SOL    HW216104   9.008   3.097   6.966
 4758SOL     OW16105  12.150   0.456  10.814
 4758SOL    HW116106  12.224   0.431  10.759
 4758SOL    HW216107  12.076   0.465  10.754
 4759SOL     OW16108  13.894  13.236   1.186
 4759SOL    HW116109  13.832  13.308   1.198
 4759SOL    HW216110  13.846  13.173   1.132
 4760SOL     OW16111   1.976  11.284  10.892
 4760SOL    HW116112   2.035  11.322  10.958
 4760SOL    HW216113   2.014  11.310  10.808
 4761SOL     OW16114   5.816   5.209   9.472
 4761SOL    HW116115   5.867   5.206   9.391
 4761SOL    HW216116   5.744   5.269   9.453
 4762SOL     OW16117   2.312   4.247   5.884
 4762SOL    HW116118   2.322   4.225   5.977
 4762SOL    HW216119   2.362   4.180   5.838
 4763SOL     OW16120   6.909  11.797   8.481
 4763SOL    HW116121   6.924  11.786   8.387
 4763SOL    HW216122   6.820  11.831   8.487
 4764SOL     OW16123  10.391  12.672   6.893
 4764SOL    HW116124  10.455  12.744   6.902
 4764SOL    HW216125  10.424  12.603   6.951
 4765SOL     OW16126   6.162   4.238  14.514
 4765SOL    HW116127   6.206   4.163  14.474
 4765SOL    HW216128   6.230   4.306  14.516
 4766SOL     OW16129  12.890   8.371   7.701
 4766SOL    HW116130  12.980   8.340   7.689
 4766SOL    HW216131  12.845   8.297   7.741
 4767SOL     OW16132   1.165  12.303   1.190
 4767SOL    HW116133   1.169  12.326   1.283
 4767SOL    HW216134   1.219  12.369   1.147
 4768SOL     OW16135  13.678   5.722  13.816
 4768SOL    HW116136  13.754   5.762  13.859
 4768SOL    HW216137  13.707   5.707  13.726
 4769SOL     OW16138  11.365   3.139   7.066
 4769SOL    HW116139  11.409   3.126   6.982
 4769SOL    HW216140  11.384   3.230   7.089
 4770SOL     OW16141  11.069   1.852   4.627
 4770SOL    HW116142  11.112   1.904   4.696
 4770SOL    HW216143  11.023   1.783   4.675
 4771SOL     OW16144  12.479   3.485   9.120
 4771SOL    HW116145  12.389   3.489   9.086
 4771SOL    HW216146  12.511   3.399   9.091
 4772SOL     OW16147   5.686   4.875  10.485
 4772SOL    HW116148   5.650   4.910  10.403
 4772SOL    HW216149   5.732   4.796  10.458
 4773SOL     OW16150  13.942   9.101   5.496
 4773SOL    HW116151  14.020   9.079   5.445
 4773SOL    HW216152  13.943   9.197   5.500
 4774SOL     OW16153  11.822  12.174   2.640
 4774SOL    HW116154  11.811  12.099   2.581
 4774SOL    HW216155  11.885  12.144   2.705
 4775SOL     OW16156  12.840   2.301  10.478
 4775SOL    HW116157  12.770   2.344  10.527
 4775SOL    HW216158  12.880   2.371  10.427
 4776SOL     OW16159  13.681  13.825  10.221
 4776SOL    HW116160  13.601  13.808  10.171
 4776SOL    HW216161  13.652  13.825  10.312
 4777SOL     OW16162  13.206  13.625   6.772
 4777SOL    HW116163  13.253  13.703   6.803
 4777SOL    HW216164  13.274  13.559   6.761
 4778SOL     OW16165   6.028  14.079  10.946
 4778SOL    HW116166   5.949  14.132  10.946
 4778SOL    HW216167   6.083  14.116  11.015
 4779SOL     OW16168  13.799  10.878   0.006
 4779SOL    HW116169  13.820  10.941  14.809
 4779SOL    HW216170  13.727  10.918   0.055
 4780SOL     OW16171  13.676  13.300   4.447
 4780SOL    HW116172  13.765  13.270   4.433
 4780SOL    HW216173  13.626  13.263   4.374
 4781SOL     OW16174   5.835  11.750   3.522
 4781SOL    HW116175   5.892  11.675   3.508
 4781SOL    HW216176   5.859  11.813   3.454
 4782SOL     OW16177   1.464   1.535   6.741
 4782SOL    HW116178   1.430   1.528   6.651
 4782SOL    HW216179   1.427   1.459   6.786
 4783SOL     OW16180   7.962   8.931   8.457
 4783SOL    HW116181   7.965   8.994   8.529
 4783SOL    HW216182   7.874   8.940   8.421
 4784SOL     OW16183   4.638   8.300   3.304
 4784SOL    HW116184   4.608   8.281   3.393
 4784SOL    HW216185   4.731   8.280   3.305
 4785SOL     OW16186  12.851  12.410   7.581
 4785SOL    HW116187  12.805  12.493   7.588
 4785SOL    HW216188  12.839  12.368   7.666
 4786SOL     OW16189  13.735   6.269   6.734
 4786SOL    HW116190  13.666   6.322   6.694
 4786SOL    HW216191  13.793   6.247   6.662
 4787SOL     OW16192  11.507   9.812  12.094
 4787SOL    HW116193  11.430   9.762  12.121
 4787SOL    HW216194  11.479   9.903  12.097
 4788SOL     OW16195  10.430   0.167  14.708
 4788SOL    HW116196  10.516   0.205  14.694
 4788SOL    HW216197  10.370   0.241  14.710
 4789SOL     OW16198   7.902   6.901   0.885
 4789SOL    HW116199   7.959   6.843   0.936
 4789SOL    HW216200   7.949   6.914   0.802
 4790SOL     OW16201  14.155   1.591   8.703
 4790SOL    HW116202  14.193   1.638   8.628
 4790SOL    HW216203  14.220   1.524   8.724
 4791SOL     OW16204   9.563  10.203   4.236
 4791SOL    HW116205   9.658  10.206   4.224
 4791SOL    HW216206   9.538  10.293   4.256
 4792SOL     OW16207  11.781   2.731  10.054
 4792SOL    HW116208  11.742   2.674   9.988
 4792SOL    HW216209  11.706   2.767  10.102
 4793SOL     OW16210  13.228   0.358   9.592
 4793SOL    HW116211  13.216   0.420   9.663
 4793SOL    HW216212  13.190   0.276   9.625
 4794SOL     OW16213   8.941   7.080  12.877
 4794SOL    HW116214   8.999   7.019  12.830
 4794SOL    HW216215   8.922   7.035  12.959
 4795SOL     OW16216   7.436   7.940  10.971
 4795SOL    HW116217   7.363   7.981  11.018
 4795SOL    HW216218   7.512   7.954  11.028
 4796SOL     OW16219   0.741   5.369   3.327
 4796SOL    HW116220   0.723   5.400   3.238
 4796SOL    HW216221   0.792   5.289   3.315
 4797SOL     OW16222   1.205  12.312   3.909
 4797SOL    HW116223   1.217  12.250   3.836
 4797SOL    HW216224   1.138  12.373   3.877
 4798SOL     OW16225   4.314   2.440  11.406
 4798SOL    HW116226   4.247   2.466  11.469
 4798SOL    HW216227   4.324   2.517  11.349
 4799SOL     OW16228   4.299  14.235   3.421
 4799SOL    HW116229   4.302  14.264   3.330
 4799SOL    HW216230   4.344  14.304   3.469
 4800SOL     OW16231   5.671   2.505   4.594
 4800SOL    HW116232   5.615   2.455   4.652
 4800SOL    HW216233   5.640   2.485   4.506
 4801SOL     OW16234   8.985   0.530   6.489
 4801SOL    HW116235   9.002   0.436   6.484
 4801SOL    HW216236   8.964   0.556   6.400
 4802SOL     OW16237   4.824  10.481   0.087
 4802SOL    HW116238   4.789  10.566   0.116
 4802SOL    HW216239   4.819  10.485  14.863
 4803SOL     OW16240  10.048   8.149  11.144
 4803SOL    HW116241  10.144   8.142  11.142
 4803SOL    HW216242  10.018   8.062  11.119
 4804SOL     OW16243   8.573   8.803   2.309
 4804SOL    HW116244   8.656   8.806   2.357
 4804SOL    HW216245   8.518   8.867   2.353
 4805SOL     OW16246  10.807   9.725  10.018
 4805SOL    HW116247  10.882   9.671  10.042
 4805SOL    HW216248  10.822   9.748   9.926
 4806SOL     OW16249  11.904   4.557   1.110
 4806SOL    HW116250  11.965   4.573   1.038
 4806SOL    HW216251  11.958   4.565   1.189
 4807SOL     OW16252   8.737   5.635   0.685
 4807SOL    HW116253   8.807   5.571   0.692
 4807SOL    HW216254   8.769   5.700   0.623
 4808SOL     OW16255  11.347   7.388   0.191
 4808SOL    HW116256  11.441   7.407   0.190
 4808SOL    HW216257  11.342   7.293   0.176
 4809SOL     OW16258  12.087  14.849  14.136
 4809SOL    HW116259  12.133  14.857  14.052
 4809SOL    HW216260  12.012  14.792  14.116
 4810SOL     OW16261   4.537  13.132  13.889
 4810SOL    HW116262   4.474  13.060  13.900
 4810SOL    HW216263   4.524  13.187  13.966
 4811SOL     OW16264  11.360   6.844   2.653
 4811SOL    HW116265  11.447   6.821   2.623
 4811SOL    HW216266  11.375   6.894   2.734
 4812SOL     OW16267  13.981   2.178   5.032
 4812SOL    HW116268  14.005   2.116   4.963
 4812SOL    HW216269  13.894   2.210   5.006
 4813SOL     OW16270   7.785  11.334  12.485
 4813SOL    HW116271   7.823  11.380  12.559
 4813SOL    HW216272   7.856  11.280  12.451
 4814SOL     OW16273   1.895   2.067  14.121
 4814SOL    HW116274   1.842   2.081  14.199
 4814SOL    HW216275   1.887   2.149  14.071
 4815SOL     OW16276  11.083  11.937  14.676
 4815SOL    HW116277  11.040  11.943  14.591
 4815SOL    HW216278  11.041  12.005  14.729
 4816SOL     OW16279   1.398   9.464   0.571
 4816SOL    HW116280   1.365   9.385   0.528
 4816SOL    HW216281   1.385   9.447   0.664
 4817SOL     OW16282  14.282   7.205   0.269
 4817SOL    HW116283  14.234   7.203   0.352
 4817SOL    HW216284  14.297   7.113   0.248
 4818SOL     OW16285  14.386   8.172   0.998
 4818SOL    HW116286  14.343   8.225   1.066
 4818SOL    HW216287  14.320   8.108   0.973
 4819SOL     OW16288   5.143   3.068  14.473
 4819SOL    HW116289   5.215   3.017  14.510
 4819SOL    HW216290   5.130   3.141  14.533
 4820SOL     OW16291   1.956  12.582  14.368
 4820SOL    HW116292   1.900  12.505  14.381
 4820SOL    HW216293   1.936  12.611  14.279
 4821SOL     OW16294   4.123   3.831   8.031
 4821SOL    HW116295   4.088   3.860   8.115
 4821SOL    HW216296   4.147   3.739   8.044
 4822SOL     OW16297   8.012   4.841   0.286
 4822SOL    HW116298   7.970   4.757   0.304
 4822SOL    HW216299   8.106   4.821   0.285
 4823SOL     OW16300  11.022  12.987   1.231
 4823SOL    HW116301  11.097  13.032   1.192
 4823SOL    HW216302  11.043  12.981   1.324
 4824SOL     OW16303   0.930  10.348   0.737
 4824SOL    HW116304   0.863  10.399   0.690
 4824SOL    HW216305   0.981  10.414   0.784
 4825SOL     OW16306   0.435  10.897  13.865
 4825SOL    HW116307   0.520  10.918  13.904
 4825SOL    HW216308   0.371  10.941  13.921
 4826SOL     OW16309   1.663  10.447   8.941
 4826SOL    HW116310   1.688  10.517   9.000
 4826SOL    HW216311   1.746  10.405   8.916
 4827SOL     OW16312   4.970  10.312  12.092
 4827SOL    HW116313   4.938  10.332  12.180
 4827SOL    HW216314   5.036  10.245  12.105
 4828SOL     OW16315   8.041   6.324  13.337
 4828SOL    HW116316   8.074   6.345  13.249
 4828SOL    HW216317   7.986   6.247  13.324
 4829SOL     OW16318  13.454   0.766  14.542
 4829SOL    HW116319  13.530   0.710  14.562
 4829SOL    HW216320  13.396   0.754  14.617
 4830SOL     OW16321   7.221   7.813  11.977
 4830SOL    HW116322   7.214   7.717  11.977
 4830SOL    HW216323   7.199   7.838  11.887
 4831SOL     OW16324   7.339   3.107   2.760
 4831SOL    HW116325   7.281   3.132   2.688
 4831SOL    HW216326   7.360   3.015   2.743
 4832SOL     OW16327   0.334  14.106   9.017
 4832SOL    HW116328   0.408  14.113   8.957
 4832SOL    HW216329   0.373  14.100   9.104
 4833SOL     OW16330   9.305   1.554   1.626
 4833SOL    HW116331   9.395   1.582   1.644
 4833SOL    HW216332   9.298   1.556   1.530
 4834SOL     OW16333   0.513  12.227  12.878
 4834SOL    HW116334   0.530  12.148  12.929
 4834SOL    HW216335   0.592  12.280  12.890
 4835SOL     OW16336   4.053  12.332   5.473
 4835SOL    HW116337   4.048  12.408   5.415
 4835SOL    HW216338   3.984  12.273   5.443
 4836SOL     OW16339   9.612   7.123   2.270
 4836SOL    HW116340   9.626   7.121   2.364
 4836SOL    HW216341   9.566   7.205   2.254
 4837SOL     OW16342   8.051   2.664   6.991
 4837SOL    HW116343   8.019   2.748   6.958
 4837SOL    HW216344   8.001   2.598   6.942
 4838SOL     OW16345   8.805   2.566  11.673
 4838SOL    HW116346   8.841   2.574  11.585
 4838SOL    HW216347   8.843   2.638  11.722
 4839SOL     OW16348   8.200  14.544   3.479
 4839SOL    HW116349   8.217  14.629   3.521
 4839SOL    HW216350   8.228  14.479   3.543
 4840SOL     OW16351   2.934  13.353  12.523
 4840SOL    HW116352   2.978  13.274  12.492
 4840SOL    HW216353   3.002  13.420  12.521
 4841SOL     OW16354  12.200   7.103  13.322
 4841SOL    HW116355  12.105   7.109  13.312
 4841SOL    HW216356  12.213   7.027  13.378
 4842SOL     OW16357   3.795   0.880   5.096
 4842SOL    HW116358   3.872   0.839   5.137
 4842SOL    HW216359   3.721   0.827   5.127
 4843SOL     OW16360   5.036   6.407   2.119
 4843SOL    HW116361   5.040   6.341   2.051
 4843SOL    HW216362   5.117   6.457   2.108
 4844SOL     OW16363   3.407  10.128   8.776
 4844SOL    HW116364   3.390  10.098   8.865
 4844SOL    HW216365   3.502  10.120   8.766
 4845SOL     OW16366   6.634   1.876  13.870
 4845SOL    HW116367   6.717   1.921  13.858
 4845SOL    HW216368   6.603   1.858  13.781
 4846SOL     OW16369   3.873  10.890  11.217
 4846SOL    HW116370   3.895  10.981  11.200
 4846SOL    HW216371   3.926  10.841  11.154
 4847SOL     OW16372   9.949   9.869  11.283
 4847SOL    HW116373   9.906   9.839  11.203
 4847SOL    HW216374   9.877   9.896  11.340
 4848SOL     OW16375   6.811   6.385   4.143
 4848SOL    HW116376   6.777   6.363   4.229
 4848SOL    HW216377   6.856   6.469   4.156
 4849SOL     OW16378   8.020   5.795  13.162
 4849SOL    HW116379   7.935   5.830  13.134
 4849SOL    HW216380   8.061   5.765  13.081
 4850SOL     OW16381   6.247  11.366   6.496
 4850SOL    HW116382   6.243  11.359   6.400
 4850SOL    HW216383   6.156  11.351   6.524
 4851SOL     OW16384   8.742   3.752   8.960
 4851SOL    HW116385   8.647   3.764   8.964
 4851SOL    HW216386   8.768   3.735   9.051
 4852SOL     OW16387   4.097   1.911   4.311
 4852SOL    HW116388   4.077   1.839   4.372
 4852SOL    HW216389   4.036   1.981   4.336
 4853SOL     OW16390   1.133   4.284   1.518
 4853SOL    HW116391   1.047   4.243   1.507
 4853SOL    HW216392   1.141   4.345   1.445
 4854SOL     OW16393   6.046   8.345  12.641
 4854SOL    HW116394   6.029   8.425  12.591
 4854SOL    HW216395   6.140   8.331  12.633
 4855SOL     OW16396   1.101   3.820   3.439
 4855SOL    HW116397   1.055   3.833   3.356
 4855SOL    HW216398   1.033   3.828   3.506
 4856SOL     OW16399   8.630   2.883  11.475
 4856SOL    HW116400   8.630   2.788  11.465
 4856SOL    HW216401   8.560   2.913  11.417
 4857SOL     OW16402  13.710  12.361   2.453
 4857SOL    HW116403  13.651  12.397   2.387
 4857SOL    HW216404  13.781  12.425   2.459
 4858SOL     OW16405   3.082  10.343   9.077
 4858SOL    HW116406   3.086  10.320   9.170
 4858SOL    HW216407   3.173  10.353   9.051
 4859SOL     OW16408   9.670   2.885  10.879
 4859SOL    HW116409   9.729   2.816  10.908
 4859SOL    HW216410   9.691   2.960  10.934
 4860SOL     OW16411   7.259   5.839   9.159
 4860SOL    HW116412   7.331   5.851   9.220
 4860SOL    HW216413   7.203   5.772   9.200
 4861SOL     OW16414  12.467  12.427  10.860
 4861SOL    HW116415  12.413  12.426  10.782
 4861SOL    HW216416  12.419  12.481  10.923
 4862SOL     OW16417  11.434   5.340  14.810
 4862SOL    HW116418  11.358   5.364  14.863
 4862SOL    HW216419  11.503   5.323   0.002
 4863SOL     OW16420   3.884   1.342   3.806
 4863SOL    HW116421   3.978   1.332   3.816
 4863SOL    HW216422   3.848   1.254   3.812
 4864SOL     OW16423   9.602   2.849   1.900
 4864SOL    HW116424   9.697   2.838   1.911
 4864SOL    HW216425   9.588   2.942   1.918
 4865SOL     OW16426   0.182   3.837   9.023
 4865SOL    HW116427   0.122   3.897   8.978
 4865SOL    HW216428   0.140   3.752   9.018
 4866SOL     OW16429   1.225  12.335  11.180
 4866SOL    HW116430   1.211  12.415  11.130
 4866SOL    HW216431   1.267  12.365  11.261
 4867SOL     OW16432   1.307   3.574   9.454
 4867SOL    HW116433   1.315   3.479   9.460
 4867SOL    HW216434   1.224   3.588   9.408
 4868SOL     OW16435  14.055  14.818  13.119
 4868SOL    HW116436  13.982  14.808  13.180
 4868SOL    HW216437  14.021   0.003  13.050
 4869SOL     OW16438   7.510   2.022   4.363
 4869SOL    HW116439   7.595   2.047   4.326
 4869SOL    HW216440   7.528   1.942   4.412
 4870SOL     OW16441   9.737   0.195   5.918
 4870SOL    HW116442   9.806   0.129   5.923
 4870SOL    HW216443   9.779   0.272   5.881
 4871SOL     OW16444   9.510   3.476   2.543
 4871SOL    HW116445   9.552   3.518   2.469
 4871SOL    HW216446   9.463   3.401   2.505
 4872SOL     OW16447   7.684   3.776  10.359
 4872SOL    HW116448   7.745   3.732  10.301
 4872SOL    HW216449   7.628   3.706  10.393
 4873SOL     OW16450   5.904   1.871  10.284
 4873SOL    HW116451   5.814   1.896  10.304
 4873SOL    HW216452   5.906   1.776  10.291
 4874SOL     OW16453   3.368   4.859  13.481
 4874SOL    HW116454   3.436   4.924  13.461
 4874SOL    HW216455   3.306   4.867  13.408
 4875SOL     OW16456   1.572   1.359  12.209
 4875SOL    HW116457   1.600   1.385  12.122
 4875SOL    HW216458   1.546   1.268  12.200
 4876SOL     OW16459   6.343  11.952  14.038
 4876SOL    HW116460   6.277  12.019  14.022
 4876SOL    HW216461   6.410  11.968  13.971
 4877SOL     OW16462   9.436   3.200   7.867
 4877SOL    HW116463   9.446   3.207   7.962
 4877SOL    HW216464   9.509   3.143   7.840
 4878SOL     OW16465  12.107   1.330   6.345
 4878SOL    HW116466  12.030   1.328   6.401
 4878SOL    HW216467  12.119   1.239   6.316
 4879SOL     OW16468  11.974   1.317   0.970
 4879SOL    HW116469  11.892   1.365   0.959
 4879SOL    HW216470  12.039   1.385   0.988
 4880SOL     OW16471  13.256   1.114  13.086
 4880SOL    HW116472  13.231   1.117  12.993
 4880SOL    HW216473  13.189   1.165  13.130
 4881SOL     OW16474   6.900   8.816   7.697
 4881SOL    HW116475   6.823   8.865   7.726
 4881SOL    HW216476   6.864   8.749   7.638
 4882SOL     OW16477   0.297   6.971  11.109
 4882SOL    HW116478   0.208   6.940  11.125
 4882SOL    HW216479   0.290   7.066  11.103
 4883SOL     OW16480  10.066   4.247  13.296
 4883SOL    HW116481  10.077   4.265  13.203
 4883SOL    HW216482  10.144   4.285  13.337
 4884SOL     OW16483   1.459  14.235   2.637
 4884SOL    HW116484   1.460  14.272   2.548
 4884SOL    HW216485   1.480  14.308   2.694
 4885SOL     OW16486  10.229   3.936   0.683
 4885SOL    HW116487  10.246   4.015   0.632
 4885SOL    HW216488  10.289   3.942   0.757
 4886SOL     OW16489   8.524  13.793   0.323
 4886SOL    HW116490   8.514  13.738   0.400
 4886SOL    HW216491   8.437  13.833   0.310
 4887SOL     OW16492   1.007  10.319   1.879
 4887SOL    HW116493   1.000  10.242   1.936
 4887SOL    HW216494   1.088  10.362   1.905
 4888SOL     OW16495   1.505   8.113   3.514
 4888SOL    HW116496   1.532   8.136   3.425
 4888SOL    HW216497   1.583   8.122   3.567
 4889SOL     OW16498   9.365   9.770   3.276
 4889SOL    HW116499   9.299   9.722   3.326
 4889SOL    HW216500   9.378   9.716   3.198
 4890SOL     OW16501  11.397   0.582   0.185
 4890SOL    HW116502  11.318   0.628   0.214
 4890SOL    HW216503  11.468   0.643   0.202
 4891SOL     OW16504   3.907   6.148   2.471
 4891SOL    HW116505   3.966   6.091   2.422
 4891SOL    HW216506   3.902   6.108   2.558
 4892SOL     OW16507   3.043   2.487  11.616
 4892SOL    HW116508   3.019   2.566  11.567
 4892SOL    HW216509   2.981   2.421  11.586
 4893SOL     OW16510   0.897   2.137  11.195
 4893SOL    HW116511   0.802   2.129  11.189
 4893SOL    HW216512   0.930   2.054  11.162
 4894SOL     OW16513  11.468   2.771   9.596
 4894SOL    HW116514  11.473   2.683   9.557
 4894SOL    HW216515  11.484   2.757   9.689
 4895SOL     OW16516   3.766   2.282  14.754
 4895SOL    HW116517   3.789   2.190  14.767
 4895SOL    HW216518   3.809   2.307  14.672
 4896SOL     OW16519   1.321   2.650  14.321
 4896SOL    HW116520   1.393   2.650  14.385
 4896SOL    HW216521   1.343   2.578  14.262
 4897SOL     OW16522  12.710   5.749   3.769
 4897SOL    HW116523  12.622   5.781   3.787
 4897SOL    HW216524  12.702   5.654   3.771
 4898SOL     OW16525   9.696   5.389  11.414
 4898SOL    HW116526   9.755   5.344  11.353
 4898SOL    HW216527   9.613   5.341  11.407
 4899SOL     OW16528   0.103  14.503   4.864
 4899SOL    HW116529   0.131  14.445   4.793
 4899SOL    HW216530   0.013  14.526   4.841
 4900SOL     OW16531   1.513   8.360  10.819
 4900SOL    HW116532   1.575   8.332  10.752
 4900SOL    HW216533   1.477   8.278  10.853
 4901SOL     OW16534   1.851   0.054  14.859
 4901SOL    HW116535   1.775   0.110  14.840
 4901SOL    HW216536   1.840   0.029   0.078
 4902SOL     OW16537   0.494   0.633   9.447
 4902SOL    HW116538   0.424   0.647   9.383
 4902SOL    HW216539   0.488   0.707   9.507
 4903SOL     OW16540   2.465   5.415  13.684
 4903SOL    HW116541   2.545   5.448  13.643
 4903SOL    HW216542   2.402   5.486  13.675
 4904SOL     OW16543   8.711  11.640   9.639
 4904SOL    HW116544   8.673  11.715   9.686
 4904SOL    HW216545   8.745  11.678   9.558
 4905SOL     OW16546   5.265   6.073   1.016
 4905SOL    HW116547   5.253   5.991   1.064
 4905SOL    HW216548   5.177   6.095   0.985
 4906SOL     OW16549   7.242   0.826   7.646
 4906SOL    HW116550   7.283   0.902   7.687
 4906SOL    HW216551   7.248   0.843   7.552
 4907SOL     OW16552   8.097   1.132   2.744
 4907SOL    HW116553   8.172   1.157   2.799
 4907SOL    HW216554   8.045   1.212   2.737
 4908SOL     OW16555   9.486  10.117  10.712
 4908SOL    HW116556   9.498  10.167  10.632
 4908SOL    HW216557   9.497  10.181  10.782
 4909SOL     OW16558   2.494  11.380  13.302
 4909SOL    HW116559   2.422  11.429  13.262
 4909SOL    HW216560   2.528  11.325  13.231
 4910SOL     OW16561   7.648   3.223   8.339
 4910SOL    HW116562   7.557   3.241   8.360
 4910SOL    HW216563   7.667   3.138   8.378
 4911SOL     OW16564  13.178  12.447  12.728
 4911SOL    HW116565  13.098  12.413  12.687
 4911SOL    HW216566  13.248  12.396  12.688
 4912SOL     OW16567  10.326  13.931   3.153
 4912SOL    HW116568  10.380  13.995   3.200
 4912SOL    HW216569  10.318  13.858   3.214
 4913SOL     OW16570   6.346   0.400   4.045
 4913SOL    HW116571   6.260   0.362   4.062
 4913SOL    HW216572   6.367   0.450   4.124
 4914SOL     OW16573   4.023   3.564  14.382
 4914SOL    HW116574   3.940   3.517  14.385
 4914SOL    HW216575   4.071   3.532  14.459
 4915SOL     OW16576   5.143   6.671   8.725
 4915SOL    HW116577   5.202   6.698   8.655
 4915SOL    HW216578   5.201   6.644   8.796
 4916SOL     OW16579   7.731   5.713   8.692
 4916SOL    HW116580   7.734   5.786   8.630
 4916SOL    HW216581   7.806   5.729   8.750
 4917SOL     OW16582   3.958   1.874   7.094
 4917SOL    HW116583   3.953   1.819   7.016
 4917SOL    HW216584   4.052   1.876   7.116
 4918SOL     OW16585  11.295  11.431   4.333
 4918SOL    HW116586  11.337  11.511   4.367
 4918SOL    HW216587  11.251  11.459   4.253
 4919SOL     OW16588   5.739   0.283  14.489
 4919SOL    HW116589   5.759   0.278  14.583
 4919SOL    HW216590   5.714   0.193  14.466
 4920SOL     OW16591  11.173   6.480  10.660
 4920SOL    HW116592  11.136   6.392  10.657
 4920SOL    HW216593  11.097   6.538  10.665
 4921SOL     OW16594   9.802   1.052   0.475
 4921SOL    HW116595   9.884   1.100   0.469
 4921SOL    HW216596   9.828   0.959   0.471
 4922SOL     OW16597   0.488  11.998   1.766
 4922SOL    HW116598   0.489  12.075   1.823
 4922SOL    HW216599   0.558  12.014   1.702
 4923SOL     OW16600  11.825  11.060   7.913
 4923SOL    HW116601  11.895  11.039   7.852
 4923SOL    HW216602  11.745  11.034   7.866
 4924SOL     OW16603  13.357  11.079   2.656
 4924SOL    HW116604  13.439  11.120   2.683
 4924SOL    HW216605  13.292  11.114   2.716
 4925SOL     OW16606   1.261   6.284  11.619
 4925SOL    HW116607   1.349   6.255  11.594
 4925SOL    HW216608   1.210   6.278  11.538
 4926SOL     OW16609   3.407   7.333   1.319
 4926SOL    HW116610   3.434   7.414   1.276
 4926SOL    HW216611   3.453   7.264   1.271
 4927SOL     OW16612   6.913   4.309  12.986
 4927SOL    HW116613   6.948   4.381  13.038
 4927SOL    HW216614   6.980   4.292  12.920
 4928SOL     OW16615  10.778  11.494  11.179
 4928SOL    HW116616  10.803  11.403  11.164
 4928SOL    HW216617  10.704  11.489  11.240
 4929SOL     OW16618   5.482   4.067  10.457
 4929SOL    HW116619   5.482   3.997  10.522
 4929SOL    HW216620   5.569   4.107  10.464
 4930SOL     OW16621   9.370   4.590   7.654
 4930SOL    HW116622   9.429   4.613   7.725
 4930SOL    HW216623   9.287   4.630   7.678
 4931SOL     OW16624   2.933   2.732  10.638
 4931SOL    HW116625   2.977   2.649  10.659
 4931SOL    HW216626   2.847   2.725  10.679
 4932SOL     OW16627   1.646   5.478   5.357
 4932SOL    HW116628   1.591   5.553   5.380
 4932SOL    HW216629   1.586   5.417   5.314
 4933SOL     OW16630  10.372   1.904   8.198
 4933SOL    HW116631  10.389   1.988   8.155
 4933SOL    HW216632  10.306   1.862   8.143
 4934SOL     OW16633   6.234   7.486   3.545
 4934SOL    HW116634   6.153   7.466   3.591
 4934SOL    HW216635   6.294   7.417   3.572
 4935SOL     OW16636   7.419   3.481   2.485
 4935SOL    HW116637   7.463   3.427   2.550
 4935SOL    HW216638   7.429   3.434   2.403
 4936SOL     OW16639   1.041   4.232   9.006
 4936SOL    HW116640   0.962   4.237   9.060
 4936SOL    HW216641   1.092   4.160   9.042
 4937SOL     OW16642   4.172  14.293   6.208
 4937SOL    HW116643   4.227  14.331   6.139
 4937SOL    HW216644   4.163  14.364   6.272
 4938SOL     OW16645   3.043   9.754  13.565
 4938SOL    HW116646   3.011   9.824  13.508
 4938SOL    HW216647   3.136   9.746  13.543
 4939SOL     OW16648   4.003   5.561   0.097
 4939SOL    HW116649   4.019   5.510   0.177
 4939SOL    HW216650   3.912   5.591   0.106
 4940SOL     OW16651   1.925  14.363   8.852
 4940SOL    HW116652   1.895  14.454   8.858
 4940SOL    HW216653   1.867  14.322   8.789
 4941SOL     OW16654   1.146   2.137   9.312
 4941SOL    HW116655   1.057   2.160   9.287
 4941SOL    HW216656   1.162   2.185   9.393
 4942SOL     OW16657  12.068   9.107  11.993
 4942SOL    HW116658  12.146   9.120  11.939
 4942SOL    HW216659  11.996   9.137  11.939
 4943SOL     OW16660  14.758  10.771  12.086
 4943SOL    HW116661  14.786  10.711  12.017
 4943SOL    HW216662  14.790  10.857  12.058
 4944SOL     OW16663  12.935   2.821   4.984
 4944SOL    HW116664  12.881   2.742   4.976
 4944SOL    HW216665  12.969   2.837   4.896
 4945SOL     OW16666   9.220   1.536   3.552
 4945SOL    HW116667   9.239   1.629   3.534
 4945SOL    HW216668   9.247   1.523   3.642
 4946SOL     OW16669  10.830   9.327   5.459
 4946SOL    HW116670  10.781   9.246   5.465
 4946SOL    HW216671  10.908   9.313   5.513
 4947SOL     OW16672   5.740  13.785  10.393
 4947SOL    HW116673   5.668  13.818  10.339
 4947SOL    HW216674   5.702  13.712  10.441
 4948SOL     OW16675  10.684  11.166   8.237
 4948SOL    HW116676  10.700  11.074   8.260
 4948SOL    HW216677  10.763  11.212   8.264
 4949SOL     OW16678  13.430  14.723   3.332
 4949SOL    HW116679  13.503  14.689   3.281
 4949SOL    HW216680  13.356  14.721   3.271
 4950SOL     OW16681  12.267   4.700   5.643
 4950SOL    HW116682  12.247   4.711   5.550
 4950SOL    HW216683  12.225   4.775   5.685
 4951SOL     OW16684   2.972   8.592   4.613
 4951SOL    HW116685   2.994   8.679   4.581
 4951SOL    HW216686   2.877   8.593   4.624
 4952SOL     OW16687   0.835   1.254   1.096
 4952SOL    HW116688   0.835   1.235   1.190
 4952SOL    HW216689   0.925   1.237   1.068
 4953SOL     OW16690  11.487   7.716   7.596
 4953SOL    HW116691  11.542   7.749   7.667
 4953SOL    HW216692  11.411   7.678   7.641
 4954SOL     OW16693   1.426   5.682  13.021
 4954SOL    HW116694   1.488   5.738  13.067
 4954SOL    HW216695   1.464   5.594  13.028
 4955SOL     OW16696   4.360   3.463   9.582
 4955SOL    HW116697   4.298   3.536   9.588
 4955SOL    HW216698   4.435   3.491   9.634
 4956SOL     OW16699   9.253  12.101   8.748
 4956SOL    HW116700   9.194  12.037   8.787
 4956SOL    HW216701   9.296  12.053   8.676
 4957SOL     OW16702  14.070   4.828  12.699
 4957SOL    HW116703  14.100   4.745  12.736
 4957SOL    HW216704  14.091   4.893  12.765
 4958SOL     OW16705   3.082  10.676  13.654
 4958SOL    HW116706   3.038  10.645  13.575
 4958SOL    HW216707   3.026  10.646  13.726
 4959SOL     OW16708  11.392  13.286   9.231
 4959SOL    HW116709  11.420  13.377   9.240
 4959SOL    HW216710  11.383  13.255   9.321
 4960SOL     OW16711   7.420   6.270  12.763
 4960SOL    HW116712   7.428   6.189  12.814
 4960SOL    HW216713   7.498   6.273  12.708
 4961SOL     OW16714   3.534  12.862   9.331
 4961SOL    HW116715   3.444  12.889   9.316
 4961SOL    HW216716   3.528  12.788   9.391
 4962SOL     OW16717   5.344   8.169  13.311
 4962SOL    HW116718   5.371   8.240  13.252
 4962SOL    HW216719   5.343   8.091  13.255
 4963SOL     OW16720   0.127   8.485  12.473
 4963SOL    HW116721   0.153   8.393  12.459
 4963SOL    HW216722   0.049   8.479  12.528
 4964SOL     OW16723  12.905  13.022  10.081
 4964SOL    HW116724  12.953  13.003  10.162
 4964SOL    HW216725  12.859  13.103  10.099
 4965SOL     OW16726  13.664  10.230   0.309
 4965SOL    HW116727  13.665  10.139   0.279
 4965SOL    HW216728  13.665  10.282   0.228
 4966SOL     OW16729   3.699  13.832   9.698
 4966SOL    HW116730   3.746  13.815   9.780
 4966SOL    HW216731   3.704  13.926   9.686
 4967SOL     OW16732   2.682   2.289   3.735
 4967SOL    HW116733   2.767   2.268   3.774
 4967SOL    HW216734   2.670   2.382   3.753
 4968SOL     OW16735   3.472  10.216   0.228
 4968SOL    HW116736   3.419  10.295   0.243
 4968SOL    HW216737   3.471  10.203   0.133
 4969SOL     OW16738   8.454  13.341   1.456
 4969SOL    HW116739   8.425  13.376   1.372
 4969SOL    HW216740   8.477  13.418   1.508
 4970SOL     OW16741   2.434   0.240   0.961
 4970SOL    HW116742   2.509   0.190   0.929
 4970SOL    HW216743   2.411   0.198   1.044
 4971SOL     OW16744   4.511   5.348   2.037
 4971SOL    HW116745   4.589   5.394   2.065
 4971SOL    HW216746   4.451   5.353   2.111
 4972SOL     OW16747  12.622   9.795   8.659
 4972SOL    HW116748  12.637   9.852   8.584
 4972SOL    HW216749  12.659   9.842   8.734
 4973SOL     OW16750  13.883   5.473  14.719
 4973SOL    HW116751  13.792   5.452  14.702
 4973SOL    HW216752  13.909   5.413  14.789
 4974SOL     OW16753  10.386  10.134  14.545
 4974SOL    HW116754  10.439  10.183  14.482
 4974SOL    HW216755  10.313  10.193  14.566
 4975SOL     OW16756   8.053   7.075   1.930
 4975SOL    HW116757   8.045   7.082   1.835
 4975SOL    HW216758   8.089   7.159   1.958
 4976SOL     OW16759   3.889   5.849   3.069
 4976SOL    HW116760   3.890   5.933   3.024
 4976SOL    HW216761   3.981   5.822   3.071
 4977SOL     OW16762   6.839  13.671  10.766
 4977SOL    HW116763   6.892  13.592  10.779
 4977SOL    HW216764   6.789  13.653  10.686
 4978SOL     OW16765  10.788   8.561   9.570
 4978SOL    HW116766  10.816   8.619   9.499
 4978SOL    HW216767  10.751   8.621   9.636
 4979SOL     OW16768   9.371   9.355   6.587
 4979SOL    HW116769   9.388   9.266   6.558
 4979SOL    HW216770   9.278   9.370   6.567
 4980SOL     OW16771   4.133  14.343  14.156
 4980SOL    HW116772   4.199  14.279  14.183
 4980SOL    HW216773   4.059  14.327  14.214
 4981SOL     OW16774   3.506   6.582  14.322
 4981SOL    HW116775   3.452   6.624  14.255
 4981SOL    HW216776   3.585   6.554  14.274
 4982SOL     OW16777   7.804  11.066   0.637
 4982SOL    HW116778   7.863  11.122   0.587
 4982SOL    HW216779   7.718  11.079   0.597
 4983SOL     OW16780  13.975  13.730   0.901
 4983SOL    HW116781  13.915  13.660   0.927
 4983SOL    HW216782  13.978  13.724   0.805
 4984SOL     OW16783  11.782   9.735  13.777
 4984SOL    HW116784  11.798   9.644  13.800
 4984SOL    HW216785  11.697   9.734  13.733
 4985SOL     OW16786   0.513   9.355  12.550
 4985SOL    HW116787   0.575   9.331  12.619
 4985SOL    HW216788   0.511   9.279  12.492
 4986SOL     OW16789   2.059   6.810   3.329
 4986SOL    HW116790   2.064   6.840   3.420
 4986SOL    HW216791   1.966   6.793   3.315
 4987SOL     OW16792   6.197  12.875   3.303
 4987SOL    HW116793   6.287  12.907   3.304
 4987SOL    HW216794   6.197  12.798   3.360
 4988SOL     OW16795   4.018   1.482   8.530
 4988SOL    HW116796   4.055   1.395   8.517
 4988SOL    HW216797   3.930   1.466   8.564
 4989SOL     OW16798   8.467   3.533  12.256
 4989SOL    HW116799   8.533   3.464  12.263
 4989SOL    HW216800   8.518   3.613  12.241
 4990SOL     OW16801   0.760   0.289  14.028
 4990SOL    HW116802   0.841   0.315  14.073
 4990SOL    HW216803   0.694   0.351  14.061
 4991SOL     OW16804   5.800   4.128   5.112
 4991SOL    HW116805   5.708   4.143   5.089
 4991SOL    HW216806   5.827   4.054   5.059
 4992SOL     OW16807  10.965  11.751   9.666
 4992SOL    HW116808  10.896  11.721   9.607
 4992SOL    HW216809  10.972  11.845   9.649
 4993SOL     OW16810  13.064   9.000   4.611
 4993SOL    HW116811  13.114   9.014   4.692
 4993SOL    HW216812  13.003   8.930   4.633
 4994SOL     OW16813   2.420   2.193   4.741
 4994SOL    HW116814   2.382   2.243   4.813
 4994SOL    HW216815   2.415   2.102   4.769
 4995SOL     OW16816  13.560   3.055   6.884
 4995SOL    HW116817  13.632   3.095   6.934
 4995SOL    HW216818  13.577   3.080   6.793
 4996SOL     OW16819   7.329   7.756   6.377
 4996SOL    HW116820   7.243   7.797   6.371
 4996SOL    HW216821   7.328   7.689   6.308
 4997SOL     OW16822   9.931   5.606  11.339
 4997SOL    HW116823  10.003   5.546  11.321
 4997SOL    HW216824   9.918   5.653  11.257
 4998SOL     OW16825   6.469   3.332   7.859
 4998SOL    HW116826   6.554   3.288   7.854
 4998SOL    HW216827   6.490   3.424   7.873
 4999SOL     OW16828  10.504   8.282  14.358
 4999SOL    HW116829  10.412   8.300  14.378
 4999SOL    HW216830  10.549   8.365  14.375
 5000SOL     OW16831  11.006   0.543   7.127
 5000SOL    HW116832  10.929   0.598   7.126
 5000SOL    HW216833  10.985   0.470   7.068
 5001SOL     OW16834  10.801  13.449   3.997
 5001SOL    HW116835  10.778  13.357   4.012
 5001SOL    HW216836  10.824  13.452   3.904
 5002SOL     OW16837   8.443  11.120   0.783
 5002SOL    HW116838   8.516  11.095   0.839
 5002SOL    HW216839   8.365  11.101   0.836
 5003SOL     OW16840   7.643   7.456   3.246
 5003SOL    HW116841   7.599   7.477   3.328
 5003SOL    HW216842   7.598   7.378   3.214
 5004SOL     OW16843  13.945   0.637  14.222
 5004SOL    HW116844  13.900   0.717  14.195
 5004SOL    HW216845  13.980   0.601  14.140
 5005SOL     OW16846  12.108   2.509   1.160
 5005SOL    HW116847  12.109   2.565   1.237
 5005SOL    HW216848  12.032   2.538   1.110
 5006SOL     OW16849   5.065   2.035   7.023
 5006SOL    HW116850   5.064   2.121   6.980
 5006SOL    HW216851   5.147   1.995   6.994
 5007SOL     OW16852   8.933  14.753   1.960
 5007SOL    HW116853   8.989  14.678   1.938
 5007SOL    HW216854   8.931  14.755   2.055
 5008SOL     OW16855   3.684  14.057   7.934
 5008SOL    HW116856   3.626  13.987   7.965
 5008SOL    HW216857   3.638  14.093   7.858
 5009SOL     OW16858   3.621   9.456  14.018
 5009SOL    HW116859   3.532   9.491  14.006
 5009SOL    HW216860   3.650   9.434  13.930
 5010SOL     OW16861   8.134   9.977  11.451
 5010SOL    HW116862   8.216  10.023  11.468
 5010SOL    HW216863   8.155   9.885  11.470
 5011SOL     OW16864   7.132   7.392   7.061
 5011SOL    HW116865   7.065   7.337   7.021
 5011SOL    HW216866   7.137   7.469   7.003
 5012SOL     OW16867   7.906   3.643   3.768
 5012SOL    HW116868   7.977   3.591   3.730
 5012SOL    HW216869   7.951   3.710   3.820
 5013SOL     OW16870   8.322   8.676   6.726
 5013SOL    HW116871   8.354   8.646   6.641
 5013SOL    HW216872   8.398   8.715   6.769
 5014SOL     OW16873   9.233   9.889   7.536
 5014SOL    HW116874   9.279   9.806   7.526
 5014SOL    HW216875   9.148   9.865   7.573
 5015SOL     OW16876   8.267  11.907  10.803
 5015SOL    HW116877   8.196  11.928  10.742
 5015SOL    HW216878   8.265  11.977  10.868
 5016SOL     OW16879   0.644   5.386   6.403
 5016SOL    HW116880   0.700   5.308   6.407
 5016SOL    HW216881   0.705   5.460   6.402
 5017SOL     OW16882  11.007   6.761  12.804
 5017SOL    HW116883  10.932   6.793  12.856
 5017SOL    HW216884  10.976   6.679  12.766
 5018SOL     OW16885   0.780   6.885   8.002
 5018SOL    HW116886   0.691   6.917   7.989
 5018SOL    HW216887   0.810   6.861   7.915
 5019SOL     OW16888  12.872   1.630  12.931
 5019SOL    HW116889  12.823   1.694  12.881
 5019SOL    HW216890  12.904   1.567  12.866
 5020SOL     OW16891  10.114   9.871  14.459
 5020SOL    HW116892  10.085   9.925  14.532
 5020SOL    HW216893  10.034   9.850  14.411
 5021SOL     OW16894  12.973   8.745  12.322
 5021SOL    HW116895  13.048   8.691  12.296
 5021SOL    HW216896  12.949   8.712  12.409
 5022SOL     OW16897  11.875  11.459   5.952
 5022SOL    HW116898  11.859  11.418   5.867
 5022SOL    HW216899  11.789  11.488   5.981
 5023SOL     OW16900  14.500   7.221   6.734
 5023SOL    HW116901  14.523   7.287   6.800
 5023SOL    HW216902  14.560   7.237   6.662
 5024SOL     OW16903   7.617  12.267  12.249
 5024SOL    HW116904   7.661  12.286  12.166
 5024SOL    HW216905   7.674  12.206  12.294
 5025SOL     OW16906  13.325   1.691   4.954
 5025SOL    HW116907  13.310   1.773   4.907
 5025SOL    HW216908  13.257   1.632   4.920
 5026SOL     OW16909  11.797  11.867  11.700
 5026SOL    HW116910  11.819  11.960  11.690
 5026SOL    HW216911  11.712  11.858  11.655
 5027SOL     OW16912  12.705  12.564   4.803
 5027SOL    HW116913  12.694  12.630   4.735
 5027SOL    HW216914  12.616  12.541   4.830
 5028SOL     OW16915  13.037   6.689   7.035
 5028SOL    HW116916  12.979   6.764   7.020
 5028SOL    HW216917  13.084   6.711   7.116
 5029SOL     OW16918  11.484   9.081  10.793
 5029SOL    HW116919  11.497   9.029  10.872
 5029SOL    HW216920  11.572   9.109  10.768
 5030SOL     OW16921  11.561  13.419   2.288
 5030SOL    HW116922  11.649  13.414   2.325
 5030SOL    HW216923  11.503  13.418   2.363
 5031SOL     OW16924  14.117   1.642  14.383
 5031SOL    HW116925  14.200   1.674  14.347
 5031SOL    HW216926  14.112   1.551  14.354
 5032SOL     OW16927  11.539   2.020   2.317
 5032SOL    HW116928  11.577   1.948   2.367
 5032SOL    HW216929  11.611   2.055   2.265
 5033SOL     OW16930  13.246   5.801   2.140
 5033SOL    HW116931  13.295   5.871   2.095
 5033SOL    HW216932  13.261   5.818   2.233
 5034SOL     OW16933   7.680   9.972   8.017
 5034SOL    HW116934   7.743   9.931   8.076
 5034SOL    HW216935   7.735  10.021   7.955
 5035SOL     OW16936   5.208  11.958   2.523
 5035SOL    HW116937   5.187  11.988   2.434
 5035SOL    HW216938   5.259  12.030   2.560
 5036SOL     OW16939  12.790   6.973   3.782
 5036SOL    HW116940  12.862   6.931   3.736
 5036SOL    HW216941  12.832   7.038   3.838
 5037SOL     OW16942   7.760   8.170  14.538
 5037SOL    HW116943   7.855   8.172  14.554
 5037SOL    HW216944   7.729   8.254  14.571
 5038SOL     OW16945   1.612  11.450   1.599
 5038SOL    HW116946   1.541  11.429   1.538
 5038SOL    HW216947   1.575  11.430   1.685
 5039SOL     OW16948   8.220   8.240   0.207
 5039SOL    HW116949   8.223   8.160   0.260
 5039SOL    HW216950   8.216   8.207   0.117
 5040SOL     OW16951   0.745   6.322   5.276
 5040SOL    HW116952   0.688   6.327   5.353
 5040SOL    HW216953   0.691   6.278   5.210
 5041SOL     OW16954   4.077   0.582   6.384
 5041SOL    HW116955   4.052   0.516   6.449
 5041SOL    HW216956   4.007   0.648   6.389
 5042SOL     OW16957  11.932   0.064   7.194
 5042SOL    HW116958  12.026   0.066   7.213
 5042SOL    HW216959  11.921   0.130   7.126
 5043SOL     OW16960   9.398   4.269   2.720
 5043SOL    HW116961   9.452   4.281   2.642
 5043SOL    HW216962   9.355   4.185   2.706
 5044SOL     OW16963   6.227   1.179   4.249
 5044SOL    HW116964   6.199   1.135   4.169
 5044SOL    HW216965   6.161   1.156   4.314
 5045SOL     OW16966  11.555   8.033   7.267
 5045SOL    HW116967  11.569   7.994   7.353
 5045SOL    HW216968  11.529   7.960   7.211
 5046SOL     OW16969   9.938   0.447   9.103
 5046SOL    HW116970   9.930   0.507   9.177
 5046SOL    HW216971  10.014   0.479   9.055
 5047SOL     OW16972   6.564   9.645   0.675
 5047SOL    HW116973   6.577   9.550   0.674
 5047SOL    HW216974   6.623   9.677   0.743
 5048SOL     OW16975  13.621  10.233   8.716
 5048SOL    HW116976  13.672  10.309   8.744
 5048SOL    HW216977  13.577  10.203   8.796
 5049SOL     OW16978   1.933   6.183   9.545
 5049SOL    HW116979   1.935   6.157   9.637
 5049SOL    HW216980   1.884   6.265   9.544
 5050SOL     OW16981   2.015  13.704  10.866
 5050SOL    HW116982   2.090  13.647  10.883
 5050SOL    HW216983   2.051  13.779  10.820
 5051SOL     OW16984  10.559  11.423   8.415
 5051SOL    HW116985  10.618  11.418   8.490
 5051SOL    HW216986  10.585  11.351   8.358
 5052SOL     OW16987   1.290   3.106   9.505
 5052SOL    HW116988   1.365   3.050   9.490
 5052SOL    HW216989   1.216   3.058   9.467
 5053SOL     OW16990   8.948  11.288   2.328
 5053SOL    HW116991   8.986  11.264   2.244
 5053SOL    HW216992   8.853  11.281   2.314
 5054SOL     OW16993   5.334   5.391   9.044
 5054SOL    HW116994   5.297   5.306   9.022
 5054SOL    HW216995   5.263   5.453   9.029
 5055SOL     OW16996  12.748  11.268  14.855
 5055SOL    HW116997  12.843  11.284  14.856
 5055SOL    HW216998  12.726  11.259  14.763
 5056SOL     OW16999   8.705   3.636  10.580
 5056SOL    HW117000   8.710   3.685  10.498
 5056SOL    HW217001   8.612   3.613  10.589
 5057SOL     OW17002   8.822  14.509  10.201
 5057SOL    HW117003   8.899  14.554  10.238
 5057SOL    HW217004   8.747  14.556  10.238
 5058SOL     OW17005   2.974   4.339   9.686
 5058SOL    HW117006   2.958   4.260   9.738
 5058SOL    HW217007   3.070   4.343   9.679
 5059SOL     OW17008  14.244   3.638  11.706
 5059SOL    HW117009  14.151   3.653  11.689
 5059SOL    HW217010  14.251   3.544  11.722
 5060SOL     OW17011   3.706   2.733   1.100
 5060SOL    HW117012   3.619   2.700   1.119
 5060SOL    HW217013   3.740   2.675   1.032
 5061SOL     OW17014  12.770   9.246   1.724
 5061SOL    HW117015  12.770   9.289   1.809
 5061SOL    HW217016  12.855   9.268   1.686
 5062SOL     OW17017  13.503  14.602   4.463
 5062SOL    HW117018  13.469  14.595   4.552
 5062SOL    HW217019  13.571  14.669   4.469
 5063SOL     OW17020  10.504   9.919   2.438
 5063SOL    HW117021  10.425   9.869   2.421
 5063SOL    HW217022  10.560   9.860   2.487
 5064SOL     OW17023  12.998   9.453   6.364
 5064SOL    HW117024  13.034   9.447   6.452
 5064SOL    HW217025  13.070   9.425   6.306
 5065SOL     OW17026  14.012   3.326   5.518
 5065SOL    HW117027  13.936   3.359   5.566
 5065SOL    HW217028  14.032   3.394   5.454
 5066SOL     OW17029   4.122   9.058   8.712
 5066SOL    HW117030   4.041   9.036   8.666
 5066SOL    HW217031   4.189   9.055   8.644
 5067SOL     OW17032   1.337   7.958  12.828
 5067SOL    HW117033   1.331   7.944  12.923
 5067SOL    HW217034   1.339   7.870  12.791
 5068SOL     OW17035   3.408   0.163   8.545
 5068SOL    HW117036   3.422   0.153   8.640
 5068SOL    HW217037   3.399   0.074   8.513
 5069SOL     OW17038  10.264   3.260  12.591
 5069SOL    HW117039  10.306   3.176  12.574
 5069SOL    HW217040  10.202   3.243  12.661
 5070SOL     OW17041  11.843   2.151   4.702
 5070SOL    HW117042  11.795   2.073   4.730
 5070SOL    HW217043  11.933   2.135   4.729
 5071SOL     OW17044   1.784   0.187   0.470
 5071SOL    HW117045   1.701   0.149   0.443
 5071SOL    HW217046   1.809   0.137   0.548
 5072SOL     OW17047   3.553   8.356   8.912
 5072SOL    HW117048   3.472   8.401   8.891
 5072SOL    HW217049   3.534   8.307   8.992
 5073SOL     OW17050   6.692   5.882   8.210
 5073SOL    HW117051   6.787   5.881   8.198
 5073SOL    HW217052   6.664   5.792   8.190
 5074SOL     OW17053   8.055  14.852   0.869
 5074SOL    HW117054   7.961  14.863   0.885
 5074SOL    HW217055   8.096   0.052   0.916
 5075SOL     OW17056  14.218  14.430   5.787
 5075SOL    HW117057  14.214  14.524   5.772
 5075SOL    HW217058  14.132  14.398   5.761
 5076SOL     OW17059   2.853   1.849   3.963
 5076SOL    HW117060   2.881   1.918   4.024
 5076SOL    HW217061   2.780   1.889   3.915
 5077SOL     OW17062  14.143  10.841   4.925
 5077SOL    HW117063  14.203  10.800   4.988
 5077SOL    HW217064  14.183  10.926   4.906
 5078SOL     OW17065   0.808  14.487  12.509
 5078SOL    HW117066   0.892  14.524  12.484
 5078SOL    HW217067   0.763  14.471  12.426
 5079SOL     OW17068  10.843   0.204   3.714
 5079SOL    HW117069  10.868   0.232   3.626
 5079SOL    HW217070  10.776   0.137   3.699
 5080SOL     OW17071  14.645  12.787   5.281
 5080SOL    HW117072  14.738  12.765   5.287
 5080SOL    HW217073  14.617  12.750   5.197
 5081SOL     OW17074  13.991   5.198  10.381
 5081SOL    HW117075  14.058   5.131  10.367
 5081SOL    HW217076  14.021   5.273  10.330
 5082SOL     OW17077   1.403  14.047  10.099
 5082SOL    HW117078   1.422  14.140  10.090
 5082SOL    HW217079   1.307  14.042  10.105
 5083SOL     OW17080   3.814   5.761  12.128
 5083SOL    HW117081   3.821   5.835  12.068
 5083SOL    HW217082   3.801   5.801  12.214
 5084SOL     OW17083  12.022   0.862   9.497
 5084SOL    HW117084  12.108   0.858   9.455
 5084SOL    HW217085  11.961   0.838   9.427
 5085SOL     OW17086  14.180   1.330   6.772
 5085SOL    HW117087  14.263   1.318   6.725
 5085SOL    HW217088  14.113   1.306   6.709
 5086SOL     OW17089   6.685   3.961  13.974
 5086SOL    HW117090   6.655   4.029  13.912
 5086SOL    HW217091   6.692   3.882  13.921
 5087SOL     OW17092   4.117  13.270   3.518
 5087SOL    HW117093   4.212  13.267   3.523
 5087SOL    HW217094   4.098  13.287   3.426
 5088SOL     OW17095  13.459  12.927   1.376
 5088SOL    HW117096  13.488  12.857   1.434
 5088SOL    HW217097  13.475  12.894   1.288
 5089SOL     OW17098  10.299   2.270  12.621
 5089SOL    HW117099  10.368   2.216  12.660
 5089SOL    HW217100  10.221   2.251  12.674
 5090SOL     OW17101  10.283  13.049  13.737
 5090SOL    HW117102  10.316  12.960  13.719
 5090SOL    HW217103  10.277  13.089  13.650
 5091SOL     OW17104   4.761   0.566   6.407
 5091SOL    HW117105   4.801   0.644   6.368
 5091SOL    HW217106   4.814   0.549   6.485
 5092SOL     OW17107   2.719  12.114   4.639
 5092SOL    HW117108   2.692  12.069   4.719
 5092SOL    HW217109   2.640  12.116   4.585
 5093SOL     OW17110   5.715  11.128   4.225
 5093SOL    HW117111   5.793  11.079   4.251
 5093SOL    HW217112   5.659  11.062   4.183
 5094SOL     OW17113   3.164   8.774  10.560
 5094SOL    HW117114   3.092   8.797  10.501
 5094SOL    HW217115   3.172   8.850  10.618
 5095SOL     OW17116  14.824   1.075   9.384
 5095SOL    HW117117  14.814   1.119   9.299
 5095SOL    HW217118   0.044   1.088   9.406
 5096SOL     OW17119  12.125  11.584  13.455
 5096SOL    HW117120  12.054  11.540  13.410
 5096SOL    HW217121  12.159  11.647  13.391
 5097SOL     OW17122   5.978   8.584  12.094
 5097SOL    HW117123   5.962   8.601  12.001
 5097SOL    HW217124   6.017   8.497  12.096
 5098SOL     OW17125   1.298   0.807   0.536
 5098SOL    HW117126   1.370   0.867   0.516
 5098SOL    HW217127   1.315   0.729   0.482
 5099SOL     OW17128  13.520  11.461   9.326
 5099SOL    HW117129  13.501  11.515   9.250
 5099SOL    HW217130  13.610  11.431   9.312
 5100SOL     OW17131   2.815   9.515   4.101
 5100SOL    HW117132   2.734   9.517   4.151
 5100SOL    HW217133   2.878   9.474   4.160
 5101SOL     OW17134  14.106   3.107   7.290
 5101SOL    HW117135  14.034   3.163   7.259
 5101SOL    HW217136  14.083   3.088   7.380
 5102SOL     OW17137   9.204  11.349  13.228
 5102SOL    HW117138   9.113  11.353  13.257
 5102SOL    HW217139   9.241  11.275  13.276
 5103SOL     OW17140  13.081   3.556   6.349
 5103SOL    HW117141  13.088   3.621   6.279
 5103SOL    HW217142  13.161   3.567   6.400
 5104SOL     OW17143   1.357  10.836  12.397
 5104SOL    HW117144   1.341  10.928  12.377
 5104SOL    HW217145   1.321  10.824  12.485
 5105SOL     OW17146   6.410   8.626   0.208
 5105SOL    HW117147   6.422   8.641   0.114
 5105SOL    HW217148   6.319   8.649   0.224
 5106SOL     OW17149   0.325   6.463   9.316
 5106SOL    HW117150   0.231   6.446   9.311
 5106SOL    HW217151   0.334   6.528   9.385
 5107SOL     OW17152  14.385   9.454  11.713
 5107SOL    HW117153  14.362   9.541  11.745
 5107SOL    HW217154  14.480   9.450  11.721
 5108SOL     OW17155  12.683   1.092   9.956
 5108SOL    HW117156  12.592   1.066   9.945
 5108SOL    HW217157  12.716   1.036  10.026
 5109SOL     OW17158   9.696   1.641   1.387
 5109SOL    HW117159   9.746   1.722   1.379
 5109SOL    HW217160   9.636   1.642   1.313
 5110SOL     OW17161  13.825  12.129   9.888
 5110SOL    HW117162  13.809  12.184   9.964
 5110SOL    HW217163  13.797  12.182   9.813
 5111SOL     OW17164   6.755   2.784   2.436
 5111SOL    HW117165   6.833   2.739   2.468
 5111SOL    HW217166   6.787   2.869   2.407
 5112SOL     OW17167   4.409   8.483   0.366
 5112SOL    HW117168   4.400   8.414   0.432
 5112SOL    HW217169   4.363   8.558   0.404
 5113SOL     OW17170   0.531   0.320  10.852
 5113SOL    HW117171   0.514   0.243  10.906
 5113SOL    HW217172   0.537   0.285  10.763
 5114SOL     OW17173  13.682  14.631   9.835
 5114SOL    HW117174  13.662  14.582   9.914
 5114SOL    HW217175  13.598  14.666   9.806
 5115SOL     OW17176  14.557   2.969   2.889
 5115SOL    HW117177  14.474   2.978   2.843
 5115SOL    HW217178  14.557   3.040   2.954
 5116SOL     OW17179  11.388  13.592  11.559
 5116SOL    HW117180  11.440  13.609  11.638
 5116SOL    HW217181  11.452  13.580  11.489
 5117SOL     OW17182   7.189   7.333   7.625
 5117SOL    HW117183   7.128   7.318   7.697
 5117SOL    HW217184   7.227   7.419   7.643
 5118SOL     OW17185   4.820   3.744  11.561
 5118SOL    HW117186   4.900   3.714  11.518
 5118SOL    HW217187   4.785   3.810  11.501
 5119SOL     OW17188   0.280   9.121   5.501
 5119SOL    HW117189   0.200   9.141   5.451
 5119SOL    HW217190   0.351   9.152   5.445
 5120SOL     OW17191   6.145  14.247   7.350
 5120SOL    HW117192   6.232  14.284   7.362
 5120SOL    HW217193   6.144  14.168   7.404
 5121SOL     OW17194  10.172   7.672  13.585
 5121SOL    HW117195  10.103   7.728  13.549
 5121SOL    HW217196  10.241   7.674  13.518
 5122SOL     OW17197  12.020   0.105   2.587
 5122SOL    HW117198  11.959   0.120   2.659
 5122SOL    HW217199  12.083   0.177   2.594
 5123SOL     OW17200   3.264   9.065  11.172
 5123SOL    HW117201   3.302   9.153  11.162
 5123SOL    HW217202   3.229   9.045  11.086
 5124SOL     OW17203   7.650  14.659  10.126
 5124SOL    HW117204   7.668  14.752  10.118
 5124SOL    HW217205   7.667  14.623  10.039
 5125SOL     OW17206   3.788   7.405  11.038
 5125SOL    HW117207   3.740   7.400  11.121
 5125SOL    HW217208   3.720   7.398  10.971
 5126SOL     OW17209  12.439   2.533   0.083
 5126SOL    HW117210  12.372   2.601   0.079
 5126SOL    HW217211  12.428   2.493   0.169
 5127SOL     OW17212  10.375  12.275   7.247
 5127SOL    HW117213  10.402  12.240   7.332
 5127SOL    HW217214  10.293  12.230   7.227
 5128SOL     OW17215  11.011  12.261   3.141
 5128SOL    HW117216  11.045  12.197   3.078
 5128SOL    HW217217  11.088  12.297   3.183
 5129SOL     OW17218   3.247   6.435  10.231
 5129SOL    HW117219   3.257   6.507  10.169
 5129SOL    HW217220   3.218   6.361  10.177
 5130SOL     OW17221  12.130   3.173  13.821
 5130SOL    HW117222  12.117   3.088  13.864
 5130SOL    HW217223  12.123   3.237  13.892
 5131SOL     OW17224   5.683   1.583  12.221
 5131SOL    HW117225   5.752   1.643  12.251
 5131SOL    HW217226   5.654   1.620  12.137
 5132SOL     OW17227   2.774   5.790   1.823
 5132SOL    HW117228   2.823   5.710   1.801
 5132SOL    HW217229   2.695   5.758   1.867
 5133SOL     OW17230   1.739   0.140   6.406
 5133SOL    HW117231   1.775   0.081   6.340
 5133SOL    HW217232   1.790   0.221   6.396
 5134SOL     OW17233  12.722   0.866   6.667
 5134SOL    HW117234  12.802   0.891   6.714
 5134SOL    HW217235  12.744   0.782   6.626
 5135SOL     OW17236  10.687   7.246  12.974
 5135SOL    HW117237  10.646   7.175  12.924
 5135SOL    HW217238  10.646   7.241  13.061
 5136SOL     OW17239  12.598   9.276   4.953
 5136SOL    HW117240  12.574   9.184   4.961
 5136SOL    HW217241  12.516   9.323   4.968
 5137SOL     OW17242   3.539  13.195   8.817
 5137SOL    HW117243   3.522  13.103   8.797
 5137SOL    HW217244   3.591  13.193   8.896
 5138SOL     OW17245  11.593   1.416   3.052
 5138SOL    HW117246  11.597   1.392   3.145
 5138SOL    HW217247  11.676   1.460   3.035
 5139SOL     OW17248   1.585   6.747  14.380
 5139SOL    HW117249   1.498   6.735  14.417
 5139SOL    HW217250   1.571   6.801  14.302
 5140SOL     OW17251   7.368  11.323   9.915
 5140SOL    HW117252   7.273  11.332   9.916
 5140SOL    HW217253   7.394  11.341   9.825
 5141SOL     OW17254  13.446  14.387   4.871
 5141SOL    HW117255  13.519  14.325   4.875
 5141SOL    HW217256  13.385  14.355   4.937
 5142SOL     OW17257   7.362   8.531   0.754
 5142SOL    HW117258   7.345   8.557   0.663
 5142SOL    HW217259   7.438   8.474   0.749
 5143SOL     OW17260   2.938   1.720  11.002
 5143SOL    HW117261   2.927   1.767  10.920
 5143SOL    HW217262   2.951   1.788  11.068
 5144SOL     OW17263   5.886  14.160  14.830
 5144SOL    HW117264   5.844  14.245  14.815
 5144SOL    HW217265   5.980  14.180  14.829
 5145SOL     OW17266   7.326  11.503  10.316
 5145SOL    HW117267   7.261  11.434  10.304
 5145SOL    HW217268   7.305  11.542  10.400
 5146SOL     OW17269   6.690  13.778   1.238
 5146SOL    HW117270   6.676  13.787   1.144
 5146SOL    HW217271   6.753  13.846   1.260
 5147SOL     OW17272   8.474  14.380   8.771
 5147SOL    HW117273   8.508  14.297   8.805
 5147SOL    HW217274   8.401  14.402   8.829
 5148SOL     OW17275   0.897  13.111   0.741
 5148SOL    HW117276   0.934  13.124   0.828
 5148SOL    HW217277   0.845  13.031   0.748
 5149SOL     OW17278   8.857  11.778  10.510
 5149SOL    HW117279   8.871  11.774  10.415
 5149SOL    HW217280   8.850  11.687  10.537
 5150SOL     OW17281   2.353   6.338  11.027
 5150SOL    HW117282   2.332   6.404  10.961
 5150SOL    HW217283   2.267   6.302  11.052
 5151SOL     OW17284  10.802  10.613   6.027
 5151SOL    HW117285  10.796  10.518   6.018
 5151SOL    HW217286  10.740  10.635   6.096
 5152SOL     OW17287   7.072   2.931   7.416
 5152SOL    HW117288   7.110   3.015   7.390
 5152SOL    HW217289   7.020   2.951   7.494
 5153SOL     OW17290  12.813   5.138   4.195
 5153SOL    HW117291  12.789   5.081   4.267
 5153SOL    HW217292  12.894   5.181   4.223
 5154SOL     OW17293   5.693   1.850   4.926
 5154SOL    HW117294   5.645   1.844   5.008
 5154SOL    HW217295   5.650   1.921   4.878
 5155SOL     OW17296  12.811   5.434   7.232
 5155SOL    HW117297  12.772   5.464   7.314
 5155SOL    HW217298  12.853   5.351   7.255
 5156SOL     OW17299   4.356   1.036  11.408
 5156SOL    HW117300   4.286   1.070  11.352
 5156SOL    HW217301   4.431   1.026  11.350
 5157SOL     OW17302  13.600  12.198   4.533
 5157SOL    HW117303  13.506  12.194   4.553
 5157SOL    HW217304  13.604  12.206   4.438
 5158SOL     OW17305   6.724  13.422   3.736
 5158SOL    HW117306   6.802  13.384   3.694
 5158SOL    HW217307   6.654  13.409   3.671
 5159SOL     OW17308  14.599  10.474   8.929
 5159SOL    HW117309  14.557  10.410   8.872
 5159SOL    HW217310  14.691  10.473   8.902
 5160SOL     OW17311  11.791   3.536  12.816
 5160SOL    HW117312  11.836   3.567  12.738
 5160SOL    HW217313  11.833   3.584  12.888
 5161SOL     OW17314  10.965  13.115  12.411
 5161SOL    HW117315  10.957  13.163  12.329
 5161SOL    HW217316  10.955  13.182  12.479
 5162SOL     OW17317  10.282   6.820   5.405
 5162SOL    HW117318  10.339   6.897   5.397
 5162SOL    HW217319  10.231   6.820   5.324
 5163SOL     OW17320   2.715  14.578   4.547
 5163SOL    HW117321   2.694  14.583   4.454
 5163SOL    HW217322   2.802  14.539   4.551
 5164SOL     OW17323   8.227  10.973   8.895
 5164SOL    HW117324   8.200  10.938   8.810
 5164SOL    HW217325   8.189  10.913   8.959
 5165SOL     OW17326   3.458   1.432  13.523
 5165SOL    HW117327   3.462   1.337  13.537
 5165SOL    HW217328   3.541   1.454  13.481
 5166SOL     OW17329   2.163  11.578  10.344
 5166SOL    HW117330   2.151  11.651  10.282
 5166SOL    HW217331   2.237  11.605  10.398
 5167SOL     OW17332   8.051  13.572  14.228
 5167SOL    HW117333   8.002  13.503  14.274
 5167SOL    HW217334   8.029  13.652  14.275
 5168SOL     OW17335   0.914   2.820  12.733
 5168SOL    HW117336   0.928   2.770  12.653
 5168SOL    HW217337   0.931   2.758  12.804
 5169SOL     OW17338   3.458  10.926   3.998
 5169SOL    HW117339   3.517  10.874   3.942
 5169SOL    HW217340   3.383  10.945   3.943
 5170SOL     OW17341   0.374   2.598  12.563
 5170SOL    HW117342   0.370   2.662  12.492
 5170SOL    HW217343   0.282   2.576  12.580
 5171SOL     OW17344   7.428  14.066   1.156
 5171SOL    HW117345   7.487  14.077   1.082
 5171SOL    HW217346   7.395  13.976   1.148
 5172SOL     OW17347   3.328   1.109   7.467
 5172SOL    HW117348   3.251   1.107   7.523
 5172SOL    HW217349   3.307   1.051   7.394
 5173SOL     OW17350  12.804  12.542   3.954
 5173SOL    HW117351  12.838  12.536   4.043
 5173SOL    HW217352  12.839  12.624   3.919
 5174SOL     OW17353  10.233   0.605   4.116
 5174SOL    HW117354  10.211   0.695   4.138
 5174SOL    HW217355  10.186   0.551   4.180
 5175SOL     OW17356   0.382   7.576  14.270
 5175SOL    HW117357   0.336   7.559  14.352
 5175SOL    HW217358   0.343   7.657  14.237
 5176SOL     OW17359   9.182   6.573  14.685
 5176SOL    HW117360   9.209   6.520  14.610
 5176SOL    HW217361   9.190   6.515  14.760
 5177SOL     OW17362  12.240   2.677   4.875
 5177SOL    HW117363  12.294   2.612   4.832
 5177SOL    HW217364  12.290   2.758   4.868
 5178SOL     OW17365   4.853   1.096   0.255
 5178SOL    HW117366   4.948   1.103   0.251
 5178SOL    HW217367   4.822   1.156   0.186
 5179SOL     OW17368   4.810   9.480  14.516
 5179SOL    HW117369   4.746   9.411  14.531
 5179SOL    HW217370   4.834   9.509  14.603
 5180SOL     OW17371   7.006   4.729  10.158
 5180SOL    HW117372   7.052   4.807  10.128
 5180SOL    HW217373   6.954   4.701  10.082
 5181SOL     OW17374  13.195   9.630   0.370
 5181SOL    HW117375  13.229   9.684   0.442
 5181SOL    HW217376  13.265   9.566   0.354
 5182SOL     OW17377   2.579   7.150   7.780
 5182SOL    HW117378   2.628   7.068   7.780
 5182SOL    HW217379   2.573   7.175   7.872
 5183SOL     OW17380   8.601  11.066   4.825
 5183SOL    HW117381   8.694  11.086   4.827
 5183SOL    HW217382   8.573  11.071   4.917
 5184SOL     OW17383   5.547   3.258   9.079
 5184SOL    HW117384   5.611   3.290   9.143
 5184SOL    HW217385   5.484   3.208   9.131
 5185SOL     OW17386   6.129   9.440  12.515
 5185SOL    HW117387   6.220   9.469  12.517
 5185SOL    HW217388   6.084   9.496  12.579
 5186SOL     OW17389  10.265  11.559   4.367
 5186SOL    HW117390  10.332  11.540   4.302
 5186SOL    HW217391  10.313  11.573   4.449
 5187SOL     OW17392   8.722   6.897  11.788
 5187SOL    HW117393   8.717   6.814  11.741
 5187SOL    HW217394   8.811   6.928  11.775
 5188SOL     OW17395   4.767   7.282   7.390
 5188SOL    HW117396   4.844   7.226   7.372
 5188SOL    HW217397   4.704   7.257   7.322
 5189SOL     OW17398   8.835   6.992   6.428
 5189SOL    HW117399   8.850   7.007   6.522
 5189SOL    HW217400   8.899   6.924   6.405
 5190SOL     OW17401   6.855  14.104  14.406
 5190SOL    HW117402   6.837  14.172  14.471
 5190SOL    HW217403   6.785  14.040  14.418
 5191SOL     OW17404  11.425   9.802   5.428
 5191SOL    HW117405  11.450   9.894   5.420
 5191SOL    HW217406  11.374   9.798   5.509
 5192SOL     OW17407  11.545   7.645  10.354
 5192SOL    HW117408  11.503   7.687  10.279
 5192SOL    HW217409  11.475   7.593  10.394
 5193SOL     OW17410  11.713   4.182   3.640
 5193SOL    HW117411  11.647   4.213   3.579
 5193SOL    HW217412  11.686   4.092   3.661
 5194SOL     OW17413   3.125  10.383   4.114
 5194SOL    HW117414   3.144  10.448   4.182
 5194SOL    HW217415   3.182  10.309   4.135
 5195SOL     OW17416   1.570  10.577   5.216
 5195SOL    HW117417   1.649  10.603   5.264
 5195SOL    HW217418   1.597  10.501   5.166
 5196SOL     OW17419   0.813   9.772   0.828
 5196SOL    HW117420   0.837   9.841   0.767
 5196SOL    HW217421   0.893   9.754   0.878
 5197SOL     OW17422   7.748   7.242   0.850
 5197SOL    HW117423   7.688   7.315   0.863
 5197SOL    HW217424   7.730   7.211   0.761
 5198SOL     OW17425   8.876  13.353   9.131
 5198SOL    HW117426   8.809  13.288   9.152
 5198SOL    HW217427   8.899  13.336   9.040
 5199SOL     OW17428  11.161   3.554   6.796
 5199SOL    HW117429  11.182   3.534   6.887
 5199SOL    HW217430  11.243   3.590   6.760
 5200SOL     OW17431   9.646   9.441  11.834
 5200SOL    HW117432   9.698   9.365  11.859
 5200SOL    HW217433   9.609   9.473  11.916
 5201SOL     OW17434   0.345   7.514  10.354
 5201SOL    HW117435   0.381   7.426  10.359
 5201SOL    HW217436   0.250   7.502  10.358
 5202SOL     OW17437   6.832   5.570   5.820
 5202SOL    HW117438   6.871   5.526   5.896
 5202SOL    HW217439   6.772   5.505   5.783
 5203SOL     OW17440   5.095   6.645   1.853
 5203SOL    HW117441   5.187   6.652   1.879
 5203SOL    HW217442   5.098   6.613   1.763
 5204SOL     OW17443  14.346   2.175   7.673
 5204SOL    HW117444  14.432   2.180   7.630
 5204SOL    HW217445  14.294   2.243   7.631
 5205SOL     OW17446  11.978   1.534   8.737
 5205SOL    HW117447  11.897   1.544   8.787
 5205SOL    HW217448  12.031   1.609   8.762
 5206SOL     OW17449  10.991   0.956  14.842
 5206SOL    HW117450  10.935   0.891  14.798
 5206SOL    HW217451  11.003   1.025  14.777
 5207SOL     OW17452   0.149   5.901   8.210
 5207SOL    HW117453   0.176   5.825   8.158
 5207SOL    HW217454   0.184   5.976   8.162
 5208SOL     OW17455   7.492   8.510   3.199
 5208SOL    HW117456   7.505   8.521   3.293
 5208SOL    HW217457   7.429   8.439   3.191
 5209SOL     OW17458   2.532  14.127   1.578
 5209SOL    HW117459   2.583  14.204   1.552
 5209SOL    HW217460   2.477  14.158   1.650
 5210SOL     OW17461   6.789   8.970   5.742
 5210SOL    HW117462   6.750   9.038   5.798
 5210SOL    HW217463   6.844   8.919   5.801
 5211SOL     OW17464  10.472   2.276   2.205
 5211SOL    HW117465  10.563   2.250   2.212
 5211SOL    HW217466  10.475   2.360   2.159
 5212SOL     OW17467   9.755  13.218   3.732
 5212SOL    HW117468   9.787  13.280   3.799
 5212SOL    HW217469   9.825  13.153   3.725
 5213SOL     OW17470   8.297   1.733   9.545
 5213SOL    HW117471   8.341   1.741   9.629
 5213SOL    HW217472   8.363   1.697   9.486
 5214SOL     OW17473  11.682  14.777   1.618
 5214SOL    HW117474  11.626  14.825   1.679
 5214SOL    HW217475  11.769  14.816   1.628
 5215SOL     OW17476   6.417   7.332   5.798
 5215SOL    HW117477   6.403   7.390   5.873
 5215SOL    HW217478   6.470   7.260   5.832
 5216SOL     OW17479   5.730   0.504   6.155
 5216SOL    HW117480   5.810   0.525   6.107
 5216SOL    HW217481   5.759   0.487   6.244
 5217SOL     OW17482   6.932  11.428   0.243
 5217SOL    HW117483   6.964  11.375   0.315
 5217SOL    HW217484   6.994  11.413   0.172
 5218SOL     OW17485  12.186  11.694   6.558
 5218SOL    HW117486  12.092  11.690   6.578
 5218SOL    HW217487  12.202  11.617   6.503
 5219SOL     OW17488   9.924  10.541   1.394
 5219SOL    HW117489   9.887  10.628   1.413
 5219SOL    HW217490   9.906  10.490   1.472
 5220SOL     OW17491   3.792   2.643  10.511
 5220SOL    HW117492   3.832   2.642  10.424
 5220SOL    HW217493   3.831   2.719  10.554
 5221SOL     OW17494   7.223   4.871   2.128
 5221SOL    HW117495   7.308   4.827   2.120
 5221SOL    HW217496   7.170   4.833   2.059
 5222SOL     OW17497   0.397   9.987   2.963
 5222SOL    HW117498   0.465   9.920   2.956
 5222SOL    HW217499   0.382   9.996   3.057
 5223SOL     OW17500   8.967  13.562   2.307
 5223SOL    HW117501   9.016  13.528   2.232
 5223SOL    HW217502   9.026  13.550   2.381
 5224SOL     OW17503  12.708   3.918   3.429
 5224SOL    HW117504  12.779   3.860   3.403
 5224SOL    HW217505  12.709   3.988   3.364
 5225SOL     OW17506   4.138   1.207   6.462
 5225SOL    HW117507   4.232   1.221   6.479
 5225SOL    HW217508   4.135   1.130   6.405
 5226SOL     OW17509   1.840   2.135   3.823
 5226SOL    HW117510   1.860   2.136   3.729
 5226SOL    HW217511   1.865   2.221   3.854
 5227SOL     OW17512  14.823   3.445   7.414
 5227SOL    HW117513  14.782   3.359   7.426
 5227SOL    HW217514  14.813   3.488   7.499
 5228SOL     OW17515  10.011   1.284  11.037
 5228SOL    HW117516   9.924   1.321  11.052
 5228SOL    HW217517  10.053   1.343  10.974
 5229SOL     OW17518  10.911   0.421   8.002
 5229SOL    HW117519  10.847   0.371   7.950
 5229SOL    HW217520  10.995   0.398   7.963
 5230SOL     OW17521   6.238  10.876  10.314
 5230SOL    HW117522   6.297  10.917  10.252
 5230SOL    HW217523   6.177  10.945  10.339
 5231SOL     OW17524   0.680  13.498   6.921
 5231SOL    HW117525   0.729  13.456   6.991
 5231SOL    HW217526   0.590  13.469   6.934
 5232SOL     OW17527   2.378   1.686   1.665
 5232SOL    HW117528   2.442   1.618   1.686
 5232SOL    HW217529   2.296   1.639   1.652
 5233SOL     OW17530   5.284   4.762   8.656
 5233SOL    HW117531   5.205   4.775   8.709
 5233SOL    HW217532   5.318   4.850   8.641
 5234SOL     OW17533   6.388   3.677   5.951
 5234SOL    HW117534   6.337   3.757   5.958
 5234SOL    HW217535   6.477   3.707   5.929
 5235SOL     OW17536  12.202  14.164   7.909
 5235SOL    HW117537  12.118  14.131   7.941
 5235SOL    HW217538  12.251  14.086   7.885
 5236SOL     OW17539   2.932   7.955   8.745
 5236SOL    HW117540   2.860   7.894   8.731
 5236SOL    HW217541   2.920   8.022   8.678
 5237SOL     OW17542  14.077   9.969   1.425
 5237SOL    HW117543  14.093   9.936   1.513
 5237SOL    HW217544  13.983   9.957   1.410
 5238SOL     OW17545   8.373   2.857  12.645
 5238SOL    HW117546   8.344   2.808  12.567
 5238SOL    HW217547   8.396   2.789  12.708
 5239SOL     OW17548   0.109  10.137   3.736
 5239SOL    HW117549   0.026  10.174   3.705
 5239SOL    HW217550   0.116  10.167   3.827
 5240SOL     OW17551   5.706   8.476   2.159
 5240SOL    HW117552   5.726   8.565   2.132
 5240SOL    HW217553   5.616   8.461   2.130
 5241SOL     OW17554   9.189  12.089   6.439
 5241SOL    HW117555   9.260  12.037   6.477
 5241SOL    HW217556   9.202  12.177   6.474
 5242SOL     OW17557  12.851   2.076   3.811
 5242SOL    HW117558  12.895   2.047   3.731
 5242SOL    HW217559  12.760   2.091   3.785
 5243SOL     OW17560  11.961   2.410  11.987
 5243SOL    HW117561  12.036   2.398  11.928
 5243SOL    HW217562  11.885   2.406  11.929
 5244SOL     OW17563  12.695  12.934   3.904
 5244SOL    HW117564  12.633  12.861   3.892
 5244SOL    HW217565  12.773  12.892   3.941
 5245SOL     OW17566  11.803  10.080   5.668
 5245SOL    HW117567  11.751  10.120   5.738
 5245SOL    HW217568  11.779  10.130   5.589
 5246SOL     OW17569   6.335   3.883   2.119
 5246SOL    HW117570   6.338   3.826   2.195
 5246SOL    HW217571   6.381   3.963   2.147
 5247SOL     OW17572   4.182   9.385   8.455
 5247SOL    HW117573   4.222   9.416   8.536
 5247SOL    HW217574   4.088   9.400   8.467
 5248SOL     OW17575   3.072   0.791   5.227
 5248SOL    HW117576   3.153   0.785   5.277
 5248SOL    HW217577   3.011   0.839   5.283
 5249SOL     OW17578   0.534   5.316  11.577
 5249SOL    HW117579   0.554   5.233  11.622
 5249SOL    HW217580   0.440   5.327  11.587
 5250SOL     OW17581  14.336   9.240  14.865
 5250SOL    HW117582  14.268   9.191   0.039
 5250SOL    HW217583  14.416   9.189   0.007
 5251SOL     OW17584  10.216  13.194   0.493
 5251SOL    HW117585  10.209  13.116   0.549
 5251SOL    HW217586  10.298  13.236   0.521
 5252SOL     OW17587   1.841  14.040   7.804
 5252SOL    HW117588   1.918  14.095   7.795
 5252SOL    HW217589   1.767  14.099   7.789
 5253SOL     OW17590  11.191   9.310  12.735
 5253SOL    HW117591  11.140   9.246  12.786
 5253SOL    HW217592  11.126   9.355  12.682
 5254SOL     OW17593  14.292   9.573   6.539
 5254SOL    HW117594  14.268   9.506   6.603
 5254SOL    HW217595  14.339   9.524   6.470
 5255SOL     OW17596   5.131   5.438   7.178
 5255SOL    HW117597   5.108   5.471   7.265
 5255SOL    HW217598   5.097   5.504   7.118
 5256SOL     OW17599   9.586   7.754   1.730
 5256SOL    HW117600   9.674   7.774   1.762
 5256SOL    HW217601   9.600   7.689   1.661
 5257SOL     OW17602   4.116   9.861   6.967
 5257SOL    HW117603   4.193   9.808   6.989
 5257SOL    HW217604   4.058   9.852   7.042
 5258SOL     OW17605  13.685   5.925   9.860
 5258SOL    HW117606  13.636   5.845   9.883
 5258SOL    HW217607  13.733   5.901   9.781
 5259SOL     OW17608  12.948   9.910   8.689
 5259SOL    HW117609  12.990   9.841   8.637
 5259SOL    HW217610  13.017   9.938   8.750
 5260SOL     OW17611   8.750   6.930   9.557
 5260SOL    HW117612   8.821   6.939   9.621
 5260SOL    HW217613   8.712   7.017   9.552
 5261SOL     OW17614  11.546   1.148   2.327
 5261SOL    HW117615  11.453   1.154   2.347
 5261SOL    HW217616  11.584   1.104   2.403
 5262SOL     OW17617  10.006   9.752   4.641
 5262SOL    HW117618   9.949   9.824   4.668
 5262SOL    HW217619  10.083   9.795   4.605
 5263SOL     OW17620   1.388   8.509   0.042
 5263SOL    HW117621   1.453   8.472   0.101
 5263SOL    HW217622   1.431   8.510  14.829
 5264SOL     OW17623  10.877   0.353   6.952
 5264SOL    HW117624  10.789   0.347   6.915
 5264SOL    HW217625  10.899   0.264   6.978
 5265SOL     OW17626   2.395   6.078  11.264
 5265SOL    HW117627   2.491   6.068  11.263
 5265SOL    HW217628   2.374   6.106  11.175
 5266SOL     OW17629   1.406   0.513   9.601
 5266SOL    HW117630   1.378   0.426   9.571
 5266SOL    HW217631   1.327   0.566   9.598
 5267SOL     OW17632   1.666  14.808   3.485
 5267SOL    HW117633   1.640   0.026   3.467
 5267SOL    HW217634   1.757  14.803   3.455
 5268SOL     OW17635   3.249  11.704   1.674
 5268SOL    HW117636   3.288  11.784   1.709
 5268SOL    HW217637   3.316  11.668   1.616
 5269SOL     OW17638   1.169   9.694   8.580
 5269SOL    HW117639   1.174   9.638   8.657
 5269SOL    HW217640   1.117   9.644   8.518
 5270SOL     OW17641  14.225  13.002   7.442
 5270SOL    HW117642  14.129  13.000   7.437
 5270SOL    HW217643  14.244  13.058   7.517
 5271SOL     OW17644  11.298  10.861   5.933
 5271SOL    HW117645  11.257  10.926   5.991
 5271SOL    HW217646  11.359  10.813   5.990
 5272SOL     OW17647   1.261  10.661  14.708
 5272SOL    HW117648   1.304  10.647  14.624
 5272SOL    HW217649   1.253  10.756  14.716
 5273SOL     OW17650   6.592   6.682  13.031
 5273SOL    HW117651   6.561   6.599  12.996
 5273SOL    HW217652   6.679   6.692  12.993
 5274SOL     OW17653  11.775  12.287   9.315
 5274SOL    HW117654  11.732  12.248   9.391
 5274SOL    HW217655  11.705  12.333   9.269
 5275SOL     OW17656   3.899   7.525   8.860
 5275SOL    HW117657   3.846   7.455   8.822
 5275SOL    HW217658   3.945   7.564   8.786
 5276SOL     OW17659   3.955   9.895   5.775
 5276SOL    HW117660   3.994   9.914   5.689
 5276SOL    HW217661   3.880   9.839   5.755
 5277SOL     OW17662   8.450   0.065  12.893
 5277SOL    HW117663   8.357   0.044  12.901
 5277SOL    HW217664   8.462   0.145  12.945
 5278SOL     OW17665  14.275   7.013   2.403
 5278SOL    HW117666  14.318   7.098   2.402
 5278SOL    HW217667  14.238   7.006   2.491
 5279SOL     OW17668   8.326  11.118   6.570
 5279SOL    HW117669   8.336  11.205   6.608
 5279SOL    HW217670   8.264  11.130   6.498
 5280SOL     OW17671   2.239  10.032  10.259
 5280SOL    HW117672   2.253   9.938  10.253
 5280SOL    HW217673   2.317  10.070  10.217
 5281SOL     OW17674  11.643   8.192   3.773
 5281SOL    HW117675  11.581   8.191   3.700
 5281SOL    HW217676  11.604   8.251   3.837
 5282SOL     OW17677  10.244   2.819  11.588
 5282SOL    HW117678  10.150   2.822  11.605
 5282SOL    HW217679  10.268   2.909  11.565
 5283SOL     OW17680   6.460  14.586   3.231
 5283SOL    HW117681   6.404  14.617   3.301
 5283SOL    HW217682   6.526  14.655   3.221
 5284SOL     OW17683   2.985  14.243   0.168
 5284SOL    HW117684   2.926  14.203   0.104
 5284SOL    HW217685   2.927  14.276   0.237
 5285SOL     OW17686   5.946   6.566   7.439
 5285SOL    HW117687   5.878   6.499   7.441
 5285SOL    HW217688   5.974   6.569   7.347
 5286SOL     OW17689   0.757  13.584   4.950
 5286SOL    HW117690   0.726  13.629   5.029
 5286SOL    HW217691   0.713  13.629   4.878
 5287SOL     OW17692  10.749   5.820   5.136
 5287SOL    HW117693  10.672   5.875   5.125
 5287SOL    HW217694  10.817   5.879   5.170
 5288SOL     OW17695   6.598   3.691  12.389
 5288SOL    HW117696   6.619   3.668  12.479
 5288SOL    HW217697   6.536   3.624  12.361
 5289SOL     OW17698  13.436  11.111   0.753
 5289SOL    HW117699  13.509  11.173   0.757
 5289SOL    HW217700  13.387  11.136   0.675
 5290SOL     OW17701   3.425  12.252   1.304
 5290SOL    HW117702   3.453  12.332   1.259
 5290SOL    HW217703   3.456  12.264   1.394
 5291SOL     OW17704   0.028   8.602   5.517
 5291SOL    HW117705   0.104   8.653   5.489
 5291SOL    HW217706  14.865   8.565   5.436
 5292SOL     OW17707  11.526  11.870   1.341
 5292SOL    HW117708  11.565  11.957   1.334
 5292SOL    HW217709  11.600  11.812   1.357
 5293SOL     OW17710   1.566   4.602   4.280
 5293SOL    HW117711   1.475   4.574   4.290
 5293SOL    HW217712   1.586   4.586   4.187
 5294SOL     OW17713   5.413   7.189  12.537
 5294SOL    HW117714   5.411   7.178  12.442
 5294SOL    HW217715   5.325   7.166  12.566
 5295SOL     OW17716  11.518   5.890   1.308
 5295SOL    HW117717  11.588   5.947   1.275
 5295SOL    HW217718  11.450   5.894   1.241
 5296SOL     OW17719   4.871   2.122  11.389
 5296SOL    HW117720   4.792   2.168  11.360
 5296SOL    HW217721   4.868   2.039  11.341
 5297SOL     OW17722   9.792  11.326  14.112
 5297SOL    HW117723   9.807  11.233  14.094
 5297SOL    HW217724   9.831  11.371  14.037
 5298SOL     OW17725   2.628   2.724   2.753
 5298SOL    HW117726   2.698   2.717   2.819
 5298SOL    HW217727   2.550   2.746   2.803
 5299SOL     OW17728  10.602   9.745  11.508
 5299SOL    HW117729  10.631   9.659  11.477
 5299SOL    HW217730  10.508   9.746  11.493
 5300SOL     OW17731   0.375   3.050   5.983
 5300SOL    HW117732   0.380   3.017   5.893
 5300SOL    HW217733   0.282   3.050   6.004
 5301SOL     OW17734   9.215   0.631  11.885
 5301SOL    HW117735   9.282   0.699  11.899
 5301SOL    HW217736   9.151   0.646  11.954
 5302SOL     OW17737   9.931  11.488  10.892
 5302SOL    HW117738   9.914  11.487  10.986
 5302SOL    HW217739   9.847  11.467  10.852
 5303SOL     OW17740   5.550   9.070   4.525
 5303SOL    HW117741   5.566   8.993   4.580
 5303SOL    HW217742   5.472   9.048   4.474
 5304SOL     OW17743   5.442   4.427   2.950
 5304SOL    HW117744   5.422   4.501   3.007
 5304SOL    HW217745   5.537   4.434   2.934
 5305SOL     OW17746  10.487  11.708  13.541
 5305SOL    HW117747  10.494  11.655  13.462
 5305SOL    HW217748  10.563  11.683  13.594
 5306SOL     OW17749  12.265   7.516  10.333
 5306SOL    HW117750  12.298   7.493  10.420
 5306SOL    HW217751  12.335   7.569  10.294
 5307SOL     OW17752   5.614   5.235   3.154
 5307SOL    HW117753   5.675   5.303   3.126
 5307SOL    HW217754   5.534   5.282   3.178
 5308SOL     OW17755   6.639   6.592   6.969
 5308SOL    HW117756   6.653   6.631   6.882
 5308SOL    HW217757   6.722   6.548   6.988
 5309SOL     OW17758   2.053   4.682  13.728
 5309SOL    HW117759   2.003   4.606  13.756
 5309SOL    HW217760   2.107   4.704  13.804
 5310SOL     OW17761   3.630  13.648   7.824
 5310SOL    HW117762   3.715  13.687   7.844
 5310SOL    HW217763   3.566  13.711   7.856
 5311SOL     OW17764  10.528   9.301  12.134
 5311SOL    HW117765  10.531   9.323  12.041
 5311SOL    HW217766  10.572   9.216  12.140
 5312SOL     OW17767   4.759   2.135   1.944
 5312SOL    HW117768   4.825   2.143   1.876
 5312SOL    HW217769   4.809   2.123   2.025
 5313SOL     OW17770   8.316   5.773   9.757
 5313SOL    HW117771   8.383   5.821   9.805
 5313SOL    HW217772   8.268   5.725   9.824
 5314SOL     OW17773   7.705   0.080   7.081
 5314SOL    HW117774   7.614   0.106   7.098
 5314SOL    HW217775   7.703  14.857   7.076
 5315SOL     OW17776  13.672   8.353   1.558
 5315SOL    HW117777  13.694   8.411   1.486
 5315SOL    HW217778  13.601   8.298   1.525
 5316SOL     OW17779   2.521  14.307  12.277
 5316SOL    HW117780   2.581  14.327  12.206
 5316SOL    HW217781   2.531  14.379  12.339
 5317SOL     OW17782   3.839   9.367   6.874
 5317SOL    HW117783   3.824   9.460   6.855
 5317SOL    HW217784   3.821   9.358   6.967
 5318SOL     OW17785  14.193  10.516   9.165
 5318SOL    HW117786  14.264  10.530   9.228
 5318SOL    HW217787  14.120  10.567   9.200
 5319SOL     OW17788   7.252  14.449   4.197
 5319SOL    HW117789   7.188  14.493   4.141
 5319SOL    HW217790   7.290  14.519   4.250
 5320SOL     OW17791   7.949   0.838  10.080
 5320SOL    HW117792   8.031   0.864  10.038
 5320SOL    HW217793   7.883   0.852  10.013
 5321SOL     OW17794   3.559   9.449  12.530
 5321SOL    HW117795   3.528   9.500  12.605
 5321SOL    HW217796   3.567   9.513  12.459
 5322SOL     OW17797   4.703   7.134   5.940
 5322SOL    HW117798   4.727   7.124   5.847
 5322SOL    HW217799   4.616   7.175   5.938
 5323SOL     OW17800   0.564   6.452   9.550
 5323SOL    HW117801   0.598   6.485   9.633
 5323SOL    HW217802   0.479   6.495   9.540
 5324SOL     OW17803   0.845  10.636   5.622
 5324SOL    HW117804   0.788  10.576   5.574
 5324SOL    HW217805   0.809  10.638   5.710
 5325SOL     OW17806   0.072   7.190  13.851
 5325SOL    HW117807   0.084   7.097  13.829
 5325SOL    HW217808  14.859   7.194  13.893
 5326SOL     OW17809  13.014   0.803   1.876
 5326SOL    HW117810  12.965   0.732   1.834
 5326SOL    HW217811  12.966   0.822   1.956
 5327SOL     OW17812  13.471   3.702  11.985
 5327SOL    HW117813  13.566   3.693  11.989
 5327SOL    HW217814  13.437   3.623  12.027
 5328SOL     OW17815   2.271  11.564   5.106
 5328SOL    HW117816   2.300  11.655   5.113
 5328SOL    HW217817   2.319  11.530   5.030
 5329SOL     OW17818  12.661   4.257   0.485
 5329SOL    HW117819  12.610   4.254   0.404
 5329SOL    HW217820  12.606   4.212   0.549
 5330SOL     OW17821   0.409  10.648   1.041
 5330SOL    HW117822   0.346  10.606   0.983
 5330SOL    HW217823   0.367  10.730   1.067
 5331SOL     OW17824   1.987   9.530   2.784
 5331SOL    HW117825   1.932   9.457   2.754
 5331SOL    HW217826   1.948   9.608   2.745
 5332SOL     OW17827   6.937   2.608  14.848
 5332SOL    HW117828   6.944   2.578   0.067
 5332SOL    HW217829   6.895   2.693  14.854
 5333SOL     OW17830  12.906  13.803   1.026
 5333SOL    HW117831  12.916  13.780   1.119
 5333SOL    HW217832  12.833  13.750   0.996
 5334SOL     OW17833   7.194  10.275   9.069
 5334SOL    HW117834   7.183  10.186   9.038
 5334SOL    HW217835   7.126  10.325   9.024
 5335SOL     OW17836   7.814   9.678  10.508
 5335SOL    HW117837   7.787   9.588  10.491
 5335SOL    HW217838   7.743   9.731  10.471
 5336SOL     OW17839   8.361   3.686   6.648
 5336SOL    HW117840   8.453   3.660   6.653
 5336SOL    HW217841   8.357   3.748   6.575
 5337SOL     OW17842  11.795   2.043   0.354
 5337SOL    HW117843  11.811   1.980   0.284
 5337SOL    HW217844  11.882   2.061   0.390
 5338SOL     OW17845  13.985   0.746   1.153
 5338SOL    HW117846  13.921   0.788   1.211
 5338SOL    HW217847  14.027   0.679   1.208
 5339SOL     OW17848   4.913   7.625  13.281
 5339SOL    HW117849   4.900   7.534  13.251
 5339SOL    HW217850   4.932   7.617  13.374
 5340SOL     OW17851   1.836   6.963   8.639
 5340SOL    HW117852   1.906   6.909   8.678
 5340SOL    HW217853   1.755   6.920   8.667
 5341SOL     OW17854  10.955   8.524   6.948
 5341SOL    HW117855  10.950   8.487   6.860
 5341SOL    HW217856  11.041   8.498   6.981
 5342SOL     OW17857   1.008   2.148   9.842
 5342SOL    HW117858   1.071   2.142   9.914
 5342SOL    HW217859   0.948   2.075   9.856
 5343SOL     OW17860  11.776  13.806  11.236
 5343SOL    HW117861  11.756  13.884  11.184
 5343SOL    HW217862  11.708  13.804  11.303
 5344SOL     OW17863   7.720   7.640  11.839
 5344SOL    HW117864   7.777   7.716  11.841
 5344SOL    HW217865   7.738   7.593  11.920
 5345SOL     OW17866   6.348  11.496   2.316
 5345SOL    HW117867   6.314  11.493   2.405
 5345SOL    HW217868   6.428  11.443   2.320
 5346SOL     OW17869   3.909   8.705   6.998
 5346SOL    HW117870   3.980   8.671   6.945
 5346SOL    HW217871   3.953   8.749   7.071
 5347SOL     OW17872   9.125   4.180  10.759
 5347SOL    HW117873   9.087   4.245  10.700
 5347SOL    HW217874   9.213   4.213  10.779
 5348SOL     OW17875   8.025   6.229  10.139
 5348SOL    HW117876   8.066   6.152  10.099
 5348SOL    HW217877   7.991   6.280  10.066
 5349SOL     OW17878   0.512  10.055   8.538
 5349SOL    HW117879   0.448  10.020   8.476
 5349SOL    HW217880   0.547  10.133   8.496
 5350SOL     OW17881  13.980   0.144   2.531
 5350SOL    HW117882  13.898   0.170   2.572
 5350SOL    HW217883  14.014   0.225   2.492
 5351SOL     OW17884   1.081   2.328   5.951
 5351SOL    HW117885   1.007   2.386   5.940
 5351SOL    HW217886   1.138   2.372   6.014
 5352SOL     OW17887   9.093   0.082  12.879
 5352SOL    HW117888   9.187   0.061  12.870
 5352SOL    HW217889   9.091   0.177  12.893
 5353SOL     OW17890   4.736  10.557  10.521
 5353SOL    HW117891   4.791  10.623  10.562
 5353SOL    HW217892   4.675  10.531  10.591
 5354SOL     OW17893   3.951   6.869   8.157
 5354SOL    HW117894   3.873   6.815   8.145
 5354SOL    HW217895   3.920   6.959   8.142
 5355SOL     OW17896  12.700   4.216   8.108
 5355SOL    HW117897  12.754   4.174   8.042
 5355SOL    HW217898  12.645   4.277   8.059
 5356SOL     OW17899   4.290   0.456  13.884
 5356SOL    HW117900   4.315   0.462  13.977
 5356SOL    HW217901   4.254   0.368  13.875
 5357SOL     OW17902   7.523  13.832   0.402
 5357SOL    HW117903   7.451  13.802   0.458
 5357SOL    HW217904   7.589  13.763   0.407
 5358SOL     OW17905  11.743   6.402   8.734
 5358SOL    HW117906  11.816   6.341   8.723
 5358SOL    HW217907  11.687   6.360   8.799
 5359SOL     OW17908  10.728   3.776   8.026
 5359SOL    HW117909  10.700   3.701   7.973
 5359SOL    HW217910  10.673   3.772   8.104
 5360SOL     OW17911  10.192   1.088  10.915
 5360SOL    HW117912  10.166   1.139  10.839
 5360SOL    HW217913  10.115   1.090  10.972
 5361SOL     OW17914   2.340   1.569   5.531
 5361SOL    HW117915   2.247   1.543   5.527
 5361SOL    HW217916   2.360   1.567   5.625
 5362SOL     OW17917  14.293   6.341  12.082
 5362SOL    HW117918  14.346   6.363  12.006
 5362SOL    HW217919  14.256   6.425  12.111
 5363SOL     OW17920  10.036   5.050  14.193
 5363SOL    HW117921   9.978   5.003  14.252
 5363SOL    HW217922   9.982   5.071  14.117
 5364SOL     OW17923  10.150  13.527   5.221
 5364SOL    HW117924  10.063  13.555   5.251
 5364SOL    HW217925  10.171  13.588   5.151
 5365SOL     OW17926   8.823   9.105   9.154
 5365SOL    HW117927   8.894   9.051   9.121
 5365SOL    HW217928   8.837   9.107   9.249
 5366SOL     OW17929  13.367   8.944   4.735
 5366SOL    HW117930  13.320   9.007   4.789
 5366SOL    HW217931  13.403   8.880   4.797
 5367SOL     OW17932   2.375  14.470   2.828
 5367SOL    HW117933   2.377  14.485   2.734
 5367SOL    HW217934   2.395  14.555   2.867
 5368SOL     OW17935  10.890  14.293  14.455
 5368SOL    HW117936  10.841  14.268  14.533
 5368SOL    HW217937  10.958  14.226  14.447
 5369SOL     OW17938  14.698   4.121   4.493
 5369SOL    HW117939  14.608   4.096   4.510
 5369SOL    HW217940  14.703   4.132   4.398
 5370SOL     OW17941  13.459   6.466   4.665
 5370SOL    HW117942  13.552   6.460   4.642
 5370SOL    HW217943  13.436   6.378   4.693
 5371SOL     OW17944  10.623  13.061   2.292
 5371SOL    HW117945  10.600  13.136   2.348
 5371SOL    HW217946  10.544  13.045   2.240
 5372SOL     OW17947   3.104   3.891   8.882
 5372SOL    HW117948   3.144   3.968   8.924
 5372SOL    HW217949   3.128   3.818   8.938
 5373SOL     OW17950  14.269   5.111   6.806
 5373SOL    HW117951  14.188   5.066   6.781
 5373SOL    HW217952  14.284   5.174   6.735
 5374SOL     OW17953   9.457   3.065  12.450
 5374SOL    HW117954   9.479   2.988  12.398
 5374SOL    HW217955   9.536   3.084  12.500
 5375SOL     OW17956   3.232   9.757  12.952
 5375SOL    HW117957   3.292   9.803  12.893
 5375SOL    HW217958   3.287   9.692  12.996
 5376SOL     OW17959   4.540  12.229   1.049
 5376SOL    HW117960   4.500  12.206   1.133
 5376SOL    HW217961   4.615  12.169   1.041
 5377SOL     OW17962  13.354  13.175  12.813
 5377SOL    HW117963  13.413  13.112  12.771
 5377SOL    HW217964  13.288  13.194  12.746
 5378SOL     OW17965  10.843   0.071  11.977
 5378SOL    HW117966  10.806   0.064  12.065
 5378SOL    HW217967  10.801   0.149  11.940
 5379SOL     OW17968   9.729  13.392   5.165
 5379SOL    HW117969   9.636  13.411   5.148
 5379SOL    HW217970   9.772  13.405   5.080
 5380SOL     OW17971   0.035   8.010   9.086
 5380SOL    HW117972   0.021   7.955   9.163
 5380SOL    HW217973   0.116   7.976   9.047
 5381SOL     OW17974   9.317   2.905   9.534
 5381SOL    HW117975   9.259   2.934   9.464
 5381SOL    HW217976   9.403   2.899   9.492
 5382SOL     OW17977   2.749  11.523   8.529
 5382SOL    HW117978   2.676  11.482   8.575
 5382SOL    HW217979   2.754  11.611   8.567
 5383SOL     OW17980   8.491   9.155  10.634
 5383SOL    HW117981   8.556   9.120  10.695
 5383SOL    HW217982   8.426   9.084  10.625
 5384SOL     OW17983   1.008  12.123   2.397
 5384SOL    HW117984   1.081  12.065   2.380
 5384SOL    HW217985   0.969  12.090   2.478
 5385SOL     OW17986   4.515   9.876   1.863
 5385SOL    HW117987   4.525   9.959   1.910
 5385SOL    HW217988   4.518   9.901   1.770
 5386SOL     OW17989   6.009   9.405   8.834
 5386SOL    HW117990   6.043   9.316   8.824
 5386SOL    HW217991   6.048   9.454   8.762
 5387SOL     OW17992   3.435   7.493   8.220
 5387SOL    HW117993   3.423   7.499   8.314
 5387SOL    HW217994   3.351   7.462   8.187
 5388SOL     OW17995   9.595  14.606   0.523
 5388SOL    HW117996   9.586  14.536   0.587
 5388SOL    HW217997   9.526  14.589   0.459
 5389SOL     OW17998   6.373   0.810   4.048
 5389SOL    HW117999   6.289   0.854   4.063
 5389SOL    HW218000   6.387   0.817   3.953
 5390SOL     OW18001  12.857   5.668   5.138
 5390SOL    HW118002  12.936   5.722   5.140
 5390SOL    HW218003  12.828   5.669   5.047
 5391SOL     OW18004   0.899   0.437   6.209
 5391SOL    HW118005   0.943   0.485   6.139
 5391SOL    HW218006   0.815   0.412   6.172
 5392SOL     OW18007   9.805   7.090   2.744
 5392SOL    HW118008   9.731   7.030   2.748
 5392SOL    HW218009   9.879   7.035   2.718
 5393SOL     OW18010  11.812   9.295  11.415
 5393SOL    HW118011  11.726   9.260  11.440
 5393SOL    HW218012  11.856   9.221  11.372
 5394SOL     OW18013   4.701   4.896  11.411
 5394SOL    HW118014   4.736   4.948  11.483
 5394SOL    HW218015   4.779   4.865  11.365
 5395SOL     OW18016   7.268   3.059  12.720
 5395SOL    HW118017   7.310   3.145  12.724
 5395SOL    HW218018   7.296   3.022  12.636
 5396SOL     OW18019  11.597  11.606   2.413
 5396SOL    HW118020  11.519  11.558   2.386
 5396SOL    HW218021  11.567  11.696   2.425
 5397SOL     OW18022   7.452   5.873  10.032
 5397SOL    HW118023   7.393   5.943  10.059
 5397SOL    HW218024   7.530   5.918  10.001
 5398SOL     OW18025  11.962   0.519  14.490
 5398SOL    HW118026  11.903   0.589  14.461
 5398SOL    HW218027  11.916   0.478  14.563
 5399SOL     OW18028  10.034   4.200   4.813
 5399SOL    HW118029  10.070   4.279   4.851
 5399SOL    HW218030  10.002   4.227   4.727
 5400SOL     OW18031   2.478  14.769   0.728
 5400SOL    HW118032   2.401  14.781   0.783
 5400SOL    HW218033   2.443  14.743   0.643
 5401SOL     OW18034   4.155  12.329  10.567
 5401SOL    HW118035   4.241  12.356  10.534
 5401SOL    HW218036   4.170  12.310  10.660
 5402SOL     OW18037   2.343   1.501   8.638
 5402SOL    HW118038   2.404   1.531   8.706
 5402SOL    HW218039   2.283   1.442   8.684
 5403SOL     OW18040  10.143  10.366   1.376
 5403SOL    HW118041  10.177  10.379   1.288
 5403SOL    HW218042  10.068  10.426   1.382
 5404SOL     OW18043   3.315   8.272  12.475
 5404SOL    HW118044   3.272   8.333  12.415
 5404SOL    HW218045   3.311   8.187  12.431
 5405SOL     OW18046   2.034  10.787  12.569
 5405SOL    HW118047   2.076  10.873  12.570
 5405SOL    HW218048   2.105  10.726  12.547
 5406SOL     OW18049   2.554  11.753   0.336
 5406SOL    HW118050   2.557  11.796   0.422
 5406SOL    HW218051   2.481  11.691   0.342
 5407SOL     OW18052   6.236   1.460   8.923
 5407SOL    HW118053   6.219   1.367   8.909
 5407SOL    HW218054   6.150   1.500   8.930
 5408SOL     OW18055  10.311   4.721   8.945
 5408SOL    HW118056  10.297   4.768   8.863
 5408SOL    HW218057  10.251   4.763   9.007
 5409SOL     OW18058   8.607   9.193   1.692
 5409SOL    HW118059   8.681   9.138   1.666
 5409SOL    HW218060   8.532   9.156   1.645
 5410SOL     OW18061   5.563   9.284  12.312
 5410SOL    HW118062   5.476   9.301  12.349
 5410SOL    HW218063   5.622   9.287  12.387
 5411SOL     OW18064   9.327   5.395  13.101
 5411SOL    HW118065   9.354   5.318  13.152
 5411SOL    HW218066   9.287   5.358  13.023
 5412SOL     OW18067   8.114   3.007   9.933
 5412SOL    HW118068   8.138   2.923   9.973
 5412SOL    HW218069   8.096   2.985   9.842
 5413SOL     OW18070  11.145  11.318   2.733
 5413SOL    HW118071  11.143  11.404   2.692
 5413SOL    HW218072  11.086  11.264   2.681
 5414SOL     OW18073   1.405   3.135  11.190
 5414SOL    HW118074   1.377   3.195  11.260
 5414SOL    HW218075   1.449   3.192  11.126
 5415SOL     OW18076   8.097   6.600  11.552
 5415SOL    HW118077   8.172   6.659  11.556
 5415SOL    HW218078   8.073   6.598  11.459
 5416SOL     OW18079  14.843   1.699  13.571
 5416SOL    HW118080   0.033   1.704  13.498
 5416SOL    HW218081   0.027   1.692  13.649
 5417SOL     OW18082  14.666   2.668  10.605
 5417SOL    HW118083  14.647   2.578  10.632
 5417SOL    HW218084  14.743   2.660  10.550
 5418SOL     OW18085  14.486  10.787  13.084
 5418SOL    HW118086  14.552  10.731  13.126
 5418SOL    HW218087  14.532  10.827  13.010
 5419SOL     OW18088   9.185   8.882  14.602
 5419SOL    HW118089   9.232   8.957  14.566
 5419SOL    HW218090   9.093   8.903  14.589
 5420SOL     OW18091   1.004   2.196   7.495
 5420SOL    HW118092   1.058   2.187   7.573
 5420SOL    HW218093   1.066   2.187   7.422
 5421SOL     OW18094   5.795   2.376   8.296
 5421SOL    HW118095   5.731   2.348   8.361
 5421SOL    HW218096   5.761   2.343   8.213
 5422SOL     OW18097   2.071  12.621   5.462
 5422SOL    HW118098   2.082  12.576   5.378
 5422SOL    HW218099   2.010  12.692   5.444
 5423SOL     OW18100  10.778  13.424   2.285
 5423SOL    HW118101  10.828  13.459   2.358
 5423SOL    HW218102  10.843  13.409   2.216
 5424SOL     OW18103  12.837   9.239  12.761
 5424SOL    HW118104  12.810   9.187  12.685
 5424SOL    HW218105  12.921   9.200  12.787
 5425SOL     OW18106  12.728   5.362  10.181
 5425SOL    HW118107  12.701   5.447  10.216
 5425SOL    HW218108  12.773   5.383  10.099
 5426SOL     OW18109   6.793  13.876   3.653
 5426SOL    HW118110   6.850  13.802   3.632
 5426SOL    HW218111   6.849  13.953   3.642
 5427SOL     OW18112  13.951   5.745   9.102
 5427SOL    HW118113  13.876   5.802   9.121
 5427SOL    HW218114  14.003   5.746   9.182
 5428SOL     OW18115  12.660   8.342  10.343
 5428SOL    HW118116  12.573   8.307  10.325
 5428SOL    HW218117  12.648   8.404  10.414
 5429SOL     OW18118   9.867   5.160   7.837
 5429SOL    HW118119   9.865   5.162   7.932
 5429SOL    HW218120   9.839   5.248   7.811
 5430SOL     OW18121   3.949  12.021   5.945
 5430SOL    HW118122   3.941  12.066   5.861
 5430SOL    HW218123   4.000  11.943   5.925
 5431SOL     OW18124  12.607   6.617   1.550
 5431SOL    HW118125  12.526   6.573   1.575
 5431SOL    HW218126  12.669   6.547   1.532
 5432SOL     OW18127   9.100   4.145  13.787
 5432SOL    HW118128   9.140   4.137  13.874
 5432SOL    HW218129   9.171   4.173  13.730
 5433SOL     OW18130  13.443   7.114   7.030
 5433SOL    HW118131  13.520   7.115   6.973
 5433SOL    HW218132  13.479   7.127   7.118
 5434SOL     OW18133  13.751   3.059   0.736
 5434SOL    HW118134  13.823   3.076   0.798
 5434SOL    HW218135  13.751   3.135   0.678
 5435SOL     OW18136   6.157   2.573  12.954
 5435SOL    HW118137   6.225   2.564  13.021
 5435SOL    HW218138   6.146   2.485  12.919
 5436SOL     OW18139   5.869   7.661  11.457
 5436SOL    HW118140   5.775   7.655  11.441
 5436SOL    HW218141   5.877   7.724  11.528
 5437SOL     OW18142  14.217   9.029   1.328
 5437SOL    HW118143  14.144   8.983   1.370
 5437SOL    HW218144  14.186   9.119   1.317
 5438SOL     OW18145  10.687  11.547   0.082
 5438SOL    HW118146  10.598  11.533   0.048
 5438SOL    HW218147  10.722  11.618   0.029
 5439SOL     OW18148   1.364  10.421   4.772
 5439SOL    HW118149   1.384  10.334   4.807
 5439SOL    HW218150   1.269  10.430   4.782
 5440SOL     OW18151   1.256   5.546   3.995
 5440SOL    HW118152   1.233   5.639   3.999
 5440SOL    HW218153   1.323   5.535   4.063
 5441SOL     OW18154   5.951   7.560  11.796
 5441SOL    HW118155   5.924   7.652  11.803
 5441SOL    HW218156   6.043   7.565  11.771
 5442SOL     OW18157   8.936   0.763   7.842
 5442SOL    HW118158   8.938   0.730   7.752
 5442SOL    HW218159   8.994   0.705   7.891
 5443SOL     OW18160  14.196   9.527   0.007
 5443SOL    HW118161  14.131   9.536  14.810
 5443SOL    HW218162  14.276   9.501  14.835
 5444SOL     OW18163  13.080   6.500  13.126
 5444SOL    HW118164  13.119   6.412  13.131
 5444SOL    HW218165  13.004   6.489  13.069
 5445SOL     OW18166  13.591  10.713   8.040
 5445SOL    HW118167  13.626  10.669   7.962
 5445SOL    HW218168  13.523  10.771   8.006
 5446SOL     OW18169   5.461  10.897  12.273
 5446SOL    HW118170   5.436  10.909  12.181
 5446SOL    HW218171   5.531  10.831  12.269
 5447SOL     OW18172   2.125   2.479  11.953
 5447SOL    HW118173   2.107   2.388  11.928
 5447SOL    HW218174   2.038   2.520  11.957
 5448SOL     OW18175   7.139  13.895   0.541
 5448SOL    HW118176   7.161  13.983   0.512
 5448SOL    HW218177   7.044  13.889   0.528
 5449SOL     OW18178   6.362   0.505  12.014
 5449SOL    HW118179   6.354   0.409  12.015
 5449SOL    HW218180   6.359   0.528  11.922
 5450SOL     OW18181   2.185   3.056   1.213
 5450SOL    HW118182   2.125   3.130   1.203
 5450SOL    HW218183   2.246   3.063   1.140
 5451SOL     OW18184   1.257  12.810  14.582
 5451SOL    HW118185   1.325  12.863  14.540
 5451SOL    HW218186   1.230  12.862  14.658
 5452SOL     OW18187   3.297   4.343  13.693
 5452SOL    HW118188   3.372   4.388  13.654
 5452SOL    HW218189   3.245   4.412  13.734
 5453SOL     OW18190   7.041   8.359   3.250
 5453SOL    HW118191   7.080   8.442   3.220
 5453SOL    HW218192   7.051   8.363   3.346
 5454SOL     OW18193   1.464   4.386   7.533
 5454SOL    HW118194   1.372   4.363   7.528
 5454SOL    HW218195   1.464   4.478   7.559
 5455SOL     OW18196  10.871  12.502   2.830
 5455SOL    HW118197  10.798  12.503   2.768
 5455SOL    HW218198  10.845  12.439   2.898
 5456SOL     OW18199   8.283   1.322   3.466
 5456SOL    HW118200   8.355   1.377   3.437
 5456SOL    HW218201   8.323   1.257   3.524
 5457SOL     OW18202   9.395   3.273  10.290
 5457SOL    HW118203   9.396   3.193  10.238
 5457SOL    HW218204   9.474   3.267  10.344
 5458SOL     OW18205  13.323  12.436   1.439
 5458SOL    HW118206  13.327  12.351   1.484
 5458SOL    HW218207  13.341  12.500   1.507
 5459SOL     OW18208   7.619   9.745  14.485
 5459SOL    HW118209   7.542   9.717  14.534
 5459SOL    HW218210   7.692   9.694  14.521
 5460SOL     OW18211   1.416   2.296  14.771
 5460SOL    HW118212   1.351   2.363  14.751
 5460SOL    HW218213   1.467   2.332  14.843
 5461SOL     OW18214  14.480   0.886  12.326
 5461SOL    HW118215  14.517   0.799  12.309
 5461SOL    HW218216  14.427   0.874  12.405
 5462SOL     OW18217   0.925   0.107  12.997
 5462SOL    HW118218   0.846   0.097  13.051
 5462SOL    HW218219   0.978   0.030  13.020
 5463SOL     OW18220   0.017   3.814   9.562
 5463SOL    HW118221   0.034   3.762   9.483
 5463SOL    HW218222   0.024   3.905   9.533
 5464SOL     OW18223   0.498  12.766  10.773
 5464SOL    HW118224   0.565  12.699  10.763
 5464SOL    HW218225   0.468  12.783  10.683
 5465SOL     OW18226   3.504   1.024   4.535
 5465SOL    HW118227   3.550   1.089   4.482
 5465SOL    HW218228   3.417   1.062   4.550
 5466SOL     OW18229  12.058   5.671   2.743
 5466SOL    HW118230  12.105   5.588   2.749
 5466SOL    HW218231  12.086   5.721   2.820
 5467SOL     OW18232   4.922  10.632   8.300
 5467SOL    HW118233   4.866  10.673   8.235
 5467SOL    HW218234   4.928  10.540   8.272
 5468SOL     OW18235  12.683  14.169   5.973
 5468SOL    HW118236  12.687  14.078   5.945
 5468SOL    HW218237  12.712  14.168   6.064
 5469SOL     OW18238   6.527   9.035  10.715
 5469SOL    HW118239   6.507   9.128  10.719
 5469SOL    HW218240   6.468   8.995  10.779
 5470SOL     OW18241   6.691  12.978   9.258
 5470SOL    HW118242   6.755  12.942   9.196
 5470SOL    HW218243   6.643  13.043   9.207
 5471SOL     OW18244   5.411  13.257   7.611
 5471SOL    HW118245   5.406  13.163   7.595
 5471SOL    HW218246   5.322  13.282   7.634
 5472SOL     OW18247   2.559   3.036   6.572
 5472SOL    HW118248   2.600   3.079   6.497
 5472SOL    HW218249   2.554   3.104   6.639
 5473SOL     OW18250   0.365   8.027  12.841
 5473SOL    HW118251   0.387   7.986  12.924
 5473SOL    HW218252   0.279   8.065  12.854
 5474SOL     OW18253   7.394   8.295   4.809
 5474SOL    HW118254   7.422   8.325   4.895
 5474SOL    HW218255   7.382   8.201   4.818
 5475SOL     OW18256   5.242   1.928   4.814
 5475SOL    HW118257   5.184   1.880   4.873
 5475SOL    HW218258   5.318   1.952   4.869
 5476SOL     OW18259   8.136   6.859   3.280
 5476SOL    HW118260   8.057   6.900   3.244
 5476SOL    HW218261   8.165   6.799   3.212
 5477SOL     OW18262   6.557  12.337  10.315
 5477SOL    HW118263   6.628  12.286  10.352
 5477SOL    HW218264   6.600  12.414  10.276
 5478SOL     OW18265  11.294   1.509   7.835
 5478SOL    HW118266  11.351   1.442   7.872
 5478SOL    HW218267  11.295   1.580   7.899
 5479SOL     OW18268   8.063   1.121  10.784
 5479SOL    HW118269   8.151   1.157  10.780
 5479SOL    HW218270   8.028   1.130  10.695
 5480SOL     OW18271  11.026   6.725   5.584
 5480SOL    HW118272  11.118   6.751   5.580
 5480SOL    HW218273  10.997   6.727   5.492
 5481SOL     OW18274   1.976   1.255  11.116
 5481SOL    HW118275   1.963   1.331  11.060
 5481SOL    HW218276   2.058   1.216  11.085
 5482SOL     OW18277   4.126   2.721  13.798
 5482SOL    HW118278   4.054   2.718  13.860
 5482SOL    HW218279   4.152   2.813  13.796
 5483SOL     OW18280   2.359   2.596  11.113
 5483SOL    HW118281   2.377   2.605  11.019
 5483SOL    HW218282   2.417   2.525  11.141
 5484SOL     OW18283  12.540   8.803   7.275
 5484SOL    HW118284  12.446   8.801   7.294
 5484SOL    HW218285  12.561   8.713   7.250
 5485SOL     OW18286  11.557   3.076   9.633
 5485SOL    HW118287  11.480   3.023   9.653
 5485SOL    HW218288  11.616   3.060   9.706
 5486SOL     OW18289   4.805   9.660  11.923
 5486SOL    HW118290   4.874   9.696  11.978
 5486SOL    HW218291   4.793   9.726  11.854
 5487SOL     OW18292   2.558   5.143   7.966
 5487SOL    HW118293   2.528   5.174   8.051
 5487SOL    HW218294   2.540   5.049   7.966
 5488SOL     OW18295   5.935  12.098   2.370
 5488SOL    HW118296   5.883  12.161   2.319
 5488SOL    HW218297   6.007  12.074   2.311
 5489SOL     OW18298  10.310   2.879   6.805
 5489SOL    HW118299  10.403   2.870   6.785
 5489SOL    HW218300  10.303   2.967   6.843
 5490SOL     OW18301  11.699   2.144  10.107
 5490SOL    HW118302  11.701   2.132  10.012
 5490SOL    HW218303  11.606   2.156  10.128
 5491SOL     OW18304   3.961   4.369   4.493
 5491SOL    HW118305   3.890   4.353   4.431
 5491SOL    HW218306   3.948   4.305   4.562
 5492SOL     OW18307   7.060   1.606   9.774
 5492SOL    HW118308   7.015   1.534   9.730
 5492SOL    HW218309   7.055   1.679   9.712
 5493SOL     OW18310  11.859   3.960   9.560
 5493SOL    HW118311  11.909   4.041   9.571
 5493SOL    HW218312  11.921   3.891   9.585
 5494SOL     OW18313  12.290   6.089   7.590
 5494SOL    HW118314  12.214   6.142   7.614
 5494SOL    HW218315  12.362   6.124   7.643
 5495SOL     OW18316   5.711  10.706  12.234
 5495SOL    HW118317   5.765  10.760  12.175
 5495SOL    HW218318   5.730  10.616  12.207
 5496SOL     OW18319   3.022   8.515   7.391
 5496SOL    HW118320   3.100   8.558   7.426
 5496SOL    HW218321   2.953   8.539   7.452
 5497SOL     OW18322   7.153   5.635   5.120
 5497SOL    HW118323   7.166   5.598   5.208
 5497SOL    HW218324   7.159   5.560   5.062
 5498SOL     OW18325  13.993   0.455   7.538
 5498SOL    HW118326  13.954   0.426   7.456
 5498SOL    HW218327  14.056   0.522   7.512
 5499SOL     OW18328   3.167   2.635   4.342
 5499SOL    HW118329   3.072   2.632   4.330
 5499SOL    HW218330   3.180   2.692   4.418
 5500SOL     OW18331   5.111  10.626   1.101
 5500SOL    HW118332   5.159  10.553   1.139
 5500SOL    HW218333   5.154  10.704   1.135
 5501SOL     OW18334   4.930   4.197   1.481
 5501SOL    HW118335   4.883   4.226   1.403
 5501SOL    HW218336   5.009   4.155   1.446
 5502SOL     OW18337  13.839   3.703  14.637
 5502SOL    HW118338  13.789   3.723  14.716
 5502SOL    HW218339  13.877   3.616  14.654
 5503SOL     OW18340   9.966   6.511   9.985
 5503SOL    HW118341   9.878   6.473   9.978
 5503SOL    HW218342   9.992   6.527   9.895
 5504SOL     OW18343  11.036   1.979   7.287
 5504SOL    HW118344  11.097   1.983   7.360
 5504SOL    HW218345  11.083   1.932   7.218
 5505SOL     OW18346   7.373  13.680  10.825
 5505SOL    HW118347   7.383  13.774  10.811
 5505SOL    HW218348   7.459  13.643  10.804
 5506SOL     OW18349   6.439   0.405   7.664
 5506SOL    HW118350   6.445   0.321   7.618
 5506SOL    HW218351   6.525   0.418   7.703
 5507SOL     OW18352  13.678   0.506   1.340
 5507SOL    HW118353  13.645   0.418   1.323
 5507SOL    HW218354  13.748   0.493   1.405
 5508SOL     OW18355  11.542   8.437   2.146
 5508SOL    HW118356  11.576   8.415   2.233
 5508SOL    HW218357  11.449   8.416   2.152
 5509SOL     OW18358   6.641   5.233  14.587
 5509SOL    HW118359   6.649   5.154  14.534
 5509SOL    HW218360   6.653   5.305  14.525
 5510SOL     OW18361   3.856   3.966   7.985
 5510SOL    HW118362   3.917   3.987   8.056
 5510SOL    HW218363   3.856   3.870   7.981
 5511SOL     OW18364   1.464   9.110   0.746
 5511SOL    HW118365   1.377   9.070   0.751
 5511SOL    HW218366   1.463   9.179   0.812
 5512SOL     OW18367  11.979   4.823   0.119
 5512SOL    HW118368  11.941   4.899   0.164
 5512SOL    HW218369  12.051   4.796   0.175
 5513SOL     OW18370   8.365  14.555  10.425
 5513SOL    HW118371   8.293  14.579  10.367
 5513SOL    HW218372   8.351  14.462  10.443
 5514SOL     OW18373   5.464   8.544  12.364
 5514SOL    HW118374   5.484   8.603  12.292
 5514SOL    HW218375   5.418   8.471  12.323
 5515SOL     OW18376   6.509   4.248  10.125
 5515SOL    HW118377   6.581   4.311  10.116
 5515SOL    HW218378   6.537   4.173  10.073
 5516SOL     OW18379   6.333   4.740   1.653
 5516SOL    HW118380   6.279   4.729   1.575
 5516SOL    HW218381   6.274   4.723   1.726
 5517SOL     OW18382  10.526  10.288  11.806
 5517SOL    HW118383  10.542  10.194  11.795
 5517SOL    HW218384  10.503  10.298  11.898
 5518SOL     OW18385   2.008   9.256  14.208
 5518SOL    HW118386   2.016   9.183  14.269
 5518SOL    HW218387   1.965   9.325  14.259
 5519SOL     OW18388   7.666   7.718   9.794
 5519SOL    HW118389   7.745   7.676   9.830
 5519SOL    HW218390   7.680   7.718   9.699
 5520SOL     OW18391  12.656   5.964  11.569
 5520SOL    HW118392  12.680   5.934  11.657
 5520SOL    HW218393  12.575   6.013  11.581
 5521SOL     OW18394   3.397   4.682   6.637
 5521SOL    HW118395   3.331   4.744   6.670
 5521SOL    HW218396   3.480   4.729   6.646
 5522SOL     OW18397   3.876  13.590   1.006
 5522SOL    HW118398   3.923  13.595   0.922
 5522SOL    HW218399   3.820  13.668   1.006
 5523SOL     OW18400  12.339   2.650   1.082
 5523SOL    HW118401  12.343   2.648   0.987
 5523SOL    HW218402  12.248   2.630   1.103
 5524SOL     OW18403   1.933   6.603   7.333
 5524SOL    HW118404   1.934   6.687   7.286
 5524SOL    HW218405   1.947   6.537   7.265
 5525SOL     OW18406   0.082  11.893   3.744
 5525SOL    HW118407   0.077  11.797   3.741
 5525SOL    HW218408   0.111  11.918   3.657
 5526SOL     OW18409   1.141   1.829   0.753
 5526SOL    HW118410   1.113   1.900   0.810
 5526SOL    HW218411   1.149   1.870   0.666
 5527SOL     OW18412   2.920  10.672   3.904
 5527SOL    HW118413   2.970  10.718   3.836
 5527SOL    HW218414   2.942  10.580   3.892
 5528SOL     OW18415   7.759  11.891  11.544
 5528SOL    HW118416   7.720  11.807  11.569
 5528SOL    HW218417   7.804  11.872  11.461
 5529SOL     OW18418   9.845   5.705  13.949
 5529SOL    HW118419   9.843   5.714  13.854
 5529SOL    HW218420   9.798   5.623  13.966
 5530SOL     OW18421   6.116  14.341   8.084
 5530SOL    HW118422   6.172  14.280   8.132
 5530SOL    HW218423   6.052  14.285   8.041
 5531SOL     OW18424   8.796  13.755   9.678
 5531SOL    HW118425   8.860  13.759   9.749
 5531SOL    HW218426   8.749  13.838   9.684
 5532SOL     OW18427  13.583   2.423   1.991
 5532SOL    HW118428  13.502   2.470   2.012
 5532SOL    HW218429  13.651   2.468   2.042
 5533SOL     OW18430   3.501   6.167  10.246
 5533SOL    HW118431   3.523   6.200  10.159
 5533SOL    HW218432   3.439   6.096  10.230
 5534SOL     OW18433  14.102   9.944  14.278
 5534SOL    HW118434  14.146  10.004  14.217
 5534SOL    HW218435  14.016   9.930  14.240
 5535SOL     OW18436  12.577   0.272   3.806
 5535SOL    HW118437  12.547   0.359   3.779
 5535SOL    HW218438  12.669   0.285   3.828
 5536SOL     OW18439   7.497  14.263   7.653
 5536SOL    HW118440   7.482  14.330   7.587
 5536SOL    HW218441   7.511  14.183   7.602
 5537SOL     OW18442  11.129   9.835   2.749
 5537SOL    HW118443  11.070   9.900   2.713
 5537SOL    HW218444  11.209   9.884   2.770
 5538SOL     OW18445  13.425   4.701   0.224
 5538SOL    HW118446  13.356   4.640   0.200
 5538SOL    HW218447  13.505   4.649   0.224
 5539SOL     OW18448  10.369   4.504   9.512
 5539SOL    HW118449  10.340   4.588   9.548
 5539SOL    HW218450  10.440   4.528   9.452
 5540SOL     OW18451   2.562   3.764   4.478
 5540SOL    HW118452   2.501   3.834   4.457
 5540SOL    HW218453   2.568   3.712   4.398
 5541SOL     OW18454   4.020   5.573   6.316
 5541SOL    HW118455   3.995   5.653   6.362
 5541SOL    HW218456   4.001   5.591   6.224
 5542SOL     OW18457  13.197  10.973   7.672
 5542SOL    HW118458  13.153  10.969   7.587
 5542SOL    HW218459  13.144  10.917   7.729
 5543SOL     OW18460  12.639   8.078   2.579
 5543SOL    HW118461  12.586   8.111   2.652
 5543SOL    HW218462  12.576   8.060   2.510
 5544SOL     OW18463  12.045   4.579   6.092
 5544SOL    HW118464  12.127   4.607   6.051
 5544SOL    HW218465  12.073   4.532   6.170
 5545SOL     OW18466   5.623  12.519  10.289
 5545SOL    HW118467   5.633  12.485  10.378
 5545SOL    HW218468   5.529  12.529  10.277
 5546SOL     OW18469   9.809   9.843   2.434
 5546SOL    HW118470   9.758   9.924   2.437
 5546SOL    HW218471   9.843   9.833   2.522
 5547SOL     OW18472  13.024   9.674   3.178
 5547SOL    HW118473  12.996   9.679   3.269
 5547SOL    HW218474  12.961   9.613   3.137
 5548SOL     OW18475   9.137  12.308   6.683
 5548SOL    HW118476   9.080  12.321   6.758
 5548SOL    HW218477   9.193  12.234   6.707
 5549SOL     OW18478  14.352   3.827   4.295
 5549SOL    HW118479  14.360   3.733   4.279
 5549SOL    HW218480  14.258   3.845   4.284
 5550SOL     OW18481   0.952   8.671   2.483
 5550SOL    HW118482   0.926   8.647   2.572
 5550SOL    HW218483   0.881   8.638   2.428
 5551SOL     OW18484   1.442   5.711   4.248
 5551SOL    HW118485   1.389   5.738   4.173
 5551SOL    HW218486   1.385   5.726   4.324
 5552SOL     OW18487  10.127   4.657   1.086
 5552SOL    HW118488  10.052   4.614   1.128
 5552SOL    HW218489  10.148   4.600   1.012
 5553SOL     OW18490   8.561  10.872  13.791
 5553SOL    HW118491   8.584  10.849  13.701
 5553SOL    HW218492   8.484  10.819  13.811
 5554SOL     OW18493   1.965   1.947   0.013
 5554SOL    HW118494   1.975   1.883  14.815
 5554SOL    HW218495   1.882   1.990  14.866
 5555SOL     OW18496   5.287  14.809   9.892
 5555SOL    HW118497   5.346   0.002   9.930
 5555SOL    HW218498   5.346  14.746   9.850
 5556SOL     OW18499  11.976   5.943  12.821
 5556SOL    HW118500  11.977   6.035  12.847
 5556SOL    HW218501  12.026   5.940  12.740
 5557SOL     OW18502   7.093  11.961  14.274
 5557SOL    HW118503   7.054  12.046  14.293
 5557SOL    HW218504   7.176  11.982  14.231
 5558SOL     OW18505   3.882   2.619   7.137
 5558SOL    HW118506   3.939   2.649   7.066
 5558SOL    HW218507   3.883   2.691   7.201
 5559SOL     OW18508  12.081   3.732  10.854
 5559SOL    HW118509  12.078   3.751  10.947
 5559SOL    HW218510  12.140   3.798  10.817
 5560SOL     OW18511   0.601   1.650  12.330
 5560SOL    HW118512   0.614   1.682  12.240
 5560SOL    HW218513   0.541   1.576  12.320
 5561SOL     OW18514   5.859   3.444   0.459
 5561SOL    HW118515   5.934   3.459   0.402
 5561SOL    HW218516   5.838   3.351   0.446
 5562SOL     OW18517  12.975   7.153   4.307
 5562SOL    HW118518  13.027   7.123   4.232
 5562SOL    HW218519  12.942   7.239   4.281
 5563SOL     OW18520   6.685   6.008   8.500
 5563SOL    HW118521   6.649   6.097   8.500
 5563SOL    HW218522   6.712   5.993   8.410
 5564SOL     OW18523  11.862  10.042   4.014
 5564SOL    HW118524  11.862   9.948   4.034
 5564SOL    HW218525  11.881  10.084   4.098
 5565SOL     OW18526   5.888   6.713   1.794
 5565SOL    HW118527   5.800   6.676   1.786
 5565SOL    HW218528   5.907   6.748   1.706
 5566SOL     OW18529  11.893   0.508   5.883
 5566SOL    HW118530  11.827   0.438   5.881
 5566SOL    HW218531  11.854   0.580   5.834
 5567SOL     OW18532   3.125   7.332  13.427
 5567SOL    HW118533   3.208   7.291  13.406
 5567SOL    HW218534   3.085   7.273  13.492
 5568SOL     OW18535  14.598   5.101   7.235
 5568SOL    HW118536  14.562   5.099   7.146
 5568SOL    HW218537  14.544   5.165   7.281
 5569SOL     OW18538  11.712  12.038  14.405
 5569SOL    HW118539  11.800  12.023  14.371
 5569SOL    HW218540  11.675  11.950  14.416
 5570SOL     OW18541   2.669   5.770  10.989
 5570SOL    HW118542   2.668   5.767  10.893
 5570SOL    HW218543   2.737   5.707  11.014
 5571SOL     OW18544   1.309  13.703  13.995
 5571SOL    HW118545   1.292  13.797  14.001
 5571SOL    HW218546   1.248  13.672  13.928
 5572SOL     OW18547   5.187   9.431  14.701
 5572SOL    HW118548   5.254   9.383  14.749
 5572SOL    HW218549   5.235   9.486  14.640
 5573SOL     OW18550   3.006   3.796  14.795
 5573SOL    HW118551   3.047   3.833  14.716
 5573SOL    HW218552   2.912   3.799  14.776
 5574SOL     OW18553   9.307   9.107   5.377
 5574SOL    HW118554   9.291   9.054   5.299
 5574SOL    HW218555   9.228   9.094   5.431
 5575SOL     OW18556   8.295   0.720   7.974
 5575SOL    HW118557   8.373   0.739   8.026
 5575SOL    HW218558   8.227   0.701   8.039
 5576SOL     OW18559   2.461   9.597  12.180
 5576SOL    HW118560   2.437   9.505  12.178
 5576SOL    HW218561   2.462   9.619  12.273
 5577SOL     OW18562   4.234   0.048  13.852
 5577SOL    HW118563   4.229  14.837  13.900
 5577SOL    HW218564   4.152   0.092  13.872
 5578SOL     OW18565   7.525  12.361   4.158
 5578SOL    HW118566   7.453  12.383   4.100
 5578SOL    HW218567   7.501  12.275   4.195
 5579SOL     OW18568   2.624   6.460  10.889
 5579SOL    HW118569   2.534   6.492  10.897
 5579SOL    HW218570   2.618   6.366  10.908
 5580SOL     OW18571  11.370   8.979   7.527
 5580SOL    HW118572  11.306   8.932   7.474
 5580SOL    HW218573  11.388   9.059   7.477
 5581SOL     OW18574   1.651   8.561   6.335
 5581SOL    HW118575   1.649   8.480   6.386
 5581SOL    HW218576   1.586   8.618   6.376
 5582SOL     OW18577  13.850   3.027  14.816
 5582SOL    HW118578  13.775   2.970  14.836
 5582SOL    HW218579  13.866   3.074   0.026
 5583SOL     OW18580  14.403   8.190  11.878
 5583SOL    HW118581  14.373   8.279  11.896
 5583SOL    HW218582  14.438   8.195  11.789
 5584SOL     OW18583   9.052  11.234   9.241
 5584SOL    HW118584   9.037  11.145   9.273
 5584SOL    HW218585   8.965  11.274   9.243
 5585SOL     OW18586   2.772  14.521   6.652
 5585SOL    HW118587   2.840  14.465   6.614
 5585SOL    HW218588   2.811  14.556   6.731
 5586SOL     OW18589   1.510  11.427   2.218
 5586SOL    HW118590   1.489  11.357   2.156
 5586SOL    HW218591   1.494  11.508   2.169
 5587SOL     OW18592   4.202  10.325  13.928
 5587SOL    HW118593   4.113  10.351  13.948
 5587SOL    HW218594   4.204  10.230  13.944
 5588SOL     OW18595  12.810   5.655  13.597
 5588SOL    HW118596  12.901   5.685  13.595
 5588SOL    HW218597  12.760   5.730  13.630
 5589SOL     OW18598   0.069   6.409  13.546
 5589SOL    HW118599   0.090   6.451  13.630
 5589SOL    HW218600  14.865   6.355  13.565
 5590SOL     OW18601   1.706   2.650   3.822
 5590SOL    HW118602   1.728   2.646   3.729
 5590SOL    HW218603   1.674   2.739   3.836
 5591SOL     OW18604   8.556  12.358   9.780
 5591SOL    HW118605   8.464  12.338   9.766
 5591SOL    HW218606   8.575  12.323   9.867
 5592SOL     OW18607  14.046  13.164   5.324
 5592SOL    HW118608  14.108  13.149   5.253
 5592SOL    HW218609  14.094  13.138   5.403
 5593SOL     OW18610   5.298   5.753   3.119
 5593SOL    HW118611   5.286   5.729   3.027
 5593SOL    HW218612   5.376   5.809   3.119
 5594SOL     OW18613   2.700  10.173  10.186
 5594SOL    HW118614   2.767  10.186  10.252
 5594SOL    HW218615   2.684  10.078  10.185
 5595SOL     OW18616   8.313   6.040   0.120
 5595SOL    HW118617   8.375   6.085   0.062
 5595SOL    HW218618   8.236   6.097   0.120
 5596SOL     OW18619  11.909   3.331  14.738
 5596SOL    HW118620  11.924   3.401  14.801
 5596SOL    HW218621  11.885   3.375  14.657
 5597SOL     OW18622   5.372   2.186  11.523
 5597SOL    HW118623   5.329   2.270  11.508
 5597SOL    HW218624   5.326   2.148  11.598
 5598SOL     OW18625  13.125   4.598   9.701
 5598SOL    HW118626  13.168   4.563   9.624
 5598SOL    HW218627  13.113   4.523   9.759
 5599SOL     OW18628   2.331  12.522   5.515
 5599SOL    HW118629   2.237  12.532   5.530
 5599SOL    HW218630   2.355  12.598   5.463
 5600SOL     OW18631   1.056  13.143   2.997
 5600SOL    HW118632   0.980  13.196   3.020
 5600SOL    HW218633   1.062  13.078   3.068
 5601SOL     OW18634   5.240   2.988  10.444
 5601SOL    HW118635   5.314   2.986  10.384
 5601SOL    HW218636   5.279   2.999  10.531
 5602SOL     OW18637  14.577   6.994   6.880
 5602SOL    HW118638  14.523   6.975   6.956
 5602SOL    HW218639  14.521   7.045   6.822
 5603SOL     OW18640   3.642   1.088   5.640
 5603SOL    HW118641   3.555   1.128   5.651
 5603SOL    HW218642   3.629   1.020   5.573
 5604SOL     OW18643   2.841   0.315  14.455
 5604SOL    HW118644   2.833   0.224  14.484
 5604SOL    HW218645   2.920   0.347  14.498
 5605SOL     OW18646   1.007  13.078  14.655
 5605SOL    HW118647   1.051  13.033  14.726
 5605SOL    HW218648   1.036  13.169  14.663
 5606SOL     OW18649   9.766   4.468  11.933
 5606SOL    HW118650   9.731   4.413  11.863
 5606SOL    HW218651   9.750   4.418  12.013
 5607SOL     OW18652   0.621  10.515   6.678
 5607SOL    HW118653   0.528  10.517   6.701
 5607SOL    HW218654   0.659  10.588   6.726
 5608SOL     OW18655  10.721   6.795  12.837
 5608SOL    HW118656  10.685   6.747  12.762
 5608SOL    HW218657  10.691   6.885  12.824
 5609SOL     OW18658   9.036   4.836  13.107
 5609SOL    HW118659   9.076   4.860  13.191
 5609SOL    HW218660   9.072   4.749  13.088
 5610SOL     OW18661   8.951   9.761  11.136
 5610SOL    HW118662   8.935   9.807  11.219
 5610SOL    HW218663   8.923   9.823  11.069
 5611SOL     OW18664   6.990  14.551   2.264
 5611SOL    HW118665   6.945  14.489   2.207
 5611SOL    HW218666   7.068  14.505   2.294
 5612SOL     OW18667   1.101   5.617   5.049
 5612SOL    HW118668   1.140   5.531   5.032
 5612SOL    HW218669   1.161   5.659   5.111
 5613SOL     OW18670   5.827  12.727   6.250
 5613SOL    HW118671   5.871  12.659   6.198
 5613SOL    HW218672   5.895  12.792   6.267
 5614SOL     OW18673   8.824   8.698   8.839
 5614SOL    HW118674   8.815   8.607   8.867
 5614SOL    HW218675   8.917   8.717   8.846
 5615SOL     OW18676   7.245   8.614   0.197
 5615SOL    HW118677   7.302   8.588   0.125
 5615SOL    HW218678   7.162   8.637   0.155
 5616SOL     OW18679   4.710  10.722   3.137
 5616SOL    HW118680   4.767  10.698   3.210
 5616SOL    HW218681   4.624  10.689   3.162
 5617SOL     OW18682   5.310   8.840  11.745
 5617SOL    HW118683   5.282   8.797  11.664
 5617SOL    HW218684   5.261   8.796  11.814
 5618SOL     OW18685   1.436   4.271   6.931
 5618SOL    HW118686   1.380   4.338   6.893
 5618SOL    HW218687   1.375   4.208   6.970
 5619SOL     OW18688  13.820   8.266   3.019
 5619SOL    HW118689  13.856   8.354   3.005
 5619SOL    HW218690  13.897   8.212   3.036
 5620SOL     OW18691   1.839  10.559  12.984
 5620SOL    HW118692   1.840  10.643  12.937
 5620SOL    HW218693   1.780  10.504  12.934
 5621SOL     OW18694   3.728   0.696   7.093
 5621SOL    HW118695   3.822   0.695   7.076
 5621SOL    HW218696   3.708   0.608   7.123
 5622SOL     OW18697   1.350  11.133   4.444
 5622SOL    HW118698   1.409  11.130   4.519
 5622SOL    HW218699   1.283  11.197   4.468
 5623SOL     OW18700   0.587  10.292  11.163
 5623SOL    HW118701   0.570  10.213  11.112
 5623SOL    HW218702   0.560  10.364  11.106
 5624SOL     OW18703   5.304  14.202   5.695
 5624SOL    HW118704   5.318  14.256   5.617
 5624SOL    HW218705   5.362  14.239   5.761
 5625SOL     OW18706   2.481   9.732   1.163
 5625SOL    HW118707   2.441   9.704   1.246
 5625SOL    HW218708   2.559   9.781   1.189
 5626SOL     OW18709  11.044   8.263   8.555
 5626SOL    HW118710  11.047   8.237   8.463
 5626SOL    HW218711  10.963   8.224   8.589
 5627SOL     OW18712  13.688  11.242   1.495
 5627SOL    HW118713  13.718  11.267   1.583
 5627SOL    HW218714  13.624  11.172   1.512
 5628SOL     OW18715   5.361   5.451  14.117
 5628SOL    HW118716   5.413   5.371  14.113
 5628SOL    HW218717   5.365   5.478  14.208
 5629SOL     OW18718  14.715   6.938   8.907
 5629SOL    HW118719  14.621   6.950   8.895
 5629SOL    HW218720  14.754   7.021   8.878
 5630SOL     OW18721  11.841   6.452  13.433
 5630SOL    HW118722  11.900   6.385  13.468
 5630SOL    HW218723  11.758   6.406  13.419
 5631SOL     OW18724   5.465   0.353   0.342
 5631SOL    HW118725   5.457   0.357   0.437
 5631SOL    HW218726   5.447   0.443   0.313
 5632SOL     OW18727   2.623   7.315   6.631
 5632SOL    HW118728   2.660   7.356   6.710
 5632SOL    HW218729   2.549   7.371   6.607
 5633SOL     OW18730   3.715   9.515  14.596
 5633SOL    HW118731   3.804   9.547  14.580
 5633SOL    HW218732   3.660   9.593  14.586
 5634SOL     OW18733   2.898   2.826   5.014
 5634SOL    HW118734   2.962   2.755   5.013
 5634SOL    HW218735   2.856   2.818   5.100
 5635SOL     OW18736  14.458   8.120   5.248
 5635SOL    HW118737  14.407   8.175   5.308
 5635SOL    HW218738  14.530   8.087   5.302
 5636SOL     OW18739   2.319   6.227   2.697
 5636SOL    HW118740   2.290   6.178   2.774
 5636SOL    HW218741   2.346   6.159   2.635
 5637SOL     OW18742   9.139  14.857   4.705
 5637SOL    HW118743   9.184  14.801   4.642
 5637SOL    HW218744   9.208   0.034   4.748
 5638SOL     OW18745   1.486  10.169  14.268
 5638SOL    HW118746   1.493  10.256  14.309
 5638SOL    HW218747   1.392  10.159  14.250
 5639SOL     OW18748   6.728   3.624   1.131
 5639SOL    HW118749   6.672   3.660   1.199
 5639SOL    HW218750   6.685   3.648   1.049
 5640SOL     OW18751   5.198  13.859  12.177
 5640SOL    HW118752   5.286  13.858  12.216
 5640SOL    HW218753   5.195  13.939  12.126
 5641SOL     OW18754   8.081   4.228   3.614
 5641SOL    HW118755   8.103   4.204   3.524
 5641SOL    HW218756   8.061   4.321   3.609
 5642SOL     OW18757   4.351   9.651  11.180
 5642SOL    HW118758   4.365   9.746  11.175
 5642SOL    HW218759   4.290   9.632  11.109
 5643SOL     OW18760   2.859  10.467   6.239
 5643SOL    HW118761   2.913  10.461   6.318
 5643SOL    HW218762   2.800  10.541   6.256
 5644SOL     OW18763   4.407  10.866  10.187
 5644SOL    HW118764   4.475  10.919  10.230
 5644SOL    HW218765   4.451  10.783  10.167
 5645SOL     OW18766   6.761  11.290   8.611
 5645SOL    HW118767   6.696  11.236   8.655
 5645SOL    HW218768   6.845  11.254   8.639
 5646SOL     OW18769  11.748  14.161  12.901
 5646SOL    HW118770  11.759  14.256  12.890
 5646SOL    HW218771  11.670  14.152  12.956
 5647SOL     OW18772   3.418   3.103   0.674
 5647SOL    HW118773   3.383   3.191   0.683
 5647SOL    HW218774   3.353   3.056   0.622
 5648SOL     OW18775  10.779   0.681   1.273
 5648SOL    HW118776  10.820   0.600   1.303
 5648SOL    HW218777  10.823   0.702   1.191
 5649SOL     OW18778   9.508   9.075   3.823
 5649SOL    HW118779   9.419   9.041   3.812
 5649SOL    HW218780   9.565   9.000   3.804
 5650SOL     OW18781  11.210   5.828   7.472
 5650SOL    HW118782  11.290   5.806   7.520
 5650SOL    HW218783  11.202   5.759   7.406
 5651SOL     OW18784   3.384  10.705   0.417
 5651SOL    HW118785   3.335  10.732   0.339
 5651SOL    HW218786   3.457  10.767   0.422
 5652SOL     OW18787  11.988   2.857   3.855
 5652SOL    HW118788  11.960   2.948   3.857
 5652SOL    HW218789  12.062   2.856   3.793
 5653SOL     OW18790  13.990   5.707   7.457
 5653SOL    HW118791  14.071   5.704   7.507
 5653SOL    HW218792  13.945   5.625   7.480
 5654SOL     OW18793   5.605  14.064   2.171
 5654SOL    HW118794   5.658  14.133   2.211
 5654SOL    HW218795   5.636  13.983   2.213
 5655SOL     OW18796  10.059  12.634   2.991
 5655SOL    HW118797   9.980  12.589   3.023
 5655SOL    HW218798  10.042  12.727   3.007
 5656SOL     OW18799  13.122   8.779   0.592
 5656SOL    HW118800  13.182   8.719   0.635
 5656SOL    HW218801  13.138   8.864   0.633
 5657SOL     OW18802  10.923   3.684   3.868
 5657SOL    HW118803  10.839   3.682   3.822
 5657SOL    HW218804  10.911   3.750   3.936
 5658SOL     OW18805   6.489   2.547  12.249
 5658SOL    HW118806   6.551   2.619  12.234
 5658SOL    HW218807   6.441   2.574  12.328
 5659SOL     OW18808  13.471   2.116  14.559
 5659SOL    HW118809  13.549   2.115  14.503
 5659SOL    HW218810  13.499   2.077  14.641
 5660SOL     OW18811   9.734   2.611   2.399
 5660SOL    HW118812   9.786   2.532   2.390
 5660SOL    HW218813   9.661   2.585   2.455
 5661SOL     OW18814   4.808   8.716  12.974
 5661SOL    HW118815   4.809   8.683  12.884
 5661SOL    HW218816   4.896   8.698  13.008
 5662SOL     OW18817  10.651   8.030   5.568
 5662SOL    HW118818  10.652   8.088   5.644
 5662SOL    HW218819  10.560   7.999   5.563
 5663SOL     OW18820   9.945  11.543  10.333
 5663SOL    HW118821   9.880  11.610  10.315
 5663SOL    HW218822   9.895  11.469  10.368
 5664SOL     OW18823  12.894   7.247  12.146
 5664SOL    HW118824  12.964   7.283  12.092
 5664SOL    HW218825  12.814   7.264  12.096
 5665SOL     OW18826   6.057  12.754   2.196
 5665SOL    HW118827   6.022  12.755   2.107
 5665SOL    HW218828   6.088  12.664   2.208
 5666SOL     OW18829   8.590   8.122   3.013
 5666SOL    HW118830   8.557   8.057   2.951
 5666SOL    HW218831   8.668   8.158   2.971
 5667SOL     OW18832   4.934   3.478   6.336
 5667SOL    HW118833   4.983   3.519   6.264
 5667SOL    HW218834   4.878   3.549   6.368
 5668SOL     OW18835   0.741   7.440   7.134
 5668SOL    HW118836   0.807   7.508   7.147
 5668SOL    HW218837   0.760   7.375   7.202
 5669SOL     OW18838   8.204   9.187  13.669
 5669SOL    HW118839   8.147   9.110  13.663
 5669SOL    HW218840   8.251   9.176  13.752
 5670SOL     OW18841  13.731   4.699   5.963
 5670SOL    HW118842  13.728   4.620   6.015
 5670SOL    HW218843  13.645   4.739   5.973
 5671SOL     OW18844   4.967   2.023  12.105
 5671SOL    HW118845   4.957   1.996  12.014
 5671SOL    HW218846   5.062   2.021  12.121
 5672SOL     OW18847   7.930  10.288   4.121
 5672SOL    HW118848   7.969  10.296   4.034
 5672SOL    HW218849   7.853  10.232   4.108
 5673SOL     OW18850  12.530  14.647  14.592
 5673SOL    HW118851  12.477  14.580  14.549
 5673SOL    HW218852  12.538  14.717  14.528
 5674SOL     OW18853  14.271  12.377  11.797
 5674SOL    HW118854  14.363  12.351  11.799
 5674SOL    HW218855  14.242  12.355  11.708
 5675SOL     OW18856   6.086   4.824   9.982
 5675SOL    HW118857   6.044   4.832  10.067
 5675SOL    HW218858   6.029   4.764   9.933
 5676SOL     OW18859   4.597  12.899   7.511
 5676SOL    HW118860   4.525  12.940   7.462
 5676SOL    HW218861   4.606  12.954   7.589
 5677SOL     OW18862  10.934  13.126  11.768
 5677SOL    HW118863  10.869  13.055  11.770
 5677SOL    HW218864  10.882  13.206  11.769
 5678SOL     OW18865  13.291  14.407  13.037
 5678SOL    HW118866  13.288  14.479  12.974
 5678SOL    HW218867  13.294  14.450  13.123
 5679SOL     OW18868   3.378   6.035   8.379
 5679SOL    HW118869   3.396   6.029   8.472
 5679SOL    HW218870   3.458   6.069   8.340
 5680SOL     OW18871   5.446   2.083   9.252
 5680SOL    HW118872   5.536   2.115   9.255
 5680SOL    HW218873   5.425   2.062   9.343
 5681SOL     OW18874  11.960  10.245   7.408
 5681SOL    HW118875  12.053  10.244   7.386
 5681SOL    HW218876  11.957  10.264   7.501
 5682SOL     OW18877  12.929  10.669   9.036
 5682SOL    HW118878  12.849  10.639   9.078
 5682SOL    HW218879  12.995  10.605   9.062
 5683SOL     OW18880   0.763   3.010   1.002
 5683SOL    HW118881   0.839   3.057   1.037
 5683SOL    HW218882   0.790   2.984   0.914
 5684SOL     OW18883  12.568   7.616   5.057
 5684SOL    HW118884  12.632   7.620   5.128
 5684SOL    HW218885  12.602   7.677   4.991
 5685SOL     OW18886   6.701   6.902   3.855
 5685SOL    HW118887   6.780   6.865   3.894
 5685SOL    HW218888   6.731   6.944   3.775
 5686SOL     OW18889   8.619  13.344  14.490
 5686SOL    HW118890   8.546  13.353  14.550
 5686SOL    HW218891   8.636  13.249  14.487
 5687SOL     OW18892  10.153  12.418   9.844
 5687SOL    HW118893  10.089  12.429   9.914
 5687SOL    HW218894  10.102  12.428   9.764
 5688SOL     OW18895  10.046   9.734   1.338
 5688SOL    HW118896  10.096   9.811   1.311
 5688SOL    HW218897  10.028   9.686   1.257
 5689SOL     OW18898   2.093  14.453  13.041
 5689SOL    HW118899   2.013  14.442  12.990
 5689SOL    HW218900   2.063  14.479  13.128
 5690SOL     OW18901   3.018  12.494   4.065
 5690SOL    HW118902   2.970  12.431   4.119
 5690SOL    HW218903   3.028  12.451   3.980
 5691SOL     OW18904   8.335   4.633  13.779
 5691SOL    HW118905   8.416   4.680  13.792
 5691SOL    HW218906   8.362   4.546  13.748
 5692SOL     OW18907   1.410   4.253   4.306
 5692SOL    HW118908   1.502   4.277   4.317
 5692SOL    HW218909   1.362   4.335   4.317
 5693SOL     OW18910   1.902  10.213  14.062
 5693SOL    HW118911   1.901  10.130  14.110
 5693SOL    HW218912   1.886  10.189  13.971
 5694SOL     OW18913   0.387   6.784  10.796
 5694SOL    HW118914   0.407   6.691  10.783
 5694SOL    HW218915   0.304   6.797  10.750
 5695SOL     OW18916   6.360   6.128   5.078
 5695SOL    HW118917   6.321   6.040   5.078
 5695SOL    HW218918   6.396   6.138   4.990
 5696SOL     OW18919  12.618  13.602   8.241
 5696SOL    HW118920  12.612  13.507   8.252
 5696SOL    HW218921  12.653  13.633   8.324
 5697SOL     OW18922   1.446  12.654   8.132
 5697SOL    HW118923   1.448  12.622   8.042
 5697SOL    HW218924   1.457  12.575   8.185
 5698SOL     OW18925  14.087   2.736   8.655
 5698SOL    HW118926  14.052   2.792   8.585
 5698SOL    HW218927  14.034   2.758   8.732
 5699SOL     OW18928   9.876  11.924   8.260
 5699SOL    HW118929   9.836  11.837   8.269
 5699SOL    HW218930   9.801  11.983   8.245
 5700SOL     OW18931   7.062   1.111   9.980
 5700SOL    HW118932   7.158   1.111   9.978
 5700SOL    HW218933   7.041   1.144  10.067
 5701SOL     OW18934  11.502   5.108  14.036
 5701SOL    HW118935  11.594   5.128  14.051
 5701SOL    HW218936  11.455   5.162  14.100
 5702SOL     OW18937   9.274  13.992   8.959
 5702SOL    HW118938   9.226  13.920   8.999
 5702SOL    HW218939   9.339  13.949   8.903
 5703SOL     OW18940  10.451   1.961   4.040
 5703SOL    HW118941  10.506   1.884   4.045
 5703SOL    HW218942  10.471   1.999   3.954
 5704SOL     OW18943  14.615   8.637   9.891
 5704SOL    HW118944  14.559   8.698   9.844
 5704SOL    HW218945  14.658   8.691   9.958
 5705SOL     OW18946   0.318   7.478   9.166
 5705SOL    HW118947   0.258   7.418   9.210
 5705SOL    HW218948   0.352   7.429   9.092
 5706SOL     OW18949   3.878   7.113   0.869
 5706SOL    HW118950   3.893   7.094   0.962
 5706SOL    HW218951   3.783   7.117   0.860
 5707SOL     OW18952   5.096   9.283  12.252
 5707SOL    HW118953   5.149   9.350  12.208
 5707SOL    HW218954   5.009   9.322  12.260
 5708SOL     OW18955   1.111  12.109  11.949
 5708SOL    HW118956   1.169  12.096  12.023
 5708SOL    HW218957   1.085  12.201  11.955
 5709SOL     OW18958   6.752   9.923  10.301
 5709SOL    HW118959   6.845   9.941  10.287
 5709SOL    HW218960   6.739   9.835  10.267
 5710SOL     OW18961  12.698   9.520   2.298
 5710SOL    HW118962  12.675   9.533   2.390
 5710SOL    HW218963  12.721   9.427   2.292
 5711SOL     OW18964  10.008   1.139  14.485
 5711SOL    HW118965  10.017   1.112  14.394
 5711SOL    HW218966   9.971   1.063  14.530
 5712SOL     OW18967   3.663  13.675   2.878
 5712SOL    HW118968   3.650  13.687   2.784
 5712SOL    HW218969   3.582  13.633   2.908
 5713SOL     OW18970   0.110   0.623  11.472
 5713SOL    HW118971   0.145   0.658  11.390
 5713SOL    HW218972   0.028   0.671  11.485
 5714SOL     OW18973  10.427   7.635  14.074
 5714SOL    HW118974  10.381   7.661  13.994
 5714SOL    HW218975  10.513   7.676  14.066
 5715SOL     OW18976   4.904  14.130  13.313
 5715SOL    HW118977   4.960  14.108  13.239
 5715SOL    HW218978   4.942  14.210  13.349
 5716SOL     OW18979  12.541  14.346  11.132
 5716SOL    HW118980  12.481  14.293  11.184
 5716SOL    HW218981  12.597  14.283  11.088
 5717SOL     OW18982  10.186  12.403  13.740
 5717SOL    HW118983  10.181  12.328  13.682
 5717SOL    HW218984  10.098  12.441  13.737
 5718SOL     OW18985   5.281   8.017   4.663
 5718SOL    HW118986   5.238   8.081   4.606
 5718SOL    HW218987   5.236   7.935   4.646
 5719SOL     OW18988   9.761   1.317   6.117
 5719SOL    HW118989   9.748   1.281   6.205
 5719SOL    HW218990   9.826   1.387   6.129
 5720SOL     OW18991  10.248   2.513   2.804
 5720SOL    HW118992  10.339   2.531   2.782
 5720SOL    HW218993  10.252   2.440   2.865
 5721SOL     OW18994   3.502   1.913   2.732
 5721SOL    HW118995   3.428   1.854   2.719
 5721SOL    HW218996   3.579   1.855   2.727
 5722SOL     OW18997  14.870  14.388   2.335
 5722SOL    HW118998  14.827  14.332   2.270
 5722SOL    HW218999  14.800  14.443   2.370
 5723SOL     OW19000  11.063  12.534   7.986
 5723SOL    HW119001  11.013  12.587   7.924
 5723SOL    HW219002  11.008  12.456   8.000
 5724SOL     OW19003   1.486   3.492  10.631
 5724SOL    HW119004   1.571   3.489  10.675
 5724SOL    HW219005   1.507   3.511  10.540
 5725SOL     OW19006   0.999  14.868  11.311
 5725SOL    HW119007   0.941   0.009  11.386
 5725SOL    HW219008   1.085   0.022  11.342
 5726SOL     OW19009   9.468   7.752   9.135
 5726SOL    HW119010   9.476   7.684   9.069
 5726SOL    HW219011   9.558   7.777   9.156
 5727SOL     OW19012  13.048   6.830   2.767
 5727SOL    HW119013  13.029   6.744   2.805
 5727SOL    HW219014  13.089   6.810   2.683
 5728SOL     OW19015   7.927  12.558   5.436
 5728SOL    HW119016   7.931  12.494   5.508
 5728SOL    HW219017   7.833  12.572   5.422
 5729SOL     OW19018   8.421  10.886  12.325
 5729SOL    HW119019   8.330  10.888  12.354
 5729SOL    HW219020   8.439  10.793  12.310
 5730SOL     OW19021  10.616   9.262   2.976
 5730SOL    HW119022  10.606   9.337   2.917
 5730SOL    HW219023  10.570   9.191   2.933
 5731SOL     OW19024  11.357   4.320   7.500
 5731SOL    HW119025  11.359   4.373   7.580
 5731SOL    HW219026  11.296   4.249   7.520
 5732SOL     OW19027   5.719   7.413   9.330
 5732SOL    HW119028   5.700   7.503   9.358
 5732SOL    HW219029   5.807   7.418   9.293
 5733SOL     OW19030   4.540  13.144   4.520
 5733SOL    HW119031   4.459  13.093   4.513
 5733SOL    HW219032   4.511  13.234   4.532
 5734SOL     OW19033   8.952  13.921   0.919
 5734SOL    HW119034   8.919  13.855   0.859
 5734SOL    HW219035   8.894  13.997   0.906
 5735SOL     OW19036  14.192   7.978   2.555
 5735SOL    HW119037  14.125   7.998   2.621
 5735SOL    HW219038  14.234   8.062   2.536
 5736SOL     OW19039  13.011   2.741   5.460
 5736SOL    HW119040  13.042   2.687   5.533
 5736SOL    HW219041  12.943   2.796   5.498
 5737SOL     OW19042  13.045   0.996  11.563
 5737SOL    HW119043  12.968   1.045  11.592
 5737SOL    HW219044  13.055   1.020  11.471
 5738SOL     OW19045  14.828   6.590  11.191
 5738SOL    HW119046  14.815   6.602  11.097
 5738SOL    HW219047  14.785   6.666  11.232
 5739SOL     OW19048   6.259   6.554   9.739
 5739SOL    HW119049   6.306   6.631   9.707
 5739SOL    HW219050   6.207   6.587   9.812
 5740SOL     OW19051   4.921   7.216  10.725
 5740SOL    HW119052   5.007   7.248  10.752
 5740SOL    HW219053   4.893   7.278  10.658
 5741SOL     OW19054  14.512   2.835   8.889
 5741SOL    HW119055  14.606   2.851   8.884
 5741SOL    HW219056  14.490   2.793   8.805
 5742SOL     OW19057   3.714   1.542   9.770
 5742SOL    HW119058   3.760   1.503   9.844
 5742SOL    HW219059   3.681   1.626   9.803
 5743SOL     OW19060  14.373   3.123   5.869
 5743SOL    HW119061  14.334   3.107   5.783
 5743SOL    HW219062  14.309   3.089   5.931
 5744SOL     OW19063  14.693   0.063  11.761
 5744SOL    HW119064  14.662   0.153  11.756
 5744SOL    HW219065  14.740   0.058  11.844
 5745SOL     OW19066  11.344   6.813   3.287
 5745SOL    HW119067  11.360   6.898   3.329
 5745SOL    HW219068  11.250   6.811   3.271
 5746SOL     OW19069   6.449   4.875   2.841
 5746SOL    HW119070   6.406   4.789   2.839
 5746SOL    HW219071   6.455   4.897   2.934
 5747SOL     OW19072  11.083   6.580   0.786
 5747SOL    HW119073  11.088   6.554   0.694
 5747SOL    HW219074  10.995   6.619   0.794
 5748SOL     OW19075   5.750   7.626   7.459
 5748SOL    HW119076   5.755   7.598   7.551
 5748SOL    HW219077   5.749   7.544   7.409
 5749SOL     OW19078   7.622  11.364   7.225
 5749SOL    HW119079   7.669  11.281   7.227
 5749SOL    HW219080   7.686  11.427   7.191
 5750SOL     OW19081  12.324  14.486   3.774
 5750SOL    HW119082  12.370  14.498   3.857
 5750SOL    HW219083  12.342  14.567   3.725
 5751SOL     OW19084   8.519  10.268   9.988
 5751SOL    HW119085   8.570  10.196   9.950
 5751SOL    HW219086   8.429  10.252   9.958
 5752SOL     OW19087   0.215   5.720   2.485
 5752SOL    HW119088   0.170   5.643   2.521
 5752SOL    HW219089   0.261   5.758   2.560
 5753SOL     OW19090   2.638   6.759   0.453
 5753SOL    HW119091   2.610   6.730   0.540
 5753SOL    HW219092   2.589   6.839   0.437
 5754SOL     OW19093   3.179   0.397   2.168
 5754SOL    HW119094   3.191   0.303   2.152
 5754SOL    HW219095   3.263   0.436   2.143
 5755SOL     OW19096  11.293   3.814  10.095
 5755SOL    HW119097  11.315   3.730  10.055
 5755SOL    HW219098  11.200   3.827  10.074
 5756SOL     OW19099  13.911   0.537  13.751
 5756SOL    HW119100  13.929   0.499  13.666
 5756SOL    HW219101  13.816   0.547  13.754
 5757SOL     OW19102   7.588   4.009   7.931
 5757SOL    HW119103   7.672   4.046   7.905
 5757SOL    HW219104   7.524   4.077   7.911
 5758SOL     OW19105   0.482   7.079   1.297
 5758SOL    HW119106   0.576   7.074   1.312
 5758SOL    HW219107   0.474   7.126   1.214
 5759SOL     OW19108   3.915   2.153  10.899
 5759SOL    HW119109   3.986   2.090  10.908
 5759SOL    HW219110   3.835   2.100  10.895
 5760SOL     OW19111   7.512  10.892   7.241
 5760SOL    HW119112   7.484  10.826   7.305
 5760SOL    HW219113   7.606  10.881   7.234
 5761SOL     OW19114   9.680  14.653   6.520
 5761SOL    HW119115   9.622  14.579   6.539
 5761SOL    HW219116   9.767  14.613   6.515
 5762SOL     OW19117   7.853   3.818  13.550
 5762SOL    HW119118   7.850   3.888  13.616
 5762SOL    HW219119   7.879   3.862  13.470
 5763SOL     OW19120   8.195  14.450   1.111
 5763SOL    HW119121   8.227  14.378   1.056
 5763SOL    HW219122   8.221  14.529   1.064
 5764SOL     OW19123   1.310   6.671   8.138
 5764SOL    HW119124   1.402   6.646   8.126
 5764SOL    HW219125   1.263   6.625   8.069
 5765SOL     OW19126   6.725   2.284  10.278
 5765SOL    HW119127   6.804   2.335  10.293
 5765SOL    HW219128   6.757   2.196  10.257
 5766SOL     OW19129   9.791   3.545   3.238
 5766SOL    HW119130   9.751   3.541   3.325
 5766SOL    HW219131   9.874   3.589   3.252
 5767SOL     OW19132  11.153   4.901   8.627
 5767SOL    HW119133  11.207   4.868   8.699
 5767SOL    HW219134  11.094   4.964   8.669
 5768SOL     OW19135  12.537   2.084  10.626
 5768SOL    HW119136  12.456   2.108  10.670
 5768SOL    HW219137  12.508   2.042  10.544
 5769SOL     OW19138  12.241  13.990  14.205
 5769SOL    HW119139  12.150  13.998  14.231
 5769SOL    HW219140  12.266  14.079  14.180
 5770SOL     OW19141   9.924   5.111   5.448
 5770SOL    HW119142   9.966   5.108   5.362
 5770SOL    HW219143   9.863   5.037   5.448
 5771SOL     OW19144  12.308   7.745  13.553
 5771SOL    HW119145  12.257   7.673  13.588
 5771SOL    HW219146  12.254   7.823  13.569
 5772SOL     OW19147   7.928   4.153   4.299
 5772SOL    HW119148   7.869   4.182   4.368
 5772SOL    HW219149   7.991   4.224   4.289
 5773SOL     OW19150   6.061  10.573   0.689
 5773SOL    HW119151   6.090  10.482   0.678
 5773SOL    HW219152   6.111  10.605   0.763
 5774SOL     OW19153   5.067   8.969  14.711
 5774SOL    HW119154   5.087   8.924  14.628
 5774SOL    HW219155   5.057   8.898  14.775
 5775SOL     OW19156  13.970   3.948   1.954
 5775SOL    HW119157  13.950   4.027   2.005
 5775SOL    HW219158  14.045   3.973   1.899
 5776SOL     OW19159   9.608   0.072   0.361
 5776SOL    HW119160   9.655   0.005   0.411
 5776SOL    HW219161   9.520   0.074   0.399
 5777SOL     OW19162   7.802   0.454   8.065
 5777SOL    HW119163   7.861   0.486   7.997
 5777SOL    HW219164   7.845   0.374   8.097
 5778SOL     OW19165  13.413   7.189   6.497
 5778SOL    HW119166  13.367   7.217   6.417
 5778SOL    HW219167  13.368   7.236   6.567
 5779SOL     OW19168  11.362   0.625  10.769
 5779SOL    HW119169  11.415   0.573  10.709
 5779SOL    HW219170  11.424   0.686  10.809
 5780SOL     OW19171   0.198   6.139   3.010
 5780SOL    HW119172   0.181   6.198   2.935
 5780SOL    HW219173   0.123   6.080   3.011
 5781SOL     OW19174   8.113   7.621   3.335
 5781SOL    HW119175   8.044   7.581   3.282
 5781SOL    HW219176   8.069   7.690   3.384
 5782SOL     OW19177   9.461   6.339   2.393
 5782SOL    HW119178   9.458   6.370   2.483
 5782SOL    HW219179   9.519   6.400   2.348
 5783SOL     OW19180   1.287   0.001  13.857
 5783SOL    HW119181   1.330   0.064  13.800
 5783SOL    HW219182   1.196   0.030  13.862
 5784SOL     OW19183   7.289   6.516  11.215
 5784SOL    HW119184   7.366   6.466  11.242
 5784SOL    HW219185   7.278   6.582  11.282
 5785SOL     OW19186   5.680  13.920   3.239
 5785SOL    HW119187   5.680  13.994   3.301
 5785SOL    HW219188   5.599  13.931   3.189
 5786SOL     OW19189   6.888   4.524  12.435
 5786SOL    HW119190   6.937   4.550  12.513
 5786SOL    HW219191   6.803   4.495  12.468
 5787SOL     OW19192  12.670   9.459  11.987
 5787SOL    HW119193  12.618   9.501  11.917
 5787SOL    HW219194  12.635   9.370  11.992
 5788SOL     OW19195   1.437  11.249  13.405
 5788SOL    HW119196   1.366  11.211  13.457
 5788SOL    HW219197   1.471  11.176  13.353
 5789SOL     OW19198   1.159   5.436   0.472
 5789SOL    HW119199   1.116   5.453   0.556
 5789SOL    HW219200   1.103   5.479   0.408
 5790SOL     OW19201   3.010   0.102  12.109
 5790SOL    HW119202   3.060   0.182  12.090
 5790SOL    HW219203   3.054   0.034  12.058
 5791SOL     OW19204   0.777   6.193   3.333
 5791SOL    HW119205   0.859   6.231   3.299
 5791SOL    HW219206   0.709   6.256   3.307
 5792SOL     OW19207  11.741   3.998   3.952
 5792SOL    HW119208  11.715   3.923   4.004
 5792SOL    HW219209  11.766   3.962   3.867
 5793SOL     OW19210  14.788  13.249   2.147
 5793SOL    HW119211  14.758  13.163   2.118
 5793SOL    HW219212  14.806  13.297   2.066
 5794SOL     OW19213   1.791   4.251  10.745
 5794SOL    HW119214   1.731   4.199  10.691
 5794SOL    HW219215   1.778   4.341  10.717
 5795SOL     OW19216  14.376   9.439   7.630
 5795SOL    HW119217  14.427   9.372   7.584
 5795SOL    HW219218  14.395   9.520   7.583
 5796SOL     OW19219   8.411  13.139   3.031
 5796SOL    HW119220   8.450  13.053   3.049
 5796SOL    HW219221   8.477  13.184   2.977
 5797SOL     OW19222   4.077   5.379   6.616
 5797SOL    HW119223   4.094   5.473   6.613
 5797SOL    HW219224   4.074   5.353   6.524
 5798SOL     OW19225   9.762   1.866   0.157
 5798SOL    HW119226   9.776   1.838   0.067
 5798SOL    HW219227   9.849   1.894   0.187
 5799SOL     OW19228   6.212  14.229  14.071
 5799SOL    HW119229   6.192  14.186  14.154
 5799SOL    HW219230   6.216  14.157  14.008
 5800SOL     OW19231  13.475   3.635   0.892
 5800SOL    HW119232  13.397   3.691   0.893
 5800SOL    HW219233  13.539   3.685   0.841
 5801SOL     OW19234  12.888  12.638   2.495
 5801SOL    HW119235  12.924  12.727   2.498
 5801SOL    HW219236  12.950  12.588   2.443
 5802SOL     OW19237   3.648  10.981  12.212
 5802SOL    HW119238   3.707  11.002  12.285
 5802SOL    HW219239   3.705  10.980  12.135
 5803SOL     OW19240   0.046   9.247   8.806
 5803SOL    HW119241  14.867   9.257   8.726
 5803SOL    HW219242   0.135   9.270   8.781
 5804SOL     OW19243   0.204   2.856   5.380
 5804SOL    HW119244   0.293   2.830   5.403
 5804SOL    HW219245   0.214   2.942   5.338
 5805SOL     OW19246   1.248  11.941   1.393
 5805SOL    HW119247   1.169  11.974   1.350
 5805SOL    HW219248   1.216  11.906   1.477
 5806SOL     OW19249   5.530  14.468   4.123
 5806SOL    HW119250   5.494  14.436   4.206
 5806SOL    HW219251   5.463  14.527   4.089
 5807SOL     OW19252   1.423   8.230   9.064
 5807SOL    HW119253   1.498   8.222   9.005
 5807SOL    HW219254   1.396   8.140   9.081
 5808SOL     OW19255   6.195  11.262   6.805
 5808SOL    HW119256   6.137  11.190   6.780
 5808SOL    HW219257   6.183  11.328   6.737
 5809SOL     OW19258   8.768   3.322   2.830
 5809SOL    HW119259   8.858   3.349   2.812
 5809SOL    HW219260   8.719   3.404   2.836
 5810SOL     OW19261  12.414   5.001   4.927
 5810SOL    HW119262  12.390   5.063   4.858
 5810SOL    HW219263  12.462   4.932   4.881
 5811SOL     OW19264  14.100   3.314   1.586
 5811SOL    HW119265  14.129   3.326   1.496
 5811SOL    HW219266  14.164   3.364   1.638
 5812SOL     OW19267   6.220  13.982  14.635
 5812SOL    HW119268   6.182  13.903  14.597
 5812SOL    HW219269   6.145  14.040  14.649
 5813SOL     OW19270   7.451   9.973   5.108
 5813SOL    HW119271   7.481   9.926   5.186
 5813SOL    HW219272   7.500   9.933   5.036
 5814SOL     OW19273  13.797   5.496   5.900
 5814SOL    HW119274  13.746   5.574   5.921
 5814SOL    HW219275  13.829   5.511   5.811
 5815SOL     OW19276   6.648   7.758   1.171
 5815SOL    HW119277   6.688   7.755   1.084
 5815SOL    HW219278   6.722   7.763   1.231
 5816SOL     OW19279   5.964  11.356   6.972
 5816SOL    HW119280   6.052  11.348   6.935
 5816SOL    HW219281   5.905  11.343   6.898
 5817SOL     OW19282   9.101   3.677   8.352
 5817SOL    HW119283   9.058   3.592   8.346
 5817SOL    HW219284   9.029   3.740   8.356
 5818SOL     OW19285  14.739   7.307   4.781
 5818SOL    HW119286  14.696   7.237   4.829
 5818SOL    HW219287  14.808   7.263   4.732
 5819SOL     OW19288   3.370  11.120  14.337
 5819SOL    HW119289   3.376  11.207  14.298
 5819SOL    HW219290   3.277  11.097  14.331
 5820SOL     OW19291   8.572   7.173   2.797
 5820SOL    HW119292   8.619   7.252   2.822
 5820SOL    HW219293   8.479   7.198   2.797
 5821SOL     OW19294   1.084  12.668   6.962
 5821SOL    HW119295   1.140  12.702   7.032
 5821SOL    HW219296   1.008  12.633   7.007
 5822SOL     OW19297  12.683   8.880  13.944
 5822SOL    HW119298  12.643   8.815  14.002
 5822SOL    HW219299  12.671   8.963  13.989
 5823SOL     OW19300   7.132   3.398   8.248
 5823SOL    HW119301   7.169   3.482   8.222
 5823SOL    HW219302   7.043   3.417   8.275
 5824SOL     OW19303  13.925  12.181   8.201
 5824SOL    HW119304  13.834  12.165   8.227
 5824SOL    HW219305  13.967  12.215   8.280
 5825SOL     OW19306   7.750   5.873  10.231
 5825SOL    HW119307   7.666   5.833  10.253
 5825SOL    HW219308   7.733   5.923  10.151
 5826SOL     OW19309   1.072   0.490   6.589
 5826SOL    HW119310   1.069   0.492   6.685
 5826SOL    HW219311   1.008   0.556   6.561
 5827SOL     OW19312  10.718   8.844   4.527
 5827SOL    HW119313  10.776   8.835   4.450
 5827SOL    HW219314  10.746   8.925   4.569
 5828SOL     OW19315   1.732   0.756   3.851
 5828SOL    HW119316   1.770   0.675   3.817
 5828SOL    HW219317   1.714   0.808   3.773
 5829SOL     OW19318   4.988   9.650   2.229
 5829SOL    HW119319   5.046   9.604   2.169
 5829SOL    HW219320   4.941   9.580   2.276
 5830SOL     OW19321  12.533  14.671   5.148
 5830SOL    HW119322  12.464  14.606   5.132
 5830SOL    HW219323  12.496  14.753   5.116
 5831SOL     OW19324  12.391  11.315  13.396
 5831SOL    HW119325  12.446  11.394  13.404
 5831SOL    HW219326  12.394  11.294  13.303
 5832SOL     OW19327  11.629   2.351   5.845
 5832SOL    HW119328  11.666   2.429   5.803
 5832SOL    HW219329  11.540   2.346   5.812
 5833SOL     OW19330   7.231  11.785   9.814
 5833SOL    HW119331   7.237  11.796   9.908
 5833SOL    HW219332   7.322  11.774   9.785
 5834SOL     OW19333   9.566   9.555   0.301
 5834SOL    HW119334   9.568   9.631   0.243
 5834SOL    HW219335   9.583   9.481   0.244
 5835SOL     OW19336  12.949   5.009   7.333
 5835SOL    HW119337  12.991   5.091   7.360
 5835SOL    HW219338  12.857   5.032   7.322
 5836SOL     OW19339   3.725   9.831   9.589
 5836SOL    HW119340   3.652   9.832   9.528
 5836SOL    HW219341   3.694   9.778   9.663
 5837SOL     OW19342  14.067   5.102  13.374
 5837SOL    HW119343  14.079   5.094  13.468
 5837SOL    HW219344  14.016   5.182  13.363
 5838SOL     OW19345   6.035   5.568   1.123
 5838SOL    HW119346   6.087   5.641   1.155
 5838SOL    HW219347   5.990   5.535   1.201
 5839SOL     OW19348  12.229  11.628  14.566
 5839SOL    HW119349  12.165  11.694  14.591
 5839SOL    HW219350  12.266  11.660  14.484
 5840SOL     OW19351  12.528   4.790  10.396
 5840SOL    HW119352  12.594   4.731  10.360
 5840SOL    HW219353  12.463   4.732  10.436
 5841SOL     OW19354   0.855   7.790  10.287
 5841SOL    HW119355   0.835   7.697  10.296
 5841SOL    HW219356   0.845   7.826  10.375
 5842SOL     OW19357  13.024   7.718  11.869
 5842SOL    HW119358  13.083   7.659  11.824
 5842SOL    HW219359  12.999   7.671  11.949
 5843SOL     OW19360   3.588   6.807   0.778
 5843SOL    HW119361   3.550   6.792   0.692
 5843SOL    HW219362   3.617   6.898   0.777
 5844SOL     OW19363  12.320   8.865  13.355
 5844SOL    HW119364  12.280   8.850  13.269
 5844SOL    HW219365  12.383   8.794  13.365
 5845SOL     OW19366   1.082   8.764   2.848
 5845SOL    HW119367   0.998   8.747   2.891
 5845SOL    HW219368   1.070   8.849   2.806
 5846SOL     OW19369   0.844   3.497  14.109
 5846SOL    HW119370   0.831   3.573  14.052
 5846SOL    HW219371   0.872   3.427  14.049
 5847SOL     OW19372   5.183   3.872   1.775
 5847SOL    HW119373   5.124   3.890   1.847
 5847SOL    HW219374   5.190   3.956   1.728
 5848SOL     OW19375   0.491   2.725   4.145
 5848SOL    HW119376   0.576   2.687   4.122
 5848SOL    HW219377   0.510   2.784   4.218
 5849SOL     OW19378   3.480  14.114  10.774
 5849SOL    HW119379   3.512  14.128  10.863
 5849SOL    HW219380   3.391  14.149  10.775
 5850SOL     OW19381  13.842   2.450  11.756
 5850SOL    HW119382  13.857   2.465  11.849
 5850SOL    HW219383  13.927   2.424  11.721
 5851SOL     OW19384   2.334  14.429   5.036
 5851SOL    HW119385   2.318  14.518   5.004
 5851SOL    HW219386   2.279  14.373   4.982
 5852SOL     OW19387   8.991   5.748  10.944
 5852SOL    HW119388   9.037   5.832  10.938
 5852SOL    HW219389   8.943   5.742  10.862
 5853SOL     OW19390   8.399   8.364   7.482
 5853SOL    HW119391   8.358   8.449   7.499
 5853SOL    HW219392   8.437   8.372   7.395
 5854SOL     OW19393  13.420   1.764  14.845
 5854SOL    HW119394  13.450   1.852  14.822
 5854SOL    HW219395  13.396   1.723  14.762
 5855SOL     OW19396   6.375   7.675   1.901
 5855SOL    HW119397   6.462   7.636   1.913
 5855SOL    HW219398   6.373   7.702   1.810
 5856SOL     OW19399   8.296  12.028  12.376
 5856SOL    HW119400   8.261  12.096  12.433
 5856SOL    HW219401   8.351  11.975  12.433
 5857SOL     OW19402  10.186   2.119   3.733
 5857SOL    HW119403  10.131   2.041   3.747
 5857SOL    HW219404  10.230   2.133   3.816
 5858SOL     OW19405   1.224  12.102  12.478
 5858SOL    HW119406   1.139  12.059  12.475
 5858SOL    HW219407   1.221  12.166  12.407
 5859SOL     OW19408   6.174   3.495  12.698
 5859SOL    HW119409   6.161   3.491  12.792
 5859SOL    HW219410   6.155   3.586  12.675
 5860SOL     OW19411   9.875  11.761   4.640
 5860SOL    HW119412   9.881  11.807   4.556
 5860SOL    HW219413   9.964  11.763   4.675
 5861SOL     OW19414  13.190   7.314   5.835
 5861SOL    HW119415  13.233   7.315   5.750
 5861SOL    HW219416  13.159   7.404   5.847
 5862SOL     OW19417   6.802   2.864   1.151
 5862SOL    HW119418   6.836   2.947   1.184
 5862SOL    HW219419   6.869   2.799   1.176
 5863SOL     OW19420   4.933  10.850  12.834
 5863SOL    HW119421   4.943  10.808  12.749
 5863SOL    HW219422   5.000  10.918  12.835
 5864SOL     OW19423   0.877   5.472   4.516
 5864SOL    HW119424   0.912   5.481   4.605
 5864SOL    HW219425   0.947   5.430   4.466
 5865SOL     OW19426   3.112   1.643   4.564
 5865SOL    HW119427   3.151   1.580   4.503
 5865SOL    HW219428   3.173   1.716   4.566
 5866SOL     OW19429   5.069   4.876   5.495
 5866SOL    HW119430   5.165   4.872   5.497
 5866SOL    HW219431   5.041   4.789   5.523
 5867SOL     OW19432   3.229   2.156  10.947
 5867SOL    HW119433   3.247   2.250  10.944
 5867SOL    HW219434   3.135   2.151  10.964
 5868SOL     OW19435   6.396   7.749  14.010
 5868SOL    HW119436   6.430   7.737  14.099
 5868SOL    HW219437   6.473   7.738  13.954
 5869SOL     OW19438  14.449   5.347   9.462
 5869SOL    HW119439  14.432   5.398   9.383
 5869SOL    HW219440  14.474   5.260   9.429
 5870SOL     OW19441  11.449  11.472  14.215
 5870SOL    HW119442  11.454  11.537  14.145
 5870SOL    HW219443  11.540  11.446  14.230
 5871SOL     OW19444   0.851   2.457   8.696
 5871SOL    HW119445   0.841   2.540   8.649
 5871SOL    HW219446   0.834   2.390   8.631
 5872SOL     OW19447   9.392   0.429  10.500
 5872SOL    HW119448   9.361   0.362  10.439
 5872SOL    HW219449   9.486   0.437  10.481
 5873SOL     OW19450   4.756  12.003  13.876
 5873SOL    HW119451   4.787  11.924  13.920
 5873SOL    HW219452   4.680  12.031  13.928
 5874SOL     OW19453  12.740   5.889  14.016
 5874SOL    HW119454  12.712   5.949  14.085
 5874SOL    HW219455  12.826   5.922  13.989
 5875SOL     OW19456  13.635   4.162  12.313
 5875SOL    HW119457  13.626   4.081  12.263
 5875SOL    HW219458  13.634   4.231  12.246
 5876SOL     OW19459   9.528  14.002  11.218
 5876SOL    HW119460   9.498  13.960  11.299
 5876SOL    HW219461   9.468  13.971  11.151
 5877SOL     OW19462   4.227   7.069  13.832
 5877SOL    HW119463   4.205   7.068  13.926
 5877SOL    HW219464   4.322   7.076  13.829
 5878SOL     OW19465   8.995   6.276   2.524
 5878SOL    HW119466   9.038   6.225   2.455
 5878SOL    HW219467   8.965   6.356   2.480
 5879SOL     OW19468   6.664   4.630  13.569
 5879SOL    HW119469   6.726   4.582  13.625
 5879SOL    HW219470   6.578   4.593  13.591
 5880SOL     OW19471   3.635  13.012  13.997
 5880SOL    HW119472   3.726  13.032  14.018
 5880SOL    HW219473   3.635  12.992  13.903
 5881SOL     OW19474   5.396  12.744  14.686
 5881SOL    HW119475   5.405  12.798  14.608
 5881SOL    HW219476   5.402  12.654  14.655
 5882SOL     OW19477   1.424   5.256   6.377
 5882SOL    HW119478   1.386   5.187   6.324
 5882SOL    HW219479   1.350   5.312   6.400
 5883SOL     OW19480   2.662  13.230  10.840
 5883SOL    HW119481   2.611  13.302  10.877
 5883SOL    HW219482   2.624  13.151  10.880
 5884SOL     OW19483   1.864   5.373  13.796
 5884SOL    HW119484   1.841   5.466  13.788
 5884SOL    HW219485   1.806   5.340  13.865
 5885SOL     OW19486   7.904   3.871  14.123
 5885SOL    HW119487   7.961   3.948  14.124
 5885SOL    HW219488   7.884   3.857  14.031
 5886SOL     OW19489  11.305   6.204   1.530
 5886SOL    HW119490  11.353   6.233   1.607
 5886SOL    HW219491  11.239   6.144   1.564
 5887SOL     OW19492   8.991  13.365   7.387
 5887SOL    HW119493   9.000  13.459   7.407
 5887SOL    HW219494   8.920  13.362   7.323
 5888SOL     OW19495   2.358   3.264   8.331
 5888SOL    HW119496   2.323   3.261   8.420
 5888SOL    HW219497   2.344   3.354   8.303
 5889SOL     OW19498   8.419  13.386   7.225
 5889SOL    HW119499   8.367  13.337   7.162
 5889SOL    HW219500   8.448  13.321   7.289
 5890SOL     OW19501  13.349   8.814   2.332
 5890SOL    HW119502  13.426   8.785   2.380
 5890SOL    HW219503  13.376   8.895   2.288
 5891SOL     OW19504   0.637  10.578   5.927
 5891SOL    HW119505   0.711  10.520   5.907
 5891SOL    HW219506   0.579  10.570   5.852
 5892SOL     OW19507   6.988   5.984   2.755
 5892SOL    HW119508   7.054   5.953   2.817
 5892SOL    HW219509   7.012   5.942   2.672
 5893SOL     OW19510   1.696  11.520  11.411
 5893SOL    HW119511   1.711  11.431  11.380
 5893SOL    HW219512   1.625  11.553  11.357
 5894SOL     OW19513  14.464   7.685  11.376
 5894SOL    HW119514  14.374   7.686  11.344
 5894SOL    HW219515  14.458   7.711  11.467
 5895SOL     OW19516  11.180  11.570  10.195
 5895SOL    HW119517  11.274  11.585  10.195
 5895SOL    HW219518  11.161  11.530  10.111
 5896SOL     OW19519  10.194  13.533   5.946
 5896SOL    HW119520  10.107  13.520   5.909
 5896SOL    HW219521  10.239  13.590   5.884
 5897SOL     OW19522  11.946   0.480  11.925
 5897SOL    HW119523  12.039   0.464  11.915
 5897SOL    HW219524  11.903   0.414  11.871
 5898SOL     OW19525   8.235  11.136   7.509
 5898SOL    HW119526   8.293  11.203   7.472
 5898SOL    HW219527   8.280  11.107   7.588
 5899SOL     OW19528   5.176   8.299   4.819
 5899SOL    HW119529   5.084   8.325   4.817
 5899SOL    HW219530   5.174   8.203   4.816
 5900SOL     OW19531   3.036  14.549   0.912
 5900SOL    HW119532   3.049  14.633   0.868
 5900SOL    HW219533   2.993  14.494   0.847
 5901SOL     OW19534   5.598  10.790  14.420
 5901SOL    HW119535   5.535  10.777  14.349
 5901SOL    HW219536   5.665  10.848  14.383
 5902SOL     OW19537   9.075  12.033   4.268
 5902SOL    HW119538   9.136  11.970   4.305
 5902SOL    HW219539   8.996  12.026   4.322
 5903SOL     OW19540   3.316   7.958  12.654
 5903SOL    HW119541   3.254   8.000  12.714
 5903SOL    HW219542   3.398   7.957  12.702
 5904SOL     OW19543   8.787   3.859  14.715
 5904SOL    HW119544   8.841   3.928  14.676
 5904SOL    HW219545   8.815   3.855  14.807
 5905SOL     OW19546  11.783   0.485  10.809
 5905SOL    HW119547  11.721   0.536  10.758
 5905SOL    HW219548  11.729   0.430  10.866
 5906SOL     OW19549   5.496   4.550   8.765
 5906SOL    HW119550   5.492   4.486   8.836
 5906SOL    HW219551   5.520   4.497   8.688
 5907SOL     OW19552   3.118  11.087  12.903
 5907SOL    HW119553   3.204  11.066  12.867
 5907SOL    HW219554   3.070  11.126  12.830
 5908SOL     OW19555   7.377  10.621   0.828
 5908SOL    HW119556   7.430  10.688   0.873
 5908SOL    HW219557   7.349  10.563   0.899
 5909SOL     OW19558   6.226   7.082   3.852
 5909SOL    HW119559   6.296   7.079   3.918
 5909SOL    HW219560   6.184   7.167   3.868
 5910SOL     OW19561  12.330  12.788  10.930
 5910SOL    HW119562  12.256  12.800  10.990
 5910SOL    HW219563  12.355  12.696  10.941
 5911SOL     OW19564   9.994  10.293  13.882
 5911SOL    HW119565  10.039  10.215  13.849
 5911SOL    HW219566   9.928  10.312  13.816
 5912SOL     OW19567  13.269   7.984  12.153
 5912SOL    HW119568  13.302   8.042  12.084
 5912SOL    HW219569  13.186   7.951  12.119
 5913SOL     OW19570   6.048  12.331  13.544
 5913SOL    HW119571   5.990  12.389  13.593
 5913SOL    HW219572   6.029  12.349  13.452
 5914SOL     OW19573   5.182   2.992  11.828
 5914SOL    HW119574   5.191   2.995  11.923
 5914SOL    HW219575   5.199   3.081  11.799
 5915SOL     OW19576   6.626  13.332  10.669
 5915SOL    HW119577   6.650  13.364  10.582
 5915SOL    HW219578   6.706  13.340  10.720
 5916SOL     OW19579   1.839   0.315   8.264
 5916SOL    HW119580   1.761   0.263   8.242
 5916SOL    HW219581   1.805   0.388   8.316
 5917SOL     OW19582   2.354   1.473   0.779
 5917SOL    HW119583   2.337   1.425   0.697
 5917SOL    HW219584   2.354   1.565   0.752
 5918SOL     OW19585  12.722  11.920   4.627
 5918SOL    HW119586  12.654  11.979   4.661
 5918SOL    HW219587  12.678  11.836   4.616
 5919SOL     OW19588   7.582   0.553  11.201
 5919SOL    HW119589   7.655   0.613  11.215
 5919SOL    HW219590   7.616   0.467  11.228
 5920SOL     OW19591   2.909  12.102   4.258
 5920SOL    HW119592   2.864  12.018   4.265
 5920SOL    HW219593   2.941  12.120   4.346
 5921SOL     OW19594  12.189   2.206   4.731
 5921SOL    HW119595  12.148   2.147   4.667
 5921SOL    HW219596  12.282   2.204   4.709
 5922SOL     OW19597   6.717   6.690  14.673
 5922SOL    HW119598   6.778   6.631  14.630
 5922SOL    HW219599   6.669   6.732  14.602
 5923SOL     OW19600   6.471   0.179   2.802
 5923SOL    HW119601   6.397   0.175   2.863
 5923SOL    HW219602   6.512   0.093   2.808
 5924SOL     OW19603  12.420   4.116   5.104
 5924SOL    HW119604  12.349   4.057   5.127
 5924SOL    HW219605  12.385   4.169   5.033
 5925SOL     OW19606  11.569   6.612  13.256
 5925SOL    HW119607  11.628   6.563  13.199
 5925SOL    HW219608  11.547   6.691  13.207
 5926SOL     OW19609  11.278   3.614   9.490
 5926SOL    HW119610  11.315   3.699   9.466
 5926SOL    HW219611  11.200   3.605   9.435
 5927SOL     OW19612   5.882   0.162   9.695
 5927SOL    HW119613   5.909   0.125   9.779
 5927SOL    HW219614   5.953   0.139   9.635
 5928SOL     OW19615   0.973  11.920  10.372
 5928SOL    HW119616   0.945  11.972  10.296
 5928SOL    HW219617   1.057  11.956  10.397
 5929SOL     OW19618   8.906   5.212   0.221
 5929SOL    HW119619   8.875   5.122   0.233
 5929SOL    HW219620   8.836   5.266   0.258
 5930SOL     OW19621   7.661  14.018  10.869
 5930SOL    HW119622   7.618  13.970  10.799
 5930SOL    HW219623   7.612  13.996  10.948
 5931SOL     OW19624  12.638  11.093  11.755
 5931SOL    HW119625  12.683  11.132  11.681
 5931SOL    HW219626  12.681  11.008  11.768
 5932SOL     OW19627   8.501   3.991  10.061
 5932SOL    HW119628   8.539   3.938   9.991
 5932SOL    HW219629   8.519   3.942  10.141
 5933SOL     OW19630   6.158   5.647   1.381
 5933SOL    HW119631   6.216   5.637   1.457
 5933SOL    HW219632   6.071   5.654   1.419
 5934SOL     OW19633   8.967   0.577   4.159
 5934SOL    HW119634   9.035   0.591   4.226
 5934SOL    HW219635   8.910   0.654   4.167
 5935SOL     OW19636  13.592   8.750   2.470
 5935SOL    HW119637  13.664   8.698   2.434
 5935SOL    HW219638  13.620   8.841   2.457
 5936SOL     OW19639   7.478  12.581  11.321
 5936SOL    HW119640   7.393  12.614  11.350
 5936SOL    HW219641   7.474  12.486  11.338
 5937SOL     OW19642   6.753  14.408  11.892
 5937SOL    HW119643   6.776  14.497  11.917
 5937SOL    HW219644   6.669  14.392  11.936
 5938SOL     OW19645   8.711  14.601  14.614
 5938SOL    HW119646   8.685  14.511  14.595
 5938SOL    HW219647   8.633  14.653  14.596
 5939SOL     OW19648   0.957   4.515  13.005
 5939SOL    HW119649   0.975   4.425  13.031
 5939SOL    HW219650   0.884   4.507  12.944
 5940SOL     OW19651   6.364   6.274   1.709
 5940SOL    HW119652   6.437   6.225   1.747
 5940SOL    HW219653   6.377   6.268   1.615
 5941SOL     OW19654   9.717   9.445   1.550
 5941SOL    HW119655   9.703   9.490   1.466
 5941SOL    HW219656   9.669   9.497   1.614
 5942SOL     OW19657  12.616   0.531   1.986
 5942SOL    HW119658  12.563   0.558   1.911
 5942SOL    HW219659  12.626   0.436   1.975
 5943SOL     OW19660   0.433   3.910  10.017
 5943SOL    HW119661   0.442   3.833   9.960
 5943SOL    HW219662   0.453   3.878  10.105
 5944SOL     OW19663   5.684   4.206   9.119
 5944SOL    HW119664   5.686   4.290   9.164
 5944SOL    HW219665   5.690   4.141   9.189
 5945SOL     OW19666  12.327   5.751   5.175
 5945SOL    HW119667  12.402   5.718   5.226
 5945SOL    HW219668  12.250   5.716   5.220
 5946SOL     OW19669   8.507  10.907   8.090
 5946SOL    HW119670   8.564  10.883   8.017
 5946SOL    HW219671   8.517  11.002   8.099
 5947SOL     OW19672   4.364   5.919  10.993
 5947SOL    HW119673   4.376   5.946  11.084
 5947SOL    HW219674   4.381   5.825  10.993
 5948SOL     OW19675  13.687   8.350   8.052
 5948SOL    HW119676  13.745   8.273   8.043
 5948SOL    HW219677  13.719   8.411   7.985
 5949SOL     OW19678  12.058   0.378   9.990
 5949SOL    HW119679  12.009   0.364   9.909
 5949SOL    HW219680  12.075   0.473   9.991
 5950SOL     OW19681  12.292  10.665  11.951
 5950SOL    HW119682  12.288  10.761  11.947
 5950SOL    HW219683  12.210  10.636  11.911
 5951SOL     OW19684  14.871  14.269  11.312
 5951SOL    HW119685  14.810  14.324  11.264
 5951SOL    HW219686   0.059  14.236  11.246
 5952SOL     OW19687  10.134   8.168   1.929
 5952SOL    HW119688  10.126   8.098   1.865
 5952SOL    HW219689  10.097   8.245   1.886
 5953SOL     OW19690  11.598   7.591   6.924
 5953SOL    HW119691  11.515   7.609   6.880
 5953SOL    HW219692  11.596   7.643   7.004
 5954SOL     OW19693   9.263  12.853   6.702
 5954SOL    HW119694   9.176  12.819   6.724
 5954SOL    HW219695   9.323  12.800   6.754
 5955SOL     OW19696   1.305   1.135  11.398
 5955SOL    HW119697   1.387   1.165  11.436
 5955SOL    HW219698   1.243   1.134  11.471
 5956SOL     OW19699   5.835   9.366   9.791
 5956SOL    HW119700   5.743   9.351   9.812
 5956SOL    HW219701   5.845   9.461   9.790
 5957SOL     OW19702   2.629  10.566  10.843
 5957SOL    HW119703   2.640  10.482  10.888
 5957SOL    HW219704   2.616  10.542  10.751
 5958SOL     OW19705   8.704   8.961  10.043
 5958SOL    HW119706   8.789   8.966  10.087
 5958SOL    HW219707   8.725   8.965   9.949
 5959SOL     OW19708   4.155   1.986  12.125
 5959SOL    HW119709   4.083   1.924  12.130
 5959SOL    HW219710   4.132   2.046  12.055
 5960SOL     OW19711  14.399   1.884   5.226
 5960SOL    HW119712  14.464   1.944   5.263
 5960SOL    HW219713  14.440   1.850   5.147
 5961SOL     OW19714  12.384   3.297   7.427
 5961SOL    HW119715  12.421   3.334   7.347
 5961SOL    HW219716  12.454   3.242   7.462
 5962SOL     OW19717   2.933   4.886   2.539
 5962SOL    HW119718   3.017   4.840   2.538
 5962SOL    HW219719   2.942   4.948   2.611
 5963SOL     OW19720  14.568   1.070  11.074
 5963SOL    HW119721  14.642   1.011  11.055
 5963SOL    HW219722  14.610   1.152  11.101
 5964SOL     OW19723   3.873   5.528   3.744
 5964SOL    HW119724   3.811   5.456   3.730
 5964SOL    HW219725   3.863   5.551   3.836
 5965SOL     OW19726   7.918   8.656  13.769
 5965SOL    HW119727   7.921   8.563  13.792
 5965SOL    HW219728   7.981   8.665  13.698
 5966SOL     OW19729   1.169  13.147   4.407
 5966SOL    HW119730   1.205  13.059   4.418
 5966SOL    HW219731   1.126  13.166   4.490
 5967SOL     OW19732  13.795   7.042   5.634
 5967SOL    HW119733  13.816   6.951   5.651
 5967SOL    HW219734  13.879   7.083   5.614
 5968SOL     OW19735   0.806   9.982   9.406
 5968SOL    HW119736   0.754  10.062   9.409
 5968SOL    HW219737   0.741   9.912   9.401
 5969SOL     OW19738   0.648  12.498  14.347
 5969SOL    HW119739   0.740  12.487  14.371
 5969SOL    HW219740   0.600  12.466  14.423
 5970SOL     OW19741   2.178   3.257   8.584
 5970SOL    HW119742   2.235   3.205   8.641
 5970SOL    HW219743   2.128   3.313   8.644
 5971SOL     OW19744   0.611   1.864  12.500
 5971SOL    HW119745   0.576   1.939  12.451
 5971SOL    HW219746   0.616   1.794  12.435
 5972SOL     OW19747   3.034   7.833   5.667
 5972SOL    HW119748   3.005   7.904   5.724
 5972SOL    HW219749   3.018   7.865   5.578
 5973SOL     OW19750   6.607   3.034   5.992
 5973SOL    HW119751   6.648   3.030   5.905
 5973SOL    HW219752   6.680   3.054   6.051
 5974SOL     OW19753   0.879  10.381  13.990
 5974SOL    HW119754   0.845  10.308  14.042
 5974SOL    HW219755   0.824  10.455  14.014
 5975SOL     OW19756   3.697  14.482   7.945
 5975SOL    HW119757   3.632  14.537   7.902
 5975SOL    HW219758   3.646  14.420   7.997
 5976SOL     OW19759   2.302   7.652   6.877
 5976SOL    HW119760   2.254   7.700   6.810
 5976SOL    HW219761   2.376   7.709   6.899
 5977SOL     OW19762   9.652  12.358  13.001
 5977SOL    HW119763   9.727  12.367  13.060
 5977SOL    HW219764   9.610  12.276  13.029
 5978SOL     OW19765   2.039  12.210   7.224
 5978SOL    HW119766   2.024  12.300   7.198
 5978SOL    HW219767   2.080  12.217   7.311
 5979SOL     OW19768   3.771   0.143   9.416
 5979SOL    HW119769   3.688   0.124   9.373
 5979SOL    HW219770   3.798   0.228   9.379
 5980SOL     OW19771   2.225   5.296   4.230
 5980SOL    HW119772   2.160   5.227   4.221
 5980SOL    HW219773   2.292   5.275   4.165
 5981SOL     OW19774  12.092  12.398  11.106
 5981SOL    HW119775  12.044  12.478  11.122
 5981SOL    HW219776  12.025  12.333  11.083
 5982SOL     OW19777   9.276   3.920   1.675
 5982SOL    HW119778   9.362   3.946   1.642
 5982SOL    HW219779   9.290   3.902   1.768
 5983SOL     OW19780  12.725   0.354   2.387
 5983SOL    HW119781  12.768   0.292   2.446
 5983SOL    HW219782  12.672   0.300   2.329
 5984SOL     OW19783   7.074  14.688  11.198
 5984SOL    HW119784   7.140  14.732  11.145
 5984SOL    HW219785   7.009  14.656  11.135
 5985SOL     OW19786  13.077   4.904  13.632
 5985SOL    HW119787  12.988   4.929  13.607
 5985SOL    HW219788  13.067   4.821  13.677
 5986SOL     OW19789   0.505   9.914  11.530
 5986SOL    HW119790   0.425   9.929  11.580
 5986SOL    HW219791   0.537  10.002  11.509
 5987SOL     OW19792   7.716   8.932  12.654
 5987SOL    HW119793   7.625   8.915  12.629
 5987SOL    HW219794   7.739   9.014  12.610
 5988SOL     OW19795  12.071  14.350   4.988
 5988SOL    HW119796  12.090  14.333   5.080
 5988SOL    HW219797  12.156  14.341   4.945
 5989SOL     OW19798   3.321   5.149   6.055
 5989SOL    HW119799   3.336   5.132   5.962
 5989SOL    HW219800   3.306   5.243   6.060
 5990SOL     OW19801   3.806  11.611  13.902
 5990SOL    HW119802   3.895  11.625  13.934
 5990SOL    HW219803   3.810  11.528  13.854
 5991SOL     OW19804   2.929  10.808   2.825
 5991SOL    HW119805   2.977  10.793   2.744
 5991SOL    HW219806   2.979  10.761   2.892
 5992SOL     OW19807   2.481  13.916   0.611
 5992SOL    HW119808   2.446  13.978   0.547
 5992SOL    HW219809   2.408  13.857   0.629
 5993SOL     OW19810   5.508   8.776   3.421
 5993SOL    HW119811   5.511   8.725   3.503
 5993SOL    HW219812   5.593   8.819   3.417
 5994SOL     OW19813   0.411  13.462   0.419
 5994SOL    HW119814   0.483  13.436   0.478
 5994SOL    HW219815   0.456  13.494   0.341
 5995SOL     OW19816   6.678  13.649  10.550
 5995SOL    HW119817   6.603  13.682  10.600
 5995SOL    HW219818   6.676  13.699  10.468
 5996SOL     OW19819   7.249   1.812  14.545
 5996SOL    HW119820   7.240   1.901  14.580
 5996SOL    HW219821   7.209   1.756  14.611
 5997SOL     OW19822  11.181   0.747   2.102
 5997SOL    HW119823  11.252   0.789   2.150
 5997SOL    HW219824  11.112   0.734   2.167
 5998SOL     OW19825  10.739  11.752  10.166
 5998SOL    HW119826  10.696  11.804  10.234
 5998SOL    HW219827  10.714  11.662  10.186
 5999SOL     OW19828   4.181   0.462   1.242
 5999SOL    HW119829   4.220   0.534   1.292
 5999SOL    HW219830   4.253   0.401   1.227
 6000SOL     OW19831  12.453  13.436  11.613
 6000SOL    HW119832  12.418  13.430  11.702
 6000SOL    HW219833  12.536  13.482  11.623
 6001SOL     OW19834   7.446   7.244   4.631
 6001SOL    HW119835   7.522   7.225   4.686
 6001SOL    HW219836   7.459   7.190   4.553
 6002SOL     OW19837   9.257   2.971  11.110
 6002SOL    HW119838   9.242   2.888  11.156
 6002SOL    HW219839   9.170   3.010  11.103
 6003SOL     OW19840  13.177   2.670   1.483
 6003SOL    HW119841  13.117   2.627   1.422
 6003SOL    HW219842  13.156   2.631   1.568
 6004SOL     OW19843   5.984   2.707  12.428
 6004SOL    HW119844   6.023   2.622  12.449
 6004SOL    HW219845   6.035   2.739  12.354
 6005SOL     OW19846  11.341  13.574   6.635
 6005SOL    HW119847  11.247  13.558   6.629
 6005SOL    HW219848  11.357  13.586   6.729
 6006SOL     OW19849   7.795  10.913   5.092
 6006SOL    HW119850   7.702  10.895   5.102
 6006SOL    HW219851   7.806  11.000   5.130
 6007SOL     OW19852  10.165   5.957   3.623
 6007SOL    HW119853  10.190   6.045   3.652
 6007SOL    HW219854  10.156   5.907   3.704
 6008SOL     OW19855   5.884  14.249   5.731
 6008SOL    HW119856   5.943  14.294   5.791
 6008SOL    HW219857   5.936  14.178   5.694
 6009SOL     OW19858   2.503  13.285   4.287
 6009SOL    HW119859   2.414  13.279   4.322
 6009SOL    HW219860   2.560  13.255   4.358
 6010SOL     OW19861  10.629   5.932   3.692
 6010SOL    HW119862  10.539   5.933   3.723
 6010SOL    HW219863  10.677   5.885   3.760
 6011SOL     OW19864   9.221   7.010   7.646
 6011SOL    HW119865   9.140   7.047   7.681
 6011SOL    HW219866   9.220   6.919   7.676
 6012SOL     OW19867  14.256   2.923   5.429
 6012SOL    HW119868  14.267   2.845   5.482
 6012SOL    HW219869  14.325   2.917   5.362
 6013SOL     OW19870   3.102   6.809  13.711
 6013SOL    HW119871   3.024   6.823  13.657
 6013SOL    HW219872   3.159   6.884  13.692
 6014SOL     OW19873   0.910  13.739   2.974
 6014SOL    HW119874   0.955  13.727   2.891
 6014SOL    HW219875   0.977  13.723   3.041
 6015SOL     OW19876   2.357   9.210   3.539
 6015SOL    HW119877   2.305   9.233   3.462
 6015SOL    HW219878   2.427   9.154   3.506
 6016SOL     OW19879   0.328   4.210   4.472
 6016SOL    HW119880   0.321   4.178   4.382
 6016SOL    HW219881   0.267   4.284   4.477
 6017SOL     OW19882   4.310  12.013  10.528
 6017SOL    HW119883   4.281  12.056  10.608
 6017SOL    HW219884   4.389  12.060  10.502
 6018SOL     OW19885   6.647   9.357  10.761
 6018SOL    HW119886   6.737   9.329  10.780
 6018SOL    HW219887   6.617   9.397  10.842
 6019SOL     OW19888   8.862   6.347   6.318
 6019SOL    HW119889   8.791   6.363   6.256
 6019SOL    HW219890   8.867   6.252   6.325
 6020SOL     OW19891   3.184   0.573   3.614
 6020SOL    HW119892   3.278   0.571   3.596
 6020SOL    HW219893   3.164   0.665   3.628
 6021SOL     OW19894   7.855  12.457   0.674
 6021SOL    HW119895   7.778  12.406   0.649
 6021SOL    HW219896   7.828  12.501   0.755
 6022SOL     OW19897  11.524  11.996   4.204
 6022SOL    HW119898  11.613  11.970   4.230
 6022SOL    HW219899  11.516  11.964   4.114
 6023SOL     OW19900  10.038   1.956  12.298
 6023SOL    HW119901   9.943   1.957  12.288
 6023SOL    HW219902  10.071   1.936  12.210
 6024SOL     OW19903  10.323   9.217  12.845
 6024SOL    HW119904  10.413   9.223  12.813
 6024SOL    HW219905  10.324   9.144  12.907
 6025SOL     OW19906  13.556   6.485   6.323
 6025SOL    HW119907  13.528   6.482   6.232
 6025SOL    HW219908  13.649   6.505   6.319
 6026SOL     OW19909   2.523  11.756   9.051
 6026SOL    HW119910   2.502  11.682   8.993
 6026SOL    HW219911   2.528  11.832   8.993
 6027SOL     OW19912   3.495   5.710   0.704
 6027SOL    HW119913   3.493   5.654   0.782
 6027SOL    HW219914   3.547   5.786   0.730
 6028SOL     OW19915   8.922   6.994   0.358
 6028SOL    HW119916   8.998   7.035   0.399
 6028SOL    HW219917   8.886   7.062   0.301
 6029SOL     OW19918   1.333   1.552  14.368
 6029SOL    HW119919   1.290   1.605  14.301
 6029SOL    HW219920   1.278   1.474  14.375
 6030SOL     OW19921   6.332  12.248   7.429
 6030SOL    HW119922   6.400  12.315   7.420
 6030SOL    HW219923   6.378  12.171   7.461
 6031SOL     OW19924  12.112  12.690  13.537
 6031SOL    HW119925  12.193  12.652  13.572
 6031SOL    HW219926  12.060  12.614  13.511
 6032SOL     OW19927  11.783   6.169  14.202
 6032SOL    HW119928  11.715   6.196  14.140
 6032SOL    HW219929  11.756   6.081  14.229
 6033SOL     OW19930   8.461   7.690  11.650
 6033SOL    HW119931   8.400   7.741  11.703
 6033SOL    HW219932   8.526   7.658  11.712
 6034SOL     OW19933   2.798   3.118   0.360
 6034SOL    HW119934   2.846   3.039   0.335
 6034SOL    HW219935   2.710   3.087   0.379
 6035SOL     OW19936   7.133   1.251   8.294
 6035SOL    HW119937   7.093   1.304   8.226
 6035SOL    HW219938   7.093   1.283   8.376
 6036SOL     OW19939   1.504   2.533   4.642
 6036SOL    HW119940   1.430   2.545   4.702
 6036SOL    HW219941   1.464   2.512   4.558
 6037SOL     OW19942   3.970   7.281   5.311
 6037SOL    HW119943   4.000   7.256   5.398
 6037SOL    HW219944   4.038   7.342   5.279
 6038SOL     OW19945  12.117   0.776  12.996
 6038SOL    HW119946  12.117   0.868  13.024
 6038SOL    HW219947  12.134   0.779  12.902
 6039SOL     OW19948   3.506   3.389   0.982
 6039SOL    HW119949   3.454   3.371   0.904
 6039SOL    HW219950   3.529   3.302   1.016
 6040SOL     OW19951   7.173   6.651  12.151
 6040SOL    HW119952   7.236   6.633  12.221
 6040SOL    HW219953   7.169   6.570  12.101
 6041SOL     OW19954  14.483   2.744  14.746
 6041SOL    HW119955  14.460   2.667  14.797
 6041SOL    HW219956  14.434   2.815  14.787
 6042SOL     OW19957  13.596   4.129   3.389
 6042SOL    HW119958  13.654   4.096   3.457
 6042SOL    HW219959  13.620   4.221   3.379
 6043SOL     OW19960   0.263  12.791  12.691
 6043SOL    HW119961   0.353  12.796  12.725
 6043SOL    HW219962   0.239  12.699  12.703
 6044SOL     OW19963   1.376   0.346  13.394
 6044SOL    HW119964   1.351   0.426  13.442
 6044SOL    HW219965   1.318   0.346  13.317
 6045SOL     OW19966   4.810  10.701   3.614
 6045SOL    HW119967   4.861  10.774   3.581
 6045SOL    HW219968   4.856  10.672   3.693
 6046SOL     OW19969   7.998   9.892   8.774
 6046SOL    HW119970   7.984   9.859   8.863
 6046SOL    HW219971   8.093   9.895   8.764
 6047SOL     OW19972   7.465   2.449   9.517
 6047SOL    HW119973   7.431   2.370   9.558
 6047SOL    HW219974   7.415   2.520   9.556
 6048SOL     OW19975  12.300   0.987  10.358
 6048SOL    HW119976  12.272   1.041  10.284
 6048SOL    HW219977  12.313   0.900  10.320
 6049SOL     OW19978  11.398   8.569   6.272
 6049SOL    HW119979  11.406   8.623   6.194
 6049SOL    HW219980  11.488   8.554   6.301
 6050SOL     OW19981  10.205   3.295   5.744
 6050SOL    HW119982  10.120   3.336   5.761
 6050SOL    HW219983  10.185   3.206   5.718
 6051SOL     OW19984  13.494   5.174   9.843
 6051SOL    HW119985  13.403   5.147   9.855
 6051SOL    HW219986  13.532   5.107   9.786
 6052SOL     OW19987   6.939   5.029   3.458
 6052SOL    HW119988   6.958   5.011   3.551
 6052SOL    HW219989   6.991   5.106   3.437
 6053SOL     OW19990   2.004   6.164   6.602
 6053SOL    HW119991   2.092   6.177   6.638
 6053SOL    HW219992   2.012   6.186   6.510
 6054SOL     OW19993   0.024   3.903   4.486
 6054SOL    HW119994  14.859   3.992   4.486
 6054SOL    HW219995   0.058   3.892   4.397
 6055SOL     OW19996   0.473   3.470   9.379
 6055SOL    HW119997   0.472   3.561   9.408
 6055SOL    HW219998   0.429   3.421   9.448
 6056SOL     OW19999   0.885   9.629  13.439
 6056SOL    HW120000   0.860   9.656  13.527
 6056SOL    HW220001   0.803   9.603  13.397
 6057SOL     OW20002   7.910   8.223   9.098
 6057SOL    HW120003   7.932   8.254   9.010
 6057SOL    HW220004   7.888   8.302   9.146
 6058SOL     OW20005   3.110  14.217  13.324
 6058SOL    HW120006   3.058  14.286  13.282
 6058SOL    HW220007   3.155  14.261  13.396
 6059SOL     OW20008  12.798  11.277   0.512
 6059SOL    HW120009  12.831  11.366   0.523
 6059SOL    HW220010  12.761  11.276   0.423
 6060SOL     OW20011   3.436   6.822   0.276
 6060SOL    HW120012   3.437   6.847   0.183
 6060SOL    HW220013   3.431   6.726   0.274
 6061SOL     OW20014   2.182  14.209   9.257
 6061SOL    HW120015   2.244  14.233   9.326
 6061SOL    HW220016   2.181  14.285   9.198
 6062SOL     OW20017  12.120   1.169  10.552
 6062SOL    HW120018  12.153   1.097  10.498
 6062SOL    HW220019  12.168   1.160  10.634
 6063SOL     OW20020   9.098   5.546   7.286
 6063SOL    HW120021   9.014   5.517   7.252
 6063SOL    HW220022   9.157   5.544   7.211
 6064SOL     OW20023   4.685  10.516  14.689
 6064SOL    HW120024   4.648  10.601  14.714
 6064SOL    HW220025   4.610  10.456  14.693
 6065SOL     OW20026   3.115  14.269  13.766
 6065SOL    HW120027   3.094  14.291  13.675
 6065SOL    HW220028   3.192  14.321  13.786
 6066SOL     OW20029   1.316  11.366   0.109
 6066SOL    HW120030   1.348  11.366   0.199
 6066SOL    HW220031   1.221  11.353   0.117
 6067SOL     OW20032  12.554  10.013   1.404
 6067SOL    HW120033  12.573  10.065   1.327
 6067SOL    HW220034  12.639   9.993   1.442
 6068SOL     OW20035  13.767   7.870  10.386
 6068SOL    HW120036  13.823   7.892  10.461
 6068SOL    HW220037  13.691   7.828  10.424
 6069SOL     OW20038  13.980   3.596   5.349
 6069SOL    HW120039  14.075   3.595   5.339
 6069SOL    HW220040  13.950   3.658   5.283
 6070SOL     OW20041  13.106   6.053   2.934
 6070SOL    HW120042  13.071   6.138   2.960
 6070SOL    HW220043  13.176   6.036   2.997
 6071SOL     OW20044  10.805   4.536  14.469
 6071SOL    HW120045  10.752   4.456  14.464
 6071SOL    HW220046  10.762   4.597  14.408
 6072SOL     OW20047  12.496  10.992   8.508
 6072SOL    HW120048  12.447  10.910   8.514
 6072SOL    HW220049  12.578  10.974   8.554
 6073SOL     OW20050   1.770   1.857   1.824
 6073SOL    HW120051   1.684   1.899   1.832
 6073SOL    HW220052   1.817   1.884   1.902
 6074SOL     OW20053   4.400   0.901   1.189
 6074SOL    HW120054   4.442   0.831   1.238
 6074SOL    HW220055   4.460   0.920   1.117
 6075SOL     OW20056   1.268  11.444   9.722
 6075SOL    HW120057   1.294  11.356   9.695
 6075SOL    HW220058   1.351  11.489   9.739
 6076SOL     OW20059  13.381   3.436  10.965
 6076SOL    HW120060  13.298   3.476  10.940
 6076SOL    HW220061  13.356   3.354  11.008
 6077SOL     OW20062   0.057  14.133  14.200
 6077SOL    HW120063   0.104  14.205  14.243
 6077SOL    HW220064  14.840  14.164  14.191
 6078SOL     OW20065   6.359   3.739   3.476
 6078SOL    HW120066   6.283   3.688   3.503
 6078SOL    HW220067   6.385   3.700   3.393
 6079SOL     OW20068   7.838  12.999   3.292
 6079SOL    HW120069   7.878  12.929   3.345
 6079SOL    HW220070   7.749  13.005   3.325
 6080SOL     OW20071   7.246   9.655   5.036
 6080SOL    HW120072   7.282   9.656   4.947
 6080SOL    HW220073   7.162   9.699   5.028
 6081SOL     OW20074   4.559  11.982   0.037
 6081SOL    HW120075   4.546  11.953   0.127
 6081SOL    HW220076   4.585  12.073   0.044
 6082SOL     OW20077   1.042   4.098   6.178
 6082SOL    HW120078   1.131   4.130   6.165
 6082SOL    HW220079   1.049   4.033   6.247
 6083SOL     OW20080  11.070   2.581   0.331
 6083SOL    HW120081  11.007   2.534   0.386
 6083SOL    HW220082  11.028   2.583   0.245
 6084SOL     OW20083   0.117  13.097   1.029
 6084SOL    HW120084   0.098  13.191   1.030
 6084SOL    HW220085   0.204  13.090   0.991
 6085SOL     OW20086  12.137   3.949   0.799
 6085SOL    HW120087  12.066   3.976   0.740
 6085SOL    HW220088  12.187   3.885   0.749
 6086SOL     OW20089   7.499   2.050  13.921
 6086SOL    HW120090   7.504   2.135  13.877
 6086SOL    HW220091   7.590   2.027  13.939
 6087SOL     OW20092  11.917  12.372   3.795
 6087SOL    HW120093  11.962  12.449   3.760
 6087SOL    HW220094  11.867  12.405   3.870
 6088SOL     OW20095   9.675   2.484   0.046
 6088SOL    HW120096   9.727   2.463  14.841
 6088SOL    HW220097   9.585   2.487   0.014
 6089SOL     OW20098  13.951   8.075   5.222
 6089SOL    HW120099  13.942   8.023   5.142
 6089SOL    HW220100  13.913   8.160   5.199
 6090SOL     OW20101   3.346   0.194  12.491
 6090SOL    HW120102   3.420   0.221  12.546
 6090SOL    HW220103   3.376   0.210  12.402
 6091SOL     OW20104  14.790   0.514  14.786
 6091SOL    HW120105  14.743   0.431  14.784
 6091SOL    HW220106   0.011   0.489  14.783
 6092SOL     OW20107   0.603   8.544   3.201
 6092SOL    HW120108   0.587   8.504   3.287
 6092SOL    HW220109   0.634   8.472   3.147
 6093SOL     OW20110  14.215   0.539   8.500
 6093SOL    HW120111  14.287   0.490   8.460
 6093SOL    HW220112  14.140   0.525   8.441
 6094SOL     OW20113  12.358   9.561   4.642
 6094SOL    HW120114  12.291   9.559   4.573
 6094SOL    HW220115  12.439   9.584   4.596
 6095SOL     OW20116   6.687   9.896   0.951
 6095SOL    HW120117   6.782   9.886   0.937
 6095SOL    HW220118   6.648   9.871   0.868
 6096SOL     OW20119   1.726   1.520   4.613
 6096SOL    HW120120   1.680   1.541   4.532
 6096SOL    HW220121   1.818   1.533   4.592
 6097SOL     OW20122   0.103   2.762  13.291
 6097SOL    HW120123   0.126   2.846  13.332
 6097SOL    HW220124   0.186   2.724  13.264
 6098SOL     OW20125   9.108  12.824   7.743
 6098SOL    HW120126   9.105  12.734   7.709
 6098SOL    HW220127   9.180  12.823   7.807
 6099SOL     OW20128   5.315  14.661   3.574
 6099SOL    HW120129   5.300  14.567   3.568
 6099SOL    HW220130   5.388  14.671   3.636
 6100SOL     OW20131   8.592   2.607  13.283
 6100SOL    HW120132   8.611   2.701  13.273
 6100SOL    HW220133   8.658   2.576  13.345
 6101SOL     OW20134   3.152   5.736   6.406
 6101SOL    HW120135   3.207   5.815   6.409
 6101SOL    HW220136   3.175   5.688   6.486
 6102SOL     OW20137  14.823  14.799  13.652
 6102SOL    HW120138  14.782  14.775  13.735
 6102SOL    HW220139   0.040  14.766  13.659
 6103SOL     OW20140  11.567  13.178   3.553
 6103SOL    HW120141  11.506  13.223   3.611
 6103SOL    HW220142  11.528  13.092   3.538
 6104SOL     OW20143  13.729   0.035  14.721
 6104SOL    HW120144  13.751   0.082  14.641
 6104SOL    HW220145  13.777  14.824  14.714
 6105SOL     OW20146   6.596  14.221   9.031
 6105SOL    HW120147   6.675  14.182   8.993
 6105SOL    HW220148   6.603  14.314   9.011
 6106SOL     OW20149   0.361   0.462   5.433
 6106SOL    HW120150   0.342   0.534   5.372
 6106SOL    HW220151   0.437   0.418   5.395
 6107SOL     OW20152   2.933   7.805   2.734
 6107SOL    HW120153   2.993   7.830   2.664
 6107SOL    HW220154   2.919   7.886   2.784
 6108SOL     OW20155   6.300   9.309  12.854
 6108SOL    HW120156   6.219   9.361  12.859
 6108SOL    HW220157   6.361   9.354  12.913
 6109SOL     OW20158   8.119  11.427  10.282
 6109SOL    HW120159   8.201  11.416  10.234
 6109SOL    HW220160   8.061  11.360  10.245
 6110SOL     OW20161   5.878  10.036  12.707
 6110SOL    HW120162   5.795   9.990  12.690
 6110SOL    HW220163   5.851  10.119  12.746
 6111SOL     OW20164  11.261  11.771  14.441
 6111SOL    HW120165  11.244  11.690  14.488
 6111SOL    HW220166  11.177  11.816  14.439
 6112SOL     OW20167  10.177   0.385  13.913
 6112SOL    HW120168  10.180   0.464  13.860
 6112SOL    HW220169  10.219   0.410  13.996
 6113SOL     OW20170   7.723  14.762   6.486
 6113SOL    HW120171   7.799  14.750   6.430
 6113SOL    HW220172   7.663  14.815   6.434
 6114SOL     OW20173  13.297   7.599   9.420
 6114SOL    HW120174  13.339   7.594   9.334
 6114SOL    HW220175  13.355   7.549   9.477
 6115SOL     OW20176   6.024  14.320  13.048
 6115SOL    HW120177   6.091  14.257  13.075
 6115SOL    HW220178   5.987  14.351  13.130
 6116SOL     OW20179  11.085   0.197  14.354
 6116SOL    HW120180  11.061   0.248  14.277
 6116SOL    HW220181  11.001   0.164  14.387
 6117SOL     OW20182   8.583   2.754  14.551
 6117SOL    HW120183   8.644   2.690  14.588
 6117SOL    HW220184   8.623   2.839  14.568
 6118SOL     OW20185  14.326  13.313   2.846
 6118SOL    HW120186  14.357  13.222   2.853
 6118SOL    HW220187  14.324  13.331   2.752
 6119SOL     OW20188   3.079   1.511  13.037
 6119SOL    HW120189   3.058   1.478  13.125
 6119SOL    HW220190   3.148   1.452  13.006
 6120SOL     OW20191   7.485  14.852  11.547
 6120SOL    HW120192   7.427   0.053  11.568
 6120SOL    HW220193   7.428  14.776  11.546
 6121SOL     OW20194   5.787   3.363  10.462
 6121SOL    HW120195   5.804   3.274  10.492
 6121SOL    HW220196   5.847   3.418  10.513
 6122SOL     OW20197   6.078  14.553  12.865
 6122SOL    HW120198   6.023  14.631  12.865
 6122SOL    HW220199   6.079  14.523  12.956
 6123SOL     OW20200   0.155   4.352   2.200
 6123SOL    HW120201   0.097   4.289   2.244
 6123SOL    HW220202   0.214   4.382   2.269
 6124SOL     OW20203   3.485  10.226   3.063
 6124SOL    HW120204   3.568  10.237   3.017
 6124SOL    HW220205   3.500  10.150   3.120
 6125SOL     OW20206   5.537  11.764   9.880
 6125SOL    HW120207   5.552  11.752   9.786
 6125SOL    HW220208   5.446  11.736   9.893
 6126SOL     OW20209   0.720   0.369   9.093
 6126SOL    HW120210   0.633   0.384   9.056
 6126SOL    HW220211   0.705   0.308   9.166
 6127SOL     OW20212   2.876   0.640  10.838
 6127SOL    HW120213   2.959   0.673  10.872
 6127SOL    HW220214   2.814   0.711  10.853
 6128SOL     OW20215   7.903   9.141   0.470
 6128SOL    HW120216   7.938   9.225   0.442
 6128SOL    HW220217   7.844   9.114   0.400
 6129SOL     OW20218  12.069   3.259   1.675
 6129SOL    HW120219  12.099   3.169   1.660
 6129SOL    HW220220  12.012   3.277   1.600
 6130SOL     OW20221   9.728   6.149   1.490
 6130SOL    HW120222   9.651   6.106   1.526
 6130SOL    HW220223   9.741   6.108   1.404
 6131SOL     OW20224  12.832   9.971  14.825
 6131SOL    HW120225  12.904  10.033  14.830
 6131SOL    HW220226  12.828   9.932   0.040
 6132SOL     OW20227   8.885   7.619  13.177
 6132SOL    HW120228   8.898   7.565  13.099
 6132SOL    HW220229   8.867   7.707  13.143
 6133SOL     OW20230   9.411  13.361   5.595
 6133SOL    HW120231   9.446  13.272   5.586
 6133SOL    HW220232   9.324  13.348   5.634
 6134SOL     OW20233  11.761  12.310  11.476
 6134SOL    HW120234  11.853  12.331  11.461
 6134SOL    HW220235  11.718  12.395  11.483
 6135SOL     OW20236   3.097  10.386   4.849
 6135SOL    HW120237   3.150  10.351   4.777
 6135SOL    HW220238   3.132  10.344   4.927
 6136SOL     OW20239   4.094   7.021   1.080
 6136SOL    HW120240   4.168   7.061   1.124
 6136SOL    HW220241   4.121   7.014   0.989
 6137SOL     OW20242   1.168  11.721   7.896
 6137SOL    HW120243   1.104  11.653   7.918
 6137SOL    HW220244   1.117  11.791   7.857
 6138SOL     OW20245   1.132   0.229  10.608
 6138SOL    HW120246   1.197   0.159  10.610
 6138SOL    HW220247   1.163   0.290  10.541
 6139SOL     OW20248   0.911   1.611  11.153
 6139SOL    HW120249   0.885   1.549  11.221
 6139SOL    HW220250   1.005   1.596  11.142
 6140SOL     OW20251   1.235   2.713   1.114
 6140SOL    HW120252   1.176   2.771   1.066
 6140SOL    HW220253   1.218   2.733   1.206
 6141SOL     OW20254  13.058   3.206   2.722
 6141SOL    HW120255  13.132   3.187   2.664
 6141SOL    HW220256  13.039   3.123   2.765
 6142SOL     OW20257   5.638   4.921   4.677
 6142SOL    HW120258   5.690   4.907   4.756
 6142SOL    HW220259   5.607   5.012   4.684
 6143SOL     OW20260   9.401  12.106   0.462
 6143SOL    HW120261   9.336  12.098   0.392
 6143SOL    HW220262   9.480  12.137   0.418
 6144SOL     OW20263   5.012   0.301   7.824
 6144SOL    HW120264   4.921   0.288   7.848
 6144SOL    HW220265   5.055   0.333   7.904
 6145SOL     OW20266   9.574  13.197  10.060
 6145SOL    HW120267   9.510  13.194  10.131
 6145SOL    HW220268   9.599  13.106  10.047
 6146SOL     OW20269   8.071   2.789   2.471
 6146SOL    HW120270   8.085   2.867   2.416
 6146SOL    HW220271   8.048   2.824   2.557
 6147SOL     OW20272  11.583   7.061   0.623
 6147SOL    HW120273  11.511   7.088   0.567
 6147SOL    HW220274  11.586   6.965   0.615
 6148SOL     OW20275   4.563   2.988   7.708
 6148SOL    HW120276   4.622   3.028   7.644
 6148SOL    HW220277   4.505   3.059   7.735
 6149SOL     OW20278   9.691   8.460   5.043
 6149SOL    HW120279   9.651   8.433   4.960
 6149SOL    HW220280   9.683   8.555   5.043
 6150SOL     OW20281  12.523   2.917   4.643
 6150SOL    HW120282  12.584   2.989   4.628
 6150SOL    HW220283  12.457   2.954   4.701
 6151SOL     OW20284  11.605  12.254   2.415
 6151SOL    HW120285  11.579  12.271   2.324
 6151SOL    HW220286  11.582  12.335   2.461
 6152SOL     OW20287   0.425  13.359  12.467
 6152SOL    HW120288   0.427  13.274  12.424
 6152SOL    HW220289   0.432  13.422  12.395
 6153SOL     OW20290  12.497   2.057   9.226
 6153SOL    HW120291  12.570   2.088   9.279
 6153SOL    HW220292  12.443   2.134   9.211
 6154SOL     OW20293  10.618   3.087   8.692
 6154SOL    HW120294  10.566   3.141   8.633
 6154SOL    HW220295  10.703   3.078   8.649
 6155SOL     OW20296   5.454   8.570   4.275
 6155SOL    HW120297   5.515   8.531   4.338
 6155SOL    HW220298   5.494   8.654   4.253
 6156SOL     OW20299  13.035   7.051  13.168
 6156SOL    HW120300  13.061   7.144  13.166
 6156SOL    HW220301  12.968   7.046  13.236
 6157SOL     OW20302   6.539   7.704  10.518
 6157SOL    HW120303   6.613   7.704  10.458
 6157SOL    HW220304   6.518   7.796  10.530
 6158SOL     OW20305   6.275  10.292   9.268
 6158SOL    HW120306   6.285  10.290   9.173
 6158SOL    HW220307   6.365  10.285   9.302
 6159SOL     OW20308   8.299   7.425   8.254
 6159SOL    HW120309   8.369   7.383   8.203
 6159SOL    HW220310   8.333   7.428   8.343
 6160SOL     OW20311   3.561   1.186  13.175
 6160SOL    HW120312   3.504   1.109  13.182
 6160SOL    HW220313   3.582   1.209  13.265
 6161SOL     OW20314   7.222   9.656   8.977
 6161SOL    HW120315   7.138   9.641   9.018
 6161SOL    HW220316   7.211   9.624   8.887
 6162SOL     OW20317   4.569   8.858   3.269
 6162SOL    HW120318   4.522   8.899   3.341
 6162SOL    HW220319   4.661   8.863   3.295
 6163SOL     OW20320   7.832   2.756   8.705
 6163SOL    HW120321   7.755   2.702   8.687
 6163SOL    HW220322   7.839   2.756   8.801
 6164SOL     OW20323   4.471   3.172   3.063
 6164SOL    HW120324   4.399   3.235   3.072
 6164SOL    HW220325   4.440   3.110   2.997
 6165SOL     OW20326   5.413  11.906   5.767
 6165SOL    HW120327   5.402  12.001   5.779
 6165SOL    HW220328   5.433  11.873   5.854
 6166SOL     OW20329   6.736   2.571   4.973
 6166SOL    HW120330   6.768   2.578   4.882
 6166SOL    HW220331   6.801   2.619   5.024
 6167SOL     OW20332   4.783   9.269  12.457
 6167SOL    HW120333   4.815   9.231  12.539
 6167SOL    HW220334   4.860   9.311  12.418
 6168SOL     OW20335   3.139  12.663  13.564
 6168SOL    HW120336   3.205  12.716  13.519
 6168SOL    HW220337   3.190  12.596  13.610
 6169SOL     OW20338  10.956  14.376   8.576
 6169SOL    HW120339  10.979  14.452   8.629
 6169SOL    HW220340  10.919  14.314   8.639
 6170SOL     OW20341   9.471   2.780   4.367
 6170SOL    HW120342   9.525   2.859   4.363
 6170SOL    HW220343   9.498   2.736   4.448
 6171SOL     OW20344   4.858   8.169   8.250
 6171SOL    HW120345   4.790   8.212   8.301
 6171SOL    HW220346   4.924   8.237   8.234
 6172SOL     OW20347   3.732  13.213   7.636
 6172SOL    HW120348   3.657  13.254   7.592
 6172SOL    HW220349   3.748  13.268   7.712
 6173SOL     OW20350  10.824   5.801   4.710
 6173SOL    HW120351  10.814   5.775   4.802
 6173SOL    HW220352  10.742   5.775   4.668
 6174SOL     OW20353   4.675  10.081   4.232
 6174SOL    HW120354   4.658  10.174   4.247
 6174SOL    HW220355   4.739  10.058   4.299
 6175SOL     OW20356  10.800  12.448   0.626
 6175SOL    HW120357  10.781  12.512   0.694
 6175SOL    HW220358  10.785  12.494   0.544
 6176SOL     OW20359   7.782   7.846  10.425
 6176SOL    HW120360   7.709   7.888  10.379
 6176SOL    HW220361   7.858   7.863  10.369
 6177SOL     OW20362  10.636   9.894   2.803
 6177SOL    HW120363  10.643   9.920   2.711
 6177SOL    HW220364  10.545   9.912   2.826
 6178SOL     OW20365   3.072   5.298   7.212
 6178SOL    HW120366   3.056   5.370   7.151
 6178SOL    HW220367   3.167   5.295   7.221
 6179SOL     OW20368  13.859  12.875  11.825
 6179SOL    HW120369  13.938  12.926  11.843
 6179SOL    HW220370  13.800  12.897  11.897
 6180SOL     OW20371   1.784   1.387  12.655
 6180SOL    HW120372   1.765   1.293  12.657
 6180SOL    HW220373   1.723   1.423  12.591
 6181SOL     OW20374   4.744   4.714   9.088
 6181SOL    HW120375   4.709   4.801   9.069
 6181SOL    HW220376   4.700   4.656   9.026
 6182SOL     OW20377   7.004   2.445   3.294
 6182SOL    HW120378   7.023   2.351   3.294
 6182SOL    HW220379   6.946   2.458   3.369
 6183SOL     OW20380   4.877   5.684   1.478
 6183SOL    HW120381   4.955   5.631   1.497
 6183SOL    HW220382   4.913   5.771   1.458
 6184SOL     OW20383   7.363   7.426   5.926
 6184SOL    HW120384   7.391   7.368   5.997
 6184SOL    HW220385   7.271   7.445   5.945
 6185SOL     OW20386   4.057  12.328  13.978
 6185SOL    HW120387   3.979  12.302  13.929
 6185SOL    HW220388   4.129  12.318  13.916
 6186SOL     OW20389   6.201   1.357  11.905
 6186SOL    HW120390   6.134   1.425  11.893
 6186SOL    HW220391   6.252   1.387  11.981
 6187SOL     OW20392   3.982  11.453   8.502
 6187SOL    HW120393   3.925  11.519   8.463
 6187SOL    HW220394   3.964  11.374   8.452
 6188SOL     OW20395  13.560  13.578   6.566
 6188SOL    HW120396  13.630  13.604   6.626
 6188SOL    HW220397  13.497  13.649   6.570
 6189SOL     OW20398   8.593   6.108   6.270
 6189SOL    HW120399   8.678   6.092   6.229
 6189SOL    HW220400   8.534   6.127   6.197
 6190SOL     OW20401   5.934  10.835  10.205
 6190SOL    HW120402   5.993  10.906  10.229
 6190SOL    HW220403   5.905  10.798  10.289
 6191SOL     OW20404   3.255  13.661  12.099
 6191SOL    HW120405   3.332  13.709  12.066
 6191SOL    HW220406   3.183  13.695  12.046
 6192SOL     OW20407  13.377   7.880   9.080
 6192SOL    HW120408  13.388   7.879   8.985
 6192SOL    HW220409  13.297   7.930   9.094
 6193SOL     OW20410  11.229   7.570  12.034
 6193SOL    HW120411  11.215   7.573  11.939
 6193SOL    HW220412  11.164   7.507  12.066
 6194SOL     OW20413   6.621  10.411  14.265
 6194SOL    HW120414   6.539  10.363  14.256
 6194SOL    HW220415   6.679  10.372  14.200
 6195SOL     OW20416   7.063   5.307   4.013
 6195SOL    HW120417   7.122   5.240   4.046
 6195SOL    HW220418   6.999   5.320   4.083
 6196SOL     OW20419  13.405  10.138   2.215
 6196SOL    HW120420  13.495  10.122   2.186
 6196SOL    HW220421  13.362  10.053   2.209
 6197SOL     OW20422   6.813   4.105  11.609
 6197SOL    HW120423   6.793   4.018  11.641
 6197SOL    HW220424   6.826   4.158  11.688
 6198SOL     OW20425   4.886  10.650   3.329
 6198SOL    HW120426   4.940  10.707   3.383
 6198SOL    HW220427   4.838  10.595   3.392
 6199SOL     OW20428   5.974  10.413  12.342
 6199SOL    HW120429   5.957  10.322  12.367
 6199SOL    HW220430   6.009  10.453  12.422
 6200SOL     OW20431   8.067   6.077   4.463
 6200SOL    HW120432   7.975   6.098   4.480
 6200SOL    HW220433   8.098   6.150   4.409
 6201SOL     OW20434   2.707   5.899   1.101
 6201SOL    HW120435   2.614   5.901   1.080
 6201SOL    HW220436   2.715   5.956   1.178
 6202SOL     OW20437   6.612   6.277   8.172
 6202SOL    HW120438   6.677   6.336   8.209
 6202SOL    HW220439   6.544   6.271   8.239
 6203SOL     OW20440   8.484   8.780  11.438
 6203SOL    HW120441   8.475   8.743  11.350
 6203SOL    HW220442   8.426   8.725  11.492
 6204SOL     OW20443   4.658   4.110  10.023
 6204SOL    HW120444   4.616   4.105   9.937
 6204SOL    HW220445   4.732   4.050  10.018
 6205SOL     OW20446   0.235   3.246   6.217
 6205SOL    HW120447   0.178   3.322   6.205
 6205SOL    HW220448   0.203   3.182   6.154
 6206SOL     OW20449   6.397   7.783  13.267
 6206SOL    HW120450   6.452   7.855  13.297
 6206SOL    HW220451   6.442   7.750  13.189
 6207SOL     OW20452   8.366   7.923  13.024
 6207SOL    HW120453   8.344   7.867  12.950
 6207SOL    HW220454   8.428   7.987  12.988
 6208SOL     OW20455   1.389   7.234   3.413
 6208SOL    HW120456   1.392   7.242   3.508
 6208SOL    HW220457   1.458   7.172   3.392
 6209SOL     OW20458   6.899   0.111   8.576
 6209SOL    HW120459   6.820   0.105   8.629
 6209SOL    HW220460   6.969   0.082   8.635
 6210SOL     OW20461  11.865  11.378   7.300
 6210SOL    HW120462  11.835  11.467   7.321
 6210SOL    HW220463  11.945  11.392   7.249
 6211SOL     OW20464   1.330   2.789  12.258
 6211SOL    HW120465   1.273   2.720  12.294
 6211SOL    HW220466   1.269   2.857  12.230
 6212SOL     OW20467   7.128   8.887   0.374
 6212SOL    HW120468   7.056   8.899   0.313
 6212SOL    HW220469   7.086   8.882   0.460
 6213SOL     OW20470   6.482  14.152   0.212
 6213SOL    HW120471   6.439  14.236   0.194
 6213SOL    HW220472   6.511  14.121   0.126
 6214SOL     OW20473   0.561   3.504  14.150
 6214SOL    HW120474   0.651   3.470  14.152
 6214SOL    HW220475   0.527   3.489  14.238
 6215SOL     OW20476   7.658  12.433   6.271
 6215SOL    HW120477   7.566  12.457   6.279
 6215SOL    HW220478   7.657  12.345   6.232
 6216SOL     OW20479   4.320   8.626  11.721
 6216SOL    HW120480   4.361   8.614  11.807
 6216SOL    HW220481   4.332   8.541  11.677
 6217SOL     OW20482  12.969   7.539  12.073
 6217SOL    HW120483  12.902   7.485  12.031
 6217SOL    HW220484  13.048   7.485  12.070
 6218SOL     OW20485  14.568  11.007   7.678
 6218SOL    HW120486  14.572  11.060   7.758
 6218SOL    HW220487  14.659  10.985   7.659
 6219SOL     OW20488   1.491  14.360   0.171
 6219SOL    HW120489   1.544  14.300   0.118
 6219SOL    HW220490   1.428  14.398   0.109
 6220SOL     OW20491   7.742   7.856   8.946
 6220SOL    HW120492   7.835   7.880   8.942
 6220SOL    HW220493   7.699   7.936   8.978
 6221SOL     OW20494  14.065   6.347   6.618
 6221SOL    HW120495  14.013   6.282   6.572
 6221SOL    HW220496  14.004   6.420   6.633
 6222SOL     OW20497   0.924  10.775   1.669
 6222SOL    HW120498   0.873  10.799   1.592
 6222SOL    HW220499   0.926  10.679   1.668
 6223SOL     OW20500   7.281  10.834   2.046
 6223SOL    HW120501   7.248  10.767   1.987
 6223SOL    HW220502   7.204  10.861   2.097
 6224SOL     OW20503  13.965  11.875  12.248
 6224SOL    HW120504  13.922  11.793  12.222
 6224SOL    HW220505  13.945  11.936  12.177
 6225SOL     OW20506   2.549   1.585   0.452
 6225SOL    HW120507   2.523   1.674   0.427
 6225SOL    HW220508   2.467   1.536   0.454
 6226SOL     OW20509   0.963   0.213   5.806
 6226SOL    HW120510   0.940   0.154   5.734
 6226SOL    HW220511   0.879   0.244   5.840
 6227SOL     OW20512  13.075   8.622  11.195
 6227SOL    HW120513  13.169   8.614  11.179
 6227SOL    HW220514  13.041   8.661  11.115
 6228SOL     OW20515   8.002   9.621   0.805
 6228SOL    HW120516   8.002   9.642   0.711
 6228SOL    HW220517   7.910   9.610   0.827
 6229SOL     OW20518   7.369  10.811   0.005
 6229SOL    HW120519   7.374  10.850  14.790
 6229SOL    HW220520   7.436  10.742   0.004
 6230SOL     OW20521   8.332   6.695   4.951
 6230SOL    HW120522   8.416   6.651   4.951
 6230SOL    HW220523   8.268   6.625   4.940
 6231SOL     OW20524   2.766  14.827  14.320
 6231SOL    HW120525   2.690   0.012  14.306
 6231SOL    HW220526   2.737  14.741  14.290
 6232SOL     OW20527  11.963  10.540  13.642
 6232SOL    HW120528  11.907  10.616  13.627
 6232SOL    HW220529  11.938  10.477  13.574
 6233SOL     OW20530   9.453   7.716   0.168
 6233SOL    HW120531   9.492   7.794   0.207
 6233SOL    HW220532   9.528   7.668   0.131
 6234SOL     OW20533   6.422   2.857   4.728
 6234SOL    HW120534   6.474   2.794   4.777
 6234SOL    HW220535   6.385   2.807   4.655
 6235SOL     OW20536   9.281   4.823  10.009
 6235SOL    HW120537   9.269   4.763   9.935
 6235SOL    HW220538   9.254   4.908   9.975
 6236SOL     OW20539  12.342   4.399   3.943
 6236SOL    HW120540  12.383   4.423   3.860
 6236SOL    HW220541  12.372   4.309   3.959
 6237SOL     OW20542   6.769   6.767   9.332
 6237SOL    HW120543   6.780   6.816   9.414
 6237SOL    HW220544   6.700   6.703   9.352
 6238SOL     OW20545  13.513  11.743   3.097
 6238SOL    HW120546  13.513  11.691   3.016
 6238SOL    HW220547  13.570  11.817   3.077
 6239SOL     OW20548  14.225   2.793   3.744
 6239SOL    HW120549  14.242   2.884   3.771
 6239SOL    HW220550  14.261   2.788   3.655
 6240SOL     OW20551   7.531  12.627   4.937
 6240SOL    HW120552   7.566  12.557   4.882
 6240SOL    HW220553   7.606  12.660   4.986
 6241SOL     OW20554   1.130   9.398   6.075
 6241SOL    HW120555   1.196   9.422   6.140
 6241SOL    HW220556   1.143   9.305   6.060
 6242SOL     OW20557   6.792  14.396  11.623
 6242SOL    HW120558   6.798  14.487  11.593
 6242SOL    HW220559   6.786  14.403  11.718
 6243SOL     OW20560   0.531   5.171   4.944
 6243SOL    HW120561   0.573   5.152   5.028
 6243SOL    HW220562   0.534   5.088   4.896
 6244SOL     OW20563   9.103  10.000   1.584
 6244SOL    HW120564   9.158   9.931   1.546
 6244SOL    HW220565   9.050  10.031   1.511
 6245SOL     OW20566  12.554  11.685   8.932
 6245SOL    HW120567  12.464  11.684   8.965
 6245SOL    HW220568  12.594  11.607   8.970
 6246SOL     OW20569  14.598   4.284   3.485
 6246SOL    HW120570  14.596   4.270   3.391
 6246SOL    HW220571  14.510   4.260   3.515
 6247SOL     OW20572   4.799   1.806  10.445
 6247SOL    HW120573   4.736   1.855  10.393
 6247SOL    HW220574   4.816   1.861  10.521
 6248SOL     OW20575   4.278  13.536  12.943
 6248SOL    HW120576   4.268  13.586  13.024
 6248SOL    HW220577   4.273  13.601  12.873
 6249SOL     OW20578  14.214  13.865   2.598
 6249SOL    HW120579  14.209  13.952   2.558
 6249SOL    HW220580  14.126  13.829   2.586
 6250SOL     OW20581   6.505   3.572   2.998
 6250SOL    HW120582   6.571   3.622   3.046
 6250SOL    HW220583   6.494   3.620   2.916
 6251SOL     OW20584  10.364  13.508  13.732
 6251SOL    HW120585  10.380  13.420  13.766
 6251SOL    HW220586  10.412  13.566  13.792
 6252SOL     OW20587  11.297  11.908  11.278
 6252SOL    HW120588  11.334  11.835  11.328
 6252SOL    HW220589  11.229  11.944  11.334
 6253SOL     OW20590  10.018  13.754   6.061
 6253SOL    HW120591   9.980  13.769   5.975
 6253SOL    HW220592  10.018  13.659   6.071
 6254SOL     OW20593   5.375   8.597   9.963
 6254SOL    HW120594   5.392   8.538   9.889
 6254SOL    HW220595   5.452   8.588  10.020
 6255SOL     OW20596  11.058  13.584  11.404
 6255SOL    HW120597  11.037  13.568  11.312
 6255SOL    HW220598  11.120  13.657  11.402
 6256SOL     OW20599  11.343   0.766  11.116
 6256SOL    HW120600  11.359   0.777  11.022
 6256SOL    HW220601  11.380   0.845  11.156
 6257SOL     OW20602   6.811  13.821   0.707
 6257SOL    HW120603   6.866  13.757   0.752
 6257SOL    HW220604   6.828  13.805   0.614
 6258SOL     OW20605  10.406   9.126   6.511
 6258SOL    HW120606  10.397   9.174   6.593
 6258SOL    HW220607  10.472   9.059   6.530
 6259SOL     OW20608   1.309   5.317   7.364
 6259SOL    HW120609   1.240   5.278   7.310
 6259SOL    HW220610   1.334   5.248   7.425
 6260SOL     OW20611  10.329   0.641  13.423
 6260SOL    HW120612  10.373   0.698  13.486
 6260SOL    HW220613  10.342   0.553  13.457
 6261SOL     OW20614   8.288   2.279   5.807
 6261SOL    HW120615   8.197   2.309   5.808
 6261SOL    HW220616   8.324   2.312   5.725
 6262SOL     OW20617  13.928   5.126   6.013
 6262SOL    HW120618  13.841   5.160   5.995
 6262SOL    HW220619  13.988   5.197   5.988
 6263SOL     OW20620  11.124   8.726   8.602
 6263SOL    HW120621  11.126   8.690   8.513
 6263SOL    HW220622  11.033   8.755   8.613
 6264SOL     OW20623   2.583  13.776   4.913
 6264SOL    HW120624   2.602  13.821   4.996
 6264SOL    HW220625   2.613  13.687   4.927
 6265SOL     OW20626  13.876   7.295   1.546
 6265SOL    HW120627  13.854   7.388   1.541
 6265SOL    HW220628  13.935   7.288   1.621
 6266SOL     OW20629   2.321   5.392  11.390
 6266SOL    HW120630   2.382   5.449  11.437
 6266SOL    HW220631   2.235   5.417  11.422
 6267SOL     OW20632  10.869  13.501   2.553
 6267SOL    HW120633  10.901  13.591   2.553
 6267SOL    HW220634  10.932  13.452   2.606
 6268SOL     OW20635  12.306   2.157   6.900
 6268SOL    HW120636  12.232   2.105   6.931
 6268SOL    HW220637  12.274   2.201   6.822
 6269SOL     OW20638  11.846   8.167   7.252
 6269SOL    HW120639  11.755   8.150   7.274
 6269SOL    HW220640  11.844   8.245   7.196
 6270SOL     OW20641  10.295  13.019   5.551
 6270SOL    HW120642  10.263  13.074   5.622
 6270SOL    HW220643  10.331  12.942   5.595
 6271SOL     OW20644   8.521  10.893  12.055
 6271SOL    HW120645   8.469  10.899  12.135
 6271SOL    HW220646   8.601  10.942  12.074
 6272SOL     OW20647   7.416   7.063  13.442
 6272SOL    HW120648   7.415   6.982  13.392
 6272SOL    HW220649   7.454   7.038  13.527
 6273SOL     OW20650   5.112   3.801  10.595
 6273SOL    HW120651   5.143   3.723  10.549
 6273SOL    HW220652   5.128   3.873  10.534
 6274SOL     OW20653  12.050   7.793   7.768
 6274SOL    HW120654  12.133   7.767   7.728
 6274SOL    HW220655  12.022   7.716   7.819
 6275SOL     OW20656   7.460   6.082  13.004
 6275SOL    HW120657   7.519   6.158  13.001
 6275SOL    HW220658   7.372   6.121  13.007
 6276SOL     OW20659  10.609  10.678   5.826
 6276SOL    HW120660  10.684  10.632   5.863
 6276SOL    HW220661  10.647  10.736   5.761
 6277SOL     OW20662  11.672   8.629   9.191
 6277SOL    HW120663  11.640   8.539   9.200
 6277SOL    HW220664  11.594   8.683   9.194
 6278SOL     OW20665   2.429  13.812   5.878
 6278SOL    HW120666   2.496  13.806   5.945
 6278SOL    HW220667   2.412  13.722   5.852
 6279SOL     OW20668   0.896   7.651   8.580
 6279SOL    HW120669   0.947   7.729   8.602
 6279SOL    HW220670   0.806   7.676   8.599
 6280SOL     OW20671   6.005  14.020   5.598
 6280SOL    HW120672   6.086  14.029   5.647
 6280SOL    HW220673   5.980  13.928   5.609
 6281SOL     OW20674  13.101   0.912   6.427
 6281SOL    HW120675  13.095   0.830   6.476
 6281SOL    HW220676  13.145   0.889   6.346
 6282SOL     OW20677   8.807   5.142   9.566
 6282SOL    HW120678   8.873   5.168   9.502
 6282SOL    HW220679   8.765   5.223   9.592
 6283SOL     OW20680  13.661   9.641   3.086
 6283SOL    HW120681  13.750   9.636   3.052
 6283SOL    HW220682  13.670   9.627   3.180
 6284SOL     OW20683   1.788   6.416   2.469
 6284SOL    HW120684   1.723   6.346   2.479
 6284SOL    HW220685   1.867   6.381   2.509
 6285SOL     OW20686  12.926  10.416  10.447
 6285SOL    HW120687  12.836  10.383  10.453
 6285SOL    HW220688  12.945  10.417  10.354
 6286SOL     OW20689  12.008   0.438   0.567
 6286SOL    HW120690  12.034   0.364   0.513
 6286SOL    HW220691  11.943   0.402   0.628
 6287SOL     OW20692   2.786  10.274   8.270
 6287SOL    HW120693   2.844  10.291   8.196
 6287SOL    HW220694   2.707  10.238   8.230
 6288SOL     OW20695  12.364   9.814   3.701
 6288SOL    HW120696  12.350   9.877   3.771
 6288SOL    HW220697  12.312   9.847   3.627
 6289SOL     OW20698   3.347   0.707   5.002
 6289SOL    HW120699   3.253   0.706   5.018
 6289SOL    HW220700   3.370   0.615   4.986
 6290SOL     OW20701  13.131   7.134  10.008
 6290SOL    HW120702  13.094   7.073   9.945
 6290SOL    HW220703  13.069   7.207  10.012
 6291SOL     OW20704  12.364   9.749   1.039
 6291SOL    HW120705  12.317   9.718   1.116
 6291SOL    HW220706  12.301   9.738   0.967
 6292SOL     OW20707   4.880   1.451  11.667
 6292SOL    HW120708   4.804   1.508  11.656
 6292SOL    HW220709   4.955   1.508  11.652
 6293SOL     OW20710   4.306   7.099   1.982
 6293SOL    HW120711   4.285   7.025   1.925
 6293SOL    HW220712   4.379   7.143   1.939
 6294SOL     OW20713   6.913   6.522  14.501
 6294SOL    HW120714   6.964   6.442  14.486
 6294SOL    HW220715   6.947   6.556  14.584
 6295SOL     OW20716   8.816   5.543  12.325
 6295SOL    HW120717   8.725   5.563  12.301
 6295SOL    HW220718   8.868   5.584  12.256
 6296SOL     OW20719   0.574   8.555   8.427
 6296SOL    HW120720   0.553   8.477   8.479
 6296SOL    HW220721   0.664   8.576   8.450
 6297SOL     OW20722   4.901   6.592   7.175
 6297SOL    HW120723   4.939   6.530   7.237
 6297SOL    HW220724   4.813   6.608   7.207
 6298SOL     OW20725  10.589  11.717   7.849
 6298SOL    HW120726  10.632  11.660   7.912
 6298SOL    HW220727  10.599  11.805   7.885
 6299SOL     OW20728  11.389  13.228  12.294
 6299SOL    HW120729  11.427  13.159  12.240
 6299SOL    HW220730  11.432  13.219  12.379
 6300SOL     OW20731  12.348   2.601   0.803
 6300SOL    HW120732  12.432   2.567   0.771
 6300SOL    HW220733  12.293   2.606   0.725
 6301SOL     OW20734   3.880   6.981   5.665
 6301SOL    HW120735   3.906   6.889   5.670
 6301SOL    HW220736   3.827   6.986   5.585
 6302SOL     OW20737   7.805   2.176   7.721
 6302SOL    HW120738   7.762   2.253   7.759
 6302SOL    HW220739   7.807   2.112   7.792
 6303SOL     OW20740   9.935   8.233   4.965
 6303SOL    HW120741   9.985   8.310   4.937
 6303SOL    HW220742   9.871   8.219   4.896
 6304SOL     OW20743   9.962   3.347   0.801
 6304SOL    HW120744   9.998   3.393   0.725
 6304SOL    HW220745   9.981   3.405   0.875
 6305SOL     OW20746   3.962   3.272   8.536
 6305SOL    HW120747   3.961   3.365   8.561
 6305SOL    HW220748   3.888   3.262   8.477
 6306SOL     OW20749   4.715   4.265   1.728
 6306SOL    HW120750   4.732   4.272   1.822
 6306SOL    HW220751   4.651   4.195   1.720
 6307SOL     OW20752  11.834  14.065   3.032
 6307SOL    HW120753  11.805  13.996   2.973
 6307SOL    HW220754  11.927  14.074   3.014
 6308SOL     OW20755  13.245  12.602   1.061
 6308SOL    HW120756  13.180  12.617   1.129
 6308SOL    HW220757  13.197  12.558   0.991
 6309SOL     OW20758  12.903   2.324   6.022
 6309SOL    HW120759  12.841   2.290   5.957
 6309SOL    HW220760  12.983   2.275   6.005
 6310SOL     OW20761  11.114   8.072  11.502
 6310SOL    HW120762  11.203   8.087  11.472
 6310SOL    HW220763  11.124   8.032  11.588
 6311SOL     OW20764   1.371  14.466  11.824
 6311SOL    HW120765   1.445  14.409  11.846
 6311SOL    HW220766   1.385  14.490  11.732
 6312SOL     OW20767   3.775   3.300   2.492
 6312SOL    HW120768   3.805   3.375   2.440
 6312SOL    HW220769   3.709   3.258   2.437
 6313SOL     OW20770   4.653  12.933   0.090
 6313SOL    HW120771   4.732  12.879   0.085
 6313SOL    HW220772   4.613  12.925   0.004
 6314SOL     OW20773   8.378   7.989   4.184
 6314SOL    HW120774   8.317   8.035   4.242
 6314SOL    HW220775   8.362   8.028   4.098
 6315SOL     OW20776   9.350   6.855   7.074
 6315SOL    HW120777   9.303   6.866   6.991
 6315SOL    HW220778   9.392   6.940   7.089
 6316SOL     OW20779  12.070   2.493   8.815
 6316SOL    HW120780  12.157   2.523   8.791
 6316SOL    HW220781  12.010   2.558   8.777
 6317SOL     OW20782   6.326   1.624   4.008
 6317SOL    HW120783   6.245   1.614   4.058
 6317SOL    HW220784   6.323   1.555   3.942
 6318SOL     OW20785   9.290  10.664   9.015
 6318SOL    HW120786   9.264  10.594   8.954
 6318SOL    HW220787   9.369  10.701   8.977
 6319SOL     OW20788   6.274   3.498   9.636
 6319SOL    HW120789   6.193   3.490   9.686
 6319SOL    HW220790   6.252   3.556   9.563
 6320SOL     OW20791   3.917   8.429  14.507
 6320SOL    HW120792   3.884   8.340  14.495
 6320SOL    HW220793   3.976   8.422  14.582
 6321SOL     OW20794  14.399   2.409   7.934
 6321SOL    HW120795  14.391   2.336   7.996
 6321SOL    HW220796  14.312   2.417   7.895
 6322SOL     OW20797   9.156   7.188  12.648
 6322SOL    HW120798   9.102   7.108  12.651
 6322SOL    HW220799   9.169   7.205  12.555
 6323SOL     OW20800   1.314  13.405   5.155
 6323SOL    HW120801   1.236  13.422   5.101
 6323SOL    HW220802   1.287  13.429   5.244
 6324SOL     OW20803   5.448  14.354  12.563
 6324SOL    HW120804   5.427  14.314  12.648
 6324SOL    HW220805   5.371  14.338  12.509
 6325SOL     OW20806   0.153   4.619   9.182
 6325SOL    HW120807   0.171   4.588   9.093
 6325SOL    HW220808   0.061   4.596   9.196
 6326SOL     OW20809  14.118   7.779  10.521
 6326SOL    HW120810  14.164   7.788  10.437
 6326SOL    HW220811  14.177   7.820  10.585
 6327SOL     OW20812  11.463   0.688  11.539
 6327SOL    HW120813  11.501   0.632  11.607
 6327SOL    HW220814  11.508   0.771  11.548
 6328SOL     OW20815  14.529   4.671  13.268
 6328SOL    HW120816  14.496   4.584  13.244
 6328SOL    HW220817  14.470   4.701  13.337
 6329SOL     OW20818  14.797   3.398   8.880
 6329SOL    HW120819  14.741   3.381   8.805
 6329SOL    HW220820  14.865   3.330   8.875
 6330SOL     OW20821  13.072  10.933   7.439
 6330SOL    HW120822  13.088  10.908   7.349
 6330SOL    HW220823  12.981  10.908   7.455
 6331SOL     OW20824   3.140   3.371  13.670
 6331SOL    HW120825   3.110   3.328  13.750
 6331SOL    HW220826   3.233   3.347  13.664
 6332SOL     OW20827  13.185   3.996   3.440
 6332SOL    HW120828  13.207   4.040   3.358
 6332SOL    HW220829  13.165   3.906   3.415
 6333SOL     OW20830  14.664   6.128   9.544
 6333SOL    HW120831  14.660   6.210   9.494
 6333SOL    HW220832  14.720   6.149   9.619
 6334SOL     OW20833   7.827   0.117  12.776
 6334SOL    HW120834   7.859   0.027  12.780
 6334SOL    HW220835   7.738   0.112  12.812
 6335SOL     OW20836   2.335  14.689   5.608
 6335SOL    HW120837   2.274  14.762   5.605
 6335SOL    HW220838   2.363  14.677   5.517
 6336SOL     OW20839   1.588  10.676   1.828
 6336SOL    HW120840   1.660  10.709   1.774
 6336SOL    HW220841   1.526  10.639   1.766
 6337SOL     OW20842   5.190   9.996   6.145
 6337SOL    HW120843   5.244  10.075   6.144
 6337SOL    HW220844   5.247   9.929   6.182
 6338SOL     OW20845   8.860   5.074  10.917
 6338SOL    HW120846   8.791   5.020  10.878
 6338SOL    HW220847   8.928   5.012  10.942
 6339SOL     OW20848   3.040   2.747   0.024
 6339SOL    HW120849   3.010   2.835   0.050
 6339SOL    HW220850   3.100   2.763  14.823
 6340SOL     OW20851   9.959   6.423   0.259
 6340SOL    HW120852   9.868   6.430   0.230
 6340SOL    HW220853   9.998   6.360   0.199
 6341SOL     OW20854   9.892  11.884   2.746
 6341SOL    HW120855   9.881  11.968   2.701
 6341SOL    HW220856   9.850  11.895   2.831
 6342SOL     OW20857   4.295   5.013   7.686
 6342SOL    HW120858   4.289   4.924   7.653
 6342SOL    HW220859   4.362   5.010   7.754
 6343SOL     OW20860   8.691   2.003   9.664
 6343SOL    HW120861   8.658   2.082   9.621
 6343SOL    HW220862   8.778   1.990   9.628
 6344SOL     OW20863   9.951   6.901   7.509
 6344SOL    HW120864   9.952   6.833   7.441
 6344SOL    HW220865   9.886   6.964   7.480
 6345SOL     OW20866   4.766   3.482   8.471
 6345SOL    HW120867   4.675   3.451   8.472
 6345SOL    HW220868   4.816   3.410   8.434
 6346SOL     OW20869   8.391   7.658   6.351
 6346SOL    HW120870   8.466   7.675   6.295
 6346SOL    HW220871   8.427   7.610   6.426
 6347SOL     OW20872   1.280   3.292  13.748
 6347SOL    HW120873   1.356   3.286  13.806
 6347SOL    HW220874   1.267   3.385  13.733
 6348SOL     OW20875  11.208  13.815  11.627
 6348SOL    HW120876  11.283  13.771  11.587
 6348SOL    HW220877  11.199  13.773  11.713
 6349SOL     OW20878  14.076   9.564   9.596
 6349SOL    HW120879  14.127   9.506   9.653
 6349SOL    HW220880  13.986   9.552   9.624
 6350SOL     OW20881   6.898   5.972   6.161
 6350SOL    HW120882   6.956   5.981   6.237
 6350SOL    HW220883   6.926   5.891   6.119
 6351SOL     OW20884   4.789   6.849  12.832
 6351SOL    HW120885   4.750   6.799  12.760
 6351SOL    HW220886   4.718   6.905  12.863
 6352SOL     OW20887   9.934   4.570  13.852
 6352SOL    HW120888  10.021   4.542  13.824
 6352SOL    HW220889   9.875   4.540  13.783
 6353SOL     OW20890   6.193  13.637   2.535
 6353SOL    HW120891   6.274  13.599   2.500
 6353SOL    HW220892   6.181  13.593   2.619
 6354SOL     OW20893  14.163   4.828  11.450
 6354SOL    HW120894  14.183   4.819  11.543
 6354SOL    HW220895  14.070   4.810  11.443
 6355SOL     OW20896   8.226  12.873   5.267
 6355SOL    HW120897   8.190  12.818   5.335
 6355SOL    HW220898   8.308  12.831   5.242
 6356SOL     OW20899   5.442  11.644   0.275
 6356SOL    HW120900   5.424  11.551   0.286
 6356SOL    HW220901   5.411  11.684   0.356
 6357SOL     OW20902  12.573   0.612   1.715
 6357SOL    HW120903  12.577   0.689   1.658
 6357SOL    HW220904  12.486   0.575   1.699
 6358SOL     OW20905   3.945   9.846  10.380
 6358SOL    HW120906   3.892   9.910  10.427
 6358SOL    HW220907   4.033   9.856  10.416
 6359SOL     OW20908   2.482   8.867   2.473
 6359SOL    HW120909   2.472   8.809   2.548
 6359SOL    HW220910   2.568   8.907   2.486
 6360SOL     OW20911   7.839  12.884  10.873
 6360SOL    HW120912   7.848  12.904  10.966
 6360SOL    HW220913   7.843  12.969  10.829
 6361SOL     OW20914   3.659  10.957  10.031
 6361SOL    HW120915   3.616  10.916   9.956
 6361SOL    HW220916   3.749  10.973  10.001
 6362SOL     OW20917   9.719  11.095  14.442
 6362SOL    HW120918   9.670  11.090  14.361
 6362SOL    HW220919   9.811  11.097  14.415
 6363SOL     OW20920  10.977  10.802   5.116
 6363SOL    HW120921  11.025  10.804   5.198
 6363SOL    HW220922  11.037  10.838   5.051
 6364SOL     OW20923   3.809   8.672   2.305
 6364SOL    HW120924   3.812   8.654   2.211
 6364SOL    HW220925   3.790   8.587   2.345
 6365SOL     OW20926  14.660   8.903   1.029
 6365SOL    HW120927  14.617   8.989   1.020
 6365SOL    HW220928  14.645   8.860   0.945
 6366SOL     OW20929   8.128   7.136   8.568
 6366SOL    HW120930   8.077   7.215   8.587
 6366SOL    HW220931   8.215   7.155   8.603
 6367SOL     OW20932  10.979   9.738   6.071
 6367SOL    HW120933  10.896   9.779   6.096
 6367SOL    HW220934  10.958   9.645   6.063
 6368SOL     OW20935   9.754   3.240   4.406
 6368SOL    HW120936   9.744   3.280   4.492
 6368SOL    HW220937   9.836   3.191   4.412
 6369SOL     OW20938   8.015  14.308   3.072
 6369SOL    HW120939   8.005  14.214   3.064
 6369SOL    HW220940   8.096  14.320   3.122
 6370SOL     OW20941   0.480   9.827   9.564
 6370SOL    HW120942   0.535   9.902   9.590
 6370SOL    HW220943   0.454   9.787   9.647
 6371SOL     OW20944  13.943   3.140  13.347
 6371SOL    HW120945  13.922   3.176  13.434
 6371SOL    HW220946  13.944   3.216  13.289
 6372SOL     OW20947  13.876   1.082   8.012
 6372SOL    HW120948  13.793   1.034   8.012
 6372SOL    HW220949  13.938   1.023   8.056
 6373SOL     OW20950  12.526  11.962   9.300
 6373SOL    HW120951  12.585  12.026   9.343
 6373SOL    HW220952  12.471  11.930   9.371
 6374SOL     OW20953  13.263   8.672   6.909
 6374SOL    HW120954  13.215   8.715   6.838
 6374SOL    HW220955  13.280   8.742   6.972
 6375SOL     OW20956   8.159   0.548   0.847
 6375SOL    HW120957   8.130   0.579   0.761
 6375SOL    HW220958   8.157   0.452   0.839
 6376SOL     OW20959  12.955  11.036   8.258
 6376SOL    HW120960  12.996  11.096   8.320
 6376SOL    HW220961  13.027  11.009   8.200
 6377SOL     OW20962   8.511  13.195   4.078
 6377SOL    HW120963   8.602  13.180   4.052
 6377SOL    HW220964   8.464  13.120   4.044
 6378SOL     OW20965   0.443   8.385   5.174
 6378SOL    HW120966   0.469   8.378   5.266
 6378SOL    HW220967   0.402   8.471   5.167
 6379SOL     OW20968   1.070   8.291   7.239
 6379SOL    HW120969   1.157   8.251   7.234
 6379SOL    HW220970   1.084   8.374   7.284
 6380SOL     OW20971  14.532   7.078   8.601
 6380SOL    HW120972  14.442   7.098   8.626
 6380SOL    HW220973  14.529   7.066   8.506
 6381SOL     OW20974  14.217   5.937   9.039
 6381SOL    HW120975  14.148   6.003   9.048
 6381SOL    HW220976  14.180   5.858   9.078
 6382SOL     OW20977   1.517  12.334   2.834
 6382SOL    HW120978   1.448  12.386   2.874
 6382SOL    HW220979   1.582  12.398   2.805
 6383SOL     OW20980   5.526  12.235   1.210
 6383SOL    HW120981   5.471  12.261   1.136
 6383SOL    HW220982   5.482  12.273   1.286
 6384SOL     OW20983  11.969   5.329   1.635
 6384SOL    HW120984  12.033   5.262   1.611
 6384SOL    HW220985  12.022   5.401   1.670
 6385SOL     OW20986   6.353   1.414   4.254
 6385SOL    HW120987   6.286   1.465   4.207
 6385SOL    HW220988   6.310   1.331   4.272
 6386SOL     OW20989  13.056   1.177   9.106
 6386SOL    HW120990  13.071   1.082   9.101
 6386SOL    HW220991  13.046   1.204   9.015
 6387SOL     OW20992   0.513   2.633   3.488
 6387SOL    HW120993   0.541   2.541   3.491
 6387SOL    HW220994   0.578   2.679   3.542
 6388SOL     OW20995   0.797   5.870   9.926
 6388SOL    HW120996   0.749   5.866  10.008
 6388SOL    HW220997   0.873   5.813   9.940
 6389SOL     OW20998  13.629   3.711   2.526
 6389SOL    HW120999  13.665   3.693   2.439
 6389SOL    HW221000  13.620   3.806   2.529
 6390SOL     OW21001   8.408   5.949  11.235
 6390SOL    HW121002   8.465   5.959  11.311
 6390SOL    HW221003   8.319   5.947  11.273
 6391SOL     OW21004  14.074  10.741   8.628
 6391SOL    HW121005  13.985  10.734   8.661
 6391SOL    HW221006  14.076  10.683   8.552
 6392SOL     OW21007   7.361  14.164  14.636
 6392SOL    HW121008   7.416  14.223  14.584
 6392SOL    HW221009   7.277  14.162  14.589
 6393SOL     OW21010   4.304   1.870   5.114
 6393SOL    HW121011   4.303   1.781   5.151
 6393SOL    HW221012   4.355   1.861   5.033
 6394SOL     OW21013  13.394   4.862  12.798
 6394SOL    HW121014  13.470   4.822  12.755
 6394SOL    HW221015  13.320   4.808  12.769
 6395SOL     OW21016   0.813   1.951   9.040
 6395SOL    HW121017   0.719   1.937   9.040
 6395SOL    HW221018   0.841   1.932   8.951
 6396SOL     OW21019   1.050  12.183  10.513
 6396SOL    HW121020   1.126  12.153  10.564
 6396SOL    HW221021   0.977  12.131  10.548
 6397SOL     OW21022  12.310  11.953   2.246
 6397SOL    HW121023  12.402  11.926   2.243
 6397SOL    HW221024  12.270  11.909   2.171
 6398SOL     OW21025  11.315   0.609   6.429
 6398SOL    HW121026  11.360   0.689   6.403
 6398SOL    HW221027  11.225   0.637   6.448
 6399SOL     OW21028   6.991  11.417   6.915
 6399SOL    HW121029   6.988  11.326   6.944
 6399SOL    HW221030   6.963  11.413   6.823
 6400SOL     OW21031   9.207   1.796  13.781
 6400SOL    HW121032   9.131   1.846  13.750
 6400SOL    HW221033   9.274   1.811  13.714
 6401SOL     OW21034   4.981  11.863   4.520
 6401SOL    HW121035   4.917  11.850   4.590
 6401SOL    HW221036   5.066  11.866   4.564
 6402SOL     OW21037  14.373   1.039   5.569
 6402SOL    HW121038  14.282   1.011   5.571
 6402SOL    HW221039  14.375   1.119   5.621
 6403SOL     OW21040   1.824   6.244  14.384
 6403SOL    HW121041   1.793   6.335  14.378
 6403SOL    HW221042   1.822   6.213  14.293
 6404SOL     OW21043  10.185   6.388   2.505
 6404SOL    HW121044  10.172   6.405   2.598
 6404SOL    HW221045  10.271   6.346   2.500
 6405SOL     OW21046   0.359   9.665  10.885
 6405SOL    HW121047   0.412   9.612  10.825
 6405SOL    HW221048   0.322   9.602  10.947
 6406SOL     OW21049   5.542  13.759   7.546
 6406SOL    HW121050   5.480  13.806   7.491
 6406SOL    HW221051   5.527  13.666   7.527
 6407SOL     OW21052   0.299  12.898   1.704
 6407SOL    HW121053   0.291  12.913   1.610
 6407SOL    HW221054   0.209  12.878   1.732
 6408SOL     OW21055   5.976   8.454  10.326
 6408SOL    HW121056   6.054   8.448  10.382
 6408SOL    HW221057   5.902   8.456  10.387
 6409SOL     OW21058  13.460  10.013  12.782
 6409SOL    HW121059  13.529   9.991  12.846
 6409SOL    HW221060  13.393  10.057  12.834
 6410SOL     OW21061   4.579  12.441   1.734
 6410SOL    HW121062   4.525  12.506   1.688
 6410SOL    HW221063   4.538  12.432   1.820
 6411SOL     OW21064  13.437   0.353   2.254
 6411SOL    HW121065  13.418   0.260   2.241
 6411SOL    HW221066  13.483   0.380   2.174
 6412SOL     OW21067   4.418  14.716   0.871
 6412SOL    HW121068   4.447  14.808   0.874
 6412SOL    HW221069   4.402  14.699   0.778
 6413SOL     OW21070  10.771   1.797   1.159
 6413SOL    HW121071  10.855   1.779   1.116
 6413SOL    HW221072  10.727   1.859   1.101
 6414SOL     OW21073  12.226   8.272   0.767
 6414SOL    HW121074  12.315   8.248   0.741
 6414SOL    HW221075  12.225   8.368   0.760
 6415SOL     OW21076   5.259   6.203  13.807
 6415SOL    HW121077   5.231   6.291  13.830
 6415SOL    HW221078   5.181   6.161  13.771
 6416SOL     OW21079  10.413  12.505   0.628
 6416SOL    HW121080  10.481  12.459   0.678
 6416SOL    HW221081  10.336  12.449   0.636
 6417SOL     OW21082   6.471   8.935  10.452
 6417SOL    HW121083   6.436   8.983  10.527
 6417SOL    HW221084   6.419   8.967  10.378
 6418SOL     OW21085  13.724  12.806   3.483
 6418SOL    HW121086  13.736  12.855   3.565
 6418SOL    HW221087  13.667  12.861   3.430
 6419SOL     OW21088  13.903   8.735   2.808
 6419SOL    HW121089  13.840   8.805   2.787
 6419SOL    HW221090  13.913   8.739   2.903
 6420SOL     OW21091   8.825   3.487  11.496
 6420SOL    HW121092   8.872   3.511  11.577
 6420SOL    HW221093   8.736   3.520  11.510
 6421SOL     OW21094   2.977   2.230   3.213
 6421SOL    HW121095   2.883   2.219   3.195
 6421SOL    HW221096   2.995   2.168   3.283
 6422SOL     OW21097   2.004   5.310   0.409
 6422SOL    HW121098   1.988   5.394   0.365
 6422SOL    HW221099   2.093   5.318   0.444
 6423SOL     OW21100  10.583   2.584   5.481
 6423SOL    HW121101  10.582   2.647   5.553
 6423SOL    HW221102  10.545   2.631   5.407
 6424SOL     OW21103   7.937   4.311   1.869
 6424SOL    HW121104   8.014   4.347   1.825
 6424SOL    HW221105   7.885   4.388   1.893
 6425SOL     OW21106   3.836  14.612   2.337
 6425SOL    HW121107   3.744  14.638   2.332
 6425SOL    HW221108   3.861  14.594   2.246
 6426SOL     OW21109   8.492   2.454  11.807
 6426SOL    HW121110   8.481   2.510  11.883
 6426SOL    HW221111   8.512   2.367  11.843
 6427SOL     OW21112   9.978   3.991   2.261
 6427SOL    HW121113   9.986   4.042   2.181
 6427SOL    HW221114   9.975   3.900   2.231
 6428SOL     OW21115   4.358   2.302  13.035
 6428SOL    HW121116   4.340   2.392  13.007
 6428SOL    HW221117   4.330   2.248  12.961
 6429SOL     OW21118   3.968   4.371   1.642
 6429SOL    HW121119   3.997   4.321   1.566
 6429SOL    HW221120   3.873   4.357   1.646
 6430SOL     OW21121   7.266   9.189  11.566
 6430SOL    HW121122   7.220   9.266  11.602
 6430SOL    HW221123   7.330   9.166  11.633
 6431SOL     OW21124   0.029   7.376   5.392
 6431SOL    HW121125   0.038   7.329   5.308
 6431SOL    HW221126   0.109   7.354   5.440
 6432SOL     OW21127   7.017   4.692  10.689
 6432SOL    HW121128   7.052   4.714  10.776
 6432SOL    HW221129   7.087   4.642  10.647
 6433SOL     OW21130   3.547  10.906   3.640
 6433SOL    HW121131   3.568  10.843   3.709
 6433SOL    HW221132   3.609  10.978   3.653
 6434SOL     OW21133   2.334  10.753  13.480
 6434SOL    HW121134   2.239  10.751  13.486
 6434SOL    HW221135   2.352  10.789  13.394
 6435SOL     OW21136  13.701  13.539   7.442
 6435SOL    HW121137  13.769  13.558   7.507
 6435SOL    HW221138  13.704  13.613   7.382
 6436SOL     OW21139   1.407   0.327   3.741
 6436SOL    HW121140   1.359   0.257   3.786
 6436SOL    HW221141   1.426   0.390   3.810
 6437SOL     OW21142   4.341   4.900   1.119
 6437SOL    HW121143   4.360   4.814   1.081
 6437SOL    HW221144   4.404   4.958   1.076
 6438SOL     OW21145  12.137   6.543  13.643
 6438SOL    HW121146  12.118   6.545  13.737
 6438SOL    HW221147  12.103   6.625  13.610
 6439SOL     OW21148   7.045  11.725   0.094
 6439SOL    HW121149   7.051  11.769   0.009
 6439SOL    HW221150   7.122  11.756   0.142
 6440SOL     OW21151   2.001   3.061   4.301
 6440SOL    HW121152   2.032   2.994   4.362
 6440SOL    HW221153   1.915   3.032   4.273
 6441SOL     OW21154  14.286   0.010   3.076
 6441SOL    HW121155  14.355   0.074   3.064
 6441SOL    HW221156  14.301  14.817   3.008
 6442SOL     OW21157   6.890   2.549   7.480
 6442SOL    HW121158   6.819   2.485   7.468
 6442SOL    HW221159   6.858   2.605   7.552
 6443SOL     OW21160   6.817  10.662   1.824
 6443SOL    HW121161   6.838  10.581   1.778
 6443SOL    HW221162   6.833  10.643   1.916
 6444SOL     OW21163   2.888  10.341  10.667
 6444SOL    HW121164   2.902  10.434  10.649
 6444SOL    HW221165   2.891  10.334  10.762
 6445SOL     OW21166   9.703   5.839   1.066
 6445SOL    HW121167   9.614   5.814   1.042
 6445SOL    HW221168   9.758   5.808   0.994
 6446SOL     OW21169   7.669   7.505   1.183
 6446SOL    HW121170   7.757   7.542   1.176
 6446SOL    HW221171   7.680   7.425   1.234
 6447SOL     OW21172   0.008  11.160   6.330
 6447SOL    HW121173   0.002  11.083   6.273
 6447SOL    HW221174   0.037  11.231   6.272
 6448SOL     OW21175   3.201   5.978  12.109
 6448SOL    HW121176   3.110   5.954  12.090
 6448SOL    HW221177   3.252   5.901  12.083
 6449SOL     OW21178   3.671   5.650  14.713
 6449SOL    HW121179   3.605   5.719  14.708
 6449SOL    HW221180   3.754   5.697  14.716
 6450SOL     OW21181   0.185   5.971  10.169
 6450SOL    HW121182   0.226   5.886  10.154
 6450SOL    HW221183   0.168   6.005  10.081
 6451SOL     OW21184   8.405  10.660  11.116
 6451SOL    HW121185   8.388  10.754  11.106
 6451SOL    HW221186   8.495  10.649  11.087
 6452SOL     OW21187   3.131  11.801   0.447
 6452SOL    HW121188   3.196  11.776   0.381
 6452SOL    HW221189   3.054  11.825   0.396
 6453SOL     OW21190  14.825   1.457   2.353
 6453SOL    HW121191  14.734   1.460   2.382
 6453SOL    HW221192  14.819   1.443   2.259
 6454SOL     OW21193   0.964   9.475   7.188
 6454SOL    HW121194   1.025   9.480   7.261
 6454SOL    HW221195   0.929   9.564   7.180
 6455SOL     OW21196   0.540   4.316   1.502
 6455SOL    HW121197   0.537   4.244   1.439
 6455SOL    HW221198   0.457   4.311   1.549
 6456SOL     OW21199   8.421  10.552   1.463
 6456SOL    HW121200   8.471  10.507   1.395
 6456SOL    HW221201   8.486  10.604   1.510
 6457SOL     OW21202  10.094   6.635   0.528
 6457SOL    HW121203  10.008   6.607   0.560
 6457SOL    HW221204  10.112   6.716   0.575
 6458SOL     OW21205   2.066   5.419  10.685
 6458SOL    HW121206   1.981   5.458  10.703
 6458SOL    HW221207   2.121   5.444  10.759
 6459SOL     OW21208  12.235  11.401   2.394
 6459SOL    HW121209  12.188  11.471   2.440
 6459SOL    HW221210  12.230  11.326   2.453
 6460SOL     OW21211  12.909   1.283   0.991
 6460SOL    HW121212  12.926   1.357   0.932
 6460SOL    HW221213  12.937   1.206   0.941
 6461SOL     OW21214   9.805  13.435  10.519
 6461SOL    HW121215   9.743  13.503  10.495
 6461SOL    HW221216   9.878  13.482  10.560
 6462SOL     OW21217   8.683   4.001   7.532
 6462SOL    HW121218   8.655   4.056   7.605
 6462SOL    HW221219   8.774   4.025   7.516
 6463SOL     OW21220   6.546   0.521   5.360
 6463SOL    HW121221   6.541   0.496   5.452
 6463SOL    HW221222   6.457   0.550   5.338
 6464SOL     OW21223   0.742   4.644   0.537
 6464SOL    HW121224   0.758   4.738   0.549
 6464SOL    HW221225   0.751   4.606   0.625
 6465SOL     OW21226  11.883   4.220   1.302
 6465SOL    HW121227  11.927   4.198   1.220
 6465SOL    HW221228  11.840   4.138   1.328
 6466SOL     OW21229  13.004   1.366   2.711
 6466SOL    HW121230  12.987   1.274   2.732
 6466SOL    HW221231  12.917   1.404   2.699
 6467SOL     OW21232   7.734  12.834   6.516
 6467SOL    HW121233   7.675  12.815   6.442
 6467SOL    HW221234   7.756  12.927   6.506
 6468SOL     OW21235   8.695   3.361   8.375
 6468SOL    HW121236   8.683   3.376   8.469
 6468SOL    HW221237   8.689   3.266   8.366
 6469SOL     OW21238   3.114   8.882   4.620
 6469SOL    HW121239   3.045   8.890   4.686
 6469SOL    HW221240   3.193   8.860   4.669
 6470SOL     OW21241   0.963   2.359  13.785
 6470SOL    HW121242   0.868   2.364  13.797
 6470SOL    HW221243   0.986   2.445  13.749
 6471SOL     OW21244   3.669  14.693   5.099
 6471SOL    HW121245   3.746  14.694   5.041
 6471SOL    HW221246   3.647  14.785   5.110
 6472SOL     OW21247  14.652   1.879   5.833
 6472SOL    HW121248  14.703   1.806   5.799
 6472SOL    HW221249  14.600   1.909   5.758
 6473SOL     OW21250   7.250   4.604  11.722
 6473SOL    HW121251   7.191   4.616  11.796
 6473SOL    HW221252   7.208   4.651  11.650
 6474SOL     OW21253   8.601   7.732   6.211
 6474SOL    HW121254   8.586   7.808   6.155
 6474SOL    HW221255   8.653   7.672   6.158
 6475SOL     OW21256   5.587  11.069   9.103
 6475SOL    HW121257   5.564  11.003   9.169
 6475SOL    HW221258   5.652  11.026   9.048
 6476SOL     OW21259   2.856   7.606   0.867
 6476SOL    HW121260   2.937   7.587   0.820
 6476SOL    HW221261   2.865   7.698   0.894
 6477SOL     OW21262   3.960  13.778  11.460
 6477SOL    HW121263   4.010  13.848  11.501
 6477SOL    HW221264   4.026  13.718  11.425
 6478SOL     OW21265  10.624   5.876   9.863
 6478SOL    HW121266  10.686   5.950   9.860
 6478SOL    HW221267  10.666   5.813   9.922
 6479SOL     OW21268   1.490  10.360  11.886
 6479SOL    HW121269   1.560  10.403  11.838
 6479SOL    HW221270   1.415  10.419  11.877
 6480SOL     OW21271   0.792   6.545  14.455
 6480SOL    HW121272   0.736   6.521  14.381
 6480SOL    HW221273   0.753   6.626  14.489
 6481SOL     OW21274  13.247  11.973   7.092
 6481SOL    HW121275  13.269  11.884   7.066
 6481SOL    HW221276  13.329  12.010   7.123
 6482SOL     OW21277   3.862   0.109   1.787
 6482SOL    HW121278   3.772   0.098   1.757
 6482SOL    HW221279   3.895   0.020   1.797
 6483SOL     OW21280   3.595   5.787   9.770
 6483SOL    HW121281   3.503   5.764   9.755
 6483SOL    HW221282   3.603   5.878   9.741
 6484SOL     OW21283   7.251   0.287   4.118
 6484SOL    HW121284   7.304   0.317   4.044
 6484SOL    HW221285   7.167   0.261   4.079
 6485SOL     OW21286   5.382   4.927   0.613
 6485SOL    HW121287   5.418   4.874   0.542
 6485SOL    HW221288   5.374   4.866   0.686
 6486SOL     OW21289  12.642   2.936  11.863
 6486SOL    HW121290  12.736   2.919  11.855
 6486SOL    HW221291  12.628   3.014  11.810
 6487SOL     OW21292   2.422  14.160   0.836
 6487SOL    HW121293   2.327  14.151   0.827
 6487SOL    HW221294   2.457  14.083   0.791
 6488SOL     OW21295   9.930  10.487  13.330
 6488SOL    HW121296   9.898  10.402  13.362
 6488SOL    HW221297   9.870  10.510  13.259
 6489SOL     OW21298   7.556   8.501   4.721
 6489SOL    HW121299   7.540   8.407   4.714
 6489SOL    HW221300   7.576   8.516   4.813
 6490SOL     OW21301  12.443  11.823   5.302
 6490SOL    HW121302  12.513  11.887   5.317
 6490SOL    HW221303  12.429  11.826   5.207
 6491SOL     OW21304   2.481   6.815   8.036
 6491SOL    HW121305   2.546   6.775   7.978
 6491SOL    HW221306   2.527   6.891   8.073
 6492SOL     OW21307   8.767   8.939  10.528
 6492SOL    HW121308   8.785   8.848  10.554
 6492SOL    HW221309   8.848   8.985  10.547
 6493SOL     OW21310   5.514   7.139   8.490
 6493SOL    HW121311   5.537   7.216   8.438
 6493SOL    HW221312   5.582   7.135   8.558
 6494SOL     OW21313  10.739   3.338   4.285
 6494SOL    HW121314  10.812   3.377   4.236
 6494SOL    HW221315  10.782   3.292   4.358
 6495SOL     OW21316  13.256  10.624  10.895
 6495SOL    HW121317  13.167  10.627  10.930
 6495SOL    HW221318  13.290  10.539  10.923
 6496SOL     OW21319  13.581   2.985   5.690
 6496SOL    HW121320  13.635   3.041   5.634
 6496SOL    HW221321  13.631   2.904   5.699
 6497SOL     OW21322  13.752  14.104   1.033
 6497SOL    HW121323  13.724  14.143   1.116
 6497SOL    HW221324  13.762  14.011   1.052
 6498SOL     OW21325   3.810   4.172  13.747
 6498SOL    HW121326   3.726   4.172  13.702
 6498SOL    HW221327   3.820   4.261  13.780
 6499SOL     OW21328   9.379  10.124   6.974
 6499SOL    HW121329   9.443  10.167   6.917
 6499SOL    HW221330   9.303  10.109   6.917
 6500SOL     OW21331   0.280   2.844   4.778
 6500SOL    HW121332   0.239   2.758   4.781
 6500SOL    HW221333   0.374   2.825   4.774
 6501SOL     OW21334   0.116   3.747   9.959
 6501SOL    HW121335   0.175   3.785   9.893
 6501SOL    HW221336   0.069   3.678   9.912
 6502SOL     OW21337   2.560  10.619   8.344
 6502SOL    HW121338   2.576  10.687   8.409
 6502SOL    HW221339   2.561  10.538   8.394
 6503SOL     OW21340   1.723   0.049   8.480
 6503SOL    HW121341   1.722  14.869   8.560
 6503SOL    HW221342   1.696   0.136   8.508
 6504SOL     OW21343  14.675   1.135  14.750
 6504SOL    HW121344  14.674   1.045  14.716
 6504SOL    HW221345  14.682   1.190  14.673
 6505SOL     OW21346   9.105   7.483  14.057
 6505SOL    HW121347   9.078   7.555  14.000
 6505SOL    HW221348   9.045   7.412  14.036
 6506SOL     OW21349  12.771   1.633   2.315
 6506SOL    HW121350  12.744   1.725   2.313
 6506SOL    HW221351  12.853   1.633   2.364
 6507SOL     OW21352  14.633   7.259   0.632
 6507SOL    HW121353  14.588   7.311   0.565
 6507SOL    HW221354  14.562   7.222   0.685
 6508SOL     OW21355  13.177   1.872   4.199
 6508SOL    HW121356  13.162   1.778   4.191
 6508SOL    HW221357  13.101   1.912   4.158
 6509SOL     OW21358  10.099   8.218   7.883
 6509SOL    HW121359  10.009   8.221   7.853
 6509SOL    HW221360  10.151   8.204   7.804
 6510SOL     OW21361  10.217   0.235   6.310
 6510SOL    HW121362  10.220   0.165   6.246
 6510SOL    HW221363  10.287   0.295   6.284
 6511SOL     OW21364   3.818   1.765   7.852
 6511SOL    HW121365   3.739   1.787   7.801
 6511SOL    HW221366   3.883   1.741   7.786
 6512SOL     OW21367   4.717   7.600  11.098
 6512SOL    HW121368   4.634   7.641  11.124
 6512SOL    HW221369   4.784   7.649  11.146
 6513SOL     OW21370  12.924   3.600   0.307
 6513SOL    HW121371  12.970   3.669   0.356
 6513SOL    HW221372  12.831   3.622   0.317
 6514SOL     OW21373   6.206  10.502   4.003
 6514SOL    HW121374   6.277  10.532   4.060
 6514SOL    HW221375   6.222  10.409   3.991
 6515SOL     OW21376  13.665   1.021   1.600
 6515SOL    HW121377  13.689   1.075   1.525
 6515SOL    HW221378  13.572   1.000   1.586
 6516SOL     OW21379  10.311   7.752   4.676
 6516SOL    HW121380  10.292   7.802   4.596
 6516SOL    HW221381  10.225   7.722   4.706
 6517SOL     OW21382   6.532   8.226   8.324
 6517SOL    HW121383   6.480   8.224   8.404
 6517SOL    HW221384   6.566   8.137   8.315
 6518SOL     OW21385   5.823   4.633  10.436
 6518SOL    HW121386   5.783   4.583  10.365
 6518SOL    HW221387   5.890   4.575  10.472
 6519SOL     OW21388   3.284   9.074   8.823
 6519SOL    HW121389   3.365   9.119   8.800
 6519SOL    HW221390   3.310   8.983   8.838
 6520SOL     OW21391   4.687   4.903   7.689
 6520SOL    HW121392   4.609   4.919   7.743
 6520SOL    HW221393   4.731   4.830   7.731
 6521SOL     OW21394   4.066   4.725  10.486
 6521SOL    HW121395   4.104   4.793  10.542
 6521SOL    HW221396   4.030   4.660  10.546
 6522SOL     OW21397  14.271   9.251  13.707
 6522SOL    HW121398  14.267   9.329  13.762
 6522SOL    HW221399  14.359   9.216  13.721
 6523SOL     OW21400   5.985  12.467   2.293
 6523SOL    HW121401   5.952  12.460   2.383
 6523SOL    HW221402   5.932  12.405   2.243
 6524SOL     OW21403   1.903   9.961   8.882
 6524SOL    HW121404   1.918   9.957   8.788
 6524SOL    HW221405   1.927  10.050   8.907
 6525SOL     OW21406   9.488  11.733   8.875
 6525SOL    HW121407   9.548  11.719   8.948
 6525SOL    HW221408   9.542  11.771   8.806
 6526SOL     OW21409   1.067  11.686  14.687
 6526SOL    HW121410   1.107  11.715  14.770
 6526SOL    HW221411   1.117  11.732  14.619
 6527SOL     OW21412   5.956  14.705  11.912
 6527SOL    HW121413   5.912  14.651  11.978
 6527SOL    HW221414   6.040  14.662  11.898
 6528SOL     OW21415  10.217  12.405   3.588
 6528SOL    HW121416  10.207  12.446   3.674
 6528SOL    HW221417  10.273  12.466   3.540
 6529SOL     OW21418   7.337   3.744   6.835
 6529SOL    HW121419   7.300   3.675   6.890
 6529SOL    HW221420   7.301   3.727   6.748
 6530SOL     OW21421   1.553   7.884  11.864
 6530SOL    HW121422   1.467   7.858  11.830
 6530SOL    HW221423   1.614   7.863  11.793
 6531SOL     OW21424   2.102   3.463   7.409
 6531SOL    HW121425   2.088   3.518   7.333
 6531SOL    HW221426   2.139   3.522   7.475
 6532SOL     OW21427   0.089   5.542   3.401
 6532SOL    HW121428   0.074   5.477   3.333
 6532SOL    HW221429   0.178   5.574   3.385
 6533SOL     OW21430  12.401   1.878   8.448
 6533SOL    HW121431  12.421   1.924   8.366
 6533SOL    HW221432  12.320   1.918   8.478
 6534SOL     OW21433  14.440   9.491  13.270
 6534SOL    HW121434  14.413   9.406  13.304
 6534SOL    HW221435  14.373   9.552  13.301
 6535SOL     OW21436   9.157  12.242   4.920
 6535SOL    HW121437   9.202  12.326   4.915
 6535SOL    HW221438   9.223  12.178   4.892
 6536SOL     OW21439   8.689   3.895  10.942
 6536SOL    HW121440   8.711   3.984  10.914
 6536SOL    HW221441   8.762   3.841  10.911
 6537SOL     OW21442   5.953  13.626  14.668
 6537SOL    HW121443   5.882  13.687  14.690
 6537SOL    HW221444   5.910  13.542  14.655
 6538SOL     OW21445   0.530   5.727   2.149
 6538SOL    HW121446   0.597   5.795   2.148
 6538SOL    HW221447   0.508   5.716   2.242
 6539SOL     OW21448   6.017  13.834  14.861
 6539SOL    HW121449   6.009  13.752  14.812
 6539SOL    HW221450   5.987  13.901  14.800
 6540SOL     OW21451   5.794   3.434   6.224
 6540SOL    HW121452   5.879   3.402   6.256
 6540SOL    HW221453   5.808   3.449   6.131
 6541SOL     OW21454   9.214   1.260  13.210
 6541SOL    HW121455   9.261   1.299  13.284
 6541SOL    HW221456   9.197   1.333  13.151
 6542SOL     OW21457  10.035   7.899   0.850
 6542SOL    HW121458   9.998   7.987   0.843
 6542SOL    HW221459  10.100   7.905   0.920
 6543SOL     OW21460  12.726  10.981  13.360
 6543SOL    HW121461  12.770  10.962  13.442
 6543SOL    HW221462  12.637  11.006  13.385
 6544SOL     OW21463   6.499   2.736  10.142
 6544SOL    HW121464   6.495   2.710  10.050
 6544SOL    HW221465   6.496   2.654  10.191
 6545SOL     OW21466   2.139  13.234   4.285
 6545SOL    HW121467   2.156  13.202   4.374
 6545SOL    HW221468   2.057  13.282   4.293
 6546SOL     OW21469  11.178   3.790  11.197
 6546SOL    HW121470  11.104   3.839  11.234
 6546SOL    HW221471  11.163   3.791  11.102
 6547SOL     OW21472   2.004   5.563   0.294
 6547SOL    HW121473   2.091   5.554   0.255
 6547SOL    HW221474   1.973   5.649   0.265
 6548SOL     OW21475   9.965  12.521  12.375
 6548SOL    HW121476   9.896  12.550  12.317
 6548SOL    HW221477  10.035  12.491  12.317
 6549SOL     OW21478  10.578   1.663   3.379
 6549SOL    HW121479  10.609   1.725   3.445
 6549SOL    HW221480  10.605   1.577   3.412
 6550SOL     OW21481   9.548   0.563   8.708
 6550SOL    HW121482   9.609   0.495   8.736
 6550SOL    HW221483   9.566   0.575   8.614
 6551SOL     OW21484  12.577   8.681   8.032
 6551SOL    HW121485  12.545   8.653   7.946
 6551SOL    HW221486  12.558   8.608   8.090
 6552SOL     OW21487  12.728   6.678  13.140
 6552SOL    HW121488  12.654   6.739  13.140
 6552SOL    HW221489  12.746   6.663  13.232
 6553SOL     OW21490  10.126   2.658   5.219
 6553SOL    HW121491  10.170   2.734   5.183
 6553SOL    HW221492  10.035   2.686   5.233
 6554SOL     OW21493  14.114   7.392   3.400
 6554SOL    HW121494  14.074   7.444   3.331
 6554SOL    HW221495  14.189   7.444   3.429
 6555SOL     OW21496   5.358   6.873   4.542
 6555SOL    HW121497   5.403   6.837   4.465
 6555SOL    HW221498   5.385   6.965   4.544
 6556SOL     OW21499   2.948   7.800   8.419
 6556SOL    HW121500   2.904   7.783   8.335
 6556SOL    HW221501   2.877   7.799   8.484
 6557SOL     OW21502   7.756   5.707  12.790
 6557SOL    HW121503   7.682   5.759  12.821
 6557SOL    HW221504   7.802   5.765  12.729
 6558SOL     OW21505   6.523  10.548  12.494
 6558SOL    HW121506   6.492  10.510  12.576
 6558SOL    HW221507   6.586  10.615  12.521
 6559SOL     OW21508  12.063  13.017   4.087
 6559SOL    HW121509  11.986  13.035   4.033
 6559SOL    HW221510  12.101  13.103   4.105
 6560SOL     OW21511  12.671   3.595   3.662
 6560SOL    HW121512  12.612   3.670   3.661
 6560SOL    HW221513  12.668   3.563   3.752
 6561SOL     OW21514   6.365   3.160   9.933
 6561SOL    HW121515   6.354   3.140   9.840
 6561SOL    HW221516   6.417   3.241   9.934
 6562SOL     OW21517  13.408   9.632  14.680
 6562SOL    HW121518  13.473   9.587  14.735
 6562SOL    HW221519  13.420   9.725  14.699
 6563SOL     OW21520  11.506   6.849  14.306
 6563SOL    HW121521  11.574   6.916  14.298
 6563SOL    HW221522  11.506   6.804  14.222
 6564SOL     OW21523  12.406   6.962   4.931
 6564SOL    HW121524  12.456   7.021   4.875
 6564SOL    HW221525  12.335   6.930   4.875
 6565SOL     OW21526  11.433  11.788   5.764
 6565SOL    HW121527  11.399  11.737   5.838
 6565SOL    HW221528  11.464  11.870   5.804
 6566SOL     OW21529   2.414   9.027  11.754
 6566SOL    HW121530   2.503   9.061  11.768
 6566SOL    HW221531   2.419   8.980  11.671
 6567SOL     OW21532  14.109  12.950   2.810
 6567SOL    HW121533  14.073  13.031   2.847
 6567SOL    HW221534  14.194  12.976   2.774
 6568SOL     OW21535   8.171   2.183   7.020
 6568SOL    HW121536   8.249   2.188   7.075
 6568SOL    HW221537   8.118   2.114   7.060
 6569SOL     OW21538   2.667   2.172   7.499
 6569SOL    HW121539   2.728   2.099   7.504
 6569SOL    HW221540   2.708   2.241   7.552
 6570SOL     OW21541   1.485   7.424   3.969
 6570SOL    HW121542   1.568   7.383   3.942
 6570SOL    HW221543   1.506   7.470   4.049
 6571SOL     OW21544   2.084   1.875  12.899
 6571SOL    HW121545   2.123   1.953  12.858
 6571SOL    HW221546   2.023   1.842  12.834
 6572SOL     OW21547   6.092   5.292  13.233
 6572SOL    HW121548   6.076   5.243  13.313
 6572SOL    HW221549   6.180   5.268  13.206
 6573SOL     OW21550   4.319   8.004  14.815
 6573SOL    HW121551   4.231   7.975  14.837
 6573SOL    HW221552   4.365   7.925  14.790
 6574SOL     OW21553   5.178  10.151   4.966
 6574SOL    HW121554   5.205  10.231   4.922
 6574SOL    HW221555   5.134  10.181   5.045
 6575SOL     OW21556   5.369   8.001   8.753
 6575SOL    HW121557   5.400   8.091   8.742
 6575SOL    HW221558   5.318   8.003   8.834
 6576SOL     OW21559   3.770   7.888  14.012
 6576SOL    HW121560   3.700   7.838  13.968
 6576SOL    HW221561   3.724   7.942  14.076
 6577SOL     OW21562   0.552   8.359  12.994
 6577SOL    HW121563   0.495   8.434  12.973
 6577SOL    HW221564   0.639   8.387  12.965
 6578SOL     OW21565   2.887   0.861   0.415
 6578SOL    HW121566   2.896   0.811   0.335
 6578SOL    HW221567   2.945   0.818   0.478
 6579SOL     OW21568  10.541  11.505   2.460
 6579SOL    HW121569  10.611  11.549   2.509
 6579SOL    HW221570  10.460  11.531   2.505
 6580SOL     OW21571   1.357   9.227   0.065
 6580SOL    HW121572   1.413   9.152   0.087
 6580SOL    HW221573   1.292   9.229   0.134
 6581SOL     OW21574   0.458  14.322  10.448
 6581SOL    HW121575   0.435  14.387  10.382
 6581SOL    HW221576   0.554  14.324  10.451
 6582SOL     OW21577   1.604   6.839   8.714
 6582SOL    HW121578   1.548   6.914   8.693
 6582SOL    HW221579   1.565   6.766   8.665
 6583SOL     OW21580   0.951  13.038   0.340
 6583SOL    HW121581   0.860  13.027   0.367
 6583SOL    HW221582   1.001  13.039   0.422
 6584SOL     OW21583   1.068  12.734  14.408
 6584SOL    HW121584   1.129  12.676  14.361
 6584SOL    HW221585   1.121  12.772  14.478
 6585SOL     OW21586  12.002   1.939  13.446
 6585SOL    HW121587  12.034   1.923  13.357
 6585SOL    HW221588  11.993   2.034  13.451
 6586SOL     OW21589   3.005   7.738  13.181
 6586SOL    HW121590   3.039   7.661  13.225
 6586SOL    HW221591   3.083   7.790  13.159
 6587SOL     OW21592   3.027   8.747   1.788
 6587SOL    HW121593   2.968   8.677   1.815
 6587SOL    HW221594   3.110   8.726   1.830
 6588SOL     OW21595   6.899   5.627   8.354
 6588SOL    HW121596   6.939   5.706   8.317
 6588SOL    HW221597   6.942   5.616   8.439
 6589SOL     OW21598  11.447   6.254  12.304
 6589SOL    HW121599  11.440   6.340  12.264
 6589SOL    HW221600  11.425   6.267  12.396
 6590SOL     OW21601   5.107   5.397   4.649
 6590SOL    HW121602   5.199   5.414   4.629
 6590SOL    HW221603   5.078   5.338   4.580
 6591SOL     OW21604   8.284   3.087   8.665
 6591SOL    HW121605   8.209   3.057   8.614
 6591SOL    HW221606   8.249   3.101   8.753
 6592SOL     OW21607   0.199   4.232   0.806
 6592SOL    HW121608   0.279   4.213   0.757
 6592SOL    HW221609   0.176   4.322   0.780
 6593SOL     OW21610   2.719   1.616   5.116
 6593SOL    HW121611   2.641   1.649   5.073
 6593SOL    HW221612   2.703   1.630   5.210
 6594SOL     OW21613  13.847   3.979   5.602
 6594SOL    HW121614  13.875   4.002   5.690
 6594SOL    HW221615  13.882   4.049   5.547
 6595SOL     OW21616   0.160   1.268  11.181
 6595SOL    HW121617   0.176   1.337  11.118
 6595SOL    HW221618   0.207   1.192  11.146
 6596SOL     OW21619  12.930   1.518   6.914
 6596SOL    HW121620  12.975   1.593   6.954
 6596SOL    HW221621  12.855   1.557   6.870
 6597SOL     OW21622  12.642  11.307   4.768
 6597SOL    HW121623  12.554  11.344   4.772
 6597SOL    HW221624  12.698  11.377   4.803
 6598SOL     OW21625   4.172  12.858  14.259
 6598SOL    HW121626   4.134  12.772  14.240
 6598SOL    HW221627   4.254  12.860  14.210
 6599SOL     OW21628   0.441   0.442   8.008
 6599SOL    HW121629   0.461   0.474   7.920
 6599SOL    HW221630   0.503   0.488   8.065
 6600SOL     OW21631   7.842   4.625   2.740
 6600SOL    HW121632   7.884   4.686   2.800
 6600SOL    HW221633   7.748   4.637   2.755
 6601SOL     OW21634   7.057  14.254  13.344
 6601SOL    HW121635   7.073  14.208  13.262
 6601SOL    HW221636   6.979  14.211  13.380
 6602SOL     OW21637   9.901   5.871  10.044
 6602SOL    HW121638   9.961   5.837  10.110
 6602SOL    HW221639   9.948   5.942  10.002
 6603SOL     OW21640   5.800   1.743   2.722
 6603SOL    HW121641   5.766   1.686   2.791
 6603SOL    HW221642   5.763   1.829   2.743
 6604SOL     OW21643   9.972   5.985   9.387
 6604SOL    HW121644  10.010   5.917   9.444
 6604SOL    HW221645   9.953   5.939   9.305
 6605SOL     OW21646   5.651  12.871   0.968
 6605SOL    HW121647   5.717  12.802   0.963
 6605SOL    HW221648   5.624  12.871   1.060
 6606SOL     OW21649   9.524   4.713   7.353
 6606SOL    HW121650   9.480   4.797   7.342
 6606SOL    HW221651   9.454   4.651   7.375
 6607SOL     OW21652   0.959   1.626   5.492
 6607SOL    HW121653   0.878   1.582   5.464
 6607SOL    HW221654   0.956   1.711   5.449
 6608SOL     OW21655  13.338  10.026   1.829
 6608SOL    HW121656  13.251  10.052   1.859
 6608SOL    HW221657  13.394  10.101   1.847
 6609SOL     OW21658  14.826   4.876   9.771
 6609SOL    HW121659   0.002   4.829   9.703
 6609SOL    HW221660  14.839   4.823   9.850
 6610SOL     OW21661   2.129   2.948   1.466
 6610SOL    HW121662   2.163   2.976   1.381
 6610SOL    HW221663   2.206   2.938   1.521
 6611SOL     OW21664  11.112   6.572  11.274
 6611SOL    HW121665  11.169   6.612  11.340
 6611SOL    HW221666  11.123   6.478  11.286
 6612SOL     OW21667   9.992   4.526  10.378
 6612SOL    HW121668   9.982   4.617  10.352
 6612SOL    HW221669  10.082   4.520  10.410
 6613SOL     OW21670   1.034  12.752   5.291
 6613SOL    HW121671   1.058  12.813   5.360
 6613SOL    HW221672   0.942  12.732   5.308
 6614SOL     OW21673   3.928   8.407   2.484
 6614SOL    HW121674   3.922   8.362   2.569
 6614SOL    HW221675   3.850   8.379   2.436
 6615SOL     OW21676  11.202   9.398   2.861
 6615SOL    HW121677  11.178   9.466   2.799
 6615SOL    HW221678  11.122   9.347   2.874
 6616SOL     OW21679   8.844   0.471  12.175
 6616SOL    HW121680   8.854   0.384  12.213
 6616SOL    HW221681   8.922   0.519  12.202
 6617SOL     OW21682  12.910   8.788   0.224
 6617SOL    HW121683  12.829   8.838   0.235
 6617SOL    HW221684  12.932   8.757   0.312
 6618SOL     OW21685   6.291   5.065   3.696
 6618SOL    HW121686   6.242   5.092   3.773
 6618SOL    HW221687   6.274   5.134   3.631
 6619SOL     OW21688  13.788   6.767   1.861
 6619SOL    HW121689  13.863   6.814   1.897
 6619SOL    HW221690  13.728   6.836   1.833
 6620SOL     OW21691   6.850  14.052   5.381
 6620SOL    HW121692   6.860  13.960   5.406
 6620SOL    HW221693   6.823  14.096   5.461
 6621SOL     OW21694   2.224   4.844   1.019
 6621SOL    HW121695   2.192   4.931   1.043
 6621SOL    HW221696   2.318   4.856   1.007
 6622SOL     OW21697   7.072   3.981   2.740
 6622SOL    HW121698   7.139   4.047   2.723
 6622SOL    HW221699   7.107   3.932   2.815
 6623SOL     OW21700   1.714   2.244  12.262
 6623SOL    HW121701   1.776   2.260  12.332
 6623SOL    HW221702   1.637   2.296  12.285
 6624SOL     OW21703   5.161   5.245   0.976
 6624SOL    HW121704   5.205   5.240   1.061
 6624SOL    HW221705   5.158   5.338   0.955
 6625SOL     OW21706  13.675   0.888   1.016
 6625SOL    HW121707  13.650   0.884   1.108
 6625SOL    HW221708  13.647   0.804   0.980
 6626SOL     OW21709  14.040   6.408   0.082
 6626SOL    HW121710  14.106   6.465   0.121
 6626SOL    HW221711  13.993   6.370   0.156
 6627SOL     OW21712   9.681   4.938  10.652
 6627SOL    HW121713   9.665   5.024  10.614
 6627SOL    HW221714   9.688   4.879  10.577
 6628SOL     OW21715  13.911   6.596   7.759
 6628SOL    HW121716  13.947   6.608   7.671
 6628SOL    HW221717  13.987   6.593   7.816
 6629SOL     OW21718  12.116  13.924  14.552
 6629SOL    HW121719  12.185  13.889  14.608
 6629SOL    HW221720  12.115  13.866  14.476
 6630SOL     OW21721   2.000   5.584   8.040
 6630SOL    HW121722   1.942   5.616   8.109
 6630SOL    HW221723   1.978   5.491   8.031
 6631SOL     OW21724   8.801  14.727   8.595
 6631SOL    HW121725   8.767  14.658   8.651
 6631SOL    HW221726   8.774  14.809   8.638
 6632SOL     OW21727   8.782   2.148  13.703
 6632SOL    HW121728   8.802   2.081  13.769
 6632SOL    HW221729   8.793   2.231  13.750
 6633SOL     OW21730  12.936  13.187   6.513
 6633SOL    HW121731  12.854  13.194   6.561
 6633SOL    HW221732  12.941  13.268   6.462
 6634SOL     OW21733   2.583   9.762   2.886
 6634SOL    HW121734   2.633   9.764   2.968
 6634SOL    HW221735   2.537   9.846   2.884
 6635SOL     OW21736  12.367   5.544  13.639
 6635SOL    HW121737  12.389   5.632  13.669
 6635SOL    HW221738  12.291   5.519  13.692
 6636SOL     OW21739   3.989   8.261   8.871
 6636SOL    HW121740   3.963   8.193   8.934
 6636SOL    HW221741   3.985   8.217   8.786
 6637SOL     OW21742   6.830   2.321  14.088
 6637SOL    HW121743   6.908   2.274  14.058
 6637SOL    HW221744   6.862   2.408  14.114
 6638SOL     OW21745   5.233  12.806   7.833
 6638SOL    HW121746   5.204  12.765   7.915
 6638SOL    HW221747   5.309  12.754   7.806
 6639SOL     OW21748   2.419   9.534   2.815
 6639SOL    HW121749   2.342   9.540   2.872
 6639SOL    HW221750   2.477   9.604   2.844
 6640SOL     OW21751   3.944   2.911   4.821
 6640SOL    HW121752   3.849   2.916   4.833
 6640SOL    HW221753   3.978   2.896   4.909
 6641SOL     OW21754   2.235   7.197  13.061
 6641SOL    HW121755   2.318   7.155  13.035
 6641SOL    HW221756   2.260   7.255  13.132
 6642SOL     OW21757  11.145  14.624   6.784
 6642SOL    HW121758  11.090  14.691   6.744
 6642SOL    HW221759  11.185  14.578   6.711
 6643SOL     OW21760   3.074   0.242  13.147
 6643SOL    HW121761   3.035   0.306  13.208
 6643SOL    HW221762   3.092   0.166  13.201
 6644SOL     OW21763   1.265  12.699   5.705
 6644SOL    HW121764   1.198  12.762   5.680
 6644SOL    HW221765   1.309  12.738   5.781
 6645SOL     OW21766   3.980   2.444  12.512
 6645SOL    HW121767   3.995   2.444  12.606
 6645SOL    HW221768   4.066   2.424  12.473
 6646SOL     OW21769   4.276  10.450  10.257
 6646SOL    HW121770   4.316  10.368  10.227
 6646SOL    HW221771   4.297  10.455  10.350
 6647SOL     OW21772   3.765  13.653  10.118
 6647SOL    HW121773   3.748  13.741  10.150
 6647SOL    HW221774   3.846  13.626  10.161
 6648SOL     OW21775   8.591   4.781   6.473
 6648SOL    HW121776   8.643   4.821   6.542
 6648SOL    HW221777   8.655   4.753   6.408
 6649SOL     OW21778  10.717   6.937   2.922
 6649SOL    HW121779  10.784   6.990   2.967
 6649SOL    HW221780  10.676   6.887   2.992
 6650SOL     OW21781   2.189   2.577   1.999
 6650SOL    HW121782   2.215   2.616   2.082
 6650SOL    HW221783   2.234   2.630   1.933
 6651SOL     OW21784  11.638   2.011   2.651
 6651SOL    HW121785  11.565   2.041   2.705
 6651SOL    HW221786  11.668   2.089   2.605
 6652SOL     OW21787   2.738  10.112   7.609
 6652SOL    HW121788   2.713  10.089   7.519
 6652SOL    HW221789   2.832  10.098   7.612
 6653SOL     OW21790  14.109   4.040  12.430
 6653SOL    HW121791  14.162   4.104  12.478
 6653SOL    HW221792  14.137   3.955  12.464
 6654SOL     OW21793   0.013   3.294   0.454
 6654SOL    HW121794   0.074   3.252   0.514
 6654SOL    HW221795   0.057   3.375   0.429
 6655SOL     OW21796  13.211   3.086   0.638
 6655SOL    HW121797  13.221   3.023   0.566
 6655SOL    HW221798  13.230   3.171   0.598
 6656SOL     OW21799   9.758  13.923  11.920
 6656SOL    HW121800   9.833  13.917  11.861
 6656SOL    HW221801   9.707  13.844  11.902
 6657SOL     OW21802   1.146   3.083  14.681
 6657SOL    HW121803   1.112   3.094  14.770
 6657SOL    HW221804   1.236   3.114  14.686
 6658SOL     OW21805  11.727  10.404   8.911
 6658SOL    HW121806  11.708  10.311   8.895
 6658SOL    HW221807  11.809  10.404   8.960
 6659SOL     OW21808   6.941   0.619   7.627
 6659SOL    HW121809   6.935   0.710   7.657
 6659SOL    HW221810   7.035   0.603   7.621
 6660SOL     OW21811   6.357   4.155   7.765
 6660SOL    HW121812   6.364   4.078   7.708
 6660SOL    HW221813   6.363   4.229   7.705
 6661SOL     OW21814   6.130   6.781   1.391
 6661SOL    HW121815   6.106   6.753   1.302
 6661SOL    HW221816   6.161   6.871   1.380
 6662SOL     OW21817  10.162  14.035   3.671
 6662SOL    HW121818  10.087  14.094   3.670
 6662SOL    HW221819  10.190  14.033   3.762
 6663SOL     OW21820   4.621   8.597   7.153
 6663SOL    HW121821   4.637   8.682   7.193
 6663SOL    HW221822   4.526   8.584   7.160
 6664SOL     OW21823   8.309  10.169   1.565
 6664SOL    HW121824   8.313  10.078   1.533
 6664SOL    HW221825   8.375  10.174   1.633
 6665SOL     OW21826   3.267   1.436  11.105
 6665SOL    HW121827   3.194   1.382  11.135
 6665SOL    HW221828   3.345   1.388  11.132
 6666SOL     OW21829   6.875  10.323   7.662
 6666SOL    HW121830   6.861  10.378   7.739
 6666SOL    HW221831   6.894  10.236   7.698
 6667SOL     OW21832  11.452   3.249   4.655
 6667SOL    HW121833  11.377   3.194   4.636
 6667SOL    HW221834  11.415   3.329   4.693
 6668SOL     OW21835   8.650  10.816   9.429
 6668SOL    HW121836   8.709  10.839   9.501
 6668SOL    HW221837   8.664  10.884   9.363
 6669SOL     OW21838   9.211   8.378  10.210
 6669SOL    HW121839   9.201   8.393  10.304
 6669SOL    HW221840   9.273   8.306  10.204
 6670SOL     OW21841   0.564  11.039   1.681
 6670SOL    HW121842   0.515  10.972   1.634
 6670SOL    HW221843   0.619  11.080   1.614
 6671SOL     OW21844  12.431   0.975   3.501
 6671SOL    HW121845  12.352   1.007   3.544
 6671SOL    HW221846  12.460   1.048   3.447
 6672SOL     OW21847   0.512  10.879   2.472
 6672SOL    HW121848   0.482  10.836   2.392
 6672SOL    HW221849   0.607  10.866   2.472
 6673SOL     OW21850  12.740   7.887   7.421
 6673SOL    HW121851  12.667   7.948   7.409
 6673SOL    HW221852  12.701   7.808   7.457
 6674SOL     OW21853  11.262  11.723   4.852
 6674SOL    HW121854  11.340  11.678   4.885
 6674SOL    HW221855  11.295  11.808   4.823
 6675SOL     OW21856  10.598   8.568   4.332
 6675SOL    HW121857  10.536   8.638   4.313
 6675SOL    HW221858  10.640   8.595   4.414
 6676SOL     OW21859  13.908  10.401   1.040
 6676SOL    HW121860  13.817  10.375   1.052
 6676SOL    HW221861  13.917  10.482   1.089
 6677SOL     OW21862   4.359   9.271   4.216
 6677SOL    HW121863   4.387   9.260   4.125
 6677SOL    HW221864   4.295   9.201   4.230
 6678SOL     OW21865   6.944  11.633   3.330
 6678SOL    HW121866   6.853  11.642   3.305
 6678SOL    HW221867   6.978  11.723   3.332
 6679SOL     OW21868   0.690  12.071   1.599
 6679SOL    HW121869   0.763  12.026   1.556
 6679SOL    HW221870   0.677  12.150   1.546
 6680SOL     OW21871  14.850   2.317   5.738
 6680SOL    HW121872  14.869   2.257   5.810
 6680SOL    HW221873   0.064   2.341   5.704
 6681SOL     OW21874  11.536   4.762   0.324
 6681SOL    HW121875  11.462   4.747   0.382
 6681SOL    HW221876  11.523   4.700   0.252
 6682SOL     OW21877  12.716   9.117  12.559
 6682SOL    HW121878  12.719   9.175  12.483
 6682SOL    HW221879  12.776   9.046  12.537
 6683SOL     OW21880   5.563   7.125   1.426
 6683SOL    HW121881   5.619   7.063   1.472
 6683SOL    HW221882   5.494   7.146   1.488
 6684SOL     OW21883  13.948   7.947   0.583
 6684SOL    HW121884  14.004   8.024   0.571
 6684SOL    HW221885  13.998   7.875   0.544
 6685SOL     OW21886   4.801  14.491   2.170
 6685SOL    HW121887   4.892  14.508   2.144
 6685SOL    HW221888   4.797  14.397   2.182
 6686SOL     OW21889  10.309   1.953   4.666
 6686SOL    HW121890  10.389   1.977   4.618
 6686SOL    HW221891  10.322   1.861   4.690
 6687SOL     OW21892   0.734   8.391   9.597
 6687SOL    HW121893   0.742   8.471   9.546
 6687SOL    HW221894   0.764   8.322   9.538
 6688SOL     OW21895  10.216  11.922  10.990
 6688SOL    HW121896  10.219  11.883  11.078
 6688SOL    HW221897  10.123  11.935  10.973
 6689SOL     OW21898   8.149  10.881  12.354
 6689SOL    HW121899   8.135  10.884  12.259
 6689SOL    HW221900   8.090  10.812  12.385
 6690SOL     OW21901   4.021   5.301   6.360
 6690SOL    HW121902   3.937   5.296   6.406
 6690SOL    HW221903   4.024   5.390   6.324
 6691SOL     OW21904   6.173   7.101   8.223
 6691SOL    HW121905   6.123   7.182   8.233
 6691SOL    HW221906   6.246   7.110   8.284
 6692SOL     OW21907   4.837  13.721   4.454
 6692SOL    HW121908   4.820  13.634   4.489
 6692SOL    HW221909   4.751  13.754   4.429
 6693SOL     OW21910   3.492   3.602   0.675
 6693SOL    HW121911   3.456   3.670   0.618
 6693SOL    HW221912   3.564   3.644   0.721
 6694SOL     OW21913  12.291  14.367  12.845
 6694SOL    HW121914  12.385  14.359  12.827
 6694SOL    HW221915  12.282  14.448  12.894
 6695SOL     OW21916   6.487   9.067   1.889
 6695SOL    HW121917   6.406   9.105   1.922
 6695SOL    HW221918   6.556   9.112   1.938
 6696SOL     OW21919  10.160  14.816   5.480
 6696SOL    HW121920  10.084  14.810   5.423
 6696SOL    HW221921  10.139   0.015   5.540
 6697SOL     OW21922  11.487   5.020   3.193
 6697SOL    HW121923  11.479   5.025   3.097
 6697SOL    HW221924  11.571   4.977   3.207
 6698SOL     OW21925   9.389  12.613   5.830
 6698SOL    HW121926   9.436  12.532   5.847
 6698SOL    HW221927   9.316  12.612   5.892
 6699SOL     OW21928  10.098   2.119   6.575
 6699SOL    HW121929  10.142   2.134   6.492
 6699SOL    HW221930  10.133   2.186   6.634
 6700SOL     OW21931   8.583   7.500   2.087
 6700SOL    HW121932   8.580   7.594   2.068
 6700SOL    HW221933   8.493   7.470   2.076
 6701SOL     OW21934   6.219   3.529  11.815
 6701SOL    HW121935   6.221   3.462  11.747
 6701SOL    HW221936   6.308   3.564  11.818
 6702SOL     OW21937   1.675  10.097   9.453
 6702SOL    HW121938   1.725  10.173   9.425
 6702SOL    HW221939   1.688  10.033   9.383
 6703SOL     OW21940   6.231   3.742   4.014
 6703SOL    HW121941   6.290   3.814   4.037
 6703SOL    HW221942   6.150   3.784   3.987
 6704SOL     OW21943  10.986   9.099  13.121
 6704SOL    HW121944  11.069   9.093  13.169
 6704SOL    HW221945  10.929   9.149  13.179
 6705SOL     OW21946  11.627  12.783   6.229
 6705SOL    HW121947  11.614  12.846   6.300
 6705SOL    HW221948  11.545  12.784   6.179
 6706SOL     OW21949   1.353  14.243   4.161
 6706SOL    HW121950   1.336  14.195   4.081
 6706SOL    HW221951   1.320  14.331   4.143
 6707SOL     OW21952   9.210  10.057  12.949
 6707SOL    HW121953   9.260   9.995  12.896
 6707SOL    HW221954   9.247  10.050  13.037
 6708SOL     OW21955  13.745   0.261  11.575
 6708SOL    HW121956  13.652   0.250  11.556
 6708SOL    HW221957  13.753   0.350  11.608
 6709SOL     OW21958  12.771  11.967  10.448
 6709SOL    HW121959  12.681  11.969  10.481
 6709SOL    HW221960  12.797  11.875  10.453
 6710SOL     OW21961   5.893   4.246   6.162
 6710SOL    HW121962   5.869   4.173   6.218
 6710SOL    HW221963   5.925   4.205   6.082
 6711SOL     OW21964   5.828   1.742   5.642
 6711SOL    HW121965   5.921   1.741   5.667
 6711SOL    HW221966   5.783   1.708   5.719
 6712SOL     OW21967  14.718   1.232  13.724
 6712SOL    HW121968  14.687   1.178  13.651
 6712SOL    HW221969  14.800   1.270  13.693
 6713SOL     OW21970  13.329   0.770   5.412
 6713SOL    HW121971  13.297   0.832   5.477
 6713SOL    HW221972  13.249   0.731   5.376
 6714SOL     OW21973   9.000   1.082   3.494
 6714SOL    HW121974   9.006   1.124   3.580
 6714SOL    HW221975   9.046   1.142   3.435
 6715SOL     OW21976   6.944  11.638   0.963
 6715SOL    HW121977   6.905  11.647   1.050
 6715SOL    HW221978   7.029  11.681   0.971
 6716SOL     OW21979  11.245   7.849  10.419
 6716SOL    HW121980  11.195   7.769  10.402
 6716SOL    HW221981  11.190   7.899  10.479
 6717SOL     OW21982  14.474   3.462   0.299
 6717SOL    HW121983  14.548   3.416   0.261
 6717SOL    HW221984  14.482   3.447   0.394
 6718SOL     OW21985   4.980   9.392   9.602
 6718SOL    HW121986   5.030   9.387   9.520
 6718SOL    HW221987   5.029   9.455   9.655
 6719SOL     OW21988  13.458   6.868  14.675
 6719SOL    HW121989  13.496   6.955  14.677
 6719SOL    HW221990  13.365   6.881  14.691
 6720SOL     OW21991   7.238   7.172   1.862
 6720SOL    HW121992   7.333   7.172   1.852
 6720SOL    HW221993   7.204   7.177   1.773
 6721SOL     OW21994   3.556   2.443  10.397
 6721SOL    HW121995   3.607   2.478  10.324
 6721SOL    HW221996   3.544   2.351  10.376
 6722SOL     OW21997   6.499   2.740   6.863
 6722SOL    HW121998   6.559   2.667   6.848
 6722SOL    HW221999   6.541   2.815   6.821
 6723SOL     OW22000   4.899   7.259   9.103
 6723SOL    HW122001   4.833   7.321   9.071
 6723SOL    HW222002   4.900   7.272   9.197
 6724SOL     OW22003  10.394   2.353  10.769
 6724SOL    HW122004  10.313   2.371  10.817
 6724SOL    HW222005  10.449   2.306  10.831
 6725SOL     OW22006   2.094   6.901   5.926
 6725SOL    HW122007   2.025   6.850   5.884
 6725SOL    HW222008   2.088   6.877   6.018
 6726SOL     OW22009  10.900  14.208  11.200
 6726SOL    HW122010  10.982  14.185  11.157
 6726SOL    HW222011  10.910  14.300  11.224
 6727SOL     OW22012  11.018   6.598   8.636
 6727SOL    HW122013  10.943   6.655   8.654
 6727SOL    HW222014  11.021   6.594   8.540
 6728SOL     OW22015  11.829   0.981   8.715
 6728SOL    HW122016  11.893   0.987   8.786
 6728SOL    HW222017  11.804   0.888   8.713
 6729SOL     OW22018   6.543   0.293  10.839
 6729SOL    HW122019   6.491   0.236  10.783
 6729SOL    HW222020   6.551   0.375  10.789
 6730SOL     OW22021   5.481   7.640  12.946
 6730SOL    HW122022   5.411   7.582  12.917
 6730SOL    HW222023   5.481   7.632  13.042
 6731SOL     OW22024  14.507   8.868   5.962
 6731SOL    HW122025  14.474   8.788   5.921
 6731SOL    HW222026  14.591   8.843   6.000
 6732SOL     OW22027  14.762   3.503  14.453
 6732SOL    HW122028  14.767   3.591  14.417
 6732SOL    HW222029  14.684   3.465  14.412
 6733SOL     OW22030  12.232  13.933   2.618
 6733SOL    HW122031  12.272  13.953   2.533
 6733SOL    HW222032  12.277  13.991   2.679
 6734SOL     OW22033   1.492  11.131   0.050
 6734SOL    HW122034   1.436  11.190   0.100
 6734SOL    HW222035   1.570  11.184   0.031
 6735SOL     OW22036   5.776   6.969   0.100
 6735SOL    HW122037   5.701   7.014   0.138
 6735SOL    HW222038   5.788   7.010   0.015
 6736SOL     OW22039  13.453   0.344   7.240
 6736SOL    HW122040  13.362   0.313   7.233
 6736SOL    HW222041  13.494   0.281   7.299
 6737SOL     OW22042   5.273  12.838  10.926
 6737SOL    HW122043   5.293  12.782  10.851
 6737SOL    HW222044   5.216  12.785  10.981
 6738SOL     OW22045  11.381  13.442   3.480
 6738SOL    HW122046  11.417  13.458   3.567
 6738SOL    HW222047  11.308  13.382   3.494
 6739SOL     OW22048   8.910   2.912  12.229
 6739SOL    HW122049   8.991   2.939  12.272
 6739SOL    HW222050   8.910   2.816  12.235
 6740SOL     OW22051   8.393   3.457   3.360
 6740SOL    HW122052   8.451   3.516   3.312
 6740SOL    HW222053   8.452   3.409   3.419
 6741SOL     OW22054   0.328   7.870   2.640
 6741SOL    HW122055   0.423   7.874   2.652
 6741SOL    HW222056   0.302   7.788   2.682
 6742SOL     OW22057   1.977  12.987  10.123
 6742SOL    HW122058   2.024  13.070  10.129
 6742SOL    HW222059   2.045  12.920  10.134
 6743SOL     OW22060   7.482   7.849   6.917
 6743SOL    HW122061   7.458   7.758   6.931
 6743SOL    HW222062   7.457   7.867   6.827
 6744SOL     OW22063   4.333   1.390  12.198
 6744SOL    HW122064   4.424   1.395  12.226
 6744SOL    HW222065   4.287   1.447  12.260
 6745SOL     OW22066  14.254   6.061   4.812
 6745SOL    HW122067  14.228   6.152   4.821
 6745SOL    HW222068  14.277   6.033   4.901
 6746SOL     OW22069  14.612   1.431  12.930
 6746SOL    HW122070  14.561   1.361  12.972
 6746SOL    HW222071  14.574   1.438  12.842
 6747SOL     OW22072   7.013  14.233  13.859
 6747SOL    HW122073   7.061  14.250  13.779
 6747SOL    HW222074   7.049  14.150  13.892
 6748SOL     OW22075   4.449   0.571   9.182
 6748SOL    HW122076   4.514   0.603   9.119
 6748SOL    HW222077   4.484   0.486   9.210
 6749SOL     OW22078   9.952  14.329   8.661
 6749SOL    HW122079   9.965  14.370   8.575
 6749SOL    HW222080  10.039  14.300   8.688
 6750SOL     OW22081   4.651   9.967   6.798
 6750SOL    HW122082   4.667   9.878   6.766
 6750SOL    HW222083   4.626  10.017   6.721
 6751SOL     OW22084   5.858   0.386  14.051
 6751SOL    HW122085   5.794   0.409  13.984
 6751SOL    HW222086   5.821   0.422  14.132
 6752SOL     OW22087   9.922  10.999  10.994
 6752SOL    HW122088   9.995  10.949  10.958
 6752SOL    HW222089   9.844  10.956  10.960
 6753SOL     OW22090   3.902   1.022   0.113
 6753SOL    HW122091   3.849   1.045   0.189
 6753SOL    HW222092   3.982   1.074   0.122
 6754SOL     OW22093   3.907   5.911   1.780
 6754SOL    HW122094   3.928   5.982   1.719
 6754SOL    HW222095   3.935   5.831   1.736
 6755SOL     OW22096   8.800   4.135  10.220
 6755SOL    HW122097   8.717   4.178  10.204
 6755SOL    HW222098   8.864   4.189  10.174
 6756SOL     OW22099   8.830   4.298   2.255
 6756SOL    HW122100   8.805   4.388   2.234
 6756SOL    HW222101   8.866   4.303   2.344
 6757SOL     OW22102   9.382  11.366  11.414
 6757SOL    HW122103   9.299  11.361  11.367
 6757SOL    HW222104   9.414  11.454  11.398
 6758SOL     OW22105  12.041  13.694   0.607
 6758SOL    HW122106  11.959  13.674   0.563
 6758SOL    HW222107  12.109  13.670   0.544
 6759SOL     OW22108   0.806   8.609   2.719
 6759SOL    HW122109   0.814   8.649   2.805
 6759SOL    HW222110   0.746   8.535   2.732
 6760SOL     OW22111   3.779  13.247   3.728
 6760SOL    HW122112   3.856  13.300   3.707
 6760SOL    HW222113   3.809  13.186   3.795
 6761SOL     OW22114  14.340  14.371   7.133
 6761SOL    HW122115  14.260  14.389   7.083
 6761SOL    HW222116  14.410  14.370   7.068
 6762SOL     OW22117   1.024  13.586  11.218
 6762SOL    HW122118   1.087  13.586  11.147
 6762SOL    HW222119   0.938  13.576  11.176
 6763SOL     OW22120   0.664  12.131   0.132
 6763SOL    HW122121   0.683  12.221   0.160
 6763SOL    HW222122   0.625  12.142   0.045
 6764SOL     OW22123   7.515   7.575  14.608
 6764SOL    HW122124   7.552   7.663  14.604
 6764SOL    HW222125   7.584   7.518  14.573
 6765SOL     OW22126   4.633   5.147  14.540
 6765SOL    HW122127   4.576   5.215  14.575
 6765SOL    HW222128   4.709   5.147  14.599
 6766SOL     OW22129   7.021  13.174   2.018
 6766SOL    HW122130   7.026  13.136   1.931
 6766SOL    HW222131   7.003  13.101   2.076
 6767SOL     OW22132   9.264  11.832  11.202
 6767SOL    HW122133   9.214  11.874  11.272
 6767SOL    HW222134   9.198  11.797  11.143
 6768SOL     OW22135   7.083   5.378   4.696
 6768SOL    HW122136   7.163   5.432   4.699
 6768SOL    HW222137   7.013   5.440   4.714
 6769SOL     OW22138  12.484  11.737  12.458
 6769SOL    HW122139  12.557  11.677  12.456
 6769SOL    HW222140  12.506  11.804  12.392
 6770SOL     OW22141   9.745  10.652   2.216
 6770SOL    HW122142   9.755  10.681   2.307
 6770SOL    HW222143   9.828  10.675   2.174
 6771SOL     OW22144   3.160   7.440   5.388
 6771SOL    HW122145   3.129   7.428   5.477
 6771SOL    HW222146   3.242   7.391   5.384
 6772SOL     OW22147  12.914  14.507   0.094
 6772SOL    HW122148  12.868  14.426   0.116
 6772SOL    HW222149  12.991  14.507   0.152
 6773SOL     OW22150  12.924  10.499  12.042
 6773SOL    HW122151  12.923  10.559  11.967
 6773SOL    HW222152  13.017  10.483  12.059
 6774SOL     OW22153  11.368   1.718  13.268
 6774SOL    HW122154  11.349   1.715  13.174
 6774SOL    HW222155  11.286   1.747  13.308
 6775SOL     OW22156  13.209   4.790   0.386
 6775SOL    HW122157  13.176   4.752   0.305
 6775SOL    HW222158  13.303   4.798   0.373
 6776SOL     OW22159   0.321   8.128   3.562
 6776SOL    HW122160   0.363   8.044   3.541
 6776SOL    HW222161   0.229   8.106   3.576
 6777SOL     OW22162   3.090  12.787   6.023
 6777SOL    HW122163   3.078  12.870   5.977
 6777SOL    HW222164   3.002  12.749   6.027
 6778SOL     OW22165   0.684  13.611   2.734
 6778SOL    HW122166   0.734  13.686   2.765
 6778SOL    HW222167   0.595  13.628   2.762
 6779SOL     OW22168  14.114   4.304   3.665
 6779SOL    HW122169  14.114   4.282   3.758
 6779SOL    HW222170  14.088   4.396   3.661
 6780SOL     OW22171   5.834   1.328   0.894
 6780SOL    HW122172   5.742   1.302   0.900
 6780SOL    HW222173   5.883   1.253   0.929
 6781SOL     OW22174   6.378   0.824   8.401
 6781SOL    HW122175   6.451   0.809   8.340
 6781SOL    HW222176   6.406   0.899   8.453
 6782SOL     OW22177  10.832   4.714   9.138
 6782SOL    HW122178  10.741   4.736   9.120
 6782SOL    HW222179  10.881   4.753   9.066
 6783SOL     OW22180   6.814   1.132  10.464
 6783SOL    HW122181   6.828   1.222  10.494
 6783SOL    HW222182   6.774   1.088  10.539
 6784SOL     OW22183   3.554   0.883  11.915
 6784SOL    HW122184   3.462   0.864  11.935
 6784SOL    HW222185   3.600   0.864  11.997
 6785SOL     OW22186  12.802  13.435   5.852
 6785SOL    HW122187  12.852  13.378   5.910
 6785SOL    HW222188  12.715  13.395   5.847
 6786SOL     OW22189   3.819   3.589  12.066
 6786SOL    HW122190   3.781   3.505  12.041
 6786SOL    HW222191   3.909   3.568  12.091
 6787SOL     OW22192   7.336   8.741  13.196
 6787SOL    HW122193   7.318   8.835  13.189
 6787SOL    HW222194   7.388   8.721  13.118
 6788SOL     OW22195  13.764   8.569   4.569
 6788SOL    HW122196  13.762   8.562   4.664
 6788SOL    HW222197  13.857   8.566   4.546
 6789SOL     OW22198  11.484   6.616   7.913
 6789SOL    HW122199  11.460   6.584   8.000
 6789SOL    HW222200  11.549   6.685   7.930
 6790SOL     OW22201   0.839   7.147   2.881
 6790SOL    HW122202   0.930   7.160   2.853
 6790SOL    HW222203   0.831   7.196   2.962
 6791SOL     OW22204   4.819   2.719  11.097
 6791SOL    HW122205   4.797   2.768  11.018
 6791SOL    HW222206   4.909   2.688  11.083
 6792SOL     OW22207   2.596   5.636   3.534
 6792SOL    HW122208   2.510   5.664   3.504
 6792SOL    HW222209   2.626   5.574   3.468
 6793SOL     OW22210  11.219   8.833  13.283
 6793SOL    HW122211  11.239   8.820  13.376
 6793SOL    HW222212  11.225   8.745  13.245
 6794SOL     OW22213   4.536   3.551  12.282
 6794SOL    HW122214   4.466   3.601  12.240
 6794SOL    HW222215   4.607   3.551  12.219
 6795SOL     OW22216   6.214   4.313   0.235
 6795SOL    HW122217   6.289   4.353   0.190
 6795SOL    HW222218   6.246   4.298   0.324
 6796SOL     OW22219   7.336  14.578   0.883
 6796SOL    HW122220   7.367  14.620   0.963
 6796SOL    HW222221   7.242  14.570   0.894
 6797SOL     OW22222  11.611   5.369   6.020
 6797SOL    HW122223  11.656   5.371   6.104
 6797SOL    HW222224  11.606   5.276   5.997
 6798SOL     OW22225   6.495   4.861  14.222
 6798SOL    HW122226   6.421   4.812  14.185
 6798SOL    HW222227   6.507   4.936  14.163
 6799SOL     OW22228  14.368   1.860  12.582
 6799SOL    HW122229  14.341   1.812  12.660
 6799SOL    HW222230  14.429   1.801  12.537
 6800SOL     OW22231   5.729   4.688   8.709
 6800SOL    HW122232   5.638   4.660   8.721
 6800SOL    HW222233   5.762   4.633   8.637
 6801SOL     OW22234  12.438   3.458  13.699
 6801SOL    HW122235  12.474   3.446  13.612
 6801SOL    HW222236  12.344   3.467  13.686
 6802SOL     OW22237   9.978   7.904  12.793
 6802SOL    HW122238   9.923   7.912  12.870
 6802SOL    HW222239   9.991   7.810  12.782
 6803SOL     OW22240   0.709  14.464  12.251
 6803SOL    HW122241   0.785  14.459  12.193
 6803SOL    HW222242   0.634  14.471  12.192
 6804SOL     OW22243   9.310   6.188   6.498
 6804SOL    HW122244   9.238   6.240   6.461
 6804SOL    HW222245   9.282   6.171   6.588
 6805SOL     OW22246   3.285   2.983   2.627
 6805SOL    HW122247   3.270   2.990   2.721
 6805SOL    HW222248   3.205   2.941   2.593
 6806SOL     OW22249   3.140   5.664  11.350
 6806SOL    HW122250   3.231   5.666  11.380
 6806SOL    HW222251   3.141   5.607  11.273
 6807SOL     OW22252   6.237   1.925   1.480
 6807SOL    HW122253   6.168   1.952   1.541
 6807SOL    HW222254   6.291   2.003   1.468
 6808SOL     OW22255  14.478   3.225  13.165
 6808SOL    HW122256  14.557   3.243  13.217
 6808SOL    HW222257  14.431   3.158  13.216
 6809SOL     OW22258  12.452   0.794   7.291
 6809SOL    HW122259  12.405   0.721   7.330
 6809SOL    HW222260  12.538   0.759   7.269
 6810SOL     OW22261   1.796   2.465   0.602
 6810SOL    HW122262   1.713   2.502   0.571
 6810SOL    HW222263   1.775   2.428   0.688
 6811SOL     OW22264   3.470   9.786  10.403
 6811SOL    HW122265   3.427   9.766  10.320
 6811SOL    HW222266   3.563   9.793  10.381
 6812SOL     OW22267   9.830   1.972   9.002
 6812SOL    HW122268   9.869   2.053   8.968
 6812SOL    HW222269   9.746   1.964   8.956
 6813SOL     OW22270   0.776   2.313  10.306
 6813SOL    HW122271   0.817   2.386  10.352
 6813SOL    HW222272   0.822   2.235  10.339
 6814SOL     OW22273   0.738   4.106   9.065
 6814SOL    HW122274   0.744   4.031   9.125
 6814SOL    HW222275   0.650   4.141   9.079
 6815SOL     OW22276  12.202   3.036   1.843
 6815SOL    HW122277  12.109   3.040   1.863
 6815SOL    HW222278  12.233   3.126   1.851
 6816SOL     OW22279  13.794  14.582   6.120
 6816SOL    HW122280  13.834  14.629   6.193
 6816SOL    HW222281  13.757  14.651   6.065
 6817SOL     OW22282  13.782   4.754   6.440
 6817SOL    HW122283  13.864   4.709   6.419
 6817SOL    HW222284  13.772   4.819   6.370
 6818SOL     OW22285  11.720  13.071   0.975
 6818SOL    HW122286  11.783  13.109   0.914
 6818SOL    HW222287  11.708  13.137   1.043
 6819SOL     OW22288   0.595  12.773   5.451
 6819SOL    HW122289   0.508  12.749   5.484
 6819SOL    HW222290   0.627  12.839   5.513
 6820SOL     OW22291   2.399  10.782  13.773
 6820SOL    HW122292   2.444  10.854  13.728
 6820SOL    HW222293   2.307  10.806  13.770
 6821SOL     OW22294  14.593  14.576  12.537
 6821SOL    HW122295  14.534  14.613  12.603
 6821SOL    HW222296  14.544  14.503  12.500
 6822SOL     OW22297  10.644  13.052  12.214
 6822SOL    HW122298  10.694  13.070  12.135
 6822SOL    HW222299  10.634  13.136  12.257
 6823SOL     OW22300   3.441  14.022   6.904
 6823SOL    HW122301   3.400  14.088   6.848
 6823SOL    HW222302   3.523  14.001   6.860
 6824SOL     OW22303   4.726   5.823   8.471
 6824SOL    HW122304   4.770   5.739   8.453
 6824SOL    HW222305   4.647   5.819   8.418
 6825SOL     OW22306   9.343  14.094  13.605
 6825SOL    HW122307   9.395  14.123  13.530
 6825SOL    HW222308   9.265  14.053  13.566
 6826SOL     OW22309   9.780   9.337  11.311
 6826SOL    HW122310   9.744   9.404  11.252
 6826SOL    HW222311   9.818   9.272  11.252
 6827SOL     OW22312   9.028   1.540   4.564
 6827SOL    HW122313   8.984   1.566   4.645
 6827SOL    HW222314   8.992   1.597   4.497
 6828SOL     OW22315   7.559  10.674  12.055
 6828SOL    HW122316   7.577  10.768  12.058
 6828SOL    HW222317   7.547  10.655  11.962
 6829SOL     OW22318   4.423   0.195  10.934
 6829SOL    HW122319   4.429   0.255  10.860
 6829SOL    HW222320   4.437   0.108  10.896
 6830SOL     OW22321   6.300   3.909  11.611
 6830SOL    HW122322   6.388   3.940  11.588
 6830SOL    HW222323   6.271   3.969  11.679
 6831SOL     OW22324   8.605   1.800  12.882
 6831SOL    HW122325   8.542   1.778  12.950
 6831SOL    HW222326   8.623   1.717  12.838
 6832SOL     OW22327  12.323   9.441   9.380
 6832SOL    HW122328  12.290   9.530   9.391
 6832SOL    HW222329  12.343   9.433   9.287
 6833SOL     OW22330  12.840   6.972   3.205
 6833SOL    HW122331  12.753   7.011   3.214
 6833SOL    HW222332  12.871   7.003   3.120
 6834SOL     OW22333   6.625   0.209   8.384
 6834SOL    HW122334   6.678   0.140   8.346
 6834SOL    HW222335   6.680   0.288   8.377
 6835SOL     OW22336   0.544   4.566   0.886
 6835SOL    HW122337   0.542   4.483   0.933
 6835SOL    HW222338   0.520   4.631   0.951
 6836SOL     OW22339   7.526  11.484   6.036
 6836SOL    HW122340   7.550  11.424   6.107
 6836SOL    HW222341   7.537  11.432   5.956
 6837SOL     OW22342   0.599  12.480   5.277
 6837SOL    HW122343   0.575  12.569   5.250
 6837SOL    HW222344   0.563  12.423   5.209
 6838SOL     OW22345   5.892   7.635  12.864
 6838SOL    HW122346   5.909   7.677  12.948
 6838SOL    HW222347   5.816   7.681  12.829
 6839SOL     OW22348  14.856  11.064   8.616
 6839SOL    HW122349  14.763  11.064   8.595
 6839SOL    HW222350   0.001  11.151   8.652
 6840SOL     OW22351   0.031   4.255   0.077
 6840SOL    HW122352   0.003   4.284  14.862
 6840SOL    HW222353   0.053   4.162   0.065
 6841SOL     OW22354  12.144  12.925   0.785
 6841SOL    HW122355  12.101  13.004   0.752
 6841SOL    HW222356  12.134  12.929   0.880
 6842SOL     OW22357   0.517  14.281  13.490
 6842SOL    HW122358   0.590  14.253  13.434
 6842SOL    HW222359   0.469  14.201  13.510
 6843SOL     OW22360  13.993  12.900   3.644
 6843SOL    HW122361  14.002  12.955   3.566
 6843SOL    HW222362  14.051  12.941   3.709
 6844SOL     OW22363  13.238  12.376   3.910
 6844SOL    HW122364  13.163  12.317   3.920
 6844SOL    HW222365  13.277  12.352   3.826
 6845SOL     OW22366   1.201  13.054   3.628
 6845SOL    HW122367   1.281  13.034   3.677
 6845SOL    HW222368   1.145  12.977   3.640
 6846SOL     OW22369   3.445   4.231   3.251
 6846SOL    HW122370   3.457   4.326   3.250
 6846SOL    HW222371   3.478   4.203   3.165
 6847SOL     OW22372   5.895  12.849   4.518
 6847SOL    HW122373   5.978  12.801   4.514
 6847SOL    HW222374   5.921  12.940   4.533
 6848SOL     OW22375   4.212  14.793  14.109
 6848SOL    HW122376   4.139  14.828  14.161
 6848SOL    HW222377   4.237  14.713  14.155
 6849SOL     OW22378   9.510   6.939  12.185
 6849SOL    HW122379   9.560   6.859  12.200
 6849SOL    HW222380   9.565   6.991  12.126
 6850SOL     OW22381  12.142  14.437  11.839
 6850SOL    HW122382  12.225  14.427  11.886
 6850SOL    HW222383  12.102  14.350  11.844
 6851SOL     OW22384   0.770  13.904  13.319
 6851SOL    HW122385   0.773  13.975  13.255
 6851SOL    HW222386   0.843  13.846  13.294
 6852SOL     OW22387   8.722  12.040  10.712
 6852SOL    HW122388   8.626  12.045  10.716
 6852SOL    HW222389   8.741  11.949  10.736
 6853SOL     OW22390  13.495   1.882   4.055
 6853SOL    HW122391  13.569   1.873   3.995
 6853SOL    HW222392  13.451   1.797   4.051
 6854SOL     OW22393   5.124   4.945   2.399
 6854SOL    HW122394   5.185   4.910   2.463
 6854SOL    HW222395   5.046   4.890   2.407
 6855SOL     OW22396   3.755   5.620  10.834
 6855SOL    HW122397   3.812   5.697  10.828
 6855SOL    HW222398   3.672   5.649  10.797
 6856SOL     OW22399  12.801  13.106  11.007
 6856SOL    HW122400  12.847  13.033  10.966
 6856SOL    HW222401  12.719  13.068  11.040
 6857SOL     OW22402  14.762  10.027   9.513
 6857SOL    HW122403  14.764   9.989   9.425
 6857SOL    HW222404  14.757   9.951   9.571
 6858SOL     OW22405   0.233  11.858  13.000
 6858SOL    HW122406   0.138  11.869  13.005
 6858SOL    HW222407   0.255  11.882  12.909
 6859SOL     OW22408   4.898   7.170  11.916
 6859SOL    HW122409   4.900   7.227  11.839
 6859SOL    HW222410   4.923   7.084  11.883
 6860SOL     OW22411  12.037   5.749  13.376
 6860SOL    HW122412  12.024   5.829  13.427
 6860SOL    HW222413  12.014   5.774  13.287
 6861SOL     OW22414   9.198   8.089   6.018
 6861SOL    HW122415   9.132   8.158   6.009
 6861SOL    HW222416   9.152   8.008   5.999
 6862SOL     OW22417  12.770   9.118  14.809
 6862SOL    HW122418  12.828   9.126  14.733
 6862SOL    HW222419  12.702   9.057  14.781
 6863SOL     OW22420   3.101   1.581   7.095
 6863SOL    HW122421   3.167   1.647   7.075
 6863SOL    HW222422   3.150   1.501   7.112
 6864SOL     OW22423  10.320   6.155   3.725
 6864SOL    HW122424  10.319   6.230   3.785
 6864SOL    HW222425  10.372   6.089   3.770
 6865SOL     OW22426  13.197   2.326  10.245
 6865SOL    HW122427  13.284   2.324  10.204
 6865SOL    HW222428  13.141   2.369  10.180
 6866SOL     OW22429   4.564   1.845  11.598
 6866SOL    HW122430   4.551   1.836  11.503
 6866SOL    HW222431   4.591   1.936  11.610
 6867SOL     OW22432   5.749  13.945  10.646
 6867SOL    HW122433   5.765  13.906  10.560
 6867SOL    HW222434   5.816  14.012  10.655
 6868SOL     OW22435   4.267   0.344   7.487
 6868SOL    HW122436   4.216   0.383   7.559
 6868SOL    HW222437   4.315   0.272   7.529
 6869SOL     OW22438  13.393  14.145   6.816
 6869SOL    HW122439  13.404  14.239   6.826
 6869SOL    HW222440  13.303  14.128   6.846
 6870SOL     OW22441  12.331   7.642  12.231
 6870SOL    HW122442  12.295   7.671  12.147
 6870SOL    HW222443  12.298   7.706  12.294
 6871SOL     OW22444   9.638   3.099  11.086
 6871SOL    HW122445   9.656   3.158  11.013
 6871SOL    HW222446   9.552   3.126  11.118
 6872SOL     OW22447   4.600   1.589   4.496
 6872SOL    HW122448   4.643   1.670   4.523
 6872SOL    HW222449   4.546   1.564   4.571
 6873SOL     OW22450   0.185   4.336   3.164
 6873SOL    HW122451   0.184   4.429   3.186
 6873SOL    HW222452   0.274   4.308   3.187
 6874SOL     OW22453  13.154  13.507  14.035
 6874SOL    HW122454  13.219  13.470  13.976
 6874SOL    HW222455  13.195  13.585  14.072
 6875SOL     OW22456  14.820   0.886   7.805
 6875SOL    HW122457   0.033   0.879   7.849
 6875SOL    HW222458  14.770   0.947   7.858
 6876SOL     OW22459   7.317  13.541  11.329
 6876SOL    HW122460   7.327  13.472  11.264
 6876SOL    HW222461   7.395  13.596  11.318
 6877SOL     OW22462  13.249   7.567   0.012
 6877SOL    HW122463  13.185   7.627   0.051
 6877SOL    HW222464  13.307   7.623  14.834
 6878SOL     OW22465   6.424   0.611   1.847
 6878SOL    HW122466   6.480   0.569   1.781
 6878SOL    HW222467   6.344   0.559   1.848
 6879SOL     OW22468   2.506   2.333  10.837
 6879SOL    HW122469   2.517   2.425  10.814
 6879SOL    HW222470   2.585   2.291  10.803
 6880SOL     OW22471  14.730   6.713   8.048
 6880SOL    HW122472  14.743   6.635   8.103
 6880SOL    HW222473  14.648   6.750   8.079
 6881SOL     OW22474   9.445   7.964   9.287
 6881SOL    HW122475   9.352   7.985   9.301
 6881SOL    HW222476   9.444   7.882   9.238
 6882SOL     OW22477   0.706  13.133   3.204
 6882SOL    HW122478   0.722  13.041   3.181
 6882SOL    HW222479   0.670  13.129   3.293
 6883SOL     OW22480   9.856   4.904   3.161
 6883SOL    HW122481   9.899   4.841   3.103
 6883SOL    HW222482   9.765   4.873   3.166
 6884SOL     OW22483  14.071   5.337   1.170
 6884SOL    HW122484  13.992   5.389   1.158
 6884SOL    HW222485  14.046   5.270   1.234
 6885SOL     OW22486   3.163  10.086  13.814
 6885SOL    HW122487   3.245  10.042  13.791
 6885SOL    HW222488   3.094  10.031  13.776
 6886SOL     OW22489   5.395   9.721   0.693
 6886SOL    HW122490   5.390   9.766   0.777
 6886SOL    HW222491   5.411   9.630   0.716
 6887SOL     OW22492   4.184   6.239  10.605
 6887SOL    HW122493   4.122   6.311  10.614
 6887SOL    HW222494   4.179   6.193  10.689
 6888SOL     OW22495   3.776   9.564   7.758
 6888SOL    HW122496   3.818   9.648   7.775
 6888SOL    HW222497   3.753   9.531   7.844
 6889SOL     OW22498  10.710   3.505   3.490
 6889SOL    HW122499  10.786   3.464   3.530
 6889SOL    HW222500  10.745   3.559   3.420
 6890SOL     OW22501   4.234   1.926   7.142
 6890SOL    HW122502   4.278   1.973   7.213
 6890SOL    HW222503   4.284   1.844   7.133
 6891SOL     OW22504  10.065   0.898   3.291
 6891SOL    HW122505  10.135   0.902   3.357
 6891SOL    HW222506   9.985   0.881   3.342
 6892SOL     OW22507   7.537  13.087  12.418
 6892SOL    HW122508   7.454  13.133  12.404
 6892SOL    HW222509   7.521  13.031  12.494
 6893SOL     OW22510   9.457  13.921   7.311
 6893SOL    HW122511   9.497  13.836   7.327
 6893SOL    HW222512   9.395  13.933   7.383
 6894SOL     OW22513  14.587  13.234   6.233
 6894SOL    HW122514  14.560  13.286   6.157
 6894SOL    HW222515  14.652  13.173   6.198
 6895SOL     OW22516   1.190  14.714   6.969
 6895SOL    HW122517   1.157  14.728   6.880
 6895SOL    HW222518   1.194  14.802   7.006
 6896SOL     OW22519  13.128  13.978  10.090
 6896SOL    HW122520  13.201  13.939  10.042
 6896SOL    HW222521  13.164  14.059  10.126
 6897SOL     OW22522   3.411   5.455   6.244
 6897SOL    HW122523   3.389   5.471   6.153
 6897SOL    HW222524   3.484   5.514   6.262
 6898SOL     OW22525   1.876   6.662  12.685
 6898SOL    HW122526   1.822   6.640  12.609
 6898SOL    HW222527   1.815   6.703  12.746
 6899SOL     OW22528   0.423   0.104   5.254
 6899SOL    HW122529   0.395   0.121   5.344
 6899SOL    HW222530   0.352   0.141   5.200
 6900SOL     OW22531  14.751   3.422  14.720
 6900SOL    HW122532  14.837   3.450  14.751
 6900SOL    HW222533  14.747   3.452  14.630
 6901SOL     OW22534   6.894   1.136   9.623
 6901SOL    HW122535   6.828   1.095   9.567
 6901SOL    HW222536   6.928   1.064   9.676
 6902SOL     OW22537   2.591  13.610   3.325
 6902SOL    HW122538   2.652  13.544   3.360
 6902SOL    HW222539   2.632  13.694   3.348
 6903SOL     OW22540   3.691  12.028  14.254
 6903SOL    HW122541   3.656  12.115  14.274
 6903SOL    HW222542   3.709  12.031  14.160
 6904SOL     OW22543   4.580  12.645   6.415
 6904SOL    HW122544   4.627  12.692   6.346
 6904SOL    HW222545   4.619  12.677   6.497
 6905SOL     OW22546  14.812  13.472   0.760
 6905SOL    HW122547  14.718  13.458   0.773
 6905SOL    HW222548  14.826  13.453   0.667
 6906SOL     OW22549   8.341   1.539  13.449
 6906SOL    HW122550   8.319   1.489  13.528
 6906SOL    HW222551   8.407   1.602  13.479
 6907SOL     OW22552   2.497  10.546   0.085
 6907SOL    HW122553   2.590  10.522   0.091
 6907SOL    HW222554   2.493  10.609   0.013
 6908SOL     OW22555  12.071   7.944   0.239
 6908SOL    HW122556  11.983   7.972   0.215
 6908SOL    HW222557  12.096   7.882   0.171
 6909SOL     OW22558  13.309   9.979   5.064
 6909SOL    HW122559  13.268   9.900   5.027
 6909SOL    HW222560  13.337   9.951   5.152
 6910SOL     OW22561  12.818  10.736   4.826
 6910SOL    HW122562  12.886  10.727   4.759
 6910SOL    HW222563  12.745  10.776   4.779
 6911SOL     OW22564   4.861  14.223   5.582
 6911SOL    HW122565   4.813  14.155   5.535
 6911SOL    HW222566   4.799  14.296   5.588
 6912SOL     OW22567  13.544   3.335   4.702
 6912SOL    HW122568  13.451   3.315   4.701
 6912SOL    HW222569  13.582   3.272   4.763
 6913SOL     OW22570   2.531  10.603   9.922
 6913SOL    HW122571   2.480  10.540   9.871
 6913SOL    HW222572   2.616  10.607   9.877
 6914SOL     OW22573   1.162  10.473  10.462
 6914SOL    HW122574   1.224  10.472  10.388
 6914SOL    HW222575   1.158  10.566  10.487
 6915SOL     OW22576  14.470   2.973  11.213
 6915SOL    HW122577  14.507   2.955  11.126
 6915SOL    HW222578  14.502   3.061  11.235
 6916SOL     OW22579   5.091  13.194  10.666
 6916SOL    HW122580   5.029  13.171  10.597
 6916SOL    HW222581   5.054  13.273  10.706
 6917SOL     OW22582   4.584   1.230   7.873
 6917SOL    HW122583   4.507   1.174   7.886
 6917SOL    HW222584   4.568   1.306   7.929
 6918SOL     OW22585   0.748   2.275   0.025
 6918SOL    HW122586   0.752   2.187  14.860
 6918SOL    HW222587   0.753   2.260   0.120
 6919SOL     OW22588  11.929   4.843   5.469
 6919SOL    HW122589  11.925   4.859   5.563
 6919SOL    HW222590  12.016   4.806   5.454
 6920SOL     OW22591   2.184   9.320   3.358
 6920SOL    HW122592   2.114   9.371   3.397
 6920SOL    HW222593   2.232   9.382   3.304
 6921SOL     OW22594   8.982  12.866  12.019
 6921SOL    HW122595   9.016  12.923  11.951
 6921SOL    HW222596   8.914  12.814  11.976
 6922SOL     OW22597   6.454   8.136  14.221
 6922SOL    HW122598   6.484   8.215  14.266
 6922SOL    HW222599   6.358   8.145  14.219
 6923SOL     OW22600   7.174   7.968   8.646
 6923SOL    HW122601   7.192   8.018   8.566
 6923SOL    HW222602   7.119   8.026   8.698
 6924SOL     OW22603   5.226  12.154  12.851
 6924SOL    HW122604   5.317  12.181  12.839
 6924SOL    HW222605   5.175  12.220  12.803
 6925SOL     OW22606   9.826   0.727   8.035
 6925SOL    HW122607   9.792   0.743   8.123
 6925SOL    HW222608   9.754   0.751   7.977
 6926SOL     OW22609   3.085   5.294  14.618
 6926SOL    HW122610   3.177   5.309  14.596
 6926SOL    HW222611   3.045   5.381  14.617
 6927SOL     OW22612  12.882   9.960   1.717
 6927SOL    HW122613  12.858   9.908   1.794
 6927SOL    HW222614  12.800  10.003   1.691
 6928SOL     OW22615   6.423  10.561   9.581
 6928SOL    HW122616   6.468  10.621   9.521
 6928SOL    HW222617   6.465  10.575   9.665
 6929SOL     OW22618   7.512   6.828  10.723
 6929SOL    HW122619   7.513   6.909  10.672
 6929SOL    HW222620   7.436   6.837  10.781
 6930SOL     OW22621  11.865   5.088   3.719
 6930SOL    HW122622  11.886   5.128   3.804
 6930SOL    HW222623  11.861   4.994   3.737
 6931SOL     OW22624   9.503   1.270  13.635
 6931SOL    HW122625   9.565   1.206  13.671
 6931SOL    HW222626   9.556   1.347  13.616
 6932SOL     OW22627  11.975  10.914   5.622
 6932SOL    HW122628  12.040  10.874   5.680
 6932SOL    HW222629  11.897  10.861   5.634
 6933SOL     OW22630   2.256   4.538   1.726
 6933SOL    HW122631   2.225   4.565   1.640
 6933SOL    HW222632   2.297   4.617   1.763
 6934SOL     OW22633   6.896   5.633   7.954
 6934SOL    HW122634   6.991   5.636   7.963
 6934SOL    HW222635   6.863   5.662   8.039
 6935SOL     OW22636  13.982   6.641   0.935
 6935SOL    HW122637  13.995   6.549   0.910
 6935SOL    HW222638  14.071   6.676   0.945
 6936SOL     OW22639  14.439   2.988   1.047
 6936SOL    HW122640  14.400   3.032   1.122
 6936SOL    HW222641  14.469   3.058   0.990
 6937SOL     OW22642  13.014  12.895  11.147
 6937SOL    HW122643  12.966  12.930  11.222
 6937SOL    HW222644  12.995  12.801  11.148
 6938SOL     OW22645   7.673   3.036  12.414
 6938SOL    HW122646   7.760   3.000  12.430
 6938SOL    HW222647   7.640   2.986  12.340
 6939SOL     OW22648   8.818   9.284   8.034
 6939SOL    HW122649   8.745   9.299   8.093
 6939SOL    HW222650   8.808   9.193   8.006
 6940SOL     OW22651   1.279   5.330   7.842
 6940SOL    HW122652   1.355   5.311   7.786
 6940SOL    HW222653   1.207   5.283   7.801
 6941SOL     OW22654   1.880   7.305   4.977
 6941SOL    HW122655   1.931   7.224   4.987
 6941SOL    HW222656   1.916   7.347   4.899
 6942SOL     OW22657  11.907  13.698  14.034
 6942SOL    HW122658  11.992  13.719  14.073
 6942SOL    HW222659  11.855  13.778  14.044
 6943SOL     OW22660  12.503  12.493   7.556
 6943SOL    HW122661  12.431  12.436   7.585
 6943SOL    HW222662  12.526  12.459   7.470
 6944SOL     OW22663   4.768   7.228  14.456
 6944SOL    HW122664   4.835   7.189  14.400
 6944SOL    HW222665   4.816   7.278  14.521
 6945SOL     OW22666   5.859  12.513   4.407
 6945SOL    HW122667   5.776  12.511   4.360
 6945SOL    HW222668   5.838  12.483   4.495
 6946SOL     OW22669   0.786  10.866   4.194
 6946SOL    HW122670   0.736  10.924   4.252
 6946SOL    HW222671   0.795  10.785   4.243
 6947SOL     OW22672  10.077   2.300   9.520
 6947SOL    HW122673  10.072   2.355   9.599
 6947SOL    HW222674  10.015   2.229   9.536
 6948SOL     OW22675   8.127  10.675   5.010
 6948SOL    HW122676   8.110  10.717   4.926
 6948SOL    HW222677   8.041  10.644   5.040
 6949SOL     OW22678  12.114   4.554  14.786
 6949SOL    HW122679  12.131   4.494  14.714
 6949SOL    HW222680  12.035   4.520  14.828
 6950SOL     OW22681  14.697   5.588   8.063
 6950SOL    HW122682  14.773   5.532   8.076
 6950SOL    HW222683  14.733   5.671   8.033
 6951SOL     OW22684   6.379  10.470   3.338
 6951SOL    HW122685   6.447  10.402   3.333
 6951SOL    HW222686   6.304  10.425   3.377
 6952SOL     OW22687   5.038   0.057   5.882
 6952SOL    HW122688   5.126   0.029   5.905
 6952SOL    HW222689   5.047   0.150   5.860
 6953SOL     OW22690   3.553  14.136   1.629
 6953SOL    HW122691   3.494  14.129   1.554
 6953SOL    HW222692   3.495  14.154   1.703
 6954SOL     OW22693   9.891   6.584   7.734
 6954SOL    HW122694   9.797   6.575   7.750
 6954SOL    HW222695   9.932   6.569   7.819
 6955SOL     OW22696  11.525  14.234  14.140
 6955SOL    HW122697  11.532  14.205  14.049
 6955SOL    HW222698  11.470  14.312  14.137
 6956SOL     OW22699  12.917   2.731   9.219
 6956SOL    HW122700  13.005   2.764   9.204
 6956SOL    HW222701  12.870   2.751   9.138
 6957SOL     OW22702   3.395  14.672  12.441
 6957SOL    HW122703   3.382  14.586  12.401
 6957SOL    HW222704   3.471  14.708  12.396
 6958SOL     OW22705   1.927  10.829   1.086
 6958SOL    HW122706   1.897  10.917   1.061
 6958SOL    HW222707   1.943  10.785   1.002
 6959SOL     OW22708   4.500   3.970   0.014
 6959SOL    HW122709   4.508   4.014  14.802
 6959SOL    HW222710   4.588   3.939   0.034
 6960SOL     OW22711   6.213   0.138   4.244
 6960SOL    HW122712   6.242   0.092   4.166
 6960SOL    HW222713   6.130   0.096   4.268
 6961SOL     OW22714   0.528   3.896   4.115
 6961SOL    HW122715   0.612   3.936   4.093
 6961SOL    HW222716   0.483   3.887   4.030
 6962SOL     OW22717   7.831  13.616   7.381
 6962SOL    HW122718   7.740  13.618   7.407
 6962SOL    HW222719   7.829  13.593   7.287
 6963SOL     OW22720   7.607   9.189   9.699
 6963SOL    HW122721   7.676   9.254   9.709
 6963SOL    HW222722   7.653   9.105   9.697
 6964SOL     OW22723  10.339   2.732  13.148
 6964SOL    HW122724  10.323   2.733  13.242
 6964SOL    HW222725  10.343   2.825  13.124
 6965SOL     OW22726  13.265   2.258  10.528
 6965SOL    HW122727  13.358   2.256  10.506
 6965SOL    HW222728  13.220   2.255  10.444
 6966SOL     OW22729   8.090  12.171   8.732
 6966SOL    HW122730   8.022  12.207   8.789
 6966SOL    HW222731   8.085  12.076   8.745
 6967SOL     OW22732   6.280   9.801  10.323
 6967SOL    HW122733   6.232   9.734  10.371
 6967SOL    HW222734   6.214   9.845  10.270
 6968SOL     OW22735   1.142  11.218   8.131
 6968SOL    HW122736   1.115  11.144   8.076
 6968SOL    HW222737   1.205  11.266   8.078
 6969SOL     OW22738   0.765  14.817  10.371
 6969SOL    HW122739   0.813  14.856  10.444
 6969SOL    HW222740   0.813  14.736  10.352
 6970SOL     OW22741  11.482  14.339   9.628
 6970SOL    HW122742  11.497  14.256   9.672
 6970SOL    HW222743  11.529  14.333   9.545
 6971SOL     OW22744  10.150  11.213   5.505
 6971SOL    HW122745  10.091  11.158   5.454
 6971SOL    HW222746  10.194  11.268   5.440
 6972SOL     OW22747   5.188   4.035  11.788
 6972SOL    HW122748   5.132   4.014  11.713
 6972SOL    HW222749   5.268   3.985  11.773
 6973SOL     OW22750   2.730  14.817   5.198
 6973SOL    HW122751   2.781  14.737   5.207
 6973SOL    HW222752   2.766   0.003   5.265
 6974SOL     OW22753   7.261  10.746   4.261
 6974SOL    HW122754   7.282  10.818   4.201
 6974SOL    HW222755   7.320  10.759   4.335
 6975SOL     OW22756  10.681  10.028   0.843
 6975SOL    HW122757  10.651   9.979   0.920
 6975SOL    HW222758  10.719   9.962   0.785
 6976SOL     OW22759  11.557  13.932  13.442
 6976SOL    HW122760  11.605  13.887  13.373
 6976SOL    HW222761  11.619  13.936  13.515
 6977SOL     OW22762   3.019   5.070   2.724
 6977SOL    HW122763   3.046   5.154   2.761
 6977SOL    HW222764   3.042   5.006   2.791
 6978SOL     OW22765   6.614  13.094   7.423
 6978SOL    HW122766   6.670  13.017   7.429
 6978SOL    HW222767   6.674  13.168   7.421
 6979SOL     OW22768  11.092  14.048   8.632
 6979SOL    HW122769  11.115  14.131   8.673
 6979SOL    HW222770  11.002  14.032   8.660
 6980SOL     OW22771  14.064  12.769  12.749
 6980SOL    HW122772  14.032  12.808  12.668
 6980SOL    HW222773  13.985  12.754  12.801
 6981SOL     OW22774   1.959   6.428   0.172
 6981SOL    HW122775   1.945   6.338   0.141
 6981SOL    HW222776   1.922   6.429   0.260
 6982SOL     OW22777   2.022  12.420   0.696
 6982SOL    HW122778   2.054  12.476   0.625
 6982SOL    HW222779   1.927  12.417   0.683
 6983SOL     OW22780   3.688  11.346   3.084
 6983SOL    HW122781   3.693  11.335   3.179
 6983SOL    HW222782   3.697  11.257   3.050
 6984SOL     OW22783   5.307   9.744  13.058
 6984SOL    HW122784   5.288   9.664  13.009
 6984SOL    HW222785   5.227   9.763  13.106
 6985SOL     OW22786   3.147   4.919  14.476
 6985SOL    HW122787   3.172   4.979  14.406
 6985SOL    HW222788   3.067   4.957  14.513
 6986SOL     OW22789   5.712  12.365   5.332
 6986SOL    HW122790   5.632  12.347   5.283
 6986SOL    HW222791   5.704  12.456   5.359
 6987SOL     OW22792   2.213  11.628   2.831
 6987SOL    HW122793   2.190  11.577   2.752
 6987SOL    HW222794   2.169  11.711   2.819
 6988SOL     OW22795   1.544  13.916   3.320
 6988SOL    HW122796   1.613  13.940   3.382
 6988SOL    HW222797   1.589  13.868   3.252
 6989SOL     OW22798  12.409   8.880   6.502
 6989SOL    HW122799  12.502   8.871   6.524
 6989SOL    HW222800  12.401   8.969   6.468
 6990SOL     OW22801   9.727   6.282  11.335
 6990SOL    HW122802   9.669   6.334  11.390
 6990SOL    HW222803   9.677   6.203  11.314
 6991SOL     OW22804  13.144   0.301   7.221
 6991SOL    HW122805  13.056   0.265   7.212
 6991SOL    HW222806  13.144   0.379   7.164
 6992SOL     OW22807   9.033   3.710  14.261
 6992SOL    HW122808   9.100   3.714  14.330
 6992SOL    HW222809   9.062   3.638  14.205
 6993SOL     OW22810   1.015   8.775   9.492
 6993SOL    HW122811   1.091   8.721   9.468
 6993SOL    HW222812   1.049   8.864   9.494
 6994SOL     OW22813   0.392   7.823   3.209
 6994SOL    HW122814   0.332   7.897   3.204
 6994SOL    HW222815   0.438   7.824   3.125
 6995SOL     OW22816   7.645   4.053   9.384
 6995SOL    HW122817   7.709   3.983   9.376
 6995SOL    HW222818   7.571   4.014   9.430
 6996SOL     OW22819   2.558   2.316  13.608
 6996SOL    HW122820   2.629   2.271  13.563
 6996SOL    HW222821   2.582   2.408  13.607
 6997SOL     OW22822  12.913  12.598  11.482
 6997SOL    HW122823  12.911  12.611  11.576
 6997SOL    HW222824  12.995  12.551  11.466
 6998SOL     OW22825   5.222  13.225   6.227
 6998SOL    HW122826   5.273  13.144   6.225
 6998SOL    HW222827   5.219  13.253   6.135
 6999SOL     OW22828   6.844   0.365  14.204
 6999SOL    HW122829   6.788   0.438  14.228
 6999SOL    HW222830   6.796   0.287  14.232
 7000SOL     OW22831  10.234  12.605  12.549
 7000SOL    HW122832  10.172  12.562  12.490
 7000SOL    HW222833  10.225  12.698  12.530
 7001SOL     OW22834  11.548   0.545  10.586
 7001SOL    HW122835  11.567   0.566  10.494
 7001SOL    HW222836  11.523   0.453  10.584
 7002SOL     OW22837  11.869   7.706   4.006
 7002SOL    HW122838  11.882   7.705   3.911
 7002SOL    HW222839  11.780   7.673   4.018
 7003SOL     OW22840   3.303   2.037   6.451
 7003SOL    HW122841   3.219   1.992   6.444
 7003SOL    HW222842   3.340   2.034   6.363
 7004SOL     OW22843  11.335  12.630   4.673
 7004SOL    HW122844  11.330  12.599   4.764
 7004SOL    HW222845  11.318  12.553   4.620
 7005SOL     OW22846   4.964   6.020   8.847
 7005SOL    HW122847   4.910   6.099   8.844
 7005SOL    HW222848   4.916   5.961   8.905
 7006SOL     OW22849   5.160   4.454   0.572
 7006SOL    HW122850   5.183   4.547   0.576
 7006SOL    HW222851   5.065   4.453   0.557
 7007SOL     OW22852  11.092   5.427  13.050
 7007SOL    HW122853  10.997   5.422  13.036
 7007SOL    HW222854  11.119   5.337  13.062
 7008SOL     OW22855  13.259  12.833   8.645
 7008SOL    HW122856  13.252  12.738   8.652
 7008SOL    HW222857  13.323  12.858   8.711
 7009SOL     OW22858   3.841   2.113   7.016
 7009SOL    HW122859   3.875   2.025   7.030
 7009SOL    HW222860   3.798   2.109   6.931
 7010SOL     OW22861  12.674  10.642   9.991
 7010SOL    HW122862  12.586  10.663   9.961
 7010SOL    HW222863  12.689  10.552   9.962
 7011SOL     OW22864   5.049  11.214  10.355
 7011SOL    HW122865   5.143  11.230  10.358
 7011SOL    HW222866   5.026  11.191  10.445
 7012SOL     OW22867   9.930   1.019   7.685
 7012SOL    HW122868   9.953   1.104   7.722
 7012SOL    HW222869  10.011   0.986   7.646
 7013SOL     OW22870   2.502   5.524  11.589
 7013SOL    HW122871   2.590   5.531  11.552
 7013SOL    HW222872   2.467   5.613  11.585
 7014SOL     OW22873   1.738   1.457  10.666
 7014SOL    HW122874   1.787   1.537  10.682
 7014SOL    HW222875   1.669   1.457  10.732
 7015SOL     OW22876   7.520  14.253  11.187
 7015SOL    HW122877   7.609  14.258  11.150
 7015SOL    HW222878   7.511  14.335  11.236
 7016SOL     OW22879   6.729   2.431   4.597
 7016SOL    HW122880   6.795   2.375   4.637
 7016SOL    HW222881   6.771   2.517   4.590
 7017SOL     OW22882   1.785   0.689   9.987
 7017SOL    HW122883   1.755   0.700  10.077
 7017SOL    HW222884   1.785   0.778   9.951
 7018SOL     OW22885   7.860   9.945   4.927
 7018SOL    HW122886   7.869  10.016   4.990
 7018SOL    HW222887   7.933   9.957   4.866
 7019SOL     OW22888   6.289  11.526   2.042
 7019SOL    HW122889   6.223  11.459   2.024
 7019SOL    HW222890   6.294  11.529   2.137
 7020SOL     OW22891  10.529   2.960  12.714
 7020SOL    HW122892  10.492   3.021  12.778
 7020SOL    HW222893  10.624   2.974  12.719
 7021SOL     OW22894   6.740   3.738   3.093
 7021SOL    HW122895   6.722   3.761   3.184
 7021SOL    HW222896   6.804   3.803   3.064
 7022SOL     OW22897   3.887   0.717   9.261
 7022SOL    HW122898   3.861   0.685   9.175
 7022SOL    HW222899   3.981   0.736   9.253
 7023SOL     OW22900   1.454   8.930  13.383
 7023SOL    HW122901   1.537   8.923  13.429
 7023SOL    HW222902   1.473   8.900  13.294
 7024SOL     OW22903  12.514   7.591   1.291
 7024SOL    HW122904  12.540   7.627   1.207
 7024SOL    HW222905  12.446   7.527   1.270
 7025SOL     OW22906   5.026  11.585  13.461
 7025SOL    HW122907   5.095  11.569  13.396
 7025SOL    HW222908   4.968  11.648  13.419
 7026SOL     OW22909  11.561   3.249   9.419
 7026SOL    HW122910  11.531   3.177   9.474
 7026SOL    HW222911  11.578   3.321   9.479
 7027SOL     OW22912   0.903   5.134   2.966
 7027SOL    HW122913   0.928   5.044   2.944
 7027SOL    HW222914   0.909   5.138   3.061
 7028SOL     OW22915   2.737   5.001   2.862
 7028SOL    HW122916   2.676   4.999   2.789
 7028SOL    HW222917   2.821   5.022   2.823
 7029SOL     OW22918   4.580   9.265  12.927
 7029SOL    HW122919   4.579   9.195  12.862
 7029SOL    HW222920   4.490   9.297  12.930
 7030SOL     OW22921   4.434   6.779   3.652
 7030SOL    HW122922   4.509   6.834   3.673
 7030SOL    HW222923   4.411   6.735   3.734
 7031SOL     OW22924   3.457   0.931  13.744
 7031SOL    HW122925   3.532   0.898  13.695
 7031SOL    HW222926   3.471   0.901  13.833
 7032SOL     OW22927  10.419   3.378   8.866
 7032SOL    HW122928  10.369   3.460   8.867
 7032SOL    HW222929  10.401   3.341   8.780
 7033SOL     OW22930   2.210   1.112  11.138
 7033SOL    HW122931   2.255   1.114  11.223
 7033SOL    HW222932   2.139   1.050  11.150
 7034SOL     OW22933   9.509   2.418   3.103
 7034SOL    HW122934   9.506   2.382   3.191
 7034SOL    HW222935   9.489   2.511   3.113
 7035SOL     OW22936  12.806   7.512  11.600
 7035SOL    HW122937  12.760   7.546  11.677
 7035SOL    HW222938  12.812   7.586  11.541
 7036SOL     OW22939  13.466  12.983   2.763
 7036SOL    HW122940  13.450  13.056   2.824
 7036SOL    HW222941  13.429  13.013   2.680
 7037SOL     OW22942   0.473  11.328  12.395
 7037SOL    HW122943   0.541  11.290  12.340
 7037SOL    HW222944   0.446  11.256  12.452
 7038SOL     OW22945   5.562   7.808   4.050
 7038SOL    HW122946   5.648   7.827   4.012
 7038SOL    HW222947   5.539   7.888   4.097
 7039SOL     OW22948   6.934   7.873   3.486
 7039SOL    HW122949   6.870   7.878   3.415
 7039SOL    HW222950   6.944   7.780   3.504
 7040SOL     OW22951   2.834  14.115   1.740
 7040SOL    HW122952   2.806  14.037   1.692
 7040SOL    HW222953   2.909  14.148   1.691
 7041SOL     OW22954  10.592   3.169   6.837
 7041SOL    HW122955  10.512   3.134   6.877
 7041SOL    HW222956  10.573   3.170   6.744
 7042SOL     OW22957   1.058   6.495   2.727
 7042SOL    HW122958   1.076   6.477   2.635
 7042SOL    HW222959   1.144   6.507   2.767
 7043SOL     OW22960   4.497   6.093   2.639
 7043SOL    HW122961   4.577   6.124   2.682
 7043SOL    HW222962   4.518   6.003   2.613
 7044SOL     OW22963  14.824  11.297   9.529
 7044SOL    HW122964  14.729  11.293   9.517
 7044SOL    HW222965  14.850  11.381   9.493
 7045SOL     OW22966   2.783   7.151  14.870
 7045SOL    HW122967   2.779   7.192  14.783
 7045SOL    HW222968   2.824   7.217   0.054
 7046SOL     OW22969   1.588   8.754  13.803
 7046SOL    HW122970   1.660   8.813  13.778
 7046SOL    HW222971   1.614   8.669  13.769
 7047SOL     OW22972   7.910   4.830   1.763
 7047SOL    HW122973   7.927   4.922   1.742
 7047SOL    HW222974   7.827   4.831   1.810
 7048SOL     OW22975  14.705   3.340   0.782
 7048SOL    HW122976  14.779   3.327   0.841
 7048SOL    HW222977  14.718   3.428   0.745
 7049SOL     OW22978   0.136   5.042   7.493
 7049SOL    HW122979   0.223   5.003   7.496
 7049SOL    HW222980   0.110   5.037   7.401
 7050SOL     OW22981   2.501   8.573   4.940
 7050SOL    HW122982   2.578   8.525   4.971
 7050SOL    HW222983   2.515   8.581   4.846
 7051SOL     OW22984   0.735   9.728  14.823
 7051SOL    HW122985   0.786   9.663  14.775
 7051SOL    HW222986   0.696   9.784  14.756
 7052SOL     OW22987   8.191  13.013   8.117
 7052SOL    HW122988   8.244  13.049   8.045
 7052SOL    HW222989   8.110  12.985   8.074
 7053SOL     OW22990  12.929   9.676   3.434
 7053SOL    HW122991  12.886   9.705   3.515
 7053SOL    HW222992  12.971   9.593   3.458
 7054SOL     OW22993   9.012   3.724   7.692
 7054SOL    HW122994   8.937   3.694   7.743
 7054SOL    HW222995   8.984   3.808   7.656
 7055SOL     OW22996  12.851   3.199   7.411
 7055SOL    HW122997  12.943   3.209   7.435
 7055SOL    HW222998  12.807   3.271   7.456
 7056SOL     OW22999   3.494   5.540   4.086
 7056SOL    HW123000   3.440   5.462   4.101
 7056SOL    HW223001   3.473   5.567   3.997
 7057SOL     OW23002   7.570  13.719  10.481
 7057SOL    HW123003   7.522  13.636  10.476
 7057SOL    HW223004   7.594  13.738  10.390
 7058SOL     OW23005  12.195   6.804   0.474
 7058SOL    HW123006  12.160   6.852   0.550
 7058SOL    HW223007  12.288   6.826   0.472
 7059SOL     OW23008   9.261  13.895  11.048
 7059SOL    HW123009   9.235  13.973  11.097
 7059SOL    HW223010   9.194  13.886  10.979
 7060SOL     OW23011   9.749  14.069  10.599
 7060SOL    HW123012   9.733  14.031  10.686
 7060SOL    HW223013   9.669  14.119  10.581
 7061SOL     OW23014   4.386   0.454   9.523
 7061SOL    HW123015   4.454   0.521   9.509
 7061SOL    HW223016   4.433   0.371   9.519
 7062SOL     OW23017   4.526   6.399  14.598
 7062SOL    HW123018   4.468   6.325  14.583
 7062SOL    HW223019   4.596   6.365  14.653
 7063SOL     OW23020   0.148   2.658   3.015
 7063SOL    HW123021   0.070   2.602   3.010
 7063SOL    HW223022   0.168   2.663   3.108
 7064SOL     OW23023   5.619   7.958   2.266
 7064SOL    HW123024   5.640   7.988   2.178
 7064SOL    HW223025   5.668   7.876   2.276
 7065SOL     OW23026  14.456  10.935   0.906
 7065SOL    HW123027  14.544  10.935   0.943
 7065SOL    HW223028  14.437  11.027   0.887
 7066SOL     OW23029  12.130   1.970   8.482
 7066SOL    HW123030  12.084   1.981   8.566
 7066SOL    HW223031  12.113   2.051   8.435
 7067SOL     OW23032  14.308  11.691   1.942
 7067SOL    HW123033  14.249  11.703   2.016
 7067SOL    HW223034  14.393  11.670   1.982
 7068SOL     OW23035   8.065   0.557   3.493
 7068SOL    HW123036   8.127   0.548   3.421
 7068SOL    HW223037   8.089   0.640   3.534
 7069SOL     OW23038   4.581   9.843   7.048
 7069SOL    HW123039   4.615   9.882   6.968
 7069SOL    HW223040   4.501   9.797   7.021
 7070SOL     OW23041   9.289   1.552   1.350
 7070SOL    HW123042   9.362   1.608   1.323
 7070SOL    HW223043   9.327   1.465   1.356
 7071SOL     OW23044   4.838  11.194   1.060
 7071SOL    HW123045   4.863  11.131   1.127
 7071SOL    HW223046   4.746  11.214   1.078
 7072SOL     OW23047   0.976  10.299   9.854
 7072SOL    HW123048   0.918  10.334   9.922
 7072SOL    HW223049   1.060  10.342   9.871
 7073SOL     OW23050   3.504   3.047   3.773
 7073SOL    HW123051   3.497   2.973   3.713
 7073SOL    HW223052   3.514   3.008   3.859
 7074SOL     OW23053   2.670  14.642   2.869
 7074SOL    HW123054   2.729  14.706   2.909
 7074SOL    HW223055   2.583  14.679   2.880
 7075SOL     OW23056   1.181   6.030   6.275
 7075SOL    HW123057   1.173   6.123   6.299
 7075SOL    HW223058   1.198   5.986   6.358
 7076SOL     OW23059  13.656   0.537  14.851
 7076SOL    HW123060  13.621   0.449  14.860
 7076SOL    HW223061  13.600   0.579  14.785
 7077SOL     OW23062   8.507   8.659  12.870
 7077SOL    HW123063   8.466   8.573  12.869
 7077SOL    HW223064   8.437   8.718  12.899
 7078SOL     OW23065   8.378   1.471   6.685
 7078SOL    HW123066   8.349   1.561   6.696
 7078SOL    HW223067   8.355   1.449   6.595
 7079SOL     OW23068   8.618   4.547   2.872
 7079SOL    HW123069   8.570   4.609   2.927
 7079SOL    HW223070   8.707   4.549   2.906
 7080SOL     OW23071  14.109  13.157   7.730
 7080SOL    HW123072  14.203  13.168   7.747
 7080SOL    HW223073  14.069  13.236   7.765
 7081SOL     OW23074   4.774   5.094  12.466
 7081SOL    HW123075   4.825   5.175  12.469
 7081SOL    HW223076   4.836   5.028  12.433
 7082SOL     OW23077  10.661   1.450  13.958
 7082SOL    HW123078  10.665   1.523  13.897
 7082SOL    HW223079  10.678   1.488  14.044
 7083SOL     OW23080   0.040  13.045   3.898
 7083SOL    HW123081   0.004  12.958   3.884
 7083SOL    HW223082   0.088  13.065   3.818
 7084SOL     OW23083   6.096  12.427   1.270
 7084SOL    HW123084   6.002  12.417   1.252
 7084SOL    HW223085   6.101  12.505   1.325
 7085SOL     OW23086  10.816   6.443   1.093
 7085SOL    HW123087  10.723   6.466   1.089
 7085SOL    HW223088  10.857   6.497   1.025
 7086SOL     OW23089   2.083   6.023  13.811
 7086SOL    HW123090   2.169   6.063  13.825
 7086SOL    HW223091   2.101   5.948  13.754
 7087SOL     OW23092  10.450  12.765   9.713
 7087SOL    HW123093  10.538  12.792   9.688
 7087SOL    HW223094  10.415  12.838   9.764
 7088SOL     OW23095   5.813   3.970  12.195
 7088SOL    HW123096   5.894   4.007  12.161
 7088SOL    HW223097   5.840   3.888  12.236
 7089SOL     OW23098  11.254  13.376  12.836
 7089SOL    HW123099  11.299  13.461  12.833
 7089SOL    HW223100  11.262  13.347  12.926
 7090SOL     OW23101   5.770   4.943  11.705
 7090SOL    HW123102   5.773   4.936  11.610
 7090SOL    HW223103   5.857   4.914  11.734
 7091SOL     OW23104  14.602   8.480   5.503
 7091SOL    HW123105  14.581   8.420   5.574
 7091SOL    HW223106  14.689   8.514   5.524
 7092SOL     OW23107  14.647   2.554   9.520
 7092SOL    HW123108  14.617   2.477   9.473
 7092SOL    HW223109  14.640   2.625   9.456
 7093SOL     OW23110  13.746   4.713  13.434
 7093SOL    HW123111  13.717   4.786  13.489
 7093SOL    HW223112  13.666   4.662  13.417
 7094SOL     OW23113   8.529   4.757   7.015
 7094SOL    HW123114   8.575   4.697   6.957
 7094SOL    HW223115   8.438   4.728   7.013
 7095SOL     OW23116  12.670  11.860  13.301
 7095SOL    HW123117  12.581  11.852  13.335
 7095SOL    HW223118  12.695  11.771  13.277
 7096SOL     OW23119   3.281  11.751   1.156
 7096SOL    HW123120   3.223  11.696   1.209
 7096SOL    HW223121   3.227  11.778   1.082
 7097SOL     OW23122   8.966   5.764   6.848
 7097SOL    HW123123   8.975   5.670   6.865
 7097SOL    HW223124   8.902   5.794   6.913
 7098SOL     OW23125   8.135   5.742   2.974
 7098SOL    HW123126   8.060   5.723   3.030
 7098SOL    HW223127   8.102   5.734   2.885
 7099SOL     OW23128  13.090   7.224  11.413
 7099SOL    HW123129  13.109   7.305  11.366
 7099SOL    HW223130  13.076   7.252  11.504
 7100SOL     OW23131   2.453   7.128   1.953
 7100SOL    HW123132   2.424   7.065   2.019
 7100SOL    HW223133   2.527   7.086   1.910
 7101SOL     OW23134   9.386   2.685   3.157
 7101SOL    HW123135   9.375   2.636   3.239
 7101SOL    HW223136   9.401   2.775   3.184
 7102SOL     OW23137   3.674  12.275   3.003
 7102SOL    HW123138   3.711  12.362   3.017
 7102SOL    HW223139   3.592  12.291   2.955
 7103SOL     OW23140   4.412  13.847  12.546
 7103SOL    HW123141   4.448  13.928  12.510
 7103SOL    HW223142   4.430  13.781  12.478
 7104SOL     OW23143   5.567  11.442   9.770
 7104SOL    HW123144   5.593  11.521   9.722
 7104SOL    HW223145   5.619  11.372   9.730
 7105SOL     OW23146  12.294  11.073   2.267
 7105SOL    HW123147  12.294  11.148   2.208
 7105SOL    HW223148  12.312  10.998   2.211
 7106SOL     OW23149  10.396   4.074  14.590
 7106SOL    HW123150  10.445   3.995  14.563
 7106SOL    HW223151  10.336   4.090  14.518
 7107SOL     OW23152   4.810  10.690  10.858
 7107SOL    HW123153   4.830  10.689  10.765
 7107SOL    HW223154   4.864  10.760  10.894
 7108SOL     OW23155   8.007   5.553  12.737
 7108SOL    HW123156   8.060   5.623  12.777
 7108SOL    HW223157   7.917   5.578  12.758
 7109SOL     OW23158  14.697   8.043   5.802
 7109SOL    HW123159  14.644   8.102   5.748
 7109SOL    HW223160  14.674   7.956   5.770
 7110SOL     OW23161   2.445   4.837  12.765
 7110SOL    HW123162   2.428   4.757  12.717
 7110SOL    HW223163   2.538   4.855  12.751
 7111SOL     OW23164   7.207   8.994   1.070
 7111SOL    HW123165   7.225   8.900   1.079
 7111SOL    HW223166   7.234   9.032   1.154
 7112SOL     OW23167   0.638   7.359   2.981
 7112SOL    HW123168   0.663   7.296   3.048
 7112SOL    HW223169   0.701   7.431   2.990
 7113SOL     OW23170   0.596   5.040  11.641
 7113SOL    HW123171   0.684   5.011  11.665
 7113SOL    HW223172   0.583   5.006  11.552
 7114SOL     OW23173   1.162  10.721  10.570
 7114SOL    HW123174   1.092  10.721  10.634
 7114SOL    HW223175   1.170  10.812  10.541
 7115SOL     OW23176  10.669   6.813   0.591
 7115SOL    HW123177  10.605   6.746   0.615
 7115SOL    HW223178  10.655   6.883   0.655
 7116SOL     OW23179   8.761   9.252   7.408
 7116SOL    HW123180   8.733   9.191   7.476
 7116SOL    HW223181   8.776   9.334   7.455
 7117SOL     OW23182   2.999   5.278   4.279
 7117SOL    HW123183   3.019   5.315   4.193
 7117SOL    HW223184   2.917   5.231   4.267
 7118SOL     OW23185   8.568   0.571   1.348
 7118SOL    HW123186   8.651   0.618   1.352
 7118SOL    HW223187   8.535   0.572   1.437
 7119SOL     OW23188   1.309   1.855   1.427
 7119SOL    HW123189   1.359   1.774   1.437
 7119SOL    HW223190   1.241   1.850   1.495
 7120SOL     OW23191   9.056   5.519  14.721
 7120SOL    HW123192   9.112   5.441  14.722
 7120SOL    HW223193   9.062   5.552  14.632
 7121SOL     OW23194  13.644   6.510  12.778
 7121SOL    HW123195  13.679   6.495  12.690
 7121SOL    HW223196  13.574   6.574  12.765
 7122SOL     OW23197   2.587   2.916   0.876
 7122SOL    HW123198   2.533   2.837   0.870
 7122SOL    HW223199   2.656   2.893   0.938
 7123SOL     OW23200  11.226  13.655   2.912
 7123SOL    HW123201  11.154  13.716   2.929
 7123SOL    HW223202  11.304  13.702   2.939
 7124SOL     OW23203   0.245   2.206   9.291
 7124SOL    HW123204   0.185   2.165   9.229
 7124SOL    HW223205   0.199   2.206   9.374
 7125SOL     OW23206   8.848  14.016   1.314
 7125SOL    HW123207   8.942  14.028   1.327
 7125SOL    HW223208   8.808  14.073   1.381
 7126SOL     OW23209  12.425   0.014   6.223
 7126SOL    HW123210  12.469  14.833   6.289
 7126SOL    HW223211  12.374   0.077   6.274
 7127SOL     OW23212  10.006  11.660   6.910
 7127SOL    HW123213  10.040  11.571   6.923
 7127SOL    HW223214  10.024  11.679   6.818
 7128SOL     OW23215   4.071  13.666   8.130
 7128SOL    HW123216   4.090  13.576   8.103
 7128SOL    HW223217   4.106  13.672   8.219
 7129SOL     OW23218  14.397   2.592  14.504
 7129SOL    HW123219  14.306   2.614  14.524
 7129SOL    HW223220  14.449   2.645  14.564
 7130SOL     OW23221   1.366   5.545   0.914
 7130SOL    HW123222   1.299   5.487   0.877
 7130SOL    HW223223   1.449   5.510   0.881
 7131SOL     OW23224   2.420   7.371   5.360
 7131SOL    HW123225   2.372   7.454   5.364
 7131SOL    HW223226   2.512   7.396   5.369
 7132SOL     OW23227  12.415   3.906   5.915
 7132SOL    HW123228  12.332   3.950   5.932
 7132SOL    HW223229  12.391   3.814   5.903
 7133SOL     OW23230   8.186   2.830   4.843
 7133SOL    HW123231   8.133   2.754   4.817
 7133SOL    HW223232   8.142   2.905   4.804
 7134SOL     OW23233   9.785   0.001   7.105
 7134SOL    HW123234   9.742  14.831   7.180
 7134SOL    HW223235   9.878  14.864   7.123
 7135SOL     OW23236   0.031   9.329  13.138
 7135SOL    HW123237   0.083   9.269  13.191
 7135SOL    HW223238  14.860   9.272  13.073
 7136SOL     OW23239  10.996   5.992   7.517
 7136SOL    HW123240  10.922   5.932   7.507
 7136SOL    HW223241  11.073   5.940   7.495
 7137SOL     OW23242   2.900  12.868   7.242
 7137SOL    HW123243   2.925  12.776   7.240
 7137SOL    HW223244   2.953  12.909   7.173
 7138SOL     OW23245   7.937   9.989   1.890
 7138SOL    HW123246   7.932   9.926   1.961
 7138SOL    HW223247   7.953  10.073   1.932
 7139SOL     OW23248   1.633   9.223  13.295
 7139SOL    HW123249   1.584   9.167  13.354
 7139SOL    HW223250   1.589   9.213  13.210
 7140SOL     OW23251  13.170   7.208   8.047
 7140SOL    HW123252  13.199   7.191   7.957
 7140SOL    HW223253  13.239   7.261   8.085
 7141SOL     OW23254   0.802   4.697   8.528
 7141SOL    HW123255   0.878   4.682   8.472
 7141SOL    HW223256   0.837   4.745   8.603
 7142SOL     OW23257   6.773   6.365   3.028
 7142SOL    HW123258   6.838   6.427   2.996
 7142SOL    HW223259   6.717   6.348   2.952
 7143SOL     OW23260   5.595  10.902   1.374
 7143SOL    HW123261   5.602  10.871   1.284
 7143SOL    HW223262   5.659  10.973   1.380
 7144SOL     OW23263   6.754   5.558  10.331
 7144SOL    HW123264   6.847   5.549  10.349
 7144SOL    HW223265   6.746   5.644  10.289
 7145SOL     OW23266   0.359  10.083  10.234
 7145SOL    HW123267   0.324  10.000  10.266
 7145SOL    HW223268   0.409  10.059  10.155
 7146SOL     OW23269   6.943  14.311  12.679
 7146SOL    HW123270   6.940  14.393  12.631
 7146SOL    HW223271   6.851  14.290  12.697
 7147SOL     OW23272  13.218   7.224   9.450
 7147SOL    HW123273  13.254   7.143   9.413
 7147SOL    HW223274  13.251   7.226   9.540
 7148SOL     OW23275   4.825  12.321   6.335
 7148SOL    HW123276   4.744  12.372   6.336
 7148SOL    HW223277   4.884  12.371   6.279
 7149SOL     OW23278   7.570  11.162   0.540
 7149SOL    HW123279   7.511  11.209   0.599
 7149SOL    HW223280   7.595  11.227   0.475
 7150SOL     OW23281   6.176   1.403  14.100
 7150SOL    HW123282   6.236   1.476  14.112
 7150SOL    HW223283   6.094   1.433  14.138
 7151SOL     OW23284   2.849   5.429   4.614
 7151SOL    HW123285   2.827   5.372   4.540
 7151SOL    HW223286   2.921   5.483   4.582
 7152SOL     OW23287   4.315   1.878  14.438
 7152SOL    HW123288   4.375   1.808  14.410
 7152SOL    HW223289   4.331   1.949  14.376
 7153SOL     OW23290  14.482   4.377   5.453
 7153SOL    HW123291  14.467   4.471   5.460
 7153SOL    HW223292  14.525   4.366   5.368
 7154SOL     OW23293  12.293  10.915  11.840
 7154SOL    HW123294  12.221  10.952  11.788
 7154SOL    HW223295  12.357  10.886  11.775
 7155SOL     OW23296   3.656  13.905  14.463
 7155SOL    HW123297   3.689  13.826  14.505
 7155SOL    HW223298   3.618  13.875  14.381
 7156SOL     OW23299   7.927  10.369   3.395
 7156SOL    HW123300   7.885  10.358   3.310
 7156SOL    HW223301   7.855  10.371   3.458
 7157SOL     OW23302   1.352  14.870   8.661
 7157SOL    HW123303   1.293  14.849   8.734
 7157SOL    HW223304   1.321   0.082   8.628
 7158SOL     OW23305   9.827   0.516  12.916
 7158SOL    HW123306   9.798   0.497  13.006
 7158SOL    HW223307   9.761   0.477  12.860
 7159SOL     OW23308   9.445   7.028  13.318
 7159SOL    HW123309   9.439   7.015  13.223
 7159SOL    HW223310   9.354   7.024  13.348
 7160SOL     OW23311   6.387  13.851  13.899
 7160SOL    HW123312   6.437  13.773  13.874
 7160SOL    HW223313   6.407  13.915  13.831
 7161SOL     OW23314   2.345   3.177  11.477
 7161SOL    HW123315   2.352   3.272  11.465
 7161SOL    HW223316   2.251   3.160  11.482
 7162SOL     OW23317   0.966   6.589   9.435
 7162SOL    HW123318   0.928   6.559   9.352
 7162SOL    HW223319   1.042   6.641   9.410
 7163SOL     OW23320   7.979   1.253   0.694
 7163SOL    HW123321   8.036   1.213   0.760
 7163SOL    HW223322   7.990   1.199   0.616
 7164SOL     OW23323  10.404  13.725   0.710
 7164SOL    HW123324  10.316  13.687   0.715
 7164SOL    HW223325  10.430  13.736   0.802
 7165SOL     OW23326   2.444  10.655   0.822
 7165SOL    HW123327   2.409  10.593   0.885
 7165SOL    HW223328   2.453  10.737   0.871
 7166SOL     OW23329   3.127  13.871  13.016
 7166SOL    HW123330   3.089  13.954  12.987
 7166SOL    HW223331   3.186  13.895  13.087
 7167SOL     OW23332   6.599   0.029   8.032
 7167SOL    HW123333   6.599   0.002   8.124
 7167SOL    HW223334   6.640   0.115   8.033
 7168SOL     OW23335  11.929   2.868   6.932
 7168SOL    HW123336  11.981   2.930   6.984
 7168SOL    HW223337  11.839   2.885   6.958
 7169SOL     OW23338   9.198   2.187  11.128
 7169SOL    HW123339   9.235   2.204  11.214
 7169SOL    HW223340   9.243   2.248  11.069
 7170SOL     OW23341   3.177   7.762   3.157
 7170SOL    HW123342   3.160   7.687   3.214
 7170SOL    HW223343   3.269   7.784   3.173
 7171SOL     OW23344  14.802  13.355   3.599
 7171SOL    HW123345  14.744  13.279   3.599
 7171SOL    HW223346  14.798  13.389   3.688
 7172SOL     OW23347  12.454   9.026   7.131
 7172SOL    HW123348  12.499   8.942   7.144
 7172SOL    HW223349  12.364   9.001   7.106
 7173SOL     OW23350   1.501  12.919   2.193
 7173SOL    HW123351   1.558  12.842   2.200
 7173SOL    HW223352   1.419  12.892   2.234
 7174SOL     OW23353  10.289   2.703  10.330
 7174SOL    HW123354  10.310   2.795  10.346
 7174SOL    HW223355  10.374   2.662  10.316
 7175SOL     OW23356  10.394   6.311   7.256
 7175SOL    HW123357  10.429   6.399   7.242
 7175SOL    HW223358  10.360   6.285   7.170
 7176SOL     OW23359   6.456   1.208   2.082
 7176SOL    HW123360   6.485   1.249   2.164
 7176SOL    HW223361   6.450   1.115   2.103
 7177SOL     OW23362   1.530  12.726   5.106
 7177SOL    HW123363   1.548  12.789   5.036
 7177SOL    HW223364   1.446  12.687   5.084
 7178SOL     OW23365   1.277   7.627   9.597
 7178SOL    HW123366   1.308   7.710   9.634
 7178SOL    HW223367   1.347   7.601   9.536
 7179SOL     OW23368   6.048  10.351  13.666
 7179SOL    HW123369   6.119  10.338  13.603
 7179SOL    HW223370   6.074  10.300  13.743
 7180SOL     OW23371   5.363   7.028   7.386
 7180SOL    HW123372   5.437   6.968   7.396
 7180SOL    HW223373   5.323   7.002   7.303
 7181SOL     OW23374   6.718   3.903  13.112
 7181SOL    HW123375   6.657   3.977  13.102
 7181SOL    HW223376   6.794   3.941  13.156
 7182SOL     OW23377   3.263   2.169  13.860
 7182SOL    HW123378   3.206   2.222  13.804
 7182SOL    HW223379   3.323   2.127  13.799
 7183SOL     OW23380   6.436   2.415  11.185
 7183SOL    HW123381   6.364   2.381  11.133
 7183SOL    HW223382   6.464   2.494  11.139
 7184SOL     OW23383  10.893   4.283   5.141
 7184SOL    HW123384  10.917   4.299   5.049
 7184SOL    HW223385  10.933   4.355   5.189
 7185SOL     OW23386   4.033  13.431   7.536
 7185SOL    HW123387   4.069  13.378   7.607
 7185SOL    HW223388   4.110  13.460   7.486
 7186SOL     OW23389   0.941   6.163  13.828
 7186SOL    HW123390   1.015   6.102  13.830
 7186SOL    HW223391   0.864   6.108  13.837
 7187SOL     OW23392  13.921   2.181   2.136
 7187SOL    HW123393  13.990   2.244   2.160
 7187SOL    HW223394  13.882   2.217   2.057
 7188SOL     OW23395   2.059   5.674   4.659
 7188SOL    HW123396   1.999   5.660   4.586
 7188SOL    HW223397   2.133   5.616   4.640
 7189SOL     OW23398   4.875  12.378   3.200
 7189SOL    HW123399   4.803  12.331   3.158
 7189SOL    HW223400   4.943  12.382   3.132
 7190SOL     OW23401   3.254   2.771   2.286
 7190SOL    HW123402   3.335   2.759   2.335
 7190SOL    HW223403   3.236   2.684   2.250
 7191SOL     OW23404   5.288   0.605  13.480
 7191SOL    HW123405   5.342   0.530  13.455
 7191SOL    HW223406   5.337   0.681  13.450
 7192SOL     OW23407   2.722   5.551  12.629
 7192SOL    HW123408   2.692   5.501  12.704
 7192SOL    HW223409   2.706   5.493  12.554
 7193SOL     OW23410  11.234  14.196   0.211
 7193SOL    HW123411  11.328  14.215   0.219
 7193SOL    HW223412  11.191  14.278   0.234
 7194SOL     OW23413   6.998   4.573   6.952
 7194SOL    HW123414   6.942   4.641   6.915
 7194SOL    HW223415   6.956   4.549   7.035
 7195SOL     OW23416   9.484  12.956  11.224
 7195SOL    HW123417   9.523  12.891  11.281
 7195SOL    HW223418   9.434  13.013  11.283
 7196SOL     OW23419   0.030   6.406   8.422
 7196SOL    HW123420   0.109   6.372   8.464
 7196SOL    HW223421  14.841   6.422   8.494
 7197SOL     OW23422   6.186   3.265   1.101
 7197SOL    HW123423   6.256   3.262   1.166
 7197SOL    HW223424   6.129   3.192   1.124
 7198SOL     OW23425  11.547  13.368   7.292
 7198SOL    HW123426  11.605  13.304   7.251
 7198SOL    HW223427  11.603  13.445   7.306
 7199SOL     OW23428   1.717   7.748   6.050
 7199SOL    HW123429   1.666   7.749   5.969
 7199SOL    HW223430   1.794   7.801   6.031
 7200SOL     OW23431   9.799  13.050   5.616
 7200SOL    HW123432   9.797  12.956   5.631
 7200SOL    HW223433   9.813  13.088   5.703
 7201SOL     OW23434  14.575  10.932  11.103
 7201SOL    HW123435  14.595  10.864  11.167
 7201SOL    HW223436  14.502  10.981  11.143
 7202SOL     OW23437  10.326   5.667   5.595
 7202SOL    HW123438  10.330   5.633   5.684
 7202SOL    HW223439  10.245   5.632   5.559
 7203SOL     OW23440  11.436  12.132   6.815
 7203SOL    HW123441  11.369  12.069   6.844
 7203SOL    HW223442  11.464  12.176   6.895
 7204SOL     OW23443  11.896   0.018   1.764
 7204SOL    HW123444  11.923   0.063   1.843
 7204SOL    HW223445  11.935  14.803   1.771
 7205SOL     OW23446  10.460  14.032  13.044
 7205SOL    HW123447  10.519  13.959  13.067
 7205SOL    HW223448  10.456  14.085  13.123
 7206SOL     OW23449   3.572   8.272  11.453
 7206SOL    HW123450   3.590   8.298  11.544
 7206SOL    HW223451   3.657   8.239  11.421
 7207SOL     OW23452   4.869   2.413   9.101
 7207SOL    HW123453   4.926   2.440   9.029
 7207SOL    HW223454   4.925   2.361   9.158
 7208SOL     OW23455  10.040   8.980  11.760
 7208SOL    HW123456  10.060   9.048  11.696
 7208SOL    HW223457  10.019   8.903  11.708
 7209SOL     OW23458  13.392   0.916   7.648
 7209SOL    HW123459  13.430   1.002   7.635
 7209SOL    HW223460  13.433   0.860   7.582
 7210SOL     OW23461   3.043   2.475  10.485
 7210SOL    HW123462   3.061   2.423  10.406
 7210SOL    HW223463   3.039   2.411  10.555
 7211SOL     OW23464  11.400   3.713   7.686
 7211SOL    HW123465  11.452   3.788   7.715
 7211SOL    HW223466  11.461   3.662   7.632
 7212SOL     OW23467  12.760   8.417   4.883
 7212SOL    HW123468  12.724   8.503   4.905
 7212SOL    HW223469  12.747   8.365   4.962
 7213SOL     OW23470   2.163   9.140   0.611
 7213SOL    HW123471   2.231   9.074   0.605
 7213SOL    HW223472   2.094   9.109   0.552
 7214SOL     OW23473   1.052   0.983   1.697
 7214SOL    HW123474   0.972   1.027   1.724
 7214SOL    HW223475   1.123   1.040   1.728
 7215SOL     OW23476   7.062  12.346   4.095
 7215SOL    HW123477   7.122  12.383   4.030
 7215SOL    HW223478   7.084  12.253   4.097
 7216SOL     OW23479   9.344  11.654   2.342
 7216SOL    HW123480   9.321  11.735   2.388
 7216SOL    HW223481   9.418  11.619   2.391
 7217SOL     OW23482   5.988   0.491  10.467
 7217SOL    HW123483   5.973   0.565  10.408
 7217SOL    HW223484   5.982   0.529  10.555
 7218SOL     OW23485   0.710   9.190   5.672
 7218SOL    HW123486   0.719   9.254   5.742
 7218SOL    HW223487   0.677   9.111   5.716
 7219SOL     OW23488   9.882   3.182  11.850
 7219SOL    HW123489   9.821   3.195  11.922
 7219SOL    HW223490   9.966   3.214  11.883
 7220SOL     OW23491   0.794   5.408   4.179
 7220SOL    HW123492   0.855   5.445   4.115
 7220SOL    HW223493   0.783   5.317   4.152
 7221SOL     OW23494   8.148   9.689  13.541
 7221SOL    HW123495   8.061   9.662  13.510
 7221SOL    HW223496   8.130   9.741  13.620
 7222SOL     OW23497  10.492  11.236   2.192
 7222SOL    HW123498  10.566  11.202   2.242
 7222SOL    HW223499  10.416  11.220   2.248
 7223SOL     OW23500   8.155   0.506  11.511
 7223SOL    HW123501   8.117   0.555  11.438
 7223SOL    HW223502   8.160   0.416  11.480
 7224SOL     OW23503   5.686  13.899   1.283
 7224SOL    HW123504   5.678  13.916   1.377
 7224SOL    HW223505   5.598  13.910   1.249
 7225SOL     OW23506   5.359   8.492   5.318
 7225SOL    HW123507   5.265   8.478   5.328
 7225SOL    HW223508   5.382   8.444   5.239
 7226SOL     OW23509   4.931  13.492   6.141
 7226SOL    HW123510   4.962  13.565   6.088
 7226SOL    HW223511   4.993  13.488   6.214
 7227SOL     OW23512   0.363  13.127   2.281
 7227SOL    HW123513   0.357  13.032   2.273
 7227SOL    HW223514   0.361  13.159   2.191
 7228SOL     OW23515   6.398  12.597   2.748
 7228SOL    HW123516   6.370  12.646   2.671
 7228SOL    HW223517   6.453  12.526   2.712
 7229SOL     OW23518  11.629  14.202   1.093
 7229SOL    HW123519  11.538  14.232   1.084
 7229SOL    HW223520  11.675  14.279   1.128
 7230SOL     OW23521   1.284  10.057   3.769
 7230SOL    HW123522   1.236   9.983   3.731
 7230SOL    HW223523   1.361  10.016   3.810
 7231SOL     OW23524   1.161   2.559  12.375
 7231SOL    HW123525   1.111   2.633  12.408
 7231SOL    HW223526   1.177   2.505  12.453
 7232SOL     OW23527  13.647   2.929  10.155
 7232SOL    HW123528  13.610   2.899  10.072
 7232SOL    HW223529  13.591   2.888  10.222
 7233SOL     OW23530   6.708   6.124   2.525
 7233SOL    HW123531   6.794   6.168   2.522
 7233SOL    HW223532   6.694   6.108   2.619
 7234SOL     OW23533  10.842   8.554   8.340
 7234SOL    HW123534  10.875   8.532   8.427
 7234SOL    HW223535  10.748   8.538   8.345
 7235SOL     OW23536   7.834  13.337  14.256
 7235SOL    HW123537   7.832  13.426  14.290
 7235SOL    HW223538   7.855  13.283  14.332
 7236SOL     OW23539   5.421   3.452  11.169
 7236SOL    HW123540   5.403   3.475  11.077
 7236SOL    HW223541   5.493   3.389  11.164
 7237SOL     OW23542   6.764   1.824   8.395
 7237SOL    HW123543   6.693   1.761   8.383
 7237SOL    HW223544   6.809   1.796   8.474
 7238SOL     OW23545   8.986   3.990  10.523
 7238SOL    HW123546   9.043   4.020  10.453
 7238SOL    HW223547   8.988   4.061  10.588
 7239SOL     OW23548  14.615   6.907   1.330
 7239SOL    HW123549  14.564   6.937   1.406
 7239SOL    HW223550  14.607   6.812   1.333
 7240SOL     OW23551   6.055   6.941   0.168
 7240SOL    HW123552   6.068   7.028   0.130
 7240SOL    HW223553   5.962   6.923   0.156
 7241SOL     OW23554   2.151   7.258   7.494
 7241SOL    HW123555   2.189   7.334   7.450
 7241SOL    HW223556   2.226   7.200   7.510
 7242SOL     OW23557   8.830   8.624  12.317
 7242SOL    HW123558   8.908   8.621  12.262
 7242SOL    HW223559   8.794   8.536  12.313
 7243SOL     OW23560   3.269   5.580   7.130
 7243SOL    HW123561   3.286   5.486   7.142
 7243SOL    HW223562   3.194   5.599   7.186
 7244SOL     OW23563  10.245   4.253   7.059
 7244SOL    HW123564  10.312   4.314   7.025
 7244SOL    HW223565  10.236   4.277   7.151
 7245SOL     OW23566   5.159   1.484   8.338
 7245SOL    HW123567   5.075   1.437   8.342
 7245SOL    HW223568   5.137   1.569   8.302
 7246SOL     OW23569  12.897  10.736  12.392
 7246SOL    HW123570  12.886  10.707  12.483
 7246SOL    HW223571  12.961  10.674  12.355
 7247SOL     OW23572   4.987   9.765  12.941
 7247SOL    HW123573   4.961   9.674  12.956
 7247SOL    HW223574   4.923   9.816  12.992
 7248SOL     OW23575  10.047   9.457   1.440
 7248SOL    HW123576   9.982   9.390   1.419
 7248SOL    HW223577  10.076   9.490   1.355
 7249SOL     OW23578  10.268   8.892   2.359
 7249SOL    HW123579  10.216   8.935   2.427
 7249SOL    HW223580  10.217   8.814   2.336
 7250SOL     OW23581   5.988   5.743   7.806
 7250SOL    HW123582   5.945   5.816   7.761
 7250SOL    HW223583   5.958   5.750   7.897
 7251SOL     OW23584  14.042   6.647   3.153
 7251SOL    HW123585  13.963   6.661   3.204
 7251SOL    HW223586  14.025   6.566   3.103
 7252SOL     OW23587   8.594  13.929   7.956
 7252SOL    HW123588   8.627  13.847   7.919
 7252SOL    HW223589   8.501  13.914   7.969
 7253SOL     OW23590   9.097   7.844   5.570
 7253SOL    HW123591   9.134   7.785   5.636
 7253SOL    HW223592   9.141   7.928   5.585
 7254SOL     OW23593   1.117   0.475   3.783
 7254SOL    HW123594   1.186   0.522   3.829
 7254SOL    HW223595   1.118   0.511   3.694
 7255SOL     OW23596  13.665   3.493   4.204
 7255SOL    HW123597  13.702   3.428   4.263
 7255SOL    HW223598  13.665   3.450   4.118
 7256SOL     OW23599  14.350   6.028   6.518
 7256SOL    HW123600  14.357   6.123   6.530
 7256SOL    HW223601  14.279   6.002   6.577
 7257SOL     OW23602   6.878   2.914  11.978
 7257SOL    HW123603   6.839   2.990  12.023
 7257SOL    HW223604   6.935   2.874  12.044
 7258SOL     OW23605   0.535  12.529   2.878
 7258SOL    HW123606   0.548  12.578   2.797
 7258SOL    HW223607   0.463  12.573   2.922
 7259SOL     OW23608   7.542   7.884   7.531
 7259SOL    HW123609   7.506   7.840   7.454
 7259SOL    HW223610   7.635   7.894   7.511
 7260SOL     OW23611   3.064   8.931   1.261
 7260SOL    HW123612   2.975   8.895   1.262
 7260SOL    HW223613   3.062   8.999   1.329
 7261SOL     OW23614  12.433   1.510   1.430
 7261SOL    HW123615  12.449   1.572   1.501
 7261SOL    HW223616  12.506   1.447   1.437
 7262SOL     OW23617   9.217   3.020   4.510
 7262SOL    HW123618   9.195   3.097   4.563
 7262SOL    HW223619   9.290   2.979   4.556
 7263SOL     OW23620  13.420  13.396  10.133
 7263SOL    HW123621  13.425  13.316  10.081
 7263SOL    HW223622  13.434  13.368  10.223
 7264SOL     OW23623  10.225   3.670  12.365
 7264SOL    HW123624  10.250   3.611  12.437
 7264SOL    HW223625  10.242   3.758  12.400
 7265SOL     OW23626  10.956   9.334   9.967
 7265SOL    HW123627  11.034   9.315   9.914
 7265SOL    HW223628  10.936   9.252  10.012
 7266SOL     OW23629   6.871   7.234   3.493
 7266SOL    HW123630   6.956   7.278   3.495
 7266SOL    HW223631   6.834   7.248   3.580
 7267SOL     OW23632   9.050  11.970   8.852
 7267SOL    HW123633   9.088  11.986   8.939
 7267SOL    HW223634   8.957  11.992   8.863
 7268SOL     OW23635   1.760  13.943  11.969
 7268SOL    HW123636   1.669  13.916  11.964
 7268SOL    HW223637   1.808  13.877  11.919
 7269SOL     OW23638   5.435  13.943   4.334
 7269SOL    HW123639   5.401  13.949   4.424
 7269SOL    HW223640   5.508  14.005   4.332
 7270SOL     OW23641   0.608   0.665  12.307
 7270SOL    HW123642   0.690   0.662  12.257
 7270SOL    HW223643   0.562   0.585  12.283
 7271SOL     OW23644   1.756   1.906   3.550
 7271SOL    HW123645   1.674   1.941   3.584
 7271SOL    HW223646   1.747   1.811   3.559
 7272SOL     OW23647  10.385  10.551   2.237
 7272SOL    HW123648  10.315  10.607   2.202
 7272SOL    HW223649  10.413  10.499   2.162
 7273SOL     OW23650   7.409   3.743   2.379
 7273SOL    HW123651   7.419   3.652   2.409
 7273SOL    HW223652   7.417   3.738   2.284
 7274SOL     OW23653   6.170  13.237   7.225
 7274SOL    HW123654   6.262  13.252   7.202
 7274SOL    HW223655   6.154  13.145   7.203
 7275SOL     OW23656   9.535  12.932   5.894
 7275SOL    HW123657   9.525  12.849   5.941
 7275SOL    HW223658   9.530  12.999   5.962
 7276SOL     OW23659   5.619   4.860  13.097
 7276SOL    HW123660   5.624   4.927  13.166
 7276SOL    HW223661   5.693   4.880  13.040
 7277SOL     OW23662   9.746   4.376   5.215
 7277SOL    HW123663   9.732   4.443   5.148
 7277SOL    HW223664   9.702   4.298   5.180
 7278SOL     OW23665  11.619  14.420   1.450
 7278SOL    HW123666  11.588  14.506   1.424
 7278SOL    HW223667  11.542  14.376   1.485
 7279SOL     OW23668   6.902   1.681   3.359
 7279SOL    HW123669   6.986   1.726   3.352
 7279SOL    HW223670   6.880   1.686   3.452
 7280SOL     OW23671   5.938   9.259  13.303
 7280SOL    HW123672   5.922   9.350  13.330
 7280SOL    HW223673   6.034   9.254  13.296
 7281SOL     OW23674  10.210   5.541   2.338
 7281SOL    HW123675  10.269   5.617   2.333
 7281SOL    HW223676  10.139   5.562   2.277
 7282SOL     OW23677   8.788  13.209   4.006
 7282SOL    HW123678   8.880  13.234   4.020
 7282SOL    HW223679   8.789  13.162   3.923
 7283SOL     OW23680   3.833   7.099   8.035
 7283SOL    HW123681   3.868   7.132   7.952
 7283SOL    HW223682   3.746   7.139   8.042
 7284SOL     OW23683   3.539   8.412   0.371
 7284SOL    HW123684   3.459   8.465   0.369
 7284SOL    HW223685   3.516   8.335   0.422
 7285SOL     OW23686   1.198   7.845   4.491
 7285SOL    HW123687   1.257   7.880   4.558
 7285SOL    HW223688   1.125   7.809   4.541
 7286SOL     OW23689   9.597   8.200   3.029
 7286SOL    HW123690   9.513   8.164   3.057
 7286SOL    HW223691   9.632   8.243   3.107
 7287SOL     OW23692   6.847   1.244  14.501
 7287SOL    HW123693   6.927   1.245  14.448
 7287SOL    HW223694   6.862   1.174  14.564
 7288SOL     OW23695   5.936  14.695   3.501
 7288SOL    HW123696   5.945  14.609   3.543
 7288SOL    HW223697   5.932  14.757   3.573
 7289SOL     OW23698   1.887   1.627   3.925
 7289SOL    HW123699   1.970   1.619   3.879
 7289SOL    HW223700   1.831   1.560   3.886
 7290SOL     OW23701   6.377  11.410  10.094
 7290SOL    HW123702   6.420  11.478  10.043
 7290SOL    HW223703   6.437  11.393  10.166
 7291SOL     OW23704   8.678   6.864  13.643
 7291SOL    HW123705   8.718   6.836  13.725
 7291SOL    HW223706   8.743   6.845  13.576
 7292SOL     OW23707  14.415   6.610   6.456
 7292SOL    HW123708  14.492   6.585   6.507
 7292SOL    HW223709  14.440   6.691   6.413
 7293SOL     OW23710   0.909   6.414  11.722
 7293SOL    HW123711   0.978   6.472  11.755
 7293SOL    HW223712   0.858   6.469  11.662
 7294SOL     OW23713   3.152   3.492  10.583
 7294SOL    HW123714   3.172   3.427  10.516
 7294SOL    HW223715   3.056   3.493  10.588
 7295SOL     OW23716   8.791  12.422   2.070
 7295SOL    HW123717   8.699  12.409   2.090
 7295SOL    HW223718   8.837  12.354   2.119
 7296SOL     OW23719  14.477   7.772   7.822
 7296SOL    HW123720  14.408   7.746   7.761
 7296SOL    HW223721  14.557   7.769   7.770
 7297SOL     OW23722   4.852  14.392   2.689
 7297SOL    HW123723   4.920  14.372   2.625
 7297SOL    HW223724   4.823  14.307   2.721
 7298SOL     OW23725  12.217   0.036  10.487
 7298SOL    HW123726  12.242   0.107  10.427
 7298SOL    HW223727  12.176  14.843  10.431
 7299SOL     OW23728   1.351   3.196   2.610
 7299SOL    HW123729   1.297   3.242   2.546
 7299SOL    HW223730   1.437   3.189   2.569
 7300SOL     OW23731  10.232   9.616  10.552
 7300SOL    HW123732  10.248   9.614  10.457
 7300SOL    HW223733  10.245   9.708  10.576
 7301SOL     OW23734   5.808  12.314  12.841
 7301SOL    HW123735   5.880  12.274  12.792
 7301SOL    HW223736   5.833  12.406  12.848
 7302SOL     OW23737  12.269   3.168  11.691
 7302SOL    HW123738  12.180   3.202  11.681
 7302SOL    HW223739  12.258   3.087  11.742
 7303SOL     OW23740   8.642   2.551   3.484
 7303SOL    HW123741   8.639   2.625   3.545
 7303SOL    HW223742   8.724   2.507   3.506
 7304SOL     OW23743   8.950   8.653   1.675
 7304SOL    HW123744   9.045   8.668   1.677
 7304SOL    HW223745   8.942   8.560   1.651
 7305SOL     OW23746   3.964  10.055   3.900
 7305SOL    HW123747   3.923   9.970   3.913
 7305SOL    HW223748   4.057  10.034   3.884
 7306SOL     OW23749   8.631   9.563   0.170
 7306SOL    HW123750   8.714   9.610   0.179
 7306SOL    HW223751   8.634   9.528   0.081
 7307SOL     OW23752   9.336   6.093   7.102
 7307SOL    HW123753   9.357   6.063   7.191
 7307SOL    HW223754   9.255   6.047   7.080
 7308SOL     OW23755   6.069   9.489  13.812
 7308SOL    HW123756   5.983   9.527  13.797
 7308SOL    HW223757   6.102   9.470  13.724
 7309SOL     OW23758   1.059  12.067   1.234
 7309SOL    HW123759   1.053  12.012   1.156
 7309SOL    HW223760   1.117  12.139   1.208
 7310SOL     OW23761   9.358   4.459   1.976
 7310SOL    HW123762   9.374   4.449   2.070
 7310SOL    HW223763   9.443   4.483   1.939
 7311SOL     OW23764  14.108   8.357  12.833
 7311SOL    HW123765  14.093   8.410  12.912
 7311SOL    HW223766  14.054   8.279  12.846
 7312SOL     OW23767  14.478   1.406  11.004
 7312SOL    HW123768  14.427   1.487  11.006
 7312SOL    HW223769  14.419   1.340  11.041
 7313SOL     OW23770   9.544   9.727  13.573
 7313SOL    HW123771   9.636   9.743  13.552
 7313SOL    HW223772   9.545   9.699  13.665
 7314SOL     OW23773  13.068  11.063   4.544
 7314SOL    HW123774  13.156  11.029   4.529
 7314SOL    HW223775  13.039  11.093   4.458
 7315SOL     OW23776   7.153   6.959  13.253
 7315SOL    HW123777   7.079   6.899  13.254
 7315SOL    HW223778   7.200   6.938  13.172
 7316SOL     OW23779  12.146  10.236   0.023
 7316SOL    HW123780  12.102  10.283   0.094
 7316SOL    HW223781  12.142  10.297  14.820
 7317SOL     OW23782  11.691  14.143   2.525
 7317SOL    HW123783  11.729  14.122   2.440
 7317SOL    HW223784  11.650  14.229   2.513
 7318SOL     OW23785   4.088   8.198   2.813
 7318SOL    HW123786   4.017   8.213   2.875
 7318SOL    HW223787   4.045   8.181   2.730
 7319SOL     OW23788   7.405   1.757   3.321
 7319SOL    HW123789   7.386   1.669   3.353
 7319SOL    HW223790   7.480   1.786   3.373
 7320SOL     OW23791   0.121   6.470   0.068
 7320SOL    HW123792   0.215   6.488   0.063
 7320SOL    HW223793   0.093   6.509   0.151
 7321SOL     OW23794  13.231  13.038   1.477
 7321SOL    HW123795  13.189  12.952   1.475
 7321SOL    HW223796  13.311  13.026   1.425
 7322SOL     OW23797   2.747   5.876  10.458
 7322SOL    HW123798   2.671   5.933  10.473
 7322SOL    HW223799   2.789   5.912  10.380
 7323SOL     OW23800   0.684   1.729   2.729
 7323SOL    HW123801   0.591   1.713   2.719
 7323SOL    HW223802   0.695   1.823   2.710
 7324SOL     OW23803   3.388   7.996   6.614
 7324SOL    HW123804   3.470   8.045   6.604
 7324SOL    HW223805   3.372   7.995   6.708
 7325SOL     OW23806  11.358   8.575  13.072
 7325SOL    HW123807  11.316   8.653  13.037
 7325SOL    HW223808  11.292   8.536  13.130
 7326SOL     OW23809  13.934   1.852   7.750
 7326SOL    HW123810  13.983   1.771   7.737
 7326SOL    HW223811  13.919   1.856   7.845
 7327SOL     OW23812   1.597   3.179   5.451
 7327SOL    HW123813   1.620   3.087   5.460
 7327SOL    HW223814   1.673   3.219   5.409
 7328SOL     OW23815   5.297  10.465   7.765
 7328SOL    HW123816   5.270  10.482   7.675
 7328SOL    HW223817   5.391  10.483   7.766
 7329SOL     OW23818  11.237   3.949   3.942
 7329SOL    HW123819  11.253   3.857   3.964
 7329SOL    HW223820  11.282   3.997   4.011
 7330SOL     OW23821   3.963   2.716   4.399
 7330SOL    HW123822   3.888   2.689   4.452
 7330SOL    HW223823   3.925   2.744   4.316
 7331SOL     OW23824   3.900   1.409  12.190
 7331SOL    HW123825   3.811   1.427  12.158
 7331SOL    HW223826   3.956   1.423  12.114
 7332SOL     OW23827   1.796   0.023   8.038
 7332SOL    HW123828   1.736  14.824   8.016
 7332SOL    HW223829   1.769   0.095   7.982
 7333SOL     OW23830   2.996   8.338   4.271
 7333SOL    HW123831   2.918   8.388   4.247
 7333SOL    HW223832   2.967   8.247   4.271
 7334SOL     OW23833   0.075  12.248  11.913
 7334SOL    HW123834   0.036  12.287  11.991
 7334SOL    HW223835   0.102  12.323  11.859
 7335SOL     OW23836   6.447  10.133  11.882
 7335SOL    HW123837   6.406  10.139  11.969
 7335SOL    HW223838   6.444  10.222  11.848
 7336SOL     OW23839  10.732   4.084   0.963
 7336SOL    HW123840  10.792   4.131   0.905
 7336SOL    HW223841  10.697   4.151   1.021
 7337SOL     OW23842  10.191   3.732   1.812
 7337SOL    HW123843  10.226   3.659   1.761
 7337SOL    HW223844  10.172   3.800   1.747
 7338SOL     OW23845   6.540   3.216   2.332
 7338SOL    HW123846   6.480   3.243   2.402
 7338SOL    HW223847   6.625   3.208   2.376
 7339SOL     OW23848  13.597   0.248  14.825
 7339SOL    HW123849  13.557   0.283  14.746
 7339SOL    HW223850  13.620   0.158  14.802
 7340SOL     OW23851   0.873   7.868   2.874
 7340SOL    HW123852   0.919   7.932   2.820
 7340SOL    HW223853   0.903   7.887   2.964
 7341SOL     OW23854   3.054   3.957  13.957
 7341SOL    HW123855   2.979   3.902  13.977
 7341SOL    HW223856   3.095   3.916  13.881
 7342SOL     OW23857  12.816   3.809   9.744
 7342SOL    HW123858  12.870   3.849   9.813
 7342SOL    HW223859  12.811   3.877   9.676
 7343SOL     OW23860   9.631   9.610  13.030
 7343SOL    HW123861   9.632   9.632  12.937
 7343SOL    HW223862   9.555   9.656  13.065
 7344SOL     OW23863   0.460   8.843   4.895
 7344SOL    HW123864   0.393   8.803   4.951
 7344SOL    HW223865   0.417   8.851   4.809
 7345SOL     OW23866   4.606   7.915   3.675
 7345SOL    HW123867   4.527   7.967   3.683
 7345SOL    HW223868   4.589   7.838   3.729
 7346SOL     OW23869   1.221   2.648   7.591
 7346SOL    HW123870   1.156   2.703   7.548
 7346SOL    HW223871   1.183   2.629   7.677
 7347SOL     OW23872   9.902   4.303   4.589
 7347SOL    HW123873   9.813   4.268   4.595
 7347SOL    HW223874   9.890   4.397   4.575
 7348SOL     OW23875   0.145   1.167   9.119
 7348SOL    HW123876   0.201   1.097   9.085
 7348SOL    HW223877   0.111   1.211   9.041
 7349SOL     OW23878   7.817  11.019  12.764
 7349SOL    HW123879   7.912  11.016  12.752
 7349SOL    HW223880   7.803  11.093  12.822
 7350SOL     OW23881   8.309   2.732   0.928
 7350SOL    HW123882   8.364   2.810   0.925
 7350SOL    HW223883   8.352   2.674   0.991
 7351SOL     OW23884   9.204   9.264  10.930
 7351SOL    HW123885   9.203   9.339  10.989
 7351SOL    HW223886   9.172   9.191  10.984
 7352SOL     OW23887   8.054   4.265  10.738
 7352SOL    HW123888   8.029   4.215  10.660
 7352SOL    HW223889   7.980   4.255  10.798
 7353SOL     OW23890   5.737  14.867   7.991
 7353SOL    HW123891   5.779  14.824   8.065
 7353SOL    HW223892   5.799  14.859   7.919
 7354SOL     OW23893  10.274   0.709   5.637
 7354SOL    HW123894  10.313   0.625   5.660
 7354SOL    HW223895  10.293   0.766   5.711
 7355SOL     OW23896   7.517   6.857   4.804
 7355SOL    HW123897   7.439   6.908   4.784
 7355SOL    HW223898   7.484   6.778   4.847
 7356SOL     OW23899   3.022   1.054   1.688
 7356SOL    HW123900   3.103   1.003   1.686
 7356SOL    HW223901   3.050   1.145   1.676
 7357SOL     OW23902  12.969  10.614  14.319
 7357SOL    HW123903  12.903  10.546  14.306
 7357SOL    HW223904  13.007  10.627  14.233
 7358SOL     OW23905  12.256   7.397   2.983
 7358SOL    HW123906  12.222   7.380   3.071
 7358SOL    HW223907  12.178   7.403   2.928
 7359SOL     OW23908   0.753  10.251   4.517
 7359SOL    HW123909   0.822  10.313   4.538
 7359SOL    HW223910   0.793  10.189   4.455
 7360SOL     OW23911  10.641  10.524  13.909
 7360SOL    HW123912  10.659  10.438  13.870
 7360SOL    HW223913  10.617  10.505  13.999
 7361SOL     OW23914   2.839   3.695   7.223
 7361SOL    HW123915   2.827   3.606   7.254
 7361SOL    HW223916   2.785   3.701   7.144
 7362SOL     OW23917   2.212  10.919   3.965
 7362SOL    HW123918   2.242  11.005   3.996
 7362SOL    HW223919   2.265  10.856   4.014
 7363SOL     OW23920  11.083  11.113  14.036
 7363SOL    HW123921  11.079  11.056  13.958
 7363SOL    HW223922  11.164  11.162  14.025
 7364SOL     OW23923   4.616  11.397  11.670
 7364SOL    HW123924   4.602  11.351  11.753
 7364SOL    HW223925   4.628  11.488  11.694
 7365SOL     OW23926   5.195  11.729  11.931
 7365SOL    HW123927   5.148  11.712  12.013
 7365SOL    HW223928   5.166  11.817  11.905
 7366SOL     OW23929   9.926   4.352  13.508
 7366SOL    HW123930   9.966   4.318  13.588
 7366SOL    HW223931   9.942   4.284  13.442
 7367SOL     OW23932   1.071   4.339   9.679
 7367SOL    HW123933   1.076   4.347   9.584
 7367SOL    HW223934   1.118   4.414   9.713
 7368SOL     OW23935   1.476   0.314   5.033
 7368SOL    HW123936   1.383   0.294   5.026
 7368SOL    HW223937   1.479   0.407   5.057
 7369SOL     OW23938   2.620  10.390   7.983
 7369SOL    HW123939   2.574  10.470   8.009
 7369SOL    HW223940   2.572  10.319   8.026
 7370SOL     OW23941  10.910   1.632   0.906
 7370SOL    HW123942  10.935   1.576   0.979
 7370SOL    HW223943  10.955   1.715   0.923
 7371SOL     OW23944   8.622   1.138   5.203
 7371SOL    HW123945   8.682   1.095   5.264
 7371SOL    HW223946   8.535   1.103   5.226
 7372SOL     OW23947   5.116   4.447  11.441
 7372SOL    HW123948   5.035   4.400  11.461
 7372SOL    HW223949   5.133   4.500  11.519
 7373SOL     OW23950   4.913  10.931   9.070
 7373SOL    HW123951   4.822  10.904   9.073
 7373SOL    HW223952   4.950  10.904   9.154
 7374SOL     OW23953  10.497   8.745   2.948
 7374SOL    HW123954  10.514   8.727   3.040
 7374SOL    HW223955  10.408   8.713   2.933
 7375SOL     OW23956   2.012  10.550   0.083
 7375SOL    HW123957   1.939  10.610   0.096
 7375SOL    HW223958   2.076  10.601   0.033
 7376SOL     OW23959   9.780   9.257   6.281
 7376SOL    HW123960   9.775   9.302   6.197
 7376SOL    HW223961   9.856   9.296   6.325
 7377SOL     OW23962  13.678  12.028  10.478
 7377SOL    HW123963  13.612  12.019  10.408
 7377SOL    HW223964  13.657  11.958  10.540
 7378SOL     OW23965  13.037   2.902  12.148
 7378SOL    HW123966  13.100   2.867  12.085
 7378SOL    HW223967  13.082   2.976  12.188
 7379SOL     OW23968   4.509  10.437   0.584
 7379SOL    HW123969   4.507  10.486   0.667
 7379SOL    HW223970   4.417  10.425   0.561
 7380SOL     OW23971   4.460  14.705   8.642
 7380SOL    HW123972   4.523  14.636   8.622
 7380SOL    HW223973   4.471  14.769   8.571
 7381SOL     OW23974   7.687  13.842   0.658
 7381SOL    HW123975   7.709  13.779   0.588
 7381SOL    HW223976   7.678  13.788   0.736
 7382SOL     OW23977   7.698  14.478   8.966
 7382SOL    HW123978   7.659  14.544   8.909
 7382SOL    HW223979   7.670  14.502   9.055
 7383SOL     OW23980   8.811   7.634   9.660
 7383SOL    HW123981   8.866   7.593   9.727
 7383SOL    HW223982   8.724   7.638   9.700
 7384SOL     OW23983   2.746   5.029   1.686
 7384SOL    HW123984   2.774   5.097   1.747
 7384SOL    HW223985   2.665   4.994   1.725
 7385SOL     OW23986   6.218   2.821   5.179
 7385SOL    HW123987   6.304   2.811   5.219
 7385SOL    HW223988   6.219   2.908   5.140
 7386SOL     OW23989  13.453  12.450   0.429
 7386SOL    HW123990  13.429  12.515   0.495
 7386SOL    HW223991  13.474  12.501   0.351
 7387SOL     OW23992  10.967   7.679   4.665
 7387SOL    HW123993  10.936   7.684   4.575
 7387SOL    HW223994  10.910   7.740   4.713
 7388SOL     OW23995  11.339   1.280   3.000
 7388SOL    HW123996  11.355   1.210   3.063
 7388SOL    HW223997  11.399   1.350   3.027
 7389SOL     OW23998   3.774  14.323  11.230
 7389SOL    HW123999   3.717  14.280  11.294
 7389SOL    HW224000   3.859  14.281  11.242
 7390SOL     OW24001  10.565   8.827   5.861
 7390SOL    HW124002  10.495   8.781   5.813
 7390SOL    HW224003  10.596   8.763   5.925
 7391SOL     OW24004   1.361  10.827   0.384
 7391SOL    HW124005   1.324  10.819   0.297
 7391SOL    HW224006   1.331  10.749   0.431
 7392SOL     OW24007  13.112  12.797   1.435
 7392SOL    HW124008  13.051  12.736   1.477
 7392SOL    HW224009  13.078  12.807   1.346
 7393SOL     OW24010  12.800   0.846  12.544
 7393SOL    HW124011  12.849   0.911  12.494
 7393SOL    HW224012  12.709   0.857  12.514
 7394SOL     OW24013   9.421   1.215   7.001
 7394SOL    HW124014   9.381   1.265   6.929
 7394SOL    HW224015   9.348   1.191   7.057
 7395SOL     OW24016  11.670   8.681  11.669
 7395SOL    HW124017  11.705   8.746  11.729
 7395SOL    HW224018  11.641   8.731  11.593
 7396SOL     OW24019   0.697  13.975   9.189
 7396SOL    HW124020   0.771  14.022   9.227
 7396SOL    HW224021   0.736  13.900   9.144
 7397SOL     OW24022   8.663  12.527  10.596
 7397SOL    HW124023   8.643  12.436  10.573
 7397SOL    HW224024   8.579  12.564  10.623
 7398SOL     OW24025   0.226   3.142   9.493
 7398SOL    HW124026   0.184   3.083   9.555
 7398SOL    HW224027   0.204   3.107   9.407
 7399SOL     OW24028   8.140   7.756   2.730
 7399SOL    HW124029   8.099   7.829   2.684
 7399SOL    HW224030   8.230   7.755   2.699
 7400SOL     OW24031  11.891   1.794   3.056
 7400SOL    HW124032  11.903   1.806   2.961
 7400SOL    HW224033  11.849   1.709   3.064
 7401SOL     OW24034   4.034   7.201   5.558
 7401SOL    HW124035   3.995   7.121   5.594
 7401SOL    HW224036   4.090   7.233   5.628
 7402SOL     OW24037   3.551   4.358  10.154
 7402SOL    HW124038   3.521   4.319  10.236
 7402SOL    HW224039   3.622   4.417  10.180
 7403SOL     OW24040   6.993   2.231   8.028
 7403SOL    HW124041   7.063   2.170   8.008
 7403SOL    HW224042   6.922   2.176   8.062
 7404SOL     OW24043  14.476   2.322   3.779
 7404SOL    HW124044  14.466   2.249   3.840
 7404SOL    HW224045  14.414   2.388   3.811
 7405SOL     OW24046  11.457  10.434   5.772
 7405SOL    HW124047  11.539  10.385   5.762
 7405SOL    HW224048  11.417  10.397   5.851
 7406SOL     OW24049   8.874  12.242   2.324
 7406SOL    HW124050   8.910  12.178   2.263
 7406SOL    HW224051   8.929  12.235   2.402
 7407SOL     OW24052   7.974   2.709   3.169
 7407SOL    HW124053   7.901   2.754   3.126
 7407SOL    HW224054   8.047   2.771   3.164
 7408SOL     OW24055  12.143   6.180  10.204
 7408SOL    HW124056  12.065   6.221  10.239
 7408SOL    HW224057  12.162   6.109  10.265
 7409SOL     OW24058   7.362   8.919   4.894
 7409SOL    HW124059   7.456   8.918   4.876
 7409SOL    HW224060   7.330   8.998   4.849
 7410SOL     OW24061  11.607   6.958   5.441
 7410SOL    HW124062  11.630   7.017   5.369
 7410SOL    HW224063  11.557   6.888   5.398
 7411SOL     OW24064   9.378   2.141   0.512
 7411SOL    HW124065   9.429   2.076   0.465
 7411SOL    HW224066   9.435   2.172   0.582
 7412SOL     OW24067   0.634   7.391   6.800
 7412SOL    HW124068   0.690   7.346   6.736
 7412SOL    HW224069   0.588   7.320   6.845
 7413SOL     OW24070   6.599   5.563   1.932
 7413SOL    HW124071   6.554   5.486   1.968
 7413SOL    HW224072   6.553   5.638   1.970
 7414SOL     OW24073   1.991   0.044   5.768
 7414SOL    HW124074   1.984  14.823   5.787
 7414SOL    HW224075   1.905   0.080   5.791
 7415SOL     OW24076   0.422  14.645   1.552
 7415SOL    HW124077   0.507  14.644   1.508
 7415SOL    HW224078   0.371  14.578   1.506
 7416SOL     OW24079  10.416   1.463   5.418
 7416SOL    HW124080  10.363   1.536   5.386
 7416SOL    HW224081  10.505   1.498   5.422
 7417SOL     OW24082   6.144   0.259  10.984
 7417SOL    HW124083   6.146   0.310  10.903
 7417SOL    HW224084   6.193   0.311  11.047
 7418SOL     OW24085   8.483  14.051   3.566
 7418SOL    HW124086   8.442  13.969   3.594
 7418SOL    HW224087   8.540  14.075   3.639
 7419SOL     OW24088   5.590   5.520  11.736
 7419SOL    HW124089   5.672   5.500  11.692
 7419SOL    HW224090   5.585   5.457  11.808
 7420SOL     OW24091  14.175   2.653  14.261
 7420SOL    HW124092  14.172   2.559  14.278
 7420SOL    HW224093  14.167   2.694  14.347
 7421SOL     OW24094   7.426   3.033   9.711
 7421SOL    HW124095   7.441   2.960   9.772
 7421SOL    HW224096   7.477   3.105   9.747
 7422SOL     OW24097   0.606   8.107  11.241
 7422SOL    HW124098   0.556   8.027  11.229
 7422SOL    HW224099   0.695   8.077  11.259
 7423SOL     OW24100   5.786  14.384   4.263
 7423SOL    HW124101   5.863  14.413   4.213
 7423SOL    HW224102   5.782  14.444   4.337
 7424SOL     OW24103   3.877   6.144   8.836
 7424SOL    HW124104   3.972   6.148   8.852
 7424SOL    HW224105   3.848   6.066   8.884
 7425SOL     OW24106   4.136  10.881  11.662
 7425SOL    HW124107   4.172  10.900  11.575
 7425SOL    HW224108   4.168  10.793  11.682
 7426SOL     OW24109   9.691  13.819   9.164
 7426SOL    HW124110   9.736  13.779   9.238
 7426SOL    HW224111   9.644  13.893   9.201
 7427SOL     OW24112  12.886   2.180   8.990
 7427SOL    HW124113  12.976   2.185   8.955
 7427SOL    HW224114  12.896   2.194   9.084
 7428SOL     OW24115  14.004  11.900   1.609
 7428SOL    HW124116  14.083  11.858   1.643
 7428SOL    HW224117  14.018  11.906   1.515
 7429SOL     OW24118   9.488   8.520   9.490
 7429SOL    HW124119   9.465   8.439   9.444
 7429SOL    HW224120   9.575   8.542   9.458
 7430SOL     OW24121   4.252   5.816   4.460
 7430SOL    HW124122   4.220   5.841   4.547
 7430SOL    HW224123   4.246   5.721   4.459
 7431SOL     OW24124  11.587  10.622  14.818
 7431SOL    HW124125  11.642  10.666   0.010
 7431SOL    HW224126  11.515  10.585  14.870
 7432SOL     OW24127  13.892   1.288  13.114
 7432SOL    HW124128  13.825   1.225  13.142
 7432SOL    HW224129  13.963   1.275  13.177
 7433SOL     OW24130   6.651   1.011   1.765
 7433SOL    HW124131   6.739   0.979   1.785
 7433SOL    HW224132   6.663   1.066   1.688
 7434SOL     OW24133  10.493   0.341   2.498
 7434SOL    HW124134  10.507   0.294   2.416
 7434SOL    HW224135  10.485   0.273   2.564
 7435SOL     OW24136   9.182  11.982   0.874
 7435SOL    HW124137   9.257  12.011   0.822
 7435SOL    HW224138   9.189  12.031   0.956
 7436SOL     OW24139   7.085  11.170   4.849
 7436SOL    HW124140   7.008  11.164   4.793
 7436SOL    HW224141   7.134  11.245   4.816
 7437SOL     OW24142   7.861   5.141   2.358
 7437SOL    HW124143   7.834   5.220   2.312
 7437SOL    HW224144   7.791   5.125   2.421
 7438SOL     OW24145  12.922   2.518  11.981
 7438SOL    HW124146  12.878   2.526  12.066
 7438SOL    HW224147  13.015   2.507  12.003
 7439SOL     OW24148   5.449   1.029   9.611
 7439SOL    HW124149   5.361   0.992   9.612
 7439SOL    HW224150   5.440   1.111   9.563
 7440SOL     OW24151   0.882   6.685   1.050
 7440SOL    HW124152   0.820   6.671   0.978
 7440SOL    HW224153   0.948   6.743   1.012
 7441SOL     OW24154   9.239   7.909  14.588
 7441SOL    HW124155   9.334   7.897  14.599
 7441SOL    HW224156   9.200   7.836  14.637
 7442SOL     OW24157   9.138   7.561   4.766
 7442SOL    HW124158   9.162   7.485   4.819
 7442SOL    HW224159   9.204   7.564   4.697
 7443SOL     OW24160  13.330   3.672   2.322
 7443SOL    HW124161  13.238   3.699   2.324
 7443SOL    HW224162  13.347   3.653   2.230
 7444SOL     OW24163  10.580   8.310   9.936
 7444SOL    HW124164  10.550   8.365  10.009
 7444SOL    HW224165  10.637   8.367   9.885
 7445SOL     OW24166  12.466   9.682   6.334
 7445SOL    HW124167  12.462   9.636   6.251
 7445SOL    HW224168  12.467   9.775   6.310
 7446SOL     OW24169  12.784  13.332   5.412
 7446SOL    HW124170  12.689  13.343   5.411
 7446SOL    HW224171  12.811  13.341   5.320
 7447SOL     OW24172   1.692   2.345   8.743
 7447SOL    HW124173   1.779   2.318   8.715
 7447SOL    HW224174   1.704   2.435   8.774
 7448SOL     OW24175  14.264   3.408   9.209
 7448SOL    HW124176  14.335   3.349   9.184
 7448SOL    HW224177  14.192   3.351   9.234
 7449SOL     OW24178   6.371   7.748  12.463
 7449SOL    HW124179   6.296   7.697  12.494
 7449SOL    HW224180   6.349   7.838  12.489
 7450SOL     OW24181   3.624  14.611   8.916
 7450SOL    HW124182   3.708  14.573   8.942
 7450SOL    HW224183   3.617  14.691   8.968
 7451SOL     OW24184   4.167  13.336   5.945
 7451SOL    HW124185   4.231  13.324   6.015
 7451SOL    HW224186   4.220  13.335   5.865
 7452SOL     OW24187  14.168   6.272   7.819
 7452SOL    HW124188  14.253   6.253   7.856
 7452SOL    HW224189  14.136   6.188   7.786
 7453SOL     OW24190   9.790   6.147   5.772
 7453SOL    HW124191   9.872   6.197   5.769
 7453SOL    HW224192   9.815   6.058   5.746
 7454SOL     OW24193   9.028   9.135   7.592
 7454SOL    HW124194   9.037   9.223   7.555
 7454SOL    HW224195   8.934   9.123   7.603
 7455SOL     OW24196   6.123   6.720  10.224
 7455SOL    HW124197   6.124   6.782  10.297
 7455SOL    HW224198   6.030   6.705  10.208
 7456SOL     OW24199   4.255   4.673   9.011
 7456SOL    HW124200   4.303   4.736   9.064
 7456SOL    HW224201   4.312   4.656   8.936
 7457SOL     OW24202   3.549   6.485  10.196
 7457SOL    HW124203   3.475   6.448  10.245
 7457SOL    HW224204   3.572   6.417  10.133
 7458SOL     OW24205   0.112   2.357  10.742
 7458SOL    HW124206   0.178   2.410  10.787
 7458SOL    HW224207   0.028   2.387  10.776
 7459SOL     OW24208   9.930  13.238   7.618
 7459SOL    HW124209   9.935  13.143   7.611
 7459SOL    HW224210   9.965  13.270   7.535
 7460SOL     OW24211   7.924  14.549   4.253
 7460SOL    HW124212   8.000  14.500   4.285
 7460SOL    HW224213   7.945  14.640   4.269
 7461SOL     OW24214   4.375   4.657  13.689
 7461SOL    HW124215   4.334   4.591  13.745
 7461SOL    HW224216   4.428   4.607  13.628
 7462SOL     OW24217   5.078   8.467   0.926
 7462SOL    HW124218   5.056   8.512   1.008
 7462SOL    HW224219   5.153   8.412   0.948
 7463SOL     OW24220   3.345   7.561   2.460
 7463SOL    HW124221   3.327   7.477   2.418
 7463SOL    HW224222   3.421   7.595   2.413
 7464SOL     OW24223   5.052   7.832   9.631
 7464SOL    HW124224   5.056   7.756   9.690
 7464SOL    HW224225   5.099   7.804   9.552
 7465SOL     OW24226   6.991   0.280  12.331
 7465SOL    HW124227   7.066   0.332  12.303
 7465SOL    HW224228   6.916   0.339  12.324
 7466SOL     OW24229   5.704   3.279   8.817
 7466SOL    HW124230   5.660   3.269   8.901
 7466SOL    HW224231   5.671   3.206   8.764
 7467SOL     OW24232  13.823  11.645   2.161
 7467SOL    HW124233  13.820  11.552   2.186
 7467SOL    HW224234  13.835  11.644   2.066
 7468SOL     OW24235   5.816   5.583   1.334
 7468SOL    HW124236   5.813   5.670   1.373
 7468SOL    HW224237   5.770   5.527   1.396
 7469SOL     OW24238  11.992   3.872   8.836
 7469SOL    HW124239  11.983   3.786   8.795
 7469SOL    HW224240  12.010   3.854   8.928
 7470SOL     OW24241   0.381   0.333   6.375
 7470SOL    HW124242   0.330   0.276   6.318
 7470SOL    HW224243   0.461   0.284   6.393
 7471SOL     OW24244   1.484   3.578  13.134
 7471SOL    HW124245   1.405   3.559  13.184
 7471SOL    HW224246   1.548   3.514  13.164
 7472SOL     OW24247   6.764   1.654   7.003
 7472SOL    HW124248   6.838   1.614   6.958
 7472SOL    HW224249   6.717   1.581   7.044
 7473SOL     OW24250  12.587  13.325   9.949
 7473SOL    HW124251  12.580  13.239   9.907
 7473SOL    HW224252  12.671  13.323   9.994
 7474SOL     OW24253  14.002  14.265  14.067
 7474SOL    HW124254  14.016  14.297  14.156
 7474SOL    HW224255  13.908  14.248  14.062
 7475SOL     OW24256   3.507  12.905   8.696
 7475SOL    HW124257   3.563  12.827   8.686
 7475SOL    HW224258   3.539  12.966   8.630
 7476SOL     OW24259   3.531  13.105   5.827
 7476SOL    HW124260   3.583  13.025   5.830
 7476SOL    HW224261   3.531  13.130   5.735
 7477SOL     OW24262   3.593   1.219   1.020
 7477SOL    HW124263   3.683   1.187   1.017
 7477SOL    HW224264   3.589   1.270   1.100
 7478SOL     OW24265  13.598   8.213   6.010
 7478SOL    HW124266  13.541   8.198   5.934
 7478SOL    HW224267  13.544   8.186   6.085
 7479SOL     OW24268   9.088   4.252   6.524
 7479SOL    HW124269   9.087   4.159   6.547
 7479SOL    HW224270   8.998   4.282   6.539
 7480SOL     OW24271   1.081   1.481   4.034
 7480SOL    HW124272   1.104   1.410   4.094
 7480SOL    HW224273   1.064   1.556   4.091
 7481SOL     OW24274   3.572  13.363   3.159
 7481SOL    HW124275   3.631  13.345   3.086
 7481SOL    HW224276   3.597  13.450   3.190
 7482SOL     OW24277  13.191   3.440  12.350
 7482SOL    HW124278  13.127   3.459  12.281
 7482SOL    HW224279  13.269   3.487  12.323
 7483SOL     OW24280   9.487  13.348   7.023
 7483SOL    HW124281   9.391  13.343   7.021
 7483SOL    HW224282   9.507  13.441   7.023
 7484SOL     OW24283   4.885   7.398   6.849
 7484SOL    HW124284   4.803   7.437   6.877
 7484SOL    HW224285   4.906   7.334   6.918
 7485SOL     OW24286   3.811   1.593   5.583
 7485SOL    HW124287   3.724   1.561   5.608
 7485SOL    HW224288   3.836   1.652   5.653
 7486SOL     OW24289   3.322  10.646   5.053
 7486SOL    HW124290   3.340  10.642   5.147
 7486SOL    HW224291   3.399  10.689   5.016
 7487SOL     OW24292   6.080   2.761   1.639
 7487SOL    HW124293   6.055   2.836   1.694
 7487SOL    HW224294   6.053   2.685   1.689
 7488SOL     OW24295   9.043   4.662   6.159
 7488SOL    HW124296   9.067   4.599   6.226
 7488SOL    HW224297   9.120   4.668   6.103
 7489SOL     OW24298   2.081   2.841   5.242
 7489SOL    HW124299   2.054   2.818   5.330
 7489SOL    HW224300   1.999   2.851   5.193
 7490SOL     OW24301  12.679   9.472  12.779
 7490SOL    HW124302  12.593   9.450  12.815
 7490SOL    HW224303  12.720   9.387  12.761
 7491SOL     OW24304   4.470  11.721   0.895
 7491SOL    HW124305   4.474  11.706   0.800
 7491SOL    HW224306   4.377  11.720   0.915
 7492SOL     OW24307   7.389  10.991   8.939
 7492SOL    HW124308   7.440  10.926   8.988
 7492SOL    HW224309   7.376  10.951   8.853
 7493SOL     OW24310   6.218  10.249   0.837
 7493SOL    HW124311   6.247  10.333   0.803
 7493SOL    HW224312   6.292  10.218   0.889
 7494SOL     OW24313   6.295   1.446  11.664
 7494SOL    HW124314   6.264   1.411  11.747
 7494SOL    HW224315   6.320   1.369  11.613
 7495SOL     OW24316   1.993   0.821   6.272
 7495SOL    HW124317   2.051   0.810   6.197
 7495SOL    HW224318   1.992   0.915   6.288
 7496SOL     OW24319   0.571   8.882   2.980
 7496SOL    HW124320   0.551   8.914   3.067
 7496SOL    HW224321   0.553   8.956   2.922
 7497SOL     OW24322   6.175  11.709  11.451
 7497SOL    HW124323   6.115  11.640  11.422
 7497SOL    HW224324   6.129  11.753  11.522
 7498SOL     OW24325   2.134  12.919   5.884
 7498SOL    HW124326   2.043  12.948   5.875
 7498SOL    HW224327   2.144  12.850   5.818
 7499SOL     OW24328   7.660  13.354  10.001
 7499SOL    HW124329   7.616  13.379  10.083
 7499SOL    HW224330   7.655  13.258  10.000
 7500SOL     OW24331   0.699  12.042  14.600
 7500SOL    HW124332   0.772  12.007  14.652
 7500SOL    HW224333   0.741  12.077  14.522
 7501SOL     OW24334   9.367   9.545  12.931
 7501SOL    HW124335   9.323   9.549  13.016
 7501SOL    HW224336   9.362   9.635  12.898
 7502SOL     OW24337  13.050   7.923  12.048
 7502SOL    HW124338  12.985   7.992  12.033
 7502SOL    HW224339  13.035   7.860  11.978
 7503SOL     OW24340   7.483  12.578   8.315
 7503SOL    HW124341   7.507  12.587   8.223
 7503SOL    HW224342   7.407  12.635   8.326
 7504SOL     OW24343  11.366   9.662   3.809
 7504SOL    HW124344  11.398   9.751   3.793
 7504SOL    HW224345  11.351   9.627   3.721
 7505SOL     OW24346   7.450   2.946  14.435
 7505SOL    HW124347   7.380   2.885  14.457
 7505SOL    HW224348   7.470   2.927  14.343
 7506SOL     OW24349   9.859   2.771   1.745
 7506SOL    HW124350   9.856   2.747   1.653
 7506SOL    HW224351   9.865   2.687   1.792
 7507SOL     OW24352   7.031   8.543   9.072
 7507SOL    HW124353   6.989   8.601   9.008
 7507SOL    HW224354   6.957   8.506   9.121
 7508SOL     OW24355  14.738  14.116  14.772
 7508SOL    HW124356  14.807  14.055  14.746
 7508SOL    HW224357  14.730  14.104  14.866
 7509SOL     OW24358   3.747  13.734   6.836
 7509SOL    HW124359   3.658  13.720   6.868
 7509SOL    HW224360   3.759  13.829   6.842
 7510SOL     OW24361  10.520  13.998   9.209
 7510SOL    HW124362  10.548  13.998   9.118
 7510SOL    HW224363  10.579  13.936   9.253
 7511SOL     OW24364   9.120   3.104   0.957
 7511SOL    HW124365   9.182   3.079   0.888
 7511SOL    HW224366   9.051   3.153   0.911
 7512SOL     OW24367   1.431   9.672  11.998
 7512SOL    HW124368   1.393   9.668  12.086
 7512SOL    HW224369   1.520   9.639  12.009
 7513SOL     OW24370  11.600   6.411  11.274
 7513SOL    HW124371  11.687   6.436  11.244
 7513SOL    HW224372  11.605   6.316  11.287
 7514SOL     OW24373   9.200   6.948   5.506
 7514SOL    HW124374   9.283   6.994   5.518
 7514SOL    HW224375   9.222   6.875   5.446
 7515SOL     OW24376   6.179   4.540   3.287
 7515SOL    HW124377   6.177   4.461   3.234
 7515SOL    HW224378   6.135   4.606   3.234
 7516SOL     OW24379   5.366   7.885  13.057
 7516SOL    HW124380   5.428   7.930  13.000
 7516SOL    HW224381   5.286   7.937  13.053
 7517SOL     OW24382  11.200   6.218   2.062
 7517SOL    HW124383  11.288   6.214   2.100
 7517SOL    HW224384  11.159   6.135   2.087
 7518SOL     OW24385   5.358  12.921  14.493
 7518SOL    HW124386   5.446  12.959  14.492
 7518SOL    HW224387   5.300  12.994  14.472
 7519SOL     OW24388  13.370  11.464  14.479
 7519SOL    HW124389  13.322  11.381  14.477
 7519SOL    HW224390  13.371  11.490  14.571
 7520SOL     OW24391   1.065   3.065   9.765
 7520SOL    HW124392   1.022   2.980   9.756
 7520SOL    HW224393   1.147   3.046   9.810
 7521SOL     OW24394   5.255   7.071   1.872
 7521SOL    HW124395   5.264   6.977   1.884
 7521SOL    HW224396   5.217   7.102   1.954
 7522SOL     OW24397  12.350   6.629   5.814
 7522SOL    HW124398  12.328   6.721   5.828
 7522SOL    HW224399  12.276   6.581   5.852
 7523SOL     OW24400   3.071   0.158  12.361
 7523SOL    HW124401   3.162   0.185  12.377
 7523SOL    HW224402   3.065   0.148  12.266
 7524SOL     OW24403   1.551   6.769   2.443
 7524SOL    HW124404   1.645   6.771   2.459
 7524SOL    HW224405   1.539   6.699   2.378
 7525SOL     OW24406   9.924  14.167   3.730
 7525SOL    HW124407   9.831  14.156   3.712
 7525SOL    HW224408   9.927  14.203   3.819
 7526SOL     OW24409   4.692   4.401  11.021
 7526SOL    HW124410   4.718   4.399  10.929
 7526SOL    HW224411   4.617   4.343  11.027
 7527SOL     OW24412  13.815  12.065  14.197
 7527SOL    HW124413  13.862  12.037  14.119
 7527SOL    HW224414  13.723  12.046  14.178
 7528SOL     OW24415   8.159  14.581  10.249
 7528SOL    HW124416   8.071  14.546  10.232
 7528SOL    HW224417   8.183  14.625  10.168
 7529SOL     OW24418   3.786   3.260  14.520
 7529SOL    HW124419   3.848   3.306  14.577
 7529SOL    HW224420   3.746   3.194  14.577
 7530SOL     OW24421   3.908  14.289  13.944
 7530SOL    HW124422   3.981  14.300  14.005
 7530SOL    HW224423   3.847  14.232  13.990
 7531SOL     OW24424   2.002   2.462  12.884
 7531SOL    HW124425   1.929   2.487  12.940
 7531SOL    HW224426   2.078   2.462  12.941
 7532SOL     OW24427   7.751   8.805   3.117
 7532SOL    HW124428   7.817   8.748   3.078
 7532SOL    HW224429   7.743   8.775   3.207
 7533SOL     OW24430   7.361   6.225   7.409
 7533SOL    HW124431   7.427   6.264   7.351
 7533SOL    HW224432   7.337   6.295   7.469
 7534SOL     OW24433   6.547  10.280   3.796
 7534SOL    HW124434   6.515  10.370   3.803
 7534SOL    HW224435   6.627  10.279   3.848
 7535SOL     OW24436   4.153   7.636   8.046
 7535SOL    HW124437   4.149   7.541   8.037
 7535SOL    HW224438   4.112   7.654   8.131
 7536SOL     OW24439   8.924   2.042   4.186
 7536SOL    HW124440   8.838   2.025   4.226
 7536SOL    HW224441   8.930   1.978   4.115
 7537SOL     OW24442  12.394  10.394   6.755
 7537SOL    HW124443  12.427  10.307   6.730
 7537SOL    HW224444  12.460  10.428   6.816
 7538SOL     OW24445  12.367   5.246  13.765
 7538SOL    HW124446  12.279   5.243  13.727
 7538SOL    HW224447  12.423   5.205  13.700
 7539SOL     OW24448   6.075  14.582  14.267
 7539SOL    HW124449   6.055  14.495  14.301
 7539SOL    HW224450   6.060  14.640  14.341
 7540SOL     OW24451   1.666   1.115  12.655
 7540SOL    HW124452   1.653   1.028  12.616
 7540SOL    HW224453   1.635   1.176  12.588
 7541SOL     OW24454   7.687  11.841   3.224
 7541SOL    HW124455   7.674  11.879   3.137
 7541SOL    HW224456   7.657  11.909   3.284
 7542SOL     OW24457   8.751   4.158  11.473
 7542SOL    HW124458   8.727   4.103  11.398
 7542SOL    HW224459   8.728   4.246  11.446
 7543SOL     OW24460   6.640  13.803   8.005
 7543SOL    HW124461   6.719  13.826   8.055
 7543SOL    HW224462   6.668  13.731   7.948
 7544SOL     OW24463   7.287   1.188   3.877
 7544SOL    HW124464   7.241   1.272   3.878
 7544SOL    HW224465   7.257   1.144   3.957
 7545SOL     OW24466   3.009   5.768   2.505
 7545SOL    HW124467   3.058   5.849   2.518
 7545SOL    HW224468   3.039   5.736   2.420
 7546SOL     OW24469   9.472   8.301   9.319
 7546SOL    HW124470   9.536   8.232   9.299
 7546SOL    HW224471   9.418   8.307   9.240
 7547SOL     OW24472  11.450   0.562   0.631
 7547SOL    HW124473  11.444   0.595   0.720
 7547SOL    HW224474  11.523   0.609   0.592
 7548SOL     OW24475  14.823   9.537   6.665
 7548SOL    HW124476  14.808   9.605   6.730
 7548SOL    HW224477  14.748   9.542   6.606
 7549SOL     OW24478   3.311   2.714   1.979
 7549SOL    HW124479   3.226   2.741   2.016
 7549SOL    HW224480   3.363   2.793   1.979
 7550SOL     OW24481  11.283   3.155  11.423
 7550SOL    HW124482  11.239   3.116  11.347
 7550SOL    HW224483  11.220   3.220  11.455
 7551SOL     OW24484   9.637   5.707  10.515
 7551SOL    HW124485   9.716   5.656  10.496
 7551SOL    HW224486   9.621   5.757  10.435
 7552SOL     OW24487   8.468   2.361   8.751
 7552SOL    HW124488   8.404   2.364   8.821
 7552SOL    HW224489   8.540   2.417   8.782
 7553SOL     OW24490   4.974   1.356   6.542
 7553SOL    HW124491   4.977   1.451   6.538
 7553SOL    HW224492   5.059   1.327   6.511
 7554SOL     OW24493   4.436   2.540   4.769
 7554SOL    HW124494   4.377   2.566   4.698
 7554SOL    HW224495   4.390   2.563   4.849
 7555SOL     OW24496  10.613  12.980   3.602
 7555SOL    HW124497  10.625  12.904   3.659
 7555SOL    HW224498  10.572  12.944   3.523
 7556SOL     OW24499   8.847   9.809  12.380
 7556SOL    HW124500   8.759   9.834  12.352
 7556SOL    HW224501   8.874   9.741  12.318
 7557SOL     OW24502  12.693   7.376  12.856
 7557SOL    HW124503  12.602   7.394  12.880
 7557SOL    HW224504  12.702   7.412  12.768
 7558SOL     OW24505   5.431  10.238  13.479
 7558SOL    HW124506   5.394  10.251  13.567
 7558SOL    HW224507   5.416  10.145  13.461
 7559SOL     OW24508   4.689  14.085   5.147
 7559SOL    HW124509   4.663  14.061   5.058
 7559SOL    HW224510   4.662  14.176   5.156
 7560SOL     OW24511  13.850   7.410   4.073
 7560SOL    HW124512  13.848   7.328   4.023
 7560SOL    HW224513  13.860   7.478   4.007
 7561SOL     OW24514   3.772   9.758   7.344
 7561SOL    HW124515   3.725   9.838   7.366
 7561SOL    HW224516   3.861   9.772   7.377
 7562SOL     OW24517   4.130  11.238   1.809
 7562SOL    HW124518   4.170  11.275   1.887
 7562SOL    HW224519   4.051  11.291   1.795
 7563SOL     OW24520   6.689   7.781  14.465
 7563SOL    HW124521   6.645   7.827  14.536
 7563SOL    HW224522   6.732   7.706  14.507
 7564SOL     OW24523  12.930   6.084   9.304
 7564SOL    HW124524  12.850   6.134   9.318
 7564SOL    HW224525  12.922   6.008   9.362
 7565SOL     OW24526   5.288   5.730  11.564
 7565SOL    HW124527   5.211   5.735  11.507
 7565SOL    HW224528   5.359   5.769  11.512
 7566SOL     OW24529  12.364   5.464   3.836
 7566SOL    HW124530  12.356   5.521   3.759
 7566SOL    HW224531  12.404   5.519   3.903
 7567SOL     OW24532   3.240   4.038  12.755
 7567SOL    HW124533   3.152   4.001  12.769
 7567SOL    HW224534   3.299   3.964  12.767
 7568SOL     OW24535  10.585   4.597  11.928
 7568SOL    HW124536  10.504   4.546  11.932
 7568SOL    HW224537  10.640   4.549  11.866
 7569SOL     OW24538   2.776   0.087  12.227
 7569SOL    HW124539   2.857   0.098  12.178
 7569SOL    HW224540   2.749  14.869  12.208
 7570SOL     OW24541  10.984   2.633  12.615
 7570SOL    HW124542  10.964   2.604  12.704
 7570SOL    HW224543  10.909   2.688  12.590
 7571SOL     OW24544  14.638   5.427  13.080
 7571SOL    HW124545  14.546   5.440  13.106
 7571SOL    HW224546  14.633   5.409  12.986
 7572SOL     OW24547  13.165   5.955   8.580
 7572SOL    HW124548  13.189   5.981   8.491
 7572SOL    HW224549  13.154   5.860   8.575
 7573SOL     OW24550  10.632   9.064  14.389
 7573SOL    HW124551  10.655   9.095  14.477
 7573SOL    HW224552  10.573   8.991  14.405
 7574SOL     OW24553   9.810  11.409   9.972
 7574SOL    HW124554   9.875  11.479   9.978
 7574SOL    HW224555   9.726  11.453   9.989
 7575SOL     OW24556  10.550   0.085   0.449
 7575SOL    HW124557  10.501   0.142   0.508
 7575SOL    HW224558  10.628   0.136   0.426
 7576SOL     OW24559  13.584   4.671   7.615
 7576SOL    HW124560  13.573   4.652   7.708
 7576SOL    HW224561  13.608   4.587   7.576
 7577SOL     OW24562   1.174   7.208  11.299
 7577SOL    HW124563   1.231   7.189  11.373
 7577SOL    HW224564   1.146   7.299  11.313
 7578SOL     OW24565   6.736   3.239   5.613
 7578SOL    HW124566   6.704   3.164   5.663
 7578SOL    HW224567   6.831   3.228   5.611
 7579SOL     OW24568  10.849   3.504   9.223
 7579SOL    HW124569  10.868   3.421   9.180
 7579SOL    HW224570  10.792   3.482   9.296
 7580SOL     OW24571   3.710   2.818   6.156
 7580SOL    HW124572   3.752   2.859   6.232
 7580SOL    HW224573   3.733   2.725   6.163
 7581SOL     OW24574   1.294   0.538  11.109
 7581SOL    HW124575   1.228   0.472  11.131
 7581SOL    HW224576   1.247   0.621  11.113
 7582SOL     OW24577   7.356   4.055  10.629
 7582SOL    HW124578   7.380   4.039  10.720
 7582SOL    HW224579   7.262   4.072  10.631
 7583SOL     OW24580   6.336   1.513   6.824
 7583SOL    HW124581   6.349   1.426   6.860
 7583SOL    HW224582   6.241   1.523   6.819
 7584SOL     OW24583  10.969  10.637  13.665
 7584SOL    HW124584  10.939  10.727  13.679
 7584SOL    HW224585  11.054  10.634  13.709
 7585SOL     OW24586  11.299   5.639   7.877
 7585SOL    HW124587  11.319   5.651   7.784
 7585SOL    HW224588  11.381   5.605   7.914
 7586SOL     OW24589   8.754   2.812   6.515
 7586SOL    HW124590   8.758   2.812   6.420
 7586SOL    HW224591   8.837   2.850   6.543
 7587SOL     OW24592   6.204  11.662   9.872
 7587SOL    HW124593   6.135  11.704   9.924
 7587SOL    HW224594   6.182  11.569   9.873
 7588SOL     OW24595  10.110   6.139   5.114
 7588SOL    HW124596  10.030   6.190   5.100
 7588SOL    HW224597  10.106   6.069   5.049
 7589SOL     OW24598  14.078   3.374   1.054
 7589SOL    HW124599  13.984   3.385   1.043
 7589SOL    HW224600  14.101   3.303   0.994
 7590SOL     OW24601   5.861  10.798  11.225
 7590SOL    HW124602   5.803  10.857  11.274
 7590SOL    HW224603   5.948  10.818  11.258
 7591SOL     OW24604  14.434  14.520   3.911
 7591SOL    HW124605  14.364  14.525   3.846
 7591SOL    HW224606  14.421  14.598   3.966
 7592SOL     OW24607   2.703  11.536   8.008
 7592SOL    HW124608   2.700  11.591   8.086
 7592SOL    HW224609   2.633  11.569   7.952
 7593SOL     OW24610   7.734   1.017   0.495
 7593SOL    HW124611   7.745   1.064   0.578
 7593SOL    HW224612   7.669   0.949   0.514
 7594SOL     OW24613  13.090  13.671   4.896
 7594SOL    HW124614  13.139  13.602   4.852
 7594SOL    HW224615  13.156  13.731   4.929
 7595SOL     OW24616  10.674   2.945  10.016
 7595SOL    HW124617  10.684   3.029   9.973
 7595SOL    HW224618  10.608   2.961  10.084
 7596SOL     OW24619  12.917  11.445  12.743
 7596SOL    HW124620  12.911  11.353  12.718
 7596SOL    HW224621  12.875  11.450  12.828
 7597SOL     OW24622   6.092  12.833   1.680
 7597SOL    HW124623   6.048  12.910   1.643
 7597SOL    HW224624   6.021  12.775   1.707
 7598SOL     OW24625   2.523   0.580   1.410
 7598SOL    HW124626   2.503   0.613   1.498
 7598SOL    HW224627   2.463   0.507   1.397
 7599SOL     OW24628   5.725  11.039  13.776
 7599SOL    HW124629   5.646  11.091  13.767
 7599SOL    HW224630   5.695  10.954  13.808
 7600SOL     OW24631  10.042   6.974  11.162
 7600SOL    HW124632   9.962   6.978  11.108
 7600SOL    HW224633  10.093   6.904  11.121
 7601SOL     OW24634   0.891  14.230  11.860
 7601SOL    HW124635   0.905  14.285  11.937
 7601SOL    HW224636   0.952  14.264  11.794
 7602SOL     OW24637   2.382   0.543   2.283
 7602SOL    HW124638   2.317   0.531   2.214
 7602SOL    HW224639   2.391   0.638   2.292
 7603SOL     OW24640   7.474   2.981   4.859
 7603SOL    HW124641   7.382   2.963   4.837
 7603SOL    HW224642   7.496   3.057   4.804
 7604SOL     OW24643  12.315   7.979   9.249
 7604SOL    HW124644  12.255   7.938   9.187
 7604SOL    HW224645  12.275   7.962   9.335
 7605SOL     OW24646   5.731   6.948   6.368
 7605SOL    HW124647   5.712   7.010   6.438
 7605SOL    HW224648   5.695   6.865   6.398
 7606SOL     OW24649   4.541   0.687   1.548
 7606SOL    HW124650   4.540   0.693   1.452
 7606SOL    HW224651   4.515   0.774   1.578
 7607SOL     OW24652   2.059   0.943   9.949
 7607SOL    HW124653   2.069   0.857   9.989
 7607SOL    HW224654   1.994   0.988  10.003
 7608SOL     OW24655   0.114   9.700   5.512
 7608SOL    HW124656   0.130   9.630   5.449
 7608SOL    HW224657   0.200   9.737   5.530
 7609SOL     OW24658   8.289   5.023   5.904
 7609SOL    HW124659   8.266   4.931   5.887
 7609SOL    HW224660   8.340   5.020   5.984
 7610SOL     OW24661   6.941  13.069  13.873
 7610SOL    HW124662   6.913  12.988  13.916
 7610SOL    HW224663   6.859  13.113  13.850
 7611SOL     OW24664   6.697   1.577   0.382
 7611SOL    HW124665   6.713   1.632   0.305
 7611SOL    HW224666   6.602   1.573   0.390
 7612SOL     OW24667   9.810   1.485   3.157
 7612SOL    HW124668   9.838   1.575   3.173
 7612SOL    HW224669   9.831   1.439   3.238
 7613SOL     OW24670   9.478   4.157   0.253
 7613SOL    HW124671   9.391   4.139   0.215
 7613SOL    HW224672   9.486   4.092   0.323
 7614SOL     OW24673   3.100   5.482   9.705
 7614SOL    HW124674   3.067   5.414   9.646
 7614SOL    HW224675   3.140   5.434   9.777
 7615SOL     OW24676   6.271   3.128   9.686
 7615SOL    HW124677   6.186   3.163   9.658
 7615SOL    HW224678   6.334   3.172   9.630
 7616SOL     OW24679   5.948   2.510  13.515
 7616SOL    HW124680   5.897   2.587  13.489
 7616SOL    HW224681   5.883   2.439  13.522
 7617SOL     OW24682   1.334   6.128   7.289
 7617SOL    HW124683   1.282   6.062   7.334
 7617SOL    HW224684   1.343   6.199   7.353
 7618SOL     OW24685  12.694  10.952   0.081
 7618SOL    HW124686  12.770  10.965   0.024
 7618SOL    HW224687  12.621  10.992   0.032
 7619SOL     OW24688   9.512   0.757   8.010
 7619SOL    HW124689   9.452   0.736   8.082
 7619SOL    HW224690   9.508   0.853   8.003
 7620SOL     OW24691  13.896   0.163   1.204
 7620SOL    HW124692  13.834   0.138   1.136
 7620SOL    HW224693  13.920   0.080   1.245
 7621SOL     OW24694  14.131  10.482  10.401
 7621SOL    HW124695  14.104  10.508  10.490
 7621SOL    HW224696  14.070  10.413  10.377
 7622SOL     OW24697   2.591   4.765   6.847
 7622SOL    HW124698   2.678   4.795   6.821
 7622SOL    HW224699   2.531   4.818   6.795
 7623SOL     OW24700  13.677   7.125  11.987
 7623SOL    HW124701  13.621   7.062  11.941
 7623SOL    HW224702  13.671   7.205  11.935
 7624SOL     OW24703  14.425   9.454  12.555
 7624SOL    HW124704  14.454   9.427  12.468
 7624SOL    HW224705  14.482   9.528  12.577
 7625SOL     OW24706   5.947   9.834   4.971
 7625SOL    HW124707   6.042   9.837   4.966
 7625SOL    HW224708   5.918   9.908   4.917
 7626SOL     OW24709  10.556  13.304   2.409
 7626SOL    HW124710  10.497  13.300   2.333
 7626SOL    HW224711  10.613  13.379   2.392
 7627SOL     OW24712   1.877   6.437   2.204
 7627SOL    HW124713   1.836   6.369   2.150
 7627SOL    HW224714   1.851   6.415   2.293
 7628SOL     OW24715   7.899   4.804   2.918
 7628SOL    HW124716   7.825   4.821   2.976
 7628SOL    HW224717   7.931   4.890   2.893
 7629SOL     OW24718   8.671   7.039   3.143
 7629SOL    HW124719   8.704   7.045   3.233
 7629SOL    HW224720   8.592   6.986   3.150
 7630SOL     OW24721   0.400   0.546  10.895
 7630SOL    HW124722   0.465   0.476  10.903
 7630SOL    HW224723   0.318   0.500  10.878
 7631SOL     OW24724   6.411   4.141   8.890
 7631SOL    HW124725   6.433   4.186   8.808
 7631SOL    HW224726   6.410   4.048   8.867
 7632SOL     OW24727   7.537   9.764  14.135
 7632SOL    HW124728   7.561   9.816  14.212
 7632SOL    HW224729   7.589   9.801  14.064
 7633SOL     OW24730   7.855   9.595   6.660
 7633SOL    HW124731   7.865   9.548   6.743
 7633SOL    HW224732   7.906   9.543   6.597
 7634SOL     OW24733  10.399   0.591   9.814
 7634SOL    HW124734  10.413   0.576   9.907
 7634SOL    HW224735  10.326   0.535   9.790
 7635SOL     OW24736  10.244   1.528  10.748
 7635SOL    HW124737  10.172   1.468  10.732
 7635SOL    HW224738  10.238   1.592  10.676
 7636SOL     OW24739   9.775   8.535   7.826
 7636SOL    HW124740   9.847   8.587   7.863
 7636SOL    HW224741   9.766   8.568   7.736
 7637SOL     OW24742  12.993   1.745   8.905
 7637SOL    HW124743  13.006   1.740   9.000
 7637SOL    HW224744  13.051   1.816   8.877
 7638SOL     OW24745  13.623  13.045   1.655
 7638SOL    HW124746  13.655  13.112   1.715
 7638SOL    HW224747  13.624  13.088   1.569
 7639SOL     OW24748  12.142  12.834  14.290
 7639SOL    HW124749  12.199  12.855  14.365
 7639SOL    HW224750  12.117  12.919  14.254
 7640SOL     OW24751   1.664   5.144  13.982
 7640SOL    HW124752   1.717   5.113  13.908
 7640SOL    HW224753   1.707   5.106  14.059
 7641SOL     OW24754   3.526  11.023   6.079
 7641SOL    HW124755   3.517  11.101   6.024
 7641SOL    HW224756   3.604  11.040   6.132
 7642SOL     OW24757   5.767   3.918   4.317
 7642SOL    HW124758   5.697   3.904   4.254
 7642SOL    HW224759   5.737   3.876   4.398
 7643SOL     OW24760   5.905  10.120   5.929
 7643SOL    HW124761   5.859  10.103   6.011
 7643SOL    HW224762   5.899  10.214   5.917
 7644SOL     OW24763  13.562   7.779   3.917
 7644SOL    HW124764  13.483   7.756   3.868
 7644SOL    HW224765  13.602   7.696   3.939
 7645SOL     OW24766   2.103  12.989  10.694
 7645SOL    HW124767   2.082  13.058  10.757
 7645SOL    HW224768   2.104  12.909  10.747
 7646SOL     OW24769   0.666  13.353   4.817
 7646SOL    HW124770   0.732  13.393   4.761
 7646SOL    HW224771   0.648  13.418   4.884
 7647SOL     OW24772   1.956   0.330   2.901
 7647SOL    HW124773   2.032   0.323   2.844
 7647SOL    HW224774   1.903   0.253   2.880
 7648SOL     OW24775   6.534   3.547   7.441
 7648SOL    HW124776   6.552   3.453   7.431
 7648SOL    HW224777   6.439   3.554   7.432
 7649SOL     OW24778   6.121   0.544   7.304
 7649SOL    HW124779   6.207   0.506   7.286
 7649SOL    HW224780   6.115   0.549   7.399
 7650SOL     OW24781   5.746   1.076   0.012
 7650SOL    HW124782   5.681   1.014   0.044
 7650SOL    HW224783   5.701   1.161   0.015
 7651SOL     OW24784  11.210   5.735   4.847
 7651SOL    HW124785  11.229   5.642   4.831
 7651SOL    HW224786  11.137   5.733   4.909
 7652SOL     OW24787   8.702  10.293   4.622
 7652SOL    HW124788   8.643  10.369   4.620
 7652SOL    HW224789   8.646  10.220   4.648
 7653SOL     OW24790   6.040  12.374   5.608
 7653SOL    HW124791   6.038  12.279   5.597
 7653SOL    HW224792   6.091  12.387   5.688
 7654SOL     OW24793   7.974   4.176   8.260
 7654SOL    HW124794   7.917   4.102   8.283
 7654SOL    HW224795   8.046   4.171   8.323
 7655SOL     OW24796   1.687   4.404   9.802
 7655SOL    HW124797   1.639   4.480   9.768
 7655SOL    HW224798   1.622   4.355   9.852
 7656SOL     OW24799   6.185   2.659  10.292
 7656SOL    HW124800   6.139   2.741  10.309
 7656SOL    HW224801   6.271   2.672  10.331
 7657SOL     OW24802  13.191   7.954  11.690
 7657SOL    HW124803  13.246   7.878  11.707
 7657SOL    HW224804  13.102   7.919  11.685
 7658SOL     OW24805   9.547   6.560   9.197
 7658SOL    HW124806   9.564   6.624   9.267
 7658SOL    HW224807   9.582   6.602   9.118
 7659SOL     OW24808   9.290   5.819   4.382
 7659SOL    HW124809   9.334   5.865   4.453
 7659SOL    HW224810   9.222   5.881   4.353
 7660SOL     OW24811  12.525   2.469  10.671
 7660SOL    HW124812  12.466   2.540  10.698
 7660SOL    HW224813  12.515   2.463  10.576
 7661SOL     OW24814   4.084   1.660  13.245
 7661SOL    HW124815   3.999   1.697  13.220
 7661SOL    HW224816   4.063   1.573  13.278
 7662SOL     OW24817  11.773   1.897  12.177
 7662SOL    HW124818  11.832   1.826  12.205
 7662SOL    HW224819  11.711   1.854  12.118
 7663SOL     OW24820  13.271   5.507   3.181
 7663SOL    HW124821  13.328   5.459   3.121
 7663SOL    HW224822  13.332   5.556   3.237
 7664SOL     OW24823   2.198   5.911   5.265
 7664SOL    HW124824   2.198   5.930   5.359
 7664SOL    HW224825   2.200   5.997   5.223
 7665SOL     OW24826   4.217   5.471   3.864
 7665SOL    HW124827   4.306   5.456   3.897
 7665SOL    HW224828   4.220   5.441   3.773
 7666SOL     OW24829  14.056  13.324  13.482
 7666SOL    HW124830  13.981  13.288  13.435
 7666SOL    HW224831  14.071  13.263  13.554
 7667SOL     OW24832   7.104   1.900  11.868
 7667SOL    HW124833   7.183   1.955  11.873
 7667SOL    HW224834   7.070   1.898  11.957
 7668SOL     OW24835   1.126  12.904   8.919
 7668SOL    HW124836   1.095  12.978   8.970
 7668SOL    HW224837   1.182  12.943   8.852
 7669SOL     OW24838  10.523   0.961  11.810
 7669SOL    HW124839  10.544   0.869  11.789
 7669SOL    HW224840  10.448   0.956  11.869
 7670SOL     OW24841   5.675   4.673   4.012
 7670SOL    HW124842   5.633   4.744   3.965
 7670SOL    HW224843   5.654   4.690   4.104
 7671SOL     OW24844   8.472   9.684   6.747
 7671SOL    HW124845   8.485   9.593   6.775
 7671SOL    HW224846   8.499   9.737   6.823
 7672SOL     OW24847   7.813  11.288  10.782
 7672SOL    HW124848   7.898  11.247  10.798
 7672SOL    HW224849   7.769  11.287  10.867
 7673SOL     OW24850  12.217  11.140   8.667
 7673SOL    HW124851  12.144  11.090   8.631
 7673SOL    HW224852  12.230  11.211   8.605
 7674SOL     OW24853   1.322  11.276   6.448
 7674SOL    HW124854   1.345  11.264   6.540
 7674SOL    HW224855   1.325  11.370   6.435
 7675SOL     OW24856   9.132   1.366   4.882
 7675SOL    HW124857   9.146   1.331   4.794
 7675SOL    HW224858   9.070   1.305   4.923
 7676SOL     OW24859   5.327   8.392   1.681
 7676SOL    HW124860   5.287   8.413   1.596
 7676SOL    HW224861   5.420   8.412   1.668
 7677SOL     OW24862   9.289  11.749   5.614
 7677SOL    HW124863   9.353  11.769   5.682
 7677SOL    HW224864   9.205  11.743   5.660
 7678SOL     OW24865   6.682   1.185   3.756
 7678SOL    HW124866   6.605   1.181   3.699
 7678SOL    HW224867   6.650   1.157   3.842
 7679SOL     OW24868   4.200   5.978  11.868
 7679SOL    HW124869   4.234   5.932  11.945
 7679SOL    HW224870   4.238   5.930  11.794
 7680SOL     OW24871   9.917   1.020  14.262
 7680SOL    HW124872   9.950   1.043  14.175
 7680SOL    HW224873   9.835   1.069  14.270
 7681SOL     OW24874   4.586   9.913   7.833
 7681SOL    HW124875   4.521   9.981   7.812
 7681SOL    HW224876   4.668   9.961   7.844
 7682SOL     OW24877  12.586   0.968   4.751
 7682SOL    HW124878  12.537   0.949   4.831
 7682SOL    HW224879  12.677   0.951   4.774
 7683SOL     OW24880  12.316   1.930   1.663
 7683SOL    HW124881  12.375   1.864   1.699
 7683SOL    HW224882  12.294   1.898   1.575
 7684SOL     OW24883   8.938  12.082   8.406
 7684SOL    HW124884   8.930  12.159   8.462
 7684SOL    HW224885   9.031  12.078   8.385
 7685SOL     OW24886   0.377  10.905   1.164
 7685SOL    HW124887   0.428  10.978   1.198
 7685SOL    HW224888   0.372  10.843   1.238
 7686SOL     OW24889   5.354   0.471  12.309
 7686SOL    HW124890   5.335   0.381  12.337
 7686SOL    HW224891   5.379   0.516  12.390
 7687SOL     OW24892   2.182   9.875   9.484
 7687SOL    HW124893   2.134   9.793   9.492
 7687SOL    HW224894   2.266   9.859   9.527
 7688SOL     OW24895  14.767  12.279  12.139
 7688SOL    HW124896  14.677  12.289  12.170
 7688SOL    HW224897  14.805  12.214  12.198
 7689SOL     OW24898   9.202   4.643   1.834
 7689SOL    HW124899   9.245   4.567   1.875
 7689SOL    HW224900   9.173   4.611   1.749
 7690SOL     OW24901   3.027   3.757  13.392
 7690SOL    HW124902   2.946   3.804  13.372
 7690SOL    HW224903   2.998   3.679  13.439
 7691SOL     OW24904   6.990  13.324  13.356
 7691SOL    HW124905   6.938  13.403  13.342
 7691SOL    HW224906   6.930  13.264  13.401
 7692SOL     OW24907   2.342   8.649   1.756
 7692SOL    HW124908   2.298   8.692   1.683
 7692SOL    HW224909   2.284   8.578   1.781
 7693SOL     OW24910  14.526  11.608  11.992
 7693SOL    HW124911  14.550  11.677  11.930
 7693SOL    HW224912  14.610  11.582  12.031
 7694SOL     OW24913   0.024   4.524  14.315
 7694SOL    HW124914  14.805   4.497  14.311
 7694SOL    HW224915   0.051   4.506  14.405
 7695SOL     OW24916  10.838   3.042   5.283
 7695SOL    HW124917  10.877   2.964   5.243
 7695SOL    HW224918  10.776   3.008   5.348
 7696SOL     OW24919   7.674  14.613   2.466
 7696SOL    HW124920   7.659  14.596   2.559
 7696SOL    HW224921   7.590  14.593   2.424
 7697SOL     OW24922   0.591   3.951   3.611
 7697SOL    HW124923   0.569   3.863   3.580
 7697SOL    HW224924   0.655   3.983   3.547
 7698SOL     OW24925  10.721  12.123  13.703
 7698SOL    HW124926  10.642  12.136  13.756
 7698SOL    HW224927  10.721  12.030  13.682
 7699SOL     OW24928   8.273   4.310   2.651
 7699SOL    HW124929   8.204   4.375   2.661
 7699SOL    HW224930   8.321   4.337   2.573
 7700SOL     OW24931   7.507   6.157  14.125
 7700SOL    HW124932   7.562   6.081  14.147
 7700SOL    HW224933   7.418   6.123  14.123
 7701SOL     OW24934  12.062   4.765  13.361
 7701SOL    HW124935  12.017   4.814  13.430
 7701SOL    HW224936  12.023   4.678  13.364
 7702SOL     OW24937  10.096   3.133   3.419
 7702SOL    HW124938  10.009   3.146   3.381
 7702SOL    HW224939  10.131   3.056   3.374
 7703SOL     OW24940   9.153   1.442   3.194
 7703SOL    HW124941   9.072   1.471   3.152
 7703SOL    HW224942   9.125   1.388   3.268
 7704SOL     OW24943   9.468  12.953   9.240
 7704SOL    HW124944   9.454  12.858   9.245
 7704SOL    HW224945   9.381  12.991   9.250
 7705SOL     OW24946   6.257   9.107   2.526
 7705SOL    HW124947   6.296   9.159   2.596
 7705SOL    HW224948   6.167   9.094   2.554
 7706SOL     OW24949   3.997   0.762   7.041
 7706SOL    HW124950   4.085   0.775   7.006
 7706SOL    HW224951   3.954   0.847   7.030
 7707SOL     OW24952   0.417   7.993   1.872
 7707SOL    HW124953   0.489   7.933   1.854
 7707SOL    HW224954   0.345   7.961   1.817
 7708SOL     OW24955   2.870  10.768   4.332
 7708SOL    HW124956   2.945  10.824   4.351
 7708SOL    HW224957   2.828  10.754   4.417
 7709SOL     OW24958  14.314   1.159   5.203
 7709SOL    HW124959  14.251   1.087   5.209
 7709SOL    HW224960  14.270   1.232   5.246
 7710SOL     OW24961   5.865  13.624  10.666
 7710SOL    HW124962   5.956  13.646  10.648
 7710SOL    HW224963   5.851  13.649  10.757
 7711SOL     OW24964   8.456   6.883   1.297
 7711SOL    HW124965   8.409   6.967   1.297
 7711SOL    HW224966   8.547   6.906   1.278
 7712SOL     OW24967  12.938   3.550   2.155
 7712SOL    HW124968  12.949   3.550   2.060
 7712SOL    HW224969  13.015   3.504   2.188
 7713SOL     OW24970   4.922   7.779  13.054
 7713SOL    HW124971   5.012   7.773  13.024
 7713SOL    HW224972   4.918   7.720  13.130
 7714SOL     OW24973   9.698  11.765  12.773
 7714SOL    HW124974   9.616  11.814  12.777
 7714SOL    HW224975   9.671  11.674  12.762
 7715SOL     OW24976   6.369  11.891  10.174
 7715SOL    HW124977   6.405  11.826  10.113
 7715SOL    HW224978   6.303  11.842  10.223
 7716SOL     OW24979  10.960  13.305   9.442
 7716SOL    HW124980  10.921  13.255   9.513
 7716SOL    HW224981  11.013  13.241   9.395
 7717SOL     OW24982   4.242   3.136  10.377
 7717SOL    HW124983   4.288   3.057  10.346
 7717SOL    HW224984   4.185   3.160  10.304
 7718SOL     OW24985   3.348   5.223  13.217
 7718SOL    HW124986   3.349   5.205  13.123
 7718SOL    HW224987   3.436   5.254  13.237
 7719SOL     OW24988   8.868   1.906   0.300
 7719SOL    HW124989   8.911   1.978   0.255
 7719SOL    HW224990   8.853   1.840   0.232
 7720SOL     OW24991   9.128   7.765   8.863
 7720SOL    HW124992   9.205   7.769   8.806
 7720SOL    HW224993   9.121   7.852   8.901
 7721SOL     OW24994   8.596  10.103  13.058
 7721SOL    HW124995   8.588  10.079  12.966
 7721SOL    HW224996   8.575  10.022  13.105
 7722SOL     OW24997   0.022  12.447   5.461
 7722SOL    HW124998   0.045  12.538   5.479
 7722SOL    HW224999   0.077  12.422   5.387
 7723SOL     OW25000   9.035   5.867   1.938
 7723SOL    HW125001   9.087   5.932   1.985
 7723SOL    HW225002   9.016   5.909   1.854
 7724SOL     OW25003  11.015   6.518  14.396
 7724SOL    HW125004  11.011   6.443  14.454
 7724SOL    HW225005  10.988   6.592  14.450
 7725SOL     OW25006   9.642   5.879   7.618
 7725SOL    HW125007   9.666   5.787   7.621
 7725SOL    HW225008   9.685   5.913   7.540
 7726SOL     OW25009  11.193  14.832   5.414
 7726SOL    HW125010  11.281  14.796   5.405
 7726SOL    HW225011  11.135  14.756   5.414
 7727SOL     OW25012  10.190  11.440  10.891
 7727SOL    HW125013  10.099  11.471  10.891
 7727SOL    HW225014  10.188  11.362  10.836
 7728SOL     OW25015   5.190   7.880   3.616
 7728SOL    HW125016   5.260   7.860   3.678
 7728SOL    HW225017   5.155   7.964   3.645
 7729SOL     OW25018   0.232   4.764  13.767
 7729SOL    HW125019   0.318   4.803  13.787
 7729SOL    HW225020   0.208   4.802  13.682
 7730SOL     OW25021   3.413   7.022  10.864
 7730SOL    HW125022   3.394   7.088  10.931
 7730SOL    HW225023   3.424   7.072  10.783
 7731SOL     OW25024   5.946   3.242   7.224
 7731SOL    HW125025   5.996   3.255   7.305
 7731SOL    HW225026   5.859   3.216   7.255
 7732SOL     OW25027  14.633  11.944   1.362
 7732SOL    HW125028  14.646  11.867   1.417
 7732SOL    HW225029  14.656  11.915   1.274
 7733SOL     OW25030   0.789  13.177   5.472
 7733SOL    HW125031   0.829  13.165   5.386
 7733SOL    HW225032   0.811  13.266   5.497
 7734SOL     OW25033   2.189   5.693  11.395
 7734SOL    HW125034   2.124   5.626  11.417
 7734SOL    HW225035   2.171   5.765  11.455
 7735SOL     OW25036  14.272   9.247   8.453
 7735SOL    HW125037  14.253   9.199   8.372
 7735SOL    HW225038  14.238   9.335   8.437
 7736SOL     OW25039   6.708   1.758  10.198
 7736SOL    HW125040   6.621   1.739  10.234
 7736SOL    HW225041   6.715   1.854  10.205
 7737SOL     OW25042   9.301  11.146   7.402
 7737SOL    HW125043   9.297  11.121   7.309
 7737SOL    HW225044   9.369  11.089   7.439
 7738SOL     OW25045  10.681  11.054  14.685
 7738SOL    HW125046  10.764  11.077  14.643
 7738SOL    HW225047  10.685  11.095  14.771
 7739SOL     OW25048   3.563  11.325  10.288
 7739SOL    HW125049   3.590  11.241  10.325
 7739SOL    HW225050   3.535  11.376  10.364
 7740SOL     OW25051   3.692   2.047   3.979
 7740SOL    HW125052   3.723   2.107   4.047
 7740SOL    HW225053   3.652   2.104   3.914
 7741SOL     OW25054   9.010   4.075   5.515
 7741SOL    HW125055   9.007   3.988   5.555
 7741SOL    HW225056   9.054   4.130   5.579
 7742SOL     OW25057   5.351   1.799   8.623
 7742SOL    HW125058   5.272   1.853   8.615
 7742SOL    HW225059   5.325   1.728   8.681
 7743SOL     OW25060   0.672  12.141   6.466
 7743SOL    HW125061   0.746  12.197   6.490
 7743SOL    HW225062   0.685  12.060   6.515
 7744SOL     OW25063   5.787   3.829  11.282
 7744SOL    HW125064   5.857   3.847  11.219
 7744SOL    HW225065   5.803   3.740  11.312
 7745SOL     OW25066   9.427  11.456  13.641
 7745SOL    HW125067   9.396  11.502  13.719
 7745SOL    HW225068   9.493  11.515  13.604
 7746SOL     OW25069   9.546   4.159   9.085
 7746SOL    HW125070   9.552   4.068   9.115
 7746SOL    HW225071   9.624   4.172   9.032
 7747SOL     OW25072   9.378   0.457  13.900
 7747SOL    HW125073   9.315   0.429  13.967
 7747SOL    HW225074   9.342   0.425  13.818
 7748SOL     OW25075   3.487   4.385  12.527
 7748SOL    HW125076   3.432   4.308  12.545
 7748SOL    HW225077   3.538   4.361  12.450
 7749SOL     OW25078   5.486   4.956  13.439
 7749SOL    HW125079   5.514   4.925  13.353
 7749SOL    HW225080   5.558   4.934  13.498
 7750SOL     OW25081   6.378   2.567  10.766
 7750SOL    HW125082   6.430   2.540  10.842
 7750SOL    HW225083   6.291   2.586  10.801
 7751SOL     OW25084  12.638   8.511  12.603
 7751SOL    HW125085  12.667   8.422  12.623
 7751SOL    HW225086  12.643   8.517  12.507
 7752SOL     OW25087   2.097  12.195   8.607
 7752SOL    HW125088   2.097  12.284   8.573
 7752SOL    HW225089   2.012  12.185   8.649
 7753SOL     OW25090  13.347   6.601   5.622
 7753SOL    HW125091  13.257   6.596   5.588
 7753SOL    HW225092  13.400   6.558   5.555
 7754SOL     OW25093   9.808  11.031   9.586
 7754SOL    HW125094   9.761  10.985   9.656
 7754SOL    HW225095   9.820  11.119   9.620
 7755SOL     OW25096   0.563   2.614   7.912
 7755SOL    HW125097   0.652   2.602   7.879
 7755SOL    HW225098   0.509   2.615   7.833
 7756SOL     OW25099  11.570   7.393   0.706
 7756SOL    HW125100  11.649   7.387   0.651
 7756SOL    HW225101  11.527   7.308   0.694
 7757SOL     OW25102  14.311   9.598   9.405
 7757SOL    HW125103  14.315   9.531   9.336
 7757SOL    HW225104  14.242   9.568   9.463
 7758SOL     OW25105  10.820   3.608   5.718
 7758SOL    HW125106  10.870   3.667   5.774
 7758SOL    HW225107  10.868   3.607   5.635
 7759SOL     OW25108   5.365  13.018   7.175
 7759SOL    HW125109   5.290  13.048   7.227
 7759SOL    HW225110   5.331  12.943   7.126
 7760SOL     OW25111   8.685   4.332   0.730
 7760SOL    HW125112   8.592   4.315   0.716
 7760SOL    HW225113   8.718   4.255   0.777
 7761SOL     OW25114  12.596  11.076  10.488
 7761SOL    HW125115  12.532  11.009  10.463
 7761SOL    HW225116  12.626  11.048  10.574
 7762SOL     OW25117   3.723  10.165   8.877
 7762SOL    HW125118   3.697  10.134   8.790
 7762SOL    HW225119   3.812  10.130   8.889
 7763SOL     OW25120   0.544   7.069   2.964
 7763SOL    HW125121   0.603   6.994   2.963
 7763SOL    HW225122   0.577   7.127   2.896
 7764SOL     OW25123  12.789   2.628  12.970
 7764SOL    HW125124  12.782   2.614  13.064
 7764SOL    HW225125  12.723   2.570  12.933
 7765SOL     OW25126  14.766   4.570   4.252
 7765SOL    HW125127  14.829   4.619   4.200
 7765SOL    HW225128  14.685   4.572   4.200
 7766SOL     OW25129   8.298   9.584  10.853
 7766SOL    HW125130   8.301   9.619  10.764
 7766SOL    HW225131   8.256   9.653  10.905
 7767SOL     OW25132   0.561   9.003   5.815
 7767SOL    HW125133   0.537   9.005   5.908
 7767SOL    HW225134   0.553   8.911   5.790
 7768SOL     OW25135   7.991   0.196   5.547
 7768SOL    HW125136   8.051   0.264   5.577
 7768SOL    HW225137   7.905   0.224   5.578
 7769SOL     OW25138   2.462  11.544   3.278
 7769SOL    HW125139   2.459  11.635   3.248
 7769SOL    HW225140   2.444  11.492   3.199
 7770SOL     OW25141   4.998   1.433  10.879
 7770SOL    HW125142   4.966   1.454  10.966
 7770SOL    HW225143   5.084   1.393  10.894
 7771SOL     OW25144   9.755  13.381   4.208
 7771SOL    HW125145   9.745  13.454   4.146
 7771SOL    HW225146   9.687  13.319   4.182
 7772SOL     OW25147   7.649   2.423   5.246
 7772SOL    HW125148   7.591   2.480   5.295
 7772SOL    HW225149   7.682   2.477   5.174
 7773SOL     OW25150  14.689  13.883  12.129
 7773SOL    HW125151  14.621  13.946  12.106
 7773SOL    HW225152  14.736  13.923  12.202
 7774SOL     OW25153   9.658  11.134   3.487
 7774SOL    HW125154   9.614  11.051   3.467
 7774SOL    HW225155   9.628  11.156   3.575
 7775SOL     OW25156  11.125   2.483  11.913
 7775SOL    HW125157  11.094   2.407  11.961
 7775SOL    HW225158  11.163   2.447  11.833
 7776SOL     OW25159  11.485   7.935   4.301
 7776SOL    HW125160  11.579   7.950   4.309
 7776SOL    HW225161  11.452   8.014   4.256
 7777SOL     OW25162   9.254  14.370  14.760
 7777SOL    HW125163   9.237  14.276  14.761
 7777SOL    HW225164   9.194  14.405  14.693
 7778SOL     OW25165   4.356   8.257  10.048
 7778SOL    HW125166   4.275   8.289  10.010
 7778SOL    HW225167   4.413   8.334  10.051
 7779SOL     OW25168   7.850  12.192   4.801
 7779SOL    HW125169   7.825  12.188   4.709
 7779SOL    HW225170   7.915  12.262   4.806
 7780SOL     OW25171  13.141   0.964   1.387
 7780SOL    HW125172  13.103   0.877   1.396
 7780SOL    HW225173  13.155   0.975   1.293
 7781SOL     OW25174   0.077   4.581   2.758
 7781SOL    HW125175   0.040   4.550   2.675
 7781SOL    HW225176   0.065   4.508   2.819
 7782SOL     OW25177   0.509   6.886  10.480
 7782SOL    HW125178   0.426   6.933  10.476
 7782SOL    HW225179   0.566   6.943  10.530
 7783SOL     OW25180   4.400   1.857  10.484
 7783SOL    HW125181   4.405   1.951  10.472
 7783SOL    HW225182   4.462   1.821  10.420
 7784SOL     OW25183   6.439   7.450   7.264
 7784SOL    HW125184   6.410   7.489   7.182
 7784SOL    HW225185   6.427   7.356   7.252
 7785SOL     OW25186   8.732   3.357  12.480
 7785SOL    HW125187   8.818   3.375  12.442
 7785SOL    HW225188   8.740   3.269  12.517
 7786SOL     OW25189   7.848   2.411   9.976
 7786SOL    HW125190   7.758   2.443   9.974
 7786SOL    HW225191   7.899   2.488  10.002
 7787SOL     OW25192   1.417   5.061  10.399
 7787SOL    HW125193   1.328   5.082  10.429
 7787SOL    HW225194   1.469   5.062  10.479
 7788SOL     OW25195   9.572  14.357   3.001
 7788SOL    HW125196   9.642  14.315   2.950
 7788SOL    HW225197   9.528  14.284   3.046
 7789SOL     OW25198   3.413   3.025   2.289
 7789SOL    HW125199   3.343   2.959   2.288
 7789SOL    HW225200   3.457   3.013   2.373
 7790SOL     OW25201  10.219  13.092   2.375
 7790SOL    HW125202  10.304  13.130   2.353
 7790SOL    HW225203  10.200  13.126   2.463
 7791SOL     OW25204   9.637   3.670   6.221
 7791SOL    HW125205   9.613   3.585   6.258
 7791SOL    HW225206   9.594   3.734   6.278
 7792SOL     OW25207   9.976   7.039   4.609
 7792SOL    HW125208  10.059   7.030   4.656
 7792SOL    HW225209   9.967   6.956   4.562
 7793SOL     OW25210   6.753   6.926  11.057
 7793SOL    HW125211   6.810   6.930  11.134
 7793SOL    HW225212   6.773   7.006  11.008
 7794SOL     OW25213   8.606   5.673   7.051
 7794SOL    HW125214   8.542   5.678   6.980
 7794SOL    HW225215   8.629   5.580   7.055
 7795SOL     OW25216   4.759   9.863   3.153
 7795SOL    HW125217   4.824   9.797   3.129
 7795SOL    HW225218   4.698   9.865   3.080
 7796SOL     OW25219  12.179  10.184  11.500
 7796SOL    HW125220  12.193  10.204  11.592
 7796SOL    HW225221  12.232  10.106  11.484
 7797SOL     OW25222   0.476   7.281   4.712
 7797SOL    HW125223   0.470   7.351   4.646
 7797SOL    HW225224   0.459   7.200   4.663
 7798SOL     OW25225  13.149  11.825   1.347
 7798SOL    HW125226  13.173  11.918   1.338
 7798SOL    HW225227  13.065  11.818   1.300
 7799SOL     OW25228  12.912  11.661   7.795
 7799SOL    HW125229  12.897  11.568   7.813
 7799SOL    HW225230  12.958  11.662   7.711
 7800SOL     OW25231   9.199  10.787   8.511
 7800SOL    HW125232   9.128  10.810   8.572
 7800SOL    HW225233   9.228  10.871   8.476
 7801SOL     OW25234   9.867   7.488   9.908
 7801SOL    HW125235   9.936   7.450   9.853
 7801SOL    HW225236   9.799   7.421   9.911
 7802SOL     OW25237   0.380   5.316   6.029
 7802SOL    HW125238   0.418   5.231   6.006
 7802SOL    HW225239   0.368   5.312   6.123
 7803SOL     OW25240   6.443  13.977   0.409
 7803SOL    HW125241   6.446  14.045   0.341
 7803SOL    HW225242   6.386  14.014   0.476
 7804SOL     OW25243  10.019   0.714   0.481
 7804SOL    HW125244   9.983   0.626   0.468
 7804SOL    HW225245  10.064   0.710   0.565
 7805SOL     OW25246   0.444   5.326   9.496
 7805SOL    HW125247   0.390   5.301   9.571
 7805SOL    HW225248   0.490   5.246   9.473
 7806SOL     OW25249   3.500   9.428   3.567
 7806SOL    HW125250   3.595   9.420   3.554
 7806SOL    HW225251   3.474   9.499   3.508
 7807SOL     OW25252   6.369  12.168  10.206
 7807SOL    HW125253   6.391  12.079  10.180
 7807SOL    HW225254   6.451  12.205  10.238
 7808SOL     OW25255  14.300  13.478  13.529
 7808SOL    HW125256  14.241  13.405  13.510
 7808SOL    HW225257  14.353  13.447  13.602
 7809SOL     OW25258   0.771  10.689  11.719
 7809SOL    HW125259   0.841  10.648  11.669
 7809SOL    HW225260   0.693  10.679  11.664
 7810SOL     OW25261   4.563   6.055   6.369
 7810SOL    HW125262   4.561   5.964   6.398
 7810SOL    HW225263   4.474   6.087   6.382
 7811SOL     OW25264  13.798  12.762   0.735
 7811SOL    HW125265  13.724  12.820   0.718
 7811SOL    HW225266  13.871  12.821   0.756
 7812SOL     OW25267   7.916  14.105   5.761
 7812SOL    HW125268   7.849  14.102   5.829
 7812SOL    HW225269   7.868  14.089   5.680
 7813SOL     OW25270  10.594  12.591  12.759
 7813SOL    HW125271  10.640  12.588  12.675
 7813SOL    HW225272  10.539  12.669  12.754
 7814SOL     OW25273   3.404  14.416   6.298
 7814SOL    HW125274   3.468  14.486   6.287
 7814SOL    HW225275   3.401  14.401   6.392
 7815SOL     OW25276   2.997   6.822  12.705
 7815SOL    HW125277   2.947   6.899  12.729
 7815SOL    HW225278   3.075   6.856  12.661
 7816SOL     OW25279  14.207  14.327   6.310
 7816SOL    HW125280  14.201  14.404   6.253
 7816SOL    HW225281  14.128  14.277   6.289
 7817SOL     OW25282  11.927   2.319   8.068
 7817SOL    HW125283  12.015   2.286   8.088
 7817SOL    HW225284  11.927   2.407   8.105
 7818SOL     OW25285  14.563   8.574  11.839
 7818SOL    HW125286  14.519   8.627  11.773
 7818SOL    HW225287  14.640   8.625  11.864
 7819SOL     OW25288  13.675   4.221   4.457
 7819SOL    HW125289  13.678   4.160   4.531
 7819SOL    HW225290  13.597   4.195   4.407
 7820SOL     OW25291   4.526   8.316  10.566
 7820SOL    HW125292   4.440   8.357  10.561
 7820SOL    HW225293   4.558   8.338  10.653
 7821SOL     OW25294   8.396  14.865  10.660
 7821SOL    HW125295   8.429  14.778  10.686
 7821SOL    HW225296   8.309  14.848  10.625
 7822SOL     OW25297   6.690  10.670   2.734
 7822SOL    HW125298   6.624  10.733   2.707
 7822SOL    HW225299   6.683  10.667   2.830
 7823SOL     OW25300   9.924   5.186   6.435
 7823SOL    HW125301   9.893   5.103   6.472
 7823SOL    HW225302   9.956   5.235   6.511
 7824SOL     OW25303   8.795   0.537  10.475
 7824SOL    HW125304   8.792   0.560  10.382
 7824SOL    HW225305   8.805   0.442  10.476
 7825SOL     OW25306  14.241   5.179   0.553
 7825SOL    HW125307  14.312   5.217   0.604
 7825SOL    HW225308  14.167   5.176   0.614
 7826SOL     OW25309   7.807  12.894   5.878
 7826SOL    HW125310   7.870  12.926   5.942
 7826SOL    HW225311   7.808  12.799   5.889
 7827SOL     OW25312   1.168   0.289   4.983
 7827SOL    HW125313   1.161   0.306   4.889
 7827SOL    HW225314   1.093   0.333   5.021
 7828SOL     OW25315   9.704   7.282   9.870
 7828SOL    HW125316   9.682   7.213   9.808
 7828SOL    HW225317   9.621   7.305   9.911
 7829SOL     OW25318   7.872   5.305  13.602
 7829SOL    HW125319   7.794   5.307  13.657
 7829SOL    HW225320   7.842   5.338  13.517
 7830SOL     OW25321   4.768   3.893  11.815
 7830SOL    HW125322   4.799   3.843  11.739
 7830SOL    HW225323   4.747   3.979  11.779
 7831SOL     OW25324  13.559   7.875  11.865
 7831SOL    HW125325  13.540   7.836  11.951
 7831SOL    HW225326  13.641   7.923  11.878
 7832SOL     OW25327   6.132   9.316  10.527
 7832SOL    HW125328   6.154   9.281  10.613
 7832SOL    HW225329   6.068   9.385  10.544
 7833SOL     OW25330  12.696   9.303   0.147
 7833SOL    HW125331  12.694   9.247   0.225
 7833SOL    HW225332  12.679   9.243   0.074
 7834SOL     OW25333   3.455   4.684   8.276
 7834SOL    HW125334   3.446   4.707   8.183
 7834SOL    HW225335   3.496   4.598   8.276
 7835SOL     OW25336   4.710  11.866  10.812
 7835SOL    HW125337   4.765  11.916  10.753
 7835SOL    HW225338   4.642  11.829  10.756
 7836SOL     OW25339  10.578   0.705  10.696
 7836SOL    HW125340  10.598   0.751  10.777
 7836SOL    HW225341  10.640   0.632  10.694
 7837SOL     OW25342   8.548   9.127   1.951
 7837SOL    HW125343   8.457   9.156   1.950
 7837SOL    HW225344   8.574   9.125   1.859
 7838SOL     OW25345   2.060   6.063   1.141
 7838SOL    HW125346   2.016   6.143   1.112
 7838SOL    HW225347   2.084   6.017   1.061
 7839SOL     OW25348   0.949   5.254  10.656
 7839SOL    HW125349   0.921   5.334  10.701
 7839SOL    HW225350   1.011   5.214  10.717
 7840SOL     OW25351  11.006   8.400  10.606
 7840SOL    HW125352  11.043   8.328  10.555
 7840SOL    HW225353  11.063   8.407  10.682
 7841SOL     OW25354   7.731  11.695  14.570
 7841SOL    HW125355   7.700  11.625  14.628
 7841SOL    HW225356   7.675  11.769  14.590
 7842SOL     OW25357   0.507   6.900   6.651
 7842SOL    HW125358   0.598   6.921   6.672
 7842SOL    HW225359   0.467   6.986   6.635
 7843SOL     OW25360  12.135  12.126   5.783
 7843SOL    HW125361  12.101  12.203   5.829
 7843SOL    HW225362  12.065  12.102   5.723
 7844SOL     OW25363   0.489  11.215   6.820
 7844SOL    HW125364   0.532  11.144   6.772
 7844SOL    HW225365   0.399  11.214   6.787
 7845SOL     OW25366  14.690  14.210   3.518
 7845SOL    HW125367  14.764  14.160   3.484
 7845SOL    HW225368  14.613  14.162   3.486
 7846SOL     OW25369   5.371  14.193   0.931
 7846SOL    HW125370   5.343  14.248   0.858
 7846SOL    HW225371   5.421  14.122   0.891
 7847SOL     OW25372   1.918   2.580  13.777
 7847SOL    HW125373   1.999   2.604  13.824
 7847SOL    HW225374   1.948   2.550  13.692
 7848SOL     OW25375  14.122  12.302  11.535
 7848SOL    HW125376  14.179  12.368  11.495
 7848SOL    HW225377  14.142  12.221  11.488
 7849SOL     OW25378   3.414  13.911   4.362
 7849SOL    HW125379   3.417  13.900   4.267
 7849SOL    HW225380   3.330  13.873   4.388
 7850SOL     OW25381  13.590   4.596  10.477
 7850SOL    HW125382  13.499   4.598  10.505
 7850SOL    HW225383  13.594   4.658  10.404
 7851SOL     OW25384  11.557   6.303   4.900
 7851SOL    HW125385  11.606   6.221   4.891
 7851SOL    HW225386  11.625   6.371   4.898
 7852SOL     OW25387   1.127  12.625   6.101
 7852SOL    HW125388   1.058  12.559   6.090
 7852SOL    HW225389   1.118  12.653   6.192
 7853SOL     OW25390  10.849   1.074   8.157
 7853SOL    HW125391  10.802   1.130   8.219
 7853SOL    HW225392  10.910   1.025   8.211
 7854SOL     OW25393  12.738  11.537   6.676
 7854SOL    HW125394  12.747  11.498   6.588
 7854SOL    HW225395  12.825  11.571   6.696
 7855SOL     OW25396   3.057   2.186   7.602
 7855SOL    HW125397   3.039   2.129   7.527
 7855SOL    HW225398   3.147   2.215   7.588
 7856SOL     OW25399  14.633   6.089   3.935
 7856SOL    HW125400  14.666   6.004   3.965
 7856SOL    HW225401  14.538   6.079   3.936
 7857SOL     OW25402   6.119  12.306   0.263
 7857SOL    HW125403   6.042  12.358   0.242
 7857SOL    HW225404   6.126  12.243   0.192
 7858SOL     OW25405  14.427  12.294   6.179
 7858SOL    HW125406  14.333  12.278   6.171
 7858SOL    HW225407  14.460  12.281   6.090
 7859SOL     OW25408  11.242   1.485  13.857
 7859SOL    HW125409  11.254   1.411  13.917
 7859SOL    HW225410  11.202   1.553  13.911
 7860SOL     OW25411   0.893   7.393  10.516
 7860SOL    HW125412   0.961   7.340  10.475
 7860SOL    HW225413   0.865   7.343  10.592
 7861SOL     OW25414   4.594   5.437   2.844
 7861SOL    HW125415   4.590   5.374   2.772
 7861SOL    HW225416   4.688   5.446   2.862
 7862SOL     OW25417  14.106  10.584  12.294
 7862SOL    HW125418  14.090  10.675  12.319
 7862SOL    HW225419  14.108  10.537  12.378
 7863SOL     OW25420  11.617   7.758   0.905
 7863SOL    HW125421  11.634   7.764   0.811
 7863SOL    HW225422  11.522   7.766   0.914
 7864SOL     OW25423  12.861   6.497   0.511
 7864SOL    HW125424  12.850   6.589   0.490
 7864SOL    HW225425  12.819   6.486   0.596
 7865SOL     OW25426   1.081  13.800   0.097
 7865SOL    HW125427   0.993  13.836   0.095
 7865SOL    HW225428   1.069  13.708   0.119
 7866SOL     OW25429  11.957   5.094  10.762
 7866SOL    HW125430  11.950   5.009  10.805
 7866SOL    HW225431  11.925   5.079  10.673
 7867SOL     OW25432   5.203   2.362   6.297
 7867SOL    HW125433   5.274   2.333   6.239
 7867SOL    HW225434   5.145   2.413   6.240
 7868SOL     OW25435   9.801  13.695   5.500
 7868SOL    HW125436   9.802  13.660   5.411
 7868SOL    HW225437   9.717  13.666   5.536
 7869SOL     OW25438   5.646  14.831   9.022
 7869SOL    HW125439   5.686   0.021   8.962
 7869SOL    HW225440   5.655  14.871   9.108
 7870SOL     OW25441   8.791   3.953   5.704
 7870SOL    HW125442   8.881   3.922   5.695
 7870SOL    HW225443   8.789   4.036   5.656
 7871SOL     OW25444   9.887  10.462  14.068
 7871SOL    HW125445   9.946  10.412  14.012
 7871SOL    HW225446   9.817  10.401  14.089
 7872SOL     OW25447   3.861  12.932   1.501
 7872SOL    HW125448   3.820  13.002   1.451
 7872SOL    HW225449   3.954  12.956   1.505
 7873SOL     OW25450   8.462   9.398   6.802
 7873SOL    HW125451   8.547   9.368   6.769
 7873SOL    HW225452   8.412   9.317   6.815
 7874SOL     OW25453   9.265   2.248   0.031
 7874SOL    HW125454   9.262   2.218   0.122
 7874SOL    HW225455   9.173   2.250   0.004
 7875SOL     OW25456  12.931   5.115   3.926
 7875SOL    HW125457  12.865   5.102   3.995
 7875SOL    HW225458  12.931   5.033   3.877
 7876SOL     OW25459  14.755  12.127   6.268
 7876SOL    HW125460  14.842  12.088   6.263
 7876SOL    HW225461  14.746  12.178   6.187
 7877SOL     OW25462   9.399   1.998  12.569
 7877SOL    HW125463   9.413   1.955  12.653
 7877SOL    HW225464   9.447   1.944  12.506
 7878SOL     OW25465   8.395  11.949   8.561
 7878SOL    HW125466   8.403  12.039   8.595
 7878SOL    HW225467   8.328  11.909   8.616
 7879SOL     OW25468  13.897   3.010  10.259
 7879SOL    HW125469  13.832   3.068  10.298
 7879SOL    HW225470  13.846   2.948  10.207
 7880SOL     OW25471   5.945   2.199  11.377
 7880SOL    HW125472   5.907   2.270  11.324
 7880SOL    HW225473   5.925   2.223  11.467
 7881SOL     OW25474   9.375   0.667  12.294
 7881SOL    HW125475   9.455   0.700  12.254
 7881SOL    HW225476   9.394   0.665  12.388
 7882SOL     OW25477   7.343   4.124  11.742
 7882SOL    HW125478   7.430   4.085  11.732
 7882SOL    HW225479   7.301   4.110  11.657
 7883SOL     OW25480   7.819  13.197   5.632
 7883SOL    HW125481   7.831  13.102   5.630
 7883SOL    HW225482   7.838  13.225   5.542
 7884SOL     OW25483   2.011   6.032   3.842
 7884SOL    HW125484   2.012   6.093   3.917
 7884SOL    HW225485   2.095   6.046   3.799
 7885SOL     OW25486   5.115   9.451   1.810
 7885SOL    HW125487   5.037   9.396   1.807
 7885SOL    HW225488   5.082   9.538   1.831
 7886SOL     OW25489   0.170   5.186   1.822
 7886SOL    HW125490   0.196   5.196   1.914
 7886SOL    HW225491   0.239   5.131   1.784
 7887SOL     OW25492   1.946  13.628   6.261
 7887SOL    HW125493   1.857  13.661   6.251
 7887SOL    HW225494   1.937  13.533   6.263
 7888SOL     OW25495  13.803  13.916   7.076
 7888SOL    HW125496  13.721  13.966   7.084
 7888SOL    HW225497  13.864  13.976   7.035
 7889SOL     OW25498   9.325   6.347   4.062
 7889SOL    HW125499   9.242   6.347   4.110
 7889SOL    HW225500   9.368   6.266   4.087
 7890SOL     OW25501  14.108  12.833   9.140
 7890SOL    HW125502  14.133  12.810   9.050
 7890SOL    HW225503  14.168  12.904   9.163
 7891SOL     OW25504  14.162   0.737   4.570
 7891SOL    HW125505  14.186   0.644   4.563
 7891SOL    HW225506  14.190   0.775   4.486
 7892SOL     OW25507   3.249   4.117   8.592
 7892SOL    HW125508   3.174   4.138   8.537
 7892SOL    HW225509   3.222   4.143   8.680
 7893SOL     OW25510   3.960  14.696  13.978
 7893SOL    HW125511   3.957  14.686  14.073
 7893SOL    HW225512   3.971  14.791  13.964
 7894SOL     OW25513  11.540   9.955   8.723
 7894SOL    HW125514  11.612   9.891   8.721
 7894SOL    HW225515  11.464   9.905   8.753
 7895SOL     OW25516   4.784   2.517  11.339
 7895SOL    HW125517   4.741   2.528  11.424
 7895SOL    HW225518   4.715   2.536  11.275
 7896SOL     OW25519   2.302   1.721  12.994
 7896SOL    HW125520   2.358   1.711  12.917
 7896SOL    HW225521   2.234   1.782  12.967
 7897SOL     OW25522  10.766  13.254   5.015
 7897SOL    HW125523  10.728  13.333   5.053
 7897SOL    HW225524  10.692  13.194   5.003
 7898SOL     OW25525   8.985   4.795  11.290
 7898SOL    HW125526   9.068   4.787  11.337
 7898SOL    HW225527   8.941   4.712  11.305
 7899SOL     OW25528   7.429   4.609   3.869
 7899SOL    HW125529   7.345   4.578   3.835
 7899SOL    HW225530   7.494   4.562   3.817
 7900SOL     OW25531   2.128   4.253   9.225
 7900SOL    HW125532   2.199   4.316   9.213
 7900SOL    HW225533   2.071   4.294   9.290
 7901SOL     OW25534   5.920   7.538   3.927
 7901SOL    HW125535   5.902   7.476   3.997
 7901SOL    HW225536   5.941   7.620   3.973
 7902SOL     OW25537   6.371   9.983   2.746
 7902SOL    HW125538   6.446  10.029   2.783
 7902SOL    HW225539   6.331   9.937   2.820
 7903SOL     OW25540   4.454  12.414  14.509
 7903SOL    HW125541   4.518  12.466  14.461
 7903SOL    HW225542   4.372  12.462  14.497
 7904SOL     OW25543   8.169  14.255   9.186
 7904SOL    HW125544   8.159  14.160   9.197
 7904SOL    HW225545   8.112  14.293   9.252
 7905SOL     OW25546   9.978  14.223   3.272
 7905SOL    HW125547   9.963  14.137   3.312
 7905SOL    HW225548  10.071  14.239   3.284
 7906SOL     OW25549  10.685  13.380   0.428
 7906SOL    HW125550  10.766  13.333   0.410
 7906SOL    HW225551  10.714  13.459   0.474
 7907SOL     OW25552   9.049  10.998  11.981
 7907SOL    HW125553   9.068  11.069  12.042
 7907SOL    HW225554   9.026  11.042  11.899
 7908SOL     OW25555  12.775   9.105  10.831
 7908SOL    HW125556  12.751   9.180  10.777
 7908SOL    HW225557  12.699   9.092  10.889
 7909SOL     OW25558  11.245   4.147   2.471
 7909SOL    HW125559  11.333   4.183   2.465
 7909SOL    HW225560  11.256   4.064   2.517
 7910SOL     OW25561   5.290   5.663   5.301
 7910SOL    HW125562   5.253   5.601   5.238
 7910SOL    HW225563   5.368   5.698   5.258
 7911SOL     OW25564   8.099  12.944  11.577
 7911SOL    HW125565   8.114  13.021  11.631
 7911SOL    HW225566   8.013  12.912  11.604
 7912SOL     OW25567  10.807   2.326  12.583
 7912SOL    HW125568  10.744   2.275  12.634
 7912SOL    HW225569  10.754   2.392  12.538
 7913SOL     OW25570   1.934  11.392   7.990
 7913SOL    HW125571   1.989  11.462   8.024
 7913SOL    HW225572   1.888  11.431   7.916
 7914SOL     OW25573   9.503   1.027   0.285
 7914SOL    HW125574   9.506   1.070   0.200
 7914SOL    HW225575   9.577   1.064   0.334
 7915SOL     OW25576   6.468   6.913  12.747
 7915SOL    HW125577   6.436   6.833  12.705
 7915SOL    HW225578   6.465   6.979  12.677
 7916SOL     OW25579   2.748   4.694   8.262
 7916SOL    HW125580   2.695   4.741   8.327
 7916SOL    HW225581   2.833   4.738   8.264
 7917SOL     OW25582   5.285  14.716   9.486
 7917SOL    HW125583   5.250  14.639   9.440
 7917SOL    HW225584   5.234  14.721   9.567
 7918SOL     OW25585   1.485   3.601   5.878
 7918SOL    HW125586   1.484   3.575   5.785
 7918SOL    HW225587   1.578   3.604   5.900
 7919SOL     OW25588  13.099   7.991   0.514
 7919SOL    HW125589  13.179   8.042   0.527
 7919SOL    HW225590  13.047   8.044   0.454
 7920SOL     OW25591  12.237   3.855  12.816
 7920SOL    HW125592  12.184   3.844  12.737
 7920SOL    HW225593  12.176   3.838  12.888
 7921SOL     OW25594   4.497  10.311  12.017
 7921SOL    HW125595   4.473  10.404  12.017
 7921SOL    HW225596   4.547  10.299  12.097
 7922SOL     OW25597   7.071   2.727   3.284
 7922SOL    HW125598   7.155   2.747   3.243
 7922SOL    HW225599   7.058   2.634   3.266
 7923SOL     OW25600   2.716  10.034   4.943
 7923SOL    HW125601   2.752  10.072   5.023
 7923SOL    HW225602   2.676   9.952   4.971
 7924SOL     OW25603   4.664   5.605   6.280
 7924SOL    HW125604   4.580   5.614   6.237
 7924SOL    HW225605   4.700   5.522   6.248
 7925SOL     OW25606   7.020   4.931   0.015
 7925SOL    HW125607   7.028   4.853  14.833
 7925SOL    HW225608   7.005   4.897   0.103
 7926SOL     OW25609   7.558   6.291  12.295
 7926SOL    HW125610   7.559   6.373  12.247
 7926SOL    HW225611   7.650   6.274  12.316
 7927SOL     OW25612   3.275   8.411   8.818
 7927SOL    HW125613   3.189   8.387   8.784
 7927SOL    HW225614   3.303   8.484   8.762
 7928SOL     OW25615  11.807   4.335   1.550
 7928SOL    HW125616  11.843   4.340   1.461
 7928SOL    HW225617  11.784   4.243   1.562
 7929SOL     OW25618   0.385   8.159   9.321
 7929SOL    HW125619   0.395   8.185   9.413
 7929SOL    HW225620   0.420   8.233   9.271
 7930SOL     OW25621   8.806  13.595   4.264
 7930SOL    HW125622   8.883  13.639   4.231
 7930SOL    HW225623   8.751  13.581   4.186
 7931SOL     OW25624   1.397  11.898   6.287
 7931SOL    HW125625   1.441  11.814   6.303
 7931SOL    HW225626   1.400  11.943   6.372
 7932SOL     OW25627   0.258   1.128   7.335
 7932SOL    HW125628   0.218   1.090   7.256
 7932SOL    HW225629   0.184   1.163   7.384
 7933SOL     OW25630   9.628   6.641  14.289
 7933SOL    HW125631   9.657   6.706  14.353
 7933SOL    HW225632   9.552   6.599  14.330
 7934SOL     OW25633  10.672   0.313  10.355
 7934SOL    HW125634  10.597   0.255  10.339
 7934SOL    HW225635  10.632   0.398  10.375
 7935SOL     OW25636   6.633  11.095   3.469
 7935SOL    HW125637   6.714  11.119   3.513
 7935SOL    HW225638   6.660  11.077   3.379
 7936SOL     OW25639   7.114  10.265   4.813
 7936SOL    HW125640   7.056  10.230   4.881
 7936SOL    HW225641   7.056  10.310   4.752
 7937SOL     OW25642   9.380   4.003  11.966
 7937SOL    HW125643   9.309   4.041  12.018
 7937SOL    HW225644   9.376   3.909  11.984
 7938SOL     OW25645   4.579  12.620   2.673
 7938SOL    HW125646   4.603  12.666   2.753
 7938SOL    HW225647   4.661  12.610   2.625
 7939SOL     OW25648  11.507  11.921  12.760
 7939SOL    HW125649  11.572  11.858  12.789
 7939SOL    HW225650  11.429  11.869  12.742
 7940SOL     OW25651   9.649   8.778  10.181
 7940SOL    HW125652   9.692   8.704  10.139
 7940SOL    HW225653   9.596   8.818  10.112
 7941SOL     OW25654   5.303   8.375   1.954
 7941SOL    HW125655   5.306   8.356   1.861
 7941SOL    HW225656   5.366   8.445   1.967
 7942SOL     OW25657   5.571   2.543  12.919
 7942SOL    HW125658   5.579   2.469  12.858
 7942SOL    HW225659   5.491   2.588  12.890
 7943SOL     OW25660   0.531   4.318  12.529
 7943SOL    HW125661   0.479   4.376  12.586
 7943SOL    HW225662   0.493   4.330  12.442
 7944SOL     OW25663   6.452   6.591  10.789
 7944SOL    HW125664   6.479   6.501  10.771
 7944SOL    HW225665   6.421   6.589  10.880
 7945SOL     OW25666   3.301  10.481   8.381
 7945SOL    HW125667   3.223  10.497   8.327
 7945SOL    HW225668   3.359  10.554   8.360
 7946SOL     OW25669   4.452   8.578   8.389
 7946SOL    HW125670   4.512   8.548   8.457
 7946SOL    HW225671   4.432   8.500   8.338
 7947NA      NA25672  11.967   4.042  11.860
 7948NA      NA25673  10.364   3.148  14.784
 7949NA      NA25674   7.936  12.950  12.367
 7950NA      NA25675   4.100   4.711   1.460
 7951NA      NA25676  11.208   5.325   8.188
 7952NA      NA25677  12.129   7.819  11.234
 7953NA      NA25678  10.381   0.011   0.313
 7954NA      NA25679   9.121   4.891   1.923
 7955NA      NA25680  11.395   3.857  11.239
 7956NA      NA25681   9.975   7.465   9.098
 7957NA      NA25682  10.458   9.771   9.461
 7958NA      NA25683   2.570   2.025   8.027
 7959NA      NA25684   2.866   7.416   0.390
 7960NA      NA25685   9.802   4.819  11.116
 7961NA      NA25686  11.100   4.397  13.288
 7962NA      NA25687  11.421   3.413   0.034
 7963NA      NA25688  12.004   2.309  12.223
 7964NA      NA25689  13.392   9.224   8.753
 7965NA      NA25690  11.333   8.696   8.684
 7966NA      NA25691   7.703  11.733   4.925
 7967NA      NA25692  10.784   3.755  11.004
 7968NA      NA25693   9.430   6.302   0.527
 7969NA      NA25694  10.235   4.651   9.827
 7970NA      NA25695  11.562   1.924  12.359
 7971NA      NA25696   8.763   6.338  13.938
 7972NA      NA25697  11.505   6.729  10.769
 7973NA      NA25698  10.729   7.190   9.262
 7974NA      NA25699   9.878  11.895  12.702
 7975NA      NA25700  10.312  10.155   7.999
 7976NA      NA25701  12.428   4.976  12.428
 7977NA      NA25702  12.137   6.342   3.239
 7978NA      NA25703  10.071   3.467  14.361
 7979NA      NA25704   9.204   6.908   6.178
 7980NA      NA25705  11.047   5.255   9.934
 7981NA      NA25706  12.795   2.808  13.881
 7982NA      NA25707  10.190   6.350  11.181
 7983NA      NA25708  11.477   5.652  11.791
 7984NA      NA25709   8.731   7.932   8.113
 7985NA      NA25710  14.470  13.386  13.030
 7986NA      NA25711  10.769   3.415  12.364
 7987NA      NA25712   9.987   7.736  10.834
 7988NA      NA25713   4.305  13.095  11.034
 7989NA      NA25714   9.803   5.567  11.537
 7990NA      NA25715  10.203   1.126   2.620
 7991NA      NA25716  10.451  10.572   8.760
 7992NA      NA25717   5.203  13.142   3.577
 7993NA      NA25718   1.327   0.265   6.164
 7994NA      NA25719   9.341   4.954  12.519
 7995NA      NA25720   0.131  11.204   9.646
 7996NA      NA25721  10.516   8.090   9.928
 7997NA      NA25722  10.526  10.613   9.123
 7998NA      NA25723  11.465   6.897   9.883
 7999NA      NA25724   9.131   8.385   8.717
 8000NA      NA25725  10.279   3.619  12.148
 8001NA      NA25726   9.440   9.063  10.167
 8002NA      NA25727  13.085   3.496   8.843
 8003NA      NA25728   4.017   0.640   5.891
 8004NA      NA25729  11.463   4.388  10.379
 8005NA      NA25730  13.438   5.076  12.860
 8006NA      NA25731   3.316   4.463   6.665
 8007NA      NA25732   9.591   9.211  11.431
  14.87222  14.87222  14.87222
